/*--------------------------------*- C++ -*----------------------------------*\
| =========                 |                                                 |
| \\      /  F ield         | OpenFOAM: The Open Source CFD Toolbox           |
|  \\    /   O peration     | Version:  5.x                                   |
|   \\  /    A nd           | Web:      www.OpenFOAM.org                      |
|    \\/     M anipulation  |                                                 |
\*---------------------------------------------------------------------------*/
FoamFile
{
    version     2.0;
    format      ascii;
    class       volScalarField;
    location    "4.15";
    object      Ksl;
}
// * * * * * * * * * * * * * * * * * * * * * * * * * * * * * * * * * * * * * //

dimensions      [1 -3 -1 0 0 0 0];

internalField   nonuniform List<scalar> 
10571
(
8382.55
10350.8
5443.41
821.236
1166.83
6234.57
1379.49
1188.69
1027.63
5464.49
4835.64
6787.98
1601.62
3167.73
1619.62
4603.26
9095.64
5693.78
2945.1
1605.38
5519.97
7556.14
1240.62
2417.62
1413.47
12993.5
4736.81
4264.67
4598.74
12312.2
7362.36
5724.02
5207.32
6998.29
12249.1
13262.6
5306.86
6695.78
8647.64
8673.26
12919.1
11270.3
4898.1
658.468
11951.7
11630
10432.7
10993.8
657.928
4876.77
301.088
1847.25
499.703
263.177
4686.29
8277.36
5090.03
4448.11
10384.9
283.808
5957.78
7875.81
4406.88
2097.99
6356.29
4647.79
5177.4
10672.8
948.141
12189.6
8299.64
10231.4
210.161
3941.15
140.314
147.738
214.541
219.797
628.202
1705
1245.85
1014.23
873.449
184.347
2316.84
2640.96
406.851
761.591
54.822
151.36
1432.57
193.729
371.872
9.0097
1198.18
1886.88
194.034
762.935
64.9148
228.563
317.195
114.134
266.429
323.51
964.02
540.097
168.947
379.82
90.2301
780.013
495.18
593.715
12.1357
6.24476
215.75
257.731
169.095
0
14.9416
4192.59
255.16
210.801
635.488
210.177
73.1488
46.9686
856.374
1697.61
1413.02
685.82
13965.8
146.388
53.3323
21.3686
121.59
612.752
1116.6
11578.8
0
0
27.2136
719.337
628.11
9.27594
4.37556
572.614
801.415
163.083
113.868
1002.09
230.176
183.397
29.1959
35.614
149.167
269.06
47.5002
75.5118
101.658
3.16421
7.89447
33.9992
84.9527
449.154
5.30378
1.7294
5.04465
93.0079
1538.73
3.99976
0
0
0
194.977
141.034
63.8772
65.0816
202.882
81.4708
7.92559
3.33613
45.5126
134.641
52.0422
19.6372
10.6469
2.01194
0.831335
13.8588
36.422
13.856
5.51671
2.30459
1.96614
0
18.6122
0
7.53716
0
0
145.207
51.6255
56.5234
42.4794
191.216
12.0313
4.1376
6.06836
4.97765
88.8525
43.8257
0
0
1.36555
1.24515
3.84776
5.98077
2.82953
2.67956
2.40399
0.235201
0
0
0
0
0
236.893
17.9824
33.0245
45.0612
244.002
12.4276
4.25593
7.19431
17.1593
42.4675
0
0
1.94364
2.24889
4.6387
8.77146
-6.45739e-13
1.29295
1.66045
0
0
12.159
0
0
124.864
22.1397
56.453
73.9319
200.357
12.419
4.48848
6.48879
17.5992
35.5062
0
0
0.308413
1.36382
2.02575
4.16849
3.68177
1.58828
0.747206
0
0
6.17196
0
0
28.6965
-5.66474e-12
6.98427
77.1193
146.493
12.0909
1.35088
8.70342
11.6261
21.2066
0
0
2.42673
0
2.16212
4.05042
0
2.33472
2.31223
0
0
0
0
0
0
10.6042
0
49.3072
31.5744
8.83339
2.77978
3.79642
0.584249
14.081
0
1.48328
-2.50533e-13
0
0.711491
0
0
0
0.714113
0
0
7.28604
0
0
12.3397
0
0
58.073
10.0678
8.47041
1.30311
1.36794
0
0
0
0
1.973
0.68463
0
0
0
1.57803
0
0
0
7.01856
0
0
0
0
0
5.00358
0
12.6356
0
0.84297
0
4.80661
0
0
1.32962
0.69621
0
0
0
1.45685
0
0
0
0
0
0
0
0
0
0
2.26368
6.31612
1.30938
-2.26542e-13
0
0
0
0
1.97178
0
0.72314
0
0
0.783001
0.72943
5.14806
0
0
0
0
0
0
0
0
0
6.28261
-1.74224e-13
0.304661
0
0
0
0
0.658306
0.680938
1.30459
0
0
-2.52132e-13
-2.3408e-13
0
0
-2.23252e-12
0
0
0
0
0
0
0
0
0.651314
0.454184
0
0
0
4.92965
0.63965
0
0.709144
0
0
0.732845
0.689891
0
0
0
0
0
0
0
0
0
0
0
1.4517
0
0
0
0
1.60835
0
0
0
0
2.05537
0
0.710505
0
0
0
0
0
0
0
0
0
0
0
1.1664
0
0.742525
0
0
0.209386
1.71609
0
0
4.99709
0
0.575542
1.39829
0
0
1.73999
0
0
0
0
0
0
0
0
0
0.707402
0
0
25.2826
7.94488
0.838378
0
0
0
0
0
0
0
0
0
0
0
0
0
0
0
0
0
0
0
0.758645
0
0
0
0
0
0
0
0
0
0
0
0
0
0
0
0
0
0
0
0
0
0
0
0
0
0
0
0.610005
0
0
0
0
0
0
0
0
0
0
0
0
0
0
0
0
0
0
0
0
0
0
-1.48753e-12
0
0
0.672675
0
3.17944
0
0
0
0
0
0
0
0
0
0
0
0
0
0
0
0
0
0
8.71772
0
0
0
0
3.71328
0.027723
0.678135
0
0
0
0
0
0
0
0
0
0
0
0
0
0
0
0
0
0
0
0
0
3.623
0
0.0360958
0
0
0
0
0
0
0
0
0
0
0
0
0
0
0
0
1.52523
0
0
0
0
0
0
-9.45961e-15
0
0
0
-3.01718e-13
0
0
0
0
0
0
0
0
0
0
0
0
0
0.541258
0
0
0
0
0
0
0
0
0
0
0
0
0
0
0
0
0
0
0
0
0
0
0
0.541789
0
0
0
0
0
0
0
0
0
0
0
0
0
0
0
0
0
0
0
0
0
0
0
0
0
0
0
0
0
0
0
0
0
0
0
0
0
0
0
0
0
0
0
0
0
0
0
0
0
0
0
3.47649
0
0
0
0
0
0
0
0
0
0
0
0
0
0
0
0
0
0
0
0
0
0
0
0
0
0
0
0
0
0
0
0
0
0
0
0
0
0
0
0
0
0
0
0
0
0
0
0
0
0
0
0
0
0
0
0
0
0
0
0
0
0
0
0
0
0
0
0
0
0
0
0
0
0
0
0
0
0
0
0
0
0
0
0
0
0
0
0
0
0
0
0
0
0
0
0
0
0
0
0
0
0
0
0
0
0
0
0
0
0
0
0
0
0
0
0
0
0
0
0
0
0
0
0
0
0
0
0
0
0
0
0
0
0
0
0
0
0
0
0
0
0
0
0
0
0
0
0
0
0
0
0
0
0
0
0
0
0
0
0
0
0
0
0
0
0
0
0
0
0
0
0
0
0
0
0
0
0
0
0
0
0
0
0
0
0
0
0
0
0
0
0
0
0
0
0
0
0
0
0
0
0
0
0
0
0
0
0
0
0
0
0
0
0
0
0
0
0
0
0
0
0
0
0
0
0
0
0
0
0
0
0
0
0
0
0
0
0
0
0
0
0
0
0
0
0
0
0
0
0
0
0
0
0
0
0
0
0
0
0
0
0
0
0
0
0
0
0
0
0
0
0
0
0
0
0
0
0
0
0
0
0
0
0
0
0
0
0
0
0
0
0
0
0
0
0
0
0
0
0
0
0
0
0
0
0
0
0
0
0
0
0
0
0
0
0
0
0
0
0
0
0
0
0
0
0
0
0
0
0
0
0
0
0
0
0
0
0
0
0
0
0
0
0
0
0
0
0
0
0
0
0
0
0
0
0
0
0
0
0
0
0
0
0
0
0
0
0
0
0
0
0
0
0
0
0
0
0
0
0
0
0
0
0
0
0
0
0
0
0
0
0
0
0
0
0
0
0
0
0
0
0
0
0
0
0
0
0
0
0
0
0
0
0
0
0
0
0
0
0
0
0
0
0
0
0
0
0
0
0
0
0
0
0
0
0
0
0
0
0
0
0
0
0
0
0
0
0
0
0
0
0
0
0
0
0
0
0
0
0
0
0
0
0
0
0
0
0
0
0
0
0
0
0
0
0
0
0
0
0
0
0
0
0
0
0
0
0
0
0
0
0
0
0
0
0
0
0
0
0
0
0
0
0
0
0
0
0
0
0
0
0
0
0
0
0
0
0
0
0
0
0
0
0
0
0
0
0
0
0
0
0
0
0
0
0
0
0
0
0
0
0
0
0
0
0
0
0
0
0
0
0
0
0
0
0
0
0
0
0
0
0
0
0
0
0
0
0
0
0
0
0
0
0
0
0
0
0
0
0
0
0
0
0
0
0
0
0
0
0
0
0
0
0
0
0
0
0
0
0
0
0
0
0
0
0
0
0
0
0
0
0
0
0
0
0
0
0
0
0
0
0
0
0
0
0
0
0
0
0
0
0
0
0
0
0
0
0
0
0
0
0
0
0
0
0
0
0
0
0
0
0
0
0
0
0
0
0
0
0
0
0
0
0
0
0
0
0
0
0
0
0
0
0
0
0
0
0
0
0
0
0
0
0
0
0
0
0
0
0
0
0
0
0
0
0
0
0
0
0
0
0
0
0
0
0
0
0
0
0
0
0
0
0
0
0
0
0
0
0
0
0
0
0
0
0
0
0
0
0
0
0
0
0
0
0
0
0
0
0
0
0
0
0
0
0
0
0
0
0
0
0
0
0
0
0
0
0
0
0
0
0
0
0
0
0
0
0
0
0
0
0
0
0
0
0
0
0
0
0
0
0
0
0
0
0
0
0
0
0
0
0
0
0
0
0
0
0
0
0
0
0
0
0
0
0
0
0
0
0
0
0
0
0
0
0
0
0
0
0
0
0
0
0
0
0
0
0
0
0
0
0
0
0
0
0
0
0
0
0
0
0
0
0
0
0
0
0
0
0
0
0
0
0
0
0
0
0
0
0
0
0
0
0
0
0
0
0
0
0
0
0
0
0
0
0
0
0
0
0
0
0
0
0
0
0
0
0
0
0
0
0
0
0
0
0
0
0
0
0
0
0
0
0
0
0
0
0
0
0
0
0
0
0
0
0
0
0
0
0
0
0
0
0
0
0
0
0
0
0
0
0
0
0
0
0
0
0
0
0
0
0
0
0
0
0
0
0
0
0
0
0
0
0
0
0
0
0
0
0
0
0
0
0
0
0
0
0
0
0
0
0
0
0
0
0
0
0
0
0
0
0
0
0
0
0
0
0
0
0
0
0
0
0
0
0
0
0
0
0
0
0
0
0
0
0
0
0
0
0
0
0
0
0
0
0
0
0
0
0
0
0
0
0
0
0
0
0
0
0
0
0
0
0
0
0
0
0
0
0
0
0
0
0
0
0
0
0
0
0
0
0
0
0
0
0
0
0
0
0
0
0
0
0
0
0
0
0
0
0
0
0
4289.71
3145.55
3417.72
1671.81
5760.61
4222.89
3029.37
3483.7
1042.13
4565.55
3232.73
3081.01
1348.23
1917.61
220.038
515.081
53.0167
285.541
202.921
87.7857
276.955
332.753
2646.1
176.142
1376.64
3818.17
615.924
983.243
999.881
1139.83
843.54
1141.37
651.181
484.709
242.923
135.829
183.841
1414.88
2467.99
1693.92
4157.7
1470.37
1164.63
2859.42
3421.06
3841.14
7297.68
7102.33
916.772
935.49
2272.07
1653.94
990.301
3876.55
2083.7
266.116
721.725
768.556
605.886
3415.07
6475.97
5951.9
5608.13
4233.35
3233.9
1211.19
2980
5109.6
4967.04
4930.43
4042.21
4844.69
4807.36
5282.2
6288.63
1725.87
603.259
4952.54
3404.16
4401.05
882.501
1167.82
656.131
74.2842
865.899
1399.73
2775.05
2659.63
5416.49
4797.95
6214.96
2299.34
945.321
1303.96
1339.59
2577.22
10388.2
13519.2
9755.53
9692.3
7204.22
10874.7
10673.1
11296.8
4051.43
4095.61
6553.97
7227.56
6961.57
7621.11
6402.97
8089.89
13193.4
8829.24
8311.6
5733.9
12786.8
11455.8
11748.3
11080
6331.26
406.783
3345.74
2094.66
9127.15
284.137
5107.71
7402.91
10495.4
5190.64
4488.59
5362.77
10961.1
10818.6
10526
8294.89
9481.03
5605.31
4254.87
6884.89
6414.32
7063.82
10531.5
11008.1
10877.6
5090.03
6424.11
6510.17
6147.17
10518.9
8631.3
12096.6
8179.13
9448.18
9450.85
12017
10699.8
12024.5
11918.9
3187.37
3307.28
4169.3
1491.04
4863.08
1960.22
6485.97
10581.2
9274.68
12011.4
5559.96
4179.49
10491.7
9076.92
8563.13
1285.9
2912.09
6910.46
4934.76
7228.53
8013.85
11837.6
5904.97
2434.57
2151.24
5112.68
613.716
518.98
571.116
5831.54
3870.95
1038.42
1568.63
1630.93
2437.15
1065.33
12892.6
10840.8
8571.64
11422.8
10409.7
10203.4
3344.14
3215.54
3494.15
5977.56
527.931
6047.13
5593.41
1833.49
5272.47
6459.45
6908.17
2654.75
12260.2
12230.9
12261.9
10276.1
11857.8
11797.8
6204.43
4624.26
7421.15
6400.55
3609.27
12371.1
12101.8
11582.1
11978.2
12022.5
4843.28
9652.48
4686.92
1809.18
5198.16
13099.1
13289.3
12658.1
13163.3
13096.9
12761.5
12814.8
14160.9
14085.4
8246.52
4888.58
10371.9
4782.42
11414.4
8562.31
11951.2
6804.87
13152.5
14547.3
11658.9
11170.2
12770.3
12674.6
12110.1
10750.6
11696.5
11506.2
11773.1
12039.6
12582
2130.69
1430.31
642.112
282.739
244.798
568.423
321.728
276.072
377.589
464.115
390.155
208.581
372.163
622.004
339.719
2800.13
1480.81
1973.85
383.095
78.8864
4438.66
1812.95
313.81
48.0913
436.252
5373.05
1087.28
164.681
364.086
733.875
249.677
276.476
167.946
2487.27
10035.8
4124.61
837.445
2974.45
585.328
3354.82
2971.56
1445.39
577.302
1537.44
6369.19
8679.37
3573.49
693.762
951.823
1403.4
1275.69
1443.07
1358.4
820.3
10061.6
358.053
5801.04
8103.25
8771.36
151.394
885.76
67.5081
67.089
5626.28
8409.09
6419.73
1976.11
444.984
3477.64
763.65
681.026
10876.3
140.201
12040.7
11417.8
224.795
936.426
2927.88
7213.92
11555.3
5209.74
4651.16
8589
3647.14
855.205
619.75
462.27
321.107
275.687
505.124
255.765
182.157
136.49
303.354
377.934
139.805
234.292
285.734
229.856
726.769
582.197
1445.79
393.827
126.962
1358.95
949.237
552.763
265.122
311.311
199.317
309.047
407.653
310.527
337.554
483.149
259.258
501.295
408.359
1025
287.078
292.581
428.809
269.658
422.194
1344.34
730.678
439.623
704.473
312.703
323.969
300.004
334.019
145.195
1329.38
590.439
638.515
1031.76
566.437
73.0903
9.82834
52.3903
0
2.74009
11.1059
11.8299
0
2.69392
139.585
332.822
240.257
206.95
82.7614
589.954
222.655
283.631
18.6319
0
52.506
-5.79383e-12
0
11.4568
0
4328.51
414.475
180.34
1838.71
0.986484
2736.09
1081.85
1027.5
502.705
406.448
228.227
489.73
1404.37
303.883
82.9168
171.661
345.961
161.963
220.488
284.522
75.4824
544.588
288.774
1185.34
447.082
486.376
304.371
1008.07
381.772
980.474
182.104
970.628
602.396
148.975
184.556
606.455
308.729
434.242
387.179
305.661
267.705
135.455
222.488
81.2587
93.3425
476.55
1179.56
542.136
536.885
1089.26
109.46
32.1816
63.0786
25.968
10.298
1006.19
428.931
727.169
989.115
598.488
-3.42239e-12
11.588
13.025
0
0.0957785
-6.34907e-13
-4.17845e-13
0
3.17136
109.46
699.252
483.643
660.071
205.001
804.535
351.15
317.017
0
0
13.3798
0
0
-1.32462e-12
-1.63501e-13
205.23
6.13384
13.2673
61.3042
13.0803
1528.01
316.091
174.84
402.217
953.365
425.147
550.885
251.107
433.906
176.071
161.868
431.324
176.525
114.403
140.762
34.0115
207.036
185.026
291.007
211.2
741.885
150.235
129.346
240.684
399.501
169.189
294.494
220.811
185.789
92.403
777.443
340.946
403.338
420.884
94.7536
132.685
64.9136
178.748
201.865
105.385
2861.45
629.661
6036.65
685.035
614.931
474.437
922.807
9877.6
10999.2
10745.3
3003.71
11515.8
7768.08
12202.5
41.0607
2.6064
26.0811
57.4862
9.14419
7494.97
1825.54
4176.61
442.492
2653.66
646.149
6017.67
11829.5
12088.2
13666.1
10912.1
12800.8
9617.14
14205.6
0
0
5.38511
0
0
5.10122
0
0
0
856.426
604.745
1092.94
153.92
949.704
464.03
2375.41
1343.15
0
0
-3.03227e-13
15.3834
-2.2207e-12
0
17.9426
17.4001
0
0
8.75663
0
80.3129
239.147
234.782
812.08
182.144
586.999
343.467
123.344
256.552
488.603
271.145
261.279
457.823
273.964
114.449
87.5305
108.685
63.6568
176.34
146.325
311.844
139.407
160.593
88.1159
141.429
145.492
705.242
560.308
154.531
240.96
310.514
428.397
540.141
138.682
391.048
98.4685
83.0987
175.747
80.5955
160.214
164.796
143.619
133.202
144.582
65.883
185.12
77.5436
22.97
52.9744
101.116
21.7051
17.3738
14.4805
923.885
144.593
897.761
31.8399
93.6019
15.3356
81.4239
58.5043
1.15238
69.8495
24.7464
0
174.052
285.276
678.888
74.7184
47.773
331.883
118.83
419.791
331.132
296.662
6.71508
13.1046
1.97392
0
0
0
11.5234
0
5.32089
-5.70664e-13
5.03096
0
0.250472
640.997
42.9444
426.712
22.8983
150.115
3.89386
23.242
224.303
594.329
38.6381
7.44992
0
0
12.0765
0
0
5.79273
9.87198
0
0
0
0
0
0
0
0
225.245
241.887
160.763
112.596
139.59
141.952
118.568
182.401
168.789
153.421
326.77
161.115
122.288
49.2647
111.674
31.5913
35.3631
137.813
79.5991
57.4635
68.9315
76.2689
30.7308
31.2589
258.571
138.597
359.227
259.675
463.616
70.1634
268.701
459.073
139.539
531.274
232.982
77.2579
166.873
199.14
115.487
80.3667
0
84.3368
8.49927
19.3689
11.9593
19.8173
129.828
38.6214
317.306
283.046
180.814
161.034
193.838
52.8545
74.4486
241.88
74.1954
118.525
35.7537
18.3036
0
0
-2.75268e-12
0
13.153
41.543
0
22.7944
5.9465
11.8494
0
9.86385
4.85253
3.77162
3.43312
13.3896
0
2.1953
0
0
0
14.0541
0
-6.12381e-14
12.2641
0.352112
7.74999
8.63326
0
0
0
3.25215
0
0
0
0
0
3.94319
0
0
0
0
5.68184
0
0
5.7322
0.939217
0
0
0
0
0
0
218
163.342
196.994
237.766
174.127
251.126
344.485
152.289
158.855
105.529
159.352
205.546
149.838
202.779
189.453
29.8426
20.349
81.3293
35.2489
18.5334
30.4135
54.0212
19.5464
29.7531
541.003
25.2694
261.259
118.753
621.175
34.8431
123.22
538.863
350.654
0
0
0
17.7591
0
5.77887
123.783
24.0187
59.2146
53.006
22.1499
30.8387
18.093
11.6438
9.99824
2.27768
8.88249
0
0
0
5.09201
0
0
3.41858
7.053
1.06173
5.51885
8.07802
4.58674
8.23012
3.19832
7.95068
0.62047
0
0
0
0
0
0
0
0
0
0
-1.92451e-12
9.31209
0
0
4.20849
2.57694
0
6.14956
0
0.594102
0
0
10.9985
0
5.23536
11.2713
19.7359
0
0
0
0
0
0
0
0
0
43.0798
28.5292
238.113
182.384
231.746
227.684
114.79
182.239
239.853
259.574
217.926
212.822
380.963
403.39
677.947
11.613
4.24902
47.1518
0.16917
24.7375
0.695254
38.0495
4.1351
20.8331
444.211
27.8837
114.811
285.204
320.343
29.2912
126.363
135.974
65.0939
4.87879
0
7.53857
0
0
10.0758
33.5523
26.4375
36.1719
16.4569
14.918
6.00342
7.16706
0
-6.76726e-13
0
9.80997
0
8.89142
14.1089
0.243571
0
0
0
10.6776
-1.46437e-12
7.91325
0
10.7177
0
0
0
0
0
3.22431
0
0
1.18147
-2.18608e-13
0
0
0
4.82492
0
0
0
0
0
0
0
0
34.1176
35.4499
120.644
50.3337
88.5615
74.2874
22.9595
68.5256
138.601
280.42
74.2566
117.877
123.672
385.021
217.492
7.83442
0
12.091
18.4362
3.24647
27.2457
9.50543
11.0377
9.67727
155.977
79.3759
74.3734
183.876
161.974
48.3588
39.654
96.1946
69.437
0
-7.47859e-12
7.7747
0
5.97702
0
11.3611
30.8519
41.2864
9.57579
0
0
0
0
4.55967
4.52929
0
0
3.96137
0
0
12.3096
-1.40333e-13
1.96948
10.7017
0
0
0
10.6361
5.73198
4.5433
0
0
0
0
0
0
0
0
0
0
0
2.52538
0
0
0
0
0
0
0
0
-2.20782e-12
0
14.037
8.77107
14.3131
11.3417
8.5208
18.6705
36.5689
64.5714
13.6059
25.0163
40.4871
116.594
106.23
0
0
9.1577
15.7303
0
0
3.6759
4.75544
5.1162
159.039
24.0345
79.8077
86.6608
34.2726
30.0538
20.6228
47.9095
28.1144
7.38369
40.8475
-2.60908e-12
0
0
1.65254
12.8328
0
6.96292
1.52298
0
-7.56032e-13
-1.46446e-12
0
0.271173
0
0
0
0
0
0
17.5854
-4.18758e-12
0
-1.25159e-13
0
0
0
0
0
0
4.69743
0
0
0
3.68664
0
0
0
0
0
0
0
0
0
0
0
0
0
0
1.98857
0
0
10.8466
0
9.0914
20.8451
0
3.05497
26.0718
48.5435
15.7624
24.1695
30.5922
39.7861
26.617
12.699
0
9.42076
-1.05413e-12
10.5844
1.72662
3.58823
0
0.960522
24.0563
21.6887
6.34932
7.04019
6.02942
19.9297
3.96577
7.01973
0
4.98783
0
4.86245
7.52333
0
0
4.13223
0
0
4.15804
18.2572
12.8117
0
0
12.1559
0
0
0
0
0
0
0
0
0
0
0
0
0
0
0
0
0
0
5.30022
0
0
8.14597
0
0
0
0
0
0
0
0
0
0
0
0
0
0
0
0
0
8.7133
3.08305
0
0
0
33.6714
6.51795
0
10.5455
0
5.9819
18.5636
0
0
0.271539
4.88727
5.09334
0
4.65596
-1.08664e-12
0
0
0.161693
0.171183
0
0
0
3.79885
0
0
0
0
6.06338
22.6995
0
5.94955
0
0
0
0
0
4.02877
0
0
0
0
0
0
0
0
0
0
0
2.01736
0
3.64647
0
0
0
0
0
0
0
0
0
0
0
0
0
0
5.50944
0
-1.50631e-12
6.94026
0
0
0
0
0
0
0
0
0
0
0
0
0
0
0
0
3.32308
0
0
0.745399
0
0
26.1045
-4.44733e-12
0
0.234302
0
0
4.55945
0
0
0
0
0
0
0
0
0
0
0
9.51166
0
6.10841
7.4238
0
5.89543
0
0
0
0
0
6.09886
0
0
11.7094
0
0
0
0
0
0
12.4105
0
0.323373
0
0
0
5.90607
0
0
0
0
0
0
0
0
0
0
0
0
0.193659
0
0
0
0
1.85131
0
0
11.9555
0
0
0
0
0
0
0
0
0
0
0
0
0
0
0
0
0
0
0
0
5.24107
0
0
0
-1.14508e-12
0
0
0.0760879
4.53751
0
0
0
0
0
0
7.45961
0
-1.54327e-12
0
0
5.80055
0
0
0
0
0
-7.29942e-13
0
0
0
0.24062
0
0
0
0
0
0
0
0
0
0
0
0
0
0
0
0
0
1.05381
0
0
0
0
0
0
0
0
8.75809
0
0
0
0
0
0
0
0
0
0
0
0
0
0
0
0
0
0
0
0
0
0
0
0
0
0
10.2399
0.209537
0
0
5.16097
0
0
0
0
0
0
0
0
0
0
0
0
0
0
0
5.80795
0
0
0
0
0
0
0.331634
0
0
0
0
0
0
0
0
0
0
0
0
0
5.07349
5.63768
0
0
1.01315
0
0
0
4.45219
4.95647
0
0
0
0
0
0
0
0
0
0
0
0
0
0
0
0
0
0
0
3.84738
0
0
1.61456
0
0
0
0
0
0
0
0
0
0
0
5.30133
0
0
0
0
0
0
0
0
0
0
0
0
0
0
0
5.41669
0
0
-4.0972e-13
0
0
0
0
0
0
0
0
0
6.30733
0
0
0
0
0
0
0
-6.64186e-13
0
0
4.92932
0.576547
0
6.86986
0
0
0
0
0
0
0
0
0
0
0
0
0
0
0
0
0
0
0
0
0
0
0
0
0
0
0
0
0
0
0
0
0
0
0
0
0
0
0
0
0
0
0
0
0
0
0
0
0
0
0
0
0
0
0
0
4.8086
0
0
4.71322
0
0
0
0
0
0
0
0
0
0
0
0
0
0
0
0
0
-1.23198e-13
5.40483
4.88219
0
5.27693
0
0
0
0
0
0
0
0
0
0
0
0
0
0
0
0
0
0
0
0
0
0
11.1213
0
0
0
0
0
0
0
0
0
0
0
0
0
0
0
0
0
0
0
0
0
0
0
0
0
0
0
0
0
0
0
0
0
0
0
-3.32061e-13
0
0
4.55978
0
0
0
0
0
0
0
0
0
0
0
0
0
0
0
0
0
0
0
0
0
0
0
0
0
0
0
0
0
0
0
0
0
0
0
0
0
0
0
0
0
0
0
0
0
0
0
0
0
0
0
0
0
0
0
0
0
0
0
0
0
0
0
0
0
0
0
0
0
0
0
0
0
0
0
0
0
0
0
1.56694
-1.44553e-12
0
-3.07896e-13
4.36073
0
0
0
0
0
0
0
6.01872
0
0
0
0
0
0
0
0
0
0
0
0
0
5.15421
0
0
0
0
0
0
0
0.155926
0
0
0
0
0
0
0
0
0
0
0
0
0
0
10.8419
0
0
0
0
0
0
0
0
0
0
0
0
0
0
0
0
0
0
0
0
0
0
0
0
0
0
0
0
0
0
0
0
0
0
0
0
0
0
0
0
0
0
0
0
0
0
0
4.25347
0
0
0
0
0
0
0
0
0
0
0
0
0
0
0
0
0
0
0
0
0
0
0
0
0
0
0
0
0
0
0
0
0
0
0
0
0
0
0
0
0
0
0
0
0
0
0
0
0
0
0
0
0
0
0
0
0
0
0
0
0
0
0
0
0
0
0
0
0
0
0
0
0
0
0
0
0
0
0
0
0
0
0
0
0
0
0
0
0
0
0
0
0
0
0
1.27636
0
0
0
0
0
0
0
0
0
0
0
0
0
0
0
0
0
0
0
0
0
0
0
0
0
0
0
0
0
0
0
0
0
0
0
0
0
0
0
0
0
0
0
0
0
0
0
0
0
0
0
0
0
0
0
0
0
0
0
0
0
0
0
0
0
0
0
0
0
0
0
4.30002
0
0
0
0
0
0
0
0
0
8.87216
0
0
0
2.87734
0
0
0
0
0
0
0
0
0
0
0
0
0
0
4.00965
0
0
0
0
0
0
0
0
0
0
0
0
0
0
0
0
0
0
0
0
0
0
0
0
0
0
0
0
0
0
0
0
0
0
0
0
0
0
0
0
0
0
0
0
0
0
0
0
0
0
0
0
0
0
0
5.08454
0
0
0
0
0
0
0.78258
0
0
0
0
0
0
0
0
0
0
0
0
0
0
0
0
8.62121
0
0
4.57316
0
0
0
0
0
0
0
0
0
0
0
0
0
0
0
0
0
0
0
0
0
0
0
0
0
0
0
0
0
0
0
0
0
0
0
0
0
0
0
0
0
0
0
0
0
0
0
0
0
0
0
0
0
3.60872
0
0
5.41343
0
0
0
0
0
0
0
0
0
0
0
0
0
0
0
0
0
0
0
0
0
0
-1.84746e-12
0
0
0
0
0
0
0
0
3.28918
0
0
0
0
0
0
0
0
0
0
0
0
0
0
0
0
0
0
0
0
0
0
0
0
0
0
0
0
0
0
0
0
0
0
0
0
0
0
0
0
0
0
0
0
0
0
0
0
-6.18693e-13
0
0
0
0
0
0
0
0
0
0
0
0
0
0
0
0
0
0
0
0
0
0
0
0
0
0
0
0
0
0
0
0
0
0
0
0
0
0
0
0
0
0
0
0
0
0
0
0
0
0
0
0
0
0
0
0
0
0
0
0
0
0
0
0
0
0
0
0
0
0
0
0
0
0
0
0
0
0
0
0
0
0
0
0
0
0
0
0
0
0
0
0
0
0
0
0
0
0
0
0
0
0
0
0
0
0
0
0
0
0
0
0
0
0
0
0
0
0
0
0
0
0
0
0
0
0
0
0
0
0
0
0
0
0
0
0
0
0
0
0
0
0
0
0
0
0
0
0
0
0
0
0
0
0
0
0
0
0
0
0
0
0
0
0
0
0
0
0
0
0
0
0
0
0
0
0
0
0
0
0
0
0
0
0
0
0
0
0
0
0
0
0
0
0
0
0
0
0
0
0
0
0
0
0
0
0
0
0
0
0
0
0
0
0
0
0
0
0
0
0
0
0
0
0
0
0
0
0
0
0
0
0
0
0
0
0
0
0
0
0
0
0
0
0
0
0
0
0
0
0
0
0
0
0
0
0
0
0
0
0
0
0
0
0
0
0
0
0
0
0
0
0
0
0
0
0
0
0
0
0
0
0
0
0
0
0
0
0
0
0
0
0
0
0
0
0
0
0
0
0
0
0
0
0
0
0
0
0
0
0
0
0
0
0
0
0
0
0
0
0
0
0
0
0
0
0
0
0
0
0
0
0
0
0
0
0
0
0
0
0
0
0
0
0
0
0
0
0
0
3.31898
0
0
0
0
0
0
0
0
0
0
0
0
0
0
0
0
0
0
0
0
0
0
0
0
0
0
0
0
0
0
0
0
0
0
0
0
0
0
0
0
0
0
0
0
0
0
0
0
0
0
0
0
0
0
0
0
0
0
0
0
0
0
0
0
0
0
0
0
3.61058
0
0
0
0
0
0
0
0
0
0
0
0
0
0
0
0
0
0
0
0
0
0
0
0
0
0
0
0
0
0
0
0
0
0
0
0
0
0
0
0
0
0
0
0
0
0
0
0
0
0
0
0
0
0
0
0
0
0
0
0
0
0
0
0
0
0
0
0
0
0
0
0
0
0
0
0
0
0
0
0
0
0
0
0
0
0
0
0
0
0
0
0
0
0
0
0
0
0
0
0
0
0
0
0
0
0
0
0
0
0
0
0
0
0
0
0
0
0
0
0
0
0
0
0
0
0
0
0
0
0
0
0
0
0
0
0
0
0
0
0
0
0
0
0
0
0
0
0
0
0
0
0
0
0
0
0
0
0
0
0
0
0
0
0
0
0
0
0
0
0
0
0
0
0
0
0
0
0
0
0
0
0
0
0
0
0
0
0
0
0
0
0
0
0
0
0
0
0
0
0
0
0
0
0
0
0
0
0
0
0
0
0
0
0
0
0
0
0
0
0
0
0
0
0
0
0
0
0
0
0
0
0
0
0
0
0
0
0
0
0
0
0
0
0
0
0
0
0
0
0
0
0
0
0
0
0
0
0
0
0
0
0
0
0
0
0
0
0
0
0
0
0
0
0
0
0
0
0
0
0
0
0
0
0
0
0
0
0
0
0
0
0
0
0
0
0
0
0
0
0
0
0
0
0
0
0
0
0
0
0
0
0
0
0
0
0
0
0
0
0
0
0
0
0
0
0
0
0
0
0
0
0
0
0
0
0
0
0
0
0
0
0
0
0
0
0
0
0
0
0
0
0
0
0
0
0
0
0
0
0
0
0
0
0
0
0
0
0
0
0
0
0
0
0
0
0
0
0
0
0
0
0
0
0
0
0
0
0
0
0
0
0
0
0
0
0
0
0
0
0
0
0
0
0
0
0
0
0
0
0
0
0
0
0
0
0
0
0
0
0
0
0
0
0
0
0
0
0
0
0
0
0
0
0
0
0
0
0
0
0
0
0
0
0
0
0
0
0
0
0
0
0
0
0
0
0
0
0
0
0
0
0
0
0
0
0
0
0
0
0
0
0
0
0
0
0
0
0
0
0
0
0
0
0
0
0
0
0
0
0
0
0
0
0
0
0
0
0
0
0
0
0
0
0
0
0
0
0
0
0
0
0
0
0
0
0
0
0
0
0
0
0
0
0
0
0
0
0
0
0
0
0
0
0
0
0
0
0
0
0
0
0
0
0
0
0
0
0
0
0
0
0
0
0
0
0
0
0
0
0
0
0
0
0
0
0
0
0
0
0
0
0
0
0
0
0
0
0
0
0
0
0
0
0
0
0
0
0
0
0
0
0
0
0
0
0
0
0
0
0
0
0
0
0
0
0
0
0
0
0
0
0
0
0
0
0
0
0
0
0
0
0
0
0
0
0
0
0
0
0
0
0
0
0
0
0
0
0
0
0
0
0
0
0
0
0
0
0
0
0
0
0
0
0
0
0
0
0
0
0
0
0
0
0
0
0
0
0
0
0
0
0
0
0
0
0
0
0
0
0
0
0
0
0
0
0
0
0
0
0
0
0
0
0
0
0
0
0
0
0
0
0
0
0
0
0
0
0
0
0
0
0
0
0
0
0
0
0
0
0
0
0
0
0
0
0
0
0
0
0
0
0
0
0
0
0
0
0
0
0
0
0
0
0
0
0
0
0
0
0
0
0
0
0
0
0
0
0
0
0
0
0
0
0
0
0
0
0
0
0
0
0
0
0
0
0
0
0
0
0
0
0
0
0
0
0
0
0
0
0
0
0
0
0
0
0
0
0
0
0
0
0
0
0
0
0
0
0
0
0
0
0
0
0
0
0
0
0
0
0
0
0
0
0
0
0
0
0
0
0
0
0
0
0
0
0
0
0
0
0
0
0
0
0
0
0
0
0
0
0
0
0
0
0
0
0
0
0
0
0
0
0
0
0
0
0
0
0
0
0
0
0
0
0
0
0
0
0
0
0
0
0
0
0
0
0
0
0
0
0
0
0
0
0
0
0
0
0
0
0
0
0
0
0
0
0
0
0
0
0
0
0
0
0
0
0
0
0
0
0
0
0
0
0
0
0
0
0
0
0
0
0
0
0
0
0
0
0
0
0
0
0
0
0
0
0
0
0
0
0
0
0
0
0
0
0
0
0
0
0
0
0
0
0
0
0
0
0
0
0
0
0
0
0
0
0
0
0
0
0
0
0
0
0
0
0
0
0
0
0
0
0
0
0
0
0
0
0
0
0
0
0
0
0
0
0
0
0
0
0
0
0
0
0
0
0
0
0
0
0
0
0
0
0
0
0
0
0
0
0
0
0
0
0
0
0
0
0
0
0
0
0
0
0
0
0
0
0
0
0
0
0
0
0
0
0
0
0
0
0
0
0
0
0
0
0
0
0
0
0
0
0
0
0
0
0
0
0
0
0
0
0
0
0
0
0
0
0
0
0
0
0
0
0
0
0
0
0
0
0
0
0
0
0
0
0
0
0
0
0
0
0
0
0
0
0
0
0
0
0
0
0
0
0
0
0
0
0
0
0
0
0
0
0
0
0
0
0
0
0
0
0
0
0
0
0
0
0
0
0
0
0
0
0
0
0
0
0
0
0
0
0
0
0
0
0
0
0
0
0
0
0
0
0
0
0
0
0
0
0
0
0
0
0
0
0
0
0
0
0
0
0
0
0
0
0
0
0
0
0
0
0
0
0
0
0
0
0
0
0
0
0
0
0
0
0
0
0
0
0
0
0
0
0
0
0
0
0
0
0
0
0
0
0
0
0
0
0
0
0
0
0
0
0
0
0
0
0
0
0
0
0
0
0
0
0
0
0
0
0
0
0
0
0
0
0
0
0
0
0
0
0
0
0
0
0
0
0
0
0
0
0
0
0
0
0
0
0
0
0
0
0
0
0
0
0
0
0
0
0
0
0
0
0
0
0
0
0
0
0
0
0
0
0
0
0
0
0
0
0
0
0
0
0
0
0
0
0
0
0
0
0
0
0
0
0
0
0
0
0
0
0
0
0
0
0
0
0
0
0
0
0
0
0
0
0
0
0
0
0
0
0
0
0
0
0
0
0
0
0
0
0
0
0
0
0
0
0
0
0
0
0
0
0
0
0
0
0
0
0
0
0
0
0
0
0
0
0
0
0
0
0
0
0
0
0
0
0
0
0
0
0
0
0
0
0
0
0
0
0
0
0
0
0
0
0
0
0
0
0
0
0
0
0
0
0
0
0
0
0
0
0
0
0
0
0
0
0
0
0
0
0
0
0
0
0
0
0
0
0
0
0
0
0
0
0
0
0
0
0
0
0
0
0
0
0
0
0
0
0
0
0
0
0
0
0
0
0
0
0
0
0
0
0
0
0
0
0
0
0
0
0
0
0
0
0
0
0
0
0
0
0
0
0
0
0
0
0
0
0
0
0
0
0
0
0
0
0
0
0
0
0
0
0
0
0
0
0
0
0
0
0
0
0
0
0
0
0
0
0
0
0
0
0
0
0
0
0
0
0
0
0
0
0
0
0
0
0
0
0
0
0
0
0
0
0
0
0
0
0
0
0
0
0
0
0
0
0
0
0
0
0
0
0
0
0
0
0
0
0
0
0
0
0
0
0
0
0
0
0
0
0
0
0
0
0
0
0
0
0
0
0
0
0
0
0
0
0
0
0
0
0
0
0
0
0
0
0
0
0
0
0
0
0
0
0
0
0
0
0
0
0
0
0
0
0
0
0
0
0
0
0
0
0
0
0
0
0
0
0
0
0
0
0
0
0
0
0
0
0
0
0
0
0
0
0
0
0
0
0
0
0
0
0
0
0
0
0
0
0
0
0
0
0
0
0
0
0
0
0
0
0
0
0
0
0
0
0
0
0
0
0
0
0
0
0
0
0
0
0
0
0
0
0
0
0
0
0
0
0
0
0
0
0
0
0
0
0
0
0
0
0
0
0
0
0
0
0
0
0
0
0
0
0
0
0
0
0
0
0
0
0
0
0
0
0
0
0
0
0
0
0
0
0
0
0
0
0
0
0
0
0
0
0
0
0
0
0
0
0
0
0
0
0
0
0
0
0
0
0
0
0
0
0
0
0
0
0
0
0
0
0
0
0
0
0
0
0
0
0
0
0
0
0
0
0
0
0
0
0
0
0
0
0
0
0
0
0
0
0
0
0
0
0
0
0
0
0
0
0
0
0
0
0
0
0
0
0
0
0
0
0
0
0
0
0
0
0
0
0
0
0
0
0
0
0
0
0
0
0
0
0
0
0
0
0
0
0
0
0
0
0
0
0
0
0
0
0
0
0
0
0
0
0
0
0
0
0
0
0
0
0
0
0
0
0
0
0
0
0
0
0
0
0
0
0
0
0
0
0
0
0
0
0
0
0
0
0
0
0
0
0
0
0
0
0
0
0
0
0
0
0
0
0
0
0
0
0
0
0
0
0
0
0
0
0
0
0
0
0
0
0
0
0
0
0
0
0
0
0
0
0
0
0
0
0
0
0
0
0
0
0
0
0
0
0
0
0
0
0
0
0
0
0
0
0
0
0
0
0
0
0
0
0
0
0
0
0
0
0
0
0
0
0
0
0
0
0
0
0
0
0
0
0
0
0
0
0
0
0
0
0
0
0
0
0
0
0
0
0
0
0
0
0
0
0
0
0
0
0
0
0
0
0
0
0
0
0
0
0
0
0
0
0
0
0
0
0
0
0
0
0
0
0
0
0
0
0
0
0
0
0
0
0
0
0
0
0
0
0
0
0
0
0
0
0
0
0
0
0
0
0
0
0
0
0
0
0
0
0
0
0
0
0
0
0
0
0
0
0
0
0
0
0
0
0
0
0
0
0
0
0
0
0
0
0
0
0
0
0
0
0
0
0
0
0
0
0
0
0
0
0
0
0
0
0
0
0
0
0
0
0
0
0
0
0
0
0
0
0
0
0
0
0
0
0
0
0
0
0
0
0
0
0
0
0
0
0
0
0
0
0
0
0
0
0
0
0
0
0
0
0
0
0
0
0
0
0
0
0
0
0
0
0
0
0
0
0
0
0
0
0
0
0
0
0
0
0
0
0
0
0
0
0
0
0
0
0
0
0
0
0
0
0
0
0
0
0
0
0
0
0
0
0
0
0
0
0
0
0
0
0
0
0
0
0
0
0
0
0
0
0
0
0
0
0
0
0
0
0
0
0
0
0
0
0
0
0
0
0
0
0
0
0
0
0
0
0
0
0
0
0
0
0
0
0
0
0
0
0
0
0
0
0
0
0
0
0
0
0
0
0
0
0
0
0
0
0
0
0
0
0
0
0
0
0
0
0
0
0
0
0
0
0
0
0
0
0
0
0
0
0
0
0
0
0
0
0
0
0
0
0
0
0
0
0
0
0
0
0
0
0
0
0
0
0
0
0
0
0
0
0
0
0
0
0
0
0
0
0
0
0
0
0
0
0
0
0
0
0
0
0
0
0
0
0
0
0
0
0
0
0
0
0
0
0
0
0
0
0
0
0
0
0
0
0
0
0
0
0
0
0
0
0
0
0
0
0
0
0
0
0
0
0
0
0
0
0
0
0
0
0
0
0
0
0
0
0
0
0
0
0
0
0
0
0
0
0
0
0
0
0
0
0
0
0
0
0
0
0
0
0
0
0
0
0
0
0
0
0
0
0
0
0
0
0
0
0
0
0
0
0
0
0
0
0
0
0
0
0
0
0
0
0
0
0
0
0
0
0
0
0
0
0
0
0
0
0
0
0
0
0
0
0
0
0
0
0
0
0
0
0
0
0
0
0
0
0
0
0
0
0
0
0
0
0
0
0
0
0
0
0
0
0
0
0
0
0
0
0
0
0
0
0
0
0
0
0
0
0
0
0
0
0
0
0
0
0
0
0
0
0
0
0
0
0
0
0
0
0
0
0
0
0
0
0
0
0
0
0
0
0
0
0
0
0
0
0
0
0
0
0
0
0
0
0
0
0
0
0
0
0
0
0
0
0
0
0
0
0
0
0
0
0
0
0
0
0
0
0
0
0
0
0
0
0
0
0
0
0
0
0
0
0
0
0
0
0
0
0
0
0
0
0
0
0
0
0
0
0
0
0
0
0
0
0
0
0
0
0
0
0
0
0
0
0
0
0
0
0
0
0
0
0
0
0
0
0
0
0
0
0
0
0
0
0
0
0
0
0
0
0
0
0
0
0
0
0
0
0
0
0
0
0
0
0
0
0
0
0
0
0
0
0
0
0
0
0
0
0
0
0
0
0
0
0
0
0
0
0
0
0
0
0
0
0
0
0
0
0
0
0
0
0
0
0
0
0
0
0
0
0
0
0
0
0
0
0
0
0
0
0
0
0
0
0
0
0
0
0
0
0
0
0
0
0
0
0
0
0
0
0
0
0
0
0
0
0
0
0
0
0
0
0
0
0
0
0
0
0
0
0
0
0
0
0
0
0
0
0
0
0
0
0
0
0
0
0
0
0
0
0
0
0
0
0
0
0
0
0
0
0
0
0
0
0
0
0
0
0
0
0
0
0
0
0
0
0
0
0
0
0
0
0
0
0
0
0
0
0
0
0
0
0
0
0
0
0
0
0
0
0
0
0
0
0
0
0
0
0
0
0
0
0
0
0
0
0
0
0
0
0
0
0
0
0
0
0
0
0
0
0
0
0
0
0
0
0
0
0
0
0
0
0
0
0
0
0
0
0
0
0
0
0
0
0
0
0
0
0
0
0
0
0
0
0
0
0
0
0
0
0
0
0
0
0
0
0
0
0
0
0
0
0
0
0
0
0
0
0
0
0
0
0
0
0
0
0
0
0
0
0
0
0
0
0
0
0
0
0
0
0
0
0
0
0
0
0
0
0
0
0
0
0
0
0
0
0
0
0
0
0
0
0
0
0
0
0
0
0
0
0
0
0
0
0
0
0
0
0
0
0
0
0
0
0
0
0
0
0
0
0
0
0
0
0
0
0
0
0
0
0
0
0
0
0
0
0
0
0
0
0
0
0
0
0
0
0
0
0
0
0
0
0
0
0
0
0
0
0
0
0
0
0
0
0
0
0
0
0
0
0
0
0
0
0
0
0
0
0
0
0
0
0
0
0
0
0
0
0
0
0
0
0
0
0
0
0
0
0
0
0
0
0
0
0
0
0
0
0
0
0
0
0
0
0
0
0
0
0
0
0
0
0
0
0
0
0
0
0
0
0
0
0
0
0
0
0
0
0
0
0
0
0
0
0
0
0
0
0
0
0
0
0
0
0
0
0
0
0
0
0
0
0
0
0
0
0
0
0
0
0
0
0
0
0
0
0
0
0
0
0
0
0
0
0
0
0
0
0
0
0
0
0
0
0
0
0
0
0
0
0
0
0
0
0
0
0
0
0
0
0
0
0
0
0
0
0
0
0
0
0
0
0
0
0
0
0
0
0
0
0
0
0
0
0
0
0
0
0
0
0
0
0
0
0
0
0
0
0
0
0
0
0
0
0
0
0
0
0
0
0
0
0
0
0
0
0
0
0
0
0
0
0
0
0
0
0
0
0
0
0
0
0
0
0
0
0
0
0
0
0
0
0
0
0
0
0
0
0
0
0
0
0
0
0
0
0
0
0
0
0
0
0
0
0
0
0
0
0
0
0
0
0
0
0
0
0
0
0
0
0
0
0
0
0
0
0
0
0
0
0
0
0
0
0
0
0
0
0
0
0
0
0
0
0
0
0
0
0
0
0
0
0
0
0
0
0
0
0
0
0
0
0
0
0
0
0
0
0
0
0
0
0
0
0
0
0
0
0
0
0
0
0
0
0
0
0
0
0
0
0
0
0
0
0
0
0
0
0
0
0
0
0
0
0
0
0
0
0
0
0
0
0
0
0
0
0
0
0
0
0
0
0
0
0
0
0
0
0
0
0
0
0
0
0
0
0
0
0
0
0
0
0
0
0
0
0
0
0
0
0
0
0
0
0
0
0
0
0
0
0
0
0
0
0
0
0
0
0
0
0
0
0
0
0
0
0
0
0
0
0
0
0
0
0
0
0
0
0
0
0
0
0
0
0
0
0
0
0
0
0
0
0
0
0
0
0
0
0
0
0
0
0
0
0
0
0
0
0
0
0
0
0
0
0
0
0
0
0
0
0
0
0
0
0
0
0
0
0
0
0
0
0
0
0
0
0
0
0
0
0
0
0
0
0
0
0
0
0
0
0
0
0
0
0
0
0
0
0
0
0
0
0
0
0
0
0
0
0
0
0
0
0
0
0
0
0
0
0
0
0
0
0
0
0
0
0
0
0
0
0
0
0
0
0
0
0
0
0
0
0
0
0
0
0
0
0
0
0
0
0
0
0
0
0
0
0
0
0
0
0
0
0
0
0
0
0
0
0
0
0
0
0
0
0
0
0
0
0
0
0
0
0
0
0
0
0
0
1928.67
2008.07
1222.32
9753.06
5692.27
7019.16
1784.79
590.615
209.659
428.69
1213.51
1132.95
702.449
213.317
3903.81
5699.68
3589.4
11949.3
10206.2
11403.1
8852.46
1293.49
890.588
501.075
6427.56
2260.84
4127.69
1544.92
1314.47
2918.03
3146.36
993.764
1569.17
4312.38
5003.36
803.235
1410.93
2024.88
970.462
1340.06
895.979
520.83
5671.43
8074.01
7202.05
11181.3
9217.93
11511.2
9348.92
1223.08
2490.52
1543.83
3547.37
866.122
4613.06
970.982
3738.91
3681.36
2799.88
4496.2
4923.71
3064.22
1642.36
2001.85
1816.23
4201.31
1485.67
3800.21
3623.64
6601.17
1518.84
8144.47
4712.72
8251.57
4961.71
10420.7
8000.81
763.527
1246.47
979.88
3284.97
944.489
3987.45
1223.17
7123.2
10519.2
4817.9
596.54
4487.98
6734.2
4992.92
3820.26
618.946
219.048
8528.55
7136
688.29
712.802
12189.7
12837.5
11599
3057.79
4998.97
4884.09
1742.8
10571.8
12967.8
11266.5
7991.29
5432.64
12098.6
11030.7
542.37
627.71
4680.27
204.282
170.712
114.37
563.685
1503.26
1732.95
5178.81
298.711
110.893
5782.31
2275.32
199.472
471.712
83.4872
156.68
94.5149
407.008
40.6434
62.1812
2160.33
1680.11
90.9979
98.1658
323.163
1550.05
293.944
54.7909
307.704
123.866
247.7
56.8366
131.241
140.032
514.253
234.342
206.733
250.699
349.911
179.347
96.2752
408.074
194.48
109.025
73.6116
241.966
215.291
662.187
467.502
806.669
871.533
1306.14
354.343
322.965
329.496
22.1354
72.8167
1434.29
365.896
762.492
37.7029
380.583
316.306
373.259
197.822
166.924
197.248
537.618
48.232
149.081
105.997
144.393
53.7669
82.9876
202.499
171.233
88.7002
85.8688
64.1375
46.742
38.2489
43.3986
294.244
2207.35
981.894
186.754
1112.61
389.976
2233.54
58.8869
440.106
657.235
481.28
288.225
2408.49
2298.26
77.8982
75.8292
104.051
134.059
318.548
82.9397
65.2032
72.3089
19.2064
36.865
110.162
132.508
16.4596
5.33057
453.204
122.996
86.2034
68.9335
104.583
27.1572
0
418.497
390.092
513.703
135.444
265.611
31.4165
108.15
448.239
157.891
155.423
171.217
127.1
237.777
105.365
65.5073
7.70683
3.78286
35.4443
20.4692
12.0245
0
69.9027
9.30185
0
68.3797
54.6302
23.4361
9.43867
89.7165
4.40955
35.6852
40.0275
111.898
8.68934
18.1089
72.1126
78.0656
21.9958
3.51982
13.0163
12.3883
5.67983
4.99623
2.14892
0
-5.9253e-14
8.53173
8.33866
0.815393
19.6815
22.2805
4.10438
53.0465
36.6328
20.3236
0
44.4681
9.31123
20.1648
62.7806
38.1534
10.8983
19.4831
8.01984
0
6.66651
5.0381
6.78
0
6.04391
6.48371
4.06863
-1.79221e-13
2.49654
0
0
0
45.107
4.56623
13.766
32.9689
43.0948
4.60897
12.1733
48.0263
16.5222
6.86178
65.8918
79.0081
17.0953
6.419
0.379875
6.65228
6.35193
8.6086
0
6.6965
6.49321
0
8.5654
6.22156
6.84701
0
4.19993
0
56.9734
0
22.484
0.160215
51.1505
16.4867
14.7243
137.348
12.6238
21.4003
81.4938
72.0667
8.02747
61.5198
0
0
1.3148
12.6597
0
0
6.42775
0
0
6.29511
4.52879
0
2.73573
0
27.5755
20.3383
4.69073
0.93199
2.58168
12.7612
0.776764
65.713
11.8653
42.4615
34.5015
76.0315
29.7036
21.8728
0
6.83077
-7.47525e-14
6.3668
0
6.72324
0
0
0
0
6.58562
0
3.03996
6.06748
6.43863
2.82545
16.0221
5.59691
9.99225
0
2.31584
73.4211
24.4565
55.3097
37.3002
53.7949
0
23.3635
5.73857
6.73027
0
6.21217
-3.96533e-13
0
6.15009
0
4.19905
0
0
0
0
0
0
0
0
0
0
0
0
23.4646
0
-2.08273e-12
-8.03429e-14
16.0357
0
3.68363
0
6.71276
5.32608
-2.15242e-12
5.82219
0
1.2838
5.46811
0
6.02378
0
0
0
0
6.00383
5.44109
0
0
0
0
5.65339
14.9552
0
0.701211
9.9691
1.64604
0
0
-6.74503e-13
0
8.03319
0
5.84403
0
3.83157