/*--------------------------------*- C++ -*----------------------------------*\
| =========                 |                                                 |
| \\      /  F ield         | OpenFOAM: The Open Source CFD Toolbox           |
|  \\    /   O peration     | Version:  5.x                                   |
|   \\  /    A nd           | Web:      www.OpenFOAM.org                      |
|    \\/     M anipulation  |                                                 |
\*---------------------------------------------------------------------------*/
FoamFile
{
    version     2.0;
    format      ascii;
    class       volVectorField;
    location    "3.45";
    object      Us;
}
// * * * * * * * * * * * * * * * * * * * * * * * * * * * * * * * * * * * * * //

dimensions      [0 1 -1 0 0 0 0];

internalField   nonuniform List<vector> 
10571
(
(-0.125148 -0.00569479 0.112123)
(0.00715769 0.0194228 -0.0239459)
(-0.04901 -0.0019484 0.167861)
(-0.259361 -0.105909 0.164998)
(-0.207691 -0.131601 0.0187888)
(0.17406 -0.0727962 0.0817562)
(-0.0572083 -0.1171 0.186106)
(-0.381924 -0.198343 0.154754)
(-0.216075 -0.144519 -0.0144928)
(-0.0419638 -0.11882 -0.0334552)
(0.0138915 0.0204393 0.054357)
(0.111212 -0.00746102 0.0248149)
(-0.137436 -0.125793 0.144736)
(-0.317558 -0.101978 0.0375189)
(-0.174436 -0.0554866 -0.0612394)
(0.000895323 -0.0384418 -0.0623469)
(0.0377287 0.0779279 0.0866549)
(-0.175926 -0.146165 0.0862075)
(-0.286224 0.00958969 -0.0133565)
(-0.133866 0.055769 -0.0749125)
(-0.0364868 0.0459974 -0.080365)
(-0.106009 -0.0886235 0.00418477)
(-0.114745 -0.0483661 -0.0179756)
(-0.0995887 0.0487576 -0.0513867)
(-0.0559142 -0.00469453 0.0659483)
(-0.0559653 0.0678226 -0.1432)
(-0.257304 -0.0295491 0.292122)
(-0.340254 -0.066371 0.390205)
(-0.145287 0.0110006 -0.0334357)
(0.0247664 0.0821269 -0.0552752)
(-0.184563 -0.128124 0.406884)
(-0.254552 -0.0861107 0.153995)
(-0.142928 -0.0429252 -0.0160279)
(-0.060262 -0.0531004 0.0185184)
(0.00139482 0.0135187 0.0796767)
(-0.0261337 -0.0163177 0.0844978)
(-0.153665 -0.165886 0.294969)
(-0.166203 -0.0418794 0.037938)
(-0.114608 -0.0197701 0.018871)
(-0.0183846 -0.0344497 0.0322206)
(0.0357995 -0.0267542 0.228744)
(-0.157752 -0.15435 0.266049)
(-0.16242 -0.0771211 0.166034)
(-0.132632 -0.0234495 0.0591387)
(-0.0112924 -0.00830443 0.0638048)
(-0.0915846 -0.0838366 0.171479)
(-0.0736668 -0.0932717 0.135087)
(-0.060664 0.00973717 0.0791838)
(0.0444843 -0.00709117 -0.230592)
(-0.160017 -0.0566619 -0.25958)
(-0.241964 -0.07151 0.0587567)
(-0.173055 -5.99092e-05 0.363646)
(-0.0223524 0.0524262 -0.156522)
(-0.20691 0.0887444 -0.132736)
(-0.101938 -0.0447408 0.390229)
(-0.0640712 0.0122996 0.0513977)
(-0.0874789 0.0120758 -0.0632811)
(-0.0334043 0.0015769 -0.0405508)
(0 0 0)
(-0.146878 -0.0855114 0.0683743)
(-0.0453484 -0.0494843 0.321874)
(-0.0961173 0.00954438 0.054239)
(-0.103453 0.00115445 -0.0129752)
(-0.0373988 0.00611348 -0.00372387)
(-0.0672319 -0.0913254 0.229454)
(-0.079471 -0.0901271 0.320261)
(-0.113668 -0.0558773 0.18505)
(-0.105945 0.00310594 0.0826932)
(-0.0255439 0.0235098 0.0439521)
(-0.0480255 -0.0598084 0.241002)
(-0.0612658 -0.0799381 0.235968)
(-0.0486143 0.00801611 0.113876)
(-0.0877675 0.0278191 -0.599434)
(0 0 0)
(-0.074525 -0.0695374 -0.148498)
(0.0230944 -0.0687948 -0.239434)
(0.0387789 0.0387942 -0.185857)
(-0.179865 0.0513993 -0.0896125)
(-0.0296308 0.14117 -0.05777)
(0.0667048 0.151176 -0.086296)
(-0.0424967 0.0417519 -0.0934971)
(-0.0134694 0.0346426 -0.082857)
(0 0 0)
(-0.0780344 0.0427784 -0.263312)
(0.00262543 0.0257679 0.147854)
(-0.0862049 0.0352974 -0.123643)
(-0.107218 0.00943288 -0.0656617)
(-0.0441524 0.0287895 -0.0691484)
(-0.112311 0.0359036 0.0542139)
(-0.0330197 0.0148142 0.303007)
(-0.0341244 -0.00443225 0.190809)
(-0.087295 -0.000947352 0.0632395)
(-0.0337466 0.0334558 -0.0185681)
(-0.010714 -0.00188849 0.205238)
(0.0149788 -0.0248386 0.207374)
(-0.00331977 -0.00457624 0.0857362)
(-0.0968757 0.0716663 -0.56936)
(0 0 0)
(0 0 0)
(-0.0372982 -0.0847053 -0.0351965)
(-0.0437283 -0.0690941 -0.597609)
(0 0 0)
(-0.0497645 0.0592765 -0.0580875)
(-0.0126986 0.0519518 -0.157327)
(-0.0581094 0.0577706 -0.193665)
(-0.00509954 0.0511521 -0.129977)
(0 0 0)
(0 0 0)
(-0.245562 0.0740909 -0.401483)
(-0.185739 0.0725383 -0.268594)
(-0.0786624 0.0643388 -0.195989)
(-0.0439918 0.0535643 -0.134838)
(0 0 0)
(0.000524975 0.16639 -0.145182)
(-0.178965 0.139126 -0.243037)
(-0.135863 0.099964 -0.290101)
(-0.0442674 0.0454456 -0.0772587)
(0.0210124 0.108542 0.162339)
(0.124656 0.0540275 0.0341523)
(0.0735172 0.0499728 -0.157219)
(-0.0915 0.030844 -0.537906)
(0 0 0)
(0 0 0)
(0 0 0)
(-0.0418566 -0.0468249 -0.50032)
(0 0 0)
(-1.44504e-14 4.29731e-15 -5.54512e-14)
(-0.116035 0.0380206 -0.408182)
(-0.078534 0.0371148 -0.255866)
(0.00956712 0.0821178 -0.188607)
(-0.00147027 0.00126175 -0.00104101)
(0 0 0)
(0 0 0)
(-0.367153 0.0718901 -0.183545)
(-0.16939 0.102652 -0.269553)
(-0.0640166 0.111097 -0.19938)
(-0.0235211 0.10416 -0.187405)
(-0.000494812 -2.97474e-05 -0.000323946)
(0 0 0)
(0 0 0)
(-0.17064 0.159397 -0.211644)
(-0.11381 0.13569 -0.216664)
(-0.0490148 0.128314 -0.249994)
(0.00236332 0.099995 -0.463479)
(-0.0342101 0.130296 0.114102)
(-0.181984 0.1087 -0.219266)
(-0.106749 -0.076694 -0.541567)
(0 0 0)
(0 0 0)
(0 0 0)
(0 0 0)
(0 0 0)
(0 0 0)
(-0.0961333 0.0413257 -0.401953)
(-0.0382469 0.00631862 -0.501365)
(0 0 0)
(0 0 0)
(0 0 0)
(0 0 0)
(0 0 0)
(-0.0877276 0.0639073 -0.448466)
(-0.0675532 0.0779141 -0.3572)
(0 0 0)
(0 0 0)
(0 0 0)
(0 0 0)
(-0.25214 0.0826725 -0.109)
(-0.121682 0.138197 -0.191551)
(0 0 0)
(0 0 0)
(0 0 0)
(0 0 0)
(0 0 0)
(-0.0979587 -0.083019 -0.488647)
(0 0 0)
(0 0 0)
(-0.0805786 -0.0557282 -0.480582)
(0 0 0)
(0 0 0)
(0 0 0)
(-0.0727055 0.0298477 -0.439835)
(-0.0350403 0.0219505 -0.466311)
(0 0 0)
(0 0 0)
(0 0 0)
(0 0 0)
(0 0 0)
(0 0 0)
(-0.0537376 0.0629247 -0.520556)
(0 0 0)
(0 0 0)
(0 0 0)
(0 0 0)
(-0.00567802 -0.0636322 -0.928831)
(0 0 0)
(0 0 0)
(0 0 0)
(0 0 0)
(0 0 0)
(0 0 0)
(-0.118715 -0.0802862 -0.451317)
(0 0 0)
(0 0 0)
(-0.0813067 -0.060527 -0.428148)
(-5.778e-15 -5.93994e-15 -4.72477e-14)
(0 0 0)
(0 0 0)
(-0.0726363 0.0318118 -0.415222)
(-0.00602669 0.022912 -0.435688)
(-0.00113693 0.00318831 -0.415242)
(0 0 0)
(0 0 0)
(0 0 0)
(0 0 0)
(0 0 0)
(0 0 0)
(0 0 0)
(0 0 0)
(0 0 0)
(0 0 0)
(0 0 0)
(0 0 0)
(0 0 0)
(0 0 0)
(0 0 0)
(0 0 0)
(0 0 0)
(0 0 0)
(0 0 0)
(-0.0880209 -0.0448851 -0.395622)
(0 0 0)
(0 0 0)
(0 0 0)
(0 0 0)
(0 0 0)
(0 0 0)
(0 0 0)
(0 0 0)
(0 0 0)
(0 0 0)
(0 0 0)
(0 0 0)
(0 0 0)
(0 0 0)
(0 0 0)
(0 0 0)
(0 0 0)
(0 0 0)
(0 0 0)
(0 0 0)
(0 0 0)
(0 0 0)
(0 0 0)
(-0.0980346 -0.0508166 -0.349413)
(0 0 0)
(0 0 0)
(0 0 0)
(0 0 0)
(-0.0178745 0.00354332 -0.337778)
(0 0 0)
(0 0 0)
(0 0 0)
(0 0 0)
(0 0 0)
(0 0 0)
(0 0 0)
(0 0 0)
(0 0 0)
(0 0 0)
(0 0 0)
(0 0 0)
(0 0 0)
(0 0 0)
(0 0 0)
(0 0 0)
(0 0 0)
(0 0 0)
(-0.0920089 -0.0616624 -0.316522)
(0 0 0)
(0 0 0)
(0 0 0)
(-0.0656735 0.0129095 -0.303475)
(-0.012882 0.00996343 -0.313751)
(0 0 0)
(0 0 0)
(0 0 0)
(0 0 0)
(0 0 0)
(0 0 0)
(0 0 0)
(0 0 0)
(0 0 0)
(0 0 0)
(0 0 0)
(0 0 0)
(0 0 0)
(0 0 0)
(0 0 0)
(0 0 0)
(0 0 0)
(0 0 0)
(-0.115144 -0.0598724 -0.272563)
(0 0 0)
(0 0 0)
(0 0 0)
(0 0 0)
(0 0 0)
(0 0 0)
(0 0 0)
(0 0 0)
(0 0 0)
(0 0 0)
(0 0 0)
(0 0 0)
(0 0 0)
(0 0 0)
(0 0 0)
(0 0 0)
(0 0 0)
(0 0 0)
(0 0 0)
(0 0 0)
(0 0 0)
(0 0 0)
(0 0 0)
(0 0 0)
(0 0 0)
(0 0 0)
(0 0 0)
(0 0 0)
(0 0 0)
(0 0 0)
(0 0 0)
(0 0 0)
(0 0 0)
(0 0 0)
(0 0 0)
(0 0 0)
(0 0 0)
(0 0 0)
(0 0 0)
(0 0 0)
(0 0 0)
(0 0 0)
(0 0 0)
(0 0 0)
(0 0 0)
(0 0 0)
(0 0 0)
(0 0 0)
(-0.0646771 -0.0766643 -0.185222)
(0 0 0)
(0 0 0)
(0 0 0)
(0 0 0)
(0 0 0)
(0 0 0)
(0 0 0)
(0 0 0)
(0 0 0)
(0 0 0)
(0 0 0)
(0 0 0)
(0 0 0)
(0 0 0)
(0 0 0)
(0 0 0)
(0 0 0)
(0 0 0)
(0 0 0)
(0 0 0)
(0 0 0)
(0 0 0)
(0 0 0)
(-0.0546 -0.046586 -0.0989957)
(0 0 0)
(0 0 0)
(0 0 0)
(0 0 0)
(0 0 0)
(0 0 0)
(0 0 0)
(0 0 0)
(0 0 0)
(0 0 0)
(0 0 0)
(0 0 0)
(0 0 0)
(0 0 0)
(0 0 0)
(0 0 0)
(0 0 0)
(0 0 0)
(0 0 0)
(0 0 0)
(0 0 0)
(0 0 0)
(0 0 0)
(0 0 0)
(0 0 0)
(0 0 0)
(0 0 0)
(0 0 0)
(0 0 0)
(0 0 0)
(0 0 0)
(0 0 0)
(0 0 0)
(0 0 0)
(0 0 0)
(0 0 0)
(0 0 0)
(0 0 0)
(0 0 0)
(0 0 0)
(0 0 0)
(0 0 0)
(0 0 0)
(0 0 0)
(0 0 0)
(0 0 0)
(0 0 0)
(0 0 0)
(0 0 0)
(0 0 0)
(0 0 0)
(0 0 0)
(0 0 0)
(0 0 0)
(0 0 0)
(0 0 0)
(0 0 0)
(0 0 0)
(0 0 0)
(0 0 0)
(0 0 0)
(0 0 0)
(0 0 0)
(0 0 0)
(0 0 0)
(0 0 0)
(0 0 0)
(0 0 0)
(0 0 0)
(0 0 0)
(0 0 0)
(0 0 0)
(0 0 0)
(0 0 0)
(0 0 0)
(0 0 0)
(0 0 0)
(0 0 0)
(0 0 0)
(0 0 0)
(0 0 0)
(0 0 0)
(0 0 0)
(0 0 0)
(0 0 0)
(0 0 0)
(0 0 0)
(0 0 0)
(0 0 0)
(0 0 0)
(0 0 0)
(0 0 0)
(0 0 0)
(0 0 0)
(0 0 0)
(0 0 0)
(0 0 0)
(0 0 0)
(0 0 0)
(0 0 0)
(0 0 0)
(0 0 0)
(0 0 0)
(0 0 0)
(0 0 0)
(0 0 0)
(0 0 0)
(0 0 0)
(0 0 0)
(0 0 0)
(0 0 0)
(0 0 0)
(0 0 0)
(0 0 0)
(0 0 0)
(0 0 0)
(0 0 0)
(0 0 0)
(0 0 0)
(0 0 0)
(0 0 0)
(0 0 0)
(0 0 0)
(0 0 0)
(0 0 0)
(0 0 0)
(0 0 0)
(0 0 0)
(0 0 0)
(0 0 0)
(0 0 0)
(0 0 0)
(0 0 0)
(0 0 0)
(0 0 0)
(0 0 0)
(0 0 0)
(0 0 0)
(0 0 0)
(0 0 0)
(0 0 0)
(0 0 0)
(0 0 0)
(0 0 0)
(0 0 0)
(0 0 0)
(0 0 0)
(0 0 0)
(0 0 0)
(0 0 0)
(0 0 0)
(0 0 0)
(0 0 0)
(0 0 0)
(0 0 0)
(0 0 0)
(0 0 0)
(0 0 0)
(0 0 0)
(0 0 0)
(0 0 0)
(0 0 0)
(0 0 0)
(0 0 0)
(0 0 0)
(0 0 0)
(0 0 0)
(0 0 0)
(0 0 0)
(0 0 0)
(0 0 0)
(0 0 0)
(0 0 0)
(0 0 0)
(0 0 0)
(0 0 0)
(0 0 0)
(0 0 0)
(0 0 0)
(0 0 0)
(0 0 0)
(0 0 0)
(0 0 0)
(0 0 0)
(0 0 0)
(0 0 0)
(0 0 0)
(0 0 0)
(0 0 0)
(0 0 0)
(0 0 0)
(0 0 0)
(0 0 0)
(0 0 0)
(0 0 0)
(0 0 0)
(0 0 0)
(0 0 0)
(0 0 0)
(0 0 0)
(0 0 0)
(0 0 0)
(0 0 0)
(0 0 0)
(0 0 0)
(0 0 0)
(0 0 0)
(0 0 0)
(0 0 0)
(0 0 0)
(0 0 0)
(0 0 0)
(0 0 0)
(0 0 0)
(0 0 0)
(0 0 0)
(0 0 0)
(0 0 0)
(0 0 0)
(0 0 0)
(0 0 0)
(0 0 0)
(0 0 0)
(0 0 0)
(0 0 0)
(0 0 0)
(0 0 0)
(0 0 0)
(0 0 0)
(0 0 0)
(0 0 0)
(0 0 0)
(0 0 0)
(0 0 0)
(0 0 0)
(0 0 0)
(0 0 0)
(0 0 0)
(0 0 0)
(0 0 0)
(0 0 0)
(0 0 0)
(0 0 0)
(0 0 0)
(0 0 0)
(0 0 0)
(0 0 0)
(0 0 0)
(0 0 0)
(0 0 0)
(0 0 0)
(0 0 0)
(0 0 0)
(0 0 0)
(0 0 0)
(0 0 0)
(0 0 0)
(0 0 0)
(0 0 0)
(0 0 0)
(0 0 0)
(0 0 0)
(0 0 0)
(0 0 0)
(0 0 0)
(0 0 0)
(0 0 0)
(0 0 0)
(0 0 0)
(0 0 0)
(0 0 0)
(0 0 0)
(0 0 0)
(0 0 0)
(0 0 0)
(0 0 0)
(0 0 0)
(0 0 0)
(0 0 0)
(0 0 0)
(0 0 0)
(0 0 0)
(0 0 0)
(0 0 0)
(0 0 0)
(0 0 0)
(0 0 0)
(0 0 0)
(0 0 0)
(0 0 0)
(0 0 0)
(0 0 0)
(0 0 0)
(0 0 0)
(0 0 0)
(0 0 0)
(0 0 0)
(0 0 0)
(0 0 0)
(0 0 0)
(0 0 0)
(0 0 0)
(0 0 0)
(0 0 0)
(0 0 0)
(0 0 0)
(0 0 0)
(0 0 0)
(0 0 0)
(0 0 0)
(0 0 0)
(0 0 0)
(0 0 0)
(0 0 0)
(0 0 0)
(0 0 0)
(0 0 0)
(0 0 0)
(0 0 0)
(0 0 0)
(0 0 0)
(0 0 0)
(0 0 0)
(0 0 0)
(0 0 0)
(0 0 0)
(0 0 0)
(0 0 0)
(0 0 0)
(0 0 0)
(0 0 0)
(0 0 0)
(0 0 0)
(0 0 0)
(0 0 0)
(0 0 0)
(0 0 0)
(0 0 0)
(0 0 0)
(0 0 0)
(0 0 0)
(0 0 0)
(0 0 0)
(0 0 0)
(0 0 0)
(0 0 0)
(0 0 0)
(0 0 0)
(0 0 0)
(0 0 0)
(0 0 0)
(0 0 0)
(0 0 0)
(0 0 0)
(0 0 0)
(0 0 0)
(0 0 0)
(0 0 0)
(0 0 0)
(0 0 0)
(0 0 0)
(0 0 0)
(0 0 0)
(0 0 0)
(0 0 0)
(0 0 0)
(0 0 0)
(0 0 0)
(0 0 0)
(0 0 0)
(0 0 0)
(0 0 0)
(0 0 0)
(0 0 0)
(0 0 0)
(0 0 0)
(0 0 0)
(0 0 0)
(0 0 0)
(0 0 0)
(0 0 0)
(0 0 0)
(0 0 0)
(0 0 0)
(0 0 0)
(0 0 0)
(0 0 0)
(0 0 0)
(0 0 0)
(0 0 0)
(0 0 0)
(0 0 0)
(0 0 0)
(0 0 0)
(0 0 0)
(0 0 0)
(0 0 0)
(0 0 0)
(0 0 0)
(0 0 0)
(0 0 0)
(0 0 0)
(0 0 0)
(0 0 0)
(0 0 0)
(0 0 0)
(0 0 0)
(0 0 0)
(0 0 0)
(0 0 0)
(0 0 0)
(0 0 0)
(0 0 0)
(0 0 0)
(0 0 0)
(0 0 0)
(0 0 0)
(0 0 0)
(0 0 0)
(0 0 0)
(0 0 0)
(0 0 0)
(0 0 0)
(0 0 0)
(0 0 0)
(0 0 0)
(0 0 0)
(0 0 0)
(0 0 0)
(0 0 0)
(0 0 0)
(0 0 0)
(0 0 0)
(0 0 0)
(0 0 0)
(0 0 0)
(0 0 0)
(0 0 0)
(0 0 0)
(0 0 0)
(0 0 0)
(0 0 0)
(0 0 0)
(0 0 0)
(0 0 0)
(0 0 0)
(0 0 0)
(0 0 0)
(0 0 0)
(0 0 0)
(0 0 0)
(0 0 0)
(0 0 0)
(0 0 0)
(0 0 0)
(0 0 0)
(0 0 0)
(0 0 0)
(0 0 0)
(0 0 0)
(0 0 0)
(0 0 0)
(0 0 0)
(0 0 0)
(0 0 0)
(0 0 0)
(0 0 0)
(0 0 0)
(0 0 0)
(0 0 0)
(0 0 0)
(0 0 0)
(0 0 0)
(0 0 0)
(0 0 0)
(0 0 0)
(0 0 0)
(0 0 0)
(0 0 0)
(0 0 0)
(0 0 0)
(0 0 0)
(0 0 0)
(0 0 0)
(0 0 0)
(0 0 0)
(0 0 0)
(0 0 0)
(0 0 0)
(0 0 0)
(0 0 0)
(0 0 0)
(0 0 0)
(0 0 0)
(0 0 0)
(0 0 0)
(0 0 0)
(0 0 0)
(0 0 0)
(0 0 0)
(0 0 0)
(0 0 0)
(0 0 0)
(0 0 0)
(0 0 0)
(0 0 0)
(0 0 0)
(0 0 0)
(0 0 0)
(0 0 0)
(0 0 0)
(0 0 0)
(0 0 0)
(0 0 0)
(0 0 0)
(0 0 0)
(0 0 0)
(0 0 0)
(0 0 0)
(0 0 0)
(0 0 0)
(0 0 0)
(0 0 0)
(0 0 0)
(0 0 0)
(0 0 0)
(0 0 0)
(0 0 0)
(0 0 0)
(0 0 0)
(0 0 0)
(0 0 0)
(0 0 0)
(0 0 0)
(0 0 0)
(0 0 0)
(0 0 0)
(0 0 0)
(0 0 0)
(0 0 0)
(0 0 0)
(0 0 0)
(0 0 0)
(0 0 0)
(0 0 0)
(0 0 0)
(0 0 0)
(0 0 0)
(0 0 0)
(0 0 0)
(0 0 0)
(0 0 0)
(0 0 0)
(0 0 0)
(0 0 0)
(0 0 0)
(0 0 0)
(0 0 0)
(0 0 0)
(0 0 0)
(0 0 0)
(0 0 0)
(0 0 0)
(0 0 0)
(0 0 0)
(0 0 0)
(0 0 0)
(0 0 0)
(0 0 0)
(0 0 0)
(0 0 0)
(0 0 0)
(0 0 0)
(0 0 0)
(0 0 0)
(0 0 0)
(0 0 0)
(0 0 0)
(0 0 0)
(0 0 0)
(0 0 0)
(0 0 0)
(0 0 0)
(0 0 0)
(0 0 0)
(0 0 0)
(0 0 0)
(0 0 0)
(0 0 0)
(0 0 0)
(0 0 0)
(0 0 0)
(0 0 0)
(0 0 0)
(0 0 0)
(0 0 0)
(0 0 0)
(0 0 0)
(0 0 0)
(0 0 0)
(0 0 0)
(0 0 0)
(0 0 0)
(0 0 0)
(0 0 0)
(0 0 0)
(0 0 0)
(0 0 0)
(0 0 0)
(0 0 0)
(0 0 0)
(0 0 0)
(0 0 0)
(0 0 0)
(0 0 0)
(0 0 0)
(0 0 0)
(0 0 0)
(0 0 0)
(0 0 0)
(0 0 0)
(0 0 0)
(0 0 0)
(0 0 0)
(0 0 0)
(0 0 0)
(0 0 0)
(0 0 0)
(0 0 0)
(0 0 0)
(0 0 0)
(0 0 0)
(0 0 0)
(0 0 0)
(0 0 0)
(0 0 0)
(0 0 0)
(0 0 0)
(0 0 0)
(0 0 0)
(0 0 0)
(0 0 0)
(0 0 0)
(0 0 0)
(0 0 0)
(0 0 0)
(0 0 0)
(0 0 0)
(0 0 0)
(0 0 0)
(0 0 0)
(0 0 0)
(0 0 0)
(0 0 0)
(0 0 0)
(0 0 0)
(0 0 0)
(0 0 0)
(0 0 0)
(0 0 0)
(0 0 0)
(0 0 0)
(0 0 0)
(0 0 0)
(0 0 0)
(0 0 0)
(0 0 0)
(0 0 0)
(0 0 0)
(0 0 0)
(0 0 0)
(0 0 0)
(0 0 0)
(0 0 0)
(0 0 0)
(0 0 0)
(0 0 0)
(0 0 0)
(0 0 0)
(0 0 0)
(0 0 0)
(0 0 0)
(0 0 0)
(0 0 0)
(0 0 0)
(0 0 0)
(0 0 0)
(0 0 0)
(0 0 0)
(0 0 0)
(0 0 0)
(0 0 0)
(0 0 0)
(0 0 0)
(0 0 0)
(0 0 0)
(0 0 0)
(0 0 0)
(0 0 0)
(0 0 0)
(0 0 0)
(0 0 0)
(0 0 0)
(0 0 0)
(0 0 0)
(0 0 0)
(0 0 0)
(0 0 0)
(0 0 0)
(0 0 0)
(0 0 0)
(0 0 0)
(0 0 0)
(0 0 0)
(0 0 0)
(0 0 0)
(0 0 0)
(0 0 0)
(0 0 0)
(0 0 0)
(0 0 0)
(0 0 0)
(0 0 0)
(0 0 0)
(0 0 0)
(0 0 0)
(0 0 0)
(0 0 0)
(0 0 0)
(0 0 0)
(0 0 0)
(0 0 0)
(0 0 0)
(0 0 0)
(0 0 0)
(0 0 0)
(0 0 0)
(0 0 0)
(0 0 0)
(0 0 0)
(0 0 0)
(0 0 0)
(0 0 0)
(0 0 0)
(0 0 0)
(0 0 0)
(0 0 0)
(0 0 0)
(0 0 0)
(0 0 0)
(0 0 0)
(0 0 0)
(0 0 0)
(0 0 0)
(0 0 0)
(0 0 0)
(0 0 0)
(0 0 0)
(0 0 0)
(0 0 0)
(0 0 0)
(0 0 0)
(0 0 0)
(0 0 0)
(0 0 0)
(0 0 0)
(0 0 0)
(0 0 0)
(0 0 0)
(0 0 0)
(0 0 0)
(0 0 0)
(0 0 0)
(0 0 0)
(0 0 0)
(0 0 0)
(0 0 0)
(0 0 0)
(0 0 0)
(0 0 0)
(0 0 0)
(0 0 0)
(0 0 0)
(0 0 0)
(0 0 0)
(0 0 0)
(0 0 0)
(0 0 0)
(0 0 0)
(0 0 0)
(0 0 0)
(0 0 0)
(0 0 0)
(0 0 0)
(0 0 0)
(0 0 0)
(0 0 0)
(0 0 0)
(0 0 0)
(0 0 0)
(0 0 0)
(0 0 0)
(0 0 0)
(0 0 0)
(0 0 0)
(0 0 0)
(0 0 0)
(0 0 0)
(0 0 0)
(0 0 0)
(0 0 0)
(0 0 0)
(0 0 0)
(0 0 0)
(0 0 0)
(0 0 0)
(0 0 0)
(0 0 0)
(0 0 0)
(0 0 0)
(0 0 0)
(0 0 0)
(0 0 0)
(0 0 0)
(0 0 0)
(0 0 0)
(0 0 0)
(0 0 0)
(0 0 0)
(0 0 0)
(0 0 0)
(0 0 0)
(0 0 0)
(0 0 0)
(0 0 0)
(0 0 0)
(0 0 0)
(0 0 0)
(0 0 0)
(0 0 0)
(0 0 0)
(0 0 0)
(0 0 0)
(0 0 0)
(0 0 0)
(0 0 0)
(0 0 0)
(0 0 0)
(0 0 0)
(0 0 0)
(0 0 0)
(0 0 0)
(0 0 0)
(0 0 0)
(0 0 0)
(0 0 0)
(0 0 0)
(0 0 0)
(0 0 0)
(0 0 0)
(0 0 0)
(0 0 0)
(0 0 0)
(0 0 0)
(0 0 0)
(0 0 0)
(0 0 0)
(0 0 0)
(0 0 0)
(0 0 0)
(0 0 0)
(0 0 0)
(0 0 0)
(0 0 0)
(0 0 0)
(0 0 0)
(0 0 0)
(0 0 0)
(0 0 0)
(0 0 0)
(0 0 0)
(0 0 0)
(0 0 0)
(0 0 0)
(0 0 0)
(0 0 0)
(0 0 0)
(0 0 0)
(0 0 0)
(0 0 0)
(0 0 0)
(0 0 0)
(0 0 0)
(0 0 0)
(0 0 0)
(0 0 0)
(0 0 0)
(0 0 0)
(0 0 0)
(0 0 0)
(0 0 0)
(0 0 0)
(0 0 0)
(0 0 0)
(0 0 0)
(0 0 0)
(0 0 0)
(0 0 0)
(0 0 0)
(0 0 0)
(0 0 0)
(0 0 0)
(0 0 0)
(0 0 0)
(0 0 0)
(0 0 0)
(0 0 0)
(0 0 0)
(0 0 0)
(0 0 0)
(0 0 0)
(0 0 0)
(0 0 0)
(0 0 0)
(0 0 0)
(0 0 0)
(0 0 0)
(0 0 0)
(0 0 0)
(0 0 0)
(0 0 0)
(0 0 0)
(0 0 0)
(0 0 0)
(0 0 0)
(0 0 0)
(0 0 0)
(0 0 0)
(0 0 0)
(0 0 0)
(0 0 0)
(0 0 0)
(0 0 0)
(0 0 0)
(0 0 0)
(0 0 0)
(0 0 0)
(0 0 0)
(0 0 0)
(0 0 0)
(0 0 0)
(0 0 0)
(0 0 0)
(0 0 0)
(0 0 0)
(0 0 0)
(0 0 0)
(0 0 0)
(0 0 0)
(0 0 0)
(0 0 0)
(0 0 0)
(0 0 0)
(0 0 0)
(0 0 0)
(0 0 0)
(0 0 0)
(0 0 0)
(0 0 0)
(0 0 0)
(0 0 0)
(0 0 0)
(0 0 0)
(0 0 0)
(0 0 0)
(0 0 0)
(0 0 0)
(0 0 0)
(0 0 0)
(0 0 0)
(0 0 0)
(0 0 0)
(0 0 0)
(0 0 0)
(0 0 0)
(0 0 0)
(0 0 0)
(0 0 0)
(0 0 0)
(0 0 0)
(0 0 0)
(0 0 0)
(0 0 0)
(0 0 0)
(0 0 0)
(0 0 0)
(0 0 0)
(0 0 0)
(0 0 0)
(0 0 0)
(0 0 0)
(0 0 0)
(0 0 0)
(0 0 0)
(0 0 0)
(0 0 0)
(0 0 0)
(0 0 0)
(0 0 0)
(0 0 0)
(0 0 0)
(0 0 0)
(0 0 0)
(0 0 0)
(0 0 0)
(0 0 0)
(0 0 0)
(0 0 0)
(0 0 0)
(0 0 0)
(0 0 0)
(0 0 0)
(0 0 0)
(0 0 0)
(0 0 0)
(0 0 0)
(0 0 0)
(0 0 0)
(0 0 0)
(0 0 0)
(0 0 0)
(0 0 0)
(0 0 0)
(0 0 0)
(0 0 0)
(0 0 0)
(0 0 0)
(0 0 0)
(0 0 0)
(0 0 0)
(0 0 0)
(0 0 0)
(0 0 0)
(0 0 0)
(0 0 0)
(0 0 0)
(0 0 0)
(0 0 0)
(0 0 0)
(0 0 0)
(0 0 0)
(0 0 0)
(0 0 0)
(0 0 0)
(0 0 0)
(0 0 0)
(0 0 0)
(0 0 0)
(0 0 0)
(0 0 0)
(0 0 0)
(0 0 0)
(0 0 0)
(0 0 0)
(0 0 0)
(0 0 0)
(0 0 0)
(0 0 0)
(0 0 0)
(0 0 0)
(0 0 0)
(0 0 0)
(0 0 0)
(0 0 0)
(0 0 0)
(0 0 0)
(0 0 0)
(0 0 0)
(0 0 0)
(0 0 0)
(0 0 0)
(0 0 0)
(0 0 0)
(0 0 0)
(0 0 0)
(0 0 0)
(0 0 0)
(0 0 0)
(0 0 0)
(0 0 0)
(0 0 0)
(0 0 0)
(0 0 0)
(0 0 0)
(0 0 0)
(0 0 0)
(0 0 0)
(0 0 0)
(0 0 0)
(0 0 0)
(0 0 0)
(0 0 0)
(0 0 0)
(0 0 0)
(0 0 0)
(0 0 0)
(0 0 0)
(0 0 0)
(0 0 0)
(0 0 0)
(0 0 0)
(0 0 0)
(0 0 0)
(0 0 0)
(0 0 0)
(0 0 0)
(0 0 0)
(0 0 0)
(0 0 0)
(0 0 0)
(0 0 0)
(0 0 0)
(0 0 0)
(0 0 0)
(0 0 0)
(0 0 0)
(0 0 0)
(0 0 0)
(0 0 0)
(0 0 0)
(0 0 0)
(0 0 0)
(0 0 0)
(0 0 0)
(0 0 0)
(0 0 0)
(0 0 0)
(0 0 0)
(0 0 0)
(0 0 0)
(0 0 0)
(0 0 0)
(0 0 0)
(0 0 0)
(0 0 0)
(0 0 0)
(0 0 0)
(0 0 0)
(0 0 0)
(0 0 0)
(0 0 0)
(0 0 0)
(0 0 0)
(0 0 0)
(0 0 0)
(0 0 0)
(0 0 0)
(0 0 0)
(0 0 0)
(0 0 0)
(0 0 0)
(0 0 0)
(0 0 0)
(0 0 0)
(0 0 0)
(0 0 0)
(0 0 0)
(0 0 0)
(0 0 0)
(0 0 0)
(0 0 0)
(0 0 0)
(0 0 0)
(0 0 0)
(0 0 0)
(0 0 0)
(0 0 0)
(0 0 0)
(0 0 0)
(0 0 0)
(0 0 0)
(0 0 0)
(0 0 0)
(0 0 0)
(0 0 0)
(0 0 0)
(0 0 0)
(0 0 0)
(0 0 0)
(0 0 0)
(0 0 0)
(0 0 0)
(0 0 0)
(0 0 0)
(0 0 0)
(0 0 0)
(0 0 0)
(0 0 0)
(0 0 0)
(0 0 0)
(0 0 0)
(0 0 0)
(0 0 0)
(0 0 0)
(0 0 0)
(0 0 0)
(0 0 0)
(0 0 0)
(0 0 0)
(0 0 0)
(0 0 0)
(0 0 0)
(0 0 0)
(0 0 0)
(0 0 0)
(0 0 0)
(0 0 0)
(0 0 0)
(0 0 0)
(0 0 0)
(0 0 0)
(0 0 0)
(0 0 0)
(0 0 0)
(0 0 0)
(0 0 0)
(0 0 0)
(0 0 0)
(0 0 0)
(0 0 0)
(0 0 0)
(0 0 0)
(0 0 0)
(0 0 0)
(0 0 0)
(0 0 0)
(0 0 0)
(0 0 0)
(0 0 0)
(0 0 0)
(0 0 0)
(0 0 0)
(0 0 0)
(0 0 0)
(0 0 0)
(0 0 0)
(0 0 0)
(0 0 0)
(0 0 0)
(0 0 0)
(0 0 0)
(0 0 0)
(0 0 0)
(0 0 0)
(0 0 0)
(0 0 0)
(0 0 0)
(0 0 0)
(0 0 0)
(0 0 0)
(0 0 0)
(0 0 0)
(0 0 0)
(0 0 0)
(0 0 0)
(0 0 0)
(0 0 0)
(0 0 0)
(0 0 0)
(0 0 0)
(0 0 0)
(0 0 0)
(0 0 0)
(0 0 0)
(0 0 0)
(0 0 0)
(0 0 0)
(0 0 0)
(0 0 0)
(0 0 0)
(0 0 0)
(0 0 0)
(0 0 0)
(0 0 0)
(0 0 0)
(0 0 0)
(0 0 0)
(0 0 0)
(0 0 0)
(0 0 0)
(0 0 0)
(0 0 0)
(0 0 0)
(0 0 0)
(0 0 0)
(0 0 0)
(0 0 0)
(0 0 0)
(0 0 0)
(0 0 0)
(0 0 0)
(0 0 0)
(0 0 0)
(0 0 0)
(0 0 0)
(0 0 0)
(0 0 0)
(0 0 0)
(0 0 0)
(0 0 0)
(0 0 0)
(0 0 0)
(0 0 0)
(0 0 0)
(0 0 0)
(0 0 0)
(0 0 0)
(0 0 0)
(0 0 0)
(0 0 0)
(0 0 0)
(0 0 0)
(0 0 0)
(0 0 0)
(0 0 0)
(0 0 0)
(0 0 0)
(0 0 0)
(0 0 0)
(0 0 0)
(0 0 0)
(0 0 0)
(0 0 0)
(0 0 0)
(0 0 0)
(0 0 0)
(0 0 0)
(0 0 0)
(0 0 0)
(0 0 0)
(0 0 0)
(0 0 0)
(0 0 0)
(0 0 0)
(0 0 0)
(0 0 0)
(0 0 0)
(0 0 0)
(0 0 0)
(0 0 0)
(0 0 0)
(0 0 0)
(0 0 0)
(0 0 0)
(0 0 0)
(0 0 0)
(0 0 0)
(0 0 0)
(0 0 0)
(0 0 0)
(0 0 0)
(0 0 0)
(0 0 0)
(0 0 0)
(0 0 0)
(0 0 0)
(0 0 0)
(0 0 0)
(0 0 0)
(0 0 0)
(0 0 0)
(0 0 0)
(0 0 0)
(0 0 0)
(0 0 0)
(0 0 0)
(0 0 0)
(0 0 0)
(0 0 0)
(0 0 0)
(0 0 0)
(0 0 0)
(0 0 0)
(0 0 0)
(0 0 0)
(0 0 0)
(0 0 0)
(0 0 0)
(0 0 0)
(0 0 0)
(0 0 0)
(0 0 0)
(0 0 0)
(0 0 0)
(0 0 0)
(0 0 0)
(0 0 0)
(0 0 0)
(0 0 0)
(0 0 0)
(0 0 0)
(0 0 0)
(0 0 0)
(0 0 0)
(0 0 0)
(0 0 0)
(0 0 0)
(0 0 0)
(0 0 0)
(0 0 0)
(0 0 0)
(0 0 0)
(0 0 0)
(0 0 0)
(0 0 0)
(0 0 0)
(0 0 0)
(0 0 0)
(0 0 0)
(0 0 0)
(0 0 0)
(0 0 0)
(0 0 0)
(0 0 0)
(0 0 0)
(0 0 0)
(0 0 0)
(0 0 0)
(0 0 0)
(0 0 0)
(0 0 0)
(0 0 0)
(0 0 0)
(0 0 0)
(0 0 0)
(0 0 0)
(0 0 0)
(0 0 0)
(0 0 0)
(0 0 0)
(0 0 0)
(0 0 0)
(0 0 0)
(0 0 0)
(-0.00599114 0.0144073 0.0026149)
(-0.0625051 0.0109199 0.0277082)
(-0.0451962 0.0206425 0.0367679)
(-0.0870994 -0.00822855 0.0635406)
(-0.0639758 0.00712628 0.00713463)
(-0.137793 -0.0337819 0.0299942)
(-0.147402 -0.0612709 -0.0049336)
(-0.0942238 -0.0495915 -0.00584537)
(0.0704258 -0.0536552 -0.00876794)
(0.0262228 0.00534966 -0.0056815)
(0.0240866 0.0178748 0.0296591)
(0.109907 -0.0511785 0.0232026)
(0.0902059 -0.0300344 0.0642086)
(-0.0392396 0.00428852 0.0702058)
(-0.176836 -0.06832 0.0430158)
(-0.119753 -0.0606726 0.038169)
(-0.233048 -0.099884 0.0175438)
(-0.291069 -0.135434 -0.0142783)
(-0.267126 -0.145935 -0.0116537)
(-0.335682 -0.204765 -0.0283033)
(-0.283694 -0.194075 -0.0227566)
(-0.171917 -0.115885 -0.00426793)
(-0.0902698 -0.0693951 -0.00477803)
(-0.191991 -0.152709 -0.00290561)
(-0.108677 -0.103826 -0.00860991)
(-0.0473064 -0.0613998 -0.00629521)
(0.0941135 -0.0963158 -0.0227024)
(0.0213073 -0.0181632 -0.0195426)
(0.0605674 -0.0530443 -0.0296679)
(0.167609 -0.134351 0.0442196)
(0.121625 -0.155059 0.0844571)
(0.152256 -0.103859 -0.0113343)
(0.12148 -0.161681 0.0409723)
(-0.118963 -0.13583 0.0243908)
(-0.210078 -0.10986 0.0175066)
(-0.109863 -0.14689 0.024974)
(-0.257444 -0.106231 0.00121009)
(-0.332636 -0.211408 -0.0389181)
(-0.265414 -0.169241 -0.0148492)
(-0.295694 -0.159203 -0.0310828)
(-0.231926 -0.135175 -0.0119421)
(-0.176595 -0.131215 -0.00593241)
(-0.0909504 -0.104556 -0.0141546)
(-0.153069 -0.107163 -0.0141244)
(-0.0782364 -0.0723294 -0.0133031)
(-0.0382882 -0.0879295 -0.00604002)
(-0.0208849 -0.0580887 -0.00829562)
(-0.00737739 -0.0297746 -0.00516207)
(0.0107423 0.00757458 -0.0199742)
(0.0249762 0.0328781 -0.0248543)
(0.0403255 0.0629162 -0.00704393)
(0.086093 0.00131713 -0.0286834)
(-0.0154287 -0.105529 0.0136407)
(0.0197677 0.0257783 -0.00438249)
(-0.0932891 -0.0627697 0.00900411)
(-0.169975 -0.110089 0.0269554)
(-0.313313 -0.089831 -0.0235835)
(-0.213008 -0.0988944 0.0191166)
(-0.300949 -0.0573181 -0.0112836)
(-0.291939 -0.0979843 -0.0170485)
(-0.207287 -0.0812261 -0.00843274)
(-0.267526 -0.0416316 -0.0106035)
(-0.190362 -0.0256761 -0.0131539)
(-0.140415 -0.0677301 -0.0234461)
(-0.0646693 -0.0379151 -0.00522798)
(-0.119131 -0.0109851 -0.0280968)
(-0.0563297 0.00273859 -0.00621166)
(-0.0131855 -0.0147691 -0.00754087)
(-0.00235724 -0.0194062 -0.00647458)
(-0.0253581 0.014462 -0.00791642)
(0.00371684 0.0221541 0.00118587)
(-0.00578116 0.00603861 0.00243604)
(-0.0505919 -0.0367886 0.00258184)
(-0.0090256 -0.0124309 0.000134045)
(-0.0244912 -0.0279795 -0.00399351)
(-0.145595 -0.06704 0.00856258)
(-0.243444 -0.0425005 0.00221828)
(-0.0591559 -0.050401 -0.00326789)
(-0.157683 -0.0484569 -0.00107992)
(-0.23958 0.00334755 -0.00985324)
(-0.172634 0.0153383 -0.0116596)
(-0.162525 -0.0172839 -0.0067187)
(-0.131361 0.0123878 -0.00473756)
(-0.109869 0.0264087 -0.0243485)
(-0.0497531 0.0216125 -0.00862751)
(-0.0802001 0.0301519 -0.0183635)
(-0.0299352 0.00921059 -0.0100619)
(-0.0206137 0.00823167 -0.00827217)
(-0.00433414 -0.0154162 -0.0110237)
(-0.0298655 -0.0414085 -0.0145132)
(-0.0551388 -0.033068 -0.00849894)
(-0.0151941 -0.0116766 -0.00938518)
(-0.0799131 -0.00395829 -0.0104595)
(-0.0624167 0.00972895 -0.00626594)
(-0.0167898 -0.0144378 -0.00722525)
(-0.033689 0.00901072 -0.00578026)
(-0.017807 0.016755 -0.0163986)
(-0.0625652 0.0417418 -0.0460503)
(-0.0817317 0.00826505 0.121346)
(-0.0336578 0.0192082 0.0580536)
(-0.0957751 0.00262762 0.145896)
(-0.088316 0.0042246 0.13112)
(-0.0738969 0.0223778 0.0431833)
(-0.119654 -0.0025453 0.20174)
(-0.174686 -0.0203857 0.151966)
(-0.195627 -0.0514341 0.090916)
(-0.111861 -0.00382567 0.109568)
(-0.212118 -0.0152459 0.211666)
(-0.17824 -0.0243041 0.0796063)
(-0.156631 -0.0767924 0.0259763)
(-0.112533 -0.0417823 0.00162731)
(0.0361276 -0.00215465 -0.041026)
(0.00239569 0.0644516 -0.102217)
(0.0133721 0.0321233 0.0417323)
(0.0914664 0.00845997 0.0434796)
(0.0761183 -0.0283639 0.17655)
(-0.0268992 0.0615686 -0.0693989)
(-0.0412285 0.0588348 0.0547012)
(0.048564 0.0981427 -0.00447205)
(0.0128953 -0.00649154 0.284023)
(-0.13237 -0.126691 -0.0148414)
(-0.232923 -0.158682 0.00574333)
(-0.128411 -0.147988 -0.0204507)
(-0.171833 -0.0571397 0.0269277)
(-0.0939597 -0.0635599 -0.00102996)
(-0.216248 -0.085221 0.0509318)
(-0.117239 -0.0819136 0.00250529)
(-0.0701482 -0.128433 -0.0288314)
(-0.0520019 -0.0756049 0.0202444)
(0.0812604 -0.0243755 -0.0504898)
(0.0315594 -0.00208285 0.0287251)
(0.0774073 -0.0192644 -0.0236299)
(0.0424904 0.0618657 -0.102753)
(0.00418664 0.0351281 0.00723154)
(0.0373479 0.0378161 -0.0530224)
(-0.0202662 -0.0756652 -0.0485147)
(-0.00795934 -0.0584874 0.00709854)
(-0.0411294 -0.0773241 0.0285848)
(-0.032971 -0.0581562 0.0266103)
(-0.0189658 -0.0344154 0.0738185)
(0.0295013 0.0274097 0.0258312)
(0.050752 0.0788861 0.0637094)
(0.00450065 0.0285722 0.0684951)
(0.0121121 0.0258326 0.0766979)
(0.0216849 0.0136841 0.142309)
(-0.000264531 -0.0357803 -0.0344432)
(-0.0384457 0.0237486 -0.0488938)
(0.00850452 -0.0356675 0.0095948)
(0.00435859 -0.0183651 0.0231204)
(-0.017513 -0.0216137 0.0326882)
(0.0588973 0.113591 0.0764054)
(0.0631264 0.07839 0.151024)
(-0.0520522 -0.0782568 0.112276)
(0.0215166 0.0226379 0.0618075)
(-0.0369643 -0.0714245 0.0649417)
(0.0582781 0.0681698 0.147099)
(-0.0347053 -0.0741235 0.187281)
(0.0262465 0.0320483 0.119746)
(-0.022774 -0.0564138 0.129587)
(-0.0650604 0.0582737 -0.0749803)
(-0.125136 0.0693086 -0.0709428)
(-0.0796487 0.0630902 -0.0847988)
(-0.124571 0.0208646 0.0100901)
(-0.0617904 0.0273179 0.00311374)
(-0.0976084 0.0196586 0.0181465)
(-0.0567013 0.038013 0.00242677)
(-0.0163201 0.0112311 0.0142643)
(-0.0541327 -0.0583412 0.0251952)
(-0.0549641 -0.0495541 0.0805627)
(-0.11952 -0.065646 -0.0132401)
(-0.0950502 -0.0253388 -0.0169899)
(-0.0992847 -0.0771389 0.0715699)
(-0.113515 -0.0751741 0.0414832)
(-0.0841671 -0.0254485 0.068198)
(-0.107564 0.0154842 -0.0293223)
(-0.0977149 -0.0205246 -0.0108807)
(-0.0997186 -0.0568296 0.0391686)
(-0.081107 -0.0119316 0.0348699)
(-0.0741127 -0.0221111 0.0683965)
(-0.0658265 0.00980983 0.0138256)
(-0.107103 0.0347244 -0.180275)
(-0.101318 -0.00429011 -0.321442)
(-0.114676 -0.0605966 0.0899226)
(-0.155526 -0.0116619 -0.033172)
(-0.189307 -0.0663582 0.196398)
(-0.029416 -0.049541 -0.12771)
(-0.164671 -0.0304516 -0.165776)
(-0.182176 -0.0568859 0.075714)
(-0.164953 -0.0050867 0.198681)
(-0.102482 0.0328252 0.00194447)
(0.0458383 -0.0133038 -0.148821)
(-0.0339576 0.000168511 -0.00406666)
(-0.00376408 0.0604873 -0.144461)
(-0.0521013 -0.00274322 -0.0541094)
(-0.00176977 0.0234715 -0.102815)
(-0.0240334 0.0849909 -0.166621)
(-0.142609 0.0439912 -0.244071)
(-0.0879007 0.0667896 -0.13445)
(-0.0263427 0.105663 -0.125343)
(-0.0929839 -0.0206531 0.383444)
(-0.124371 0.0177697 -0.287938)
(-0.131365 -0.0324515 -0.292947)
(-0.192377 0.0200181 -0.258327)
(-0.17104 -0.0373131 0.414192)
(-0.0590042 -0.0239819 -0.0413558)
(-0.226246 -0.0198892 0.0298464)
(-0.105769 -0.0277383 -0.0269565)
(-0.085859 0.0421255 -0.100432)
(-0.0287651 0.00469323 -0.0827871)
(-0.196513 -0.000497318 -0.0140009)
(-0.0800722 -0.00254285 -0.067633)
(-0.0411421 -0.0433292 0.001151)
(-0.0238042 -0.0194556 -0.0303257)
(-0.0194679 0.100123 -0.142861)
(-0.00365955 0.0535171 0.015988)
(-0.0159921 0.0751157 -0.0436196)
(-0.143648 0.096177 -0.196016)
(-0.00233257 0.0590953 0.0415845)
(-0.0645108 0.103352 -0.0434511)
(-0.064378 -0.0446212 0.028562)
(-0.0153555 -0.0294178 0.0699569)
(-0.0194984 -0.0241214 -0.0132061)
(-0.0306685 -0.0202092 0.0002156)
(-0.00687675 -0.0181443 0.0478207)
(0.00288336 -0.00678593 0.104153)
(0.00185166 -0.0482343 0.187781)
(0.000112632 0.000547932 0.0997741)
(-0.00301382 -0.0448018 0.142372)
(-0.0226229 -0.0834593 0.197797)
(-2.10191e-05 -0.022257 0.0421401)
(-0.0553902 -0.0286815 0.0683644)
(-0.00556003 -0.0137399 0.0212745)
(0.000139931 -0.0129111 0.0354026)
(-0.0172253 -0.00514354 0.0530342)
(0.0169841 -0.0442571 0.215983)
(-0.0327139 -0.0854643 0.200263)
(-0.0244382 -0.0965383 0.275828)
(0.00565149 -0.000670428 0.189389)
(-0.025935 -0.0648126 0.212702)
(-0.0253372 -0.100554 0.243119)
(-0.0376674 -0.129603 0.317665)
(-0.0286341 -0.0562859 0.198453)
(-0.0376249 -0.0887432 0.247746)
(-0.0504606 -0.0295244 0.0585451)
(-0.11686 0.00305394 0.0753535)
(-0.0414981 0.026502 0.0655546)
(-0.0826691 0.0194351 0.0890463)
(-0.0436937 0.0135724 0.0781428)
(-0.0767022 0.00772213 0.114235)
(-0.037109 0.022859 0.0969126)
(-0.0137352 0.00552537 0.0672375)
(-0.0574785 -0.0483416 0.168072)
(-0.0504247 -0.0506774 0.205563)
(-0.0976767 -0.11312 0.150326)
(-0.0620979 -0.0455246 0.177077)
(-0.0705124 -0.0680334 0.239566)
(-0.0812321 -0.114889 0.241877)
(-0.0426882 -0.0626232 0.253483)
(-0.0660474 -0.0482157 0.116493)
(-0.0493638 -0.0301854 0.16141)
(-0.0665924 -0.0884183 0.220155)
(-0.0649553 -0.035079 0.179526)
(-0.0260797 -0.0387499 0.227544)
(-0.0545559 0.0124225 0.120991)
(-0.118133 -0.00471858 -0.318169)
(-0.14239 -0.0793947 -0.300657)
(-0.0150452 -0.0326158 -0.180147)
(-0.113229 -0.0660279 -0.289148)
(-0.107466 -0.0801195 -0.0420661)
(-0.1085 -0.0359735 -0.639443)
(-0.0639182 -0.0447017 -0.302218)
(-0.0189379 -0.0908828 -0.241992)
(0.045613 -0.0051582 -0.172067)
(0.019346 0.0486443 -0.220107)
(0.0194341 0.01094 -0.300248)
(0.0490624 -0.0468563 -0.267382)
(0.0433187 0.00606246 -0.255588)
(0.0189836 0.0343968 -0.156489)
(0.0356551 0.0302166 -0.198569)
(-0.232527 0.0138707 -0.285765)
(0 0 0)
(-0.111924 -0.0758192 -0.306837)
(-0.218665 0.00297811 -0.215109)
(-0.296038 0.00912401 0.128742)
(-0.183924 -0.056797 -0.195608)
(-0.12545 -0.0919472 -0.249437)
(-0.196641 0.00779221 -0.121963)
(-0.152083 0.0066736 -0.0740474)
(0.000942653 0.0195311 -0.112118)
(-0.131074 0.0438867 -0.079789)
(-0.0454847 0.032144 -0.0991808)
(0.0220493 0.0409087 -0.183993)
(0.0180492 0.0364445 -0.138577)
(-0.0400833 0.0527822 -0.155558)
(-0.0141825 0.0417912 -0.123266)
(-0.0126094 0.00331723 -0.0605969)
(-0.0033915 0.0209826 -0.0812723)
(-0.243301 0.0555777 -0.232288)
(0 0 0)
(0 0 0)
(0 0 0)
(0 0 0)
(0 0 0)
(-0.0450637 -0.000718814 -0.0249321)
(-0.00961397 -0.00731824 0.0184035)
(-0.0167081 0.0231079 -0.0641059)
(-0.037224 0.0197104 -0.0499832)
(-0.00692697 0.0108148 -0.0171153)
(-0.0994056 -0.0282812 -0.0616926)
(-0.058828 -0.0999017 0.190796)
(0 0 0)
(-0.127159 0.051654 -0.327581)
(-0.0679534 0.0349936 -0.199738)
(-0.00670874 0.00142597 0.0153462)
(-0.0445251 0.0144491 0.0232463)
(-0.0403449 0.0188205 -0.0367273)
(-0.00905448 0.0127122 -0.0142447)
(-0.038801 0.0262082 -0.0135738)
(-0.0576998 -0.087245 0.189225)
(-0.118372 -0.0646687 0.142903)
(-0.0565996 -0.114134 0.311506)
(-0.0457701 -0.0641173 0.168819)
(-0.0363843 -0.0849287 0.234392)
(-0.106514 -0.0509846 0.199794)
(-0.077917 -0.056503 0.284472)
(-0.0543963 -0.0415508 0.146583)