/*--------------------------------*- C++ -*----------------------------------*\
| =========                 |                                                 |
| \\      /  F ield         | OpenFOAM: The Open Source CFD Toolbox           |
|  \\    /   O peration     | Version:  5.x                                   |
|   \\  /    A nd           | Web:      www.OpenFOAM.org                      |
|    \\/     M anipulation  |                                                 |
\*---------------------------------------------------------------------------*/
FoamFile
{
    version     2.0;
    format      ascii;
    class       surfaceScalarField;
    location    "4.4";
    object      phi;
}
// * * * * * * * * * * * * * * * * * * * * * * * * * * * * * * * * * * * * * //

dimensions      [0 3 -1 0 0 0 0];

internalField   nonuniform List<scalar> 
29271
(
-6.58875e-06
-1.66351e-07
1.35422e-06
5.53305e-06
-1.08605e-05
1.31799e-06
7.37575e-07
9.16461e-06
-4.26978e-05
-5.2713e-06
-4.43352e-06
4.46448e-06
1.15292e-05
3.64089e-05
-4.31427e-05
-9.18934e-06
-4.85545e-06
2.75582e-06
1.92093e-05
3.52224e-05
-4.61597e-05
-5.59885e-06
2.25566e-06
1.3743e-05
3.71665e-05
-1.4066e-06
-3.84108e-05
-5.4158e-06
-4.66311e-06
8.79772e-06
7.39448e-06
3.22975e-05
-5.403e-05
-1.40975e-05
-9.30686e-06
7.3688e-06
1.79802e-05
5.20853e-05
-7.18635e-05
-2.56633e-05
-7.2501e-06
1.08078e-05
2.46182e-05
6.93509e-05
-7.51402e-05
-2.92651e-05
-1.63255e-06
2.28805e-06
2.72491e-05
7.65007e-05
-3.16137e-05
-5.91736e-06
1.30884e-05
2.77953e-05
-3.32156e-06
-1.63856e-05
-3.38039e-06
8.0603e-06
1.17768e-05
-5.26351e-05
-5.60663e-06
-8.40759e-06
6.96741e-06
1.051e-05
4.9172e-05
-7.58946e-05
-1.5844e-05
-1.59828e-05
8.35824e-06
1.02659e-05
8.90973e-05
-4.35274e-05
-1.44123e-05
-2.47077e-06
1.04775e-05
1.50565e-05
3.48765e-05
-6.6081e-05
-2.72484e-05
-1.34448e-05
5.43971e-06
1.80061e-05
8.33284e-05
-5.59751e-05
-4.44951e-06
-1.27804e-06
8.23388e-07
6.17669e-05
-8.8764e-07
-4.75302e-05
-4.34012e-06
1.60852e-06
2.02145e-06
5.31961e-05
-4.95572e-06
-8.62493e-05
-4.788e-06
-1.12462e-05
2.21522e-06
-2.77114e-06
0.000102839
-5.80525e-05
-1.40719e-05
-1.05996e-05
2.4607e-06
-3.4414e-07
8.06074e-05
-6.54094e-05
-3.41408e-06
-7.50644e-06
6.58828e-05
2.64607e-06
7.80105e-06
-1.09908e-05
2.45234e-06
6.85085e-07
7.92096e-06
-2.3262e-05
8.09505e-07
5.48778e-07
2.11351e-05
7.86494e-07
-6.98509e-05
-5.42404e-06
-4.52127e-07
-7.14472e-06
6.40204e-05
1.88514e-05
-7.18772e-06
3.01688e-06
1.24932e-06
3.0264e-06
-3.47506e-06
-5.60249e-07
2.73532e-06
1.36139e-06
-5.53827e-06
3.50615e-06
2.0155e-06
1.05418e-07
-6.49271e-06
-8.00008e-06
-3.86758e-05
2.63642e-06
1.23671e-06
4.92954e-05
3.23733e-07
-3.1599e-05
-5.38268e-07
3.74474e-06
-5.28328e-06
3.3352e-05
-3.96246e-05
-3.48167e-06
1.8311e-06
-1.01764e-06
4.67488e-05
-4.45604e-06
-8.86755e-06
8.63263e-07
-3.51165e-05
-7.61628e-06
8.70824e-06
4.20288e-05
-1.25151e-05
5.3967e-06
0.000267541
-5.08572e-05
-6.35499e-05
-9.25308e-05
-8.72499e-05
2.34785e-06
-7.24218e-07
6.47393e-06
4.32771e-06
4.59497e-06
6.44759e-06
2.83576e-06
7.4619e-06
2.05428e-05
1.60905e-05
0.000201346
-5.30642e-05
-9.63307e-05
-6.65366e-05
-3.88865e-05
-9.29789e-08
-8.03488e-07
2.68797e-06
2.53207e-06
7.62975e-06
1.03955e-05
0.000153604
-8.48625e-07
-4.1846e-07
4.98033e-06
7.31233e-06
8.95843e-06
6.37748e-06
6.32451e-06
-6.05145e-05
-2.44282e-05
-2.8862e-05
-6.9968e-05
-3.08263e-05
3.74661e-06
-2.76472e-06
3.74106e-05
-7.07568e-06
-1.0632e-06
3.66508e-06
4.47627e-06
6.94425e-06
-4.75701e-05
-7.65613e-06
-1.03845e-05
9.02151e-06
4.9645e-05
-1.04828e-06
3.91512e-05
0.000180915
-8.39076e-05
-7.68707e-05
-4.89383e-05
-3.0728e-05
3.98826e-06
2.53339e-06
9.37359e-06
1.09283e-05
2.71415e-05
2.20608e-05
0.000137011
-2.65435e-05
-3.46403e-05
-3.34439e-05
-7.65438e-05
1.06624e-05
1.53136e-06
0.000338985
1.01375e-05
1.33541e-05
1.60611e-05
5.8398e-06
9.03342e-06
1.03713e-05
-8.91888e-05
-8.9276e-05
-0.000117314
-8.26597e-05
-7.21295e-05
-2.33844e-06
-2.4885e-06
-4.00268e-07
8.80191e-05
-7.8327e-05
3.42203e-06
-8.22046e-06
-7.22457e-06
9.36009e-05
-3.25088e-06
-1.23871e-06
6.61651e-06
0.000246578
6.61364e-06
8.49718e-06
1.08253e-05
7.69555e-06
4.00122e-06
7.90873e-06
7.67965e-06
-9.98096e-05
-5.65188e-05
-3.81384e-05
-7.15594e-05
-8.94057e-07
2.75669e-06
0.000359607
3.19305e-06
5.77604e-06
1.31486e-05
1.93062e-06
7.71483e-06
4.54018e-06
-9.49699e-05
-0.000118944
-0.000120151
-4.28858e-05
-5.91305e-05
3.82817e-06
6.5698e-06
4.93699e-05
-9.24442e-06
-8.59096e-07
-2.46485e-06
1.21887e-05
-2.69967e-05
-7.41481e-07
-3.47566e-06
3.77925e-05
-4.91215e-05
5.65895e-07
1.13489e-06
8.45049e-07
4.93324e-05
-5.23406e-06
-1.87386e-06
-3.79781e-06
1.07056e-05
-2.3019e-08
-2.00265e-06
3.07316e-06
-1.0595e-06
2.04224e-06
-1.36724e-06
9.67279e-07
-1.77984e-06
-2.41676e-06
-5.04436e-06
-5.49023e-05
1.47772e-05
7.29471e-07
4.68567e-05
-4.11374e-06
-4.27197e-05
-1.57095e-05
1.31404e-05
1.53998e-06
4.78625e-05
-5.43029e-05
-8.91503e-06
8.49292e-06
4.47707e-06
6.07013e-05
-1.04534e-05
-2.25886e-06
9.22042e-06
-4.03018e-05
-1.2498e-06
3.00061e-06
3.15894e-05
1.45633e-05
1.21219e-05
0.000247438
1.22981e-06
-8.30223e-07
-2.60741e-06
-2.83377e-06
-3.91278e-07
-1.09104e-06
-1.14901e-06
1.09018e-06
2.72047e-05
1.73794e-05
0.000186991
-2.87124e-06
-2.48912e-06
-6.08143e-06
-4.22391e-06
4.33483e-07
1.07109e-05
0.000198469
-5.64561e-06
-2.18395e-06
-9.23931e-06
-7.0785e-06
6.58518e-07
-2.70932e-06
-2.60599e-06
-3.90977e-05
4.20579e-06
-2.24109e-06
3.75411e-05
-3.50156e-06
2.69892e-07
-4.2241e-07
3.67214e-06
6.27403e-06
-4.47446e-05
-6.73472e-06
-2.09098e-06
1.21896e-05
3.51067e-05
1.24455e-05
2.02802e-05
0.000154899
-3.49331e-08
2.07456e-06
1.35382e-06
2.01842e-06
1.72761e-05
1.22883e-05
0.000137272
2.87376e-06
4.4602e-06
0.000332727
6.28008e-06
1.69706e-06
3.69361e-06
5.31162e-06
5.09308e-06
4.83564e-06
-0.000105359
-1.12305e-06
-2.7945e-06
4.44308e-06
0.000107708
-0.000107186
4.14941e-07
-5.86885e-06
-4.58662e-06
0.000121419
-4.19244e-06
1.02403e-05
3.35885e-06
0.000235778
2.0212e-06
1.11649e-06
1.77844e-06
-5.908e-07
3.50217e-06
4.55221e-06
5.10217e-06
2.9259e-06
2.63013e-06
0.000345137
8.52356e-06
4.76263e-06
7.47697e-06
3.37512e-06
2.58344e-06
4.72085e-06
-5.02648e-05
2.58651e-07
6.66259e-06
5.07297e-05
-1.92072e-05
-9.77047e-06
5.72569e-06
2.31944e-05
-4.00106e-05
-2.37574e-06
5.92028e-06
3.974e-05
-6.06841e-05
-4.99615e-06
8.09188e-06
-5.01574e-07
6.07201e-05
-1.86886e-05
-1.33786e-06
-3.54413e-06
2.35653e-05
9.72574e-07
-3.85268e-07
-7.0802e-07
3.90459e-08
1.25096e-06
-1.22665e-06
1.59528e-07
-3.286e-07
2.5576e-06
4.02585e-06
-2.807e-05
5.81204e-06
6.55742e-06
9.11713e-06
8.18723e-07
-4.20655e-05
-2.03395e-05
3.39866e-05
6.50677e-06
2.10929e-05
-7.21589e-05
-7.08545e-06
1.67752e-05
8.25558e-06
8.7035e-05
-3.28215e-05
-2.61602e-06
8.85275e-06
-2.06184e-05
-4.00431e-06
4.45604e-06
1.39299e-05
2.12503e-05
6.45396e-05
0.00018948
-1.50843e-05
-1.58963e-05
-8.47767e-06
-7.02274e-06
3.47512e-06
2.36669e-06
4.93248e-06
7.87516e-06
5.33453e-05
5.29931e-05
0.000137969
-1.64188e-05
-1.13581e-05
-4.33638e-06
-3.95244e-06
3.18439e-07
2.96485e-05
0.000256855
-1.19868e-05
-1.05209e-05
-7.10332e-06
-8.92973e-06
-2.46858e-07
2.26845e-06
1.51144e-06
-3.56452e-05
-1.24873e-06
-8.04254e-07
3.79957e-05
-4.19997e-06
-2.07107e-06
1.37289e-06
4.92428e-06
-3.39395e-06
-3.37518e-05
-6.37623e-06
-2.73977e-08
4.53223e-06
3.90171e-05
4.18048e-06
3.31601e-05
0.000179038
7.30009e-07
-1.95757e-06
5.29874e-06
-1.01136e-06
2.02983e-06
2.1717e-05
0.000170699
-3.69865e-06
4.50652e-07
0.000370842
-2.38153e-06
-2.85006e-06
-3.0019e-06
1.55103e-06
2.30139e-06
1.19241e-06
-0.000106793
-1.62692e-06
-2.59228e-06
5.29705e-06
0.000102017
-0.000129664
7.48188e-07
3.78186e-06
-5.02086e-07
0.000126302
-6.66568e-07
3.3598e-06
4.83384e-06
0.000267351
-4.40485e-06
-3.72022e-06
-3.69329e-06
-4.01444e-06
3.32103e-06
3.85904e-06
2.04533e-06
6.81354e-08
2.40517e-06
0.00034566
3.60723e-06
2.19342e-06
2.88597e-06
3.07866e-06
4.31327e-06
6.00204e-06
-5.45153e-05
-9.93933e-07
3.65274e-06
5.23752e-05
-2.60822e-05
-9.41467e-06
7.72577e-06
2.77461e-05
-4.35207e-05
-1.736e-06
1.84449e-07
4.99013e-05
-5.67181e-05
1.82633e-07
2.90155e-06
1.68162e-06
5.43574e-05
-2.86692e-05
-4.00451e-06
1.22132e-06
3.14616e-05
-3.70902e-07
-6.79199e-08
6.35524e-07
-1.87547e-07
-6.05265e-07
-6.87416e-07
-1.41757e-07
1.23264e-06
-1.87863e-07
6.39133e-07
-6.34082e-06
-3.92831e-07
-1.34956e-06
7.63193e-06
-3.09457e-07
-1.32369e-05
7.07668e-07
-1.73904e-06
-1.6577e-06
1.62354e-05
-9.04268e-05
-8.79904e-07
9.39881e-06
3.71492e-06
8.51607e-05
-6.96777e-06
1.8083e-06
1.96265e-06
-1.16488e-05
-2.79436e-06
3.82876e-07
1.02894e-05
-1.58998e-06
1.72813e-05
0.000131714
1.27741e-06
1.32523e-06
9.63461e-06
1.0188e-05
1.58832e-06
5.47008e-06
3.71009e-06
8.88075e-06
9.23363e-06
1.01744e-05
9.22726e-05
1.67858e-06
1.40158e-06
1.14992e-05
1.01187e-05
4.91869e-06
1.48543e-05
0.000226151
-1.99976e-06
-4.63116e-06
4.97499e-06
-1.11915e-06
4.49211e-06
9.42404e-06
9.02378e-06
-4.16762e-05
-2.14114e-06
1.67506e-06
4.70463e-05
-5.91775e-06
-1.6341e-06
-8.7957e-07
8.4365e-06
-7.11175e-06
-4.8467e-05
1.93051e-06
3.57835e-06
-5.26221e-06
5.53321e-05
-1.97495e-05
1.9346e-05
0.000207039
-1.3073e-07
-5.74823e-06
1.16162e-06
-5.59837e-06
-2.00757e-05
2.1415e-05
0.000159784
1.98544e-06
3.96694e-06
0.000320397
1.62711e-06
6.61126e-06
7.25246e-06
4.8084e-06
1.07054e-05
8.2667e-06
-9.82871e-05
-2.57873e-06
1.96949e-06
3.25774e-06
9.7624e-05
-0.000112676
3.83223e-06
1.01774e-05
9.31444e-06
8.9305e-05
4.6707e-08
-1.37298e-05
1.5882e-06
0.000307572
-6.16483e-06
-1.37793e-06
-4.44594e-06
7.83356e-07
1.15396e-07
1.63095e-06
7.25611e-07
-3.75193e-06
4.0429e-06
0.000347579
-1.47397e-06
-3.18114e-06
-2.77025e-06
3.90093e-06
4.51208e-06
4.48719e-06
-5.58097e-05
-5.66141e-06
2.46293e-06
5.92232e-05
-2.73881e-05
-5.13625e-06
6.94408e-06
2.55611e-05
-5.43016e-05
3.8118e-06
-3.79776e-06
5.58745e-05
-5.69272e-05
1.25504e-06
-3.41119e-06
9.50161e-07
6.21761e-05
-3.27447e-05
-5.93359e-06
4.93832e-06
3.373e-05
-1.88708e-07
1.76692e-07
-1.49807e-06
1.51538e-06
-3.5805e-06
1.47311e-07
-3.08024e-06
6.51331e-06
1.86817e-06
1.40258e-06
-1.39995e-05
-2.2508e-06
-3.16317e-06
1.61427e-05
2.37001e-06
-2.39357e-05
5.87267e-06
-9.30961e-06
-3.8551e-06
2.88577e-05
-8.23417e-05
4.42294e-07
-7.16772e-06
3.29324e-07
7.71485e-05
1.15893e-05
6.40352e-06
-2.60695e-07
-1.24272e-05
-2.23822e-07
-9.11219e-06
1.56204e-05
-1.4309e-05
-1.75608e-05
0.000159786
4.28565e-06
2.6058e-06
-3.89882e-07
-3.86459e-07
-2.96349e-08
1.96994e-07
-1.258e-06
-1.2261e-06
-2.74803e-05
-1.61252e-05
0.000101761
5.45038e-06
5.88264e-06
3.94118e-06
4.53404e-06
7.83658e-06
2.04409e-06
0.000159452
4.08797e-06
9.22064e-07
6.63349e-06
5.64521e-07
6.17331e-06
5.11126e-06
5.8447e-06
-5.29222e-05
-1.09662e-06
1.6062e-05
-1.2121e-05
5.79144e-05
-7.63789e-07
4.8082e-10
-1.89818e-08
7.78799e-07
-1.32038e-05
2.81788e-08
-4.93642e-06
1.808e-05
-1.8795e-06
-5.59334e-05
4.64445e-06
2.25028e-06
-2.35169e-06
5.32699e-05
-2.29194e-05
-1.17744e-05
0.000230215
-1.84633e-07
-6.46083e-06
2.82445e-06
-2.22231e-06
-2.27104e-05
6.70828e-06
0.000136742
9.60475e-06
8.01585e-06
0.000228398
8.01565e-06
8.21959e-06
7.53982e-06
7.88965e-06
1.30083e-05
9.03865e-06
-9.85095e-05
-5.28103e-07
1.9493e-05
1.41551e-05
7.49942e-05
2.7975e-08
-2.01775e-06
4.24384e-08
2.7764e-08
1.91568e-06
-7.1023e-05
1.27702e-06
2.57819e-06
4.04927e-06
6.65816e-05
-3.46306e-06
-1.45374e-05
5.03591e-07
0.000305253
-4.3553e-06
1.43905e-06
1.69175e-06
4.03214e-06
-5.30753e-07
1.37482e-06
9.26711e-07
-4.67037e-06
2.23233e-06
0.000344933
-4.12101e-06
-1.54713e-06
-3.55631e-06
2.31682e-06
2.54867e-06
1.61458e-06
-6.48554e-05
-2.34472e-06
6.74081e-06
6.38048e-05
-3.02611e-05
-2.96588e-06
7.30539e-07
3.24401e-05
-5.67335e-05
4.00371e-06
-3.36201e-06
5.65889e-05
-6.83492e-05
2.07724e-06
-4.6361e-06
1.19681e-06
7.19436e-05
-3.69654e-05
-6.89833e-06
4.72753e-06
3.91254e-05
-2.38567e-06
-1.09449e-06
4.64088e-07
3.01607e-06
-9.24134e-06
1.14782e-06
-3.92067e-06
1.20142e-05
3.42638e-06
1.29701e-06
-1.62379e-05
-3.93958e-06
-1.85495e-06
1.73091e-05
2.11461e-06
-3.37224e-05
7.72079e-06
-1.15272e-05
-3.18194e-06
3.85961e-05
-6.74158e-05
4.49533e-06
-2.26065e-06
-2.62638e-06
5.69087e-05
1.08988e-05
4.84716e-06
1.76143e-06
-1.55855e-05
-2.25557e-06
-5.55049e-06
1.6783e-05
-1.08006e-05
-3.76281e-05
0.000184918
2.0504e-06
1.78287e-06
4.79946e-06
6.15005e-06
1.15902e-06
3.23889e-07
3.91292e-06
3.11781e-06
-1.49999e-05
-1.07174e-05
0.000102512
3.11653e-06
2.64653e-06
4.35775e-06
4.04472e-06
5.93491e-06
-7.50216e-06
0.000119225
4.59394e-06
1.61092e-06
5.64802e-06
2.638e-06
4.13906e-06
4.84001e-06
3.32458e-06
-6.05109e-05
7.8886e-06
1.76332e-05
-3.62299e-06
4.4547e-05
-4.76772e-06
2.13697e-06
-5.58992e-06
-1.4529e-06
-5.24728e-07
1.01983e-05
-1.96882e-05
2.72314e-06
-4.2233e-06
2.11883e-05
5.26718e-06
-4.78006e-05
5.7547e-06
-3.00586e-06
-1.18223e-06
4.09668e-05
-7.83418e-06
-2.67591e-05
0.000221803
1.15747e-06
-3.02707e-06
4.65666e-06
2.59074e-06
-1.14918e-05
-1.05168e-05
0.000140199
6.05262e-06
7.66733e-06
0.000147558
1.03114e-05
6.78583e-06
1.07946e-05
6.58854e-06
7.89311e-06
5.7523e-06
-6.2062e-05
-7.69385e-08
1.03936e-05
5.92723e-06
5.18707e-05
-7.63849e-06
-7.28707e-07
-6.19993e-06
-7.34082e-07
2.58917e-06
1.2712e-05
-6.87767e-05
3.34723e-06
-3.7095e-06
-4.95991e-06
7.25964e-05
1.50248e-06
-6.21188e-06
6.36648e-07
0.000267549
1.97315e-07
4.23952e-06
4.9322e-06
5.25387e-06
1.37087e-08
8.56427e-07
1.02753e-06
-2.82583e-06
-8.78796e-07
0.00033947
-3.10669e-06
6.75821e-07
-2.72397e-06
-5.29641e-07
-1.08398e-06
-7.92932e-07
-6.82424e-05
-5.02454e-07
6.00979e-06
6.75765e-05
-2.88124e-05
-1.63017e-05
-3.96824e-06
8.64502e-06
4.04336e-05
-2.4111e-06
1.50926e-07
-9.19402e-07
3.17762e-06
-5.60938e-05
3.29839e-06
-7.14428e-07
5.41435e-05
-7.64761e-05
1.54864e-06
-3.46431e-06
-8.70343e-08
7.76e-05
-4.04788e-05
-3.3204e-06
3.34112e-06
4.04531e-05
-3.75587e-06
-2.3499e-06
1.59017e-06
4.5156e-06
-1.45615e-05
1.4815e-07
-2.24389e-06
1.66572e-05
3.97807e-06
1.71649e-06
-1.95678e-05
-4.21858e-06
-4.1213e-06
2.22131e-05
2.58975e-06
-4.24002e-05
6.57225e-06
-7.86911e-06
-3.27271e-06
4.438e-05
-5.42924e-05
-1.98e-06
-2.04184e-06
-2.63354e-06
5.48089e-05
6.13888e-06
2.66454e-06
9.12382e-07
-1.96119e-05
-2.66312e-06
-3.93966e-06
2.26377e-05
1.61109e-06
-2.67889e-05
0.000176895
4.80745e-06
5.13918e-06
5.55827e-06
6.48932e-06
2.987e-06
2.05754e-06
3.13388e-06
3.0274e-06
4.01185e-07
-8.10892e-06
0.000103458
1.86396e-06
1.58413e-06
2.42381e-06
2.50049e-06
3.08993e-06
-4.94641e-06
0.000118138
3.01779e-06
1.24132e-06
2.7313e-06
1.05632e-07
1.47994e-06
-2.74948e-06
-2.48222e-06
-4.39552e-05
1.98763e-06
3.11106e-06
-2.83679e-07
4.22301e-05
-1.46032e-05
2.41504e-07
-1.82757e-06
-6.19385e-07
-6.87166e-07
1.74958e-05
-2.27308e-05
3.29453e-06
-4.36518e-06
2.38014e-05
5.35778e-06
-3.85703e-05
4.96076e-06
-6.41954e-06
-4.23544e-06
3.89067e-05
6.49381e-06
-1.37573e-05
0.00019076
3.25035e-06
1.17153e-06
3.8795e-06
3.21531e-06
3.05825e-06
-2.43844e-05
0.00015991
3.63057e-06
2.41852e-06
0.000130156
6.98918e-06
-8.8463e-07
1.05798e-06
1.12733e-06
1.34131e-06
-1.65885e-07
-5.16822e-05
-6.28097e-07
3.45584e-06
9.71234e-07
5.15138e-05
-1.36102e-05
-2.7522e-07
-1.18551e-06
8.06209e-07
3.75149e-06
1.05133e-05
-7.86481e-05
5.36077e-06
-8.32142e-06
-7.88594e-06
8.41671e-05
5.32755e-06
-1.62478e-06
-1.67323e-07
0.000240721
2.75144e-06
4.31242e-06
4.77441e-06
4.36291e-06
-6.91511e-07
7.80179e-08
-7.24923e-07
-1.29552e-06
-4.15111e-06
0.000332687
-2.54415e-06
1.60468e-06
-1.86439e-06
-3.51558e-06
-4.07539e-06
-3.38455e-06
-7.09478e-05
-3.29733e-07
2.58519e-06
6.98154e-05
-4.5229e-05
-1.44759e-06
-2.63961e-06
3.36675e-06
4.59462e-05
-5.96218e-06
-2.63999e-06
-5.61803e-06
4.74442e-06
9.47578e-06
-5.20815e-05
2.74722e-06
-9.77958e-07
5.01339e-05
-7.79518e-05
1.09118e-07
-4.11481e-07
-8.48702e-07
7.49518e-05
-4.05857e-05
-1.64961e-06
1.5273e-06
4.06991e-05
-5.27256e-06
-2.82756e-06
2.08297e-06
6.01715e-06
-1.85384e-05
-2.65129e-07
-1.4686e-06
2.02722e-05
3.7561e-06
1.68197e-06
-2.47823e-05
-3.05507e-06
-4.51437e-06
2.69136e-05
1.66958e-06
-4.60081e-05
4.85932e-06
-5.79669e-06
-1.88874e-06
4.71646e-05
-5.44995e-05
-2.37213e-06
-1.53875e-06
-1.26001e-08
5.34863e-05
4.93665e-06
1.25537e-06
5.39814e-07
-2.57748e-05
-2.04719e-06
-1.95815e-06
2.79849e-05
1.6546e-06
-1.35436e-05
0.00016396
4.55038e-06
4.0881e-06
4.1764e-06
4.66421e-06
2.21651e-06
1.42592e-06
2.02166e-06
1.68181e-06
-4.97983e-06
-6.58414e-06
0.000113169
4.02629e-07
5.67963e-07
1.05068e-06
1.48667e-06
-4.64157e-06
-1.61729e-06
0.000142524
1.15452e-06
-2.26679e-08
1.92482e-06
-9.54066e-07
-4.05756e-06
-1.19028e-05
-9.24881e-06
-5.61094e-05
1.05568e-05
-7.02836e-06
-3.52541e-06
5.14648e-05
-1.25668e-05
4.51823e-06
1.9889e-06
-7.46111e-07
6.8058e-06
-2.445e-05
3.29716e-06
-3.63476e-06
2.47866e-05
3.85891e-06
-3.94717e-05
2.72149e-06
-3.0957e-06
-3.99897e-06
3.9986e-05
-3.52437e-07
-1.28024e-05
0.000184673
2.13535e-06
1.27937e-06
7.59857e-07
1.52438e-06
-4.7857e-06
-2.30262e-05
0.000180785
-3.2983e-06
-5.42352e-07
0.000150537
-1.80641e-06
-8.54912e-06
-9.67702e-06
-4.0702e-07
-2.29943e-08
-2.48069e-06
-5.34127e-05
-4.47783e-07
-4.85523e-06
1.79635e-06
5.3621e-05
-8.68043e-06
3.7347e-06
2.75311e-06
-3.47453e-07
-4.72293e-06
7.263e-06
-8.76224e-05
5.2664e-06
-5.46967e-06
-8.33353e-06
8.94363e-05
6.72293e-06
-9.66536e-06
-1.8855e-06
0.000236364
3.32151e-06
4.22688e-06
3.98894e-06
3.2009e-06
-3.27199e-06
-3.41194e-06
-4.94932e-06
-1.45078e-06
-5.22823e-06
0.000323691
-2.66511e-06
8.13244e-07
-2.27582e-06
-4.45251e-06
-4.25672e-06
-4.17977e-06
-7.21854e-05
-8.6079e-07
-3.4896e-07
7.1402e-05
-3.83136e-05
-6.57084e-06
3.92196e-07
4.44944e-05
-4.88536e-05
4.20063e-06
-3.04093e-06
4.57991e-05
-7.16088e-05
1.10026e-06
1.51499e-06
-1.22142e-06
6.49868e-05
-4.07339e-05
-3.49716e-07
3.32527e-07
4.0741e-05
-6.66817e-06
-2.63711e-06
2.20159e-06
7.10368e-06
-2.18379e-05
-3.14999e-07
-1.14071e-06
2.32936e-05
2.55121e-06
1.32583e-06
-2.81646e-05
-1.40191e-06
-2.68329e-06
2.83727e-05
1.09526e-06
-4.83254e-05
3.44875e-06
-4.38097e-06
-9.57814e-07
4.91201e-05
-5.29228e-05
-2.86488e-06
-1.74192e-07
1.03681e-06
5.16903e-05
3.23485e-06
3.05633e-07
3.10897e-07
-2.95831e-05
-1.52876e-06
-4.16887e-07
3.09122e-05
9.531e-07
-7.74288e-06
0.000156631
2.39435e-06
2.15531e-06
3.98957e-07
2.36543e-06
1.92327e-06
6.54693e-07
2.34709e-06
1.87941e-06
-6.39451e-06
-6.53398e-06
0.000126034
-5.66174e-07
-3.28991e-08
4.96157e-07
1.11913e-06
-1.27338e-05
-5.88697e-07
0.000177602
4.28308e-07
-8.54204e-07
2.16268e-06
-4.40876e-08
-1.10365e-05
-9.41374e-06
-9.3919e-06
-5.78496e-05
2.95548e-07
-8.06515e-06
5.28854e-05
-2.50341e-05
2.96143e-06
-3.21404e-06
2.52867e-05
2.48587e-06
-4.05522e-05
1.1726e-06
-9.52378e-07
-3.6494e-06
4.14955e-05
-4.77569e-06
-1.06827e-05
0.00018883
4.25945e-08
5.18325e-07
1.09975e-06
1.89801e-06
-9.65283e-06
-2.01906e-05
0.000199319
-1.10291e-05
-1.65137e-06
0.000183608
-1.10918e-05
-9.74887e-06
-7.72396e-06
-1.84335e-06
5.70053e-07
-7.94628e-07
-7.92651e-05
9.01561e-07
-1.40732e-05
2.87759e-06
7.85301e-05
-9.04242e-05
4.60705e-06
-4.46134e-06
-6.717e-06
9.06818e-05
6.31374e-06
-1.06311e-05
-3.23184e-06
0.00023996
2.10939e-06
3.05513e-06
3.5172e-06
3.00754e-06
-4.72481e-06
-3.21102e-06
-4.16876e-06
-1.56804e-06
-4.06345e-06
0.000312256
-2.34993e-06
1.24444e-06
-1.61409e-06
-4.36419e-06
-2.71608e-06
-3.95551e-06
-7.39486e-05
-7.91242e-08
-1.72878e-06
7.25371e-05
-4.46774e-05
6.41205e-06
8.22322e-07
3.74432e-05
-4.21554e-05
4.32023e-06
-4.81436e-06
3.94221e-05
-5.79998e-05
2.11229e-06
4.58821e-07
-8.24226e-09
5.13735e-05
-3.99227e-05
7.93725e-07
7.20019e-07
3.8397e-05
-7.28431e-06
-2.02766e-06
2.09256e-06
7.21942e-06
-2.46311e-05
9.04662e-08
-1.33569e-06
2.58763e-05
5.15714e-07
9.66807e-07
-2.75156e-05
-1.22913e-06
9.12714e-07
2.63495e-05
1.53713e-07
-5.0189e-05
2.97343e-06
-3.51533e-06
-2.62073e-07
5.08393e-05
-5.08385e-05
-3.2231e-06
4.76534e-07
1.88172e-06
4.97467e-05
1.95673e-06
4.52181e-07
5.94308e-08
-3.26276e-05
-1.65804e-06
-8.27708e-07
3.46017e-05
2.66382e-06
-4.20187e-06
0.000153631
-1.29561e-06
-1.71782e-07
-1.5314e-06
2.7805e-07
2.10901e-06
8.25802e-07
2.33558e-06
1.98782e-06
1.17654e-07
-5.00709e-06
0.000133599
-9.24687e-07
-2.79646e-07
2.64831e-07
9.28113e-07
-7.01123e-06
1.6686e-06
0.000190993
1.14574e-07
-3.52272e-07
1.57575e-06
-2.71846e-07
-2.66261e-06
-5.56321e-06
-7.72083e-07
-4.92771e-05
-1.37481e-06
-3.38828e-06
4.70289e-05
-2.55116e-05
2.88408e-06
-3.08847e-06
2.5716e-05
2.22192e-06
-4.2899e-05
1.40337e-06
-1.04304e-06
-3.80695e-06
4.41237e-05
-4.72232e-06
-4.52216e-06
0.000186951
5.04115e-07
1.02852e-06
2.42772e-06
2.96107e-06
-1.79977e-06
-1.57259e-05
0.000207115
-2.58929e-06
-1.16964e-06
0.000194855
-5.04232e-06
-6.70597e-07
-3.75299e-06
9.93634e-08
1.20321e-06
5.44657e-07
-7.25608e-05
5.23442e-07
-3.70849e-07
-5.60756e-07
7.03797e-05
-9.09315e-05
4.37654e-06
-4.12821e-06
-5.87669e-06
9.08232e-05
5.7366e-06
-8.68802e-06
-2.08621e-06
0.000240093
2.06622e-06
2.89144e-06
3.87513e-06
3.07507e-06
-2.52558e-06
-1.47279e-06
-1.79028e-06
-1.26236e-06
-2.13293e-06
0.000301126
-1.72124e-06
1.25779e-06
-1.42214e-06
-3.53059e-06
-1.37677e-06
-3.09542e-06
-7.46556e-05
1.63716e-06
-1.63381e-06
7.22202e-05
-3.61229e-05
3.63031e-06
-2.63435e-06
3.51268e-05
-3.73681e-05
3.47311e-06
-4.27181e-06
3.608e-05
-4.57177e-05
2.47099e-06
-1.22139e-06
8.39255e-07
4.1496e-05
-3.66533e-05
1.61261e-06
3.70299e-07
3.46698e-05
-6.90768e-06
-1.18685e-06
1.72728e-06
6.36724e-06
-2.70615e-05
6.61665e-07
-1.83968e-06
2.82395e-05
-4.14944e-07
7.25706e-07
-2.54502e-05
-1.69571e-06
2.16082e-06
2.46743e-05
-1.42956e-08
-5.13639e-05
2.70231e-06
-2.86434e-06
3.04233e-07
5.1236e-05
-4.85377e-05
-2.92173e-06
5.51816e-07
2.71332e-06
4.67313e-05
1.46306e-06
1.13784e-06
-6.09517e-07
-3.69437e-05
-1.17575e-06
-1.76301e-06
3.93541e-05
3.22179e-06
9.73301e-07
0.00015013
-2.12503e-06
-1.80715e-06
-2.079e-06
-9.24325e-07
1.83398e-06
7.66921e-07
1.8922e-06
1.74903e-06
-4.53573e-07
-2.29266e-06
0.000141162
-1.40004e-06
-6.52171e-07
-2.8044e-07
7.38012e-07
-5.24573e-06
2.85136e-06
0.000199793
-4.15751e-07
-7.31599e-07
7.68662e-07
-7.24902e-07
-8.8922e-07
-4.67483e-06
-1.90924e-07
-4.60285e-05
-2.89508e-06
-1.328e-06
4.50059e-05
-2.58702e-05
2.94845e-06
-3.04889e-06
2.59706e-05
2.193e-06
-4.60236e-05
2.09838e-06
-1.69486e-06
-4.23945e-06
4.76665e-05
-4.02217e-06
1.92812e-06
0.000181179
1.24206e-06
1.56928e-06
2.82555e-06
3.20195e-06
4.00416e-07
-1.12521e-05
0.000211652
-8.8409e-07
-8.16324e-07
0.000203241
-3.48053e-06
-1.79276e-07
-3.02611e-06
6.04169e-07
1.65506e-06
9.92368e-07
-7.06903e-05
-1.12293e-07
3.91034e-07
-6.40039e-07
7.01675e-05
-9.08926e-05
3.90679e-06
-3.83291e-06
-4.92483e-06
9.05556e-05
5.18793e-06
-7.26226e-06
-6.0054e-07
0.000239309
1.95824e-06
2.69596e-06
3.70704e-06
2.83617e-06
-6.29705e-07
-1.87953e-07
1.95259e-07
-1.45984e-06
-1.01705e-06
0.000292352
-1.94878e-06
9.77216e-07
-1.79737e-06
-2.41752e-06
-3.36385e-07
-1.7413e-06
-7.42458e-05
1.6387e-06
-1.50964e-06
7.18406e-05
-3.43021e-05
3.74097e-06
-3.41269e-06
3.39746e-05
-3.5328e-05
2.7091e-06
-3.28141e-06
3.53002e-05
-3.90961e-05
2.98179e-06
-2.40822e-06
1.15922e-06
3.63463e-05
-3.22791e-05
9.70618e-07
5.38828e-07
3.07691e-05
-5.86799e-06
1.75676e-07
5.09617e-08
5.64135e-06
-2.93507e-05
1.25343e-06
-2.39408e-06
3.04913e-05
-1.07804e-06
4.45904e-07
-2.41587e-05
-1.87542e-06
2.74933e-06
2.39169e-05
2.96693e-07
-5.08846e-05
2.19421e-06
-2.42757e-06
1.10778e-06
4.97134e-05
-4.48106e-05
-2.70097e-06
1.00893e-07
3.1822e-06
4.28789e-05
1.34961e-06
2.13377e-06
-1.00137e-06
-4.16817e-05
-5.16186e-07
-2.563e-06
4.36285e-05
9.31849e-07
6.62951e-06
0.000146392
-2.65816e-06
-2.54862e-06
-2.43973e-06
-1.48543e-06
1.38745e-06
7.41577e-07
1.36808e-06
1.81082e-06
-2.32104e-06
8.73169e-07
0.000147865
-2.18745e-06
-9.43006e-07
-1.45981e-06
2.66241e-07
-4.43317e-06
4.8111e-06
0.000205366
-1.4466e-06
-1.52587e-06
-1.12251e-07
-1.57373e-06
-2.05647e-07
-3.79769e-06
3.90113e-07
-4.39164e-05
-3.79649e-06
5.64268e-07
4.27155e-05
-2.60276e-05
2.9485e-06
-2.94056e-06
2.60197e-05
2.36251e-06
-4.9318e-05
2.69067e-06
-1.99532e-06
-4.32717e-06
5.05873e-05
-2.82431e-06
7.62815e-06
0.000174168
1.38671e-06
1.62035e-06
2.73256e-06
3.09714e-06
3.58728e-07
-5.3527e-06
0.000214695
-5.37471e-07
-2.93315e-07
0.000210477
-2.94472e-06
-2.66271e-07
-2.59338e-06
9.60358e-07
2.29583e-06
1.31292e-06
-6.96982e-05
-6.05239e-07
1.13128e-06
-4.29565e-07
6.90642e-05
-9.0397e-05
3.65099e-06
-3.588e-06
-4.28245e-06
9.01021e-05
4.51439e-06
-5.65381e-06
6.97011e-07
0.000238464
1.58653e-06
2.26329e-06
3.22001e-06
2.29227e-06
1.22935e-06
1.10003e-06
1.73789e-06
-1.83164e-06
-8.16985e-09
0.000288918
-2.34513e-06
5.85988e-07
-2.36772e-06
-7.83349e-07
-3.44333e-07
-4.78126e-07
-7.34191e-05
1.37094e-06
-8.015e-07
7.07247e-05
-3.41018e-05
3.06677e-06
-3.3064e-06
3.43415e-05
-3.53283e-05
1.95883e-06
-1.6879e-06
3.57544e-05
-3.40143e-05
2.27899e-06
-1.81083e-06
4.29425e-07
3.31085e-05
-2.9275e-05
3.46705e-07
1.31263e-06
2.76194e-05
-5.56296e-06
9.23202e-07
-8.62261e-07
5.50202e-06
-3.1663e-05
1.78868e-06
-2.972e-06
3.28464e-05
-1.42317e-06
3.23567e-07
-2.40179e-05
-1.92486e-06
2.93193e-06
2.41104e-05
-5.68341e-07
-4.84172e-05
2.03362e-06
-2.10978e-06
2.40362e-06
4.66581e-05
-4.18227e-05
-1.01038e-06
-3.5674e-07
2.88124e-06
3.96191e-05
6.89382e-07
3.09485e-06
-1.24367e-06
-4.53968e-05
8.8646e-08
-3.36034e-06
4.68173e-05
-1.55225e-06
1.12488e-05
0.000141825
-3.05258e-06
-2.76206e-06
-2.58357e-06
-1.54359e-06
8.82055e-07
1.09046e-06
8.17224e-07
2.02248e-06
-4.54034e-06
2.45842e-06
0.000156819
-3.39727e-06
-1.82624e-06
-2.40421e-06
-7.96555e-07
-3.63092e-06
7.90956e-06
0.000207317
-2.35266e-06
-2.4824e-06
-1.00602e-06
-2.36192e-06
1.33882e-07
-3.09751e-06
3.96537e-07
-4.15346e-05
-4.69066e-06
2.45917e-06
4.01351e-05
-2.59926e-05
2.95474e-06
-2.91501e-06
2.59529e-05
2.48773e-06
-5.18552e-05
3.14282e-06
-2.25727e-06
-4.18284e-06
5.26647e-05
-2.53302e-06
1.19717e-05
0.000166994
1.45005e-06
1.71078e-06
2.7127e-06
3.11029e-06
-3.42004e-07
-8.90256e-07
0.000215853
-1.07448e-06
5.55338e-07
0.00021794
-2.83837e-06
-7.81629e-07
-2.6537e-06
1.54838e-06
3.01461e-06
2.33421e-06
-6.90278e-05
-1.12084e-06
3.39546e-07
5.34389e-08
6.86812e-05
-8.9943e-05
3.47325e-06
-3.27827e-06
-3.56581e-06
8.94828e-05
3.83103e-06
-4.72209e-06
1.77914e-06
0.00023873
1.13453e-06
1.71981e-06
2.74858e-06
1.81679e-06
2.34082e-06
2.10082e-06
2.78756e-06
-1.96928e-06
-1.71129e-07
0.000289723
-2.52631e-06
4.41179e-07
-1.95773e-06
5.61349e-08
-3.58688e-07
6.87793e-08
-7.20295e-05
1.06246e-06
7.09712e-08
6.94821e-05
-3.43513e-05
2.69117e-06
-2.68253e-06
3.43427e-05
-3.62317e-05
1.10103e-06
-1.50106e-07
3.70599e-05
-3.27699e-05
8.2537e-07
-1.16737e-06
-2.38372e-07
3.31791e-05
-2.67514e-05
-3.15419e-07
2.0149e-06
2.50616e-05
-5.49376e-06
1.03739e-06
-1.14225e-06
5.59862e-06
-3.39919e-05
2.58921e-06
-3.68628e-06
3.5089e-05
-1.05657e-06
2.44372e-08
-2.45411e-05
-1.87055e-06
2.25316e-06
2.51906e-05
3.98873e-07
-4.43086e-05
1.50672e-06
-4.5791e-07
1.93401e-06
4.09269e-05
-3.59035e-05
4.63837e-07
1.44268e-06
2.79229e-06
3.10901e-05
1.14563e-07
3.9931e-06
-1.45867e-06
-4.81208e-05
6.49177e-07
-4.21821e-06
4.91554e-05
-4.79947e-06
1.3737e-05
0.000138916
-3.06904e-06
-2.68801e-06
-2.65204e-06
-1.68182e-06
3.03826e-07
1.2898e-06
2.75491e-07
2.19376e-06
-7.26102e-06
3.37494e-06
0.000165866
-3.66275e-06
-2.65453e-06
-2.16763e-06
-1.47533e-06
-3.04515e-06
1.02947e-05
0.000206535
-2.9739e-06
-2.65619e-06
-2.18572e-06
-3.01703e-06
-2.05264e-07
-2.7504e-06
5.95227e-08
-3.86291e-05
-5.27063e-06
4.09319e-06
3.67614e-05
-2.5893e-05
2.92186e-06
-2.86493e-06
2.58361e-05
2.5264e-06
-5.34026e-05
3.53311e-06
-2.35114e-06
-3.95955e-06
5.36538e-05
-3.47008e-06
1.41267e-05
0.000160503
1.57808e-06
1.90566e-06
2.83965e-06
3.24817e-06
-1.5052e-06
3.16614e-06
0.000214096
-1.45154e-06
1.4713e-06
0.000224168
-3.0127e-06
-1.0594e-06
-2.85382e-06
2.49927e-06
3.99301e-06
2.97548e-06
-6.87753e-05
-1.70204e-06
-4.25403e-07
1.16587e-06
6.82853e-05
-8.91311e-05
3.34313e-06
-3.02182e-06
-3.05988e-06
8.85382e-05
3.33145e-06
-3.00988e-06
2.3373e-06
0.000238761
7.75214e-07
1.33982e-06
2.3869e-06
1.51231e-06
2.91451e-06
2.54427e-06
3.29564e-06
-1.79342e-06
-2.61395e-08
0.000292883
-1.57763e-06
5.52708e-07
-1.36305e-06
4.53477e-07
1.87444e-07
5.6336e-07
-7.09333e-05
7.55543e-07
1.51117e-06
6.83445e-05
-3.43931e-05
1.83261e-06
-1.98903e-06
3.45495e-05
-3.80366e-05
6.80112e-07
5.73333e-07
3.91205e-05
-3.37306e-05
1.92877e-08
-3.75209e-07
-5.3436e-07
3.45948e-05
-2.40811e-05
-9.9161e-07
8.78274e-07
2.4193e-05
-5.76486e-06
7.2547e-07
-8.35868e-07
5.87526e-06
-3.61042e-05
3.23132e-06
-4.26474e-06
3.71376e-05
2.79095e-08
3.70514e-07
-2.63853e-05
-3.53323e-06
1.73789e-06
2.77823e-05
9.74415e-07
-3.76769e-05
4.78101e-06
-4.70022e-06
1.74617e-06
3.48756e-05
-2.65212e-05
4.58755e-07
2.00999e-06
1.29107e-06
2.16648e-05
1.09655e-06
4.6276e-06
-1.55994e-06
-5.00858e-05
9.6632e-07
-4.79803e-06
5.08499e-05
-9.32245e-06
1.47507e-05
0.000139977
-3.06645e-06
-2.82819e-06
-2.73664e-06
-2.02928e-06
1.60305e-08
1.56324e-06
4.63515e-08
2.54519e-06
-9.71542e-06
6.66617e-06
0.000173912
-4.02472e-06
-4.04009e-06
-2.90834e-06
-3.34621e-06
-2.72295e-06
1.35092e-05
0.000204294
-4.86448e-06
-3.89912e-06
-3.70864e-06
-2.93515e-06
-4.91501e-07
-2.17931e-06
-1.8262e-07
-3.48132e-05
-6.07636e-06
5.31552e-06
3.28511e-05
-2.5748e-05
2.9145e-06
-2.76677e-06
2.56003e-05
2.66262e-06
-5.38193e-05
3.69704e-06
-2.45638e-06
-3.63056e-06
5.35465e-05
-5.00633e-06
1.46665e-05
0.000155474
1.72486e-06
2.04331e-06
2.99374e-06
3.35734e-06
-3.56989e-06
6.16784e-06
0.000213158
-1.66473e-06
2.31387e-06
0.00023021
-3.25247e-06
-1.27267e-06
-3.15883e-06
2.88328e-06
4.74964e-06
3.2989e-06
-6.83349e-05
-2.42297e-06
-1.1089e-06
2.10111e-06
6.81009e-05
-8.81664e-05
3.23821e-06
-2.83239e-06
-2.79777e-06
8.75868e-05
2.97158e-06
-3.00649e-06
2.42574e-06
0.000239336
6.91082e-07
1.24394e-06
2.29426e-06
1.43339e-06
3.06976e-06
2.51707e-06
3.42245e-06
-1.82676e-06
4.39534e-07
0.000296589
-1.66406e-06
5.30175e-07
-1.38414e-06
1.01384e-06