/*--------------------------------*- C++ -*----------------------------------*\
| =========                 |                                                 |
| \\      /  F ield         | OpenFOAM: The Open Source CFD Toolbox           |
|  \\    /   O peration     | Version:  5.x                                   |
|   \\  /    A nd           | Web:      www.OpenFOAM.org                      |
|    \\/     M anipulation  |                                                 |
\*---------------------------------------------------------------------------*/
FoamFile
{
    version     2.0;
    format      ascii;
    class       volVectorField;
    location    "3.6";
    object      Us;
}
// * * * * * * * * * * * * * * * * * * * * * * * * * * * * * * * * * * * * * //

dimensions      [0 1 -1 0 0 0 0];

internalField   nonuniform List<vector> 
10571
(
(0.0266371 -0.00867719 -0.0808791)
(-0.01132 0.0385175 -0.135431)
(0.046458 0.0523373 -0.131272)
(0.0580609 0.0331603 -0.090458)
(0.130735 0.0745876 -0.0691607)
(-0.00664576 0.155568 -0.15219)
(0.0777218 0.219126 -0.0642304)
(0.0731579 0.191308 -0.0509518)
(0.153606 0.1788 -0.0370566)
(0.112109 0.105707 -0.0092095)
(0.0136227 0.213028 -0.10262)
(0.0748704 0.281986 -0.121163)
(0.055523 0.298221 -0.0251175)
(0.0486802 0.278496 0.00132455)
(0.0928965 0.236118 0.0164638)
(0.0356121 0.0412223 0.0360163)
(0.086757 0.257256 -0.0436197)
(-0.0218491 0.322 -0.0249109)
(0.0168863 0.294904 0.0382308)
(-0.0691356 0.159005 0.0405316)
(-0.0172273 0.0287376 -0.0384191)
(0.107003 0.0689128 -0.0129975)
(0.054129 0.0185827 0.013386)
(-0.00147939 0.0180127 0.0302886)
(0.103154 0.00684128 -0.0372865)
(-0.0248119 0.0419317 -0.228446)
(0.0232531 0.0486375 -0.227221)
(0.125052 0.0288509 -0.0835303)
(0.158973 0.0805183 0.0331203)
(0.0107842 0.145731 -0.234836)
(0.0690455 0.202866 -0.0235799)
(0.0941723 0.184669 0.0156555)
(0.163935 0.206748 0.168368)
(0.0617859 0.167271 0.130437)
(0.00680272 0.150098 -0.00644966)
(0.0446519 0.196582 0.0145564)
(0.0829986 0.276927 0.195508)
(0.114064 0.236633 0.210859)
(0.0883925 0.214384 0.213827)
(-0.00683801 0.121644 0.159863)
(0.0958232 0.254004 0.0884484)
(0.118418 0.268962 0.282021)
(0.106759 0.23877 0.287099)
(0.078081 0.226252 0.176396)
(-0.0543733 0.12282 -0.109643)
(0.15694 0.0750736 0.0988314)
(0.0977327 0.0616135 0.153218)
(0.0759043 -0.00392833 0.173146)
(0.10961 0.0109743 -0.0715198)
(-0.0136155 0.0341379 -0.313211)
(0.0402761 0.0255326 -0.325499)
(0.147368 0.0223487 -0.182498)
(0.177227 0.0901872 0.0633143)
(0.0384132 0.156107 -0.332474)
(0.0802129 0.183104 -0.045851)
(0.0639371 0.142157 0.0171426)
(0.0986266 0.17171 0.231603)
(0.0639044 0.188479 0.221903)
(0.0120381 0.0322463 -0.0631928)
(0.0475359 0.13916 0.093984)
(0.13996 0.24128 0.252071)
(0.109092 0.165963 0.287332)
(0.0722014 0.204975 0.302477)
(-0.0252974 0.170923 0.220799)
(0.0991418 0.210561 0.258264)
(0.187918 0.286324 0.397596)
(0.18362 0.209765 0.386842)
(0.189992 0.234221 0.291561)
(0.0360288 -0.134766 -0.570253)
(0.180201 0.0924387 0.248674)
(0.180765 0.089988 0.353583)
(0.188689 -0.00383208 0.403473)
(0.143406 0.0182969 -0.134753)
(0.00401437 0.00541451 -0.385658)
(0.0763931 -0.0203949 -0.385725)
(0.190163 0.0293567 -0.228696)
(0.224508 0.109033 0.135395)
(0.045071 0.0561897 -0.501204)
(0.0296624 -0.149133 -0.485267)
(0.0479459 -0.186844 -0.435791)
(0.070303 0.0683617 0.231136)
(0.0465164 0.078486 0.220908)
(0.00768753 -0.121009 -0.344955)
(0.0659533 -0.03119 0.0990075)
(0.14434 0.198502 0.343288)
(0.15749 0.146146 0.416993)
(0.0474124 0.175498 0.362891)
(0.0824739 0.133283 0.184429)
(0.0934499 0.16782 0.281319)
(0.180037 0.268216 0.460585)
(0.213705 0.209061 0.439137)
(0.327616 0.104528 0.43007)
(0.0559175 -0.150331 -0.550241)
(0.173728 0.137697 0.406653)
(0.267897 0.146462 0.509693)
(0.323211 -0.188542 0.604294)
(0.127397 0.00697259 -0.310979)
(0.0209108 -0.0142213 -0.431264)
(0.0817491 -0.011969 -0.432298)
(0.0150141 0.071136 -0.48488)
(0.0674612 0.084297 -0.428461)
(0.0296969 -0.0381389 -0.505831)
(-0.000477965 -0.199298 -0.517093)
(0.0657581 -0.221707 -0.478667)
(0.128139 -0.194877 -0.457502)
(-0.0298096 -0.145244 -0.421227)
(-0.0142938 -0.104989 -0.518206)
(-0.0757627 -0.1256 -0.526944)
(0.0970961 0.0820888 0.227186)
(0.11825 -0.0875316 -0.17888)
(0.14477 -0.15952 -0.388721)
(-0.0423971 -0.150964 -0.408996)
(-0.0211685 0.00531716 -0.207395)
(0.113098 0.233311 0.439529)
(0.139944 0.0759538 0.258901)
(0 0 0)
(0.0712169 -0.15875 -0.519635)
(0.130883 0.204745 0.556144)
(0.299744 0.190628 0.434758)
(0 0 0)
(0.0314312 0.018867 -0.452569)
(0.0156315 -0.0144872 -0.458758)
(-0.0274158 -0.00791953 -0.483124)
(0.0329767 0.0185866 -0.43535)
(0.0608759 0.0771417 -0.377826)
(0.0254268 -0.0443621 -0.485383)
(0.00273959 -0.17559 -0.434171)
(0.0701831 -0.213251 -0.401729)
(0.134665 -0.210108 -0.412232)
(0.138684 -0.227629 -0.45203)
(8.99961e-05 -0.00409356 0.0023215)
(-0.004388 -0.109556 -0.457745)
(-0.0792399 -0.124187 -0.467413)
(-0.00305972 -0.127233 -0.369163)
(0.133268 -0.0876945 -0.130849)
(0.161897 -0.164098 -0.366036)
(-0.00356244 -0.156283 -0.377065)
(-0.00250892 -0.009883 -0.00511605)
(0 0 0)
(0 0 0)
(0.0491148 -0.0236649 -0.129029)
(0.060849 -0.0627986 -0.197758)
(0.0405092 -0.163289 -0.451344)
(-0.000621645 -0.0472563 -0.147904)
(0 0 0)
(0 0 0)
(0.0319276 0.0153567 -0.399984)
(-0.00301093 0.0124406 -0.437122)
(-5.33615e-15 -2.17787e-15 -5.02708e-14)
(0.0538564 0.0752268 -0.386393)
(0 0 0)
(0.0208874 -0.0335647 -0.445721)
(0.00557652 -0.172809 -0.379149)
(0.074922 -0.187912 -0.311452)
(0.151752 -0.213615 -0.352431)
(0.158929 -0.280294 -0.392121)
(0 0 0)
(-0.00997932 -0.164918 -0.378385)
(-0.0905418 -0.14404 -0.415605)
(0.000881593 -0.135756 -0.338404)
(0.0842045 -0.141295 -0.209439)
(0.160947 -0.163233 -0.282203)
(0.205199 -0.170724 -0.365589)
(0.226418 -0.20528 -0.443565)
(0 0 0)
(0 0 0)
(0.106121 0.00421652 -0.0594694)
(0 0 0)
(1.2145e-14 -1.96485e-14 -4.27751e-14)
(0 0 0)
(0 0 0)
(0.017005 0.0295775 -0.0551616)
(0 0 0)
(0.0288835 0.0221993 -0.347483)
(-0.00595862 0.026292 -0.434885)
(0 0 0)
(0 0 0)
(0 0 0)
(0.0088911 -0.0213073 -0.404301)
(0.00714094 -0.190525 -0.349459)
(0.0756121 -0.189943 -0.244379)
(0.150586 -0.21898 -0.294375)
(0 0 0)
(0 0 0)
(-0.0221539 -0.200886 -0.311901)
(-0.101029 -0.155532 -0.351582)
(0.00848321 -0.139537 -0.284143)
(0.0782539 -0.159306 -0.200242)
(0.16587 -0.174481 -0.253333)
(0.199429 -0.194713 -0.336214)
(0.237532 -0.213114 -0.381411)
(0 0 0)
(-0.00505636 -0.0466303 -0.146796)
(0.112745 -0.0310833 -0.0404879)
(0.141106 -0.0579988 -0.0656684)
(0 0 0)
(0 0 0)
(0 0 0)
(0.0387005 0.0156739 0.0181471)
(0 0 0)
(0 0 0)
(-4.44068e-16 1.17063e-15 -4.41958e-14)
(0 0 0)
(0.0509474 0.0511964 -0.324519)
(0.145091 0.063463 -0.283837)
(0.0245817 0.0266289 -0.351292)
(0 0 0)
(0 0 0)
(0.152248 -0.242831 -0.210915)
(0 0 0)
(0 0 0)
(0.0262442 -0.00343567 -0.326339)
(-0.102544 -0.175718 -0.266746)
(0.0144558 -0.124006 -0.193282)
(0.0794935 -0.144502 -0.148165)
(0.161438 -0.175174 -0.20561)
(0.149304 -0.195716 -0.267024)
(0 0 0)
(-0.0713716 -0.0902822 -0.177838)
(0.00569071 -0.0693167 -0.120331)
(0.0547729 -0.0277545 0.0487811)
(0 0 0)
(0.086244 -0.164173 -0.276857)
(0 0 0)
(0.0364572 0.0340511 0.0813525)
(0 0 0)
(0 0 0)
(0 0 0)
(0 0 0)
(0 0 0)
(0 0 0)
(0 0 0)
(0 0 0)
(0 0 0)
(0 0 0)
(0 0 0)
(0.00341197 0.097734 -0.309422)
(0.0546991 0.0897734 -0.296847)
(0.0169999 -0.117799 -0.130764)
(0.0766011 -0.121528 -0.0867883)
(0.177429 -0.153905 -0.14231)
(0.178054 -0.198952 -0.19628)
(-0.0669172 -0.115967 -0.109893)
(0.0214352 -0.0738622 -0.0836101)
(0.0646107 -0.0827516 -0.0511587)
(0.159171 -0.0951576 -0.094369)
(0.0814824 -0.160139 -0.208166)
(0 0 0)
(0.0574171 0.0114098 0.113038)
(0 0 0)
(0 0 0)
(0 0 0)
(0 0 0)
(0 0 0)
(0 0 0)
(0 0 0)
(0 0 0)
(0 0 0)
(0 0 0)
(0 0 0)
(0.00411545 0.100461 -0.250808)
(7.43992e-15 1.17668e-14 -2.78182e-14)
(0 0 0)
(0.114021 -0.143283 -0.0399619)
(0.165453 -0.142626 -0.0797468)
(0.223941 -0.185035 -0.154421)
(-0.0847179 -0.10989 -0.0487764)
(0.0238017 -0.045553 -0.0296082)
(0.0638604 -0.0630142 -0.00793315)
(0.140066 -0.101376 -0.076476)
(0.0742591 -0.165047 -0.134725)
(0 0 0)
(0.0341088 -0.036386 0.00882028)
(0 0 0)
(0 0 0)
(0 0 0)
(0 0 0)
(0 0 0)
(0 0 0)
(0 0 0)
(0 0 0)
(0 0 0)
(0 0 0)
(0 0 0)
(-0.00644107 0.0669198 -0.194306)
(0.0595636 0.068974 -0.186502)
(0 0 0)
(0 0 0)
(0.181463 -0.150807 -0.022014)
(0 0 0)
(-0.0892905 -0.116466 0.0327771)
(-0.0157406 -0.0477814 0.0288485)
(0.101978 -0.0805827 0.0546651)
(0.154814 -0.106912 0.0168368)
(0.138383 -0.156431 -0.0584471)
(0 0 0)
(0.0506598 -0.0363384 0.0487329)
(0 0 0)
(0 0 0)
(0 0 0)
(0 0 0)
(0 0 0)
(0 0 0)
(0 0 0)
(0 0 0)
(0 0 0)
(0 0 0)
(0 0 0)
(-0.00116859 0.0817743 -0.167588)
(0.0657634 0.0725156 -0.162661)
(0 0 0)
(0 0 0)
(0 0 0)
(0 0 0)
(0 0 0)
(-0.00907047 -0.0404828 0.174309)
(0.107958 -0.0712309 0.106826)
(0.170167 -0.119572 0.0837493)
(0.213937 -0.121708 0.0271025)
(-0.000506072 -0.00716704 0.185071)
(0.0734972 -0.0250047 0.112447)
(0.139771 -0.0589513 0.124285)
(0 0 0)
(0 0 0)
(0 0 0)
(0 0 0)
(0 0 0)
(0 0 0)
(0 0 0)
(0 0 0)
(0 0 0)
(0 0 0)
(0 0 0)
(0 0 0)
(0 0 0)
(0 0 0)
(0 0 0)
(0 0 0)
(0 0 0)
(-0.0176255 -0.0211242 0.213377)
(0 0 0)
(0 0 0)
(0 0 0)
(-0.0196944 -0.0129473 0.228777)
(0 0 0)
(0 0 0)
(0 0 0)
(0 0 0)
(0 0 0)
(0 0 0)
(0 0 0)
(0 0 0)
(0 0 0)
(0 0 0)
(0 0 0)
(0 0 0)
(0 0 0)
(0 0 0)
(0 0 0)
(0 0 0)
(0 0 0)
(0 0 0)
(0 0 0)
(0 0 0)
(0.235788 0.173586 0.0124689)
(0 0 0)
(0 0 0)
(0 0 0)
(0 0 0)
(0 0 0)
(0 0 0)
(0 0 0)
(0 0 0)
(0 0 0)
(0 0 0)
(0 0 0)
(0 0 0)
(0 0 0)
(0 0 0)
(0 0 0)
(0 0 0)
(0 0 0)
(0 0 0)
(0 0 0)
(0 0 0)
(0 0 0)
(0 0 0)
(0 0 0)
(0 0 0)
(0 0 0)
(0 0 0)
(0 0 0)
(0 0 0)
(0 0 0)
(0 0 0)
(0 0 0)
(0 0 0)
(0 0 0)
(0 0 0)
(0 0 0)
(0 0 0)
(0 0 0)
(0 0 0)
(0 0 0)
(0 0 0)
(0 0 0)
(0 0 0)
(0 0 0)
(0 0 0)
(0 0 0)
(0 0 0)
(0 0 0)
(0 0 0)
(0 0 0)
(0 0 0)
(0 0 0)
(0 0 0)
(0 0 0)
(0 0 0)
(0 0 0)
(0 0 0)
(0 0 0)
(0 0 0)
(0 0 0)
(0 0 0)
(0 0 0)
(0 0 0)
(0 0 0)
(0 0 0)
(0 0 0)
(0 0 0)
(0 0 0)
(0 0 0)
(0 0 0)
(0 0 0)
(0 0 0)
(0 0 0)
(0 0 0)
(0 0 0)
(0 0 0)
(0 0 0)
(0 0 0)
(0 0 0)
(0 0 0)
(0 0 0)
(0 0 0)
(0 0 0)
(0 0 0)
(0 0 0)
(0 0 0)
(0 0 0)
(0 0 0)
(0 0 0)
(0 0 0)
(0 0 0)
(0 0 0)
(0 0 0)
(0 0 0)
(0 0 0)
(0 0 0)
(0 0 0)
(0 0 0)
(0 0 0)
(0 0 0)
(0 0 0)
(0 0 0)
(0 0 0)
(0 0 0)
(0 0 0)
(0 0 0)
(0 0 0)
(0 0 0)
(0 0 0)
(0 0 0)
(0 0 0)
(0 0 0)
(0 0 0)
(0 0 0)
(0 0 0)
(0 0 0)
(0 0 0)
(0 0 0)
(0 0 0)
(0 0 0)
(0 0 0)
(0 0 0)
(0 0 0)
(0 0 0)
(0 0 0)
(0 0 0)
(0 0 0)
(0 0 0)
(0 0 0)
(0 0 0)
(0 0 0)
(0 0 0)
(0 0 0)
(0 0 0)
(0 0 0)
(0 0 0)
(0 0 0)
(0 0 0)
(0 0 0)
(0 0 0)
(0 0 0)
(0 0 0)
(0 0 0)
(0 0 0)
(0 0 0)
(0 0 0)
(0 0 0)
(0 0 0)
(0 0 0)
(0 0 0)
(0 0 0)
(0 0 0)
(0 0 0)
(0 0 0)
(0 0 0)
(0 0 0)
(0 0 0)
(0 0 0)
(0 0 0)
(0 0 0)
(0 0 0)
(0 0 0)
(0 0 0)
(0 0 0)
(0 0 0)
(0 0 0)
(0 0 0)
(0 0 0)
(0 0 0)
(0 0 0)
(0 0 0)
(0 0 0)
(0 0 0)
(0 0 0)
(0 0 0)
(0 0 0)
(0 0 0)
(0 0 0)
(0 0 0)
(0 0 0)
(0 0 0)
(0 0 0)
(0 0 0)
(0 0 0)
(0 0 0)
(0 0 0)
(0 0 0)
(0 0 0)
(0 0 0)
(0 0 0)
(0 0 0)
(0 0 0)
(0 0 0)
(0 0 0)
(0 0 0)
(0 0 0)
(0 0 0)
(0 0 0)
(0 0 0)
(0 0 0)
(0 0 0)
(0 0 0)
(0 0 0)
(0 0 0)
(0 0 0)
(0 0 0)
(0 0 0)
(0 0 0)
(0 0 0)
(0 0 0)
(0 0 0)
(0 0 0)
(0 0 0)
(0 0 0)
(0 0 0)
(0 0 0)
(0 0 0)
(0 0 0)
(0 0 0)
(0 0 0)
(0 0 0)
(0 0 0)
(0 0 0)
(0 0 0)
(0 0 0)
(0 0 0)
(0 0 0)
(0 0 0)
(0 0 0)
(0 0 0)
(0 0 0)
(0 0 0)
(0 0 0)
(0 0 0)
(0 0 0)
(0 0 0)
(0 0 0)
(0 0 0)
(0 0 0)
(0 0 0)
(0 0 0)
(0 0 0)
(0 0 0)
(0 0 0)
(0 0 0)
(0 0 0)
(0 0 0)
(0 0 0)
(0 0 0)
(0 0 0)
(0 0 0)
(0 0 0)
(0 0 0)
(0 0 0)
(0 0 0)
(0 0 0)
(0 0 0)
(0 0 0)
(0 0 0)
(0 0 0)
(0 0 0)
(0 0 0)
(0 0 0)
(0 0 0)
(0 0 0)
(0 0 0)
(0 0 0)
(0 0 0)
(0 0 0)
(0 0 0)
(0 0 0)
(0 0 0)
(0 0 0)
(0 0 0)
(0 0 0)
(0 0 0)
(0 0 0)
(0 0 0)
(0 0 0)
(0 0 0)
(0 0 0)
(0 0 0)
(0 0 0)
(0 0 0)
(0 0 0)
(0 0 0)
(0 0 0)
(0 0 0)
(0 0 0)
(0 0 0)
(0 0 0)
(0 0 0)
(0 0 0)
(0 0 0)
(0 0 0)
(0 0 0)
(0 0 0)
(0 0 0)
(0 0 0)
(0 0 0)
(0 0 0)
(0 0 0)
(0 0 0)
(0 0 0)
(0 0 0)
(0 0 0)
(0 0 0)
(0 0 0)
(0 0 0)
(0 0 0)
(0 0 0)
(0 0 0)
(0 0 0)
(0 0 0)
(0 0 0)
(0 0 0)
(0 0 0)
(0 0 0)
(0 0 0)
(0 0 0)
(0 0 0)
(0 0 0)
(0 0 0)
(0 0 0)
(0 0 0)
(0 0 0)
(0 0 0)
(0 0 0)
(0 0 0)
(0 0 0)
(0 0 0)
(0 0 0)
(0 0 0)
(0 0 0)
(0 0 0)
(0 0 0)
(0 0 0)
(0 0 0)
(0 0 0)
(0 0 0)
(0 0 0)
(0 0 0)
(0 0 0)
(0 0 0)
(0 0 0)
(0 0 0)
(0 0 0)
(0 0 0)
(0 0 0)
(0 0 0)
(0 0 0)
(0 0 0)
(0 0 0)
(0 0 0)
(0 0 0)
(0 0 0)
(0 0 0)
(0 0 0)
(0 0 0)
(0 0 0)
(0 0 0)
(0 0 0)
(0 0 0)
(0 0 0)
(0 0 0)
(0 0 0)
(0 0 0)
(0 0 0)
(0 0 0)
(0 0 0)
(0 0 0)
(0 0 0)
(0 0 0)
(0 0 0)
(0 0 0)
(0 0 0)
(0 0 0)
(0 0 0)
(0 0 0)
(0 0 0)
(0 0 0)
(0 0 0)
(0 0 0)
(0 0 0)
(0 0 0)
(0 0 0)
(0 0 0)
(0 0 0)
(0 0 0)
(0 0 0)
(0 0 0)
(0 0 0)
(0 0 0)
(0 0 0)
(0 0 0)
(0 0 0)
(0 0 0)
(0 0 0)
(0 0 0)
(0 0 0)
(0 0 0)
(0 0 0)
(0 0 0)
(0 0 0)
(0 0 0)
(0 0 0)
(0 0 0)
(0 0 0)
(0 0 0)
(0 0 0)
(0 0 0)
(0 0 0)
(0 0 0)
(0 0 0)
(0 0 0)
(0 0 0)
(0 0 0)
(0 0 0)
(0 0 0)
(0 0 0)
(0 0 0)
(0 0 0)
(0 0 0)
(0 0 0)
(0 0 0)
(0 0 0)
(0 0 0)
(0 0 0)
(0 0 0)
(0 0 0)
(0 0 0)
(0 0 0)
(0 0 0)
(0 0 0)
(0 0 0)
(0 0 0)
(0 0 0)
(0 0 0)
(0 0 0)
(0 0 0)
(0 0 0)
(0 0 0)
(0 0 0)
(0 0 0)
(0 0 0)
(0 0 0)
(0 0 0)
(0 0 0)
(0 0 0)
(0 0 0)
(0 0 0)
(0 0 0)
(0 0 0)
(0 0 0)
(0 0 0)
(0 0 0)
(0 0 0)
(0 0 0)
(0 0 0)
(0 0 0)
(0 0 0)
(0 0 0)
(0 0 0)
(0 0 0)
(0 0 0)
(0 0 0)
(0 0 0)
(0 0 0)
(0 0 0)
(0 0 0)
(0 0 0)
(0 0 0)
(0 0 0)
(0 0 0)
(0 0 0)
(0 0 0)
(0 0 0)
(0 0 0)
(0 0 0)
(0 0 0)
(0 0 0)
(0 0 0)
(0 0 0)
(0 0 0)
(0 0 0)
(0 0 0)
(0 0 0)
(0 0 0)
(0 0 0)
(0 0 0)
(0 0 0)
(0 0 0)
(0 0 0)
(0 0 0)
(0 0 0)
(0 0 0)
(0 0 0)
(0 0 0)
(0 0 0)
(0 0 0)
(0 0 0)
(0 0 0)
(0 0 0)
(0 0 0)
(0 0 0)
(0 0 0)
(0 0 0)
(0 0 0)
(0 0 0)
(0 0 0)
(0 0 0)
(0 0 0)
(0 0 0)
(0 0 0)
(0 0 0)
(0 0 0)
(0 0 0)
(0 0 0)
(0 0 0)
(0 0 0)
(0 0 0)
(0 0 0)
(0 0 0)
(0 0 0)
(0 0 0)
(0 0 0)
(0 0 0)
(0 0 0)
(0 0 0)
(0 0 0)
(0 0 0)
(0 0 0)
(0 0 0)
(0 0 0)
(0 0 0)
(0 0 0)
(0 0 0)
(0 0 0)
(0 0 0)
(0 0 0)
(0 0 0)
(0 0 0)
(0 0 0)
(0 0 0)
(0 0 0)
(0 0 0)
(0 0 0)
(0 0 0)
(0 0 0)
(0 0 0)
(0 0 0)
(0 0 0)
(0 0 0)
(0 0 0)
(0 0 0)
(0 0 0)
(0 0 0)
(0 0 0)
(0 0 0)
(0 0 0)
(0 0 0)
(0 0 0)
(0 0 0)
(0 0 0)
(0 0 0)
(0 0 0)
(0 0 0)
(0 0 0)
(0 0 0)
(0 0 0)
(0 0 0)
(0 0 0)
(0 0 0)
(0 0 0)
(0 0 0)
(0 0 0)
(0 0 0)
(0 0 0)
(0 0 0)
(0 0 0)
(0 0 0)
(0 0 0)
(0 0 0)
(0 0 0)
(0 0 0)
(0 0 0)
(0 0 0)
(0 0 0)
(0 0 0)
(0 0 0)
(0 0 0)
(0 0 0)
(0 0 0)
(0 0 0)
(0 0 0)
(0 0 0)
(0 0 0)
(0 0 0)
(0 0 0)
(0 0 0)
(0 0 0)
(0 0 0)
(0 0 0)
(0 0 0)
(0 0 0)
(0 0 0)
(0 0 0)
(0 0 0)
(0 0 0)
(0 0 0)
(0 0 0)
(0 0 0)
(0 0 0)
(0 0 0)
(0 0 0)
(0 0 0)
(0 0 0)
(0 0 0)
(0 0 0)
(0 0 0)
(0 0 0)
(0 0 0)
(0 0 0)
(0 0 0)
(0 0 0)
(0 0 0)
(0 0 0)
(0 0 0)
(0 0 0)
(0 0 0)
(0 0 0)
(0 0 0)
(0 0 0)
(0 0 0)
(0 0 0)
(0 0 0)
(0 0 0)
(0 0 0)
(0 0 0)
(0 0 0)
(0 0 0)
(0 0 0)
(0 0 0)
(0 0 0)
(0 0 0)
(0 0 0)
(0 0 0)
(0 0 0)
(0 0 0)
(0 0 0)
(0 0 0)
(0 0 0)
(0 0 0)
(0 0 0)
(0 0 0)
(0 0 0)
(0 0 0)
(0 0 0)
(0 0 0)
(0 0 0)
(0 0 0)
(0 0 0)
(0 0 0)
(0 0 0)
(0 0 0)
(0 0 0)
(0 0 0)
(0 0 0)
(0 0 0)
(0 0 0)
(0 0 0)
(0 0 0)
(0 0 0)
(0 0 0)
(0 0 0)
(0 0 0)
(0 0 0)
(0 0 0)
(0 0 0)
(0 0 0)
(0 0 0)
(0 0 0)
(0 0 0)
(0 0 0)
(0 0 0)
(0 0 0)
(0 0 0)
(0 0 0)
(0 0 0)
(0 0 0)
(0 0 0)
(0 0 0)
(0 0 0)
(0 0 0)
(0 0 0)
(0 0 0)
(0 0 0)
(0 0 0)
(0 0 0)
(0 0 0)
(0 0 0)
(0 0 0)
(0 0 0)
(0 0 0)
(0 0 0)
(0 0 0)
(0 0 0)
(0 0 0)
(0 0 0)
(0 0 0)
(0 0 0)
(0 0 0)
(0 0 0)
(0 0 0)
(0 0 0)
(0 0 0)
(0 0 0)
(0 0 0)
(0 0 0)
(0 0 0)
(0 0 0)
(0 0 0)
(0 0 0)
(0 0 0)
(0 0 0)
(0 0 0)
(0 0 0)
(0 0 0)
(0 0 0)
(0 0 0)
(0 0 0)
(0 0 0)
(0 0 0)
(0 0 0)
(0 0 0)
(0 0 0)
(0 0 0)
(0 0 0)
(0 0 0)
(0 0 0)
(0 0 0)
(0 0 0)
(0 0 0)
(0 0 0)
(0 0 0)
(0 0 0)
(0 0 0)
(0 0 0)
(0 0 0)
(0 0 0)
(0 0 0)
(0 0 0)
(0 0 0)
(0 0 0)
(0 0 0)
(0 0 0)
(0 0 0)
(0 0 0)
(0 0 0)
(0 0 0)
(0 0 0)
(0 0 0)
(0 0 0)
(0 0 0)
(0 0 0)
(0 0 0)
(0 0 0)
(0 0 0)
(0 0 0)
(0 0 0)
(0 0 0)
(0 0 0)
(0 0 0)
(0 0 0)
(0 0 0)
(0 0 0)
(0 0 0)
(0 0 0)
(0 0 0)
(0 0 0)
(0 0 0)
(0 0 0)
(0 0 0)
(0 0 0)
(0 0 0)
(0 0 0)
(0 0 0)
(0 0 0)
(0 0 0)
(0 0 0)
(0 0 0)
(0 0 0)
(0 0 0)
(0 0 0)
(0 0 0)
(0 0 0)
(0 0 0)
(0 0 0)
(0 0 0)
(0 0 0)
(0 0 0)
(0 0 0)
(0 0 0)
(0 0 0)
(0 0 0)
(0 0 0)
(0 0 0)
(0 0 0)
(0 0 0)
(0 0 0)
(0 0 0)
(0 0 0)
(0 0 0)
(0 0 0)
(0 0 0)
(0 0 0)
(0 0 0)
(0 0 0)
(0 0 0)
(0 0 0)
(0 0 0)
(0 0 0)
(0 0 0)
(0 0 0)
(0 0 0)
(0 0 0)
(0 0 0)
(0 0 0)
(0 0 0)
(0 0 0)
(0 0 0)
(0 0 0)
(0 0 0)
(0 0 0)
(0 0 0)
(0 0 0)
(0 0 0)
(0 0 0)
(0 0 0)
(0 0 0)
(0 0 0)
(0 0 0)
(0 0 0)
(0 0 0)
(0 0 0)
(0 0 0)
(0 0 0)
(0 0 0)
(0 0 0)
(0 0 0)
(0 0 0)
(0 0 0)
(0 0 0)
(0 0 0)
(0 0 0)
(0 0 0)
(0 0 0)
(0 0 0)
(0 0 0)
(0 0 0)
(0 0 0)
(0 0 0)
(0 0 0)
(0 0 0)
(0 0 0)
(0 0 0)
(0 0 0)
(0 0 0)
(0 0 0)
(0 0 0)
(0 0 0)
(0 0 0)
(0 0 0)
(0 0 0)
(0 0 0)
(0 0 0)
(0 0 0)
(0 0 0)
(0 0 0)
(0 0 0)
(0 0 0)
(0 0 0)
(0 0 0)
(0 0 0)
(0 0 0)
(0 0 0)
(0 0 0)
(0 0 0)
(0 0 0)
(0 0 0)
(0 0 0)
(0 0 0)
(0 0 0)
(0 0 0)
(0 0 0)
(0 0 0)
(0 0 0)
(0 0 0)
(0 0 0)
(0 0 0)
(0 0 0)
(0 0 0)
(0 0 0)
(0 0 0)
(0 0 0)
(0 0 0)
(0 0 0)
(0 0 0)
(0 0 0)
(0 0 0)
(0 0 0)
(0 0 0)
(0 0 0)
(0 0 0)
(0 0 0)
(0 0 0)
(0 0 0)
(0 0 0)
(0 0 0)
(0 0 0)
(0 0 0)
(0 0 0)
(0 0 0)
(0 0 0)
(0 0 0)
(0 0 0)
(0 0 0)
(0 0 0)
(0 0 0)
(0 0 0)
(0 0 0)
(0 0 0)
(0 0 0)
(0 0 0)
(0 0 0)
(0 0 0)
(0 0 0)
(0 0 0)
(0 0 0)
(0 0 0)
(0 0 0)
(0 0 0)
(0 0 0)
(0 0 0)
(0 0 0)
(0 0 0)
(0 0 0)
(0 0 0)
(0 0 0)
(0 0 0)
(0 0 0)
(0 0 0)
(0 0 0)
(0 0 0)
(0 0 0)
(0 0 0)
(0 0 0)
(0 0 0)
(0 0 0)
(0 0 0)
(0 0 0)
(0 0 0)
(0 0 0)
(0 0 0)
(0 0 0)
(0 0 0)
(0 0 0)
(0 0 0)
(0 0 0)
(0 0 0)
(0 0 0)
(0 0 0)
(0 0 0)
(0 0 0)
(0 0 0)
(0 0 0)
(0 0 0)
(0 0 0)
(0 0 0)
(0 0 0)
(0 0 0)
(0 0 0)
(0 0 0)
(0 0 0)
(0 0 0)
(0 0 0)
(0 0 0)
(0 0 0)
(0 0 0)
(0 0 0)
(0 0 0)
(0 0 0)
(0 0 0)
(0 0 0)
(0 0 0)
(0 0 0)
(0 0 0)
(0 0 0)
(0 0 0)
(0 0 0)
(0 0 0)
(0 0 0)
(0 0 0)
(0 0 0)
(0 0 0)
(0 0 0)
(0 0 0)
(0 0 0)
(0 0 0)
(0 0 0)
(0 0 0)
(0 0 0)
(0 0 0)
(0 0 0)
(0 0 0)
(0 0 0)
(0 0 0)
(0 0 0)
(0 0 0)
(0 0 0)
(0 0 0)
(0 0 0)
(0 0 0)
(0 0 0)
(0 0 0)
(0 0 0)
(0 0 0)
(0 0 0)
(0 0 0)
(0 0 0)
(0 0 0)
(0 0 0)
(0 0 0)
(0 0 0)
(0 0 0)
(0 0 0)
(0 0 0)
(0 0 0)
(0 0 0)
(0 0 0)
(0 0 0)
(0 0 0)
(0 0 0)
(0 0 0)
(0 0 0)
(0 0 0)
(0 0 0)
(0 0 0)
(0 0 0)
(0 0 0)
(0 0 0)
(0 0 0)
(0 0 0)
(0 0 0)
(0 0 0)
(0 0 0)
(0 0 0)
(0 0 0)
(0 0 0)
(0 0 0)
(0 0 0)
(0 0 0)
(0 0 0)
(0 0 0)
(0 0 0)
(0 0 0)
(0 0 0)
(0 0 0)
(0 0 0)
(0 0 0)
(0 0 0)
(0 0 0)
(0 0 0)
(0 0 0)
(0 0 0)
(0 0 0)
(0 0 0)
(0 0 0)
(0 0 0)
(0 0 0)
(0 0 0)
(0 0 0)
(0 0 0)
(0 0 0)
(0 0 0)
(0 0 0)
(0 0 0)
(0 0 0)
(0 0 0)
(0 0 0)
(0 0 0)
(0 0 0)
(0 0 0)
(0 0 0)
(0 0 0)
(0 0 0)
(0 0 0)
(0 0 0)
(0 0 0)
(0 0 0)
(0 0 0)
(0 0 0)
(0 0 0)
(0 0 0)
(0 0 0)
(0 0 0)
(0 0 0)
(0 0 0)
(0 0 0)
(0 0 0)
(0 0 0)
(0 0 0)
(0 0 0)
(0 0 0)
(0 0 0)
(0 0 0)
(0 0 0)
(0 0 0)
(0 0 0)
(0 0 0)
(0 0 0)
(0 0 0)
(0 0 0)
(0 0 0)
(0 0 0)
(0 0 0)
(0 0 0)
(0 0 0)
(0 0 0)
(0 0 0)
(0 0 0)
(0 0 0)
(0 0 0)
(0 0 0)
(0 0 0)
(0 0 0)
(0 0 0)
(0 0 0)
(0 0 0)
(0 0 0)
(0 0 0)
(0 0 0)
(0 0 0)
(0 0 0)
(0 0 0)
(0 0 0)
(0 0 0)
(0 0 0)
(0 0 0)
(0 0 0)
(0 0 0)
(0 0 0)
(0 0 0)
(0 0 0)
(0 0 0)
(0 0 0)
(0 0 0)
(0 0 0)
(0 0 0)
(0 0 0)
(0 0 0)
(0 0 0)
(0 0 0)
(0 0 0)
(0 0 0)
(0 0 0)
(0 0 0)
(0 0 0)
(0 0 0)
(0 0 0)
(0 0 0)
(0 0 0)
(0 0 0)
(0 0 0)
(0 0 0)
(0 0 0)
(0 0 0)
(0 0 0)
(0 0 0)
(0 0 0)
(0 0 0)
(0 0 0)
(0 0 0)
(0 0 0)
(0 0 0)
(0 0 0)
(0 0 0)
(0 0 0)
(0 0 0)
(0 0 0)
(0 0 0)
(0 0 0)
(0 0 0)
(0 0 0)
(0 0 0)
(0 0 0)
(0 0 0)
(0 0 0)
(0 0 0)
(0 0 0)
(0 0 0)
(0 0 0)
(0 0 0)
(0 0 0)
(0 0 0)
(0 0 0)
(0 0 0)
(0 0 0)
(0 0 0)
(0 0 0)
(0 0 0)
(0 0 0)
(0 0 0)
(0 0 0)
(0 0 0)
(0 0 0)
(0 0 0)
(0 0 0)
(0 0 0)
(0 0 0)
(0 0 0)
(0 0 0)
(0 0 0)
(0 0 0)
(0 0 0)
(0 0 0)
(0 0 0)
(0 0 0)
(0 0 0)
(0 0 0)
(0 0 0)
(0 0 0)
(0 0 0)
(0 0 0)
(0 0 0)
(0 0 0)
(0 0 0)
(0 0 0)
(0 0 0)
(0 0 0)
(0 0 0)
(0 0 0)
(0 0 0)
(0 0 0)
(0 0 0)
(0 0 0)
(0 0 0)
(0 0 0)
(0 0 0)
(0 0 0)
(0 0 0)
(0 0 0)
(0 0 0)
(0 0 0)
(0 0 0)
(0 0 0)
(0 0 0)
(0 0 0)
(0 0 0)
(0 0 0)
(0 0 0)
(0 0 0)
(0 0 0)
(0 0 0)
(0 0 0)
(0 0 0)
(0 0 0)
(0 0 0)
(0 0 0)
(0 0 0)
(0 0 0)
(0 0 0)
(0 0 0)
(0 0 0)
(0 0 0)
(0 0 0)
(0 0 0)
(0 0 0)
(0 0 0)
(0 0 0)
(0 0 0)
(0 0 0)
(0 0 0)
(0 0 0)
(0 0 0)
(0 0 0)
(0 0 0)
(0 0 0)
(0 0 0)
(0 0 0)
(0 0 0)
(0 0 0)
(0 0 0)
(0 0 0)
(0 0 0)
(0 0 0)
(0 0 0)
(0 0 0)
(0 0 0)
(0 0 0)
(0 0 0)
(0 0 0)
(0 0 0)
(0 0 0)
(0 0 0)
(0 0 0)
(0 0 0)
(0 0 0)
(0 0 0)
(0 0 0)
(0 0 0)
(0 0 0)
(0 0 0)
(0 0 0)
(0 0 0)
(0 0 0)
(0 0 0)
(0 0 0)
(0 0 0)
(0 0 0)
(0 0 0)
(0 0 0)
(0 0 0)
(0 0 0)
(0 0 0)
(0 0 0)
(0 0 0)
(0 0 0)
(0 0 0)
(0 0 0)
(0 0 0)
(0 0 0)
(0 0 0)
(0 0 0)
(0 0 0)
(0 0 0)
(0 0 0)
(0 0 0)
(0 0 0)
(0 0 0)
(0 0 0)
(0 0 0)
(0 0 0)
(0 0 0)
(0 0 0)
(0 0 0)
(0 0 0)
(0 0 0)
(0 0 0)
(0 0 0)
(0 0 0)
(0 0 0)
(0 0 0)
(0 0 0)
(0 0 0)
(0 0 0)
(0 0 0)
(0 0 0)
(0 0 0)
(0 0 0)
(0 0 0)
(0 0 0)
(0 0 0)
(0 0 0)
(0 0 0)
(0 0 0)
(0 0 0)
(0 0 0)
(0 0 0)
(0 0 0)
(0 0 0)
(0 0 0)
(0 0 0)
(0 0 0)
(0 0 0)
(0 0 0)
(0 0 0)
(0 0 0)
(0 0 0)
(0 0 0)
(0 0 0)
(0 0 0)
(0 0 0)
(0 0 0)
(0 0 0)
(0 0 0)
(0 0 0)
(0 0 0)
(0 0 0)
(0 0 0)
(0 0 0)
(0 0 0)
(0 0 0)
(0 0 0)
(0 0 0)
(0 0 0)
(0 0 0)
(0 0 0)
(0 0 0)
(0 0 0)
(0 0 0)
(0 0 0)
(0 0 0)
(0 0 0)
(0 0 0)
(0 0 0)
(0 0 0)
(0 0 0)
(0 0 0)
(0 0 0)
(0 0 0)
(0 0 0)
(0 0 0)
(0 0 0)
(0 0 0)
(0 0 0)
(0 0 0)
(0 0 0)
(0 0 0)
(0 0 0)
(0 0 0)
(0 0 0)
(0 0 0)
(0 0 0)
(0 0 0)
(0 0 0)
(0 0 0)
(0 0 0)
(0 0 0)
(0 0 0)
(0 0 0)
(0 0 0)
(0 0 0)
(0 0 0)
(0 0 0)
(0 0 0)
(0 0 0)
(0 0 0)
(0 0 0)
(0 0 0)
(0 0 0)
(0 0 0)
(0 0 0)
(0 0 0)
(0 0 0)
(0 0 0)
(0 0 0)
(0 0 0)
(0 0 0)
(0 0 0)
(0 0 0)
(0 0 0)
(0 0 0)
(0 0 0)
(0 0 0)
(0.0124421 0.00444455 -0.00370714)
(0.00259406 0.00802566 -0.011339)
(0.016931 0.00518085 -0.00186597)
(0.00856898 0.0121749 -0.00523494)
(0.0105602 0.015849 -0.0212015)
(0.0164628 0.0148044 -0.0139684)
(0.00174979 0.0198049 -0.00762388)
(0.0139175 0.0222693 -0.0102546)
(-0.00472114 0.0605452 -0.03448)
(0.0173008 0.0374166 -0.0407022)
(0.0316244 0.0186744 -0.0221131)
(0.0181681 0.0846101 -0.0470589)
(0.0588944 0.0979858 -0.041329)
(0.034238 0.0163598 -0.00307663)
(0.0216422 0.0132035 -0.0085256)
(0.0257162 0.0526112 -0.00479554)
(0.0192438 0.0474392 -0.00705825)
(0.0168595 0.00902204 -0.0146322)
(0.0369338 0.0439098 -0.0192641)
(0.0283457 0.0599151 -0.017221)
(0.0687717 0.076324 -0.0177496)
(0.0548201 0.0493665 -0.0145794)
(0.0304985 0.0444658 -0.00996184)
(0.105549 0.10403 -0.0678112)
(0.0488247 0.0929448 -0.0203708)
(0.0256524 0.052906 -0.0071973)
(-0.0069712 0.124777 -0.0435441)
(-0.00452745 0.124427 -0.0635024)
(0.000194748 0.181505 -0.0652306)
(0.0313552 0.155107 -0.0501079)
(0.0622096 0.143142 -0.0213237)
(0.0500696 0.222827 -0.0710234)
(0.0358568 0.188083 -0.0276394)
(0.0493054 0.108612 -0.00609849)
(0.0271227 0.094729 -0.00928579)
(0.0381578 0.143746 -0.00668261)
(0.0300887 0.138989 -0.0053619)
(0.0248999 0.108904 -0.0206101)
(0.0782011 0.110624 -0.0336325)
(0.0529112 0.176648 -0.0468104)
(0.071453 0.182162 -0.101793)
(0.131819 0.152471 -0.133627)
(0.138608 0.144156 -0.090732)
(0.121764 0.205325 -0.104986)
(0.119849 0.22606 -0.0545503)
(0.0284926 0.0772317 -0.0205608)
(0.0331332 0.0857203 -0.047636)
(0.000273331 0.0413393 -0.0330364)
(0.0214948 0.0883564 -0.029886)
(0.0350243 0.15804 -0.0247744)
(0.0505364 0.112399 -0.00385635)
(0.069506 0.25281 -0.0558755)
(0.0432956 0.229428 -0.0232466)
(0.0776665 0.205082 -0.00818943)
(0.0301042 0.251735 -0.00669753)
(0.0322741 0.189712 -0.0134804)
(0.0234449 0.182919 -0.00924832)
(0.0295938 0.242895 -0.0124136)
(-0.00745182 0.248681 -0.0586544)
(0.0389627 0.206436 -0.0653223)
(0.0635122 0.193818 -0.0823049)
(0.0351725 0.262978 -0.111979)
(0.0502034 0.259744 -0.12143)
(0.106598 0.222132 -0.0784436)
(-0.0130793 0.0337253 -0.0496853)
(-0.0537666 0.120741 -0.045743)
(-0.0500261 0.0351604 -0.0390813)
(0.000642006 0.0188137 -0.0343549)
(-0.0143906 0.0279974 -0.0307501)
(-0.0206955 -0.0111304 -0.0318513)
(0.0518557 0.0882876 -0.00517992)
(0.0972995 0.129903 0.000734275)
(-0.0164223 0.270484 -0.0172111)
(0.0873351 0.0775392 -0.0078454)
(0.0982179 0.113343 0.00327381)
(-0.00331212 0.269107 -0.0387126)
(-0.0127916 0.265376 -0.0848203)
(0.0415345 0.239953 -0.0522887)
(0.020775 0.109566 -0.0445583)
(0.0245847 0.278624 -0.0990687)
(-0.134547 0.16758 0.0294742)
(0.0200892 0.015975 -0.0210238)
(-0.0319028 -0.0034375 0.00225645)
(-0.120165 0.0933758 -0.0102237)
(-0.072005 0.0451038 -0.0180101)
(-0.0734276 0.0367719 0.00562371)
(-0.052961 0.0317525 -0.00345339)
(-0.0250992 -0.00219989 -0.0159463)
(0.0606601 0.0323506 -0.00812048)
(0.0750306 0.0226135 -0.00890333)
(0.0487372 0.00302389 -0.0209378)
(0.04105 -0.00692791 -0.01844)
(0.0227335 -0.0326948 -0.0115859)
(0.007188 -0.0164138 -0.00931574)
(0.0275946 -0.0237772 -0.0221342)
(-0.00581257 -0.00388559 -0.00113814)
(0.0084078 0.00742572 -0.125992)
(-0.00685919 0.0187284 -0.164429)
(0.0262351 -0.00370064 -0.0940787)
(0.0231173 0.00664524 -0.136039)
(0.0564866 -0.00844135 -0.126113)
(0.0668675 -0.00941139 -0.0902314)
(0.0361024 0.00218138 -0.149599)
(0.081713 -0.00675073 -0.111907)
(0.0390646 -0.0260934 -0.107123)
(0.107979 0.0406185 -0.0797885)
(0.0698651 -0.000571733 -0.0680087)
(0.0890438 -0.00602678 -0.0554797)
(0.0863785 0.0308547 -0.0219303)
(0.103954 0.0620162 -0.0743615)
(0.0996843 0.0583274 -0.0289585)
(-0.0356318 0.0829671 -0.152894)
(-0.0310678 0.0748948 -0.195536)
(0.0144738 0.0445655 -0.146494)
(-0.0214542 0.0967836 -0.159328)
(0.0248518 0.121693 -0.148277)
(-0.0284343 0.0417938 -0.190736)
(-0.0125973 0.0535988 -0.202295)
(-0.0225234 0.0852579 -0.211422)
(0.00490402 0.112078 -0.198781)
(0.112881 0.0887706 -0.0534479)
(0.159161 0.120568 -0.0541086)
(0.163279 0.111673 -0.0434715)
(0.120795 0.0854677 -0.00434642)
(0.109783 0.106496 0.00830247)
(0.155664 0.120004 0.0270652)
(0.142424 0.144188 0.0411649)
(0.0877536 0.103534 -0.022669)
(0.0858035 0.130052 0.0434781)
(-0.0248985 0.127214 -0.148359)
(-0.0176008 0.173035 -0.117799)
(-0.00523941 0.175863 -0.124339)
(-0.0206826 0.112741 -0.182088)
(-0.0127936 0.133998 -0.0775904)
(-0.00448843 0.151035 -0.124255)
(0.102434 0.0987557 0.0124138)
(0.0442369 0.0769917 0.0192463)
(0.0789815 0.130099 0.0670449)
(0.0742087 0.124773 0.103566)
(0.0192918 0.095441 0.0864888)
(0.0170709 0.257125 -0.10705)
(0.0319328 0.280363 -0.078005)
(0.00914106 0.165128 -0.0415781)
(0.0155177 0.20453 -0.0487369)
(0.0297221 0.232847 -0.0258126)
(0.0193378 0.0526335 0.0450323)
(-0.000872086 0.018189 -0.00134011)
(0.00824961 0.0763545 0.112784)
(-0.00445819 0.0668285 0.0940932)
(-0.0101206 0.0576705 0.019057)
(0.0683742 0.250608 -0.0656427)
(0.0811758 0.223022 -0.0252613)
(-0.00190287 0.348159 -0.0415243)
(0.12448 0.157706 -0.0457513)
(0.115299 0.183765 -0.0196817)
(0.0890593 0.28423 -0.00219854)
(0.111751 0.347625 0.0297747)
(0.13211 0.154358 -0.0050255)
(0.161737 0.137028 0.0190683)
(-0.0473729 0.0866856 -0.0260072)
(-0.0484318 0.0829077 0.061809)
(-0.0450769 0.0567479 0.0111456)
(0.0145514 0.208761 0.113041)
(-0.0157072 0.111993 -0.0201978)
(0.0263616 0.090315 0.146366)
(0.0073272 0.0398424 0.0781743)
(-0.0342739 0.0622021 -0.0533982)
(0.111413 0.0754501 -0.0273039)
(0.142998 0.089508 0.00702702)
(0.089899 0.047898 -0.00484288)
(0.0745429 0.00973173 -0.0206016)
(0.132657 0.0759488 0.0302328)
(0.110328 0.0513932 0.0493708)
(0.0777463 0.0114075 0.0143458)
(0.0190867 0.018684 0.0177893)
(0.0489738 0.00231763 -0.0122405)
(0.0724091 0.0473626 0.0752668)
(0.042312 0.0389674 0.078541)
(0.0512102 0.0054924 0.0262809)
(0.0282691 0.01075 0.0972458)
(-0.00540402 0.0102029 -0.190714)
(-0.00310375 0.00833336 -0.218636)
(0.076305 -0.00548831 -0.0776401)
(0.0243858 0.00408938 -0.169435)
(0.0806813 -0.00328406 -0.123945)
(0.0724546 -0.00502338 -0.0988594)
(0.0265364 0.0013909 -0.214031)
(0.0777123 -0.00209672 -0.162537)
(0.127583 0.00756741 -0.032624)
(0.135998 0.0343708 0.01319)
(0.10653 0.00989907 -0.0422473)
(0.143853 0.0131418 -0.0493214)
(0.160476 0.0461132 0.0202182)
(0.122409 0.0628429 0.0139066)
(0.141199 0.0680783 0.0369601)
(-0.0312376 0.0773996 -0.227828)
(-0.0259098 0.081624 -0.274916)
(-0.00779488 0.0484408 -0.248632)
(-0.0146291 0.0906438 -0.257732)
(0.00884556 0.107426 -0.251157)
(-0.0174903 0.0381322 -0.267911)
(-0.00224545 0.0434279 -0.29375)
(-0.0064261 0.0919698 -0.308093)
(0.0169246 0.104622 -0.300857)
(0.124744 0.115036 0.0399051)
(0.191224 0.116697 0.0471884)
(0.151697 0.163024 0.0890408)
(0.178941 0.083178 0.0467339)
(0.133564 0.11671 0.0554371)
(0.200169 0.103202 0.0270569)
(0.156747 0.158979 0.113684)
(0.0839088 0.147376 0.0864037)
(0.0800115 0.14966 0.114775)
(-0.017898 0.115953 -0.22094)
(-0.0104477 0.128879 -0.0731244)
(0.000545315 0.156166 -0.13406)
(-0.00975392 0.123821 -0.270254)
(-0.00260735 0.0957502 -0.101351)
(0.00990101 0.154093 -0.161519)
(0.0537379 0.15579 0.165462)
(0.0179277 0.11616 0.140296)
(0.0645067 0.187565 0.180632)
(0.0542332 0.167277 0.222642)
(0.0240796 0.115543 0.172001)
(0.00961364 0.185761 -0.00391553)
(0.0260288 0.209158 0.0511767)
(0.0122745 0.102175 -0.0291914)
(0.023281 0.163143 0.00432531)
(0.046566 0.172287 0.102581)
(-0.0185078 0.0956324 0.131937)
(-0.0207954 0.107562 0.0355609)
(-0.0143877 0.151032 0.194099)
(-0.0218428 0.114444 0.135992)
(-0.0326342 0.166637 0.0417102)
(0.0778483 0.199779 0.0629948)
(0.0852158 0.173513 0.130591)
(0.130326 0.333184 0.123839)
(0.137096 0.174659 0.0796049)
(0.18176 0.170016 0.098728)
(0.0951815 0.22469 0.184008)
(0.132401 0.315348 0.237329)
(0.137602 0.174081 0.1618)
(0.18599 0.18825 0.187033)
(0.043351 0.175476 0.00960677)
(0.102693 0.0880522 0.231369)
(0.112728 -0.000500554 0.173351)
(0.141337 0.2512 0.243096)
(0.0653261 0.307784 0.0386553)
(0.161236 0.0875608 0.308186)
(0.138538 -0.0352968 0.260744)
(-0.0321788 0.142381 -0.276104)
(0.169517 0.105043 0.07297)
(0.182196 0.105716 0.137244)
(0.130913 0.0516056 0.119961)
(0.0879011 0.0133241 0.0540429)
(0.169518 0.0799596 0.169327)
(0.150612 0.0803189 0.202335)
(0.103484 0.0170931 0.115469)
(0.0852493 0.0477553 0.166159)
(0.0687832 0.00900076 0.0731638)
(0.131945 0.0795755 0.245977)
(0.132669 0.0413373 0.26825)
(0.0936381 0.00564927 0.144282)
(0.119647 -0.00185487 0.262635)
(0.0062708 0.00540942 -0.252692)
(0.0222266 -0.00514945 -0.286388)
(0.0686738 5.77256e-05 -0.128332)
(0.0359594 0.000917333 -0.24929)
(0.0803937 0.000114599 -0.203986)
(0.0868975 -0.00594775 -0.158781)
(0.053299 -0.00828706 -0.28092)
(0.101928 -0.00082833 -0.238096)
(0.150724 0.0185676 -0.0789769)
(0.176169 0.0542806 0.0224235)
(0.121352 0.015823 -0.0971001)
(0.172907 0.0272871 -0.111312)
(0.196794 0.0652479 0.0244252)
(0.151322 0.0792954 0.0557558)
(0.169113 0.0882852 0.074898)
(-0.0175897 0.0720252 -0.336758)