/*--------------------------------*- C++ -*----------------------------------*\
| =========                 |                                                 |
| \\      /  F ield         | OpenFOAM: The Open Source CFD Toolbox           |
|  \\    /   O peration     | Version:  5.x                                   |
|   \\  /    A nd           | Web:      www.OpenFOAM.org                      |
|    \\/     M anipulation  |                                                 |
\*---------------------------------------------------------------------------*/
FoamFile
{
    version     2.0;
    format      ascii;
    class       volScalarField;
    location    "0.5";
    object      Ksl;
}
// * * * * * * * * * * * * * * * * * * * * * * * * * * * * * * * * * * * * * //

dimensions      [1 -3 -1 0 0 0 0];

internalField   nonuniform List<scalar> 
10571
(
3084.36
1369.8
1296.51
1385.19
1195.98
1201.37
889.245
703.1
4891.95
1875.01
2102.08
1062.91
693.15
1176.53
343.011
1224.74
1326.13
1274.1
1470.49
2060.31
3016.98
1523.6
2152.3
3072.03
31.84
20.6451
40.1845
65.2468
45.5638
22.8222
57.5343
100.304
89.5887
74.8604
25.9169
35.7136
38.4541
57.5742
108.507
99.7878
11.8551
21.3585
36.4093
44.308
17.6837
54.3108
33.597
12.7996
35.1425
9.60682
21.9763
5.96341
0
6.52767
20.8024
40.1793
97.9777
41.2085
0
20.1078
12.5825
27.6172
121.42
157.083
17.7893
14.5962
17.901
19.9904
54.8032
21.2773
23.5351
-8.53855e-15
33.6011
53.3121
21.5896
11.2415
6.24209
25.7789
11.6141
39.8698
96.7506
67.5769
17.8997
12.041
20.0905
23.028
117.872
107.856
-1.8055e-15
18.7542
11.0606
13.2973
17.91
16.4285
10.9992
0
-1.79193e-14
11.7929
0.249993
18.1879
6.0008
12.6694
10.1225
37.268
94.8147
44.9607
19.2071
4.35447
10.0293
28.7226
126.255
82.8934
18.8185
14.8594
10.5352
10.926
51.2538
18.9659
7.63448
30.4799
21.0776
9.80783
7.20605
23.8705
5.91547
21.9618
13.2845
37.1127
91.2152
13.9314
1334.8
-5.88892e-15
11.6522
15.451
27.8455
75.2739
99.9097
5878.06
11.0393
17.1523
11.6078
13.8402
61.848
25.2891
10.9293
13.4529
0
15.1836
7.15245
6.71036
9.78082
20.9441
29.8755
57.3748
70.331
40.9879
0
4.56102
12.0795
10.2147
27.0312
96.7863
60.9632
0
27.1351
22.1959
13.0528
45.8955
89.2589
0
13.5377
21.6711
27.3686
13.5166
55.1242
7.0342
0.217259
1.63726
11.374
19.599
54.2293
77.65
43.3576
0
0
11.5052
7.95259
29.7156
100.962
77.7878
0
10.8822
19.5068
15.9391
21.3629
85.4006
0
18.9097
19.4827
4.66523
51.1407
18.4251
14.1545
15.4987
10.5543
6.64861
14.8511
35.8196
57.6747
28.8689
0
0
12.7419
9.96242
22.0251
87.9399
39.2428
4.70139
6.41751
18.3348
21.5478
45.2209
46.9792
29.7965
36.3365
0
22.5942
12.8991
41.6771
27.3953
16.0487
-4.35885e-15
14.2822
33.7283
83.6662
28.0309
-1.33377e-14
12.1336
16.8612
25.2436
144.22
76.8437
30.8351
18.3106
17.7156
36.8318
60.5424
15.6542
-1.14341e-14
16.1885
44.4504
10.1591
-2.1049e-16
6.70416
27.2027
2.22047
11.6131
31.5675
70.5041
14.3178
-1.97646e-14
9.56001
12.2499
20.0221
134.154
59.4441
12.2233
26.554
18.3306
46.8897
60.2385
16.3175
25.7939
14.2717
22.4092
17.795
21.7205
33.8651
1.83683
13.5698
13.169
45.0593
75.0304
41.3993
19.7044
0
14.5544
32.2526
158.596
71.3409
7.05841
21.4118
28.9806
76.4755
88.8543
9.78138
3.85735
27.271
21.0119
62.5716
26.0447
20.4277
10.232
7.67229
23.7467
52.5215
77.8687
21.9003
0
0
11.2586
29.9182
152.819
83.1236
9.26119
12.9096
29.3176
54.6384
94.7827
-1.85421e-14
32.2466
14.7155
0
25.8933
22.2165
10.5222
33.1574
21.8903
15.4681
47.7897
113.401
24.3373
0
3.1051
15.2804
23.7256
145.526
64.882
6.39342
26.0355
18.3655
17.4281
75.639
25.9135
18.9042
11.3003
0
23.128
20.7232
20.8707
24.6508
0.250748
15.0065
57.6595
157.326
15.347
0
20.3591
12.7853
21.6665
161.826
85.46
20.8876
21.4193
20.1657
11.8288
34.5449
38.9102
19.3778
33.5774
20.6385
42.341
10.5098
6.84131
12.1289
7.11827
9.15402
79.4842
185.266
21.9316
0
42.8414
16.498
18.7732
171.572
105.242
20.1178
14.3807
19.4661
13.0941
57.2573
25.0437
32.2465
-4.42489e-16
31.2434
30.1661
8.01113
21.9184
38.9631
7.47235
7.45633
92.429
277.55
1.64574
0
7.46164
21.0614
14.8384
211.703
171.048
13.2923
7.10341
17.2156
12.5275
62.1651
28.9492
33.3236
0
0
16.8597
15.41
2.14033
5.14182
7.48162
20.0928
159.01
445.26
885.039
0
-4.50344e-16
9.69444
31.7898
319.125
197.302
8.12552
16.8937
13.5679
9.06081
72.6603
19.0007
-1.12367e-14
43.4123
0
33.9578
7.65745
0
34.8753
0
18.4907
238.541
306.405
1033.53
0
12.0941
14.5571
90.9453
632.008
603.253
21.1646
9.71588
13.709
9.77336
129.999
8.41655
-3.58181e-15
59.031
3.83248
24.144
3.44081
17.4571
140.906
0
24.9964
164.522
70.7168
748.655
35.8407
21.4601
10.8399
63.254
433.641
1081.74
0.249784
12.7936
20.6743
29.5187
405.427
4.12288
28.7165
-4.14727e-15
0
31.4289
15.4938
12.5474
128.341
15.691
25.7253
130.382
61.315
319.686
24.954
7.48133
9.52339
42.5827
344.787
1697.3
6.37264
13.2228
14.397
37.1
940.962
12.3633
36.2348
8.25135
27.9181
12.0381
23.2427
27.9118
333.279
7.86477
32.7517
77.463
44.726
166.422
0
0.25922
21.1245
26.2338
56.9319
691.69
6.7363
23.6453
12.5227
77.6206
1067.57
15.9042
18.0519
10.6633
0
23.4306
25.4962
78.8087
514.548
10.6729
23.0578
47.9453
29.4833
111.377
9.23637
5.91769
17.5991
24.318
24.793
462.264
6.32187
10.9503
19.3286
64.046
578.336
16.678
22.2744
0
26.9469
66.5508
15.3171
58.6713
277.757
8.36097
37.1807
35.5579
25.9421
70.1065
0
7.76333
12.4695
20.5887
26.141
501.759
12.2442
47.9261
32.9327
65.7983
468.139
20.743
23.516
27.2426
57.7901
-1.89023e-15
10.9205
12.5801
178.212
0
27.0791
28.864
27.1617
85.7364
0
12.693
15.7905
19.0999
20.072
428.909
-7.5272e-16
85.1168
82.0955
40.3604
518.634
382.02
337.762
12.8504
149.52
-2.10353e-15
38.2981
25.7148
136.461
5.68498
27.5149
18.3907
27.0163
57.9544
0
3.40804
27.2641
14.5378
22.5485
355.714
6.76922
54.7572
91.3655
27.9241
456.518
112.192
196.063
52.8078
185.924
-9.50336e-15
8.93363
75.16
104.733
0
22.0406
20.6235
21.0037
33.259
0
14.019
26.6967
26.2369
34.9719
447.97
45.2499
81.9436
94.2237
71.7127
436.506
51.7876
95.3048
45.5907
62.8552
21.9576
15.176
73.0028
58.289
10.369
32.1942
17.3038
21.8746
27.2125
53.3948
15.8708
32.1775
34.2006
35.6018
346.014
57.3803
85.3356
99.3176
48.3725
360.904
177.678
184.202
77.0346
118.742
0
90.2516
58.4639
86.532
8.06017
130.364
30.8781
29.5122
39.2514
16.9703
-7.62492e-15
40.742
37.4286
65.1501
559.283
62.7949
81.8351
86.1147
37.5489
354.746
76.6668
158.711
95.799
82.2521
21.193
74.502
63.7385
72.2858
17.2828
63.9585
47.5806
27.2952
27.7661
0
29.8643
38.625
42.1568
85.8356
466.468
87.2469
55.3465
99.9265
54.0756
770.413
22.8204
61.4583
116.812
432.912
112.27
202.816
243.108
83.7537
43.1108
51.5237
42.4347
27.8992
33.1165
26.4281
31.3675
39.2121
47.1528
99.4737
451.256
28.2967
71.9328
97.9506
269.854
1130.92
477.614
114.701
266.194
768.314
1042.27
845.664
465.829
127.262
100.236
76.0209
88.9583
32.8448
56.9997
17.663
3.60342
38.1922
48.0936
73.1554
574.522
16.8953
62.002
58.465
143.624
652.677
187.931
106.424
311.806
267.824
316.272
81.2699
642.205
133.132
480.4
92.4288
73.6329
52.572
59.8582
38.1218
67.0355
32.2759
48.6197
52.1052
465.4
89.3048
48.5047
73.8461
57.2424
392.806
140.957
141.784
244.463
2612.01
254.521
127.194
487.921
223.019
509.776
65.7145
78.326
57.4449
85.6729
29.7516
64.3707
56.5029
56.8668
67.1336
307.569
46.0271
67.7744
44.0211
68.221
285.061
108.949
76.451
271.413
734.344
319.525
96.0983
316.813
269.295
763.032
73.403
71.8591
74.0364
110.25
101.484
37.7136
57.9007
65.5563
37.6566
188.222
31.7162
66.295
38.6489
34.0873
213.015
94.4766
69.5466
179.437
420.648
376.895
302.653
270.966
491.4
309.894
81.4613
76.5268
121.619
321.864
103.258
60.3412
42.6062
38.2718
46.0764
185.828
7.52098
70.5587
46.6274
37.1908
200.169
175.54
53.7061
196.894
356.819
468.797
276.876
172.238
496.294
234.563
72.1026
123.616
209.731
533.839
155.815
67.2173
42.4371
105.704
132.59
184.161
15.508
73.9217
67.8807
139.276
232.012
122.973
107.323
191.45
201.95
456.908
52.8842
35.9835
656.068
65.0192
211.214
307.861
266.625
1581.37
65.6701
72.8983
70.1643
155.919
168.066
261.089
6.07335
73.4852
82.1535
72.1218
289.821
229.561
89.9622
56.7568
249.963
181.972
78.8111
78.1671
377.053
30.5923
148.319
106.886
389.796
1258.91
-1.86284e-14
88.3767
91.4373
85.5544
168.174
170.753
15.6259
86.8411
65.9139
104.258
321.658
160.066
99.5226
79.2208
279.033
171.235
89.0478
20.0873
218.303
59.7271
103.401
93.2347
302.688
567.328
96.4761
91.4566
54.8883
68.3467
185.611
56.4362
28.1913
71.7153
72.5122
134.05
260.621
266.846
58.4348
71.7568
164.603
129.054
98.8005
74.7113
147.158
40.0428
51.9804
83.4811
159.787
132.501
29.4071
51.6307
38.1447
79.9025
120.552
32.3578
46.1031
69.3583
60.1631
84.5849
37.9863
118.85
58.2411
54.8545
92.515
143.839
146.877
79.1122
67.6608
40.5668
36.439
82.4832
114.646
221.837
49.6526
78.0465
33.2437
58.5468
66.2388
40.6135
27.3122
111.125
74.8928
73.6562
65.8504
52.1679
55.8213
35.0379
51.2082
166.5
101.074
107.272
54.7526
29.2052
24.0344
87.9183
191.651
318.378
45.5863
71.1677
27.1739
50.9566
44.111
70.747
44.9362
113.143
54.7419
58.6012
67.5832
57.7912
49.9824
25.9402
48.1661
222.167
61.3371
69.37
69.5762
19.9436
23.076
136.919
170.722
521.146
34.1051
42.3156
40.612
42.6416
36.5109
108.274
58.4516
117.624
42.311
46.4905
50.9773
31.4569
25.5713
78.5793
17.2267
286.483
66.5832
88.6066
25.785
6.16273
23.9946
106.781
173.917
326.965
27.0701
52.192
44.6442
36.3831
44.7632
444.571
55.7509
61.0775
41.2469
7.30003
45.4165
24.7058
38.867
44.9462
11.3196
143.128
70.8446
54.516
32.0846
162.344
23.5228
64.7241
144.044
338.398
25.6721
47.1292
23.7955
24.8198
35.9739
462.397
210.402
44.9563
28.1813
14.14
55.8892
21.781
38.7476
20.8001
36.7058
46.5298
36.1336
82.6893
44.5573
149.783
33.3866
58.4274
124.225
665.468
278.091
208.004
51.1344
35.4874
37.7739
251.154
249.669
106.276
33.8725
37.3109
129.835
27.2027
31.1237
29.3267
31.378
17.4169
39.5001
38.1896
15.3965
45.5544
57.1119
52.3471
103.261
664.684
409.462
119.006
135.338
46.901
67.1898
166.87
436.197
61.344
54.5855
47.5815
100.881
10.7929
30.1575
28.3549
60.3228
24.338
48.7847
41.4793
55.824
5.72749
52.1876
41.0565
22.7065
492.212
22.0203
57.2952
65.2508
46.0281
46.0847
75.2092
61.3458
23.1342
32.0956
68.2531
67.977
84.7115
23.071
14.789
44.1872
37.2129
14.8522
51.2301
77.1449
15.5999
56.9092
33.2498
12.3127
302.77
0
27.7428
55.627
53.792
52.2598
97.7198
286.695
17.435
76.6716
59.2926
155.24
104.221
61.6966
72.8484
59.161
22.0862
5.03987
6.64564
72.2303
6.81551
30.5607
37.5772
21.7319
399.672
0
19.669
39.0968
49.1909
69.9415
117.914
8.74482
114.498
60.7618
98.0949
146.537
135.44
12.1419
63.3579
229.441
0
92.1335
0.430037
147.696
56.4261
66.7887
57.0484
34.0068
318.711
0
72.888
82.5973
99.8147
97.3651
247.91
0
173.278
141.361
14.8164
11.8871
6.47799
322.024
66.1418
-1.07235e-14
0
1.09133
100.711
48.0612
9.49892
95.7369
196.483
31.134
261.362
0
6.65707
108.055
112.705
19.3945
3.57838
4.14184
17.9367
34.7339
0
12.7023
0
5.27014
0
0
-2.31371e-15
0
0.409207
24.0927
5.98927
15.8316
25.1228
16.5565
119.256
0
6.57226
26.4505
46.42
7.34706
-3.96034e-15
0
2.16794
4.73127
0
0
5.83384
0
0
-1.20513e-14
0
0
0
10.1714
0
0.744265
3.15508
6.52486
114.412
0
4.12468
0.77546
5.15966
1.93008
0
0
0.784723
0.737575
0
0
0
0
9.73013
0
0
0
0
0
0
0.887522
0.679958
2.57618
120.697
0
0
0
3.00038
0
0
0
1.31709
0
0
0
0
0
0
0
0
0
0
0
0
0
0
0
72.6362
0
0
0
0.705067
0
0
0
1.36472
0
0
0
0
0
0
0
0
0
0
0
0
0.748816
0
0.688751
43.8883
0
0
0
0
0
6.38778
0
0
0
0
0
0
0
0
0
0
0
0
0
0
0.746548
0
0
-4.38812e-15
0
0
0
0
0
0
0
0
0
0
0
0
0
0
0
0
0
0
0
0
0
0.703408
0
0.25541
0
0
0.0100395
0
0
0
0
0.561623
0
0
0
0
0
0
0
0
0
0
0
0
0
0
0
0
0
0
0
0
0
0
0
0
0
0
0
0
0
0
0
0
0
0
0
0
0
0
0
0
0
0
0
0
0
3.09894
0
0
0
0
0
0
0
0
0
0
0
0
0
0
0
0
0
0
0
0
0
0
0
0
0
0
0
0
0
0
0
0
0
0
0
0
0
0
0
0
0
0
0
0
0
3.33169
0
0
0
0
2.05954
0
0
0
0
0
0
0
0
0
0
0
0
0
0
0
0
0
0
0
0
0
0
0
0
0
0
0
0
0
0
0
0
0
0
0
0
0
0
0
0
0
0
0
0
0
0
0
0
0
0
0
0
0
0
0
0
0
0
0
0
0
0
0
0
0
0
0
0
0
0
0
0
0
0
0
0
0
0
0
0
0
0
0
0
0
0
0
0
0
0
0
0
0
0
0
0
0
0
0
0
0
0
0
0
0
0
0
0
0
0
0
0
0
0
0
0
0
0
0
0
0
0
0
0
0
0
0
0
0
0
0
0
0
0
0
0
0
0
0
0
0
0
0
0
0
0
0
0
0
0
0
0
0
0
0
0
0
0
0
0
0
0
0
0
0
0
0
0
0
0
0
0
0
0
0
0
0
0
0
0
0
0
0
0
0
0
0
0
0
0
0
0
0
0
0
0
0
0
0
0
0
0
0
0
0
0
0
0
0
0
0
0
0
0
0
0
0
0
0
0
0
0
0
0
0
0
0
0
0
0
0
0
0
0
0
0
0
0
0
0
0
0
0
0
0
0
0
0
0
0
0
0
0
0
0
0
0
0
0
0
0
0
0
0
0
0
0
0
0
0
0
0
0
0
0
0
0
0
10089.4
8152.18
9756.35
10351.3
7502.05
10132.1
8946.17
10443.4
10937.7
12860.2
9960.96
10493.4
9526.74
9848.66
8850.25
8757.1
7884.36
7893.71
9426.15
8265.76
10145.6
10775.1
11187
8435.12
10108.3
11185
9789.75
8263.39
9761.21
9863.74
8367.69
8344.73
7702.89
7940.92
8403.78
8177.13
10050.4
10560
10117.3
10381.4
6343.93
7231.35
9285.1
6447.33
8770.41
10122.5
10748
9377.03
7341.86
9971
9292.03
7953.49
7601.47
8694.33
8241.3
8388.73
9379.81
9074.02
9983.17
8999.85
4940.37
9750.76
7911.1
4668.08
7245.13
8142.98
7740.65
9783.54
10845
10381.9
10938
10500.7
9215.33
11066.2
9741.82
9381.19
9608.15
8923.43
9178.68
9341.31
6847.32
10131.6
8107.75
8001.85
10372
6851.1
7896.95
10963.4
11051.2
10358.8
9738.2
7120.8
10790.7
8431.11
5403.85
7455.57
1082.6
93.6078
1564.18
1185.33
1421.61
552.004
427.386
764.051
1119.53
931.77
1479.1
1446.52
1713.89
1693.25
2654.65
1281.12
201.381
1293.45
1201
1105.16
115.52
217.104
237.489
859.771
1829.47
1742.7
1974.32
2284.62
588.806
887.464
528.816
2023.73
769.946
1035.98
1789.18
1222.56
519.741
472.846
532.686
1959.87
2206.17
669.3
284.38
132.441
1103.88
732.513
3047.72
1073.02
1083.6
1586.12
1333.76
203.077
27.92
163.969
1399.76
741.412
1196.88
1937.69
1133.19
535.859
768.802
347.557
305.907
1796.53
3248.29
3717.67
728.829
206.057
2806.7
1055.38
180.822
1540.88
267.032
1783.08
1946.35
282.897
182.864
163.675
1819.93
2113.61
1011.18
1374.15
571.299
2146.61
51.6591
16.5684
23.6195
7.66721
33.5139
3.84868
17.4368
36.865
23.258
41.6548
32.6194
11.0992
22.4231
69.8953
-5.74874e-15
21.1299
24.3939
35.0337
25.2799
15.5246
42.6493
19.061
31.008
6.46351
58.1424
42.487
38.7465
5.24486
26.8891
0.283193
22.4888
44.6635
60.7198
29.4417
21.1458
24.542
15.5366
26.6101
16.6146
52.0723
32.5263
47.4072
60.6936
19.4895
31.5013
31.5662
21.3087
11.5706
7.32852
39.2939
57.7502
62.6976
44.5773
55.4687
12.8375
26.9589
12.7495
2.04283
34.2795
15.7674
20.481
0.954007
23.1211
49.6072
16.2768
23.0312
14.8252
33.164
10.9475
13.2759
25.108
52.2176
53.3761
34.5962
0
25.428
34.25
18.2504
12.797
0
17.9972
3.17988
0
28.8059
28.9938
13.7777
1.76067
8.15661
17.7914
-1.13056e-15
5.16484
18.1239
16.7961
6.85548
-3.19939e-14
17.1915
20.5
0
16.4975
14.0398
15.949
30.4645
20.4311
26.813
31.1964
57.8093
20.2259
39.9824
18.6383
4.44689
25.483
0
0.400122
48.4648
38.9352
41.3307
17.7379
23.8896
1.96841
34.0428
40.1366
0
8.60008
73.0867
4.802
51.9686
104.519
98.0124
0
4.90436
0
10.3503
19.3305
23.1371
95.4496
107.456
33.3483
75.1742
25.3026
-3.77641e-15
6.6334
9.59843
24.5858
5.90209
7.67434
20.121
27.4729
12.3065
9.0636
6.81514
25.6189
33.9347
5.44452
0
22.0345
-2.27837e-14
2.19758
18.8172
0
58.264
12.6942
0
16.5086
0
41.9515
24.1677
1.02035
11.1158
14.513
-1.26549e-14
18.6534
27.931
14.9727
7.25306
43.8696
31.0953
17.9482
19.3288
32.2765
7.87285
11.9047
2.14698
0.987953
34.9368
17.6659
43.4275
15.751
14.7937
24.8432
38.6829
25.4493
12.761
28.9365
10.3882
24.9578
34.9092
37.6214
8.09689
50.1527
27.6933
21.6154
7.46315
0
17.9999
15.8109
20.5824
17.6977
83.011
42.2206
31.169
108.033
86.2305
7.09819
7.53075
0
17.3471
-4.45124e-15
122.553
96.0083
98.5838
4.81406
88.4161
12.5175
0
8.01187
9.38048
13.3101
15.5551
30.9052
11.0258
12.9998
44.8246
17.3819
34.4333
7.13717
22.0383
16.8705
9.09676
34.5868
38.0733
18.247
19.0521
0
37.4695
37.3717
32.2233
0.841559
0
20.1009
33.5751
0
11.7032
41.4108
18.5211
0
20.3416
28.5036
19.3234
37.3754
27.8531
6.13435
7.396
0
30.1068
16.765
0
0
5.12721
19.315
22.565
13.9499
18.6479
30.3514
33.434
11.767
5.28961
10.6072
16.8003
22.3689
17.2129
0
17.9241
16.3198
12.7991
33.5145
-1.42529e-15
0
12.2394
21.1619
0.572372
23.2628
29.8569
31.042
63.7337
60.5316
178.804
18.3989
7.51541
38.7404
8.43108
21.1247
7.16521
41.3786
99.483
146.639
88.061
0
0
26.4542
62.0475
21.5525
15.9595
2.19714
19.0804
6.54543
48.6491
11.9682
19.3148
1.10723
56.2465
23.0192
45.4177
104.128
24.8018
20.011
21.4971
-1.92369e-14
32.6245
16.7507
0
0.23632
34.5626
12.6305
8.28834
21.813
8.44818
-1.20541e-14
14.1623
-3.46812e-15
16.0468
35.8357
20.6481
8.46427
12.5421
14.1869
8.38107
-3.78841e-15
6.36041
0
13.5187
13.9252
21.5574
13.1217
5.48707
24.3548
6.92643
27.9027
19.1688
17.0028
25.627
11.1585
7.76606
17.8925
24.4995
33.3611
26.0723
29.6935
24.5049
13.747
8.66926
0
44.626
5.82874
0
36.5936
97.076
60.1262
605.677
59.5771
0
55.1052
25.7024
8907.8
4967.07
27183.4
6.429
43.4068
11.3869
154.705
7.73484
31.0482
11.765
13.0012
10.5867
551.158
59.6583
63.3535
68.5616
38.5144
98.3429
17.8704
18465
1252.9
5872.02
8.22372
200.622
3.8954
58.6419
13.8662
16.1012
18.2349
18.8724
6.44367
26.8703
8.96502
15.3576
35.0472
61.3867
19.8274
1.25247
19.2788
40.4979
15.6882
9.90645
39.6987
34.4537
12.8861
20.2908
34.7923
14.8835
17.723
20.9821
15.7649
20.5074
11.1858
7.67187
-3.08156e-15
4.86658
17.0372
28.0068
0
6.92589
48.2038
0
11.1067
28.0448
6.37785
12.5436
20.7146
6.3202
23.5632
-4.18358e-15
0
40.5723
14.0046
53.2701
11.3487
20.024
0.45337
26.9078
4.90644
6.32318
-2.5285e-14
16.8375
39.2501
10.5386
10.8382
27.8573
11.3134
42.2629
0
68.661
0
0
0
0
0
10.5623
21.4556
22.0862
5.46314
22.0218
8.34685
9.15478
21.5276
20.0769
28.5447
5.56604
34.6429
12.9453
0
7.33888
0
2.25773
0
0
0
12.1979
45.8616
0
14.2398
6.47
9.42541
87.2018
5.07336
53.3523
14.4985
62.7491
14.7336
0
2.52111
0
0
0
0
0
26.1974
0.53994
23.0392
31.6803
28.1075
20.2161
13.9855
11.3346
29.9418
59.7931
7.39883
10.6162
15.6338
47.8464
24.674
25.6797
0
59.2008
0
0
0
0
27.946
50.7346
21.1662
-1.9521e-14
46.8045
0.196277
18.0627
0.39121
21.8921
17.8862
14.9148
4.38721
13.8282
5.08024
24.4622
21.4113
25.9576
7.88043
24.6252
40.2553
19.7952
28.2221
26.3532
42.7378
6.14436
0.342751
0
0
-9.32966e-16
13.5976
55.1481
33.2183
11.6913
-2.9629e-14
34.9038
5.87843
15.7938
18.9643
42.8143
15.8089
32.2467
22.0724
26.7787
19.9611
16.7699
8.76513
19.3906
-8.62057e-15
5.83524
0
0
0
18.1564
-1.29123e-14
11.9715
-1.48991e-15
0
18.2769
0.938598
15.9133
6.92334
25.9096
-3.13371e-15
17.857
10.7208
0
0
0
0
0
0
0
0
7.55979
0
33.3649
7.92646
11.2043
101.448
9.88827
87.9096
9.7672
131.625
19.2672
0
0
0
0
0
2.34147
0
12.1634
53.4452
15.2368
22.2661
21.5597
14.7448
16.5171
15.7251
37.8407
102.849
40.4022
9.25921
19.6988
57.1762
28.374
9.88732
1.28073
38.1107
0
0
0
0
43.6704
55.8741
25.3191
6.27535
40.3016
18.6374
39.3858
25.4481
-2.59711e-15
5.62315
18.1612
23.6056
9.03712
5.12365
14.4222
-6.80525e-15
13.9253
24.7924
69.5226
34.2735
7.14875
6.25343
7.93161
69.005
9.92074
0.25395
0
0
11.0569
19.5844
12.7278
18.8756
6.81296
9.01361
6.3514
13.2462
19.9954
0
15.2913
21.696
11.9434
15.0919
29.3759
17.3908
18.7471
15.0654
41.9249
0
-6.91656e-15
16.241
0
12.4529
7.68154
18.0153
0
56.7425
-2.02095e-15
23.3726
4.51862
0
0
0
0
0
0
0
10.3129
0.319686
25.4111
10.8763
8.0319
13.0767
149.583
11.1842
108.025
13.37
118.803
21.9531
-2.439e-16
5.39645
0
0.190971
0
0
0
-4.17489e-15
0
38.524
15.0007
31.6159
18.5915
14.4871
7.52436
17.2087
107.579
1.43116
11.5873
34.1486
77.0792
13.0952
19.2365
123.358
27.6283
-1.31334e-14
27.1568
29.3159
22.0328
18.4241
14.8627
-8.776e-15
23.5546
30.0731
20.8906
45.8329
29.3895
9.95978
47.8662
-2.12676e-14
-5.13534e-16
32.2984
45.0697
30.2773
20.2913
16.0955
7.55818
22.1828
6.72337
0
0
30.8999
0
0.704153
6.41216
12.542
6.7992
-3.39103e-15
46.692
22.9623
3.63401
11.6768
16.6663
9.58914
17.3421
-6.48624e-15
6.02236
12.8307
23.357
24.8524
0
46.7826
-1.82666e-15
33.2987
-4.34607e-15
19.1623
28.5175
13.4935
18.0579
48.9893
21.3136
6.17985
7.29356
25.8273
-9.18151e-16
11.6069
-9.42233e-15
105.999
100.035
126.75
131.412
14.4145
-4.42072e-16
19.558
22.3604
42.691
12.7642
22.935
31.2741
33.3154
74.4534
14.8295
12.7763
15.5691
81.7094
25.4492
36.831
102.378
14.5035
40.4904
41.8489
0
25.6591
12.9109
23.7777
17.1826
-1.31505e-14
14.4483
36.7483
0
-5.5807e-15
13.6708
-1.27376e-14
0
25.1561
19.0592
0
33.027
24.7898
12.9126
8.6216
7.09627
18.2793
16.2445
-1.36624e-14
0
-4.57925e-16
60.7033
21.777
27.8573
31.7177
34.1392
13.8195
30.3265
33.141
0.489448
22.4399
15.9648
28.6586
17.8717
22.1115
25.9518
13.4291
13.1735
2.04802
23.2874
16.8897
41.4769
29.4675
13.8537
19.5115
20.7417
22.5511
5.14684
20.9558
6.11074
13.1246
21.9497
0.20896
42.1839
-5.49664e-14
105.41
90.3392
39.5177
118.644
14.7259
14.8585
20.8952
24.4507
22.5994
0
20.8365
-2.04856e-14
39.3328
108.153
61.0072
71.2468
57.36
89.4917
13.2082
57.0491
101.876
24.3844
38.6374
6.26121
22.7828
13.1327
31.9716
23.8865
32.2721
23.6557
45.5674
26.7655
11.2681
-4.35142e-16
37.0068
-2.39142e-14
0
38.1584
6.60635
0
28.2692
6.11542
-7.78954e-15
16.4857
33.8121
9.36351
5.96428
0
4.06978
-1.85432e-14
0.508709
24.2805
22.4499
20.8292
13.3334
25.601
30.3465
1.12817
22.7921
18.01
51.036
11.4126
27.7511
12.6898
24.015
31.1295
1.39576
8.88782
0
1.33773
4.95333
0
16.392
15.9819
20.9935
22.5187
24.6746
0
0.829194
-2.64667e-15
0
0
0
21.8758
141.541
77.7404
61.098
130.445
0.526236
0
29.5003
25.2181
22.7654
30.9044
26.8024
29.6155
20.6165
80.8725
39.4799
49.7757
26.6261
53.7135
32.8132
55.4117
91.2174
16.0266
0
13.5509
0
33.3665
13.3506
24.132
33.893
16.0368
1.9348
39.9583
17.7876
29.0366
5.34122
-3.17125e-15
0
13.2489
15.5967
0
44.096
25.8908
34.5342
8.41737
22.0192
17.2714
10.6573
3.5635
14.55
28.9821
0
21.3381
29.0288
14.4345
50.4807
16.6609
21.9194
6.81484
27.9011
16.7605
5.88165
14.9668
-1.07761e-14
14.7325
24.2019
13.5388
0
-2.56974e-16
0
23.3347
0
23.1842
12.8416
4.82663
0
22.1825
7.55915
0
12.6665
25.3986
0
10.2207
8.10033
54.5412
128.18
63.6661
97.4807
156.586
14.1849
0
13.0752
-7.14345e-15
5.68481
11.0256
9.26348
35.9644
6.1486
54.6007
43.8151
27.0242
48.7603
85.4701
23.689
37.792
48.3931
0
0.75219
41.8369
0
40.8658
31.6103
33.202
9.31815
23.7573
9.36926
25.3305
4.10978
37.8877
39.237
30.2061
23.034
23.4738
43.6645
24.4443
16.2283
8.11376
13.2644
15.2368
0
7.07706
18.8321
0
0
0
0
14.6113
6.02432
12.182
19.309
41.8228
12.8706
32.3498
11.526
36.4288
29.589
23.787
-6.69932e-15
28.7486
14.886
56.237
23.2286
0
23.0686
0
10.8966
23.6792
26.6233
32.3862
40.8965
2.23216
22.5377
40.7207
22.7303
17.6201
0
19.188
22.6329
33.6802
162.261
75.4566
17.4676
181.671
14.827
35.4005
25.7927
-1.47719e-14
26.8131
19.3157
14.3585
19.8129
33.5054
37.5131
40.4977
8.72184
20.0148
35.0954
24.1166
25.0719
33.524
14.3853
15.254
33.4426
-2.19179e-14
18.1639
7.444
0
20.6846
-7.91246e-15
12.9474
22.2677
0
0.723045
-1.2574e-14
14.9223
0
7.85779
21.6109
24.328
21.4061
19.405
19.535
12.5712
0
0
3.11137
0.589899
0
0
0
32.9587
12.8115
5.72392
25.3207
39.3363
12.8599
6.70119
0
17.4819
5.70194
13.4617
23.9727
26.6945
40.3611
-1.271e-14
3.41346
17.3204
28.5136
4.40106
2.94867
-2.13247e-14
0
32.1296
24.1348
34.007
30.5141
-1.91836e-14
1.38835
-2.68224e-15
0
26.5271
8.39754
34.926
142.239
87.2836
72.077
154.896
0.528088
0
5.13409
0.717184
13.034
21.7203
26.5508
22.577
14.0915
41.7513
-8.07707e-15
27.2768
16.0474
31.0253
31.2577
21.8263
4.68616
2.06856
28.1326
24.1252
24.0997
14.8237
16.7152
24.8042
25.4367
0
12.898
22.9672
0
22.6765
29.7028
44.3707
21.9457
42.856
5.77951
0
48.9396
50.9956
32.3139
17.9165
37.487
41.2316
35.7485
0
19.5435
0
17.5143
52.1162
14.1565
0
36.947
18.8621
8.60858
11.5193
27.6353
8.71553
51.51
22.9754
19.9002
19.8766
26.0904
0
41.8434
14.7958
0
15.4097
-2.46552e-15
0
6.20458
13.3864
0
12.8358
12.442
0
8.72328
8.84098
0
9.71292
5.11919
23.9205
223.143
163.85
54.6117
213.798
15.2902
0
28.4627
20.0246
21.6012
1.61209
20.6739
33.9574
31.953
37.4768
16.4239
20.2389
17.131
21.6887
30.4514
0.314364
21.2125
15.1199
21.136
20.2564
23.7318
32.1238
31.9475
-7.21497e-15
8.62639
69.8859
17.9243
26.2777
0
29.8234
22.5378
1.66273
5.04834
29.2079
12.8949
0
9.0659
28.2899
24.1933
28.4638
-8.10722e-15
6.39325
41.5058
10.5607
11.5653
23.4423
46.4271
11.1326
34.0521
18.8568
9.78345
14.8594
15.8581
2.39827
23.6115
10.6147
25.5767
15.2566
11.7255
60.2017
102.203
29.4966
-9.11214e-15
16.6691
0
0
11.2974
29.3465
5.00121
19.1517
12.1423
100.045
211.993
51.4086
0
9.0508
0
9.26849
13.5562
17.4242
215.51
141.24
41.8785
240.239
0
0
15.5394
-1.30098e-14
14.2786
13.6417
18.8362
14.7418
4.1663
25.9696
24.407
18.7425
39.4955
28.5314
54.5698
27.1409
32.2018
44.0977
29.0305
19.8305
23.0809
14.6595
2.25724
0
44.0766
0
12.3489
8.98586
23.2657
16.3182
0
67.5066
0
23.8733
10.5343
0
13.6054
11.4109
-4.6677e-15
9.93231
19.1691
8.12375
-7.4149e-15
14.8664
10.3529
29.0827
0.637563
39.5505
10.1632
15.7161
21.5417
24.5957
19.4703
0
36.2439
76.8783
142.539
21.9151
25.7628
80.874
262.34
151.69
329.148
17.2343
25.1329
6.72078
16.9689
0
6.67191
1192.31
552.996
860.875
793.967
469.07
14.115
0
0
4.39564
2.90412
129.95
283.534
373.873
183.889
345.952
12.3754
5.4984
9.46127
13.314
26.2671
10.3373
11.9789
7.08909
29.1704
29.9516
30.6645
4.88741
18.4125
48.6093
28.9172
28.8709
108.119
27.6942
0
11.4886
0
8.86971
26.9012
0
35.999
24.366
12.889
20.8234
0
72.4217
37.3061
23.4498
0
16.1885
6.66304
0
14.9817
13.1744
0
0
0
26.8972
0.343023
0.538109
0
2.00295
0
20.8256
25.5053
13.8381
41.5869
12.7938
-7.7005e-15
-2.08972e-15
88.2637
147.588
496.26
48.2902
88.3833
207.824
644.134
457.951
549.451
8.96724
0
20.2961
0
0
14.1304
657.851
343.824
1022.24
762.71
968.474
7.10471
21.1734
0
-2.13347e-16
5.98576
381.454
444.119
812.453
644.414
607.907
0
16.0602
31.631
26.3767
26.7119
12.9636
14.5472
0
-2.04463e-15
40.8326
26.8203
9.84944
9.23985
73.0364
24.7965
21.3866
283.174
27.3964
35.3007
10.8107
0
27.6446
13.936
0
18.5274
25.0896
27.0452
16.6089
0
10.1817
29.6355
0
0
29.4557
0
0
22.0344
20.4096
3.68427
19.3649
41.9598
13.0781
46.0232
0
47.6186
9.83329
2.74803
16.2347
9.08725
7.10862
34.8142
30.6843
13.6829
12.2557
196.155
388.991
750.632
94.4053
189.83
398.814
734.323
630.033
628.843
9.11539
5.79484
-6.128e-15
20.3767
0
6.92309
666.447
1347.43
422.657
495.242
1510.12
2.95485
9.25879
0.962971
13.8725
8.77803
1069.12
822.487
1224.7
1637.81
1634.31
0
16.7047
17.7259
0
9.56832
6.75463
14.9616
12.3851
37.8536
120.791
7.83946
20.8288
36.3477
201.591
31.1746
9.36682
659.672
1.08637
28.2748
26.9635
25.538
9.79978
6.11036
-1.4737e-14
8.07325
18.2915
21.5649
47.8705
0
23.8672
4.09367
55.5961
50.397
16.5944
-6.00828e-15
-4.3689e-14
31.1137
5.01752
27.8675
9.03672
-7.76981e-16
13.909
23.122
80.739
59.0117
16.0361
14.3146
23.7058
11.6355
17.4761
-1.94485e-14
25.4907
21.7473
20.0404
203.234
377.307
592.573
288.457
425.114
274.383
400.303
444.762
252.73
5.18234
24.994
6.95822
17.758
0
0
309.595
943.319
148.438
234.271
531.481
6.81441
14.3682
0
0
2.95525
1480.96
4418.11
1471.93
1101.57
6923.76
6.29968
40.4447
6.98701
11.9967
14.6144
7.76956
7.2154
0
7.87113
169.657
0.57848
22.617
60.5111
360.859
8.09126
34.4382
1408.1
48.3359
-5.51221e-15
24.7398
0
24.4054
6.57188
0
22.7619
0
6.34476
18.0629
24.7592
50.2381
15.0565
14.5982
0
47.229
20.7885
0.958673
22.4453
18.1483
7.31302
38.9948
25.0191
11.2072
49.9163
130.191
158.507
15.5374
0
14.1022
22.2713
2.91006
11.7521
7.74423
16.567
18.2646
286.335
278.919
168.626
383.395
284.84
208.079
140.496
125.36
165.091
23.6896
0
2.59147
20.6159
25.2816
4.52164
181.993
537.347
76.8983
167.672
440.859
21.3992
0
44.183
-4.14523e-15
9.24594
760.26
2296.46
481.731
594.377
926.036
15.3191
32.1679
14.7184
12.3744
23.7877
20.9377
7.40163
3.38937
23.7353
481.287
11.8399
100.951
38.7034
517.54
36.78
234.311
1041.26
0
5.43722
6.4024
10.1261
-6.93758e-15
2.92163
16.0843
21.9911
0
15.3016
17.1046
48.8508
0
0
4.99343
0
24.9574
28.8686
0
8.39619
9.16043
20.8235
69.7915
0
59.4588
134.229
119.595
261.997
46.0722
8.86834
31.547
18.2658
14.785
14.9188
23.9872
0.679384
5.66671
329.833
101.669
96.5805
525.854
364.088
87.4339
81.4254
121.063
52.0653
7.28431
50.9189
0
3.55869
25.4006
4.45861
148.228
375.746
134.299
138.382
362.164
7.22816
10.3912
0
14.1332
35.4234
342.091
673.034
435.722
344.193
536.088
16.1761
15.9247
3.89907
21.4843
18.2221
0
14.4199
44.0203
8.71515
429.085
34.8939
265.488
85.114
444.635
27.5717
110.178
524.124
10.5431
47.432
12.6207
5.74804
14.4949
18.5026
18.0579
14.7617
30.0773
17.1603
19.2086
23.7388
19.6806
56.0393
41.74
0
28.1993
34.5301
35.6241
19.0119
-1.07876e-14
35.8206
314.584
45.9232
49.6536
236.208
550.631
316.302
15.912
1.20161
15.1872
2.71844
4.84474
2.52429
37.6231
22.9229
17.1512
174.131
27.7339
99.9802
140.98
103.107
22.9442
56.8095
36.8955
72.6958
14.3109
-1.78153e-14
0
0.893191
0.877989
0
144.917
207.343
39.1281
87.1546
279.921
0
2.71858
0
19.8256
18.4378
334.185
513.796
555.377
422.05
613.497
13.3995
31.6406
26.798
13.9144
33.1853
15.5996
4.80357
12.9754
37.998
456.46
46.9594
299.531
31.7345
278.496
53.4753
140.632
530.31
44.0329
122.194
69.035
0
290.323
399.642
177.795
19.0855
-2.08932e-14
137.34
5.87198
144.334
5.97464
59.4658
28.3179
27.4099
30.3634
14.6806
0
0
0
75.8528
167.467
65.8867
77.3438
187.653
318.242
347.156
0
15.3279
6.71349
32.4142
1.45822
47.1646
22.6114
4.4366
29.5822
87.6105
41.6802
38.7401
109.641
65.6607
37.6819
47.7769
65.1503
39.1345
0
23.7177
7.16369
4.08541
0
31.3529
88.1014
263.658
43.1842
113.258
184.118
0
0
9.62207
11.6044
18.3525
422.857
512.609
414.669
339.795
718.768
0
30.9867
31.939
25.7044
63.6029
28.4342
33.193
45.0399
54.7653
280.622
60.0259
117.641
66.6008
228.886
43.1279
107.624
528.769
224.274
105.545
368.491
284.608
234.169
151.169
185.52
36.9493
299.45
299.862
91.1538
249.978
16.0414
13.1487
14.1707
52.3518
41.7235
49.0358
133.725
6.20129
17.3713
118.524
253.096
121.615
119.908
117.677
166.935
112.846
15.2392
0.561223
13.5577
14.6433
0.259172
33.5184
49.3436
25.3726
7.10237
58.801
24.5546
47.4075
78.3198
56.7362
28.0013
54.7398
63.3881
13.9407
3.95688
0
16.0194
0
0
11.3285
111.444
118.86
25.0369
91.6321
260.644
0
18.6151
0
8.74407
14.6602
329.644
674.37
333.541
334.554
713.571
52.6326
-1.51372e-14
23.4623
66.4912
113.682
32.1357
43.012
106.089
125.424
197.339
118.38
121.982
59.5633
144.062
56.2057
152.141
440.314
128.39
156.246
114.784
161.308
85.8389
73.9899
49.63
97.3856
93.7424
126.117
137.885
178.616
54.6576
27.5979
18.191
132.199
9.68493
36.8538
94.1952
8.39182
56.6785
64.7889
123.212
151.573
92.9347
103.226
121.562
116.898
14.5113
1.40239
15.9068
21.9536
7.02615
21.5394