/*--------------------------------*- C++ -*----------------------------------*\
| =========                 |                                                 |
| \\      /  F ield         | OpenFOAM: The Open Source CFD Toolbox           |
|  \\    /   O peration     | Version:  5.x                                   |
|   \\  /    A nd           | Web:      www.OpenFOAM.org                      |
|    \\/     M anipulation  |                                                 |
\*---------------------------------------------------------------------------*/
FoamFile
{
    version     2.0;
    format      ascii;
    class       volScalarField;
    location    "0.5";
    object      voidfraction;
}
// * * * * * * * * * * * * * * * * * * * * * * * * * * * * * * * * * * * * * //

dimensions      [0 0 0 0 0 0 0];

internalField   nonuniform List<scalar> 
10571
(
0.783431
0.856656
0.872014
0.866798
0.877297
0.880384
0.906609
0.926306
0.702283
0.830696
0.797572
0.890779
0.926021
0.884234
0.964822
0.876236
0.866909
0.874779
0.860859
0.816296
0.790582
0.855363
0.810169
0.783183
0.995283
0.99693
0.994188
0.990149
0.9918
0.996611
0.991879
0.985554
0.987503
0.988933
0.995283
0.99473
0.994503
0.992274
0.986226
0.986583
0.997872
0.996941
0.994351
0.995201
0.99655
0.991837
0.995013
0.996088
0.993874
0.998393
0.996794
0.999009
1
0.99904
0.996876
0.994305
0.986137
0.993698
1
0.996729
0.998234
0.99648
0.98424
0.97773
0.997423
0.997881
0.997282
0.997163
0.992015
0.996774
0.996561
1
0.994506
0.992167
0.997044
0.998184
0.9991
0.996098
0.998306
0.994361
0.98584
0.990144
0.996813
0.997948
0.997192
0.997083
0.983134
0.983938
1
0.997279
0.998415
0.998071
0.99748
0.997756
0.998342
1
1
0.998376
0.999966
0.997094
0.999097
0.998042
0.998543
0.994585
0.985694
0.993621
0.996811
0.999358
0.998592
0.996199
0.979962
0.986045
0.997264
0.997902
0.998483
0.998458
0.992431
0.997367
0.998792
0.995234
0.996812
0.998376
0.999021
0.996242
0.999124
0.996689
0.998128
0.994746
0.985333
0.998015
0.736655
1
0.998174
0.997909
0.996375
0.98603
0.982129
0.534071
0.998286
0.997612
0.998358
0.997802
0.990857
0.996399
0.998309
0.997966
1
0.998376
0.999021
0.999018
0.998554
0.99706
0.995819
0.991678
0.987692
0.993974
1
0.99923
0.998207
0.998615
0.996233
0.98026
0.98732
1
0.996271
0.99692
0.99817
0.992824
0.986121
1
0.998141
0.996889
0.995944
0.998241
0.991934
0.999224
0.999966
0.99976
0.99831
0.997258
0.991866
0.985841
0.993062
1
1
0.998241
0.998882
0.995823
0.978725
0.984668
1
0.998496
0.997264
0.997742
0.996538
0.98527
1
0.997367
0.997312
0.999302
0.992525
0.997311
0.998076
0.997698
0.998433
0.999054
0.997932
0.994425
0.98899
0.995957
1
1
0.998072
0.99865
0.996772
0.981501
0.99311
0.998804
0.999128
0.997414
0.996955
0.991777
0.99156
0.995896
0.995077
1
0.996702
0.998152
0.994366
0.995974
0.997772
1
0.998004
0.994884
0.984572
0.995576
1
0.998275
0.997725
0.996165
0.97025
0.987105
0.995579
0.997468
0.997534
0.992504
0.989193
0.997716
1
0.997548
0.993623
0.998376
1
0.99902
0.996214
0.999628
0.998425
0.995112
0.986507
0.99747
1
0.99885
0.998335
0.996777
0.969663
0.989508
0.998346
0.996367
0.997354
0.99108
0.98856
0.997793
0.996497
0.99797
0.996812
0.997536
0.997067
0.995439
0.99973
0.998244
0.998248
0.992939
0.985539
0.993996
0.997251
1
0.998037
0.994863
0.963593
0.98601
0.999038
0.99708
0.995925
0.985249
0.98294
0.998877
0.999426
0.99636
0.996811
0.990984
0.996696
0.997061
0.998528
0.999021
0.996806
0.99174
0.984313
0.996822
1
1
0.998465
0.995291
0.962648
0.982708
0.998827
0.998235
0.995893
0.990386
0.98089
1
0.995652
0.99797
1
0.996248
0.997067
0.998514
0.995313
0.997062
0.997905
0.992217
0.976343
0.996511
1
0.999628
0.997973
0.996054
0.963097
0.986486
0.999128
0.996487
0.997413
0.996161
0.983407
0.996554
0.997464
0.99832
1
0.996696
0.997269
0.997061
0.996695
0.999966
0.998008
0.990402
0.96625
0.99748
1
0.997262
0.998323
0.996287
0.958099
0.982102
0.997174
0.997097
0.997194
0.997162
0.992369
0.994773
0.997403
0.995239
0.997251
0.994064
0.998651
0.99902
0.998258
0.998987
0.998798
0.986349
0.95764
0.996705
1
0.994321
0.997838
0.996751
0.954892
0.976902
0.997384
0.99807
0.997287
0.997095
0.987258
0.996632
0.995531
1
0.996041
0.995576
0.998989
0.997061
0.994772
0.999021
0.999004
0.984023
0.939652
0.999574
1
0.99902
0.997231
0.997379
0.94497
0.965168
0.998286
0.999027
0.997506
0.997763
0.984245
0.995819
0.99547
1
1
0.998376
0.998011
0.999696
0.999279
0.999021
0.997421
0.972119
0.912655
0.869297
1
1
0.998735
0.995121
0.922864
0.963838
0.998948
0.997763
0.998088
0.998264
0.98313
0.997755
1
0.99398
1
0.995128
0.999022
1
0.995554
1
0.997562
0.957562
0.939507
0.822288
1
0.998378
0.998115
0.985561
0.862951
0.889245
0.997385
0.998692
0.998043
0.99793
0.97235
0.998877
1
0.99167
0.99956
0.996416
0.999629
0.997703
0.982578
1
0.996864
0.968239
0.984452
0.854768
0.995603
0.997263
0.998565
0.989677
0.898055
0.791488
0.99997
0.998345
0.997138
0.993791
0.91418
0.999497
0.996287
1
1
0.995353
0.998045
0.998379
0.983508
0.998042
0.996822
0.97413
0.98702
0.925764
0.996922
0.99902
0.998808
0.992926
0.91723
0.707878
0.999128
0.998284
0.998043
0.993324
0.79021
0.998374
0.99535
0.99881
0.996922
0.99832
0.997067
0.996555
0.954099
0.999021
0.995975
0.984522
0.990207
0.957048
1
0.999966
0.997431
0.99545
0.98478
0.83411
0.999128
0.996895
0.998286
0.986347
0.78727
0.997755
0.997675
0.99867
1
0.996584
0.996697
0.990779
0.91766
0.998649
0.997108
0.990755
0.993502
0.972011
0.998901
0.999324
0.997765
0.996039
0.993689
0.868055
0.999158
0.998526
0.997433
0.988417
0.8425
0.997716
0.997071
1
0.996701
0.990425
0.998045
0.993143
0.949443
0.999021
0.995384
0.993284
0.994613
0.982247
1
0.99902
0.998465
0.996701
0.993924
0.851491
0.998437
0.994343
0.995957
0.989051
0.86308
0.997716
0.997524
0.99657
0.993512
1
0.998618
0.998514
0.962513
1
0.996624
0.994712
0.994536
0.978873
1
0.998378
0.998104
0.997026
0.995485
0.867028
1
0.989393
0.989651
0.993658
0.84747
0.950329
0.959454
0.99797
0.981855
1
0.995112
0.996926
0.966593
0.999291
0.99654
0.996738
0.994459
0.985734
1
0.999561
0.996704
0.997816
0.995242
0.891301
0.999098
0.992954
0.988272
0.99546
0.85104
0.983003
0.972707
0.99356
0.977347
1
0.99882
0.990779
0.972666
1
0.997207
0.996527
0.995873
0.991782
1
0.998243
0.99675
0.996198
0.993114
0.86866
0.994649
0.989252
0.987577
0.989218
0.87358
0.991561
0.985206
0.99426
0.991642
0.996529
0.998045
0.990407
0.985732
0.999021
0.995883
0.997198
0.995836
0.993837
0.993734
0.998243
0.996146
0.995094
0.993414
0.898253
0.993114
0.988545
0.986445
0.992923
0.89213
0.970772
0.970048
0.98971
0.983728
1
0.988236
0.991961
0.979605
0.999021
0.983083
0.995356
0.994794
0.991162
0.997911
1
0.995088
0.994761
0.988319
0.852851
0.992214
0.988589
0.987807
0.994525
0.90298
0.986993
0.973035
0.98691
0.986588
0.996697
0.989787
0.991319
0.984861
0.997501
0.99145
0.993042
0.995372
0.994339
1
0.996654
0.995381
0.994165
0.985441
0.883804
0.989388
0.992482
0.985713
0.991788
0.80029
0.995897
0.989161
0.98327
0.937765
0.982583
0.973437
0.967335
0.984736
0.994597
0.993461
0.993963
0.995497
0.993874
0.996812
0.996519
0.995369
0.993592
0.983524
0.893891
0.996392
0.99018
0.98579
0.961144
0.783486
0.922808
0.979469
0.96241
0.872231
0.861954
0.896511
0.933988
0.980078
0.98825
0.990477
0.987896
0.995073
0.990539
0.997911
0.999594
0.9955
0.993596
0.988493
0.873375
0.997895
0.991577
0.991535
0.978369
0.862308
0.966514
0.982548
0.95422
0.944026
0.949665
0.987561
0.896084
0.979417
0.942464
0.988676
0.990114
0.992395
0.990229
0.995932
0.992633
0.996284
0.993631
0.992027
0.899704
0.989236
0.993645
0.989602
0.990787
0.911799
0.973869
0.977685
0.95891
0.695388
0.953905
0.980683
0.904496
0.966557
0.930809
0.991793
0.989661
0.991854
0.986662
0.996811
0.993173
0.993561
0.992709
0.990305
0.934436
0.994678
0.991178
0.993786
0.989385
0.936229
0.981571
0.987559
0.94974
0.859037
0.940476
0.984628
0.933116
0.957633
0.881304
0.990893
0.990766
0.989936
0.98263
0.989225
0.996046
0.993427
0.991648
0.994492
0.959192
0.996182
0.99165
0.994736
0.994859
0.954359
0.982809
0.988978
0.964506
0.912925
0.928101
0.951829
0.938188
0.921486
0.941113
0.98981
0.990164
0.983636
0.949285
0.989225
0.993782
0.995227
0.995121
0.993649
0.961879
0.999128
0.991299
0.993839
0.994626
0.957719
0.970579
0.991364
0.96248
0.930508
0.912683
0.953042
0.966527
0.912869
0.954041
0.991145
0.984116
0.971306
0.913111
0.982958
0.993173
0.995242
0.987203
0.982312
0.963838
0.998226
0.990842
0.991211
0.980105
0.952184
0.980021
0.983664
0.96304
0.957332
0.911134
0.98874
0.993379
0.88664
0.987404
0.974064
0.9595
0.961412
0.773684
0.992743
0.992126
0.992277
0.980826
0.977432
0.953165
0.999399
0.991028
0.989473
0.989718
0.945463
0.961907
0.986533
0.98964
0.948755
0.959683
0.985065
0.987265
0.924606
0.994293
0.981069
0.985086
0.941619
0.808851
1
0.990469
0.98988
0.989348
0.977233
0.971734
0.998226
0.989417
0.991551
0.985412
0.942529
0.973359
0.985596
0.98677
0.943696
0.959618
0.984155
0.996791
0.953712
0.989296
0.986151
0.986756
0.947915
0.878983
0.989223
0.990096
0.99383
0.991385
0.973987
0.990085
0.997023
0.991008
0.990758
0.981206
0.953029
0.955016
0.991122
0.988799
0.963169
0.968642
0.983111
0.988516
0.96771
0.992774
0.992888
0.987781
0.969638
0.966587
0.996701
0.994321
0.995677
0.98991
0.982211
0.994831
0.995159
0.991396
0.99223
0.987949
0.99321
0.981339
0.991456
0.99188
0.980322
0.965731
0.974985
0.987401
0.9839
0.993179
0.995036
0.987639
0.977291
0.949376
0.994172
0.991314
0.996258
0.992388
0.989985
0.99332
0.997054
0.986062
0.990293
0.989552
0.98845
0.990862
0.99212
0.9951
0.988347
0.959179
0.982203
0.983415
0.987745
0.995239
0.996669
0.986752
0.96268
0.928876
0.994831
0.992159
0.996831
0.993363
0.993191
0.988302
0.99516
0.985141
0.992792
0.991888
0.98887
0.989432
0.993176
0.99643
0.990986
0.944676
0.988439
0.988448
0.984771
0.996826
0.996864
0.979103
0.9652
0.884846
0.996042
0.995235
0.995307
0.994351
0.994557
0.981924
0.993687
0.984257
0.994457
0.993557
0.9916
0.994076
0.996376
0.989009
0.996482
0.935877
0.987798
0.986219
0.994563
0.998987
0.996715
0.983402
0.963807
0.919599
0.996811
0.993984
0.994811
0.99521
0.993365
0.924719
0.993867
0.991238
0.99453
0.998999
0.992579
0.995082
0.994564
0.993559
0.997801
0.968254
0.987124
0.991083
0.993722
0.975925
0.996826
0.989657
0.968887
0.916639
0.996812
0.994593
0.997204
0.996786
0.994739
0.912286
0.976491
0.993398
0.996232
0.99803
0.991879
0.996167
0.994625
0.99713
0.993184
0.990927
0.993729
0.986861
0.991469
0.978321
0.995563
0.990889
0.972691
0.845336
0.966898
0.976884
0.994088
0.99535
0.994431
0.938863
0.970992
0.98437
0.995416
0.994893
0.981098
0.994966
0.995622
0.99587
0.994172
0.996752
0.99302
0.993615
0.997206
0.993011
0.992423
0.991864
0.976839
0.829866
0.948545
0.985535
0.984257
0.993929
0.990256
0.960482
0.946222
0.990826
0.99257
0.993524
0.984876
0.998141
0.995712
0.99594
0.988453
0.995575
0.991436
0.993479
0.990204
0.999021
0.993022
0.993675
0.995174
0.856464
0.997031
0.992699
0.992219
0.994018
0.993227
0.981617
0.991433
0.996459
0.995545
0.990653
0.988939
0.984511
0.996799
0.99783
0.991312
0.993504
0.997404
0.991859
0.986689
0.997569
0.992225
0.994992
0.997452
0.89985
1
0.996384
0.993223
0.992845
0.992376
0.97748
0.956322
0.997359
0.989651
0.992055
0.97466
0.979481
0.991272
0.989989
0.988126
0.996192
0.999157
0.998885
0.986269
0.999021
0.995796
0.994167
0.995812
0.883682
1
0.997364
0.995096
0.993391
0.989936
0.974336
0.998256
0.983651
0.991632
0.985646
0.97711
0.974682
0.998249
0.99167
0.952394
1
0.985371
0.999932
0.972
0.991592
0.991206
0.991707
0.993825
0.910978
1
0.989996
0.989846
0.986708
0.985798
0.949156
1
0.974013
0.980401
0.997797
0.99825
0.998877
0.957854
0.99097
1
1
0.999798
0.984395
0.990507
0.998514
0.986975
0.970388
0.994508
0.932509
1
0.99902
0.986265
0.984783
0.997037
0.999123
0.999128
0.997077
0.994926
1
0.99797
1
0.999155
1
1
1
1
0.999932
0.995314
0.999088
0.997734
0.996001
0.997177
0.965
1
0.99902
0.996458
0.993348
0.998885
1
1
0.99962
0.999288
1
1
0.998877
1
1
1
1
1
1
0.997927
1
0.999889
0.999482
0.99891
0.965969
1
0.999358
0.999888
0.999241
0.999696
1
1
0.999863
0.999883
1
1
1
1
0.99867
1
1
1
1
1
1
0.999851
0.999889
0.999576
0.965853
1
1
1
0.999551
1
1
1
0.999766
1
1
1
1
1
1
1
1
1
1
1
1
1
1
1
0.979569
1
1
1
0.999888
1
1
1
0.999766
1
1
1
1
1
1
1
1
1
1
1
1
0.999889
1
0.999887
0.989921
1
1
1
1
1
0.999123
1
1
1
1
1
1
1
1
1
1
1
1
1
1
0.999889
1
1
1
1
1
1
1
1
1
1
1
1
1
1
1
1
1
1
1
1
1
1
1
1
0.999889
1
0.999961
1
1
0.999996
1
1
1
1
0.999887
1
1
1
1
1
1
1
1
1
1
1
1
1
1
1
1
1
1
1
1
1
1
1
1
1
1
1
1
1
1
1
1
1
1
1
1
1
1
1
1
1
1
1
1
1
0.999698
1
1
1
1
1
1
1
1
1
1
1
1
1
1
1
1
1
1
1
1
1
1
1
1
1
1
1
1
1
1
1
1
1
1
1
1
1
1
1
1
1
1
1
1
1
0.999019
1
1
1
1
0.999844
1
1
1
1
1
1
1
1
1
1
1
1
1
1
1
1
1
1
1
1
1
1
1
1
1
1
1
1
1
1
1
1
1
1
1
1
1
1
1
1
1
1
1
1
1
1
1
1
1
1
1
1
1
1
1
1
1
1
1
1
1
1
1
1
1
1
1
1
1
1
1
1
1
1
1
1
1
1
1
1
1
1
1
1
1
1
1
1
1
1
1
1
1
1
1
1
1
1
1
1
1
1
1
1
1
1
1
1
1
1
1
1
1
1
1
1
1
1
1
1
1
1
1
1
1
1
1
1
1
1
1
1
1
1
1
1
1
1
1
1
1
1
1
1
1
1
1
1
1
1
1
1
1
1
1
1
1
1
1
1
1
1
1
1
1
1
1
1
1
1
1
1
1
1
1
1
1
1
1
1
1
1
1
1
1
1
1
1
1
1
1
1
1
1
1
1
1
1
1
1
1
1
1
1
1
1
1
1
1
1
1
1
1
1
1
1
1
1
1
1
1
1
1
1
1
1
1
1
1
1
1
1
1
1
1
1
1
1
1
1
1
1
1
1
1
1
1
1
1
1
1
1
1
1
1
1
1
1
1
1
1
1
1
1
1
1
1
1
1
1
1
1
1
1
1
1
1
1
0.451598
0.506602
0.463294
0.449257
0.530926
0.453642
0.476831
0.44383
0.435761
0.409238
0.460162
0.446563
0.469037
0.460696
0.485512
0.487578
0.511702
0.511043
0.468114
0.50187
0.455732
0.440338
0.433755
0.507851
0.460279
0.435258
0.460201
0.506027
0.461685
0.459647
0.496453
0.498864
0.513655
0.506985
0.494716
0.497763
0.455613
0.444356
0.46409
0.459324
0.577175
0.566042
0.498071
0.583662
0.506071
0.462353
0.451154
0.483691
0.532343
0.456088
0.467879
0.506864
0.515453
0.48421
0.498963
0.492854
0.470911
0.477277
0.456905
0.489244
0.626278
0.474754
0.518668
0.635988
0.539678
0.51074
0.518555
0.469498
0.450328
0.457059
0.433961
0.445304
0.475401
0.436719
0.464896
0.474658
0.469026
0.490746
0.490147
0.481708
0.559766
0.464559
0.520244
0.524165
0.46042
0.556562
0.518232
0.449557
0.436053
0.454759
0.470277
0.542936
0.44689
0.499015
0.606478
0.526821
0.884331
0.984413
0.84549
0.880911
0.862181
0.913661
0.94077
0.902912
0.885205
0.901748
0.824355
0.82903
0.801485
0.829086
0.729821
0.863985
0.969411
0.868518
0.876312
0.887963
0.979185
0.969369
0.964132
0.890004
0.823917
0.839529
0.81852
0.770599
0.914478
0.889429
0.926248
0.810576
0.889705
0.894318
0.823784
0.876808
0.925943
0.922995
0.930477
0.819703
0.802605
0.90976
0.959473
0.967742
0.885642
0.921086
0.757107
0.862114
0.859244
0.846752
0.866113
0.976446
0.993847
0.980689
0.853072
0.889928
0.880814
0.808501
0.882485
0.923152
0.900208
0.939571
0.954029
0.831317
0.786283
0.734193
0.90191
0.969761
0.725229
0.846343
0.981832
0.842975
0.955015
0.835003
0.816357
0.960957
0.974593
0.974026
0.83214
0.804453
0.87465
0.841197
0.920808
0.775609
0.992324
0.997686
0.997427
0.998969
0.994963
0.999348
0.997808
0.994858
0.9962
0.99304
0.993701
0.998286
0.996748
0.987291
1
0.998082
0.996191
0.995194
0.996448
0.997858
0.99367
0.997335
0.995449
0.999069
0.991146
0.993533
0.993777
0.999157
0.995783
0.999969
0.996638
0.989469
0.990641
0.994772
0.994426
0.996373
0.997807
0.996199
0.997577
0.992316
0.994959
0.993096
0.99152
0.996847
0.994703
0.994475
0.996199
0.998285
0.998903
0.995175
0.991836
0.991611
0.993589
0.992412
0.996822
0.996049
0.997904
0.999523
0.995283
0.997646
0.996951
0.99989
0.996666
0.993861
0.996642
0.996224
0.997769
0.995694
0.998972
0.997853
0.996031
0.990458
0.991798
0.995415
1
0.99651
0.995259
0.996852
0.997757
1
0.997422
0.999621
1
0.994116
0.995788
0.997985
0.999781
0.998889
0.997395
1
0.999268
0.997348
0.997424
0.998889
1
0.997497
0.996645
1
0.997984
0.997999
0.997847
0.995573
0.996918
0.996311
0.995368
0.992139
0.997186
0.994365
0.997107
0.999388
0.99639
1
0.999944
0.99357
0.99425
0.993553
0.997211
0.996666
0.999781
0.995178
0.994409
1
0.998794
0.989069
0.999343
0.992229
0.985149
0.985046
1
0.999233
1
0.998432
0.99703
0.996717
0.986782
0.984433
0.993408
0.989253
0.995992
1
0.999066
0.998385
0.996538
0.999133
0.99902
0.996692
0.996266
0.998255
0.998441
0.998937
0.996291
0.995232
0.999122
1
0.996717
1
0.99986
0.997368
1
0.99216
0.998283
1
0.997425
1
0.993916
0.996213
0.99989
0.997974
0.997981
1
0.996813
0.996213
0.997824
0.998901
0.99385
0.995582
0.996976
0.997178
0.994724
0.998789
0.998258
0.999721
0.999861
0.994641
0.997493
0.993963
0.9978
0.997927
0.995969
0.994522
0.996368
0.998246
0.995731
0.998425
0.996706
0.99477
0.994319
0.999044
0.992693
0.995947
0.996224
0.998879
1
0.99737
0.997756
0.996812
0.997397
0.987863
0.994384
0.995272
0.984326
0.986215
0.998942
0.998879
1
0.997366
1
0.983277
0.986073
0.984093
0.999344
0.986521
0.997979
1
0.99872
0.998483
0.997976
0.997717
0.995587
0.998257
0.998215
0.993904
0.997358
0.996836
0.999031
0.996881
0.997352
0.998359
0.994957
0.994337
0.997202
0.997376
1
0.994735
0.994745
0.996817
0.999884
1
0.997011
0.994691
1
0.997969
0.994215
0.997282
1
0.997214
0.995822
0.996811
0.994891
0.995942
0.999122
0.998877
1
0.995636
0.997559
1
1
0.999234
0.997283
0.996705
0.998034
0.997203
0.995688
0.995057
0.998838
0.999349
0.998367
0.997683
0.996925
0.997557
1
0.997537
0.997564
0.998267
0.995134
1
1
0.998244
0.996942
0.99989
0.99685
0.994946
0.994445
0.991157
0.990501
0.965642
0.997213
0.998916
0.993732
0.998758
0.996941
0.99815
0.993977
0.98219
0.9675
0.986332
1
1
0.99621
0.990719
0.996883
0.997685
0.99967
0.997075
0.999031
0.993154
0.998232
0.997848
0.999798
0.991806
0.996578
0.993722
0.984937
0.996362
0.996851
0.997071
1
0.995508
0.997673
1
0.999961
0.994842
0.998248
0.999108
0.996817
0.998668
1
0.998048
1
0.997716
0.994821
0.996811
0.998877
0.998213
0.997848
0.998876
1
0.999121
1
0.997975
0.997977
0.996796
0.99798
0.999131
0.996513
0.999023
0.995687
0.997303
0.997467
0.996287
0.998379
0.998997
0.997402
0.996496
0.995266
0.996391
0.995663
0.996438
0.998011
0.998839
1
0.993609
0.999187
1
0.99476
0.978498
0.990458
0.877695
0.991236
1
0.991312
0.995777
0.480528
0.555883
0.397419
0.997675
0.975224
0.993102
0.924631
0.999121
0.995546
0.99846
0.998091
0.998451
0.880683
0.990519
0.985423
0.987714
0.992927
0.982869
0.997112
0.384338
0.738685
0.477597
0.994785
0.911037
0.998569
0.967745
0.997907
0.997628
0.99746
0.996962
0.999092
0.99618
0.998713
0.997862
0.995307
0.99088
0.997153
0.999775
0.997139
0.993777
0.997643
0.998728
0.994243
0.995312
0.997971
0.99707
0.996817
0.998025
0.997643
0.996817
0.997594
0.996817
0.998429
0.998874
1
0.999299
0.998257
0.996236
1
0.999032
0.993034
1
0.99849
0.996002
0.999121
0.998141
0.996922
0.999091
0.996632
1
1
0.994218
0.998189
0.992358
0.99842
0.997166
0.999944
0.996104
0.999314
0.999023
1
0.99754
0.994351
0.998527
0.998437
0.996226
0.998306
0.993982
1
0.990234
1
1
1
1
1
0.99849
0.996811
0.996819
0.999265
0.996811
0.998788
0.998531
0.996365
0.996682
0.995457
0.999
0.993984
0.997579
1
0.999497
1
0.999178
1
1
1
0.998212
0.993532
1
0.997909
0.998954
0.99817
0.983221
0.99915
0.989183
0.997393
0.988285
0.997351
1
0.999285
1
1
1
1
1
0.996163
0.99993
0.996766
0.995443
0.996125
0.997113
0.998053
0.998369
0.995791
0.990616
0.999176
0.99837
0.997249
0.992501
0.996288
0.996323
1
0.990691
1
1
1
1
0.995802
0.993073
0.99707
1
0.993263
0.99997
0.997476
0.999961
0.996818
0.997675
0.99775
0.999342
0.997975
0.999303
0.996724
0.996812
0.996361
0.998879
0.996592
0.994697
0.997183
0.996091
0.996284
0.993844
0.999121
0.999961
1
1
1
0.99798
0.992178
0.99538
0.998436
1
0.994785
0.999136
0.997785
0.997308
0.994342
0.997724
0.995639
0.996869
0.996162
0.997079
0.997744
0.998571
0.997148
1
0.998579
1
1
1
0.997445
1
0.998213
1
1
0.997395
0.999861
0.997021
0.998762
0.995988
1
0.996932
0.998116
1
1
1
1
1
1
1
1
0.998877
1
0.995303
0.998916
0.997748
0.980254
0.998161
0.98383
0.998215
0.975356
0.996772
1
1
1
1
1
0.999267
1
0.998047
0.992744
0.997888
0.996737
0.997093
0.997835
0.997723
0.997806
0.994792
0.982609
0.994222
0.998703
0.996773
0.990106
0.995766
0.998428
0.999705
0.993436
1
1
1
1
0.993913
0.991884
0.996526
0.998903
0.994386
0.997341
0.994952
0.996315
1
0.999094
0.997478
0.996598
0.998672
0.999303
0.998048
1
0.997948
0.996487
0.990434
0.995433
0.999001
0.999121
0.998877
0.990325
0.998636
0.999961
1
1
0.998676
0.997283
0.998262
0.997407
0.999055
0.9986
0.999101
0.998033
0.997167
1
0.99778
0.996806
0.998252
0.99844
0.996131
0.997411
0.997158
0.997834
0.994348
1
1
0.997755
1
0.998243
0.99877
0.996812
1
0.991198
1
0.99614
0.99956
1
1
1
1
1
1
1
0.998545
0.999961
0.996371
0.998455
0.998877
0.997562
0.972795
0.998081
0.98127
0.997672
0.978381
0.996619
1
0.999408
1
0.999961
1
1
1
1
1
0.994653
0.997862
0.99561
0.997384
0.998086
0.998875
0.997548
0.980845
0.999817
0.99807
0.993218
0.986
0.998228
0.997313
0.978245
0.995942
1
0.996223
0.99572
0.997019
0.997644
0.997805
1
0.996818
0.995923
0.997013
0.993745
0.995937
0.998676
0.993448
1
1
0.995427
0.993623
0.996014
0.997184
0.997758
0.998916
0.996812
0.999091
1
1
0.995955
1
0.99993
0.999101
0.998242
0.999023
1
0.993858
0.996692
0.999544
0.998373
0.997675
0.998513
0.997594
1
0.998975
0.99824
0.996487
0.99669
1
0.993622
1
0.99551
1
0.997365
0.995692
0.997959
0.997542
0.992017
0.996918
0.999091
0.998954
0.996811
1
0.998528
1
0.98052
0.982812
0.991067
0.974352
0.997977
1
0.997096
0.99685
0.993975
0.998256
0.9968
0.995669
0.995459
0.985965
0.997408
0.998027
0.997054
0.984795
0.996439
0.99503
0.980939
0.997971
0.996222
0.994169
1
0.996632
0.998248
0.996817
0.997441
1
0.997916
0.99469
1
1
0.997979
1
1
0.996672
0.997365
1
0.995511
0.996488
0.998273
0.9988
0.99934
0.997547
0.997755
1
1
1
0.991223
0.996824
0.996156
0.995671
0.995128
0.997843
0.995799
0.995444
0.999944
0.996537
0.998578
0.995975
0.997473
0.996772
0.996342
0.997979
0.997976
0.99969
0.996811
0.997638
0.994427
0.996811
0.998122
0.997178
0.996839
0.996629
0.999123
0.996813
0.999121
0.998141
0.996921
0.99997
0.994385
1
0.978221
0.983287
0.993194
0.974612
0.997977
0.997977
0.99713
0.996513
0.996882
1
0.997065
1
0.994672
0.979712
0.991577
0.989665
0.989019
0.982628
0.997811
0.991811
0.979746
0.996642
0.994543
0.999154
0.996817
0.998142
0.995621
0.996817
0.995622
0.996818
0.99375
0.996243
0.998903
1
0.995261
1
1
0.994737
0.999092
1
0.996247
0.999152
1
0.997755
0.994942
0.998637
0.999187
1
0.999442
1
0.99993
0.996645
0.996961
0.997006
0.998096
0.996405
0.995889
0.999837
0.996854
0.997497
0.992412
0.998408
0.996236
0.998056
0.996461
0.995389
0.99979
0.998839
1
0.999788
0.999342
1
0.997729
0.997369
0.99681
0.996474
0.996491
1
0.999879
1
1
1
1
0.996813
0.969089
0.985614
0.990988
0.969272
0.99993
1
0.995878
0.9964
0.996579
0.995761
0.996273
0.996007
0.997306
0.984728
0.994194
0.992431
0.994426
0.988656
0.994954
0.99096
0.981457
0.997691
1
0.998218
1
0.995586
0.998218
0.996817
0.995197
0.997915
0.999758
0.994423
0.997695
0.99594
0.999164
1
1
0.998143
0.998274
1
0.99408
0.996427
0.995305
0.998877
0.996811
0.997668
0.99849
0.999442
0.997978
0.99596
1
0.996975
0.996008
0.99808
0.99272
0.997694
0.997021
0.999024
0.996179
0.997792
0.999123
0.998408
1
0.997792
0.99649
0.998042
1
1
1
0.99682
1
0.996811
0.998243
0.999123
1
0.996395
0.99882
1
0.998243
0.996631
1
0.998637
0.998877
0.991537
0.970619
0.986939
0.984832
0.96233
0.997977
1
0.998252
1
0.999122
0.998557
0.998681
0.995107
0.999152
0.989325
0.993646
0.996157
0.990185
0.981972
0.995865
0.993557
0.989638
1
0.99993
0.994473
1
0.994386
0.995651
0.996817
0.998799
0.996817
0.998702
0.996475
0.999561
0.996079
0.994773
0.996027
0.996811
0.996866
0.994096
0.996811
0.997756
0.99891
0.998243
0.99791
1
0.999061
0.997523
1
1
1
1
0.997963
0.999196
0.998373
0.997256
0.994189
0.998272
0.9959
0.99837
0.993937
0.996006
0.996545
1
0.99621
0.997549
0.991745
0.996852
1
0.996811
1
0.998491
0.996811
0.996487
0.994856
0.996919
0.99969
0.996369
0.993509
0.99697
0.997754
1
0.997425
0.997057
0.993735
0.960703
0.984248
0.996593
0.953848
0.997977
0.995187
0.996538
1
0.996368
0.997384
0.998087
0.9973
0.995399
0.991855
0.993828
0.9987
0.995392
0.992495
0.996139
0.9961
0.992859
0.997971
0.997901
0.995621
1
0.997638
0.998943
1
0.996979
1
0.998279
0.997018
1
0.99986
1
0.997979
1
0.998878
0.997063
0.996701
0.997021
0.997305
0.997365
0.998258
1
1
0.999613
0.99993
1
1
1
0.995387
0.998272
0.999056
0.99636
0.994159
0.998272
0.999056
1
0.997562
0.999123
0.997957
0.996741
0.995486
0.994282
1
0.99944
0.997755
0.996811
0.999425
0.999613
1
1
0.994523
0.99659
0.995115
0.995067
1
0.999818
1
1
0.996516
0.998877
0.993845
0.963142
0.982102
0.987141
0.958495
0.99993
1
0.999308
0.999888
0.998123
0.996933
0.996439
0.99685
0.998123
0.990604
1
0.995479
0.996761
0.992892
0.995196
0.99627
0.99846
0.99972
0.995942
0.996708
0.996817
0.997987
0.997674
0.996817
0.99663
1
0.998249
0.996746
1
0.996779
0.995958
0.993867
0.996921
0.994157
0.999182
1
0.993422
0.993217
0.995729
0.997794
0.995052
0.994609
0.9952
1
0.997351
1
0.997701
0.992781
0.998272
1
0.994792
0.997274
0.998868
0.998861
0.996179
0.998847
0.992315
0.996785
0.997303
0.996837
0.995885
1
0.993914
0.998065
1
0.998001
1
1
0.999122
0.997851
1
0.998721
0.997791
1
0.998909
0.998877
1
0.998758
0.999342
0.996153
0.943163
0.966713
0.990219
0.943473
0.997977
1
0.996175
0.9973
0.997064
0.999759
0.997197
0.995444
0.995641
0.991184
0.997446
0.996157
0.996595
0.994967
0.995166
0.999887
0.995169
0.997971
0.997971
0.997191
0.996817
0.995625
0.995802
1
0.998838
0.990891
0.997645
0.996359
1
0.995939
0.997003
0.999721
0.99934
0.995898
0.998274
1
0.9988
0.996155
0.99685
0.996206
1
0.999122
0.994543
0.998605
0.998467
0.996726
0.99394
0.998592
0.995412
0.997463
0.998376
0.997723
0.997885
0.999675
0.99674
0.998418
0.996339
0.997477
0.998371
0.990212
0.986537
0.995942
1
0.997755
1
1
0.998568
0.996811
0.999364
0.996822
0.9989
0.984225
0.966746
0.992739
1
0.998838
1
0.998788
0.998219
0.996813
0.944974
0.972037
0.992747
0.942902
1
1
0.998088
1
0.998063
0.998226
0.997493
0.998369
0.999425
0.993959
0.99623
0.996722
0.992253
0.993045
0.991639
0.99514
0.99272
0.993983
0.995943
0.997372
0.996817
0.997832
0.999668
1
0.993995
1
0.998219
0.998916
0.996928
0.99776
1
0.991079
1
0.996673
0.998547
1
0.998142
0.998486
1
0.998878
0.997471
0.99894
1
0.998048
0.998884
0.99596
0.99993
0.994489
0.99863
0.997853
0.99692
0.996555
0.997408
1
0.994773
0.988929
0.979878
0.997026
0.996685
0.988169
0.961064
0.979219
0.953976
0.997755
0.996812
0.999122
0.997794
1
0.999122
0.825711
0.913304
0.872404
0.879421
0.924644
0.998243
1
1
0.999424
0.999613
0.979337
0.934374
0.933886
0.970108
0.926051
0.998675
0.999302
0.998714
0.998313
0.996519
0.998707
0.998318
0.999156
0.996034
0.993107
0.995319
0.999435
0.995893
0.989565
0.995317
0.995082
0.976262
0.995943
1
0.9984
1
0.9988
0.996405
1
0.995121
0.996818
0.998279
0.997288
1
0.989776
0.995053
0.996724
1
0.997795
0.999122
1
0.997988
0.998244
1
1
1
0.996516
0.999961
0.99993
1
0.999721
1
0.997095
0.996634
0.998178
0.994064
0.998262
1
1
0.989887
0.977893
0.928578
0.994021
0.988253
0.968558
0.900139
0.933691
0.915756
0.998878
1
0.997366
1
1
0.998243
0.865059
0.933232
0.824554
0.846944
0.815364
0.999122
0.997367
1
1
0.999264
0.936817
0.907366
0.846058
0.890739
0.874884
1
0.997977
0.995978
0.996513
0.996307
0.998256
0.998054
1
1
0.991338
0.995987
0.998361
0.998464
0.984989
0.996442
0.998248
0.939849
0.995943
0.995382
0.998581
1
0.996244
0.998127
1
0.997522
0.996818
0.996436
0.997753
1
0.99874
0.995958
1
1
0.996015
1
1
0.99702
0.997366
0.999515
0.997523
0.994722
0.998304
0.99427
1
0.994491
0.998955
0.999652
0.997694
0.998779
0.999057
0.995128
0.995836
0.998212
0.998438
0.972188
0.940729
0.873673
0.98753
0.97437
0.935568
0.870755
0.899138
0.88546
0.998878
0.99934
1
0.997407
1
0.999122
0.854772
0.768569
0.903534
0.887107
0.752755
0.999637
0.998877
0.99989
0.998243
0.998916
0.80155
0.834319
0.77527
0.744654
0.683241
1
0.997977
0.997758
1
0.998759
0.999128
0.998087
0.998369
0.994944
0.974868
0.998845
0.996666
0.994023
0.957926
0.995591
0.998304
0.858972
0.99986
0.996221
0.996527
0.996817
0.998684
0.999184
1
0.998877
0.997695
0.997161
0.993724
1
0.996639
0.999582
0.992402
0.993624
0.997756
1
1
0.995859
0.999364
0.996487
0.998877
1
0.998243
0.997523
0.989891
0.993586
0.99805
0.99798
0.996796
0.998451
0.997788
1
0.996525
0.99711
0.997429
0.969768
0.934469
0.881508
0.961693
0.936608
0.948322
0.912576
0.906682
0.943611
0.999381
0.996812
0.999122
0.997755
1
1
0.921812
0.810676
0.962784
0.93451
0.858733
0.999122
0.99818
1
1
0.999613
0.744741
0.572676
0.760212
0.769606
0.605755
0.999302
0.994908
0.999044
0.998369
0.997912
0.999008
0.999011
1
0.99894
0.961844
0.999818
0.998135
0.989748
0.920062
0.998814
0.993839
0.756177
0.993284
1
0.996618
1
0.996632
0.999124
1
0.996824
1
0.999124
0.997637
0.996817
0.993278
0.997909
0.997979
1
0.993655
0.997366
0.99989
0.99702
0.997668
0.999091
0.994813
0.996811
0.998576
0.994581
0.984104
0.980899
0.99798
1
0.998143
0.997051
0.99961
0.998376
0.998952
0.997795
0.997559
0.952967
0.944847
0.956923
0.943906
0.95195
0.959033
0.966229
0.97034
0.957463
0.997059
1
0.999697
0.997329
0.996811
0.999424
0.950225
0.850829
0.979493
0.953304
0.879307
0.997365
1
0.994722
1
0.998877
0.808473
0.728485
0.856913
0.849298
0.797747
0.997977
0.995954
0.998121
0.998369
0.996913
0.997384
0.999044
0.999663
0.996761
0.893828
0.998176
0.985195
0.993722
0.879208
0.994678
0.965915
0.788668
1
0.9993
0.999124
0.998902
1
0.999668
0.997915
0.997057
1
0.997946
0.997753
0.993634
1
1
0.999303
1
0.996634
0.996367
1
0.998878
0.99894
0.997517
0.99191
1
0.993033
0.984323
0.98515
0.966468
0.994288
0.998886
0.995688
0.997498
0.998113
0.997928
0.996585
0.999881
0.999252
0.936383
0.977201
0.976039
0.911368
0.925208
0.98184
0.980756
0.967328
0.986429
0.999149
0.993622
1
0.999574
0.996811
0.999455
0.95906
0.880751
0.965382
0.960506
0.899331
0.999122
0.998877
1
0.998243
0.995507
0.897918
0.825377
0.866952
0.892168
0.85103
0.997978
0.997977
0.999407
0.997132
0.997579
1
0.99812
0.994318
0.998819
0.898678
0.995106
0.957338
0.985407
0.884944
0.996351
0.981347
0.85365
0.998531
0.993283
0.998279
0.999341
0.998103
0.997402
0.997586
0.997986
0.996817
0.997675
0.997521
0.996707
0.997969
0.992125
0.994285
1
0.996169
0.995609
0.996811
0.997369
1
0.99576
0.963111
0.994943
0.994124
0.970814
0.931047
0.955942
0.99798
0.999861
0.997904
0.999702
0.999382
0.99972
0.994997
0.997527
0.997722
0.96252
0.993542
0.976435