/*--------------------------------*- C++ -*----------------------------------*\
| =========                 |                                                 |
| \\      /  F ield         | OpenFOAM: The Open Source CFD Toolbox           |
|  \\    /   O peration     | Version:  5.x                                   |
|   \\  /    A nd           | Web:      www.OpenFOAM.org                      |
|    \\/     M anipulation  |                                                 |
\*---------------------------------------------------------------------------*/
FoamFile
{
    version     2.0;
    format      ascii;
    class       volScalarField;
    location    "2.2";
    object      Ksl;
}
// * * * * * * * * * * * * * * * * * * * * * * * * * * * * * * * * * * * * * //

dimensions      [1 -3 -1 0 0 0 0];

internalField   nonuniform List<scalar> 
10571
(
0
565.068
21.616
281.588
121.579
1430.16
14.2422
132.688
134.6
661.471
486.369
1424.32
2419.88
371.947
476.904
146.927
1783.2
3069.4
605.902
64.3276
182.772
6614.62
238.941
7666.42
0
1563.48
48.6242
88.6897
437.688
5439.3
369.097
352.558
707.556
1007.33
8074.1
7949.16
347.355
236.618
519.635
539.356
455.716
2051.15
1286.46
179.583
669.908
8505.19
2926.05
4242.38
24.2835
572.445
3826.58
141.291
472.173
23.1481
1424.92
881.074
4250.56
5860.69
8797.66
6111.99
1173.55
2452.58
3686.85
997.345
3473.47
2042.39
1402.6
486.09
302.457
9012
9133.54
2367.47
218.178
4779.99
10600
6745.77
4067.54
3141.4
1676.48
4854.2
9632.18
10407.1
11451.2
4220.93
1279.49
3008.39
5718.52
9418.77
8902.65
4128.06
3475.97
4841.09
3260.13
9396.54
9592
6312.14
5275.55
-3.23641e-12
15.5127
1947.13
7535.96
966.287
1242.92
3632.06
2462.92
243.137
1063.16
2327.51
674.728
2697.25
3655.39
6732.18
10027.1
4466
3977.63
4228.77
8952.36
10017.1
10109.4
10905.7
0
14.1595
0
-1.32858e-12
13.9216
27.5067
212.183
156.472
34.1139
15.2452
61752.2
0
1178.03
2670.77
3015.82
1380.92
916.932
9066.71
3419.71
5384.68
4688.03
690.181
8038.08
9464.54
9717.54
10554.9
0
46.1849
0.203196
12.8182
14.8338
10.7074
0.809092
2.95944
5.17228
4.53607
0.464126
0
0
36.7036
308.734
321.943
7.19614
0
111.795
1794.71
4171.08
2400.17
709.623
0
8433.84
9054.54
8916.15
0
14.7907
0
12.8038
21.1954
-6.83477e-14
1.51124
1.71845
5.91689
10.7739
0
0
0
-1.77704e-13
0.490399
2.1184
17.8015
0
5.74852
327.249
302.464
49.14
5.54705
0
4591.2
11624.3
1452.41
0
17.8307
0
5.36368
14.1758
2.02634
2.1968
3.41161
4.02197
0
0
0
0
1.21906
0
4.25722
4.99739
0
0.388406
8.87174
5.40259
0
0
2426.77
500.261
5.34467
0
14.0846
0
25.4161
10.0634
16.4214
2.01034
1.48255
1.32575
0
0
0
0.035826
0.520716
4.80076
12.5463
0
6.11104
1.10401
0
0
253.877
13.0268
18.8885
0
13.9324
0
6.35758
14.1324
4.57462
1.82581
3.37494
0.643299
0
0
0
0.590724
0.540943
2.94298
14.994
0
3.21999
4.48818
0
7.75316
6.87051
6.02943
5.48792
0
22.1894
5.82896
9.10719
6.99208
-9.1047e-13
0.842063
4.95612
0.637227
0
0
0.923132
0
0.53935
3.6715
0
0
0.479473
1.74926
0
0
0
5.28509
14.5642
0
15.7929
0
6.24044
3.03482
0
2.22618
0.554424
0.632766
0
0
4.22269
0
1.08308
3.16253
0
3.56385
1.37877
0.585488
0
0
0
8.14638
6.64524
0
7.675
0
12.1694
0
0
1.79236
1.60788
0.604262
0
0
0
0
2.16532
1.70321
0
0
3.22501
1.05035
0
9.48135
4.77335
1.91425
0
0
7.88622
0
5.89766
0
0
1.12252
3.46198
0
0
0
0
0
3.65624
1.14277
0
3.33369
0
1.08565
8.50507
6.04594
14.7954
3.35286
0
0
-4.66779e-13
0
6.04549
0
0
2.07598
1.12306
0
0
12.2715
0
1.10768
2.21059
1.0788
0
0
2.10243
1.25784
0
9.91665
8.16337
0
0
0
7.32894
0
0
0
0
0.963593
1.14083
0
0
0
0
0.528826
2.75781
0
0
0
0
2.33324
2.44331
0
16.3522
0
0
0
0
0
0
0
0.14572
0.762488
0.955368
0
0
0
0
0.49458
1.71603
0.569815
0
0.10658
0.463144
0.69501
4.8926
20.4074
0
0
0
0
0
0
4.41273
0
0
0.553983
1.38801
0
0
0
0
1.3929
1.68286
0.55072
0
2.06458
0
1.24332
0
0
1.08274
3.89898
0
0
7.20235
10.4691
0
0
0
0.593746
0.454008
0
0
0
0
0.859171
1.12372
0
0
1.83892
0.944857
1.80313
2.73536
0
4.80278
7.74464
0
0
0
0
0
0
0
1.56045
0.202648
0.506152
0
0
0
0
1.54414
0.519428
0
0.215806
0.446747
3.52631
4.90648
11.1623
1.65616
7.90138
0
0
0
0
0
0
3.39196
1.28755
0
0
0
0
0
1.25336
0.953224
0
0
0
0.453184
3.3888
4.47643
0
4.9415
11.4323
24.8063
0
0
5.86955
0
0
0
0.747696
0
0
0
0
0
1.29177
1.94406
0.369614
0
2.51028
0.895896
5.35411
0
0
5.28711
11.7899
24.0872
0
5.89388
0
0
0
0.703896
2.07324
0.475963
0
0
0
3.42951
0
0
0
0
0
0.780745
2.79032
0
0
3.46351
0
20.4525
0
0
0
0
0
0
2.07488
0
0
0
0
0
0.837547
0.93902
0
0
0.909391
0.985593
1.60654
0
0
4.93006
0
0
0
0
0
0
0
0
2.28834
0
0
0
0
0
1.67657
0.458966
0
0
-4.03212e-14
1.16923
0.509096
0
0
0
3.85722
8.9473
0
0
3.57439
0
0
3.61859
1.30592
0
0
0
0
0
0.838784
0
0
0
0
1.64012
0
0
0
0
1.8386
-1.25673e-13
0
0
0
0
0
3.61998
0.779225
0
0
0
0
0.920429
0.689716
0.462817
0
0
0
1.15983
0.48359
0
0
2.02984
0.283358
4.41502
0
0
0
0
0
0
1.8752
0
0
0
0
0
0
0
0
0
0
0.935296
0.548342
0
0
0
4.36202
0
0
0
0
0
0
0
2.71049
0
0
0
0
0
0.276336
0
0
0
0
0.830563
1.65643
0
0
0
0
0
0
0
0
0
0
-3.65337e-14
0.960104
0
0
0
0
0
0.0163808
0
0
0
0
1.01286
0
0
0
4.78604
0
0
0
0
0
0
0
0
1.07474
0
0
0
0
0
0.231939
0
0
0
2.08345
1.64621
0.552937
0
0
4.80782
0
0
0
0
0
0
0
0
0.226495
0
0
0
0
0
0
0
0
0
5.56424
0.441327
0
0
0
4.65556
0
0
0
0
0
0
0
2.98642
1.87288
0
0
0
0
0
0
0
0
0
-2.9833e-14
0.413854
0
0
0
0
0
0
0
0
0
0
0
0
0.327361
0
0
0
0
0
-1.58957e-13
0
0
0
1.11753
2.50375
0
0
0
0
4.80447
0
0
0
0
0
0
0
0.465795
0
0
0
0
0
1.00939
0
0
0
0.975157
0.133839
0
0
0
0
0
0
0
0
0
0
0
0
0.46435
0
0
0
0
0
0.508141
0
0
0
3.29121
0
0
0
0
0
0
0
0
0
0
0
0
0
0.439589
0
0
0
0
0
1.00665
0
0
0
5.0423
0
0
0
0
0
0
0
0
0
0
0
0
0
0.45424
0
0
0
0
-8.91829e-13
1.02328
0
0
0
0
0
0
0
0
0
0
0
0
0
0
0
0
0
0
0
0
0
0
0
1.03266
0
0
0
0
0
0
0
0
0
0
0
0
0
0
0
0
0
0
0
0
0
0
-9.34946e-13
1.03868
0
0
0
0
0
0
0
0
0
0
0
0
0
0
0
0
0
0
0
0
0
0
0
1.67763
0
0
0
0
0
0
0
0
0
0
0
0
0
0
0
0
0
0
0
0
0
0
3.99589
0.983159
0
0
0
0
0
0
0
0
0
0
0
0
0
0
0
0
0
0
0
0
0
0
0
1.04487
0
0
0
2.55884
0
0
0
0
0
0
0
0
0
0
0
0
0
0
0
0
0
0
0
1.02244
0
0
0
0
0
0
0
0
0
0
0
0
0
0
0
0
0
0
0
0
0
0
0.101637
0
0
0
0
0
0
0
0
0
0
0
0
0
0
0
0
0
0
0
0
0
0
0
0
0
0
0
0
3.09203
-1.97585e-13
0
0
0
0
0
0
0
0
0
0
0
0
0
0
0
0
0
0
0
0
0
0
0
1.1873
0
0
0
0
0
0
0
0
0
0
0
0
0
0
0
0
0
0
0
0
0
0
0
0
0
0
0
0
0
0
0
0
0
0
0
0
0
0
0
0
0
0
0
0
0
0
0
0
0
0
0
0
0
0
0
0
0
0
0
0
0
0
0
0
0
0
0
0
0
0
0
0
0
0
0
0
0
0
0
0
0
0
0
0
0
0
0
0
0
0
0
0
0
0
0
0
0
0
0
0
0
0
0
0
0
0
0
0
0
0
0
0
0
0
0
0
0
0
0
0
0
0
0
0
0
0
0
0
0
0
0
0
0
0
0
0
0
0
0
0
0
0
0
0
0
0
0
2.67664
0
0
0
0
0
0
0
0
0
0
0
0
0
0
0
0
0
0
0
0
0
0
0
0
0
0
0
0
0
0
0
0
0
0
0
0
0
0
0
0
0
0
0
0
0
0
0
0
0
0
0
0
0
0
0
0
0
0
0
0
0
0
0
0
0
0
0
0
0
0
0
0
0
0
0
0
0
0
0
0
0
0
0
0
0
0
0
0
0
0
0
0
0
0
0
0
0
0
0
0
0
0
0
0
0
0
0
0
0
0
0
0
0
0
0
0
0
0
0
0
0
0
0
0
0
0
0
0
0
0
0
0
0
0
0
0
0
0
0
0
0
0
0
0
0
0
0
0
0
0
0
0
0
0
0
0
0
0
0
0
0
0
0
0
0
0
0
0
0
0
0
0
0
0
0
0
0
0
0
0
0
0
0
0
0
0
0
0
0
0
0
0
0
0
0
0
0
0
0
0
0
0
0
0
0
0
0
0
0
0
0
0
0
0
0
0
0
0
0
0
0
0
0
0
0
0
0
0
0
0
0
0
0
0
0
0
0
0
0
0
0
0
0
0
0
0
0
0
0
0
0
0
0
0
0
0
0
0
0
0
0
0
0
0
0
0
0
0
0
0
0
0
0
0
0
0
0
0
0
0
0
0
0
0
0
0
0
0
0
0
0
0
0
0
0
0
0
0
0
0
0
0
0
0
0
0
0
0
0
0
0
0
0
0
0
0
0
0
0
0
0
0
0
0
0
0
0
0
0
0
0
0
0
0
0
0
0
0
0
0
0
0
0
0
0
0
0
0
0
0
0
0
0
0
0
0
0
0
0
0
0
0
0
0
0
0
0
0
0
0
0
0
0
0
0
0
0
0
0
0
0
0
0
0
0
0
0
0
0
0
0
0
0
0
0
0
0
0
0
0
0
0
0
0
0
0
0
0
0
0
0
0
0
0
0
0
0
0
0
0
0
0
0
0
0
0
0
0
0
0
0
0
0
0
0
0
0
0
0
0
0
0
0
0
0
0
0
0
0
0
0
0
0
0
0
0
0
0
0
0
0
0
0
0
0
0
0
0
0
0
0
0
0
0
0
0
0
0
0
0
0
0
0
0
0
0
0
0
0
0
0
0
0
0
0
0
0
0
0
0
0
0
0
0
0
0
0
0
0
0
0
0
0
0
0
1170.15
627.868
1738
1170.47
391.649
1099.84
2042.6
2503.25
7443.15
4888.91
2103
5355.35
1464.87
1808.28
1151.55
943.587
829.217
1290.34
1091.05
890.023
916.43
1235.93
2457.1
1720.79
2015.05
1664.77
2783
184.747
719.363
3720.02
2272.25
730.318
3918.36
708.201
720.782
1213.05
929.738
805.356
768.51
591.853
383.262
847.797
856.81
411.195
680.197
1047.89
588.767
501.677
671.805
2416.51
4588
856.181
1438.38
2316.49
931.286
3157.99
800.349
4973.06
1015.49
248.518
272.93
488.933
486.854
486.856
490.744
485.273
451.477
438.323
499.475
760.942
6144.95
6839.51
5951.73
8695.72
7015.13
7934.7
6074.02
6827.68
7036.1
4058.8
2900.18
6694.21
6083.22
988.821
978.642
6957.35
3702.12
671.81
4181.52
4115.44
2815.31
941.695
946.666
641.191
947.924
5197.05
57.3175
34.1295
20.8009
116.568
23.39
25.2501
84.4139
13.2287
6.91568
10.5633
0
25.4926
183.225
0
307.579
10105.9
11170.3
42.577
1602.86
72.5454
670.439
28.7888
1885.85
46.7903
111.824
133.418
107.642
411.243
215.525
336.551
327.124
300.949
239.16
6050.78
299.733
2989.66
10027.2
2959.57
8169
616.914
253.463
417.266
483.477
252.778
2551.12
4348.51
2130.89
4730.33
3663.5
0
108.831
359.005
156.554
349.963
6250.78
2294.13
994.355
8208.65
7641.37
560.208
316.448
5957.56
5643.76
365.799
2658.66
941.512
116.874
499.449
1017.2
1120.68
643.977
8888.64
12446.1
2571.63
151.084
9919.29
4883.04
1109.12
543.812
39.6371
1278.09
4158.45
404.607
8786.89
59.3178
955.108
16.0203
32.2035
29.8097
36.4888
172.022
39.0345
9.89814
163.508
16.5506
16.4603
90.4128
411.424
215.92
9785.57
1404.26
222.266
4155.04
420.497
3826.9
1810.72
3123.42
3007.76
506.348
444.307
512.909
349.001
590.822
313.756
623.281
783.796
1907.6
9626.61
7627.55
9318.62
3838.38
5606.63
8004.59
780.23
242.677
2092.48
1641.29
242.54
9251.96
6325.31
10162
8183.71
8748.75
201.751
593.558
637.093
429.104
592.5
2735.44
3831.5
115.472
2770.3
2047.86
1238.89
174.764
1001.39
643.075
479.363
425.452
910.608
189.421
655.816
613.466
974.451
418.965
10653.4
7688.11
7128.59
3799.67
7608.75
8626.21
10913
5951.47
1280.66
7700.94
7432.95
4830.95
3484.43
5727.54
10195.7
82.2792
2834.74
437.42
792.108
10034
4092.88
10.2015
25.8275
42.4946
140.595
14.9802
251.041
221.261
5.42758
0
3438.41
77.6663
1026.02
39.5731
1246.96
0
132.53
1385.11
422.869
2469.34
554.932
3980.61
1707.77
8035.96
6151.77
10287.6
541.291
5247.98
2880.88
42.994
5507.08
929.999
3683.45
619.428
9510.03
8952.94
5172.38
5922.22
9162.79
9484.5
7375.57
10015.4
799.816
734.107
4317.71
4230.32
1908.57
5803.04
8431.22
890.138
1540.49
486.301
6653.63
1778.53
3017
1129.89
741.979
1133
940.426
2225.82
2019.81
2327.19
1795.34
1286.61
7054.75
9358.29
9010.52
10830.7
9263.21
10103.5
10609.8
8215.39
9775.02
9321.03
8996.44
10588.9
3404.39
4623.59
112.635
3593.89
7055.11
9011.74
5956.72
112.878
5498.78
695.19
0
527.667
1822.1
54.4787
641.103
4248.51
1574.14
2355.18
5082.79
3820.89
4227.32
902.091
733.157
1634.6
4607.64
10726.8
9480.35
11358.3
10613.4
12098.6
10544.9
11528.3
10800.9
6402.96
3175.78
9657.33
6369.47
3722.19
8998.11
7058.91
11917.4
9018.32
5705.46
9602.39
7966.4
9373.56
10383.9
12636.6
10813.2
11054.2
6660.21
4912.39
10032.6
6958.74
7793.42
11474.9
11896.4
3252.09
5907.92
3453.76
10251
4555.97
8772.53
7149.5
5560.03
4637.38
3863.88
5675.97
8293.6
7345.78
8200.85
6229.58
10193.3
10587.7
9726.56
10011.2
9525.97
10075.6
9845.23
9681.43
10219
9840.98
9852.09
9605.48
9618.99
13.7709
9.86809
1609.16
0
287.116
0
0
0
5649.4
5971.38
1552.88
1338.37
5806.05
7759.01
1184.46
199.615
10.7774
26.1982
229.429
1116.86
0
1.78714
28.7559
67.2316
4024.7
2848.92
1488.94
354.458
59.1683
8.45711
3.94915
395.646
32.0196
461.513
206.853
1097.93
26.4952
0
30.8483
1525
2582.1
52.7507
177.503
589.351
4166.51
6936.61
23.4606
520.203
1121.84
6787.09
7638.77
4195.04
1733.66
6317.85
11176.7
3250.9
5261
10897.9
10508.4
8232.76
3653.97
10740.4
10703.3
6488.55
8572.8
9290.18
1349.94
2427.38
5671.06
7711.11
9747.33
11155
10825.7
9845.47
9507.53
10032.3
10115.5
8726.12
9782.56
10571.9
10371.5
9288.54
11499.7
10481.5
0
0
0
0
0
0
0
0
10.1609
100.373
42.598
2.47388
56.376
60.211
86.0544
27.0293
22.8427
8.13229
16.9782
5.98488
29.8556
22.2881
19.8758
0
37.0924
6.16596
2.35986
11.4943
18.627
4.85546
3.9374
0
9.3649
0.27712
0
4.76726
11.7903
0
0.55144
623.594
44.9982
1362.12
25.8232
9.49955
4.47852
4.24449
17742.3
8287.12
14318.2
304.55
7842.26
355.455
5125.74
25.638
84.4842
8.11856
2.82867
5.32455
1575.28
4863.78
771.334
0.647367
7.03025
847.201
108.702
14116
8208.27
9221.18
313.465
4841.69
148.753
3379.81
255.315
102.762
4783.98
8806.74
9887.37
714.807
2511.39
7833.13
10209.3
1310.51
2687.1
6057.77
435.123
2156.25
934.33
5523.52
6137.71
10329.3
8861.99
9605.38
8713.73
8890.03
9250.12
8499.67
8906.14
10005.4
9515.11
8412.2
10463.2
9708.67
27.6416
20.8413
0
0
9.90351
0
12.8548
14.1376
19.8596
20.8666
0
3.74584
19.8493
62.6878
20.0872
0
16.5204
4.73112
25.6607
0.231855
55.4501
12.8733
34.8714
16.6394
6.85256
14.5448
4.12915
16.7231
6.93126
0
4.15767
0
0
0
0
0
0
0
0
10.0062
0
10.086
4.86648
0
6.08363
0
13.4653
19.1539
0
0
13.601
1.76694
42.0178
0
0.103524
0
0
0
0
4.96188
5.93502
15.248
3.96629
0
5.61024
49.0823
3.54306
4.55181
17.0324
4.08392
3.99917
0.259837
0
1.83098
0
0
0
0
39.2637
3.11817
167.742
2829.7
8791.85
15.9484
17.8477
564.346
2474.73
2577.95
1178.61
6464.22
2307.2
275.069
3351.46
1946.14
0
40.7167
0
0
0
0
9507.43
10272.5
9191.76
8233.96
20296.9
10287
7616.02
6683.65
9244.42
10158.4
6848.46
8878.73
8844.5
28.0684
0
0
5.04531
-1.60893e-12
0
7.43704
0
5.8307
12.6227
0
11.7627
14.7418
47.5867
31.7477
-4.39402e-12
33.1889
13.9067
13.5249
0
39.4901
19.4768
26.8924
10.8573
22.6293
6.71795
5.48266
-7.46869e-14
-8.75296e-14
0
8.68071
2.6189
0
-2.21573e-13
0
0
0
0
0
7.37768
0
-9.98524e-14
0.22592
0
0
0
0
7.03617
0
0
13.8979
-1.09349e-12
0
0
0
0
0
0
0
-5.92315e-14
5.19335
0
0
4.68054
5.24186
0
0
8.84923
5.81287
0
0
0
0
0
0
0
0
0
8.50775
0
8.62184
282.663
731.037
0
7.66031
116.323
280.757
6.09949
277.485
22.8412
1.27832
3.1441
2.04943
3.24332
0
0
0
0
0
0
2992.91
4196.24
16838.1
15150.4
18065.7
5995.74
3505.92
6254.5
24246
4128.49
673.091
3466.01
97.2493
0
11.6011
0
7.60273
6.06559
0
4.94007
0.217313
6.13213
8.23918
0
5.96724
12.713
22.6809
12.339
0.507004
16.1645
19.9959
13.5552
5.51983
27.0552
5.64921
14.2765
0
0.44716
-5.95992e-13
0
17.3315
0.368349
5.23025
4.68697
0
0
-8.62146e-13
0
2.05827
7.59248
0
3.16362
0
12.9013
0
0
0
5.462
0
0
0
0
0
0
0
0
0
0
0
0
0
0
4.08458
0
18.0013
8.06617
0
0
0
0
0
0
0
0
0
7.56014
0
-2.72487e-13
30.9116
67.9705
3.10028
7.72643
-2.01387e-12
18.2898
4.07905
1.96737
10.3907
3.94996
0.383931
0
2.57321
0
1016.68
431.741
1907.13
3434.45
587.825
436.55
896.809
47.5426
1446.85
36.1197
1.14267
98.5049
5.59751
12.5118
0
0
2.64857
0
0
0
0
6.01822
9.54823
0
0
15.3235
8.15193
12.491
0.582935
0
11.9151
24.2888
0.441449
0
8.46486
3.42526
5.86901
8.19352
5.29131
8.52995
5.67557
0
10.6097
6.49767
8.89882
0
-1.46651e-12
0
4.84716
0
0
0
1.55484
0
0
0
0
7.43584
0
0
0.721332
3.12225
0
8.68172
0.936992
0
10.8628
0
0
3.92383
6.16479
31.7075
6.71556
3.7469
0
5.14602
0
3.13961
0
0
0
2.54296
0
7.98445
172.423
74.703
61.8691
48.1765
65.32
11.1914
6.64361
9.01383
68.6417
15.8955
30.9596
1.74351
16.1699
0
12.3749
0
0
0
0
0
0
0
7.38039
0
0
12.5956
-1.46076e-12
0
0
0
8.86112
40.2297
0
0
4.79402
6.27582
0
0
-6.33665e-14
4.94218
0
0
0
0
0
0
0
5.8069
0
0
9.24961
4.5061
0
0
0
0
0
0
0
13.5719
0
0
0
4.84826
-2.69871e-13
0
4.98857
0
0
7.47386
5.08891
10.155
0
0
0
3.65384
0.587465
0
0
0
0
0
0
0
34.0435
0
6.33503
8.76216
5.31692
5.33463
0
12.2055
7.8139
3.1388
7.65465
0
7.81871
1.31519
11.978
0
7.42137
0
0
0
0
0
2.63131
0
0
0
4.53271
7.85777
0
14.443
13.9604
0.163323
0
10.3023
12.5996
5.52364
0
0
8.27944
3.29565
1.73704
0
15.7892
5.19592
0
0
6.63551
0
8.54405
6.10624
0
-5.29758e-13
0
0
0.295788
3.85861
0
0
0
0
7.32922
0
0
5.01741
0
0
5.14129
7.20613
0
0
5.85548
-2.85779e-13
0
0
0
0
0
3.01803
0
0
0
3.20458
0
0
2.74707
5.24418
9.34322
0
4.34129
3.46929
0
13.1701
-2.05484e-12
2.86368
7.36962
9.26318
6.42706
0.468669
24.16
0
0
0
0
0.206792
0
0
5.94464
0
0
0
0
0
23.82
0
6.80224
0
0
8.46081
13.0891
7.33425
0
0
0
0
0
0
0
0
0
0
5.2169
13.4169
0
4.85814
0
0
0
0
0
0
0
0.13525
-1.2045e-13
0
1.41913
0
0
0.200313
0
0
5.14519
4.69318
14.5817
0
-7.75778e-14
1.58016
4.04569
0
5.81071
0.362646
0
0
0
0
0.528242
3.12564
5.97606
8.92113
0
0
0
-9.16743e-13
9.4425
2.88887
10.8741
8.02376
10.7683
9.21808
0.159078
0
0
0
12.4571
0
0
0
0
0
0
0
0
0
0
0
0
0
8.84386
0
0.159061
17.8657
0
4.58893
0.965601
11.2129
0
0
0
0
0
0
0
0
0
0
0
0
0
0
0
0
0
0
0
0
0
0
0
0
0
0
0
5.4518
0
0
12.7716
0
0
0
1.56361
10.567
3.33398
0
6.61617
1.22567
0
0
0
0
0
0
0
-1.16981e-13
0
7.98724
3.3689
0
6.16786
11.364
24.9203
7.79241
0
-1.73978e-12
0
11.9673
7.61056
0
7.7735
0
0
0
0
0
0
0
0
0
0
0
0
0
0
7.68437
13.2706
0
0
5.0787
10.9713
0
0
0
0
0
0
0
0
0
0
0
0
0
3.46221
0
11.6039
0
0
0
0
0
0
0
0.527196
0
0
0
0
3.82227
0
0
0
0
0
4.03509
2.41294
9.3401
3.23737
1.07097
0
9.25782
4.07299
0
0
2.82493
5.31204
0
0
3.20594
18.1787
11.8266
3.57413
0
4.67389
0
0
4.40163
0
0
4.54205
0
8.18466
0
0
0
0
0
0
0
0
0
0
0
0
0
0
0
14.8045
7.16707
0
3.69149
0
2.43225
5.61923
6.98924
0
0
0
0
0
0
0
0
0
0
4.2223
0
3.32932
0
11.8488
0
0
0
0
0
0
0
0
12.2444
-1.51568e-13
0
0
0
0
0
0
0
0
8.25861
0
3.46215
0
0
0
0
0
0
0
6.91184
4.2516
0
0
10.018
7.7655
23.5386
7.92053
-4.8847e-12
1.40702
0
0
5.08317
0
0
-7.45065e-14
0
0
0
7.77447
0
0.284008
5.72137
0
0
0
0
0
0
0
0
0
0
12.2416
0
5.55001
6.81794
0
7.33655
2.58636
0
3.92582
0
0
0
0
0
0
0
0
0
1.6584
0
0
9.19961
0
2.2523
0
0
0
0
0
0
0
0
3.3426
0
0
0
0
0
0
0
0
0
4.81333
2.79818
0
4.01272
0
2.92536
12.3115
4.73855
0
15.4051
2.61367
7.74223
6.54226
10.2997
16.204
12.863
2.18974
0
6.32694
0
0
0
0
0
0
0
0
0
0
0
0
0
0
7.43497
0
0
0
0
0
0
0
0
12.3704
-9.03264e-14
0
2.60488
0
0
4.53601
5.04624
0
0
0
0
0
0
0
0
0
0
1.59032
0
-2.292e-13
0
11.1748
1.38093
0
0
0
0
0
0
0
0
0
0
0
0
0
0
0
0
0
3.86218
0
6.32591
6.03447
0
4.84574
2.01939
2.73223
0
0
9.46205
18.3281
0
0
0
0
1.825
1.30349
0
4.61119
6.64101
14.2186
0
0
0
3.81957
0
0
0
0
0
0
0
0
0
0
0
0
0
0
0
0
0
0
0
0
2.1271
0
7.32744
4.89812
3.11567
0
0
0
0
0
0
0
0
0
0
0
0
5.09867
0
0
0
0
0
0
0
0
0
0
0
3.19685
0
0
0
0
0
0
0
0
0
1.68201
0
3.0222
0
0
0
4.36098
4.42905
0
11.3998
4.17343
0
0
0
0
0
5.84706
28.6344
0
0
27.7287
0
0
3.84104
0
0.330033
8.88117
0
3.39874
0
0
0
0
0
0
0
0
0
0
0
0
0
13.6634
6.50023
5.20979
3.09368
0
13.814
8.61351
0.0887807
0
0
0
0
0
0
0
0
0
0
0
0
0
0
0
0
0
0
0
0
0
0
0
0
0
0
0
0
0
0
0
0
0
0
0
1.9001
0.644467
1.24728
9.7398
3.98655
0
0
0
0
0
4.62453
8.28608
0
0
10.225
0
0
0
0
0
0
0
0
4.98475
0
0
0
0
0
0
0
0
0
0
0
0
0
0
0
0
0
0
0.555523
5.2571
0
0
0
5.25552
2.79918
0
0
0
0
0
0
0
0
0
0
0
0
5.99901
0
0
-3.4069e-14
0
0
0
0
0
0
0
0
0
0
0
0
0
0
0
0
0
3.79516
0
1.28404
0
3.42765
0
6.02186
0
0
-9.98019e-13
4.9172
0
9.19072
8.15122
0
13.1974
0
2.53241
0
1.9345
0.901798
0
9.19969
0
-4.44127e-14
5.79791
0
8.66417
0
0
0
0
0
0
0
0
0
0
0
0
0
0
0
0
0
0
3.06122
0
0
0
3.14484
0
0
0
0
0
0
0
0
0
0
0
0
0
0
0
0
0
0
0
0
0
2.93991
0
0
0
3.28651
0
0
0
0
0
0
0
0
0
0
-8.92395e-13
0
0
0
0.276527
10.5785
6.22673
0
7.51098
19.5279
17.739
3.02359
0
8.07938
0
0
4.86024
0
0
5.09309
0
3.82151
5.07352
28.661
31.9907
12.0635
0
0
0
0
0
0
0
0
0
0
0
0
0
0
0
0
4.43468
0
0
0
0
0
0
0
0
0
0
0
0
0
0
0
7.55009
0
0
0
0
0
0
0
0
0
0
0
0
0
0
0
0
0
0
0
0
0
0
0
4.79441
3.13452
4.82725
0
1.68371
1.472
0
26.1011
42.3639
0
0
13.7618
10.1679
0
7.65423
0
5.33389
-4.84508e-12
-1.63432e-12
2.38923
9.5244
16.5969
0
8.40552
18.7362
0
16.7832
0
0
0
0
0
0
0
0
0
0
0
0
0
0
0
0
5.34783
0
3.088
0
0
0
3.5375
3.59932
0
0
0
0
0
0
0
0
0
0
0
0
0
0
0
0
0
0
0
0
0
0
0
0
0
0
0
0
0
0
-7.39539e-13
12.1779
0
7.66854
-8.46918e-13
0
0
5.00268
3.15393
0
21.2994
25.5784
0
0
4.01555
14.6997
0
0
0
0
0
0
4.04671
0
15.7864
0
0
10.7507
15.4158
4.49034
0
0
0
0
0
0
0
0
0
0
0
0
0
0
0
0
0
0
0
0
0
0
0
0
0
0
0
0
0
0
0
0
0
0
0
0
0.998914
0
1.10048
0
0
0
0
0
0
0
0
0
0
0
0
0
0
0
12.2293
6.25455
0
9.54618
3.34175
1.12792
0
0
0
4.43375
8.07635
0
0
0
4.03946
-2.79185e-12
0
0
0
0
14.9079
0
-2.35822e-13
0
5.03259
0
0
0
0
9.0833
0
0
0
0
0
0
0
0
0
0
0
0
0
0
0
0
0
2.95519
0
0
0
0
2.94998
0
0
0
0
0
0
0
0
0
0
0.151342
0
1.90311
0
0
0
0
0
0
0
0
0
0
0
0
0
0
0
0
0
0
2.51984
4.19136
0
0
0
0
0
0
0
0
7.11222
10.0307
0
0
0.0887255
7.90345
0
9.0623
0
4.69173
0
5.08217
0
0
0
0
0
1.95794
0
0
0
0
0
0
0
0
0
0
0
0
0
0
0
0
0
0
0
0
0
3.57255
0
0
5.86961
0
0
0
0
0
0
0
0
0
0
3.86194
0
3.05003
0
0
0
0
0
0
0
0
0
0
0
0
3.51806
0
0
0
0
0
0
0.491723
0
0
0
0
0
0
1.89809
0
0
0
0
0
0
0
0
0
0
0
0
0
0
0
9.56812
9.28426
0
10.4573
0
-2.55047e-12
0
0
0
0
0
0
0
0
0
0
0
0
0
0
0
0
0
0
0.59835
0
0
0
5.19792
0
0
0
0
0
0
0
0
0
0
0
0
0
0
0
0
0
0
0
0
0
4.87779
0
0
0.424268
0
0
0
0
0
0
0
0
0
0
3.87717
0
0
0
0
0
0
0
0
0
0
0
0
5.35858
-2.99116e-12
-2.76596e-12
0
0
5.1285
0
28.9908
0
4.32571
0
0
0
0
0
0
0
0
0
0
0
0
0
0
0
0
0
0
0
0
0
0.132001
6.80168
0
0
0
0
0
0
0
0
0
0
0
0
0
3.88793
0
3.07781
0
0
2.9409
0
0
0
0
0
0
0.845883
0
0
3.2011
0
0
0
0
0
0
0
0
0
0
0
3.02263
0
0
0
0
0
0
0
0
0
0
5.08143
0
0
0
0
4.21919
0
0
0
0
0
0
0
0
0
0
0
0
0
0
0
0
0
0
0
0
0
0
0
0
0
0
0
0
0
0
0
0
0
0
0
0
0
0
0
0
0
0
0.100662
0
0
0
0
0
0
0
0
0
0
0
0
0
0
0
0
0
0
0
0
0
0
0
0
0
0
0
0
0
0
0
0
0
0
0
0
0
0
0
5.06139
0
0
0
0
0
0
0
0
0
0
0
0
0
0
0
0
0
0
0
0
0
0
0
0
0
0
0
3.07983
0
0
0
0
0
0
0
0
0
0
0
0
0
0
0
2.91661
0
0
2.93455
0
0
0
0
0
0
0
0
0
0
0
0
0
0
0
0
0
0
0
0
2.95053
1.64262
0
0.0729487
0
0
0
0
0
0
0
0
-2.37741e-12
2.78127
0
0
0.0985568
0
0
0
0
0
0
0
0
0
0
0
0
0
0
0
0
0
0
0
0
0
0
0
0
0
0
0
0
0
0
0
0
0
0
0
0
0
0
0
0
0
0
0
0
0
0
0
0
0
0
0
0
0
0
0
0
0
0
0
0
0
0
0
0
1.34363
4.92374
1.44
0
0
21.3639
0
0
0
0
0
0
0
0
0
6.19661
0.240893
0
0
0
0
0
0
0
0
0
0
0
0
0
0
0
0
0
0
0
0
0
0
0
0
0
0
0
0
0
0
0
0
0
0
0
0
0
0
0
0
0
0
0
0
0
0
2.87716
0
0
0
0
0
0
0
0
0
3.78799
0
0
0
0
0
0
0
0
6.58957
1.95489
0
0
0
2.18301
0
0
0
0
0
0
0
0
0
0
0
2.93082
0
0
0
0
0
0
0
0
0
0
0
0
0
0
0
0
0
0
0
0
0
0
0
0
0
0
0
0
0
0
0
0
0
0
0
0
0
0
0
0
0
0
0
0
0
0
0
0
0
0
0
0
0
0
0
0
0
0
0
0
3.68311
0
0
0
0
0
12.8367
0
0
0
-9.25641e-13
3.81198
0
-1.79017e-12
1.8405
0
0
0
0
0
0
0
0
0
0
0
0
0
0
0
0
0
-1.0471e-12
0
0
0
0
0
0
0
0
0
0
0
0
0
0
0
0
0
0
0
0
0
0
0
0
0
0
0
0
0
0
0
0
0
0
0
0
0
0
0
0
0
3.53927
0
0
0
0
0
0
2.67273
0
0
0
0
0
0
0
0
0
1.56159
0
10.7782
0.465745
0.71009
0
0
0
0
0
0
0
0
0
0
0
0
0
2.48514
0
0
6.15446
0
0
0
0
0
0
0
0
0
0
0
0
0
0
0
0
0
0
0
0
0
0
0
0
0
0
0
0
0
0
0
0
0
0
0
0
0
0
0
0
0
0
3.21578
0
0
0
0
0
0
0
0
0
0
0
0
0
0
0
0
0
0
2.27695
0.279652
0
0
0
3.2254
0
0
0
0
0
0
0
0
0
0
0
0
0
0
0
0
0
0
0
0
0
0
0
0
0
0
0
0
0
0
0
0
0
0
0
0
0
0
0
0
0
0
0
0
0
0
0
0
0
0
0
0
0
0
0
0
0
0
0
0
0
0
0
0
0
0
0
0
2.86347
0
0
0
0
0
0
0
0
0
0
0
0
0
0
-9.73811e-13
0
0
0
0
0
0
0
0
0
0
0
0
0
0
0
0
0
0
0
0
0
0
0
0
0
0
0
0
0
0
0
0
0
0
0
0
0
0
0
0
0
0
0
0
0
0
0
0
0
0
0
0
0
0
0
0
0
0
0
0
0
0
0
0
0
0
0
0
0
0
0
0
0
0
0
0
0
0
0
0
0
0.626478
0
0
0
0
0
0
0
0
0
0
0
0
0
0
0
0
0
0
0
0
0
0
0
0
0
0
0
0
0
0
0
0
0
0
0
0
0
0
0
0
0
0
0
0
0
0
0
0
0
0
0
0
0
0
0
0
0
0
0
0
0
0
0
0
0
0
0
0
0
0
0
0
0
0
0
0
0
0
0
0
0
0
0
0
0
0
0
0
0
0
0
0
0
0
0
0
0
0
0
0
0
0
0
0
0
0
0
0
0
0
0
0
0
0
0
0
0
0
0
0
0
0
0
0
0
0
0
0
0
0
0
0
0
0
0
0
0
0
0
0
0
0
0
0
0
0
0
0
0
0
0
0
0
0
0
0
0
0
0.256795
0
0
0
0
0
-2.04584e-12
9.63291
0
0
0
-1.51044e-14
0
0
0
0
0
0
0
0
0
0
0
0
0
0
0
0
0
0
0
0
0
0
0
0
0
0
0
0
0
0
0
0
0
0
0
0
0
0
0
0
0
0
0
0
0
0
0
0
0
0
0
0
0
0
0
0
0
0
0
0
0
0
0
0
0
0
0
0
0
0.0462233
0
0
0
0
0
0
0
0
0.96355
0
0
0
0
0
0
0
0
0
0
0
0
0
0
0
0
0
0
0
0
0
0
0
0
0
0
0
0
0
0
0
0
0
0
0
0
0
0
0
0
0
0
0
0
0
0
0
0
0
0
0
0
0
0
0
0
0
0
0
0
0
0
0
0
0
0
0
0
0
0
0
0
0
0
0
0
0
0
0
0
0
0
0
0
0
0
0
0
0
0
0
0
0
0
0
0
0
0
0
0
0
0
0
0
0
0
0
0
0
0
0
0
0
0
0
0
0
0
0
0
0
0
0
0
0
0
0
0
0
0
0
0
0
0
0
0
0
0
0
0
0
0
0
0
0
0
0
0
0
0
0
0
0
0
0
0
0
0
0
0
0
0
0
0
0
0
0
0
0
0
0
0
0
0
0
0
0
0
0
0
0
0
0
0
0
0
0
0
0
0
0
0
0
0
0
0
0
0
0
0
0
0
0
0
0
0
0
0
0
0
0
0
0
0
0
0
0
0
0
0
0
0
0
0
0
0
0
0
0
0
0
0
0
0
0
0
0
0
0
0
0
0
0
0
0
0
0
0
0
0
0
0.537539
0
0
0
0
0
0
0
0
0
0
0
0
0
0
0
0
0
0
0
0
0
0
0
0
0
0
0
0
0
0
0
0
0
0
0
0
0
0
0
0
0
0
0
0
0
0
0
0
0
0
0
0
0
0
0
0
0
0
0
0
0
0
0
0
0
0
0
0
0
0
0
0
0
0
0
0
0
0
0
0
0
0
0
0
0
0
0
0
0
0
0
0
0
0
0
0
0
0
0
0
0
0
0
0
0
0
0
0
0
0
0
0
0
0
0
0
0
0
0
0
0
0
0
0
0
0
0
0
0
0
0
0
0
0
0
0
0
0
0
0
0
0
0
0
0
0
0
0
0
0
0
0
0
0
0
0
0
0
0
0
0
0
0
0
0
0
0
0
0
0
0
0
-4.18627e-14
0
0
0
0
0
0
0
0
0
0
0
0
0
0
0
0
0
0
0
0
0
0
0
0
0
0
0
0
0
0
0
0
0
0
0
0
0
0
0
0
0
0
0
0
0
0
0
0
0
0
0
0
0
0
0
0
0
0
0
0
0
0
0
0
0
0
0
0
0
0
0
0
0
0
0
0
0
0
0
0
0
0
0
0
0
0
0
0
0
0
0
0
0
0
0
0
0
0
0
0
0
0
0
0
0
0
0
0
0
0
0
0
0
0
0
0
0
0
0
0
0
0
0
0
0
0
0
0
0
0
0
0
0
0
0
0
0
0
0
0
0
0
0
0
0
0
0
0
0
0
0
0
0
0
0
0
0
0
0
0
0
0
0
0
0
0
0
0
1.72528
0
-1.63887e-12
0
0
0
0
0
0
0
0
0
0
0
0
0
0
0
0
0
0
0
0
0
0
0
0
0
0
0
0
0
0
0
0
0
0
0
0
0
0
0
0
0
0
0
0
0
0
0
0
0
0
0
0
0
0
0
0
0
0
0
0
0
0
0
0
0
0
0
0
0
0
0
0
0
0
0
0
0
8.06262
0
3.16752
0
0
0
0
0
0
0
0
0
0
0
0
0
0
0
0
0
0
0
0
0
0
0
0
0
0
0
0
0
0
0
0
0
0
0
0
0
0
0
0
0
0
0
0
0
0
0
0
0
0
0
0
0
0
0
0
0
0
0
0
0
0
0
0
0
0
0
0
0
0
0
0
0
0
0
0
0
0
0
0
0
0
0
0
0
0
0
-5.56299e-13
0
0
0
0
0
0
0
0
0
0
0
0
0
0
0
0
0
0
0
0
0
0
0
0
0
0
0
0
0
0
0
0
0
0
0
0
0
0
0
0
0
0
0
0
0
0
0
0
0
0
0
0
0
0
0
0
0
0
0
0
0
0
0
0
0
0
0
0
0
0
0
0
0
0
0
0
0
0
0
4.75564
0
0
0
0
0
0
0
0
0
0
0
0
0
0
0
0
0
0
0
0
0
0
0
0
0
0
0
0
0
0
0
0
0
0
0
0
0
0
0
0
0
0
0
0
0
0
0
0
0
0
0
0
0
0
0
0
0
0
0
0
0
0
0
0
0
0
0
0
0
0
0
0
0
0
0
0
0
0
0
0
0
0
0
0
0
0
0
0
0
0
0
0
0
0
0
0
0
0
0
0
0
0
0
0
0
0
0
0
0
0
0
0
0
0
0
0
0
0
0
0
0
0
0
0
0
0
0
0
0
0
0
0
0
0
0
0
0
0
0
0
0
0
0
0
0
0
0
0
0
0
0
0
0
0
0
0
0
0
0
0
0
0
0
0
0
0
0
0
0
0
0
0
0
0
0
0
0
0
0
0
0
0
0
0
2.36261
0
0
0
0
0
0
0
0
0
0
0
0
0
0
0
0
0
0
0
0
0
0
0
0
0
0
0
0
0
0
0
0
0
0
0
0
0
0
0
0
0
0
0
0
0
0
0
0
0
0
0
0
0
0
0
0
0
0
0
0
0
0
0
0
0
0
0
0
0
0
0
0
0
0
0
0
0
0
0
0
0
0
0
0
0
0
0
0
0
0
0
0
0
0
0
0
0
0
0
0
0
0
0
0
0
0
0
0
0
0
0
0
0
0
0
0
0
0
0
0
0
0
0
0
0
0
0
0
0
0
0
0
0
0
0
0
0
0
0
0
0
0
0
0
0
0
0
0
0
0
0
0
0
0
0
0
0
0
0
0
0
0
0
0
0
0
0
0
0
0
0
0
0
0
0
0
0
0
0
0
0
0
0
0
0
0
0
0
0
0
0
0
0
0
0
0
0
0
0
0
0
0
0
0
0
0
0
0
0
0
0
0
0
0
0
0
0
0
0
0
0
0
0
0
0
0
0
0
0
0
0
0
0
0
0
0
0
0
0
0
0
0
0
0
0
0
0
0
0
-1.44087e-12
0
0
2.31281
0
0
0
0
0
0
0
0
0
0
0
0
0
0
0
0
0
0
0
0
0
0
0
0
0
0
0
0
0
0
0
0
0
0
0
0
0
0
0
0
0
0
0
0
0
0
0
0
0
0
0
0
0
0
0
0
0
0
0
0
0
0
0
0
0
0
0
0
0
0
0
0
0
0
0
0
0
0
0
0
0
0
0
0
0
0
0
0
0
0
0
0
0
0
0
0
0
0
0
0
0
0
0
0
0
0
0
0
0
0
0
0
0
0
0
0
0
0
0
0
0
0
0
0
0
0
0
0
0
0
0
0
0
0
0
0
0
0
0
0
0
0
0
0
0
0
0
0
0
0
0
0
0
0
0
0
0
0
0
0
0
0
0
0
0
0
0
0
0
0
0
0
0
0
0
0
0
0
0
0
0
0
0
0
0
0
0
0
0
0
0
0
0
0
0
0
0
0
0
0
0
0
0
0
0
0
0
0
0
0
0
0
0
0
0
0
0
0
0
0
0
0
0
0
0
0
0
0
0
0
0
0
0
0
0
0
0
0
0
0
0
0
0
0
0
0
0
0
0
0
0
0
0
0
0
0
0
0
0
0
0
0
0
0
0
0
0
0
0
0
0
0
0
0
0
0
0
0
0
0
0
0
0
0
0
0
0
0
0
0
0
0
0
0
0
0
0
0
0
0
0
0
0
0
0
0
0
0
0
0
0
0
0
0
0
0
0
0
0
0
0
0
0
0
0
0
0
0
0
0
0
0
0
0
0
0
0
0
0
0
0
0
0
0
0
0
0
0
0
0
0
0
0
0
0
0
0
0
0
0
0
0
0
0
0
0
0
0
0
0
0
0
0
0
0
0
0
0
0
0
0
0
0
0
0
0
0
0
0
0
0
0
0
0
0
0
0
0
0
0
0
0
0
0
0
0
0
0
0
0
0
0
0
0
0
0
0
0
0
0
0
0
0
0
0
0
0
0
0
0
0
0
0
0
0
0
0
0
0
0
0
0
0
0
0
0
0
0
0
0
0
0
0
0
0
0
0
0
0
0
0
0
0
0
0
0
0
0
0
0
0
0
0
0
0
0
0
0
0
0
0
0
0
0
0
0
0
0
0
0
0
0
0
0
0
0
0
0
0
0
0
0
0
0
0
0
0
0
0
0
0
0
0
0
0
0
0
0
0
0
0
0
0
0
0
0
0
0
0
0
0
0
0
0
0
0
0
0
0
0
0
0
0
0
0
0
0
0
0
0
0
0
0
0
0
0
0
0
0
0
0
0
0
0
0
0
0
0
0
0
0
0
0
0
0
0
0
0
0
0
0
0
0
0
0
0
0
0
0
0
0
0
0
0
0
0
0
0
0
0
0
0
0
0
0
0
0
0
0
0
0
0
0
0
0
0
0
0
0
0
0
0
0
0
0
0
0
0
0
0
0
0
0
0
0
0
0
0
0
0
0
0
0
0
0
0
0
0
0
0
0
0
0
0
0
0
0
0
0
0
0
0
0
0
0
0
0
0
0
0
0
0
0
0
0
0
0
0
0
0
0
0
0
0
0
0
0
0
0
0
0
0
0
0
0
0
0
0
0
0
0
0
0
0
0
0
0
0
0
0
0
0
0
0
0
0
0
0
0
0
0
0
0
0
0
0
0
0
0
0
0
0
0
0
0
0
0
0
0
0
0
0
0
0
0
0
0
0
0
0
0
0
0
0
0
0
0
0
0
0
0
0
0
0
0
0
0
0
0
0
0
0
0
0
0
0
0
0
0
0
0
0
0
0
0
0
0
0
0
0
0
0
0
0
0
0
0
0
0
0
0
0
0
0
0
0
0
0
0
0
0
0
0
0
0
0
0
0
0
0
0
0
0
0
0
0
0
0
0
0
0
0
0
0
0
0
0
0
0
0
0
0
0
0
0
0
0
0
0
0
0
0
0
0
0
0
0
0
0
0
0
0
0
0
0
0
0
0
0
0
0
0
0
0
0
0
0
0
0
0
0
0
0
0
0
0
0
0
0
0
0
0
0
0
0
0
0
0
0
0
0
0
0
0
0
0
0
0
0
0
0
0
0
0
0
0
0
0
0
0
0
0
0
0
0
0
0
0
0
0
0
0
0
0
0
0
0
0
0
0
0
0
0
0
0
0
0
0
0
0
0
0
0
0
0
0
0
0
0
0
0
0
0
0
0
0
0
0
0
0
0
0
0
0
0
0
0
0
0
0
0
0
0
0
0
0
0
0
0
0
0
0
0
0
0
0
0
0
0
0
0
0
0
0
0
0
0
0
0
0
0
0
0
0
0
0
0
0
0
0
0
0
0
0
0
0
0
0
0
0
0
0
0
0
0
0
0
0
0
0
0
0
0
0
0
0
0
0
0
0
0
0
0
0
0
0
0
0
0
0
0
0
0
0
0
0
0
0
0
0
0
0
0
0
0
0
0
0
0
0
0
0
0
0
0
0
0
0
0
0
0
0
0
0
0
0
0
0
0
0
0
0
0
0
0
0
0
0
0
0
0
0
0
0
0
0
0
0
0
0
0
0
0
0
0
0
0
0
0
0
0
0
0
0
0
0
0
0
0
0
0
0
0
0
0
0
0
0
0
0
0
0
0
0
0
0
0
0
0
0
0
0
0
0
0
0
0
0
0
0
0
0
0
0
0
0
0
0
0
0
0
0
0
0
0
0
0
0
0
0
0
0
0
0
0
0
0
0
0
0
0
0
0
0
0
0
0
0
0
0
0
0
0
0
0
0
0
0
0
0
0
0
0
0
0
0
0
0
0
0
0
0
0
0
0
0
0
0
0
0
0
0
0
0
0
0
0
0
0
0
0
0
0
0
0
0
0
0
0
0
0
0
0
0
0
0
0
0
0
0
0
0
0
0
0
0
0
0
0
0
0
0
0
0
0
0
0
0
0
0
0
0
0
0
0
0
0
0
0
0
0
0
0
0
0
0
0
0
0
0
0
0
0
0
0
0
0
0
0
0
0
0
0
0
0
0
0
0
0
0
0
0
0
0
0
0
0
0
0
0
0
0
0
0
0
0
0
0
0
0
0
0
0
0
0
0
0
0
0
0
0
0
0
0
0
0
0
0
0
0
0
0
0
0
0
0
0
0
0
0
0
0
0
0
0
0
0
0
0
0
0
0
0
0
0
0
0
0
0
0
0
0
0
0
0
0
0
0
0
0
0
0
0
0
0
0
0
0
0
0
0
0
0
0
0
0
0
0
0
0
0
0
0
0
0
0
0
0
0
0
0
0
0
0
0
0
0
0
0
0
0
0
0
0
0
0
0
0
0
0
0
0
0
0
0
0
0
0
0
0
0
0
0
0
0
0
0
0
0
0
0
0
0
0
0
0
0
0
0
0
0
0
0
0
0
0
0
0
0
0
0
0
0
0
0
0
0
0
0
0
0
0
0
0
0
0
0
0
0
0
0
0
0
0
0
0
0
0
0
0
0
0
0
0
0
0
0
0
0
0
0
0
0
0
0
0
0
0
0
0
0
0
0
0
0
0
0
0
0
0
0
0
0
0
0
0
0
0
0
0
0
0
0
0
0
0
0
0
0
0
0
0
0
0
0
0
0
0
0
0
0
0
0
0
0
0
0
0
0
0
0
0
0
0
0
0
0
0
0
0
0
0
0
0
0
0
0
0
0
0
0
0
0
0
0
0
0
0
0
0
0
0
0
0
0
0
0
0
0
0
0
0
0
0
0
0
0
0
0
0
0
0
0
0
0
0
0
0
0
0
0
0
0
0
0
0
0
0
0
0
0
0
0
0
0
0
0
0
0
0
0
5.4683
7.75062
12.2315
27.9949
66.7178
106.055
282.744
86.2167
427.08
109.149
383.732
685.06
467.9
401.04
220.621
2700.93
1315.12
2791.01
62.1463
4638.78
343.52
93.2762
279.392
81.5356
111.846
161.951
12.9097
178.355
204.755
225.116
427.686
569.235
408.952
404.045
204.419
369.173
390.312
640.721
197.364
162.313
70.9158
243.052
2641.42
756.637
380.717
5061.22
2929.45
1155.76
1474.6
346.078
2960.32
582.254
437.613
80.9811
2598.32
427.668
273.645
125.493
83.7635
172.88
181.646
382.797
346.702
590.828
194.264
109.989
202.411
388.39
339.669
308.783
1063.58
7175.76
5180.28
2765.92
1481.78
7935.71
7217.58
870.153
1743.28
1506.83
1600.82
1489.51
5172.41
2954.68
46.8052
118.976
154.635
576.129
277.139
885.68
339.257
295.633
127.289
341.635
45.5684
121.646
75.7777
312.519
571.851
6865.82
410.571
1141.65
2759.28
3630.92
1545.72
1944.03
3572.61
1581.86
8372.66
3033.28
7374.07
2879.86
1759.04
2805.69
1323.11
8436.93
8307.68
3911.23
6259.93
99.7054
345.218
377.654
2131.63
94.7002
2987.87
850.294
1197.64
590.223
1379.65
19.4404
118.726
18.6686
315.612
4557.07
8424.53
4419.85
2528.28
2768.96
9302.16
4979.51
10948
7905.67
9887.77
996.88
1658.86
3967.97
3019.33
1265.87
8801.41
7936.75
7230.74
6288.44
4859.34
8171.5
1254.82
2966.53
756.909
4082.04
4110.25
5233.81
1133.41
1672.35
9409.72
4503.32
5423.08
1285.81
8099.15
2902.76
14.6816
499.349
457.817