/*--------------------------------*- C++ -*----------------------------------*\
| =========                 |                                                 |
| \\      /  F ield         | OpenFOAM: The Open Source CFD Toolbox           |
|  \\    /   O peration     | Version:  5.x                                   |
|   \\  /    A nd           | Web:      www.OpenFOAM.org                      |
|    \\/     M anipulation  |                                                 |
\*---------------------------------------------------------------------------*/
FoamFile
{
    version     2.0;
    format      ascii;
    class       volScalarField;
    location    "5";
    object      p;
}
// * * * * * * * * * * * * * * * * * * * * * * * * * * * * * * * * * * * * * //

dimensions      [0 2 -2 0 0 0 0];

internalField   nonuniform List<scalar> 
10571
(
338.716
362.822
345.312
261.647
250.237
308.785
241.312
217.323
243.741
223.881
260.863
225.796
214.115
216.087
216.614
200.361
219.738
208.515
215.461
203.648
191.42
226.712
242.551
215.354
161.903
189.466
156.193
124.405
149.505
129.766
171.357
145.529
74.1861
134.992
89.7366
116.773
177.828
114.086
52.2665
84.3176
111.434
118.389
67.3522
96.4444
100.404
114.738
105.486
110.969
70.0389
87.7507
95.3861
59.5615
51.4778
50.2663
100.138
65.5533
43.0007
55.4786
46.199
42.4275
59.4174
48.9468
40.2423
43.0729
40.3017
38.7029
39.585
37.0737
39.0852
41.2208
40.7291
40.3494
51.6799
51.0203
57.3894
54.1924
47.2059
43.3233
40.4888
42.2161
41.9132
42.6326
41.6354
41.8623
34.9155
39.706
45.2188
41.2194
39.5476
37.2621
40.18
40.6707
41.907
38.8648
39.3498
39.9321
35.2966
39.4464
36.3669
35.1679
39.2886
38.2478
36.2691
36.6055
39.4523
38.7054
38.033
37.7182
36.3672
37.4785
39.9653
39.4205
37.7155
37.5582
37.647
39.1444
39.1569
37.4129
38.0006
39.0773
35.4612
35.7471
35.4802
35.5702
35.5294
35.8975
35.6206
36.4205
37.2153
36.6652
36.133
36.0642
35.9794
35.3056
35.8814
35.0873
36.7767
36.0932
36.6964
36.3488
36.3059
37.317
36.5303
36.728
36.8237
37.8456
35.2219
35.0365
35.0513
34.9551
35.3377
35.1736
34.7151
34.9677
35.3838
35.7754
35.9449
35.1562
35.2031
34.2981
35.1944
34.6133
35.6007
35.8191
35.9662
35.5235
35.7868
36.6247
36.4303
35.5501
35.9953
36.0318
36.5743
34.9891
34.8578
34.8563
34.8404
35.0609
34.916
34.7883
34.5432
34.8843
35.2077
35.9985
34.6815
34.7805
34.3543
35.048
34.5582
35.3576
35.5831
35.2088
35.1579
35.2755
35.8711
37.0816
35.9158
35.4143
35.3851
35.6301
34.8829
34.7828
34.7865
34.8341
34.9358
34.8475
34.814
34.842
35.1798
34.9816
35.8213
34.5522
34.5996
34.6203
34.866
34.6741
34.839
35.4023
34.7043
34.9704
34.9023
34.2451
35.5847
34.9355
34.8836
34.7837
34.8347
34.7268
34.7599
34.7917
34.8546
34.5708
34.7435
34.7737
35.0293
34.0527
34.5817
34.5594
34.5992
34.6708
34.769
34.121
34.6139
34.7948
34.6434
34.5863
34.2646
34.6732
34.6212
34.6469
34.811
34.6907
34.733
34.754
34.7938
34.6504
34.7299
34.7162
34.7774
34.3401
34.5983
34.4835
34.5034
34.582
34.751
34.126
34.6043
34.5726
34.5162
34.6672
34.5976
34.4068
34.506
34.6497
34.7715
34.6854
34.7034
34.7365
34.7688
34.6588
34.7444
34.7293
34.6998
34.6038
34.623
34.5781
34.569
34.6154
34.7276
34.4977
34.6294
34.5092
34.572
34.665
34.5935
34.5162
34.5532
34.654
34.7611
34.6572
34.6675
34.7094
34.7526
34.664
34.7432
34.7321
34.6755
34.684
34.6411
34.6644
34.6737
34.6639
34.7129
34.5988
34.6779
34.6304
34.643
34.6853
34.7662
34.6449
34.6326
34.6826
34.7444
34.6695
34.6576
34.6843
34.7371
34.6571
34.7273
34.7187
34.6707
34.7288
34.6916
34.6716
34.6995
34.6691
34.6831
34.6073
34.6893
34.7353
34.6864
34.7013
34.7763
34.7334
34.6844
34.713
34.7239
34.693
34.6464
34.6721
34.7263
34.6741
34.7031
34.7015
34.6912
34.7559
34.7114
34.6611
34.6757
34.6582
34.6424
34.6472
34.7411
34.7931
34.703
34.7107
34.7711
34.7797
34.7259
34.7427
34.7186
34.7095
34.6325
34.6751
34.7211
34.6811
34.6772
34.6776
34.7127
34.7583
34.7296
34.6387
34.6503
34.6442
34.6324
34.6958
34.7904
34.8153
34.7164
34.7295
34.7895
34.7882
34.7604
34.7685
34.7362
34.7265
34.6439
34.6959
34.7293
34.6998
34.6557
34.6652
34.7256
34.759
34.7306
34.601
34.6348
34.6497
34.6432
34.7104
34.8262
34.8137
34.7393
34.7521
34.7728
34.8098
34.7893
34.7924
34.77
34.7552
34.6961
34.7333
34.7524
34.7073
34.6581
34.6906
34.7501
34.7786
34.7928
34.6628
34.6394
34.6955
34.6654
34.7445
34.8468
34.8323
34.781
34.7793
34.786
34.8649
34.8174
34.8212
34.8204
34.8022
34.7636
34.7802
34.7948
34.7364
34.6886
34.7402
34.798
34.8229
34.8402
34.8225
34.6977
34.7575
34.6976
34.8144
34.8867
34.8438
34.8309
34.8146
34.8317
34.8621
34.8567
34.8562
34.8745
34.8442
34.8159
34.8276
34.8414
34.7854
34.7341
34.7804
34.8385
34.8558
34.8308
34.8935
34.7593
34.8116
34.7439
34.8595
34.9063
34.8105
34.8778
34.8576
34.8781
34.809
34.8863
34.8893
34.9129
34.8789
34.8546
34.8622
34.8724
34.8141
34.7813
34.7967
34.8484
34.8664
34.8265
34.8092
34.7977
34.8482
34.7729
34.8923
34.8269
34.8206
34.9204
34.885
34.922
34.7912
34.9128
34.9145
34.921
34.9041
34.8803
34.8667
34.8662
34.8322
34.7945
34.7967
34.855
34.8771
34.83
34.7363
34.7819
34.8538
34.7994
34.9121
34.7911
34.9037
34.9505
34.9031
34.935
34.8753
34.952
34.9398
34.8916
34.9015
34.8781
34.8372
34.8327
34.8375
34.841
34.7904
34.8761
34.8921
34.825
34.785
34.863
34.8401
34.82
34.932
34.8105
35.0369
34.9526
34.9361
34.9644
34.9515
34.9743
34.9672
34.844
34.8654
34.8443
34.811
34.815
34.8041
34.8717
34.7799
34.8894
34.899
34.7906
34.7743
34.9167
34.7984
34.8095
34.9343
34.7845
35.0505
34.9359
34.9354
34.9803
34.9788
34.9656
34.9771
34.8216
34.8027
34.782
34.7932
34.8262
34.7275
34.8133
34.7779
34.8783
34.8916
34.7346
34.7041
34.8434
34.7468
34.7549
34.9124
34.7187
34.9067
34.881
34.877
34.9511
34.9351
34.9274
34.9547
34.8225
34.7226
34.7212
34.7797
34.8307
34.6347
34.7334
34.787
34.8438
34.8726
34.6863
34.6267
34.7605
34.713
34.6836
34.8593
34.6692
34.7695
34.789
34.7806
34.8657
34.8559
34.8648
34.889
34.8439
34.6588
34.6576
34.7638
34.8204
34.5738
34.6603
34.8
34.8017
34.8407
34.656
34.6023
34.6973
34.7369
34.6173
34.7829
34.6453
34.6832
34.6881
34.6602
34.759
34.7846
34.7923
34.7995
34.8593
34.617
34.5843
34.7307
34.783
34.5444
34.5929
34.7891
34.7581
34.7994
34.6439
34.5989
34.6456
34.7753
34.5648
34.703
34.6358
34.6307
34.6105
34.5639
34.6505
34.7265
34.7191
34.7073
34.8222
34.5844
34.518
34.6675
34.7287
34.5176
34.542
34.7386
34.7012
34.752
34.6216
34.5852
34.6043
34.7783
34.5259
34.6223
34.6278
34.5937
34.5479
34.493
34.5505
34.6674
34.642
34.626
34.7304
34.5557
34.4547
34.5797
34.6589
34.4929
34.5025
34.656
34.6262
34.694
34.6054
34.5663
34.5698
34.7354
34.5208
34.5629
34.6165
34.5598
34.4927
34.4653
34.4961
34.6042
34.5635
34.5525
34.6152
34.5366
34.4139
34.4853
34.5823
34.4874
34.4806
34.5435
34.5616
34.6213
34.5965
34.5472
34.5399
34.6703
34.5035
34.5253
34.6011
34.5193
34.4462
34.4467
34.466
34.5374
34.4803
34.5033
34.5231
34.5438
34.4172
34.4451
34.5326
34.5156
34.4772
34.4649
34.5166
34.5564
34.5968
34.5355
34.5201
34.6033
34.4697
34.5088
34.5924
34.4693
34.4041
34.4286
34.45
34.4662
34.4165
34.4793
34.4833
34.5772
34.4868
34.4183
34.514
34.5703
34.4939
34.4321
34.4919
34.5168
34.609
34.5379
34.5084
34.5279
34.4329
34.4944
34.5928
34.4192
34.3468
34.4103
34.4303
34.4239
34.3786
34.4482
34.5012
34.617
34.5288
34.4767
34.5384
34.6278
34.5086
34.4495
34.4667
34.5024
34.6305
34.5464
34.4965
34.4516
34.3714
34.4721
34.5998
34.3825
34.2684
34.3596
34.3797
34.4165
34.3546
34.3954
34.5851
34.6539
34.518
34.6022
34.6035
34.6624
34.5155
34.4677
34.4614
34.497
34.6522
34.5585
34.4917
34.3975
34.3049
34.4412
34.6103
34.3669
34.2019
34.307
34.3287
34.4396
34.3381
34.3435
34.6588
34.7012
34.5298
34.6083
34.6337
34.6907
34.5473
34.4928
34.4999
34.5233
34.6751
34.58
34.5237
34.3872
34.3058
34.4282
34.6286
34.3802
34.1915
34.2713
34.3248
34.477
34.3326
34.3241
34.6767
34.7802
34.659
34.6028
34.643
34.7233
34.6032
34.5249
34.5495
34.5594
34.7079
34.6189
34.572
34.411
34.3828
34.4617
34.6598
34.4177
34.2778
34.3166
34.3688
34.5223
34.393
34.3248
34.7056
34.842
34.7724
34.6013
34.659
34.7619
34.6645
34.5504
34.5513
34.5919
34.75
34.6738
34.6291
34.4625
34.4536
34.5225
34.7102
34.5084
34.3953
34.3938
34.4911
34.5863
34.4467
34.3348
34.7916
34.8973
34.8715
34.6887
34.6047
34.8069
34.7187
34.5836
34.5455
34.6399
34.8014
34.7391
34.6965
34.5235
34.5097
34.59
34.7718
34.6286
34.5282
34.4667
34.577
34.6747
34.5339
34.3728
34.8392
34.9431
34.9028
34.7573
34.6598
34.8533
34.7698
34.6292
34.5859
34.7289
34.8626
34.8109
34.7804
34.6032
34.5969
34.6863
34.8463
34.7614
34.6908
34.6064
34.7059
34.7873
34.6669
34.5301
34.8729
34.9932
34.9233
34.7836
34.8026
34.9018
34.839
34.7049
34.7222
34.8072
34.9272
34.8852
34.878
34.7309
34.8419
34.8239
34.923
34.8918
34.8381
34.8231
34.8729
34.9081
34.8307
34.7632
34.8997
35.043
34.9681
34.8212
34.922
34.9531
34.9205
34.8508
34.9009
34.8942
34.9866
34.9563
34.9749
34.9168
35.0698
34.9963
34.9952
35.0061
34.9914
35.0639
35.0792
35.0254
35.0056
35.0095
34.9211
35.0943
35.0218
34.8828
34.9994
35.0003
35.0057
34.9952
35.0039
34.9255
35.036
35.0103
35.0518
35.0796
35.2021
35.1517
35.0541
35.0991
35.1693
35.266
35.3338
35.1166
35.16
35.3081
34.9732
35.1366
35.0716
34.9847
35.0773
35.0271
35.0867
35.1215
35.164
35.1544
35.0719
35.0457
35.103
35.1539
35.2959
35.3398
35.0947
35.142
35.2397
35.3092
35.3502
35.1665
35.2196
35.3447
35.0874
35.1562
35.1096
35.0929
35.1622
35.0325
35.124
35.1969
35.225
35.2435
35.1001
35.0736
35.1325
35.1874
35.3047
35.3742
35.1214
35.1628
35.2285
35.2959
35.3456
35.1881
35.2261
35.3029
35.1901
35.1344
35.1215
35.1753
35.1569
35.0328
35.1331
35.2072
35.203
35.2555
35.1218
35.0965
35.1477
35.1895
35.2588
35.3116
35.1383
35.1685
35.2049
35.2654
35.2991
35.2012
35.2247
35.2627
35.2083
35.111
35.1066
35.2056
35.1195
35.0532
35.132
35.1842
35.1747
35.2075
35.1392
35.119
35.1566
35.1734
35.222
35.253
35.1514
35.1748
35.1893
35.2347
35.2529
35.197
35.233
35.2393
35.1892
35.1198
35.0881
35.1801
35.1172
35.0866
35.1322
35.166
35.1461
35.1661
35.1518
35.1394
35.167
35.1737
35.2026
35.2134
35.1661
35.1886
35.1869
35.2158
35.2244
35.2052
35.2509
35.2349
35.1594
35.1397
35.0895
35.1398
35.1138
35.1153
35.1386
35.15
35.1272
35.1499
35.1582
35.1554
35.1684
35.1839
35.1897
35.1894
35.1705
35.1774
35.196
35.1989
35.2025
35.182
35.2746
35.2457
35.1452
35.1487
35.1394
35.1354
35.119
35.1228
35.1377
35.1438
35.1397
35.1541
35.1513
35.1479
35.1472
35.1866
35.1649
35.1698
35.1449
35.1375
35.1682
35.1912
35.1866
35.1391
35.2182
35.2651
35.1523
35.1456
35.1616
35.1395
35.1467
35.1079
35.1249
35.1417
35.1574
35.1573
35.1264
35.1018
35.1117
35.175
35.1445
35.15
35.0984
35.0987
35.1648
35.1829
35.1681
35.1026
35.1682
35.2319
35.153
35.1307
35.1521
35.1429
35.1553
35.0808
35.1063
35.1311
35.1467
35.1413
35.0992
35.0563
35.081
35.1521
35.1307
35.1296
35.0809
35.0732
35.1412
35.165
35.1431
35.092
35.131
35.1658
35.1385
35.102
35.1295
35.1341
35.1416
35.0331
35.076
35.1118
35.1191
35.1199
35.0981
35.0482
35.0751
35.1108
35.1087
35.1049
35.0991
35.0858
35.0888
35.1145
35.1071
35.1065
35.0858
35.0946
35.1109
35.0613
35.0984
35.1022
35.1158
34.9853
35.0563
35.0743
35.097
35.0938
35.1122
35.0821
35.0707
35.0509
35.0755
35.0728
35.2094
35.0738
35.0281
35.0509
35.0651
35.0976
35.0018
35.0184
35.0678
35.018
35.0499
35.0546
35.0738
34.9856
35.0359
35.021
35.0678
35.061
35.1359
35.1782
35.0595
34.993
35.0314
35.0294
35.1792
35.0395
34.9599
34.9937
35.0192
35.0708
34.9345
34.9682
35.0101
34.9758
34.9867
34.9935
35.0139
34.9984
34.9847
34.9644
35.0167
35.0089
35.1336
35.2392
35.0239
34.9484
34.9784
34.9682
35.1477
35.0028
34.8946
34.9486
34.9615
35.0392
34.9127
34.9275
34.9477
34.9579
34.9264
34.9304
34.9329
34.9739
34.9375
34.9049
34.9423
34.936
35.0435
35.0193
34.9796
34.8958
34.8994
34.8902
35.0705
34.9755
34.8444
34.9126
34.889
35.0214
34.9229
34.9048
34.8938
34.9834
34.9023
34.8755
34.836
34.9811
34.9303
34.8495
34.8137
34.8218
34.9085
34.8018
34.9608
34.8233
34.7849
34.7676
35.0097
34.9905
34.821
34.8494
34.7926
35.0345
34.9606
34.8945
34.8538
35.0589
34.9368
34.8383
34.7292
35.0762
34.967
34.7927
34.6101
34.6348
34.9749
34.869
34.9892
34.7467
34.6007
34.5526
35.0269
35.0278
34.8754
34.8005
34.6373
35.0894
35.0573
34.9207
34.8335
35.1706
35.0121
34.8311
34.6024
35.2302
35.013
34.704
34.2971
34.3058
35.2744
35.1764
35.0064
34.6524
34.2907
34.1331
35.1202
35.0219
34.9176
34.677
34.3852
35.1352
35.3465
34.9658
34.8355
35.2963
35.1046
34.8201
34.4421
35.4004
35.0371
34.5336
33.7927
33.6209
35.468
35.3295
34.9876
34.5174
33.8285
33.1967
35.2212
34.9204
34.8236
34.478
33.9211
35.0912
35.2186
34.9438
34.8291
35.4316
35.1615
34.8001
34.2179
35.6331
35.0071
34.2483
33.0956
31.9515
35.796
35.5032
34.8562
34.2659
33.2384
31.272
35.3248
34.705
34.6357
34.2399
33.0058
34.8867
34.8081
34.8431
34.7902
35.5673
35.1653
34.6985
33.94
35.8192
34.8404
33.9142
32.2684
27.3465
35.8898
35.5568
34.6005
33.8859
32.622
28.8832
7.1225
35.2996
34.325
34.1292
33.815
31.0811
34.1783
34.3473
34.4772
34.6982
35.5634
35.0051
34.468
33.7154
35.4699
34.4895
33.5888
31.6341
23.7719
2.67018
35.4773
35.1787
34.2413
33.4107
31.9594
27.778
6.78055
34.8165
33.7273
33.4814
33.199
28.6498
33.6398
33.7618
33.9052
34.5619
35.4327
34.7228
34.1769
33.5848
35.1131
33.9742
33.2021
31.8
27.2708
10.7554
34.9694
34.6756
33.7152
32.7902
32.0264
27.8011
11.5999
34.2948
33.1297
33.0567
33.044
30.3084
14.4775
33.334
33.2917
33.4199
34.3482
35.046
34.4471
33.8301
33.6651
34.5986
33.468
32.9052
32.56
29.5412
14.5797
34.494
34.1724
33.0697
32.4156
32.6877
29.4184
12.4706
33.9125
32.8303
32.9952
33.1454
32.0285
33.2133
32.7971
33.2397
34.1142
34.4634
33.9548
33.5546
33.7778
34.1201
33.1073
32.7996
33.0682
33.2745
34.1304
33.8243
32.8314
32.548
33.0842
32.3012
6.00056
33.7022
32.8551
32.9697
33.2554
33.6628
33.2324
32.9422
33.4086
34.0244
34.0643
33.762
33.5082
33.7866
33.7848
32.9046
32.7352
33.2071
34.3087
33.8827
33.6339
32.7017
32.6187
33.4337
33.9648
33.6177
32.8896
32.8673
33.1832
34.1802
33.3302
33.0903
33.4819
33.9111
33.8468
33.533
33.4978
33.7064
33.5847
32.7461
32.6198
33.2353
34.2121
33.7259
33.5467
32.6771
32.629
33.3585
33.9473
33.6297
32.9327
32.8987
33.1863
34.1862
33.4626
33.2264
33.5893
33.6634
33.6735
33.2418
33.1632
33.4909
33.4872
32.6745
32.5103
33.1894
34.0054
33.6853
33.5268
32.754
32.6934
33.3923
33.8988
33.7188
33.058
33.0083
33.3026
34.1829
33.6388
33.4194
33.7711
33.3044
33.5316
33.0041
32.7829
33.2395
33.4784
32.7213
32.6058
33.2281
33.9157
33.7433
33.5938
32.8888
32.7802
33.4618
33.9217
33.9026
33.2793
33.2239
33.5128
34.2293
33.8863
33.7102
34.0145
32.8963
33.4379
32.843
32.4838
33.0596
33.5993
32.8744
32.806
33.482
34.095
33.9312
33.7911
33.099
32.9839
33.6737
34.1317
34.1412
33.6286
33.5612
33.7676
34.3694
34.1657
34.0792
34.2852
32.6029
33.5697
32.8751
32.4066
33.147
33.7813
33.0602
33.1094
33.8816
34.5826
34.2174
34.0829
33.4279
33.3454
34.0937
34.6198
34.4287
34.0414
34.0095
34.2164
34.7741
34.4906
34.4859
34.6125
32.8618
34.0906
33.2339
32.849
33.7799
34.1205
33.3621
33.1966
33.9209
35.4437
34.6281
34.3888
33.776
33.488
34.1728
35.3686
34.7564
34.3317
34.099
34.5982
35.4229
34.8552
34.8346
34.9414
33.2621
34.3723
33.5621
33.1663
34.2486
34.3753
33.6133
33.5059
34.3902
36.3279
35.0188
34.5812
33.9978
33.7796
34.5618
36.0051
34.9258
34.5158
34.2882
34.8632
35.9973
35.021
35.016
35.2573
420.795
387.82
417.532
403.499
377.245
388.956
355.193
302.301
408.399
419.997
421.151
415.757
377.626
388.346
347.812
342.516
288.371
314.856
277.593
250.675
244.388
266.853
258.326
247.874
249.909
246.5
398.392
353.463
366.115
364.057
318.267
293.796
248.146
299.451
242.641
245.188
219.928
228.915
242.898
228.005
238.927
249.01
245.182
244.36
234.555
233.976
222.849
222.238
309.406
298.447
266.631
249.636
225.165
240.804
224.941
225.575
218.223
224.472
216.276
223.872
235.129
220.109
226.385
236.139
217.998
222.501
200.862
209.086
213.403
198.216
245.046
237.657
223.218
238.209
233.846
231.098
218.132
228.292
234.048
218.491
222.584
235.538
241.626
215.33
195.503
229.043
206.671
194.585
240.262
246.727
266.872
281.25
285.962
286.682
296.951
256.676
368.127
275.758
351.536
366.11
351.406
259.636
272.99
257.757
325.161
289.108
248.004
235.327
220.017
263.252
211.508
346.713
252.842
364.862
353.425
331.316
271.094
269.781
257.5
233.58
245.594
247.102
244.556
214.807
215.437
234.794
223.151
236.134
211.546
331.946
286.758
295.861
235.68
198.614
203.42
217.666
216.678
200.576
202.79
196.735
248.134
229.367
174.714
165.323
146.732
201.691
193.205
177.671
174.491
172.59
223.101
161.47
219.012
221.982
223.164
182.086
210.886
194.089
206.24
186.533
208.278
190.464
169.311
177.375
178.306
175.69
175.609
226.336
202.596
237.95
246.594
183.091
171.963
168.801
233.023
247.386
172.991
167.628
173.037
167.877
194.647
136.481
175.288
191.634
171.574
117.275
132.886
114.936
151.01
151.607
100.562
88.9226
87.3756
148.002
90.2574
171.316
108.746
185.347
172.987
145.882
128.27
125.361
109.87
112.251
149.381
166.33
148.575
77.9855
87.6212
63.9799
76.0181
142.939
85.1321
150.462
115.891
111.927
85.7316
67.1095
63.8742
130.318
121.386
85.034
61.5492
65.2097
74.6497
73.3115
53.8217
49.8616
51.6658
94.7759
73.6794
43.0046
47.3773
39.0692
84.4173
52.7808
175.994
123.546
149.647
51.0978
83.7975
54.4117
65.1539
140.031
121.886
142.162
42.5454
54.2034
54.8853
63.2249
44.2414
134.585
64.1515
90.2597
93.0666
53.2382
48.6052
53.1356
106.064
105.743
51.9949
56.2276
55.6755
55.2023
100.204
75.4401
86.1371
98.7749
87.2695
68.4841
76.7323
71.183
66.7388
58.4527
60.2643
59.4886
52.3817
58.328
48.7962
70.4335
53.1339
93.5596
69.1787
90.4494
64.1317
70.1625
51.1348
63.4601
54.7552
45.4089
47.9873
48.1614
47.6852
45.199
44.9302
53.4946
45.6085
58.0295
51.1752
50.4322
48.7255
46.5154
46.5816
45.1614
45.5123
44.7702
43.3561
43.146
45.9709
47.2114
43.6734
43.9017
44.1529
42.4739
43.585
42.786
42.3876
44.6487
44.1254
41.719
40.2086
41.785
42.347
40.1368
38.2168
40.3909
39.687
36.1802
39.8809
39.1139
39.9997
39.2545
39.401
38.9185
41.6842
42.7499
39.9174
40.0575
40.9434
40.1299
40.145
40.1119
41.6032
41.3022
39.8581
39.5687
39.9363
39.4961
58.3207
46.499
54.6941
59.2144
55.4645
40.8419
44.7782
39.9134
51.4965
46.7346
40.2792
39.183
40.1595
45.2648
41.621
45.0992
40.7569
53.2238
43.6692
45.1262
43.7069
44.0943
39.8689
38.7424
46.821
45.249
45.1301
44.519
44.2986
43.4916
43.1337
44.7551
42.5932
43.7504
43.1296
43.2595
40.5641
40.3763
40.3845
42.1584
41.7453
40.7406
40.557
40.3518
41.6584
41.5253
39.7001
39.7299
39.3684
41.0834
42.7325
40.3847
40.4463
40.9109
39.8302
38.4047
38.9502
39.4734
39.1783
38.5814
38.5205
38.6189
38.2201
40.8632
39.8375
39.735
40.1171
40.3051
39.7638
39.8979
40.7343
38.864
38.0535
39.186
38.839
37.9432
38.2327
38.116
39.7544
39.26
38.774
39.2089
38.8691
39.6561
38.8338
35.789
35.3314
36.4041
35.0361
35.8057
35.5069
35.875
35.1046
35.5108
35.7554
35.8719
35.6075
37.4736
35.648
38.1964
36.6178
38.9992
37.5275
36.1382
36.7291
36.0336
36.1249
35.3908
39.6029
39.3078
39.3768
35.8828
36.3306
36.7256
36.9756
39.0025
36.8291
38.389
38.4139
38.4772
36.9802
37.0471
37.1888
38.7419
38.607
37.3873
37.3985
37.3958
38.1406
37.9269
36.872
36.962
36.9186
39.6354
39.2843
38.0054
37.7447
37.8295
37.5355
36.7755
37.7033
37.8486
37.5143
37.1736
37.0439
37.3226
37.1307
39.1187
39.2934
39.556
38.1002
38.0074
38.8856
39.1085
37.7549
37.5615
37.1761
37.523
37.4536
37.0806
37.0024
37.0882
38.1339
38.025
37.3498
37.2818
37.351
38.448
35.415
35.2273
35.3471
35.4431
35.3493
35.2438
35.2043
35.2347
35.4412
35.5402
35.3148
35.3064
35.4193
35.5921
35.5502
35.7557
35.244
35.4882
35.4202
35.2157
35.2779
35.2317
35.0881
35.0864
35.5931
36.7976
36.3166
35.5326
35.8056
36.6004
36.0644
36.2902
36.0623
36.0273
36.0837
36.164
35.4121
35.4744
35.4869
36.0079
36.4518
36.6521
36.2726
35.7441
35.8201
35.6443
36.1373
36.0421
35.9966
36.0184
36.1073
35.9516
36.0424
36.1404
36.0826
35.5079
35.5746
35.4745
36.9838
36.428
33.6902
35.802
35.2477
35.7157
34.4129
35.9634
35.6222
35.7945
35.762
35.9733
35.5165
35.7667
36.1729
35.8187
36.5297
36.7652
36.7315
36.3235
36.0517
36.2842
36.3251
37.0896
38.3668
38.4679
36.9155
36.6749
37.5445
37.716
35.7581
36.7605
36.3518
36.608
36.61
36.3389
36.2966
36.2887
36.7898
36.8208
36.3932
36.3728
36.4176
37.133
35.0676
34.9685
35.1516
35.0843
35.129
35.009
34.9757
34.9882
35.2116
35.3269
35.0976
35.0897
35.2059
35.4501
35.293
34.9784
34.8502
35.0525
34.9285
34.9765
34.921
34.9398
34.8696
34.8751
35.6304
35.308
35.5099
35.161
35.3977
34.5468
35.1711
35.6966
35.8464
35.4606
35.9641
35.95
36.0568
36.0291
36.0925
35.0811
35.1182
35.1387
34.8655
34.8708
34.8989
35.8904
35.5713
35.8775
35.2712
35.8837
35.4295
35.8167
36.0684
35.8577
35.9597
35.9766
36.1142
35.8715
35.9975
35.2063
35.0858
34.8727
34.8836
34.7355
35.8502
35.8117
35.0623
35.5095
35.9605
35.6616
35.5084
35.8719
35.5893
35.7227
35.7328
35.9284
35.5594
35.8046
35.5235
35.1626
35.6775
35.8174
35.9434
35.5428
35.3946
35.4224
35.5679
36.4099
36.7884
37.07
36.3519
36.2294
36.3587
36.5847
35.0875
37.0646
36.6888
35.7127
35.5821
35.7826
35.9871
35.668
35.9738
35.9882
35.7108
35.6752
35.6788
35.9947
36.0331
35.7051
35.6072
35.7011
36.0934
34.8911
34.8326
34.9318
34.9107
34.9087
34.8805
34.8582
34.8567
34.974
35.0811
34.9284
34.8987
34.9862
35.134
35.0251
34.7735
34.7263
34.8626
34.8316
34.8612
34.8091
34.7983
34.752
34.8123
35.2332
34.7325
35.0974
34.9932
35.0926
34.86
35.057
35.3528
36.0076
35.0763
35.8785
36.0318
36.1119
36.0265
36.1745
34.7248
34.6948
34.7251
34.663
34.6149
34.6052
35.8877
35.345
35.7682
35.2078
35.8566
35.2498
35.6723
36.1534
35.7603
35.9729
36.0795
36.2685
35.7877
36.0296
34.6722
34.4035
34.5839
34.5986
34.2872
35.808
35.3432
35.7752
35.1517
35.6734
35.0374
36.1948
35.8245
35.5092
35.6419
35.4691
35.8104
35.9483
36.1138
34.866
34.664
35.1499
35.124
35.2816
34.905
34.9995
34.9461
35.0829
36.0823
36.0061
36.1267
34.8516
35.7184
35.3531
35.5937
37.578
36.3986
37.9894
35.8262
36.4815
36.1904
35.3788
35.1386
35.4026
35.3981
35.1362
35.1255
35.1401
35.3032
35.3836
35.0986
35.0469
35.1085
35.1733
34.7895
34.7708
34.8187
34.8088
34.8171
34.7927
34.7893
34.7861
34.8523
34.9184
34.8515
34.8178
34.8734
34.9501
34.8966
34.6968
34.6752
34.7656
34.7024
34.6938
34.7636
34.7646
34.6744
34.6448
34.9859
34.8415
34.9716
34.8927
34.9276
34.772
34.8984
34.6217
34.3565
34.658
34.573
34.5618
34.6273
34.5761
34.561
35.6949
35.0364
35.4029
34.5363
34.7181
34.6152
34.7687
36.2855
35.2195
35.9537
36.1427
36.4345
35.6915
36.1034
34.5514
34.3801
34.5539
34.5248
34.5433
35.3146
35.0433
37.051
34.4513
34.8391
34.8289
37.2484
35.9662
36.5625
36.3466
35.7566
36.3216
36.9133
36.5412
34.5995
34.6273
34.9553
34.8441
34.9859
34.6403
34.9934
34.7881
34.9117
35.1616
34.7093
35.0216
34.3806
34.7866
34.531
34.6448
34.3867
34.9825
34.9035
34.8668
34.9324
34.8214
34.7227
34.7618
34.8427
34.9
34.741
34.7322
34.742
34.6587
34.7508
34.7301
34.7775
34.775
34.7655
34.7584
34.7581
34.7444
34.7843
34.8385
34.8175
34.7595
34.8082
34.8559
34.8209
34.6528
34.6537
34.7289
34.6456
34.651
34.6929
34.7054
34.661
34.6598
34.8867
34.7222
34.8503
34.8201
34.8559
34.6911
34.8154
34.3593
34.4974
34.597
34.5923
34.5745
34.6311
34.6115
34.5877
34.4477
35.0352
34.112
34.332
33.0349
34.5488
34.6075
34.5954
34.5754
34.6231
34.8958
34.4873
33.916
32.3746
34.361
34.6566
34.6635
35.0933
34.7385
34.8216
34.6158
35.0082
34.6855
34.692
34.7054
34.5944
34.5863
34.6685
34.7162
34.6376
34.6828
34.5634
34.7643
34.5715
34.6148
34.614
34.4801
34.4915
34.5352
34.6742
34.6061
34.5392
34.6269
34.5276
34.644
34.7184
34.721
34.7382
34.7412
34.7205
34.732
34.7318
34.7137
34.7432
34.7859
34.7917
34.7331
34.7739
34.7927
34.7762
34.6554
34.6511
34.6963
34.6622
34.666
34.6955
34.7014
34.6685
34.6694
34.8306
34.6759
34.788
34.7771
34.8097
34.6854
34.7686
34.5917
34.6503
34.6441
34.6062
34.6038
34.6449
34.6085
34.6148
34.5216
34.1781
34.5096
34.6326
34.6734
34.5903
34.628
34.61
34.6089
34.626
33.6322
34.2447
34.3488
34.406
34.2606
34.6793
34.6837
34.5146
34.6367
34.5534
34.6066
34.1182
34.6173
34.5342
34.714
34.6492
34.7323
34.661
34.7284
34.6504
34.7442
34.575
34.5193
34.5333
34.4172
34.5004
34.4458
34.4372
34.5065
34.6019
34.5088
34.5167
34.6067
34.5269
34.6486
34.7167
34.6808
34.7289
34.7284
34.7159
34.7244
34.7026
34.7091
34.7242
34.7694
34.7686
34.7168
34.7658
34.7692
34.7601
34.6524
34.6587
34.6928
34.6721
34.6835
34.6637
34.6649
34.6698
34.671
34.7944
34.6977
34.7632
34.7594
34.7836
34.7044
34.7649
34.6855
34.71
34.6394
34.6197
34.618
34.6413
34.6262
34.6137
34.6491
34.6628
34.6542
34.6342
34.6582
34.6228
34.6379
34.6288
34.6229
34.6595
34.6035
34.4483
34.5707
34.6821
34.6164
34.6681
34.6688
34.2962
34.6311
34.583
34.6591
34.521
34.6562
34.6417
34.7598
34.6607
34.7483
34.6717
34.7891
34.6695
34.7478
34.6803
34.5552
34.6085
34.511
34.5533
34.5832
34.5776
34.606
34.6219
34.565
34.5952
34.6399
34.6042
34.6658
34.6487
34.656
34.7116
34.6731
34.691
34.704
34.6699
34.6835
34.709
34.7594
34.7519
34.6996
34.7519
34.7511
34.7435
34.668
34.6774
34.6481
34.6775
34.6614
34.6604
34.6495
34.6768
34.6573
34.7775
34.7093
34.7692
34.7479
34.7717
34.7141
34.7729
34.7254
34.7355
34.6504
34.6331
34.6236
34.6621
34.6374
34.6423
34.6292
34.6854
34.7085
34.6421
34.7113
34.6295
34.6811
34.6674
34.662
34.7125
34.7251
34.6872
34.6052
34.7394
34.7007
34.6785
34.6928
34.6325
34.6803
34.6883
34.6835
34.6813
34.6984
34.7156
34.8016
34.6802
34.75
34.6942
34.7966
34.6887
34.7475
34.79
34.6622
34.7019
34.6344
34.6558
34.6941
34.678
34.6953
34.6651
34.641
34.661
34.6888
34.6701
34.6977
34.6616
34.6654
34.6987
34.6719
34.6821
34.692
34.6724
34.6797
34.6977
34.7457
34.741
34.6947
34.7402
34.7358
34.7309
34.6889
34.6925
34.6487
34.6836
34.6553
34.6838
34.6487
34.6922
34.6552
34.7626
34.716
34.7738
34.729
34.7562
34.7155
34.7732
34.744
34.7504
34.6789
34.6521
34.6602
34.698
34.669
34.6736
34.67
34.7348
34.7471
34.702
34.7531
34.6923
34.7478
34.7019
34.7015
34.7539
34.7377
34.6835
34.6216
34.7348
34.6706
34.7069
34.7221
34.7062
34.7178
34.74
34.7142
34.7195
34.7422
34.7663
34.7921
34.6946
34.7481
34.7057
34.801
34.7007
34.7598
34.7665
34.7331
34.76
34.7142
34.7282
34.762
34.7413
34.754
34.7104
34.695
34.7049
34.7302
34.7164
34.7275
34.6681
34.6693
34.6902
34.6713
34.6771
34.6876
34.6706
34.6751
34.6954
34.7324
34.719
34.6973
34.7233
34.7269
34.7212
34.7015
34.714
34.6478
34.6985
34.6553
34.7013
34.646
34.7077
34.6585
34.7564
34.7115
34.7698
34.7228
34.7547
34.7035
34.7656
34.7534
34.753
34.7303
34.69
34.7033
34.7459
34.7089
34.7263
34.7276
34.7654
34.7578
34.7455
34.7718
34.7162
34.7423
34.7244
34.7313
34.7301
34.737
34.6714
34.6768
34.7421
34.686
34.7298
34.7353
34.7258
34.7659
34.7873
34.7596
34.7336
34.7832
34.8051
34.8201
34.7096
34.7791
34.7221
34.8378
34.7248
34.7982
34.7867
34.7794
34.7932
34.7641
34.7752
34.7869
34.7826
34.7938
34.7508
34.7366
34.745
34.7682
34.7546
34.756
34.6718
34.6818
34.6877
34.6735
34.6782
34.6982
34.6827
34.6875
34.6989
34.718
34.7264
34.7055
34.7199
34.7185
34.7212
34.7231
34.7368
34.6451
34.7167
34.6583
34.7172
34.6515
34.727
34.6618
34.7519
34.6977
34.7606
34.7235
34.7523
34.6961
34.7587
34.751
34.7504
34.7576
34.7219
34.7291
34.7653
34.7259
34.7152
34.757
34.7757
34.7565
34.7614
34.7792
34.7328
34.7116
34.7279
34.729
34.7064
34.7471
34.6915
34.7064
34.744
34.6922
34.7615
34.7897
34.7525
34.7987
34.8214
34.8211
34.7792
34.819
34.8359
34.8441
34.7391
34.8105
34.7407
34.835
34.7508
34.809
34.783
34.8077
34.8244
34.7965
34.8089
34.793
34.8089
34.8204
34.779
34.7701
34.7756
34.7889
34.784
34.78
34.7007
34.7284
34.7137
34.6996
34.7023
34.7342
34.7244
34.7237
34.7172
34.7265
34.7505
34.7331
34.7379
34.7288
34.7395
34.7484
34.7574
34.6682
34.7331
34.6659
34.738
34.6969
34.7389
34.6806
34.756
34.6958
34.7588
34.738
34.7624
34.699
34.762
34.7535
34.7598
34.7705
34.7311
34.7092
34.7705
34.7415
34.7172
34.7656
34.7829
34.7646
34.77
34.7876
34.7307
34.7241
34.7557
34.7486
34.7433
34.7427
34.6876
34.7212
34.7486
34.6891
34.8081
34.825
34.8063
34.8298
34.8509
34.8353
34.8279
34.833
34.8652
34.8258
34.7625
34.8055
34.7671
34.8283
34.7766
34.8093
34.7765
34.8373
34.8471
34.8236
34.8336
34.8416
34.8382
34.8449
34.8008
34.7989
34.8018
34.8142
34.8129
34.8061
34.7619
34.7936
34.7595
34.7569
34.7511
34.7877
34.791
34.7816
34.7535
34.7556
34.7942
34.7798
34.7778
34.7536
34.772
34.7615
34.7668
34.7325
34.7475
34.7017
34.7797
34.7704
34.7626
34.7299
34.7735
34.7083
34.7696
34.7717
34.7885
34.7255
34.7806
34.7692
34.786
34.7689
34.7574
34.7397
34.7689
34.773
34.7607
34.7823
34.7996
34.7995
34.8056
34.8193
34.787
34.7661
34.827
34.821
34.8107
34.7694
34.7005
34.7775
34.7998
34.7249
34.8366
34.85
34.8366
34.8361
34.864
34.861
34.8621
34.8544
34.8598
34.8441
34.7924
34.8249
34.7955
34.8667
34.8101
34.8431
34.8067
34.8546
34.8669
34.8418
34.8504
34.8626
34.8408
34.855
34.8285
34.8276
34.8371
34.8459
34.8455
34.8384
34.8176
34.8366
34.8168
34.8222
34.8155
34.8461
34.8462
34.8483
34.8107
34.8016
34.849
34.843
34.8243
34.7932
34.8151
34.7758
34.7907
34.8007
34.7828
34.7538
34.8247
34.8237
34.8046
34.7699
34.8069
34.7449
34.7948
34.8181
34.8248
34.7605
34.8085
34.8039
34.8203
34.7714
34.7828
34.7753
34.7803
34.7912
34.7859
34.8359
34.8537
34.843
34.867
34.8945
34.8307
34.8595
34.838
34.8246
34.8665
34.8353
34.751
34.8416
34.8696
34.7794
34.8648
34.8983
34.8852
34.8833
34.8636
34.9133
34.8764
34.9048
34.8644
34.8837
34.829
34.8611
34.8373
34.8977
34.8466
34.8734
34.8495
34.8693
34.8674
34.8501
34.8634
34.8505
34.858
34.8653
34.862
34.8632
34.8739
34.8788
34.8778
34.8731
34.8546
34.8795
34.8765
34.8656
34.8788
34.9084
34.8862
34.9046
34.8762
34.8456
34.8971
34.9057
34.8659
34.8354
34.8531
34.8085
34.8302
34.8398
34.8247
34.783
34.862
34.8541
34.8428
34.7959
34.8398
34.7821
34.8207
34.8613
34.8501
34.7927
34.8256
34.8304
34.8375
34.7945
34.8004
34.7982
34.8124
34.809
34.8097
34.8849
34.9184
34.8629
34.8824
34.9202
34.8221
34.8596
34.8286
34.8307
34.8518
34.9045
34.7985
34.8789
34.9237
34.8094
34.8995
34.8703
34.843
34.8931
34.8444
34.8707
34.7984
34.8637
34.8069
34.9004
34.8643
34.8851
34.8748
34.8929
34.8804
34.8938
34.9061
34.8447
34.8157
34.8525
34.8598
34.7776
34.8528
34.8611
34.8957
34.8908
34.8974
34.9097
34.9047
34.9042
34.9051
34.9293
34.938
34.9076
34.9312
34.9618
34.93
34.9531
34.9289