/*--------------------------------*- C++ -*----------------------------------*\
| =========                 |                                                 |
| \\      /  F ield         | OpenFOAM: The Open Source CFD Toolbox           |
|  \\    /   O peration     | Version:  5.x                                   |
|   \\  /    A nd           | Web:      www.OpenFOAM.org                      |
|    \\/     M anipulation  |                                                 |
\*---------------------------------------------------------------------------*/
FoamFile
{
    version     2.0;
    format      ascii;
    class       surfaceScalarField;
    location    "5";
    object      phi;
}
// * * * * * * * * * * * * * * * * * * * * * * * * * * * * * * * * * * * * * //

dimensions      [0 3 -1 0 0 0 0];

internalField   nonuniform List<scalar> 
29271
(
-8.55335e-06
-7.60037e-07
4.64077e-06
4.87411e-06
-8.61672e-06
6.85536e-07
1.99711e-06
6.24609e-06
-2.09602e-05
-3.99679e-06
-2.73627e-06
4.68669e-06
7.20281e-06
1.58038e-05
-2.3753e-05
-8.31665e-06
-4.22257e-06
1.51425e-06
2.26613e-05
1.21166e-05
-2.20023e-05
-3.15088e-06
1.09358e-06
1.2174e-05
1.20144e-05
-1.28845e-07
-1.96239e-05
-5.03695e-06
-3.64673e-06
6.64571e-06
7.75415e-06
1.39078e-05
-2.5232e-05
-9.68739e-06
-5.3665e-06
1.21217e-05
1.32983e-05
1.48659e-05
-5.47731e-05
-3.90781e-05
-1.64626e-06
-2.28481e-05
1.85826e-05
9.97629e-05
-2.31438e-05
-1.14559e-05
1.16665e-05
1.44213e-06
3.72481e-06
1.77663e-05
-1.77382e-05
-5.92051e-06
1.84292e-05
1.1157e-05
-6.02478e-06
-5.81794e-06
-1.29785e-06
3.97952e-06
3.23321e-06
-3.40128e-05
-8.77943e-06
-6.57258e-06
2.36573e-05
4.86417e-06
2.08433e-05
-3.86474e-05
-1.11382e-05
-2.77382e-05
5.89258e-06
8.92846e-06
6.27027e-05
-3.82921e-05
-1.10324e-05
1.02895e-05
-6.92277e-06
3.51477e-06
4.2443e-05
-1.61487e-05
-3.08627e-06
2.50576e-08
2.17518e-06
2.59266e-06
1.44421e-05
-4.57509e-05
-3.04335e-05
-8.37385e-06
3.27199e-05
4.87004e-05
3.13791e-06
-3.1537e-05
-3.86065e-06
1.38164e-05
2.44627e-07
2.23072e-05
-9.70588e-07
-3.22326e-05
-2.0072e-05
4.74018e-07
5.47729e-07
-1.60301e-05
6.7313e-05
-4.89099e-05
1.35178e-05
1.03345e-05
-2.86566e-06
-1.32936e-05
4.12169e-05
-3.90064e-05
2.50944e-05
-3.55206e-06
2.60292e-05
-1.61529e-06
-6.94976e-06
-1.72275e-05
-1.53189e-05
1.09075e-06
3.14561e-05
-1.62455e-05
-2.16008e-07
-1.66941e-06
7.72066e-06
1.04753e-05
-1.42564e-05
1.08356e-07
1.16499e-06
-1.29018e-06
1.05752e-05
3.69807e-06
-4.93168e-06
2.12126e-06
-1.06536e-06
3.6926e-06
-3.12371e-06
-6.0179e-07
1.9934e-06
1.8367e-06
-4.25386e-06
8.42346e-07
1.46908e-06
2.22439e-06
-3.54548e-06
-2.73411e-06
-1.47754e-05
2.44691e-06
2.10168e-06
1.65064e-05
-2.98861e-06
-1.30731e-05
-1.67012e-07
-1.47662e-06
-1.57144e-06
1.92768e-05
-1.11684e-05
-3.55029e-07
-2.14133e-07
4.64995e-07
1.01391e-05
1.13338e-06
-3.23239e-06
-1.79959e-06
-1.23823e-05
-9.2309e-08
1.52436e-06
1.59823e-05
9.24561e-06
5.21041e-06
0.000184353
-1.83831e-05
-5.72327e-05
-5.22511e-05
-9.91553e-05
2.95025e-07
6.3792e-07
5.55018e-06
2.9649e-06
2.5595e-06
3.19638e-06
8.19841e-06
4.81079e-06
1.9002e-05
1.81779e-05
0.000197756
-0.000120069
-4.00889e-05
-4.62011e-05
-1.78172e-05
-2.69244e-06
-3.42765e-06
3.27166e-06
1.33455e-06
-2.07439e-06
8.4399e-06
8.84861e-05
-4.12657e-06
-2.79831e-06
-1.67664e-06
-1.44625e-06
-1.9867e-06
-1.2075e-06
-9.17993e-07
-1.69542e-05
-1.59285e-05
-1.29589e-05
-1.58481e-05
-1.08737e-05
-7.46484e-07
7.18306e-07
8.90383e-06
-2.43695e-06
-9.75997e-07
2.23763e-06
1.22189e-06
3.20077e-06
-1.96131e-05
-1.56995e-06
-6.45914e-06
7.36209e-07
2.37052e-05
3.67579e-05
3.09453e-05
0.00023905
-6.60362e-05
-8.40672e-05
-7.09752e-05
-9.25293e-05
5.39866e-07
-1.07576e-08
6.39244e-06
5.14348e-06
3.6987e-05
1.52486e-05
0.000153744
-4.66731e-05
-1.38593e-05
-6.76918e-05
-2.28198e-05
-1.16946e-06
-3.41162e-06
0.000227778
-1.04929e-06
-3.16821e-06
2.02228e-06
-9.98491e-06
-7.4725e-08
-4.31077e-06
-2.3564e-05
-3.96471e-05
-2.76011e-05
-7.0392e-05
-4.04529e-05
-2.88552e-06
-3.75174e-06
3.20399e-06
4.27167e-05
-2.16862e-05
3.41142e-06
-4.26227e-06
-8.83459e-07
2.37359e-05
-3.15454e-07
1.36756e-05
2.36634e-06
0.000238628
-3.50874e-06
-1.8678e-06
-1.27941e-07
1.05077e-07
2.70266e-06
3.98057e-06
7.57661e-06
-9.37701e-05
-7.5595e-05
-4.72373e-05
-1.59823e-05
-1.92669e-06
-8.36494e-07
0.000125937
-1.9194e-06
-2.91137e-07
-6.41388e-07
-8.67018e-07
-1.55382e-07
-1.46764e-07
-3.44201e-05
-2.5114e-05
-1.45658e-05
-1.6129e-05
-2.52769e-05
-5.92948e-06
-1.47744e-06
2.73455e-05
-3.55454e-05
2.88785e-06
-7.59825e-06
4.02807e-05
-8.57683e-06
-1.29482e-06
1.98074e-06
1.02536e-05
-1.04741e-05
2.94381e-07
1.67878e-07
-1.79577e-07
9.35496e-06
-4.78629e-06
-1.19117e-06
4.73812e-07
5.41559e-06
-3.38577e-07
-9.58037e-07
2.27669e-06
-9.18513e-07
-3.38357e-07
-1.05414e-07
1.71563e-06
-1.11327e-06
-3.75662e-07
-6.33848e-07
-1.37497e-05
1.3269e-05
-6.81943e-07
2.17222e-06
-7.05669e-06
-3.28395e-05
-3.10234e-05
2.4003e-05
-7.6855e-07
4.76851e-05
-9.64955e-06
-2.41098e-06
-5.88795e-07
4.47235e-06
1.30919e-05
-4.91494e-06
-1.08354e-05
7.97344e-07
-2.62345e-05
-8.79164e-06
1.13532e-05
3.3711e-05
2.14164e-05
2.38101e-05
8.80019e-05
-3.72381e-07
2.21639e-07
-5.09506e-07
5.02775e-08
7.57471e-06
5.61651e-06
1.55858e-05
2.29576e-05
4.12037e-05
2.1497e-05
0.000143077
6.18682e-07
3.35109e-06
2.90448e-07
9.1345e-06
1.04625e-06
2.20031e-05
0.000118915
-3.06422e-06
-1.12768e-06
-4.40335e-06
-8.56861e-06
1.67822e-06
9.71185e-07
2.2398e-06
-5.34039e-06
-3.12857e-08
3.13018e-06
3.38316e-06
5.03473e-07
-9.98316e-07
2.42016e-06
-1.90878e-06
-8.17546e-06
-3.037e-05
-1.06644e-05
-1.27281e-06
5.96721e-06
4.45155e-05
1.36401e-05
3.46404e-05
0.000167429
9.1115e-06
6.59478e-06
1.65272e-05
1.49172e-05
4.29694e-05
2.62649e-05
0.000119647
-2.01349e-06
2.61036e-06
0.000280447
4.21123e-06
-2.92169e-06
-8.64123e-07
4.14445e-06
4.51596e-06
2.62009e-06
-4.51087e-05
-7.78447e-06
-3.71681e-06
9.58008e-06
4.50164e-05
-2.7931e-05
-7.36266e-06
1.94232e-06
-6.57297e-07
3.69169e-05
-2.90832e-06
2.08957e-06
3.44127e-06
0.000282044
-5.43769e-07
-7.20676e-07
-5.8271e-06
-8.98925e-06
3.76434e-06
-1.32165e-06
-6.68888e-07
3.66351e-06
1.13133e-06
0.000141074
-6.37023e-07
4.315e-06
1.1051e-06
1.69674e-06
5.60268e-07
1.38293e-06
-3.11584e-05
8.67508e-07
-5.2016e-07
3.70849e-05
-4.52605e-05
-2.75808e-06
-1.40629e-06
4.94301e-05
-1.30979e-05
-2.34997e-06
3.12428e-06
1.57644e-05
-9.99065e-06
-3.04855e-08
6.64549e-10
-1.37489e-06
1.25267e-05
-5.73487e-06
-4.22961e-07
1.0648e-08
6.10039e-06
9.45515e-07
-6.84711e-07
2.23648e-07
-5.61334e-07
2.20989e-06
-6.58741e-08
8.98123e-07
-3.10132e-06
1.67806e-07
1.80402e-07
1.01928e-06
3.65861e-07
1.19529e-06
-2.92864e-06
-7.46311e-07
-3.09811e-05
-4.21782e-06
2.12426e-05
4.5113e-06
1.01913e-05
-2.61917e-05
-1.86211e-06
1.00578e-05
1.02474e-05
3.33687e-05
-2.56201e-05
-4.5019e-06
-1.38882e-06
-3.63429e-05
-1.46359e-06
1.01044e-05
3.35928e-05
2.42667e-06
1.64185e-05
4.99095e-05
-1.52569e-06
-1.47666e-06
-2.23117e-06
-1.28732e-06
7.09189e-06
9.85572e-06
3.52897e-06
5.29163e-06
1.48092e-05
1.2142e-05
0.000128017
-2.5266e-06
-1.5739e-06
-1.79653e-06
-3.56729e-06
1.65326e-06
1.50185e-05
0.000143554
-9.80462e-06
-1.0913e-05
-8.06703e-06
-6.87048e-06
2.53412e-06
3.2634e-06
3.35568e-06
-3.39764e-06
-3.94664e-06
2.41867e-06
6.58404e-06
2.01302e-06
-3.83363e-07
4.35402e-07
-2.06049e-06
-2.65565e-06
-5.3722e-05
-1.24529e-05
-3.8123e-06
1.32676e-05
5.93752e-05
-1.35194e-05
1.72453e-05
0.000165473
6.0523e-06
5.98569e-06
1.69213e-06
9.18496e-07
4.9763e-06
1.05271e-05
0.000102766
5.28049e-06
8.20011e-06
0.000228168
-1.08173e-07
1.53897e-05
4.14347e-06
9.49529e-06
1.50112e-05
1.4862e-05
-4.20323e-05
-3.32076e-06
-1.65186e-06
5.68188e-06
4.66035e-05
-4.03534e-05
-4.72284e-06
9.60788e-06
5.67512e-06
4.27356e-05
-1.29423e-05
-5.50619e-06
-2.24236e-06
0.000340861
-7.71035e-06
-8.1239e-06
-6.05425e-06
-6.17334e-06
-3.26392e-06
-5.68564e-07
-1.92817e-06
1.10999e-06
3.92561e-06
0.000118767
4.55258e-07
4.3967e-06
2.72948e-06
3.41948e-06
6.39677e-06
4.89439e-06
-4.4239e-05
-1.84435e-06
3.78267e-06
5.16108e-05
-5.24901e-05
-6.55728e-06
6.61106e-06
5.24364e-05
-1.46527e-05
-8.91736e-07
-1.26557e-06
1.45664e-05
-1.28487e-05
1.05398e-06
-1.35848e-06
1.59611e-06
1.54827e-05
-7.83157e-06
-1.10025e-07
-2.14145e-06
1.00822e-05
6.84124e-07
-4.59189e-07
8.88162e-07
-1.0998e-06
3.73729e-06
4.83671e-07
-1.5301e-07
-4.10299e-06
7.06261e-07
-9.18904e-07
4.43849e-06
1.1374e-06
-8.62062e-07
-4.50118e-06
9.69672e-07
-4.58281e-06
-7.4794e-07
-9.03289e-08
-1.73395e-06
6.18536e-06
-3.12737e-05
1.07899e-06
1.86887e-06
2.49646e-06
2.65268e-05
-6.97359e-07
-3.82487e-07
-1.23049e-06
-3.11671e-05
8.65474e-07
3.60907e-06
2.83056e-05
-4.78297e-08
7.49213e-06
4.08378e-05
-3.09867e-07
2.6121e-07
1.16385e-06
1.36706e-06
-8.09117e-07
3.39673e-07
-7.60739e-07
3.75311e-07
-1.50364e-06
6.98702e-07
0.000130139
-2.50956e-08
-2.79694e-06
1.96221e-06
-5.05539e-07
3.09151e-06
-2.52327e-07
0.000125293
-2.97992e-06
-1.15536e-06
8.59444e-07
2.05595e-06
3.09943e-06
6.61209e-06
5.4266e-06
-1.0272e-05
-1.58766e-06
1.24664e-06
1.36774e-05
2.30268e-06
1.87708e-08
1.74551e-07
-2.4965e-06
-2.39952e-06
-6.07811e-05
-8.71535e-06
3.07821e-07
1.1799e-05
5.97891e-05
-1.25278e-05
9.11336e-06
0.00017949
-1.05775e-06
-2.29885e-06
5.93544e-07
-3.47101e-07
-8.68099e-06
-1.87878e-08
9.96369e-05
1.12222e-05
9.20886e-06
0.000143228
4.84312e-06
1.16925e-05
7.8583e-06
1.07603e-05
9.56658e-06
1.08551e-05
-5.74918e-05
-4.34934e-07
4.96958e-06
3.08778e-06
6.10915e-05
-4.49103e-05
-1.94795e-06
7.68913e-06
4.29979e-06
4.57835e-05
-1.09142e-05
-3.50538e-06
2.2463e-06
0.000357217
-6.36993e-06
-3.75003e-06
-2.9567e-06
-1.04159e-06
-2.71396e-07
4.58703e-06
3.81899e-06
-1.44147e-07
2.65215e-06
0.000110898
-1.44925e-06
7.72992e-07
-2.12509e-06
1.22065e-06
2.20009e-06
1.21802e-06
-6.19709e-05
3.2969e-07
7.86333e-06
6.28426e-05
-5.36692e-05
-5.77874e-06
3.77242e-06
5.56706e-05
-1.67785e-05
-1.36865e-06
-1.26119e-06
2.16538e-05
-2.01929e-05
3.9053e-06
-3.71266e-06
1.83707e-06
2.08153e-05
-1.2293e-05
-2.87055e-06
9.16515e-07
1.42478e-05
4.37132e-07
-3.39859e-07
-7.02988e-08
-2.71157e-08
4.57855e-06
1.05189e-06
-6.57454e-07
-5.00689e-06
2.00563e-06
-9.05964e-07
3.01304e-06
3.65138e-07
-2.62437e-06
-1.85348e-06
2.53271e-06
-7.05735e-06
-7.83838e-08
3.65317e-07
-6.08926e-06
1.0327e-05
-2.5129e-05
5.12117e-07
5.21483e-07
-2.03914e-06
2.68126e-05
-6.7803e-07
1.32928e-06
-3.03529e-07
-2.65594e-05
1.85716e-07
5.33352e-07
2.48146e-05
-8.90046e-06
4.95852e-07
3.54786e-05
1.8268e-06
2.45869e-06
3.1587e-06
2.58469e-06
1.99018e-08
4.94629e-07
1.27169e-06
1.94866e-06
1.54103e-06
8.01632e-06
0.000106078
3.55989e-06
-1.6609e-06
2.21325e-06
1.49164e-06
7.54188e-06
-1.15264e-06
8.91763e-05
-4.05221e-07
3.13679e-06
2.73189e-06
3.82347e-06
5.51812e-06
8.54821e-06
7.91563e-06
-1.91147e-05
4.94578e-07
6.24528e-06
-3.79353e-06
2.37103e-05
-2.48317e-07
1.22434e-09
9.04533e-13
2.34802e-07
2.60673e-06
1.38887e-07
-9.60925e-08
-2.64388e-06
-1.62066e-06
-5.75877e-05
-5.03367e-06
1.32363e-06
8.50266e-06
5.44157e-05
-7.58055e-06
4.63553e-06
0.00018778
-1.15712e-06
-2.78952e-06
3.63396e-07
-1.26635e-06
-3.47331e-06
-5.7002e-07
0.000104116
7.18416e-06
3.30013e-06
0.000103477
5.8977e-06
5.5532e-06
3.02258e-06
6.31933e-06
1.72202e-06
2.12542e-06
-6.44929e-05
3.07837e-07
1.01133e-05
1.56701e-05
4.55857e-05
-9.5828e-10
-6.17465e-07
2.74004e-09
2.5733e-08
5.84575e-07
-4.67627e-05
6.86207e-07
4.24549e-06
2.07686e-06
4.57742e-05
-6.02011e-06
-5.34291e-06
3.45624e-06
0.00036217
-4.74881e-06
-1.68622e-06
-1.98826e-06
-2.71469e-07
3.13108e-06
3.42777e-06
3.70473e-06
-2.09103e-06
-4.17451e-07
0.000117558
-3.98749e-06
-6.82417e-07
-3.71005e-06
-7.85192e-07
-2.41986e-07
-6.57266e-07
-6.53139e-05
8.96419e-07
4.00594e-06
6.16207e-05
-6.76463e-05
-1.4549e-06
1.06075e-06
6.80405e-05
-2.64971e-05
1.91443e-08
5.76954e-07
2.9357e-05
-2.24269e-05
2.29036e-06
-3.67611e-06
2.89424e-07
2.31058e-05
-1.46949e-05
-3.49844e-06
4.15735e-06
1.40432e-05
-6.6351e-07
8.49437e-07
-1.76588e-06
1.57996e-06
4.99251e-06
5.825e-07
-1.07189e-06
-4.518e-06
9.78359e-07
-6.85634e-07
3.77491e-07
6.2903e-07
-4.93758e-07
-8.05488e-07
4.39751e-06
-1.2636e-05
6.82793e-07
-1.75972e-06
-3.77144e-06
1.30869e-05
-2.99542e-05
3.75195e-06
-5.39025e-07
-4.85283e-06
3.06369e-05
9.57243e-07
2.56962e-06
-1.01681e-07
-2.37384e-05
-1.57263e-07
-1.01954e-06
2.24473e-05
-6.11384e-06
3.30242e-07
3.64234e-05
7.84123e-09
1.40956e-07
3.99272e-08
-4.26049e-07
1.28309e-06
1.43024e-06
9.97313e-07
1.36549e-06
3.72932e-06
3.76264e-06
8.01643e-05
2.60059e-06
2.29339e-06
4.08738e-06
3.32619e-06
6.37979e-06
-6.61921e-06
6.65876e-05
1.96128e-06
3.27499e-06
2.97245e-06
3.40275e-06
5.87391e-06
4.75289e-06
4.31917e-06
-2.70093e-05
6.21829e-06
1.12804e-05
-1.30069e-06
1.71911e-05
-2.53024e-06
2.29334e-06
-5.74319e-06
-3.16561e-07
1.19908e-06
5.09758e-06
2.59625e-06
2.15876e-07
-3.89864e-07
-2.42082e-06
-7.14807e-07
-5.1872e-05
-2.33629e-06
8.53504e-07
4.72747e-06
4.93421e-05
1.81938e-06
-3.03998e-06
0.000198003
-1.94593e-06
-3.87206e-06
-5.92683e-07
-2.26145e-06
-1.70879e-06
-1.51044e-06
0.000112917
3.32806e-06
-2.3889e-06
8.65321e-05
3.3018e-06
1.50389e-06
4.50571e-06
7.58777e-07
-2.52905e-06
1.36894e-07
-4.28482e-05
-2.36622e-07
4.67009e-06
3.18239e-06
3.85604e-05
-9.66587e-07
-1.4988e-06
-5.60724e-07
-3.08935e-06
2.98905e-06
3.12641e-06
-4.42659e-05
1.66893e-06
2.24265e-06
7.60934e-07
4.17546e-05
-2.16121e-06
-1.10721e-05
1.73362e-06
0.000366445
-3.27204e-06
-1.17633e-07
-7.51275e-07
6.50718e-07
1.992e-06
1.26026e-06
2.26169e-06
-3.775e-06
-1.78385e-06
0.00012484
-4.17865e-06
-2.45017e-06
-3.89115e-06
-1.39196e-06
-1.35932e-06
-1.03458e-06
-5.9276e-05
1.82369e-06
6.57411e-07
5.0631e-05
-5.78632e-05
-2.07641e-05
-1.23281e-06
1.13151e-05
6.8545e-05
-1.61367e-06
7.01652e-07
-1.67918e-06
2.5912e-06
-3.11817e-05
2.69712e-07
1.1001e-06
3.15479e-05
-2.52297e-05
3.62694e-07
-2.33524e-06
-9.15191e-07
2.63336e-05
-1.28714e-05
-2.06123e-06
3.71259e-06
1.12233e-05
-2.35912e-06
1.23913e-06
-1.6362e-06
2.75619e-06
3.44662e-06
1.99154e-07
-1.72947e-06
-1.92119e-06
-4.07915e-07
-5.19383e-07
1.45869e-06
5.81432e-07
5.75542e-07
-1.68836e-06
2.6648e-06
-1.45702e-05
1.30267e-07
-1.26173e-06
-1.99066e-06
1.50275e-05
-3.1106e-05
2.04045e-06
-1.41929e-06
-2.50198e-06
3.16413e-05
1.34556e-06
2.59509e-06
5.27165e-07
-2.08688e-05
-3.55104e-07
-8.03414e-07
1.89051e-05
1.21628e-06
-6.81169e-08
3.59609e-05
-6.94428e-07
-1.68157e-06
-3.84125e-07
-1.05597e-06
6.09191e-07
8.03769e-07
2.48567e-07
1.46898e-06
8.18278e-08
-2.9692e-06
8.04756e-05
9.42266e-07
2.00607e-06
-3.34914e-07
1.17897e-06
1.82115e-06
-1.25191e-05
7.43597e-05
1.64339e-06
2.28263e-06
1.56794e-06
1.43943e-06
1.62081e-06
-3.09938e-06
-2.44716e-06
-1.79516e-05
1.72747e-06
1.57401e-06
-2.0739e-06
1.85452e-05
-5.96444e-06
-1.30331e-06
1.71376e-07
-1.04625e-06
4.52179e-06
3.62083e-06
2.34723e-06
1.21013e-07
-1.52385e-07
-2.31631e-06
2.54255e-08
-4.7209e-05
-8.53153e-07
4.94358e-07
2.00268e-06
4.55397e-05
4.27883e-06
-1.14928e-05
0.000212178
-1.90104e-06
-3.69769e-06
-5.20752e-08
-1.37796e-06
-1.55078e-06
-5.23251e-06
0.00012101
-1.47368e-06
-5.83329e-06
8.84436e-05
3.46037e-06
-3.24551e-06
1.56856e-06
-2.7997e-06
-4.46938e-06
-3.18866e-06
-3.58233e-05
1.20668e-06
-1.03009e-06
-1.04745e-06
3.52204e-05
-5.68831e-06
-4.86771e-06
2.85432e-06
-2.90032e-06
3.23204e-06
7.36998e-06
-3.96775e-05
1.93823e-06
4.09429e-07
-1.66298e-07
3.76516e-05
-1.55493e-07
-1.08948e-05
3.21287e-07
0.000361266
-1.7484e-06
8.29803e-07
1.03962e-06
1.36809e-06
9.26398e-07
6.42101e-07
1.20167e-06
-3.49654e-06
-1.7169e-06
0.00012512
-3.60119e-06
-2.09458e-06
-2.50647e-06
-1.24799e-06
-1.15348e-06
-5.90201e-07
-4.41852e-05
1.63858e-07
-8.58813e-07
3.55503e-05
-6.9529e-05
6.61325e-07
-1.08741e-06
5.34494e-06
6.46099e-05
-7.02425e-06
-2.2876e-06
-9.84527e-06
6.92815e-06
1.2229e-05
-3.13979e-05
4.92968e-07
6.95294e-07
3.05326e-05
-2.77449e-05
-1.04108e-06
-2.91499e-07
-1.16941e-06
2.853e-05
-9.67397e-06
-2.68923e-06
2.44878e-06
9.91226e-06
-3.26685e-06
1.49296e-06
-2.06322e-06
3.83722e-06
6.97564e-07
7.35807e-07
-1.66281e-06
2.29443e-07
-1.32304e-06
-5.47504e-07
1.14321e-06
4.16565e-07
1.00094e-07
2.1068e-07
1.61294e-06
-1.45208e-05
1.5378e-07
-9.8277e-07
-6.07832e-07
1.43447e-05
-3.24423e-05
1.78725e-06
-2.41152e-06
-1.71187e-06
3.33779e-05
1.40056e-06
2.9412e-06
2.1163e-06
-1.6082e-05
-5.35862e-07
-6.4238e-07
1.22028e-05
1.86898e-06
-5.07501e-06
3.56611e-05
1.2407e-06
-1.02667e-07
1.24407e-06
-4.9413e-07
-2.24488e-07
5.32413e-07
1.35857e-07
1.17401e-06
-5.72726e-06
-2.30579e-06
8.2101e-05
1.01562e-06
1.40438e-06
2.88753e-06
2.96908e-06
-4.93002e-06
-7.07234e-06
9.64985e-05
1.24934e-06
1.49105e-06
2.3689e-06
9.16391e-07
-4.74684e-06
-1.06274e-05
-6.51523e-06
-3.07209e-05
6.19265e-06
-9.3778e-06
-1.47718e-07
2.91238e-05
5.50607e-06
9.88561e-06
-5.70697e-06
-3.14567e-06
-6.53904e-06
1.87728e-06
1.47326e-07
-1.07833e-06
-9.46868e-07
1.04323e-06
-4.45931e-05
-2.39656e-07
-3.42628e-07
8.06067e-08
4.40515e-05
6.50309e-06
-1.38435e-05
0.000217801
-1.10418e-06
-2.63454e-06
6.4802e-07
-2.67038e-07
-1.33478e-06
-2.79383e-06
0.000129336
-4.64321e-06
-3.48931e-06
0.00010649
-4.10888e-07
-4.87553e-06
-5.29288e-06
-1.61436e-06
-2.59176e-06
-3.53562e-06
-3.51716e-05
-1.29476e-06
-2.79602e-06
-1.22296e-06
3.58421e-05
-1.32394e-05
7.28303e-06
3.14953e-07
3.01504e-06
-1.05979e-05
1.32243e-05
-3.64112e-05
3.27763e-06
-2.01065e-06
-1.01815e-06
3.5962e-05
2.00298e-07
-6.9699e-06
6.07331e-07
0.000345629
-3.01646e-07
1.71615e-06
2.04436e-06
2.0093e-06
6.35476e-07
9.64017e-07
1.08851e-06
-2.51574e-06
-1.16821e-06
0.000124958
-1.53254e-06
-1.73225e-06
-8.58383e-07
-9.61495e-07
-8.75229e-07
4.23574e-08
-3.07854e-05
-2.4642e-06
-2.2825e-06
2.95271e-05
-5.06173e-05
-4.53571e-06
-1.68553e-07
5.53221e-05
-3.00485e-05
-5.20639e-08
1.25442e-06
2.94535e-05
-2.91884e-05
-1.65369e-06
1.90318e-06
-1.58592e-06
2.93566e-05
-1.0637e-05
-7.81097e-08
3.87548e-07
1.03298e-05
-4.465e-06
1.91024e-06
-2.59814e-06
5.15333e-06
-1.12024e-06
3.8523e-07
-1.12997e-06
1.86406e-06
-1.47071e-06
-8.61577e-07
-1.50891e-06
4.13698e-07
5.96215e-07
2.83129e-06
2.37233e-06
-1.45683e-05
3.34049e-07
-6.46411e-07
-1.91089e-06
1.44192e-05
-3.45893e-05
2.30604e-06
-2.39648e-06
-2.08081e-06
3.56968e-05
1.06371e-06
1.94356e-06
2.48668e-06
-8.81524e-06
-1.5145e-06
-9.37245e-07
6.83674e-06
2.77645e-06
-8.1363e-06
3.68668e-05
1.65575e-06
-5.65262e-07
1.70867e-06
-9.22724e-08
-2.48963e-08
2.75794e-07
3.62981e-07
8.334e-07
-6.45476e-06
-1.04913e-06
8.10057e-05
2.3976e-06
2.57461e-06
2.9903e-06
3.41307e-06
-1.0791e-05
-7.53912e-06
0.000124438
2.09949e-06
1.12733e-06
3.3501e-06
1.88053e-06
-8.80995e-06
-8.21239e-06
-7.49906e-06
-3.33227e-05
4.4839e-07
-7.78735e-06
2.98706e-05
1.80847e-08
2.47107e-07
-9.91891e-07
7.26699e-07
2.23704e-06
-4.36032e-05
5.96663e-07
-1.65742e-06
-5.03185e-07
4.29301e-05
8.80805e-06
-1.25431e-05
0.000214392
-4.8892e-07
-2.09075e-06
1.15785e-06
4.28898e-07
3.30329e-06
3.19879e-07
0.000133472
-5.38166e-06
-2.78788e-06
0.000130101
-6.29642e-06
-3.51451e-06
-3.21384e-06
-3.20534e-06
-1.21714e-06
-2.2303e-06
-5.48091e-05
2.90467e-06
-3.24114e-06
-5.0985e-06
5.48625e-05
-3.68165e-05
3.32848e-06
-3.70659e-06
-1.78641e-06
3.86623e-05
3.18712e-07
1.44106e-06
1.13942e-06
0.000320558
3.81827e-07
1.51495e-06
2.21445e-06
1.76353e-06
9.57817e-07
1.37664e-06
1.7379e-06
-2.00336e-06
-6.6111e-07
0.000128714
3.903e-07
-7.47078e-07
9.35154e-07
8.17094e-08
-2.08734e-07
2.18075e-07
-2.96418e-05
-1.71647e-06
-1.85277e-06
2.84198e-05
-5.24006e-05
8.85555e-06
7.54442e-07
4.27907e-05
-2.91924e-05
-8.36606e-07
1.89115e-06
2.92752e-05
-2.93221e-05
-2.00041e-06
3.04623e-06
-1.2064e-06
2.88215e-05
-9.83248e-06
2.54893e-06
-2.25572e-06
9.53535e-06
-5.79515e-06
2.08849e-06
-2.66174e-06
6.3684e-06
-1.82597e-06
1.05339e-06
1.47618e-07
6.24969e-07
-7.40689e-07
-1.07859e-06
-4.17367e-06
2.70652e-07
6.86059e-07
5.03623e-06
2.43922e-06
-1.43235e-05
4.44912e-07
-4.35056e-07
-2.06831e-06
1.39427e-05
-3.70025e-05
2.39503e-06
-2.15169e-06
-2.30381e-06
3.81874e-05
8.75642e-07
1.77665e-07
1.78935e-06
-5.89155e-06
-1.271e-06
-3.80225e-07
5.57576e-06
4.10196e-06
-6.75937e-06
3.92116e-05
2.66373e-07
-8.12886e-07
5.86287e-08
-5.99834e-07
-1.37036e-08
5.1946e-07
-4.94725e-08
9.44061e-07
-2.04889e-06
7.989e-07
7.67918e-05
2.10067e-06
2.43003e-06
2.19844e-06
2.83675e-06
-6.52794e-06
-6.39717e-06
0.000136226
2.51226e-06
1.8373e-06
3.14672e-06
1.81141e-06
-3.12217e-06
-5.38498e-06
-1.71256e-06
-2.76792e-05
9.10563e-07
-6.42314e-06
2.66638e-05
-1.45916e-06
1.73683e-07
-6.03019e-07
1.88849e-06
2.45359e-06
-4.28321e-05
2.70207e-07
-2.40854e-06
-3.29818e-07
4.28467e-05
1.13178e-05
-9.1377e-06
0.000204374
2.36062e-08
-1.10778e-06
1.5025e-06
6.60554e-07
1.29147e-05
1.89712e-06
0.000130777
2.36328e-06
-1.86267e-06
0.000134446
-2.66713e-07
4.35859e-06
1.49787e-06
-1.57474e-06
-1.08797e-06
-1.25457e-06
-5.21665e-05
4.04848e-06
5.73893e-06
-7.26014e-06
5.20025e-05
-4.06943e-05
3.69579e-06
-3.1474e-06
-1.69137e-06
4.11615e-05
6.75781e-07
6.06499e-06
1.71951e-06
0.00029376
3.52741e-07
1.1798e-06
1.86602e-06
1.12319e-06
1.72008e-06
1.7683e-06
1.86597e-06
-1.2131e-06
-2.83905e-07
0.000135327
1.42444e-06
3.82564e-09
1.47037e-06
1.82467e-07
-2.02788e-07
-3.20538e-08
-2.82425e-05
6.25242e-08
-1.7707e-06
2.68749e-05
-4.03296e-05
4.86625e-06
-3.08594e-06
3.85506e-05
-2.95331e-05
-9.18224e-07
2.04373e-06
3.01257e-05
-2.88375e-05
-1.96788e-06
2.87936e-06
-1.25315e-06
2.88953e-05
-9.32196e-06
2.52577e-06
-2.37223e-06
9.16841e-06
-6.66015e-06
2.19351e-06
-2.36124e-06
6.8279e-06
4.11625e-07
2.03447e-06
-1.77362e-06
-6.72481e-07
-6.61947e-07
-1.08894e-06
-5.8372e-06
7.06455e-07
2.67823e-07
6.61381e-06
2.34058e-06
-1.36876e-05
1.77863e-07
-6.0361e-07
-1.48461e-06
1.32574e-05
-3.93017e-05
2.25443e-06
-1.8997e-06
-1.98737e-06
4.02347e-05
6.99682e-07
2.9693e-07
2.41955e-07
-5.36198e-06
-1.14413e-06
6.74929e-07
5.2923e-06
4.79593e-06
-1.68884e-06
3.84809e-05
-2.62022e-07
-1.11985e-06
1.01424e-07
-6.57125e-07
-1.60271e-07
2.48579e-07
-1.14833e-06
6.21197e-07
-1.64921e-06
3.80447e-06
7.4474e-05
8.95115e-07
1.73403e-06
2.51136e-07
2.07819e-06
-5.15324e-06
-4.2951e-06
0.000143816
2.0231e-06
1.55506e-06
2.61174e-06
1.43152e-06
-1.67792e-06
-4.70145e-06
-1.03268e-06
-2.70266e-05
9.32773e-07
-6.964e-06
2.79046e-05
-2.27485e-06
3.0885e-07
-7.71217e-07
2.73722e-06
2.33149e-06
-4.28391e-05
-2.29941e-07
-1.65355e-06
-1.84493e-07
4.25756e-05
1.174e-05
-4.87755e-06
0.000194691
1.20516e-08
-7.33056e-07
1.31938e-06
5.33193e-07
1.52686e-05
3.64606e-06
0.000127406
4.40227e-06
-2.15864e-06
0.000136165
2.31078e-06
4.60122e-06
3.22565e-06
-9.65591e-07
-1.51432e-06
-6.47274e-07
-5.34658e-05
4.56153e-06
5.77875e-06
-7.35603e-06
5.48839e-05
-4.10599e-05
1.84027e-06
-1.3002e-06
-1.17151e-06
4.10347e-05
6.56611e-07
6.9838e-06
1.50096e-06
0.000274866
-2.00508e-07
6.05855e-07
7.85262e-07
1.56184e-07
1.61172e-06
1.12347e-06
1.44941e-06
-6.46136e-07
-7.08613e-08
0.000142035
1.93966e-06
5.47951e-07
2.13793e-06
1.0896e-07
-7.8165e-08
-1.78317e-08
-2.73635e-05
8.56751e-07
-2.80979e-06
2.65117e-05
-3.72572e-05
5.46824e-06
-5.14966e-06
3.69395e-05
-3.06045e-05
-9.9342e-07
2.46176e-06
3.06371e-05
-2.92311e-05
-1.937e-06
2.8036e-06
-1.4681e-06
2.97617e-05
-8.99869e-06
2.80352e-06
-2.74057e-06
8.93574e-06
-6.9723e-06
2.1282e-06
-2.35084e-06
7.19508e-06
1.05147e-07
-8.70757e-07
-4.66121e-08
8.12074e-07
-6.49039e-07
6.70864e-07
-6.98724e-06
2.6062e-07
-1.69361e-07
6.87416e-06
2.13236e-06
-1.22906e-05
-2.87048e-07
-1.52463e-07
-3.48703e-07
1.09465e-05
-4.11223e-05
1.95988e-06
-1.61086e-06
-1.60828e-06
4.18888e-05
4.92797e-07
9.0678e-07
-1.79292e-06
-4.66231e-06
1.78925e-06
1.61354e-07
3.59784e-06
5.1288e-06
1.65325e-06
3.81965e-05
-3.95375e-08
-6.85981e-07
-1.37001e-07
-3.21116e-07
-2.31023e-06
-2.73198e-07
-2.84327e-06
1.12698e-07
-2.2763e-06
6.04003e-06
7.48584e-05
-7.05208e-07
8.37174e-07
-1.20572e-07
9.69302e-07
-4.53926e-06
-2.69379e-06
0.000149197
1.36241e-06
1.03632e-06
1.97875e-06
9.61921e-07
-8.6532e-07
-4.32277e-06
-5.75884e-07
-2.92938e-05
1.47771e-06
-7.36942e-06
3.06463e-05
-3.23765e-06
6.83879e-07
-1.14643e-06
3.7002e-06
2.19758e-06
-4.23922e-05
-5.82933e-07
-1.4766e-06
1.41047e-07
4.21131e-05
1.12291e-05
-3.63156e-07
0.000185271
-9.02297e-08
-1.0048e-06
1.02229e-06
2.80691e-07
1.44689e-05
5.41175e-06
0.000124795
4.04192e-06
-2.93663e-06
0.000139346
3.12197e-06
4.04403e-06
3.56827e-06
-7.23386e-07
-2.12462e-06
-3.97109e-07
-5.66023e-05
5.1435e-06
5.33017e-06
-7.78902e-06
5.79595e-05
-4.10514e-05
9.93034e-07
-3.81007e-07
-9.92244e-07
4.12625e-05
1.6911e-07
7.99863e-06
1.24199e-06
0.000262768
-1.06975e-06
3.63752e-08
5.91013e-08
-1.66178e-07
1.39024e-06
8.92941e-07
1.35179e-06
-3.44479e-07
2.21932e-08
0.000149707
2.49513e-06
6.6097e-07
2.63183e-06
1.54599e-07
1.45609e-08
1.03244e-07
-2.72448e-05
1.15017e-06
-3.34257e-06
2.61561e-05
-3.74141e-05
5.36134e-06
-5.67546e-06
3.77282e-05
-3.03545e-05
-9.83092e-07
2.51107e-06
3.00685e-05
-3.03021e-05
-2.16376e-06
3.08739e-06
-1.55611e-06
3.09568e-05
-8.84514e-06
2.97051e-06
-2.9552e-06
8.82984e-06
-7.52613e-06
2.05756e-06
-2.06954e-06
7.5381e-06
-1.47935e-06
-1.95008e-06
1.50096e-06
1.92846e-06
-6.43756e-07
1.58755e-06
-6.60784e-06
-8.35382e-07
2.82028e-07
6.21741e-06
1.73352e-06
-9.7127e-06
5.728e-08
1.7787e-07
-6.82709e-07
8.42674e-06
-4.24736e-05
1.715e-06
-1.31825e-06
-1.31371e-06
4.31101e-05
2.80501e-07
1.12018e-07
-2.47306e-06
-2.54834e-06
3.16395e-06
-3.38122e-07
2.08355e-06
4.4974e-06
3.09051e-06
3.99677e-05
-5.3487e-07
-3.60305e-07
-6.70344e-07
2.31105e-08
-3.39069e-06
-4.07269e-07
-3.63436e-06
-3.84418e-07
-2.85023e-06
5.74982e-06
7.5163e-05
1.5766e-08
3.99781e-08
8.82197e-07
3.55267e-07
-4.17135e-06
-9.36703e-07
0.000153839
6.80439e-07
5.42285e-07
1.4746e-06
5.83895e-07
-7.95161e-07
-4.0496e-06
-8.20011e-07
-3.18511e-05
1.97924e-06
-7.26602e-06
3.29665e-05
-4.08472e-06
1.11965e-06
-1.31661e-06
4.28169e-06
1.48624e-06
-4.19022e-05
-3.35042e-07
-1.07756e-06
2.54082e-07
4.15745e-05
1.18117e-05
1.73956e-06
0.000176316
-5.48202e-07
-1.46385e-06
7.3809e-07
-2.31899e-07
1.23722e-05
5.33842e-06
0.000124646
3.19852e-06
-3.58732e-06
0.000144487
3.31018e-06
3.13105e-06
3.55859e-06
-5.0189e-07
-2.70487e-06
-1.0948e-07
-5.9873e-05
5.12539e-06
4.33563e-06
-7.91327e-06
6.15237e-05
-4.16371e-05
4.34213e-07
3.77942e-08
-3.20733e-07
4.19161e-05
-4.30295e-07
9.82706e-06
9.44509e-07
0.000253142
-1.64845e-06
-3.34361e-07
-3.34001e-07
-3.95333e-07
1.23832e-06
7.59556e-07
1.30881e-06
-2.86521e-07
-6.30101e-10
0.000157838
2.81738e-06
9.74332e-07
3.04477e-06
1.91471e-07
1.12342e-07
1.81438e-07
-2.67418e-05
9.31339e-07
-3.52874e-06
2.54654e-05
-3.78983e-05
5.52696e-06
-5.45489e-06
3.78262e-05
-2.95289e-05
-1.13702e-06
2.68828e-06
2.89222e-05
-3.16744e-05
-2.43131e-06
3.23408e-06
-1.53563e-06
3.24066e-05
-8.85842e-06
3.03401e-06
-3.11996e-06
8.94437e-06
-7.46658e-06
1.87189e-06
-1.962e-06
7.55669e-06
-2.10542e-06
-2.41156e-06
2.61557e-06
1.90141e-06
-6.65637e-07
2.17743e-06
-5.92449e-06
-1.76121e-06
5.07317e-07
5.66659e-06
1.60365e-06
-7.30017e-06
8.02043e-07
-1.73664e-07
-1.249e-06
6.31713e-06
-4.37695e-05
1.53788e-06
-1.07263e-06
-1.17476e-06
4.425e-05
2.29081e-07
-8.05384e-07
-2.90011e-06
-2.22251e-06
4.00585e-06
-7.78246e-07
2.7004e-06
4.96614e-06
3.09806e-06
4.44991e-05
-7.30286e-07
1.21293e-07
-5.65303e-07
4.69759e-07
-4.03114e-06
-1.58526e-06
-4.17089e-06
-2.10371e-06
-2.43151e-06
4.54511e-06
7.57443e-05
8.08914e-07
-1.44292e-07
1.26286e-06
3.4371e-07
-3.73242e-06
8.32565e-08
0.000158566
3.24515e-07
3.07243e-07
1.21222e-06
3.6993e-07
-1.06014e-06
-3.55056e-06
-1.11329e-06
-3.39505e-05
1.84488e-06
-6.53893e-06
3.49121e-05
-4.34416e-06
1.48374e-06
-1.57278e-06
4.4332e-06
5.11726e-07
-4.12823e-05
1.48536e-07
-7.71424e-07
2.21222e-07
4.11723e-05
1.17372e-05
1.69947e-06
0.000168529
-6.39181e-07
-1.75535e-06
4.93394e-07
-6.50914e-07
1.01588e-05
4.66682e-06
0.000126102
2.17224e-06
-4.06946e-06
0.000151955
3.17414e-06
2.00408e-06
3.28691e-06
-4.42173e-07
-2.9879e-06
-3.64488e-07
-6.36899e-05
4.62416e-06
3.57e-06
-7.79593e-06
6.54639e-05
-4.20345e-05
6.16553e-07
2.31783e-07
2.68014e-08
4.17798e-05
-6.20464e-07
1.1341e-05
7.39752e-07
0.000243466
-1.76859e-06
-5.88533e-07
-5.57202e-07
-6.57242e-07
1.02688e-06
7.43992e-07
1.09529e-06
3.21663e-07
-4.19592e-08
0.000165297
3.16049e-06
1.69962e-06
3.24334e-06
1.21594e-07
7.46348e-08
-3.06718e-08
-2.60455e-05
1.01907e-06
-3.63393e-06
2.49126e-05
-3.77846e-05
5.61309e-06
-5.53357e-06
3.77051e-05
-2.8173e-05
-1.46141e-06
2.96707e-06
2.74071e-05
-3.32469e-05
-2.74439e-06
3.45146e-06
-1.3934e-06
3.38912e-05
-9.00067e-06
3.27133e-06
-3.33713e-06
9.06647e-06
-7.59561e-06
1.76709e-06
-1.76755e-06
7.59607e-06
-1.59178e-06
-3.08523e-06
3.33673e-06
1.34028e-06
-9.49295e-07
2.45031e-06
-5.53591e-06
-1.79891e-06
3.31379e-07
5.50243e-06
1.49395e-06
-5.47714e-06
8.98758e-07
-3.54187e-07
-1.52532e-06
4.96393e-06
-4.46726e-05
1.47347e-06
-8.59451e-07
-1.10218e-06
4.49605e-05
2.00247e-07
-1.39448e-06
-2.65309e-06
-3.31931e-06
4.54674e-06
-1.21365e-06
4.03379e-06
6.44648e-06
2.35743e-06
5.18336e-05
-1.59676e-07
5.78852e-07
1.37177e-07
7.56773e-07
-4.83186e-06
-3.59462e-06
-5.23156e-06
-3.79354e-06
-1.75944e-06
1.38375e-06
7.87869e-05
1.21103e-06
2.58933e-07
1.48217e-06
8.27498e-07
-3.20064e-06
-1.25472e-07
0.000163714
2.05743e-07
2.09981e-07
1.10773e-06
3.06841e-07
-1.25264e-06
-2.98963e-06
-1.16849e-06
-3.56648e-05
1.31994e-06
-5.24605e-06
3.63903e-05
-4.36357e-06
2.24368e-06
-1.67984e-06
3.79972e-06
-9.39592e-07
-4.14743e-05
1.00449e-06
-2.14571e-07
-1.85046e-07
4.1809e-05
1.14526e-05
1.26796e-06
0.000161902
-8.42147e-07
-2.27085e-06
2.2571e-07
-8.49139e-07
8.38873e-06
2.18965e-06
0.00012836
1.18093e-06
-4.1661e-06
0.000161117
2.96996e-06
1.14841e-06
3.03634e-06
-1.00574e-06
-2.94819e-06
-1.11416e-06
-6.7616e-05
3.89589e-06
3.14309e-06
-7.64749e-06
6.94055e-05
-4.10818e-05
1.54039e-06
3.2087e-07
-2.60184e-07
3.97029e-05
-2.2218e-07
1.2985e-05
7.16396e-07
0.000233503
-2.08711e-06
-9.16612e-07
-9.04732e-07
-1.00968e-06
8.02131e-07
7.84204e-07
8.60677e-07
1.18774e-06
-1.79071e-07
0.000171271
3.28825e-06
2.5048e-06
3.30979e-06
-3.04596e-07