/*--------------------------------*- C++ -*----------------------------------*\
| =========                 |                                                 |
| \\      /  F ield         | OpenFOAM: The Open Source CFD Toolbox           |
|  \\    /   O peration     | Version:  5.x                                   |
|   \\  /    A nd           | Web:      www.OpenFOAM.org                      |
|    \\/     M anipulation  |                                                 |
\*---------------------------------------------------------------------------*/
FoamFile
{
    version     2.0;
    format      ascii;
    class       volVectorField;
    location    "5";
    object      U;
}
// * * * * * * * * * * * * * * * * * * * * * * * * * * * * * * * * * * * * * //

dimensions      [0 1 -1 0 0 0 0];

internalField   nonuniform List<vector> 
10571
(
(0.258992 0.496725 1.36507)
(0.0349521 0.13963 0.975465)
(0.436223 0.618576 1.18575)
(0.364656 0.897017 1.21413)
(0.0900138 0.364783 0.945459)
(0.547095 0.71545 1.17125)
(0.612346 1.09369 1.59838)
(-0.964151 2.70714 3.49559)
(-0.127853 0.39758 1.42585)
(0.384275 0.611864 1.24677)
(0.430451 0.403078 1.01298)
(0.867632 0.755247 1.59299)
(1.12231 1.07431 2.82822)
(-1.0959 0.726559 2.65256)
(0.13114 0.372384 0.939884)
(-0.0762353 1.99599 3.1184)
(0.330558 0.116633 1.52575)
(0.48267 -0.370111 2.51864)
(-0.594587 -1.69565 3.44202)
(0.917132 0.134873 1.83637)
(-0.95134 1.10885 3.52269)
(-0.147563 -0.164347 0.771908)
(0.0840907 -0.170883 0.797685)
(0.138352 -0.0692282 0.670969)
(0.188708 0.150256 0.831036)
(0.0693098 0.126252 0.559926)
(0.4108 0.433819 1.02804)
(-0.11896 0.132738 1.01055)
(-0.0919077 0.0128581 0.875592)
(0.157292 0.359106 0.911296)
(-0.396905 -0.396344 3.2269)
(0.579326 0.181777 2.14005)
(0.0581492 0.356143 1.03632)
(-0.296431 0.108503 1.0355)
(0.171649 0.292 0.539883)
(-0.627933 0.186053 1.29612)
(0.102756 0.750754 2.95288)
(0.984326 0.534596 1.73905)
(0.407101 -0.158911 2.95017)
(-0.371133 0.435599 1.2471)
(-0.545508 -0.0938743 1.38116)
(0.280134 0.579415 1.61294)
(0.23302 0.136809 1.40358)
(-0.455402 -0.207167 1.73689)
(0.465049 -0.32887 2.94265)
(0.293109 0.0374451 0.960276)
(-0.0243403 -0.123522 0.879938)
(-0.102945 0.113328 1.01694)
(0.261066 0.0653509 -0.0739522)
(-0.0150986 0.129973 -0.0747749)
(0.274227 -0.0162899 0.510961)
(2.80941 0.0268434 2.83153)
(-0.0711349 0.393553 0.708297)
(-0.498545 1.52033 2.2062)
(-0.155085 0.209233 1.61396)
(0.75164 0.1774 2.67168)
(0.671969 0.266712 2.05365)
(-0.0890672 0.0704477 0.338661)
(0.0197696 0.248329 -0.226252)
(0.286305 0.866734 2.60936)
(-0.0599728 0.688755 2.35191)
(0.465026 0.470185 2.05283)
(0.945197 0.571962 3.96516)
(-0.442635 1.30349 2.23218)
(0.434614 0.109646 2.13992)
(0.184454 0.723667 4.23508)
(-0.0631186 0.502273 2.83645)
(0.425772 0.0412056 2.29468)
(0.393384 -0.0195354 5.33346)
(0.352441 -0.0297287 1.50662)
(-0.0306372 -0.158698 0.909831)
(-0.0349775 0.0455803 1.00576)
(0.156586 -0.00190329 -0.158814)
(-0.00780768 0.0375464 -0.421839)
(-0.00627924 0.00757646 -0.203594)
(0.915499 0.246128 1.14288)
(1.46072 0.439346 1.45579)
(0.311039 0.837044 1.68832)
(0.0044925 0.244497 1.07214)
(0.121716 0.242605 1.64143)
(0.386561 0.153842 1.4343)
(-0.0548221 0.310834 0.33532)
(-0.00126923 0.110402 -0.369061)
(0.357476 1.12648 2.35673)
(0.139524 0.423692 2.66343)
(-0.526514 0.214547 1.57418)
(0.770987 0.622795 3.12214)
(0.0240615 0.37632 1.52264)
(0.818253 0.743218 1.58127)
(0.152053 0.351859 3.86255)
(-0.284367 0.24295 1.19091)
(0.286278 0.51967 1.88531)
(-0.170792 0.581323 4.59872)
(0.0157721 -0.381006 0.68305)
(-0.187779 0.217193 0.524575)
(0.253566 0.0103145 0.796682)
(0.0906462 0.0392256 -0.101574)
(0.0508133 -0.0291023 -0.552247)
(0.118866 -0.0949438 -0.32529)
(-0.0259191 -0.16023 0.55145)
(0.157864 -0.158649 0.97175)
(0.209552 0.12314 1.40297)
(0.173155 0.102407 0.833966)
(-0.191825 0.128817 1.77049)
(0.119929 -0.230764 1.58773)
(0.13479 0.227021 0.591099)
(-0.0114772 -0.000825987 -0.490874)
(0.1317 0.934085 2.78965)
(0.167237 0.150122 1.75006)
(-0.594315 -0.0932972 1.01506)
(0.294332 0.22717 1.52332)
(0.795189 0.252562 2.29892)
(0.42113 0.614796 1.83278)
(0.0903087 0.219709 3.58026)
(-0.267044 0.0628407 1.17986)
(0.195094 0.862135 2.71412)
(-0.272893 0.55389 4.81505)
(0.0463523 0.0876529 0.972746)
(-0.375156 0.201527 0.79554)
(0.0285032 0.0758427 1.31082)
(0.0538058 -0.0139488 -0.0813458)
(0.0616583 -0.0589702 -0.578297)
(0.0583531 -0.199954 -0.184604)
(0.0334789 -0.310364 0.286049)
(0.0292398 -0.283062 1.12032)
(0.0113203 -0.0902373 1.20828)
(-0.0856548 0.00287499 0.251438)
(-0.21736 0.168702 1.40715)
(0.247849 -0.0896531 1.32043)
(0.525245 -0.024306 1.1137)
(0.00168986 0.000288869 -0.0016354)
(-0.00979595 -0.0272351 -0.505746)
(0.135277 0.623719 2.47751)
(0.0873514 0.000854199 1.7325)
(-0.306674 0.065712 1.04222)
(0.0912333 0.000139579 1.58085)
(0.706286 0.195036 2.22802)
(0.00313626 0.00354689 0.00114254)
(0.12858 0.244093 1.84844)
(0.0976339 0.190571 3.75747)
(-0.338896 -0.0895383 1.31671)
(0.0411065 0.491016 2.81477)
(-0.132741 0.477792 4.95435)
(0.0829351 0.245831 1.41882)
(-0.219111 -0.0085405 0.897733)
(-0.299296 0.160631 1.38576)
(-0.111156 -0.0179252 0.135557)
(0.0465337 -0.0510511 -0.412062)
(0.0811149 -0.0598951 -0.000247049)
(-0.124276 -0.383203 0.600684)
(-0.0254853 -0.486898 1.16334)
(0.0155895 -0.203002 1.0409)
(-0.143172 0.0526584 0.425668)
(-0.0529824 -0.056817 0.688911)
(0.184447 -0.00754114 0.666234)
(0.594754 -0.0806731 0.792648)
(0.0856779 0.0414745 0.20706)
(-0.0133308 -0.0369848 -0.440192)
(0.089458 0.323084 2.26318)
(0.107249 -0.0509324 1.98215)
(-0.0103029 0.165607 1.19553)
(-0.0859174 -0.312465 1.02513)
(0.501908 0.117841 1.99719)
(-0.122709 0.0921933 0.0322948)
(0.00198993 -0.0412268 1.70692)
(0.0327734 -0.0214053 3.94937)
(-0.471622 -0.211807 1.33111)
(-0.0601019 0.0162596 2.56948)
(0.109374 0.436161 4.52388)
(-0.778395 -0.0121958 0.0733918)
(0.0527756 0.17503 1.63066)
(-0.0588093 -0.0993576 1.03767)
(-0.290481 0.123922 1.25603)
(-0.16489 -0.0139658 0.358269)
(-0.00354784 -0.0836803 -0.191051)
(0.0592313 0.0538854 -0.0667108)
(-0.0497161 -0.200515 0.664836)
(-0.080091 -0.208118 1.24616)
(-0.00672305 -0.169378 0.883267)
(0.0172337 0.133489 0.392464)
(0.0115777 -0.102061 0.967538)
(-0.00115567 0.0328969 0.867608)
(0.141562 -0.0550452 0.947936)
(-0.182562 0.162742 0.231245)
(0.00216284 -0.0139093 -0.393062)
(0.0330537 0.120293 2.094)
(0.0926636 -0.144199 2.19982)
(0.101647 0.0173493 1.24453)
(-0.178702 -0.560189 0.97277)
(-0.0478546 0.0413243 1.66301)
(-0.397215 0.227386 0.233106)
(-0.0628226 -0.142903 1.53185)
(0.00614571 -0.183167 3.91185)
(-0.42637 -0.189537 1.33571)
(-0.104846 -0.246641 1.91462)
(0.118208 0.135161 3.90167)
(0.677074 0.261084 0.593778)
(0.00846912 0.113471 1.57863)
(0.154545 -0.0938505 1.13291)
(-0.198671 0.13139 0.927407)
(-0.205686 -0.0537623 0.511257)
(0.0319058 -0.0542011 -0.0107067)
(0.0388474 0.114537 -0.0172602)
(-0.0445231 -0.0703932 0.629617)
(-0.107276 -0.132962 1.29787)
(-0.0786988 -0.167451 0.701352)
(0.0661644 -0.016414 0.360806)
(-0.00679752 -0.153687 0.799038)
(-0.127118 0.0313006 0.904668)
(-0.557064 -0.095479 1.2803)
(-0.78829 -0.217311 -0.510118)
(-0.050559 0.000107834 -0.224258)
(-0.0239895 -0.0144528 1.98738)
(0.0866753 -0.186656 2.2233)
(0.180318 0.0664054 1.27702)
(-0.200384 -0.337235 1.03288)
(-0.46461 0.0814528 1.65288)
(-0.260215 -0.679577 0.540565)
(-0.208658 -0.0830501 1.41204)
(-0.0244831 -0.235447 3.794)
(-0.209383 -0.148826 1.34078)
(-0.166761 -0.224853 1.40759)
(-0.031296 -0.259055 3.98949)
(0.0425665 0.160081 1.52787)
(0.249191 -0.0453518 1.1558)
(-0.0670292 0.00837225 0.984013)
(-0.215528 -0.0823756 0.69885)
(0.000675542 -0.0209362 0.110128)
(0.0802837 0.161909 0.0950324)
(-0.020605 -0.121747 0.637196)
(-0.0937052 -0.121012 1.37369)
(-0.144409 -0.124553 0.328867)
(0.114246 -0.12284 0.330021)
(-0.0241832 -0.150113 0.799603)
(-0.113117 -0.059851 1.13757)
(-0.94755 -0.380274 1.47872)
(-0.0160877 -0.00112368 0.0448399)
(-0.116923 -0.0825652 1.88815)
(0.0961804 -0.185236 2.1612)
(0.244493 0.10845 1.33229)
(-0.0563429 -0.253561 1.30343)
(-0.473786 -0.312368 2.03251)
(-0.278396 -0.0509603 1.48964)
(0.046603 -0.202924 3.59107)
(0.0109578 -0.0809572 1.3055)
(-0.154823 -0.125563 1.26241)
(0.143757 -0.234136 3.92982)
(0.104683 0.190163 1.46298)
(0.255439 -0.00982578 1.15224)
(0.200202 -0.141335 0.891833)
(-0.213554 -0.0920254 0.879301)
(0.05362 -0.0123304 0.112155)
(0.0832582 0.0719962 0.208454)
(-0.0150804 -0.139964 0.623986)
(-0.0931117 -0.120589 1.47302)
(-0.130556 -0.061538 0.23882)
(0.118403 -0.0831781 0.404724)
(0.0136986 -0.1189 0.804861)
(-0.0482105 -0.100203 1.41235)
(-0.661075 -0.295283 1.37641)
(0.0166639 0.0261725 0.25063)
(-0.170541 -0.0383602 1.88079)
(0.131909 -0.173546 2.10886)
(0.260567 0.141775 1.35567)
(0.244288 -0.144443 1.39866)
(0.170065 -0.502948 2.08222)
(-0.318439 -0.0754577 1.59693)
(0.0669359 -0.112419 3.13361)
(0.138988 -0.0635235 1.4231)
(-0.121181 -0.0859079 1.17187)
(0.180409 -0.298243 3.57151)
(0.108747 0.204811 1.50911)
(0.240726 0.0331168 1.13688)
(0.228527 -0.114812 0.831713)
(-0.233434 -0.0614584 0.968764)
(0.151393 -0.102811 -0.0466487)
(0.0692899 0.0314899 0.274265)
(-0.067942 -0.130671 0.590839)
(-0.0994337 -0.109269 1.55589)
(-0.104224 0.0593407 0.228616)
(0.144187 0.0374034 0.392687)
(0.0130219 -0.0462849 0.764767)
(-0.057388 -0.109077 1.50011)
(-0.506157 -0.30316 1.36154)
(-0.00274333 0.037857 0.344991)
(-0.135317 -0.0130529 1.90075)
(0.121033 -0.104686 2.05788)
(0.274665 0.167199 1.33246)
(0.28151 -0.0441405 1.43507)
(0.246087 -0.372514 2.11947)
(-0.132225 -0.0692325 1.61639)
(0.0881518 -0.067084 3.02488)
(0.177425 -0.0260007 1.48471)
(-0.100652 -0.160378 1.16483)
(0.266347 -0.405873 3.4044)
(0.13131 0.189035 1.56097)
(0.217791 0.0344563 1.16822)
(0.281545 -0.0943002 0.819065)
(-0.220857 -0.0604997 1.00331)
(-0.024439 0.0531657 0.0443368)
(-0.0118354 0.00843026 0.301246)
(-0.0179361 -0.104004 0.506843)
(-0.0885053 -0.0928769 1.63305)
(0.103559 -0.069575 0.184513)
(0.192323 0.0611037 0.378018)
(-0.0212794 0.00221841 0.738854)
(-0.0587435 -0.0740317 1.55467)
(-0.423904 -0.337166 1.50825)
(-0.0275663 -0.00428799 0.505333)
(-0.11873 0.00778191 1.86347)
(0.114337 -0.0125673 1.91454)
(0.268076 0.194474 1.26813)
(0.238973 -0.0211322 1.44572)
(0.239923 -0.351416 2.2497)
(-0.0498113 -0.0342707 1.6066)
(0.0955638 -0.00458892 2.86294)
(0.210175 0.0103628 1.53977)
(-0.0882121 -0.236462 1.15439)
(0.320111 -0.417491 3.41917)
(0.137595 0.133367 1.52736)
(0.228192 0.0262304 1.20095)
(0.301416 -0.0986017 0.805022)
(-0.221054 -0.0405933 1.09875)
(-0.103378 0.101414 0.135674)
(-0.084311 0.00768179 0.279823)
(0.0190539 -0.072276 0.397153)
(-0.0663383 -0.0768773 1.6716)
(0.193838 -0.112081 0.0910982)
(0.203127 0.0457447 0.381024)
(-0.0551775 -6.77258e-05 0.750538)
(-0.0490615 -0.00581022 1.60628)
(-0.378976 -0.346714 1.63599)
(-0.0336555 -0.0552965 0.598517)
(-0.0831604 0.000574125 1.82684)
(0.14451 0.048758 1.80349)
(0.263031 0.186935 1.25234)
(0.158452 -0.0300644 1.49658)
(0.199547 -0.367758 2.40271)
(-0.0360347 0.00937546 1.64071)
(0.120811 0.0119909 2.70765)
(0.232715 0.0181693 1.60932)
(-0.0929211 -0.292761 1.12316)
(0.320409 -0.427208 3.44882)
(0.149877 0.0894356 1.4729)
(0.240957 0.0211141 1.25424)
(0.318561 -0.112305 0.810783)
(-0.194143 -0.0432096 1.07294)
(-0.134024 0.125386 0.152907)
(-0.134618 0.0135577 0.250431)
(-0.0189106 -0.0759354 0.296993)
(-0.0413736 -0.071718 1.72126)
(0.255998 -0.10275 0.102637)
(0.232127 0.031147 0.408334)
(-0.0700991 -0.0221755 0.749546)
(-0.0188942 0.0508942 1.6466)
(-0.353193 -0.324099 1.73842)
(-0.0631878 -0.110628 0.631496)
(-0.0469069 -0.0162156 1.81171)
(0.149353 0.0617618 1.71365)
(0.261245 0.169044 1.26092)
(0.0779815 -0.0497916 1.56559)
(0.15272 -0.370049 2.55007)
(-0.0397811 0.037777 1.64108)
(0.137426 0.001502 2.60861)
(0.259449 0.0133024 1.69784)
(-0.0436211 -0.326903 1.09313)
(0.342176 -0.434697 3.44385)
(0.170347 0.0628125 1.39249)
(0.25327 0.0217653 1.31655)
(0.340478 -0.140571 0.822395)
(-0.181867 -0.0399834 1.0909)
(-0.168104 0.173314 0.105488)
(-0.132966 0.0437282 0.238363)
(-0.0255862 -0.0824877 0.226668)
(-0.0143291 -0.0658124 1.75644)
(0.259887 -0.0570913 0.167377)
(0.286085 0.00844008 0.47088)
(-0.0763307 -0.0605276 0.761241)
(0.0166805 0.0788143 1.69286)
(-0.32071 -0.278703 1.81995)
(-0.0865431 -0.25386 0.602599)
(0.00504408 -0.0455144 1.82212)
(0.135558 0.0602545 1.65338)
(0.268521 0.104123 1.28306)
(0.00965851 -0.0861909 1.65289)
(0.101513 -0.374236 2.6969)
(-0.0535587 0.0216462 1.58465)
(0.164375 -0.0114805 2.48883)
(0.291516 -0.00730252 1.77897)
(0.0307784 -0.314712 1.08818)
(0.364011 -0.446773 3.44006)
(0.17692 0.0632553 1.33072)
(0.259492 0.0215183 1.36912)
(0.333091 -0.14901 0.835013)
(-0.161987 -0.0393704 1.07461)
(-0.226506 0.239476 0.089286)
(-0.102749 0.0896009 0.247089)
(-0.0245017 -0.0634673 0.20139)
(-0.00982893 -0.0578512 1.77445)
(0.24402 -0.0323582 0.235599)
(0.278543 -0.0300091 0.560743)
(-0.106005 -0.110085 0.822913)
(0.0214582 0.0856062 1.75643)
(-0.288776 -0.243604 1.88472)
(-0.0546945 -0.413129 0.338877)
(0.0590773 -0.0655717 1.85743)
(0.170904 0.0433966 1.59463)
(0.271057 -0.0258234 1.32642)
(-0.0597046 -0.139489 1.75555)
(0.0724001 -0.392038 2.85357)
(-0.0513788 -0.0404788 1.43495)
(0.201008 -0.0254251 2.41532)
(0.305239 -0.034076 1.8311)
(0.0976027 -0.288289 1.11162)
(0.36148 -0.452413 3.43603)
(0.169753 0.0763454 1.2811)
(0.266169 0.0120726 1.38061)
(0.312029 -0.145281 0.840239)
(-0.146412 -0.0370154 1.03692)
(-0.253061 0.263568 0.118022)
(-0.0442792 0.146797 0.265428)
(0.00305507 -0.0370776 0.224366)
(-0.0149106 -0.044883 1.78432)
(0.274583 -0.102335 0.286049)
(0.21107 -0.0799606 0.671572)
(-0.14757 -0.166883 0.903724)
(0.00159293 0.0717157 1.81224)
(-0.266475 -0.217274 1.96065)
(-0.0340242 -0.39745 0.209561)
(0.0569531 -0.117346 1.77538)
(0.191283 -0.0317781 1.5439)
(0.255275 -0.127809 1.38303)
(-0.117743 -0.196864 1.85408)
(0.0730601 -0.413539 2.98388)
(-0.0114655 -0.0269355 1.23438)
(0.230219 -0.0646991 2.31999)
(0.320205 -0.072796 1.83846)
(0.154629 -0.271093 1.14553)
(0.347568 -0.457397 3.40081)
(0.138524 0.0153641 1.10004)
(0.271246 0.00595914 1.3663)
(0.295111 -0.131235 0.856581)
(-0.139065 -0.0315604 1.01078)
(-0.204951 0.20018 0.232579)
(0.0385911 0.116799 0.308935)
(0.0633672 -0.0192545 0.308241)
(-0.0168842 -0.0308558 1.78209)
(0.241593 -0.26099 0.320655)
(0.152682 -0.141607 0.797259)
(-0.145392 -0.207796 0.973227)
(-0.0273061 0.0310307 1.85938)
(-0.247658 -0.192614 2.04495)
(-0.0185495 -0.267915 0.25445)
(0.237627 -0.167423 1.48059)
(0.144605 -0.129624 1.52213)
(0.241878 -0.20073 1.43844)
(-0.150841 -0.251535 1.93238)
(0.0573431 -0.41385 3.06345)
(-0.0225518 0.102095 0.991682)
(0.255513 -0.118429 2.16324)
(0.34567 -0.0952563 1.80386)
(0.217477 -0.246543 1.20995)
(0.345298 -0.463043 3.31063)
(0.086306 -0.00640636 0.928716)
(0.258479 -0.00184869 1.32584)
(0.275631 -0.120609 0.888032)
(-0.127548 -0.0411671 1.0066)
(-0.164939 0.13797 0.386276)
(0.103828 -0.041164 0.413843)
(0.129883 -0.0359282 0.441887)
(-0.00957451 -0.0180238 1.78186)
(0.12782 -0.321289 0.364473)
(0.16771 -0.230571 0.910597)
(-0.12496 -0.222348 1.07344)
(-0.0525106 -0.0110059 1.92737)
(-0.21864 -0.160535 2.12451)
(-0.0305813 -0.163337 0.340739)
(0.0410693 -0.476729 0.997667)
(0.0867407 -0.170953 1.51684)
(0.218963 -0.247233 1.47151)
(-0.165633 -0.292759 2.00649)
(0.00796803 -0.408643 3.14831)
(0.0126851 -0.0963967 0.80796)
(0.231173 -0.0834294 2.05736)
(0.336234 -0.0876214 1.7501)
(0.265578 -0.223005 1.27732)
(0.344935 -0.468988 3.20977)
(0.0855263 -0.0657064 0.736969)
(0.234302 -0.0209827 1.24887)
(0.255824 -0.11061 0.922809)
(-0.0635154 -0.0519042 1.01117)
(-0.173353 0.135355 0.555402)
(0.0898864 -0.222511 0.521096)
(0.192726 -0.0956865 0.611373)
(-0.00308545 -0.00264965 1.78943)
(-0.00320345 -0.300169 0.434505)
(0.207117 -0.34851 0.935049)
(-0.148162 -0.227204 1.2104)
(-0.0657648 -0.0274567 2.00746)
(-0.194445 -0.143137 2.18613)
(-0.0371678 -0.0564038 0.475016)
(-0.125533 -0.392835 0.654441)
(0.066494 -0.178894 1.51519)
(0.151425 -0.280642 1.49684)
(-0.170016 -0.314229 2.06712)
(-0.00614454 -0.42547 3.24767)
(-0.102711 -0.163213 0.535806)
(0.198928 -0.103491 1.93112)
(0.268039 -0.10233 1.64755)
(0.284142 -0.23169 1.3056)
(0.327585 -0.471893 3.04937)
(-0.0509823 0.0558395 0.633088)
(0.178077 -0.0531222 1.15288)
(0.243144 -0.115661 0.947302)
(0.049309 -0.0579065 1.09669)
(-0.197911 0.143075 0.74123)
(0.0348316 -0.329364 0.599343)
(0.205929 -0.161334 0.804084)
(0.00153073 0.0187553 1.81612)
(-0.0870498 -0.302335 0.543565)
(0.158573 -0.457337 0.867095)
(-0.197745 -0.245963 1.34694)
(-0.0746111 -0.0406383 2.06915)
(-0.181984 -0.153684 2.24939)
(-0.0306479 0.0575913 0.666453)
(-0.223705 -0.297641 0.509189)
(0.101272 -0.216383 1.48526)
(0.0988279 -0.318424 1.52974)
(-0.17516 -0.331233 2.10475)
(-0.00830861 -0.446488 3.3188)
(-0.188224 -0.153203 0.414108)
(0.160997 -0.157644 1.74566)
(0.264407 -0.125007 1.55901)
(0.290818 -0.246924 1.29502)
(0.291121 -0.461377 2.83687)
(-0.0888899 0.120532 0.619994)
(0.176338 -0.10875 0.982721)
(0.241419 -0.12221 0.92482)
(0.140327 -0.0421583 1.26076)
(-0.217724 0.138428 0.922564)
(-0.0282056 -0.367849 0.660128)
(0.16203 -0.157059 0.961221)
(-0.000712991 0.0336005 1.86999)
(-0.110233 -0.212346 0.691772)
(0.0312018 -0.497938 0.762601)
(-0.189079 -0.281799 1.46504)
(-0.095124 -0.0661957 2.10182)
(-0.175172 -0.171056 2.31989)
(-0.0125054 0.147357 0.883876)
(-0.263317 -0.230601 0.576806)
(0.116181 -0.36852 1.25456)
(0.109677 -0.341234 1.58468)
(-0.183752 -0.349721 2.13132)
(-0.0133069 -0.465702 3.35104)
(-0.177897 -0.133332 0.442256)
(0.0750631 -0.104675 1.32709)
(0.371171 -0.144338 1.43502)
(0.310648 -0.246543 1.28765)
(0.2579 -0.449474 2.57499)
(-0.0561748 0.170129 0.601864)
(0.254157 -0.0679258 0.812063)
(0.282282 -0.142242 0.892499)
(0.13028 -0.0271691 1.39716)
(-0.218821 0.148664 1.07405)
(-0.106631 -0.327345 0.735919)
(0.0251333 -0.100459 1.10174)
(-0.0162408 0.0211041 1.94145)
(-0.13546 -0.0584966 0.820599)
(-0.0858243 -0.410858 0.664219)
(-0.111647 -0.314748 1.54228)
(-0.126074 -0.0780362 2.1363)
(-0.163553 -0.176541 2.39689)
(0.00438451 0.228064 1.06885)
(-0.23897 -0.128496 0.695906)
(-0.0213535 -0.360622 0.910569)
(0.15573 -0.349453 1.63576)
(-0.211769 -0.355657 2.16904)
(-0.0164652 -0.4825 3.3542)
(-0.0490171 -0.0335322 0.564962)
(0.0787116 -0.0491915 0.854547)
(0.451667 -0.138311 1.27364)
(0.372502 -0.25715 1.30392)
(0.233642 -0.453468 2.26965)
(0.00034318 0.119311 0.543297)
(0.284905 -0.115785 0.667364)
(0.306992 -0.159178 0.913449)
(0.0430525 -0.0258286 1.45839)
(-0.231907 0.174698 1.19998)
(-0.213889 -0.219923 0.87238)
(-0.147982 -0.114095 1.24418)
(-0.0471802 -0.00512705 2.00004)
(-0.160537 0.0483482 0.885312)
(-0.139689 -0.293067 0.550203)
(-0.021159 -0.331291 1.57011)
(-0.156193 -0.0608801 2.18843)
(-0.145692 -0.176343 2.46522)
(0.00864491 0.27488 1.19976)
(-0.149834 0.00311108 0.841773)
(-0.129684 -0.185587 0.688288)
(0.16386 -0.342255 1.6394)
(-0.256155 -0.338817 2.23682)
(-0.0177449 -0.484622 3.35382)
(0.0679555 0.0992433 0.696429)
(0.18 -0.00771747 0.593999)
(0.43885 -0.106615 1.12093)
(0.403442 -0.269041 1.36213)
(0.209676 -0.487044 1.92749)
(0.131341 0.0667089 0.421425)
(0.338727 -0.107864 0.565695)
(0.371832 -0.175354 0.954667)
(-0.117378 -0.031448 1.50324)
(-0.276174 0.23206 1.31342)
(-0.331654 -0.140556 1.02803)
(-0.232968 -0.20614 1.36056)
(-0.0620957 -0.0149549 2.0486)
(-0.127856 0.14198 0.925097)
(-0.126575 -0.225498 0.439951)
(0.0147927 -0.366495 1.55759)
(-0.170383 -0.0331789 2.25216)
(-0.132341 -0.178838 2.52752)
(0.0138214 0.284563 1.24063)
(-0.0394429 0.121957 0.971047)
(-0.151355 -0.0591432 0.52994)
(0.168435 -0.314254 1.62336)
(-0.286316 -0.2944 2.32102)
(-0.0210913 -0.481295 3.34969)
(0.136444 0.200911 0.784139)
(0.261435 0.0413843 0.457131)
(0.404922 -0.0444966 0.994755)
(0.376817 -0.263972 1.44849)
(0.244919 -0.499168 1.65198)
(0.257886 0.0885606 0.306253)
(0.374334 -0.100378 0.50815)
(0.440005 -0.187838 1.02317)
(-0.263865 -0.0413783 1.53808)
(-0.324347 0.280517 1.40344)
(-0.412665 -0.108853 1.16871)
(-0.233811 -0.34912 1.43572)
(-0.0511461 -0.00337068 2.09434)
(-0.0890502 0.209324 0.980008)
(-0.0721246 -0.176528 0.359156)
(0.0216499 -0.457352 1.50863)
(-0.165159 -0.0122623 2.31072)
(-0.131716 -0.175454 2.59657)
(0.0168227 0.272088 1.22555)
(0.0526757 0.1874 1.01429)
(-0.112435 -0.0124816 0.428185)
(0.18434 -0.221259 1.56209)
(-0.295506 -0.215125 2.40578)
(-0.0270935 -0.461529 3.33956)
(0.178075 0.267262 0.793482)
(0.301128 0.0957562 0.383169)
(0.383848 0.0460964 0.929015)
(0.332666 -0.240625 1.54943)
(0.301354 -0.477371 1.58371)
(0.344094 0.110594 0.235875)
(0.403488 -0.0945644 0.488758)
(0.47461 -0.215126 1.02238)
(-0.35044 -0.0826195 1.60404)
(-0.368225 0.322068 1.49153)
(-0.437541 -0.0853055 1.27692)
(-0.231275 -0.467003 1.45991)
(-0.019481 0.0182293 2.14949)
(-0.0671741 0.249224 1.07008)
(-0.00901713 -0.113342 0.31549)
(0.0510385 -0.52581 1.41634)
(-0.142113 0.00411817 2.34132)
(-0.132954 -0.162274 2.67026)
(0.0250036 0.236331 1.11447)
(0.0754595 0.213239 0.973443)
(-0.0517069 -0.00239517 0.357658)
(0.213973 -0.105576 1.41366)
(-0.279815 -0.0904833 2.49131)
(-0.0302898 -0.413214 3.32113)
(0.207743 0.329131 0.724695)
(0.327183 0.141725 0.345119)
(0.374135 0.0988556 0.92227)
(0.278041 -0.177609 1.66242)
(0.32012 -0.464472 1.63714)
(0.392305 0.115309 0.210468)
(0.433437 -0.0704236 0.509219)
(0.489016 -0.225039 1.00742)
(-0.339003 -0.107818 1.75878)
(-0.390671 0.340882 1.58138)
(-0.418133 -0.0809651 1.34413)
(-0.222888 -0.500742 1.45919)
(0.00538331 0.0355771 2.20471)
(-0.0591213 0.273017 1.17544)
(0.0424455 -0.0414593 0.294242)
(0.095891 -0.493495 1.29823)
(-0.0991219 1.48134e-05 2.34615)
(-0.132335 -0.143726 2.73812)
(0.0249559 0.251736 0.984408)
(0.0544064 0.267234 0.868147)
(0.0143097 0.00571006 0.309278)
(0.244369 -0.0338363 1.28761)
(-0.229573 0.0482504 2.55766)
(-0.0338265 -0.337669 3.31443)
(0.252177 0.385994 0.610323)
(0.342288 0.158449 0.328193)
(0.363785 0.114013 0.960138)
(0.194488 -0.0505579 1.81848)
(0.300491 -0.406918 1.7647)
(0.391184 0.10181 0.224041)
(0.440285 -0.0311845 0.57298)
(0.479151 -0.219888 1.00917)
(-0.294826 -0.108536 1.9027)
(-0.394221 0.348637 1.66885)
(-0.386443 -0.0646982 1.37508)
(-0.21913 -0.490485 1.45652)
(0.0196493 0.0218928 2.25049)
(-0.0675359 0.302661 1.25348)
(0.08168 0.0285028 0.281361)
(0.121646 -0.400196 1.15714)
(-0.053935 -0.0527679 2.33492)
(-0.14037 -0.0955999 2.81102)
(0.0258449 0.281983 0.878291)
(0.0709447 0.340864 0.715865)
(0.0726146 0.0215491 0.279402)
(0.286842 0.0322076 1.17114)
(-0.181497 0.146295 2.59343)
(-0.0337723 -0.244355 3.3221)
(0.295496 0.416756 0.507162)
(0.339996 0.149493 0.328824)
(0.34973 0.173943 1.03972)
(0.122361 0.0673456 1.985)
(0.254789 -0.33586 1.91575)
(0.337272 0.0651939 0.268332)
(0.421542 0.0194761 0.67276)
(0.447349 -0.195969 1.09888)
(-0.279888 -0.101043 2.04238)
(-0.370576 0.313563 1.74648)
(-0.339208 0.0077076 1.39038)
(-0.242849 -0.417349 1.41884)
(-0.00951724 -0.0119829 2.29845)
(-0.0936826 0.346249 1.25574)
(0.102085 0.0908092 0.278351)
(0.124628 -0.255356 1.02314)
(-0.0408926 -0.13061 2.31253)
(-0.143028 -0.021021 2.88987)
(0.025649 0.346272 0.766158)
(0.102715 0.392321 0.573961)
(0.115693 0.0389881 0.264392)
(0.327804 0.0867216 1.0583)
(-0.161745 0.182198 2.59296)
(-0.0365628 -0.150286 3.32779)
(0.321234 0.414663 0.435389)
(0.304047 0.116578 0.351001)
(0.331457 0.258215 1.15836)
(0.07454 0.15638 2.15056)
(0.205349 -0.254345 2.09799)
(0.234929 0.00972331 0.307036)
(0.335588 0.110604 0.841481)
(0.350736 -0.148072 1.22577)
(-0.247802 -0.0750316 2.11046)
(-0.316823 0.297513 1.80556)
(-0.209439 0.0919019 1.37255)
(-0.122302 -0.264053 1.33316)
(-0.0475838 -0.0465963 2.31954)
(-0.11666 0.426221 1.15769)
(0.106628 0.127704 0.289597)
(0.114399 -0.0831502 0.943455)
(-0.0363563 -0.186748 2.28359)
(-0.135283 0.0614301 2.93559)
(0.02507 0.452374 0.653129)
(0.12681 0.396893 0.471684)
(0.139748 0.0468724 0.262775)
(0.342125 0.135981 0.988771)
(-0.140258 0.180544 2.57242)
(-0.0433401 -0.0674162 3.30208)
(0.330856 0.370713 0.390701)
(0.233126 0.0691277 0.38512)
(0.310272 0.288749 1.25489)
(0.0357319 0.222995 2.2886)
(0.183262 -0.190067 2.28769)
(0.108642 -0.0415109 0.327717)
(0.217568 0.239646 1.07682)
(0.266733 -0.0964426 1.35759)
(-0.200077 -0.0621255 2.12747)
(-0.270441 0.303299 1.77537)
(-0.142118 0.137152 1.2401)
(-0.031381 -0.184479 1.27243)
(-0.131526 -0.0834617 2.32893)
(-0.0859853 0.447275 0.984578)
(0.103947 0.131093 0.30906)
(0.0965792 0.0513432 0.932086)
(-0.00994905 -0.202507 2.23611)
(-0.111202 0.128039 2.93698)
(0.0288916 0.546215 0.570204)
(0.133465 0.346309 0.423147)
(0.146222 0.0377097 0.270832)
(0.329281 0.164251 0.963511)
(-0.0798157 0.16558 2.52656)
(-0.0445643 0.0433164 3.2527)
(0.321043 0.288564 0.368524)
(0.146199 0.0110104 0.415632)
(0.289761 0.261984 1.331)
(0.0200453 0.253912 2.38497)
(0.18001 -0.148713 2.51392)
(-0.014226 -0.0715851 0.355126)
(0.171532 0.27967 1.26982)
(0.216349 -0.0649252 1.5275)
(-0.129775 -0.0238862 2.13021)
(-0.230273 0.273152 1.70053)
(-0.180281 0.110547 1.12555)
(-0.13268 -0.00971882 1.20731)
(-0.14554 -0.133053 2.28241)
(-0.0513515 0.418911 0.795682)
(0.0965515 0.108059 0.332407)
(0.0700274 0.10113 0.970638)
(0.00090368 -0.182183 2.18763)
(-0.0767168 0.16733 2.92236)
(0.0350389 0.579278 0.546196)
(0.131324 0.267799 0.420007)
(0.138851 0.00893116 0.288983)
(0.296977 0.156088 0.966169)
(-0.0477109 0.146164 2.50609)
(-0.0488371 0.119711 3.19809)
(0.282797 0.203969 0.371793)
(0.0622852 -0.0420129 0.430156)
(0.270391 0.203207 1.41615)
(0.0110804 0.251343 2.45419)
(0.148418 -0.0828427 2.82265)
(-0.123923 -0.10369 0.378123)
(0.108304 0.203944 1.39451)
(0.183092 -0.048042 1.65691)
(-0.106607 0.0133818 2.04595)
(-0.159304 0.166108 1.63922)
(-0.176472 0.0968629 1.1257)
(-0.18454 0.119583 1.07281)
(-0.10503 -0.154309 2.19592)
(-0.0778409 0.37109 0.637668)
(0.0852601 0.0709969 0.35672)
(-0.00921416 0.0651472 1.03799)
(-0.0176997 -0.109652 2.14868)
(-0.0456872 0.188355 2.89162)
(0.039306 0.573836 0.572863)
(0.136626 0.187785 0.444613)
(0.120905 -0.029151 0.316441)
(0.159154 0.0774705 0.996192)
(-0.0539611 0.125663 2.50391)
(-0.0699507 0.114122 3.11758)
(0.230101 0.141295 0.397155)
(-0.0168213 -0.0586771 0.443296)
(0.215361 0.148019 1.52582)
(-0.0115496 0.221915 2.51366)
(0.0507315 0.0431787 3.1938)
(-0.194901 -0.122213 0.385699)
(0.042786 0.00658041 1.43251)
(0.181987 -0.0532468 1.68691)
(-0.135055 -0.0129357 2.03884)
(-0.130099 0.174564 1.52979)
(-0.0365632 0.174181 1.20468)
(-0.0747082 0.0327326 0.964664)
(-0.021094 -0.146872 2.17575)
(-0.138736 0.295394 0.557395)
(0.0632663 0.0296585 0.401829)
(-0.127984 -0.0256901 1.08207)
(-0.0163764 0.0597021 2.05341)
(-0.0243689 0.202501 2.8358)
(0.0444435 0.55283 0.620103)
(0.14137 0.117894 0.484347)
(0.0867081 -0.069322 0.364902)
(-0.0104277 -0.0222375 1.00691)
(-0.0764142 0.121087 2.49191)
(-0.0898289 0.100209 3.02936)
(0.177853 0.0947621 0.437483)
(-0.0938419 -0.048186 0.475471)
(0.0983057 0.111442 1.61986)
(-0.11546 0.152471 2.59537)
(-0.0762104 0.178955 3.43652)
(-0.213763 -0.108643 0.408319)
(0.03411 -0.0722181 1.30119)
(0.175241 -0.0774167 1.64386)
(-0.116166 -0.0330286 2.11008)
(-0.0678495 0.194568 1.27231)
(0.0850962 0.24328 1.19866)
(0.0897538 -0.024594 0.978763)
(0.0363176 -0.0955355 2.09566)
(-0.186791 0.218082 0.537655)
(0.0288392 -0.0174453 0.465015)
(-0.175247 -0.094081 1.07345)
(0.0161338 0.170342 1.9567)
(0.00264915 0.212848 2.7671)
(0.0430736 0.509492 0.677501)
(0.134585 0.0524689 0.539903)
(0.0515112 -0.115029 0.418502)
(-0.11152 -0.0951966 0.993071)
(-0.120008 0.137188 2.50444)
(-0.0891839 0.123963 2.97973)
(0.129707 0.0559067 0.488094)
(-0.167139 -0.0435668 0.523208)
(-0.0516122 0.100392 1.63659)
(-0.210027 0.118197 2.64608)
(-0.142198 0.221435 3.41575)
(-0.210729 -0.0750627 0.457461)
(-0.0588104 0.00392382 1.03154)
(0.203765 -0.081584 1.61464)
(-0.0600212 -0.0125007 2.10617)
(-0.124718 0.164112 1.03939)
(0.136419 0.243836 1.12195)
(0.226789 0.0302446 1.0817)
(0.102875 -0.00290125 1.94529)
(-0.208897 0.145368 0.567884)
(-0.018184 -0.0717944 0.534322)
(-0.191224 -0.1322 1.0596)
(0.0243096 0.1947 1.89219)
(0.0233552 0.214539 2.70165)
(0.0387944 0.448769 0.743968)
(0.124371 0.000399348 0.606063)
(0.0234726 -0.150844 0.463376)
(-0.175556 -0.149067 0.976805)
(-0.160831 0.13984 2.52265)
(-0.0850559 0.207184 2.98653)
(0.0845425 0.0215204 0.551822)
(-0.226118 -0.0564114 0.572739)
(-0.195267 0.108174 1.56511)
(-0.24665 0.136636 2.6756)
(-0.181824 0.218986 3.16631)
(-0.205283 -0.0560483 0.519496)
(-0.133201 0.0621257 0.851408)
(0.228833 -0.0368424 1.66953)
(-0.0242384 -0.0303374 1.99492)
(-0.17211 0.143813 0.936619)
(0.126796 0.185702 1.03723)
(0.29859 0.0841199 1.17885)
(0.163407 0.151901 1.84565)
(-0.218929 0.0716705 0.635187)
(-0.0741404 -0.119415 0.601136)
(-0.22687 -0.150457 1.06194)
(0.00611309 0.173714 1.85767)
(0.0294042 0.209755 2.60235)
(0.0327264 0.375058 0.81504)
(0.1161 -0.037931 0.678169)
(-0.00598685 -0.160902 0.505446)
(-0.241073 -0.18063 0.954785)
(-0.173821 0.120773 2.51522)
(-0.0893648 0.305681 2.96316)
(0.043384 -0.00643027 0.623728)
(-0.256442 -0.0819227 0.628952)
(-0.331977 0.111422 1.44085)
(-0.249807 0.145091 2.65784)
(-0.156049 0.250859 3.01334)
(-0.223231 -0.0398521 0.588111)
(-0.209896 0.0903658 0.770029)
(0.11743 0.0693801 1.90115)
(0.0504945 -0.0541302 1.92604)
(-0.150685 0.123037 0.912892)
(-0.0253506 0.0394029 0.950709)
(0.281531 0.0680058 1.24064)
(0.19741 0.265627 1.83986)
(-0.220315 0.0111751 0.718005)
(-0.140555 -0.144667 0.668879)
(-0.32059 -0.17528 1.0981)
(-0.0290472 0.0854762 1.87101)
(-0.00283949 0.243545 2.45745)
(0.0285171 0.297381 0.883861)
(0.104948 -0.0616003 0.749929)
(-0.0466416 -0.142153 0.554473)
(-0.320109 -0.181612 0.930581)
(-0.194338 0.0425239 2.49269)
(-0.103839 0.353615 2.88376)
(0.0190247 -0.0208044 0.703719)
(-0.258458 -0.107232 0.697437)
(-0.446827 0.0914471 1.297)
(-0.28433 0.12987 2.5747)
(-0.180162 0.326262 2.90217)
(-0.26204 -0.0295638 0.671346)
(-0.318595 0.115445 0.757618)
(-0.0619162 0.16146 2.15717)
(0.186135 -0.00458974 1.87961)
(-0.149802 0.116537 0.93635)