/*--------------------------------*- C++ -*----------------------------------*\
| =========                 |                                                 |
| \\      /  F ield         | OpenFOAM: The Open Source CFD Toolbox           |
|  \\    /   O peration     | Version:  5.x                                   |
|   \\  /    A nd           | Web:      www.OpenFOAM.org                      |
|    \\/     M anipulation  |                                                 |
\*---------------------------------------------------------------------------*/
FoamFile
{
    version     2.0;
    format      ascii;
    class       volVectorField;
    location    "5";
    object      Us;
}
// * * * * * * * * * * * * * * * * * * * * * * * * * * * * * * * * * * * * * //

dimensions      [0 1 -1 0 0 0 0];

internalField   nonuniform List<vector> 
10571
(
(0.0169071 0.0400564 -0.0898006)
(0.0250261 0.0387284 -0.124562)
(0.114123 0.218218 -0.0624838)
(-0.045576 0.214799 -0.0121271)
(-0.014233 0.0452226 -0.0624352)
(0.180785 0.180905 -0.0853115)
(0.168819 0.34141 0.0956685)
(-0.129878 0.245115 0.114133)
(-0.0630612 0.0704839 -0.0681897)
(0.0716547 0.088775 -0.00589574)
(0.0278127 0.0803526 -0.1807)
(0.201879 0.127931 -0.00718892)
(-0.0211629 0.206681 0.0833747)
(-0.116379 0.132122 -0.00208559)
(0.0148578 0.183179 -0.0290811)
(0.0598459 0.267427 0.0644262)
(0.169693 0.169681 0.0231977)
(0.0994334 0.209834 0.1282)
(-0.0408521 0.196352 0.107836)
(0.060366 0.316037 0.106934)
(-0.121605 0.212513 0.10708)
(-0.0164087 -0.0247471 0.0368376)
(0.045866 0.00183459 0.00646958)
(0.0099517 0.0260887 0.0255979)
(0.0631929 0.0268854 -0.231693)
(0.0443214 0.0202365 -0.347602)
(0.10651 0.196823 -0.150842)
(-0.0715945 0.179076 -0.0391445)
(-0.0333284 0.0824841 -0.146002)
(0.12172 0.129556 -0.227115)
(-0.0531739 0.124133 0.364013)
(-0.0191542 0.0196956 0.112788)
(-0.0298129 0.0705267 -0.0848114)
(-0.0122465 0.0351352 -0.0607523)
(0.0173233 0.0724037 -0.293215)
(-0.027106 0.169188 0.0479428)
(0.0401639 0.239615 0.339541)
(0.127747 0.00301862 -0.124885)
(-0.0728751 0.130518 0.193225)
(-0.120558 0.128234 0.011379)
(0.0523992 0.0220266 0.0689981)
(0.0431165 0.158042 0.268806)
(0.0927439 0.0346855 0.0947158)
(-0.034416 0.17132 0.329464)
(-0.119271 0.199426 0.257701)
(0.080059 0.0268916 0.0803548)
(0.0232056 0.0038066 0.0281576)
(-0.0549416 0.0482217 0.240515)
(0.102011 0.0242422 -0.452099)
(0.0310333 0.00719335 -0.516585)
(0.0587257 0.0540552 -0.366899)
(0.0542709 0.0428909 0.0366172)
(-0.0205458 0.102671 -0.2586)
(-0.00150792 0.0661334 -0.42564)
(0.00535938 0.136996 0.423731)
(-0.00893387 0.117699 0.387825)
(0.008423 -0.0741732 -0.231414)
(-0.0324269 -0.00218014 -0.170343)
(0.00748771 0.0184423 -0.68093)
(-0.0872802 0.0404961 -0.182006)
(0.0292015 0.175747 0.378664)
(0.0383841 -0.0109866 -0.174436)
(0.0549021 -0.0551513 -0.301568)
(-0.0249017 -0.0687739 -0.433341)
(-0.0471767 0.051463 -0.127565)
(0.0550439 0.178653 0.304794)
(-0.0235719 -0.0224512 -0.294856)
(-0.188772 0.124077 0.410486)
(-0.101309 0.111053 0.233207)
(0.18469 0.0600362 -0.201174)
(0.00731628 -0.0687891 -0.230156)
(-0.0894332 0.0656519 0.408515)
(0.0867623 -0.00783625 -0.611185)
(0.0196699 -0.0348349 -0.635279)
(0.00991634 -0.0461712 -0.509356)
(0.186698 0.00519042 -0.318003)
(0.134674 0.0578691 -0.513152)
(-0.0224551 0.00569126 -0.516007)
(0.0217292 0.166513 0.387928)
(0.0548321 0.147305 0.45352)
(0.0826442 -0.144318 -0.394827)
(0.00123062 0.0256549 -0.401261)
(0.000601987 -0.0126845 -0.697441)
(-0.0022623 -0.0521425 -0.251552)
(0.0468713 0.143479 0.345272)
(0.082638 0.0589021 0.0209128)
(0.076624 -0.0561546 -0.369627)
(-0.0210729 -0.0823897 -0.375781)
(0.0376684 0.0372483 -0.626426)
(0.0814003 -0.0174187 -0.297255)
(-0.0341429 -0.0461806 -0.506594)
(0.0691653 -0.0708041 -0.505037)
(0 0 0)
(0.0836644 0.0323247 -0.638828)
(0.0252556 -0.0113139 -0.570054)
(0.121597 -0.0547915 -0.0537009)
(0.0823598 0.017145 -0.546139)
(0.0469687 -0.0564749 -0.664635)
(0.0416929 -0.0804771 -0.619001)
(0.110331 -0.0749763 -0.550897)
(0.176341 0.00274588 -0.446544)
(-0.0303309 -0.0223127 -0.444173)
(0.0227149 0.0666914 0.0955566)
(0.116182 0.0863374 0.27148)
(0.181063 -0.0628359 -0.351628)
(0.0865947 0.0987519 -0.326763)
(-0.00276008 -0.0211971 -0.6731)
(0.0264838 -0.0590897 -0.257601)
(0.0612208 0.0157038 -0.109944)
(0.0817026 0.0289982 -0.319232)
(0.0972086 -0.0674409 -0.411989)
(0.0528788 -0.0908518 -0.34673)
(0.0325935 0.031771 -0.586638)
(0.128297 0.00296727 -0.215888)
(-0.0138757 -0.0406666 -0.434782)
(0.0350812 -0.0109227 -0.433596)
(0.127145 -0.0292781 0.110153)
(0.0727419 0.0301943 -0.586038)
(0.0210739 -0.00496446 -0.504494)
(0.0867828 -0.0523301 -0.222509)
(0.0755204 -0.0164418 -0.923311)
(0.0556609 -0.0664483 -0.618984)
(0.0325679 -0.124983 -0.604227)
(0.092061 -0.156453 -0.573946)
(0.120913 0.0163459 -0.400524)
(-0.0175223 -0.0563651 -0.395434)
(0.00470833 -0.023885 -0.35632)
(0.115805 -0.0508231 -0.344742)
(0.196998 -0.058593 -0.368698)
(0.12979 -0.00179495 -0.306843)
(0.00174186 0.000208259 -0.00182178)
(-0.00060004 -0.0280364 -0.63675)
(0.00723691 -0.0500914 -0.217532)
(0.0469457 0.00203808 -0.213554)
(0.0889636 0.012859 -0.367543)
(0.0713081 -0.103376 -0.377371)
(0.124217 -0.113166 -0.351038)
(-0.00223895 0.000593047 -0.00103422)
(0.0263401 0.0272239 -0.541383)
(0.123148 0.019277 -0.212984)
(0.0411644 -0.00809614 -0.383188)
(0.0678772 -0.00203826 -0.230892)
(0 0 0)
(0.0792017 0.027988 -0.526746)
(0.0865352 -0.0138584 -0.495724)
(0.0883319 -0.0722405 -0.305468)
(0.0936357 0.0128497 -0.855455)
(0.0542694 -0.0808059 -0.547753)
(0.0370708 -0.137171 -0.567968)
(0.172924 -0.117004 -0.569602)
(0.212701 -0.0702844 -0.505682)
(-0.00128172 -0.0785969 -0.368239)
(0.0335034 -0.0795107 -0.434117)
(0.119859 -0.0813374 -0.430767)
(0.187957 -0.083128 -0.42628)
(0.25326 -0.0816899 -0.394269)
(0.229573 -0.0533737 -0.353013)
(-0.00191692 -0.0270942 -0.579729)
(-0.0018509 -0.0423826 -0.161542)
(0.0592517 -0.00283401 -0.195355)
(0.112886 -0.00723754 -0.369932)
(0.0579013 -0.105359 -0.289723)
(0.0899168 -0.169702 -0.258682)
(0.173119 -0.182676 -0.281854)
(0.0241922 0.0262682 -0.482657)
(0.100837 0.00968366 -0.250641)
(0.0428143 -0.0278864 -0.325608)
(0.0467614 -0.0310166 -0.173219)
(0 0 0)
(0 0 0)
(0.0792267 -0.0131225 -0.471026)
(0.102411 -0.0429665 -0.464611)
(0.0843553 -0.0606959 -0.357469)
(0.081531 0.010624 -0.809972)
(0.00845332 -0.115546 -0.522722)
(0.0388196 -0.136339 -0.524716)
(0 0 0)
(0 0 0)
(-0.0242846 -0.0647484 -0.289122)
(0.0699507 -0.0829575 -0.455512)
(0.14006 -0.0669287 -0.440733)
(0.211912 -0.0647753 -0.449329)
(0.196095 -0.00507183 -0.229195)
(0 0 0)
(-0.00291384 -0.0185452 -0.503314)
(-0.0117167 -0.0348765 -0.151664)
(0.0663396 -0.00982529 -0.21266)
(0.142767 -0.0092807 -0.364915)
(0.0793172 -0.133598 -0.222311)
(0.0685157 -0.18641 -0.139741)
(0.180062 -0.201146 -0.13099)
(0.0337132 0.0182153 -0.435736)
(0.104099 -0.0207966 -0.212352)
(0.0749934 -0.0114071 -0.274813)
(0.0174031 -0.0873898 -0.144531)
(0.265458 0.0331034 -0.163745)
(0 0 0)
(0.0806766 -0.00273391 -0.401605)
(0.11439 6.34358e-05 -0.37049)
(0.102875 -0.0496507 -0.325556)
(0.0800407 0.0126296 -0.762021)
(0 0 0)
(0.0420416 -0.141214 -0.490875)
(0 0 0)
(0 0 0)
(-0.0271763 -0.0786263 -0.333231)
(0.0781353 -0.0817815 -0.409858)
(0.130747 -0.0674965 -0.404803)
(0.232138 -0.0799027 -0.418885)
(0 0 0)
(0 0 0)
(-0.0127347 -0.0131437 -0.39521)
(-0.00685907 -0.0503244 -0.215483)
(0.094878 0.00219351 -0.263818)
(0.159108 -0.000449652 -0.331149)
(0.0672286 -0.165456 -0.0499384)
(0.0778906 -0.204025 0.0177417)
(0.157305 -0.221521 0.00412195)
(-0.0104735 0.0314865 -0.311605)
(0.0992308 0.012412 -0.161021)
(0.148895 0.029543 -0.250301)
(0.0686062 -0.0967656 -0.144644)
(0.0945611 -0.163546 0.0940598)
(0.0694159 0.0213068 -0.316623)
(0.145102 0.000551442 -0.324092)
(0.0854073 -0.0770386 -0.266075)
(0.0898991 0.0312511 -0.72003)
(0.0145235 -0.0775921 -0.865493)
(0.0691232 -0.0375649 -0.862106)
(9.55946e-15 4.04412e-15 -8.4695e-14)
(0 0 0)
(-0.0378109 -0.0895091 -0.345453)
(0.0732908 -0.0761667 -0.359219)
(0.144965 -0.0636154 -0.3622)
(0 0 0)
(0 0 0)
(-1.47389e-14 -8.02383e-15 -3.78871e-14)
(-0.0068961 -0.0237023 -0.189705)
(0.086702 -0.00772039 -0.225162)
(0.15459 -0.00229858 -0.287385)
(0.09531 -0.0997706 0.0374199)
(0.0612636 -0.205217 0.156465)
(-0.0389354 0.0434049 -0.253086)
(0.093316 0.0684561 -0.13201)
(0.152769 0.0519645 -0.21185)
(0.224778 0.0231857 -0.299913)
(0.122104 -0.247798 0.0882107)
(0.058724 0.0534996 -0.238881)
(0.155847 0.0706558 -0.25058)
(0.234815 0.0291381 -0.256806)
(0 0 0)
(3.11079e-15 -4.91847e-15 -9.09674e-14)
(0.0534057 -0.00553942 -0.778716)
(0 0 0)
(0 0 0)
(0 0 0)
(0.0716556 -0.0668213 -0.266925)
(0 0 0)
(0 0 0)
(0 0 0)
(0 0 0)
(-0.0451452 -0.00925407 -0.206402)
(0.0697465 0.00656413 -0.17575)
(0.155536 -0.0124298 -0.239343)
(0 0 0)
(0.162983 -0.271688 0.289581)
(-0.0601003 0.0621846 -0.21708)
(0.079201 0.072188 -0.110062)
(0.15252 0.067705 -0.151335)
(0 0 0)
(0.0681049 -0.143015 0.314028)
(0.0632726 0.119554 -0.186375)
(0.151196 0.111529 -0.178305)
(0 0 0)
(0.0740588 0.0104461 -0.649681)
(0.0402603 -0.0657848 -0.805815)
(0.0735929 -0.00526711 -0.780296)
(0 0 0)
(0 0 0)
(0 0 0)
(0 0 0)
(0 0 0)
(0 0 0)
(0 0 0)
(0 0 0)
(0 0 0)
(0.0749301 -0.0043685 -0.289166)
(0 0 0)
(0 0 0)
(0 0 0)
(0 0 0)
(0 0 0)
(0 0 0)
(0 0 0)
(0.042561 -0.158137 0.374623)
(0 0 0)
(0 0 0)
(0 0 0)
(0.0882119 0.0171077 -0.591206)
(0.0170103 -0.0427964 -0.796157)
(0.0762415 0.00363116 -0.770222)
(0 0 0)
(0 0 0)
(0 0 0)
(0 0 0)
(0 0 0)
(0 0 0)
(0 0 0)
(0 0 0)
(0.0100692 -0.0445365 -0.704819)
(0 0 0)
(0 0 0)
(0 0 0)
(0 0 0)
(0 0 0)
(0 0 0)
(0 0 0)
(0 0 0)
(0 0 0)
(0 0 0)
(0 0 0)
(0 0 0)
(0 0 0)
(0 0 0)
(0.108592 -0.0637315 -0.740264)
(0 0 0)
(0 0 0)
(0 0 0)
(0 0 0)
(0 0 0)
(0 0 0)
(0 0 0)
(0 0 0)
(0 0 0)
(0 0 0)
(0 0 0)
(0 0 0)
(0 0 0)
(0 0 0)
(0 0 0)
(0 0 0)
(0 0 0)
(0 0 0)
(0 0 0)
(0 0 0)
(0 0 0)
(9.8514e-15 1.00521e-16 -6.08697e-14)
(0 0 0)
(0 0 0)
(0 0 0)
(0 0 0)
(0 0 0)
(0 0 0)
(0 0 0)
(0 0 0)
(0 0 0)
(0 0 0)
(0.0317102 -0.0427007 -0.660992)
(0 0 0)
(0 0 0)
(0 0 0)
(0 0 0)
(0 0 0)
(0 0 0)
(0 0 0)
(0 0 0)
(0 0 0)
(0 0 0)
(0 0 0)
(0 0 0)
(0 0 0)
(0 0 0)
(0 0 0)
(0 0 0)
(0 0 0)
(0 0 0)
(0 0 0)
(0 0 0)
(0 0 0)
(0 0 0)
(0 0 0)
(0 0 0)
(0 0 0)
(0 0 0)
(0 0 0)
(0 0 0)
(0 0 0)
(0 0 0)
(0 0 0)
(0 0 0)
(0 0 0)
(0 0 0)
(0 0 0)
(0 0 0)
(0 0 0)
(0 0 0)
(0 0 0)
(0 0 0)
(0 0 0)
(0 0 0)
(0 0 0)
(0 0 0)
(0 0 0)
(0 0 0)
(0 0 0)
(0 0 0)
(0 0 0)
(0 0 0)
(0 0 0)
(0 0 0)
(0 0 0)
(0 0 0)
(0 0 0)
(0 0 0)
(0 0 0)
(0 0 0)
(0 0 0)
(0 0 0)
(0 0 0)
(0 0 0)
(0 0 0)
(0 0 0)
(0 0 0)
(0 0 0)
(0 0 0)
(0 0 0)
(0 0 0)
(0 0 0)
(0 0 0)
(0 0 0)
(0 0 0)
(0 0 0)
(0 0 0)
(0 0 0)
(0 0 0)
(0 0 0)
(0 0 0)
(0 0 0)
(0 0 0)
(0 0 0)
(0 0 0)
(0 0 0)
(0 0 0)
(0 0 0)
(0 0 0)
(0 0 0)
(0 0 0)
(0 0 0)
(0 0 0)
(0 0 0)
(0 0 0)
(0 0 0)
(0 0 0)
(0 0 0)
(0 0 0)
(0 0 0)
(0 0 0)
(0 0 0)
(0 0 0)
(0 0 0)
(0 0 0)
(0 0 0)
(0 0 0)
(0 0 0)
(0 0 0)
(0 0 0)
(0 0 0)
(0 0 0)
(0 0 0)
(0 0 0)
(0 0 0)
(0 0 0)
(0 0 0)
(0 0 0)
(0 0 0)
(0 0 0)
(0 0 0)
(0 0 0)
(0 0 0)
(0 0 0)
(0 0 0)
(0 0 0)
(0 0 0)
(0 0 0)
(0 0 0)
(0 0 0)
(0 0 0)
(0 0 0)
(0 0 0)
(0 0 0)
(0 0 0)
(0 0 0)
(0 0 0)
(0 0 0)
(0 0 0)
(0 0 0)
(0 0 0)
(0 0 0)
(0 0 0)
(0 0 0)
(0 0 0)
(0 0 0)
(0 0 0)
(0 0 0)
(0 0 0)
(0 0 0)
(0 0 0)
(0 0 0)
(0 0 0)
(0 0 0)
(0 0 0)
(0 0 0)
(0 0 0)
(0 0 0)
(0 0 0)
(0 0 0)
(0 0 0)
(0 0 0)
(0 0 0)
(0 0 0)
(0 0 0)
(0 0 0)
(0 0 0)
(0 0 0)
(0 0 0)
(0 0 0)
(0 0 0)
(0 0 0)
(0 0 0)
(0 0 0)
(0 0 0)
(0 0 0)
(0 0 0)
(0 0 0)
(0 0 0)
(0 0 0)
(0 0 0)
(0 0 0)
(0 0 0)
(0 0 0)
(0 0 0)
(0 0 0)
(0 0 0)
(0 0 0)
(0 0 0)
(0 0 0)
(0 0 0)
(0 0 0)
(0 0 0)
(0 0 0)
(0 0 0)
(0 0 0)
(0 0 0)
(0 0 0)
(0 0 0)
(0 0 0)
(0 0 0)
(0 0 0)
(0 0 0)
(0 0 0)
(0 0 0)
(0 0 0)
(0 0 0)
(0 0 0)
(0 0 0)
(0 0 0)
(0 0 0)
(0 0 0)
(0 0 0)
(0 0 0)
(0 0 0)
(0 0 0)
(0 0 0)
(0 0 0)
(0 0 0)
(0 0 0)
(0 0 0)
(0 0 0)
(0 0 0)
(0 0 0)
(0 0 0)
(0 0 0)
(0 0 0)
(0 0 0)
(0 0 0)
(0 0 0)
(0 0 0)
(0 0 0)
(0 0 0)
(0 0 0)
(0 0 0)
(0 0 0)
(0 0 0)
(0 0 0)
(0 0 0)
(0 0 0)
(0 0 0)
(0 0 0)
(0 0 0)
(0 0 0)
(0 0 0)
(0 0 0)
(0 0 0)
(0 0 0)
(0 0 0)
(0 0 0)
(0 0 0)
(0 0 0)
(0 0 0)
(0 0 0)
(0 0 0)
(0 0 0)
(0 0 0)
(0 0 0)
(0 0 0)
(0 0 0)
(0 0 0)
(0 0 0)
(0 0 0)
(0 0 0)
(0 0 0)
(0 0 0)
(0 0 0)
(0 0 0)
(0 0 0)
(0 0 0)
(0 0 0)
(0 0 0)
(0 0 0)
(0 0 0)
(0 0 0)
(0 0 0)
(0 0 0)
(0 0 0)
(0 0 0)
(0 0 0)
(0 0 0)
(0 0 0)
(0 0 0)
(0 0 0)
(0 0 0)
(0 0 0)
(0 0 0)
(0 0 0)
(0 0 0)
(0 0 0)
(0 0 0)
(0 0 0)
(0 0 0)
(0 0 0)
(0 0 0)
(0 0 0)
(0 0 0)
(0 0 0)
(0 0 0)
(0 0 0)
(0 0 0)
(0 0 0)
(0 0 0)
(0 0 0)
(0 0 0)
(0 0 0)
(0 0 0)
(0 0 0)
(0 0 0)
(0 0 0)
(0 0 0)
(0 0 0)
(0 0 0)
(0 0 0)
(0 0 0)
(0 0 0)
(0 0 0)
(0 0 0)
(0 0 0)
(0 0 0)
(0 0 0)
(0 0 0)
(0 0 0)
(0 0 0)
(0 0 0)
(0 0 0)
(0 0 0)
(0 0 0)
(0 0 0)
(0 0 0)
(0 0 0)
(0 0 0)
(0 0 0)
(0 0 0)
(0 0 0)
(0 0 0)
(0 0 0)
(0 0 0)
(0 0 0)
(0 0 0)
(0 0 0)
(0 0 0)
(0 0 0)
(0 0 0)
(0 0 0)
(0 0 0)
(0 0 0)
(0 0 0)
(0 0 0)
(0 0 0)
(0 0 0)
(0 0 0)
(0 0 0)
(0 0 0)
(0 0 0)
(0 0 0)
(0 0 0)
(0 0 0)
(0 0 0)
(0 0 0)
(0 0 0)
(0 0 0)
(0 0 0)
(0 0 0)
(0 0 0)
(0 0 0)
(0 0 0)
(0 0 0)
(0 0 0)
(0 0 0)
(0 0 0)
(0 0 0)
(0 0 0)
(0 0 0)
(0 0 0)
(0 0 0)
(0 0 0)
(0 0 0)
(0 0 0)
(0 0 0)
(0 0 0)
(0 0 0)
(0 0 0)
(0 0 0)
(0 0 0)
(0 0 0)
(0 0 0)
(0 0 0)
(0 0 0)
(0 0 0)
(0 0 0)
(0 0 0)
(0 0 0)
(0 0 0)
(0 0 0)
(0 0 0)
(0 0 0)
(0 0 0)
(0 0 0)
(0 0 0)
(0 0 0)
(0 0 0)
(0 0 0)
(0 0 0)
(0 0 0)
(0 0 0)
(0 0 0)
(0 0 0)
(0 0 0)
(0 0 0)
(0 0 0)
(0 0 0)
(0 0 0)
(0 0 0)
(0 0 0)
(0 0 0)
(0 0 0)
(0 0 0)
(0 0 0)
(0 0 0)
(0 0 0)
(0 0 0)
(0 0 0)
(0 0 0)
(0 0 0)
(0 0 0)
(0 0 0)
(0 0 0)
(0 0 0)
(0 0 0)
(0 0 0)
(0 0 0)
(0 0 0)
(0 0 0)
(0 0 0)
(0 0 0)
(0 0 0)
(0 0 0)
(0 0 0)
(0 0 0)
(0 0 0)
(0 0 0)
(0 0 0)
(0 0 0)
(0 0 0)
(0 0 0)
(0 0 0)
(0 0 0)
(0 0 0)
(0 0 0)
(0 0 0)
(0 0 0)
(0 0 0)
(0 0 0)
(0 0 0)
(0 0 0)
(0 0 0)
(0 0 0)
(0 0 0)
(0 0 0)
(0 0 0)
(0 0 0)
(0 0 0)
(0 0 0)
(0 0 0)
(0 0 0)
(0 0 0)
(0 0 0)
(0 0 0)
(0 0 0)
(0 0 0)
(0 0 0)
(0 0 0)
(0 0 0)
(0 0 0)
(0 0 0)
(0 0 0)
(0 0 0)
(0 0 0)
(0 0 0)
(0 0 0)
(0 0 0)
(0 0 0)
(0 0 0)
(0 0 0)
(0 0 0)
(0 0 0)
(0 0 0)
(0 0 0)
(0 0 0)
(0 0 0)
(0 0 0)
(0 0 0)
(0 0 0)
(0 0 0)
(0 0 0)
(0 0 0)
(0 0 0)
(0 0 0)
(0 0 0)
(0 0 0)
(0 0 0)
(0 0 0)
(0 0 0)
(0 0 0)
(0 0 0)
(0 0 0)
(0 0 0)
(0 0 0)
(0 0 0)
(0 0 0)
(0 0 0)
(0 0 0)
(0 0 0)
(0 0 0)
(0 0 0)
(0 0 0)
(0 0 0)
(0 0 0)
(0 0 0)
(0 0 0)
(0 0 0)
(0 0 0)
(0 0 0)
(0 0 0)
(0 0 0)
(0 0 0)
(0 0 0)
(0 0 0)
(0 0 0)
(0 0 0)
(0 0 0)
(0 0 0)
(0 0 0)
(0 0 0)
(0 0 0)
(0 0 0)
(0 0 0)
(0 0 0)
(0 0 0)
(0 0 0)
(0 0 0)
(0 0 0)
(0 0 0)
(0 0 0)
(0 0 0)
(0 0 0)
(0 0 0)
(0 0 0)
(0 0 0)
(0 0 0)
(0 0 0)
(0 0 0)
(0 0 0)
(0 0 0)
(0 0 0)
(0 0 0)
(0 0 0)
(0 0 0)
(0 0 0)
(0 0 0)
(0 0 0)
(0 0 0)
(0 0 0)
(0 0 0)
(0 0 0)
(0 0 0)
(0 0 0)
(0 0 0)
(0 0 0)
(0 0 0)
(0 0 0)
(0 0 0)
(0 0 0)
(0 0 0)
(0 0 0)
(0 0 0)
(0 0 0)
(0 0 0)
(0 0 0)
(0 0 0)
(0 0 0)
(0 0 0)
(0 0 0)
(0 0 0)
(0 0 0)
(0 0 0)
(0 0 0)
(0 0 0)
(0 0 0)
(0 0 0)
(0 0 0)
(0 0 0)
(0 0 0)
(0 0 0)
(0 0 0)
(0 0 0)
(0 0 0)
(0 0 0)
(0 0 0)
(0 0 0)
(0 0 0)
(0 0 0)
(0 0 0)
(0 0 0)
(0 0 0)
(0 0 0)
(0 0 0)
(0 0 0)
(0 0 0)
(0 0 0)
(0 0 0)
(0 0 0)
(0 0 0)
(0 0 0)
(0 0 0)
(0 0 0)
(0 0 0)
(0 0 0)
(0 0 0)
(0 0 0)
(0 0 0)
(0 0 0)
(0 0 0)
(0 0 0)
(0 0 0)
(0 0 0)
(0 0 0)
(0 0 0)
(0 0 0)
(0 0 0)
(0 0 0)
(0 0 0)
(0 0 0)
(0 0 0)
(0 0 0)
(0 0 0)
(0 0 0)
(0 0 0)
(0 0 0)
(0 0 0)
(0 0 0)
(0 0 0)
(0 0 0)
(0 0 0)
(0 0 0)
(0 0 0)
(0 0 0)
(0 0 0)
(0 0 0)
(0 0 0)
(0 0 0)
(0 0 0)
(0 0 0)
(0 0 0)
(0 0 0)
(0 0 0)
(0 0 0)
(0 0 0)
(0 0 0)
(0 0 0)
(0 0 0)
(0 0 0)
(0 0 0)
(0 0 0)
(0 0 0)
(0 0 0)
(0 0 0)
(0 0 0)
(0 0 0)
(0 0 0)
(0 0 0)
(0 0 0)
(0 0 0)
(0 0 0)
(0 0 0)
(0 0 0)
(0 0 0)
(0 0 0)
(0 0 0)
(0 0 0)
(0 0 0)
(0 0 0)
(0 0 0)
(0 0 0)
(0 0 0)
(0 0 0)
(0 0 0)
(0 0 0)
(0 0 0)
(0 0 0)
(0 0 0)
(0 0 0)
(0 0 0)
(0 0 0)
(0 0 0)
(0 0 0)
(0 0 0)
(0 0 0)
(0 0 0)
(0 0 0)
(0 0 0)
(0 0 0)
(0 0 0)
(0 0 0)
(0 0 0)
(0 0 0)
(0 0 0)
(0 0 0)
(0 0 0)
(0 0 0)
(0 0 0)
(0 0 0)
(0 0 0)
(0 0 0)
(0 0 0)
(0 0 0)
(0 0 0)
(0 0 0)
(0 0 0)
(0 0 0)
(0 0 0)
(0 0 0)
(0 0 0)
(0 0 0)
(0 0 0)
(0 0 0)
(0 0 0)
(0 0 0)
(0 0 0)
(0 0 0)
(0 0 0)
(0 0 0)
(0 0 0)
(0 0 0)
(0 0 0)
(0 0 0)
(0 0 0)
(0 0 0)
(0 0 0)
(0 0 0)
(0 0 0)
(0 0 0)
(0 0 0)
(0 0 0)
(0 0 0)
(0 0 0)
(0 0 0)
(0 0 0)
(0 0 0)
(0 0 0)
(0 0 0)
(0 0 0)
(0 0 0)
(0 0 0)
(0 0 0)
(0 0 0)
(0 0 0)
(0 0 0)
(0 0 0)
(0 0 0)
(0 0 0)
(0 0 0)
(0 0 0)
(0 0 0)
(0 0 0)
(0 0 0)
(0 0 0)
(0 0 0)
(0 0 0)
(0 0 0)
(0 0 0)
(0 0 0)
(0 0 0)
(0 0 0)
(0 0 0)
(0 0 0)
(0 0 0)
(0 0 0)
(0 0 0)
(0 0 0)
(0 0 0)
(0 0 0)
(0 0 0)
(0 0 0)
(0 0 0)
(0 0 0)
(0 0 0)
(0 0 0)
(0 0 0)
(0 0 0)
(0 0 0)
(0 0 0)
(0 0 0)
(0 0 0)
(0 0 0)
(0 0 0)
(0 0 0)
(0 0 0)
(0 0 0)
(0 0 0)
(0 0 0)
(0 0 0)
(0 0 0)
(0 0 0)
(0 0 0)
(0 0 0)
(0 0 0)
(0 0 0)
(0 0 0)
(0 0 0)
(0 0 0)
(0 0 0)
(0 0 0)
(0 0 0)
(0 0 0)
(0 0 0)
(0 0 0)
(0 0 0)
(0 0 0)
(0 0 0)
(0 0 0)
(0 0 0)
(0 0 0)
(0 0 0)
(0 0 0)
(0 0 0)
(0 0 0)
(0 0 0)
(0 0 0)
(0 0 0)
(0 0 0)
(0 0 0)
(0 0 0)
(0 0 0)
(0 0 0)
(0 0 0)
(0 0 0)
(0 0 0)
(0 0 0)
(0 0 0)
(0 0 0)
(0 0 0)
(0 0 0)
(0 0 0)
(0 0 0)
(0 0 0)
(0 0 0)
(0 0 0)
(0 0 0)
(0 0 0)
(0 0 0)
(0 0 0)
(0 0 0)
(0 0 0)
(0 0 0)
(0 0 0)
(0 0 0)
(0 0 0)
(0 0 0)
(0 0 0)
(0 0 0)
(0 0 0)
(0 0 0)
(0 0 0)
(0 0 0)
(0 0 0)
(0 0 0)
(0 0 0)
(0 0 0)
(0 0 0)
(0 0 0)
(0 0 0)
(0 0 0)
(0 0 0)
(0 0 0)
(0 0 0)
(0 0 0)
(0 0 0)
(0 0 0)
(0 0 0)
(0 0 0)
(0 0 0)
(0 0 0)
(0 0 0)
(0 0 0)
(0 0 0)
(0 0 0)
(0 0 0)
(0 0 0)
(0 0 0)
(0 0 0)
(0 0 0)
(0 0 0)
(0 0 0)
(0 0 0)
(0 0 0)
(0 0 0)
(0 0 0)
(0 0 0)
(0 0 0)
(0 0 0)
(0 0 0)
(0 0 0)
(0 0 0)
(0 0 0)
(0 0 0)
(0 0 0)
(0 0 0)
(0 0 0)
(0 0 0)
(0 0 0)
(0 0 0)
(0 0 0)
(0 0 0)
(0 0 0)
(0 0 0)
(0 0 0)
(0 0 0)
(0 0 0)
(0 0 0)
(0 0 0)
(0 0 0)
(0 0 0)
(0 0 0)
(0 0 0)
(0 0 0)
(0 0 0)
(0 0 0)
(0 0 0)
(0 0 0)
(0 0 0)
(0 0 0)
(0 0 0)
(0 0 0)
(0 0 0)
(0 0 0)
(0 0 0)
(0 0 0)
(0 0 0)
(0 0 0)
(0 0 0)
(0 0 0)
(0 0 0)
(0 0 0)
(0 0 0)
(0 0 0)
(0 0 0)
(0 0 0)
(0 0 0)
(0 0 0)
(0 0 0)
(0 0 0)
(0 0 0)
(0 0 0)
(0 0 0)
(0 0 0)
(0 0 0)
(0 0 0)
(0 0 0)
(0 0 0)
(0 0 0)
(0 0 0)
(0 0 0)
(0 0 0)
(0 0 0)
(0 0 0)
(0 0 0)
(0 0 0)
(0 0 0)
(0 0 0)
(0 0 0)
(0 0 0)
(0 0 0)
(0 0 0)
(0 0 0)
(0 0 0)
(0 0 0)
(0 0 0)
(0 0 0)
(0 0 0)
(0 0 0)
(0 0 0)
(0 0 0)
(0 0 0)
(0 0 0)
(0 0 0)
(0 0 0)
(0 0 0)
(0 0 0)
(0 0 0)
(0 0 0)
(0 0 0)
(0 0 0)
(0 0 0)
(0 0 0)
(0 0 0)
(0 0 0)
(0 0 0)
(0 0 0)
(0 0 0)
(0 0 0)
(0 0 0)
(0 0 0)
(0 0 0)
(0 0 0)
(0 0 0)
(0 0 0)
(0 0 0)
(0 0 0)
(0 0 0)
(0 0 0)
(0 0 0)
(0 0 0)
(0 0 0)
(0 0 0)
(0 0 0)
(0 0 0)
(0 0 0)
(0 0 0)
(0 0 0)
(0 0 0)
(0 0 0)
(0 0 0)
(0 0 0)
(0 0 0)
(0 0 0)
(0 0 0)
(0 0 0)
(0 0 0)
(0 0 0)
(0 0 0)
(0 0 0)
(0 0 0)
(0 0 0)
(0 0 0)
(0 0 0)
(0 0 0)
(0 0 0)
(0 0 0)
(0 0 0)
(0 0 0)
(0 0 0)
(0 0 0)
(0 0 0)
(0 0 0)
(0 0 0)
(0 0 0)
(0 0 0)
(0 0 0)
(0 0 0)
(0 0 0)
(0 0 0)
(0 0 0)
(0 0 0)
(0 0 0)
(0 0 0)
(0 0 0)
(0 0 0)
(0 0 0)
(0 0 0)
(0 0 0)
(0 0 0)
(0 0 0)
(0 0 0)
(0 0 0)
(0 0 0)
(0 0 0)
(0 0 0)
(0 0 0)
(0 0 0)
(0 0 0)
(0 0 0)
(0 0 0)
(0 0 0)
(0 0 0)
(0 0 0)
(0 0 0)
(0 0 0)
(0 0 0)
(0 0 0)
(0 0 0)
(0 0 0)
(0 0 0)
(0 0 0)
(0 0 0)
(0 0 0)
(0 0 0)
(0 0 0)
(0 0 0)
(0 0 0)
(0 0 0)
(0 0 0)
(0 0 0)
(0 0 0)
(0 0 0)
(0 0 0)
(0 0 0)
(0 0 0)
(0 0 0)
(0 0 0)
(0 0 0)
(0 0 0)
(0 0 0)
(0 0 0)
(0 0 0)
(0 0 0)
(0 0 0)
(0 0 0)
(0 0 0)
(0 0 0)
(0 0 0)
(0 0 0)
(0 0 0)
(0 0 0)
(0 0 0)
(0 0 0)
(0 0 0)
(0 0 0)
(0 0 0)
(0 0 0)
(0 0 0)
(0 0 0)
(0 0 0)
(0 0 0)
(0 0 0)
(0 0 0)
(0 0 0)
(0 0 0)
(0 0 0)
(0 0 0)
(0 0 0)
(0 0 0)
(0 0 0)
(0 0 0)
(0 0 0)
(0 0 0)
(0 0 0)
(0 0 0)
(0 0 0)
(0 0 0)
(0 0 0)
(0 0 0)
(0 0 0)
(0 0 0)
(0 0 0)
(0 0 0)
(0 0 0)
(0 0 0)
(0 0 0)
(0 0 0)
(0 0 0)
(0 0 0)
(0 0 0)
(0 0 0)
(0 0 0)
(0 0 0)
(0 0 0)
(0 0 0)
(0 0 0)
(0 0 0)
(0 0 0)
(0 0 0)
(0 0 0)
(0 0 0)
(0 0 0)
(0 0 0)
(0 0 0)
(0 0 0)
(0 0 0)
(0 0 0)
(0 0 0)
(0 0 0)
(0 0 0)
(0 0 0)
(0 0 0)
(0 0 0)
(0 0 0)
(0 0 0)
(0 0 0)
(0 0 0)
(0 0 0)
(0 0 0)
(0 0 0)
(0 0 0)
(0 0 0)
(0 0 0)
(0 0 0)
(0 0 0)
(0 0 0)
(0 0 0)
(0 0 0)
(0 0 0)
(0 0 0)
(0 0 0)
(0 0 0)
(0 0 0)
(0 0 0)
(0 0 0)
(0 0 0)
(0 0 0)
(0 0 0)
(0 0 0)
(0 0 0)
(0 0 0)
(0 0 0)
(0 0 0)
(0 0 0)
(0 0 0)
(0 0 0)
(0 0 0)
(0 0 0)
(0 0 0)
(0 0 0)
(0 0 0)
(0 0 0)
(0 0 0)
(0 0 0)
(0 0 0)
(0 0 0)
(0 0 0)
(0 0 0)
(0 0 0)
(0 0 0)
(0 0 0)
(0 0 0)
(0 0 0)
(0 0 0)
(0 0 0)
(0 0 0)
(0 0 0)
(0 0 0)
(0 0 0)
(0 0 0)
(0 0 0)
(0 0 0)
(0 0 0)
(0 0 0)
(0 0 0)
(0 0 0)
(0 0 0)
(0 0 0)
(0 0 0)
(0 0 0)
(0 0 0)
(0 0 0)
(0 0 0)
(0 0 0)
(0 0 0)
(0 0 0)
(0 0 0)
(0 0 0)
(0 0 0)
(0 0 0)
(0 0 0)
(0 0 0)
(0 0 0)
(0 0 0)
(0 0 0)
(0 0 0)
(0 0 0)
(0 0 0)
(0 0 0)
(0 0 0)
(0 0 0)
(0 0 0)
(0 0 0)
(0 0 0)
(0 0 0)
(0 0 0)
(0 0 0)
(0 0 0)
(0 0 0)
(0 0 0)
(0 0 0)
(0 0 0)
(0 0 0)
(0 0 0)
(0 0 0)
(0 0 0)
(0 0 0)
(0 0 0)
(0 0 0)
(0 0 0)
(0 0 0)
(0 0 0)
(0 0 0)
(0 0 0)
(0 0 0)
(0 0 0)
(0 0 0)
(0 0 0)
(0 0 0)
(0 0 0)
(0 0 0)
(0 0 0)
(0 0 0)
(0 0 0)
(0 0 0)
(0 0 0)
(0 0 0)
(0 0 0)
(0 0 0)
(0 0 0)
(0 0 0)
(0 0 0)
(0 0 0)
(0 0 0)
(0 0 0)
(0 0 0)
(0 0 0)
(0 0 0)
(0 0 0)
(0 0 0)
(0 0 0)
(0 0 0)
(0 0 0)
(0 0 0)
(0 0 0)
(0 0 0)
(0 0 0)
(0 0 0)
(0 0 0)
(0 0 0)
(0 0 0)
(0 0 0)
(0 0 0)
(0 0 0)
(0 0 0)
(0 0 0)
(0 0 0)
(0 0 0)
(0 0 0)
(0 0 0)
(0 0 0)
(0 0 0)
(0 0 0)
(0 0 0)
(0 0 0)
(0 0 0)
(0 0 0)
(0 0 0)
(0 0 0)
(0 0 0)
(0 0 0)
(0 0 0)
(0 0 0)
(0 0 0)
(0 0 0)
(0 0 0)
(0 0 0)
(0 0 0)
(0 0 0)
(0 0 0)
(0 0 0)
(0 0 0)
(0 0 0)
(0 0 0)
(0 0 0)
(0 0 0)
(0 0 0)
(0 0 0)
(0 0 0)
(0 0 0)
(0 0 0)
(0 0 0)
(0 0 0)
(0 0 0)
(0 0 0)
(0 0 0)
(0 0 0)
(0 0 0)
(0 0 0)
(0 0 0)
(0 0 0)
(0 0 0)
(0 0 0)
(0 0 0)
(0 0 0)
(0 0 0)
(0 0 0)
(0 0 0)
(0 0 0)
(0 0 0)
(0 0 0)
(0 0 0)
(0 0 0)
(0 0 0)
(0 0 0)
(0 0 0)
(0 0 0)
(0 0 0)
(0 0 0)
(0 0 0)
(0 0 0)
(0 0 0)
(0 0 0)
(0 0 0)
(0 0 0)
(0 0 0)
(0 0 0)
(0 0 0)
(0 0 0)
(0 0 0)
(0 0 0)
(0 0 0)
(0 0 0)
(0 0 0)
(0 0 0)
(0 0 0)
(0 0 0)
(0 0 0)
(0 0 0)
(0 0 0)
(0 0 0)
(0 0 0)
(0 0 0)
(0 0 0)
(0 0 0)
(0 0 0)
(0 0 0)
(0 0 0)
(0 0 0)
(0 0 0)
(0 0 0)
(0 0 0)
(0 0 0)
(0 0 0)
(0 0 0)
(0 0 0)
(0 0 0)
(0 0 0)
(0 0 0)
(0 0 0)
(0 0 0)
(0 0 0)
(0 0 0)
(0 0 0)
(0 0 0)
(0 0 0)
(0 0 0)
(0 0 0)
(0 0 0)
(0 0 0)
(0 0 0)
(0 0 0)
(0 0 0)
(0 0 0)
(0 0 0)
(0 0 0)
(0 0 0)
(0 0 0)
(0 0 0)
(0 0 0)
(0 0 0)
(0 0 0)
(0 0 0)
(0 0 0)
(0 0 0)
(0 0 0)
(0 0 0)
(0 0 0)
(0 0 0)
(0.0236119 0.0511916 -0.0380915)
(0.00858853 0.0429075 -0.0510047)
(0.0422115 0.113542 -0.0364667)
(0.0471445 0.139005 -0.0322867)
(0.0131211 0.0590653 -0.0386619)
(0.0236787 0.142869 -0.0210869)
(0.0230412 0.0869663 -0.0245109)
(0.0184779 0.052534 -0.0226985)
(0.0216241 0.0690104 -0.0394964)
(0.0320685 0.0568172 -0.0379198)
(0.0810253 0.140774 -0.0399049)
(0.0900609 0.139554 -0.0418316)
(0.179501 0.269707 -0.00360957)
(0.127215 0.251248 -0.00419809)
(0.1311 0.314646 0.0117738)
(0.234114 0.3725 0.029282)
(0.215649 0.466217 0.0229725)
(0.0384263 0.306969 0.000887451)
(-0.0181214 0.219053 -0.0130501)
(-0.0121266 0.345555 0.00556721)
(-0.102183 0.126523 0.0137631)
(-0.00894406 0.0976555 -0.0151635)
(-0.00570555 0.0108993 -0.00707919)
(-0.0695306 0.0186815 0.00769568)
(0.00686064 0.0120338 -0.00612964)
(0.00418664 0.0305441 -0.0105293)
(0.0778588 0.110002 -0.0444442)
(0.0267093 0.0854116 -0.0678224)
(0.106773 0.139653 -0.0395378)
(0.201306 0.226461 -0.019985)
(0.276192 0.345201 0.0307905)
(0.269175 0.234681 0.00556267)
(0.343215 0.330429 0.0174251)
(0.249674 0.371678 0.0319241)
(0.115097 0.349835 0.00754804)
(0.128591 0.294523 0.0101553)
(-0.0677437 0.22184 -0.034373)
(-0.193738 0.0738145 -0.00783552)
(-0.161662 0.0534239 -0.00712426)
(-0.237258 0.101239 -0.030575)
(-0.143154 0.117086 -0.0416382)
(-0.0668065 0.0520553 -0.0629297)
(0.0780413 0.0611561 -0.0370238)
(-0.0546829 0.135011 -0.0920923)
(0.0630981 0.146237 -0.0476866)
(0.049587 0.0786725 -0.00511252)
(0.074391 0.141113 -0.00485763)
(-0.00799416 0.0857694 -0.0103033)
(0.0536162 0.113906 -0.08333)
(0.135154 0.155004 -0.0493864)
(0.128104 0.165344 -0.0651838)
(0.251927 0.19276 -0.0160784)
(0.325839 0.199212 -0.0392049)
(0.22505 0.184636 -0.025991)
(0.275091 0.175931 -0.0210243)
(0.0254376 0.187239 -0.0351931)
(-0.280385 0.187034 -0.0317946)
(0.0204632 0.171067 -0.0125523)
(-0.078728 0.146758 -0.0222619)
(-0.233012 0.180114 -0.0424149)
(-0.10728 0.185754 -0.0595118)
(-0.182489 0.258318 -0.0304029)
(-0.0683299 0.270539 -0.054165)
(-0.0257449 0.217027 -0.0499715)
(0.0727948 0.232067 -0.030463)
(0.0250491 0.324841 -0.0302845)
(0.100078 0.341312 -0.0345066)
(0.0581068 0.215338 -0.00307316)
(-0.0146615 0.11446 -0.00828484)
(-0.00189219 0.226667 0.00113949)
(0.118686 0.149992 -0.0400225)
(0.182852 0.181902 -0.0133291)
(0.180158 0.192302 -0.0171081)
(0.0896601 0.075966 -0.000488669)
(0.10507 0.0736698 -0.00841707)
(-0.0144039 0.13494 -0.00245707)
(-0.0354816 0.0531078 -0.0186562)
(-0.0301202 -0.0569072 0.028471)
(-0.0183286 -0.0562287 0.0386646)
(-0.00530843 0.105071 0.0101265)
(-0.0464546 0.336066 -0.0251839)
(0.0663016 -0.0473252 0.0447068)
(0.100008 0.000290542 0.0377843)
(0.0639156 0.388522 0.000166142)
(0.0190788 0.255525 0.011562)
(0.0411459 0.00798 0.0285551)
(-0.0141506 0.0726214 0.0274217)
(-0.0485774 0.150374 0.00077381)
(-0.0169159 -0.0113792 -0.00908872)
(-0.0652496 -0.0533544 0.0148989)
(-0.0235041 -0.0971205 0.00707152)
(-0.0174006 -0.0526275 -0.0289352)
(0.0442122 -0.0662919 0.00259767)
(0.0520334 -0.0334549 0.000201421)
(0.0117628 -0.0427567 -0.0177511)
(0.0326181 -0.0266142 0.000846541)
(0.0218418 0.0251292 -0.122902)
(0.0356839 0.0187905 -0.223005)
(0.0148255 0.0237781 -0.102622)
(0.0430355 0.0734662 -0.111399)
(0.0354738 0.108569 -0.0881155)
(0.0382859 0.0078403 -0.175641)
(0.0537704 0.0645911 -0.209176)
(0.045953 0.101059 -0.167281)
(0.013354 0.112375 -0.0719288)
(0.0170437 0.0575949 -0.0725855)
(0.0350027 0.020489 -0.147706)
(0.0149902 0.0974954 -0.139818)
(0.00670896 0.0548709 -0.130793)
(0.0143202 0.028858 -0.0660502)
(0.0100982 0.0239999 -0.107349)
(0.00627772 0.0572983 -0.126879)
(0.0111246 0.0431559 -0.234625)
(0.0854911 0.115319 -0.124844)
(0.0911814 0.114068 -0.136236)
(0.17863 0.233939 -0.0570698)
(0.0286082 0.0338859 -0.24062)
(0.0967442 0.11329 -0.234952)
(0.0919723 0.0944064 -0.254923)
(0.17285 0.192536 -0.111138)
(0.00836669 0.00702683 -0.0388752)
(-0.0659143 0.0439722 -0.0097504)
(0.0519505 0.0194253 -0.028972)
(-0.0152456 0.0516724 -0.0938188)
(0.00742013 0.023582 -0.0457062)
(-0.0551007 0.0887614 0.00626904)
(0.0019023 0.0391795 -0.0274598)
(0.0423531 0.0519567 -0.0316252)
(0.0143702 0.029843 -0.0335748)
(0.0459119 0.0994758 -0.130411)
(0.0089132 0.0821575 -0.140741)
(0.0799548 0.122683 -0.116006)
(0.0407707 0.0882015 -0.23338)
(0.00989046 0.079292 -0.199998)
(0.0619747 0.113198 -0.19299)
(0.100814 0.164643 0.0131536)
(0.0277229 0.172069 0.0381818)
(0.00763291 0.0556428 -0.0236132)
(-0.0136212 0.107866 0.00979261)
(0.00572243 0.109574 0.0457958)
(0.112346 0.104452 -0.135982)
(0.0974862 0.099982 -0.15011)
(0.0206119 0.0729412 -0.22983)
(0.0774134 0.0903335 -0.186001)
(0.0744802 0.0427288 -0.212549)
(0.000847221 0.204061 0.0549109)
(-0.0248832 0.303086 0.114813)
(-0.0812647 0.171296 0.096537)
(-0.0231568 0.142708 0.078908)
(-0.112462 0.254755 0.184926)
(0.0967061 0.125365 -0.0815389)
(0.0549261 0.0320117 -0.151955)
(0.255169 0.225164 0.119034)
(0.104759 0.105255 0.0625209)
(0.0967342 0.0958929 0.103267)
(0.110215 0.0872086 0.0543477)
(0.206568 0.217677 0.228734)
(0.0804224 0.0565187 0.0772948)
(0.127087 0.0802663 0.162903)
(-0.0738634 0.213446 0.128997)
(0.0507427 0.139715 0.0940215)
(-0.0651733 0.127431 0.094374)
(0.0653571 0.236522 0.195095)
(-0.125743 0.315968 0.306141)
(0.0156906 0.117037 0.197042)
(-0.104861 0.10258 0.187331)
(-0.135265 0.288487 0.263431)
(0.0300813 0.00755156 0.0590146)
(0.0601484 0.0261275 0.0809876)
(0.00187569 -0.0259952 -0.0112505)
(-0.00258457 -0.00975329 -0.0494484)
(0.0233715 -0.000554998 0.0484165)
(0.00897645 -0.000301894 -0.0293501)
(0.0075646 -0.00369046 -0.0644495)
(0.0368481 0.0263135 0.0387058)
(0.0190228 -0.00577634 -0.0284304)
(0.0412146 0.0190584 0.0221466)
(0.0228929 0.0335214 0.126673)
(0.0162931 0.000172252 -0.0217355)
(-0.0230876 0.0429606 0.134386)
(0.0489601 0.0119184 -0.322811)
(0.0466897 0.00327636 -0.424327)
(0.0536741 0.0154281 -0.250527)
(0.063573 0.0664208 -0.321008)
(0.0656452 0.106256 -0.254564)
(0.077824 0.0254395 -0.348001)
(0.0761865 0.0518372 -0.42683)
(0.0982505 0.116996 -0.366411)
(0.0258184 0.116179 -0.200466)
(0.00299574 0.0740115 -0.195288)
(0.0981856 0.0282895 -0.331024)
(0.0457894 0.134095 -0.270138)
(0.0126366 0.0957607 -0.276)
(0.00233899 0.0397092 -0.171207)
(0.0141351 0.0521568 -0.25789)
(0.0204839 0.0324404 -0.339436)
(0.0243034 0.0264395 -0.420045)
(0.101315 0.0921729 -0.343681)
(0.0843132 0.0858937 -0.3591)
(0.147205 0.154621 -0.139155)
(0.035838 0.0219352 -0.434051)
(0.0850809 0.0736935 -0.458774)
(0.0694405 0.075248 -0.44227)
(0.073069 0.121517 -0.281172)
(-0.0075877 0.0266757 -0.077473)
(-0.0644641 0.117141 -0.0194025)
(-0.0160779 0.0357733 -0.0484847)
(-0.0483341 0.100269 -0.1948)
(-0.0150644 0.0273962 -0.123824)
(-0.0815911 0.0966857 -0.0341407)
(-0.0372015 0.0235709 -0.0656832)
(-0.00199299 0.0084553 -0.0445174)
(-0.0117239 -0.000346725 -0.0613966)
(0.0496532 0.0707143 -0.324837)
(0.00846764 0.0618598 -0.254426)
(0.031463 0.0983007 -0.244996)
(0.0480251 0.0504798 -0.399339)
(0.0187641 0.036427 -0.35578)
(0.0245363 0.0653101 -0.334711)
(-0.0469952 0.0942017 -0.0363972)
(0.00135287 0.0732895 -0.0197022)
(-0.0151227 0.0174546 -0.107695)
(-0.0615386 0.0842211 -0.108166)
(-0.0138741 0.066769 -0.0955103)
(0.0152415 0.0998993 -0.201364)
(0.0498296 0.0382662 -0.264524)
(0.0391239 0.0714929 -0.465599)
(-0.0300694 0.0665593 -0.346111)
(-0.0131927 0.0350956 -0.507196)
(-0.0330605 0.103422 0.0150087)
(-0.134827 0.122823 0.100956)
(-0.123612 0.11471 -0.0864862)
(-0.0422508 0.100337 -0.0840288)
(-0.0569436 -0.00937493 -0.0585877)
(0.0214084 -0.0271042 -0.24827)
(-0.016761 -0.0139721 -0.544381)
(0.142563 0.188473 0.302713)
(0.0365904 0.0124077 0.0464649)
(0.10555 0.056189 0.184327)
(-0.0272707 0.0109446 0.0636326)
(0.0577463 0.146458 0.336933)
(-0.00475399 -0.00754599 -0.00978623)
(0.0688808 0.047472 0.201317)
(-0.198949 0.242489 0.332854)
(-0.0716296 0.108863 0.311639)
(-0.153094 0.137691 0.285088)
(-0.175751 0.1435 0.433215)
(-0.176301 0.17611 0.34743)
(-0.133314 0.104214 0.398005)
(-0.156546 0.141449 0.320428)
(-0.0891037 0.133137 0.26676)
(0.0665128 0.025269 0.0709915)
(0.0729319 0.0233751 0.0184964)
(0.017189 0.0128242 -0.0171194)
(0.0191832 -0.00472599 -0.0746363)
(0.180328 0.0671037 0.0767502)
(0.00321981 0.0296465 -0.0689742)
(-0.0108474 -0.00959328 -0.148045)
(0.014555 0.0204904 0.216993)