/*--------------------------------*- C++ -*----------------------------------*\
| =========                 |                                                 |
| \\      /  F ield         | OpenFOAM: The Open Source CFD Toolbox           |
|  \\    /   O peration     | Version:  5.x                                   |
|   \\  /    A nd           | Web:      www.OpenFOAM.org                      |
|    \\/     M anipulation  |                                                 |
\*---------------------------------------------------------------------------*/
FoamFile
{
    version     2.0;
    format      ascii;
    class       volScalarField;
    location    "6.45";
    object      p;
}
// * * * * * * * * * * * * * * * * * * * * * * * * * * * * * * * * * * * * * //

dimensions      [0 2 -2 0 0 0 0];

internalField   nonuniform List<scalar> 
10571
(
53.8571
89.1045
78.3551
69.0466
103.915
91.1251
136.211
164.901
174.498
155.482
91.6255
121.017
172.103
204.295
199.015
149.852
147.444
167.508
172.207
132.664
110.95
103.137
67.6545
71.1097
49.0119
52.3262
50.7673
48.8362
48.0612
52.43
46.3277
42.8406
39.8837
58.8199
52.6039
51.4173
24.0879
15.4386
23.4571
46.8061
49.8258
9.23252
10.8296
25.415
26.5168
12.533
10.7189
11.6945
43.9194
11.486
38.3868
41.2868
38.9024
18.5367
3.33104
3.37227
2.71288
4.90578
5.6612
6.27727
1.48624
1.89751
2.19881
3.32974
2.09626
1.88215
2.22574
3.0175
4.22693
3.31149
9.37652
9.383
2.06423
2.45738
2.11361
2.18354
2.06044
2.4781
2.11529
2.22374
2.36941
2.80315
2.74264
2.71536
2.74141
2.71453
2.60672
2.82769
2.42632
2.54743
2.36234
2.57744
2.78235
2.46774
1.77254
2.13501
2.70916
2.51083
2.55116
2.67668
2.56758
2.53946
2.7819
2.84297
2.5804
2.58411
2.51637
2.53784
2.62301
2.60267
2.56711
2.60104
2.47611
2.47102
2.51673
2.49171
2.54395
2.49061
2.56177
2.50287
2.58782
2.5501
2.57431
2.5967
2.60087
2.55503
2.53463
2.59332
2.54275
2.55164
2.56245
2.5225
2.5289
2.53428
2.5455
2.54205
2.57333
2.55871
2.49552
2.45279
2.50366
2.47787
2.51536
2.43375
2.47494
2.44769
2.59039
2.5566
2.56537
2.58692
2.60267
2.54942
2.55303
2.58109
2.53994
2.54642
2.55884
2.53511
2.53612
2.54239
2.55791
2.57681
2.54896
2.56016
2.50784
2.46664
2.51457
2.50159
2.54158
2.56079
2.39751
2.48814
2.43761
2.56796
2.5499
2.56551
2.57195
2.58015
2.53561
2.5536
2.56894
2.53992
2.5539
2.56435
2.54075
2.53847
2.55826
2.56094
2.59355
2.55433
2.56384
2.51977
2.48394
2.53419
2.51401
2.54171
2.55875
2.40064
2.49061
2.42949
2.56497
2.54281
2.5648
2.56408
2.56474
2.52411
2.5434
2.54688
2.55883
2.5585
2.58069
2.53876
2.53369
2.56346
2.56316
2.58191
2.55456
2.574
2.5289
2.50789
2.53451
2.55234
2.55218
2.49584
2.52333
2.54878
2.57435
2.53598
2.55072
2.55702
2.55953
2.52274
2.53385
2.53288
2.56076
2.54616
2.53658
2.5303
2.55438
2.55594
2.55695
2.55477
2.53317
2.55049
2.54729
2.57432
2.55661
2.57629
2.53558
2.66599
2.56648
2.52911
2.52928
2.54546
2.55577
2.52819
2.52198
2.52898
2.55068
2.55206
2.54051
2.53114
2.54785
2.54852
2.54032
2.54508
2.53501
2.5716
2.54153
2.56397
2.55328
2.57638
2.55253
2.62331
2.55237
2.52955
2.51624
2.53434
2.55135
2.53416
2.51996
2.53373
2.54981
2.55272
2.55026
2.53704
2.54611
2.54783
2.5454
2.54864
2.53871
2.5647
2.54046
2.55088
2.55046
2.58174
2.59575
2.58453
2.5485
2.54614
2.52478
2.53511
2.54911
2.53944
2.53065
2.54659
2.55791
2.55662
2.56064
2.54916
2.54283
2.54874
2.55666
2.55898
2.54237
2.56237
2.55526
2.55089
2.55417
2.56917
2.57684
2.56979
2.55567
2.56883
2.54521
2.54512
2.55013
2.55522
2.54681
2.56101
2.57109
2.56451
2.57202
2.56072
2.5497
2.56309
2.56651
2.56723
2.54434
2.55941
2.56594
2.55744
2.56151
2.56049
2.56955
2.56644
2.56947
2.5887
2.56577
2.56277
2.55325
2.57377
2.56405
2.57069
2.57837
2.57017
2.57182
2.56438
2.56043
2.57273
2.56958
2.57225
2.55049
2.55317
2.56934
2.56231
2.56778
2.56059
2.56811
2.56692
2.57807
2.59965
2.58116
2.57677
2.5617
2.59178
2.5719
2.57334
2.57661
2.57164
2.58154
2.57355
2.55856
2.57335
2.57009
2.57482
2.55513
2.54802
2.56954
2.56728
2.57147
2.56417
2.56899
2.56836
2.58134
2.60348
2.58746
2.57852
2.57131
2.60688
2.57972
2.57292
2.57447
2.57081
2.59023
2.58038
2.55785
2.5697
2.57199
2.57348
2.55782
2.54517
2.56863
2.57137
2.57473
2.56846
2.57112
2.57038
2.58344
2.60275
2.58968
2.57995
2.57547
2.60924
2.58702
2.57055
2.57354
2.56962
2.599
2.59619
2.56385
2.56647
2.57063
2.57163
2.58426
2.55323
2.56794
2.57201
2.57572
2.57256
2.5733
2.57242
2.58392
2.59798
2.59024
2.58447
2.57935
2.5997
2.58918
2.57025
2.57086
2.56915
2.60813
2.60959
2.57449
2.56773
2.57329
2.57251
2.60167
2.56589
2.56867
2.57185
2.57613
2.57462
2.57311
2.57262
2.58218
2.59
2.58476
2.58407
2.57902
2.59074
2.58058
2.56974
2.56921
2.5711
2.6012
2.59835
2.56924
2.56802
2.57279
2.57241
2.58978
2.55933
2.56457
2.56909
2.57438
2.56831
2.56862
2.56966
2.57779
2.58093
2.5767
2.57867
2.57494
2.57932
2.56734
2.56837
2.56687
2.57163
2.58068
2.57461
2.55553
2.56345
2.57176
2.56768
2.57346
2.55269
2.55796
2.56729
2.57115
2.56302
2.56308
2.56711
2.57502
2.57205
2.57088
2.5728
2.56983
2.56829
2.55953
2.56495
2.56244
2.56602
2.56765
2.56213
2.55145
2.55593
2.56731
2.56101
2.56373
2.55306
2.55378
2.56619
2.56753
2.55938
2.55797
2.56645
2.56866
2.56374
2.56457
2.56445
2.56451
2.55864
2.55259
2.55759
2.55764
2.5597
2.55895
2.55465
2.54946
2.55081
2.55947
2.55596
2.55823
2.55369
2.55134
2.56494
2.56428
2.5578
2.55464
2.56629
2.56069
2.5565
2.558
2.55684
2.56134
2.55149
2.54448
2.54939
2.55733
2.5566
2.55246
2.54818
2.54439
2.5481
2.55302
2.55381
2.55414
2.55018
2.55224
2.56382
2.5624
2.55662
2.55455
2.56628
2.55454
2.55129
2.55059
2.55091
2.55753
2.54699
2.54033
2.54486
2.5591
2.5554
2.54808
2.54336
2.54087
2.54839
2.54968
2.5532
2.55235
2.5476
2.5568
2.56283
2.56187
2.55664
2.55776
2.56584
2.54979
2.55
2.5465
2.54544
2.55349
2.54628
2.54203
2.54388
2.55416
2.55498
2.54665
2.54137
2.54175
2.55066
2.55363
2.55389
2.55296
2.54876
2.56141
2.56234
2.56228
2.55705
2.56095
2.56466
2.54758
2.5524
2.54723
2.54289
2.55085
2.54943
2.54852
2.54338
2.5495
2.55589
2.54836
2.54223
2.54582
2.55488
2.55944
2.55647
2.55419
2.551
2.56269
2.5622
2.56449
2.55743
2.56252
2.56432
2.54978
2.55654
2.55164
2.54433
2.55204
2.55471
2.55464
2.55075
2.54895
2.5585
2.55256
2.54726
2.55018
2.55674
2.56311
2.56237
2.55494
2.55318
2.56209
2.56474
2.56726
2.5586
2.56234
2.5647
2.55544
2.56027
2.55687
2.55131
2.55687
2.55929
2.55655
2.56214
2.55303
2.56137
2.55714
2.5552
2.55748
2.56
2.56507
2.57392
2.55418
2.55763
2.56177
2.56353
2.5678
2.56134
2.56206
2.56468
2.56074
2.56328
2.56121
2.55926
2.56122
2.56142
2.55733
2.56734
2.55715
2.56281
2.56025
2.55923
2.56333
2.57055
2.56827
2.57188
2.55215
2.5605
2.565
2.56207
2.56868
2.56528
2.56559
2.56584
2.56408
2.56543
2.56417
2.5635
2.56279
2.56199
2.55903
2.56548
2.56131
2.56366
2.56217
2.55955
2.56682
2.57659
2.57001
2.57116
2.55192
2.56122
2.56337
2.56596
2.57097
2.56949
2.56932
2.56797
2.5665
2.56711
2.56593
2.56571
2.55941
2.56148
2.56187
2.5639
2.56239
2.56366
2.56398
2.55933
2.56658
2.56901
2.56455
2.57005
2.55302
2.56126
2.56184
2.56953
2.58252
2.57073
2.56935
2.56888
2.56908
2.56893
2.56742
2.56712
2.55544
2.56127
2.5641
2.56348
2.55962
2.56278
2.56658
2.56
2.56455
2.5613
2.56175
2.56592
2.55651
2.5604
2.56578
2.57239
2.57559
2.56822
2.56825
2.57117
2.57268
2.57095
2.56936
2.56939
2.55647
2.56204
2.5655
2.56377
2.55515
2.56136
2.56985
2.56306
2.56427
2.56139
2.55831
2.56273
2.56266
2.55923
2.56533
2.57035
2.57142
2.56681
2.56896
2.57823
2.57572
2.57272
2.57209
2.57237
2.56331
2.56425
2.56606
2.56354
2.55316
2.56075
2.57271
2.56725
2.56468
2.56142
2.55505
2.56068
2.56775
2.55922
2.5628
2.56574
2.56692
2.5672
2.57269
2.57734
2.57583
2.57364
2.57521
2.57537
2.57003
2.5666
2.56592
2.56369
2.55711
2.56188
2.5738
2.57011
2.56475
2.56221
2.55537
2.56044
2.57444
2.55767
2.55673
2.56144
2.5642
2.56497
2.56269
2.56516
2.57298
2.57182
2.57235
2.57337
2.5714
2.56959
2.56736
2.56632
2.56123
2.56449
2.57283
2.57122
2.56377
2.56416
2.55745
2.56197
2.57895
2.561
2.55405
2.56099
2.56417
2.56212
2.55116
2.55865
2.5704
2.56941
2.56891
2.57039
2.57123
2.56848
2.56793
2.56574
2.56384
2.56647
2.57006
2.56897
2.56447
2.56801
2.55966
2.56367
2.57556
2.56578
2.55638
2.5632
2.5656
2.56275
2.54775
2.56053
2.56862
2.56751
2.56748
2.56863
2.56982
2.56525
2.56906
2.56432
2.56406
2.56529
2.56637
2.56575
2.56453
2.56817
2.56199
2.56462
2.57073
2.56626
2.55931
2.56507
2.56654
2.57052
2.55681
2.56656
2.56682
2.56542
2.56585
2.56572
2.5659
2.56359
2.56814
2.56265
2.5631
2.5631
2.56328
2.56203
2.56325
2.56529
2.56282
2.56414
2.56613
2.5636
2.56221
2.56467
2.5657
2.56888
2.5651
2.5677
2.56523
2.56298
2.56287
2.5639
2.56339
2.56116
2.56389
2.56186
2.56246
2.56127
2.56079
2.55859
2.56102
2.56243
2.56162
2.5627
2.56298
2.56238
2.56114
2.56271
2.5639
2.56419
2.56632
2.56592
2.56174
2.56056
2.56012
2.56152
2.56152
2.5586
2.56026
2.56133
2.56132
2.56001
2.55821
2.55557
2.55891
2.55913
2.55912
2.56094
2.56052
2.56037
2.55826
2.56036
2.5619
2.56138
2.56344
2.56374
2.55853
2.5582
2.55761
2.55864
2.55943
2.55647
2.55764
2.56195
2.55961
2.55883
2.55596
2.55318
2.55633
2.55615
2.5562
2.55887
2.55862
2.55838
2.55627
2.55822
2.55985
2.55942
2.5605
2.56193
2.55576
2.55597
2.55522
2.55543
2.55707
2.55486
2.55545
2.56203
2.55523
2.55586
2.55374
2.55214
2.55378
2.55372
2.55289
2.55572
2.55696
2.55684
2.55513
2.55649
2.55726
2.55788
2.55834
2.56003
2.55357
2.55426
2.55329
2.55227
2.55476
2.55348
2.55379
2.55779
2.55123
2.55144
2.55279
2.55199
2.5518
2.55184
2.54975
2.55269
2.55546
2.55546
2.55426
2.55455
2.55412
2.55663
2.55614
2.55789
2.55182
2.55291
2.55141
2.54984
2.55281
2.55212
2.55199
2.55412
2.54775
2.54888
2.55257
2.55164
2.5504
2.55129
2.54674
2.55045
2.55406
2.55372
2.55328
2.55243
2.5511
2.55478
2.55435
2.55504
2.5502
2.55171
2.54972
2.54857
2.5511
2.55104
2.54961
2.5513
2.54546
2.54839
2.55364
2.55179
2.54852
2.55049
2.54473
2.54923
2.55315
2.55192
2.55185
2.54993
2.54906
2.55292
2.55262
2.55212
2.54853
2.55097
2.54833
2.54714
2.54939
2.55045
2.54708
2.54853
2.54412
2.54981
2.55396
2.55283
2.54772
2.54836
2.54469
2.54878
2.55372
2.55011
2.54975
2.54781
2.54858
2.55043
2.55049
2.55026
2.54719
2.55036
2.54707
2.54598
2.54787
2.55012
2.54527
2.5457
2.54389
2.55069
2.55208
2.55219
2.54839
2.54653
2.54593
2.54997
2.55221
2.54795
2.54715
2.54611
2.54848
2.54799
2.54827
2.54901
2.54655
2.5496
2.54648
2.54592
2.54681
2.54924
2.5434
2.54378
2.54381
2.54966
2.55002
2.54981
2.5483
2.54568
2.5464
2.55095
2.54815
2.54493
2.54472
2.54479
2.54931
2.54507
2.54627
2.54804
2.54657
2.54879
2.54665
2.54625
2.54604
2.54792
2.54333
2.542
2.54294
2.54716
2.54873
2.54801
2.54717
2.54515
2.54641
2.55013
2.54614
2.54308
2.54237
2.54582
2.55142
2.54381
2.54494
2.54707
2.54678
2.5482
2.54712
2.54629
2.54535
2.54739
2.54349
2.54162
2.54264
2.54446
2.54828
2.54723
2.54701
2.54381
2.54438
2.54677
2.54666
2.54224
2.54246
2.54479
2.54909
2.54418
2.5445
2.54585
2.54675
2.54803
2.5474
2.54644
2.54446
2.54844
2.54527
2.54254
2.54222
2.54218
2.54836
2.54728
2.5471
2.54312
2.54144
2.54254
2.54807
2.54239
2.54242
2.54188
2.54335
2.54679
2.54574
2.54459
2.5461
2.54849
2.54768
2.54581
2.54305
2.54784
2.54888
2.54205
2.54108
2.53978
2.54921
2.5479
2.54659
2.54188
2.53814
2.53853
2.54858
2.54489
2.5414
2.54135
2.53971
2.54947
2.54595
2.54387
2.54499
2.54961
2.54747
2.5447
2.54107
2.5505
2.54904
2.54034
2.53862
2.53657
2.55087
2.5499
2.5455
2.53955
2.53377
2.53428
2.54881
2.54565
2.53946
2.53989
2.53612
2.54867
2.54482
2.54071
2.54368
2.55022
2.54691
2.54322
2.53846
2.55221
2.54805
2.53792
2.53407
2.5319
2.55267
2.55164
2.54537
2.53643
2.52867
2.52856
2.54936
2.54412
2.53594
2.53447
2.53088
2.54598
2.54232
2.53656
2.54236
2.55067
2.54649
2.54164
2.5351
2.55365
2.54716
2.53487
2.52698
2.52495
2.55533
2.55318
2.54589
2.53258
2.52154
2.52077
2.55094
2.54406
2.53229
2.52754
2.5234
2.54405
2.53819
2.53166
2.54123
2.55199
2.54653
2.54026
2.53064
2.55518
2.54723
2.52977
2.51706
2.514
2.5584
2.55402
2.54699
2.52934
2.51182
2.50892
2.55343
2.5463
2.52905
2.51994
2.51322
2.54409
2.53493
2.52642
2.54027
2.55452
2.5471
2.53907
2.52489
2.55847
2.54896
2.52475
2.50162
2.49682
2.55991
2.55567
2.54972
2.52516
2.49635
2.48939
2.55665
2.5481
2.5271
2.51085
2.49841
2.54593
2.53277
2.52159
2.53909
2.5577
2.5478
2.53761
2.51721
2.5639
2.54886
2.51928
2.48012
2.46502
2.56589
2.5653
2.55799
2.52226
2.47306
2.45133
2.56207
2.55079
2.52341
2.49937
2.47541
2.54948
2.53157
2.5167
2.5364
2.56011
2.54798
2.53391
2.50673
2.56839
2.54797
2.51058
2.44446
2.40451
2.57775
2.58112
2.57561
2.51933
2.43697
2.36682
2.57252
2.55675
2.51903
2.481
2.43496
2.55568
2.52993
2.51152
2.53208
2.56068
2.5462
2.52714
2.49332
2.569
2.54661
2.50305
2.39625
2.2516
2.58543
2.5838
2.58667
2.51676
2.38775
2.16306
2.58603
2.56596
2.51633
2.45466
2.35281
2.56565
2.52959
2.50669
2.52818
2.56023
2.54305
2.52078
2.47974
2.57071
2.54132
2.48621
2.34777
1.86808
2.58972
2.58674
2.57675
2.51083
2.33627
1.8429
-2.09978
2.60077
2.57178
2.51675
2.42292
2.16526
2.56946
2.53223
2.5089
2.52706
2.55374
2.53919
2.51723
2.47329
2.56168
2.53277
2.48172
2.33681
1.66576
0.0289205
2.58769
2.57894
2.54493
2.49826
2.32653
1.83196
0.0100421
2.61446
2.56513
2.50698
2.40849
1.96277
2.56505
2.53448
2.51416
2.52923
2.53056
2.53377
2.51814
2.48166
2.54545
2.51903
2.49244
2.38764
1.90542
0.470685
2.57365
2.56287
2.52436
2.48241
2.37166
1.92017
0.513795
2.59048
2.55314
2.50624
2.43644
2.1402
0.732827
2.56096
2.53651
2.52169
2.53242
2.54903
2.5346
2.51965
2.50346
2.54027
2.51338
2.49428
2.42579
2.0028
0.610448
2.55866
2.54787
2.5214
2.48214
2.40292
2.13775
0.462156
2.57041
2.53788
2.51993
2.45308
2.30523
2.57874
2.54174
2.52745
2.53312
2.54967
2.54022
2.52126
2.52216
2.53919
2.51642
2.51067
2.46972
2.2549
2.54883
2.53916
2.51909
2.48497
2.44744
2.25806
-0.535747
2.55475
2.53793
2.5213
2.48365
2.5235
2.57557
2.54488
2.53541
2.52717
2.54355
2.53371
2.52129
2.53164
2.53439
2.51403
2.53152
2.50156
2.50958
2.5425
2.53274
2.51039
2.5022
2.47944
2.51455
2.54365
2.52553
2.51696
2.5097
2.55935
2.55877
2.54944
2.54219
2.50952
2.52928
2.51163
2.51216
2.52916
2.52052
2.50398
2.52171
2.51307
2.57908
2.53594
2.52477
2.50519
2.50738
2.48859
2.56174
2.53619
2.51563
2.51483
2.50979
2.55415
2.54487
2.54646
2.54668
2.48785
2.51297
2.49014
2.49574
2.52054
2.50546
2.49757
2.50858
2.51943
2.58739
2.52891
2.51441
2.49921
2.49893
2.49849
2.56123
2.52951
2.51327
2.50892
2.50541
2.55058
2.5333
2.53357
2.55043
2.48463
2.50954
2.48321
2.48532
2.51069
2.50386
2.49834
2.50398
2.51987
2.58631
2.52447
2.50744
2.50089
2.49989
2.50052
2.55199
2.52327
2.5087
2.50913
2.50956
2.54651
2.52523
2.52283
2.54342
2.49559
2.52374
2.48967
2.48418
2.5169
2.51673
2.50544
2.51068
2.52846
2.58477
2.52747
2.5128
2.5062
2.50195
2.50267
2.54802
2.51805
2.50959
2.50592
2.50626
2.53566
2.51854
2.51493
2.52828
2.50422
2.55582
2.51039
2.49767
2.54546
2.53623
2.51437
2.52803
2.54394
2.58561
2.54217
2.52621
2.51428
2.51612
2.50365
2.54773
2.51865
2.5005
2.50973
2.50699
2.5293
2.50482
2.50935
2.52237
2.54358
2.59951
2.54357
2.51354
2.58243
2.56213
2.53073
2.53346
2.57207
2.60984
2.56495
2.53958
2.52595
2.51972
2.53618
2.56466
2.52882
2.51074
2.51086
2.51006
2.52705
2.51453
2.50888
2.51611
2.60152
2.63243
2.57543
2.54385
2.61415
2.58555
2.5449
2.54833
2.58864
2.6421
2.60309
2.55976
2.5322
2.52874
2.54798
2.59933
2.55356
2.5213
2.51774
2.52179
2.54893
2.53172
2.51502
2.52166
150.165
135.766
155.298
153.121
133.345
151.407
156.23
162.243
159.134
157.389
168.656
178.513
177.46
168.768
168.499
184.693
192.78
168.497
175.652
197.457
203.436
187.293
188.627
216.401
218.25
211.502
174.944
167.925
180.558
185.208
194.964
198.815
212.095
222.1
237.1
241.225
258.792
244.298
250.528
268.94
274.229
254.267
253.832
274.74
268.109
233.222
244.053
222.936
176.343
192.134
196.921
207.726
217.264
211.396
220.802
246.665
265.689
247.06
262.439
273.519
277.663
266.651
265.331
273.76
264.22
258.725
246.217
237.585
219.184
225.698
196.635
213.143
225.535
203.575
215.576
239.933
248.027
221.429
219.128
247.332
239.62
211.529
201.238
225.681
198.308
185.917
169.148
189.973
191.228
183.716
170.048
150.049
160.67
153.964
142.41
154.491
81.6984
52.5307
55.6771
72.382
65.0245
48.4252
51.0453
49.2188
62.86
66.3271
48.071
48.7448
48.8322
87.924
51.2146
79.8205
53.2804
87.5943
86.9078
87.5888
54.039
53.629
54.2266
54.1249
124.432
125.959
143.016
54.4098
61.284
62.7819
73.0966
145.101
78.8144
78.3441
83.8995
93.5729
53.0368
52.639
53.6326
160.593
143.939
87.0346
85.5106
76.2818
114.866
130.242
53.239
54.85
62.2744
136.407
126.142
73.223
69.6349
53.9011
140.648
77.0101
146.898
148.604
145.4
83.5033
76.9874
88.4426
82.6906
105.14
91.2317
84.3224
58.9135
34.7633
25.415
19.9203
39.0316
128.762
62.439
84.0291
65.1317
28.1144
13.7144
11.3618
58.5747
54.9301
14.409
13.4768
12.2477
14.5938
51.412
49.9486
49.5463
50.5089
49.6505
48.1634
49.3071
47.951
48.8636
48.3159
47.6753
47.2294
46.9701
48.0062
47.5588
52.8858
52.376
51.9167
52.744
52.4373
50.9153
50.9182
52.1102
51.9996
49.9819
49.1891
53.2201
47.8687
46.7663
46.9289
45.2729
56.2691
42.9175
52.9686
52.7624
52.8265
52.5174
52.4871
52.6383
56.381
54.2939
38.8138
40.5403
40.0274
52.5541
52.5358
52.7254
52.6945
43.9979
48.0374
36.9149
35.6643
35.9334
30.7114
50.7757
22.5842
48.5098
45.8132
40.1356
15.2653
18.3898
5.06834
5.26163
19.0828
13.3662
15.6751
15.6321
18.5091
13.3406
16.5804
22.2008
20.1002
6.30547
9.55368
9.62962
10.7698
10.8812
10.8209
10.3431
10.5976
12.3638
11.0475
11.9838
12.5864
26.3173
2.78364
43.2797
39.1042
41.8544
15.9102
5.08163
15.9723
42.9798
42.2269
22.552
24.839
19.8997
40.8276
6.58539
9.4562
2.18949
26.1266
14.2761
28.9713
2.3713
2.77232
2.44238
2.82891
23.7928
34.2785
14.8119
4.96118
2.70603
3.31304
2.30216
6.13751
2.05622
13.5188
10.0898
11.7073
2.16333
1.79112
2.00419
3.9129
7.17476
1.89364
1.99796
1.94827
4.90989
2.90874
1.69741
1.88318
2.00992
5.9315
3.86859
2.01611
1.91284
1.86821
2.29917
2.22837
2.27891
2.07179
2.06354
2.26786
2.19008
2.40426
2.46105
6.14392
7.51145
8.85088
1.92324
1.75307
2.16566
1.99414
1.7982
2.39658
2.461
8.37343
8.92489
2.27135
3.23981
4.2215
9.57566
9.68375
3.31767
4.83876
3.86209
3.31803
2.28531
2.68468
1.99912
2.14072
2.18655
2.59216
2.7194
2.61065
2.30647
2.0393
2.53484
2.54777
2.56447
1.85517
2.69842
2.51269
2.56526
2.33794
2.46165
2.30507
2.58738
2.64195
2.57455
2.69148
2.24219
2.06439
2.39382
2.67948
2.52064
2.61772
2.43887
2.65087
2.51771
2.50839
2.5877
2.55378
2.55581
2.50624
2.50739
2.79732
2.79568
2.49436
2.45857
2.49808
2.71767
2.66308
2.46591
2.4221
2.45327
2.83471
2.82835
2.47038
2.51023
2.45421
2.50318
2.38927
2.46572
2.37405
2.40559
2.39888
2.43883
2.4366
2.43021
2.72835
2.44275
2.54742
2.28665
2.45498
2.45501
2.52519
2.42377
2.45095
2.47854
1.86233
1.67205
2.50862
2.55193
2.46905
1.5555
1.60708
2.6418
2.56748
2.62231
2.54899
2.53527
2.57961
2.65544
2.56307
2.62526
2.59153
2.58536
2.59019
2.69956
2.70726
2.6176
2.61222
2.61541
2.60885
2.58696
2.52141
2.56052
2.51623
2.52152
2.54656
2.5767
2.58214
2.56792
2.57994
2.53848
2.52986
2.49701
2.57603
2.56671
2.57557
2.54852
2.54713
2.54215
2.52539
2.51319
2.51444
2.54113
2.5279
2.52777
2.62996
2.65599
2.50721
2.51111
2.53312
2.53277
2.54102
2.51747
2.50538
2.50532
2.62016
2.57465
2.5088
2.52852
2.49794
2.52277
2.48168
2.46982
2.46205
2.4511
2.46526
2.48923
2.46508
2.44411
2.5604
2.46818
2.52631
2.40691
2.50991
2.4614
2.51069
2.50707
2.48555
2.46748
2.57155
2.59878
2.43986
2.49543
2.4886
2.63711
2.56948
2.48175
2.50174
2.47246
2.45235
2.56926
2.5677
2.57738
2.58516
2.58217
2.57866
2.57499
2.57833
2.59345
2.59916
2.59217
2.5937
2.60445
2.59743
2.60451
2.55422
2.55443
2.55645
2.55495
2.57411
2.56123
2.56271
2.55943
2.56801
2.57856
2.59213
2.56856
2.60909
2.58641
2.5956
2.57684
2.56312
2.5648
2.54512
2.53425
2.53443
2.5436
2.5377
2.53609
2.55503
2.57081
2.57238
2.54176
2.55235
2.52688
2.54351
2.56777
2.56352
2.56587
2.56009
2.56582
2.56301
2.56232
2.51795
2.52873
2.52838
2.52654
2.52495
2.59991
2.52757
2.57413
2.54134
2.56023
2.53691
2.56982
2.56542
2.56483
2.56741
2.55917
2.56265
2.56201
2.56562
2.51209
2.50881
2.49975
2.49345
2.47955
2.4969
2.49883
2.48543
2.47307
2.5169
2.46496
2.50843
2.49253
2.5232
2.45683
2.49872
2.52818
2.47362
2.4523
2.44603
2.43035
2.41042
2.4048
2.41609
2.44467
2.4666
2.48318
2.4464
2.4865
2.44814
2.56465
2.56144
2.57567
2.56978
2.57209
2.56913
2.56916
2.5666
2.59066
2.60311
2.58091
2.58242
2.59678
2.61004
2.60247
2.54739
2.53977
2.5602
2.55408
2.56034
2.55407
2.55837
2.54809
2.5516
2.58328
2.58933
2.57389
2.59192
2.57967
2.57698
2.57254
2.55842
2.56073
2.55621
2.56178
2.56144
2.56796
2.5615
2.56905
2.54014
2.53998
2.53805
2.53411
2.53927
2.5378
2.55663
2.53819
2.55752
2.549
2.55593
2.54369
2.56303
2.56566
2.56422
2.56553
2.55753
2.566
2.56542
2.56658
2.53422
2.53025
2.53935
2.53909
2.53359
2.5607
2.54636
2.5661
2.55201
2.56061
2.55247
2.56126
2.56432
2.5632
2.56429
2.56171
2.56703
2.55923
2.56342
2.51607
2.52088
2.50084
2.49727
2.48138
2.51343
2.50579
2.49932
2.48006
2.52902
2.43516
2.47225
2.50561
2.51369
2.4038
2.45619
2.55464
2.53914
2.55231
2.56548
2.55876
2.56563
2.44681
2.4484
2.3831
2.41493
2.38572
2.38077
2.41617
2.46235
2.49834
2.48575
2.47106
2.49984
2.42334
2.56015
2.55945
2.56356
2.56988
2.56208
2.56572
2.57021
2.56189
2.56887
2.58459
2.55977
2.5595
2.56941
2.5846
2.57171
2.5329
2.52918
2.55662
2.54174
2.54604
2.54646
2.55446
2.53701
2.54225
2.57254
2.56582
2.56372
2.57112
2.56704
2.55652
2.55787
2.55288
2.5664
2.54746
2.56917
2.56378
2.57034
2.56991
2.57413
2.52734
2.53834
2.53556
2.52249
2.5367
2.5331
2.56547
2.55009
2.56875
2.55674
2.5712
2.5543
2.57354
2.56855
2.56637
2.56807
2.57276
2.57285
2.5709
2.57093
2.53998
2.53466
2.54043
2.53771
2.53398
2.56375
2.5565
2.56238
2.55355
2.56586
2.55465
2.56384
2.56818
2.55914
2.56509
2.5671
2.56949
2.56083
2.5683
2.52561
2.52847
2.51131
2.50783
2.48676
2.52447
2.51681
2.51489
2.49526
2.52607
2.39506
2.47521
2.53462
2.55125
2.45944
2.50749
2.55478
2.54707
2.55791
2.56622
2.56152
2.56879
2.46218
2.48497
2.41091
2.43427
2.44164
2.4686
2.4758
2.48138
2.50612
2.51162
2.51822
2.5176
2.48046
2.55708
2.55243
2.57271
2.56865
2.56694
2.58049
2.56356
2.57166
2.55911
2.56035
2.57342
2.56179
2.55673
2.56346
2.55937
2.52726
2.52673
2.55081
2.53285
2.53735
2.53942
2.54574
2.52924
2.53243
2.56241
2.54912
2.55403
2.56127
2.56005
2.54532
2.55289
2.55072
2.54877
2.52094
2.53477
2.53123
2.52247
2.53337
2.53015
2.58435
2.55777
2.58253
2.55519
2.57917
2.5573
2.57848
2.57745
2.58067
2.57536
2.58604
2.57845
2.59249
2.58055
2.53414
2.53302
2.5371
2.5312
2.53227
2.57286
2.55598
2.57181
2.55375
2.5729
2.54946
2.56317
2.57178
2.5621
2.5716
2.58678
2.57559
2.57346
2.57334
2.5306
2.53192
2.52496
2.52222
2.50788
2.53128
2.52915
2.52753
2.51966
2.55811
2.53073
2.54174
2.57117
2.56293
2.59069
2.56732
2.5576
2.5124
2.53723
2.52302
2.50831
2.55011
2.56121
2.51779
2.54866
2.52122
2.5284
2.6214
2.51016
2.62047
2.5468
2.54039
2.58094
2.55768
2.57125
2.57521
2.55135
2.56616
2.56345
2.55512
2.57135
2.56252
2.55344
2.55699
2.55488
2.52741
2.52877
2.53994
2.52664
2.52707
2.53262
2.53371
2.52509
2.52108
2.55794
2.54484
2.55314
2.55775
2.55603
2.54566
2.55275
2.55132
2.55295
2.52562
2.53307
2.53006
2.52916
2.53375
2.53073
2.55444
2.59291
2.54991
2.54766
2.50429
2.52995
2.53233
2.53764
2.53046
2.53398
2.59968
2.53969
2.54407
2.50498
2.5411
2.53369
2.53601
2.53172
2.53268
2.52777
2.53396
2.53157
2.5359
2.53251
2.5627
2.61998
2.57738
2.57152
2.55924
2.61485
2.57723
2.55567
2.55164
2.5569
2.57767
2.53767
2.57841
2.58186
2.55557
2.66162
2.47914
2.53311
2.64505
2.46979
2.66053
2.53414
2.52944
2.56322
2.5437
2.55673
2.55014
2.53599
2.54591
2.55897
2.55058
2.55918
2.55435
2.54761
2.55296
2.55131
2.53029
2.53159
2.52653
2.52472
2.51699
2.52719
2.52082
2.52502
2.51574
2.55409
2.54733
2.55269
2.55363
2.55247
2.55007
2.55242
2.55313
2.55286
2.53337
2.53533
2.53234
2.53734
2.53817
2.53548
2.55212
2.54856
2.55211
2.55074
2.54989
2.53213
2.53739
2.54479
2.53525
2.54212
2.54486
2.54284
2.54674
2.54758
2.54316
2.53977
2.54513
2.53339
2.5381
2.53487
2.53669
2.53771
2.53901
2.53589
2.55482
2.59721
2.57162
2.55671
2.5508
2.58166
2.56496
2.5509
2.5617
2.56425
2.61244
2.67293
2.58143
2.65535
2.7495
2.62715
2.57929
2.59359
2.61089
2.64803
2.60001
2.52791
2.53054
2.54008
2.53054
2.53755
2.53668
2.52853
2.53321
2.5501
2.54643
2.54891
2.54731
2.54721
2.54965
2.54899
2.53394
2.53823
2.51968
2.52705
2.51864
2.53626
2.52387
2.53188
2.52486
2.55193
2.5498
2.55253
2.54951
2.55221
2.5495
2.55353
2.55315
2.55417
2.54062
2.5415
2.53952
2.54365
2.5471
2.5445
2.55018
2.55046
2.55367
2.55172
2.55308
2.54036
2.54768
2.55507
2.54909
2.55355
2.54997
2.54557
2.55329
2.55436
2.54968
2.55045
2.55312
2.54119
2.53914
2.53598
2.5411
2.54377
2.53932
2.53629
2.54957
2.5702
2.56096
2.54888
2.54953
2.56313
2.55852
2.55134
2.56119
2.55614
2.64435
2.70822
2.57544
2.61367
2.6386
2.5944
2.63349
2.58364
2.58155
2.60056
2.57463
2.53729
2.5468
2.53831
2.53099
2.5332
2.54376
2.53757
2.53774
2.54632
2.54964
2.55079
2.54749
2.55295
2.54994
2.552
2.54485
2.55339
2.53239
2.54025
2.53366
2.55753
2.5436
2.55107
2.54404
2.55346
2.55161
2.55556
2.54929
2.55527
2.55467
2.55809
2.55649
2.55925
2.54753
2.55353
2.54968
2.55287
2.55724
2.5537
2.55534
2.5573
2.56027
2.55982
2.56139
2.55813
2.55896
2.56691
2.56493
2.56383
2.55979
2.55482
2.56356
2.56353
2.56001
2.55441
2.55567
2.54278
2.53983
2.53822
2.54245
2.53778
2.53971
2.54063
2.55189
2.56178
2.55907
2.55416
2.55459
2.56114
2.56016
2.55768
2.55211
2.54963
2.5924
2.60066
2.56276
2.57806
2.58176
2.57561
2.58537
2.57133
2.57067
2.57638
2.56716
2.55762
2.56861
2.55266
2.54656
2.54601
2.56234
2.55625
2.55525
2.55148
2.55632
2.56264
2.55816
2.56059
2.5549
2.55813
2.56356
2.57456
2.55593
2.5626
2.55448
2.57926
2.56828
2.57423
2.56442
2.55757
2.55642
2.56069
2.55132
2.55994
2.55719
2.56319
2.56226
2.56452
2.55949
2.55759
2.55536
2.56689
2.56147
2.55936
2.56467
2.56576
2.568
2.56829
2.5691
2.57025
2.568
2.57069
2.57196
2.56968
2.56668
2.56506
2.57011
2.5692
2.5689
2.55588
2.5568
2.53329
2.54149
2.54278
2.54827
2.52991
2.54702
2.5464
2.55843
2.56196
2.56232
2.56069
2.56209
2.56317
2.56441
2.56479
2.55003
2.55145
2.57117
2.57304
2.55961
2.5675
2.5685
2.56947
2.57216
2.56835
2.56896
2.56994
2.5665
2.57865
2.58709
2.57085
2.56544
2.56371
2.57738
2.57349
2.57075
2.56533
2.56561
2.57479
2.57088
2.57024
2.56162
2.56535
2.58525
2.59439
2.5789
2.58596
2.57309
2.59572
2.58651
2.59619
2.58156
2.56266
2.55699
2.56556
2.5565
2.56577
2.55703
2.56791
2.56574
2.5667
2.57549
2.56885
2.5659
2.58435
2.57746
2.57352
2.57068
2.57123
2.57142
2.57207
2.57241
2.57284
2.5724
2.57613
2.57507
2.57663
2.57088
2.57253
2.57399
2.57206
2.57527
2.55935
2.56301
2.52951
2.5535
2.55097
2.55359
2.5342
2.55912
2.55626
2.56597
2.56383
2.56633
2.56432
2.56901
2.5646
2.56816
2.56977
2.55372
2.55643
2.56707
2.56624
2.56196
2.56756
2.56549
2.56938
2.56929
2.56836
2.57
2.56928
2.56743
2.59308
2.59698
2.5819
2.58039
2.57643
2.58463
2.58578
2.58098
2.57436
2.57329
2.58
2.57666
2.57534
2.56914
2.57243
2.60051
2.60154
2.59034
2.6036
2.58963
2.60257
2.59176
2.60686
2.59822
2.56888
2.55708
2.56892
2.5669
2.5713
2.55889
2.56882
2.56765
2.56807
2.59223
2.58567
2.57981
2.59866
2.59335
2.58516
2.5728
2.57285
2.57128
2.57311
2.57294
2.57931
2.58159
2.58639
2.58343
2.58475
2.57313
2.57618
2.57481
2.57341
2.57604
2.56707
2.57195
2.53816
2.5635
2.55946
2.55486
2.54135
2.56673
2.56169
2.57131
2.56583
2.56938
2.56972
2.57268
2.56693
2.57069
2.57332
2.55892
2.56156
2.56934
2.56592
2.56614
2.57116
2.56674
2.5709
2.56987
2.5697
2.57164
2.5706
2.56931
2.59951
2.60092
2.58588
2.58985
2.58416
2.58674
2.59241
2.58649
2.57857
2.57733
2.58256
2.58033
2.57946
2.57529
2.57742
2.60349
2.60454
2.59382
2.60492
2.60475
2.60333
2.59704
2.60372
2.60536
2.57304
2.56192
2.56805
2.57407
2.57347
2.56334
2.56669
2.56792
2.56737
2.60367
2.60053
2.58971
2.60442
2.60794
2.5966
2.57322
2.57272
2.57019
2.57337
2.57256
2.58688
2.58737
2.59435
2.59199
2.5936
2.5731
2.57388
2.57251
2.57256
2.57241
2.57813
2.5848
2.54199
2.57035
2.56299
2.56947
2.5499
2.57616
2.56675
2.57371
2.56913
2.57216
2.57185
2.57441
2.57121
2.57394
2.57571
2.56605
2.5729
2.57369
2.56894
2.56967
2.57547
2.57111
2.57267
2.57162
2.57229
2.57326
2.57248
2.57154
2.60088
2.59939
2.58786
2.59344
2.58827
2.58848
2.59302
2.5891
2.58184
2.58108
2.58392
2.58291
2.58228
2.57899
2.58041
2.60419
2.60275
2.59856
2.6045
2.6041
2.60094
2.59905
2.60327
2.60557
2.57337
2.56255
2.5658
2.57738
2.57372
2.56184
2.56554
2.56786
2.57021
2.6017
2.60744
2.60376
2.60196
2.60527
2.60629
2.57372
2.57259
2.56916
2.57428
2.57284
2.59789
2.60275
2.60539
2.60489
2.60973
2.5722
2.57112
2.57162
2.57233
2.57086
2.59498
2.60289
2.56396
2.58494
2.57391
2.5946
2.58122
2.59169
2.58233
2.57455
2.5732
2.57505
2.57209
2.57479
2.57395
2.57603
2.57622
2.58016
2.58435
2.57798
2.57416
2.57402
2.57858
2.57555
2.57386
2.57322
2.57361
2.57392
2.57334
2.57298
2.59622
2.59196
2.58772
2.59088
2.58796
2.58554
2.5873
2.58534
2.5835
2.58295
2.58326
2.58316
2.58305
2.58131
2.58118
2.60108
2.59787
2.59783
2.60062
2.60328
2.59417
2.59456
2.59682
2.59854
2.57443
2.56377
2.56771
2.58024
2.57549
2.56786
2.57272
2.57438
2.57891
2.60105
2.60675
2.60549
2.59753
2.60392
2.6012
2.57473
2.57305
2.56998
2.57477
2.57297
2.61143
2.61452
2.60735
2.60784
2.61187
2.57307
2.57226
2.57286
2.57331
2.5732
2.60749
2.60411
2.58984
2.59391
2.58467
2.5989
2.5895
2.59008
2.58057
2.57441
2.57408
2.5758
2.5706
2.57371
2.57268
2.57545
2.57553
2.58433
2.57754
2.57753
2.57529
2.57215
2.57482
2.57337
2.57337
2.57256
2.5715
2.57169
2.5709
2.57153
2.58713
2.58235
2.58246
2.58318
2.58211
2.57974
2.57947
2.57893
2.58158
2.58253
2.58053
2.57923
2.58093
2.58012
2.57875
2.59229
2.58661
2.58982
2.59183
2.59198
2.58557
2.58432
2.58623
2.58537
2.57666
2.57423
2.57925
2.57714
2.57726
2.57789
2.58519
2.58311
2.5869
2.5922
2.59603
2.59424
2.58608
2.58718
2.58648
2.57391
2.57227
2.57212
2.57226
2.57087
2.59944
2.6013
2.59028
2.58893
2.58983
2.57256
2.57371
2.57046
2.57066
2.57282
2.59568
2.58584
2.58105
2.58204
2.5731
2.58098
2.57072
2.57419
2.56554
2.57244
2.5708
2.57428
2.56819
2.57108
2.56937
2.57373
2.57289
2.57153
2.56642
2.57156
2.56992
2.56578
2.56708
2.56626
2.56906
2.56826
2.56607
2.56642
2.56558
2.56829
2.57825
2.57493