/*--------------------------------*- C++ -*----------------------------------*\
| =========                 |                                                 |
| \\      /  F ield         | OpenFOAM: The Open Source CFD Toolbox           |
|  \\    /   O peration     | Version:  5.x                                   |
|   \\  /    A nd           | Web:      www.OpenFOAM.org                      |
|    \\/     M anipulation  |                                                 |
\*---------------------------------------------------------------------------*/
FoamFile
{
    version     2.0;
    format      ascii;
    class       volVectorField;
    location    "4.6";
    object      Us;
}
// * * * * * * * * * * * * * * * * * * * * * * * * * * * * * * * * * * * * * //

dimensions      [0 1 -1 0 0 0 0];

internalField   nonuniform List<vector> 
10571
(
(-0.141385 -0.122894 0.0416923)
(-0.00203927 -0.00914064 0.0246585)
(-0.0376214 -0.158843 0.0480181)
(-0.164592 -0.201088 0.0528069)
(-0.0948264 -0.121737 0.0317234)
(-0.0645512 -0.0314553 0.0376176)
(-0.160225 -0.175202 0.037075)
(-0.204425 -0.239439 -0.0284781)
(-0.105976 -0.220627 -0.0570769)
(-0.0186886 -0.164034 -0.00597583)
(-0.0105582 -0.00717279 0.0367468)
(-0.0971235 0.0105448 -0.00075439)
(-0.258467 -0.139774 0.0255999)
(-0.194269 -0.131851 -0.0603515)
(-0.0794526 -0.111536 -0.10114)
(0.026828 -0.0922058 -0.0509401)
(-0.0530848 0.0572716 -0.00466705)
(-0.203226 0.0536365 -0.0181621)
(-0.163996 0.0158659 -0.0593887)
(-0.0642683 0.0100489 -0.0797735)
(0.0162654 -0.0262974 -0.0688594)
(-0.112885 0.0077136 0.0557935)
(-0.157735 0.0329867 -0.00890075)
(-0.0867724 0.0525488 -0.0511839)
(-0.0667432 -0.0465641 0.0940606)
(-0.0379447 0.0202874 0.111155)
(-0.0757611 -0.0382836 0.179037)
(-0.0981069 -0.174299 0.157757)
(-0.0735605 -0.112722 0.153573)
(-0.0685564 -0.0589701 0.205279)
(-0.123423 -0.12829 0.214838)
(-0.126025 -0.120062 0.122466)
(-0.0867656 -0.118794 0.0483134)
(-0.0559642 -0.125917 0.0809646)
(-0.0145559 -0.0446983 0.165273)
(-0.117257 -0.0633767 0.203709)
(-0.117503 -0.0130864 0.0534899)
(-0.114995 -0.00397398 -0.0550185)
(-0.082985 -0.0476491 -0.0714041)
(-0.0144134 -0.0777089 -0.0140138)
(-0.059411 0.000865779 0.13097)
(-0.154233 0.0176833 0.00124336)
(-0.146298 0.0314891 -0.0888848)
(-0.109754 0.0162663 -0.0750297)
(-0.00962833 -0.00145711 -0.0235169)
(-0.128475 0.0182315 0.261316)
(-0.160895 0.0231534 -0.0255536)
(-0.100669 0.0524256 -0.063925)
(-0.0458299 0.0304041 0.229788)
(-0.212096 0.0964743 0.293805)
(-0.197583 0.0480867 0.288871)
(-0.0619732 -0.0408103 0.283863)
(-0.049403 -0.0580525 0.247359)
(-0.0774421 -0.0911047 0.288544)
(-0.0963332 -0.049852 0.225568)
(-0.0767596 -0.0432904 0.139986)
(-0.107156 -0.0422562 0.0308058)
(-0.0671161 -0.07665 0.0372745)
(-0.0131085 -0.0520923 0.25654)
(-0.0753734 -0.070618 0.270729)
(-0.0826935 0.0182392 0.0547735)
(-0.0754031 0.0254055 -0.080421)
(-0.0938033 -0.0174452 -0.120657)
(-0.0625549 -0.0275953 -0.108344)
(-0.0860304 -0.0799923 0.153924)
(-0.128392 -0.0262341 -0.0259092)
(-0.119288 0.0181158 -0.107015)
(-0.0998018 0.015535 -0.144837)
(-0.0310817 0.0263955 -0.0991739)
(-0.235284 0.0147648 0.162479)
(-0.129541 0.00566774 -0.0652099)
(-0.0866915 0.0374632 -0.110182)
(-0.103201 -0.0300518 0.177298)
(-0.144051 0.073945 -0.372638)
(-0.23342 -0.0234919 0.283118)
(-0.0614785 -0.0757973 0.286181)
(-0.0335733 -0.0456687 0.261345)
(0 0 0)
(-0.0792012 -0.0211522 0.241135)
(-0.0389805 -0.00866916 0.188124)
(-0.0765085 -0.00305103 0.115923)
(-0.0491194 -0.0365044 0.0409224)
(-0.0111509 -0.0174951 0.285509)
(-0.107164 -0.02643 0.284008)
(0 0 0)
(0.0476965 0.184029 -0.528259)
(0.00754226 0.121317 -0.385895)
(-0.0538899 0.0562161 -0.293496)
(-0.244773 -0.193671 3.71685e-06)
(-0.115704 -0.169125 0.0523279)
(-0.120666 0.0343782 -0.146565)
(-0.080085 0.0481408 -0.218883)
(-0.0607088 0.0555043 -0.210363)
(-0.195413 -0.0167784 0.277686)
(-0.111412 0.00787946 -0.121297)
(-0.0938511 0.0457874 -0.169594)
(-0.123709 -0.0159356 -0.253777)
(-0.111317 0.0895964 -0.342059)
(-0.0923134 0.062708 -0.323521)
(0 0 0)
(-0.0566077 -0.0632224 0.233748)
(0 0 0)
(-0.0717084 0.0977751 -0.379625)
(0.0371511 0.121261 -0.448254)
(0.0703068 0.135874 -0.472613)
(0 0 0)
(0 0 0)
(0 0 0)
(0 0 0)
(0.0507845 0.18681 -0.491174)
(0.0970231 0.197948 -0.511156)
(-0.0691711 0.0960355 -0.360327)
(0 0 0)
(-0.115944 -0.153636 0.219086)
(0 0 0)
(0 0 0)
(-0.0754719 0.0896868 -0.284021)
(-0.0975232 -0.104955 0.262998)
(0.0172783 -0.0490809 0.222105)
(0 0 0)
(0 0 0)
(0 0 0)
(-0.0732936 0.0642254 -0.314741)
(0 0 0)
(0 0 0)
(0 0 0)
(-0.0742153 0.117172 -0.363989)
(0.0341613 0.115364 -0.392042)
(0.0838504 0.133692 -0.425942)
(0 0 0)
(-0.00416927 0.000861241 -0.00323329)
(0 0 0)
(0 0 0)
(0 0 0)
(0.0418724 0.179461 -0.441097)
(0.100333 0.176823 -0.467663)
(0.0886961 0.162887 -0.438264)
(-0.00482896 0.00301355 -0.00335579)
(0 0 0)
(0 0 0)
(0 0 0)
(0 0 0)
(0 0 0)
(0 0 0)
(0 0 0)
(0 0 0)
(0 0 0)
(0 0 0)
(-0.0824124 0.0602341 -0.268329)
(0 0 0)
(0 0 0)
(0 0 0)
(-0.0305442 0.0949257 -0.324562)
(0.0217397 0.111898 -0.363594)
(0.105291 0.137584 -0.397668)
(0 0 0)
(0.202941 0.113678 -0.446387)
(0 0 0)
(0 0 0)
(0 0 0)
(0.0484571 0.170521 -0.414241)
(0.0947499 0.171863 -0.422742)
(0.0938398 0.178044 -0.453414)
(-5.34635e-14 -7.07823e-14 1.64129e-13)
(0 0 0)
(0 0 0)
(0 0 0)
(0 0 0)
(0 0 0)
(0 0 0)
(0 0 0)
(0 0 0)
(0 0 0)
(0 0 0)
(0 0 0)
(-0.0842795 0.0459937 -0.209141)
(-0.025272 0.0531354 -0.198816)
(0 0 0)
(0 0 0)
(-0.0253012 0.0932265 -0.318538)
(0.0449311 0.125134 -0.33303)
(0.0970798 0.125026 -0.357956)
(0.0571283 0.12064 -0.394203)
(0.188708 0.119246 -0.402671)
(0 0 0)
(0 0 0)
(0 0 0)
(0 0 0)
(0.0913051 0.178625 -0.352813)
(0 0 0)
(0.136264 0.222547 -0.404119)
(0 0 0)
(0 0 0)
(0 0 0)
(0 0 0)
(0 0 0)
(0 0 0)
(0 0 0)
(0 0 0)
(0 0 0)
(0 0 0)
(-0.161424 0.0548105 -0.197003)
(0 0 0)
(-0.0295597 0.0521708 -0.136135)
(0 0 0)
(0 0 0)
(0 0 0)
(0.0349998 0.122027 -0.278244)
(0.0881203 0.114195 -0.304979)
(0.00445617 0.127997 -0.331595)
(0 0 0)
(0 0 0)
(0 0 0)
(0 0 0)
(0 0 0)
(0 0 0)
(0 0 0)
(0 0 0)
(0 0 0)
(0 0 0)
(0 0 0)
(0 0 0)
(0 0 0)
(0 0 0)
(0 0 0)
(0 0 0)
(0 0 0)
(-0.154545 0.0831975 -0.153863)
(0 0 0)
(0 0 0)
(0 0 0)
(0 0 0)
(-0.0414567 0.108654 -0.176594)
(0.0325564 0.111298 -0.240512)
(0.0855681 0.0972809 -0.248122)
(0.00250224 0.129546 -0.260696)
(0 0 0)
(0 0 0)
(0 0 0)
(0 0 0)
(0 0 0)
(0 0 0)
(0 0 0)
(0 0 0)
(0 0 0)
(0 0 0)
(0 0 0)
(0 0 0)
(0 0 0)
(0 0 0)
(0 0 0)
(0 0 0)
(0 0 0)
(0 0 0)
(0 0 0)
(0 0 0)
(-0.0384659 0.113474 -0.160327)
(0.017464 0.107516 -0.171991)
(0.082552 0.088756 -0.206478)
(0.0370892 0.126219 -0.234425)
(0 0 0)
(0 0 0)
(0 0 0)
(0 0 0)
(0 0 0)
(0 0 0)
(0 0 0)
(0 0 0)
(0 0 0)
(0 0 0)
(0 0 0)
(0 0 0)
(0 0 0)
(0 0 0)
(0 0 0)
(0 0 0)
(0 0 0)
(0 0 0)
(0.0768449 0.0485558 -0.130983)
(0 0 0)
(0 0 0)
(0.0265687 0.110972 -0.124502)
(0 0 0)
(0 0 0)
(0 0 0)
(0 0 0)
(0 0 0)
(0 0 0)
(0 0 0)
(0 0 0)
(0 0 0)
(0 0 0)
(0 0 0)
(0 0 0)
(0 0 0)
(0 0 0)
(0 0 0)
(0 0 0)
(0 0 0)
(0 0 0)
(0 0 0)
(-0.0234137 0.0610506 -0.0559823)
(0.0481032 0.0324866 -0.0744024)
(0 0 0)
(0 0 0)
(0 0 0)
(0 0 0)
(0 0 0)
(0 0 0)
(0 0 0)
(0 0 0)
(0 0 0)
(0 0 0)
(0 0 0)
(0 0 0)
(0 0 0)
(0 0 0)
(0 0 0)
(0 0 0)
(0 0 0)
(0 0 0)
(0 0 0)
(0 0 0)
(0 0 0)
(-0.108367 0.0612006 0.0415702)
(-0.0392796 0.0502539 0.0249413)
(0 0 0)
(0 0 0)
(0 0 0)
(0 0 0)
(0 0 0)
(0 0 0)
(0 0 0)
(0 0 0)
(0 0 0)
(0 0 0)
(0 0 0)
(0 0 0)
(0 0 0)
(0 0 0)
(0 0 0)
(0 0 0)
(0 0 0)
(0 0 0)
(0 0 0)
(0 0 0)
(0 0 0)
(0 0 0)
(-0.116166 0.0533534 0.155691)
(0 0 0)
(0 0 0)
(0 0 0)
(0 0 0)
(0 0 0)
(0 0 0)
(0 0 0)
(0 0 0)
(0 0 0)
(0 0 0)
(0 0 0)
(0 0 0)
(0 0 0)
(0 0 0)
(0 0 0)
(0 0 0)
(0 0 0)
(0 0 0)
(0 0 0)
(0 0 0)
(0 0 0)
(-0.0317272 0.00526495 0.126135)
(0 0 0)
(0 0 0)
(0 0 0)
(0 0 0)
(0 0 0)
(0 0 0)
(0 0 0)
(0 0 0)
(0 0 0)
(0 0 0)
(0 0 0)
(0 0 0)
(0 0 0)
(0 0 0)
(0 0 0)
(0 0 0)
(0 0 0)
(0 0 0)
(0 0 0)
(0 0 0)
(0 0 0)
(0 0 0)
(0 0 0)
(0 0 0)
(0 0 0)
(0 0 0)
(0 0 0)
(0 0 0)
(0 0 0)
(0 0 0)
(0 0 0)
(0 0 0)
(0 0 0)
(0 0 0)
(0 0 0)
(0 0 0)
(0 0 0)
(0 0 0)
(0 0 0)
(0 0 0)
(0 0 0)
(0 0 0)
(0 0 0)
(0 0 0)
(0 0 0)
(0 0 0)
(0 0 0)
(0 0 0)
(0 0 0)
(0 0 0)
(0 0 0)
(0 0 0)
(0 0 0)
(0 0 0)
(0 0 0)
(0 0 0)
(0 0 0)
(0 0 0)
(0 0 0)
(0 0 0)
(0 0 0)
(0 0 0)
(0 0 0)
(0 0 0)
(0 0 0)
(0 0 0)
(0 0 0)
(0 0 0)
(0 0 0)
(0 0 0)
(0 0 0)
(0 0 0)
(0 0 0)
(0 0 0)
(0 0 0)
(0 0 0)
(0 0 0)
(0 0 0)
(0 0 0)
(0 0 0)
(0 0 0)
(0 0 0)
(0 0 0)
(0 0 0)
(0 0 0)
(0 0 0)
(0 0 0)
(0 0 0)
(0 0 0)
(0 0 0)
(0 0 0)
(0 0 0)
(0 0 0)
(0 0 0)
(0 0 0)
(0 0 0)
(0 0 0)
(0 0 0)
(0 0 0)
(0 0 0)
(0 0 0)
(0 0 0)
(0 0 0)
(0 0 0)
(0 0 0)
(0 0 0)
(0 0 0)
(0 0 0)
(0 0 0)
(0 0 0)
(0 0 0)
(0 0 0)
(0 0 0)
(0 0 0)
(0 0 0)
(0 0 0)
(0 0 0)
(0 0 0)
(0 0 0)
(0 0 0)
(0 0 0)
(0 0 0)
(0 0 0)
(0 0 0)
(0 0 0)
(0 0 0)
(0 0 0)
(0 0 0)
(0 0 0)
(0 0 0)
(0 0 0)
(0 0 0)
(0 0 0)
(0 0 0)
(0 0 0)
(0 0 0)
(0 0 0)
(0 0 0)
(0 0 0)
(0 0 0)
(0 0 0)
(0 0 0)
(0 0 0)
(0 0 0)
(0 0 0)
(0 0 0)
(0 0 0)
(0 0 0)
(0 0 0)
(0 0 0)
(0 0 0)
(0 0 0)
(0 0 0)
(0 0 0)
(0 0 0)
(0 0 0)
(0 0 0)
(0 0 0)
(0 0 0)
(0 0 0)
(0 0 0)
(0 0 0)
(0 0 0)
(0 0 0)
(0 0 0)
(0 0 0)
(0 0 0)
(0 0 0)
(0 0 0)
(0 0 0)
(0 0 0)
(0 0 0)
(0 0 0)
(0 0 0)
(0 0 0)
(0 0 0)
(0 0 0)
(0 0 0)
(0 0 0)
(0 0 0)
(0 0 0)
(0 0 0)
(0 0 0)
(0 0 0)
(0 0 0)
(0 0 0)
(0 0 0)
(0 0 0)
(0 0 0)
(0 0 0)
(0 0 0)
(0 0 0)
(0 0 0)
(0 0 0)
(0 0 0)
(0 0 0)
(0 0 0)
(0 0 0)
(0 0 0)
(0 0 0)
(0 0 0)
(0 0 0)
(0 0 0)
(0 0 0)
(0 0 0)
(0 0 0)
(0 0 0)
(0 0 0)
(0 0 0)
(0 0 0)
(0 0 0)
(0 0 0)
(0 0 0)
(0 0 0)
(0 0 0)
(0 0 0)
(0 0 0)
(0 0 0)
(0 0 0)
(0 0 0)
(0 0 0)
(0 0 0)
(0 0 0)
(0 0 0)
(0 0 0)
(0 0 0)
(0 0 0)
(0 0 0)
(0 0 0)
(0 0 0)
(0 0 0)
(0 0 0)
(0 0 0)
(0 0 0)
(0 0 0)
(0 0 0)
(0 0 0)
(0 0 0)
(0 0 0)
(0 0 0)
(0 0 0)
(0 0 0)
(0 0 0)
(0 0 0)
(0 0 0)
(0 0 0)
(0 0 0)
(0 0 0)
(0 0 0)
(0 0 0)
(0 0 0)
(0 0 0)
(0 0 0)
(0 0 0)
(0 0 0)
(0 0 0)
(0 0 0)
(0 0 0)
(0 0 0)
(0 0 0)
(0 0 0)
(0 0 0)
(0 0 0)
(0 0 0)
(0 0 0)
(0 0 0)
(0 0 0)
(0 0 0)
(0 0 0)
(0 0 0)
(0 0 0)
(0 0 0)
(0 0 0)
(0 0 0)
(0 0 0)
(0 0 0)
(0 0 0)
(0 0 0)
(0 0 0)
(0 0 0)
(0 0 0)
(0 0 0)
(0 0 0)
(0 0 0)
(0 0 0)
(0 0 0)
(0 0 0)
(0 0 0)
(0 0 0)
(0 0 0)
(0 0 0)
(0 0 0)
(0 0 0)
(0 0 0)
(0 0 0)
(0 0 0)
(0 0 0)
(0 0 0)
(0 0 0)
(0 0 0)
(0 0 0)
(0 0 0)
(0 0 0)
(0 0 0)
(0 0 0)
(0 0 0)
(0 0 0)
(0 0 0)
(0 0 0)
(0 0 0)
(0 0 0)
(0 0 0)
(0 0 0)
(0 0 0)
(0 0 0)
(0 0 0)
(0 0 0)
(0 0 0)
(0 0 0)
(0 0 0)
(0 0 0)
(0 0 0)
(0 0 0)
(0 0 0)
(0 0 0)
(0 0 0)
(0 0 0)
(0 0 0)
(0 0 0)
(0 0 0)
(0 0 0)
(0 0 0)
(0 0 0)
(0 0 0)
(0 0 0)
(0 0 0)
(0 0 0)
(0 0 0)
(0 0 0)
(0 0 0)
(0 0 0)
(0 0 0)
(0 0 0)
(0 0 0)
(0 0 0)
(0 0 0)
(0 0 0)
(0 0 0)
(0 0 0)
(0 0 0)
(0 0 0)
(0 0 0)
(0 0 0)
(0 0 0)
(0 0 0)
(0 0 0)
(0 0 0)
(0 0 0)
(0 0 0)
(0 0 0)
(0 0 0)
(0 0 0)
(0 0 0)
(0 0 0)
(0 0 0)
(0 0 0)
(0 0 0)
(0 0 0)
(0 0 0)
(0 0 0)
(0 0 0)
(0 0 0)
(0 0 0)
(0 0 0)
(0 0 0)
(0 0 0)
(0 0 0)
(0 0 0)
(0 0 0)
(0 0 0)
(0 0 0)
(0 0 0)
(0 0 0)
(0 0 0)
(0 0 0)
(0 0 0)
(0 0 0)
(0 0 0)
(0 0 0)
(0 0 0)
(0 0 0)
(0 0 0)
(0 0 0)
(0 0 0)
(0 0 0)
(0 0 0)
(0 0 0)
(0 0 0)
(0 0 0)
(0 0 0)
(0 0 0)
(0 0 0)
(0 0 0)
(0 0 0)
(0 0 0)
(0 0 0)
(0 0 0)
(0 0 0)
(0 0 0)
(0 0 0)
(0 0 0)
(0 0 0)
(0 0 0)
(0 0 0)
(0 0 0)
(0 0 0)
(0 0 0)
(0 0 0)
(0 0 0)
(0 0 0)
(0 0 0)
(0 0 0)
(0 0 0)
(0 0 0)
(0 0 0)
(0 0 0)
(0 0 0)
(0 0 0)
(0 0 0)
(0 0 0)
(0 0 0)
(0 0 0)
(0 0 0)
(0 0 0)
(0 0 0)
(0 0 0)
(0 0 0)
(0 0 0)
(0 0 0)
(0 0 0)
(0 0 0)
(0 0 0)
(0 0 0)
(0 0 0)
(0 0 0)
(0 0 0)
(0 0 0)
(0 0 0)
(0 0 0)
(0 0 0)
(0 0 0)
(0 0 0)
(0 0 0)
(0 0 0)
(0 0 0)
(0 0 0)
(0 0 0)
(0 0 0)
(0 0 0)
(0 0 0)
(0 0 0)
(0 0 0)
(0 0 0)
(0 0 0)
(0 0 0)
(0 0 0)
(0 0 0)
(0 0 0)
(0 0 0)
(0 0 0)
(0 0 0)
(0 0 0)
(0 0 0)
(0 0 0)
(0 0 0)
(0 0 0)
(0 0 0)
(0 0 0)
(0 0 0)
(0 0 0)
(0 0 0)
(0 0 0)
(0 0 0)
(0 0 0)
(0 0 0)
(0 0 0)
(0 0 0)
(0 0 0)
(0 0 0)
(0 0 0)
(0 0 0)
(0 0 0)
(0 0 0)
(0 0 0)
(0 0 0)
(0 0 0)
(0 0 0)
(0 0 0)
(0 0 0)
(0 0 0)
(0 0 0)
(0 0 0)
(0 0 0)
(0 0 0)
(0 0 0)
(0 0 0)
(0 0 0)
(0 0 0)
(0 0 0)
(0 0 0)
(0 0 0)
(0 0 0)
(0 0 0)
(0 0 0)
(0 0 0)
(0 0 0)
(0 0 0)
(0 0 0)
(0 0 0)
(0 0 0)
(0 0 0)
(0 0 0)
(0 0 0)
(0 0 0)
(0 0 0)
(0 0 0)
(0 0 0)
(0 0 0)
(0 0 0)
(0 0 0)
(0 0 0)
(0 0 0)
(0 0 0)
(0 0 0)
(0 0 0)
(0 0 0)
(0 0 0)
(0 0 0)
(0 0 0)
(0 0 0)
(0 0 0)
(0 0 0)
(0 0 0)
(0 0 0)
(0 0 0)
(0 0 0)
(0 0 0)
(0 0 0)
(0 0 0)
(0 0 0)
(0 0 0)
(0 0 0)
(0 0 0)
(0 0 0)
(0 0 0)
(0 0 0)
(0 0 0)
(0 0 0)
(0 0 0)
(0 0 0)
(0 0 0)
(0 0 0)
(0 0 0)
(0 0 0)
(0 0 0)
(0 0 0)
(0 0 0)
(0 0 0)
(0 0 0)
(0 0 0)
(0 0 0)
(0 0 0)
(0 0 0)
(0 0 0)
(0 0 0)
(0 0 0)
(0 0 0)
(0 0 0)
(0 0 0)
(0 0 0)
(0 0 0)
(0 0 0)
(0 0 0)
(0 0 0)
(0 0 0)
(0 0 0)
(0 0 0)
(0 0 0)
(0 0 0)
(0 0 0)
(0 0 0)
(0 0 0)
(0 0 0)
(0 0 0)
(0 0 0)
(0 0 0)
(0 0 0)
(0 0 0)
(0 0 0)
(0 0 0)
(0 0 0)
(0 0 0)
(0 0 0)
(0 0 0)
(0 0 0)
(0 0 0)
(0 0 0)
(0 0 0)
(0 0 0)
(0 0 0)
(0 0 0)
(0 0 0)
(0 0 0)
(0 0 0)
(0 0 0)
(0 0 0)
(0 0 0)
(0 0 0)
(0 0 0)
(0 0 0)
(0 0 0)
(0 0 0)
(0 0 0)
(0 0 0)
(0 0 0)
(0 0 0)
(0 0 0)
(0 0 0)
(0 0 0)
(0 0 0)
(0 0 0)
(0 0 0)
(0 0 0)
(0 0 0)
(0 0 0)
(0 0 0)
(0 0 0)
(0 0 0)
(0 0 0)
(0 0 0)
(0 0 0)
(0 0 0)
(0 0 0)
(0 0 0)
(0 0 0)
(0 0 0)
(0 0 0)
(0 0 0)
(0 0 0)
(0 0 0)
(0 0 0)
(0 0 0)
(0 0 0)
(0 0 0)
(0 0 0)
(0 0 0)
(0 0 0)
(0 0 0)
(0 0 0)
(0 0 0)
(0 0 0)
(0 0 0)
(0 0 0)
(0 0 0)
(0 0 0)
(0 0 0)
(0 0 0)
(0 0 0)
(0 0 0)
(0 0 0)
(0 0 0)
(0 0 0)
(0 0 0)
(0 0 0)
(0 0 0)
(0 0 0)
(0 0 0)
(0 0 0)
(0 0 0)
(0 0 0)
(0 0 0)
(0 0 0)
(0 0 0)
(0 0 0)
(0 0 0)
(0 0 0)
(0 0 0)
(0 0 0)
(0 0 0)
(0 0 0)
(0 0 0)
(0 0 0)
(0 0 0)
(0 0 0)
(0 0 0)
(0 0 0)
(0 0 0)
(0 0 0)
(0 0 0)
(0 0 0)
(0 0 0)
(0 0 0)
(0 0 0)
(0 0 0)
(0 0 0)
(0 0 0)
(0 0 0)
(0 0 0)
(0 0 0)
(0 0 0)
(0 0 0)
(0 0 0)
(0 0 0)
(0 0 0)
(0 0 0)
(0 0 0)
(0 0 0)
(0 0 0)
(0 0 0)
(0 0 0)
(0 0 0)
(0 0 0)
(0 0 0)
(0 0 0)
(0 0 0)
(0 0 0)
(0 0 0)
(0 0 0)
(0 0 0)
(0 0 0)
(0 0 0)
(0 0 0)
(0 0 0)
(0 0 0)
(0 0 0)
(0 0 0)
(0 0 0)
(0 0 0)
(0 0 0)
(0 0 0)
(0 0 0)
(0 0 0)
(0 0 0)
(0 0 0)
(0 0 0)
(0 0 0)
(0 0 0)
(0 0 0)
(0 0 0)
(0 0 0)
(0 0 0)
(0 0 0)
(0 0 0)
(0 0 0)
(0 0 0)
(0 0 0)
(0 0 0)
(0 0 0)
(0 0 0)
(0 0 0)
(0 0 0)
(0 0 0)
(0 0 0)
(0 0 0)
(0 0 0)
(0 0 0)
(0 0 0)
(0 0 0)
(0 0 0)
(0 0 0)
(0 0 0)
(0 0 0)
(0 0 0)
(0 0 0)
(0 0 0)
(0 0 0)
(0 0 0)
(0 0 0)
(0 0 0)
(0 0 0)
(0 0 0)
(0 0 0)
(0 0 0)
(0 0 0)
(0 0 0)
(0 0 0)
(0 0 0)
(0 0 0)
(0 0 0)
(0 0 0)
(0 0 0)
(0 0 0)
(0 0 0)
(0 0 0)
(0 0 0)
(0 0 0)
(0 0 0)
(0 0 0)
(0 0 0)
(0 0 0)
(0 0 0)
(0 0 0)
(0 0 0)
(0 0 0)
(0 0 0)
(0 0 0)
(0 0 0)
(0 0 0)
(0 0 0)
(0 0 0)
(0 0 0)
(0 0 0)
(0 0 0)
(0 0 0)
(0 0 0)
(0 0 0)
(0 0 0)
(0 0 0)
(0 0 0)
(0 0 0)
(0 0 0)
(0 0 0)
(0 0 0)
(0 0 0)
(0 0 0)
(0 0 0)
(0 0 0)
(0 0 0)
(0 0 0)
(0 0 0)
(0 0 0)
(0 0 0)
(0 0 0)
(0 0 0)
(0 0 0)
(0 0 0)
(0 0 0)
(0 0 0)
(0 0 0)
(0 0 0)
(0 0 0)
(0 0 0)
(0 0 0)
(0 0 0)
(0 0 0)
(0 0 0)
(0 0 0)
(0 0 0)
(0 0 0)
(0 0 0)
(0 0 0)
(0 0 0)
(0 0 0)
(0 0 0)
(0 0 0)
(0 0 0)
(0 0 0)
(0 0 0)
(0 0 0)
(0 0 0)
(0 0 0)
(0 0 0)
(0 0 0)
(0 0 0)
(0 0 0)
(0 0 0)
(0 0 0)
(0 0 0)
(0 0 0)
(0 0 0)
(0 0 0)
(0 0 0)
(0 0 0)
(0 0 0)
(0 0 0)
(0 0 0)
(0 0 0)
(0 0 0)
(0 0 0)
(0 0 0)
(0 0 0)
(0 0 0)
(0 0 0)
(0 0 0)
(0 0 0)
(0 0 0)
(0 0 0)
(0 0 0)
(0 0 0)
(0 0 0)
(0 0 0)
(0 0 0)
(0 0 0)
(0 0 0)
(0 0 0)
(0 0 0)
(0 0 0)
(0 0 0)
(0 0 0)
(0 0 0)
(0 0 0)
(0 0 0)
(0 0 0)
(0 0 0)
(0 0 0)
(0 0 0)
(0 0 0)
(0 0 0)
(0 0 0)
(0 0 0)
(0 0 0)
(0 0 0)
(0 0 0)
(0 0 0)
(0 0 0)
(0 0 0)
(0 0 0)
(0 0 0)
(0 0 0)
(0 0 0)
(0 0 0)
(0 0 0)
(0 0 0)
(0 0 0)
(0 0 0)
(0 0 0)
(0 0 0)
(0 0 0)
(0 0 0)
(0 0 0)
(0 0 0)
(0 0 0)
(0 0 0)
(0 0 0)
(0 0 0)
(0 0 0)
(0 0 0)
(0 0 0)
(0 0 0)
(0 0 0)
(0 0 0)
(0 0 0)
(0 0 0)
(0 0 0)
(0 0 0)
(0 0 0)
(0 0 0)
(0 0 0)
(0 0 0)
(0 0 0)
(0 0 0)
(0 0 0)
(0 0 0)
(0 0 0)
(0 0 0)
(0 0 0)
(0 0 0)
(0 0 0)
(0 0 0)
(0 0 0)
(0 0 0)
(0 0 0)
(0 0 0)
(0 0 0)
(0 0 0)
(0 0 0)
(0 0 0)
(0 0 0)
(0 0 0)
(0 0 0)
(0 0 0)
(0 0 0)
(0 0 0)
(0 0 0)
(0 0 0)
(0 0 0)
(0 0 0)
(0 0 0)
(0 0 0)
(0 0 0)
(0 0 0)
(0 0 0)
(0 0 0)
(0 0 0)
(0 0 0)
(0 0 0)
(0 0 0)
(0 0 0)
(0 0 0)
(0 0 0)
(0 0 0)
(0 0 0)
(0 0 0)
(0 0 0)
(0 0 0)
(0 0 0)
(0 0 0)
(0 0 0)
(0 0 0)
(0 0 0)
(0 0 0)
(0 0 0)
(0 0 0)
(0 0 0)
(0 0 0)
(0 0 0)
(0 0 0)
(0 0 0)
(0 0 0)
(0 0 0)
(0 0 0)
(0 0 0)
(0 0 0)
(0 0 0)
(0 0 0)
(0 0 0)
(0 0 0)
(0 0 0)
(0 0 0)
(0 0 0)
(0 0 0)
(0 0 0)
(0 0 0)
(0 0 0)
(0 0 0)
(0 0 0)
(0 0 0)
(0 0 0)
(0 0 0)
(0 0 0)
(0 0 0)
(0 0 0)
(0 0 0)
(0 0 0)
(0 0 0)
(0 0 0)
(0 0 0)
(0 0 0)
(0 0 0)
(0 0 0)
(0 0 0)
(0 0 0)
(0 0 0)
(0 0 0)
(0 0 0)
(0 0 0)
(0 0 0)
(0 0 0)
(0 0 0)
(0 0 0)
(0 0 0)
(0 0 0)
(0 0 0)
(0 0 0)
(0 0 0)
(0 0 0)
(0 0 0)
(0 0 0)
(0 0 0)
(0 0 0)
(0 0 0)
(0 0 0)
(0 0 0)
(0 0 0)
(0 0 0)
(0 0 0)
(0 0 0)
(0 0 0)
(0 0 0)
(0 0 0)
(0 0 0)
(0 0 0)
(0 0 0)
(0 0 0)
(0 0 0)
(0 0 0)
(0 0 0)
(0 0 0)
(0 0 0)
(0 0 0)
(0 0 0)
(0 0 0)
(0 0 0)
(0 0 0)
(0 0 0)
(0 0 0)
(0 0 0)
(0 0 0)
(0 0 0)
(0 0 0)
(0 0 0)
(0 0 0)
(0 0 0)
(0 0 0)
(0 0 0)
(0 0 0)
(0 0 0)
(0 0 0)
(0 0 0)
(0 0 0)
(0 0 0)
(0 0 0)
(0 0 0)
(0 0 0)
(0 0 0)
(0 0 0)
(0 0 0)
(0 0 0)
(0 0 0)
(0 0 0)
(0 0 0)
(0 0 0)
(0 0 0)
(0 0 0)
(0 0 0)
(0 0 0)
(0 0 0)
(0 0 0)
(0 0 0)
(0 0 0)
(0 0 0)
(0 0 0)
(0 0 0)
(0 0 0)
(0 0 0)
(0 0 0)
(0 0 0)
(0 0 0)
(0 0 0)
(0 0 0)
(0 0 0)
(0 0 0)
(0 0 0)
(0 0 0)
(0 0 0)
(0 0 0)
(0 0 0)
(0 0 0)
(0 0 0)
(0 0 0)
(0 0 0)
(0 0 0)
(0 0 0)
(0 0 0)
(0 0 0)
(0 0 0)
(0 0 0)
(0 0 0)
(0 0 0)
(0 0 0)
(0 0 0)
(0 0 0)
(0 0 0)
(0 0 0)
(0 0 0)
(0 0 0)
(0 0 0)
(0 0 0)
(0 0 0)
(0 0 0)
(0 0 0)
(0 0 0)
(0 0 0)
(0 0 0)
(0 0 0)
(0 0 0)
(0 0 0)
(0 0 0)
(0 0 0)
(0 0 0)
(0 0 0)
(0 0 0)
(0 0 0)
(0 0 0)
(0 0 0)
(0 0 0)
(0 0 0)
(0 0 0)
(0 0 0)
(0 0 0)
(0 0 0)
(0 0 0)
(0 0 0)
(0 0 0)
(0 0 0)
(0 0 0)
(0 0 0)
(0 0 0)
(0 0 0)
(0 0 0)
(0 0 0)
(0 0 0)
(0 0 0)
(0 0 0)
(0 0 0)
(0 0 0)
(0 0 0)
(0 0 0)
(0 0 0)
(0 0 0)
(0 0 0)
(0 0 0)
(0 0 0)
(0 0 0)
(0 0 0)
(0 0 0)
(0 0 0)
(0 0 0)
(0 0 0)
(0 0 0)
(0 0 0)
(0 0 0)
(0 0 0)
(0 0 0)
(0 0 0)
(0 0 0)
(0 0 0)
(0 0 0)
(0 0 0)
(0 0 0)
(0 0 0)
(0 0 0)
(0 0 0)
(0 0 0)
(0 0 0)
(0 0 0)
(0 0 0)
(0 0 0)
(0 0 0)
(0 0 0)
(0 0 0)
(0 0 0)
(0 0 0)
(0 0 0)
(0 0 0)
(0 0 0)
(0 0 0)
(0 0 0)
(0 0 0)
(0 0 0)
(0 0 0)
(0 0 0)
(0 0 0)
(0 0 0)
(0 0 0)
(0 0 0)
(0 0 0)
(0 0 0)
(0 0 0)
(0 0 0)
(0 0 0)
(0 0 0)
(0 0 0)
(0 0 0)
(0 0 0)
(0 0 0)
(0 0 0)
(0 0 0)
(0 0 0)
(0 0 0)
(0 0 0)
(0 0 0)
(0 0 0)
(0 0 0)
(0 0 0)
(0 0 0)
(0 0 0)
(0 0 0)
(0 0 0)
(0 0 0)
(0 0 0)
(0 0 0)
(0 0 0)
(0 0 0)
(0 0 0)
(0 0 0)
(0 0 0)
(0 0 0)
(0 0 0)
(0 0 0)
(0 0 0)
(0 0 0)
(0 0 0)
(0 0 0)
(0 0 0)
(0 0 0)
(0 0 0)
(0 0 0)
(0 0 0)
(0 0 0)
(0 0 0)
(0 0 0)
(0 0 0)
(0 0 0)
(0 0 0)
(0 0 0)
(0 0 0)
(0 0 0)
(0 0 0)
(0 0 0)
(0 0 0)
(0 0 0)
(0 0 0)
(0 0 0)
(0 0 0)
(0 0 0)
(0 0 0)
(0 0 0)
(0 0 0)
(0 0 0)
(0 0 0)
(0 0 0)
(0 0 0)
(0 0 0)
(0 0 0)
(0 0 0)
(0 0 0)
(0 0 0)
(0 0 0)
(0 0 0)
(0 0 0)
(0 0 0)
(0 0 0)
(0 0 0)
(0 0 0)
(0 0 0)
(0 0 0)
(0 0 0)
(0 0 0)
(0 0 0)
(0 0 0)
(0 0 0)
(0 0 0)
(0 0 0)
(0 0 0)
(0 0 0)
(0 0 0)
(0 0 0)
(0 0 0)
(0 0 0)
(0 0 0)
(0 0 0)
(0 0 0)
(0 0 0)
(0 0 0)
(0 0 0)
(0 0 0)
(0 0 0)
(0 0 0)
(0 0 0)
(0 0 0)
(0 0 0)
(0 0 0)
(0 0 0)
(0 0 0)
(0 0 0)
(0 0 0)
(0 0 0)
(0 0 0)
(0 0 0)
(0 0 0)
(0 0 0)
(0 0 0)
(0 0 0)
(0 0 0)
(0 0 0)
(0 0 0)
(0 0 0)
(0 0 0)
(0 0 0)
(0 0 0)
(0 0 0)
(0 0 0)
(0 0 0)
(0 0 0)
(0 0 0)
(0 0 0)
(0 0 0)
(0 0 0)
(0 0 0)
(0 0 0)
(0 0 0)
(0 0 0)
(0 0 0)
(0 0 0)
(0 0 0)
(0 0 0)
(0 0 0)
(0 0 0)
(0 0 0)
(0 0 0)
(0 0 0)
(0 0 0)
(0 0 0)
(0 0 0)
(0 0 0)
(0 0 0)
(0 0 0)
(0 0 0)
(0 0 0)
(0 0 0)
(0 0 0)
(0 0 0)
(0 0 0)
(0 0 0)
(0 0 0)
(0 0 0)
(0 0 0)
(0 0 0)
(0 0 0)
(0 0 0)
(0 0 0)
(0 0 0)
(0 0 0)
(0 0 0)
(0 0 0)
(0 0 0)
(0 0 0)
(0 0 0)
(0 0 0)
(0 0 0)
(0 0 0)
(0 0 0)
(0 0 0)
(0 0 0)
(0 0 0)
(0 0 0)
(0 0 0)
(0 0 0)
(0 0 0)
(0 0 0)
(0 0 0)
(0 0 0)
(0 0 0)
(0 0 0)
(0 0 0)
(0 0 0)
(0 0 0)
(0 0 0)
(0 0 0)
(0 0 0)
(0 0 0)
(0 0 0)
(0 0 0)
(0 0 0)
(0 0 0)
(0 0 0)
(0 0 0)
(-0.00526853 -0.00456635 0.00372242)
(-0.0407439 -0.0181324 0.0186685)
(-0.0146193 -0.0121256 0.00648285)
(-0.0414421 -0.0396178 0.0145707)
(-0.0398578 -0.0221933 0.0132561)
(-0.067213 -0.0519131 0.0154615)
(-0.0664611 -0.0306014 0.00231673)
(-0.0352027 -0.0246726 -0.00649763)
(0.00426234 -0.00222117 -0.00303419)
(0.0027221 -0.000471984 -0.00136545)
(-0.00328564 -0.0119548 0.00535505)
(0.00837491 -0.00296299 -0.00229246)
(-0.0376442 -0.0427229 0.00599712)
(-0.0304484 -0.0487533 0.0101073)
(-0.0541899 -0.0781511 0.0177591)
(-0.0651224 -0.0852939 0.00532655)
(-0.0846002 -0.0993484 0.00989225)
(-0.082887 -0.0950096 0.00875877)
(-0.0921267 -0.0837171 -0.000637185)
(-0.10677 -0.112184 -6.77178e-05)
(-0.123604 -0.121364 -0.00692016)
(-0.0640389 -0.0531528 -0.00192095)
(-0.0286356 -0.0226338 -0.00479663)
(-0.0982708 -0.100257 -0.0059906)
(-0.0517018 -0.0521603 -0.00377801)
(-0.0234671 -0.0242784 -0.00802931)
(0.00303811 -8.1904e-05 -0.00605451)
(0.0031149 -0.00366798 -0.00467573)
(-0.00294133 -0.00134172 -0.00619174)
(-0.00627632 -0.00333641 -0.00824454)
(-0.0714625 -0.0540701 -0.00105944)
(-0.0485789 -0.0026851 -0.0129659)
(-0.100939 -0.0378057 -0.00426852)
(-0.0979157 -0.0864908 0.00347674)
(-0.120679 -0.112534 0.00225001)
(-0.114863 -0.0769704 0.000848798)
(-0.163043 -0.115077 -0.00380502)
(-0.142052 -0.128168 -0.00447606)
(-0.130779 -0.146115 -0.0245897)
(-0.16861 -0.125774 -0.0146542)
(-0.131224 -0.140059 -0.0449898)
(-0.0998957 -0.13369 -0.0207137)
(-0.0650769 -0.0884778 -0.0159055)
(-0.0875408 -0.133136 -0.0561089)
(-0.0384034 -0.116966 -0.0422977)
(-0.0320632 -0.0429596 -0.0078664)
(-0.022888 -0.0404649 -0.0100348)
(-0.00844327 -0.0136687 -0.00737539)
(0.00191528 0.00116612 -0.00361377)
(-0.00389633 0.00426766 -0.00395647)
(0.00104221 0.00499639 -0.000512062)
(-0.0477753 -0.00516878 -0.00130027)
(-0.0989037 -0.0304428 -6.78821e-05)
(-0.0221086 0.0057557 0.00387178)
(-0.0898792 -0.00178575 0.00729429)
(-0.134475 -0.0613876 0.00283376)
(-0.199949 -0.0955864 -0.0102668)
(-0.172974 -0.0411223 0.00520522)
(-0.202642 -0.0750407 -0.00598978)
(-0.175839 -0.100516 -0.0304591)
(-0.126535 -0.0964925 -0.0496071)
(-0.16054 -0.0753571 -0.0236761)
(-0.111271 -0.0631425 -0.0426864)
(-0.0798572 -0.0863131 -0.0599657)
(-0.022137 -0.0728937 -0.0499394)
(-0.0682922 -0.0475783 -0.046662)
(-0.0180689 -0.0329579 -0.0394681)
(-0.0063152 -0.024578 -0.0100115)
(-0.00572902 -0.0040661 -0.0058231)
(-0.0070707 -0.01307 -0.0133355)
(0.0014322 0.00222173 0.000237069)
(-0.0126571 0.000987663 0.00398808)
(-0.107967 0.0106665 0.0234723)
(-0.0133929 -0.00436225 0.00333372)
(-0.0590314 -0.00163883 0.0182978)
(-0.197689 -0.0233513 0.00641961)
(-0.202826 -0.0262979 -0.0298912)
(-0.135063 -0.0145511 0.0176651)
(-0.159537 -0.0218662 -0.0142854)
(-0.146655 -0.0266215 -0.0372157)
(-0.0919201 -0.0173521 -0.0363619)
(-0.12398 -0.0133716 -0.0246835)
(-0.0724813 -0.00919766 -0.0204098)
(-0.0497837 -0.00503428 -0.0350507)
(-0.0105989 -0.00120306 -0.0284234)
(-0.038666 -0.000110788 -0.0209229)
(-0.0165491 0.00328171 -0.0167917)
(-0.000376317 -0.0060967 -0.0100304)
(-0.0494243 -0.0106156 0.00958092)
(-0.0811366 -0.0183965 0.0122299)
(-0.107528 -0.0116076 0.00419409)
(-0.0623245 -0.0108246 -0.0010473)
(-0.0981116 0.00231255 -0.00842208)
(-0.0625755 0.011604 -0.0122108)
(-0.0668349 -0.00316293 -0.00490273)
(-0.0280798 0.00906436 -0.0196426)
(0.0286803 -0.0207126 0.0103742)
(-0.00474821 -0.0007017 0.0540428)
(-0.0712174 -0.175691 0.0484894)
(0.0605261 -0.0625327 0.0351453)
(-0.106798 -0.186245 0.0540002)
(0.00201742 -0.0833577 0.0863893)
(0.0385403 -0.0495958 0.0730223)
(-0.0434291 -0.15125 0.0912139)
(-0.148781 -0.144361 0.0422291)
(-0.123326 -0.0702199 0.0165272)
(-0.102121 -0.0989255 0.0545504)
(-0.111729 -0.141309 0.0597458)
(-0.0948636 -0.0744933 0.0435331)
(-0.0967289 -0.0618454 0.00306101)
(-0.0778143 -0.0584579 0.039023)
(-0.00670148 0.000148558 0.0390408)
(-0.00746884 -0.000622575 0.0931342)
(0.00678481 -0.0428954 0.036003)
(-0.0200008 -0.0201319 0.0449679)
(-0.0195529 -0.0703105 0.0385944)
(-0.0117774 0.00138229 0.0661003)
(-0.0234548 -0.0210598 0.0913881)
(-0.0275242 -0.0172243 0.106968)
(-0.0357295 -0.059339 0.115261)
(-0.0673058 -0.0889539 0.0166588)
(-0.106663 -0.242133 0.00368959)
(-0.0662175 -0.168023 0.0156577)
(-0.0886278 -0.1356 0.080457)
(-0.0705534 -0.0973349 0.0678723)
(-0.0976297 -0.209941 0.0705085)
(-0.0690954 -0.154318 0.0707169)
(-0.0531116 -0.121118 0.0187362)
(-0.0554299 -0.112698 0.0630271)
(-0.0241609 -0.0126808 0.0580037)
(-0.00872833 0.00255459 0.0395782)
(-0.0526638 0.00354327 0.0407313)
(-0.0272564 -0.0102266 0.125376)
(-0.0102199 -0.00929695 0.0988132)
(-0.0591222 -0.00769738 0.119976)
(0.0150819 -0.147537 -0.0397347)
(0.000252633 -0.123121 -0.0137367)
(-0.0332201 -0.139567 0.0466025)
(-0.000513154 -0.134156 0.0156484)
(-0.00947738 -0.103582 0.0288986)
(-0.0557539 0.00249285 0.0328135)
(-0.027264 -0.0108037 0.0187643)
(-0.0120366 -0.0243777 0.0865947)
(-0.056531 -0.0267412 0.10179)
(-0.0400266 -0.0355663 0.0748497)
(0.0161193 -0.100909 -0.0281483)
(0.0138839 -0.0467486 -0.0644785)
(0.0196079 -0.0954671 -0.00360807)
(0.0141124 -0.0951448 0.0230441)
(0.00824056 -0.0507994 -0.00686695)
(-0.0228455 -0.0143459 -0.017358)
(-0.0329806 -0.0298408 0.0528899)
(-0.182949 0.0792027 -0.0113677)
(0.0292784 0.0691163 0.00719894)
(-0.151199 0.0767256 0.0444387)
(-0.0687905 0.0489817 0.0739545)
(-0.1183 0.064409 0.0331963)
(0.0281396 0.0594497 0.0875432)
(-0.0863107 0.0871166 0.103957)
(-0.00285479 0.0124214 -0.0854821)
(-0.0747475 0.0553652 -0.0709793)
(-0.0382581 0.0332558 -0.0783953)
(-0.08305 0.00942636 -0.0419173)
(-0.0251388 0.000689035 -0.0432134)
(-0.0978931 0.0631889 -0.0549337)
(-0.0410748 0.0281376 -0.0429305)
(-0.00074851 -0.0309791 -0.017573)
(-0.0863548 0.00264578 0.045641)
(-0.0286047 0.0231626 0.14164)
(-0.156998 0.0172857 0.0369979)
(-0.109829 -0.00208445 0.0329222)
(-0.108656 0.0197209 0.147397)
(-0.176564 0.021757 0.0805376)
(-0.146521 0.00162776 0.0782507)
(-0.12277 0.0423229 -0.0314671)
(-0.122041 0.0167013 0.0148043)
(-0.165018 0.0292985 -0.0115277)
(-0.131687 0.0421902 -0.047975)
(-0.141452 0.0178039 0.0197445)
(-0.107238 0.0581606 -0.0532718)
(-0.0689684 0.0387573 0.114676)
(-0.135665 0.0808427 0.143406)
(-0.00723623 -0.00309602 0.185959)
(-0.0631616 -0.0001673 0.152355)
(-0.0271599 -0.0785199 0.138312)
(-0.0390544 0.00482259 0.28667)
(-0.15323 0.0742856 0.209933)
(-0.074721 0.0510013 0.27806)
(-0.064969 -0.0894725 0.0952577)
(-0.0648176 -0.0610815 0.0966963)
(-0.04109 0.0260304 0.266686)
(-0.0201391 -0.00315927 0.163278)
(-0.0336005 -0.0407834 0.150365)
(-0.0592076 -0.0458966 0.097039)
(-0.0463224 -0.0375844 0.147874)
(-0.0102129 -0.00943248 0.137549)
(-0.0141182 -0.0319173 0.199804)
(-0.0768318 0.00978544 0.157707)
(-0.0415527 -0.0209941 0.160692)
(-0.0717448 -0.0549471 0.190761)
(-0.0862464 0.0428802 0.185177)
(-0.146353 0.0484218 0.21419)
(-0.0748595 -0.0329886 0.230096)
(-0.125284 -0.0405218 0.244568)
(-0.0697043 -0.082573 0.134941)
(-0.0865524 -0.174022 0.144007)
(-0.0693296 -0.129984 0.132798)
(-0.0637001 -0.0820794 0.207967)
(-0.0640465 -0.0698918 0.177071)
(-0.0833654 -0.132929 0.197587)
(-0.0711902 -0.106839 0.163289)
(-0.0549888 -0.101969 0.112636)
(-0.0476515 -0.0846652 0.115931)
(-0.0273164 -0.0283514 0.190684)
(-0.00764492 -0.0331421 0.172226)
(-0.0498917 -0.0402531 0.209479)
(-0.0220592 -0.0577163 0.239293)
(-0.0024478 -0.0510383 0.2277)
(-0.0379381 -0.0701699 0.26798)
(-0.0353425 -0.115878 0.0261694)
(-0.0136032 -0.0850159 0.0574173)
(-0.0373518 -0.0993757 0.0697289)
(-0.0378945 -0.0879287 0.000578786)
(-0.0122916 -0.0651995 0.0474223)
(-0.0607211 -0.0557783 0.193551)
(-0.0504808 -0.0578197 0.160479)
(-0.0149482 -0.0549097 0.214513)
(-0.0536089 -0.06683 0.252359)
(-0.0499754 -0.0664781 0.209604)
(0.0109219 -0.0763076 0.038965)
(-0.0247645 -0.0309407 -0.0166338)
(-0.0206798 -0.0529706 -0.0536576)
(0.00519354 -0.0470942 0.0138296)
(-0.0189301 -0.0131016 -0.0591563)
(-0.0339514 -0.0501596 0.122535)
(-0.0433206 -0.0611271 0.148018)
(-0.103453 0.0234163 0.0674394)
(0.0208865 0.0332092 0.119236)
(-0.0468309 0.0793721 0.166015)
(-0.0704602 -0.0467045 0.141517)
(-0.102862 -0.0231074 0.0813395)
(-0.0198999 -0.00514923 0.0991545)
(-0.051781 0.0474254 0.159289)
(-0.0428616 0.00342468 -0.0583523)
(-0.106721 0.0562649 -0.0777312)
(-0.0454128 0.0331901 -0.0506325)
(-0.0945691 0.029596 -0.114211)
(-0.0544824 0.0213565 -0.0967037)
(-0.093303 0.0453508 -0.102589)
(-0.0519643 0.0384202 -0.0807215)
(-0.0173366 0.0144863 -0.0535439)
(-0.00668595 0.0433661 0.271501)
(0.0316887 0.0604321 0.394911)
(-0.206354 0.0205441 0.106016)
(-0.17394 -0.00672832 0.0934657)
(-0.18925 0.0144481 0.389561)
(-0.227418 0.0330578 0.0854042)
(-0.20753 0.0020856 0.0801146)
(-0.126715 0.0298955 -0.0625806)
(-0.139975 0.010956 0.00348023)
(-0.145091 0.0148284 -0.044817)
(-0.115866 0.0284318 -0.0761873)
(-0.124298 0.00958274 -0.0194701)
(-0.0916418 0.0443161 -0.0839045)
(-0.188466 0.0962619 0.151022)
(-0.247338 0.0837117 0.0919584)
(-0.0898834 0.0583208 0.317751)
(-0.188705 0.0942129 0.197517)
(-0.135012 0.107076 0.324835)
(-0.0801453 0.0415054 0.226822)
(-0.214797 0.0783513 0.173154)
(-0.138332 0.0869321 0.297998)
(-0.0319577 0.0266596 0.220485)
(-0.0311257 -0.023162 0.194556)
(-0.0579471 -0.000322122 0.19861)
(-0.0656199 -0.0195369 0.242483)
(-0.0509723 -0.0295876 0.217401)
(-0.037955 -0.0295996 0.184038)
(-0.0380888 -0.0300895 0.206177)
(-0.0181099 -0.0827857 0.28926)
(-0.0614401 -0.0761531 0.324945)
(-0.223879 0.066495 0.27805)
(-0.136011 -0.033949 0.308215)
(-0.18733 -0.0243485 0.287884)
(-0.303012 0.0998984 0.242328)
(-0.285446 0.0322779 0.299651)
(-0.242148 0.0550376 0.0395021)
(-0.246604 -0.0224691 0.281526)
(-0.0532918 -0.0531045 0.208992)
(-0.0739452 -0.0822708 0.222883)
(-0.0686594 -0.0672744 0.17096)
(-0.0366153 -0.0451927 0.260105)
(-0.0320101 -0.0309583 0.215934)
(-0.0525624 -0.0473199 0.224687)
(-0.0464809 -0.0381769 0.161824)
(-0.045986 -0.0637652 0.103455)
(-0.0309919 -0.0451906 0.0829156)
(-0.0161339 -0.095902 0.296048)
(-0.0011453 -0.0643191 0.260455)
(-0.0313659 -0.0850332 0.299679)
(-0.0197657 -0.118802 0.311088)
(-0.00465504 -0.0679876 0.281891)
(-0.0200785 -0.086643 0.309424)
(-0.078575 -0.0623969 -0.0510631)
(-0.0214509 -0.0488537 -0.0178261)
(-0.0502969 -0.0461037 -0.00456566)
(-0.069853 -0.0295861 -0.102312)
(-0.026368 -0.0183186 -0.0938037)
(-0.0459217 -0.0659116 0.285916)
(-0.0554229 -0.0573928 0.244402)
(-0.00882179 -0.0389904 0.282387)
(-0.0415918 -0.0439571 0.30318)
(-0.0624981 -0.0405442 0.283468)
(-0.00993817 -0.0220187 -0.0423513)
(-0.0533024 0.000155052 -0.120085)
(-0.0610511 -0.000897055 -0.163775)
(-0.0210529 0.00687675 -0.120968)
(-0.0464767 0.0186409 -0.178777)
(-0.0521615 -0.0707179 0.174978)
(-0.0754056 -0.0745908 0.239148)