/*--------------------------------*- C++ -*----------------------------------*\
| =========                 |                                                 |
| \\      /  F ield         | OpenFOAM: The Open Source CFD Toolbox           |
|  \\    /   O peration     | Version:  5.x                                   |
|   \\  /    A nd           | Web:      www.OpenFOAM.org                      |
|    \\/     M anipulation  |                                                 |
\*---------------------------------------------------------------------------*/
FoamFile
{
    version     2.0;
    format      ascii;
    class       volScalarField;
    location    "0.65";
    object      Ksl;
}
// * * * * * * * * * * * * * * * * * * * * * * * * * * * * * * * * * * * * * //

dimensions      [1 -3 -1 0 0 0 0];

internalField   nonuniform List<scalar> 
10571
(
0
162.069
36.0707
27.1579
3.77339
1066.29
13.4175
20.6829
1143.08
7325.36
40.1681
100.654
324.689
1449.72
3194.53
3958.49
3.76003
257.657
947.412
4091.2
4805.57
587.192
5520.58
4734.3
0
88.6794
96.6193
186.351
9.59956
726.026
154.151
30.4193
63.5078
192.772
0
195.436
222.479
125.921
2102.36
10204.5
67.2809
64.7736
1432.58
7376.73
10211.3
136.822
8106.1
11667.3
17.2976
16.0627
53.1434
81.7467
0.802966
461.749
164.987
56.1513
54.7186
140.62
19.5145
109.192
196.469
98.76
725.168
9846.56
39.2599
58.9429
643.396
5163.75
8292.53
222.676
5114.49
11131.9
14.5599
16.3604
51.7172
68.9936
9.89705
479.755
165.468
69.1726
34.3401
229.55
0
88.2103
187.829
104.764
731.222
37040.6
11.3691
75.086
723.731
10786.4
7034.45
148.668
6559.78
16784.2
2.56864
124.967
36.4795
60.9655
5.42705
447.676
185.943
55.0041
25.4007
192.652
0
75.3451
179.766
122.022
1170.27
19197.9
5.69329
59.3707
1291.42
54748.8
14961.4
159.278
9403.26
20148.6
32.6892
3578.43
46.03
81.9257
0
663.206
381.135
60.9394
16.2313
113.293
2274.52
0
24.7118
252.79
506.467
4341.01
29444.7
5939.32
0
45.9364
2747.81
15763.4
14067.3
165.173
17431.2
18043.6
34.1603
1157.22
2292.7
114.237
0
4826.38
4477.51
524.599
13.9867
44.3709
9.99224
0
29.7796
741.163
8322.25
8541.21
4448.44
98.2416
0
39.7549
5929.05
14364.2
7548.58
132.105
180.891
14848.1
16832.8
2554.9
16.2127
352.958
847.575
0
967.711
1180.39
1247.54
24.4565
5.17829
91.184
0
23.6901
1044.52
5235.35
9352.1
14996.4
1145.12
0
19.0854
9375.91
14292.8
8267.79
2131.35
177.61
14849.2
13762.1
1155.96
7.73251
33.0332
2046.39
0
109.282
90.1692
907.764
628.957
1516.76
292.276
98.0941
105.623
761.611
588.777
7380.63
11462.9
242.625
0
192.401
8724.46
13605.5
7897.34
391.376
12059.8
11321.7
128.046
13.2319
38.7778
419.199
188.059
9.21719
22.5876
181.907
2181.06
938.803
337.348
1178.8
260.467
81.1991
547.122
2454.53
6.50339
647.51
894.492
2010.12
684.49
2347.84
46013
5334.09
74.1435
0
7.55543
71.7683
812.105
8.04358
13.8186
36.2938
160.216
105.306
58.6822
225.231
93.3144
17.3968
21.1881
100.881
116.105
473.146
45.6786
52.1205
63.7597
1219.55
118.153
194.176
11.718
0
9.22891
5.88566
37.0982
7.6388
12.0151
14.1771
13.7363
-2.21961e-14
23.3477
10.8791
10.4211
6.43762
5.43723
3.88858
437.654
22.4041
6.91863
4.98983
36.019
13.3305
1.52824
20.1964
-1.75996e-14
-8.30627e-15
15.2559
5.80348
10.385
0.224524
14.8276
5.29024
10.8956
14.3601
19.1745
5.31016
13.2568
7.83989
6.98494
0.0418157
1.8528
2.4003
6.96103
5.75802
11.4791
0
-8.20166e-16
12.3165
20.3382
-7.96137e-15
0.285343
5.67473
25.2743
6.09639
2.11078
5.24554
8.76328
13.2899
0.653104
5.77741
4.32872
6.12346
4.33553
14.8205
6.06836
3.98751
6.51047
0.247855
-9.68111e-15
8.71173
-3.0576e-15
-1.11465e-14
9.22567
0.507448
11.9973
15.3616
10.2613
13.904
2.4702
4.2861
8.80144
6.46787
0
25.141
2.49702
3.19408
6.27469
5.06979
5.1377
0.812275
4.00574
3.83348
0
0
0
0
0
5.46179
6.16554
9.80957
5.56644
18.2085
2.12459
5.57118
11.2591
5.38343
1.34049
6.63115
3.77548
3.75957
4.44211
5.03158
6.30758
3.29568
5.51671
0.817071
0
7.40185
-5.04965e-15
0
0
-7.93339e-15
5.12764
-1.0057e-15
3.83336
9.14708
8.4991
4.93296
3.25451
9.63022
100.891
0
4.71475
3.22471
7.30431
54.5741
0
1.66281
1.69161
5.96354
0
0
0
0
0.718732
-2.99273e-15
6.31416
10.1462
14.9303
0
1.255
3.14687
5.4633
0.204384
15.2025
17.6568
1.8422
4.54481
3.06417
4.06547
0.203433
0
0.0260668
-1.2302e-14
-6.30697e-14
0
5.53162
0
0
0
-5.23998e-15
0
9.84574
11.9295
1.71814
3.27212
3.77394
0
18.5863
3.17158
3.23964
1.61221
3.71687
9.45931
9.38027
0.836879
0.707429
0
0
0
0
0
21.8439
0
2.64051
13.1125
0
0
4.78668
13.046
16.4499
5.91863
0
0.246119
1.84268
2.97695
4.03572
4.26564
12.1439
0
0
0
9.46732
0
0
0
0
-6.67445e-15
3.44053
-5.97079e-15
6.35099
6.09855
2.32212
11.9416
10.4313
5.95865
19.9567
0
0.821154
1.3549
3.86419
14.713
0
0
0
0
-7.70224e-15
0
0
0
21.9676
0
8.02423
0
9.87926
5.99226
2.28726
4.55158
7.90679
6.99096
0
6.36213
1.57446
1.27299
5.03416
0
-3.36506e-15
0
1.01763
0
0
0
0
0
0
14.0043
12.1347
11.7922
8.65591
2.43027
4.63097
9.05219
8.34923
16.75
0
-2.02952e-16
0.795624
0.256328
5.42602
6.93535
0
0.79529
0.408545
0
-8.81081e-15
0
0
0
0
4.61531
0
-6.11477e-15
14.7589
0
3.27996
6.66018
5.75126
-1.43419e-16
0
6.53301
0.726935
3.96911
4.30916
0.261591
0
0.790169
0
5.46535
0
0
0
0
0
13.8833
5.66408
5.1397
18.6438
0
3.85492
8.41838
4.65059
5.75499
0
0
1.54024
0.402235
5.09362
3.62506
0
0.79463
0
5.6218
-5.32743e-15
0
0
0
0
0
23.4303
18.2838
10.6118
0
20.9045
5.24955
4.37847
8.29301
16.3927
-5.83976e-15
0.0535155
0
0.657077
3.79682
0
0.744201
0
0
-2.65301e-15
0
0
0
0
0
0
6.38195
4.88749
-5.76781e-15
6.83028
3.22456
-1.57208e-15
10.4
0
11.9897
0.736719
0.714922
5.28537
0
5.50784
0
0
0
0
0
0
0
0
0
0
0
0.979388
0
2.99282
3.90723
2.5392
5.02749
0
0
0.727125
1.40832
3.46851
0
0
0
0
0
0
0
0
0
0
2.85723
-5.25896e-15
0
5.86981
0
0.740251
2.27576
1.27624
-3.60366e-15
0
0
0.735883
0
1.35757
4.02061
5.82832
0
0
0
0
0
0
0
0
0
0
0
0
0
1.70799
0.0419836
0
-7.93447e-15
5.90086
0
0
0.672566
3.65923
-4.92607e-15
0
0.800015
0
0
0
0
0
0
0
0
0
0.325671
-3.45024e-15
0
0.264915
2.89386
1.29582
0
0
2.20772
1.48227
0
2.22865
0
0
0
0
0
0
0
0
0
0
0
0
0
0
0
0
1.45176
1.95995
4.91188
0
6.69853
0.693609
1.34777
1.45136
-3.46575e-15
-1.84657e-15
0
0
0
0
0
0
0
0
0
6.04955
0
0.689851
6.41505
0.695204
0.753259
1.24738
0
0
0
0
1.41981
0
0
0
0
0
0
0
0
0
0
0
0
0
0
0
0
0
0
0.648983
0
0
0
0
0.683468
0
23.789
0
0
0
0
0
0
0
0
0
0
0
-5.49531e-15
0
0
0
0
0
0
0
0
0
0
0
3.79767
0
0
0
0
92.7572
0
0
0
0
0
0
6.07478
0
0
0
0.694224
0.652655
0
0
0
0
1.96664
2.15101
0
0
0
0
0
0
0
0
0
0
0
0
0
0
0
0
0.683758
1.1596
11.5813
0
0
0
2.54629
-5.28777e-16
0
0
0
0
0
0
0
0
0
0
0
0
0
0
0
0
2.05243
-5.83281e-16
0
0
0
0
0.611026
0
0
0
0
0
0
0
0
0
0
0
0
0
0
0
0
0
0.680908
0.650082
0
0
0
0
0.609953
0
0
0
0
0.0306181
0
0
0
0
0
0
0
0
0
0
0
0
0.665212
0.648234
0
0
0
0.722577
-5.22026e-16
0
0
0
0
0
0
0
0
0
0
0
0
0
0
0
0
0
0
1.27911
0
0
0
0
0
1.13715
0
0
0
0
0
0
0
0
0
0
0
0
0
0.184706
0
0
0
-5.66546e-16
0
0
0
0
0
0
0
0
0
0
0
0
0
0
0
0
0
0
0
0
0
0.70799
0.872634
0
-4.67563e-15
0
0
0
0.577616
0
0
0
0
0
0
0
0
0
0
0
0
0
0
0
0
0
0.793691
0
0
0
0
0
0
0
0
0
0
0
0
0
0
0
0
0
0
0
0
0
0
0
-1.99604e-17
0
0
0
0
0
0
0.54921
0
0
0
0
0
0
0
0
0
0
0
0
0
0
0
0
0
0
0
0
0
0
0
1.91241
0
0
0
0
0
0
0
0
0
0
0
0
0
0
0
0
0
0
0
0
0
0
0
-4.73976e-16
0
0
0
0
0
0
0
0
0
0
0
0
0
0
0
0
0
0
0
0
0
0
0
0.531214
-1.87958e-15
0
0
0
0
0
0
0
0
0
0
0
0
0
0
0
0
0.595602
0
0
0
0
0
0
3.13376
0
0
0
0
0
0
0
0
0
0
0
0
0
0
0
0
0.599129
4.57253
0
0
0
0
0
0
0
0
0
0
0
0
0
0
0
0
0
0
0
0
0
0
0
0
0
0
0
0
0
0
0
0
0
0
0
0
0
0
0
0
0
0
0
0
0
0
0
0
0
0
0
0
0
0
0
0
0
0
0
0
0
0
0
0
0
0
0
0
0
0
0
0
0
0
0
0
0
0
0
0
0
0
0
0
0
0
0
0
0
0
0
0
0
0
0
0
0
0
0
0
0
0
0
0
0
0
0
0
0
0
0
0
0
0
0
0
0
0
0
0
0
0
0
0
0
0
0
0
0
0
0
0
0
0
0
0
0
0
0
0
0
0
0
0
0
0
0
0
0
0
0
0
0
0
0
0
0
0
0
0
0
0
0
0
0
0
0
0
0
0
0
0
0
0
0
0
0
0
0
0
0
0
0
0
0
0
0
0
0
0
0
0
0
0
0
0
0
0
0
0
0
0
0
0
0
0
0
0
0
0
0
0
0
0
0
0
0
0
0
0
0
0
0
0
0
0
0
0
0
0
0
0
0
0
0
0
0
0
0
0
0
0
0
0
0
0
0
0
0
0
0
0
0
0
0
0
0
0
0
0
0
0
0
0
0
0
0
0
0
0
0
0
0
0
0
0
0
0
0
0
0
0
0
0
0
0
0
0
0
0
0
0
0
0
0
0
0
0
0
0
0
0
0
0
0
0
0
0
0
0
0
0
0
0
0
0
0
0
0
0
0
0
0
0
0
0
0
0
0
0
0
0
0
0
0
0
0
0
0
0
0
0
0
0
0
0
0
0
0
0
0
0
0
0
0
0
0
0
0
0
0
0
0
0
0
0
0
0
0
0
0
0
0
0
0
0
0
0
0
0
0
0
0
0
0
0
0
0
0
0
0
0
0
0
0
0
0
0
0
0
0
0
0
0
0
0
0
0
0
0
0
0
0
0
0
0
0
0
0
0
0
0
0
0
0
0
0
0
0
0
0
0
0
0
0
0
0
0
0
0
0
0
0
0
0
0
0
0
0
0
0
0
0
0
0
0
0
0
0
0
0
0
0
0
0
0
0
0
0
0
0
0
0
0
0
0
0
0
0
0
0
0
0
0
0
0
0
0
0
0
0
0
0
0
0
0
0
0
0
0
0
0
0
0
0
0
0
0
0
0
0
0
0
0
0
0
0
0
0
0
0
0
0
0
0
0
0
0
0
0
0
0
0
0
0
0
0
0
0
0
0
0
0
0
0
0
0
0
0
0
0
0
0
0
0
0
0
0
0
0
0
0
0
0
0
0
0
0
0
0
0
0
0
0
0
0
0
0
0
0
0
0
0
0
0
0
0
0
0
0
0
0
0
0
0
0
0
0
0
0
0
0
0
0
0
0
0
0
0
0
0
0
0
0
0
0
0
0
0
0
0
0
0
1287.47
437.947
437.794
324.559
840.452
707.523
613.446
692.072
4244.73
3005.6
1032.79
2419.48
634.601
674.574
260.977
700.782
222.066
547.549
322.151
188.518
280.037
333.126
754.198
580.91
1176.33
7185.52
975.982
1013.01
885.058
2720.61
545.918
1587.51
575.996
363.023
344.242
382.528
375.519
270.13
1405.96
512.122
2646.96
2903.13
4750.15
411.127
861.757
7263.5
977.894
1191.33
962.85
1188.8
890.868
986.239
364.096
804.358
620.318
311.163
274.84
459.249
355.546
1771.67
3194.27
2444.09
456.414
626.016
914.433
889.429
1270.88
771.858
596.45
2372.18
691.231
525.301
349.217
533.847
429.418
865.034
1126.67
3064.75
3946.42
1626.2
1667.42
3247.25
2918.06
899.856
2668.14
1256.78
5717.52
4872.87
2218.95
4957.47
3587.05
2816.74
1038.98
1449.75
1105.35
3468.71
0
22.3947
0
0
0
0
0.399941
11.1136
0.574836
9.12881
0
19.2044
14.4359
7.13341
0
597.286
313.187
47.9863
577.092
16.3848
179.364
111.991
617.131
73.1175
0
52.9654
19.5831
8.65186
0
9.03782
21.4518
702.835
83.5968
0.111597
143.075
179.08
7.92589
108.841
336.301
6017.47
3278.48
1314.46
8923.52
6396.24
277.129
12.3963
17.0255
322.508
9.86227
2242.97
3057.01
8904.45
5864.62
7403.9
0
9.06336
23.411
0
0
135.237
160.232
0
0
4765.23
4593.4
5628.33
8960.92
10356.1
9988.58
9843.76
8924.74
42.4947
85.9623
5881.99
5776.55
116.022
2211.91
6156.18
3253.47
4814.63
9785.11
8507.24
10888.3
9644.5
10.0912
17.4487
0
26.5973
19.6011
0
14.7483
17.005
70.8945
36.6288
5.17463
71.5697
38.5588
9.66155
-2.57396e-16
368.447
265.675
85.3505
493.808
80.9268
20.9181
35.8655
368.179
35.9131
0
11.4067
20.9243
0
9.18945
42.0182
68.2861
199.298
221.563
75.0788
0
117.628
71.1463
0
81.3143
4048.89
5376.01
160.825
1704.26
4026.08
72.4793
3.96871
0
28.6293
4.22387
6047.29
8846.07
9953.97
4990.88
9158.14
0
0
132.741
17.8042
36.4753
43.3307
71.6087
0.27198
81.7087
11716
11803.5
11175.1
5571.65
11677
11399.9
10740.9
9226.13
242.728
390.869
161.929
3035.66
268.491
76.9878
2265.96
10884
11568.1
6333.65
10519
11224.4
11549.6
0
10.8584
0
5.986
4.85027
0
0
4.94587
57.1336
17.3658
6.62379
37.5161
16.4061
0
0
162.399
166.753
53.0593
332.668
48.4887
9.12882
39.1182
296.891
56.849
22.6111
54.7743
89.2984
12.9387
30.6679
73.3411
93.9648
225.095
194.551
17.0783
0.447695
67.7447
18.9574
0
65.754
983.569
4956.92
170.476
995.991
6984.89
33.5589
0
0
23.8745
0
5125.58
8290.99
13754.8
5053.5
9352.05
0
0
77.4998
18.7861
70.7439
12.3078
73.5803
10.8487
54.9008
11096.2
11361
10831.4
6296.87
10693.2
11393.5
10269.7
6700.4
275.161
185.003
78.6177
2050.4
130.475
104.833
1849.02
11094.9
14658
6054.48
11222.1
15730.2
12145.6
6.63729
15.4733
0
12.4412
13.6835
22.7915
3.16535
44.8778
26.9539
22.6855
61.1172
33.253
18.645
0
0
220.413
214.802
34.9364
299.724
78.9151
39.9676
44.5327
410.787
52.9438
12.0511
38.7694
47.7447
10.841
0
39.5893
28.3876
190.342
180.926
18.8845
0
53.1845
44.8145
0
57.8434
1048.58
8695.7
185.816
1258.12
7088.96
17.8429
4.79257
0
17.9033
0
5095.25
12878.7
38240.6
4506.47
17044.1
0
0
71.198
0.580692
67.9727
0.987043
65.9363
26.0988
62.294
14105.6
14217.5
11762.7
3825.51
22568.2
23309.8
16337.5
12126.2
246.03
238.936
117.88
2082.44
174.76
151.69
2622.53
15205.4
18251.8
8811.3
21063.9
15602.9
17065.6
2.46399
19.418
0
1.73798
44.3808
59.3789
13.1057
79.1589
36.329
22.9464
67.2939
55.9514
0.840973
0
12.3284
267.517
516.634
30.0426
557.182
50.6196
356.983
73.6175
743.9
99.9802
0
17.2524
29.7741
0
0
32.81
17.9901
162.251
135.493
66.1336
0
78.2156
82.1448
0
81.295
1186.5
7398.52
140.938
979.983
2002.05
40.318
0
0
10.4491
0
5460.56
15614.4
30029.9
1607.15
21471.1
0
0
43.6195
7.10541
90.6071
0
22.0605
3.24033
62.5292
32428.6
23265.6
15588.8
16786.6
19608.8
17530.6
17471.9
19024.5
172.712
160.968
188.202
3713.68
149.159
255.524
3766.13
18698.5
16088.3
15465.9
15460.6
16757.3
17562.9
390.772
3239.53
81.2765
48.8038
87.0533
98.6314
385.346
104.236
39.4211
12.6036
20.5769
36.1309
5.52925
0
0
2450.9
4309.96
449.525
3059.67
318.883
5750.58
3135.92
6852.51
4112.95
-2.82944e-16
12.3034
11.7175
0
0
2.1259
26.3402
49.3672
50.9457
222.062
0
86.302
916.156
0
97.5834
253.32
618.765
1613.44
36.2939
168.351
352.103
1178.78
8367.25
5606.92
15072.1
13.6877
272.703
48.4463
381.098
0
0
0
11.9265
0
2197.51
16556
369.115
16907.2
2745.72
13555.8
940.231
15249.1
1366.91
8005.98
106.034
385.934
60.5031
258.161
0
0
27.2926
0
19.1193
0
28.4927
0
30.3991
22286.8
16023.9
16391.1
15225.7
15831.4
15433.4
15432.2
7490.53
171.293
130.187
300.664
4607.55
181.501
413.251
4524.82
14602
15731.8
23536
14394.2
16973.1
16571.7
2088.08
466.029
177.431
2394.31
221.599
1696.04
2728.52
2090.17
50.5712
12.6641
391.411
100.678
0
0
0
961.195
351.79
2011.36
2876.46
8479.8
185.06
382.311
388.185
1593.73
0
3.93076
5.10542
0
0
-5.58227e-15
-8.6115e-17
12.8282
0
12.9802
6.30505
-5.01899e-16
39.8695
15.4513
34.2328
1924.36
0
73.8553
2294.33
48.5118
172.69
110.422
246.323
1193.29
4.78195
140.301
187.191
1614.59
35.8041
50.3109
88.1921
24.7575
67.513
158.898
89.3806
6.31955
0
0
6.14232
0
3508.56
18251.8
2446.68
8110.95
12930.3
16034.2
17809.3
70.0147
120.697
111.678
318.65
142.782
620.86
177.49
0
0
6.57048
0
23.7289
0
7.74795
0
1.61595
13350.8
14924.7
15619.8
14222.4
13300.2
14955.2
14943.9
769.176
7364.74
5724.08
103.417
747.173
287.823
187.101
72.4023
453.876
5423.06
185.044
600.326
6194.11
13969.5
13924
16100.4
12490.3
11970.4
14525.1
115.604
38.8447
2588.63
617.537
5275.77
599.881
118.523
1601.44
1247.79
2.25551
2693.61
3491.43
62.6516
0
0
116.748
90.3537
84.8607
132.018
78.1198
7.03062
15.471
34.1954
43.9239
0
4.93463
0
0
13.7941
0.777192
29.0407
8.56336
32.4634
667.929
88.7959
33.4955
61.3904
95.6486
97.4784
990.973
73.8892
330.374
314.959
566.394
1003.48
322.701
290.819
5902.22
348.883
1029.95
1285.9
6134.75
109.915
329.014
114.112
301.254
132.923
673.045
101.465
20.896
0
0
6.18263
0
12637
13297.6
15611.6
11872.7
10285.7
12587.5
10872.9
121.164
1725.31
137.893
919.325
113.84
1211.7
190.755
0
0
6.54774
0
0
0
6.76128
0
9.51856
12779.9
13957.7
13507.1
12673.8
12227.7
14980.8
13302.1
9323.09
8241.34
8194.5
270.521
3148.47
406.118
85.7355
117.792
679.85
10826.2
235.145
1515.34
10369.7
12515
14601
12861.9
12245.3
9380.89
15482.7
32.5534
-1.13187e-14
307.661
82.715
212.66
111.95
25.5824
152.484
3901.14
575.902
124.578
1401.61
1827.49
0
95.2638
47.0834
48.0091
12.7797
16.8699
8.33828
19.5648
12.519
13.1891
5.51903
163.307
11.8008
243.076
0
342.369
6.30064
390.529
1178.42
1100.29
105.812
777.042
855.916
51.4231
485.478
260.046
1721.59
4934.27
2761.15
2478.59
954.02
6116.35
1093.14
138.441
239.65
64.9972
541.367
50.3772
124.245
79.5415
14.4184
0
1307.86
374.408
7.86851
4548.45
11388.1
6169.52
8781.49
1471.42
6082.94
1648.96
127.469
679.244
143.31
147.392
78.2926
488.237
54.9598
-1.44307e-14
14.3813
1.9101
0
-4.0334e-16
-3.92541e-16
7.73972
0
0
44827.7
13398.1
14013.6
13052.4
7285.6
19347.7
8912.16
7997.58
62.7354
315.389
3239.67
6330.41
938.166
5750.33
6920.35
11160.1
9070.06
11600.1
11868.3
8200.59
11052.8
21.705
24.6085
61.1869
21.2024
46.7294
19.6348
0.555338
14.9412
280.632
2248.73
20.4871
92.5478
531.892
726.405
1394.91
1.86473
0
22.4646
7.91202
5.08208
5.26192
1.23251
5.82955
17.139
828.517
89.4574
651.838
3250.28
1488.21
3156.29
2790.77
676.712
404.144
34.3072
28.7494
219.13
3.9113
10.9225
108.241
2079.98
348.944
291.818
213.078
128.697
1364.38
186.27
210.38
924.63
433.996
407.615
726.807
164.566
163.744
107.599
0
42.135
-6.12761e-15
0.27088
13.3049
18.4303
29.3931
193.76
169.779
2230.77
7449.44
5446.11
169.044
218.603
844.587
814.099
104.524
922.863
2528.88
9488.3
4638.5
4688.2
2227.6
1056.35
5737.91
5847.41
1760.15
1201.17
1329.44
1649.59
-4.10386e-15
14.7638
26.3177
21.7814
15.2911
3.33872
22.5332
18.9685
54.0926
113.811
58.7535
21.2966
47.1992
263.968
27.6629
35.4876
28.1118
5.84602
5.72935
5.78265
9.97236
10.8004
20.5251
0
390.758
1102.98
764.615
60.1749
114.195
69.6305
36.279
165.412
45.1519
13.9717
22.0983
11.9374
13.3216
22.0594
19.3061
83.0614
12.4761
35.8869
1.37906
41.1516
143.605
739.834
21.764
57.1951
606.645
41.905
34.9069
19.8402
-1.63028e-14
1.9685
343.332
1069.14
347.608
565.896
517.149
1414.37
1113.82
852.371
1490.08
57.0281
81.0842
87.9098
16.4461
26.3182
48.5399
56.6427
9.28265
2577.41
691.957
241.107
166.341
178.215
59.6216
37.8353
121.107
147.645
27.4401
29.8599
27.1458
47.7631
14.4558
14.7839
0
4.82236
17.2777
20.6995
0
12.2418
24.4528
16.8009
19.9111
0.999071
14.5702
28.9813
15.4504
69.5769
39.1768
0
1.20084
6.04387
9.41704
5.34063
5.60142
10.1294
39.4965
5.47948
31.9816
16.4704
40.1342
26.9487
5.35309
18.7288
6.08981
19.1187
22.2304
10.964
48.0329
-1.26177e-14
22.8918
0
0.522384
34.7362
33.8755
17.812
6.53266
100.694
19.5118
10.801
28.0885
40.2475
0
6.0637
-8.24497e-15
0
246.188
0
231.895
225.983
246.185
29.2893
2.89229
22.8558
32.8515
11.2297
5.61347
3.9244
37.8283
2.91159
9.60965
0
-1.0664e-14
75.6957
7.09766
8.2529
0
5.06977
0
0
0.103963
0
1.02008
6.8808
0
11.7036
0
13.6042
0
2.01086
10.4799
0
34.6722
6.53844
15.7926
28.1138
20.0969
10.0244
-1.26506e-14
23.0343
-1.27152e-14
38.9124
52.3065
0
0
9.99616
12.6706
5.93086
10.8367
8.01318
48.416
14.8106
22.2917
12.4061
9.95208
3.49871
10.6508
0
0
81.1571
85.1605
4.70464
23.0565
64.7383
42.2736
-1.30243e-14
35.7679
-1.20358e-14
10.5317
17.8244
6.52837
0
24.0445
4.35335
7.86554
-4.76723e-15
17.6818
2.02644
0.860165
-1.66954e-14
0
0
6.46358
24.2398
9.94645
13.1213
6.03921
1.84629
5.14284
5.44013
6.48823
5.84148
5.51853
-1.68399e-16
0.382884
0
44.7368
0
0
10.4675
0
6.76959
-4.8496e-15
0
0
0
5.28939
0
1.51111
12.472
0.904128
0
0
18.5214
10.6944
0
21.2877
12.4965
4.99434
12.1016
4.65148
0.975044
13.9948
28.4353
14.344
10.122
9.13566
4.77855
2.31906
-1.79971e-16
0
9.16682
3.33109
0
27.6452
26.4786
5.21897
11.8624
18.3358
7.1962
4.84331
0
0
18.4089
42.1241
35.3615
13.4929
20.8181
16.7493
3.24767
-1.49214e-14
13.232
4.89998
0
20.687
0
0.667174
6.93199
7.70804
0
0
12.2574
10.8321
0
0
6.65464
0
0
4.68042
10.3747
0
0
4.84705
0
5.33347
0
8.3155
10.3322
0
0
0
0
0
0.393396
29.2318
-5.98608e-15
5.3491
-1.61888e-14
8.15438
-6.16862e-16
0
1.91356
0
0
12.8686
-3.95986e-15
0
12.7357
-7.25357e-16
21.6442
6.78317
11.3319
30.7564
4.93299
0
5.55623
-2.39932e-15
0
0
16.3139
19.9268
8.81346
19.8587
0
22.2224
-8.93291e-15
0.18636
5.56137
10.465
15.8002
5.07247
5.34531
10.1804
-2.89793e-15
10.492
11.1352
6.71612
0
35.5782
21.2025
8.22119
34.425
23.3178
20.6921
0
15.898
-4.41948e-15
0
20.427
13.269
32.9692
21.786
11.7348
15.9126
1.52042
14.9265
0
-1.44601e-15
9.55636
0
0
0
6.20464
16.2576
0
0
4.78528
5.1049
7.25281
0
0.400532
-3.5587e-15
8.92978
27.3721
0
10.8647
-1.05546e-14
0.185779
0
0
0
0
0
0
11.2938
0
0
0
0
0
0
-5.8448e-15
11.5401
0
30.5587
7.08124
3.02951
9.05429
0
5.36234
21.0757
28.3483
37.7658
29.3118
30.3615
4.06868
1.38413
5.88873
9.75086
1.58589
6.06557
0
19.8301
12.0729
6.96438
16.6584
18.9618
17.6568
23.7813
78.9951
12.1188
47.1574
37.0329
19.4699
4.9084
11.9827
5.20117
10.0179
126.776
40.8367
9.5409
-1.39854e-14
31.6267
28.9055
84.8031
22.2725
3.02611
0
0
-4.18028e-15
0
9.21691
46.4472
0
6.59901
9.36844
-3.51907e-15
0
0
0
0.629815
0
0
-2.4467e-14
0.791887
5.48366
0
9.91835
0
0
0
0
29.4831
0
0
0.661048
0
0
0
0
0
0
15.3416
-5.85769e-15
0
17.9688
9.22071
31.3722
26.9222
3.65524
1.0053
7.55345
30.8228
9.36058
13.0415
25.4974
-1.1267e-14
28.2029
-9.60904e-15
0.794827
0.400245
0
5.63853
3.7725
5.19811
0
-8.00429e-15
8.81481
4.80712
10.3243
0
6.45622
6.85399
1.26827
15.4554
13.9596
32.4331
10.5565
9.68695
54.8049
20.9444
8.07427
15.4643
12.1495
10.6438
80.8519
10.9183
7.39713
29.3745
12.2965
0
0
4.09287
-9.35065e-14
17.4085
0
0
0
6.66105
0
4.47361
10.1945
2.52824
0
0
4.96582
13.9467
-8.4631e-15
16.0962
-1.52434e-15
0.181481
0
67.7669
0
0
0
0
0
0
0
0
0
0
0
0
0
0.502415
-1.67222e-15
-1.80699e-14
19.1358
8.12933
0
-6.39463e-15
0
17.7157
-7.12024e-15
0
5.75675
15.3327
0
0
20.09
21.4822
9.76346
5.45663
0
0
4.83139
0
0
10.6277
7.06286
3.12892
-9.35441e-15
10.807
8.30598
15.5842
17.3879
14.2078
14.164
5.71362
14.614
1.85613
68.9843
14.7051
4.04356
5.728
0.621145
-3.84898e-15
0
14.0333
0
22.5012
4.62342
14.1713
11.3347
6.04668
86.8798
122.52
1.56237
12.9316
18.1209
4.34447
10.4142
2.3415
11.45
0.401336
11.3018
5.39428
18.6453
0
0
0
-4.27997e-15
6.28217
33.4122
0
0
0
0
0
0
0
0
0
0
0
0
0
0
0
14.0003
0
12.5902
5.48908
0
12.0898
-3.1756e-15
5.98416
10.4807
22.0937
0
5.12122
0
7.43686
-9.55993e-15
10.4404
0
1.9999
14.826
8.85468
4.87456
-1.52008e-15
5.6558
-1.09553e-15
1.58529
2.81903
5.27214
30.8744
0
14.2364
10.7627
30.2501
17.4087
-8.30449e-16
9.66043
10.7018
15.5199
7.00063
0
19.3013
0
4.8548
11.8493
9.63965
15.7847
0
0.281407
0
-7.0787e-14
-1.57926e-16
3.4468
15.3314
10.8287
10.8299
4.65018
0
0
0
0.259662
0
0
0
0
1.04932
1.25581
0
25.1193
0
0
0
0
0
0
0
0
0
0
0
0
0
0
0
0
-1.10347e-14
19.361
0
0
0
0
11.9721
0
0
0
-6.79052e-15
0
13.0882
7.4368
5.30353
11.4256
0
1.7059
0
4.71933
9.18918
2.67305
5.07472
0
-7.5202e-15
13.4439
-8.38942e-15
13.1574
0
5.63461
0
8.54275
-8.3203e-15
14.4174
0
0
12.738
0
10.1898
-1.54509e-15
0
23.2294
0
0
6.05004
0
0
1.5071
8.04372
-2.87567e-15
4.95863
7.4164
0
5.54507
0
3.88325
0
0
0
3.88501
0
0
0
3.59275
0
0
0
19.1594
9.5565
0
9.26885
0
0
0
0
0
0
0
0
0
0
0
0
0
11.9901
-3.65832e-15
0
-5.71285e-15
5.89653
0
6.31649
1.89879
5.80332
11.4609
0
7.80471
-6.34599e-15
0
9.07134
11.2224
0
-5.69773e-16
5.02744
0
0
0
0
0
7.88481
1.30524
16.624
8.35675
8.27835
-1.15252e-16
0.769571
9.24928
7.75696
-1.92528e-15
0
0
0
0
7.78668
1.68645
0
5.8092
7.37032
84.2573
10.319
7.85005
0
0
8.35403
24.79
10.606
4.10595
-3.73733e-15
-9.60624e-15
0
0
0
0
0
6.3431
0
0
0
0.160801
1.7485
9.43194
0
9.6735
0
-5.4255e-15
0
0
0
0
0
0
0
0
0
0
0
0
0
0
33.3924
15.5034
19.9629
11.0853
5.63829
41.3341
20.0568
-4.86769e-15
0
0
-1.87067e-14
11.5638
13.1405
17.5232
0
0
2.75017
8.91463
0
0
0
-3.775e-15
4.07953
0
-7.36377e-15
12.4453
13.4401
4.67302
29.2474
1.95903
4.73358
3.41697
7.32006
0
0
10.3076
6.41596
0
5.14947
283.775
14.9318
5.4294
9.11755
0
0
0
0
0
0
0
4.97582
22.2437
0
2.02697
0
15.2533
0
0
0
0
0
0
0
-8.47685e-15
0
0
0
10.933
0
0
98.0061
0
0
0
0
0
0
0
0
0
0
0
0
0
0
0
20.7383
6.62561
7.84491
-1.25794e-14
11.4981
46.0725
-5.04378e-15
-5.54775e-15
0
8.25323
21.3807
0
0
-1.60017e-15
0
5.37186
-9.37736e-16
0
-8.92475e-15
0
1.92778
15.7115
7.68092
13.2314
14.2842
1.91333
7.7622
18.06
4.99839
6.66244
19.533
-1.94168e-16
0
-1.58268e-15
0
0
0
8.59245
0
0.182855
4.12219
0
6.26059
0
0
6.19728
0
0
5.40252
2.98907
0
105.401
0
0
0
0
0
0
6.24413
0
0
3.34671
0
0
0
0
0
0
0
0
0
0
0
0
0
0
0
0
0
0
0
0
0
0
0
-6.17981e-15
12.7241
0
21.0628
3.91296
5.88465
-1.06833e-14
0
8.63835
4.19791
11.903
0.779293
0
0
0
0
-9.46891e-15
6.50629
0
0
0
26.1763
10.9356
36.0388
17.0125
27.3802
21.7598
7.64646
9.31573
9.67584
0
0
0
0
0
0
69.7141
0
0
4.23092
13.7932
-4.23009e-15
0
0
6.00898
0
13.4115
0.140546
8.09178
4.12031
4.80218
0
0
-4.4386e-15
0
0
0
0.451514
0
0
8.95969
0
0
0
-3.64926e-15
0
0
9.11685
0
0
0
0
0
0
0
0
0
0
0
0
0
0.858794
26.8409
20.7439
19.9947
5.59897
0
13.6169
10.9636
16.8005
24.5599
0
-4.91357e-15
7.31079
0.768872
0
0
0
0
0.267267
0
-9.07936e-15
5.57682
5.34259
1.70332
8.49322
6.2337
0
4.70565
8.88327
0
0
-8.84535e-15
0
0
0
0
0
0
0
3.43446
-3.53887e-15
7.09884
4.35228
3.16576
0
0
0
7.90635
0
0
5.12153
5.03705
11.778
0
0
13.3576
0
0
0
0
3.13348
0
0
4.70563
0
0
5.35385
18.8303
0
0
9.38663
0
0
0
0
0
0
0
0
0
0
0
0
0
57.8331
-1.4737e-14
0
4.08191
5.53262
0
-1.60409e-15
0
0
0
0
0
0
5.08774
21.7433
0
0
9.98819
5.40228
9.72572
0
0
0
0
10.7601
0
0
2.31993
2.58354
0
9.71517
9.75495
81.3607
0
0
0
0
0
0
7.37679
-1.81431e-15
1.4858
15.4907
0
-5.19224e-15
7.59261
6.80912
2.6029
6.07471
-6.74861e-15
62.5951
3.76911
62.3544
-3.34637e-15
13.1315
1.92135
10.4874
0
0
0
0
0
0
-4.18371e-15
0
0
0
0
0
0
0
0
0
0
0
0
0
0
0
0
0
0
0
0
0
0
0
0
0
0
0
5.44267
0
0
0
0
6.79913
12.7522
-2.28914e-15
0
0
0
0
8.65007
0
5.57923
0
5.87301
27.0552
0
1.45157
0
0.306913
7.08522
7.64289
-5.88398e-15
0
6.987
0
0
6.05792
0
0.741996
2.97356
0
5.04491
4.06156
112.209
3.78258
0.347427
0
5.75674
0
-1.21045e-14
0
-1.39697e-14
0
0
0
0
0
0
0
0
0
0
0
0
0
0
0
0
0
0
0
0
0
0
0
0
0
0
0
0
0
0
0
0
0
0
0
0
0
0
0
0
0
6.885
0
0.285049
7.02821
0
7.89478
0
0
-1.70458e-16
0
-5.38627e-15
7.05435
0
1.00051
5.41044
18.5789
1.86814
4.39507
8.51493
5.30374
0
0
0
0
0
0
0
0
0
0
3.31571
12.2354
11.1835
7.61949
45.4577
0
0
0.964812
5.52323
0
0
0
3.9994
0
5.34646
0
0
0
0
0
0
8.70107
0
0
4.65653
0
0
0
9.21109
0
0
0
0
0
0
0
0
0
0
0
0
0
0
0
0
0
0
0
0
0
0
0
0
0
2.41326
0
0
5.74258
-1.42298e-15
0
0
0
5.41639
0.383952
2.09183
0
0
0
0
7.56388
0
16.1058
5.1322
28.1457
0
5.33063
35.3406
4.25544
0
0
0
0
0
0
1.26826
-1.17553e-14
13.1075
3.56933
0
0
0
0
0
0
0
0
8.29784
0
49.7461
0
5.98028
-5.90331e-15
0
0
5.78918
0
0
0
0.985185
0
0
0
0
0
0
0
0
0
0
0
0
0
0
0
0
0
0
0
0
0
0
0
0
5.48744
0
0
0
0
7.18856
0
0
0
0
0
0
0
0
0
-2.93168e-16
-4.00564e-16
5.59892
0
0
8.73458
0
6.91106
4.88903
0
0
0
3.52807
0
0
0
5.65733
8.97024
0
-3.30088e-15
4.11529
75.7336
0
0
-1.19968e-14
4.15701
0
0
0
7.35712
0
-3.01167e-15
7.98188
0
49.9297
8.70114
0
0
0
0
0
0
0
0
0
0
0
0
0
0
0
0
0
0
0
0
0
0
0
0
0
0
0
0
0
0
0
0
0
0
0
0
0
0
11.6721
0
0
-6.42788e-15
0
0
0
0
-1.70754e-16
0
0
0
0
0
0
0
0
0
0
5.71989
0
1.5909
0
0
6.9477
0
0
0
0
0
0
0
0
17.1308
0
3.77485
0
0
0.786015
6.25472
0
-4.50858e-15
47.864
0
4.94233
0
0
0.546266
0
0
6.01632
-1.83329e-16
0
0
0
4.87842
0
0
0
0
0
0
0
0
0
0
0
0
0
0
0
0
0
0
0
0
0
0
0
0
0
0
0
0
0
0
5.85714
0
0
0
0
0
0
0
0
0
7.71335
0
0
0.882891
5.76364
12.8103
0
0
0
-4.2438e-15
0.256352
0
0
0
5.56715
0
0
-4.78805e-15
0.777227
0
0
7.8136
0
0
0
0
0
7.41299
0
-1.49792e-16
0
0
0
0
0
0
0
0
0
0
0
0
0
0
0
0
0
0
0
0
0
0
0
0
0
0
0
0
0
0
0
0
0
0
0
0
0
0
0
0
0
0
0
15.6473
1.73355
7.08376
0
0
0
0
-5.17303e-15
5.58483
0
0
0
0
0
8.86915
0.268901
11.9855
9.63893
0.849764
0
-4.27907e-15
0
0
0
0
0
7.2519
0
0
-4.22386e-15
0
0
0
0
0
0
0
0
0
0
0
0
0
0
0
0
0
0
0
0
0
0
0
0
0
0
0
0
0
0
0
0
0
0
0
0
0
0
0
0
0
0
0
0
0
0
0
0
0
0
0
0
0
7.06708
0
5.64862
-5.01235e-15
12.1487
11.9031
0
0
0
0
0
0
0
0
6.21934
0
0
0
0
0
0
4.895
0
39.8304
0
0
0
0
0
0
0
0
0
0
0
0
0
0
0
0
0
0
-3.34155e-15
0
0
0
0
0
0
0
0
0
0
0
0
0
0
0
0
0
7.20007
0
0
0
0
0
0
0
0
0
0
0
0
0
0
0
0
0
0
0
0
0
0
-1.73336e-15
0
0
0
0
0
0
0
0
0
0
0
0
0
0
0
0
0
0
0
0
0
0
-9.16743e-15
0
0
0
0
0
0
5.79287
0
0
0
0
0
0
0
0
0
0
0
0
0
0
0
0
0
0
0
0
0
0
0
0
0
0
0
0
0
0
0
-7.90413e-15
0
0
0
0
0
0
0
0
0
0
0
0
0
0
0
0
0
0
0
0
0
0
0
0
0
0
0
0
0
0
0
0
0
0
0
0
0
0
0
0
0
0
0
5.05112
0
0
0
0
0
0
0
0
0
0
0
0
0
0
0
0
0
0
0
0
0
0
0
0
0
0
0
0
0
0
0
0
0
0
0
0
0
0
0
0
0
0
0
0
0
0
0
0
0
0
0
0
0
0
0
0
0
0
0
0
2.77684
0
0
0
0
0
0
0
0
0
0
0
0
0
0
0
0
15.1547
0
0
0
3.14542
0
0
0
0
0
0
0
0
0
0
0
0
-1.7279e-15
0
0
0
0
0
0
0
0
0
0
0
0
0
0
0
0
0
0
0
0
0
0
0
0
0
0
0
0
0
0
0
0
0
0
0
0
0
0
0
0
0
0
0
0
0
0
3.78427
0
0
0
0
0
0
0
0
0
0
0
0
0
0
0
0
0
0
0
0
0
0
0
0
0
0
0
0
0
0
0
0
0
0
0
0
0
0
0
0
0
0
0
0
0
0
0
0
0
0
0
0
0
0
0
0
0
0
0
0
0
0
0
0
0
0
0
0
0
0
0
0
0
0
0
0
0
0
0
0
0
0
0
0
0
0
0
0
7.29677
0
0
-6.26603e-15
0
0
0
0
0
0
0
0
0
0
0
0.715696
0
10.0087
0
0
0
-2.97258e-15
0
0
0
0
0
0
0
0
0
0
0
0
0
0
0
0
0
0
0
0
0
0
0
0
0
0
0
0
0
0
0
0
0
0
0
4.78545
0
0
0
0
0
0
0
0
0
0
0
0
0
0
0
0
0
0
0
0
0
0
0
0
0
0
0
0
0
0
0
0
0
0
0
0
0
0
0
0
0
0
0
0
0
0
0
0
0
0
0
0
0
0
0
0
0
0
0
0
0
0
0
0
0
0
0
0
0
0
0
0
0
0
0
0
0
0
0
0
0
0
0
0
0
0
0
0
0
0
0
0
0
0
0
0
0
0
0
0
0
0
0
0
0
0
0
0
0
0
0
0
0
0
0
0
0
0
0
0
0
0
0
0
0
0
0
0
0
0
0
0
0
0
0
0
0
0
0
0
0
0
0
0
0
0
0
0
0
0
0
0
0
0
0
0
0
0
0
0
0
0
0
0
0
0
0
0
0
0
0
0
0
0
0
0
0
0
0
0
0
0
0
0
0
0
0
0
0
0
0
0
0
0
0
0
0
0
12.2201
0
0
0
0
0
0
0
0
0
0
0
0
0
0
0
0
0
0
0
0
0
0
0
0
0
0
0
23.2299
3.52953
0
0
0
0
0
0
0
0
0
0
0
0
0
0
0
0
0
0
0
0
0
0
0
0
0
0
0
0
0
0
0
0
0
0
0
0
0
0
0
0
0
0
0
0
0
0
0
0
0
0
0
0
0
0
0
0
0
0
0
0
0
0
0
0
0
0
0
0
0
0
4.90829
1.49522
0
0
0
0
0
0
0
0
0
0
0
0
0
0
0
0
0
0
0
0
0
0
0
0
0
0
0
0
0
0
0
0
0
0
0
0
0
0
7.26341
0
0
0
0
0
0
0
0
0
0
0
0
0
0
0
0
0
0
0
0
0
0
0
0
0
0
0
0
0
0
0
0
0
0
0
0
0
0
0
0
0
0
0
0
0
0
0
0
0
0
0
0
0
0
0
0
0
0
0
0
0
0
0
0
0
0
0
0
0
0
0
0
0
0
0
0
0
49.1214
0
-2.25356e-16
0
0.764991
0
0
0
0
0
0
0
0
0
0
0
0
0
0
0
0
0
0
0
0
0
0
0
0
0
0
0
0
0
0
0
0
0
0
0
0
0
0
0
0
0
0
0
0
0
0
0
0
0
0
0
0
0
0
0
0
0
0
0
0
0
0
0
0
0
0
0
0
0
0
0
0
0
0
0
0
0
0
0
2.97504
0
0
0
0
0
0
0
0
0
0
0
0
0
0
0
0
0
0
0
0
0
0
0
0
0
0
0
0
0
0
0
0
0
0
0
0
0
0
0
0
0
0
0
0
0
0
0
0
0
0
0
0
0
0
0
0
0
0
0
0
0
0
0
0
0
0
0
0
0
0
0
0
0
0
0
0
0
0
0
0
0
0
0
0
0
0
0
0
0
0
0
0
0
0
0
0
0
0
0
0
0
0
0
0
0
0
0
0
0
0
0
0
0
0
0
0
0
0
0
0
0
0
0
0
0
0
0
0
0
0
0
0
0
0
0
0
0
0
0
0
0
0
0
0
0
0
0
0
0
0
0
0
0
0
0
3.24807
0
0
0
0
0
0
0
0
0
0
0
0
0
0
0
0
0
0
0
0
0
0
0
0
0
0
0
0
0
0
0
0
0
0
0
0
0
0
0
0
0
0
0
0
0
0
0
0
0
0
0
0
0
0
0
0
0
0
0
0
0
0
0
0
0
0
0
0
0
0
0
0
0
0
0
0
0
0
0
0
0
0
0
0
0
0
0
0
0
0
0
0
0
0
0
0
0
0
0
0
0
0
0
0
0
0
0
0
0
0
0
0
0
0
0
0
0
0
0
0
0
0
0
0
0
0
0
0
0
0
0
0
0
0
0
0
0
0
0
0
0
0
0
0
0
0
0
0
0
0
0
0
0
0
0
0
0
0
0
0
0
0
0
0
0
0
0
0
0
0
0
0
0
0
0
0
0
0
0
0
0
0
0
0
0
0
0
0
0
0
0
0
0
0
0
0
0
0
0
0
0
0
0
0
0
0
0
0
0
0
0
0
0
0
0
0
0
0
0
0
0
0
0
0
0
0
0
0
0
0
0
0
0
0
0
0
0
0
0
0
0
-1.38808e-15
0
0
0
0
0
0
0
0
0
0
0
0
0
0
0
0
0
0
0
0
0
0
0
0
0
0
0
0
0
0
0
0
0
0
0
0
0
0
0
0
0
0
0
0
0
0
0
0
0
0
0
0
0
0
0
0
0
0
0
0
0
0
0
0
0
0
0
0
0
0
0
0
0.140307
0
8.4219
0
0
0
0
0
0
0
0
0
0
0
0
0
0
0
0
0
0
0
0
0
0
0
0
0
0
0
0
0
0
0
0
0
0
0
0
0
0
0
0
0
0
0
0
0
0
0
0
0
0
0
0
0
0
0
0
0
0
0
0
0
0
0
0
0
0
0
0
0
0
0
0
0
0
0
0
0
0
0
0
0
0
0
0
0
0
0
0
0
0
0
0
0
0
0
0
0
0
0
0
0
0
0
0
0
0
0
0
0
0
0
0
0
0
0
0
0
0
0
0
0
0
0
0
0
0
0
0
0
0
0
0
0
0
0
0
0
0
0
0
0
0
0
0
0
0
0
0
0
0
0
0
0
0
0
0
0
0
0
0
0
0
0
0
0
0
0
0
0
0
0
0
0
0
0
0
0
3.4089
0
0
0
0
0
0
0
0
0
0
0
0
0
0
0
0
0
0
0
0
0
0
0
0
0
0
0
0
0
0
0
0
0
0
0
0
0
0
0
0
0
0
0
0
0
0
0
0
0
0
0
0
0
0
0
0
0
0
0
0
0
0
0
0
0
0
0
0
0
0
0
0
0
0
0
0
0
0
0
0
0
0
0
0
0
0
0
0
0
0
0
0
0
0
0
0
0
0
0
0
0
0
0
0
0
0
0
0
0
0
0
0