/*--------------------------------*- C++ -*----------------------------------*\
| =========                 |                                                 |
| \\      /  F ield         | OpenFOAM: The Open Source CFD Toolbox           |
|  \\    /   O peration     | Version:  5.x                                   |
|   \\  /    A nd           | Web:      www.OpenFOAM.org                      |
|    \\/     M anipulation  |                                                 |
\*---------------------------------------------------------------------------*/
FoamFile
{
    version     2.0;
    format      ascii;
    class       surfaceScalarField;
    location    "5.35";
    object      phi;
}
// * * * * * * * * * * * * * * * * * * * * * * * * * * * * * * * * * * * * * //

dimensions      [0 3 -1 0 0 0 0];

internalField   nonuniform List<scalar> 
29271
(
-4.23187e-06
3.96742e-07
1.12234e-06
2.7224e-06
-5.65613e-06
2.50699e-06
6.63845e-07
2.66637e-06
-1.82883e-05
-9.48703e-07
-6.1407e-06
3.47514e-06
-1.01815e-06
2.29207e-05
-1.66941e-05
-2.79858e-06
-1.31346e-06
-6.82459e-07
2.42391e-06
1.90647e-05
-1.62439e-05
-2.03255e-07
-1.85034e-06
2.12698e-06
1.34194e-05
2.75113e-06
-1.62583e-05
-3.39571e-06
-3.4373e-06
7.01614e-06
3.6767e-06
1.23985e-05
-1.54104e-05
1.06834e-06
-7.81352e-06
1.26783e-05
-3.6607e-06
1.3138e-05
-2.12843e-05
9.64682e-06
-1.11529e-05
1.00561e-06
-1.26391e-05
3.44239e-05
-1.97568e-05
8.59059e-06
7.09471e-06
-1.11791e-05
-9.47621e-06
2.47269e-05
-1.22063e-05
-3.71868e-08
-1.89653e-06
4.16935e-06
9.97637e-06
-6.05387e-06
-1.90248e-06
4.33076e-09
7.95451e-06
-1.78049e-05
-5.21467e-06
-1.26625e-06
9.12165e-06
-2.48198e-06
1.76462e-05
-2.05916e-05
1.04419e-05
-1.0851e-05
1.4702e-06
-1.11793e-05
3.07098e-05
-1.32636e-05
9.06307e-06
3.7663e-06
-1.78709e-06
-3.91261e-06
6.13395e-06
-1.56768e-05
6.46722e-06
-1.58944e-06
-6.32141e-07
-4.16147e-06
1.55926e-05
-1.81735e-05
2.50781e-06
-1.44376e-06
-1.86862e-06
1.05543e-05
8.42376e-06
-1.67886e-05
-1.37765e-06
3.37616e-06
-1.48981e-06
1.28248e-05
3.45509e-06
-2.10983e-05
2.20966e-06
1.00421e-05
-6.71471e-06
-5.49102e-06
2.10523e-05
-7.27341e-06
3.74274e-07
2.38262e-06
-1.25825e-07
2.27082e-06
2.37152e-06
-1.87479e-05
2.48249e-06
1.60514e-06
1.58446e-05
1.75179e-06
-2.93609e-06
-3.78141e-06
8.5386e-07
1.66481e-06
1.27525e-06
-1.5118e-05
3.00065e-07
-2.18555e-06
1.36851e-05
3.31188e-06
-1.94691e-05
-9.24086e-07
3.45573e-06
4.04194e-07
2.14298e-05
-4.89655e-06
-7.09473e-06
4.65905e-07
-1.88399e-06
8.44249e-06
-2.25223e-06
4.14755e-07
6.14407e-07
1.24354e-06
-1.16598e-06
-1.11889e-07
-2.88793e-07
1.578e-06
-4.45701e-06
-6.12044e-07
-3.09119e-05
9.05988e-08
-4.56011e-07
3.63463e-05
-2.35704e-06
-2.91433e-05
3.50604e-06
-6.75839e-06
-5.51569e-06
4.02684e-05
-1.55703e-05
-7.46115e-07
2.69116e-07
-3.86039e-06
1.41026e-05
5.80503e-06
1.06964e-06
-1.80637e-06
-9.70427e-06
7.08599e-06
-3.60872e-06
6.96373e-06
1.26866e-05
-2.31155e-05
8.86601e-05
-1.26699e-05
-3.81375e-05
-2.93596e-05
-3.04318e-05
1.08432e-05
1.01163e-05
1.51477e-05
1.45014e-05
-6.79811e-06
-3.90149e-06
-4.04279e-06
-3.49879e-06
-1.17579e-05
2.0488e-06
9.63564e-05
-3.79049e-05
-3.08105e-05
-1.97615e-05
-2.16965e-05
9.44896e-06
7.70518e-06
9.10865e-06
9.94998e-06
1.87224e-07
-1.28814e-05
4.80045e-05
1.48238e-05
4.31134e-06
1.49769e-05
3.06494e-06
-1.29337e-07
4.7216e-07
9.09198e-08
-2.0412e-05
-2.55486e-05
-1.86249e-05
-2.00934e-05
-2.05804e-06
2.88574e-07
-1.18875e-06
3.12267e-06
-7.22179e-06
1.24882e-06
2.90598e-06
3.1123e-06
-3.83309e-06
-1.49171e-05
3.42879e-06
3.5315e-06
-1.8107e-06
1.36006e-05
7.9055e-06
-6.40191e-06
5.96465e-05
-3.22959e-05
-9.56976e-06
-2.6483e-05
-4.63683e-06
-2.74954e-06
-4.22319e-06
-1.93188e-06
-2.37545e-06
-9.16085e-06
-1.2908e-06
2.9526e-05
-2.53958e-06
-2.39441e-06
-2.00559e-06
-2.18047e-06
2.4653e-07
-1.27042e-06
3.93771e-05
1.92799e-07
1.40251e-07
3.31696e-07
-1.18757e-06
-2.55837e-08
-5.17818e-07
-1.18535e-05
-1.66705e-05
-8.3251e-06
-2.24801e-05
-6.79474e-06
9.34585e-07
1.3426e-06
-7.41373e-07
5.50546e-06
-1.09858e-05
-8.71859e-07
4.83871e-07
-5.79749e-07
1.07167e-05
1.23689e-06
3.89862e-06
-1.27372e-06
3.6926e-05
-1.03546e-06
-3.10792e-07
-2.69534e-07
-4.63335e-07
-8.30493e-07
-9.75399e-07
-9.36201e-07
-1.67979e-05
-2.65826e-06
-1.58454e-05
-5.83003e-06
-1.72278e-06
-6.56034e-06
6.00322e-05
-7.94355e-07
-1.50879e-06
-8.10338e-07
-1.02253e-05
-3.79849e-06
-6.31181e-06
-2.7112e-06
-3.09084e-06
-6.79675e-06
-1.30934e-05
-1.30716e-05
-1.5113e-07
-3.94475e-06
1.41743e-05
-1.36795e-06
6.32029e-07
-1.39843e-06
2.03186e-06
-1.10054e-05
4.82168e-07
1.83672e-07
9.09168e-06
-1.93201e-05
-1.64254e-06
5.48516e-06
-3.58888e-06
1.2506e-05
-9.5986e-06
2.18241e-06
-2.50244e-06
9.91027e-06
-8.88018e-07
3.58061e-07
-3.93783e-07
9.46889e-07
-3.57693e-06
-5.9918e-06
-3.90414e-07
9.83472e-06
3.91915e-06
1.52891e-05
-4.30683e-05
-1.11863e-05
-6.25705e-06
4.13035e-05
-3.91082e-08
-4.62011e-05
7.17221e-06
-4.14969e-06
3.68765e-06
3.953e-05
-1.22171e-05
4.80833e-07
1.0151e-06
-1.16124e-06
1.03356e-05
1.54677e-06
1.94248e-06
1.02199e-06
-6.61162e-06
-1.01972e-06
-1.92678e-06
6.59366e-06
-1.24017e-06
7.13409e-06
7.66873e-05
4.14825e-06
1.48081e-08
3.79578e-06
1.5609e-06
-8.30099e-07
-3.01266e-06
6.95071e-07
-2.93087e-07
-7.70111e-06
2.38118e-05
9.16678e-05
-2.64683e-06
-3.26767e-06
-4.43438e-06
-2.31341e-06
5.86948e-07
1.84222e-06
3.06084e-05
2.80848e-06
-2.12329e-07
3.20436e-06
-8.28083e-08
2.46035e-07
9.03918e-07
3.98191e-07
-3.80872e-06
-1.78689e-07
-1.34349e-07
4.74708e-06
-2.16797e-06
3.70186e-07
-4.86591e-07
2.29618e-06
-9.93986e-08
-1.15686e-05
1.08631e-06
2.03786e-06
-5.36764e-07
9.08056e-06
4.58639e-07
1.4637e-06
8.22274e-05
-5.20939e-06
-7.25162e-06
-2.22929e-06
-2.67885e-06
-1.4831e-05
1.47074e-06
6.71567e-05
-3.19383e-07
-1.6583e-06
3.03781e-05
-3.69674e-07
-2.80509e-07
-2.73191e-07
-8.28997e-07
3.33878e-08
-2.93121e-07
-5.0725e-06
7.78148e-08
2.83742e-07
-4.33773e-07
4.82534e-06
-1.03212e-05
1.5117e-07
9.42635e-07
-1.41642e-07
8.87218e-06
4.96854e-07
-1.89885e-06
-1.65207e-06
5.31746e-05
-4.03541e-06
-1.69405e-06
-1.42603e-06
-9.70173e-07
-1.64779e-06
-7.55148e-07
-7.05419e-07
-1.0165e-05
-3.63962e-06
9.1582e-05
-4.30084e-06
-4.26161e-06
-3.07095e-06
-3.82139e-06
-1.43586e-06
-1.28257e-06
-1.81662e-05
-3.7943e-06
-2.4724e-06
1.26096e-05
-3.05854e-06
4.8582e-07
-1.34483e-06
3.90088e-06
-7.98101e-06
-4.80909e-08
-3.14404e-07
6.77411e-06
-1.11423e-05
-2.17164e-07
3.89059e-07
-1.86798e-06
9.19872e-06
-7.30358e-06
1.7323e-06
2.93546e-07
5.36641e-06
-2.37941e-06
1.09315e-06
-6.44493e-06
7.71551e-06
-2.15655e-05
-1.34949e-05
9.5571e-06
2.54666e-05
1.50157e-05
1.22659e-05
-3.01066e-05
-7.74049e-06
-6.95863e-06
1.75242e-05
1.09929e-05
-2.99477e-05
4.0896e-06
7.09572e-07
-3.34427e-06
1.74998e-05
-1.07332e-05
4.90974e-06
2.12679e-06
-2.70725e-06
8.67696e-06
-2.27307e-06
-2.95466e-06
1.56388e-06
-8.47311e-06
-3.12336e-06
-6.27933e-07
1.36152e-05
-7.7892e-06
1.85636e-05
7.84755e-05
-4.91082e-06
-1.21969e-05
-3.90616e-06
-8.07001e-06
3.76491e-06
1.50574e-06
6.52552e-06
4.72512e-06
2.20961e-06
4.37486e-05
6.98019e-05
-1.34762e-05
-1.01028e-05
-7.21822e-06
-1.08439e-06
5.67302e-07
1.79223e-06
2.89511e-05
-2.4923e-06
-8.78673e-07
-1.14867e-06
-7.47669e-07
1.40832e-07
3.85648e-06
2.77729e-06
-5.9318e-06
-4.07723e-07
4.23237e-08
6.89201e-06
-3.00783e-06
2.38364e-07
-7.63854e-07
3.41658e-06
7.55248e-07
-7.55063e-06
3.31714e-07
-2.39864e-07
-1.39927e-07
6.84346e-06
-8.9856e-07
5.02032e-06
0.000101752
-9.96955e-07
-1.41816e-06
-1.38623e-06
-1.28191e-06
-1.03772e-05
2.95788e-05
9.08052e-05
-6.65422e-07
-1.84218e-07
2.49276e-05
-8.20261e-07
-5.65809e-07
-7.42492e-07
-2.74134e-07
2.07981e-07
-9.01733e-08
-4.7888e-06
5.37256e-07
4.21898e-07
-7.01194e-07
3.86542e-06
-7.84857e-06
4.82717e-07
-1.0844e-07
8.55685e-07
7.10334e-06
-4.84737e-07
-1.1151e-05
3.0195e-07
7.48585e-05
-3.40074e-07
-1.3372e-07
-3.35223e-07
-1.07121e-06
2.65194e-07
-2.16046e-06
-2.03905e-06
-2.90642e-06
8.11331e-07
0.00012215
-2.30957e-06
-3.5487e-06
-4.3069e-06
1.82008e-06
-1.44407e-06
-2.55958e-07
-9.08326e-06
-1.13608e-06
3.88676e-07
6.74002e-06
-4.26234e-06
3.90084e-07
6.55463e-07
3.28827e-06
-5.85435e-06
8.75317e-08
-6.42624e-08
6.12349e-06
-8.80079e-06
-3.09843e-07
-8.28319e-07
1.11373e-07
1.06389e-05
-5.172e-06
-1.11262e-06
1.9958e-06
4.25504e-06
-1.34173e-05
1.39866e-06
-3.61405e-06
1.56327e-05
-2.66055e-05
-5.15379e-06
4.76897e-06
2.69903e-05
5.01008e-06
3.97535e-06
-1.03353e-05
-2.7173e-06
-8.21526e-07
4.88871e-06
5.9117e-06
-1.24426e-05
6.56592e-07
1.06266e-06
-7.99409e-06
1.28057e-05
-9.73115e-06
1.64709e-06
2.13229e-06
-3.07667e-06
1.17792e-05
-2.75076e-06
-2.66489e-06
1.8159e-06
-1.81268e-05
-3.20437e-06
1.94812e-06
2.02321e-05
-1.13958e-07
2.54029e-05
7.17728e-05
-3.84018e-06
-5.38831e-06
-3.7617e-06
-4.00609e-06
3.31876e-06
9.78838e-07
-1.36866e-06
-4.51892e-06
8.31018e-07
3.48642e-05
4.91406e-05
-5.10627e-06
-4.12253e-06
-3.04882e-06
-2.8702e-06
1.61222e-06
3.95996e-06
3.86035e-05
-7.84806e-07
-1.31579e-06
-1.60317e-06
-3.9651e-06
-5.54243e-07
-3.01911e-06
-3.15124e-06
-9.76115e-06
-4.39924e-07
1.05153e-06
1.07598e-05
-5.20705e-06
-1.60147e-06
1.07319e-06
5.73533e-06
-1.41856e-06
-6.26882e-06
-1.25251e-06
1.41457e-06
8.87378e-07
6.63794e-06
-4.3013e-08
7.59619e-06
0.000122923
-1.69844e-06
-6.1933e-07
-1.37214e-06
3.6949e-07
-6.64004e-06
3.67426e-05
9.55238e-05
-7.70956e-07
-1.23354e-06
3.13364e-05
-2.20278e-07
-2.66642e-06
-1.11043e-06
-1.17715e-07
-1.24317e-06
-1.72633e-06
-2.82524e-06
-3.46695e-07
-1.11694e-06
7.10961e-08
3.44683e-06
-5.34929e-06
1.84122e-07
8.43434e-07
-1.61049e-07
5.1434e-06
-6.60615e-07
-1.42521e-05
-2.66172e-06
0.000104438
-1.00141e-06
-2.27226e-06
-4.91067e-07
-1.0955e-06
-1.41122e-06
6.27558e-07
5.74572e-07
-1.20802e-06
1.80946e-06
0.000131317
-6.23754e-07
9.06583e-07
6.78805e-07
1.97937e-06
4.97792e-06
4.80317e-06
-4.39932e-06
-2.57798e-07
-1.57804e-06
3.7936e-06
-2.29894e-06
-1.43193e-07
5.95928e-07
1.84471e-06
-5.13084e-06
-9.31994e-07
-1.79275e-07
3.58039e-06
-1.00686e-05
5.31982e-07
-1.28567e-06
-9.90191e-07
1.36219e-05
-4.17595e-06
1.95248e-07
-9.54923e-08
4.07619e-06
-1.61137e-05
1.65307e-06
-1.77666e-06
1.62373e-05
-2.65627e-05
-3.2784e-06
5.26681e-06
2.45743e-05
2.87724e-07
2.28763e-06
-8.75857e-07
-5.30746e-06
1.969e-07
3.41106e-06
2.09578e-07
-1.11641e-05
3.86539e-06
-2.22902e-06
1.99608e-06
7.32204e-06
-1.23521e-05
-5.80517e-06
1.38692e-06
3.88431e-06
1.10987e-05
1.78736e-06
-3.28935e-06
-1.37444e-06
-1.93685e-05
1.52525e-06
3.33594e-06
1.91711e-05
5.6298e-06
1.83988e-05
6.9199e-05
2.23123e-07
-2.46533e-06
-1.84636e-06
-1.32062e-06
-2.78884e-06
-5.6305e-06
-3.20368e-06
-4.42263e-06
-1.27808e-05
3.02652e-05
5.28091e-05
-2.7034e-06
-3.33879e-06
-4.50705e-06
-4.9738e-06
-2.83409e-06
1.00525e-05
4.59817e-05
-3.83627e-06
-4.68038e-06
-4.67015e-06
-4.36688e-06
-2.58052e-06
-4.30196e-06
-2.94125e-06
-6.67832e-06
-1.50131e-06
-1.42429e-06
3.16748e-06
3.60235e-06
5.27519e-07
-5.15682e-08
2.35067e-07
-7.1146e-07
-5.85231e-06
-1.35084e-06
1.27114e-06
5.932e-06
-2.83237e-06
-7.1531e-06
-1.89032e-06
2.94495e-06
1.22142e-06
7.70943e-06
3.31918e-06
6.9577e-06
0.000133274
-1.99827e-06
-2.91518e-08
-1.16762e-06
9.65831e-07
-1.93461e-06
3.17895e-05
9.92532e-05
-3.26597e-07
3.63398e-07
3.71008e-05
-1.8747e-07
3.34151e-07
4.20485e-08
1.84443e-07
1.70496e-06
2.38506e-07
-2.72535e-06
-3.18706e-06
-3.84333e-07
3.15635e-06
2.8138e-06
-2.92229e-08
-1.26446e-07
-8.37444e-09
-1.18213e-08
1.70448e-07
-6.2353e-06
-1.95663e-06
1.2875e-06
5.1233e-07
7.30523e-06
-9.1313e-07
-1.14599e-05
1.47887e-06
0.000114552
-8.09287e-08
2.53836e-07
7.70849e-07
9.31244e-07
1.47745e-06
1.71235e-06
1.75996e-06
6.19723e-07
5.09772e-06
0.000127961
7.42492e-07
6.07472e-07
7.63856e-07
5.25635e-06
5.33442e-06
5.26383e-06
-4.31405e-06
7.08591e-07
-5.58381e-07
5.14697e-06
-2.29268e-06
-9.64265e-07
3.72177e-07
2.88398e-06
-5.21156e-06
1.08503e-06
-1.43467e-06
7.04007e-06
-1.84862e-05
2.29147e-06
-3.21807e-06
2.33134e-06
2.21791e-05
-2.78278e-06
9.30489e-07
-7.77998e-07
2.63029e-06
-1.52556e-05
1.69107e-06
1.34827e-06
1.22163e-05
-2.0693e-05
-2.94535e-07
5.85131e-06
1.51363e-05
-3.54326e-06
-1.38913e-06
-7.21653e-06
-2.44056e-06
3.82335e-06
1.07661e-05
-5.26759e-06
-6.5011e-06
3.03718e-06
-1.36222e-06
3.11501e-06
6.97872e-06
-9.3796e-06
-4.83974e-06
1.88427e-06
4.57228e-06
7.77947e-06
-1.66893e-08
-5.89354e-06
-1.71823e-06
-1.89065e-05
3.02782e-06
4.79177e-06
1.86987e-05
6.65416e-06
1.67647e-05
7.39525e-05
-4.30697e-06
-1.7824e-06
-6.30732e-06
-3.28336e-06
-3.43128e-06
-3.50785e-06
-3.18641e-06
-2.36675e-06
-9.44672e-06
2.95332e-05
6.1815e-05
-5.23431e-06
-6.21913e-06
-5.18974e-06
-5.79505e-06
-5.89395e-06
1.25313e-05
5.92176e-05
-5.03417e-06
-3.64051e-06
-4.5413e-06
-2.89886e-06
-4.56781e-06
-4.7934e-06
-3.84396e-06
-1.24361e-06
-1.83652e-06
-7.71847e-06
2.72701e-06
2.17765e-06
6.46444e-06
-3.44401e-06
7.38835e-06
-5.36914e-06
2.13226e-06
-7.17191e-06
-5.66301e-06
-7.91351e-07
1.58532e-06
4.86904e-06
-2.17577e-06
-8.72708e-06
-2.84805e-06
1.49678e-06
2.03741e-06
1.02167e-05
4.76994e-06
3.0853e-06
0.000141521
-1.02618e-06
5.75798e-07
-9.68932e-08
1.20903e-06
6.17432e-07
2.55332e-05
0.000107406
-5.78148e-07
1.52438e-06
4.63069e-05
4.73836e-07
-4.99032e-07
5.67591e-07
5.10211e-07
1.60319e-06
3.40639e-07
-4.78157e-06
-3.22797e-06
-1.65175e-06
2.8502e-06
6.23294e-06
-1.60899e-06
-2.04143e-06
2.66097e-06
-2.77074e-06
1.82916e-06
1.93103e-06
-8.46349e-06
-1.56189e-06
6.07873e-07
1.40465e-06
9.63784e-06
-1.62498e-06
-8.763e-06
9.73842e-07
0.000119329
5.70435e-07
1.08735e-06
1.23704e-06
1.10316e-06
1.04138e-06
3.24324e-07
7.33713e-07
3.45671e-07
4.00277e-06
0.000127097
7.74314e-07
2.85607e-07
6.41001e-07
4.2105e-06
3.5695e-06
3.80501e-06
-6.1516e-06
1.00565e-06
3.97282e-07
6.61873e-06
-3.05812e-06
-1.83354e-06
-8.05072e-07
1.30602e-06
4.39031e-06
-2.03355e-06
-1.14688e-06
9.51061e-07
2.22928e-06
-8.83388e-06
2.7446e-06
-3.14664e-06
1.02098e-05
-2.48808e-05
2.75689e-06
-2.67082e-06
2.85163e-06
2.59459e-05
-3.10168e-06
6.87656e-07
-1.55306e-06
3.96708e-06
-7.19459e-06
-2.52636e-07
4.21505e-06
3.23218e-06
-1.06216e-05
-1.59175e-06
3.91421e-06
8.29911e-06
-7.22623e-06
-8.45762e-07
-1.29378e-05
-1.09111e-07
7.25281e-06
1.38661e-05
-4.82236e-06
-6.88688e-06
-6.85033e-07
1.47492e-06
4.00188e-06
6.91747e-06
-6.99502e-06
-2.67666e-06
9.68641e-07
3.10412e-06
6.9549e-06
-1.35598e-06
-4.63163e-06
-4.76118e-07
-1.83204e-05
2.24418e-06
3.73886e-06
1.74451e-05
9.90369e-06
9.40222e-06
8.40325e-05
-6.43959e-06
-4.66833e-06
-5.70765e-06
-4.04089e-06
-3.11839e-06
-1.84148e-06
-2.58824e-06
-9.81275e-07
-5.27769e-06
2.16468e-05
7.30818e-05
-4.97981e-06
-4.982e-06
-3.96576e-06
-3.80468e-06
-3.33923e-06
7.74974e-06
6.73763e-05
-3.7645e-06
-2.53347e-06
-2.85338e-06
-2.64894e-06
-2.90392e-06
-1.19408e-06
-1.94861e-06
-1.99483e-06
-9.71533e-07
-1.74327e-06
-3.68827e-07
1.73923e-06
7.69282e-06
1.98796e-06
6.96642e-07
-7.08098e-07
-2.32114e-06
-7.34819e-06
-4.0333e-06
-8.41484e-07
1.12003e-06
3.75476e-06
8.0327e-08
-1.18836e-05
-2.56843e-06
-8.32115e-07
1.95973e-06
1.32441e-05
4.38885e-06
-2.33339e-06
0.000143925
3.72462e-07
1.07116e-06
1.48217e-06
2.01748e-06
6.08642e-06
1.25575e-05
0.000114797
1.07078e-06
7.85985e-07
5.08528e-05
1.96742e-06
1.97677e-06
2.28052e-06
1.27445e-07
9.06331e-07
1.7496e-07
-6.93775e-06
5.09499e-07
3.74139e-07
1.49882e-07
6.97501e-06
-1.98907e-07
1.35906e-06
8.42926e-07
-2.24906e-07
-8.40292e-07
-9.37879e-07
-1.09582e-05
-8.61664e-07
-1.95285e-07
1.31853e-06
1.23449e-05
-1.64829e-06
-6.40233e-06
-3.32686e-07
0.000119046
1.04936e-06
1.16965e-06
1.83747e-06
1.18259e-06
1.42091e-07
-6.13922e-07
-8.28023e-08
7.14716e-07
2.70046e-06
0.000118028
1.22371e-06
1.33143e-06
1.19049e-06
2.79643e-06
2.59161e-06
2.67487e-06
-7.43266e-06
1.11885e-06
-6.4776e-08
7.87929e-06
-4.84504e-06
-2.75875e-08
-1.78875e-06
1.95784e-06
4.70352e-06
-3.01535e-06
5.94749e-07
-2.70155e-06
2.28806e-06
2.83409e-06
-1.13474e-05
2.89526e-06
-4.09897e-06
1.22184e-05
-2.63298e-05
2.81027e-06
-1.70301e-06
2.36066e-06
2.55623e-05
-4.75715e-06
1.02511e-06
-1.76521e-06
5.49724e-06
-1.60625e-06
-2.11087e-06
2.89829e-06
8.18823e-07
-7.34556e-06
-2.1569e-07
4.46617e-07
7.11464e-06
-2.89622e-06
-1.50426e-06
-1.36483e-05
1.71149e-06
3.05802e-06
1.32792e-05
-2.65358e-06
-7.57502e-06
-2.3235e-06
2.01112e-06
1.67535e-06
8.86563e-06
-7.04375e-06
-1.6198e-06
1.35775e-06
1.44314e-06
7.40264e-06
-1.53998e-06
-1.71949e-06
1.77145e-06
-1.62232e-05
-8.88095e-07
1.75136e-06
1.5308e-05
8.49118e-06
-9.07349e-07
7.74799e-05
-1.83932e-06
-1.03777e-06
2.23219e-07
9.46e-07
-7.85857e-07
7.512e-10
5.10249e-07
9.51467e-07
2.57437e-06
9.58547e-06
7.5031e-05
-2.00748e-06
-1.90118e-06
-8.26123e-07
-8.83091e-07
7.84738e-07
3.5901e-06
7.06851e-05
-1.63679e-06
-1.40776e-06
-9.62039e-07
-1.61539e-06
-3.92334e-07
7.58377e-07
1.46702e-07
-4.32354e-06
-2.751e-06
2.9066e-06
-6.6848e-07
5.62117e-06
6.45967e-06
-2.32492e-06
3.51504e-07
-1.82714e-06
-2.65912e-06
-3.8722e-06
-8.63731e-07
4.24466e-07
4.31147e-06
1.71918e-06
-1.4234e-05
-1.38392e-06
-2.52823e-06
1.44288e-06
1.49841e-05
2.54675e-06
-3.9506e-06
0.00013498
1.69597e-06
1.82676e-06
2.98914e-06
2.9293e-06
1.00544e-05
5.62478e-06
0.00011125
3.01382e-06
6.26316e-07
5.0287e-05
3.07756e-06
3.19774e-06
2.19358e-06
6.28782e-07
9.87389e-07
4.85176e-07
-5.24644e-06
3.13542e-06
2.9238e-06
-1.29413e-06
3.49517e-06
3.48718e-08
4.24774e-06
-2.93173e-06
2.19569e-06
-3.59245e-06
4.58812e-08
-1.38686e-05
-3.96054e-07
-9.1818e-07
1.23986e-06
1.54822e-05
-1.53932e-06
-4.62613e-06
-6.42017e-07
0.000115096
1.58178e-06
1.12834e-06
2.50876e-06
1.21459e-06
-2.93399e-07
-6.06321e-07
-2.65742e-07
1.43012e-06
2.35705e-06
0.000103338
1.28941e-06
1.90158e-06
1.13678e-06
2.49086e-06
2.52196e-06
2.56061e-06
-8.88627e-06
1.46777e-06
5.68301e-08
9.41811e-06
-3.63478e-06
2.03384e-07
-1.30852e-06
4.73992e-06
-1.30755e-05
2.35996e-06
-3.94146e-06
1.40149e-05
-2.45745e-05
2.52347e-06
-1.27572e-06
2.28192e-06
2.34019e-05
-6.18377e-06
5.95428e-07
-1.30462e-06
6.89296e-06
-3.99536e-07
-7.92043e-07
9.30988e-07
2.60592e-07
-7.25298e-06
2.99305e-07
-3.24898e-07
7.27857e-06
-5.36514e-09
-1.39533e-06
-1.31475e-05
1.88506e-06
-8.06021e-07
1.34692e-05
-2.33012e-07
-1.01781e-05
-2.53618e-06
2.15959e-06
-6.78733e-07
1.14664e-05
-7.88906e-06
-8.76797e-07
1.40169e-06
1.67766e-07
8.84885e-06
-1.65245e-06
-7.93849e-07
2.56536e-06
-1.4889e-05
-2.66754e-06
1.12834e-06
1.46567e-05
4.17873e-06
-2.70082e-07
6.19914e-05
8.62306e-07
1.34901e-06
5.03532e-07
1.54899e-06
1.40486e-06
1.96362e-06
1.33179e-06
2.61579e-06
7.13253e-06
3.73759e-06
6.44673e-05
5.69478e-07
5.24326e-07
1.40728e-06
1.37124e-06
1.6893e-06
5.41301e-07
6.85241e-05
1.1972e-07
-3.76549e-07
8.30682e-07
1.00527e-07
2.13286e-06
1.84415e-06
2.41156e-06
-4.67719e-06
-2.52917e-06
2.07416e-06
6.82151e-06
-5.04135e-06
-8.38489e-07
-3.6761e-09
5.88352e-06
2.83262e-06
-1.57934e-05
-9.09949e-07
-4.33839e-06
1.52257e-06
1.66865e-05
-5.32284e-07
1.29362e-06
0.000118957
3.18058e-06
3.04482e-06
4.48517e-06
4.28122e-06
1.01827e-05
7.4445e-06
9.68286e-05
2.51887e-06
8.60573e-07
5.02351e-05
1.02314e-06
2.20985e-06
8.20336e-07
8.24421e-07
1.36718e-06
1.15152e-06
-3.08712e-06
-3.71014e-08
1.88945e-06
-5.38098e-07
4.29174e-06
-1.74115e-05
1.50289e-07
-1.78813e-06
1.26776e-06
1.95978e-05
-1.81615e-06
-4.38746e-06
-6.23682e-08
0.000112546
2.15593e-06
1.22847e-06
2.95853e-06
1.4171e-06
1.40992e-07
6.38203e-08
3.27805e-07
1.42267e-06
2.86756e-06
9.01153e-05
8.36887e-07
1.79474e-06
6.11271e-07
2.76775e-06
3.04831e-06
2.93074e-06
-1.02965e-05
1.57373e-06
5.83863e-07
1.04222e-05
-5.43252e-06
4.99155e-07
-4.83149e-07
5.41652e-06
-1.50021e-05
1.61004e-06
-3.13403e-06
1.64638e-05
-2.24811e-05
2.23313e-06
-1.34273e-06
2.32176e-06
2.21366e-05
-7.62769e-06
8.8786e-08
-8.27658e-07
8.36656e-06
-3.14717e-07
-2.5347e-07
1.00437e-07
4.6775e-07
-6.73171e-06
6.42477e-07
5.29963e-07
5.55927e-06
-2.11904e-07
-1.8118e-06
-1.41368e-05
1.69648e-06
-2.30084e-07
1.46941e-05
8.18459e-07
-1.26902e-05
-1.70604e-06
1.47336e-06
-1.72361e-06
1.3828e-05
-1.00381e-05
-4.83466e-07
1.13619e-06
-5.74417e-07
1.12397e-05
-1.27994e-06
-1.2382e-06
1.52479e-06
-1.45265e-05
-1.17348e-06
1.20348e-06
1.42099e-05
2.15905e-06
3.92499e-06
5.09718e-05
-1.21194e-07
8.33057e-07
-3.13786e-07
5.90307e-07
5.87197e-07
2.04419e-06
-2.05202e-07
1.5209e-06
8.02583e-06
3.34194e-06
4.84018e-05
1.62566e-06
1.6192e-06
1.7461e-06
1.86584e-06
2.46372e-06
7.92952e-07
6.13069e-05
9.66279e-07
5.35261e-07
1.42441e-06
6.29916e-07
2.91378e-06
2.51832e-06
2.99831e-06
-8.26759e-06
-6.31742e-07
1.46368e-06
9.89937e-06
-6.73247e-06
-7.4862e-07
-1.52371e-08
7.49633e-06
2.58504e-06
-1.80811e-05
-1.19913e-06
-4.5621e-06
1.67375e-06
1.95836e-05
-3.2307e-06
6.49532e-06
0.000103727
3.88819e-06
3.81335e-06
3.85983e-06
4.32936e-06
7.67351e-06
1.09895e-05
7.82768e-05
1.70683e-06
1.20257e-06
4.84506e-05
5.2351e-07
1.64318e-06
5.33393e-07
1.41978e-06
1.5785e-06
1.64321e-06
-5.84951e-06
-7.77656e-07
-2.82629e-08
1.10132e-06
7.26094e-06
-2.20623e-05
5.38244e-07
-2.16503e-06
9.74522e-07
2.43955e-05
-1.6809e-06
-4.7573e-06
3.05139e-07
0.000113747
2.27806e-06
1.4112e-06
2.83712e-06
1.6572e-06
5.0786e-07
3.80548e-07
6.75154e-07
6.37202e-07
3.03973e-06
8.34929e-05
-9.39337e-08
8.41269e-07
-3.76355e-07
2.86774e-06
3.09332e-06
2.84558e-06
-1.12838e-05
7.73513e-07
9.31154e-07
1.14189e-05
-5.73312e-06
-6.23522e-07
4.10324e-07
5.94631e-06
-1.79406e-05
9.99207e-07
-2.31141e-06
1.9558e-05
-2.22357e-05
2.01297e-06
-1.69926e-06
2.25498e-06
2.27067e-05
-9.10199e-06
-2.38413e-07
-4.09775e-07
9.75018e-06
-6.26895e-07
3.92849e-08
-1.93774e-07
7.81384e-07
-4.30047e-06
-1.18329e-06
1.97361e-06
3.51015e-06
-9.72672e-08
-3.39977e-07
-1.47733e-05
8.51842e-07
2.73367e-07
1.40853e-05
6.34092e-07
-1.47691e-05
-4.84488e-07
3.09394e-07
-1.1663e-06
1.54764e-05
-1.21319e-05
-3.87216e-07
7.53898e-07
-5.63464e-07
1.25546e-05
-2.25986e-07
-2.19164e-06
1.54022e-07
-1.35037e-05
1.12854e-06
1.97232e-06
1.24405e-05
3.39526e-06
4.03666e-06
4.8606e-05
-6.25736e-07
-3.84305e-07
-7.59249e-07
-6.13476e-07
-1.01103e-06
-4.73435e-08
-1.24817e-06
-3.76734e-07
7.37692e-06
3.03237e-06
3.73397e-05
9.04013e-07
9.99934e-07
1.06938e-06
1.07477e-06
2.35644e-06
3.04043e-06
5.3551e-05
7.56349e-07
3.21278e-07
9.24742e-07
3.23335e-07
2.57608e-06
2.34187e-06
2.4923e-06
-1.15241e-05
-3.76532e-07
1.59628e-06
1.26608e-05
-8.06782e-06
-7.42059e-07
4.59194e-07
8.35068e-06
1.70128e-07
-2.12876e-05
-1.77248e-06
-1.39469e-06
1.70906e-06
2.25756e-05
-1.37962e-06
6.50657e-06
9.56085e-05
1.50657e-06
2.54092e-06
6.3149e-07
2.34894e-06
4.11144e-06
8.14796e-06
6.76702e-05
9.0747e-07
1.23207e-06
4.72163e-05
1.58292e-07
8.40802e-07
2.16076e-08
1.7418e-06
1.60002e-06
1.88407e-06
-8.71279e-06
-1.26099e-06
-6.79727e-07
1.78103e-06
9.77996e-06
-2.66465e-05
1.04965e-06
-2.03071e-06
3.38459e-07
2.86102e-05
-1.32113e-06
-4.92834e-06
3.35402e-07
0.000115513
1.90818e-06
1.69747e-06
2.60131e-06
1.8368e-06
4.87967e-07
3.2098e-07
4.80784e-07
-3.90342e-07
2.25476e-06
8.14522e-05
-1.05009e-06
-6.86699e-08
-1.28365e-06
2.15373e-06
1.85572e-06
1.78884e-06
-1.2463e-05
-4.26892e-07
1.0863e-06
1.26453e-05
-6.06345e-06
-1.27085e-06
1.29096e-06
6.04334e-06
-2.11315e-05
6.24596e-07
-1.73893e-06
2.25813e-05
-2.36638e-05
1.73768e-06
-1.95552e-06
1.79244e-06
2.43439e-05
-1.02902e-05
-8.19449e-07
4.76339e-07
1.06333e-05
-9.29289e-07
3.11078e-07
-4.55373e-07
1.07358e-06
-3.12586e-06
-2.23015e-06
2.35349e-06
3.00252e-06
2.55819e-07
7.98604e-07
-1.27329e-05
4.18382e-07
2.16063e-07
1.10441e-05
4.84781e-07
-1.61583e-05
-1.87363e-07
-1.46252e-07
-7.02578e-07
1.67097e-05
-1.27621e-05
-5.22961e-07
4.48552e-07
-2.96139e-07
1.29293e-05
2.03366e-07
-2.39171e-06
-4.40034e-07
-1.13718e-05
1.52627e-06
1.85644e-06
1.08208e-05
4.67768e-06
5.87792e-07
5.13647e-05
-4.11601e-07
-7.96823e-07
-7.98926e-08
-6.53067e-07
-1.50508e-06
-1.39348e-06
-1.62515e-06
-1.55915e-06
6.32683e-06
5.72299e-07
3.36998e-05
5.48343e-07
4.18852e-07
2.92326e-07
1.58927e-07
2.07195e-06
5.59938e-06
4.77038e-05
-1.58305e-07
-3.27234e-07
-3.32999e-07
-4.97216e-07
1.99328e-06
1.95191e-06
1.87328e-06
-1.36055e-05
-7.68135e-07
2.26854e-06
1.4177e-05
-8.32348e-06
-8.54158e-07
1.06443e-06
8.11321e-06
-2.1078e-06
-2.32275e-05
-9.7517e-07
2.17607e-06
8.61862e-07
2.32725e-05
2.83135e-06
3.22182e-06
9.39053e-05
-1.70364e-06
7.8462e-09
-1.92053e-06
-1.45864e-07
3.41199e-06
1.32743e-06
6.63344e-05
5.9838e-07
1.27155e-06
4.84943e-05
-1.24008e-07
4.58123e-07
-2.46602e-07
1.95086e-06
1.67898e-06
2.14612e-06
-1.09614e-05
-1.82147e-06
-1.01591e-06
2.38626e-06
1.20109e-05
-3.04776e-05
1.14431e-06
-2.00141e-06
-4.38311e-07
3.16362e-05
1.36783e-07
-4.02741e-06
1.03943e-08
0.000117123
1.72616e-06
1.30626e-06
2.20172e-06
8.44437e-07
-9.50838e-08
-1.07691e-07
-2.47078e-07
-1.05325e-06
5.58057e-07
8.1698e-05
-1.73858e-06
-5.26957e-07
-1.83239e-06
8.40634e-07
1.74608e-07
6.32126e-07
-1.36864e-05
-1.1817e-06
1.29412e-06
1.37923e-05
-5.90266e-06
-1.71624e-06
1.90957e-06
5.70932e-06
-2.38697e-05
1.87979e-07
-9.93564e-07
2.46857e-05
-2.52542e-05
1.31231e-06
-2.15915e-06
1.05499e-06
2.56041e-05
-1.07945e-05
-1.53109e-06
1.61341e-06
1.07122e-05
-1.22199e-06
4.55336e-07
-5.85933e-07
1.35259e-06
-3.06339e-06
-2.58316e-06
2.35706e-06
3.28949e-06
1.97738e-08
2.04769e-06
-9.25702e-06
-5.1668e-07
-1.31126e-07
7.83737e-06
4.76429e-07
-1.69988e-05
-5.08839e-07
5.7806e-08
1.81718e-07
1.67917e-05
-1.31697e-05
-8.23821e-07
5.66657e-08
4.4797e-07
1.33974e-05
9.14307e-08
-1.9217e-06
-1.04878e-06
-1.07735e-05
1.58979e-06
1.15157e-06
1.10026e-05
5.20535e-06
-3.76799e-06
5.74757e-05
6.49478e-07
-5.75372e-07
7.97104e-07
-1.24956e-07
-1.73669e-06
-2.3888e-06
-1.79915e-06
-2.36998e-06
6.19308e-06
-2.12454e-06
3.72617e-05
-5.71375e-07
-5.28883e-07
-7.3943e-07
-5.85379e-07
1.71277e-06
6.86948e-06
4.56638e-05
-1.42922e-06
-8.72393e-07
-1.53796e-06
-1.06087e-06
1.54478e-06
1.60782e-06
1.39868e-06
-1.46224e-05
-1.56927e-06
3.08096e-06
1.48235e-05
-7.93379e-06
-7.95551e-07
8.24828e-07
7.90451e-06
-2.35494e-06
-2.31969e-05
5.21445e-07
3.47173e-06
-1.6637e-06
2.32224e-05
6.46807e-06
-1.09455e-06
9.62662e-05
-3.41222e-06
-2.37823e-06
-3.10328e-06
-2.60868e-06
4.27843e-06
-3.25005e-06
6.96496e-05
2.87802e-07
1.26985e-06
5.20995e-05
-2.6712e-07
9.98128e-08
-3.72643e-07
2.3e-06
1.70143e-06
2.5236e-06
-1.29907e-05
-2.39894e-06
-1.41991e-06
3.21348e-06
1.38838e-05
-3.16818e-05
2.94821e-07
-3.60795e-07
2.84822e-08
3.01162e-05
1.60299e-06
-1.04757e-06
-3.90497e-07
0.000120928
6.84155e-08
-4.19633e-07
-4.42099e-07
-8.27555e-07
-8.35658e-07
-2.61861e-07
-7.42724e-07
-1.06839e-06
-6.86249e-07
8.39738e-05
-1.99201e-06
-3.95783e-07
-2.0127e-06
1.62611e-07
-7.233e-07
1.42343e-07
-1.47963e-05
-1.43272e-06
1.48593e-06
1.49446e-05
-5.62297e-06
-2.40906e-06
2.34672e-06
5.6853e-06
-2.52438e-05
-5.14203e-07
-1.41822e-07
2.55094e-05
-2.62457e-05
8.60482e-07
-2.24069e-06
4.42273e-07
2.64974e-05
-1.05308e-05
-2.16253e-06
2.3155e-06
1.03778e-05
-1.377e-06
3.2424e-07
-2.7134e-07
1.3241e-06
-3.52599e-06
-2.2333e-06
2.06439e-06
3.6949e-06
-1.42924e-07
1.5853e-06
-7.1763e-06
-1.26843e-06
-1.98171e-07
7.20053e-06
4.06741e-07
-1.57008e-05
3.07409e-07
8.4818e-07
7.05789e-07
1.34327e-05
-1.3553e-05
-5.88762e-07
6.51224e-07
9.85426e-07
1.37065e-05
-1.20137e-06
-1.32003e-06
-5.48473e-07
-1.12103e-05
1.20244e-06
4.54823e-07
1.14215e-05
5.33989e-06
-7.07479e-06
6.41721e-05
1.18026e-06
2.84087e-07
1.3017e-06
9.2538e-07
-1.72753e-06
-2.8875e-06
-1.50293e-06
-2.53495e-06
6.48768e-06
-4.99354e-06
4.32349e-05
-8.08574e-07
-6.49117e-07
-3.3179e-07
-3.38015e-07
1.59486e-06
6.83735e-06
4.66e-05
-2.02269e-06
-1.41623e-06
-1.80174e-06
-1.62109e-06
1.26093e-06
1.56563e-06
1.15448e-06
-1.49092e-05
-2.27171e-06
3.79396e-06
1.49818e-05
-7.94112e-06
-8.60564e-07
8.96125e-07
7.90556e-06
-2.03553e-06
-2.30257e-05
5.45456e-07
3.71904e-06
-1.03169e-06
2.18284e-05
7.71939e-06
-3.70274e-06
0.000100587
-4.11913e-06
-4.15473e-06
-3.63772e-06
-3.50096e-06
5.0915e-06
-5.88933e-06
7.31732e-05
-3.94072e-08
1.12946e-06
5.70086e-05
-3.30088e-07
-1.2966e-07
-3.79007e-07
2.55019e-06
1.5498e-06
2.66844e-06
-1.46572e-05
-2.86278e-06
-1.69134e-06
3.85579e-06
1.53161e-05
-2.76114e-05
-2.90021e-06
2.66107e-06
1.96296e-06
2.58266e-05
6.09129e-08
1.49417e-06
-1.74926e-07
0.000123775
-2.24501e-06
-1.31229e-06
-1.57528e-06
-1.147e-06
-8.50233e-07
-1.07534e-07
-6.31856e-07
-7.89186e-07
-9.94466e-07
8.61308e-05
-1.96683e-06
-1.3181e-07
-1.86769e-06
2.25131e-08
-8.36259e-07
1.15908e-08
-1.59859e-05
-1.35113e-06
1.60553e-06
1.60718e-05
-5.8887e-06
-2.90507e-06
2.62815e-06
6.16563e-06
-2.5853e-05
-9.26631e-07
4.78406e-07
2.61263e-05
-2.69733e-05
6.4833e-07
-2.31867e-06
3.40275e-07
2.73089e-05
-1.03213e-05
-2.50793e-06
2.49893e-06
1.03303e-05
-1.24803e-06
-2.90482e-07
3.63583e-07
1.17493e-06
-3.80819e-06
-1.70543e-06
1.56159e-06
3.95204e-06
2.95987e-07
8.40132e-07
-7.47466e-06
-8.20229e-07
-7.88798e-07
7.94757e-06
-3.39613e-07
-1.0638e-05
4.12673e-07
1.30681e-06
8.31716e-07
8.4264e-06
-1.37202e-05
-5.58558e-07
1.99439e-06
1.30557e-06
1.33519e-05
-2.37319e-06
-5.81742e-08
-3.04364e-08
-1.17239e-05
7.47532e-07
-1.31075e-06
1.23757e-05
4.52261e-06
-1.01445e-05
6.82348e-05
1.82642e-06
1.27366e-06
2.20907e-06
2.02254e-06
-9.97822e-07
-2.50919e-06
-5.72776e-07
-1.69269e-06
6.28929e-06
-6.7459e-06
4.7999e-05
-8.00042e-08
-3.74193e-07
7.10347e-07
-4.09794e-08
1.57915e-06
5.87908e-06
4.89127e-05
-1.9647e-06
-1.68671e-06
-1.76197e-06
-1.67255e-06
1.0643e-06
1.53635e-06
1.00364e-06
-1.50372e-05
-2.41492e-06
3.87e-06
1.51613e-05
-7.70271e-06
-7.51637e-07
1.20689e-06
7.24746e-06
-1.98902e-06
-1.96911e-05
1.60603e-06
3.4407e-06
-9.05685e-07
1.7539e-05
6.83084e-06
-6.24139e-06
0.000103209
-3.80529e-06
-4.09238e-06
-2.48771e-06
-2.97011e-06
5.11195e-06
-7.3098e-06
7.5456e-05
-1.68436e-07
7.45058e-07
6.19777e-05
-2.65744e-07
-1.3167e-07
-2.24364e-07
2.49562e-06
1.10434e-06
2.46712e-06
-1.58635e-05
-2.91757e-06
-1.66515e-06
3.95873e-06
1.63191e-05
-2.5006e-05
-1.92219e-06
2.24999e-06
8.23926e-07
2.39236e-05
-6.93631e-08
3.32749e-06
-2.17608e-07
0.000123009
-2.38833e-06
-1.25417e-06
-1.6645e-06
-1.26897e-06
-8.82861e-07
-2.66079e-07
-8.61001e-07
-4.96189e-07
-1.07779e-06