/*--------------------------------*- C++ -*----------------------------------*\
| =========                 |                                                 |
| \\      /  F ield         | OpenFOAM: The Open Source CFD Toolbox           |
|  \\    /   O peration     | Version:  5.x                                   |
|   \\  /    A nd           | Web:      www.OpenFOAM.org                      |
|    \\/     M anipulation  |                                                 |
\*---------------------------------------------------------------------------*/
FoamFile
{
    version     2.0;
    format      ascii;
    class       volScalarField;
    location    "2.05";
    object      Ksl;
}
// * * * * * * * * * * * * * * * * * * * * * * * * * * * * * * * * * * * * * //

dimensions      [1 -3 -1 0 0 0 0];

internalField   nonuniform List<scalar> 
10571
(
3792.34
12805.5
4302.33
3932.34
5563.89
3581.05
1892.46
2139.03
3211.78
824.147
9225.79
247.993
1577.1
3754.74
3034.31
7419.06
442.383
1714.03
2723.04
2934.03
8952.65
251.204
511.428
1576.67
5099.33
9948.9
2946.6
116.454
4318.38
3678.24
6372.05
4641.19
4467.82
6120.46
7027.19
310.732
10799.7
11804.9
8179.44
9096.7
317.931
7688.97
8905.19
6729.69
7325.63
675.726
923.923
2390.71
9020.95
8132.15
9588.45
705.746
2324.96
5114.26
4526.19
1281.67
2608.72
7659.01
10680.8
6576.71
3388.62
3227.5
6847.22
9445.79
4162.67
5459.05
6536.07
11753.4
7972.31
7342.03
8398.49
11412.1
9785.07
840.958
937.766
907.589
2276.8
28.023
490.668
705.736
1970.78
8295.06
2729.29
283.461
6.98374
80.5376
2210.81
10317.9
891.539
4.25817
18.3719
175.066
5922.87
12.5269
223.023
2522.07
6808.59
254.915
177.728
975.419
1428.97
13.4971
54.2412
858.891
2443.33
9089.18
14.5031
4.10189
2.42634
33.3229
802.429
11181.1
19.698
5.58398
18.9051
37.6673
6988.93
11.9636
37.0083
120.844
4126.91
8.20071
108.156
999.051
901.932
108.507
3.61288
215.405
2475.27
9842.66
10525.1
45.6252
16.734
0
3.21746
97.1748
15100.4
8576.31
0.405041
1.7659
19.0039
20.1993
5758.21
4.89607
42.117
80.0645
2798.83
21.8228
57.4813
642.623
612.507
45.0456
0
0.993057
75.6467
1036.61
0
13.8357
3.06009
0
0.682318
4.43192
263.888
0
6.74682
6.13677
12.4807
0
61.3332
0
11.6758
26.5719
53.1366
57.0286
121.681
3.97308
1.80641
621.426
18.9313
0
0
0
0
0
0
-5.57501e-13
0.0531827
2.15078
0
0
0
14.1399
8.01949
12.8301
5.15441
0
0
4.53269
24.5622
17.2316
0
42.2546
-3.57725e-14
0
1.5004
0
0
0
0
0
0
17.44
0
0.560679
1.64072
0.582298
0
0
4.94034
5.68555
8.80695
-3.64635e-13
0
26.0946
46.4512
17.4758
0
21.5724
0
0
0
0
0
0
0
0
17.7627
0
0
1.08353
0.557392
0
17.4066
1.32063
3.15047
0
0
5.25062
2.98648
8.06326
0
12.5046
0
0
0
0
0.60358
0
0
0
15.8514
5.81081
1.34444
0.504405
0
0
9.16504
1.98589
3.47488
5.09426
0
8.24686
9.41034
14.8402
0
0
0
0
0
0
0
0.194694
0
0
36.0127
0
-7.06663e-14
0.578168
0.414119
0
6.41504
0.93107
2.58476
0
0
0
12.68
0
0
0
0
0
0
0
0
0.367566
0
0
0
2.62084
0
0.795024
0.508888
0
7.84795
0.30547
1.37408
0
0
3.08794
7.44252
11.7713
0
0
0
0
0
0
0
0
0
0
0
0
0
0.368649
0
0
5.4871
0
0.901848
0
0
3.3932
7.54273
0
0
0
0
0
0
0
0
0
0
0
0
0
0
0
0.16042
0
3.08493
0.301219
1.58662
0
0
2.77327
6.85381
0
0
0
0
0
0
0
0
0
0
0
0
0
0
0.369462
1.23296
0
12.81
1.78687
0.953431
0
7.51383
0
0.711898
0
0
0
0
0
0
0
0
0
0
0
0
0
0
0.386937
0.0978377
0
5.46832
0.619453
3.07424
2.72188
2.61072
2.1701
2.09899
0
0
0
0
0
0
0
0
0
0
0
0
0
0
0.921715
0.822745
0
2.32288
1.88239
0.692562
0
4.64096
5.36877
5.13298
0
0
0
0
0
0
0
0
0
0
0
0
0
0
0.0662163
0.895238
0
4.28343
0.0394474
0.909936
0
0
10.342
2.18555
0
0
0
0
0
0
0
0
0
0
0
0
0
0
0
0.424923
0
3.51424
1.34831
0.296568
0
8.33951
20.1482
1.40367
0
0
0
0
0
0
0
0
0
0
0
0
0
0
0
0.399025
0
0
0
0.282473
0
8.3575
5.06856
4.30245
0
0
0
0
0
0
0
0
0
0
0
0
0
0
0
0.397642
0
1.11964
0.31235
0
0
0
10.4938
3.59617
0
0
0
0
0
0
0
0
0
0
0
0
0
0
0
0
0
0
0.64435
0.26661
0
0
12.3597
0.414312
0
0
0
0
0
0
0
0
0
0
0
0
0
0
0
0
0
0
0.426887
0.287096
0
0
10.8819
3.64114
0
0
0
0
0
0
0
0
0
0
0
0
0
0
0
0
0
0
0.657789
0
0
0
18.9379
1.77073
0
0
0
0
0
0
0
0
0
0
0
0
0
0
0
0
0
0
0.351253
0
0.997334
0
14.2004
0
0
0
0
0
0
0
0
0
0
0
0
0
0
0
0
0
0
0
0.356101
0
0
0
15.5769
2.43525
0
0
0
0
0
0
0
0
0
0
0
0
0
0
0
0
0
0
0
0
0
0
7.89494
0
6.06415
0
0
0
0
0
0
0
0
0
0
0
0
0
0
0
0
0
1.10405
0
0
0
6.69986
0
0
0
0
0
0
0
0
0
0
0
0
0
0
0
0
0
0
0
0
0
0
0
0
0
0
0
0
0
0
0
0
0
0
0
0
0
0
0
0
0
0
0
0
0
0
0
0
1.22285
0
0
0
0
0
0
0
0
0
0
0
0
0
0
0
0
0
0
0
0.383838
0
0
0
0
0
0
0
0
0
0
0
0
0
0
0
0
0
0
0
0
0
0
0
0.394921
0
0
0
0
0
0
0
0
0
0
0
0
0
0
0
0
0
0
0
0
0
0
0
0
0
0
0
0
0
0
0
0
0
0
0
0
0
0
0
0
0
0
0
0
0
0
0
0
0
0
0
0
0
0
0
0
0
0
0
0
0
0
0
0
0
0
0
0
0
0
0
0
0
0
0
0
0
0
0
0
0
0
0
0
0
0
0
0
0
0
0
0
0
0
0
0
0
0
0
0
0
0
0
0
0
0
0
0
0
0
0
0
0
0
0
0
0
0
0
0
0
0
0
0
0
0
0
0
0
0
0
0
0
0
0
0
0
0
0
0
0
0
0
0
0
0
0
0
0
0
0
0
0
0
0
0
0
0
0
0
0
0
0
0
0
0
0
0
0
0
0
0
0
0
0
0
0
0
0
0
0
0
0
0
0
0
0
0
0
0
0
0
0
0
0
0
0
0
0
0
0
0
0
0
0
0
0
0
0
0
0
0
0
0
0
0
0
0
0
0
0
0
0
0
0
0
0
0
0
0
0
0
0
0
0
0
0
0
0
0
0
0
0
0
0
0
0
0
0
0
0
0
0
0
0
0
0
0
0
0
0
0
0
0
0
0
0
0
0
0
0
0
0
0
0
0
0
0
0
0
0
0
0
0
0
0
0
0
0
0
0
0
0
0
0
0
0
0
0
0
0
0
0
0
0
0
0
0
0
0
0
0
0
0
0
0
0
0
0
0
0
0
0
0
0
0
0
0
0
0
0
0
0
0
0
0
0
0
0
0
0
0
0
0
0
0
0
0
0
0
0
0
0
0
0
0
0
0
0
0
0
0
0
0
0
0
0
0
0
0
0
0
0
0
0
0
0
0
0
0
0
0
0
0
0
0
0
0
0
0
0
0
0
0
0
0
0
0
0
0
0
0
0
0
0
0
0
0
0
0
0
0
0
0
0
0
0
0
0
0
0
0
0
0
0
0
0
0
0
0
0
0
0
0
0
0
0
0
0
0
0
0
0
0
0
0
0
0
0
0
0
0
0
0
0
0
0
0
0
0
0
0
0
0
0
0
0
0
0
0
0
0
0
0
0
0
0
0
0
0
0
0
0
0
0
0
0
0
0
0
0
0
0
0
0
0
0
0
0
0
0
0
0
0
0
0
0
0
0
0
0
0
0
0
0
0
0
0
0
0
0
0
0
0
0
0
0
0
0
0
0
0
0
0
0
0
0
0
0
0
0
0
0
0
0
0
0
0
0
0
0
0
0
0
0
0
0
0
0
0
0
0
0
0
0
0
0
0
0
0
0
0
0
0
0
0
0
0
0
0
0
0
0
0
0
0
0
0
0
0
0
0
0
0
0
0
0
0
0
0
0
0
0
0
0
0
0
0
0
0
0
0
0
0
0
0
0
0
0
0
0
0
0
0
0
0
0
0
0
0
0
0
0
0
0
0
0
0
0
0
0
0
0
0
0
0
0
0
0
0
0
0
0
0
0
0
0
0
0
0
0
0
0
0
0
0
0
0
0
0
0
0
0
0
0
0
0
0
0
0
0
0
0
0
0
0
0
0
0
0
0
0
0
0
0
0
0
0
0
0
0
0
0
0
0
0
0
0
0
0
0
0
0
0
0
0
0
0
0
0
0
0
0
0
0
0
0
0
0
0
0
0
0
0
0
0
0
0
0
0
0
0
0
0
0
0
0
0
0
0
0
0
0
0
0
0
0
0
0
0
0
0
0
0
0
0
0
0
0
0
0
0
0
0
0
0
0
0
0
0
0
0
0
0
0
0
0
0
0
0
0
0
0
0
0
0
0
0
0
0
0
0
0
0
0
0
0
0
0
0
0
0
0
0
0
0
0
0
0
0
0
0
0
0
0
0
0
0
0
0
0
0
0
0
0
0
0
0
0
0
0
0
0
0
0
0
0
0
0
0
0
0
0
0
0
0
0
0
0
0
0
0
0
0
0
0
0
0
0
0
0
0
0
0
0
0
0
0
0
0
0
0
0
0
0
0
0
0
0
0
0
0
0
0
0
0
0
0
0
0
0
0
0
0
0
0
0
0
0
0
0
0
0
0
0
0
0
0
0
0
0
0
0
0
0
0
0
0
0
0
0
0
0
0
0
0
0
0
0
0
0
0
0
0
0
0
0
0
0
0
0
0
0
0
0
0
0
0
0
0
0
0
0
0
0
0
0
0
0
0
0
0
0
0
0
0
0
0
0
0
0
0
0
0
0
0
0
0
0
0
0
0
0
0
0
0
0
0
0
0
0
0
0
0
0
0
0
0
0
0
0
0
0
0
0
0
0
0
0
0
0
0
8922.12
2631.85
5340.28
2685.81
4386
3212.4
7735.85
8553.9
7057.89
10454.2
10769.8
8756.56
8475.77
6927.1
5816.11
5245.84
5251.3
7800.79
8963.26
6100.52
7404.4
5897.96
4239.11
4058.01
1778.39
1018.77
6199.61
6143.23
7282.66
8679.24
5664.91
5319.87
3881.15
2923.17
3393.97
3067.31
4017.09
3341.8
3292.79
3925.2
3396.22
5561.42
3368.67
3646.68
5214.68
1175.41
3321.32
1250.45
5574.04
6586.24
5651.53
3763.87
4297.76
4590.91
4708.11
3884.28
4978.32
4176.58
5424.18
4072.22
3104.37
4022.29
2955.89
3675.98
5544.6
3612.96
5421.3
4853.85
2233.56
5702.58
5690.23
6136.2
4249.98
6771.1
6147.23
3280.86
5120.35
3820.75
5145.98
3355.03
3040.43
3051.49
3901.12
4308.24
7182.51
7299.33
9347.98
6783.92
5853.34
2295
2481.77
854.482
3369.59
5428.53
1521.96
7787.52
5246.98
4015.01
2372.04
3612.67
866.479
1200.07
3462.2
842.402
1057.53
7209.68
4481.41
1410.26
7289.82
10492
10701.6
11453.7
11795.6
9513.23
8479.43
4885.35
11766.1
6299.79
6072.06
820.97
5311.63
1784.86
2245.98
9507.83
9290.42
8289.79
7791.47
422.633
3738.71
9701.1
9093.16
5625.02
9712.03
8394.61
3257.98
4229.4
3071.49
4153.77
7548.99
6408.71
1478.65
490.989
3393.59
400.311
281.175
5762.52
7763.21
7941.26
6503.24
7055.14
298.181
316.384
1694.87
374.076
714.924
329.899
1261.96
67.7281
902.449
5128.41
2910.1
6914.23
3839.78
3386.45
2657.99
3324.37
6983.5
118.97
42.8764
377.07
0
522.106
612.948
0
637.514
251.437
551.788
847.091
159.545
1045.62
8353.56
11305.5
2359.35
6359.44
2219.18
3166.39
8689.64
4104.93
1379.99
6173.32
6366.48
1605.89
5936.76
10362.3
10682.6
11690.9
11008.5
4253.45
4526.85
815.54
8628.22
4516.55
5940.1
3607.01
6691.91
5200.43
9512.88
2593.86
6261.03
2785.6
9717.24
7794.1
10045.4
9890.41
7924.25
5664.66
10478
8698.49
7454.35
8523.06
5621.87
7982
9294.57
5026.32
1684.03
636.916
7728.38
2385.86
511.929
5563.46
7359.49
9311.69
5706.49
7373.28
320.147
159.918
1139.62
64.4214
625.588
1315.39
3193.18
1014.65
2805.25
5357.44
3688.08
4909.88
10044.7
9846.37
8245.85
9026.74
7419.09
103.786
1163.92
1115.1
318.635
4194.21
4960.63
852.476
1140.75
724.78
4246.37
6050.6
1250.44
8504.95
11179.6
5039.48
5998.09
10237.2
7273.66
8371.6
9563.75
9466
4113.29
7302.12
9906.27
6923.64
8365.41
9868.81
9210.31
10456.6
6571.22
6102.96
4309.2
4683.03
3076.5
1156.25
1017.62
388.983
7957
1697.18
9302.98
2399.77
8134.01
1116.42
8957.82
9095.7
8713.75
9671.1
11044.4
11282.2
3736.25
8853.99
5785.75
9474.23
5686.58
8322.68
10074.4
6969.9
8079.16
4432.28
10839.9
9702.08
9701.16
5287.91
7681.66
10298.8
5028.63
8676.91
1264.49
10015.2
7755.61
5667.61
7680.6
11102.4
6936.07
8512.28
7547.93
9792.97
11044.3
10492.8
6310.27
9701.31
10335.7
10334.2
7263.4
7498.27
7235.33
8309.23
6744.85
7252.94
8565.44
9393.11
9191.96
7507.39
9647.55
10318.5
9808.98
11680.3
370.99
60.9029
10123.3
4672.22
8771.55
9455.63
624.315
6051.24
6700.1
7222.62
8701.71
4669.85
5288.2
8475.96
7439.13
2730.09
856.014
82.5119
376.637
46.5446
404.447
36.3948
202.693
38.8024
7978.07
509.362
7201.77
1940.92
7541.02
335.021
6000.65
8551.36
8685.23
695.551
520.185
202.881
238.04
72.0265
36.806
9861.83
7356.09
8450.47
10627
6706.42
1509.48
3544.19
122.356
42.3457
31.3241
5336.08
8992
10796.1
5440.62
9635.93
3694.52
124.421
50.7458
244.429
44.2466
42.2525
0.421756
90.7224
10.3307
5466.54
1243.54
7469.96
94.6868
2774.18
79.515
1257.52
7522.72
99.7054
3.34503
40.034
310.815
0
22.0006
58.7337
588.124
466.28
40.4237
81.1782
71.3564
141.979
96.3141
82.7688
7128.77
194.655
2813.62
5080.7
161.298
1721.56
2465.26
2800.51
6243.91
1240.04
1623.69
5196.98
3965.39
417.912
85.1295
28.5832
142.74
50.1562
89.784
31.6733
54.9241
76.0705
7169.27
334.417
4851.06
1145.16
6044.63
236.488
4497.12
8895.12
9071.91
81.561
75.7561
23.9126
69.8695
41.989
25.4835
10670
6825.92
9289.72
10081.9
2496.64
24.268
10.7716
15.7487
30.117
26.5496
5400.27
10024.2
11720.1
2219.74
10536.2
20.6802
29.9325
6.79245
66.6334
16.2611
10.9931
9.01688
26.2993
7.62083
1935.24
42.743
132.03
18.9954
683.511
51.5936
97.5582
8500.71
16.5679
1.42243
6.73316
0
15.6376
17.1427
21.2463
82.2163
34.5843
39.9462
79.8108
36.2883
59.7792
105.67
130.204
1711.17
106.478
612.783
420.104
73.7054
149.433
735.053
1272.92
2439.58
534.724
1096.43
3055.32
2303.99
21.3129
30.7315
15.0681
19.0155
60.2849
34.3795
61.3722
55.6062
37.3594
5656.37
878.935
5722.41
693.347
5329.68
2554.37
6774.83
9268.95
6365.06
72.0132
78.9217
92.2805
123.589
43.5945
118.869
1309.41
11377.8
5451.83
11323.2
409.915
9577.39
776.887
11776.4
9536.81
15190.1
123.555
2248.93
210.795
3225.14
9.95715
4.93183
36.2416
12.8274
21.1118
5835.23
30777.1
849.671
6102.82
628.239
2246.08
203.282
11014.6
16215
15860.6
205.337
3411.68
130.806
3272.85
38.932
48.1606
2.46006
24.6407
4.12045
6.47013
0
27.6005
12.0981
174.565
44.1781
36.1776
0.875832
53.3074
22.7275
22.2623
539.051
8.58489
17.1772
21.6636
0
5.22341
17.9997
41.5216
71.6843
29.8319
19.6791
77.2745
7.28995
106.059
58.7415
67.9016
196.399
46.757
51.1686
22.4585
62.834
13.2246
592.637
923.412
1004.46
946.98
726.842
1896.41
1246.15
16.4327
99.2797
84.0088
29.8947
84.5657
56.1149
72.1173
43.7472
60.6734
3791.67
1295.51
2726.61
607.434
2732.93
292.19
359.819
2613.23
9.69687
126.611
0
0
0
0
0
102.789
74.6012
65.1599
72.5514
27.3669
19.1619
35.7851
392.05
33.468
0.0328963
0
7.33156
0
0
0
0
0
0
0
0
12.5992
20.0472
26.6913
4.53605
4.34259
57.2013
429.968
46.6915
9.15523
2.34928
26.9843
15.2811
0
0
5.08888
0
0
0
0
71.7377
69.7681
9.64704
19.8094
3.86842
7.29923
5.26315
27.1606
10.3195
4.07772
15.5956
17.3942
10.1302
3.80578
5.60226
13.0298
7.66366
4.7118
6.58747
0
0
0
15.1422
13.9708
18.4841
43.8389
25.0795
12.3024
35.6197
31.5551
26.7183
41.3065
54.5044
60.5943
40.577
183.287
144.195
0
33.3145
1.57931
0
4.88856
0
97.8676
818.189
12.3098
0.708384
250.384
1889.69
826.715
76.8203
92.3913
93.3626
74.6119
22.8132
78.3999
37.4665
34.8114
4.09912
2982
46.3329
141.436
357.444
472.663
7.67259
6.55329
48.4667
0
5.05554
0
0
0
0
0
25.1803
0
7.30695
20.2963
0
0
0
0
0
0
0
0
0
0
0
0
0
0
0
0
7.11155
-1.03335e-12
0
0
0
3.03558
0
0
0
1.02126
0
0
0
0
0
0
0
0
0
21.6275
17.9736
5.76751
40.257
0
4.267
5.69953
13.7811
10.0828
-8.27564e-13
16.2163
1.34714
10.0069
0
7.79291
0
0
0
0
0
0
0
16.1636
8.45943
16.947
39.0956
9.58162
24.6497
-4.74351e-12
54.4509
18.4161
33.0882
38.2368
82.9149
8.97576
14.5429
0
0
4.4335
0
0
0
0
0
0
0
0
0
0
0
28.1029
68.6428
21.9729
58.7255
0
50.2068
12.5361
27.9563
0
0
0
0
0
0
0
0
0
0
2.93084
0
9.48086
31.0658
0
12.6101
0
0
0
0
0
0
0
0
0
0
0
0
0
0
0
5.12
5.27611
3.8983
5.25359
0
0
0
0
0
0
0
0
0
0
0
0
0
0
16.6557
-2.70493e-12
4.27973
26.1908
11.4251
5.82915
1.22928
13.0732
11.7803
0
6.03874
0
4.75722
0
4.18951
0
0
23.8124
0.777699
17.1397
0
13.6382
4.74933
22.5535
12.9772
37.8628
11.1394
17.5233
34.7004
10.1369
0
0
0
0
0
0
0
0
0
0
0
0
0
0
0
-4.53063e-12
13.5299
0
13.8377
0
15.882
0
13.019
0
0
0
0
0
0
0
0
0
0
20.9428
0
0
21.0053
0
7.23273
0
0
0
0
0
6.97455
35.7553
-1.99965e-13
3.06762
12.3652
0
0
0
0
0
0.515107
8.92321
6.22201
9.40701
15.917
6.20528
5.02065
13.9282
4.96205
0
0
0
0.160792
0
3.87071
7.2558
0
7.50291
7.33617
9.59102
0.462282
3.93865
8.02138
20.6646
25.7746
7.18064
12.5671
17.2162
14.8108
16.0143
0
0
0
0
0
0
0
0
0
0
0
0
0
0
0
14.2729
0
0.157678
0.951966
0
0
0
0
0
0
0
0
0
0
0
0
0
0
14.5949
0
-1.7484e-12
7.47067
9.99802
0
0
0
0
0
0
15.0577
-1.1471e-12
36.6509
-2.52458e-13
5.26132
0
0
0
0
0
0
0
3.40374
9.61442
0
3.06306
0
19.6847
-5.05057e-14
3.99488
3.89015
0
4.34333
0
7.45342
0
0
13.3902
6.70523
8.789
18.8795
2.32511
8.51657
0.645787
13.3361
21.9773
15.4733
10.9739
17.1314
6.90146
0
0
0
0
0
0
0
0
0
0
0
0
0
0
0
0
0
0
0
0
0
0
0
0
0
0
0
0
0
0
0
0
0
0
33.1581
10.8069
0
0
0
0
0
0
0
0
4.79982
0
-9.64403e-12
6.61139
0
0
0
0
0
0
19.6999
1.4467
6.84087
30.276
5.37078
5.92744
4.57102
17.8033
4.65431
0
3.72739
0
4.13731
0
0
0
0
12.4492
0
2.79522
0
0
5.16974
0
10.3138
1.54942
11.5048
4.95278
0
5.77641
0
0
0
0
0
0
0
0
0
0
0
0
0
0
0
0
0
0
0
0
0
0
0
0
0
0
0
0
0
0
0
0
0
0
0
0
0
0
0
0
0
0
0
0
-1.63666e-12
0
17.0096
4.89616
11.3946
0
0
0
0
0
0
9.06739
0.172275
5.47886
3.58594
3.81254
2.56535
13.8533
-1.47058e-13
0
0.58577
0
0
0
6.25787
0
0
9.52776
18.618
2.67152
14.5261
4.72491
2.30268
12
3.25751
0.462186
5.13956
6.06204
9.59819
5.55116
0
0
0
0
0
0
0
0
0
0
0
0
0
0
0
0
0
0
0
0
0
0
0
0
0
0
0
0
0
0
0
0
0
0
0
0
0
0
0
0
0
0
0
0
4.27938
1.44724
0
0
5.18838
0
0
0
0
0
8.9575
9.19662
0
10.2773
2.19897
4.89
5.89263
19.5923
4.72938
0
7.41019
0
0
3.85703
0
1.23192
0
12.575
19.9089
0
8.60621
5.62778
2.31702
0
5.98595
0
8.02549
4.63782
0
0
0
0
0
0
0
0
0
0
0
0
0
0
0
0
0
0
0
0
0
0
0
0
0
0
0
0
0
0
0
0
0
0
0
0
0
0
0
0
0
0
0
0
0
0
0
0.205592
0
0
4.86846
0
0
0
0
0
8.3049
-8.69389e-13
2.81518
7.39331
-2.94057e-14
9.6434
0
2.61231
1.58582
0
2.66657
5.14042
7.30471
0
2.56249
0
0
11.0607
8.48627
0
0
0
2.13297
4.3337
0
0
4.32865
0
5.9052
0
0
0
0
0
0
0
0
0
0
0
0
0
0
0
0
0
0
0
0
0
0
0
0
0
0
0
0
0
0
0
0
0
0
0
0
0
0
0
0
0
0
0
0
0
0
0
0
0
0.205967
0
0
0
0
0
0
6.47166
5.95421
12.4476
9.51744
4.75391
5.87435
18.133
7.70381
0
0.104678
0
0
0.737122
0
0
11.8077
9.84125
9.78546
4.30305
0
0.676582
0
0
5.32888
0
5.03608
1.32068
8.19429
4.50919
0
0
0
0
0
0
0
0
0
0
0
0
0
0
0
0
0
0
0
0
0
0
0
0
0
0
0
0
0
0
0
0
0
0
0
0
0
0
0
0
0
0
0
0
0
0
0
0
0
0
0
0
0
4.69601
11.2549
5.26685
4.75224
14.5434
5.17323
4.89813
0.196761
9.88698
12.7842
5.97374
3.56396
4.79163
7.4107
2.87805
2.76636
0
11.1835
5.10057
8.44617
2.11063
2.70423
2.74148
1.41886
5.14827
5.11494
0
0.205618
1.23418
8.91777
0
0
0
0
0
0
0
0
0
0
0
0
0
0
0
0
0
0
0
0
0
0
0
0
0
0
0
0
0
0
0
0
0
0
0
0
0
0
0
0
0
0
0
0
0
0
0
0
0
3.25069
0
0
0
0
0
5.23682
0
7.57431
11.318
2.42279
0
6.85956
3.63127
4.81407
2.88186
1.64611
0
0
2.90457
1.79535
0
9.59786
20.0808
10.6663
0.762236
8.09887
2.93509
2.16172
6.09072
4.21265
0
3.66627
4.05857
0
0
0
0
0
0
0
0
0
0
0
0
0
0
0
0
0
0
0
0
0
0
0
0
0
0
0
0
0
0
0
0
0
0
0
0
0
0
0
0
0
0
0
0
0
0
0
0
0
0
0
0
0
0
0
0
0
0
5.72036
13.4599
5.76702
1.65572
3.39763
2.20203
11.5373
2.87013
0
0
0
2.8869
1.93867
3.9875
8.32655
13.6248
8.93942
1.47208
23.5799
5.39364
0.574593
0
3.15113
0
5.1161
0
0
9.47853
0
0
0
0
0
0
0
0
0
0
0
0
0
0
0
0
0
0
0
0
0
0
0
0
0
0
0
0
0
0
0
0
0
0
0
0
0
0
0
0
0
0
0
0
0
0
0
0
0
0
0
0
0
0
0
0
2.09242
15.9812
2.12587
0
2.63335
6.584
8.29732
0.0991636
0
3.92746
3.36156
4.63255
0.676131
2.02822
0
17.4827
10.0968
2.11231
8.09543
0
4.34169
0
-7.51642e-14
0
2.06751
2.70637
0
0
0
0
0
0
0
0
0
0
0
0
0
0
0
0
0
0
0
0
0
0
0
0
0
0
0
0
0
0
0
0
0
0
0
0
0
0
0
0
0
0
0
0
0
0
0
0
0
0
0
0
0
0
0
0
0
0
0
6.61965
2.21992
2.2419
2.55793
-5.00076e-13
15.554
0
1.78441
-3.91772e-14
0.247938
2.5551
1.75527
7.00499
8.23371
23.5925
6.31544
8.59593
0
2.74878
0.0867427
7.8215
2.54734
0
4.25358
2.64202
0
0
0
0
0
0
0
0
0
0
0
0
0
0
0
0
0
0
0
0
0
0
0
0
0
0
0
0
0
0
0
0
0
0
0
0
0
0
0
0
0
0
0
0
0
0
0
0
0
0
0
0
0
0
0
0
0
0
1.92704
6.89473
0.0328364
0
0
0
11.0338
0
0
0
0
0
0
0
0
8.49841
4.7016
0.775692
7.43665
6.98633
0.38972
14.2004
0
1.50995
2.18082
0
0
0
0
0
0
0
0
0
0
0
0
0
0
0
0
0
0
0
0
0
0
0
0
0
0
0
0
0
0
0
0
0
0
0
0
0
0
0
0
0
0
0
0
0
0
0
0
0
0
0
0
0
0
0
0
0
0
0
0
2.12901
7.19047
0
3.07418
4.01962
7.11859
0
0
0
0
2.42068
0
0
0
21.6942
7.61904
5.31607
6.87061
8.14639
0.829131
0
0
0
5.97768
0.847488
16.2827
0
0
0
0
0
0
0
0
0
0
0
0
0
0
0
0
0
0
0
0
0
0
0
0
0
0
0
0
0
0
0
0
0
0
0
0
0
0
0
0
0
0
0
0
0
0
0
0
0
0
0
0
0
0
0
0
0
0
0
6.42431
0
0
0
14.087
0
0
2.59815
0
0
0
0
0
4.94884
5.87641
0
0
5.51478
2.98149
0
0
0.455533
0.522208
0
7.80442
0
0
0
0
0
0
0
0
0
0
0
0
0
0
0
0
0
0
0
0
0
0
0
0
0
0
0
0
0
0
0
0
0
0
0
0
0
0
0
0
0
0
0
0
0
0
0
0
0
0
0
0
0
0
0
0
0
0
0
2.57111
0
0
0
0
0
0
3.10609
0
0
0.0443791
4.40839
0
13.7143
14.3754
1.38351
20.6142
15.4663
2.06989
19.2423
0
0
2.23959
2.7984
7.53299
0
0
0
0
0
0
0
0
0
0
0
0
0
0
0
0
0
0
0
0
0
0
0
0
0
0
0
0
0
0
0
0
0
0
0
0
0
0
0
0
0
0
0
0
0
0
0
0
0
0
0
0
0
0
0
0
0
0
0
0
0
0
0
1.63562
0
0
4.13128
0.55624
0
2.04929
0
0
6.39706
8.77392
3.90799
0
8.35905
9.38935
8.95559
0
0
0
0
0
0
0
0
0
0
0
0
0
0
0
0
0
0
0
0
0
0
0
0
0
0
0
0
0
0
0
0
0
0
0
0
0
0
0
0
0
0
0
0
0
0
0
0
0
0
0
0
0
0
0
0
0
0
0
0
0
0
0
0
0.768708
0
0
0
2.5422
0
0
0
0
0
0
0
0
0.808398
0.185885
5.67497
0
12.6341
3.21719
9.1685
-3.86782e-14
8.15623
0
0
0
0
0
0
0
0
0
0
0
0
0
0
0
0
0
0
0
0
0
0
0
0
0
0
0
0
0
0
0
0
0
0
0
0
0
0
0
0
0
0
0
0
0
0
0
0
0
0
0
0
0
0
0
0
0
0
0
0
0
0
0
0
0
0
0
0
0
0
0
0
0
0
0
0
0
0.128125
9.7172
9.12507
5.03025
39.1725
0
0
0
0
0
0
0
0
0
0
0
0
0
0
0
0
0
0
0
0
0
0
0
0
0
0
0
0
0
0
0
0
0
0
0
0
0
0
0
0
0
0
0
0
0
0
0
0
0
0
0
0
0
0
0
0
0
0
0
0
0
0
0
0
0
0
0
0
0
0
0
0
0
0
0
0
0
0
0
2.594
4.86427
0.126365
5.48802
28.6304
0
9.54
2.59837
0
0
0
0
0
0
0
0
0
0
0
0
0
0
0
0
0
0
0
0
0
0
0
0
0
0
0
0
0
0
0
0
0
0
0
0
0
0
0
0
0
0
0
0
0
0
0
0
0
0
0
0
0
0
0
0
0
0
0
0
0
0
0
0
0
0
0
0
0
0
0
0
0
0
0
0
11.2836
-1.82677e-12
0
8.79561
11.2188
0
0
1.16107
0
0
0
0
0
0
0
0
0
0
0
0
0
0
0
0
0
0
0
0
0
0
0
0
0
0
0
0
0
0
0
0
0
0
0
0
0
0
0
0
0
0
0
0
0
0
0
0
0
0
0
0
0
0
0
0
0
0
0
0
0
0
0
0
0
0
0
0
0
0
0
0
0
0
0
0
2.88024
0
0
0
0.59243
0
0
0
0
23.1969
0
0
0
0
0
0
0
0
0
0
0
0
0
0
0
0
0
0
0
0
0
0
0
0
0
0
0
0
0
0
0
0
0
0
0
0
0
0
0
0
0
0
0
0
0
0
0
0
0
0
0
0
0
0
0
0
0
0
0
0
0
0
0
0
0
0
0
0
0
0
0
0
0
0
0
0
0
0
0
0
0
0
0
0
0
0
0
0
0
0
0
0
0
0
0
0
0
0
0
0
0
0
0
0
0
0
0
0
0
0
0
0
0
0
0
0
0
0
0
0
0
0
0
0
0
0
0
0
0
0
0
0
0
0
0
0
0
0
0
0
0
0
0
0
0
0
0
0
0
0
0
0
0
0
0
0
0
0
0
0
0
0
0
0
0
0
0
0
0
0
0
0
0
0
0
0
0
0
0
0
0
0
0
0
0
0
0
0
0
0
0
0
0
0
0
0
0
0
0
0
0
0
0
0
0
0
0
0
0
0
0
0
0
0
0
0
0
0
0
0
0
0
0
0
0
0
0
0
0
0
0
0
0
0
0
0
0
0
0
0
0
0
0
0
0
0
0
0
0
0
0
0
0
0
0
0
0
0
0
0
0
0
0
0
0
0
0
0
0
0
0
0
0
0
0
0
0
0
0
0
0
0
0
0
0
0
0
0
0
0
0
0
0
0
0
0
0
0
0
0
0
0
0
0
0
0
0
0
0
0
0
0
0
0
0
0
0
0
0
0
0
0
0
0
0
0
0
0
0
0
0
0
0
0
0
0
0
0
0
0
0
0
0
0
0
0
0
0
0
0
0
0
0
0
0
0
0
0
0
0
0
0
0
0
0
0
0
0
0
0
0
0
0
0
0
0
0
0
0
0
0
0
0
0
0
0
0
0
0
0
0
0
0
0
0
0
0
0
0
0
0
0
0
0
0
0
0
0
0
0
0
0
0
0
0
0
0
0
0
0
0
0
0
0
0
0
0
0
0
0
0
0
0
0
0
0
0
0
0
0
0
0
0
0
0
0
0
0
0
0
0
0
0
0
0
0
0
0
0
0
0
0
0
0
0
0
0
0
0
0
0
0
0
0
0
0
0
0
0
0
0
0
0
0
0
0
0
0
0
0
0
0
0
0
0
0
0
0
0
0
0
0
0
0
0
0
0
0
0
0
0
0
0
0
0
0
0
0
0
0
0
0
0
0
0
0
0
0
0
0
0
0
0
0
0
0
0
0
0
0
0
0
0
0
0
0
0
0
0
0
0
0
0
0
0
0
0
0
0
0
0
0
0
0
0
0
0
0
0
0
0
0
0
0
0
0
0
0
0
0
0
0
0
0
0
0
0
0
0
0
0
0
0
0
0
0
0
0
0
0
0
0
0
0
0
0
0
0
0
0
0
0
0
0
0
0
0
0
0
0
0
0
0
0
0
0
0
0
0
0
0
0
0
0
0
0
0
0
0
0
0
0
0
0
0
0
0
0
0
0
0
0
0
0
0
0
0
0
0
0
0
0
0
0
0
0
0
0
0
0
0
0
0
0
0
0
0
0
0
0
0
0
0
0
0
0
0
0
0
0
0
0
0
0
0
0
0
0
0
0
0
0
0
0
0
0
0
0
0
0
0
0
0
0
0
0
0
0
0
0
0
0
0
0
0
0
0
0
0
0
0
0
0
0
0
0
0
0
0
0
0
0
0
0
0
0
0
0
0
0
0
0
0
0
0
0
0
0
0
0
0
0
0
0
0
0
0
0
0
0
0
0
0
0
0
0
0
0
0
0
0
0
0
0
0
0
0
0
0
0
0
0
0
0
0
0
0
0
0
0
0
0
0
0
0
0
0
0
0
0
0
0
0
0
0
0
0
0
0
0
0
0
0
0
0
0
0
0
0
0
0
0
0
0
0
0
0
0
0
0
0
0
0
0
0
0
0
0
0
0
0
0
0
0
0
0
0
0
0
0
0
0
0
0
0
0
0
0
0
0
0
0
0
0
0
0
0
0
0
0
0
0
0
0
0
0
0
0
0
0
0
0
0
0
0
0
0
0
0
0
0
0
0
0
0
0
0
0
0
0
0
0
0
0
0
0
0
0
0
0
0
0
0
0
0
0
0
0
0
0
0
0
0
0
0
0
0
0
0
0
0
0
0
0
0
0
0
0
0
0
0
0
0
0
0
0
0
0
0
0
0
0
0
0
0
0
0
0
0
0
0
0
0
0
0
0
0
0
0
0
0
0
0
0
0
0
0
0
0
0
0
0
0
0
0
0
0
0
0
0
0
0
0
0
0
0
0
0
0
0
0
0
0
0
0
0
0
0
0
0
0
0
0
0
0
0
0
0
0
0
0
0
0
0
0
0
0
0
0
0
0
0
0
0
0
0
0
0
0
0
0
0
0
0
0
0
0
0
0
0
0
0
0
0
0
0
0
0
0
0
0
0
0
0
0
0
0
0
0
0
0
0
0
0
0
0
0
0
0
0
0
0
0
0
0
0
0
0
0
0
0
0
0
0
0
0
0
0
0
0
0
0
0
0
0
0
0
0
0
0
0
0
0
0
0
0
0
0
0
0
0
0
0
0
0
0
0
0
0
0
0
0
0
0
0
0
0
0
0
0
0
0
0
0
0
0
0
0
0
0
0
0
0
0
0
0
0
0
0
0
0
0
0
0
0
0
0
0
0
0
0
0
0
0
0
0
0
0
0
0
0
0
0
0
0
0
0
0
0
0
0
0
0
0
0
0
0
0
0
0
0
0
0
0
0
0
0
0
0
0
0
0
0
0
0
0
0
0
0
0
0
0
0
0
0
0
0
0
0
0
0
0
0
0
0
0
0
0
0
0
0
0
0
0
0
0
0
0
0
0
0
0
0
0
0
0
0
0
0
0
0
0
0
0
0
0
0
0
0
0
0
0
0
0
0
0
0
0
0
0
0
0
0
0
0
0
0
0
0
0
0
0
0
0
0
0
0
0
0
0
0
0
0
0
0
0
0
0
0
0
0
0
0
0
0
0
0
0
0
0
0
0
0
0
0
0
0
0
0
0
0
0
0
0
0
0
0
0
0
0
0
0
0
0
0
0
0
0
0
0
0
0
0
0
0
0
0
0
0
0
0
0
0
0
0
0
0
0
0
0
0
0
0
0
0
0
0
0
0
0
0
0
0
0
0
0
0
0
0
0
0
0
0
0
0
0
0
0
0
0
0
0
0
0
0
0
0
0
0
0
0
0
0
0
0
0
0
0
0
0
0
0
0
0
0
0
0
0
0
0
0
0
0
0
0
0
0
0
0
0
0
0
0
0
0
0
0
0
0
0
0
0
0
0
0
0
0
0
0
0
0
0
0
0
0
0
0
0
0
0
0
0
0
0
0
0
0
0
0
0
0
0
0
0
0
0
0
0
0
0
0
0
0
0
0
0
0
0
0
0
0
0
0
0
0
0
0
0
0
0
0
0
0
0
0
0
0
0
0
0
0
0
0
0
0
0
0
0
0
0
0
0
0
0
0
0
0
0
0
0
0
0
0
0
0
0
0
0
0
0
0
0
0
0
0
0
0
0
0
0
0
0
0
0
0
0
0
0
0
0
0
0
0
0
0
0
0
0
0
0
0
0
0
0
0
0
0
0
0
0
0
0
0
0
0
0
0
0
0
0
0
0
0
0
0
0
0
0
0
0
0
0
0
0
0
0
0
0
0
0
0
0
0
0
0
0
0
0
0
0
0
0
0
0
0
0
0
0
0
0
0
0
0
0
0
0
0
0
0
0
0
0
0
0
0
0
0
0
0
0
0
0
0
0
0
0
0
0
0
0
0
0
0
0
0
0
0
0
0
0
0
0
0
0
0
0
0
0
0
0
0
0
0
0
0
0
0
0
0
0
0
0
0
0
0
0
0
0
0
0
0
0
0
0
0
0
0
0
0
0
0
0
0
0
0
0
0
0
0
0
0
0
0
0
0
0
0
0
0
0
0
0
0
0
0
0
0
0
0
0
0
0
0
0
0
0
0
0
0
0
0
0
0
0
0
0
0
0
0
0
0
0
0
0
0
0
0
0
0
0
0
0
0
0
0
0
0
0
0
0
0
0
0
0
0
0
0
0
0
0
0
0
0
0
0
0
0
0
0
0
0
0
0
0
0
0
0
0
0
0
0
0
0
0
0
0
0
0
0
0
0
0
0
0
0
0
0
0
0
0
0
0
0
0
0
0
0
0
0
0
0
0
0
0
0
0
0
0
0
0
0
0
0
0
0
0
0
0
0
0
0
0
0
0
0
0
0
0
0
0
0
0
0
0
0
0
0
0
0
0
0
0
0
0
0
0
0
0
0
0
0
0
0
0
0
0
0
0
0
0
0
0
0
0
0
0
0
0
0
0
0
0
0
0
0
0
0
0
0
0
0
0
0
0
0
0
0
0
0
0
0
0
0
0
0
0
0
0
0
0
0
0
0
0
0
0
0
0
0
0
0
0
0
0
0
0
0
0
0
0
0
0
0
0
0
0
0
0
0
0
0
0
0
0
0
0
0
0
0
0
0
0
0
0
0
0
0
0
0
0
0
0
0
0
0
0
0
0
0
0
0
0
0
0
0
0
0
0
0
0
0
0
0
0
0
0
0
0
0
0
0
0
0
0
0
0
0
0
0
0
0
0
0
0
0
0
0
0
0
0
0
0
0
0
0
0
0
0
0
0
0
0
0
0
0
0
0
0
0
0
0
0
0
0
0
0
0
0
0
0
0
0
0
0
0
0
0
0
0
0
0
0
0
0
0
0
0
0
0
0
0
0
0
0
0
0
0
0
0
0
0
0
0
0
0
0
0
0
0
0
0
0
0
0
0
0
0
0
0
0
0
0
0
0
0
0
0
0
0
0
0
0
0
0
0
0
0
0
0
0
0
0
0
0
0
0
0
0
0
0
0
0
0
0
0
0
0
0
0
0
0
0
0
0
0
0
0
0
0
0
0
0
0
0
0
0
0
0
0
0
0
0
0
0
0
0
0
0
0
0
0
0
0
0
0
0
0
0
0
0
0
0
0
0
0
0
0
0
0
0
0
0
0
0
0
0
0
0
0
0
0
0
0
0
0
0
0
0
0
0
0
0
0
0
0
0
0
0
0
0
0
0
0
0
0
0
0
0
0
0
0
0
0
0
0
0
0
0
0
0
0
0
0
0
0
0
0
0
0
0
0
0
0
0
0
0
0
0
0
0
0
0
0
0
0
0
0
0
0
0
0
0
0
0
0
0
0
0
0
0
0
0
0
0
0
0
0
0
0
0
0
0
0
0
0
0
0
0
0
0
0
0
0
0
0
0
0
0
0
0
0
0
0
0
0
0
0
0
0
0
0
0
0
0
0
0
0
0
0
0
0
0
0
0
0
0
0
0
0
0
0
0
0
0
0
0
0
0
0
0
0
0
0
0
0
0
0
0
0
0
0
0
0
0
0
0
0
0
0
0
0
0
0
0
0
0
0
0
0
0
0
0
0
0
0
0
0
0
0
0
0
0
0
0
0
0
0
0
0
0
0
0
0
0
0
0
0
0
0
0
0
0
0
0
0
0
0
0
0
0
0
0
0
0
0
0
0
0
0
0
0
0
0
0
0
0
0
0
0
0
0
0
0
0
0
0
0
0
0
0
0
0
0
0
0
0
0
0
0
0
0
0
0
0
0
0
0
0
0
0
0
0
0
0
0
0
0
0
0
0
0
0
0
0
0
0
0
0
0
0
0
0
0
0
0
0
0
0
0
0
0
0
0
0
0
0
0
0
0
0
0
0
0
0
0
0
0
0
0
0
0
0
0
0
0
0
0
0
0
0
0
0
0
0
0
0
0
0
0
0
0
0
0
0
0
0
0
0
0
0
0
0
0
0
0
0
0
0
0
0
0
0
0
0
0
0
0
0
0
0
0
0
0
0
0
0
0
0
0
0
0
0
0
0
0
0
0
0
0
0
0
0
0
0
0
0
0
0
0
0
0
0
0
0
0
0
0
0
0
0
0
0
0
0
0
0
0
0
0
0
0
0
0
0
0
0
0
0
0
0
0
0
0
0
0
0
0
0
0
0
0
0
0
0
0
0
0
0
0
0
0
0
0
0
0
0
0
0
0
0
0
0
0
0
0
0
0
0
0
0
0
0
0
0
0
0
0
0
0
0
0
0
0
0
0
0
0
0
0
0
0
0
0
0
0
0
0
0
0
0
0
0
0
0
0
0
0
0
0
0
0
0
0
0
0
0
0
0
0
0
0
0
0
0
0
0
0
0
0
0
0
0
0
0
0
0
0
0
0
0
0
0
0
0
0
0
0
0
0
0
0
0
0
0
0
0
0
0
0
0
0
0
0
0
0
0
0
0
0
0
0
0
0
0
0
0
0
0
0
0
0
0
0
0
0
0
0
0
0
0
0
0
0
0
0
0
0
0
0
0
0
0
0
0
0
0
0
0
0
0
0
0
0
0
0
0
0
0
0
0
0
0
0
0
0
0
0
0
0
0
0
0
0
0
0
0
0
0
0
0
0
0
0
0
0
0
0
0
0
0
0
0
0
0
0
0
0
0
0
0
0
0
0
0
0
0
0
0
0
0
0
0
0
0
0
0
0
0
0
0
0
0
0
0
0
0
0
0
0
0
0
0
0
0
0
0
0
0
0
0
0
0
0
0
0
0
0
0
0
0
0
0
0
0
0
0
0
0
0
0
0
0
0
0
0
0
0
0
0
0
0
0
0
0
0
0
0
0
0
0
0
0
0
0
0
0
0
0
0
0
0
0
0
0
0
0
0
0
0
0
0
0
0
0
0
0
0
0
0
0
0
0
0
0
0
0
0
0
0
0
0
0
0
0
0
0
0
0
0
0
0
0
0
0
0
0
0
0
0
0
0
0
0
0
0
0
0
0
0
0
0
0
0
0
0
0
0
0
0
0
0
0
0
0
0
0
0
0
0
0
0
0
0
0
0
0
0
0
0
0
0
0
0
0
0
0
0
0
0
0
0
0
0
0
0
0
0
0
0
0
0
0
0
0
0
0
0
0
0
0
0
0
0
0
0
0
0
0
0
0
0
0
0
0
0
0
0
0
0
0
0
0
0
0
0
0
0
0
0
0
0
0
0
0
0
0
0
0
0
0
0
0
0
0
0
0
0
0
0
0
0
0
0
0
0
0
0
0
0
0
0
0
0
0
0
0
0
0
0
0
0
0
0
0
0
0
0
0
0
0
0
0
0
0
0
0
0
0
0
0
0
0
0
0
0
0
0
0
0
0
0
0
0
0
0
0
0
0
0
0
0
0
0
0
0
0
0
0
0
0
0
0
0
0
0
0
0
0
0
0
0
0
0
0
0
0
0
0
0
0
0
0
0
0
0
0
0
0
0
0
0
0
0
0
0
0
0
0
0
0
0
0
0
0
0
0
0
0
0
0
0
0
0
0
0
0
0
0
0
0
0
0
0
0
0
0
0
0
0
0
0
0
0
0
0
0
0
0
0
0
0
0
0
0
0
0
0
0
0
0
0
0
0
0
0
0
0
0
0
0
0
0
0
0
0
0
0
0
0
0
0
0
0
0
0
0
0
0
0
0
0
0
0
0
0
0
0
0
0
0
0
0
0
0
0
0
0
0
0
0
0
0
0
0
0
0
0
0
0
0
0
0
0
0
0
0
0
0
0
0
0
0
0
0
0
0
0
0
0
0
0
0
0
0
0
0
0
0
0
0
0
0
0
0
0
0
0
0
0
0
0
0
0
0
0
0
0
0
0
0
0
0
0
0
0
0
0
0
0
0
0
0
0
0
0
0
0
0
0
0
0
0
0
0
0
0
0
0
0
0
0
0
0
0
0
0
0
0
0
0
0
0
0
0
0
0
0
0
0
0
0
0
0
0
0
0
0
0
0
0
0
0
0
0
0
0
0
0
0
0
0
0
0
0
0
0
0
0
0
0
0
0
0
0
0
0
0
0
0
0
0
0
0
0
0
0
0
0
0
0
0
0
0
0
0
0
0
0
0
0
0
0
0
0
0
0
0
0
0
0
0
0
0
0
0
0
0
0
0
0
0
0
0
0
0
0
0
0
0
0
0
0
0
0
0
0
0
0
0
0
0
0
0
0
0
0
0
0
0
0
0
0
0
0
0
0
0
0
0
0
0
0
0
0
0
0
0
0
0
0
0
0
0
0
0
0
0
0
0
0
0
0
0
0
0
0
0
0
0
0
0
0
0
0
0
0
0
0
0
0
0
0
0
0
0
0
0
0
0
0
0
0
0
0
0
0
0
0
0
0
0
0
0
0
0
0
0
0
0
0
0
0
0
0
0
0
0
0
0
0
0
0
0
0
0
0
0
0
0
0
0
0
0
0
0
0
0
0
0
0
0
0
0
0
0
0
0
0
0
0
0
0
0
0
0
0
0
0
0
0
0
0
0
0
0
0
0
0
0
0
0
0
0
0
0
0
0
0
0
0
0
0
0
0
0
0
0
0
0
0
0
0
0
0
0
0
0
0
0
0
0
0
0
0
0
0
0
0
0
0
0
0
0
0
0
1475.18
1473.75
1243.26
3175.05
903.352
192.077
99.3737
6487.16
1781.97
4103.47
971.39
6967.64
329.031
1934.82
3064.61
273.009
1677.12
1062.51
2702.32
170.685
1792.03
2029.29
1750.11
3351.4
1306.05
876.236
3752.81
4241.54
1594.37
4078.67
3351.32
1440.28
1658.4
5977.22
5799.52
3335.03
2091.54
3047.09
1862.12
5822.73
4459.28
3222.82
1627.1
300.277
1814.65
214.094
966.586
256.859
1137.55
3762.2
1843.61
3534.51
5336.33
7808.19
4388.47
6811.86
3290.93
3273.93
2938.13
9735.51
8740.44
7875.92
7417.99
2940.49
2871.02
3473.07
6517.58
3796.59
5791.88
4149.05
3019.34
1209.67
1737.79
2546.71
4249.07
1167.91
2335.42
2860.47
785.525
1325.74
4559.01
4488.49
1498.65
2453.34
918.44
98.5309
74.2646
4853.41
1623.83
2879.22
1005.99
2817.85
53.1094
412.661
356.431
266.782
556.917
357.357
4055.45
716.955
2450.01
8276.31
7982.77
4688.28
8184.39
870.212
221.06
968.236
1093.87
4610.21
1325.41
3663.51
5169.87
8474.38
5005.74
6864.02
7048.34
4423.37
7077.21
118.438
1144.15
708.682
1097.58
324.983
1621.15
724.685
6707.53
9129.48
10163.2
93.2467
164.778
2784.47
481.389
9231.82
4138.44
7204.32
8471.07
1964.17
10359
4471.09
3791.94
913.274
5380.05
279.461
1935.92
322.04
2452.8
482.046
2995.7
409.825
714.304
518.491
3518.22
491.509
54.6786
42.6475
92.793
31.0149
52.7306
49.9548
47.8821
6.04971
735.19
29.1425
7.45006
17.221
8.71795
4.8624
1799.28
175.599
973.35
121.953
1299
57.0935
185.463
238.226
4116.24
571.23
1109.35
138.939
3752.13
1149.5
65.8225
31.9745
56.9231
85.9146
140.362
99.2704
77.473
4.80858
10.1896
4.97356
30.8568
13.3098
6.23237
0
725.317
50.9392
13.519
63.7387
86.7367
10.5249
4.07982
221.144
992.964
2476.47
869.976
391.277
252.96
2058.42
88.0735
93.4249
12.8039
152.847
32.452
39.0121
-1.3258e-12
0
0
5.36483
1.84531
0
20.2839
5.23619
21.2187
3.1636
0
34.349
5.22801
8.48091
0.0574694
633.88
8.48372
480.951
259.965
524.962
0
73.1637
12.618
17.6528
0
50.7963
6.04236
2.14355
0
6.22119
4.52698
5.14323
9.49165
0.162485
8.55278
-5.99028e-13
0
1.33995
0
3.90414
0
0
0
324.702
0
0
0
107.216
0
0
0
0
5.11212
11.8135
0
5.10182
0
5.71834
3.8742
4.81776
0
3.74198
4.50754
0.149501
0
0
0
0
0
0
0
0
0
0
0
0
0
0
0
4.12744
0
0
0
5.18371
0
0
9.16878
4.49175
5.17912
4.6275
8.85727
1.81501
0
0
0
0
0
0
0
0
0
0
0
0
0
0
0
0
0
0
0
5.313
0
0
7.53662
6.8544
5.46087
0.179696
3.33273
0
0
0
0
0
0
0
0
0
0
0
0
0
0
0
0
0
0
0
0
4.71843
0
4.05456
4.96049
0
7.07406
3.85443
0
3.58578
0
0
0
0
0
0
0
0
0
0
0
0
0
0
0
0
0
0
0
0
0
0
8.06961
10.9514
2.12628
4.06312
7.84884
0
0
0
0
0
0
0
0
0
0
0
0
0
0
0
0
0
0
0
0
0
0
0
0.650462
8.49837
0
0
0.171283
0.0971951
0
0
0
0
0
0
0
0
0
0
0
0
0
0
0
0
0
0
0
0
0
0
4.25104
2.93947
0
0
0
3.07832
0
0
0
0
0
0
0
0
0
0
0
0
0
0
0
0
0
0
0
0
0
0
8.23612
0
4.31527
0
-1.745e-12
3.36301
0
0
0
0
0
0
0
0
0
0
0
0
0
0
0
0
0
0
0
0
0
0
0
1.45349
0
0
0
2.23906
0
0
0
0
0
0
0
0
0
0
0
0
0
0
0
0
0
0
0
0
0
0
0
0
0
0
0
0
0
0
0
0
0
0
0
0
0
0
0
0
0
0
0
0
0
0
0
0
0
0
0
0
0
0
0
0
0
0
0
0
0
0
0
0
0
0
0
0
0
0
0
0
0
0
0
0
0
0
1.8794
0
0
0
1.09148
0
0
0
0
0
0
0
0
0
0
0
0
0
0
0
0
0
0
0
0
0
0
0
2.88944
0
0
0
0
0
0
0
0
0
0
0
0
0
0
0
0
0
0
0
0
0
0
0
0
0
0
0
0
0
0
0
0
0
0
0
0
0
0
0
0
0
0
0
0
0
0
0
0
0
0
0
0
0
0
0
0
0
0
0
0
0
0
0
0
0
0
0
0
0
0
0
0
0
0
0
0
0
0
0
0
0
0
0
0
0
0
0
0
0
0
0
0
0
0
0
0
0
0
0
0
0
0
0
0
0
0
0
0
0