/*--------------------------------*- C++ -*----------------------------------*\
| =========                 |                                                 |
| \\      /  F ield         | OpenFOAM: The Open Source CFD Toolbox           |
|  \\    /   O peration     | Version:  5.x                                   |
|   \\  /    A nd           | Web:      www.OpenFOAM.org                      |
|    \\/     M anipulation  |                                                 |
\*---------------------------------------------------------------------------*/
FoamFile
{
    version     2.0;
    format      ascii;
    class       volScalarField;
    location    "0.95";
    object      voidfraction;
}
// * * * * * * * * * * * * * * * * * * * * * * * * * * * * * * * * * * * * * //

dimensions      [0 0 0 0 0 0 0];

internalField   nonuniform List<scalar> 
10571
(
0.441968
0.652867
0.968817
0.987183
0.908808
0.919514
0.98191
0.888516
0.968167
0.855434
0.441807
0.73998
0.914086
0.781506
0.903417
0.913875
0.829323
0.848523
0.608219
0.631763
0.759286
0.941854
0.943146
0.912091
0.856679
0.902772
0.908187
0.972348
0.592204
0.79266
0.949691
0.860735
0.849901
0.899147
0.437552
0.542358
0.975286
0.979991
0.947875
0.904878
0.716532
0.870687
0.809397
0.930011
0.665902
0.916313
0.836986
0.459357
1
0.966468
0.962753
0.890608
0.799561
0.956208
0.861674
0.868677
0.845918
0.756122
0.974181
0.825809
0.889705
0.973295
0.952134
0.926785
0.507365
0.88854
0.957725
0.966116
0.803144
0.668891
0.609546
0.455126
1
0.922961
0.901015
0.998049
0.860067
0.993171
0.947099
0.885053
0.794036
0.523707
0.99989
0.999327
0.918378
0.92417
0.821482
0.948488
0.547939
0.748793
0.946935
0.953162
0.842109
0.483409
0.528983
0.509215
0.99989
0.953576
0.656991
0.979013
0.871659
1
0.968909
0.921398
0.906733
0.83694
0.990214
0.997906
0.988466
0.930551
0.888613
0.505509
0.764686
0.823875
0.934056
0.964601
0.679403
0.46231
0.524441
0.489355
0.610359
0.890222
0.480111
0.504327
0.985744
1
0.953145
0.841911
0.903165
0.886008
0.405504
0.556409
0.9814
0.994928
0.930732
0.80339
0.771187
0.41824
0.70933
0.958629
0.886901
0.602826
0.963428
0.530019
0.561651
0.455627
0.992745
0.605499
0.454326
0.933926
0.993494
0.977864
0.728798
0.84057
0.989947
0.986296
0.520148
0.840768
0.872938
0.945574
0.758651
0.940176
0.994299
0.53689
0.85925
0.986996
0.662504
0.785051
0.985307
0.496209
0.646983
0.523799
0.46317
0.996812
0.930039
0.98957
0.998713
0.996545
0.87894
0.893603
0.991132
0.997732
0.998628
1
0.996811
0.965695
0.808995
0.93794
0.997136
0.999585
1
0.976962
0.891381
0.88007
0.992125
0.997658
1
0.787464
0.617525
0.721417
0.996812
0.99944
0.997806
0.999357
0.997378
0.996688
0.998135
0.998868
0.998242
0.994005
1
0.993622
0.997158
0.993735
0.998247
0.998056
0.997874
1
0.997113
0.99554
0.996833
0.998675
0.998276
0.991094
0.996919
1
1
0.996752
0.998684
0.996414
0.998946
1
0.999445
0.999063
0.997688
0.995137
0.996481
0.999662
0.998656
0.998481
0.998638
0.997287
0.998135
0.997743
0.997036
0.995529
0.999939
0.98761
0.994896
0.994045
1
0.996752
1
1
0.997837
0.99902
0.999113
0.99826
0.997942
0.997158
0.996811
0.999019
0.998181
0.998579
0.998833
0.996513
0.996061
0.995733
0.995958
0.998363
1
0.990592
0.994837
0.996639
1
0.995184
1
0.999966
0.997117
0.999595
0.999225
0.998694
0.999092
0.993841
1
0.99902
0.998126
0.998652
0.998938
0.996465
0.997414
0.995485
0.996754
0.99713
0.99119
0.991831
0.991696
0.99531
0.996811
0.998376
0.998618
0.99902
0.999099
0.997366
0.999153
0.998803
0.998938
0.998954
0.996701
1
0.998473
0.998896
0.999019
0.995496
0.998437
0.99786
0.997502
0.998264
0.99727
0.996632
0.994202
0.996569
1
1
0.999022
0.99902
0.999639
0.998987
0.999336
0.998714
0.998102
0.998372
0.994722
0.99902
0.998523
0.998598
0.999133
1
0.998256
0.997969
0.998015
0.999065
0.997339
0.999961
0.994867
0.995869
0.99989
0.998936
0.99882
1
0.997867
0.999662
0.999077
0.999002
0.999152
0.997752
0.99934
0.998648
0.999146
0.998203
0.998841
0.998458
0.99979
0.998175
0.998747
1
0.9993
0.997019
0.998822
0.995939
1
1
1
0.99902
0.996545
1
0.999336
0.999536
0.998385
0.995968
1
1
0.999088
0.999624
0.999489
0.999819
0.997474
0.999027
0.998985
1
0.9993
0.997755
0.997705
0.99797
1
0.998824
1
1
0.996815
0.999021
0.999447
0.999221
0.999047
0.998721
0.996921
0.999662
0.998969
0.999415
0.99906
0.996583
0.999098
0.998627
0.999139
0.999032
1
0.999264
0.999124
0.997969
0.996812
1
1
0.99902
0.999129
0.999021
0.999668
0.999206
0.998788
0.998565
0.995492
0.99902
0.998811
0.999686
0.999647
0.996523
0.998557
0.999334
0.999454
1
0.99797
0.998142
0.999124
1
0.996812
1
1
0.999966
0.997867
1
0.999554
0.999348
0.999132
0.997752
0.997911
0.997364
0.999896
0.999551
0.999197
0.997733
0.999128
0.999152
0.999256
0.999032
1
1
0.99997
1
1
1
1
0.99902
0.998558
0.999021
0.999538
0.999889
0.998675
0.998876
0.998901
0.99902
0.999331
0.999559
0.999578
0.999516
0.998347
0.999649
0.999766
0.995927
0.99797
0.99911
0.999366
0.99867
0.99934
1
0.999663
0.999797
0.999159
1
0.999802
0.999547
0.999095
0.995116
1
1
0.999219
0.999113
0.999526
0.999698
0.998196
0.999693
0.999523
0.99803
0.99643
0.99849
0.999124
1
1
1
0.999022
1
0.999129
0.999021
0.999668
0.999221
0.999039
0.996589
1
0.99902
0.999888
0.999322
0.99925
0.999093
0.998256
0.999346
0.999224
1
1
0.997096
0.998853
0.99804
1
0.998376
1
1
1
0.998042
0.999668
0.999325
0.999071
0.998876
1
1
1
0.999934
0.999757
0.999275
1
0.99979
0.99939
1
1
1
0.99837
0.99797
1
1
1
0.998041
1
1
0.999779
0.99911
0.999414
1
1
1
0.999777
0.999512
0.999554
0.99864
1
0.999532
0.999337
1
0.9979
0.997987
1
1
1
1
0.998955
0.99902
1
1
0.999866
0.999777
0.998958
0.999263
1
1
0.9995
0.999775
0.999506
0.997068
1
0.999455
0.999842
0.999232
1
1
1
1
1
1
1
0.999054
0.999309
1
0.999729
0.999133
0.999099
0.998876
0.996811
1
0.999792
0.999775
0.99953
0.999123
1
0.999528
0.999576
1
0.99797
0.998877
0.997404
1
1
1
1
0.99902
1
1
0.999962
0.999666
0.999649
0.999612
1
1
0.999888
0.999775
0.999412
0.998428
0.998256
0.999907
0.999766
0.998999
1
0.999535
0.99849
0.99797
1
0.995129
0.999056
1
1
1
0.999779
0.999777
0.999338
0.999612
1
1
0.999888
0.999663
0.999299
0.998277
0.999128
0.999976
0.999648
1
0.9979
1
1
1
1
0.998376
1
1
0.999129
1
0.999889
0.99967
0.999523
1
1
1
0.999888
0.999551
0.99953
0.999123
1
0.999883
0.999656
1
1
1
0.999124
1
1
1
1
1
0.999129
0.999966
0.999893
0.999777
0.999536
1
1
1
1
1
0.999489
1
1
0.99975
0.999664
0.999065
1
1
0.99997
1
1
1
1
1
0.999159
1
0.999886
0.999927
0.999649
1
1
1
0.999777
1
0.999874
0.998609
0.99982
0.999762
0.999766
0.999666
1
1
1
1
1
1
1
1
1
1
0.999779
0.99985
1
1
1
1
0.999669
1
0.999874
0.999002
1
0.999742
0.999883
0.999032
0.99797
1
1
1
1
0.998376
1
1
1
1
0.999779
0.999889
0.999923
0.999612
1
1
1
0.999888
1
1
1
0.999883
0.999648
1
0.99867
1
0.999124
1
1
0.998376
1
1
1
0.999021
0.999889
1
1
1
1
1
1
0.999888
0.999647
0.999123
1
1
0.999616
0.999032
1
0.998877
1
1
1
1
1
1
1
1
1
1
1
1
1
1
0.999888
0.999775
0.999761
0.999698
1
0.999883
0.999806
1
0.99797
1
1
0.99797
1
1
1
1
1
1
1
0.999889
0.999883
1
1
0.999932
1
0.999888
0.999866
0.999819
1
0.999766
0.999842
1
1
1
1
1
1
1
1
1
1
1
0.999889
1
1
1
1
0.99902
0.999888
1
0.999765
1
1
0.999883
0.999891
1
0.99797
1
0.99997
1
1
1
1
1
1
1
1
0.999889
1
1
1
1
0.999888
1
0.999996
0.999123
0.999128
0.999814
0.999887
1
1
0.998877
0.99997
0.99923
1
1
1
1
1
1
1
1
1
1
1
0.999966
1
1
1
1
1
0.99996
0.999883
1
0.99797
1
1
1
1
1
1
1
1
1
1
1
1
1
1
1
0.999888
0.999775
0.999765
1
1
0.999883
1
1
1
0.999961
1
1
1
1
1
1
1
1
1
1
1
1
1
0.99902
0.99985
0.999888
1
1
1
0.999923
1
1
1
0.999342
1
1
1
1
1
1
1
1
1
1
1
1
1
1
1
1
1
1
1
0.999649
0.999766
0.999032
1
1
1
1
1
1
1
1
1
1
1
1
1
1
1
1
1
1
1
1
1
1
1
1
1
1
1
1
1
1
1
1
1
1
1
1
1
1
1
1
0.999777
1
1
1
1
1
0.999883
1
1
1
1
1
1
1
1
1
1
1
1
1
1
1
1
1
1
1
1
1
1
0.999766
1
1
1
1
1
1
1
1
1
1
1
1
1
1
1
1
1
0.99902
1
1
1
1
0.999429
1
1
1
1
1
1
1
1
1
1
1
1
1
1
1
1
1
1
1
1
1
0.999882
1
1
0.999883
0.99996
1
1
1
0.999124
1
1
1
1
1
1
1
1
1
1
1
1
1
1
1
1
1
1
1
1
1
1
1
1
1
1
1
1
1
1
1
1
1
1
1
1
1
1
1
1
1
1
1
1
1
1
1
1
1
1
1
1
1
1
1
1
1
1
1
1
1
1
0.999992
1
1
1
0.999766
0.999891
1
1
1
0.999124
1
1
1
1
1
1
1
1
1
1
1
1
1
1
1
1
1
1
1
1
1
1
1
0.999124
1
1
1
1
1
1
1
1
1
1
1
1
1
1
1
1
1
1
0.999883
1
1
1
1
1
1
1
1
1
1
1
1
1
1
1
1
1
1
1
1
1
1
1
1
1
1
1
1
1
1
1
1
1
1
1
1
1
1
1
1
1
1
1
1
1
1
1
1
1
1
1
1
1
1
1
1
1
1
1
1
1
1
1
1
1
1
1
1
1
1
1
1
1
1
1
1
1
1
1
1
1
1
1
1
1
1
1
1
1
1
1
1
1
1
1
1
1
1
1
1
1
1
1
1
1
1
1
1
1
1
1
1
1
1
1
1
1
1
1
1
1
1
1
1
1
1
1
1
1
1
1
1
1
1
1
1
1
1
1
1
1
1
1
1
1
1
1
1
1
1
1
1
1
1
1
1
1
1
1
1
1
1
1
1
1
1
1
1
1
1
1
1
1
1
1
1
1
1
1
1
1
1
1
1
1
1
1
1
1
1
1
1
1
1
1
1
1
1
1
1
1
1
1
1
1
1
1
1
1
1
1
1
1
1
1
1
1
1
1
1
1
1
1
1
1
1
1
1
1
1
1
1
1
1
1
1
1
1
1
1
1
1
1
1
1
1
1
1
1
1
1
1
1
1
1
1
1
1
1
1
1
1
1
1
1
1
1
1
1
1
1
1
1
1
1
1
1
1
1
1
1
1
1
1
1
1
1
1
1
1
1
1
1
1
1
1
1
1
1
1
1
1
1
1
1
1
1
1
1
1
1
1
1
1
1
1
1
1
1
1
1
1
1
1
1
1
1
1
1
1
1
1
1
1
1
1
1
1
1
1
1
1
1
1
1
1
1
1
1
1
1
1
1
1
1
1
1
1
1
1
1
1
1
1
1
1
1
1
1
1
1
1
1
1
1
1
1
1
1
1
1
1
1
1
1
1
1
1
1
1
1
1
1
1
1
1
1
1
1
1
1
1
1
1
1
1
1
1
1
1
1
1
1
1
1
1
1
1
1
1
1
1
1
1
1
1
1
1
1
1
1
1
1
1
1
1
1
1
1
1
1
1
1
1
1
1
1
1
1
1
1
1
1
1
1
1
1
1
1
1
1
1
1
1
1
1
1
1
1
1
1
1
1
1
1
1
1
1
1
1
1
1
1
1
1
1
1
1
1
1
1
1
1
1
1
1
1
1
1
1
1
1
1
1
1
1
1
1
1
1
1
1
1
1
1
1
1
1
1
1
1
1
1
1
1
1
1
1
1
1
1
1
1
1
1
1
1
1
1
1
1
1
1
1
1
1
1
1
1
1
1
1
1
1
1
1
1
1
1
1
1
1
1
1
1
1
1
0.545026
0.554049
0.559197
0.660306
0.567233
0.704597
0.635124
0.503545
0.546543
0.538664
0.601395
0.604081
0.818577
0.827486
0.90432
0.902665
0.881113
0.874564
0.855861
0.848745
0.848671
0.76003
0.55788
0.854681
0.840319
0.578245
0.554661
0.533709
0.52825
0.610761
0.865732
0.615897
0.770219
0.859405
0.79631
0.768253
0.590376
0.742749
0.789526
0.555054
0.648275
0.82241
0.898814
0.755618
0.860746
0.746435
0.790442
0.562202
0.640596
0.684664
0.734715
0.608073
0.65669
0.703186
0.645761
0.713462
0.569777
0.748947
0.669626
0.570904
0.583163
0.674928
0.63034
0.679082
0.793846
0.676517
0.807806
0.750463
0.559845
0.669789
0.564703
0.683481
0.865472
0.536417
0.855771
0.825719
0.734162
0.916745
0.874842
0.741412
0.724746
0.870537
0.849995
0.686729
0.821581
0.819759
0.770344
0.623672
0.800649
0.919142
0.957404
0.814809
0.942624
0.837533
0.767281
0.736314
0.81288
0.937214
0.468427
0.721482
0.759105
0.72868
0.759468
0.720879
0.751541
0.793374
0.509233
0.679394
0.800749
0.619227
0.616696
0.641416
0.528042
0.863993
0.877377
0.970007
0.608713
0.842009
0.842904
0.96612
0.648821
0.988146
0.919442
0.710823
0.539887
0.931583
0.880313
0.706022
0.706111
0.82593
0.462195
0.595585
0.690939
0.457361
0.483364
0.912139
0.726651
0.870721
0.935097
0.694185
0.641904
0.678078
0.407511
0.527094
0.508916
0.721832
0.864468
0.921795
0.738401
0.746089
0.470833
0.411673
0.924209
0.723357
0.959928
0.795194
0.945116
0.721577
0.957262
0.737294
0.785336
0.690529
0.83158
0.709814
0.530106
0.431393
0.526117
0.910883
0.866363
0.950566
0.824341
0.927312
0.961315
0.845219
0.92684
0.811478
0.949783
0.886339
0.832074
0.683365
0.999934
1
0.996891
0.992636
0.946639
1
0.999849
0.994947
0.769732
0.610952
0.981319
0.941061
0.579623
0.500031
0.577511
0.674927
0.986259
0.93515
0.824274
0.839045
0.98723
0.978042
0.955382
0.868264
0.53546
0.634111
0.698997
0.748427
0.73489
0.794542
0.683414
0.627509
0.561612
0.746271
0.654717
0.621499
0.972478
0.97502
0.909598
0.932962
0.77304
0.800162
0.896426
0.811487
0.473072
0.465155
0.708825
0.582339
0.467768
0.81794
0.774383
0.930282
0.854067
0.846767
0.409654
0.427996
0.924377
0.598758
0.876153
0.609545
0.934809
0.473334
0.823719
0.865318
0.520884
0.544629
0.968571
0.938445
0.726473
0.744513
0.756638
0.784122
0.627402
0.922538
0.853025
0.840388
0.807711
0.840779
0.644498
0.86577
0.726101
0.534257
0.905682
0.422884
0.992543
0.907806
1
0.995326
0.999132
1
0.962183
0.999668
0.998892
0.773566
1
1
0.909253
0.562529
0.700619
0.996619
1
0.947728
0.938443
0.911983
0.93599
0.87809
0.966148
0.891188
0.802879
0.833761
0.639268
0.870605
0.905551
0.865039
0.704967
0.568151
0.507686
0.998812
1
0.992782
0.999769
1
0.99593
0.885632
0.798734
0.669893
0.901959
0.823302
0.835217
0.479672
1
0.990411
0.776221
0.86923
0.882041
0.933268
0.89793
0.902427
0.427015
0.480563
0.881583
0.45134
0.685493
0.483715
0.75471
0.444223
0.530318
0.931786
0.864837
0.798217
0.969137
0.938902
0.908531
0.797095
0.843605
0.493072
0.447921
0.741673
0.779855
0.505675
0.563836
0.519959
0.512457
0.828589
0.526953
0.570868
0.504532
0.492743
0.781769
0.642817
1
0.903001
0.997008
1
0.813635
0.996036
1
0.897236
1
1
0.839035
0.734914
0.768557
1
1
0.773773
0.99132
0.888696
0.931807
0.68655
0.999821
0.943381
0.971298
0.862806
0.834754
0.785194
0.978343
0.80899
0.963495
0.529071
0.819822
0.996869
1
0.998247
0.999033
1
1
0.664912
0.729675
0.547356
0.482499
0.530117
0.991624
0.97583
0.99912
0.988072
0.984943
0.869404
0.916439
0.55619
0.597696
0.62422
0.832944
0.848526
0.585807
0.430168
0.474448
0.753356
0.624092
0.42397
0.450703
0.920902
0.899285
0.781552
0.951703
0.795704
0.896558
0.783875
0.585571
0.437154
0.429016
0.487823
0.442929
0.46016
0.472809
0.432839
0.613161
0.432887
0.501026
0.589189
0.44377
0.504221
0.532207
0.480304
1
0.648341
0.927004
0.758099
0.514328
0.622083
0.998667
0.847225
0.94492
0.810179
0.7924
0.917942
0.970399
1
1
0.658807
1
0.982046
0.944106
0.641534
1
0.992546
0.987162
0.784245
0.99108
0.959646
0.986101
0.865948
0.990012
0.984892
0.989781
1
1
1
1
0.993292
0.999818
0.575008
0.514366
0.959588
0.785349
0.848035
0.98749
0.968909
0.801304
0.951617
0.764055
0.546219
0.563257
0.697911
0.833101
0.863723
0.653746
0.523405
0.828451
0.455203
0.463116
0.738785
0.913793
0.494581
0.556886
0.889792
0.871327
0.808336
0.898641
0.926718
0.793531
0.826993
0.96591
0.42945
0.451386
0.497549
0.440058
0.48394
0.515324
0.463401
0.516069
0.444738
0.5692
0.471389
0.449967
0.467205
0.470516
0.458432
0.457359
0.448666
0.42949
0.700921
0.457949
0.484164
0.516703
0.866096
0.888629
0.807399
0.97915
0.987783
0.997977
1
1
0.577233
1
0.979876
0.810846
0.485073
1
0.883461
0.995529
0.965733
0.994896
0.99707
1
0.987959
0.995967
0.972953
0.985899
0.999961
0.742794
0.975981
0.986723
0.602031
0.879954
0.621576
0.859634
0.52154
0.943468
0.510829
0.992033
0.641664
0.390884
0.423413
0.416603
0.413942
0.410798
0.425963
0.414055
0.765842
0.597945
0.614901
0.678006
0.674406
0.501851
0.784764
0.616589
0.973194
0.580442
0.857315
0.469006
0.397652
0.435237
0.404723
0.425065
0.414899
0.416543
0.421266
0.490114
0.627526
0.940319
0.50915
0.712333
0.692988
0.942237
0.537421
0.827843
0.859468
0.557965
0.807064
0.571125
0.912483
0.564152
0.866508
0.977152
0.524783
0.572419
0.522036
0.489988
0.597368
0.553342
0.483499
0.46576
0.453479
0.550809
0.461982
0.465759
0.454945
0.582227
0.935936
0.972623
0.725117
0.858766
0.993623
0.971857
0.988612
0.979239
0.993415
0.996812
0.996788
0.997406
0.999861
0.993948
0.987112
0.754566
0.44057
0.929303
0.60532
0.680217
0.726523
0.60975
0.568053
0.991885
0.996596
0.996865
0.998196
0.992079
0.997102
0.995795
0.985815
0.878174
0.987264
1
0.559992
0.385599
0.997583
0.905243
0.869356
0.636117
0.672055
0.728564
0.921482
0.792583
0.835968
0.996157
0.94594
0.994321
0.993171
0.997353
0.995756
0.41725
0.554745
0.426401
0.99603
0.867196
0.992536
0.849492
0.805637
0.902286
0.992852
0.944181
0.97196
0.933335
0.978279
0.812876
0.999004
1
0.994558
0.998314
0.425244
0.487893
0.420395
0.986933
0.81141
0.951196
0.719299
0.908608
0.992535
0.954923
0.887886
0.9135
0.970765
0.963297
0.949651
0.889031
0.978261
0.702402
0.920313
0.954735
0.988282
0.835361
0.975772
0.863339
0.991231
1
0.383161
0.973442
0.726441
0.577667
0.656661
0.602756
0.494387
0.687869
0.622547
0.511956
0.455655
0.462714
0.502554
0.465423
0.482058
0.510428
0.996236
0.993935
1
0.996671
0.997183
0.99945
0.998335
0.999061
0.996455
0.998877
1
0.999121
1
0.997983
0.995963
0.899821
0.98955
0.977253
0.860719
0.931001
0.991766
0.999131
0.990492
0.996482
0.995746
0.99707
0.999154
0.998075
0.996059
1
0.998171
0.990343
1
0.991015
1
1
1
1
1
0.910929
0.997471
0.983308
0.989781
0.996811
0.99794
0.995164
0.994596
0.992381
0.990731
0.994699
0.997708
0.996978
1
1
1
1
1
1
1
0.990818
0.995391
0.993732
0.997303
0.999613
0.99908
0.995625
0.998959
0.9969
0.995262
0.9973
0.999133
1
1
1
1
1
1
1
0.995744
1
0.853462
0.965572
0.857123
0.995037
0.938715
0.9973
0.984983
0.997775
0.985646
0.993731
0.99606
0.998845
0.996131
0.995284
1
1
1
1
1
1
0.907012
0.994123
0.731871
0.586589
0.970921
0.97
0.882354
0.630117
0.530026
0.96041
0.935176
0.804895
0.959604
0.997978
1
0.997361
0.998723
0.998819
0.993733
1
0.994427
0.998212
0.996669
0.996702
0.999121
0.997753
0.997979
0.998605
0.998607
0.993452
0.995685
0.996185
0.997166
0.992663
1
0.999017
1
0.996818
0.99741
0.997167
0.999638
1
0.998766
0.999127
0.996566
0.994669
0.998142
1
0.999424
0.999845
0.996811
0.999303
0.996988
0.997435
0.992004
0.997174
0.997463
0.996436
0.996618
1
1
1
1
1
1
1
0.996636
0.998877
1
0.998849
0.998877
0.998099
0.996962
0.998849
0.99997
0.995175
0.997562
0.996488
1
1
1
1
1
1
1
0.995954
0.997977
0.997393
0.994037
0.995943
0.996842
0.996502
0.996737
0.99561
0.99997
0.998228
0.995204
0.997402
0.998242
0.99835
0.998377
0.998386
0.990484
0.991184
0.990331
0.996817
0.988771
0.991511
0.993415
0.996431
0.995172
0.997282
0.994414
0.993745
0.996988
0.997979
1
1
1
0.998849
1
0.997755
0.998244
1
0.998877
1
0.998243
0.99849
0.996024
0.993933
1
0.999582
0.997992
0.998242
0.997363
0.998936
0.999521
0.997259
0.999577
0.996746
0.999037
0.997694
0.996692
0.99354
0.999041
0.996662
0.989947
0.993241
0.995316
0.99989
0.998061
0.997987
1
0.999122
0.997128
0.992638
0.998295
0.996438
0.991165
0.994273
0.997754
1
0.997122
0.997986
0.999927
0.996926
0.999939
0.99692
0.997701
1
0.99407
0.997162
0.992012
0.992371
0.999128
0.997526
0.998875
0.99673
0.99627
0.995853
0.99938
0.994744
0.999327
0.997382
0.998927
0.995994
0.995942
0.987127
0.990967
0.987927
0.990243
0.99124
0.98233
0.995425
0.990343
0.991575
0.994884
0.993745
1
0.99993
1
0.996811
0.996633
0.997396
1
1
0.999122
0.998243
0.997019
0.998131
0.999546
0.993188
0.994074
0.996096
0.996239
0.996865
0.998143
0.995799
0.998861
0.998376
0.996855
0.999434
1
0.995114
0.997328
0.99531
0.997747
0.995676
0.998518
0.997068
0.998676
0.997976
0.998955
0.993622
0.998364
0.998645
0.993622
0.998243
0.999059
1
0.997404
0.997368
0.996813
0.998243
0.997831
0.996701
0.99794
0.995973
0.98693
0.996772
1
0.991437
0.996633
0.995536
1
0.9968
0.996231
0.995247
0.996843
0.995877
0.998313
0.997366
0.99881
0.999088
0.998023
0.999032
0.997348
0.998693
0.993166
1
0.997831
0.997761
0.98976
0.992208
0.997329
0.993204
0.990452
0.99876
0.989356
0.99384
0.999574
0.987599
0.99657
1
1
0.996811
0.997756
0.999122
1
1
0.999122
1
0.997058
1
0.997092
0.99849
1
0.995957
0.99596
0.997283
0.999671
0.999106
0.999447
1
1
0.998093
0.999675
0.995675
0.999308
0.99737
0.998258
0.996685
0.999671
0.995978
0.99993
0.991959
1
1
0.998425
0.998878
0.9989
0.99894
0.998064
0.98471
0.996164
0.998306
0.996809
0.998243
0.998877
0.993622
1
0.997754
0.992088
0.999768
0.998096
0.994285
0.997988
0.99993
0.997977
0.997724
0.99955
0.997518
0.998587
0.997065
0.998425
0.995732
0.997714
0.997021
0.997006
0.998832
0.998872
0.997386
0.996666
0.997901
0.99951
0.99972
0.990033
1
0.998877
0.992993
0.996817
0.994771
0.99144
0.997252
0.994345
0.996817
0.9979
0.99993
0.998049
1
0.999342
0.999122
1
0.997756
0.999122
0.999425
0.998723
0.997471
0.99894
0.995897
0.994004
0.997978
0.998677
0.996657
1
0.998451
1
0.999944
0.996406
0.996544
0.999056
0.995167
1
0.998215
1
0.996741
0.999044
0.997005
0.991677
0.996082
1
0.994832
0.995609
1
1
1
0.997731
0.987787
0.993643
0.995582
0.996149
0.997364
0.995547
0.996811
0.996668
0.998838
0.990767
0.997987
0.998398
0.980326
0.998645
0.997977
0.995675
0.997164
0.999663
0.999031
0.996663
0.996142
0.998538
0.998184
0.997102
0.993038
0.998361
0.999933
0.997651
0.998814
0.998361
0.99867
1
0.993284
0.993023
0.9955
0.998993
0.996648
0.984525
0.992912
0.995171
0.994233
0.995856
0.998025
1
1
1
0.996811
0.998878
0.999122
0.996811
0.999768
0.999122
1
0.997368
0.996921
1
0.998877
0.997978
0.997978
0.999303
0.99798
0.99997
0.99857
1
1
0.999131
0.999702
1
0.99837
0.999176
0.997307
0.997927
0.999438
0.997331
0.995643
0.994613
0.99993
0.997368
0.996811
0.997668
0.997755
1
1
0.998245
0.99791
0.997558
0.99882
0.995709
0.999818
0.99698
0.995712
0.99791
0.995895
1
0.999264
0.997612
0.996483
0.998529
0.997907
0.997977
0.996801
0.996794
0.998214
0.997715
0.997494
0.995669
0.997397
0.996156
0.997993
0.997796
1
0.997926
0.997932
0.996722
1
0.998671
1
0.995621
0.993634
0.997445
0.998218
0.997915
0.995158
0.996927
0.996709
0.996592
0.998683
0.991879
0.999303
1
0.996811
0.998375
0.998244
0.996811
0.999807
0.998547
0.999122
0.997755
1
0.998274
0.997987
1
0.997978
1
0.99798
1
0.999136
0.999967
0.999384
0.998892
1
0.998438
0.997303
0.999802
0.998245
0.997506
1
0.999077
0.996853
0.997971
0.991115
0.999961
1
0.998244
0.998916
1
0.999122
0.998245
0.99681
0.997131
0.996066
0.990429
0.994365
0.997677
1
0.998818
0.997715
0.998571
0.999264
0.998398
1
0.997754
0.996861
0.999372
0.994328
0.996738
0.998154
0.996933
0.997659
0.997132
1
0.999115
0.998419
0.996383
1
1
0.999118
0.997796
0.994679
0.997272
0.996642
0.997795
1
0.998877
0.997946
0.993634
0.999303
1
0.998762
1
0.997147
0.995939
0.997979
1
1
1
0.99888
0.996811
0.998878
0.998304
0.99997
0.999768
1
0.999122
0.998877
0.997909
0.99742
0.99798
0.997841
0.999131
0.999136
0.999056
0.996752
1
0.999166
0.999805
0.99837
1
0.997398
0.997867
0.99837
1
0.999092
0.997831
1
0.998878
1
0.998244
0.997059
1
0.997335
0.998245
0.993619
0.999612
0.998941
0.99681
0.998243
0.999923
0.991424
0.998849
0.995508
0.993626
0.998877
0.997279
0.987801
0.997754
0.997977
1
0.996175
0.9991
0.997488
0.998858
0.996175
0.996738
1
0.998231
1
0.996722
0.999065
0.99878
0.998541
0.997796
1
0.99965
0.998041
0.996708
0.98683
0.997832
0.99855
0.99978
0.998877
0.998134
1
0.999613
0.995939
1
1
1
1
0.998491
0.999122
1
0.998143
1
0.999122
0.999613
0.996812
0.995851
0.998568
0.998675
1
0.997702
0.998677
0.99976
1
1
0.998376
0.999131
0.999136
0.999805
1
0.999671
0.998275
0.997927
0.996797
0.998418
0.998276
0.997971
0.997972
0.997949
1
0.997668
0.998878
0.996811
0.997062
0.995793
0.996809
0.997636
0.995613
1
0.995456
0.999574
0.993732
0.994334
0.995508
0.983953
0.997212
1
0.993626
0.995897
0.997977
0.999163
0.997132
0.998369
0.99655
0.998256
0.996207
0.998369
0.997972
0.99942
0.999118
1
1
0.999115
0.997872
0.999604
1
0.998531
0.9993
0.997946
1
0.99698
0.998248
1
0.999264
1
1
0.999961
1
1
0.997979
1
1
1
1
0.996811
0.999458
0.999425
0.997396
0.996633
1
1
0.998877
1
0.997978
1
1
0.999131
0.999702
0.998308
0.999944
0.998263
0.999464
1
0.997302
0.999638
0.998245
0.998949
0.996854
0.998945
0.999939
0.995942
1
0.998878
0.996812
0.998244
0.99551
0.993622
0.999122
0.999364
1
0.998876
0.99882
0.99362
0.998001
0.995779
0.99989
0.997243
0.997715
0.992966
0.998103
0.998247
0.991098
0.999613
1
1
0.998121
0.998369
0.997639
0.999699
0.999967
1
0.999122
0.999115
0.999088
0.994858
1
0.99823
0.999848
0.998361
1
0.997971
0.997971
1
0.996818
1
1
1
0.995547
0.996818
0.999124
0.998877
1
1
1
1
0.993624
0.998723
0.999364
1
0.998878
0.998244
0.999122
0.998878
1
0.999121
0.99911
0.998048
0.99993
1
1
0.998263
1
1
1
1
0.999136
0.999056
0.999663
0.999802
0.999365
1
0.998707
0.998088
0.999758
0.999161
0.997621
0.997833
0.995712
0.999061
0.998877
1
1
0.998548
0.9989
1
0.998547
0.994718
0.998243
0.998877
0.996921
0.998212
0.998877
0.998681
0.994387
0.997883
0.993735
0.997018
1
1
1
0.998369
1
0.999098
1
0.998369
0.998517
0.999115
0.999118
0.996723
1
1
0.999118
0.998304
0.997969
1
0.995942
0.99846
0.996927
0.998877
1
1
0.997793
0.999781
1
0.998877
0.996927
1
1
1
1
0.998878
1
1
0.999923
0.998335
0.999122
1
0.997471
1
1
0.999303
1
1
0.998468
0.999131
0.998272
1
1
0.999161
0.999762
1
0.998371
1
0.997519
0.999129
1
0.999044
1
0.996922
0.997971
1
0.997911
0.999122
0.998878
1
1
0.99882
1
0.998876
0.999122
0.996809
1
0.999613
0.996811
0.998243
0.998141
0.992858
0.997368
0.997339
0.993075
0.997057
0.997838
1
1
0.998369
0.998245
1
0.997131
1
0.999697
0.99817
0.999696
0.998418
0.997763
0.999695
0.998814
0.998926
0.99951
0.998741
0.9993
0.997191
0.996817
1
1
0.996817
0.998567
1
0.998762
1
0.998134
1
1
1
1
0.999265
0.99997
1
1
1
1
1
1
0.99997
1
0.999233
0.998675
1
1
1
1
0.999805
1
0.999131
1
0.999252
0.996741
0.998287
0.998064
0.999429
0.997808
1
0.999425
0.997971
1
0.998916
1
1
1
1
1
0.998245
0.99472
0.999263
0.996792
0.996809
1
0.998877
1
1
1
0.993187
0.998839
0.997914
0.998461
0.998141
0.997419
1
0.998384
0.998369
1
0.999128
0.998714
1
0.998547
0.997712
1
0.998361
0.999032
0.998169
0.999118
0.992991
0.9993
0.997971
0.9993
1
0.996817
0.999264
0.99855
1
1
1
0.99997
0.998877
1
0.993908
0.998746
0.997979
0.996812
1
1
1
1
0.999425
1
0.998877
1
1
1
0.997978
1
1
1
0.998802
0.999285
1
1
1
0.999672
1
0.99837
1
0.999697
0.998438
0.99837
0.999802
1
1
1
1
1
1
1
1
1
0.999123
0.9989
0.997829
0.997337
0.99747
0.999122
0.998877
1
1
1
0.997912
1
0.993106
1
0.999923
1
1
1
1
0.99997
0.999128
0.999044
0.998369
0.999455
0.998231
0.998298
0.997118
0.998698
0.999115
0.998236
1
0.997969
0.998041
1
0.99846
1
1
0.999124
1
0.998838
1
0.997101
1
1
1
1
1
1
1
0.999697
0.996811
0.998878
0.998244
1
0.998877
1
1
0.998877
1
1
0.99798
1
1
0.999315
0.999057
1
0.998262
1
1
1
1
0.999123
1
0.999663
0.998088
1
1
1
0.999613
1
0.999122
0.999303
1
0.99997
0.998245
0.992959
1
1
0.996809
0.998364
0.999845
1
1
1
1
1
0.998942
1
0.997057
1
1
0.999044
1
0.997064
1
1
1
1
0.999207
1
0.993276
1
0.997132
0.998601
0.999943
0.991667
1
1
1
1
0.997522
0.998248
1
1
1
0.999124
0.999613
1
1
0.99993
1
1
1
0.999122
1
1
0.999122
1
1
1
1
1
1
1
1
1
0.999161
1
1
1
1
0.999136
1
0.998708
1
1
1
0.99837
0.999044
1
1
1
1
1
1
1
1
1
0.999123
1
1
0.998245
0.996809
0.998243
0.999613
1
1
0.999264
0.997473
0.997794
0.998518
1
1
1
1
1
1
1
0.999128
1
1
1
1
0.998814
1
1
1
0.996472
1
0.995939
1
1
1
1
1
1
1
1
1
0.999728
0.997753
0.994622
1
0.995958
1
1
1
0.999697
1
0.998878
0.998547
0.999122
1
1
1
1
1
1
1
1
1
0.99997
1
1
1
0.996573
1
1
0.999045
0.999425
1
1
1
1
1
1
1
1
1
1
1
0.999122
0.999123
0.99747
1
0.997367
1
1
1
1
1
1
0.999341
0.998568
0.999819
1
0.999845
1
1
1
0.998369
0.999697
1
1
0.998369
0.999425
0.999115
1
1
0.9998
0.999054
1
0.998361
0.996079
1
1
1
1
1
0.99852
0.997915
0.998877
1
1
1
1
0.997969
1
0.997979
1
0.997756
0.999425
1
0.998878
0.999697
1
1
1
1
1
0.999582
0.997979
1
1
1
1
0.999057
1
0.999131
1
1
0.99837
1
1
1
1
1
1
0.997901
0.996012
1
1
0.999152
1
1
0.99997
0.999123
0.99681
0.999263
0.997972
1
1
1
1
1
1
1
0.998877
0.999819
1
0.997754
0.997978
1
1
1
0.998638
1
0.999044
1
0.999697
1
1
0.998361
0.998097
0.998261
0.999088
0.998304
1
0.99986
1
0.998279
0.995719
0.997755
0.999517
1
0.996631
1
0.997856
1
0.997805
1
1
0.997979
1
1
0.999122
1
1
1
1
1
1
1
1
1
1
1
1
1
1
0.999057
1
1
1
1
1
1
0.999123
1
1
1
0.999122
1
1
1
1
0.999122
0.99911
1
0.999152
1
1
1
0.99997
1
0.999122
1
1
1
1
1
1
0.998216
1
1
0.995955
1
1
1
0.999122
1
1
0.998369
0.99997
1
0.999118
0.998361
1
1
1
0.996722
1
1
0.996012
0.998792
1
1
1
1
1
0.999451
0.999124
1
1
1
1
1
1
1
0.999122
1
1
1
1
1
0.996812
1
1
1
1
1
1
1
1
1
0.998376
1
0.999821
1
1
1
0.999123
1
0.99837
0.999044
1
1
0.997971
0.999768
1
0.99997
1
1
0.999122
0.998275
1
1
1
1
0.999122
1
1
1
1
0.996813
0.998877
0.999093
1
0.998838
1
1
0.999044
0.998369
0.999122
1
1
1
1
1
0.999422
0.998361
0.999032
0.999115
0.997932
1
0.996079
0.995943
1
0.999124
0.996817
0.998877
1
1
0.998877
1
1
1
1
1
1
1
1
1
1
1
1
1
1
1
1
1
1
0.997979
1
1
1
1
0.999315
1
1
1
1
1
1
1
1
1
1
1
0.999122
1
1
0.998878
1
1
1
1
1
1
1
1
1
0.99989
0.999122
1
1
1
1
1
0.996632
0.998488
0.995933
1
1
1
1
1
1
0.999188
0.999044
1
1
0.999115
0.999939
1
1
1
1
0.998361
1
1
1
0.999426
1
1
0.999698
1
0.998877
1
0.999155
0.998877
1
1
0.997979
1
1
1
1
1
1
1
1
1
1
1
1
1
1
1
1
1
1
1
1
1
1
1
1
1
1
0.99997
1
0.999044
1
1
1
1
1
0.999122
1
1
1
1
0.99373
1
0.999122
0.996809
1
1
1
1
1
1
0.999768
0.997369
0.99989
0.999497
1
1
1
1
1
0.999128
0.999835
0.998369
0.99997
0.999115
1
1
0.999967
1
0.999757
1
1
1
1
1
1
1
1
1
0.998877
1
1
0.999109
1
0.997829
1
1
1
1
1
1
1
1
1
1
1
1
1
1
1
1
1
1
1
0.999056
1
1
0.998272
1
1
1
0.999122
1
1
1
1
1
1
1
1
1
1
1
1
0.998245
1
1
0.997942
0.996809
1
1
1
0.999303
1
0.996923
1
0.999123
1
0.997754
1
0.997977
0.998912
1
0.999031
1
1
1
0.99997
0.999115
0.999118
0.996723
0.999032
0.99823
1
0.999943
0.997969
0.997971
1
0.999124
1
0.998955
1
0.996159
1
1
1
1
0.99989
1
1
1
1
1
1
1
1
1
1
1
1
1
1
1
1
1
1
0.999131
1
1
1
1
1
1
1
1
1
1
1
1
1
1
1
1
1
0.999122
1
1
0.999122
0.999425
1
1
0.999122
1
0.99894
1
1
1
1
0.997473
0.998877
0.999123
1
0.998877
1
1
1
0.998369
1
1
1
1
1
0.998383
0.999696
0.995197
1
0.998047
0.99851
1
1
1
1
1
0.994292
1
1
1
1
0.996927
1
0.998877
1
0.996009
1
1
1
1
1
1
1
1
1
1
1
1
1
1
1
1
1
1
1
1
0.998376
1
1
1
1
1
1
1
1
1
1
1
1
1
1
1
1
1
1
1
0.9967
1
0.999122
0.996919
0.999122
1
1
0.999424
1
1
1
1
1
1
1
1
1
1
1
1
1
1
1
0.99881
1
0.998361
0.999032
0.999695
0.999422
0.998926
1
1
1
1
1
1
1
1
0.998877
1
1
1
1
0.997969
1
1
1
1
1
1
1
1
1
1
1
1
1
1
1
1
1
1
1
1
1
1
0.999136
1
1
1
1
1
1
1
1
1
1
1
1
1
1
1
0.999122
1
1
1
0.999122
0.996809
0.999697
1
1
0.999122
1
1
1
1
1
1
0.997977
1
1
1
1
1
1
1
1
1
0.999696
1
0.999098
0.999939
0.999149
1
0.995939
0.997971
1
1
1
1
0.999789
1
0.999187
1
1
1
1
1
1
1
1
1
1
1
1
1
1
1
1
1
1
1
1
1
1
1
1
1
1
1
1
1
1
0.999044
1
1
1
1
1
1
1
1
1
1
1
1
1
0.999122
1
1
1
1
1
1
1
1
1
1
1
0.999456
1
1
1
1
0.999934
1
0.999122
1
1
1
0.999122
1
0.998206
1
1
1
1
1
1
1
1
0.997584
0.996817
1
1
1
1
0.996817
1
1
1
0.99797
1
1
1
1
1
1
1
1
1
1
1
1
1
1
1
1
1
1
1
1
1
1
1
1
1
1
1
1
1
1
1
1
1
0.998878
1
1
1
1
1
1
1
1
1
1
1
1
1
1
1
1
0.998142
1
1
0.998877
1
1
1
1
1
1
1
1
0.998244
1
1
1
1
0.999115
0.999118
1
1
0.999301
0.998671
1
1
1
1
1
1
1
0.998279
1
1
1
1
1
1
1
1
1
1
1
1
1
1
1
1
1
1
0.99798
1
1
1
1
1
1
1
1
1
1
1
1
1
1
1
1
1
1
1
1
1
1
1
1
1
1
1
1
0.999122
1
1
1
1
1
1
1
1
1
1
1
0.999044
1
1
1
1
1
1
0.999115
0.99997
0.996779
0.999032
0.999115
0.999939
1
1
1
1
1
1
1
1
1
0.999264
1
0.999124
0.999613
1
1
1
1
1
1
1
1
1
1
1
1
1
1
1
1
1
0.99791
1
1
0.999166
1
1
1
1
1
1
1
1
1
1
1
1
1
1
1
1
1
1
1
1
1
1
1
1
1
1
1
1
1
1
1
0.997793
1
1
1
1
0.999303
1
1
1
0.999429
1
1
0.999939
1
1
1
1
0.999115
1
1
1
1
1
1
1
1
0.998248
1
0.99818
1
1
1
1
1
1
1
1
1
1
1
1
1
1
1
1
1
1
1
1
1
1
1
1
1
1
1
1
1
1
1
1
1
1
1
1
1
1
0.998878
1
0.998244
1
1
1
1
1
1
1
1
0.999121
1
1
1