/*--------------------------------*- C++ -*----------------------------------*\
| =========                 |                                                 |
| \\      /  F ield         | OpenFOAM: The Open Source CFD Toolbox           |
|  \\    /   O peration     | Version:  5.x                                   |
|   \\  /    A nd           | Web:      www.OpenFOAM.org                      |
|    \\/     M anipulation  |                                                 |
\*---------------------------------------------------------------------------*/
FoamFile
{
    version     2.0;
    format      ascii;
    class       volVectorField;
    location    "7.25";
    object      Us;
}
// * * * * * * * * * * * * * * * * * * * * * * * * * * * * * * * * * * * * * //

dimensions      [0 1 -1 0 0 0 0];

internalField   nonuniform List<vector> 
10571
(
(0.00629745 -0.00924197 -0.030756)
(-2.16728e-05 0.00801866 -0.0115416)
(0.0234558 0.025653 -0.0557519)
(0.00715777 -0.000431484 -0.0256373)
(-0.00896665 0.0118331 -0.0187147)
(0.0155381 0.0223006 -0.0275866)
(0.0139892 0.0225805 -0.0110064)
(-0.00945977 -0.00247555 -0.0142873)
(-0.0108193 0.00219932 -0.00658391)
(-0.00216547 0.0146627 -0.0257238)
(-0.0030839 0.0143023 -0.00281552)
(0.00508387 0.0138533 -0.00327953)
(-0.0534328 0.0448575 -0.0896041)
(-0.0101883 0.0360333 -0.110956)
(0.00377693 0.0255251 -0.101713)
(-0.00479695 0.0124185 -0.0271793)
(0.00591132 -0.00275225 -0.00143289)
(-0.0344899 0.00154806 -0.0280906)
(-0.0186702 0.0364466 -0.110698)
(-0.0112614 0.0124055 -0.0550423)
(-0.00513263 -0.00347049 -0.0147017)
(0.000241075 -0.00697567 -0.00890563)
(-0.00722789 -0.0119475 -0.0122653)
(-0.00442443 -0.00153459 -0.00641988)
(0.0134592 -0.00571136 -0.0221441)
(-0.00711738 0.00797075 -0.0765845)
(0.00345201 0.00400368 -0.0483817)
(0.0210272 -0.0368692 -0.0217155)
(0.0265092 0.00829461 -0.0455319)
(0.0058408 0.00383723 -0.0820916)
(0.0428092 0.022502 -0.0621281)
(0.0226238 0.0280761 -0.0648091)
(0.00524716 0.0113441 -0.0582217)
(-0.000776415 0.00590471 -0.0442294)
(0.0109276 -0.0100739 -0.129832)
(-0.00671677 -0.00320287 -0.125231)
(0.0581284 0.000201625 -0.0626995)
(0.0310491 -0.00446529 -0.0711165)
(0.007336 -0.0133132 -0.0522687)
(-0.000429735 -0.00829413 -0.0420159)
(-0.0171828 0.0325141 -0.151743)
(0.0222763 0.00573726 -0.0410868)
(0.0261934 -0.018844 -0.0459638)
(0.0219684 -0.0298372 -0.0477381)
(0.0117739 -0.0170797 -0.0370132)
(0.00950201 0.00112265 -0.112134)
(0.0197212 -0.00798366 -0.0832478)
(0.00463583 0.00463525 -0.0749636)
(-0.00116578 0.000519469 -0.000526691)
(0.00134475 -0.00676817 -0.0184159)
(-0.0139286 0.00996138 -0.0138234)
(0.0100782 0.0226807 0.022697)
(0.0360922 0.0216004 -0.0276231)
(0.00982054 -0.0348525 0.00300735)
(0.0442798 0.0219932 -0.0304484)
(0.0150532 0.0309415 -0.0377153)
(0.00461709 0.0055754 -0.0439787)
(-0.00107138 0.00128878 -0.0319334)
(0.00153572 -0.043537 0.045186)
(0.0144146 -0.0438998 0.0717926)
(0.080003 -0.00486405 -0.0177392)
(0.0278444 -0.0101552 -0.0460455)
(0.00802133 -0.0169125 -0.0382557)
(0.00170144 -0.0135942 -0.0298002)
(0.00776793 0.0296844 0.0641096)
(0.0487959 -0.0221452 -0.0223662)
(0.0190874 -0.0290222 -0.0333236)
(0.0141639 -0.0209509 -0.0218341)
(0.00991131 -0.0160528 -0.0125667)
(0.0247826 -0.0199917 0.0204122)
(0.0264603 -0.0251817 0.0114943)
(0.0220834 -0.0151822 -0.000215905)
(0 0 0)
(0 0 0)
(0 0 0)
(0 0 0)
(0 0 0)
(0 0 0)
(0 0 0)
(0 0 0)
(0 0 0)
(0 0 0)
(-0.00863565 -0.0178857 0.0555475)
(0.0104781 -0.0182586 0.0442018)
(0.0835916 -0.00453235 0.0231063)
(0 0 0)
(0 0 0)
(0 0 0)
(0.00300171 0.0229814 0.0479284)
(0.0505231 -0.0210769 -0.00650617)
(0.0259351 -0.037749 -0.0242742)
(0 0 0)
(0 0 0)
(0.0220256 0.0032234 0.0154655)
(0.0181392 -0.0156534 -0.00652138)
(0 0 0)
(0 0 0)
(0 0 0)
(0 0 0)
(0 0 0)
(0 0 0)
(0 0 0)
(0 0 0)
(0 0 0)
(0 0 0)
(0 0 0)
(0 0 0)
(0 0 0)
(0 0 0)
(0 0 0)
(0 0 0)
(0 0 0)
(0 0 0)
(0 0 0)
(0 0 0)
(0 0 0)
(0 0 0)
(0 0 0)
(0 0 0)
(0 0 0)
(0 0 0)
(0 0 0)
(0 0 0)
(0 0 0)
(0 0 0)
(0 0 0)
(0 0 0)
(0 0 0)
(0 0 0)
(0 0 0)
(0 0 0)
(0 0 0)
(0 0 0)
(0 0 0)
(0 0 0)
(0 0 0)
(0 0 0)
(0 0 0)
(0 0 0)
(0 0 0)
(0 0 0)
(0 0 0)
(0 0 0)
(0 0 0)
(0 0 0)
(0 0 0)
(0 0 0)
(0 0 0)
(0 0 0)
(0 0 0)
(0 0 0)
(0 0 0)
(0 0 0)
(0 0 0)
(0 0 0)
(0 0 0)
(0 0 0)
(0 0 0)
(0 0 0)
(0 0 0)
(0 0 0)
(0 0 0)
(0 0 0)
(0 0 0)
(0 0 0)
(0 0 0)
(0 0 0)
(0 0 0)
(0 0 0)
(0 0 0)
(0 0 0)
(0 0 0)
(0 0 0)
(0 0 0)
(0 0 0)
(0 0 0)
(0 0 0)
(0 0 0)
(0 0 0)
(0 0 0)
(0 0 0)
(0 0 0)
(0 0 0)
(0 0 0)
(0 0 0)
(0 0 0)
(0 0 0)
(0 0 0)
(0 0 0)
(0 0 0)
(0 0 0)
(0 0 0)
(0 0 0)
(0 0 0)
(0 0 0)
(0 0 0)
(0 0 0)
(0 0 0)
(0 0 0)
(0 0 0)
(0 0 0)
(0 0 0)
(0 0 0)
(0 0 0)
(0 0 0)
(0 0 0)
(0 0 0)
(0 0 0)
(0 0 0)
(0 0 0)
(0 0 0)
(0 0 0)
(0 0 0)
(0 0 0)
(0 0 0)
(0 0 0)
(0 0 0)
(0 0 0)
(0 0 0)
(0 0 0)
(0 0 0)
(0 0 0)
(0 0 0)
(0 0 0)
(0 0 0)
(0 0 0)
(0 0 0)
(0 0 0)
(0 0 0)
(0 0 0)
(0 0 0)
(0 0 0)
(0 0 0)
(0 0 0)
(0 0 0)
(0 0 0)
(0 0 0)
(0 0 0)
(0 0 0)
(0 0 0)
(0 0 0)
(0 0 0)
(0 0 0)
(0 0 0)
(0 0 0)
(0 0 0)
(0 0 0)
(0 0 0)
(0 0 0)
(0 0 0)
(0 0 0)
(0 0 0)
(0 0 0)
(0 0 0)
(0 0 0)
(0 0 0)
(0 0 0)
(0 0 0)
(0 0 0)
(0 0 0)
(0 0 0)
(0 0 0)
(0 0 0)
(0 0 0)
(0 0 0)
(0 0 0)
(0 0 0)
(0 0 0)
(0 0 0)
(0 0 0)
(0 0 0)
(0 0 0)
(0 0 0)
(0 0 0)
(0 0 0)
(0 0 0)
(0 0 0)
(0 0 0)
(0 0 0)
(0 0 0)
(0 0 0)
(0 0 0)
(0 0 0)
(0 0 0)
(0 0 0)
(0 0 0)
(0 0 0)
(0 0 0)
(0 0 0)
(0 0 0)
(0 0 0)
(0 0 0)
(0 0 0)
(0 0 0)
(0 0 0)
(0 0 0)
(0 0 0)
(0 0 0)
(0 0 0)
(0 0 0)
(0 0 0)
(0 0 0)
(0 0 0)
(0 0 0)
(0 0 0)
(0 0 0)
(0 0 0)
(0 0 0)
(0 0 0)
(0 0 0)
(0 0 0)
(0 0 0)
(0 0 0)
(0 0 0)
(0 0 0)
(0 0 0)
(0 0 0)
(0 0 0)
(0 0 0)
(0 0 0)
(0 0 0)
(0 0 0)
(0 0 0)
(0 0 0)
(0 0 0)
(0 0 0)
(0 0 0)
(0 0 0)
(0 0 0)
(0 0 0)
(0 0 0)
(0 0 0)
(0 0 0)
(0 0 0)
(0 0 0)
(0 0 0)
(0 0 0)
(0 0 0)
(0 0 0)
(0 0 0)
(0 0 0)
(0 0 0)
(0 0 0)
(0 0 0)
(0 0 0)
(0 0 0)
(0 0 0)
(0 0 0)
(0 0 0)
(0 0 0)
(0 0 0)
(0 0 0)
(0 0 0)
(0 0 0)
(0 0 0)
(0 0 0)
(0 0 0)
(0 0 0)
(0 0 0)
(0 0 0)
(0 0 0)
(0 0 0)
(0 0 0)
(0 0 0)
(0 0 0)
(0 0 0)
(0 0 0)
(0 0 0)
(0 0 0)
(0 0 0)
(0 0 0)
(0 0 0)
(0 0 0)
(0 0 0)
(0 0 0)
(0 0 0)
(0 0 0)
(0 0 0)
(0 0 0)
(0 0 0)
(0 0 0)
(0 0 0)
(0 0 0)
(0 0 0)
(0 0 0)
(0 0 0)
(0 0 0)
(0 0 0)
(0 0 0)
(0 0 0)
(0 0 0)
(0 0 0)
(0 0 0)
(0 0 0)
(0 0 0)
(0 0 0)
(0 0 0)
(0 0 0)
(0 0 0)
(0 0 0)
(0 0 0)
(0 0 0)
(0 0 0)
(0 0 0)
(0 0 0)
(0 0 0)
(0 0 0)
(0 0 0)
(0 0 0)
(0 0 0)
(0 0 0)
(0 0 0)
(0 0 0)
(0 0 0)
(0 0 0)
(0 0 0)
(0 0 0)
(0 0 0)
(0 0 0)
(0 0 0)
(0 0 0)
(0 0 0)
(0 0 0)
(0 0 0)
(0 0 0)
(0 0 0)
(0 0 0)
(0 0 0)
(0 0 0)
(0 0 0)
(0 0 0)
(0 0 0)
(0 0 0)
(0 0 0)
(0 0 0)
(0 0 0)
(0 0 0)
(0 0 0)
(0 0 0)
(0 0 0)
(0 0 0)
(0 0 0)
(0 0 0)
(0 0 0)
(0 0 0)
(0 0 0)
(0 0 0)
(0 0 0)
(0 0 0)
(0 0 0)
(0 0 0)
(0 0 0)
(0 0 0)
(0 0 0)
(0 0 0)
(0 0 0)
(0 0 0)
(0 0 0)
(0 0 0)
(0 0 0)
(0 0 0)
(0 0 0)
(0 0 0)
(0 0 0)
(0 0 0)
(0 0 0)
(0 0 0)
(0 0 0)
(0 0 0)
(0 0 0)
(0 0 0)
(0 0 0)
(0 0 0)
(0 0 0)
(0 0 0)
(0 0 0)
(0 0 0)
(0 0 0)
(0 0 0)
(0 0 0)
(0 0 0)
(0 0 0)
(0 0 0)
(0 0 0)
(0 0 0)
(0 0 0)
(0 0 0)
(0 0 0)
(0 0 0)
(0 0 0)
(0 0 0)
(0 0 0)
(0 0 0)
(0 0 0)
(0 0 0)
(0 0 0)
(0 0 0)
(0 0 0)
(0 0 0)
(0 0 0)
(0 0 0)
(0 0 0)
(0 0 0)
(0 0 0)
(0 0 0)
(0 0 0)
(0 0 0)
(0 0 0)
(0 0 0)
(0 0 0)
(0 0 0)
(0 0 0)
(0 0 0)
(0 0 0)
(0 0 0)
(0 0 0)
(0 0 0)
(0 0 0)
(0 0 0)
(0 0 0)
(0 0 0)
(0 0 0)
(0 0 0)
(0 0 0)
(0 0 0)
(0 0 0)
(0 0 0)
(0 0 0)
(0 0 0)
(0 0 0)
(0 0 0)
(0 0 0)
(0 0 0)
(0 0 0)
(0 0 0)
(0 0 0)
(0 0 0)
(0 0 0)
(0 0 0)
(0 0 0)
(0 0 0)
(0 0 0)
(0 0 0)
(0 0 0)
(0 0 0)
(0 0 0)
(0 0 0)
(0 0 0)
(0 0 0)
(0 0 0)
(0 0 0)
(0 0 0)
(0 0 0)
(0 0 0)
(0 0 0)
(0 0 0)
(0 0 0)
(0 0 0)
(0 0 0)
(0 0 0)
(0 0 0)
(0 0 0)
(0 0 0)
(0 0 0)
(0 0 0)
(0 0 0)
(0 0 0)
(0 0 0)
(0 0 0)
(0 0 0)
(0 0 0)
(0 0 0)
(0 0 0)
(0 0 0)
(0 0 0)
(0 0 0)
(0 0 0)
(0 0 0)
(0 0 0)
(0 0 0)
(0 0 0)
(0 0 0)
(0 0 0)
(0 0 0)
(0 0 0)
(0 0 0)
(0 0 0)
(0 0 0)
(0 0 0)
(0 0 0)
(0 0 0)
(0 0 0)
(0 0 0)
(0 0 0)
(0 0 0)
(0 0 0)
(0 0 0)
(0 0 0)
(0 0 0)
(0 0 0)
(0 0 0)
(0 0 0)
(0 0 0)
(0 0 0)
(0 0 0)
(0 0 0)
(0 0 0)
(0 0 0)
(0 0 0)
(0 0 0)
(0 0 0)
(0 0 0)
(0 0 0)
(0 0 0)
(0 0 0)
(0 0 0)
(0 0 0)
(0 0 0)
(0 0 0)
(0 0 0)
(0 0 0)
(0 0 0)
(0 0 0)
(0 0 0)
(0 0 0)
(0 0 0)
(0 0 0)
(0 0 0)
(0 0 0)
(0 0 0)
(0 0 0)
(0 0 0)
(0 0 0)
(0 0 0)
(0 0 0)
(0 0 0)
(0 0 0)
(0 0 0)
(0 0 0)
(0 0 0)
(0 0 0)
(0 0 0)
(0 0 0)
(0 0 0)
(0 0 0)
(0 0 0)
(0 0 0)
(0 0 0)
(0 0 0)
(0 0 0)
(0 0 0)
(0 0 0)
(0 0 0)
(0 0 0)
(0 0 0)
(0 0 0)
(0 0 0)
(0 0 0)
(0 0 0)
(0 0 0)
(0 0 0)
(0 0 0)
(0 0 0)
(0 0 0)
(0 0 0)
(0 0 0)
(0 0 0)
(0 0 0)
(0 0 0)
(0 0 0)
(0 0 0)
(0 0 0)
(0 0 0)
(0 0 0)
(0 0 0)
(0 0 0)
(0 0 0)
(0 0 0)
(0 0 0)
(0 0 0)
(0 0 0)
(0 0 0)
(0 0 0)
(0 0 0)
(0 0 0)
(0 0 0)
(0 0 0)
(0 0 0)
(0 0 0)
(0 0 0)
(0 0 0)
(0 0 0)
(0 0 0)
(0 0 0)
(0 0 0)
(0 0 0)
(0 0 0)
(0 0 0)
(0 0 0)
(0 0 0)
(0 0 0)
(0 0 0)
(0 0 0)
(0 0 0)
(0 0 0)
(0 0 0)
(0 0 0)
(0 0 0)
(0 0 0)
(0 0 0)
(0 0 0)
(0 0 0)
(0 0 0)
(0 0 0)
(0 0 0)
(0 0 0)
(0 0 0)
(0 0 0)
(0 0 0)
(0 0 0)
(0 0 0)
(0 0 0)
(0 0 0)
(0 0 0)
(0 0 0)
(0 0 0)
(0 0 0)
(0 0 0)
(0 0 0)
(0 0 0)
(0 0 0)
(0 0 0)
(0 0 0)
(0 0 0)
(0 0 0)
(0 0 0)
(0 0 0)
(0 0 0)
(0 0 0)
(0 0 0)
(0 0 0)
(0 0 0)
(0 0 0)
(0 0 0)
(0 0 0)
(0 0 0)
(0 0 0)
(0 0 0)
(0 0 0)
(0 0 0)
(0 0 0)
(0 0 0)
(0 0 0)
(0 0 0)
(0 0 0)
(0 0 0)
(0 0 0)
(0 0 0)
(0 0 0)
(0 0 0)
(0 0 0)
(0 0 0)
(0 0 0)
(0 0 0)
(0 0 0)
(0 0 0)
(0 0 0)
(0 0 0)
(0 0 0)
(0 0 0)
(0 0 0)
(0 0 0)
(0 0 0)
(0 0 0)
(0 0 0)
(0 0 0)
(0 0 0)
(0 0 0)
(0 0 0)
(0 0 0)
(0 0 0)
(0 0 0)
(0 0 0)
(0 0 0)
(0 0 0)
(0 0 0)
(0 0 0)
(0 0 0)
(0 0 0)
(0 0 0)
(0 0 0)
(0 0 0)
(0 0 0)
(0 0 0)
(0 0 0)
(0 0 0)
(0 0 0)
(0 0 0)
(0 0 0)
(0 0 0)
(0 0 0)
(0 0 0)
(0 0 0)
(0 0 0)
(0 0 0)
(0 0 0)
(0 0 0)
(0 0 0)
(0 0 0)
(0 0 0)
(0 0 0)
(0 0 0)
(0 0 0)
(0 0 0)
(0 0 0)
(0 0 0)
(0 0 0)
(0 0 0)
(0 0 0)
(0 0 0)
(0 0 0)
(0 0 0)
(0 0 0)
(0 0 0)
(0 0 0)
(0 0 0)
(0 0 0)
(0 0 0)
(0 0 0)
(0 0 0)
(0 0 0)
(0 0 0)
(0 0 0)
(0 0 0)
(0 0 0)
(0 0 0)
(0 0 0)
(0 0 0)
(0 0 0)
(0 0 0)
(0 0 0)
(0 0 0)
(0 0 0)
(0 0 0)
(0 0 0)
(0 0 0)
(0 0 0)
(0 0 0)
(0 0 0)
(0 0 0)
(0 0 0)
(0 0 0)
(0 0 0)
(0 0 0)
(0 0 0)
(0 0 0)
(0 0 0)
(0 0 0)
(0 0 0)
(0 0 0)
(0 0 0)
(0 0 0)
(0 0 0)
(0 0 0)
(0 0 0)
(0 0 0)
(0 0 0)
(0 0 0)
(0 0 0)
(0 0 0)
(0 0 0)
(0 0 0)
(0 0 0)
(0 0 0)
(0 0 0)
(0 0 0)
(0 0 0)
(0 0 0)
(0 0 0)
(0 0 0)
(0 0 0)
(0 0 0)
(0 0 0)
(0 0 0)
(0 0 0)
(0 0 0)
(0 0 0)
(0 0 0)
(0 0 0)
(0 0 0)
(0 0 0)
(0 0 0)
(0 0 0)
(0 0 0)
(0 0 0)
(0 0 0)
(0 0 0)
(0 0 0)
(0 0 0)
(0 0 0)
(0 0 0)
(0 0 0)
(0 0 0)
(0 0 0)
(0 0 0)
(0 0 0)
(0 0 0)
(0 0 0)
(0 0 0)
(0 0 0)
(0 0 0)
(0 0 0)
(0 0 0)
(0 0 0)
(0 0 0)
(0 0 0)
(0 0 0)
(0 0 0)
(0 0 0)
(0 0 0)
(0 0 0)
(0 0 0)
(0 0 0)
(0 0 0)
(0 0 0)
(0 0 0)
(0 0 0)
(0 0 0)
(0 0 0)
(0 0 0)
(0 0 0)
(0 0 0)
(0 0 0)
(0 0 0)
(0 0 0)
(0 0 0)
(0 0 0)
(0 0 0)
(0 0 0)
(0 0 0)
(0 0 0)
(0 0 0)
(0 0 0)
(0 0 0)
(0 0 0)
(0 0 0)
(0 0 0)
(0 0 0)
(0 0 0)
(0 0 0)
(0 0 0)
(0 0 0)
(0 0 0)
(0 0 0)
(0 0 0)
(0 0 0)
(0 0 0)
(0 0 0)
(0 0 0)
(0 0 0)
(0 0 0)
(0 0 0)
(0 0 0)
(0 0 0)
(0 0 0)
(0 0 0)
(0 0 0)
(0 0 0)
(0 0 0)
(0 0 0)
(0 0 0)
(0 0 0)
(0 0 0)
(0 0 0)
(0 0 0)
(0 0 0)
(0 0 0)
(0 0 0)
(0 0 0)
(0 0 0)
(0 0 0)
(0 0 0)
(0 0 0)
(0 0 0)
(0 0 0)
(0 0 0)
(0 0 0)
(0 0 0)
(0 0 0)
(0 0 0)
(0 0 0)
(0 0 0)
(0 0 0)
(0 0 0)
(0 0 0)
(0 0 0)
(0 0 0)
(0 0 0)
(0 0 0)
(0 0 0)
(0 0 0)
(0 0 0)
(0 0 0)
(0 0 0)
(0 0 0)
(0 0 0)
(0 0 0)
(0 0 0)
(0 0 0)
(0 0 0)
(0 0 0)
(0 0 0)
(0 0 0)
(0 0 0)
(0 0 0)
(0 0 0)
(0 0 0)
(0 0 0)
(0 0 0)
(0 0 0)
(0 0 0)
(0 0 0)
(0 0 0)
(0 0 0)
(0 0 0)
(0 0 0)
(0 0 0)
(0 0 0)
(0 0 0)
(0 0 0)
(0 0 0)
(0 0 0)
(0 0 0)
(0 0 0)
(0 0 0)
(0 0 0)
(0 0 0)
(0 0 0)
(0 0 0)
(0 0 0)
(0 0 0)
(0 0 0)
(0 0 0)
(0 0 0)
(0 0 0)
(0 0 0)
(0 0 0)
(0 0 0)
(0 0 0)
(0 0 0)
(0 0 0)
(0 0 0)
(0 0 0)
(0 0 0)
(0 0 0)
(0 0 0)
(0 0 0)
(0 0 0)
(0 0 0)
(0 0 0)
(0 0 0)
(0 0 0)
(0 0 0)
(0 0 0)
(0 0 0)
(0 0 0)
(0 0 0)
(0 0 0)
(0 0 0)
(0 0 0)
(0 0 0)
(0 0 0)
(0 0 0)
(0 0 0)
(0 0 0)
(0 0 0)
(0 0 0)
(0 0 0)
(0 0 0)
(0 0 0)
(0 0 0)
(0 0 0)
(0 0 0)
(0 0 0)
(0 0 0)
(0 0 0)
(0 0 0)
(0 0 0)
(0 0 0)
(0 0 0)
(0 0 0)
(0 0 0)
(0 0 0)
(0 0 0)
(0 0 0)
(0 0 0)
(0 0 0)
(0 0 0)
(0 0 0)
(0 0 0)
(0 0 0)
(0 0 0)
(0 0 0)
(0 0 0)
(0 0 0)
(0 0 0)
(0 0 0)
(0 0 0)
(0 0 0)
(0 0 0)
(0 0 0)
(0 0 0)
(0 0 0)
(0 0 0)
(0 0 0)
(0 0 0)
(0 0 0)
(0 0 0)
(0 0 0)
(0 0 0)
(0 0 0)
(0 0 0)
(0 0 0)
(0 0 0)
(0 0 0)
(0 0 0)
(0 0 0)
(0 0 0)
(0 0 0)
(0 0 0)
(0 0 0)
(0 0 0)
(0 0 0)
(0 0 0)
(0 0 0)
(0 0 0)
(0 0 0)
(0 0 0)
(0 0 0)
(0 0 0)
(0 0 0)
(0 0 0)
(0 0 0)
(0 0 0)
(0 0 0)
(0 0 0)
(0 0 0)
(0 0 0)
(0 0 0)
(0 0 0)
(0 0 0)
(0 0 0)
(0 0 0)
(0 0 0)
(0 0 0)
(0 0 0)
(0 0 0)
(0 0 0)
(0 0 0)
(0 0 0)
(0 0 0)
(0 0 0)
(0 0 0)
(0 0 0)
(0 0 0)
(0 0 0)
(0 0 0)
(0 0 0)
(0 0 0)
(0 0 0)
(0 0 0)
(0 0 0)
(0 0 0)
(0 0 0)
(0 0 0)
(0 0 0)
(0 0 0)
(0 0 0)
(0 0 0)
(0 0 0)
(0 0 0)
(0 0 0)
(0 0 0)
(0 0 0)
(0 0 0)
(0 0 0)
(0 0 0)
(0 0 0)
(0 0 0)
(0 0 0)
(0 0 0)
(0 0 0)
(0 0 0)
(0 0 0)
(0 0 0)
(0 0 0)
(0 0 0)
(0 0 0)
(0 0 0)
(0 0 0)
(0 0 0)
(0 0 0)
(0 0 0)
(0 0 0)
(0 0 0)
(0 0 0)
(0 0 0)
(0 0 0)
(0 0 0)
(0 0 0)
(0 0 0)
(0 0 0)
(0 0 0)
(0 0 0)
(0 0 0)
(0 0 0)
(0 0 0)
(0 0 0)
(0 0 0)
(0 0 0)
(0 0 0)
(0 0 0)
(0 0 0)
(0 0 0)
(0 0 0)
(0 0 0)
(0 0 0)
(0 0 0)
(0 0 0)
(0 0 0)
(0 0 0)
(0 0 0)
(0 0 0)
(0 0 0)
(0 0 0)
(0 0 0)
(0 0 0)
(0 0 0)
(0 0 0)
(0 0 0)
(0 0 0)
(0 0 0)
(0 0 0)
(0 0 0)
(0 0 0)
(0 0 0)
(0 0 0)
(0 0 0)
(0 0 0)
(0 0 0)
(0 0 0)
(0 0 0)
(0 0 0)
(0 0 0)
(0 0 0)
(0 0 0)
(0 0 0)
(0 0 0)
(0 0 0)
(0 0 0)
(0 0 0)
(0 0 0)
(0 0 0)
(0 0 0)
(0 0 0)
(0 0 0)
(0 0 0)
(0 0 0)
(0 0 0)
(0 0 0)
(0 0 0)
(0 0 0)
(0 0 0)
(0 0 0)
(0 0 0)
(0 0 0)
(0 0 0)
(0 0 0)
(0 0 0)
(0 0 0)
(0 0 0)
(0 0 0)
(0 0 0)
(0 0 0)
(0 0 0)
(0 0 0)
(0 0 0)
(0 0 0)
(0 0 0)
(0 0 0)
(0 0 0)
(0 0 0)
(0 0 0)
(0 0 0)
(0 0 0)
(0 0 0)
(0 0 0)
(0 0 0)
(0 0 0)
(0 0 0)
(0 0 0)
(0 0 0)
(0 0 0)
(0 0 0)
(0 0 0)
(0 0 0)
(0 0 0)
(0 0 0)
(0 0 0)
(0 0 0)
(0 0 0)
(0 0 0)
(0 0 0)
(0 0 0)
(0 0 0)
(0 0 0)
(0 0 0)
(0 0 0)
(0 0 0)
(0 0 0)
(0 0 0)
(0 0 0)
(0 0 0)
(0 0 0)
(0 0 0)
(0 0 0)
(0 0 0)
(0 0 0)
(0 0 0)
(0 0 0)
(0 0 0)
(0 0 0)
(0 0 0)
(0 0 0)
(0 0 0)
(0 0 0)
(0 0 0)
(0 0 0)
(0 0 0)
(0 0 0)
(0 0 0)
(0 0 0)
(0 0 0)
(0 0 0)
(0 0 0)
(0 0 0)
(0 0 0)
(0 0 0)
(0 0 0)
(0 0 0)
(0 0 0)
(0 0 0)
(0 0 0)
(0 0 0)
(0 0 0)
(0 0 0)
(0 0 0)
(0 0 0)
(0 0 0)
(0 0 0)
(0 0 0)
(0 0 0)
(0 0 0)
(0 0 0)
(0 0 0)
(0 0 0)
(0 0 0)
(0 0 0)
(0 0 0)
(0 0 0)
(0 0 0)
(0 0 0)
(0 0 0)
(0 0 0)
(0 0 0)
(0 0 0)
(0 0 0)
(0 0 0)
(0 0 0)
(0 0 0)
(0 0 0)
(0 0 0)
(0 0 0)
(0 0 0)
(0 0 0)
(0 0 0)
(0 0 0)
(0 0 0)
(0 0 0)
(0 0 0)
(0 0 0)
(0 0 0)
(0 0 0)
(0 0 0)
(0 0 0)
(0 0 0)
(0 0 0)
(0 0 0)
(0 0 0)
(0 0 0)
(0 0 0)
(0 0 0)
(0 0 0)
(0 0 0)
(0 0 0)
(0 0 0)
(0 0 0)
(0 0 0)
(0 0 0)
(0 0 0)
(0 0 0)
(0 0 0)
(0 0 0)
(0 0 0)
(0 0 0)
(0 0 0)
(0 0 0)
(0 0 0)
(0 0 0)
(0 0 0)
(0 0 0)
(0 0 0)
(0 0 0)
(0 0 0)
(0 0 0)
(0 0 0)
(0 0 0)
(0 0 0)
(0 0 0)
(0 0 0)
(0 0 0)
(0 0 0)
(0 0 0)
(0 0 0)
(0 0 0)
(0 0 0)
(0 0 0)
(0 0 0)
(0 0 0)
(0 0 0)
(0 0 0)
(0 0 0)
(0 0 0)
(0 0 0)
(0 0 0)
(0 0 0)
(0 0 0)
(0 0 0)
(0 0 0)
(0 0 0)
(0 0 0)
(0 0 0)
(0 0 0)
(0 0 0)
(0 0 0)
(0 0 0)
(0 0 0)
(0 0 0)
(0 0 0)
(0 0 0)
(0 0 0)
(0 0 0)
(0 0 0)
(0 0 0)
(0 0 0)
(0 0 0)
(0 0 0)
(0 0 0)
(0 0 0)
(0 0 0)
(0 0 0)
(0 0 0)
(0 0 0)
(0 0 0)
(0 0 0)
(0 0 0)
(0 0 0)
(0 0 0)
(0 0 0)
(0 0 0)
(0 0 0)
(0 0 0)
(0 0 0)
(0 0 0)
(0 0 0)
(0 0 0)
(0 0 0)
(0 0 0)
(0 0 0)
(0 0 0)
(0 0 0)
(0 0 0)
(0 0 0)
(0 0 0)
(0 0 0)
(0 0 0)
(0 0 0)
(0 0 0)
(0 0 0)
(0 0 0)
(0 0 0)
(0 0 0)
(0 0 0)
(0 0 0)
(0 0 0)
(0 0 0)
(0 0 0)
(0 0 0)
(0 0 0)
(0 0 0)
(0 0 0)
(0 0 0)
(0 0 0)
(0 0 0)
(0 0 0)
(0 0 0)
(0 0 0)
(0 0 0)
(0 0 0)
(0 0 0)
(0 0 0)
(0 0 0)
(0 0 0)
(0 0 0)
(0 0 0)
(0 0 0)
(0 0 0)
(0 0 0)
(0 0 0)
(0 0 0)
(0 0 0)
(0 0 0)
(0 0 0)
(0 0 0)
(0 0 0)
(0 0 0)
(0 0 0)
(0 0 0)
(0 0 0)
(0 0 0)
(0 0 0)
(0 0 0)
(0 0 0)
(0 0 0)
(0 0 0)
(0 0 0)
(0 0 0)
(0 0 0)
(0 0 0)
(0 0 0)
(0 0 0)
(0 0 0)
(0 0 0)
(0 0 0)
(0 0 0)
(0 0 0)
(0 0 0)
(0 0 0)
(0 0 0)
(0 0 0)
(0 0 0)
(0 0 0)
(0 0 0)
(0 0 0)
(0 0 0)
(0 0 0)
(0 0 0)
(0 0 0)
(0 0 0)
(0 0 0)
(0 0 0)
(0 0 0)
(0 0 0)
(0 0 0)
(0 0 0)
(0 0 0)
(0 0 0)
(0 0 0)
(0 0 0)
(0 0 0)
(0 0 0)
(0 0 0)
(0 0 0)
(0 0 0)
(0 0 0)
(0 0 0)
(0 0 0)
(0 0 0)
(0 0 0)
(0 0 0)
(0 0 0)
(0 0 0)
(0 0 0)
(0 0 0)
(0 0 0)
(0 0 0)
(0 0 0)
(0 0 0)
(0 0 0)
(0 0 0)
(0 0 0)
(0 0 0)
(0 0 0)
(0 0 0)
(0 0 0)
(0 0 0)
(0 0 0)
(0 0 0)
(0 0 0)
(0 0 0)
(0 0 0)
(0 0 0)
(0 0 0)
(0 0 0)
(0 0 0)
(0 0 0)
(0 0 0)
(0 0 0)
(0 0 0)
(0 0 0)
(0 0 0)
(0 0 0)
(0 0 0)
(0 0 0)
(0 0 0)
(0 0 0)
(0 0 0)
(0 0 0)
(0 0 0)
(0 0 0)
(0 0 0)
(0 0 0)
(0 0 0)
(0 0 0)
(0 0 0)
(0 0 0)
(0 0 0)
(0 0 0)
(0 0 0)
(0 0 0)
(0 0 0)
(0 0 0)
(0 0 0)
(0 0 0)
(0 0 0)
(0 0 0)
(0 0 0)
(0 0 0)
(0 0 0)
(0 0 0)
(0 0 0)
(0 0 0)
(0 0 0)
(0 0 0)
(0 0 0)
(0 0 0)
(0 0 0)
(0 0 0)
(0 0 0)
(0 0 0)
(0 0 0)
(0 0 0)
(0 0 0)
(0 0 0)
(0 0 0)
(0 0 0)
(0 0 0)
(0 0 0)
(0 0 0)
(0 0 0)
(0 0 0)
(0 0 0)
(0 0 0)
(0 0 0)
(0 0 0)
(0 0 0)
(0 0 0)
(0 0 0)
(0 0 0)
(0 0 0)
(0 0 0)
(0 0 0)
(0 0 0)
(0 0 0)
(0 0 0)
(0 0 0)
(0 0 0)
(0 0 0)
(0 0 0)
(0 0 0)
(0 0 0)
(0 0 0)
(0 0 0)
(0 0 0)
(0 0 0)
(0 0 0)
(0 0 0)
(0 0 0)
(0 0 0)
(0 0 0)
(0 0 0)
(0 0 0)
(0 0 0)
(0 0 0)
(0 0 0)
(0 0 0)
(0 0 0)
(0 0 0)
(0 0 0)
(0 0 0)
(0 0 0)
(0 0 0)
(0 0 0)
(0 0 0)
(0 0 0)
(0 0 0)
(0 0 0)
(0 0 0)
(0 0 0)
(0 0 0)
(0 0 0)
(0 0 0)
(0 0 0)
(0 0 0)
(0 0 0)
(0 0 0)
(0 0 0)
(0 0 0)
(0 0 0)
(0 0 0)
(0 0 0)
(0 0 0)
(0 0 0)
(0 0 0)
(0 0 0)
(0 0 0)
(0 0 0)
(0 0 0)
(0 0 0)
(0 0 0)
(0 0 0)
(0 0 0)
(0 0 0)
(0 0 0)
(0 0 0)
(0 0 0)
(0 0 0)
(0 0 0)
(0 0 0)
(0 0 0)
(0 0 0)
(0 0 0)
(0 0 0)
(0 0 0)
(0 0 0)
(0 0 0)
(0 0 0)
(0 0 0)
(0 0 0)
(0 0 0)
(0 0 0)
(0 0 0)
(0 0 0)
(0 0 0)
(0 0 0)
(0 0 0)
(0 0 0)
(0 0 0)
(0 0 0)
(0 0 0)
(0 0 0)
(0 0 0)
(0 0 0)
(0 0 0)
(0 0 0)
(0 0 0)
(0 0 0)
(0 0 0)
(0 0 0)
(0 0 0)
(0 0 0)
(0 0 0)
(0 0 0)
(0 0 0)
(0 0 0)
(0 0 0)
(0 0 0)
(0 0 0)
(0 0 0)
(0 0 0)
(0 0 0)
(0 0 0)
(0 0 0)
(0 0 0)
(0 0 0)
(0 0 0)
(0 0 0)
(0 0 0)
(0 0 0)
(0 0 0)
(0 0 0)
(0 0 0)
(0 0 0)
(0 0 0)
(0 0 0)
(0 0 0)
(0 0 0)
(0 0 0)
(0 0 0)
(0 0 0)
(0 0 0)
(0 0 0)
(0 0 0)
(0 0 0)
(0 0 0)
(0 0 0)
(0 0 0)
(0 0 0)
(0 0 0)
(-0.000591482 0.00349571 -0.00272888)
(-0.00150961 -0.00263956 0.00017765)
(0.00253442 0.00294611 -0.00286506)
(-0.0028929 0.000230688 -0.000591062)
(-0.00239344 -0.00428281 -7.34609e-05)
(-0.00307857 0.000859796 -0.00197033)
(-0.000302035 0.00114166 -0.00207018)
(-0.000297788 0.00116242 -0.00152284)
(-0.000228408 0.0009891 -0.000490552)
(-0.00101952 0.00139023 -0.000760912)
(0.00220838 0.00656642 -0.00150489)
(0.00109068 0.000556809 -0.00109031)
(0.00614296 0.00844748 -0.00272976)
(0.00448767 0.00584808 -0.00334025)
(0.00246694 0.000550812 -0.000232643)
(0.00461039 0.00705202 -0.00143007)
(0.00395262 0.00713697 -8.87796e-05)
(-0.000268901 0.0029753 -0.00126839)
(-0.00366112 0.00620533 -0.0012134)
(0.00123656 0.00498148 0.00119284)
(-0.00332849 0.00607221 0.00157807)
(-0.00228102 0.00622618 -0.00150391)
(2.75496e-05 0.00311114 -0.000835054)
(-0.00583018 0.00888994 0.000981367)
(-0.00200594 0.00866803 -0.00151778)
(-0.000169003 0.00324859 -0.00102928)
(0.000544277 0.00319076 -0.00140679)
(-0.000758882 0.00340081 0.000258167)
(-0.00141398 0.00956188 -0.000387807)
(0.00442332 0.00546612 -0.00310853)
(0.00986923 0.00490604 -0.00159732)
(0.00223256 0.0115104 -0.00169048)
(0.00973152 0.00997076 0.000713081)
(0.00476671 0.0066385 0.00120181)
(0.00168522 0.00458686 0.00105853)
(0.00473158 0.005505 0.00229325)
(0.000144053 -0.00186225 0.000991042)
(-0.000586836 0.00134068 0.000261198)
(-0.00224508 0.00196456 0.000557119)
(-0.000585046 -0.000829474 0.000329725)
(-0.000784047 2.88915e-05 -0.00032019)
(-0.00356805 0.00350079 0.000958267)
(-0.0039005 0.00644989 -8.5831e-05)
(-0.00160283 0.00114392 -0.00024763)
(-0.00433268 0.00288814 0.000326351)
(-0.00230621 0.00327949 -0.000821813)
(-0.00533785 0.0016926 -0.000917326)
(-0.00160484 0.000162782 -0.00127228)
(0.001075 0.00363235 -0.000212454)
(0.00161563 0.0074571 0.00105765)
(0.00158213 0.00258216 0.000559639)
(0.00283149 0.0085652 0.00066917)
(0.00865096 0.00654551 0.00142078)
(0.00221535 0.00439159 0.000395327)
(0.00629377 0.00257756 0.00100565)
(0.000538506 0.00336208 0.00215225)
(0.000950714 -0.00381634 -0.00341833)
(-0.0042861 0.00090807 0.00157948)
(0.00165439 0.00070151 -0.00382546)
(0.00130168 -0.00171391 -0.00118815)
(-0.000376523 -0.00010955 -0.000534433)
(0.00500782 -7.1842e-05 0.00118265)
(-0.00021235 -0.000548795 4.35895e-05)
(-0.00174921 -0.000783291 -0.000110491)
(-0.0043819 -0.000118736 0.000643779)
(-0.00300328 -0.00109071 0.00042224)
(-0.00581004 -0.00365985 -5.62598e-05)
(-0.00543916 0.000628341 -0.00064332)
(-0.000555685 -0.00109466 -0.00119155)
(-0.00395379 -0.000805864 -0.00085929)
(0.00056628 9.59306e-05 -0.000299503)
(0.00168345 0.00136779 0.0004464)
(0.00413948 -0.00144464 0.00137561)
(0.000554559 -0.000534598 -0.000401497)
(0.000557867 -0.00330392 0.000118619)
(-0.00518913 -0.00321957 0.00266568)
(-0.00018682 0.000457711 -0.00425581)
(-0.00372329 -0.00510605 0.000401977)
(-0.000975846 0.00148837 -0.00189891)
(0.00325351 0.000102727 0.00108754)
(-0.00207306 -0.00204781 0.00011186)
(-0.0019222 -0.00335517 0.00165415)
(-0.00711335 -0.00558229 0.00140888)
(-0.00674869 -0.0050542 0.000357817)
(-0.00542254 -0.00538803 -0.00164196)
(-0.00616792 -0.00166725 -0.000563914)
(-0.00219912 -0.000676881 -0.00142494)
(-0.00144713 -0.000479074 -0.00095335)
(-0.000544196 -0.00154117 -0.000472313)
(-0.00218303 -0.00336078 -0.00144488)
(-0.00190086 -0.00254545 -0.0010363)
(-0.00155197 -0.00140119 -0.00091962)
(-0.00261652 -0.00559134 -0.000414021)
(-0.00234526 -0.00349995 -0.00187761)
(-0.00143359 -0.00184053 -0.00156735)
(-0.00122981 -0.000286991 -0.000523134)
(0.00252631 0.00420461 -0.0196953)
(0.00360971 0.00145448 -0.0571398)
(0.0011952 -0.00709667 -0.0451664)
(0.017315 0.00746135 -0.0473532)
(0.00532664 0.00898935 -0.0466186)
(0.0034721 -0.00161257 -0.0666745)
(0.00596623 0.00355849 -0.0787087)
(0.0104973 -0.00183546 -0.0659779)
(0.00441292 0.000352388 -0.0287375)
(-0.000151286 0.00371569 -0.0288291)
(0.0101399 -0.0011593 -0.0467413)
(0.0119395 -0.00736898 -0.0400943)
(0.00740853 -0.000422119 -0.0369713)
(-9.47538e-05 0.00343059 -0.0129714)
(0.00412913 0.00482586 -0.0349723)
(-0.00115851 0.0112346 -0.00832255)
(-0.00594208 0.0194326 -0.0443119)
(0.00818371 0.0167574 -0.022799)
(0.0119437 0.0191872 -0.0212806)
(0.0108646 0.028818 -0.0582072)
(-0.00305955 0.0135441 -0.0472111)
(0.00730057 0.0193065 -0.0499338)
(0.00985332 0.0234811 -0.0472722)
(0.0143701 0.0269392 -0.101437)
(-0.000692325 0.00548167 -0.00740534)
(-0.0150424 0.0117763 -0.0232049)
(-0.00786223 0.0151986 -0.0141712)
(-0.00446832 0.00870037 -0.0362013)
(0.000192403 0.00639838 -0.0285916)
(-0.00460789 -0.00679166 -0.0707609)
(-0.000171081 0.0104406 -0.0393819)
(0.00164947 0.0100209 -0.0110324)
(0.00503763 0.0106616 -0.0340574)
(-0.00260865 0.0205178 -0.0149769)
(-0.0013346 0.0148514 -0.00149861)
(-0.00216741 0.0192384 -0.00387143)
(-0.00143529 0.0246472 -0.0426229)
(-0.00392749 0.0140953 -0.0306582)
(0.00410325 0.0142604 -0.0373029)
(-0.00283283 -0.00210503 -0.0251461)
(0.0046783 -0.0030553 -0.0229805)
(0.00512513 0.00424193 -0.0522205)
(0.0167106 0.000850554 -0.0640004)
(0.00359613 0.00246828 -0.0367476)
(-0.00242404 0.0108808 0.00181882)
(0.0013156 0.00187557 0.000828737)
(-0.0133013 0.0114886 -0.0287636)
(-0.00250289 0.0105298 -0.0512479)
(-0.00120265 0.00298703 -0.04176)
(0.00200214 0.0073124 -0.0260035)
(-0.00485041 -0.00137574 -0.033362)
(0.0120095 0.0108523 -0.0647074)
(0.0024497 0.00438757 -0.0409919)
(0.00374094 0.00505431 -0.0690999)
(0.000570397 -0.00192099 -0.00319679)
(-0.000645659 -0.00333043 -0.0543642)
(0.00970926 -0.00823382 -0.00578789)
(0.00262566 -0.00347928 -0.00423011)
(0.00484972 -0.0117453 -0.00465085)
(0.00604805 -0.000395994 -0.0356163)
(-0.0235667 0.0122851 -0.0936061)
(0.00994043 -0.00131035 -0.0391479)
(0.00824927 -0.00498271 -0.0436436)
(-0.0105496 -0.00537477 -0.0191577)
(-0.0136906 -0.00233096 -0.0147698)
(-0.00330968 0.00169711 -0.00809117)
(0.00754821 0.0295223 -0.105922)
(-0.00631423 0.00714379 -0.0499389)
(-0.0109148 -0.000269132 -0.034296)
(-0.00514567 0.00164392 -0.0205379)
(-0.000226233 -0.0018953 -0.0410006)
(0.0014048 -0.00324481 -0.00502391)
(0.00903035 0.0029587 -0.0578462)
(-0.00452247 -0.0121715 -0.013869)
(-0.00640754 -0.00296249 -0.00933655)
(0.00465726 -0.00475395 -0.0472923)
(-0.00572318 -0.00857296 -0.0526943)
(-0.00677697 -0.00227864 -0.0345268)
(-0.00853514 -0.00627322 -0.0136533)
(-0.00514629 -0.00200356 -0.0100375)
(-0.00676929 -0.000816129 -0.0497001)
(-0.0104166 -0.00135691 -0.0347398)
(-0.00597954 -0.000662071 -0.0343075)
(-0.00709797 0.000744705 -0.0284548)
(0.000540466 0.00567291 -0.078865)
(-0.00436486 0.00217659 -0.0259268)
(0.014156 -0.0039562 -0.0246174)
(0.0047909 0.00202136 -0.0492319)
(0.0137257 -0.0106268 -0.0248325)
(0.00217909 0.0017225 0.00413115)
(-0.00627543 0.0025707 -0.0165549)
(-0.00120849 0.00487853 0.00492394)
(0.0210287 -0.0244778 -0.0210535)
(0.0209467 -0.0115045 -0.0216018)
(0.0065478 0.00171887 0.0107458)
(0.0127593 -5.17631e-05 0.0190671)
(0.0224278 0.00403669 0.00280058)
(0.0178988 0.00605545 -0.0477663)
(0.0254842 0.0139574 -0.0198549)
(-0.00289208 0.00492477 -0.0875345)
(0.00505013 -0.0102426 -0.0189234)
(-0.00621205 0.00988845 -0.0684151)
(-0.00647757 0.0109715 -0.0710644)
(-0.00400763 0.017284 -0.0639624)
(0.000140244 -0.0030635 -0.026786)
(-0.00489216 -0.000632182 -0.0291094)
(0.00330449 -0.00943631 -0.0248131)
(0.00116536 -0.0046691 -0.0176761)
(0.018358 0.0170656 -0.0520558)
(0.0162567 0.0377396 -0.0436203)
(0.0145761 0.0247316 -0.0525338)
(0.032935 0.0195671 -0.0314734)
(0.0230184 0.0182694 -0.0425103)
(0.0231849 0.0182872 -0.0284317)
(0.0153156 0.0138803 -0.0462091)
(0.00940615 0.0154269 -0.0444751)
(0.0060448 0.00897435 -0.0370889)
(0.00342575 -0.00125693 -0.0934124)
(0.0106591 -0.00896024 -0.119283)
(0.00917533 -0.00806753 -0.119055)
(0.00739358 -0.0192689 -0.00585877)
(0.0145216 -0.0257418 0.019846)
(0.0179462 -0.0310871 0.00475433)
(0.000456863 -0.00290285 -0.0453941)
(0.000920505 -0.0053716 -0.0266917)
(0.00233426 0.00309809 -0.0369836)
(0.00298979 -0.00584002 -0.0368035)
(-0.000653583 -0.00704514 -0.0206415)
(0.00296153 -0.00143456 -0.143288)
(-0.00395283 0.0132491 -0.156774)
(0.0105797 -0.0275342 0.00902272)
(0.0132646 -0.0199507 -0.011608)
(-0.00177084 0.00266282 -0.020439)
(0.00243212 -0.00651849 -0.0252284)
(-0.0112102 -0.0123183 -0.0349531)
(0.00541531 -0.0118007 -0.0333443)
(0.00238897 -0.00873102 -0.0185105)
(0.00579588 -0.0133783 -0.0250244)
(0.000858547 0.010616 -0.16738)
(0.00421222 0.0102981 -0.0248667)
(0.00703355 0.0320199 -0.1222)
(0.0135489 0.0268738 -0.151998)
(0.0227717 0.0370017 -0.142944)
(1.99531e-05 0.0338 -0.0268225)
(0.00645941 0.0362036 -0.00968602)
(0.0161157 0.0257575 -0.0291343)
(0.0128475 0.0357433 -0.0168809)
(0.0176925 -0.0336399 -0.0426861)
(0.0143727 0.00997107 -0.0554257)
(0.0119769 -0.00351599 -0.0513435)
(0.0224322 -0.0133205 -0.0239979)
(0.0151517 -0.0148067 -0.0167298)
(0.0233581 -0.0125494 -0.00758893)
(0.0157348 -0.0138873 -0.00371593)
(0.00903658 -0.0121664 -0.0145084)
(0.0220021 0.0199053 -0.152118)
(0.0234681 0.0197481 -0.0221055)
(0.0115846 1.63977e-05 -0.102588)
(0.0154345 0.000957577 -0.101458)
(0.0183401 0.0145073 -0.00665661)
(0.0141395 0.00807634 -0.00823996)
(0.0138656 0.00028201 0.000584228)
(0.021096 -0.0135965 -0.0665918)
(0.00861215 0.00391579 -0.0898935)
(0.022185 -0.000663029 -0.00248629)
(0.0235379 -0.00111471 0.00252995)
(0.014635 -0.00336116 0.00482892)
(0.0193503 -0.00905086 0.00220451)
(-0.00769259 0.00343135 -0.0190492)
(-0.0122773 0.00335238 -0.0151873)
(-0.00923295 0.000849633 -0.00682243)
(-0.0133123 0.00558635 -0.0176457)
(-0.014376 0.00605283 -0.00477041)
(-0.0154391 0.000818115 -0.013667)
(-0.0193162 0.00654309 -0.0169078)
(-0.0202731 0.00664477 -0.0138148)
(0.00813401 0.00629113 0.00780276)
(0.0297849 0.012176 -0.00665748)
(-0.00318832 -0.00020655 -0.0115932)
(0.00575786 0.005574 -0.0125953)
(0.0338041 0.0114265 -0.0182034)
(0.0330888 0.0176796 -0.0241165)
(0.0423386 0.0159009 -0.026175)
(0.00814383 -0.0216469 -0.00928715)
(0.00672968 -0.0332047 -0.00135809)
(-0.0055925 -0.00291048 -0.021811)
(0.00432655 -0.0205271 -0.0152437)
(0.00350419 -0.0139979 -0.0126261)
(-0.000300361 -0.013403 -0.0123341)
(-0.0101279 -0.00499534 -0.0169849)
(0.00454364 -0.0314162 -0.0064091)
(0.00442574 -0.0185273 -0.00626282)
(0.020632 0.0181364 -0.0303877)
(0.0295145 0.0247071 -0.0242399)
(0.0158741 0.016319 -0.0372898)
(0.0482066 0.0248689 -0.025509)
(0 0 0)
(0.0411252 0.0356579 -0.020402)
(0 0 0)
(0.00473422 0.00719237 -0.030601)
(0 0 0)
(0.00940909 -0.0335726 9.54941e-05)
(0.00906173 -0.0425714 0.0230234)
(0.0124528 -0.0452231 0.0180653)
(0.00698718 -0.039685 0.00480424)
(0.00151915 -0.0318022 0.0313162)
(0.0035927 -0.0397809 0.0226632)
(-0.00204222 -0.00853496 -0.0313266)
(-0.00253455 -0.00710253 -0.0181173)
(0 0 0)
(-0.000419452 -0.0123071 -0.0353664)
(-0.00247637 -0.0086157 -0.0235454)
(0.00630235 -0.0381604 0.0582329)
(-0.00127994 -0.00686919 0.0656379)
(-0.00423422 -0.0232793 0.0481652)
(-0.00383761 -0.0242047 0.0530272)
(-0.00645273 -0.00125364 0.0613894)
(-5.80741e-05 -0.00883058 -0.0173702)
(0.0044357 -0.0168401 -0.022811)
(0.000185649 -0.0175796 -0.030735)
(-0.000903589 -0.00671536 -0.0150215)
(0.00470827 -0.0204995 -0.0226492)
(0.0045485 0.00803243 0.048176)
(0.000414742 0.0101502 0.0488434)
(0.0641259 0.0333604 0.0864832)
(0.0228045 0.0265894 0.0413147)
(0.0505894 0.0307315 0.0476405)
(0.00302593 0.0256141 0.0570181)
(0.0400065 0.0306563 0.0770573)
(0.0183299 0.028816 0.0464446)
(0.0294223 0.0317388 0.052756)
(0.0131799 -0.0195463 -0.0139749)
(0.0169823 -0.0199844 -0.00716828)
(0.0158367 -0.0165252 -0.00219243)
(0.0104998 -0.0274546 -0.0232472)
(0.0129929 -0.0241979 -0.0152913)
(0.0148057 -0.0233598 -0.0104395)
(0.0176239 -0.0190343 -0.00577454)
(0.0130789 -0.02167 -0.0154237)
(0.0298496 0.0180643 0.0184879)
(0.0251344 0.0199494 0.0322528)
(0.0198515 -0.0198179 0.0133574)
(0.0130078 -0.00177822 0.0198749)
(0.0227234 -0.00203928 0.0177601)
(0.0183567 -0.00952888 0.00807007)
(0.0103367 -0.00053704 0.0108361)
(0.0286328 -0.0232428 0.00638218)
(0.0164689 -0.00601593 0.0205125)
(0.0199942 -0.0160885 0.00334917)
(0.0226409 -0.0172288 -0.000977699)
(0.0148708 -0.00245564 0.00855984)
(0.0218876 -0.0135704 -0.00329388)
(0 0 0)
(0 0 0)
(0 0 0)
(0 0 0)
(0 0 0)
(0 0 0)
(0 0 0)
(0 0 0)
(0 0 0)
(0 0 0)
(0 0 0)
(0 0 0)
(0 0 0)
(0 0 0)
(0 0 0)
(0 0 0)
(0 0 0)
(0 0 0)
(0 0 0)
(0 0 0)
(0 0 0)
(0 0 0)
(0 0 0)
(0 0 0)
(0 0 0)
(0 0 0)
(0 0 0)
(0 0 0)
(0 0 0)
(0 0 0)
(0 0 0)
(0 0 0)
(0 0 0)