/*--------------------------------*- C++ -*----------------------------------*\
| =========                 |                                                 |
| \\      /  F ield         | OpenFOAM: The Open Source CFD Toolbox           |
|  \\    /   O peration     | Version:  5.x                                   |
|   \\  /    A nd           | Web:      www.OpenFOAM.org                      |
|    \\/     M anipulation  |                                                 |
\*---------------------------------------------------------------------------*/
FoamFile
{
    version     2.0;
    format      ascii;
    class       volScalarField;
    location    "3.8";
    object      p;
}
// * * * * * * * * * * * * * * * * * * * * * * * * * * * * * * * * * * * * * //

dimensions      [0 2 -2 0 0 0 0];

internalField   nonuniform List<scalar> 
10571
(
68.5502
89.8958
73.3478
76.2936
103.107
72.9529
62.2628
69.4485
91.0455
110.01
54.0828
63.498
71.7527
96.9978
117.177
110.539
76.9289
84.3538
105.082
111.795
112.464
94.2006
101.176
115.313
57.1803
54.566
56.2385
57.1926
56.0259
53.4343
57.2767
57.4365
45.5995
59.478
51.9041
52.4765
51.7791
37.3601
42.1025
67.0595
53.1883
57.5023
65.2125
76.8324
69.8721
60.5036
69.8729
72.5954
29.6179
22.4659
37.4177
35.6446
9.81058
39.9739
5.36771
3.64787
2.52701
3.1157
47.3506
43.9675
4.71514
2.42963
2.19336
3.05546
40.3646
3.30186
3.0048
4.27601
3.32481
13.179
13.8865
5.14187
2.07209
2.13166
1.9949
1.95894
2.39652
1.99891
1.43577
1.91665
2.22246
2.6744
2.17106
2.11762
1.89874
2.4457
2.37891
2.67949
1.88419
2.02153
2.18717
2.59205
2.68966
2.36537
2.43877
2.58392
2.43635
2.41172
2.41222
2.47242
2.4428
2.52441
3.07347
2.89182
2.53955
2.48629
2.70617
2.67894
3.02
2.68071
2.50738
2.49994
2.50192
2.61705
2.52243
2.47625
2.49669
2.4174
2.48981
2.49268
2.51794
2.51076
2.52557
2.53158
2.48798
2.54762
2.53762
2.55007
2.47018
2.48015
2.50627
2.50818
2.53756
2.61004
2.55558
2.48326
2.51045
2.49399
2.50248
2.5062
2.4846
2.46601
2.48978
2.47432
2.49403
2.48118
2.52429
2.54049
2.54052
2.5298
2.50989
2.54624
2.56069
2.52421
2.48467
2.48803
2.50287
2.53675
2.54698
2.55669
2.53286
2.49619
2.49317
2.50473
2.52924
2.51433
2.49139
2.45542
2.48755
2.50042
2.49926
2.49223
2.49129
2.51943
2.53631
2.52182
2.51866
2.50693
2.54326
2.5562
2.53701
2.48127
2.49016
2.4954
2.53216
2.5422
2.55707
2.53771
2.51236
2.49614
2.50401
2.53741
2.51107
2.50884
2.4696
2.49702
2.50064
2.50895
2.50079
2.50085
2.50729
2.5196
2.49462
2.50284
2.50106
2.53102
2.50692
2.52515
2.4803
2.4942
2.50093
2.58053
2.5439
2.54182
2.53419
2.52342
2.5102
2.51162
2.53614
2.50071
2.52439
2.49519
2.50977
2.51146
2.51364
2.51509
2.50102
2.50506
2.47183
2.49317
2.50306
2.51246
2.47238
2.50922
2.50048
2.50367
2.56195
2.53449
2.524
2.53198
2.5264
2.52464
2.52976
2.49883
2.53596
2.51602
2.5214
2.51669
2.52679
2.5309
2.50808
2.50544
2.48811
2.49946
2.50941
2.5003
2.48354
2.51557
2.53847
2.5249
2.53066
2.52142
2.51726
2.53097
2.542
2.53503
2.52304
2.50971
2.54322
2.53335
2.53866
2.52609
2.53703
2.54236
2.52339
2.5203
2.52668
2.51683
2.51483
2.51145
2.51605
2.54275
2.56512
2.54654
2.52205
2.51426
2.52636
2.5412
2.56218
2.54949
2.52399
2.52523
2.54713
2.55073
2.55559
2.53611
2.5447
2.55255
2.53824
2.53828
2.55304
2.53451
2.52038
2.53611
2.5487
2.55761
2.56254
2.5549
2.52925
2.52431
2.53616
2.55315
2.56465
2.55547
2.53098
2.53551
2.54999
2.55994
2.56181
2.54398
2.55052
2.56067
2.5497
2.54822
2.55782
2.54781
2.53472
2.55267
2.58006
2.55793
2.54737
2.55678
2.53926
2.53807
2.54625
2.55106
2.55527
2.5555
2.53935
2.53912
2.55142
2.55938
2.56212
2.54908
2.5532
2.56296
2.55727
2.55178
2.55521
2.55934
2.55332
2.55409
2.58706
2.56672
2.54948
2.55945
2.5437
2.54265
2.55739
2.55089
2.55172
2.5548
2.54533
2.54431
2.55419
2.55728
2.56149
2.55353
2.55457
2.56093
2.56927
2.55522
2.56283
2.57036
2.56606
2.54937
2.57797
2.56704
2.55316
2.56167
2.54521
2.54181
2.55764
2.55385
2.55326
2.55393
2.54543
2.55085
2.55476
2.55468
2.55955
2.55829
2.55616
2.56033
2.56953
2.55472
2.56163
2.57399
2.56542
2.54338
2.55913
2.55708
2.54402
2.55866
2.54397
2.54033
2.55025
2.54755
2.55309
2.55221
2.54
2.55188
2.55225
2.54957
2.55452
2.56258
2.55899
2.56202
2.57707
2.54896
2.5522
2.56048
2.55775
2.53523
2.53736
2.53709
2.54026
2.55226
2.54083
2.53604
2.54075
2.5394
2.55016
2.55001
2.53379
2.54861
2.54756
2.54349
2.54791
2.56379
2.55853
2.56109
2.55695
2.54383
2.54455
2.54329
2.55257
2.53036
2.52521
2.52258
2.53799
2.54584
2.53825
2.53031
2.53039
2.53007
2.54204
2.54714
2.53355
2.54297
2.5446
2.53823
2.54427
2.55966
2.55183
2.55263
2.54422
2.54305
2.54153
2.53666
2.54809
2.53305
2.52004
2.51772
2.53572
2.54125
2.53738
2.52946
2.52182
2.5257
2.53794
2.54414
2.54615
2.53644
2.54383
2.54652
2.54428
2.55499
2.54652
2.54601
2.54203
2.54622
2.54281
2.53696
2.54349
2.54404
2.52257
2.51974
2.53442
2.53873
2.54406
2.53756
2.52312
2.5293
2.53533
2.54254
2.56679
2.5352
2.54125
2.5417
2.54439
2.54816
2.54734
2.54728
2.54562
2.5507
2.54663
2.54031
2.5418
2.55524
2.53417
2.52593
2.53678
2.53996
2.55182
2.54902
2.5378
2.53937
2.5346
2.54413
2.57416
2.54681
2.54338
2.53925
2.54587
2.54973
2.54453
2.5565
2.55138
2.55439
2.55222
2.54652
2.54374
2.55904
2.54516
2.53558
2.54324
2.54463
2.55418
2.55286
2.55082
2.55063
2.54197
2.54874
2.56975
2.55886
2.54223
2.54214
2.55001
2.55844
2.52288
2.54015
2.55641
2.55734
2.55738
2.55245
2.54768
2.55592
2.55104
2.54457
2.55039
2.55053
2.55722
2.55905
2.55476
2.55573
2.54993
2.55447
2.56908
2.56523
2.54134
2.55019
2.55606
2.58357
2.52928
2.54866
2.56026
2.55962
2.55921
2.55624
2.55175
2.55546
2.55138
2.55079
2.5553
2.55558
2.55984
2.55958
2.55296
2.5556
2.55453
2.55863
2.56658
2.56507
2.55381
2.5578
2.56022
2.59539
2.56641
2.57132
2.5637
2.55966
2.55977
2.55973
2.55667
2.55614
2.55061
2.55471
2.55782
2.55912
2.56041
2.55951
2.55227
2.55567
2.55625
2.56065
2.56351
2.55863
2.55809
2.55966
2.56131
2.57594
2.57747
2.57297
2.56494
2.55758
2.55934
2.56196
2.56139
2.5577
2.55002
2.55598
2.55865
2.56047
2.55963
2.55941
2.55209
2.55437
2.55667
2.56094
2.55976
2.55411
2.55493
2.55801
2.56073
2.56594
2.57253
2.56423
2.56407
2.55663
2.5563
2.56051
2.56212
2.55648
2.54983
2.55449
2.55673
2.55825
2.55738
2.55706
2.54778
2.55199
2.55694
2.55968
2.55561
2.54964
2.55162
2.55514
2.55837
2.55848
2.56241
2.55805
2.56388
2.55752
2.55763
2.56189
2.55935
2.55302
2.55192
2.5549
2.55183
2.55417
2.55386
2.55324
2.54414
2.55013
2.55567
2.5573
2.55004
2.54677
2.54905
2.55263
2.55627
2.55345
2.55556
2.55473
2.56456
2.55858
2.56151
2.56463
2.55646
2.55068
2.55573
2.55636
2.5464
2.54861
2.54986
2.54944
2.54508
2.54736
2.55287
2.55431
2.54466
2.54639
2.54855
2.55125
2.55494
2.55221
2.5534
2.55316
2.56179
2.55702
2.56279
2.56693
2.55409
2.54856
2.5533
2.55791
2.54202
2.54286
2.54601
2.54547
2.54408
2.54722
2.54915
2.55082
2.54091
2.54597
2.54925
2.55086
2.55359
2.55322
2.55253
2.55258
2.56069
2.55309
2.55752
2.55955
2.55244
2.54531
2.54593
2.54863
2.5347
2.53919
2.54268
2.54194
2.54016
2.54483
2.5447
2.547
2.53938
2.54439
2.54896
2.54949
2.55106
2.55314
2.55215
2.55181
2.55685
2.54803
2.55031
2.5523
2.54914
2.54123
2.53742
2.538
2.52967
2.54034
2.53987
2.53893
2.53537
2.54057
2.54038
2.54431
2.53914
2.54265
2.54674
2.54705
2.5482
2.55063
2.55085
2.54986
2.54754
2.54303
2.54281
2.54443
2.54477
2.53784
2.53004
2.53306
2.52891
2.54529
2.5377
2.53667
2.52982
2.53654
2.53795
2.54406
2.53877
2.54005
2.54263
2.54441
2.54647
2.54767
2.5484
2.54725
2.54032
2.53908
2.53743
2.53843
2.54062
2.53575
2.52732
2.53035
2.53005
2.54849
2.53619
2.53485
2.52626
2.53337
2.53612
2.54381
2.53775
2.53699
2.53922
2.54309
2.54551
2.54473
2.54602
2.5452
2.53544
2.53624
2.5343
2.53426
2.5362
2.53439
2.52792
2.52843
2.53179
2.5464
2.53524
2.53275
2.52684
2.53133
2.53366
2.54195
2.53588
2.53498
2.53664
2.53943
2.542
2.54212
2.54453
2.54233
2.53229
2.53456
2.53244
2.53086
2.5321
2.53386
2.53012
2.52559
2.5323
2.53967
2.53456
2.53152
2.52843
2.52904
2.53041
2.53902
2.53437
2.53244
2.53436
2.53412
2.53689
2.53809
2.54064
2.53778
2.53067
2.53355
2.53156
2.52865
2.52926
2.53315
2.53499
2.52434
2.5307
2.53531
2.53348
2.5306
2.52775
2.52748
2.53239
2.53838
2.53319
2.52914
2.53137
2.52903
2.53483
2.53321
2.53524
2.53291
2.5308
2.53279
2.5315
2.5289
2.5283
2.53189
2.5378
2.52648
2.52816
2.53167
2.53215
2.52974
2.52823
2.52896
2.53427
2.53726
2.53195
2.52708
2.53002
2.52882
2.53297
2.52912
2.53062
2.52972
2.53165
2.53185
2.5312
2.53054
2.52945
2.53067
2.53539
2.53003
2.52775
2.52875
2.53116
2.52909
2.52897
2.52922
2.52978
2.53181
2.53066
2.5279
2.53084
2.52922
2.53042
2.52825
2.52919
2.52968
2.53224
2.53106
2.53058
2.53179
2.5311
2.53021
2.53097
2.53203
2.52946
2.52735
2.53066
2.5296
2.52988
2.52832
2.52632
2.5276
2.5301
2.52856
2.52906
2.52858
2.52859
2.52816
2.52882
2.53017
2.53165
2.53028
2.52973
2.53273
2.53257
2.5298
2.52703
2.53179
2.53126
2.52712
2.52994
2.5296
2.52934
2.52715
2.52326
2.52482
2.52982
2.52841
2.52649
2.5282
2.52622
2.52816
2.52767
2.52849
2.53009
2.52924
2.52891
2.5322
2.53251
2.52836
2.52502
2.53122
2.53243
2.52677
2.52882
2.52853
2.52792
2.52565
2.5216
2.52235
2.5291
2.52694
2.52471
2.52537
2.52365
2.52769
2.5258
2.52618
2.52761
2.52775
2.52653
2.52902
2.52954
2.52656
2.52405
2.52945
2.52928
2.52523
2.52759
2.52698
2.52527
2.52488
2.52114
2.52007
2.52758
2.52523
2.52455
2.52192
2.52085
2.52757
2.52465
2.52421
2.52555
2.5261
2.52361
2.52527
2.52661
2.52504
2.52255
2.5261
2.52395
2.5231
2.52645
2.52567
2.52452
2.52444
2.52031
2.51966
2.52581
2.52413
2.52433
2.52215
2.5212
2.52747
2.52442
2.52424
2.52393
2.52463
2.52184
2.52275
2.5246
2.52433
2.52232
2.52287
2.51885
2.52182
2.52554
2.52469
2.52401
2.52355
2.52311
2.52127
2.52426
2.52224
2.52377
2.52246
2.52366
2.52634
2.52408
2.52422
2.52254
2.52341
2.52048
2.52092
2.52351
2.52372
2.52176
2.51999
2.51822
2.52163
2.52473
2.52388
2.52277
2.52173
2.52627
2.52286
2.5231
2.51982
2.52368
2.52572
2.52575
2.52476
2.52494
2.52558
2.52116
2.52249
2.5194
2.51932
2.52282
2.52264
2.52012
2.51702
2.52006
2.5219
2.52415
2.52289
2.52113
2.51961
2.52659
2.52331
2.5224
2.51948
2.52505
2.52566
2.5253
2.52376
2.52578
2.52591
2.5197
2.52187
2.51878
2.51708
2.52189
2.52165
2.519
2.51409
2.52116
2.52219
2.52353
2.52186
2.51983
2.51905
2.52546
2.52339
2.52244
2.52169
2.52544
2.52607
2.52477
2.52314
2.52513
2.52542
2.51847
2.52153
2.51829
2.5155
2.52059
2.52093
2.51801
2.51384
2.5208
2.52186
2.52279
2.52116
2.51895
2.51974
2.52242
2.52294
2.52292
2.52252
2.52724
2.52449
2.5241
2.5227
2.52503
2.52488
2.51774
2.52142
2.51842
2.51479
2.51911
2.52064
2.51785
2.51601
2.51975
2.52099
2.52219
2.52081
2.51904
2.52043
2.51871
2.52203
2.52324
2.5211
2.52773
2.5241
2.52277
2.52202
2.52443
2.52422
2.51758
2.5216
2.51874
2.5149
2.51779
2.5208
2.51814
2.51797
2.51881
2.51966
2.52128
2.5198
2.51931
2.52045
2.51603
2.52034
2.52245
2.52021
2.52323
2.52153
2.52054
2.521
2.52282
2.52249
2.51774
2.52199
2.51919
2.51554
2.5166
2.52127
2.51819
2.51775
2.51739
2.51768
2.521
2.51994
2.51906
2.51837
2.51561
2.51849
2.52131
2.51942
2.51846
2.51843
2.51831
2.51999
2.52039
2.51976
2.51792
2.52256
2.52009
2.51634
2.51521
2.52197
2.51802
2.51536
2.51394
2.51476
2.52122
2.52051
2.51954
2.51587
2.51401
2.51503
2.52045
2.5187
2.51532
2.51624
2.51561
2.51977
2.51834
2.51704
2.51769
2.52335
2.52185
2.51655
2.51333
2.52273
2.51839
2.51285
2.50874
2.51101
2.5218
2.52121
2.51973
2.5128
2.50976
2.5105
2.5202
2.51768
2.5123
2.51297
2.51181
2.51934
2.51637
2.5143
2.5171
2.52411
2.52299
2.51604
2.51109
2.52341
2.51839
2.51115
2.50291
2.50655
2.52253
2.52148
2.51864
2.51011
2.50462
2.50531
2.52018
2.51659
2.50962
2.50852
2.5068
2.5186
2.51408
2.51106
2.51708
2.52504
2.52271
2.5163
2.50901
2.52494
2.51834
2.50852
2.49591
2.5008
2.52401
2.522
2.51754
2.50726
2.49808
2.49892
2.521
2.51632
2.50737
2.50283
2.50041
2.51811
2.5122
2.50735
2.51815
2.52686
2.52306
2.51666
2.50719
2.52745
2.5191
2.50586
2.48728
2.49255
2.5268
2.52402
2.51666
2.50411
2.48965
2.48943
2.52285
2.51757
2.50506
2.49644
2.49232
2.51919
2.51071
2.50303
2.52083
2.53031
2.52438
2.51725
2.50562
2.53193
2.52232
2.50288
2.47436
2.48031
2.53201
2.52832
2.51795
2.50057
2.47689
2.47427
2.52672
2.51992
2.50405
2.48977
2.48141
2.52172
2.51033
2.49876
2.52536
2.53638
2.52844
2.5191
2.50386
2.53857
2.52598
2.499
2.45642
2.45725
2.53892
2.53525
2.52134
2.49556
2.45608
2.44409
2.53287
2.52295
2.50282
2.48046
2.46282
2.52533
2.51138
2.49565
2.53184
2.54569
2.53623
2.52234
2.50101
2.54638
2.53299
2.49458
2.42735
2.41034
2.54807
2.54507
2.52662
2.48673
2.42233
2.3723
2.54191
2.52803
2.50215
2.46712
2.42857
2.53032
2.51307
2.49308
2.54128
2.55939
2.54884
2.52707
2.49579
2.55762
2.54313
2.48545
2.38477
2.28091
2.55979
2.5572
2.53625
2.47753
2.37687
2.19438
2.55208
2.53689
2.5009
2.44984
2.35738
2.53754
2.51607
2.49223
2.55447
2.57724
2.56677
2.53521
2.48688
2.57167
2.55872
2.48016
2.34119
1.90169
2.57359
2.57042
2.54739
2.47129
2.332
1.89231
-1.88642
2.56291
2.54774
2.50416
2.42592
2.19159
2.5469
2.52148
2.49645
2.56625
2.59924
2.58866
2.54434
2.48189
2.58672
2.56658
2.49985
2.33637
1.63831
0.0391157
2.58869
2.58307
2.55297
2.49609
2.32557
1.84219
0.0592685
2.57319
2.55578
2.51532
2.42059
2.00578
2.55696
2.53153
2.51021
2.54733
2.61709
2.58673
2.53529
2.48096
2.59913
2.56095
2.50937
2.38028
1.8503
0.447918
2.59966
2.59124
2.54967
2.5113
2.3929
1.87984
0.46957
2.58202
2.56169
2.52873
2.45792
2.19285
0.748856
2.56302
2.5411
2.53357
2.52701
2.60233
2.56018
2.52125
2.49141
2.59681
2.54591
2.51074
2.43426
1.96961
0.516939
2.5982
2.58841
2.54054
2.5057
2.42832
2.04746
0.405489
2.58212
2.55339
2.53791
2.481
2.34328
2.56003
2.54504
2.54751
2.52339
2.57228
2.53316
2.51983
2.49729
2.57436
2.52865
2.52679
2.45781
2.19034
2.58958
2.57296
2.52942
2.50715
2.46666
2.14759
-0.660945
2.57408
2.53743
2.53188
2.50538
2.54569
2.55058
2.54105
2.54981
2.51953
2.54878
2.5263
2.51381
2.49778
2.54683
2.52383
2.5232
2.47311
2.46472
2.56714
2.54949
2.51595
2.50651
2.48411
2.43747
2.55384
2.51663
2.51321
2.51377
2.55878
2.53605
2.53101
2.54176
2.51807
2.53889
2.5261
2.51571
2.49248
2.53244
2.52019
2.52005
2.49396
2.54141
2.54433
2.52901
2.50367
2.5023
2.48488
2.50879
2.52748
2.49806
2.503
2.51019
2.54817
2.51792
2.52034
2.53171
2.52466
2.53941
2.53024
2.51951
2.48764
2.53054
2.52129
2.52251
2.50897
2.54761
2.53253
2.51956
2.50071
2.5033
2.49661
2.52673
2.5122
2.49239
2.50375
2.51121
2.54123
2.50292
2.51484
2.52626
2.53507
2.54507
2.53792
2.52888
2.50633
2.53431
2.52663
2.53039
2.52067
2.54925
2.53027
2.51981
2.50615
2.50952
2.50731
2.5378
2.50986
2.50097
2.51636
2.5175
2.54263
2.50168
2.51842
2.52869
2.54937
2.55251
2.54752
2.54117
2.53351
2.54136
2.53471
2.53761
2.53569
2.55772
2.5337
2.5268
2.51783
2.51947
2.51976
2.54964
2.5159
2.51265
2.53208
2.53133
2.5523
2.51367
2.53045
2.53978
2.56374
2.5603
2.55709
2.55335
2.55326
2.54945
2.544
2.54998
2.54873
2.56777
2.54028
2.53613
2.52891
2.53383
2.5328
2.5649
2.52558
2.52636
2.54479
2.5464
2.57001
2.52646
2.54961
2.56178
2.57464
2.56688
2.56472
2.56232
2.56399
2.55671
2.55263
2.55305
2.55825
2.57642
2.54759
2.54444
2.54151
2.54479
2.55113
2.58082
2.53556
2.53779
2.55026
2.55965
2.59422
2.53854
2.57117
2.59577
2.58066
2.57128
2.56902
2.56664
2.57132
2.56135
2.5572
2.55725
2.56382
2.58693
2.55194
2.54959
2.54685
2.54919
2.55935
2.59874
2.54199
2.54351
2.55528
2.57975
2.6282
2.5512
2.58813
2.62955
145.798
137.207
148.301
149.884
139.287
152.956
154.462
156.75
148.25
149.967
157.878
162.869
152.054
151.469
153.533
147.912
148.807
156.22
161.164
149.229
154.05
167.159
160.831
158.798
170.594
166.855
151.024
131.023
143.504
152.321
146.137
147.715
143.104
132.894
116.866
114.971
104.856
114.917
118.502
115.672
130.103
125.67
170.084
148.469
176.285
178.899
188.231
172.994
127.906
139.456
137.778
146.198
140.97
147.699
145.249
118.492
122.646
128.962
135.302
153.417
170.429
168.829
185.78
179.201
190.686
193.513
198.068
188.091
169.914
184.835
136.225
151.36
156.546
150.431
164.093
147.107
142.246
166.347
163.59
160.042
176.775
170.205
180.641
185.972
186.71
185.927
176.491
176.944
162.382
169.953
171.547
163.448
173.523
176.233
165.494
172.882
79.622
55.2118
67.8908
71.0358
73.8031
55.8291
55.8099
56.3731
78.9738
84.3412
56.569
57.4792
58.5037
97.7991
57.2464
81.3778
52.908
82.6983
84.2939
74.7204
54.5645
55.5572
54.2172
54.5136
106.487
86.1187
103.844
59.148
58.4646
59.464
60.9516
109.254
65.4319
71.256
57.9352
66.6644
51.7607
49.7534
50.4508
116.018
102.966
76.1004
80.6267
78.5294
61.0917
61.2039
49.4606
49.8007
49.9128
100.054
103.829
81.2321
79.2828
79.8451
68.4544
50.8645
72.745
90.0399
91.0777
52.4053
54.312
53.2467
56.9148
114.209
110.632
112.982
87.8378
83.1165
82.3069
80.1829
81.3959
96.9755
58.4756
97.8791
93.2142
66.2584
71.3146
69.7948
105.493
98.2392
75.6075
77.9757
73.0944
79.0005
55.5728
54.273
56.956
56.3584
56.8498
54.1506
53.733
53.9811
57.0603
57.0778
53.8187
53.8753
53.5713
56.4014
54.1094
53.6308
52.8508
55.169
53.9789
54.5772
53.9493
53.8602
53.0586
52.3743
55.6941
56.7385
56.4499
53.8694
52.7774
53.6801
52.8606
56.9541
46.3372
53.0719
52.1398
52.2451
51.3617
50.0396
49.9163
63.1516
63.3009
36.442
39.8391
39.3777
51.9364
52.0781
49.7433
49.4091
49.7246
65.8218
69.1727
44.0518
41.164
48.7368
52.7767
50.6496
53.8418
53.8158
54.6527
51.3997
51.3299
53.0531
53.6718
72.3415
74.0411
71.3171
52.2521
55.7912
59.96
58.2966
49.5674
56.4446
55.5878
65.543
66.036
54.0853
56.8498
58.8279
71.8555
68.7958
60.402
60.9101
60.443
62.1607
22.2471
2.4288
29.7975
30.8617
35.087
2.51967
2.66381
2.74452
30.9412
18.855
2.52529
2.6569
2.38412
8.6342
2.09639
36.3628
2.94325
30.7974
36.0131
39.1868
2.51572
2.68001
3.2845
4.85419
3.79924
15.4809
4.34402
2.14398
2.00794
2.11839
1.98823
3.07715
2.00352
41.0135
46.003
44.2954
6.97571
25.5959
21.5979
2.89063
4.47881
1.86863
1.94992
1.87848
46.6176
45.2993
38.1439
34.8704
26.7302
4.40893
3.65271
1.93128
1.83816
1.71985
42.993
10.6296
36.9633
32.4587
25.5645
8.07297
5.25586
2.69027
2.45614
3.61565
5.72324
3.47116
1.93009
1.95305
1.98165
1.94439
1.87784
14.3202
2.28046
13.952
15.0437
2.17723
2.17124
2.10418
9.43465
15.6618
2.13605
1.9946
2.12891
1.96675
2.11298
2.63796
2.03821
2.05082
2.0359
2.66835
2.6682
2.68036
2.0884
2.19633
2.63773
2.63481
2.51639
2.36025
2.45079
2.05456
2.62366
2.10685
2.09326
1.96174
2.61041
2.6382
2.63312
2.71885
2.50247
2.34874
2.57142
2.43079
2.43058
2.46096
2.3913
2.61666
2.40015
1.96804
1.89576
2.14265
2.5518
2.3437
2.39112
2.61466
2.62627
2.45628
2.35818
2.41271
2.26391
1.90208
2.12987
2.17608
2.27296
2.68867
2.74095
2.38353
2.42818
2.42064
1.66869
2.4674
1.88226
1.99639
2.119
2.50019
2.57941
2.46754
2.43149
2.63791
2.6078
2.62516
2.35723
2.38538
2.36824
2.40249
2.38335
2.24027
2.43754
2.36151
2.37169
2.39382
2.41825
2.45647
2.51271
2.41185
2.42875
2.36667
2.45177
2.36806
2.40279
2.55725
2.42837
2.41454
2.41663
2.53796
2.55004
2.54564
2.42042
2.42381
2.51489
2.52345
2.49895
2.43275
2.48101
2.44436
2.53885
2.40267
2.42252
2.48864
2.56353
2.56704
2.56051
2.55845
2.48639
2.44865
2.50742
2.47228
2.48307
2.46488
2.46743
2.5083
2.46044
2.51211
2.61643
2.58992
2.53
2.53857
2.52879
2.51442
2.51298
2.44647
2.45787
2.35612
2.68704
2.64831
2.58231
2.54522
2.53705
2.50711
2.50652
2.42652
2.36083
2.46563
2.54239
2.50382
2.48193
2.47245
2.41537
2.49462
2.49693
2.50456
2.49563
2.51081
2.50041
2.52137
2.37136
2.41598
2.42634
2.43957
2.45249
2.43123
2.47956
2.46784
2.49218
2.46538
2.47142
2.52035
2.47964
2.49456
2.46392
2.43597
2.48203
2.43597
2.51531
2.53848
2.52765
2.52233
2.52446
2.52745
2.53287
2.52686
2.51326
2.50223
2.52046
2.51857
2.51163
2.49347
2.50717
2.52628
2.53458
2.51211
2.51943
2.55212
2.5433
2.54299
2.54015
2.55453
2.4923
2.47729
2.49983
2.50394
2.49952
2.49186
2.49811
2.48421
2.47171
2.53583
2.51874
2.52516
2.5355
2.53081
2.53061
2.5026
2.50114
2.5557
2.48344
2.50712
2.46979
2.49178
2.51071
2.50009
2.50769
2.50616
2.50945
2.51027
2.50677
2.5112
2.51139
2.52635
2.52796
2.53178
2.54717
2.48342
2.49569
2.47396
2.49214
2.48083
2.50065
2.50792
2.50078
2.50856
2.50746
2.50773
2.50055
2.50771
2.50562
2.5224
2.50787
2.4923
2.48186
2.51701
2.52121
2.51727
2.5253
2.49611
2.48608
2.49682
2.4266
2.44968
2.45203
2.46391
2.4589
2.48375
2.51226
2.49632
2.51499
2.49529
2.50408
2.50912
2.49086
2.50025
2.48805
2.4825
2.49265
2.46339
2.53638
2.53331
2.52971
2.53424
2.52885
2.52521
2.52746
2.5243
2.52366
2.51764
2.52359
2.52315
2.51798
2.51114
2.5102
2.53905
2.53969
2.53923
2.54264
2.55174
2.53995
2.53699
2.54254
2.54342
2.50337
2.50289
2.50792
2.50913
2.50325
2.50044
2.49945
2.48182
2.49899
2.4827
2.49672
2.50206
2.51
2.49893
2.50927
2.53868
2.52935
2.52934
2.54008
2.5214
2.52626
2.50028
2.47925
2.50026
2.48637
2.48924
2.4802
2.50199
2.50647
2.50411
2.50504
2.49577
2.50335
2.49954
2.50348
2.53778
2.54585
2.53772
2.53857
2.55105
2.50247
2.49068
2.50495
2.49072
2.50779
2.48897
2.5051
2.5064
2.50045
2.50677
2.50343
2.50664
2.50177
2.50641
2.54134
2.55028
2.52892
2.52443
2.52201
2.53585
2.53339
2.53141
2.53058
2.49251
2.49168
2.49749
2.46062
2.48052
2.4752
2.48206
2.50624
2.48005
2.50628
2.50751
2.49987
2.50786
2.5136
2.52355
2.50971
2.51116
2.50573
2.51212
2.51065
2.49771
2.4986
2.49536
2.4987
2.50089
2.48325
2.52689
2.5173
2.5166
2.51776
2.51585
2.50688
2.50527
2.50447
2.5192
2.51539
2.51341
2.51278
2.50916
2.50877
2.50512
2.53808
2.53433
2.53219
2.53958
2.53538
2.52848
2.52406
2.533
2.52679
2.5025
2.49497
2.495
2.5023
2.49832
2.49147
2.48544
2.48561
2.49438
2.48815
2.49802
2.49717
2.50791
2.49966
2.5106
2.53934
2.5238
2.52798
2.53833
2.54914
2.53773
2.49407
2.48517
2.50211
2.49096
2.49732
2.48891
2.50345
2.50535
2.49586
2.50409
2.49812
2.5087
2.49748
2.50697
2.53495
2.55087
2.55021
2.53977
2.54972
2.51201
2.49987
2.51112
2.50147
2.51645
2.505
2.51545
2.50774
2.50385
2.50776
2.50692
2.5122
2.5061
2.51122
2.54803
2.5458
2.53352
2.53387
2.52899
2.53711
2.53109
2.53287
2.52642
2.49886
2.49704
2.50611
2.48251
2.50415
2.50032
2.50564
2.51224
2.49731
2.51548
2.50924
2.50176
2.51242
2.52233
2.52068
2.5123
2.51091
2.51045
2.51226
2.51125
2.50672
2.50747
2.50633
2.51313
2.51345
2.50581
2.50743
2.50009
2.49844
2.49285
2.49442
2.49401
2.48503
2.49028
2.50559
2.50274
2.50263
2.49951
2.49845
2.50421
2.50336
2.52829
2.52102
2.51433
2.52415
2.51668
2.51113
2.50469
2.51488
2.5052
2.49823
2.49226
2.48547
2.50025
2.4977
2.49705
2.48391
2.49372
2.49552
2.53585
2.56645
2.54689
2.53008
2.55755
2.54274
2.50447
2.49501
2.51013
2.49725
2.5069
2.50031
2.51236
2.51277
2.50352
2.51085
2.50852
2.51348
2.513
2.51216
2.55533
2.54984
2.58375
2.5593
2.5475
2.52121
2.5122
2.51976
2.51674
2.5224
2.5169
2.52256
2.51536
2.50611
2.51357
2.52124
2.51948
2.51103
2.51368
2.54407
2.54064
2.52726
2.53027
2.52246
2.53334
2.52279
2.52563
2.51492
2.51059
2.51011
2.51537
2.50687
2.51685
2.51971
2.52252
2.51554
2.5194
2.51661
2.51227
2.51244
2.51335
2.5137
2.51448
2.52125
2.52183
2.52056
2.52872
2.52887
2.52368
2.49655
2.49717
2.4946
2.48379
2.4915
2.49826
2.4876
2.49572
2.49664
2.49847
2.50325
2.49877
2.50142
2.50441
2.50565
2.51446
2.50998
2.49841
2.50725
2.49344
2.50315
2.49609
2.50292
2.48442
2.50282
2.50391
2.49244
2.50527
2.50598
2.51182
2.50064
2.50359
2.51055
2.52321
2.54133
2.5331
2.51742
2.52853
2.52351
2.51014
2.52238
2.51031
2.514
2.50724
2.54861
2.54155
2.54302
2.53688
2.53393
2.53772
2.5217
2.52571
2.51598
2.52558
2.53554
2.52949
2.51859
2.52218
2.51045
2.52535
2.51338
2.51872
2.50605
2.52187
2.52771
2.52929
2.52494
2.52835
2.53454
2.53552
2.52868
2.5156
2.51535
2.51644
2.51796
2.52067
2.52008
2.52194
2.53575
2.5353
2.53204
2.54137
2.53964
2.53712
2.5021
2.51123
2.50541
2.49803
2.50254
2.51462
2.5117
2.51142
2.50505
2.50639
2.51514
2.51324
2.51179
2.50795
2.51086
2.50858
2.51121
2.49941
2.50279
2.48361
2.51129
2.5077
2.50732
2.48986
2.51496
2.52117
2.51345
2.51259
2.51901
2.52996
2.52467
2.52218
2.53184
2.51434
2.51975
2.5165
2.51525
2.5165
2.51383
2.52648
2.53117
2.53629
2.53582
2.53838
2.52789
2.52709
2.52377
2.52265
2.52257
2.53693
2.53513
2.5435
2.54353
2.54389
2.52495
2.52247
2.51033
2.51888
2.50783
2.52203
2.50797
2.52027
2.51131
2.53713
2.54014
2.54278
2.54281
2.54597
2.545
2.55018
2.54814
2.51832
2.52206
2.52524
2.5273
2.53092
2.52996
2.53226
2.54615
2.54335
2.54103
2.54938
2.54586
2.54755
2.52217
2.53265
2.52463
2.52583
2.52083
2.53397
2.53765
2.52983
2.52166
2.51659
2.53136
2.52932
2.5209
2.51468
2.51821
2.51743
2.52567
2.51901
2.51599
2.50349
2.52985
2.53071
2.52597
2.51892
2.52356
2.53473
2.53428
2.5171
2.52776
2.53343
2.54063
2.53978
2.5454
2.5213
2.5181
2.51639
2.52942
2.5231
2.52191
2.54443
2.54682
2.55259
2.54997
2.55218
2.52154
2.52118
2.52448
2.52429
2.52312
2.55003
2.55074
2.55408
2.55464
2.5554
2.52301
2.52565
2.51127
2.52421
2.51824
2.52685
2.51695
2.52851
2.52474
2.55436
2.5497
2.55821
2.5566
2.55963
2.5546
2.56465
2.56004
2.52777
2.53319
2.53458
2.53741
2.54046
2.53811
2.54147
2.55152
2.54841
2.54787
2.55284
2.5506
2.5572
2.54109
2.54701
2.54209
2.54549
2.53812
2.54827
2.54957
2.54472
2.53615
2.52762
2.54446
2.54255
2.53681
2.52346
2.53184
2.534
2.54147
2.54043
2.53528
2.53313
2.54464
2.54691
2.54351
2.54491
2.53256
2.52797
2.54383
2.52657
2.5392
2.52796
2.54911
2.54872
2.55201
2.53754
2.5302
2.52976
2.54394
2.53756
2.53817
2.5522
2.55418
2.55648
2.55352
2.55516
2.52945
2.52729
2.53461
2.53515
2.53218
2.55655
2.55592
2.55615
2.55724
2.55653
2.53014
2.53461
2.52466
2.53383
2.53207
2.53516
2.53206
2.53869
2.5387
2.5625
2.55839
2.56839
2.56026
2.56372
2.56107
2.5696
2.56248
2.53879
2.54378
2.5408
2.54452
2.54694
2.54312
2.54658
2.55328
2.55261
2.55231
2.55342
2.55381
2.56268
2.55085
2.55349
2.55221
2.55069
2.54881
2.55479
2.55116
2.55176
2.54844
2.54704
2.55416
2.55437
2.55589
2.5412
2.54988
2.54681
2.54972
2.55044
2.5499
2.55276
2.55003
2.55314
2.55292
2.55607
2.54621
2.53224
2.5531
2.54422
2.55386
2.54172
2.55902
2.55478
2.55804
2.54734
2.5437
2.54539
2.54842
2.54762
2.54929
2.55378
2.55524
2.55777
2.55467
2.55576
2.53947
2.5371
2.54254
2.54224
2.54072
2.55681
2.55597
2.55518
2.55644
2.55591
2.53879
2.54183
2.53848
2.54318
2.54419
2.54293
2.54326
2.54683
2.54871
2.56322
2.56232
2.56866
2.55851
2.56237
2.56238
2.56728
2.56175
2.54813
2.55161
2.54487
2.54791
2.55163
2.54745
2.54955
2.55361
2.55479
2.55403
2.55434
2.55562
2.56206
2.55556
2.55752
2.55675
2.55338
2.55535
2.55779
2.55723
2.55775
2.55829
2.56303
2.56288
2.56257
2.56951
2.55755
2.56399
2.55112
2.55167
2.55515
2.55325
2.55705
2.55381
2.55667
2.5532
2.55758
2.56088
2.5501
2.56359
2.56093
2.56617
2.55821
2.56732
2.56109
2.56345
2.54916
2.54888
2.5504
2.54962
2.54831
2.54998
2.55587
2.55677
2.56082
2.55687
2.5576
2.54335
2.54315
2.54475
2.54398
2.54475
2.55609
2.55608
2.55445
2.55569
2.55664
2.54399
2.5449
2.54633
2.54945
2.55132
2.54596
2.54797
2.55117
2.55339
2.56176
2.56145
2.56522
2.55613
2.56118
2.56035
2.56298
2.56095
2.55409
2.55597
2.54972
2.55138
2.55555
2.55253
2.55358
2.55551
2.55667
2.55535
2.55769
2.55781
2.5604
2.55906
2.55979
2.56221
2.56149
2.56068
2.56711
2.56466
2.56829
2.56696
2.57269
2.57007
2.56738
2.57598
2.56843
2.56959
2.55158
2.55075
2.55742
2.55308
2.55781
2.55574
2.55691
2.55259
2.55718
2.56944
2.56247
2.56877
2.5675
2.56948
2.56294
2.56702
2.56447
2.56346
2.54954
2.54752
2.54933
2.54857
2.54649
2.54834
2.55791
2.55797
2.56106
2.5583
2.55796
2.54427
2.54543
2.54496
2.54401
2.54493
2.55498
2.5569
2.55306
2.55398
2.55636
2.5448
2.54323
2.54787
2.55177
2.55412
2.5433
2.5463
2.55146
2.55389
2.56121
2.55896
2.56053
2.55157
2.56025
2.55706
2.55715
2.55732
2.55745
2.55855
2.55576
2.55613
2.56005
2.5586
2.55852
2.56032
2.55951
2.55712
2.56329
2.56217
2.56097
2.5592
2.55732
2.5677
2.56578
2.57477
2.57371
2.56443
2.57372
2.5708
2.57615
2.57305
2.57286
2.57181
2.56937
2.56644
2.54904
2.54662
2.55505
2.5512
2.55511
2.55207
2.55196
2.54876
2.55143
2.56539
2.56036
2.56235
2.56133
2.5598
2.55354
2.55488
2.56056
2.55621
2.54668
2.54525
2.54667
2.54413
2.54382
2.54461
2.55729
2.55685
2.55591
2.55597
2.55489
2.54304
2.54335
2.54255
2.54175
2.54112
2.55288
2.5553
2.55109
2.55182
2.55342
2.54108
2.5388
2.54322
2.54999
2.55273
2.53646
2.53915
2.54814
2.55093
2.55709
2.55573
2.55239
2.54664
2.55204
2.55363
2.54815
2.55135
2.55943
2.5598
2.56156
2.56086
2.56359
2.5631
2.56238
2.56791
2.56478
2.55954
2.57002
2.56636
2.56252
2.5539
2.55047
2.57662
2.56078
2.57011
2.56873
2.5557
2.56234
2.56891
2.56575
2.56951
2.56168
2.55923
2.56235
2.55848
2.54395
2.54156
2.54834
2.54614
2.54748
2.54598
2.54473
2.5439
2.54381
2.55439
2.54835
2.54928
2.55481
2.54971
2.54343
2.54473
2.55156
2.54733
2.54101
2.54206
2.54243
2.53775
2.54001
2.54002
2.55327
2.55211
2.54911
2.55031
2.54928
2.54056
2.53948
2.53949
2.53947
2.53897
2.5503
2.55121
2.54884
2.5485
2.54919
2.53772
2.53867
2.53493
2.5462
2.54875
2.53258
2.53138
2.54492
2.5475
2.54565
2.55062
2.54416
2.54114
2.54217
2.54503
2.54123
2.54556
2.55935
2.55806
2.56378
2.56283
2.56184
2.56191
2.56177
2.57008
2.56508
2.55627
2.56628
2.5622
2.55712
2.54771
2.54632
2.55665
2.5507
2.55351
2.5488
2.5468
2.54685
2.55347
2.55269
2.54867
2.54704
2.54713
2.55482
2.55134
2.53986
2.53929
2.54214
2.54251
2.54064
2.54282
2.54125
2.5422
2.5385
2.5466
2.54079
2.54287
2.55043
2.54427
2.5395
2.54166
2.54401
2.54184
2.53482
2.53774
2.5376
2.53296
2.53651
2.53601
2.54704
2.54653
2.5433
2.54454
2.54434
2.5386
2.53951
2.53717
2.53793
2.5406
2.54635
2.54696
2.54563
2.54462
2.54534
2.5415
2.54561
2.52826
2.54587
2.5472
2.53773
2.52789
2.54872
2.54898
2.54011
2.53976
2.54018
2.54278
2.54148
2.53766
2.54264
2.54422
2.55657
2.55584
2.55865
2.55861
2.55695
2.55408
2.55452
2.56154
2.55885
2.54828
2.55634
2.55595
2.54939
2.5467
2.54836
2.54508
2.54483
2.54323
2.54399
2.54461
2.54215
2.54297
2.54321
2.54216
2.54112
2.54107
2.54836
2.54616
2.54012
2.54222
2.54228
2.54329
2.53806
2.54433
2.54468
2.54524
2.53954
2.54285
2.53919
2.54126
2.5456
2.54145
2.53838
2.54058
2.54053
2.5395
2.53249
2.53681
2.53614
2.53388
2.539
2.5379
2.54259
2.54269
2.53973
2.54131
2.54155
2.53851
2.54241
2.53994
2.54084
2.54534
2.54318
2.54384
2.54316
2.5422
2.54275
2.55152
2.55739
2.53
2.55436
2.55214
2.55665
2.53379
2.56175
2.55544
2.54285
2.53042
2.54504
2.54529
2.54392
2.53453
2.5461
2.54427
2.55583
2.55619
2.55035
2.55062
2.5518
2.54731
2.54832
2.5515
2.55342
2.54692
2.54838
2.5511
2.54591
2.55085
2.5536
2.54509