/*--------------------------------*- C++ -*----------------------------------*\
| =========                 |                                                 |
| \\      /  F ield         | OpenFOAM: The Open Source CFD Toolbox           |
|  \\    /   O peration     | Version:  5.x                                   |
|   \\  /    A nd           | Web:      www.OpenFOAM.org                      |
|    \\/     M anipulation  |                                                 |
\*---------------------------------------------------------------------------*/
FoamFile
{
    version     2.0;
    format      ascii;
    class       volVectorField;
    location    "3.8";
    object      U;
}
// * * * * * * * * * * * * * * * * * * * * * * * * * * * * * * * * * * * * * //

dimensions      [0 1 -1 0 0 0 0];

internalField   nonuniform List<vector> 
10571
(
(0.00513527 0.128663 0.579823)
(0.054596 0.0475464 0.542216)
(0.0458159 0.0329114 0.649313)
(-0.0640181 0.0488628 0.64885)
(-0.100846 0.0550024 0.667099)
(0.0263238 0.0774505 0.623573)
(0.00799518 0.00532131 0.772131)
(-0.156954 -0.157091 1.15389)
(-0.553867 -0.320047 1.62736)
(-0.0763476 -0.0303029 0.700282)
(0.190587 0.0586088 0.665412)
(0.00038253 0.000429873 0.65657)
(-0.279234 -0.152901 1.1661)
(-0.208053 -0.188974 0.827244)
(-0.0739857 -0.155699 0.975962)
(0.0714458 0.0194089 0.710836)
(-0.0248835 -0.122792 0.6419)
(-0.164807 -0.116793 0.927473)
(-0.178614 0.114811 1.09422)
(-0.010614 0.0692188 0.825833)
(-0.0380106 -0.0684235 0.614908)
(-0.00834758 -0.071258 0.702738)
(-0.0471472 -0.0339192 0.665292)
(-0.0645998 -0.0795806 0.571534)
(-0.0230988 0.0301003 0.608341)
(-0.319518 0.291913 0.591803)
(-0.242403 0.157697 0.590082)
(0.00606711 0.116078 0.703702)
(0.139374 0.0222831 0.790813)
(-0.222748 0.267015 0.724278)
(-0.0302535 0.0291119 0.358207)
(0.0714474 0.115903 0.414941)
(0.0276855 0.0738567 0.302765)
(-0.13847 -0.0759276 0.683641)
(-0.160947 0.240473 0.754359)
(-0.276917 0.0749748 0.964877)
(0.09962 0.0121684 0.325156)
(0.0418463 -0.0106317 0.195998)
(-0.064432 -0.0562815 0.243748)
(-0.199847 -0.0613382 0.699953)
(-0.532674 -0.388406 0.808841)
(-0.0251817 -0.0229361 0.239091)
(-0.00779307 -0.087282 0.248433)
(-0.0267112 -0.236658 0.548944)
(0.0619961 -0.0449531 0.645676)
(-0.46159 -0.151345 0.805434)
(-0.213076 -0.0522467 0.840318)
(-0.0566313 0.0670382 0.719452)
(0.00751675 -0.00991361 0.303196)
(-0.0375102 -0.0795852 0.286255)
(-0.0455516 -0.0707002 0.543363)
(0.101865 -0.0779708 0.6328)
(0.11803 -0.00890995 0.282409)
(0.034056 -0.103518 0.966369)
(0.211212 0.167637 0.355169)
(0.0423632 0.227387 0.493901)
(0.00532821 0.10557 0.884599)
(-0.0087345 0.0181677 0.443269)
(0.154411 -0.0565735 2.48497)
(0.252631 -0.00604588 1.61736)
(0.250809 0.0308078 0.307369)
(0.0598657 0.0175515 0.742371)
(-0.0242637 -0.0218634 0.922024)
(-0.0297651 -0.000310789 0.304104)
(0.138146 0.202647 0.958044)
(0.151188 -0.0435834 0.418007)
(0.00822532 -0.0701559 0.604175)
(-0.000986552 -0.0269874 0.259268)
(0.00251604 -0.00461048 0.413191)
(0.0207378 -0.0412556 0.359363)
(0.0410797 -0.0641483 0.356351)
(0.0300809 -0.00418642 0.278992)
(-0.069316 -0.0194698 0.695868)
(0.0295522 0.0297303 0.548693)
(0.128824 0.163228 0.71563)
(-0.191086 0.185622 0.831591)
(-0.284137 -0.0183578 0.129537)
(0.0162461 -0.0406918 0.994443)
(0.358514 0.351614 1.38182)
(-0.32452 0.255707 1.13005)
(-0.357666 0.203376 0.682885)
(0.0106312 0.0596227 0.230106)
(0.00164363 -0.0306533 1.52597)
(0.0449162 0.0108182 1.18577)
(0.172054 -0.192508 1.19676)
(-0.237738 -0.154719 0.691933)
(-0.142892 -0.211447 0.593358)
(-0.0412046 -0.058488 -0.100085)
(0.00042806 0.0481711 1.0514)
(0.245662 -0.481059 0.806173)
(-0.351463 -0.212596 0.768375)
(-0.239838 -0.132362 -0.0587922)
(-0.0167088 0.00884801 0.0596883)
(-0.119266 -0.160702 0.343006)
(-0.142423 -0.0620591 0.289315)
(-0.0967151 0.0309803 0.0172772)
(-0.00988998 0.014897 0.496392)
(0.0112878 -0.0397404 0.255332)
(0.00333293 -0.0586917 0.287055)
(-0.00979556 -0.0613526 0.380554)
(-0.0198907 0.0563394 -0.055227)
(-0.0225984 -0.0529095 0.284833)
(0.201799 0.14915 0.661301)
(-0.0793869 0.165422 0.713807)
(-0.0953762 0.19058 0.444835)
(-0.0279377 0.158175 0.260446)
(-0.0337244 0.0126573 1.06507)
(-0.0137788 0.0121617 0.464571)
(0.129989 -0.0045863 0.687898)
(-0.0126297 0.0177526 0.635215)
(0.000786231 -0.113581 0.479345)
(-0.0954922 -0.0111174 -0.118469)
(0.0279299 0.0827045 0.354319)
(0.240193 -0.13311 0.392001)
(-0.205746 -0.0741186 0.496124)
(-0.0346135 0.0501086 -0.198454)
(0.0281458 0.0369954 0.251786)
(0.155184 0.199658 0.0293208)
(0.0355123 0.0148687 -0.0997536)
(-0.0389005 -0.00475056 -0.0230687)
(0.0336264 0.0158362 0.422807)
(0.0295212 -0.0417125 0.173775)
(0.0192506 -0.0187984 0.231396)
(0.055614 0.005173 0.271734)
(0.0284022 0.0917172 -0.0346344)
(0.00709322 -0.0429442 0.302227)
(0.209031 0.146722 0.894777)
(-0.0468119 0.157494 0.913478)
(-0.0564809 0.192874 0.532281)
(0.0595449 0.136002 0.169576)
(-0.130288 0.0497462 -0.0159441)
(-0.00475997 0.0264492 1.22513)
(0.0168565 0.00975527 0.540413)
(0.142784 0.00492702 0.906081)
(0.0316717 0.0520901 0.78709)
(0.0648916 -0.0798994 0.54124)
(0.0587714 -0.0266259 0.0514784)
(0.124174 -0.00289207 0.131967)
(0.0771776 0.150508 0.355296)
(0.259375 -0.0887871 0.51349)
(-0.1628 -0.0319533 0.540135)
(0.0529034 0.0842365 0.0580945)
(0.0294428 0.0220457 -0.00781469)
(0.0986616 0.16004 0.0716195)
(0.0108783 0.0924078 0.146948)
(0.0545601 0.0635997 -0.0882714)
(0.0437031 0.0157012 0.388502)
(0.050751 -0.0227261 0.123988)
(0.0932356 0.00351682 0.211569)
(0.0629456 0.0623111 0.297498)
(-0.00141879 0.0100775 0.0048273)
(0.0751113 -0.0396593 0.285985)
(0.219963 0.156139 0.823519)
(0.0156822 0.164931 0.93423)
(-0.0483521 0.180491 0.52387)
(-0.126529 -0.012156 0.0569522)
(-0.0914181 0.0107191 -0.0244495)
(0.00254242 0.0330015 1.19859)
(0.0991371 -0.0132186 0.460835)
(0.156075 0.0403581 0.927261)
(0.0672509 0.0864251 0.883416)
(0.077048 -0.0015333 0.580413)
(0.0375866 -0.0286419 0.159033)
(0.0662236 0.0359403 0.150638)
(0.167382 0.149278 0.313717)
(0.265457 -0.0646876 0.518581)
(-0.0688606 0.00462271 0.590382)
(0.050992 0.075063 0.191318)
(-0.0355999 0.0899608 -0.00883611)
(0.0119729 -0.0148616 -0.0111806)
(0.073384 0.0853004 0.107356)
(0.0102797 0.0763471 0.240315)
(0.046999 0.0407281 -0.0193269)
(0.0215355 0.0113459 0.383628)
(0.018347 0.0061189 0.0199509)
(0.112699 0.0420971 0.214304)
(0.0408508 0.0929994 0.358333)
(-0.0213608 -0.000570132 0.0323352)
(0.0978105 -0.029476 0.246822)
(0.211352 0.126881 0.747818)
(0.0531179 0.139392 0.912474)
(-0.0323048 0.149141 0.535588)
(-0.0970671 -0.0382656 0.0363212)
(-0.0186988 -0.0617143 -0.0317537)
(0.00629456 0.00265367 1.15924)
(0.1431 -0.0186055 0.388927)
(0.143685 0.0560441 0.917177)
(0.0790511 0.0983453 0.910154)
(0.105187 0.0210224 0.617775)
(0.0286967 -0.0263296 0.183636)
(0.0693617 0.00202046 0.157461)
(0.143221 0.128663 0.252975)
(0.239518 -0.0326756 0.529735)
(-0.000596995 0.0384607 0.625172)
(0.0635132 0.0845257 0.293536)
(-0.0618599 0.0794759 0.0387675)
(0.0564375 0.0067239 -0.0222886)
(0.0301163 0.0431121 0.164091)
(0.0084537 0.0896487 0.28192)
(0.0454416 0.0273053 0.0600714)
(-0.0295933 0.0122837 0.409695)
(0.013304 0.0153128 -0.0596949)
(0.0632047 0.102639 0.167703)
(0.0106723 0.11384 0.397041)
(-0.0377458 -0.04415 0.0297803)
(0.0952202 0.00215153 0.20894)
(0.218282 0.0845478 0.750184)
(0.0502564 0.11472 0.922583)
(-0.0116027 0.0621527 0.56975)
(-0.0419115 -0.0894678 0.0210462)
(0.0401046 -0.0990981 -0.0666942)
(0.080026 -0.0194153 0.745667)
(0.153041 0.00967746 0.357225)
(0.132369 0.0477941 0.916555)
(0.0720936 0.0854695 0.932442)
(0.119014 0.0125949 0.643001)
(0.0401166 -0.0426526 0.212164)
(0.0769047 -0.054806 0.101202)
(0.131709 0.0933471 0.199785)
(0.176582 0.0151088 0.560435)
(0.0249899 0.0717761 0.652925)
(0.0825265 0.084246 0.371816)
(-0.0351744 0.0298899 0.0682756)
(-0.015275 0.0276548 0.219251)
(-0.0021326 0.115813 0.32022)
(0.0421674 0.0233476 0.160782)
(-0.0576169 0.00756232 0.414892)
(0.0195596 0.00668993 -0.0940394)
(-0.0124961 0.0867452 0.146509)
(-0.0464795 0.0980123 0.388802)
(-0.0543619 -0.0765387 0.0456083)
(0.0614247 0.0312522 0.159704)
(0.186242 0.0182537 0.776117)
(0.0285568 0.0473054 0.951523)
(0.0326227 -0.0322097 0.543619)
(-0.0249803 -0.0943491 0.0201213)
(0.0325791 0.00882367 0.347011)
(0.131667 0.0104586 0.312646)
(0.1077 0.0102325 0.9097)
(0.0725559 0.0483428 0.937808)
(0.11558 0.0163191 0.63269)
(0.00507423 -0.0234858 0.185316)
(0.10401 0.0408372 0.139845)
(0.0748234 0.0586256 0.590449)
(0.0292906 0.0899614 0.641262)
(0.0948646 0.0825716 0.426026)
(0.00355933 0.0151538 0.0822408)
(-0.0567974 0.0219445 0.274924)
(-0.0225782 0.118229 0.361639)
(0.0324242 0.0143601 0.251895)
(-0.0488861 -0.00369556 0.426276)
(0.0291966 -0.0138895 -0.0798557)
(-0.0525265 -0.0113598 0.168369)
(-0.0803232 -0.00423319 0.389436)
(-0.056514 -0.0682357 0.0899377)
(-0.024282 0.0546472 0.12332)
(0.0391774 -0.0598021 0.782251)
(-0.0140088 -0.0320041 0.939738)
(0.0640921 -0.0744136 0.489579)
(0.0478686 -0.0777063 0.0744068)
(0.00906047 0.0337795 0.224776)
(0.0969243 0.0195861 0.258333)
(0.030487 -0.0262086 0.880131)
(0.0711467 0.0204342 0.905027)
(0.105485 0.0492505 0.616448)
(0.0350163 -0.0205115 0.193278)
(0.0704038 0.014122 0.10562)
(-0.0272588 0.0715888 0.58889)
(0.0146723 0.0917638 0.61179)
(0.0851709 0.0950428 0.459048)
(0.038369 -0.00945564 0.159577)
(-0.0816304 0.0140999 0.330821)
(-0.0544713 0.0900054 0.398987)
(-0.00657447 0.0143191 0.303532)
(-0.0145561 -0.00841349 0.47197)
(0.030855 -0.0289239 -0.0398027)
(-0.0563636 -0.0974032 0.192388)
(-0.0775049 -0.0614345 0.412938)
(-0.0233722 -0.0249119 0.151674)
(-0.0837629 0.0514505 0.120224)
(-0.0530897 -0.0945943 0.736887)
(-0.0781568 -0.0737804 0.839881)
(0.0438871 -0.0537034 0.395365)
(0.0428485 -0.071495 0.143004)
(0.00304705 0.0359558 0.188102)
(0.0266444 0.0654409 0.224305)
(-0.0604738 -0.0246228 0.831968)
(0.0381687 0.031916 0.828434)
(0.057787 0.121393 0.550112)
(0.044152 -0.0173404 0.225177)
(0.0403818 0.00896371 0.116654)
(-0.0767525 0.0409062 0.580159)
(-0.0205238 0.0798863 0.573965)
(0.0522762 0.132109 0.469562)
(0.0448518 -0.0110928 0.248822)
(-0.0895937 0.00715558 0.389198)
(-0.0972459 0.0543561 0.425331)
(-0.0626943 0.0406315 0.329042)
(0.0306098 -0.0123416 0.541099)
(0.0198612 -0.0237573 0.00127783)
(-0.0472608 -0.117682 0.202627)
(0.0069477 -0.0965005 0.47892)
(0.0362155 0.0233142 0.20275)
(-0.0222196 0.0226999 0.153999)
(-0.0441373 -0.0829686 0.693892)
(-0.0886634 -0.0819217 0.746393)
(-0.00621973 0.0147385 0.296344)
(0.00167609 -0.0669733 0.179643)
(0.00279685 0.0467483 0.166744)
(-0.03102 0.0938047 0.243173)
(-0.0820968 -0.00562893 0.790124)
(-0.00289686 0.049736 0.739863)
(0.0151821 0.138969 0.488744)
(0.0377616 -0.0335606 0.248312)
(0.0117298 0.0151283 0.166125)
(-0.0676739 0.00299345 0.582945)
(-0.0348214 0.0645067 0.555042)
(0.00392556 0.151595 0.469854)
(0.0472355 -0.0270255 0.311007)
(-0.0820169 -0.00320242 0.447571)
(-0.119249 0.038218 0.442201)
(-0.0936875 0.0618263 0.359713)
(0.0453435 -0.0073288 0.612703)
(-0.0137627 0.000262162 0.040352)
(-0.0252293 -0.0576261 0.210119)
(0.0826207 -0.107472 0.538692)
(0.0906413 0.0471009 0.240588)
(0.0282667 -0.0397603 0.145747)
(-0.0533253 -0.0217647 0.618526)
(-0.0203698 -0.0647919 0.714106)
(-0.0186002 0.0676286 0.263324)
(-0.0459592 -0.0569062 0.177773)
(0.00532904 0.0445734 0.164746)
(-0.016729 0.102475 0.291527)
(-0.0447372 0.0304546 0.758147)
(0.00333847 0.0549042 0.685195)
(0.00391181 0.13402 0.457146)
(0.02871 -0.0579149 0.255262)
(-0.0129372 0.0214835 0.233802)
(-0.0160487 -0.0125999 0.593915)
(-0.0305086 0.055687 0.553417)
(-0.0182866 0.134584 0.465081)
(0.0496287 -0.0500701 0.317821)
(-0.0692533 -0.0172015 0.489045)
(-0.110413 0.031944 0.456462)
(-0.0881336 0.0658426 0.405373)
(0.02371 -0.00319676 0.637927)
(-0.0384501 0.0223519 0.0799671)
(-0.0448452 0.017994 0.220504)
(0.0686427 -0.0149255 0.579115)
(0.115652 0.0621616 0.250316)
(0.0468767 -0.041188 0.0914999)
(-0.11065 0.0704061 0.517254)
(0.0909436 0.0379058 0.634048)
(-0.0181503 0.08625 0.282027)
(-0.0601904 -0.0445432 0.169703)
(-0.000200695 0.00555034 0.184987)
(0.0109466 0.0844288 0.344796)
(-0.0242864 0.0963364 0.723169)
(0.0469779 0.0894775 0.657035)
(0.00982831 0.134712 0.454844)
(0.0209322 -0.0754373 0.2586)
(-0.0347887 0.0205074 0.312253)
(0.0217894 0.0257902 0.608578)
(-0.0100864 0.0610296 0.565396)
(-0.0161883 0.103509 0.477242)
(0.0512561 -0.067116 0.280838)
(-0.0509128 -0.0184118 0.517701)
(-0.0816536 0.0424516 0.479283)
(-0.0638852 0.0535481 0.442299)
(-0.0165402 -0.00106914 0.600938)
(-0.0367134 0.0303218 0.0925192)
(-0.0451699 0.0633953 0.242863)
(0.0270947 -0.000414723 0.528289)
(0.101761 0.084528 0.230635)
(0.0611526 -0.0483476 0.0914669)
(-0.111229 0.146426 0.443944)
(0.11028 0.171039 0.555992)
(-0.0386047 0.0664652 0.320569)
(-0.0612451 -0.037526 0.157948)
(-0.00723917 -0.0387078 0.215331)
(0.0200323 0.0198201 0.36923)
(-0.0409502 0.163163 0.689118)
(0.0759302 0.146598 0.652422)
(0.0263155 0.120334 0.478705)
(0.0156145 -0.076291 0.268192)
(-0.0493281 0.0058099 0.389364)
(0.0266995 0.0984736 0.629685)
(0.0353664 0.105743 0.602519)
(-0.0130944 0.0889831 0.515401)
(0.0443838 -0.0673347 0.237972)
(-0.0385022 -0.00759142 0.549114)
(-0.0420629 0.0589991 0.52278)
(-0.0205528 0.0330982 0.481815)
(-0.0180341 -0.00218909 0.586025)
(-0.0276505 0.0230397 0.0805355)
(-0.0119675 0.0650226 0.254962)
(0.0180742 0.0998778 0.363475)
(0.0114117 0.0653249 0.237103)
(0.0708645 -0.077663 0.125005)
(-0.0584958 0.172824 0.405802)
(0.0637098 0.214987 0.535009)
(-0.0688308 -0.0235132 0.378267)
(-0.0386407 -0.0235777 0.134365)
(-0.00489612 -0.0500408 0.219355)
(0.0299257 -0.0447051 0.362638)
(-0.0469367 0.202689 0.656543)
(0.0634625 0.19134 0.656593)
(0.0299285 0.0478964 0.504076)
(-0.00263395 -0.0548175 0.284994)
(-0.065871 -0.0152621 0.465683)
(0.0229728 0.149291 0.654058)
(0.0616106 0.1439 0.647059)
(0.000549568 0.0892103 0.571341)
(0.0243468 -0.0545403 0.204436)
(-0.0397835 0.0137677 0.593063)
(-0.00370442 0.0880691 0.589705)
(0.0185537 0.0166673 0.541021)
(0.0465134 0.0327743 0.343383)
(-0.0266293 0.0112234 0.0662437)
(0.0138542 0.0373862 0.252296)
(-0.0198255 0.128161 0.282378)
(-0.0362831 0.0123107 0.235118)
(0.0729057 -0.104351 0.160821)
(-0.00209566 0.148033 0.398196)
(-0.00212221 0.174236 0.533739)
(-0.0861893 -0.0938494 0.409666)
(-0.00681241 -0.00374359 0.109232)
(0.00353256 -0.0595891 0.201064)
(0.0422494 -0.0990028 0.344069)
(-0.0283724 0.202727 0.63095)
(0.0269524 0.198843 0.652486)
(0.00898591 -0.063078 0.487339)
(-0.0213765 -0.0204467 0.292564)
(-0.0830293 -0.0487067 0.531202)
(0.00742909 0.166491 0.672906)
(0.0653788 0.143208 0.696593)
(0.0251457 0.0879162 0.602338)
(0.0105096 -0.0485576 0.178986)
(-0.0461846 0.0363604 0.651197)
(0.0260701 0.0944636 0.665314)
(0.0486834 0.000641879 0.634387)
(0.075894 0.0129854 0.169917)
(-0.0317995 0.00490903 0.0635942)
(0.0176962 -0.00325115 0.254817)
(-0.0980832 0.0765304 0.274032)
(-0.0348588 -0.0121123 0.22256)
(0.0665107 -0.123066 0.190614)
(0.0307177 0.0937211 0.407274)
(-0.0865651 0.104472 0.521931)
(-0.094246 -0.132748 0.40967)
(0.0128524 0.0140752 0.0917054)
(0.0022615 -0.022485 0.154842)
(0.0555921 -0.166583 0.33029)
(-0.0140637 0.172341 0.611539)
(-0.0264666 0.158385 0.650521)
(-0.00688953 -0.135256 0.453002)
(-0.0244272 -0.00898522 0.279748)
(-0.091749 -0.0815373 0.557187)
(-0.0305663 0.155614 0.681775)
(0.0400543 0.0992028 0.72908)
(0.0373296 0.0611659 0.590188)
(0.0131461 -0.0528185 0.166533)
(-0.0485207 0.039569 0.712697)
(0.0126195 0.0816817 0.738323)
(0.0724871 -0.011873 0.73584)
(0.0892981 0.00535461 0.139225)
(-0.0406313 0.00535437 0.0748301)
(0.0227672 -0.0389007 0.273478)
(-0.106893 0.0158169 0.285726)
(-0.0162874 -0.00640835 0.215436)
(0.043194 -0.134729 0.221999)
(0.0406117 0.0134635 0.419281)
(-0.124854 0.0529909 0.522831)
(-0.0916899 -0.147345 0.391744)
(0.0243344 0.0253441 0.0843936)
(-0.00332333 0.00324829 0.135309)
(0.0401287 -0.234753 0.326404)
(-0.037663 0.117061 0.611784)
(-0.0839672 0.0785043 0.659571)
(-0.00934936 -0.160809 0.418475)
(-0.0218878 -0.0121425 0.260402)
(-0.0892109 -0.116385 0.530478)
(-0.106777 0.103437 0.70076)
(-0.0469078 0.0166464 0.699364)
(0.0318272 -0.100997 0.51066)
(0.0145166 -0.0472998 0.164062)
(-0.0427333 0.0319577 0.771568)
(0.0057679 0.0684868 0.781759)
(0.0699158 -0.0338498 0.784034)
(0.103239 0.0038467 0.155432)
(-0.0488207 0.013065 0.0969507)
(0.0303225 -0.0691924 0.306419)
(-0.0661738 -0.0245576 0.319967)
(0.00804086 -0.00372244 0.218863)
(0.0153093 -0.119416 0.258637)
(0.0321896 -0.0843393 0.442083)
(-0.101237 -0.0011228 0.533983)
(-0.075663 -0.137067 0.373825)
(0.0313927 0.0318144 0.0872271)
(-0.00384033 0.0224317 0.153739)
(0.00992339 -0.248147 0.349815)
(-0.0588527 -0.0247506 0.604995)
(-0.0764075 0.022008 0.654747)
(0.00309158 -0.148945 0.394392)
(-0.0164283 -0.0159626 0.246529)
(-0.0546734 -0.15785 0.446632)
(-0.12711 0.0207727 0.727521)
(-0.0891081 -0.00554507 0.632157)
(0.0362662 -0.155967 0.385728)
(0.0129757 -0.0383813 0.163557)
(-0.0257742 0.03917 0.80923)
(-0.0289177 0.0304977 0.792735)
(0.0446609 -0.025175 0.768564)
(0.110712 0.00364059 0.193766)
(-0.0536255 0.0263773 0.119705)
(0.0261336 -0.0927919 0.351214)
(-0.0143063 -0.0490666 0.370246)
(0.0321238 -0.00238121 0.24133)
(-0.0218236 -0.0810213 0.269943)
(0.0155722 -0.162994 0.474561)
(-0.0437996 -0.0519511 0.546123)
(-0.0408177 -0.122185 0.362786)
(0.0370023 0.0380674 0.101186)
(0.00214322 0.0403347 0.186101)
(0.0298682 -0.159185 0.396441)
(-0.0356417 -0.163208 0.578846)
(-0.0109149 -0.0288895 0.617086)
(0.0312414 -0.124297 0.388524)
(-0.00816763 -0.0168099 0.245127)
(-0.00673157 -0.11174 0.374659)
(-0.0574665 -0.100561 0.712549)
(-0.0294403 -0.00960479 0.57054)
(0.0570514 -0.126968 0.325586)
(0.0140148 -0.0342761 0.173333)
(-0.0331336 0.0173556 0.864241)
(-0.111015 0.0251684 0.78142)
(0.0244324 -0.0209783 0.534663)
(0.108164 0.00434906 0.241523)
(-0.0540266 0.0366142 0.135784)
(0.0108564 -0.101907 0.400635)
(0.0200887 -0.0624208 0.423482)
(0.0557219 0.00893886 0.281775)
(-0.0463496 -0.0430766 0.242498)
(0.00334268 -0.188133 0.511278)
(-0.00500524 -0.0828148 0.556783)
(-0.0160858 -0.109386 0.367419)
(0.0407745 0.0482033 0.126969)
(0.00608363 0.0454912 0.215463)
(0.0490254 -0.00444409 0.423388)
(-0.00616359 -0.207719 0.554127)
(0.0420463 -0.0775732 0.578429)
(0.0475997 -0.109443 0.405084)
(0.00216852 -0.011887 0.261746)
(0.0189296 -0.0344954 0.349015)
(0.0478256 -0.179177 0.610896)
(0.0781688 -0.0613646 0.473608)
(0.0760285 -0.128701 0.299817)
(0.0147222 -0.0337593 0.203407)
(-0.0107784 0.0157874 0.884736)
(-0.0936889 0.0462715 0.779416)
(0.112968 -0.0294553 0.416528)
(0.0985814 0.00541682 0.289703)
(-0.0501831 0.0356981 0.151676)
(0.0100104 -0.0873156 0.442052)
(0.0326075 -0.0654879 0.467975)
(0.074566 0.0280296 0.319722)
(-0.0463376 0.00472388 0.210494)
(-0.000338842 -0.164072 0.547069)
(0.00663328 -0.0914697 0.569758)
(-0.00425642 -0.0898208 0.38211)
(0.0422284 0.060579 0.159359)
(-0.000447427 0.0290013 0.262417)
(-0.0112992 0.0277358 0.386104)
(0.000839997 -0.201195 0.548164)
(0.0482547 -0.101777 0.559186)
(0.0443532 -0.088519 0.436166)
(0.00565085 -0.00138741 0.292152)
(0.0241303 -0.00438109 0.336844)
(0.106793 -0.142776 0.501043)
(0.109999 -0.101129 0.423805)
(0.0789973 -0.139346 0.316021)
(0.0140914 -0.0307478 0.249981)
(0.00715002 -0.0576298 0.81944)
(0.0895805 0.0177185 0.742123)
(0.194166 -0.0828013 0.416081)
(0.0821695 0.00598228 0.337839)
(-0.0425634 0.0324794 0.163077)
(0.032474 -0.069867 0.466283)
(0.0304369 -0.0738734 0.498985)
(0.0823904 0.0441155 0.334984)
(-0.0337601 0.0389893 0.190993)
(0.00387832 -0.117295 0.588115)
(0.00154006 -0.0917628 0.579066)
(0.00405515 -0.066907 0.402163)
(0.0421748 0.0740709 0.196643)
(-0.00155126 0.0176722 0.320685)
(-0.0395674 0.0317983 0.331082)
(0.00680084 -0.159557 0.540856)
(0.0419466 -0.102937 0.552541)
(0.0369783 -0.0632661 0.468081)
(0.00589871 0.00983636 0.327213)
(0.032016 0.0248207 0.312152)
(0.116985 -0.0643603 0.435935)
(0.100181 -0.108667 0.416258)
(0.0777961 -0.121648 0.363635)
(0.0102267 -0.0224202 0.299497)
(0.0492312 -0.0620528 0.620007)
(0.235922 -0.0449078 0.623214)
(0.181174 -0.105326 0.432871)
(0.054698 0.0053647 0.39022)
(-0.0297238 0.0293932 0.164941)
(0.0480979 -0.0544944 0.483216)
(0.021513 -0.086295 0.514489)
(0.0870743 0.0607267 0.32501)
(-0.0270933 0.0648326 0.184645)
(0.0276942 -0.0975354 0.599554)
(-0.00424816 -0.0874799 0.583857)
(0.0193957 -0.0403612 0.424947)
(0.0408326 0.0848298 0.240493)
(0.0015452 0.023029 0.346133)
(-0.00325463 0.0464177 0.308026)
(0.0564434 -0.0533965 0.51388)
(0.0448252 -0.090595 0.551361)
(0.0369213 -0.0458444 0.489741)
(0.00825638 0.0173976 0.365124)
(0.0440173 0.0461985 0.290755)
(0.109198 -0.0313543 0.418799)
(0.0946056 -0.0861372 0.422881)
(0.0807126 -0.0733617 0.405322)
(0.00398132 -0.00954204 0.343631)
(0.0317512 -0.0637122 0.510358)
(0.076061 -0.0609501 0.559296)
(0.0716805 -0.0417963 0.390604)
(0.0174557 -0.000574549 0.44366)
(-0.0294762 0.0305995 0.160982)
(0.0131901 -0.0309253 0.492597)
(0.0207191 -0.0836233 0.526986)
(0.086356 0.0604806 0.299454)
(-0.0244864 0.0853735 0.180783)
(0.0752408 -0.0715699 0.575798)
(-0.0103447 -0.079909 0.58562)
(0.0434931 -0.00293376 0.444792)
(0.0377824 0.08966 0.296918)
(0.00513468 0.0339005 0.333011)
(0.0212754 0.055361 0.306413)
(0.109631 0.0293159 0.487567)
(0.0664591 -0.0522682 0.556183)
(0.0367939 -0.0363338 0.505976)
(0.0145746 0.0212473 0.406392)
(0.0520802 0.0313715 0.284233)
(0.110389 -0.0166064 0.428556)
(0.0988531 -0.034786 0.434514)
(0.082312 -0.0279109 0.430744)
(-0.00316253 0.00586733 0.382412)
(-0.0560257 -0.0807106 0.455087)
(-0.00761323 -0.0440738 0.470581)
(0.00929581 0.00585521 0.373031)
(-0.0224883 -0.00521969 0.472562)
(-0.0414005 0.0354027 0.159399)
(-0.0518551 -0.0101525 0.470403)
(0.02016 -0.0618723 0.551081)
(0.0789606 0.0420361 0.26639)
(-0.0177028 0.0892358 0.173011)
(0.091533 -0.0192983 0.549049)
(-0.0267191 -0.0627537 0.5883)
(0.067706 0.0384183 0.463238)
(0.0283126 0.075811 0.371956)
(0.00685636 0.0533418 0.29985)
(0.0251755 0.0519628 0.30923)
(0.123026 0.0698022 0.471896)
(0.0653608 -0.0273865 0.565174)
(0.032281 -0.0207061 0.525515)
(0.021132 0.0239824 0.447475)
(0.0444558 -0.00384007 0.300494)
(0.108653 0.0135475 0.440455)
(0.0809377 -0.00217509 0.448956)
(0.0647867 0.000143817 0.455823)
(-0.00770836 0.0182441 0.411878)
(-0.0828885 -0.0667958 0.407489)
(-0.0250624 -0.010575 0.409583)
(-0.0269515 0.0242631 0.375045)
(-0.0310796 -0.00541116 0.471559)
(-0.0463353 0.0419151 0.161428)
(-0.0803847 0.00144187 0.43493)
(-0.0414811 -0.0513454 0.561375)
(0.0692681 0.034581 0.229077)
(-0.0180585 0.0761285 0.168771)
(0.0361903 0.059926 0.531336)
(-0.0241457 -0.0287381 0.590212)
(0.0821042 0.0738548 0.48474)
(0.0117229 0.0332929 0.44982)
(0.00729436 0.0512191 0.277175)
(0.0363762 0.0290685 0.310836)
(0.0936276 0.101213 0.470552)
(0.0375498 0.00774602 0.572848)
(0.0325781 0.00935418 0.542161)
(0.0245857 0.0221192 0.485947)
(0.0241828 -0.0337986 0.323754)
(0.0768335 0.0619313 0.455833)
(0.048377 0.0194309 0.471137)
(0.038959 0.0170119 0.480029)
(-0.00627089 0.0218802 0.433404)
(-0.0744898 -0.0347879 0.387354)
(-0.0377202 0.00456089 0.391757)
(-0.0456387 0.0303657 0.374251)
(-0.0177827 -0.0109195 0.474415)
(-0.041793 0.041246 0.164291)
(-0.0804714 0.0302609 0.396923)
(-0.0311228 -0.052441 0.521878)
(0.0412575 0.0431489 0.211032)
(-0.0193665 0.0558775 0.175727)
(-0.034864 0.145064 0.491168)
(0.0172142 0.0453473 0.563871)
(0.0836914 0.104498 0.493977)
(0.00681714 -0.00406691 0.499222)
(0.00461791 0.0326242 0.262214)
(0.0419796 0.00282977 0.311117)
(0.0300955 0.146807 0.487389)
(0.0202758 0.0643188 0.572559)
(0.040047 0.0432845 0.554079)
(0.0285612 0.0173701 0.520426)
(-0.00227968 -0.0527349 0.34039)
(0.0282183 0.105043 0.479454)
(0.0260379 0.0415648 0.498765)
(0.0231117 0.0361891 0.503814)
(0.00234573 0.0167902 0.457544)
(-0.0649267 2.42591e-05 0.398701)
(-0.037282 0.0106498 0.400594)
(-0.0488948 0.0308385 0.373012)
(0.0115408 -0.000230565 0.503942)
(-0.0318058 0.0320744 0.164301)
(-0.0523873 0.0550845 0.355294)
(0.0169926 0.0109948 0.39577)
(0.00816814 0.0468831 0.208613)
(-0.012039 0.0340923 0.188696)
(-0.0522473 0.176802 0.441181)
(0.0583734 0.126901 0.49782)
(0.0715333 0.119741 0.490894)
(0.00827934 -0.0273109 0.524154)
(0.000631837 0.0144479 0.258389)
(0.0378405 -0.0183021 0.316658)
(-0.00726035 0.16216 0.513978)
(0.0217732 0.106666 0.572531)
(0.0398565 0.0622957 0.571305)
(0.034833 0.0119338 0.550762)
(-0.0277916 -0.064482 0.351091)
(-0.0035984 0.12594 0.506641)
(0.0176379 0.0638868 0.529704)
(0.016326 0.0511546 0.531448)
(0.0135007 0.00930983 0.494705)
(-0.0629727 0.0177932 0.430188)
(-0.0250896 0.0207424 0.4339)
(-0.0412001 0.0285377 0.375457)
(0.0190299 0.0105097 0.451463)
(-0.0223965 0.0208749 0.162654)
(-0.0370453 0.0647043 0.314064)
(-0.00708833 0.069042 0.31616)
(-0.0191515 0.0342676 0.214704)
(0.00443552 0.0164824 0.196757)
(-0.0270033 0.161692 0.412281)
(0.0566542 0.139809 0.442878)
(0.0456206 0.108691 0.490146)
(-0.0143324 -0.0594298 0.533995)
(-0.00190845 0.00284831 0.26446)
(0.0312273 -0.029279 0.331131)
(-0.0108129 0.155374 0.532459)
(0.0231776 0.117841 0.58117)
(0.0268935 0.0616949 0.592225)
(0.0335831 0.000713477 0.570121)
(-0.0418739 -0.0730561 0.363129)
(-0.00928713 0.127533 0.529935)
(0.0121472 0.0791215 0.562208)
(0.0131111 0.053781 0.561077)
(0.0196997 0.00234042 0.540209)
(-0.0592162 0.0156459 0.469759)
(-0.0129064 0.0318343 0.479184)
(-0.0145135 0.0204403 0.390503)
(0.0120399 0.00973449 0.319797)
(-0.0149239 0.0114459 0.161741)
(-0.0292448 0.0527846 0.28574)
(-0.0313496 0.0644271 0.275963)
(-0.0359284 0.0132474 0.220389)
(0.0206637 0.00685684 0.197419)
(0.0435838 0.107416 0.38822)
(0.0314908 0.111005 0.419757)
(-0.0258911 0.0521454 0.501254)
(-0.0648282 -0.0916329 0.513557)
(-0.003338 -0.00569801 0.277486)
(0.0230761 -0.0294814 0.355206)
(0.00186335 0.149326 0.532992)
(0.019046 0.117665 0.586961)
(0.0133212 0.0468228 0.606348)
(0.0201004 -0.0342327 0.563602)
(-0.0418119 -0.0742365 0.377898)
(-0.00520469 0.105789 0.553645)
(0.0018391 0.086031 0.591636)
(0.00841732 0.0420057 0.590185)
(0.0343466 -0.0316511 0.570588)
(-0.0589563 -0.00810879 0.496212)
(-0.00932615 0.0438005 0.528937)
(0.0142037 0.0128849 0.416737)
(0.0143461 0.00362554 0.249015)
(-0.0109395 0.00721034 0.162598)
(-0.0232048 0.0289776 0.270512)
(-0.051577 0.0429135 0.259959)
(-0.0441792 0.00160621 0.22632)
(0.0337628 0.00388865 0.19639)
(0.0878101 0.0697261 0.376212)
(-0.00754077 0.0796247 0.429926)
(-0.0823346 0.0128866 0.509999)
(-0.0919172 -0.0946415 0.453053)
(-0.00525899 -0.0156203 0.294058)
(0.00722649 -0.0223946 0.380359)
(0.027387 0.117647 0.523996)
(0.00557163 0.110086 0.588297)
(0.00636827 0.0126002 0.614398)
(-0.000685426 -0.0895695 0.538099)
(-0.0358419 -0.0649456 0.392383)
(-0.0125117 0.0464978 0.589088)
(-0.00970217 0.0844591 0.617539)
(0.000517934 0.0212641 0.604213)
(0.0425717 -0.0636586 0.573071)
(-0.0706802 -0.0358767 0.488269)
(-0.0126835 0.0437335 0.574407)
(0.0373565 -0.00454302 0.435913)
(0.0214112 0.00178208 0.216745)
(-0.0114409 0.00925021 0.165932)
(-0.0196744 0.00288594 0.269006)
(-0.0551984 0.022757 0.260507)
(-0.0420935 0.000271184 0.230974)
(0.0438065 0.00492662 0.199311)
(0.0973555 0.0459847 0.368126)
(-0.0544302 0.0626613 0.455215)
(-0.103682 -0.00210986 0.509626)
(-0.0628231 -0.0545412 0.384159)
(-0.00756731 -0.0300361 0.310006)
(-0.0120438 -0.00670599 0.399449)
(0.032825 0.0463596 0.53752)
(-0.00843921 0.0972799 0.592901)
(0.000720674 -0.0241606 0.628548)
(-0.018855 -0.083697 0.509648)
(-0.0306803 -0.0466556 0.40073)
(-0.0322502 -0.0188177 0.614267)
(-0.0135286 0.0660565 0.645442)
(0.00205193 -0.012102 0.598797)
(0.0137702 -0.0629658 0.527527)
(-0.0820171 -0.0438294 0.463296)
(-0.0375737 0.00987393 0.58429)
(0.0494952 -0.0216032 0.422671)
(0.0294377 0.00216232 0.202487)
(-0.016464 0.0163223 0.172452)
(-0.0207961 -0.0122102 0.272277)
(-0.0395309 0.00779243 0.274274)
(-0.0302732 0.00592381 0.22932)
(0.0444128 0.0070961 0.210257)
(0.0824082 0.0318586 0.375318)
(-0.0926645 0.0452743 0.4802)
(-0.106102 -0.0198917 0.492124)
(-0.0363711 -0.0563727 0.297689)
(-0.00929382 -0.0475787 0.321861)
(-0.0180129 0.00801424 0.412324)
(0.024378 -0.0148562 0.56247)
(-0.00391372 0.0916564 0.599805)
(-0.0109972 -0.0364942 0.650642)
(-0.0312541 -0.0377548 0.480223)
(-0.0289596 -0.0284196 0.403669)
(-0.0503729 -0.0633321 0.61707)
(-0.00821962 0.0283827 0.672773)
(0.00818355 -0.0447813 0.595007)
(-0.0134877 -0.0123355 0.427248)
(-0.0729722 -0.0360204 0.442201)
(-0.0529692 -0.0200675 0.530746)
(0.0356587 -0.0185128 0.400245)
(0.0306117 0.00250678 0.198819)
(-0.0225603 0.0233994 0.183438)
(-0.0281261 -0.0143098 0.276394)
(-0.0180873 -0.00705677 0.294761)
(-0.00633235 0.0144167 0.222255)
(0.0342032 0.0061453 0.23321)
(0.0399645 0.00911394 0.401645)
(-0.100856 0.016146 0.501245)
(-0.102563 -0.0498217 0.458489)
(-0.0204271 -0.0438672 0.2393)
(-0.0091035 -0.0592563 0.330402)
(-0.0170623 0.01208 0.420764)
(0.0211578 -0.0419506 0.582236)
(0.0122531 0.0696822 0.620337)
(-0.0249592 -0.0329356 0.65749)
(-0.00801467 -0.00641824 0.447907)
(-0.0321795 -0.0180783 0.403011)
(-0.0617043 -0.0816362 0.60061)
(-0.00110894 -0.0142885 0.684712)
(0.0098735 -0.0484444 0.596293)
(-0.0124409 0.0253679 0.382575)
(-0.0433156 -0.0207838 0.425185)
(-0.0315067 -0.0103105 0.464546)
(0.00575452 -0.00588467 0.385869)
(0.0148268 0.000359114 0.203041)
(-0.0232739 0.0248253 0.200336)
(-0.0391612 -0.00629581 0.28075)
(-0.0102802 -0.0230234 0.313612)
(0.0185685 0.0193677 0.217207)
(0.0224924 0.00058892 0.263933)
(0.00732663 -0.00412907 0.417248)
(-0.0689521 -0.0126408 0.517846)
(-0.0913743 -0.0634716 0.439299)
(-0.00473001 -0.00626385 0.23377)
(-0.00769457 -0.0610442 0.33585)
(-0.0139438 4.94067e-06 0.430195)
(0.0162311 -0.0441955 0.60058)
(0.00799464 0.0283436 0.648003)
(-0.035038 -0.0222195 0.645082)
(-0.0139686 -0.00491961 0.403749)
(-0.036934 -0.020175 0.39764)
(-0.0647002 -0.0748863 0.578934)
(0.00176326 -0.036131 0.673807)
(0.0108899 -0.0414875 0.594597)
(-0.0301801 0.0514706 0.354941)