/*--------------------------------*- C++ -*----------------------------------*\
| =========                 |                                                 |
| \\      /  F ield         | OpenFOAM: The Open Source CFD Toolbox           |
|  \\    /   O peration     | Version:  5.x                                   |
|   \\  /    A nd           | Web:      www.OpenFOAM.org                      |
|    \\/     M anipulation  |                                                 |
\*---------------------------------------------------------------------------*/
FoamFile
{
    version     2.0;
    format      ascii;
    class       volScalarField;
    location    "3";
    object      p;
}
// * * * * * * * * * * * * * * * * * * * * * * * * * * * * * * * * * * * * * //

dimensions      [0 2 -2 0 0 0 0];

internalField   nonuniform List<scalar> 
10571
(
125.063
152.582
143.29
125.248
127.408
155.577
139.523
132.3
130.166
144.405
169.416
154.412
142.9
137.495
139.868
151.466
145.215
141.371
139.095
140.87
140.796
142.255
171.403
139.538
123.346
117.649
121.26
118.694
123.412
121.743
119.932
124.421
99.4243
108.085
120.734
124.883
125.551
131.886
89.9572
105.138
121.849
129.084
125.026
124.599
104.376
138.506
132.961
127.905
111.046
112.766
107.929
111.636
119.798
106.808
103.837
100.016
86.0934
90.4014
113.139
114.379
103.847
95.7112
78.5
92.557
114.231
115.065
116.702
100.872
97.6404
118.347
114.194
115.745
98.2923
92.1344
98.7173
101.158
83.0648
86.9739
92.7418
83.8169
71.0774
67.8928
94.6579
94.05
80.3884
72.5384
70.1602
71.6232
91.731
91.2725
100.676
86.4765
85.4355
80.4072
93.8394
97.7468
72.1943
41.7855
85.8314
83.8518
41.445
38.6074
80.3688
67.6432
51.2413
53.5031
38.5303
50.855
70.0177
63.8724
58.0015
54.1887
45.0073
56.6449
66.0026
62.8594
57.5518
43.8148
61.1367
68.0851
35.3448
34.1305
35.3341
33.2903
37.2477
33.6798
38.2693
38.8138
37.1601
41.7303
38.5515
36.3951
33.7916
55.5052
52.2324
41.4192
39.3312
38.9604
39.4725
37.4074
37.9914
33.3367
35.432
37.7428
35.6055
37.4125
34.6179
34.2294
34.5054
34.7315
35.4067
33.908
31.9921
32.4506
34.2444
35.5272
35.6184
34.7165
33.7625
34.4759
34.6132
33.2003
35.7362
35.5278
33.614
33.6563
34.2114
34.3787
34.781
35.5678
35.4485
34.6835
34.4759
34.4987
34.2219
34.2137
34.3086
34.837
34.0342
34.9209
34.7323
35.0439
35.978
35.6666
34.3635
33.9084
34.1541
33.7259
34.3289
35.8455
35.627
33.7751
33.7201
34.0644
34.3554
35.1172
35.6109
34.4078
34.489
34.3915
34.4725
34.2491
34.2235
34.3616
34.6171
34.1265
34.3591
34.3407
35.0603
35.5389
35.6619
34.2984
34.0711
34.6132
34.3146
34.6486
35.4093
35.663
33.9747
33.9823
34.2098
34.1431
34.2737
34.3811
34.5366
34.2692
34.3753
34.2757
34.2383
34.3254
34.4776
34.1358
34.26
34.3072
34.6705
34.5734
34.3113
34.135
34.4118
34.1751
34.2745
34.6138
34.1011
34.1967
34.1215
33.9126
34.1912
34.488
34.4635
34.1599
34.3892
34.2924
34.269
34.2691
34.3453
34.1541
34.2607
34.2778
34.3801
34.4296
34.2639
34.1945
34.3296
34.0934
34.0659
34.0814
34.1703
34.2801
34.0708
33.9047
34.2522
34.4774
34.3669
34.143
34.4387
34.3023
34.2909
34.286
34.1695
34.2027
34.2693
34.1744
34.2309
34.3246
34.2459
34.1972
34.3096
34.0428
34.099
33.9481
34.1383
34.261
34.0776
34.0333
34.3891
34.286
34.2877
34.2261
34.4002
34.3241
34.2859
34.2305
34.2729
34.2789
34.2939
34.074
34.2988
34.3552
34.1743
34.0895
34.3104
34.0351
34.2199
34.0754
34.0139
34.1772
34.1984
34.3666
34.6923
34.0817
34.2471
34.3774
34.3212
34.3674
34.3255
34.1611
34.3587
34.3051
34.3032
34.0029
34.4261
34.498
34.0687
33.979
34.3116
34.0935
34.3683
34.4442
33.9549
34.035
34.3031
34.5338
34.634
33.9866
34.1991
34.4431
34.316
34.4091
34.4381
34.2459
34.2616
34.272
34.3132
33.9709
34.4433
34.5641
33.9455
33.9909
34.3237
34.1663
34.303
34.4706
33.9384
33.9241
34.2884
34.3704
34.4403
33.9054
34.1646
34.381
34.3988
34.4275
34.5231
34.3908
34.2492
34.2197
34.3571
34.0065
34.4309
34.5609
33.9734
34.0208
34.3881
34.2297
34.2773
34.5368
34.0415
33.9214
34.2625
34.3182
34.4266
33.8371
34.2211
34.3681
34.5252
34.4163
34.5552
34.5074
34.4153
34.1118
34.434
34.1346
34.4784
34.5404
34.1788
34.1891
34.557
34.3251
34.4312
34.6473
34.3673
34.0998
34.3585
34.4066
34.5583
33.8972
34.4047
34.4875
34.6814
34.4184
34.6239
34.6087
34.6626
33.9065
34.5615
34.273
34.5844
34.5943
34.566
34.7705
34.7619
34.5056
34.8566
34.8395
34.7803
34.6229
34.5784
34.7355
34.769
34.5584
34.6726
34.7142
34.8576
34.5671
34.7697
34.699
34.8909
34.3239
34.7667
34.4371
34.7061
34.7123
34.8017
34.9457
34.9501
34.7247
35.1948
34.9966
34.1273
35.0964
34.8156
34.9469
34.9299
35.2129
34.941
34.9129
35.0572
34.9241
34.9937
34.8552
35.1046
34.7882
34.9727
34.7234
34.8629
34.8377
34.9309
34.8577
35.0785
34.8886
35.1391
35.0382
34.5422
35.2431
35.0255
35.0542
35.0281
35.3907
35.1082
35.0499
35.2741
35.3715
35.2435
35.1161
35.3084
35.3332
35.182
35.0384
35.1391
34.9816
35.2773
35.1375
35.1706
35.0091
35.0358
35.0815
35.1381
35.2961
35.1561
35.1333
35.1096
35.3397
35.197
35.1475
35.4855
35.5456
35.4225
35.4197
35.5538
35.6477
35.3356
35.3122
35.5041
35.199
35.4196
35.3645
35.2639
35.1537
35.1239
35.1844
35.3086
35.3138
35.2269
35.2069
35.1949
35.3271
35.2438
35.2078
35.5994
35.5585
35.492
35.5638
35.6858
35.6285
35.4093
35.4846
35.6996
35.4567
35.4153
35.4298
35.3202
35.2804
35.3096
35.3152
35.3243
35.3127
35.2656
35.2729
35.2733
35.321
35.2742
35.2338
35.5941
35.5132
35.4786
35.5509
35.6706
35.5297
35.4014
35.4943
35.6937
35.5693
35.3916
35.4173
35.3355
35.3185
35.4009
35.3973
35.2984
35.2864
35.2693
35.3131
35.3378
35.302
35.2658
35.2569
35.5245
35.4534
35.4212
35.4818
35.5908
35.4523
35.3372
35.4308
35.6044
35.5471
35.3504
35.3999
35.3101
35.3111
35.3751
35.4215
35.3001
35.2596
35.2444
35.2944
35.3562
35.2592
35.2313
35.2502
35.4464
35.4083
35.3767
35.4045
35.5018
35.397
35.2669
35.3622
35.5033
35.509
35.2975
35.3471
35.2419
35.2879
35.3286
35.4102
35.3236
35.2418
35.2186
35.261
35.355
35.2289
35.2045
35.2468
35.3774
35.3906
35.3491
35.3284
35.4311
35.3851
35.2634
35.3343
35.4335
35.4776
35.2886
35.2603
35.1788
35.2623
35.3096
35.3989
35.3461
35.1998
35.2007
35.2551
35.3661
35.2124
35.187
35.2631
35.3364
35.4002
35.355
35.2723
35.3959
35.4312
35.3125
35.3367
35.412
35.4734
35.3207
35.1907
35.1224
35.2562
35.3236
35.4079
35.3348
35.1362
35.1879
35.2828
35.4002
35.194
35.1952
35.3032
35.3429
35.4294
35.4307
35.2807
35.4123
35.3861
35.35
35.3568
35.4174
35.484
35.3271
35.1654
35.1117
35.272
35.3701
35.4381
35.2921
35.1442
35.1937
35.3312
35.4532
35.2076
35.2422
35.3746
35.3869
35.3885
35.4699
35.3739
35.4573
35.2548
35.3496
35.3817
35.4336
35.5057
35.2352
35.1304
35.1309
35.3299
35.4274
35.48
35.2191
35.1929
35.2894
35.3916
35.511
35.2514
35.3178
35.4725
35.4263
35.318
35.4386
35.4219
35.4963
35.0778
35.2793
35.4168
35.4525
35.5255
35.047
34.9248
35.1138
35.4005
35.4803
35.5161
35.1819
35.2084
35.4157
35.4645
35.5563
35.4537
35.4486
35.5283
35.4521
35.2108
35.3772
35.4248
35.5204
34.7665
35.2376
35.4596
35.4752
35.5439
34.9413
34.7221
35.3435
35.4694
35.5224
35.5461
35.3669
35.5062
35.5111
35.518
35.5821
35.7004
35.5469
35.5393
35.4805
34.9751
35.3009
35.4447
35.5421
34.3617
35.2417
35.4826
35.4974
35.5637
34.9621
34.9827
35.5431
35.5244
35.5557
35.5649
36.1576
35.6912
35.5693
35.5674
35.6002
35.7527
35.5962
35.5818
35.5263
34.8246
35.3255
35.4945
35.5754
34.295
35.209
35.4954
35.5245
35.5927
35.1783
35.1987
35.5271
35.5537
35.5794
35.591
36.3679
35.6709
35.5976
35.6047
35.623
35.7513
35.6233
35.61
35.5919
34.9693
35.4207
35.567
35.625
34.4
35.2723
35.5256
35.5787
35.6384
34.6615
34.4798
35.4318
35.5726
35.6167
35.6336
35.7501
35.6224
35.6344
35.6368
35.6581
35.6987
35.6306
35.6341
35.6695
35.3018
35.5678
35.6472
35.6915
34.5165
35.4414
35.6119
35.6494
35.6967
34.0782
33.8047
35.4696
35.6129
35.6663
35.6856
35.4357
35.6354
35.6689
35.6826
35.6969
35.6844
35.6604
35.6676
35.7461
35.7831
35.747
35.719
35.7544
35.5711
35.7382
35.7306
35.7189
35.757
36.238
35.3258
35.6738
35.6728
35.7188
35.7312
35.6187
35.706
35.7253
35.7212
35.7323
35.7254
35.7069
35.7088
35.8048
36.0988
35.8559
35.7803
35.8031
36.418
35.888
35.8006
35.7595
35.8044
37.3331
36.6308
35.8145
35.7163
35.7406
35.7599
35.924
35.7617
35.7727
35.7479
35.7825
35.7733
35.7412
35.7567
35.8382
36.1026
35.8765
35.8361
35.8339
36.2998
35.8813
35.822
35.7646
35.8287
36.7313
36.4174
35.8907
35.7395
35.7211
35.7827
35.9762
35.7775
35.771
35.7604
35.7904
35.7964
35.7532
35.764
35.8428
35.996
35.8581
35.8553
35.8439
36.0796
35.8452
35.8028
35.755
35.8304
36.3019
36.1503
35.8795
35.7549
35.7092
35.777
35.9103
35.7744
35.7482
35.7464
35.7672
35.7996
35.7498
35.7513
35.8274
35.8826
35.7536
35.838
35.8312
35.9178
35.7781
35.7472
35.7294
35.8056
36.046
35.9635
35.7953
35.738
35.689
35.7616
35.8133
35.7526
35.7193
35.7237
35.742
35.7841
35.7402
35.7333
35.7978
35.7903
35.6842
35.7947
35.8023
35.8043
35.7009
35.6854
35.6885
35.7778
35.8786
35.8253
35.6967
35.6859
35.6859
35.7469
35.7253
35.7104
35.6847
35.7026
35.7176
35.7539
35.7235
35.7189
35.7653
35.7376
35.6876
35.7551
35.7695
35.7254
35.6634
35.6651
35.6559
35.7722
35.7674
35.7293
35.6307
35.7303
35.7198
35.7626
35.6503
35.6692
35.6626
35.7007
35.7274
35.7032
35.7088
35.7033
35.7357
35.6937
35.6632
35.7175
35.7405
35.6645
35.6692
35.6657
35.6407
35.7714
35.6935
35.6395
35.6359
35.829
35.7263
35.777
35.5947
35.6422
35.6775
35.7084
35.7571
35.6744
35.7144
35.699
35.7163
35.6731
35.6299
35.6903
35.7195
35.6442
35.6847
35.6985
35.6491
35.7573
35.6568
35.5602
35.6292
35.8302
35.7078
35.757
35.5637
35.6367
35.6903
35.7065
35.756
35.6693
35.7173
35.7011
35.7055
35.672
35.65
35.683
35.7028
35.6501
35.7015
35.7374
35.6601
35.7416
35.6587
35.5333
35.6123
35.7585
35.6828
35.7375
35.5618
35.6505
35.695
35.7042
35.7351
35.6779
35.7165
35.7128
35.7022
35.6784
35.7313
35.6939
35.6962
35.6568
35.737
35.7404
35.6655
35.7189
35.6848
35.5615
35.5903
35.7065
35.6666
35.7066
35.5863
35.6694
35.7004
35.7049
35.724
35.6898
35.7192
35.7345
35.6981
35.6894
35.6956
35.6785
35.6898
35.6944
35.7377
35.748
35.6818
35.6996
35.7131
35.5887
35.5526
35.6835
35.6571
35.6811
35.6121
35.6814
35.6977
35.7082
35.7156
35.6965
35.7113
35.7491
35.6907
35.7106
35.6573
35.6679
35.686
35.7315
35.7297
35.7516
35.7035
35.6861
35.7348
35.6193
35.5189
35.6626
35.6485
35.6717
35.6468
35.6939
35.6893
35.7038
35.7157
35.6939
35.704
35.7426
35.6855
35.7306
35.6644
35.6759
35.6817
35.7397
35.7136
35.71
35.6922
35.6708
35.7217
35.6205
35.5099
35.6305
35.6412
35.6739
35.6891
35.698
35.6739
35.6873
35.7056
35.6926
35.6969
35.7302
35.6833
35.725
35.6717
35.6817
35.6724
35.6996
35.664
35.6434
35.6564
35.6546
35.6909
35.617
35.5186
35.6049
35.6219
35.6691
35.7095
35.686
35.6549
35.6579
35.6932
35.6918
35.6875
35.713
35.6743
35.7084
35.675
35.6655
35.6572
35.6634
35.6221
35.5813
35.6348
35.6412
35.6829
35.6224
35.535
35.5834
35.5911
35.655
35.7215
35.67
35.6339
35.621
35.6767
35.6892
35.6752
35.691
35.6531
35.6907
35.6711
35.6429
35.6324
35.662
35.602
35.5128
35.6088
35.6059
35.6925
35.6356
35.5507
35.554
35.5422
35.615
35.7278
35.6564
35.6088
35.5799
35.6454
35.6851
35.6592
35.6668
35.6187
35.674
35.6493
35.5922
35.5928
35.6598
35.5792
35.4516
35.5264
35.5079
35.6922
35.6355
35.5755
35.5155
35.4419
35.5338
35.7163
35.6413
35.5822
35.5233
35.5826
35.6829
35.6438
35.6408
35.5853
35.6623
35.6233
35.546
35.5332
35.6376
35.554
35.4081
35.3677
35.3782
35.7058
35.6477
35.5978
35.4788
35.3278
35.4207
35.702
35.6304
35.5684
35.4608
35.4865
35.6873
35.6388
35.6206
35.5773
35.6603
35.6125
35.5295
35.4741
35.6266
35.521
35.3657
35.238
35.2932
35.6971
35.644
35.6102
35.4629
35.2707
35.3307
35.6965
35.6354
35.5746
35.421
35.4058
35.7071
35.6583
35.623
35.6268
35.6783
35.6343
35.5598
35.5092
35.5992
35.4854
35.3636
35.1986
35.3238
35.6716
35.6383
35.6009
35.4885
35.3289
35.3315
35.7084
35.6656
35.6253
35.4275
35.3928
35.7516
35.7069
35.6575
35.7896
35.7265
35.69
35.6884
35.7029
35.6032
35.4724
35.3675
35.2682
35.5052
35.669
35.6427
35.6282
35.5542
35.4217
35.3784
35.7552
35.7231
35.7042
35.4944
35.4388
35.8189
35.7816
35.7253
36.1773
35.7985
35.8108
35.9524
36.2485
35.6444
35.4694
35.3714
35.4629
35.7554
35.7129
35.6668
35.6772
35.6461
35.5182
35.4248
35.8341
35.8059
35.7931
35.6008
35.5014
35.9058
35.8625
35.8047
36.8851
35.9283
36.0957
36.4292
37.1714
35.6799
35.4591
35.5092
35.7284
36.1439
35.8161
35.7122
35.7152
35.678
35.5682
35.3619
35.9478
35.8709
35.851
35.6842
35.4969
35.9926
35.9241
35.845
37.8733
36.2047
36.6167
37.2396
38.1365
35.6998
35.5156
35.6692
35.6718
36.1411
35.9863
35.777
35.6714
35.5426
35.1464
34.6963
36.0583
35.8859
35.7952
35.5667
35.181
36.0178
35.8889
35.7575
38.696
36.3336
37.5294
37.7797
37.9476
35.6098
35.3552
35.3378
34.9448
34.9017
36.1498
35.8249
35.5142
35.1531
34.2311
32.5558
36.0557
35.8095
35.5761
35.1794
34.1111
35.9543
35.7496
35.5095
38.7713
34.7423
36.7849
37.5867
37.0218
35.1389
34.339
34.2439
32.9004
29.9115
36.1031
35.6772
35.0659
34.5056
32.7451
28.6806
-17.5113
35.8585
35.5453
35.1826
34.5261
31.5443
35.7747
35.5007
35.1609
36.9801
32.0895
33.737
35.8363
35.4228
34.237
32.7794
32.492
30.9692
22.8223
2.95899
35.7112
35.3306
34.5127
33.8553
31.3488
23.7356
1.65144
35.6061
35.2849
34.8674
33.7627
28.0299
35.5884
35.2924
34.9107
35.5021
33.1687
33.0716
34.6139
34.279
34.2381
33.0985
32.0222
30.408
23.8215
4.38292
35.5261
35.2654
34.507
33.6737
31.7055
22.4315
3.71777
35.5787
35.3165
34.8176
34.0188
29.4213
11.4419
35.603
35.326
35.0196
35.2241
35.435
34.7819
34.5536
34.3609
35.3947
34.5727
33.5183
31.6566
23.8836
3.3002
35.84
35.675
35.2734
34.3331
33.3833
25.0785
4.31286
35.9273
35.7754
35.3193
34.7757
32.8234
35.8764
35.6865
35.6322
35.6618
36.7084
35.8286
35.1629
35.1956
36.3687
35.7361
35.2319
34.2948
28.5707
36.3905
36.2528
36.0925
35.4974
35.4887
29.6999
-13.5074
36.3953
36.4241
36.2475
35.9337
35.9454
36.3392
36.3418
36.5014
36.2866
37.0423
36.4534
35.9866
36.0093
36.8919
36.5475
36.3699
36.2075
34.1322
36.9412
36.7915
36.6934
36.2857
36.6602
34.9167
36.8353
36.9286
36.9691
37.1139
37.2793
36.7912
36.9625
37.3663
36.8554
37.2644
36.8411
36.682
36.6384
37.4179
36.9082
37.0605
37.0632
36.2742
37.3323
37.2204
37.0618
36.9014
36.9844
36.4595
37.1564
37.1943
37.2289
37.5203
37.3241
37.1263
37.4589
37.8366
37.2912
37.3147
37.1825
37.1793
37.0737
37.3457
37.1796
37.3789
37.3748
37.0914
37.2534
37.2717
37.2671
37.2538
37.2077
37.1043
37.3505
37.3066
37.0782
37.328
37.3597
37.3674
37.3904
37.5316
37.6049
37.4544
37.4957
37.5331
37.4046
37.263
37.4534
37.5975
37.5657
37.4905
37.2634
37.3698
37.4562
37.4528
37.4648
37.441
37.5504
37.419
37.2333
37.2588
37.4643
37.444
37.1787
37.3321
37.8485
37.693
37.7499
37.7707
37.6596
37.4909
37.7135
37.7589
37.7092
37.7373
37.6065
37.63
37.6999
37.653
37.6838
37.6826
37.8061
37.6616
37.4442
37.3907
37.644
37.6442
37.1582
37.4467
38.0543
37.9691
37.9636
37.9558
37.9088
37.7865
37.8427
37.8615
37.819
37.953
37.9533
37.9019
37.9384
37.8801
37.8312
37.8945
38.1173
37.9818
37.7617
37.651
37.8598
37.9686
37.6861
37.7312
38.2311
38.2075
38.1265
38.1109
38.129
38.0183
37.9879
37.9941
37.9549
38.0997
38.209
38.1041
38.0508
37.975
37.9033
38.0587
38.4661
38.2814
37.9964
37.8927
38.0833
38.3613
38.046
38.0044
38.4026
38.3379
38.2355
38.2073
38.2514
38.1274
38.0527
38.048
38.0627
38.2548
38.3494
38.2442
38.2012
38.1036
38.0348
38.2079
38.6148
38.4746
38.2031
38.0276
38.2405
38.5586
38.2092
38.1849
167.104
144.665
160.802
154.004
147.026
144.773
136.45
130.159
183.744
179.433
175.429
178.559
160.921
162.332
151.673
155.213
148.846
137.095
130.659
134.606
131.922
129.371
128.772
130.918
134.538
139.015
185.974
213.501
208.346
171.459
157.953
177.306
157.858
154.993
144.895
165.079
146.945
135.182
134.405
137.636
137.158
134.56
143.275
139.8
150.89
150.362
160.626
158.537
217.053
208.937
215.233
171.599
155.378
173.708
154.734
157.427
150.304
152.849
157.934
139.985
139.759
142.497
140.572
142.611
151.776
142.602
148.454
158.915
157.203
151.65
215.611
188.564
157.466
175.893
158.662
154.589
169.892
161.1
186.397
161.386
147.086
196.731
166.21
143.146
143.708
146.226
141.732
143.917
155.294
165.723
180.914
177.035
217.792
208.537
201.03
178.548
146.974
133.337
128.965
139.281
132.228
127.468
130.095
126.904
126.97
126.236
125.54
125.592
126.717
126.983
126.522
148.604
125.874
151.153
154.349
151.669
123.858
131.042
125.663
140.212
127.284
128.143
129.601
125.315
124.357
123.889
123.334
134.346
127.791
148.424
156.488
144.59
126.837
127.093
124.541
154.201
154.722
127.689
124.993
125.15
165.004
162.573
128.836
129.5
127.588
151.64
144.764
122.69
124.835
120.77
160.672
130.346
140.601
142.473
139.88
128.948
132.673
134.797
138.085
139.404
134.055
136.933
136.396
130.346
132.628
132.98
126.81
140.354
141.111
150.178
148.99
142.181
143.847
144.62
157.67
165.394
142.302
130.474
145.81
131.484
121.733
114.603
124.208
124.605
121.668
114.852
118.822
113.656
122.848
124.988
119.048
118.923
121.515
124.84
122.004
121.368
117.814
119.336
117.555
123.966
115.715
114.596
115.063
114.426
122.297
117.85
115.203
122.015
121.462
113.854
111.422
114.458
104.526
123.707
122.86
122.939
119.775
119.173
120.261
107.517
107.952
96.5754
99.7611
100.006
121.277
120.463
117.1
117.424
117.805
106.356
102.931
99.5855
99.0291
98.4495
122.275
119.57
127.369
126.263
131.479
118.313
122.049
118.853
122.618
110.039
128.468
120.509
111.075
99.2622
123.155
111.691
98.9138
135.6
126.03
138.019
138.439
129.983
129.277
130.647
127.772
135.315
124.287
122.903
125.791
122.169
109.969
105.538
105.762
109.958
105.663
102.392
103.879
101.867
112.501
115.266
103.493
104.069
105.559
117.836
106.574
109.804
89.4884
110.734
111.789
106.734
106.949
105.51
102.694
99.5501
117.377
110.212
97.6169
107.303
93.1335
103.245
77.7515
92.8803
80.8646
110.568
114.342
116.035
92.3643
106.386
107.86
91.2288
90.9018
80.4837
76.267
77.5752
112.595
113.231
110.037
109.177
107.782
91.1726
94.8367
82.756
80.3632
88.7438
114.879
106.239
116.988
111.845
112.565
108.034
111.299
103.173
103.624
94.5027
118.189
104.387
93.3614
91.6643
111.01
96.1433
94.0369
114.27
100.91
118.425
117.789
100.166
104.804
103.872
115.712
114.843
104.239
106.624
104.283
108.362
98.7421
86.1973
100.197
99.0091
99.4294
95.0186
91.9601
95.6354
97.2015
94.2445
90.5656
88.8595
69.8489
83.8537
51.6023
60.608
48.3837
98.5654
80.8577
93.3519
66.1237
85.685
53.8383
87.7609
69.8322
90.3103
66.6351
52.8186
54.5194
66.8828
57.7083
69.1225
57.7236
63.0062
81.2617
84.0971
44.1289
47.4986
49.3616
67.8128
66.5269
59.3634
62.9409
61.4392
96.9119
85.873
50.0104
57.3317
54.0517
67.4949
78.8593
61.3525
60.1761
67.1561
73.6156
54.7355
101.79
84.2124
91.9064
60.4216
78.7442
58.7686
69.1734
86.1023
100.121
89.3314
76.7646
71.417
84.8939
76.7994
72.0741
83.0204
57.4943
88.6766
87.7704
58.6528
68.2868
69.0767
96.3552
92.4038
80.226
83.5017
77.2331
84.0456
68.0826
46.2221
81.9926
78.565
86.6761
58.939
58.5096
62.7958
70.0184
44.4459
44.7013
40.4331
36.8496
41.4116
38.5614
41.9916
38.1896
62.3034
37.7161
76.4754
34.2525
37.3357
33.5406
38.5258
45.4413
46.4961
48.3789
38.9447
40.0414
37.1509
40.7008
48.6459
42.8704
38.3768
37.9907
36.7352
37.2156
36.9238
35.6245
56.5997
56.0012
48.0124
48.7792
50.5615
38.5766
42.7837
37.301
35.7117
38.9765
54.6167
56.9267
46.8611
49.559
45.6242
45.4047
41.5539
53.2987
45.9297
47.5387
41.6871
43.544
42.201
41.0722
56.8116
67.6341
62.0334
40.6389
39.7393
49.7125
47.4198
42.4147
44.7508
41.1616
45.8554
48.6389
39.6894
37.7746
38.626
67.5347
57.9773
42.2104
50.6522
40.8454
51.4799
34.7791
34.1706
36.5101
37.3318
36.7043
34.3512
34.0736
34.1134
34.8757
35.7905
34.5799
34.5447
35.285
36.6694
35.4867
35.8804
34.7875
33.9886
34.1211
33.4471
34.2424
34.1332
34.2206
34.1725
37.366
35.1425
37.2952
36.1061
36.4638
35.0426
36.5533
39.0495
37.3177
36.1359
36.1257
35.4312
35.2256
35.2754
34.9579
43.4566
39.4366
50.6126
36.4217
37.0134
35.4938
35.7643
36.5991
39.4209
36.8364
36.5008
35.8999
35.999
35.8345
35.4473
36.5722
35.3751
35.0681
34.948
48.4345
37.178
38.8529
35.8433
35.7588
34.2835
34.6041
36.5691
36.9946
36.1136
35.5756
35.6865
35.4367
35.6354
38.8056
35.9673
40.5258
39.3474
39.1664
36.0453
37.9127
36.4879
36.5684
34.2116
37.1616
36.2797
34.1832
34.3277
34.7888
34.9288
33.9892
39.0711
37.0132
35.997
36.2073
36.5073
35.5871
36.2016
37.4349
35.3023
34.8491
34.5689
35.0857
34.49
34.2709
34.2042
34.5409
34.4354
34.5169
34.3672
34.2772
34.3322
34.6379
34.8882
34.5409
34.5822
34.6155
35.0277
34.8386
34.4745
34.4114
34.1486
34.1492
34.18
34.1821
34.1789
34.1165
34.1744
35.7415
34.9458
36.0279
35.0225
35.2334
34.8887
35.6794
36.5351
35.7962
36.2832
35.4625
35.6826
35.6188
35.7522
35.6265
34.7509
34.695
34.5872
34.5805
34.4432
34.4811
35.5036
35.8915
35.3272
35.9195
35.4751
35.9432
35.3775
35.6823
35.6591
35.6342
35.6937
35.6163
35.7221
35.6321
34.5859
34.0419
34.4314
34.3598
33.8804
35.3201
35.1665
35.2487
35.9122
35.395
35.4058
35.5652
35.5996
35.5682
35.6242
35.6004
35.6065
35.5592
35.6223
34.2779
33.8671
33.9375
34.2048
33.7657
33.4464
33.5599
33.694
33.0998
34.4629
34.4616
34.5067
34.4636
34.4293
34.3952
34.4452
35.4225
35.1005
35.6833
35.608
35.5881
35.6262
34.989
33.9511
35.0891
35.6458
34.701
34.5417
34.9172
34.4961
34.8727
34.5459
34.4962
34.7088
34.45
34.2621
34.2839
34.4025
34.359
34.407
34.4046
34.3842
34.4328
34.5666
34.5839
34.486
34.5535
34.5731
34.7436
34.6901
34.3902
34.3393
34.2134
34.1442
34.2083
34.2512
34.2138
34.1637
34.2153
35.0685
34.8772
35.5205
34.7095
34.9951
34.7494
35.3615
36.0265
35.5514
35.4018
35.5031
35.715
35.6467
35.6882
35.6423
34.5277
34.436
34.5016
34.4882
34.4639
34.516
35.5022
35.8088
35.3097
35.7482
35.4932
35.6015
35.3803
35.639
35.6801
35.6248
35.6491
35.63
35.6716
35.6296
34.3061
34.0144
34.3317
34.2908
34.1427
35.4149
35.5188
35.6475
35.6295
35.5034
35.4247
35.6784
35.6178
35.643
35.6596
35.6544
35.635
35.6921
35.6856
33.9683
34.0983
33.8859
33.9044
33.6006
33.9325
33.9332
34.0362
33.8137
34.2715
34.3255
34.3466
34.2665
34.0776
34.2484
34.2087
35.6617
34.5849
35.5708
35.6473
35.6353
35.6639
34.0125
34.1881
34.2391
34.5026
34.3611
34.2628
34.3951
34.4213
34.6412
34.5184
34.3905
34.6418
34.3289
34.2853
34.2729
34.407
34.3959
34.439
34.3849
34.3812
34.4082
34.5224
34.5147
34.427
34.4563
34.4172
34.6252
34.5528
34.2815
34.2448
34.2
34.157
34.1965
34.2585
34.2049
34.1497
34.1787
34.9007
34.5543
35.1493
34.5367
34.863
34.3801
34.9644
35.1013
34.86
34.4468
34.4465
34.4972
34.3859
34.4169
34.455
35.5142
35.4205
35.3978
35.0798
35.206
35.1083
35.3398
35.6429
35.6546
35.6419
35.6469
35.6367
35.6618
35.6463
34.2846
34.2217
34.2977
34.2859
34.2675
35.4452
35.3598
36.1302
35.001
35.23
35.0381
36.0277
35.6523
35.7824
35.7096
35.6318
35.6606
35.8333
35.7436
34.145
34.1466
33.9967
34.0834
33.9593
34.0223
34.0588
34.114
34.085
33.926
34.1772
34.0714
33.9986
33.8923
34.1166
34.0409
34.1527
34.2757
34.3219
34.4012
34.485
34.415
34.5208
34.5928
34.3775
34.629
34.5171
34.3501
34.5721
34.2063
34.2631
34.2622
34.3571
34.3457
34.3648
34.3465
34.3154
34.3433
34.3823
34.3276
34.3618
34.357
34.2883
34.5066
34.4945
34.2145
34.2095
34.2314
34.14
34.1684
34.2868
34.2582
34.1364
34.1729
34.7751
34.2613
34.7601
34.4366
34.673
34.183
34.684
34.6115
34.5595
34.3366
34.3945
34.419
34.3098
34.3691
34.3989
34.7541
35.1091
34.4565
34.4221
34.4303
34.2719
34.2947
34.2986
34.2304
34.3028
34.9865
34.6462
34.2373
34.1795
34.4133
34.1635
34.1783
34.1168
34.1557
34.173
34.1508
34.1673
34.1869
34.2321
33.9261
34.0927
34.0449
33.8889
33.9662
34.0946
34.0741
34.2405
34.3534
34.3579
34.5943
34.6384
34.5168
34.5806
34.5962
34.3032
34.498
34.4144
34.261
34.413
34.1384
34.2665
34.2754
34.3613
34.3047
34.3505
34.3749
34.3044
34.3597
34.3873
34.3209
34.4209
34.4321
34.3915
34.4811
34.4453
34.2084
34.2027
34.2792
34.1436
34.1808
34.2962
34.291
34.1598
34.1922
34.5367
34.112
34.6045
34.2279
34.3672
34.0926
34.4496
34.5065
34.4301
34.2719
34.3407
34.3826
34.2432
34.312
34.3556
34.2929
34.2754
34.3756
34.2488
34.187
34.1981
34.3007
34.2497
34.2028
34.3135
34.1151
34.284
34.0344
34.0144
34.2617
34.1842
34.1899
34.2064
34.2034
34.2628
34.1746
34.2446
34.2196
34.2623
34.0252
34.113
34.1205
33.952
34.1274
34.1545
34.1904
34.2824
34.3437
34.3084
34.4988
34.4989
34.3873
34.382
34.386
34.2347
34.3697
34.321
34.2186
34.3211
34.1734
34.2845
34.2929
34.3802
34.3066
34.3638
34.3708
34.3066
34.3581
34.4689
34.4711
34.4321
34.4716
34.5307
34.4185
34.4463
34.2135
34.226
34.2956
34.1807
34.2088
34.3108
34.2979
34.2028
34.2255
34.2675
34.0985
34.329
34.1955
34.2539
34.1473
34.2875
34.3603
34.3357
34.2575
34.2904
34.3331
34.2814
34.2799
34.3273
34.233
34.1819
34.3067
34.231
34.1842
34.2055
34.3397
34.2192
34.1806
34.3621
33.8976
34.2895
33.8807
33.8421
34.3883
34.1897
34.1671
34.2609
34.2089
34.2362
34.0682
34.2739
34.1602
34.204
34.254
34.218
34.2914
34.1687
34.4257
34.3011
34.4065
34.5569
34.2606
34.2135
34.2811
34.2879
34.1691
34.1778
34.1893
34.2212
34.2937
34.2636
34.2399
34.2536
34.2979
34.302
34.3135
34.3505
34.3062
34.339
34.3294
34.3108
34.3158
34.439
34.5343
34.358
34.3848
34.484
34.4863
34.4823
34.2421
34.2731
34.303
34.2329
34.2432
34.344
34.3181
34.2645
34.2642
34.2913
34.187
34.2878
34.3466
34.3378
34.2188
34.3119
34.3671
34.4012
34.2996
34.2793
34.3319
34.3257
34.2905
34.3478
34.2884
34.2626
34.4175
34.381
34.3551
34.1366
34.3473
34.1246
34.0806
34.3083
34.044
34.5119
34.3378
34.2474
34.6398
34.181
34.1354
34.2652
34.1104
34.1751
34.006
34.2323
34.0727
34.1394
34.6623
34.4066
34.5265
34.5341
34.7824
34.4746
34.5945
34.728
34.1778
34.1459
34.0985
34.117
34.0285
34.0321
34.0515
34.2723
34.2382
34.2209
34.2986
34.2063
34.4394
34.3331
34.3579
34.3156
34.3245
34.3017
34.3193
34.3489
34.3031
34.3308
34.4019
34.3054
34.2981
34.3281
34.4266
34.3522
34.2917
34.3127
34.3434
34.2882
34.288
34.3898
34.3748
34.3059
34.3142
34.3596
34.2305
34.3248
34.3157
34.3632
34.2275
34.3304
34.4597
34.4629
34.3345
34.2827
34.328
34.3207
34.2535
34.2894
34.4933
34.4596
34.5431
34.5958
34.5398
34.0278
34.2205
33.9977
33.9618
34.0693
34.388
34.6467
34.4533
34.4508
34.5442
34.088
34.0061
34.1508
34.029
34.1004
33.9099
34.0323
33.9456
34.0465
34.7086
34.4818
34.5754
34.4429
34.5505
34.4434
34.4992
34.5261
34.1058
34.0577
33.9932
34.0212
33.9464
33.9878
34.0139
34.3092
34.19
34.1756
34.3056
34.1827
34.4133
34.3878
34.4207
34.3418
34.382
34.3194
34.3799
34.4214
34.3509
34.3008
34.2894
34.3492
34.3307
34.2952
34.2951
34.2824
34.3506
34.3739
34.4061
34.3252
34.3425
34.4222
34.4344
34.342
34.3683
34.3548
34.2179
34.3156
34.2289
34.3454
34.2286
34.3035
34.4584
34.4377
34.3018
34.2363
34.2645
34.3008
34.2301
34.2511
34.612
34.5764
34.5706
34.5812
34.5714
33.9204
33.9188
33.9411
33.9248
33.8154
34.4886
34.5122
34.4941
34.5071
34.5318
33.9432
33.9444
33.9156
33.852
33.9658
34.0114
33.7793
33.7811
33.8626
34.404
34.4041
34.4279
34.3269
34.3228
34.3642
34.3788
34.4085
34.0141
33.9663
34.011
34.0339
33.8748
34.0532
34.0559
34.3005
34.1813
34.1759
34.3089
34.1924
34.3612
34.4554
34.4915
34.4354
34.4662
34.4122
34.4987
34.5141
34.4834
34.3752
34.3379
34.4574
34.427
34.4037
34.3154
34.3914
34.3689
34.3293
34.4565
34.3497
34.3899
34.4251
34.4761
34.3352
34.4089
34.3563
34.2669
34.3014
34.3133
34.3949
34.3333
34.3326
34.4169
34.4053
34.3035
34.2076
34.2364
34.2791
34.2006
34.2211
34.5496
34.5664
34.543
34.5445
34.5686
33.963
33.7859
34.0499
34.0346
33.8707
34.5479
34.5408
34.585
34.5871
34.5512
33.9646
33.9932
33.6133
33.7989
33.7577
34.1295
33.4827
33.8773
33.6502
34.3222
34.3502
34.369
34.3312
34.3812
34.3689
34.4027
34.4771
33.8996
33.8588
34.0966
34.0874
33.8109
34.1406
34.1355
34.3334
34.2331
34.3005
34.3842
34.296
34.4091
34.5307
34.5769
34.5625
34.5622
34.5492
34.6263
34.6167
34.6101
34.4899
34.4817
34.6007
34.5669
34.5651
34.5006
34.6129
34.2466
34.1372
34.4988
34.2987
34.4292
34.4089
34.5305
34.2546
34.4597
34.4564
34.4114
34.3944
34.5377
34.5339
34.499
34.4672
34.4092
34.4299
34.2453
34.2207
34.2028
34.1825
34.2518
34.188
34.5608
34.5879
34.5499
34.605
34.6262
34.1699
34.0536
34.3629
34.371
34.3061
34.6585
34.6099
34.7358
34.7319
34.7147
34.1241
34.3876
33.4698
34.0756
33.6619
34.7033
33.5511
34.3763
33.8995
34.4861
34.4337
34.4931
34.5616
34.6116
34.5481
34.6016
34.6636
33.8758
34.0859
34.2022
34.2418
34.1749
34.3272
34.3815
34.4595
34.3889
34.5285
34.5552
34.5051
34.5939
34.6369
34.7162
34.6925
34.6817
34.6705
34.7661
34.7601
34.7408
34.652
34.6501
34.7666
34.7415
34.7358
34.717
34.8124
34.0672
34.0656
34.5779
34.2264
34.5062
34.4679
34.65
34.2359
34.5908
34.6172
34.5814
34.5321
34.7783
34.7142
34.6868
34.6115
34.4872
34.5774
34.1381
34.2981
34.2159
34.1674
34.4195
34.3358
34.6682
34.6879
34.6481
34.7341
34.7449
34.574
34.5071
34.7186
34.7432
34.6881
34.8355
34.8346
34.9344
34.9145
34.9454
34.5007
34.5081
33.7106
34.605
34.2745
34.4071
33.8385
34.633
34.5882
34.7187
34.6907
34.7161
34.8642
34.8087
34.8054
34.8155
34.8571
34.3973
34.7064
34.5685
34.5984
34.918
34.8408
34.8295
34.6656
34.6536
34.8158
34.7757
34.798
34.822
34.8171
34.938
34.8492
34.8518
34.8205
34.9411
34.9561
34.9093
34.8329
34.8278
34.9546
34.9275
34.9258
34.9099
35.0111
34.1634
34.4366
34.7506
34.2716
34.7206
34.7337
34.8799
34.3915
34.8794
34.8268
34.807
34.7105
34.9999
34.9593
34.9373
34.8311
34.6847
34.8023
34.326
34.5942
34.5215
34.5898
34.8211
34.7848
34.8045
34.8115
34.7808
34.864
34.8752
34.8185
34.8173
34.8639
34.8481
34.8767
34.9827
35.0165
35.0211
35.0182
35.042
34.6658
34.8046
34.0772
34.6776
34.9477
34.2452
34.6359
34.8289
35.2137
34.8837
34.8995
34.9004
35.0031
34.9426
34.9712
34.9629
34.9822
35.2779
35.5653
35.056
35.0287
35.386
35.182
35.1579
34.8774
34.9326
35.0353
34.9599
35.034
34.9861
35.0721
35.2072
35.0413
35.0688
35.0055
35.1483
35.1823
35.106
35.0241
35.0284
35.1618
35.1197
35.1284
35.1198
35.2299
34.846
35.5596
35.0285
34.7573
35.0638
35.1634
35.1841
35.2558
35.2622
35.11
35.0671
34.9991
35.2025
35.2709
35.1706
35.1905
34.9344
35.0835
34.9565
35.1938
35.2153
35.3372
35.6512
35.8024
34.9178
34.9448
34.9027
34.9698
35.0007
34.9129
34.884
35.105
35.0559
34.9514
35.0329
35.0481
35.0596
35.0514
35.0718
34.9385
35.0913
35.1336
35.0097
35.333
34.8955
35.3581
35.151
35.5002
35.0035
35.0299
35.0179
35.0942
35.0555
35.0779
35.068
35.0702
35.5255
35.3814
35.237
35.2252
35.346
35.2589
35.2552
35.0368
35.1142
35.1569
35.0938
35.1677
35.1032
35.3264
35.4194