/*--------------------------------*- C++ -*----------------------------------*\
| =========                 |                                                 |
| \\      /  F ield         | OpenFOAM: The Open Source CFD Toolbox           |
|  \\    /   O peration     | Version:  5.x                                   |
|   \\  /    A nd           | Web:      www.OpenFOAM.org                      |
|    \\/     M anipulation  |                                                 |
\*---------------------------------------------------------------------------*/
FoamFile
{
    version     2.0;
    format      ascii;
    class       volVectorField;
    location    "3";
    object      Us;
}
// * * * * * * * * * * * * * * * * * * * * * * * * * * * * * * * * * * * * * //

dimensions      [0 1 -1 0 0 0 0];

internalField   nonuniform List<vector> 
10571
(
(-0.0404617 -0.000113446 -0.109999)
(0.0286123 0.00342442 -0.100479)
(0.217116 -0.0155909 0.0242255)
(0.0337748 0.0182001 -0.0598785)
(-0.119456 -0.0802523 -0.13869)
(0.145774 -0.0437062 0.0236501)
(0.244706 -0.0302218 0.0985056)
(-0.0155356 0.0645906 -0.0924717)
(-0.206773 -0.051811 -0.149536)
(-0.0651459 -0.0616244 -0.320753)
(0.0150375 -0.0919782 -0.155032)
(0.182996 -0.0886009 0.0167068)
(0.2262 0.0611972 0.0773672)
(-0.0849791 0.0345453 -0.0994739)
(-0.202242 0.0460682 -0.145282)
(-0.0794822 0.0417954 -0.268608)
(0.00654284 -0.132911 -0.148878)
(0.26931 0.045793 0.00734935)
(0.109638 -0.155903 0.0207829)
(-0.136267 0.114317 -0.0919884)
(-0.0671112 0.136557 -0.159474)
(0.105908 0.026972 -0.044298)
(-0.00998169 -0.0711065 -0.0867103)
(-0.0401719 0.0018381 -0.0506633)
(-0.0337573 0.0131226 -0.123938)
(-0.0652209 0.0651599 -0.234664)
(-0.0363824 0.0515141 0.0124492)
(-0.173339 -0.0169304 0.0297036)
(-0.116986 -0.0776862 0.00652743)
(-0.0258579 -0.0408333 0.105246)
(0.0337118 0.0298695 0.155194)
(-0.16123 0.0448925 0.0815198)
(-0.138843 0.0786093 -0.101287)
(-0.0631421 -0.0451288 -0.424306)
(-0.00176377 0.0377873 -0.204406)
(-0.0469515 -0.172247 0.0893227)
(0.0820825 0.00103689 0.169653)
(-0.141456 0.0631272 0.0921099)
(-0.117714 0.0340097 -0.0205589)
(-0.0190996 -0.0726014 -0.435002)
(-0.170882 -0.189708 -0.182724)
(0.0159544 -0.0837094 0.0867341)
(-0.102513 0.055009 0.0890754)
(-0.115081 0.0398873 0.0178236)
(-0.0258386 0.0106265 -0.160171)
(-0.00490487 -0.0534184 -0.0769794)
(-0.00271202 -0.0111444 -0.0937863)
(-0.114388 0.0795095 -0.0259749)
(-0.0511155 -6.48802e-05 -0.0766565)
(0.0041484 -0.0124772 -0.18727)
(-0.184017 0.0916851 0.0861995)
(-0.265711 0.0393427 0.174379)
(-0.0532284 0.0660725 -0.00805243)
(-0.139082 -0.0658701 0.167042)
(-0.203155 0.0892615 0.188445)
(-0.16265 0.104562 0.154953)
(-0.0169659 0.169574 0.124078)
(-0.0366732 -0.0444138 -0.420018)
(-0.00365984 0.0707208 -0.0535449)
(-0.175939 -0.0942135 0.159927)
(-0.126526 0.0152994 0.243304)
(-0.142981 0.0524144 0.164535)
(-0.0445699 -0.100687 0.11612)
(0.00972186 -0.0737588 -0.376197)
(-0.137447 -0.100828 -0.0230516)
(-0.0853405 -0.0634359 0.180043)
(-0.0906796 0.0468009 0.193459)
(-0.0197591 -0.0486485 0.121781)
(0.0485556 -0.134317 -0.167653)
(-0.0846461 -0.0307784 -0.0691254)
(-0.0208747 0.0158923 -0.000930065)
(-0.0452646 0.0291555 0.0615841)
(0.000728772 -0.00214192 0.00375357)
(-0.0959889 0.0533993 -0.0531523)
(-0.259779 0.04327 0.165331)
(-0.210351 -0.00833102 0.269547)
(0.0560631 0.036951 -0.0555415)
(-0.249788 -0.0367445 0.15479)
(-0.239249 0.160093 0.275561)
(-0.106098 0.175859 0.29298)
(0.0675689 0.0521 0.211544)
(0.0145593 0.0100663 -0.351788)
(-0.0818786 0.0142995 0.0656843)
(-0.269356 0.021857 0.262564)
(-0.17879 0.0476524 0.314234)
(-0.104574 0.00738478 0.264213)
(0.101796 -0.171733 0.133529)
(0.0437804 -0.0921171 -0.272896)
(-0.187082 0.0132036 0.168015)
(-0.140681 0.00552612 0.242818)
(-0.0212972 -0.0177443 0.235995)
(0.0679569 -0.138652 0.163113)
(0.0830036 -0.16044 -0.123752)
(-0.123749 -0.0124314 -0.0504464)
(-0.0399279 0.0203602 0.0346409)
(0.0283079 -0.0242994 0.0206884)
(0.0441468 -0.0041338 0.0775533)
(-0.213558 0.0864745 0.0179763)
(-0.162463 0.00140509 0.168719)
(0.0356215 -0.0907488 0.237943)
(0.153075 -0.133461 -0.126862)
(-0.292014 -0.0383028 0.0378725)
(-0.154276 0.147438 0.279545)
(-0.0106518 0.118125 0.302041)
(0.19332 -0.0593901 0.067375)
(0.0732375 -0.0292364 -0.250306)
(-0.267732 -0.0282226 0.118718)
(-0.286675 0.0896992 0.281044)
(-0.179979 0.0931855 0.384485)
(-0.0350216 -0.0231405 0.340571)
(0.202335 -0.0995282 0.0569185)
(0.00467118 -0.0325809 -0.228221)
(-0.229018 0.141226 0.147294)
(-0.117044 0.0562562 0.20287)
(0.0164769 -0.00625578 0.147906)
(0.107253 -0.0724835 0.0927736)
(0.0894653 -0.106888 -0.0838873)
(-0.173567 0.0939282 -0.0357957)
(-0.0483888 0.0317071 0.0149717)
(0.0192348 -0.00701222 -0.0207675)
(0.0929572 -0.0106628 0.0327196)
(-0.172367 0.0832343 -0.106871)
(-0.094631 -0.0500368 0.135211)
(0.0920358 -0.0919887 0.106285)
(-0.0652314 0.00478897 -0.407541)
(-0.262757 -0.0944678 -0.0260261)
(-0.0426901 0.0496595 0.192649)
(0.0783814 0.0100101 0.169003)
(0.204048 -0.0634417 0.0347949)
(-0.0939027 0.0518012 -0.216047)
(-0.0108787 0.00730661 -0.00593333)
(0 0 0)
(-0.260065 0.0520542 0.209342)
(-0.0649384 0.139108 0.247365)
(0.0761529 0.0572326 0.194269)
(0.212629 -0.0461509 0.099869)
(-0.087372 -0.0234238 -0.188025)
(-0.00588803 -0.000252125 -0.00391117)
(-0.261362 0.15924 0.218237)
(-0.077845 0.125227 0.134814)
(0.0341455 0.0735938 0.07722)
(0.122056 -0.0111311 -0.0220334)
(0.0966013 -0.116165 -0.0329022)
(-0.155873 0.142616 -0.054418)
(-0.0779096 0.0324646 -0.0274995)
(0.0132163 0.00209221 -0.0222296)
(0.0272837 -0.0070962 -0.298383)
(0 0 0)
(0.00183014 0.0542323 -0.284413)
(0 0 0)
(-0.108657 -0.0843026 -0.419005)
(0 0 0)
(-0.0453815 -0.0551269 0.0323022)
(0.0855937 -0.0158854 0.079533)
(0.0939574 -0.114886 -0.113072)
(-0.0791878 0.0664336 -0.275359)
(-0.0338313 0.0182046 -0.0280033)
(0 0 0)
(-0.285015 0.0445273 0.163742)
(-0.0248025 0.110846 0.174333)
(0.0789961 0.0974677 0.115472)
(0.206033 -0.0253293 -0.0167098)
(0.0831931 -0.118857 -0.385466)
(-0.012173 0.0015596 -0.0135171)
(-0.26753 0.14569 0.2227)
(-0.0429367 0.171426 0.106814)
(0.0493386 0.140422 0.0711168)
(0.124267 0.0455337 -0.150928)
(0.063514 -0.0993528 -0.397934)
(-0.00813929 -0.00282856 -0.00578934)
(-0.100546 0.259829 0.00558857)
(-0.0198454 0.151725 -0.053882)
(0.0674851 0.0325622 -0.374309)
(0.0669266 0.0329273 -0.237917)
(0 0 0)
(0.017562 0.0338262 -0.209562)
(0 0 0)
(-0.212784 -0.183139 -0.48874)
(0 0 0)
(0 0 0)
(0 0 0)
(-0.0223104 -0.174944 -0.306262)
(-0.0475995 -0.173754 -0.49426)
(0 0 0)
(0 0 0)
(0 0 0)
(-0.0694264 0.0672395 0.0691893)
(0.0682269 0.0547274 0.0875727)
(0.109746 -0.0954285 -0.360066)
(0.0888229 -0.11758 -0.411367)
(0 0 0)
(0 0 0)
(-0.0482144 0.130069 0.0531016)
(0.0345543 0.126293 0.0699847)
(0.316009 0.0249236 0.0543491)
(0.0750422 -0.0655948 -0.470441)
(0 0 0)
(0 0 0)
(0 0 0)
(0 0 0)
(0 0 0)
(0 0 0)
(0 0 0)
(0 0 0)
(-0.188131 -0.227893 -0.419604)
(0 0 0)
(0 0 0)
(0 0 0)
(-0.194429 -0.184224 -0.502732)
(-0.0734447 -0.177536 -0.495439)
(0 0 0)
(0 0 0)
(0 0 0)
(0 0 0)
(0 0 0)
(0 0 0)
(0.0361091 -0.130921 -0.436257)
(0 0 0)
(0 0 0)
(0 0 0)
(0 0 0)
(0 0 0)
(0.0227102 -0.0769112 -0.445518)
(0 0 0)
(0 0 0)
(0 0 0)
(0 0 0)
(0 0 0)
(0 0 0)
(0 0 0)
(-0.233786 -0.118033 -0.447305)
(0 0 0)
(0 0 0)
(0 0 0)
(-0.124718 -0.160231 -0.382045)
(-0.0850708 -0.179223 -0.49307)
(0 0 0)
(0 0 0)
(0 0 0)
(0 0 0)
(0 0 0)
(0.0243191 -0.136177 -0.425878)
(0 0 0)
(0 0 0)
(0 0 0)
(0 0 0)
(0.0375323 -0.085461 -0.456202)
(0 0 0)
(0 0 0)
(0 0 0)
(0 0 0)
(0 0 0)
(0 0 0)
(0 0 0)
(-0.135795 -0.266218 -0.366142)
(0 0 0)
(0 0 0)
(0 0 0)
(-0.128746 -0.164864 -0.271063)
(-0.0523472 -0.176548 -0.48101)
(0 0 0)
(0 0 0)
(0 0 0)
(0 0 0)
(0 0 0)
(-0.00755791 -0.145166 -0.427098)
(0 0 0)
(0 0 0)
(0 0 0)
(0 0 0)
(0 0 0)
(0 0 0)
(0 0 0)
(0 0 0)
(0 0 0)
(0 0 0)
(0 0 0)
(0 0 0)
(0 0 0)
(0 0 0)
(0 0 0)
(0 0 0)
(-0.146639 -0.146176 -0.277206)
(-0.143446 -0.086745 -0.335451)
(0 0 0)
(0 0 0)
(0 0 0)
(0 0 0)
(0 0 0)
(0 0 0)
(0 0 0)
(0 0 0)
(0 0 0)
(0 0 0)
(0 0 0)
(0 0 0)
(0 0 0)
(0 0 0)
(0 0 0)
(0 0 0)
(0 0 0)
(0 0 0)
(0 0 0)
(0 0 0)
(0 0 0)
(0 0 0)
(0 0 0)
(0 0 0)
(0 0 0)
(0 0 0)
(0 0 0)
(0 0 0)
(0 0 0)
(0 0 0)
(0 0 0)
(0 0 0)
(0 0 0)
(0 0 0)
(0 0 0)
(0 0 0)
(0 0 0)
(0 0 0)
(0 0 0)
(0 0 0)
(0 0 0)
(0 0 0)
(0 0 0)
(0 0 0)
(0 0 0)
(0 0 0)
(0 0 0)
(0 0 0)
(0 0 0)
(0 0 0)
(0 0 0)
(0 0 0)
(0 0 0)
(0 0 0)
(0 0 0)
(0 0 0)
(0 0 0)
(0 0 0)
(0 0 0)
(0 0 0)
(0 0 0)
(0 0 0)
(0 0 0)
(0 0 0)
(0 0 0)
(0 0 0)
(0 0 0)
(0 0 0)
(0 0 0)
(0 0 0)
(0 0 0)
(0 0 0)
(0 0 0)
(0 0 0)
(0 0 0)
(0 0 0)
(0 0 0)
(0 0 0)
(0 0 0)
(0 0 0)
(0 0 0)
(0 0 0)
(0 0 0)
(0 0 0)
(0 0 0)
(0 0 0)
(0 0 0)
(0 0 0)
(0 0 0)
(0 0 0)
(0 0 0)
(0 0 0)
(0 0 0)
(0 0 0)
(0 0 0)
(0 0 0)
(0 0 0)
(0 0 0)
(0 0 0)
(0 0 0)
(0 0 0)
(0 0 0)
(0 0 0)
(0 0 0)
(0 0 0)
(0 0 0)
(0 0 0)
(0 0 0)
(0 0 0)
(0 0 0)
(0 0 0)
(0 0 0)
(0 0 0)
(0 0 0)
(0 0 0)
(0 0 0)
(0 0 0)
(0 0 0)
(0 0 0)
(0 0 0)
(0 0 0)
(0 0 0)
(0 0 0)
(0 0 0)
(0 0 0)
(0 0 0)
(0 0 0)
(0 0 0)
(0 0 0)
(0 0 0)
(0 0 0)
(0 0 0)
(0 0 0)
(0 0 0)
(0 0 0)
(0 0 0)
(0 0 0)
(0 0 0)
(0 0 0)
(0 0 0)
(0 0 0)
(0 0 0)
(0 0 0)
(0 0 0)
(0 0 0)
(0 0 0)
(0 0 0)
(0 0 0)
(0 0 0)
(0 0 0)
(0 0 0)
(0 0 0)
(0 0 0)
(0 0 0)
(0 0 0)
(0 0 0)
(0 0 0)
(0 0 0)
(0 0 0)
(0 0 0)
(0 0 0)
(0 0 0)
(0 0 0)
(0 0 0)
(0 0 0)
(0 0 0)
(0 0 0)
(0 0 0)
(0 0 0)
(0 0 0)
(0 0 0)
(0 0 0)
(0 0 0)
(0 0 0)
(0 0 0)
(0 0 0)
(0 0 0)
(0 0 0)
(0 0 0)
(0 0 0)
(0 0 0)
(0 0 0)
(0 0 0)
(0 0 0)
(0 0 0)
(0 0 0)
(0 0 0)
(0 0 0)
(0 0 0)
(0 0 0)
(0 0 0)
(0 0 0)
(0 0 0)
(0 0 0)
(0 0 0)
(0 0 0)
(0 0 0)
(0 0 0)
(0 0 0)
(0 0 0)
(0 0 0)
(0 0 0)
(0 0 0)
(0 0 0)
(0 0 0)
(0 0 0)
(0 0 0)
(0 0 0)
(0 0 0)
(0 0 0)
(0 0 0)
(0 0 0)
(0 0 0)
(0 0 0)
(0 0 0)
(0 0 0)
(0 0 0)
(0 0 0)
(0 0 0)
(0 0 0)
(0 0 0)
(0 0 0)
(0 0 0)
(0 0 0)
(0 0 0)
(0 0 0)
(0 0 0)
(0 0 0)
(0 0 0)
(0 0 0)
(0 0 0)
(0 0 0)
(0 0 0)
(0 0 0)
(0 0 0)
(0 0 0)
(0 0 0)
(0 0 0)
(0 0 0)
(0 0 0)
(0 0 0)
(0 0 0)
(0 0 0)
(0 0 0)
(0 0 0)
(0 0 0)
(0 0 0)
(0 0 0)
(0 0 0)
(0 0 0)
(0 0 0)
(0 0 0)
(0 0 0)
(0 0 0)
(0 0 0)
(0 0 0)
(0 0 0)
(0 0 0)
(0 0 0)
(0 0 0)
(0 0 0)
(0 0 0)
(0 0 0)
(0 0 0)
(0 0 0)
(0 0 0)
(0 0 0)
(0 0 0)
(0 0 0)
(0 0 0)
(0 0 0)
(0 0 0)
(0 0 0)
(0 0 0)
(0 0 0)
(0 0 0)
(0 0 0)
(0 0 0)
(0 0 0)
(0 0 0)
(0 0 0)
(0 0 0)
(0 0 0)
(0 0 0)
(0 0 0)
(0 0 0)
(0 0 0)
(0 0 0)
(0 0 0)
(0 0 0)
(0 0 0)
(0 0 0)
(0 0 0)
(0 0 0)
(0 0 0)
(0 0 0)
(0 0 0)
(0 0 0)
(0 0 0)
(0 0 0)
(0 0 0)
(0 0 0)
(0 0 0)
(0 0 0)
(0 0 0)
(0 0 0)
(0 0 0)
(0 0 0)
(0 0 0)
(0 0 0)
(0 0 0)
(0 0 0)
(0 0 0)
(0 0 0)
(0 0 0)
(0 0 0)
(0 0 0)
(0 0 0)
(0 0 0)
(0 0 0)
(0 0 0)
(0 0 0)
(0 0 0)
(0 0 0)
(0 0 0)
(0 0 0)
(0 0 0)
(0 0 0)
(0 0 0)
(0 0 0)
(0 0 0)
(0 0 0)
(0 0 0)
(0 0 0)
(0 0 0)
(0 0 0)
(0 0 0)
(0 0 0)
(0 0 0)
(0 0 0)
(0 0 0)
(0 0 0)
(0 0 0)
(0 0 0)
(0 0 0)
(0 0 0)
(0 0 0)
(0 0 0)
(0 0 0)
(0 0 0)
(0 0 0)
(0 0 0)
(0 0 0)
(0 0 0)
(0 0 0)
(0 0 0)
(0 0 0)
(0 0 0)
(0 0 0)
(0 0 0)
(0 0 0)
(0 0 0)
(0 0 0)
(0 0 0)
(0 0 0)
(0 0 0)
(0 0 0)
(0 0 0)
(0 0 0)
(0 0 0)
(0 0 0)
(0 0 0)
(0 0 0)
(0 0 0)
(0 0 0)
(0 0 0)
(0 0 0)
(0 0 0)
(0 0 0)
(0 0 0)
(0 0 0)
(0 0 0)
(0 0 0)
(0 0 0)
(0 0 0)
(0 0 0)
(0 0 0)
(0 0 0)
(0 0 0)
(0 0 0)
(0 0 0)
(0 0 0)
(0 0 0)
(0 0 0)
(0 0 0)
(0 0 0)
(0 0 0)
(0 0 0)
(0 0 0)
(0 0 0)
(0 0 0)
(0 0 0)
(0 0 0)
(0 0 0)
(0 0 0)
(0 0 0)
(0 0 0)
(0 0 0)
(0 0 0)
(0 0 0)
(0 0 0)
(0 0 0)
(0 0 0)
(0 0 0)
(0 0 0)
(0 0 0)
(0 0 0)
(0 0 0)
(0 0 0)
(0 0 0)
(0 0 0)
(0 0 0)
(0 0 0)
(0 0 0)
(0 0 0)
(0 0 0)
(0 0 0)
(0 0 0)
(0 0 0)
(0 0 0)
(0 0 0)
(0 0 0)
(0 0 0)
(0 0 0)
(0 0 0)
(0 0 0)
(0 0 0)
(0 0 0)
(0 0 0)
(0 0 0)
(0 0 0)
(0 0 0)
(0 0 0)
(0 0 0)
(0 0 0)
(0 0 0)
(0 0 0)
(0 0 0)
(0 0 0)
(0 0 0)
(0 0 0)
(0 0 0)
(0 0 0)
(0 0 0)
(0 0 0)
(0 0 0)
(0 0 0)
(0 0 0)
(0 0 0)
(0 0 0)
(0 0 0)
(0 0 0)
(0 0 0)
(0 0 0)
(0 0 0)
(0 0 0)
(0 0 0)
(0 0 0)
(0 0 0)
(0 0 0)
(0 0 0)
(0 0 0)
(0 0 0)
(0 0 0)
(0 0 0)
(0 0 0)
(0 0 0)
(0 0 0)
(0 0 0)
(0 0 0)
(0 0 0)
(0 0 0)
(0 0 0)
(0 0 0)
(0 0 0)
(0 0 0)
(0 0 0)
(0 0 0)
(0 0 0)
(0 0 0)
(0 0 0)
(0 0 0)
(0 0 0)
(0 0 0)
(0 0 0)
(0 0 0)
(0 0 0)
(0 0 0)
(0 0 0)
(0 0 0)
(0 0 0)
(0 0 0)
(0 0 0)
(0 0 0)
(0 0 0)
(0 0 0)
(0 0 0)
(0 0 0)
(0 0 0)
(0 0 0)
(0 0 0)
(0 0 0)
(0 0 0)
(0 0 0)
(0 0 0)
(0 0 0)
(0 0 0)
(0 0 0)
(0 0 0)
(0 0 0)
(0 0 0)
(0 0 0)
(0 0 0)
(0 0 0)
(0 0 0)
(0 0 0)
(0 0 0)
(0 0 0)
(0 0 0)
(0 0 0)
(0 0 0)
(0 0 0)
(0 0 0)
(0 0 0)
(0 0 0)
(0 0 0)
(0 0 0)
(0 0 0)
(0 0 0)
(0 0 0)
(0 0 0)
(0 0 0)
(0 0 0)
(0 0 0)
(0 0 0)
(0 0 0)
(0 0 0)
(0 0 0)
(0 0 0)
(0 0 0)
(0 0 0)
(0 0 0)
(0 0 0)
(0 0 0)
(0 0 0)
(0 0 0)
(0 0 0)
(0 0 0)
(0 0 0)
(0 0 0)
(0 0 0)
(0 0 0)
(0 0 0)
(0 0 0)
(0 0 0)
(0 0 0)
(0 0 0)
(0 0 0)
(0 0 0)
(0 0 0)
(0 0 0)
(0 0 0)
(0 0 0)
(0 0 0)
(0 0 0)
(0 0 0)
(0 0 0)
(0 0 0)
(0 0 0)
(0 0 0)
(0 0 0)
(0 0 0)
(0 0 0)
(0 0 0)
(0 0 0)
(0 0 0)
(0 0 0)
(0 0 0)
(0 0 0)
(0 0 0)
(0 0 0)
(0 0 0)
(0 0 0)
(0 0 0)
(0 0 0)
(0 0 0)
(0 0 0)
(0 0 0)
(0 0 0)
(0 0 0)
(0 0 0)
(0 0 0)
(0 0 0)
(0 0 0)
(0 0 0)
(0 0 0)
(0 0 0)
(0 0 0)
(0 0 0)
(0 0 0)
(0 0 0)
(0 0 0)
(0 0 0)
(0 0 0)
(0 0 0)
(0 0 0)
(0 0 0)
(0 0 0)
(0 0 0)
(0 0 0)
(0 0 0)
(0 0 0)
(0 0 0)
(0 0 0)
(0 0 0)
(0 0 0)
(0 0 0)
(0 0 0)
(0 0 0)
(0 0 0)
(0 0 0)
(0 0 0)
(0 0 0)
(0 0 0)
(0 0 0)
(0 0 0)
(0 0 0)
(0 0 0)
(0 0 0)
(0 0 0)
(0 0 0)
(0 0 0)
(0 0 0)
(0 0 0)
(0 0 0)
(0 0 0)
(0 0 0)
(0 0 0)
(0 0 0)
(0 0 0)
(0 0 0)
(0 0 0)
(0 0 0)
(0 0 0)
(0 0 0)
(0 0 0)
(0 0 0)
(0 0 0)
(0 0 0)
(0 0 0)
(0 0 0)
(0 0 0)
(0 0 0)
(0 0 0)
(0 0 0)
(0 0 0)
(0 0 0)
(0 0 0)
(0 0 0)
(0 0 0)
(0 0 0)
(0 0 0)
(0 0 0)
(0 0 0)
(0 0 0)
(0 0 0)
(0 0 0)
(0 0 0)
(0 0 0)
(0 0 0)
(0 0 0)
(0 0 0)
(0 0 0)
(0 0 0)
(0 0 0)
(0 0 0)
(0 0 0)
(0 0 0)
(0 0 0)
(0 0 0)
(0 0 0)
(0 0 0)
(0 0 0)
(0 0 0)
(0 0 0)
(0 0 0)
(0 0 0)
(0 0 0)
(0 0 0)
(0 0 0)
(0 0 0)
(0 0 0)
(0 0 0)
(0 0 0)
(0 0 0)
(0 0 0)
(0 0 0)
(0 0 0)
(0 0 0)
(0 0 0)
(0 0 0)
(0 0 0)
(0 0 0)
(0 0 0)
(0 0 0)
(0 0 0)
(0 0 0)
(0 0 0)
(0 0 0)
(0 0 0)
(0 0 0)
(0 0 0)
(0 0 0)
(0 0 0)
(0 0 0)
(0 0 0)
(0 0 0)
(0 0 0)
(0 0 0)
(0 0 0)
(0 0 0)
(0 0 0)
(0 0 0)
(0 0 0)
(0 0 0)
(0 0 0)
(0 0 0)
(0 0 0)
(0 0 0)
(0 0 0)
(0 0 0)
(0 0 0)
(0 0 0)
(0 0 0)
(0 0 0)
(0 0 0)
(0 0 0)
(0 0 0)
(0 0 0)
(0 0 0)
(0 0 0)
(0 0 0)
(0 0 0)
(0 0 0)
(0 0 0)
(0 0 0)
(0 0 0)
(0 0 0)
(0 0 0)
(0 0 0)
(0 0 0)
(0 0 0)
(0 0 0)
(0 0 0)
(0 0 0)
(0 0 0)
(0 0 0)
(0 0 0)
(0 0 0)
(0 0 0)
(0 0 0)
(0 0 0)
(0 0 0)
(0 0 0)
(0 0 0)
(0 0 0)
(0 0 0)
(0 0 0)
(0 0 0)
(0 0 0)
(0 0 0)
(0 0 0)
(0 0 0)
(0 0 0)
(0 0 0)
(0 0 0)
(0 0 0)
(0 0 0)
(0 0 0)
(0 0 0)
(0 0 0)
(0 0 0)
(0 0 0)
(0 0 0)
(0 0 0)
(0 0 0)
(0 0 0)
(0 0 0)
(0 0 0)
(0 0 0)
(0 0 0)
(0 0 0)
(0 0 0)
(0 0 0)
(0 0 0)
(0 0 0)
(0 0 0)
(0 0 0)
(0 0 0)
(0 0 0)
(0 0 0)
(0 0 0)
(0 0 0)
(0 0 0)
(0 0 0)
(0 0 0)
(0 0 0)
(0 0 0)
(0 0 0)
(0 0 0)
(0 0 0)
(0 0 0)
(0 0 0)
(0 0 0)
(0 0 0)
(0 0 0)
(0 0 0)
(0 0 0)
(0 0 0)
(0 0 0)
(0 0 0)
(0 0 0)
(0 0 0)
(0 0 0)
(0 0 0)
(0 0 0)
(0 0 0)
(0 0 0)
(0 0 0)
(0 0 0)
(0 0 0)
(0 0 0)
(0 0 0)
(0 0 0)
(0 0 0)
(0 0 0)
(0 0 0)
(0 0 0)
(0 0 0)
(0 0 0)
(0 0 0)
(0 0 0)
(0 0 0)
(0 0 0)
(0 0 0)
(0 0 0)
(0 0 0)
(0 0 0)
(0 0 0)
(0 0 0)
(0 0 0)
(0 0 0)
(0 0 0)
(0 0 0)
(0 0 0)
(0 0 0)
(0 0 0)
(0 0 0)
(0 0 0)
(0 0 0)
(0 0 0)
(0 0 0)
(0 0 0)
(0 0 0)
(0 0 0)
(0 0 0)
(0 0 0)
(0 0 0)
(0 0 0)
(0 0 0)
(0 0 0)
(0 0 0)
(0 0 0)
(0 0 0)
(0 0 0)
(0 0 0)
(0 0 0)
(0 0 0)
(0 0 0)
(0 0 0)
(0 0 0)
(0 0 0)
(0 0 0)
(0 0 0)
(0 0 0)
(0 0 0)
(0 0 0)
(0 0 0)
(0 0 0)
(0 0 0)
(0 0 0)
(0 0 0)
(0 0 0)
(0 0 0)
(0 0 0)
(0 0 0)
(0 0 0)
(0 0 0)
(0 0 0)
(0 0 0)
(0 0 0)
(0 0 0)
(0 0 0)
(0 0 0)
(0 0 0)
(0 0 0)
(0 0 0)
(0 0 0)
(0 0 0)
(0 0 0)
(0 0 0)
(0 0 0)
(0 0 0)
(0 0 0)
(0 0 0)
(0 0 0)
(0 0 0)
(0 0 0)
(0 0 0)
(0 0 0)
(0 0 0)
(0 0 0)
(0 0 0)
(0 0 0)
(0 0 0)
(0 0 0)
(0 0 0)
(0 0 0)
(0 0 0)
(0 0 0)
(0 0 0)
(0 0 0)
(0 0 0)
(0 0 0)
(0 0 0)
(0 0 0)
(0 0 0)
(0 0 0)
(0 0 0)
(0 0 0)
(0 0 0)
(0 0 0)
(0 0 0)
(0 0 0)
(0 0 0)
(0 0 0)
(0 0 0)
(0 0 0)
(0 0 0)
(0 0 0)
(0 0 0)
(0 0 0)
(0 0 0)
(0 0 0)
(0 0 0)
(0 0 0)
(0 0 0)
(0 0 0)
(0 0 0)
(0 0 0)
(0 0 0)
(0 0 0)
(0 0 0)
(0 0 0)
(0 0 0)
(0 0 0)
(0 0 0)
(0 0 0)
(0 0 0)
(0 0 0)
(0 0 0)
(0 0 0)
(0 0 0)
(0 0 0)
(0 0 0)
(0 0 0)
(0 0 0)
(0 0 0)
(0 0 0)
(0 0 0)
(0 0 0)
(0 0 0)
(0 0 0)
(0 0 0)
(0 0 0)
(0 0 0)
(0 0 0)
(0 0 0)
(0 0 0)
(0 0 0)
(0 0 0)
(0 0 0)
(0 0 0)
(0 0 0)
(0 0 0)
(0 0 0)
(0 0 0)
(0 0 0)
(0 0 0)
(0 0 0)
(0 0 0)
(0 0 0)
(0 0 0)
(0 0 0)
(0 0 0)
(0 0 0)
(0 0 0)
(0 0 0)
(0 0 0)
(0 0 0)
(0 0 0)
(0 0 0)
(0 0 0)
(0 0 0)
(0 0 0)
(0 0 0)
(0 0 0)
(0 0 0)
(0 0 0)
(0 0 0)
(0 0 0)
(0 0 0)
(0 0 0)
(0 0 0)
(0 0 0)
(0 0 0)
(0 0 0)
(0 0 0)
(0 0 0)
(0 0 0)
(0 0 0)
(0 0 0)
(0 0 0)
(0 0 0)
(0 0 0)
(0 0 0)
(0 0 0)
(0 0 0)
(0 0 0)
(0 0 0)
(0 0 0)
(0 0 0)
(0 0 0)
(0 0 0)
(0 0 0)
(0 0 0)
(0 0 0)
(0 0 0)
(0 0 0)
(0 0 0)
(0 0 0)
(0 0 0)
(0 0 0)
(0 0 0)
(0 0 0)
(0 0 0)
(0 0 0)
(0 0 0)
(0 0 0)
(0 0 0)
(0 0 0)
(0 0 0)
(0 0 0)
(0 0 0)
(0 0 0)
(0 0 0)
(0 0 0)
(0 0 0)
(0 0 0)
(0 0 0)
(0 0 0)
(0 0 0)
(0 0 0)
(0 0 0)
(0 0 0)
(0 0 0)
(0 0 0)
(0 0 0)
(0 0 0)
(0 0 0)
(0 0 0)
(0 0 0)
(0 0 0)
(0 0 0)
(0 0 0)
(0 0 0)
(0 0 0)
(0 0 0)
(0 0 0)
(0 0 0)
(0 0 0)
(0 0 0)
(0 0 0)
(0 0 0)
(0 0 0)
(0 0 0)
(0 0 0)
(0 0 0)
(0 0 0)
(0 0 0)
(0 0 0)
(0 0 0)
(0 0 0)
(0 0 0)
(0 0 0)
(0 0 0)
(0 0 0)
(0 0 0)
(0 0 0)
(0 0 0)
(0 0 0)
(0 0 0)
(0 0 0)
(0 0 0)
(0 0 0)
(0 0 0)
(0 0 0)
(0 0 0)
(0 0 0)
(0 0 0)
(0 0 0)
(0 0 0)
(0 0 0)
(0 0 0)
(0 0 0)
(0 0 0)
(0 0 0)
(0 0 0)
(0 0 0)
(0 0 0)
(0 0 0)
(0 0 0)
(0 0 0)
(0 0 0)
(0 0 0)
(0 0 0)
(0 0 0)
(0 0 0)
(0 0 0)
(0 0 0)
(0 0 0)
(0 0 0)
(0 0 0)
(0 0 0)
(0 0 0)
(0 0 0)
(0 0 0)
(0 0 0)
(0 0 0)
(0 0 0)
(0 0 0)
(0 0 0)
(0 0 0)
(0 0 0)
(0 0 0)
(0 0 0)
(0 0 0)
(0 0 0)
(0 0 0)
(0 0 0)
(0 0 0)
(0 0 0)
(0 0 0)
(0 0 0)
(0 0 0)
(0 0 0)
(0 0 0)
(0 0 0)
(0 0 0)
(0 0 0)
(0 0 0)
(0 0 0)
(0 0 0)
(0 0 0)
(0 0 0)
(0 0 0)
(0 0 0)
(0 0 0)
(0 0 0)
(0 0 0)
(0 0 0)
(0 0 0)
(0 0 0)
(0 0 0)
(0 0 0)
(0 0 0)
(0 0 0)
(0 0 0)
(0 0 0)
(0 0 0)
(0 0 0)
(0 0 0)
(0 0 0)
(0 0 0)
(0 0 0)
(0 0 0)
(0 0 0)
(0 0 0)
(0 0 0)
(0 0 0)
(0 0 0)
(0 0 0)
(0 0 0)
(0 0 0)
(0 0 0)
(0 0 0)
(0 0 0)
(0 0 0)
(0 0 0)
(0 0 0)
(0 0 0)
(0 0 0)
(0 0 0)
(0 0 0)
(0 0 0)
(0 0 0)
(0 0 0)
(0 0 0)
(0 0 0)
(0 0 0)
(0 0 0)
(0 0 0)
(0 0 0)
(0 0 0)
(0 0 0)
(0 0 0)
(0 0 0)
(0 0 0)
(0 0 0)
(0 0 0)
(0 0 0)
(0 0 0)
(0 0 0)
(0 0 0)
(0 0 0)
(0 0 0)
(0 0 0)
(0 0 0)
(0 0 0)
(0 0 0)
(0 0 0)
(0 0 0)
(0 0 0)
(0 0 0)
(0 0 0)
(0 0 0)
(0 0 0)
(0 0 0)
(0 0 0)
(0 0 0)
(0 0 0)
(0 0 0)
(0 0 0)
(0 0 0)
(0 0 0)
(0 0 0)
(0 0 0)
(0 0 0)
(0 0 0)
(0 0 0)
(0 0 0)
(0 0 0)
(0 0 0)
(0 0 0)
(0 0 0)
(0 0 0)
(0 0 0)
(0 0 0)
(0 0 0)
(0 0 0)
(0 0 0)
(0 0 0)
(0 0 0)
(0 0 0)
(0 0 0)
(0 0 0)
(0 0 0)
(0 0 0)
(0 0 0)
(0 0 0)
(0 0 0)
(0 0 0)
(0 0 0)
(0 0 0)
(0 0 0)
(0 0 0)
(0 0 0)
(0 0 0)
(0 0 0)
(0 0 0)
(0 0 0)
(0 0 0)
(0 0 0)
(0 0 0)
(0 0 0)
(0 0 0)
(0 0 0)
(0 0 0)
(0 0 0)
(0 0 0)
(0 0 0)
(0 0 0)
(0 0 0)
(0 0 0)
(0 0 0)
(0 0 0)
(0 0 0)
(0 0 0)
(0 0 0)
(0 0 0)
(0 0 0)
(0 0 0)
(0 0 0)
(0 0 0)
(0 0 0)
(0 0 0)
(0 0 0)
(0 0 0)
(0 0 0)
(0 0 0)
(0 0 0)
(0 0 0)
(0 0 0)
(0 0 0)
(0 0 0)
(0 0 0)
(0 0 0)
(0 0 0)
(0 0 0)
(0 0 0)
(0 0 0)
(0 0 0)
(0 0 0)
(0 0 0)
(0 0 0)
(0 0 0)
(0 0 0)
(0 0 0)
(0 0 0)
(0 0 0)
(0 0 0)
(0 0 0)
(0 0 0)
(0 0 0)
(0 0 0)
(0 0 0)
(0 0 0)
(0 0 0)
(0 0 0)
(0 0 0)
(0 0 0)
(0 0 0)
(0 0 0)
(0 0 0)
(0 0 0)
(0 0 0)
(0 0 0)
(0 0 0)
(0 0 0)
(0 0 0)
(0 0 0)
(0 0 0)
(0 0 0)
(0 0 0)
(0 0 0)
(0 0 0)
(0 0 0)
(0 0 0)
(0 0 0)
(0 0 0)
(0 0 0)
(0 0 0)
(0 0 0)
(0 0 0)
(0 0 0)
(0 0 0)
(0 0 0)
(0 0 0)
(0 0 0)
(0 0 0)
(0 0 0)
(0 0 0)
(0 0 0)
(0 0 0)
(0 0 0)
(0 0 0)
(0 0 0)
(0 0 0)
(0 0 0)
(0 0 0)
(0 0 0)
(0 0 0)
(0 0 0)
(0 0 0)
(0 0 0)
(0 0 0)
(0 0 0)
(0 0 0)
(0 0 0)
(0 0 0)
(0 0 0)
(0 0 0)
(0 0 0)
(0 0 0)
(0 0 0)
(0 0 0)
(0 0 0)
(0 0 0)
(0 0 0)
(0 0 0)
(0 0 0)
(0 0 0)
(0 0 0)
(0 0 0)
(0 0 0)
(0 0 0)
(0 0 0)
(0 0 0)
(0 0 0)
(0 0 0)
(0 0 0)
(0 0 0)
(0 0 0)
(0 0 0)
(0 0 0)
(0 0 0)
(0 0 0)
(0 0 0)
(0 0 0)
(0 0 0)
(0 0 0)
(0 0 0)
(0 0 0)
(0 0 0)
(0 0 0)
(0 0 0)
(0 0 0)
(0 0 0)
(0 0 0)
(0 0 0)
(0 0 0)
(0 0 0)
(0 0 0)
(0 0 0)
(0 0 0)
(0 0 0)
(0 0 0)
(0 0 0)
(0 0 0)
(0 0 0)
(0 0 0)
(0 0 0)
(0 0 0)
(0 0 0)
(0 0 0)
(0 0 0)
(0 0 0)
(0 0 0)
(0 0 0)
(0 0 0)
(0 0 0)
(0 0 0)
(0 0 0)
(0 0 0)
(0 0 0)
(0 0 0)
(0 0 0)
(0 0 0)
(0 0 0)
(0 0 0)
(0 0 0)
(0 0 0)
(0 0 0)
(0 0 0)
(0 0 0)
(0 0 0)
(0 0 0)
(0 0 0)
(0 0 0)
(0 0 0)
(0 0 0)
(0 0 0)
(0 0 0)
(0 0 0)
(0 0 0)
(0 0 0)
(0 0 0)
(0 0 0)
(0 0 0)
(0 0 0)
(0 0 0)
(0 0 0)
(0 0 0)
(0 0 0)
(0 0 0)
(0 0 0)
(0 0 0)
(0 0 0)
(0 0 0)
(0 0 0)
(0 0 0)
(0 0 0)
(0 0 0)
(0 0 0)
(0 0 0)
(0 0 0)
(0 0 0)
(0 0 0)
(0 0 0)
(0 0 0)
(0 0 0)
(0 0 0)
(0 0 0)
(0 0 0)
(0 0 0)
(0 0 0)
(0 0 0)
(0 0 0)
(0 0 0)
(0 0 0)
(0 0 0)
(0 0 0)
(0 0 0)
(0 0 0)
(0 0 0)
(0.0970727 -0.0193562 -0.0280384)
(0.000389303 -0.00689883 -0.00418392)
(0.118415 0.00337173 -0.0380103)
(0.05257 0.00534246 -0.0131028)
(-0.0231425 -0.00240937 -0.0132437)
(-0.00920823 0.00805512 -0.00901016)
(-0.0210882 0.00723033 -0.00807294)
(-0.00880829 0.0122952 -0.0128119)
(0.0717252 -0.0487932 -0.0304366)
(0.0842756 -0.0271411 -0.0270415)
(0.152907 -0.0357761 -0.0137992)
(0.144857 -0.0658242 -0.00811025)
(0.216908 -0.0624617 -0.000166044)
(0.198168 0.00345057 0.000196251)
(0.0617192 0.0382154 0.00291928)
(0.177543 0.00590564 0.000468199)
(0.0868164 0.0808738 -0.00158914)
(-0.00390376 0.0241605 -0.00821324)
(-0.0592929 8.28819e-05 0.00132269)
(-0.0211145 0.0484267 -0.0340695)
(-0.0893962 -0.0114857 0.0173669)
(-0.0329408 -0.00896757 -0.00467559)
(-0.0250688 -0.0208429 -0.0075407)
(-0.0743493 -0.0413551 0.0044883)
(-0.0481582 -0.0299835 -0.0124648)
(-0.0177274 -0.0129848 -0.00456251)
(0.104322 -0.100185 -0.0372258)
(0.0627614 -0.0660081 -0.0933862)
(0.137477 -0.0730297 -0.0364647)
(0.184083 -0.0806602 0.00672809)
(0.142081 -0.0256016 0.00167801)
(0.216544 -0.0318873 0.014272)
(0.159068 0.0300658 0.00451319)
(0.0791862 0.0132172 -0.00709553)
(0.100648 0.123481 -0.0111275)
(0.0737471 0.0168865 -0.00440474)
(0.102532 0.054598 -0.0114957)
(-0.038308 0.0579554 -0.021827)
(-0.110018 -0.015537 -0.0108264)
(-0.0867052 0.0370948 -0.0379033)
(-0.113282 0.0096403 0.00329445)
(-0.0821827 -0.0235398 -0.000953965)
(-0.0749915 -0.0438478 -0.0465048)
(-0.109619 -0.00502635 -0.0217416)
(-0.120646 -0.0133917 -0.175686)
(-0.0367041 -0.0408766 -0.0735615)
(-0.0435855 -0.0159066 -0.155137)
(-0.00838385 -0.00343447 -0.0318445)
(0.0552778 -0.0293515 -0.0894081)
(0.132488 -0.0120376 -0.0425261)
(0.07749 -0.0525641 -0.0776453)
(0.233748 0.0503958 -0.00886156)
(0.239718 0.0635188 -0.0180569)
(0.211127 0.0168551 -0.0252941)
(0.284209 0.0765386 -0.023329)
(0.0980511 0.0366903 -0.000724494)
(0.0863844 -0.0239804 -0.00710362)
(0.124822 0.0660249 0.00347312)
(0.0809519 -0.0163256 -0.00106669)
(-0.0577412 0.0319548 0.000351533)
(-0.126017 0.0335357 -0.00382154)
(0.0442386 -0.0723457 0.001133)
(-0.0689504 -0.00587411 -0.00605814)
(-0.110157 0.0238617 -0.0117757)
(-0.0868467 0.0354154 -0.0647097)
(-0.0935594 0.0479228 -0.00647219)
(-0.0762962 0.0755895 -0.0592297)
(-0.0242055 0.0327333 -0.0400045)
(-0.00941885 0.00869825 -0.0231955)
(-0.0292956 0.0531979 -0.0283232)
(0.0483754 -0.0462978 -0.0551736)
(0.147983 -0.0171085 -0.041652)
(0.248433 0.0522298 -0.0257676)
(0.083667 0.0110321 -0.0279801)
(0.144932 0.0265243 -0.0114171)
(0.143188 0.063688 0.0210255)
(0.0602015 -0.00164769 0.00321848)
(0.0862467 0.000615629 0.0121263)
(0.00725642 -0.0162388 0.00495313)
(0.0815936 -0.130637 0.00154608)
(0.0732471 -0.152919 0.010759)
(0.0454586 -0.137535 0.00790526)
(0.0497462 -0.172019 0.0164402)
(-0.0666948 0.0223399 0.00344784)
(-0.0523987 0.0624143 -0.0319286)
(-0.00970928 -0.0926124 0.000822723)
(-0.0290674 -0.00588439 -0.0127913)
(-0.0234403 0.0351004 -0.00682312)
(0.0375385 0.0149487 -0.00371252)
(0.00320999 -0.000944893 -0.00161674)
(-0.0468185 -0.0236284 5.64021e-05)
(-0.0483228 -0.0323459 -0.0663172)
(-0.0429708 -0.0646246 -0.0249438)
(0.0382654 -0.119182 -0.00996531)
(-0.0411546 -0.0259082 -0.0624882)
(0.013958 -0.0643634 -0.0176332)
(0.0693017 -0.0074505 -0.0905178)
(-0.0358624 0.0470298 -0.120947)
(0.100511 0.00262865 -0.0566572)
(0.122632 -0.00761391 -0.0694485)
(0.109837 0.0060219 -0.0649088)
(0.029765 0.0239339 -0.0620355)
(-0.0082565 0.0174208 -0.0803353)
(-0.000497437 0.0335615 -0.0411081)
(-0.0824577 -0.0162793 -0.106952)
(-0.0958931 -0.0373009 -0.180455)
(-0.0135056 0.0195341 -0.14247)
(-0.0964566 0.00328238 -0.107661)
(-0.10146 -0.0269665 -0.152654)
(-0.0834774 -0.0461591 -0.202106)
(-0.0777503 -0.0333624 -0.165643)
(0.0248962 -0.00660539 -0.0963634)
(-0.00180737 0.0398019 -0.214072)
(0.101398 -0.00473008 -0.0580198)
(0.0723357 -0.00214436 -0.0228916)
(0.187042 -0.0140745 0.0463051)
(-0.0327282 0.0533997 -0.15159)
(-0.0295497 0.0590364 -0.0724624)
(0.0013278 0.0282056 -0.0207668)
(0.0982272 0.00959231 0.0530344)
(-0.102347 -0.107048 -0.144646)
(-0.14055 -0.0844294 -0.122691)
(-0.121151 -0.100487 -0.188331)
(-0.129976 -0.0795932 -0.0682359)
(-0.0997993 -0.0893488 -0.0992047)
(-0.177785 -0.0789534 -0.0589745)
(-0.114149 -0.0486934 -0.194955)
(-0.0628923 -0.0919934 -0.242376)
(-0.0460308 -0.045958 -0.279623)
(0.055339 -0.0182674 -0.0638458)
(0.0375246 -0.0622997 -0.184008)
(0.0840768 -0.070223 -0.087977)
(0.00631658 0.0443129 -0.120318)
(0.00673354 0.0365105 -0.212516)
(0.00415116 -0.00869249 -0.115469)
(-0.0760951 -0.0187348 -0.331778)
(-0.00617643 -0.00800449 -0.265468)
(-0.0645265 -0.0392591 -0.383531)
(-0.0891789 -0.0577862 -0.402683)
(-0.0169278 -0.0661547 -0.332045)
(0.0648686 -0.131209 -0.0901378)
(-0.00563192 -0.155877 -0.171026)
(0.00024351 -0.0551023 -0.169092)
(-0.00375503 -0.1322 -0.0863241)
(-0.0662385 -0.179179 -0.184363)
(-0.0131283 0.0291623 -0.246748)
(-0.0658511 0.0851809 -0.238636)
(-0.0885589 -0.0195267 -0.349201)
(-0.0124186 -0.015941 -0.323297)
(-0.0626932 0.00436603 -0.304403)
(-0.0441421 -0.135213 -0.172312)
(-0.0883883 -0.162797 -0.237989)
(0.177518 -0.03427 -0.0553999)
(-0.0106473 -0.0611609 -0.128876)
(0.0931136 -0.0318188 -0.0808453)
(-0.130561 -0.195115 -0.225146)
(0.040333 -0.137436 -0.0136931)
(-0.119204 -0.138124 -0.23466)
(-0.0320411 -0.120328 -0.109494)
(-0.116378 0.148872 -0.133623)
(-0.113558 0.0468814 -0.0481725)
(-0.0959867 0.0946496 -0.0858006)
(-0.176906 0.123347 -0.0301034)
(-0.115478 0.122239 -0.0791574)
(-0.143921 0.157815 -0.0163398)
(-0.111812 0.13758 -0.0220759)
(-0.0598849 0.0816757 -0.145864)
(0.0512878 -0.00143081 -0.116347)
(-0.0399317 -0.0591658 -0.147112)
(0.0219819 -0.0465137 -0.055343)
(0.014882 -0.0278198 -0.154171)
(0.0251041 -0.0548003 -0.0810888)
(0.075158 -0.0403293 -0.0777978)
(0.05179 -0.00574018 -0.164628)
(-0.0142716 -0.0448067 -0.0570972)
(-0.0241638 -0.0259029 -0.139543)
(-0.00929698 -0.0383426 -0.112565)
(-0.0483653 -0.00216661 -0.0904397)
(0.00986649 -0.00995754 -0.154858)
(-0.0908335 0.0497892 -0.0725224)
(-0.096888 0.0584858 -0.12562)
(-0.104577 0.0550396 -0.120161)
(-0.046705 0.024277 -0.0984692)
(-0.0942856 0.0605129 -0.0470524)
(-0.0653088 0.0791287 -0.0146066)
(-0.0537553 0.0124202 -0.122958)
(-0.109213 0.0637993 -0.0391467)
(-0.106671 0.069978 -0.0160412)
(-0.110738 0.0194413 -0.0574567)
(-0.0988404 -0.0178799 -0.0995771)
(-0.0524771 0.00469636 -0.102772)
(-0.11386 0.02327 -0.00470337)
(-0.0980258 -0.0158238 -0.0541495)
(-0.066018 -0.0200407 -0.115134)
(-0.058223 -0.0141902 -0.103094)
(-0.00803097 0.040372 -0.339714)
(-0.0415448 0.0576631 -0.268512)
(-0.0943402 0.083228 -0.0720417)
(-0.0569145 0.0271759 -0.0198753)
(0.00517584 0.00683427 0.0795675)
(-0.00507306 -0.00483684 -0.253545)
(-0.135447 0.0615775 -0.0240961)
(-0.0751365 0.012877 -0.042829)
(-0.0400218 -0.000335499 0.110272)
(-0.0738317 -0.0453751 -0.072388)
(-0.154677 0.0236361 -0.0177264)
(-0.0808379 0.0116313 -0.183041)
(-0.0792716 0.0206555 0.0295181)
(-0.035445 0.0484503 -0.0549199)
(-0.12036 0.0936979 0.083719)
(-0.0382122 0.0701087 -0.098706)
(-0.0281225 -0.0101348 -0.31267)
(-0.00813224 0.0302067 -0.331206)
(-0.0434131 0.0924405 -0.262846)
(-0.0205661 0.141579 -0.216988)
(-0.0706732 0.0409241 -0.12346)
(-0.0543666 0.108224 -0.228564)
(-0.0193586 0.170875 -0.151866)
(-0.115468 0.0244831 -0.0279538)
(-0.0538237 -0.10354 -0.457357)
(-0.0212162 -0.0832778 -0.417908)
(-0.0531122 -0.0642185 -0.435756)
(-0.0154551 -0.114434 -0.443812)
(-0.0176428 -0.063635 -0.409339)
(-0.0959433 -0.131803 -0.0245081)
(-0.109058 -0.16043 -0.14144)
(0.0103894 0.0786511 -0.135657)
(-0.166374 -0.141728 0.0634076)
(-0.127631 -0.149177 -0.0673224)
(0.00202819 -0.0561263 -0.421833)
(-0.0208174 -0.0667092 -0.375699)
(0.0110412 -0.0783955 -0.42566)
(0.00245115 -0.0514664 -0.404623)
(-0.00715444 -0.0998341 -0.381764)
(-0.101461 -0.142348 -0.215243)
(-0.0717438 -0.0976246 -0.149195)
(-0.0671596 -0.206898 0.0319172)
(-0.126695 -0.127286 -0.218083)
(-0.107873 -0.133658 -0.113823)
(-0.170936 -0.158574 -0.108826)
(-0.130826 -0.205406 0.102327)
(-0.114699 -0.106475 -0.172482)
(-0.14853 -0.113371 -0.0981653)
(-0.0430209 0.027268 -0.0122538)
(-0.114602 0.131276 0.0402215)
(-0.0671916 0.0672745 0.0141396)
(-0.0613081 -0.00512848 0.0812259)
(-0.00137237 -0.0226168 0.0519465)
(-0.0557567 0.0624119 0.0980032)
(-0.020777 0.0125913 0.0599679)
(0.017033 -0.0662564 -0.238972)
(-0.0761094 -0.0618738 -0.133091)
(-0.105208 -0.0608631 -0.125941)
(0.0662466 -0.0515576 -0.0642941)
(0.0366583 -0.00558776 -0.131405)
(-0.0501527 -0.0195893 -0.056683)
(0.0191349 -0.0163458 -0.0421923)
(0.0118724 -0.00267249 -0.103413)
(-0.0702264 0.0200266 -0.088473)
(0.00797889 -0.00286895 -0.132006)
(-0.0143141 0.010212 -0.0432269)
(-0.071136 0.0309219 -0.0248274)
(-0.00048277 0.00243778 -0.0971798)
(-0.0889443 0.0707004 0.031195)
(-0.0844372 0.0314488 -0.0857881)
(-0.0798153 0.018981 -0.0567019)
(-0.0127786 0.00511374 -0.103871)
(-0.0936022 0.0377307 -0.0308067)
(-0.11524 0.0355205 0.0131491)
(0.0316077 0.000231712 -0.0725436)
(-0.0736003 0.0119838 -0.0230851)
(-0.117021 0.00577641 0.0580957)
(-0.116971 0.00688182 0.0275607)
(-0.0934486 -0.014699 -0.0308899)
(-0.0341233 -0.00284828 -0.0383705)
(-0.114254 -0.0118976 0.0625027)
(-0.0659309 -0.013952 -0.0120583)
(-0.0487488 -0.0149933 -0.0919336)
(-0.016985 -0.00105516 -0.0914878)
(-0.0639727 0.067306 -0.195966)
(-0.110045 0.0730284 -0.0994861)
(-0.157617 0.0361196 0.024622)
(-0.0938602 0.0188785 -0.0585483)
(-0.0721442 -0.00238178 0.143665)
(-0.0467442 0.00792305 -0.107691)
(-0.180957 0.0230174 0.0624733)
(-0.157677 0.00876281 -0.0253236)
(-0.127071 0.000476847 0.176485)
(0.0245813 0.0949891 -0.127339)
(-0.0694767 0.177072 0.121902)
(-0.00140347 0.165125 -0.091743)
(0.00396164 0.06295 -0.0369432)