/*--------------------------------*- C++ -*----------------------------------*\
| =========                 |                                                 |
| \\      /  F ield         | OpenFOAM: The Open Source CFD Toolbox           |
|  \\    /   O peration     | Version:  5.x                                   |
|   \\  /    A nd           | Web:      www.OpenFOAM.org                      |
|    \\/     M anipulation  |                                                 |
\*---------------------------------------------------------------------------*/
FoamFile
{
    version     2.0;
    format      ascii;
    class       volScalarField;
    location    "2";
    object      p;
}
// * * * * * * * * * * * * * * * * * * * * * * * * * * * * * * * * * * * * * //

dimensions      [0 2 -2 0 0 0 0];

internalField   nonuniform List<scalar> 
10571
(
175.603
179.989
179.032
173.697
169.946
151.669
175.168
152.837
143.567
154.552
139.533
143.887
139.416
99.2872
122.826
89.76
135.753
106.424
75.9622
34.3842
23.0541
74.0582
21.6537
20.2543
173.698
155.818
168.406
167.508
132.879
147.934
87.3629
64.8618
33.384
32.5924
138.597
134.601
28.6077
32.8064
17.2348
15.5608
48.8435
12.2367
18.9604
20.4624
20.1237
17.3942
20.4554
20.5639
132.821
110.464
119.749
105.761
50.7864
107.121
21.3869
17.5996
14.1047
16.3414
119.494
38.0789
13.8993
19.2695
15.7919
16.6399
15.9705
21.0135
21.0542
17.8908
17.9572
18.7862
20.3406
19.8219
69.0187
49.8239
58.317
49.3987
17.9262
15.5802
14.2391
14.3892
17.2843
16.5133
14.6733
14.0609
14.4174
14.8193
15.7881
16.3634
15.0191
18.7117
18.1951
16.0054
16.6397
17.2669
19.7468
19.5182
35.4747
15.7202
21.4466
25.0041
17.2438
13.9738
14.2293
15.3421
16.7555
16.7647
14.4164
14.2007
14.1406
14.3409
14.7859
15.6793
14.3666
14.747
14.821
15.0694
15.3324
15.8046
16.6515
14.3088
20.5598
13.3677
13.1542
14.604
15.4905
13.5003
13.2834
13.7601
14.7537
14.0449
13.7857
13.804
13.7742
13.3847
13.8813
13.9429
14.4397
13.5394
13.8361
13.0284
12.9783
13.7252
13.8686
13.1876
13.2533
13.1798
14.3021
13.1898
13.0377
13.0256
13.532
13.3842
13.1643
13.049
13.4141
13.6515
13.7767
13.635
13.5183
13.1143
13.1438
13.8664
13.7224
13.4819
13.5403
13.051
12.8098
13.3962
13.6878
13.4562
13.2347
12.7536
12.9417
13.1017
13.2085
13.0575
13.0559
13.1921
13.365
13.1781
13.1493
13.3556
13.5494
13.675
13.4963
13.3908
13.2261
12.8945
13.3769
13.71
13.09
13.3951
13.1174
12.8166
13.3302
14.1795
13.6737
13.1957
12.8731
12.8357
13.1455
13.3166
13.1481
13.0907
13.1833
13.3724
13.1892
13.1172
13.2515
13.2765
13.4483
13.4487
13.3405
13.247
13.0344
13.0446
13.0036
13.1655
13.3309
13.1288
12.9534
12.7625
13.1888
13.1015
12.9569
12.837
13.2282
13.3898
13.2552
13.1625
13.2153
13.3949
13.2263
13.1164
13.187
13.1311
13.383
13.2917
13.233
13.121
13.1538
12.8463
13.2985
13.1614
13.064
13.0454
12.3621
13.1843
13.0903
13.0101
13.3144
13.4142
13.3262
13.2292
13.2478
13.3838
13.2583
13.1432
13.149
13.1755
13.3679
13.2554
13.2299
13.1375
13.1646
13.0275
13.2752
13.209
13.1083
13.1056
13.1277
13.3408
13.2196
13.1216
13.3793
13.4279
13.3633
13.2928
13.2874
13.3844
13.2836
13.184
13.1838
13.325
13.4175
13.2968
13.2599
13.1459
13.178
13.1755
13.2991
13.206
13.1495
13.1875
13.1924
13.3653
13.2853
13.3152
13.4118
13.4364
13.3697
13.3357
13.3255
13.3912
13.2966
13.218
13.2095
13.3041
13.464
13.3667
13.3012
13.1782
13.276
13.1703
13.3744
13.1223
13.1572
13.434
13.2309
13.2056
13.2091
13.5234
13.4255
13.4507
13.3737
13.3618
13.3487
13.4115
13.2958
13.2473
13.2255
13.2581
13.5453
13.5215
13.3592
13.2494
13.2881
13.1819
13.5359
13.0671
13.1785
13.4235
13.3243
13.0518
13.0259
13.3076
13.4325
13.4222
13.3803
13.3859
13.3796
13.4088
13.2936
13.2965
13.2677
13.2755
13.5556
13.5426
13.3943
13.3484
13.2708
13.2423
13.8555
13.2311
13.249
13.3169
13.3399
13.2194
13.1637
13.3367
13.4312
13.3741
13.3699
13.4038
13.4077
13.387
13.285
13.3424
13.3239
13.3292
13.5115
13.4933
13.3734
13.4173
13.365
13.3592
13.7894
13.3132
13.3482
13.3428
13.3445
13.5132
13.3336
13.4947
13.4273
13.3515
13.35
13.4091
13.4125
13.3602
13.2798
13.377
13.3686
13.3632
13.4414
13.4057
13.3288
13.4479
13.4685
13.4056
13.5698
13.2729
13.3826
13.3919
13.4587
13.5475
13.4362
13.5516
13.419
13.3548
13.3467
13.4026
13.4101
13.3517
13.2888
13.3838
13.3809
13.3886
13.3904
13.3527
13.3286
13.4092
13.4133
13.3497
13.4284
13.2698
13.3523
13.3249
13.3398
13.4518
13.4937
13.4614
13.4165
13.3742
13.3664
13.3983
13.4096
13.3572
13.3253
13.3741
13.3644
13.369
13.3645
13.3456
13.3462
13.3638
13.3331
13.2859
13.3589
13.2512
13.2753
13.2435
13.1906
13.3742
13.4194
13.3262
13.4117
13.3942
13.3902
13.3951
13.4
13.3616
13.3549
13.3566
13.3536
13.3499
13.3451
13.3349
13.3658
13.3223
13.2922
13.2066
13.3348
13.3082
13.2658
13.1629
13.1074
13.3316
13.3307
13.2504
13.4115
13.4115
13.4049
13.3937
13.4026
13.3714
13.3638
13.3521
13.3639
13.3615
13.3417
13.333
13.3647
13.2988
13.338
13.2007
13.3306
13.3826
13.3143
13.1591
13.1801
13.3455
13.3175
13.2876
13.4131
13.423
13.4091
13.3981
13.4089
13.3806
13.3712
13.3589
13.391
13.4052
13.3382
13.3333
13.3609
13.3436
13.3397
13.332
13.3311
13.431
13.4035
13.3775
13.4916
13.3775
13.3468
13.3763
13.414
13.4272
13.4129
13.4007
13.4144
13.3685
13.3732
13.366
13.4075
13.4371
13.3192
13.3135
13.3895
13.3889
13.3603
13.4911
13.3187
13.4429
13.4738
13.4482
13.526
13.3932
13.382
13.4321
13.4162
13.4192
13.419
13.4016
13.4177
13.3153
13.3612
13.3834
13.4027
13.4383
13.2796
13.2561
13.4019
13.4215
13.3971
13.4887
13.296
13.4088
13.4635
13.4537
13.5086
13.384
13.3952
13.4429
13.4062
13.3849
13.3972
13.3921
13.4088
13.211
13.3428
13.3741
13.3882
13.4188
13.2492
13.1812
13.365
13.3749
13.3584
13.446
13.2711
13.3507
13.3736
13.3985
13.4577
13.3494
13.3664
13.4027
13.3892
13.335
13.3607
13.3777
13.3932
13.1148
13.3204
13.3794
13.3617
13.3931
13.2429
13.1682
13.3004
13.3155
13.299
13.3861
13.2498
13.2741
13.2488
13.305
13.3614
13.2959
13.2947
13.2981
13.3735
13.2657
13.3223
13.3707
13.3722
13.1167
13.2822
13.3498
13.3234
13.3585
13.2339
13.1841
13.2272
13.2619
13.2404
13.318
13.2272
13.191
13.1504
13.1805
13.261
13.2294
13.1823
13.1489
13.3405
13.1798
13.2414
13.3409
13.3385
13.1424
13.223
13.2666
13.28
13.3179
13.2045
13.1755
13.1568
13.1635
13.1852
13.2575
13.1983
13.1183
13.0579
13.0884
13.1924
13.1609
13.0606
13.0404
13.287
13.1129
13.1193
13.2821
13.2932
13.1267
13.1653
13.1676
13.2356
13.2682
13.1745
13.1514
13.1079
13.0708
13.1482
13.2132
13.1707
13.0797
12.9971
13.0542
13.1588
13.115
12.9903
13.0255
13.2205
13.1182
13.0174
13.2073
13.2511
13.1525
13.1321
13.0728
13.1854
13.2139
13.1638
13.1449
13.0922
13.028
13.1361
13.1837
13.1575
13.082
12.9921
13.0599
13.1519
13.1055
13.0058
13.0585
13.1891
13.1578
12.9727
13.1646
13.2786
13.1878
13.1317
13.0327
13.1222
13.1771
13.178
13.1582
13.1223
13.045
13.1239
13.1692
13.1629
13.1124
13.0087
13.073
13.1585
13.1283
13.0699
13.0993
13.1936
13.207
13.0889
13.1644
13.2683
13.1959
13.1593
13.057
13.0635
13.1679
13.2035
13.1789
13.1653
13.0909
13.1171
13.1632
13.1801
13.1517
13.0319
13.0874
13.1694
13.1665
13.1497
13.1352
13.2293
13.2457
13.2541
13.1997
13.2105
13.2056
13.1847
13.1103
13.0109
13.1617
13.225
13.2018
13.2079
13.1408
13.1165
13.1611
13.1998
13.1853
13.0507
13.1017
13.1755
13.2041
13.2221
13.1654
13.2683
13.2763
13.3323
13.2354
13.1389
13.2059
13.186
13.1458
12.9746
13.1441
13.2409
13.2145
13.2293
13.1688
13.1112
13.1532
13.216
13.2085
13.0615
13.0952
13.1738
13.2313
13.2729
13.1926
13.272
13.271
13.2884
13.2474
13.1179
13.2025
13.1637
13.1519
12.9573
13.1262
13.2436
13.2184
13.2315
13.1669
13.0967
13.1456
13.2285
13.2283
13.1016
13.0863
13.164
13.2493
13.2932
13.22
13.2492
13.2553
13.223
13.2269
13.111
13.205
13.1463
13.1339
12.9368
13.1081
13.24
13.2321
13.2335
13.1582
13.0672
13.1365
13.2396
13.2499
13.1585
13.1068
13.1579
13.2625
13.3073
13.2592
13.2294
13.2954
13.1807
13.1996
13.0873
13.2415
13.1329
13.1056
12.9191
13.1006
13.2331
13.2391
13.2326
13.1421
13.0874
13.1385
13.2466
13.2756
13.2072
13.1728
13.1752
13.277
13.3201
13.4232
13.2242
13.2289
13.1797
13.188
13.0813
13.1981
13.1192
13.06
12.9639
13.1051
13.2219
13.2248
13.2287
13.1719
13.1838
13.1674
13.2487
13.3002
13.2714
13.2272
13.2157
13.2898
13.3202
13.361
13.2046
13.0945
13.1568
13.1768
13.1286
13.1593
13.1082
13.0407
13.0625
13.1026
13.2071
13.2096
13.228
13.2389
13.2898
13.2178
13.2486
13.3136
13.3411
13.3019
13.3056
13.2976
13.3224
13.3702
13.2066
13.0705
13.1419
13.1808
13.1833
13.1342
13.1379
13.0349
13.1157
13.1262
13.1907
13.1935
13.2275
13.2651
13.3344
13.2887
13.2437
13.3061
13.3812
13.4525
13.3702
13.2959
13.3238
13.3996
13.2569
13.0657
13.1324
13.2145
13.2342
13.1123
13.1619
13.065
13.1226
13.1678
13.1749
13.1779
13.2144
13.2206
13.3553
13.3387
13.2267
13.2715
13.3695
13.4603
13.4486
13.2766
13.3094
13.3893
13.3108
13.0284
13.1148
13.224
13.2475
13.0964
13.1711
13.1429
13.1135
13.2433
13.1623
13.1627
13.1837
13.177
13.3035
13.3559
13.1963
13.2178
13.3094
13.3833
13.4541
13.2383
13.276
13.3411
13.2552
12.9581
12.8661
13.1786
13.2986
13.0886
13.1492
13.2357
13.0828
13.2775
13.159
13.1555
13.1514
13.1619
13.1861
13.259
13.1599
13.1677
13.2384
13.263
13.2951
13.1958
13.2319
13.2671
13.164
13.0958
12.689
13.038
13.3632
13.135
13.1519
13.3111
13.08
13.2767
13.1756
13.1707
13.1296
13.1613
13.1004
13.1585
13.1418
13.1382
13.1817
13.1701
13.1616
13.1689
13.1814
13.1977
13.1177
13.3785
12.9086
13.0565
13.3832
13.2298
13.1995
13.3585
13.0934
13.2426
13.2009
13.1981
13.1235
13.1424
13.0487
13.093
13.1693
13.1357
13.1474
13.1049
13.0897
13.1613
13.1461
13.1401
13.0925
13.5349
13.2518
13.1086
13.2908
13.2973
13.2348
13.3162
13.1057
13.1912
13.2143
13.2153
13.1279
13.1041
13.0324
13.0487
13.203
13.137
13.119
13.0894
13.0584
13.1728
13.1239
13.1089
13.0624
13.5032
13.3789
13.1063
13.1231
13.2968
13.2151
13.1985
13.0697
13.1195
13.2117
13.2088
13.1282
13.0781
13.0228
13.0297
13.2046
13.1351
13.0857
13.0839
13.0417
13.2185
13.1194
13.0957
13.1337
13.3681
13.3517
13.1062
13.0362
13.25
13.1589
13.0743
12.9993
13.0413
13.1943
13.1847
13.109
13.0528
12.9982
12.9921
13.1827
13.1229
13.0521
13.0734
13.0187
13.2072
13.1216
13.089
13.1346
13.2425
13.2042
13.0764
13.0366
13.1946
13.1079
12.9721
12.9361
12.9731
13.1734
13.16
13.0912
13.0433
12.9764
12.9763
13.1608
13.1092
13.035
13.0689
13.0151
13.1663
13.1228
13.0889
13.1449
13.1728
13.0988
13.0186
12.9675
13.1559
13.0964
12.9073
12.9595
12.9461
13.1626
13.1464
13.0917
13.0502
12.9917
13.0046
13.1535
13.1125
13.0533
13.0874
13.0513
13.1387
13.1341
13.1065
12.9414
13.1414
13.0611
12.9059
12.8977
13.1415
13.1013
12.9336
13.0313
12.9634
13.1675
13.1497
13.109
13.08
13.0247
13.0659
13.1643
13.14
13.0961
13.1343
13.121
13.1386
13.1551
13.142
13.021
13.1386
13.0737
12.8877
12.9143
13.1511
13.1138
12.9908
13.1084
13.0963
13.1889
13.1707
13.138
13.1349
13.1123
13.2345
13.1899
13.1808
13.1492
13.1923
13.2099
13.178
13.1873
13.1866
13.2524
13.1614
13.1038
13.1066
13.0706
13.182
13.1444
13.1117
13.2135
13.2581
13.2249
13.2065
13.176
13.1979
13.1926
13.3263
13.2265
13.2151
13.1994
13.2392
13.2722
13.2116
13.2211
13.2263
13.2959
13.2064
13.1404
13.0268
13.144
13.2291
13.1757
13.1835
13.1723
13.2408
13.2724
13.2537
13.2209
13.2407
13.2257
13.2949
13.2714
13.2486
13.24
13.2608
13.2848
13.2461
13.2525
13.2604
13.0488
13.2681
13.2043
13.1079
13.0887
13.2876
13.2201
13.1912
13.0824
13.1175
13.3292
13.3091
13.2717
13.2735
13.2525
13.2473
13.3244
13.291
13.2835
13.2841
13.2889
13.2886
13.2978
13.2948
13.1651
13.3438
13.2841
13.173
13.1105
13.3566
13.3044
13.2317
13.0747
13.0339
13.3927
13.3714
13.3307
13.3123
13.2966
13.2479
13.3846
13.3495
13.3349
13.3151
13.3122
13.3474
13.3637
13.3311
13.3005
13.4288
13.3759
13.2836
13.0874
13.4325
13.3978
13.2899
13.1502
13.0392
13.4596
13.4381
13.3999
13.3597
13.3572
13.3133
13.4488
13.4157
13.3927
13.3592
13.3604
13.4145
13.3966
13.3876
13.4357
13.5182
13.4788
13.4243
13.3095
13.5098
13.4911
13.392
13.3147
13.3058
13.5259
13.5046
13.4725
13.416
13.4166
13.3908
13.5117
13.4774
13.4349
13.418
13.4057
13.4766
13.442
13.4474
13.614
13.605
13.5884
13.5846
13.7237
13.584
13.5768
13.5357
13.4842
13.5274
13.5883
13.5666
13.5368
13.4773
13.4193
13.3883
13.5694
13.5289
13.4639
13.4278
13.3909
13.5277
13.4833
13.4742
13.746
13.6849
13.6849
13.7239
13.914
13.6509
13.6455
13.6245
13.4873
13.3953
13.6434
13.6222
13.5906
13.5249
13.365
13.2424
13.6209
13.5734
13.4968
13.4199
13.3346
13.5697
13.5138
13.4782
13.8331
13.7569
13.764
13.8116
13.9082
13.7092
13.7058
13.655
13.3981
13.1036
13.6904
13.6711
13.6393
13.5586
13.2927
12.8491
13.6662
13.6185
13.5366
13.4071
13.2323
13.6073
13.5465
13.497
13.9023
13.8125
13.8306
13.8769
13.8717
13.7621
13.7571
13.6788
13.294
12.4093
13.7399
13.7211
13.6813
13.5604
13.1533
11.965
13.7134
13.6717
13.5816
13.389
12.9853
13.6594
13.5888
13.5278
13.968
13.8704
13.8866
13.9458
13.8259
13.8255
13.8093
13.7132
13.1954
10.4787
13.8115
13.7888
13.7246
13.579
13.0297
10.6974
-9.91005
13.777
13.7332
13.6403
13.3725
12.3755
13.715
13.6496
13.5748
14.0368
13.9643
13.983
14.0004
13.8077
13.9145
13.8829
13.7696
13.1877
9.41848
0.274687
13.9023
13.875
13.7819
13.6475
13.0462
10.3871
0.966414
13.8587
13.814
13.721
13.407
11.4725
13.7913
13.7327
13.663
14.0589
14.0606
14.0642
14.0227
13.8232
14.0098
13.9438
13.8255
13.2458
10.5612
2.8706
14.0063
13.9766
13.853
13.7161
13.2956
10.3863
3.00802
13.9572
13.9048
13.8309
13.5696
12.0375
3.82819
13.8894
13.8298
13.7925
14.1073
14.1147
14.0833
14.0253
13.8865
14.0894
13.9862
13.7549
13.3565
10.7159
2.63126
14.1031
14.063
13.9277
13.7584
13.4708
11.1088
2.37914
14.0577
13.9849
13.9392
13.6974
12.5925
13.9762
13.9249
13.913
14.0497
14.1867
14.1241
13.9873
13.8584
14.1752
14.033
13.7801
13.5283
11.8202
14.1794
14.134
14.0078
13.8493
13.6714
11.6441
-4.89178
14.1345
14.0583
14.0096
13.8675
13.7032
14.052
14.0012
14.0202
14.0074
14.2465
14.1483
13.976
13.8394
14.2165
14.0977
13.9125
13.7058
13.4497
14.1892
14.1573
14.055
13.9661
13.8764
13.4004
14.163
14.0919
14.0603
14.0149
14.0512
14.1077
14.056
14.1014
14.0018
14.2814
14.1369
13.973
13.8485
14.2278
14.105
13.9306
13.7454
13.8181
14.1879
14.1571
14.0809
13.9969
13.9571
13.9103
14.1582
14.1052
14.0676
14.0724
14.1559
14.1348
14.0837
14.1357
14.023
14.2462
14.0909
13.9753
13.8911
14.1883
14.0357
13.8772
13.7223
13.9269
14.1606
14.1324
14.0534
13.956
13.94
14.0033
14.1357
14.0912
14.0562
14.0692
14.1493
14.1377
14.0965
14.1315
14.0704
14.1925
14.0592
13.9974
13.9652
14.1299
13.9558
13.8537
13.7738
14.0088
14.1225
14.0877
13.9737
13.889
13.9161
14.0333
14.0989
14.0516
14.0339
14.042
14.1335
14.1214
14.0959
14.1238
14.1415
14.1513
14.0598
14.0514
14.0667
14.0699
13.926
13.893
13.9083
14.1064
14.082
14.031
13.9029
13.8928
13.9796
14.1102
14.055
14.0302
14.0536
14.0713
14.1615
14.1113
14.1158
14.1499
14.235
14.1387
14.106
14.1319
14.1705
14.0235
13.9516
13.9783
14.0255
14.1927
14.0047
13.9423
13.8936
13.9331
14.0767
14.1806
14.0064
14.0517
14.1122
14.1485
14.2328
14.1335
14.1712
14.2188
14.3442
14.1608
14.186
14.2142
14.2588
14.0228
14.0093
14.0482
14.1362
14.2536
13.9173
13.869
13.9175
13.9902
14.1115
14.2731
13.9891
14.0291
14.0954
14.2251
14.3232
14.2015
14.2586
14.3194
14.3927
14.1963
14.2485
14.2603
14.2933
14.0886
14.0656
14.0987
14.1761
14.2813
13.984
13.9255
13.9651
14.0304
14.1599
14.3139
14.0618
14.102
14.1721
14.286
14.3809
14.2735
14.3379
14.4012
189.226
179.171
182.164
180.309
179.365
180.353
177.177
178.38
189.169
210.148
208.108
217.864
205.866
194.669
182.479
203.654
189.138
179.746
175.51
174.282
167.134
178.166
183.732
163.402
183.527
197.416
172.184
152.871
159.768
182.186
182.235
159.01
175.233
195.435
187.136
194.783
172.727
168.332
152.838
141.378
136.779
150.096
170.379
140.007
168.462
217.301
226.787
225.322
146.204
148.632
145.654
153.835
164.022
147.127
150.332
167.38
137.512
139.546
119.999
115.569
124.09
105.676
129.654
147.213
182.881
154.097
141.666
199.508
200.114
114.208
142.196
143.708
136.466
134.721
128.562
126.233
114.301
121.843
118.496
115.688
127.848
113.822
77.263
100.053
67.0873
66.267
58.8544
70.0355
126.057
126.996
110.622
70.6354
48.7379
38.9909
35.3821
50.0938
177.415
177.145
177.658
177.35
177.665
178.021
178.219
178.044
175.937
175.019
176.719
176.517
174.179
173.866
168.545
156.079
149.985
181.162
166.469
177.882
165.558
174.851
152.511
162.251
171.295
158.387
165.9
159.683
147.484
145.78
131.802
163.37
108.536
147.907
140.879
143.705
148.451
146.127
146.352
149.081
129.991
90.8943
75.0287
58.5826
140.884
140.02
143.446
143.17
144.422
92.8638
31.2818
23.7918
31.6819
17.772
138.533
139.192
121.881
123.103
111.332
118.357
66.1826
81.4771
40.5662
20.8625
22.2952
21.8311
20.8147
19.9904
20.3042
20.2255
20.0512
94.8295
23.0192
37.5477
21.7875
18.9645
16.0613
15.6486
18.7051
17.1377
20.4623
20.9405
20.1604
20.5996
174.033
161.576
175.889
176.152
175.892
166.452
166.376
165.158
172.681
165.531
162.941
157.531
139.661
147.384
112.657
147.35
139.997
166.949
148.019
150.894
139.857
148.214
137.769
131.072
104.712
114.73
73.4125
91.5586
57.8311
55.9708
24.5164
44.9746
19.2322
145.527
140.524
141.725
137.207
133.261
133.751
21.2507
20.066
16.6136
16.5031
17.4951
140.361
138.087
130.803
131.956
107.865
16.9141
18.2884
16.2758
16.6135
18.2352
108.107
38.7674
24.0846
23.5034
16.9762
17.5998
17.1063
15.911
16.7604
20.3234
20.4309
20.253
19.5398
19.2911
19.8355
19.5336
19.083
16.8385
18.1987
16.6253
17.3933
18.6264
17.8866
18.6581
21.18
20.6752
20.3326
20.7554
20.5664
20.1154
132.652
94.0677
139.911
140.759
137.414
102.186
101.813
100.99
124.587
104.361
96.6283
90.9817
73.7848
77.5186
49.6776
112.56
68.8925
117.407
108.117
99.149
78.3079
84.0375
70.2297
63.296
21.6252
22.4157
16.1563
24.4051
16.1061
16.172
16.3115
16.4628
16.6514
117.497
122.59
119.504
65.1216
66.7926
56.6743
16.6581
16.9989
16.6562
16.6957
16.5508
106.203
29.7515
72.9345
27.3765
13.8334
16.7643
17.6025
16.5475
16.6408
16.9302
16.3425
15.3561
17.3855
16.0197
16.4693
15.4309
15.3364
15.4802
15.5688
18.124
19.2581
18.6013
16.63
17.3593
18.4424
17.7972
17.2311
17.3609
16.4737
18.6517
19.0756
18.2424
18.6951
19.2053
20.7028
20.7797
20.1569
21.0836
20.9453
19.6916
65.0522
43.4122
73.2379
71.8775
71.9538
52.2826
49.7088
50.5318
64.6565
51.6098
48.877
45.921
37.2614
34.0288
26.3186
31.9664
14.3339
56.1259
36.1335
29.8726
28.1957
34.535
15.5146
14.67
16.3752
16.1154
16.2655
17.2027
16.598
15.8578
16.1313
16.3931
16.2979
18.0651
15.0479
14.6464
13.1991
13.3687
13.3882
16.5109
16.4665
16.4886
16.4148
16.5152
13.0834
14.5122
13.7709
14.0695
14.6528
16.3711
16.409
16.0916
16.1161
15.8727
15.2202
14.8338
14.5175
15.2387
15.1196
14.7127
14.2245
15.1005
14.7729
16.8256
17.4035
16.884
15.6377
16.2104
15.7493
15.7254
16.0129
15.9634
15.9839
17.9819
18.6283
16.8693
17.415
18.1371
20.9673
20.4937
19.2135
20.2409
19.5684
18.0408
27.8391
18.8512
36.6481
33.7951
35.0528
26.2571
23.322
24.9085
33.708
28.8883
26.7084
25.4561
22.9795
22.478
19.7912
13.6361
13.3736
18.9724
13.3762
13.2565
13.7388
13.8026
13.2125
13.1131
16.631
15.9673
16.3631
17.2122
16.6115
14.8284
15.7509
16.5379
16.1913
14.0084
14.2153
14.1366
13.711
13.9243
13.8962
16.4336
16.7473
16.3604
15.8363
15.4004
14.2896
14.3542
14.0539
14.0316
14.0915
15.9806
15.3151
15.1015
14.555
14.7421
14.4836
14.2236
13.8831
14.6912
14.1833
14.0776
13.6496
14.293
13.6243
15.3548
13.8402
14.7099
14.3223
14.5724
13.136
14.1006
14.5935
15.1655
14.1129
16.0972
16.3997
13.9612
13.7274
13.7079
16.383
16.9258
14.178
13.5913
14.0791
13.106
14.2678
13.2997
19.5826
16.6694
18.5122
15.5083
13.3596
14.4544
19.6667
18.6093
16.4973
16.0059
15.5886
17.3098
15.3432
13.2867
13.3039
13.2538
13.1592
13.1117
13.2376
13.1712
13.1535
13.1332
15.0376
13.2849
13.4108
14.1272
13.8927
13.407
13.4806
13.6358
13.5908
13.5336
13.7308
13.6879
13.4993
13.6647
13.6064
13.841
14.4823
14.3253
13.6966
13.7372
13.7269
13.5056
13.8911
13.6829
13.7831
13.7432
13.9112
13.632
13.7988
13.8245
13.8868
13.7084
13.7141
13.7217
13.9968
14.14
11.9371
13.7283
13.1948
13.7998
12.9983
13.6159
13.4062
13.4472
13.462
13.6033
13.4293
13.4254
14.0076
13.8308
13.5144
13.9797
13.3626
13.6639
13.4353
13.7411
13.3188
13.976
13.0456
13.6901
13.425
13.6698
12.9932
13.4597
13.3854
13.599
13.4844
12.6184
12.76
13.1794
12.7843
12.9036
13.2394
13.2666
12.8205
13.0825
12.9936
13.0601
13.1568
13.1233
13.7799
13.0933
13.1323
13.0951
13.0886
13.0574
13.804
14.0364
13.2898
13.1442
13.3633
13.9724
13.2409
13.3433
13.3515
13.1265
13.1745
13.1433
13.1615
13.1143
13.1837
13.1607
13.5485
13.4102
13.5196
13.4129
13.5244
13.3916
13.4893
13.5958
13.7381
13.5454
13.7195
13.7483
13.8729
13.736
13.8985
13.4845
13.5984
13.5538
13.4728
13.5404
13.5076
13.7936
13.5009
13.6795
13.6363
13.737
13.3964
13.6145
13.9029
13.6338
13.717
13.7244
13.9098
13.512
13.6395
13.6328
13.6075
13.5599
13.5689
13.5351
13.5167
13.8223
13.3184
13.9011
13.5844
13.8569
13.4744
13.5449
13.3784
13.4183
13.3281
13.5047
13.2693
13.4397
13.6958
13.5985
13.3848
13.5778
13.3177
13.4546
13.3367
13.4631
13.29
13.6692
12.9722
13.4406
13.6418
13.7731
13.258
13.5963
13.2847
14.0498
14.3951
13.4306
13.4649
13.4684
13.4329
13.3682
12.9484
12.9718
13.2403
13.0159
12.9977
12.9207
12.8427
12.7995
12.8286
12.8292
13.0302
13.1487
13.1909
13.0907
13.102
13.0821
13.1155
13.1354
13.1087
13.0984
13.1358
13.1171
13.1149
13.155
13.2952
13.1627
13.3514
13.3761
13.1546
13.2161
13.1918
13.2678
13.1947
13.2789
13.2188
13.2852
13.3412
13.4031
13.1685
13.2058
13.2206
13.2935
13.4839
13.7155
13.3734
13.6149
13.725
13.9412
13.6248
13.9931
13.4525
13.5022
13.4696
13.4365
13.4863
13.4508
13.67
13.3546
13.5281
13.3915
13.5642
13.2902
13.3581
13.9376
13.17
13.5452
13.6376
13.9875
13.0393
13.5217
13.5166
13.4802
13.4648
13.4743
13.435
13.5343
13.831
13.6611
13.289
13.467
13.7781
14.0112
13.3468
13.2225
13.3203
13.0347
13.4603
13.5632
13.8236
13.5291
13.4671
13.2905
13.3832
13.24
13.3556
13.255
13.3394
13.2009
13.4785
13.0535
13.3219
12.6602
12.8808
12.5566
12.563
14.9883
13.8109
15.2197
13.5495
14.0919
13.8632
13.292
13.227
13.028
13.0075
13.1377
13.0176
13.0053
12.8282
12.891
12.9165
12.8953
12.8961
12.7243
13.2414
13.3055
13.1618
13.1811
13.1506
13.2264
13.2409
13.2077
13.1363
13.171
13.1886
13.1688
13.1992
13.1944
13.2057
13.3988
13.4216
13.2355
13.3298
13.2429
13.3593
13.2851
13.3658
13.2775
13.2044
13.1565
13.2087
13.2006
13.2172
13.1731
13.2173
13.2325
13.2381
13.4422
13.4825
13.4491
13.4488
13.4653
13.4443
13.3521
13.186
13.1666
13.1949
13.1205
13.0335
12.9552
14.0618
12.695
13.671
13.803
14.1795
13.4723
13.878
13.4411
13.4012
13.4246
13.4056
13.3737
13.36
13.2168
14.5819
12.8991
13.3494
12.6708
14.8998
13.8185
14.0609
14.0963
13.7862
14.2235
14.407
14.2477
13.418
13.3824
13.2324
13.3128
13.1813
13.3113
13.2259
13.2939
13.1817
12.685
12.7196
12.5812
12.9386
12.7038
12.908
12.8111
12.3355
13.1919
13.195
13.0327
13.024
13.1206
13.1079
13.0786
12.9525
12.9188
13.0165
12.9967
12.9758
12.947
13.3578
13.3905
13.2826
13.2947
13.2597
13.3333
13.3354
13.3039
13.2047
13.2299
13.2716
13.2455
13.2628
13.2374
13.2598
13.4293
13.4329
13.3316
13.3901
13.3152
13.4037
13.3618
13.3975
13.3432
13.2254
13.1816
13.2055
13.2298
13.2366
13.1893
13.2068
13.2094
13.2116
13.4439
13.4401
13.4271
13.4381
13.4236
13.4125
13.0841
13.6214
13.1399
13.0771
12.561
13.3686
13.3601
13.3653
13.3509
13.3504
13.7127
12.6775
12.8606
12.0931
12.9346
13.3596
13.3477
13.2281
13.2853
13.1944
13.2857
13.2271
13.284
13.2047
12.8695
13.0079
12.9657
13.0771
13.0533
13.0567
13.0736
12.8496
13.2334
13.2745
13.2035
13.1655
13.2671
13.2614
13.2416
13.0307
13.0762
13.1606
13.0496
13.1519
13.0571
13.4103
13.4208
13.3806
13.366
13.3396
13.4101
13.3894
13.3648
13.2741
13.2897
13.3512
13.3088
13.3189
13.2847
13.3091
13.4327
13.4314
13.3812
13.3993
13.3534
13.423
13.3946
13.4042
13.3538
13.2535
13.2003
13.2239
13.2656
13.2724
13.2165
13.2425
13.231
13.268
13.4356
13.416
13.4013
13.4341
13.4188
13.3985
13.1203
13.005
13.2497
13.1974
13.1853
13.3567
13.3591
13.3891
13.3841
13.4019
12.9166
13.1051
13.1411
13.1897
13.1807
13.3471
13.3638
13.2234
13.2847
13.2148
13.2796
13.1985
13.2882
13.2019
13.177
13.113
13.173
13.1407
13.2203
13.1943
13.2456
13.1754
13.2964
13.2937
13.288
13.3
13.3872
13.3031
13.3436
13.0635
13.2039
13.2662
13.0953
13.2718
13.2065
13.4278
13.4342
13.4275
13.406
13.3829
13.4371
13.416
13.3956
13.3397
13.3449
13.3988
13.3629
13.3651
13.3303
13.3497
13.436
13.4422
13.4035
13.4089
13.3558
13.4315
13.4082
13.412
13.3591
13.2921
13.2331
13.2639
13.3062
13.3115
13.2471
13.2769
13.3011
13.307
13.4332
13.4283
13.4044
13.4345
13.4361
13.4119
13.2548
13.2224
13.3387
13.2959
13.236
13.4141
13.4496
13.4411
13.4352
13.4768
13.1841
13.1793
13.1644
13.1505
13.1079
13.3922
13.4031
13.1718
13.297
13.1832
13.3339
13.1564
13.3194
13.1749
13.2406
13.2996
13.3132
13.3148
13.2828
13.4779
13.4076
13.2025
13.267
13.2318
13.3003
13.3536
13.2957
13.2667
13.3102
13.1394
13.3076
13.2695
13.1696
13.2995
13.4562
13.4422
13.4515
13.4425
13.4221
13.4048
13.4458
13.4262
13.4123
13.3803
13.3799
13.4197
13.3923
13.3948
13.3676
13.3819
13.447
13.4545
13.4105
13.4134
13.3594
13.4445
13.4153
13.4152
13.3645
13.3279
13.2616
13.2858
13.3388
13.3401
13.278
13.2959
13.3066
13.3066
13.4407
13.4504
13.422
13.4506
13.4718
13.4425
13.2997
13.2715
13.2736
13.2699
13.2667
13.4542
13.4971
13.5043
13.4913
13.5347
13.1498
13.0224
13.1772
13.1786
12.8927
13.4673
13.5633
13.1518
13.3634
13.181
13.4461
13.18
13.4359
13.2073
13.3168
13.6087
13.4746
13.4641
13.3796
13.5871
13.4912
13.3062
13.2072
13.207
13.2058
13.2199
13.1064
13.1301
13.136
13.1586
13.2231
13.0996
13.0808
13.1124
13.4258
13.461
13.4659
13.4484
13.4294
13.4196
13.4489
13.4315
13.4257
13.4032
13.4072
13.4303
13.4127
13.4186
13.393
13.4051
13.4615
13.4561
13.422
13.4165
13.3802
13.4452
13.4219
13.4133
13.3941
13.3526
13.2915
13.3077
13.3634
13.3691
13.3084
13.3239
13.313
13.3253
13.4584
13.4881
13.4592
13.4548
13.4953
13.4644
13.2471
13.2495
13.2586
13.2453
13.2502
13.5347
13.5835
13.5622
13.5634
13.6213
13.1954
12.8392
13.199
13.2158
12.8963
13.6213
13.6689
13.2789
13.5465
13.2897
13.6951
13.4301
13.7244
13.4668
13.4633
13.4594
13.497
13.3496
13.5215
13.352
13.5131
13.3399
13.2509
13.3743
13.1044
13.1153
13.0966
13.1671
13.1632
13.0446
13.0555
13.0482
13.0999
13.075
13.2896
13.4565
13.4292
13.4457
13.4274
13.4285
13.4396
13.4172
13.4273
13.4195
13.4284
13.4328
13.4238
13.4369
13.4165
13.4281
13.4373
13.4119
13.4121
13.4012
13.3941
13.3966
13.3928
13.3812
13.379
13.3817
13.3273
13.345
13.3938
13.396
13.345
13.3631
13.3467
13.3704
13.4357
13.4906
13.4629
13.4135
13.4688
13.4513
13.2676
13.2699
13.3009
13.3016
13.3052
13.5677
13.6407
13.5396
13.5554
13.6453
13.2558
13.0376
13.2962
13.3049
13.2017
13.7432
13.7741
13.5712
13.925
13.7262
13.8758
13.6711
13.9934
13.9305
13.4922
13.3426
13.5119
13.3096
13.4247
13.3824
13.478
13.3272
13.5646
13.7187
13.2559
13.2868
13.3985
13.3615
13.3946
13.2138
13.1769
13.2777
13.3395
13.3237
13.4161
13.3978
13.3756
13.4304
13.4039
13.4215
13.4199
13.3896
13.4125
13.4255
13.4421
13.4295
13.4261
13.4461
13.4351
13.4424
13.3878
13.3701
13.3687
13.3645
13.3526
13.3588
13.3534
13.354
13.3309
13.4113
13.3645
13.3828
13.4129
13.4156
13.3789
13.391
13.3879
13.3876
13.3972
13.4426
13.432
13.3841
13.4197
13.4118
13.3408
13.3439
13.3449
13.375
13.3829
13.527
13.6191
13.476
13.4874
13.561
13.358
13.3347
13.4112
13.4013
13.4951
13.7434
13.6583
13.6562
13.8837
13.8842
13.6721
13.5852
13.7225
13.7189
13.4019
13.468
13.5272
13.3836
13.4349
13.537
13.6438
13.4092
13.7806
13.6599
13.4115
13.4304
13.5399
13.4095
13.394
13.4293
13.3912
13.3782
13.5068
13.4034
13.5499
13.3633
13.359
13.4114
13.3782
13.4043
13.4056
13.3713
13.3991
13.4252
13.445
13.4233
13.4213
13.4375
13.4398
13.4265
13.3585
13.3553
13.3466
13.3493
13.3198
13.3508
13.346
13.3501
13.318
13.4106
13.3903
13.3954
13.4113
13.4104
13.3929
13.3972
13.3937
13.4009
13.3731
13.4006
13.3947
13.3654
13.3845
13.381
13.4036
13.4091
13.3805
13.4162
13.4192
13.4484
13.4998
13.412
13.4159
13.4497
13.4132
13.5903
13.3781
13.4042
13.6034
13.5612
13.4825
13.5096
13.5904
13.5916
13.491
13.4206
13.5067
13.5183
13.4552
13.4996
13.6185
13.3666
13.359
13.437
13.4305
13.4117
13.6175
13.5741
13.3669
13.3302
13.5118
13.3613
13.3226
13.5383
13.4319
13.4821
13.5468
13.4593
13.5198
13.3607
13.3672
13.4032
13.37
13.3969
13.4052
13.374
13.3987
13.417
13.4308
13.4173
13.4157
13.4277
13.4251
13.4272
13.3591
13.3657
13.351
13.3538
13.3247
13.3632
13.3611
13.359
13.3351
13.4124
13.393
13.4005
13.4117
13.4139
13.3917
13.4006
13.4048
13.4013
13.3628
13.3723
13.3715
13.3692
13.3666
13.3645
13.4142
13.408
13.3835
13.3909
13.3828
13.3923
13.411
13.3757
13.376
13.3841
13.3824
13.5765
13.3195
13.3524
13.4662
13.4249
13.3872
13.3434
13.444
13.4462
13.3852
13.3087
13.3953
13.3814
13.2513
13.3696
13.3269
13.283
13.1529
13.2925
13.2508
13.2904
13.4916
13.4232
13.402
13.4238
13.414
13.4222
13.4624
13.52
13.5161
13.4731
13.4603
13.5109
13.3971
13.3781
13.3908
13.4095
13.3825
13.4036
13.4146
13.3937
13.4091
13.415
13.4237
13.4147
13.4127
13.4179
13.4231
13.4158
13.3734
13.3836
13.3746
13.3656
13.3458
13.3845
13.3865
13.3744
13.3572
13.4081
13.388
13.3933
13.4043
13.4012
13.3845
13.3864
13.3912
13.3816
13.3746
13.364
13.3612
13.3789
13.3639
13.3592
13.3538
13.3421
13.3576
13.3092
13.3034
13.3635
13.364
13.3531
13.3522
13.3477
13.3161
13.3539
13.243
13.2775
13.2506
13.3629
13.3452
13.3062
13.3651
13.3481
13.3423
13.299
13.3466
13.3274
13.0536
13.2274
13.1777
13.201
12.9948
13.1951
13.1413
13.1185
13.3794
13.3482
13.3958
13.4237
13.3425
13.3572
13.3799
13.3999
13.4436
13.3655
13.3548
13.3819
13.2734
13.4019
13.4108
13.4183
13.4055
13.4129
13.4211
13.4148
13.4153
13.4091
13.4126
13.4104
13.4072
13.4108
13.4103
13.4095
13.3911
13.3999
13.3967
13.383
13.3681
13.4035
13.4057
13.3906
13.377
13.3969
13.382
13.3815
13.3998
13.397
13.3822
13.3814
13.3755
13.3755
13.3845
13.3653
13.3587
13.3903
13.3669
13.3589
13.2714
13.2703
13.3516
13.2574
13.2592
13.344
13.3367
13.342
13.3399
13.3295
13.2487
13.1753
13.184
13.2399
13.0964
13.3335
13.3266
13.2865
13.3382
13.3139
13.3296
13.2887
13.3333
13.3082
13.0161
13.1929
13.1445
13.1416
13.1214
13.2143
13.1679
13.135
13.3302
13.325
13.3336
13.3567
13.3301
13.3253
13.3495
13.3263
13.3452
13.3142
13.3129
13.3289
13.2585
13.4184
13.4222
13.4235