/*--------------------------------*- C++ -*----------------------------------*\
| =========                 |                                                 |
| \\      /  F ield         | OpenFOAM: The Open Source CFD Toolbox           |
|  \\    /   O peration     | Version:  5.x                                   |
|   \\  /    A nd           | Web:      www.OpenFOAM.org                      |
|    \\/     M anipulation  |                                                 |
\*---------------------------------------------------------------------------*/
FoamFile
{
    version     2.0;
    format      ascii;
    class       surfaceScalarField;
    location    "2";
    object      phi;
}
// * * * * * * * * * * * * * * * * * * * * * * * * * * * * * * * * * * * * * //

dimensions      [0 3 -1 0 0 0 0];

internalField   nonuniform List<scalar> 
29271
(
-6.01012e-06
-5.36499e-06
6.24898e-06
5.12929e-06
-8.83691e-06
4.09516e-07
4.1325e-06
4.46529e-06
-1.55567e-05
3.28312e-06
-2.73812e-06
8.96603e-06
-5.16668e-07
6.5623e-06
-2.35403e-05
-1.02085e-05
-1.50279e-05
9.54785e-06
2.10243e-05
1.82046e-05
-1.37752e-05
-7.04397e-06
1.82048e-06
1.46765e-05
8.7159e-06
-4.39374e-06
-2.29935e-05
-8.90877e-06
1.31311e-06
-9.90659e-06
1.63993e-05
2.40964e-05
-1.99922e-05
-4.00686e-06
6.63317e-06
5.09493e-06
3.88678e-06
8.38424e-06
-1.87017e-05
-2.38267e-05
-1.09399e-05
1.73965e-05
2.16433e-05
1.44285e-05
-4.22895e-05
-3.25178e-05
-7.03641e-06
-5.75943e-06
3.49589e-05
5.26442e-05
-1.22742e-05
-2.37255e-06
3.08855e-06
1.05012e-05
9.59842e-07
-8.23242e-06
-4.24154e-06
2.72785e-06
9.74671e-06
-2.38429e-05
1.18459e-05
-1.37513e-05
-5.87038e-06
1.27044e-05
1.89144e-05
-1.0615e-05
-4.12148e-06
-4.16257e-06
7.18589e-06
4.71777e-06
6.9954e-06
-4.22476e-05
-2.39879e-05
-1.19211e-05
-8.20665e-06
1.82848e-05
6.80784e-05
-2.29661e-05
-1.96333e-05
9.40133e-06
1.37579e-06
9.85113e-06
2.19712e-05
-2.17976e-05
-5.53467e-06
-2.80645e-06
1.64777e-05
1.58924e-05
-2.23137e-06
-1.76058e-05
-1.50888e-05
1.52712e-05
1.20882e-05
1.89675e-05
-1.36323e-05
-2.74355e-05
-1.01356e-05
-4.64488e-06
9.53217e-06
3.00386e-06
2.96799e-05
-2.66236e-05
-8.40718e-06
-8.28164e-06
4.89294e-06
6.19197e-06
3.22276e-05
-2.71831e-05
2.9846e-06
4.66531e-06
3.63454e-05
-1.00818e-05
-6.73044e-06
-1.09027e-05
-5.10514e-06
3.17171e-06
1.27519e-05
-1.51856e-05
-3.62094e-06
7.83339e-06
1.65551e-05
-5.81032e-06
-2.94657e-05
-7.94158e-06
3.8473e-06
-4.82922e-07
4.31677e-05
-9.12477e-06
-9.84334e-06
-3.22266e-07
1.76844e-06
8.39469e-06
-5.17673e-06
-1.79891e-06
3.16471e-06
3.87562e-06
-2.20963e-06
-1.75267e-06
2.26112e-06
1.70782e-06
-4.62422e-06
3.21229e-07
-4.78267e-06
1.53954e-07
3.0555e-06
5.87621e-06
-3.71947e-06
-1.26739e-05
-1.82399e-06
3.5007e-06
5.93097e-06
8.78564e-06
-7.95005e-06
-2.2722e-06
3.40977e-06
3.67327e-06
6.74819e-06
-3.60899e-06
-2.49674e-06
3.36005e-06
-2.25831e-05
1.25995e-06
4.65106e-06
1.58088e-05
1.01158e-05
1.73421e-05
2.02235e-05
-5.82812e-06
-7.16926e-06
-4.65154e-06
-5.18873e-06
-2.71775e-06
-3.57856e-06
-2.11263e-06
-2.59277e-06
-6.07627e-06
-3.38974e-06
-2.2933e-06
-2.08273e-06
1.89103e-05
6.27859e-05
6.89303e-05
-1.33329e-05
-3.74078e-05
-1.98351e-05
-4.17232e-05
-8.01768e-06
-1.01711e-05
-4.874e-06
-5.14886e-06
3.15893e-06
2.73592e-05
0.000130565
-6.50603e-06
-3.88937e-06
-3.5602e-06
-2.99617e-06
3.60025e-06
5.90629e-06
9.76394e-06
-5.36729e-05
-1.66227e-05
-5.86349e-05
-1.55612e-05
-1.21644e-05
-1.86679e-06
3.61168e-06
1.33631e-05
-1.76738e-05
-8.44296e-06
-2.05788e-06
2.81747e-05
-2.27888e-06
-1.29594e-05
-4.58868e-06
6.04972e-06
3.56386e-06
1.02133e-05
1.55417e-05
4.68977e-05
2.32061e-05
-7.68431e-06
-1.02661e-05
-1.26548e-05
-2.61591e-05
-4.16708e-06
-3.44483e-06
-2.20028e-06
-1.72686e-06
3.9044e-05
0.00011175
0.000191195
-7.89005e-05
-6.9366e-05
-7.60621e-05
-3.93328e-05
6.13658e-06
6.37396e-06
0.000125134
1.48145e-06
6.04077e-06
8.20206e-07
2.46259e-06
1.43082e-06
1.34633e-06
-2.16827e-05
-1.18422e-05
-1.44788e-05
-3.68199e-05
-1.35754e-05
-4.79687e-06
-1.97432e-06
9.2205e-06
1.72627e-05
-1.87086e-05
-7.40164e-06
1.20379e-05
4.50598e-06
1.50439e-05
-5.4775e-06
6.40184e-06
2.7036e-06
0.000262707
-1.37441e-05
-1.18951e-05
-1.73353e-05
-1.53397e-05
-3.41743e-06
-1.0878e-05
-9.05226e-06
-3.45886e-05
-4.35387e-05
-3.00335e-05
-3.50918e-05
9.7926e-07
1.43446e-05
0.000209785
-4.04243e-06
3.97868e-07
-1.853e-06
4.31499e-06
1.70492e-05
5.16559e-06
-3.44514e-05
-2.03938e-05
-2.56399e-05
-4.75038e-05
-3.874e-05
4.61941e-06
7.27193e-06
3.42018e-05
-1.74938e-05
-5.02202e-06
1.55747e-06
2.09559e-05
-1.69437e-05
-2.96683e-06
-2.59772e-06
2.52015e-05
-5.08098e-05
8.22969e-06
-2.90088e-06
2.26854e-06
5.75571e-05
-9.57112e-06
-4.92335e-07
-2.15313e-06
1.22166e-05
-2.36229e-06
-2.48815e-07
1.16312e-06
1.47128e-06
-2.20033e-06
-6.15104e-07
3.4518e-07
2.46359e-06
-1.48392e-06
3.54133e-07
-5.94152e-06
-1.79279e-08
1.92144e-06
5.16779e-06
-1.64254e-06
-6.33534e-06
-7.17988e-07
1.69081e-06
2.55868e-06
4.44638e-06
-5.41016e-06
-2.33542e-06
2.50087e-06
4.768e-06
2.80994e-06
-2.33324e-06
-2.8534e-07
-1.05233e-06
-1.17932e-05
2.24841e-06
1.20479e-06
9.67772e-06
1.58765e-06
-2.11108e-07
3.20532e-05
-2.41353e-06
-2.51546e-06
-2.23101e-06
-2.16335e-06
-1.16197e-06
-9.8925e-07
-4.65248e-07
-1.26642e-06
1.87229e-05
1.01188e-05
5.35131e-05
-3.6052e-06
-2.90222e-06
-2.66796e-06
-2.66157e-06
4.38303e-06
1.48003e-05
0.000161688
-4.70159e-06
-8.1076e-06
-8.81045e-06
-1.15351e-05
4.84414e-06
-2.88929e-06
-3.83801e-07
-1.60906e-05
-3.36404e-06
4.4949e-06
1.93419e-05
-3.26567e-05
-2.9893e-06
1.44599e-05
2.1315e-05
-8.42738e-06
-1.2914e-05
-2.74109e-06
4.25228e-06
4.76559e-06
1.50646e-05
-4.84364e-06
2.06707e-05
8.70798e-06
-1.14608e-06
8.2902e-07
-2.52064e-06
1.2977e-06
3.02036e-05
4.77965e-05
0.00011847
5.67699e-06
-3.8084e-06
0.000175503
-4.24904e-08
6.31964e-06
-1.30639e-08
-5.00353e-06
-2.46934e-06
-6.02489e-06
-2.60859e-05
-9.65829e-08
-1.58427e-06
-2.01458e-06
3.54583e-05
-1.22069e-05
-1.77084e-07
-2.76042e-06
-7.12452e-07
1.83761e-05
-2.51927e-06
9.93142e-06
-4.73775e-06
0.000253505
1.52534e-06
-7.28024e-07
5.94624e-06
7.86545e-06
-1.42851e-06
4.42852e-06
7.06918e-06
3.58128e-06
1.79794e-05
0.000182869
4.78659e-06
7.18015e-06
9.28304e-06
7.13358e-06
1.96022e-05
1.50978e-05
-3.095e-05
3.7283e-06
-1.63905e-06
2.86336e-05
-2.264e-05
2.43767e-06
-3.71773e-06
2.39206e-05
-2.64654e-05
2.86451e-06
-1.21925e-05
3.10565e-05
-5.92506e-05
1.0671e-05
-4.35158e-06
1.10834e-05
5.98271e-05
-1.33858e-05
4.82939e-06
-5.91038e-06
1.4467e-05
-9.60198e-07
-3.90825e-08
4.09997e-07
6.08415e-07
-2.24245e-06
-7.73512e-07
1.40496e-06
1.62968e-06
-1.0576e-06
5.1849e-07
-4.16535e-06
-2.97054e-07
1.99169e-06
3.00981e-06
-9.97748e-07
-2.74901e-06
-4.06118e-08
7.68374e-07
1.665e-06
1.35399e-06
4.92144e-07
-1.36783e-06
6.14069e-07
3.18678e-06
-2.0662e-06
-8.5896e-07
-2.41103e-06
-2.06359e-07
-9.03155e-06
3.52685e-07
1.47898e-06
9.81727e-06
-1.63196e-05
-4.5142e-06
5.84175e-05
-3.44168e-06
-3.61447e-06
-3.59953e-06
-3.27975e-06
1.03184e-06
2.17492e-06
2.86238e-06
2.33573e-06
-1.28979e-05
8.58244e-06
5.45941e-05
-2.45714e-06
-4.21732e-06
-2.44661e-06
-3.96398e-06
-1.27912e-06
2.0697e-05
0.00014435
-6.99113e-06
-4.32623e-06
-3.83079e-06
-1.93493e-06
3.89676e-07
-2.19727e-07
1.93531e-06
-1.7354e-05
-3.96486e-07
7.49953e-07
1.57206e-05
-1.20199e-05
-2.61658e-07
3.20028e-06
9.12086e-06
1.30627e-06
-1.67268e-05
9.96503e-07
-1.82547e-06
-5.53714e-06
2.17867e-05
-1.63422e-05
-2.6431e-05
3.73822e-05
4.15441e-07
2.48989e-06
2.9011e-06
3.77837e-06
7.58511e-06
-2.14214e-05
0.000124546
4.76935e-06
-5.64594e-06
0.000215709
-8.93267e-07
5.14075e-06
-1.3187e-07
-5.79293e-06
-4.48995e-06
-4.8799e-06
-4.34758e-05
1.43605e-07
1.49406e-06
-1.82846e-06
4.84359e-05
-2.15478e-05
4.17436e-06
-6.39675e-06
-5.83792e-06
2.3893e-05
5.71516e-06
-1.72871e-06
6.76693e-07
0.000178331
9.57226e-06
1.23184e-05
1.28407e-05
1.4395e-05
-5.29306e-07
1.92328e-06
-7.24678e-07
7.06358e-06
6.76117e-06
0.000108667
1.01702e-05
9.99013e-06
8.79881e-06
4.81654e-06
2.74131e-06
7.1039e-07
-3.16087e-05
4.80814e-06
-8.4061e-06
3.66244e-05
-2.54513e-05
3.82248e-06
-5.48507e-06
2.71135e-05
-3.86495e-05
1.01365e-05
-1.40448e-05
4.32345e-05
-6.20349e-05
1.0187e-05
-3.97859e-06
1.19701e-05
5.06176e-05
-1.77592e-05
1.15793e-05
-9.19184e-06
1.53719e-05
-3.94831e-07
1.05449e-07
7.9305e-08
2.30103e-07
-7.89675e-07
-6.38621e-07
1.72065e-06
-2.38242e-07
-9.93296e-07
5.24455e-07
-1.90869e-06
-6.58091e-07
2.31644e-06
7.19186e-07
-4.41711e-07
-3.61635e-07
6.35024e-07
-3.46435e-07
3.77385e-07
1.37372e-07
2.2667e-06
5.55595e-08
-7.46202e-07
-9.47584e-09
-1.89292e-06
3.26334e-07
-2.04859e-06
6.866e-07
-1.31041e-05
-1.79862e-06
-3.58981e-08
1.63006e-05
-3.60697e-05
-5.32859e-06
8.7325e-05
-2.25002e-06
-1.52079e-06
-2.37569e-06
-1.80868e-06
4.3422e-06
4.09103e-06
5.94311e-06
6.06969e-06
-2.6465e-05
-1.99452e-06
4.56998e-05
1.07106e-07
-2.45927e-07
4.82942e-07
9.39929e-07
-2.58121e-06
2.18268e-05
0.000104685
-2.24884e-06
-1.71029e-06
-2.22413e-07
-4.45709e-07
-1.25509e-06
-5.02153e-07
3.39095e-07
-1.33084e-05
1.28952e-06
1.93862e-06
7.49972e-06
-1.1041e-05
1.75168e-06
-2.02409e-06
1.13077e-05
2.89777e-06
-2.42539e-05
3.75226e-06
-3.10416e-06
-5.72518e-06
2.64332e-05
-2.28657e-05
-1.94051e-05
5.74289e-05
3.65283e-06
3.16266e-06
5.10618e-06
4.97386e-06
-1.62855e-06
-1.57422e-05
0.000117057
2.98599e-06
-5.16196e-06
0.000235683
4.5524e-07
3.7057e-06
2.51597e-06
-3.34454e-06
-2.89538e-07
-6.42202e-07
-5.29483e-05
-2.77023e-06
-5.37048e-07
5.17728e-07
5.87238e-05
-2.88632e-05
6.82669e-06
-8.47836e-06
-8.93665e-06
3.31086e-05
6.34287e-06
-8.387e-06
-1.47574e-06
0.000132218
9.25615e-06
1.1812e-05
1.05244e-05
1.15644e-05
-3.76866e-06
-9.28537e-07
-1.88901e-06
5.2549e-06
-1.48236e-06
6.60703e-05
5.23636e-06
6.39746e-06
5.07721e-06
-1.4328e-06
-6.5283e-07
6.92259e-08
-4.36835e-05
5.80779e-06
-6.74915e-06
4.47178e-05
-2.97653e-05
3.1685e-06
-6.93137e-06
3.35281e-05
-5.0606e-05
1.21458e-05
-1.62805e-05
5.32687e-05
-3.58086e-05
6.86781e-06
1.8478e-07
3.45177e-06
2.38218e-05
-1.05025e-05
5.82521e-06
-3.22019e-06
7.90998e-06
-9.84087e-08
1.33268e-07
-1.07003e-09
-5.0118e-09
9.60515e-07
-4.48373e-07
4.61345e-07
-9.69507e-07
-7.16319e-07
3.6917e-07
3.26222e-08
-5.18704e-07
8.00694e-07
3.25366e-08
-3.44697e-07
-2.96719e-07
6.60094e-07
-8.99072e-07
1.00623e-06
-1.25837e-07
1.01265e-06
4.80253e-07
-9.01322e-07
-1.01366e-06
-4.02218e-07
8.243e-07
1.48027e-06
4.8753e-07
-2.0211e-05
-2.30388e-06
-2.81771e-06
2.33648e-05
-2.71302e-05
-4.85603e-06
9.61867e-05
-2.25435e-07
-6.71993e-07
2.04342e-06
-1.52777e-07
5.97725e-06
4.85994e-06
6.20248e-06
5.09157e-06
-1.49857e-05
-9.29311e-06
4.07307e-05
-6.06669e-07
2.11488e-06
5.92194e-07
1.73149e-08
3.53092e-07
7.4753e-06
7.1117e-05
1.72484e-06
1.69422e-06
2.43139e-06
2.45312e-06
-1.80487e-07
1.40859e-06
1.22239e-06
-5.10493e-06
2.31978e-06
2.06631e-06
-4.21592e-06
5.28785e-06
-2.72622e-07
-1.42713e-08
3.62076e-08
2.54552e-07
-1.13601e-05
2.57871e-06
-2.73324e-06
1.15147e-05
1.25845e-06
-2.88519e-05
4.00644e-06
-2.77073e-06
-4.75516e-06
3.11129e-05
-2.45791e-05
-1.45569e-06
6.48265e-05
4.02785e-06
2.82232e-06
3.92362e-06
3.00734e-06
-5.28718e-06
-2.46646e-07
8.87184e-05
2.62782e-06
6.80222e-07
0.000225926
2.28282e-06
1.86059e-06
1.04904e-06
8.80296e-07
2.83417e-06
-2.70027e-07
-6.33514e-05
-1.55386e-06
5.50223e-06
1.42019e-05
4.7829e-05
-2.02171e-08
-4.23779e-07
-5.7199e-09
6.29071e-08
3.70091e-07
-3.83702e-05
8.53508e-06
-9.00887e-06
-9.48041e-06
4.24187e-05
5.90566e-06
-1.13683e-05
-6.24404e-08
0.000115416
6.76956e-06
8.8288e-06
5.51323e-06
7.24201e-06
-6.57432e-07
-3.20235e-07
-5.98738e-07
1.97789e-06
6.11028e-07
4.68785e-05
1.94823e-06
9.84249e-07
4.59916e-07
5.45956e-07
4.29884e-07
6.19716e-07
-4.74266e-05
4.50043e-06
-1.22862e-06
4.68129e-05
-4.35991e-05
3.00282e-06
-6.39535e-06
4.69916e-05
-5.27889e-05
9.31907e-06
-9.2509e-06
5.26584e-05
-1.47023e-05
4.57299e-06
-1.14884e-06
3.97853e-06
7.91066e-06
-7.91766e-06
3.07895e-06
-2.42404e-06
7.26304e-06
9.16937e-08
-4.88673e-08
1.7939e-07
-2.01896e-07
8.08298e-07
7.34617e-07
-1.34648e-06
-1.95136e-07
-8.1148e-07
-2.24395e-06
-1.6276e-06
1.58582e-06
-7.42609e-07
3.83982e-06
-3.08328e-07
7.28818e-08
5.82904e-08
-7.94618e-07
6.71731e-07
3.00043e-07
-4.08446e-07
1.48385e-07
-1.44087e-06
-5.41627e-08
5.90413e-07
1.16468e-06
4.47773e-06
-3.63256e-07
-2.64898e-05
-1.88883e-06
-4.6188e-06
2.8883e-05
-1.86774e-05
-6.19983e-06
9.69617e-05
3.42973e-06
1.18218e-06
4.29867e-06
2.45784e-06
4.59042e-06
2.70571e-06
3.80654e-06
1.6311e-06
-1.66732e-05
-4.79331e-06
4.38322e-05
-1.37273e-07
-4.2274e-07
-2.15607e-07
4.63234e-07
-1.62516e-06
-3.06434e-06
6.31581e-05
1.18227e-06
1.94991e-06
1.29341e-06
6.27931e-07
-1.25164e-06
-5.42361e-06
-2.40306e-06
-6.55602e-06
4.13907e-06
-1.16091e-06
-2.52395e-06
4.47665e-06
1.62511e-06
-1.58186e-07
3.14898e-06
-3.32085e-06
2.22613e-06
-3.52119e-06
-1.14984e-05
2.7112e-06
-2.55567e-06
1.13433e-05
-4.47853e-07
-3.26129e-05
4.26895e-06
1.07634e-06
-4.60194e-06
3.23174e-05
-2.02994e-05
-9.64754e-07
7.83925e-05
5.82219e-07
9.5429e-07
-1.04629e-06
1.00817e-06
-1.08705e-05
3.28278e-06
7.12133e-05
1.47502e-06
3.09492e-06
0.000191224
1.38654e-06
2.58913e-06
3.35657e-06
1.25489e-06
5.48085e-06
2.1289e-06
-4.64232e-05
-1.70472e-07
2.5682e-06
4.58968e-06
4.09108e-05
-1.28682e-06
-5.14147e-06
1.06809e-06
-5.376e-06
6.64812e-06
4.08808e-06
-4.53338e-05
7.37413e-06
-6.1588e-06
-8.52457e-06
4.70567e-05
5.58635e-06
-1.19885e-05
-3.08713e-07
0.000111677
3.06415e-06
5.81933e-06
3.00062e-06
5.158e-06
-1.04507e-06
-2.10576e-07
-7.15394e-07
-1.74094e-06
-2.12572e-07
4.54097e-05
-1.70612e-06
-2.98602e-06
-4.23115e-06
1.40752e-06
1.09901e-07
2.12253e-06
-4.75371e-05
2.14109e-06
1.87638e-06
4.48736e-05
-4.21692e-05
-1.52803e-05
-3.88961e-06
8.31754e-06
5.30217e-05
-5.41544e-06
-4.17565e-08
2.78307e-07
5.17889e-06
-5.29771e-05
6.89926e-06
-7.35294e-06
5.3122e-05
-4.3035e-06
2.84118e-06
-3.44261e-06
1.6973e-06
2.99505e-06
-6.49983e-06
-1.23789e-06
1.45286e-06
6.28549e-06
3.43835e-07
-5.53065e-07
7.13032e-07
-5.08192e-07
-1.23901e-06
3.00925e-06
-4.97771e-06
3.20755e-06
1.29222e-06
-3.24988e-06
-5.49286e-06
4.05474e-06
-3.95809e-06
7.35388e-06
-1.41243e-06
-1.61934e-06
-3.29949e-06
1.20161e-06
1.86595e-06
3.2637e-06
-5.6226e-07
-1.16837e-06
1.34094e-06
2.00599e-08
8.35113e-07
-4.65488e-07
6.29801e-06
-1.71209e-06
-3.01761e-05
5.42121e-07
-4.93856e-06
2.99866e-05
-1.40764e-05
-5.73528e-06
9.9956e-05
4.76403e-06
3.1864e-06
5.28709e-06
4.47084e-06
1.63564e-06
-1.23389e-06
2.22849e-07
-1.51554e-06
-1.881e-05
3.80956e-06
4.72883e-05
-8.93468e-07
-5.9181e-07
-3.84668e-07
-6.6209e-07
-4.81098e-06
-5.29824e-06
6.30556e-05
1.27409e-06
1.51299e-07
7.44094e-07
8.05002e-08
-4.17717e-06
-2.69138e-06
-3.97969e-06
-5.19485e-06
-2.37723e-06
-4.16415e-06
1.75551e-06
5.16974e-06
6.4454e-06
-5.50554e-08
4.87496e-06
-5.30676e-06
4.67272e-06
-1.06313e-05
-1.11014e-05
1.99752e-06
-1.44204e-06
1.05452e-05
-1.91305e-06
-3.09528e-05
3.85314e-06
3.75873e-06
-4.27634e-06
2.95303e-05
-1.6678e-05
1.50127e-06
9.17754e-05
-2.81194e-06
-7.8927e-08
-2.1689e-06
1.11835e-06
-1.88011e-05
5.38303e-06
7.17629e-05
8.25448e-07
2.0738e-06
0.000153172
2.5477e-06
1.29042e-07
1.47064e-06
9.00968e-07
4.40042e-06
1.60484e-06
-3.34262e-05
1.0268e-06
4.25005e-06
1.69047e-06
2.72844e-05
-7.70555e-06
-5.69498e-06
-1.83613e-06
8.49006e-07
4.6781e-06
9.70956e-06
-4.81718e-05
5.62553e-06
-4.12018e-06
-6.98441e-06
4.85793e-05
5.07149e-06
-5.89014e-06
-1.22782e-07
0.00010878
1.35277e-06
3.93432e-06
1.77147e-06
3.67535e-06
-4.83027e-07
1.39905e-07
2.00796e-08
-3.77127e-06
8.72987e-07
5.28271e-05
-3.78598e-06
-3.02136e-06
-3.73474e-06
2.62767e-06
5.38701e-07
2.34943e-06
-4.29103e-05
-1.46917e-06
3.30241e-06
3.93796e-05
-5.65501e-05
-2.34462e-06
8.31753e-07
3.15135e-06
5.49105e-05
-8.63399e-06
-2.81735e-06
-7.33741e-06
6.98474e-06
1.1804e-05
-5.27589e-05
5.6647e-06
-5.24168e-06
5.22131e-05
-4.19737e-06
2.07307e-06
-4.7383e-06
1.16497e-06
6.57062e-06
-7.02138e-06
-4.5816e-06
3.30858e-06
8.2923e-06
6.67758e-07
-1.44808e-06
1.42868e-06
-6.47747e-07
-4.84416e-06
5.53617e-06
-6.64133e-06
5.94931e-06
3.35346e-06
-5.13045e-06
-9.59631e-06
5.60598e-06
-5.74158e-06
1.15089e-05
-1.16216e-06
-4.45493e-06
-5.29415e-06
4.36895e-06
7.575e-07
5.78479e-06
-1.34468e-06
-2.18519e-06
2.82064e-06
1.49895e-06
2.07585e-06
-2.86557e-06
5.89306e-06
-2.91982e-06
-2.87071e-05
3.30327e-06
-4.03771e-06
2.64683e-05
-7.56138e-06
-4.2296e-06
0.000103162
5.50019e-06
4.53411e-06
5.51721e-06
5.1047e-06
-2.03408e-06
-3.73034e-06
-2.78709e-06
-3.51947e-06
-1.57453e-05
9.29782e-06
4.99263e-05
-4.5614e-07
-1.70342e-06
1.68492e-07
-1.76082e-06
-2.06818e-06
5.8183e-06
5.83401e-05
-7.34691e-07
-9.10487e-07
-5.82296e-07
-1.13757e-06
-2.75391e-06
-5.51058e-06
-3.15043e-06
-7.13278e-06
-1.20354e-06
-3.43644e-06
3.84183e-06
5.86274e-06
1.5266e-05
5.58426e-06
-3.3599e-06
-7.71491e-06
-9.77391e-06
-9.60368e-06
1.02362e-06
1.6815e-07
8.41191e-06
-2.8331e-06
-2.8574e-05
2.67982e-06
4.13642e-06
-3.27228e-06
2.78631e-05
-1.09691e-05
3.24974e-06
9.59226e-05
-2.90182e-06
8.67102e-07
-9.78373e-07
2.35564e-06
-1.51616e-05
9.12568e-06
7.61276e-05
-9.33335e-07
4.08717e-06
0.000137306
9.59848e-08
-1.72185e-06
-5.19883e-06
3.32311e-06
5.12138e-06
1.74912e-06
-2.567e-05
-1.94782e-06
1.88994e-06
-1.07393e-07
2.4902e-05
-1.36363e-05
1.09509e-05
-4.91132e-06
6.78307e-06
-1.08784e-05
1.16921e-05
-4.87866e-05
4.70221e-06
-2.9888e-06
-5.68545e-06
4.89237e-05
3.83495e-06
-3.39946e-06
1.29934e-07
0.000105991
7.98209e-07
3.25132e-06
1.60079e-06
3.2163e-06
1.05937e-07
9.34407e-08
2.42967e-07
-3.99232e-06
9.42431e-07
6.53611e-05
-3.08731e-06
-2.82751e-06
-2.74628e-06
2.46908e-06
3.92793e-07
2.04138e-06
-3.99839e-05
-4.19609e-06
4.12173e-06
4.01531e-05
-4.59606e-05
-8.63157e-06
6.32856e-06
4.82629e-05
-5.15845e-05
4.66937e-06
-3.73161e-06
5.07767e-05
-8.02678e-06
8.11648e-07
-2.27258e-06
7.64976e-07
9.66517e-06
-9.97796e-06
-2.57602e-06
1.35321e-06
1.12008e-05
4.31724e-07
-2.39894e-06
2.08296e-06
-1.15674e-07
-6.79767e-06
5.71357e-06
-6.31321e-06
7.3973e-06
4.47142e-06
-5.67303e-06
-1.27925e-05
6.25865e-06
-5.93272e-06
1.36682e-05
-4.74076e-07
-7.32774e-06
-6.05938e-06
5.52804e-06
-6.04761e-07
8.93792e-06
-2.91951e-06
-2.87767e-06
3.68807e-06
1.92908e-06
4.20773e-06
-4.0277e-06
5.49723e-06
-3.39382e-06
-2.36392e-05
4.49651e-06
-3.81847e-06
2.08577e-05
-1.87643e-06
-3.13261e-06
0.000104792
5.19166e-06
4.34233e-06
5.06254e-06
4.85103e-06
-4.01339e-06
-4.41559e-06
-4.30017e-06
-3.34006e-06
-1.45219e-05
1.03432e-05
5.52693e-05
1.02335e-07
-1.9727e-06
6.60042e-07
-1.83036e-06
-4.89587e-06
7.7655e-06
6.09794e-05
-1.1194e-06
-1.53039e-06
-1.24037e-06
-1.84645e-06
-5.82366e-06
-4.37629e-06
-4.0943e-06
-7.28448e-06
-2.77502e-06
-5.38705e-07
5.70246e-06
-7.10506e-06
1.60039e-06
-5.00648e-07
6.00532e-06
-2.25381e-06
-2.79298e-05
2.58996e-06
1.98989e-06
-2.737e-06
2.83408e-05
-7.80623e-06
2.26753e-06
9.39924e-05
-6.316e-07
1.69829e-06
7.35468e-07
2.53408e-06
-9.82104e-06
8.90672e-06
7.95788e-05
-4.58475e-06
4.21864e-06
0.000138553
-6.71549e-06
-2.73891e-06
-4.8243e-06
2.1033e-06
6.01352e-06
3.22566e-06
-3.42268e-05
-6.14516e-07
-3.18192e-06
2.46897e-06
3.09695e-05
-4.94196e-05
4.08129e-06
-2.73685e-06
-5.24046e-06
5.00425e-05
3.27313e-06
-6.47843e-06
2.9717e-08
0.000105799
1.03053e-06
3.19398e-06
1.89212e-06
3.27978e-06
-1.96814e-07
-1.54965e-07
-1.37048e-07
-3.92276e-06
3.63912e-07
7.49636e-05
-3.14963e-06
-2.40396e-06
-2.94272e-06
2.13693e-06
3.41663e-07
2.40231e-06
-4.21396e-05
-3.65143e-06
4.57199e-06
4.15149e-05
-4.52247e-05
2.10755e-06
5.71515e-06
3.73964e-05
-4.9856e-05
4.18148e-06
-2.9755e-06
4.86797e-05
-1.15335e-05
4.1034e-07
-2.07506e-06
-6.24154e-07
1.41863e-05
-1.22116e-05
-3.26771e-06
2.1472e-06
1.33321e-05
-3.84256e-07
-3.19034e-06
2.60699e-06
9.67275e-07
-7.77428e-06
5.29152e-06
-5.46339e-06
7.94615e-06
4.11182e-06
-5.55115e-06
-1.42071e-05
6.51314e-06
-5.26116e-06
1.43944e-05
-2.31753e-07
-1.04627e-05
-6.28608e-06
6.02117e-06
-1.3077e-06
1.22671e-05
-5.38691e-06
-3.30027e-06
4.38805e-06
2.3926e-06
6.72467e-06
-4.81813e-06
5.25321e-06
-3.08675e-06
-1.84146e-05
4.57814e-06
-4.70338e-06
1.63734e-05
8.31395e-07
-3.27749e-06
0.00010587
4.85582e-06
4.09957e-06
4.70128e-06
4.45807e-06
-4.76793e-06
-3.99217e-06
-4.64883e-06
-3.33738e-06
-1.50453e-05
1.07764e-05
6.222e-05
5.65988e-07
-1.89752e-06
1.04207e-06
-1.56087e-06
-3.66605e-06
4.36434e-06
6.23696e-05
-1.7091e-06
-2.29141e-06
-1.78105e-06
-2.72006e-06
-2.57812e-06
-3.28413e-06
-2.76999e-06
-3.72229e-06
-1.42789e-06
-2.13488e-06
3.61876e-06
-5.19843e-06
2.24799e-06
-1.68283e-06
4.63326e-06
-1.65422e-06
-2.88058e-05
3.97128e-06
1.06123e-06
-3.60245e-06
2.90299e-05
-6.08044e-06
1.68019e-06
9.19678e-05
-1.84598e-07
1.42648e-06
1.90814e-07
1.71467e-06
-4.56604e-06
6.99249e-06
8.18483e-05
1.26467e-06
4.28345e-06
0.000127201
-3.41332e-06
1.18111e-06
-2.68449e-06
2.48261e-06
5.46833e-06
2.56824e-06
-2.55669e-05
6.03535e-08
3.48568e-06
2.04291e-06
2.12426e-05
-5.08887e-05
3.64533e-06
-2.60093e-06
-5.50401e-06
5.15657e-05
3.78258e-06
-1.14919e-05
-5.61258e-07
0.000109587
1.39983e-06
3.50972e-06
2.52168e-06
3.73259e-06
-3.24961e-07
-5.8209e-07
-3.11395e-07
-3.56179e-06
2.84359e-07
7.75065e-05
-3.79228e-06
-2.32452e-06
-3.61e-06
2.57349e-06
5.55671e-07
2.83281e-06
-4.23039e-05
-1.63605e-06
5.14859e-06
3.95131e-05
-3.60925e-05
-1.52212e-06
2.05319e-06
3.55614e-05
-4.69496e-05
4.45707e-06
-2.79922e-06
4.47305e-05
-1.71416e-05
2.10496e-06
-4.89378e-06
5.24262e-09
2.02095e-05
-1.49241e-05
-4.9028e-06
3.54616e-06
1.62808e-05
-1.59885e-06
-3.30452e-06
2.79077e-06
2.11261e-06
-7.88946e-06
5.25842e-06
-4.82329e-06
7.45433e-06
3.78742e-06
-5.64376e-06
-1.43268e-05
6.58677e-06
-4.54621e-06
1.41426e-05
6.85005e-08
-1.37933e-05
-6.53143e-06
6.71471e-06
-1.5664e-06
1.51079e-05
-8.13799e-06
-3.49451e-06
4.78145e-06
2.72083e-06
9.53934e-06
-5.40912e-06
4.5696e-06
-3.09699e-06
-1.47188e-05
4.86333e-06
-5.24496e-06
1.36278e-05
1.52162e-06
-4.32284e-06
0.000108458
4.2781e-06
3.77845e-06
4.03007e-06
4.1897e-06
-4.60978e-06
-3.8345e-06
-4.47265e-06
-3.14614e-06
-1.50113e-05
9.17745e-06
7.03435e-05
7.33795e-07
-1.60128e-06
1.18545e-06
-1.08598e-06
-2.82871e-06
1.72286e-06
6.75394e-05
-2.10085e-06
-2.82463e-06
-1.8639e-06
-2.79313e-06
-3.75159e-06
-1.84925e-06
-3.89188e-06
-4.75195e-06
-1.35908e-06
-2.69814e-06
5.98046e-06
-4.28084e-06
2.52542e-06
-2.22362e-06
3.97904e-06
-1.95999e-06
-2.89425e-05
5.27474e-06
2.51647e-06
-4.6571e-06
2.77684e-05
-6.33166e-06
2.85527e-06
9.47841e-05
-1.3185e-06
-4.55403e-07
-1.24526e-06
-6.43568e-07
-3.79393e-06
5.22202e-06
8.3266e-05
-9.55512e-08
2.32379e-06
0.000124772
-2.09316e-06
-4.93052e-07
-1.86106e-06
1.51536e-06
-3.87551e-07
1.44824e-06
-1.76288e-05
2.68728e-08
7.30771e-07
3.62041e-06
1.31552e-05
-5.20437e-05
3.06708e-06
-2.40016e-06
-5.43308e-06
5.23774e-05
4.43252e-06
-1.37489e-05
-5.543e-07
0.000117086
1.52128e-06
3.57212e-06
2.29528e-06
3.6093e-06
-5.91014e-07
-3.74118e-07
-3.73762e-07
-3.86067e-06
8.94131e-07
7.59536e-05
-4.21453e-06
-2.84594e-06
-3.66705e-06
2.81318e-06
1.25395e-06
2.65298e-06
-3.88807e-05
-1.13554e-06
3.45096e-06
3.50284e-05
-3.54656e-05
-1.65589e-06
1.54305e-06
3.55784e-05
-4.2672e-05
4.80357e-06
-4.10381e-06
4.14179e-05
-2.30976e-05
5.06593e-06
-8.95352e-06
2.58336e-06
2.5296e-05
-1.66504e-05
-4.98815e-06
6.31425e-06
1.53242e-05
-2.60666e-06
-2.93993e-06
2.51247e-06
3.03412e-06
-6.94779e-06
5.35213e-06
-5.16812e-06
6.76378e-06
3.35485e-06
-5.47108e-06
-1.39262e-05
6.05918e-06
-3.9329e-06
1.39161e-05
-7.88104e-08
-1.61669e-05
-6.15646e-06
6.70237e-06
-1.40773e-06
1.71076e-05
-1.08151e-05
-3.32605e-06
4.98724e-06
2.67148e-06
1.20694e-05
-5.58697e-06
5.17895e-06
-2.53649e-06
-1.29143e-05
4.32213e-06
-6.34096e-06
1.22907e-05
2.42989e-06
-7.33895e-06
0.000112479
4.12923e-06
3.68488e-06
4.48751e-06
4.36533e-06
-4.27466e-06
-3.88436e-06
-3.90348e-06
-3.71641e-06
-1.2085e-05
3.72398e-06
7.90716e-05
1.19322e-06
-8.59538e-07
1.87027e-06
-1.41209e-07
-7.94037e-07
5.13841e-08
7.20243e-05
-2.26187e-06
-2.9318e-06
-1.82559e-06
-2.94362e-06
-3.10945e-06
-5.87483e-07
-2.16735e-06
-6.90986e-06
-3.26247e-06
2.02654e-06
7.35175e-06
-3.66933e-06
2.25631e-06
-2.08601e-06
3.49903e-06
-1.28396e-06
-2.56291e-05
7.10101e-06
3.42235e-06
-6.46324e-06
2.2853e-05
-6.89327e-06
1.71177e-06
0.000102358
-2.45182e-06
-2.34647e-06
-2.3624e-06
-2.57027e-06
-7.03762e-06
3.21602e-06
8.39183e-05
-6.1008e-07
-4.42445e-06
0.000128813
-1.56212e-06
-3.04324e-07
-7.80853e-07
3.56738e-07
-3.62188e-06
-7.99674e-08
-1.04789e-05
-2.10488e-06
-1.63126e-06
3.66249e-06
9.94249e-06
-5.30047e-05
1.28254e-06
-1.19516e-06
-5.24755e-06
5.32441e-05
4.9207e-06
-8.98649e-06
-6.76678e-08
0.00012202
-1.82186e-07
2.39031e-06
-2.82533e-07
1.99731e-06
2.59535e-07
5.30579e-07
1.11916e-06
-3.84344e-06
1.63458e-06
7.54363e-05
-3.30858e-06
-3.51369e-06
-3.05501e-06
2.62214e-06
1.84774e-06
2.36309e-06
-3.24521e-05
-3.18112e-07
-2.21432e-06
2.67166e-05
-3.58416e-05
-8.23359e-07
2.64114e-07
3.64008e-05
-4.10825e-05
4.65086e-06
-4.76398e-06
4.11279e-05
-2.71825e-05
5.53003e-06
-9.87277e-06
3.77415e-06
2.93857e-05
-1.28853e-05
-4.6493e-06
6.81366e-06
1.07209e-05
-3.45352e-06
-2.46515e-06
2.04343e-06
3.87523e-06
-6.97171e-06
5.02123e-06
-5.715e-06
7.66548e-06
3.4685e-06
-4.94268e-06
-1.42478e-05
5.31001e-06
-4.69025e-06
1.51023e-05
1.55632e-07
-1.8108e-05
-5.41625e-06
5.99983e-06
-1.79079e-06
1.91595e-05
-1.3293e-05
-3.02799e-06
4.72581e-06
2.18636e-06
1.46653e-05
-5.25653e-06
6.05308e-06
-2.15228e-06
-1.18504e-05
3.25869e-06
-6.78406e-06
1.1475e-05
6.41675e-06
-1.40943e-05
0.000117064
5.27428e-06
4.12231e-06
5.55475e-06
4.98853e-06
-4.01753e-06
-4.88935e-06
-3.75812e-06
-4.18189e-06
-5.32922e-06
-4.20557e-06
8.83473e-05
2.11839e-06
3.99006e-07
2.87182e-06
1.28665e-06
2.93468e-07
-3.09892e-06
7.81052e-05
-1.86558e-06
-2.58594e-06
-1.19653e-06
-2.32291e-06
-6.30108e-07
2.67375e-07
-2.71053e-07
-7.33725e-06
-3.74506e-06
3.74177e-06
7.63405e-06
-3.42352e-06
2.60983e-06
-2.45583e-06
3.26951e-06
-1.22338e-07
-1.98473e-05
6.7899e-06
3.64012e-06
-6.82445e-06
1.63641e-05
-1.61094e-06
-6.88704e-06
0.00011476
-4.27467e-06
-5.16955e-06
-3.74415e-06
-4.81036e-06
-9.87282e-06
-2.3675e-06
9.03421e-05
-5.37848e-07
-4.88119e-06
0.000129561
-7.25249e-07
-1.61818e-07
-2.55892e-07
-1.25281e-06
-4.70927e-06
-1.19537e-06
-1.0653e-05
-2.7323e-06
-1.67611e-06
2.48043e-06
1.20431e-05
-5.14787e-05
1.14227e-06
2.52365e-06
-4.73171e-06
4.64472e-05
6.09729e-06
8.56745e-06
-2.23253e-07
0.000119923
-4.62264e-06
-2.5851e-07
-5.68454e-06
-5.54272e-07
1.21642e-07
-1.36029e-06
-7.7503e-07
-1.96994e-06
9.13049e-07
8.10458e-05
-4.56741e-07
-4.75576e-07
5.86152e-07
1.53486e-06
-9.57674e-08
5.54396e-07
-2.19998e-05
3.66259e-07
-3.00716e-06
1.77896e-05
-3.70384e-05
1.62264e-06
-1.66481e-06
3.70806e-05
-4.13706e-05
2.81103e-06
-2.21355e-06
4.05499e-05
-3.26429e-05
1.05213e-06
-1.91404e-06
2.50114e-07
3.41677e-05
-9.02542e-06
-3.90441e-07
8.79731e-07
8.53613e-06
-4.30624e-06
-1.86956e-06
1.45606e-06
4.71974e-06
-8.75732e-06
3.64036e-06
-4.54143e-06
9.65839e-06
3.21037e-06
-3.88518e-06
-1.61793e-05
4.42356e-06
-4.97003e-06
1.74006e-05
7.13563e-07
-2.03643e-05
-4.62257e-06
5.16477e-06
-2.49687e-06
2.16054e-05
-1.60559e-05
-2.37929e-06
4.14776e-06
1.49312e-06
1.74609e-05
-4.66658e-06
4.63413e-06
-1.02243e-06
-1.07596e-05
2.27076e-06
-4.63611e-06
9.51321e-06
9.9954e-06
-1.70545e-05
0.000121066
5.45668e-06
4.32831e-06
5.33205e-06
5.10798e-06
-4.03824e-06
-5.04069e-06
-3.70987e-06
-4.37995e-06
4.42639e-07
-1.08313e-05
9.8247e-05
2.89814e-06
1.43253e-06
3.73555e-06
2.41811e-06
9.41048e-07
-6.30586e-06
8.59488e-05
-9.6036e-07
-1.70218e-06
-1.74011e-07
-1.34097e-06
5.27583e-07
9.0375e-07
7.10093e-07
-7.80054e-06
-3.62105e-06
3.84055e-06
8.52211e-06
-2.87552e-06
1.9108e-06
-1.48108e-06
2.4458e-06
-1.31325e-06
-1.30893e-05
4.44777e-06
3.86182e-06
-4.53617e-06
1.06291e-05
5.14044e-06
-1.14084e-05
0.000126278
-5.29624e-06
-6.77029e-06
-4.4473e-06
-5.79076e-06
-8.08874e-06
-9.48687e-06
0.000102227
-1.76774e-07
-6.02537e-06
0.00013193
-6.42072e-07
1.74421e-07
-1.22691e-06
-1.48023e-06
-5.52093e-06
-1.86571e-06
-1.47013e-05
-1.96057e-06
-9.90435e-07
-4.92301e-07
1.79678e-05
-3.9472e-05
2.48753e-06
4.40945e-06
-4.83601e-06
3.18719e-05
5.53911e-06
1.96769e-05
-2.53686e-06
0.00012327
-8.75966e-06
-3.8068e-06
-8.55783e-06
-7.06513e-06
-1.70046e-06
-1.08399e-06
-9.223e-07
1.39322e-06
-1.85327e-06
8.90903e-05
2.61402e-06
2.38701e-06
2.78821e-06
-1.16162e-06
-2.07379e-06
-1.94818e-06
-1.5624e-05
1.82649e-06
-5.63151e-06
1.47969e-05
-3.6893e-05
3.61382e-06
-3.21525e-06
3.64944e-05
-3.73885e-05
-3.60516e-07
4.30102e-06
3.09111e-05
-3.37637e-05
-6.34731e-06
7.89373e-06
-2.825e-06
3.3189e-05
-8.97735e-06
3.88478e-06
-4.8409e-06
9.93346e-06
-5.10596e-06
-1.29722e-06
9.38802e-07
5.46437e-06
-1.01987e-05
2.46567e-06
-2.57707e-06
1.03101e-05
2.00901e-06
-2.47922e-06
-1.86152e-05
3.2119e-06
-3.79861e-06
1.96721e-05
1.29246e-06
-2.29915e-05
-3.69156e-06
4.2419e-06
-3.00026e-06
2.4149e-05
-1.89111e-05
-1.79576e-06
3.55643e-06
8.07476e-07
2.0363e-05
-4.02006e-06
2.21571e-06
-3.58002e-07
-8.02698e-06
1.78618e-06
-2.39638e-06
6.77947e-06
1.05558e-05
-1.71064e-05
0.000123294
4.83436e-06
4.18684e-06
4.36571e-06
4.8897e-06
-3.31842e-06
-4.34104e-06
-2.83099e-06
-3.46327e-06
4.02311e-06
-1.40976e-05
0.000107015
3.17689e-06
1.88014e-06
3.97899e-06
2.82671e-06
1.10688e-06
-8.25312e-06
9.46608e-05
-1.64446e-07
-8.76811e-07
6.42378e-07
-6.36746e-07
1.07814e-06
1.10474e-06
1.31004e-06
-9.25133e-06
-3.0609e-06
3.32611e-06
1.00928e-05
-2.09454e-06
6.93533e-07
-4.21521e-07
1.82253e-06
-1.5875e-06
-9.01106e-06
2.74374e-06
3.13115e-06
-3.20357e-06
7.92724e-06
7.38802e-06
-1.22466e-05
0.000131877
-4.63437e-06
-5.6878e-06
-3.47356e-06
-4.05086e-06
-5.83849e-06
-1.44103e-05
0.000115766
4.79606e-07
-6.22096e-06
0.000142129
-2.66502e-06
9.89229e-07
-3.83118e-06
-3.37975e-06
-5.28098e-06
-4.38186e-06
-2.16359e-05
-9.92484e-07
-3.81904e-07
-1.96166e-06
2.54515e-05
-2.4436e-05
3.03608e-07
4.66868e-06
-2.132e-06
1.79102e-05
3.6855e-06
1.82012e-05
-4.04296e-08
0.000121375
-8.5825e-06
-7.22199e-06
-6.03664e-06
-5.43684e-06
-5.23795e-07