/*--------------------------------*- C++ -*----------------------------------*\
| =========                 |                                                 |
| \\      /  F ield         | OpenFOAM: The Open Source CFD Toolbox           |
|  \\    /   O peration     | Version:  5.x                                   |
|   \\  /    A nd           | Web:      www.OpenFOAM.org                      |
|    \\/     M anipulation  |                                                 |
\*---------------------------------------------------------------------------*/
FoamFile
{
    version     2.0;
    format      ascii;
    class       volVectorField;
    location    "2";
    object      U;
}
// * * * * * * * * * * * * * * * * * * * * * * * * * * * * * * * * * * * * * //

dimensions      [0 1 -1 0 0 0 0];

internalField   nonuniform List<vector> 
10571
(
(0.708105 0.270693 1.14311)
(-0.00787731 0.292733 0.838485)
(0.216319 -0.207286 0.812894)
(0.919995 0.797133 1.35363)
(0.203508 0.573321 0.697195)
(-0.510525 0.798043 1.86499)
(0.075327 0.505987 1.13279)
(1.14398 1.67865 1.48709)
(-0.39492 2.75099 3.20387)
(0.00966001 0.30676 1.06804)
(0.354733 0.681288 1.84036)
(-1.20324 0.84254 1.81251)
(0.494896 0.521407 0.825)
(0.729614 2.24873 2.91792)
(0.150828 1.28213 2.06232)
(0.185299 0.920934 1.47253)
(0.919701 1.04447 1.4387)
(0.771937 0.514006 1.77492)
(0.73939 0.790517 1.83385)
(0.876042 1.25101 2.26481)
(-0.205851 0.295323 1.92208)
(0.631059 0.312749 1.12166)
(0.883536 1.5272 2.66384)
(-0.133641 -0.0417636 1.70572)
(0.312283 0.153006 1.09343)
(-0.154807 0.127274 0.271304)
(-0.0151401 0.381755 0.421813)
(0.372797 0.545684 0.692174)
(0.498949 0.367415 0.512055)
(-0.313524 0.330568 1.32855)
(0.220038 0.279136 0.393225)
(0.503258 0.738663 1.00387)
(0.553534 0.580563 1.0815)
(0.139718 0.394046 0.974154)
(-0.466783 1.58172 2.71004)
(0.614966 0.438586 0.747286)
(0.307016 0.549269 0.848378)
(0.660903 2.06716 3.90718)
(0.809137 0.765837 1.84886)
(0.32258 0.597009 1.05406)
(0.722981 0.615994 0.769402)
(0.651031 1.37119 4.20574)
(-0.283099 2.22247 2.97561)
(0.515224 0.699847 1.82231)
(-0.208747 0.0113836 1.84443)
(0.221152 -0.183857 1.66035)
(-0.400521 0.614858 2.04999)
(0.306899 -0.0634712 0.892263)
(0.0919903 0.0920199 0.480996)
(-0.0698264 0.0454264 0.416527)
(-0.0361523 0.270306 0.505066)
(0.210842 0.295405 0.500395)
(0.403864 0.375912 0.355774)
(0.26098 0.117985 0.847261)
(0.0261909 0.218115 0.261155)
(0.0988153 0.420461 0.907556)
(0.456825 0.73443 2.86386)
(0.301545 0.32088 1.22132)
(0.715585 1.142 5.78892)
(0.578826 0.376219 0.802093)
(-0.165441 -0.140319 0.172726)
(0.0546027 0.270903 1.4772)
(0.829595 -0.0617712 1.91095)
(0.264173 -0.175751 1.17752)
(-0.0998407 0.120339 0.809237)
(0.156416 1.21637 2.83479)
(0.147678 1.58936 2.23293)
(0.30356 -0.348621 1.32196)
(0.0918775 -0.321941 2.20822)
(-0.373893 -1.12883 1.37862)
(-0.46371 0.876912 2.35622)
(0.811109 -0.472899 1.28809)
(0.0125418 0.0398626 0.266255)
(-0.101004 0.149822 0.352875)
(-0.0685321 0.24527 0.375332)
(0.0685617 0.202204 0.201137)
(0.103787 0.154434 -0.114261)
(0.0498499 0.301272 0.679144)
(-0.175236 0.945894 0.899895)
(-0.513232 0.854355 0.857161)
(0.131036 0.655769 1.40846)
(-0.254528 0.0809902 0.864084)
(0.178956 0.0816641 2.36207)
(-0.274074 -0.272974 1.12101)
(-0.348729 -1.0194 0.178478)
(-0.271858 -0.485958 1.40452)
(0.510102 -0.0128101 1.9843)
(0.208481 -0.10876 1.90443)
(-0.408435 -0.424473 0.915534)
(-0.451832 0.276337 2.15128)
(0.344302 -0.172329 1.56169)
(0.509608 -0.571651 1.52631)
(0.227667 -0.435465 2.42174)
(-0.781887 -0.0617553 1.99188)
(-0.440457 0.726663 2.47056)
(1.09416 -0.472677 1.99524)
(-0.0388335 0.016265 0.116123)
(-0.0811194 0.0886397 0.0518197)
(-0.0966512 0.151644 0.140484)
(-0.0881843 0.071097 0.0183629)
(-0.0576399 -0.0299258 -0.184778)
(-0.0724433 0.205682 0.549379)
(-0.600346 0.319914 0.616457)
(-0.651776 0.181394 0.533743)
(-0.249684 0.549956 1.47607)
(-0.28144 0.04838 0.77143)
(-0.0279746 -0.23241 1.48445)
(-0.215008 -0.376124 1.07032)
(-0.429069 -0.535889 0.571556)
(-0.426921 -0.292017 1.44535)
(0.28263 0.144707 2.42094)
(-0.0346031 0.176372 2.19862)
(-0.561327 -0.465935 1.20546)
(-0.393924 -0.0995278 1.58311)
(0.0511188 -0.232177 0.825444)
(0.512068 -0.431017 1.91537)
(0.288174 -0.442558 2.78718)
(-1.08447 -0.0559176 2.59343)
(-0.130453 -0.0703272 1.0198)
(0.395037 -0.10374 0.800783)
(-0.0494991 0.00829252 0.0168908)
(-0.034518 0.0816388 -0.0786484)
(-0.0580237 0.0991103 -0.0138808)
(-0.136898 0.0470849 0.00992721)
(-0.119157 -0.0726454 -0.0622076)
(-0.028833 -0.128009 0.968074)
(-0.660065 -0.063328 1.01287)
(-0.337976 -0.249891 0.340374)
(-0.171968 -0.0464148 0.796615)
(0.0757083 -0.221458 0.366797)
(-0.00586663 0.00628068 0.000515194)
(-0.0312187 -0.390077 1.68116)
(-0.0804823 -0.307679 1.33777)
(-0.41002 -0.101454 0.54982)
(-0.422612 -0.0980257 1.06648)
(0.156711 0.268932 2.71586)
(0.118652 0.33055 2.2683)
(0.000593459 0.00267964 -0.00202946)
(-0.631197 -0.433284 1.60915)
(-0.239321 0.0447825 1.44279)
(-0.212627 0.0589942 0.667212)
(0.314398 0.038239 2.09037)
(0.178579 -0.231874 3.28081)
(-0.754438 6.25116e-05 2.79154)
(-0.218291 0.0300525 0.459834)
(0.358966 -0.0462689 0.745845)
(0.0194884 0.0112792 -0.0407872)
(0.0143961 0.0391297 -0.0488335)
(0.210625 0.114605 0.141158)
(-0.0585183 0.0494053 0.00138722)
(-0.116518 0.0206405 0.0513677)
(-0.00697715 -0.325714 1.23064)
(-0.414456 -0.189016 1.02581)
(-0.263256 -0.110494 0.549779)
(-0.272264 -0.260913 0.817354)
(-0.0264325 -0.181263 0.223531)
(-0.264957 0.0516981 -0.143807)
(-0.0204091 -0.444644 1.63368)
(0.101226 -0.297295 1.43882)
(-0.327689 -0.0392559 0.794799)
(-0.416538 -0.0406648 0.754197)
(0.0667492 0.174316 2.47317)
(0.20254 0.283432 2.14559)
(-0.39177 0.411304 0.0390867)
(-0.489907 -0.378081 1.83059)
(-0.0714606 0.00640147 1.20736)
(-0.414994 0.109342 0.484135)
(0.0827727 0.329492 2.08111)
(0.226111 0.0256456 3.34768)
(-0.487628 0.205765 0.314018)
(-0.524193 -0.0102305 2.67401)
(-0.0774621 -0.0993857 0.134819)
(-0.0209468 0.20362 0.617224)
(0.102977 0.00682625 -0.0405211)
(0.162793 -0.214044 0.182667)
(0.274135 -0.191576 0.286494)
(0.185071 0.140909 0.1282)
(0.088418 0.0800713 0.0246349)
(0.106997 -0.407227 1.33911)
(-0.232512 -0.228301 0.968558)
(-0.262357 0.0248647 0.437356)
(-0.333418 -0.206967 0.714814)
(-0.352142 0.228794 0.264174)
(-0.476309 0.189689 -0.391174)
(-0.00661745 -0.335807 1.58324)
(0.180852 -0.257963 1.33294)
(-0.198289 0.0260724 0.867182)
(-0.430937 0.0842383 0.779162)
(-0.164464 0.0136929 1.73976)
(0.170101 -0.0693006 1.27658)
(-0.273369 0.376809 0.30217)
(-0.357476 -0.317478 1.90343)
(0.0604136 0.0201661 1.13857)
(-0.300553 0.0849826 0.522055)
(-0.187554 0.308493 1.69254)
(0.0136658 0.119219 3.24319)
(0.559198 0.29102 0.628143)
(-0.380994 -0.00983186 2.6112)
(-0.0737974 0.0374025 0.225191)
(-0.231744 0.31148 0.627078)
(0.196898 0.0199897 -0.102903)
(0.294402 -0.367159 0.400486)
(0.419496 -0.348285 0.485511)
(0.413957 0.082346 0.224844)
(0.168857 0.141013 0.0743809)
(0.20525 -0.369293 1.22795)
(-0.0510538 -0.224305 1.02147)
(-0.212407 0.116918 0.491018)
(-0.274524 0.0443533 0.647633)
(-0.114573 0.185514 0.272773)
(-0.46924 -0.571012 -0.709149)
(0.0374665 -0.179394 1.29918)
(0.237894 -0.199778 1.23625)
(-0.140394 0.0846157 0.962485)
(-0.257399 0.189779 0.766582)
(-0.188645 0.160465 1.65384)
(-0.054714 -0.179389 1.20832)
(0.172932 -0.640989 0.513295)
(-0.286932 -0.247496 1.91223)
(0.0625664 0.0174021 1.13495)
(-0.192457 0.100204 0.640955)
(-0.22305 0.408859 1.83113)
(-0.309832 0.168788 3.51096)
(-0.287634 0.013054 2.60253)
(0.0184574 0.0510947 0.354395)
(-0.0814418 0.136452 0.995705)
(0.342239 0.021739 -0.0481938)
(0.302379 -0.358713 0.51411)
(0.467271 -0.37849 0.581974)
(0.479531 -0.011939 0.355073)
(0.244721 0.178775 0.126386)
(0.255654 -0.353001 0.972448)
(0.101074 -0.203356 1.04697)
(-0.162463 0.162728 0.532437)
(-0.281194 0.0622507 0.63096)
(-0.338616 0.145762 0.345245)
(0.0253543 -0.267815 0.930006)
(0.19809 -0.188674 1.23461)
(-0.0911274 0.094622 0.963782)
(-0.185774 0.203229 0.777582)
(-0.0663943 0.242277 1.48227)
(-0.387796 0.198219 1.20036)
(-0.245462 -0.250635 1.94907)
(0.0142945 -0.0224044 1.11654)
(-0.260235 0.0783423 0.736482)
(-0.1566 0.408492 1.81892)
(-0.174213 0.222769 3.42121)
(-0.242495 0.0242507 2.50215)
(0.0236337 -0.00189257 0.501102)
(-0.149375 0.147414 1.13162)
(0.431732 0.0228796 0.0951153)
(0.284242 -0.313372 0.577163)
(0.476848 -0.325729 0.634172)
(0.488212 -0.0605392 0.495506)
(0.303831 0.191738 0.225008)
(0.244551 -0.379984 0.766725)
(0.199238 -0.198325 1.05172)
(-0.169029 0.174521 0.594934)
(-0.321358 0.0492967 0.650644)
(-0.211791 -0.0210926 0.157622)
(-0.0247385 -0.346405 0.698711)
(0.140614 -0.292603 1.27992)
(-0.0417315 0.08197 0.933162)
(-0.17763 0.193573 0.810593)
(0.0543129 0.118292 1.3902)
(0.170109 0.200586 0.893602)
(-0.217307 -0.310489 2.00976)
(-0.0476007 -0.0278965 1.12848)
(-0.396187 0.0208595 0.824231)
(-0.104926 0.450335 1.78568)
(-0.102536 0.247142 3.19134)
(-0.238789 -0.0234333 2.30747)
(-0.205749 0.00187533 0.734722)
(-0.218816 0.278417 1.4445)
(0.462274 0.0290046 0.267129)
(0.278326 -0.290916 0.566106)
(0.46928 -0.295789 0.622819)
(0.518319 -0.0894422 0.638714)
(0.340292 0.204051 0.342362)
(0.269107 -0.362152 0.61347)
(0.217949 -0.216015 1.06486)
(-0.168664 0.154762 0.662436)
(-0.345875 0.0711816 0.688761)
(-0.107531 -0.0100676 0.274295)
(-0.0456194 -0.377558 0.592398)
(0.213772 -0.38443 1.25707)
(-0.0235982 0.0725241 0.933189)
(-0.210506 0.151786 0.845224)
(0.0940864 -0.0105218 1.31745)
(-0.0308297 0.334328 0.577721)
(-0.191386 -0.332505 2.0403)
(-0.041989 0.0158578 1.16853)
(-0.492059 0.00757147 0.808389)
(-0.0859279 0.308829 1.63369)
(-0.0950737 0.22901 3.22291)
(-0.262594 -0.0434261 2.09417)
(-0.53181 0.0487303 0.949674)
(-0.444348 0.30019 1.51773)
(0.405211 0.0275131 0.404769)
(0.284349 -0.300792 0.494958)
(0.438719 -0.24999 0.609068)
(0.497843 -0.0637547 0.727967)
(0.353851 0.197281 0.456121)
(0.218537 -0.41873 0.557785)
(0.206474 -0.263097 1.09861)
(-0.12692 0.0581033 0.743894)
(-0.287857 0.105321 0.724024)
(0.0505503 0.239725 0.368835)
(-0.0410445 -0.298583 0.510419)
(0.224651 -0.575722 1.08217)
(-0.00639522 0.0271938 0.977644)
(-0.249963 0.0699193 0.852294)
(0.0321409 -0.102875 1.32577)
(-0.0652745 0.337019 0.390097)
(-0.115964 -0.292959 2.08909)
(0.104442 0.0191139 1.26705)
(-0.451843 0.0246897 0.772941)
(-0.103396 -0.347959 1.27984)
(-0.0371353 0.115917 3.30086)
(-0.277822 -0.00511261 2.06498)
(-0.609378 0.0994049 1.09268)
(-0.48694 0.315307 1.0318)
(0.336115 0.0203742 0.525261)
(0.263986 -0.321032 0.523227)
(0.39096 -0.274756 0.640168)
(0.439513 -0.0808819 0.816213)
(0.329716 0.168966 0.550155)
(0.167692 -0.475633 0.511191)
(0.271054 -0.336674 1.14371)
(-0.0401832 -0.111106 0.843621)
(-0.142446 0.0795242 0.793307)
(0.0865966 0.29924 0.38342)
(-0.0578925 -0.324462 0.48689)
(0.125035 -0.514734 0.795052)
(0.151316 -0.114008 1.0897)
(-0.212313 -0.0231925 0.867712)
(-0.106298 -0.194151 1.3616)
(0.00611641 0.326897 0.441017)
(0.11919 -0.379026 1.96874)
(0.453916 -0.157867 1.31036)
(-0.11233 -0.0677696 0.818928)
(-0.109715 -0.357192 0.826198)
(0.0259182 -0.163039 3.38449)
(-0.136409 0.044883 2.09004)
(-0.0504338 0.113206 1.3702)
(-0.0152571 0.0538897 0.78467)
(0.259252 0.0108531 0.646888)
(0.177525 -0.255485 0.676206)
(0.315688 -0.278057 0.73281)
(0.371887 -0.132941 0.922106)
(0.296576 0.125804 0.645719)
(0.0817298 -0.337716 0.4497)
(0.335096 -0.349311 1.18942)
(0.0288579 -0.225107 0.939222)
(-0.0124282 -0.00420168 0.868354)
(0.0917055 0.287678 0.406658)
(-0.0325685 -0.250158 0.375417)
(0.18164 -0.325117 0.508824)
(0.297868 -0.202514 1.21382)
(-0.107274 -0.125306 0.965248)
(-0.184843 -0.224418 1.38458)
(0.080086 0.16435 0.642571)
(0.0202213 -0.408207 1.38517)
(0.613545 -0.228292 1.27615)
(0.151374 -0.212337 0.913591)
(0.0844819 -0.488872 0.642254)
(0.124817 -0.35679 3.34425)
(0.225295 -0.172945 1.7545)
(0.565617 -0.0385237 1.3041)
(0.411176 -0.144901 0.869246)
(0.191546 0.00413768 0.758506)
(0.132191 -0.153024 0.757032)
(0.207705 -0.17803 0.841296)
(0.298003 -0.178559 1.03846)
(0.250012 0.087214 0.763964)
(0.0871599 -0.147185 0.320557)
(0.329911 -0.33632 1.21391)
(0.0554609 -0.252146 1.03533)
(0.0746684 -0.0604937 0.948778)
(0.0703084 0.246988 0.488411)
(-0.0166211 -0.0894967 0.273807)
(0.161095 -0.219445 0.362537)
(0.306023 -0.222189 1.29632)
(-0.032513 -0.207975 1.0999)
(-0.184396 -0.228077 1.43335)
(0.143577 -0.00312788 0.93149)
(0.107121 -0.249737 0.802842)
(0.583818 -0.234287 1.28886)
(0.120538 -0.300589 0.9775)
(0.138688 -0.527438 0.700292)
(0.13908 -0.341437 3.2486)
(0.663267 0.074606 1.21635)
(0.637107 -0.0605022 1.32589)
(0.465535 -0.214763 1.01832)
(0.134436 -0.00223004 0.860391)
(0.0962891 -0.100217 0.733419)
(0.0944579 -0.0547411 0.918161)
(0.214924 -0.194257 1.1339)
(0.203398 0.0706673 0.903918)
(0.0837301 -0.0872241 0.250726)
(0.288607 -0.300072 1.24409)
(0.0392307 -0.209201 1.10751)
(0.11568 -0.0780651 1.04058)
(0.0582524 0.198536 0.589392)
(-0.00614847 -0.0352631 0.236215)
(0.0751991 -0.180415 0.289375)
(0.240964 -0.233918 1.3426)
(-0.00708452 -0.233192 1.22992)
(-0.0412692 -0.225569 1.55449)
(0.206839 -0.0849042 1.19269)
(0.102323 -0.107937 0.431465)
(0.416138 -0.276629 1.26229)
(0.0479267 -0.37167 1.00402)
(0.0756316 -0.509612 0.832697)
(0.1357 -0.198952 3.21214)
(0.25855 -0.130894 0.86973)
(0.231976 -0.0657855 1.32532)
(0.450535 -0.269341 0.853864)
(0.109612 -0.00461026 0.960488)
(0.0641074 -0.0709338 0.679129)
(-0.00265448 -0.0154119 0.982403)
(0.146533 -0.174475 1.1966)
(0.16924 0.0464884 1.01604)
(0.038694 -0.0988356 0.281124)
(0.220156 -0.246079 1.24214)
(-0.00312095 -0.150968 1.15949)
(0.0868168 -0.0521601 1.10612)
(0.0305372 0.149587 0.694479)
(-0.0104596 -0.0132695 0.284697)
(-0.062202 -0.196569 0.25937)
(0.193085 -0.203566 1.33517)
(-0.0217828 -0.161839 1.32118)
(0.134469 -0.17333 1.64985)
(0.238091 -0.0271883 1.39538)
(0.0291814 -0.0499778 0.222862)
(0.252922 -0.326521 1.22597)
(-0.00964594 -0.37153 1.01815)
(0.0254122 -0.462033 0.948981)
(0.0498308 -0.0552812 3.40263)
(-0.0520833 -0.100077 0.566646)
(0.134923 -0.271993 0.887788)
(0.403241 -0.218613 0.538631)
(0.110537 -0.00491603 1.03424)
(0.0244019 -0.0467716 0.672977)
(-0.0408588 -0.0513186 1.03772)
(0.114836 -0.135269 1.20798)
(0.141425 0.0402951 1.09007)
(-0.0388997 -0.135553 0.385051)
(0.136766 -0.279225 1.20284)
(-0.0251155 -0.0877188 1.20154)
(-0.00752199 -0.032791 1.13641)
(0.000729196 0.106455 0.80137)
(-0.00653151 0.0479437 0.408914)
(-0.113932 -0.160217 0.253259)
(0.163183 -0.206258 1.27758)
(-0.0172392 -0.0269997 1.38062)
(0.197213 -0.118103 1.64157)
(0.224564 0.061674 1.57701)
(-0.0454443 -0.0628888 0.142926)
(0.204062 -0.26709 1.16922)
(-0.0163844 -0.320829 1.0505)
(-0.0416027 -0.249039 1.06588)
(-0.025728 0.0828331 3.50359)
(0.0769984 0.0764292 0.418854)
(0.208891 -0.10823 0.510341)
(0.235891 -0.107021 0.317881)
(0.126367 -0.00465639 1.10699)
(0.00782235 -0.0398322 0.745948)
(-0.0327332 -0.143927 1.09714)
(0.122282 -0.101187 1.20709)
(0.119955 0.0344445 1.14899)
(-0.114827 -0.132237 0.495541)
(0.0112005 -0.3448 1.13706)
(-0.0071691 -0.0404524 1.21512)
(-0.114516 -0.0530933 1.15123)
(-0.0232118 0.044413 0.903023)
(0.00294963 0.100009 0.508852)
(-0.0893956 -0.110905 0.262673)
(0.0258382 -0.249938 1.1506)
(0.043781 0.0826043 1.42358)
(0.171213 -0.10842 1.59952)
(0.219689 0.0468456 1.74061)
(-0.0374687 -0.0831681 0.114273)
(0.0358044 -0.12231 0.980129)
(0.0293545 -0.255469 1.10113)
(-0.223085 -0.0166636 1.12771)
(-0.0479146 0.0701431 3.58529)
(0.129986 0.152261 0.312326)
(0.203777 0.000416522 0.36647)
(0.101835 -0.0439515 0.195514)
(0.132403 -0.00542947 1.18675)
(-0.00358161 -0.0275097 0.84958)
(-0.0295174 -0.191531 1.15206)
(0.137629 -0.0746975 1.20514)
(0.0987394 0.0271725 1.19006)
(-0.171887 -0.112299 0.56374)
(-0.0422854 -0.308512 1.09347)
(0.0285331 -0.0398748 1.21849)
(-0.188416 -0.0808067 1.18568)
(-0.0464764 -0.0178853 1.01289)
(0.0094968 0.109743 0.566317)
(-0.110456 -0.0565705 0.284689)
(-0.136522 -0.261408 1.01818)
(0.114066 0.102748 1.45232)
(-0.0145953 -0.125482 1.50254)
(0.178592 -0.150255 1.84534)
(-0.0262197 -0.0370075 0.124841)
(-0.162793 -0.0434242 0.793117)
(0.039811 -0.19866 1.13932)
(-0.356375 0.0536626 1.09773)
(0.020502 0.000205063 3.5419)
(0.133307 0.179862 0.28587)
(0.193191 0.0443253 0.350002)
(0.0751797 -0.0139085 0.228124)
(0.117281 -0.00579841 1.26572)
(-0.0145374 -0.0231127 0.967328)
(-0.0355838 -0.178803 1.18477)
(0.136701 -0.0492 1.22206)
(0.0835546 0.0173693 1.23045)
(-0.217361 -0.0746519 0.596318)
(-0.0652312 -0.193114 1.00835)
(0.0670739 -0.0942385 1.23989)
(-0.195309 -0.0982026 1.2466)
(-0.0569775 -0.0336908 1.13707)
(0.00859905 0.121312 0.638397)
(-0.132702 -0.0339813 0.30524)
(-0.185379 -0.262957 0.930539)
(0.13636 0.0603768 1.47354)
(-0.136639 -0.132569 1.4447)
(0.0879839 -0.306851 1.94621)
(0.00376916 0.012648 0.172872)
(-0.152697 -0.00360016 0.617655)
(0.0257328 -0.137549 1.13331)
(-0.299728 0.053032 1.16968)
(0.116006 -0.329406 3.00229)
(0.126407 0.182221 0.305759)
(0.186777 0.0716521 0.398769)
(0.099126 -0.0101358 0.350735)
(0.0944724 -0.0111263 1.34586)
(-0.0308881 -0.00103404 1.08228)
(-0.0766422 -0.156151 1.18336)
(0.127767 -0.0552255 1.24527)
(0.0871535 -0.00644909 1.27285)
(-0.241655 -0.0790441 0.631906)
(-0.0774261 -0.170677 0.921059)
(0.0975736 -0.188755 1.26992)
(-0.142062 -0.12892 1.32817)
(-0.0473352 0.000144682 1.25895)
(0.0090199 0.15288 0.758407)
(-0.148803 -0.0282135 0.323377)
(-0.143889 -0.253615 0.809253)
(0.122657 -0.0834022 1.46213)
(-0.136702 -0.135062 1.43729)
(-0.0982459 -0.240158 1.97594)
(0.0593745 0.0593519 0.213587)
(0.000749402 0.0244591 0.457066)
(0.0469171 -0.075382 1.05348)
(-0.0811866 -0.0217077 1.25768)
(0.146013 -0.261113 2.31728)
(0.118041 0.141917 0.33262)
(0.188632 0.0729096 0.474128)
(0.166799 -0.0406303 0.487084)
(0.0834707 -0.0180286 1.43404)
(-0.096973 0.0604314 1.20589)
(-0.0935208 -0.180881 1.11321)
(0.127833 -0.0955159 1.28716)
(0.105812 -0.0282685 1.34281)
(-0.234673 -0.105492 0.706924)
(-0.117436 -0.242474 0.82368)
(0.112127 -0.222471 1.28385)
(-0.0738913 -0.167016 1.40786)
(-0.0219795 0.0369207 1.37192)
(0.0153786 0.178257 0.866519)
(-0.110819 -0.0252419 0.354283)
(-0.0703755 -0.193396 0.646581)
(0.136072 -0.224326 1.39447)
(-0.0638027 -0.167872 1.47736)
(-0.116559 -0.24577 1.77212)
(0.123295 0.0997959 0.219596)
(0.126227 0.0360742 0.348364)
(0.124986 -0.0459303 0.928873)
(0.104586 -0.101038 1.29185)
(-0.0605591 -0.0609305 2.02285)
(0.111365 0.078435 0.343108)
(0.206729 0.0171846 0.52096)
(0.252119 -0.0957479 0.606915)
(0.0768678 -0.0259615 1.54163)
(-0.172429 0.138906 1.32686)
(-0.127494 -0.187938 1.04646)
(0.106729 -0.127775 1.30985)
(0.105049 -0.0379572 1.43651)
(-0.17146 -0.0676484 0.84404)
(-0.139029 -0.280203 0.713464)
(0.11553 -0.193553 1.28953)
(-0.00895462 -0.179539 1.49123)
(0.00233182 0.0726723 1.48061)
(0.0114591 0.174695 0.877747)
(0.00332039 0.0289997 0.43037)
(0.00137271 -0.133689 0.469402)
(0.163121 -0.222946 1.34768)
(0.0463021 -0.191423 1.55405)
(-0.0620869 -0.18471 1.65715)
(0.178169 0.14252 0.186472)
(0.206672 0.0243231 0.268207)
(0.195136 -0.0268815 0.84383)
(0.210958 -0.0988598 1.32634)
(0.000464633 -0.111458 1.76764)
(0.116589 0.0366406 0.328997)
(0.245127 -0.0688429 0.488617)
(0.344213 -0.1482 0.679491)
(0.0632683 -0.0287926 1.65098)
(-0.241731 0.177311 1.38696)
(-0.213664 -0.167684 1.00441)
(0.0645094 -0.113028 1.29864)
(0.100448 -0.0460155 1.5272)
(-0.0570564 -0.0154453 1.01735)
(-0.0881518 -0.261002 0.614751)
(0.118191 -0.0557184 1.24766)
(0.0612303 -0.136531 1.56993)
(0.0252172 0.0825871 1.57819)
(0.00859879 0.172462 0.809667)
(0.105406 0.118882 0.468633)
(0.0735835 -0.11623 0.345279)
(0.183968 -0.102232 1.29745)
(0.109067 -0.121436 1.61778)
(-0.0439938 -0.118986 1.66633)
(0.208177 0.175985 0.136814)
(0.251135 -0.000135582 0.208718)
(0.232129 0.0269987 0.819933)
(0.221881 -0.0597078 1.37089)
(0.0496529 -0.126108 1.74472)
(0.127088 0.00934297 0.287507)
(0.300423 -0.110044 0.392835)
(0.408794 -0.158684 0.764053)
(0.0445971 -0.0338523 1.74288)
(-0.283802 0.192057 1.49609)
(-0.284474 -0.179236 0.961673)
(0.0269389 -0.115047 1.20715)
(0.0971724 -0.0492617 1.59985)
(0.0662866 -0.0323424 1.18019)
(0.0158517 -0.22782 0.540064)
(0.137566 0.0525346 1.13011)
(0.130798 -0.0426432 1.61437)
(0.0530318 0.108866 1.68074)
(0.0213942 0.2059 0.663441)
(0.146804 0.157292 0.440915)
(0.124521 -0.137018 0.264676)
(0.174576 0.118244 1.24917)
(0.126559 0.00312522 1.68524)
(-0.0659372 -0.0376151 1.74828)
(0.213768 0.183406 0.0797097)
(0.256597 -0.0220174 0.152575)
(0.215094 0.0921473 0.863526)
(0.198536 0.0436069 1.47896)
(0.0423475 -0.0581287 1.8298)
(0.138806 9.86765e-05 0.200975)
(0.300154 -0.121564 0.298089)
(0.301815 -0.0976625 0.952341)
(0.0214545 -0.040085 1.83629)
(-0.290312 0.208535 1.6174)
(-0.269682 -0.200283 0.917953)
(0.0359529 -0.14841 1.06806)
(0.0849375 -0.0583181 1.65698)
(0.130412 0.00133257 1.29788)
(0.108853 -0.208646 0.469068)
(0.142491 0.070226 1.01736)
(0.176575 0.0619635 1.62233)
(0.0682311 0.154047 1.78014)
(0.0250118 0.190328 0.527151)
(0.145378 0.127486 0.363273)
(0.133556 -0.169511 0.211984)
(0.121181 0.219642 1.24511)
(0.106161 0.121295 1.73973)
(-0.0793742 0.0693685 1.83305)
(0.199772 0.169784 0.0197545)
(0.230446 -0.0395655 0.108781)
(0.0943762 0.133142 0.987985)
(0.127782 0.176471 1.61301)
(-0.00321783 0.0256926 1.92477)
(0.124139 0.00204717 0.111722)
(0.194148 -0.116093 0.307765)
(0.0553726 0.0199676 1.19572)
(-0.00738935 -0.0394496 1.92122)
(-0.195735 0.199219 1.76665)
(-0.136556 -0.174816 0.926495)
(0.0590033 -0.164269 0.981681)
(0.101768 -0.0947089 1.69217)
(0.10763 0.124071 1.30871)
(0.163409 -0.207868 0.402166)
(0.112368 0.0417888 0.937426)
(0.175334 0.156766 1.58522)
(0.0808994 0.210276 1.87338)
(0.0307603 0.176994 0.396134)
(0.117308 0.116689 0.30335)
(0.113804 -0.195595 0.177273)
(0.0427176 0.220611 1.24946)
(0.0779045 0.220122 1.77625)
(-0.0721836 0.17517 1.91068)
(0.180785 0.154707 -0.0319669)
(0.18355 -0.0515508 0.0931379)
(-0.0693447 0.109598 1.12702)
(0.0204887 0.266423 1.70772)
(-0.0575339 0.106812 1.94802)
(0.0908458 0.00650751 0.0552761)
(0.0297429 -0.0917464 0.463627)
(-0.121967 0.137154 1.42517)
(-0.0268393 -0.0323175 2.00133)
(-0.0420589 0.188053 1.79345)
(0.0502438 -0.150421 0.999546)
(0.124474 -0.121629 0.947237)
(0.112637 -0.105097 1.67884)
(0.000502314 0.219665 1.13238)
(0.173798 -0.223008 0.375471)
(0.058744 -0.0269293 0.906667)
(0.139834 0.245998 1.51506)
(0.0978753 0.264878 1.94737)
(0.0277892 0.18776 0.288107)
(0.0938622 0.135801 0.283083)
(0.0771849 -0.205825 0.165342)
(-0.0709487 0.12156 1.24761)
(0.0635162 0.28845 1.79342)
(-0.0459884 0.259716 1.98089)
(0.164862 0.148321 -0.0610014)
(0.136187 -0.0580112 0.113319)
(-0.194914 0.032647 1.23474)
(-0.0583062 0.317964 1.77207)
(-0.100518 0.184805 1.95045)
(0.0564093 0.0129877 0.0458186)
(-0.101623 -0.0753453 0.65661)
(-0.251313 0.220154 1.62484)
(-0.0289865 -0.0319847 2.0339)
(0.0395966 0.108254 1.76745)
(0.132688 -0.103322 1.10326)
(0.244577 -0.0596764 0.8943)
(0.0832655 -0.0896564 1.56769)
(-0.054276 0.239561 0.886828)
(0.127579 -0.25965 0.391254)
(-0.00243712 -0.130907 0.937323)
(0.114498 0.297065 1.45179)
(0.0983904 0.305192 1.99391)
(0.0231475 0.205994 0.223096)
(0.0962491 0.148288 0.278869)
(0.0477355 -0.203303 0.166215)
(-0.172492 -0.0391808 1.22777)
(0.0673331 0.321493 1.78041)
(-0.0288036 0.3079 2.03707)
(0.153872 0.146451 -0.0646585)
(0.107855 -0.0602599 0.147675)
(-0.269115 -0.0648384 1.29155)
(-0.0946796 0.341499 1.81391)
(-0.134062 0.257103 1.96795)
(0.0268408 0.0201826 0.0806742)
(-0.177117 -0.0862759 0.815698)
(-0.337455 0.260192 1.76384)
(-0.0124204 -0.026933 2.02749)
(0.0411972 -0.0781781 1.70916)
(0.179903 -0.0591094 1.20099)
(0.348578 -0.0110201 0.848801)
(0.204315 -0.00393918 1.44186)
(-0.0831719 0.179134 0.772579)
(0.0366742 -0.294843 0.429575)
(-0.0445994 -0.266012 0.979319)
(0.121134 0.297498 1.40228)
(0.0919686 0.320162 1.98733)
(0.0187138 0.22465 0.161272)
(0.116343 0.14936 0.267639)
(0.0407559 -0.199269 0.176057)
(-0.220281 -0.204245 1.18476)
(0.0862956 0.329272 1.74239)
(-0.0310082 0.335547 2.08862)
(0.146672 0.142666 -0.0510566)
(0.0934867 -0.051691 0.191158)
(-0.306853 -0.159593 1.29802)
(-0.0916406 0.34474 1.83513)
(-0.153699 0.317672 2.01433)
(0.00984798 0.0243011 0.145632)
(-0.203961 -0.117531 0.898005)
(-0.377678 0.272285 1.85259)
(0.0247817 -0.0333675 2.02659)
(-0.0870783 0.0233965 1.56134)
(0.195775 -0.0485106 1.22826)
(0.360996 -0.00468929 0.848539)
(0.336922 0.0807174 1.38104)
(-0.0776379 0.14128 0.763495)
(-0.0013383 -0.292228 0.455047)
(-0.0478732 -0.393839 0.989939)
(0.149024 0.280749 1.36579)
(0.0813232 0.321198 1.97142)
(0.0116339 0.242404 0.107085)
(0.135149 0.148091 0.248994)
(0.0559603 -0.18514 0.179378)
(-0.210022 -0.356914 1.10065)
(0.116728 0.2947 1.69989)
(-0.037963 0.347685 2.13372)
(0.135776 0.131464 -0.0314964)
(0.076395 -0.038389 0.237149)
(-0.310085 -0.224307 1.25298)
(-0.0638836 0.33847 1.84357)
(-0.15941 0.344594 2.08293)
(0.00513508 0.0260198 0.22234)
(-0.204472 -0.144706 0.898775)
(-0.394796 0.25256 1.91393)
(0.0714781 -0.0426676 2.04451)
(-0.145083 0.123234 1.35346)
(0.0969716 -0.0473993 1.16525)
(0.253891 -0.0783398 0.917163)
(0.383597 0.182433 1.37647)
(-0.0135543 0.154776 0.809861)
(0.00559664 -0.276029 0.463325)
(-0.045037 -0.462862 0.976297)
(0.168983 0.276515 1.36039)
(0.0691646 0.320446 1.96375)
(0.0140981 0.248832 0.08849)
(0.135421 0.15595 0.218366)
(0.0936374 -0.149569 0.168118)
(-0.168838 -0.458452 0.997741)
(0.153034 0.196414 1.66538)
(-0.038538 0.346697 2.17471)
(0.111772 0.107377 -0.0122779)
(0.0306166 -0.0395691 0.286572)
(-0.286525 -0.270441 1.17579)
(-0.00711921 0.29355 1.85042)
(-0.173337 0.368666 2.16744)
(0.0135863 0.0361764 0.299452)
(-0.197388 -0.158595 0.824618)
(-0.350069 0.220787 1.93748)
(0.0931443 -0.0489145 2.12098)
(-0.110322 0.129076 1.28534)
(-0.0354103 -0.035945 1.0809)
(0.156067 -0.180785 1.00483)
(0.390066 0.221822 1.41497)
(0.14752 0.200474 0.873031)
(0.0552044 -0.221084 0.471317)
(-0.0526552 -0.480129 0.963031)
(0.173458 0.282959 1.37635)
(0.0468414 0.322012 1.96523)
(0.021175 0.223237 0.0853443)
(0.107797 0.174172 0.173824)
(0.118981 -0.123613 0.170748)
(-0.141436 -0.490968 0.906208)
(0.170199 0.113527 1.6672)
(-0.037834 0.338144 2.21034)
(0.071939 0.0580907 0.0154965)
(-0.0343954 -0.0473809 0.324328)
(-0.263438 -0.301232 1.09124)
(0.0135658 0.20901 1.85496)
(-0.175008 0.370037 2.24078)
(0.0145193 0.044933 0.37094)
(-0.188368 -0.129379 0.736217)
(-0.214846 0.199119 2.04538)
(0.118462 -0.048403 2.22315)
(-0.091841 0.0725211 1.30959)
(-0.0929632 -0.0632848 1.00443)
(0.10344 -0.213602 1.07227)
(0.406809 0.226596 1.47179)
(0.257775 0.262853 0.770745)
(0.0991497 -0.158906 0.522461)
(-0.0491441 -0.471288 0.95993)
(0.140178 0.296013 1.41345)
(0.0431408 0.347469 1.96885)
(0.0203404 0.183973 0.093353)
(0.0704561 0.181805 0.144065)
(0.129776 -0.100797 0.188713)
(-0.136493 -0.467525 0.821436)
(0.15004 0.0848557 1.70743)
(-0.0412338 0.317187 2.22556)
(0.0406554 0.0372701 0.0473479)
(-0.0873941 -0.0481569 0.350821)
(-0.256492 -0.280061 1.00045)
(-0.00905194 0.120966 1.8653)
(-0.176996 0.377054 2.28992)
(0.0102031 0.0470202 0.430485)
(-0.154289 -0.0700267 0.708879)
(-0.220898 0.0953772 2.08118)
(0.12337 -0.039763 2.31835)
(0.115594 0.0738876 1.25737)
(-0.0571025 -0.0608482 1.00369)
(0.058064 -0.209606 1.10708)
(0.407182 0.238204 1.51553)
(0.0849689 0.204556 0.58643)
(0.130164 -0.101588 0.580998)
(-0.0467173 -0.450951 0.981118)
(0.0217896 0.242813 1.45268)
(0.0391014 0.391716 1.96421)
(0.0148636 0.144367 0.112769)
(0.0494651 0.142564 0.134234)
(0.130002 -0.0681636 0.21206)
(-0.116275 -0.414077 0.753162)
(0.0497819 0.0465496 1.81092)
(-0.055392 0.289242 2.20429)
(0.0112484 0.0174343 0.0861296)
(-0.11892 -0.0329172 0.36972)
(-0.239233 -0.193593 0.901805)
(-0.0595545 -0.108861 1.95486)
(-0.176688 0.350212 2.32469)
(-0.000254052 0.0471866 0.490562)
(-0.123255 -0.00945278 0.718771)
(-0.320767 -0.00403295 1.43397)
(0.131598 -0.0386654 2.39247)
(0.203357 -0.0908958 0.922035)
(-0.075629 -0.0633182 1.07186)
(0.000566887 -0.219735 1.1356)
(0.381963 0.242981 1.52753)
(-0.0720922 0.0373835 0.344638)
(0.131872 -0.0130783 0.625162)
(-0.0880996 -0.456693 1.04694)
(-0.216628 -0.0733246 1.51269)
(0.114265 0.468202 1.91777)
(0.0105683 0.100396 0.125503)
(0.0478953 0.0876496 0.12723)
(0.126206 -0.0127207 0.23278)
(-0.0630321 -0.340332 0.718978)
(-0.168565 -0.16062 1.89821)
(-0.0568431 0.308813 2.14808)
(-0.00150149 -0.0356014 0.135389)
(-0.118834 -0.00849899 0.381362)
(-0.184989 -0.0923362 0.81112)
(-0.191609 -0.312495 1.99973)
(-0.189657 0.335626 2.31643)
(-0.0148383 0.0473354 0.559556)
(-0.099189 0.0417014 0.742157)
(-0.242211 0.105594 1.01749)
(0.118316 -0.0270219 2.51342)
(-0.0447692 -0.00676936 1.00957)
(-0.109168 -0.0804294 1.16174)
(-0.081522 -0.23008 1.20327)
(0.299898 0.17611 1.50814)
(-0.0662834 -0.0178245 0.204549)
(0.0567998 0.101894 0.60764)
(-0.158963 -0.473756 1.17542)
(-0.358312 -0.446814 1.53866)
(0.190845 0.421134 1.8255)
(0.00941985 0.0586857 0.121227)
(0.0474201 0.072195 0.12828)
(0.117369 0.0801223 0.262227)
(0.0260607 -0.21243 0.691909)
(-0.264189 -0.444527 1.77536)
(-0.0329861 0.244254 2.06002)
(-0.00232974 -0.0389107 0.159258)
(-0.0748428 0.0202999 0.411195)
(-0.102043 -0.0351714 0.769998)
(-0.32621 -0.237239 1.89016)
(-0.176858 0.276068 2.25511)
(-0.0244947 0.0414745 0.636033)
(-0.0820004 0.0757779 0.785526)
(-0.166277 0.0948051 0.942148)
(0.0856199 -0.0245834 2.56497)
(-0.100403 0.0727937 1.18119)
(-0.21083 -0.0710786 1.24193)
(-0.143845 -0.169974 1.29661)
(0.155317 0.0220983 1.56216)
(-0.00682295 0.0183154 0.143349)
(-0.0439252 0.202504 0.51772)
(-0.166812 -0.441834 1.25343)
(-0.351359 -0.600088 1.56728)
(0.196025 0.301694 1.75679)
(0.00695117 0.0337437 0.0998772)
(0.0486824 0.0877234 0.128026)
(0.118281 0.16925 0.281897)
(0.126042 -0.0394063 0.648738)
(-0.193043 -0.582067 1.55052)
(0.0254344 0.174501 1.98807)
(-0.00357581 0.011174 0.175949)
(-0.0189297 0.0508991 0.469756)
(-0.00746949 -0.0184163 0.771038)
(-0.309504 -0.074392 1.5217)
(-0.176562 0.226429 2.18458)
(-0.0264596 0.0331156 0.72639)
(-0.0528665 0.0961937 0.837042)