/*--------------------------------*- C++ -*----------------------------------*\
| =========                 |                                                 |
| \\      /  F ield         | OpenFOAM: The Open Source CFD Toolbox           |
|  \\    /   O peration     | Version:  5.x                                   |
|   \\  /    A nd           | Web:      www.OpenFOAM.org                      |
|    \\/     M anipulation  |                                                 |
\*---------------------------------------------------------------------------*/
FoamFile
{
    version     2.0;
    format      ascii;
    class       volVectorField;
    location    "2";
    object      Us;
}
// * * * * * * * * * * * * * * * * * * * * * * * * * * * * * * * * * * * * * //

dimensions      [0 1 -1 0 0 0 0];

internalField   nonuniform List<vector> 
10571
(
(0.0910146 0.0188731 -0.15013)
(0.0175871 0.0236764 -0.0901623)
(0.0638927 0.0749782 -0.121932)
(0.121739 0.139614 -0.145633)
(0.192632 0.162462 -0.1168)
(0.0367872 0.046498 -0.049348)
(0.153882 0.0220697 -0.120031)
(0.301198 0.262992 -0.0305382)
(0.294552 0.36077 0.0264425)
(0.103536 0.237796 0.0443442)
(0.0366678 0.0485451 -0.156728)
(0.111932 0.107629 -0.205349)
(0.169657 0.0757577 -0.182112)
(0.376421 0.236749 0.0116802)
(0.374503 0.298399 0.158966)
(0.209633 0.36711 0.0795315)
(0.214929 0.2527 -0.108336)
(0.295843 0.248735 0.0277275)
(0.386414 0.232344 0.16877)
(0.183327 0.157386 0.0940132)
(0.0278685 -0.0124689 -0.0227294)
(0.240057 0.142321 0.105122)
(0.174174 0.136143 0.0494838)
(0.000490431 0.000478528 -0.00438242)
(0.0554792 0.0356143 -0.0524993)
(-0.0112866 0.0129338 -0.0648834)
(0.034596 0.0749086 -0.0353276)
(0.131885 0.116438 -0.0561371)
(0.17914 0.132562 -0.103038)
(0.0688068 -0.0700739 -0.085312)
(0.0373111 -0.0308327 -0.161582)
(0.222255 0.138107 -0.0397978)
(0.375926 0.281273 0.148181)
(0.13537 0.208973 0.163055)
(0 0 0)
(0.0960756 0.0154444 -0.089716)
(0.0158488 -0.0458209 -0.238183)
(0.349675 0.274816 0.164522)
(0.438364 0.338562 0.205981)
(0.330359 0.438745 0.262648)
(0.0956771 0.0498275 -0.160925)
(0.18653 0.187849 0.157056)
(0.235096 0.120527 0.0432152)
(0.128512 -0.000925776 -0.181064)
(0.0346543 -0.0293479 -0.216722)
(0.193746 0.196662 0.168367)
(0.046079 0.0221453 -0.217534)
(0 0 0)
(0.0147472 0.00627217 -0.037816)
(-0.0270217 0.0253955 0.00517481)
(-0.0307107 0.0213245 0.0116493)
(0.0366622 0.0116164 -0.0748432)
(0.0926176 0.0773619 -0.141021)
(0.030865 0.0181696 0.0703542)
(-0.0639455 -0.0372445 -0.133504)
(-0.012361 -0.0844925 -0.158345)
(0.281738 0.138713 0.108605)
(-0.0145344 -0.0763761 -0.186819)
(0.0787566 0.00539241 0.250337)
(0.0835969 -0.00667394 0.0392595)
(-0.115066 -0.154345 -0.25881)
(-0.0508531 -0.166239 -0.200403)
(0.0861369 -0.037628 -0.0668457)
(0.0178764 -0.0394756 -0.111906)
(-0.160005 -0.14468 -0.264537)
(-0.078326 -0.127726 -0.141121)
(0.00742758 -0.110382 -0.154603)
(0.058198 -0.103382 -0.191545)
(0.018917 -0.0436353 -0.113062)
(-0.01717 -0.0308954 -0.119998)
(0.0107277 -0.0189037 -0.152593)
(0.0921524 -0.0602655 -0.20624)
(-0.0264727 0.000527957 -0.0630184)
(-0.0518606 0.0564507 -0.00436025)
(-0.0649385 0.0439019 -0.00327776)
(-0.0494679 -0.00653593 -0.113358)
(-0.0048388 0.0102433 -0.18876)
(0.00574416 0.0925366 0.0960124)
(-0.133981 -0.00975492 -0.131709)
(-0.125218 -0.130252 -0.164266)
(-0.0444411 -0.109946 -0.101777)
(-0.025547 -0.10359 -0.146547)
(0.0129377 0.0151885 0.156941)
(0.0786555 -0.0126766 0.12693)
(-0.189961 -0.197777 -0.239215)
(-0.118991 -0.17955 -0.169537)
(0.0055395 -0.0636706 -0.0145292)
(0.0146682 -0.049294 -0.0528988)
(-0.281473 -0.18172 -0.218847)
(-0.122299 -0.171482 -0.127879)
(-0.0454897 -0.153741 -0.127842)
(0.0126218 -0.142193 -0.128584)
(0.0144547 -0.0167304 0.00996076)
(-0.0956469 -0.0345212 -0.0606109)
(-0.019941 -0.0323388 -0.0370525)
(0.11075 -0.0969323 -0.0973858)
(-0.0531907 -0.00249518 -0.065129)
(-0.0565244 0.0698631 -0.0602578)
(-0.0711872 0.0555433 -0.0255533)
(-0.110763 -0.033061 -0.107615)
(-0.0882797 -0.0836195 -0.185421)
(-0.0173221 0.135996 -0.295095)
(-0.241263 -0.180129 -0.188464)
(-0.203232 -0.221808 -0.118283)
(-0.103117 -0.181937 -0.0941771)
(-0.0545383 -0.115581 -0.130185)
(-0.0871569 0.27573 -0.31586)
(0.0074007 0.271637 -0.323811)
(-0.266482 -0.142023 -0.15194)
(-0.212439 -0.122715 -0.060089)
(-0.0724252 -0.0465946 0.09509)
(-0.0210582 -0.0236655 -0.0111127)
(-0.353237 -0.227717 -0.0631056)
(-0.169338 -0.129315 -0.0711142)
(-0.102903 -0.097938 -0.103674)
(-0.025348 -0.0990763 0.00180674)
(0.0195857 -0.0196965 0.100413)
(-0.177457 -0.0784264 0.0512155)
(-0.0830506 -0.0486064 -0.107531)
(-0.0379421 0.010815 -0.176995)
(-0.0449834 0.00015697 -0.0549877)
(-0.0483051 0.0521207 -0.163483)
(-0.0496455 0.0459849 -0.0472959)
(-0.127801 0.00674065 -0.0483736)
(-0.126404 -0.105343 -0.0995642)
(-0.0557191 0.152381 -0.291624)
(-0.207823 -0.0461812 -0.114885)
(-0.183931 -0.226413 -0.097447)
(-0.105292 -0.225389 -0.103956)
(-0.0218661 -0.191132 -0.158111)
(-0.00587135 0.00426576 -0.0018784)
(0 0 0)
(-0.0289377 0.322663 -0.254899)
(-0.279648 -0.113478 -0.108851)
(-0.219913 -0.124014 -0.0735625)
(-0.131028 -0.0543326 0.157086)
(-0.0325801 -0.0294801 -0.0107453)
(-0.00188618 0.000512388 -0.0031461)
(0 0 0)
(-0.262104 -0.0392152 -0.0940254)
(-0.223539 0.000115119 -0.0796508)
(-0.0714773 -0.0197701 0.12973)
(0 0 0)
(-0.21163 -0.073237 0.0896929)
(-0.203783 0.0524896 -0.105832)
(-0.042966 -0.0029907 -0.158816)
(0.0219289 0.00647251 -0.0648678)
(-0.04794 0.0540628 -0.198748)
(0.0675399 0.0583807 -0.360256)
(-0.0570096 0.0451309 -0.0049796)
(-0.102063 -0.0413598 -0.0624838)
(-0.0723018 0.178067 -0.175361)
(-0.175415 0.193112 -0.00421039)
(-0.14686 -0.129519 -0.0283369)
(-0.0902483 -0.184813 -0.0416399)
(0.016327 -0.181014 -0.110469)
(0 0 0)
(0.0954166 0.299006 -0.11399)
(-0.00797494 0.301348 -0.204676)
(-0.369433 -0.0848586 -0.00963395)
(-0.196876 -0.125507 -0.000243898)
(-0.116109 -0.136238 0.0373736)
(-0.00969182 -0.0968111 0.0269771)
(0.133751 0.207841 -0.441259)
(0 0 0)
(-0.385307 0.016037 -0.0560371)
(-0.217155 0.000352899 0.0201477)
(-0.0803419 -0.00386517 0.165738)
(0.0191134 0.0182839 0.370894)
(2.37268e-14 5.44772e-14 -1.64709e-14)
(0 0 0)
(-0.238463 0.0848419 -0.0485613)
(-0.140607 0.0700438 -0.0326083)
(0.103212 0.00509964 -0.121482)
(-0.0404508 0.0455671 -0.157177)
(0.051223 0.0798779 -0.184452)
(-0.0070523 0.033878 0.0442983)
(0.0952369 0.0806861 0.00952355)
(-0.0397444 0.137005 -0.0918885)
(-0.0107164 0.211649 -0.195354)
(-0.0244555 0.190221 0.0344395)
(0.0150135 0.134925 -0.0484593)
(0.114092 0.212899 -0.041532)
(0 0 0)
(-0.129738 0.221221 -0.0781623)
(0 0 0)
(0 0 0)
(-0.17121 -0.0785974 0.0862594)
(-0.0970989 -0.0899795 0.0993398)
(0.00276162 -0.112503 0.067534)
(0.227099 0.389127 -0.0115885)
(0 0 0)
(0 0 0)
(-0.181904 -0.0128873 0.0962494)
(-0.122529 -0.0212807 0.153973)
(0.0992993 -0.0267746 0.244362)
(0 0 0)
(0 0 0)
(0 0 0)
(-0.119775 0.0739042 0.099121)
(0.106568 0.0176221 -0.0758705)
(0 0 0)
(0.0326375 0.0851948 -0.105622)
(0 0 0)
(0.117337 0.0854943 0.00501155)
(0 0 0)
(0 0 0)
(-0.0645171 0.218916 0.139984)
(0.0453875 0.200154 0.0843557)
(0.149955 0.214901 0.0856385)
(0.271306 0.262964 0.0386824)
(0 0 0)
(0 0 0)
(0 0 0)
(-0.0782429 0.365317 0.131459)
(-0.085276 -0.0598216 0.207283)
(0.0271472 0.281192 0.00797898)
(0.233951 0.36241 0.0775304)
(0 0 0)
(0 0 0)
(0 0 0)
(-0.0880547 0.0154468 0.163561)
(-0.011935 -0.0233257 0.395799)
(0 0 0)
(0 0 0)
(0 0 0)
(0.119513 0.0159892 -0.0146383)
(0 0 0)
(0.0319547 0.114114 -0.117728)
(0.10749 0.0234713 -0.110797)
(0.150233 0.129802 -0.108851)
(0 0 0)
(0 0 0)
(0 0 0)
(0.0524734 0.18319 0.0846024)
(0.0568715 0.203789 0.0292149)
(0 0 0)
(0 0 0)
(0 0 0)
(-0.109905 0.359791 0.223818)
(-0.0348331 0.380784 0.197388)
(0.0863152 0.169893 -0.245589)
(0 0 0)
(0 0 0)
(0 0 0)
(0 0 0)
(0.0491877 0.49211 0.242935)
(0 0 0)
(0 0 0)
(0 0 0)
(0.118735 0.00834915 0.0500216)
(0 0 0)
(0 0 0)
(0.0471309 0.0288477 -0.165123)
(0.150685 0.0646213 -0.0746674)
(0 0 0)
(0.0389817 0.189484 0.144203)
(0 0 0)
(0.112659 0.226516 0.0600191)
(0.0751981 0.160236 -0.0124829)
(0 0 0)
(0 0 0)
(0 0 0)
(0 0 0)
(0 0 0)
(0.0508089 0.300307 -0.045372)
(0 0 0)
(0 0 0)
(0 0 0)
(0 0 0)
(0 0 0)
(0 0 0)
(0 0 0)
(0 0 0)
(0.108638 0.0599367 0.143977)
(0 0 0)
(0 0 0)
(0 0 0)
(0 0 0)
(0 0 0)
(0 0 0)
(0 0 0)
(-0.0310337 0.185932 0.382895)
(0 0 0)
(0 0 0)
(0 0 0)
(0 0 0)
(0 0 0)
(0 0 0)
(0 0 0)
(0 0 0)
(0 0 0)
(0 0 0)
(0 0 0)
(0 0 0)
(0 0 0)
(0 0 0)
(0 0 0)
(0 0 0)
(0 0 0)
(0 0 0)
(0 0 0)
(0.102671 0.0465318 -0.103219)
(0 0 0)
(0 0 0)
(0 0 0)
(0 0 0)
(0 0 0)
(0 0 0)
(0 0 0)
(0 0 0)
(0 0 0)
(0 0 0)
(0 0 0)
(0 0 0)
(0 0 0)
(0 0 0)
(0 0 0)
(0 0 0)
(0 0 0)
(0 0 0)
(0 0 0)
(0 0 0)
(0 0 0)
(0 0 0)
(0 0 0)
(0.111389 0.124808 0.110858)
(0 0 0)
(0 0 0)
(0 0 0)
(0 0 0)
(0.0477648 0.175599 -0.0770867)
(0 0 0)
(0 0 0)
(0 0 0)
(0 0 0)
(0 0 0)
(-0.0148305 0.262484 -0.116753)
(0 0 0)
(0 0 0)
(0 0 0)
(0 0 0)
(0 0 0)
(0 0 0)
(0 0 0)
(0 0 0)
(0 0 0)
(0 0 0)
(0 0 0)
(0.121195 0.0451181 0.358271)
(0.0640327 0.096408 0.0826929)
(0 0 0)
(0 0 0)
(0 0 0)
(0 0 0)
(0.0567821 0.180859 -0.0587743)
(0 0 0)
(0 0 0)
(0 0 0)
(0 0 0)
(0 0 0)
(0 0 0)
(0 0 0)
(0 0 0)
(0 0 0)
(0 0 0)
(0 0 0)
(0 0 0)
(0 0 0)
(0 0 0)
(0 0 0)
(0 0 0)
(0 0 0)
(0 0 0)
(0.0741018 0.0897255 0.0534154)
(0 0 0)
(0 0 0)
(0 0 0)
(0.0609065 0.185644 0.118195)
(0.0729425 0.180357 0.0142986)
(0 0 0)
(0 0 0)
(0 0 0)
(0 0 0)
(0 0 0)
(0 0 0)
(0 0 0)
(0 0 0)
(0 0 0)
(0 0 0)
(0 0 0)
(0 0 0)
(0 0 0)
(0 0 0)
(0 0 0)
(0 0 0)
(0 0 0)
(0 0 0)
(0 0 0)
(0 0 0)
(0 0 0)
(0 0 0)
(0.0609065 0.185644 0.118195)
(0 0 0)
(0 0 0)
(0 0 0)
(0 0 0)
(0 0 0)
(0 0 0)
(0 0 0)
(0 0 0)
(0 0 0)
(0 0 0)
(0 0 0)
(0 0 0)
(0 0 0)
(0 0 0)
(0 0 0)
(0 0 0)
(0 0 0)
(0 0 0)
(0 0 0)
(0 0 0)
(0 0 0)
(0 0 0)
(0 0 0)
(0 0 0)
(0 0 0)
(0 0 0)
(0 0 0)
(0 0 0)
(0 0 0)
(0 0 0)
(0 0 0)
(0 0 0)
(0 0 0)
(0 0 0)
(0 0 0)
(0 0 0)
(0 0 0)
(0 0 0)
(0 0 0)
(0 0 0)
(0 0 0)
(0 0 0)
(0 0 0)
(0 0 0)
(0 0 0)
(0 0 0)
(0 0 0)
(0 0 0)
(0 0 0)
(0 0 0)
(0 0 0)
(0 0 0)
(0 0 0)
(0 0 0)
(0 0 0)
(0 0 0)
(0 0 0)
(0 0 0)
(0 0 0)
(0 0 0)
(0 0 0)
(0 0 0)
(0 0 0)
(0 0 0)
(0 0 0)
(0 0 0)
(0 0 0)
(0 0 0)
(0 0 0)
(0 0 0)
(0 0 0)
(0 0 0)
(0 0 0)
(0 0 0)
(0 0 0)
(0 0 0)
(0 0 0)
(0 0 0)
(0 0 0)
(0 0 0)
(0 0 0)
(0 0 0)
(0 0 0)
(0 0 0)
(0 0 0)
(0 0 0)
(0 0 0)
(0 0 0)
(0 0 0)
(0 0 0)
(0 0 0)
(0 0 0)
(0 0 0)
(0 0 0)
(0 0 0)
(0 0 0)
(0 0 0)
(0 0 0)
(0 0 0)
(0 0 0)
(0 0 0)
(0 0 0)
(0 0 0)
(0 0 0)
(0 0 0)
(0 0 0)
(0 0 0)
(0 0 0)
(0 0 0)
(0 0 0)
(0 0 0)
(0 0 0)
(0 0 0)
(0 0 0)
(0 0 0)
(0 0 0)
(0 0 0)
(0 0 0)
(0 0 0)
(0 0 0)
(0 0 0)
(0 0 0)
(0 0 0)
(0 0 0)
(0 0 0)
(0 0 0)
(0 0 0)
(0 0 0)
(0 0 0)
(0 0 0)
(0 0 0)
(0 0 0)
(0 0 0)
(0 0 0)
(0 0 0)
(0 0 0)
(0 0 0)
(0 0 0)
(0 0 0)
(0 0 0)
(0 0 0)
(0 0 0)
(0 0 0)
(0 0 0)
(0 0 0)
(0 0 0)
(0 0 0)
(0 0 0)
(0 0 0)
(0 0 0)
(0 0 0)
(0 0 0)
(0 0 0)
(0 0 0)
(0 0 0)
(0 0 0)
(0 0 0)
(0 0 0)
(0 0 0)
(0 0 0)
(0 0 0)
(0 0 0)
(0 0 0)
(0 0 0)
(0 0 0)
(0 0 0)
(0 0 0)
(0 0 0)
(0 0 0)
(0 0 0)
(0 0 0)
(0 0 0)
(0 0 0)
(0 0 0)
(0 0 0)
(0 0 0)
(0 0 0)
(0 0 0)
(0 0 0)
(0 0 0)
(0 0 0)
(0 0 0)
(0 0 0)
(0 0 0)
(0 0 0)
(0 0 0)
(0 0 0)
(0 0 0)
(0 0 0)
(0 0 0)
(0 0 0)
(0 0 0)
(0 0 0)
(0 0 0)
(0 0 0)
(0 0 0)
(0 0 0)
(0 0 0)
(0 0 0)
(0 0 0)
(0 0 0)
(0 0 0)
(0 0 0)
(0 0 0)
(0 0 0)
(0 0 0)
(0 0 0)
(0 0 0)
(0 0 0)
(0 0 0)
(0 0 0)
(0 0 0)
(0 0 0)
(0 0 0)
(0 0 0)
(0 0 0)
(0 0 0)
(0 0 0)
(0 0 0)
(0 0 0)
(0 0 0)
(0 0 0)
(0 0 0)
(0 0 0)
(0 0 0)
(0 0 0)
(0 0 0)
(0 0 0)
(0 0 0)
(0 0 0)
(0 0 0)
(0 0 0)
(0 0 0)
(0 0 0)
(0 0 0)
(0 0 0)
(0 0 0)
(0 0 0)
(0 0 0)
(0 0 0)
(0 0 0)
(0 0 0)
(0 0 0)
(0 0 0)
(0 0 0)
(0 0 0)
(0 0 0)
(0 0 0)
(0 0 0)
(0 0 0)
(0 0 0)
(0 0 0)
(0 0 0)
(0 0 0)
(0 0 0)
(0 0 0)
(0 0 0)
(0 0 0)
(0 0 0)
(0 0 0)
(0 0 0)
(0 0 0)
(0 0 0)
(0 0 0)
(0 0 0)
(0 0 0)
(0 0 0)
(0 0 0)
(0 0 0)
(0 0 0)
(0 0 0)
(0 0 0)
(0 0 0)
(0 0 0)
(0 0 0)
(0 0 0)
(0 0 0)
(0 0 0)
(0 0 0)
(0 0 0)
(0 0 0)
(0 0 0)
(0 0 0)
(0 0 0)
(0 0 0)
(0 0 0)
(0 0 0)
(0 0 0)
(0 0 0)
(0 0 0)
(0 0 0)
(0 0 0)
(0 0 0)
(0 0 0)
(0 0 0)
(0 0 0)
(0 0 0)
(0 0 0)
(0 0 0)
(0 0 0)
(0 0 0)
(0 0 0)
(0 0 0)
(0 0 0)
(0 0 0)
(0 0 0)
(0 0 0)
(0 0 0)
(0 0 0)
(0 0 0)
(0 0 0)
(0 0 0)
(0 0 0)
(0 0 0)
(0 0 0)
(0 0 0)
(0 0 0)
(0 0 0)
(0 0 0)
(0 0 0)
(0 0 0)
(0 0 0)
(0 0 0)
(0 0 0)
(0 0 0)
(0 0 0)
(0 0 0)
(0 0 0)
(0 0 0)
(0 0 0)
(0 0 0)
(0 0 0)
(0 0 0)
(0 0 0)
(0 0 0)
(0 0 0)
(0 0 0)
(0 0 0)
(0 0 0)
(0 0 0)
(0 0 0)
(0 0 0)
(0 0 0)
(0 0 0)
(0 0 0)
(0 0 0)
(0 0 0)
(0 0 0)
(0 0 0)
(0 0 0)
(0 0 0)
(0 0 0)
(0 0 0)
(0 0 0)
(0 0 0)
(0 0 0)
(0 0 0)
(0 0 0)
(0 0 0)
(0 0 0)
(0 0 0)
(0 0 0)
(0 0 0)
(0 0 0)
(0 0 0)
(0 0 0)
(0 0 0)
(0 0 0)
(0 0 0)
(0 0 0)
(0 0 0)
(0 0 0)
(0 0 0)
(0 0 0)
(0 0 0)
(0 0 0)
(0 0 0)
(0 0 0)
(0 0 0)
(0 0 0)
(0 0 0)
(0 0 0)
(0 0 0)
(0 0 0)
(0 0 0)
(0 0 0)
(0 0 0)
(0 0 0)
(0 0 0)
(0 0 0)
(0 0 0)
(0 0 0)
(0 0 0)
(0 0 0)
(0 0 0)
(0 0 0)
(0 0 0)
(0 0 0)
(0 0 0)
(0 0 0)
(0 0 0)
(0 0 0)
(0 0 0)
(0 0 0)
(0 0 0)
(0 0 0)
(0 0 0)
(0 0 0)
(0 0 0)
(0 0 0)
(0 0 0)
(0 0 0)
(0 0 0)
(0 0 0)
(0 0 0)
(0 0 0)
(0 0 0)
(0 0 0)
(0 0 0)
(0 0 0)
(0 0 0)
(0 0 0)
(0 0 0)
(0 0 0)
(0 0 0)
(0 0 0)
(0 0 0)
(0 0 0)
(0 0 0)
(0 0 0)
(0 0 0)
(0 0 0)
(0 0 0)
(0 0 0)
(0 0 0)
(0 0 0)
(0 0 0)
(0 0 0)
(0 0 0)
(0 0 0)
(0 0 0)
(0 0 0)
(0 0 0)
(0 0 0)
(0 0 0)
(0 0 0)
(0 0 0)
(0 0 0)
(0 0 0)
(0 0 0)
(0 0 0)
(0 0 0)
(0 0 0)
(0 0 0)
(0 0 0)
(0 0 0)
(0 0 0)
(0 0 0)
(0 0 0)
(0 0 0)
(0 0 0)
(0 0 0)
(0 0 0)
(0 0 0)
(0 0 0)
(0 0 0)
(0 0 0)
(0 0 0)
(0 0 0)
(0 0 0)
(0 0 0)
(0 0 0)
(0 0 0)
(0 0 0)
(0 0 0)
(0 0 0)
(0 0 0)
(0 0 0)
(0 0 0)
(0 0 0)
(0 0 0)
(0 0 0)
(0 0 0)
(0 0 0)
(0 0 0)
(0 0 0)
(0 0 0)
(0 0 0)
(0 0 0)
(0 0 0)
(0 0 0)
(0 0 0)
(0 0 0)
(0 0 0)
(0 0 0)
(0 0 0)
(0 0 0)
(0 0 0)
(0 0 0)
(0 0 0)
(0 0 0)
(0 0 0)
(0 0 0)
(0 0 0)
(0 0 0)
(0 0 0)
(0 0 0)
(0 0 0)
(0 0 0)
(0 0 0)
(0 0 0)
(0 0 0)
(0 0 0)
(0 0 0)
(0 0 0)
(0 0 0)
(0 0 0)
(0 0 0)
(0 0 0)
(0 0 0)
(0 0 0)
(0 0 0)
(0 0 0)
(0 0 0)
(0 0 0)
(0 0 0)
(0 0 0)
(0 0 0)
(0 0 0)
(0 0 0)
(0 0 0)
(0 0 0)
(0 0 0)
(0 0 0)
(0 0 0)
(0 0 0)
(0 0 0)
(0 0 0)
(0 0 0)
(0 0 0)
(0 0 0)
(0 0 0)
(0 0 0)
(0 0 0)
(0 0 0)
(0 0 0)
(0 0 0)
(0 0 0)
(0 0 0)
(0 0 0)
(0 0 0)
(0 0 0)
(0 0 0)
(0 0 0)
(0 0 0)
(0 0 0)
(0 0 0)
(0 0 0)
(0 0 0)
(0 0 0)
(0 0 0)
(0 0 0)
(0 0 0)
(0 0 0)
(0 0 0)
(0 0 0)
(0 0 0)
(0 0 0)
(0 0 0)
(0 0 0)
(0 0 0)
(0 0 0)
(0 0 0)
(0 0 0)
(0 0 0)
(0 0 0)
(0 0 0)
(0 0 0)
(0 0 0)
(0 0 0)
(0 0 0)
(0 0 0)
(0 0 0)
(0 0 0)
(0 0 0)
(0 0 0)
(0 0 0)
(0 0 0)
(0 0 0)
(0 0 0)
(0 0 0)
(0 0 0)
(0 0 0)
(0 0 0)
(0 0 0)
(0 0 0)
(0 0 0)
(0 0 0)
(0 0 0)
(0 0 0)
(0 0 0)
(0 0 0)
(0 0 0)
(0 0 0)
(0 0 0)
(0 0 0)
(0 0 0)
(0 0 0)
(0 0 0)
(0 0 0)
(0 0 0)
(0 0 0)
(0 0 0)
(0 0 0)
(0 0 0)
(0 0 0)
(0 0 0)
(0 0 0)
(0 0 0)
(0 0 0)
(0 0 0)
(0 0 0)
(0 0 0)
(0 0 0)
(0 0 0)
(0 0 0)
(0 0 0)
(0 0 0)
(0 0 0)
(0 0 0)
(0 0 0)
(0 0 0)
(0 0 0)
(0 0 0)
(0 0 0)
(0 0 0)
(0 0 0)
(0 0 0)
(0 0 0)
(0 0 0)
(0 0 0)
(0 0 0)
(0 0 0)
(0 0 0)
(0 0 0)
(0 0 0)
(0 0 0)
(0 0 0)
(0 0 0)
(0 0 0)
(0 0 0)
(0 0 0)
(0 0 0)
(0 0 0)
(0 0 0)
(0 0 0)
(0 0 0)
(0 0 0)
(0 0 0)
(0 0 0)
(0 0 0)
(0 0 0)
(0 0 0)
(0 0 0)
(0 0 0)
(0 0 0)
(0 0 0)
(0 0 0)
(0 0 0)
(0 0 0)
(0 0 0)
(0 0 0)
(0 0 0)
(0 0 0)
(0 0 0)
(0 0 0)
(0 0 0)
(0 0 0)
(0 0 0)
(0 0 0)
(0 0 0)
(0 0 0)
(0 0 0)
(0 0 0)
(0 0 0)
(0 0 0)
(0 0 0)
(0 0 0)
(0 0 0)
(0 0 0)
(0 0 0)
(0 0 0)
(0 0 0)
(0 0 0)
(0 0 0)
(0 0 0)
(0 0 0)
(0 0 0)
(0 0 0)
(0 0 0)
(0 0 0)
(0 0 0)
(0 0 0)
(0 0 0)
(0 0 0)
(0 0 0)
(0 0 0)
(0 0 0)
(0 0 0)
(0 0 0)
(0 0 0)
(0 0 0)
(0 0 0)
(0 0 0)
(0 0 0)
(0 0 0)
(0 0 0)
(0 0 0)
(0 0 0)
(0 0 0)
(0 0 0)
(0 0 0)
(0 0 0)
(0 0 0)
(0 0 0)
(0 0 0)
(0 0 0)
(0 0 0)
(0 0 0)
(0 0 0)
(0 0 0)
(0 0 0)
(0 0 0)
(0 0 0)
(0 0 0)
(0 0 0)
(0 0 0)
(0 0 0)
(0 0 0)
(0 0 0)
(0 0 0)
(0 0 0)
(0 0 0)
(0 0 0)
(0 0 0)
(0 0 0)
(0 0 0)
(0 0 0)
(0 0 0)
(0 0 0)
(0 0 0)
(0 0 0)
(0 0 0)
(0 0 0)
(0 0 0)
(0 0 0)
(0 0 0)
(0 0 0)
(0 0 0)
(0 0 0)
(0 0 0)
(0 0 0)
(0 0 0)
(0 0 0)
(0 0 0)
(0 0 0)
(0 0 0)
(0 0 0)
(0 0 0)
(0 0 0)
(0 0 0)
(0 0 0)
(0 0 0)
(0 0 0)
(0 0 0)
(0 0 0)
(0 0 0)
(0 0 0)
(0 0 0)
(0 0 0)
(0 0 0)
(0 0 0)
(0 0 0)
(0 0 0)
(0 0 0)
(0 0 0)
(0 0 0)
(0 0 0)
(0 0 0)
(0 0 0)
(0 0 0)
(0 0 0)
(0 0 0)
(0 0 0)
(0 0 0)
(0 0 0)
(0 0 0)
(0 0 0)
(0 0 0)
(0 0 0)
(0 0 0)
(0 0 0)
(0 0 0)
(0 0 0)
(0 0 0)
(0 0 0)
(0 0 0)
(0 0 0)
(0 0 0)
(0 0 0)
(0 0 0)
(0 0 0)
(0 0 0)
(0 0 0)
(0 0 0)
(0 0 0)
(0 0 0)
(0 0 0)
(0 0 0)
(0 0 0)
(0 0 0)
(0 0 0)
(0 0 0)
(0 0 0)
(0 0 0)
(0 0 0)
(0 0 0)
(0 0 0)
(0 0 0)
(0 0 0)
(0 0 0)
(0 0 0)
(0 0 0)
(0 0 0)
(0 0 0)
(0 0 0)
(0 0 0)
(0 0 0)
(0 0 0)
(0 0 0)
(0 0 0)
(0 0 0)
(0 0 0)
(0 0 0)
(0 0 0)
(0 0 0)
(0 0 0)
(0 0 0)
(0 0 0)
(0 0 0)
(0 0 0)
(0 0 0)
(0 0 0)
(0 0 0)
(0 0 0)
(0 0 0)
(0 0 0)
(0 0 0)
(0 0 0)
(0 0 0)
(0 0 0)
(0 0 0)
(0 0 0)
(0 0 0)
(0 0 0)
(0 0 0)
(0 0 0)
(0 0 0)
(0 0 0)
(0 0 0)
(0 0 0)
(0 0 0)
(0 0 0)
(0 0 0)
(0 0 0)
(0 0 0)
(0 0 0)
(0 0 0)
(0 0 0)
(0 0 0)
(0 0 0)
(0 0 0)
(0 0 0)
(0 0 0)
(0 0 0)
(0 0 0)
(0 0 0)
(0 0 0)
(0 0 0)
(0 0 0)
(0 0 0)
(0 0 0)
(0 0 0)
(0 0 0)
(0 0 0)
(0 0 0)
(0 0 0)
(0 0 0)
(0 0 0)
(0 0 0)
(0 0 0)
(0 0 0)
(0 0 0)
(0 0 0)
(0 0 0)
(0 0 0)
(0 0 0)
(0 0 0)
(0 0 0)
(0 0 0)
(0 0 0)
(0 0 0)
(0 0 0)
(0 0 0)
(0 0 0)
(0 0 0)
(0 0 0)
(0 0 0)
(0 0 0)
(0 0 0)
(0 0 0)
(0 0 0)
(0 0 0)
(0 0 0)
(0 0 0)
(0 0 0)
(0 0 0)
(0 0 0)
(0 0 0)
(0 0 0)
(0 0 0)
(0 0 0)
(0 0 0)
(0 0 0)
(0 0 0)
(0 0 0)
(0 0 0)
(0 0 0)
(0 0 0)
(0 0 0)
(0 0 0)
(0 0 0)
(0 0 0)
(0 0 0)
(0 0 0)
(0 0 0)
(0 0 0)
(0 0 0)
(0 0 0)
(0 0 0)
(0 0 0)
(0 0 0)
(0 0 0)
(0 0 0)
(0 0 0)
(0 0 0)
(0 0 0)
(0 0 0)
(0 0 0)
(0 0 0)
(0 0 0)
(0 0 0)
(0 0 0)
(0 0 0)
(0 0 0)
(0 0 0)
(0 0 0)
(0 0 0)
(0 0 0)
(0 0 0)
(0 0 0)
(0 0 0)
(0 0 0)
(0 0 0)
(0 0 0)
(0 0 0)
(0 0 0)
(0 0 0)
(0 0 0)
(0 0 0)
(0 0 0)
(0 0 0)
(0 0 0)
(0 0 0)
(0 0 0)
(0 0 0)
(0 0 0)
(0 0 0)
(0 0 0)
(0 0 0)
(0 0 0)
(0 0 0)
(0 0 0)
(0 0 0)
(0 0 0)
(0 0 0)
(0 0 0)
(0 0 0)
(0 0 0)
(0 0 0)
(0 0 0)
(0 0 0)
(0 0 0)
(0 0 0)
(0 0 0)
(0 0 0)
(0 0 0)
(0 0 0)
(0 0 0)
(0 0 0)
(0 0 0)
(0 0 0)
(0 0 0)
(0 0 0)
(0 0 0)
(0 0 0)
(0 0 0)
(0 0 0)
(0 0 0)
(0 0 0)
(0 0 0)
(0 0 0)
(0 0 0)
(0 0 0)
(0 0 0)
(0 0 0)
(0 0 0)
(0 0 0)
(0 0 0)
(0 0 0)
(0 0 0)
(0 0 0)
(0 0 0)
(0 0 0)
(0 0 0)
(0 0 0)
(0 0 0)
(0 0 0)
(0 0 0)
(0 0 0)
(0 0 0)
(0 0 0)
(0 0 0)
(0 0 0)
(0 0 0)
(0 0 0)
(0 0 0)
(0 0 0)
(0 0 0)
(0 0 0)
(0 0 0)
(0 0 0)
(0 0 0)
(0 0 0)
(0 0 0)
(0 0 0)
(0 0 0)
(0 0 0)
(0 0 0)
(0 0 0)
(0 0 0)
(0 0 0)
(0 0 0)
(0 0 0)
(0 0 0)
(0 0 0)
(0 0 0)
(0 0 0)
(0 0 0)
(0 0 0)
(0 0 0)
(0 0 0)
(0 0 0)
(0 0 0)
(0 0 0)
(0 0 0)
(0 0 0)
(0 0 0)
(0 0 0)
(0 0 0)
(0 0 0)
(0 0 0)
(0 0 0)
(0 0 0)
(0 0 0)
(0 0 0)
(0 0 0)
(0 0 0)
(0 0 0)
(0 0 0)
(0 0 0)
(0 0 0)
(0 0 0)
(0 0 0)
(0 0 0)
(0 0 0)
(0 0 0)
(0 0 0)
(0 0 0)
(0 0 0)
(0 0 0)
(0 0 0)
(0 0 0)
(0 0 0)
(0 0 0)
(0 0 0)
(0 0 0)
(0 0 0)
(0 0 0)
(0 0 0)
(0 0 0)
(0 0 0)
(0 0 0)
(0 0 0)
(0 0 0)
(0 0 0)
(0 0 0)
(0 0 0)
(0 0 0)
(0 0 0)
(0 0 0)
(0 0 0)
(0 0 0)
(0 0 0)
(0 0 0)
(0 0 0)
(0 0 0)
(0 0 0)
(0 0 0)
(0 0 0)
(0 0 0)
(0 0 0)
(0 0 0)
(0 0 0)
(0 0 0)
(0 0 0)
(0 0 0)
(0 0 0)
(0 0 0)
(0 0 0)
(0 0 0)
(0 0 0)
(0 0 0)
(0 0 0)
(0 0 0)
(0 0 0)
(0 0 0)
(0 0 0)
(0 0 0)
(0 0 0)
(0 0 0)
(0 0 0)
(0 0 0)
(0 0 0)
(0 0 0)
(0 0 0)
(0 0 0)
(0 0 0)
(0 0 0)
(0 0 0)
(0 0 0)
(0 0 0)
(0 0 0)
(0 0 0)
(0 0 0)
(0 0 0)
(0 0 0)
(0 0 0)
(0 0 0)
(0 0 0)
(0 0 0)
(0 0 0)
(0 0 0)
(0 0 0)
(0 0 0)
(0 0 0)
(0 0 0)
(0 0 0)
(0 0 0)
(0 0 0)
(0 0 0)
(0 0 0)
(0 0 0)
(0 0 0)
(0 0 0)
(0 0 0)
(0 0 0)
(0 0 0)
(0 0 0)
(0 0 0)
(0 0 0)
(0 0 0)
(0 0 0)
(0 0 0)
(0 0 0)
(0 0 0)
(0 0 0)
(0 0 0)
(0 0 0)
(0 0 0)
(0 0 0)
(0 0 0)
(0 0 0)
(0 0 0)
(0 0 0)
(0 0 0)
(0 0 0)
(0 0 0)
(0 0 0)
(0 0 0)
(0 0 0)
(0 0 0)
(0 0 0)
(0 0 0)
(0 0 0)
(0 0 0)
(0 0 0)
(0 0 0)
(0 0 0)
(0 0 0)
(0 0 0)
(0 0 0)
(0 0 0)
(0 0 0)
(0 0 0)
(0 0 0)
(0 0 0)
(0 0 0)
(0 0 0)
(0 0 0)
(0 0 0)
(0 0 0)
(0 0 0)
(0 0 0)
(0 0 0)
(0 0 0)
(0 0 0)
(0 0 0)
(0 0 0)
(0 0 0)
(0 0 0)
(0 0 0)
(0 0 0)
(0 0 0)
(0 0 0)
(0 0 0)
(0 0 0)
(0 0 0)
(0 0 0)
(0 0 0)
(0 0 0)
(0 0 0)
(0 0 0)
(0 0 0)
(0 0 0)
(0 0 0)
(0 0 0)
(0 0 0)
(0 0 0)
(0 0 0)
(0 0 0)
(0 0 0)
(0 0 0)
(0 0 0)
(0 0 0)
(0 0 0)
(0 0 0)
(0 0 0)
(0 0 0)
(0 0 0)
(0 0 0)
(0 0 0)
(0 0 0)
(0 0 0)
(0 0 0)
(0 0 0)
(0 0 0)
(0 0 0)
(0 0 0)
(0 0 0)
(0 0 0)
(0 0 0)
(0 0 0)
(0 0 0)
(0 0 0)
(0 0 0)
(0 0 0)
(0 0 0)
(0 0 0)
(0 0 0)
(0 0 0)
(0 0 0)
(0 0 0)
(0 0 0)
(0 0 0)
(0 0 0)
(0 0 0)
(0 0 0)
(0 0 0)
(0 0 0)
(0 0 0)
(0 0 0)
(0 0 0)
(0 0 0)
(0 0 0)
(0 0 0)
(0 0 0)
(0 0 0)
(0 0 0)
(0 0 0)
(0 0 0)
(0 0 0)
(0 0 0)
(0 0 0)
(0 0 0)
(0 0 0)
(0 0 0)
(0 0 0)
(0 0 0)
(0 0 0)
(0 0 0)
(0 0 0)
(0 0 0)
(0 0 0)
(0 0 0)
(0 0 0)
(0 0 0)
(0 0 0)
(0 0 0)
(0 0 0)
(0 0 0)
(0 0 0)
(0 0 0)
(0 0 0)
(0 0 0)
(0 0 0)
(0 0 0)
(0 0 0)
(0 0 0)
(0 0 0)
(0 0 0)
(0 0 0)
(0 0 0)
(0 0 0)
(0 0 0)
(0 0 0)
(0 0 0)
(0 0 0)
(0 0 0)
(0 0 0)
(0 0 0)
(0 0 0)
(0 0 0)
(0 0 0)
(0 0 0)
(0 0 0)
(0 0 0)
(0 0 0)
(0 0 0)
(0 0 0)
(0 0 0)
(0 0 0)
(0 0 0)
(0 0 0)
(0 0 0)
(0 0 0)
(0 0 0)
(0 0 0)
(0 0 0)
(0 0 0)
(0 0 0)
(0 0 0)
(0 0 0)
(0 0 0)
(0 0 0)
(0 0 0)
(0 0 0)
(0 0 0)
(0 0 0)
(0 0 0)
(0 0 0)
(0 0 0)
(0 0 0)
(0 0 0)
(0 0 0)
(0 0 0)
(0 0 0)
(0 0 0)
(0 0 0)
(0 0 0)
(0 0 0)
(0 0 0)
(0 0 0)
(0 0 0)
(0 0 0)
(0 0 0)
(0 0 0)
(0 0 0)
(0 0 0)
(0 0 0)
(0 0 0)
(0 0 0)
(0 0 0)
(0 0 0)
(0 0 0)
(0 0 0)
(0 0 0)
(0 0 0)
(0 0 0)
(0 0 0)
(0 0 0)
(0 0 0)
(0 0 0)
(0 0 0)
(0 0 0)
(0 0 0)
(0.0181597 -0.00518395 -0.012322)
(0.00268282 0.00511596 -0.00165843)
(0.0356838 -0.00769428 -0.00670478)
(0.0195646 0.0100526 -0.0238298)
(0.0312093 0.00980369 -0.0658284)
(0.0421213 0.0247481 -0.0524374)
(0.0439153 0.0341876 -0.0183379)
(0.0618424 0.061608 -0.0408876)
(-0.0110633 0.0226519 -0.00840759)
(0.0239596 0.0125276 -0.0200897)
(0.0476521 0.013524 -0.0297608)
(0.0184014 0.0461519 -0.0197227)
(0.0856386 0.084606 -0.0508069)
(0.0747382 0.0289475 -0.0443543)
(0.101145 0.0307816 -0.034407)
(0.136775 0.0840612 -0.0513876)
(0.173546 0.101795 -0.0358886)
(0.0860167 0.083558 -0.0740423)
(0.105943 0.123455 -0.0807108)
(0.159924 0.107309 -0.0145513)
(0.13979 0.142892 -0.0126686)
(0.122558 0.148116 -0.0513577)
(0.0980292 0.122917 -0.0277748)
(0.158677 0.215749 -0.0306257)
(0.108467 0.192865 -0.00448221)
(0.0526443 0.107297 -0.00480155)
(0.00955657 0.0197398 -0.0160643)
(-0.0103898 0.0137478 -0.00732208)
(0.00308218 0.0274191 -0.00867433)
(0.0494048 0.0769361 -0.0157725)
(0.0805193 0.105899 -0.0254018)
(0.0360933 0.0669389 -0.00867952)
(0.0613009 0.0827261 -0.0225149)
(0.140569 0.106857 -0.0231838)
(0.203201 0.130075 -0.0122643)
(0.153354 0.0744969 -0.0646465)
(0.270785 0.117401 -0.0418903)
(0.235056 0.161266 -0.0106355)
(0.223338 0.183563 -0.0102302)
(0.283609 0.189336 -0.0111119)
(0.259916 0.217417 -0.0299547)
(0.197637 0.261863 -0.0463794)
(0.133326 0.253189 0.0191284)
(0.235529 0.245549 -0.0185144)
(0.147439 0.230415 0.0476881)
(0.0298639 0.118803 0.00910426)
(0.0164945 0.121325 0.0206943)
(-0.000803116 0.0431553 -0.00498315)
(-0.00365158 0.0183495 -0.0017408)
(0.00269561 0.0386994 -0.00660583)
(0.0176145 0.0442557 -0.0111631)
(0.0497561 0.0678518 -0.0310922)
(0.107666 0.087432 -0.066076)
(0.0865418 0.101186 -0.0585208)
(0.158981 0.162257 -0.0883382)
(0.211839 0.103804 -0.0765512)
(0.32426 0.159715 -0.0594554)
(0.246123 0.187516 -0.0648493)
(0.345835 0.208424 -0.0403871)
(0.358692 0.202986 -0.0202543)
(0.259907 0.195112 -0.0059244)
(0.324001 0.186784 0.00876472)
(0.192818 0.151845 0.0432529)
(0.226936 0.182707 0.0350197)
(0.162651 0.165056 0.0644515)
(0.148437 0.126336 0.0525035)
(0.0921189 0.0891622 0.0352455)
(0.0135326 0.100175 0.0230252)
(-0.0130644 0.048957 -0.00727105)
(0.00462507 0.0617952 0.0127573)
(0.0448544 0.0656278 -0.0297353)
(0.135271 0.13525 -0.0431427)
(0.215646 0.210882 -0.0421273)
(0.140287 0.118027 -0.0190751)
(0.194815 0.160613 0.00863013)
(0.297638 0.241097 -0.0259672)
(0.336142 0.229139 0.0127681)
(0.251864 0.18092 0.0354538)
(0.159943 0.103133 0.0624128)
(0.190925 0.114928 0.0543015)
(0.102959 0.0895996 0.0376066)
(0.0947046 0.0657798 0.0388276)
(0.0397551 0.0462408 0.0174111)
(0.0591625 0.0631256 0.0167035)
(0.0209764 0.0388632 0.0130259)
(0.015711 0.0294173 0.010766)
(0.00434763 0.0164165 0.00950214)
(0.00279499 0.0289569 0.0141365)
(0.116999 0.0809926 0.0100402)
(0.136146 0.0655254 0.0373202)
(0.0924345 0.0561386 0.0347897)
(0.0495811 0.0267453 0.0198705)
(0.0425233 0.036583 0.0143164)
(0.0138556 0.01182 0.00686411)
(0.0384267 0.0236379 0.0209787)
(0.00669022 0.00909782 0.00955184)
(-0.00236688 0.0242119 -0.118553)
(-0.0308052 0.0804859 -0.113424)
(0.0851469 0.0190022 -0.14144)
(-0.0083167 0.0663414 -0.154947)
(0.0786835 0.0750332 -0.165023)
(0.0711189 0.0156538 -0.122976)
(-0.00911765 0.091312 -0.123962)
(0.0691082 0.0778799 -0.131918)
(0.102416 0.0722419 -0.157484)
(0.147738 0.106632 -0.153434)
(0.0764368 0.0213178 -0.129704)
(0.0986798 0.0819824 -0.124404)
(0.149696 0.08977 -0.118739)
(0.164926 0.102529 -0.138768)
(0.158295 0.0905698 -0.107969)
(-0.00662452 0.0112865 -0.0646258)
(0.0359637 -0.0658567 -0.135482)
(0.0400514 0.0478124 -0.101502)
(0.0198871 0.0359579 -0.0682392)
(0.0684874 0.0465922 -0.116005)
(-0.00900844 0.0247696 -0.111779)
(-0.000856373 0.0685854 -0.105395)
(0.0397545 -0.0260751 -0.131031)
(0.0674376 -0.000820761 -0.11852)
(0.169859 0.172563 -0.0729222)
(0.250052 0.26927 -0.0718809)
(0.189947 0.263436 -0.023753)
(0.207263 0.15037 -0.0981197)
(0.164234 0.161592 -0.071411)
(0.283817 0.243902 -0.0395258)
(0.196558 0.246093 -0.0136365)
(0.107227 0.198458 0.0164753)
(0.11509 0.19309 0.0281685)
(0.0194615 0.0103058 -0.0689327)
(-0.0294889 0.0165509 -0.126967)
(-0.00444895 0.0285617 -0.0640418)
(0.0310645 -0.0545214 -0.125076)
(0.00957822 -0.0212483 -0.0388098)
(0.0194597 -0.0196187 -0.0976614)
(0.137883 0.282566 0.0753998)
(0.0376567 0.151858 0.012444)
(0.122251 0.25626 0.0919806)
(0.210569 0.334417 0.16427)
(0.0685612 0.239343 0.11707)
(0.0270116 0.069345 -0.147386)
(0.0802033 0.141575 -0.220726)
(0.0234387 0.0739908 -0.16062)
(0.0732399 0.0893674 -0.136346)
(0.105016 0.153759 -0.134987)
(0.0236135 0.195993 0.0203239)
(0.183398 0.273595 0.0271577)
(0.274728 0.480721 0.189898)
(0.0375398 0.311682 0.133346)
(0.235495 0.364357 0.00544037)
(0.157313 0.205954 -0.153094)
(0.126343 0.163602 -0.13728)
(0.273765 0.269288 -0.0351205)
(0.220365 0.216602 -0.0369905)
(0.2852 0.239568 0.0539017)
(0.21334 0.199339 -0.126901)
(0.27313 0.251827 -0.045186)
(0.212254 0.186467 -0.0532414)
(0.292703 0.236782 0.0795746)
(0.0397618 0.0166181 0.0269831)
(0.0206029 0.0014372 0.00361713)
(0.0108114 -0.00809325 0.00343308)
(0.322033 0.200111 0.0220103)
(0.0401607 -0.0358817 -0.295793)
(0.054442 -0.0397327 -0.364971)
(0.0560567 -0.0331488 -0.362944)
(0.0311394 -0.024001 -0.275362)
(0.211084 0.130026 0.0658394)
(0.206617 0.140224 0.131202)
(0.23577 0.166967 0.125455)
(0.182065 0.103751 0.0775211)
(0.247606 0.190193 0.164963)
(0.266497 0.214825 0.157532)
(0.170052 0.10421 0.0221475)
(0.00684944 0.0137026 0.00858998)
(0.10083 0.0844871 -0.0820657)
(0.252956 0.202143 0.0604751)
(0.0812139 0.0321942 -0.277512)
(0.0368499 0.0232306 -0.284469)
(0.0402315 -0.0334308 -0.407044)
(-0.038383 0.0688566 -0.0436326)
(-0.0329335 0.0442951 0.00386439)
(0.0405672 0.0180946 -0.0681778)
(-0.0163234 0.0843677 -0.044225)
(0.0423433 0.0736875 -0.0655983)
(0.0209985 0.010971 -0.0149213)
(-0.0174464 0.0457745 0.00712703)
(0.0220396 0.040361 -0.0131656)
(0.0978626 0.0754288 -0.0666317)
(0.137668 0.066175 -0.0807768)
(0.0408638 0.0230424 -0.026333)
(0.072588 0.0435259 -0.0513189)
(0.0991243 0.0416196 -0.0825324)
(0.134675 0.0792439 -0.086305)
(0.103329 0.0612389 -0.0963338)
(0.0373874 -0.0596946 -0.115499)
(0.0161918 -0.0108568 -0.00685511)
(-0.00701385 0.0498055 -0.0397403)
(0.0481684 -0.0371805 -0.0997277)
(0.0654326 -0.0287012 -0.0668704)
(-0.0155502 0.0131398 -0.0117006)
(-0.0204798 0.0313506 0.0037322)
(0.0184783 -0.0111965 -0.00622929)
(0.0135308 -0.0100665 -0.00884486)
(0.139523 0.142571 -0.0746257)
(0.25858 0.223822 -0.0337287)
(0.180075 0.214107 -0.00304676)
(0.134875 0.109282 -0.119483)
(0.105827 0.115228 -0.0838776)
(0.210042 0.156061 -0.0584955)
(0.171297 0.164012 -0.00562173)
(0.102035 0.149647 0.0641809)
(0.0966286 0.0698554 0.0639292)
(0.0236302 -0.0499631 -0.104498)
(-0.00090251 -0.0174637 -0.0325601)
(0.0144669 -0.0280371 -0.0752321)
(0.0191082 -0.0212622 0.0380311)
(0.0226852 -0.0410294 0.0849721)
(0.0564321 -0.040407 0.0767832)
(0.257237 0.330464 0.246901)
(0.105987 0.26383 0.240488)
(0.171424 0.107877 0.196964)
(0.295937 0.218886 0.254672)
(0.124624 0.136313 0.205841)
(0.0930286 0.0670902 -0.0527041)
(0.0754394 0.105698 -0.0591462)
(0.0716303 0.0510299 0.236126)
(0.104421 0.0381889 0.0735083)
(0.0399843 0.0593566 0.0214307)
(0.101503 0.340525 0.279731)
(-0.00380663 -0.00576094 -0.164061)
(0.150013 0.0975576 -0.00794119)
(0.046426 -0.0207179 -0.130302)
(0.0657504 -0.0274119 -0.119357)
(0.0644197 0.0838945 -0.0921782)
(0.0180209 0.0395179 -0.066423)
(0.147752 0.0884207 -0.1201)
(0.0580789 0.0351173 -0.139059)
(0.188503 0.163529 0.0416142)
(-0.0154401 -0.0394728 -0.175934)
(-0.0402202 -0.0924521 -0.206301)
(-0.0924856 -0.087136 -0.239534)
(-0.0753197 -0.0739484 -0.253539)
(0.029567 -0.0433298 -0.237334)
(0.0706074 -0.0566887 -0.311586)
(0.0643219 -0.0451834 -0.302265)
(0.0767172 -0.0763859 -0.203153)
(0.0508633 -0.0691477 -0.194346)
(0.0910084 -0.0671297 -0.244816)
(0.0709601 -0.0561789 -0.246346)
(0.0272761 -0.0401066 -0.153079)
(0.13847 0.115355 0.0675489)
(-0.0618758 -0.0556546 -0.252522)
(0.168633 0.18654 0.169034)
(0.0339138 -0.00781486 -0.184318)
(0 0 0)
(0 0 0)
(-0.00409979 -0.00919967 -0.113507)
(0 0 0)
(0.0261835 0.00686679 -0.205894)
(0.0252931 0.0138703 -0.141352)
(0.0568903 -0.0265707 -0.202715)
(0 0 0)
(0.0852275 -0.054531 -0.244297)
(-0.0365799 0.0265492 0.0104278)
(-0.0417449 0.0255362 0.00279806)
(-0.00120564 0.00317691 -0.0141595)
(-0.0294997 0.0200373 0.00793651)
(-0.00763935 0.0131006 -0.0146964)
(-0.0165559 0.00305535 -0.026814)
(-0.0391488 0.0180179 -0.00401601)
(-0.0328979 0.0086458 -0.0262729)
(0.0278577 0.0158445 -0.0634991)
(0.0587817 0.0212202 -0.0981135)
(-0.00658093 0.00085841 -0.0514728)
(-0.00805693 0.00438992 -0.0776568)
(0.018287 0.00986403 -0.117123)
(0.072143 0.0416009 -0.120519)
(0.0298704 0.0214494 -0.145957)
(-0.0054882 0.0178715 0.0102532)
(-0.0186395 0.0455636 0.0110697)
(-0.0367532 0.0291942 0.014907)
(-0.00804985 0.0266385 0.0238076)
(-0.0213996 0.0235597 0.0198349)
(-0.0390983 0.0416314 0.00572816)
(-0.0486689 0.0405431 0.0116098)
(-0.0263841 0.0593826 0.0291194)
(-0.0369117 0.0565128 0.0304813)