/*--------------------------------*- C++ -*----------------------------------*\
| =========                 |                                                 |
| \\      /  F ield         | OpenFOAM: The Open Source CFD Toolbox           |
|  \\    /   O peration     | Version:  5.x                                   |
|   \\  /    A nd           | Web:      www.OpenFOAM.org                      |
|    \\/     M anipulation  |                                                 |
\*---------------------------------------------------------------------------*/
FoamFile
{
    version     2.0;
    format      ascii;
    class       volVectorField;
    location    "9.95";
    object      Us;
}
// * * * * * * * * * * * * * * * * * * * * * * * * * * * * * * * * * * * * * //

dimensions      [0 1 -1 0 0 0 0];

internalField   nonuniform List<vector> 
10571
(
(-0.0291893 0.0402886 -0.0102111)
(0.0292507 0.0200725 -0.0942918)
(0.0878992 0.236992 0.0229201)
(-0.156111 0.225888 0.183552)
(0.0101888 0.125244 -0.183927)
(0.202466 0.108774 0.0226217)
(0.292069 0.234612 0.173881)
(0.070048 0.0597712 0.160512)
(0.0435277 0.180172 0.19841)
(-0.00173163 0.061476 0.0699296)
(0.051153 0.149053 -0.243748)
(0.24968 0.10775 0.0695466)
(0.0718663 -0.106852 0.0794948)
(-0.211083 -0.221894 0.130719)
(-0.0885811 -0.200123 0.153302)
(-0.00953215 -0.0945665 0.130991)
(0.145481 0.040083 -0.0970737)
(0.0663881 -0.129856 0.00210076)
(-0.238956 -0.121706 0.098611)
(-0.0520153 -0.118482 -0.080179)
(0.00561297 -0.0350944 -0.0694936)
(0.0427118 -0.0657897 -0.112897)
(-0.182411 0.0193916 0.129881)
(-0.0904169 0.00877653 -0.116844)
(-0.0569907 0.0122918 -0.122491)
(0.00258259 0.00548819 -0.203057)
(0.0152523 0.0794649 -0.0548657)
(-0.0337424 0.146453 0.16734)
(-0.0502958 -0.0183837 -0.336163)
(0.0832297 0.0766569 -0.0629064)
(0.106471 0.0588407 0.128566)
(0.0274247 0.039515 0.061543)
(0.0334837 -0.12694 0.24407)
(0.0288506 -0.0372742 0.00642044)
(0.00637366 0.0960079 -0.418147)
(0.0828675 0.0447411 0.00167544)
(0.0820253 -0.035214 0.105052)
(-0.0633787 0.0308634 0.0571387)
(-0.000153869 0.0532882 0.0223162)
(-0.0299848 0.0210212 -0.0448973)
(0.0196069 -0.00559121 -0.144587)
(-0.000328497 0.00377407 0.00688685)
(-0.0552035 0.0938277 -0.0837678)
(-0.015272 0.118708 -0.118232)
(-0.0439689 0.106125 -0.192651)
(0.0140056 0.0149876 -0.30898)
(0.0282575 -0.0591164 -0.125606)
(-0.060074 0.0285773 -0.237017)
(-0.015346 0.0117162 -0.247407)
(-0.0182077 0.0169991 -0.24759)
(-0.0376178 0.0198862 -0.0536258)
(-0.0334649 -0.099466 0.0478101)
(-0.0274005 -0.0341574 -0.353608)
(-0.0429635 0.0194483 -0.0956044)
(-0.0421514 0.0438037 0.124857)
(-0.0637968 0.0341375 -0.0431619)
(-0.0704598 0.0423339 -0.0678714)
(0.0328469 0.0932081 -0.0394858)
(-0.00174201 0.0196504 -0.393377)
(-0.0531243 -0.0992845 0.0886693)
(-0.0215519 0.0147852 0.165225)
(-0.0745827 0.103314 0.0286917)
(-0.0704373 0.142719 -0.0162813)
(-0.011635 0.112908 -0.0855003)
(-0.0487276 0.0475568 -0.100847)
(0.00247489 0.0586893 0.0644642)
(-0.0617739 0.154844 -0.0206607)
(-0.077206 0.230803 -0.0282069)
(-0.0329008 0.127865 -0.0530802)
(0.00607548 0.0254793 -0.238723)
(0.085414 -0.0548954 -0.0189398)
(-0.0735844 0.0587597 -0.193983)
(-0.0159032 -0.00470495 -0.313151)
(-0.013858 0.0105466 -0.238725)
(-0.0652616 0.0208899 0.0394016)
(-0.0631651 -0.107634 -0.00909151)
(0.0731581 0.00630133 -0.304035)
(-0.11539 -0.108914 0.0479203)
(-0.0507377 -0.0116097 -0.0606453)
(-0.100961 0.0521846 -0.0462762)
(-0.112446 0.0495349 -0.10689)
(-0.0138697 0.0449509 -0.268258)
(-0.0136947 -0.00133051 -0.244536)
(-0.147171 -0.043287 0.0558076)
(-0.0277491 0.0499061 0.128567)
(-0.0579953 0.0934618 0.0847453)
(-0.141677 0.160282 0.0367996)
(-0.0334673 0.18493 0.0239561)
(-0.0952193 0.0638606 0.025682)
(-0.00408755 0.163626 9.25798e-05)
(-0.0325862 0.0965149 0.107717)
(-0.134611 0.224854 0.0122515)
(-0.0778078 0.152526 0.0530346)
(0.0286487 0.0668045 -0.118128)
(0.0849487 -0.00594692 -0.0563418)
(-0.064465 0.0379085 -0.0573149)
(0.0116375 0.00322505 -0.269383)
(-0.0349795 0.00635886 -0.141697)
(-0.125359 -0.0558837 0.0599328)
(0.00153619 -0.0776969 -0.109238)
(0.0970882 0.0139745 -0.21387)
(-0.15014 -0.126822 0.0644544)
(-0.0338007 0.0359277 -0.136919)
(0.0478056 0.0255866 0.0328202)
(0.00443693 0.0481247 -0.00235624)
(0.027349 0.077948 -0.210098)
(-0.0638024 0.0826877 -0.218296)
(-0.0609909 0.106622 -0.136879)
(-0.0532515 0.0922457 0.0320857)
(0.0191319 0.0830569 0.231971)
(-0.123747 0.17719 0.127144)
(-0.0715329 0.158544 -0.010094)
(-0.10657 0.160522 0.076593)
(-0.0632266 0.184317 0.023437)
(0.0584813 0.0771566 0.291782)
(-0.17371 0.236218 0.0934729)
(-0.139938 0.328953 0.134194)
(0.0922494 0.0564906 -0.0580406)
(0.0303248 -0.00808537 -0.012028)
(-0.0512636 0.0301016 0.0506875)
(0.0660704 -0.00174991 -0.292434)
(-0.036219 0.01021 -0.023926)
(-0.117161 -0.048178 0.102803)
(0.0584122 -0.0221958 -0.013596)
(0.102302 0.0415023 -0.174418)
(-0.0777222 -0.0133886 -0.0614215)
(0.0364307 0.0873757 -0.168522)
(0.0387394 -0.0617466 0.0186607)
(0.127498 -0.0442205 -0.0492706)
(0.115176 0.0179115 -0.13357)
(-0.00952239 0.00547446 -0.0041015)
(-0.00988867 0.185982 -0.456067)
(0.0357992 0.0973201 -0.361144)
(-0.135082 0.0568155 0.0260749)
(0.0327057 0.0816182 0.241146)
(0.0409962 0.12774 0.19302)
(0.0418032 0.0919283 -0.00602726)
(-0.0057291 -0.000973917 -0.00236931)
(0.0126383 0.150268 0.143878)
(-0.082373 0.135667 0.0519312)
(0.0405462 0.179186 0.256524)
(-0.0292751 0.220066 0.269969)
(-0.0809296 0.161408 0.210456)
(0.172726 0.0835945 -0.172188)
(0.020409 0.163863 0.145705)
(0.0651336 0.0356502 0.146567)
(0.0807831 -0.00527125 -0.432648)
(-0.022732 0.0184751 -0.474084)
(0.00422689 0.0279081 -0.102555)
(0.0947402 0.0281675 -0.060829)
(0.107395 0.0477161 -0.301273)
(-0.0359337 0.0772107 -0.304472)
(0.0349097 0.091751 -0.224038)
(0.0105185 -0.0434298 -0.0352456)
(0.0596315 0.0321102 -0.184038)
(0.0307586 0.170352 -0.356357)
(0.0613269 0.0237449 -0.197624)
(0.0995857 0.154444 -0.339596)
(-0.0761172 0.121488 -0.45937)
(-0.0957532 0.0654713 -0.0240721)
(0.0280917 0.0681217 0.13055)
(0.126128 0.0636279 0.0912035)
(0.211787 0.0493838 0.0459434)
(0 0 0)
(0.0892461 0.0863678 0.0479895)
(0.0698893 0.113181 0.0025239)
(0.030314 0.167145 0.148244)
(0.107922 0.188149 0.216777)
(0.157041 0.0546303 0.147594)
(0 0 0)
(0.193011 0.0784151 -0.130801)
(0.0122502 0.217345 0.118942)
(0.126615 -0.0043726 0.0938675)
(0.0707276 0.00927254 -0.442218)
(-0.0250528 0.0371893 -0.431517)
(-0.0380881 0.00469874 -0.345751)
(0.0614246 0.00477774 -0.29445)
(0.0578247 0.0259786 -0.308211)
(-0.0935077 0.0645693 -0.380204)
(-0.0398652 0.100325 -0.253942)
(0.0268784 0.0912121 -0.204201)
(0.0980032 0.0827578 -0.289281)
(0.11675 0.0660101 -0.381183)
(0 0 0)
(0.0565533 0.172433 -0.379809)
(0.0359427 0.170794 -0.383597)
(-0.035495 0.156864 -0.259509)
(0.0243947 0.0901615 0.0177531)
(0.0991032 0.137195 -0.13635)
(-2.59325e-13 -1.79693e-13 4.09049e-13)
(0 0 0)
(0 0 0)
(0.164633 0.12697 -0.000406968)
(0.0329137 0.0749659 0.0771169)
(0.0806888 0.136375 0.10072)
(0 0 0)
(0 0 0)
(0.175043 0.112792 -0.0673938)
(0.197489 0.0864822 -0.0434143)
(0.171767 -0.0738764 0.199655)
(0.0877525 0.0125033 -0.417483)
(-0.023306 0.0408178 -0.361331)
(-0.0143866 -0.0157091 -0.330971)
(0.0666007 -0.0393505 -0.339013)
(0.0637248 -0.0501205 -0.33735)
(-0.105165 0.0590872 -0.326885)
(-0.0342476 0.103067 -0.195617)
(0.0392571 0.0734463 -0.170286)
(0.122814 0.0671826 -0.233896)
(0.191457 -0.000169945 -0.320806)
(0 0 0)
(0.018536 0.193524 -0.28423)
(0 0 0)
(-0.0428784 0.171941 -0.200457)
(0.05141 0.183347 -0.182551)
(0.0814088 0.152248 -0.213064)
(0 0 0)
(0 0 0)
(0 0 0)
(0 0 0)
(0 0 0)
(0 0 0)
(0 0 0)
(0 0 0)
(0 0 0)
(-1.3483e-13 2.26276e-13 -3.69258e-13)
(0 0 0)
(-0.0465808 0.017909 -0.359178)
(0.0368345 0.017525 -0.349233)
(0.0427501 -0.0672812 -0.302612)
(0.11497 -0.0352384 -0.242431)
(-0.0589436 0.0999659 -0.302372)
(-0.0554488 0.096574 -0.130833)
(0.0390795 0.0816683 -0.109194)
(0.140895 0.0542435 -0.19837)
(0.207691 0.0721163 -0.250127)
(0 0 0)
(0 0 0)
(0 0 0)
(0.0894723 0.180389 -0.153588)
(0.114827 0.143489 -0.143423)
(0 0 0)
(0 0 0)
(-0.0208011 0.233023 -0.110763)
(0 0 0)
(0 0 0)
(0 0 0)
(0 0 0)
(0 0 0)
(0 0 0)
(0 0 0)
(-0.0642576 0.0240667 -0.323711)
(0 0 0)
(0 0 0)
(-0.0621748 0.0904934 -0.4911)
(0.0415605 0.163882 -0.290472)
(-0.0192716 0.122301 -0.100673)
(0.034891 0.0843798 -0.0349485)
(0.162697 0.0674068 -0.144718)
(0 0 0)
(0 0 0)
(0 0 0)
(-0.0490514 0.2236 -0.0273316)
(0.0518409 0.133188 -0.0271853)
(0 0 0)
(0 0 0)
(0 0 0)
(0 0 0)
(0 0 0)
(0 0 0)
(0 0 0)
(0 0 0)
(0 0 0)
(0 0 0)
(0 0 0)
(0 0 0)
(0 0 0)
(0 0 0)
(0 0 0)
(0 0 0)
(0.00927327 0.106745 -0.164445)
(0.0933655 0.0448351 0.0120063)
(0 0 0)
(0 0 0)
(0 0 0)
(0 0 0)
(0 0 0)
(0 0 0)
(0 0 0)
(0 0 0)
(0 0 0)
(0 0 0)
(0 0 0)
(0 0 0)
(0 0 0)
(0 0 0)
(0 0 0)
(0 0 0)
(0 0 0)
(0 0 0)
(0 0 0)
(0 0 0)
(0 0 0)
(0 0 0)
(0 0 0)
(0 0 0)
(0 0 0)
(0 0 0)
(0 0 0)
(0 0 0)
(0 0 0)
(0 0 0)
(0 0 0)
(0 0 0)
(0 0 0)
(0 0 0)
(0 0 0)
(0 0 0)
(0 0 0)
(0 0 0)
(0 0 0)
(0 0 0)
(0 0 0)
(0 0 0)
(0 0 0)
(0 0 0)
(0 0 0)
(0 0 0)
(0 0 0)
(0 0 0)
(0 0 0)
(0 0 0)
(0 0 0)
(0 0 0)
(0 0 0)
(0 0 0)
(0 0 0)
(0 0 0)
(0 0 0)
(0 0 0)
(0 0 0)
(0 0 0)
(0 0 0)
(0 0 0)
(0 0 0)
(0 0 0)
(0 0 0)
(0 0 0)
(0 0 0)
(0 0 0)
(0 0 0)
(0 0 0)
(0 0 0)
(0 0 0)
(0 0 0)
(0 0 0)
(0 0 0)
(0 0 0)
(0 0 0)
(0 0 0)
(0 0 0)
(0 0 0)
(0 0 0)
(0 0 0)
(0 0 0)
(0 0 0)
(0 0 0)
(0 0 0)
(0 0 0)
(0 0 0)
(0 0 0)
(0 0 0)
(0 0 0)
(0 0 0)
(0 0 0)
(0 0 0)
(0 0 0)
(0 0 0)
(0 0 0)
(0 0 0)
(0 0 0)
(0 0 0)
(0 0 0)
(0 0 0)
(0 0 0)
(0 0 0)
(0 0 0)
(0 0 0)
(0 0 0)
(0 0 0)
(0 0 0)
(0 0 0)
(0 0 0)
(0 0 0)
(0 0 0)
(0 0 0)
(0 0 0)
(0 0 0)
(0 0 0)
(0 0 0)
(0 0 0)
(0 0 0)
(0 0 0)
(0 0 0)
(0 0 0)
(0 0 0)
(0 0 0)
(0 0 0)
(0 0 0)
(0 0 0)
(0 0 0)
(0 0 0)
(0 0 0)
(0 0 0)
(0 0 0)
(0 0 0)
(0 0 0)
(0 0 0)
(0 0 0)
(0 0 0)
(0 0 0)
(0 0 0)
(0 0 0)
(0 0 0)
(0 0 0)
(0 0 0)
(0 0 0)
(0 0 0)
(0 0 0)
(0 0 0)
(0 0 0)
(0 0 0)
(0 0 0)
(0 0 0)
(0 0 0)
(0 0 0)
(0 0 0)
(0 0 0)
(0 0 0)
(0 0 0)
(0 0 0)
(0 0 0)
(0 0 0)
(0 0 0)
(0 0 0)
(0 0 0)
(0 0 0)
(0 0 0)
(0 0 0)
(0 0 0)
(0 0 0)
(0 0 0)
(0 0 0)
(0 0 0)
(0 0 0)
(0 0 0)
(0 0 0)
(0 0 0)
(0 0 0)
(0 0 0)
(0 0 0)
(0 0 0)
(0 0 0)
(0 0 0)
(0 0 0)
(0 0 0)
(0 0 0)
(0 0 0)
(0 0 0)
(0 0 0)
(0 0 0)
(0 0 0)
(0 0 0)
(0 0 0)
(0 0 0)
(0 0 0)
(0 0 0)
(0 0 0)
(0 0 0)
(0 0 0)
(0 0 0)
(0 0 0)
(0 0 0)
(0 0 0)
(0 0 0)
(0 0 0)
(0 0 0)
(0 0 0)
(0 0 0)
(0 0 0)
(0 0 0)
(0 0 0)
(0 0 0)
(0 0 0)
(0 0 0)
(0 0 0)
(0 0 0)
(0 0 0)
(0 0 0)
(0 0 0)
(0 0 0)
(0 0 0)
(0 0 0)
(0 0 0)
(0 0 0)
(0 0 0)
(0 0 0)
(0 0 0)
(0 0 0)
(0 0 0)
(0 0 0)
(0 0 0)
(0 0 0)
(0 0 0)
(0 0 0)
(0 0 0)
(0 0 0)
(0 0 0)
(0 0 0)
(0 0 0)
(0 0 0)
(0 0 0)
(0 0 0)
(0 0 0)
(0 0 0)
(0 0 0)
(0 0 0)
(0 0 0)
(0 0 0)
(0 0 0)
(0 0 0)
(0 0 0)
(0 0 0)
(0 0 0)
(0 0 0)
(0 0 0)
(0 0 0)
(0 0 0)
(0 0 0)
(0 0 0)
(0 0 0)
(0 0 0)
(0 0 0)
(0 0 0)
(0 0 0)
(0 0 0)
(0 0 0)
(0 0 0)
(0 0 0)
(0 0 0)
(0 0 0)
(0 0 0)
(0 0 0)
(0 0 0)
(0 0 0)
(0 0 0)
(0 0 0)
(0 0 0)
(0 0 0)
(0 0 0)
(0 0 0)
(0 0 0)
(0 0 0)
(0 0 0)
(0 0 0)
(0 0 0)
(0 0 0)
(0 0 0)
(0 0 0)
(0 0 0)
(0 0 0)
(0 0 0)
(0 0 0)
(0 0 0)
(0 0 0)
(0 0 0)
(0 0 0)
(0 0 0)
(0 0 0)
(0 0 0)
(0 0 0)
(0 0 0)
(0 0 0)
(0 0 0)
(0 0 0)
(0 0 0)
(0 0 0)
(0 0 0)
(0 0 0)
(0 0 0)
(0 0 0)
(0 0 0)
(0 0 0)
(0 0 0)
(0 0 0)
(0 0 0)
(0 0 0)
(0 0 0)
(0 0 0)
(0 0 0)
(0 0 0)
(0 0 0)
(0 0 0)
(0 0 0)
(0 0 0)
(0 0 0)
(0 0 0)
(0 0 0)
(0 0 0)
(0 0 0)
(0 0 0)
(0 0 0)
(0 0 0)
(0 0 0)
(0 0 0)
(0 0 0)
(0 0 0)
(0 0 0)
(0 0 0)
(0 0 0)
(0 0 0)
(0 0 0)
(0 0 0)
(0 0 0)
(0 0 0)
(0 0 0)
(0 0 0)
(0 0 0)
(0 0 0)
(0 0 0)
(0 0 0)
(0 0 0)
(0 0 0)
(0 0 0)
(0 0 0)
(0 0 0)
(0 0 0)
(0 0 0)
(0 0 0)
(0 0 0)
(0 0 0)
(0 0 0)
(0 0 0)
(0 0 0)
(0 0 0)
(0 0 0)
(0 0 0)
(0 0 0)
(0 0 0)
(0 0 0)
(0 0 0)
(0 0 0)
(0 0 0)
(0 0 0)
(0 0 0)
(0 0 0)
(0 0 0)
(0 0 0)
(0 0 0)
(0 0 0)
(0 0 0)
(0 0 0)
(0 0 0)
(0 0 0)
(0 0 0)
(0 0 0)
(0 0 0)
(0 0 0)
(0 0 0)
(0 0 0)
(0 0 0)
(0 0 0)
(0 0 0)
(0 0 0)
(0 0 0)
(0 0 0)
(0 0 0)
(0 0 0)
(0 0 0)
(0 0 0)
(0 0 0)
(0 0 0)
(0 0 0)
(0 0 0)
(0 0 0)
(0 0 0)
(0 0 0)
(0 0 0)
(0 0 0)
(0 0 0)
(0 0 0)
(0 0 0)
(0 0 0)
(0 0 0)
(0 0 0)
(0 0 0)
(0 0 0)
(0 0 0)
(0 0 0)
(0 0 0)
(0 0 0)
(0 0 0)
(0 0 0)
(0 0 0)
(0 0 0)
(0 0 0)
(0 0 0)
(0 0 0)
(0 0 0)
(0 0 0)
(0 0 0)
(0 0 0)
(0 0 0)
(0 0 0)
(0 0 0)
(0 0 0)
(0 0 0)
(0 0 0)
(0 0 0)
(0 0 0)
(0 0 0)
(0 0 0)
(0 0 0)
(0 0 0)
(0 0 0)
(0 0 0)
(0 0 0)
(0 0 0)
(0 0 0)
(0 0 0)
(0 0 0)
(0 0 0)
(0 0 0)
(0 0 0)
(0 0 0)
(0 0 0)
(0 0 0)
(0 0 0)
(0 0 0)
(0 0 0)
(0 0 0)
(0 0 0)
(0 0 0)
(0 0 0)
(0 0 0)
(0 0 0)
(0 0 0)
(0 0 0)
(0 0 0)
(0 0 0)
(0 0 0)
(0 0 0)
(0 0 0)
(0 0 0)
(0 0 0)
(0 0 0)
(0 0 0)
(0 0 0)
(0 0 0)
(0 0 0)
(0 0 0)
(0 0 0)
(0 0 0)
(0 0 0)
(0 0 0)
(0 0 0)
(0 0 0)
(0 0 0)
(0 0 0)
(0 0 0)
(0 0 0)
(0 0 0)
(0 0 0)
(0 0 0)
(0 0 0)
(0 0 0)
(0 0 0)
(0 0 0)
(0 0 0)
(0 0 0)
(0 0 0)
(0 0 0)
(0 0 0)
(0 0 0)
(0 0 0)
(0 0 0)
(0 0 0)
(0 0 0)
(0 0 0)
(0 0 0)
(0 0 0)
(0 0 0)
(0 0 0)
(0 0 0)
(0 0 0)
(0 0 0)
(0 0 0)
(0 0 0)
(0 0 0)
(0 0 0)
(0 0 0)
(0 0 0)
(0 0 0)
(0 0 0)
(0 0 0)
(0 0 0)
(0 0 0)
(0 0 0)
(0 0 0)
(0 0 0)
(0 0 0)
(0 0 0)
(0 0 0)
(0 0 0)
(0 0 0)
(0 0 0)
(0 0 0)
(0 0 0)
(0 0 0)
(0 0 0)
(0 0 0)
(0 0 0)
(0 0 0)
(0 0 0)
(0 0 0)
(0 0 0)
(0 0 0)
(0 0 0)
(0 0 0)
(0 0 0)
(0 0 0)
(0 0 0)
(0 0 0)
(0 0 0)
(0 0 0)
(0 0 0)
(0 0 0)
(0 0 0)
(0 0 0)
(0 0 0)
(0 0 0)
(0 0 0)
(0 0 0)
(0 0 0)
(0 0 0)
(0 0 0)
(0 0 0)
(0 0 0)
(0 0 0)
(0 0 0)
(0 0 0)
(0 0 0)
(0 0 0)
(0 0 0)
(0 0 0)
(0 0 0)
(0 0 0)
(0 0 0)
(0 0 0)
(0 0 0)
(0 0 0)
(0 0 0)
(0 0 0)
(0 0 0)
(0 0 0)
(0 0 0)
(0 0 0)
(0 0 0)
(0 0 0)
(0 0 0)
(0 0 0)
(0 0 0)
(0 0 0)
(0 0 0)
(0 0 0)
(0 0 0)
(0 0 0)
(0 0 0)
(0 0 0)
(0 0 0)
(0 0 0)
(0 0 0)
(0 0 0)
(0 0 0)
(0 0 0)
(0 0 0)
(0 0 0)
(0 0 0)
(0 0 0)
(0 0 0)
(0 0 0)
(0 0 0)
(0 0 0)
(0 0 0)
(0 0 0)
(0 0 0)
(0 0 0)
(0 0 0)
(0 0 0)
(0 0 0)
(0 0 0)
(0 0 0)
(0 0 0)
(0 0 0)
(0 0 0)
(0 0 0)
(0 0 0)
(0 0 0)
(0 0 0)
(0 0 0)
(0 0 0)
(0 0 0)
(0 0 0)
(0 0 0)
(0 0 0)
(0 0 0)
(0 0 0)
(0 0 0)
(0 0 0)
(0 0 0)
(0 0 0)
(0 0 0)
(0 0 0)
(0 0 0)
(0 0 0)
(0 0 0)
(0 0 0)
(0 0 0)
(0 0 0)
(0 0 0)
(0 0 0)
(0 0 0)
(0 0 0)
(0 0 0)
(0 0 0)
(0 0 0)
(0 0 0)
(0 0 0)
(0 0 0)
(0 0 0)
(0 0 0)
(0 0 0)
(0 0 0)
(0 0 0)
(0 0 0)
(0 0 0)
(0 0 0)
(0 0 0)
(0 0 0)
(0 0 0)
(0 0 0)
(0 0 0)
(0 0 0)
(0 0 0)
(0 0 0)
(0 0 0)
(0 0 0)
(0 0 0)
(0 0 0)
(0 0 0)
(0 0 0)
(0 0 0)
(0 0 0)
(0 0 0)
(0 0 0)
(0 0 0)
(0 0 0)
(0 0 0)
(0 0 0)
(0 0 0)
(0 0 0)
(0 0 0)
(0 0 0)
(0 0 0)
(0 0 0)
(0 0 0)
(0 0 0)
(0 0 0)
(0 0 0)
(0 0 0)
(0 0 0)
(0 0 0)
(0 0 0)
(0 0 0)
(0 0 0)
(0 0 0)
(0 0 0)
(0 0 0)
(0 0 0)
(0 0 0)
(0 0 0)
(0 0 0)
(0 0 0)
(0 0 0)
(0 0 0)
(0 0 0)
(0 0 0)
(0 0 0)
(0 0 0)
(0 0 0)
(0 0 0)
(0 0 0)
(0 0 0)
(0 0 0)
(0 0 0)
(0 0 0)
(0 0 0)
(0 0 0)
(0 0 0)
(0 0 0)
(0 0 0)
(0 0 0)
(0 0 0)
(0 0 0)
(0 0 0)
(0 0 0)
(0 0 0)
(0 0 0)
(0 0 0)
(0 0 0)
(0 0 0)
(0 0 0)
(0 0 0)
(0 0 0)
(0 0 0)
(0 0 0)
(0 0 0)
(0 0 0)
(0 0 0)
(0 0 0)
(0 0 0)
(0 0 0)
(0 0 0)
(0 0 0)
(0 0 0)
(0 0 0)
(0 0 0)
(0 0 0)
(0 0 0)
(0 0 0)
(0 0 0)
(0 0 0)
(0 0 0)
(0 0 0)
(0 0 0)
(0 0 0)
(0 0 0)
(0 0 0)
(0 0 0)
(0 0 0)
(0 0 0)
(0 0 0)
(0 0 0)
(0 0 0)
(0 0 0)
(0 0 0)
(0 0 0)
(0 0 0)
(0 0 0)
(0 0 0)
(0 0 0)
(0 0 0)
(0 0 0)
(0 0 0)
(0 0 0)
(0 0 0)
(0 0 0)
(0 0 0)
(0 0 0)
(0 0 0)
(0 0 0)
(0 0 0)
(0 0 0)
(0 0 0)
(0 0 0)
(0 0 0)
(0 0 0)
(0 0 0)
(0 0 0)
(0 0 0)
(0 0 0)
(0 0 0)
(0 0 0)
(0 0 0)
(0 0 0)
(0 0 0)
(0 0 0)
(0 0 0)
(0 0 0)
(0 0 0)
(0 0 0)
(0 0 0)
(0 0 0)
(0 0 0)
(0 0 0)
(0 0 0)
(0 0 0)
(0 0 0)
(0 0 0)
(0 0 0)
(0 0 0)
(0 0 0)
(0 0 0)
(0 0 0)
(0 0 0)
(0 0 0)
(0 0 0)
(0 0 0)
(0 0 0)
(0 0 0)
(0 0 0)
(0 0 0)
(0 0 0)
(0 0 0)
(0 0 0)
(0 0 0)
(0 0 0)
(0 0 0)
(0 0 0)
(0 0 0)
(0 0 0)
(0 0 0)
(0 0 0)
(0 0 0)
(0 0 0)
(0 0 0)
(0 0 0)
(0 0 0)
(0 0 0)
(0 0 0)
(0 0 0)
(0 0 0)
(0 0 0)
(0 0 0)
(0 0 0)
(0 0 0)
(0 0 0)
(0 0 0)
(0 0 0)
(0 0 0)
(0 0 0)
(0 0 0)
(0 0 0)
(0 0 0)
(0 0 0)
(0 0 0)
(0 0 0)
(0 0 0)
(0 0 0)
(0 0 0)
(0 0 0)
(0 0 0)
(0 0 0)
(0 0 0)
(0 0 0)
(0 0 0)
(0 0 0)
(0 0 0)
(0 0 0)
(0 0 0)
(0 0 0)
(0 0 0)
(0 0 0)
(0 0 0)
(0 0 0)
(0 0 0)
(0 0 0)
(0 0 0)
(0 0 0)
(0 0 0)
(0 0 0)
(0 0 0)
(0 0 0)
(0 0 0)
(0 0 0)
(0 0 0)
(0 0 0)
(0 0 0)
(0 0 0)
(0 0 0)
(0 0 0)
(0 0 0)
(0 0 0)
(0 0 0)
(0 0 0)
(0 0 0)
(0 0 0)
(0 0 0)
(0 0 0)
(0 0 0)
(0 0 0)
(0 0 0)
(0 0 0)
(0 0 0)
(0 0 0)
(0 0 0)
(0 0 0)
(0 0 0)
(0 0 0)
(0 0 0)
(0 0 0)
(0 0 0)
(0 0 0)
(0 0 0)
(0 0 0)
(0 0 0)
(0 0 0)
(0 0 0)
(0 0 0)
(0 0 0)
(0 0 0)
(0 0 0)
(0 0 0)
(0 0 0)
(0 0 0)
(0 0 0)
(0 0 0)
(0 0 0)
(0 0 0)
(0 0 0)
(0 0 0)
(0 0 0)
(0 0 0)
(0 0 0)
(0 0 0)
(0 0 0)
(0 0 0)
(0 0 0)
(0 0 0)
(0 0 0)
(0 0 0)
(0 0 0)
(0 0 0)
(0 0 0)
(0 0 0)
(0 0 0)
(0 0 0)
(0 0 0)
(0 0 0)
(0 0 0)
(0 0 0)
(0 0 0)
(0 0 0)
(0 0 0)
(0 0 0)
(0 0 0)
(0 0 0)
(0 0 0)
(0 0 0)
(0 0 0)
(0 0 0)
(0 0 0)
(0 0 0)
(0 0 0)
(0 0 0)
(0 0 0)
(0 0 0)
(0 0 0)
(0 0 0)
(0 0 0)
(0 0 0)
(0 0 0)
(0 0 0)
(0 0 0)
(0 0 0)
(0 0 0)
(0 0 0)
(0 0 0)
(0 0 0)
(0 0 0)
(0 0 0)
(0 0 0)
(0 0 0)
(0 0 0)
(0 0 0)
(0 0 0)
(0 0 0)
(0 0 0)
(0 0 0)
(0 0 0)
(0 0 0)
(0 0 0)
(0 0 0)
(0 0 0)
(0 0 0)
(0 0 0)
(0 0 0)
(0 0 0)
(0 0 0)
(0 0 0)
(0 0 0)
(0 0 0)
(0 0 0)
(0 0 0)
(0 0 0)
(0 0 0)
(0 0 0)
(0 0 0)
(0 0 0)
(0 0 0)
(0 0 0)
(0 0 0)
(0 0 0)
(0 0 0)
(0 0 0)
(0 0 0)
(0 0 0)
(0 0 0)
(0 0 0)
(0 0 0)
(0 0 0)
(0 0 0)
(0 0 0)
(0 0 0)
(0 0 0)
(0 0 0)
(0 0 0)
(0 0 0)
(0 0 0)
(0 0 0)
(0 0 0)
(0 0 0)
(0 0 0)
(0 0 0)
(0 0 0)
(0 0 0)
(0 0 0)
(0 0 0)
(0 0 0)
(0 0 0)
(0 0 0)
(0 0 0)
(0 0 0)
(0 0 0)
(0 0 0)
(0 0 0)
(0 0 0)
(0 0 0)
(0 0 0)
(0 0 0)
(0 0 0)
(0 0 0)
(0 0 0)
(0 0 0)
(0 0 0)
(0 0 0)
(0 0 0)
(0 0 0)
(0 0 0)
(0 0 0)
(0 0 0)
(0 0 0)
(0 0 0)
(0 0 0)
(0 0 0)
(0 0 0)
(0 0 0)
(0 0 0)
(0 0 0)
(0 0 0)
(0 0 0)
(0 0 0)
(0 0 0)
(0 0 0)
(0 0 0)
(0 0 0)
(0 0 0)
(0 0 0)
(0 0 0)
(0 0 0)
(0 0 0)
(0 0 0)
(0 0 0)
(0 0 0)
(0 0 0)
(0 0 0)
(0 0 0)
(0 0 0)
(0 0 0)
(0 0 0)
(0 0 0)
(0 0 0)
(0 0 0)
(0 0 0)
(0 0 0)
(0 0 0)
(0 0 0)
(0 0 0)
(0 0 0)
(0 0 0)
(0 0 0)
(0 0 0)
(0 0 0)
(0 0 0)
(0 0 0)
(0 0 0)
(0 0 0)
(0 0 0)
(0 0 0)
(0 0 0)
(0 0 0)
(0 0 0)
(0 0 0)
(0 0 0)
(0 0 0)
(0 0 0)
(0 0 0)
(0 0 0)
(0 0 0)
(0 0 0)
(0 0 0)
(0 0 0)
(0 0 0)
(0 0 0)
(0 0 0)
(0 0 0)
(0 0 0)
(0 0 0)
(0 0 0)
(0 0 0)
(0 0 0)
(0 0 0)
(0 0 0)
(0 0 0)
(0 0 0)
(0 0 0)
(0 0 0)
(0 0 0)
(0 0 0)
(0 0 0)
(0 0 0)
(0 0 0)
(0 0 0)
(0 0 0)
(0 0 0)
(0 0 0)
(0 0 0)
(0 0 0)
(0 0 0)
(0 0 0)
(0 0 0)
(0 0 0)
(0 0 0)
(0 0 0)
(0 0 0)
(0 0 0)
(0 0 0)
(0 0 0)
(0 0 0)
(0 0 0)
(0 0 0)
(0 0 0)
(0 0 0)
(0 0 0)
(0 0 0)
(0 0 0)
(0 0 0)
(0 0 0)
(0 0 0)
(0 0 0)
(0 0 0)
(0 0 0)
(0 0 0)
(0 0 0)
(0 0 0)
(0 0 0)
(0 0 0)
(0 0 0)
(0 0 0)
(0 0 0)
(0 0 0)
(0 0 0)
(0 0 0)
(0 0 0)
(0 0 0)
(0 0 0)
(0 0 0)
(0 0 0)
(0 0 0)
(0 0 0)
(0 0 0)
(0 0 0)
(0 0 0)
(0 0 0)
(0 0 0)
(0 0 0)
(0 0 0)
(0 0 0)
(0 0 0)
(0 0 0)
(0 0 0)
(0 0 0)
(0 0 0)
(0 0 0)
(0 0 0)
(0 0 0)
(0 0 0)
(0 0 0)
(0 0 0)
(0 0 0)
(0 0 0)
(0 0 0)
(0 0 0)
(0 0 0)
(0 0 0)
(0 0 0)
(0 0 0)
(0 0 0)
(0 0 0)
(0 0 0)
(0 0 0)
(0 0 0)
(0 0 0)
(0 0 0)
(0 0 0)
(0 0 0)
(0 0 0)
(0 0 0)
(0 0 0)
(0 0 0)
(0 0 0)
(0 0 0)
(0 0 0)
(0 0 0)
(0 0 0)
(0 0 0)
(0 0 0)
(0 0 0)
(0 0 0)
(0 0 0)
(0 0 0)
(0 0 0)
(0 0 0)
(0 0 0)
(0 0 0)
(0 0 0)
(0 0 0)
(0 0 0)
(0 0 0)
(0 0 0)
(0 0 0)
(0 0 0)
(0 0 0)
(0 0 0)
(0 0 0)
(0 0 0)
(0 0 0)
(0 0 0)
(0 0 0)
(0 0 0)
(0 0 0)
(0 0 0)
(0 0 0)
(0 0 0)
(0 0 0)
(0 0 0)
(0 0 0)
(0 0 0)
(0 0 0)
(0 0 0)
(0 0 0)
(0 0 0)
(0 0 0)
(0 0 0)
(0 0 0)
(0 0 0)
(0 0 0)
(0 0 0)
(0 0 0)
(0 0 0)
(0 0 0)
(0 0 0)
(0 0 0)
(0 0 0)
(0 0 0)
(0 0 0)
(0 0 0)
(0 0 0)
(0 0 0)
(0 0 0)
(0 0 0)
(0 0 0)
(0 0 0)
(0 0 0)
(0 0 0)
(0 0 0)
(0 0 0)
(0 0 0)
(0 0 0)
(0 0 0)
(0 0 0)
(0 0 0)
(0 0 0)
(0 0 0)
(0 0 0)
(0 0 0)
(0 0 0)
(0 0 0)
(0 0 0)
(0 0 0)
(0 0 0)
(0 0 0)
(0 0 0)
(0 0 0)
(0 0 0)
(0 0 0)
(0 0 0)
(0 0 0)
(0 0 0)
(0 0 0)
(0 0 0)
(0 0 0)
(0 0 0)
(0 0 0)
(0 0 0)
(0 0 0)
(0 0 0)
(0 0 0)
(0 0 0)
(0 0 0)
(0 0 0)
(0 0 0)
(0 0 0)
(0 0 0)
(0 0 0)
(0 0 0)
(0 0 0)
(0 0 0)
(0 0 0)
(0 0 0)
(0 0 0)
(0 0 0)
(0 0 0)
(0 0 0)
(0 0 0)
(0 0 0)
(0 0 0)
(0 0 0)
(0 0 0)
(0 0 0)
(0 0 0)
(0 0 0)
(0 0 0)
(0 0 0)
(0 0 0)
(0 0 0)
(0 0 0)
(0 0 0)
(0 0 0)
(0 0 0)
(0 0 0)
(0 0 0)
(0 0 0)
(0 0 0)
(0 0 0)
(0 0 0)
(0 0 0)
(0 0 0)
(0 0 0)
(0 0 0)
(0 0 0)
(0 0 0)
(0 0 0)
(0 0 0)
(0 0 0)
(0 0 0)
(0 0 0)
(0 0 0)
(0 0 0)
(0 0 0)
(0 0 0)
(0 0 0)
(0 0 0)
(0 0 0)
(0 0 0)
(0 0 0)
(0 0 0)
(0 0 0)
(0 0 0)
(0 0 0)
(0 0 0)
(0 0 0)
(0 0 0)
(0 0 0)
(0 0 0)
(0 0 0)
(0 0 0)
(0 0 0)
(0 0 0)
(0 0 0)
(0 0 0)
(0 0 0)
(0 0 0)
(0 0 0)
(0 0 0)
(0 0 0)
(0 0 0)
(0 0 0)
(0 0 0)
(0 0 0)
(0 0 0)
(0 0 0)
(0 0 0)
(0 0 0)
(0 0 0)
(0 0 0)
(0 0 0)
(0 0 0)
(0 0 0)
(0 0 0)
(0 0 0)
(0 0 0)
(0 0 0)
(0 0 0)
(0 0 0)
(0 0 0)
(0 0 0)
(0 0 0)
(0 0 0)
(0 0 0)
(0 0 0)
(0 0 0)
(0 0 0)
(0 0 0)
(0 0 0)
(0 0 0)
(0 0 0)
(0 0 0)
(0 0 0)
(0 0 0)
(0 0 0)
(0 0 0)
(0 0 0)
(0 0 0)
(0 0 0)
(0 0 0)
(0 0 0)
(0 0 0)
(0 0 0)
(0 0 0)
(0 0 0)
(0 0 0)
(0 0 0)
(0 0 0)
(0 0 0)
(0 0 0)
(0 0 0)
(0 0 0)
(0 0 0)
(0 0 0)
(0 0 0)
(0 0 0)
(0 0 0)
(0 0 0)
(0 0 0)
(0 0 0)
(0 0 0)
(0 0 0)
(0 0 0)
(0 0 0)
(0 0 0)
(0 0 0)
(0 0 0)
(0 0 0)
(0 0 0)
(0 0 0)
(0 0 0)
(0 0 0)
(0 0 0)
(0 0 0)
(0 0 0)
(0 0 0)
(0 0 0)
(0 0 0)
(0 0 0)
(0 0 0)
(0 0 0)
(0 0 0)
(0 0 0)
(0 0 0)
(0 0 0)
(0 0 0)
(0 0 0)
(0 0 0)
(0 0 0)
(0 0 0)
(0 0 0)
(0 0 0)
(0 0 0)
(0 0 0)
(0 0 0)
(0 0 0)
(0 0 0)
(0 0 0)
(0 0 0)
(0 0 0)
(0 0 0)
(0 0 0)
(0 0 0)
(0 0 0)
(0 0 0)
(0 0 0)
(0 0 0)
(0 0 0)
(0 0 0)
(0 0 0)
(0 0 0)
(0 0 0)
(0 0 0)
(0 0 0)
(0 0 0)
(0 0 0)
(0 0 0)
(0 0 0)
(0 0 0)
(0 0 0)
(0 0 0)
(0 0 0)
(0 0 0)
(0.0277012 0.0729754 -0.0631797)
(-0.0201634 0.0229707 -0.0229412)
(0.0931458 0.113222 -0.0504142)
(0.031483 0.0961921 0.0335584)
(-0.0323277 0.00659071 -0.00880553)
(-0.0888901 0.0643381 0.0246299)
(-0.0983455 0.0835171 -0.0623323)
(-0.0280096 0.062935 -0.0769952)
(0.0274461 -0.0010697 -0.0136017)
(0.0056991 0.0699679 -0.0261573)
(0.0780828 0.171883 -0.0193547)
(0.0568306 0.0950232 -0.00573733)
(0.15417 0.233604 0.068815)
(0.162517 0.249266 0.0488731)
(0.0553168 0.181399 0.0473409)
(0.181901 0.272825 0.101505)
(0.0540667 0.174998 0.0390331)
(-0.0777301 0.162599 0.063803)
(-0.122807 0.22891 0.0141343)
(-0.00135975 0.128833 0.0315177)
(-0.00474034 0.151254 0.0470746)
(0.00343094 0.198666 -0.0685689)
(0.0600925 0.155998 -0.0533677)
(0.0333932 0.310607 0.0492844)
(0.0760127 0.227536 0.0352524)
(0.011766 0.0888161 -0.00406267)
(0.103583 -0.0688583 -0.0197795)
(0.0533096 -0.0698029 -0.0303392)
(0.136723 -0.0700767 -0.0160559)
(0.170381 0.0329413 -0.0180716)
(0.222762 0.225163 0.0591876)
(0.252927 0.0565181 0.033226)
(0.258648 0.283398 0.0710886)
(0.159159 0.201566 0.0511656)
(0.0891729 0.133447 0.0293264)
(0.133768 0.135005 0.0483815)
(0.131115 0.048275 0.0390826)
(0.0221579 0.0578618 0.025347)
(-0.00801909 0.0429173 0.0185194)
(-0.00678166 -0.0553804 0.0385348)
(-0.0706376 -0.0116464 0.0174455)
(0.0148386 0.102195 0.0566795)
(0.0499344 0.128557 0.0774259)
(-0.0527028 0.074607 0.0343525)
(-0.00286677 0.0711937 0.0314147)
(-0.00523122 0.0509289 0.0286337)
(0.0188517 0.0231429 0.0135686)
(0.00791061 0.0171325 -0.00214422)
(0.0776985 0.0236409 -0.107242)
(0.200427 0.0528239 -0.042934)
(0.138978 0.0932627 -0.0023715)
(0.324115 0.0614192 0.0585158)
(0.272647 0.194378 0.0601689)
(0.166729 0.0027195 0.0357982)
(-0.0159802 -0.107658 0.00785614)
(0.0718244 -0.0730843 0.0301968)
(0.0994488 -0.172685 9.00531e-06)
(0.0127684 -0.238351 0.000266985)
(0.0527265 -0.286256 -0.0153114)
(-0.0948964 -0.201855 0.0334672)
(-0.151972 -0.165839 0.0329702)
(-0.0854977 -0.287828 0.0577248)
(-0.190057 -0.345742 0.0276223)
(-0.100799 -0.0973619 0.0668946)
(-0.0492862 -0.0919721 0.0754862)
(-0.108266 -0.334853 0.0304255)
(-0.00244995 -0.258962 0.0582114)
(0.000352465 -0.0302955 0.0122792)
(0.000207252 0.0187471 -0.00841075)
(0.0110805 -0.132924 0.0124139)
(0.0720114 0.0669502 -0.00532146)
(0.0189403 -0.0644141 0.0210076)
(-0.0870374 -0.244081 -0.0180213)
(-0.0271875 -0.0980686 -0.0312796)
(-0.0151827 -0.192526 -0.0466299)
(0.00341836 -0.25261 0.00374265)
(0.0508516 -0.293301 0.01099)
(0.0123495 -0.224987 0.0288169)
(0.035484 -0.214049 0.0399271)
(-0.118238 -0.244221 0.072363)
(-0.187255 -0.234055 0.0329122)
(-0.137504 -0.149751 0.0684899)
(-0.19558 -0.131535 0.0229542)
(-0.0810806 -0.231616 -0.000944069)
(0.0299041 -0.184206 0.00621582)
(-0.0576754 -0.109777 -0.037358)
(0.0185088 -0.0978806 -0.0393796)
(0.0176945 -0.0949865 -0.030504)
(0.0106066 -0.0835999 -0.0727049)
(0.0261428 -0.117005 -0.0274277)
(0.0665442 -0.103365 -0.0109974)
(0.0605404 -0.0372463 -0.0523857)
(-0.046308 -0.00782065 0.0515749)
(-0.156413 -0.0188573 0.0183122)
(0.0381381 0.00305254 0.0141129)
(-0.0816765 -0.0115161 -0.0332715)
(0.00138552 0.0485327 -0.148921)
(-0.00266122 0.0291047 -0.220787)
(-0.0161221 0.0519393 -0.123844)
(0.0236706 0.0866134 -0.141687)
(0.00676031 0.139179 -0.0360018)
(-0.0331961 0.0207944 -0.152777)
(-0.00406858 0.0532212 -0.212368)
(-0.033548 0.0977498 -0.0959029)
(-0.108998 0.10085 0.0379689)
(-0.0659545 0.0403735 -0.158925)
(-0.050447 0.0188023 -0.0708489)
(-0.0710107 0.0946302 -0.0241754)
(-0.0512073 0.00686213 -0.212376)
(-0.025447 0.0275023 -0.19167)
(-0.0356214 -0.00225001 -0.266998)
(0.0728285 -0.0252631 -0.0702529)
(0.0516347 0.00768742 -0.106424)
(0.0744603 0.110617 -0.0795532)
(0.147536 0.0192297 -0.0277735)
(0.211864 0.136284 0.0647115)
(0.0215382 -0.00667034 -0.155334)
(0.049358 0.0544621 -0.152415)
(0.108341 0.0177504 -0.0807241)
(0.210926 0.0573173 0.032089)
(0.0556681 0.106142 -0.142473)
(0.0749054 0.264958 0.0768194)
(0.0660652 0.181172 0.0494506)
(-0.0246278 0.0433333 -0.288302)
(0.0104338 0.0371678 -0.256447)
(0.172476 0.187588 0.19173)
(0.0563297 0.102309 0.0657471)
(0.0170261 0.0638826 -0.0217193)
(0.00772733 0.032131 -0.152065)
(0.0810056 0.034772 -0.0398999)
(0.018457 0.122666 -0.155372)
(0.108198 0.119627 -0.0391992)
(0.0470348 0.0521618 -0.0969946)
(0.00976861 0.118781 -0.242567)
(0.0831677 0.128833 -0.166242)
(-0.00323117 0.0192529 0.164382)
(-0.0141435 -0.0383417 0.0974887)
(0.00104368 0.0234922 0.0594133)
(-0.0252477 -0.0473611 0.166116)
(-0.00652822 -0.0195132 0.0585238)
(0.159437 0.178051 -0.14058)
(0.121179 0.108664 -0.0421179)
(0.027112 0.150784 -0.342105)
(0.0905184 0.208362 -0.263536)
(0.0587154 0.0832247 -0.121803)
(-0.0166073 -0.0494971 0.0584358)
(0.00243963 -0.0616315 0.027576)
(-0.0520534 -0.045701 0.0579456)
(-0.0153258 -0.00641104 -0.00778)
(-0.0273466 0.0377222 -0.00508811)
(0.0749303 0.0769986 -0.123228)
(0.038002 0.0449839 -0.212703)
(0.0274248 -0.127832 -0.0479945)
(0.0228305 -0.00707614 -0.25955)
(0.0643232 -0.06458 -0.167808)
(0.0642469 -0.0278065 -0.132296)
(0.143847 -0.0868688 0.0331558)
(0.0235244 0.0144545 -0.31697)
(0.0324651 0.0110371 -0.291471)
(0.0153383 -0.12256 -0.0652499)
(-0.0568468 -0.0649388 -0.118862)
(0.0162267 -0.0638808 -0.130591)
(-0.0387963 0.0089813 -0.0948897)
(-0.0155728 0.0176132 -0.101509)
(-0.0657792 -0.0123 -0.199222)
(-0.0255483 -0.00898141 -0.214251)
(-0.0485585 0.0697739 -0.172954)
(0.0220297 -0.0285806 -0.192637)
(0.0162099 0.00513304 -0.333755)
(0.0401745 -0.0646063 -0.0479044)
(0.049654 -0.00952715 -0.13385)
(0.0292489 -0.00922418 -0.270968)
(0.00157882 -0.026372 -0.108342)
(0.0643836 -0.0112138 -0.206512)
(-0.197012 0.0207163 -0.0430778)
(-0.0765433 0.0311272 0.0975923)
(-0.18276 0.0125044 0.0986729)
(-0.122366 0.0333897 -0.116025)
(0.00019162 0.00870581 -0.0733924)
(-0.0677094 0.017593 -0.194661)
(-0.00851478 0.0202019 -0.273981)
(-0.0170709 0.0120983 -0.334905)
(-0.0458505 0.0178364 -0.183331)
(-0.0150216 0.0361474 -0.262446)
(-0.0583697 0.0607116 -0.13395)
(-0.0428273 0.0135635 -0.232223)
(-0.0330408 0.0184136 -0.309565)
(-0.0670368 0.022398 -0.176944)
(-0.0718858 0.0473481 -0.0968714)
(-0.0477881 -0.00512194 -0.233917)
(-0.0352053 0.0126651 -0.178924)
(-0.059698 0.0166769 -0.154884)
(-0.0286439 0.00678542 -0.260063)
(-0.0432489 -0.0192215 -0.307418)
(-0.0285053 -0.0215388 -0.343865)
(0.0180491 0.0149782 -0.14213)
(-0.00634042 0.0289851 -0.169073)
(0.0146137 0.0246455 -0.22498)
(0.0437207 0.0291267 -0.13411)
(0.0729272 0.0799591 -0.0539844)
(-0.00928082 0.0113171 -0.237142)
(-0.0135548 0.0198123 -0.262706)
(-0.00367732 0.0321311 -0.16424)
(-0.0129089 0.0710145 -0.0691845)
(-0.0325027 -0.0341031 -0.339693)
(0.266993 0.08261 0.161535)
(0.0468419 -0.0522721 -0.0658178)
(-0.0638475 -0.0511655 -0.354751)
(-0.0469502 -0.0498099 -0.355516)
(-0.0209101 -0.0307612 -0.125845)
(-0.0308165 -0.0259799 -0.2629)
(0.020223 0.0447831 -0.239252)
(0.0295421 0.0458738 -0.21667)
(0.0326252 0.038642 -0.156096)
(0.00453241 0.0744192 -0.335916)
(0.0473482 0.086416 -0.283659)
(0.0118625 0.0416036 -0.20143)
(-0.00263438 0.0484829 -0.401835)
(0.0165402 0.0451492 -0.351015)
(-0.0127444 -0.0864239 0.159399)
(0.0141556 0.0466224 -0.00338077)
(0.0214596 0.105697 -0.089695)
(0.0558977 0.0949421 -0.0213509)
(0.0153181 0.0964874 -0.0511495)
(0.0131681 0.122614 -0.381424)
(0.0107114 0.105263 -0.254804)
(-0.00525654 0.0404199 -0.445865)
(-0.0255039 0.0664701 -0.375739)
(0.00387129 0.11833 -0.201998)
(-0.0262786 0.0714928 -0.100398)
(-0.0138142 0.0830563 -0.0949332)
(0.00707413 0.0880602 -0.122113)
(0.0068888 0.0983842 -0.0983894)
(-0.0188801 0.099269 -0.100116)
(0.0234063 0.0567235 -0.209267)
(0.0582863 0.1105 -0.1672)
(0.132445 -0.04749 0.0226368)
(0.0122562 0.00877513 -0.286456)
(-0.00608632 0.0115766 -0.263046)
(-0.0130411 0.0171074 -0.132241)
(0.142576 -0.0251509 0.103062)
(0.00554008 0.0105122 -0.244286)
(-0.0149644 0.0078377 -0.228096)
(-0.00599212 0.122467 -0.110702)
(-0.0950736 0.0308293 -0.277733)
(-0.0798011 0.0622259 -0.276415)
(0.00206923 0.129764 -0.0485112)
(-0.023671 0.124052 -0.0841681)
(-0.130215 0.0719513 -0.285535)
(-0.0932289 0.0650211 -0.251735)
(-0.126142 0.0673944 -0.134589)
(0.0104895 0.0126341 -0.341228)
(0.00960252 0.00884876 -0.308816)
(0.0293661 0.00747562 -0.274002)
(0.0859022 0.00800453 -0.323388)
(0.00642512 0.0156993 -0.274443)
(0.0327103 0.0235425 -0.247761)
(0.0880481 0.0164697 -0.276343)
(-0.0767744 0.0770947 -0.170782)
(0.0820428 -0.0196236 -0.267072)
(0.0662306 -0.0557502 -0.0496401)
(-0.0540885 0.110228 -0.153775)
(0.113409 -0.00915451 -0.250904)
(-0.0777415 0.0471252 -0.24767)
(-0.0276317 0.0134675 -0.342586)
(-0.0298377 0.0196688 -0.326017)
(-0.0189259 0.00218414 -0.301644)
(-0.041633 0.015734 -0.321546)
(-0.0434983 0.0057622 -0.246133)
(-0.0191598 0.00220915 -0.323375)
(-0.0394079 0.0156614 -0.31748)
(-0.0311898 0.00694793 -0.277047)
(-0.032479 -0.0236893 -0.182293)
(-0.0180619 0.0020028 -0.293233)
(-0.00578364 -0.00478699 -0.330885)
(-0.0144671 -0.0537728 -0.200695)
(0.00356319 -0.00199437 -0.327583)