/*--------------------------------*- C++ -*----------------------------------*\
| =========                 |                                                 |
| \\      /  F ield         | OpenFOAM: The Open Source CFD Toolbox           |
|  \\    /   O peration     | Version:  5.x                                   |
|   \\  /    A nd           | Web:      www.OpenFOAM.org                      |
|    \\/     M anipulation  |                                                 |
\*---------------------------------------------------------------------------*/
FoamFile
{
    version     2.0;
    format      ascii;
    class       volVectorField;
    location    "0.45";
    object      U;
}
// * * * * * * * * * * * * * * * * * * * * * * * * * * * * * * * * * * * * * //

dimensions      [0 1 -1 0 0 0 0];

internalField   nonuniform List<vector> 
10571
(
(0.0115922 0.330552 1.69181)
(0.0289672 -0.0242857 0.92667)
(0.175056 0.132496 1.24669)
(0.416867 0.364375 1.59557)
(0.00202643 0.350552 1.54316)
(0.133613 0.212301 1.21748)
(0.189506 0.0769994 1.36016)
(0.277098 -0.0819416 0.726809)
(0.148122 -0.0417343 1.44485)
(-0.116095 -0.0786721 1.47218)
(0.310259 0.116363 1.0062)
(0.322572 0.34849 2.09897)
(0.0231971 0.237259 0.660495)
(0.367947 0.359168 0.971181)
(0.0503811 -0.0340143 0.926432)
(0.0130519 -0.146022 1.05615)
(0.0667061 -0.0642169 1.28444)
(0.395079 0.0433826 1.5511)
(0.16968 -0.0822649 1.08483)
(-0.161703 0.0306363 1.13032)
(-0.0549561 -0.0198092 0.35549)
(0.197817 0.039162 1.51118)
(-0.0930927 0.153367 1.25686)
(-0.0101949 -0.0461896 0.580013)
(-0.006807 -0.0161317 0.804462)
(-0.0250939 0.00995424 0.912364)
(-0.101095 0.0024048 1.04224)
(-0.0769965 -0.274423 1.28865)
(-0.0897423 -0.252047 0.9179)
(-0.0846157 -0.129133 1.06674)
(-0.0781449 -0.0272557 0.657933)
(-0.370324 -0.0867539 1.33293)
(-0.0701822 -0.194363 1.62157)
(0.0219437 -0.078673 0.944752)
(-0.0833709 -0.111753 0.915605)
(-0.395343 -0.161956 2.18873)
(-0.122693 -0.205854 0.923156)
(-0.105123 -0.0796174 1.26728)
(0.0662555 0.00662963 1.22616)
(0.0988167 -0.00835484 0.903149)
(-0.215195 -0.0409393 1.08674)
(-0.271008 -0.105971 1.54916)
(-0.103336 0.159423 1.45492)
(0.0813886 0.100589 0.897563)
(0.0569805 -0.0184312 0.610743)
(-0.0380023 -0.0760772 0.923809)
(-0.0871887 0.0680597 0.755231)
(-0.0906777 0.076032 0.611212)
(-0.371019 -0.109075 1.02145)
(0.00858451 -0.00457262 0.938443)
(-0.181479 0.0567826 0.88632)
(-0.511695 -0.0645584 1.30587)
(-0.0438079 -0.259691 1.13076)
(0.0807924 -0.110561 0.94042)
(-0.365379 -0.0247051 2.14815)
(-0.417817 0.0929437 0.863242)
(-0.268979 -0.0873865 0.92226)
(-0.0673753 -0.09178 1.27572)
(-0.0209356 -0.228927 1.12783)
(0.241425 -0.0988584 1.22128)
(-0.165896 -0.491794 1.2169)
(-0.246999 -0.291367 0.732974)
(-0.174372 -0.022089 0.713598)
(-0.0949818 0.0372266 0.839545)
(-0.206024 -0.114127 0.817363)
(-0.298401 -0.349535 0.803647)
(-0.0907549 -0.321758 0.871716)
(-0.0364568 -0.298799 1.10482)
(0.141539 -0.0486086 0.87654)
(-0.320447 -0.278338 1.06592)
(-0.0597547 -0.163816 1.03915)
(0.0280381 0.00746359 1.013)
(-0.117645 -0.0339151 0.594299)
(-0.00898378 0.0318529 0.0742354)
(0.219594 0.054351 0.575556)
(-0.198911 0.175483 1.21823)
(0.0509421 0.0478471 1.13002)
(-0.000965864 0.186846 0.367818)
(0.0121591 0.444072 2.00388)
(-0.26231 0.086204 1.90598)
(-0.0662674 -0.010838 0.801648)
(-0.0443238 -0.0710919 0.937633)
(-0.00581877 -0.0414407 0.561094)
(0.242126 0.0939254 1.31818)
(0.401566 -0.319392 2.00247)
(-0.206245 -0.242015 1.85443)
(-0.0589177 -0.00551678 1.08506)
(-0.0496209 0.047777 0.73197)
(0.0455634 0.0196572 0.914021)
(-0.0625361 -0.223858 1.05645)
(-0.000674738 -0.200773 0.823329)
(0.00216811 -0.1034 0.786854)
(0.0258549 -0.0337677 0.949463)
(-0.349834 -0.125203 0.83894)
(0.0367955 -0.252421 1.00706)
(0.208373 -0.103196 0.814376)
(0.0387787 -0.0393085 0.24507)
(-0.0780588 0.132472 0.218854)
(0.0116943 0.159672 0.59613)
(0.0696858 0.00953904 0.270677)
(-0.0126274 -0.0213266 0.632254)
(0.0609289 0.190948 0.371799)
(-0.0305175 0.281358 1.77424)
(0.0158928 0.197178 1.16647)
(-0.0555635 0.135923 0.91731)
(-0.0497614 -0.142448 0.615442)
(-0.0325856 0.160747 0.446176)
(-0.0524329 0.0557575 0.774421)
(0.381713 -0.00646787 1.10436)
(0.0663529 -0.0123814 1.13541)
(-0.0626697 -0.062698 0.96781)
(-0.271099 0.0489396 0.11492)
(-0.161812 0.0586406 0.888399)
(0.218314 0.0436233 0.839772)
(-0.0953713 -0.00977035 1.17098)
(-0.0842062 -0.0380561 0.420034)
(-0.0715581 0.198896 0.900015)
(0.0393636 -0.106955 0.535884)
(0.0673677 0.0335146 0.80408)
(-0.0485064 0.0490979 0.925051)
(0.257056 -0.018338 0.298486)
(-0.0273877 0.102713 0.158022)
(0.0310603 0.274616 0.375705)
(0.222501 0.123582 0.135559)
(-0.0370273 -0.0199386 0.594051)
(0.0710918 0.175864 0.388155)
(-0.0418183 0.219547 1.85028)
(0.0101745 0.231485 1.19737)
(0.00174356 0.0517859 0.560559)
(-0.255031 -0.0423884 0.530301)
(-0.0126991 0.00607955 -0.0058275)
(0.00326277 0.166304 0.446035)
(0.0706622 0.122861 0.534185)
(0.345374 0.015971 1.37038)
(0.0955278 -0.0562516 1.18803)
(0.0837877 0.0387189 0.811655)
(-0.29189 -0.00684618 0.0641636)
(-0.0123611 -0.00409337 -0.0053597)
(-0.075724 0.138536 0.904205)
(0.127096 0.0953081 0.503903)
(-3.75971e-05 0.0956347 0.730355)
(-0.231068 -0.157767 0.422878)
(-0.187891 0.227594 0.886977)
(0.128934 -0.0245636 0.286844)
(0.11999 -0.143103 0.20669)
(-0.0049279 -0.105778 0.446958)
(0.178174 -0.020317 0.215651)
(-0.00745076 0.0238838 0.144566)
(0.0875405 0.0626289 0.211299)
(0.142604 0.0555148 0.176688)
(0.0802474 0.0891585 0.434084)
(-0.0355439 0.076639 0.392051)
(-0.00540576 0.196968 1.8458)
(0.0316032 0.221362 1.27702)
(-0.0229074 0.0439998 0.701913)
(-0.0507504 0.0121509 0.43421)
(-0.149951 -0.0584462 -0.00883349)
(0.00166462 0.250997 0.369982)
(0.217775 0.0842503 0.558003)
(0.226927 0.094641 1.49272)
(0.14493 -0.0216878 1.39575)
(0.0981546 0.0494953 0.960261)
(-0.0677798 -0.00494649 0.175082)
(-0.109778 -0.0431546 -0.0488197)
(0.0255341 -0.0370122 0.735687)
(0.171308 0.104813 0.660472)
(0.0381675 0.0976749 0.893752)
(-0.0847433 0.0440466 0.600411)
(-0.0629501 0.117214 0.484141)
(-0.102181 -0.000475459 0.012341)
(0.185098 0.0286587 0.360507)
(0.107942 0.00738567 0.367894)
(0.0500299 -0.00539383 0.239387)
(0.196671 -0.00882397 0.25601)
(0.004191 -0.0333021 0.224663)
(-0.0145617 -0.168235 0.133708)
(0.105932 -0.0805252 0.206581)
(0.187305 0.127051 0.464254)
(-0.200558 -0.0182965 0.298192)
(0.045782 0.133939 1.71106)
(0.109826 0.202543 1.25557)
(0.0401586 0.0643658 0.720884)
(-0.0348321 0.138681 0.46786)
(-0.0449292 -0.0264238 0.0479739)
(-0.0135665 0.314181 0.421891)
(0.100893 0.068017 0.586631)
(0.142978 0.245891 1.41449)
(0.254814 0.0759741 1.40008)
(0.158975 0.063701 1.06221)
(0.00860106 -0.0435218 0.379756)
(-0.00969174 -0.164317 -0.0878407)
(0.0210063 -0.00882557 0.689036)
(0.139032 0.259251 0.699861)
(0.082187 0.0831517 0.972942)
(0.0231337 0.0902747 0.730536)
(0.0193965 0.0851112 0.379062)
(-0.0588079 -0.0498702 0.0132768)
(0.106448 0.0649644 0.396955)
(0.0802274 0.0408605 0.510765)
(0.0423602 0.0460586 0.329673)
(0.215295 0.00861382 0.339043)
(0.0304136 -0.0596039 0.377783)
(-0.0415992 -0.199578 0.159555)
(0.135555 -0.140147 0.236001)
(0.235356 0.104302 0.598127)
(-0.31594 -0.0875992 0.298684)
(-0.0176977 -0.0489493 1.20481)
(0.361313 0.0680133 1.10697)
(0.216249 0.00614953 0.780018)
(0.0478198 0.179491 0.560484)
(0.237156 0.163305 0.164611)
(-0.0130223 0.319528 0.562106)
(-0.155735 0.0768273 0.611829)
(-0.0399314 0.394976 1.04624)
(0.32296 0.184724 1.34919)
(0.191642 0.0997825 1.111)
(0.0987038 0.0341507 0.534506)
(0.22475 0.0619242 -0.0933455)
(0.000196441 0.139285 0.809005)
(0.0171328 0.31688 0.696857)
(0.108456 0.0950278 1.01821)
(0.0543023 0.104945 0.818077)
(0.0322019 -0.013432 0.361498)
(0.0364862 0.134554 0.504606)
(0.0734376 0.0467817 0.635238)
(0.0389011 0.0296754 0.461054)
(0.174749 0.00283977 0.376392)
(0.0246955 -0.0504185 0.464425)
(0.0270669 0.00534393 0.237224)
(0.0868033 -0.157286 0.326287)
(0.255992 0.0589331 0.73469)
(-0.246037 -0.0515239 0.371935)
(-0.0607906 -0.0664167 0.605321)
(0.439383 -0.148502 0.839283)
(0.240952 -0.051579 0.824804)
(0.0402616 0.169604 0.633218)
(-0.00979302 0.286899 0.756897)
(-0.26843 0.030364 0.634944)
(-0.185677 0.262895 0.710594)
(0.28875 0.223454 1.25078)
(0.173565 0.0987694 1.11086)
(0.16442 0.024561 0.524727)
(0.0156636 0.201316 1.05575)
(-0.0716645 0.227588 0.712651)
(0.0829968 0.127173 1.05636)
(0.0727584 0.128519 0.887215)
(0.0195604 -0.00906893 0.38138)
(-0.000239142 0.146486 0.640547)
(0.0637362 0.0611621 0.75372)
(0.0538774 0.0124574 0.595574)
(0.135349 -0.00724688 0.417445)
(0.0129178 -0.00714391 0.520072)
(-0.0158355 0.0616026 0.222087)
(0.0102262 -0.120777 0.415464)
(0.274037 0.0400449 0.863003)
(-0.185122 0.0105071 0.420446)
(-0.0479355 -0.0408746 0.386347)
(0.228779 -0.18985 0.636951)
(0.176409 -0.0470831 0.924571)
(0.0171356 0.165013 0.772744)
(-0.00716891 0.25608 0.94084)
(-0.313868 0.0524613 0.677921)
(-0.201226 0.0750047 0.518062)
(0.114946 0.135952 1.00772)
(0.179979 0.0658428 1.08978)
(0.140574 -0.0024117 0.646324)
(0.0459192 0.205692 1.27445)
(-0.0603798 0.118604 0.720906)
(0.0129866 0.168959 1.07991)
(0.0708018 0.137686 0.926081)
(-0.0177013 0.0465622 0.472991)
(-0.0243294 0.152528 0.750454)
(0.0334611 0.0800024 0.872759)
(0.0730897 0.000619635 0.742977)
(0.131053 -0.00275105 0.408385)
(-0.0302092 0.0465418 0.573519)
(-0.0108687 0.0109248 0.182581)
(0.0103978 -0.0267674 0.444257)
(0.284222 0.0317109 0.952587)
(-0.191472 0.0466519 0.43425)
(-0.0273686 -0.0523581 0.272277)
(0.0560986 -0.125701 0.534379)
(0.130321 -0.0322349 0.998225)
(-0.0160926 0.172393 0.931253)
(0.000835194 0.25767 1.10109)
(-0.338721 0.0442088 0.779973)
(-0.119045 -0.0338491 0.414605)
(-0.0283711 0.01894 0.759091)
(0.179736 -0.0216662 1.01751)
(0.0867645 -0.0280608 0.696848)
(0.0671017 0.119507 1.44278)
(-0.0133513 0.0328291 0.701728)
(-0.0279395 0.170686 1.08796)
(0.0579322 0.135642 0.937552)
(-0.0276624 0.0628264 0.603471)
(-0.0374297 0.145814 0.833149)
(0.00626991 0.0766905 0.976653)
(0.0870484 -0.00701062 0.882925)
(0.173728 0.0173347 0.426653)
(-0.0273447 0.096987 0.424733)
(0.0626274 -0.0721373 0.132593)
(0.119602 -0.0130142 0.386635)
(0.311225 0.10346 1.0164)
(-0.158369 0.117939 0.507949)
(0.0194468 -0.0558118 0.172023)
(0.00593047 -0.101254 0.491047)
(0.114798 -0.0437617 1.0374)
(0.000896418 0.188405 1.07425)
(0.00146492 0.283556 1.27182)
(-0.329803 -0.0663114 0.939825)
(-0.0118715 -0.0782776 0.327906)
(-0.00506839 -0.0416848 0.60919)
(0.139195 -0.0580752 0.950238)
(0.0572633 -0.00184301 0.75708)
(0.0791512 0.00200592 1.56457)
(-0.00128478 -0.0177807 0.627714)
(-0.0358552 0.142553 1.08032)
(0.0450635 0.127128 0.926173)
(-0.035009 0.0520239 0.687553)
(-0.0495733 0.129629 0.884917)
(0.00428428 0.0617399 1.06105)
(0.0933848 -0.0100097 0.989535)
(0.242962 0.022821 0.510569)
(0.0571419 -0.0624783 0.194943)
(0.170087 -0.127086 0.0495509)
(0.265397 -0.107886 0.346457)
(0.34176 0.178266 1.082)
(-0.128317 0.0917628 0.594358)
(0.0556884 -0.0440679 0.0660461)
(0.0103694 -0.121104 0.47226)
(0.101037 -0.0763664 1.08814)
(0.0265618 0.217238 1.21783)
(0.0247878 0.295683 1.42759)
(-0.332843 -0.177591 1.15061)
(0.039811 -0.0653236 0.212112)
(0.052622 -0.0800451 0.519176)
(0.0979222 -0.0531532 0.895615)
(0.0424367 0.051191 0.830063)
(0.0217025 -0.155362 1.58379)
(0.000292187 -0.0351431 0.517731)
(-0.036703 0.0714462 1.04754)
(0.0353311 0.101 0.917419)
(-0.0333336 0.0505497 0.734927)
(-0.0618542 0.113132 0.88913)
(0.0431093 0.0486883 1.11944)
(0.105527 -0.015976 1.07173)
(0.308705 0.0209611 0.648581)
(0.170254 -0.15744 0.0271332)
(0.292815 -0.177121 -0.023483)
(0.34741 -0.189232 0.373213)
(0.363128 0.242373 1.16918)
(-0.0820658 -0.0460688 0.616881)
(0.0822269 -0.050223 -0.043941)
(0.0130052 -0.194174 0.444175)
(0.0643997 -0.111418 1.15631)
(0.0467626 0.227173 1.33972)
(-0.00536755 0.349065 1.53485)
(-0.283045 -0.280594 1.42896)
(0.0518926 -0.032013 0.0940855)
(0.0992612 -0.115399 0.469154)
(0.0279768 -0.0520937 0.867592)
(0.0325865 0.0950927 0.903005)
(-0.126477 -0.301204 1.59)
(0.0435314 -0.0395485 0.406965)
(-0.0554891 -0.00592243 0.986465)
(0.036637 0.0663357 0.930625)
(-0.0199877 0.049828 0.787751)
(-0.0279064 0.0800463 0.855659)
(0.088839 0.0417182 1.14762)
(0.123178 -0.0245622 1.13597)
(0.32235 0.01208 0.895666)
(0.275874 -0.261518 -0.135679)
(0.366494 -0.221288 -0.0599648)
(0.305965 -0.289675 0.46158)
(0.389999 0.261693 1.23862)
(0.116323 -0.117381 0.457639)
(0.128424 -0.0667493 -0.118601)
(-0.00848081 -0.267267 0.42601)
(-0.00124512 -0.150811 1.21689)
(0.0565645 0.22273 1.43785)
(-0.0201735 0.330656 1.79578)
(-0.266384 -0.287327 1.62351)
(0.0603146 0.00402934 0.0286728)
(0.148124 -0.160934 0.453003)
(-0.0551244 -0.0701261 0.86349)
(0.0261363 0.127454 0.965259)
(-0.21262 -0.385362 1.68666)
(0.110374 -0.011633 0.30989)
(-0.00718302 -0.0877345 0.918722)
(0.0306812 0.0189997 0.942654)
(0.00617877 0.0178375 0.870069)
(0.00205564 0.0857302 0.80418)
(0.138544 0.0377782 1.17017)
(0.139218 -0.0330169 1.18538)
(0.284656 0.0150593 1.1063)
(0.330227 -0.311258 -0.218031)
(0.322065 -0.224234 0.00248036)
(0.133641 -0.390106 0.618272)
(0.379592 0.269751 1.33466)
(0.312606 -0.234952 0.229097)
(0.191567 -0.0707842 -0.135359)
(-0.0388645 -0.311371 0.419874)
(-0.0732774 -0.179914 1.24771)
(0.0533806 0.169769 1.47809)
(-0.0263247 0.34234 1.79693)
(-0.238572 -0.282265 1.60667)
(0.103849 0.0543398 0.0105051)
(0.202649 -0.201491 0.473696)
(-0.102119 -0.116021 0.883137)
(0.0202047 0.139763 1.00151)
(-0.0730332 -0.336903 1.7457)
(0.196091 0.037054 0.258102)
(0.147184 -0.162608 0.853279)
(0.0536627 -0.0512798 0.943908)
(0.0382885 -0.0499255 0.960378)
(0.0641302 0.108987 0.768982)
(0.182884 0.0445599 1.19148)
(0.144092 -0.0342468 1.22518)
(0.245736 0.00453017 1.2506)
(0.268556 -0.261984 -0.175157)
(0.079154 -0.183773 0.242712)
(-0.0512318 -0.413023 0.742917)
(0.33573 0.267366 1.40762)
(0.48056 -0.328365 0.000364424)
(0.202246 -0.0404606 -0.0859841)
(-0.0662416 -0.307804 0.440905)
(-0.133184 -0.173735 1.25817)
(0.0685985 0.135799 1.47167)
(-0.0441957 0.315904 1.50105)
(0.110594 -0.507594 1.29923)
(0.162226 0.117514 0.0438531)
(0.226732 -0.225234 0.528404)
(-0.115865 -0.168699 0.936509)
(0.00712116 0.137219 1.02723)
(0.446787 0.14788 1.29493)
(0.262198 0.0785958 0.272616)
(0.286532 -0.174297 0.760633)
(0.15085 -0.111632 0.945417)
(0.0760472 -0.130757 1.04942)
(0.116403 0.101509 0.794608)
(0.203719 0.0552426 1.21105)
(0.143208 -0.0318492 1.27082)
(0.172835 -0.0127203 1.37789)
(0.0350747 -0.0426791 0.0122919)
(-0.170693 -0.0554817 0.427906)
(-0.129977 -0.377494 0.807125)
(0.302098 0.249971 1.48228)
(0.35609 -0.278201 -0.0525098)
(0.119447 0.0396877 -0.000806652)
(-0.122359 -0.243881 0.492477)
(-0.160416 -0.137554 1.25123)
(0.0884825 0.120875 1.41713)
(0.0144644 -0.185913 1.35585)
(0.458754 -0.300234 0.934076)
(0.130256 0.176721 0.113087)
(0.184231 -0.22857 0.600596)
(-0.125659 -0.199779 1.00817)
(-0.00312868 0.112471 1.06153)
(0.45441 0.35696 0.62231)
(0.252346 0.122755 0.299841)
(0.325518 -0.123014 0.680576)
(0.225456 -0.121987 0.953032)
(0.102117 -0.196943 1.12194)
(0.123786 0.0692787 0.838792)
(0.21649 0.031428 1.23005)
(0.147479 -0.0291551 1.33048)
(0.169044 -0.0265504 1.37168)
(-0.111332 0.100656 0.183191)
(-0.220644 0.103961 0.486231)
(-0.191478 -0.23372 0.909038)
(0.139796 0.102268 1.51633)
(0.122146 -0.0620238 0.0365124)
(0.00424123 0.14289 0.0909786)
(-0.180717 -0.114337 0.530617)
(-0.151268 -0.113229 1.22133)
(0.0870147 0.121169 1.35641)
(0.00243285 -0.136347 1.35387)
(0.523454 -0.0051994 0.448002)
(0.0225887 0.22759 0.191243)
(0.0709371 -0.182903 0.650057)
(-0.118318 -0.206451 1.05117)
(-0.0251617 0.104691 1.0786)
(0.191236 0.272809 0.535787)
(0.173479 0.193181 0.326202)
(0.313234 -0.0641916 0.649564)
(0.224 -0.109929 0.966026)
(0.106471 -0.210738 1.19611)
(0.113544 0.0544285 0.846431)
(0.243634 -0.0150429 1.23645)
(0.168145 -0.0470011 1.38841)
(0.0829663 0.0297504 0.995561)
(-0.176059 0.170867 0.246073)
(-0.174263 0.122596 0.504972)
(-0.0673485 -0.0115712 1.06682)
(-0.0845205 -0.127527 1.66308)
(-0.0177185 0.112288 0.100813)
(-0.0519633 0.206429 0.157342)
(-0.184488 0.0550703 0.520415)
(-0.134217 -0.121525 1.12941)
(0.0378317 0.0999182 1.30716)
(0.0913617 -0.0715268 0.676726)
(0.293883 0.0618909 0.278665)
(-0.072416 0.274353 0.26734)
(-0.0496242 -0.0556083 0.666233)
(-0.105866 -0.206677 1.05239)
(-0.0685351 0.0616449 1.05931)
(0.04515 0.19671 0.552688)
(0.068609 0.256475 0.36762)
(0.274273 -0.0245943 0.653867)
(0.187579 -0.0991952 0.990399)
(0.101894 -0.200415 1.2451)
(0.0911532 0.0414284 0.818502)
(0.284422 -0.0672221 1.21291)
(0.20361 -0.0775083 1.44192)
(-0.190905 -0.00239582 0.30603)
(-0.222108 0.211415 0.232791)
(-0.165516 0.141576 0.442086)
(-0.0820058 -0.112491 1.28527)
(-0.25032 -0.191487 1.89055)
(-0.0576869 0.223815 0.142287)
(-0.0422953 0.21224 0.208629)
(-0.151623 0.208849 0.494497)
(-0.129902 -0.123127 1.04513)
(0.0377223 0.00065849 1.26074)
(0.0250712 0.0762405 0.276123)
(0.151212 0.123556 0.194242)
(-0.117696 0.305564 0.33387)
(-0.114518 0.111773 0.687758)
(-0.0978609 -0.200094 1.02032)
(-0.0854641 -0.0647237 1.06399)
(-0.0323425 0.148424 0.599992)
(-0.0156407 0.291433 0.421646)
(0.171062 0.016767 0.695813)
(0.129659 -0.0879549 1.02783)
(0.0957235 -0.16701 1.24882)
(0.0763981 0.0844768 0.779547)
(0.308061 -0.077115 1.15993)
(0.25131 -0.119669 1.47946)
(-0.199506 -0.0181002 0.222565)
(-0.185669 0.193623 0.242541)
(-0.183845 0.256674 0.31849)
(-0.155467 -0.131866 1.15572)
(-0.248732 -0.196711 2.0379)
(-0.0225423 0.270583 0.137934)
(0.0270726 0.178112 0.258915)
(-0.10629 0.297101 0.499153)
(-0.109903 -0.0798944 1.02739)
(0.0565995 -0.0147669 1.19783)
(0.00704592 0.109326 0.223309)
(0.0975619 0.163989 0.16525)
(-0.119457 0.306139 0.377879)
(-0.151115 0.250135 0.728757)
(-0.118621 -0.133951 0.967976)
(-0.0777794 -0.116102 1.09407)
(-0.0691732 0.112975 0.68821)
(-0.0668986 0.276852 0.508387)
(0.0276459 0.0948994 0.768319)
(0.0759522 -0.0587096 1.06699)
(0.0993018 -0.149047 1.23529)
(0.0732914 0.114811 0.809687)
(0.287076 -0.0355941 1.07842)
(0.30042 -0.156423 1.48587)
(-0.0405652 0.0145351 0.213495)
(-0.123958 0.140166 0.168674)
(-0.101037 0.245945 0.282243)
(-0.247153 0.160417 0.725471)
(-0.279814 -0.110756 2.08983)
(-0.0396104 0.246275 0.105565)
(0.0842769 0.147686 0.300129)
(-0.0764962 0.304109 0.539415)
(-0.03544 0.0864121 1.01766)
(0.0867033 0.0234613 1.20404)
(0.00394397 0.111763 0.2124)
(0.0661195 0.151056 0.178771)
(-0.0892347 0.268255 0.422893)
(-0.181546 0.324546 0.773317)
(-0.159603 -0.010098 0.955031)
(-0.0401934 -0.0108301 1.14519)
(-0.0794856 0.0410675 0.818017)
(-0.115506 0.235356 0.616067)
(-0.105774 0.167718 0.859589)
(-0.000563354 -0.0431279 1.11224)
(0.114161 -0.174869 1.2413)
(0.0642645 0.0956364 0.86148)
(0.221702 0.011665 1.03542)
(0.346358 -0.18682 1.47971)
(-0.0891411 0.00208297 0.183945)
(-0.127937 0.13769 0.0937203)
(-0.0855392 0.20569 0.176953)
(-0.204547 0.177172 0.482278)
(-0.109555 -0.0334523 1.99721)
(-0.0379492 0.207889 0.0865511)
(0.113527 0.115737 0.334382)
(-0.0651469 0.198473 0.605165)
(0.0126343 0.251036 1.04671)
(0.0438035 0.235567 1.04951)
(0.000359524 0.0722849 0.20645)
(0.0448209 0.0979455 0.223689)
(-0.0365531 0.197146 0.475906)
(-0.19685 0.337979 0.812187)
(-0.196885 0.0870878 1.0103)
(0.0043778 0.129093 1.26834)
(-0.0839728 -0.0595543 0.943115)
(-0.170022 0.206428 0.727681)
(-0.228213 0.216957 0.954532)
(-0.117598 -0.0689671 1.13674)
(0.0358105 -0.255338 1.18986)
(0.0471132 0.0599421 0.892738)
(0.151543 0.0320238 1.02747)
(0.372726 -0.200508 1.45086)
(-0.179821 -0.0216184 0.145803)
(-0.110428 0.120779 0.0377105)
(-0.111469 0.141983 0.0960083)
(-0.128966 0.0534967 0.447115)
(0.140986 0.308229 1.35817)
(-0.017209 0.16863 0.091305)
(0.126542 0.0899321 0.359251)
(-0.0519595 0.0816501 0.620387)
(-0.0216773 0.274737 1.09834)
(-0.0242745 0.135795 0.9516)
(-0.00474252 0.0290005 0.209479)
(0.0366241 0.0504216 0.274661)
(0.0181579 0.116386 0.539659)
(-0.195337 0.334509 0.825043)
(-0.206298 0.153313 1.08082)
(-0.0126208 0.0940454 1.28856)
(-0.0692249 -0.10679 0.993526)
(-0.214477 0.197505 0.848754)
(-0.30091 0.247138 1.02584)
(-0.228861 -0.0471465 1.18323)
(-0.0934999 0.0561127 0.997599)
(0.00948248 0.0307503 0.928095)
(0.077505 0.0491353 1.0408)
(0.349644 -0.168679 1.41704)
(-0.24215 -0.0358431 0.142009)
(-0.0465559 0.0676059 0.0380503)
(-0.159918 0.117013 0.0774559)
(-0.15371 -0.0198146 0.466906)
(-0.0645037 0.163948 0.884739)
(0.00554948 0.127755 0.099719)
(0.125732 0.0726477 0.375892)
(-0.0433363 0.0337228 0.592202)
(-0.117313 0.220709 1.13412)
(-0.107097 -0.0968659 0.880778)
(-0.00796815 0.00260637 0.222038)
(0.0433652 0.0305789 0.301623)
(0.064777 0.0404612 0.605843)
(-0.180199 0.323678 0.813812)
(-0.172319 0.192126 1.13731)
(-0.0894906 0.14485 1.0583)
(-0.0578167 -0.0997409 1.00345)
(-0.237407 0.188192 0.955309)
(-0.326332 0.257943 1.09654)
(-0.269569 0.0105255 1.24237)
(-0.0729432 0.16447 0.966718)
(-0.00758163 -0.000871216 0.967843)
(0.0261548 0.0682749 1.08705)
(0.276731 -0.115401 1.38965)
(-0.269645 -0.039141 0.135006)
(-0.00217067 0.0337701 0.0463607)
(-0.194271 0.107579 0.116711)
(-0.199193 -0.0125072 0.481921)
(-0.132875 0.00338127 0.658662)
(0.0131635 0.102271 0.101699)
(0.116002 0.0630297 0.397066)
(-0.0290179 0.0213038 0.565905)
(-0.139073 0.162899 1.10576)
(-0.0571874 -0.12258 0.781148)
(-0.00791841 -0.00250756 0.233628)
(0.0577771 0.0148893 0.322125)
(0.0918547 -0.016249 0.663914)
(-0.146049 0.255372 0.788485)
(-0.105764 0.203864 1.15294)
(-0.0629424 0.146812 0.857022)
(-0.0557083 -0.0945411 1.01649)
(-0.262531 0.167926 1.04266)
(-0.334309 0.247764 1.15113)
(-0.25443 0.0955656 1.26718)
(-0.00650038 0.117831 1.00652)
(-0.0280797 -0.00432604 1.00674)
(-0.0160814 0.077618 1.15666)
(0.193705 -0.0719727 1.39487)
(-0.254538 -0.0350213 0.128685)
(0.00722659 0.0242501 0.0554887)
(-0.215823 0.0947063 0.192076)
(-0.235039 0.023429 0.483793)
(-0.149027 -0.0665468 0.554172)
(0.0150214 0.0895172 0.106969)
(0.113619 0.051966 0.427863)
(-0.00346794 0.0323222 0.551836)
(-0.088603 0.0808363 1.00251)
(0.0153225 -0.0832929 0.695581)
(-0.00807156 -0.00236682 0.232373)
(0.0672232 -0.00689486 0.35067)
(0.0902576 -0.0551966 0.715813)
(-0.11681 0.163456 0.761049)
(-0.06974 0.176232 1.11507)
(-0.0151894 0.0818542 0.799677)
(-0.0680136 -0.107746 1.02387)
(-0.29231 0.138888 1.09566)
(-0.339848 0.226247 1.16633)
(-0.213041 0.170389 1.27499)
(0.0614065 0.116298 1.08125)
(-0.0724543 0.0199745 1.07282)
(-0.042803 0.0696124 1.22665)
(0.105104 -0.0249124 1.42228)
(-0.181576 -0.0227349 0.151373)
(0.015571 0.0173177 0.0765644)
(-0.223381 0.0819736 0.268561)
(-0.247785 0.0511839 0.470196)
(-0.167289 -0.07653 0.49997)
(0.0181182 0.0774638 0.12167)
(0.122604 0.0276253 0.460426)
(0.0291479 0.0382227 0.54843)
(-0.0533856 0.0182759 0.898887)
(0.00544134 -0.0840786 0.598109)
(-0.00978048 -0.0314871 0.22167)
(0.0494811 -0.043954 0.394299)
(0.0712895 -0.0842423 0.760072)
(-0.0975061 0.104249 0.741191)
(-0.0656882 0.12688 1.02483)
(-0.00947895 0.0284352 0.808013)
(-0.0867576 -0.149457 1.0401)
(-0.310643 0.116626 1.12436)
(-0.34288 0.199529 1.15456)
(-0.165879 0.220446 1.20376)
(0.0772572 0.001072 1.20283)
(-0.0939295 0.0128701 1.16429)
(-0.0491122 0.0560168 1.28035)
(0.0326504 -0.0088448 1.47683)
(-0.0742205 -0.00976863 0.177243)
(0.0185943 0.0103095 0.120082)
(-0.245097 0.0558314 0.321288)
(-0.259701 0.0571814 0.431828)
(-0.124843 -0.0247047 0.498843)
(0.0257399 0.0569882 0.145608)
(0.131588 -0.00772534 0.490832)
(0.050522 0.0331714 0.564536)
(-0.0682754 -0.0333879 0.826857)
(-0.026341 -0.0915575 0.510629)
(-0.0161656 -0.0841805 0.230731)
(0.0148913 -0.094547 0.43817)
(0.0467592 -0.10878 0.794299)
(-0.0763658 0.0790812 0.724175)
(-0.0797747 0.131165 0.95991)
(-0.0109081 0.0191766 0.833652)
(-0.0972419 -0.182463 1.053)
(-0.306069 0.092051 1.1594)
(-0.344123 0.174887 1.15408)
(-0.244479 0.156448 1.08037)
(0.0352752 -0.0840737 1.09652)
(-0.0500954 -0.0434872 1.23838)
(-0.0647911 0.0441006 1.31415)
(-0.0606733 0.0134261 1.55731)
(0.0258342 -0.00854598 0.177245)
(0.0281117 -0.00709012 0.171958)
(-0.22551 0.0167666 0.369604)
(-0.292378 -0.00106417 0.386402)
(-0.0830666 -0.0381236 0.425596)
(0.0395123 0.0277945 0.181732)
(0.135033 -0.043442 0.518825)
(0.0513746 0.043832 0.594948)
(-0.109557 -0.0357297 0.775232)
(-0.0545875 -0.0621203 0.430547)
(-0.0229354 -0.132195 0.266208)
(-0.0108287 -0.140936 0.46364)
(0.0343722 -0.131012 0.816885)
(-0.0533368 0.0793203 0.715816)
(-0.096732 0.165623 0.920054)
(-0.0237289 0.0419706 0.810891)
(-0.0663813 -0.197001 1.03942)
(-0.283004 0.0710245 1.20435)
(-0.331343 0.141928 1.17534)
(-0.237339 0.0371273 0.97115)
(-0.0220931 0.0291887 0.879433)
(0.0471143 -0.0854186 1.23119)
(-0.0570589 0.0497126 1.34216)
(-0.0963838 0.00464224 1.62208)
(0.114182 -0.00221806 0.170661)
(0.0379262 -0.0268611 0.214824)
(-0.140617 -0.0189292 0.436952)
(-0.246973 -0.0201822 0.398336)
(-0.0960267 -0.0353104 0.288026)
(0.0623843 -0.00297429 0.226519)
(0.139154 -0.0824047 0.545946)
(0.0405137 0.0729199 0.642482)
(-0.141445 -0.00241411 0.735813)
(0.00425055 0.121174 0.407913)
(-0.0253115 -0.167333 0.305102)
(-0.0240202 -0.163311 0.464445)
(0.0423668 -0.148604 0.828712)
(-0.0318271 0.0877921 0.731384)
(-0.11711 0.183885 0.884561)
(-0.0364562 0.0250418 0.705294)
(-0.0426155 -0.178152 0.965323)
(-0.237985 0.0663485 1.2474)
(-0.28838 0.126589 1.18859)
(-0.133268 0.0548635 0.918478)
(-0.0167593 0.0690224 0.794623)
(0.103285 -0.0584362 1.17591)
(-0.046066 0.0589639 1.41082)
(-0.163672 0.043023 1.66087)
(0.176453 0.00772863 0.163683)
(0.041685 -0.0297149 0.2523)
(-0.0761833 -0.0533032 0.504494)
(-0.17314 -0.030815 0.449558)
(-0.0104998 0.0552546 0.243921)
(0.0899987 -0.0239328 0.275595)
(0.143084 -0.135615 0.572128)
(0.0304234 0.0760478 0.681314)
(-0.148916 0.00698201 0.698296)
(0.0607376 0.18493 0.390939)
(-0.0275216 -0.198041 0.333097)
(-0.0241791 -0.18067 0.453977)
(0.0698936 -0.171983 0.820861)
(-0.00662586 0.093533 0.765008)
(-0.129174 0.169049 0.829422)
(-0.0312203 0.00922637 0.630195)
(-0.0808757 -0.168597 0.833258)
(-0.158227 0.0574674 1.28516)
(-0.222067 0.151628 1.20511)
(-0.0642806 0.139766 0.920621)
(-0.0124906 0.0648331 0.765026)
(0.061842 -0.0112768 1.17668)
(-0.087695 0.0474081 1.52044)
(-0.225212 0.0958934 1.67954)
(0.197116 0.011802 0.160032)
(0.0377751 -0.00998813 0.271737)
(-0.0435254 -0.0872977 0.568808)
(-0.0816973 -0.0630823 0.514511)
(0.0515748 0.104103 0.206556)
(0.111629 -0.0277431 0.332837)
(0.133597 -0.198266 0.599169)
(0.0136223 0.0362483 0.721975)
(-0.143232 -0.023959 0.667115)
(0.0910198 0.15291 0.387751)
(-0.0267222 -0.222741 0.35786)
(0.000201665 -0.199372 0.438717)
(0.110072 -0.226703 0.768494)
(0.0343106 0.0770496 0.800579)
(-0.114852 0.127612 0.765297)
(-0.0249028 0.00165086 0.584398)
(-0.119643 -0.149835 0.721824)
(-0.0631626 -0.00724428 1.29054)
(-0.112296 0.154392 1.24609)
(-0.057699 0.193397 0.917945)
(-0.0122942 0.0557356 0.723178)
(-0.0167591 -0.00685284 1.19023)
(-0.112185 0.0355815 1.63651)
(-0.240048 0.101643 1.69561)
(0.186643 0.0103451 0.163255)
(0.0139362 0.0175329 0.2771)
(-0.0351021 -0.103518 0.627133)
(0.0473873 -0.0873185 0.584128)
(0.0964616 0.101585 0.177338)
(0.112288 -0.00573321 0.399429)
(0.100704 -0.248456 0.639103)
(-0.0109491 -0.0440094 0.770415)
(-0.136352 -0.0726749 0.623426)
(0.107726 0.081556 0.40894)
(-0.0186534 -0.218589 0.366074)
(0.0406276 -0.201414 0.429692)
(0.117723 -0.275476 0.699322)
(0.072202 0.0173188 0.835268)
(-0.0806731 0.0591297 0.705406)
(-0.0136414 -0.026128 0.559755)
(-0.133158 -0.163869 0.652172)
(-0.0102139 -0.119977 1.19206)
(0.0429287 0.0634863 1.30098)
(-0.0542598 0.189795 0.91772)
(0.00369288 0.0273299 0.648347)
(-0.0708251 -0.0193667 1.16773)
(-0.0876906 0.01171 1.72337)
(-0.220849 0.114413 1.72091)
(0.164058 0.00670975 0.185607)
(-0.0204527 0.039485 0.285028)
(-0.0544761 -0.0938975 0.678022)
(0.100772 -0.106387 0.648829)
(0.125563 0.090206 0.173244)
(0.07945 0.0330637 0.469981)
(0.0578222 -0.274725 0.689847)
(-0.0258774 -0.129764 0.819711)
(-0.113977 -0.118246 0.597668)
(0.092129 0.00712423 0.442383)
(-0.0117858 -0.151553 0.363146)
(0.0755777 -0.177462 0.438291)
(0.0890258 -0.287995 0.670762)
(0.0671911 -0.0963144 0.874596)
(-0.0449741 -0.0386596 0.667616)
(0.00490634 -0.0718307 0.553352)
(-0.11599 -0.192857 0.605964)
(-0.0178473 -0.232414 0.977232)
(0.136005 -0.119508 1.31631)
(0.00572763 0.0534027 0.928455)
(0.0510079 -0.0527077 0.567087)
(-0.12948 -0.0363006 1.06792)
(0.0193866 -0.0299325 1.77174)
(-0.158503 0.0724179 1.84335)
(0.146499 0.00288047 0.238165)
(-0.048787 0.0474373 0.316864)
(-0.0978921 -0.0721198 0.710669)
(0.061108 -0.131777 0.71389)
(0.133853 0.084592 0.202572)
(0.0167901 0.0589528 0.543351)
(0.0193559 -0.276472 0.739747)
(-0.0558076 -0.197995 0.871311)
(-0.0487677 -0.14546 0.608356)
(0.058099 -0.0269636 0.473205)
(-0.011328 -0.0441845 0.36622)
(0.0940151 -0.143275 0.467411)
(0.0449022 -0.282831 0.68564)
(0.00909046 -0.217179 0.918254)
(-0.0277883 -0.120867 0.667516)
(0.0201435 -0.0840039 0.578764)
(-0.0882186 -0.176908 0.564528)
(-0.0579054 -0.267999 0.802939)
(0.089816 -0.31228 1.23447)
(0.0795049 -0.256151 0.894929)
(0.10695 -0.148655 0.5717)
(-0.200705 -0.0948144 0.874424)
(0.167556 0.00472919 1.71753)
(0.072693 -0.0686843 1.90395)
(0.141633 0.000920718 0.317244)
(-0.0530383 0.0362236 0.369525)
(-0.153011 -0.048788 0.717471)
(-0.0340748 -0.142513 0.754472)
(0.129782 0.0828749 0.267165)
(-0.0451323 0.0822023 0.608535)
(-0.0227267 -0.241892 0.802801)
(-0.109027 -0.21195 0.916979)
(0.0151576 -0.10809 0.617473)
(0.059002 -0.0474494 0.508322)
(-0.00837426 0.0370627 0.379723)
(0.0781774 -0.11061 0.510831)
(-0.0226622 -0.274992 0.734785)
(-0.0631963 -0.278289 0.964277)
(-0.0297623 -0.138163 0.690857)
(0.0226276 -0.0524557 0.632724)
(-0.0604293 -0.142528 0.518405)
(-0.0971178 -0.23422 0.714709)
(-0.0316407 -0.37064 1.06675)
(0.101056 -0.370622 0.873509)
(0.105233 -0.188779 0.63926)
(-0.189174 -0.13195 0.721357)
(0.0332017 -0.131399 1.44697)
(0.168807 -0.0803581 1.8095)
(0.15228 0.00280262 0.401283)
(-0.0366076 0.00732698 0.428099)
(-0.175949 -0.0408006 0.71092)
(-0.074343 -0.128469 0.703501)