/*--------------------------------*- C++ -*----------------------------------*\
| =========                 |                                                 |
| \\      /  F ield         | OpenFOAM: The Open Source CFD Toolbox           |
|  \\    /   O peration     | Version:  5.x                                   |
|   \\  /    A nd           | Web:      www.OpenFOAM.org                      |
|    \\/     M anipulation  |                                                 |
\*---------------------------------------------------------------------------*/
FoamFile
{
    version     2.0;
    format      ascii;
    class       volScalarField;
    location    "3.8";
    object      Ksl;
}
// * * * * * * * * * * * * * * * * * * * * * * * * * * * * * * * * * * * * * //

dimensions      [1 -3 -1 0 0 0 0];

internalField   nonuniform List<scalar> 
10571
(
2.83048
192.563
26.991
56.9478
262.849
10.3115
12.3703
55.4413
34.234
791.488
3309.78
29.2255
58.8992
312.521
47.6319
536.108
364.575
726.511
40.4358
1328.16
2127.49
3044.04
2735.54
236.921
787.622
2127.43
845.84
18.0243
3535.87
106.048
22.983
9.33802
1414.83
1868.59
3438.32
0.274449
154.441
72.0538
382.821
254.064
1011.39
449.295
958.489
1834.67
785.949
3956.98
2459.23
4610.23
4136.57
7954.15
1344.35
3656.16
1853.96
631.097
134.79
116.604
3082.51
957.978
671.483
48.5922
10.1622
48.9311
670.806
104.568
879.919
95.9336
381.241
1884.92
2199.82
7339.83
4276.37
10111.7
132.468
3310.14
1645.39
1794.64
131.812
812.779
568.617
1411.59
1510.97
1253.3
2405.43
121.607
64.047
495.647
1207.98
381.19
705.979
187.726
690.096
2248.89
5776.41
10204.9
9141.06
10029.3
86.4532
1117.38
74.5531
77.3563
41.0467
229.135
3327.2
3141.4
349.061
451.927
4438.56
123.126
4968.97
4229.52
3380.67
9015.37
636.44
4395.47
6494.34
4433.44
9050.79
10373.1
10512.4
10005.3
33.5929
137.11
40.6659
37.4006
18.9285
1242.76
202.346
180.911
20.3152
52.8787
17661.6
4152.52
84.9366
753.934
1254.44
445.976
349.417
10769.4
839.963
3989.26
8739.88
10493.5
10347
9405.69
10492.6
10697.7
71.8925
54.8673
47.9233
71.2918
41.7618
34.9222
73.5124
57.7861
34.7845
17.6234
2.86163
24.2006
1065.03
20.1159
30.8488
37.3888
7.12845
18.6584
581.699
75.0993
737.54
2070.53
991.085
52.7445
4.68761
3236.37
12457.8
26.3498
47.1039
9.51929
10.1606
58.5849
30.3594
3.76939
18.2162
26.3841
0
0
22.774
46.7285
2.89236
8.39631
19.1978
20.748
0
28.3458
4.08758
8.56364
3.18943
28.1733
3.57519
13.4507
16.914
29.7784
0
0
0
0
16.0566
1.8705
0.261206
5.6151
7.15776
16.296
0
64.2927
5.22765
3.36377
5.59589
8.53146
0
2.63011
0
5.50386
9.01164
4.29897
9.45578
12.5988
5.39586
-7.70693e-13
0
0
0
0
14.6324
0
0.453181
6.28533
7.0095
7.93745
0
4.37996
1.24759
6.47476
6.91593
8.57573
0
4.13084
6.33085
13.9771
11.1295
4.01501
2.72882
5.57394
25.4758
0
0
0
19.245
4.95785
1.3406
1.86236
1.94866
14.4084
21.8694
4.39065
1.23261
9.92009
3.77214
3.62602
12.2988
2.3894
3.02815
6.66979
6.74752
4.41047
2.84997
6.09836
0
0
0
0
19.8591
0
0
1.52963
2.371
7.42821
0
0
0.594557
5.29636
4.66225
0
0
1.07055
4.12311
6.67722
6.73447
2.7189
3.63022
6.13463
0
0
0
0
11.0089
0
0.620679
1.3289
4.83924
22.4138
20.5975
-3.40272e-14
2.56088
7.57028
5.56225
1.11312
8.55485
2.16716
4.08586
11.1117
6.71415
0
0
0
0
0
0
0
18.4002
0
0.624639
1.34636
1.53261
21.5168
0
0
1.16834
2.9137
3.41855
4.23299
2.53642
2.09972
2.73917
0
0
0
8.72047
12.6828
0
0
0
0
0
0
0.631895
0.63963
7.36818
24.2045
0
0
0.563985
2.68228
5.1442
3.05792
8.94194
1.17931
3.55791
0
0
0
0
0
0
0
0
0
0
0
0
0.660163
4.44707
0
0
4.84697
2.23516
2.28011
3.38458
0
9.09396
2.04924
2.08186
0
0
6.30171
4.44633
0
0
0
0
0
0
0
0
0
3.63967
21.276
0
0
1.71036
2.87517
4.44712
0
8.14242
0
1.74563
2.11722
0
0.256056
0
0
0
0
0
0
0
0
0
0.674337
2.18007
-6.21761e-14
0
0
1.52106
1.93116
2.72553
0
3.75289
1.33666
1.18156
1.78629
0
0
1.09978
-2.96118e-13
0
0
0
0
0
0
0
0
2.83271
20.8537
0
0
0.554988
1.55417
2.91655
0
0.765135
2.04346
2.09376
0
0
6.05947
6.73025
0
0
0
0
0
0
0
0.603317
0.676615
2.83861
4.78729
0
0
0
0.746612
0.563437
4.18764
0
0.562928
0.358483
4.43416
3.0669
9.27839
3.46768
0
0
0
0
0
0
0
0
0
1.58479
5.09885
0
0
0.565619
0
1.16995
6.93416
3.85714
2.55143
0.554354
2.77867
0
11.6709
3.27611
0
0
0
0
0
0
0
0
-2.6736e-15
0
4.12767
0
0
0
0
0.600658
0.153579
0
0
2.66642
0
0
0
0
0
0
0
0
0
0
0
0
0.66397
0.0624413
3.55522
0
0
0.568571
0.594409
1.13281
0
0
1.22054
-1.94985e-14
3.76353
0
0
0
0
0
0
0
0
0
0
0
0
0
0.766313
0
0
0
0
1.16642
0
0
3.02195
2.01979
0
0
4.50194
0
0
0
0
0
0
0
0
0
0
0.700056
5.51768
0
0
0
0
1.8031
0
0
0.504141
1.60264
0
0
0
10.5461
0
0
0
0
0
0
0
0
0
0
4.86687
0
0
0
0
0
0
0
0.483398
0.979746
0
0
0
8.20896
0
0
0
0
0
0
0
0
0
0.676658
7.48423
0
0
0
0
0
12.7262
0
0.388759
0.510338
0
0
4.38501
2.39249
0
0
0
0
0
0
0
0
0
0
0.636023
0
0
0
0
0
8.37039
0
0.0844408
0.549083
0
0
0
3.4445
0
0
0
0
0
0
0
0
0
0
4.96713
0
0
0
0
0.598536
1.58043
0
0.491559
0
-1.69572e-13
0
0
3.03886
0
0
0
0
0
0
0
0
0
0
0
0
0
0
0
1.68688
8.01217
0
0.481135
0
0
0
4.35277
0
0
0
0
0
0
0
0
0
0
0
0
0
0
0
0
1.67645
0.104794
0
0
0
0
0
-3.11967e-13
0
0
0
0
0
0
0
0
0
0
0
0
0
0
0
0
1.65051
11.4903
0
0
0.510013
0
0
0
0
8.63831
0
0
0
0
0
0
0
0
0
0
0
0
0
0
0.536322
3.98419
0
0
0
0
0
0
15.0751
0
0
0
0
0
0
0
0
0
0
0
0
0
0
0
0.521602
0.553688
0
0
0.471299
0
0
0
0
0
0
0
0
0
0
0
0
0
0
0
0
0
0
0
0
0
0
0
0
0
0
0
0
0
0
0
0
0
0
0
0
0
0
0
0
0
0
0
0
3.60725
0
0
0
3.8709
6.13349
0
0
0
0
0
0
0
0
0
0
0
0
0
0
0
0
0
0.465817
0
0
0
0.416359
-4.08977e-13
0
0
0
0
0
0
0
0
0
0
0
0
0
0
0
0
0
0
-2.26237e-14
0
0
0
0
3.62422
0
0
0
0
0
0
0
0
0
0
0
0
0
0
0
0
0
0
0.419858
0
0
0
0
0
0
0
0
0
0
0
0
0
0
0
0
0
0
0
0
0
0
0
0
0
0
0
0
0
0
0
0
0
0
0
0
0
0
0
0
0
0
0
0
0
0
0
0
0
0
0
0
0
0
0
0
0
0
0
0
0
0
0
0
0
0
0
0
0
0
0
0
0
0
0
0
0
0
0
0
0
0
0
0
0
0
0
0
0
0
0
0
0
0
0
0
0
0
0
0
0
0
0
0
0
0
0
0
0
0
0
0
0
0
0
0
0
0
0
0
0
0
0
0
0
0
0
0
0
0
0
0
0
0
0
0
0
0
0
0
0
0
0
0
0
0
0
0
0
0
0
0
0
0
0
0
0
0
0
0
0
0
0
0
0
0
0
0
0
0
0
0
0
0
0
0
0
0
0
0
0
0
0
0
0
0
0
0
0
0
0
0
0
0
0
0
0
0
0
0
0
0
0
0
0
0
0
0
0
0
0
0
0
0
0
0
0
0
0
0
0
0
0
0
0
0
0
0
0
0
0
0
0
0
0
0
0
0
0
0
0
0
0
0
0
0
0
0
0
0
0
0
0
0
0
0
0
0
0
0
0
0
0
0
0
0
0
0
0
0
0
0
0
0
0
0
0
0
0
0
0
0
0
0
0
0
0
0
0
0
0
0
0
0
0
0
0
0
0
0
0
0
0
0
0
0
0
0
0
0
0
0
0
0
0
0
0
0
0
0
0
0
0
0
0
0
0
0
0
0
0
0
0
0
0
0
0
0
0
0
0
0
0
0
0
0
0
0
0
0
0
0
0
0
0
0
0
0
0
0
0
0
0
0
0
0
0
0
0
0
0
0
0
0
0
0
0
0
0
0
0
0
0
0
0
0
0
0
0
0
0
0
0
0
0
0
0
0
0
0
0
0
0
0
0
0
0
0
0
0
0
0
0
0
0
0
0
0
0
0
0
0
0
0
0
0
0
0
0
0
0
0
0
0
0
0
0
0
0
0
0
0
0
0
0
0
0
0
0
0
0
0
0
0
0
0
0
0
0
0
0
0
0
0
0
0
0
0
0
0
0
0
0
0
0
0
0
0
0
0
0
0
0
0
0
0
0
0
0
0
0
0
0
0
0
0
0
0
0
0
0
0
0
0
0
0
0
0
0
0
0
0
0
0
0
0
0
0
0
0
0
0
0
0
0
0
0
0
0
0
0
0
0
0
0
0
0
0
0
0
0
0
0
0
0
0
0
0
0
0
0
0
0
0
0
0
0
0
0
0
0
0
0
0
0
0
0
0
0
0
0
0
0
0
0
0
0
0
0
0
0
0
0
0
0
0
0
0
0
0
0
0
0
0
0
0
0
0
0
0
0
0
0
0
0
0
0
0
0
0
0
0
0
0
0
0
0
0
0
0
0
0
0
0
0
0
0
0
0
0
0
0
0
0
0
0
0
0
0
0
0
0
0
0
0
0
0
0
0
0
0
0
0
0
0
0
0
0
0
0
0
0
0
0
0
0
0
0
0
0
0
0
0
0
0
0
0
0
0
0
0
0
0
0
0
0
0
0
0
0
0
0
0
0
0
0
0
0
0
0
0
0
0
0
0
0
0
0
0
0
0
0
0
0
0
0
0
0
0
0
0
0
0
0
0
0
0
0
0
0
0
0
0
0
0
0
0
0
0
0
0
0
0
0
0
0
0
0
0
0
0
0
0
0
0
0
0
0
0
0
0
0
0
0
0
0
0
0
0
0
0
0
0
0
0
0
0
0
0
0
0
0
0
0
0
0
0
0
0
0
0
0
0
0
0
0
0
0
0
0
0
0
0
0
0
0
0
0
0
0
0
0
0
0
0
0
0
0
0
0
0
0
0
0
0
0
0
0
0
0
0
0
0
0
0
0
0
0
0
0
0
0
0
0
0
0
0
0
0
0
0
0
0
0
0
0
0
0
0
0
0
0
0
0
0
0
0
0
0
0
0
0
0
0
0
0
0
0
0
0
0
0
489.105
234.799
285.331
155.186
392.66
295.964
344.944
494.659
964.793
518.452
160.855
148.071
30.7949
59.7956
20.1309
61.7322
14.9436
84.6348
41.4696
109.47
54.9612
223.086
1379.08
41.128
906.374
3539.23
780.218
2037.44
696.43
42.8311
68.5095
33.9778
57.558
35.8581
44.3682
187.822
598.841
130.547
17.2648
297.872
8.25373
68.7707
199.988
48.8299
73.2825
2411.74
1278.47
2885.06
2923.44
869.251
2097.48
136.345
917.422
982.969
3103.25
2726.08
4952.53
3710.4
3212.01
2900.39
268.752
2007.24
738.08
180.826
36.5358
902.274
35.4811
713.486
2618.16
1477.87
4507.26
4162.35
3119.42
5008.27
5082.94
1503.72
1131.93
1731.05
1790.97
30.553
337.266
942.561
1524.17
986.345
3757.05
7223.91
9452.23
5156.16
7341.77
2794.28
3858.7
4312.6
6121.33
2098.66
6477.01
2916.29
1064.5
3438.37
368.187
460.791
82.1784
4592.6
3706.25
1436.83
19.582
0
426.006
35.5519
0
101.041
1134.31
248.078
827.572
140.24
45.9374
12.9074
1333.07
856.052
226.054
62.9085
2417.61
73.3425
2325.27
1818.29
9554.11
540.559
5443.8
3705.59
7820.1
246.886
2014.82
153.007
611.871
4347.96
497.766
670.508
1493.26
1760.61
208.605
319.691
391.282
693.647
4779.49
774.897
748.909
1156.72
176.979
398.309
904.663
414.419
1613.24
2521.41
371.149
5226.92
4699.09
534.999
162.289
6845.24
2047.66
3215.25
6703.52
11752.5
1519.24
2204.35
7155.77
11555.3
774.622
9007.74
5745.74
1025.84
1613.11
2887.95
1523.71
2779.06
343.387
3921.39
2495.83
3014.37
2705
838.701
2649.17
3807.24
3949.03
2015.24
2008.3
2979.03
2039.28
2273.14
142.647
0.354134
5299.76
972.976
2188.92
4494.77
8049.15
2519.39
4425.15
827.077
719.994
343.52
4728.45
1379.88
1621.39
555.793
10996.3
1107.65
5554.71
4369.48
4946.04
1315.28
3379.12
4804.39
2761.62
1662.31
6732.34
1098.33
3089.61
5045.29
2151.52
292.906
294.374
1280.36
200.049
316.138
989.881
1259.73
1366.97
1012.24
2142.21
502.026
343.135
142.424
321.936
204.723
7332.07
9952.55
79.2211
6786.93
899.899
1131.53
39.6926
5816.9
677.575
2129.5
9298.5
11164.3
1564.01
2757.06
9689.39
10841.3
1026.7
6343.5
8804.57
2170.9
5841.57
5564.55
2849.13
8982
5235.39
4995.45
2850.32
6606.94
6699.28
9112.84
5030.56
1616.32
1312.17
3094.52
2919.13
398.135
1058.98
1568.84
5532.43
7380.21
518.086
1967.11
1435.28
4787.12
534.03
8200.07
9349.05
2471.52
2670.15
531.178
6260.17
2080.63
3117.26
516.4
437.832
2829.09
1319.02
421.56
17.7729
1815.53
396.168
1227.02
807.613
5127.6
1865.42
2481.79
6165.19
489.212
2017.1
208.173
158.193
1183.88
537.402
50.9377
1130.63
2221.92
1653.86
1192.49
1723.12
220.296
146.051
138.78
271.834
456.811
6286.39
4642.01
36.878
4579.94
711.679
774.519
13.7526
2790.26
760.711
4371.58
9019.98
11000.4
2301.88
6918.65
8611.02
9738.29
4905.55
12081.7
11700.1
4345.01
11391.7
11561.5
5656.08
12595.7
6647.85
9789.15
6014.74
7794.23
10104.4
10906.5
676.198
346.115
255.785
240.341
324.838
147.614
90.7201
73.4407
282.465
70.3204
134.842
67.6279
91.5072
23.8368
93.145
9036.83
7989.8
983.839
2663.94
736.85
1343.13
466.657
1162.84
485.376
57.4365
651.258
113.837
52.3351
26.6757
178.788
49.761
463.798
138.486
6373.16
2283.95
1898.64
5860.39
3471.63
2128.96
1623.34
109.179
890.167
1279.45
1521.22
1163.62
1855.87
3218.62
1016.04
2079.6
549.781
3228.61
4467.73
4476.11
7960.29
4970.95
4713.78
36.0268
2819.02
975.166
661.414
54.8587
3087.22
1481.64
8635.93
8243.71
9440.55
2718.67
9546.61
8611.73
9612.28
8042.21
14584.9
12075.2
7386.02
10880.3
9473.8
9334.27
11287.2
9057.47
10735.8
9983.48
9216.16
10698
9636.58
145.208
38.131
50.1197
69.3975
100.755
35.2158
62.6122
101.483
103.768
86.8766
44.5315
88.6684
74.817
33.271
51.9599
7426.78
5867.21
512.355
764.383
512.156
568.185
354.842
1288.75
594.439
13.7804
119.734
9.71241
22.2951
26.6066
28.6037
13.9258
4.59824
11.4761
4520.25
6118.61
2046.68
3826.4
7259.89
2315.42
2102.26
4427.61
128.131
760.329
1207.41
1093.3
2009.77
7617.18
1244.6
2061.62
6384.65
9449.44
4634.09
2353.03
9166.96
3450.52
3133.1
157.303
4625.51
2699.12
643.977
423.946
6550.3
6025.16
10077.5
9476.4
9308.37
8684.82
11486.3
9669.22
10152.7
10326.9
11628.1
12084.9
10786.7
11528.6
10346
10296.9
10822
9159.05
11237.7
10545.7
9756.58
10972
10234
37.6696
67.3655
0
39.6314
36.0467
80.7737
25.9212
19.1652
86.8132
102.459
132.357
129.923
89.2089
32.0363
35.3147
1460.91
135.45
132.828
963.326
700.618
66.0589
70.8752
121.713
192.402
11.2149
16.0737
7.28565
42.1753
28.2244
18.3397
7.39129
5.08001
0
4100.02
5690.22
3808.62
829.904
317.298
1667.38
1497.63
105.582
3215.8
7.35073
54.4953
19.8555
72.4774
27488.1
10003
14613.7
825.616
7615.26
2112.89
9830.58
2463.44
1578.41
249.802
1734.45
1894.93
3855.97
2664.3
2257.99
51.1587
126.233
519.448
122.473
19735.4
12339.5
14480.5
3994.25
58946
2731.78
40995.4
3718.18
3459.65
1170.32
7527.02
7922.11
3583.04
2554.39
3551.98
1353.89
10182.4
10167.4
10233.4
6947.48
7993.35
10234.4
11068.3
9600.66
7567.18
283.666
10366.9
10737
1011
5985.52
7479.59
10039.5
11592.9
10569.1
10342.2
11930.6
11208.9
33.2224
0
17.3877
6.5503
21.3822
26.1229
3.17037
35.7345
46.535
103.544
8.75989
11.4019
46.266
34.6783
150.169
41.9899
23.6646
63.0165
56.26
28.5137
24.8896
59.9586
63.7031
53.0941
39.3002
32.5324
21.3745
43.9575
60.2919
58.1835
15.0937
0
23.1887
-8.4783e-15
-4.33338e-13
7.16366
0
0
0
15.2343
21.6552
36.4393
14.2102
21.0469
8.02016
0
6.2267
16.5015
0
3.35636
11.5857
5.99585
30.6772
8.43197
28.0823
3.23528
0
4.60103
2.62932
70.4635
180.975
1.46321
15.2229
22.8514
23.6532
144.658
60.4674
8.86955
9.11855
29.3251
14.662
170.535
46.9274
416.175
2.38539
3.62212
6.61499
11.6777
82.9651
13.3005
321.694
86.1583
70.4136
38.5029
18.4799
4.13938
12.1011
2268.64
10601.4
12449.8
86.7407
136.022
1463.56
1711.2
56.9547
100.727
31.5362
74.9656
14.133
5.07459
0
0
124.552
142.15
11.962
5.62955
21.7205
10279.2
2035.9
57.1834
1650.87
47.1456
3942.26
0
0
0
9.57791
7.13732
0
0
-1.62533e-13
8.77756
21.7383
0
13.6746
13.6053
0.561607
16.7542
38.9822
12.4246
26.2859
28.7472
34.8053
12.2639
5.23913
5.46329
-1.64377e-13
16.8882
21.8908
11.5055
17.4766
10.7621
19.0147
21.8515
21.6319
0
22.9033
12.605
0
0
0
0
23.4069
0
14.5322
10.5133
0
15.7153
3.70082
0
3.31524
5.92427
0.196754
9.61103
6.51879
0
4.58413
2.55951
0
2.39119
2.42313
0
35.5447
31.7311
20.1504
26.5615
30.6817
4.73627
24.1625
18.0935
9.20924
0.266171
19.2222
0.451973
2.79789
2.00715
4.60219
2.27582
2.00256
0
1.35188
13.0354
0
16.9152
7.77307
16.2132
5.3904
2.19965
7.86412
3.92977
32.5991
21.4798
34.141
21.6286
21.249
14.9155
37.0075
8.61062
9.56343
11.6298
5.63962
0
0
6.80463
-1.29011e-13
14.1697
3.72263
2.35999
3.88216
0
29.7527
3.7736
7.499
13.177
0
34.8124
0
0
0
0
0
0
0
0
0
11.2924
0
6.79265
8.45106
16.5043
0
4.651
0
0
3.30725
12.9537
12.7072
0
10.3576
0
27.316
13.3722
7.02021
34.2819
13.4082
0
14.3641
10.5792
0.222215
24.3661
0
36.4321
23.8279
23.2454
5.17313
5.99587
13.7885
7.92277
24.4403
0
0
0
0
0
0
0
0
0
0
23.8298
9.53446
22.3896
13.8416
18.4451
2.05234
10.0575
6.49594
5.70687
5.49194
0
0
0
0
0
0
0
0
0
0
13.9682
6.91995
7.65783
4.45106
0
9.31476
0
5.42693
12.9668
9.80209
15.6094
10.2272
6.85675
10.4908
5.87529
0
0
0
11.5999
0
5.54909
4.86546
0
4.32509
0
9.91965
4.67945
0
0
0
0
0
0
0
0
0
0
0
19.5928
26.8121
6.88949
22.185
32.3666
32.1585
0
0
0
0
0
0
0
5.55537
0
13.7286
0
14.1358
35.8398
0.450022
0
7.0889
0
0
0
0
22.0377
0
0
10.5039
14.6655
9.28618
14.9314
0
26.7102
5.77345
14.3613
22.1795
-2.08087e-14
13.8625
0.101159
4.35447
7.78016
0.907578
0.143573
0
13.8279
23.074
6.99509
7.82254
3.47367
2.22664
3.97427
4.60812
6.03977
10.2734
5.06433
12.7995
15.8453
11.6844
0
6.84388
0
2.09934
3.57938
19.6556
7.07085
2.45015
19.2038
3.14924
17.6278
11.1609
4.81328
-4.75687e-14
5.67922
0
0
0
0
0
0
0
0
0.276436
16.6776
0
0
25.1651
53.0591
132.04
0
0
0
0
0
0
0
0
0
38.066
22.0134
11.0826
25.944
-3.05594e-13
0
25.3985
33.0259
0
0
0
0
0
0
0
9.59854
8.7763
18.2604
0
13.2091
8.6858
10.8771
0
-1.20092e-13
-3.84842e-13
14.1132
3.46542
0
15.127
0
2.24454
27.4747
4.50149
-2.88553e-13
4.73935
6.07938
2.15434
0
0
6.28928
3.71758
12.2812
4.48851
2.9584
8.20147
4.67183
0
0
0
9.43068
0
4.47667
6.38525
0
3.14455
0
0
0
0
0
0
0
0
0
0
0
0
0
0
8.22823
0
0
0.28658
29.5351
44.7034
0
0
0
0
0
0
0
0
0
40.566
20.7496
13.6607
20.5978
15.7272
0
2.44144
49.3334
42.6922
0
0
0
0
0
0
13.8328
0
0
9.17936
14.2132
1.10548
0.262162
0
24.6396
9.25586
-2.54995e-13
4.40088
0
0
0
13.2155
12.9367
0
0
11.7973
8.52523
0
0
0
5.89271
5.90167
-2.67204e-14
14.3752
3.57792
0.375828
2.94453
0
5.43517
0
1.74647
0
0
0
0
6.94994
0
4.70193
4.28659
5.06315
6.3429
0
0
0
0
0
0
0
0
0
0
8.60895
4.23462
0
29.6486
34.4299
0
0
0
0
0
0
0
0
0
23.3637
1.2343
20.4175
7.98484
58.6187
0
16.8955
0
3.13002
0
0
0
7.00008
0
-3.96288e-14
4.65784
0
0
4.48672
13.8688
6.06069
11.19
0
3.88812
6.61537
0
8.54079
7.43353
0
13.3195
8.08781
16.4293
-1.81991e-14
5.03166
1.24443
15.2441
0
15.468
1.31105
12.2056
3.89237
0
5.03347
6.04508
8.08557
0
6.78663
0
5.32817
3.4153
0
0
0
11.3745
0
0
10.5643
3.55423
0.957674
19.5885
0
0
0
0
0
0
0
0
0
0
0
0
0
16.0471
0
0
0
0
0
0
0
0
0
0
50.0227
7.2138
19.397
0.188255
53.8867
0
15.4396
37.9195
20.2355
0
0
0
0
0
0
9.24516
0
12.6133
9.12887
0
0
10.5989
19.7387
4.79557
12.5011
0.408609
0
0
0
0
3.95308
31.4736
3.79747
0
0
5.49789
0
0
4.27072
0
5.99502
0
4.02447
0
0
0
0
17.2684
0
0
0
17.883
0
11.9302
7.38561
0
0
3.77738
0
0.560245
0
0
0
0
0
0
0
0
0
0
0
0
0
0
0
0
0
0
0
0
0
0
0
0
54.3817
0
16.1652
6.41418
12.4375
0
8.13156
9.92479
28.9996
0
0
0
0
0
5.6693
0
0
0
4.78168
0
0
6.10569
0
0
0
0
0
0
0
4.57616
10.6822
10.8668
0
5.29193
11.7927
10.8609
0
1.54981
7.75308
3.17471
6.19503
0
0
4.00172
9.50457
8.80456
6.0775
0
0.388074
3.41738
-4.52791e-13
2.88878
3.46386
0
0
0
3.28211
0
9.02634
0
0
0
0
0
0
0
0
0
0
0
0
6.534
0
0
0
0
0
0
0
0
0
0
0
0
0
0
12.7761
6.22652
20.9323
0
3.89234
5.44281
13.9224
0
0
5.56911
0
0
0
0
0
7.27841
0
0
0
0.193041
0
0
5.68976
0
4.80298
3.33821
0
0
22.3473
15.1692
0
13.9682
0
15.1422
8.96955
0
0
0
0
0.145819
5.11682
2.20787
0
0
0
0
15.4412
3.69672
0
0
3.6629
2.62595
0
2.30614
2.17857
0
0
0
0
0
0
0
0
0
0
0
0
0
0
0
0
0
0
0
0
0
0
0
0
0
0
0
33.3302
0
0
6.18475
16.6918
0
5.97636
0
13.4385
0
0
0
0
0
0
17.8366
-1.6992e-12
0
1.64138
15.0799
0.147938
5.11434
0
0
0.200151
0
0
3.85045
0
8.79914
31.7021
8.08267
13.1841
6.74323
0.344116
0.430992
8.88083
5.74442
0.172517
3.28893
1.80101
0
4.11219
0
0
5.71152
0
7.4347
0
0
9.94471
0
7.1795
0
0
0
2.06423
4.00086
0
0
0
0
0
0
0
0
0
0
0
0
0
0
0
0
0
0
0
0
0
0
0
0
0
0
0
6.77994
1.41708
0
10.4817
1.13804
31.7944
47.6315
43.8491
0
0
0
0
0
0
9.50059
0
6.82022
9.12786
-3.41347e-12
0
5.1571
0
0
0
0
0
0
0
0
0
2.30028
4.47288
0
10.043
5.47679
4.49119
0
7.58405
0
3.29251
0
0
0
0
0
0
3.82524
7.58259
0
0
0
0
12.8811
0
0
3.42061
0
0
6.99616
0
0
0
0
0
0
0
0
0
0
0
0
0
0
0
0
0
0
0
0
0
0
0
0
28.1183
0
5.49967
0
18.6236
0
5.36026
12.9472
0
0
0
0
0
0
0
17.1482
0
6.42462
13.6921
0
4.02832
5.21903
0
0
0
0
0
0
13.5532
0
1.48356
3.66268
4.41738
13.1589
0
2.48389
0
0.230812
0
2.36275
0
0
4.0343
0
0
0
2.63608
7.78906
0
0
0
0.459149
3.6231
0
0
12.3045
0
4.17359
0
7.34302
0
0
0
0
0
0
0
0
0
0
0
0
0
0
0
0
0
0
0
0
0
0
0
0
26.1521
0
9.28045
0
15.4116
0
5.02829
23.1666
0
0
0
0
0
0
0
14.4588
0
5.58982
4.17038
0
4.16673
0
0
0
0
0
-2.0172e-13
4.2532
0.504055
4.82692
8.17159
8.21295
2.96006
6.73027
12.9223
0
0
19.2154
7.38131
3.54889
0
0
1.48502
0.119992
0
0
0
0
0
0.742026
0
0
2.78501
0
0
0
3.27401
0
0
8.35736
0
0
0
0
0
0
0
0
0
0
0
0
0
0
0
0
0
0
0
0
0
0
0
0
9.39345
0
5.24115
0
18.5615
0
8.0823
25.6971
1.05315
0
0
0
0
0
0
0
0
4.71607
0
13.2957
0
0
0
0
0
13.5665
0
5.5006
0.498958
1.03095
0
5.50434
0
7.42869
10.4939
1.11351
0
6.421
14.5927
2.27013
0
0.258678
0
1.21553
2.90585
0
0
13.0645
2.6817
0
0
9.24168
0
0
0
0
0
4.5873
0
1.94334
0
0
0
0
0
0
0
0
0
0
0
0
0
0
0
0
0
0
0
0
0
0
0
0
0
0
0
0
0
0
4.68823
7.11891
6.80201
0
0
0
0
0
0
0
13.2365
-5.33209e-14
0.851564
0
0
0
0
0
0
0
2.97479
4.79262
13.0778
0
0
1.28299
0
1.15665
3.18682
3.26407
0
18.999
0
0
3.86742
0
0
0
0
0
0
0
0
0
0
9.01502
0
0
0
0
3.4316
0
0
0
0
0
0
0
0
0
0
0
0
0
0
0
0
0
0
0
0
0
0
0
0
0
0
0
0
0
0
0
0
0
0
13.5259
6.76276
0
0
0
0
0
0
3.25993
4.8806
3.51507
0
23.2643
0
0
0
0
0
0
0
0
0
0
0
0
0
6.36781
3.47949
0
0
0
-1.37511e-14
0
0
0
0.0994496
0
0
0
0
0.348072
0
0
0
0.229286
0
0
0
12.3129
0.100568
4.29153
12.1907
0
0
0
0
0
0
0
0
0
0
0
0
0
0
0
0
0
0
0
0
0
0
0
0
0
0
0
0
0
0
0
0
6.73009
7.40585
0
0
0
0
0
0
0
0
8.10047
3.96219
14.305
0
0
0
0
0
0
4.96698
0
0
0
0
0
0
0
3.56286
0
0
6.1922
7.11571
0
0
0
0
0
0
0
0
0
-3.69526e-14
0
0
0
7.06408
0
0
0
7.36378
4.85617
0
0
0
0
0
0
0
0
0
0
0
0
0
0
0
0
0
0
0
0
0
0
0
0
0
0
0
0
0
0
0
0
0
14.6105
17.284
0
0
0
0
0
0
15.9047
0
4.62273
0
0
0
0
0
0
0
0
0
4.14373
0
0
0
0
0
0
3.4446
0
0
2.18345
2.52088
0
0
0
0
0
0
0
0
0
7.57364
3.59454
0
0
0
0
0
0
7.16912
0
0
0
0
0
0
0
0
0
0
0
0
0
0
0
0
0
0
0
0
0
0
0
0
0
0
0
0
0
0
0
0
0
0
22.0127
4.98677
0
0
0
0
0
0
0
0
6.30391
4.27146
14.4324
0
0
0
0
0
0
0
3.12469
0
1.68434
0
0
0
6.10277
3.39839
0
0
0
2.32274
0
0
0
0
0
1.0641
4.01409
0
7.61386
0
0
0
4.45087
0
0
3.40459
0
1.28815
4.50101
0
0
0
0
0
0
0
0
0
0
0
0
0
0
0
0
0
0
0
0
0
0
0
0
0
0
0
0
0
0
0
0
0
7.96004
8.12
0
0
0
0
0
0
5.15063
0
8.90039
3.22019
13.6156
0
0
0
0
0
0
0
0
-7.76298e-13
0
0
0
0
0
1.22448
0
0
0
0
0
0
6.56177
0
6.26414
0
0
0
0
0
0
12.5877
0
0
0
8.99029
0
3.46732
0
0
8.30612
0
0
0
0
0
0
0
0
0
0
0
0
0
0
0
0
0
0
0
0
0
0
0
0
0
0
0
0
0
0
0
0
0
0
0
0
0
0
0
0
23.9608
6.20651
7.24524
14.1651
0
0
0
0
0
34.9144
0
4.06679
20.4457
0
0
0
0
0
0
0
0
0
0
1.0906
1.27375
0
0
0
1.61632
0
0
0
0
3.49305
0
0
2.33125
0
1.57288
0
3.30956
2.91183
0
0
0
0
0
0
0
0
0
0
0
0
0
0
0
0
0
0
0
0
0
0
0
0
0
0
0
0
0
0
0
0
0
0
0
0
0
0
0
0
0
0
71.5182
0
0
-1.02406e-12
0
0
0
0
0
24.6248
5.05583
6.81782
-1.08368e-12
0.137176
0
0
0
0
0
0
0
0
0
3.87877
7.42915
0
4.2206
0.115555
7.20679
-2.6059e-14
0
0
7.31071
0.961335
0
0
0
0
0.587352
0
0
4.54125
0
0
0
0
0
0
0
0
0
0
0
0
0
0
0
0
0
0
0
0
0
0
0
0
0
0
0
0
0
0
0
0
0
0
0
0
0
0
0
0
0
4.04305
27.8478
3.13852
1.42433
13.782
0
0
0
0
0
27.4826
0.399844
4.78035
0
0
0
0
0
0
0
0
0
0
0
0
0
6.47172
4.40183
0
0
0
0
0
0
0
-5.13211e-13
4.33658
3.55597
13.2042
4.42476
0
0
4.49035
0
0
0
0
0
0
0
0
0
0
0
0
0
0
0
0
0
0
0
0
0
0
0
0
0
0
0
0
0
0
0
0
0
0
0
0
0
0
0
0
0
0
0
0
0
0.425781
0
0
0
0
0
14.9318
0
5.63889
22.8987
0.153905
0
0
0
0
0
0
0
0
0
0
0
0
0
0
3.6294
0
0
0
0
3.49245
26.8099
4.26736
6.96759
12.8561
0
0
0
0
0
0
0
0
0
0
0
0
0
0
0
0
0
0
0
0
0
0
0
0
0
0
0
0
0
0
0
0
0
0
0
0
0
0
0
0
0
0
0
0
0
0
0
0
0
0
0
0
0
0
0
0
0.686972
0
0
0
0
0
0
0
0
0
0
0
0
0
0
0
0
0
3.54849
0
0
0
0
10.2898
4.48342
0
3.35677
0
0
8.58585
15.4165
0.307121
32.513
0
0
0
0
0
0
0
0
0
0
0
0
0
0
0
0
0
0
0
0
0
0
0
0
0
0
0
0
0
0
0
0
0
0
0
0
0
0
0
0
0
0
0
0
0
0
0
0
0
0
0
15.5741
1.77509
4.7184
0
0
0
0
0
0
0
0
0
0
0
0
0
0
0
0
0
0
0
0
3.29589
0
0
0
0
-1.76817e-13
27.5847
0.982473
4.52537
15.6956
0
0
0
0
0
0
0
0
0
0
0
0
0
0
0
0
0
0
0
0
0
0
0
0
0
0
0
0
0
0
0
0
0
0
0
0
0
0
0
0
0
0
0
0
0
0
0
0
0
0
0.714309
0
3.93154
0
0
0
0
0
0
0
0
0
0
0
0
0
0
0
0
0
7.07733
0
0
0
0
0
0
0
0
0
0
0
0
0
0
0
0
0
0
0
0
0
0
0
0
0
0
0
0
0
0
0
0
0
0
0
0
0
0
0
0
0
0
0
0
0
0
0
0
0
0
0
0
0
0
0
0
0
0
0
0
0
0
0
0
5.08766
0
0
0
0
0
0
0
0
0
0
0
0
0
0
0
-1.48239e-14
0
0
0
9.20457
0
0
0
0
0
0
0
0
0
0
0
0
0
0
0
0
0
0
0
0
0
0
0
0
0
0
0
0
0
0
0
0
0
0
0
0
0
0
0
0
0
0
0
0
0
0
0
0
0
0
0
0
0
0
0
0
0
0
0
0
0
0
0
2.21233
3.83374
0
0
0
0
0
0
0
0
0
0
0
-3.31327e-13
0
-9.18015e-14
1.61455
10.1593
0
0.405331
0
0
0
0
0
0
0
0
0
0
0
0
0
0
0
0
0
0
0
0
0
0
0
0
0
0
0
0
0
0
0
0
0
0
0
0
0
0
0
0
0
0
0
0
0
0
0
0
0
0
0
0
0
0
0
0
0
0
0
0
0
0
0
0
0
0
0
0
0
0
0
0
0
0
0
0
0
2.90727
-4.27911e-13
0.451414
2.15271
4.22314
3.92605
4.9234
0
0
0
0
0
0
0
0
0
0
0
0
0
0
0
0
0
0
0
0
0
0
0
0
0
0
0
0
0
0
0
0
0
0
0
0
0
0
0
0
0
0
0
0
0
0
0
0
0
0
0
0
0
0
0
0
0
0
0
0
0
0
0
0
4.63104
0
0
0
0
0
0
0
0
0
0
0
0
0
2.31749
0
0
3.48719
3.66927
0
0
0
0
0
0
0
0
0
0
0
0
0
0
0
0
0
0
0
0
0
0
0
0
0
0
0
0
0
0
0
0
0
0
0
0
0
0
0
0
0
0
0
0
0
0
0
0
0
0
0
0
0
0
0
0
0
0
0
0
0
0
0
0
0
0
0
0
4.5548
0
0
0
0
0
0
0
0
0
0.215649
3.65246
0
0
0
0
0
0
0
0
0
0
0
0
0
0
0
0
0
0
0
0
0
0
0
0
0
0
0
0
0
0
0
0
0
0
0
0
0
0
0
0
0
0
0
0
0
0
0
0
0
0
0
0
0
0
0
0
0
0
0
0
0
0
0
0
0
0
0
0
0
0
0
0
0
0
0
0
0
0
0
0
0
0
0
0
0
0
0
0
0
0
0
0
0
0
0
0
0
0
0
0
0
0
0
0
0
0
0
0
0
0
0
0
0
0
0
0
0
0
0
0
0
0
0
0
0
0
0
0
0
0
0
0
0
0
0
0
0
0
0
0
0
0
0
0
0
0
0
0
0
0
0
0
0
0
0
0
0
0
0
0
0
0
0
0
0
0
0
0
0
0
0
0
0
0
0
0
0
0
0
0
0
0
0
0
0
0
0
0
0
0
0
0
0
0
0
0
0
0
0
0
0
0
0
0
0
0
0
0
0
0
0
0
0
0
0
0
0
0
0
0
0
0
0
0
0
0
0
0
0
0
0
0
0
0
0
0
0
0
0
0
0
0
0
0
0
0
0
0
0
0
0
0
0
0
0
0
0
0
0
0
0
0
0
0
0
0
0
0
0
0
0
0
0
0
0
0
0
0
0
0
0
0
0
0
0
0
0
0
0
0
0
0
0
0
0
0
0
0
0
0
0
0
0
0
0
0
0
0
0
0
0
0
0
0
0
0
0
0
0
0
0
0
0
0
0
0
0
0
0
0
0
0
0
0
0
0
0
0
0
0
0
0
0
0
0
0
0
0
0
0
0
0
0
0
0
0
0
0
0
0
0
0
0
0
0
0
0
0
0
0
0
0
0
0
0
0
0
0
0
0
0
0
0
0
0
0
0
0
0
0
0
0
0
0
0
0
0
0
0
0
0
0
0
0
0
0
0
0
0
0
0
0
0
0
0
0
0
0
0
0
0
0
0
0
0
0
0
0
0
0
0
0
0
0
0
0
0
0
0
0
0
0
0
0
0
0
0
0
0
0
0
0
0
0
0
0
0
0
0
0
0
0
0
0
0
0
0
0
0
0
0
0
0
0
0
0
0
0
0
0
0
0
0
0
0
0
0
0
0
0
0
0
0
0
0
0
0
0
0
0
0
0
0
0
0
0
0
0
0
0
0
0
0
0
0
0
0
0
0
0
0
0
0
0
0
0
0
0
0
0
0
0
0
0
0
0
0
0
0
0
0
0
0
0
0
0
0
0
0
0
0
0
0
0
0
0
0
0
0
0
0
0
0
0
0
0
0
0
0
0
0
0
0
0
0
0
0
0
0
0
0
0
0
0
0
0
0
0
0
0
0
0
0
0
0
0
0
0
0
0
0
0
0
0
0
0
0
0
0
0
0
0
0
0
0
0
0
0
0
0
0
0
0
0
0
0
0
0
0
0
0
0
0
0
0
0
0
0
0
0
0
0
0
0
0
0
0
0
0
0
0
0
0
0
0
0
0
0
0
0
0
0
0
0
0
0
0
0
0
0
0
0
0
0
0
0
0
0
0
0
0
0
0
0
0
0
0
0
0
0
0
0
0
0
0
0
0
0
0
0
0
0
0
0
0
0
0
0
0
0
0
0
0
0
0
0
0
0
0
0
0
0
0
0
0
0
0
0
0
0
0
0
0
0
0
0
0
0
0
0
0
0
0
0
0
0
0
0
0
0
0
0
0
0
0
0
0
0
0
0
0
0
0
0
0
0
0
0
0
0
0
0
0
0
0
0
0
0
0
0
0
0
0
0
0
0
0
0
0
0
0
0
0
0
0
0
0
0
0
0
0
0
0
0
0
0
0
0
0
0
0
0
0
0
0
0
0
0
0
0
0
0
0
0
0
0
0
0
0
0
0
0
0
0
0
0
0
0
0
0
0
0
0
0
0
0
0
0
0
0
0
0
0
0
0
0
0
0
0
0
0
0
0
0
0
0
0
0
0
0
0
0
0
0
0
0
0
0
0
0
0
0
0
0
0
0
0
0
0
0
0
0
0
0
0
0
0
0
0
0
0
0
0
0
0
0
0
0
0
0
0
0
0
0
0
0
0
0
0
0
0
0
0
0
0
0
0
0
0
0
0
0
0
0
0
0
0
0
0
0
0
0
0
0
0
0
0
0
0
0
0
0
0
0
0
0
0
0
0
0
0
0
0
0
0
0
0
0
0
0
0
0
0
0
0
0
0
0
0
0
0
0
0
0
0
0
0
0
0
0
0
0
0
0
0
0
0
0
0
0
0
0
0
0
0
0
0
0
0
0
0
0
0
0
0
0
0
0
0
0
0
0
0
0
0
0
0
0
0
0
0
0
0
0
0
0
0
0
0
0
0
0
0
0
0
0
0
0
0
0
0
0
0
0
0
0
0
0
0
0
0
0
0
0
0
0
0
0
0
0
0
0
0
0
0
0
0
0
0
0
0
0
0
0
0
0
0
0
0
0
0
0
0
0
0
0
0
0
0
0
0
0
0
0
0
0
0
0
0
0
0
0
0
0
0
0
0
0
0
0
0
0
0
0
0
0
0
0
0
0
0
0
0
0
0
0
0
0
0
0
0
0
0
0
0
0
0
0
0
0
0
0
0
0
0
0
0
0
0
0
0
0
0
0
0
0
0
0
0
0
0
0
0
0
0
0
0
0
0
0
0
0
0
0
0
0
0
0
0
0
0
0
0
0
0
0
0
0
0
0
0
0
0
0
0
0
0
0
0
0
0
0
0
0
0
0
0
0
0
0
0
0
0
0
0
0
0
0
0
0
0
0
0
0
0
0
0
0
0
0
0
0
0
0
0
0
0
0
0
0
0
0
0
0
0
0
0
0
0
0
0
0
0
0
0
0
0
0
0
0
0
0
0
0
0
0
0
0
0
0
0
0
0
0
0
0
0
0
0
0
0
0
0
0
0
0
0
0
0
0
0
0
0
0
0
0
0
0
0
0
0
0
0
0
0
0
0
0
0
0
0
0
0
0
0
0
0
0
0
0
0
0
0
0
0
0
0
0
0
0
0
0
0
0
0
0
0
0
0
0
0
0
0
0
0
0
0
0
0
0
0
0
0
0
0
0
0
0
0
0
0
0
0
0
0
0
0
0
0
0
0
0
0
0
0
0
0
0
0
0
0
0
0
0
0
0
0
0
0
0
0
0
0
0
0
0
0
0
0
0
0
0
0
0
0
0
0
0
0
0
0
0
0
0
0
0
0
0
0
0
0
0
0
0
0
0
0
0
0
0
0
0
0
0
0
0
0
0
0
0
0
0
0
0
0
0
0
0
0
0
0
0
0
0
0
0
0
0
0
0
0
0
0
0
0
0
0
0
0
0
0
0
0
0
0
0
0
0
0
0
0
0
0
0
0
0
0
0
0
0
0
0
0
0
0
0
0
0
0
0
0
0
0
0
0
0
0
0
0
0
0
0
0
0
0
0
0
0
0
0
0
0
0
0
0
0
0
0
0
0
0
0
0
0
0
0
0
0
0
0
0
0
0
0
0
0
0
0
0
0
0
0
0
0
0
0
0
0
0
0
0
0
0
0
0
0
0
0
0
0
0
0
0
0
0
0
0
0
0
0
0
0
0
0
0
0
0
0
0
0
0
0
0
0
0
0
0
0
0
0
0
0
0
0
0
0
0
0
0
0
0
0
0
0
0
0
0
0
0
0
0
0
0
0
0
0
0
0
0
0
0
0
0
0
0
0
0
0
0
0
0
0
0
0
0
0
0
0
0
0
0
0
0
0
0
0
0
0
0
0
0
0
0
0
0
0
0
0
0
0
0
0
0
0
0
0
0
0
0
0
0
0
0
0
0
0
0
0
0
0
0
0
0
0
0
0
0
0
0
0
0
0
0
0
0
0
0
0
0
0
0
0
0
0
0
0
0
0
0
0
0
0
0
0
0
0
0
0
0
0
0
0
0
0
0
0
0
0
0
0
0
0
0
0
0
0
0
0
0
0
0
0
0
0
0
0
0
0
0
0
0
0
0
0
0
0
0
0
0
0
0
0
0
0
0
0
0
0
0
0
0
0
0
0
0
0
0
0
0
0
0
0
0
0
0
0
0
0
0
0
0
0
0
0
0
0
0
0
0
0
0
0
0
0
0
0
0
0
0
0
0
0
0
0
0
0
0
0
0
0
0
0
0
0
0
0
0
0
0
0
0
0
0
0
0
0
0
0
0
0
0
0
0
0
0
0
0
0
0
0
0
0
0
0
0
0
0
0
0
0
0
0
0
0
0
0
0
0
0
0
0
0
0
0
0
0
0
0
0
0
0
0
0
0
0
0
0
0
0
0
0
0
0
0
0
0
0
0
0
0
0
0
0
0
0
0
0
0
0
0
0
0
0
0
0
0
0
0
0
0
0
0
0
0
0
0
0
0
0
0
0
0
0
0
0
0
0
0
0
0
0
0
0
0
0
0
0
0
0
0
0
0
0
0
0
0
0
0
0
0
0
0
0
0
0
0
0
0
0
0
0
0
0
0
0
0
0
0
0
0
0
0
0
0
0
0
0
0
0
0
0
0
0
0
0
0
0
0
0
0
0
0
0
0
0
0
0
0
0
0
0
0
0
0
0
0
0
0
0
0
0
0
0
0
0
0
0
0
0
0
0
0
0
0
0
0
0
0
0
0
0
0
0
0
0
0
0
0
0
0
0
0
0
0
0
0
0
0
0
0
0
0
0
0
0
0
0
0
0
0
0
0
0
0
0
0
0
0
0
0
0
0
0
0
0
0
0
0
0
0
0
0
0
0
0
0
0
0
0
0
0
0
0
0
0
0
0
0
0
0
0
0
0
0
0
0
0
0
0
0
0
0
0
0
0
0
0
0
0
0
0
0
0
0
0
0
0
0
0
0
0
0
0
0
0
0
0
0
0
0
0
0
0
0
0
0
0
0
0
0
0
0
0
0
0
0
0
0
0
0
0
0
0
0
0
0
0
0
0
0
0
0
0
0
0
0
0
0
0
0
0
0
0
0
0
0
0
0
0
0
0
0
0
0
0
0
0
0
0
0
0
0
0
0
0
0
0
0
0
0
0
0
0
0
0
0
0
0
0
0
0
0
0
0
0
0
0
0
0
0
0
0
0
0
0
0
0
0
0
0
0
0
0
0
0
0
0
0
0
0
0
0
0
0
0
0
0
0
0
0
0
0
0
0
0
0
0
0
0
0
0
0
0
0
0
0
0
0
0
0
0
0
0
0
0
0
0
0
0
0
0
0
0
0
0
0
0
0
0
0
0
0
0
0
0
0
0
0
0
0
0
0
0
0
0
0
0
0
0
0
0
0
0
0
0
0
0
0
0
0
0
0
0
0
0
0
0
0
0
0
0
0
0
0
0
0
0
0
0
0
0
0
0
0
0
0
0
0
0
0
0
0
0
0
0
0
0
0
0
0
0
0
0
0
0
0
0
0
0
0
0
0
0
0
0
0
0
0
0
0
0
0
0
0
0
0
0
0
0
0
0
0
0
0
0
0
0
0
0
0
0
0
0
0
0
0
0
0
0
0
0
0
0
0
0
0
0
0
0
0
0
0
0
0
0
0
0
0
0
0
0
0
0
0
0
0
0
0
0
0
0
0
0
0
0
0
0
0
0
0
0
0
0
0
0
0
0
0
0
0
0
0
0
0
0
0
0
0
0
0
0
0
0
0
0
0
0
0
0
0
0
0
0
0
0
0
0
0
0
0
0
0
0
0
0
0
0
0
0
0
0
0
0
0
0
0
0
0
0
0
0
0
0
0
0
0
0
0
0
0
0
0
0
0
0
0
0
0
0
0
0
0
0
0
0
0
0
0
0
0
0
0
0
0
0
0
0
0
0
0
0
0
0
0
0
0
0
0
0
0
0
0
0
0
0
0
0
0
0
0
0
0
0
0
0
0
0
0
0
0
0
0
0
0
0
0
0
0
0
0
0
0
0
0
0
0
0
0
0
0
0
0
0
0
0
0
0
0
0
0
0
0
0
0
0
0
0
0
0
0
0
0
0
0
0
0
0
0
0
0
0
0
0
0
0
0
0
0
0
0
0
0
0
0
0
0
0
0
0
0
0
0
0
0
0
0
0
0
0
0
0
0
0
0
0
0
0
0
0
0
0
0
0
0
0
0
0
0
0
0
0
0
0
0
0
0
0
0
0
0
0
0
0
0
0
0
0
0
0
0
0
0
0
0
0
0
0
0
0
0
0
0
0
0
0
0
0
0
0
0
0
0
0
0
0
0
0
0
0
0
0
0
0
0
0
0
0
0
0
0
0
0
0
0
0
0
0
0
0
0
0
0
0
0
0
0
0
0
0
0
0
0
0
0
0
0
0
0
0
0
0
0
0
0
0
0
0
0
0
0
0
0
0
0
0
0
0
0
0
0
0
0
0
0
0
0
0
0
0
0
0
0
0
0
0
0
0
0
0
0
0
0
0
0
0
0
0
0
0
0
0
0
0
0
0
0
0
0
0
0
0
0
0
0
0
0
0
0
0
0
0
0
0
0
0
0
0
0
0
0
0
0
0
0
0
0
0
0
0
0
0
0
0
0
0
0
0
0
0
0
0
0
0
0
0
0
0
0
0
0
0
0
0
0
0
0
0
0
0
0
0
0
0
0
0
0
0
0
0
0
0
0
0
0
0
0
0
0
0
0
0
0
0
0
0
0
0
0
0
0
0
0
0
0
0
0
0
0
0
0
0
0
0
0
0
0
0
0
0
0
0
0
0
0
0
0
0
0
0
0
0
0
0
0
0
0
0
0
0
0
0
0
0
0
0
0
0
0
0
0
0
0
0
0
0
0
0
0
0
0
0
0
0
0
0
0
0
0
0
0
0
0
0
0
0
0
0
0
0
0
0
0
0
0
0
0
0
0
0
0
0
0
0
0
0
0
0
0
0
0
0
0
0
0
0
0
0
0
0
0
0
0
0
0
0
0
0
0
0
0
0
0
0
0
0
0
0
0
0
0
0
0
0
0
0
0
0
0
0
0
0
0
0
0
0
0
0
0
0
0
0
0
0
0
0
0
0
0
0
0
0
21.5085
29.4913
8.32624
362.716
29.3829
27.0448
12.3039
4.41851
61.9676
6.21448
25.1639
0
31.3291
10.3188
45.1838
26.7693
46.9704
22.2599
24.1763
12.1669
20.4793
21.4765
29.7866
25.7159
32.5703
10.7723
10.3942
6.39471
7.32548
42.1075
12.7083
6.62279
6.46828
17.4889
10.5859
660.206
24.9532
328.706
165.413
1748.28
65.0288
1090.71
68.8015
21.9803
71.8902
6.56254
20.6684
32.1736
93.3942
705.152
375.455
587.342
79.1072
875.049
477.054
1190.66
24.2635
43.7517
289.22
413.18
18.96
151.944
324.179
134.993
120.215
52.9186
47.5581
369.517
41.4807
176.555
365.3
2588.12
1142.85
3642.62
2268.48
1618.79
1513.5
611.087
908.578
2513.13
393.779
1274.23
4229.61
4841.39
385.554
112.424
24.7473
893.279
1358.3
312.746
192.541
11.5622
25.096
14.4924
31.1669
217.643
12.8224
3.83767
51.8262
0
15.9142
302.718
243.179
47.5464
73.7344