/*--------------------------------*- C++ -*----------------------------------*\
| =========                 |                                                 |
| \\      /  F ield         | OpenFOAM: The Open Source CFD Toolbox           |
|  \\    /   O peration     | Version:  5.x                                   |
|   \\  /    A nd           | Web:      www.OpenFOAM.org                      |
|    \\/     M anipulation  |                                                 |
\*---------------------------------------------------------------------------*/
FoamFile
{
    version     2.0;
    format      ascii;
    class       surfaceScalarField;
    location    "3.8";
    object      phi;
}
// * * * * * * * * * * * * * * * * * * * * * * * * * * * * * * * * * * * * * //

dimensions      [0 3 -1 0 0 0 0];

internalField   nonuniform List<scalar> 
29271
(
-1.02725e-05
-4.51512e-06
3.66739e-06
1.11203e-05
-1.43155e-05
-3.89271e-06
7.95383e-06
1.02551e-05
-5.68557e-05
-1.55155e-05
-1.85834e-07
1.45427e-06
1.21969e-05
5.89059e-05
-5.54468e-05
-6.16263e-06
9.64379e-08
-6.58179e-06
6.10812e-06
6.19866e-05
-5.46489e-05
1.03624e-05
-9.84341e-06
1.96615e-06
3.19949e-05
2.01689e-05
-5.92243e-05
-6.55654e-06
-1.0253e-05
6.17736e-06
2.29799e-06
6.75585e-05
-5.76331e-05
-4.35796e-06
-1.77394e-06
-2.11727e-06
-8.89105e-07
6.67714e-05
-5.45834e-05
-2.27219e-06
2.66693e-06
-5.81898e-06
-2.654e-06
6.26617e-05
-5.9423e-05
-2.80641e-06
1.44787e-05
-1.83117e-05
-6.46984e-07
6.67094e-05
-3.35011e-05
-5.55415e-06
1.11956e-05
2.52482e-05
2.61144e-06
-5.0896e-06
-4.82788e-07
4.64617e-06
8.99938e-07
-6.47436e-05
-1.46862e-05
3.06944e-06
6.57856e-06
-8.47779e-06
7.82596e-05
-4.89813e-05
5.53616e-06
-7.00139e-07
-4.5394e-06
-1.74188e-05
6.61035e-05
-4.3342e-05
6.86335e-06
2.05003e-06
-2.74706e-06
-1.61068e-05
5.32825e-05
-6.04485e-05
7.12405e-06
4.57841e-06
-9.16285e-06
-1.60232e-05
7.39321e-05
-5.8878e-05
-3.58333e-06
-1.13833e-06
-1.24465e-06
6.18159e-05
3.02834e-06
-5.55789e-05
-7.74818e-06
1.34425e-07
-1.12092e-05
5.88434e-05
1.55585e-05
-5.7495e-05
1.32532e-05
2.93475e-05
-2.62714e-06
-2.28127e-05
4.03343e-05
-7.67692e-05
3.45556e-05
-2.07173e-06
-8.6552e-06
-4.15535e-05
9.44939e-05
-5.40068e-05
-1.0305e-06
-1.70566e-05
3.37355e-05
3.14071e-05
6.95126e-06
-1.26941e-05
5.33484e-06
-3.96614e-06
1.13391e-05
-3.41041e-05
-2.86711e-07
1.96961e-06
1.95349e-05
1.30342e-05
-3.52818e-05
1.51837e-06
-7.45088e-07
-4.05606e-06
2.19495e-05
1.66151e-05
-2.46613e-05
4.57623e-06
-3.11914e-06
2.32067e-05
-8.00614e-06
2.57411e-06
5.23205e-07
4.91891e-06
-6.15361e-06
1.06353e-06
1.58494e-06
3.51016e-06
-3.15195e-07
1.57391e-06
-5.04739e-05
-5.74288e-06
1.08951e-05
4.40629e-05
-7.92322e-06
-6.80184e-05
2.67491e-06
-5.31427e-06
9.48789e-06
6.90931e-05
-1.7563e-05
-2.07619e-06
1.71245e-06
1.23763e-06
1.52177e-05
1.47139e-06
-9.6831e-06
-6.68195e-06
-7.56889e-05
8.79882e-06
7.08175e-06
7.61734e-05
-4.6076e-05
-4.37037e-06
0.000398298
-7.69481e-05
-7.53619e-05
-7.64052e-05
-6.99302e-05
-1.23946e-05
-1.33175e-05
-9.29351e-06
-9.83828e-06
-2.97987e-06
-4.67794e-06
8.76832e-07
2.41853e-06
-3.46916e-05
-3.95819e-05
0.00036732
-7.52007e-05
-8.21102e-05
-7.58896e-05
-8.28428e-05
-7.00658e-06
-3.24427e-06
-7.12585e-06
-5.70253e-06
2.53001e-06
-1.65833e-05
0.000112949
-5.21289e-07
2.5298e-06
6.26215e-06
5.99351e-06
7.68915e-06
6.58374e-06
1.02542e-05
-5.83605e-05
-2.14575e-05
-6.07331e-05
-3.18268e-05
-2.0086e-05
2.20004e-06
-1.34518e-06
2.1753e-05
-5.23743e-07
-6.88608e-07
-8.6019e-07
2.01526e-06
-7.37613e-06
-9.08339e-05
1.38025e-07
9.0064e-06
-8.68863e-06
9.77543e-05
-2.88829e-05
-5.18942e-05
0.000309631
-7.82233e-05
-4.71578e-05
-6.33291e-05
-4.67276e-05
-5.02475e-06
4.09963e-07
1.85343e-06
4.9751e-06
-3.08026e-05
-6.20865e-05
0.000351655
-7.04575e-05
-8.74207e-05
-9.58965e-05
-7.3456e-05
5.69323e-06
-5.9092e-06
0.000244252
1.29614e-06
9.00298e-06
3.84568e-06
-2.17454e-06
-1.03145e-06
-9.36133e-07
-8.18945e-05
-7.16881e-05
-7.57343e-05
-7.21072e-05
-6.92094e-05
1.25667e-06
3.92867e-06
-5.084e-06
7.48013e-05
-4.56773e-05
-2.12591e-06
3.757e-06
1.7193e-06
3.28875e-05
9.4394e-06
-2.62358e-05
-8.61871e-06
0.000180638
2.61825e-06
-3.21371e-08
1.97705e-06
1.08312e-06
-1.48789e-05
-5.94986e-06
-9.51713e-06
-3.17217e-05
-4.66874e-05
-4.16529e-05
-5.29164e-05
-4.74295e-06
-9.13534e-06
0.000107977
-2.03134e-06
-3.18961e-06
-1.74884e-06
-5.91105e-06
-6.27827e-06
-4.15186e-06
-8.0537e-05
-4.356e-05
-1.99888e-05
-1.50239e-05
-1.79763e-05
-8.06286e-07
-4.50455e-06
1.2635e-05
-1.08351e-05
2.69246e-06
-5.94856e-08
8.17427e-06
-1.03648e-05
1.60994e-06
-4.73813e-06
4.89031e-06
-1.90997e-05
2.02714e-06
-2.65072e-06
-1.11086e-06
1.16988e-05
-1.01481e-05
5.52561e-06
2.25292e-06
2.5229e-06
-5.56991e-06
9.31296e-07
-7.53244e-06
1.20276e-05
-2.46416e-06
7.73205e-07
-1.09141e-06
2.74418e-06
9.10676e-06
2.89119e-06
-4.37847e-05
-3.00724e-06
-4.65448e-06
3.94485e-05
2.98356e-06
-4.83924e-05
3.3317e-06
3.43572e-06
3.11925e-06
3.55221e-05
-3.06806e-05
1.79564e-06
8.18828e-06
-8.82587e-06
4.36443e-05
-1.41217e-05
-2.49756e-06
-1.04821e-06
-7.2092e-05
2.00569e-06
6.78523e-06
6.68469e-05
-4.19556e-05
-6.75772e-06
0.000397627
-6.92101e-07
-3.9006e-06
8.5059e-06
6.97297e-06
7.17784e-06
5.86137e-06
1.13233e-05
1.41355e-05
1.71315e-05
-2.731e-05
0.000328648
-4.59234e-06
6.96843e-07
4.52366e-06
6.26696e-06
7.0125e-07
-2.7187e-05
0.000122414
4.315e-06
9.43478e-06
8.6291e-06
1.89472e-05
-6.61972e-07
-5.99942e-07
-5.91285e-06
-3.19726e-05
1.56351e-05
-2.41667e-05
4.11509e-05
-4.93465e-06
1.43319e-06
-1.73388e-06
5.1913e-06
-1.01193e-06
-0.00010652
-1.26498e-06
1.54562e-06
-6.77578e-06
0.000114027
-5.48921e-05
-3.27827e-05
0.000356705
3.74091e-06
7.72052e-06
9.39644e-06
1.2985e-05
-1.5753e-05
-1.98481e-05
0.000305054
4.71388e-06
-1.45122e-06
0.000196927
7.72081e-07
6.21548e-06
-2.89077e-06
-1.33425e-06
-4.40778e-07
-1.19967e-06
-7.84067e-05
1.34048e-05
8.09328e-06
-1.29001e-05
7.45226e-05
-2.62196e-05
2.39012e-07
-2.67876e-06
3.73814e-07
2.46985e-05
3.58703e-06
-2.37228e-05
-2.53023e-06
0.000161774
3.86363e-06
4.18909e-06
8.02859e-06
5.12793e-06
-3.9597e-06
-2.06193e-06
-2.85227e-06
-1.59651e-06
-1.47778e-06
7.08554e-05
-5.70568e-07
-3.22062e-07
-4.10603e-07
-8.34587e-07
-7.50775e-07
-4.86709e-07
-1.04999e-05
-1.12048e-06
8.51124e-08
8.4875e-06
-4.45014e-06
1.43604e-06
1.45713e-06
1.59014e-06
-1.33347e-06
1.56831e-08
-1.38041e-06
2.05227e-07
-4.66178e-06
7.88848e-07
3.62208e-07
1.21122e-07
1.91182e-06
-4.84121e-07
6.03022e-07
-9.49583e-08
-3.24672e-08
-1.96245e-05
-3.64169e-06
-5.11352e-07
2.37805e-05
-4.11737e-06
2.20968e-06
-4.68599e-06
6.4205e-06
1.33731e-05
2.61871e-07
-3.84665e-05
-4.13787e-07
-2.36568e-05
4.89021e-05
9.91596e-06
-3.05827e-05
-1.45981e-06
4.65103e-06
-1.4301e-05
3.17765e-05
-6.00574e-05
9.91958e-06
-8.98781e-06
-9.96471e-06
7.42946e-05
-5.20432e-06
6.73002e-06
-4.11475e-07
-6.7141e-05
-8.18671e-06
-5.57415e-06
7.45833e-05
-1.25091e-05
-4.81006e-05
0.000311066
1.96201e-05
1.83365e-05
1.74486e-05
1.54475e-05
1.76479e-05
1.66571e-05
1.98553e-05
2.21584e-05
5.45736e-05
-3.29375e-05
0.000234505
1.19772e-05
1.26829e-05
1.26048e-05
2.27324e-05
-5.24454e-06
-5.74478e-05
0.000205729
1.0539e-05
1.6188e-05
1.33576e-05
1.69217e-05
-8.50207e-06
-5.45436e-06
-9.09863e-06
-5.08366e-05
2.21509e-05
-3.23841e-05
5.5796e-05
-2.90613e-06
1.17637e-06
-1.12033e-07
1.8075e-06
3.03293e-06
-0.000121634
2.92758e-06
-8.55315e-06
-4.0574e-06
0.000128284
-4.77401e-05
-9.38776e-06
0.000269655
1.7905e-05
2.12266e-05
2.70063e-05
2.99391e-05
1.72178e-05
6.08455e-06
0.000201074
1.60178e-06
-2.77723e-06
0.000164925
-1.37625e-06
4.17836e-07
5.26808e-08
-2.02554e-06
-2.01434e-06
-2.10702e-06
-6.01577e-05
2.25781e-05
1.33566e-05
-8.57429e-06
3.4399e-05
-2.86833e-05
1.40669e-06
-9.52834e-06
-2.19113e-06
3.61584e-05
2.83771e-06
-1.36509e-05
9.65623e-07
0.000106888
1.37287e-05
9.94351e-06
2.25568e-05
8.54105e-06
1.14374e-06
1.05377e-06
1.21497e-06
3.66179e-06
1.88938e-06
4.33788e-05
2.20055e-06
4.49178e-06
2.29584e-06
1.67411e-06
1.95234e-06
1.74444e-06
-7.62675e-06
8.57132e-07
-5.68019e-07
8.2222e-06
-1.19638e-06
-8.07145e-07
6.10558e-07
1.41508e-06
9.34574e-07
1.29259e-07
-3.66847e-07
2.5016e-07
-8.28988e-08
3.91254e-07
1.81076e-07
3.87573e-07
1.01238e-06
1.52561e-07
1.8281e-07
-5.87644e-07
1.56417e-07
-2.62107e-05
-3.69693e-06
1.99409e-06
2.79071e-05
-1.03247e-05
6.49226e-06
-1.48712e-05
1.84648e-05
9.82279e-06
-9.38773e-06
-5.97925e-05
5.32988e-06
-1.26937e-05
6.67213e-05
2.41273e-06
-3.56679e-05
-1.86927e-06
-1.01799e-06
-5.40958e-06
4.1552e-05
-9.05901e-05
6.33139e-06
-1.27022e-05
-6.61076e-06
0.000101023
2.54829e-06
2.34309e-05
1.31185e-06
-8.50735e-05
-7.1626e-06
-2.01799e-05
8.76732e-05
5.73238e-06
-1.77447e-05
0.000231615
1.57681e-05
1.28962e-05
2.08092e-05
1.74972e-05
9.43136e-06
7.08219e-06
3.43988e-06
4.53883e-06
3.49341e-05
-1.9764e-05
0.000178886
7.51292e-06
1.23687e-05
1.1825e-05
1.44752e-05
-2.73198e-06
-4.01383e-05
0.000234177
8.10431e-06
1.54383e-05
8.9166e-06
1.45694e-05
-2.52172e-06
1.60458e-06
3.24515e-06
-6.19129e-05
1.97177e-05
-2.44853e-05
6.39677e-05
-1.41869e-06
9.25672e-07
-1.09147e-06
1.57679e-06
9.31059e-06
-0.000134076
1.3258e-05
-1.68077e-05
-7.33513e-06
0.00013565
2.13277e-07
-2.99736e-06
0.000202361
1.2443e-05
1.4843e-05
1.13108e-05
1.37369e-05
1.73394e-05
-1.20963e-06
0.000165393
1.25424e-06
-3.19874e-06
0.000143406
9.20096e-07
2.31934e-06
1.82408e-06
-1.59368e-06
-1.49816e-06
-1.30739e-06
-1.74029e-05
6.90802e-06
1.57644e-06
-1.46558e-06
1.16383e-05
-4.90383e-05
3.59984e-06
-1.65395e-05
-2.03599e-06
5.91146e-05
4.8994e-06
-1.7017e-07
8.35282e-07
6.87167e-05
1.42757e-05
2.26347e-06
1.42781e-05
9.27279e-07
9.39681e-07
8.49951e-07
9.75063e-07
2.0046e-06
1.05274e-06
3.18672e-05
1.41008e-06
1.40829e-06
1.38975e-06
9.7909e-07
9.87843e-07
8.99393e-07
-9.09633e-06
1.69758e-06
-4.69175e-07
6.6738e-06
-1.45323e-06
4.9487e-07
-4.56256e-07
1.41399e-06
-1.2979e-06
1.40265e-07
-2.54861e-07
2.21502e-06
-2.12447e-06
1.82601e-07
1.11538e-07
2.81136e-07
2.60193e-06
-5.64959e-07
2.25934e-07
-5.66299e-07
7.89188e-07
-2.94905e-05
-4.27125e-06
3.48409e-06
3.02792e-05
-2.88045e-05
1.01086e-05
-2.07912e-05
3.94834e-05
9.46415e-06
-9.28768e-06
-7.54751e-05
8.35055e-06
-1.41596e-05
8.11077e-05
-4.94774e-06
-5.22423e-05
-3.56115e-06
-1.82435e-06
1.91503e-06
6.06605e-05
-0.000109905
4.40819e-06
-1.27637e-05
-2.57363e-06
0.000116465
4.36877e-06
3.2698e-05
7.22642e-06
-7.91815e-05
5.82525e-06
-2.64331e-05
5.98649e-05
2.84647e-05
-1.18424e-05
0.000243747
1.34619e-05
7.32297e-06
6.29874e-06
1.94652e-06
-1.36222e-05
-1.90681e-05
-1.37181e-05
-1.1376e-05
1.18749e-05
-7.26562e-06
0.000199511
2.24871e-06
5.98687e-06
-5.49288e-06
4.87776e-07
-6.64214e-07
-2.4269e-05
0.000242852
4.1574e-06
1.19032e-05
3.84964e-06
7.30467e-06
1.20982e-06
-1.48168e-06
1.19039e-06
-5.92667e-05
9.4648e-06
1.95621e-06
-1.93892e-05
6.65707e-05
6.65191e-08
-9.50841e-09
1.75393e-09
-5.65079e-08
-3.50211e-06
1.17871e-06
-9.3159e-06
1.12223e-05
1.90672e-05
-0.00012707
1.58827e-05
-1.65441e-06
-3.16347e-06
9.6938e-05
2.12056e-05
-1.07277e-05
0.000224786
-1.30941e-05
-9.60605e-06
-1.14144e-05
-1.06305e-05
1.10908e-05
-3.4679e-06
0.00017171
-3.72462e-07
-1.82609e-06
0.000144433
1.90737e-06
-6.56796e-06
-2.0353e-06
-1.61083e-06
-1.61266e-06
-2.08731e-06
-1.20666e-05
3.84166e-06
-4.4942e-07
-2.42129e-06
1.07232e-05
4.75344e-09
1.51126e-07
-1.59782e-08
-3.69326e-08
-1.14161e-07
-6.65608e-05
6.09915e-06
-6.69921e-06
5.24004e-06
6.66567e-05
-4.73593e-06
4.15732e-07
-1.29317e-07
5.8397e-05
5.83853e-07
-1.42467e-07
-9.60137e-07
-1.22104e-07
-2.77506e-07
5.59426e-07
-3.35487e-07
4.91853e-07
-1.02234e-07
2.73325e-05
3.32648e-07
7.27318e-07
2.29614e-07
-1.68365e-07
2.8409e-08
-5.67167e-08
-5.39716e-06
8.35679e-07
-3.35989e-07
3.56324e-06
-1.30851e-06
1.64771e-06
-8.55391e-07
4.94462e-07
-3.22147e-06
6.16133e-07
-1.14564e-06
3.6103e-06
-3.09458e-06
5.48663e-07
-1.72494e-07
1.6019e-07
2.45598e-06
-9.37115e-07
2.30055e-07
-1.30087e-07
7.59913e-07
-3.03618e-05
-3.86287e-06
3.42494e-06
3.07891e-05
-4.65788e-05
6.68276e-06
-8.82401e-06
4.87173e-05
6.53239e-06
-7.81576e-06
-8.34124e-05
7.19367e-06
-7.07625e-06
8.45784e-05
-6.57536e-06
-6.44779e-05
-3.15467e-06
-2.15278e-06
8.8883e-06
6.74724e-05
-0.000120402
3.23481e-06
-1.12291e-05
-2.02772e-07
0.000122486
6.11264e-06
7.83928e-06
-1.97381e-06
-4.26272e-05
3.48725e-06
-6.40863e-06
3.96831e-05
1.81758e-05
-2.64318e-06
0.00024408
4.12833e-06
-1.41043e-06
3.80867e-06
-5.73048e-07
-5.48673e-06
-6.19808e-06
-5.30943e-06
-4.82493e-06
1.27948e-05
8.19631e-06
0.000212832
-6.49479e-06
-3.2428e-06
-4.58932e-06
-1.81002e-06
-2.79073e-07
-1.84994e-05
0.000249317
1.64567e-07
7.94297e-06
1.84811e-06
7.23314e-06
2.07446e-06
1.92174e-06
3.92332e-06
-7.44879e-05
2.49522e-05
1.1705e-06
-4.59698e-06
5.26831e-05
-7.42922e-07
-7.44895e-07
7.01816e-06
-6.85811e-06
-2.06747e-06
3.39524e-06
-2.28096e-05
4.55641e-06
-6.16227e-06
2.44177e-05
7.54129e-06
-7.53191e-05
4.07679e-06
-8.58676e-08
-1.0909e-06
6.48778e-05
2.42929e-05
-1.02286e-05
0.000227657
-6.25544e-06
-6.31177e-06
-4.26806e-06
-2.74356e-06
2.12754e-06
8.19803e-07
0.000201252
-4.92998e-06
-1.69122e-06
0.000143615
-1.4179e-06
-2.50608e-06
4.00817e-07
-1.64024e-06
-1.71245e-06
-2.05666e-06
-7.86823e-06
1.71648e-06
-4.88672e-06
-1.46649e-06
7.57499e-06
8.18167e-07
3.33636e-08
2.5564e-06
-2.01029e-06
4.93028e-08
-1.44695e-06
-6.00732e-05
5.8113e-06
-1.13291e-06
8.01034e-07
5.79018e-05
-3.30804e-06
-4.51017e-06
-6.56517e-06
7.57781e-05
-3.57349e-07
1.38597e-06
8.30226e-07
-1.11221e-06
-4.70684e-06
-6.66658e-06
-5.90758e-06
-3.08157e-07
-6.19636e-08
3.15653e-05
-2.78562e-07
-3.8191e-06
-1.06901e-06
5.73696e-08
-2.02948e-06
-4.14292e-07
-2.28774e-06
4.78801e-07
-5.36278e-07
3.45838e-07
-6.57314e-08
1.40158e-06
-8.20847e-07
1.31293e-08
-5.17425e-07
3.82193e-07
1.67501e-07
-2.45944e-07
-3.1125e-07
-4.08071e-06
2.59159e-06
-5.14477e-06
6.8541e-08
-1.93519e-06
2.49008e-06
-9.33386e-07
4.62321e-07
-1.45787e-07
-5.04941e-07
3.86551e-08
1.9128e-07
2.43995e-07
-3.12492e-05
-3.62055e-06
3.35194e-06
3.15213e-05
-5.01078e-05
3.45201e-06
-4.48784e-06
5.11466e-05
5.22368e-06
-6.64246e-06
-8.56409e-05
6.63204e-06
-5.6294e-06
8.6057e-05
-6.64333e-06
-7.14343e-05
-1.94011e-06
-3.81161e-06
9.30669e-06
7.45227e-05
-0.000123293
3.0754e-06
-1.03542e-05
1.10646e-06
0.000122711
6.75429e-06
4.51399e-06
-5.04998e-07
-3.40214e-05
3.7007e-06
-3.90149e-06
3.02132e-05
1.46251e-05
1.23684e-06
0.00024353
3.77918e-06
-1.75906e-06
3.77619e-06
-3.7408e-07
-5.72515e-06
-6.09078e-06
-4.88544e-06
-4.03264e-06
1.49917e-05
1.22793e-05
0.000218876
-6.86001e-06
-4.16084e-06
-5.19169e-06
-2.47689e-06
4.23214e-06
-6.13307e-06
0.000241976
-1.29301e-06
5.71998e-06
4.84945e-07
5.12963e-06
4.03909e-06
5.26492e-06
4.88755e-06
-5.29922e-05
2.84904e-06
5.72435e-07
-1.56445e-06
5.53673e-05
-3.02628e-06
2.05902e-06
3.58205e-06
-2.74967e-06
-5.49336e-06
5.62825e-06
-2.38248e-05
4.44311e-06
-3.9819e-06
2.33666e-05
2.72345e-06
-5.96583e-05
-3.3518e-07
3.39649e-06
3.36207e-06
5.05114e-05
2.41284e-05
7.80943e-06
0.000215435
-6.50392e-06
-4.40834e-06
-4.74692e-06
-2.81937e-06
1.50264e-05
2.12065e-05
0.000201427
-1.07957e-07
7.51569e-07
0.000140464
3.04023e-06
1.82515e-06
3.31634e-06
2.37217e-07
2.29417e-06
6.87751e-07
-8.8461e-06
4.00357e-07
-2.51472e-06
-1.92382e-07
1.10449e-05
4.16596e-06
4.19472e-06
3.22292e-06
-1.97656e-06
-1.21053e-06
-8.39651e-06
-5.70502e-05
4.96987e-07
1.00725e-06
1.27899e-06
5.47624e-05
-4.95409e-07
1.00666e-06
1.86348e-06
8.07444e-05
-1.2451e-06
-1.58952e-06
2.68307e-07
-2.40619e-06
1.50617e-06
1.89502e-06
1.54426e-06
-2.2023e-07
3.17138e-06
4.48949e-05
-5.59117e-07
-1.66117e-07
-7.70764e-08
1.5441e-06
3.21482e-06
1.97578e-06
1.54579e-06
-6.58571e-07
-1.45448e-06
1.0986e-06
1.22329e-06
1.4059e-07
2.58586e-07
-4.21584e-07
-1.19965e-06
6.51125e-07
-4.70671e-07
5.96744e-07
2.17107e-07
-9.94051e-07
2.47729e-06
1.2327e-06
-1.49295e-06
-3.52887e-07
4.63663e-06
2.74742e-06
-1.79028e-06
1.67367e-06
-4.09606e-06
4.60979e-07
1.35782e-06
-4.76453e-07
-1.34271e-06
-3.18857e-05
-3.23593e-06
2.98355e-06
3.2138e-05
-5.16592e-05
1.19414e-06
-1.76342e-06
5.22285e-05
4.40224e-06
-4.52813e-06
-8.62104e-05
4.8297e-06
-5.01575e-06
8.65223e-05
-6.39519e-06
-7.70043e-05
-7.70755e-07
-4.29475e-06
9.37605e-06
7.9089e-05
-0.000122549
2.19496e-06
-9.81709e-06
1.40728e-06
0.000121475
7.28895e-06
3.26263e-06
-2.20186e-06
-2.88511e-05
2.55498e-06
-4.0985e-06
2.93338e-05
1.09262e-05
3.07808e-06
0.000239614
3.15198e-06
-2.54803e-06
2.37473e-06
-1.99939e-06
-3.446e-06
-3.64003e-06
-2.56707e-06
-1.4146e-06
1.31114e-05
1.12373e-05
0.00022601
-7.41115e-06
-4.43498e-06
-5.9377e-06
-2.77326e-06
4.75152e-06
-3.95601e-06
0.000239601
-1.25742e-06
5.9702e-06
9.33113e-09
2.90969e-06
3.76057e-06
5.53644e-07
2.74488e-06
-7.23821e-05
9.74585e-06
8.21529e-06
-2.25092e-06
6.14234e-05
-1.43449e-05
-9.31383e-06
6.6059e-06
8.23327e-06
8.81956e-06
-2.26567e-05
4.28652e-06
-3.65256e-06
2.20235e-05
2.82737e-06
-4.10187e-05
1.94002e-06
1.55202e-06
2.10323e-06
3.2596e-05
1.98624e-05
1.13948e-05
0.000199028
-4.33699e-06
-3.94349e-06
-1.27782e-06
-2.21438e-06
1.45781e-05
2.28393e-05
0.000195109
1.26055e-06
2.0533e-06
0.000138677
3.04642e-06
1.35949e-06
1.54151e-06
7.03069e-07
2.15392e-06
2.9079e-07
-1.2572e-05
9.09276e-07
1.84706e-07
7.80423e-07
1.19582e-05
8.85484e-06
-6.11357e-06
2.42784e-07
1.22621e-07
2.37129e-06
-5.47797e-06
-5.31645e-05
-4.44989e-07
1.04464e-06
4.58547e-06
5.15576e-05
-3.57815e-06
2.63704e-06
2.45042e-06
8.69308e-05
-6.6014e-07
-2.24807e-06
2.2934e-07
-2.25672e-06
2.13131e-06
1.65339e-06
1.27181e-06
9.28912e-07
3.81854e-06
5.52975e-05
9.14946e-07
7.84326e-07
7.32593e-07
2.73537e-06
3.01327e-06
2.14576e-06
-3.28758e-06
6.28686e-07
2.57739e-07
5.38337e-06
4.28641e-07
-8.49554e-07
-5.95846e-07
1.01722e-06
-2.37855e-06
-8.32066e-07
4.34754e-07
5.22683e-06
3.05233e-06
1.09261e-06
-2.05921e-07
1.07905e-06
-1.19953e-06
1.77483e-06
1.04523e-06
-1.54708e-06
-1.27298e-06
-3.23879e-05
-2.66226e-06
2.56532e-06
3.24849e-05
-5.24047e-05
-6.16161e-07
6.22698e-07
5.23982e-05
3.29624e-06
-3.3564e-06
-8.67242e-05
3.55698e-06
-3.78734e-06
8.70147e-05
-5.9894e-06
-8.1118e-05
4.10636e-07
-4.9778e-06
9.23808e-06
8.24364e-05
-0.000120567
9.48538e-07
-7.96116e-06
1.49758e-06
0.000119161
6.92121e-06
1.14405e-06
-3.61186e-06
-3.04205e-05
1.83135e-06
-1.51839e-06
3.25754e-05
7.43015e-06
5.93236e-06
0.000233201
1.61733e-06
-4.33731e-06
1.01925e-06
-3.39138e-06
-1.03218e-06
-7.84252e-07
-5.34202e-07
4.93366e-07
8.87074e-06
1.05824e-05
0.000235331
-7.75832e-06
-5.01573e-06
-5.68684e-06
-2.88255e-06
-3.06923e-06
-3.30823e-06
0.000249437
-1.8059e-06
2.94515e-06
1.04368e-07
3.90162e-06
4.57098e-07
-9.33356e-07
7.43633e-07
-5.60513e-05
-3.2347e-06
-6.45612e-07
5.68622e-05
-2.16531e-05
3.9395e-06
-3.90766e-06
2.16213e-05
3.18299e-06
-2.67445e-05
1.66315e-06
-2.31864e-06
4.3768e-07
2.37793e-05
1.56927e-05
1.12847e-05
0.000182411
-7.34089e-08
-3.46784e-06
8.63532e-07
-1.75029e-06
1.1486e-05
1.91375e-05
0.000190761
-4.85398e-07
1.88425e-06
0.000141708
2.82168e-07
-2.74546e-07
5.72889e-08
6.9597e-07
2.24787e-06
7.39541e-07
-1.41218e-05
7.72592e-07
-3.84699e-06
1.09066e-06
1.56201e-05
-4.92459e-05
-1.513e-07
1.5854e-06
3.24888e-06
4.64508e-05
-1.88783e-06
4.60734e-06
1.60669e-06
9.40091e-05
-1.21819e-06
-1.64878e-06
-6.65769e-07
-1.32987e-06
1.28903e-06
9.71787e-07
5.94195e-07
1.17011e-06
2.84978e-06
6.47541e-05
1.6248e-06
1.17603e-06
1.12347e-06
2.23055e-06
2.36936e-06
1.7441e-06
-7.50629e-06
7.79551e-07
6.69358e-07
9.11174e-06
-2.36661e-06
-5.24526e-07
-1.62657e-07
3.05294e-06
-7.57418e-06
-2.38937e-06
2.18404e-06
9.38608e-06
-3.72961e-07
-2.38048e-07
5.86467e-07
4.17013e-07
2.45731e-06
8.23756e-07
9.30972e-07
-1.63087e-06
-1.23398e-07
-3.23138e-05
-2.14426e-06
2.22304e-06
3.22352e-05
-5.23582e-05
-1.27698e-06
1.34326e-06
5.22919e-05
2.42412e-06
-2.44801e-06
-8.71994e-05
2.57433e-06
-2.77158e-06
8.74205e-05
-5.67078e-06
-8.37878e-05
1.28352e-06
-4.96513e-06
8.70807e-06
8.44321e-05
-0.000117715
-5.76859e-07
-6.60951e-06
2.08765e-06
0.000116414
6.40025e-06
3.48439e-07
-4.62554e-06
-3.50175e-05
1.98594e-06
-4.94182e-07
3.78028e-05
3.19435e-06
8.76187e-06
0.00022414
4.74138e-07
-5.36579e-06
6.75034e-08
-3.86859e-06
8.40616e-07
1.3164e-06
9.79815e-07
2.66071e-06
7.75442e-06
9.80689e-06
0.000241519
-7.481e-06
-5.12524e-06
-5.20925e-06
-2.73923e-06
1.65733e-07
-2.07675e-06
0.00025212
-2.33039e-06
3.35964e-06
-3.54108e-07
3.2617e-06
1.06282e-06
4.68526e-07
1.51378e-06
-5.58682e-05
1.33588e-06
-8.54258e-07
5.55532e-05
-2.13814e-05
3.60313e-06
-3.13162e-06
2.09088e-05
1.93291e-06
-2.26647e-05
1.54703e-06
-1.88066e-06
-1.98264e-06
2.30481e-05
1.15094e-05
1.12419e-05
0.000169295
8.72081e-07
-2.16198e-06
1.27547e-06
-8.58635e-07
1.0301e-05
1.6815e-05
0.000184961
-1.48861e-07
1.97504e-06
0.000142647
6.18527e-07
3.61405e-08
5.64404e-07
8.99678e-07
2.50797e-06
8.31481e-07
-1.61782e-05
1.46274e-06
-1.9125e-06
5.21036e-08
1.6427e-05
-4.32098e-05
3.04354e-07
9.98496e-07
1.59423e-06
4.03391e-05
-2.64452e-08
6.04365e-06
1.01028e-06
0.000100112
-1.56283e-06
-9.60897e-07
-4.96434e-07
-8.47223e-07
7.81538e-07
6.93751e-07
4.7761e-07
9.18758e-07
2.35303e-06
7.46083e-05
1.68539e-06
1.18339e-06
1.37075e-06
1.87536e-06
2.06976e-06
1.54805e-06
-1.1256e-05
7.11048e-07
8.72636e-07
1.25661e-05
-3.55807e-06
2.61537e-07
-6.9712e-07
3.9942e-06
-1.07383e-05
-3.01118e-06
2.8828e-06
1.1877e-05
-4.12913e-06
-8.45182e-07
9.95217e-07
2.1572e-07
6.1164e-06
-5.81095e-07
9.75719e-07
-1.6626e-06
1.26766e-06
-3.23136e-05
-1.92772e-06
1.904e-06
3.23374e-05
-5.22007e-05
-1.35402e-06
1.37886e-06
5.21759e-05
1.90083e-06
-1.61627e-06
-8.74342e-05
1.66349e-06
-1.90013e-06
8.73863e-05
-5.07463e-06
-8.49712e-05
1.76867e-06
-4.69747e-06
8.09569e-06
8.4879e-05
-0.000114985
-5.72032e-07
-5.57039e-06
2.75255e-06
0.0001127
5.67419e-06
1.03487e-07
-4.91831e-06
-4.0709e-05
1.90719e-06
-4.06209e-07
4.40228e-05
-2.21281e-06
1.15156e-05
0.000214167
-5.20667e-07
-5.66678e-06
-7.68147e-07
-3.87073e-06
2.06388e-06
3.28569e-06
1.94631e-06
4.20012e-06
6.66284e-06
8.51317e-06
0.000243252
-6.91444e-06
-5.08005e-06
-4.56887e-06
-2.55882e-06
3.67795e-07
-1.38787e-06
0.000255663
-2.761e-06
2.6278e-06
-6.87512e-07
2.26877e-06
1.01811e-06
5.60919e-07
1.11261e-06
-5.58388e-05
5.4707e-07
-4.43181e-07
5.61027e-05
-2.02654e-05
3.03852e-06
-2.5667e-06
1.97935e-05
1.25497e-06
-2.392e-05
1.46933e-06
-1.02306e-06
-3.04987e-06
2.52687e-05
7.28333e-06
1.11099e-05
0.000160928
1.1233e-06
-1.1575e-06
1.52164e-06
2.31372e-09
8.71684e-06
1.4403e-05
0.000177638
-2.27222e-07
1.79771e-06
0.000143467
5.78708e-07
-2.73489e-07
4.29051e-07
8.72583e-07
2.48728e-06
8.44855e-07
-1.68141e-05
1.27014e-06
-1.26731e-06
-5.39247e-07
1.71233e-05
-3.79369e-05
3.8204e-07
2.41121e-07
1.95732e-07
3.56441e-05
1.47391e-06
6.93842e-06
7.29053e-07
0.000104843
-1.35074e-06
-7.09703e-07
-3.65284e-07
-6.91339e-07
7.13325e-07
5.60592e-07
5.54301e-07
7.12247e-07
2.06147e-06
8.33966e-05
1.85892e-06
1.2778e-06
1.67132e-06
1.72728e-06
1.87234e-06
1.37173e-06
-1.45265e-05
8.06537e-07
9.9833e-07
1.52316e-05
-4.34643e-06
7.96052e-07
-1.23357e-06
4.78322e-06
-1.27718e-05
-3.15318e-06
3.20146e-06
1.34526e-05
-7.87319e-06
-1.23198e-06
1.30353e-06
1.57524e-07
9.70559e-06
-1.87718e-06
8.81528e-07
-1.66227e-06
2.65766e-06
-3.22408e-05
-1.67137e-06
1.92377e-06
3.19884e-05
-5.21471e-05
-9.09718e-07
1.04405e-06
5.20128e-05
1.58751e-06
-1.11204e-06
-8.72009e-05
9.16882e-07
-1.20134e-06
8.70099e-05
-4.64366e-06
-8.48591e-05
1.93592e-06
-4.15182e-06
7.47483e-06
8.42438e-05
-0.00011039
-5.40709e-07
-4.84649e-06
3.30988e-06
0.000107656
4.81069e-06
1.10336e-07
-5.02049e-06
-4.7263e-05
2.47289e-06
-7.69171e-07
5.04694e-05
-6.1612e-06
1.4201e-05
0.000207582
-1.51669e-06
-5.93408e-06
-1.61617e-06
-4.33724e-06
2.16076e-06
3.99683e-06
1.0324e-06
4.76026e-06
4.03392e-06
7.91355e-06
0.000242958
-6.40905e-06
-4.9645e-06
-4.10873e-06
-2.33288e-06
2.60244e-07
-3.09227e-07
0.000260113
-3.13729e-06
1.41501e-06
-1.20178e-06
1.02396e-06
5.09317e-07
4.21549e-07
6.02975e-07
-5.65638e-05
-9.54085e-08
2.32701e-07
5.66871e-05
-1.92435e-05
2.94186e-06
-2.38906e-06
1.8692e-05
5.32934e-07
-2.65794e-05
1.65969e-06
9.40893e-08
-3.28369e-06
2.75764e-05
3.74526e-06
1.1522e-05
0.000156141
1.19329e-06
-9.82711e-08
1.71782e-06
9.07469e-07
6.18455e-06
1.22034e-05
0.000170909
-8.81404e-07
1.52884e-06
0.000145444
2.26359e-07
-7.51562e-07
2.8864e-07
7.50485e-07
2.09878e-06
6.38559e-07
-1.7528e-05
9.4733e-07
-1.21903e-06
-7.86166e-07
1.77044e-05
-3.37023e-05
4.56968e-07
-7.99347e-07
-8.74263e-07
3.23979e-05
2.52101e-06
6.88203e-06
7.17741e-07
0.000108125
-8.00727e-07
-5.08604e-07
2.17396e-07
-5.78636e-07
9.08106e-07
6.12407e-07
7.90598e-07
7.70981e-07
1.71723e-06
9.11079e-05
1.91115e-06
1.32168e-06
1.65355e-06
1.40176e-06
1.57712e-06
1.02072e-06
-1.70233e-05
1.01656e-06
8.59386e-07
1.74472e-05
-5.14855e-06
1.10857e-06
-1.5378e-06
5.57803e-06
-1.40045e-05
-2.77686e-06
2.96793e-06
1.45311e-05
-1.13239e-05
-1.16043e-06
1.38389e-06
6.11431e-08
1.27566e-05
-3.30337e-06
8.60158e-07
-1.54536e-06
3.98857e-06
-3.16505e-05
-1.39301e-06
1.71584e-06
3.13277e-05
-5.17857e-05
-4.43292e-07
6.40813e-07
5.15881e-05
8.53451e-07
-8.50031e-07
-8.68945e-05
3.51488e-07
-3.48365e-07
8.68879e-05
-4.09235e-06
-8.36005e-05
2.04141e-06
-3.45515e-06
6.68781e-06
8.24188e-05
-0.000105052
-6.56139e-07
-4.19753e-06
3.7741e-06
0.000102212
3.91963e-06
1.96941e-07
-5.32511e-06
-5.30643e-05
4.07767e-06
-1.32746e-06
5.54423e-05
-8.03349e-06
1.73142e-05
0.000204795
-2.39478e-06
-6.45896e-06
-2.46648e-06
-4.8404e-06
5.97694e-07
4.2368e-06
-4.13546e-07
5.24556e-06
9.54924e-07
8.12164e-06
0.000242727
-5.96078e-06
-4.83435e-06
-3.77419e-06
-2.30951e-06
7.77677e-08
1.55563e-06
0.000264483
-3.65397e-06
-4.21764e-08
-1.62148e-06
-3.02694e-07
8.86823e-08
3.05169e-07
1.77118e-07
-5.71301e-05
-1.11147e-06
9.81363e-07
5.7339e-05
-1.8286e-05
2.8726e-06
-2.40981e-06
1.78232e-05
2.63255e-07
-2.83492e-05
1.65816e-06
2.66041e-07
-3.16096e-06
2.93227e-05
1.39093e-06
1.26919e-05
0.000153467
1.51199e-06
6.35782e-07
2.28049e-06
1.47664e-06
3.32924e-06
1.06114e-05
0.000166481
-1.10635e-06
1.28745e-06
0.000147897
1.55993e-07
-1.07559e-06
1.3164e-07
5.58235e-07
1.96652e-06
5.1307e-07
-1.82092e-05
7.4682e-07
-1.15989e-06
-1.16255e-06
1.86785e-05
-3.11144e-05
1.03069e-06
-1.28492e-06
-1.22944e-06
2.96665e-05
2.93157e-06
6.32297e-06
8.65796e-07
0.000111974
-3.12074e-07
-5.07062e-07
3.04767e-07
-8.50171e-07
1.11189e-06
8.35475e-07
1.0712e-06
9.05024e-07
1.34481e-06
9.78685e-05
1.77079e-06
1.54886e-06
1.6212e-06
1.01614e-06
1.25426e-06
7.12643e-07
-1.90863e-05
1.19789e-06
6.48848e-07
1.94321e-05
-5.91706e-06
1.49581e-06
-1.96663e-06
6.38788e-06
-1.50323e-05
-2.06652e-06
2.36105e-06
1.56036e-05
-1.40301e-05
-1.01326e-06
1.42346e-06
-6.88933e-08
1.50336e-05
-4.4626e-06
7.81376e-07
-1.37533e-06
5.05727e-06
-3.09694e-05
-1.21426e-06
1.72846e-06
3.04552e-05
-5.14343e-05
1.28556e-07
1.25267e-07
5.11805e-05
2.06676e-07
-4.89054e-07
-8.67757e-05
2.70481e-08
4.26446e-07
8.66045e-05
-3.62181e-06
-8.13462e-05
1.61798e-06
-2.63789e-06
6.01583e-06
7.99721e-05
-9.96382e-05
-1.081e-06
-2.70246e-06
4.04697e-06
9.65567e-05
2.81792e-06
3.14692e-07
-5.62933e-06
-5.72824e-05
5.37617e-06
-1.6543e-06
5.88752e-05
-8.25691e-06
2.03997e-05
0.000205408
-3.25385e-06
-7.01019e-06
-3.42787e-06
-5.65663e-06
-1.11805e-06
4.34667e-06
-1.76866e-06
5.13237e-06
-9.17508e-07
8.89999e-06
0.000243516
-5.80924e-06
-4.93387e-06
-3.76409e-06
-2.52078e-06
2.27879e-07
3.04187e-06
0.000267179
-3.91278e-06
-8.42182e-07
-1.84202e-06
-7.91682e-07
1.51519e-09
3.22492e-07
1.81921e-07
-5.76236e-05
-2.05111e-06
2.182e-06
5.77214e-05
-1.71784e-05
2.80998e-06
-1.92902e-06
1.62974e-05
-6.72035e-08
-3.03453e-05
1.52498e-06
3.88718e-08
-2.73846e-06
3.15871e-05
-7.56339e-07
1.43315e-05
0.00015247
1.90041e-06
1.09419e-06
2.74369e-06
2.08342e-06
5.36354e-07
9.74558e-06
0.000164342
-1.17681e-06
1.21045e-06
0.000149019
1.30699e-07
-1.06641e-06
1.19036e-07
6.31006e-07
2.03961e-06
5.69314e-07
-1.95578e-05
2.89933e-07
-1.11156e-06
-1.34478e-06
2.05474e-05
-2.85697e-05
1.29469e-06
-1.26248e-06
-1.88186e-06
2.73052e-05
3.11416e-06
4.93857e-06
1.23878e-06
0.000116682
-1.17125e-08
-6.68214e-07
6.26892e-07
-4.75592e-07
1.41339e-06
1.12463e-06
1.43623e-06
9.36748e-07
1.15796e-06
0.000103304
1.63958e-06
1.57896e-06
1.47466e-06
8.25359e-07
1.04312e-06
5.92573e-07
-2.12233e-05
1.26378e-06
5.90418e-07
2.15163e-05
-6.68371e-06
1.58518e-06
-1.98605e-06
7.08458e-06
-1.60331e-05
-1.04699e-06
1.56266e-06
1.67562e-05
-1.60449e-05
-9.11437e-07
1.36244e-06
-2.4777e-07
1.69996e-05
-5.61934e-06
6.96169e-07
-1.24316e-06
6.16634e-06
-2.9702e-05
-1.15112e-06
2.27674e-06
2.85764e-05
-5.07678e-05
4.07519e-07
1.40268e-07
5.022e-05
-1.11806e-06
3.22107e-08
-8.66484e-05
-8.51766e-07
1.79654e-06
8.67895e-05
-3.7215e-06
-7.87288e-05
1.16351e-06
-1.0419e-06
5.20908e-06
7.71196e-05
-9.41706e-05
-1.80414e-06
-1.34056e-06
4.01112e-06
9.21769e-05
1.12733e-06
-4.97151e-07
-5.73809e-06
-6.00179e-05
6.12037e-06
-1.0749e-06
6.12076e-05
-6.25616e-06
2.29147e-05
0.000210267
-4.30228e-06
-7.88805e-06
-4.70244e-06
-6.64285e-06
-2.42445e-06
3.40339e-06
-2.66051e-06
3.70042e-06
-7.10993e-07
1.05943e-05
0.000245359
-5.94881e-06
-5.28452e-06
-3.88269e-06
-2.86657e-06
3.79052e-07
4.71332e-06
0.000268638
-4.2011e-06
-1.20736e-06
-1.97715e-06
-1.06848e-06
2.27021e-07
4.22502e-07
5.41784e-07
-5.77055e-05
-2.44367e-06
3.37217e-06
5.71561e-05
-1.53497e-05
2.65968e-06
-1.8097e-06
1.44997e-05
4.01544e-09
-3.27725e-05
9.65636e-07
-2.99219e-07
-2.05932e-06
3.41613e-05
-2.28694e-06
1.55131e-05
0.000153601
1.99003e-06
1.4532e-06
2.64652e-06
2.46818e-06
-1.31122e-06
9.87061e-06
0.00016409
-1.02299e-06
1.31269e-06
0.000149049
1.277e-07
-1.0046e-06
8.16672e-08
8.08364e-07
2.25538e-06
8.13564e-07
-2.18191e-05
-8.49059e-08
-9.59879e-07
-1.39527e-06
2.32362e-05
-2.5979e-05
6.39854e-07
-9.99779e-07
-1.54926e-06
2.51986e-05
2.68965e-06
3.92361e-06
1.33466e-06
0.000121426
1.57325e-07
-1.23559e-07
8.18537e-07
1.17373e-07
1.60226e-06
1.28975e-06
1.64924e-06
7.76923e-07
9.80232e-07
0.000108973
1.42732e-06
1.44157e-06
1.31729e-06
7.29869e-07
9.22436e-07
5.29303e-07