/*--------------------------------*- C++ -*----------------------------------*\
| =========                 |                                                 |
| \\      /  F ield         | OpenFOAM: The Open Source CFD Toolbox           |
|  \\    /   O peration     | Version:  5.x                                   |
|   \\  /    A nd           | Web:      www.OpenFOAM.org                      |
|    \\/     M anipulation  |                                                 |
\*---------------------------------------------------------------------------*/
FoamFile
{
    version     2.0;
    format      ascii;
    class       volScalarField;
    location    "6.05";
    object      p;
}
// * * * * * * * * * * * * * * * * * * * * * * * * * * * * * * * * * * * * * //

dimensions      [0 2 -2 0 0 0 0];

internalField   nonuniform List<scalar> 
10571
(
70.493
132.831
126.153
128.133
129.595
155.268
177.124
182.568
179.45
160.478
167.027
200.318
213.765
214.973
209.919
177.397
210.888
223.778
228.047
217.89
185.606
212.105
218.826
205.247
21.8052
33.704
23.5593
21.7639
24.2468
40.3586
29.561
25.5736
17.9328
37.5937
58.9015
56.5508
19.3502
11.3478
11.0586
24.5882
82.2703
10.8303
9.82008
66.018
54.7523
74.7544
74.2329
71.6326
21.4259
6.77746
20.9936
20.4465
7.24633
10.2664
2.51291
2.79495
1.55613
2.41208
3.14366
3.53111
1.74996
1.60989
1.70519
3.20351
2.61598
1.47773
1.57896
1.98408
2.1744
2.22228
2.15387
1.99892
1.96703
2.56609
2.41346
1.97881
2.58795
2.66289
2.3385
2.35688
2.68164
2.54513
2.77049
2.71938
2.7032
2.74294
2.74587
2.53295
2.5772
2.6331
2.68933
2.38837
2.42578
2.49696
2.47574
2.41946
2.50626
2.45954
2.41415
2.42406
2.43991
2.46752
2.66665
2.72379
2.51862
2.48248
2.48297
2.46948
2.49922
2.4803
2.50043
2.45312
2.51627
2.53392
2.51206
2.48252
2.49793
2.50264
2.47771
2.47632
2.49088
2.47899
2.46057
2.47233
2.44949
2.50911
2.49907
2.55347
2.49882
2.49568
2.52776
2.47836
2.48569
2.48407
2.48981
2.50999
2.49295
2.50466
2.5003
2.52312
2.52911
2.51629
2.49833
2.49291
2.49771
2.50173
2.50917
2.49792
2.49784
2.49621
2.48449
2.50815
2.46226
2.47342
2.51152
2.52236
2.53579
2.4883
2.49547
2.49503
2.50037
2.50508
2.49342
2.51996
2.5032
2.51462
2.53329
2.51382
2.51059
2.52206
2.48645
2.49989
2.51938
2.52705
2.51033
2.5144
2.51354
2.51816
2.50429
2.48992
2.48189
2.50878
2.50882
2.52922
2.50996
2.50303
2.48787
2.49712
2.49126
2.49821
2.52815
2.50793
2.50218
2.51408
2.48702
2.47643
2.52017
2.48353
2.48181
2.50193
2.54149
2.51612
2.53008
2.53117
2.54698
2.50186
2.50359
2.48882
2.50568
2.50896
2.53965
2.51243
2.5076
2.48404
2.49489
2.50182
2.49884
2.54989
2.51528
2.50414
2.50234
2.47254
2.46792
2.48711
2.4595
2.49216
2.53852
2.51178
2.5355
2.54568
2.54248
2.49006
2.50856
2.49917
2.49809
2.47202
2.50934
2.50888
2.49243
2.49794
2.5057
2.49731
2.51769
2.50706
2.49914
2.47007
2.48154
2.50553
2.51215
2.49796
2.52445
2.50313
2.52992
2.5408
2.53425
2.47703
2.50335
2.53177
2.49504
2.49173
2.50219
2.50421
2.49684
2.50538
2.50839
2.50337
2.51272
2.5056
2.49464
2.4881
2.50184
2.5136
2.51245
2.50383
2.53677
2.49376
2.51779
2.53454
2.52582
2.46517
2.48565
2.53417
2.49744
2.50591
2.49693
2.49654
2.49247
2.51094
2.5138
2.51065
2.50454
2.50839
2.50244
2.50836
2.51032
2.51451
2.51244
2.50992
2.54107
2.48797
2.50281
2.52411
2.51345
2.46314
2.46438
2.51502
2.48706
2.50882
2.49606
2.49202
2.48854
2.51095
2.51473
2.51198
2.50211
2.51343
2.5144
2.51868
2.51465
2.51651
2.51672
2.5149
2.51685
2.48946
2.49222
2.51075
2.49977
2.47697
2.46018
2.49727
2.47866
2.50114
2.50146
2.49528
2.49525
2.50863
2.51302
2.50759
2.50584
2.51916
2.52064
2.51914
2.51369
2.51907
2.51968
2.51704
2.50753
2.49918
2.49386
2.50375
2.49093
2.49652
2.48108
2.49531
2.48721
2.49759
2.51231
2.50498
2.50694
2.51117
2.51279
2.50725
2.50783
2.52293
2.52388
2.51223
2.51095
2.5206
2.52132
2.51745
2.51076
2.51289
2.50516
2.50847
2.49493
2.51791
2.50507
2.51001
2.51132
2.51104
2.52404
2.51553
2.52008
2.51967
2.50996
2.51164
2.50405
2.52596
2.52533
2.50446
2.51026
2.52234
2.52234
2.51767
2.52069
2.5265
2.51981
2.51982
2.51338
2.53774
2.52594
2.52493
2.53315
2.52517
2.53395
2.52777
2.52745
2.52661
2.52267
2.52191
2.51598
2.52762
2.52531
2.50758
2.51591
2.52524
2.52472
2.51939
2.52963
2.53643
2.5309
2.52873
2.52882
2.54672
2.54009
2.53185
2.54422
2.53159
2.54022
2.53782
2.53344
2.53101
2.53428
2.52914
2.52711
2.53144
2.52945
2.525
2.52572
2.52938
2.52896
2.52762
2.53325
2.54168
2.53497
2.53034
2.53312
2.54465
2.54359
2.53
2.54097
2.53252
2.5475
2.54171
2.53561
2.5323
2.53038
2.5312
2.53162
2.53683
2.53389
2.53292
2.53169
2.53294
2.53278
2.53463
2.53254
2.53968
2.53352
2.52936
2.53191
2.54741
2.54003
2.52758
2.5317
2.53098
2.55101
2.55075
2.5356
2.53207
2.52466
2.53023
2.53672
2.53851
2.53479
2.53457
2.5328
2.53334
2.53426
2.53673
2.5296
2.53197
2.52878
2.52759
2.52882
2.53433
2.53076
2.53016
2.52775
2.52939
2.54423
2.55032
2.53564
2.53138
2.52283
2.52846
2.54209
2.53347
2.53053
2.53181
2.53374
2.53175
2.53325
2.53493
2.52703
2.52403
2.52418
2.52655
2.52917
2.51963
2.52348
2.53056
2.52638
2.52839
2.53048
2.52932
2.53122
2.52902
2.52347
2.52782
2.53561
2.52611
2.52691
2.52989
2.53381
2.53037
2.53198
2.53258
2.52556
2.51909
2.52176
2.52608
2.52748
2.50956
2.51893
2.52962
2.52564
2.52787
2.51774
2.51139
2.52332
2.52592
2.52438
2.52735
2.52648
2.52082
2.52512
2.52823
2.53292
2.52781
2.52967
2.53148
2.52557
2.51984
2.52323
2.52543
2.52591
2.50732
2.51956
2.5235
2.52303
2.52733
2.50923
2.50137
2.5186
2.52186
2.52508
2.52845
2.51961
2.51812
2.52572
2.52755
2.53252
2.52536
2.52659
2.52954
2.52716
2.52533
2.52702
2.52569
2.52573
2.51694
2.52805
2.516
2.52103
2.52628
2.50909
2.50376
2.51714
2.51844
2.52595
2.52765
2.51674
2.51779
2.53042
2.52832
2.53231
2.52485
2.52611
2.52873
2.52874
2.53041
2.53097
2.52665
2.5269
2.52883
2.54067
2.51704
2.51956
2.52683
2.51477
2.51611
2.51822
2.51997
2.52943
2.52787
2.51847
2.52395
2.53604
2.52931
2.5322
2.52734
2.52881
2.53074
2.53099
2.53271
2.53356
2.52659
2.53019
2.52924
2.54091
2.52632
2.52564
2.53008
2.52135
2.51943
2.52746
2.5237
2.53383
2.53005
2.52152
2.53087
2.53577
2.52964
2.53336
2.52993
2.53112
2.53271
2.53484
2.5343
2.53495
2.53104
2.53479
2.52735
2.53804
2.53608
2.53382
2.53451
2.52813
2.51837
2.53325
2.5309
2.53594
2.5344
2.52831
2.53351
2.534
2.53129
2.53614
2.53295
2.53385
2.53495
2.53786
2.53661
2.53665
2.53667
2.53812
2.53242
2.53786
2.54228
2.53711
2.53792
2.53699
2.52951
2.53543
2.53758
2.53852
2.5382
2.53809
2.53598
2.53448
2.53568
2.53895
2.53702
2.53699
2.53826
2.53768
2.53896
2.53847
2.537
2.53846
2.53851
2.54042
2.54527
2.53759
2.53983
2.54736
2.54197
2.54469
2.54206
2.54186
2.54118
2.54812
2.54109
2.53841
2.5403
2.54232
2.54229
2.54124
2.54254
2.53828
2.53936
2.54052
2.538
2.53998
2.5416
2.53993
2.54388
2.53766
2.54061
2.55732
2.55078
2.55115
2.54596
2.54648
2.54361
2.55404
2.54491
2.54221
2.54264
2.54493
2.54797
2.54597
2.54628
2.54076
2.5383
2.54159
2.53873
2.54179
2.53849
2.53841
2.54128
2.53775
2.54068
2.56281
2.55954
2.55575
2.54812
2.54988
2.54528
2.55467
2.54334
2.54248
2.54225
2.54576
2.55192
2.54954
2.54769
2.54526
2.53775
2.54141
2.54109
2.54248
2.53392
2.53591
2.53916
2.53842
2.54
2.55934
2.5531
2.55247
2.54558
2.54724
2.54374
2.55063
2.54178
2.53989
2.54134
2.54403
2.5513
2.54864
2.54628
2.54174
2.53821
2.54044
2.53996
2.54113
2.53368
2.53431
2.53751
2.53802
2.5388
2.55519
2.54993
2.54512
2.54233
2.54043
2.54046
2.55065
2.54073
2.53756
2.53896
2.53993
2.54794
2.54578
2.54311
2.54116
2.53976
2.53993
2.53968
2.5394
2.53579
2.53496
2.53758
2.53699
2.53712
2.55099
2.54694
2.53642
2.54016
2.53642
2.53803
2.55342
2.53909
2.53651
2.53547
2.53535
2.54451
2.54298
2.54025
2.54126
2.54128
2.54007
2.53976
2.53778
2.53823
2.53589
2.53777
2.5364
2.53724
2.54681
2.54387
2.52924
2.53806
2.53455
2.53706
2.55477
2.53546
2.5366
2.53212
2.53225
2.54185
2.54048
2.5382
2.54215
2.54246
2.54016
2.54044
2.53759
2.54019
2.53644
2.53744
2.53719
2.53813
2.54205
2.54018
2.52632
2.53486
2.53483
2.53664
2.54758
2.53268
2.53655
2.53188
2.53271
2.53879
2.53823
2.53709
2.54289
2.54323
2.54151
2.54165
2.53942
2.5409
2.53905
2.53742
2.53845
2.53879
2.53746
2.53656
2.53045
2.53309
2.53666
2.53781
2.54156
2.53309
2.53648
2.5343
2.53558
2.53833
2.53672
2.53706
2.54338
2.54254
2.54144
2.54232
2.54203
2.54052
2.54171
2.53777
2.53994
2.53953
2.53412
2.53279
2.53692
2.53361
2.53901
2.53955
2.53796
2.53687
2.53809
2.53717
2.53832
2.53812
2.53692
2.53881
2.54208
2.54089
2.54082
2.54315
2.54258
2.53898
2.54184
2.53959
2.53997
2.54022
2.53308
2.52969
2.53932
2.53619
2.54089
2.54065
2.53614
2.54059
2.53978
2.54038
2.54056
2.5363
2.53757
2.54023
2.5401
2.53868
2.53931
2.54183
2.54051
2.53725
2.54044
2.53858
2.53893
2.54013
2.53372
2.52874
2.53833
2.53782
2.54097
2.54062
2.53425
2.54024
2.53921
2.54219
2.54124
2.53576
2.5382
2.54112
2.53761
2.53637
2.53694
2.53768
2.5376
2.53535
2.53747
2.53628
2.53758
2.5392
2.53547
2.53177
2.53597
2.53606
2.53919
2.53936
2.53474
2.53347
2.53674
2.53956
2.53987
2.53215
2.53608
2.53813
2.5349
2.53425
2.5345
2.53405
2.53598
2.53339
2.53399
2.53286
2.5352
2.53798
2.53544
2.53404
2.5342
2.53503
2.53621
2.53734
2.54046
2.52502
2.53215
2.53612
2.53769
2.52756
2.5326
2.53322
2.5324
2.53236
2.53242
2.53143
2.53309
2.53105
2.53116
2.53071
2.53322
2.53672
2.53173
2.52986
2.5324
2.5325
2.5319
2.53523
2.53987
2.52778
2.53005
2.53345
2.5353
2.52614
2.53025
2.53123
2.53038
2.53037
2.53045
2.52967
2.53026
2.52805
2.52796
2.52965
2.53273
2.5335
2.52668
2.52352
2.52849
2.52932
2.52839
2.53308
2.52142
2.52893
2.53018
2.53209
2.53356
2.52761
2.5331
2.53261
2.52886
2.52852
2.52895
2.52856
2.52816
2.52523
2.52574
2.52936
2.53219
2.52931
2.52379
2.52112
2.52476
2.52695
2.52689
2.53278
2.51274
2.52534
2.52916
2.53145
2.53231
2.52858
2.5331
2.53225
2.52767
2.52781
2.52787
2.52768
2.52641
2.52449
2.52564
2.5284
2.52942
2.532
2.52406
2.52226
2.52466
2.52605
2.52543
2.5344
2.518
2.52441
2.52892
2.5307
2.53176
2.52898
2.53178
2.53085
2.52658
2.52775
2.52681
2.52684
2.52466
2.5255
2.52478
2.52692
2.52411
2.53072
2.5259
2.52442
2.52458
2.52542
2.52704
2.54129
2.52778
2.52613
2.52888
2.52877
2.53011
2.52967
2.5301
2.52938
2.52559
2.52768
2.526
2.52576
2.52321
2.52581
2.52378
2.5253
2.51717
2.52549
2.52743
2.5262
2.5243
2.5252
2.52265
2.53
2.53337
2.52788
2.52839
2.52654
2.52576
2.53213
2.52901
2.52789
2.52483
2.52734
2.52546
2.5248
2.52238
2.52514
2.52264
2.52316
2.51247
2.52039
2.5279
2.52688
2.52567
2.52455
2.52033
2.51946
2.53291
2.52822
2.52696
2.52432
2.52185
2.53464
2.5284
2.5267
2.52435
2.52692
2.52538
2.52418
2.5221
2.52446
2.5217
2.52155
2.51236
2.51769
2.52804
2.52749
2.52635
2.52459
2.52381
2.51738
2.53072
2.52713
2.52589
2.52195
2.52073
2.53647
2.52806
2.5256
2.52406
2.52652
2.52533
2.52385
2.52201
2.52491
2.52222
2.52131
2.5146
2.51663
2.5284
2.52855
2.52703
2.52449
2.52478
2.52038
2.5293
2.52503
2.52454
2.52202
2.52365
2.53482
2.52747
2.52461
2.52375
2.52638
2.52463
2.52352
2.52171
2.52523
2.52351
2.52061
2.5162
2.5161
2.52861
2.52841
2.52762
2.52311
2.52096
2.51973
2.52822
2.52347
2.52302
2.52133
2.52106
2.52898
2.52533
2.52265
2.52341
2.52677
2.52433
2.52304
2.52099
2.52582
2.52323
2.51953
2.51609
2.51491
2.5286
2.52779
2.52614
2.52132
2.51549
2.51688
2.52732
2.52262
2.52103
2.51935
2.52573
2.52392
2.52274
2.51994
2.52321
2.52807
2.52534
2.52264
2.51965
2.52742
2.5242
2.51833
2.5138
2.51262
2.52904
2.52782
2.52441
2.51826
2.50862
2.51132
2.52688
2.52178
2.51874
2.5143
2.51537
2.52087
2.51972
2.51597
2.52316
2.53047
2.52741
2.52203
2.51776
2.53013
2.52642
2.51657
2.5103
2.50907
2.5305
2.52918
2.52517
2.51494
2.50196
2.50472
2.52741
2.52202
2.51543
2.50695
2.506
2.52068
2.51743
2.5119
2.52372
2.53369
2.52971
2.52214
2.51567
2.53368
2.52809
2.51597
2.50548
2.50451
2.53331
2.53189
2.52673
2.51222
2.49527
2.49771
2.52985
2.52398
2.51244
2.5023
2.50042
2.52346
2.51658
2.5089
2.52524
2.53757
2.53301
2.52331
2.51367
2.53844
2.53259
2.51403
2.49813
2.49672
2.53779
2.53654
2.5305
2.50985
2.48686
2.48702
2.53385
2.52726
2.5121
2.49727
2.49161
2.52751
2.51743
2.50602
2.52754
2.54271
2.53757
2.52543
2.51171
2.54454
2.53926
2.51281
2.48682
2.48446
2.54376
2.5427
2.53965
2.50713
2.47324
2.46957
2.5387
2.53128
2.50973
2.48969
2.47665
2.53099
2.51618
2.50144
2.53107
2.54958
2.54248
2.52759
2.50874
2.55183
2.54374
2.50977
2.47012
2.45951
2.55019
2.54922
2.54632
2.50205
2.45246
2.43582
2.54336
2.53617
2.50635
2.47637
2.45087
2.53436
2.5142
2.49445
2.53614
2.55723
2.54846
2.52962
2.50403
2.55856
2.5465
2.5054
2.44015
2.40643
2.55659
2.55455
2.54663
2.49491
2.41593
2.35652
2.549
2.53996
2.503
2.45658
2.40425
2.53619
2.51223
2.48612
2.54309
2.56569
2.5541
2.53189
2.4989
2.56431
2.54746
2.49636
2.39887
2.27164
2.56346
2.56002
2.54202
2.48518
2.36328
2.16803
2.55862
2.54167
2.50214
2.43138
2.31634
2.53796
2.51339
2.47995
2.55019
2.57028
2.55787
2.53537
2.49535
2.57036
2.54946
2.48766
2.35529
1.89016
2.56924
2.56351
2.54059
2.47104
2.31484
1.87092
-1.97443
2.56982
2.5477
2.50408
2.41207
2.1333
2.54201
2.51833
2.48061
2.55567
2.57274
2.56111
2.5408
2.49718
2.57392
2.55196
2.50485
2.35231
1.63988
0.0442002
2.57234
2.56762
2.54405
2.48324
2.31106
1.83215
0.0285595
2.57096
2.55846
2.51441
2.4204
1.96316
2.5523
2.53002
2.49738
2.56085
2.57361
2.56196
2.54952
2.51345
2.57611
2.5543
2.52599
2.41163
1.87475
0.462856
2.57393
2.57006
2.55381
2.50788
2.37966
1.88555
0.465551
2.57434
2.57017
2.5344
2.47204
2.17584
0.740175
2.572
2.54937
2.52491
2.56381
2.57117
2.55802
2.55402
2.54485
2.57401
2.55453
2.54109
2.47031
2.02889
0.546771
2.57877
2.57277
2.55283
2.52924
2.45171
2.08126
0.414085
2.58113
2.57778
2.56402
2.50178
2.31092
2.58948
2.57339
2.55859
2.55902
2.56727
2.5495
2.55264
2.5596
2.56093
2.54842
2.55413
2.50958
2.25876
2.58276
2.57257
2.5501
2.54341
2.51394
2.23067
-0.677887
2.58911
2.57374
2.58011
2.54626
2.54499
2.58926
2.58116
2.57924
2.55298
2.55091
2.53682
2.55147
2.5583
2.53805
2.53874
2.56414
2.52693
2.5112
2.57128
2.55462
2.5466
2.54354
2.53418
2.51502
2.57936
2.5689
2.57531
2.56336
2.593
2.58745
2.57774
2.58322
2.54761
2.53981
2.53414
2.54673
2.54892
2.52846
2.53587
2.55047
2.5404
2.5801
2.55418
2.53306
2.53837
2.54439
2.53934
2.57444
2.56614
2.56234
2.56339
2.56233
2.58893
2.57917
2.57182
2.58055
2.53807
2.5374
2.53082
2.53482
2.53516
2.53503
2.53855
2.54939
2.55063
2.5936
2.54772
2.52907
2.53393
2.54767
2.54733
2.58158
2.5542
2.55396
2.56127
2.56052
2.58186
2.57108
2.57595
2.57676
2.52675
2.54184
2.51857
2.51456
2.53059
2.54599
2.5423
2.54442
2.55712
2.59396
2.55352
2.54164
2.53619
2.54731
2.55114
2.57921
2.54767
2.54978
2.56099
2.55685
2.57756
2.56454
2.57206
2.57348
2.52478
2.55593
2.52734
2.51222
2.54593
2.55627
2.54448
2.5578
2.56645
2.5937
2.5641
2.55109
2.54376
2.55245
2.5572
2.58129
2.54443
2.54687
2.55948
2.55763
2.57555
2.55969
2.5657
2.57078
2.56736
2.57789
2.54758
2.54141
2.56584
2.57027
2.55186
2.5665
2.58144
2.60048
2.57283
2.55605
2.54613
2.55857
2.56537
2.58708
2.54249
2.54625
2.55922
2.56116
2.57632
2.55597
2.5616
2.56649
2.58466
2.60486
2.57216
2.55834
2.57693
2.58275
2.56101
2.56181
2.58519
2.60989
2.58056
2.5632
2.55506
2.56126
2.57464
2.5966
2.54145
2.54534
2.55665
2.56521
2.58473
2.55136
2.55914
2.56654
2.60844
2.62403
2.59003
2.57271
2.59348
2.5954
2.56797
2.56976
2.59296
2.62402
2.60367
2.57518
2.55888
2.5654
2.58227
2.60979
2.54591
2.54976
2.55903
2.57256
2.59919
2.54787
2.55969
2.57155
184.52
164.952
185.739
181.492
161.123
181.233
186.587
186.395
213.569
200.356
204.504
224.619
219.885
206.082
205.964
223.43
226.577
206.222
207.136
225.94
224.755
205.28
199.898
225.987
224.186
215.882
226.762
220.464
233.577
232.964
237.892
245.495
250.609
242.561
245.976
249.406
251.992
249.347
249.003
256.515
260.221
250.354
249.697
262.309
263.904
235.852
250.049
232.071
233.662
246.89
253.283
257.164
258.493
263.868
263.086
255.846
258.331
262.122
266.605
265.551
268.919
273.025
278.911
272.371
271.317
280.998
277.308
253.585
235.436
260.536
252.578
263.52
268.243
256.729
269.241
268.835
274.064
275.598
282.637
280.744
286.487
288.113
287.684
284.975
271.763
279.321
261.217
253.518
265.783
275.65
279.099
267.573
279.718
277.353
270.844
268.784
114.391
34.5875
73.3941
104.929
98.6275
25.2974
28.0132
26.3247
99.2251
107.213
24.9815
26.3567
27.2837
117.003
34.385
143.486
73.842
126.229
139.705
141.561
62.6837
43.1295
64.8747
46.3688
135.571
147.638
148.303
41.3261
61.7634
41.8701
62.7643
150.567
77.0484
146.9
144.641
161.497
73.4594
72.6982
74.7582
170.993
156.238
84.4244
86.5104
77.4308
186.56
198.613
82.5168
105.485
130.919
156.211
176.329
91.1724
77.6705
102.396
203.82
139.066
218.094
208.769
213.59
145.653
151.839
144.844
147.758
202.373
210.091
200.72
139.825
127.894
138.367
131.985
115.185
209.193
143.029
218.207
210.018
144.418
144.985
140.266
211.746
208.49
143.841
140.573
138.906
135.827
25.0023
26.6844
22.1093
22.7956
22.2019
25.3772
25.9078
25.1691
21.997
21.7084
25.0707
25.1198
24.7066
23.2932
24.0809
44.2992
31.1841
27.5324
38.4088
28.9931
27.183
27.8012
30.0145
26.5092
29.8719
17.686
30.0569
22.0881
20.9744
19.2113
19.8712
36
17.0339
47.9059
53.3998
51.4891
35.8546
42.4159
39.3016
30.6522
21.8111
13.8223
10.8139
10.5788
60.2182
72.7436
43.0731
34.7833
26.4656
20.8244
44.3873
9.27827
9.54513
8.54159
78.5586
21.2907
81.8556
79.4877
79.0137
22.5787
18.823
15.7821
12.5531
62.457
69.8933
66.0995
5.3191
6.33749
7.16023
6.25273
8.41333
77.1282
9.609
74.9888
75.4661
10.5164
13.8017
15.5752
72.6737
74.6017
12.4986
10.381
14.8737
8.16421
12.0032
2.37751
21.3477
19.7386
21.42
6.44974
2.67527
4.22978
21.4261
17.7466
8.46353
4.55155
2.55883
9.13106
2.23968
4.16731
1.79896
12.0468
6.93372
15.2332
2.07836
2.28123
1.93463
2.25493
3.43521
13.8723
3.73496
1.97179
1.97437
2.3819
1.95877
2.53
2.1179
4.72717
4.32485
5.05218
1.61713
1.42363
1.45262
2.36528
4.42341
2.04353
1.90464
1.80536
3.00164
2.73659
1.70078
1.77496
2.08669
4.55513
1.96347
1.92297
1.96929
2.33558
2.57758
2.20533
2.51231
2.42835
2.34553
2.21756
2.29448
2.30388
2.3967
1.9857
1.98473
1.92729
2.47355
2.44415
2.43638
2.42817
2.48618
2.26779
2.46536
2.29432
2.19983
2.36769
2.32749
2.27126
2.09234
2.05184
2.34665
2.38768
2.28774
2.47935
2.43742
2.52112
1.95839
2.3266
1.8942
2.71543
2.60437
2.76694
1.83277
2.25308
2.63569
2.69761
2.50449
2.44445
2.39607
2.66663
2.332
2.48831
2.60945
2.4795
2.42554
2.48875
2.34388
2.46757
2.60167
2.49071
2.7054
2.31989
2.35414
2.49096
2.33149
2.60618
2.33341
2.74353
2.80928
2.78891
2.33468
2.38498
2.36719
2.55138
2.57591
2.40385
2.40126
2.39029
2.7304
2.6251
2.39442
2.3994
2.39013
2.53091
2.44238
2.4635
2.419
2.46809
2.58525
2.39078
2.55477
2.56725
2.53869
2.40641
2.41725
2.42811
2.44964
2.45263
2.42525
2.44897
2.50273
2.50423
2.47499
2.51501
2.48734
2.52854
2.45391
2.50112
2.53266
2.45329
2.44669
2.49494
2.45328
2.51397
2.45937
2.46674
2.48478
2.46719
2.44846
2.536
2.5001
2.43003
2.51509
2.50356
2.53902
2.51927
2.48961
2.44429
2.4835
2.48732
2.49579
2.4467
2.46905
2.48182
2.49358
2.45136
2.46436
2.44995
2.49828
2.51783
2.48918
2.50202
2.45903
2.44026
2.45511
2.45528
2.45269
2.45259
2.42053
2.47325
2.4527
2.48416
2.48449
2.47862
2.50196
2.50308
2.49985
2.44267
2.44332
2.48451
2.46835
2.32008
2.47483
2.49014
2.48244
2.47526
2.4533
2.43454
2.47744
2.45491
2.24413
2.48289
2.51111
2.45577
2.50826
2.51783
2.52147
2.46151
2.45439
2.47046
2.47747
2.4986
2.4767
2.49763
2.50959
2.50344
2.48897
2.50023
2.49161
2.5124
2.47348
2.48104
2.49138
2.4881
2.48002
2.48096
2.48265
2.47108
2.49184
2.49541
2.4831
2.48652
2.4851
2.51285
2.50494
2.48369
2.51001
2.50431
2.50669
2.50637
2.49119
2.47919
2.49956
2.50073
2.50257
2.46236
2.50436
2.49196
2.50399
2.47819
2.48201
2.4987
2.50447
2.50804
2.50349
2.50317
2.48233
2.48973
2.47088
2.48977
2.5083
2.51679
2.51096
2.49398
2.51494
2.50047
2.50406
2.50151
2.50452
2.50636
2.50221
2.50829
2.50717
2.53867
2.51596
2.52575
2.5138
2.49793
2.53199
2.5058
2.52632
2.53125
2.53266
2.52881
2.52752
2.4737
2.46993
2.48094
2.47569
2.46974
2.53389
2.49798
2.47833
2.49498
2.47997
2.50681
2.50987
2.52207
2.51604
2.52465
2.51838
2.52076
2.51882
2.52432
2.49096
2.47617
2.49787
2.50594
2.50626
2.48346
2.47146
2.49184
2.4937
2.50809
2.50154
2.50569
2.52021
2.514
2.51149
2.50758
2.50191
2.49859
2.48555
2.47759
2.4746
2.48363
2.47349
2.47058
2.50428
2.49714
2.49957
2.51386
2.50387
2.51494
2.5076
2.50787
2.50721
2.50854
2.50854
2.50876
2.51241
2.51071
2.5111
2.51024
2.51753
2.52084
2.52009
2.50302
2.51738
2.50307
2.50788
2.49829
2.50139
2.50214
2.50479
2.50011
2.50631
2.50198
2.51685
2.53001
2.53227
2.49815
2.52595
2.53733
2.5413
2.51992
2.53785
2.53061
2.54021
2.5389
2.53713
2.53647
2.53802
2.50727
2.50682
2.50374
2.50801
2.51336
2.50695
2.53885
2.52281
2.51515
2.51478
2.53351
2.52406
2.52064
2.53366
2.53524
2.53336
2.53237
2.53366
2.5364
2.53951
2.48234
2.48397
2.49868
2.49323
2.49278
2.49604
2.50619
2.50824
2.49481
2.50325
2.49379
2.49435
2.52341
2.51828
2.52409
2.52184
2.52711
2.5116
2.5241
2.49802
2.50008
2.5041
2.50938
2.50862
2.50131
2.49988
2.50589
2.50492
2.51952
2.51518
2.50621
2.49969
2.51477
2.50609
2.50054
2.51528
2.48908
2.50879
2.52798
2.51914
2.52822
2.49813
2.49334
2.46947
2.46217
2.48212
2.46295
2.45312
2.51812
2.50319
2.49408
2.51586
2.49528
2.51206
2.51196
2.51865
2.50981
2.51807
2.51195
2.51677
2.5231
2.51592
2.52962
2.5304
2.53677
2.53627
2.53831
2.53165
2.54144
2.51182
2.51457
2.50677
2.50973
2.5043
2.51478
2.51349
2.51251
2.50761
2.52942
2.54264
2.53792
2.53869
2.53386
2.55221
2.535
2.53615
2.5378
2.53362
2.53525
2.53647
2.5389
2.53876
2.54173
2.50836
2.51875
2.50727
2.50725
2.51696
2.50593
2.53044
2.51489
2.52158
2.50723
2.52835
2.50362
2.51877
2.53496
2.53871
2.54359
2.53282
2.53785
2.54745
2.54799
2.50273
2.50171
2.5133
2.50624
2.50885
2.51009
2.49394
2.50438
2.49838
2.51477
2.48907
2.50937
2.53134
2.51814
2.52814
2.53743
2.53598
2.52518
2.53323
2.50847
2.5141
2.50831
2.51302
2.5125
2.51208
2.5131
2.51475
2.51312
2.49686
2.50525
2.4989
2.48006
2.48426
2.50566
2.4984
2.50556
2.45142
2.50575
2.52927
2.52401
2.53316
2.50073
2.50101
2.45826
2.45108
2.48467
2.45812
2.45095
2.50564
2.47948
2.4681
2.49568
2.46033
2.49474
2.52427
2.52663
2.52598
2.52935
2.52267
2.53184
2.53415
2.52907
2.53992
2.54411
2.54172
2.54032
2.54747
2.54473
2.54542
2.51289
2.50615
2.5181
2.51243
2.51006
2.51455
2.51963
2.50927
2.51211
2.53555
2.55382
2.52958
2.5455
2.53579
2.55342
2.53259
2.5299
2.52347
2.50335
2.51432
2.50592
2.49703
2.5104
2.50458
2.53298
2.49817
2.52352
2.48717
2.51463
2.49233
2.52099
2.54214
2.56031
2.54781
2.55348
2.54469
2.57271
2.55479
2.50741
2.5127
2.51139
2.50792
2.51358
2.52824
2.49025
2.52859
2.49769
2.5194
2.48824
2.50464
2.54036
2.53408
2.53872
2.56125
2.54486
2.54782
2.54233
2.51715
2.51798
2.51568
2.51673
2.51489
2.5171
2.51721
2.51715
2.51525
2.47518
2.50466
2.49734
2.46742
2.47733
2.50296
2.5005
2.47405
2.5049
2.50888
2.45858
2.45808
2.49496
2.48043
2.51229
2.49371
2.45818
2.48321
2.49869
2.51305
2.49403
2.5265
2.52397
2.53249
2.53363
2.53161
2.53297
2.53074
2.53201
2.53869
2.54833
2.53135
2.53169
2.54398
2.54371
2.53923
2.49991
2.49529
2.5187
2.50544
2.51276
2.50799
2.51603
2.5015
2.51119
2.53462
2.55274
2.53352
2.53865
2.53205
2.54901
2.53265
2.51727
2.5184
2.4904
2.50447
2.50092
2.48435
2.50011
2.49735
2.49873
2.54483
2.4806
2.49312
2.41038
2.507
2.5122
2.50584
2.50464
2.50953
2.53536
2.47796
2.49181
2.41858
2.49267
2.51702
2.51428
2.51639
2.51614
2.51345
2.51604
2.51364
2.51367
2.51073
2.48649
2.5028
2.50326
2.47742
2.49356
2.50362
2.50509
2.49401
2.51214
2.51217
2.51321
2.55174
2.51115
2.52306
2.54751
2.50393
2.54945
2.51601
2.50579
2.53835
2.50104
2.52021
2.51632
2.53305
2.52761
2.534
2.53646
2.52609
2.53629
2.5245
2.53692
2.51804
2.52152
2.5339
2.5342
2.52998
2.49155
2.48771
2.5121
2.49656
2.5065
2.49808
2.50749
2.49058
2.4998
2.52996
2.54137
2.53124
2.53008
2.52722
2.53287
2.52665
2.52031
2.51861
2.47916
2.49698
2.49485
2.4775
2.49411
2.49205
2.50101
2.49139
2.49867
2.50785
2.50752
2.50164
2.5063
2.49908
2.49879
2.50325
2.49661
2.50478
2.50889
2.50775
2.51
2.51091
2.50762
2.50907
2.51051
2.50734
2.50825
2.50444
2.50748
2.50469
2.4991
2.5058
2.50756
2.49899
2.50394
2.50833
2.50991
2.50667
2.51095
2.50955
2.51981
2.52803
2.51362
2.51631
2.51822
2.5064
2.52352
2.51056
2.50669
2.51558
2.50662
2.512
2.50629
2.55552
2.525
2.54186
2.55852
2.52095
2.5422
2.52615
2.53172
2.54892
2.53336
2.52845
2.52628
2.522
2.48468
2.48233
2.50235
2.48433
2.49167
2.49017
2.49648
2.47919
2.48281
2.52359
2.5245
2.51852
2.51999
2.51833
2.51637
2.51147
2.51386
2.50945
2.47754
2.49189
2.49002
2.47904
2.49063
2.48885
2.51105
2.50828
2.50965
2.51148
2.50909
2.49667
2.50108
2.4959
2.49586
2.50019
2.50988
2.5114
2.51215
2.51159
2.51161
2.50538
2.50487
2.50079
2.50515
2.50292
2.50219
2.49947
2.50397
2.50232
2.5098
2.51079
2.51281
2.51546
2.51493
2.51282
2.51502
2.51315
2.50898
2.50855
2.51522
2.51566
2.51523
2.51515
2.51593
2.50957
2.5145
2.51436
2.51197
2.51586
2.51254
2.50025
2.49554
2.54025
2.51394
2.53189
2.52516
2.50636
2.52053
2.52945
2.52283
2.52713
2.52114
2.516
2.51612
2.5092
2.48183
2.48396
2.49162
2.47599
2.47513
2.48763
2.48911
2.47538
2.46971
2.5117
2.50782
2.50298
2.50675
2.50446
2.49704
2.49277
2.50468
2.49817
2.48199
2.49051
2.48898
2.48671
2.49205
2.49093
2.51025
2.50849
2.50615
2.50761
2.50603
2.49651
2.50034
2.49769
2.49866
2.50175
2.51204
2.5104
2.51013
2.5103
2.5091
2.5066
2.51026
2.50184
2.50438
2.5045
2.50364
2.50567
2.50546
2.50682
2.51771
2.5145
2.51676
2.5217
2.51862
2.51509
2.51725
2.51479
2.50941
2.51076
2.5152
2.51662
2.51795
2.5154
2.51728
2.5154
2.5174
2.51846
2.51796
2.51882
2.51627
2.49339
2.49424
2.51469
2.50082
2.51173
2.50844
2.49831
2.50616
2.51356
2.50974
2.51042
2.50828
2.50495
2.50239
2.49683
2.4891
2.49631
2.48914
2.47843
2.46919
2.49333
2.49146
2.48444
2.47333
2.49782
2.48554
2.48372
2.49412
2.49313
2.47659
2.47725
2.49213
2.4869
2.49298
2.49598
2.49487
2.50105
2.50149
2.50061
2.50147
2.50177
2.49681
2.49586
2.49768
2.50236
2.50473
2.50634
2.5072
2.50866
2.50802
2.50766
2.50626
2.50661
2.50668
2.51413
2.51636
2.51058
2.50653
2.50984
2.50711
2.5136
2.50688
2.51206
2.51728
2.5154
2.51728
2.51607
2.51536
2.51561
2.51656
2.51214
2.51259
2.51434
2.51602
2.51863
2.51986
2.51678
2.51941
2.5196
2.5199
2.52052
2.52056
2.52063
2.51729
2.49786
2.50339
2.50633
2.49928
2.50454
2.5075
2.50309
2.5062
2.50588
2.5026
2.50795
2.50686
2.50278
2.49434
2.49576
2.50461
2.51302
2.49595
2.49244
2.48206
2.50581
2.50176
2.50092
2.49209
2.49279
2.46962
2.478
2.49035
2.49653
2.46972
2.4854
2.48656
2.49172
2.50996
2.50835
2.50744
2.5186
2.51572
2.51463
2.49513
2.49876
2.50286
2.50058
2.50314
2.5127
2.51242
2.5185
2.51813
2.51523
2.50705
2.50819
2.50908
2.50837
2.51004
2.51484
2.51433
2.51536
2.50824
2.51452
2.50575
2.51652
2.51137
2.51652
2.51299
2.51524
2.51575
2.50827
2.51093
2.5153
2.51496
2.51019
2.51601
2.51745
2.51731
2.52036
2.52147
2.51802
2.52064
2.52147
2.52125
2.52202
2.52206
2.52146
2.51788
2.51007
2.51721
2.51136
2.50883
2.51072
2.51667
2.51511
2.5165
2.5104
2.50646
2.51531
2.51552
2.5123
2.50163
2.5106
2.52084
2.52775
2.50867
2.5094
2.50242
2.51997
2.51592
2.5178
2.51174
2.50441
2.48279
2.50014
2.50326
2.51218
2.49988
2.51331
2.50213
2.51306
2.52622
2.52282
2.52143
2.53294
2.52936
2.52744
2.50917
2.51065
2.51876
2.51724
2.51762
2.5231
2.51744
2.52897
2.5277
2.52003
2.51135
2.51281
2.51632
2.51548
2.51639
2.51343
2.51519
2.51635
2.51173
2.51841
2.50907
2.51531
2.51254
2.52084
2.50956
2.5147
2.51455
2.5033
2.50989
2.5137
2.51495
2.5119
2.51897
2.52092
2.51925
2.52182
2.52364
2.52093
2.52324
2.52269
2.52195
2.52328
2.52355
2.52279
2.51761
2.52418
2.53003
2.52229
2.52221
2.5224
2.52729
2.52767
2.52755
2.52133
2.51855
2.5257
2.52662
2.52382
2.52013
2.52791
2.53381
2.53934
2.52304
2.52541
2.51994
2.53199
2.52921
2.53282
2.52655
2.51975
2.5186
2.52396
2.5226
2.52528
2.53159
2.53087
2.52231
2.52917
2.5401
2.53516
2.5333
2.54406
2.54044
2.53871
2.52337
2.52389
2.52976
2.52754
2.52811
2.53171
2.52336
2.53786
2.53531
2.52768
2.52093
2.52108
2.5264
2.52527
2.52437
2.52107
2.52627
2.51788
2.51717
2.52414
2.52246
2.52205
2.52353
2.52847
2.5138
2.51468
2.5183
2.51616
2.51941
2.51893
2.5229
2.52102
2.52362
2.52688
2.52288
2.5251
2.52717
2.525
2.52722
2.52461
2.52441
2.52668
2.52622
2.52644
2.52317
2.53439
2.53709
2.53099
2.53183
2.53132
2.5331
2.5343
2.53346
2.53072
2.52726
2.53223
2.53345
2.529
2.53353
2.53764
2.54425
2.54801
2.53376
2.5389
2.5321
2.53974
2.5368
2.54376
2.53782
2.52865
2.53931
2.53308
2.53177
2.53027
2.54466
2.53313
2.53283
2.53438
2.54617
2.54548
2.54454
2.54888
2.54829
2.55017
2.52976
2.5308
2.53262
2.53083
2.5322
2.53935
2.53319
2.54356
2.5438
2.54024
2.5285
2.52647
2.53083
2.53021
2.52801
2.52942
2.53356
2.52513
2.52963
2.5321
2.52989
2.52785
2.53378
2.53525
2.52549
2.52475
2.5285
2.52999
2.52992
2.52959
2.53281
2.52951
2.52992
2.53258
2.52746
2.52958
2.5313
2.52947
2.53171
2.52835
2.52879
2.53107
2.53054
2.53098
2.53168
2.53809
2.53713
2.53368
2.53505
2.53407
2.53309
2.53435
2.53335
2.53482
2.52985
2.53333
2.5349
2.53046
2.5397
2.53903
2.54942
2.54856
2.53831
2.5472
2.54144
2.54189
2.53799
2.54713
2.54172
2.5311
2.54618
2.53156
2.53363
2.53144
2.54485
2.5309
2.53428
2.53345
2.55151
2.55184
2.55495
2.55328
2.55282
2.554
2.53086
2.53216
2.53194
2.53044
2.53158
2.54829
2.54651
2.54852
2.55104
2.54937
2.53049
2.52892
2.53113
2.53004
2.52966
2.53749
2.54083
2.52953
2.53657
2.53729
2.53338
2.53152
2.53898
2.53927
2.53257
2.53284
2.53564
2.53443
2.53353
2.53511
2.537
2.53246
2.53465
2.53621
2.53132
2.53332
2.53351
2.53201
2.53389
2.53251
2.53297
2.53379
2.53397
2.53421
2.53635
2.53504
2.53235
2.53163
2.53284
2.53167
2.52975
2.53079
2.52955
2.53379
2.53125
2.53117
2.53193
2.53131
2.53537
2.53177
2.54568
2.5413
2.53639
2.5433
2.53891
2.53609
2.53369
2.53858
2.53459
2.53103
2.54024
2.53035
2.52978
2.53014
2.53447
2.52969
2.53225
2.53101
2.55141
2.55194
2.55227
2.54658
2.54845
2.54838
2.52967
2.53047
2.53008
2.52885
2.52948
2.55129
2.54936
2.54892
2.54835
2.54661
2.52905
2.52936
2.52933
2.52811
2.52901
2.54302
2.54273
2.5329
2.54148
2.54013
2.54082
2.53625
2.54314
2.54052
2.53311
2.53629
2.53734
2.53321
2.53281
2.5359
2.53712
2.5334
2.53712
2.53743
2.5321
2.53364
2.53261
2.53179
2.53286
2.53504
2.53468
2.53398
2.53536
2.53448
2.53609
2.52938
2.52646
2.52789