/*--------------------------------*- C++ -*----------------------------------*\
| =========                 |                                                 |
| \\      /  F ield         | OpenFOAM: The Open Source CFD Toolbox           |
|  \\    /   O peration     | Version:  5.x                                   |
|   \\  /    A nd           | Web:      www.OpenFOAM.org                      |
|    \\/     M anipulation  |                                                 |
\*---------------------------------------------------------------------------*/
FoamFile
{
    version     2.0;
    format      ascii;
    class       volVectorField;
    location    "6.3";
    object      Us;
}
// * * * * * * * * * * * * * * * * * * * * * * * * * * * * * * * * * * * * * //

dimensions      [0 1 -1 0 0 0 0];

internalField   nonuniform List<vector> 
10571
(
(-0.103633 0.0152993 -0.14497)
(0.154216 -0.0804295 -0.132164)
(0.074805 0.085574 0.128385)
(-0.0421666 0.21084 0.10284)
(-0.095186 0.0397014 -0.00721633)
(0.256893 -0.0346962 -0.100676)
(0.340164 0.0647083 0.0999742)
(0.189925 0.0686594 0.129544)
(-0.0259423 -0.0607625 0.154581)
(-0.063456 -0.168782 -0.00780764)
(0.0390602 0.0662087 -0.257683)
(0.246428 0.0302039 0.0423878)
(0.356938 -0.129946 0.111051)
(0.030364 -0.333406 0.108314)
(-0.134686 -0.219958 0.0864471)
(0.000921123 -0.0565805 -0.160157)
(0.0587465 -0.0844598 -0.0293415)
(0.184407 -0.177348 0.11469)
(0.0477295 -0.317817 0.151418)
(-0.0836682 -0.0577256 0.093734)
(-0.0358599 0.0139544 -0.10448)
(0.00248955 -0.0989012 -0.204826)
(0.109143 -0.133092 -0.193213)
(0.0693884 -0.058845 -0.057474)
(0.110354 0.022142 -0.230675)
(0.0659431 -0.0524142 -0.367966)
(0.117841 -0.121229 0.221563)
(0.0198084 -0.0396328 0.0977659)
(-0.0763878 -0.075358 -0.00864573)
(-0.0245799 -0.0891822 -0.0355411)
(0.176754 -0.105565 0.213867)
(0.166064 -0.106108 0.245116)
(-0.0209669 -0.0858573 0.14873)
(-0.00408938 -0.0776086 -0.223895)
(0.0044742 -0.0251186 -0.550958)
(-0.0151286 0.0677418 0.109013)
(0.134561 -0.00884585 0.178717)
(0.125397 -0.127632 0.222807)
(0.00634923 0.0398238 -0.0667599)
(-0.0732119 0.0227971 -0.483999)
(-0.112335 0.0443693 0.0489555)
(0.0174968 0.00205072 0.0619327)
(0.120375 -0.0858469 0.199201)
(0.0512609 -0.0157992 0.0895789)
(0.00420976 -0.0204605 -0.442637)
(-0.000806188 0.00676506 -0.45428)
(0.09214 -0.0199478 -0.391033)
(0.0810677 -0.0441456 -0.284215)
(-0.0225937 -0.0102429 -0.254754)
(0.0535863 -0.0679438 -0.35786)
(0.099682 -0.219271 0.213641)
(0.14638 -0.234173 0.173754)
(-0.118976 -0.133397 -0.0499209)
(-0.0811327 -0.0661569 -0.200561)
(0.035224 -0.15155 0.181148)
(0.145182 -0.19327 0.33619)
(-0.0434509 -0.0328709 0.104084)
(-0.0515053 -0.0939988 -0.364739)
(-0.00406716 -0.0561322 -0.527602)
(-0.167165 0.0614418 0.0332357)
(-0.0118079 -0.0444512 0.0982113)
(0.151141 -0.114666 0.281959)
(-0.0672553 0.0192859 -0.0614969)
(-0.0634629 0.0084322 -0.415419)
(-0.199936 -0.0977524 -0.0165078)
(-0.00208466 0.00255364 -0.102439)
(0.140677 -0.0384099 0.192369)
(0.15898 -0.0541647 0.198989)
(0.00879008 -0.066904 -0.384534)
(0.0366388 0.0314433 -0.438211)
(0.0392929 0.0197635 -0.370246)
(0.0193644 -0.0179126 -0.280706)
(-0.0530869 -0.000774024 -0.270511)
(0.0421407 -0.0522274 -0.337792)
(0.0299682 -0.102867 0.0956924)
(-0.0762203 -0.206915 0.154272)
(-0.0692094 -0.0667007 -0.184823)
(-0.0649191 -0.11768 -0.297826)
(-0.0548187 -0.0727422 0.138567)
(-0.0417299 -0.0419586 0.181512)
(-0.0700877 -0.00904744 0.0198932)
(-0.0207219 -0.052705 -0.32521)
(-0.0104656 -0.061896 -0.467397)
(0 0 0)
(-0.0139062 0.00556242 -0.0146449)
(0.0641784 -0.0312639 0.227221)
(-0.0621204 0.0306741 -0.00726932)
(-0.0243233 -0.0338031 -0.3595)
(-0.0450339 -0.0329318 -0.132706)
(0.0224947 0.0530178 -0.211979)
(0.0608719 0.0241129 0.128181)
(0.118751 -0.0262836 0.185242)
(0.0400745 -0.104496 -0.356834)
(0.0546867 0.0402535 -0.40836)
(0.0274629 0.0724398 -0.207669)
(-0.0195619 0.00507123 -0.36765)
(-0.00754785 0.00301995 -0.356178)
(0.0221292 -0.0419878 -0.293918)
(0.0396186 -0.011487 0.107485)
(-0.0469574 -0.0097417 -0.0514825)
(-0.0294331 -0.0277038 -0.259789)
(-0.0469803 -0.107553 -0.268069)
(0.035182 -0.00449245 -0.206193)
(0.0624404 0.00791557 -0.0214492)
(0.0091745 -0.0427535 -0.0854326)
(0.00973001 -0.0224602 -0.280322)
(-0.00751841 -0.0576964 -0.386355)
(-0.0268547 -0.0043951 -0.119065)
(0.0594995 0.054207 -0.272059)
(0.0433922 0.0849144 0.108934)
(0.00648946 0.0338187 0.0240881)
(0.00858564 -0.0462882 -0.276111)
(-0.0245402 0.0429845 -0.0106432)
(0.114424 0.0745478 -0.319931)
(0.0214069 0.11532 0.100843)
(-0.015787 -0.0203611 0.0937939)
(0.0566399 -0.0995376 -0.32483)
(0.0863893 0.0856708 -0.377319)
(-0.0252731 0.0310872 -0.264779)
(0.0150196 0.000609551 -0.340107)
(0.0110509 -0.000387076 -0.321017)
(0.0101908 -0.0221554 -0.257192)
(0.0186822 0.0378129 0.172472)
(0.0500121 -0.0453569 -0.00331142)
(0.0141812 0.00642745 -0.262494)
(-0.0647533 -0.0242508 -0.158848)
(-0.00277484 0.0289778 -0.212227)
(0.0907777 0.0423677 0.0036872)
(0.122106 -0.0218795 0.018568)
(0.0396475 0.0147589 -0.197248)
(-0.00137574 0.00122685 -0.00114311)
(-0.0181276 -0.0449896 -0.301525)
(-0.0426197 -0.0140813 -0.118129)
(0.0772381 0.00993227 -0.21446)
(0.0864933 0.101371 0.128689)
(0.0716175 0.0796739 0.19455)
(0.0599608 -0.0454167 -0.147248)
(-0.000306643 -0.000789561 -0.00098069)
(0.0490486 0.0494036 0.025333)
(0.121524 0.0724823 -0.210942)
(0.065948 0.1187 0.0833429)
(0.0252722 0.0385118 0.206176)
(0.0323421 -0.0774864 -0.239531)
(-0.0793005 0.0753892 -0.286471)
(-0.0180785 0.0151449 -0.264909)
(0.0371266 -0.00424496 -0.271386)
(0.0227858 0.00297726 -0.244336)
(0.000173473 -0.00227311 -0.224034)
(0.0151753 0.024091 0.223248)
(0.0725588 -0.086265 0.0150428)
(0.0629815 0.00243697 -0.178413)
(-0.0539001 0.0678753 -0.0926208)
(-0.0163609 0.0747038 -0.145953)
(0.0662018 -0.00198556 -0.00475303)
(0.155669 -0.0428468 -0.0106846)
(0.15048 0.0689762 -0.156301)
(0.055958 0.0435745 -0.0398152)
(0 0 0)
(-0.00958906 -0.123522 -0.106876)
(0.10775 -0.0200783 -0.0720306)
(0.108832 0.121278 0.177459)
(0.125706 0.0938515 0.237158)
(0.202633 -0.0165195 -0.0330755)
(0.204766 -0.030813 -0.241823)
(0.0179292 0.0571175 -0.0825844)
(-0.0887976 0.0256484 -0.150728)
(0.0786634 0.139774 0.168027)
(0.101646 0.153943 0.22887)
(0.0379962 -0.049913 -0.133625)
(0.2116 -0.0672819 -0.257544)
(-0.134525 0.0568828 -0.200393)
(-0.027882 0.0291011 -0.230156)
(0.0382734 -0.0123429 -0.235132)
(0.0441379 0.00336458 -0.153231)
(-0.0138568 0.0127202 -0.162282)
(-0.00279504 -0.0243319 0.107794)
(0.0674078 -0.0445276 0.0106169)
(0.0950597 0.023304 -0.0930613)
(-0.0869379 0.0822367 -0.057084)
(0.0267714 0.058273 -0.0445695)
(0.0358164 -0.0705875 -0.0144111)
(0.104096 -0.0711573 -0.00702916)
(0.113322 0.0658957 -0.130416)
(0 0 0)
(0 0 0)
(-0.000647813 -0.0696108 0.0811987)
(0.138916 -0.00311975 0.116932)
(0.0492723 0.0761896 0.238344)
(0.153841 0.0249877 0.214352)
(0.199957 -0.0193235 0.13366)
(0.181673 0.0901846 -0.15073)
(-0.0164588 0.019135 0.221901)
(-0.068607 0.0621477 -0.0179999)
(0.0177202 0.115504 0.119582)
(0.119098 0.11606 0.32154)
(0.0375135 -0.0826562 -0.0712084)
(0.214033 -0.0229636 -0.195224)
(0 0 0)
(-0.00946885 0.0898546 -0.13227)
(0.0317224 0.0149112 -0.134129)
(0.0456699 -0.00227265 -0.112951)
(-0.0246768 0.0100117 -0.0639317)
(0.00749921 -0.0109656 0.298525)
(0.114166 0.0307399 0.0354891)
(0.0315342 0.0194303 -0.191897)
(-0.0507278 0.0842096 0.0218518)
(-0.0901841 0.22832 -0.0982269)
(0.0326229 -0.0507985 0.0554959)
(0.0799581 -0.0438752 0.0898255)
(0.0420997 0.124968 -0.0843715)
(0 0 0)
(0 0 0)
(0 0 0)
(0 0 0)
(0.0369255 0.0252865 0.213746)
(0.1038 0.0119545 0.243914)
(0.18996 -0.067937 0.185533)
(0 0 0)
(0 0 0)
(-0.0454572 0.071892 0.0383317)
(0.0253416 0.102163 0.156722)
(0.128021 0.119618 0.308819)
(0.0805105 -0.0208489 0.135631)
(0 0 0)
(-0.00393377 0.0718602 -0.052956)
(0.032644 0.0808622 -0.0518678)
(-0.0419708 -0.0201225 -0.200277)
(0.0388092 -0.0154939 -0.0650682)
(0.0415387 0.025698 0.267813)
(-0.0373173 0.109512 -0.0937929)
(0 0 0)
(0 0 0)
(-0.06641 0.195806 -0.0491602)
(0.0170796 0.0512425 0.0306603)
(0.0218116 0.14286 -0.124923)
(0 0 0)
(0 0 0)
(0 0 0)
(0 0 0)
(0.0225311 -0.0124485 0.244207)
(0.107616 -0.00165716 0.318288)
(0.0841559 -0.0906217 0.164196)
(0 0 0)
(0 0 0)
(0.0403765 0.0705016 0.185694)
(0.127373 0.0928867 0.369248)
(0.0793634 -0.058149 0.152178)
(0 0 0)
(0 0 0)
(0 0 0)
(-0.0454029 -0.00411441 -0.181863)
(-0.133307 0.106263 -0.0640338)
(0.0252113 0.0617508 0.131157)
(0.225828 0.0525723 0.0866294)
(0 0 0)
(0 0 0)
(0.0139307 0.216301 0.0619799)
(0 0 0)
(0.0286455 0.100702 -0.0125722)
(-0.00733677 0.115764 0.0351875)
(0 0 0)
(0 0 0)
(0 0 0)
(0 0 0)
(0.132151 -0.0565488 0.412478)
(0.0842234 -0.138619 0.327486)
(0 0 0)
(0 0 0)
(0 0 0)
(0.0911777 -0.0126936 0.441794)
(0.117987 -0.0524619 0.259057)
(0 0 0)
(0 0 0)
(0 0 0)
(0 0 0)
(-0.102502 0.0815304 -0.0168487)
(-0.041546 0.0857776 0.0323671)
(0 0 0)
(0 0 0)
(0 0 0)
(0 0 0)
(0.0993861 0.189395 0.0951983)
(0.268133 0.158438 0.156567)
(0 0 0)
(0 0 0)
(0 0 0)
(0 0 0)
(0 0 0)
(0.157555 -0.045921 0.486812)
(0 0 0)
(0 0 0)
(0 0 0)
(0 0 0)
(0 0 0)
(0.175647 -0.0630913 0.381536)
(0 0 0)
(0 0 0)
(0 0 0)
(0 0 0)
(0 0 0)
(-0.0424157 0.0725838 0.0410179)
(0 0 0)
(0 0 0)
(0 0 0)
(0 0 0)
(0 0 0)
(0 0 0)
(0 0 0)
(0 0 0)
(0 0 0)
(0 0 0)
(0 0 0)
(0 0 0)
(0 0 0)
(0 0 0)
(0 0 0)
(0 0 0)
(0 0 0)
(0 0 0)
(0 0 0)
(0 0 0)
(0 0 0)
(0 0 0)
(-0.108251 0.0361698 0.111442)
(-0.0576899 0.0375198 0.123305)
(0 0 0)
(0 0 0)
(0 0 0)
(0 0 0)
(0 0 0)
(0 0 0)
(0 0 0)
(0 0 0)
(0 0 0)
(0 0 0)
(0 0 0)
(0 0 0)
(0 0 0)
(0 0 0)
(0 0 0)
(0 0 0)
(0 0 0)
(0 0 0)
(0 0 0)
(0 0 0)
(0 0 0)
(0 0 0)
(0 0 0)
(0 0 0)
(0 0 0)
(0 0 0)
(0 0 0)
(0 0 0)
(0 0 0)
(0 0 0)
(0 0 0)
(0 0 0)
(0 0 0)
(0 0 0)
(0 0 0)
(0 0 0)
(0 0 0)
(0 0 0)
(0 0 0)
(0 0 0)
(0 0 0)
(0 0 0)
(0 0 0)
(0 0 0)
(0 0 0)
(0 0 0)
(0 0 0)
(0 0 0)
(0 0 0)
(0 0 0)
(0 0 0)
(0 0 0)
(0 0 0)
(0 0 0)
(0 0 0)
(0 0 0)
(0 0 0)
(0 0 0)
(0 0 0)
(0 0 0)
(0 0 0)
(0 0 0)
(0 0 0)
(0 0 0)
(0 0 0)
(0 0 0)
(0 0 0)
(0 0 0)
(0 0 0)
(0 0 0)
(0 0 0)
(0 0 0)
(0 0 0)
(0 0 0)
(0 0 0)
(0 0 0)
(0 0 0)
(0 0 0)
(0 0 0)
(0 0 0)
(0 0 0)
(0 0 0)
(0 0 0)
(0 0 0)
(0 0 0)
(0 0 0)
(0 0 0)
(0 0 0)
(0 0 0)
(0 0 0)
(0 0 0)
(0 0 0)
(0 0 0)
(0 0 0)
(0 0 0)
(0 0 0)
(0 0 0)
(0 0 0)
(0 0 0)
(0 0 0)
(0 0 0)
(0 0 0)
(0 0 0)
(0 0 0)
(0 0 0)
(0 0 0)
(0 0 0)
(0 0 0)
(0 0 0)
(0 0 0)
(0 0 0)
(0 0 0)
(0 0 0)
(0 0 0)
(0 0 0)
(0 0 0)
(0 0 0)
(0 0 0)
(0 0 0)
(0 0 0)
(0 0 0)
(0 0 0)
(0 0 0)
(0 0 0)
(0 0 0)
(0 0 0)
(0 0 0)
(0 0 0)
(0 0 0)
(0 0 0)
(0 0 0)
(0 0 0)
(0 0 0)
(0 0 0)
(0 0 0)
(0 0 0)
(0 0 0)
(0 0 0)
(0 0 0)
(0 0 0)
(0 0 0)
(0 0 0)
(0 0 0)
(0 0 0)
(0 0 0)
(0 0 0)
(0 0 0)
(0 0 0)
(0 0 0)
(0 0 0)
(0 0 0)
(0 0 0)
(0 0 0)
(0 0 0)
(0 0 0)
(0 0 0)
(0 0 0)
(0 0 0)
(0 0 0)
(0 0 0)
(0 0 0)
(0 0 0)
(0 0 0)
(0 0 0)
(0 0 0)
(0 0 0)
(0 0 0)
(0 0 0)
(0 0 0)
(0 0 0)
(0 0 0)
(0 0 0)
(0 0 0)
(0 0 0)
(0 0 0)
(0 0 0)
(0 0 0)
(0 0 0)
(0 0 0)
(0 0 0)
(0 0 0)
(0 0 0)
(0 0 0)
(0 0 0)
(0 0 0)
(0 0 0)
(0 0 0)
(0 0 0)
(0 0 0)
(0 0 0)
(0 0 0)
(0 0 0)
(0 0 0)
(0 0 0)
(0 0 0)
(0 0 0)
(0 0 0)
(0 0 0)
(0 0 0)
(0 0 0)
(0 0 0)
(0 0 0)
(0 0 0)
(0 0 0)
(0 0 0)
(0 0 0)
(0 0 0)
(0 0 0)
(0 0 0)
(0 0 0)
(0 0 0)
(0 0 0)
(0 0 0)
(0 0 0)
(0 0 0)
(0 0 0)
(0 0 0)
(0 0 0)
(0 0 0)
(0 0 0)
(0 0 0)
(0 0 0)
(0 0 0)
(0 0 0)
(0 0 0)
(0 0 0)
(0 0 0)
(0 0 0)
(0 0 0)
(0 0 0)
(0 0 0)
(0 0 0)
(0 0 0)
(0 0 0)
(0 0 0)
(0 0 0)
(0 0 0)
(0 0 0)
(0 0 0)
(0 0 0)
(0 0 0)
(0 0 0)
(0 0 0)
(0 0 0)
(0 0 0)
(0 0 0)
(0 0 0)
(0 0 0)
(0 0 0)
(0 0 0)
(0 0 0)
(0 0 0)
(0 0 0)
(0 0 0)
(0 0 0)
(0 0 0)
(0 0 0)
(0 0 0)
(0 0 0)
(0 0 0)
(0 0 0)
(0 0 0)
(0 0 0)
(0 0 0)
(0 0 0)
(0 0 0)
(0 0 0)
(0 0 0)
(0 0 0)
(0 0 0)
(0 0 0)
(0 0 0)
(0 0 0)
(0 0 0)
(0 0 0)
(0 0 0)
(0 0 0)
(0 0 0)
(0 0 0)
(0 0 0)
(0 0 0)
(0 0 0)
(0 0 0)
(0 0 0)
(0 0 0)
(0 0 0)
(0 0 0)
(0 0 0)
(0 0 0)
(0 0 0)
(0 0 0)
(0 0 0)
(0 0 0)
(0 0 0)
(0 0 0)
(0 0 0)
(0 0 0)
(0 0 0)
(0 0 0)
(0 0 0)
(0 0 0)
(0 0 0)
(0 0 0)
(0 0 0)
(0 0 0)
(0 0 0)
(0 0 0)
(0 0 0)
(0 0 0)
(0 0 0)
(0 0 0)
(0 0 0)
(0 0 0)
(0 0 0)
(0 0 0)
(0 0 0)
(0 0 0)
(0 0 0)
(0 0 0)
(0 0 0)
(0 0 0)
(0 0 0)
(0 0 0)
(0 0 0)
(0 0 0)
(0 0 0)
(0 0 0)
(0 0 0)
(0 0 0)
(0 0 0)
(0 0 0)
(0 0 0)
(0 0 0)
(0 0 0)
(0 0 0)
(0 0 0)
(0 0 0)
(0 0 0)
(0 0 0)
(0 0 0)
(0 0 0)
(0 0 0)
(0 0 0)
(0 0 0)
(0 0 0)
(0 0 0)
(0 0 0)
(0 0 0)
(0 0 0)
(0 0 0)
(0 0 0)
(0 0 0)
(0 0 0)
(0 0 0)
(0 0 0)
(0 0 0)
(0 0 0)
(0 0 0)
(0 0 0)
(0 0 0)
(0 0 0)
(0 0 0)
(0 0 0)
(0 0 0)
(0 0 0)
(0 0 0)
(0 0 0)
(0 0 0)
(0 0 0)
(0 0 0)
(0 0 0)
(0 0 0)
(0 0 0)
(0 0 0)
(0 0 0)
(0 0 0)
(0 0 0)
(0 0 0)
(0 0 0)
(0 0 0)
(0 0 0)
(0 0 0)
(0 0 0)
(0 0 0)
(0 0 0)
(0 0 0)
(0 0 0)
(0 0 0)
(0 0 0)
(0 0 0)
(0 0 0)
(0 0 0)
(0 0 0)
(0 0 0)
(0 0 0)
(0 0 0)
(0 0 0)
(0 0 0)
(0 0 0)
(0 0 0)
(0 0 0)
(0 0 0)
(0 0 0)
(0 0 0)
(0 0 0)
(0 0 0)
(0 0 0)
(0 0 0)
(0 0 0)
(0 0 0)
(0 0 0)
(0 0 0)
(0 0 0)
(0 0 0)
(0 0 0)
(0 0 0)
(0 0 0)
(0 0 0)
(0 0 0)
(0 0 0)
(0 0 0)
(0 0 0)
(0 0 0)
(0 0 0)
(0 0 0)
(0 0 0)
(0 0 0)
(0 0 0)
(0 0 0)
(0 0 0)
(0 0 0)
(0 0 0)
(0 0 0)
(0 0 0)
(0 0 0)
(0 0 0)
(0 0 0)
(0 0 0)
(0 0 0)
(0 0 0)
(0 0 0)
(0 0 0)
(0 0 0)
(0 0 0)
(0 0 0)
(0 0 0)
(0 0 0)
(0 0 0)
(0 0 0)
(0 0 0)
(0 0 0)
(0 0 0)
(0 0 0)
(0 0 0)
(0 0 0)
(0 0 0)
(0 0 0)
(0 0 0)
(0 0 0)
(0 0 0)
(0 0 0)
(0 0 0)
(0 0 0)
(0 0 0)
(0 0 0)
(0 0 0)
(0 0 0)
(0 0 0)
(0 0 0)
(0 0 0)
(0 0 0)
(0 0 0)
(0 0 0)
(0 0 0)
(0 0 0)
(0 0 0)
(0 0 0)
(0 0 0)
(0 0 0)
(0 0 0)
(0 0 0)
(0 0 0)
(0 0 0)
(0 0 0)
(0 0 0)
(0 0 0)
(0 0 0)
(0 0 0)
(0 0 0)
(0 0 0)
(0 0 0)
(0 0 0)
(0 0 0)
(0 0 0)
(0 0 0)
(0 0 0)
(0 0 0)
(0 0 0)
(0 0 0)
(0 0 0)
(0 0 0)
(0 0 0)
(0 0 0)
(0 0 0)
(0 0 0)
(0 0 0)
(0 0 0)
(0 0 0)
(0 0 0)
(0 0 0)
(0 0 0)
(0 0 0)
(0 0 0)
(0 0 0)
(0 0 0)
(0 0 0)
(0 0 0)
(0 0 0)
(0 0 0)
(0 0 0)
(0 0 0)
(0 0 0)
(0 0 0)
(0 0 0)
(0 0 0)
(0 0 0)
(0 0 0)
(0 0 0)
(0 0 0)
(0 0 0)
(0 0 0)
(0 0 0)
(0 0 0)
(0 0 0)
(0 0 0)
(0 0 0)
(0 0 0)
(0 0 0)
(0 0 0)
(0 0 0)
(0 0 0)
(0 0 0)
(0 0 0)
(0 0 0)
(0 0 0)
(0 0 0)
(0 0 0)
(0 0 0)
(0 0 0)
(0 0 0)
(0 0 0)
(0 0 0)
(0 0 0)
(0 0 0)
(0 0 0)
(0 0 0)
(0 0 0)
(0 0 0)
(0 0 0)
(0 0 0)
(0 0 0)
(0 0 0)
(0 0 0)
(0 0 0)
(0 0 0)
(0 0 0)
(0 0 0)
(0 0 0)
(0 0 0)
(0 0 0)
(0 0 0)
(0 0 0)
(0 0 0)
(0 0 0)
(0 0 0)
(0 0 0)
(0 0 0)
(0 0 0)
(0 0 0)
(0 0 0)
(0 0 0)
(0 0 0)
(0 0 0)
(0 0 0)
(0 0 0)
(0 0 0)
(0 0 0)
(0 0 0)
(0 0 0)
(0 0 0)
(0 0 0)
(0 0 0)
(0 0 0)
(0 0 0)
(0 0 0)
(0 0 0)
(0 0 0)
(0 0 0)
(0 0 0)
(0 0 0)
(0 0 0)
(0 0 0)
(0 0 0)
(0 0 0)
(0 0 0)
(0 0 0)
(0 0 0)
(0 0 0)
(0 0 0)
(0 0 0)
(0 0 0)
(0 0 0)
(0 0 0)
(0 0 0)
(0 0 0)
(0 0 0)
(0 0 0)
(0 0 0)
(0 0 0)
(0 0 0)
(0 0 0)
(0 0 0)
(0 0 0)
(0 0 0)
(0 0 0)
(0 0 0)
(0 0 0)
(0 0 0)
(0 0 0)
(0 0 0)
(0 0 0)
(0 0 0)
(0 0 0)
(0 0 0)
(0 0 0)
(0 0 0)
(0 0 0)
(0 0 0)
(0 0 0)
(0 0 0)
(0 0 0)
(0 0 0)
(0 0 0)
(0 0 0)
(0 0 0)
(0 0 0)
(0 0 0)
(0 0 0)
(0 0 0)
(0 0 0)
(0 0 0)
(0 0 0)
(0 0 0)
(0 0 0)
(0 0 0)
(0 0 0)
(0 0 0)
(0 0 0)
(0 0 0)
(0 0 0)
(0 0 0)
(0 0 0)
(0 0 0)
(0 0 0)
(0 0 0)
(0 0 0)
(0 0 0)
(0 0 0)
(0 0 0)
(0 0 0)
(0 0 0)
(0 0 0)
(0 0 0)
(0 0 0)
(0 0 0)
(0 0 0)
(0 0 0)
(0 0 0)
(0 0 0)
(0 0 0)
(0 0 0)
(0 0 0)
(0 0 0)
(0 0 0)
(0 0 0)
(0 0 0)
(0 0 0)
(0 0 0)
(0 0 0)
(0 0 0)
(0 0 0)
(0 0 0)
(0 0 0)
(0 0 0)
(0 0 0)
(0 0 0)
(0 0 0)
(0 0 0)
(0 0 0)
(0 0 0)
(0 0 0)
(0 0 0)
(0 0 0)
(0 0 0)
(0 0 0)
(0 0 0)
(0 0 0)
(0 0 0)
(0 0 0)
(0 0 0)
(0 0 0)
(0 0 0)
(0 0 0)
(0 0 0)
(0 0 0)
(0 0 0)
(0 0 0)
(0 0 0)
(0 0 0)
(0 0 0)
(0 0 0)
(0 0 0)
(0 0 0)
(0 0 0)
(0 0 0)
(0 0 0)
(0 0 0)
(0 0 0)
(0 0 0)
(0 0 0)
(0 0 0)
(0 0 0)
(0 0 0)
(0 0 0)
(0 0 0)
(0 0 0)
(0 0 0)
(0 0 0)
(0 0 0)
(0 0 0)
(0 0 0)
(0 0 0)
(0 0 0)
(0 0 0)
(0 0 0)
(0 0 0)
(0 0 0)
(0 0 0)
(0 0 0)
(0 0 0)
(0 0 0)
(0 0 0)
(0 0 0)
(0 0 0)
(0 0 0)
(0 0 0)
(0 0 0)
(0 0 0)
(0 0 0)
(0 0 0)
(0 0 0)
(0 0 0)
(0 0 0)
(0 0 0)
(0 0 0)
(0 0 0)
(0 0 0)
(0 0 0)
(0 0 0)
(0 0 0)
(0 0 0)
(0 0 0)
(0 0 0)
(0 0 0)
(0 0 0)
(0 0 0)
(0 0 0)
(0 0 0)
(0 0 0)
(0 0 0)
(0 0 0)
(0 0 0)
(0 0 0)
(0 0 0)
(0 0 0)
(0 0 0)
(0 0 0)
(0 0 0)
(0 0 0)
(0 0 0)
(0 0 0)
(0 0 0)
(0 0 0)
(0 0 0)
(0 0 0)
(0 0 0)
(0 0 0)
(0 0 0)
(0 0 0)
(0 0 0)
(0 0 0)
(0 0 0)
(0 0 0)
(0 0 0)
(0 0 0)
(0 0 0)
(0 0 0)
(0 0 0)
(0 0 0)
(0 0 0)
(0 0 0)
(0 0 0)
(0 0 0)
(0 0 0)
(0 0 0)
(0 0 0)
(0 0 0)
(0 0 0)
(0 0 0)
(0 0 0)
(0 0 0)
(0 0 0)
(0 0 0)
(0 0 0)
(0 0 0)
(0 0 0)
(0 0 0)
(0 0 0)
(0 0 0)
(0 0 0)
(0 0 0)
(0 0 0)
(0 0 0)
(0 0 0)
(0 0 0)
(0 0 0)
(0 0 0)
(0 0 0)
(0 0 0)
(0 0 0)
(0 0 0)
(0 0 0)
(0 0 0)
(0 0 0)
(0 0 0)
(0 0 0)
(0 0 0)
(0 0 0)
(0 0 0)
(0 0 0)
(0 0 0)
(0 0 0)
(0 0 0)
(0 0 0)
(0 0 0)
(0 0 0)
(0 0 0)
(0 0 0)
(0 0 0)
(0 0 0)
(0 0 0)
(0 0 0)
(0 0 0)
(0 0 0)
(0 0 0)
(0 0 0)
(0 0 0)
(0 0 0)
(0 0 0)
(0 0 0)
(0 0 0)
(0 0 0)
(0 0 0)
(0 0 0)
(0 0 0)
(0 0 0)
(0 0 0)
(0 0 0)
(0 0 0)
(0 0 0)
(0 0 0)
(0 0 0)
(0 0 0)
(0 0 0)
(0 0 0)
(0 0 0)
(0 0 0)
(0 0 0)
(0 0 0)
(0 0 0)
(0 0 0)
(0 0 0)
(0 0 0)
(0 0 0)
(0 0 0)
(0 0 0)
(0 0 0)
(0 0 0)
(0 0 0)
(0 0 0)
(0 0 0)
(0 0 0)
(0 0 0)
(0 0 0)
(0 0 0)
(0 0 0)
(0 0 0)
(0 0 0)
(0 0 0)
(0 0 0)
(0 0 0)
(0 0 0)
(0 0 0)
(0 0 0)
(0 0 0)
(0 0 0)
(0 0 0)
(0 0 0)
(0 0 0)
(0 0 0)
(0 0 0)
(0 0 0)
(0 0 0)
(0 0 0)
(0 0 0)
(0 0 0)
(0 0 0)
(0 0 0)
(0 0 0)
(0 0 0)
(0 0 0)
(0 0 0)
(0 0 0)
(0 0 0)
(0 0 0)
(0 0 0)
(0 0 0)
(0 0 0)
(0 0 0)
(0 0 0)
(0 0 0)
(0 0 0)
(0 0 0)
(0 0 0)
(0 0 0)
(0 0 0)
(0 0 0)
(0 0 0)
(0 0 0)
(0 0 0)
(0 0 0)
(0 0 0)
(0 0 0)
(0 0 0)
(0 0 0)
(0 0 0)
(0 0 0)
(0 0 0)
(0 0 0)
(0 0 0)
(0 0 0)
(0 0 0)
(0 0 0)
(0 0 0)
(0 0 0)
(0 0 0)
(0 0 0)
(0 0 0)
(0 0 0)
(0 0 0)
(0 0 0)
(0 0 0)
(0 0 0)
(0 0 0)
(0 0 0)
(0 0 0)
(0 0 0)
(0 0 0)
(0 0 0)
(0 0 0)
(0 0 0)
(0 0 0)
(0 0 0)
(0 0 0)
(0 0 0)
(0 0 0)
(0 0 0)
(0 0 0)
(0 0 0)
(0 0 0)
(0 0 0)
(0 0 0)
(0 0 0)
(0 0 0)
(0 0 0)
(0 0 0)
(0 0 0)
(0 0 0)
(0 0 0)
(0 0 0)
(0 0 0)
(0 0 0)
(0 0 0)
(0 0 0)
(0 0 0)
(0 0 0)
(0 0 0)
(0 0 0)
(0 0 0)
(0 0 0)
(0 0 0)
(0 0 0)
(0 0 0)
(0 0 0)
(0 0 0)
(0 0 0)
(0 0 0)
(0 0 0)
(0 0 0)
(0 0 0)
(0 0 0)
(0 0 0)
(0 0 0)
(0 0 0)
(0 0 0)
(0 0 0)
(0 0 0)
(0 0 0)
(0 0 0)
(0 0 0)
(0 0 0)
(0 0 0)
(0 0 0)
(0 0 0)
(0 0 0)
(0 0 0)
(0 0 0)
(0 0 0)
(0 0 0)
(0 0 0)
(0 0 0)
(0 0 0)
(0 0 0)
(0 0 0)
(0 0 0)
(0 0 0)
(0 0 0)
(0 0 0)
(0 0 0)
(0 0 0)
(0 0 0)
(0 0 0)
(0 0 0)
(0 0 0)
(0 0 0)
(0 0 0)
(0 0 0)
(0 0 0)
(0 0 0)
(0 0 0)
(0 0 0)
(0 0 0)
(0 0 0)
(0 0 0)
(0 0 0)
(0 0 0)
(0 0 0)
(0 0 0)
(0 0 0)
(0 0 0)
(0 0 0)
(0 0 0)
(0 0 0)
(0 0 0)
(0 0 0)
(0 0 0)
(0 0 0)
(0 0 0)
(0 0 0)
(0 0 0)
(0 0 0)
(0 0 0)
(0 0 0)
(0 0 0)
(0 0 0)
(0 0 0)
(0 0 0)
(0 0 0)
(0 0 0)
(0 0 0)
(0 0 0)
(0 0 0)
(0 0 0)
(0 0 0)
(0 0 0)
(0 0 0)
(0 0 0)
(0 0 0)
(0 0 0)
(0 0 0)
(0 0 0)
(0 0 0)
(0 0 0)
(0 0 0)
(0 0 0)
(0 0 0)
(0 0 0)
(0 0 0)
(0 0 0)
(0 0 0)
(0 0 0)
(0 0 0)
(0 0 0)
(0 0 0)
(0 0 0)
(0 0 0)
(0 0 0)
(0 0 0)
(0 0 0)
(0 0 0)
(0 0 0)
(0 0 0)
(0 0 0)
(0 0 0)
(0 0 0)
(0 0 0)
(0 0 0)
(0 0 0)
(0 0 0)
(0 0 0)
(0 0 0)
(0 0 0)
(0 0 0)
(0 0 0)
(0 0 0)
(0 0 0)
(0 0 0)
(0 0 0)
(0 0 0)
(0 0 0)
(0 0 0)
(0 0 0)
(0 0 0)
(0 0 0)
(0 0 0)
(0 0 0)
(0 0 0)
(0 0 0)
(0 0 0)
(0 0 0)
(0 0 0)
(0 0 0)
(0 0 0)
(0 0 0)
(0 0 0)
(0 0 0)
(0 0 0)
(0 0 0)
(0 0 0)
(0 0 0)
(0 0 0)
(0 0 0)
(0 0 0)
(0 0 0)
(0 0 0)
(0 0 0)
(0 0 0)
(0 0 0)
(0 0 0)
(0 0 0)
(0 0 0)
(0 0 0)
(0 0 0)
(0 0 0)
(0 0 0)
(0 0 0)
(0 0 0)
(0 0 0)
(0 0 0)
(0 0 0)
(0 0 0)
(0 0 0)
(0 0 0)
(0 0 0)
(0 0 0)
(0 0 0)
(0 0 0)
(0 0 0)
(0 0 0)
(0 0 0)
(0 0 0)
(0 0 0)
(0 0 0)
(0 0 0)
(0 0 0)
(0 0 0)
(0 0 0)
(0 0 0)
(0 0 0)
(0 0 0)
(0 0 0)
(0 0 0)
(0 0 0)
(0 0 0)
(0 0 0)
(0 0 0)
(0 0 0)
(0 0 0)
(0 0 0)
(0 0 0)
(0 0 0)
(0 0 0)
(0 0 0)
(0 0 0)
(0 0 0)
(0 0 0)
(0 0 0)
(0 0 0)
(0 0 0)
(0 0 0)
(0 0 0)
(0 0 0)
(0 0 0)
(0 0 0)
(0 0 0)
(0 0 0)
(0 0 0)
(0 0 0)
(0 0 0)
(0 0 0)
(0 0 0)
(0 0 0)
(0 0 0)
(0 0 0)
(0 0 0)
(0 0 0)
(0 0 0)
(0 0 0)
(0 0 0)
(0 0 0)
(0 0 0)
(0 0 0)
(0 0 0)
(0 0 0)
(0 0 0)
(0 0 0)
(0 0 0)
(0 0 0)
(0 0 0)
(0 0 0)
(0 0 0)
(0 0 0)
(0 0 0)
(0 0 0)
(0 0 0)
(0 0 0)
(0 0 0)
(0 0 0)
(0 0 0)
(0 0 0)
(0 0 0)
(0 0 0)
(0 0 0)
(0 0 0)
(0 0 0)
(0 0 0)
(0 0 0)
(0 0 0)
(0 0 0)
(0 0 0)
(0 0 0)
(0 0 0)
(0 0 0)
(0 0 0)
(0 0 0)
(0 0 0)
(0 0 0)
(0 0 0)
(0 0 0)
(0 0 0)
(0 0 0)
(0 0 0)
(0 0 0)
(0 0 0)
(0 0 0)
(0 0 0)
(0 0 0)
(0 0 0)
(0 0 0)
(0 0 0)
(0 0 0)
(0 0 0)
(0 0 0)
(0 0 0)
(0 0 0)
(0 0 0)
(0 0 0)
(0 0 0)
(0 0 0)
(0 0 0)
(0 0 0)
(0 0 0)
(0 0 0)
(0 0 0)
(0 0 0)
(0 0 0)
(0 0 0)
(0 0 0)
(0 0 0)
(0 0 0)
(0 0 0)
(0 0 0)
(0 0 0)
(0 0 0)
(0 0 0)
(0 0 0)
(0 0 0)
(0 0 0)
(0 0 0)
(0 0 0)
(0 0 0)
(0 0 0)
(0 0 0)
(0 0 0)
(0 0 0)
(0 0 0)
(0 0 0)
(0 0 0)
(0 0 0)
(0 0 0)
(0 0 0)
(0 0 0)
(0 0 0)
(0 0 0)
(0 0 0)
(0 0 0)
(0 0 0)
(0 0 0)
(0 0 0)
(0 0 0)
(0 0 0)
(0 0 0)
(0 0 0)
(0 0 0)
(0 0 0)
(0 0 0)
(0 0 0)
(0 0 0)
(0 0 0)
(0 0 0)
(0 0 0)
(0 0 0)
(0 0 0)
(0 0 0)
(0 0 0)
(0 0 0)
(0 0 0)
(0 0 0)
(0 0 0)
(0 0 0)
(0 0 0)
(0 0 0)
(0 0 0)
(0 0 0)
(0 0 0)
(0 0 0)
(0 0 0)
(0 0 0)
(0 0 0)
(0 0 0)
(0 0 0)
(0 0 0)
(0 0 0)
(0 0 0)
(0 0 0)
(0 0 0)
(0 0 0)
(0 0 0)
(0 0 0)
(0 0 0)
(0 0 0)
(0 0 0)
(0 0 0)
(0 0 0)
(0 0 0)
(0 0 0)
(0 0 0)
(0 0 0)
(0 0 0)
(0 0 0)
(0 0 0)
(0 0 0)
(0 0 0)
(0 0 0)
(0 0 0)
(0 0 0)
(0 0 0)
(0 0 0)
(0 0 0)
(0 0 0)
(0 0 0)
(0 0 0)
(0 0 0)
(0 0 0)
(0 0 0)
(0 0 0)
(0 0 0)
(0 0 0)
(0 0 0)
(0 0 0)
(0 0 0)
(0 0 0)
(0 0 0)
(0 0 0)
(0 0 0)
(0 0 0)
(0 0 0)
(0 0 0)
(0 0 0)
(0 0 0)
(0 0 0)
(0 0 0)
(0 0 0)
(0 0 0)
(0 0 0)
(0 0 0)
(0 0 0)
(0 0 0)
(0 0 0)
(0 0 0)
(0 0 0)
(0 0 0)
(0 0 0)
(0 0 0)
(0 0 0)
(0 0 0)
(0 0 0)
(0 0 0)
(0 0 0)
(0 0 0)
(0 0 0)
(0 0 0)
(0 0 0)
(0 0 0)
(0 0 0)
(0 0 0)
(0 0 0)
(0 0 0)
(0 0 0)
(0 0 0)
(0 0 0)
(0 0 0)
(0 0 0)
(0 0 0)
(0 0 0)
(0 0 0)
(0 0 0)
(0 0 0)
(0 0 0)
(0 0 0)
(0 0 0)
(0 0 0)
(0 0 0)
(0 0 0)
(0 0 0)
(0 0 0)
(0 0 0)
(0 0 0)
(0 0 0)
(0 0 0)
(0 0 0)
(0 0 0)
(0 0 0)
(0 0 0)
(0 0 0)
(0 0 0)
(0 0 0)
(0 0 0)
(0 0 0)
(0 0 0)
(0 0 0)
(0 0 0)
(0 0 0)
(0 0 0)
(0 0 0)
(0 0 0)
(0 0 0)
(0 0 0)
(0 0 0)
(0 0 0)
(0 0 0)
(0 0 0)
(0 0 0)
(0 0 0)
(0.0453483 -0.00172187 -0.00631126)
(-0.114129 0.0649372 -0.0575033)
(-0.0445861 0.0659501 -0.00734416)
(-0.0921629 0.133546 -0.0167969)
(-0.105699 0.0592469 -0.0826137)
(-0.080509 0.138267 -0.0226663)
(-0.0752631 0.0908835 -0.0434547)
(-0.0400569 0.0647848 -0.0574185)
(0.140575 -0.088424 -0.0510427)
(0.18663 -0.0779647 -0.0297086)
(0.233781 -0.0540608 0.0142176)
(0.284254 -0.0848669 -0.0268315)
(0.422041 -0.0621049 0.0444761)
(0.141106 0.0533795 0.0181412)
(-0.0285902 0.222121 0.0371771)
(0.255517 0.0755109 0.0111833)
(0.0771795 0.141351 0.00345956)
(-0.021365 0.257968 0.0332969)
(-0.0512769 0.24769 0.0134906)
(0.134011 0.0755115 0.0129931)
(-0.0370036 0.2475 0.017362)
(-0.037804 0.15754 0.0118284)
(-0.0529467 0.0237831 -0.0266449)
(-0.0306252 0.121953 0.022879)
(-0.0249946 0.0398538 0.014056)
(-0.0223041 -0.0434553 0.00411146)
(0.158511 -0.0460309 -0.0512611)
(0.0544997 0.0447355 -0.096221)
(0.170616 0.0652385 -0.0679717)
(0.346388 -0.0258985 -0.0226138)
(0.48441 -0.00537254 0.0392397)
(0.349324 0.0636291 -0.0255936)
(0.474718 0.0464474 0.0231435)
(0.341033 0.0646323 0.00434152)
(0.115286 0.0520344 -0.00331014)
(0.247094 0.0197415 0.00548813)
(0.0473878 0.0126328 -0.00137791)
(0.108755 0.00624034 0.00414332)
(-0.0149052 0.0645702 0.015563)
(0.0248551 0.00499731 0.00553942)
(0.00830967 -0.0581693 0.0246704)
(-0.0160141 0.00793014 0.0185245)
(-0.0322996 -0.0280698 0.020416)
(-0.0984769 -0.138706 0.045631)
(-0.132796 -0.164047 0.0285117)
(-0.0328968 -0.0982368 0.0241684)
(-0.048445 -0.193813 0.0134646)
(-3.29533e-05 -0.137414 0.00930867)
(0.0797045 0.12113 -0.113061)
(0.190961 0.16165 -0.0552408)
(0.116877 0.00934236 0.0328715)
(0.29688 0.0880438 0.0307796)
(0.352089 -0.039864 0.0159672)
(0.220402 -0.0687034 0.0641247)
(0.305359 -0.158212 0.0750409)
(0.283945 -0.110253 -6.8785e-05)
(0.189912 -0.0361603 0.0121105)
(0.32003 -0.251795 0.0559632)
(0.222243 -0.329583 0.0493175)
(0.133792 -0.0422867 0.00878508)
(-0.0121985 -0.191596 0.0337674)
(0.0722801 -0.408581 0.0512872)
(-0.241581 -0.268613 0.0544532)
(-0.268139 -0.28585 0.0214977)
(-0.224953 -0.207002 -0.0149746)
(-0.257442 -0.192572 0.0522939)
(-0.214406 -0.0998993 0.0172488)
(-0.0651292 -0.138749 -0.0590185)
(0.000905897 -0.109253 -0.0161899)
(-0.102742 -0.0277182 -0.0703348)
(0.0517237 -0.0204808 -0.0308304)
(0.130398 -0.0627612 0.00129524)
(0.21209 -0.123076 0.0752188)
(0.0633697 -0.0331213 -0.0296307)
(0.0370988 -0.143741 0.0247675)
(0.158954 -0.314873 0.0903527)
(0.132007 -0.389518 0.0838101)
(0.0551192 -0.267008 0.0310925)
(0.0865683 -0.32718 0.0492587)
(0.0804306 -0.387199 0.0752764)
(-0.0360419 -0.326949 0.0916438)
(0.0986515 -0.327614 0.0423948)
(0.0722595 -0.277748 0.0756258)
(-0.18179 -0.0887616 0.0708821)
(-0.128343 0.0252645 0.0435549)
(0.0142184 -0.0981362 0.0389129)
(-0.0265984 0.0266367 0.0159544)
(-0.0742362 0.0457299 -0.0415045)
(-0.0145066 -0.104101 -0.0556882)
(0.0135227 -0.147412 -0.0576324)
(0.0508157 -0.2114 -0.0552595)
(0.0219998 -0.0783812 -0.109901)
(0.110087 -0.227587 -0.05254)
(0.0962233 -0.164637 -0.0214765)
(0.0945125 -0.0839228 -0.125921)
(0.0587984 -0.0836768 -0.0182987)
(0.176996 -0.0905781 0.027118)
(0.141264 -0.0652942 -0.000423053)
(-0.0942857 0.0311615 -0.0632211)
(0.0795455 0.00448651 0.0950273)
(-0.0583731 0.0669456 0.0224688)
(0.126078 -0.00473359 0.077619)
(0.182962 -0.0670653 0.134769)
(0.0856217 -0.00763823 0.12481)
(-0.102276 0.0733721 -0.0693959)
(-0.114766 0.0195998 -0.114013)
(-0.0171093 0.0174833 -0.18112)
(-0.0549394 0.0137534 -0.0768304)
(-0.123305 -0.0268889 -0.139159)
(-0.0986884 -0.01655 -0.144317)
(-0.119227 -0.0582162 -0.186597)
(0.101699 -0.0803287 -0.164083)
(0.0742036 -0.0565323 -0.293361)
(0.228001 -0.0801473 -0.0172323)
(0.21802 -0.0591264 -0.108768)
(0.292085 -0.0398537 0.0323695)
(0.0931868 -0.0463851 -0.247376)
(0.154327 -0.065021 -0.0537146)
(0.12296 -0.0552305 -0.186976)
(0.164957 -0.0857538 0.0678861)
(-0.114352 -0.0716448 -0.0677152)
(0.00290297 0.21944 0.117121)
(-0.142053 -0.111759 -0.033349)
(-0.0508838 -0.0186317 -0.00441575)
(-0.096283 -0.0926895 -0.0704348)
(0.123906 0.142278 0.147924)
(-0.11618 -0.149882 -0.0455491)
(-0.0957888 -0.147837 -0.0735495)
(-0.0688479 -0.12215 -0.128028)
(0.123692 -0.0290353 -0.17753)
(0.0363601 0.0183822 -0.2254)
(0.137818 0.0341922 -0.195874)
(0.077473 -0.0173118 -0.316232)
(0.0194389 0.0168582 -0.363376)
(0.0711875 0.0172135 -0.315889)
(-0.0263448 -0.104301 -0.0691774)
(-0.0101274 -0.0691383 -0.0290879)
(-0.038624 -0.105051 -0.131595)
(-0.0113149 -0.0372964 -0.173043)
(-0.0103952 -0.0275885 -0.130785)
(0.138313 0.0738056 -0.154798)
(0.0841851 0.0398933 -0.0208396)
(0.0188825 0.0228873 -0.374739)
(0.0732099 0.0323281 -0.25292)
(0.0437411 0.0140303 -0.0559757)
(0.00674589 -0.0415806 -0.00223898)
(-0.0566156 -0.0109337 -0.205811)
(-0.0206744 0.0142936 -0.424131)
(-0.00488277 0.0282226 -0.101217)
(-0.0220776 0.0128284 -0.447663)
(0.00481082 -0.034153 -0.0551706)
(-0.0366877 -0.0828551 -0.0640047)
(0.150691 -0.0806292 0.0872825)
(0.0106247 -0.0707991 -0.128496)
(0.0710491 -0.0912828 0.0290618)
(-0.0236386 -0.0622968 -0.00272368)
(0.0786263 -0.00926087 0.119493)
(-0.0651736 -0.111759 -0.272967)
(0.0385237 -0.0619609 0.0436319)
(-0.0426956 -0.0241301 0.0367262)
(0.00565373 -0.0491425 0.0867852)
(-0.00169597 -0.0191202 0.0482179)
(-0.010817 -0.00693388 0.0943156)
(0.0311919 -0.016888 0.00861346)
(0.0248728 -0.0307232 0.122734)
(0.0366889 -0.0568651 0.026239)
(0.0136097 -0.0238155 -0.323342)
(-0.0144183 -0.0726666 -0.18227)
(-0.0427223 -0.0352381 -0.417487)
(0.055919 -0.120499 -0.21397)
(0.0522691 -0.0271411 -0.31255)
(-0.016345 -0.0203774 -0.416729)
(0.0432426 -0.0123135 -0.42077)
(0.0589502 0.00496802 -0.4584)
(0.0845132 -0.104622 -0.09512)
(0.0877632 -0.0457951 -0.324855)
(0.114674 -0.0369621 -0.362842)
(0.125314 -0.0510756 -0.278299)
(0.0705171 -0.00782246 -0.471834)
(0.111018 -0.0583799 -0.19352)
(0.0986465 -0.0422272 -0.0915695)
(0.0761795 -0.0526162 -0.234001)
(0.242262 -0.0188637 0.1204)
(0.170203 -0.088108 0.142416)
(0.200306 -0.0606777 0.189853)
(0.206711 -0.0285898 0.0848115)
(0.121031 -0.106244 0.138797)
(0.188713 -0.103884 0.19112)
(-0.0136849 -0.0530679 -0.115232)
(-0.148457 -0.0747941 -0.154294)
(0.099917 0.00595028 -0.229815)
(0.00883822 -0.104623 -0.165103)
(-0.157223 -0.1687 -0.149128)
(-0.146774 -0.0835034 -0.218369)
(-0.162159 -0.104182 -0.228837)
(0.0363613 -0.0371223 -0.398714)
(0.0201067 -0.0379447 -0.468493)
(0.0913286 -0.096586 -0.0888392)
(0.0273384 -0.0664021 -0.200706)
(0.0762537 -0.162725 0.181063)
(0.0596644 -0.0719474 -0.394159)
(0.0580883 -0.108545 -0.0859577)
(0.000937235 -0.0559294 -0.240923)
(0.011492 -0.219606 0.259859)
(-0.0611753 -0.0823695 -0.0892501)
(0.0459411 0.0109678 0.20843)
(-0.0787995 -0.178184 -0.000945045)
(-0.10577 -0.111103 -0.0195541)
(-0.0669388 -0.0761232 -0.158985)
(-0.0504106 -0.173598 0.270026)
(-0.0746231 -0.178205 -0.0480036)
(-0.0460853 -0.105634 -0.292888)
(-0.0664427 -0.133024 -0.415729)
(0.0357663 -0.0221733 -0.421616)
(-0.00753129 -0.00899695 -0.48514)
(-0.0173063 -0.0103747 -0.408152)
(0.00660404 -0.049452 -0.508445)
(-0.00153361 -0.0378716 -0.550395)
(-0.00969318 -0.0464943 -0.528938)
(0.00901778 -0.0264946 -0.311791)
(-0.00435174 -0.00780345 -0.216774)
(-0.0382425 -0.0904519 -0.395808)
(-0.022909 -0.0252983 -0.394691)
(0.0152085 0.0163866 -0.359057)
(-0.0469408 0.0128328 -0.310814)
(-0.0571528 -0.0157706 -0.206636)
(-0.00379401 -0.0511313 -0.555955)
(-0.00965644 -0.0359421 -0.412567)
(-0.0469325 -0.0348356 -0.231446)
(-0.00258875 0.0221364 -0.129439)
(-0.0285986 -0.00158079 -0.4931)
(-0.0780798 0.0185825 -0.455805)
(0.00769839 0.0579144 -0.281616)
(-0.0248096 -0.0104748 -0.465379)
(-0.124851 -0.0951182 -0.197938)
(-0.0540713 -0.0323665 -0.189007)
(-0.00873468 0.0438768 0.126981)
(-0.111709 -0.0912447 -0.332541)
(-0.0564341 -0.0547125 -0.0352716)
(-0.192384 -0.0123476 0.0176039)
(-0.101623 0.0234154 0.110895)
(-0.143667 -0.0391961 -0.274704)
(-0.122127 -0.0355472 -0.136732)
(0.0325602 -0.0391272 -0.15572)
(0.0806097 -0.0303831 0.10415)
(0.0832071 -0.0464306 -0.0792754)
(0.122818 -0.0357622 0.137215)
(-0.0202699 -0.0760209 -0.251851)
(0.139134 -0.0214659 0.0860105)
(0.0597324 -0.0196709 -0.191458)
(0.00561966 -0.039191 -0.413213)
(-0.0281696 -0.0158638 -0.454084)
(-0.0117345 0.0123317 -0.446465)
(0.0530985 0.00510183 -0.460209)
(0.0608635 0.00447107 -0.481213)
(0.0187436 0.0174482 -0.440517)
(0.0607241 0.00653868 -0.455377)
(0.0607097 -0.00027951 -0.464033)
(0.0736897 -0.0251843 -0.328872)
(0.060523 -0.00652977 -0.473051)
(0.0663643 -0.00753607 -0.392795)
(0.0164487 0.000984313 -0.339417)
(0.0407591 -0.009574 -0.457326)