/*--------------------------------*- C++ -*----------------------------------*\
| =========                 |                                                 |
| \\      /  F ield         | OpenFOAM: The Open Source CFD Toolbox           |
|  \\    /   O peration     | Version:  5.x                                   |
|   \\  /    A nd           | Web:      www.OpenFOAM.org                      |
|    \\/     M anipulation  |                                                 |
\*---------------------------------------------------------------------------*/
FoamFile
{
    version     2.0;
    format      ascii;
    class       volVectorField;
    location    "9.1";
    object      U;
}
// * * * * * * * * * * * * * * * * * * * * * * * * * * * * * * * * * * * * * //

dimensions      [0 1 -1 0 0 0 0];

internalField   nonuniform List<vector> 
10571
(
(0.00455256 0.192159 0.889916)
(-0.210219 0.33266 0.724592)
(-0.206089 0.590249 1.00498)
(0.0873143 0.534994 1.27568)
(0.376224 0.737256 1.82997)
(0.11204 0.842859 1.9586)
(-1.40283 1.58542 2.21561)
(-0.452652 0.670337 0.907172)
(0.0181537 0.851565 1.43451)
(0.00618407 0.280292 1.11048)
(0.18473 -0.0918556 1.33609)
(-0.696717 -0.662671 4.2649)
(-0.978034 0.392844 2.13193)
(-0.400021 0.720443 1.27331)
(-0.147948 0.96929 1.51224)
(0.0710198 0.418113 1.59126)
(-0.0354096 0.213534 1.1256)
(-1.15084 1.61694 4.09142)
(-2.3536 1.85758 3.92603)
(-0.701988 1.20427 2.4459)
(0.0761944 0.0555135 1.52461)
(-0.429416 0.185653 1.56393)
(-0.152705 0.276489 1.69905)
(0.00843974 0.111882 0.77204)
(-0.119677 -0.0195945 0.755765)
(-0.14138 0.229666 0.662129)
(-0.272004 0.450974 1.09806)
(-0.193282 0.324461 1.06234)
(0.201239 0.426743 1.09588)
(-0.0629857 0.217836 1.6138)
(-0.341267 0.534653 2.32001)
(-0.0221903 0.300987 0.652969)
(0.0316483 0.47572 1.37467)
(-0.170958 0.420092 1.45675)
(0.0870874 -0.039929 1.1287)
(-0.333275 -0.208386 4.24663)
(0.100819 0.038087 1.62784)
(-0.00214164 0.258628 1.48521)
(-0.0965668 0.0944639 1.44386)
(-0.0900645 0.046285 1.19282)
(0.231397 0.77904 1.78375)
(0.0424983 0.159983 3.61765)
(-0.00371722 0.102799 2.39111)
(-0.176813 0.122706 1.43229)
(-0.101379 -0.0993969 0.794635)
(0.0786284 0.716574 3.72548)
(-0.0402326 0.223681 2.19707)
(-0.0868768 0.359429 2.05104)
(-0.0878826 0.018814 0.44864)
(0.00577609 0.109019 0.187422)
(-0.159846 0.58083 0.870522)
(-0.0803392 0.28503 0.572802)
(0.105677 0.334462 0.738035)
(0.883499 0.297337 1.32776)
(-0.19679 0.538306 1.57274)
(0.0383728 0.100769 0.507466)
(-0.0764953 0.307902 1.72068)
(-0.00435651 0.302281 1.31887)
(-0.0188699 0.170452 -0.185764)
(0.696376 0.431263 2.96926)
(0.255757 0.457746 1.7851)
(0.0599863 0.752711 1.8406)
(-0.579455 0.232877 1.26264)
(-0.121331 -0.232717 1.13916)
(0.326602 0.598033 0.617873)
(0.287134 0.0124353 2.62336)
(-0.0928177 0.0924503 2.35956)
(-0.481998 0.618442 1.02705)
(-0.258916 0.440284 -0.0182337)
(0.305646 0.103043 2.67273)
(0.129967 -0.407283 1.02301)
(-0.517493 0.320955 1.40823)
(-0.0343104 0.0169836 0.0125803)
(-0.0142957 0.0250551 -0.2817)
(0.0698882 0.381516 0.487872)
(0.106052 0.132691 0.0493436)
(-0.0204824 0.220535 0.272366)
(0.306143 0.0188696 1.50225)
(0.192568 0.382631 1.31352)
(0.0700823 -0.0170031 -0.0615326)
(-0.210889 0.154092 0.764985)
(-0.189413 -0.0334661 0.480897)
(0.0219233 0.178338 -0.207162)
(0.566891 1.16676 2.58808)
(0.0931672 0.521049 1.13114)
(0.193543 0.572933 0.961406)
(-0.417463 0.731094 0.853011)
(-0.277611 0.191945 0.494515)
(-0.00786233 0.65996 0.900449)
(0.0522656 0.32384 2.4361)
(0.0976623 0.339198 2.26806)
(-0.145354 0.664536 1.10502)
(-0.10901 0.321152 -0.153737)
(0.451161 -0.219267 2.77996)
(0.181368 -0.525705 1.31618)
(-0.604569 0.3878 1.6746)
(0.0273175 0.0184923 -0.191819)
(-0.0183053 -0.000965945 -0.294318)
(-0.0420216 -0.0103194 0.28028)
(0.198013 0.00454495 0.0113715)
(-0.0598316 0.134699 0.211419)
(-0.11707 -0.482226 1.3052)
(0.337309 0.291624 0.939805)
(0.10449 -0.0028784 0.178055)
(-0.199948 -0.00145767 0.7086)
(-0.0206485 -0.0389089 0.323587)
(-0.00728047 0.217051 -0.157275)
(-0.196006 0.575681 0.881128)
(0.0492625 0.598934 1.30951)
(0.0826969 0.378037 1.08664)
(-0.178696 0.566163 0.787176)
(-0.0269536 0.286151 0.139798)
(-0.280071 0.473388 1.27509)
(0.00152866 0.339378 2.65908)
(0.180151 0.411182 2.53837)
(0.100893 0.739298 1.42935)
(0.0200269 0.271057 -0.00453535)
(0.393963 -0.0908682 2.61241)
(0.0835571 -0.314377 1.72603)
(-0.246016 0.283189 1.75493)
(0.0315635 0.00744169 -0.264709)
(-0.0264878 -0.00223235 -0.267361)
(0.0627931 -0.0796326 -0.126632)
(0.17948 0.0961121 0.235576)
(-0.020586 0.0278234 0.134147)
(-0.462659 0.11778 0.700985)
(0.484205 0.31713 1.02816)
(0.00729281 0.0479246 0.0980373)
(-0.0627675 0.0542504 0.434375)
(0.0514288 -0.0162075 0.252785)
(0.00403023 0.00946885 -0.00219872)
(0.00617547 0.0791721 -0.0127442)
(-0.100137 0.715037 1.0309)
(-0.0128127 0.526211 1.44034)
(0.0151051 0.235757 1.02394)
(0.0428089 0.26368 0.440931)
(0.0332412 0.258537 0.0457129)
(0.0104512 0.00583345 -0.00172873)
(-0.316225 0.280367 1.53504)
(0.0180282 0.186541 2.86772)
(0.158551 0.31897 2.82458)
(0.105103 0.607181 1.50412)
(0.204026 -0.0311588 0.535706)
(0.263061 0.0270469 2.59383)
(0.0366337 -0.121168 2.17056)
(-0.0248103 0.144719 2.01771)
(0.0139782 0.00211618 -0.254138)
(-0.0116507 0.00757027 -0.257145)
(0.020251 -0.0398726 -0.182252)
(-0.0593577 0.0487435 0.438536)
(0.0102817 -0.010427 0.0695781)
(-0.690825 0.12438 0.777471)
(0.321463 0.255504 0.959651)
(0.0232739 0.0766785 0.144462)
(-0.0109136 0.133271 0.370879)
(0.0202012 0.0816204 0.0475346)
(-0.300369 0.311212 -0.149697)
(-0.0985604 -0.0668213 0.288975)
(-0.103722 0.417886 0.852437)
(0.0147772 0.451508 1.37481)
(0.134179 0.174732 0.939342)
(0.0864448 0.109914 0.542105)
(0.0405523 0.222188 0.130406)
(-0.0978178 0.512854 0.207573)
(-0.337071 0.153032 1.71657)
(0.0220044 0.164008 2.85273)
(0.179168 0.264904 2.83112)
(0.11528 0.404005 1.45341)
(0.343569 -0.0634246 1.01481)
(-0.0217058 0.0992125 0.158767)
(0.168311 0.0606876 2.57474)
(0.0201955 -0.0551331 2.47011)
(0.0586661 0.0467714 2.24395)
(0.00645909 -0.00198571 -0.202471)
(-0.0275919 0.00762587 -0.22325)
(-0.11858 0.0109042 -0.125701)
(-0.17341 -0.00254769 0.576667)
(0.0904563 -0.0569592 0.0128492)
(-0.0741431 0.0473314 0.545754)
(0.149088 0.0391972 0.548854)
(0.0500027 0.176019 0.150176)
(-0.0573793 0.1532 0.311076)
(-0.00411504 0.132269 0.0151725)
(-0.264933 0.024262 -0.393997)
(-0.150961 -0.224183 0.851366)
(-0.0867348 0.284113 0.732596)
(0.067906 0.470554 1.25845)
(0.210818 0.096094 0.788325)
(0.191885 0.0807649 0.436569)
(0.01437 0.0649181 0.16387)
(-0.203321 0.29756 0.427902)
(-0.323034 0.0572968 1.80354)
(0.0235943 0.145268 2.813)
(0.200097 0.224419 2.80367)
(0.134523 0.228966 1.46285)
(0.310124 -0.162982 1.17005)
(0.174955 0.0234491 0.35042)
(0.094767 0.0702779 2.59079)
(0.0190829 -0.0195942 2.65901)
(0.118967 -0.0166814 2.39641)
(-0.00047624 -0.00735991 -0.125997)
(-0.106602 0.157308 -0.133678)
(-0.250645 -0.0878355 -0.0272696)
(-0.215862 -0.0895776 0.424147)
(0.148574 -0.0761966 0.0381008)
(-0.291073 0.0229691 0.64562)
(-0.0864648 0.100334 0.3684)
(-0.0643234 0.271313 0.132816)
(-0.0175587 0.236724 0.282523)
(-0.156257 0.115534 -0.15529)
(-0.0192792 -0.480672 -0.496023)
(-0.1047 -0.37609 1.12469)
(-0.208375 0.144339 0.7527)
(0.0454973 0.442614 1.06614)
(0.203724 0.0175627 0.733624)
(0.210749 0.0941351 0.503021)
(-0.0170011 0.0262383 0.450193)
(0.00212096 -0.387097 0.316966)
(-0.306972 0.00112006 1.92519)
(0.0487816 0.121733 2.77735)
(0.199352 0.186839 2.77571)
(0.138695 0.167808 1.49254)
(0.222033 -0.249566 1.39359)
(0.0408828 0.0823607 2.63484)
(0.03168 0.00285462 2.77197)
(0.159245 -0.0448536 2.50481)
(0.0136881 -0.0113435 -0.0486168)
(0.146454 -0.0547809 -0.0550919)
(0.178001 0.0839391 -0.0770738)
(-0.0990403 -0.059328 0.340107)
(-0.0296164 0.0545199 0.0807448)
(-0.203888 -0.170338 0.769494)
(-0.0488299 0.245782 0.234746)
(-0.122421 0.282384 0.133171)
(-0.0140019 0.235141 0.274703)
(-0.208282 -0.0409959 -0.167009)
(-0.130916 -0.408135 1.21559)
(-0.309245 0.124592 0.847681)
(-0.0468833 0.359426 0.88968)
(0.111088 -0.0460259 0.735462)
(0.220351 0.121541 0.650006)
(-0.0386481 -0.0922943 0.764201)
(-0.280698 -0.0202985 2.00371)
(0.090259 0.105803 2.74379)
(0.2028 0.175958 2.75158)
(0.156936 0.122524 1.59338)
(0.247652 -0.280601 1.62294)
(0.00382323 0.100202 2.69711)
(0.0355184 -0.0133737 2.8156)
(0.190099 -0.0628953 2.59018)
(0.0620168 0.00959366 -0.00530794)
(0.345216 -0.319703 0.0844508)
(0.272383 0.039725 -0.208076)
(0.147337 0.0642704 0.197519)
(0.145363 0.0780157 0.104817)
(-0.0183962 -0.499459 0.793518)
(-0.0542154 0.306844 0.214619)
(-0.160521 0.340455 0.181001)
(-0.0150147 0.251672 0.282269)
(-0.138408 -0.141501 -0.0667754)
(-0.135063 -0.407321 1.3128)
(-0.299312 -0.0561453 0.893604)
(-0.201123 0.258639 0.801444)
(-0.0354564 -0.0261724 0.660451)
(0.19868 0.116837 0.717062)
(0.151227 -0.169103 0.890916)
(-0.246951 -0.0289432 2.0852)
(0.083024 0.121222 2.6997)
(0.222683 0.144472 2.72586)
(0.187045 0.086904 1.72423)
(0.276542 -0.297079 1.74321)
(-0.00239288 0.105714 2.74121)
(0.0515829 -0.0309148 2.84609)
(0.203709 -0.0692675 2.66069)
(0.270338 0.0204164 0.0148661)
(0.428857 -0.415953 0.184417)
(0.391741 -0.0262066 -0.238218)
(0.284536 0.13504 0.111704)
(0.266098 0.116599 0.102833)
(0.145393 -0.583831 0.799693)
(-0.115904 0.337453 0.239559)
(-0.227595 0.390506 0.211543)
(-0.0779401 0.276385 0.284025)
(-0.1634 -0.1624 0.0897916)
(-0.138676 -0.445948 1.35523)
(-0.351429 -0.193348 0.781234)
(-0.354416 0.156005 0.749454)
(-0.164506 0.0494924 0.561266)
(0.140112 0.0791947 0.724319)
(0.161616 -0.153646 1.0201)
(-0.196892 -0.0397192 2.13434)
(0.0501865 0.0927627 2.63377)
(0.218202 0.0994647 2.66017)
(0.226893 0.0418145 1.85565)
(0.294581 -0.313163 1.87809)
(-0.00641536 0.105789 2.76911)
(0.0454772 -0.0492639 2.84133)
(0.210957 -0.0752335 2.70808)
(0.359157 0.0251628 0.0289284)
(0.449513 -0.434899 0.0853002)
(0.51785 -0.149775 -0.193656)
(0.270794 0.135956 0.018338)
(0.295815 0.193738 0.0866437)
(0.249734 -0.475085 0.837936)
(-0.154334 0.319192 0.27656)
(-0.295336 0.428996 0.214174)
(-0.156519 0.31607 0.299905)
(-0.165119 -0.188399 0.252645)
(-0.124262 -0.416018 1.36903)
(-0.392143 -0.239171 0.721182)
(-0.43785 0.0344678 0.716992)
(-0.290827 0.0851106 0.531693)
(-0.00135744 -0.00180317 0.713072)
(0.12032 -0.21071 1.16027)
(-0.148798 -0.0801235 2.18399)
(0.0610772 0.0291788 2.56221)
(0.164384 0.0717655 2.57888)
(0.271391 -0.0180613 1.96729)
(0.311454 -0.330652 1.98769)
(-0.0136641 0.0943072 2.75636)
(0.0240288 -0.0587331 2.80704)
(0.220228 -0.0867706 2.72991)
(0.386471 0.0275176 -0.0169974)
(0.46188 -0.474326 -0.0245408)
(0.597892 -0.229874 -0.0838728)
(0.343458 0.138879 -0.0317049)
(0.323785 0.213226 0.0888385)
(0.36214 -0.370671 0.845166)
(-0.112825 0.21477 0.30325)
(-0.294682 0.443028 0.208917)
(-0.182798 0.361583 0.311768)
(-0.174346 -0.155691 0.397877)
(-0.106891 -0.377179 1.4194)
(-0.333431 -0.255991 0.722818)
(-0.463673 -0.0779843 0.759525)
(-0.349054 0.0774873 0.525176)
(-0.102963 -0.0292957 0.69122)
(0.071081 -0.28168 1.25458)
(-0.0807135 -0.146621 2.20245)
(0.0013204 0.011051 2.44403)
(0.163703 0.0319907 2.55101)
(0.290023 -0.0793011 2.04915)
(0.312036 -0.344082 2.03761)
(-0.0108488 0.0781646 2.70524)
(0.00377565 -0.0679218 2.7488)
(0.23037 -0.0964087 2.72215)
(0.400178 0.0279131 -0.0851043)
(0.445237 -0.475689 0.00757997)
(0.643553 -0.302881 0.0610719)
(0.403944 0.124064 -0.0102607)
(0.313899 0.225579 0.124184)
(0.440504 -0.521772 0.730774)
(0.0111161 -0.108961 0.371957)
(-0.205225 0.428018 0.210596)
(-0.144203 0.393244 0.332045)
(-0.153497 -0.0910417 0.587219)
(-0.0383425 -0.35505 1.36873)
(0.0366211 -0.35627 0.855041)
(-0.37607 -0.220132 0.833925)
(-0.334217 0.0483017 0.539162)
(-0.15092 -0.0123581 0.693458)
(0.0532726 -0.324406 1.31493)
(-0.0750034 -0.292741 2.11218)
(-0.0993423 -0.118916 2.30349)
(0.157073 -0.0162601 2.49104)
(0.285324 -0.130389 2.09154)
(0.319188 -0.360459 2.05292)
(-0.0111264 0.0595908 2.60779)
(0.0123652 -0.0877316 2.66891)
(0.23605 -0.106124 2.68556)
(0.421584 0.0333437 -0.0834991)
(0.300216 -0.31657 0.149261)
(0.604603 -0.395652 0.269417)
(0.433411 0.0482289 0.085953)
(0.282351 0.262275 0.127278)
(0.522153 -0.834388 0.543186)
(0.169986 -0.488664 0.541862)
(-0.00845631 0.304899 0.252867)
(-0.105854 0.390072 0.388024)
(-0.144088 -0.177157 0.835465)
(-0.0212324 -0.533835 1.15307)
(0.206709 -0.898335 0.905121)
(-0.048093 -0.49796 0.96743)
(-0.231057 -0.0266164 0.667103)
(-0.166245 0.00390645 0.741862)
(0.0556642 -0.34862 1.35122)
(-0.109917 -0.532462 1.90853)
(0.0363549 -0.298802 2.16388)
(0.199518 -0.133044 2.36305)
(0.29551 -0.187173 2.10427)
(0.334967 -0.389564 2.06793)
(0.0417932 -0.0049289 2.4036)
(0.0455901 -0.105401 2.55244)
(0.226402 -0.102453 2.61787)
(0.452055 0.0402793 0.00103157)
(0.0625845 -0.111593 0.263411)
(0.46216 -0.436559 0.451222)
(0.426578 -0.0406955 0.216572)
(0.214351 0.241016 0.119924)
(0.480992 -0.688669 0.498287)
(0.216959 -0.660004 0.765612)
(0.157319 0.0990121 0.378294)
(-0.117256 0.339925 0.470937)
(-0.113227 -0.284246 1.01503)
(-0.0401399 -0.658458 0.826897)
(0.370415 -0.87615 0.77439)
(0.166813 -0.691829 1.13186)
(-0.0884058 -0.133395 0.917907)
(-0.169938 0.0155685 0.83958)
(0.0641387 -0.370903 1.3764)
(0.0256131 -0.506131 1.16714)
(0.2955 -0.541704 1.92567)
(0.270381 -0.327641 2.26535)
(0.329743 -0.294594 2.12304)
(0.350672 -0.428915 2.10016)
(0.311795 -0.115037 2.20195)
(0.14839 -0.129939 2.41799)
(0.237775 -0.12834 2.51096)
(0.431125 0.0283266 0.160253)
(-0.115172 -0.0176163 0.347727)
(0.285392 -0.499789 0.575634)
(0.41304 -0.0883499 0.360603)
(0.0803244 0.0947655 0.254249)
(0.227904 -0.439559 0.495616)
(0.165062 -0.701197 0.943012)
(0.22753 -0.0647422 0.520975)
(-0.115363 0.246078 0.533884)
(-0.0659907 -0.276269 1.0865)
(-0.0453845 -0.479099 0.623622)
(0.136095 -0.494328 0.514693)
(0.0885176 -0.737903 1.27178)
(0.0142884 -0.22661 1.14649)
(-0.177129 -0.0250501 0.975625)
(0.0683113 -0.373087 1.39693)
(0.0603006 -0.304879 0.663888)
(0.226035 -0.73115 1.70915)
(0.149441 -0.431495 2.20938)
(0.298026 -0.367937 2.11849)
(0.334424 -0.46315 2.11189)
(0.21783 -0.172253 1.39632)
(0.227394 -0.204867 2.23739)
(0.247084 -0.144447 2.42268)
(0.368797 0.0138915 0.348602)
(-0.187262 -0.0215341 0.495235)
(0.163557 -0.491633 0.693782)
(0.395469 -0.079063 0.516747)
(-0.026357 -0.0199318 0.439388)
(0.110014 -0.31831 0.581786)
(0.104835 -0.728743 1.01465)
(0.231664 -0.206574 0.659906)
(-0.0880519 0.0800586 0.640996)
(-0.0420093 -0.252527 1.14531)
(-0.033555 -0.249139 0.66836)
(-0.0774688 -0.388094 0.408922)
(0.045197 -0.74387 1.24297)
(0.104148 -0.36812 1.35052)
(-0.106633 -0.1815 1.14403)
(0.057779 -0.335852 1.41883)
(-0.150947 -0.239791 0.430112)
(0.0209806 -0.654843 1.40671)
(0.0409633 -0.480877 2.12945)
(0.233445 -0.423725 2.0437)
(0.310854 -0.457882 2.07876)
(-0.323917 -0.0429315 0.683599)
(0.227471 -0.226586 2.03583)
(0.237754 -0.142962 2.25221)
(0.297541 0.000564495 0.538284)
(-0.214973 0.0366882 0.700127)
(0.121443 -0.451917 0.834357)
(0.341817 -0.0673012 0.686865)
(-0.0982011 -0.0918855 0.611628)
(0.0863907 -0.255922 0.714282)
(0.0617943 -0.726382 0.987454)
(0.191473 -0.333043 0.819939)
(-0.0416541 -0.126749 0.806543)
(-0.0469075 -0.239603 1.18161)
(-0.0244005 -0.0798968 0.681974)
(-0.0393546 -0.328581 0.48527)
(-0.0861851 -0.723027 1.0802)
(0.135459 -0.532493 1.42656)
(0.0294819 -0.387265 1.29325)
(0.0196035 -0.322976 1.44533)
(-0.189825 -0.239837 0.362144)
(-0.16277 -0.34986 0.961301)
(0.0678187 -0.604418 1.96604)
(0.126085 -0.421972 1.88427)
(0.237297 -0.393654 2.01442)
(-0.371917 -0.059182 0.462129)
(0.188276 -0.138156 1.71745)
(0.219934 -0.228747 2.00071)
(0.235239 -0.0114329 0.725532)
(-0.254048 0.138206 0.874942)
(0.0692084 -0.432185 0.96467)
(0.237944 -0.0301172 0.855636)
(-0.157699 -0.14818 0.784024)
(0.0719274 -0.185839 0.787724)
(-0.0191187 -0.654537 0.969124)
(0.127467 -0.410764 1.01321)
(0.00622407 -0.309782 0.990604)
(-0.0597604 -0.242075 1.21602)
(-0.0163193 0.0202793 0.677278)
(0.0673411 -0.214932 0.614803)
(-0.176633 -0.574009 0.851516)
(0.110333 -0.576397 1.39703)
(0.105532 -0.520775 1.39602)
(0.0215414 -0.333829 1.48912)
(-0.137615 -0.225804 0.343902)
(-0.221559 -0.210144 0.728746)
(-0.00470114 -0.629281 1.63816)
(0.162349 -0.541514 1.74761)
(0.202653 -0.345365 1.87882)
(-0.302922 -0.0955719 0.45356)
(-0.189761 -0.0163435 0.996515)
(0.238049 -0.13985 1.28136)
(0.181105 -0.0168168 0.88958)
(-0.271156 0.181488 0.985543)
(-0.0215945 -0.354647 1.08423)
(0.120643 0.0233251 0.994948)
(-0.205637 -0.20697 0.97667)
(0.0246618 -0.133825 0.843972)
(-0.115355 -0.547606 0.966918)
(0.103758 -0.446397 1.15442)
(0.040223 -0.40312 1.162)
(-0.0574575 -0.316048 1.25354)
(-0.00307652 0.0872693 0.674635)
(0.115873 -0.117154 0.672376)
(-0.0684731 -0.40899 0.729382)
(0.0879109 -0.54711 1.34132)
(0.0970147 -0.549738 1.40189)
(0.0786662 -0.402994 1.57701)
(-0.0496776 -0.173654 0.358547)
(-0.208057 -0.158282 0.60929)
(-0.151339 -0.361118 1.21931)
(0.104714 -0.5043 1.51246)
(0.209801 -0.370982 1.83824)
(-0.218354 -0.0796988 0.439813)
(-0.199556 0.0428054 0.671079)
(-0.0299187 0.0128566 0.87372)
(0.113419 -0.0171306 1.01564)
(-0.26238 0.181327 1.08414)
(-0.0809183 -0.211272 1.19267)
(0.0146754 0.0315447 1.11488)
(-0.243956 -0.24703 1.17773)
(-0.0264899 -0.0447262 0.920348)
(-0.120447 -0.428621 0.925399)
(0.116348 -0.438908 1.22728)
(0.0561605 -0.396499 1.29355)
(-0.0395017 -0.417495 1.39822)
(0.00489985 0.134988 0.659835)
(0.121802 -0.0334737 0.663267)
(0.0444124 -0.297011 0.674849)
(0.12919 -0.515325 1.25685)
(0.0897886 -0.535756 1.39969)
(0.100002 -0.526253 1.62541)
(0.0290267 -0.117023 0.386783)
(-0.146755 -0.120878 0.551966)
(-0.14906 -0.124773 0.910638)
(0.0679576 -0.359087 1.04936)
(0.234807 -0.450162 1.63937)
(-0.154002 -0.0547441 0.418824)
(-0.14999 0.00329686 0.548305)
(-0.0578233 0.00999283 0.675114)
(0.00697989 -0.0188577 1.11797)
(-0.245545 0.172931 1.16135)
(-0.118243 -0.094326 1.25645)
(-0.0652621 0.00215651 1.23048)
(-0.259572 -0.249487 1.36756)
(-0.0453241 0.0912503 0.987955)
(-0.0638967 -0.282851 0.920275)
(0.10001 -0.368123 1.30058)
(0.0559219 -0.351051 1.40145)
(-0.0608025 -0.433816 1.58826)
(0.00760506 0.170355 0.633951)
(0.125542 0.0388137 0.627859)
(0.124014 -0.21011 0.637264)
(0.16467 -0.424535 1.11999)
(0.103055 -0.48658 1.3809)
(0.0857433 -0.503262 1.63208)
(0.0697405 -0.0836173 0.399458)
(-0.0988513 -0.0792995 0.522687)
(-0.101148 -0.0403069 0.704352)
(0.0317608 -0.166054 0.830799)
(0.0739751 -0.0819761 1.09913)
(-0.114073 -0.0367769 0.39944)
(-0.113739 -0.0270346 0.467374)
(-0.0359917 0.0189927 0.503549)
(-0.0707493 -0.0197445 1.19831)
(-0.226189 0.171589 1.20431)
(-0.141858 -0.0320314 1.28357)
(-0.107641 -0.0296877 1.33094)
(-0.245613 -0.193804 1.51952)
(-0.0273291 0.198539 0.987041)
(-0.000398056 -0.135762 0.955522)
(0.0490747 -0.266608 1.36234)
(0.0196866 -0.242677 1.49332)
(-0.0254455 -0.391127 1.73276)
(0.00835615 0.190438 0.617781)
(0.12202 0.0872621 0.610454)
(0.155502 -0.138213 0.633024)
(0.109278 -0.268119 1.05766)
(0.102047 -0.437792 1.30567)
(0.0844058 -0.390635 1.50392)
(0.0733545 -0.0742941 0.406686)
(-0.0860583 -0.0316455 0.506326)
(-0.0968563 -0.00956607 0.568345)
(0.00718354 -0.0216451 0.709164)
(-0.0117626 0.0890179 0.786756)
(-0.0948096 -0.0230805 0.390917)
(-0.0973198 -0.0258184 0.407799)
(-0.0612886 0.0395946 0.394855)
(-0.106721 -0.0176612 1.2536)
(-0.216696 0.183868 1.19963)
(-0.145932 -0.0049088 1.29158)
(-0.153722 -0.0483584 1.41353)
(-0.241867 -0.146944 1.58732)
(-0.00448587 0.244964 0.942924)
(0.0330196 -0.0230264 1.00004)
(-0.00703332 -0.179876 1.40293)
(-0.0338096 -0.131231 1.53368)
(0.0494304 -0.287851 1.8684)
(0.00840812 0.19038 0.621457)
(0.101376 0.107154 0.630093)
(0.117932 -0.0708636 0.670458)
(0.00586965 -0.0884953 1.01481)
(0.0733874 -0.290775 1.24693)
(-0.116637 -0.0900466 1.25774)
(0.0508733 -0.0696057 0.428533)
(-0.0952328 0.00796282 0.50971)
(-0.117173 0.0206439 0.497518)
(-0.00250888 0.0670392 0.605078)
(-0.0369764 0.15998 0.656319)
(-0.0889801 -0.0162063 0.401112)
(-0.099533 -0.00829617 0.379382)
(-0.0992732 0.0565567 0.340479)
(-0.129362 -0.0227625 1.30668)
(-0.200151 0.180931 1.16969)
(-0.167605 0.0212651 1.30319)
(-0.186788 -0.0655176 1.46347)
(-0.249448 -0.133209 1.58558)
(0.0236849 0.252659 0.907492)
(0.0144613 0.0461161 1.04126)
(-0.0598354 -0.108474 1.40961)
(-0.0557777 -0.0801549 1.52265)
(0.000811303 -0.167969 1.88965)
(0.00722258 0.162572 0.65221)
(0.0699529 0.102268 0.677898)
(0.034396 0.00394812 0.738907)
(-0.0767942 0.0467425 0.968062)
(0.00742557 -0.0476613 1.15072)
(-0.0820705 0.0994484 1.08954)
(0.024309 -0.0666089 0.469464)
(-0.107047 0.0358594 0.539712)
(-0.134841 0.0469946 0.479634)
(-0.0450169 0.106479 0.540554)
(-0.0517959 0.186385 0.638475)
(-0.0876568 -0.0154758 0.432578)
(-0.107741 0.0118917 0.382383)
(-0.126314 0.067645 0.324996)
(-0.138841 -0.0250704 1.36737)
(-0.131273 0.140753 1.14098)
(-0.178283 0.052393 1.29497)
(-0.161037 -0.0704882 1.47952)
(-0.216591 -0.108279 1.57401)
(0.0299093 0.228917 0.89492)
(-0.0405712 0.0894404 1.08154)
(-0.123417 -0.0281177 1.36162)
(-0.0334996 -0.0395475 1.47835)
(-0.105875 -0.0761125 1.69748)
(0.00562399 0.127918 0.69371)
(0.0362307 0.0852298 0.736275)
(-0.0418834 0.0670109 0.813883)
(-0.116431 0.111418 0.935949)
(-0.0641723 0.0889355 1.02309)
(0.0429728 0.15663 1.08275)
(-0.0056503 -0.0662116 0.527826)
(-0.113287 0.0527633 0.592814)
(-0.137101 0.0578186 0.490115)
(-0.0897956 0.0997333 0.523888)
(-0.0702738 0.197555 0.647986)
(-0.087914 -0.0199905 0.478302)
(-0.112693 0.0220717 0.407046)
(-0.138976 0.074164 0.333986)
(-0.136146 -0.0159337 1.39456)
(-0.0532413 0.0827407 1.08959)
(-0.144501 0.0577675 1.27907)
(-0.140117 -0.0362727 1.47506)
(-0.124884 -0.0635378 1.56304)
(-0.00659407 0.175545 0.901753)
(-0.0882273 0.12221 1.11573)
(-0.168917 0.0584882 1.27383)
(-0.0400381 0.052416 1.36544)
(-0.0507916 -0.00911566 1.53007)
(0.00498048 0.0994481 0.741414)
(-0.000566907 0.0746921 0.797798)
(-0.088242 0.107575 0.884441)
(-0.124776 0.130353 0.931756)
(-0.104269 0.11113 0.922054)
(0.080051 0.211093 1.10352)
(-0.0342606 -0.0619522 0.596613)
(-0.111923 0.0608842 0.656432)
(-0.120971 0.0617462 0.525454)
(-0.10204 0.0862389 0.534966)
(-0.108035 0.21944 0.60103)
(-0.0894641 -0.0256432 0.532432)
(-0.117156 0.0205296 0.440604)
(-0.142415 0.0801904 0.356996)
(-0.124018 -0.0200838 1.40937)
(-0.0321456 0.0355905 1.07446)
(-0.138053 0.0562721 1.24308)
(-0.171528 -0.0253869 1.45951)
(-0.108652 -0.0649278 1.53667)
(-0.0452451 0.135417 0.918419)
(-0.103853 0.142221 1.13624)
(-0.162316 0.118246 1.20784)
(-0.0805998 0.128369 1.21104)
(0.0442235 0.12944 1.40944)
(0.00366122 0.0764025 0.801223)
(-0.0295693 0.0612841 0.86051)
(-0.104834 0.12831 0.949968)
(-0.119572 0.134384 0.939511)
(-0.10045 0.097613 0.885007)
(0.0323731 0.220998 1.1162)
(-0.0558317 -0.0557814 0.671849)
(-0.10765 0.0616301 0.719817)
(-0.104547 0.0656869 0.563096)
(-0.0897623 0.0838257 0.558003)
(-0.122047 0.227684 0.535026)
(-0.0936045 -0.0291053 0.591421)
(-0.129315 0.0170527 0.473882)
(-0.148694 0.0906786 0.387237)
(-0.0704606 -0.01923 1.48159)
(-0.0212667 0.00805239 1.12828)
(-0.154561 -0.00559437 1.2038)
(-0.174067 0.0145555 1.41611)
(-0.164023 -0.0731481 1.4259)
(-0.054528 0.11178 0.937015)
(-0.0995875 0.146157 1.14026)
(-0.119697 0.124594 1.17889)
(-0.0821713 0.140354 1.10679)
(0.0703758 0.193206 1.33803)
(0.00238368 0.0588427 0.862798)
(-0.0438675 0.0430689 0.91943)
(-0.101638 0.129816 1.00429)
(-0.0826901 0.126252 0.953405)
(-0.0785548 0.0959373 0.886541)
(-0.10097 0.16329 1.07671)
(-0.0722994 -0.0565796 0.75189)
(-0.105906 0.0568641 0.779435)
(-0.104427 0.073237 0.594232)
(-0.0712175 0.110778 0.588523)
(-0.108948 0.22804 0.498455)
(-0.10126 -0.0294769 0.654068)
(-0.150422 0.0159996 0.510515)
(-0.165777 0.106534 0.424509)
(0.000453098 -0.0122351 1.56131)
(0.00952659 0.000204793 1.17168)
(-0.14549 -0.0559196 1.20011)
(-0.0814265 0.0444837 1.30817)
(-0.0458522 0.0410087 1.2194)
(-0.0548406 0.100209 0.94656)
(-0.0880193 0.133794 1.12784)
(-0.0889185 0.0798684 1.16849)
(-0.0688545 0.133039 1.06519)
(0.018433 0.149359 1.26888)
(-0.000493981 0.0433346 0.92182)
(-0.0487599 0.0251235 0.976702)
(-0.0939686 0.112368 1.04014)
(-0.0465165 0.109709 0.937489)
(-0.0460206 0.127811 0.888742)
(-0.115198 0.113472 0.999012)
(-0.0872496 -0.0625402 0.833642)
(-0.109885 0.052611 0.837047)
(-0.125088 0.0812428 0.619115)
(-0.0735037 0.168399 0.610991)
(-0.0978536 0.232218 0.492469)
(-0.112052 -0.0288197 0.720257)
(-0.177729 0.01837 0.556267)
(-0.192292 0.126813 0.474547)
(0.0448347 -0.0136365 1.64224)
(0.0121607 0.0178479 1.14031)
(-0.0547811 0.00212335 1.17802)
(-0.0511775 0.005316 1.19726)
(-0.014147 0.109298 1.00992)
(-0.0567859 0.0933923 0.958483)
(-0.0892385 0.0923505 1.11669)
(-0.103909 0.0385344 1.15571)
(-0.084963 0.140086 1.04545)
(-0.064249 0.0758456 1.16686)
(-0.00408553 0.0249284 0.976541)
(-0.0535868 0.00942424 1.03497)
(-0.0952168 0.0853051 1.06691)
(-0.0540092 0.109401 0.913274)
(-0.044239 0.188957 0.850947)
(-0.0254246 0.140574 0.913027)
(-0.0980658 -0.0699178 0.911713)
(-0.117999 0.0517965 0.892772)
(-0.153836 0.0884281 0.643474)
(-0.0977221 0.226559 0.620285)
(-0.101666 0.253558 0.516013)
(-0.123361 -0.0296856 0.790903)
(-0.205558 0.0223568 0.611152)
(-0.221053 0.147644 0.537228)
(0.0727009 -0.00866487 1.70802)
(-0.0531631 0.0589968 1.0248)
(0.0691427 0.118073 1.11496)
(-0.0368635 -0.0168353 1.15655)
(-0.071465 0.0330698 0.936417)
(-0.0548645 0.0930946 0.986538)
(-0.0932407 0.0743185 1.13531)
(-0.137769 0.0392521 1.12816)
(-0.103869 0.164123 0.979767)
(-0.0543618 0.0909653 1.05061)
(-0.0103549 0.0105952 1.02671)
(-0.0538145 0.00157911 1.09191)
(-0.0968618 0.0653756 1.09439)
(-0.0809254 0.126581 0.872624)
(-0.0561591 0.233483 0.780943)
(-0.00603614 0.254514 0.808016)
(-0.102805 -0.077347 0.982918)
(-0.125426 0.0553113 0.949841)
(-0.16884 0.0969264 0.674192)
(-0.126658 0.258533 0.635135)
(-0.115766 0.284309 0.572838)
(-0.133702 -0.0359167 0.865043)
(-0.226403 0.0255793 0.672465)
(-0.243863 0.162607 0.608206)
(0.0742134 -0.014804 1.72248)
(-0.0682113 0.0456867 0.985809)
(0.0961099 0.127305 1.04686)
(-0.0281483 -0.0305069 1.17254)
(-0.0365878 0.00751108 0.910671)
(-0.066678 0.079343 1.04066)
(-0.0868602 0.081466 1.15124)
(-0.134887 0.0666585 1.09218)
(-0.0373853 0.174505 0.84867)
(0.0122294 0.18326 0.845894)
(-0.0170261 0.00219302 1.07239)
(-0.0206729 0.00420639 1.14429)
(-0.0890445 0.0660351 1.12641)
(-0.0725767 0.149737 0.845333)
(-0.0573109 0.234471 0.721018)
(-0.0212612 0.315705 0.758442)
(-0.103882 -0.0844783 1.04531)
(-0.128518 0.0583792 1.01126)
(-0.154727 0.110236 0.714136)
(-0.144038 0.256849 0.659713)
(-0.122735 0.297071 0.654291)
(-0.142474 -0.0450859 0.938694)
(-0.237056 0.0355617 0.733627)
(-0.253847 0.167213 0.686689)
(0.0301178 -0.0221791 1.7929)
(-0.0580909 0.0362401 1.00619)
(-0.0346565 0.154453 0.961603)
(0.0550025 -0.0702361 1.24575)
(0.0861699 -0.0115104 0.85465)
(-0.0716415 0.0738261 1.10435)
(-0.087228 0.122046 1.15315)
(-0.0424661 0.137364 0.998571)
(0.054996 0.187098 0.739143)
(0.0884407 0.222255 0.732037)
(-0.0200836 0.00563656 1.11583)
(0.0241712 0.0119368 1.16358)
(-0.0813015 0.0825166 1.168)
(-0.0201175 0.190117 0.829694)
(-0.0480416 0.21615 0.69168)
(-0.0295092 0.312271 0.747101)
(-0.103904 -0.0855191 1.09782)
(-0.126609 0.0565384 1.07216)
(-0.110524 0.132295 0.762908)
(-0.13476 0.237951 0.691854)
(-0.125721 0.29072 0.729519)
(-0.14427 -0.0523097 1.01214)
(-0.235017 0.0550691 0.797626)
(-0.251046 0.163311 0.768668)
(0.111672 0.020282 1.85148)
(-0.0545923 0.0299408 1.09478)
(-0.11248 0.188059 0.878363)
(0.222615 -0.00331786 1.20224)
(0.199522 0.0567624 0.819317)
(-0.0878015 0.0711011 1.17441)
(-0.0890472 0.164249 1.14714)
(0.0749388 0.226826 0.881291)
(0.0899127 0.20576 0.692013)
(0.122017 0.246185 0.729772)
(-0.0194991 0.0145942 1.15456)
(0.0416045 -0.00127122 1.15703)
(-0.0824602 0.0865305 1.21792)
(0.0429402 0.224425 0.827954)
(-0.0354475 0.203143 0.693352)
(-0.0265173 0.300525 0.750511)
(-0.102921 -0.0841302 1.14188)
(-0.115723 0.0445988 1.1283)
(-0.0642134 0.138334 0.816142)
(-0.103151 0.208549 0.734752)
(-0.123841 0.270565 0.790935)
(-0.136754 -0.0606608 1.08199)
(-0.221863 0.074517 0.870868)
(-0.237897 0.15502 0.852079)
(0.308155 0.0648392 1.8137)
(0.0449627 -0.00808138 1.14242)
(0.0528159 0.167608 0.780772)
(0.21831 0.134792 0.996795)
(0.248407 0.205608 0.775472)
(-0.0837731 0.0551456 1.24843)
(-0.0815787 0.163765 1.14234)
(0.117334 0.269093 0.823648)
(0.0803064 0.210784 0.692489)
(0.101307 0.235374 0.763266)
(-0.0194457 0.0265836 1.1862)
(0.0352226 -0.021881 1.14747)
(-0.0854652 0.0677304 1.26281)
(0.0859111 0.215878 0.847176)
(-0.018532 0.183101 0.724984)
(-0.0302707 0.250818 0.771546)
(-0.0944315 -0.0800022 1.17279)
(-0.0896109 0.0289831 1.17329)
(-0.0213385 0.114707 0.86845)
(-0.0578537 0.177694 0.787141)
(-0.102382 0.233229 0.85117)
(-0.117404 -0.0666029 1.13726)
(-0.194036 0.0728147 0.953353)
(-0.217246 0.145062 0.939173)
(0.266525 -0.0360883 1.71297)
(0.0483457 0.0494113 1.07515)
(0.191459 0.120552 0.626978)
(0.0873253 0.297178 0.785744)
(0.239313 0.251688 0.74244)
(-0.0460073 0.0236416 1.30949)
(-0.0559293 0.157285 1.14604)
(0.133873 0.267171 0.805646)
(0.0508342 0.189669 0.723631)
(0.0447962 0.167309 0.766546)
(-0.0151494 0.0434953 1.20453)
(0.032049 -0.0422164 1.144)
(-0.083768 0.0476943 1.29225)
(0.116594 0.18554 0.878026)
(-0.000387204 0.146689 0.77028)
(-0.0191341 0.180949 0.794007)
(-0.0748807 -0.0721434 1.18)
(-0.0560991 0.0233265 1.20194)
(0.0211982 0.0761534 0.911585)
(-0.00965613 0.14082 0.838349)
(-0.0672492 0.174443 0.925214)
(-0.0889713 -0.066662 1.17246)
(-0.146905 0.0516416 1.0271)
(-0.182053 0.121029 1.03122)
(-0.120333 0.0185696 1.31055)
(0.0479721 0.0187431 0.799465)
(0.139435 0.0592363 0.561557)
(0.0323905 0.298048 0.712147)
(0.107749 0.152316 0.790944)
(-0.00885069 -0.00142761 1.34879)
(0.0212094 0.177083 1.16909)
(0.168001 0.235846 0.806511)
(0.0412662 0.149964 0.746451)
(0.0386 0.0880248 0.759789)
(-0.00538286 0.0677395 1.18577)
(0.0240299 -0.0520041 1.14839)
(-0.0728457 0.0460499 1.3063)
(0.136711 0.166487 0.908362)
(0.00455719 0.104397 0.817206)