/*--------------------------------*- C++ -*----------------------------------*\
| =========                 |                                                 |
| \\      /  F ield         | OpenFOAM: The Open Source CFD Toolbox           |
|  \\    /   O peration     | Version:  5.x                                   |
|   \\  /    A nd           | Web:      www.OpenFOAM.org                      |
|    \\/     M anipulation  |                                                 |
\*---------------------------------------------------------------------------*/
FoamFile
{
    version     2.0;
    format      ascii;
    class       volScalarField;
    location    "0.35";
    object      Ksl;
}
// * * * * * * * * * * * * * * * * * * * * * * * * * * * * * * * * * * * * * //

dimensions      [1 -3 -1 0 0 0 0];

internalField   nonuniform List<scalar> 
10571
(
265.435
976.826
1156.32
697.685
865.988
1228.35
246.337
782.753
1207.7
1712.56
357.839
507.356
610.88
539.314
1287.64
1301.37
1008.39
882.408
906.088
1947.66
1817.21
588.12
1049.81
1006.63
38.4455
16.4193
25.8209
46.528
29.4703
41.989
27.0758
31.7685
41.0917
77.9825
19.4333
39.6014
21.3635
45.7823
56.7216
73.8003
37.1342
41.6895
32.3086
23.7107
47.6744
70.6569
17.7412
51.5921
39.3584
59.9214
15.3992
18.0914
9.96194
28.3566
14.1394
16.8397
24.8245
43.6547
29.4736
6.39338
10.0982
16.5083
47.9864
100.856
31.6453
36.7738
6.84915
7.56286
32.4537
69.8078
29.1114
16.2221
0.730503
62.0052
10.1748
19.3781
7.34298
6.11392
17.791
15.0365
24.9967
43.6642
19.7019
13.6768
10.0636
10.7066
57.9167
159.234
21.2094
23.7309
19.8026
40.9818
50.4848
45.3405
31.3179
21.5905
20.0489
31.908
11.8444
11.7844
11.1372
0.211946
15.5946
24.5329
22.0547
67.029
-5.74593e-15
0
9.41999
15.5926
66.5148
93.5229
22.4418
24.3487
16.2241
11.9585
32.062
36.7893
28.1664
12.9181
23.2389
52.4743
6.29138
6.25083
19.4448
17.9932
6.74655
23.9707
22.0344
35.3696
3064.28
0
20.9621
7.48916
18.0382
57.4951
121.231
6526.27
33.3331
13.7883
12.6972
10.1717
33.6765
39.0838
19.0676
13.9031
0
26.3271
29.6543
16.3738
18.9532
5.91512
13.6276
21.0498
25.3367
34.408
2.06517
0
0
4.42312
22.2414
70.6403
89.2497
0
47.2064
11.9557
11.9363
20.0207
25.6965
0
46.2969
10.7281
28.3813
20.2858
63.9436
15.5986
38.8349
9.44384
8.84424
12.008
18.9593
37.1093
35.806
0
20.6183
-1.19792e-15
4.42228
15.9767
56.8797
140.645
0
21.5133
18.4012
9.7816
17.8864
47.0633
0
66.4757
36.5213
12.8979
25.3939
52.751
8.08751
27.2183
24.1017
6.83681
13.5526
15.0256
30.7373
42.2627
0
5.69849
17.7394
6.47739
21.8576
62.2227
137.494
0
15.6085
33.2804
16.3274
19.0882
74.1382
64.6465
19.4347
0
9.39627
57.9087
22.1337
8.29665
22.58
2.0442
8.32879
10.968
32.8484
1.47349
25.0517
7.44425
15.2741
16.1463
74.3788
127.643
32.3792
32.3763
21.0386
24.2836
47.5462
95.5872
10.9091
0.381198
21.2266
87.7834
91.6827
13.0527
22.9862
12.8593
6.04171
9.56971
26.9831
27.013
0.965941
0
13.2897
10.1425
55.9225
110.081
3.86001
31.5962
19.4074
29.4603
86.2924
40.5114
17.3366
12.8063
29.7136
63.1831
28.5678
19.1617
0.233329
11.3805
6.98071
12.399
23.4804
31.2998
0
7.14621
20.3146
19.0331
63.1947
79.7514
18.4018
36.7578
24.9642
31.1548
55.8206
67.7598
16.5098
-1.16173e-14
60.9767
64.245
19.2506
6.55349
9.45299
6.5774
7.19119
17.5049
26.8333
14.2102
19.819
2.50601
14.9217
26.9271
74.321
72.804
21.6859
22.4862
12.2466
43.8205
42.5474
99.8281
9.00701
-3.98509e-16
22.9079
62.0929
65.8932
19.6812
9.86623
22.8219
16.5062
29.359
19.9107
36.1276
0
25.8464
18.5335
14.3457
68.9706
102.114
14.4463
38.625
4.67814
25.5411
61.0047
90.2157
5.77231
34.5339
26.1214
48.3721
25.6817
18.6016
52.549
20.3929
40.6972
11.5295
18.4373
37.5599
21.2263
13.7173
15.6777
9.02428
79.969
152.856
15.096
50.643
10.6613
37.504
29.1304
81.0999
14.8364
28.7596
122.116
44.4104
12.5932
13.2547
64.3911
11.0859
32.2406
11.2973
19.7395
40.5497
0
11.4996
11.661
12.5596
93.6712
71.4932
15.9985
23.837
12.4613
29.9367
35.7745
61.6641
26.1425
21.2122
51.6642
42.9024
12.9346
0.379279
5.41874
12.4574
18.3051
6.74104
12.0523
36.7017
0
11.3638
13.4398
12.808
73.1267
69.1669
29.9084
22.5174
14.1317
21.864
10.33
40.7805
15.8667
21.2861
13.9887
19.4164
9.82949
1.76738
15.9268
12.6715
8.44016
10.1506
15.131
26.8907
25.3619
6.7918
8.35803
15.7459
79.8976
124.366
12.6859
17.7132
9.58547
23.5215
18.9352
20.8862
13.2517
49.1518
35.9147
7.13102
36.2775
6.80215
10.9009
0
34.9132
9.63607
17.917
26.6376
25.76
2.41638
34.3403
15.2123
88.5872
102.826
40.9966
21.928
11.2445
9.79101
19.5025
41.7841
6.50309
34.669
42.719
29.9953
21.2393
2.04253
32.9433
25.1332
27.1453
14.5224
49.7064
26.3339
0.674788
0
15.1272
9.1572
85.4469
100.768
31.1518
17.865
11.8135
26.3357
1.67131
35.5792
11.8766
38.3582
11.8283
38.8437
26.4579
6.55026
18.9096
0
32.9996
9.46771
50.1005
27.5502
0
13.7599
19.2203
8.83068
96.6116
88.6364
14.8606
8.68987
12.9784
19.7456
15.9064
40.1922
-4.16846e-15
26.4041
18.3498
29.6348
32.0647
15.7046
20.4938
12.8755
69.2105
20.442
40.3124
4.71363
0
6.93374
9.47494
7.32709
99.7714
94.6069
24.0024
16.1475
18.6446
46.0036
34.7018
62.2815
34.7068
7.17157
-1.10473e-15
23.4493
19.4907
24.6176
10.5249
0
17.1658
12.0218
28.1479
23.5404
38.7343
0
4.69845
9.99056
95.6626
115.583
17.1603
14.0212
16.7166
36.3121
101.864
62.5544
35.6328
17.8611
18.2332
17.9707
11.0432
2.4306
4.22571
10.4039
4.19845
8.68816
36.9402
25.412
19.6319
0
2.26688
2.99789
110.075
84.1727
4.46547
16.425
13.3985
30.8295
72.4256
24.0737
9.10625
3.90723
0
23.3403
6.536
0
11.9177
13.2492
3.39034
34.4397
36.2495
17.4596
16.1146
0
13.6197
3.65556
124.713
90.5814
10.8762
20.8118
12.5985
43.7831
61.5418
45.4714
22.3949
70.6199
0
29.2423
24.2825
0
18.2451
17.6308
7.61648
40.924
38.3257
5.31922
0
0
20.8063
12.3949
146.314
38.758
5.29713
13.2885
10.2371
26.0742
34.6931
44.9585
11.1518
62.081
0
13.5639
11.7574
0
21.3818
47.5308
5.75633
11.256
38.3266
11.7274
8.24954
4.60602
13.438
6.62872
120.538
104.702
9.90218
25.9776
10.9027
25.0456
86.5047
52.7206
18.9317
102.431
0
0
18.1004
0
10.3353
30.6406
1.11849
14.3704
46.6165
0
-1.14468e-14
6.97079
85.0931
6.09667
141.076
107.381
8.11561
14.584
14.1281
18.2489
111.272
41.2023
27.4979
48.3229
0
-1.47205e-14
0.88314
32.5129
12.3878
15.8251
4.19118
8.13682
52.6815
23.6395
0
11.3813
15.7291
16.0047
156.672
73.1654
8.6857
14.1753
15.6565
43.0296
84.5958
61.5305
12.3024
33.4706
0
0
21.9546
24.4448
9.71443
6.7312
1.63905
12.6104
52.292
13.5261
21.2306
7.99861
6.97343
6.10344
165.773
41.9793
10.8075
17.4515
11.087
22.49
68.5853
57.6448
11.5772
28.8626
0
17.3124
43.9919
4.40857
5.12051
0
3.0489
17.7281
44.8849
9.7107
4.19428
7.26997
4.37216
12.943
186.603
89.0689
10.4102
16.956
17.2411
53.9385
95.7485
50.2074
21.5649
44.4319
0
15.7556
22.6352
0.499141
1.72787
5.52898
1.9701
20.138
38.7486
19.526
0
100.495
3.35621
22.329
220.625
62.5598
8.80766
19.9777
24.788
50.529
146.184
40.4262
17.2065
69.0154
20.3533
22.8804
14.8594
4.80057
20.831
0
5.33567
14.7322
35.1449
7.85209
0
21.1807
2.33726
27.7363
281.466
49.9864
5.48118
16.1287
19.3234
53.1867
109.023
43.3772
24.2402
18.9118
20.4688
12.2242
17.4936
12.0193
43.4412
0
3.29105
12.709
38.9052
23.7842
17.8945
7.32363
2.83769
34.2986
315.025
35.9012
0
19.6116
27.1163
92.3366
151.952
11.2087
31.1929
52.0674
1.43111
0
20.982
7.72364
46.6518
0
9.81349
21.2281
22.2959
10.1329
0
26.4874
6.49405
23.7934
352.057
76.3266
0
24.1201
56.1633
61.192
155.555
26.2928
11.2802
37.6092
0
18.3489
6.4923
26.8743
10.2789
0
3.97521
63.726
13.4173
3.09019
0
96.0082
4.48955
80.6567
377.415
121.124
10.7754
29.0649
68.3726
114.153
109.153
43.7057
25.1746
92.7256
0
0
11.5532
24.0993
10.3077
0
4.2884
33.8255
15.3683
21.4961
20.883
37.314
5.99624
32.4571
357.391
175.377
5.48031
33.0473
74.9392
138.599
244.32
83.635
10.5061
75.1917
8.22035
35.249
5.58267
9.14165
6.89049
0.89097
8.85029
52.9185
11.0875
7.28287
20.8563
46.8815
9.83609
54.034
314.54
263.295
14.5425
24.3588
59.2012
253.959
461.856
129.698
8.91449
104.883
0
7.97292
-7.04296e-15
0.224955
20.4782
6.99009
4.70511
54.0956
13.3451
4.26143
20.8514
5.09801
10.8953
45.4205
280.019
386.852
8.18658
22.9447
63.2151
333.749
556.432
112.195
67.344
110.095
0
1.90443
6.11921
5.38408
6.39353
6.96627
18.9666
17.182
11.9361
15.5858
0
14.9603
6.24539
34.6183
275.488
530.455
5.51178
17.3242
71.9717
419.586
799.033
65.5877
74.075
144.675
0
27.9362
12.3296
0
5.39894
0
19.2557
5.68627
13.8672
18.6738
21.2372
6.53223
9.04986
22.9986
303.361
942.435
5.52584
27.211
107.356
527.026
905.346
38.224
103.336
391.239
21.6607
25.1769
13.6169
1.74245
15.946
0
48.846
6.63093
20.2961
69.0882
0
0
6.33541
7.51874
310.575
1704.48
0
16.3052
152.366
615.176
659.185
62.607
107.385
604.746
21.576
24.4415
0
0
0
2.44633
20.4901
16.2861
14.2092
37.7301
21.8202
0
8.56599
7.43269
348.383
2573.4
0
20.8971
116.802
676.432
652.192
51.5212
68.5801
1136.13
2.99957
0.487583
12.1715
13.5491
5.43493
0
13.1604
8.15235
16.7346
182.485
0
0
10.9637
5.11926
403.355
5187.18
0
12.7134
104.149
848.983
1521.17
54.7716
87.104
1110.39
0
0
7.97156
8.13058
5.16245
0.23529
4.36708
4.42296
9.14023
81.8702
3.65959
0
8.75433
4.58781
415.237
2357.6
5.78262
9.59208
83.9096
2594.98
3189.25
14.3138
57.3447
1580.92
0
27.8627
6.26359
0
0
2.88184
23.3977
22.4094
6.75991
9.13053
0
0
21.1211
11.1203
403.61
2735.69
5.40895
14.8608
69.1428
3537.23
2406.55
0
26.3865
1174.27
0
0
25.4201
0
5.49858
0
17.8891
38.6886
10.0875
19.3164
0
0
28.1089
22.583
449.308
7109.02
5.55672
12.0434
80.2615
3275.63
1611.23
5.58496
41.284
619.244
0.749014
18.5743
4.8683
0
3.50301
21.2432
12.4644
40.7017
5.19008
7.67566
2.97705
0
7.82334
23.2965
446.104
3620.96
0
17.887
109.679
2607.19
1550.97
1.11858
24.5088
544.086
0
0
0
0
0
7.15076
4.88647
82.55
7.36676
7.60669
0
0
9.84721
30.4789
475.312
3150.66
0
9.06376
115.988
3063.75
1124.2
16.3648
15.5772
220.015
21.3192
3.21559
0
0
0.187564
14.0578
2.74444
17.8581
8.45768
12.4603
0
0
15.4127
13.4186
493.403
1530.96
0
3.65144
90.1309
2548.03
1268.27
0.874296
9.10862
142.81
0
0
6.13161
0
4.74648
20.7425
0.688188
6.58472
17.5171
2.29789
0
0
3.1039
14.6927
432.125
589.197
1.67409
0
78.7135
6029.57
1139.61
5.64027
7.08163
91.5494
0
0
9.433
16.2855
10.966
0
2.69204
2.34233
7.50557
5.07214
0
0
1.4996
12.8605
361.356
227.583
0
1.10573
62.7635
2825.79
1537.87
2.98432
3.74649
58.528
0
0
16.0229
0
5.45872
4.49835
3.3729
1.74387
5.15558
5.08895
21.3857
0
3.50532
4.62598
300.894
163.919
0
1.16447
42.2187
6206.63
2102.73
-1.30682e-16
5.7323
45.1897
0
0
0
6.66424
5.46174
15.8248
7.28013
0.912823
4.37042
0
0
0
1.37805
2.66305
297.78
78.4084
0
1.16417
39.1891
6554.41
2544.99
5.64487
0.0260325
21.9882
0
0
5.80709
0
3.57357
30.1549
1.32042
2.07237
1.62573
5.3432
0
0
2.8211
1.71553
327.361
7.91548
5.49335
1.18859
30.5946
6984.82
1849.8
5.45421
3.50242
17.9768
0
0
0
0
3.88584
5.72319
2.90872
0.772846
1.22169
0
0
5.70434
0
3.82053
394.118
3.75429
0
1.21377
24.8643
6753.44
1025.69
0
2.40397
13.1128
20.3378
0.323598
0
-1.96338e-16
3.46679
6.46464
4.49073
3.45332
4.26911
10.9321
0
0
0.676447
15.6894
371.819
5.26526
5.5508
1.82615
15.4309
4037.96
1583.62
5.43777
5.78211
13.6694
0
8.6649
11.4175
0
10.7268
6.46278
6.09356
1.15252
3.10105
0
0
0
0.658063
11.8018
389.8
3.03561
5.35608
0.594169
6.89909
1819.21
1644.14
5.37955
3.6794
10.3816
0
0
0
24.8094
-1.33851e-16
0
6.47693
2.90443
4.21817
5.95757
0
-3.67872e-15
1.94099
4.10456
440.212
6.39809
12.6725
1.8342
0.85612
312.857
1954.13
0
0
15.3435
15.731
0
4.05158
10.992
0
6.11232
5.82912
2.93564
0
0
0
0
2.57597
1.70267
417.668
0.814026
8.96974
1.29099
3.5833
45.0874
8552.59
0
3.03818
39.9504
0
0
4.78003
7.87307
0
2.13186
5.69935
4.25896
0.690284
0
0
0
1.45304
4.84292
257.366
420.578
0
1.689
1.06773
3.56572
8728.22
0
3.87943
16.3249
0
13.9719
4.68703
15.3274
0
0
9.31248
5.16991
5.53485
9.87499
0
12.2296
4.25629
2.00551
26.4381
2034
0
1.45982
0.867788
17.3888
1243.03
0
10.2782
33.4456
0
0
2.55391
5.35961
11.0415
0
9.09306
7.28391
6.73757
0
0
27.7181
8.3608
2.15874
5.03982
375.066
8245.78
5.97208
1.16822
3.26384
5.07237
337.227
0
3.94718
45.518
12.1131
0
3.42708
0
-1.98237e-16
5.21777
6.59316
7.78169
9.96609
9.68508
-1.00227e-15
19.1621
5.90032
10.6443
2.64984
4.07185
8.17351
18.6491
0
0.615743
4.03234
3.48767
343.363
0
10.3447
64.9659
0
9.54993
2.63295
0
4.81272
10.0681
10.1705
8.1586
10.4303
33.9644
338.424
0
11.9763
9.24989
8.72753
14.7299
-6.47217e-16
783.437
0.614076
3.16315
3.29247
3.96529
526.533
0
7.57506
2.71507
171.569
0
10.2667
0.693998
14.036
2.69751
0
5.65228
9.7587
15.3737
44.7668
0
6.55486
0
10.2834
9.19286
10.0731
26.9987
230.307
18.4035
4.46129
10.2153
0
573.762
17.1002
24.3464
175.543
10.8011
0.319022
10.1872
4.1214
3.61852
4.50528
8.09197
9.31979
21.6943
80.1672
3.17056
5.55259
10.8641
13.815
18.1447
613.597
0
4.75102
6.47853
11.3035
7.99766
662.327
11.8359
30.5315
153.322
0
5.75609
7.18038
11.5608
3.43435
16.5062
10.3066
11.2687
25.6879
34.5251
0
0
12.8044
14.9299
39.217
906.062
17.9654
17.8026
16.0541
6.69288
623.072
22.8185
27.762
216.152
11.0635
11.8559
9.25686
20.5419
13.5003
23.5804
10.2355
16.2134
27.1923
94.938
23.4989
22.8178
12.493
19.2748
79.3594
593.012
8.60138
17.0221
17.7652
0
448.994
44.0041
52.2129
323.848
9.71805
14.2942
24.3894
14.0753
21.7845
11.9751
8.41488
21.3833
40.4201
117.959
40.493
26.9348
12.5674
42.0196
112.206
301.471
32.5961
17.1965
29.3419
10.3625
150.435
84.7092
85.5984
358.035
21.9488
47.5203
26.7455
9.35474
40.1091
67.0165
5.04486
29.4672
71.9807
188.702
42.7215
16.5702
11.6105
55.2258
184.845
444.56
98.793
11.4285
53.3193
48.656
80.9703
166.438
136.051
665.036
19.2996
17.4258
61.2747
4.04238
70.8981
110.185
27.7799
25.5643
52.2609
409.468
192.961
28.6239
25.875
64.6946
145.709
286.705
255.075
182.619
73.2904
250.758
1003.26
1610.37
212.702
750.773
184.689
425.777
2102.81
358.813
311.072
397.716
50.394
30.8784
15.0823
424.377
1324.39
43.9244
46.7167
24.9487
16.0336
40.016
1384.17
53.2871
62.9506
141.199
5.51807
630.457
283.293
591.769
289.72
0
10.5422
9.67341
76.579
-4.77712e-17
15.4714
37.6948
2.3838
8.07926
0
15.1416
76.1513
7.74154
-6.30041e-16
-2.50137e-16
0
55.5111
8.41991
4.68732
0
32.0896
106.993
4.14451
0
0
0
0
0
0
0
0
0
0
0
0
2.25966
0
0
0
0
-5.89823e-16
0
0
0
0
0
0
10538.3
7539.8
9064.54
9192.37
8040.75
10042.4
9354.92
9334.48
10341.1
10239.1
9540.76
9757.2
9920.74
9556.95
10104.6
10903.8
9377.75
9807.4
10607.5
9545.11
10379.7
10510.9
12128.3
10880.9
11666.5
12351
9431.48
7497.63
8962.16
10391.2
10647
9871
8751.58
9556.66
9708.47
8371.53
9244.08
10575.7
10696.6
10698.9
10775.5
9497.6
10051.1
9862.11
9482.36
10986
10795.3
10962.4
7951.01
9561.1
8915.16
9222.24
8221.38
9831.15
8891.94
8813.04
9697.13
9529.16
10600.6
11008.8
10720.4
11263
10252.9
8360.85
9380.93
8043.45
9951.77
9835.74
11238.2
10574.9
10119
11131.6
10133.9
11914
10527.7
9998.09
9528.81
9973.5
10408.1
9881.9
9979.49
9986.53
10920.5
9289.52
10695.7
11327.3
11399.7
11461.3
9561.86
8208.52
9446.85
9303.59
11130.2
10338.7
9234.68
10376.2
881.734
13.1736
350.452
616.351
581.47
77.599
89.2691
107.454
592.145
615.577
33.9658
98.869
57.3423
563.275
41.3989
871.145
15.7897
648.003
812.827
947.759
52.5271
69.2123
53.4982
160.755
1451.92
1524.74
1858.84
119.507
63.6548
643.097
194.17
1548.26
59.935
701.357
369.57
449.79
80.6279
32.3284
85.118
1272.78
1535.65
105.527
109.123
21.6928
514.512
549.736
21.1794
81.6091
16.1712
1373.11
1408
119.809
34.2586
186.218
617.681
30.1068
1239.78
1147.57
863.502
102.1
217.618
85.1653
97.8265
1686.19
1395.42
1634.06
718.87
223.004
212.173
70.4739
103.914
735.477
124.378
734.471
523.264
76.2953
128.21
86.9819
954.404
606.822
158.534
299.855
95.9916
170.444
54.2997
19.4097
36.4677
25.0578
27.6752
4.96636
33.0204
38.0992
26.9823
16.1672
-2.83338e-14
51.3544
30.3494
14.511
-9.76786e-15
11.6518
34.3603
46.5344
34.2164
34.9559
22.7153
39.4971
40.7839
11.7713
40.8941
44.0651
46.609
23.0229
18.0857
25.975
37.6957
31.148
-7.70208e-15
38.0073
4.77803
37.1583
35.9122
36.5364
29.675
81.1826
35.9753
49.1632
66.6397
41.2131
61.377
28.5209
0
24.7074
29.2758
43.4832
115.352
111.155
99.0162
63.2238
0
3.72336
31.8885
47.1976
38.8324
33.037
53.691
45.4479
62.6862
59.2086
30.2998
59.5315
0.899979
43.2237
14.2865
27.2302
53.9205
74.5152
72.4163
55.6548
59.4284
22.6456
46.956
56.4653
36.5665
53.5867
17.0693
11.3208
0
11.4221
28.9311
46.3381
32.8609
14.1838
28.591
40.1666
7.24546
22.857
41.2695
7.23395
1.22584
40.5573
23.3229
9.67942
12.2906
38.0107
43.3761
60.6547
31.9226
20.5098
29.4829
55.352
27.9412
12.4105
21.2465
25.068
12.3296
38.1756
19.3483
32.3966
10.7329
21.82
37.0433
20.2311
12.8269
-6.50669e-15
12.5232
1.24504
23.5937
74.7377
74.1881
64.1146
92.2154
12.1482
10.9989
21.7755
17.2005
16.2912
44.0639
44.9251
50.8049
135.328
112.232
73.7894
8.94468
19.5974
34.1674
48.7649
54.3095
31.1834
35.1772
60.0688
65.3041
56.4866
32.7533
34.8434
5.84482
66.7614
29.4776
37.9237
65.0714
25.9737
105.104
46.5032
57.721
33.1853
59.5472
49.8805
28.5276
0
33.8357
14.1023
47.0796
0
38.7808
34.2257
40.2896
11.4839
39.7119
0
7.93506
24.3606
11.0014
14.4428
8.28431
25.4596
0
26.4221
0
18.8273
11.9534
47.2233
24.3858
18.9076
24.8958
25.7912
16.6797
6.83235
26.5999
20.6262
15.3489
12.9877
20.7859
32.3169
36.0835
28.0862
23.5981
22.2956
19.5699
11.9623
53.2701
0.776032
12.2766
100.346
115.617
42.0305
70.1749
70.0055
22.3372
14.3833
19.1088
10.7084
7.25741
36.9465
61.7445
115.679
14.4188
32.7867
0.803926
8.28962
37.6425
28.3472
80.6666
70.8339
6.2553
45.1923
35.1875
43.3334
21.2789
17.8079
18.3126
55.1076
55.1017
36.6726
59.7643
71.143
29.2526
43.0259
4.32028
89.2148
74.6055
59.4298
14.3913
46.937
39.1854
13.0979
25.1449
13.8916
52.35
11.2868
29.8493
28.5469
16.4789
-1.8034e-14
35.4238
21.1428
6.55802
0
0
10.9616
18.7677
20.1642
38.2758
22.7835
22.2331
19.343
14.91
4.90271
53.6586
51.6986
26.2646
0
9.70025
1.98735
38.8113
6.39049
10.3457
5.72774
28.9094
13.7554
54.7687
9.55985
0
10.7961
34.8282
40.919
10.7179
71.4813
71.6071
44.3149
66.5437
186.006
16.834
13.9338
0
27.6061
36.6698
53.5758
53.2969
127.269
323.187
51.4599
12.5066
0
13.274
7.84045
31.8519
28.6798
16.0616
18.3575
23.729
52.5587
11.3275
28.4008
6.61386
39.3723
20.5378
26.6907
38.0215
56.9154
62.2297
33.8868
34.8029
45.8596
15.3082
4.1577
5.27287
-1.72845e-14
27.9309
14.2919
40.5956
25.9202
17.3568
15.3203
0
33.0329
22.2014
40.8489
42.6957
5.61713
4.84757
8.51837
0
10.9885
7.12226
0.445585
34.724
45.5135
14.6974
43.8982
47.9073
13.4494
30.0937
16.9461
23.7786
12.6456
49.0753
12.0448
17.0374
24.902
10.1093
24.8427
26.797
56.0683
33.9183
2.25483
16.4216
21.5314
18.3423
60.9281
13.1245
105.107
41.1829
562.193
41.971
3.82847
55.4178
22.2388
8977.63
5736.52
11008.3
0.179748
14.102
4.41109
89.5457
0.765303
26.1259
6.39505
5.62964
12.7596
694.739
68.5509
65.7114
93.3345
49.012
33.2107
26.2028
9725.05
1440.12
6713.2
8.15821
119.828
3.16222
43.2653
13.8995
8.84261
25.0253
15.1608
29.1022
43.69
20.3304
45.7098
27.8469
31.397
24.451
19.1081
21.5459
35.3644
19.9515
47.0749
17.1962
26.7706
67.0495
18.3477
19.3969
45.6733
44.8311
0
29.9693
8.71237
12.7644
7.22813
12.211
0
38.1938
15.332
-6.41184e-15
8.53513
10.5549
21.3923
38.045
5.48748
15.4216
7.0255
20.8549
14.8025
22.6648
35.9785
26.2466
0.807991
59.0705
4.22492
10.4228
12.3897
49.2922
29.862
17.5327
21.5398
9.50729
18.1343
26.6619
14.6963
12.1684
0
5.33046
19.6892
0
30.4429
0
0
0
0
9.92488
11.7973
12.9227
18.3317
34.5211
19.7236
34.2134
2.98999
46.7894
55.7472
17.6686
4.8646
46.1679
17.4561
0
0
0
0
0
0
0
5.58995
11.636
19.2995
6.19598
12.2617
31.7294
40.8934
3.79509
193.206
44.1734
50.7987
9.76148
0
0
0
0
0
0
0
0
12.4024
24.1829
47.8549
46.8562
15.3665
7.32592
30.3244
39.3016
30.7609
56.2106
18.608
29.1464
19.8905
37.7351
18.2859
-8.43103e-16
38.3937
-5.65369e-15
0
0
0
53.8568
63.4831
43.5202
38.7014
17.5783
22.1245
-2.29774e-14
31.5868
16.4929
47.9682
20.5435
18.096
14.4262
47.5189
17.6953
20.372
44.9631
22.6409
41.3896
30.0823
22.7503
22.9868
10.8802
-6.40992e-15
0
16.7358
17.5287
0.488617
44.7618
28.3581
20.8489
36.804
11.9055
65.0575
43.4722
39.243
24.7106
16.3396
12.3541
6.59153
5.82502
13.9896
6.08333
19.2893
37.2328
0
43.2467
0
0
0
0
0
43.7931
0
64.0654
32.1562
20.5484
40.648
9.54542
40.8568
22.0974
24.0498
6.33853
14.6384
22.6926
0
0
0
0
0
0
0
5.41857
1.40128
0
2.11654
10.4893
39.4313
76.0672
9.49538
116.081
50.3543
64.4332
8.8152
0
0
0
0
0
0
0
13.0926
26.0485
15.8129
19.9503
29.8922
5.0809
16.4793
34.7117
35.6216
43.5305
13.2594
50.3022
18.0402
45.3761
34.171
33.8983
0
41.3911
0
0
0
0
116.655
27.4149
19.3596
19.6167
45.9349
20.2304
45.2137
9.6701
18.767
6.1031
13.9565
40.7104
25.3397
58.2043
104.741
-6.41413e-16
27.121
16.8023
10.7989
26.2406
23.1287
22.1173
-6.07598e-15
54.8767
15.2911
14.0458
0.437797
45.0309
25.8302
34.0594
59.4235
38.5668
40.0478
67.9338
81.5505
24.3097
29.0012
21.7299
6.5143
22.1172
27.2027
10.2189
12.2349
37.6602
18.0638
17.1907
31.6954
10.8551
19.9814
36.8071
20.6414
18.089
6.36764
29.8955
25.4036
31.3358
14.0654
18.5317
5.14543
0
0
0
0
0
0
0
26.9402
17.6474
0
16.6325
27.643
62.8651
52.3484
14.7117
176.736
60.8658
90.3689
7.6443
0
0
0
0
0
0
0
0
51.5904
6.04983
25.9679
16.2236
15.7431
23.2186
32.7019
33.114
44.9783
16.6434
20.6246
7.55809
38.4972
22.7899
22.0383
77.9148
48.8287
30.9289
23.7999
27.9955
68.6622
18.5281
52.5736
34.8841
16.9129
16.09
31.6344
27.5616
39.1898
64.1031
50.2618
28.4672
32.6008
15.3154
28.9472
35.0454
31.4081
8.63721
7.31339
0
0
6.86734
0.430936
51.6056
10.8172
40.6855
58.5604
43.756
31.2219
52.505
90.2722
27.5925
-5.29481e-15
14.5529
7.08796
39.2636
24.0081
0.376959
6.06273
2.68085
31.8728
20.8647
37.4262
30.4546
24.5878
21.7898
39.2703
24.463
14.6918
22.9756
16.9227
25.1986
15.9269
6.63073
35.1856
1.09807
17.8402
30.5353
37.7095
102.459
78.8235
49.5273
67.7055
6.18599
32.9916
5.24491
14.9056
30.9707
24.2708
0
5.74561
11.8826
63.3779
25.9277
29.062
11.2649
36.2
53.4862
8.94581
46.8899
40.3025
40.9462
59.6248
8.2132
62.7576
21.4997
18.3093
12.2774
31.5682
11.6646
0
0
18.1626
61.9184
40.182
20.3428
51.8255
14.4366
60.928
20.4742
42.9695
23.7105
28.7546
0
5.3613
21.6826
19.2559
0
18.4497
39.4214
112.091
12.2715
27.5125
43.7124
72.8085
8.60406
40.8351
14.5359
3.76586
14.4847
5.14999
19.6302
29.3898
22.6238
39.0767
11.1498
12.6002
-1.69549e-14
8.91478
10.5071
0
10.2776
23.6227
14.1541
24.6471
20.8273
117.93
16.8549
18.2301
31.7067
17.9482
22.9642
79.7616
140.669
161.224
29.1
61.8613
12.7852
12.6941
7.73613
8.40931
27.0804
24.8531
25.5712
15.6446
38.0754
28.7206
13.0867
26.9827
23.4219
59.3865
10.028
39.6895
52.4181
63.3057
21.5828
18.1591
-3.36916e-15
51.97
37.8359
30.0375
7.39579
19.6802
17.7692
14.9204
14.6053
26.3239
13.7939
66.2475
23.8152
34.8483
11.186
28.8384
31.4418
5.38652
17.7034
0.247783
85.0401
-1.04718e-14
21.2669
0
53.3816
0.848657
10.9657
92.0403
42.0777
36.8679
86.485
107.17
24.4169
37.938
-8.72158e-15
12.6733
17.7196
11.6092
8.0436
5.11461
11.2995
49.4274
28.4876
49.6802
40.1549
11.3183
6.44966
-1.75133e-14
15.7922
39.1715
30.3858
12.5079
38.2603
14.1075
4.87379
44.3786
0
11.3452
31.0296
35.3454
128.648
88.2679
8.06386
119.508
25.8767
24.9539
33.8069
36.4267
53.9886
23.6696
8.37192
17.4908
13.7167
50.9716
22.7562
32.7337
20.0408
32.5764
29.6371
56.9982
53.7305
128.69
22.0132
34.5382
53.8095
102.476
47.469
19.1621
14.8377
1.76815
7.61104
7.46095
0
12.9951
41.1297
16.1441
60.1928
6.26766
16.1453
10.5448
11.2279
13.949
9.26185
14.1263
5.17093
15.6168
6.90722
9.16062
14.2469
10.0623
15.7752
67.566
30.3586
27.2832
72.3904
68.0053
15.988
34.6419
19.8538
6.05335
10.7588
22.1822
10.136
0
15.8994
11.4564
0.365844
6.33575
59.2474
26.5885
31.1875
18.5476
17.7152
39.5067
15.1646
22.2381
17.9375
-8.6371e-15
3.56365
39.1782
0
19.8427
15.3564
66.1784
110.306
80.7815
0.204041
106.965
8.07463
16.5372
16.8726
8.52722
35.5557
23.8681
22.402
9.0109
49.0803
49.2394
28.8963
52.6573
32.9158
59.6844
11.2363
89.3041
64.4188
128.42
43.2592
67.0694
36.1894
95.6301
61.2024
85.3527
0
27.348
5.69208
0
4.35027
13.0136
24.3455
6.32774
0.971151
39.8994
13.3117
19.3513
16.6344
22.3092
11.7882
7.10803
29.86
18.0921
11.6717
-1.08901e-14
58.124
26.6727
65.2234
60.0864
27.0986
22.9785
65.5584
44.1973
41.7306
37.6532
21.6751
2.88412
10.7039
31.2349
2.02513
10.5778
15.7108
14.6315
34.2184
8.08491
37.4382
20.8611
18.3526
25.2866
37.1849
4.06015
1.25276
56.0264
16.5658
31.4758
3.57425
9.30983
2.65643
11.4527
16.4004
63.0369
105.083
151.022
95.9318
110.492
21.6645
12.2699
21.9172
24.6794
44.4348
4.50524
5.74089
36.8643
49.9558
30.9559
19.4505
79.2286
20.836
36.6053
62.6563
62.6872
18.843
33.206
93.821
26.6972
53.6375
73.5759
70.834
75.2971
0
0
0
0
0
30.1484
30.23
24.1392
31.5768
37.3034
31.9971
90.2747
26.6303
10.6554
5.40922
15.9956
52.416
18.2638
-6.17806e-15
84.195
77.1962
48.5744
36.4724
46.2456
45.695
57.0475
50.3404
35.4168
35.8719
27.0078
10.0343
6.3197
34.9981
43.2249
16.8261
0.220901
30.7172
36.221
34.0945
64.4519
69.5977
11.7365
30.9261
18.0593
31.194
27.7854
45.0189
27.2076
14.5696
14.9992
4.66591
6.6711
0
5.4944
13.5045
42.1529
87.3564
106.768
62.5709
156.888
-7.08651e-15
12.1135
11.8472
23.1005
71.3924
17.293
51.5427
28.8161
48.3074
25.6683
53.146
66.9788
34.1757
32.146
39.2479
70.6807
30.4714
69.9243
94.4775
80.556
64.9844
71.7067
111.756
123.909
2.80912
0
-6.95745e-16
15.282
21.8751
54.2109
34.4714
31.6055
85.781
35.7851
25.1626
75.9169
30.5463
70.7243
1.20065
18.4693
25.7654
5.92629
21.1441
11.414
72.1797
23.8293
21.5654
24.3212
20.0126
18.1761
21.2446
33.5878
27.6757
27.2483
23.1724
0
22.694
11.4796
-5.84788e-15
6.28638
52.8585
83.3261
35.3141
12.3222
-5.53059e-15
30.1348
43.6553
66.1624
22.4772
17.1043
0.418166
33.1079
17.8307
56.2552
20.8558
50.4221
20.8819
16.3304
48.1555
50.8647
158.701
79.456
46.0112
123.576
25.9224
3.87997
21.2702
12.6597
36.1284
21.3481
11.5342
21.8859
12.8933
27.8678
55.3791
34.4017
34.4661
41.8465
24.6778
50.1043
52.5455
51.4885
54.2188
65.5473
84.5344
76.4097
106.848
95.3709
0
0.444318
22.8076
36.9686
-3.78968e-16
4.38312
53.2406
46.4784
66.6175
76.6252
31.5475
35.1446
46.117
27.1114
21.7197
25.1763
14.5668
1.85837
6.99675
62.8958
10.1892
30.2383
23.2348
18.2097
12.0863
2.59389
35.924
17.3949
34.3394
50.4303
10.4613
0
69.4411
22.0955
10.1363
0
29.7822
59.4613
65.5963
79.9786
30.2372
33.0724
21.4099
33.2828
16.7444
48.9753
35.4363
43.7221
53.5297
33.6196
10.6173
34.7247
11.906
11.8143
40.15
33.4476
150.249
85.5435
109.084
90.5303
22.4539
33.7511
25.8231
39.3262
34.072
17.8693
18.7353
18.7205
37.7777
21.8435
49.0161
49.296
38.8471
35.0077
30.547
63.4853
52.0355
33.4299
-2.47082e-16
45.7546
20.242
26.3412
55.1037
69.4111
7.29833
22.7814
17.7724
7.65392
-6.8653e-16
23.5339
29.6326
11.1381
60.9687
6.18293
7.20242
-2.06513e-14
18.2601
10.2411
15.4
17.3072
0
0
4.58437
40.4769
30.9773
22.7334
-9.29962e-15
26.112
21.7339
11.0709
6.84555
18.2919
7.86184
39.4087
52.5679
0
28.4484
17.5562
22.9038
6.63554
24.7973
25.5516
69.8038
30.5186
17.4085
13.9817
42.516
0.552891
18.3539
29.0702
73.2851
46.7319
30.9194
29.4911
5.62666
59.1533
0
5.62968
59.9202
64.4755
79.4199
109.808
51.7026
85.3538
23.9289
12.2433
18.6267
32.5806
11.0377
5.332
8.13674
46.5089
37.7305
12.0544
39.6454
31.4734
23.5944
34.1213
33.2198
31.5132
17.2717
52.3732
44.9457
22.2205
59.116
33.3337
44.5398
30.8603
7.55414
66.266
16.4361
0
-2.44037e-14
24.7497
42.3796
15.5576
11.6619
17.979
10.4306
33.4374
15.9947
23.9462
22.7879
40.3389
6.65093
16.8554
47.8627
31.0039
22.3283
27.1277
20.2913
44.6275
10.8272
26.0134
35.9151
23.4982
15.1633
24.0677
101.841
6.98735
38.2215
22.1088
15.9719
12.8344
39.9023
78.7129
31.3661
37.6124
18.0272
7.20039
14.7272
25.6624
8.68901
26.5384
14.2048
49.9433
19.5489
0
22.6536
24.6202
56.5123
35.4755
31.9822
31.0294
95.7338
102.579
13.5599
93.8255
12.1995
31.4872
7.12478
62.5362
15.7793
22.1519
9.13773
52.9591
30.3434
10.5328
23.7416
17.1018
10.1948
5.26121
42.1807
43.9741
21.4798
57.088
25.8386
15.0687
16.2597
74.291
26.783
3.29204
15.4383
0
0
8.03525
5.19795
25.0865
12.756
1.39719
11.0422
8.54702
17.2302
2.60812
22.9532
12.6065
9.71076
42.2142
25.4839
12.3669
18.5907
42.5405
28.1187
0
19.2144
6.07713
53.2546
24.8318
11.8439
32.3656
37.018
19.8916
35.3294
11.393
33.2432
-2.73451e-15
12.0578
17.3935
46.44
38.8329
11.0976
18.78
-1.62938e-14
5.53723
15.6489
8.68447
10.4816
38.7315
14.9075
0.625603
18.4745
28.3502
44.2714
2.91744
20.4106
27.3722
12.4469
43.9284
51.4898
112.04
51.9746
61.3953
14.7453
26.8769
8.14976
59.1178
36.2292
31.4482
-1.71749e-15
39.6246
24.7417
10.9371
43.9854
28.5086
36.1152
11.2512
25.5849
25.613
27.48
25.8199
19.2581
20.4785
12.4607
44.5235
13.1102
15.5517
33.7004
16.5534
9.81598
14.8625
0
3.89962
36.9622
23.6983
8.24211
33.5439
26.089
0
52.2413
0.673569
11.5455
13.683
19.54
9.94684
13.4535
31.0017
30.1656
-1.78201e-14
21.417
18.3176
12.4926
28.8574
23.1491
16.7752
10.6121
12.3357
37.5193
10.7698
28.1894
0
27.2843
13.1012
14.1068
19.3267
34.1691
19.8419
12.1071
5.49697
19.5148
18.729
-4.79723e-15
28.022
15.3813
33.9985
47.7935
15.0483
0.134462
6.05551
0
16.3815
12.5661
85.2414
57.4674
119.799
66.5855
70.8706
12.1771
36.8793
6.19075
26.4323
22.4314
19.9737
7.61671
11.7317
26.2139
32.7209
26.8766
31.6027
26.4202
13.2272
33.3764
12.3647
59.093
59.214
94.9097
38.2458
15.63
54.7049
31.889
0
-2.24126e-15
0
0
37.1095
0
2.35411
29.5008
13.2745
0
9.70702
10.5924
0
24.5658
21.5935
18.6691
2.30466
19.0597
6.96555
23.5095
0.348012
15.1453
-9.56417e-15
10.8
24.4133
10.9933
26.0927
7.41681
13.2905
9.51884
7.50888
5.73356
12.7888
12.6971
21.1768
7.47829
13.3187
14.0083
22.65
33.2164
16.7237
0
5.34303
17.8772
0
0
12.2225
36.9926
15.2993
29.1776
28.8436
10.8806
6.17942
19.3711
10.914
7.98757
10.4504
109.443
59.1194
23.6805
103.812
-2.11698e-14
10.7936
10.2272
35.6173
22.9777
3.60469
7.15628
19.5557
23.8129
16.3502
33.7681
7.41773
11.288
23.3436
38.1472
63.2619
46.6198
46.5079
46.0058
4.16796
26.7704
48.1417
12.4953
15.1133
26.1603
21.9095
25.922
30.7224
-6.71827e-15
61.069
0
0
34.6759
18.177
21.29
0
6.14713
15.8295
21.4762
6.94622
0
7.88799
4.57283
34.0205
27.1609
22.0548
41.0576
27.0458
25.9983
11.3607
-1.37759e-14
13.6114
13.3993
6.00238
14.341
42.0652
14.103
16.5509
31.5445
12.7242
9.31953
19.1138
29.8231
5.10051
0
10.5939
7.46633
0
5.38118
19.4749
31.3874
0.379738
9.37288
43.7176
6.26338
24.9337
-5.18003e-15
5.4743
17.31
27.1932
103.134
106.872
81.7917
93.0879
0
0
5.55111
21.7364
28.5683
-7.14457e-15
13.0102
10.5538
23.3049
28.2252
61.147
24.637
45.9405
57.2019
59.0259
50.0045