/*--------------------------------*- C++ -*----------------------------------*\
| =========                 |                                                 |
| \\      /  F ield         | OpenFOAM: The Open Source CFD Toolbox           |
|  \\    /   O peration     | Version:  5.x                                   |
|   \\  /    A nd           | Web:      www.OpenFOAM.org                      |
|    \\/     M anipulation  |                                                 |
\*---------------------------------------------------------------------------*/
FoamFile
{
    version     2.0;
    format      ascii;
    class       volScalarField;
    location    "5";
    object      p;
}
// * * * * * * * * * * * * * * * * * * * * * * * * * * * * * * * * * * * * * //

dimensions      [0 2 -2 0 0 0 0];

internalField   nonuniform List<scalar> 
10571
(
221.706
242.488
221.008
218.374
210.622
246.169
219.651
208.798
211.313
226.187
241.758
228.135
212.818
199.073
199.736
222.638
233.305
192.455
199.92
200.042
207.49
193.141
189.514
193.266
209.821
193.984
208.848
200.382
208.211
202.023
197.187
195.529
187.549
201.083
191.81
167.177
185.174
188.46
175.325
175.737
169.428
186.442
181.698
172.815
171.709
185.235
187.419
181.418
183.647
182.018
184.614
188.741
197.202
161.395
174.053
181.301
92.8518
115.256
149.866
159.343
153.337
171.72
145.388
106.44
103.462
116.492
146.571
148.131
131.993
135.603
173.306
160.47
77.6463
125.581
132.217
108.964
54.8485
85.7284
120.615
94.2862
46.2792
49.8703
79.5973
147.762
60.7904
61.9357
74.0094
76.3918
63.6557
42.0791
51.6741
99.1322
99.5634
41.9181
51.5252
72.6282
53.3487
51.8706
44.6345
53.4118
44.9106
41.7325
45.7814
42.6811
42.2845
44.7291
49.8676
46.199
38.9738
38.0728
42.2285
47.6186
38.7033
42.4391
40.2886
44.3978
72.19
44.0753
42.4392
42.9319
47.56
42.3574
43.4715
42.6305
42.1076
40.9282
40.9553
40.2987
42.4045
42.0342
41.2623
44.5347
40.6297
40.9445
42.65
41.1778
40.9302
41.2005
39.7498
42.87
42.2527
41.4229
41.8442
42.0612
41.8407
41.9026
40.7363
40.7549
40.9737
40.8542
41.2285
40.4887
40.9878
41.0166
41.6468
41.4067
41.2372
40.1935
39.8157
40.8115
41.7092
41.3401
41.0902
41.2818
39.898
41.5836
41.513
41.2118
41.242
41.2924
41.4781
41.6553
41.5203
40.7875
40.8274
40.7568
40.8364
41.0219
40.7281
40.9938
40.9844
41.2505
41.4036
41.3098
40.2903
40.0269
40.8045
41.1305
41.2889
41.202
41.3001
40.0659
40.8968
41.1014
41.2162
41.2863
41.3117
41.1044
41.3147
41.312
40.9328
40.8716
40.832
40.9283
41.054
40.5726
40.9703
40.9885
41.2244
41.5124
41.4625
40.5922
40.3704
41.0228
41.1527
41.211
41.3313
41.3533
40.4459
41.0453
41.0667
41.2033
41.2782
41.0561
41.184
41.2352
41.1448
40.9655
40.9327
41.0933
41.1897
40.8065
41.0676
41.104
41.2433
41.346
40.9235
40.7608
41.1818
41.2281
41.1579
41.2604
40.8645
41.2658
41.0862
41.1635
41.1694
41.1705
41.1464
41.1786
41.2757
40.9529
41.0384
41.1987
41.2707
40.8131
41.1153
41.1837
41.227
41.2867
41.1271
40.9116
41.2479
41.256
41.1564
41.2006
41.167
41.3503
41.0715
41.1666
41.2029
41.2255
41.0982
41.1656
41.3365
41.0777
41.147
41.2581
41.2874
40.9632
41.1679
41.2372
41.2328
41.2847
41.2337
41.1159
41.2624
41.2595
41.2045
41.2346
41.3385
41.396
41.0756
41.2009
41.212
41.2729
41.1082
41.2173
41.3795
41.2524
41.2718
41.306
41.2885
41.1501
41.2572
41.2996
41.2893
41.2628
41.3121
41.233
41.2963
41.2831
41.2592
41.2493
41.3938
41.4107
41.1386
41.2513
41.2499
41.306
41.2275
41.326
41.4209
41.3401
41.3536
41.3663
41.3327
41.2635
41.3315
41.3642
41.3709
41.3158
41.3765
41.2949
41.3542
41.3237
41.3102
41.2697
41.4131
41.3959
41.2374
41.3143
41.3217
41.3561
41.4049
41.4237
41.4465
41.4052
41.3965
41.407
41.4126
41.3251
41.3645
41.4133
41.4246
41.3796
41.4354
41.3666
41.4003
41.3711
41.3669
41.298
41.4299
41.3325
41.3324
41.3954
41.4189
41.3916
41.4883
41.4949
41.4632
41.4408
41.4191
41.4294
41.4472
41.4341
41.401
41.4421
41.4413
41.4099
41.4785
41.4304
41.4211
41.3986
41.38
41.3263
41.4465
41.2963
41.3953
41.4444
41.4359
41.4492
41.5004
41.5239
41.4765
41.4457
41.4322
41.4396
41.4545
41.4786
41.4313
41.4556
41.4335
41.4053
41.4924
41.4576
41.4339
41.3781
41.3397
41.3625
41.4321
41.3653
41.426
41.4677
41.4519
41.6757
41.564
41.5225
41.4866
41.5066
41.4548
41.4445
41.4551
41.4606
41.4347
41.431
41.4117
41.4039
41.499
41.4505
41.4546
41.3396
41.3033
41.3585
41.4974
41.4392
41.4082
41.443
41.4425
41.8662
41.5813
41.4988
41.4901
41.549
41.4893
41.4431
41.4456
41.47
41.458
41.4028
41.3817
41.4088
41.5465
41.4506
41.4311
41.344
41.2868
41.3358
41.493
41.4307
41.3906
41.4013
41.3691
41.6607
41.523
41.4524
41.4818
41.5389
41.4951
41.4343
41.4265
41.4412
41.4486
41.3814
41.3614
41.3484
41.6006
41.5384
41.4335
41.364
41.2731
41.318
41.5354
41.4523
41.3991
41.3554
41.3276
41.5358
41.4831
41.4201
41.4638
41.5112
41.4786
41.4144
41.4119
41.4351
41.411
41.3642
41.3114
41.3284
41.4743
41.457
41.3705
41.3624
41.2776
41.2954
41.5607
41.451
41.4239
41.337
41.3139
41.4941
41.4659
41.4001
41.4219
41.4756
41.4357
41.3796
41.3586
41.4553
41.3855
41.349
41.2711
41.3011
41.4288
41.4037
41.3075
41.3435
41.2762
41.278
41.462
41.4692
41.4041
41.3352
41.3127
41.4742
41.4385
41.3797
41.3505
41.4072
41.3754
41.3242
41.294
41.4023
41.3627
41.3306
41.2641
41.2821
41.5206
41.3978
41.2913
41.3151
41.2682
41.266
41.4582
41.456
41.3526
41.3188
41.3032
41.4658
41.4099
41.359
41.2762
41.3369
41.3231
41.2794
41.2384
41.3311
41.3471
41.3157
41.2666
41.2887
41.407
41.3645
41.2785
41.2812
41.2597
41.2797
41.43
41.3968
41.326
41.2955
41.2759
41.4349
41.3815
41.3447
41.2655
41.2986
41.3079
41.2752
41.2491
41.2793
41.3425
41.3054
41.2746
41.3019
41.3547
41.3316
41.2543
41.2542
41.2565
41.3127
41.3927
41.3452
41.2971
41.3172
41.2653
41.3942
41.352
41.3239
41.2852
41.2982
41.3188
41.2883
41.2776
41.2804
41.3346
41.3082
41.2612
41.2953
41.335
41.3093
41.2349
41.268
41.2746
41.3245
41.3639
41.3027
41.2792
41.2654
41.2522
41.3638
41.3335
41.3034
41.3172
41.3212
41.3324
41.3075
41.2993
41.3057
41.3169
41.3137
41.2272
41.2745
41.343
41.3117
41.2306
41.2876
41.2855
41.297
41.3476
41.2728
41.2693
41.2205
41.2546
41.3467
41.3261
41.3012
41.3509
41.3335
41.3436
41.332
41.3174
41.2743
41.2972
41.3093
41.189
41.2692
41.3558
41.3222
41.2344
41.2734
41.2309
41.2599
41.3381
41.2585
41.2668
41.227
41.276
41.34
41.3263
41.3154
41.391
41.337
41.3553
41.3491
41.3546
41.2205
41.3092
41.2995
41.1886
41.2942
41.3628
41.3231
41.2406
41.2356
41.166
41.2544
41.3259
41.2505
41.2637
41.2386
41.3093
41.3407
41.3329
41.334
41.4297
41.344
41.3728
41.3846
41.4151
41.2136
41.314
41.3113
41.2369
41.3578
41.3592
41.3032
41.226
41.2202
41.1581
41.2853
41.3092
41.2516
41.2655
41.266
41.3608
41.35
41.351
41.3619
41.4718
41.3471
41.3838
41.4335
41.4933
41.225
41.3089
41.3408
41.309
41.4491
41.3103
41.2608
41.2109
41.2372
41.2053
41.3566
41.2919
41.261
41.2811
41.3104
41.4327
41.3714
41.3846
41.4135
41.5358
41.36
41.4081
41.5016
41.5983
41.2459
41.3226
41.3649
41.4049
41.541
41.2749
41.2213
41.2182
41.2822
41.3007
41.4349
41.2803
41.2836
41.3295
41.378
41.5252
41.4072
41.4373
41.4888
41.6094
41.3973
41.4407
41.5375
41.6759
41.2915
41.3733
41.4058
41.5253
41.6136
41.3307
41.204
41.2628
41.3524
41.4202
41.5093
41.2992
41.3262
41.4118
41.469
41.6299
41.4679
41.5065
41.5703
41.5985
41.4439
41.4687
41.5533
41.6051
41.358
41.3997
41.4698
41.6282
41.6582
41.3687
41.2133
41.3364
41.4342
41.5114
41.5588
41.3669
41.4155
41.5016
41.5532
41.7089
41.5474
41.5771
41.6349
41.6116
41.4714
41.5132
41.6543
41.5995
41.4137
41.4112
41.5719
41.6785
41.6733
41.384
41.2729
41.411
41.5015
41.5389
41.5947
41.4608
41.4982
41.5616
41.5985
41.7181
41.616
41.6229
41.6601
41.5954
41.4812
41.5209
41.6201
41.6271
41.4834
41.4675
41.623
41.6281
41.6558
41.44
41.3813
41.4667
41.511
41.5347
41.5886
41.5381
41.5319
41.5786
41.6024
41.6782
41.6382
41.6271
41.6477
41.4644
41.4032
41.2657
41.4765
41.5772
41.4967
41.2991
41.4968
41.5439
41.623
41.526
41.4788
41.4732
41.4797
41.5139
41.5593
41.576
41.536
41.5528
41.5898
41.6193
41.6198
41.6035
41.6211
41.3393
41.2924
40.9274
41.2769
41.5038
41.5029
41.1911
41.3745
41.4953
41.5847
41.5891
41.532
41.4389
41.4464
41.5041
41.5306
41.58
41.5063
41.52
41.5651
41.5795
41.5888
41.5752
41.5966
41.3288
41.2402
40.8821
41.2157
41.4805
41.5372
41.294
41.3254
41.4894
41.5745
41.6041
41.5629
41.413
41.4426
41.5114
41.5178
41.5805
41.4674
41.5085
41.5463
41.5598
41.5618
41.5512
41.5796
41.4684
41.4887
41.1824
41.3664
41.5154
41.6002
41.4508
41.4135
41.5069
41.5799
41.6138
41.5993
41.4684
41.4589
41.5146
41.512
41.5931
41.4672
41.5128
41.5324
41.5501
41.5509
41.5333
41.5682
41.6004
41.8326
41.6331
41.5451
41.551
41.8113
41.5987
41.5094
41.5067
41.5638
41.6665
41.6588
41.5322
41.4812
41.5047
41.5007
41.6051
41.509
41.5214
41.5282
41.5365
41.5761
41.5255
41.5592
41.6374
41.901
41.7287
41.6044
41.5552
41.8516
41.6053
41.547
41.4721
41.5117
41.7754
41.6884
41.5515
41.5059
41.4847
41.477
41.6301
41.5253
41.5192
41.512
41.5134
41.5921
41.5265
41.542
41.6119
41.8157
41.6703
41.5814
41.5245
41.7557
41.5454
41.5096
41.407
41.4418
41.7138
41.6019
41.4834
41.494
41.4605
41.445
41.5831
41.4905
41.5073
41.487
41.4897
41.5743
41.5147
41.5177
41.5649
41.6726
41.5827
41.5309
41.4785
41.5886
41.4657
41.4404
41.3769
41.3886
41.6619
41.4001
41.3762
41.4713
41.441
41.4294
41.454
41.4576
41.4789
41.466
41.4678
41.5388
41.4905
41.4918
41.5176
41.5374
41.505
41.4787
41.4435
41.4024
41.4046
41.3873
41.3695
41.3649
41.1179
41.0602
41.3006
41.4298
41.4355
41.4263
41.2762
41.4237
41.4444
41.4522
41.4561
41.4768
41.4705
41.4684
41.4816
41.4429
41.4523
41.4444
41.4602
41.2812
41.3429
41.3624
41.3866
41.3937
40.9067
40.8943
41.2896
41.4015
41.4424
41.4298
41.1487
41.4071
41.4325
41.4477
41.4542
41.4341
41.4597
41.4589
41.4625
41.4026
41.4228
41.4281
41.4677
41.2552
41.3009
41.3635
41.4269
41.4287
41.0864
40.9822
41.3137
41.3992
41.4618
41.434
41.1881
41.3989
41.4489
41.4602
41.4625
41.4226
41.4632
41.4666
41.4618
41.4169
41.4185
41.4308
41.4733
41.3156
41.3016
41.3701
41.4605
41.4593
41.3103
41.1848
41.3548
41.4099
41.4954
41.4421
41.2943
41.4078
41.4811
41.4865
41.4802
41.4674
41.4821
41.4863
41.4829
41.4682
41.4395
41.452
41.5049
41.4231
41.3514
41.3904
41.496
41.5042
41.4913
41.4057
41.4193
41.4304
41.5185
41.4637
41.4323
41.4825
41.5066
41.5247
41.5037
41.5399
41.5042
41.5103
41.5266
41.5276
41.4718
41.4958
41.5448
41.5297
41.414
41.4475
41.5345
41.5473
41.5953
41.5897
41.4871
41.4381
41.5175
41.5012
41.5926
41.5455
41.5303
41.5572
41.5285
41.571
41.527
41.5345
41.5791
41.5749
41.5006
41.5524
41.5863
41.6068
41.4701
41.5156
41.5637
41.5841
41.6841
41.6809
41.5397
41.4703
41.5208
41.5419
41.6943
41.5692
41.5624
41.5719
41.5497
41.6045
41.5518
41.5551
41.6242
41.6061
41.535
41.6099
41.6206
41.6578
41.5012
41.5602
41.5804
41.6101
41.7432
41.7291
41.6092
41.5212
41.5438
41.574
41.7918
41.6125
41.5733
41.5817
41.5647
41.6449
41.5781
41.5732
41.6512
41.628
41.5885
41.6484
41.6386
41.6722
41.5579
41.5983
41.591
41.6249
41.7565
41.7504
41.639
41.5753
41.5485
41.5877
41.8609
41.6475
41.58
41.5771
41.5687
41.6995
41.6074
41.5861
41.6527
41.6463
41.6299
41.6588
41.6365
41.6701
41.6189
41.608
41.5976
41.6244
41.7517
41.7479
41.6656
41.6015
41.5417
41.587
41.8378
41.7003
41.6041
41.5767
41.5647
41.7975
41.6338
41.5971
41.6378
41.6644
41.6566
41.6446
41.6123
41.6766
41.6358
41.597
41.5774
41.5996
41.7412
41.7374
41.722
41.6067
41.5366
41.5671
41.7964
41.6924
41.6058
41.5777
41.5488
41.7893
41.6409
41.5949
41.6133
41.669
41.6776
41.6167
41.5657
41.6865
41.631
41.5707
41.5078
41.5327
41.7278
41.7241
41.7533
41.5925
41.5029
41.5138
41.7362
41.604
41.5434
41.5321
41.4983
41.6653
41.5956
41.5524
41.5902
41.6828
41.6863
41.5838
41.4985
41.6971
41.6142
41.5104
41.3981
41.42
41.7221
41.7139
41.6955
41.5916
41.3998
41.3925
41.677
41.5174
41.4494
41.4346
41.3917
41.5354
41.5178
41.471
41.5702
41.7025
41.6661
41.5523
41.4119
41.7177
41.6039
41.4302
41.223
41.2292
41.7349
41.7197
41.6358
41.5382
41.2341
41.1953
41.6521
41.4799
41.3458
41.2967
41.2186
41.482
41.4391
41.358
41.5528
41.7426
41.6835
41.5331
41.3027
41.7564
41.6217
41.3309
40.9847
40.922
41.7744
41.7512
41.5801
41.4196
40.9819
40.8539
41.6907
41.5061
41.2508
41.1067
40.9499
41.5147
41.3804
41.224
41.5395
41.8137
41.7181
41.5206
41.1588
41.8253
41.647
41.2135
40.6466
40.4007
41.8502
41.8148
41.5594
41.226
40.593
40.1685
41.7846
41.6699
41.1625
40.8586
40.5066
41.5819
41.3407
41.0704
41.5169
41.9265
41.7703
41.5094
40.9634
41.9326
41.6411
41.0436
40.1222
39.3717
41.9707
41.9171
41.5966
40.9653
40.0028
38.6079
41.888
41.8037
41.1382
40.5337
39.741
41.6887
41.333
40.9045
41.4714
42.0874
41.8408
41.4509
40.7033
42.0797
41.5834
40.7641
39.4531
37.0415
42.1484
42.0691
41.5777
40.6337
39.1976
35.3288
41.9952
41.784
41.1342
40.0829
38.33
41.7809
41.3335
40.7452
41.3454
42.2882
41.8551
41.2482
40.3975
42.2455
41.4632
40.3967
38.6531
31.1665
42.3579
42.2587
41.5202
40.2693
38.3985
31.5988
-11.0869
42.1012
41.7821
41.0909
39.6711
35.614
41.8922
41.3809
40.6722
41.0635
42.1667
41.5562
40.8619
40.1363
42.2191
41.0901
40.1583
38.4282
27.6754
1.36797
42.4665
42.2942
41.3504
40.1528
38.1421
30.8661
6.7933
42.1549
41.7398
41.1338
39.4151
32.253
41.9698
41.4787
40.7501
40.3987
41.6144
40.5411
40.1487
40.0481
41.8551
40.4268
40.0434
39.0709
32.3535
11.6242
42.2493
41.9419
41.0139
40.1459
38.8484
31.8137
12.0367
42.0275
41.6274
41.1047
39.8843
34.4147
15.1306
41.9403
41.4843
40.9447
39.5031
40.716
39.3602
39.3431
40.0924
41.171
39.7846
39.8999
40.1596
35.1339
15.1181
41.7683
41.3528
40.4104
40.1505
40.084
34.4171
14.0519
41.811
41.3177
41.0038
40.5106
38.4062
41.6846
41.318
41.1232
39.1968
40.1612
39.0071
39.2104
40.081
40.5529
39.4718
39.819
40.798
39.785
41.1676
40.7394
39.8234
40.1375
40.8222
38.5521
2.21829
41.3672
40.8665
40.853
40.8987
41.335
41.2763
41.1335
41.2139
39.786
40.0366
39.1357
39.4277
40.201
40.1994
39.3253
39.8135
40.9863
41.5102
40.779
40.3357
39.5168
40.0366
41.0203
41.7089
40.9163
40.4723
40.641
41.0178
41.6396
40.9137
40.9004
41.1369
39.8085
40.1878
39.5382
39.5865
40.3435
40.1961
39.4409
40.0276
40.8791
41.467
40.6529
40.2467
39.3829
39.8819
40.873
41.6195
40.6196
40.1373
40.425
40.934
41.4051
40.6224
40.6734
40.9958
40.2798
40.5291
40.008
39.9903
40.5629
40.3947
39.7073
40.2384
40.9058
41.3559
40.7004
40.3452
39.5046
40.0545
40.8758
41.3442
40.4494
39.9499
40.3069
40.8806
41.2234
40.4053
40.5221
40.8973
40.8694
40.9537
40.5856
40.5207
40.8944
40.6592
40.0571
40.4609
40.9774
41.3038
40.7615
40.474
39.8101
40.3415
40.9588
41.2701
40.3637
39.901
40.3293
40.8896
41.186
40.2887
40.4615
40.8815
41.4237
41.4384
41.1066
41.0778
41.3452
41.0082
40.5018
40.7951
41.1803
41.516
40.8321
40.5812
40.0376
40.6347
41.1328
41.3979
40.3113
39.9972
40.5228
41.006
41.3019
40.2442
40.5225
40.9745
41.8578
41.9241
41.5674
41.4629
41.6557
41.33
40.8758
41.1228
41.5135
41.7777
40.9474
40.7089
40.3562
40.9425
41.3823
41.6777
40.2936
40.2131
40.8063
41.199
41.5677
40.2941
40.7289
41.1963
42.202
42.4334
42.0228
41.7417
41.9092
41.7377
41.3101
41.3006
41.6479
42.034
41.2306
40.9691
40.7922
40.9656
41.528
41.9813
40.4618
40.4857
40.9527
41.4889
41.9275
40.5296
41.0401
41.5701
42.4273
42.6653
42.2522
41.8854
42.0435
42.0015
41.4761
41.4098
41.7721
42.2057
41.64
41.2384
40.9486
41.1582
41.6893
42.1923
40.6714
40.6781
41.1189
41.7625
42.1795
40.7565
41.282
41.9541
238.176
224.3
226.719
226.587
224.28
226.74
223.971
219.9
265.128
262.28
253.406
265.334
256.923
232.113
226.214
235.127
225.754
227.591
225.265
223.614
217.297
223.081
222.325
220.481
227.713
227.125
259.559
248.586
252.026
259.373
253.668
249.727
249.174
236.605
223.793
234.349
219.671
215.386
215.839
213.616
213.283
228.458
242.452
220.818
241.196
234.767
249.712
241.412
246.462
249.876
253.836
245.117
240.477
247.471
226.458
243.432
236.716
226.732
225.942
219.496
211.493
254.891
225.669
218.53
231.83
215.387
223.483
245.435
238.352
229.304
253.76
261.912
237.422
266.463
264.839
215.115
211.406
220.63
206.227
229.586
235.691
225.301
247.536
220.728
226.691
238.456
229.379
221.548
257.796
230.117
205.595
200.7
220.872
230.596
206.358
221.251
226.816
219.866
222.44
223.341
222.547
220.27
221.262
219.393
221.528
216.578
218.536
215.972
210.777
211.967
210.099
243.099
210.126
231.862
243.547
235.42
207.267
214.942
208.209
217.123
210.153
213.734
214.757
210.329
209.468
211.532
211.195
219.155
214.864
248.556
243.96
244.631
226.948
238.537
236.893
227.063
229.615
218.206
208.634
210.087
241.844
241.292
232.898
225.231
210.629
225.148
207.367
191.678
201.569
185.643
240.762
210.149
201.425
231.825
208.669
194.211
188.077
194.63
186.554
203.78
198.968
202.535
185.286
184.157
185.684
184.714
189.466
208.166
186.848
188.503
186.825
184.457
186.772
186.517
192.137
184.687
186.539
187.027
186.329
186.727
207.103
190.13
217.012
214.329
213.293
202.975
202.699
201.596
207.149
205.576
200.029
198.403
200.848
207.66
204.486
193.102
182.093
198.686
196.076
202.294
188.267
188.031
189.913
191.591
207.607
205.846
205.782
205.197
205.32
196.96
198.9
207.874
190.56
194.544
204.972
203.787
175.013
169.903
173.432
182.98
176.232
163.46
140.467
137.266
175.467
171.266
162.835
158.536
153.961
173.442
176.882
142.67
138.578
158.29
164.336
125.977
188.823
171.435
183.138
133.687
169.824
128.092
148.806
169.264
175.967
170.749
160.754
154.065
167.679
160.463
152.085
183.596
157.121
186.311
186.271
177.497
184.106
184.643
183.975
186.997
185.58
182.366
186.16
177.543
173.879
154.692
181.609
180.76
181.348
143.865
149.085
147.359
183.469
187.729
143.417
145.11
146.78
195.309
155.061
168.882
143.363
178.551
177.353
178.124
166.386
164.878
151.147
155.802
198.009
179.408
174.825
158.39
149.449
136.507
98.2154
144.431
80.9093
153.841
136.165
144.964
116.696
91.4514
105.543
89.2973
91.993
65.6253
64.0856
68.9384
152.468
138.695
124.37
142.211
124.626
101.011
133.133
89.8835
91.4257
106.785
115.416
102.565
103.109
82.1295
66.7085
83.4935
53.5197
65.8974
49.0431
136.603
152.428
144.603
134.875
121
117.079
122.554
114.132
74.3632
46.9949
168.281
169.644
51.2994
95.5241
105.546
174.173
177.776
135.595
146.605
139.053
116.385
123.658
81.1771
93.4011
102.925
90.6438
61.9491
64.7891
58.1958
67.6935
61.6161
56.4304
52.1258
48.1412
55.2944
45.0394
97.5995
62.2447
135.763
103.314
119.542
74.5717
77.2834
59.7076
69.0736
50.0021
56.0686
47.1799
42.975
43.2066
42.8042
43.5452
46.9543
44.4647
73.3228
65.6468
66.5673
53.1549
54.8862
51.9343
53.4843
54.9761
45.6648
48.0593
48.347
101.327
102.769
57.1996
58.4232
68.7128
74.6515
86.5589
61.9237
56.906
73.8592
83.1005
60.1094
42.9997
51.9722
45.7035
45.2097
41.8891
43.6336
44.6446
105.847
68.5319
90.4334
58.1208
86.4737
53.1184
67.5281
86.1138
44.8798
45.4325
41.9578
42.9185
44.5862
42.0554
41.5764
73.7843
47.4329
40.6759
43.3319
41.2121
51.6707
54.7437
45.7335
52.7
51.7311
52.018
49.8564
47.8318
50.8342
52.0755
49.7497
50.6084
51.4076
47.5883
46.9165
44.1753
48.53
44.1489
49.5195
45.3656
42.3067
44.5841
43.623
42.3001
40.8926
45.5421
43.666
45.3056
43.4103
44.2027
43.1735
44.0911
45.0422
44.0174
49.0841
49.7436
48.0764
46.3011
46.6231
45.4754
44.7585
44.5805
43.4264
42.7152
42.4894
48.667
48.3443
47.3796
46.7632
42.759
45.5243
62.2668
41.7823
41.4692
48.9953
42.6036
40.1527
41.414
40.7832
43.4967
39.4862
41.1293
40.564
42.1895
64.5071
45.7963
52.6014
42.073
48.8573
41.3663
41.9651
57.9979
44.5589
43.0179
43.548
43.3994
42.8653
42.8567
42.7504
41.5823
42.8737
41.9774
42.0711
42.1256
41.9316
42.6422
41.0639
47.8239
45.0053
48.8242
44.0414
41.843
43.9886
48.3731
42.5469
42.7545
41.9493
40.5815
41.978
41.1946
42.1629
40.9973
42.7026
41.5943
41.343
41.2475
41.6391
41.039
40.9707
42.6726
42.162
42.7688
41.5075
41.8952
41.5481
42.0891
42.6013
41.8027
43.263
43.8464
44.1159
40.8006
41.6423
42.6188
41.0515
41.4461
42.8564
41.4043
40.0415
40.9723
40.7833
41.2713
41.3518
41.3014
41.2235
41.3186
41.2038
41.3212
43.8719
40.2573
40.7609
40.7171
39.9466
41.6302
41.4461
41.3901
40.9676
40.9393
40.9523
41.106
41.2675
41.262
41.2668
41.2124
41.3132
41.2347
41.2936
40.0238
40.0186
40.685
40.4752
41.3434
39.882
40.2284
40.3893
40.8819
41.0771
41.2389
40.5139
41.0944
40.7285
41.3049
40.8757
40.7357
42.0838
41.6404
42.0829
42.0689
41.735
41.7777
41.874
41.8958
41.8353
41.7974
41.8245
41.8144
41.6917
40.9506
40.84
41.0863
40.8401
41.0449
40.7885
40.784
40.8951
40.7202
40.6152
40.7002
40.8164
40.6312
40.981
40.9029
40.587
40.68
40.9485
40.7545
40.7701
40.7594
40.8234
40.7094
40.9137
41.5752
41.2896
41.7482
41.0925
41.4036
41.2002
41.5981
41.7106
40.9016
41.8863
41.3944
41.2131
41.255
41.2416
41.2974
40.0423
40.5069
40.561
40.3068
40.2768
40.2823
40.7683
41.0972
41.2611
41.3911
41.048
41.2301
41.2432
41.2615
41.2767
41.2999
41.2347
41.2982
41.2564
41.3043
40.0882
40.0941
40.1721
40.1735
40.197
41.2129
41.3106
41.2741
41.107
41.1077
41.2229
41.1999
41.3028
41.3039
41.3098
41.2636
41.302
41.2813
41.299
40.0676
40.1246
39.9302
40.3046
40.6415
39.9422
39.8982
40.2773
40.5296
41.134
41.2943
41.1072
41.2282
41.1473
41.2189
41.1693
41.2579
41.2463
41.223
41.3042
41.2911
41.3025
41.1588
40.8833
41.614
41.7579
41.241
41.4399
41.5566
41.6931
41.6953
41.4609
41.5389
41.4909
41.3986
40.8725
40.885
40.831
40.7956
40.7915
40.8472
40.8432
40.8206
40.7803
40.6673
40.8343
40.8191
40.7519
40.8396
40.8573
40.754
40.7514
40.8538
40.7757
40.8348
40.8459
40.8494
40.7724
40.6439
41.2925
41.1815
41.5021
41.0036
41.2266
41.1976
41.4356
41.9038
41.6933
41.7336
41.8075
41.369
41.3755
41.4708
41.4309
40.5448
40.3859
40.3925
40.617
40.4409
40.436
41.265
41.327
41.2972
41.4308
41.4577
41.3912
41.3321
41.3624
41.3093
41.3406
41.4172
41.4254
41.3502
41.3772
40.2275
40.3292
40.4269
40.3111
40.4833
41.2526
41.2576
41.2997
41.2747
41.2558
41.27
41.2576
41.3291
41.3168
41.324
41.324
41.3483
41.3297
41.3344
40.2211
40.349
40.0703
40.314
40.5244
40.2194
40.3277
40.4241
40.6279
41.1946
41.1918
41.2
41.2236
41.259
41.2162
41.2508
41.2875
41.3056
41.2903
41.3186
41.3272
41.3247
40.8166
40.8255
41.2975
41.3895
41.0543
41.207
41.2908
41.399
41.3562
41.2344
41.2885
41.2711
41.272
40.913
40.9482
40.904
40.8964
40.8883
40.9809
40.9595
40.965
40.9143
40.8657
41.0456
41.0206
40.9815
40.9613
41.0691
40.7667
40.8158
40.8466
40.7866
40.7409
40.9227
40.8526
40.8229
40.7818
41.2208
41.2025
41.3801
41.137
41.2449
41.2198
41.3337
41.586
41.3766
40.6817
40.5402
40.5146
40.7644
40.6415
40.607
41.7086
41.3913
41.3711
41.4491
41.7332
41.3377
41.34
41.4494
41.3944
41.4386
41.5171
41.4865
41.445
41.4812
40.4439
40.6706
40.7586
40.617
40.828
41.3299
41.292
41.338
41.328
41.2841
41.2167
41.2464
41.3836
41.3585
41.3575
41.3976
41.3991
41.368
41.3652
40.5631
40.7741
40.596
40.6232
40.7709
40.6794
40.8113
40.8425
40.9271
41.27
41.2183
41.2671
41.1822
41.2573
41.1858
41.2621
41.1939
40.8864
41.0085
41.1489
41.2234
41.1092
41.1419
41.202
41.2318
41.2008
41.1623
41.2041
41.1735
41.2013
41.0029
41.0547
41.0595
41.0254
41.0441
41.1314
41.0898
41.1176
41.1167
41.0797
41.2214
41.1923
41.1579
41.1511
41.2087
40.8722
40.9195
40.8983
40.8648
40.7936
40.9619
40.932
40.8739
40.8104
41.2495
41.2256
41.3025
41.2301
41.2612
41.2376
41.2848
41.2958
41.3009
40.8374
40.7384
40.693
40.902
40.8328
40.7805
41.2814
41.4264
41.2993
41.1784
40.9112
40.7833
40.9525
41.0456
40.9178
41.0554
41.2878
41.0984
41.192
40.9665
41.1015
40.9487
41.0926
40.9525
41.0148
41.0686
41.0286
41.0641
41.1513
41.1578
41.2338
41.1557
41.2388
41.1644
41.2086
41.1459
41.2144
41.1923
41.1261
41.1954
41.169
41.2202
41.2107
41.1907
41.234
41.1827
41.1685
41.1097
41.1602
41.1487
41.1646
41.0982
41.1442
41.1919
41.1428
41.1801
41.2414
41.1964
41.2319
41.2469
41.2192
41.3121
41.2829
41.2593
41.2536
41.2742
40.9507
41.006
40.9671
40.871
40.864
40.9906
41.0193
40.9229
40.9281
41.281
41.2667
41.2729
41.286
41.2845
41.2933
41.2737
41.2984
41.2813
40.9632
40.926
40.8709
41.0186
41.0155
40.9593
41.1844
41.1285
41.2821
41.224
41.2295
41.0314
41.1376
41.1855
41.1234
41.2098
41.1628
41.1435
41.2203
41.223
41.1837
41.2086
41.3001
41.159
41.26
41.2263
41.2723
41.2414
41.334
41.292
41.2056
41.1489
41.1999
41.1796
41.2032
41.1621
41.1874
41.2043
41.2383
41.2828
41.1972
41.2413
41.2456
41.2236
41.2812
41.1513
41.1374
41.0992
41.1608
41.1466
41.1831
41.1905
41.2471
41.2809
41.2457
41.2742
41.3148
41.2896
41.3107
41.3086
41.2848
41.3575
41.3327
41.3035
41.2832
41.2924
41.0822
41.1612
41.0863
41.0186
41.0013
41.1763
41.172
41.1114
41.0828
41.288
41.2961
41.2818
41.2856
41.2779
41.2965
41.2727
41.272
41.2734
41.0776
41.1004
41.049
41.1408
41.1771
41.1369
41.244
41.2485
41.2751
41.2492
41.2543
41.1964
41.2754
41.2766
41.2526
41.3257
41.2362
41.2165
41.2414
41.2451
41.256
41.3688
41.4125
41.3087
41.374
41.3416
41.3744
41.3666
41.4008
41.3751
41.2026
41.2003
41.1911
41.2197
41.226
41.2538
41.2212
41.2311
41.3192
41.3417
41.264
41.3413
41.2899
41.2933
41.3916
41.1811
41.1698
41.1574
41.2299
41.223
41.271
41.2981
41.3353
41.345
41.3277
41.3428
41.3712
41.3563
41.3696
41.3598
41.3244
41.4026
41.3877
41.3496
41.3036
41.3223
41.2289
41.2826
41.2481
41.1884
41.1606
41.3028
41.3058
41.251
41.228
41.2854
41.3065
41.2651
41.2995
41.325
41.3291
41.2923
41.2738
41.2908
41.2036
41.2444
41.2149
41.2565
41.2983
41.2783
41.2461
41.261
41.279
41.2426
41.2698
41.2991
41.363
41.3444
41.3392
41.3921
41.2529
41.2731
41.256
41.2602
41.2767
41.4337
41.4449
41.3859
41.4192
41.3917
41.4047
41.3695
41.4287
41.396
41.2592
41.3037
41.2668
41.2882
41.2788
41.3581
41.3098
41.2612
41.362
41.3784
41.3324
41.4394
41.331
41.3658
41.4776
41.294
41.2923
41.3055
41.3543
41.3673
41.3778
41.3666
41.3909
41.3926
41.3765
41.3904
41.4104
41.3907
41.4071
41.4099
41.3746
41.4352
41.4265
41.3972
41.3618
41.3973
41.3254
41.3599
41.3459
41.2996
41.278
41.3742
41.3749
41.3437
41.3158
41.3823
41.3556
41.3378
41.3749
41.4379
41.3776
41.3783
41.3285
41.3668
41.2992
41.3377
41.3213
41.3328
41.3673
41.3521
41.2695
41.3002
41.3548
41.3229
41.3403
41.3759
41.4176
41.4072
41.4089
41.44
41.2769
41.2917
41.2884
41.2962
41.3317
41.4528
41.4605
41.3469
41.426
41.392
41.422
41.3421
41.4211
41.3919
41.332
41.3999
41.3653
41.3608
41.3913
41.4348
41.4003
41.3837
41.3869
41.3869
41.392
41.4992
41.3737
41.4156
41.5022
41.4134
41.447
41.473
41.4598
41.4909
41.4648
41.4056
41.4055
41.4247
41.4009
41.4205
41.4346
41.4067
41.4293
41.4391
41.418
41.4558
41.4485
41.4342
41.4362
41.4687
41.3939
41.4234
41.394
41.3865
41.3465
41.4303
41.3938
41.4266
41.3583
41.475
41.3988
41.4135
41.4374
41.5018
41.4159
41.4392
41.4029
41.4255
41.3662
41.3916
41.377
41.4043
41.4161
41.3988
41.3639
41.3766
41.3973
41.3949
41.4174
41.4404
41.4558
41.4619
41.4669
41.4655
41.3181
41.3636
41.3071
41.335
41.3816
41.4664
41.4673
41.3483
41.4186
41.3817
41.4427
41.3593
41.4205
41.3549
41.4105
41.4658
41.4314
41.4206
41.4146
41.4873
41.4506
41.4256
41.3865
41.4178
41.4517
41.543
41.4181
41.5124
41.5871
41.4948
41.5033
41.4881
41.5168
41.5208
41.514
41.3909
41.3791
41.4426
41.4098
41.4368
41.4511
41.4135
41.4453
41.4564
41.4456
41.4699
41.4637
41.452
41.485
41.4941
41.4422
41.4438
41.37
41.4562
41.3417
41.4377
41.3331
41.4547
41.3165
41.5155
41.4323
41.4564
41.4521
41.518
41.4349
41.4546
41.4328
41.4308
41.4407
41.4415
41.4153
41.4723
41.463
41.4331
41.4298
41.4495
41.4064
41.4443
41.4554
41.4813
41.4708
41.4872
41.4836
41.4711
41.3547
41.3981
41.3511
41.3795
41.4153
41.4621
41.4579
41.3719
41.4165
41.3489
41.4283
41.3826
41.3918
41.3535
41.4321
41.5031
41.4754
41.4595
41.4424
41.5105
41.4843
41.4498
41.4395
41.4625
41.5783
41.6135
41.482
41.6309
41.6274
41.5357
41.5442
41.5325
41.5439
41.5688
41.527
41.3828
41.4292
41.4624
41.4228
41.4576
41.4778
41.4431
41.4765
41.4707
41.4562
41.4822
41.4763
41.459
41.5008
41.5012
41.4435
41.4663
41.3403
41.4484
41.3316
41.47
41.4028
41.4556
41.3436
41.505
41.4165
41.4435
41.4573
41.4862
41.41
41.4283
41.432
41.4238
41.489
41.475
41.4488
41.4911
41.4802
41.4546
41.4444
41.4466
41.4115
41.4335
41.4272
41.4856
41.4774
41.4973
41.4924
41.4903
41.3954
41.4155
41.3626
41.3822
41.4056
41.468
41.4929
41.408
41.3879
41.4078
41.4714
41.4765
41.4391
41.5373
41.4504
41.4977
41.4707
41.4637
41.4511
41.4838
41.4649
41.4541
41.549
41.6815
41.6627
41.6371
41.8613
41.6836
41.6471
41.5411
41.5841
41.5844
41.5388
41.5874
41.5156
41.4934
41.5567
41.4946
41.4742
41.4966
41.5101
41.5038
41.5161
41.4796
41.4581
41.4895
41.4811
41.4547
41.4916
41.4814
41.4908
41.5167
41.493
41.4792
41.4317
41.5415
41.5553
41.5229
41.5823
41.4816
41.4135
41.4388
41.4527
41.4774
41.4277
41.466
41.4633
41.5098
41.4856
41.4773
41.4425
41.4658
41.4765
41.4332
41.4195
41.4104
41.4151
41.409
41.3983
41.4976
41.5127
41.5101
41.5128
41.5397
41.3633
41.3916
41.352
41.3506
41.3722
41.5146
41.5251
41.5219
41.4934
41.6365
41.4968
41.5211
41.4992
41.6389
41.4396
41.455
41.4512
41.428
41.4119
41.4242
41.4232
41.4104
41.8374
41.8205
41.6735
41.6429
41.7688
41.6311
41.6109
41.5315
41.5755
41.555
41.5115
41.5507
41.4684
41.5929
41.5957
41.5207
41.5258
41.529
41.5226
41.5357
41.5313
41.4786
41.4505
41.4865
41.4701
41.4444
41.4725
41.461
41.5264
41.5328
41.563
41.5407
41.6438
41.5512
41.5576
41.5231
41.6253
41.4583
41.4205
41.4733
41.4363
41.4267
41.4094
41.4625
41.4908
41.4399
41.4445
41.4735
41.4376
41.462
41.4604
41.4304
41.3772
41.3736
41.3783
41.3496
41.352
41.5666
41.5436
41.596
41.6267
41.5753
41.3376
41.3459
41.3236
41.3201
41.3266
41.5414
41.5414
41.4884
41.4721
41.5902
41.5197
41.4797
41.5663
41.5385
41.3743
41.4025
41.3839
41.3728
41.351
41.3873
41.3616
41.342
41.6753
41.5875
41.5857
41.5722
41.5788
41.5434
41.5401
41.4915
41.5219
41.4952
41.4703
41.4984
41.4377
41.5828
41.5655
41.5169
41.5399
41.5225
41.5054
41.5381
41.5055
41.4577
41.4364
41.4755
41.4463
41.4267
41.4469
41.4307
41.5444
41.5353
41.5437
41.5047
41.575
41.5234
41.5279
41.4931
41.5272
41.4225
41.3995
41.4201
41.4224
41.4126
41.3915
41.3904
41.4067
41.3906
41.5017
41.4713
41.4384
41.5147
41.4606
41.4357
41.3364
41.3368
41.3374
41.3238
41.3238
41.6553
41.563
41.5561
41.592
41.462
41.3085
41.3212
41.3065
41.3059
41.3163
41.4817
41.5104
41.495
41.6244
41.5398
41.5671
41.4982
41.6054
41.5214
41.338
41.3841
41.3588
41.3452
41.3274
41.3753
41.3537
41.3199
41.5536
41.5342
41.5225
41.5155
41.5098
41.5031
41.502
41.4562
41.4853
41.4758
41.4557
41.4755
41.41
41.5419
41.5106
41.4885
41.5284
41.4827
41.467
41.5074
41.4566
41.4335