/*--------------------------------*- C++ -*----------------------------------*\
| =========                 |                                                 |
| \\      /  F ield         | OpenFOAM: The Open Source CFD Toolbox           |
|  \\    /   O peration     | Version:  5.x                                   |
|   \\  /    A nd           | Web:      www.OpenFOAM.org                      |
|    \\/     M anipulation  |                                                 |
\*---------------------------------------------------------------------------*/
FoamFile
{
    version     2.0;
    format      ascii;
    class       surfaceScalarField;
    location    "5";
    object      phi;
}
// * * * * * * * * * * * * * * * * * * * * * * * * * * * * * * * * * * * * * //

dimensions      [0 3 -1 0 0 0 0];

internalField   nonuniform List<scalar> 
29271
(
-1.02739e-05
-1.15457e-06
2.81214e-06
8.61876e-06
-7.64974e-06
3.22233e-06
5.57109e-07
4.06493e-06
-4.23938e-05
-7.84922e-06
-1.77833e-05
1.55352e-05
7.80959e-06
4.46816e-05
-3.57611e-05
-8.99243e-06
-6.39201e-06
8.66661e-06
1.42363e-05
2.82427e-05
-3.86167e-05
-7.55796e-06
-6.32561e-06
-2.54836e-06
5.68472e-05
-1.79856e-06
-3.57902e-05
-1.45908e-06
-3.7214e-06
8.50565e-06
9.92455e-06
2.25405e-05
-4.04234e-05
-3.2318e-06
-2.27237e-05
2.33674e-05
5.91441e-06
3.7097e-05
-4.71665e-05
-1.57871e-05
-1.11375e-05
-5.34287e-06
8.07635e-06
7.13577e-05
-2.93356e-05
-9.70566e-07
1.16046e-05
-1.02947e-05
6.54305e-06
2.24531e-05
-3.52645e-05
1.62585e-05
-7.30872e-06
1.85345e-05
7.82333e-06
-1.10325e-05
-2.53124e-06
5.63318e-06
7.96379e-06
-4.57058e-05
-1.7984e-05
-7.78215e-06
1.74059e-05
-9.67611e-08
5.41629e-05
-3.22563e-05
-5.74736e-06
-4.78091e-06
3.48671e-06
9.36983e-06
2.9928e-05
-4.1976e-05
3.60313e-07
-6.94252e-06
-7.15029e-07
-4.54507e-06
5.38183e-05
-4.2546e-05
-1.03466e-05
9.00133e-06
-8.68576e-06
4.29567e-06
4.82813e-05
-2.60725e-05
-1.61273e-06
-6.18607e-06
8.97845e-06
1.51388e-05
9.75401e-06
-2.68388e-05
-3.06843e-06
1.00817e-05
-1.45079e-06
1.57737e-05
5.50263e-06
-4.92973e-05
-1.20658e-05
1.26969e-08
3.25899e-06
-6.0941e-06
6.41855e-05
-3.70013e-05
-2.63347e-07
6.60479e-06
-2.38129e-06
1.69804e-06
3.13431e-05
-4.38487e-05
-7.95267e-06
-1.44948e-06
4.43925e-05
2.55277e-06
6.30557e-06
-1.51421e-05
-2.25053e-06
7.41817e-06
1.00172e-05
-2.52636e-05
-3.83819e-06
8.31014e-06
1.60611e-05
4.84953e-06
-3.76741e-05
-1.97022e-06
-5.2452e-06
1.30524e-06
4.76221e-05
-4.03777e-06
-1.64153e-05
-4.73542e-06
2.77954e-06
1.82476e-05
-5.2679e-06
-4.22772e-07
2.41245e-06
3.27596e-06
-6.00469e-06
-4.16926e-06
-2.15118e-06
1.23069e-05
-5.93043e-06
6.02568e-06
-3.51532e-05
4.64824e-07
6.1117e-06
2.84814e-05
-9.48626e-06
-2.96658e-05
-4.79471e-06
-5.76718e-06
1.01181e-05
3.95958e-05
-6.2265e-05
1.08889e-06
-4.39075e-06
3.37799e-06
5.22296e-05
9.95922e-06
3.68345e-06
1.02018e-06
-1.76412e-05
-4.12314e-07
1.65832e-06
1.16916e-05
1.53601e-05
3.55909e-05
0.000139828
-2.99077e-05
-5.7606e-05
-2.30585e-05
-6.23868e-05
-1.28474e-05
-6.4868e-06
-6.35623e-06
-3.23216e-06
1.14855e-06
2.89641e-07
2.34685e-06
7.31716e-06
1.23158e-05
9.87005e-05
0.000246221
-8.59678e-05
-5.70543e-05
-8.25093e-05
-6.23413e-05
-1.38994e-05
-1.76066e-05
-1.03633e-05
-1.21348e-05
1.41972e-07
3.62207e-05
4.67057e-05
-6.97978e-06
-4.42827e-06
-4.95194e-06
-3.50474e-06
7.59844e-07
1.0336e-06
1.07688e-06
-1.45828e-05
-8.80159e-06
-2.09169e-05
-9.45685e-06
-8.63139e-06
-2.18658e-06
2.15575e-06
8.82186e-06
-4.79648e-06
-1.12887e-07
2.98432e-06
2.01192e-06
-1.09895e-05
-6.69965e-05
-1.32728e-05
5.99585e-06
1.66881e-06
8.35941e-05
5.83319e-06
4.36153e-06
0.000146912
-2.48514e-05
-2.26275e-05
-7.66414e-05
-2.94703e-05
1.05926e-06
3.29387e-06
1.93285e-05
8.39347e-06
5.49304e-05
5.88121e-05
0.000225344
-6.92177e-05
-7.79092e-05
-2.66725e-05
-6.07539e-05
4.8769e-06
5.1242e-06
0.000290037
3.34687e-06
6.04844e-06
6.02421e-06
8.33537e-06
1.4363e-05
1.21131e-05
-5.9726e-05
-5.01184e-05
-8.30326e-05
-6.62407e-05
-6.94533e-06
-5.57332e-07
4.96976e-07
1.07614e-06
1.08065e-05
-7.58183e-06
1.26836e-06
-6.38896e-06
-9.51784e-07
9.71744e-06
3.93679e-06
2.88358e-06
4.44172e-07
0.000249546
3.86611e-06
4.09342e-06
3.46062e-06
3.39678e-06
4.59211e-06
-8.72844e-07
2.05324e-06
-8.14789e-05
-6.65683e-05
-5.46083e-05
-6.64465e-05
3.56732e-06
1.19172e-06
0.000148542
7.37444e-06
1.59577e-05
9.93377e-06
-1.13833e-06
-1.39767e-06
-2.34325e-06
-2.40982e-05
-4.15882e-05
-2.88579e-05
-2.54476e-05
-4.55058e-05
1.07028e-07
-4.782e-06
5.88723e-05
-5.55718e-06
-1.95416e-06
1.50931e-06
6.00883e-06
-1.42725e-05
2.70986e-06
-2.1984e-06
1.4188e-05
-5.63782e-05
-1.05254e-06
8.20828e-06
1.68688e-06
4.87273e-05
-1.81447e-05
1.23272e-05
-5.62e-06
1.13919e-05
-2.66886e-06
6.1793e-07
-5.90788e-07
2.67762e-06
-1.61038e-05
-7.27678e-07
2.69433e-06
1.41197e-05
-1.30509e-07
6.01786e-06
-2.55635e-05
-3.78068e-06
2.8284e-07
2.3174e-05
5.61865e-07
-3.99898e-05
9.03419e-06
-7.53726e-06
5.95997e-06
3.19711e-05
-3.77387e-05
-1.29944e-07
-8.8341e-07
6.48026e-06
2.88469e-05
3.42495e-06
-5.98333e-07
2.70393e-06
-8.66045e-06
-2.04316e-06
-3.38697e-07
8.93671e-06
5.43569e-06
1.01041e-05
0.000101989
-1.27524e-06
-5.17669e-06
4.35936e-08
4.17795e-06
3.65462e-06
9.38335e-06
3.41143e-06
8.08111e-06
4.1738e-05
1.21519e-05
0.000199325
-3.34898e-06
-2.21324e-06
3.69138e-06
3.12463e-07
8.65197e-07
-1.48963e-05
0.000113018
-8.70282e-06
-3.804e-06
-2.86251e-06
-2.13023e-06
1.17328e-06
1.30111e-06
4.48223e-06
-9.84416e-06
-2.30092e-06
2.70523e-06
1.02953e-05
-1.05983e-06
1.0098e-06
-1.60362e-06
1.62573e-06
1.50545e-05
-0.000103244
-3.51745e-06
-2.85361e-05
1.89312e-05
0.000101312
-8.40237e-06
8.37133e-06
0.00013297
1.14745e-05
2.05702e-06
7.10567e-06
3.43918e-06
3.62813e-05
1.35605e-05
0.000179252
1.22862e-05
-2.23725e-06
0.000247396
9.98255e-06
2.64257e-05
1.05449e-05
-9.92562e-07
3.57469e-06
4.44137e-06
-1.85132e-05
2.51919e-06
3.42455e-06
-9.70923e-06
3.4565e-05
-1.78502e-05
-1.0244e-05
-1.41307e-06
5.25192e-06
4.65051e-05
-2.22497e-05
-1.06331e-05
-1.83712e-06
0.000249816
3.39626e-06
3.70143e-06
6.69385e-06
1.39508e-05
-7.99253e-06
1.44083e-06
-6.18803e-07
1.03439e-05
-5.15657e-06
0.000142763
3.72122e-06
7.97493e-06
1.6792e-06
-6.8997e-06
-1.20409e-06
-1.75242e-06
-8.50334e-05
1.7983e-05
-4.10738e-06
7.92644e-05
-9.04259e-06
1.23123e-06
-6.20402e-06
1.39636e-05
-1.57856e-05
5.03938e-06
-1.21389e-05
2.11143e-05
-3.68701e-05
4.31751e-06
4.14236e-06
-4.36547e-06
2.76192e-05
-7.3075e-06
5.06478e-06
-5.44632e-06
7.66735e-06
-2.95221e-06
-4.42605e-07
8.50592e-07
2.55944e-06
-1.23587e-05
-2.90204e-06
2.0311e-06
1.24621e-05
3.10214e-06
2.08553e-06
-2.01297e-05
-1.4013e-06
-1.72934e-06
1.80727e-05
5.15778e-06
-3.0384e-05
-1.16325e-06
1.00371e-06
-8.30655e-06
3.36923e-05
-2.57154e-05
-1.22985e-07
8.38998e-07
4.9133e-07
2.65247e-05
-2.01667e-06
1.02199e-07
3.99702e-06
-1.07234e-05
-3.14832e-06
-3.12836e-06
1.29008e-05
7.86576e-06
1.89523e-05
6.16533e-05
2.47724e-07
1.00772e-06
7.56119e-07
1.88941e-06
2.59437e-06
2.17525e-06
2.73824e-06
2.10838e-06
5.187e-05
9.94161e-06
0.000144513
-1.4898e-06
-8.11241e-07
1.74405e-06
1.42319e-06
2.73853e-06
-3.47611e-05
0.000177329
2.22318e-06
1.95852e-06
4.05567e-06
5.35406e-06
1.25656e-06
3.39547e-06
1.338e-06
-1.23973e-05
5.5896e-07
-1.17639e-05
2.63246e-05
-4.0996e-06
4.31915e-06
-7.59698e-06
7.20644e-06
1.4228e-05
-6.7635e-05
5.38545e-06
1.57682e-06
1.20764e-05
3.43684e-05
-1.27348e-06
2.70893e-05
0.000146611
-7.14431e-06
-7.49171e-06
-2.06032e-06
-3.80782e-06
-8.71395e-07
3.40935e-06
0.000185382
5.31764e-06
-2.89738e-06
0.000208284
1.6653e-06
3.01385e-06
1.43525e-06
-3.81085e-06
3.54447e-07
-1.59861e-06
-4.75747e-05
2.1676e-05
8.11349e-06
-1.06429e-05
3.37458e-05
-7.034e-05
-1.69001e-05
2.93225e-05
2.95577e-05
5.09901e-05
-2.26303e-05
-1.70104e-05
6.21824e-06
0.000323604
-1.33868e-05
-3.00778e-06
-1.6461e-05
-1.0941e-05
3.35064e-06
2.19862e-06
2.3405e-06
-3.17608e-06
1.36339e-06
0.00014049
-2.43339e-06
-3.62184e-06
-1.1032e-05
-4.9917e-08
6.7242e-06
8.97526e-07
-6.55172e-05
5.61509e-06
6.34156e-06
4.74871e-05
-2.48779e-05
8.54332e-06
-1.62315e-05
3.24454e-05
-2.53219e-05
-6.21768e-06
-2.3172e-06
4.00757e-05
-2.42074e-05
4.31628e-06
-3.38004e-06
1.2422e-06
2.33923e-05
-1.04384e-05
9.29605e-07
-1.05319e-07
9.68846e-06
-1.40884e-06
-3.31136e-07
7.16211e-07
1.00521e-06
-1.09618e-05
7.59601e-07
4.46604e-06
5.73099e-06
-2.77633e-06
3.56432e-07
-2.06638e-05
-4.72282e-06
-1.10372e-06
2.89103e-05
9.94769e-06
-3.68818e-05
1.90086e-06
7.34972e-06
-1.0727e-05
2.84106e-05
-3.44021e-05
-9.39165e-06
5.21548e-06
5.67329e-06
4.0199e-05
-7.29401e-06
-3.07334e-06
-7.23283e-06
-1.8912e-05
-6.06353e-07
-1.25886e-06
3.10834e-05
3.73393e-06
1.01566e-05
4.18232e-05
1.00531e-06
2.43149e-07
2.40477e-07
-1.54184e-07
1.46914e-06
9.46357e-07
1.11083e-06
1.07851e-06
2.32019e-05
1.14912e-05
0.000117534
-8.04951e-07
-5.44474e-07
-7.60155e-07
-1.8713e-06
3.0106e-07
-2.13365e-05
0.000212328
-1.67082e-06
1.83016e-06
-3.2697e-07
1.97131e-06
6.83752e-07
2.58639e-06
4.16424e-06
-4.1561e-05
1.27412e-05
-2.26168e-05
5.17375e-05
-8.81729e-06
1.16465e-06
1.51324e-06
6.13434e-06
7.09932e-07
-1.66586e-05
1.43765e-06
-1.41156e-07
2.12502e-06
1.25271e-05
-1.69556e-06
1.32913e-05
0.00015736
-2.27516e-07
-2.70335e-06
-2.51292e-06
-6.7443e-06
-2.16252e-05
-1.37555e-05
0.000230559
-1.00232e-06
-4.27613e-06
0.000184872
-2.5819e-06
-4.74864e-07
-5.63229e-07
-4.50547e-06
-2.90545e-06
-3.2401e-06
-2.44671e-05
1.04879e-05
4.56165e-06
-9.80462e-06
1.82199e-05
-3.07344e-05
-3.74716e-06
1.07554e-05
9.91868e-06
1.82379e-05
-4.43038e-06
-1.21372e-05
1.77171e-06
0.000383405
-1.50284e-05
-9.54045e-06
-8.78315e-06
-6.10229e-06
1.77314e-07
2.87124e-06
2.62096e-07
-1.30927e-05
7.30411e-10
0.000182643
-9.83535e-06
-1.50369e-05
-1.09501e-05
-2.95343e-06
-7.17603e-06
-9.0021e-06
-4.59915e-05
-1.64981e-05
9.54788e-07
4.41659e-05
-2.74154e-05
8.82511e-06
3.27154e-06
1.52615e-05
-4.71596e-05
-1.14575e-05
7.90297e-06
5.24858e-05
-2.87689e-05
-3.04756e-07
-2.92643e-06
-7.33273e-07
3.27341e-05
-9.38159e-06
-6.95274e-06
4.49988e-06
1.18153e-05
-8.96041e-07
-3.74882e-07
2.94995e-07
9.46576e-07
-1.71454e-06
-1.20666e-06
1.63821e-06
1.26945e-06
-7.95136e-06
8.84785e-06
-4.22716e-05
-1.12361e-05
1.52509e-05
3.73602e-05
-2.30632e-06
-1.58476e-05
-6.35895e-07
5.49371e-06
1.32825e-06
1.19679e-05
-4.52239e-05
-6.30198e-06
3.39809e-06
6.37114e-06
4.74841e-05
-5.72742e-06
-4.91627e-06
-1.30769e-05
-4.3613e-05
1.31085e-05
1.696e-06
4.68017e-05
5.83242e-06
3.9568e-06
8.5028e-05
-9.56102e-06
-2.56597e-06
-6.68365e-06
-1.51351e-06
-6.08032e-06
-8.01656e-06
-8.17269e-06
-1.04003e-05
4.05887e-06
-7.22119e-06
0.000134946
-9.91677e-07
-4.46019e-06
1.48833e-07
-3.11376e-06
2.01107e-07
-1.33015e-05
0.000229817
-2.56447e-06
1.01131e-06
2.40898e-07
-1.3857e-07
-3.52483e-07
6.53229e-07
8.20024e-07
-5.34414e-05
7.80256e-06
2.82828e-06
-1.7979e-05
6.09907e-05
7.96051e-08
-6.08878e-09
1.84411e-08
-1.01279e-07
-2.27293e-06
-1.04692e-07
1.55661e-06
8.03405e-07
-9.04678e-06
-1.59323e-05
-2.54804e-06
6.138e-06
6.75435e-06
1.46348e-05
-1.42078e-05
3.00682e-06
0.000175365
-1.68034e-06
-2.24971e-06
-4.15218e-07
1.4979e-06
-1.24667e-05
-1.2732e-05
0.000234328
-2.76635e-06
-2.63866e-06
0.000176285
1.0105e-06
-4.20667e-06
-2.15782e-06
-1.04438e-06
-2.64936e-06
-2.72906e-06
-1.6906e-05
3.50306e-06
-1.22363e-06
-1.3666e-06
1.32268e-05
-7.60082e-09
1.69894e-07
-9.70723e-09
-1.83495e-08
-1.47274e-07
-1.04947e-05
-6.59195e-07
3.80682e-06
3.16476e-06
8.9737e-06
-4.7914e-06
-1.0708e-05
3.39934e-06
0.00039662
-5.63147e-06
-3.32883e-06
-3.56407e-07
-8.31088e-07
-3.38103e-07
5.65582e-06
1.92983e-06
-9.18903e-06
-5.01869e-06
0.000188312
-5.84837e-06
-2.42141e-06
-1.42308e-06
-3.3752e-06
-2.96786e-06
1.13519e-06
-3.66457e-05
-5.15706e-06
9.48886e-07
2.90262e-05
-9.30135e-06
2.46879e-06
-7.36148e-07
7.39288e-06
-5.78195e-05
-1.01559e-05
1.00338e-05
6.13388e-05
-3.00938e-05
-5.03272e-06
5.09301e-06
-3.73387e-06
2.87487e-05
-1.29897e-05
2.73966e-06
-4.00929e-07
1.06535e-05
-7.861e-07
-1.70238e-07
2.87162e-07
6.39198e-07
-2.09346e-06
-1.0011e-06
-2.00662e-07
3.26145e-06
-4.31703e-07
1.71202e-06
-2.74732e-05
3.41402e-07
3.48604e-06
2.23654e-05
-8.47878e-07
-1.33804e-05
-2.16798e-06
1.88943e-06
1.81272e-07
1.43256e-05
-4.86248e-05
-1.82412e-06
3.67084e-07
2.10308e-06
4.86385e-05
-6.59674e-07
-2.5638e-06
-5.83401e-06
-4.5639e-05
1.07705e-05
2.04533e-06
4.1221e-05
7.3693e-06
-7.65774e-07
0.000119935
-3.9727e-06
-3.06844e-07
-2.60968e-06
8.73678e-08
-9.79472e-06
-9.76827e-06
-8.26364e-06
-6.88234e-06
-2.31944e-06
-1.57e-05
0.000153242
1.9584e-06
-1.14389e-06
4.61247e-06
1.66535e-06
2.078e-06
-1.15949e-05
0.000226896
-3.11335e-07
1.3332e-06
2.02586e-06
1.5114e-06
-1.22761e-07
3.83163e-06
1.85089e-06
-6.7394e-05
1.60804e-05
8.24823e-06
-2.9421e-06
4.80855e-05
1.59489e-07
7.88795e-07
1.5149e-06
-2.91259e-06
3.4297e-07
1.0644e-07
-7.93326e-07
-5.88922e-07
7.90639e-07
5.5225e-07
-2.04658e-06
-1.21843e-05
-3.28029e-06
8.61667e-08
4.17677e-06
1.32482e-05
-2.15455e-05
-6.00704e-06
0.000179471
3.42538e-06
5.64813e-06
5.50088e-06
8.10639e-06
-8.61509e-06
-1.13631e-05
0.000217061
-2.64332e-06
-3.49803e-06
0.000170354
-1.39453e-06
-1.36206e-06
-5.68005e-07
-1.21608e-06
-2.47746e-06
-1.11892e-06
-1.15646e-05
-7.07881e-07
-3.24445e-06
1.43567e-06
1.14379e-05
1.65526e-06
-6.99262e-07
2.16734e-06
-1.75244e-06
2.61326e-07
-1.63222e-06
-1.16384e-05
-2.59035e-06
-2.81075e-07
1.23378e-06
1.52997e-05
-2.02368e-06
-7.05702e-06
4.409e-06
0.000377303
1.10136e-06
-1.3642e-07
5.83635e-06
2.13139e-06
8.14424e-07
4.55696e-06
1.65467e-06
-1.28379e-06
-2.49597e-06
0.000171405
3.02106e-07
5.9977e-07
1.46958e-06
5.3766e-07
-1.51111e-06
8.68179e-07
-2.5245e-05
-1.77711e-07
-3.04006e-06
2.3681e-05
-7.80545e-06
-4.4739e-06
1.50886e-07
7.05321e-07
1.14232e-05
4.5195e-07
5.50466e-07
-1.98249e-07
-8.04167e-07
-6.54972e-05
-6.62231e-06
9.38609e-06
6.71411e-05
-2.90243e-05
-4.80423e-06
4.14474e-06
-2.62199e-06
2.98098e-05
-7.95378e-06
3.99931e-06
-2.71257e-06
6.66716e-06
-6.19735e-07
-1.66449e-07
2.29862e-07
5.57725e-07
-5.2581e-06
1.9459e-07
-2.46365e-06
7.52414e-06
-3.93119e-07
5.44324e-07
-2.17227e-05
-1.98248e-06
1.25329e-06
2.23007e-05
1.36465e-06
-1.71411e-05
6.99755e-08
-1.27866e-06
-3.79032e-06
2.07755e-05
-4.84134e-05
-2.00768e-07
-1.9458e-06
3.84613e-09
4.70371e-05
3.51907e-06
-1.02452e-07
-1.38163e-06
-3.28503e-05
2.94181e-06
3.80047e-06
2.75921e-05
4.90231e-06
-8.25232e-07
0.00013292
-1.93308e-06
8.21297e-07
-1.33416e-06
1.54258e-06
-4.18495e-06
-5.06923e-06
-3.42204e-06
-3.48223e-06
-5.39903e-06
-1.38968e-05
0.000161749
4.85112e-06
1.26957e-06
6.32364e-06
3.24687e-06
3.35796e-06
-1.5116e-05
0.000220751
1.07512e-06
1.58434e-06
2.79069e-06
1.87555e-06
1.09056e-06
2.52673e-06
1.56071e-06
-4.6099e-05
1.03884e-06
4.66667e-06
2.54966e-07
4.34964e-05
-1.80753e-06
-3.00568e-06
-3.50161e-06
1.58712e-06
2.87572e-06
3.85199e-06
9.36654e-08
1.73733e-06
-2.07515e-06
2.43196e-07
1.04429e-06
-1.6926e-05
-3.69288e-06
-2.51715e-06
2.78646e-06
1.93052e-05
-2.02271e-05
-8.18961e-06
0.000181559
4.3578e-06
7.72871e-06
4.98061e-06
8.43644e-06
-8.58145e-06
-1.13193e-05
0.000202838
-4.00544e-07
-3.85763e-06
0.000159065
2.13049e-07
3.793e-07
3.07737e-07
-2.68795e-06
-3.18613e-06
-3.17644e-06
-1.16938e-05
-2.95109e-06
-1.08503e-06
2.3166e-06
1.30128e-05
8.49349e-07
-2.34593e-06
1.63055e-06
-1.07137e-06
1.64111e-06
-7.03709e-07
-2.0085e-05
-9.12924e-07
-4.28953e-06
-1.63758e-07
2.5867e-05
-4.15854e-07
-1.01423e-05
3.34423e-06
0.000351888
5.5532e-06
2.89412e-06
7.90921e-06
3.74346e-06
4.04229e-07
2.94728e-06
5.71663e-07
-5.97794e-07
-1.50467e-06
0.000149402
1.1305e-06
4.1937e-07
1.56731e-06
2.82591e-07
-1.18593e-06
4.30378e-07
-2.42232e-05
3.64828e-07
-3.46356e-06
2.28665e-05
-1.32673e-05
-1.26922e-06
7.75708e-07
-3.83323e-07
1.41441e-05
1.11623e-06
-1.13433e-06
-1.21353e-07
5.09902e-07
-3.70449e-07
-6.87434e-05
-4.5842e-06
7.55135e-06
6.91205e-05
-3.18709e-05
-4.29983e-06
3.56268e-06
-2.77637e-06
3.38798e-05
-6.76148e-06
2.65943e-06
-2.73291e-06
6.83496e-06
-6.89967e-07
1.24643e-06
-1.92774e-06
1.37127e-06
-8.46777e-06
-1.5611e-06
1.84805e-06
8.17787e-06
1.04471e-07
3.00647e-06
-2.24059e-05
-3.99632e-06
2.01918e-07
2.30894e-05
4.62831e-06
-2.42104e-05
3.63319e-06
-4.71204e-06
-6.3021e-06
2.69631e-05
-4.55551e-05
1.50941e-06
-3.46024e-06
-2.20596e-06
4.41389e-05
5.57294e-06
-2.76835e-06
-2.3315e-06
-2.53969e-05
4.10892e-06
2.43358e-06
2.39542e-05
1.46293e-06
-2.53729e-06
0.000144546
-8.88474e-07
1.92685e-06
-4.18284e-07
2.48908e-06
-3.29175e-06
-3.96639e-06
-3.28449e-06
-3.11852e-06
-1.14137e-05
-1.59807e-05
0.000171472
5.47965e-06
2.8952e-06
6.38529e-06
4.37434e-06
1.55181e-06
-1.67043e-05
0.000215715
2.68317e-06
2.97065e-06
4.10295e-06
1.67754e-06
3.5326e-07
-1.80367e-06
-1.20881e-06
-5.23677e-05
3.63287e-06
5.47186e-06
3.34945e-07
4.44798e-05
-6.77676e-06
-5.21735e-06
3.88295e-06
4.15881e-06
3.95235e-06
-7.86587e-07
3.21788e-06
-3.94023e-06
1.50894e-06
4.11938e-06
-2.12075e-05
-2.72489e-06
-4.61165e-06
1.53831e-06
2.28864e-05
-1.85445e-05
-1.03272e-05
0.000182571
4.74294e-06
7.04362e-06
6.02671e-06
7.50921e-06
-8.96644e-06
-7.87273e-06
0.000185152
-1.5948e-07
-4.48725e-06
0.000154568
-1.47008e-07
-1.97797e-06
-2.25895e-06
-3.79776e-06
-3.60511e-06
-4.74051e-06
-1.44617e-05
-1.67393e-06
-5.68937e-07
1.6351e-06
1.491e-05
5.19579e-07
-4.55913e-06
1.29545e-06
-4.09554e-07
2.93981e-06
2.13842e-07
-3.19582e-05
3.05929e-06
-7.40237e-06
-1.72554e-06
3.71506e-05
8.76186e-07
-1.12187e-05
2.74208e-06
0.00032394
6.2925e-06
4.10334e-06
7.93744e-06
4.68289e-06
5.3671e-08
2.58116e-06
4.45867e-07
-6.44413e-07
-5.90915e-07
0.000126516
1.5686e-06
3.23598e-07
1.83681e-06
6.64086e-07
-2.37075e-07
8.74078e-07
-2.30884e-05
4.19071e-07
-3.63117e-06
2.11689e-05
-1.27422e-05
-3.13366e-06
2.97808e-07
1.55781e-05
-6.91391e-05
-3.39557e-06
6.6218e-06
6.8655e-05
-3.59738e-05
-3.97125e-06
3.62752e-06
-2.48586e-06
3.82125e-05
-7.2299e-06
2.23328e-06
-2.63938e-06
7.64015e-06
-2.31841e-06
1.73514e-06
-2.69483e-06
3.27811e-06
-6.68187e-06
-1.92007e-06
3.5891e-06
5.01295e-06
3.22564e-07
4.46035e-06
-2.42038e-05
-5.10527e-06
-8.87705e-07
2.54138e-05
5.4489e-06
-2.91571e-05
5.05318e-06
-5.61902e-06
-6.49624e-06
3.07703e-05
-4.27586e-05
1.56786e-06
-2.0308e-06
-2.91918e-06
4.12224e-05
4.91832e-06
-2.49871e-06
-6.77438e-07
-2.22562e-05
3.13538e-06
1.37528e-06
2.09217e-05
-7.60843e-07
-3.78508e-06
0.000152882
3.74826e-07
2.49724e-06
8.06606e-07
3.00119e-06
-3.07493e-06
-3.26724e-06
-2.3315e-06
-1.79594e-06
-1.29267e-05
-1.57598e-05
0.000179485
5.32627e-06
3.45051e-06
6.29517e-06
4.8409e-06
-3.53795e-06
-1.49056e-05
0.000215062
3.00107e-06
1.68823e-06
4.525e-06
2.48363e-06
-2.27908e-06
-1.7889e-06
-1.46007e-06
-3.81748e-05
-2.46875e-06
1.24245e-06
3.58633e-05
-2.52225e-06
3.64877e-06
-4.89783e-06
3.7713e-06
6.40536e-06
-2.40938e-05
-2.23915e-08
-6.09563e-06
-6.11505e-07
2.4418e-05
-1.39921e-05
-1.16081e-05
0.000182705
4.68058e-06
5.52651e-06
5.40233e-06
6.07133e-06
-5.50544e-06
-4.76444e-06
0.00016567
-3.22927e-06
-4.11403e-06
0.000159845
-3.0176e-06
-2.4293e-06
-1.89268e-06
-4.50686e-06
-2.87288e-06
-3.62531e-06
-2.03373e-05
-1.44228e-06
-4.90547e-06
2.56821e-06
2.08876e-05
-4.11796e-05
4.16165e-06
-7.555e-06
-2.28988e-06
4.48171e-05
2.04579e-06
-7.41879e-06
2.463e-06
0.000292176
5.91786e-06
4.19264e-06
7.28369e-06
4.56528e-06
7.70165e-08
2.40537e-06
6.70752e-07
3.97739e-07
-3.51116e-08
0.00010593
2.18972e-06
1.41397e-06
2.27521e-06
1.01182e-06
1.65623e-07
9.83178e-07
-2.05301e-05
7.56179e-07
-2.92621e-06
1.89839e-05
-1.67055e-05
7.94125e-07
8.03821e-07
1.51076e-05
-6.80643e-05
-2.71871e-06
6.1343e-06
6.71117e-05
-4.07066e-05
-3.97272e-06
3.72151e-06
-2.53222e-06
4.34549e-05
-7.9985e-06
3.09699e-06
-3.32851e-06
8.23003e-06
-4.21189e-06
1.69747e-06
-2.48918e-06
5.00361e-06
-4.49761e-06
-2.75944e-06
2.43627e-06
4.8119e-06
7.87506e-07
5.05373e-06
-2.64943e-05
-5.13385e-06
-1.54526e-06
2.73322e-05
5.04863e-06
-3.22998e-05
5.10317e-06
-5.28923e-06
-6.15128e-06
3.35886e-05
-3.98948e-05
1.55455e-06
-1.40902e-06
-2.30668e-06
3.8197e-05
3.85889e-06
-1.9105e-06
-1.0608e-06
-2.09381e-05
2.03436e-06
1.49554e-07
2.17255e-05
-2.72244e-06
-3.12957e-06
0.000155217
1.4102e-06
2.37713e-06
1.69896e-06
2.87777e-06
-1.57449e-06
-1.84755e-06
-1.02526e-06
-4.00097e-07
-1.10712e-05
-1.3034e-05
0.000181878
4.85578e-06
3.55965e-06
5.92095e-06
4.65282e-06
-7.69523e-07
-1.27182e-05
0.000206516
2.74415e-06
2.2701e-06
3.4139e-06
2.30627e-06
1.18685e-07
-4.35776e-07
5.45225e-07
-3.31136e-05
-4.81097e-07
1.77052e-06
3.10548e-05
-4.94254e-06
3.53815e-06
-4.40879e-06
5.81317e-06
4.86168e-06
-2.42681e-05
1.3084e-06
-5.11504e-06
-1.26807e-06
2.44811e-05
-9.21739e-06
-8.74772e-06
0.000180156
3.6742e-06
4.07506e-06
4.81935e-06
4.81577e-06
-2.31531e-06
-4.16108e-06
0.000149895
-1.3822e-06
-3.49299e-06
0.000160571
-1.1407e-06
-8.83804e-07
-9.10156e-07
-2.97424e-06
-2.69533e-06
-2.2802e-06
-2.02998e-05
-8.67094e-07
-1.98833e-06
1.65087e-06
2.01222e-05
-4.78637e-05
4.37553e-06
-6.84854e-06
-2.14497e-06
4.98461e-05
2.63554e-06
-3.9907e-06
2.67879e-06
0.000260308
5.06653e-06
3.96808e-06
6.20207e-06
4.02636e-06
7.92112e-07
2.79284e-06
1.58337e-06
9.57478e-07
-4.60751e-07
9.12868e-05
2.31923e-06
1.65641e-06
2.17214e-06
3.80149e-07
-2.6522e-07
-2.67917e-07
-1.90396e-05
8.66361e-07
-2.77734e-06
1.84151e-05
-1.53777e-05
-2.86107e-07
-9.13978e-09
1.56729e-05
-6.61456e-05
-2.64759e-06
6.30323e-06
6.51688e-05
-4.64355e-05
-4.80856e-06
5.2117e-06
-2.85756e-06
4.84292e-05
-8.45974e-06
3.86558e-06
-4.19696e-06
8.79182e-06
-5.66808e-06
1.5146e-06
-2.03895e-06
6.19243e-06
-5.64235e-06
-3.88729e-06
2.62259e-06
6.90705e-06
6.84257e-07
5.54961e-06
-2.7988e-05
-4.91171e-06
-1.67566e-06
2.83415e-05
4.35455e-06
-3.47925e-05
4.60256e-06
-4.20535e-06
-5.68846e-06
3.57292e-05
-3.65609e-05
8.3591e-07
-1.31971e-06
-9.18789e-07
3.509e-05
2.87349e-06
-1.54938e-06
-1.09659e-06
-2.32911e-05
1.45896e-06
-7.86925e-07
2.5265e-05
-2.8782e-06
-2.74835e-06
0.000153219
1.88451e-06
2.12085e-06
1.94753e-06
2.79216e-06
-6.1024e-07
-5.95627e-07
-1.29417e-07
2.14864e-07
-8.78704e-06
-1.08776e-05
0.000180616
4.57979e-06
3.26758e-06
5.71744e-06
4.48395e-06
-2.01448e-07
-1.16377e-05
0.000198902
1.93259e-06
2.17357e-06
3.09492e-06
2.46416e-06
4.67824e-07
-8.3003e-08
6.16253e-07
-2.94265e-05
-4.71684e-07
1.57802e-06
2.81187e-05
-6.44477e-06
2.71942e-06
-3.19931e-06
6.92465e-06
3.00828e-06
-2.491e-05
1.65483e-06
-3.93719e-06
-1.13287e-06
2.53169e-05
-6.8505e-06
-6.09698e-06
0.000176559
2.96153e-06
3.0058e-06
3.82562e-06
4.00324e-06
-2.59496e-06
-5.23936e-06
0.000140001
-7.93113e-07
-3.54716e-06
0.000159551
-1.32053e-06
-3.86979e-07
-1.89402e-06
-1.57823e-06
-2.67009e-06
-1.02273e-06
-2.04105e-05
8.36281e-08
-1.57864e-06
5.89867e-07
2.05226e-05
-5.09946e-05
3.80684e-06
-5.98171e-06
-1.19709e-06
5.17443e-05
2.62231e-06
-1.11548e-06
2.98184e-06
0.000230719
3.73946e-06
2.91422e-06
5.00313e-06
3.19125e-06
1.64063e-06
3.0753e-06
2.06254e-06
7.98079e-07
-1.03418e-06
8.5766e-05
1.67003e-06
1.12526e-06
1.17403e-06
-1.48035e-06
-9.20107e-07
-2.16674e-06
-1.94768e-05
3.25426e-07
-3.35351e-06
1.97558e-05
-1.588e-05
-2.79845e-07
1.46885e-07
1.6013e-05
-6.42993e-05
-3.05655e-06
6.82505e-06
6.35127e-05
-5.04216e-05
-5.7569e-06
7.00686e-06
-3.27992e-06
5.14174e-05
-9.04747e-06
4.68853e-06
-4.92287e-06
9.2818e-06
-6.65832e-06
1.46052e-06
-1.90219e-06
7.1e-06
-8.17896e-06
-2.66859e-06
1.48302e-06
9.36453e-06
4.1138e-07
5.17853e-06
-2.84717e-05
-4.54368e-06
-1.16905e-06
2.85945e-05
3.67989e-06
-3.6593e-05
3.8901e-06
-2.92056e-06
-5.18151e-06
3.71251e-05
-3.43649e-05
8.82631e-07
-1.47378e-06
-1.38363e-06
3.44907e-05
1.84896e-06
-1.20364e-07
-4.88936e-07
-2.7242e-05
6.13173e-07
-1.91399e-06
2.91521e-05
-1.82347e-06
-3.00229e-06
0.000150331
1.87667e-06
1.99522e-06
1.61498e-06
2.66631e-06
1.3744e-07
-8.43935e-07
3.8442e-07
-1.17377e-07
-6.25107e-06
-1.02611e-05
0.000177396
4.37176e-06
3.25354e-06
5.51924e-06
4.76437e-06
4.37596e-07
-1.26502e-05
0.000189113
2.36554e-06
3.08863e-06
4.04168e-06
3.54121e-06
9.89987e-07
5.28666e-07
1.19484e-06
-2.70647e-05
-2.74404e-07
1.207e-06
2.65699e-05
-7.38034e-06
1.51613e-06
-2.02083e-06
7.88504e-06
1.85276e-06
-2.60124e-05
1.5619e-06
-2.74262e-06
-1.49862e-06
2.68389e-05
-6.23624e-06
-7.19407e-06
0.000174723
2.25238e-06
2.74631e-06
3.3569e-06
3.90835e-06
-4.12196e-06
-7.45854e-06
0.000135084
-3.61551e-07
-3.07198e-06
0.000153973
-2.45166e-06
-5.7363e-09
-2.01619e-06
-1.0238e-06
-1.39154e-06
-8.70945e-07
-2.07613e-05
1.29579e-07
-1.25148e-06
3.21247e-07
2.12004e-05
-5.27667e-05
2.2904e-06
-4.97866e-06
-6.67472e-07
5.35031e-05
2.6193e-06
-2.52131e-07
2.61715e-06
0.000203544
3.00986e-06
2.53376e-06
4.47003e-06
2.42601e-06
1.20242e-06
2.56467e-06
1.40919e-06
-4.51797e-07
-1.66733e-06
8.81814e-05
6.31249e-07
-9.72688e-07
2.94864e-07
-2.92828e-06
-1.60407e-06
-3.42806e-06
-2.154e-05
-5.59745e-07
-2.79721e-06
2.13732e-05
-1.61921e-05
-3.45569e-07
3.66963e-07
1.61707e-05
-6.29477e-05
-3.19942e-06
6.70919e-06
6.20551e-05
-5.217e-05
-5.90816e-06
8.0881e-06
-3.4595e-06
5.17822e-05
-9.43575e-06
4.79943e-06
-4.92616e-06
9.56248e-06
-7.51376e-06
1.46817e-06
-1.82236e-06
7.86796e-06
-1.05924e-05
-7.80348e-07
-4.97369e-07
1.18701e-05
1.16077e-07
3.77886e-06
-2.87433e-05
-4.1176e-06
-2.1629e-07
2.91822e-05
2.87374e-06
-3.75881e-05
3.44617e-06
-2.23815e-06
-4.31324e-06
3.78196e-05
-3.58651e-05
2.18852e-06
-2.25854e-06
-3.55135e-06
3.78847e-05
1.60178e-06
8.80497e-07
3.16652e-07
-3.10629e-05
-3.6408e-07
-2.70177e-06
3.29316e-05
5.18174e-07
-3.53925e-06
0.000147298
1.21287e-06
1.70432e-06
8.97166e-07
2.35457e-06
1.61945e-07
-7.92154e-07
3.65222e-07
1.50146e-07
-3.79231e-06
-1.06464e-05
0.00017492
3.9539e-06
3.55075e-06
5.02753e-06
4.90096e-06
9.08445e-07
-1.64518e-05
0.000179215
3.91743e-06
4.03543e-06
5.57924e-06
4.22752e-06
1.37251e-06
9.62024e-07
1.55501e-06
-2.61367e-05
-1.02029e-07
1.1106e-06
2.60366e-05
-8.38466e-06
7.03084e-07
-1.15816e-06
8.83974e-06
1.44371e-06
-2.79483e-05
2.44768e-06
-2.35804e-06
-2.6667e-06
2.90816e-05
-7.14159e-06
-1.01439e-05
0.000174964
2.35318e-06
2.90303e-06
3.82401e-06
4.42537e-06
-6.55982e-06
-1.02226e-05
0.000134079
1.57619e-07
-2.47892e-06
0.000140321
-1.43338e-06
6.13761e-07
-8.32296e-07
-1.75028e-06
-1.78372e-06
-1.85267e-06
-2.25429e-05
-4.18953e-07
-1.32404e-06
2.04941e-07
2.42386e-05
-5.40605e-05
1.39872e-06
-4.30634e-06
-1.7662e-07
5.42839e-05
2.86084e-06
-1.52864e-06
1.67723e-06
0.000181328
3.00822e-06
1.61093e-06
4.31903e-06
1.54416e-06
7.7941e-08
1.44333e-06
-8.09168e-08
-2.69727e-06
-2.2933e-06
9.47879e-05
-3.74932e-07
-2.07564e-06
-5.3113e-07
-3.86466e-06
-2.46454e-06
-4.05632e-06
-2.20889e-05
-2.18759e-06
-1.71859e-06
2.08188e-05
-1.5806e-05
5.96891e-07
5.73062e-07
1.4636e-05
-6.13247e-05
-3.03107e-06
5.67014e-06
6.03629e-05
-5.096e-05
-5.07183e-06
8.36364e-06
-3.46453e-06
4.88394e-05
-9.85864e-06
4.15119e-06
-4.50511e-06
1.02126e-05
-8.20016e-06
1.44303e-06
-1.71048e-06
8.46762e-06
-1.30461e-05
8.89397e-07
-1.7651e-06
1.39218e-05
8.19528e-08
2.13323e-06
-2.98284e-05
-3.55193e-06
5.58052e-07
3.06071e-05
2.12078e-06
-3.81926e-05
3.15649e-06
-2.20049e-06
-3.32985e-06
3.84457e-05
-3.97828e-05
3.8526e-06
-2.38244e-06
-4.63751e-06
4.11122e-05
1.83801e-06
1.44801e-06
1.67043e-06
-3.43102e-05
-1.21673e-06
-2.24444e-06
3.46529e-05
3.98727e-06
-2.91157e-06
0.00014453
1.57273e-07
8.01888e-07
-1.21829e-08
1.4141e-06
-5.91489e-08
-6.50179e-07
-5.05251e-08
9.13515e-08
-1.16605e-06
-9.82333e-06
0.000174508
3.25433e-06
3.31572e-06
4.30056e-06
4.51741e-06
1.03388e-06
-1.69047e-05
0.000170872
4.8925e-06
4.26433e-06
6.09611e-06
4.44209e-06
1.35976e-06
8.15626e-07
1.17695e-06
-2.5902e-05
-3.13721e-08
1.2368e-06
2.57308e-05
-9.27045e-06
1.26742e-07
-5.55075e-07
9.69879e-06
1.34471e-06
-3.04755e-05
3.08278e-06
-2.51275e-06
-3.55002e-06
3.21108e-05
-7.97753e-06
-1.28605e-05
0.000178852
2.80105e-06
3.19323e-06
3.78057e-06
4.26335e-06
-9.3273e-06
-1.17166e-05
0.000137322
1.7556e-07
-2.96004e-06
0.000123631
-8.68876e-07
-1.87967e-07
-8.55817e-07
-1.46939e-06
-2.66001e-06
-7.1591e-07
-2.61006e-05
-1.3602e-06
-1.25489e-06
1.89499e-06
2.69962e-05
-5.45627e-05
6.51929e-07
-3.68078e-06
4.29451e-07
5.42658e-05
2.89624e-06
-2.88784e-06
6.45951e-07
0.000165503
2.54484e-06
1.2472e-06
3.25961e-06
1.12088e-06
-1.60141e-06
6.53102e-07
-2.01793e-06
-2.84495e-06
-3.00309e-06
0.000100982
-7.94848e-07
-1.80025e-06
-5.73039e-07
-4.33723e-06
-3.13928e-06
-4.30616e-06
-2.14446e-05
-2.53073e-06
-2.56332e-06
2.07337e-05
-1.25723e-05
-2.27799e-07
1.76324e-06
1.10368e-05
-6.0007e-05
-2.8262e-06
3.88645e-06
5.95927e-05
-4.6221e-05
-3.89876e-06
7.49676e-06
-3.76039e-06
4.33803e-05
-1.04838e-05
3.47028e-06
-3.6287e-06
1.06422e-05
-8.69756e-06
1.44624e-06
-1.67758e-06
8.9289e-06
-1.43424e-05
1.6805e-06
-1.62965e-06
1.42915e-05
1.38804e-07
1.06309e-06
-3.14316e-05
-2.88199e-06
7.91132e-07
3.23206e-05
1.43203e-06
-3.88944e-05
2.73443e-06
-2.0531e-06
-2.39183e-06
3.91729e-05
-4.23432e-05
4.15164e-06
-2.26592e-06
-4.86692e-06
4.34513e-05
1.87311e-06
1.25173e-06
2.95923e-06
-3.38224e-05
-1.25732e-06
-1.09795e-06
3.19667e-05
8.06574e-06
-1.88615e-06
0.000142877
-4.41735e-07
-1.6524e-07
-3.03775e-07
5.13908e-07
-1.46746e-06
-8.42396e-07
-1.81733e-06
-2.81947e-09
1.42633e-06
-7.802e-06
0.000176779
2.37625e-06
2.69577e-06
3.46292e-06
3.63536e-06
3.3207e-07
-1.34435e-05
0.000165122
4.89321e-06
4.24035e-06
5.98948e-06
4.20468e-06
2.30321e-07
4.47905e-07
2.81756e-07
-2.54508e-05
5.82277e-08
1.27354e-06
2.44511e-05
-1.00289e-05
-4.39481e-07
2.81281e-07
1.01871e-05
8.41412e-07
-3.40083e-05
3.17121e-06
-1.73432e-06
-3.99469e-06
3.57247e-05
-7.52394e-06
-1.48889e-05
0.000189154
1.99222e-06
2.22731e-06
2.92282e-06
3.08313e-06
-1.07917e-05
-1.20757e-05
0.000144863
-1.31496e-06
-3.47858e-06
0.0001127
-1.86007e-06
-1.78571e-06
-2.34026e-06
6.21449e-08
-2.74491e-06
1.58958e-07
-2.68861e-05
-2.54984e-06
-2.21351e-06
4.67799e-06
2.56565e-05
-5.33709e-05
-3.25878e-07
-2.13122e-06
9.2594e-07
5.18109e-05
3.09117e-06
-2.15589e-06
2.27939e-07
0.000158767
1.14775e-06
-2.57216e-07
1.79051e-06
-8.1168e-07
-3.50226e-06
-6.68121e-07
-3.92399e-06
-2.4675e-06
-3.64911e-06
0.00010791
-7.24942e-07
-1.58247e-06
-6.87054e-07