/*--------------------------------*- C++ -*----------------------------------*\
| =========                 |                                                 |
| \\      /  F ield         | OpenFOAM: The Open Source CFD Toolbox           |
|  \\    /   O peration     | Version:  5.x                                   |
|   \\  /    A nd           | Web:      www.OpenFOAM.org                      |
|    \\/     M anipulation  |                                                 |
\*---------------------------------------------------------------------------*/
FoamFile
{
    version     2.0;
    format      ascii;
    class       volVectorField;
    location    "5";
    object      U;
}
// * * * * * * * * * * * * * * * * * * * * * * * * * * * * * * * * * * * * * //

dimensions      [0 1 -1 0 0 0 0];

internalField   nonuniform List<vector> 
10571
(
(0.122198 0.163497 2.06909)
(0.123243 0.0290601 0.518328)
(1.51881 0.340163 3.09899)
(0.462111 0.617127 2.0874)
(0.0277129 -0.132087 2.80473)
(0.331997 0.222714 1.48456)
(1.94917 0.132791 3.21697)
(0.264154 0.983717 2.84068)
(-0.804357 0.236734 1.83908)
(-0.349358 -1.02882 1.90436)
(0.262399 0.380575 2.3463)
(1.0625 0.283968 2.7913)
(0.11468 0.604288 2.55849)
(0.590621 -0.477093 2.88717)
(-0.727379 0.654935 2.46952)
(-0.456013 0.385971 0.992755)
(0.386624 -0.267287 1.07978)
(0.89878 -0.195496 2.93803)
(-0.201029 0.355753 3.45778)
(-0.374074 -0.0462537 2.70363)
(-0.363614 0.244025 1.54088)
(0.468162 -0.211795 1.52791)
(-0.280976 0.547482 2.69018)
(-0.175539 0.291368 3.10377)
(0.100658 0.134676 0.798391)
(-0.326605 0.0115471 0.989723)
(-0.47293 0.406363 1.52592)
(0.117028 0.780732 1.75466)
(-0.470603 -0.153919 2.45245)
(-0.144296 -0.0675996 1.1455)
(-0.236711 0.591642 2.24309)
(0.64734 1.34869 4.26261)
(0.114786 0.139036 0.716883)
(-0.07416 0.249872 0.729491)
(0.207478 0.0314251 0.750367)
(0.982534 1.31555 3.84479)
(-0.413658 0.500897 2.94551)
(0.719735 1.8762 4.39399)
(1.3373 1.50891 4.47961)
(0.0542145 0.0533125 0.663603)
(-0.302134 -0.124107 0.613085)
(-0.606522 0.1207 5.00399)
(0.643201 0.301779 2.94199)
(0.219908 -0.0223388 2.53576)
(-0.0832192 0.149275 0.756018)
(-0.442727 0.0415703 1.27707)
(0.175615 0.174707 2.61383)
(0.549786 -0.729351 2.06799)
(-0.1771 -0.00669694 0.740546)
(0.101548 0.261291 1.65472)
(-0.460649 -0.0424651 1.62183)
(-0.828074 0.177731 2.05057)
(-0.204891 0.381136 2.07236)
(-0.292101 -0.0785759 0.832294)
(-0.559226 0.122998 1.90768)
(1.08335 0.0695159 2.7632)
(0.358997 0.0524279 0.735169)
(-0.0654292 0.448516 1.05222)
(-0.0482681 -0.236509 0.4255)
(-1.79274 1.12982 4.96502)
(-0.340868 0.301913 1.48199)
(0.106683 0.450993 2.34869)
(1.37159 -0.285958 3.17329)
(0.618407 -0.729519 1.31642)
(-0.0856508 1.12933 1.48286)
(-0.542459 0.086182 1.21687)
(-0.0761558 0.0346318 1.58739)
(1.3702 -0.134415 4.68619)
(0.243163 -0.105901 1.44969)
(-0.957974 -0.21077 1.62902)
(-0.0835098 -0.658087 2.0545)
(0.455574 -0.25919 1.28988)
(0.109486 0.0891788 0.683513)
(-0.268472 0.207194 1.31634)
(-0.309416 -0.372354 1.47374)
(0.146641 -0.784291 1.8226)
(0.227604 0.0340324 1.30166)
(-0.42811 -0.222733 1.02938)
(-0.1631 0.167703 1.12053)
(0.523863 0.20588 1.79113)
(1.21876 -0.679005 2.39608)
(-0.0588362 -0.18781 1.32889)
(-0.524473 -0.437015 1.22826)
(-1.13126 0.225318 2.94931)
(0.0634383 0.583733 1.73395)
(-0.0901421 0.181905 1.68268)
(0.0692305 -0.594793 2.4189)
(0.531171 -1.48394 2.05518)
(1.88436 2.75759 3.00376)
(-0.370591 0.672965 4.67983)
(-0.356267 0.0275675 1.78521)
(-0.137022 0.196518 2.59828)
(0.82355 -1.03929 3.64201)
(0.122125 0.206351 2.82814)
(-0.417239 0.0787846 1.17813)
(0.139235 -0.173876 1.89569)
(0.0906744 0.0633533 0.211157)
(0.0686581 0.204027 1.16907)
(-0.203307 -0.0322843 1.63532)
(0.36794 -1.50847 2.53387)
(0.789389 0.620684 1.35125)
(0.137188 0.073611 1.61401)
(-0.0395039 0.035106 0.806187)
(0.147668 0.227015 1.93717)
(0.657243 -0.33088 2.66757)
(-0.397643 -1.40625 2.46956)
(0.141392 0.0435373 1.70785)
(-0.0475093 0.0475768 1.01682)
(0.215869 0.317409 2.52267)
(-0.33979 0.162227 3.65607)
(-0.648884 -0.701256 3.04546)
(0.0571318 -0.737119 1.03702)
(0.576138 0.369787 1.45619)
(-0.0385868 0.307269 4.28991)
(-0.569148 -0.535983 2.71858)
(-1.63057 -0.136938 2.77269)
(-0.181834 -0.894313 2.60186)
(0.869713 -0.000149501 2.32937)
(-0.0807183 0.257815 1.0293)
(-0.428006 0.386997 1.31181)
(0.0732886 -0.0161435 0.20413)
(0.0133558 -0.00391454 0.134512)
(-1.21482 1.1112 1.99939)
(0.328178 0.142558 0.560546)
(0.440405 0.539549 1.91047)
(1.50716 0.330626 2.0275)
(0.182948 0.159603 0.840534)
(-0.0359953 -0.0264753 1.62556)
(0.192326 -0.144128 2.39511)
(-0.310735 -0.724012 2.84264)
(-0.0102333 0.00647507 -0.0053565)
(0.0299373 0.0599039 0.206716)
(0.831654 0.371348 0.757665)
(-0.152262 -0.0451959 1.60208)
(-0.268697 -0.153269 2.23603)
(-0.319613 -0.450108 2.25418)
(-0.251054 -0.205954 0.776708)
(-0.0021144 -0.000615674 -0.00299916)
(-0.114081 -0.0987112 0.322347)
(-0.197933 0.199017 3.9799)
(-0.277157 -0.362898 1.88336)
(-0.903198 -0.0339905 1.41753)
(0.0709605 -0.0999093 0.865131)
(0.967946 0.157146 3.0946)
(0.494114 -0.338569 1.19447)
(-0.00178087 -0.32251 1.10579)
(0.0704376 0.00188178 0.197055)
(-0.021058 -0.0658801 0.230401)
(-0.124048 0.10464 1.14971)
(0.214111 0.125145 0.569241)
(0.101672 0.231153 1.93695)
(0.993021 0.252855 2.07049)
(0.414369 0.221797 1.21644)
(-0.181639 -0.27546 1.46518)
(0.120136 -0.158867 2.50493)
(0.214218 -0.264874 2.55113)
(-0.341322 0.0175833 0.00995722)
(0.00363021 0.140506 0.220839)
(0.152722 0.346347 0.583692)
(-0.442104 -0.259704 1.74109)
(-0.253381 -0.218642 2.25723)
(-0.105264 -0.299746 1.89868)
(-0.205131 0.193769 0.474846)
(-0.0991723 0.0502359 -0.11855)
(-0.0641593 -0.171461 0.490871)
(-0.323813 0.103029 4.04908)
(0.0142603 -0.229754 1.87903)
(-0.134282 -0.221049 1.07567)
(-0.041357 0.178768 0.62335)
(-0.0818835 -0.0106339 -0.0472833)
(0.750194 0.350737 3.30973)
(0.453343 -0.111588 1.12809)
(0.264245 -0.207319 0.630066)
(0.064367 0.0115146 0.081845)
(-0.0243993 -0.147717 0.477352)
(-0.145606 0.0614007 0.978801)
(0.081615 -0.136468 0.821238)
(-0.158354 0.106364 1.9006)
(0.161344 0.207514 1.21673)
(0.313327 0.210673 1.25998)
(-0.165548 -0.258862 1.55694)
(0.00819349 -0.205446 2.53528)
(0.306411 -0.0119195 2.31514)
(0.232679 0.186198 0.153437)
(-0.016409 -0.197607 -0.0127296)
(0.0238323 0.277611 0.803498)
(-0.451532 -0.246538 1.86922)
(-0.250718 -0.22192 2.21087)
(-0.0483891 -0.334606 1.7821)
(-0.0345789 0.306991 0.576694)
(-0.0822331 0.122103 -0.0384363)
(-0.207974 -0.190044 0.895469)
(-0.404676 -0.0264777 3.94759)
(0.00423571 -0.193238 1.78045)
(-0.0214862 -0.215924 1.04344)
(-0.0912181 0.163549 0.855335)
(0.0478946 0.0598602 -0.0563103)
(0.569313 0.373467 3.47161)
(0.3798 -0.0110062 1.29814)
(0.266602 -0.0350534 0.613676)
(-0.054518 -0.0634234 0.134596)
(-0.014526 0.0913876 0.643778)
(-0.245844 0.00103486 1.00596)
(-0.254161 -0.388174 1.13007)
(-0.294056 -0.058872 1.78793)
(0.31676 0.207041 1.10178)
(0.244733 0.161048 1.45449)
(-0.189179 -0.283052 1.73709)
(-0.125498 -0.273554 2.45076)
(0.195935 0.0206301 2.06509)
(0.47607 0.208071 0.278092)
(-0.0720542 -0.31939 0.146887)
(-0.202536 0.214173 0.976505)
(-0.427429 -0.249834 1.86536)
(-0.219165 -0.241942 2.06675)
(-0.0737835 -0.362887 1.71716)
(0.00337331 0.162118 0.75185)
(-0.0653032 0.234837 -0.022731)
(-0.46779 -0.263739 1.41306)
(-0.403912 -0.0885773 3.67589)
(-0.0379406 -0.0630586 1.47632)
(0.00477576 -0.270375 0.968677)
(-0.114278 0.0579661 1.03533)
(0.467843 0.329807 3.49175)
(0.365659 0.0103478 1.47549)
(0.263937 -0.033778 0.662232)
(-0.117393 -0.0795204 0.39396)
(-0.00221463 0.235675 0.427949)
(-0.348061 -0.053936 1.11717)
(-0.377765 -0.441932 1.32157)
(-0.216067 -0.106363 1.63785)
(0.220239 0.17653 0.905591)
(0.171157 0.103512 1.48358)
(-0.183551 -0.309035 1.79797)
(-0.154369 -0.264005 2.29361)
(0.0280282 0.0503301 1.78613)
(-0.130508 -0.355733 0.452164)
(-0.413718 0.00432339 1.10959)
(-0.367395 -0.234814 1.84119)
(-0.113268 -0.206637 1.76517)
(-0.0448646 -0.318025 1.68022)
(-0.211241 0.159605 0.762343)
(-0.526401 -0.29204 1.68993)
(-0.339882 -0.128669 3.22016)
(0.0464245 0.0205848 1.22629)
(0.0776446 -0.216846 0.856229)
(-0.0533957 0.0589227 1.30082)
(0.414023 0.294435 3.4063)
(0.345009 0.0189996 1.65016)
(0.346167 -0.116719 0.738652)
(-0.120909 -0.0700459 0.657158)
(-0.0656308 0.139816 0.343495)
(-0.381842 -0.0828996 1.18523)
(-0.400329 -0.427382 1.44811)
(-0.145303 -0.0551693 1.51484)
(0.173954 0.119952 0.946349)
(0.0881897 0.0564143 1.53747)
(-0.177841 -0.299437 1.81004)
(-0.161071 -0.218306 2.20282)
(0.0398403 0.0968811 1.61933)
(-0.132474 -0.34663 0.771599)
(-0.350751 -0.0804911 1.08262)
(-0.267735 -0.161104 1.82003)
(-0.0553375 -0.127649 1.56629)
(-0.0215702 -0.266612 1.70008)
(-0.0820374 0.0713515 0.796029)
(-0.535108 -0.310585 1.92274)
(-0.271745 -0.107687 2.881)
(0.105626 -0.033059 1.00986)
(0.100518 -0.18092 0.798497)
(-0.0189241 -0.00828875 1.39745)
(0.415501 0.296578 3.30892)
(0.445345 0.00715489 1.87953)
(0.412359 -0.174723 0.782386)
(-0.112579 -0.0542709 0.846985)
(-0.144516 0.139314 0.477736)
(-0.391129 -0.0733211 1.24409)
(-0.366156 -0.387109 1.5533)
(-0.148256 0.0564739 1.38451)
(0.175139 0.0464194 1.08092)
(0.0572141 0.00688609 1.56179)
(-0.15064 -0.287136 1.82594)
(-0.142443 -0.205733 2.14695)
(0.050986 0.136698 1.44483)
(-0.109363 -0.282449 0.958204)
(-0.257942 -0.0668726 1.10744)
(-0.196574 -0.0988761 1.79514)
(-0.0453443 -0.0744889 1.45419)
(-0.0530969 -0.22856 1.69649)
(-0.0476587 -0.018523 0.801291)
(-0.486146 -0.277424 2.01054)
(-0.156725 -0.0833858 2.59019)
(0.103817 -0.120982 0.916756)
(0.0800487 -0.217136 0.837619)
(0.00528077 0.00199433 1.45248)
(0.447133 0.31129 3.22009)
(0.557316 0.00331723 2.0199)
(0.464011 -0.242426 0.841832)
(-0.122808 -0.0569264 0.986022)
(-0.0471476 0.0542538 0.633587)
(-0.386391 -0.0189544 1.25545)
(-0.295691 -0.348839 1.62728)
(-0.135068 0.0151499 1.33572)
(0.119999 -0.106197 1.23678)
(0.0640537 -0.0335773 1.52597)
(-0.121037 -0.265941 1.80007)
(-0.0842572 -0.240169 2.07636)
(0.081614 0.134809 1.35119)
(-0.076809 -0.134054 1.09533)
(-0.162496 -0.0824579 1.15697)
(-0.170985 -0.0699271 1.765)
(-0.0516532 -0.0904467 1.39229)
(-0.0941606 -0.240645 1.68207)
(0.011934 0.0269359 0.822637)
(-0.379165 -0.250078 2.08363)
(-0.0664745 -0.15321 2.28274)
(0.0504289 -0.183172 0.906458)
(-0.0239557 -0.162849 0.963915)
(0.00270726 0.0758066 1.47409)
(0.443147 0.310637 3.15878)
(0.606507 -0.0162999 2.04888)
(0.432944 -0.28466 0.858463)
(-0.140209 -0.0593778 1.1014)
(0.0583257 -0.0876752 0.81923)
(-0.323127 0.0499589 1.2678)
(-0.231826 -0.273458 1.65936)
(-0.147636 -0.167968 1.44178)
(0.0186871 -0.175884 1.40017)
(0.101768 -0.0449031 1.47918)
(-0.0796208 -0.233804 1.77667)
(-0.0347743 -0.316747 1.93274)
(0.104951 0.131245 1.32115)
(-0.052564 0.00435091 1.23446)
(-0.125006 -0.187714 1.24851)
(-0.163981 -0.0729098 1.75596)
(-0.0950349 -0.145607 1.35954)
(-0.130774 -0.313377 1.5892)
(0.0839221 0.133792 0.93963)
(-0.301219 -0.216874 2.12124)
(-0.0572278 -0.269018 1.99924)
(-0.0130254 -0.224675 0.964016)
(-0.21945 -0.0711201 0.923576)
(-0.0119711 -0.00607842 1.42913)
(0.399882 0.284951 3.0649)
(0.589999 -0.0499886 1.97979)
(0.369711 -0.265885 0.910127)
(-0.153009 -0.0544313 1.19573)
(0.108965 -0.144671 0.987432)
(-0.247398 0.0735492 1.32346)
(-0.204241 -0.192033 1.68468)
(-0.15259 -0.27675 1.59253)
(-0.0776398 -0.164166 1.53326)
(0.170297 0.000299875 1.45097)
(-0.0248154 -0.180976 1.74083)
(-0.00522176 -0.359998 1.82976)
(0.104602 0.133547 1.2992)
(-0.029262 0.0655135 1.35736)
(-0.109664 -0.303978 1.3698)
(-0.152315 -0.0918096 1.76716)
(-0.134461 -0.171711 1.36575)
(-0.186921 -0.286419 1.36971)
(0.120701 0.238529 1.05967)
(-0.240228 -0.183076 2.13592)
(-0.057239 -0.360126 1.80351)
(-0.0490988 -0.245736 1.03425)
(-0.221851 -0.131626 0.904512)
(-0.0856958 0.000693799 1.03765)
(0.346327 0.232458 3.01436)
(0.536071 -0.117065 1.7538)
(0.276544 -0.180911 0.957709)
(-0.17311 -0.0502493 1.2595)
(0.115188 -0.0902508 1.04854)
(-0.194442 0.0683611 1.39793)
(-0.177865 -0.120411 1.71361)
(-0.144747 -0.28839 1.67288)
(-0.176286 -0.0643353 1.44827)
(0.246034 0.0595026 1.43356)
(0.0416875 -0.11318 1.75867)
(0.0120977 -0.354658 1.76369)
(0.0274517 0.123997 1.25795)
(0.0014465 0.118552 1.45169)
(-0.0599172 -0.357777 1.5332)
(-0.120345 -0.118439 1.8323)
(-0.145405 -0.170204 1.40838)
(-0.234125 -0.165361 1.22188)
(-0.00133511 0.360603 1.03887)
(-0.127946 -0.183955 2.05483)
(-0.0160579 -0.412366 1.69876)
(-0.0575627 -0.25176 1.09307)
(-0.179449 -0.234614 0.931821)
(-0.136108 0.237119 0.94422)
(0.211682 0.216896 2.99032)
(0.471159 -0.189525 1.56767)
(0.197652 -0.117128 0.966552)
(-0.175446 -0.039279 1.33235)
(0.00672636 -0.0172322 1.02257)
(-0.0532026 0.0339916 1.48667)
(-0.125683 -0.0454718 1.75303)
(-0.146501 -0.284249 1.75606)
(-0.190536 0.0617785 1.28756)
(0.297177 0.0812061 1.40808)
(0.101769 -0.0303813 1.7781)
(-0.00371341 -0.312078 1.72585)
(0.0271311 0.202682 1.06976)
(-0.0159092 0.211638 1.51432)
(-0.11599 -0.324862 1.68214)
(-0.0506586 -0.116848 1.97971)
(-0.109248 -0.143138 1.51135)
(-0.224949 -0.124211 1.15272)
(-0.107381 0.424115 0.938057)
(-0.0765152 -0.16947 1.97127)
(0.0490412 -0.404934 1.66592)
(-0.021906 -0.224683 1.17708)
(-0.175031 -0.247976 0.961438)
(-0.15087 0.247624 0.947809)
(0.149843 -0.0581997 2.72315)
(0.367609 -0.197975 1.45956)
(0.162182 -0.0942736 0.988463)
(-0.154222 -0.0175442 1.40322)
(-0.0650946 -0.0527366 1.06374)
(0.144644 -0.028078 1.57573)
(-0.0755378 0.0245349 1.80789)
(-0.12742 -0.238253 1.78472)
(-0.150435 -0.0327389 1.24429)
(0.327823 0.0442713 1.3863)
(0.147001 0.024425 1.83395)
(-0.0447314 -0.180912 1.65855)
(-0.00815502 0.300579 0.825937)
(-0.00287516 0.254008 1.71124)
(-0.153149 -0.24297 1.84207)
(0.0675208 -0.0846908 2.02255)
(0.0689317 -0.0845036 1.65189)
(-0.194079 -0.129555 1.15781)
(-0.081995 0.26729 0.896015)
(-0.0779807 -0.165111 1.99623)
(0.15068 -0.265788 1.67459)
(0.0699506 -0.146191 1.25453)
(-0.135193 -0.226607 0.959051)
(-0.0847424 0.054451 0.815749)
(0.266198 -0.284274 1.84687)
(0.212167 -0.169247 1.35169)
(0.144239 -0.0757029 0.996005)
(-0.157619 -0.01178 1.52089)
(0.0315234 -0.153039 1.19201)
(0.2209 -0.0181927 1.65164)
(-0.0639777 0.081301 1.8707)
(-0.148868 -0.208165 1.82217)
(-0.0313918 -0.343783 1.21765)
(0.359202 -0.0313586 1.41976)
(0.153925 0.0480494 1.93049)
(-0.0651257 -0.0381186 1.6861)
(-0.0346371 0.124823 0.742191)
(-0.0347528 0.191139 1.83198)
(0.097132 -0.300704 1.78816)
(0.235769 -0.0804245 1.98235)
(0.268424 -0.0501124 1.78415)
(-0.0781306 -0.10359 1.25453)
(-0.0228747 0.0821691 0.942134)
(-0.00929027 -0.0940292 2.13188)
(0.237062 -0.106358 1.67991)
(0.153057 -0.0812628 1.35458)
(-0.0170507 -0.216682 0.98212)
(-0.0291214 0.0346388 0.619057)
(0.0750385 -0.0959997 1.45169)
(0.142411 -0.0694701 1.25457)
(0.140238 -0.0809186 0.950379)
(-0.207615 -0.0214037 1.65429)
(0.160982 -0.231255 1.33057)
(0.217815 0.047137 1.76322)
(-0.0696733 0.0982645 1.9408)
(-0.171502 -0.164536 1.7954)
(0.133252 -0.366785 1.18907)
(0.342008 -0.0349402 1.49606)
(0.115263 0.063772 2.02487)
(-0.0216437 0.0288959 1.67567)
(-0.0189223 -0.0658522 0.749488)
(-0.0898349 -0.162408 1.86771)
(0.341874 -0.349652 1.29767)
(0.316355 -0.0965534 2.01213)
(0.353293 -0.0587789 1.90702)
(0.0499725 -0.0527919 1.39209)
(0.0255438 -0.019954 0.967256)
(0.212251 -0.0723924 2.05389)
(0.238531 -0.0660108 1.67896)
(0.183022 -0.0647034 1.39264)
(0.0860001 -0.193397 1.04317)
(0.0144421 0.0378246 0.611028)
(-0.0405023 0.00126237 1.29199)
(-0.0237192 -0.03369 1.20989)
(0.172682 -0.0836361 0.809154)
(-0.283375 -0.0412783 1.77616)
(0.224308 -0.29757 1.45344)
(0.182957 0.0927671 1.90126)
(-0.0876243 0.0975515 2.01399)
(-0.127112 -0.0760947 1.59465)
(0.248747 -0.31951 1.15457)
(0.279166 0.0118031 1.62507)
(0.0852416 0.0618855 2.102)
(-0.00467699 0.0414862 1.73198)
(-0.0186692 -0.197325 0.795003)
(-0.0885615 -0.160186 1.6508)
(0.157953 -0.313045 1.0615)
(0.304678 -0.117086 2.06342)
(0.345024 -0.0897937 2.00772)
(0.116263 -0.0421774 1.57537)
(0.0393392 -0.104408 1.00259)
(0.0847609 -0.277546 1.6398)
(0.186768 -0.0783949 1.66497)
(0.186007 -0.0647865 1.39364)
(0.14137 -0.136862 1.1554)
(0.0522849 -0.0549025 0.646849)
(-0.183094 -0.000538814 1.2567)
(-0.0516131 -0.0968347 1.02076)
(0.152978 -0.0602807 0.764277)
(-0.317018 -0.0438387 1.83902)
(0.225339 -0.315331 1.61232)
(0.143922 0.115637 2.05696)
(-0.105735 0.115875 2.09881)
(-0.12223 -0.0667014 1.42185)
(0.250735 -0.360343 1.15235)
(0.234848 0.0261664 1.75011)
(0.0675026 0.0263964 2.17517)
(0.0379762 0.0343606 1.77022)
(0.000339632 -0.217323 0.853932)
(0.0189526 -0.0469615 1.60049)
(0.0784062 -0.366554 0.981426)
(0.246405 -0.155295 2.07259)
(0.31642 -0.121456 2.07774)
(0.144792 -0.0415182 1.70226)
(0.0747449 -0.132799 1.03915)
(-0.185717 -0.327096 1.3137)
(0.0612192 -0.139883 1.51008)
(0.171551 -0.0677813 1.3789)
(0.152256 -0.0805851 1.27181)
(0.0885649 -0.122586 0.615643)
(-0.235519 -0.00422021 1.20967)
(-0.000433391 -0.0961959 0.847697)
(0.0278745 0.0174947 0.758421)
(-0.307249 -0.0477069 1.8797)
(0.161534 -0.265471 1.80511)
(0.0866028 0.109284 2.19315)
(-0.116851 0.103756 2.17201)
(-0.150432 -0.081467 1.30578)
(0.122416 -0.384913 1.2225)
(0.207375 -0.00740691 1.86166)
(0.0437429 -0.028279 2.25034)
(0.0800054 -0.00817186 1.77194)
(0.0336068 -0.130814 0.960801)
(0.0432495 -0.322963 0.962555)
(0.0633034 -0.418622 0.99659)
(0.199869 -0.195926 2.03103)
(0.286277 -0.145491 2.11018)
(0.174435 -0.0634344 1.80257)
(0.110674 -0.098776 1.09539)
(-0.258847 -0.340449 1.17296)
(-0.0783909 -0.174891 1.27407)
(0.0790587 -0.0623112 1.35411)
(0.0562986 -0.0694908 1.36223)
(0.0864317 -0.10111 0.600527)
(-0.171666 -0.0554345 1.0677)
(-0.0682988 -0.0719419 0.774884)
(-0.0812241 0.057962 0.736721)
(-0.199256 0.00159675 1.95854)
(0.057281 -0.183231 1.97566)
(0.0313051 0.0921931 2.2815)
(-0.113822 0.0334573 2.21637)
(-0.132669 -0.0777351 1.22727)
(0.031517 -0.328141 1.34383)
(0.16886 -0.043132 1.95083)
(0.0170287 -0.0757196 2.30353)
(0.116356 -0.12917 1.75035)
(0.060699 -0.0447973 1.07292)
(-0.0271767 -0.390719 0.838324)
(0.0723952 -0.4183 0.974945)
(0.185574 -0.223773 1.98767)
(0.264769 -0.152331 2.1061)
(0.203838 -0.140927 1.83956)
(0.159949 -0.0739533 1.161)
(-0.239053 -0.333689 1.0691)
(-0.170053 -0.149073 1.13961)
(-0.113341 -0.0364308 1.26758)
(0.00952669 -0.0535694 1.30488)
(0.00340285 0.0737229 0.703271)
(-0.160675 -0.106507 0.89444)
(-0.148932 -0.0497368 0.728976)
(-0.119247 0.0831142 0.683027)
(-0.0078509 0.0462292 1.85814)
(-0.0385128 -0.112201 2.12752)
(-0.0106398 0.059372 2.31114)
(-0.0737161 -0.040978 2.24282)
(-0.0992894 -0.0914839 1.25846)
(-0.0223886 -0.194307 1.50952)
(0.129646 -0.0472868 2.00432)
(0.00904263 -0.10883 2.31405)
(0.121721 -0.25122 1.72252)
(0.0835742 0.0130927 1.20475)
(-0.0375516 -0.320315 0.82498)
(0.106472 -0.379366 0.929517)
(0.153584 -0.225396 1.94422)
(0.261985 -0.147385 2.07795)
(0.226109 -0.209492 1.7782)
(0.172203 -0.0786719 1.22259)
(-0.225346 -0.312136 0.996724)
(-0.221182 -0.109936 1.06567)
(-0.215902 -0.00139488 1.13598)
(0.0276017 0.0348038 1.10597)
(-0.0419171 0.200618 0.837498)
(-0.203314 -0.115316 0.772881)
(-0.204013 -0.0183163 0.693089)
(-0.136672 0.0789337 0.600854)
(0.120009 0.019197 1.7234)
(-0.0786262 -0.0520958 2.26204)
(-0.0602021 0.0105866 2.31922)
(-0.0170104 -0.0812837 2.28248)
(-0.0410863 -0.1083 1.38828)
(-0.0794268 -0.0595875 1.67402)
(0.117246 -0.0357026 2.01856)
(0.0304914 -0.143102 2.29461)
(0.0937457 -0.297412 1.70836)
(0.0841343 0.055226 1.34254)
(-0.03515 -0.275715 0.850056)
(0.130152 -0.339374 0.904161)
(0.0959013 -0.197584 1.90864)
(0.249467 -0.127986 1.9878)
(0.196462 -0.208431 1.64584)
(0.156991 -0.0276401 1.28435)
(-0.222276 -0.294859 0.947913)
(-0.239077 -0.0933528 1.0312)
(-0.276079 0.0524702 1.01529)
(-0.0716322 0.114372 0.941227)
(-0.0788777 0.304381 0.932671)
(-0.238842 -0.0995385 0.708266)
(-0.232846 0.0238319 0.662762)
(-0.181286 0.0932189 0.514248)
(0.14656 -0.00186348 1.69983)
(-0.0895703 0.00238427 2.38684)
(-0.100699 -0.0213225 2.30975)
(0.0243202 -0.118748 2.3067)
(0.0216353 -0.0971946 1.54274)
(-0.125874 -0.0222408 1.78585)
(0.119514 -0.0287205 2.01405)
(0.0890262 -0.210108 2.25895)
(0.0677868 -0.289252 1.70949)
(0.08855 0.120942 1.43847)
(-0.0390946 -0.272005 0.934557)
(0.144909 -0.330185 0.91331)
(0.0560266 -0.164283 1.88303)
(0.177523 -0.0910535 1.87064)
(0.030359 -0.0817202 1.4443)
(0.0949623 0.100935 1.32851)
(-0.208226 -0.27852 0.91652)
(-0.244465 -0.0791041 1.02565)
(-0.333753 0.0928867 0.94182)
(-0.200881 0.157922 0.827998)
(-0.145097 0.405494 0.954399)
(-0.268867 -0.0816543 0.680291)
(-0.256727 0.0479644 0.649212)
(-0.237311 0.120567 0.472314)
(0.131154 -0.0215079 1.76905)
(-0.108351 0.051053 2.49122)
(-0.0953045 -0.0329651 2.29331)
(0.0393946 -0.158438 2.30383)
(0.0957311 -0.0690826 1.69425)
(-0.146333 -0.0404743 1.90778)
(0.124884 -0.0349382 1.99673)
(0.168404 -0.244137 2.21687)
(0.0511906 -0.233292 1.71505)
(0.125093 0.216194 1.48538)
(-0.0408472 -0.2943 1.06143)
(0.161485 -0.327725 0.935288)
(0.051657 -0.142573 1.87674)
(0.0877475 -0.0467114 1.79589)
(-0.127158 0.0921151 1.27091)
(0.0132095 0.275137 1.27701)
(-0.21155 -0.276631 0.892747)
(-0.253258 -0.0621187 1.03665)
(-0.376282 0.121217 0.915655)
(-0.305288 0.177324 0.769755)
(-0.23541 0.505595 0.888838)
(-0.299569 -0.0715867 0.671405)
(-0.277482 0.058488 0.650386)
(-0.288709 0.150159 0.474288)
(0.118814 -0.0184488 1.85878)
(-0.168294 0.0982042 2.58234)
(-0.0837278 -0.0194646 2.2701)
(0.0420824 -0.160785 2.29796)
(0.159305 -0.0433495 1.82546)
(-0.11683 -0.00286365 2.07898)
(0.154743 -0.0849399 1.97676)
(0.276098 -0.208682 2.15268)
(0.0955527 -0.104125 1.71622)
(0.177532 0.310465 1.48859)
(-0.0332038 -0.301431 1.17719)
(0.192807 -0.312949 0.96985)
(0.0795452 -0.124676 1.87653)
(0.039116 -0.0124885 1.76402)
(-0.161599 0.231957 1.17032)
(-0.0157939 0.460368 1.16795)
(-0.229351 -0.297518 0.871772)
(-0.269385 -0.0300898 1.05035)
(-0.389948 0.157719 0.917712)
(-0.345343 0.199261 0.765193)
(-0.298084 0.57605 0.799684)
(-0.330545 -0.0679462 0.670097)
(-0.292077 0.0661119 0.660563)
(-0.31968 0.169523 0.502977)
(0.1018 -0.0203388 1.89069)
(-0.203795 0.146872 2.61007)
(-0.107317 -0.00128313 2.25088)
(0.041475 -0.129592 2.27017)
(0.199671 0.00259127 1.91255)
(-0.0608504 0.0884474 2.23229)
(0.197472 -0.136037 1.94233)
(0.360144 -0.147977 2.08799)
(0.165104 0.0319299 1.71297)
(0.23346 0.401745 1.45358)
(-0.0273227 -0.296683 1.27166)
(0.211593 -0.306061 0.986761)
(0.109284 -0.114049 1.84932)
(0.03453 0.015887 1.73392)
(-0.117041 0.343351 1.13769)
(-0.0387427 0.591435 1.08879)
(-0.250009 -0.318186 0.86244)
(-0.293314 0.0297003 1.05726)
(-0.385194 0.213724 0.928885)
(-0.332429 0.260943 0.793074)
(-0.316118 0.598487 0.751455)
(-0.354094 -0.0688061 0.685265)
(-0.304172 0.0812663 0.683021)
(-0.337968 0.185592 0.551566)
(0.0973074 -0.0178719 1.87496)
(-0.237193 0.198109 2.58064)
(-0.143724 -0.00266758 2.24898)
(0.0244307 -0.0257517 2.22138)
(0.192841 0.0391001 1.93982)
(-0.00981989 0.150418 2.38877)
(0.201974 -0.130504 1.90546)
(0.365862 -0.114914 2.03907)
(0.164645 0.170562 1.69958)
(0.231526 0.500459 1.3935)
(-0.0427816 -0.249443 1.39801)
(0.215327 -0.28485 0.969261)
(0.0961547 -0.116762 1.82004)
(0.0509758 0.0778711 1.68468)
(-0.0687778 0.441615 1.15038)
(-0.0542996 0.654426 1.05881)
(-0.267813 -0.324405 0.8626)
(-0.310723 0.0917251 1.06082)
(-0.36927 0.276859 0.943727)
(-0.297536 0.359795 0.840495)
(-0.306792 0.608569 0.756389)
(-0.364845 -0.0711316 0.730991)
(-0.313051 0.107208 0.730924)
(-0.350017 0.205107 0.639835)
(0.0158497 -0.00557439 1.77917)
(-0.26401 0.228873 2.52436)
(-0.184928 -0.0156738 2.20412)
(0.0262241 0.0534781 2.15176)
(0.168187 0.159816 1.90669)
(0.0333429 0.197239 2.51373)
(0.204515 -0.0968606 1.89666)
(0.31852 -0.0779596 2.00111)
(0.115776 0.311133 1.68998)
(0.173739 0.538754 1.3092)
(-0.00738478 -0.111531 1.53422)
(0.250025 -0.200174 0.956968)
(0.0365532 -0.0886878 1.78957)
(0.0578579 0.231838 1.59709)
(-0.0462093 0.535442 1.17941)
(-0.04613 0.690588 1.06261)
(-0.284511 -0.313693 0.867757)
(-0.311548 0.156822 1.07811)
(-0.342152 0.329309 0.977289)
(-0.274397 0.456545 0.907729)
(-0.285147 0.610851 0.84214)
(-0.355012 -0.073787 0.808521)
(-0.310834 0.143744 0.817262)
(-0.348099 0.213665 0.777)
(-0.108137 -0.0205541 1.54108)
(-0.277853 0.264097 2.43048)
(-0.222777 0.0444646 2.18542)
(-0.068491 0.185882 2.15832)
(0.0576413 0.296991 1.61058)
(0.0830244 0.235539 2.58463)
(0.206201 -0.0134329 1.90521)
(0.272912 0.0301542 1.99866)
(0.120526 0.419204 1.66258)
(0.169326 0.459923 1.20352)
(0.0617351 -0.015265 1.32009)
(0.256103 -0.107091 1.00053)
(-0.0690544 0.0837907 1.73756)
(0.010275 0.407234 1.49719)
(-0.0522172 0.600827 1.20382)
(-0.0456852 0.686465 1.09021)
(-0.300054 -0.262017 0.918278)
(-0.298974 0.240105 1.12948)
(-0.302717 0.367541 1.04714)
(-0.249503 0.501409 1.01063)
(-0.258001 0.611807 0.99899)
(-0.325215 -0.057117 0.923212)
(-0.291034 0.18244 0.944496)
(-0.325509 0.205224 0.964027)
(0.0917378 -0.00185408 1.27795)
(-0.255494 0.256196 2.28989)
(-0.230469 0.101149 2.1248)
(-0.0456176 0.265094 2.083)
(0.127851 0.152606 1.26568)
(0.146357 0.270304 2.60226)
(0.13138 0.181271 1.87634)
(0.141562 0.286865 1.97241)
(0.165669 0.484693 1.53791)
(0.216389 0.41006 1.10365)
(0.0321443 -0.0659471 1.10219)
(0.197347 0.00354376 1.10582)
(-0.206888 0.346426 1.66966)
(-0.0788927 0.52069 1.40377)
(-0.0838311 0.609304 1.22381)
(-0.051218 0.663486 1.12256)
(-0.308654 -0.184752 1.02941)
(-0.276197 0.321592 1.24113)
(-0.251265 0.395809 1.1559)
(-0.23398 0.480176 1.14775)
(-0.240677 0.587375 1.21336)
(-0.287015 -0.0123331 1.08963)
(-0.256546 0.202841 1.10948)
(-0.283591 0.183477 1.18247)
(0.0330954 0.0254639 1.10404)
(-0.253238 0.211859 2.24019)
(-0.30473 0.0847517 2.05316)
(0.0515272 0.174231 1.76612)
(0.176668 0.042284 1.09741)
(0.126084 0.315035 2.55764)
(-0.121343 0.443864 1.85389)
(-0.0439022 0.42946 1.81729)
(0.154399 0.47979 1.31192)
(0.226412 0.42975 1.0802)
(-0.0172639 -0.15481 1.10777)
(0.093794 0.128027 1.23248)
(-0.290433 0.465231 1.69295)
(-0.140059 0.524411 1.35867)
(-0.131417 0.55237 1.24191)
(-0.0254478 0.636091 1.14106)
(-0.30071 -0.111525 1.19194)
(-0.240837 0.353885 1.39481)
(-0.205064 0.388022 1.28723)
(-0.235564 0.404119 1.30145)
(-0.228349 0.539852 1.44282)
(-0.251087 0.0253752 1.30422)
(-0.220493 0.200941 1.30125)
(-0.23272 0.155613 1.39387)
(-0.168663 0.0136906 0.963503)
(-0.240099 0.198187 2.28243)
(-0.37934 0.238706 1.83249)
(-0.101147 0.0812781 1.3008)
(0.116588 0.0373947 1.02217)
(0.0617756 0.339056 2.43281)
(-0.341048 0.460213 1.96158)
(-0.134119 0.320222 1.58044)
(0.0767539 0.410611 1.09835)
(0.204874 0.432751 1.04394)
(-0.0378912 -0.13468 1.25809)
(-0.000362609 0.183842 1.37053)
(-0.312322 0.457861 1.73591)
(-0.150738 0.440323 1.35237)
(-0.168297 0.456121 1.24941)
(-0.0157304 0.595072 1.15277)
(-0.275279 -0.0705247 1.38769)
(-0.196326 0.303105 1.56374)
(-0.183812 0.320342 1.41697)
(-0.234385 0.331268 1.45073)
(-0.209343 0.472209 1.63471)
(-0.228209 0.0274967 1.52952)
(-0.201875 0.172982 1.49155)
(-0.20099 0.135111 1.5662)
(-0.175259 0.0173554 0.695509)
(-0.21695 0.184669 2.40693)
(-0.373133 0.239914 1.70202)
(-0.249435 0.120872 1.00177)
(0.113198 0.102936 0.9007)
(0.0129735 0.245122 2.37103)
(-0.411245 0.245111 2.08027)
(-0.031514 0.108485 1.36948)
(0.061894 0.316205 0.946997)
(0.166172 0.403626 0.966378)
(-0.0244732 -0.0935491 1.4783)
(-0.0327437 0.158905 1.53603)
(-0.260863 0.325185 1.77408)
(-0.0910272 0.234495 1.29786)
(-0.189438 0.391267 1.25714)
(-0.0150852 0.518418 1.1565)
(-0.246015 -0.114574 1.58879)
(-0.161092 0.187787 1.71057)
(-0.185873 0.254461 1.5171)
(-0.231372 0.300771 1.55184)
(-0.176311 0.347856 1.78119)
(-0.234779 0.0157926 1.71986)
(-0.209893 0.142181 1.64199)
(-0.196903 0.125573 1.69214)
(0.0540181 0.0141311 0.496634)
(-0.214273 0.180653 2.54175)
(-0.407369 -0.090463 1.71358)
(-0.0580186 0.0981718 0.816962)
(0.203504 0.13176 0.787715)
(0.0550303 0.188952 2.41269)
(-0.203794 -0.112728 2.09336)
(0.200913 0.0136332 1.2043)
(0.137899 0.248233 0.882405)
(0.163937 0.372491 0.909568)
(-0.0417854 -0.120622 1.69037)
(-0.121529 0.0526002 1.69806)
(-0.0344815 0.0117066 1.7384)
(0.0226938 0.0948939 1.24988)
(-0.18166 0.353058 1.27867)
(-0.0137365 0.462168 1.18848)
(-0.218511 -0.199353 1.72886)
(-0.154203 0.0373165 1.76762)
(-0.1851 0.236904 1.56131)
(-0.222414 0.312046 1.60056)
(-0.136008 0.21444 1.84918)
(-0.263874 -0.0157753 1.85442)
(-0.238659 0.11328 1.74464)
(-0.203663 0.128608 1.77299)
(0.311397 0.000395805 0.518914)
(-0.0879146 0.0748081 2.63435)
(-0.217695 -0.36742 1.77579)
(0.336898 -0.00472104 0.758024)
(0.320164 0.155636 0.763146)
(0.146454 -0.0342492 2.40377)
(0.25569 -0.162034 1.92964)
(0.424321 0.0800446 1.10141)
(0.247597 0.228535 0.898988)
(0.199213 0.345228 0.922898)
(-0.0433295 -0.0650355 1.98502)
(-0.120421 -0.117731 1.7618)
(0.133666 -0.116492 1.65077)
(0.1589 0.0885865 1.24562)
(-0.12664 0.3114 1.31714)
(0.0104193 0.442448 1.28137)
(-0.162844 -0.242314 1.81549)
(-0.128973 -0.126645 1.74093)
(-0.157689 0.231196 1.57049)
(-0.200506 0.325701 1.62657)
(-0.09468 0.144876 1.87332)
(-0.279266 -0.0469119 1.924)
(-0.274222 0.100671 1.80592)
(-0.208179 0.137835 1.82907)
(0.420627 0.00418869 0.737751)
(0.137689 -0.0918681 2.51911)
(0.402681 -0.397599 1.74009)
(0.600528 -0.0520097 0.865814)
(0.38078 0.181751 0.828552)
(0.267699 -0.0918049 2.21983)
(0.609236 0.0829906 1.64668)
(0.517928 0.177041 1.0844)
(0.321047 0.222417 0.979886)
(0.248087 0.309169 1.03164)
(0.00694261 0.0581076 2.19726)
(-0.0599029 -0.091765 1.75878)
(0.247804 -0.0534065 1.62324)
(0.286899 0.167696 1.29995)
(-0.0317236 0.266608 1.39598)
(0.0367195 0.412175 1.43206)
(-0.0792261 -0.15515 1.90968)
(-0.0424095 -0.240842 1.70655)
(-0.0999451 0.194793 1.58734)
(-0.162099 0.320976 1.65932)
(-0.062442 0.125004 1.91578)
(-0.270307 -0.0609768 1.9281)
(-0.284384 0.105746 1.85339)
(-0.20697 0.147327 1.87756)
(0.393647 0.0161359 0.964681)
(0.190918 -0.131411 2.01502)
(0.732034 -0.166214 1.56537)
(0.547934 -0.0585132 1.06945)
(0.375479 0.196357 0.894163)
(0.298868 0.212325 1.75407)
(0.665789 0.250419 1.44403)
(0.496445 0.200266 1.11057)
(0.332168 0.182005 1.09514)