/*--------------------------------*- C++ -*----------------------------------*\
| =========                 |                                                 |
| \\      /  F ield         | OpenFOAM: The Open Source CFD Toolbox           |
|  \\    /   O peration     | Version:  5.x                                   |
|   \\  /    A nd           | Web:      www.OpenFOAM.org                      |
|    \\/     M anipulation  |                                                 |
\*---------------------------------------------------------------------------*/
FoamFile
{
    version     2.0;
    format      ascii;
    class       volVectorField;
    location    "5";
    object      Us;
}
// * * * * * * * * * * * * * * * * * * * * * * * * * * * * * * * * * * * * * //

dimensions      [0 1 -1 0 0 0 0];

internalField   nonuniform List<vector> 
10571
(
(-0.160323 -0.0132372 -0.0593958)
(0.00436722 0.0369277 -0.0339895)
(-0.0252206 0.127097 0.0692432)
(-0.122257 0.0982123 -0.00451678)
(-0.16129 -0.114261 -0.0540465)
(0.0562055 0.00452163 0.142782)
(-0.104697 0.0147431 0.0572038)
(-0.319843 0.134167 -0.0265905)
(-0.12883 0.0577074 -0.103512)
(-0.0615197 -0.0453963 -0.0811474)
(0.0250077 -0.0882069 0.0696762)
(0.111789 -0.268826 0.140322)
(0.0436476 -0.118764 0.138306)
(-0.150678 0.0609997 0.0250256)
(-0.174827 0.199885 -0.0436359)
(-0.0811481 0.0947645 -0.109254)
(-0.0233147 -0.160861 -0.0714201)
(0.122042 -0.196239 -0.0104855)
(0.0596061 0.005579 0.084529)
(-0.234797 0.213334 0.0618672)
(-0.119277 0.186705 -0.0188695)
(-0.0318117 -0.0588905 -0.134859)
(0.0582855 0.00719819 0.0247656)
(0.0304975 0.0423473 0.0549747)
(-0.235291 -0.0290707 0.00665813)
(-0.0592754 0.0515967 -0.0258117)
(-0.248701 0.186523 0.160349)
(-0.271813 0.00519259 0.0804121)
(-0.166954 -0.0269334 0.0316652)
(-0.0732747 -0.126684 0.324557)
(-0.156072 -0.0431107 0.22736)
(-0.0624225 0.0343875 0.184758)
(0.0203913 -0.001637 -0.0152961)
(0.000346481 0.0188769 -0.00662928)
(-0.000957328 -0.143337 0.105689)
(-0.0346504 -0.21572 0.235692)
(-0.0678709 -0.0258443 0.245809)
(-0.086219 0.216092 0.236056)
(0.0580433 0.137242 0.144151)
(0.0243634 0.00260332 -0.106527)
(-0.13715 -0.0999256 -0.0552449)
(-0.174448 -0.0910774 0.109401)
(-0.0308635 0.118694 0.196757)
(-0.0978938 0.142189 0.197059)
(-0.0297071 0.0493185 0.044405)
(-0.159919 -0.0277074 -0.116148)
(-0.0230311 0.0752817 0.0281817)
(0.14888 -0.030895 -0.00761654)
(-0.154682 -0.0116764 0.0818929)
(-0.029448 0.0208591 0.0147538)
(-0.404561 0.0952406 0.302408)
(-0.291696 -0.0863005 0.204633)
(-0.102003 0.0189571 0.183439)
(-0.206965 -0.206598 0.385975)
(-0.22192 -0.0951676 0.334915)
(0.00615654 -0.106688 0.253294)
(0.0588592 -0.0276218 0.034781)
(0.0248701 0.0677546 0.0440424)
(-0.0190044 -0.112383 0.0889322)
(-0.383409 -0.18306 0.37105)
(-0.166186 -0.0478213 0.208907)
(-0.0252085 -0.00594386 0.245583)
(0.100824 -0.00920103 0.256541)
(0.0460389 -0.0681801 -0.0488986)
(-0.165103 0.0731915 0.0946961)
(-0.191575 -0.0720739 0.0716938)
(0.00404774 -0.0377852 0.15234)
(0.0721077 0.108147 0.418696)
(0.0878869 -0.130582 0.2289)
(-0.194406 -0.0836409 0.0524844)
(-0.0480747 -0.090868 0.025834)
(0.164941 -0.0897253 0.05878)
(-0.0184817 0.000701168 0.0755144)
(-0.132223 -0.0588785 0.166856)
(-0.369502 -0.11971 0.443178)
(-0.156769 -0.12036 0.288232)
(0.00283204 0.0330683 0.116765)
(-0.236489 -0.216125 0.42745)
(-0.151625 -0.101647 0.325623)
(0.0198348 -0.109192 0.27298)
(0.0567634 -0.0825398 0.0697093)
(0.0579986 0.1486 -0.0266492)
(-0.0452443 -0.0820058 0.140241)
(-0.212466 -0.0729708 0.256842)
(-0.104911 -0.0526231 0.200213)
(-0.00260861 -0.099812 0.201892)
(0.108649 -0.107764 0.333723)
(0.00580786 -0.248014 0.0836681)
(0.000692973 0.237532 0.145337)
(-0.14378 -0.0528365 0.0603471)
(-0.0447603 -0.0681504 0.0677899)
(0.164898 -0.0714559 0.391734)
(0.176046 -0.186171 0.440668)
(-0.128526 -0.0453897 -0.0183119)
(-0.132393 -0.00947341 -0.131582)
(0.0574502 -0.0515722 -0.0122838)
(0.0931958 0.00626177 0.00296185)
(0.024544 -0.0264018 -0.0611457)
(-0.222558 -0.114407 0.435408)
(0.064083 -0.11126 0.173359)
(0.202065 -0.0242793 -0.118255)
(-0.145905 -0.113453 0.438536)
(-0.0366486 -0.0247014 0.242944)
(0.0565397 -0.0156304 0.258877)
(0.0254515 -0.0118291 -0.240954)
(0.0169997 0.0463342 -0.398151)
(0.00398928 0.0644943 0.00655264)
(-0.0991408 0.0363272 0.0863149)
(-0.00551553 0.0277978 0.190521)
(-0.00283078 -0.0228224 -0.0819271)
(0.0371993 -0.169522 0.284035)
(-0.0341939 -0.20531 0.0661051)
(0.0165722 0.14119 -0.00989335)
(-0.0851278 0.0526856 -0.306103)
(-0.121511 -0.00625675 -0.203963)
(0.0462439 -0.112544 0.389687)
(0.129075 -0.188751 0.463373)
(0.102274 0.0340091 -0.411768)
(-0.0867557 -0.0417897 -0.476968)
(-0.0970642 0.0691805 -0.129012)
(0.0733331 0.00256871 0.0632107)
(0.032725 -0.0382611 -0.0294971)
(0.0385043 -0.0111749 0.270641)
(0.160935 -0.0763271 0.0813676)
(0.145456 0.0970121 -0.194341)
(0.0590836 0.0788231 0.538568)
(0.0890718 0.0429307 0.120725)
(0.145557 0.0443017 0.0764271)
(0.0114115 0.0557334 -0.320984)
(-0.0214918 0.0407016 -0.315779)
(-0.00978207 0.00674232 -0.00555331)
(0.00443584 0.0738597 0.00602039)
(-0.0325048 0.124075 0.106145)
(0.0898092 0.121247 0.0975318)
(-0.0393042 -0.0500012 -0.180029)
(-0.00502091 -0.117097 0.171784)
(-0.0451343 -0.188695 0.0490051)
(-0.00451904 -0.00147219 -0.00319687)
(0.0691075 0.122021 -0.043506)
(-0.0398307 0.0845511 -0.333669)
(-0.0954941 0.0144676 -0.281938)
(-0.0679123 -0.00887506 0.167244)
(0.095419 -0.0815276 0.3804)
(0.0976625 0.137929 -0.411349)
(0.000973999 -0.0310061 -0.445377)
(-0.117987 0.0398987 -0.299066)
(0.064573 0.00170189 0.163526)
(0.0112636 -0.0532773 0.09116)
(0.0201011 -0.0742219 0.171904)
(0.0340774 0.0206847 -0.226488)
(0.0238971 0.10396 -0.277494)
(0.0428062 0.00625622 0.274739)
(0.123829 0.0592975 0.209958)
(0.044674 0.0307276 -0.275353)
(-0.0078527 0.0838025 -0.328977)
(0.0678096 0.0358392 -0.417094)
(-0.0105195 0.00397221 -0.00819331)
(-0.0227093 0.0794833 0.104947)
(-0.0237076 0.12752 0.211178)
(0.0628918 0.0733824 -0.0541879)
(0.064212 0.0465072 -0.304733)
(-0.0134195 0.109945 -0.385663)
(-0.00845848 0.152351 -0.650419)
(0 0 0)
(0.0779048 0.0762472 0.0415081)
(-0.103119 0.01207 -0.367283)
(-0.0857443 0.0358073 -0.458904)
(-0.00667828 0.0595509 -0.15811)
(0.0753028 -0.11294 0.470057)
(0 0 0)
(0.0848314 0.14022 -0.284961)
(0.0346443 0.101367 -0.470036)
(-0.133141 -0.190311 -0.369067)
(0.0683414 0.0153908 0.117738)
(-0.0626391 -0.165433 0.284368)
(0.0856948 -0.104041 -0.0132044)
(0 0 0)
(0.0796494 0.0503409 -0.267262)
(-0.0424644 -0.0291063 0.300723)
(0.104694 0.0533105 0.315871)
(0.0504978 0.0192715 -0.243047)
(-0.00469197 0.0872823 -0.330314)
(0 0 0)
(0 0 0)
(-0.0636192 0.0355267 -0.396973)
(-0.0124128 -0.0739731 -0.160115)
(0.0335525 -0.0110644 -0.1321)
(0.0403118 0.0686527 -0.230679)
(-0.0441165 0.109732 -0.370226)
(0 0 0)
(0 0 0)
(-0.0179155 0.052478 -0.311409)
(-0.0567887 0.0380783 -0.337516)
(-0.0634573 0.0315395 -0.425738)
(-0.113979 0.220408 -0.435257)
(0 0 0)
(0 0 0)
(0 0 0)
(0.110819 0.125998 -0.43966)
(0 0 0)
(0 0 0)
(0.0377488 -0.126471 -0.0886003)
(0.0833379 -0.10809 -0.0908833)
(-4.1432e-14 4.18288e-14 9.50748e-14)
(0 0 0)
(0.00255741 -0.153388 0.00546378)
(0.0821015 -0.0412284 -0.136379)
(-0.0179498 0.0456536 -0.185042)
(-0.0356002 0.0815352 -0.402414)
(0.0251999 0.111526 -0.550614)
(0 0 0)
(0 0 0)
(0 0 0)
(0.0742349 0.0185054 -0.107039)
(0.00352768 0.0665851 -0.246241)
(-0.0633723 0.10046 -0.42165)
(-0.0481616 0.147536 -0.565873)
(0 0 0)
(0.0126115 0.0191755 -0.245119)
(0.0680514 0.0653794 -0.216975)
(-0.0518092 0.0359624 -0.372189)
(-0.0309709 -0.0605476 -0.386322)
(0 0 0)
(0 0 0)
(0 0 0)
(-0.138718 -0.107912 -0.380695)
(0 0 0)
(0.0849712 -0.0840403 -0.0957497)
(0.0842817 -0.0985189 -0.0551835)
(0 0 0)
(0.0700845 -0.0131888 -0.185731)
(0.00824718 -0.0747002 -0.173226)
(0.0535506 -0.0350634 -0.0994249)
(-0.0304328 0.0421705 -0.159334)
(-0.0313565 0.0902149 -0.366506)
(0.00492665 0.0795864 -0.482854)
(0 0 0)
(0.0142139 0.00260548 -0.219569)
(-0.00395848 0.0305549 -0.150253)
(0.0387652 0.0496575 -0.21389)
(-0.0636511 0.115103 -0.415425)
(-0.021219 0.134815 -0.506047)
(0 0 0)
(0.0345927 0.0335351 -0.19709)
(-0.113084 0.0200527 -0.340389)
(-0.104572 0.113932 -0.42455)
(0 0 0)
(0 0 0)
(-0.259774 0.0608304 -0.376774)
(0 0 0)
(0 0 0)
(0.0189358 -0.124807 -0.0919225)
(0.050056 -0.169469 -0.0481369)
(3.41706e-14 1.18207e-14 3.07783e-14)
(0.094767 -0.00427105 -0.195319)
(0.0034602 -0.0755246 -0.106545)
(0.0541938 -0.0386098 -0.0642851)
(-0.052078 0.0505459 -0.090666)
(0.0102844 0.0980031 -0.366892)
(-0.00790442 0.108903 -0.48187)
(0 0 0)
(-0.0221512 -0.0177162 -0.193029)
(0.0455078 0.025383 -0.100972)
(-0.00348666 0.0569906 -0.173722)
(-0.0855284 0.106784 -0.38586)
(-0.0787704 0.104198 -0.445981)
(0 0 0)
(-0.0227981 0.134787 -0.165976)
(-0.141513 0.0352498 -0.322703)
(-0.145335 0.0641863 -0.326797)
(0 0 0)
(0 0 0)
(0 0 0)
(-0.144603 -0.143066 -0.258157)
(0 0 0)
(0 0 0)
(0 0 0)
(0 0 0)
(-5.93036e-15 2.01138e-15 9.40968e-14)
(0.0195851 -0.0912623 -0.0222581)
(0.0555475 -0.0554909 -0.040476)
(0.0465989 0.021657 -0.0511441)
(0.0273721 0.0578009 -0.22169)
(0.0340727 0.139976 -0.426546)
(0 0 0)
(0 0 0)
(0.095268 0.00383553 -0.0105937)
(0.042478 0.0567019 -0.0965109)
(-0.100195 0.106441 -0.39655)
(-0.134289 0.104881 -0.217656)
(0 0 0)
(0 0 0)
(-0.118443 -0.058132 -0.296839)
(-0.220237 0.0243902 -0.378861)
(0 0 0)
(0 0 0)
(-0.119086 -0.0229402 -0.309481)
(0 0 0)
(0 0 0)
(0 0 0)
(0 0 0)
(0 0 0)
(0 0 0)
(0 0 0)
(0.0972138 -0.0853624 0.0113277)
(0.0766235 0.012 -0.0197517)
(0 0 0)
(-0.0391805 0.111868 -0.419234)
(0 0 0)
(0 0 0)
(0.0999902 -0.0218543 0.0421085)
(-0.0399795 0.0510696 -0.146691)
(-0.139598 0.0665848 -0.327426)
(0 0 0)
(0 0 0)
(0.0440318 0.0383623 -0.0697121)
(-0.198771 -0.0845818 -0.320128)
(-0.0771602 -0.143861 -0.395066)
(0 0 0)
(0 0 0)
(0 0 0)
(0 0 0)
(0 0 0)
(0 0 0)
(0 0 0)
(0 0 0)
(0 0 0)
(0 0 0)
(0.0799871 -0.067213 0.0846429)
(0.150624 -0.102888 -0.00388843)
(0.043247 0.0846986 -0.201245)
(3.74076e-15 -4.18899e-14 1.28181e-13)
(0 0 0)
(0 0 0)
(0.0992415 -0.0227401 0.0827774)
(0.0587241 0.11233 -0.0822415)
(-0.15561 0.0761304 -0.300612)
(-0.098022 0.138771 -0.298289)
(0 0 0)
(0 0 0)
(-0.185502 -0.0718386 -0.29423)
(-0.223246 0.0478082 -0.310508)
(0 0 0)
(0 0 0)
(0 0 0)
(0 0 0)
(0 0 0)
(0 0 0)
(0 0 0)
(0 0 0)
(0.0946451 -0.00318304 -0.0716966)
(0 0 0)
(0.0479266 -0.0793162 0.10775)
(0 0 0)
(0.0969663 0.0912584 -0.0747621)
(-0.017906 0.134124 -0.357136)
(0 0 0)
(0 0 0)
(0.083286 -0.0257426 0.15428)
(0 0 0)
(-0.132202 0.0722675 -0.294558)
(-0.0905574 0.10004 -0.279021)
(0 0 0)
(0 0 0)
(-0.174905 -0.177627 -0.257056)
(-0.219215 -0.0711991 -0.315623)
(0 0 0)
(0 0 0)
(-0.179755 -0.062833 -0.190888)
(0 0 0)
(0 0 0)
(0 0 0)
(0 0 0)
(0 0 0)
(0 0 0)
(0 0 0)
(0 0 0)
(0.0414211 0.0562582 -0.0104477)
(0.106224 0.067673 -0.0720103)
(0 0 0)
(0 0 0)
(0 0 0)
(0 0 0)
(0 0 0)
(0 0 0)
(0 0 0)
(0 0 0)
(0 0 0)
(-0.236418 -0.0992242 -0.247914)
(0 0 0)
(0 0 0)
(0 0 0)
(0 0 0)
(-0.00833412 -0.132405 -0.0812799)
(0 0 0)
(0 0 0)
(0 0 0)
(0 0 0)
(-2.89827e-14 -6.213e-15 2.33864e-14)
(0 0 0)
(0 0 0)
(0.0640687 0.0645228 0.00194636)
(0.0912878 0.0746469 -0.0395262)
(-0.0246254 0.126681 -0.248984)
(0 0 0)
(0 0 0)
(0 0 0)
(0.0720697 0.131241 -0.0222897)
(0.0554358 0.127689 -0.0699698)
(0.0358354 0.12359 -0.201465)
(0 0 0)
(0 0 0)
(-0.151949 -0.0276081 -0.1621)
(0 0 0)
(-0.178261 0.0329687 -0.0953714)
(0 0 0)
(0 0 0)
(-0.149779 -0.152232 -0.128588)
(0 0 0)
(0 0 0)
(0 0 0)
(0 0 0)
(0 0 0)
(0 0 0)
(0 0 0)
(0 0 0)
(0.0752329 0.0903926 -0.0201355)
(0.129254 0.0833028 -0.14308)
(0 0 0)
(0 0 0)
(0 0 0)
(0.0755375 0.154006 -0.00255958)
(0.075224 0.149141 -0.0320049)
(3.5905e-14 -4.09953e-14 7.33224e-14)
(0 0 0)
(0 0 0)
(0.00782947 0.173903 -0.0517176)
(0.0744508 0.201802 -0.0684562)
(-0.0402427 0.0925011 -0.145563)
(0 0 0)
(0 0 0)
(-0.136615 0.107503 -0.0306133)
(0 0 0)
(0 0 0)
(0 0 0)
(0 0 0)
(0 0 0)
(0 0 0)
(0 0 0)
(0 0 0)
(0.0815164 0.0922027 -0.00214418)
(0.115691 0.077215 -0.080386)
(0 0 0)
(0 0 0)
(0 0 0)
(0.055451 0.1744 0.0369731)
(0.0710927 0.156025 -0.019403)
(0 0 0)
(0 0 0)
(0 0 0)
(0 0 0)
(0.0668633 0.189802 -0.0238781)
(-0.0373201 0.104907 -0.102813)
(0 0 0)
(0 0 0)
(0 0 0)
(0 0 0)
(0 0 0)
(0 0 0)
(0 0 0)
(0 0 0)
(0 0 0)
(0 0 0)
(0 0 0)
(0.0684971 0.0964648 0.0139648)
(0.101333 0.078418 0.00827802)
(0 0 0)
(0 0 0)
(0 0 0)
(0 0 0)
(0.062121 0.154796 0.00442677)
(0 0 0)
(0 0 0)
(0 0 0)
(0 0 0)
(0.0603624 0.206627 -0.0156978)
(0.0997498 0.200766 -0.0742645)
(0 0 0)
(0 0 0)
(0 0 0)
(0 0 0)
(0 0 0)
(0 0 0)
(0 0 0)
(0 0 0)
(0 0 0)
(0 0 0)
(0 0 0)
(0.0919153 0.078726 0.0663983)
(0 0 0)
(0 0 0)
(0 0 0)
(0 0 0)
(0 0 0)
(0 0 0)
(0 0 0)
(0 0 0)
(0 0 0)
(0 0 0)
(0 0 0)
(0 0 0)
(0 0 0)
(0 0 0)
(0 0 0)
(0 0 0)
(0 0 0)
(0 0 0)
(0 0 0)
(0 0 0)
(0 0 0)
(0 0 0)
(0 0 0)
(0.0274931 0.110121 0.0977122)
(0 0 0)
(0 0 0)
(0 0 0)
(0 0 0)
(0 0 0)
(0 0 0)
(0 0 0)
(0 0 0)
(0 0 0)
(0 0 0)
(0.01174 0.239458 0.0489976)
(0 0 0)
(0 0 0)
(0 0 0)
(0 0 0)
(0 0 0)
(0 0 0)
(0 0 0)
(0 0 0)
(0 0 0)
(0 0 0)
(0 0 0)
(0 0 0)
(0 0 0)
(0 0 0)
(0 0 0)
(0 0 0)
(0 0 0)
(0 0 0)
(0 0 0)
(0 0 0)
(0 0 0)
(0 0 0)
(0 0 0)
(0 0 0)
(0 0 0)
(0 0 0)
(0 0 0)
(0 0 0)
(0 0 0)
(0 0 0)
(0 0 0)
(0 0 0)
(0 0 0)
(0 0 0)
(0 0 0)
(0 0 0)
(0 0 0)
(0 0 0)
(0 0 0)
(0 0 0)
(0 0 0)
(0 0 0)
(0 0 0)
(0 0 0)
(0 0 0)
(0 0 0)
(0 0 0)
(0 0 0)
(0 0 0)
(0 0 0)
(0 0 0)
(0 0 0)
(0 0 0)
(0 0 0)
(0 0 0)
(0 0 0)
(0 0 0)
(0 0 0)
(0 0 0)
(0 0 0)
(0 0 0)
(0 0 0)
(0 0 0)
(0 0 0)
(0 0 0)
(0 0 0)
(0 0 0)
(0 0 0)
(0 0 0)
(0 0 0)
(0 0 0)
(0 0 0)
(0 0 0)
(0 0 0)
(0 0 0)
(0 0 0)
(0 0 0)
(0 0 0)
(0 0 0)
(0 0 0)
(0 0 0)
(0 0 0)
(0 0 0)
(0 0 0)
(0 0 0)
(0 0 0)
(0 0 0)
(0 0 0)
(0 0 0)
(0 0 0)
(0 0 0)
(0 0 0)
(0 0 0)
(0 0 0)
(0 0 0)
(0 0 0)
(0 0 0)
(0 0 0)
(0 0 0)
(0 0 0)
(0 0 0)
(0 0 0)
(0 0 0)
(0 0 0)
(0 0 0)
(0 0 0)
(0 0 0)
(0 0 0)
(0 0 0)
(0 0 0)
(0 0 0)
(0 0 0)
(0 0 0)
(0 0 0)
(0 0 0)
(0 0 0)
(0 0 0)
(0 0 0)
(0 0 0)
(0 0 0)
(0 0 0)
(0 0 0)
(0 0 0)
(0 0 0)
(0 0 0)
(0 0 0)
(0 0 0)
(0 0 0)
(0 0 0)
(0 0 0)
(0 0 0)
(0 0 0)
(0 0 0)
(0 0 0)
(0 0 0)
(0 0 0)
(0 0 0)
(0 0 0)
(0 0 0)
(0 0 0)
(0 0 0)
(0 0 0)
(0 0 0)
(0 0 0)
(0 0 0)
(0 0 0)
(0 0 0)
(0 0 0)
(0 0 0)
(0 0 0)
(0 0 0)
(0 0 0)
(0 0 0)
(0 0 0)
(0 0 0)
(0 0 0)
(0 0 0)
(0 0 0)
(0 0 0)
(0 0 0)
(0 0 0)
(0 0 0)
(0 0 0)
(0 0 0)
(0 0 0)
(0 0 0)
(0 0 0)
(0 0 0)
(0 0 0)
(0 0 0)
(0 0 0)
(0 0 0)
(0 0 0)
(0 0 0)
(0 0 0)
(0 0 0)
(0 0 0)
(0 0 0)
(0 0 0)
(0 0 0)
(0 0 0)
(0 0 0)
(0 0 0)
(0 0 0)
(0 0 0)
(0 0 0)
(0 0 0)
(0 0 0)
(0 0 0)
(0 0 0)
(0 0 0)
(0 0 0)
(0 0 0)
(0 0 0)
(0 0 0)
(0 0 0)
(0 0 0)
(0 0 0)
(0 0 0)
(0 0 0)
(0 0 0)
(0 0 0)
(0 0 0)
(0 0 0)
(0 0 0)
(0 0 0)
(0 0 0)
(0 0 0)
(0 0 0)
(0 0 0)
(0 0 0)
(0 0 0)
(0 0 0)
(0 0 0)
(0 0 0)
(0 0 0)
(0 0 0)
(0 0 0)
(0 0 0)
(0 0 0)
(0 0 0)
(0 0 0)
(0 0 0)
(0 0 0)
(0 0 0)
(0 0 0)
(0 0 0)
(0 0 0)
(0 0 0)
(0 0 0)
(0 0 0)
(0 0 0)
(0 0 0)
(0 0 0)
(0 0 0)
(0 0 0)
(0 0 0)
(0 0 0)
(0 0 0)
(0 0 0)
(0 0 0)
(0 0 0)
(0 0 0)
(0 0 0)
(0 0 0)
(0 0 0)
(0 0 0)
(0 0 0)
(0 0 0)
(0 0 0)
(0 0 0)
(0 0 0)
(0 0 0)
(0 0 0)
(0 0 0)
(0 0 0)
(0 0 0)
(0 0 0)
(0 0 0)
(0 0 0)
(0 0 0)
(0 0 0)
(0 0 0)
(0 0 0)
(0 0 0)
(0 0 0)
(0 0 0)
(0 0 0)
(0 0 0)
(0 0 0)
(0 0 0)
(0 0 0)
(0 0 0)
(0 0 0)
(0 0 0)
(0 0 0)
(0 0 0)
(0 0 0)
(0 0 0)
(0 0 0)
(0 0 0)
(0 0 0)
(0 0 0)
(0 0 0)
(0 0 0)
(0 0 0)
(0 0 0)
(0 0 0)
(0 0 0)
(0 0 0)
(0 0 0)
(0 0 0)
(0 0 0)
(0 0 0)
(0 0 0)
(0 0 0)
(0 0 0)
(0 0 0)
(0 0 0)
(0 0 0)
(0 0 0)
(0 0 0)
(0 0 0)
(0 0 0)
(0 0 0)
(0 0 0)
(0 0 0)
(0 0 0)
(0 0 0)
(0 0 0)
(0 0 0)
(0 0 0)
(0 0 0)
(0 0 0)
(0 0 0)
(0 0 0)
(0 0 0)
(0 0 0)
(0 0 0)
(0 0 0)
(0 0 0)
(0 0 0)
(0 0 0)
(0 0 0)
(0 0 0)
(0 0 0)
(0 0 0)
(0 0 0)
(0 0 0)
(0 0 0)
(0 0 0)
(0 0 0)
(0 0 0)
(0 0 0)
(0 0 0)
(0 0 0)
(0 0 0)
(0 0 0)
(0 0 0)
(0 0 0)
(0 0 0)
(0 0 0)
(0 0 0)
(0 0 0)
(0 0 0)
(0 0 0)
(0 0 0)
(0 0 0)
(0 0 0)
(0 0 0)
(0 0 0)
(0 0 0)
(0 0 0)
(0 0 0)
(0 0 0)
(0 0 0)
(0 0 0)
(0 0 0)
(0 0 0)
(0 0 0)
(0 0 0)
(0 0 0)
(0 0 0)
(0 0 0)
(0 0 0)
(0 0 0)
(0 0 0)
(0 0 0)
(0 0 0)
(0 0 0)
(0 0 0)
(0 0 0)
(0 0 0)
(0 0 0)
(0 0 0)
(0 0 0)
(0 0 0)
(0 0 0)
(0 0 0)
(0 0 0)
(0 0 0)
(0 0 0)
(0 0 0)
(0 0 0)
(0 0 0)
(0 0 0)
(0 0 0)
(0 0 0)
(0 0 0)
(0 0 0)
(0 0 0)
(0 0 0)
(0 0 0)
(0 0 0)
(0 0 0)
(0 0 0)
(0 0 0)
(0 0 0)
(0 0 0)
(0 0 0)
(0 0 0)
(0 0 0)
(0 0 0)
(0 0 0)
(0 0 0)
(0 0 0)
(0 0 0)
(0 0 0)
(0 0 0)
(0 0 0)
(0 0 0)
(0 0 0)
(0 0 0)
(0 0 0)
(0 0 0)
(0 0 0)
(0 0 0)
(0 0 0)
(0 0 0)
(0 0 0)
(0 0 0)
(0 0 0)
(0 0 0)
(0 0 0)
(0 0 0)
(0 0 0)
(0 0 0)
(0 0 0)
(0 0 0)
(0 0 0)
(0 0 0)
(0 0 0)
(0 0 0)
(0 0 0)
(0 0 0)
(0 0 0)
(0 0 0)
(0 0 0)
(0 0 0)
(0 0 0)
(0 0 0)
(0 0 0)
(0 0 0)
(0 0 0)
(0 0 0)
(0 0 0)
(0 0 0)
(0 0 0)
(0 0 0)
(0 0 0)
(0 0 0)
(0 0 0)
(0 0 0)
(0 0 0)
(0 0 0)
(0 0 0)
(0 0 0)
(0 0 0)
(0 0 0)
(0 0 0)
(0 0 0)
(0 0 0)
(0 0 0)
(0 0 0)
(0 0 0)
(0 0 0)
(0 0 0)
(0 0 0)
(0 0 0)
(0 0 0)
(0 0 0)
(0 0 0)
(0 0 0)
(0 0 0)
(0 0 0)
(0 0 0)
(0 0 0)
(0 0 0)
(0 0 0)
(0 0 0)
(0 0 0)
(0 0 0)
(0 0 0)
(0 0 0)
(0 0 0)
(0 0 0)
(0 0 0)
(0 0 0)
(0 0 0)
(0 0 0)
(0 0 0)
(0 0 0)
(0 0 0)
(0 0 0)
(0 0 0)
(0 0 0)
(0 0 0)
(0 0 0)
(0 0 0)
(0 0 0)
(0 0 0)
(0 0 0)
(0 0 0)
(0 0 0)
(0 0 0)
(0 0 0)
(0 0 0)
(0 0 0)
(0 0 0)
(0 0 0)
(0 0 0)
(0 0 0)
(0 0 0)
(0 0 0)
(0 0 0)
(0 0 0)
(0 0 0)
(0 0 0)
(0 0 0)
(0 0 0)
(0 0 0)
(0 0 0)
(0 0 0)
(0 0 0)
(0 0 0)
(0 0 0)
(0 0 0)
(0 0 0)
(0 0 0)
(0 0 0)
(0 0 0)
(0 0 0)
(0 0 0)
(0 0 0)
(0 0 0)
(0 0 0)
(0 0 0)
(0 0 0)
(0 0 0)
(0 0 0)
(0 0 0)
(0 0 0)
(0 0 0)
(0 0 0)
(0 0 0)
(0 0 0)
(0 0 0)
(0 0 0)
(0 0 0)
(0 0 0)
(0 0 0)
(0 0 0)
(0 0 0)
(0 0 0)
(0 0 0)
(0 0 0)
(0 0 0)
(0 0 0)
(0 0 0)
(0 0 0)
(0 0 0)
(0 0 0)
(0 0 0)
(0 0 0)
(0 0 0)
(0 0 0)
(0 0 0)
(0 0 0)
(0 0 0)
(0 0 0)
(0 0 0)
(0 0 0)
(0 0 0)
(0 0 0)
(0 0 0)
(0 0 0)
(0 0 0)
(0 0 0)
(0 0 0)
(0 0 0)
(0 0 0)
(0 0 0)
(0 0 0)
(0 0 0)
(0 0 0)
(0 0 0)
(0 0 0)
(0 0 0)
(0 0 0)
(0 0 0)
(0 0 0)
(0 0 0)
(0 0 0)
(0 0 0)
(0 0 0)
(0 0 0)
(0 0 0)
(0 0 0)
(0 0 0)
(0 0 0)
(0 0 0)
(0 0 0)
(0 0 0)
(0 0 0)
(0 0 0)
(0 0 0)
(0 0 0)
(0 0 0)
(0 0 0)
(0 0 0)
(0 0 0)
(0 0 0)
(0 0 0)
(0 0 0)
(0 0 0)
(0 0 0)
(0 0 0)
(0 0 0)
(0 0 0)
(0 0 0)
(0 0 0)
(0 0 0)
(0 0 0)
(0 0 0)
(0 0 0)
(0 0 0)
(0 0 0)
(0 0 0)
(0 0 0)
(0 0 0)
(0 0 0)
(0 0 0)
(0 0 0)
(0 0 0)
(0 0 0)
(0 0 0)
(0 0 0)
(0 0 0)
(0 0 0)
(0 0 0)
(0 0 0)
(0 0 0)
(0 0 0)
(0 0 0)
(0 0 0)
(0 0 0)
(0 0 0)
(0 0 0)
(0 0 0)
(0 0 0)
(0 0 0)
(0 0 0)
(0 0 0)
(0 0 0)
(0 0 0)
(0 0 0)
(0 0 0)
(0 0 0)
(0 0 0)
(0 0 0)
(0 0 0)
(0 0 0)
(0 0 0)
(0 0 0)
(0 0 0)
(0 0 0)
(0 0 0)
(0 0 0)
(0 0 0)
(0 0 0)
(0 0 0)
(0 0 0)
(0 0 0)
(0 0 0)
(0 0 0)
(0 0 0)
(0 0 0)
(0 0 0)
(0 0 0)
(0 0 0)
(0 0 0)
(0 0 0)
(0 0 0)
(0 0 0)
(0 0 0)
(0 0 0)
(0 0 0)
(0 0 0)
(0 0 0)
(0 0 0)
(0 0 0)
(0 0 0)
(0 0 0)
(0 0 0)
(0 0 0)
(0 0 0)
(0 0 0)
(0 0 0)
(0 0 0)
(0 0 0)
(0 0 0)
(0 0 0)
(0 0 0)
(0 0 0)
(0 0 0)
(0 0 0)
(0 0 0)
(0 0 0)
(0 0 0)
(0 0 0)
(0 0 0)
(0 0 0)
(0 0 0)
(0 0 0)
(0 0 0)
(0 0 0)
(0 0 0)
(0 0 0)
(0 0 0)
(0 0 0)
(0 0 0)
(0 0 0)
(0 0 0)
(0 0 0)
(0 0 0)
(0 0 0)
(0 0 0)
(0 0 0)
(0 0 0)
(0 0 0)
(0 0 0)
(0 0 0)
(0 0 0)
(0 0 0)
(0 0 0)
(0 0 0)
(0 0 0)
(0 0 0)
(0 0 0)
(0 0 0)
(0 0 0)
(0 0 0)
(0 0 0)
(0 0 0)
(0 0 0)
(0 0 0)
(0 0 0)
(0 0 0)
(0 0 0)
(0 0 0)
(0 0 0)
(0 0 0)
(0 0 0)
(0 0 0)
(0 0 0)
(0 0 0)
(0 0 0)
(0 0 0)
(0 0 0)
(0 0 0)
(0 0 0)
(0 0 0)
(0 0 0)
(0 0 0)
(0 0 0)
(0 0 0)
(0 0 0)
(0 0 0)
(0 0 0)
(0 0 0)
(0 0 0)
(0 0 0)
(0 0 0)
(0 0 0)
(0 0 0)
(0 0 0)
(0 0 0)
(0 0 0)
(0 0 0)
(0 0 0)
(0 0 0)
(0 0 0)
(0 0 0)
(0 0 0)
(0 0 0)
(0 0 0)
(0 0 0)
(0 0 0)
(0 0 0)
(0 0 0)
(0 0 0)
(0 0 0)
(0 0 0)
(0 0 0)
(0 0 0)
(0 0 0)
(0 0 0)
(0 0 0)
(0 0 0)
(0 0 0)
(0 0 0)
(0 0 0)
(0 0 0)
(0 0 0)
(0 0 0)
(0 0 0)
(0 0 0)
(0 0 0)
(0 0 0)
(0 0 0)
(0 0 0)
(0 0 0)
(0 0 0)
(0 0 0)
(0 0 0)
(0 0 0)
(0 0 0)
(0 0 0)
(0 0 0)
(0 0 0)
(0 0 0)
(0 0 0)
(0 0 0)
(0 0 0)
(0 0 0)
(0 0 0)
(0 0 0)
(0 0 0)
(0 0 0)
(0 0 0)
(0 0 0)
(0 0 0)
(0 0 0)
(0 0 0)
(0 0 0)
(0 0 0)
(0 0 0)
(0 0 0)
(0 0 0)
(0 0 0)
(0 0 0)
(0 0 0)
(0 0 0)
(0 0 0)
(0 0 0)
(0 0 0)
(0 0 0)
(0 0 0)
(0 0 0)
(0 0 0)
(0 0 0)
(0 0 0)
(0 0 0)
(0 0 0)
(0 0 0)
(0 0 0)
(0 0 0)
(0 0 0)
(0 0 0)
(0 0 0)
(0 0 0)
(0 0 0)
(0 0 0)
(0 0 0)
(0 0 0)
(0 0 0)
(0 0 0)
(0 0 0)
(0 0 0)
(0 0 0)
(0 0 0)
(0 0 0)
(0 0 0)
(0 0 0)
(0 0 0)
(0 0 0)
(0 0 0)
(0 0 0)
(0 0 0)
(0 0 0)
(0 0 0)
(0 0 0)
(0 0 0)
(0 0 0)
(0 0 0)
(0 0 0)
(0 0 0)
(0 0 0)
(0 0 0)
(0 0 0)
(0 0 0)
(0 0 0)
(0 0 0)
(0 0 0)
(0 0 0)
(0 0 0)
(0 0 0)
(0 0 0)
(0 0 0)
(0 0 0)
(0 0 0)
(0 0 0)
(0 0 0)
(0 0 0)
(0 0 0)
(0 0 0)
(0 0 0)
(0 0 0)
(0 0 0)
(0 0 0)
(0 0 0)
(0 0 0)
(0 0 0)
(0 0 0)
(0 0 0)
(0 0 0)
(0 0 0)
(0 0 0)
(0 0 0)
(0 0 0)
(0 0 0)
(0 0 0)
(0 0 0)
(0 0 0)
(0 0 0)
(0 0 0)
(0 0 0)
(0 0 0)
(0 0 0)
(0 0 0)
(0 0 0)
(0 0 0)
(0 0 0)
(0 0 0)
(0 0 0)
(0 0 0)
(0 0 0)
(0 0 0)
(0 0 0)
(0 0 0)
(0 0 0)
(0 0 0)
(0 0 0)
(0 0 0)
(0 0 0)
(0 0 0)
(0 0 0)
(0 0 0)
(0 0 0)
(0 0 0)
(0 0 0)
(0 0 0)
(0 0 0)
(0 0 0)
(0 0 0)
(0 0 0)
(0 0 0)
(0 0 0)
(0 0 0)
(0 0 0)
(0 0 0)
(0 0 0)
(0 0 0)
(0 0 0)
(0 0 0)
(0 0 0)
(0 0 0)
(0 0 0)
(0 0 0)
(0 0 0)
(0 0 0)
(0 0 0)
(0 0 0)
(0 0 0)
(0 0 0)
(0 0 0)
(0 0 0)
(0 0 0)
(0 0 0)
(0 0 0)
(0 0 0)
(0 0 0)
(0 0 0)
(0 0 0)
(0 0 0)
(0 0 0)
(0 0 0)
(0 0 0)
(0 0 0)
(0 0 0)
(0 0 0)
(0 0 0)
(0 0 0)
(0 0 0)
(0 0 0)
(0 0 0)
(0 0 0)
(0 0 0)
(0 0 0)
(0 0 0)
(0 0 0)
(0 0 0)
(0 0 0)
(0 0 0)
(0 0 0)
(0 0 0)
(0 0 0)
(0 0 0)
(0 0 0)
(0 0 0)
(0 0 0)
(0 0 0)
(0 0 0)
(0 0 0)
(0 0 0)
(0 0 0)
(0 0 0)
(0 0 0)
(0 0 0)
(0 0 0)
(0 0 0)
(0 0 0)
(0 0 0)
(0 0 0)
(0 0 0)
(0 0 0)
(0 0 0)
(0 0 0)
(0 0 0)
(0 0 0)
(0 0 0)
(0 0 0)
(0 0 0)
(0 0 0)
(0 0 0)
(0 0 0)
(0 0 0)
(0 0 0)
(0 0 0)
(0 0 0)
(0 0 0)
(0 0 0)
(0 0 0)
(0 0 0)
(0 0 0)
(0 0 0)
(0 0 0)
(0 0 0)
(0 0 0)
(0 0 0)
(0 0 0)
(0 0 0)
(0 0 0)
(0 0 0)
(0 0 0)
(0 0 0)
(0 0 0)
(0 0 0)
(0 0 0)
(0 0 0)
(0 0 0)
(0 0 0)
(0 0 0)
(0 0 0)
(0 0 0)
(0 0 0)
(0 0 0)
(0 0 0)
(0 0 0)
(0 0 0)
(0 0 0)
(0 0 0)
(0 0 0)
(0 0 0)
(0 0 0)
(0 0 0)
(0 0 0)
(0 0 0)
(0 0 0)
(0 0 0)
(0 0 0)
(0 0 0)
(0 0 0)
(0 0 0)
(0 0 0)
(0 0 0)
(0 0 0)
(0 0 0)
(0 0 0)
(0 0 0)
(0 0 0)
(0 0 0)
(0 0 0)
(0 0 0)
(0 0 0)
(0 0 0)
(0 0 0)
(0 0 0)
(0 0 0)
(0 0 0)
(0 0 0)
(0 0 0)
(0 0 0)
(0 0 0)
(0 0 0)
(0 0 0)
(0 0 0)
(0 0 0)
(0 0 0)
(0 0 0)
(0 0 0)
(0 0 0)
(0 0 0)
(0 0 0)
(0 0 0)
(0 0 0)
(0 0 0)
(0 0 0)
(0 0 0)
(0 0 0)
(0 0 0)
(0 0 0)
(0 0 0)
(0 0 0)
(0 0 0)
(0 0 0)
(0 0 0)
(0 0 0)
(0 0 0)
(0 0 0)
(0 0 0)
(0 0 0)
(0 0 0)
(0 0 0)
(0 0 0)
(0 0 0)
(0 0 0)
(0 0 0)
(0 0 0)
(0 0 0)
(0 0 0)
(0 0 0)
(0 0 0)
(0 0 0)
(0 0 0)
(0 0 0)
(0 0 0)
(0 0 0)
(0 0 0)
(0 0 0)
(0 0 0)
(0 0 0)
(0 0 0)
(0 0 0)
(0 0 0)
(0 0 0)
(0 0 0)
(0 0 0)
(0 0 0)
(0 0 0)
(0 0 0)
(0 0 0)
(0 0 0)
(0 0 0)
(0 0 0)
(0 0 0)
(0 0 0)
(0 0 0)
(0 0 0)
(0 0 0)
(0 0 0)
(0 0 0)
(0 0 0)
(0 0 0)
(0 0 0)
(0 0 0)
(0 0 0)
(0 0 0)
(0 0 0)
(0 0 0)
(0 0 0)
(0 0 0)
(0 0 0)
(0 0 0)
(0 0 0)
(0 0 0)
(0 0 0)
(0 0 0)
(0 0 0)
(0 0 0)
(0 0 0)
(0 0 0)
(0 0 0)
(0 0 0)
(0 0 0)
(0 0 0)
(0 0 0)
(0 0 0)
(0 0 0)
(0 0 0)
(0 0 0)
(0 0 0)
(0 0 0)
(0 0 0)
(0 0 0)
(0 0 0)
(0 0 0)
(0 0 0)
(0 0 0)
(0 0 0)
(0 0 0)
(0 0 0)
(0 0 0)
(0 0 0)
(0 0 0)
(0 0 0)
(0 0 0)
(0 0 0)
(0 0 0)
(0 0 0)
(0 0 0)
(0 0 0)
(0 0 0)
(0 0 0)
(0 0 0)
(0 0 0)
(0 0 0)
(0 0 0)
(0 0 0)
(0 0 0)
(0 0 0)
(0 0 0)
(0 0 0)
(0 0 0)
(0 0 0)
(0 0 0)
(0 0 0)
(0 0 0)
(0 0 0)
(0 0 0)
(0 0 0)
(0 0 0)
(0 0 0)
(0 0 0)
(0 0 0)
(0 0 0)
(0 0 0)
(0 0 0)
(0 0 0)
(0 0 0)
(0 0 0)
(0 0 0)
(0 0 0)
(0 0 0)
(0 0 0)
(0 0 0)
(0 0 0)
(0 0 0)
(0 0 0)
(0 0 0)
(0 0 0)
(0 0 0)
(0 0 0)
(0 0 0)
(0 0 0)
(0 0 0)
(0 0 0)
(0 0 0)
(0 0 0)
(0 0 0)
(0 0 0)
(0 0 0)
(0 0 0)
(0 0 0)
(0 0 0)
(0 0 0)
(0 0 0)
(0 0 0)
(0 0 0)
(0 0 0)
(0 0 0)
(0 0 0)
(0 0 0)
(0 0 0)
(0 0 0)
(0.0245978 0.0234184 -0.0178841)
(-5.72659e-05 0.00452228 -0.00564689)
(0.0315133 0.0330973 -0.00593275)
(-0.0101015 0.0327585 -0.00686609)
(0.000873322 0.00161402 -0.00534022)
(-0.0155259 0.010928 -0.0128155)
(-0.0211915 0.00504091 -0.00731945)
(-0.021035 -0.0166826 -0.00178816)
(0.028172 0.0271065 -0.0284285)
(0.0222565 0.0449993 -0.0244439)
(0.00790343 0.0401466 -0.00267638)
(0.0253265 0.0602149 0.0292493)
(-0.0530066 0.0128292 0.010754)
(-0.00769637 0.0271484 -0.00306473)
(-0.0108883 0.0757474 -0.0137545)
(-0.12006 -0.0461311 -0.0080983)
(-0.12818 0.0551665 -0.0112188)
(-0.0596678 0.0765825 -0.0181227)
(-0.081453 0.0217854 -0.00760596)
(-0.158359 0.101562 -0.0166451)
(-0.176176 0.0228098 -0.0103695)
(-0.0741131 -0.0355624 -0.00205859)
(-0.060497 -0.0535887 -0.00556502)
(-0.175775 -0.0654741 -0.0221331)
(-0.11655 -0.100311 -0.0249051)
(-0.0603518 -0.0967298 -0.0173974)
(0.0451835 0.0109965 0.00741321)
(0.0242533 -0.0453411 -0.0270209)
(0.0659603 -0.10129 -0.027599)
(-0.0029861 0.0091588 0.0168444)
(-0.0892322 -0.0510063 -0.014456)
(-0.00709881 -0.123128 0.00229947)
(-0.0586949 -0.0116499 -0.0141072)
(-0.0618257 -0.021239 -0.0135305)
(-0.0996867 0.0298595 0.00683333)
(-0.0450976 0.0078382 -0.0110916)
(-0.102707 0.040379 0.00837689)
(-0.271166 0.0527158 0.0011481)
(-0.278889 0.0277324 -0.0294525)
(-0.298855 0.105923 -0.0296537)
(-0.274826 0.115297 -0.0365144)
(-0.196006 0.00964261 -0.054273)
(-0.123342 -0.0360042 -0.0634146)
(-0.229073 0.110117 -0.0501515)
(-0.156394 0.0770033 -0.0582907)
(-0.0573867 -0.0927709 -0.0500278)
(-0.0503454 0.0278447 -0.0509992)
(-0.00397148 0.0504302 -0.0268967)
(0.0201827 -0.0565472 -0.0207572)
(0.0410154 -0.159213 -0.0255377)
(0.00481639 -0.140463 -0.0128854)
(0.0619076 -0.251104 0.0351132)
(-0.0475562 -0.054167 0.0190985)
(0.0560345 -0.271242 0.00589147)
(0.117441 -0.246552 0.0243671)
(-0.0513225 0.00526361 0.000819605)
(-0.0640851 -0.00883182 -0.00166052)
(0.106016 -0.115404 0.0271193)
(0.117402 -0.109142 0.00982411)
(-0.117965 -0.0116278 0.0136492)
(-0.289193 0.164694 -0.0202994)
(0.0625085 -0.057035 0.0136887)
(-0.00865713 0.0160448 0.0211204)
(-0.264557 0.182706 -0.0396178)
(-0.178856 0.15076 -0.0445388)
(-0.226071 0.180688 0.00424108)
(-0.198253 0.206589 -0.0274854)
(-0.0840944 0.124181 -0.0551303)
(-0.0248897 0.073728 -0.0132623)
(-0.117492 0.189847 -0.0402491)
(-0.0263946 -0.116017 -0.016767)
(0.00416622 -0.178166 -0.0333921)
(0.124347 -0.241006 -0.00971481)
(-0.00923474 -0.0970351 -0.0467193)
(0.0627033 -0.135462 -0.0381429)
(0.20331 -0.224455 -0.017879)
(0.217134 -0.186309 -0.00934364)
(0.170538 -0.156488 -0.0334451)
(0.196488 -0.12953 -0.00919203)
(0.102227 -0.0689606 0.0166168)
(0.02983 -0.0156658 0.0104495)
(0.055578 -0.0417205 0.0144131)
(-0.00478023 0.00260873 0.00477315)
(-0.125252 0.10221 0.034262)
(-0.163633 0.166903 0.0056786)
(-0.0283001 0.0265264 0.0119913)
(-0.0339996 0.0349671 0.00999157)
(-0.0975486 0.146762 -0.0117026)
(0.0296261 -0.0540941 -0.0565923)
(0.113007 -0.0653781 -0.0511127)
(0.14863 -0.0520125 -0.00886862)
(0.0229835 -0.000879102 -0.00289121)
(0.035005 0.00406961 0.00848498)
(0.00189111 0.00425058 0.000576842)
(-0.00213422 0.00503816 -0.00185592)
(0.00042162 0.00165947 0.000392198)
(-0.0723324 0.0752412 -0.0452973)
(-0.1307 0.100446 -0.0401378)
(-0.0748709 0.0270398 -0.0443718)
(-0.083291 0.0992395 -0.00667077)
(-0.0669875 0.0922176 -0.024441)
(-0.234095 0.0111549 0.0237196)
(-0.167621 0.113911 0.0126802)
(-0.143729 0.0985634 0.0194289)
(-0.115027 0.0412087 -0.0552327)
(-0.130145 -0.0157733 -0.0722623)
(-0.213874 -0.0185762 -0.026751)
(-0.195683 0.00119789 -0.021715)
(-0.182818 -0.0534294 -0.0618833)
(-0.119095 -0.0745974 -0.0528385)
(-0.149551 -0.0659633 -0.0594281)
(0.0254487 -0.0241125 -0.0422914)
(0.0437056 -0.0752984 -0.0637909)
(-0.0233333 0.110723 0.0314931)
(0.0297634 0.0457966 0.0634767)
(0.00389056 0.129505 0.122228)
(-0.0258983 0.0421373 -0.0233105)
(-0.11317 0.145261 0.0620088)
(-0.00281473 0.00693559 0.115314)
(-0.0564746 0.115364 0.179699)
(-0.119123 -0.141779 -0.0694062)
(-0.131128 -0.0224307 -0.117642)
(-0.099954 -0.0661921 -0.103365)
(-0.160385 -0.0567024 -0.0278948)
(-0.0968185 -0.0714112 -0.0344512)
(-0.117759 0.0221833 -0.0682128)
(-0.0506972 0.00561675 -0.0954621)
(-0.0899475 -0.113817 -0.0646753)
(-0.0247791 0.00927439 -0.0379737)
(0.0323878 -0.0397022 0.107064)
(0.0335608 -0.0920832 0.0526023)
(0.0785215 -0.124864 0.109499)
(0.0492013 -0.113788 0.17085)
(0.0287121 -0.113301 0.0744333)
(0.0863541 -0.161705 0.165895)
(-0.0480244 0.0409433 -0.0997574)
(-0.0231164 0.0440353 -0.0296609)
(-0.0270221 0.0281906 -0.0425574)
(-0.0178588 0.0192644 -0.0932827)
(-0.00297693 0.0071002 -0.0449952)
(0.0342422 -0.215915 0.0972433)
(-0.020652 -0.192851 0.0204123)
(0.012069 -0.132346 0.118961)
(0.0213083 -0.191003 0.130593)
(-0.0527221 -0.154459 0.0258484)
(-0.0339188 0.071986 -0.0177776)
(-0.0984346 0.158906 -0.0871023)
(-0.0255802 0.0414389 -0.13557)
(-0.0129634 0.0287959 -0.0558954)
(-0.0353167 0.101458 -0.0747223)
(-0.0458864 -0.144799 -0.0344642)
(-0.0574765 -0.108188 -0.0366401)
(0.0336614 -0.186549 -0.0591004)
(-0.04443 -0.0891186 -0.107475)
(-0.0174949 -0.107833 -0.106128)
(-0.0947489 -0.127701 -0.093553)
(-0.126428 -0.135919 -0.10073)
(-0.0774101 -0.0818388 -0.125772)
(-0.104798 -0.0763418 -0.146558)
(-0.168133 0.189662 0.016811)
(-0.111239 0.112423 0.117965)
(-0.116329 0.107371 0.0521251)
(-0.18561 0.18347 0.116566)
(-0.116352 0.140026 0.0630634)
(-0.080406 0.0887771 0.116804)
(-0.0436715 0.0382222 0.0641154)
(-0.0676373 0.100817 0.0107179)
(-0.0517871 -0.054529 -0.139192)
(-0.120834 -0.0513057 -0.177937)
(-0.00042881 -0.019499 -0.101073)
(-0.0412201 -0.0129598 -0.138105)
(-0.148041 -0.040896 -0.180848)
(-0.0857904 -0.019809 -0.153579)
(-0.0630564 -0.0130024 -0.188803)
(0.0639982 0.0318179 0.0545528)
(-0.0176177 0.00903609 -0.0142406)
(0.0245006 0.0158606 -0.0011827)
(0.0476631 0.0983375 0.0501452)
(-0.0324736 -0.0240652 -0.0886797)
(0.0674518 0.0663479 0.0634297)
(-0.153296 0.100522 -0.0309176)
(-0.163974 0.0987988 -0.0251264)
(-0.273736 0.00901437 0.0480566)
(-0.23555 0.121672 0.0391463)
(-0.296412 0.042607 0.0882923)
(-0.239337 0.0108354 0.0682001)
(-0.268265 0.115398 0.0777237)
(-0.333429 0.00390791 0.123135)
(-0.262978 -0.0535746 0.0242384)
(-0.20143 -0.0683025 -0.0119195)
(-0.223074 -0.026498 0.0547851)
(-0.263876 -0.0700557 0.0720674)
(-0.195452 -0.0716604 0.0537791)
(-0.164119 -0.0605681 0.000690357)
(-0.155151 -0.0602267 0.0713288)
(0.00549203 -0.0747601 -0.0629512)
(-0.0535538 -0.0395091 0.0128648)
(-0.210965 0.158919 0.106041)
(-0.108934 -0.0551343 0.216677)
(-0.183665 0.0661133 0.266472)
(-0.0267703 0.0249747 -0.041943)
(-0.296063 0.15207 0.161699)
(-0.273756 -0.127506 0.327366)
(-0.289795 -0.0147296 0.330039)
(-0.0989481 -0.00992188 0.0549142)
(-0.0652331 0.0366675 -0.00777)