/*--------------------------------*- C++ -*----------------------------------*\
| =========                 |                                                 |
| \\      /  F ield         | OpenFOAM: The Open Source CFD Toolbox           |
|  \\    /   O peration     | Version:  5.x                                   |
|   \\  /    A nd           | Web:      www.OpenFOAM.org                      |
|    \\/     M anipulation  |                                                 |
\*---------------------------------------------------------------------------*/
FoamFile
{
    version     2.0;
    format      ascii;
    class       volScalarField;
    location    "0.6";
    object      voidfraction;
}
// * * * * * * * * * * * * * * * * * * * * * * * * * * * * * * * * * * * * * //

dimensions      [0 0 0 0 0 0 0];

internalField   nonuniform List<scalar> 
10571
(
0.45975
0.419156
0.937092
0.977123
0.667596
0.887468
0.989467
0.976098
0.972638
0.926926
0.426686
0.951996
0.983503
0.98202
0.972981
0.967209
0.561933
0.950216
0.985263
0.98253
0.944622
0.641919
0.837484
0.693159
0.421356
0.403877
0.461862
0.667455
0.5664
0.443331
0.892431
0.987356
0.993158
0.99886
0.40861
0.440576
0.989644
0.988798
0.993403
0.997735
0.431021
0.909332
0.992294
0.995322
0.996219
0.52266
0.983922
0.994232
0.4007
0.398913
0.434453
0.459978
0.877072
0.424221
0.639025
0.975083
0.996382
0.999962
0.407358
0.430476
0.944343
0.966551
0.99245
0.999132
0.431026
0.943268
0.99483
0.995858
1
0.865651
0.995723
0.99396
0.413881
0.402322
0.425708
0.731658
0.992143
0.421759
0.570322
0.966143
0.997511
1
0.416663
0.429273
0.926679
0.968405
0.995242
1
0.431623
0.984292
0.997464
0.997106
1
0.987349
0.997075
0.99797
0.815865
0.402814
0.42552
0.979757
0.997351
0.42069
0.814889
0.991367
0.998808
0.996531
0.431214
0.465981
0.985886
0.993833
0.998069
0.998213
0.947815
0.99829
0.997781
0.998693
1
0.998374
0.999366
1
0.966687
0.43733
0.734826
0.991738
0.996345
0.426865
0.976975
0.99749
0.999344
0.997201
0.743463
0.803606
0.951978
0.997441
0.997883
0.997856
0.997439
0.560514
0.998256
0.99932
0.999255
0.998918
1
1
1
1
0.972627
0.657087
0.987579
0.991025
0.996295
0.71913
0.996833
0.997991
0.999452
0.998868
1
0.993732
0.995061
0.997939
0.998581
0.998516
0.998411
0.998915
0.999098
0.999348
0.998471
0.999014
1
0.997619
0.998877
1
1
0.966144
0.896319
0.991764
0.997122
0.9936
0.982696
0.998249
0.999187
0.997056
0.998208
1
0.99934
0.998511
0.998894
0.998251
0.995871
1
1
0.998887
0.999668
0.998582
1
0.999144
1
1
1
1
0.988017
0.967008
0.994296
0.997698
0.997197
0.9927
0.998404
0.997821
0.996446
0.985153
1
0.993622
0.998105
0.99901
0.997651
0.995192
1
0.999174
0.999128
0.999506
0.998343
0.998811
1
0.997754
1
1
0.975814
0.988294
0.997368
0.996752
0.988108
0.995101
0.999219
0.998462
0.995227
0.978635
0.995052
0.998884
0.999664
0.998879
0.998114
0.995627
0.996812
0.999648
0.998337
1
1
0.998877
1
1
0.991095
0.996192
0.989242
0.998783
0.984796
0.998041
0.99919
0.998557
0.99281
0.974695
0.993622
1
0.99978
0.999363
0.998699
0.992662
0.99994
0.999883
0.999409
0.997127
1
0.999961
0.999275
1
0.986587
0.998376
0.994234
0.995101
0.962215
0.997062
0.999336
0.997896
0.994833
0.930934
0.9989
0.999662
0.999996
0.998323
0.996536
0.977035
0.999158
0.999762
0.999418
0.997731
0.998672
0.998877
1
1
0.996152
1
0.991234
0.994932
0.926159
0.998615
0.99947
0.996561
0.9928
0.898064
1
0.999425
0.999777
0.999346
0.996231
0.970768
1
0.999859
0.999414
0.999032
0.99594
1
0.999124
0.996009
0.990654
0.996752
0.992853
1
0.934477
0.999021
0.998653
0.994838
0.994782
0.935144
1
0.99902
0.999777
0.998854
0.99636
0.849742
0.999128
0.999742
0.999648
1
0.995869
1
0.999124
1
0.996372
0.996752
0.995954
0.994426
0.949018
0.998683
0.999222
0.99772
0.995497
0.961118
1
1
0.999888
0.999326
0.989916
0.871782
1
0.999766
0.999883
0.999599
0.859978
1
1
1
0.994942
0.991824
0.994134
0.994595
0.960133
0.997096
0.999329
0.998308
0.994928
0.967902
1
0.99902
0.999777
0.999663
0.989835
0.96753
0.998948
1
0.999171
0.994491
0.787094
1
0.999426
1
0.986694
0.998376
0.993461
0.993076
0.972629
0.997434
0.99937
0.998292
0.98654
0.963631
0.996812
0.997263
0.999735
0.999551
0.99026
0.981647
0.998677
0.999653
0.999547
0.98254
0.959456
0.998877
1
0.965268
0.992195
0.996752
0.997337
0.997399
0.991708
0.998042
0.999222
0.998983
0.984032
0.980187
0.99934
1
0.999815
0.99914
0.988307
0.875731
0.998256
0.999766
0.993988
0.972093
0.99489
1
0.999124
0.92944
0.990546
0.994064
0.999225
0.996859
0.992671
0.997704
0.998783
0.997939
0.985138
0.996705
1
1
0.999738
0.999214
0.987451
0.899674
1
0.999883
0.988337
0.970524
0.99384
1
0.998913
0.86742
1
0.995128
0.99791
0.998041
1
0.996657
0.999046
0.997866
0.986047
0.955194
1
0.999662
0.999173
0.998656
0.982892
0.922707
1
0.999774
0.986461
0.972494
0.99097
1
0.989312
0.91831
1
0.992441
0.995921
0.998987
0.998228
0.996218
0.999184
0.997724
0.987884
0.972864
0.998681
0.994762
0.998854
0.998052
0.976735
0.950275
1
0.999136
0.992282
0.994859
0.99377
1
0.987409
0.98145
1
0.986673
0.99518
0.99902
1
0.996894
0.999222
0.997091
0.994298
0.985191
0.990215
0.99706
0.999942
0.99832
0.973825
0.962578
1
0.99937
0.993224
0.997096
0.97781
1
0.978897
0.99328
0.965918
0.991545
0.997034
0.986557
0.996696
0.997062
0.998749
0.99812
0.995889
0.987828
1
0.996181
0.999754
0.997929
0.984987
0.986488
0.999128
0.997509
0.996596
0.99339
0.97095
0.999768
0.967605
0.99622
0.961515
0.989809
0.986145
0.990644
0.993782
0.997636
0.998371
0.997954
0.997068
0.988836
0.996812
0.996012
0.999246
0.997123
0.990528
0.992231
0.999128
0.998199
0.997756
0.990152
0.97592
0.998877
0.993267
0.99293
0.961181
0.991098
0.987291
0.966324
0.991469
0.997029
0.99807
0.998008
0.997262
0.987479
0.996812
0.996147
0.999388
0.997688
0.990702
0.99202
0.999128
0.997569
0.997684
0.989785
0.98383
0.988347
0.995924
0.98985
0.991312
0.994793
0.985742
0.982368
0.989155
0.993854
0.997032
0.997003
0.998053
0.991782
0.992302
0.993782
0.998954
0.997263
0.992615
0.995768
0.999248
0.992086
0.97468
0.975665
0.98012
0.986023
0.997102
0.99118
0.996811
0.994233
0.981763
0.996825
0.990989
0.998042
0.997604
0.997601
0.996814
0.98775
1
0.999358
0.998973
0.996267
0.992972
0.988937
0.999128
0.992918
0.991429
0.992422
0.95219
0.990941
0.997856
0.98992
0.995491
0.995241
0.997775
0.995643
0.985492
0.998987
0.997665
0.997268
0.997411
0.977324
0.998901
1
0.999042
0.996291
0.99255
0.988967
0.999158
0.997052
0.987641
0.978936
0.97424
0.988735
0.996709
0.99223
0.991754
0.999776
0.998989
0.978754
0.974799
0.999021
0.997837
0.997686
0.994463
0.981471
0.996812
0.998243
0.998238
0.996198
0.993936
0.986186
0.999639
0.991577
0.995824
0.987015
0.97767
0.989935
0.99686
0.98852
0.996812
1
0.995315
0.991826
0.993031
0.998379
0.995952
0.996611
0.993894
0.985964
0.996812
0.999155
0.998311
0.997398
0.995063
0.988665
0.997685
0.992736
0.998116
0.992756
0.98656
0.997019
1
0.9839
0.991643
0.9958
0.997708
0.996048
0.995763
0.998987
0.997715
0.994063
0.990917
0.996627
1
1
0.998238
0.997448
0.993596
0.985761
0.997565
0.998627
0.998193
0.997897
0.98915
0.99849
0.998249
0.99034
1
0.99944
0.998854
0.997061
0.997957
0.998042
0.998127
0.996262
0.992153
0.988523
1
0.999966
0.998377
0.998858
0.993823
0.978327
0.998316
0.998534
0.997619
0.997296
0.98502
0.998181
0.998219
0.99307
0.99835
0.996865
0.997135
0.998311
0.994772
0.998379
0.994983
0.999006
0.996466
0.998876
0.990436
0.99902
0.994711
0.998947
0.992907
0.977662
0.997414
0.997751
0.998775
0.993891
0.958489
1
0.999124
0.99244
0.997251
0.996752
0.998685
0.996115
0.999129
0.999054
0.997474
0.998453
0.997068
0.998178
0.996591
0.994525
0.987749
0.993998
0.992323
0.980594
0.99564
0.99851
0.998254
0.989251
0.97935
1
0.999124
0.99006
0.998351
0.998376
0.997977
0.995102
0.996304
0.997434
0.997512
0.998453
0.998276
0.998294
0.995382
0.998885
0.996
0.993096
0.994747
0.990962
0.997745
0.999491
0.997837
0.995527
0.9846
1
0.999426
1
1
0.991993
0.998011
0.99902
0.996635
0.999325
0.997615
0.99886
0.997904
0.996627
0.998131
0.989726
0.9971
0.996395
0.994378
0.995314
0.997204
0.999532
0.998387
0.997263
0.99272
1
0.99997
0.99328
1
0.997088
0.995213
0.998683
0.996335
0.995678
0.99578
0.99696
0.997375
0.997092
1
0.99804
0.996665
0.997692
0.996129
0.993046
0.999699
0.999415
0.998872
0.997296
0.995939
1
0.999124
0.9979
1
0.995128
0.997708
0.998345
0.997957
0.993314
0.996143
0.996036
0.996757
0.994339
0.99912
0.997296
0.998885
0.997634
0.994358
0.990446
0.999128
0.999532
0.999167
0.996261
1
1
0.996316
0.99727
1
0.99384
0.995449
0.998818
0.998318
0.995711
0.997722
0.99693
0.996999
0.97883
1
1
0.998611
0.997929
0.997629
0.98954
0.999128
0.999649
0.998674
0.998064
0.99986
1
0.999426
0.99524
1
0.996247
0.99882
0.999223
1
0.994564
0.997471
0.996082
0.993849
0.960927
0.99934
0.997701
0.999288
0.998165
0.996421
0.987365
1
0.999766
0.998464
0.996829
0.9965
1
0.99997
0.99797
1
0.995016
1
0.998885
0.998018
0.997704
0.998413
0.996331
0.98492
0.964377
1
1
0.998481
0.996775
0.991391
0.978478
1
0.999774
0.999491
0.997797
0.98908
1
1
0.99594
1
0.994232
0.999022
0.999662
0.999129
0.996995
0.998901
0.995306
0.994277
0.995116
1
1
0.999435
0.996043
0.988371
0.974518
1
0.999657
0.998913
0.990586
0.98915
1
0.999306
0.99867
1
0.998376
1
1
0.99976
0.999797
0.998916
0.997697
0.997468
0.994574
0.997911
1
0.999558
0.998649
0.995509
0.993199
1
0.999915
0.999187
0.998064
0.99531
1
0.998249
0.99573
1
1
1
1
1
1
0.999668
0.998887
0.998825
0.998876
1
1
0.999904
0.999574
0.997771
0.99737
1
0.999976
0.999305
0.997096
1
1
0.998792
1
1
1
0.998045
1
0.99997
1
0.99963
0.998887
0.999067
1
1
1
0.999781
0.999439
0.998196
0.998791
1
0.999891
0.999996
1
0.99867
1
1
0.9993
1
1
1
0.999358
0.999429
1
0.999489
0.998998
0.999689
0.998876
1
1
0.999888
0.999663
0.999368
0.998851
1
1
1
0.999032
1
1
0.999124
1
1
1
1
1
1
1
0.999668
0.999589
0.999766
1
1
1
0.999738
0.999888
0.999295
1
1
0.999883
1
1
1
1
1
1
1
1
1
1
1
1
0.999889
0.999666
0.999883
1
1
1
0.999704
0.999737
0.999805
1
1
1
0.999883
1
1
1
1
1
1
1
1
1
1
1
0.999889
0.999889
1
1
1
1
0.999777
1
0.999976
1
1
1
1
1
1
1
1
1
1
1
1
0.99902
1
1
1
0.999996
0.999883
1
1
1
1
0.999888
0.999907
1
1
1
1
0.9998
1
1
1
1
1
1
1
1
1
1
1
0.999889
0.999883
1
1
1
0.999888
0.999888
0.999765
1
1
1
1
1
1
1
0.999124
1
1
1
1
1
1
1
1
1
0.999923
1
1
1
1
1
0.999882
1
1
1
1
1
1
1
1
1
1
1
1
1
1
1
1
1
0.999842
1
1
1
1
1
0.999882
1
1
1
1
1
1
1
1
1
1
1
1
1
1
1
1
1
1
1
1
1
1
1
1
1
1
1
1
1
1
1
1
1
1
1
1
1
1
1
1
1
1
0.998876
1
1
1
1
1
1
1
1
1
1
1
1
1
1
1
1
1
1
1
1
1
0.999889
1
1
1
1
1
1
1
0.998186
1
1
1
1
1
1
1
1
1
1
1
1
1
1
1
1
1
1
1
1
1
1
1
0.999123
1
1
1
1
1
1
1
1
1
1
1
1
1
1
1
1
1
1
1
1
1
1
1
1
1
1
1
1
1
1
1
1
1
1
1
1
1
1
1
0.999965
1
1
1
1
1
1
1
1
1
1
1
1
1
1
1
1
1
1
1
1
1
1
1
1
1
1
1
1
1
1
1
1
1
1
1
1
1
1
1
1
1
1
1
1
1
1
1
1
1
1
1
1
1
1
1
1
1
1
1
1
1
1
1
1
1
1
1
1
1
1
1
1
1
1
1
1
1
1
1
1
1
1
1
1
1
1
1
1
1
1
1
1
1
1
1
1
0.999877
1
1
1
1
1
1
1
0.992825
1
1
1
1
1
1
1
1
1
1
1
1
1
1
1
1
1
1
1
1
1
1
1
1
1
1
1
1
1
1
1
1
1
1
1
1
1
1
1
1
1
1
1
1
1
1
1
1
1
1
1
1
1
1
1
1
1
1
1
1
1
1
1
1
1
1
1
1
1
1
1
1
1
1
1
1
1
1
1
1
1
1
1
1
1
1
1
1
1
1
1
1
1
1
1
1
1
1
1
1
1
1
1
1
1
1
1
1
1
1
1
1
1
1
1
1
1
1
1
1
1
1
1
1
1
1
1
1
1
1
1
1
1
1
1
1
1
1
1
1
1
1
1
1
1
1
1
1
1
1
1
1
1
1
1
1
1
1
1
1
1
1
1
1
1
1
1
1
1
1
1
1
1
1
1
1
1
1
1
1
1
1
1
1
1
1
1
1
1
1
1
1
1
1
1
1
1
1
1
1
1
1
1
1
1
1
1
1
1
1
1
1
1
1
1
1
1
1
1
1
1
1
1
1
1
1
1
1
1
1
1
1
1
1
1
1
1
1
1
1
1
1
1
1
1
1
1
1
1
1
1
1
1
1
1
1
1
1
1
1
1
1
1
1
1
1
1
1
1
1
1
1
1
1
1
1
1
1
1
1
1
1
1
1
1
1
1
1
1
1
1
1
1
1
1
1
1
1
1
1
1
1
1
1
0.483221
0.522186
0.618713
0.719994
0.518406
0.688799
0.561096
0.497862
0.461055
0.495346
0.753876
0.733795
0.97068
0.955371
0.956077
0.955016
0.952214
0.920314
0.883014
0.897568
0.870985
0.703793
0.53993
0.819242
0.703868
0.539176
0.539081
0.510339
0.632978
0.955454
0.968234
0.953114
0.974249
0.959545
0.93174
0.923268
0.908112
0.873933
0.838196
0.923704
0.888774
0.7957
0.73243
0.765492
0.739935
0.621223
0.67655
0.534779
0.497279
0.628521
0.510387
0.938617
0.927772
0.828192
0.849026
0.893513
0.887967
0.821062
0.891666
0.914359
0.872292
0.943281
0.885126
0.791592
0.743679
0.833567
0.766018
0.699826
0.606045
0.669014
0.484961
0.634856
0.8433
0.486734
0.616966
0.765167
0.808327
0.733118
0.778689
0.878929
0.877269
0.878093
0.826546
0.878755
0.760862
0.709834
0.575994
0.674185
0.530444
0.600687
0.704219
0.535841
0.701569
0.642066
0.549863
0.523299
0.433919
0.407773
0.45714
0.50371
0.598766
0.42204
0.432001
0.441292
0.589759
0.481094
0.419714
0.443467
0.430124
0.424393
0.407101
0.414833
0.390487
0.596978
0.589758
0.974887
0.407055
0.453891
0.442675
0.776186
0.523992
0.93179
0.900783
0.595299
0.580377
0.925695
0.944549
0.812746
0.96916
0.455584
0.426206
0.502085
0.42634
0.402842
0.432302
0.931686
0.828491
0.998283
0.997868
0.996074
0.504425
0.452915
0.407723
0.436912
0.422947
0.959744
0.959894
0.998989
0.994272
0.995129
0.425257
0.40765
0.956091
0.429324
0.675637
0.443623
0.881684
0.41164
0.583443
0.951531
0.925911
0.816155
0.991664
0.989763
0.984029
0.974216
0.994971
0.450058
0.421033
0.795515
0.521037
0.553145
0.794609
0.470245
0.806078
0.53173
0.897873
0.941364
0.558771
0.947154
0.406816
0.408242
0.425864
0.422957
0.426412
0.410579
0.427261
0.423744
0.430332
0.434621
0.414706
0.427463
0.441451
0.415633
0.414617
0.393894
0.401057
0.424114
0.430472
0.477617
0.401777
0.420674
0.430105
0.437198
0.653265
0.923415
0.951893
0.691134
0.805261
0.980648
0.991258
0.971123
0.994056
0.433188
0.40827
0.428506
0.427527
0.391137
0.424963
1
1
1
0.99914
1
0.430838
0.433735
0.40592
0.426791
0.434485
0.996033
0.998713
0.99914
1
0.998862
0.410912
0.417438
0.763039
0.417841
0.489818
0.435493
0.5877
0.419747
0.473235
0.995241
0.99541
0.994097
0.996016
0.997434
0.998149
0.998403
0.999932
0.418627
0.430816
0.805843
0.640489
0.575216
0.874434
0.823847
0.994704
0.903264
0.99126
0.995105
0.986216
0.995621
0.402995
0.40251
0.407785
0.431896
0.424943
0.41178
0.425657
0.421116
0.42965
0.445298
0.420595
0.432225
0.517959
0.497734
0.783962
0.403323
0.398822
0.422386
0.420479
0.435111
0.400917
0.42118
0.417344
0.424158
0.964949
0.990505
0.998777
0.98542
0.995126
0.997258
0.996207
0.998822
0.996374
0.425627
0.41064
0.417217
0.417984
0.413967
0.422382
1
1
1
1
1
0.422392
0.433938
0.396624
0.42563
0.428922
1
0.998194
1
1
1
0.411606
0.404768
0.473581
0.426454
0.455687
0.43472
0.451781
0.423313
0.502975
0.998255
0.997661
0.998377
0.996457
0.998239
0.998123
1
1
0.482044
0.648671
0.986002
0.990495
0.977601
0.996505
0.987287
0.998463
0.996723
0.998223
0.998879
0.993644
0.996647
0.407977
0.403952
0.404703
0.432109
0.427897
0.410743
0.428141
0.433489
0.47997
0.831974
0.538987
0.738197
0.966987
0.964121
0.992399
0.39711
0.397634
0.416366
0.418499
0.427511
0.406308
0.422518
0.421627
0.416107
0.995113
0.995963
0.99858
0.998407
0.998369
0.999868
0.997393
1
1
0.429648
0.404572
0.41885
0.433255
0.403907
0.413964
1
0.996807
0.998124
0.999117
1
0.428441
0.431716
0.402482
0.426221
0.433411
1
0.998332
1
1
0.999258
0.415967
0.422138
0.577699
0.434382
0.734142
0.5784
0.913523
0.760095
0.961305
0.99997
0.998937
1
0.998362
0.999113
0.999148
0.998359
1
0.865057
0.990346
0.998492
0.996819
0.998142
0.998248
0.996817
0.997755
1
0.999426
0.997753
1
1
0.407871
0.426355
0.563284
0.426697
0.542222
0.910387
0.456624
0.833285
0.927572
0.96414
0.909959
0.959302
0.979697
0.988347
0.993647
0.418054
0.41529
0.417559
0.419983
0.422439
0.415128
0.421721
0.42229
0.424224
0.988908
0.99904
0.999117
0.996501
0.996399
0.998968
0.998234
0.99799
0.996472
0.424591
0.408338
0.429613
0.434577
0.437993
0.423457
0.999106
1
0.99884
0.998171
0.975331
0.431044
0.618736
0.529484
0.637053
0.948691
0.999897
0.998843
0.995732
0.965711
0.99996
0.832872
0.982909
0.994694
0.978852
0.995551
0.993806
0.996041
0.998369
0.999697
0.998219
0.998232
1
0.996631
0.99911
0.998961
0.99836
1
0.992024
0.997551
1
1
0.998877
1
1
1
0.999122
0.998248
1
1
1
0.474002
0.840297
0.953268
0.787463
0.965199
0.967123
0.962994
0.970589
0.978904
0.989768
0.963829
0.977509
0.992869
0.98855
0.993303
0.436791
0.449518
0.430558
0.428221
0.434387
0.462058
0.659662
0.432537
0.60068
0.998435
1
0.996315
0.995409
0.991744
0.998718
0.997271
0.996717
0.99301
0.438176
0.463925
0.447979
0.448788
0.599391
0.584823
0.97548
0.998292
0.915186
0.998987
0.998792
0.997981
0.999931
0.531059
0.562442
0.391637
0.997112
0.986917
0.996497
0.953405
0.895374
0.994927
0.975148
0.982788
0.997715
0.90445
0.999381
0.98737
0.99964
0.997013
0.99965
0.997028
0.393373
0.800361
0.51361
0.995437
0.934942
0.995255
0.975621
0.997907
0.997977
1
0.997806
1
0.999128
1
0.998931
0.997366
0.999118
0.996816
0.997417
0.998058
0.999207
1
1
1
0.994333
0.997971
1
1
1
1
1
0.998874
1
0.999124
1
1
1
0.971349
0.986546
0.949204
0.97627
0.9811
0.960199
0.981651
0.977254
0.987332
0.986404
0.973178
0.982152
0.99547
0.997075
0.991513
0.473963
0.517839
0.954028
0.503985
0.921755
0.819188
0.981119
0.714518
0.984754
0.995185
0.999494
0.996835
0.99519
0.980279
1
0.996729
0.994842
1
0.994059
0.998919
1
1
1
1
0.476106
0.827241
0.816277
0.653428
0.960081
0.966375
1
0.998996
0.999937
0.99769
0.999414
0.996425
0.997862
0.998276
0.999974
1
1
0.999442
1
1
0.991606
0.998877
0.993402
0.996424
0.995507
0.999022
0.999115
1
0.999931
0.999749
1
1
0.999096
0.998127
1
0.999724
1
1
1
0.995954
0.996233
0.99967
0.998425
1
0.99988
0.998416
0.998369
1
0.999436
0.999115
0.999457
1
1
1
1
0.997846
0.99955
1
1
1
1
0.997971
1
0.999124
1
0.998877
0.999124
1
1
1
0.998611
0.999534
1
0.997975
0.989822
0.980272
0.982958
0.989819
0.977952
0.97955
0.982968
0.981677
0.991637
0.989625
0.987908
0.995364
0.991249
0.997357
0.989769
0.639272
0.857393
0.987533
0.836547
0.994071
0.920293
0.985525
0.925814
0.994234
0.987346
1
0.993375
0.99609
0.983858
0.999024
0.994187
0.992013
0.99867
0.98588
1
1
1
1
1
0.865948
0.995711
0.991912
0.949716
0.996701
0.994699
0.99826
0.996328
0.999079
0.994059
0.999161
0.999012
0.999968
1
1
1
0.999266
1
1
1
0.997091
0.998877
0.993732
0.999121
0.998877
0.999746
0.998859
1
0.998978
0.999351
0.999131
0.99997
1
0.999458
1
1
0.998194
0.999646
0.999256
0.995954
0.997837
1
0.999156
0.99894
0.998316
1
1
1
1
1
1
0.99803
0.998845
0.999695
1
1
0.998621
1
1
0.997906
1
1
1
1
0.996817
1
1
1
1
1
1
1
1
1
0.993517
0.98808
0.970204
0.982736
0.989309
0.993733
0.987923
0.985311
0.990545
0.996553
0.983729
0.988515
0.991981
0.991916
0.99442
0.962172
0.993939
0.991069
0.972282
0.987817
0.990478
0.99137
0.992341
0.99404
0.989356
0.999529
0.991441
0.996443
0.984792
0.998632
0.992022
0.985139
0.983675
0.987458
0.996811
0.995608
0.995897
0.993622
0.996759
0.996988
0.994979
0.996594
0.977491
0.998374
0.987943
0.992762
1
1
1
1
1
1
1
0.995636
0.997715
1
0.999697
0.997212
0.998601
1
1
0.996319
0.998684
0.998114
1
1
1
1
1
1
1
1
0.997977
0.997977
0.999043
1
0.999122
0.998827
1
1
1
0.998242
0.999114
0.998401
0.997773
0.999121
1
1
1
1
0.997971
1
1
1
1
0.996817
1
1
0.999124
0.998875
1
1
0.999442
0.985154
0.980098
0.994117
0.993458
0.980868
0.988428
0.982163
0.988395
0.995817
0.986698
0.989366
0.992682
0.987863
0.992887
0.994775
1
0.994517
0.996871
0.998665
0.993559
0.986728
0.996573
0.996549
0.978793
0.997974
0.987195
0.989956
0.97051
0.996527
0.98349
0.977349
0.989724
0.993923
0.991533
1
0.99911
0.9989
0.997001
0.989883
0.993221
0.970146
0.978016
0.964661
0.997576
0.999071
0.99967
0.995546
0.999613
0.998615
1
0.99558
0.987679
0.99885
1
1
0.999076
0.999662
0.999273
0.999429
1
0.997806
1
0.999113
0.999116
0.998365
1
1
1
1
0.997997
0.99993
0.996012
0.999124
1
0.998916
1
1
1
1
0.999094
0.998876
1
1
0.988082
0.993727
0.984606
0.98661
0.98819
0.981308
0.983283
0.986374
0.990882
0.99431
0.988676
0.993548
0.988582
0.977412
0.974208
0.99798
1
0.992331
0.999136
0.997168
0.994344
0.995956
0.998272
0.997494
0.960796
0.992018
0.965533
0.981949
0.916096
0.990216
0.923067
0.968921
0.932592
0.998103
0.993622
1
0.995665
0.996811
0.998546
0.968195
0.966205
0.958115
0.956198
0.938683
0.999121
0.995508
1
0.99594
0.998451
0.976365
1
0.97836
0.965748
0.996401
0.997977
1
1
1
1
1
1
1
0.999122
0.999146
0.999088
1
0.999032
0.99997
1
1
0.999302
1
1
1
1
0.997909
0.999879
1
0.999845
1
0.999487
1
0.998683
0.99797
0.991427
0.98871
0.984166
0.993073
0.986737
0.987245
0.993112
0.994126
0.994578
0.986298
0.990324
0.989157
0.991949
0.979366
0.976926
0.99798
0.99798
0.995087
0.997289
0.996843
0.996752
0.992811
0.997527
0.998308
0.838623
0.993577
0.902741
0.947674
0.824711
0.986
0.925116
0.863556
0.898197
0.996865
0.995712
0.997547
0.998374
0.997911
0.99894
0.940418
0.90144
0.903012
0.924885
0.856316
0.998364
0.998877
0.997911
0.998061
0.998877
0.952968
0.997524
0.973101
0.942959
0.993963
1
1
0.999011
1
1
1
1
1
1
0.997043
1
1
0.997463
0.998201
0.999118
0.998361
0.994542
1
1
1
1
0.998916
0.999124
1
1
1
0.997373
1
1
0.99993
0.988988
0.990731
0.993843
0.98963
0.991673
0.986256
0.981117
0.98153
0.992307
0.991291
0.992413
0.995305
0.987652
0.967582
0.95336
1
0.99805
0.994818
0.99565
0.99795
0.996248
0.995237
0.99711
0.996746
0.840694
0.982307
0.943247
0.930483
0.881538
0.983986
0.956342
0.904315
0.903041
0.998645
1
0.998243
1
1
0.999122
0.897424
0.82902
0.940613
0.911334
0.789412
0.998879
0.998064
1
1
0.998877
0.901628
0.986142
0.942376
0.873161
0.981107
1
1
1
0.998369
1
0.999459
0.998285
0.997806
0.99997
0.998231
0.999118
1
1
0.998048
1
1
0.99881
1
1
1
1
0.997755
1
1
1
1
1
0.999961
1
0.99804
0.987873
0.988431
0.985156
0.987192
0.992491
0.980868
0.987541
0.994096
0.990368
0.980839
0.988455
0.991701
0.986684
0.968418
0.978527
0.997841
1
0.989576
0.998153
0.99821
0.995632
0.991913
0.998719
0.999577
0.887493
0.992355
0.966598
0.930331
0.888168
0.990905
0.961665
0.93046
0.938924
1
1
1
0.996826
0.996811
0.99679
0.921986
0.730674
0.956774
0.924648
0.81099
0.999121
1
1
1
1
0.700066
0.965271
0.823584
0.753373
0.811018
1
1
1
1
1
1
0.99967
1
0.998729
0.996675
0.999118
0.998361
0.998998
0.997285
0.99997
0.995027
0.966393
1
1
1
1
0.998877
1
1
1
1
0.999124
1
1
1
0.987943
0.982925
0.992963
0.985103
0.987343
0.991533
0.996634
0.990825
0.997335
0.990129
0.996811
0.994881
0.987691
0.97539
0.976366
0.99798
1
0.991973
0.99997
0.994957
0.996416
0.992392
0.998302
0.995445
0.926214
0.982437
0.974888
0.944782
0.918402
0.985271
0.976158
0.944733
0.972087
0.996091
0.99934
0.999697
0.997368
0.994282
0.999122
0.958421
0.900107
0.97174
0.975307
0.941692
0.999121
0.998529
1
0.999121
0.999109
0.824596
0.701494
0.928983
0.896362
0.790154
0.997907
0.99986
1
1
0.999122
0.999429
0.999044
1
1
0.982368
0.99775
0.994518
0.998698
0.911442
1
0.994461
0.750617
1
1
0.999124
1
0.997755
1
0.996817
0.997754
1
1
1
1
1
0.989825
0.986549
0.987905
0.989437
0.997335
0.992523
0.99555
0.99128
0.995154
0.991794
1
0.997062
0.995936
0.98278
0.991425
0.99993
0.998398
0.99362
0.999136
0.997169
0.998208
0.991883
1
0.999935
0.949985
0.97957
0.964268
0.961185
0.952626
0.978944
0.954949
0.972437
0.959704
0.998104
0.996811
0.998244
0.998839
0.995712
0.998244
0.987109
0.956544
0.968561
0.98263
0.980417
0.998273
0.998296
1
0.999939
0.998877
0.942301
0.907195
0.979804
0.974173
0.939795
0.997489
0.99993
1
0.998144
0.999122
0.99994
0.999077
1
1
0.792928
0.994892
0.957726
0.977898
0.832494
0.959562
0.82774
0.910455
1
1
1
1
1
1
0.996817
0.998838
1
0.999698
0.998915
1
0.994049
0.990592
0.997979
0.993621
0.988276
0.993551
0.990435
0.994854
0.993248
0.994215
0.995006
0.994613
0.991428
0.99462
0.992609
0.99059
0.999582
1
0.994879
0.997408
0.997625
0.991768
0.995986
0.997467
0.997592
0.970717
0.979374
0.959877
0.989546
0.976233
0.974196
0.973317
0.97677
0.981115
0.997717
0.994722
0.998244
0.998645
1
0.994912
0.971522
0.977776
0.979458
0.940422
0.966557
0.999091
0.997793
1
0.999273
0.996592
0.981316
0.972003
0.95408
0.982636
0.985909
1
1
0.999736
1
1
0.999008
0.999934
0.998313
0.999152
0.931783
0.907562
0.797357
0.97252
0.958577
0.898671
0.916371
0.97487
1
1
1
0.996817
1
0.999124
1
0.998877
1
0.998792
0.999303
1
0.96367
0.997979
0.990939
0.991865
0.991798
0.996367
0.997471
0.995279
0.998546
0.994367
0.995124
0.994282
0.995062
0.995664
0.992123
0.997978
0.993244
0.991571
0.997993
0.99857
0.998016
0.996752
0.991972
0.997706
0.997787
0.982014
0.97799
0.987473
0.994532
0.997303
0.991003
0.989502
0.989295
0.997132
0.998878
1
0.998819
0.995084
1
0.99685
0.948521
0.950491
0.988915
0.976187
0.948736
0.997365
0.998877
0.997471
0.997364
1
0.924493
0.985249
0.874363
0.86285
0.975531
0.997977
0.997977
1
1
0.998245
1
1
0.998313
0.998547
0.967456
0.898709
0.952083
0.969779
0.98386
0.906004
0.979764
0.988096
0.998391
0.99958
1
1
1
1
1
0.993107
1
0.997675
0.980747
1
0.892863
0.994844
0.99303
0.99989
0.996054
0.996488
0.996811
0.991796
0.994731
0.998819
0.996594
0.994831
0.997304
0.995432
0.994005
0.995956
0.987602
0.998677
0.993411
0.996246
0.999349
0.99244
0.994907
0.996037
0.996095
0.993539
0.99206
0.992498
0.996545
0.997527
0.994529
0.993554
0.993915
0.995242
0.995163
1
0.999939
0.997716
0.994721
0.997092
0.975644
0.925093
0.988833
0.950152
0.894368
0.99997
0.996903
0.99813
0.998455
0.997134
0.816604
0.959083
0.909527
0.843912
0.970686
1
0.995955
0.999802
0.996794
0.999697
1
0.999802
1
0.999697
0.990545
0.948443
0.983726
0.969078
0.991518
0.965546
0.994687
0.995518
1
0.998391
0.999124
1
0.999768
1
0.996817
0.960267
1
0.991
0.951537
1
0.923464
0.99338
0.994006
1
0.995589
0.996548
1
0.997446
0.999122
0.997244
0.998181
0.996811
0.998061
0.999845
0.997909
0.994213
1
0.993801
0.992003
0.997617
0.997853
0.99468
0.996885
0.997616
0.99808
1
0.992093
0.995795
0.996274
0.997302
0.994035
0.995824
0.992726
0.979219
0.990364
0.995712
0.997669
0.99671
0.993512
0.997092
0.946417
0.887914
0.963709
0.965739
0.918025
0.999424
0.999303
0.996811
0.99794
0.999961
0.906379
0.957767
0.933778
0.915911
0.970919
0.998675
1
0.999242
1
0.99885
0.999128
0.999967
1
0.999122
0.991978
0.975407
0.983331
0.986776
0.99106
0.985495
0.998135
0.994958
1
0.998531
0.998248
0.996817
0.99969
0.998429
0.993635
0.960577
0.996708
0.983329
0.952777
0.996817
0.936068
0.995958
0.995957
1
1
0.998274
0.996811
0.997755
0.999122
0.999152
0.996632
1
0.99997
1
0.99993
0.997909
0.99993
0.994009
0.993711
0.994162
0.995088
0.98807
0.997304
0.99553
0.993719
0.997696
0.99575
0.995583
0.995674
0.99674
0.997891
0.997882
0.996362
0.990835
0.994969
0.996922
0.995761
0.997716
0.996811
0.992458
0.97773
0.945876
0.97519
0.981903
0.983937
0.996577
0.998877
0.995821
0.994243
0.995508
0.934949
0.973677
0.951831
0.946578
0.956204
1
0.996513
0.999077
1
0.999122
0.998887
1
1
0.997366
0.993473
0.990211
0.996666
0.991852
0.988772
0.994131
0.999943
0.987396
1
0.997971
0.998641
0.996817
0.998877
0.998007
1
0.954648
0.990671
0.984931
0.961768
0.987709
0.989216
0.993031
0.999024
1
0.997756
0.997215
0.992962
0.995511
0.99143
1
0.999265
0.995492
0.992548
0.994387
0.993934
0.997978
0.995961
0.985928
0.991704
0.996574
0.993396
0.991768
0.992331
0.995262
0.995542
0.99837
0.995882
0.994283
0.998257
0.999944
0.996671
0.996671
0.995383
0.985658
0.998839
0.997691
0.994883
0.996632
0.996811
0.996638
0.9895
0.968428
0.984028
0.987653
0.973925
0.99479
0.997057
1
0.997667
0.995741
0.954948
0.963844
0.968764
0.967573
0.961238
1
1
0.998088
1
1
0.998256
1
1
1
0.986519
0.996838
0.994575
0.992654
0.984592
0.997963
0.987677
0.972411
1
0.997971
0.999124
0.99989
1
0.996466
1
0.971343
0.989026
0.970644
0.984001
0.992317
0.99867
0.993937
0.994982
0.979442
0.997679
0.956769
0.972067
0.984792
0.943459
0.95336
0.981536
0.937325
0.937207
0.974181
1
0.994981
0.989133
0.998816
0.995478
0.988561
0.994209
0.990872
0.995866
0.994726
0.996941
0.99674
0.998419
0.997852
0.996875
0.997696
0.999044
0.997428
0.988666
0.992375
0.997717
0.996811
0.994731
0.99671
0.996811
0.998365
0.988623
0.978218
0.987556
0.988591
0.980746
0.996941
0.996128
1
0.999485
0.997754
0.979891
0.962683
0.990959
0.997582
0.976417
0.99993
0.997977
0.999044
1
0.999122
1
1
0.998369
0.99997
0.975295
0.99544
0.989433
0.989147
0.965736
0.990269
0.988808
0.96989
1
1
0.996316
0.997915
0.998722
0.9823
0.991879
0.986369
0.982551
0.979373
0.99446
0.983866
0.988306
0.991149
0.984667
0.949747
0.967262
0.971081
0.965586
0.972839
0.970753
0.969348
0.969305
0.969546
0.963836
0.969769
0.9825
0.981666
1
0.998537
0.989339
0.996276
0.994339
0.998712
0.996615
0.992492
0.994338
0.993369
0.999012
0.99643
0.985398
0.998202
0.997429
0.994825
0.988529
0.988805
0.997988
1
0.995609
0.999768
0.996811
0.997365
0.987443
0.985149
0.988563
0.990346
0.991418
0.995244
0.997754
0.991313
0.995364
0.998877
0.996703
0.9832
0.992259
0.994394
0.985324
0.999582
0.992326
0.999044
0.998369
0.999939
0.998256
0.998714
1
0.999122
0.969408
0.993403
0.980901
0.992921
0.972784
0.989265
0.979933
0.983474
1
0.997971
0.9743
0.977828
0.996864
0.978736
0.983318
0.997754
0.99583
0.994775
0.99663
0.997915
0.989426
0.997073
0.98627
0.978335
0.983205
0.972989
0.984939
0.98522
0.969512
0.978162
0.971356
0.973177
0.972983
0.983471
0.962913
0.977201
1
0.999303
0.993262
0.996723
0.996552
0.99888
0.995776
0.995292
0.988838
0.985055
0.997463
0.995704
0.988582
0.989321
0.992222
0.99537
0.988807
0.987407
0.997755
0.996811
0.999122
0.998878
0.996811
0.997365
0.991316
0.989329
0.987052
0.990255
0.984047
0.995578
1
0.996811
0.996152
0.998877
0.986594
0.990709
0.99232
0.99989
0.994888
1
1
0.999374
1
0.999122
0.99982
1
0.996737
0.998819
0.977369
0.996018
0.980901
0.987211
0.973425
0.984309
0.979707
0.978573
0.997971
0.996362
0.98182
0.990012
0.981765
0.993899
0.996708
0.992874
0.993525
0.993899
0.998838
0.989464
0.991177
0.985993
0.992891
0.958324
0.986536
0.97481
0.987026
0.973067
0.975805
0.982796
0.990438
0.990656
0.990308
0.995084
0.977059
0.987732
0.99394
0.99798
0.989368
0.997289
0.991151
0.993503
0.988616
0.998123
0.99463
0.991122
0.985108
0.987869
0.982545
0.987468
0.992815
0.987956
0.976146
0.969986
1
0.990432
0.996487
1
0.997911
1
0.991951
0.989329
0.986393
0.992888
0.977006
0.997698
0.996399
0.994613
0.997395
0.997057
0.985605
0.990942
0.991503
0.979115
0.984898
0.998187
0.99993
1
0.999775
0.998154
1
0.997889
1
0.998819
0.976881
0.98176
0.97994
0.966607
0.959482
0.967401
0.974394
0.973041
0.990345
0.995663
0.990578
0.990341
0.99218
0.98819
0.993744
0.99241
0.999342
0.993658
0.993569
0.998793
0.979623
0.997909
0.998397
0.993621
0.983631
0.989401
0.993624
0.985104
0.988949
0.993851
0.994581
0.996812
0.996668
0.992839
0.991425
0.989124
0.99798
0.999861
0.996796
0.993745
0.99473
0.994287
0.989664
0.998361
0.997559
0.983481
0.990676
0.983907
0.991527