/*--------------------------------*- C++ -*----------------------------------*\
| =========                 |                                                 |
| \\      /  F ield         | OpenFOAM: The Open Source CFD Toolbox           |
|  \\    /   O peration     | Version:  5.x                                   |
|   \\  /    A nd           | Web:      www.OpenFOAM.org                      |
|    \\/     M anipulation  |                                                 |
\*---------------------------------------------------------------------------*/
FoamFile
{
    version     2.0;
    format      ascii;
    class       volScalarField;
    location    "9.4";
    object      p;
}
// * * * * * * * * * * * * * * * * * * * * * * * * * * * * * * * * * * * * * //

dimensions      [0 2 -2 0 0 0 0];

internalField   nonuniform List<scalar> 
10571
(
46.2092
70.3602
63.2417
49.6868
54.6656
73.4518
70.7415
57.4851
57.5915
72.4174
79.1171
81.3422
82.3844
86.0627
72.9804
75.3462
95.4098
107.474
111.799
106.737
95.7702
111.924
122.581
131.164
50.0377
66.123
50.9622
48.656
49.1851
67.7881
47.0804
40.1398
48.576
53.581
75.1636
75.1013
66.9194
39.344
63.2144
68.7196
80.5467
86.1161
68.1215
75.883
66.8168
83.8877
82.7133
75.5037
47.0068
59.6342
44.4639
43.3925
43.7212
64.8805
37.0932
34.2397
40.1251
42.0504
64.0498
66.8259
38.2231
23.9013
38.1024
49.6971
58.7662
23.2179
24.3765
38.3336
40.4731
41.5063
37.1173
22.1188
41.2771
49.9487
39.215
34.1731
33.9952
56.8776
33.261
28.2635
30.0336
23.456
23.0597
33.9187
20.8059
23.628
22.1057
24.4903
17.2923
13.9601
19.3016
15.241
16.546
14.2429
15.7495
15.221
14.3806
23.3429
24.5413
17.6793
13.7704
19.2007
24.4986
25.7861
15.6755
13.2974
13.2426
13.0873
14.0257
29.2027
15.0495
13.916
13.5545
13.477
15.8205
14.0128
14.0934
13.9039
14.3006
14.8989
14.0028
13.2258
13.1286
12.5472
13.4816
13.3015
13.9129
18.5238
11.9063
13.461
13.924
13.3052
13.344
12.7087
18.7321
13.5644
13.729
13.8083
13.5494
13.1531
12.6533
13.0106
13.7053
13.7714
13.92
14.0197
13.615
13.2873
13.2742
13.3457
13.4149
13.2741
12.988
11.1384
13.0973
13.6406
13.8727
13.3216
13.319
13.1164
12.4963
13.6448
13.6244
13.8017
13.4896
13.1795
12.9685
13.4024
13.7444
13.8344
13.6137
13.4651
13.6048
13.4955
13.3071
13.2802
13.386
13.4122
13.2858
13.2543
13.0108
13.5384
13.683
13.8645
13.339
13.3229
13.3329
13.8771
13.674
13.5853
13.7982
13.4275
13.2413
13.3305
13.6077
13.6801
13.8214
13.4779
13.3955
13.5354
13.4565
13.3024
13.2846
13.4172
13.4536
13.2798
13.2132
13.5704
13.7721
13.9368
13.958
13.3211
13.3171
13.3359
13.8721
13.6247
13.7074
13.8598
13.3325
13.2481
13.3567
13.6123
13.5826
13.3964
13.3865
13.4628
13.4104
13.2978
13.3077
13.3844
13.4682
13.2571
13.1793
13.5039
13.7727
13.7131
13.277
13.2472
13.3003
13.5567
13.5341
13.5869
13.2477
13.2447
13.3375
13.5497
13.5222
13.3333
13.3427
13.402
13.3826
13.2951
13.3109
13.3848
13.4212
13.2691
13.2228
13.3654
13.5467
13.4562
13.248
13.2297
13.2647
13.3513
13.3999
13.4269
13.2409
13.2673
13.3132
13.462
13.4372
13.3204
13.3185
13.3653
13.3389
13.2664
13.2761
13.3318
13.3718
13.2512
13.1935
13.2083
13.3905
13.3494
13.2009
13.2257
13.2406
13.2567
13.2982
13.3553
13.2819
13.2886
13.2951
13.3708
13.351
13.3253
13.3228
13.335
13.2798
13.2088
13.2221
13.2546
13.3341
13.1632
13.1016
13.0587
13.2863
13.2911
13.1337
13.1767
13.2179
13.2431
13.2348
13.2881
13.3091
13.3021
13.295
13.2998
13.2963
13.3334
13.344
13.3281
13.228
13.1502
13.1537
13.1985
13.2972
13.0601
13.0306
12.9684
13.1675
13.2301
13.1751
13.1823
13.2288
13.2456
13.1676
13.2351
13.3302
13.3082
13.3096
13.2612
13.2676
13.3296
13.3544
13.3333
13.2018
13.1387
13.1253
13.1727
13.2676
13.0205
13.0226
12.9746
13.0748
13.2031
13.2245
13.192
13.2655
13.2456
13.0759
13.22
13.2947
13.3239
13.3564
13.2669
13.2678
13.3849
13.3973
13.3662
13.2134
13.1803
13.1518
13.1929
13.2614
13.0978
13.0869
13.1308
13.0916
13.2243
13.2846
13.2186
13.3204
13.3036
13.0778
13.2336
13.2752
13.342
13.4164
13.2926
13.2867
13.3965
13.4394
13.4105
13.2651
13.2608
13.2102
13.2523
13.2891
13.2072
13.1911
13.2916
13.1468
13.2748
13.3997
13.3112
13.3664
13.3882
13.1945
13.2778
13.3311
13.3753
13.4706
13.3461
13.3392
13.4234
13.4906
13.4645
13.3528
13.3762
13.3111
13.3368
13.3526
13.324
13.275
13.361
13.2084
13.3609
13.5106
13.4304
13.4071
13.4397
13.291
13.3371
13.3926
13.4138
13.5074
13.4161
13.4178
13.4621
13.5196
13.5082
13.4734
13.5055
13.4459
13.4371
13.4518
13.4557
13.3848
13.4215
13.3154
13.4723
13.5899
13.5251
13.503
13.5003
13.401
13.4349
13.4874
13.4647
13.5362
13.4923
13.5103
13.5056
13.5191
13.5459
13.5941
13.6027
13.5581
13.553
13.56
13.5485
13.5131
13.5026
13.4583
13.5684
13.683
13.5996
13.5922
13.5648
13.5463
13.5642
13.5802
13.4782
13.5643
13.5334
13.5944
13.4635
13.5122
13.5771
13.6893
13.6532
13.6286
13.6399
13.6402
13.6042
13.5741
13.5715
13.5633
13.6187
13.6952
13.6414
13.6281
13.5952
13.6629
13.6674
13.6157
13.5327
13.5707
13.582
13.6528
13.4559
13.5066
13.6009
13.7524
13.6771
13.6554
13.6892
13.6791
13.6409
13.6094
13.6143
13.6114
13.6431
13.6984
13.6377
13.6518
13.623
13.6903
13.7266
13.6443
13.5711
13.539
13.6078
13.7092
13.5275
13.5023
13.5832
13.7802
13.6918
13.6561
13.7124
13.6923
13.6744
13.6414
13.6448
13.6406
13.6498
13.689
13.6594
13.6874
13.6483
13.6222
13.698
13.6796
13.5771
13.4931
13.557
13.6347
13.6894
13.4563
13.5009
13.7684
13.6982
13.657
13.7142
13.7086
13.699
13.6719
13.6676
13.6931
13.665
13.6979
13.6921
13.718
13.6613
13.6586
13.687
13.7079
13.7072
13.5226
13.5646
13.616
13.9711
13.4158
13.5506
13.7636
13.7057
13.6689
13.7198
13.746
13.7128
13.6984
13.6724
13.7388
13.7015
13.7241
13.7204
13.727
13.7105
13.7495
13.7182
13.7377
13.7484
13.6273
13.6697
13.6981
13.888
13.4872
13.735
13.751
13.7192
13.6773
13.7152
13.7414
13.7231
13.7041
13.7123
13.7418
13.7184
13.7486
13.7416
13.7218
13.7522
13.7846
13.7459
13.7544
13.687
13.7165
13.8181
13.7846
13.7819
13.647
13.9183
13.7495
13.7408
13.7099
13.7159
13.7258
13.7341
13.7282
13.7577
13.7342
13.7216
13.7726
13.7601
13.7269
13.7824
13.7622
13.7468
13.7849
13.69
13.8349
13.8477
13.7923
13.7389
14.039
13.973
13.7672
13.7662
13.7505
13.746
13.7411
13.748
13.7508
13.756
13.7232
13.7144
13.7984
13.785
13.7441
13.7652
13.7331
13.7268
13.8216
13.7193
13.8212
13.7996
13.764
13.8482
13.9395
13.8933
13.8018
13.7892
13.7802
13.807
13.7513
13.7713
13.7455
13.7402
13.7011
13.7054
13.8184
13.7953
13.7476
13.7235
13.7043
13.7024
13.8266
13.6715
13.7381
13.7333
13.7233
13.7975
13.7738
13.7779
13.7984
13.8173
13.7862
13.7831
13.7416
13.776
13.7223
13.7018
13.6731
13.6919
13.8153
13.777
13.7396
13.6805
13.6812
13.6734
13.798
13.6423
13.6493
13.672
13.6815
13.7165
13.6503
13.6861
13.7683
13.7983
13.777
13.7424
13.7116
13.7372
13.686
13.6639
13.6452
13.6635
13.7783
13.7384
13.712
13.6405
13.6526
13.6649
13.7452
13.6485
13.5749
13.6115
13.6331
13.7073
13.5921
13.6072
13.718
13.7366
13.7024
13.6892
13.6634
13.6835
13.6412
13.6215
13.6098
13.6158
13.7191
13.6858
13.6559
13.5839
13.599
13.6208
13.678
13.6059
13.498
13.5536
13.5784
13.6642
13.5414
13.5592
13.6502
13.6532
13.6088
13.6203
13.6044
13.6248
13.5841
13.5705
13.5633
13.5706
13.6496
13.6243
13.5725
13.517
13.5366
13.5585
13.6054
13.5293
13.428
13.5108
13.5337
13.5867
13.4472
13.5216
13.5701
13.5646
13.5223
13.541
13.5452
13.5553
13.5117
13.5159
13.5127
13.5291
13.5737
13.5527
13.4817
13.4652
13.4882
13.5295
13.5323
13.4477
13.4102
13.4962
13.5134
13.5019
13.4095
13.502
13.4821
13.4803
13.4391
13.4483
13.4852
13.476
13.4279
13.4616
13.4651
13.4876
13.4956
13.4761
13.3929
13.4427
13.4489
13.5098
13.4608
13.381
13.4439
13.4919
13.5195
13.4336
13.4369
13.5129
13.3966
13.405
13.3683
13.3651
13.4149
13.3924
13.3443
13.4057
13.4202
13.4485
13.4184
13.3931
13.3118
13.4175
13.4171
13.4669
13.3896
13.3145
13.4677
13.4718
13.5372
13.3725
13.4468
13.4933
13.3191
13.3482
13.3103
13.3106
13.3604
13.3237
13.2824
13.3528
13.3816
13.4067
13.3495
13.313
13.2444
13.3687
13.3851
13.4202
13.3237
13.2499
13.3888
13.4197
13.4648
13.3093
13.3817
13.432
13.2531
13.3141
13.2758
13.2852
13.3426
13.2922
13.2628
13.3155
13.3458
13.3595
13.3017
13.2649
13.2071
13.3195
13.3449
13.3762
13.2876
13.2097
13.2922
13.3498
13.4072
13.2528
13.3128
13.3612
13.2243
13.3068
13.2923
13.269
13.3011
13.2786
13.2619
13.2799
13.3078
13.3033
13.2765
13.2519
13.1788
13.2826
13.3089
13.3366
13.2752
13.1823
13.2545
13.2887
13.3595
13.2047
13.2675
13.2622
13.2229
13.3035
13.2781
13.2131
13.2388
13.2591
13.2354
13.2276
13.269
13.2638
13.2624
13.2418
13.1681
13.2668
13.293
13.3094
13.2638
13.1645
13.2836
13.2583
13.3298
13.1706
13.214
13.2025
13.224
13.2961
13.2576
13.1895
13.1593
13.2464
13.2101
13.1598
13.2308
13.2406
13.2517
13.2294
13.1676
13.265
13.2909
13.2969
13.2456
13.1689
13.3199
13.2651
13.3208
13.2267
13.3373
13.256
13.2288
13.2886
13.2457
13.1539
13.0885
13.2525
13.2073
13.1158
13.2299
13.2477
13.2527
13.22
13.1892
13.2545
13.2883
13.2845
13.2272
13.1532
13.2939
13.2791
13.3162
13.2593
13.3497
13.3047
13.1509
13.2885
13.2432
13.0263
12.9617
13.2724
13.2302
13.1765
13.239
13.2571
13.2819
13.242
13.2503
13.2593
13.3029
13.2668
13.2408
13.1957
13.2925
13.2961
13.3149
13.2957
13.3503
13.3401
13.1326
13.3403
13.2666
13.0026
13.0853
13.327
13.2989
13.282
13.2868
13.274
13.3385
13.307
13.34
13.3108
13.3562
13.3262
13.2851
13.2598
13.3281
13.3266
13.3542
13.3593
13.403
13.3845
13.3648
13.3987
13.3112
13.2669
13.3111
13.3769
13.3761
13.3952
13.3608
13.3256
13.403
13.3695
13.4334
13.379
13.42
13.3947
13.3545
13.3287
13.3849
13.361
13.4053
13.4261
13.4527
13.4293
13.7524
13.4264
13.3342
13.5494
13.5995
13.4051
13.4123
13.4657
13.4357
13.42
13.4537
13.4256
13.5213
13.4393
13.47
13.4455
13.4215
13.4049
13.4243
13.3889
13.446
13.5111
13.4964
13.4762
13.711
13.4336
13.3632
13.5547
13.6387
13.4288
13.4336
13.4859
13.4695
13.4742
13.4845
13.4568
13.5819
13.4844
13.5057
13.5096
13.4719
13.4493
13.4496
13.4187
13.4985
13.5475
13.5142
13.5163
13.5891
13.4769
13.4076
13.4968
13.5793
13.4658
13.4842
13.5026
13.4834
13.498
13.5137
13.4746
13.6126
13.5148
13.5265
13.5488
13.517
13.5142
13.4773
13.4544
13.5479
13.5323
13.5318
13.5598
13.502
13.5126
13.4845
13.491
13.5504
13.5277
13.5492
13.5274
13.4903
13.5074
13.553
13.5552
13.667
13.5354
13.5341
13.5658
13.571
13.5896
13.5069
13.4859
13.5833
13.5807
13.5633
13.6118
13.4715
13.5619
13.5589
13.4946
13.5381
13.5774
13.6142
13.5446
13.4916
13.5127
13.597
13.6121
13.6865
13.5434
13.5218
13.5717
13.6246
13.6728
13.5282
13.5036
13.5968
13.6573
13.6018
13.6667
13.523
13.5722
13.5533
13.5195
13.5317
13.593
13.631
13.5554
13.4853
13.5159
13.6249
13.6098
13.6416
13.5298
13.4913
13.5634
13.678
13.7264
13.5332
13.5028
13.5857
13.7004
13.6201
13.6963
13.5695
13.598
13.5734
13.5505
13.5262
13.5876
13.5894
13.5536
13.4762
13.5179
13.6316
13.594
13.5945
13.4956
13.4528
13.5405
13.6839
13.6773
13.4991
13.479
13.5576
13.6956
13.6195
13.6828
13.5943
13.5873
13.5832
13.5758
13.5187
13.5899
13.589
13.5361
13.469
13.5202
13.6837
13.6222
13.5881
13.4569
13.4222
13.5221
13.6863
13.6046
13.4237
13.4275
13.5221
13.7068
13.605
13.634
13.6086
13.7428
13.6346
13.5853
13.5102
13.6514
13.6111
13.5182
13.4645
13.5248
13.7147
13.6552
13.583
13.4283
13.4062
13.5166
13.6977
13.5423
13.3395
13.3704
13.4933
13.6998
13.5741
13.5855
13.6163
13.8116
13.651
13.5837
13.4997
13.7318
13.5975
13.5097
13.4638
13.5332
13.7356
13.6457
13.5684
13.4189
13.4033
13.5272
13.6958
13.4978
13.2764
13.3349
13.4835
13.6675
13.5364
13.5497
13.6278
13.7503
13.6502
13.5827
13.4835
13.6781
13.5841
13.5084
13.4684
13.5453
13.7371
13.6412
13.5633
13.4179
13.4099
13.5465
13.6771
13.4611
13.2485
13.3251
13.4847
13.6284
13.5049
13.528
13.6458
13.716
13.6529
13.5876
13.4705
13.6859
13.5887
13.5127
13.4742
13.5568
13.8099
13.7015
13.5469
13.4153
13.4118
13.5607
13.6737
13.4054
13.2527
13.3335
13.4804
13.5931
13.4895
13.5195
13.676
13.7162
13.6788
13.6029
13.4708
13.7463
13.5865
13.5163
13.4772
13.5564
13.8493
13.7372
13.5003
13.3981
13.4036
13.5602
13.6674
13.3422
13.285
13.3393
13.4697
13.5638
13.4956
13.5219
13.7217
13.7498
13.7229
13.625
13.4952
13.7592
13.5889
13.5233
13.4588
13.5354
13.8302
13.7088
13.4634
13.3494
13.372
13.5228
13.678
13.2997
13.3023
13.3682
13.4683
13.5487
13.5076
13.5335
13.7854
13.8021
13.7803
13.6617
13.5311
13.7867
13.6216
13.528
13.4178
13.4601
13.8057
13.6811
13.4377
13.2956
13.3158
13.4198
13.5719
13.2494
13.3397
13.4061
13.401
13.555
13.5565
13.5778
13.868
13.8781
13.8514
13.714
13.5708
13.8462
13.6631
13.5315
13.3537
13.2517
13.7715
13.62
13.4174
13.2741
13.2574
13.1486
13.1529
13.2733
13.4989
13.4789
13.2955
13.5929
13.6902
13.6999
13.9464
13.9535
13.9245
13.7782
13.605
13.8868
13.7215
13.5451
13.2537
12.5883
13.7938
13.6751
13.4631
13.3388
13.1555
12.3504
12.9819
13.5126
13.8252
13.6171
13.0841
13.8027
14.0221
14.0587
14.0037
13.9817
13.9722
13.8393
13.6345
13.8858
13.7822
13.5684
13.1553
10.6086
13.7546
13.7331
13.6993
13.4786
13.0245
10.8346
-8.07502
13.5974
14.098
14.1351
13.7501
12.4787
14.363
14.499
14.5002
14.0204
13.971
13.9657
13.8698
13.6625
13.8707
13.7692
13.5711
12.9894
9.33485
0.120139
13.8319
13.8218
13.9017
13.5515
12.7378
10.7607
1.40489
14.042
14.4905
14.2476
13.7754
11.0523
15.169
14.8801
14.7104
14.0287
13.961
13.92
13.8891
13.7679
13.8766
13.7652
13.6317
13.1667
10.6865
2.91634
13.9645
13.9315
13.9443
13.5545
12.7821
10.4372
2.59628
14.1727
14.4429
14.0725
13.619
11.1655
2.855
15.2256
14.7187
14.5071
14.0714
13.9799
13.9528
13.9495
13.9687
13.8614
13.8509
13.7776
13.6847
11.474
3.1852
14.1173
14.0576
14.0183
13.798
13.3824
11.2901
2.5567
14.2604
14.3348
14.1686
13.722
11.8921
14.7771
14.5372
14.382
14.1646
14.0848
14.0551
14.0729
14.1986
13.8543
13.9179
13.9907
14.0451
12.7832
14.1342
14.0523
13.993
13.9653
13.7782
12.2586
-4.68306
14.2441
14.2114
14.1395
13.9579
13.4505
14.5227
14.393
14.3413
14.2453
14.3078
14.1789
14.1861
14.2873
13.99
14.0255
14.1552
14.1989
14.1117
14.1271
14.07
14.0515
14.0703
14.0284
13.795
14.1984
14.1394
14.1225
14.1074
14.0574
14.3763
14.2898
14.3208
14.2562
14.2896
14.1814
14.2303
14.2906
14.075
14.0806
14.2011
14.2249
14.4287
14.1461
14.094
14.0766
14.1004
14.1297
14.2199
14.1838
14.1109
14.0969
14.1428
14.2155
14.2982
14.2181
14.2953
14.2248
14.1923
14.1633
14.2107
14.2351
14.1044
14.0983
14.1646
14.2187
14.4632
14.1787
14.1277
14.0664
14.0892
14.1377
14.2912
14.192
14.0797
14.0496
14.1415
14.2522
14.2486
14.1605
14.2681
14.2183
14.174
14.1652
14.1771
14.197
14.1456
14.0911
14.1006
14.2092
14.4365
14.2212
14.1708
14.0456
14.0403
14.1058
14.2819
14.2117
14.0515
13.99
14.1084
14.2404
14.2134
14.1059
14.2262
14.209
14.2026
14.1681
14.151
14.2651
14.2138
14.1065
14.1041
14.2191
14.3673
14.2873
14.2319
14.0613
13.9703
14.0515
14.2435
14.2617
14.0535
13.9435
14.051
14.1923
14.1946
14.0591
14.1709
14.2408
14.2843
14.1954
14.1845
14.4065
14.3131
14.1788
14.1722
14.2564
14.3993
14.3886
14.3227
14.1246
14.0049
14.0121
14.2095
14.3538
14.0604
13.8944
13.9727
14.12
14.209
14.0395
14.0877
14.3267
14.3664
14.2676
14.2751
14.5612
14.3874
14.2448
14.2147
14.3106
14.5035
14.4951
14.4142
14.2206
14.0685
14.0557
14.2587
14.4645
14.1947
13.9784
13.8724
14.0485
14.239
14.0522
13.9639
14.4312
14.4037
14.3327
14.3739
14.6467
14.4
14.2703
14.2441
14.3354
14.7326
14.5895
14.4587
14.2701
14.1107
14.1437
14.5009
14.5056
14.2626
14.0491
13.9421
14.1563
14.3081
14.1654
13.9467
117.651
62.7544
117.373
84.2722
62.1819
78.8113
96.6377
102.187
107.076
110.972
118.562
113.482
98.6842
123.165
108.736
95.1447
109.86
107.329
98.5805
100.856
99.2761
107.633
113.734
113.415
131.049
120.553
91.2167
81.7499
83.031
95.4532
88.839
85.3125
82.6139
84.6097
96.6748
81.6678
86.2451
119.378
129.231
91.2184
110.93
99.3449
106.517
96.1406
80.9681
107.096
80.9278
81.0342
84.8601
87.0875
88.9451
90.1174
86.8447
94.7839
95.9735
90.6273
94.7122
100.585
103.395
97.6504
98.0649
105.355
106.557
85.4215
81.5724
101.615
102.261
85.1568
86.8254
103.745
97.6569
109.777
108.089
137.149
133.605
111.277
112.717
118.137
118.125
115.811
114.746
121.94
125.082
118.879
136.112
147.601
154.111
130.398
158.12
149.224
137.571
142.491
146.218
157.051
151.626
164.154
69.1767
56.2769
45.1239
54.3904
49.2428
50.3082
50.4887
50.4725
50.0332
54.2149
50.309
50.8768
49.8046
58.0431
50.0305
69.0911
68.0871
72.5938
71.482
70.7914
66.5586
63.5123
67.5588
65.5672
63.2505
53.6442
67.62
49.4551
51.1458
48.6185
52.8915
72.8048
57.7006
70.3388
73.2676
73.9529
69.1448
73.3418
72.4105
72.5719
70.1799
60.9078
69.8319
68.6439
80.4508
84.3384
77.6785
78.2083
82.3399
73.2597
80.9258
72.7804
71.3476
72.6924
89.0288
85.066
101.027
104.852
112.024
88.1722
95.4352
92.2477
102.214
106.855
121.551
121.997
91.0455
82.1775
99.6114
93.8514
77.5085
120.146
101.57
117.005
126.91
102.724
108.653
106.85
125.184
128.079
110.596
104.998
108.237
102.023
53.7732
50.4087
49.9409
49.9828
49.8887
48.4993
47.4986
48.3354
49.6278
47.8365
48.3905
46.7185
45.0621
48.5524
46.4703
68.6975
68.2778
60.7357
68.0681
62.5528
62.9596
55.3948
66.8365
57.0474
48.7235
47.2968
49.0231
47.1234
45.9701
43.8207
45.1226
51.4588
46.0507
68.168
70.9403
69.9561
67.012
67.9342
67.1917
62.8776
63.6802
46.9856
53.5671
56.7411
75.2703
79.2324
70.745
70.4604
72.7806
66.8939
67.1648
61.1348
60.0259
58.3495
79.4414
70.5879
85.024
81.4845
85.3521
71.68
72.866
68.6802
67.986
68.0723
75.8422
71.7811
55.3601
53.027
51.4367
50.7802
54.5041
84.039
65.3912
85.2976
84.025
63.0917
62.1386
60.7305
78.0568
82.6378
58.1984
52.35
58.4863
49.7465
48.01
45.8351
47.7387
45.9413
46.8653
47.1413
44.737
45.3872
45.2284
42.7958
46.0362
43.1599
40.3992
43.0234
40.7314
67.6413
67.1294
51.0889
65.68
50.3539
55.6612
47.3859
63.809
44.7199
42.3818
39.9168
41.5557
40.3435
39.031
36.8254
37.593
41.803
36.5511
66.443
65.5031
65.0938
66.6208
61.2862
63.5965
45.6847
48.6982
34.8031
36.3901
38.2914
63.8847
58.1957
49.0527
49.4967
31.8162
50.1018
46.4594
36.4297
37.4447
32.4464
54.7896
32.1268
54.3246
52.384
48.5888
38.2123
32.3032
35.1405
31.1311
38.8927
27.5528
29.6129
21.5472
22.7816
15.5533
16.3026
26.3094
45.0144
27.1893
39.9379
39.553
21.6958
22.4279
23.6894
29.708
37.9317
21.1013
16.8556
23.2615
15.4981
43.2417
36.6311
45.5311
43.6183
43.1433
36.3742
37.9809
36.132
38.1679
35.7922
31.0308
28.8583
27.5577
34.6705
22.738
65.3784
50.9491
43.4708
56.8212
39.7329
39.5882
36.4725
42.7408
34.3548
30.6558
34.8419
30.0263
24.1673
15.3208
33.7478
20.7228
24.4226
14.3485
64.7438
44.0491
53.6046
47.8838
15.9218
23.0336
26.558
25.2493
13.6893
15.8127
15.1035
22.0579
14.2893
13.6043
13.3986
12.9265
24.8859
20.9098
16.1883
15.4804
14.9045
15.7215
13.3373
14.7785
19.7846
16.8145
13.4751
13.127
13.5965
13.5199
15.4192
14.9928
15.4855
14.7763
14.7211
15.1238
15.6694
14.4668
15.3354
13.5488
14.6203
15.206
13.5643
13.5666
13.6774
15.3755
16.0837
14.7039
15.31
14.9023
15.4276
22.4034
13.303
14.1225
18.7526
14.7844
13.1673
13.1368
13.078
14.3372
13.9506
13.2636
13.1843
13.4875
13.5191
13.6743
18.521
12.988
24.4075
22.7662
26.058
13.2747
13.4613
13.2665
13.718
13.2672
27.5737
13.4981
13.3281
13.3897
16.4622
12.952
13.637
14.0015
15.7234
13.2201
13.3143
13.0652
13.2824
13.2212
13.7088
13.868
13.4739
13.526
13.9546
13.231
13.5811
13.3491
13.2789
13.4829
13.908
13.9424
13.7756
13.8462
13.7901
13.5649
13.575
13.6193
13.5699
13.6261
13.5876
13.5891
13.6094
13.6084
14.105
14.553
14.8547
13.2682
13.7544
13.9612
14.3014
13.8639
13.6806
13.7219
13.7496
13.9356
13.8459
13.7332
14.0049
14.9599
15.0528
14.161
14.6945
15.0831
14.4318
13.2661
13.3531
13.7759
13.3156
13.7463
13.4359
13.3509
13.5086
13.9398
13.8665
13.6548
13.7758
13.6255
13.6583
13.5374
13.2948
13.3069
13.2219
13.2396
13.1904
13.3162
13.3393
13.3001
13.2571
13.4122
12.7815
13.352
13.4288
13.3529
13.046
13.2824
13.5741
13.1435
13.3714
13.3012
13.302
13.3175
13.304
13.3089
13.729
13.603
14.0044
13.4446
13.7176
13.6795
13.7181
13.8823
13.8133
13.8421
13.7828
13.8973
13.8006
13.8602
13.2889
13.3999
13.3101
13.3055
13.3646
13.8754
13.8133
13.8364
13.6994
13.7345
13.843
13.804
13.825
13.8186
13.8202
13.775
13.8342
13.8077
13.8156
13.493
13.4505
13.5571
13.5652
13.5559
13.5113
13.518
13.5218
13.4738
13.6613
13.5581
13.8585
13.2042
13.6043
13.4276
13.6272
13.6917
13.6955
13.6727
13.6272
13.8615
13.7185
13.5227
13.6715
14.274
14.5909
13.6484
13.8689
14.103
13.7344
13.3296
13.311
13.4929
13.3572
13.448
13.4184
13.3327
13.378
13.6108
13.5805
13.5326
13.5236
13.5256
13.5186
13.4932
13.2936
13.3004
13.3051
13.2741
13.2593
13.3003
13.2983
13.2797
13.2686
13.327
13.2882
13.2302
13.4149
13.3401
13.3298
13.3281
13.41
13.7414
13.5398
13.9171
13.8407
13.8881
13.8006
13.8815
13.3145
13.3053
13.3095
13.317
13.3085
13.3157
13.8587
13.7333
13.7505
13.6835
13.869
13.726
13.7545
13.8932
13.8164
13.8509
13.8162
13.8834
13.8083
13.8518
13.3344
13.3548
13.3364
13.3538
13.379
13.75
13.7921
13.8197
13.5775
13.7454
13.7647
13.8011
13.8318
13.817
13.8218
13.7747
13.8227
13.7966
13.8025
13.4325
13.4236
13.4502
13.4924
13.3856
13.4619
13.4131
13.4602
13.3524
13.6142
13.4788
13.6842
13.5304
13.5792
13.5339
13.7403
13.8626
13.7169
13.8157
13.8309
13.8156
13.8058
13.6143
13.5493
13.4481
13.5522
13.5223
13.393
13.4763
13.598
13.7599
13.3922
13.4804
13.5724
13.5602
13.2941
13.2899
13.4104
13.3001
13.3683
13.3897
13.3021
13.3675
13.4845
13.4822
13.4792
13.4838
13.4582
13.4533
13.4392
13.3007
13.3037
13.2923
13.2835
13.2819
13.307
13.291
13.2923
13.3
13.436
13.3095
13.4567
13.4219
13.475
13.3282
13.5094
13.5878
13.8306
13.4281
13.792
13.8066
13.8888
13.8251
13.8945
13.3138
13.3095
13.3158
13.3087
13.3037
13.3107
13.8944
13.7368
13.8311
13.6897
13.9305
13.8061
13.8939
13.9055
13.8282
13.8618
13.8941
13.9093
13.8543
13.8698
13.3456
13.3918
13.3328
13.3356
13.378
13.7893
13.7509
13.8404
13.6309
13.8518
13.7282
13.8785
13.8321
13.8022
13.8038
13.8256
13.8409
13.8183
13.8324
13.4121
13.3816
13.3858
13.4207
13.3405
13.3823
13.3611
13.3901
13.3324
13.5539
13.499
13.6491
13.622
13.5379
13.4308
13.5209
13.8465
13.6244
13.8568
13.8125
13.8285
13.8269
13.5051
13.4641
13.3631
13.4317
13.4411
13.344
13.406
13.4599
13.5357
13.3981
13.442
13.4923
13.4997
13.2978
13.3098
13.3729
13.3109
13.3581
13.3603
13.3251
13.3516
13.4671
13.4543
13.4331
13.4353
13.4518
13.4515
13.4617
13.3036
13.3004
13.296
13.297
13.3166
13.2995
13.3018
13.2975
13.3212
13.4788
13.378
13.4746
13.4776
13.4967
13.4491
13.4895
13.6227
13.6949
13.2991
13.2954
13.3011
13.2868
13.2855
13.2873
14.2145
13.8972
13.9561
13.9374
14.1399
13.9157
13.9273
13.9497
13.9058
13.9017
13.9825
13.9557
13.945
13.9205
13.3256
13.3496
13.2994
13.3055
13.3058
13.9084
13.7012
13.9296
13.6916
13.8471
13.637
13.8955
13.8683
13.8474
13.8473
13.8914
13.898
13.8843
13.8681
13.3404
13.2921
13.3358
13.3631
13.3228
13.2895
13.3055
13.3303
13.3064
13.5269
13.3915
13.4631
13.5818
13.5091
13.3726
13.4296
13.538
13.4166
13.3704
13.2963
13.3351
13.3551
13.2731
13.2934
13.4146
13.4259
13.3616
13.3656
13.4039
13.4283
13.3224
13.3258
13.3656
13.3312
13.3597
13.3631
13.3282
13.3623
13.4086
13.4351
13.396
13.3968
13.4179
13.4528
13.4379
13.2939
13.2834
13.3055
13.2928
13.3172
13.296
13.3051
13.2886
13.3115
13.4846
13.4813
13.4868
13.4521
13.4513
13.4603
13.4456
13.6106
13.5247
13.2739
13.2752
13.2707
13.2678
13.2628
13.2535
13.7913
13.9434
13.5674
13.6079
13.3895
13.2793
13.2685
13.2589
13.2559
13.2608
13.7848
13.5313
13.4751
13.1909
13.4833
13.2502
13.2414
13.2843
13.2762
13.2755
13.2304
13.2723
13.2463
13.2527
13.4766
13.3681
13.3969
13.5069
13.4297
13.3621
13.3797
13.4911
13.3346
13.3123
13.276
13.299
13.3259
13.2821
13.3028
13.329
13.3849
13.328
13.3072
13.3535
13.3845
13.3118
13.2995
13.3527
13.3234
13.3546
13.3434
13.3144
13.3432
13.3839
13.4001
13.3639
13.3661
13.3808
13.4157
13.3935
13.2733
13.2568
13.2993
13.2858
13.2987
13.2878
13.2885
13.2737
13.2866
13.4049
13.4302
13.3931
13.3967
13.3852
13.3959
13.3496
13.4452
13.3897
13.2625
13.248
13.2361
13.2538
13.229
13.2226
13.5036
13.4679
13.3879
13.4319
13.4428
13.2459
13.2704
13.2307
13.2287
13.272
13.3417
13.4367
13.3884
13.3777
13.3957
13.2523
13.2659
13.2661
13.2437
13.2461
13.2607
13.2746
13.258
13.2484
13.3946
13.3486
13.3666
13.4132
13.3698
13.3273
13.348
13.3888
13.3018
13.2983
13.2785
13.2918
13.3207
13.2771
13.2842
13.2946
13.3271
13.3189
13.298
13.3178
13.3461
13.2827
13.2575
13.3261
13.2963
13.3246
13.2995
13.266
13.2975
13.3409
13.3565
13.3098
13.3106
13.3303
13.3675
13.3444
13.2456
13.2324
13.27
13.2484
13.2702
13.2377
13.2478
13.2265
13.2411
13.3653
13.3482
13.3094
13.3559
13.3505
13.299
13.2708
13.3432
13.3092
13.2336
13.2037
13.2036
13.1964
13.1719
13.1689
13.3707
13.3735
13.3199
13.3247
13.331
13.1945
13.2541
13.1538
13.1457
13.2252
13.3439
13.3566
13.3194
13.3144
13.3141
13.2705
13.2691
13.2858
13.2903
13.2689
13.2955
13.2881
13.3126
13.2975
13.341
13.3021
13.3224
13.3315
13.3173
13.2888
13.301
13.3215
13.3029
13.3146
13.2897
13.2942
13.3286
13.3087
13.3114
13.3078
13.323
13.3365
13.3255
13.3357
13.329
13.2309
13.1999
13.2666
13.2313
13.265
13.2332
13.2002
13.2319
13.2802
13.3015
13.2517
13.2521
13.2734
13.3186
13.2951
13.2047
13.1597
13.2233
13.199
13.2023
13.1755
13.1903
13.1609
13.1483
13.3372
13.2447
13.2286
13.3192
13.3217
13.2042
13.1936
13.273
13.2435
13.1556
13.1297
13.1303
13.1146
13.105
13.0969
13.286
13.2945
13.2585
13.2482
13.2609
13.1182
13.2115
13.1433
13.1362
13.2166
13.2876
13.2836
13.2566
13.2672
13.2581
13.2668
13.2692
13.2913
13.3341
13.3107
13.3209
13.2879
13.3354
13.3133
13.2942
13.2774
13.2831
13.275
13.2764
13.2671
13.2697
13.276
13.3337
13.3442
13.3186
13.3225
13.3352
13.316
13.3213
13.3411
13.3453
13.3463
13.3589
13.3513
13.3278
13.1784
13.1621
13.2048
13.1755
13.203
13.1839
13.1602
13.1813
13.2278
13.2472
13.2105
13.2096
13.2258
13.2734
13.2562
13.1324
13.1262
13.1625
13.1337
13.119
13.1361
13.1445
13.1194
13.1008
13.2971
13.1653
13.1656
13.2821
13.2795
13.1353
13.1488
13.22
13.2087
13.092
13.1021
13.0813
13.0898
13.1215
13.0985
13.2154
13.2302
13.2113
13.1913
13.2085
13.1728
13.2265
13.2036
13.1987
13.2306
13.2479
13.2405
13.2244
13.2352
13.2267
13.2943
13.308
13.2853
13.3298
13.3181
13.3229
13.2862
13.3331
13.3231
13.271
13.2664
13.2653
13.2624
13.2717
13.2762
13.2686
13.2661
13.3401
13.3392
13.3154
13.3232
13.3515
13.3231
13.3358
13.3748
13.3624
13.3713
13.3912
13.3832
13.347
13.1606
13.171
13.1744
13.1547
13.168
13.1768
13.1604
13.1653
13.1998
13.2121
13.2018
13.198
13.209
13.2443
13.2393
13.1395
13.1619
13.142
13.1214
13.0998
13.1537
13.1531
13.1326
13.1175
13.2643
13.1136
13.1544
13.2595
13.2578
13.1123
13.1664
13.2074
13.2157
13.1109
13.1595
13.1398
13.1434
13.1997
13.184
13.1775
13.1998
13.2087
13.1809
13.2033
13.2126
13.2308
13.249
13.2298
13.2428
13.2294
13.2199
13.2237
13.2308
13.223
13.2876
13.2669
13.2829
13.3084
13.3211
13.2704
13.2858
13.2699
13.3245
13.275
13.2874
13.2752
13.2762
13.2837
13.3018
13.2864
13.2732
13.3428
13.3501
13.3338
13.3553
13.3977
13.3509
13.3731
13.4148
13.4131
13.4186
13.4334
13.4395
13.3866
13.1952
13.2287
13.1911
13.1788
13.1745
13.2165
13.2089
13.1963
13.2079
13.2194
13.234
13.2269
13.2391
13.2455
13.2595
13.1972
13.2425
13.1777
13.1552
13.146
13.2158
13.2115
13.1833
13.1783
13.2625
13.1339
13.198
13.2694
13.2722
13.1606
13.2274
13.2365
13.2566
13.1961
13.2456
13.2329
13.2528
13.2967
13.2848
13.1999
13.2194
13.2421
13.2245
13.2383
13.2578
13.2699
13.3367
13.3021
13.3111
13.2395
13.2368
13.2514
13.2554
13.2611
13.2812
13.3094
13.3054
13.2757
13.3342
13.2993
13.3409
13.3128
13.3509
13.2989
13.3205
13.3045
13.3159
13.3184
13.3433
13.3287
13.3084
13.3593
13.3754
13.3692
13.3889
13.4024
13.3906
13.4057
13.459
13.4655
13.4637
13.4832
13.492
13.4385
13.2715
13.3226
13.2541
13.2487
13.2336
13.3028
13.2979
13.2838
13.2574
13.2707
13.3046
13.2961
13.3084
13.2862
13.3189
13.2963
13.3579
13.2547
13.2212
13.2113
13.3139
13.3053
13.2708
13.2401
13.297
13.2093
13.2683
13.3134
13.3229
13.2535
13.3098
13.2906
13.3237
13.3161
13.3525
13.3417
13.3818
13.4068
13.3979
13.2574
13.27
13.3102
13.2918
13.3033
13.3627
13.36
13.4611
13.4276
13.4111
13.2845
13.294
13.3051
13.3148
13.3331
13.3508
13.3955
13.3833
13.3465
13.3758
13.3631
13.424
13.3683
13.404
13.3468
13.3699
13.3611
13.3802
13.3826
13.3984
13.3969
13.3763
13.3979
13.4208
13.4088
13.4257
13.4458
13.4273
13.4435
13.5106
13.5206
13.51
13.535
13.5426
13.4878
13.3804
13.4457
13.3614
13.3568
13.3437
13.4291
13.4232
13.4121
13.3446
13.3563
13.4102
13.4023
13.4133
13.3634
13.414
13.425
13.4954
13.3634
13.3335
13.2767
13.4417
13.4266
13.4052
13.3405
13.3612
13.3002
13.3559
13.3944
13.403
13.352
13.4059
13.3729
13.4136
13.4484
13.456
13.448
13.51
13.5018
13.4905
13.3298
13.344
13.4102
13.368
13.3852
13.4816
13.4624
13.55
13.5212
13.5102
13.3541
13.3763
13.3805
13.4044
13.4273
13.4375
13.4846
13.465
13.4021
13.4269
13.4357
13.5007
13.4467
13.4624
13.4218
13.4291
13.4378
13.4586
13.4655
13.469
13.4812
13.4626
13.4439
13.4705
13.4464
13.4604
13.4857
13.4664
13.4766
13.5522
13.5533
13.5207
13.5584
13.5546
13.5264
13.5069
13.5623
13.5002
13.4895
13.4835
13.5661
13.5498
13.5498
13.4665
13.4725
13.5365
13.5293
13.5334
13.472
13.5309
13.5615
13.6148
13.4909
13.4774
13.4261
13.56
13.5488
13.5385
13.5072
13.4567
13.4097
13.4562
13.5064
13.5092
13.4696
13.5082
13.471
13.5199
13.5663
13.5517
13.5345
13.6139
13.6044
13.5814
13.4077
13.4326
13.5181
13.442
13.4792
13.5542
13.5482
13.6352
13.5882
13.5837
13.4694
13.4857
13.4974
13.5445
13.5446
13.5289
13.5662
13.5554
13.4999
13.5249
13.5363
13.6059
13.5553
13.5826
13.507
13.5136
13.5235
13.5172
13.544
13.5545
13.5576
13.5543
13.5158
13.5495
13.4853
13.4931
13.4862
13.4892
13.5011
13.5567
13.5542
13.5154
13.5527
13.5553
13.5645
13.6077
13.642
13.6233
13.6021
13.6086
13.6698
13.6445
13.6572
13.5876
13.5915
13.6467
13.6373
13.6436
13.5864
13.6356
13.6507
13.6728
13.5962
13.5867
13.5666
13.6327
13.6292
13.6221
13.6049
13.5623
13.5267
13.5568
13.6053
13.6093
13.5737
13.5996
13.5693
13.6026
13.6473
13.6381
13.608
13.6653
13.6438
13.608
13.4874
13.5342
13.5972
13.5431
13.5872
13.6235
13.6197
13.7101
13.6434
13.6421
13.6226
13.6012
13.6181
13.6688
13.6402
13.603
13.6275
13.6361
13.5895
13.6032
13.6035
13.6597
13.5972
13.5865
13.5823
13.5825
13.5885
13.5548
13.6116
13.6067
13.6155
13.6297
13.5383
13.5198
13.4855
13.5003
13.4437
13.4763
13.4943
13.5494
13.5556
13.5111
13.5459
13.5509
13.5871
13.6664
13.6805
13.704
13.6734