/*--------------------------------*- C++ -*----------------------------------*\
| =========                 |                                                 |
| \\      /  F ield         | OpenFOAM: The Open Source CFD Toolbox           |
|  \\    /   O peration     | Version:  5.x                                   |
|   \\  /    A nd           | Web:      www.OpenFOAM.org                      |
|    \\/     M anipulation  |                                                 |
\*---------------------------------------------------------------------------*/
FoamFile
{
    version     2.0;
    format      ascii;
    class       volVectorField;
    location    "0.9";
    object      Us;
}
// * * * * * * * * * * * * * * * * * * * * * * * * * * * * * * * * * * * * * //

dimensions      [0 1 -1 0 0 0 0];

internalField   nonuniform List<vector> 
10571
(
(-0.0458263 0.0491281 -0.0595448)
(-0.0137804 0.0563968 -0.134887)
(0.0440287 0.213702 -0.0606536)
(0.102313 0.183118 0.0942397)
(-0.15278 -0.130776 -0.0291519)
(0.140906 0.192119 0.0860229)
(0.185288 0.342093 0.137725)
(-0.0883388 -0.0260701 -0.0439372)
(-0.18353 -0.108559 -0.0454742)
(-0.0320938 -0.0190678 -0.136323)
(0.0561521 0.0612578 -0.0256649)
(0.200047 0.229707 0.14371)
(-0.150447 0.425198 0.0739243)
(-0.273422 -0.0168675 -0.0945076)
(-0.160695 -0.00214061 -0.171786)
(-0.0117611 0.0227046 -0.14148)
(-0.180107 -0.142196 -0.139072)
(0 0 0)
(-0.236464 0.0540682 -0.116906)
(-0.130626 0.142523 -0.0621815)
(-0.0526045 0.0943553 -0.172521)
(-0.141589 -0.0759707 -0.178242)
(-0.0333361 -0.0553085 -0.210952)
(-0.0770597 0.0402382 -0.183173)
(0.0107301 0.011789 -0.128043)
(-0.0136686 0.0188454 -0.18115)
(-0.00919275 0.088688 -0.101015)
(0.0250807 0.0273036 0.167914)
(0.144326 0.110907 -0.142985)
(0.0151047 0.120048 0.0918176)
(-0.179457 -0.134227 0.0669065)
(-0.0886001 -0.095618 -0.019932)
(-0.0482866 0.0325355 0.00819536)
(-0.00343812 0.0259424 -0.0865536)
(0.00148595 -0.105751 -0.0657034)
(0.0447184 0.0753311 0.0940969)
(-0.272577 -0.0711781 0.183527)
(-0.109211 -0.116492 0.0172193)
(-0.0499643 -0.034082 -0.0734181)
(-0.0432345 0.0344658 -0.0968601)
(-0.0994878 -0.14871 -0.0631557)
(-0.124641 -0.0870314 0.0725934)
(-0.100361 -0.0302266 0.0808113)
(-0.165034 0.0409108 0.073994)
(-0.0318947 0.0305469 -0.00815728)
(0.0105564 -0.052876 -0.0816232)
(0.0315803 -0.0342644 -0.12566)
(-0.00143394 -0.02312 -0.0520486)
(0.0808803 0.0154163 -0.246886)
(0.00341075 -0.00549018 -0.188853)
(0.00221309 0.00641198 -0.0952371)
(-0.128006 -0.134594 0.344672)
(0.122733 0.126882 -0.219227)
(-0.0545633 -0.0792258 -0.00181541)
(-0.0876637 -0.14418 0.0990888)
(-0.0218752 -0.0468645 0.0183507)
(0.0869335 0.0777764 -0.0960101)
(0.00338068 0.183809 -0.233408)
(-0.0310441 -0.10962 -0.0250935)
(-0.196239 -0.268307 0.177021)
(-0.163447 -0.113325 0.262694)
(-0.017092 -0.0978099 0.0537291)
(0.0527544 -0.0603971 -0.0120504)
(0.076458 0.159826 -0.353722)
(-0.0684087 -0.115146 0.0936419)
(-0.05016 -0.0617032 0.147488)
(-0.0483095 -0.0172436 0.123603)
(-0.0347402 -0.115787 0.227444)
(0.0314162 -0.0376613 0.0147532)
(0.0915203 -0.00257953 -0.129372)
(0.140856 0.0138164 0.0024242)
(0.00886529 0.0213296 0.006164)
(0.0732617 0.00673028 -0.304563)
(0.01604 -0.0154134 -0.191964)
(0.0156113 -0.0391697 -0.0502912)
(-0.137041 -0.109899 0.430611)
(0.105168 0.114052 -0.119253)
(-0.00908674 -0.117066 0.0496889)
(-0.0174672 -0.103152 0.162788)
(0.0542999 0.0448358 -0.00270416)
(0.150374 0.0722262 -0.162821)
(0.118706 0.212927 -0.186401)
(0.00253686 0.0269624 -0.0505281)
(-0.136222 -0.192505 0.247567)
(-0.0893364 -0.0993416 0.380195)
(0.0658654 0.0270734 0.0179063)
(0.163724 0.0950833 -0.222428)
(0.0279388 0.133775 -0.376674)
(0.0930375 0.0500222 0.0513327)
(0.0522223 0.00498288 0.245266)
(0.108142 0.0618449 0.0603434)
(0.147553 0.0486321 -0.0126325)
(0.0482856 0.00735851 -0.419578)
(0.0624598 0.0304625 -0.1482)
(0.162916 0.0955551 -0.0954057)
(0.131984 0.000597575 -0.0141883)
(0.045811 0.00400551 -0.280736)
(0.00891389 -0.0115342 -0.17656)
(0.0155232 -0.042367 -0.00564572)
(-0.106906 -0.0855991 0.483574)
(0.0934692 0.0914307 -0.0451152)
(-0.0369234 -0.130909 0.136091)
(-0.00463383 -0.0640015 0.162317)
(0.0918437 0.0358299 -0.0825775)
(0.192709 0.0814859 -0.158711)
(0.105787 0.224888 -0.121776)
(0.00542107 0.0837821 -0.135667)
(0.0204412 -0.0348838 0.215342)
(-0.00361218 -0.0535751 0.412131)
(0.111938 0.0780638 -0.049687)
(0.149572 0.144672 -0.295361)
(-0.0625536 0.061148 -0.271349)
(0.0479829 0.0411696 -0.00712335)
(0.0541886 0.0925402 0.122821)
(0.166694 0.144798 -0.0709683)
(0.0447799 0.0590706 -0.321401)
(-0.0241057 0.0545355 -0.328232)
(0.0513019 0.130947 -0.0267847)
(0.167524 0.113703 -0.0951194)
(0 0 0)
(0.00522295 -0.00272786 -0.228259)
(-0.00643535 -0.0086198 -0.127798)
(-0.020386 -0.036284 -0.0997415)
(-0.0597354 -0.0495394 0.517253)
(0.149093 -0.00920978 -0.0886921)
(-0.0883768 -0.0648336 0.172776)
(-0.0194913 -0.0205107 0.0193033)
(0.0817981 0.0148291 -0.114613)
(0.193369 0.13203 -0.155802)
(0.187852 0.269858 -0.210489)
(-0.00608728 0.00321178 -0.00291939)
(0.00484733 0.110946 -0.143937)
(0.00778083 -0.00541011 0.251822)
(0.042762 0.0512124 0.0991971)
(0.147246 0.0998592 -0.131586)
(0.0872238 0.10954 -0.339299)
(-0.0450378 0.131349 -0.185779)
(-0.00619213 -0.00192912 -0.00229652)
(0.00632025 0.045865 -0.0340001)
(0.0422145 0.168903 0.0186642)
(0.150831 0.14346 -0.0721278)
(-0.00415409 0.0393883 -0.249421)
(-0.0176862 -0.0220068 -0.805848)
(0.101319 0.127396 -0.163593)
(0.0969342 0.0674922 -0.169946)
(0.0965515 0.109349 -0.162251)
(-0.00926649 -0.0222235 -0.0737533)
(0.00797364 -0.0121334 -0.0784385)
(-0.0565993 -0.0910081 -0.0894409)
(0.0498521 -0.124113 0.0603714)
(0.246238 -0.0922749 0.0332687)
(-0.0910702 -0.0328017 0.118083)
(-0.0174808 -0.0254631 -0.0405732)
(0.0540833 0.0787999 -0.261576)
(0.0547577 0.10885 -0.670767)
(0.031256 0.115873 -0.434103)
(-0.0638353 0.0948495 -0.076251)
(-0.000255982 0.0738612 -0.134218)
(-0.0885727 0.0250694 0.22958)
(0.0689677 0.0531395 -0.174133)
(0.0474426 0.0433626 -0.445197)
(-0.0935753 0.00527791 -0.723892)
(-0.0745171 0.200212 -0.616974)
(-0.029581 -0.106713 -0.235658)
(-0.057232 0.140005 0.0638154)
(0.165911 0.102812 -0.218439)
(0.0354478 -0.0194034 -0.389315)
(0 0 0)
(0 0 0)
(0 0 0)
(0.185133 0.0374269 -0.17302)
(0.28208 0.0760134 -0.113293)
(0.0602527 0.15628 -0.113278)
(0.12558 0.0631482 -0.041886)
(0.0646799 -0.134777 -0.322447)
(-0.0534112 0.0439283 -0.286035)
(0.0522373 -0.0738545 -0.198624)
(-0.0166756 0.0101849 -1.22535)
(0.0848654 -0.0443283 -0.113554)
(0.0690464 -0.0257602 -0.512921)
(0.082563 0.0116535 -0.860158)
(0.0309594 0.111105 -0.947448)
(0.0338773 0.34647 -0.356295)
(0 0 0)
(-0.0516374 0.0183024 -0.0369155)
(-0.0547214 0.0100341 0.08411)
(0.077093 0.0303707 -0.266609)
(0.138684 0.0754509 -0.424252)
(0.0282136 0.0441269 -0.385645)
(-0.101002 0.0809983 -0.835971)
(0 0 0)
(-0.00399501 0.0637903 0.0270992)
(0.175888 0.0972341 -0.0766888)
(0.0511005 0.00682509 -0.378328)
(0.0425607 -0.0829571 -0.547598)
(-3.81944e-17 -1.17796e-16 6.71317e-16)
(0 0 0)
(0.232336 0.0419595 -0.0111269)
(0.000195011 0.144099 -0.0992213)
(0 0 0)
(0.0863034 0.0554455 -1.11023)
(0.0872224 -0.111661 -0.643582)
(0.0981462 -0.320073 -0.48581)
(0.0568393 0.0412747 -1.33449)
(0.0638042 0.0590101 -1.09999)
(0.104825 -0.0889539 -0.246149)
(0.0715264 -0.084401 -0.558944)
(0.0116923 0.0118971 -1.0974)
(-0.0162304 0.0490321 -0.848868)
(0 0 0)
(0 0 0)
(-0.00894258 -0.0189295 -0.0457613)
(0.0497683 -0.0828228 -0.0175955)
(0.204277 0.0239059 -0.247891)
(-0.0208786 -0.00479941 -0.662526)
(0.0278568 0.0573866 -0.620807)
(-0.0481443 0.119347 -0.750106)
(0 0 0)
(0.0375163 0.0424325 0.0211021)
(0.148737 0.12474 -0.203764)
(0.0365306 -0.0153604 -0.535558)
(0.0239511 -0.00783276 -0.332617)
(0 0 0)
(0.211399 0.0669063 -0.0836625)
(0 0 0)
(0 0 0)
(0.0969407 0.00923685 -1.03519)
(0.147025 0.0661606 -0.563491)
(0 0 0)
(0 0 0)
(0.0913103 0.0975212 -1.1136)
(0.059438 -0.152827 -0.0284394)
(0.0990338 0.00758351 -0.61995)
(0.0103517 0.0720937 -1.04648)
(0.03161 0.100275 -0.995975)
(2.77825e-18 -1.35544e-16 6.67072e-16)
(-0.0511217 -0.0144206 -0.0099868)
(0.0189544 -0.0188054 0.0831112)
(0.13901 0.0159659 -0.378401)
(-0.0177606 -0.0251408 -0.814891)
(-0.0943159 0.0532429 -0.77255)
(0.0884845 0.1288 -0.829164)
(0.0476631 0.0345197 0.0581726)
(0.132625 0.105721 -0.209549)
(0.045829 0.0213842 -0.460359)
(-0.160358 0.17112 -0.669596)
(0 0 0)
(0 0 0)
(0 0 0)
(0 0 0)
(0 0 0)
(0 0 0)
(0.0609616 -0.0274342 -0.876817)
(-0.0514623 -0.000510917 -0.898119)
(0.133667 0.0615662 -1.03612)
(0.0812468 -0.0528956 -0.56632)
(0.0769852 -0.0124595 -0.714248)
(0.036621 0.0403678 -1.0159)
(0.0171736 0.0891994 -0.913339)
(0.030302 0.227103 -0.81484)
(0.0564206 -0.00679349 -0.0686488)
(0.0467424 -0.00317087 -0.253941)
(0.392674 0.0270334 -0.768031)
(0.073465 0.0777704 -0.656045)
(0.0348624 0.00322043 -0.779518)
(0 0 0)
(0.100096 -0.0359761 -0.306469)
(0.0866836 0.0526613 -0.56098)
(0.0065219 -0.0153071 -0.46747)
(0 0 0)
(-0.175974 0.0611328 -0.81885)
(0.0207458 0.0384381 -0.734115)
(0 0 0)
(0 0 0)
(0.082643 0.019467 -1.1109)
(0 0 0)
(0.137515 -0.0267795 -0.815466)
(0.106506 0.100231 -1.11991)
(0.0111303 0.0739859 -1.04478)
(0.265754 -0.197488 -0.213814)
(0.00749126 -0.013053 -0.950816)
(0.0383259 0.0403801 -1.04103)
(0.0783842 0.0783744 -0.784052)
(0.122332 0.105497 -0.970972)
(-0.0923001 0.000232467 0.177126)
(0.188641 -0.0660603 0.0213596)
(0.0908511 0.0735598 -0.602413)
(0.00313585 0.00304731 -0.731653)
(-0.00975134 0.0895591 -0.847747)
(5.6967e-17 -2.52594e-17 9.40429e-16)
(1.67223e-17 -9.64489e-17 7.11633e-16)
(0.122342 0.0393621 -0.294907)
(0.00801842 -0.017248 -0.739579)
(0.0626312 0.0461937 -0.665216)
(0 0 0)
(0 0 0)
(0.0303014 0.103556 -0.546161)
(-0.0265243 -0.113068 -0.456091)
(0.0986588 -0.0292772 -1.17255)
(0 0 0)
(0.0826954 -0.0136491 -0.931244)
(0.0943059 0.016382 -1.16968)
(0.0819443 0.103732 -1.07009)
(-0.0018407 -0.0472852 -0.822796)
(0.0329098 0.0176919 -0.949363)
(0.000487391 -0.0199565 -1.01141)
(-0.00400735 0.0988007 -0.822856)
(-0.0759087 0.197015 -0.106344)
(0 0 0)
(0 0 0)
(0.0216562 0.00130483 -0.923656)
(0.0108766 -0.00710742 -0.602408)
(-0.00629774 -0.0167127 -0.754015)
(-2.6841e-17 -8.37654e-18 8.19518e-16)
(0 0 0)
(0.0203366 0.00884356 -0.768584)
(0.0064243 -0.0099095 -0.663757)
(0 0 0)
(0 0 0)
(0 0 0)
(0.0407016 0.0479005 -0.588167)
(0 0 0)
(5.88575e-19 -2.84495e-17 9.40461e-16)
(0 0 0)
(0.0612642 -0.030297 -0.958108)
(-1.12207e-16 -2.48474e-18 8.89625e-16)
(0.101755 0.0641886 -1.04932)
(-0.0106456 0.0084206 -0.971976)
(0.00685796 0.030466 -0.887721)
(0.0367513 0.0342059 -0.893798)
(0.0456424 0.0351565 -0.877403)
(0 0 0)
(0 0 0)
(-0.0466274 -0.00942407 -0.790818)
(0.0196915 0.0241827 -0.916826)
(-0.0328734 -0.0359226 -0.814122)
(0 0 0)
(0 0 0)
(0.0254321 0.0409178 -0.710689)
(0.0351127 0.00100748 -0.737889)
(0.0149544 -0.0287371 -0.680886)
(0 0 0)
(-0.0807615 -0.018264 -0.641024)
(0.0249423 -0.074499 -0.847692)
(0 0 0)
(0 0 0)
(0 0 0)
(0 0 0)
(0 0 0)
(0 0 0)
(0.0647133 -0.0305799 -1.1181)
(0.0365112 -0.00811965 -0.8584)
(-0.00553175 -0.0163972 -0.948617)
(0.0294782 -0.00270238 -0.87059)
(0.0153824 0.0330839 -0.858825)
(0.114359 0.16941 -0.959223)
(0 0 0)
(0 0 0)
(0.0258827 -0.0115413 -0.773974)
(0.0412061 0.0455983 -0.652328)
(0.0705718 0.0445026 -0.66847)
(0 0 0)
(0.0168792 0.045702 -0.817802)
(0.016355 0.0268452 -0.749214)
(0.0471004 -0.0234215 -0.673913)
(0.0440033 0.015383 -0.653385)
(-0.044819 0.0107969 -0.766367)
(0 0 0)
(0 0 0)
(0 0 0)
(-9.60507e-17 4.09658e-17 7.14682e-16)
(0.0479784 -0.0521142 -0.888127)
(0.0856466 -0.00610159 -0.833)
(-1.0306e-16 3.90665e-18 7.34893e-16)
(0.0621794 -0.0473975 -1.08038)
(0.0065422 -0.00766317 -0.875516)
(0.0402081 0.0123542 -0.884975)
(0.0140837 0.0155567 -0.918614)
(-0.000835194 0.0101293 -0.92344)
(0 0 0)
(0.0576672 0.0137724 -0.697165)
(-4.69078e-18 -1.79843e-17 5.95894e-16)
(0.0122311 0.0591116 -0.800781)
(0.0286336 0.01447 -0.704216)
(0 0 0)
(0 0 0)
(0 0 0)
(-0.0105909 0.0186669 -0.853699)
(0.0371255 0.11267 -0.665223)
(3.5922e-18 -1.65934e-17 7.24124e-16)
(0 0 0)
(0.0367521 0.082868 -0.618974)
(0.0419914 -0.0361954 -0.575158)
(0 0 0)
(0 0 0)
(0.0458562 -0.0473604 -0.877681)
(0.08715 -0.0534138 -0.95067)
(-1.03514e-16 -5.65129e-18 8.39222e-16)
(0 0 0)
(0 0 0)
(0.00765224 0.00694386 -0.946702)
(0.033291 0.019146 -0.868799)
(0.0544327 0.0705596 -0.908607)
(0 0 0)
(0 0 0)
(0 0 0)
(0.00715495 0.0144449 -0.831084)
(-0.00516187 0.01234 -0.78205)
(-0.0162413 -0.0406868 -0.777701)
(0 0 0)
(0 0 0)
(0.0447995 0.0302775 -0.75781)
(0.00705594 -0.00278222 -0.684117)
(0 0 0)
(0 0 0)
(0 0 0)
(0 0 0)
(0 0 0)
(0.0479936 0.0659881 -1.13191)
(0.0723483 -0.0529453 -0.730398)
(0.0960172 -0.0440614 -0.840657)
(0.0461563 -0.0235378 -1.22921)
(0 0 0)
(-0.00959404 -0.0242949 -0.869834)
(-0.00123067 -0.0178052 -0.92593)
(0.0343604 0.0117783 -0.902168)
(3.06725e-18 -8.71861e-17 8.06703e-16)
(0 0 0)
(0 0 0)
(-6.16545e-17 5.97811e-18 7.32638e-16)
(-3.27846e-17 -2.50596e-17 7.88931e-16)
(-0.0163574 -0.0423932 -0.791919)
(-0.0162413 -0.0406868 -0.777701)
(0 0 0)
(0.0382501 0.046931 -0.685531)
(0.0866273 0.00649768 -0.731087)
(0 0 0)
(0 0 0)
(0 0 0)
(0 0 0)
(0 0 0)
(0 0 0)
(0 0 0)
(0.0277969 -0.0597951 -0.900726)
(0 0 0)
(0.0631107 0.065235 -1.22674)
(0 0 0)
(4.7898e-17 1.64573e-17 8.64611e-16)
(1.37304e-17 2.30645e-17 8.36706e-16)
(0.0263056 -0.00105739 -0.869813)
(0.0702719 -0.0200108 -0.711406)
(0 0 0)
(0.0114591 0.0693222 -0.858796)
(-0.00403063 0.0472359 -0.86312)
(0.0328268 -0.0034714 -0.818022)
(-0.00705835 -0.030301 -0.822969)
(0 0 0)
(0.0355845 0.0142146 -1.04738)
(0.0430991 0.00823194 -0.853066)
(0.064605 -0.015117 -0.680365)
(0.0102859 -0.00704585 -0.638359)
(0 0 0)
(0 0 0)
(0 0 0)
(0 0 0)
(0 0 0)
(0 0 0)
(0 0 0)
(-9.21563e-17 3.24738e-17 8.29996e-16)
(0 0 0)
(0.105697 -0.029043 -1.0695)
(0.0288824 -0.00767059 -0.995519)
(-0.0058402 -0.0104915 -0.883681)
(0.0199825 -0.0244376 -0.847772)
(0.0705739 -0.0270075 -0.730292)
(0 0 0)
(0 0 0)
(0.000368923 0.0193965 -0.624234)
(0.0298055 -0.00808924 -0.764823)
(0.0243419 -0.01885 -0.665843)
(0.050326 -0.12515 -0.696553)
(0 0 0)
(0.0533494 -0.00296535 -0.863176)
(0.0239881 0.00735754 -0.803871)
(-0.00836605 0.00190958 -0.751055)
(0 0 0)
(0 0 0)
(0 0 0)
(0.0713266 -0.0912748 -0.561061)
(0 0 0)
(0 0 0)
(0 0 0)
(-6.78024e-17 3.04083e-17 8.05858e-16)
(0 0 0)
(0.0453527 -0.0500161 -1.0066)
(0.0633989 -0.0135614 -0.690022)
(0.0175936 -0.0158813 -0.862142)
(0.0339725 -0.0307118 -0.852775)
(0.0297628 -0.0021807 -0.947898)
(0 0 0)
(-0.0249224 0.0334136 -0.77872)
(0.00507114 0.0313842 -0.836037)
(0.0168957 0.0316881 -0.66263)
(0.0121092 -0.0306053 -0.718302)
(0.0198501 -0.021193 -0.814963)
(0 0 0)
(0.0355393 0.0352696 -0.720617)
(0.0489832 0.0194071 -0.628169)
(0.0176307 0.000161506 -0.614255)
(0 0 0)
(0 0 0)
(0.0723005 -0.0126102 -0.725215)
(0 0 0)
(0 0 0)
(0 0 0)
(0.0408791 -0.069004 -0.743233)
(0 0 0)
(0 0 0)
(0 0 0)
(0.0238837 -0.0343827 -0.765054)
(-0.00194139 -0.0132094 -0.856652)
(0.0164334 -0.0463177 -0.711801)
(0.0238802 -0.0174558 -0.873672)
(0 0 0)
(0 0 0)
(0 0 0)
(0.0141549 0.00907125 -0.646541)
(0 0 0)
(0 0 0)
(0 0 0)
(0 0 0)
(0.0834285 0.032564 -0.684143)
(0 0 0)
(0 0 0)
(0 0 0)
(0 0 0)
(0 0 0)
(0 0 0)
(0 0 0)
(0 0 0)
(0 0 0)
(0 0 0)
(0 0 0)
(-0.0294231 -0.0033586 -0.911552)
(-0.00713284 -0.0276997 -0.84821)
(0 0 0)
(0 0 0)
(0 0 0)
(-2.29388e-17 -8.04195e-18 6.59019e-16)
(0.0164486 0.0134123 -0.686746)
(-0.00563837 0.000826441 -0.773997)
(0 0 0)
(0.0400689 -0.00845471 -0.690294)
(0 0 0)
(0.0428565 0.0235974 -0.75957)
(0 0 0)
(0.038132 -0.0125655 -0.668572)
(0 0 0)
(0 0 0)
(0.0800078 0.0368488 -0.636011)
(0 0 0)
(0 0 0)
(0 0 0)
(0 0 0)
(0 0 0)
(0 0 0)
(0 0 0)
(0.00581012 -0.016615 -0.893692)
(-0.010399 -0.00435617 -0.848552)
(0.01474 -0.0256862 -0.788938)
(0 0 0)
(0 0 0)
(-0.00023216 0.0069156 -0.701757)
(0 0 0)
(-0.0149865 -0.00216251 -0.769219)
(0.026325 -0.0159502 -0.57914)
(0 0 0)
(0 0 0)
(0 0 0)
(0.00255923 0.0428731 -0.716224)
(0 0 0)
(0 0 0)
(0 0 0)
(-6.95781e-17 -2.34956e-17 5.90569e-16)
(0 0 0)
(0 0 0)
(0 0 0)
(0 0 0)
(0 0 0)
(0 0 0)
(0 0 0)
(0 0 0)
(0.0279544 -0.00103246 -0.847144)
(0 0 0)
(0 0 0)
(0 0 0)
(0 0 0)
(0.0316058 0.023232 -0.74221)
(-0.00926715 -0.00346353 -0.74257)
(0 0 0)
(0 0 0)
(0 0 0)
(0 0 0)
(0.0146408 0.0548929 -0.732216)
(0 0 0)
(0 0 0)
(0 0 0)
(0 0 0)
(0 0 0)
(0 0 0)
(0 0 0)
(0.0813297 -0.00355288 -0.673251)
(0 0 0)
(0 0 0)
(0 0 0)
(0 0 0)
(-0.0310967 -0.0311856 -0.788566)
(0 0 0)
(0 0 0)
(0 0 0)
(0 0 0)
(0 0 0)
(0 0 0)
(0 0 0)
(0 0 0)
(0 0 0)
(0.0469041 0.0593186 -0.648842)
(0.0499012 0.0386665 -0.664966)
(0 0 0)
(0 0 0)
(0 0 0)
(0 0 0)
(0 0 0)
(0 0 0)
(0 0 0)
(0 0 0)
(0.10125 -0.00206758 -0.801558)
(0 0 0)
(0 0 0)
(0 0 0)
(-0.0299245 -0.0263359 -0.84735)
(0 0 0)
(0 0 0)
(0 0 0)
(0 0 0)
(0 0 0)
(0 0 0)
(0 0 0)
(0 0 0)
(0 0 0)
(0 0 0)
(0 0 0)
(0.0197196 0.0176483 -0.612154)
(0 0 0)
(0 0 0)
(0 0 0)
(0 0 0)
(0 0 0)
(0 0 0)
(0 0 0)
(0.071179 -0.00930607 -0.833136)
(0 0 0)
(0 0 0)
(0 0 0)
(0 0 0)
(0.0329783 -0.0299827 -0.750584)
(0 0 0)
(0 0 0)
(0 0 0)
(0 0 0)
(-0.0279767 -0.00300581 -0.673946)
(0 0 0)
(0 0 0)
(0 0 0)
(0 0 0)
(0 0 0)
(0.037499 0.00841374 -0.57916)
(0 0 0)
(0 0 0)
(0 0 0)
(0 0 0)
(0 0 0)
(0 0 0)
(0 0 0)
(0 0 0)
(0 0 0)
(0 0 0)
(0 0 0)
(0 0 0)
(0 0 0)
(0 0 0)
(0 0 0)
(0 0 0)
(0 0 0)
(2.15685e-17 5.82534e-18 6.31368e-16)
(0 0 0)
(0 0 0)
(0 0 0)
(0 0 0)
(0 0 0)
(0 0 0)
(0 0 0)
(0 0 0)
(0 0 0)
(0 0 0)
(0 0 0)
(0 0 0)
(0 0 0)
(0 0 0)
(0 0 0)
(0 0 0)
(0 0 0)
(0 0 0)
(0 0 0)
(0 0 0)
(0 0 0)
(0 0 0)
(0 0 0)
(0 0 0)
(0 0 0)
(0 0 0)
(0 0 0)
(0 0 0)
(0 0 0)
(0 0 0)
(0 0 0)
(0 0 0)
(0.103772 0.0275293 -0.477382)
(0 0 0)
(0 0 0)
(0 0 0)
(0 0 0)
(0 0 0)
(0 0 0)
(0 0 0)
(0 0 0)
(0 0 0)
(0 0 0)
(0 0 0)
(0 0 0)
(0 0 0)
(0 0 0)
(0 0 0)
(0 0 0)
(0 0 0)
(0 0 0)
(0 0 0)
(0 0 0)
(0 0 0)
(0 0 0)
(0 0 0)
(0 0 0)
(0 0 0)
(0 0 0)
(0 0 0)
(0 0 0)
(0 0 0)
(0 0 0)
(0 0 0)
(0 0 0)
(0 0 0)
(0 0 0)
(0 0 0)
(0 0 0)
(0 0 0)
(0 0 0)
(0 0 0)
(0 0 0)
(0 0 0)
(0 0 0)
(0 0 0)
(0 0 0)
(0 0 0)
(0 0 0)
(0 0 0)
(0 0 0)
(0 0 0)
(0 0 0)
(0 0 0)
(0 0 0)
(0 0 0)
(0 0 0)
(0 0 0)
(0 0 0)
(0 0 0)
(0 0 0)
(0 0 0)
(0 0 0)
(0 0 0)
(0 0 0)
(0 0 0)
(0 0 0)
(0 0 0)
(0 0 0)
(0 0 0)
(0 0 0)
(0 0 0)
(0 0 0)
(0 0 0)
(0 0 0)
(0 0 0)
(0 0 0)
(0 0 0)
(0 0 0)
(0 0 0)
(0 0 0)
(0 0 0)
(0 0 0)
(0 0 0)
(0 0 0)
(0 0 0)
(0 0 0)
(0 0 0)
(0 0 0)
(0 0 0)
(0 0 0)
(0 0 0)
(0 0 0)
(0 0 0)
(0 0 0)
(0 0 0)
(0 0 0)
(0 0 0)
(0 0 0)
(0 0 0)
(0 0 0)
(0 0 0)
(0 0 0)
(0 0 0)
(0 0 0)
(0 0 0)
(0 0 0)
(0 0 0)
(0 0 0)
(0 0 0)
(0 0 0)
(0 0 0)
(0 0 0)
(0 0 0)
(0 0 0)
(0 0 0)
(0 0 0)
(0 0 0)
(0 0 0)
(0 0 0)
(0 0 0)
(0 0 0)
(0 0 0)
(0 0 0)
(0 0 0)
(0 0 0)
(0 0 0)
(0.00293663 -0.0619074 -0.764945)
(0 0 0)
(0 0 0)
(0 0 0)
(0 0 0)
(0 0 0)
(0 0 0)
(0 0 0)
(0 0 0)
(0 0 0)
(0 0 0)
(0 0 0)
(0 0 0)
(0 0 0)
(0 0 0)
(0 0 0)
(0 0 0)
(0 0 0)
(0 0 0)
(0 0 0)
(0 0 0)
(0 0 0)
(0 0 0)
(0 0 0)
(0 0 0)
(0 0 0)
(0 0 0)
(0 0 0)
(0 0 0)
(0 0 0)
(0 0 0)
(0 0 0)
(0 0 0)
(0 0 0)
(0 0 0)
(0 0 0)
(0 0 0)
(0 0 0)
(0 0 0)
(0 0 0)
(0 0 0)
(0 0 0)
(0 0 0)
(0 0 0)
(0 0 0)
(0 0 0)
(0 0 0)
(0 0 0)
(0 0 0)
(0 0 0)
(0 0 0)
(0 0 0)
(0 0 0)
(0 0 0)
(0 0 0)
(0 0 0)
(0 0 0)
(0 0 0)
(0 0 0)
(0 0 0)
(0 0 0)
(0 0 0)
(0 0 0)
(0 0 0)
(0 0 0)
(0 0 0)
(0 0 0)
(0 0 0)
(0 0 0)
(0 0 0)
(0 0 0)
(0 0 0)
(0 0 0)
(0 0 0)
(0 0 0)
(0 0 0)
(0 0 0)
(0 0 0)
(0 0 0)
(0 0 0)
(0 0 0)
(0 0 0)
(0 0 0)
(0 0 0)
(0 0 0)
(0 0 0)
(0 0 0)
(0 0 0)
(0 0 0)
(0 0 0)
(0 0 0)
(0 0 0)
(0 0 0)
(0 0 0)
(0 0 0)
(0 0 0)
(0 0 0)
(0 0 0)
(0 0 0)
(0 0 0)
(0 0 0)
(0 0 0)
(0 0 0)
(0 0 0)
(0 0 0)
(0 0 0)
(0 0 0)
(0 0 0)
(0 0 0)
(0 0 0)
(0 0 0)
(0 0 0)
(0 0 0)
(0 0 0)
(0 0 0)
(0 0 0)
(0 0 0)
(0 0 0)
(0 0 0)
(0 0 0)
(0 0 0)
(0 0 0)
(0 0 0)
(0 0 0)
(0 0 0)
(0 0 0)
(0 0 0)
(0 0 0)
(0 0 0)
(0 0 0)
(0 0 0)
(0 0 0)
(0 0 0)
(0 0 0)
(0 0 0)
(0 0 0)
(0 0 0)
(0 0 0)
(0 0 0)
(0 0 0)
(0 0 0)
(0 0 0)
(0 0 0)
(0 0 0)
(0 0 0)
(0 0 0)
(0 0 0)
(0 0 0)
(0 0 0)
(0 0 0)
(0 0 0)
(0 0 0)
(0 0 0)
(0 0 0)
(0 0 0)
(0 0 0)
(0 0 0)
(0 0 0)
(0 0 0)
(0 0 0)
(0 0 0)
(0 0 0)
(0 0 0)
(0 0 0)
(0 0 0)
(0 0 0)
(0 0 0)
(0 0 0)
(0 0 0)
(0 0 0)
(0 0 0)
(0 0 0)
(0 0 0)
(0 0 0)
(0 0 0)
(0 0 0)
(0 0 0)
(0 0 0)
(0 0 0)
(0 0 0)
(0 0 0)
(0 0 0)
(0 0 0)
(0 0 0)
(0 0 0)
(0 0 0)
(0 0 0)
(0 0 0)
(0 0 0)
(0 0 0)
(0 0 0)
(0 0 0)
(0 0 0)
(0 0 0)
(0 0 0)
(0 0 0)
(0 0 0)
(0 0 0)
(0 0 0)
(0 0 0)
(0 0 0)
(0 0 0)
(0 0 0)
(0 0 0)
(0 0 0)
(0 0 0)
(0 0 0)
(0 0 0)
(0 0 0)
(0 0 0)
(0 0 0)
(0 0 0)
(0 0 0)
(0 0 0)
(0 0 0)
(0 0 0)
(0 0 0)
(0 0 0)
(0 0 0)
(0 0 0)
(0 0 0)
(0 0 0)
(0 0 0)
(0 0 0)
(0 0 0)
(0 0 0)
(0 0 0)
(0 0 0)
(0 0 0)
(0 0 0)
(0 0 0)
(0 0 0)
(0 0 0)
(0 0 0)
(0 0 0)
(0 0 0)
(0 0 0)
(0 0 0)
(0 0 0)
(0 0 0)
(0 0 0)
(0 0 0)
(0 0 0)
(0 0 0)
(0 0 0)
(0 0 0)
(0 0 0)
(0 0 0)
(0 0 0)
(0 0 0)
(0 0 0)
(0 0 0)
(0 0 0)
(0 0 0)
(0 0 0)
(0 0 0)
(0 0 0)
(0 0 0)
(0 0 0)
(0 0 0)
(0 0 0)
(0 0 0)
(0 0 0)
(0 0 0)
(0 0 0)
(0 0 0)
(0 0 0)
(0 0 0)
(0 0 0)
(0 0 0)
(0 0 0)
(0 0 0)
(0 0 0)
(0 0 0)
(0 0 0)
(0 0 0)
(0 0 0)
(0 0 0)
(0 0 0)
(0 0 0)
(0 0 0)
(0 0 0)
(0 0 0)
(0 0 0)
(0 0 0)
(0 0 0)
(0 0 0)
(0 0 0)
(0 0 0)
(0 0 0)
(0 0 0)
(0 0 0)
(0 0 0)
(0 0 0)
(0 0 0)
(0 0 0)
(0 0 0)
(0 0 0)
(0 0 0)
(0 0 0)
(0 0 0)
(0 0 0)
(0 0 0)
(0 0 0)
(0 0 0)
(0 0 0)
(0 0 0)
(0 0 0)
(0 0 0)
(0 0 0)
(0 0 0)
(0 0 0)
(0 0 0)
(0 0 0)
(0 0 0)
(0 0 0)
(0 0 0)
(0 0 0)
(0 0 0)
(0 0 0)
(0 0 0)
(0 0 0)
(0 0 0)
(0 0 0)
(0 0 0)
(0 0 0)
(0 0 0)
(0 0 0)
(0 0 0)
(0 0 0)
(0 0 0)
(0 0 0)
(0 0 0)
(0 0 0)
(0 0 0)
(0 0 0)
(0 0 0)
(0 0 0)
(0 0 0)
(0 0 0)
(0 0 0)
(0 0 0)
(0 0 0)
(0 0 0)
(0 0 0)
(0 0 0)
(0 0 0)
(0 0 0)
(0 0 0)
(0 0 0)
(0 0 0)
(0 0 0)
(0 0 0)
(0 0 0)
(0 0 0)
(0 0 0)
(0 0 0)
(0 0 0)
(0 0 0)
(0 0 0)
(0 0 0)
(0 0 0)
(0 0 0)
(0 0 0)
(0 0 0)
(0 0 0)
(0 0 0)
(0 0 0)
(0 0 0)
(0 0 0)
(0 0 0)
(0 0 0)
(0 0 0)
(0 0 0)
(0 0 0)
(0 0 0)
(0 0 0)
(0 0 0)
(0 0 0)
(0 0 0)
(0 0 0)
(0 0 0)
(0 0 0)
(0 0 0)
(0 0 0)
(0 0 0)
(0 0 0)
(0 0 0)
(0 0 0)
(0 0 0)
(0 0 0)
(0 0 0)
(0 0 0)
(0 0 0)
(0 0 0)
(0 0 0)
(0 0 0)
(0 0 0)
(0 0 0)
(0 0 0)
(0 0 0)
(0 0 0)
(0 0 0)
(0 0 0)
(0 0 0)
(0 0 0)
(0 0 0)
(0 0 0)
(0 0 0)
(0 0 0)
(0 0 0)
(0 0 0)
(0 0 0)
(0 0 0)
(0 0 0)
(0 0 0)
(0 0 0)
(0 0 0)
(0 0 0)
(0 0 0)
(0 0 0)
(0 0 0)
(0 0 0)
(0 0 0)
(0 0 0)
(0 0 0)
(0 0 0)
(0 0 0)
(0 0 0)
(0 0 0)
(0 0 0)
(0 0 0)
(0 0 0)
(0 0 0)
(0 0 0)
(0 0 0)
(0 0 0)
(0 0 0)
(0 0 0)
(0 0 0)
(0 0 0)
(0 0 0)
(0 0 0)
(0 0 0)
(0 0 0)
(0 0 0)
(0 0 0)
(0 0 0)
(0 0 0)
(0 0 0)
(0 0 0)
(0 0 0)
(0 0 0)
(0 0 0)
(0 0 0)
(0 0 0)
(0 0 0)
(0 0 0)
(0 0 0)
(0 0 0)
(0 0 0)
(0 0 0)
(0 0 0)
(0 0 0)
(0 0 0)
(0 0 0)
(0 0 0)
(0 0 0)
(0 0 0)
(0 0 0)
(0 0 0)
(0 0 0)
(0 0 0)
(0 0 0)
(0 0 0)
(0 0 0)
(0 0 0)
(0 0 0)
(0 0 0)
(0 0 0)
(0 0 0)
(0 0 0)
(0 0 0)
(0 0 0)
(0 0 0)
(0 0 0)
(0 0 0)
(0 0 0)
(0 0 0)
(0 0 0)
(0 0 0)
(0 0 0)
(0 0 0)
(0 0 0)
(0 0 0)
(0 0 0)
(0 0 0)
(0 0 0)
(0 0 0)
(0 0 0)
(0 0 0)
(0 0 0)
(0 0 0)
(0 0 0)
(0 0 0)
(0 0 0)
(0 0 0)
(0 0 0)
(0 0 0)
(0 0 0)
(0 0 0)
(0 0 0)
(0 0 0)
(0 0 0)
(0 0 0)
(0 0 0)
(0 0 0)
(0 0 0)
(0 0 0)
(0 0 0)
(0 0 0)
(0 0 0)
(0 0 0)
(0 0 0)
(0 0 0)
(0 0 0)
(0 0 0)
(0 0 0)
(0 0 0)
(0 0 0)
(0 0 0)
(0 0 0)
(0 0 0)
(0 0 0)
(0 0 0)
(0 0 0)
(0 0 0)
(0 0 0)
(0 0 0)
(0 0 0)
(0 0 0)
(0 0 0)
(0 0 0)
(0 0 0)
(0 0 0)
(0 0 0)
(0 0 0)
(0 0 0)
(0 0 0)
(0 0 0)
(0 0 0)
(0 0 0)
(0 0 0)
(0 0 0)
(0 0 0)
(0 0 0)
(0 0 0)
(0 0 0)
(0 0 0)
(0 0 0)
(0 0 0)
(0 0 0)
(0 0 0)
(0 0 0)
(0 0 0)
(0 0 0)
(0 0 0)
(0 0 0)
(0 0 0)
(0 0 0)
(0 0 0)
(0 0 0)
(0 0 0)
(0 0 0)
(0 0 0)
(0 0 0)
(0 0 0)
(0 0 0)
(0 0 0)
(0 0 0)
(0 0 0)
(0 0 0)
(0 0 0)
(0 0 0)
(0 0 0)
(0 0 0)
(0 0 0)
(0 0 0)
(0 0 0)
(0 0 0)
(0 0 0)
(0 0 0)
(0 0 0)
(0 0 0)
(0 0 0)
(0 0 0)
(0 0 0)
(0 0 0)
(0 0 0)
(0 0 0)
(0 0 0)
(0 0 0)
(0 0 0)
(0 0 0)
(0 0 0)
(0 0 0)
(0 0 0)
(0 0 0)
(0 0 0)
(0 0 0)
(0 0 0)
(0 0 0)
(0 0 0)
(0 0 0)
(0 0 0)
(0 0 0)
(0 0 0)
(0 0 0)
(0 0 0)
(0 0 0)
(0 0 0)
(0 0 0)
(0 0 0)
(0 0 0)
(0 0 0)
(0 0 0)
(0 0 0)
(0 0 0)
(0 0 0)
(0 0 0)
(0 0 0)
(0 0 0)
(0 0 0)
(0 0 0)
(0 0 0)
(0 0 0)
(0 0 0)
(0 0 0)
(0 0 0)
(0 0 0)
(0 0 0)
(0 0 0)
(0 0 0)
(0 0 0)
(0 0 0)
(0 0 0)
(0 0 0)
(0 0 0)
(0 0 0)
(0 0 0)
(0 0 0)
(0 0 0)
(0 0 0)
(0 0 0)
(0 0 0)
(0 0 0)
(0 0 0)
(0 0 0)
(0 0 0)
(0 0 0)
(0 0 0)
(0 0 0)
(0 0 0)
(0 0 0)
(0 0 0)
(0 0 0)
(0 0 0)
(0 0 0)
(0 0 0)
(0 0 0)
(0 0 0)
(0 0 0)
(0 0 0)
(0 0 0)
(0 0 0)
(0 0 0)
(0 0 0)
(0 0 0)
(0 0 0)
(0 0 0)
(0 0 0)
(0 0 0)
(0 0 0)
(0 0 0)
(0 0 0)
(0 0 0)
(0 0 0)
(0 0 0)
(0 0 0)
(0 0 0)
(0 0 0)
(0 0 0)
(0 0 0)
(0 0 0)
(0 0 0)
(0 0 0)
(0 0 0)
(0 0 0)
(0 0 0)
(0 0 0)
(0 0 0)
(0 0 0)
(0 0 0)
(0 0 0)
(0 0 0)
(0 0 0)
(0 0 0)
(0 0 0)
(0 0 0)
(0 0 0)
(0 0 0)
(0 0 0)
(0 0 0)
(0 0 0)
(0 0 0)
(0 0 0)
(0 0 0)
(0 0 0)
(0 0 0)
(0 0 0)
(0 0 0)
(0 0 0)
(0 0 0)
(0 0 0)
(0 0 0)
(0 0 0)
(0 0 0)
(0 0 0)
(0 0 0)
(0 0 0)
(0 0 0)
(0 0 0)
(0 0 0)
(0 0 0)
(0 0 0)
(0 0 0)
(0 0 0)
(0 0 0)
(0 0 0)
(0 0 0)
(0 0 0)
(0 0 0)
(0 0 0)
(0 0 0)
(0 0 0)
(0 0 0)
(0 0 0)
(0 0 0)
(0 0 0)
(0 0 0)
(0 0 0)
(0 0 0)
(0 0 0)
(0 0 0)
(0 0 0)
(0 0 0)
(0 0 0)
(0 0 0)
(0 0 0)
(0 0 0)
(0 0 0)
(0 0 0)
(0 0 0)
(0 0 0)
(0 0 0)
(0 0 0)
(0 0 0)
(0 0 0)
(0 0 0)
(0 0 0)
(0 0 0)
(0 0 0)
(0 0 0)
(0 0 0)
(0 0 0)
(0 0 0)
(0 0 0)
(0 0 0)
(0 0 0)
(0 0 0)
(0 0 0)
(0 0 0)
(0 0 0)
(0 0 0)
(0 0 0)
(0 0 0)
(0 0 0)
(0 0 0)
(0 0 0)
(0 0 0)
(0 0 0)
(0 0 0)
(0 0 0)
(0 0 0)
(0 0 0)
(0 0 0)
(0 0 0)
(0 0 0)
(0 0 0)
(0 0 0)
(0 0 0)
(0 0 0)
(0 0 0)
(0 0 0)
(0 0 0)
(0 0 0)
(0 0 0)
(0 0 0)
(0 0 0)
(0 0 0)
(0 0 0)
(0 0 0)
(0 0 0)
(0 0 0)
(0 0 0)
(0 0 0)
(0 0 0)
(0 0 0)
(0 0 0)
(0 0 0)
(0 0 0)
(0 0 0)
(0 0 0)
(0 0 0)
(0 0 0)
(0 0 0)
(0 0 0)
(0 0 0)
(0 0 0)
(0 0 0)
(0 0 0)
(0 0 0)
(0 0 0)
(0 0 0)
(0 0 0)
(0 0 0)
(0 0 0)
(0 0 0)
(0 0 0)
(0 0 0)
(0 0 0)
(0 0 0)
(0 0 0)
(0 0 0)
(0 0 0)
(0 0 0)
(0 0 0)
(0 0 0)
(0 0 0)
(0 0 0)
(0 0 0)
(0 0 0)
(0 0 0)
(0 0 0)
(0 0 0)
(0 0 0)
(0 0 0)
(0 0 0)
(0 0 0)
(0 0 0)
(0 0 0)
(0 0 0)
(0 0 0)
(0 0 0)
(0 0 0)
(0 0 0)
(0 0 0)
(0 0 0)
(0 0 0)
(0 0 0)
(0 0 0)
(0 0 0)
(0 0 0)
(0 0 0)
(0 0 0)
(0 0 0)
(0 0 0)
(0 0 0)
(0 0 0)
(0 0 0)
(0 0 0)
(0 0 0)
(0 0 0)
(0 0 0)
(0 0 0)
(0 0 0)
(0 0 0)
(0 0 0)
(0 0 0)
(0 0 0)
(0 0 0)
(0 0 0)
(0 0 0)
(0 0 0)
(0 0 0)
(0 0 0)
(0 0 0)
(0 0 0)
(0 0 0)
(0 0 0)
(0 0 0)
(0 0 0)
(0 0 0)
(0 0 0)
(0 0 0)
(0 0 0)
(0 0 0)
(0 0 0)
(0 0 0)
(0 0 0)
(0 0 0)
(0 0 0)
(0 0 0)
(0 0 0)
(0 0 0)
(0 0 0)
(0 0 0)
(0 0 0)
(0 0 0)
(0 0 0)
(0 0 0)
(0 0 0)
(0 0 0)
(0 0 0)
(0 0 0)
(0 0 0)
(0 0 0)
(0 0 0)
(0 0 0)
(0 0 0)
(0 0 0)
(0 0 0)
(0 0 0)
(0 0 0)
(0 0 0)
(0 0 0)
(0 0 0)
(0 0 0)
(0 0 0)
(0 0 0)
(0 0 0)
(0 0 0)
(0 0 0)
(0 0 0)
(0 0 0)
(0 0 0)
(0 0 0)
(0 0 0)
(0 0 0)
(0 0 0)
(0 0 0)
(0 0 0)
(0 0 0)
(0 0 0)
(0 0 0)
(0 0 0)
(0 0 0)
(0 0 0)
(0 0 0)
(0 0 0)
(0 0 0)
(0 0 0)
(0 0 0)
(0 0 0)
(0 0 0)
(0 0 0)
(0 0 0)
(0.0126259 0.0395192 -0.0485174)
(0.0405542 0.0233344 -0.0200165)
(0.0482589 0.0774694 -0.0231033)
(0.05747 0.132658 -0.0454887)
(0.0191409 0.0406556 -0.0200399)
(0.0860799 0.1479 0.00999811)
(0.0167119 0.0589841 0.0021311)
(-0.0448056 -0.00576758 -0.000243136)
(0.0322441 0.0735764 -0.0478172)
(0.0327105 0.0622872 -0.0503595)
(0.0842497 0.120949 -0.0475138)
(0.0856614 0.136283 -0.0185161)
(0.163903 0.194728 0.00854681)
(0.106089 0.203798 -0.0351739)
(0.152345 0.234695 -0.00459097)
(0.214315 0.276494 0.00896478)
(0.207255 0.325277 0.00709942)
(0.131102 0.173728 0.03964)
(-3.56683e-05 0.00337509 0.0296644)
(0.12257 0.113066 -0.00654353)
(-0.12394 -0.199461 -0.0332691)
(-0.113471 -0.0814643 -0.00249771)
(-0.101674 -0.0856674 -0.0184619)
(-0.129259 -0.228614 -0.0547833)
(-0.106052 -0.128304 -0.0409285)
(-0.0585258 -0.0587024 -0.0783968)
(0.0783386 0.0937608 -0.0259455)
(0.0389318 0.129103 -0.0532285)
(0.133577 0.152439 -0.0215743)
(0.169318 0.120821 0.048972)
(0.193427 0.202212 0.0727051)
(0.183949 0.101504 0.0639395)
(0.132073 0.120767 0.0520109)
(0.12522 0.240586 0.047271)
(0.0619324 0.247235 -0.0109232)
(0.0731789 0.21904 0.0198656)
(-0.149177 0.0843321 -0.0431603)
(0.000250474 0.114493 -0.0682329)
(-0.174811 -0.162245 -0.0809518)
(-0.19035 -0.0084285 -0.0747573)
(-0.195746 -0.0782222 -0.108878)
(-0.115429 -0.165816 -0.0555545)
(-0.0724699 -0.146818 -0.0531499)
(-0.120966 -0.0998206 -0.0927913)
(-0.0531275 -0.0911778 -0.0827196)
(-0.02313 -0.0720214 -0.0188183)
(-0.0019484 -0.0541173 -0.0581532)
(0.00549657 -0.0198416 -0.0188727)
(0.0495946 0.120453 -0.0209013)
(0.143713 0.217479 0.0531115)
(0.0861862 0.103241 0.0122173)
(0.123472 0.109006 0.0536574)
(0.0333535 0.0289394 0.0388556)
(0.0840197 0.126037 0.0360485)
(-0.167918 -0.0762897 0.00478078)
(-0.227294 -0.0483278 -0.00314753)
(-0.21159 -0.0372387 -0.0037647)
(-0.211411 -0.0434918 -0.00180014)
(-0.194952 -0.0229784 -0.00398668)
(-0.212099 -0.014028 -0.031193)
(-0.208485 0.0012948 -0.113221)
(-0.160538 -0.0142795 -0.0014879)
(-0.125415 -0.000173867 0.00173101)
(-0.137837 0.00232458 -0.123525)
(-0.0408025 -0.0140145 -0.0692226)
(-0.0911592 0.0190766 -0.0024055)
(-0.0364346 0.0241561 -0.00777061)
(0.0118537 -0.0147234 -0.0487773)
(0.00634881 -0.0064066 0.000730166)
(-0.0108388 0.00644519 -0.000592233)
(0.0411304 0.0491806 -0.00403809)
(-0.010647 0.00385985 -0.00177969)
(-0.167955 -0.0673964 -0.0174198)
(-0.0459377 -0.0259379 -0.0129241)
(-0.12917 -0.048951 -0.0208733)
(-0.156291 -0.0424292 -0.000129561)
(-0.182779 -0.00728456 -0.0151194)
(-0.153557 -0.0279982 -0.00587511)
(-0.135735 -0.0115128 -0.00255964)
(-0.146718 -0.0035191 -0.00287558)
(-0.102965 0.0162673 -0.00366402)
(-0.128825 0.00243728 -0.0320654)
(-0.0909449 -0.00327899 -0.000870966)
(-0.0723043 0.0328351 -0.00450281)
(-0.0293228 0.0229299 -0.00585006)
(-0.0395555 2.87573e-05 -0.0037315)
(-0.0120279 -0.00416575 -0.00403125)
(-0.0162363 0.00318988 0.00171694)
(-0.0404797 -0.0219553 -0.0115726)
(-0.0947427 -0.0276031 -0.041154)
(-0.0983335 -0.0167982 -0.0565675)
(-0.0444006 -0.0232387 -0.204392)
(-0.0796285 -0.00362112 -0.0165144)
(-0.0456069 -0.00570879 -0.0087553)
(-0.0347855 -0.0144469 -0.20995)
(-0.03362 0.00385699 -0.00723236)
(-0.0199836 0.0721643 -0.132271)
(-0.0204747 0.0553436 -0.148752)
(-0.000922866 0.0250957 -0.0974987)
(-0.0119932 0.133165 -0.0955886)
(0.00657134 0.136386 -0.0714774)
(-0.00057639 0.0160125 -0.109526)
(0.00132811 0.0782113 -0.119427)
(-0.000458059 0.0894122 -0.0897786)
(-0.00961309 0.118891 -0.0094984)
(-0.0609507 -0.0173275 0.00125055)
(-0.0224381 0.0228864 -0.087746)
(-0.0368565 0.0727702 -0.0451832)
(-0.0444263 0.00786198 -0.0790242)
(-0.117447 -0.0610202 -0.0439562)