/*--------------------------------*- C++ -*----------------------------------*\
| =========                 |                                                 |
| \\      /  F ield         | OpenFOAM: The Open Source CFD Toolbox           |
|  \\    /   O peration     | Version:  5.x                                   |
|   \\  /    A nd           | Web:      www.OpenFOAM.org                      |
|    \\/     M anipulation  |                                                 |
\*---------------------------------------------------------------------------*/
FoamFile
{
    version     2.0;
    format      ascii;
    class       surfaceScalarField;
    location    "4.05";
    object      phi;
}
// * * * * * * * * * * * * * * * * * * * * * * * * * * * * * * * * * * * * * //

dimensions      [0 3 -1 0 0 0 0];

internalField   nonuniform List<scalar> 
29271
(
-3.92481e-06
8.13329e-07
1.50571e-06
1.7097e-06
-5.05225e-06
7.25903e-07
2.69147e-06
1.73549e-06
-1.59633e-05
-2.24837e-06
4.23827e-07
-8.04525e-07
3.57213e-06
1.50202e-05
-1.93374e-05
-7.02675e-06
1.28081e-06
-3.29846e-06
4.13183e-06
2.42499e-05
-1.41444e-05
-1.86945e-06
-8.35127e-07
6.95118e-06
6.8175e-06
3.08026e-06
-1.75928e-05
-6.71381e-06
-5.58628e-08
-2.07538e-06
5.8778e-06
2.056e-05
-2.0446e-05
-2.54582e-06
4.68594e-07
-2.52834e-06
-4.52791e-06
2.95795e-05
-1.79112e-05
1.16458e-06
2.85551e-06
-3.93872e-06
-7.65968e-06
2.54896e-05
-2.08411e-05
-6.92563e-07
7.58734e-06
-5.30792e-06
-1.6696e-05
3.59503e-05
-1.16909e-05
-1.18394e-06
-1.46669e-08
8.469e-06
4.52698e-06
-4.48517e-06
1.07091e-07
1.87223e-06
2.50207e-06
-1.86175e-05
3.41523e-06
-2.8953e-06
-7.4975e-06
-1.02522e-06
2.66203e-05
-1.69011e-05
6.64471e-06
7.11663e-06
-5.15595e-06
-3.35767e-06
1.16533e-05
-1.51869e-05
6.46901e-06
2.01966e-06
3.29881e-06
-3.70106e-06
7.10048e-06
-2.06062e-05
2.30312e-05
-8.88947e-06
8.27706e-06
-2.18601e-05
2.00475e-05
-1.79585e-05
2.23907e-06
5.22264e-07
-3.95767e-06
1.83131e-05
8.41702e-07
-2.03252e-05
3.49765e-07
-4.80837e-06
-4.85853e-06
2.53609e-05
4.28149e-06
-1.38075e-05
3.4697e-06
7.3832e-07
-3.70416e-06
-1.45921e-06
1.47629e-05
-1.68651e-05
1.90633e-06
1.20953e-06
4.94458e-06
-2.25544e-06
1.10601e-05
-2.04238e-05
1.14958e-06
-6.71283e-06
1.89013e-05
1.45237e-05
-7.4379e-06
-6.18485e-06
2.37502e-06
8.59449e-08
3.76123e-06
-1.13963e-05
3.73337e-06
-2.81021e-06
6.95562e-06
3.48086e-06
-1.52346e-05
2.39563e-07
-1.07829e-07
-2.44192e-06
1.0734e-05
6.81077e-06
-4.91215e-06
3.14766e-06
-3.30829e-07
2.19249e-06
-3.27491e-07
4.86234e-07
-1.41395e-07
-6.95771e-08
-4.19791e-07
-1.09348e-06
1.7781e-06
-2.82408e-07
1.78625e-06
8.84547e-07
-1.69018e-05
-2.55634e-06
-3.86242e-06
2.06498e-05
-3.91934e-07
-3.7229e-05
4.12123e-06
-9.43264e-06
-5.95085e-06
4.88832e-05
-2.00525e-06
-4.01567e-08
-7.07128e-07
-5.41606e-06
1.36455e-06
6.80404e-06
-8.04778e-06
5.25524e-06
-2.26794e-05
-7.14237e-06
1.06748e-05
2.19395e-05
-1.28139e-05
1.82671e-06
4.51021e-05
-2.7104e-05
-2.837e-05
-1.83828e-05
-7.70646e-06
1.08814e-06
1.6426e-06
1.45793e-06
4.50789e-06
7.41442e-06
9.45036e-06
9.18377e-06
1.27033e-05
-1.34332e-05
4.82695e-06
4.23613e-05
-2.91997e-05
-3.21344e-05
-5.93233e-06
-6.0613e-06
7.25721e-06
6.7766e-06
7.80835e-06
4.91676e-06
3.22214e-07
5.151e-06
6.40314e-05
7.48392e-06
1.67841e-06
3.6521e-06
1.32142e-06
1.54142e-07
1.40069e-06
4.52625e-07
-2.62288e-05
-2.45954e-05
-1.52845e-05
-3.29724e-05
-9.77457e-06
1.55517e-06
-1.98993e-06
1.04753e-05
-4.27732e-06
-1.51727e-06
-1.67054e-06
7.46373e-06
4.96651e-06
-3.59237e-05
-6.05896e-06
-4.60613e-06
-1.21254e-06
4.28348e-05
-4.96679e-07
-1.72239e-06
8.24942e-06
-7.17402e-06
-1.90974e-06
-6.73213e-06
-2.23706e-06
4.05853e-06
2.55808e-06
5.45693e-06
1.77578e-06
-2.90906e-06
-3.59893e-06
3.02278e-05
-4.08817e-06
-5.12968e-06
-4.36867e-06
-5.80299e-06
-1.9469e-06
-3.16874e-06
0.00010173
-1.56217e-06
-5.16903e-07
-1.83339e-07
-1.25235e-06
-3.75549e-07
5.59941e-08
-1.49103e-05
-3.95567e-05
-1.53243e-05
-2.07463e-05
-1.2229e-05
6.76806e-08
-6.17871e-07
7.82619e-07
1.00497e-05
-3.04878e-05
4.7857e-06
-7.07193e-06
-3.63395e-06
3.23601e-05
4.0478e-06
-5.1402e-06
-1.79976e-08
2.03243e-05
6.2168e-06
1.04828e-05
3.87192e-06
8.98046e-06
-5.78684e-07
6.10931e-07
-2.72639e-07
-1.48265e-05
-7.01275e-06
-9.57227e-06
-1.47886e-05
-1.44885e-06
-5.18873e-07
5.07319e-05
-1.15566e-06
-1.77256e-07
-3.89394e-07
-2.0001e-07
-1.44952e-07
-1.03618e-09
-8.03847e-06
-9.55008e-06
-1.98306e-05
-1.80159e-05
-1.33713e-05
4.59614e-07
-1.08726e-06
9.38135e-06
-3.10602e-06
1.21602e-07
-3.25523e-07
3.34592e-06
-3.1723e-06
4.11942e-06
-3.19196e-06
2.19045e-06
-9.14121e-06
1.81593e-06
-7.98759e-07
3.22745e-07
7.28242e-06
-2.17976e-06
-1.07657e-06
1.02875e-06
2.22624e-06
-2.70171e-07
-3.99127e-07
-2.28558e-07
8.57958e-07
2.03629e-07
-1.21188e-06
8.00134e-07
1.81553e-07
-2.17697e-06
8.22768e-07
-2.66583e-05
-3.15602e-06
-6.66663e-07
3.18352e-05
9.20375e-07
-5.77299e-05
2.94656e-06
-2.99886e-06
-2.11651e-06
5.89784e-05
-1.86624e-06
3.08131e-08
3.42973e-07
1.25822e-07
1.8043e-06
-4.37663e-07
-2.86733e-06
1.54103e-06
-2.00803e-05
-3.13476e-06
9.58645e-06
1.4955e-05
4.4532e-06
8.64143e-06
3.23407e-05
-2.02736e-06
-2.96642e-06
-3.54676e-06
-2.14072e-06
1.43196e-06
5.56649e-06
-1.28864e-07
3.47852e-06
8.06889e-06
2.46783e-05
3.04947e-05
-1.93196e-06
-4.04917e-06
-4.986e-06
-5.46029e-06
5.79795e-07
2.87685e-05
4.32951e-05
-3.23277e-06
-2.51602e-06
-5.66779e-06
-2.53478e-06
1.85181e-06
1.42021e-06
1.01362e-05
-1.05353e-05
-1.67761e-06
4.06359e-06
8.81644e-06
-8.81431e-06
-9.41198e-07
6.34181e-07
9.12114e-06
-8.49366e-08
-5.2311e-05
-7.42596e-06
2.89645e-06
-7.74029e-07
5.76995e-05
1.16035e-05
6.7943e-07
4.39403e-05
-6.83967e-06
-1.01416e-05
-1.37896e-05
-8.56141e-06
4.21929e-06
5.38629e-06
5.6904e-05
-1.05559e-06
2.61303e-06
0.000132283
-8.87505e-07
-1.76479e-06
-4.4327e-06
3.11756e-06
2.33697e-06
2.50758e-06
-1.17574e-05
-2.44086e-06
-1.83529e-06
3.45343e-06
1.15245e-05
-3.29051e-05
-4.11877e-07
6.78618e-06
-2.64236e-06
2.57487e-05
3.42451e-06
2.7406e-06
-1.8486e-06
5.88612e-05
-1.15096e-05
-1.39465e-05
-5.45466e-06
-5.54157e-06
-8.71128e-07
-9.08171e-07
-5.17866e-07
-3.97181e-07
-7.60515e-07
6.08752e-05
-1.38943e-07
1.03098e-06
-3.21533e-07
-2.40206e-07
-9.19767e-07
-2.69227e-07
-9.53655e-06
-6.28708e-07
-2.37498e-07
1.26186e-05
-3.26306e-06
-9.98689e-07
1.1868e-06
3.12606e-06
-2.62618e-06
-5.57997e-06
1.09816e-06
5.30186e-06
-6.67506e-06
-1.5089e-07
3.12467e-07
-3.77242e-07
6.13021e-06
-1.85488e-06
5.82627e-08
4.06019e-07
1.50426e-06
-9.99086e-07
-2.31133e-07
3.33913e-07
9.09805e-07
-8.11873e-07
-1.26995e-06
3.23102e-07
1.70787e-06
-3.94601e-06
1.38501e-06
-3.39521e-05
-1.59586e-07
8.59114e-06
2.80815e-05
-1.57875e-06
-5.37483e-05
1.41834e-06
3.19244e-06
1.45398e-05
3.61765e-05
-2.21318e-06
-1.54284e-08
1.38265e-06
1.6713e-06
2.85225e-06
-3.67759e-06
5.6994e-07
-1.30094e-06
-1.05452e-05
1.05766e-06
3.53225e-06
6.6863e-06
5.84038e-06
2.11135e-05
6.19033e-05
-8.23706e-06
-7.8027e-06
-5.30743e-06
-1.18647e-05
-2.04259e-06
-1.08861e-05
-1.19872e-06
-9.17718e-06
1.49672e-05
5.75728e-05
3.11382e-05
-2.12904e-05
-1.35137e-05
-2.60508e-05
-6.48814e-06
3.10376e-06
2.91124e-05
2.87724e-05
-6.40854e-06
-3.43204e-06
-3.73518e-06
-2.92747e-06
6.00605e-06
2.98129e-06
4.78958e-06
-6.50904e-06
-2.30221e-06
5.90198e-06
6.01322e-06
-8.28641e-06
-8.805e-07
2.46647e-06
6.7028e-06
-6.90652e-06
-6.15004e-05
-7.30118e-06
2.04462e-05
1.80545e-07
5.50813e-05
2.73353e-05
1.22347e-05
9.79947e-05
-3.89361e-05
-1.00359e-05
-1.73084e-05
-6.23055e-06
3.36521e-06
6.06971e-05
7.77497e-05
-1.0116e-06
3.31281e-06
0.000149564
-1.69382e-06
-4.0579e-07
-1.03457e-06
4.69554e-06
5.19925e-06
6.13417e-06
-1.15506e-05
-4.95494e-06
-2.91165e-06
4.87688e-06
1.35287e-05
-2.04688e-05
-4.41233e-06
6.28825e-06
3.37304e-06
1.6552e-05
-1.3322e-06
4.23054e-06
-7.02952e-08
8.64016e-05
-3.07081e-06
-2.482e-06
-4.98997e-06
-4.17221e-06
9.68016e-09
-1.08807e-06
-3.67257e-06
-1.12003e-06
4.95653e-06
0.000111483
-2.09197e-06
-1.06944e-06
-1.56101e-06
4.49376e-06
5.75297e-06
4.95889e-06
-1.73991e-05
-7.88331e-07
1.76192e-06
1.86183e-05
-2.15866e-06
-2.66601e-06
1.96197e-06
2.8627e-06
-5.30007e-06
-2.6851e-07
1.6616e-07
5.40233e-06
-6.14646e-06
6.01096e-07
-4.84551e-06
1.03891e-06
1.43085e-05
-9.28793e-07
-3.119e-06
3.26775e-06
7.8004e-07
-1.19489e-06
5.19076e-07
-1.02608e-06
1.68712e-06
-2.79885e-06
-8.70619e-07
-5.83226e-07
4.0243e-06
3.78238e-06
2.44262e-06
-2.20768e-05
-1.94457e-06
-1.14133e-07
1.79105e-05
2.12787e-06
-1.68413e-05
1.32204e-06
3.83078e-07
1.15475e-06
1.18535e-05
-2.68471e-06
-2.25905e-07
7.44046e-07
7.84169e-07
2.05641e-06
-6.74011e-07
1.59244e-06
-5.92142e-07
-5.72501e-06
1.2456e-06
-4.94444e-06
8.42354e-06
2.92121e-06
1.40427e-05
6.6276e-05
-2.90041e-06
-6.73483e-06
-1.76572e-06
-1.92666e-06
-1.08229e-06
-4.0772e-06
-6.66264e-07
-2.18327e-06
3.14626e-06
3.267e-05
1.07933e-05
-6.36044e-06
-2.88375e-06
-1.78955e-06
-1.51638e-06
1.04405e-06
1.94385e-05
1.59781e-05
-1.94223e-06
-1.8136e-06
-1.84849e-06
-1.6598e-06
1.24289e-06
7.81342e-07
6.97942e-07
-5.42646e-06
-1.05249e-06
2.28685e-06
5.22308e-06
-5.47016e-06
-7.76687e-07
2.51623e-07
6.00204e-06
-8.94203e-06
-5.09066e-05
-1.86046e-06
1.36961e-05
6.65525e-06
4.13577e-05
2.38726e-05
3.39164e-06
0.000120566
-5.81978e-06
-8.82681e-06
-9.44359e-06
-1.17025e-05
-8.03667e-06
5.50192e-05
8.73097e-05
-1.09253e-06
2.2971e-06
0.000146537
-6.02901e-07
-2.13449e-07
1.60343e-06
4.26878e-06
3.23563e-06
4.93268e-06
-1.55236e-05
-2.4662e-06
-2.56227e-06
3.35907e-06
1.61004e-05
-1.43064e-05
-1.78387e-06
5.30172e-06
3.8723e-06
1.14089e-05
-4.49265e-06
-3.47663e-06
-2.52336e-06
0.000114556
-6.90672e-06
-2.5309e-06
-5.2535e-06
-6.29774e-07
-2.09807e-06
-8.16993e-07
-5.26401e-07
-2.1511e-06
7.28456e-06
0.000130445
-2.52076e-07
-1.30167e-06
2.49901e-07
7.88404e-06
1.00781e-05
1.07888e-05
-2.08252e-05
-1.46714e-06
9.85239e-07
2.14531e-05
-3.8892e-06
-2.34153e-06
2.02621e-06
4.20452e-06
-5.38819e-06
3.34963e-06
-5.21687e-06
4.73207e-06
-1.86789e-05
5.34073e-06
-6.23763e-06
4.30279e-06
2.25575e-05
-6.6654e-07
-1.29726e-06
1.66442e-06
2.99385e-07
-9.9352e-07
6.31361e-07
7.14376e-07
-3.52601e-07
-4.82264e-06
4.19763e-07
1.21224e-07
4.28165e-06
2.47647e-07
9.71222e-07
-1.59378e-05
-1.84388e-06
1.29974e-06
1.52631e-05
-2.08869e-06
-1.06265e-05
1.77595e-06
-1.41614e-06
7.98412e-07
1.1557e-05
-1.12379e-06
-1.36729e-07
2.92554e-07
7.10078e-07
9.87675e-08
1.5912e-07
-4.17146e-07
-2.32407e-07
-1.06937e-05
6.51296e-07
-8.35902e-07
1.15278e-05
8.7241e-07
1.02912e-05
7.93843e-05
-2.84273e-06
-2.27834e-06
-4.75167e-06
-4.31539e-06
-1.61536e-06
-2.7292e-06
-3.5977e-06
-2.14145e-06
-6.94993e-06
1.88237e-05
6.69794e-06
-5.55487e-07
-1.07861e-06
-2.38139e-06
-2.89045e-06
-1.87579e-06
3.94345e-06
1.8348e-05
-7.20175e-07
-6.17853e-07
-8.5117e-07
-6.42757e-07
-2.58433e-06
-2.57734e-06
-3.39384e-06
-6.74745e-06
-8.20306e-07
-3.40771e-08
-4.48496e-06
1.0211e-05
2.63348e-07
-1.52143e-08
-6.22286e-08
-1.85937e-07
-7.21222e-06
9.43918e-08
-4.29151e-08
7.15401e-06
-8.6327e-07
-3.02434e-05
2.09663e-07
4.29722e-06
-7.22779e-07
2.73225e-05
2.68952e-05
-1.56895e-06
0.000128222
-9.55793e-06
-6.31877e-06
-3.80231e-06
-3.01238e-06
-5.22176e-06
4.062e-05
9.76304e-05
-1.81428e-06
7.62405e-07
0.000139778
3.02671e-07
-1.26141e-06
2.52206e-07
2.91694e-06
2.35013e-06
1.97227e-06
-1.54451e-05
6.97801e-07
9.9118e-08
2.60207e-06
1.02318e-05
1.28291e-08
1.43398e-07
-1.70334e-08
-3.06952e-08
-1.15595e-07
-1.07257e-05
1.5165e-06
-2.3438e-07
-3.60656e-06
1.00089e-05
3.04118e-06
-1.31135e-05
-5.07306e-07
0.000119211
-7.62025e-07
2.78179e-06
2.19288e-06
3.82257e-06
-2.56956e-07
-2.49134e-07
-1.32322e-07
-3.21052e-06
9.02274e-06
0.000130433
-1.27561e-06
-2.77134e-06
-1.26507e-06
9.12915e-06
8.85725e-06
9.03154e-06
-2.4154e-05
-2.72832e-06
5.81271e-07
2.3853e-05
-5.69399e-06
-1.3253e-06
1.48152e-06
5.53777e-06
-5.94069e-06
5.64304e-06
-7.51245e-06
7.30279e-06
-2.64671e-05
6.77908e-06
-7.01325e-06
6.40235e-06
2.93217e-05
-1.95545e-06
-8.47889e-07
-1.9005e-07
2.99339e-06
-1.38032e-07
9.82068e-07
-1.28144e-06
4.37402e-07
-5.22252e-06
-1.7199e-06
-5.51191e-07
7.49361e-06
-1.01906e-06
5.49374e-06
-1.37598e-05
-4.81027e-06
1.57861e-06
1.25168e-05
7.54462e-07
-6.88175e-06
1.73654e-06
-6.13416e-08
1.75176e-06
2.70034e-06
2.90296e-07
-7.80071e-09
5.60085e-07
-7.33491e-07
-2.61546e-07
1.52456e-07
7.29854e-07
-1.18057e-06
-9.55444e-06
1.66886e-06
-1.56925e-06
9.90555e-06
1.92335e-06
6.04174e-06
8.49495e-05
-1.82017e-06
-2.24773e-06
-9.02559e-07
-1.2881e-06
-1.87238e-06
-2.52154e-06
-9.5293e-07
-1.92489e-06
-1.3209e-05
1.40799e-05
1.83576e-05
-3.41872e-06
-2.01985e-06
-3.27841e-06
-1.89018e-06
-3.72325e-06
-1.89835e-06
1.53876e-05
1.28537e-06
1.41192e-06
1.67504e-06
1.94383e-06
-4.20817e-06
-3.14868e-06
-3.58628e-06
-1.1741e-05
4.32367e-06
-1.15709e-06
-3.35912e-06
8.21032e-06
-5.62925e-07
9.02364e-07
3.09816e-07
-4.32879e-07
-1.3657e-06
1.14933e-06
-8.24361e-06
1.17159e-06
-1.86576e-06
8.93778e-06
1.52516e-06
-2.62835e-05
2.70108e-06
-3.22066e-07
-1.93217e-06
2.43115e-05
1.85895e-05
-5.45837e-06
0.000126848
-2.45952e-06
-1.49666e-06
-1.2467e-06
-5.12403e-07
-7.49346e-06
2.88766e-05
0.000108917
-8.12318e-07
1.91121e-06
0.000123363
-1.66156e-07
-3.36483e-07
-4.8596e-07
2.04056e-06
3.05301e-06
1.81938e-06
-7.11654e-06
1.63759e-06
9.52666e-07
3.52191e-07
3.36177e-06
6.96194e-07
2.82415e-07
-1.68558e-06
1.37614e-06
6.40573e-07
-1.30975e-06
-1.2852e-05
1.12427e-06
-2.29761e-06
-4.59999e-06
1.60515e-05
2.57382e-06
-1.58073e-05
-9.02096e-07
0.000117423
2.66159e-06
4.84223e-06
3.79421e-06
5.00973e-06
-8.79125e-07
-1.21038e-06
-1.17916e-06
-3.91814e-06
6.61139e-06
0.000128853
-1.80955e-06
-2.90522e-06
-1.67792e-06
6.74022e-06
5.90757e-06
5.70101e-06
-2.54945e-05
-2.61743e-06
1.47842e-06
2.46266e-05
-4.01509e-06
-1.63458e-06
-3.10163e-07
1.55811e-06
4.40172e-06
-1.12685e-06
-7.45477e-07
3.43497e-07
1.52883e-06
-8.93238e-06
6.40354e-06
-8.49871e-06
1.01255e-05
-3.11943e-05
6.48902e-06
-5.73928e-06
5.9778e-06
3.10782e-05
-3.72802e-06
-1.30939e-08
-5.47656e-07
4.28877e-06
-3.488e-07
7.90478e-07
-7.62906e-08
-3.65388e-07
-1.02223e-05
-4.02469e-06
2.00768e-06
1.22393e-05
-1.60656e-06
4.66952e-06
-1.09275e-05
-3.09946e-06
1.77476e-06
9.18927e-06
-1.09966e-06
-1.42012e-07
1.18219e-06
-1.11659e-06
2.10469e-06
-9.28614e-07
-2.88215e-07
1.07162e-06
-1.84232e-06
-1.81132e-06
1.03521e-06
1.83502e-06
6.84526e-08
-1.62111e-06
-1.11511e-05
1.34238e-06
-1.36977e-06
1.27311e-05
-1.12401e-07
2.75921e-06
9.48155e-05
-1.30958e-06
-1.49662e-06
-2.21706e-06
-1.67872e-06
-7.41493e-07
-2.4751e-06
-4.00254e-07
-2.19399e-06
-1.51134e-05
1.11038e-05
2.92392e-05
-2.4935e-06
-1.20534e-06
-2.15962e-06
-1.12589e-06
-2.58407e-06
-4.86665e-06
9.04503e-06
2.18113e-06
2.21056e-06
2.02611e-06
1.81206e-06
-3.14023e-06
-3.36488e-06
-3.04494e-06
-5.59866e-06
2.3468e-06
1.11807e-07
-2.1369e-06
2.69289e-06
-1.94895e-06
4.91905e-07
-2.05509e-07
-3.71823e-07
-7.77921e-07
2.8123e-06
-9.3722e-06
9.47948e-07
-1.38116e-06
9.80541e-06
8.05448e-07
-2.3625e-05
2.43304e-06
-8.70049e-07
-2.6049e-06
2.38615e-05
9.39166e-06
-9.11895e-06
0.000131049
-8.08473e-07
-4.75705e-07
-3.28182e-07
-1.01997e-07
-1.20465e-05
2.01276e-05
0.000121331
-2.62391e-07
2.24499e-06
0.000100854
-7.40807e-07
-3.9521e-07
-1.0871e-06
1.35158e-06
3.13303e-06
1.35221e-06
-1.57336e-06
5.34548e-07
4.21563e-07
-1.1946e-06
1.54945e-06
1.50485e-06
5.87044e-07
-7.22613e-08
1.51632e-07
-1.09986e-06
-1.0714e-06
-1.8124e-05
2.74706e-06
-2.8093e-06
-4.01668e-06
1.86578e-05
3.54512e-06
-1.69423e-05
-1.51894e-06
0.00011791
3.03496e-06
4.3848e-06
3.50515e-06
3.40576e-06
-1.92861e-06
-1.52807e-06
-2.01927e-06
-3.54507e-06
3.64931e-06
0.000128927
-1.91228e-06
-2.5907e-06
-1.69502e-06
3.41833e-06
3.06535e-06
2.72166e-06
-2.47636e-05
-1.07666e-06
1.8958e-06
2.26444e-05
-4.69035e-06
1.16444e-06
-1.49903e-06
4.60594e-07
4.56435e-06
-1.81654e-06
9.2491e-07
2.29221e-07
-4.16818e-07
1.07922e-06
-1.11833e-05
5.23231e-06
-7.65509e-06
1.20871e-05
-3.08158e-05
5.64194e-06
-4.3942e-06
3.92949e-06
2.92879e-05
-4.80643e-06
-8.2718e-08
-3.76138e-07
5.26529e-06
1.1254e-06
6.24191e-09
3.2119e-07
-1.45284e-06
-1.31543e-05
-4.4344e-06
4.54292e-06
1.30458e-05
-3.30554e-06
2.13053e-06
-8.10125e-06
-9.80637e-07
2.85475e-06
7.40215e-06
-1.46876e-06
1.58635e-06
8.17323e-07
-1.37471e-06
2.16317e-06
-1.72338e-06
-1.53372e-06
1.54635e-06
-2.28945e-06
-1.6542e-06
1.75231e-06
2.17871e-06
-2.12453e-06
-4.67597e-07
-1.46648e-05
5.79534e-07
-3.6108e-09
1.6681e-05
4.31922e-06
-2.51646e-06
0.000107379
-1.53224e-06
-1.7231e-06
-9.86846e-07
-1.25787e-06
-8.96668e-07
-3.47625e-06
-1.22312e-06
-3.27022e-06
-1.16974e-05
9.02584e-06
4.31147e-05
-2.01245e-06
-1.37777e-06
-2.02161e-06
-1.47297e-06
-2.94764e-06
-5.53614e-06
6.74965e-06
1.81078e-06
1.71551e-06
1.6378e-06
1.63018e-06
-2.39178e-06
-2.75478e-06
-2.56594e-06
-1.78694e-06
1.84002e-06
-1.57064e-06
-1.20886e-06
-2.2122e-07
-3.06677e-06
8.81114e-07
2.24998e-07
4.16218e-07
1.54443e-06
-1.01352e-05
6.16759e-07
-7.18393e-07
1.02368e-05
-1.84181e-07
-2.46849e-05
1.30924e-06
-2.32191e-07
-1.82925e-06
2.56212e-05
4.47644e-06
-1.14115e-05
0.000136926
-6.72576e-07
-2.87309e-07
-5.03764e-07
4.74745e-09
-1.08643e-05
1.32611e-05
0.000132436
-3.51647e-08
2.13904e-06
8.0051e-05
-5.10264e-07
-3.09594e-07
-9.67868e-07
1.15956e-06
2.36759e-06
5.58968e-07
-1.68252e-06
1.76531e-06
1.74989e-07
-2.02167e-06
1.72873e-06
6.06096e-07
-1.74937e-07
-1.26939e-08
2.77047e-07
-2.16748e-07
-4.78764e-07
-1.86779e-05
2.47807e-06
-1.93777e-06
-3.37114e-06
1.86578e-05
2.85097e-06
-1.62388e-05
-1.4005e-06
0.000120735
2.17032e-06
2.06437e-06
2.45203e-06
1.84069e-06
-2.0608e-06
-1.24053e-06
-1.82323e-06
-2.78114e-06
1.49701e-06
0.000127491
-1.61139e-06
-1.57462e-06
-1.32648e-06
1.39882e-06
1.47078e-06
1.3858e-06
-2.16988e-05
-9.61787e-08
1.95664e-06
1.91962e-05
-3.61933e-06
1.29617e-06
-2.09635e-06
4.41951e-06
-1.31022e-05
2.94717e-06
-5.54208e-06
1.42966e-05
-2.80609e-05
4.27888e-06
-3.05361e-06
2.20317e-06
2.61295e-05
-5.66747e-06
-3.58054e-07
-3.97188e-08
6.06525e-06
1.42693e-06
-2.13202e-07
1.57223e-07
-1.37095e-06
-1.21314e-05
-3.56178e-06
5.27809e-06
1.04151e-05
-1.409e-07
-6.51455e-07
-6.7311e-06
1.51036e-07
1.5887e-07
7.21355e-06
-1.76362e-06
1.78255e-06
5.11624e-07
-9.54955e-07
1.90058e-06
-1.47618e-06
-1.63757e-06
1.56472e-06
-1.67482e-06
-1.25187e-06
1.243e-06
1.75653e-06
-2.67119e-06
-4.92324e-08
-1.83637e-05
6.99723e-07
7.22734e-07
1.96616e-05
9.22422e-06
-9.82702e-06
0.000116257
4.52772e-07
3.76125e-07
1.00395e-06
1.64386e-06
-1.78506e-06
-4.13423e-06
-2.22406e-06
-3.60802e-06
-5.69196e-06
2.39798e-06
5.82924e-05
-1.02038e-06
-3.52713e-07
-8.84877e-07
-4.01461e-07
-1.17394e-06
-7.25953e-06
7.60271e-06
1.52837e-06
1.8129e-06
1.26238e-06
1.70239e-06
-1.5637e-06
-1.00306e-06
-1.85082e-06
1.3683e-06
8.33092e-07
-8.35639e-07
-2.53934e-06
-1.01768e-05
3.38429e-07
-2.73658e-07
1.0112e-05
-8.22508e-07
-2.62943e-05
3.0481e-07
8.33693e-07
-3.68547e-07
2.63469e-05
2.76519e-06
-1.17194e-05
0.000138938
-1.1417e-06
-5.77208e-07
-7.72932e-07
-3.92144e-07
-4.39436e-06
4.1302e-06
0.000137864
8.15379e-07
8.99576e-07
6.43905e-05
3.39097e-08
7.75133e-07
4.21271e-07
-2.94236e-08
1.03688e-06
5.39057e-08
-2.47943e-06
1.45706e-06
1.11355e-06
-1.95558e-06
2.67979e-06
-1.90748e-05
8.09255e-07
-6.74657e-07
-1.45896e-06
1.93731e-05
1.02608e-06
-1.23444e-05
-6.39048e-07
0.000119746
1.05628e-06
1.21333e-06
1.47672e-06
1.2419e-06
-1.31815e-06
-3.31091e-07
-1.08604e-06
-1.25976e-06
5.59436e-07
0.000119826
-1.10314e-06
-8.07959e-08
-1.02398e-06
7.30739e-07
7.42897e-07
8.84885e-07
-1.78728e-05
9.85762e-07
1.24309e-06
1.52838e-05
-4.77439e-06
2.04728e-06
-1.56829e-06
4.2954e-06
-1.5422e-05
1.28827e-06
-3.24248e-06
1.67371e-05
-2.4845e-05
2.80871e-06
-1.80549e-06
1.28783e-06
2.31134e-05
-6.32557e-06
-1.34432e-07
-4.13103e-08
6.50131e-06
1.33465e-06
-2.22992e-07
1.09313e-07
-1.22097e-06
-8.80325e-06
-1.32087e-06
2.20321e-06
7.92091e-06
1.31178e-06
-8.27966e-07
-7.88431e-06
4.3706e-07
-1.78138e-06
8.74482e-06
-1.50458e-06
1.13344e-06
-7.14714e-08
-3.18219e-07
8.45927e-07
-8.51026e-08
-5.70748e-07
9.99357e-07
-6.10194e-07
-8.36914e-07
-1.76561e-08
1.03616e-06
-8.26124e-07
-6.75708e-07
-2.02902e-05
1.82652e-06
-1.34013e-07
2.00996e-05
9.24153e-06
-1.46815e-05
0.000122426
2.26526e-06
2.50498e-06
2.62128e-06
3.41297e-06
-2.28284e-06
-3.90952e-06
-2.23333e-06
-3.10866e-06
-1.86685e-06
-5.66886e-06
7.19979e-05
4.85828e-07
8.62824e-07
7.80689e-07
9.42328e-07
-3.62632e-07
-8.54231e-06
1.20426e-05
1.6081e-06
1.56983e-06
1.3793e-06
1.06386e-06
-1.22616e-06
-3.90223e-07
-1.40652e-06
3.25522e-06
-8.00146e-09
-3.87162e-07
-3.22226e-06
-1.01156e-05
2.64154e-07
-3.81722e-07
1.02332e-05
-6.38528e-07
-2.58885e-05
3.04e-07
1.35156e-06
1.35249e-07
2.47362e-05
1.44418e-06
-1.04448e-05
0.00013704
-1.37194e-06
-1.04592e-06
-7.34304e-07
-6.31441e-07
4.00658e-07
-2.68604e-06
0.000135924
1.2766e-06
-2.28563e-07
5.29961e-05
1.02806e-06
1.04851e-06
9.3175e-07
-2.59877e-07
-1.80199e-07
-3.63608e-07
-2.44251e-06
1.44592e-06
1.31824e-06
-1.59314e-06
2.54809e-06
-1.96297e-05
-2.1659e-07
-1.80778e-07
4.729e-07
1.97435e-05
-1.89326e-07
-5.32291e-06
2.96241e-07
0.00011381
1.13864e-07
3.51888e-07
5.30293e-07
3.00752e-07
-4.77847e-07
1.2536e-07
-4.26335e-07
-3.83346e-07
5.33361e-07
0.000110992
-8.54231e-07
-1.54124e-07
-9.16073e-07
8.64462e-07
7.58586e-07
9.7681e-07
-1.4125e-05
9.03205e-07
3.3749e-07
1.22724e-05
-4.3113e-06
6.5804e-07
-5.72057e-07
4.22532e-06
-1.7757e-05
3.8578e-07
-1.1813e-06
1.88488e-05
-2.20281e-05
1.45874e-06
-9.25543e-07
8.49732e-07
2.11785e-05
-6.59525e-06
1.9854e-07
-2.70199e-07
6.66691e-06
1.11417e-06
-3.74618e-07
2.39548e-07
-9.791e-07
-7.6639e-06
-6.83577e-08
-6.32605e-08
7.79552e-06
1.76206e-06
-5.05698e-07
-9.5062e-06
5.40926e-07
-2.56501e-06
1.02739e-05
-1.09729e-06
-1.25824e-06
-7.85046e-07
2.39971e-07
-1.88989e-07
3.08959e-06
6.86098e-07
6.61327e-07
8.59569e-09
-8.51135e-07
-9.35254e-07
4.30369e-07
4.29883e-07
-5.25546e-07
-1.92756e-05
1.62625e-06
-4.04689e-07
1.81497e-05
7.43065e-06
-1.51862e-05
0.000124712
2.96633e-06
3.10314e-06
3.01759e-06
3.79071e-06
-1.81269e-06
-2.67399e-06
-1.28623e-06
-1.63448e-06
4.24176e-07
-8.47402e-06
8.06871e-05
1.43744e-06
1.62903e-06
1.92258e-06
1.80228e-06
1.27247e-07
-7.86195e-06
1.81534e-05
1.66206e-06
5.29676e-07
1.56293e-06
8.82504e-08
-8.77546e-07
8.54637e-08
-1.0027e-06
2.95992e-06
-5.97624e-07
1.65017e-07
-2.40007e-06
-1.04616e-05
1.30732e-07
-3.16851e-07
1.06477e-05
-6.54831e-07
-2.34261e-05
1.08643e-07
1.35825e-06
5.58476e-07
2.20556e-05
2.7056e-07
-7.59065e-06
0.000132018
-1.10738e-06
-1.07192e-06
-3.17896e-07
-3.47191e-07
1.61105e-06
-2.7691e-06
0.000128879
8.43933e-07
-7.2306e-07
4.58178e-05
7.49121e-07
6.11464e-07
5.31529e-07
-3.67771e-07
-3.19147e-07
-3.98605e-07
-2.56585e-06
7.18243e-07
9.40587e-07
-9.35881e-07
2.68683e-06
-1.98887e-05
-6.23249e-07
1.33983e-07
1.00591e-06
2.01079e-05
-7.35821e-07
-1.16666e-06
4.12844e-07
0.000106989
-3.87093e-07
-1.31514e-07
3.12682e-08
-2.23962e-07
7.38055e-08
4.30654e-07
1.91174e-07
-6.35805e-07
1.06452e-06
0.000104245
-6.24e-07
-1.87313e-07
-5.22842e-07
1.23794e-06
1.19758e-06
1.28126e-06
-1.18553e-05
-6.00148e-07
-2.38246e-07
1.13348e-05
-3.86952e-06
1.29341e-07
4.51023e-07
3.28916e-06
-1.95023e-05
-1.05041e-07
-2.69724e-07
2.02899e-05
-2.08826e-05
7.50211e-07
-6.47041e-07
8.20624e-07
2.10233e-05
-6.69991e-06
2.43169e-07
-3.62779e-07
6.81952e-06
8.30499e-07
-4.2611e-07
2.2924e-07
-6.33629e-07
-8.12632e-06
9.39012e-08
-4.57936e-07
8.49036e-06
1.84396e-06
-2.09074e-07
-1.08415e-05
6.27225e-07
-2.80978e-06
1.13892e-05
-3.30134e-07
-4.95646e-06
-1.58389e-06
1.204e-06
-1.21751e-06
6.88399e-06
8.00772e-07
4.51502e-07
2.03361e-07
-9.96575e-07
-7.0198e-08
-3.88862e-07
1.06598e-06
1.672e-07
-1.72074e-05
1.80425e-07
-9.96117e-07
1.679e-05
5.13123e-06
-1.09257e-05
0.000120047
2.87151e-06
2.83467e-06
2.97204e-06
3.48077e-06
-3.25981e-07
-1.08623e-06
-6.41709e-08
-2.23084e-07
2.05009e-06
-7.05855e-06
8.21089e-05
2.08784e-06
1.84091e-06
2.74046e-06
2.0487e-06
4.81342e-07
-7.63255e-06
2.41312e-05
1.79976e-06
1.32455e-07
1.84589e-06
4.52441e-08
-4.4925e-07
2.87765e-07
-4.38415e-07
1.72775e-06
-4.88983e-07
1.02213e-07
-8.59634e-07
-1.0595e-05
4.36372e-08
4.7979e-07
1.00716e-05
-1.26244e-06
-2.08393e-05
2.17034e-07
1.14158e-06
9.05821e-07
1.98373e-05
-1.3684e-06
-2.99017e-06
0.000124165
-3.48459e-07
-3.08302e-07
8.94844e-07
1.04793e-06
2.06485e-06
1.87609e-06
0.000116511
3.5894e-07
-5.69367e-07
4.10455e-05
4.04129e-07
1.85984e-07
3.01165e-07
-4.85754e-07
-8.3166e-08
-9.07394e-07
-2.63186e-06
4.98969e-07
5.15139e-07
-6.82413e-07
2.65911e-06
-2.04148e-05
-6.62704e-07
1.41377e-07
1.16135e-06
2.08718e-05
-1.09696e-06
1.68656e-08
8.20831e-07
0.00010234
-2.29208e-07
-2.72569e-07
3.63584e-07
-4.3866e-07
3.77455e-07
7.61488e-07
2.58886e-07
-3.08013e-07
1.51074e-06
9.92914e-05
-6.13355e-08
3.98266e-07
2.79117e-07
1.62502e-06
1.67681e-06
1.72562e-06
-1.19274e-05
-6.78918e-07
-3.12118e-07
1.20411e-05
-2.59064e-06
2.40634e-07
3.15477e-07
2.03453e-06
-2.08922e-05
7.78971e-08
5.60016e-08
2.15792e-05
-2.14337e-05
3.19851e-07
-4.83506e-07
9.52135e-07
2.2156e-05
-6.86738e-06
4.77082e-07
-5.03316e-07
6.89362e-06
3.88475e-07
-3.5795e-07
6.04296e-08
-9.09546e-08
-8.79977e-06
-1.65266e-07
-7.80431e-08
9.04307e-06
1.86062e-06
-1.40811e-07
-1.2014e-05
8.74615e-07
-3.46624e-06
1.28858e-05
5.71028e-07
-8.58235e-06
-2.01757e-06
2.08703e-06
-2.12272e-06
1.00646e-05
-9.04658e-07
4.36873e-07
8.285e-07
-1.2184e-06
2.22813e-06
-1.37044e-06
9.67034e-07
3.88564e-07
-1.66279e-05
-4.1048e-07
-1.03581e-06
1.67186e-05
3.00623e-06
-7.56235e-06
0.000109877
2.98714e-06
2.81023e-06
3.22478e-06
3.80241e-06
5.27874e-07
7.83613e-08
5.48573e-07
7.46309e-07
3.23095e-06
-5.59695e-06
7.78764e-05
2.53789e-06
1.77271e-06
3.1647e-06
2.12944e-06
7.30054e-07
-8.83796e-06
2.99714e-05
2.00938e-06
2.94357e-07
2.15807e-06
3.12453e-07
1.37989e-07
5.17687e-07
6.86944e-08
1.21023e-07
-8.21123e-07
5.70441e-07
8.59713e-07
-8.88016e-06
-3.19823e-07
1.86938e-06
7.3306e-06
-1.42002e-06
-1.94239e-05
2.40815e-07
3.12935e-07
9.8165e-07
1.93085e-05
-2.2204e-06
-8.32337e-07
0.000114335
8.55649e-07
9.63377e-07
1.70338e-06
1.79826e-06
3.70209e-06
4.47921e-06
0.000100513
2.6954e-07
-4.53787e-07
3.8753e-05
5.52341e-07
9.0441e-08
4.3554e-07
-1.416e-06
-3.48338e-07
-1.97314e-06
-2.74437e-06
4.95541e-07
3.41981e-07
-1.1642e-06
3.34059e-06
-2.14199e-05
-4.72153e-07
2.52531e-08
1.22727e-06
2.1811e-05
-1.17152e-06
3.37693e-07
5.76547e-07
0.000100571
-3.38872e-08
-4.07168e-07
3.60941e-07
-5.40015e-07
6.16939e-08
3.63077e-07
2.1842e-07
4.78784e-07
1.78359e-06
9.22396e-05
9.7714e-07
1.49658e-06
1.40992e-06
1.82586e-06
1.9962e-06
1.90056e-06
-1.29635e-05
4.96494e-07
-3.19919e-07
1.28119e-05
-1.70926e-06
9.5177e-07
-9.47188e-07
1.70468e-06
-2.2152e-05
4.63328e-07
-4.7986e-07
2.2745e-05
-2.28753e-05
6.09663e-07
-6.10622e-07
1.41646e-06
2.32434e-05
-6.74533e-06
1.00332e-06
-8.88558e-07
6.63056e-06
-2.6294e-07
-1.68633e-07
-2.38146e-07
6.6972e-07
-9.24934e-06
-6.86428e-07
3.52565e-07
9.5832e-06
1.71121e-06
1.10252e-07
-1.38329e-05
1.01152e-06
-3.6979e-06
1.46978e-05
1.25993e-06
-1.14139e-05
-2.25137e-06
2.60823e-06
-2.69391e-06
1.2491e-05
-3.58337e-06
5.44235e-07
1.36626e-06
-1.39162e-06
5.15527e-06
-2.09077e-06
4.05896e-07
1.60123e-07
-1.70416e-05
-3.22593e-07
-8.98691e-07
1.76969e-05
5.01093e-06
-9.9721e-06
9.8521e-05
3.49197e-06
3.69368e-06
3.47493e-06
4.37051e-06
3.27981e-07
1.94243e-07
1.32695e-07
6.31098e-07
6.42628e-06
-9.98209e-06
7.49222e-05
3.06179e-06
2.10613e-06
3.66275e-06
2.69024e-06
1.01094e-06
-1.04836e-05
3.79256e-05
2.13999e-06
6.45108e-07
2.33352e-06
7.18612e-07
6.34222e-07
8.51285e-07
6.21959e-07
-1.67733e-06
-9.74787e-07
7.74263e-07
2.8888e-06
-5.99533e-06
-4.6523e-07
1.21465e-06
5.24592e-06
-9.69792e-07
-1.95741e-05
5.17769e-07
-2.28086e-07
2.17989e-07
2.00362e-05
1.24722e-06
-4.30447e-06
0.000102885
8.78851e-07
8.76673e-07
1.50104e-06
1.27882e-06
7.63718e-06
-1.23178e-06
8.53723e-05
4.42025e-07
-1.26494e-06
4.13282e-05
8.79477e-07
3.2245e-07
7.64881e-07
-2.45015e-06
-1.38185e-06
-2.73346e-06
-4.14065e-06
5.94455e-07
3.09086e-07
-1.88057e-06
5.5597e-06
-2.17038e-05
-3.04778e-07
3.24485e-07
1.27788e-06
2.10866e-05
-6.80387e-07
3.96326e-06
1.87179e-07
9.25756e-05
-5.31075e-07
-8.01769e-07
-1.17974e-07
-2.99596e-07
1.44468e-07
5.00581e-07
6.45351e-07
2.41833e-06
1.4061e-06
7.76663e-05
2.48097e-06
3.65599e-06
3.19069e-06
1.50842e-06
1.26289e-06
1.38143e-06
-1.32488e-05
2.66061e-06
-9.23798e-07
1.26654e-05
-2.00799e-06
2.07558e-06
-2.72599e-06
2.6584e-06
-2.34504e-05
8.83447e-07
-1.21646e-06
2.39706e-05
-2.35505e-05
8.61514e-07
-6.33071e-07
1.13132e-06
2.35968e-05
-6.49738e-06
1.30783e-06
-1.19168e-06
6.38123e-06
-1.12573e-06
-1.63641e-09
-4.75766e-07
1.60313e-06
-1.01115e-05
-5.87152e-07
1.63335e-07
1.05354e-05
1.22209e-06
-3.86274e-08
-1.53258e-05
1.19524e-06
-2.76523e-06
1.57124e-05
1.65368e-06
-1.34383e-05
-2.52816e-06
3.06882e-06
-2.89238e-06
1.41363e-05
-6.77367e-06
6.27357e-07
1.60623e-06
-1.39692e-06
8.52519e-06
-2.58818e-06
-1.14774e-07
-1.1382e-06
-1.84752e-05
1.15633e-06
-1.85566e-07
1.87574e-05
1.06526e-05
-1.44442e-05
9.23431e-05
3.24902e-06
3.79641e-06
2.83919e-06
4.09805e-06
-1.21255e-06
-5.55415e-07
-2.00859e-06
-2.36569e-07
1.10476e-05
-1.31078e-05
7.5005e-05
3.2806e-06
2.50765e-06
3.73293e-06
3.10886e-06
1.33754e-06
-1.05456e-05
4.83176e-05
2.01772e-06
8.44007e-07
2.25504e-06
8.97218e-07
1.20956e-06
1.30301e-06
1.33713e-06
-4.00718e-06
-1.11857e-06
9.05525e-07
5.55775e-06
-5.04482e-06
-1.83845e-07
3.40116e-08
5.19465e-06
2.77636e-07
-2.0682e-05
5.84057e-07
-6.91088e-07
-7.0258e-07
2.1214e-05
1.05467e-05
-9.89499e-06
8.93195e-05
-1.78293e-07
-7.94782e-07
8.58616e-08
-6.43444e-07
1.24976e-05
-7.09546e-06
7.74091e-05
6.33732e-07
-2.13096e-06
4.97537e-05
1.06394e-06
6.36648e-07
9.47601e-07
-2.87565e-06
-1.85297e-06
-2.89583e-06
-7.08494e-06
5.68198e-07
2.67963e-07
-2.12375e-06
9.00626e-06
-2.04297e-05
-3.11035e-07
6.75177e-07
-5.47609e-07
2.01388e-05
4.74363e-07
1.60517e-05
4.40674e-07
6.88161e-05
-1.83247e-06
-7.03165e-07
-1.29621e-06
-3.23645e-07
4.25063e-07
5.25247e-07
5.77338e-07
4.7003e-06
1.79759e-07