/*--------------------------------*- C++ -*----------------------------------*\
| =========                 |                                                 |
| \\      /  F ield         | OpenFOAM: The Open Source CFD Toolbox           |
|  \\    /   O peration     | Version:  5.x                                   |
|   \\  /    A nd           | Web:      www.OpenFOAM.org                      |
|    \\/     M anipulation  |                                                 |
\*---------------------------------------------------------------------------*/
FoamFile
{
    version     2.0;
    format      ascii;
    class       volVectorField;
    location    "3.8";
    object      U;
}
// * * * * * * * * * * * * * * * * * * * * * * * * * * * * * * * * * * * * * //

dimensions      [0 1 -1 0 0 0 0];

internalField   nonuniform List<vector> 
10571
(
(-0.095261 0.201804 0.871781)
(-0.174614 0.223975 0.77565)
(-0.171453 0.489407 1.22891)
(-0.236556 0.49081 0.879607)
(-0.203781 0.262691 1.06414)
(0.395626 0.14947 1.88365)
(-1.23263 0.370036 2.22056)
(-2.34467 0.91805 2.35928)
(-0.616037 0.165076 1.02668)
(-0.154381 0.0978825 0.849929)
(0.417253 0.160748 0.958662)
(0.287135 -0.403989 1.97255)
(-0.732046 -0.356918 1.38103)
(-0.47888 0.0595004 0.880708)
(-0.444289 0.675641 1.27546)
(-0.22203 0.343615 1.15635)
(-0.0294593 -0.264388 1.60269)
(-0.423872 0.000392308 1.17683)
(-0.156494 1.07565 1.62756)
(-0.442579 0.872301 2.07014)
(-0.133977 0.270573 0.7611)
(-0.185009 -0.114064 1.3775)
(-0.26801 -0.145739 1.73809)
(-0.0537418 -0.0393171 0.351867)
(-0.224851 -0.061933 0.58724)
(-0.155214 -0.0226096 0.554438)
(-0.340675 -0.297546 0.745553)
(-0.270642 -0.161157 0.538203)
(-0.109147 -0.142628 0.568661)
(-0.439461 -1.45224 2.9092)
(-0.683404 -0.621454 2.15389)
(-0.155658 -0.0147701 0.500145)
(-0.053781 -0.0477522 0.395496)
(-0.0689336 -0.08208 0.606329)
(-0.0569208 -0.216089 0.371243)
(0.125292 -1.11148 1.33607)
(-0.151085 -0.0444675 0.564898)
(-0.16335 0.0376031 0.359011)
(-0.0720149 0.00155624 0.715205)
(0.0311179 0.00509483 0.657172)
(-0.153666 -0.171019 0.691338)
(-0.182434 0.00632233 0.734921)
(-0.168936 0.0170849 1.24587)
(-0.266008 0.308733 1.55599)
(0.00265293 -0.0797839 0.993254)
(-0.0321976 0.0254258 1.40492)
(-0.164422 0.172206 1.1712)
(-0.246704 0.178672 0.848869)
(0.412522 -0.0684166 1.22054)
(0.797851 -1.23584 1.8926)
(-0.189909 -1.48178 2.10774)
(-0.0943742 -0.248027 0.341229)
(-0.0623856 -0.0453623 0.270304)
(0.0521658 -3.13869 4.67811)
(-0.0317644 -0.0812551 0.954119)
(-0.0028334 0.124969 0.425331)
(-0.193197 0.0355258 0.365176)
(-0.210739 -0.145293 0.561071)
(-0.0672177 -0.151634 0.445599)
(-0.0184023 -0.654077 0.946911)
(0.225416 0.0714025 0.703026)
(-0.0199978 0.0190715 0.737415)
(-0.23264 -0.0246468 0.393706)
(-0.17644 -0.0273893 0.628907)
(0.00632577 -0.0247381 0.599205)
(0.0983686 -0.243805 0.600493)
(-0.165932 -0.279497 0.911175)
(-0.282365 -0.162927 0.787804)
(-0.0380138 -0.000662551 0.959085)
(0.0464808 -1.33477 1.71543)
(0.0916775 -0.523602 1.41064)
(-0.0467714 0.0249081 0.771793)
(0.88004 0.0532814 1.7289)
(0.482686 -1.12543 2.32362)
(0.278818 -0.891369 1.64847)
(-0.299131 0.0149728 0.177013)
(-0.0720239 0.204919 0.0478981)
(-0.0881709 -1.81794 4.38987)
(0.0778008 0.155021 1.09438)
(-0.0375423 0.351977 1.12053)
(-0.404389 0.340672 0.971573)
(-0.0559746 0.036692 0.605504)
(-0.0531554 -0.0994347 0.553952)
(-0.0384211 -0.141496 0.609299)
(0.302228 0.132809 0.91243)
(0.168258 0.434498 1.41494)
(-0.366568 0.00955672 1.36149)
(-0.0959487 0.0682785 0.400889)
(0.0268294 0.011263 0.630536)
(0.603452 -0.347418 1.65186)
(-0.461936 -0.423969 2.44552)
(-0.305103 0.151788 1.15239)
(-0.0938602 0.239927 1.08208)
(0.130454 -0.142184 0.826016)
(0.124885 -0.13161 1.47021)
(-0.196086 0.0756562 1.49686)
(1.06476 0.0473966 1.91717)
(0.475251 -1.09584 3.56855)
(0.00583925 -0.543554 1.45046)
(-0.615791 0.184866 0.235603)
(-0.0455557 0.158949 -0.256925)
(-0.417281 -0.182199 2.37734)
(-0.232076 0.206482 0.920244)
(-0.367752 -0.0460548 0.258861)
(-0.133152 -0.0416388 0.147707)
(0.178575 -0.0351651 -0.0759966)
(-0.0384391 -0.0138405 0.594256)
(-0.0961468 0.0158489 0.462212)
(-0.111351 0.0120074 0.889178)
(-0.159074 0.225567 0.804384)
(-0.0647334 0.141146 0.559274)
(0.0133161 0.150809 -0.232937)
(-0.0697007 0.0213053 0.457324)
(0.234522 -0.305353 1.06455)
(-0.503479 -0.30298 1.60426)
(-0.318909 -0.192788 0.207171)
(-0.128103 0.239399 0.138093)
(-0.27539 -0.205861 0.743739)
(-0.0776698 -0.317916 0.146335)
(-0.462562 0.1168 0.37051)
(1.0275 0.0828629 2.06451)
(0.299963 -0.626695 3.27252)
(-0.133317 -0.183524 1.07812)
(-0.411169 0.417744 0.594118)
(0.0398361 0.232232 -0.208653)
(-0.340421 -0.144063 2.0223)
(-0.283957 0.00867853 0.606145)
(-0.326871 -0.0550076 0.397119)
(-0.144308 0.0193819 0.253488)
(-0.026112 0.106452 -0.10576)
(-0.00290897 0.00207642 -0.000713559)
(-0.0377864 -0.0860428 0.406016)
(-0.05267 -0.312395 0.10503)
(-0.289608 -0.0927334 0.804258)
(-0.236481 0.114193 1.00714)
(0.00671045 0.152932 0.629227)
(0.0479309 0.1464 -0.044409)
(-0.00196469 -0.000936666 -0.000217748)
(-0.00978965 -0.124302 0.266062)
(-0.100791 -0.278515 1.08284)
(-0.547578 -0.242184 1.60823)
(0.0314486 0.196714 0.312276)
(0.000489028 0.17161 0.308454)
(-0.140857 0.0304499 0.346846)
(-0.0350321 0.185878 0.356983)
(-0.0216194 0.111485 0.018139)
(0.752228 0.083279 1.90419)
(0.265854 -0.474684 3.30056)
(0.0267566 -0.172772 1.14103)
(-0.282255 0.719136 0.610155)
(0.137376 0.301016 -0.244664)
(-0.285374 -0.00953852 1.73994)
(-0.336956 -0.0679047 0.594667)
(-0.220961 0.0213912 0.326847)
(-0.0583317 -0.0024509 0.111138)
(-0.0450474 0.0685457 -0.150439)
(-0.076478 -0.0364377 0.0142693)
(-0.00866144 -0.0751598 0.498672)
(-0.130754 -0.207974 0.323991)
(-0.325699 -0.150916 0.871823)
(-0.233732 0.0548746 0.972584)
(0.0620209 0.172003 0.518482)
(-0.0738248 0.061801 0.116548)
(-0.152158 -0.0978874 -0.0981568)
(0.051064 -0.0421268 0.313019)
(-0.201775 -0.236674 1.14547)
(-0.557249 -0.236364 1.46846)
(0.0779414 0.0951823 0.334451)
(0.0122081 0.0708391 0.388296)
(-0.142736 -0.0224653 -0.0796125)
(-0.00338533 0.162427 0.415366)
(-0.0631759 0.16601 0.43689)
(0.0605383 0.0567778 -0.0223574)
(0.110963 0.0875794 1.05465)
(0.266016 -0.389468 3.30099)
(0.163875 -0.151137 1.3703)
(-0.106953 0.711073 0.410118)
(0.171956 0.264293 -0.203226)
(-0.104949 -0.111605 1.45159)
(-0.361178 0.0411374 0.566991)
(-0.089741 0.0302461 0.342354)
(-0.0193569 -0.0352063 0.16311)
(-0.013236 0.0883257 -0.0992222)
(0.0958257 0.0552543 0.0227342)
(0.01386 0.117954 0.690696)
(-0.191577 -0.124694 0.484088)
(-0.324697 -0.157646 0.904531)
(-0.108849 -0.036222 0.867856)
(0.177482 0.0996057 0.477664)
(-0.022063 0.0301322 0.238961)
(-0.0233551 -0.00643064 -0.12471)
(0.0890425 0.0839318 0.361311)
(-0.187552 -0.206843 1.13209)
(-0.405134 -0.142456 1.1867)
(0.162585 0.0725384 0.294598)
(0.0126974 -0.0726268 0.425843)
(-0.0267978 0.0250559 -0.114771)
(0.0682136 0.132988 0.474649)
(-0.0540755 0.14211 0.43628)
(0.0819173 0.015809 0.0290817)
(0.412605 -0.0449355 0.36874)
(0.333369 -0.364941 3.1607)
(0.293917 0.075631 1.68424)
(0.135668 0.528275 0.234012)
(0.157422 0.208141 -0.16833)
(-0.204805 -0.213671 1.27092)
(-0.364965 0.227556 0.631701)
(-0.0742795 0.0321465 0.311105)
(-0.0705743 -0.0688996 0.161891)
(0.0803525 0.0980662 -0.145097)
(0.183506 0.0905913 0.025628)
(0.0320471 0.35038 1.00307)
(-0.22299 -0.0201506 0.614659)
(-0.303113 -0.108728 0.923944)
(0.0690704 -0.0350557 0.701773)
(0.156279 0.0189945 0.464061)
(0.0172292 -0.078455 0.330937)
(0.109848 0.0959075 -0.0677876)
(0.159033 0.226261 0.447495)
(-0.19415 -0.147748 1.1028)
(-0.0595194 0.0220453 0.895539)
(0.129739 0.0688762 0.257894)
(-0.0390975 -0.0636243 0.369583)
(0.116414 0.117855 0.571867)
(-0.026297 0.150121 0.464671)
(0.0758657 0.0119518 0.154408)
(0.565605 0.0491611 0.0807986)
(0.337931 -0.432775 3.01452)
(-0.112224 0.465368 1.97089)
(0.277188 0.34958 0.136141)
(0.124868 0.11863 -0.122177)
(-0.395901 -0.0989728 1.21828)
(-0.315487 0.262786 0.662664)
(-0.111497 0.0527955 0.286207)
(-0.1673 -0.0309161 0.132931)
(0.0709529 0.133261 -0.144213)
(0.0418512 0.378458 1.06769)
(-0.204823 0.0761662 0.718636)
(-0.2259 -0.0245388 0.930861)
(0.104943 0.0436101 0.572748)
(0.0705713 0.0349763 0.472116)
(0.0712855 -0.0780534 0.222631)
(0.213067 0.310922 0.575971)
(-0.200337 -0.100774 1.07465)
(0.0972002 0.0905236 0.78033)
(-0.00746405 0.0871416 0.327973)
(-0.0758129 0.181216 0.156656)
(0.148634 0.110584 0.685505)
(0.0133306 0.133637 0.552565)
(0.0787144 0.00541907 0.340429)
(0.439037 0.0596334 -0.0531676)
(0.186806 -0.418851 3.05926)
(-0.600707 0.760023 1.7575)
(0.217713 0.284681 0.24572)
(0.15556 0.106415 -0.0945752)
(-0.474667 0.0495338 1.39848)
(-0.184302 0.202949 0.684587)
(-0.201537 0.0554873 0.292727)
(-0.145621 0.0910536 0.0131951)
(0.0584642 0.178289 -0.140192)
(0.0371258 0.401366 0.992213)
(-0.156633 0.167655 0.819216)
(-0.139496 0.045252 0.947721)
(-0.00342017 0.14823 0.521665)
(-0.0886196 0.150961 0.393527)
(-0.0342314 0.163294 0.188769)
(0.223826 0.337515 0.729629)
(-0.156511 -0.0444575 1.04709)
(0.10676 0.132623 0.736634)
(-0.0401436 0.138707 0.451948)
(-0.0890183 0.234426 0.224333)
(0.171122 0.108864 0.794713)
(0.0341332 0.114362 0.660083)
(0.0856061 -0.00596087 0.510052)
(0.21838 0.0263911 -0.0413735)
(0.238056 -0.252392 3.20446)
(-0.0740587 0.837599 1.21485)
(0.121347 0.120337 0.407977)
(0.183743 0.134486 -0.0897453)
(-0.41758 0.101933 1.69787)
(-0.0953252 0.135362 0.705529)
(-0.29377 0.062091 0.219572)
(-0.15995 0.119804 -0.0917677)
(0.0381079 0.193511 -0.172073)
(0.0288385 0.402689 0.911273)
(-0.117298 0.274372 0.900197)
(-0.151887 0.128017 0.942453)
(-0.211731 0.233988 0.487522)
(-0.160922 0.102153 0.345144)
(-0.182744 0.15175 0.0809734)
(0.210467 0.331706 0.895594)
(-0.111254 0.0745738 1.03895)
(0.0477109 0.191402 0.751214)
(-0.0577942 0.232426 0.62197)
(-0.106786 0.225468 0.334161)
(0.171702 0.113538 0.889805)
(0.0734301 0.0754566 0.796683)
(0.0843561 -0.00775958 0.691295)
(0.123103 0.0150303 -0.0278185)
(-0.0219693 0.0646229 3.33372)
(0.340379 0.455075 0.757631)
(0.0544996 -0.0329208 0.439799)
(0.175366 0.131121 -0.1003)
(-0.41671 0.319258 1.86082)
(-0.0654064 0.123975 0.773211)
(-0.263793 0.0917781 0.150073)
(-0.201564 0.0945736 -0.158855)
(0.0130609 0.181731 -0.209105)
(0.00998956 0.423439 0.926216)
(-0.0585547 0.413191 0.997934)
(-0.156699 0.203922 0.975665)
(-0.258313 0.231628 0.418145)
(-0.196415 0.00349702 0.200238)
(-0.163707 0.0386703 -0.0713408)
(0.17944 0.334253 1.06908)
(-0.0962895 0.16543 1.07628)
(-0.0316195 0.252737 0.824349)
(-0.0600032 0.271044 0.707188)
(-0.0825997 0.157687 0.343667)
(0.149924 0.131581 1.0107)
(0.100664 0.0545417 0.96922)
(0.112005 -0.0376357 0.892159)
(0.0442136 0.00242432 -0.0403574)
(-0.427022 0.422353 3.08868)
(0.391497 0.294981 0.603231)
(0.0399472 -0.04393 0.444065)
(0.146899 0.0931394 -0.104421)
(-0.180603 0.71497 1.76308)
(-0.0103374 0.169548 0.876107)
(-0.149802 0.0786139 0.114306)
(-0.20708 0.0505829 -0.18165)
(-0.00503114 0.139781 -0.243652)
(-0.00364766 0.479991 1.16417)
(-0.0251642 0.473978 1.17661)
(-0.112205 0.232405 1.0172)
(-0.186133 0.218098 0.389689)
(-0.170292 -0.0391621 0.0490537)
(-0.114062 -0.0517084 -0.168961)
(0.13523 0.317443 1.26307)
(-0.0822877 0.163069 1.13581)
(-0.0161583 0.235029 0.904196)
(-0.0508015 0.231736 0.713956)
(-0.013601 0.0489151 0.191158)
(0.164945 0.130211 1.16093)
(0.15301 0.0289423 1.13661)
(0.156446 -0.0761764 1.07605)
(-0.018301 -0.00030563 -0.0586467)
(0.201202 0.337808 2.2357)
(0.296529 0.176384 0.67057)
(-0.0184908 -0.0417818 0.381538)
(0.111465 0.0467529 -0.0985548)
(0.0549154 0.830544 1.4568)
(-0.0103752 0.225142 0.940654)
(-0.0415576 -0.0399632 0.110534)
(-0.199952 -0.0341093 -0.175649)
(-0.00848704 0.0769577 -0.245032)
(0.0131321 0.433715 1.45821)
(-0.051356 0.391237 1.38799)
(-0.0135401 0.277655 1.0622)
(0.0360523 0.103552 0.382825)
(-0.0579319 -0.124269 -0.00209619)
(-0.0264893 -0.137958 -0.223723)
(0.0999229 0.28991 1.44742)
(-0.0469209 0.158348 1.17649)
(0.00770924 0.158595 0.938959)
(-0.0255814 0.0726781 0.772989)
(0.0972796 -0.092639 0.0384839)
(0.188165 0.129654 1.28738)
(0.199659 0.00485695 1.29445)
(0.216107 -0.0915126 1.19797)
(-0.0441017 -0.0105935 -0.0592043)
(-0.0268945 0.211997 0.68512)
(-0.0535694 0.126596 0.690097)
(-0.0955511 -0.163028 0.303327)
(0.0855768 0.0111903 -0.0786287)
(0.00579144 0.623345 1.25207)
(-0.0579652 0.239348 0.93485)
(0.0104839 -0.208645 0.112975)
(-0.192301 -0.114479 -0.119694)
(-0.00577319 0.0196 -0.200776)
(0.0196805 0.338301 1.67831)
(-0.077327 0.290014 1.55731)
(0.0578989 0.333388 0.996248)
(0.15931 -0.160833 0.307057)
(0.0517755 -0.272097 0.00573944)
(0.0579211 -0.257184 -0.191796)
(0.0763397 0.249789 1.60598)
(0.033826 0.203029 1.19284)
(0.0752407 0.0784289 0.968742)
(-0.00246425 -0.123768 0.81569)
(0.194019 -0.255048 -0.0488205)
(0.205009 0.107542 1.41613)
(0.250194 -0.0349629 1.3752)
(0.261021 -0.127883 1.25017)
(-0.0166498 -0.0169368 -0.0395124)
(-0.230101 0.183881 0.422184)
(-0.307142 0.0668791 0.612541)
(-0.166089 -0.246539 0.279004)
(0.0723558 -0.00245597 -0.0394206)
(-0.0710613 0.372016 1.15842)
(-0.15264 0.199879 0.811088)
(-0.0134203 -0.357427 0.133194)
(-0.18887 -0.173452 -0.030391)
(0.00124845 -0.0204526 -0.109712)
(0.0161699 0.240313 1.80761)
(-0.0979792 0.206837 1.65927)
(0.0926811 0.279136 0.891643)
(0.131498 -0.447752 0.227775)
(0.128371 -0.413339 0.0350987)
(0.128857 -0.378586 -0.0836532)
(0.0716144 0.224379 1.72169)
(0.111838 0.169727 1.25472)
(0.220101 -0.135997 0.996326)
(0.120512 -0.302784 0.770987)
(0.311312 -0.436351 -0.0342756)
(0.212792 0.101793 1.49462)
(0.314757 -0.0847836 1.39199)
(0.28497 -0.145538 1.18354)
(0.0435789 -0.0187845 -0.0124785)
(-0.213818 0.105721 0.458837)
(-0.323964 -0.00650445 0.537858)
(-0.212536 -0.24147 0.315384)
(0.0693595 0.0113079 0.00881919)
(-0.103213 0.240246 1.16255)
(-0.192918 -0.0315694 0.728136)
(-0.0579404 -0.416638 0.190109)
(-0.1904 -0.183839 0.0677928)
(0.00977327 -0.00909001 0.00146886)
(0.0106798 0.157322 1.87783)
(-0.0854676 0.140423 1.73371)
(0.116219 -0.054899 0.864007)
(0.0419993 -0.56062 0.200399)
(0.115834 -0.430182 0.110469)
(0.101349 -0.387153 0.110665)
(0.07073 0.186674 1.78525)
(0.16272 -0.00541502 1.29506)
(0.279718 -0.496363 0.784372)
(0.43633 -0.540163 0.564585)
(0.401871 -0.577861 0.114231)
(0.18365 0.00730283 1.52132)
(0.353109 -0.0996001 1.28951)
(0.327061 -0.18016 1.0388)
(0.11631 -0.0143201 0.0183554)
(-0.130598 0.00526511 0.683194)
(-0.251108 -0.0880665 0.539484)
(-0.183182 -0.166939 0.382236)
(0.0743929 0.0380069 0.0556037)
(-0.118854 0.103534 1.23925)
(-0.186044 -0.403951 0.76362)
(-0.0585421 -0.355773 0.258179)
(-0.169554 -0.147146 0.142458)
(0.0224753 0.0305814 0.094331)
(0.00981279 0.0923975 1.8988)
(-0.0768742 0.0887623 1.77685)
(-0.0109218 -0.510438 0.837985)
(-0.0187568 -0.452324 0.253798)
(-0.00474178 -0.281112 0.21125)
(0.0420933 -0.282793 0.291053)
(0.0606396 0.13197 1.80472)
(0.0765274 -0.404425 1.16846)
(0.16464 -0.538521 0.50113)
(0.397855 -0.561598 0.408491)
(0.352174 -0.525782 0.362386)
(0.0679671 -0.0330525 1.49313)
(0.267349 -0.279532 0.864243)
(0.580101 -0.327979 0.724556)
(0.201007 -0.00308666 0.0402239)
(-0.0270828 -0.0825807 0.971637)
(-0.187645 -0.154554 0.619236)
(-0.0734248 -0.0697801 0.441942)
(0.0925994 0.0657817 0.102954)
(-0.130727 -0.0826576 1.33488)
(-0.184958 -0.478312 0.788899)
(-0.000682357 -0.220005 0.311295)
(-0.1198 -0.0946591 0.196496)
(0.0405799 0.0722618 0.170465)
(0.0034188 0.0374448 1.87342)
(-0.0840137 0.00680083 1.78088)
(-0.116516 -0.562809 0.812208)
(-0.0131526 -0.247068 0.277979)
(-0.0315146 -0.14957 0.260046)
(0.0171634 -0.181136 0.357299)
(0.0205298 0.0858944 1.81601)
(-0.118446 -0.505404 0.982466)
(0.0331487 -0.28421 0.36512)
(0.100571 -0.239139 0.379126)
(0.187206 -0.325238 0.483307)
(-0.0323611 -0.22314 1.31111)
(0.127977 -0.172961 0.369293)
(0.339567 -0.202094 0.448281)
(0.278689 0.00525912 0.0660306)
(0.067905 -0.201601 1.24595)
(-0.0977249 -0.148499 0.708208)
(0.0741126 -0.020604 0.448951)
(0.130816 0.0848146 0.153315)
(-0.101547 -0.217003 1.44835)
(-0.171694 -0.404352 0.800345)
(0.0946802 -0.111322 0.312557)
(-0.0503093 -0.0377975 0.253104)
(0.0562184 0.109379 0.247292)
(-0.00498916 -0.0274655 1.86318)
(-0.0778521 -0.0626632 1.78212)
(-0.0852185 -0.436431 0.77892)
(0.0594363 -0.115285 0.240354)
(0.0153998 -0.06154 0.285494)
(0.0192938 -0.109309 0.394072)
(0.000979411 -0.0106914 1.85542)
(-0.154612 -0.30878 0.810903)
(0.023478 -0.104545 0.272133)
(0.0361496 -0.065218 0.336309)
(0.108101 -0.215216 0.484786)
(-0.0734533 0.0626827 0.807079)
(0.119074 -0.0503237 0.147972)
(0.204784 -0.120807 0.310395)
(0.352216 0.00817961 0.118155)
(0.206421 -0.289327 1.46077)
(0.118976 -0.0947463 0.789089)
(0.224933 -0.0587394 0.402094)
(0.196932 0.111154 0.223504)
(0.00201971 -0.264291 1.55542)
(0.0116497 -0.220914 0.786691)
(0.20881 -0.0374081 0.312667)
(0.0291672 0.0171955 0.32321)
(0.0703367 0.147385 0.34036)
(-0.0132837 -0.0809829 1.84712)
(-0.0603253 -0.0782136 1.72326)
(0.166326 -0.12269 0.631952)
(0.154215 -0.0300901 0.231106)
(0.0700163 0.00281348 0.33733)
(0.0274481 -0.0573918 0.458838)
(0.0282441 0.0225519 1.92303)
(0.105898 -0.0648285 0.60965)
(0.118201 -0.00398293 0.232833)
(0.0853079 0.014822 0.320367)
(0.0896901 -0.168502 0.514558)
(0.0409221 0.2361 0.49268)
(0.202801 0.0161054 0.0429133)
(0.211333 -0.106264 0.298142)
(0.438498 0.00660284 0.242518)
(0.304439 -0.355282 1.42922)
(0.338919 -0.0737775 0.813081)
(0.372739 -0.1094 0.361128)
(0.274155 0.142299 0.336839)
(0.114339 -0.279886 1.56003)
(0.312777 -0.0737081 0.66437)
(0.300519 0.00968383 0.335594)
(0.0842557 0.0609739 0.416041)
(0.0805874 0.187184 0.458626)
(-0.021165 -0.084339 1.80133)
(0.0254155 -0.135906 1.62812)
(0.370884 -0.0253518 0.489658)
(0.240411 0.0228308 0.267025)
(0.0975496 0.0481758 0.429398)
(0.0290296 -0.0182556 0.55668)
(0.0770107 0.102208 1.84373)
(0.384243 0.0136085 0.481793)
(0.24692 0.0446227 0.260857)
(0.14568 0.0577963 0.367821)
(0.0824574 -0.143541 0.602313)
(0.338796 0.289731 0.315472)
(0.331736 0.0464752 0.0627263)
(0.245852 -0.101388 0.426704)
(0.510575 0.0171307 0.428874)
(0.339958 -0.310418 1.30473)
(0.462375 -0.183684 0.768414)
(0.45971 -0.0802303 0.388952)
(0.335447 0.165849 0.482786)
(0.194168 -0.185934 1.48979)
(0.441292 -0.0533076 0.554223)
(0.329745 0.0307002 0.392346)
(0.0928104 0.0885886 0.533644)
(0.0828 0.214318 0.591742)
(-0.00262207 -0.0290528 1.67196)
(0.145041 -0.0253924 1.47103)
(0.468364 -0.0312402 0.418196)
(0.316099 0.0497686 0.334002)
(0.0934987 0.0823406 0.55254)
(0.0284726 0.00985771 0.674754)
(0.239865 0.116497 1.64391)
(0.519688 0.0403862 0.369724)
(0.349745 0.0635782 0.334842)
(0.164991 0.0841381 0.484493)
(0.0695212 -0.113417 0.72639)
(0.614503 0.274707 0.276833)
(0.410233 0.0518567 0.21408)
(0.250234 -0.0911879 0.637889)
(0.462974 0.0288254 0.559175)
(0.293627 -0.254445 0.966585)
(0.472527 -0.282768 0.688912)
(0.452331 -0.00363163 0.466891)
(0.351517 0.173428 0.625869)
(0.265823 -0.168019 1.31305)
(0.428514 -0.04937 0.503067)
(0.313688 0.0384507 0.470942)
(0.0770203 0.10467 0.650977)
(0.0743184 0.220235 0.717547)
(-0.0220814 -0.115359 1.52772)
(0.227368 -0.115003 1.28)
(0.467708 0.013837 0.391691)
(0.338082 0.0582237 0.427671)
(0.0691056 0.113219 0.687504)
(0.0279247 0.0307581 0.795702)
(0.183502 -0.0189155 1.07427)
(0.513433 0.05984 0.344031)
(0.345617 0.0527776 0.4431)
(0.117287 0.0852895 0.647134)
(0.0544022 -0.0817891 0.843467)
(0.620528 0.182174 0.329842)
(0.345159 0.0503651 0.44433)
(0.209797 -0.0568586 0.868965)
(0.352238 0.0237931 0.616796)
(0.234574 -0.261804 0.937554)
(0.409256 -0.158613 0.623016)
(0.365285 0.00857654 0.541576)
(0.312159 0.164461 0.740632)
(0.231034 -0.222185 1.13694)
(0.338088 -0.0341943 0.485394)
(0.273264 0.0409449 0.552431)
(0.047561 0.116018 0.748061)
(0.0568779 0.204257 0.818078)
(0.00193092 -0.13716 1.28337)
(0.202131 -0.100791 0.962617)
(0.383339 0.0250366 0.415709)
(0.290673 0.0533332 0.541531)
(0.0337898 0.137717 0.816367)
(0.0279457 0.0433682 0.902885)
(0.197182 0.200617 0.712448)
(0.404736 0.0398925 0.396632)
(0.261159 0.00818002 0.578442)
(0.036377 0.0755459 0.805844)
(0.0344152 -0.0426068 0.938599)
(0.404909 0.0320083 0.357719)
(0.208965 0.0356369 0.655203)
(0.102373 -0.0307117 1.07075)
(0.266641 0.0168893 0.646892)
(0.155062 -0.137437 0.894868)
(0.269205 -0.083534 0.595393)
(0.262557 -0.0108694 0.595424)
(0.21241 0.149683 0.80379)
(0.136535 -0.0769661 0.991013)
(0.239705 -0.0535491 0.489901)
(0.226848 0.0320471 0.627316)
(0.0134241 0.116603 0.82347)
(0.0346808 0.171599 0.895992)
(0.0157033 0.0249279 0.792388)
(0.151253 0.0391534 0.727049)
(0.254901 -0.0167279 0.442336)
(0.226968 0.0478701 0.649847)
(0.00433704 0.143676 0.914932)
(0.0299103 0.0416724 0.984958)
(0.179383 0.180412 0.550024)
(0.266304 0.000404272 0.442126)
(0.168563 -0.0407669 0.708706)
(-0.0268593 0.0844943 0.923461)
(0.0157991 -0.0103904 1.00139)
(0.226483 -0.0248882 0.337646)
(0.104021 -0.00292531 0.786915)
(-0.0210561 -0.000440707 1.13407)
(0.222332 0.0144383 0.686014)
(0.0506196 -0.0435364 0.776933)
(0.153814 -0.0887949 0.575185)
(0.178845 -0.00186525 0.646551)
(0.119271 0.135343 0.799531)
(0.084033 0.0427779 0.842809)
(0.143735 -0.0944168 0.495849)
(0.191545 0.0140278 0.687076)
(-0.0068678 0.106797 0.883648)
(0.00157333 0.111151 0.957455)
(0.0130994 0.0845358 0.607462)
(0.121738 0.0886423 0.601823)
(0.155971 -0.0649053 0.447485)
(0.164717 0.0367305 0.742506)
(-0.00553499 0.115599 0.980534)
(0.0316085 0.0273421 1.03732)
(0.159166 0.134156 0.45607)
(0.168886 -0.0378109 0.460624)
(0.0941782 -0.0785632 0.816514)
(-0.0430224 0.07756 1.00108)
(0.0083337 -0.00217696 1.03571)
(0.12564 -0.0343882 0.323336)
(0.0362805 -0.0310652 0.834279)
(-0.0540557 0.0189601 1.13437)
(0.198197 0.0114163 0.734908)
(-0.011232 0.00385794 0.690465)
(0.0856813 -0.100365 0.553311)
(0.126821 0.0191439 0.684731)
(0.0874657 0.111629 0.772229)
(0.0417478 0.0772853 0.728102)
(0.0519128 -0.127659 0.491625)
(0.177347 0.0175853 0.722867)
(-0.00956469 0.0962588 0.938021)
(-0.0151463 0.0288906 1.00194)
(0.0157676 0.116762 0.542468)
(0.10131 0.0942521 0.530706)
(0.0796856 -0.103972 0.445703)
(0.123503 0.00342993 0.812448)
(0.000944191 0.0618261 1.03896)
(0.0290962 -0.0104571 1.06619)
(0.147654 0.115333 0.358164)
(0.0937338 -0.0770012 0.480403)
(0.0259625 -0.108933 0.889028)
(-0.0234287 0.0320631 1.06362)
(0.0155486 -0.0507497 1.03499)
(0.0743143 -0.0305044 0.336677)
(-0.00202032 -0.0328303 0.839129)
(-0.0641286 0.0295133 1.07684)
(0.165117 0.0129691 0.769793)
(-0.0432831 0.036198 0.630268)
(0.0412331 -0.100305 0.537657)
(0.112014 0.0452274 0.705491)
(0.0869735 0.102402 0.757272)
(0.0161173 0.0656488 0.654915)
(-0.0199608 -0.138192 0.474104)
(0.152786 0.0589344 0.752791)
(-0.0212278 0.0820251 0.998818)
(-0.00975971 -0.0353361 1.03878)
(0.0265188 0.153819 0.477655)
(0.108334 0.109316 0.470105)
(0.025102 -0.120178 0.44748)
(0.110544 -0.0329393 0.871206)
(0.0112673 0.0144219 1.09856)
(0.0302835 -0.0436578 1.09436)
(0.128172 0.0896014 0.299187)
(0.0229137 -0.112821 0.500292)
(-0.0292887 -0.11611 0.924882)
(-0.0718911 -0.0280298 1.10637)
(0.00904203 -0.0574344 0.878072)
(0.0285498 -0.0273817 0.366031)
(-0.0599929 -0.0150297 0.861121)
(-0.134693 0.0865387 1.00178)
(0.130266 0.0186661 0.743614)
(-0.0633965 0.0440189 0.594741)
(0.00471402 -0.0916946 0.529756)
(0.136866 0.0920681 0.696249)
(0.089641 0.105069 0.767052)
(0.00976789 0.0363233 0.61278)
(-0.0634204 -0.136479 0.464242)
(0.0976083 0.0866647 0.79406)
(-0.044691 0.04857 1.04936)
(-0.00979182 -0.0601641 1.06425)
(0.0226381 0.152724 0.348354)
(0.130912 0.120952 0.446921)
(-0.0106924 -0.119411 0.45733)
(0.0833459 -0.053191 0.929262)
(0.022551 -0.0108834 1.13749)
(0.0426606 -0.0502056 1.11284)
(0.074008 0.0513118 0.315133)
(-0.0226599 -0.131692 0.510208)
(-0.0651564 -0.0835138 0.927452)
(-0.130353 -0.0434742 1.09011)
(-0.00523911 0.0253801 0.701513)
(-0.00680401 -0.0320621 0.38842)
(-0.0806645 0.0180456 0.86475)
(-0.147998 0.071517 0.965171)
(0.0887375 0.0293734 0.585565)
(-0.0793307 0.0437741 0.597184)
(-0.0366738 -0.0773426 0.536696)
(0.111888 0.11186 0.682271)
(0.0419173 0.0696924 0.836628)
(0.0275818 0.0435308 0.585354)
(-0.0854791 -0.130233 0.471323)
(0.0495488 0.0419145 0.836067)
(-0.0532884 -0.000183787 1.07069)
(-0.0169523 -0.0818976 1.06656)
(-0.00391514 0.0848408 0.320704)
(0.114383 0.112977 0.460204)
(-0.0361515 -0.109502 0.471982)
(0.0325695 -0.0732111 0.956998)
(0.0285722 -0.0312183 1.14601)
(0.0348506 -0.0647992 1.13613)
(-0.00146782 0.0291513 0.348456)
(-0.0353512 -0.134331 0.511538)
(-0.0805568 -0.0576634 0.901142)
(-0.106108 -0.01434 1.02715)
(-0.0061402 0.0273709 0.639982)
(-0.031356 -0.0380946 0.387919)
(-0.0703559 0.0177103 0.849866)
(-0.0511843 0.00869326 0.860936)
(0.0252743 0.00761013 0.489966)
(-0.115325 0.0781872 0.627461)
(-0.0831574 -0.0695174 0.566154)
(-0.0049222 0.0539059 0.667042)
(-0.0508784 -0.0235609 0.931631)
(0.0891517 0.111932 0.57418)
(-0.0845817 -0.119664 0.48108)
(0.0347586 -0.049831 0.862137)
(-0.0424434 -0.0475307 1.07726)
(-0.0197892 -0.118178 1.06146)
(-0.0135381 0.0210604 0.363658)
(0.0784919 0.109577 0.461597)
(-0.0534326 -0.0892429 0.489371)
(0.0114546 -0.0956384 0.944919)
(0.0280122 -0.0661388 1.12905)
(0.0380287 -0.102837 1.11776)
(-0.0403683 0.0223062 0.375917)
(-0.0343163 -0.122872 0.510742)
(-0.0623501 -0.0698999 0.849777)
(0.0236088 0.0103049 0.904045)
(0.0103745 -0.0187277 0.673705)
(-0.0340266 -0.0373201 0.381001)
(-0.0137403 0.0115967 0.809462)
(-0.00040732 -0.00073553 0.822566)
(-0.0371502 -0.0138033 0.519541)
(-0.127601 0.0994738 0.660907)
(-0.130418 -0.070315 0.603666)
(-0.0941895 -0.071363 0.706645)
(-0.0792039 -0.0688043 0.971277)
(0.119559 0.155208 0.567682)
(-0.0507297 -0.100137 0.491351)
(0.0337167 -0.135178 0.852364)
(-0.0266871 -0.0789115 1.09489)
(-0.0309451 -0.135399 1.0596)
(-0.0131032 -0.0277652 0.40877)
(0.0411961 0.126749 0.442205)
(-0.0598735 -0.0654871 0.502753)
(0.0149729 -0.0979171 0.911173)
(0.0484357 -0.0943348 1.10891)
(0.0190184 -0.069572 1.05696)
(-0.0533776 0.014674 0.406454)
(-0.0503976 -0.0777813 0.513777)
(-0.00745095 -0.0792146 0.762027)
(0.0679469 -0.0193566 0.783085)
(0.0028041 -0.0150434 0.739538)
(0.00544703 -0.00745098 0.377767)
(-0.00299031 -0.0288483 0.780313)
(0.008031 -0.00509368 0.836797)
(-0.0662455 -0.0262812 0.609515)
(-0.126287 0.1039 0.706118)
(-0.163958 -0.0546884 0.615241)
(-0.10471 -0.153244 0.754177)
(-0.0608187 -0.0631067 1.00706)
(0.105652 0.16665 0.587613)
(0.00203163 -0.0788448 0.499414)
(0.0206054 -0.182577 0.819909)
(-0.0112053 -0.0788715 1.1289)
(-0.046 -0.129956 1.05426)
(-0.0116172 -0.0571502 0.432043)
(0.0191202 0.1269 0.422686)
(-0.0546774 -0.0485044 0.505099)
(-0.00117704 -0.0781344 0.838386)
(0.0948549 -0.0962494 1.08988)
(-0.0143711 -0.0238775 0.980405)
(-0.0620698 -0.00489384 0.434809)
(-0.0832825 -0.0275369 0.500693)
(-0.00164229 -0.0313585 0.731179)
(0.0760116 -0.0330395 0.727817)
(-0.000282025 0.0282856 0.792197)
(0.0472507 0.0150381 0.3701)
(0.0771999 -0.131795 0.639794)
(0.0719588 -0.0378121 0.857492)
(-0.0680409 -0.0349309 0.716459)
(-0.13764 0.117652 0.735273)
(-0.161902 -0.0277699 0.616547)
(-0.0915452 -0.182142 0.772444)
(-0.036645 -0.0398521 1.04752)
(0.0942011 0.178817 0.578369)
(0.0415754 -0.0547738 0.518516)
(-0.0117473 -0.174859 0.789014)
(0.00437237 -0.0570782 1.16153)
(-0.0390129 -0.0939422 1.05929)
(-0.0163589 -0.0733748 0.446152)
(-0.00330466 0.0957595 0.438307)
(-0.0432368 -0.0347421 0.500212)
(-0.0430475 -0.059692 0.717241)
(0.123084 -0.0868581 1.05239)
(0.0352358 -0.0327986 0.970998)
(-0.072553 -0.0205955 0.445231)
(-0.0987873 -0.0125322 0.480977)
(-0.0649551 0.0330743 0.675744)
(0.0791689 -0.0397583 0.720066)
(-0.00203879 0.0588677 0.852868)
(0.0650608 0.0250641 0.340034)
(0.0829305 -0.0263327 0.576584)
(0.107972 -0.0578879 0.896213)
(-0.0631348 -0.0330707 0.810566)
(-0.108158 0.10347 0.762315)
(-0.12858 -0.0225231 0.629078)
(-0.0764607 -0.17342 0.760467)
(-0.0163384 -0.0112751 1.08022)
(0.102226 0.168581 0.490412)
(0.0547642 -0.0287192 0.559413)
(-0.0519995 -0.147032 0.755662)
(0.0145149 -0.0469157 1.18106)
(-0.0337294 -0.0663334 1.07807)
(-0.0244939 -0.0901699 0.473168)
(-0.0536183 0.0226767 0.508885)
(-0.0323956 -0.0136314 0.498793)
(-0.0789678 -0.0471172 0.607421)
(0.105303 -0.076562 1.014)
(0.0627875 -0.0492008 0.992462)
(-0.0750011 -0.0322802 0.452207)
(-0.100811 -0.0197145 0.475217)
(-0.12273 0.0251439 0.593367)
(0.0478477 -0.0577706 0.702103)
(-0.00255352 0.0708583 0.89442)
(0.0408081 0.0207949 0.326338)
(-0.0200584 0.0462916 0.621779)
(0.0614505 -0.0207748 0.928819)
(-0.0453913 -0.0308636 0.86468)
(-0.0390461 0.0201277 0.81066)
(-0.0813963 -0.0363206 0.653366)
(-0.0526751 -0.138333 0.738375)
(-0.0130877 -0.00130113 1.10059)
(0.102714 0.105096 0.419892)
(0.0467967 0.000863063 0.607825)
(-0.0800171 -0.133135 0.730559)
(0.0182969 -0.0549457 1.18817)
(-0.0353973 -0.0503988 1.10089)
(-0.023518 -0.101246 0.508409)
(-0.0770081 -0.0183154 0.560353)
(-0.0248664 0.0198841 0.509403)
(-0.0887387 -0.0312574 0.538749)
(0.0168849 -0.0429122 0.94834)
(0.0548026 -0.0433424 1.00297)
(-0.0814215 -0.0391197 0.466782)
(-0.102615 -0.0424196 0.489234)
(-0.143078 -0.00251253 0.541275)
(-0.0529176 -0.0229727 0.673187)
(-0.00402988 0.0784427 0.924163)
(-0.0201681 -0.000601742 0.373782)
(-0.150144 0.0254183 0.591011)
(0.000964758 -0.0168524 0.900679)
(-0.0295328 -0.0242814 0.906942)
(-0.0445727 0.00182625 0.922088)
(-0.0279551 -0.0374837 0.67098)
(-0.0222168 -0.117204 0.736129)
(-0.0307232 -0.00170933 1.11077)
(0.0898996 0.0464408 0.39285)
(0.0352358 0.0446097 0.635296)
(-0.1089 -0.116137 0.713916)
(0.0193651 -0.0872798 1.18424)
(-0.0375505 -0.0401918 1.11734)
(-0.0187851 -0.10724 0.518186)
(-0.0809262 -0.00153088 0.589847)
(-0.0192408 0.0655832 0.534055)
(-0.0739096 -0.000485151 0.509683)
(-0.0803612 0.00913609 0.830041)
(0.0606265 -0.0254326 0.988268)
(-0.0891716 -0.0388353 0.492385)
(-0.0969487 -0.0479278 0.525474)
(-0.13894 -0.00693923 0.527011)
(-0.124139 0.0482079 0.640232)
(-0.007211 0.0460903 0.944742)
(-0.0287035 -0.0045434 0.446099)
(-0.20068 0.0208878 0.54834)
(-0.117785 0.0152187 0.646917)
(-0.0162829 -0.0162431 0.928655)