/*--------------------------------*- C++ -*----------------------------------*\
| =========                 |                                                 |
| \\      /  F ield         | OpenFOAM: The Open Source CFD Toolbox           |
|  \\    /   O peration     | Version:  5.x                                   |
|   \\  /    A nd           | Web:      www.OpenFOAM.org                      |
|    \\/     M anipulation  |                                                 |
\*---------------------------------------------------------------------------*/
FoamFile
{
    version     2.0;
    format      ascii;
    class       volVectorField;
    location    "4.45";
    object      Us;
}
// * * * * * * * * * * * * * * * * * * * * * * * * * * * * * * * * * * * * * //

dimensions      [0 1 -1 0 0 0 0];

internalField   nonuniform List<vector> 
10571
(
(-0.0142707 0.0128398 -0.0895506)
(0.00788232 0.00220606 0.0863988)
(-0.00527055 0.0325768 0.0608743)
(0.0196019 0.0345015 -0.0356938)
(0.0344266 0.0472454 -0.070815)
(0.0356418 -0.0073054 0.114867)
(0.10798 0.103067 0.0678617)
(-0.00221164 0.154698 0.00679216)
(-0.156746 0.00152377 -0.0221613)
(-0.0488113 -0.0651833 -0.015222)
(0.0214384 0.011667 0.0981473)
(0.0350016 0.134669 0.105345)
(0.159932 0.184064 0.0635288)
(-0.167547 0.170702 0.0775346)
(-0.1644 0.0451747 -0.0337063)
(-0.0314694 0.0335103 -0.0394612)
(0.0407962 0.0631191 0.125492)
(0.0254662 0.0946233 0.11065)
(-0.186958 0.0781497 0.144456)
(-0.186904 0.0075419 0.0329008)
(-0.0418526 0.0512829 -0.0215298)
(-0.0012092 0.0156171 0.0906904)
(-0.0313674 -0.0458731 0.0960901)
(-0.0297607 -0.00535012 0.00575091)
(-0.000625626 0.02166 0.140092)
(-0.0916013 0.0176607 0.183304)
(-0.165965 0.0667803 0.276)
(0.0374533 0.0735776 0.116871)
(0.08398 0.0926519 0.0354394)
(-0.0787435 -0.143787 0.191016)
(-0.0122088 0.128738 0.276944)
(-0.0533479 0.22632 0.184561)
(-0.0504896 0.0719937 0.0799114)
(-0.0364937 0.0196256 0.0697921)
(-0.0119137 -0.0723593 0.0487544)
(0.00662803 0.0291597 0.23287)
(0.0521505 0.228012 0.299603)
(-0.102859 0.228651 0.222235)
(-0.107822 0.0515256 0.0248271)
(-0.0604892 0.0380589 0.0149094)
(-0.000508611 0.030385 0.22952)
(-0.0170669 0.137441 0.325828)
(-0.0937973 0.064207 0.298531)
(-0.163977 -0.0174636 0.0422842)
(-0.0275364 0.0254901 -0.0190909)
(-0.00987203 0.00896331 0.20476)
(0.0399021 -0.0354458 0.180159)
(-0.00986188 -0.00865211 -0.000690814)
(-0.11847 0.00968069 0.290038)
(-0.280214 -0.193005 -0.165062)
(-0.273076 -0.022848 0.312819)
(-0.0699727 0.101283 0.354508)
(-0.0044662 0.0358228 0.193891)
(-0.163234 -0.192614 0.113532)
(-0.0857541 0.0674522 0.24831)
(-0.0585005 0.131347 0.201595)
(-0.0447572 0.0181608 0.0929633)
(-0.0258886 -0.00471863 0.0967711)
(-0.113769 -0.173004 -0.164415)
(-0.127757 -0.0801819 -0.00329245)
(-0.0344356 0.152992 0.265888)
(-0.0205383 0.212785 0.247601)
(-0.037747 0.0282475 0.00468485)
(-0.0291716 0.00426828 -0.0167448)
(-0.0954635 0.0349795 0.234933)
(-0.0665956 0.190164 0.428269)
(-0.0263346 0.195935 0.411526)
(-0.108662 0.0260028 -0.0265415)
(-0.010605 0.00762886 -0.0626393)
(-0.0611673 0.0721362 0.225587)
(0.0972339 0.121938 0.144408)
(-0.00520111 0.000639871 -0.0403634)
(-0.134485 -0.0292598 0.319943)
(0 0 0)
(-0.217474 -0.157977 0.255121)
(-0.117384 -0.0681878 0.390555)
(-0.0602567 -0.0363342 0.230549)
(0 0 0)
(-0.0560595 -0.00684657 0.221929)
(-0.0145532 0.0154009 0.196447)
(-0.0257154 -0.0345638 0.0850721)
(-0.0266853 -0.0437966 0.0650191)
(-0.277513 -0.185628 -0.232687)
(-0.0839541 -0.171575 -0.183272)
(-0.0265799 0.0202217 0.165077)
(0.0766444 0.0432852 0.156094)
(0.0663663 -0.0210771 -0.00842225)
(0.0116089 -0.0261735 -0.0260095)
(-0.118704 -0.0445256 -0.178938)
(-0.0820219 0.158912 0.370241)
(0.0852619 0.145343 0.218179)
(0.106856 -0.00636539 -0.101879)
(0.022676 -0.0253131 -0.0595873)
(-0.0807098 0.11693 0.0413323)
(0.0841836 0.118792 -0.106728)
(0.0991245 0.00385067 -0.223587)
(-0.107846 -0.0285091 0.303592)
(0 0 0)
(0 0 0)
(-0.0344834 -0.101149 0.322584)
(-0.0192095 -0.0815643 0.233528)
(0 0 0)
(-0.0206654 -0.277662 -0.152692)
(-0.153849 -0.0361758 -0.0646674)
(-0.0411433 -0.0494189 0.0487045)
(-0.0234331 -0.0419413 0.0281912)
(0 0 0)
(0 0 0)
(0.0340793 -0.0711237 -0.0853667)
(0.125799 -0.0910484 -0.0998332)
(0.0218229 -0.000280236 -0.0415541)
(0.0144952 -0.00893887 -0.0146322)
(-0.142229 -0.0195332 -0.093212)
(0.0287999 -0.0156104 -0.0976684)
(0.127752 -0.00675155 -0.0950667)
(0.213752 -0.0237059 -0.138476)
(0.0109279 0.00607857 -0.0119035)
(-0.00391012 0.0764288 -0.157307)
(0.0951845 0.0811126 -0.161636)
(0.22044 0.0702303 -0.214782)
(0 0 0)
(0 0 0)
(0 0 0)
(0 0 0)
(0 0 0)
(0 0 0)
(0 0 0)
(5.8956e-14 -1.49732e-14 3.5389e-14)
(-0.0569235 -0.00513761 -0.0730604)
(0.0178198 -0.00978808 -0.0904871)
(-0.00563412 0.00418172 -0.00326445)
(0 0 0)
(0 0 0)
(0.033833 -0.0643704 -0.0999234)
(0.0115332 -0.0437825 -0.105373)
(-0.085947 0.0966922 -0.0608518)
(-0.00519586 0.0382818 -0.0815194)
(-0.00241699 -0.000454966 -0.00129711)
(0 0 0)
(0.0283947 -0.0482315 -0.05589)
(0.0804259 -0.0171627 -0.0637264)
(0 0 0)
(-0.060214 0.117475 -0.0462778)
(0 0 0)
(0 0 0)
(0 0 0)
(0 0 0)
(0 0 0)
(0 0 0)
(0 0 0)
(0 0 0)
(0 0 0)
(0 0 0)
(0 0 0)
(0 0 0)
(0 0 0)
(0 0 0)
(0 0 0)
(0 0 0)
(0 0 0)
(0 0 0)
(0 0 0)
(0 0 0)
(0 0 0)
(0 0 0)
(0 0 0)
(0 0 0)
(0 0 0)
(-0.0931008 0.118583 0.0517925)
(0 0 0)
(0 0 0)
(0 0 0)
(0 0 0)
(0 0 0)
(0 0 0)
(0 0 0)
(0 0 0)
(0 0 0)
(0 0 0)
(0 0 0)
(0 0 0)
(0 0 0)
(0 0 0)
(0 0 0)
(0 0 0)
(0 0 0)
(0 0 0)
(0 0 0)
(0 0 0)
(0 0 0)
(0 0 0)
(0 0 0)
(0 0 0)
(0 0 0)
(0 0 0)
(0 0 0)
(0 0 0)
(0 0 0)
(0 0 0)
(0 0 0)
(0 0 0)
(0 0 0)
(0 0 0)
(0 0 0)
(0 0 0)
(0 0 0)
(0 0 0)
(0 0 0)
(0 0 0)
(0 0 0)
(0 0 0)
(0 0 0)
(0 0 0)
(0 0 0)
(0 0 0)
(0 0 0)
(0 0 0)
(0 0 0)
(0 0 0)
(0 0 0)
(0 0 0)
(0 0 0)
(0 0 0)
(0 0 0)
(0 0 0)
(0 0 0)
(0 0 0)
(0 0 0)
(0 0 0)
(0 0 0)
(0 0 0)
(0 0 0)
(0 0 0)
(0 0 0)
(0 0 0)
(0 0 0)
(0 0 0)
(0 0 0)
(0 0 0)
(0 0 0)
(0 0 0)
(0 0 0)
(0 0 0)
(0 0 0)
(0 0 0)
(0 0 0)
(0 0 0)
(0 0 0)
(0 0 0)
(0 0 0)
(0 0 0)
(0 0 0)
(0 0 0)
(0 0 0)
(0 0 0)
(0 0 0)
(0 0 0)
(0 0 0)
(0 0 0)
(0 0 0)
(0 0 0)
(0 0 0)
(0 0 0)
(0 0 0)
(0 0 0)
(0 0 0)
(0 0 0)
(0 0 0)
(0 0 0)
(0 0 0)
(0 0 0)
(0 0 0)
(0 0 0)
(0 0 0)
(0 0 0)
(0 0 0)
(0 0 0)
(0 0 0)
(0 0 0)
(0 0 0)
(0 0 0)
(0 0 0)
(0 0 0)
(0 0 0)
(0 0 0)
(0 0 0)
(0 0 0)
(0 0 0)
(0 0 0)
(0 0 0)
(0 0 0)
(0 0 0)
(0 0 0)
(0 0 0)
(0 0 0)
(0 0 0)
(0 0 0)
(0 0 0)
(0 0 0)
(0 0 0)
(0 0 0)
(0 0 0)
(0 0 0)
(0 0 0)
(0 0 0)
(0 0 0)
(0 0 0)
(0 0 0)
(0 0 0)
(0 0 0)
(0 0 0)
(0 0 0)
(0 0 0)
(0 0 0)
(0 0 0)
(0 0 0)
(0 0 0)
(0 0 0)
(0 0 0)
(0 0 0)
(0 0 0)
(0 0 0)
(0 0 0)
(0 0 0)
(0 0 0)
(0 0 0)
(0 0 0)
(0 0 0)
(0 0 0)
(0 0 0)
(0 0 0)
(0 0 0)
(0 0 0)
(0 0 0)
(0 0 0)
(0 0 0)
(0 0 0)
(0 0 0)
(0 0 0)
(0 0 0)
(0 0 0)
(0 0 0)
(0 0 0)
(0 0 0)
(0 0 0)
(0 0 0)
(0 0 0)
(0 0 0)
(0 0 0)
(0 0 0)
(0 0 0)
(0 0 0)
(0 0 0)
(0 0 0)
(0 0 0)
(0 0 0)
(0 0 0)
(0 0 0)
(0 0 0)
(0 0 0)
(0 0 0)
(0 0 0)
(0 0 0)
(0 0 0)
(0 0 0)
(0 0 0)
(0 0 0)
(0 0 0)
(0 0 0)
(0 0 0)
(0 0 0)
(0 0 0)
(0 0 0)
(0 0 0)
(0 0 0)
(0 0 0)
(0 0 0)
(0 0 0)
(0 0 0)
(0 0 0)
(0 0 0)
(0 0 0)
(0 0 0)
(0 0 0)
(0 0 0)
(0 0 0)
(0 0 0)
(0 0 0)
(0 0 0)
(0 0 0)
(0 0 0)
(0 0 0)
(0 0 0)
(0 0 0)
(0 0 0)
(0 0 0)
(0 0 0)
(0 0 0)
(0 0 0)
(0 0 0)
(0 0 0)
(0 0 0)
(0 0 0)
(0 0 0)
(0 0 0)
(0 0 0)
(0 0 0)
(0 0 0)
(0 0 0)
(0 0 0)
(0 0 0)
(0 0 0)
(0 0 0)
(0 0 0)
(0 0 0)
(0 0 0)
(0 0 0)
(0 0 0)
(0 0 0)
(0 0 0)
(0 0 0)
(0 0 0)
(0 0 0)
(0 0 0)
(0 0 0)
(0 0 0)
(0 0 0)
(0 0 0)
(0 0 0)
(0 0 0)
(0 0 0)
(0 0 0)
(0 0 0)
(0 0 0)
(0 0 0)
(0 0 0)
(0 0 0)
(0 0 0)
(0 0 0)
(0 0 0)
(0 0 0)
(0 0 0)
(0 0 0)
(0 0 0)
(0 0 0)
(0 0 0)
(0 0 0)
(0 0 0)
(0 0 0)
(0 0 0)
(0 0 0)
(0 0 0)
(0 0 0)
(0 0 0)
(0 0 0)
(0 0 0)
(0 0 0)
(0 0 0)
(0 0 0)
(0 0 0)
(0 0 0)
(0 0 0)
(0 0 0)
(0 0 0)
(0 0 0)
(0 0 0)
(0 0 0)
(0 0 0)
(0 0 0)
(0 0 0)
(0 0 0)
(0 0 0)
(0 0 0)
(0 0 0)
(0 0 0)
(0 0 0)
(0 0 0)
(0 0 0)
(0 0 0)
(0 0 0)
(0 0 0)
(0 0 0)
(0 0 0)
(0 0 0)
(0 0 0)
(0 0 0)
(0 0 0)
(0 0 0)
(0 0 0)
(0 0 0)
(0 0 0)
(0 0 0)
(0 0 0)
(0 0 0)
(0 0 0)
(0 0 0)
(0 0 0)
(0 0 0)
(0 0 0)
(0 0 0)
(0 0 0)
(0 0 0)
(0 0 0)
(0 0 0)
(0 0 0)
(0 0 0)
(0 0 0)
(0 0 0)
(0 0 0)
(0 0 0)
(0 0 0)
(0 0 0)
(0 0 0)
(0 0 0)
(0 0 0)
(0 0 0)
(0 0 0)
(0 0 0)
(0 0 0)
(0 0 0)
(0 0 0)
(0 0 0)
(0 0 0)
(0 0 0)
(0 0 0)
(0 0 0)
(0 0 0)
(0 0 0)
(0 0 0)
(0 0 0)
(0 0 0)
(0 0 0)
(0 0 0)
(0 0 0)
(0 0 0)
(0 0 0)
(0 0 0)
(0 0 0)
(0 0 0)
(0 0 0)
(0 0 0)
(0 0 0)
(0 0 0)
(0 0 0)
(0 0 0)
(0 0 0)
(0 0 0)
(0 0 0)
(0 0 0)
(0 0 0)
(0 0 0)
(0 0 0)
(0 0 0)
(0 0 0)
(0 0 0)
(0 0 0)
(0 0 0)
(0 0 0)
(0 0 0)
(0 0 0)
(0 0 0)
(0 0 0)
(0 0 0)
(0 0 0)
(0 0 0)
(0 0 0)
(0 0 0)
(0 0 0)
(0 0 0)
(0 0 0)
(0 0 0)
(0 0 0)
(0 0 0)
(0 0 0)
(0 0 0)
(0 0 0)
(0 0 0)
(0 0 0)
(0 0 0)
(0 0 0)
(0 0 0)
(0 0 0)
(0 0 0)
(0 0 0)
(0 0 0)
(0 0 0)
(0 0 0)
(0 0 0)
(0 0 0)
(0 0 0)
(0 0 0)
(0 0 0)
(0 0 0)
(0 0 0)
(0 0 0)
(0 0 0)
(0 0 0)
(0 0 0)
(0 0 0)
(0 0 0)
(0 0 0)
(0 0 0)
(0 0 0)
(0 0 0)
(0 0 0)
(0 0 0)
(0 0 0)
(0 0 0)
(0 0 0)
(0 0 0)
(0 0 0)
(0 0 0)
(0 0 0)
(0 0 0)
(0 0 0)
(0 0 0)
(0 0 0)
(0 0 0)
(0 0 0)
(0 0 0)
(0 0 0)
(0 0 0)
(0 0 0)
(0 0 0)
(0 0 0)
(0 0 0)
(0 0 0)
(0 0 0)
(0 0 0)
(0 0 0)
(0 0 0)
(0 0 0)
(0 0 0)
(0 0 0)
(0 0 0)
(0 0 0)
(0 0 0)
(0 0 0)
(0 0 0)
(0 0 0)
(0 0 0)
(0 0 0)
(0 0 0)
(0 0 0)
(0 0 0)
(0 0 0)
(0 0 0)
(0 0 0)
(0 0 0)
(0 0 0)
(0 0 0)
(0 0 0)
(0 0 0)
(0 0 0)
(0 0 0)
(0 0 0)
(0 0 0)
(0 0 0)
(0 0 0)
(0 0 0)
(0 0 0)
(0 0 0)
(0 0 0)
(0 0 0)
(0 0 0)
(0 0 0)
(0 0 0)
(0 0 0)
(0 0 0)
(0 0 0)
(0 0 0)
(0 0 0)
(0 0 0)
(0 0 0)
(0 0 0)
(0 0 0)
(0 0 0)
(0 0 0)
(0 0 0)
(0 0 0)
(0 0 0)
(0 0 0)
(0 0 0)
(0 0 0)
(0 0 0)
(0 0 0)
(0 0 0)
(0 0 0)
(0 0 0)
(0 0 0)
(0 0 0)
(0 0 0)
(0 0 0)
(0 0 0)
(0 0 0)
(0 0 0)
(0 0 0)
(0 0 0)
(0 0 0)
(0 0 0)
(0 0 0)
(0 0 0)
(0 0 0)
(0 0 0)
(0 0 0)
(0 0 0)
(0 0 0)
(0 0 0)
(0 0 0)
(0 0 0)
(0 0 0)
(0 0 0)
(0 0 0)
(0 0 0)
(0 0 0)
(0 0 0)
(0 0 0)
(0 0 0)
(0 0 0)
(0 0 0)
(0 0 0)
(0 0 0)
(0 0 0)
(0 0 0)
(0 0 0)
(0 0 0)
(0 0 0)
(0 0 0)
(0 0 0)
(0 0 0)
(0 0 0)
(0 0 0)
(0 0 0)
(0 0 0)
(0 0 0)
(0 0 0)
(0 0 0)
(0 0 0)
(0 0 0)
(0 0 0)
(0 0 0)
(0 0 0)
(0 0 0)
(0 0 0)
(0 0 0)
(0 0 0)
(0 0 0)
(0 0 0)
(0 0 0)
(0 0 0)
(0 0 0)
(0 0 0)
(0 0 0)
(0 0 0)
(0 0 0)
(0 0 0)
(0 0 0)
(0 0 0)
(0 0 0)
(0 0 0)
(0 0 0)
(0 0 0)
(0 0 0)
(0 0 0)
(0 0 0)
(0 0 0)
(0 0 0)
(0 0 0)
(0 0 0)
(0 0 0)
(0 0 0)
(0 0 0)
(0 0 0)
(0 0 0)
(0 0 0)
(0 0 0)
(0 0 0)
(0 0 0)
(0 0 0)
(0 0 0)
(0 0 0)
(0 0 0)
(0 0 0)
(0 0 0)
(0 0 0)
(0 0 0)
(0 0 0)
(0 0 0)
(0 0 0)
(0 0 0)
(0 0 0)
(0 0 0)
(0 0 0)
(0 0 0)
(0 0 0)
(0 0 0)
(0 0 0)
(0 0 0)
(0 0 0)
(0 0 0)
(0 0 0)
(0 0 0)
(0 0 0)
(0 0 0)
(0 0 0)
(0 0 0)
(0 0 0)
(0 0 0)
(0 0 0)
(0 0 0)
(0 0 0)
(0 0 0)
(0 0 0)
(0 0 0)
(0 0 0)
(0 0 0)
(0 0 0)
(0 0 0)
(0 0 0)
(0 0 0)
(0 0 0)
(0 0 0)
(0 0 0)
(0 0 0)
(0 0 0)
(0 0 0)
(0 0 0)
(0 0 0)
(0 0 0)
(0 0 0)
(0 0 0)
(0 0 0)
(0 0 0)
(0 0 0)
(0 0 0)
(0 0 0)
(0 0 0)
(0 0 0)
(0 0 0)
(0 0 0)
(0 0 0)
(0 0 0)
(0 0 0)
(0 0 0)
(0 0 0)
(0 0 0)
(0 0 0)
(0 0 0)
(0 0 0)
(0 0 0)
(0 0 0)
(0 0 0)
(0 0 0)
(0 0 0)
(0 0 0)
(0 0 0)
(0 0 0)
(0 0 0)
(0 0 0)
(0 0 0)
(0 0 0)
(0 0 0)
(0 0 0)
(0 0 0)
(0 0 0)
(0 0 0)
(0 0 0)
(0 0 0)
(0 0 0)
(0 0 0)
(0 0 0)
(0 0 0)
(0 0 0)
(0 0 0)
(0 0 0)
(0 0 0)
(0 0 0)
(0 0 0)
(0 0 0)
(0 0 0)
(0 0 0)
(0 0 0)
(0 0 0)
(0 0 0)
(0 0 0)
(0 0 0)
(0 0 0)
(0 0 0)
(0 0 0)
(0 0 0)
(0 0 0)
(0 0 0)
(0 0 0)
(0 0 0)
(0 0 0)
(0 0 0)
(0 0 0)
(0 0 0)
(0 0 0)
(0 0 0)
(0 0 0)
(0 0 0)
(0 0 0)
(0 0 0)
(0 0 0)
(0 0 0)
(0 0 0)
(0 0 0)
(0 0 0)
(0 0 0)
(0 0 0)
(0 0 0)
(0 0 0)
(0 0 0)
(0 0 0)
(0 0 0)
(0 0 0)
(0 0 0)
(0 0 0)
(0 0 0)
(0 0 0)
(0 0 0)
(0 0 0)
(0 0 0)
(0 0 0)
(0 0 0)
(0 0 0)
(0 0 0)
(0 0 0)
(0 0 0)
(0 0 0)
(0 0 0)
(0 0 0)
(0 0 0)
(0 0 0)
(0 0 0)
(0 0 0)
(0 0 0)
(0 0 0)
(0 0 0)
(0 0 0)
(0 0 0)
(0 0 0)
(0 0 0)
(0 0 0)
(0 0 0)
(0 0 0)
(0 0 0)
(0 0 0)
(0 0 0)
(0 0 0)
(0 0 0)
(0 0 0)
(0 0 0)
(0 0 0)
(0 0 0)
(0 0 0)
(0 0 0)
(0 0 0)
(0 0 0)
(0 0 0)
(0 0 0)
(0 0 0)
(0 0 0)
(0 0 0)
(0 0 0)
(0 0 0)
(0 0 0)
(0 0 0)
(0 0 0)
(0 0 0)
(0 0 0)
(0 0 0)
(0 0 0)
(0 0 0)
(0 0 0)
(0 0 0)
(0 0 0)
(0 0 0)
(0 0 0)
(0 0 0)
(0 0 0)
(0 0 0)
(0 0 0)
(0 0 0)
(0 0 0)
(0 0 0)
(0 0 0)
(0 0 0)
(0 0 0)
(0 0 0)
(0 0 0)
(0 0 0)
(0 0 0)
(0 0 0)
(0 0 0)
(0 0 0)
(0 0 0)
(0 0 0)
(0 0 0)
(0 0 0)
(0 0 0)
(0 0 0)
(0 0 0)
(0 0 0)
(0 0 0)
(0 0 0)
(0 0 0)
(0 0 0)
(0 0 0)
(0 0 0)
(0 0 0)
(0 0 0)
(0 0 0)
(0 0 0)
(0 0 0)
(0 0 0)
(0 0 0)
(0 0 0)
(0 0 0)
(0 0 0)
(0 0 0)
(0 0 0)
(0 0 0)
(0 0 0)
(0 0 0)
(0 0 0)
(0 0 0)
(0 0 0)
(0 0 0)
(0 0 0)
(0 0 0)
(0 0 0)
(0 0 0)
(0 0 0)
(0 0 0)
(0 0 0)
(0 0 0)
(0 0 0)
(0 0 0)
(0 0 0)
(0 0 0)
(0 0 0)
(0 0 0)
(0 0 0)
(0 0 0)
(0 0 0)
(0 0 0)
(0 0 0)
(0 0 0)
(0 0 0)
(0 0 0)
(0 0 0)
(0 0 0)
(0 0 0)
(0 0 0)
(0 0 0)
(0 0 0)
(0 0 0)
(0 0 0)
(0 0 0)
(0 0 0)
(0 0 0)
(0 0 0)
(0 0 0)
(0 0 0)
(0 0 0)
(0 0 0)
(0 0 0)
(0 0 0)
(0 0 0)
(0 0 0)
(0 0 0)
(0 0 0)
(0 0 0)
(0 0 0)
(0 0 0)
(0 0 0)
(0 0 0)
(0 0 0)
(0 0 0)
(0 0 0)
(0 0 0)
(0 0 0)
(0 0 0)
(0 0 0)
(0 0 0)
(0 0 0)
(0 0 0)
(0 0 0)
(0 0 0)
(0 0 0)
(0 0 0)
(0 0 0)
(0 0 0)
(0 0 0)
(0 0 0)
(0 0 0)
(0 0 0)
(0 0 0)
(0 0 0)
(0 0 0)
(0 0 0)
(0 0 0)
(0 0 0)
(0 0 0)
(0 0 0)
(0 0 0)
(0 0 0)
(0 0 0)
(0 0 0)
(0 0 0)
(0 0 0)
(0 0 0)
(0 0 0)
(0 0 0)
(0 0 0)
(0 0 0)
(0 0 0)
(0 0 0)
(0 0 0)
(0 0 0)
(0 0 0)
(0 0 0)
(0 0 0)
(0 0 0)
(0 0 0)
(0 0 0)
(0 0 0)
(0 0 0)
(0 0 0)
(0 0 0)
(0 0 0)
(0 0 0)
(0 0 0)
(0 0 0)
(0 0 0)
(0 0 0)
(0 0 0)
(0 0 0)
(0 0 0)
(0 0 0)
(0 0 0)
(0 0 0)
(0 0 0)
(0 0 0)
(0 0 0)
(0 0 0)
(0 0 0)
(0 0 0)
(0 0 0)
(0 0 0)
(0 0 0)
(0 0 0)
(0 0 0)
(0 0 0)
(0 0 0)
(0 0 0)
(0 0 0)
(0 0 0)
(0 0 0)
(0 0 0)
(0 0 0)
(0 0 0)
(0 0 0)
(0 0 0)
(0 0 0)
(0 0 0)
(0 0 0)
(0 0 0)
(0 0 0)
(0 0 0)
(0 0 0)
(0 0 0)
(0 0 0)
(0 0 0)
(0 0 0)
(0 0 0)
(0 0 0)
(0 0 0)
(0 0 0)
(0 0 0)
(0 0 0)
(0 0 0)
(0 0 0)
(0 0 0)
(0 0 0)
(0 0 0)
(0 0 0)
(0 0 0)
(0 0 0)
(0 0 0)
(0 0 0)
(0 0 0)
(0 0 0)
(0 0 0)
(0 0 0)
(0 0 0)
(0 0 0)
(0 0 0)
(0 0 0)
(0 0 0)
(0 0 0)
(0 0 0)
(0 0 0)
(0 0 0)
(0 0 0)
(0 0 0)
(0 0 0)
(0 0 0)
(0 0 0)
(0 0 0)
(0 0 0)
(0 0 0)
(0 0 0)
(0 0 0)
(0 0 0)
(0 0 0)
(0 0 0)
(0 0 0)
(0 0 0)
(0 0 0)
(0 0 0)
(0 0 0)
(0 0 0)
(0 0 0)
(0 0 0)
(0 0 0)
(0 0 0)
(0 0 0)
(0 0 0)
(0 0 0)
(0 0 0)
(0 0 0)
(0 0 0)
(0 0 0)
(0 0 0)
(0 0 0)
(0 0 0)
(0 0 0)
(0 0 0)
(0 0 0)
(0 0 0)
(0 0 0)
(0 0 0)
(0 0 0)
(0 0 0)
(0 0 0)
(0 0 0)
(0 0 0)
(0 0 0)
(0 0 0)
(0 0 0)
(0 0 0)
(0 0 0)
(0 0 0)
(0 0 0)
(0 0 0)
(0 0 0)
(0 0 0)
(0 0 0)
(0 0 0)
(0 0 0)
(0 0 0)
(0 0 0)
(0 0 0)
(0 0 0)
(0 0 0)
(0 0 0)
(0 0 0)
(0 0 0)
(0 0 0)
(0 0 0)
(0 0 0)
(0 0 0)
(0 0 0)
(0 0 0)
(0 0 0)
(0 0 0)
(0 0 0)
(0 0 0)
(0 0 0)
(0 0 0)
(0 0 0)
(0 0 0)
(0 0 0)
(0 0 0)
(0 0 0)
(0 0 0)
(0 0 0)
(0 0 0)
(0 0 0)
(0 0 0)
(0 0 0)
(0 0 0)
(0 0 0)
(0 0 0)
(0 0 0)
(0 0 0)
(0 0 0)
(0 0 0)
(0 0 0)
(0 0 0)
(0 0 0)
(0 0 0)
(0 0 0)
(0 0 0)
(0 0 0)
(0 0 0)
(0 0 0)
(0 0 0)
(0 0 0)
(0 0 0)
(0 0 0)
(0 0 0)
(0 0 0)
(0 0 0)
(0 0 0)
(0 0 0)
(0 0 0)
(0 0 0)
(0 0 0)
(0 0 0)
(0 0 0)
(0 0 0)
(0 0 0)
(0 0 0)
(0 0 0)
(0 0 0)
(0 0 0)
(0 0 0)
(0 0 0)
(0 0 0)
(0 0 0)
(0 0 0)
(0 0 0)
(0 0 0)
(0 0 0)
(0 0 0)
(0 0 0)
(0 0 0)
(0 0 0)
(0 0 0)
(0 0 0)
(0 0 0)
(0 0 0)
(0 0 0)
(0 0 0)
(0 0 0)
(0 0 0)
(0 0 0)
(0 0 0)
(0 0 0)
(0 0 0)
(0 0 0)
(0 0 0)
(0 0 0)
(0 0 0)
(0 0 0)
(0 0 0)
(0 0 0)
(0 0 0)
(0 0 0)
(0 0 0)
(0 0 0)
(0 0 0)
(0 0 0)
(0 0 0)
(0 0 0)
(0 0 0)
(0 0 0)
(0 0 0)
(0 0 0)
(0 0 0)
(0 0 0)
(0 0 0)
(0 0 0)
(0 0 0)
(0 0 0)
(0 0 0)
(0 0 0)
(0 0 0)
(0 0 0)
(0 0 0)
(0 0 0)
(0 0 0)
(0 0 0)
(0 0 0)
(0 0 0)
(0 0 0)
(0 0 0)
(0 0 0)
(0 0 0)
(0 0 0)
(0 0 0)
(0 0 0)
(0 0 0)
(0 0 0)
(0 0 0)
(0 0 0)
(0 0 0)
(0 0 0)
(0 0 0)
(0 0 0)
(0 0 0)
(0 0 0)
(0 0 0)
(0 0 0)
(0 0 0)
(0 0 0)
(0 0 0)
(0 0 0)
(0 0 0)
(0 0 0)
(0 0 0)
(0 0 0)
(0 0 0)
(0 0 0)
(0 0 0)
(0 0 0)
(0 0 0)
(0 0 0)
(0 0 0)
(0 0 0)
(0 0 0)
(0 0 0)
(0 0 0)
(0 0 0)
(0 0 0)
(0 0 0)
(0 0 0)
(0 0 0)
(0 0 0)
(0 0 0)
(0 0 0)
(0 0 0)
(0 0 0)
(0 0 0)
(0 0 0)
(0 0 0)
(0 0 0)
(0 0 0)
(0 0 0)
(0 0 0)
(0 0 0)
(0 0 0)
(0 0 0)
(0 0 0)
(0 0 0)
(0 0 0)
(0 0 0)
(0 0 0)
(0 0 0)
(0 0 0)
(0 0 0)
(0 0 0)
(0 0 0)
(0 0 0)
(0 0 0)
(0 0 0)
(0 0 0)
(0 0 0)
(0 0 0)
(0 0 0)
(0 0 0)
(0 0 0)
(0 0 0)
(0 0 0)
(0 0 0)
(0 0 0)
(0 0 0)
(0 0 0)
(0 0 0)
(0 0 0)
(0 0 0)
(0 0 0)
(0 0 0)
(0 0 0)
(0 0 0)
(0 0 0)
(0 0 0)
(0 0 0)
(0 0 0)
(0 0 0)
(0 0 0)
(0 0 0)
(0 0 0)
(0 0 0)
(0 0 0)
(0 0 0)
(0 0 0)
(0 0 0)
(0 0 0)
(0 0 0)
(0 0 0)
(0 0 0)
(0 0 0)
(0 0 0)
(0 0 0)
(0 0 0)
(0 0 0)
(0 0 0)
(0 0 0)
(0 0 0)
(0 0 0)
(0 0 0)
(0 0 0)
(0 0 0)
(0 0 0)
(0 0 0)
(0 0 0)
(0 0 0)
(0 0 0)
(0 0 0)
(0 0 0)
(0 0 0)
(0 0 0)
(0 0 0)
(0 0 0)
(0 0 0)
(0 0 0)
(0 0 0)
(0 0 0)
(0 0 0)
(0 0 0)
(0 0 0)
(0 0 0)
(0 0 0)
(0 0 0)
(0 0 0)
(0 0 0)
(0 0 0)
(0 0 0)
(0 0 0)
(0 0 0)
(0 0 0)
(0 0 0)
(0 0 0)
(0 0 0)
(0 0 0)
(0 0 0)
(0 0 0)
(0 0 0)
(0 0 0)
(0 0 0)
(0 0 0)
(0 0 0)
(0 0 0)
(0 0 0)
(0 0 0)
(0 0 0)
(0 0 0)
(0 0 0)
(0 0 0)
(0 0 0)
(0 0 0)
(0 0 0)
(0 0 0)
(0 0 0)
(0 0 0)
(0 0 0)
(0 0 0)
(0 0 0)
(0 0 0)
(0 0 0)
(0 0 0)
(0 0 0)
(0 0 0)
(0 0 0)
(0 0 0)
(0 0 0)
(0 0 0)
(0 0 0)
(0 0 0)
(0 0 0)
(0 0 0)
(0 0 0)
(0 0 0)
(0 0 0)
(0 0 0)
(0 0 0)
(0 0 0)
(0 0 0)
(0 0 0)
(0 0 0)
(0 0 0)
(0 0 0)
(0 0 0)
(0 0 0)
(0 0 0)
(0 0 0)
(0 0 0)
(0 0 0)
(0 0 0)
(0 0 0)
(0 0 0)
(0 0 0)
(0 0 0)
(0 0 0)
(0 0 0)
(0 0 0)
(0 0 0)
(0 0 0)
(0 0 0)
(0 0 0)
(0 0 0)
(0 0 0)
(0 0 0)
(0 0 0)
(0 0 0)
(0 0 0)
(0 0 0)
(0 0 0)
(0 0 0)
(0 0 0)
(0 0 0)
(0 0 0)
(0 0 0)
(0 0 0)
(0 0 0)
(0 0 0)
(0 0 0)
(0 0 0)
(0 0 0)
(0 0 0)
(0 0 0)
(0 0 0)
(0 0 0)
(0 0 0)
(0 0 0)
(0 0 0)
(0 0 0)
(0 0 0)
(0 0 0)
(0 0 0)
(0 0 0)
(0 0 0)
(0 0 0)
(0 0 0)
(0 0 0)
(0 0 0)
(0 0 0)
(0 0 0)
(0 0 0)
(0 0 0)
(0 0 0)
(0 0 0)
(0 0 0)
(0 0 0)
(0 0 0)
(0 0 0)
(0 0 0)
(0 0 0)
(0 0 0)
(0 0 0)
(0 0 0)
(0 0 0)
(0 0 0)
(0 0 0)
(0 0 0)
(0 0 0)
(0 0 0)
(0 0 0)
(0 0 0)
(0 0 0)
(0 0 0)
(0 0 0)
(0 0 0)
(0 0 0)
(0 0 0)
(0 0 0)
(0 0 0)
(0 0 0)
(0 0 0)
(0 0 0)
(0 0 0)
(0 0 0)
(0 0 0)
(0 0 0)
(0 0 0)
(0 0 0)
(0 0 0)
(0 0 0)
(0 0 0)
(0 0 0)
(0 0 0)
(0 0 0)
(0 0 0)
(0 0 0)
(0 0 0)
(0 0 0)
(0 0 0)
(0 0 0)
(0 0 0)
(0 0 0)
(0 0 0)
(0 0 0)
(0 0 0)
(0 0 0)
(0 0 0)
(0 0 0)
(0 0 0)
(0 0 0)
(0 0 0)
(0 0 0)
(0 0 0)
(0 0 0)
(0 0 0)
(0 0 0)
(0 0 0)
(0 0 0)
(0 0 0)
(0 0 0)
(0 0 0)
(0 0 0)
(0 0 0)
(0 0 0)
(0 0 0)
(0 0 0)
(0 0 0)
(0 0 0)
(0 0 0)
(0 0 0)
(0 0 0)
(0 0 0)
(0 0 0)
(0 0 0)
(0 0 0)
(0 0 0)
(0 0 0)
(0 0 0)
(0 0 0)
(0 0 0)
(0 0 0)
(0 0 0)
(0 0 0)
(0 0 0)
(0 0 0)
(0 0 0)
(0 0 0)
(0 0 0)
(0 0 0)
(0 0 0)
(0 0 0)
(0 0 0)
(0 0 0)
(0 0 0)
(0 0 0)
(0 0 0)
(0 0 0)
(0 0 0)
(0 0 0)
(0 0 0)
(0 0 0)
(0 0 0)
(0 0 0)
(0 0 0)
(0 0 0)
(0 0 0)
(0 0 0)
(0 0 0)
(0 0 0)
(0 0 0)
(0 0 0)
(0 0 0)
(0 0 0)
(0 0 0)
(0 0 0)
(0 0 0)
(0 0 0)
(0 0 0)
(0 0 0)
(0 0 0)
(0 0 0)
(0 0 0)
(0 0 0)
(0 0 0)
(0 0 0)
(0 0 0)
(0 0 0)
(0 0 0)
(0 0 0)
(0 0 0)
(0 0 0)
(0 0 0)
(0 0 0)
(0 0 0)
(0 0 0)
(0 0 0)
(0 0 0)
(0 0 0)
(0 0 0)
(0 0 0)
(0 0 0)
(0 0 0)
(0 0 0)
(0 0 0)
(0 0 0)
(0 0 0)
(0 0 0)
(0 0 0)
(0 0 0)
(0 0 0)
(0 0 0)
(0 0 0)
(0 0 0)
(0 0 0)
(0 0 0)
(0 0 0)
(0 0 0)
(0 0 0)
(0 0 0)
(0 0 0)
(0 0 0)
(0 0 0)
(0 0 0)
(0 0 0)
(0 0 0)
(0 0 0)
(0.00576234 0.00235278 -0.00404756)
(0.00362269 0.00474483 -0.00391342)
(0.0195044 0.0134056 -0.00953858)
(0.0242907 0.0127707 -0.00601235)
(0.00865723 0.0036318 -0.00526669)
(0.0248824 0.0137233 -0.00601849)
(0.0155558 0.0179605 -0.00433064)
(-0.00722145 -0.00137519 -0.00282071)
(-0.00264087 0.00670356 -0.0107964)
(0.00301851 0.00111053 -0.00597459)
(0.0113819 0.00737867 -0.0109007)
(-0.00253771 0.00431583 -0.0184466)
(0.045113 0.0376789 -0.0301904)
(0.0394403 0.0317566 -0.0120366)
(0.0630317 0.043149 -0.00945561)
(0.0799228 0.0566935 -0.0157375)
(0.0990594 0.0784005 -0.0076623)
(0.0379783 0.0423393 -0.0118997)
(0.00648897 0.0420107 -0.00690282)
(0.0733774 0.0675346 -0.00415139)
(-0.0255883 0.0457094 -0.00553775)
(-0.0228996 0.005278 -0.00633957)
(-0.0235268 -0.00793063 -0.00658863)
(-0.0590981 0.0191808 -0.00545696)
(-0.0428724 -0.0150055 -0.00395482)
(-0.022228 -0.0120306 -0.00464773)
(0.0103076 0.0226226 -0.0209776)
(0.00739106 0.0411744 -0.0267929)
(0.00335947 0.0711324 -0.0318435)
(0.0249717 0.0495317 -0.0305668)
(0.073324 0.0736735 -0.0317728)
(0.0417263 0.117916 -0.0353567)
(0.0883949 0.137321 -0.0375181)
(0.118328 0.100005 -0.0126284)
(0.103642 0.103558 -0.00326553)
(0.121658 0.140137 -0.0089111)
(0.041314 0.0925039 0.00699882)
(0.0347837 0.0570161 0.00405688)
(-0.0478139 0.0430605 0.00236689)
(-0.0422408 0.0901631 0.00495295)
(-0.102954 0.103578 -0.00208119)
(-0.0977162 0.0170907 -0.00340393)
(-0.0693267 -0.0240494 -0.0102812)
(-0.113959 0.0372988 -0.0148846)
(-0.0679181 -0.00383972 -0.0120146)
(-0.0283977 -0.0303739 -0.00793488)
(-0.0215371 -0.0153182 -0.00900756)
(-0.0105917 -0.00571219 -0.00368215)
(0.0132227 0.0395657 -0.0255483)
(0.0151717 0.103869 -0.0323211)
(0.0301681 0.0935673 -0.0214412)
(0.0505073 0.164157 -0.0354995)
(0.100153 0.17249 -0.0319008)
(0.065933 0.136667 -0.0415856)
(0.0827622 0.192255 -0.043464)
(0.0517048 0.124129 -0.00316177)
(-0.0273794 0.0925649 0.0120512)
(-0.00125393 0.108857 -3.424e-05)
(-0.0500778 0.0942909 0.0157804)
(-0.103908 0.150987 0.0129089)
(-0.155015 0.147854 -0.00321875)
(-0.123102 0.161292 0.0249274)
(-0.211865 0.106625 0.0100381)
(-0.15583 0.0531259 -0.0252016)
(-0.0820964 0.0168985 -0.0151695)
(-0.203327 0.0455599 -0.0216489)
(-0.117437 0.0264308 -0.0177713)
(-0.0194891 0.0177454 -0.0145269)
(-0.00769377 0.00894528 -0.0102689)
(-0.0493241 0.0180504 -0.0137557)
(0.0251374 0.0285218 -0.0116133)
(0.0586071 0.0395367 -0.0160706)
(0.063764 0.141977 -0.0271598)
(0.019274 0.00138177 -0.011287)
(0.0270303 -0.00503404 -0.015082)
(-0.019213 0.0984686 -0.00733773)
(-0.122383 0.0934376 0.00974807)
(-0.0446347 0.0258273 -0.0197741)
(-0.114577 0.0872863 -0.0138578)
(-0.188929 0.100728 0.0284373)
(-0.250534 0.0266396 0.00668616)
(-0.167398 0.0463015 0.0152778)
(-0.16443 -0.00961756 0.00250734)
(-0.206046 0.0252313 -0.0190873)
(-0.0938806 0.0226194 -0.019518)
(-0.110946 0.0167564 -0.016032)
(-0.0520741 0.0101449 -0.0182526)
(-0.0313558 0.0105819 -0.0199572)
(0.00429427 -0.0115538 -0.00726736)
(0.00212673 -0.00773474 -0.0199843)
(-0.0356913 0.061294 -0.0266827)
(-0.0118413 0.0200486 -0.00599765)
(-0.0942984 0.0232946 -0.0158147)
(-0.0894375 -0.0110195 -0.0193582)
(-0.0168616 0.0108206 -0.00732615)
(-0.0586509 0.0055314 -0.0150901)
(-0.00504037 0.0136878 0.0718807)
(-0.0303667 0.033195 0.14887)
(0.00455029 0.00583519 -0.0283933)
(-0.0187103 0.00948649 0.0385972)
(-0.00280815 0.0155543 -0.00240209)
(-0.0160104 0.00228214 0.0625284)
(-0.0434268 0.0210646 0.109497)
(-0.0227455 0.0276715 0.0555232)
(0.0104994 0.00832613 -0.0476668)
(0.0333287 0.0249441 -0.0560752)
(0.0156315 -0.000247283 0.0340268)
(0.038813 0.0247891 0.0137371)
(0.0636726 0.0319729 -0.00172128)
(0.0574153 0.0365269 -0.0837503)
(0.0905404 0.0504503 -0.0294383)
(0.0166051 -0.0163486 0.0627841)
(0.00195568 -0.0334154 0.0846036)
(-0.00663582 0.0141782 0.12027)
(0.0184882 -0.0041018 0.105547)
(0.0128077 0.0323358 0.118395)
(-0.020572 0.0124291 0.11251)
(-0.0464743 0.0335101 0.182554)
(-0.0198504 -0.0202314 0.134315)
(-0.0256376 0.0244467 0.179012)
(0.00264905 0.00349671 -0.0855733)
(-0.0583397 0.0376966 -0.0436609)
(-0.070408 -0.0195806 -0.0595014)
(0.0850217 0.0816023 -0.043463)
(0.045488 0.0427173 -0.0501538)
(0.0210642 0.103605 -0.0265605)
(-0.0280905 0.027433 -0.0224567)
(-0.0366912 -0.0419973 -0.042787)
(-0.030309 -0.00566788 0.00255291)
(0.0266444 -0.0283716 0.093137)
(0.0152267 -0.00909033 0.0926313)
(0.0220687 -0.015009 0.118919)
(0.014608 -0.0815464 0.115042)
(0.0158493 -0.0798776 0.0747109)
(0.0316499 -0.0921547 0.141016)
(-0.0308895 -0.00369286 -0.0418294)
(-0.0324496 0.00961821 -0.0221722)
(-0.0320546 -0.00435858 0.00907674)
(-0.0198713 0.0268886 -0.000556041)
(-0.0103522 0.0115636 0.0164816)
(0.0106195 0.0750962 0.120877)
(0.0259514 0.093142 0.13725)
(0.00664697 -0.0473667 0.0904477)
(0.0197167 0.0259183 0.165358)
(0.0238736 0.057929 0.214857)
(-0.0183957 0.0161012 0.0181427)
(-0.0547582 0.0601467 -0.0359782)
(-0.0484943 0.0512296 0.00390729)
(-0.0222715 0.019369 0.0560267)
(-0.037693 0.0514903 -0.00274939)
(0.0267329 0.0398924 0.115197)
(0.0196661 0.0219479 0.154805)
(0.0753431 0.10415 0.109618)
(0.0193057 0.015004 0.104023)
(0.0270994 0.0283853 0.112863)
(0.033493 0.0469206 0.197022)
(0.0707822 0.0913334 0.205394)
(0.00990514 0.00130618 0.149099)
(0.0154913 0.0159514 0.18461)
(-0.0906592 0.02932 -0.00373137)
(-0.1025 -0.0175919 0.0459604)
(-0.0556473 0.0170048 0.00920224)
(-0.15556 -0.0220009 0.0453317)
(-0.072194 0.00675217 -0.0139662)
(-0.079737 -0.0346692 0.0337163)
(-0.0357781 0.00419114 -0.00201715)
(-0.0284887 0.0353524 -0.00489349)
(0.00998534 0.0104322 0.0935322)
(-0.00268882 -0.00455543 0.144104)
(-0.0200391 0.0362435 0.105587)
(0.0247448 0.00789772 0.0908988)
(0.00106273 0.0173906 0.165677)
(0.0206265 0.0046746 0.19425)
(0.0621591 -0.0140475 0.170993)
(-0.0333981 -0.0589565 0.0393193)
(0.026775 -0.0234653 0.0818277)
(0.0325486 -0.0659105 0.157364)
(0.0176599 -0.0610288 0.0554799)
(0.0718414 -0.0334589 0.137976)
(-0.00214173 -0.0120689 0.0110852)
(-0.105126 0.0687382 0.200667)
(-0.193737 0.0857419 0.224143)
(-0.019256 0.0240194 0.184136)
(-0.132253 0.0522941 0.246865)
(-0.0808333 0.0627118 0.182852)
(-0.0381214 0.0576623 0.34224)
(-0.201102 0.065269 0.310733)
(-0.163358 0.105748 0.348268)
(0.0338057 0.0461936 0.107064)
(0.0710571 0.0455161 0.0787426)
(-0.0252337 0.0308863 0.241295)
(0.00644466 0.0645206 0.219597)
(0.0533108 0.0533068 0.17043)
(0.09382 0.060361 0.0457002)
(0.0504028 0.045028 0.133442)
(-0.048382 -0.0921546 0.165931)
(-0.205969 -0.245719 0.0461456)
(-0.12696 0.0504811 0.240406)
(-0.108409 -0.0810438 0.193446)
(-0.114664 -0.0410909 0.246537)
(-0.254492 -0.0337803 0.244379)
(-0.27706 0.0322497 0.285698)
(-0.245152 -0.217671 0.130209)
(-0.212596 -0.123845 0.255111)
(0.0371064 0.0467317 0.0237004)
(0.0382486 0.136005 0.0424163)
(-0.0197028 0.0590123 0.0444765)
(0.0441707 0.0787371 0.121581)
(0.0154382 0.0345578 0.103606)
(0.0115959 0.0988666 0.124235)
(-0.0122561 0.0402578 0.108864)
(-0.016657 0.025903 0.0610994)
(-0.00408568 0.0226516 0.104462)
(-0.0435691 -0.188574 0.157628)
(0.0018316 -0.120878 0.0485653)
(-0.0344831 -0.164347 0.12055)
(-0.177558 -0.259758 0.0899217)
(-0.0932296 -0.208525 0.0702452)
(-0.141647 -0.200911 0.0726631)
(-0.0209046 0.026727 0.0368424)
(-0.00295863 0.0122327 0.0456689)
(-0.0111839 0.0180985 0.0924162)
(-0.00276083 0.0141588 0.0438112)
(1.36347e-05 0.00769234 0.0477386)
(-0.0327783 -0.0490844 0.119134)
(-0.00149606 0.0291572 0.199409)
(-0.0926409 -0.116939 0.0138341)
(-0.136104 -0.0911844 0.0199035)
(-0.0529642 0.0109441 0.154335)
(-0.0150099 0.0153811 0.0613475)
(-0.0440854 0.0383988 -0.00597264)
(-0.0274939 0.0199656 -1.03688e-05)
(-0.00709946 0.00988658 0.0421277)
(-0.0142638 0.0208404 -0.0252483)
(-3.86115e-05 0.0121763 0.168446)
(-0.0220477 0.00234715 0.190307)
(0.0380214 0.0812301 0.295696)
(-0.0122694 -0.014262 0.16216)
(-0.0169385 0.00410223 0.226759)
(-0.0398037 0.0278497 0.255901)
(-0.00703511 0.0898928 0.33332)
(-0.0657036 -0.0323729 0.18406)
(-0.0596233 0.0175565 0.247629)
(-0.077141 0.00168428 -0.0373099)
(-0.0790079 -0.0283839 0.00546378)
(-0.0370192 0.00551002 -0.0405376)
(-0.130595 0.0152208 0.0250111)
(-0.0647587 0.01019 -0.0693369)
(-0.0634046 -0.00388432 -0.021412)
(-0.0342493 0.00730516 -0.0751794)
(-0.0207451 0.0196902 -0.0425939)
(-0.0253282 -0.0130724 0.164385)
(-0.0444397 -0.013494 0.164843)
(0.030503 0.0094725 0.242681)
(0.060467 -0.00585186 0.178556)
(-0.0216034 0.0205776 0.212456)
(0.0320032 0.0480161 0.257546)
(0.06409 0.0101747 0.162259)
(0.008272 -0.0405261 0.0535751)
(0.0598251 -0.01714 0.117263)
(0.0625395 0.0279329 0.192739)
(0.0161174 -0.0101488 0.0488889)
(0.0741227 0.00648744 0.123011)
(-0.0105178 -0.000326318 -0.016412)
(-0.292983 0.0358063 0.296267)
(-0.374222 -0.0315584 0.359634)
(-0.150406 0.0358718 0.350557)
(-0.251765 0.0451371 0.334166)
(-0.218885 0.0699648 0.383449)
(-0.180306 0.0136963 0.340153)
(-0.282004 -0.0165728 0.354502)
(-0.213667 -0.0102492 0.382143)
(-0.0971789 0.0415716 0.328535)
(-0.0307198 0.0237776 0.264535)
(-0.155222 -0.010005 0.298529)
(-0.164808 -0.0252396 0.368428)
(-0.0986225 -0.0139872 0.306222)
(-0.0123478 0.0164683 0.208099)
(-0.0523539 -0.0123822 0.23576)
(-0.256246 -0.40289 0.022024)
(0 0 0)
(-0.365367 -0.101727 0.225903)
(-0.257392 -0.226096 0.0737873)
(-0.283603 -0.114419 0.20187)
(0 0 0)
(-0.34473 -0.187157 0.190655)
(0 0 0)
(-0.252807 -0.118493 0.15297)
(-0.00240529 0.0134323 0.153218)
(-0.0176199 0.0453761 0.18351)
(-0.019621 0.0157531 0.138697)
(-0.041454 -0.00581026 0.228023)
(-0.02311 -0.0156229 0.163796)
(-0.0407917 -0.00381879 0.212468)
(-0.0345824 -0.0168073 0.143953)
(-0.00930132 0.00301201 0.116529)
(-0.0172951 -0.0256128 0.106539)
(-0.196084 -0.234659 0.0468455)
(-0.267158 -0.312539 -0.122898)
(-0.191136 -0.20292 0.0012767)
(0 0 0)
(0 0 0)
(-0.198226 -0.294899 -0.290202)
(-0.0186942 -0.00545172 0.0391821)
(-0.00432438 -0.00312709 0.0347508)
(-0.0178607 -0.0273393 0.0813029)
(-0.00615941 -0.0254116 0.0274338)
(-0.00181156 -0.0153671 0.0179455)
(-0.16955 -0.13747 -0.0946494)
(-0.118758 -0.116434 -0.247652)
(-0.277513 -0.185628 -0.232687)
(-0.158401 -0.18537 -0.219643)
(-0.0794406 -0.140678 -0.193787)
(-0.00564942 0.00601115 0.0202169)
(-0.0167255 0.00641871 -0.0430175)
(-0.00243669 -0.0156386 -0.0267454)
(-9.02084e-05 -0.00826341 0.00430228)
(0.00199543 -0.0110019 -0.0533729)
(0.0402474 -0.129166 -0.243474)
(0.000696529 -0.115776 -0.171383)
(-0.0544047 0.1009 0.338041)
(-0.17421 -0.0104229 0.126911)
(-0.117456 0.0455176 0.241377)
(-0.114249 -0.0552839 -0.1626)
(-0.121591 0.125001 0.308008)
(-0.06825 -0.0544783 -0.289655)
(-0.165456 0.0469996 0.125327)
(-0.0384985 -0.000249774 -0.100701)
(-0.0520017 0.0209162 -0.0584297)
(-0.0217896 0.00770932 -0.101671)
(-0.010532 0.021598 -0.0917097)
(0.00481633 -0.00745151 -0.124201)
(0.0247944 0.0384256 -0.124314)
(0.00188605 0.00312358 -0.130428)
(0.00677959 -0.00758977 -0.0762783)
(-0.112572 0.0209641 0.149719)
(-0.0879672 0.0810148 -0.0899037)
(0.0147351 0.111521 0.258323)
(0.0757771 0.065118 0.157422)
(-0.11376 0.168351 0.199614)
(-0.0174916 0.201821 0.206292)
(0.0442606 0.0194867 -0.266632)
(0.0209377 0.0416051 -0.0442538)
(0.126807 0.0923567 0.0285151)
(0.071353 0.150286 0.00672277)
(0.0371612 0.0648907 -0.129989)
(0.03364 0.0406634 -0.228555)
(0.0413492 0.0124608 -0.220468)
(0 0 0)
(0 0 0)
(-0.181303 -0.0241839 0.355007)
(-0.278902 -0.0934022 0.385874)
(-0.203389 -0.0803862 0.387842)
(-0.180088 -0.0732575 0.410219)
(0 0 0)
(-0.169072 -0.144191 0.368639)