/*--------------------------------*- C++ -*----------------------------------*\
| =========                 |                                                 |
| \\      /  F ield         | OpenFOAM: The Open Source CFD Toolbox           |
|  \\    /   O peration     | Version:  5.x                                   |
|   \\  /    A nd           | Web:      www.OpenFOAM.org                      |
|    \\/     M anipulation  |                                                 |
\*---------------------------------------------------------------------------*/
FoamFile
{
    version     2.0;
    format      ascii;
    class       surfaceScalarField;
    location    "3.7";
    object      phi;
}
// * * * * * * * * * * * * * * * * * * * * * * * * * * * * * * * * * * * * * //

dimensions      [0 3 -1 0 0 0 0];

internalField   nonuniform List<scalar> 
29271
(
-9.5357e-06
-3.37242e-06
8.73964e-06
4.19898e-06
-1.0288e-05
1.11365e-06
1.96336e-06
7.54476e-06
-3.3222e-05
-5.93219e-06
-6.47891e-06
7.30151e-06
1.68778e-05
2.14538e-05
-6.86352e-05
-4.59626e-05
-9.92315e-06
2.71197e-06
5.02713e-05
7.15378e-05
-2.21508e-05
-3.99618e-06
-1.03394e-06
1.21413e-05
1.00943e-05
4.94539e-06
-3.1528e-05
-4.80335e-06
-5.4792e-06
7.0888e-06
1.01429e-05
2.45789e-05
-6.21041e-05
-3.07303e-05
-1.18413e-05
2.99177e-05
3.22315e-05
4.25265e-05
-6.69737e-05
-4.67605e-05
-2.9718e-05
6.51967e-06
5.42906e-05
8.26419e-05
-6.26948e-05
-1.85587e-05
1.31357e-05
-1.49193e-05
3.26382e-05
5.0399e-05
-3.13171e-05
-4.18773e-06
1.56119e-05
1.37919e-05
6.13777e-06
-9.8403e-06
-1.58235e-06
5.74743e-06
5.80369e-06
-6.83591e-05
-1.73472e-05
-5.11044e-06
1.16805e-05
-2.67913e-07
7.94042e-05
-7.09827e-05
-2.24837e-05
-9.96168e-06
2.33954e-05
9.94724e-06
7.00854e-05
-6.94972e-05
-4.95922e-05
-1.9361e-05
3.03901e-06
3.25755e-05
0.000102836
-7.08578e-05
-5.03057e-05
5.25865e-06
-1.7912e-05
3.57959e-05
9.80209e-05
-2.58096e-05
-1.05657e-05
-4.53828e-06
1.40888e-05
1.5368e-05
1.14568e-05
-6.78024e-05
-1.24139e-05
1.47205e-05
-1.48545e-06
7.98513e-05
-1.287e-05
-7.04687e-05
-1.35139e-05
-1.03899e-05
1.32412e-05
6.2332e-06
7.48982e-05
-4.71131e-05
-1.21368e-05
-1.33644e-05
8.68188e-07
-4.08269e-06
7.58288e-05
-7.13402e-05
5.00287e-06
3.21023e-06
9.42051e-05
-2.23085e-05
-8.76947e-06
-2.00603e-05
-6.25529e-06
3.17386e-06
2.30535e-05
-2.91952e-05
-3.93553e-06
4.92261e-06
2.65121e-05
1.56577e-06
-6.41536e-05
-4.31935e-06
1.38666e-06
-8.48921e-06
7.12381e-05
4.33736e-06
-1.89201e-05
1.31845e-05
-6.7617e-06
1.21077e-05
-2.7286e-06
4.04742e-07
1.50087e-06
9.30004e-07
-4.19166e-06
-6.75257e-07
5.05829e-06
8.35933e-08
-5.37361e-06
-1.69691e-06
-2.23833e-05
-2.88646e-07
5.32765e-06
2.44148e-05
-9.56838e-06
-6.08372e-05
4.81947e-06
-1.88811e-06
6.35098e-06
6.11232e-05
-8.60721e-06
-2.21815e-06
-6.70456e-07
2.58959e-06
8.48702e-06
4.19215e-07
-4.03595e-06
1.91101e-06
-3.15994e-05
-6.69742e-06
-6.68773e-06
4.71095e-05
-1.16539e-05
1.05023e-05
0.000174708
-3.02144e-05
-4.37669e-05
-4.41276e-05
-6.12731e-05
-2.11351e-06
-3.59163e-06
1.00939e-06
-1.11692e-06
3.55246e-06
1.05952e-06
4.45101e-06
2.57512e-06
1.69285e-05
7.64721e-05
0.000249124
-6.96883e-05
-0.000104049
-7.87971e-05
-9.39323e-05
-7.42043e-06
-5.72801e-06
1.09177e-06
4.34536e-06
-6.44435e-07
4.81478e-05
0.000147543
-7.49034e-06
-2.99217e-06
-2.23924e-06
-2.26456e-06
-1.40034e-06
-1.40603e-07
-1.14865e-06
-4.86725e-05
-1.73654e-05
-5.64731e-05
-3.79313e-05
-1.01429e-05
-4.60886e-07
2.50313e-07
9.78069e-06
-3.04448e-06
5.03931e-07
1.67524e-07
2.55092e-06
-2.41136e-06
-8.91386e-05
7.41732e-07
2.23228e-06
2.08752e-06
8.64884e-05
1.28952e-05
2.16986e-05
0.000209905
-5.27641e-05
-8.17983e-05
-3.74447e-05
-7.87067e-05
2.59282e-06
4.67697e-07
5.80825e-06
7.84818e-06
7.69214e-05
9.2341e-05
0.000291957
-0.000107583
-7.8608e-05
-0.000118592
-6.70697e-05
3.08435e-06
1.14187e-05
0.000404782
2.30803e-07
4.0693e-06
3.56238e-06
5.74291e-06
1.266e-05
7.58331e-06
-9.65909e-05
-5.10726e-05
-9.76459e-05
-8.2755e-05
-1.02678e-05
-6.53922e-06
-6.05657e-06
1.27808e-05
1.31671e-05
-7.31888e-05
5.27101e-06
-3.12197e-06
4.79894e-06
6.54094e-05
8.31491e-07
2.55437e-05
4.93701e-06
0.00023995
-4.87841e-06
-1.5885e-06
-3.35148e-07
1.62037e-06
2.50123e-06
1.22401e-05
6.30589e-06
-6.14716e-05
-6.24397e-05
-7.24708e-05
-6.82158e-05
2.20549e-05
8.47004e-07
0.0003214
1.92876e-05
2.295e-05
1.84231e-05
2.81767e-06
5.27296e-06
5.21152e-06
-0.000108471
-5.80092e-05
-8.24752e-05
-5.14247e-05
-0.000114318
3.08729e-05
2.4243e-06
0.000114494
-3.85173e-05
5.82689e-07
-1.52865e-05
5.32209e-05
-4.49665e-05
1.96262e-06
-8.09025e-06
5.55923e-05
-6.80616e-05
-1.60479e-06
3.31352e-06
-1.09031e-06
6.82902e-05
-6.23085e-06
5.65132e-06
-4.98736e-06
5.2936e-06
2.8509e-07
1.40322e-07
4.87832e-07
-8.66614e-07
2.56797e-06
-1.10383e-06
1.8466e-06
-3.30428e-06
-1.90799e-06
5.95518e-07
-2.74934e-05
-3.84192e-06
7.25455e-06
2.53932e-05
-2.43437e-06
-5.47119e-05
8.89752e-06
-1.78411e-06
1.00058e-05
4.00271e-05
-8.29314e-06
-1.73402e-06
1.18444e-06
1.10448e-05
1.77737e-06
-3.97943e-06
-2.43433e-06
6.48365e-06
-5.381e-05
-4.00804e-06
9.61387e-07
5.28073e-05
-9.94624e-06
1.45085e-05
0.000206241
-6.97537e-06
-7.42273e-06
-1.05376e-05
-9.90553e-06
1.01351e-06
2.78926e-07
-3.09097e-06
5.44386e-07
1.08962e-06
2.13054e-05
0.000228522
-2.99719e-06
-1.80134e-06
-4.24853e-06
-2.69301e-06
-2.83684e-06
1.77659e-05
0.00016952
-9.03375e-06
-2.77353e-06
-1.14298e-05
-4.4798e-06
-3.27677e-06
-2.22188e-06
-2.60029e-06
-9.90807e-06
-1.30448e-06
1.07385e-07
8.28727e-06
-4.48117e-06
1.20084e-07
-1.97358e-06
6.32358e-06
9.47938e-07
-8.12441e-05
1.21688e-07
-4.33244e-07
1.70563e-06
7.89021e-05
-1.33775e-07
1.08431e-05
0.000209559
6.09255e-07
1.66081e-06
1.76556e-06
1.09311e-07
4.35296e-05
3.42493e-05
0.00023535
2.72015e-06
6.2959e-06
0.000437427
1.65809e-06
4.37773e-06
1.02979e-06
1.91306e-06
9.07495e-06
1.58026e-06
-1.93982e-05
-2.206e-06
-1.882e-06
-3.84051e-07
2.65904e-05
-6.26341e-05
4.13725e-06
8.91004e-07
-1.78809e-06
5.72807e-05
2.11318e-06
4.95518e-06
5.27397e-06
0.000255088
-3.52238e-06
-4.11094e-06
-7.04436e-06
-6.18281e-06
3.66712e-06
1.08423e-06
1.58491e-06
1.19028e-05
4.63527e-06
0.000298815
9.39241e-06
1.36556e-05
7.38779e-06
4.14885e-06
6.15534e-06
4.51151e-06
-0.000117314
1.89876e-05
5.1506e-06
0.000111375
-6.65619e-05
1.17278e-05
-1.99986e-05
7.48309e-05
-6.87065e-05
-3.33798e-06
3.37787e-06
7.39228e-05
-7.12388e-05
6.43146e-06
-2.92867e-06
2.33285e-06
7.00385e-05
-6.2027e-06
-1.8686e-06
-1.10544e-06
8.4745e-06
1.32577e-06
-5.64588e-08
3.41481e-07
-1.61346e-06
3.10353e-06
-4.54435e-07
-5.13403e-07
-2.14091e-06
3.96862e-08
1.63331e-06
-1.91954e-05
-9.38418e-07
5.69306e-06
1.27678e-05
-9.03844e-07
-2.275e-05
3.47945e-06
-1.07513e-07
1.19379e-05
8.34407e-06
3.18676e-06
-7.03001e-07
7.82585e-07
5.79863e-06
-5.97157e-06
-3.09341e-06
1.14317e-06
8.1265e-07
-4.92305e-05
2.21476e-06
-2.01191e-06
4.70718e-05
-1.01397e-07
1.47925e-05
0.00023061
-7.48437e-06
-1.02463e-05
-6.33521e-06
-7.32882e-06
-2.59551e-06
-3.00175e-06
-9.06037e-07
-1.16141e-06
-8.03116e-07
2.70838e-05
0.000240021
-1.12026e-05
-8.72399e-06
-9.66506e-06
-8.28902e-06
1.62502e-07
1.79455e-05
0.000164496
-1.08946e-05
-1.56458e-06
-5.22827e-06
5.56952e-07
-5.26334e-07
2.94962e-06
8.20132e-07
-7.11709e-06
-2.8401e-07
-1.48436e-06
9.03972e-06
-6.69405e-06
2.73794e-07
5.45867e-07
5.87391e-06
2.6817e-06
-7.60076e-05
6.43875e-07
7.37814e-07
2.48824e-06
6.94559e-05
2.46135e-05
4.95567e-06
0.000207107
-5.37635e-06
-3.37539e-06
-2.46698e-06
-1.10596e-06
2.37513e-05
2.13483e-05
0.000241948
3.54229e-06
7.55693e-06
0.000443081
7.94145e-07
5.35579e-06
2.45546e-06
1.64275e-06
1.15522e-05
3.14399e-06
-3.60205e-05
1.16067e-06
-1.57134e-09
-7.9615e-06
4.63652e-05
-5.09297e-05
-6.87329e-07
6.4083e-06
-3.06477e-07
4.5278e-05
2.37177e-07
2.35655e-05
-3.88869e-07
0.000250136
-7.04101e-06
-3.74129e-06
-4.38672e-06
-1.70318e-06
1.41919e-06
-2.68742e-07
2.45313e-06
7.28411e-06
4.93073e-06
0.00030478
5.83726e-06
9.05316e-06
3.72549e-06
3.16115e-06
2.76117e-06
2.1962e-06
-0.000114808
1.04487e-05
6.19129e-06
0.000113009
-8.09966e-05
1.50803e-05
-1.75871e-05
8.35033e-05
-7.29828e-05
-7.42867e-07
5.05051e-06
6.82879e-05
-6.99591e-05
2.04596e-06
-2.33594e-07
4.02892e-06
6.90486e-05
-1.19461e-05
-9.49798e-07
-5.66703e-07
1.34662e-05
1.74443e-06
-1.41712e-07
1.17449e-07
-1.72823e-06
8.83972e-07
2.01386e-06
-2.80029e-06
-1.04187e-07
5.43309e-07
-3.72131e-07
-8.73642e-06
9.58458e-07
8.74475e-07
6.73231e-06
-4.99611e-07
-8.52686e-07
-1.79035e-06
2.51552e-07
3.96486e-06
-1.07377e-06
6.70409e-06
-5.78716e-07
5.07722e-08
5.83565e-07
-6.19486e-06
-5.64846e-07
3.51268e-06
-5.43965e-07
-4.56696e-05
2.00107e-06
-3.18928e-06
4.38891e-05
4.88639e-07
-3.35432e-06
0.000244408
-2.69055e-06
-7.63957e-06
1.54763e-06
-2.32462e-06
-6.37751e-07
-1.69197e-06
1.74344e-06
7.60892e-07
4.56887e-06
8.99456e-06
0.000248972
-1.01642e-05
-7.42547e-06
-4.89234e-06
4.56262e-07
2.17072e-06
4.12281e-06
0.0001466
-2.13601e-06
2.0929e-06
3.53224e-06
5.39466e-06
1.30094e-06
3.31443e-06
2.67161e-06
-1.26372e-05
2.89649e-07
-1.27361e-06
1.57913e-05
-4.9289e-06
9.16625e-07
-7.8852e-07
4.80325e-06
2.03032e-06
-6.50846e-05
1.52001e-06
-1.83794e-06
1.77277e-07
6.3195e-05
1.92466e-05
-6.03818e-06
0.000192015
-2.18872e-06
-1.39371e-06
6.24414e-07
1.48784e-06
3.02812e-05
1.4072e-05
0.000225836
9.19316e-06
8.29333e-06
0.000401897
8.31846e-06
1.01207e-05
1.40531e-05
4.4967e-06
1.2691e-05
8.42119e-06
-5.86978e-05
4.44778e-06
4.0994e-06
-1.39589e-05
7.33027e-05
-4.14728e-05
-1.68593e-07
2.74871e-06
-4.93261e-07
3.80156e-05
1.37032e-06
1.30783e-05
-1.42969e-06
0.000218931
-2.35625e-06
1.44223e-06
2.78144e-06
4.03104e-06
3.1419e-06
3.4934e-07
4.12843e-06
5.7975e-06
3.84685e-06
0.000287999
3.85679e-06
9.77748e-06
5.2049e-06
3.45111e-06
4.65391e-06
7.34219e-06
-0.000116482
9.41082e-06
8.26928e-06
0.000112892
-8.58982e-05
1.41353e-05
-1.90444e-05
9.08073e-05
-6.13683e-05
9.30572e-07
6.279e-06
5.27221e-05
-6.76581e-05
-2.18906e-06
3.37855e-06
3.12598e-06
6.71895e-05
-1.53133e-05
-3.58028e-06
8.25966e-08
1.88142e-05
1.5075e-06
-7.81404e-07
-6.59515e-07
-7.54509e-08
-4.31465e-07
3.25252e-06
-4.17991e-06
1.35583e-06
1.69798e-06
-3.40956e-06
-7.08817e-06
4.29934e-06
-4.24487e-06
8.74529e-06
4.23898e-06
-1.50602e-06
-1.4089e-06
-2.56049e-06
-6.85915e-06
8.09558e-06
6.38946e-08
3.57674e-06
-3.11377e-06
-9.82195e-06
7.0414e-06
2.25369e-06
3.94294e-06
-3.1007e-07
-4.28734e-05
5.79518e-07
-2.82503e-06
4.1486e-05
4.68394e-07
-1.3096e-05
0.000246798
2.92493e-06
-2.77991e-06
4.73232e-06
1.98385e-06
1.08231e-06
-9.21426e-07
1.87839e-06
1.33692e-06
4.04899e-06
-9.32947e-06
0.000248584
-1.09641e-06
2.46656e-06
1.72156e-06
3.04503e-06
2.26753e-06
-1.60631e-05
0.000135625
5.70944e-06
6.07699e-06
4.72782e-06
4.23179e-06
2.17261e-06
1.67491e-06
4.22619e-06
-1.97642e-05
-1.99064e-07
4.03466e-06
-7.33859e-06
2.55347e-05
-1.33198e-07
-6.59133e-09
-7.10251e-09
1.33761e-07
-5.14781e-06
1.38331e-06
-1.7041e-06
5.46849e-06
1.24366e-06
-6.27326e-05
3.54219e-06
-1.12326e-07
-3.13288e-06
6.11919e-05
-1.1828e-06
-9.71324e-06
0.000187534
-1.02197e-06
-4.3601e-07
1.89726e-06
1.84187e-06
1.104e-05
-1.17294e-06
0.000205457
1.04451e-05
8.4277e-06
0.000324687
9.69036e-06
9.95272e-06
9.25187e-06
8.34359e-06
1.1459e-05
4.61694e-06
-8.35979e-05
9.53609e-06
1.34105e-05
2.46813e-06
6.86282e-05
2.04011e-08
-4.54618e-07
9.99909e-09
5.02196e-08
3.65268e-07
-3.67885e-05
1.76459e-06
-2.03982e-06
-6.13844e-07
3.5424e-05
2.25355e-06
-1.32235e-06
-1.88514e-07
0.000184341
3.37286e-06
4.88759e-06
6.07842e-06
4.6269e-06
2.94259e-06
1.20224e-06
3.27692e-06
5.48861e-06
3.96199e-06
0.000239531
3.59568e-06
7.8743e-06
4.73051e-06
5.32792e-06
6.47341e-06
8.52037e-06
-0.000113959
1.01183e-05
1.0376e-05
0.000107381
-0.000109482
1.95787e-05
-2.29815e-05
0.000112884
-4.5655e-05
2.93658e-06
2.6975e-06
3.98173e-05
-6.80516e-05
-2.83147e-06
7.71772e-07
9.04323e-07
7.3169e-05
-2.51e-05
-6.79527e-06
1.12669e-06
3.07685e-05
-1.62885e-06
-5.50715e-07
-7.73731e-07
2.94896e-06
-2.69566e-06
2.63436e-06
-3.99433e-06
4.0516e-06
2.70006e-06
-3.77318e-06
-1.14639e-05
4.34686e-06
-5.61775e-06
1.38079e-05
2.57142e-06
-1.26324e-05
-9.52888e-07
-1.18669e-06
-3.25984e-06
1.54604e-05
-1.08045e-05
4.27016e-06
-3.70691e-06
-6.44552e-06
1.49433e-05
1.74347e-06
3.76491e-06
-2.88543e-08
-4.11883e-05
1.39315e-08
-3.91978e-06
4.13581e-05
-8.14486e-07
-1.58679e-05
0.000245563
5.23065e-06
8.902e-07
5.45168e-06
3.94058e-06
9.49313e-07
-9.10704e-07
1.35829e-06
1.00691e-06
-4.39505e-06
-1.17617e-05
0.000247473
1.64986e-06
3.76079e-06
4.91577e-06
6.12685e-06
1.46203e-07
-2.7136e-05
0.000113274
8.11116e-06
8.41203e-06
1.08216e-05
1.0678e-05
3.43362e-06
6.87964e-07
2.8013e-06
-2.96141e-05
1.2912e-05
4.29603e-06
-1.03798e-05
2.2932e-05
-2.52724e-07
-9.32254e-06
4.61494e-06
-1.25796e-05
9.58152e-06
7.95835e-06
-6.14742e-06
1.05944e-06
-1.54201e-06
6.62918e-06
2.6181e-06
-5.85556e-05
4.07962e-06
-1.39524e-06
-2.63927e-06
5.58924e-05
-8.49497e-06
-3.8072e-06
0.000179595
-3.79932e-07
1.1728e-07
2.3545e-06
2.2817e-06
-1.26724e-05
-4.48178e-06
0.000202355
7.64816e-06
6.52083e-06
0.000224806
8.90952e-06
7.24395e-06
7.9985e-06
6.00551e-06
9.08414e-06
6.66214e-06
-6.5715e-05
1.46891e-05
1.39452e-05
-9.67329e-06
5.44022e-05
-2.89513e-06
-4.30594e-06
-8.49943e-06
2.20834e-06
5.23232e-06
8.25984e-06
-3.57662e-05
3.0778e-06
-5.37706e-06
-6.78582e-07
3.73333e-05
1.41076e-06
-7.57576e-06
1.38866e-06
0.00016634
3.8051e-06
3.13901e-06
4.72622e-06
3.34168e-06
2.02023e-06
1.51694e-06
1.83222e-06
9.40053e-07
2.5907e-06
0.000209208
7.52155e-07
1.6451e-06
4.04581e-07
4.41061e-06
2.98557e-06
4.53694e-06
-0.000104476
9.11757e-06
1.2484e-05
9.03357e-05
-0.000103131
-2.19692e-05
-2.2121e-05
2.62911e-05
0.00012093
-3.75296e-06
3.83681e-06
-4.29499e-06
4.21115e-06
-3.76782e-05
1.52954e-06
-6.00812e-07
3.81281e-05
-8.09484e-05
-1.16924e-06
-2.43974e-06
1.88018e-06
8.52679e-05
-3.5957e-05
-6.78206e-06
3.58376e-06
3.91579e-05
-4.05339e-06
-6.14322e-07
-7.12244e-07
5.37895e-06
-5.43769e-06
1.89275e-06
-2.87995e-06
6.42194e-06
4.09334e-06
-2.33909e-06
-1.52993e-05
3.37184e-06
-5.38158e-06
1.55548e-05
1.7878e-06
-1.9368e-05
-1.11559e-06
-2.56232e-07
-3.51449e-06
2.24666e-05
-2.19791e-05
6.86668e-06
-7.0418e-06
-7.97347e-06
2.81593e-05
1.96836e-06
3.15898e-06
2.1714e-07
-4.2137e-05
-3.00833e-07
-3.23003e-06
4.22917e-05
1.29131e-06
-1.1033e-05
0.000237834
4.83459e-06
2.07212e-06
4.68198e-06
4.29075e-06
7.42571e-07
-9.6884e-07
9.47274e-07
8.70282e-07
1.27505e-06
-7.53156e-06
0.000241782
2.07315e-06
3.3732e-06
3.44825e-06
4.34392e-06
1.215e-06
-8.82027e-06
9.85344e-05
6.44767e-06
6.08022e-06
6.78405e-06
4.99951e-06
1.742e-06
-3.93145e-06
1.49796e-06
-2.50868e-05
3.90772e-06
-8.54314e-07
-3.58923e-06
2.68376e-05
-7.32509e-06
6.28058e-06
5.81103e-06
-6.53214e-06
1.63956e-06
1.2607e-07
-7.13882e-06
5.39706e-07
-1.95734e-06
8.55524e-06
1.83781e-06
-5.58274e-05
3.09424e-06
-1.83644e-06
-2.41052e-06
5.51423e-05
-6.36942e-06
-1.19492e-06
0.000170101
6.48961e-07
6.7388e-07
2.5217e-06
2.18067e-06
-4.32058e-06
-3.28325e-06
0.000196057
4.24063e-06
3.49548e-06
0.000173326
7.60499e-06
4.11078e-06
7.18883e-06
3.83892e-06
3.931e-06
3.92847e-06
-4.57478e-05
4.92213e-06
7.00283e-06
-3.8821e-06
4.19455e-05
-1.35108e-05
-1.62532e-06
-3.74238e-06
-9.51996e-08
1.80774e-06
1.7166e-05
-3.87451e-05
3.20944e-06
-3.91341e-06
-1.00834e-06
3.89255e-05
1.53188e-06
-5.55655e-06
9.08996e-07
0.000158838
2.10574e-06
1.70545e-06
2.89253e-06
1.78554e-06
9.61728e-07
5.55465e-07
9.47475e-07
-3.10242e-06
1.09494e-06
0.000203172
-1.56346e-06
-2.26355e-06
-2.43239e-06
2.82686e-06
8.62413e-07
1.77376e-06
-7.92612e-05
3.29433e-06
1.11272e-05
6.52327e-05
-0.000126632
5.2073e-06
-1.50373e-05
1.68924e-05
0.00011956
-1.397e-05
-3.19961e-06
-1.89853e-05
1.11752e-05
2.49798e-05
-3.97551e-05
1.20713e-06
-1.85985e-06
4.13151e-05
-8.9691e-05
4.74467e-07
-4.17031e-06
2.3319e-06
9.21498e-05
-4.39645e-05
-8.43352e-06
4.50675e-06
4.78894e-05
-6.63369e-06
-8.15461e-07
-1.47117e-07
7.59283e-06
-7.99846e-06
-4.4319e-07
-2.12756e-06
1.05535e-05
5.09584e-06
-1.16457e-07
-1.40062e-05
1.87326e-06
-4.97885e-06
1.21324e-05
1.83059e-06
-2.51966e-05
-2.11537e-06
1.16386e-06
-3.36432e-06
2.76819e-05
-3.47623e-05
6.34025e-06
-8.06318e-06
-5.55648e-06
4.00526e-05
1.98913e-06
2.09906e-06
5.15353e-07
-4.29588e-05
-9.96225e-07
-2.40666e-06
4.37473e-05
4.52168e-06
-3.31344e-06
0.000223718
3.19731e-06
1.93113e-06
3.13319e-06
3.75772e-06
5.09876e-07
-1.17952e-06
6.18929e-07
9.39099e-07
1.17304e-06
-4.4681e-06
0.000240132
1.32716e-06
2.02585e-06
2.81643e-06
3.29728e-06
-9.08088e-06
3.57019e-08
0.000125284
3.31051e-06
2.6331e-06
3.05176e-06
1.79942e-06
-2.14147e-06
-1.84323e-05
-6.75265e-06
-4.34911e-05
1.35323e-05
-2.21572e-05
-2.0943e-07
4.32446e-05
1.94638e-05
1.81674e-05
-6.99339e-06
-1.68373e-05
-1.38005e-05
-9.48265e-06
2.66167e-07
-5.51234e-07
9.76558e-06
1.20364e-06
-5.40065e-05
2.89035e-06
-6.58145e-07
-1.77501e-06
5.23457e-05
-2.48254e-06
-1.2603e-06
0.000167277
-8.9799e-08
4.29111e-07
1.37486e-06
1.53851e-06
2.13551e-06
-5.42307e-06
0.000192394
-4.22249e-07
1.89435e-06
0.000169582
4.32445e-06
-3.45964e-06
-4.77093e-06
4.72633e-06
1.97362e-06
1.64943e-06
-4.46853e-05
-7.09412e-07
-1.65665e-07
-3.82786e-06
4.8966e-05
-2.13842e-05
1.77103e-05
-3.82849e-06
9.8648e-06
-2.25013e-05
2.01388e-05
-3.86292e-05
1.63889e-06
-1.97887e-06
-7.92069e-07
3.89821e-05
7.79151e-07
-3.85074e-06
-1.13488e-07
0.000155908
1.17877e-06
8.45216e-07
2.19461e-06
1.20828e-06
-9.36115e-08
7.36338e-08
2.27964e-07
-4.49435e-06
-3.62553e-07
0.000203684
-2.69003e-06
-2.55647e-06
-2.40052e-06
1.54455e-06
-1.88138e-07
1.36152e-06
-5.9752e-05
-4.96578e-06
5.25084e-06
5.68669e-05
-9.50065e-05
-2.67146e-06
-6.59954e-06
0.00010426
-4.21556e-05
1.88731e-06
-2.66436e-06
4.28187e-05
-9.44421e-05
7.84542e-07
-4.09077e-06
1.2982e-06
9.60876e-05
-5.08704e-05
-6.86629e-06
4.61094e-06
5.3126e-05
-8.4657e-06
-4.86482e-07
7.1024e-09
8.94743e-06
-1.35882e-05
1.78913e-06
-4.45566e-06
1.62556e-05
2.98635e-06
-5.08016e-07
-1.22051e-05
2.21581e-07
-5.41916e-06
1.49244e-05
1.5117e-06
-3.0296e-05
-1.09451e-06
6.80428e-07
-3.07977e-06
3.22781e-05
-4.43006e-05
5.46386e-06
-6.80256e-06
-3.40478e-06
4.71939e-05
1.85024e-06
2.64995e-06
1.99784e-06
-4.40998e-05
-2.5965e-06
-1.99276e-06
4.40413e-05
8.74672e-06
-7.2936e-07
0.000195925
4.08019e-06
2.79053e-06
4.57864e-06
5.35804e-06
6.92576e-07
-7.1857e-07
1.353e-06
1.6414e-06
9.7876e-07
-1.3226e-06
0.000239911
1.34406e-06
1.49245e-06
3.16615e-06
3.30955e-06
-1.89621e-05
-3.66179e-06
0.000173805
2.18927e-06
2.61852e-06
3.84078e-06
3.45047e-06
-1.18013e-05
-1.41795e-05
-1.10362e-05
-4.95672e-05
6.58161e-06
-1.78267e-05
4.18501e-05
-9.98662e-06
-8.50634e-09
-7.79583e-07
1.07762e-05
8.18109e-07
-5.08927e-05
2.07942e-06
4.31384e-08
-5.68462e-07
4.85205e-05
3.95769e-06
3.93293e-06
0.000156654
-6.24022e-07
5.82055e-08
1.06204e-06
1.50707e-06
9.51928e-06
-5.38508e-06
0.000190895
-6.77787e-06
-2.62244e-08
0.000187163
-6.01366e-06
-5.16778e-06
-1.30118e-06
2.23713e-06
1.83054e-06
3.49554e-06
-8.02917e-05
7.70404e-06
-5.47911e-06
-9.48501e-06
8.07739e-05
-4.06774e-05
8.94085e-07
-2.35188e-06
-6.25274e-07
4.30336e-05
-2.73151e-07
2.63594e-07
3.44725e-08
0.000153794
9.8497e-07
9.73665e-07
1.93215e-06
1.15434e-06
4.8353e-09
3.48767e-07
3.49847e-07
-3.04276e-06
-6.31828e-07
0.000201208
-1.62446e-06
7.14874e-07
-8.32684e-07
1.40241e-06
-1.25356e-07
1.49502e-06
-5.70035e-05
-4.15767e-06
3.17432e-06
5.49179e-05
-9.89422e-05
2.1333e-05
-8.99765e-07
7.84553e-05
-4.39182e-05
1.82464e-06
-2.95634e-06
4.50811e-05
-9.76075e-05
8.73822e-07
-3.6377e-06
9.60012e-07
9.87795e-05
-5.50804e-05
-4.73883e-06
3.94532e-06
5.58747e-05
-9.38861e-06
-3.37081e-07
-2.45742e-07
9.97143e-06
-1.82997e-05
1.90976e-06
-3.3399e-06
1.97327e-05
1.57776e-06
-1.03733e-06
-1.80732e-05
4.06956e-07
-2.93995e-06
2.00658e-05
6.51765e-07
-3.39957e-05
2.98279e-08
-3.11546e-07
-1.79968e-06
3.54254e-05
-4.98794e-05
4.64572e-06
-5.59305e-06
-2.91816e-06
5.17459e-05
1.99898e-06
2.78919e-06
2.32911e-06
-4.42068e-05
-3.0461e-06
-2.09065e-06
4.42253e-05
5.70789e-06
2.27515e-06
0.000169296
2.94252e-06
3.59398e-06
2.84978e-06
4.0803e-06
1.26488e-06
4.618e-07
1.55266e-06
1.89995e-06
3.96738e-06
5.77077e-07
0.00023356
1.07739e-06
1.09344e-06
2.77747e-06
2.56551e-06
-1.14387e-05
-4.91816e-07
0.000194081
1.9743e-06
2.91491e-06
3.29901e-06
2.88346e-06
-4.74153e-06
-8.3987e-06
-2.30994e-06
-3.88179e-05
5.87589e-06
-1.62615e-05
3.77648e-05
-1.17945e-05
-2.75991e-07
-4.07115e-07
1.24774e-05
7.30984e-07
-4.70046e-05
1.00152e-06
-3.97853e-07
1.45252e-07
4.55247e-05
4.09038e-06
5.83677e-06
0.00014781
-7.6596e-07
1.01978e-07
7.11118e-07
1.14451e-06
1.58108e-05
-3.53159e-06
0.000183283
1.69106e-06
2.34322e-07
0.000183312
1.59658e-06
3.73179e-06
3.24546e-06
3.47263e-06
1.60065e-06
3.59714e-06
-7.70184e-05
8.83626e-06
7.058e-06
-1.31456e-05
7.59608e-05
-4.50919e-05
8.92196e-07
-1.75335e-06
1.42346e-07
4.65053e-05
-6.94619e-07
1.00466e-06
3.1939e-07
0.000153664
7.12286e-07
7.91955e-07
1.54847e-06
8.07068e-07
-4.52576e-08
4.41448e-07
3.86864e-07
-5.94016e-07
-1.14172e-07
0.000194053
-5.64007e-07
2.13939e-06
1.26536e-07
1.57944e-06
3.76608e-07
1.6782e-06
-5.54337e-05
-3.83864e-07
2.0601e-06
5.33978e-05
-7.19281e-05
9.40739e-06
-6.47019e-06
6.899e-05
-4.60238e-05
2.14123e-06
-2.56956e-06
4.67707e-05
-0.000100421
1.26751e-06
-3.76601e-06
1.30783e-06
0.000101498
-5.6331e-05
-3.35942e-06
3.07322e-06
5.66154e-05
-1.04525e-05
-6.80129e-08
-2.88627e-07
1.08091e-05
-2.06918e-05
1.59962e-06
-2.32356e-06
2.14158e-05
-8.17507e-07
-1.02456e-06
-2.21771e-05
-3.12283e-07
1.21583e-07
2.42099e-05
-5.40764e-07
-3.68599e-05
8.73704e-07
-9.15071e-07
-2.58076e-07
3.77001e-05
-5.33791e-05
3.85019e-06
-4.47588e-06
-2.33289e-06
5.43796e-05
1.95811e-06
1.93523e-06
1.19349e-06
-4.39548e-05
-1.3758e-06
-1.651e-06
4.38529e-05
3.57788e-06
2.3296e-06
0.000160654
8.47405e-07
1.40674e-06
-1.21465e-06
9.35125e-07
6.47875e-07
1.23461e-07
-4.65847e-07
4.54696e-07
2.25399e-06
2.00394e-06
0.00022922
2.95328e-07
4.56256e-07
1.46073e-06
1.44747e-06
-7.52908e-06
6.82381e-07
0.00020487
1.28733e-06
2.09713e-06
2.30259e-06
2.05787e-06
-2.31729e-06
-5.79713e-06
-1.31858e-06
-3.95824e-05
5.63742e-06
-1.5168e-05
4.15839e-05
-1.26611e-05
-3.89768e-07
4.42258e-07
1.2606e-05
-2.33232e-07
-4.47432e-05
1.11e-06
-3.38264e-09
-3.17966e-08
4.39016e-05
4.87446e-06
2.41399e-06
0.000144332
-8.89339e-07
-5.21327e-07
-2.06148e-07
1.36785e-07
1.49029e-05
-4.0307e-06
0.00017929
3.11245e-06
-4.53132e-07
0.000178105
3.24475e-06
3.38422e-06
3.72111e-06
3.26527e-06
1.05946e-06
3.45777e-06
-7.60801e-05
8.87927e-06
4.95482e-06
-1.18081e-05
7.71666e-05
-4.79625e-05
6.43653e-07
-1.08593e-06
1.08735e-07
4.89476e-05
-6.51553e-07
1.05907e-06
-1.70403e-07
0.000154066
1.6091e-07
4.77777e-07
6.91509e-07
4.04767e-07
-3.5991e-07
-1.79065e-07
-7.32708e-08
-1.49987e-07
-3.26281e-08
0.0001858
-1.90457e-07
1.84509e-06
4.50522e-07
1.44147e-06
4.25778e-07
1.49138e-06
-5.4253e-05
4.70809e-07
1.36284e-06
5.18162e-05
-6.68882e-05
7.99984e-06
-6.22462e-06
6.51172e-05
-4.76863e-05
1.89443e-06
-2.25318e-06
4.78744e-05
-0.000102196
1.56057e-06
-3.84787e-06
1.92676e-06
0.000102524
-5.7072e-05
-2.89741e-06
2.8679e-06
5.71032e-05
-1.11028e-05
4.96928e-08
-2.82007e-07
1.13351e-05
-2.18577e-05
1.40623e-06
-1.60612e-06
2.20576e-05
-1.84176e-06
-7.4916e-07
-2.55508e-05
-1.12031e-06
2.22474e-06
2.70373e-05
-9.40979e-07
-3.8236e-05
1.28832e-06
-1.1471e-06
7.64371e-07
3.82714e-05
-5.53968e-05
3.31936e-06
-3.93143e-06
-2.19741e-06
5.61531e-05
2.05314e-06
8.99602e-07
9.27226e-07
-4.33512e-05
-4.19553e-07
-8.69443e-07
4.28134e-05
3.74449e-06
3.95173e-06
0.000160722
-1.87395e-06
-6.92207e-07
-2.35741e-06
-3.60256e-09
-8.58982e-07
-9.64656e-07
-1.15377e-06
1.40403e-07
9.88333e-07
4.24387e-06
0.000227978
-8.09495e-07
-6.36629e-07
4.83631e-07
7.16955e-07
-5.40414e-06
2.37926e-06
0.000209801
4.6676e-07
1.51669e-06
1.51705e-06
1.54861e-06
-9.58768e-07
-4.73627e-06
-2.7158e-07
-4.36328e-05
5.59556e-06
-1.24064e-05
4.50395e-05
-1.25085e-05
-5.64355e-07
6.65446e-07
1.24074e-05
-9.30719e-07
-4.31105e-05
7.40312e-07
9.44885e-07
-8.94701e-09
4.23649e-05
5.75587e-06
1.69164e-07
0.000146209
-1.67079e-06
-1.3097e-06
-7.27053e-07
-1.43429e-07
1.39734e-05
-4.7621e-06
0.000180078
3.3401e-06
-6.3373e-07
0.000172855
3.66011e-06
4.06594e-06
3.78012e-06
3.18588e-06
9.76671e-07
3.22792e-06
-7.78889e-05
8.30989e-06
6.03662e-06
-1.07315e-05
7.7614e-05
-4.95311e-05
1.93166e-07
-2.55593e-07
1.27334e-07
4.98318e-05
-3.65581e-07
2.23524e-06
-8.57214e-07
0.000155835
-7.77545e-07
1.34387e-07
9.69184e-08
1.33128e-07
-9.07451e-07
-1.04111e-06
-6.16029e-07
-1.95989e-07
-4.12538e-07
0.000179299
9.40496e-08
1.6779e-06
4.68521e-07
1.26786e-06
-1.52674e-07
1.2267e-06
-5.24474e-05
3.91927e-07
8.91695e-07
5.03341e-05
-6.38634e-05
6.58915e-06
-5.43112e-06
6.27054e-05
-4.76918e-05
2.11253e-06
-2.15508e-06
4.68758e-05
-0.000103605
1.53046e-06
-3.64669e-06
1.39539e-06
0.000103913
-5.7197e-05
-2.76785e-06
3.0749e-06
5.68921e-05
-1.14418e-05
6.8231e-08
-3.89823e-08
1.14125e-05
-2.21285e-05
1.28164e-06
-1.33339e-06
2.21802e-05
-1.93555e-06
-3.61154e-07
-2.84621e-05
-1.94e-06
3.03604e-06
2.96628e-05
-1.28853e-06
-3.81799e-05
2.08725e-06
-1.42393e-06
1.09868e-06
3.77064e-05
-5.69506e-05
3.04423e-06
-3.68004e-06
-1.84004e-06
5.74039e-05
2.0225e-06
4.86908e-07
1.03835e-06
-4.19861e-05
-4.60879e-08
-3.70164e-07
4.08771e-05
4.85326e-06
7.28052e-06
0.000159036
-2.57548e-06
-1.41036e-06
-2.38921e-06
-3.52089e-07
-1.49624e-06
-1.23572e-06
-1.1264e-06
1.38163e-07
1.00981e-06
5.67636e-06
0.000227783
-1.29943e-06
-1.11093e-06
2.17166e-07
5.55351e-07
-4.54027e-06
4.45686e-06
0.000212141
-2.01023e-07
1.11822e-06
9.30855e-07
1.18623e-06
-4.44256e-07
-4.03704e-06
2.00187e-07
-4.60934e-05
5.46651e-06
-1.0726e-05
4.68126e-05
-1.23023e-05
-7.14175e-07
8.31133e-07
1.21853e-05
-1.19762e-06
-4.17223e-05
2.89856e-07
1.48743e-06
2.48368e-07
4.08943e-05
6.55933e-06
2.00695e-06
0.000149893
-2.13135e-06
-1.48812e-06
-1.0899e-06
-2.60352e-07
1.24981e-05
-4.9919e-06
0.000184808
3.40221e-06
-9.98419e-07
0.000170249
3.21045e-06
3.90018e-06
3.21483e-06
3.11052e-06
4.27947e-07
3.29341e-06
-7.87164e-05
7.39915e-06
5.47207e-06
-1.03781e-05
7.96255e-05
-5.02891e-05
-2.74808e-07
2.93248e-07
1.42441e-07
5.06427e-05
-5.14431e-07
3.38715e-06
-7.47656e-07
0.000158198
-1.19013e-06
4.70045e-08
-2.37766e-07
9.01328e-08
-7.48048e-07
-6.19172e-07
-3.37725e-07
-7.92402e-08
-6.39018e-07
0.000173852
4.39539e-07
1.58232e-06
9.99168e-07
9.35134e-07
-2.83747e-07
8.88662e-07
-5.13307e-05
1.77352e-07
2.52042e-07
4.98236e-05
-6.13154e-05
5.8293e-06
-4.43906e-06
5.99294e-05
-4.64434e-05
2.38993e-06
-3.28609e-06
4.6588e-05
-0.000104193
1.49203e-06
-3.42251e-06
1.59126e-06
0.000103894
-5.65723e-05
-2.66076e-06
3.20633e-06
5.60287e-05
-1.11597e-05
-1.15084e-07
7.81255e-07
1.04936e-05
-2.22033e-05
9.16618e-07
-8.68332e-07
2.21551e-05
-1.87163e-06
3.72295e-07
-3.07013e-05
-2.4605e-06
3.32399e-06
3.13371e-05
-1.98967e-06
-3.73155e-05
1.90467e-06
-1.04708e-06
1.72339e-06
3.67242e-05
-5.79202e-05
2.96573e-06
-3.39335e-06
-1.49416e-06
5.80731e-05
1.76886e-06
7.16594e-08
9.66281e-07
-3.99698e-05
-4.84145e-08
-4.97654e-09
3.89852e-05
5.69319e-06
9.01789e-06
0.000156777
-3.00923e-06
-1.75003e-06
-3.21578e-06
-6.8776e-07
-1.46485e-06
-1.12307e-06
-1.4104e-06
2.09015e-07
1.54001e-06
6.72422e-06
0.000227312
-1.4487e-06
-1.09017e-06
-5.82813e-08
4.97724e-07
-3.94775e-06
5.56721e-06
0.000213958
-8.31747e-07
7.12846e-07
4.91463e-07
8.04638e-07
4.04007e-08
-3.5781e-06
4.64099e-07
-4.72894e-05
4.88366e-06
-9.26266e-06
4.77206e-05
-1.20397e-05
-8.05958e-07
9.58358e-07
1.18873e-05
-1.49938e-06
-4.03205e-05
1.5675e-08
1.83103e-06
3.1424e-07
3.96589e-05
7.18262e-06
4.8473e-06
0.000152335
-2.29895e-06
-1.62933e-06
-1.06783e-06
-4.58017e-07
1.18464e-05
-1.76895e-06
0.000188637
3.40955e-06
-1.37326e-06
0.00017068
2.68956e-06
3.51024e-06
2.56072e-06
2.8217e-06
3.09869e-07
3.05437e-06
-8.12564e-05
6.90712e-06
5.53356e-06
-1.05834e-05
8.28086e-05
-5.08845e-05
-6.10555e-07
7.58248e-07
5.27678e-07
5.08679e-05
-6.58813e-07
5.68676e-06
-2.84963e-07
0.00016042
-1.64983e-06
-2.19935e-07
-6.07639e-07
-8.11214e-08
-1.84895e-07
-1.52299e-07
1.19612e-07
-1.6079e-07
-2.03191e-07
0.000171727
1.05518e-06
1.3334e-06
1.45946e-06
1.12182e-06
2.66804e-07
1.17003e-06
-5.1191e-05
-4.84967e-07
-4.46169e-08
5.01865e-05
-5.88191e-05
4.76347e-06
-3.94018e-06
5.79958e-05
-4.69736e-05
1.8127e-06
-2.7433e-06
4.76189e-05
-0.000103699
1.96084e-06
-3.35639e-06
1.59253e-06
0.000103299
-5.55505e-05
-2.36627e-06
2.47446e-06
5.54438e-05
-9.63697e-06
-6.28298e-07
1.15601e-06
9.10926e-06
-2.20653e-05
1.03852e-06
-8.82626e-07
2.19094e-05
-2.59964e-06
3.88873e-07
-3.17596e-05
-2.22273e-06
4.32422e-06
3.18689e-05
-2.0605e-06
-3.62064e-05
1.66908e-06
-7.40665e-07
2.03855e-06
3.53e-05
-5.83447e-05
3.05608e-06
-3.15645e-06
-1.36327e-06
5.83902e-05
1.41814e-06
4.90324e-08
1.29548e-06
-3.7806e-05
-1.23186e-07
3.72624e-07
3.62121e-05
6.11136e-06
1.01246e-05
0.00015584
-4.09213e-06
-2.19709e-06
-4.2231e-06
-1.24661e-06
-1.57981e-06
-1.06652e-06
-1.12007e-06
2.25853e-07
2.33821e-06
7.49133e-06
0.000226203
-1.70546e-06
-1.17494e-06
-2.24815e-07
4.95704e-07
-3.48913e-06
6.15837e-06
0.00021579
-1.17273e-06
4.48805e-07
3.03332e-07
6.10525e-07
2.05348e-07
-3.0939e-06
5.35504e-07
-4.82732e-05
4.72704e-06
-8.96227e-06
4.90193e-05
-1.17411e-05
-9.10442e-07
1.03587e-06
1.16157e-05
-1.43843e-06
-3.9359e-05
-3.30381e-07
1.71107e-06
3.97152e-07
3.90196e-05
7.78139e-06
7.22818e-06
0.000153459
-2.31359e-06
-1.88552e-06
-1.04411e-06
-7.65299e-07
1.22611e-05
1.75076e-07
0.000191474
2.91804e-06
-1.53011e-06
0.000173732
2.65774e-06
3.06409e-06
2.71444e-06
2.61706e-06
2.47432e-07
2.67852e-06
-8.43264e-05
7.10327e-06
4.63199e-06
-8.93367e-06
8.44428e-05
-5.09525e-05
-8.84461e-07
9.36002e-07
6.52649e-07
5.09251e-05
-6.76825e-07
7.57319e-06
-4.00438e-08
0.00016236
-1.9162e-06
-3.75422e-07
-7.37174e-07
-1.45176e-07
8.73596e-08
2.70821e-07
5.70369e-07
-5.124e-07
2.59412e-07
0.00017276
1.18125e-06
9.61056e-07
1.56816e-06
1.26448e-06
7.03974e-07
1.28871e-06
-5.21742e-05
-1.46515e-06
-2.41154e-07
5.1838e-05
-5.68621e-05