/*--------------------------------*- C++ -*----------------------------------*\
| =========                 |                                                 |
| \\      /  F ield         | OpenFOAM: The Open Source CFD Toolbox           |
|  \\    /   O peration     | Version:  5.x                                   |
|   \\  /    A nd           | Web:      www.OpenFOAM.org                      |
|    \\/     M anipulation  |                                                 |
\*---------------------------------------------------------------------------*/
FoamFile
{
    version     2.0;
    format      ascii;
    class       surfaceScalarField;
    location    "5.6";
    object      phi;
}
// * * * * * * * * * * * * * * * * * * * * * * * * * * * * * * * * * * * * * //

dimensions      [0 3 -1 0 0 0 0];

internalField   nonuniform List<scalar> 
29271
(
-5.4327e-06
3.81727e-07
3.1007e-06
1.9505e-06
-1.68947e-05
-4.52895e-06
-4.38353e-07
2.18691e-05
-6.15932e-05
-1.02232e-05
1.71338e-07
1.07466e-06
1.83019e-05
5.22684e-05
-5.5544e-05
-1.99567e-05
9.68769e-06
-7.97718e-06
1.54964e-05
5.82939e-05
-2.33529e-05
-3.8411e-06
-1.45716e-06
1.71737e-05
9.67693e-06
1.80057e-06
-3.63776e-05
6.49924e-06
-4.77384e-06
5.11331e-06
-6.54814e-06
3.6087e-05
-6.43631e-05
-1.70156e-08
-1.45538e-05
4.62776e-06
-1.52476e-05
8.95538e-05
-4.95468e-05
-6.69465e-07
1.23004e-06
-1.1417e-06
-1.2033e-05
6.21609e-05
-7.10765e-05
-1.17643e-05
2.24123e-06
-2.04967e-05
-1.71497e-05
0.000118246
-4.12109e-05
5.13667e-07
-6.17636e-06
3.25626e-05
1.42478e-05
-5.98444e-06
9.21018e-07
-1.90531e-07
5.4147e-06
-4.86001e-05
-9.11928e-06
5.8622e-06
1.83073e-05
-7.68769e-06
4.12375e-05
-5.9566e-05
2.48448e-05
-2.01084e-05
4.57691e-06
-3.2921e-05
8.31737e-05
-7.17228e-05
3.09385e-05
-4.71636e-06
-9.57321e-06
-4.42547e-05
9.93286e-05
-5.05932e-05
1.88833e-05
6.66409e-06
-5.55912e-06
-1.72547e-05
4.78597e-05
-4.46864e-05
4.02338e-06
3.40554e-06
-8.01481e-06
4.5282e-05
-9.68833e-09
-3.73756e-05
-3.12756e-07
2.56619e-06
-3.20876e-06
3.20395e-05
6.29149e-06
-4.28148e-05
-2.06631e-06
2.47961e-05
1.1576e-06
-1.63892e-05
3.53167e-05
-4.20147e-05
3.16116e-05
2.03287e-06
-5.23968e-06
-1.69161e-05
3.0526e-05
-3.03146e-05
1.22084e-07
-7.72722e-06
2.19425e-05
1.31407e-05
2.83657e-06
-1.01533e-05
4.93222e-06
-3.51179e-06
8.85083e-06
-2.98293e-05
2.38637e-06
-3.39358e-06
2.0405e-05
1.07042e-05
-3.01298e-05
1.68787e-06
4.22115e-07
-2.86027e-07
1.97368e-05
8.56909e-06
-9.36396e-06
3.43874e-06
-7.65075e-07
6.79968e-06
-1.33246e-06
4.37317e-08
-5.0082e-07
1.72378e-06
-2.4583e-05
-9.32633e-06
8.71856e-06
2.5325e-05
1.32831e-06
1.7743e-05
-4.31944e-05
-2.42496e-05
-7.00605e-06
5.53788e-05
2.77635e-06
-5.51009e-05
5.48466e-06
4.74759e-06
-5.36711e-07
4.2629e-05
-8.32707e-06
-3.4174e-07
-3.35647e-07
9.07553e-07
9.70411e-06
-1.60721e-06
-1.22712e-05
1.1347e-05
-5.59203e-05
-2.56587e-05
-1.00358e-06
8.35069e-05
1.4461e-05
1.05123e-05
0.000188544
-8.43663e-05
-6.84839e-05
-8.69646e-05
-5.79219e-05
9.19141e-06
3.64732e-06
8.2433e-06
3.84989e-06
1.54767e-05
9.39652e-06
2.44501e-05
9.96372e-06
4.98007e-05
3.49398e-05
0.000246917
-6.42274e-05
-9.3634e-05
-0.000101274
-5.78531e-05
-9.44781e-07
-5.55114e-06
3.6845e-06
2.60312e-06
9.04494e-07
3.19016e-05
0.000357323
-1.35526e-05
-4.03979e-06
-6.6345e-06
-3.39377e-06
4.63655e-06
2.6906e-06
1.42557e-05
-0.000154004
-6.77923e-05
-7.13577e-05
-4.11358e-05
-2.63503e-05
-2.35225e-07
6.47791e-06
2.09471e-05
-3.67108e-06
1.34676e-07
1.89614e-06
1.83278e-06
2.31179e-06
-3.63612e-05
1.77301e-06
-1.01508e-05
1.87088e-07
4.22402e-05
2.70001e-05
1.83031e-05
0.000187698
-9.15638e-05
-6.1227e-05
-3.75322e-05
-4.66088e-05
5.42393e-07
5.59546e-07
2.51988e-06
1.08212e-05
3.52053e-05
5.90954e-06
0.000292671
-0.000112997
-6.1716e-05
-5.59819e-05
-4.11514e-05
4.23836e-06
-3.25504e-06
0.000218476
3.35266e-06
5.16022e-06
5.59734e-06
-3.05904e-06
-3.46385e-06
-4.40396e-06
-5.04104e-05
-3.61146e-05
-3.78292e-05
-3.11817e-05
-5.91359e-05
-7.06456e-06
-3.11607e-06
-1.38779e-06
7.49427e-05
-3.3945e-05
-1.95126e-06
1.42763e-06
-2.91002e-06
3.50965e-05
2.28216e-06
-4.19456e-06
-1.44532e-06
0.000160592
-1.98023e-08
2.54346e-07
1.66876e-06
-5.935e-08
-1.42005e-06
-2.19343e-06
-3.60999e-06
-3.41994e-05
-4.01257e-05
-2.88669e-05
-2.80772e-05
-9.66972e-07
-1.96074e-06
0.000100466
-1.4109e-06
3.7179e-07
-1.63973e-06
-9.17911e-07
-1.07066e-06
1.16024e-07
-2.69846e-05
-2.29444e-05
-2.1031e-05
-2.03114e-05
-1.79079e-05
-3.08461e-08
-3.07564e-06
1.67924e-05
-7.9097e-06
3.92493e-06
-2.24783e-06
6.40588e-06
-1.67799e-05
3.11747e-07
-5.51205e-07
1.58227e-05
-1.67517e-05
6.15519e-07
1.18241e-06
-1.25299e-06
1.4246e-05
-5.52552e-06
4.82987e-07
6.52067e-07
4.43578e-06
-2.40524e-06
6.21035e-07
-1.48027e-06
3.0577e-06
-3.11725e-05
-4.72335e-06
1.2238e-06
3.46782e-05
1.49382e-06
1.20973e-05
-5.61132e-05
-8.41837e-06
-2.56345e-06
5.35039e-05
4.78768e-06
-3.77364e-05
-5.51238e-07
6.13494e-06
-2.05972e-07
2.7571e-05
-1.12377e-05
-1.00865e-06
7.36893e-07
3.20091e-06
1.13771e-05
-3.06854e-06
-1.99013e-05
6.59862e-06
-9.84749e-05
-9.14694e-06
1.93341e-05
0.00010159
4.07592e-06
3.32199e-06
0.000132799
2.67953e-06
-2.64606e-07
6.32537e-06
1.82942e-06
8.37688e-06
2.50983e-06
1.53271e-05
1.1564e-05
5.04162e-05
4.09924e-05
0.000185411
-8.84723e-06
-1.0807e-05
-1.65768e-06
-4.51421e-06
5.71319e-06
3.15961e-05
0.000379267
-1.29765e-05
-5.78516e-06
-1.74051e-05
-8.37003e-06
1.6356e-05
6.14424e-06
1.31992e-05
-1.49046e-05
-2.39213e-06
8.70521e-06
1.4381e-05
-2.11899e-07
-1.54376e-06
2.92239e-06
-1.17421e-06
-4.48855e-06
-5.36128e-05
-9.23159e-06
-2.41697e-06
2.43249e-06
6.73174e-05
1.2844e-05
3.79996e-06
0.00016445
2.68729e-07
6.13343e-06
1.48323e-08
3.50887e-06
1.03768e-05
2.91291e-05
0.000307002
2.343e-06
-1.35129e-06
0.000263923
2.13047e-06
-6.01432e-07
-4.85375e-06
-3.31523e-06
1.91442e-06
2.60237e-07
-8.47878e-05
-6.69714e-06
2.56099e-06
1.05257e-06
9.02144e-05
-3.63018e-05
-6.60311e-06
9.65848e-06
-5.52013e-07
3.29483e-05
8.50083e-07
1.06535e-08
-5.42994e-06
0.000222224
-6.24117e-06
-9.04388e-06
-1.30899e-05
-1.17275e-05
-4.93013e-06
-4.59826e-06
-2.7819e-06
-3.05469e-06
2.90133e-06
0.000126652
-2.10704e-06
-2.95838e-06
-2.91522e-06
5.07642e-06
2.58887e-06
3.42196e-06
-1.4996e-05
-2.36277e-08
1.48367e-06
9.12993e-06
-5.25843e-06
1.8854e-06
-1.47825e-06
4.86831e-06
-1.29223e-05
2.99079e-09
1.49775e-06
5.9754e-06
-1.21797e-05
-3.61706e-06
3.65682e-06
6.25357e-07
1.44159e-05
-4.3681e-06
-3.51754e-06
2.4891e-06
5.40558e-06
-3.12312e-06
7.80218e-07
-9.12469e-08
2.40728e-06
-3.28346e-05
5.24913e-06
2.94863e-07
2.73002e-05
-2.82764e-06
-6.74837e-06
-5.92118e-05
-5.05237e-07
-7.10877e-07
7.00039e-05
9.76872e-07
-2.06918e-05
2.75532e-06
-1.66193e-06
-2.93799e-06
2.15596e-05
-1.02505e-05
-2.76908e-07
1.33924e-06
3.30231e-06
7.60718e-06
-1.7213e-06
-1.64381e-05
-4.46217e-06
-0.000106059
-8.79235e-07
2.20913e-05
0.000105747
1.21367e-05
-4.11194e-05
0.000154931
1.07826e-05
4.70191e-06
-1.71959e-07
2.56259e-06
7.0915e-06
-2.09567e-06
-1.93912e-06
-1.40809e-05
2.44358e-05
6.24674e-06
0.000163671
9.82448e-07
-5.98058e-07
1.74355e-06
1.06573e-06
4.05441e-06
1.55339e-05
0.0004122
-1.59441e-05
-8.06684e-06
-7.67027e-06
-6.60716e-06
7.85254e-06
1.12563e-06
1.22448e-06
-1.86217e-05
-4.115e-06
1.40074e-06
2.5382e-05
1.7487e-06
-6.04595e-08
3.52057e-07
-2.04533e-06
-1.10242e-05
-7.89324e-05
-1.37095e-05
1.52594e-05
4.96577e-06
8.34408e-05
-7.43902e-06
-3.68199e-05
0.000198223
-8.2507e-06
-4.35041e-06
-1.08739e-05
-7.15838e-06
-9.88604e-06
2.96476e-05
0.000286048
1.9669e-06
4.28317e-06
0.000235693
-8.49626e-07
4.63765e-06
5.28013e-06
5.19699e-06
8.6801e-06
4.68223e-06
-8.56413e-05
6.149e-07
2.90112e-06
7.55755e-06
7.65346e-05
-2.57568e-05
-2.81244e-06
1.11983e-05
2.08442e-06
1.92507e-05
-3.96417e-06
9.63595e-06
1.5412e-06
0.000176897
-8.70268e-06
-1.82716e-06
-4.53999e-06
6.7571e-07
4.00241e-06
2.4735e-06
5.24774e-06
3.27586e-07
7.26118e-06
0.000131241
-1.16161e-06
8.94258e-07
-2.22528e-07
6.06658e-06
1.16134e-05
9.91605e-06
-5.2896e-06
-3.59763e-06
5.7212e-06
7.77677e-06
-6.15528e-06
-5.04231e-06
2.22861e-06
8.98168e-06
5.74083e-07
-6.70764e-07
3.34903e-06
-1.75048e-06
-1.70216e-05
-1.75802e-06
-9.1979e-08
5.34181e-07
2.55985e-05
-6.66198e-06
-2.10137e-06
-4.01104e-07
9.17035e-06
-1.89277e-06
-1.48885e-07
2.12359e-07
1.86339e-06
-2.01231e-05
7.37112e-06
-1.13075e-06
1.3888e-05
7.50859e-07
-1.29194e-05
-7.02931e-05
9.93576e-06
7.11346e-06
6.54124e-05
4.58531e-07
-2.65084e-05
-5.53734e-06
1.29216e-06
-2.16173e-06
3.24567e-05
-7.19456e-06
-5.38733e-07
4.5205e-07
1.31306e-06
5.9733e-06
-5.11581e-09
-1.03653e-05
-6.60326e-06
-9.91246e-05
6.74138e-06
1.72235e-05
9.21283e-05
3.50307e-05
-9.42139e-05
0.00021315
4.14425e-06
1.14269e-05
7.3251e-06
1.82727e-05
-4.72671e-06
-1.65363e-05
-4.15e-06
-1.47918e-05
1.27632e-05
-5.67363e-05
0.000211876
6.91666e-06
6.28162e-06
8.89015e-06
8.71091e-06
-1.67258e-06
4.28959e-06
0.000427871
-3.69462e-06
-2.08607e-06
-2.00789e-06
-1.18435e-06
-9.95956e-07
2.3053e-06
2.13893e-06
-3.7867e-05
3.69801e-06
-1.42276e-05
4.67318e-05
2.27249e-06
6.00257e-07
-6.42696e-07
-2.25132e-06
-5.08636e-06
-8.5486e-05
-1.1705e-05
1.22809e-05
5.68269e-06
8.43138e-05
-1.37705e-05
-8.70799e-06
0.000136724
-7.68916e-06
-4.47249e-06
-3.23128e-07
2.24791e-06
6.10317e-06
2.49783e-05
0.000184459
8.20045e-06
1.00931e-05
0.000163823
1.04571e-05
1.26473e-05
1.61545e-05
3.61492e-06
1.57551e-05
5.33985e-06
-6.65788e-05
6.5115e-06
2.9468e-06
-4.23742e-08
6.53633e-05
-1.54469e-05
5.81211e-07
2.8152e-06
1.5983e-06
1.39921e-05
-3.53986e-06
2.08595e-05
7.96015e-06
0.000104848
-5.93682e-06
-3.85338e-07
-1.76093e-06
3.40005e-08
1.06347e-05
1.52427e-05
1.6693e-05
-7.26371e-07
9.20724e-06
0.000136619
-7.2032e-07
3.00975e-06
1.86379e-06
8.43481e-06
1.04821e-05
8.90872e-06
-1.43075e-05
-3.84571e-06
6.17042e-06
2.13495e-05
-1.33471e-05
-5.72604e-06
3.92145e-06
1.51579e-05
9.80293e-07
-1.39187e-06
2.57791e-06
5.63509e-06
-3.67699e-05
2.49148e-07
-2.63585e-06
1.23089e-06
4.7133e-05
-1.27091e-05
-4.59413e-08
-1.71485e-06
1.44633e-05
-2.73707e-06
-1.57158e-06
2.30619e-07
4.08604e-06
-9.10243e-06
6.2208e-06
-2.43759e-06
5.32187e-06
2.59064e-06
-9.50795e-06
-6.10115e-05
9.26481e-06
1.89703e-06
5.6767e-05
3.09482e-06
-3.75044e-05
-8.88891e-06
5.61621e-06
-4.48158e-06
4.21639e-05
-7.33102e-06
-2.79012e-06
2.00455e-06
-1.62592e-06
1.36933e-05
-3.95078e-06
-3.02988e-06
-3.09404e-06
-8.68971e-05
2.45459e-06
8.10933e-06
8.24571e-05
7.43232e-05
-4.9782e-05
0.000158727
9.11209e-06
2.2481e-05
1.47807e-05
2.79371e-05
-6.56256e-06
-1.86716e-05
-4.00211e-06
-1.51931e-05
3.87893e-05
-4.54832e-05
0.00024082
1.00696e-05
9.35928e-06
1.76013e-05
1.50434e-05
3.86647e-06
4.95292e-06
0.000441197
3.03098e-07
1.42789e-06
2.85806e-06
1.36541e-06
3.15211e-06
4.00501e-06
3.53185e-06
-5.05191e-05
5.17374e-06
5.30073e-06
-2.40002e-05
6.79113e-05
2.77579e-07
-3.45522e-08
7.61528e-08
-3.25521e-07
2.10295e-06
1.15691e-06
-1.53937e-06
-1.73519e-06
4.59851e-06
-8.14427e-05
-4.86018e-06
4.95645e-06
4.51967e-06
7.22282e-05
6.69185e-06
1.62133e-05
7.90426e-05
-5.57545e-06
-3.61074e-06
-4.74238e-06
-1.07671e-06
1.09855e-05
2.5456e-05
0.000109227
8.91891e-06
9.27294e-06
0.000118984
9.58288e-06
8.44899e-06
7.49199e-06
3.56521e-06
9.51561e-06
3.98091e-06
-7.1073e-05
1.2004e-05
1.00142e-05
-1.4592e-06
5.94329e-05
1.59661e-08
-9.48438e-07
-5.24074e-09
-4.14846e-08
9.65486e-07
-1.78868e-05
1.69265e-06
-1.40886e-06
5.60916e-06
2.20791e-05
-1.00853e-05
9.47914e-06
6.75457e-06
9.25567e-05
-5.14514e-06
-1.11298e-06
-1.1387e-06
4.38567e-07
6.30967e-06
6.73441e-06
6.18513e-06
-1.02118e-06
6.82941e-06
0.000145952
-1.04367e-06
1.10962e-06
6.60811e-08
6.8926e-06
7.08917e-06
5.68008e-06
-3.22771e-05
-2.656e-06
7.01552e-06
3.61693e-05
-1.55857e-05
-1.57984e-07
6.83133e-06
8.80024e-06
-1.83918e-05
-1.67725e-06
9.40115e-07
2.58835e-05
-5.70232e-05
2.66675e-06
-3.10215e-06
2.52996e-07
6.4035e-05
-1.72915e-05
-9.21312e-07
-6.59167e-07
1.88713e-05
-5.74053e-06
-8.93834e-07
4.1614e-09
6.63503e-06
-3.11484e-06
4.92245e-06
-3.40059e-06
1.59427e-06
2.80462e-06
-5.52389e-06
-5.59841e-05
7.12205e-06
-2.31549e-06
5.38968e-05
5.67602e-06
-4.93426e-05
-9.51769e-06
8.64629e-06
-9.91937e-06
5.44574e-05
-2.08104e-05
-2.59908e-06
4.61022e-06
-1.76095e-06
2.83878e-05
-7.82759e-06
4.53151e-06
2.53597e-06
-8.0964e-05
-4.02252e-06
-7.21718e-06
8.51362e-05
5.22926e-05
2.76357e-06
7.437e-05
6.54898e-06
1.74961e-05
6.97418e-06
1.69164e-05
-7.15216e-07
-1.51485e-05
7.38674e-07
-3.50983e-06
4.367e-05
-2.17382e-05
0.000222882
1.27037e-05
1.05193e-05
1.37113e-05
1.13636e-05
5.50488e-06
1.33918e-05
0.000442012
7.73031e-07
6.70242e-07
2.6776e-06
1.04414e-06
3.90972e-06
7.88977e-06
6.99363e-06
-8.11173e-05
1.52707e-05
1.11753e-05
-8.75866e-06
6.89349e-05
-5.13056e-07
2.51631e-06
2.2529e-06
-4.24935e-06
-6.12339e-06
6.11658e-06
5.40674e-07
-9.39496e-07
-1.17766e-06
1.52646e-06
7.00596e-06
-5.60635e-05
2.23392e-06
-2.2476e-07
7.31918e-06
3.97292e-05
6.49492e-06
1.07669e-05
7.3671e-05
-3.236e-06
-2.48887e-06
-2.18292e-06
-1.21882e-06
2.67119e-06
1.39394e-05
7.73728e-05
6.2877e-06
4.93083e-06
0.000113654
2.87052e-06
3.64962e-06
1.86449e-07
5.6911e-07
3.56455e-06
-6.65052e-07
-5.57132e-05
9.86778e-06
7.66802e-06
-4.26544e-06
4.87305e-05
-3.86392e-06
8.54196e-06
-7.68834e-07
-6.0759e-06
-9.29226e-06
1.1459e-05
-2.49438e-05
-2.06609e-06
4.7666e-07
7.10534e-06
2.9758e-05
-1.03301e-05
-2.91306e-06
3.82173e-06
0.000106452
-1.45683e-06
-1.00722e-06
-2.31769e-06
-5.11437e-06
2.68552e-06
1.92961e-06
1.24388e-06
-3.18716e-06
4.25293e-06
0.000156091
-3.49208e-06
-3.11964e-06
-3.62684e-06
3.67594e-06
3.80982e-06
2.57441e-06
-4.19872e-05
-2.35185e-06
4.97871e-06
4.1104e-05
-3.16847e-06
-3.8153e-06
2.98998e-06
-2.00244e-06
5.95318e-06
4.45542e-06
5.40584e-06
-4.77879e-06
-5.08247e-06
-3.15374e-05
9.25121e-07
-4.16451e-07
3.48505e-05
-7.01495e-05
3.87923e-06
-3.39865e-06
5.58367e-07
7.33635e-05
-1.93352e-05
2.90909e-07
4.02923e-07
1.86395e-05
-6.97044e-06
1.90579e-06
-2.17545e-06
7.24275e-06
-1.146e-06
2.16572e-06
-2.68112e-06
1.66258e-06
6.4385e-07
-3.55318e-06
-5.30347e-05
3.94913e-06
-1.07965e-06
5.30746e-05
4.77966e-06
-5.7245e-05
-6.21723e-06
9.15212e-06
-8.06185e-06
5.75923e-05
-3.73879e-05
-3.70407e-06
6.27439e-06
1.40834e-07
4.61266e-05
-1.14499e-05
8.5968e-06
3.27044e-06
-8.798e-05
-6.74061e-06
-2.70552e-06
8.55589e-05
1.98131e-05
5.25767e-06
3.62768e-05
1.32806e-06
6.80869e-06
-7.29223e-07
3.3668e-06
1.76799e-06
-9.39932e-07
6.00447e-07
8.19598e-07
3.9734e-05
-1.29066e-05
0.000189692
7.47583e-06
6.2888e-06
6.79823e-06
5.61307e-06
7.73568e-06
1.88518e-05
0.000437056
-1.0745e-06
-1.90983e-06
7.62552e-07
-1.47968e-06
6.33576e-06
8.10763e-06
7.36074e-06
-7.4905e-05
2.64534e-07
5.89076e-06
-2.49573e-06
7.89811e-05
-9.82458e-06
2.29021e-06
-2.91991e-06
2.73487e-06
-4.71401e-06
1.24334e-05
-2.53801e-06
-3.64124e-06
4.6834e-06
1.49585e-06
-2.13925e-07
-3.14331e-05
-4.79007e-06
-1.11239e-06
6.23729e-06
3.13122e-05
4.52501e-06
-4.45717e-07
7.62817e-05
-6.19675e-07
1.0746e-07
-3.62707e-07
-5.5746e-07
-2.92573e-06
7.0459e-06
6.4871e-05
3.04178e-06
2.48175e-06
0.000131682
-2.76707e-06
-7.51921e-07
-5.85683e-06
-5.37488e-07
2.72434e-06
-4.37181e-07
-4.31805e-05
2.87765e-06
3.31218e-06
-1.39158e-06
4.1424e-05
-1.67613e-05
5.8687e-06
-2.37192e-06
-1.08106e-06
-6.39364e-06
2.07393e-05
-3.28129e-05
-1.03303e-06
2.07743e-07
5.28246e-06
3.51037e-05
-6.74799e-06
-7.44424e-06
9.98324e-07
0.000118392
-1.61375e-06
-3.97131e-06
8.46931e-08
-2.6132e-06
9.39012e-08
1.36419e-06
7.1576e-07
-5.08619e-06
1.8656e-06
0.000166631
-3.9137e-06
-4.12439e-06
-3.58155e-06
1.14181e-06
2.02137e-06
7.38184e-07
-4.16071e-05
-3.20287e-06
2.42313e-06
3.97824e-05
-8.06662e-06
2.29205e-06
5.17947e-06
-8.73477e-06
9.32654e-06
7.2349e-06
-3.13876e-06
8.6555e-06
-5.67359e-06
-7.07804e-06
-3.73783e-05
1.14073e-06
-2.2836e-06
3.95195e-05
-7.53473e-05
4.64664e-06
-3.33633e-06
6.43609e-07
7.5259e-05
-1.76572e-05
3.71891e-08
1.11317e-06
1.65041e-05
-7.808e-06
4.46609e-06
-3.57033e-06
6.90831e-06
-2.313e-06
-1.11669e-06
3.11225e-07
3.12041e-06
-1.09945e-06
6.89023e-07
-5.39151e-05
-1.64954e-06
1.39106e-06
5.45841e-05
2.75556e-06
-5.47298e-05
-3.22366e-07
5.6211e-06
-4.55604e-06
5.12315e-05
-5.32331e-05
-7.07625e-07
6.91312e-06
3.56897e-07
5.624e-05
-9.56927e-06
2.07118e-06
2.16877e-06
-8.21779e-05
-1.51845e-06
5.11771e-07
7.89446e-05
-3.95837e-06
8.56199e-06
5.3767e-05
-5.48125e-06
-3.91619e-06
-7.84276e-06
-5.50945e-06
1.75863e-06
5.43766e-07
-6.4338e-07
-1.0032e-06
2.41069e-05
1.90611e-05
0.000147497
-1.71527e-06
-2.31036e-06
-9.80305e-07
7.46146e-08
6.6845e-06
2.31431e-05
0.000435642
-2.99805e-06
-2.19325e-06
-1.21994e-06
-3.96502e-06
5.21556e-06
-1.24506e-06
2.0989e-06
-0.000100186
3.99899e-06
9.09097e-06
1.25553e-06
9.25247e-05
-1.95769e-05
-1.06637e-05
1.06863e-05
6.81369e-06
1.27406e-05
-1.04113e-06
-1.23283e-06
7.41657e-07
1.53369e-06
7.57192e-07
-3.02512e-05
-2.52001e-06
8.04356e-07
3.73258e-06
2.7477e-05
-2.13591e-06
-1.03137e-05
9.43533e-05
-1.81818e-07
-7.26272e-07
2.68911e-06
1.159e-06
-6.16392e-06
1.12564e-05
7.67037e-05
-2.26292e-06
2.17843e-06
0.000171949
-9.51687e-06
-4.41163e-06
-1.49877e-05
6.44496e-07
3.55729e-06
1.51112e-06
-4.1247e-05
-4.21786e-06
-4.0478e-06
2.33767e-06
4.49121e-05
-1.5746e-05
-3.69897e-06
4.02758e-06
-4.56597e-07
6.3243e-06
9.54968e-06
-3.69908e-05
-1.85329e-06
6.35124e-07
3.78819e-06
3.78408e-05
-3.42003e-06
-1.38776e-05
6.82036e-07
0.000124987
-6.7096e-07
-2.29131e-06
3.07565e-07
-1.77648e-06
-2.83786e-07
8.82761e-07
1.1912e-07
-5.81146e-06
1.58951e-06
0.000177592
-4.15632e-06
-4.60192e-06
-3.50353e-06
3.99533e-07
1.83848e-06
6.63555e-07
-4.14578e-05
-4.57634e-06
1.06881e-06
4.13324e-05
-9.72935e-06
-5.52938e-06
6.65675e-06
8.60647e-06
-4.16815e-05
1.47067e-06
-2.36003e-06
4.32529e-05
-7.62553e-05
4.07281e-06
-3.50271e-06
4.68201e-07
7.68065e-05
-1.57328e-05
-1.39278e-06
1.7768e-06
1.53498e-05
-5.64883e-06
2.01427e-06
-1.09445e-06
4.7278e-06
-3.98453e-06
-3.40218e-06
2.79479e-06
4.59214e-06
-1.63334e-06
1.84341e-06
-5.35542e-05
-2.04432e-06
1.77381e-06
5.36146e-05
2.67817e-06
-4.58517e-05
1.19193e-06
4.23669e-06
-1.84148e-06
3.95864e-05
-5.93119e-05
6.55344e-08
3.15895e-06
3.38513e-07
6.21446e-05
-6.39576e-06
-2.62936e-06
1.4153e-06
-7.58627e-05
1.44185e-06
2.73601e-06
7.28989e-05
-1.01823e-05
1.43542e-05
7.43279e-05
-7.93538e-06
-5.19599e-06
-7.06019e-06
-4.16878e-06
-1.21023e-06
5.20334e-07
-1.40878e-06
1.72618e-06
1.40272e-05
1.41882e-05
0.000110116
-4.88758e-07
-6.58748e-07
-5.74975e-07
7.06279e-07
-4.67446e-06
2.89105e-05
0.000439856
-3.20134e-06
-4.34931e-06
-9.50913e-07
-2.61464e-06
-2.27413e-06
-1.20705e-06
1.75169e-07
-8.73121e-05
-9.58704e-06
4.67055e-06
8.75533e-05
-2.18406e-06
-8.07139e-07
-1.30396e-07
3.12122e-06
1.34068e-06
-2.6668e-05
-1.68272e-07
-1.35607e-06
-1.01839e-07
2.69535e-05
-3.66254e-06
-8.11795e-06
0.000108821
2.74466e-06
1.22491e-06
3.99935e-06
3.69839e-06
-1.05289e-05
7.0114e-06
9.07469e-05
-9.10669e-06
3.0871e-06
0.000218643
-1.49077e-05
-8.41013e-06
-1.0683e-05
2.59448e-06
5.13788e-06
3.97631e-06
-6.57291e-05
-6.69456e-06
-1.96616e-05
1.1679e-05
7.12996e-05
-3.89533e-05
-2.57081e-06
1.36245e-06
2.34455e-06
3.95762e-05
-1.75908e-06
-1.96749e-05
3.2887e-07
0.000138695
-5.88993e-07
-1.04464e-06
4.3739e-07
-6.57931e-07
-6.44293e-07
2.50621e-07
-2.31788e-07
-6.26949e-06
1.02828e-06
0.000180835
-4.02905e-06
-4.83418e-06
-3.56111e-06
2.20032e-07
1.10679e-06
4.32424e-07
-4.30176e-05
-3.62743e-06
1.07171e-06
4.2391e-05
-7.51364e-06
-2.21729e-07
2.90622e-06
4.83006e-06
-4.47598e-05
1.51134e-06
-2.15525e-06
4.57325e-05
-7.7735e-05
3.55743e-06
-2.98077e-06
-3.7435e-08
7.8224e-05
-1.51235e-05
-1.79871e-06
2.04264e-06
1.48787e-05
-4.32105e-06
-1.74155e-07
-7.25865e-07
5.21892e-06
-4.31239e-06
-3.04226e-06
3.25072e-06
4.10177e-06
-4.65443e-06
1.3253e-06
-5.47866e-05
-1.52851e-06
5.19593e-06
5.44483e-05
-3.30553e-08
-3.46738e-05
1.1145e-06
9.13376e-07
3.84449e-06
2.88345e-05
-6.29124e-05
2.32125e-06
1.10944e-07
9.77761e-07
6.1324e-05
-1.82157e-06
-4.24437e-06
1.92997e-06
-7.03367e-05
1.6301e-06
3.84637e-06
6.71747e-05
-3.59136e-06
6.27844e-06
9.69567e-05
-5.32662e-06
-4.19774e-06
-6.10301e-06
-4.26924e-06
-3.0499e-06
4.72194e-08
-2.84678e-06
4.30219e-07
8.52091e-06
8.24508e-06
0.000103209
-3.97901e-06
-1.85757e-06
-4.95715e-06
-2.65674e-06
5.45231e-07
3.04073e-05
0.00041707
-3.29774e-06
-2.79256e-06
-1.5414e-06
-2.9448e-06
3.63248e-06
1.37037e-06
5.92758e-06
-8.59281e-05
-4.7133e-06
7.53446e-06
8.36519e-05
-4.13772e-06
-7.62681e-07
-1.15579e-07
5.01598e-06
1.80922e-06
-2.8043e-05
6.19885e-07
-2.06951e-06
-1.37452e-06
2.9058e-05
-1.55641e-06
-1.22014e-05
0.000119301
1.91797e-06
2.09526e-06
2.47338e-06
3.06985e-06
-1.22958e-05
1.3579e-06
0.000108373
-3.96319e-06
3.39265e-06
0.000242506
-9.20613e-06
-1.81412e-06
-7.47515e-06
3.9403e-06
4.9712e-06
4.40248e-06
-7.10296e-05
-5.9222e-06
-7.2199e-06
8.99674e-06
7.12118e-05
-4.00593e-05
-2.64423e-06
1.64707e-06
1.45262e-06
4.01864e-05
-5.82612e-07
-2.09011e-05
-3.96556e-07
0.000148806
-2.24357e-07
-2.03868e-07
1.05324e-06
3.55108e-07
-8.9685e-07
-5.53883e-07
-5.44755e-07
-6.50493e-06
2.51059e-07
0.000180567
-4.08144e-06
-5.1474e-06
-3.83692e-06
-2.9247e-07
5.37126e-07
-2.00448e-07
-4.40113e-05
-2.78079e-06
1.15997e-06
4.25199e-05
-4.3243e-06
-7.73409e-07
7.88873e-07
4.30786e-06
-4.64808e-05
1.34314e-06
-2.04888e-06
4.679e-05
-7.88072e-05
3.18519e-06
-2.72126e-06
1.50497e-07
7.84438e-05
-1.46304e-05
-1.42877e-06
2.19164e-06
1.38677e-05
-6.02604e-06
-2.89413e-07
2.43941e-07
6.07335e-06
-4.26768e-06
-2.6464e-06
2.74429e-06
4.17363e-06
-5.04084e-06
1.33795e-06
-5.28848e-05
-4.66079e-07
6.08686e-06
5.09669e-05
-4.24982e-07
-2.35928e-05
5.99179e-07
-4.54676e-07
3.93578e-06
1.99375e-05
-5.85361e-05
3.21798e-06
-1.59203e-06
6.07105e-07
5.48332e-05
1.4699e-06
-4.18078e-06
2.52903e-06
-6.37682e-05
6.72513e-07
4.58437e-06
6.01631e-05
2.54725e-06
7.87199e-06
0.000120759
-7.63381e-06
-5.25105e-06
-7.68887e-06
-4.24434e-06
-3.80628e-06
-1.8426e-06
-2.99061e-06
-7.64208e-07
7.40899e-06
7.30108e-06
0.000104855
-4.65591e-06
-3.15138e-06
-3.63192e-06
-2.37048e-06
4.51157e-07
2.86686e-05
0.000397185
-3.23798e-06
-2.74016e-06
-1.038e-06
-2.0774e-06
3.55335e-06
2.82724e-07
3.43159e-06
-8.16333e-05
-4.25082e-06
7.11537e-06
7.92189e-05
-5.75242e-06
-5.10311e-07
-1.11774e-07
6.37326e-06
2.40653e-06
-3.04024e-05
9.24273e-08
-2.0791e-06
-1.36896e-06
3.13515e-05
1.76166e-06
-1.14667e-05
0.00013237
2.55749e-07
1.01696e-06
1.36253e-06
1.87197e-06
-1.10723e-05
5.41011e-07
0.000127967
-2.74465e-06
3.09327e-06
0.000261282
-7.69438e-06
-3.09805e-06
-5.79957e-06
4.5891e-06
4.79608e-06
5.67883e-06
-7.2599e-05
-6.41359e-06
-6.60535e-06
1.14555e-05
7.14178e-05
-4.06385e-05
-2.92438e-06
1.71359e-06
9.46088e-07
4.11714e-05
-2.68178e-07
-2.10664e-05
-8.94844e-07
0.000158323
2.76037e-07
5.75286e-07
1.51044e-06
1.02187e-06
-9.26074e-07
-9.23284e-07
-5.56246e-07
-6.7343e-06
1.14812e-07
0.000180017
-4.10452e-06
-5.20822e-06
-3.65512e-06
-4.76517e-07
4.45434e-07
-3.56568e-07
-4.3864e-05
-3.53041e-06
1.14176e-06
4.26116e-05
-5.15452e-06
-4.73358e-06
3.7271e-06
6.16101e-06
-4.70731e-05
1.0867e-06
-2.24067e-06
4.73322e-05
-7.82224e-05
3.28467e-06
-2.76413e-06
2.87588e-07
7.7529e-05
-1.29631e-05
-1.44638e-06
2.15899e-06
1.22481e-05
-6.35799e-06
-2.19704e-07
-6.57235e-07
7.23072e-06
-4.24917e-06
-1.95499e-06
1.92213e-06
4.28288e-06
-2.89947e-06
1.46877e-06
-4.84711e-05
-2.47066e-08
3.95596e-06
4.59706e-05
-2.10455e-07
-1.79341e-05
-8.83148e-07
7.56114e-08
2.45175e-06
1.65004e-05
-5.28083e-05
1.78443e-06
-2.03609e-06
3.44488e-07
5.18298e-05
8.85625e-07
-3.94248e-06
2.87564e-06
-5.64931e-05
-1.27056e-07
4.46233e-06
5.32247e-05
4.4411e-06
1.09478e-05
0.000130865
-6.328e-06
-4.71922e-06
-4.4991e-06
-3.116e-06
-2.53568e-06
-1.96898e-06
-1.69902e-06
-6.28282e-07
6.31223e-06
7.63398e-06
0.000107226
-3.91469e-06
-3.29266e-06
-2.53867e-06
-2.13008e-06
-1.21273e-06
2.65884e-05
0.000383929
-2.47371e-06
-1.80367e-06
-8.52577e-07
-1.31506e-06
1.10106e-06
-1.23354e-06
7.7016e-07
-7.65686e-05
-1.92581e-06
5.15491e-06
7.21265e-05
-6.96923e-06
-4.29705e-08
-6.00789e-07
7.61299e-06
3.26773e-06
-3.27425e-05
-7.57265e-07
-2.86508e-06
-8.50958e-07
3.39481e-05
3.46325e-06
-8.17526e-06
0.000145764
-6.12231e-08
1.05793e-07
1.05746e-06
1.1641e-06
-1.18265e-05
2.8772e-06
0.000148014
-4.67826e-06
2.86488e-06
0.000274932
-5.31527e-06
-4.80544e-06
-4.60558e-06
5.94462e-06
4.87237e-06
6.83424e-06
-6.97822e-05
-6.81703e-06
-7.38124e-06
1.34179e-05
6.58843e-05
-4.23287e-05
-3.16545e-06
1.71476e-06
8.091e-07
4.35025e-05
-5.3224e-07
-1.99304e-05
-8.97964e-07
0.000168778
4.1287e-07
9.30239e-07
1.49872e-06
1.21626e-06
-7.69967e-07
-7.21369e-07
-3.68986e-07
-6.54754e-06
2.50871e-07
0.000181621
-3.7527e-06
-4.8217e-06
-3.69794e-06
-3.71269e-07
5.44704e-07
-2.61516e-07
-4.45827e-05
-3.9758e-06
1.10731e-06
4.37686e-05
-7.67077e-06
-6.40566e-06
4.77496e-06
9.29832e-06
-4.76486e-05
1.06556e-06
-2.41873e-06
4.81038e-05
-7.68957e-05
3.42864e-06
-2.62502e-06
4.52453e-07
7.58905e-05
-1.18e-05
-1.64706e-06
2.29123e-06
1.11538e-05
-7.88914e-06
-1.48649e-07
-4.23407e-07
8.45957e-06
-4.17811e-06
-1.12219e-06
1.11887e-06
4.18283e-06
-1.61468e-06
1.90117e-06
-4.32957e-05
-1.43764e-06
4.15836e-06
4.02885e-05
9.25137e-07
-1.57457e-05
-1.47062e-06
8.59632e-07
1.13545e-06
1.42961e-05
-5.0459e-05
1.74976e-06
-1.45067e-06
8.33453e-07
4.82215e-05
1.10494e-06
-3.90214e-06
2.11764e-06
-5.09234e-05
-8.17328e-07
3.82036e-06
4.97049e-05
4.6001e-06
9.03339e-06
0.000134771
-3.79351e-06
-3.6547e-06
-3.5852e-06
-2.88446e-06
-1.30599e-06
-1.5641e-06
-5.06423e-07
-2.45467e-07
3.63648e-06
8.51326e-06
0.000109386
-2.94362e-06
-2.8872e-06
-1.9183e-06
-1.96042e-06
-1.62922e-06
2.42142e-05
0.000374698
-2.38227e-06
-8.40384e-07
-8.57605e-07
-5.75654e-07
-1.8548e-06
-1.23939e-06
-1.9669e-06
-6.77049e-05
9.52002e-07
1.5598e-06
6.35617e-05
-8.32215e-06
3.38817e-07
-9.86449e-07
8.96978e-06
3.76825e-06
-3.57027e-05
-1.64415e-06
-3.45775e-06
-1.97509e-07
3.72339e-05
4.73928e-06
-7.46807e-06
0.000156606
-3.48208e-07
-3.12169e-07
7.88023e-07
7.92909e-07
-1.03772e-05
5.7818e-06
0.000165862
-4.43236e-06
3.10908e-06
0.000283037
-4.16427e-06
-3.4671e-06
-3.60638e-06
6.42404e-06
5.20876e-06
6.66032e-06
-6.17976e-05
-6.10537e-06
-5.14403e-06
1.05299e-05
5.80848e-05
-4.47396e-05
-3.11534e-06
1.88017e-06
1.1753e-06
4.55132e-05
-7.13778e-07
-1.94127e-05
-7.30389e-07
0.000178658
2.32164e-07
1.06289e-06
1.36055e-06
1.42488e-06
-5.965e-07
-4.70085e-07
-2.18493e-07
-6.10857e-06
3.94132e-07
0.000185147
-3.67275e-06
-4.31934e-06
-3.66287e-06
-2.98069e-07
6.76306e-07
-1.66036e-07
-4.64085e-05
-4.09976e-06
1.17041e-06
4.63383e-05
-1.07855e-05
-5.6342e-06
4.3552e-06
1.20635e-05
-4.86953e-05
1.25758e-06
-2.64952e-06
4.93569e-05
-7.52276e-05
3.45965e-06
-2.55657e-06
2.6757e-07
7.44511e-05
-1.00966e-05
-1.63894e-06
2.26592e-06
9.46851e-06
-9.15746e-06
-2.78319e-07
-2.80816e-07
9.7167e-06
-4.6286e-06
-1.3453e-06
1.15059e-06
4.82194e-06
-3.32496e-07
3.09765e-06
-3.58367e-05
-1.63746e-06
3.23803e-06
3.1471e-05
2.37595e-07
-1.36908e-05
-1.58709e-06
5.92063e-07
8.06571e-07
1.36417e-05
-4.62033e-05
1.23577e-06
-1.43687e-06
8.2473e-07
4.46514e-05
9.2827e-07
-2.77616e-06
2.0596e-06
-4.89587e-05
-1.64721e-06
3.12084e-06
4.82016e-05
7.174e-06
-2.73406e-07
0.00013945
-3.11368e-06
-2.8791e-06
-2.71587e-06
-1.52716e-06
-3.60282e-07
-1.3542e-06
3.45433e-07
2.54528e-08
7.39024e-06
6.87453e-06
0.000107649
-1.78554e-06
-2.33348e-06
-1.22649e-07
-1.11198e-06
-3.99117e-07
2.22603e-05
0.000364697
-2.50022e-06
-6.76836e-07
-8.14137e-07
-7.64023e-07
-6.4759e-07
2.4615e-07
6.86168e-07
-5.98977e-05
9.94069e-07
1.70952e-06
5.67969e-05
-9.51064e-06
5.66995e-07
-9.9526e-07
9.93891e-06
3.87147e-06
-3.89232e-05
-1.66275e-06
-3.52895e-06
1.25273e-07
4.01182e-05
5.17541e-06
-1.0618e-05
0.000162182
-5.52441e-07
-7.3982e-07
5.29035e-07
3.5664e-07
-6.35639e-06
7.22082e-06
0.000177047
-2.48878e-06
3.41706e-06
0.000287978
-3.13941e-06
-1.58884e-06
-3.1839e-06
6.12731e-06
5.54921e-06
6.26988e-06
-5.5595e-05
-4.48732e-06
-3.37168e-06
7.16867e-06
5.37966e-05
-4.62377e-05
-2.80021e-06
1.9241e-06
9.34859e-07
4.67078e-05
-5.28877e-07
-2.00638e-05
-6.54192e-07
0.000185752
1.37102e-07
1.24001e-06
1.25145e-06
1.66696e-06
-5.33955e-07
-4.95292e-07
-2.6029e-07
-5.59008e-06
2.9983e-07
0.000188396
-3.76395e-06
-3.7716e-06
-3.639e-06
-2.62126e-07
6.09632e-07
2.56356e-08
-4.96548e-05
-4.01315e-06
1.70793e-06
4.97869e-05
-1.30555e-05
-4.15844e-06
3.60538e-06
1.36087e-05
-5.018e-05
1.69127e-06
-3.11749e-06
5.0952e-05
-7.39446e-05
3.63783e-06
-2.63944e-06
1.96313e-07
7.30497e-05
-9.43202e-06
-2.10383e-06
1.89674e-06
9.63947e-06
-1.023e-05
-3.4973e-07
1.66054e-07
1.04144e-05
-4.45671e-06
2.91512e-07
2.81523e-07
3.88368e-06
-1.05884e-06
1.30339e-06
-2.93173e-05
-1.90971e-06
2.01049e-06
2.8972e-05
3.66094e-07
-1.39592e-05
1.0071e-06
-1.42834e-06
-4.96183e-07
1.45105e-05
-4.32994e-05
1.29023e-06
-1.72897e-06
5.75382e-07
4.17796e-05
1.38318e-06
-1.48027e-06
2.18176e-06
-4.75286e-05
-2.43441e-06
2.26614e-06
4.69954e-05
8.67337e-06
-1.02674e-05
0.00014256
-1.67284e-06
-2.53087e-07
-1.0825e-06
1.25447e-06
3.96113e-07
-1.23343e-06
1.0155e-06
5.95623e-08
8.23991e-06
4.60235e-06
0.000104722
-3.56551e-08
-1.32748e-06
4.74785e-07
-3.53712e-07
6.48689e-07
2.15024e-05
0.000354575
-2.54676e-06
-1.14811e-06
-8.56885e-07
-1.22189e-06
3.19586e-07
9.39918e-07
7.25241e-07
-5.48389e-05
-9.46153e-07
2.08966e-06
5.43445e-05
-1.02654e-05
7.11371e-07
-9.68581e-07
1.05226e-05
3.70416e-06
-4.14472e-05
-1.51299e-06
-3.29075e-06
1.46689e-07
4.24e-05
5.01845e-06
-1.40146e-05
0.000162229
-6.35286e-07
-1.04869e-06
3.94683e-07
-2.92587e-08
-4.32694e-06
7.95247e-06
0.000183043
-1.79056e-06
3.62177e-06
0.000291758
-2.9269e-06
-1.07395e-06
-2.8138e-06
6.17023e-06
6.03695e-06
6.17179e-06
-5.22097e-05
-2.99133e-06
-1.19767e-06
4.49619e-06
5.0112e-05
-4.71872e-05
-2.48133e-06
2.058e-06
5.03862e-07
4.71515e-05
-4.47811e-08
-1.97368e-05
-7.73827e-07
0.000190295
-1.33616e-07
1.38405e-06
9.09725e-07
1.68384e-06
-6.63889e-07
-7.60775e-07
-4.66835e-07
-5.36653e-06
2.66577e-07
0.000191667
-3.71535e-06
-3.54954e-06
-3.53482e-06
5.26824e-08
5.87516e-07