/*--------------------------------*- C++ -*----------------------------------*\
| =========                 |                                                 |
| \\      /  F ield         | OpenFOAM: The Open Source CFD Toolbox           |
|  \\    /   O peration     | Version:  5.x                                   |
|   \\  /    A nd           | Web:      www.OpenFOAM.org                      |
|    \\/     M anipulation  |                                                 |
\*---------------------------------------------------------------------------*/
FoamFile
{
    version     2.0;
    format      ascii;
    class       volScalarField;
    location    "1.3";
    object      p;
}
// * * * * * * * * * * * * * * * * * * * * * * * * * * * * * * * * * * * * * //

dimensions      [0 2 -2 0 0 0 0];

internalField   nonuniform List<scalar> 
10571
(
130.637
105.161
105.8
133.552
160.883
91.3561
147.799
182.93
198.783
185.96
48.2079
89.8986
166.672
206.746
215.876
188.572
112.138
169.042
199.635
197.168
172.491
140.254
153.11
166.924
42.8799
46.5918
44.1775
37.0898
54.7906
40.3755
32.9657
30.864
20.7637
61.5037
32.4721
33.7906
24.4309
10.2315
18.2579
63.4323
35.5907
11.9888
15.64
64.4902
62.6308
43.9857
42.7948
52.6387
8.1524
2.6325
7.54308
26.1744
3.1996
3.61178
1.97398
1.82558
1.64989
2.48202
22.9813
9.46951
1.37074
1.39136
1.49991
2.33578
2.55769
1.08559
1.38109
2.10734
2.42065
1.96044
2.33847
2.30384
2.67649
2.65075
2.68705
2.45685
2.6524
2.68868
2.42541
2.43516
2.68092
2.53116
1.57499
2.56299
2.62373
2.81352
2.66519
2.53593
2.49601
2.58872
2.62477
2.42379
2.52267
2.3641
2.54088
2.38827
2.47721
2.52351
2.4659
2.50387
2.50758
2.48688
2.48708
2.51586
2.43647
2.43412
2.64467
2.42879
2.46391
2.39488
2.3852
2.41538
2.43527
2.3144
2.36132
2.38144
2.40392
2.37971
2.4028
2.43054
2.4653
2.46831
2.45304
2.45744
2.46208
2.42086
2.41795
2.43022
2.40272
2.41991
2.42626
2.38191
2.40991
2.41755
2.41998
2.39105
2.4106
2.41095
2.39115
2.38421
2.37197
2.38509
2.39104
2.3988
2.38479
2.39371
2.46528
2.43742
2.46396
2.46947
2.45517
2.40596
2.44253
2.42205
2.41668
2.41613
2.4212
2.40759
2.40291
2.42652
2.43742
2.40638
2.40546
2.41955
2.38688
2.42633
2.40412
2.39154
2.40333
2.41937
2.4058
2.40154
2.39553
2.45564
2.43238
2.45685
2.4571
2.44151
2.40441
2.46064
2.43209
2.41338
2.40752
2.4147
2.38901
2.39603
2.4371
2.43572
2.41213
2.40871
2.42109
2.40359
2.42127
2.41116
2.38822
2.38645
2.42046
2.41381
2.40603
2.40021
2.44192
2.42834
2.44265
2.44135
2.4321
2.418
2.45759
2.43606
2.41569
2.41291
2.42182
2.37792
2.39707
2.44398
2.43073
2.42045
2.41832
2.43504
2.40893
2.41031
2.4103
2.38388
2.39942
2.41751
2.40832
2.40422
2.43115
2.42825
2.43051
2.42806
2.42296
2.43166
2.44349
2.43222
2.41221
2.41391
2.43114
2.42285
2.44075
2.42345
2.42282
2.42279
2.4197
2.40402
2.41431
2.39033
2.4095
2.41941
2.41227
2.41044
2.42404
2.42894
2.4235
2.42021
2.41718
2.43246
2.41795
2.42151
2.41086
2.42267
2.62537
2.45987
2.42625
2.41885
2.42563
2.42076
2.43454
2.40393
2.4244
2.40721
2.41997
2.42017
2.42032
2.4195
2.42118
2.42937
2.42138
2.41265
2.41699
2.42235
2.39655
2.41406
2.41899
2.42718
2.51025
2.4315
2.41185
2.42455
2.43161
2.43142
2.43352
2.41828
2.43192
2.42092
2.4336
2.42338
2.43001
2.43045
2.42872
2.43526
2.42496
2.41559
2.43003
2.4295
2.4072
2.4252
2.43696
2.43878
2.45016
2.41712
2.41705
2.43795
2.44917
2.44671
2.43279
2.43676
2.44791
2.43888
2.44853
2.43359
2.44244
2.44422
2.44806
2.44832
2.44071
2.4384
2.45253
2.45202
2.43662
2.45234
2.45877
2.45588
2.45546
2.4412
2.44759
2.46356
2.47294
2.46452
2.44703
2.45264
2.46656
2.46381
2.46627
2.45021
2.45862
2.45968
2.46889
2.46233
2.45902
2.46326
2.47083
2.46934
2.46071
2.4781
2.47695
2.47194
2.47544
2.47627
2.47994
2.48779
2.48812
2.47736
2.46849
2.46479
2.47801
2.48135
2.4784
2.46613
2.4732
2.47097
2.48252
2.47384
2.47059
2.47604
2.4798
2.48075
2.47465
2.48872
2.48918
2.4838
2.48714
2.48705
2.49396
2.49729
2.49556
2.48793
2.48371
2.47194
2.48551
2.48755
2.48586
2.47486
2.48303
2.47924
2.49299
2.4852
2.48219
2.48466
2.4881
2.48996
2.48416
2.49687
2.49696
2.49108
2.49269
2.4916
2.49757
2.49977
2.49863
2.49404
2.48853
2.47884
2.49066
2.49038
2.49189
2.47968
2.48765
2.48647
2.49817
2.49558
2.49945
2.49595
2.49452
2.4969
2.48996
2.50269
2.49584
2.49251
2.49591
2.49496
2.49886
2.50025
2.50066
2.49618
2.49091
2.48416
2.49341
2.49249
2.49604
2.48372
2.49135
2.49191
2.50438
2.50184
2.51773
2.50531
2.49765
2.50051
2.49542
2.50156
2.48759
2.49135
2.49739
2.49675
2.50288
2.50221
2.50071
2.496
2.49504
2.48597
2.49488
2.49417
2.49795
2.49119
2.48958
2.49352
2.50902
2.50165
2.51863
2.50833
2.49728
2.50178
2.50169
2.49564
2.48093
2.49124
2.49779
2.49601
2.50626
2.50285
2.49412
2.49473
2.49616
2.49104
2.49836
2.49413
2.49696
2.50614
2.48991
2.49325
2.50567
2.49995
2.51094
2.50266
2.49501
2.50109
2.50182
2.48895
2.48196
2.49136
2.49628
2.4919
2.50197
2.49956
2.48711
2.49383
2.49304
2.49391
2.49585
2.49161
2.49358
2.51259
2.4978
2.49461
2.49892
2.49827
2.50245
2.49478
2.4921
2.49706
2.497
2.48622
2.48964
2.4925
2.49352
2.4862
2.49634
2.49367
2.48523
2.49141
2.4898
2.49084
2.48981
2.487
2.49007
2.50555
2.49961
2.49489
2.49598
2.49501
2.49444
2.49562
2.48939
2.49173
2.49102
2.49012
2.49654
2.49369
2.49175
2.48345
2.49322
2.49097
2.48768
2.4899
2.4871
2.49394
2.48708
2.48221
2.48797
2.49974
2.49499
2.49197
2.49756
2.49283
2.48988
2.49774
2.49048
2.4889
2.48525
2.49659
2.49611
2.49459
2.49281
2.48529
2.49109
2.49101
2.49192
2.49168
2.4871
2.50037
2.49076
2.48434
2.49147
2.49903
2.49371
2.49107
2.48831
2.49264
2.48972
2.49408
2.48956
2.49017
2.48241
2.49738
2.49053
2.49612
2.49497
2.48947
2.48711
2.49186
2.49585
2.49543
2.4913
2.50903
2.49703
2.49401
2.49736
2.49824
2.49559
2.49311
2.4814
2.49353
2.48898
2.48422
2.48399
2.49373
2.48233
2.49118
2.48825
2.49842
2.49586
2.49274
2.48263
2.49492
2.49879
2.49861
2.4916
2.51092
2.50407
2.50142
2.50233
2.49794
2.49845
2.49756
2.46607
2.49476
2.48857
2.47487
2.48269
2.4965
2.48645
2.48705
2.4911
2.50059
2.49641
2.49269
2.48614
2.49505
2.50176
2.50089
2.49178
2.50984
2.50672
2.506
2.50516
2.49936
2.50079
2.50143
2.45872
2.49642
2.48707
2.47389
2.48929
2.50013
2.49485
2.49156
2.49621
2.50262
2.4992
2.49488
2.49306
2.49519
2.50331
2.50288
2.49294
2.50556
2.50666
2.5054
2.50587
2.50133
2.50219
2.50334
2.47808
2.49971
2.49092
2.4707
2.49859
2.50463
2.50649
2.49709
2.50127
2.50418
2.50499
2.50048
2.49816
2.49837
2.50468
2.50451
2.49651
2.50043
2.50535
2.5036
2.50514
2.50246
2.50283
2.50325
2.51016
2.50419
2.50337
2.48688
2.50325
2.50374
2.51545
2.50287
2.50511
2.50545
2.51043
2.50666
2.50528
2.50233
2.50587
2.50593
2.50242
2.49741
2.50362
2.50217
2.50482
2.50427
2.50343
2.50326
2.5444
2.50865
2.51389
2.51688
2.50858
2.5042
2.52114
2.5089
2.50833
2.50706
2.51589
2.51083
2.51651
2.50678
2.50694
2.50804
2.50766
2.50174
2.50239
2.5027
2.50629
2.50796
2.50543
2.50451
2.54289
2.51252
2.51928
2.52181
2.51121
2.50702
2.5231
2.51548
2.51142
2.51103
2.52269
2.51918
2.52178
2.51357
2.50969
2.51135
2.51391
2.51024
2.5048
2.50652
2.50999
2.51258
2.50849
2.50783
2.52553
2.51873
2.52088
2.51975
2.51399
2.51612
2.52141
2.51989
2.51484
2.51649
2.52887
2.52828
2.52435
2.51909
2.51419
2.51553
2.51707
2.51556
2.51081
2.51127
2.51512
2.51734
2.5122
2.51226
2.52174
2.52466
2.52091
2.51873
2.51684
2.5198
2.51818
2.51944
2.51811
2.52154
2.52632
2.52233
2.52172
2.52115
2.51878
2.51969
2.5191
2.5167
2.515
2.51617
2.52059
2.51973
2.51562
2.51708
2.52145
2.52705
2.52139
2.51878
2.51845
2.5203
2.51519
2.51681
2.51922
2.52492
2.52204
2.51852
2.51892
2.52225
2.52208
2.52306
2.52067
2.51696
2.51742
2.52008
2.52459
2.52127
2.51912
2.52124
2.52287
2.52699
2.52241
2.51973
2.52034
2.52113
2.51516
2.51515
2.52376
2.52843
2.52057
2.5174
2.51817
2.52247
2.52344
2.52621
2.52047
2.51624
2.52057
2.52267
2.52668
2.52272
2.52254
2.52461
2.52461
2.52626
2.52324
2.522
2.52297
2.5227
2.51704
2.51719
2.53087
2.52955
2.52023
2.51856
2.51801
2.52082
2.52311
2.52835
2.52001
2.51708
2.52383
2.524
2.52714
2.52334
2.52425
2.52698
2.5252
2.52591
2.52436
2.5237
2.52215
2.52662
2.52034
2.51955
2.53229
2.52906
2.52164
2.52105
2.51721
2.51927
2.52393
2.52902
2.52115
2.51943
2.526
2.52561
2.52695
2.52359
2.52554
2.52904
2.52578
2.52442
2.52537
2.52397
2.51963
2.52791
2.52503
2.51987
2.5268
2.52728
2.52362
2.52292
2.51545
2.52015
2.52644
2.52783
2.52295
2.52187
2.52705
2.52669
2.52653
2.52431
2.52673
2.53002
2.52715
2.52081
2.52604
2.52518
2.52071
2.52472
2.52792
2.52064
2.52114
2.52653
2.52528
2.5234
2.51556
2.52341
2.53087
2.5287
2.52495
2.52323
2.52668
2.52846
2.52886
2.52435
2.52738
2.53022
2.52955
2.52146
2.5273
2.527
2.52405
2.52277
2.52986
2.52439
2.5217
2.52789
2.52826
2.52438
2.52111
2.52692
2.5351
2.53164
2.52684
2.52477
2.5261
2.53004
2.53188
2.52393
2.52758
2.53016
2.53133
2.5282
2.53007
2.5288
2.52772
2.52331
2.53189
2.52926
2.52499
2.53044
2.53179
2.52687
2.5277
2.52992
2.53587
2.53372
2.52916
2.52774
2.52711
2.5315
2.53376
2.52642
2.52819
2.53037
2.53279
2.53566
2.53299
2.53103
2.53025
2.52372
2.53182
2.53369
2.52784
2.53278
2.53448
2.52886
2.53432
2.53199
2.53429
2.53399
2.53218
2.53216
2.52884
2.53205
2.53362
2.53023
2.5297
2.53078
2.53403
2.54131
2.53392
2.53293
2.53192
2.52661
2.53225
2.53618
2.5313
2.5349
2.53548
2.52917
2.53786
2.53405
2.53188
2.53384
2.5342
2.5346
2.531
2.53208
2.533
2.53392
2.53198
2.53195
2.53442
2.54103
2.53302
2.53382
2.53592
2.53634
2.53446
2.53805
2.53338
2.53643
2.53497
2.53072
2.53847
2.53631
2.5323
2.53438
2.53582
2.53729
2.53316
2.53337
2.53384
2.5369
2.53429
2.53391
2.53542
2.53822
2.53203
2.53484
2.53687
2.53988
2.53445
2.53859
2.53412
2.53701
2.53637
2.53583
2.53746
2.53722
2.53398
2.5362
2.53692
2.53934
2.53515
2.53487
2.53577
2.53831
2.53606
2.53579
2.53597
2.53604
2.53263
2.5341
2.53605
2.53414
2.53355
2.53795
2.53489
2.53725
2.53758
2.53669
2.53647
2.53755
2.53553
2.53841
2.53645
2.54039
2.53718
2.53617
2.53758
2.53892
2.53743
2.53751
2.53766
2.53549
2.53713
2.53667
2.53665
2.53195
2.53488
2.53804
2.53599
2.53735
2.53655
2.53623
2.5368
2.53813
2.53652
2.53986
2.53749
2.53945
2.53898
2.53723
2.53887
2.53926
2.53875
2.53889
2.5435
2.53617
2.53846
2.53863
2.53788
2.5334
2.53691
2.53832
2.5374
2.53751
2.53539
2.53496
2.53838
2.53897
2.53746
2.54028
2.53899
2.53857
2.54042
2.53808
2.54018
2.53976
2.53987
2.5398
2.5417
2.53892
2.53902
2.53925
2.53897
2.53762
2.53931
2.53911
2.53906
2.53779
2.53962
2.53824
2.54139
2.53865
2.53741
2.54022
2.54095
2.53938
2.54207
2.53876
2.54083
2.54077
2.54087
2.54049
2.54195
2.54226
2.54085
2.54006
2.53997
2.54125
2.54141
2.54024
2.54015
2.53868
2.55074
2.54292
2.54403
2.53799
2.53706
2.53985
2.54233
2.54056
2.54275
2.53925
2.54111
2.54212
2.5417
2.54109
2.54308
2.5437
2.54343
2.54151
2.54075
2.54212
2.54189
2.5413
2.54102
2.54034
2.54851
2.54407
2.54571
2.53979
2.53751
2.53953
2.54303
2.54173
2.54204
2.53988
2.54117
2.54352
2.54224
2.54153
2.54399
2.54462
2.54469
2.54286
2.54204
2.54084
2.54318
2.54223
2.54147
2.54224
2.54548
2.54411
2.54646
2.54195
2.53872
2.5404
2.54304
2.5426
2.54192
2.54068
2.54135
2.54444
2.54279
2.54236
2.54417
2.54616
2.54514
2.54347
2.54386
2.54344
2.54394
2.54225
2.54144
2.54316
2.54546
2.54495
2.54566
2.54368
2.54031
2.54162
2.54323
2.54296
2.54227
2.5412
2.54176
2.54473
2.54312
2.54306
2.54449
2.54675
2.54506
2.54409
2.54466
2.54529
2.54371
2.54156
2.54118
2.54264
2.54654
2.54607
2.54518
2.54418
2.54005
2.54162
2.54403
2.54323
2.54276
2.54077
2.54159
2.54493
2.54341
2.54311
2.54506
2.54616
2.54558
2.5446
2.54427
2.54605
2.54388
2.5414
2.53896
2.5401
2.54798
2.54714
2.54487
2.54325
2.53811
2.53942
2.54522
2.54349
2.54284
2.53964
2.54012
2.54527
2.54367
2.54253
2.54613
2.54563
2.54585
2.54504
2.54282
2.54716
2.54432
2.54165
2.53537
2.53528
2.54957
2.54852
2.54441
2.5417
2.5346
2.53456
2.54784
2.54377
2.54237
2.53746
2.53664
2.54598
2.54402
2.54147
2.54697
2.54705
2.54561
2.54548
2.54115
2.54891
2.54498
2.5418
2.5307
2.52832
2.55147
2.55042
2.54466
2.53943
2.52908
2.52568
2.55106
2.54518
2.54259
2.53496
2.53049
2.54853
2.54522
2.5406
2.54846
2.5507
2.54656
2.54617
2.5396
2.55188
2.54622
2.54079
2.52383
2.51609
2.55405
2.55301
2.54667
2.53672
2.51944
2.50937
2.55536
2.54834
2.54372
2.53169
2.5203
2.55336
2.54782
2.54059
2.55124
2.55596
2.55059
2.54754
2.53834
2.55605
2.54923
2.53672
2.51226
2.49181
2.55792
2.55674
2.54966
2.53278
2.50394
2.47432
2.56001
2.55359
2.5451
2.52628
2.5019
2.56201
2.5542
2.54186
2.55606
2.5628
2.55751
2.55056
2.53679
2.56164
2.55269
2.53062
2.48859
2.4393
2.5637
2.56182
2.55429
2.52583
2.47891
2.39501
2.56527
2.56081
2.54933
2.52002
2.46938
2.56842
2.56564
2.54688
2.56307
2.57059
2.56676
2.55571
2.53541
2.5683
2.5574
2.52272
2.45347
2.30978
2.57101
2.56882
2.55986
2.51863
2.44239
2.21849
2.57175
2.56716
2.55415
2.51161
2.40608
2.57335
2.57284
2.55525
2.57161
2.57911
2.57692
2.56293
2.53542
2.57599
2.56514
2.51953
2.41825
1.94813
2.57898
2.57671
2.56754
2.51327
2.41267
1.93592
-2.07989
2.57912
2.57753
2.56085
2.50533
2.25534
2.57997
2.5771
2.56872
2.58124
2.58746
2.58623
2.57354
2.54456
2.5843
2.57628
2.53402
2.42452
1.73045
0.0782391
2.58592
2.58458
2.57728
2.53764
2.41072
1.9189
0.0553336
2.58808
2.59091
2.57769
2.51321
2.10661
2.58837
2.58181
2.57529
2.59114
2.59462
2.59309
2.58584
2.56664
2.592
2.58949
2.55889
2.47168
1.95958
0.495144
2.59249
2.59115
2.58979
2.56138
2.46667
1.9845
0.486159
2.596
2.60094
2.59032
2.55027
2.28122
0.734239
2.59749
2.59028
2.586
2.60055
2.59966
2.59821
2.59486
2.58565
2.59894
2.60352
2.5808
2.51993
2.0953
0.49531
2.59913
2.59844
2.60729
2.58542
2.54167
2.17418
0.404401
2.60185
2.60763
2.60413
2.5686
2.32257
2.60506
2.60092
2.59676
2.60178
2.60349
2.60373
2.59952
2.58888
2.60533
2.61334
2.60165
2.56877
2.26954
2.60627
2.60648
2.61676
2.6106
2.59317
2.31454
-1.05576
2.60697
2.61293
2.61298
2.59659
2.50198
2.61031
2.60873
2.60846
2.60654
2.60627
2.60829
2.60541
2.60371
2.60781
2.61483
2.61324
2.5959
2.52917
2.60756
2.60789
2.61493
2.6151
2.60945
2.52995
2.60983
2.61398
2.61533
2.60632
2.583
2.61287
2.61334
2.61389
2.61407
2.61015
2.6136
2.61497
2.61352
2.60914
2.61554
2.61496
2.60953
2.59192
2.60777
2.60477
2.61455
2.61737
2.6152
2.59258
2.61218
2.61651
2.61847
2.6141
2.60816
2.61709
2.6184
2.61829
2.61988
2.61949
2.61906
2.62162
2.6193
2.62029
2.61821
2.61921
2.61686
2.61199
2.61534
2.61175
2.61497
2.61952
2.61898
2.61244
2.61808
2.6204
2.6207
2.61871
2.61696
2.62175
2.62163
2.62097
2.62395
2.62514
2.62313
2.62312
2.62318
2.62798
2.62152
2.62189
2.62178
2.62012
2.62434
2.6216
2.61726
2.62146
2.62225
2.62001
2.62225
2.62038
2.62236
2.62175
2.62141
2.62293
2.62298
2.62275
2.62697
2.62877
2.6264
2.62569
2.62601
2.62957
2.62549
2.62495
2.62522
2.6245
2.62893
2.62487
2.62154
2.62379
2.62498
2.62412
2.61695
2.62177
2.62432
2.62423
2.62442
2.62401
2.62455
2.62469
2.62904
2.63175
2.62925
2.62811
2.62795
2.63149
2.62703
2.62735
2.62735
2.62698
2.63267
2.62868
2.62523
2.62675
2.62716
2.62664
2.62097
2.62573
2.62701
2.62643
2.62663
2.62626
2.62669
2.62673
2.63022
2.63322
2.63089
2.62953
2.62909
2.6339
2.6294
2.62858
2.62847
2.62839
2.63595
2.63296
2.62774
2.62795
2.62821
2.62812
2.63273
2.62838
2.62842
2.62807
2.62807
2.62965
2.62859
2.62827
2.63078
2.63397
2.6313
2.63003
2.62947
2.63462
2.63055
2.6294
2.62902
2.62892
2.63723
2.63526
2.63005
2.62906
2.62879
2.62872
2.63671
2.63056
2.62934
2.62878
2.62858
2.631
2.62948
2.62888
171.699
184.882
184.505
194.209
190.78
204.942
207.805
210.484
153.954
165.028
180.382
175.925
187.065
189.677
200.181
199.455
214.039
211.85
220.353
225.659
235.425
227.836
226.588
247.302
249.335
243.111
161.194
135.507
153.983
178.214
193.996
177.613
199.249
217.335
232.893
226.11
242.395
244.826
252.959
254.367
264.536
263.149
268.585
271.806
277.227
258.876
267.811
252.111
134.351
152.834
154.938
177.828
200.974
178.954
202.404
229.87
246.496
230.999
249.386
259.99
270.706
261.413
270.624
275.231
278.849
275.307
271.885
264.565
248.297
253.199
157.725
181.876
206.916
184.098
206.979
232.02
248.056
231.671
244.511
259.725
266.224
251.752
256.071
265.284
251.248
248.12
233.653
237.668
201.683
218.488
223.455
207.545
228.036
229.281
210.288
230.913
104.549
59.8287
118.584
106.408
122.184
62.0375
57.759
59.8794
138.23
144.47
66.3052
64.9446
73.0509
151.57
83.719
86.5768
52.0077
106.394
98.3879
102.754
61.3503
61.4881
57.6063
55.4254
169.897
173.674
181.835
88.83
102.54
86.1223
110.777
179.846
111.551
72.6692
50.571
65.2154
44.3527
32.7317
35.6977
191.836
175.554
114.1
117.559
106.059
65.486
75.5748
31.5036
33.1913
35.4398
172.742
177.833
113.777
102.022
104.994
93.8635
40.2094
130.672
125.135
139.889
47.1631
53.7637
60.2221
72.7426
180.977
180.735
171.866
122.434
101.285
109.076
93.1949
99.7898
138.055
73.0739
145.845
128.501
74.5957
66.1632
44.5786
156.573
137.566
64.2504
73.5265
47.5133
93.1684
47.574
38.4807
42.878
46.6627
42.9034
36.5744
41.1339
37.6701
42.4743
48.2387
35.7375
36.4247
37.9762
53.4848
36.7794
42.3282
32.4827
47.3262
45.0626
44.3165
32.0775
37.5241
34.1865
40.9761
59.3966
49.1826
60.6762
37.7516
28.8415
36.15
24.0439
61.7552
21.8662
37.5339
32.5624
32.8484
31.2398
29.9089
29.6574
63.5807
60.8186
19.8467
22.78
26.9315
32.5273
33.8402
30.3934
30.3348
32.5553
61.1179
62.565
23.695
28.5132
26.6861
34.7834
33.7857
37.2913
37.5595
40.5953
31.8576
31.496
20.9359
16.699
62.7649
60.0237
59.6646
16.5185
29.9306
17.7539
29.0555
29.8734
42.3115
15.7739
41.8659
41.9036
16.4841
22.36
37.8981
46.5406
42.2992
28.2933
26.5401
37.4103
20.082
3.16646
2.04668
9.1115
5.14065
13.4435
1.85108
1.92159
1.98196
12.4725
5.43034
1.85659
1.95111
1.87047
3.14038
2.03034
2.83386
2.13612
3.08465
2.81928
3.54359
2.15074
2.09757
2.12909
2.01094
2.51058
3.09379
2.5083
2.06654
2.11737
2.01051
2.14148
2.49081
2.14655
3.7367
21.0366
15.8537
1.98845
5.69639
2.42303
2.39887
3.19127
2.04185
2.0358
1.91926
19.9286
6.05354
8.28101
2.75698
1.63932
3.07317
2.38395
1.99351
1.83389
1.89099
2.82763
2.00269
2.66399
2.27727
2.14658
2.01298
1.84026
2.07818
2.09495
2.3173
2.03739
2.2616
2.14743
1.95456
2.10779
1.98903
1.98853
2.23344
2.2068
2.08969
2.59719
2.10925
2.03551
1.93474
2.34122
2.67407
2.04002
2.00203
1.97395
2.19129
2.69143
2.36321
2.68857
2.70414
2.66762
2.51647
2.35508
2.50478
2.65661
2.69605
2.50791
2.50988
2.37484
2.67453
2.37542
2.65718
2.36444
2.68657
2.64881
2.69034
2.37839
2.36505
2.36116
2.34242
2.58005
2.64481
2.55609
2.3952
2.40997
2.40431
2.39616
2.53345
2.36072
2.6781
1.89831
2.4544
2.37776
2.67386
2.50176
2.5187
2.54964
2.39565
2.34177
2.40312
2.23473
2.59448
2.63471
2.51527
2.37579
2.58991
2.5638
2.34818
2.40777
2.36798
2.55453
2.26734
2.5274
2.3955
2.33771
2.23141
2.29194
2.26974
2.25327
2.51546
2.41437
2.46786
2.29681
2.3415
2.30629
2.33262
2.31693
2.34737
2.29342
2.47718
2.538
2.31853
2.3378
2.38891
2.46838
2.56914
2.34918
2.34971
2.37474
2.27082
2.53119
2.42173
2.48061
2.49079
2.4789
2.47019
2.45091
2.4667
2.47179
2.47198
2.46678
2.46002
2.43933
2.50883
2.4187
2.51262
2.40404
2.53476
2.51688
2.51349
2.41046
2.40592
2.40124
2.4209
2.48536
2.4922
2.48146
2.41127
2.42368
2.40959
2.41587
2.47362
2.41244
2.48233
2.57703
2.44903
2.4066
2.41867
2.40853
2.44326
2.43305
2.39678
2.4191
2.30075
2.43845
2.39718
2.42471
2.39255
2.39426
2.40284
2.39584
2.40228
2.24942
2.39634
2.43754
2.34444
2.40261
2.41189
2.39729
2.30669
2.35715
2.32469
2.3167
2.40991
2.38927
2.4053
2.35542
2.38079
2.36466
2.37319
2.3819
2.40261
2.34009
2.39294
2.37465
2.3303
2.3699
2.37572
2.40235
2.38774
2.38139
2.38751
2.38216
2.37634
2.47462
2.4504
2.46789
2.46224
2.46555
2.46609
2.46425
2.46546
2.46003
2.44731
2.46611
2.46177
2.45308
2.46071
2.4415
2.44165
2.4177
2.47534
2.45341
2.45104
2.43129
2.44122
2.42435
2.44197
2.45489
2.44187
2.45421
2.43509
2.43248
2.43134
2.42962
2.44243
2.41269
2.4094
2.38897
2.40135
2.39936
2.38897
2.38993
2.42568
2.42777
2.47618
2.41555
2.42609
2.40713
2.40992
2.42815
2.42009
2.42379
2.42502
2.426
2.42137
2.42092
2.40447
2.39614
2.39909
2.41046
2.401
2.45443
2.39328
2.38908
2.40762
2.40283
2.40044
2.40579
2.4238
2.41302
2.42163
2.42199
2.42303
2.416
2.42148
2.38781
2.38859
2.38441
2.40621
2.41835
2.36832
2.3832
2.3645
2.36923
2.3976
2.3943
2.39869
2.38865
2.39042
2.38597
2.38958
2.3934
2.4
2.37463
2.38014
2.38129
2.38377
2.37381
2.38368
2.3931
2.38329
2.39002
2.39197
2.3924
2.38639
2.45413
2.44986
2.46377
2.46387
2.46442
2.46166
2.46085
2.46121
2.46308
2.45832
2.46189
2.46034
2.45546
2.45656
2.4484
2.41176
2.40746
2.45206
2.42468
2.43874
2.43525
2.44574
2.42414
2.43423
2.44456
2.44984
2.44964
2.44544
2.43625
2.44978
2.43838
2.42422
2.42273
2.41248
2.41825
2.42367
2.42981
2.41988
2.42918
2.38839
2.3813
2.37352
2.37995
2.367
2.35842
2.42018
2.4038
2.41837
2.40348
2.4049
2.40208
2.41691
2.42446
2.41822
2.42094
2.41236
2.42166
2.41356
2.41973
2.40362
2.40367
2.40095
2.39556
2.40308
2.41162
2.40229
2.41689
2.4042
2.41606
2.39039
2.41321
2.42419
2.41724
2.42221
2.41834
2.42487
2.41924
2.4232
2.39487
2.40124
2.39461
2.40654
2.4161
2.39609
2.40171
2.39931
2.40229
2.39688
2.3958
2.39982
2.39096
2.39633
2.3952
2.39782
2.41356
2.38715
2.41647
2.42209
2.41864
2.4227
2.40479
2.40056
2.39608
2.41085
2.40988
2.4106
2.42758
2.39979
2.40943
2.40603
2.40525
2.41517
2.39751
2.44432
2.44048
2.45766
2.45561
2.45669
2.45154
2.44878
2.45188
2.45374
2.44917
2.44889
2.44632
2.44265
2.44334
2.43758
2.40194
2.40429
2.43962
2.41995
2.42761
2.43058
2.43596
2.41833
2.42241
2.43593
2.44521
2.43747
2.4369
2.43069
2.43665
2.427
2.41547
2.41686
2.41187
2.41818
2.41899
2.42829
2.4207
2.43013
2.38022
2.35778
2.35169
2.38801
2.35618
2.35604
2.40964
2.40419
2.41784
2.40803
2.41371
2.40528
2.42025
2.4247
2.41279
2.42155
2.41764
2.42768
2.41704
2.42424
2.38455
2.40142
2.37876
2.37967
2.39544
2.4202
2.40028
2.42331
2.40926
2.4256
2.40499
2.42996
2.42655
2.42279
2.42505
2.42758
2.42966
2.42494
2.42933
2.4064
2.4076
2.40625
2.41015
2.41783
2.40676
2.40858
2.41026
2.41622
2.39675
2.39729
2.40092
2.38546
2.39428
2.39701
2.40084
2.41906
2.37702
2.42298
2.4251
2.42169
2.42863
2.41482
2.41585
2.41458
2.42261
2.41613
2.41561
2.41836
2.40774
2.41241
2.40679
2.40907
2.41171
2.40171
2.43596
2.43225
2.44529
2.44086
2.44654
2.44005
2.43378
2.44085
2.43858
2.43645
2.4354
2.43128
2.42986
2.43158
2.42584
2.41061
2.42069
2.43123
2.4183
2.42026
2.42783
2.42827
2.42192
2.42128
2.42876
2.42672
2.4232
2.42705
2.424
2.41738
2.41344
2.41871
2.41321
2.39845
2.36772
2.37102
2.4137
2.41711
2.40779
2.42149
2.41309
2.4279
2.41085
2.42005
2.4158
2.4278
2.43203
2.42571
2.42935
2.43089
2.43375
2.43691
2.43228
2.38391
2.38799
2.39678
2.38365
2.39001
2.43764
2.41587
2.43945
2.42126
2.43605
2.41916
2.4364
2.43424
2.42789
2.43257
2.44329
2.43884
2.43213
2.43402
2.40671
2.40744
2.40938
2.4142
2.41988
2.41228
2.41009
2.41754
2.42002
2.39409
2.40107
2.40308
2.38485
2.39683
2.40396
2.40655
2.40537
2.41935
2.42051
2.41664
2.41653
2.41857
2.41726
2.41615
2.41035
2.41211
2.41001
2.4119
2.4132
2.40698
2.42996
2.42868
2.43722
2.42837
2.43525
2.43376
2.42398
2.42994
2.42649
2.42456
2.42727
2.42456
2.42215
2.42184
2.41958
2.43343
2.44492
2.42642
2.42738
2.42343
2.4287
2.42544
2.43217
2.4253
2.42008
2.40848
2.40674
2.41921
2.41438
2.39971
2.39655
2.41324
2.40963
2.4365
2.47216
2.4533
2.45956
2.57374
2.50083
2.41996
2.43849
2.41948
2.41714
2.39751
2.40448
2.41287
2.54736
2.47818
2.44433
2.45113
2.41727
2.41591
2.39223
2.41831
2.41764
2.43235
2.41131
2.42141
2.41891
2.42787
2.41415
2.42428
2.41645
2.40298
2.4086
2.4122
2.39939
2.41163
2.41313
2.41753
2.41471
2.42022
2.41928
2.41758
2.41631
2.41986
2.41823
2.41728
2.41372
2.41516
2.41556
2.41669
2.41809
2.4146
2.4281
2.42818
2.42777
2.42064
2.42487
2.42206
2.41905
2.42038
2.42277
2.42241
2.4222
2.42104
2.42303
2.41914
2.41971
2.45015
2.44757
2.42548
2.43474
2.42706
2.42887
2.42643
2.43423
2.42815
2.41258
2.39376
2.39348
2.41532
2.41157
2.3935
2.39402
2.40922
2.40941
2.47024
2.6098
2.52621
2.46308
2.54652
2.50267
2.42196
2.42212
2.4245
2.42451
2.42405
2.53232
2.46378
2.57894
2.514
2.4648
2.42179
2.42086
2.42589
2.42831
2.42633
2.44201
2.44324
2.41437
2.42646
2.41398
2.43491
2.41132
2.42522
2.40973
2.42086
2.41805
2.4239
2.41526
2.42814
2.42364
2.4288
2.42675
2.4185
2.41718
2.41899
2.41897
2.42155
2.42122
2.42138
2.42162
2.42201
2.42501
2.42643
2.42626
2.42468
2.42932
2.43144
2.42024
2.42022
2.41834
2.42231
2.42398
2.42037
2.42094
2.42379
2.42313
2.42361
2.42608
2.42187
2.42631
2.44338
2.44061
2.42851
2.43276
2.42826
2.43124
2.43147
2.43234
2.4282
2.41602
2.39922
2.40253
2.42164
2.4223
2.40871
2.41283
2.41501
2.4227
2.44978
2.4926
2.47352
2.44082
2.46239
2.45291
2.42736
2.42919
2.43107
2.43215
2.43446
2.48147
2.45549
2.46735
2.45636
2.44546
2.43443
2.43246
2.43851
2.44171
2.4394
2.44037
2.43741
2.41235
2.42646
2.41386
2.43176
2.41363
2.42697
2.41656
2.43368
2.42942
2.43458
2.43006
2.43878
2.43622
2.43991
2.44063
2.41977
2.42307
2.42439
2.42531
2.42672
2.42885
2.43005
2.43152
2.43111
2.43591
2.4369
2.43673
2.43693
2.43508
2.44056
2.42826
2.4304
2.42643
2.43748
2.439
2.43558
2.42988
2.43138
2.43738
2.43862
2.4392
2.43307
2.44167
2.44149
2.44635
2.43589
2.43536
2.43023
2.44109
2.44137
2.44179
2.43761
2.43181
2.4231
2.42629
2.4406
2.44177
2.43962
2.43956
2.43343
2.44422
2.44038
2.44996
2.44305
2.44695
2.44968
2.44369
2.43888
2.44183
2.44635
2.44563
2.44902
2.44444
2.44222
2.44836
2.44483
2.44609
2.45009
2.44653
2.4556
2.45829
2.45416
2.43797
2.44303
2.41765
2.43281
2.42557
2.4379
2.4243
2.44052
2.4358
2.44435
2.44309
2.44673
2.45137
2.45197
2.45049
2.45362
2.45758
2.43049
2.4394
2.43552
2.43742
2.44034
2.44208
2.4448
2.44256
2.44385
2.4498
2.44923
2.45123
2.45201
2.44748
2.45488
2.44871
2.44879
2.4465
2.46019
2.45829
2.45765
2.44898
2.44918
2.45935
2.45888
2.45943
2.45113
2.46063
2.45396
2.46158
2.44744
2.45025
2.44918
2.45561
2.45319
2.45864
2.46092
2.45271
2.45693
2.4523
2.46353
2.46284
2.47322
2.46373
2.45536
2.46549
2.45626
2.45706
2.45259
2.46537
2.46645
2.46373
2.45501
2.45797
2.46429
2.46338
2.46589
2.45314
2.45639
2.46576
2.4645
2.46786
2.4669
2.46239
2.47071
2.47366
2.46929
2.45191
2.46211
2.43457
2.4521
2.44771
2.45782
2.44707
2.46326
2.45934
2.46112
2.45955
2.462
2.4752
2.46894
2.46713
2.46886
2.47341
2.45036
2.46076
2.45227
2.45405
2.45828
2.46079
2.46268
2.45742
2.46
2.46618
2.46476
2.46752
2.466
2.46186
2.46806
2.47048
2.46626
2.46754
2.47899
2.47273
2.47562
2.46718
2.4688
2.47643
2.47407
2.47617
2.46905
2.4757
2.4686
2.47471
2.45856
2.46599
2.47123
2.46811
2.46294
2.47238
2.47936
2.47186
2.48353
2.47392
2.47552
2.47909
2.48982
2.48327
2.47409
2.4815
2.47303
2.4744
2.47331
2.4795
2.4798
2.47933
2.47117
2.47336
2.47836
2.47777
2.4796
2.47527
2.47758
2.48236
2.48309
2.48436
2.48007
2.47641
2.48336
2.48539
2.48253
2.47156
2.47913
2.45838
2.47264
2.46855
2.47714
2.47061
2.47828
2.47545
2.47507
2.47305
2.47453
2.48454
2.47972
2.47737
2.47903
2.48225
2.46954
2.47576
2.46945
2.47072
2.47119
2.47576
2.4774
2.47175
2.47445
2.4786
2.47716
2.47996
2.47497
2.47438
2.481
2.4859
2.47872
2.4826
2.49151
2.48457
2.48905
2.48035
2.48211
2.48816
2.48631
2.48723
2.48131
2.48632
2.47987
2.4844
2.46796
2.47779
2.48268
2.47956
2.4743
2.48269
2.48374
2.48504
2.49409
2.49082
2.48424
2.49
2.4972
2.4964
2.48751
2.49197
2.48504
2.48397
2.48375
2.4895
2.48734
2.48732
2.48353
2.48501
2.48793
2.48821
2.48936
2.48813
2.48877
2.49031
2.4912
2.49071
2.4897
2.48767
2.49164
2.49293
2.4919
2.48403
2.48721
2.4794
2.48155
2.4793
2.48682
2.48529
2.48277
2.48077
2.48351
2.48099
2.48294
2.48959
2.48655
2.48433
2.48631
2.4891
2.47935
2.48021
2.48065
2.4823
2.47763
2.48305
2.48437
2.48171
2.48427
2.48609
2.48604
2.4867
2.48323
2.48869
2.49661
2.49627
2.4904
2.49464
2.50043
2.49721
2.49947
2.49111
2.49178
2.49605
2.49393
2.49554
2.49014
2.49294
2.48825
2.49154
2.48137
2.48686
2.48339
2.49057
2.48912
2.49059
2.48271
2.49314
2.49587
2.49916
2.49177
2.49514
2.49181
2.49999
2.49429
2.4954
2.49279
2.49023
2.49019
2.49514
2.4927
2.49256
2.49198
2.4928
2.49228
2.49394
2.49479
2.49323
2.4917
2.49454
2.49465
2.49245
2.49523
2.49483
2.49559
2.49678
2.49711
2.48934
2.49076
2.48839
2.48344
2.48016
2.48948
2.49042
2.4842
2.47881
2.48932
2.48701
2.48934
2.49192
2.49178
2.48984
2.49209
2.49423
2.48026
2.48102
2.48305
2.48434
2.48109
2.4834
2.48521
2.48897
2.48857
2.48945
2.49274
2.49094
2.48929
2.50435
2.51154
2.50433
2.50411
2.50409
2.50725
2.51209
2.50788
2.49612
2.49783
2.5009
2.49961
2.49995
2.49569
2.49806
2.49467
2.49731
2.49678
2.49419
2.48467
2.49977
2.50321
2.49732
2.4892
2.49584
2.48993
2.49833
2.4966
2.49595
2.49482
2.49702
2.49523
2.49495
2.49661
2.4947
2.49443
2.49756
2.49632
2.49608
2.49431
2.49495
2.49205
2.49313
2.4941
2.49566
2.49329
2.49677
2.49628
2.49418
2.49769
2.49855
2.49633
2.49814
2.49951
2.49218
2.49373
2.49219
2.48543
2.47819
2.49294
2.49409
2.48704
2.47971
2.49402
2.49183
2.49445
2.4937
2.49612
2.49327
2.49638
2.49739
2.48293
2.48683
2.48559
2.48734
2.48727
2.48723
2.48869
2.49708
2.4925
2.49025
2.49692
2.49228
2.49375
2.51197
2.50884
2.50906
2.51948
2.51022
2.50896
2.52254
2.50942
2.50403
2.50308
2.50742
2.50784
2.50493
2.49974
2.50056
2.499
2.49977
2.50555
2.49938
2.49236
2.50226
2.50346
2.50055
2.49364
2.4956
2.49697
2.49495
2.49785
2.49517
2.49756
2.49306
2.49413
2.49337
2.49823
2.49753
2.4973
2.49857
2.49835
2.49806
2.49154
2.4926
2.49164
2.49111
2.49154
2.49684
2.49512
2.49775
2.49729
2.49567
2.49801
2.4998
2.49526
2.49701
2.49978
2.4951
2.49606
2.49597
2.48899
2.48411
2.4963
2.49651
2.49118
2.48959
2.49781
2.49376
2.49768
2.49476
2.49863
2.49392
2.49822
2.49788
2.49132
2.49901
2.48842
2.48926
2.49818
2.49052
2.49098
2.4922
2.4917
2.49029
2.49088
2.48693
2.49311
2.50641
2.50468
2.5084
2.52175
2.508
2.50844
2.51807
2.50795
2.5099
2.50627
2.50852
2.50976
2.50644
2.5013
2.5011
2.5
2.49996
2.5009
2.50105
2.49427
2.50072
2.49897
2.50111
2.49501
2.49423
2.49588
2.49095
2.49629
2.49325
2.49389
2.48908
2.49242
2.49145
2.49863
2.49868
2.49836
2.49839
2.4985
2.49814
2.4908
2.49101
2.49147
2.4913
2.49127
2.49731
2.49549
2.49732
2.49671
2.49445
2.49626
2.49855
2.49488
2.49551
2.49699
2.49602
2.49513
2.4954
2.49322
2.49425
2.49507
2.4937
2.49467
2.49411
2.49834
2.49359
2.49763
2.49325
2.49658
2.49308
2.496
2.49557
2.50393
2.50233
2.49548
2.49497
2.5125
2.50477
2.50075
2.49321
2.48152
2.49136
2.49599
2.49396
2.49385
2.5027
2.50059
2.50724
2.51292
2.50724
2.50464
2.5074