/*--------------------------------*- C++ -*----------------------------------*\
| =========                 |                                                 |
| \\      /  F ield         | OpenFOAM: The Open Source CFD Toolbox           |
|  \\    /   O peration     | Version:  5.x                                   |
|   \\  /    A nd           | Web:      www.OpenFOAM.org                      |
|    \\/     M anipulation  |                                                 |
\*---------------------------------------------------------------------------*/
FoamFile
{
    version     2.0;
    format      ascii;
    class       surfaceScalarField;
    location    "5.6";
    object      phi;
}
// * * * * * * * * * * * * * * * * * * * * * * * * * * * * * * * * * * * * * //

dimensions      [0 3 -1 0 0 0 0];

internalField   nonuniform List<scalar> 
29271
(
-8.07378e-06
1.42977e-07
-2.93947e-06
1.08683e-05
-5.15722e-06
3.46383e-06
-6.51952e-07
2.50864e-06
-1.84563e-05
2.74654e-07
-7.58252e-06
4.4835e-06
-7.75215e-07
2.20559e-05
-1.70288e-05
-1.03923e-06
-1.07658e-06
-8.2446e-06
5.73871e-07
2.68153e-05
-1.70444e-05
7.72719e-07
-3.5879e-06
-3.4817e-06
1.33129e-05
1.00284e-05
-1.77802e-05
-1.29159e-06
-3.68723e-06
8.66222e-06
3.65272e-06
1.0444e-05
-1.74117e-05
-4.26189e-08
-1.19321e-05
1.24993e-05
-1.27669e-06
1.81638e-05
-1.93807e-05
1.00105e-05
-2.44659e-06
-9.91781e-06
-1.66172e-05
3.83518e-05
-2.14348e-05
1.72524e-05
1.86225e-05
-2.0746e-05
-1.75023e-05
2.38082e-05
-1.4081e-05
2.2874e-06
-6.45543e-06
8.68816e-06
9.59778e-06
-7.18272e-06
-2.44712e-06
4.95005e-06
4.73046e-06
-1.92254e-05
-8.59011e-06
-4.68336e-06
1.58928e-05
7.88277e-07
1.58177e-05
-1.97454e-05
1.01389e-05
-1.29596e-05
-1.03561e-06
-1.46284e-05
3.82301e-05
-1.73091e-05
1.45074e-05
3.26211e-06
-6.42053e-06
-8.24162e-06
1.42018e-05
-1.74186e-05
1.35142e-05
5.18881e-06
-3.03597e-06
-1.14553e-05
1.32069e-05
-1.6219e-05
3.82652e-06
1.53917e-07
-2.71817e-06
1.12451e-05
3.71157e-06
-1.6405e-05
-3.25896e-06
5.28817e-06
-2.39923e-06
1.37805e-05
2.99456e-06
-2.45256e-05
1.78558e-06
1.34697e-05
-7.47922e-06
-1.24375e-05
2.9187e-05
-9.94099e-06
3.9042e-06
3.04889e-06
-8.06609e-07
-1.65304e-06
5.44755e-06
-1.88518e-05
1.87129e-06
-3.62435e-06
1.52675e-05
7.71074e-06
-2.37338e-06
-3.64307e-06
1.24284e-06
2.75922e-07
2.043e-06
-1.42512e-05
3.97259e-06
-9.61982e-06
9.93852e-06
9.96326e-06
-1.71337e-05
3.51083e-06
-1.47568e-06
2.7274e-06
1.31142e-05
-7.4298e-07
-5.26425e-06
1.46651e-06
-1.55503e-07
3.8649e-06
-6.73021e-06
1.63823e-07
3.79457e-06
2.82684e-06
-1.47189e-06
5.81299e-08
4.58449e-08
1.45836e-06
-4.196e-06
-1.52008e-06
-2.61012e-05
2.04744e-06
2.31924e-06
2.74506e-05
-5.73879e-06
-3.29628e-05
2.06052e-06
-3.47416e-06
4.26369e-06
3.58516e-05
-1.22583e-05
-8.15964e-07
-1.70558e-07
1.22268e-06
1.07102e-05
1.3119e-06
7.71872e-07
-2.90555e-07
-8.02682e-06
1.71296e-06
-1.43086e-06
7.2634e-06
9.37258e-06
-1.85825e-05
0.000125062
-1.77603e-05
-4.61207e-05
-4.57787e-05
-3.87753e-05
6.60904e-06
7.48741e-06
7.16121e-06
1.91447e-05
-2.62518e-06
-3.31073e-06
-5.63019e-07
-1.32024e-06
-6.7749e-06
5.94378e-06
0.000107973
-4.93353e-05
-2.97623e-05
-1.95585e-05
-1.48852e-05
1.61471e-06
7.3943e-08
1.06577e-05
3.42565e-06
-2.4224e-07
-1.53971e-06
3.83026e-05
5.78101e-07
2.0376e-07
9.62221e-07
8.29441e-08
-2.43426e-07
3.34231e-07
7.44953e-08
-1.61968e-05
-8.42994e-06
-1.11314e-05
-9.52967e-06
-7.99769e-06
1.86096e-07
-6.07393e-07
8.25299e-06
-2.38485e-06
2.3578e-07
6.42394e-07
1.54043e-06
-6.52065e-07
-1.16666e-05
1.40349e-06
2.09211e-06
-1.79167e-06
1.06147e-05
1.20081e-05
-8.61184e-07
0.000102782
-4.96588e-05
-1.9441e-05
-3.32355e-05
-1.1245e-05
-5.63231e-06
-6.53682e-06
-3.22062e-06
-3.54154e-06
-7.02652e-06
6.41228e-07
5.78715e-05
-1.18021e-05
-9.99909e-06
-5.65144e-06
-6.08165e-06
3.944e-07
-3.03437e-07
4.66444e-05
5.88741e-07
3.92034e-07
7.17178e-07
2.1904e-07
4.42982e-07
3.85404e-07
-1.06179e-05
-1.22497e-05
-8.00942e-06
-2.71699e-05
-9.56183e-06
2.47242e-07
1.09369e-06
-6.40997e-08
8.67939e-06
-1.14519e-05
-6.72572e-08
1.3676e-06
-1.89797e-07
9.26256e-06
1.07883e-06
4.57539e-06
-5.97937e-07
6.13633e-05
-4.21981e-06
-1.57379e-06
-1.49639e-06
-1.0091e-06
-7.38328e-07
-5.94551e-10
-1.26984e-07
-2.91972e-05
-6.43006e-06
-1.35245e-05
-7.88525e-06
-3.68076e-06
-2.35193e-06
5.99839e-05
-1.87739e-06
-1.58566e-06
-1.08697e-06
-2.36866e-06
-1.18948e-06
-1.20102e-06
-6.29323e-06
-6.98591e-06
-1.03026e-05
-1.58437e-05
-1.40504e-05
-3.35278e-07
-1.81952e-07
1.05834e-05
-3.32349e-06
7.71088e-08
-1.5001e-06
4.63787e-06
-7.51303e-06
-1.43916e-07
-2.0612e-07
7.28074e-06
-1.12304e-05
-3.02346e-07
1.23423e-06
-1.24273e-06
9.18933e-06
-4.12814e-06
4.07112e-07
-2.85441e-07
3.97975e-06
-1.87215e-06
-7.3802e-08
3.16076e-07
1.66942e-06
-1.7011e-06
-2.31663e-06
1.41179e-06
2.77807e-06
-6.48148e-07
3.70626e-06
-2.5884e-05
-1.97027e-06
2.7953e-06
2.20008e-05
-2.10229e-06
-3.92657e-05
5.04298e-08
1.35507e-06
4.69862e-06
3.52638e-05
-9.98805e-06
-1.04114e-07
1.24029e-06
5.57841e-07
9.99738e-06
-1.70335e-06
1.23436e-06
2.30224e-06
-8.53838e-06
-3.38775e-06
-1.70103e-06
1.00906e-05
8.11829e-06
1.50653e-05
7.61431e-05
1.52333e-06
4.93184e-06
6.04777e-06
9.51802e-06
1.15631e-06
1.00895e-07
1.27321e-06
1.18362e-06
7.45934e-06
2.55629e-05
8.40284e-05
-1.78747e-06
-2.06609e-06
2.22494e-06
6.69157e-07
9.47391e-07
3.97819e-06
3.7086e-05
-1.76821e-06
-8.00925e-07
-1.09639e-06
-6.63896e-07
5.50264e-07
4.56687e-06
2.96265e-06
-8.75198e-06
-4.35427e-07
2.72809e-07
9.90834e-06
-1.66294e-06
1.16087e-07
-7.49031e-07
2.30438e-06
1.23706e-06
-9.8988e-06
6.36026e-07
-6.60134e-07
-7.96272e-08
8.76548e-06
7.07863e-06
8.26825e-06
0.00011069
-3.16102e-06
-2.99372e-06
-9.19337e-07
-1.11511e-06
-2.46138e-06
8.21648e-06
8.47579e-05
-9.30441e-07
-4.33216e-07
5.35672e-05
-1.40711e-06
-5.49819e-07
-1.21608e-06
-6.67158e-07
8.75104e-08
-2.8964e-07
-8.91349e-06
4.41791e-07
9.69808e-08
-8.26194e-07
8.27047e-06
-8.49605e-06
-1.91669e-07
6.17783e-07
7.17669e-07
7.85891e-06
-5.06645e-07
5.99118e-07
3.44189e-07
7.3101e-05
-1.68848e-06
-1.37282e-06
-1.18341e-06
-1.09361e-06
3.22812e-07
3.36941e-07
2.65815e-07
-1.92399e-06
7.76382e-08
7.50977e-05
-1.43977e-06
-1.62007e-06
-1.29587e-06
1.62217e-07
-1.69509e-07
-8.88172e-08
-9.65248e-06
-1.15133e-06
2.00062e-07
8.24655e-06
-5.42804e-06
2.77576e-07
8.67466e-08
5.11575e-06
-7.28122e-06
-2.28607e-07
2.71865e-07
7.57549e-06
-8.43112e-06
-2.85186e-07
2.05314e-07
9.2191e-08
8.49644e-06
-3.79021e-06
-7.56341e-07
1.4633e-07
4.41427e-06
-3.24727e-06
-1.54939e-06
-4.7991e-06
9.59709e-06
-5.62135e-06
-4.38907e-06
2.33793e-06
7.53906e-06
4.87422e-06
4.50221e-06
-1.88703e-05
-3.11757e-06
-1.34633e-06
1.39578e-05
9.27539e-06
-3.06602e-05
-7.78222e-07
4.0154e-06
-1.35782e-06
1.95054e-05
-1.07497e-05
2.19026e-06
5.18894e-06
-1.4704e-06
9.07287e-06
-4.23194e-06
-1.65804e-06
2.45019e-06
-9.87635e-06
-2.01425e-06
1.52041e-06
9.57803e-06
2.06321e-06
1.71096e-05
6.21295e-05
-3.53379e-06
-1.37221e-07
-2.33898e-06
-5.20589e-06
6.00117e-07
1.09416e-06
1.49118e-06
2.87117e-06
9.15947e-06
3.42192e-05
6.17325e-05
-5.90111e-06
-3.82582e-06
-7.39569e-06
-1.89697e-06
4.72465e-06
4.7191e-06
3.48654e-05
-1.90584e-06
-1.25684e-06
-1.36096e-06
-2.09399e-06
3.65006e-06
2.78785e-06
2.11605e-06
-1.32934e-05
-1.95308e-06
4.29445e-06
1.56463e-05
-2.64471e-06
-2.72278e-06
3.90278e-06
1.46472e-06
-2.70436e-06
-8.30318e-06
-1.23873e-06
1.47046e-06
1.14426e-06
9.63155e-06
7.69334e-06
1.90219e-06
0.000141399
-2.34123e-06
-3.76763e-06
-8.01631e-06
-9.07041e-06
-4.50359e-06
2.80072e-05
0.000103167
-7.15854e-07
-1.68817e-07
6.94086e-05
-6.07993e-07
-5.19638e-06
-2.71691e-06
3.03871e-07
-3.78462e-06
-2.73923e-06
-8.54944e-06
-4.59707e-07
5.50825e-07
-1.22024e-06
8.96271e-06
-7.68627e-06
-8.10593e-07
8.22336e-07
1.22157e-06
7.52955e-06
-1.0766e-06
-2.05625e-06
-2.31364e-06
0.000107632
-1.8616e-06
-1.71161e-06
-4.41122e-06
-4.53321e-06
-3.60156e-06
-5.26357e-06
-6.87633e-06
-2.29911e-06
-2.26676e-07
0.000108089
-1.67991e-06
-1.11539e-06
-7.6091e-07
-1.10167e-07
-6.8549e-07
-1.62808e-07
-7.918e-06
-1.55383e-06
-1.59686e-08
7.01988e-06
-4.32742e-06
-1.63913e-08
7.97557e-07
3.59395e-06
-7.67791e-06
1.55767e-07
-1.03309e-06
6.2416e-06
-7.75141e-06
9.26127e-07
2.06193e-07
-3.93854e-08
6.43179e-06
-5.01232e-06
9.58209e-07
-1.04039e-06
5.09367e-06
-1.40638e-05
-9.33543e-07
-4.81589e-07
1.54732e-05
-7.20397e-06
-1.76862e-06
3.92052e-06
5.05342e-06
2.14655e-06
3.17395e-06
-1.3015e-05
-3.17084e-06
-2.56719e-06
1.34325e-05
3.21615e-06
-1.32701e-05
-6.34645e-07
1.72427e-06
-5.82308e-06
1.47874e-05
-8.13754e-06
-3.45694e-06
1.47677e-06
1.74913e-06
9.12715e-06
-7.58566e-07
-5.34232e-06
-2.1816e-06
-1.19728e-05
2.91272e-06
4.22928e-06
1.23548e-05
3.8297e-06
3.18377e-05
7.63499e-05
-5.34035e-06
-1.24172e-05
-6.46627e-06
-5.85899e-06
-3.40023e-06
-2.51678e-06
-5.38833e-06
-8.49956e-06
-5.56774e-06
3.38665e-05
5.86066e-05
-9.09165e-06
-4.01991e-06
-3.861e-06
-4.37058e-06
-5.57635e-07
5.15367e-06
4.60305e-05
-1.36398e-06
-3.69208e-06
-3.27584e-06
-4.29788e-06
-2.69778e-06
-2.23024e-06
-3.77105e-06
-1.69317e-05
-2.45321e-06
3.15948e-06
1.56677e-05
-8.97396e-07
-2.46248e-06
2.37562e-06
9.84255e-07
-3.23383e-06
-8.5118e-06
-3.8699e-06
4.26759e-06
3.55274e-06
7.79519e-06
9.41509e-06
1.01879e-05
0.000153602
-2.68703e-06
-2.39781e-06
1.31131e-06
3.80521e-06
1.76904e-06
3.50955e-05
0.000109584
-3.22436e-06
-1.3745e-06
7.44968e-05
3.79111e-07
-4.96346e-07
2.71813e-06
2.88077e-07
1.80764e-06
1.73672e-06
-6.67678e-06
-3.04833e-06
-3.17332e-06
2.45442e-06
7.21965e-06
-6.55443e-06
-2.81643e-06
2.67976e-06
2.04608e-06
7.05632e-06
-2.41131e-06
2.78313e-06
5.71061e-08
0.000114303
-1.5039e-06
-1.09284e-06
5.15368e-07
-3.43562e-07
-4.77969e-07
2.24518e-06
1.33421e-06
1.04678e-06
3.38301e-06
0.000118738
1.75288e-06
2.77992e-06
3.00666e-06
3.81419e-06
5.72371e-06
5.72225e-06
-6.49852e-06
-1.62497e-06
-2.2221e-06
1.00179e-05
-2.99384e-06
-1.18936e-06
2.15835e-06
2.02484e-06
-3.37398e-06
-1.88104e-06
1.34818e-06
3.96394e-06
-7.46149e-06
-5.14694e-07
-1.03898e-07
-4.84077e-07
1.19472e-05
-2.90033e-06
2.13207e-06
-1.23031e-06
1.99857e-06
-1.6084e-05
-1.35205e-06
3.06448e-06
1.43716e-05
-2.63808e-06
-9.7898e-07
2.47088e-06
1.14575e-06
-4.13102e-06
5.51325e-08
-1.33432e-05
1.27575e-08
4.88152e-06
1.25248e-05
1.30171e-07
-1.75789e-05
-8.65678e-07
7.89254e-07
2.03442e-07
1.73217e-05
-7.77108e-06
-5.24936e-06
8.76536e-07
4.71629e-06
6.69188e-06
7.35736e-07
-5.34873e-06
-2.26594e-06
-1.1087e-05
3.98726e-06
5.09293e-06
9.62145e-06
6.38309e-06
2.18518e-05
8.49691e-05
-4.65755e-06
-2.41934e-06
-6.10711e-06
-3.78005e-06
-4.02274e-06
-7.56454e-06
-3.19447e-06
-5.10826e-06
-1.36994e-05
3.00371e-05
6.87008e-05
-2.98561e-06
-5.76726e-06
-3.90878e-06
-7.38704e-06
-3.27244e-06
6.8015e-06
5.70608e-05
-5.0566e-06
-4.40289e-06
-4.80511e-06
-3.44236e-06
-4.30813e-06
-2.9131e-06
-3.33066e-06
-1.33344e-05
-4.04587e-06
1.07058e-06
2.01705e-06
1.10202e-05
-2.13527e-07
-2.19683e-08
1.41264e-07
9.4242e-08
-4.05045e-07
1.56619e-07
-4.62003e-07
7.10429e-07
-4.6561e-07
-8.9603e-06
-2.45474e-06
5.97661e-07
1.39883e-06
9.88416e-06
7.14197e-06
1.03553e-05
0.000146017
1.27599e-06
3.33074e-06
3.07022e-06
4.26313e-06
5.62955e-06
3.06231e-05
0.00011051
-7.43865e-07
1.33762e-06
7.98369e-05
1.7917e-06
-5.43613e-07
1.12701e-06
1.17065e-06
2.25034e-06
7.01081e-07
-8.47883e-06
-2.65932e-06
-5.06882e-07
3.93456e-06
6.96661e-06
-1.25689e-08
-1.85353e-07
3.44987e-10
3.28046e-08
1.64645e-07
-7.94375e-06
-2.03823e-06
8.23553e-07
3.68794e-06
8.02559e-06
-2.55511e-06
3.43352e-06
2.07067e-06
0.000113396
7.84268e-07
-6.89576e-07
2.08757e-06
-6.91207e-07
1.1469e-06
1.87668e-06
1.24392e-06
2.81055e-06
5.28991e-06
0.000119551
3.2487e-06
3.36148e-06
3.34283e-06
4.99181e-06
5.37479e-06
4.82429e-06
-1.41178e-05
1.13242e-06
4.1441e-07
1.67191e-05
-2.43575e-06
-1.11112e-06
1.79052e-07
3.36782e-06
-5.24813e-06
-1.49024e-06
2.0975e-06
6.71154e-06
-1.69569e-05
-4.78574e-07
-3.85159e-07
2.79657e-06
2.03139e-05
-2.78395e-06
6.92912e-07
-1.98484e-06
4.07588e-06
-9.32241e-06
1.2384e-06
3.72176e-06
4.36225e-06
-7.60682e-07
8.20976e-08
-2.44301e-07
9.22885e-07
-3.0945e-06
-9.18882e-07
-1.18243e-05
6.3268e-07
4.2577e-06
1.09473e-05
-6.37558e-06
-1.75508e-05
-5.78954e-07
1.39522e-06
5.03342e-06
1.80767e-05
-5.85647e-06
-2.53774e-06
-1.90289e-07
3.54145e-06
5.4117e-06
-3.68641e-07
-2.16988e-06
-2.07483e-06
-8.6869e-06
2.81653e-06
1.25371e-06
8.86137e-06
4.31752e-06
1.46718e-05
0.000100137
-5.74122e-06
-6.02604e-06
-4.98197e-06
-5.37259e-06
-3.17517e-06
-3.81587e-06
-2.78778e-06
-2.25646e-06
-1.43367e-05
2.80895e-05
8.49002e-05
-6.43518e-06
-7.56808e-06
-5.39016e-06
-6.24131e-06
-3.82969e-06
5.41492e-06
6.35355e-05
-4.06953e-06
-2.31396e-06
-2.98387e-06
-2.01335e-06
-3.55051e-06
-4.10656e-06
-3.35879e-06
-8.80351e-06
-8.19646e-07
-3.13275e-06
2.82485e-06
6.10138e-06
2.73266e-06
-2.67938e-06
5.25505e-06
-4.94709e-06
2.30672e-06
-2.66797e-06
-1.25596e-06
1.4485e-06
-1.97884e-06
1.7863e-06
2.70257e-06
-1.04412e-05
6.50937e-07
-2.89768e-06
-1.37179e-07
1.01226e-05
2.12266e-06
5.43094e-06
0.000138359
3.21895e-06
3.50129e-06
4.12042e-06
3.9352e-06
3.67449e-06
2.59035e-05
0.000111145
-4.40961e-07
1.22704e-06
8.3775e-05
1.07373e-06
-1.94341e-07
8.64786e-07
6.50811e-07
1.6496e-06
3.20733e-07
-7.87352e-06
-1.93381e-06
-9.41297e-07
1.37446e-06
8.9332e-06
-1.20589e-06
-1.42976e-06
1.30102e-06
-1.55127e-06
7.17579e-07
2.16832e-06
-8.23306e-06
-1.03967e-06
-8.46113e-07
3.10312e-06
8.53205e-06
-1.51633e-06
1.44074e-06
1.34241e-06
0.000110655
1.90202e-06
-8.336e-07
2.41489e-06
-6.76412e-07
7.49705e-07
1.06658e-06
7.65923e-07
2.50146e-06
4.01816e-06
0.00012172
2.79466e-06
2.83816e-06
2.55875e-06
3.67172e-06
3.63552e-06
3.15646e-06
-1.94513e-05
2.335e-06
5.88819e-07
2.0256e-05
-3.82743e-06
-2.09975e-06
-1.93973e-06
1.70429e-06
6.16262e-06
-1.54184e-06
-7.05986e-07
7.24807e-08
2.17535e-06
-8.2597e-06
-6.43733e-07
4.15136e-07
9.83071e-06
-2.31196e-05
3.3492e-07
-2.95966e-07
2.58131e-06
2.45175e-05
-5.66298e-06
7.96819e-07
-1.93273e-06
6.79889e-06
-2.41892e-06
1.34507e-06
-5.6853e-07
1.64238e-06
-1.28184e-06
1.47306e-06
-1.63073e-06
1.43951e-06
-1.60632e-06
-1.03969e-06
-1.0269e-05
8.23198e-07
1.55425e-06
1.05376e-05
-2.79612e-06
-1.73595e-05
4.05991e-07
-8.91443e-07
4.5772e-06
1.60639e-05
-4.8132e-06
8.55997e-07
-2.31787e-06
5.50781e-07
3.91107e-06
1.81322e-06
6.84171e-07
-1.05965e-06
-9.34518e-06
1.24041e-06
-1.27464e-06
9.75489e-06
5.64848e-06
5.78271e-06
0.00010677
-2.19828e-06
-4.65994e-06
-9.83822e-07
-3.39772e-06
-2.49403e-06
-1.54228e-06
-2.19035e-06
-5.98214e-07
-1.10809e-05
2.44348e-05
9.57153e-05
-5.86806e-06
-4.4742e-06
-4.97563e-06
-3.20263e-06
-3.41923e-06
3.39238e-06
6.57237e-05
-1.97569e-06
-1.33162e-06
-1.47431e-06
-1.28557e-06
-2.58689e-06
-2.71757e-06
-1.87055e-06
-4.9035e-06
-1.07786e-06
-2.60123e-06
1.37043e-06
3.79292e-06
3.71752e-06
1.71379e-06
2.09511e-06
-1.14553e-06
-1.64168e-06
-4.73919e-06
-2.15186e-06
1.81432e-06
-2.0632e-06
2.40074e-06
3.33532e-06
-9.54303e-06
1.20679e-06
-4.2973e-06
2.58244e-07
9.03998e-06
1.28887e-06
1.72836e-06
0.000125354
3.68723e-06
3.32977e-06
4.52663e-06
4.22689e-06
5.46319e-06
1.68556e-05
0.000114549
1.40081e-06
5.0447e-07
8.33544e-05
1.72431e-06
1.92695e-06
2.17353e-06
2.45274e-07
1.0091e-06
2.91743e-07
-9.91477e-06
5.7928e-08
8.86158e-07
-6.04753e-07
1.09762e-05
-1.56961e-06
7.84946e-07
7.72322e-08
3.31336e-07
-4.28432e-07
8.04525e-07
-9.06219e-06
-6.07828e-07
-1.50251e-06
2.76712e-06
9.83853e-06
-1.43312e-06
-6.49642e-07
9.50371e-07
0.000104922
2.27902e-06
-5.14621e-07
3.08655e-06
-3.23319e-07
7.61907e-07
8.74764e-07
9.95931e-07
1.85291e-06
2.14535e-06
0.000121917
2.07919e-06
2.31332e-06
1.96972e-06
1.94798e-06
1.94429e-06
1.7565e-06
-2.17989e-05
2.56604e-06
5.0305e-08
2.15399e-05
-7.20133e-06
7.21299e-07
-3.09857e-06
2.21047e-06
7.36813e-06
-2.83741e-06
5.2325e-07
-2.80584e-06
2.08244e-06
3.03756e-06
-1.1366e-05
-1.37198e-07
-4.63509e-07
1.29171e-05
-2.55725e-05
7.99296e-07
-3.46019e-07
1.78735e-06
2.54772e-05
-7.67036e-06
9.88519e-07
-1.51388e-06
8.19572e-06
-1.14931e-06
8.16603e-07
-5.12897e-07
8.45609e-07
-1.36279e-06
1.57187e-06
-1.80712e-06
1.59805e-06
6.10294e-07
-4.5305e-07
-1.07906e-05
1.08153e-06
-1.48064e-06
1.10325e-05
-1.09499e-06
-1.50283e-05
-9.73162e-08
-9.78808e-07
2.68715e-06
1.45123e-05
-2.5496e-06
1.32548e-06
-1.59623e-06
-4.13016e-07
1.8891e-06
1.34427e-06
1.89421e-06
9.37911e-07
-9.62887e-06
-9.88936e-07
-1.77638e-06
9.56207e-06
1.21476e-05
1.91688e-06
9.28973e-05
5.87406e-07
-1.79034e-06
9.79085e-07
2.83386e-07
-8.42402e-07
-3.25332e-07
3.99578e-07
5.17152e-07
1.6549e-06
1.88562e-05
9.87387e-05
-5.37367e-06
-2.28056e-06
-2.63184e-06
-1.10071e-06
-3.82294e-07
2.41566e-06
6.75289e-05
-5.06838e-07
-1.87166e-07
-1.27271e-08
-3.08508e-07
-2.38217e-07
-7.87365e-07
-1.42894e-07
-3.45708e-06
-8.26247e-08
4.51898e-07
-7.36758e-07
3.44227e-06
5.8708e-06
-1.32551e-06
1.19987e-06
-2.75549e-06
-2.98966e-06
-2.68884e-06
1.35231e-06
-1.76683e-06
3.10336e-06
3.76212e-06
-8.8533e-06
4.7484e-07
-5.50312e-06
1.09665e-06
9.02283e-06
2.67428e-06
3.35656e-06
0.000102272
4.3963e-06
4.20685e-06
5.33333e-06
5.03156e-06
1.08037e-05
1.00071e-05
0.000115269
2.78888e-06
4.7166e-07
8.45542e-05
2.51212e-06
2.50466e-06
1.50936e-06
8.0256e-07
1.08921e-06
3.40993e-07
-1.10228e-05
1.87632e-06
2.63499e-06
-1.62714e-06
1.09275e-05
-1.37913e-06
3.19796e-06
-3.31239e-06
3.29559e-06
-2.82157e-06
1.01955e-06
-1.12341e-05
-3.98121e-07
-2.3493e-06
2.89031e-06
1.30573e-05
-1.96609e-06
-2.04457e-06
1.01255e-06
9.87749e-05
3.12276e-06
-4.78863e-08
3.8074e-06
-6.06312e-08
1.18385e-06
1.08383e-06
1.44644e-06
1.56037e-06
1.34185e-06
0.000116786
1.80386e-06
2.23661e-06
1.8115e-06
1.42662e-06
1.40396e-06
1.50801e-06
-2.21636e-05
2.36673e-06
1.3157e-07
2.16973e-05
-5.91405e-06
9.26029e-07
-3.04658e-06
8.0346e-06
-1.44606e-05
-5.99596e-08
-6.30884e-07
1.61639e-05
-2.55346e-05
7.8231e-07
-4.4974e-07
1.1646e-06
2.53793e-05
-8.68956e-06
4.95729e-07
-1.02452e-06
9.21835e-06
-8.34386e-07
4.47622e-07
-7.44331e-07
1.1311e-06
-2.25978e-06
7.16777e-07
-1.73013e-06
3.27313e-06
1.34495e-06
4.65256e-07
-1.11343e-05
7.26228e-07
-2.72989e-06
1.13278e-05
1.10761e-06
-1.47452e-05
-1.8331e-06
1.44784e-06
-1.48791e-06
1.55108e-05
-2.08881e-06
1.65824e-06
-1.15726e-06
-1.39903e-06
3.33085e-06
-3.43993e-07
1.84088e-06
2.29826e-06
-9.61135e-06
-3.19111e-06
-1.01828e-06
9.68162e-06
1.18383e-05
-1.7428e-06
6.55295e-05
1.97021e-06
1.63926e-06
2.32966e-06
2.68474e-06
2.08724e-06
1.81242e-06
2.32876e-06
2.42006e-06
1.04503e-05
9.09383e-06
9.13919e-05
-8.15616e-07
-2.67526e-07
4.70307e-07
2.53747e-07
4.2447e-07
3.72551e-07
7.1882e-05
7.81284e-07
6.59703e-07
1.32536e-06
7.59788e-07
4.55557e-07
4.94869e-07
8.23611e-07
-2.62025e-06
5.0678e-07
-1.28547e-06
3.82341e-06
-3.59747e-06
5.06485e-07
-1.04224e-06
4.13322e-06
3.0258e-06
-9.63511e-06
-3.06206e-07
-4.90719e-06
1.83269e-06
9.99e-06
1.13111e-06
4.13542e-06
7.68267e-05
4.65794e-06
4.54618e-06
4.57493e-06
4.65697e-06
1.11015e-05
6.31573e-06
0.000108077
1.49304e-06
5.3606e-07
8.78329e-05
6.9523e-07
1.65999e-06
1.07228e-06
3.82301e-07
1.49807e-06
8.58453e-07
-1.41831e-05
1.04819e-06
1.07401e-06
-1.38652e-06
1.49405e-05
-1.52476e-05
-8.10774e-07
-2.09497e-06
3.44718e-06
1.73258e-05
-2.61961e-06
-3.97096e-06
1.04201e-06
9.49416e-05
3.4159e-06
-6.06058e-08
3.76012e-06
-1.88303e-07
1.37038e-06
1.06562e-06
1.5345e-06
1.50861e-06
1.33535e-06
0.000105854
1.58594e-06
2.29867e-06
1.57267e-06
1.64065e-06
1.52065e-06
1.81428e-06
-2.23336e-05
2.06445e-06
6.49556e-07
2.16643e-05
-8.95929e-06
2.25928e-06
-1.81008e-06
8.51009e-06
-1.79591e-05
-2.32478e-07
-5.13772e-07
1.97474e-05
-2.55759e-05
7.17025e-07
-6.73157e-07
8.97654e-07
2.59697e-05
-9.92139e-06
-1.31452e-07
-6.47411e-07
1.07003e-05
-1.62935e-06
4.4389e-07
-1.01666e-06
2.20212e-06
-4.38555e-06
2.2695e-07
-1.21845e-06
5.37705e-06
8.85958e-07
4.87937e-07
-1.19561e-05
2.68726e-07
-2.429e-06
1.27425e-05
1.8161e-06
-1.60275e-05
-1.64778e-06
1.68795e-06
-2.11912e-06
1.62904e-05
-4.87545e-06
1.70378e-06
-7.7113e-07
-1.74845e-06
6.31392e-06
-6.22659e-07
1.20647e-06
2.48934e-06
-9.43386e-06
-3.18773e-06
1.75684e-08
8.90822e-06
2.92017e-06
-4.22356e-06
4.48616e-05
2.38257e-06
2.7187e-06
2.1146e-06
2.69643e-06
3.09068e-06
3.06748e-06
2.78267e-06
3.11811e-06
1.07856e-05
5.53677e-06
7.46643e-05
6.32488e-07
4.29489e-07
1.40066e-06
8.62685e-07
1.30405e-06
2.17288e-06
6.98998e-05
1.22154e-06
8.13035e-07
1.40156e-06
7.3611e-07
2.02499e-06
7.82808e-07
2.31087e-06
-5.3023e-06
4.08328e-07
-7.58687e-07
6.95671e-06
-4.69518e-06
-3.22427e-07
-2.10243e-07
5.22785e-06
2.0312e-06
-1.01547e-05
-1.43816e-06
-3.24286e-06
2.62332e-06
1.01812e-05
-1.25877e-06
1.57528e-06
5.88037e-05
3.28331e-06
3.31629e-06
3.31147e-06
3.57185e-06
8.62716e-06
7.33084e-06
9.63967e-05
1.74943e-06
1.28989e-06
8.67051e-05
8.96624e-07
1.96496e-06
8.62363e-07
1.26816e-06
2.27968e-06
1.61679e-06
-1.5291e-05
2.36175e-07
1.10695e-06
-4.63548e-07
1.61609e-05
-1.94868e-05
-1.78468e-06
-7.49079e-07
3.80957e-06
2.14399e-05
-3.22886e-06
-6.64558e-06
7.9505e-07
9.41331e-05
2.76069e-06
-3.10189e-07
2.94503e-06
-4.15515e-07
1.16166e-06
8.36101e-07
1.25656e-06
1.10778e-06
1.54193e-06
9.49192e-05
9.65068e-07
1.56264e-06
8.93809e-07
1.96931e-06
1.58346e-06
1.99627e-06
-2.23375e-05
1.79302e-06
1.17665e-06
2.17655e-05
-9.23217e-06
6.78968e-07
-1.41977e-06
9.97297e-06
-2.16157e-05
-1.97986e-07
-4.79318e-07
2.30881e-05
-2.66709e-05
7.91356e-07
-9.92408e-07
7.48239e-07
2.76656e-05
-1.15707e-05
-4.9287e-07
-3.68649e-07
1.24323e-05
-2.73804e-06
6.19722e-07
-1.1002e-06
3.21852e-06
-6.09649e-06
1.39463e-07
-5.36406e-07
6.49343e-06
1.30476e-07
1.32569e-07
-1.36354e-05
8.5729e-08
-1.14331e-06
1.44299e-05
1.88731e-06
-1.65794e-05
-3.57948e-07
5.42487e-07
-2.20821e-06
1.67158e-05
-7.33505e-06
1.63214e-06
-6.6556e-07
-1.3198e-06
7.74495e-06
-5.66867e-08
1.96634e-07
9.88389e-07
-8.37907e-06
-1.91004e-06
1.12264e-06
7.98144e-06
-4.3722e-06
-4.83797e-06
3.85708e-05
1.59766e-06
1.88237e-06
1.32879e-06
1.73586e-06
2.24541e-06
2.51481e-06
1.82482e-06
2.37125e-06
5.78094e-06
5.74845e-06
5.61756e-05
9.72262e-07
2.65561e-07
1.13589e-06
2.13388e-07
3.78457e-07
7.40735e-06
6.20826e-05
6.40005e-08
1.11661e-07
3.08157e-07
8.14332e-08
2.38239e-06
3.85894e-07
2.47883e-06
-7.69051e-06
7.26682e-07
-4.3194e-07
7.77423e-06
-5.71376e-06
-7.26909e-07
3.76865e-07
6.0638e-06
1.38197e-06
-1.03719e-05
-2.03924e-06
-2.28125e-06
2.58845e-06
1.07219e-05
-4.46909e-06
-2.36078e-06
5.06731e-05
2.19068e-06
2.56488e-06
2.35453e-06
3.01244e-06
3.50537e-06
7.11226e-06
8.70585e-05
1.509e-06
1.92183e-06
8.56783e-05
2.89321e-07
1.60021e-06
2.09248e-07
1.83748e-06
2.53491e-06
2.03746e-06
-1.74852e-05
-6.53231e-07
4.89233e-07
6.74997e-07
1.84832e-05
-2.35004e-05
-2.55936e-06
4.41064e-07
3.44453e-06
2.50434e-05
-2.86924e-06
-5.95215e-06
6.26068e-07
9.26608e-05
1.44347e-06
-7.77921e-07
1.88769e-06
-5.00179e-07
7.96476e-07
7.52867e-07
8.35157e-07
3.49493e-07
9.02467e-07
8.95208e-05
3.51647e-07
8.97655e-07
2.19865e-07
1.68815e-06
6.5229e-07
1.49697e-06
-2.26325e-05
1.054e-06
1.53257e-06
2.23173e-05
-1.07192e-05
1.54395e-07
-8.64315e-07
1.14291e-05
-2.4275e-05
4.1115e-07
-2.87835e-07
2.47777e-05
-2.90565e-05
4.93436e-07
-9.94325e-07
1.47696e-07
3.03122e-05
-1.33051e-05
-7.25054e-07
1.7896e-08
1.40123e-05
-3.67029e-06
6.84103e-07
-1.0811e-06
4.06729e-06
-6.59598e-06
2.9958e-07
-2.17363e-07
6.51376e-06
-4.53191e-07
-4.23793e-08
-1.50241e-05
1.8336e-07
-1.60584e-07
1.54969e-05
1.62874e-06
-1.68868e-05
1.71595e-07
-3.06026e-07
-1.51912e-06
1.69116e-05
-8.00707e-06
1.29527e-06
-5.19611e-07
-1.22188e-06
8.21458e-06
2.38711e-07
-2.95563e-07
3.80728e-07
-7.80404e-06
-8.67295e-07
5.90066e-07
7.9961e-06
-3.10095e-06
-5.767e-06
3.87662e-05
1.03942e-06
1.19773e-06
7.72982e-07
1.32734e-06
1.04844e-06
1.34318e-06
7.71054e-07
1.17238e-06
2.60046e-06
4.5773e-06
4.5135e-05
3.70869e-07
-2.48824e-07
3.85924e-07
2.53969e-07
2.04441e-07
1.02526e-05
5.19173e-05
-3.66298e-07
-4.18759e-07
-1.428e-07
-5.65433e-07
1.68281e-06
6.04655e-07
1.51457e-06
-7.47391e-06
9.1748e-07
-6.11884e-09
6.76699e-06
-6.24534e-06
-7.43059e-07
7.18899e-07
6.2695e-06
1.29424e-06
-1.15297e-05
-3.59935e-07
-2.00385e-06
-3.44137e-08
1.26337e-05
-2.57395e-06
-6.41342e-06
4.73829e-05
1.23168e-06
1.92336e-06
1.27874e-06
2.07683e-06
1.1851e-06
3.7189e-06
8.41578e-05
1.16774e-06
1.73517e-06
8.68857e-05
-1.79943e-07
1.19627e-06
-1.4464e-07
2.05316e-06
2.27725e-06
2.12532e-06
-1.96122e-05
-1.15624e-06
1.63918e-07
1.41812e-06
2.03541e-05
-2.6203e-05
-2.99698e-06
6.86177e-07
2.63267e-06
2.70203e-05
-1.13918e-06
5.42723e-07
3.76414e-07
8.53743e-05
1.21858e-07
-1.00312e-06
7.85322e-07
-4.18373e-07
1.08128e-07
3.73756e-07
-1.35713e-08
2.29644e-07
-1.88269e-07
9.14295e-05
6.82777e-08
1.0478e-06
1.94407e-07
8.59818e-07
-3.14457e-07
4.55644e-07
-2.33584e-05
6.60144e-07
1.31983e-06
2.33432e-05
-1.20964e-05
-2.77026e-07
-2.38372e-07
1.26118e-05
-2.5055e-05
8.93711e-07
-2.28206e-07
2.47659e-05
-3.16979e-05
-7.96078e-08
-3.82083e-07
-4.24991e-07
3.23963e-05
-1.45946e-05
-8.86664e-07
4.22113e-07
1.50591e-05
-4.42752e-06
6.73505e-07
-9.61491e-07
4.71551e-06
-6.3928e-06
5.96061e-07
-5.73013e-07
6.36975e-06
-8.05803e-07
-3.1634e-07
-1.59097e-05
2.77084e-07
4.33063e-07
1.63217e-05
1.24463e-06
-1.69826e-05
3.18828e-07
-6.92169e-07
-7.82748e-07
1.68941e-05
-8.51869e-06
1.16208e-07
1.40763e-07
-4.6953e-07
8.70407e-06
2.71766e-08
4.19925e-07
2.83875e-07
-8.6391e-06
-4.27492e-07
-1.20439e-06
9.56718e-06
6.67312e-07
-6.51945e-06
4.0875e-05
5.93876e-07
1.02774e-06
6.13427e-07
1.16223e-06
1.33109e-07
1.32706e-07
-5.00788e-09
8.52496e-08
5.46635e-07
1.25395e-06
4.27528e-05
1.16724e-07
3.20683e-07
3.5512e-07
4.56434e-07
5.37867e-08
8.8523e-06
4.48914e-05
-4.94483e-07
-6.10281e-07
-5.44741e-07
-7.17179e-07
5.97789e-07
-2.89268e-09
4.38249e-07
-6.12514e-06
6.60327e-07
3.24502e-07
5.1941e-06
-6.14483e-06
-4.71142e-07
7.70847e-07
5.84512e-06
1.57811e-06
-1.35523e-05
2.23802e-06
-1.76171e-06
-2.6922e-06
1.41901e-05
5.84636e-08
-7.53183e-06
4.64713e-05
2.57851e-07
7.47007e-07
2.8615e-07
5.74473e-07
1.23696e-06
-1.33727e-06
8.55705e-05
7.7707e-07
1.19103e-06
9.0147e-05
-4.1253e-07
6.69758e-07
-4.77027e-07
1.76127e-06
1.73982e-06
1.5785e-06
-2.12574e-05
-1.30254e-06
-1.62551e-08
1.5917e-06
2.17615e-05
-2.79516e-05
-2.62936e-06
5.15043e-07
9.58276e-07
2.84305e-05
6.77161e-07
7.2717e-06
1.84356e-07
7.52487e-05
-9.70169e-07
-1.24792e-06
-9.909e-07
-1.45402e-06
-3.60349e-07
2.59326e-07
-9.82531e-08
7.52496e-07
-1.10841e-06
9.70682e-05
5.09528e-07
1.69073e-06
7.79787e-07
-4.8914e-07
-1.00609e-06
-8.33179e-07
-2.48651e-05
5.48852e-07
8.1113e-07
2.54487e-05
-1.30002e-05
-5.00309e-07
1.73576e-07
1.33269e-05
-2.42687e-05
1.11359e-06
7.27299e-08
2.32667e-05
-3.29679e-05
-7.19791e-07
6.65227e-07
-7.64387e-07
3.26785e-05
-1.54397e-05
-5.62907e-07
3.6486e-07
1.56377e-05
-4.88098e-06
4.59317e-07
-5.72415e-07
4.99408e-06
-6.49852e-06
9.29906e-07
-1.15448e-06
6.7231e-06
-6.38014e-07
-5.99651e-07
-1.68646e-05
3.55738e-07
1.74867e-07
1.75716e-05
9.89713e-07
-1.6788e-05
1.09257e-07
-3.03931e-07
-5.65996e-07
1.65589e-05
-8.71129e-06
-5.79131e-07
5.16244e-07
5.76454e-07
8.43408e-06
-2.36355e-07
1.46694e-06
-1.85665e-08
-1.05359e-05
6.23494e-08
-2.3854e-06
1.14106e-05
2.56462e-06
-6.01195e-06
4.29056e-05
7.00988e-07
5.15901e-07
8.88784e-07
6.29218e-07
-2.69333e-07
-3.9479e-07
-3.91799e-07
-2.62269e-07
1.69932e-07
-3.07546e-06
4.60048e-05
3.73372e-07
4.39392e-07
7.40168e-07
6.65132e-07
-1.88424e-07
4.86809e-06
4.29708e-05
-6.47933e-07
-4.00881e-07
-4.99752e-07
-4.03372e-07
-2.19948e-08
-1.68365e-07
-4.46815e-07
-4.5145e-06
3.28568e-07
1.02311e-07
3.8952e-06
-5.49637e-06
8.30957e-08
2.03852e-08
5.39289e-06
1.73181e-06
-1.47607e-05
3.3408e-06
-1.26111e-06
-4.24663e-06
1.51958e-05
1.64408e-06
-6.67343e-06
4.53715e-05
-1.64763e-07
-8.78888e-08
2.14841e-07
1.55014e-07
2.39451e-06
-6.1595e-06
8.79041e-05
3.46592e-07
5.09564e-08
9.62366e-05
-7.53935e-07
2.05475e-07
-9.32948e-07
8.9301e-07
4.98559e-07
8.65288e-07
-2.21818e-05
-1.06231e-06
-7.1089e-08
1.43322e-06
2.22286e-05
-2.75311e-05
-2.90696e-07
3.69989e-08
-1.59738e-06
2.5078e-05
4.30424e-06
8.60179e-06
4.86516e-07
6.74684e-05
-2.34277e-06
-2.56449e-06
-1.53869e-06
-2.30773e-06
7.53647e-08
4.71692e-07
2.25104e-07
9.10375e-07
-1.30604e-06
0.000100348
7.2277e-07
1.69197e-06
9.15265e-07
-1.40211e-06
-9.40155e-07
-1.4293e-06
-2.78432e-05
4.79817e-07
-2.40946e-07
2.85656e-05
-1.36543e-05
-5.96251e-07
3.77177e-07
1.38734e-05
-2.20733e-05
-5.76372e-07
1.74802e-06
2.13882e-05
-3.23553e-05
-1.56091e-06
1.91371e-06
-9.03703e-07
3.16001e-05
-1.56604e-05
5.39487e-07
-4.06887e-07
1.55278e-05
-5.14182e-06
3.79032e-07
-5.62981e-07
5.32577e-06
-6.93322e-06
8.31875e-07
-9.24964e-07
7.02631e-06
-3.55888e-07
-5.10508e-07
-1.83985e-05
-1.72223e-08
8.58244e-09
1.92735e-05
1.07072e-06
-1.62118e-05
2.18377e-07
-1.06479e-07
-6.23144e-07
1.56524e-05
-7.99349e-06
-6.99371e-07
3.12039e-07
7.48374e-07
7.56203e-06
7.04169e-08
1.26025e-06
-1.3675e-07
-1.19382e-05
7.34386e-07
-1.83724e-06
1.19176e-05
4.14321e-06
-3.4708e-06
4.38997e-05
7.72233e-07
-1.10604e-07
7.53949e-07
2.58213e-07
-7.7189e-07
-8.11123e-07
-1.04716e-06
-7.10068e-07
9.39278e-07
-5.35948e-06
5.05951e-05
7.57797e-07
7.19548e-07
1.2767e-06
1.21908e-06
4.62834e-08
-7.32471e-07
4.54637e-05
-1.43614e-07
5.26662e-08
3.71419e-07
5.82093e-08
-6.32017e-07
5.36955e-08
-6.2784e-07
-3.46489e-06
1.92273e-07
-6.70985e-09
3.32561e-06
-5.60994e-06
2.6374e-07
-6.15486e-07
5.96169e-06
1.31741e-06
-1.56999e-05
2.07033e-06
-1.0467e-06
-2.97684e-06
1.63358e-05
8.63428e-07
-3.32674e-06
4.36825e-05
1.7084e-07
-7.9851e-08
4.77878e-07
1.12658e-07
3.16393e-06
-8.26447e-06
8.85086e-05
2.1698e-07
-1.51761e-06
0.000102198
-9.01461e-07
2.10038e-07
-8.55734e-07
9.26678e-08
-7.33848e-07
-4.07624e-08
-2.20542e-05
-9.39372e-07
-1.44282e-08
1.52273e-06
2.17023e-05
-2.21571e-05
1.96937e-06
-7.97125e-07
-2.40222e-06
1.9533e-05
3.85408e-06
6.36437e-06
3.29278e-07
6.21642e-05
-1.46295e-06
-1.2023e-06
-1.09223e-06
-5.70359e-07
1.94798e-07
-4.27273e-07
-1.5581e-07
5.54447e-07
-1.18613e-06
0.000100804
5.86736e-07
1.5884e-06
7.24874e-07
-1.68229e-06
-1.25852e-06
-1.68378e-06