/*--------------------------------*- C++ -*----------------------------------*\
| =========                 |                                                 |
| \\      /  F ield         | OpenFOAM: The Open Source CFD Toolbox           |
|  \\    /   O peration     | Version:  5.x                                   |
|   \\  /    A nd           | Web:      www.OpenFOAM.org                      |
|    \\/     M anipulation  |                                                 |
\*---------------------------------------------------------------------------*/
FoamFile
{
    version     2.0;
    format      ascii;
    class       volScalarField;
    location    "6";
    object      p;
}
// * * * * * * * * * * * * * * * * * * * * * * * * * * * * * * * * * * * * * //

dimensions      [0 2 -2 0 0 0 0];

internalField   nonuniform List<scalar> 
10571
(
93.2253
112.009
98.4522
84.1229
87.4399
129.002
93.1956
81.0842
86.4613
92.3952
187.283
179.514
133.544
92.3038
91.2598
96.8259
192.596
166.885
152.402
127.665
123.966
163.552
149.487
139.809
73.5161
90.1557
77.3082
65.8173
74.4109
85.6459
75.3836
74.963
81.8179
87.3578
145.709
115.18
72.6758
61.1076
56.5809
82.8546
147.018
116.36
91.9162
66.6701
59.495
145.963
127.707
112.152
17.8491
43.7482
50.4172
47.7234
21.6052
53.8937
67.4246
58.7577
35.2728
56.4546
59.7457
58.1888
57.5375
42.2631
27.216
24.9114
77.3633
65.862
50.3962
33.41
23.8612
97.0917
103.654
62.115
16.9396
14.1307
13.8206
12.0514
14.4582
13.6677
36.6715
25.8784
14.2582
14.2303
13.2775
13.2988
17.3326
32.9325
18.8432
16.613
14.0551
15.9254
24.4718
22.4684
20.5377
39.8969
48.413
28.0563
15.6391
13.8903
13.6887
14.737
14.1405
13.9225
11.8522
11.3016
13.3862
14.2708
13.7373
13.7695
12.6597
16.8934
13.8214
14.5817
13.7016
13.1625
13.5397
14.7192
15.2853
13.4654
14.986
13.7059
14.7762
13.8086
13.4671
13.9005
13.9699
13.732
13.7103
13.9143
13.6549
14.3492
14.145
13.6929
13.6488
13.6045
12.1933
12.6791
13.685
13.2925
13.574
13.4598
13.2052
12.987
12.8716
13.459
13.296
13.2337
14.1252
13.6429
13.4566
13.737
14.0858
13.577
13.4733
13.9224
13.403
14.5898
14.0776
13.5527
13.4984
13.3829
13.6383
13.6113
13.487
13.1267
13.4861
13.375
13.4459
13.0911
13.3219
13.1075
13.4179
13.3433
13.2208
13.8404
13.3873
13.3213
13.6178
14.0183
13.4018
13.3131
13.5436
13.1933
13.3235
12.7442
13.4817
13.4339
13.3434
13.4996
13.7328
13.3328
12.6493
13.4433
13.411
13.4498
13.1723
13.8107
14.095
13.3994
13.3943
13.3757
13.5707
13.1896
13.1631
13.3393
13.7559
13.2368
13.2555
13.3665
13.1594
12.6456
13.0008
13.4365
13.3886
13.3405
13.3788
13.702
13.0818
14.2796
13.4487
13.4518
13.4903
13.3401
13.463
13.435
13.434
13.4976
13.5063
13.1218
13.1202
13.3232
13.6615
13.1303
13.2829
13.3661
13.2585
12.407
13.4197
13.3664
13.355
13.3755
13.6443
12.9797
13.4615
13.49
13.5206
13.4245
13.1832
13.4836
13.4843
13.5366
13.6123
13.3066
13.2577
13.4456
13.6031
13.2354
13.3746
13.4215
13.2746
13.0917
13.4481
13.3952
13.4253
13.4343
13.5542
13.1213
13.4917
13.5065
13.5585
13.4787
13.5487
13.5227
13.5474
13.5873
13.6668
13.5829
13.4895
13.5776
13.5747
13.4887
13.5098
13.4927
13.2911
13.4774
13.5398
13.4978
13.5241
13.5094
13.5256
13.4596
13.5552
13.5562
13.613
13.5259
13.6096
13.5737
13.6046
13.6433
13.6987
13.8258
13.7593
13.5856
13.5519
13.6936
13.6164
13.5354
13.3004
13.5701
13.6592
13.6304
13.6063
13.5728
13.5306
13.5045
13.6281
13.6226
13.6735
13.567
13.6726
13.6259
13.6648
13.7053
13.6634
13.9011
13.8119
13.6133
13.5156
13.7971
13.6569
13.529
13.2787
13.569
13.7377
13.7211
13.6656
13.597
13.506
13.4793
13.6914
13.6751
13.7071
13.5955
13.7188
13.6781
13.7012
13.7333
13.8442
13.8959
13.8436
13.7351
13.5903
13.8283
13.6858
13.5148
13.2424
13.5489
13.7891
13.775
13.7118
13.5926
13.4328
13.4264
13.7348
13.7016
13.6885
13.5822
13.7048
13.6992
13.7033
13.7089
14.0286
13.8743
13.8413
13.931
13.6748
13.8262
13.7053
13.5494
13.2756
13.5388
13.8052
13.7934
13.7476
13.5771
13.3431
13.3892
13.7611
13.698
13.6232
13.5273
13.6197
13.6966
13.6584
13.635
13.9481
13.8646
13.8398
13.8856
13.7631
13.8236
13.7382
13.6178
13.3724
13.5944
13.8152
13.8135
13.7591
13.5635
13.3314
13.4371
13.7819
13.6833
13.5443
13.4624
13.5083
13.6901
13.5947
13.551
13.9201
13.8832
13.8835
13.8708
13.8905
13.8441
13.779
13.6802
13.555
13.7067
13.8305
13.844
13.7627
13.5659
13.4357
13.5875
13.8061
13.6897
13.4984
13.4372
13.4355
13.7071
13.566
13.5016
13.9404
13.9062
13.9043
13.9091
14.0267
13.8701
13.8205
13.7636
13.7326
13.8451
13.8633
13.8737
13.7947
13.6224
13.6673
13.7653
13.8441
13.7283
13.532
13.4918
13.5063
13.7547
13.6145
13.5459
13.9327
13.9219
13.8932
13.9049
14.0687
13.9074
13.8592
13.8357
13.8358
13.9434
13.9132
13.9084
13.8421
13.7476
13.8601
13.9728
13.899
13.8114
13.7078
13.6393
13.7649
13.837
13.7457
13.7075
13.9274
13.9395
13.8911
13.9011
13.9947
13.9391
13.8938
13.8774
13.8973
13.9395
13.9613
13.9447
13.8921
13.8686
13.9244
13.9834
13.9611
13.9013
13.9011
13.8932
14.0442
13.9395
13.8818
13.9214
13.9401
13.9554
13.9108
13.9048
13.9451
13.9639
13.9228
13.9131
13.9548
13.959
14.011
13.9803
13.9409
13.9553
14.0188
13.9955
14.0144
13.9692
14.0076
14.027
14.1191
14.0288
13.9954
14.0403
13.9594
13.9632
13.9291
13.9295
13.8832
13.9805
13.9473
13.9661
14.0249
13.9921
14.0392
14.0068
13.9736
14.0147
14.0883
14.0229
14.0479
14.0104
14.049
14.0907
14.0922
14.0738
14.0681
14.0997
13.9725
13.9564
13.9305
13.9635
13.8648
13.9808
13.9587
13.9832
14.0179
14.0938
14.0448
14.0141
13.9783
14.0176
14.0943
14.073
14.0523
14.0133
14.0435
14.1206
14.1017
14.0703
14.0646
14.1006
13.9691
13.9356
13.9181
13.9659
13.9119
13.9639
13.9448
13.9552
13.9175
14.053
14.03
13.9985
13.9535
13.9825
14.0226
14.042
14.0308
13.9817
14.0151
14.0662
14.079
14.0363
14.0321
14.0684
13.9407
13.9068
13.8938
13.9271
13.8968
13.9374
13.907
13.8851
13.7845
13.873
13.998
13.9681
13.9137
13.9309
13.8878
13.9008
13.9957
13.9411
13.9667
13.9833
13.9797
13.9903
13.9995
14.0334
13.8973
13.8777
13.8682
13.867
13.8087
13.9079
13.864
13.7782
13.6615
13.6984
13.9586
13.9298
13.8704
13.8673
13.7905
13.7712
13.9556
13.9079
13.9104
13.8996
13.8792
13.9523
13.958
13.973
13.8621
13.8547
13.8527
13.8311
13.7234
13.8778
13.8313
13.7555
13.5682
13.5855
13.9201
13.8925
13.8362
13.8192
13.7382
13.6936
13.9201
13.8837
13.8573
13.8336
13.807
13.919
13.9026
13.9035
13.8118
13.844
13.8669
13.7816
13.6681
13.8508
13.8086
13.7904
13.5039
13.5267
13.8909
13.8658
13.8197
13.8016
13.72
13.603
13.8977
13.8694
13.8114
13.7928
13.7745
13.8838
13.8396
13.8441
13.7489
13.843
13.8624
13.7065
13.6326
13.8337
13.7961
13.786
13.4789
13.463
13.8759
13.853
13.8181
13.7957
13.7186
13.6402
13.883
13.8379
13.7767
13.7765
13.7793
13.8437
13.8014
13.7922
13.7665
13.8403
13.8439
13.6802
13.6828
13.8214
13.7809
13.7537
13.5367
13.8157
13.8676
13.8466
13.8172
13.7745
13.713
13.7391
13.874
13.8106
13.8084
13.7814
13.7921
13.8329
13.8645
13.8531
13.8246
13.8291
13.8154
13.8054
13.7872
13.8131
13.7572
13.7447
13.566
13.8104
13.8614
13.8415
13.8016
13.7136
13.6821
13.7357
13.8589
13.8003
13.7975
13.7748
13.7904
13.8709
13.9184
13.8723
13.8234
13.8182
13.781
13.8301
13.7356
13.8045
13.7356
13.6682
13.5643
13.7013
13.846
13.8211
13.7634
13.6092
13.6362
13.7095
13.8347
13.7804
13.737
13.7488
13.7814
13.9011
13.9115
13.8569
13.7957
13.8159
13.7786
13.7879
13.7459
13.7896
13.7202
13.6013
13.5933
13.7128
13.8253
13.7883
13.7216
13.5241
13.6324
13.711
13.8025
13.741
13.673
13.7224
13.7806
13.9334
13.8796
13.8335
13.7854
13.8313
13.7904
13.7611
13.7762
13.7822
13.7234
13.574
13.6539
13.7779
13.8074
13.7605
13.6973
13.4906
13.6783
13.7526
13.7766
13.6947
13.6346
13.7178
13.803
13.9165
13.836
13.8185
13.8214
13.8591
13.8149
13.7715
13.8263
13.7907
13.7259
13.5796
13.7378
13.8574
13.7921
13.7526
13.6805
13.5119
13.7556
13.8176
13.7607
13.661
13.6381
13.7477
13.8436
13.9042
13.8015
13.8266
13.8986
13.8839
13.8628
13.8207
13.9084
13.8023
13.7213
13.6198
13.8285
13.9271
13.7845
13.7417
13.6594
13.5676
13.841
13.8879
13.7543
13.6331
13.6846
13.8014
13.8954
13.8116
13.7872
13.857
13.9809
13.9164
13.9037
13.8961
13.9898
13.8268
13.7355
13.6851
13.9264
13.9923
13.8085
13.7461
13.645
13.6649
13.9188
13.9516
13.7861
13.6422
13.7579
13.8631
13.9505
13.7847
13.8079
13.9034
14.0362
13.9561
13.9514
13.9714
14.112
13.8632
13.7674
13.7756
13.9954
14.0291
13.8558
13.7863
13.671
13.7767
13.9843
14.0017
13.8447
13.6591
13.8321
13.9213
14.0032
13.7976
13.8497
13.9564
14.1469
14.0011
14.0013
14.0478
14.147
13.9147
13.8019
13.8951
14.0088
14.0475
13.8827
13.844
13.7242
13.8675
14.0311
14.0443
13.9788
13.7423
13.8961
13.9764
14.0519
13.8972
13.9022
14.0091
14.1646
14.0528
14.0461
14.063
14.1196
13.9566
13.8452
13.9588
14.0098
14.063
13.9792
13.8711
13.7776
13.9401
14.0732
14.0809
14.0551
13.7977
13.957
14.0255
14.0934
13.9173
13.9541
14.0565
14.1181
14.0963
14.0822
14.0759
14.0926
14.0058
13.9543
13.99
14.0316
14.0821
14.03
13.9258
13.8797
13.9888
14.0971
14.1041
14.0279
13.8699
14.0157
14.0611
14.1195
13.9436
14.002
14.0915
14.1088
14.1335
14.1229
14.09
14.0746
14.0721
13.9946
14.0017
14.0468
14.0918
14.1168
14.0168
13.9342
14.0031
14.0852
14.1023
14.0476
13.9393
14.0511
14.0809
14.1287
13.9801
14.0401
14.1125
14.0844
14.1146
14.1035
14.0726
14.0545
14.0802
13.9979
14.0053
14.0409
14.0819
14.0672
14.0099
13.9576
13.9986
14.0593
14.0888
13.9933
13.9739
14.0667
14.095
14.1333
14.0083
14.0703
14.1212
14.0558
14.0802
14.0724
14.0442
14.0321
14.06
14.0094
13.994
14.0156
14.0596
14.0287
13.9988
13.969
13.9908
14.0487
14.0776
13.9865
13.9989
14.0704
14.1003
14.13
14.0362
14.0901
14.1218
14.0293
14.0493
14.0447
14.0197
14.0097
14.0366
13.9943
13.9771
13.9876
14.0386
14.0212
14.0151
13.9987
13.9995
14.0377
14.0673
14.0408
14.0411
14.0617
14.091
14.1102
14.0647
14.0958
14.118
14.0098
14.0222
14.0189
14.0029
13.9885
14.0169
13.9834
13.9628
13.9696
14.0195
14.0229
14.019
14.0112
13.9994
14.0079
14.0387
14.0725
14.041
14.0419
14.0651
14.0747
14.0719
14.0863
14.1088
13.9951
14.0022
13.9961
13.9887
13.9802
14.0009
13.9725
13.9504
13.9542
13.9994
14.0147
14.0105
13.9925
13.9788
13.9685
14.0042
14.0461
14.0343
14.0264
14.0335
14.0427
14.0664
14.065
14.0893
13.984
13.9889
13.9782
13.9758
13.9826
13.9897
13.9647
13.9456
13.941
13.9825
14.0035
13.9983
13.977
13.9476
13.935
13.9811
14.0233
14.0238
14.0125
14.0032
14.0192
14.0575
14.0465
14.0642
13.9751
13.9794
13.9668
13.9654
13.9909
13.9795
13.9575
13.946
13.9333
13.972
13.9917
13.9869
13.9675
13.9252
13.9126
13.964
14.0076
13.9969
13.9905
13.9713
13.9964
14.0497
14.0267
14.0387
13.9652
13.9708
13.9597
13.9559
13.9958
13.9697
13.952
13.9412
13.9271
13.9639
13.9776
13.974
13.9634
13.9139
13.9029
13.9466
13.9916
13.959
13.9557
13.9425
13.9744
14.0346
14.0001
14.008
13.952
13.9607
13.9521
13.9452
13.9876
13.9592
13.9518
13.9311
13.9147
13.9521
13.96
13.9576
13.9527
13.9078
13.8991
13.9263
13.965
13.9076
13.9105
13.9185
13.9522
13.9889
13.9609
13.9701
13.9344
13.9495
13.942
13.9282
13.9548
13.9456
13.9472
13.9155
13.8872
13.9331
13.9457
13.9369
13.9314
13.9011
13.8891
13.9016
13.9244
13.858
13.873
13.8999
13.9282
13.921
13.9166
13.9319
13.9145
13.9382
13.9292
13.9062
13.9085
13.9313
13.9328
13.8984
13.8571
13.904
13.9313
13.9163
13.9044
13.8843
13.8647
13.8732
13.8766
13.8265
13.8534
13.8873
13.9024
13.857
13.8783
13.8996
13.8959
13.9292
13.9164
13.8869
13.8627
13.9218
13.9157
13.8807
13.8183
13.8684
13.9189
13.8999
13.876
13.8599
13.8322
13.8389
13.8351
13.7992
13.8406
13.8717
13.8746
13.8093
13.8448
13.8714
13.8823
13.9241
13.9078
13.8751
13.8356
13.9185
13.9059
13.8632
13.7886
13.8296
13.9128
13.893
13.8499
13.8374
13.8021
13.8005
13.8108
13.7914
13.8237
13.8555
13.8467
13.7775
13.826
13.8552
13.8776
13.924
13.9051
13.8683
13.8254
13.9239
13.906
13.8571
13.7688
13.7926
13.9225
13.9058
13.8574
13.8362
13.7736
13.7683
13.8321
13.824
13.8317
13.8401
13.8183
13.7971
13.8345
13.8507
13.8776
13.9295
13.9071
13.8657
13.8174
13.94
13.9142
13.8585
13.7501
13.7532
13.9498
13.9367
13.8962
13.8476
13.746
13.7286
13.9134
13.8441
13.8612
13.8177
13.786
13.8458
13.8708
13.8655
13.8737
13.9415
13.9102
13.8598
13.7918
13.9673
13.9245
13.8575
13.6876
13.6393
13.9901
13.9785
13.9409
13.8696
13.7142
13.6461
14.0001
13.9317
13.8845
13.8086
13.7436
14.0033
13.9532
13.8974
13.8583
13.9559
13.9123
13.8434
13.7402
13.9924
13.9298
13.8321
13.5693
13.4498
14.0359
14.0224
13.9815
13.8853
13.6464
13.4255
14.0791
14.0607
13.9733
13.809
13.6718
14.1782
14.1042
13.9572
13.831
13.9625
13.9071
13.8124
13.6629
14.0087
13.9268
13.774
13.3754
13.0907
14.0805
14.0635
14.0112
13.85
13.4869
12.9089
14.1561
14.107
14.0501
13.8065
13.5364
14.21
14.2818
14.097
13.7992
13.9618
13.8969
13.7755
13.5604
14.016
13.9113
13.6857
13.0834
12.2433
14.1155
14.0943
14.0482
13.7822
13.2661
11.6238
14.241
14.2332
14.121
13.8486
13.2193
14.3938
14.5427
14.3077
13.7752
13.9556
13.8843
13.7446
13.4683
14.0088
13.8664
13.5816
12.8005
10.1704
14.1242
14.0829
14.0376
13.6943
12.9411
9.75767
-11.4789
14.2711
14.3089
14.2007
13.9023
12.3552
14.4828
14.6468
14.5601
13.7659
13.9494
13.8629
13.7234
13.4391
13.9826
13.7511
13.4974
12.5828
9.16262
0.300458
14.0987
14.0218
13.9754
13.5382
12.6153
9.68133
0.286657
14.1682
14.1479
14.0996
13.7855
11.5197
14.3257
14.3491
14.3359
13.7785
13.9573
13.8455
13.7304
13.5111
13.9493
13.6037
13.4206
12.7422
10.5621
3.01929
14.1095
14.0023
13.8504
13.4981
12.5044
9.70109
1.87198
14.0787
13.9732
13.7941
13.4137
11.1297
2.7567
14.131
14.0579
13.9947
13.8124
13.9976
13.8569
13.7438
13.6815
13.9436
13.6526
13.3362
13.0223
11.6046
4.45761
13.9735
13.8333
13.6924
13.3583
12.5926
10.2393
1.6123
13.9725
13.8704
13.6035
13.0775
10.9976
13.9526
13.8188
13.6574
13.8543
14.0686
13.9168
13.7992
13.8208
14.0367
13.868
13.5187
13.3937
13.306
13.9295
13.7335
13.6019
13.3158
12.926
11.8148
-2.75757
13.9054
13.7835
13.4742
12.9715
12.7871
13.8106
13.6597
13.4437
13.8865
14.0748
13.9539
13.8531
13.8734
14.1359
13.9334
13.6169
13.6725
14.2179
13.9475
13.9011
13.5704
13.3048
13.1669
13.1819
13.8686
13.717
13.3649
13.0914
13.5632
13.7489
13.6004
13.4306
13.9125
13.946
13.9019
13.8612
13.8932
14.0199
13.7726
13.5818
13.7158
14.1761
13.9253
13.8876
13.5846
13.3196
13.3014
13.6414
13.8468
13.694
13.3143
13.1799
13.8266
13.753
13.6179
13.5202
13.9266
13.9727
13.8724
13.8407
13.9051
13.9484
13.6784
13.5143
13.725
14.0805
13.9149
13.8632
13.568
13.3306
13.4385
13.8038
13.859
13.7136
13.3329
13.3031
13.9438
13.8084
13.7019
13.6552
13.9332
13.9446
13.9157
13.8035
13.9342
13.8774
13.5978
13.4817
13.7853
14.0767
13.9328
13.8701
13.5769
13.3565
13.5627
13.9019
13.9156
13.7992
13.4801
13.4926
14.0354
13.9153
13.8418
13.8469
13.8726
13.7895
13.7375
13.7626
14.0001
13.8201
13.5859
13.476
13.9168
14.151
13.9817
13.914
13.6401
13.4931
13.726
14.0216
14.0148
13.9251
13.6943
13.7283
14.1478
14.0581
14.0114
14.0683
13.7429
13.7208
13.5916
13.6645
14.1513
13.7761
13.4526
13.5497
14.0912
14.3083
14.074
13.9954
13.686
13.6224
13.9391
14.1893
14.1461
14.0663
13.9575
14.0049
14.2995
14.2056
14.1946
14.2626
13.8048
13.7885
13.568
13.687
14.4314
13.8933
13.5758
13.6105
14.1917
14.583
14.2392
14.1111
13.76
13.6758
14.0424
14.4426
14.3002
14.1668
14.0549
14.2065
14.4734
14.3215
14.2979
14.3714
14.0498
13.9639
13.6898
13.9088
14.6392
14.0236
13.7125
13.8486
14.3517
14.7278
14.4012
14.2445
13.8881
13.8746
14.2075
14.506
14.3967
14.2637
14.1578
14.2617
14.5353
14.3547
14.3342
14.413
111.907
104.585
109.527
111.978
102.124
109.136
103.464
101.807
184.558
138.545
120.126
164.28
118.059
109.387
103.123
108.472
96.6828
97.3619
94.5578
90.0935
90.7137
97.9041
100.585
95.0941
98.6943
100.611
213.024
207.527
221.61
171.844
122.571
199.303
144.778
122.286
97.9582
152.879
125.997
92.1556
95.3069
101.979
95.8227
97.2904
99.9239
98.0339
98.4782
99.0499
99.1411
97.8644
215.203
232.524
233.174
225.909
214.839
238.465
214.588
203.581
179.962
195.498
202.475
112.217
96.8932
163.058
118.693
100.706
101.437
119.472
128.729
107.053
101.615
133.504
233.34
244.012
206.187
229.987
220.17
190.156
196.395
184.781
179.025
190.743
161.552
170.262
173.936
154.891
179.693
171.545
180.307
165.33
200.506
179.937
176.958
169.14
165.932
157.113
160.909
157.32
103.838
105.812
95.7898
101.678
97.3908
96.218
100.965
92.8823
92.9705
90.0124
93.7211
88.3413
90.0061
88.575
90.8723
144.338
121.37
105.262
120.583
103.921
108.321
104.205
106.977
97.5808
88.1122
85.3694
87.7447
88.3255
89.7035
84.5571
88.6456
89.1542
89.2861
167.142
182.506
185.416
135.805
165.077
158.389
94.6939
94.3184
90.4186
92.3835
92.5724
192.828
196.854
170.426
169.392
174.389
95.7861
108.066
93.9501
93.7821
94.1386
194.919
172.769
177.303
189.61
175.185
167.517
162.822
166.525
161.72
135.424
139.777
143.655
99.9901
98.8842
117.149
112.092
94.3606
168.152
161.012
159.605
155.218
160.396
151.52
148.971
143.345
147.275
138.81
133.901
140.23
126.807
90.9671
62.9877
78.6506
84.1377
74.2708
40.7473
56.4938
50.4849
67.6471
69.0261
36.081
43.434
38.5433
72.3917
38.0504
97.5854
72.5999
87.3541
89.1441
82.0874
67.4622
66.6568
68.9599
69.2145
79.4269
77.2776
83.1152
54.1281
59.281
66.4938
70.6573
85.1206
75.5
106.966
136.576
124.496
78.909
96.2651
88.871
89.1551
88.9824
78.4158
78.6916
76.9818
143.135
151.42
103.5
101.439
109.697
85.746
67.1144
57.2238
64.124
32.3487
152.319
114.307
145.897
146.299
146.565
113.968
113.799
117.213
120.393
56.2553
93.4092
78.0667
45.7636
31.4082
67.3564
46.5038
30.0325
147.266
122.066
136.53
137.041
124.739
123.564
127.142
123.713
129.681
123.418
116.907
126.555
91.3525
38.3381
16.4247
18.1568
29.3485
23.7199
16.652
15.3334
15.3584
20.297
17.2671
16.668
15.1826
14.9442
16.2394
14.9987
46.4249
19.2739
45.6659
45.669
57.4824
17.6339
21.7773
17.4531
38.7641
19.5336
49.1952
35.6015
14.0691
14.1741
20.8609
14.9862
45.6454
16.0284
49.1384
54.6034
53.5581
17.571
16.201
16.4371
49.5909
46.2915
21.7095
17.1748
17.2352
59.9358
66.9422
16.8204
17.9956
23.8323
31.0705
21.3621
17.2138
18.2454
19.7137
73.8204
35.1187
79.7236
84.07
88.6146
41.2526
45.5444
49.8861
54.6897
24.3299
44.8109
29.9684
26.8971
21.7631
29.9895
22.5587
22.1309
92.5542
61.4744
99.5311
102.761
67.8545
73.6758
76.7261
93.6194
108.664
73.6009
61.4598
79.1355
42.4556
14.0934
14.1912
16.107
13.898
15.1738
15.361
14.1843
15.2141
16.2786
16.401
16.131
16.0626
16.167
15.6977
15.263
14.263
14.3631
14.1822
13.8435
16.4784
14.1839
13.9254
14.2497
13.8886
14.3332
13.4024
13.8349
14.5255
14.3881
13.9954
14.3418
13.8427
14.3686
13.9413
13.4645
13.4953
14.4988
14.3156
14.3514
14.3714
14.8263
14.3147
14.2531
15.054
13.2901
13.3908
14.1444
14.0991
13.9023
17.0472
19.0092
15.8284
17.0935
17.5808
13.7532
13.6939
14.8115
16.0544
19.8991
13.5965
13.3535
13.486
13.4697
19.508
19.315
17.5557
19.5748
17.3343
14.5545
15.362
18.4344
27.0088
13.8637
47.3198
50.4619
16.5424
26.0504
29.2696
40.1486
51.3811
28.8015
23.9045
30.7604
17.0928
14.0645
14.0018
14.9501
14.1819
14.8944
14.61
14.0631
14.4678
15.3088
15.4375
15.2572
14.6669
14.8713
14.859
14.6084
13.9141
13.8803
13.8277
13.9087
13.906
13.8515
13.7785
13.8672
13.8874
14.2849
14.1881
14.2472
13.9633
14.2791
14.1019
14.2352
14.3266
14.2244
13.8868
13.8455
13.8428
13.9035
13.891
13.8812
14.0518
14.7709
14.2145
13.8219
14.211
13.7302
13.7614
13.782
13.7536
13.699
15.9579
15.1208
13.6224
13.3575
13.231
13.7222
13.6414
13.6351
13.6568
13.607
13.5911
13.5277
13.5578
13.5386
14.4351
13.1669
14.0286
12.7353
12.7803
13.0983
13.4338
13.2632
13.5509
13.5376
13.884
15.0002
13.4677
13.3689
13.3694
14.1486
15.9894
13.2838
13.2128
13.3231
13.1653
13.958
13.8704
14.3107
13.9905
14.1821
14.0962
13.9294
14.0327
14.2943
14.5544
14.3681
14.1477
14.3536
14.4452
14.3264
13.7871
13.6886
13.7285
13.7777
13.8136
13.7453
13.667
13.6874
13.7145
14.3649
14.0371
14.2871
14.0201
14.3916
14.0131
14.3235
14.2674
14.3567
13.7791
13.7476
13.752
13.6762
13.662
13.6617
14.5278
13.734
14.9924
14.5186
14.2949
13.6528
14.1505
14.6558
13.4176
13.7155
13.9659
15.0978
13.3656
13.8266
13.6798
13.6522
13.6131
13.5848
13.5913
14.792
12.5072
11.5295
13.3929
13.5379
12.9011
12.6308
13.6576
12.6898
13.5658
13.0832
13.7675
12.8831
13.7307
13.6167
13.5526
13.5449
13.5606
13.5293
13.5254
13.5191
13.5268
13.517
12.8512
13.0803
13.1982
13.0238
12.9214
13.0589
13.1044
12.899
13.5196
13.4969
13.4174
13.404
13.4415
13.3879
13.3931
13.2743
13.3135
13.3075
13.2618
13.3252
13.186
13.7726
13.6366
13.9454
13.8549
13.9142
13.8288
13.7596
13.7987
14.044
14.1722
13.9901
13.9222
14.001
14.2193
14.0954
13.5979
13.4986
13.5681
13.5958
13.5999
13.5184
13.4499
13.4919
13.4835
14.347
13.9631
14.2951
14.0906
14.1735
13.8559
14.175
14.4164
14.1895
14.0027
13.6595
14.3083
15.0273
13.7003
14.8813
13.5977
13.5842
13.5815
13.5169
13.5153
13.504
14.4096
13.7837
14.1866
13.9209
13.4232
13.5347
13.4288
14.7345
13.2255
13.6788
13.0482
14.3429
12.4221
13.5704
13.5347
13.5323
13.5123
13.4886
13.4803
13.93
13.4337
13.4934
13.4628
13.9005
13.5875
13.8611
13.6722
12.9539
13.65
12.5702
13.5248
12.9639
13.6709
13.5116
13.4593
13.4867
13.4949
13.4897
13.4486
13.4617
13.4634
13.4565
13.0348
13.113
13.1928
13.1348
13.1842
13.201
13.3838
12.9991
13.6925
14.3115
13.5783
13.6564
13.7504
13.47
13.4483
13.4013
13.402
13.398
13.3956
13.3926
13.3166
13.3754
13.3589
13.3342
13.3738
13.272
13.5125
13.4129
13.7073
13.6559
13.6733
13.5702
13.5492
13.5493
13.7931
13.8182
13.6791
13.6625
13.6516
13.9539
13.8419
13.4047
13.319
13.3463
13.3849
13.378
13.2829
13.2577
13.2851
13.2905
13.9218
13.6964
13.9518
13.8746
13.706
13.5081
13.5569
13.3289
13.1868
12.1808
13.0046
13.4848
14.8316
13.5022
14.7573
13.4371
13.4558
13.44
13.3618
13.4106
13.3903
13.0106
13.0958
12.7823
12.6135
12.556
12.7626
12.2308
14.2825
11.9214
13.483
12.8476
14.3746
11.8592
13.6379
13.4583
13.4577
13.4569
13.436
13.4411
13.7323
13.4159
14.0006
13.1868
13.8294
13.3689
14.5311
13.578
13.4934
14.0154
13.2901
14.1155
14.3588
14.6662
13.448
13.4455
13.4536
13.4506
13.4457
13.4445
13.4531
13.449
13.4375
13.3644
13.4615
13.7227
13.277
13.5604
13.6217
13.9376
15.1063
13.6597
15.5568
14.0418
14.6311
14.5336
13.4382
13.4285
13.4078
13.4091
13.4125
13.4154
13.4186
13.3791
13.4023
13.411
13.4129
13.4149
13.454
13.3554
13.3333
13.4648
13.4719
13.4561
13.4143
13.4374
13.4083
13.5707
13.5477
13.5159
13.5227
13.5259
13.7558
13.7185
13.2273
13.1438
13.1775
13.175
13.2195
13.1242
13.1376
13.0696
13.1853
13.5774
13.3349
13.2333
13.6999
13.5647
13.2361
13.1585
12.3279
12.6851
13.2924
13.3702
13.3481
13.2386
13.3332
13.3097
12.7364
12.6406
12.5357
12.3934
12.9058
12.6478
13.4067
14.7945
12.8012
14.1746
14.3087
15.1119
14.6704
14.6359
13.4219
13.431
13.4224
13.4153
13.4263
14.1632
13.3391
15.3653
12.9898
14.6091
13.1678
15.7386
14.8155
15.0723
14.984
15.3513
15.4855
15.7416
15.3659
13.4521
13.4518
13.4581
13.4476
13.4353
13.4518
13.4597
13.449
13.4476
13.5971
13.5985
13.8697
13.4046
13.5744
13.5701
13.6692
13.1169
13.4379
13.458
13.4343
13.4415
13.4531
13.4532
13.4623
13.4477
13.4332
13.4538
13.4743
13.4519
13.5127
13.3405
13.3725
13.4096
13.4338
13.4025
13.4418
13.4534
13.4238
13.509
13.5669
13.532
13.537
13.6291
13.6685
13.6318
13.1055
13.1169
13.1578
13.0201
13.188
13.2037
13.2119
13.0503
13.1944
13.5839
13.2076
13.1533
13.6258
13.5771
13.2224
13.1841
12.8399
13.0552
13.2142
13.3163
13.2909
13.2276
13.3237
13.2981
13.0764
14.8482
12.7444
12.8858
11.5214
13.4178
13.4332
13.4243
13.4281
13.4521
15.2602
13.0343
12.9584
11.3557
13.1647
13.4621
13.473
13.4689
13.4703
13.4688
13.4729
13.4758
13.4825
13.4766
13.5771
13.5619
13.6016
13.4514
13.5806
13.569
13.5857
13.4287
13.4797
13.4964
13.4796
13.489
13.5018
13.4992
13.51
13.5081
13.4842
13.5098
13.5279
13.5165
13.5529
13.4298
13.5056
13.5002
13.4994
13.4673
13.5412
13.559
13.521
13.6174
13.6705
13.6662
13.6795
13.6637
13.63
13.5976
13.2096
13.347
13.291
13.1639
13.2406
13.4271
13.3698
13.317
13.3248
13.5535
13.2547
13.2392
13.6086
13.5349
13.274
13.2861
13.2573
13.4157
13.283
13.3686
13.3467
13.3929
13.45
13.4373
13.0931
12.7057
13.3381
13.326
13.4212
13.4517
13.4806
13.4868
13.4894
13.5149
12.6131
13.3462
13.3377
13.4561
13.4911
13.4916
13.521
13.4877
13.5054
13.5043
13.52
13.508
13.5319
13.5354
13.5743
13.5821
13.5954
13.5044
13.5773
13.5992
13.6124
13.5826
13.5181
13.5422
13.5222
13.531
13.5447
13.5468
13.5547
13.5643
13.5524
13.5713
13.588
13.5738
13.6031
13.625
13.7889
13.7016
13.6585
13.6876
13.8806
13.8075
13.8522
13.6835
13.6693
13.7083
13.6657
13.6269
13.5993
13.6125
13.5128
13.6686
13.5101
13.4864
13.425
13.7357
13.6904
13.659
13.5605
13.5311
13.3033
13.329
13.5642
13.5342
13.3344
13.3674
13.5365
13.6131
13.5217
13.5415
13.5341
13.6378
13.6331
13.6264
13.4172
13.5338
13.5387
13.4219
13.5355
13.5403
13.5574
13.6009
13.594
13.6005
13.6558
13.5766
13.5004
13.6482
13.6346
13.5559
13.5938
13.539
13.5635
13.5616
13.5898
13.5741
13.5934
13.5858
13.5929
13.6219
13.6378
13.5465
13.6156
13.648
13.6632
13.6439
13.5667
13.593
13.5766
13.5835
13.6012
13.6083
13.6113
13.6298
13.6074
13.6313
13.6654
13.6289
13.6744
13.909
13.9258
13.9246
13.9255
13.8848
13.9175
13.9323
13.8707
13.6312
13.6032
13.6468
13.6012
13.6197
13.6068
13.6157
13.8124
13.897
13.8103
13.7811
13.666
13.8803
13.8458
13.8653
13.7389
13.5435
13.3587
13.3894
13.524
13.5497
13.3865
13.3996
13.6517
13.6533
13.7382
13.7123
13.7105
13.7971
13.7638
13.771
13.4206
13.5449
13.5769
13.4172
13.5527
13.6525
13.643
13.7
13.6984
13.6807
13.6279
13.6733
13.4942
13.5994
13.6752
13.6313
13.665
13.612
13.6249
13.6199
13.6597
13.6496
13.6549
13.6551
13.64
13.6694
13.6868
13.5824
13.6566
13.6787
13.7011
13.7029
13.6266
13.6596
13.6416
13.6454
13.6521
13.6665
13.6722
13.7001
13.6617
13.6855
13.7223
13.6801
13.7234
13.9147
13.9021
13.869
13.9061
13.8436
13.8635
13.8947
13.8448
13.638
13.6567
13.7363
13.7213
13.7022
13.6412
13.668
13.9056
13.8909
13.8629
13.891
13.7833
13.9048
13.8683
13.895
13.8027
13.5553
13.4256
13.4016
13.5454
13.5707
13.4767
13.4064
13.6381
13.619
13.8268
13.796
13.804
13.8369
13.8233
13.8264
13.4134
13.5496
13.5562
13.4042
13.5318
13.7364
13.7167
13.7718
13.7673
13.746
13.5759
13.6544
13.4534
13.5488
13.6168
13.6987
13.7249
13.6816
13.6893
13.6852
13.7154
13.7068
13.714
13.7085
13.6662
13.6788
13.7039
13.5956
13.6646
13.6658
13.6922
13.7208
13.6864
13.7041
13.686
13.6902
13.69
13.692
13.6935
13.7396
13.6956
13.7068
13.7426
13.7027
13.7287
13.8941
13.877
13.8899
13.8934
13.8625
13.9151
13.8851
13.88
13.8225
13.752
13.9698
13.9633
13.7875
13.7007
13.7339
13.8764
13.8655
13.8713
13.8927
13.8141
13.881
13.8705
13.8825
13.8242
13.5961
13.5186
13.4126
13.6316
13.6243
13.5575
13.4302
13.6067
13.5996
13.8381
13.8426
13.8453
13.8428
13.8412
13.8521
13.4006
13.5092
13.5378
13.406
13.4972
13.7846
13.7594
13.797
13.7948
13.7826
13.5122
13.5702
13.4004
13.4721
13.5106
13.7405
13.7539
13.7245
13.7356
13.7236
13.7494
13.7375
13.7477
13.7307
13.6444
13.6389
13.6639
13.5581
13.6095
13.6026
13.6251
13.671
13.7161
13.7205
13.6989
13.7007
13.7001
13.6973
13.6993
13.7328
13.7023
13.6863
13.7122
13.6891
13.6773
13.863
13.8565
13.9061
13.8567
13.8652
13.887
13.8336
13.8554
14.0547
13.8283
13.9983
14.0203
13.8638
13.7598
13.8051
13.8639
13.8632
13.8659
13.875
13.8314
13.8661
13.8589
13.8678
13.8379
13.6624
13.5997
13.472
13.7207
13.7073
13.6367
13.5384
13.6095
13.6384
13.8392
13.8452
13.8505
13.8332
13.8445
13.852
13.4189
13.4991
13.5701
13.4517
13.5322
13.8046
13.7866
13.8013
13.8013
13.7985
13.4399
13.4405
13.403
13.4399
13.3823
13.7652
13.7794
13.7436
13.7564
13.7331
13.7719
13.7512
13.7621
13.733
13.5671
13.5643
13.5867
13.4913
13.5214
13.5348
13.5575
13.5691
13.7202
13.7184
13.6906
13.6954
13.6936
13.6818
13.6856
13.6827
13.668
13.6248
13.6477
13.6372
13.5914
13.8607
13.8738
13.877
13.8335
13.8579
13.8731
13.8569
13.8625
13.9503
13.8968
13.9189
13.9102
13.9598
13.8342
13.8655
13.8616
13.8706
13.8625
13.8623
13.8465
13.8705
13.8767
13.8652
13.8577
13.7606
13.6615
13.5941
13.8165
13.8254
13.6932
13.6534
13.6665
13.7105
13.8334
13.8427
13.8493
13.8463
13.8491
13.8499
13.4989
13.5857
13.6483
13.5933
13.6418
13.8061
13.8062
13.8225
13.8135
13.8086
13.4812
13.3669
13.4851
13.5475
13.3984
13.7854
13.7997
13.757
13.7661
13.7336
13.793
13.7647
13.7702
13.7339
13.4805
13.5083
13.54
13.4378
13.4422
13.4875
13.5306
13.4566
13.7203
13.7251
13.6742
13.6778
13.6953
13.6679
13.6681
13.6135
13.6084
13.574
13.5825
13.5865
13.5179
13.8899
13.9059
13.876
13.8769
13.8751
13.8873
13.8904
13.8905
13.9202
14.0195
13.9333
13.9418
14.0398
13.92
13.9586
13.879
13.8785
13.8927
13.871
13.8687
13.8969
13.9052
13.8762
13.8775
13.9008
13.7372
13.747
13.9577
13.9741
13.8132
13.8645
13.7808
13.8326
13.8594
13.8558
13.8568
13.8649
13.8656
13.8684
13.7295
13.8275
13.7506
13.8051
13.9363
13.8208
13.8217
13.845
13.8341
13.8402
13.6097
13.4582
13.7216
13.8283
13.5484
13.8147
13.8364
13.7781
13.7795
13.744
13.8224
13.7917
13.7921
13.7582
13.4333
13.4867
13.5315
13.4527
13.4391
13.4996
13.5476
13.4774
13.7361
13.7545
13.6677
13.6699
13.7268
13.6782
13.6801
13.566
13.5897
13.579
13.571
13.6023
13.5093
13.9177
13.9244
13.8983
13.8995
13.9024
13.9081
13.904
13.9094
13.9486
14.0379
13.9407
13.9439
14.0465
14.041
14.1439
13.8864
13.9002
13.9121
13.883
13.8897
13.914
13.915
13.8939
13.9023
14.014
13.8903
13.964
14.0806
14.0305
13.9485
14.0163
13.9167
13.9853
13.8803
13.879
13.8795
13.897
13.8925
13.8891
13.8017
13.8899
13.9307
13.8344
13.8699
13.8522
13.8626
13.8891
13.8743
13.8885
13.935
13.6447
13.8274
13.8942
13.8075
13.8582
13.8873
13.8141
13.8159
13.7848
13.8687
13.8394
13.8465
13.8159
13.4346
13.5323
13.5685
13.5452
13.4632
13.5855
13.5829
13.5967
13.7813
13.8171
13.6969
13.7074
13.7911
13.727
13.7454
13.6053
13.6492
13.6716
13.6676
13.7108
13.6141
13.9274
13.931
13.9129
13.9048
13.9129
13.916
13.9066
13.9153
13.934
14.0226
13.9277
13.9255
13.9761
14.1503
14.0421
13.9144
13.9322
13.9152
13.9085
13.9133
13.9308
13.9152
13.9231
13.9215
14.0234
13.9673
14.0071
14.0169
13.9957
13.9553
13.983
13.9972
13.971
13.9107
13.9061
13.9006
13.9263
13.9242
13.9186
13.8981
13.8964
13.9378
13.9227
13.9274
13.9003
13.9149
13.9358
13.9263
13.9407
13.9476
13.9681
14.0145
13.9778
14.042
13.914
13.9443
13.8733
13.8827
13.8547
13.9296
13.9059
13.9196
13.8924
13.6357
13.6706
13.6977
13.7794
13.8479
13.8194
13.8649
13.907
13.8605
13.9085
13.7691
13.7987
13.8873
13.8187
13.8522
13.7487
13.7923
13.8166
13.8273
13.866
13.8253
13.9347
13.9372
13.9189
13.9109
13.916