/*--------------------------------*- C++ -*----------------------------------*\
| =========                 |                                                 |
| \\      /  F ield         | OpenFOAM: The Open Source CFD Toolbox           |
|  \\    /   O peration     | Version:  5.x                                   |
|   \\  /    A nd           | Web:      www.OpenFOAM.org                      |
|    \\/     M anipulation  |                                                 |
\*---------------------------------------------------------------------------*/
FoamFile
{
    version     2.0;
    format      ascii;
    class       surfaceScalarField;
    location    "6";
    object      phi;
}
// * * * * * * * * * * * * * * * * * * * * * * * * * * * * * * * * * * * * * //

dimensions      [0 3 -1 0 0 0 0];

internalField   nonuniform List<scalar> 
29271
(
-1.02219e-05
-4.99856e-06
9.72432e-06
5.51357e-06
-9.41505e-06
9.66476e-06
-3.3315e-06
3.15842e-06
-2.42929e-05
-9.11992e-06
-1.36538e-05
1.39674e-05
9.15986e-06
2.39393e-05
-2.50223e-05
-1.40507e-05
-7.4238e-06
-3.79333e-08
1.25966e-05
3.39381e-05
-2.39808e-05
-7.31354e-06
-3.12916e-06
8.73891e-06
1.99543e-05
5.73031e-06
-2.32987e-05
1.70828e-06
-8.89666e-06
2.25062e-05
-3.01192e-06
1.09928e-05
-2.4795e-05
-2.78012e-06
-1.74561e-05
1.58004e-05
-2.00123e-06
3.12321e-05
-2.72073e-05
-7.7221e-06
-9.64501e-06
-1.46351e-06
-4.70728e-06
5.07452e-05
-2.6296e-05
-5.21786e-08
7.4732e-06
-8.03651e-06
-6.90899e-06
3.38205e-05
-2.10739e-05
4.68471e-06
-8.92415e-06
1.82814e-05
7.04575e-06
-8.3574e-06
1.90809e-06
4.79076e-07
6.10214e-06
-2.11973e-05
-5.46328e-06
4.38151e-06
8.82721e-06
-2.33141e-06
1.57833e-05
-1.96295e-05
5.64293e-06
-4.72481e-06
5.55211e-06
-7.56412e-06
2.07234e-05
-2.97032e-05
1.25898e-05
-9.98514e-06
1.06775e-05
-1.5698e-05
3.2119e-05
-3.56321e-05
7.91881e-06
2.80749e-06
-1.07808e-05
-1.46412e-05
5.03277e-05
-2.11947e-05
8.92984e-06
4.99098e-06
-1.20408e-05
1.46318e-05
4.68288e-06
-1.6347e-05
-1.97493e-06
7.80581e-06
7.80337e-08
8.81104e-06
1.627e-06
-2.79797e-05
-1.08433e-05
1.10764e-05
3.54727e-06
-3.71676e-06
2.7916e-05
-1.67046e-05
1.061e-05
-5.48908e-06
5.38046e-06
-4.56445e-06
1.07676e-05
-1.8647e-05
-2.44924e-06
-5.86545e-06
1.37329e-05
1.19144e-05
1.31443e-06
-4.67494e-06
3.6778e-06
-8.94986e-07
1.9848e-06
-2.21849e-05
-5.64414e-06
1.10169e-05
1.67745e-05
5.44041e-08
-2.54606e-05
-1.10591e-05
1.30712e-05
-5.77237e-06
3.02495e-05
-1.02872e-06
-1.04667e-05
3.03749e-06
-5.50615e-06
1.30648e-05
-2.20337e-06
-2.10748e-07
7.98517e-07
1.60026e-06
-1.6494e-06
7.69874e-07
-3.12636e-07
1.22226e-06
-1.12333e-06
-2.25443e-06
-1.56138e-05
7.3072e-06
5.4139e-06
6.27043e-06
-3.57592e-06
-4.53341e-05
-7.08429e-06
-3.46912e-06
3.66567e-06
5.57977e-05
-1.29634e-05
2.03665e-07
-1.46652e-06
-1.59107e-07
1.00511e-05
4.33424e-06
1.83247e-07
-2.45872e-06
-4.38953e-06
5.68897e-06
-9.17128e-07
1.89316e-06
2.20493e-05
-3.23407e-05
0.000262837
-4.76176e-05
-5.42758e-05
-4.00416e-05
-5.48051e-05
-2.76502e-06
-2.65456e-06
3.72301e-06
6.31542e-06
-1.94691e-05
-2.05807e-05
-1.00114e-05
-1.03634e-05
-2.47044e-05
-5.53693e-06
0.000272845
-7.02285e-05
-6.37703e-05
-5.12505e-05
-4.99711e-05
-2.0739e-06
-1.90229e-06
1.03325e-05
8.30998e-06
-2.13243e-06
1.01204e-05
6.94828e-05
-9.19435e-07
-5.6046e-08
4.02447e-06
3.0751e-08
-2.37865e-06
-6.33741e-07
-5.98821e-07
-3.18575e-05
-2.30974e-05
-2.50351e-05
-2.16537e-05
-1.32756e-05
1.57939e-06
-1.99432e-06
1.15933e-05
-3.49932e-06
6.42777e-07
7.1593e-07
2.20184e-06
-2.80752e-06
-1.008e-05
2.36364e-06
8.13996e-06
-2.18519e-06
4.56914e-06
4.20395e-05
-4.43242e-05
0.000116645
-2.70595e-05
-2.02531e-05
-4.02747e-05
-1.88485e-05
-1.48797e-05
-1.04795e-05
-8.37741e-06
-6.52847e-06
5.03253e-06
-4.0588e-05
0.000248416
-3.38689e-05
-7.25362e-05
-1.34904e-05
-5.64627e-05
-1.91025e-06
-2.57098e-06
0.000123802
-5.74495e-07
-6.14524e-07
3.03636e-07
-2.58095e-07
-3.07531e-06
2.09548e-07
-5.74339e-05
-1.72435e-05
-2.00878e-05
-5.39389e-06
-7.86615e-06
-1.52794e-06
-2.46501e-06
2.35998e-06
7.58887e-06
-6.17269e-06
-8.94202e-07
8.98997e-07
1.37775e-07
5.49076e-06
5.39358e-07
1.14572e-05
-2.19073e-06
2.27861e-05
-2.93921e-06
-2.057e-06
-1.40183e-06
-1.1534e-06
-2.60345e-06
-1.23215e-06
-1.26526e-06
-2.22031e-05
-8.54625e-06
-1.86462e-05
-1.43291e-05
3.78306e-06
-1.75822e-05
5.26266e-05
4.93636e-06
1.44194e-05
5.7896e-06
-1.79356e-05
-7.77101e-06
-7.65572e-06
-8.71968e-06
-1.58474e-05
-1.88876e-05
-1.62866e-05
-1.53356e-05
1.56022e-06
-1.08647e-05
2.58522e-05
-2.18096e-06
-3.28838e-07
1.70032e-08
2.52381e-06
-1.10336e-05
-7.07417e-07
2.86999e-06
6.79089e-06
-3.38008e-05
-6.54466e-06
1.57602e-05
-1.19856e-05
1.89886e-05
-9.473e-06
1.15492e-05
-7.41245e-06
5.49349e-06
-2.81054e-06
-1.69512e-07
-3.10764e-06
5.86445e-06
-1.235e-06
6.89275e-07
-9.06304e-07
1.47496e-06
2.43763e-06
-4.62927e-07
-4.22506e-06
2.25495e-06
-6.71889e-06
6.71429e-06
2.0917e-05
-6.12763e-05
-4.57984e-06
7.71274e-06
-2.45229e-05
6.17493e-05
-1.35008e-05
2.78422e-06
7.00704e-07
-5.58334e-06
2.10078e-05
-5.40856e-06
1.19369e-06
-2.17924e-08
-2.47851e-06
-2.60563e-06
-7.40318e-07
4.65256e-06
3.96659e-05
-2.67735e-06
0.000173677
9.32819e-06
1.52071e-05
6.67094e-06
2.05624e-05
9.84678e-08
-1.13714e-06
9.58835e-07
4.82734e-07
3.45357e-05
2.59378e-05
0.000220435
1.02709e-05
7.88042e-06
8.75843e-06
4.69235e-06
-1.46192e-07
1.11486e-05
8.42764e-05
8.54225e-07
5.23454e-07
2.48902e-06
2.21811e-06
3.68657e-07
8.77119e-07
1.40914e-06
-1.01161e-05
6.48639e-07
6.53831e-07
8.64846e-06
-1.55792e-06
2.66401e-07
-2.02034e-08
1.35255e-06
-1.74225e-07
-3.9408e-06
4.52816e-07
-2.22753e-07
-6.08475e-07
4.49344e-06
5.32216e-05
-1.76471e-06
6.3388e-05
-8.04074e-07
-6.78102e-07
3.49869e-07
2.54948e-07
7.62608e-05
-3.60156e-06
0.000254916
4.35144e-06
-6.84088e-06
0.000186695
6.57663e-06
9.74089e-06
1.79175e-05
-3.202e-06
-2.88556e-06
-1.14085e-06
-8.89045e-06
-1.77088e-06
-2.20527e-06
1.22933e-06
1.59887e-05
-5.02165e-06
8.33145e-08
1.34559e-07
-3.18321e-07
4.51203e-06
6.10069e-07
6.12452e-06
-7.33896e-07
1.87985e-05
-5.50375e-07
-4.7405e-07
-1.03536e-07
-2.12608e-07
-8.39927e-07
-4.53816e-07
-5.33387e-07
1.33692e-05
-3.5324e-06
3.06254e-05
4.18632e-06
1.49888e-05
2.80042e-06
-3.09316e-06
-2.12279e-06
-2.07229e-06
-3.98742e-05
1.99714e-05
-9.83569e-06
3.62669e-05
-4.10548e-06
2.34742e-06
-8.77066e-06
1.04563e-05
-5.14403e-06
2.1929e-08
-4.74774e-08
4.43609e-06
-1.1397e-05
-3.77032e-07
2.33736e-06
-1.75269e-06
7.65699e-06
-2.92235e-06
3.91303e-06
-2.62789e-06
1.64171e-06
-1.02654e-05
8.81356e-07
-2.20381e-06
1.15879e-05
-1.7989e-06
1.96827e-06
-1.32872e-06
1.17708e-06
5.13209e-06
-1.20504e-06
-1.22527e-05
1.05719e-06
-8.65257e-06
1.5921e-05
1.68496e-05
-5.7887e-05
-4.2379e-06
4.14671e-06
-1.73005e-05
5.84291e-05
-3.13639e-05
-2.50793e-06
1.54399e-06
-3.56481e-06
3.79594e-05
-2.06671e-06
1.42534e-06
2.17121e-06
-7.89072e-06
-4.58989e-06
-1.025e-06
9.90905e-06
9.835e-06
3.52518e-06
0.000105053
3.99322e-06
5.51494e-06
1.04789e-05
1.4875e-05
1.41446e-06
1.53893e-06
6.03063e-06
1.14177e-05
2.69975e-05
-5.57559e-07
0.000160907
6.10166e-06
7.22212e-06
1.49422e-05
1.46574e-05
2.899e-06
-9.68398e-06
0.00010343
2.69022e-06
2.55844e-06
1.6084e-06
4.33122e-07
3.38666e-06
1.25039e-06
2.7012e-06
-8.01302e-06
1.40215e-06
-1.11683e-06
1.05308e-05
-1.40198e-06
1.06678e-07
-1.3881e-07
1.44509e-06
5.73657e-07
-5.7121e-06
6.70955e-07
-1.13628e-06
-7.43022e-07
6.34679e-06
8.77651e-06
1.45807e-06
4.33192e-05
9.85613e-07
7.84393e-07
5.30996e-06
6.27945e-06
7.73785e-05
8.67163e-06
0.000177085
1.81005e-05
-3.11651e-06
0.000182489
1.78209e-05
1.95724e-05
1.64786e-05
-1.20849e-06
1.39436e-06
2.85872e-06
-3.30758e-05
5.95096e-06
9.73136e-06
-1.71834e-05
5.26774e-05
-4.03632e-06
3.19277e-08
-2.45159e-08
-1.97539e-07
3.84294e-06
3.83514e-07
3.40194e-07
-7.33562e-07
1.94152e-05
1.96549e-07
2.03815e-07
2.19435e-06
3.18386e-07
-7.04369e-07
-3.81595e-07
-5.9238e-07
7.77837e-06
-6.89319e-07
2.53338e-05
1.6808e-06
4.72564e-06
2.05929e-06
-6.2586e-07
-3.82751e-07
-2.42692e-07
-3.27518e-05
1.6596e-05
-5.98208e-07
2.14158e-05
-1.93337e-05
8.33262e-06
-1.41494e-05
2.51313e-05
-3.93239e-06
4.9643e-07
-4.65575e-07
3.15921e-06
-5.14952e-06
-2.05305e-07
1.20031e-06
-4.82546e-07
3.94774e-06
-1.22984e-06
1.2415e-06
-1.18875e-06
1.07261e-06
-1.24383e-05
2.93832e-06
-6.04423e-06
1.55442e-05
1.8454e-06
2.8687e-06
-2.47704e-06
-2.23549e-06
3.30911e-06
-1.0815e-06
-2.10312e-05
1.38894e-06
-8.36821e-06
2.57829e-05
1.32293e-05
-5.98581e-05
-2.57723e-06
2.20956e-06
-1.23925e-05
5.9389e-05
-4.27833e-05
-5.55163e-06
4.38408e-06
3.15758e-06
4.54919e-05
-4.69864e-06
1.65133e-06
-2.20601e-06
-1.2604e-05
2.13382e-06
-6.17562e-07
1.16424e-05
7.68922e-06
-4.31866e-06
9.79116e-05
6.22608e-06
1.03529e-05
5.72643e-07
3.62751e-06
-8.91455e-07
2.93583e-06
-1.05045e-05
-8.54798e-06
3.57802e-07
-1.27408e-05
0.000155727
8.95021e-06
8.78499e-06
4.39799e-06
3.11855e-06
-3.81397e-06
-2.89519e-06
0.000126254
-3.00637e-06
-3.77347e-06
-3.93496e-06
-4.51352e-06
4.63691e-07
-3.58874e-06
2.59712e-06
-1.77502e-05
1.76109e-06
-1.00909e-05
2.2266e-05
-5.72004e-07
-5.68597e-07
7.33334e-07
4.04946e-07
-1.42981e-06
-9.76713e-06
-1.80054e-06
-3.80397e-07
2.02314e-06
1.13547e-05
-1.01104e-05
-5.80813e-06
5.37764e-05
3.0813e-06
3.62399e-06
-2.44508e-06
-3.11747e-06
3.41865e-05
5.48313e-06
0.000114564
1.65211e-05
4.96346e-07
0.000143277
1.38701e-05
1.58044e-05
1.57305e-05
2.93716e-06
1.51071e-06
3.63314e-06
-6.25158e-05
1.12304e-05
1.16571e-05
-1.26131e-05
6.87625e-05
-7.53151e-06
-2.46563e-06
2.20514e-06
2.87875e-06
7.34173e-06
-2.42847e-06
9.017e-07
-4.99336e-07
2.94402e-05
-2.04736e-06
-2.3643e-06
-4.42063e-06
-3.56955e-06
-1.61441e-07
-2.62739e-06
-1.04482e-06
1.52535e-06
5.40474e-07
2.38315e-05
1.07687e-06
2.56477e-06
1.01587e-06
5.24907e-07
2.6748e-07
3.71405e-07
-1.4449e-05
4.98855e-06
2.23747e-06
9.24469e-06
-2.96821e-05
3.1449e-06
-6.15755e-06
3.25596e-05
-3.00307e-06
-3.52368e-07
-7.19114e-07
3.5723e-06
-3.07252e-06
-2.43677e-08
5.45072e-07
-1.83146e-07
3.27544e-06
-1.51895e-06
-1.09818e-07
-1.01024e-06
2.52593e-06
-1.84762e-05
3.04784e-06
-4.28047e-06
1.97089e-05
1.83097e-06
1.23935e-06
-2.77079e-06
-2.98621e-07
1.89422e-06
3.50387e-07
-2.70797e-05
1.35605e-07
-4.05044e-06
2.87499e-05
8.31362e-06
-5.68647e-05
-1.3162e-06
2.498e-06
-7.3944e-06
5.47636e-05
-4.72984e-05
-5.39087e-06
3.86009e-06
5.49862e-06
4.72696e-05
-3.93905e-06
2.56712e-06
-1.91588e-06
-6.36586e-06
5.99524e-06
-2.04944e-06
1.76881e-06
4.35904e-06
3.07347e-06
9.8245e-05
1.28896e-06
1.8836e-06
2.63287e-06
2.54031e-06
-6.99869e-06
-6.0238e-06
-2.25256e-06
-8.36676e-07
8.38618e-07
3.56994e-06
0.000146732
2.07394e-06
1.197e-06
3.17994e-06
2.49509e-06
-4.53417e-06
1.48732e-05
0.000140452
-6.92929e-06
-5.24004e-06
-6.3122e-06
-2.70232e-06
1.45858e-06
-5.44813e-06
1.47472e-06
-2.30975e-05
7.90515e-06
-1.84738e-07
-1.76625e-05
2.85054e-05
2.85754e-10
-3.57931e-08
1.40491e-07
-1.00868e-07
6.81178e-07
6.68914e-07
6.39416e-07
-1.98628e-06
-2.01266e-06
-8.8447e-06
-2.18913e-07
4.55582e-06
2.58881e-06
3.93164e-06
2.38836e-05
1.77366e-06
5.04276e-05
-5.74998e-06
-6.06189e-06
-3.39118e-06
-4.03192e-06
2.514e-05
-1.48468e-05
0.000131725
1.32846e-05
-1.26846e-06
0.000134493
1.49176e-05
9.65253e-06
1.08377e-05
3.77626e-06
-3.51323e-06
1.10991e-06
-7.28378e-05
9.1029e-06
1.49998e-05
4.18844e-06
5.78312e-05
-3.72357e-08
-2.16594e-06
-1.77997e-08
1.44294e-07
2.07341e-06
-5.99326e-06
-2.79522e-06
4.26539e-06
2.767e-06
4.69967e-06
-2.94359e-06
1.01535e-05
-1.05896e-06
3.27997e-05
-4.79841e-06
-3.09538e-06
-3.23264e-06
-1.38835e-06
2.08288e-07
6.19357e-07
1.00684e-06
2.53377e-06
-2.93706e-06
2.76009e-05
7.16777e-07
-1.18875e-06
-1.36928e-06
-2.28743e-06
-2.41743e-06
-1.51333e-06
-7.60805e-06
5.34421e-06
-2.49491e-06
6.02406e-06
-4.08308e-05
4.23293e-06
-6.49396e-06
4.30919e-05
-2.34082e-06
-1.87646e-06
1.34506e-06
1.81352e-06
-2.90021e-06
-1.40733e-06
1.88822e-06
-9.89232e-07
4.71486e-07
-2.44988e-06
3.5889e-06
-1.90347e-06
7.64646e-07
-1.99319e-05
2.02025e-06
-1.74328e-06
1.96549e-05
-1.54892e-06
8.19593e-07
-3.27023e-06
4.00048e-06
1.89087e-06
-8.36973e-08
-3.08557e-05
8.60311e-07
-4.2788e-06
3.2467e-05
5.73983e-06
-5.38165e-05
-4.02177e-07
5.01855e-07
-5.04067e-06
5.30176e-05
-4.6722e-05
-4.72842e-06
2.0227e-06
5.57734e-06
4.55146e-05
-1.66424e-06
4.12187e-06
-2.1067e-06
2.39437e-08
2.52463e-06
-3.21302e-06
-1.35072e-06
1.24297e-06
2.31159e-06
9.12395e-05
2.51344e-06
1.38826e-06
2.37951e-06
1.96638e-06
-2.10283e-06
-5.80622e-07
-2.22157e-06
1.08377e-07
-5.62868e-06
6.35984e-06
0.000142474
1.04899e-06
8.06774e-07
2.12741e-06
7.86734e-07
-9.57777e-06
1.84008e-05
0.000151014
-8.14075e-06
7.04425e-07
-6.12284e-06
4.19961e-07
-1.07674e-06
-1.02723e-05
-5.25153e-07
-2.82467e-05
1.33148e-05
-1.35525e-05
-4.56092e-06
2.34675e-05
7.73155e-06
-1.18456e-05
2.00595e-05
-1.96754e-05
1.19951e-05
-8.26515e-06
2.67281e-06
1.32345e-06
-1.0226e-06
-2.97367e-06
4.65298e-07
-1.4768e-07
1.38882e-06
3.80307e-07
-2.71496e-07
-1.81525e-06
1.45264e-05
-8.52416e-07
4.84644e-05
-2.42651e-06
-3.62607e-06
-1.39245e-06
-1.95422e-06
2.36812e-05
1.36592e-06
0.000127564
1.06105e-05
-1.61665e-06
0.000127795
1.14579e-05
1.0739e-05
1.19061e-05
3.16682e-06
-5.76713e-07
3.09251e-06
-5.56257e-05
3.42462e-06
7.19387e-06
7.49659e-07
5.48681e-05
-7.49986e-06
-6.36249e-06
-1.15146e-06
-6.96954e-06
4.76638e-06
1.7217e-05
-3.32869e-06
-8.50726e-07
1.99682e-06
2.78385e-07
2.11644e-06
-2.12231e-07
3.70396e-06
-8.95486e-08
3.25804e-05
-1.76932e-06
-7.12722e-07
-6.74196e-07
-4.18845e-07
-4.57651e-08
-2.79783e-07
-3.46912e-07
-1.99617e-06
3.92359e-07
3.96718e-05
-2.44253e-06
-1.15109e-06
-2.6246e-06
9.03816e-07
-6.4938e-08
-1.78636e-08
-3.66056e-06
1.30209e-06
-3.98733e-06
2.73298e-06
-3.83734e-05
-1.09531e-05
-6.37855e-06
1.07076e-05
4.49975e-05
-9.08318e-06
-3.45893e-06
8.50887e-07
1.16912e-05
-1.64853e-06
-4.79222e-07
7.03186e-07
1.33544e-06
7.7493e-07
-1.37184e-07
-2.11925e-07
7.23476e-07
-7.56939e-07
1.4707e-06
1.46896e-06
-5.92494e-07
-2.34717e-06
-1.88891e-05
1.14282e-06
-1.36885e-07
1.78832e-05
-7.28366e-06
-1.46558e-06
-2.23762e-06
1.09872e-05
1.54144e-06
1.23343e-06
-3.39679e-05
-4.90328e-07
-3.71787e-06
3.54013e-05
2.97494e-06
-5.30278e-05
7.53856e-07
-1.23202e-06
-2.92747e-06
5.34585e-05
-4.36629e-05
-3.34264e-06
-1.89736e-06
5.07739e-06
4.2982e-05
8.43537e-07
4.7768e-06
-1.95277e-06
2.08343e-06
2.32891e-06
-4.96047e-06
-2.2759e-06
-3.76726e-06
-1.93244e-06
9.04999e-05
2.43423e-06
1.50011e-06
2.29158e-06
2.05482e-06
-1.7757e-06
4.64347e-07
-1.53209e-06
1.00202e-06
-9.04358e-06
7.69684e-06
0.000143097
4.03735e-07
-2.1602e-06
1.00379e-06
-2.29155e-06
-9.51601e-06
1.19201e-05
0.00015631
-5.69787e-06
1.10304e-07
-4.53264e-06
2.99047e-07
5.14659e-08
-8.70045e-06
1.72604e-06
-2.60379e-05
-5.87966e-07
-9.92498e-06
-9.6586e-07
2.80007e-05
1.33583e-05
8.99293e-06
1.10845e-05
-8.25791e-06
-5.45638e-06
-1.97214e-05
3.04387e-06
1.93477e-06
-1.97431e-06
-3.00567e-06
1.41746e-06
3.29794e-06
3.26257e-06
-1.08033e-06
-2.30742e-06
-4.59021e-06
8.04286e-06
-4.08291e-06
4.44346e-05
-5.19232e-07
-6.59748e-07
-2.04701e-07
-4.78906e-07
1.49506e-05
6.99422e-06
0.000121359
1.06266e-05
-7.91486e-07
0.000119273
1.12765e-05
1.07209e-05
8.90736e-06
-1.27057e-06
-2.08985e-07
-3.86742e-06
-5.40307e-05
2.07487e-06
9.5836e-06
3.73878e-07
5.2625e-05
-2.1546e-05
4.33871e-06
-7.90665e-06
4.57472e-06
-6.01891e-06
2.65581e-05
-1.09466e-06
1.44494e-06
-9.56341e-07
-2.03447e-06
6.46785e-07
1.99374e-06
1.50162e-07
7.32456e-08
2.62599e-05
3.55999e-07
5.19749e-07
7.27255e-07
6.36656e-07
-1.53694e-07
7.1873e-08
-1.43672e-07
-8.43557e-07
6.00039e-07
4.95785e-05
-2.76971e-06
-2.24531e-07
-1.477e-06
6.896e-07
5.08474e-07
7.54342e-07
-3.386e-06
-1.14492e-06
-2.22229e-06
5.11817e-06
-4.7846e-05
-1.241e-06
-1.32284e-06
4.76551e-06
4.56443e-05
-1.49959e-05
3.15242e-06
-9.61835e-06
7.44331e-06
1.40186e-05
-1.07362e-06
1.98856e-07
-3.45894e-07
1.29411e-06
1.433e-06
8.26279e-07
-4.94721e-07
6.35318e-07
-1.79984e-06
2.41597e-06
1.81445e-07
-5.31146e-07
-2.06632e-06
-1.7141e-05
4.38853e-07
4.74686e-08
1.66547e-05
-1.42209e-05
-3.03799e-06
1.9341e-07
1.7065e-05
1.45231e-06
1.81884e-06
-3.66153e-05
-1.24578e-06
-3.17235e-06
3.77623e-05
1.61973e-06
-5.38545e-05
2.01415e-06
-2.34819e-06
-9.08894e-07
5.34777e-05
-4.33628e-05
-2.82118e-06
-5.88416e-06
4.68858e-06
4.38745e-05
3.50508e-06
4.02615e-06
-1.28182e-06
1.49506e-06
1.11816e-06
-5.23873e-06
-1.18821e-07
-9.13725e-06
-1.7998e-06
9.57629e-05
1.84036e-06
3.97982e-08
1.0995e-06
-7.31049e-07
-4.23952e-07
1.736e-06
1.3441e-07
1.97901e-06
-1.05806e-05
1.47004e-05
0.000142933
-2.08256e-06
-4.52602e-06
-2.40654e-06
-4.07766e-06
-4.39734e-06
4.21284e-06
0.00015595
-4.14228e-06
1.04554e-06
-3.26227e-06
5.27215e-07
3.49582e-06
-7.82868e-06
1.28454e-07
-3.29242e-05
1.07894e-05
-9.3355e-06
-5.64138e-06
3.27143e-05
2.84994e-05
6.96757e-06
1.60709e-06
-2.20785e-05
-1.49955e-05
2.98299e-06
1.86159e-06
-1.71599e-06
-3.1282e-06
3.13434e-07
5.76729e-06
3.96976e-06
-6.9622e-07
-3.03916e-06
-6.31511e-06
1.84624e-06
-2.58976e-06
4.22536e-05
6.90311e-07
1.84371e-07
5.8963e-07
-3.39549e-07
9.63395e-06
9.26943e-06
0.000119002
9.6113e-06
-4.50757e-07
0.000121956
6.85048e-06
5.76622e-06
-1.04121e-06
-4.63505e-06
3.56225e-07
-5.29338e-06
-5.09153e-05
3.48048e-06
9.21669e-06
-7.5329e-07
4.85828e-05
-2.82958e-05
2.42535e-05
-1.22797e-05
1.31204e-05
-1.58096e-05
1.90112e-05
8.59464e-08
2.53641e-06
-2.38308e-06
-2.00623e-06
-7.52667e-07
2.51961e-06
4.32958e-07
9.58102e-07
1.44786e-05
1.44129e-06
1.18577e-06
1.42541e-06
1.18429e-06
7.53866e-07
9.86577e-07
8.23212e-07
1.0774e-06
8.70667e-07
5.15073e-05
4.62139e-07
2.2463e-06
1.22855e-06
8.67878e-07
4.76611e-07
5.44003e-07
-8.49899e-06
-1.65759e-06
1.0333e-07
1.06799e-05
-3.69491e-05
-4.76664e-06
8.82896e-07
4.08328e-05
-1.35832e-06
8.21268e-07
-3.15086e-07
1.81029e-06
2.09472e-06
1.68206e-07
1.28822e-07
5.21974e-07
-2.04305e-06
1.73979e-06
3.10186e-07
-6.81398e-07
-1.36846e-06
-1.62656e-05
1.73708e-07
2.65178e-07
1.58267e-05
-1.92232e-05
-5.32374e-06
3.85722e-06
2.06891e-05
5.15953e-07
3.6697e-06
-3.84946e-05
-3.6219e-06
-1.34755e-06
3.92784e-05
-9.33866e-07
-5.25343e-05
4.42132e-06
-4.50661e-06
2.97508e-06
5.05784e-05
-4.46615e-05
-2.33666e-06
-7.16767e-06
2.54524e-06
4.59589e-05
5.66167e-06
-7.12281e-08
1.00764e-07
-2.25436e-06
-8.25318e-07
-2.70717e-06
5.75731e-06
-1.20479e-05
6.36972e-06
0.00010141
-4.57036e-07
-3.44903e-06
-1.43873e-06
-3.66204e-06
1.48776e-06
2.58387e-06
2.03066e-06
2.93593e-06
-7.8591e-06
2.08135e-05
0.000140106
-5.20776e-06
-6.21283e-06
-5.32766e-06
-5.427e-06
-7.45799e-06
-6.18377e-06
0.000170207
-2.36205e-06
2.95874e-06
-7.97017e-07
3.61012e-06
-3.61803e-06
-4.96405e-06
-3.30212e-06
-3.60059e-05
8.07812e-06
-1.46862e-05
3.5156e-05
3.26773e-06
1.0601e-06
-1.00704e-06
-3.3208e-06
-1.06434e-06
6.78091e-06
3.01054e-06
-2.13674e-07
-2.06174e-06
-6.45169e-06
-2.45279e-06
1.3266e-06
4.78006e-05
1.60247e-06
-1.17361e-07
9.53098e-07
-4.89288e-07
8.79709e-06
1.25625e-05
0.000116003
-2.4792e-07
-5.99394e-07
0.000134425
-2.11653e-06
1.61078e-06
-1.23658e-07
-4.99784e-06
6.06761e-08
-3.44183e-06
-6.63753e-05
5.10184e-06
-2.53421e-06
-2.875e-06
6.64348e-05
1.43479e-06
2.21494e-06
-2.12844e-06
-1.46776e-06
-1.89048e-06
1.83695e-06
1.69949e-06
1.41001e-06
4.09029e-06
1.42231e-06
1.36164e-06
8.05263e-07
1.08222e-06
1.29677e-06
1.33804e-06
1.29922e-06
2.70248e-06
6.64919e-07
5.27868e-05
2.14618e-06
3.33134e-06
2.15855e-06
8.58728e-07
4.97469e-07
6.22815e-07
-1.33882e-05
8.45038e-07
5.75066e-07
1.40712e-05
-3.97281e-05
6.11467e-06
3.5096e-07
3.32625e-05
-1.94169e-06
9.4224e-07
7.91516e-08
2.3303e-06
1.81756e-06
-3.89273e-07
9.96366e-07
-4.47043e-07
-1.31269e-06
1.02644e-06
5.5431e-07
-1.23808e-06
-3.42675e-07
-1.5071e-05
5.00042e-07
8.31553e-07
1.37394e-05
-2.1307e-05
-6.66828e-06
6.96159e-06
2.10111e-05
-4.73155e-07
6.0708e-06
-3.97099e-05
-7.08065e-06
1.06567e-06
4.01272e-05
-3.72359e-06
-4.71306e-05
7.0638e-06
-5.17637e-06
6.53115e-06
4.24356e-05
-4.73935e-05
-1.16964e-06
-6.04173e-06
5.13605e-07
4.83436e-05
5.74765e-06
-5.04733e-06
2.23165e-06
-9.22723e-06
-2.6513e-06
2.22312e-06
1.24711e-05
-8.8046e-06
1.71064e-05
0.000102337
-3.1806e-06
-6.36319e-06
-4.60144e-06
-6.70183e-06
2.57135e-06
2.94843e-06
2.81555e-06
3.28283e-06
1.15017e-06
2.33299e-05
0.000132896
-7.52975e-06
-6.48603e-06
-6.95606e-06
-5.10272e-06
-2.26385e-06
-1.14231e-05
0.00017372
-5.29561e-07
4.57542e-06
1.22122e-06
4.99472e-06
6.26706e-07
-1.04497e-06
1.48111e-06
-3.67598e-05
9.19199e-06
-1.3704e-05
3.9008e-05
3.41379e-06
-1.8707e-07
2.77674e-08
-3.25485e-06
-1.49014e-06
5.68707e-06
7.47582e-09
-1.56745e-07
-4.37387e-07
-3.61027e-06
-2.23797e-06
5.1414e-06
5.92347e-05
1.65627e-06
-7.49209e-09
1.29667e-06
-1.76698e-07
1.16706e-05
1.5428e-05
0.000109996
5.22816e-06
-8.34348e-07
0.000125302
1.49445e-06
6.86283e-06
2.41905e-06
-2.99243e-06
-2.91834e-07
-2.51557e-06
-6.36908e-05
5.86958e-06
6.65486e-06
-5.28545e-06
6.168e-05
2.23767e-06
1.28333e-06
-7.88438e-07
-1.22835e-06
-2.46101e-06
9.56795e-07
2.79315e-06
1.22244e-06
3.8822e-07
3.91078e-07
8.14737e-07
-2.38586e-07
5.17133e-07
1.18601e-06
1.06688e-06
1.09062e-06
3.00573e-06
1.26625e-06
5.377e-05
2.58137e-06
3.67401e-06
2.61177e-06
1.37812e-06
1.29437e-06
1.42635e-06
-1.51578e-05
2.01071e-06
3.78165e-07
1.49403e-05
-3.21305e-05
3.3595e-06
-2.33277e-06
3.11038e-05
-2.67199e-06
7.04108e-07
1.18806e-07
3.07151e-06
8.6996e-07
-3.66977e-07
1.40019e-06
-5.64084e-07
-7.2843e-08
-1.91357e-07
9.94742e-07
-1.64682e-06
8.43469e-07
-1.20635e-05
-4.87386e-07
2.09577e-06
1.04551e-05
-2.02358e-05
-7.76628e-06
8.85285e-06
1.91493e-05
-3.56254e-06
5.54375e-06
-3.93805e-05
-4.93967e-06
5.72944e-06
3.66095e-05
-5.11343e-06
-3.82674e-05
3.22655e-06
-3.19941e-06
7.13063e-06
3.62231e-05
-4.86783e-05
2.15312e-06
-5.57322e-06
-1.03154e-06
4.80258e-05
5.10413e-06
-7.66423e-06
2.84341e-06
-1.47624e-05
-2.98309e-06
5.72917e-06
1.68372e-05
-1.25953e-06
2.54348e-05
9.93002e-05
-6.67563e-06
-8.59201e-06
-7.75096e-06
-8.04473e-06
2.54305e-06
2.43548e-06
2.38635e-06
2.55976e-06
8.53933e-06
2.43747e-05
0.000121514
-7.58218e-06
-5.31023e-06
-6.20519e-06
-3.69409e-06
-3.37068e-07
-1.24714e-05
0.000177757
1.09791e-06
5.33368e-06
2.4715e-06
5.62941e-06
1.36749e-06
-1.72935e-08
1.42802e-06
-4.12782e-05
9.77032e-06
-1.22608e-05
4.34316e-05
3.00114e-06
-9.82904e-07
6.11362e-07
-2.63066e-06
-8.03707e-07
1.29031e-06
-2.96284e-06
-6.92564e-07
1.31136e-06
1.85744e-06
3.2824e-07
1.05805e-05
6.97758e-05
1.46991e-06
7.77189e-07
1.45219e-06
2.8577e-07
1.52546e-05
1.88134e-05
0.000100631
6.17223e-06
-9.24722e-07
0.000117138
2.2756e-06
6.00312e-06
2.43873e-06
-2.4644e-06
-2.28188e-07
-2.3242e-06
-6.17539e-05
6.0699e-06
6.49199e-06
-6.04541e-06
6.14096e-05
2.7658e-06
6.49478e-07
3.13827e-07
-7.20732e-07
-2.94617e-06
-6.21963e-08
4.65204e-06
9.54363e-07
4.27016e-06
-4.76778e-07
2.26905e-07
-9.98751e-07
-1.00931e-07
9.72907e-07
6.87388e-07
7.81459e-07
3.65555e-06
1.91273e-06
5.47259e-05
3.05892e-06
4.5077e-06
3.15644e-06
2.16609e-06
1.86315e-06
2.18892e-06
-1.56612e-05
2.6269e-06
2.16566e-07
1.55486e-05
-3.00484e-05
3.34263e-06
-2.29064e-06
2.89965e-05
-3.34472e-06
4.27624e-07
2.80579e-07
3.59088e-06
-6.42899e-07
-2.4911e-07
1.11335e-06
-2.91658e-08
1.72056e-06
-1.53837e-06
9.41303e-07
-1.91413e-06
2.51119e-06
-8.89328e-06
-1.28164e-06
2.8483e-06
7.32662e-06
-1.83995e-05
-7.62117e-06
8.45785e-06
1.75628e-05
-5.53183e-06
4.30855e-06
-3.23448e-05
-2.17281e-06
7.56086e-06
2.818e-05
-3.90304e-06
-3.63628e-05
1.37886e-06
-3.88017e-06
5.48631e-06
3.72809e-05
-4.67324e-05
4.3267e-06
-5.81277e-06
-2.0835e-06
4.49763e-05
5.32568e-06
-8.09312e-06
2.29207e-06
-1.87896e-05
-2.30985e-06
6.64416e-06
2.02563e-05
3.02649e-06
2.7863e-05
9.4588e-05
-8.08998e-06
-8.36007e-06
-7.75889e-06
-7.48676e-06
1.62674e-06
1.29977e-06
1.1773e-06
1.41464e-06
1.16189e-05
2.78727e-05
0.000104149
-6.68233e-06
-4.25055e-06
-5.37083e-06
-2.79568e-06
3.44762e-07
-9.81877e-06
0.000181466
1.17045e-06
5.50898e-06
2.0281e-06
5.68311e-06
1.30693e-06
2.87696e-07
1.39878e-06
-4.52995e-05
9.43158e-06
-1.08587e-05
4.70714e-05
2.09551e-06
-1.27761e-06
7.9029e-07
-1.60774e-06
-2.51546e-07
-4.79423e-06
-4.51908e-06
-1.04063e-06
2.81269e-06
7.7928e-06
3.68398e-06
1.49687e-05
7.43106e-05
1.20369e-06
1.06041e-06
1.25938e-06
1.15201e-06
1.98174e-05
2.28084e-05
8.95622e-05
5.45989e-06
-5.29663e-07
0.000115654
2.39913e-06
5.37736e-06
2.48796e-06
-1.99963e-06
1.76462e-07
-1.88903e-06
-6.1052e-05
5.77095e-06
6.09369e-06
-5.81907e-06
6.04663e-05
3.00842e-06
4.29891e-07
5.22539e-07
-4.51717e-07
-2.26171e-06
-1.24742e-06
6.79471e-06
8.88232e-07
1.20266e-05
-7.9482e-07
-3.83014e-07
-1.18944e-06
-7.74367e-07
1.00343e-06
7.9219e-07
8.75345e-07
4.68053e-06
2.27426e-06
5.71441e-05
3.635e-06
5.52274e-06
3.76314e-06
2.7348e-06
1.95682e-06
2.61757e-06
-1.6345e-05
3.62631e-06
2.08668e-07
1.66609e-05
-2.81362e-05
3.19715e-06
-2.22582e-06
2.71649e-05
-3.70136e-06
3.25132e-07
1.77847e-07
4.08677e-06
-2.76891e-06
-3.37536e-07
1.06705e-06
2.88637e-08
4.28479e-06
-3.49477e-06
1.02324e-06
-2.17252e-06
4.64404e-06
-6.21193e-06
1.21255e-06
-8.22657e-07
5.82203e-06
-1.65657e-05
-3.89786e-06
4.93421e-06
1.55293e-05
-3.87625e-06
3.31492e-06
-2.48935e-05
-3.33441e-06
6.25474e-06
2.25345e-05
-1.57881e-06
-3.78047e-05
3.42217e-06
-5.05891e-06
3.98308e-06
3.70371e-05
-4.35349e-05
4.88766e-06
-6.55788e-06
-2.5461e-06
4.25023e-05
5.2489e-06
-6.31664e-06
1.48073e-06
-2.10404e-05
-1.59148e-06
5.74691e-06
2.17209e-05
4.01711e-06
2.68315e-05
9.10951e-05
-7.60054e-06
-7.90125e-06
-7.41217e-06
-7.5562e-06
9.21687e-07
6.13705e-07
6.8465e-07
8.94477e-07
1.19876e-05
3.10875e-05
8.48588e-05
-6.71128e-06
-3.89326e-06
-6.61943e-06
-2.54421e-06
1.50755e-07
-5.6505e-06
0.000184338
5.90071e-07
5.37173e-06
1.44338e-06
5.43883e-06
8.72354e-07
2.80924e-08
8.70883e-07
-4.85198e-05
8.90772e-06
-1.0101e-05
4.98639e-05
1.32137e-06
-9.29503e-07
7.20669e-07
-1.11128e-06
7.70956e-08
-1.03536e-05
-4.58048e-06
-1.18065e-06
3.50919e-06
1.25285e-05
5.9642e-06
1.72551e-05
7.32997e-05
8.50376e-07
1.21876e-06
1.18071e-06
1.3732e-06
2.25618e-05
2.45336e-05
7.95184e-05
4.98153e-06
-1.73805e-07
0.000119932
2.46156e-06
4.87309e-06
2.60341e-06
-1.37717e-06
5.30616e-07
-1.26629e-06
-6.03454e-05
5.53523e-06
5.40422e-06
-6.01492e-06
6.04024e-05
1.3737e-06
-8.77748e-08
6.40059e-07
7.20359e-07
-2.02013e-07
-2.44433e-06
8.96882e-06
1.33981e-06
1.92894e-05
-1.00897e-06
-8.27004e-07
-1.18159e-06
-1.18163e-06
1.28829e-06
1.27324e-06
1.32133e-06
5.38857e-06
2.18806e-06
6.08678e-05
4.03243e-06
6.20511e-06
4.06979e-06
2.9804e-06
1.94077e-06
2.97367e-06
-1.78863e-05
4.42181e-06
9.38157e-08
1.85854e-05
-2.64065e-05
3.42465e-06
-2.48468e-06
2.54666e-05
-4.55112e-06
2.60344e-08
4.61954e-07
5.40283e-06
-5.75951e-06
-5.88793e-07
1.35637e-06
-4.13164e-07
7.59316e-06
-5.77319e-06
1.19084e-06
-2.40986e-06
6.99221e-06
-5.59036e-06
2.74885e-06
-2.37864e-06
5.22014e-06
-1.45961e-05
-2.25842e-06
2.81554e-06
1.40393e-05
-3.83893e-06
3.51131e-06
-2.10644e-05
-5.01388e-06
6.11682e-06
2.02891e-05
-1.74262e-06
-3.49129e-05
4.9622e-06
-5.13875e-06
5.32396e-06
3.15081e-05
-4.17792e-05
3.88494e-06
-6.07807e-06
-1.82845e-06
4.07396e-05
5.06122e-06
-4.09371e-06
7.82469e-07
-2.22162e-05
-1.08073e-06
3.92314e-06
2.2685e-05
3.96587e-06
2.37601e-05
8.78063e-05
-6.8173e-06
-7.41534e-06
-5.91608e-06
-6.15422e-06
5.17799e-07
3.59638e-07
2.84986e-07
7.03244e-07
1.05084e-05
3.20556e-05
7.15798e-05
-8.62614e-06
-4.14722e-06
-8.41758e-06
-4.12832e-06
-1.63913e-07
1.60517e-07
0.000184895
-1.4736e-07
4.76841e-06
4.11863e-07
4.57526e-06
4.24224e-07
-5.05936e-07
4.27997e-07
-5.10427e-05
8.01425e-06
-9.03448e-06
5.1899e-05
7.03501e-07
-8.67654e-07
4.52229e-07
-2.87092e-07
5.73675e-08
-1.40942e-05
-3.65037e-06
-1.02369e-06
3.34286e-06
1.5368e-05
6.42184e-06
1.69948e-05
6.90578e-05
7.66493e-07
1.21152e-06
1.1646e-06
1.44275e-06
2.1627e-05
2.38465e-05
7.25223e-05
3.98415e-06
1.75603e-07
0.000128679
2.43526e-06
3.93086e-06
2.46355e-06
-5.52513e-07
9.20351e-07
-3.17065e-07
-6.10311e-05
5.02922e-06
4.85782e-06
-6.06731e-06
6.11955e-05
-9.2514e-07
-1.6464e-07
6.88364e-07
1.45031e-06
1.7455e-06
-2.79439e-06
1.02294e-05
1.47263e-06
2.55571e-05
-1.18037e-06
-1.2495e-06
-1.232e-06
-1.46079e-06
1.56834e-06
1.25959e-06
1.31983e-06
5.61446e-06
1.91247e-06
6.57295e-05
3.93001e-06
6.21829e-06
3.67205e-06
3.03345e-06
1.75479e-06
3.07867e-06
-2.02895e-05
4.98004e-06
-2.6994e-08
2.11265e-05
-2.46175e-05
4.02834e-06
-3.1312e-06
2.37203e-05
-6.10298e-06
-3.33185e-07
1.0966e-06
6.81221e-06
-9.4295e-06
-7.15273e-07
1.2661e-06
-6.57957e-07
1.14491e-05
-8.26436e-06
1.28016e-06
-2.50017e-06
9.48436e-06
-4.65195e-06
2.33188e-06
-1.66915e-06
3.98922e-06
-1.37866e-05
-4.75917e-07
6.19613e-07
1.36429e-05
-2.81095e-06
2.43291e-06
-2.01634e-05
-3.76392e-06
3.49724e-06
2.08081e-05
-3.83075e-06
-2.76797e-05
3.25245e-06
-2.5562e-06
6.72902e-06
2.40851e-05
-3.96162e-05
3.19564e-06
-5.7869e-06
-7.74779e-07
3.91637e-05
3.81856e-06
-2.34202e-06
5.49337e-07
-2.27893e-05
-8.84369e-07
2.61961e-06
2.28467e-05
3.81341e-06
1.81065e-05
8.04774e-05
-3.94877e-06
-4.61679e-06
-3.26001e-06
-3.42593e-06
1.69042e-07
3.64345e-08
8.88029e-08
3.66248e-07
5.44774e-06
3.17449e-05
6.64816e-05
-8.31623e-06
-6.43097e-06
-7.18161e-06
-6.35219e-06
-1.23807e-06
8.48351e-06
0.000182526
-1.95509e-06
3.40521e-06
-1.74241e-06
3.1808e-06
-4.8267e-07
-1.48619e-06
-3.47995e-07
-5.24569e-05
7.36226e-06
-8.52683e-06
5.23834e-05
2.51704e-08
-3.04959e-07
7.01973e-08
2.11204e-07
1.72031e-07
-1.60958e-05
-3.00509e-06
-7.77231e-07
3.20924e-06
1.64969e-05
6.79201e-06
1.39696e-05
6.34568e-05
4.504e-07
8.04183e-07
7.38105e-07
9.53194e-07
1.70968e-05
2.32334e-05
7.07291e-05
2.57665e-06
1.11627e-06
0.000141119
1.90213e-06
1.96153e-06
1.62547e-06
6.75701e-07
2.19589e-06
1.08702e-06
-6.19563e-05
4.68061e-06
3.58802e-06
-5.70412e-06
6.19684e-05
-2.36675e-06
1.42813e-07
4.99822e-07
1.43492e-06
2.97814e-06
-2.68895e-06
1.01777e-05
1.08845e-06
3.13144e-05
-1.27357e-06
-1.39755e-06
-1.24934e-06
-1.4602e-06
1.00402e-06
7.20432e-07
6.02408e-07
5.06872e-06
1.92215e-06
7.31761e-05
3.05868e-06
5.46285e-06
2.54169e-06
3.07703e-06
1.85932e-06
2.97405e-06
-2.3019e-05