/*--------------------------------*- C++ -*----------------------------------*\
| =========                 |                                                 |
| \\      /  F ield         | OpenFOAM: The Open Source CFD Toolbox           |
|  \\    /   O peration     | Version:  5.x                                   |
|   \\  /    A nd           | Web:      www.OpenFOAM.org                      |
|    \\/     M anipulation  |                                                 |
\*---------------------------------------------------------------------------*/
FoamFile
{
    version     2.0;
    format      ascii;
    class       volVectorField;
    location    "6";
    object      U;
}
// * * * * * * * * * * * * * * * * * * * * * * * * * * * * * * * * * * * * * //

dimensions      [0 1 -1 0 0 0 0];

internalField   nonuniform List<vector> 
10571
(
(0.742682 0.592153 2.12211)
(0.320435 -0.278274 1.06194)
(1.00973 0.575474 1.84836)
(0.364268 0.895724 2.33869)
(-0.233218 0.484635 2.00962)
(0.887048 -0.326502 1.25752)
(0.740654 -0.142128 1.70271)
(0.261621 -0.0848526 2.63226)
(-0.482685 -0.398926 1.53914)
(-0.311735 -0.52834 1.41697)
(0.264564 -0.228595 1.87614)
(0.753732 -0.411428 1.48741)
(0.608146 -0.505293 1.79631)
(1.39244 -1.75182 2.74539)
(-0.652366 -1.20793 1.86649)
(0.107575 -1.09481 1.46056)
(0.197486 -0.0342488 0.829491)
(0.486161 -0.556009 2.57425)
(0.619103 -0.726673 1.45256)
(-0.224826 -0.603867 1.21515)
(0.0576312 -0.213516 0.567253)
(0.708255 0.0833938 2.01279)
(0.893073 0.391508 2.20096)
(0.223044 -0.139138 1.86941)
(0.0692994 0.0648683 0.407227)
(0.0806844 -0.0417666 0.184383)
(0.336108 0.199357 0.631185)
(0.143748 0.417732 2.82771)
(-0.16972 -0.0623879 0.779893)
(0.254646 -0.0629057 0.241282)
(1.40567 -0.497675 2.93974)
(-0.598515 0.125474 2.95336)
(-0.13678 0.187362 0.850296)
(-0.247719 -0.226959 0.911732)
(0.0580951 -0.111712 0.631178)
(0.409438 -0.315595 0.513946)
(1.47165 -1.23482 2.80398)
(0.408174 -0.658335 2.50648)
(-0.0292025 0.16546 0.680256)
(-0.260267 0.265576 0.57236)
(0.0873847 -0.0110654 0.42649)
(0.263323 -0.257265 0.654875)
(0.472466 -0.652127 1.08567)
(0.320521 -0.643122 1.07296)
(-0.00740315 0.0115978 0.41239)
(0.197813 -0.28788 0.706386)
(1.03073 -1.48322 1.78064)
(0.571639 -0.697679 1.10126)
(-0.0123197 -0.192473 0.801163)
(0.0941412 -0.109579 0.232658)
(0.0864985 -0.335806 0.47876)
(0.620702 -2.36218 3.71954)
(0.246156 -0.484162 0.828921)
(-0.0573039 -0.168678 0.347279)
(0.385444 -0.282044 3.68711)
(0.983251 0.281488 3.6667)
(0.266359 0.0755187 0.95294)
(-0.0867158 -0.0236154 0.771995)
(0.00470543 -0.0675631 0.451518)
(-0.00334895 -0.086095 0.43285)
(0.225169 -0.00790553 1.11911)
(1.75902 0.2537 3.36905)
(1.01331 0.318351 2.55118)
(-0.0646767 0.280967 0.623452)
(-0.00823809 -0.0769974 0.445526)
(0.10672 -0.0446154 0.391949)
(0.325421 -0.307718 0.728417)
(1.52504 -1.11057 2.20524)
(0.300178 -0.413703 0.988251)
(-0.00853009 -0.11995 0.517738)
(0.202569 -0.346704 0.641985)
(0.422037 -0.214836 0.412266)
(0.0820807 0.244923 1.51861)
(0.158148 -0.0865981 0.493653)
(0.0898769 -0.829372 1.02863)
(0.449223 -1.59361 3.29294)
(0.082712 -0.421361 1.45444)
(-0.599903 -0.120482 0.838793)
(-0.0176717 -0.0741836 0.642956)
(0.424098 -0.206572 1.32079)
(0.596908 -0.172763 1.43619)
(0.0752384 -0.0580903 0.795558)
(0.00294649 -0.0232345 0.647129)
(-0.124125 -0.0709873 0.62729)
(-0.110356 0.143292 0.452943)
(0.737318 0.216705 3.0024)
(1.47369 -0.151159 2.47534)
(1.20471 -0.787491 2.00776)
(-0.00203677 -0.0350463 0.187875)
(-0.0245045 -0.0470831 0.278951)
(0.0971511 0.00574818 0.45082)
(0.922671 -0.153765 1.52569)
(0.752822 -0.660851 2.33703)
(-0.10353 -0.0851559 0.417975)
(0.11672 -0.0954223 0.415931)
(0.223131 -0.113445 0.222939)
(-0.0689239 -0.251357 2.00999)
(0.29463 -0.160419 -0.136958)
(0.112673 -0.4523 0.948016)
(0.246134 -0.902169 2.45669)
(0.474066 0.270028 1.72852)
(0.285722 -0.128726 0.526978)
(0.162165 -0.00167625 1.92137)
(0.0717794 -0.377082 2.49447)
(-0.0940878 -0.054381 1.49712)
(-0.423627 -0.360507 0.971439)
(0.00603818 0.126764 0.103168)
(0.157919 0.18594 0.451549)
(-0.417885 -0.118642 0.981682)
(0.137919 0.042449 0.994282)
(0.993002 -0.0250347 1.68965)
(0.95769 -0.693405 2.52063)
(0.149736 0.199844 0.214502)
(0.00743778 -0.101147 0.531152)
(0.0580522 0.13041 0.403833)
(0.191754 0.140502 0.479075)
(0.294636 -0.131883 2.73296)
(-0.0747925 -0.0361145 0.399629)
(0.040007 -0.00131555 0.191908)
(0.162327 -0.0584399 0.300982)
(-0.0213108 -0.223485 2.75383)
(0.261464 -0.153329 -0.0968934)
(0.0994179 -0.295195 1.26889)
(0.248505 -0.697666 2.49851)
(0.490528 0.311662 1.87907)
(0.138688 -0.186279 0.115733)
(0.105645 0.0271151 0.8595)
(0.0536742 -0.0599153 1.41302)
(-0.0686796 0.296371 1.41679)
(-0.504836 -0.621865 1.37094)
(-0.00971457 0.0201286 0.00639687)
(0.0519153 -0.0833635 -0.256696)
(0.192796 0.140563 0.302321)
(0.408747 0.0712448 0.393893)
(0.299586 0.130215 1.87328)
(0.581217 0.194534 1.80009)
(0.896221 -0.334845 2.67401)
(0.00803987 0.00816329 0.00485374)
(0.192103 0.21002 0.188515)
(0.163757 -0.0229854 0.263673)
(0.19997 -0.516298 0.369003)
(0.180906 -0.174954 0.278686)
(0.210338 -0.0472643 3.17753)
(0.120381 -0.1088 0.0855988)
(0.147454 -0.0469406 0.048736)
(0.223855 -0.184123 0.154858)
(-0.0186074 -0.043753 2.87823)
(0.236417 -0.147916 0.167462)
(0.206117 -0.25006 1.37904)
(0.136788 -0.524907 2.37138)
(0.357373 0.247743 1.82171)
(0.140552 -0.300449 -0.0412003)
(0.019356 0.0170773 0.936928)
(0.0384091 0.00539751 1.35441)
(-0.276906 0.475295 1.57856)
(-0.710129 -0.276525 1.06345)
(-1.22338 0.692971 -0.276267)
(-0.00664644 -0.167311 -0.430462)
(0.00280455 -0.0523742 -0.0320729)
(0.343182 0.0545412 0.523969)
(0.19894 0.19392 1.22927)
(0.561931 0.2745 1.387)
(0.805389 -0.0312302 2.59123)
(-0.277789 0.210706 0.412481)
(0.171663 0.0182631 0.1053)
(0.076202 -0.0849458 0.377137)
(0.0787562 -0.136638 0.279497)
(-0.280268 -0.317262 0.115759)
(0.390689 0.0569506 2.90689)
(0.0183869 0.265934 0.971305)
(0.0700491 0.0271783 0.0769719)
(0.0113159 0.10452 -0.0378972)
(0.0610817 -0.0217973 -0.216723)
(0.0698183 0.0170457 2.60309)
(0.0548022 -0.0359919 0.674352)
(0.0980238 -0.205852 1.51767)
(0.0836932 -0.273457 2.31345)
(0.234365 0.318323 1.65453)
(0.106 -0.391207 -0.0990195)
(-0.0868578 -0.0256231 0.920477)
(-0.0163098 0.0816615 1.46124)
(-0.310094 0.382342 1.72204)
(-0.79174 0.0371153 1.48086)
(-0.946387 -0.542385 -0.632983)
(-0.0389309 -0.253196 -0.437997)
(-0.0698537 -0.18223 -0.172225)
(0.229727 -0.0433722 0.488032)
(0.0682715 0.182121 1.21859)
(0.477987 0.11788 1.31319)
(0.741598 -0.000247193 2.44735)
(0.0697452 -0.289527 0.980675)
(-0.0597074 -0.136556 0.0400819)
(0.0290284 -0.089187 0.336119)
(-0.0207082 0.0569554 0.519925)
(-0.0917464 -0.146563 0.173188)
(0.15464 0.10221 2.68543)
(0.724052 0.0670907 0.931417)
(-0.00275439 0.0472307 0.0617797)
(-0.0835328 0.0206047 -0.0767848)
(0.0612942 0.0266406 -0.211952)
(0.22693 -0.0335116 2.41664)
(-0.0824366 0.125951 1.1022)
(0.0415394 -0.170922 1.63929)
(-0.0340345 -0.17157 2.39213)
(-0.0818654 0.289029 1.71159)
(0.0348231 -0.398918 -0.0275636)
(-0.164449 0.0339181 0.91964)
(-0.113493 0.266083 1.49034)
(-0.19239 0.292534 1.74841)
(-0.44032 -0.560581 1.43833)
(-0.427739 -1.63473 -1.08164)
(-0.0276955 -0.255606 -0.432708)
(0.0327394 -0.25881 -0.268278)
(0.109734 -0.0965942 0.428789)
(-0.0461012 0.223901 1.25488)
(0.433345 -0.100183 1.31109)
(0.629335 -0.151868 2.35316)
(0.650928 -1.26353 1.06859)
(-0.164727 -0.160194 -0.0179083)
(-0.0061814 0.0120163 0.223666)
(0.0268447 0.115114 0.552013)
(0.103495 0.00836407 0.419313)
(-0.0160818 -0.0862506 2.84244)
(-0.046609 0.0898358 0.0741916)
(-0.0120341 0.0230971 -0.0885441)
(0.0872907 -0.0410787 -0.143101)
(0.266467 -0.0694353 2.30307)
(-0.283034 0.257479 1.455)
(-0.17976 -0.0950603 1.71176)
(-0.266612 0.0705379 2.28661)
(-0.331763 0.0908016 1.76908)
(-0.0588984 -0.117085 0.176035)
(-0.240572 0.227699 1.00574)
(-0.143584 0.405852 1.43747)
(-0.0573574 -0.00287505 1.74206)
(-0.506968 -1.03551 1.66302)
(-0.0309342 -0.144728 -0.474529)
(0.136276 -0.166358 -0.284706)
(0.0296893 -0.0165743 0.422528)
(-0.113271 0.291798 1.20948)
(0.484775 -0.195082 1.41903)
(-0.107367 -0.194257 2.48268)
(-0.146691 -0.108692 -0.0672759)
(-0.0197147 0.0667939 0.0814933)
(0.0906128 0.164049 0.540735)
(0.249874 0.0640697 0.595916)
(0.143092 -0.120606 3.0066)
(-0.0384329 0.112472 0.103633)
(0.0436698 -0.0145558 -0.0583381)
(0.130977 -0.0594179 -0.0650829)
(0.170055 -0.0232358 2.08492)
(-0.389381 0.332383 1.55609)
(-0.437041 0.0305263 1.75699)
(-0.422464 0.36601 1.985)
(-0.457127 -0.0297856 1.87598)
(-0.202463 0.306941 0.492232)
(-0.226995 0.437002 1.04492)
(-0.0577118 0.470574 1.38896)
(0.101199 -0.152625 1.79704)
(-0.204004 -0.954425 1.90744)
(-0.021053 0.0265148 -0.489345)
(0.137398 -0.00841683 -0.198505)
(0.010417 0.138804 0.538606)
(-0.0870342 0.314693 1.1573)
(0.518514 -0.235488 1.37259)
(0.368884 -0.339552 2.48477)
(-0.0755459 -0.081756 -0.0921623)
(-0.00523485 0.0466453 -0.00104534)
(0.119028 0.23288 0.567061)
(0.26987 0.0569046 0.651718)
(0.171436 -0.228104 2.83226)
(-0.0223256 0.10836 0.145026)
(0.0624852 0.0152393 -0.0126288)
(0.169011 -0.0770968 0.0425844)
(0.220513 0.0220497 1.61644)
(-0.487152 0.451941 1.44762)
(-0.360714 0.324306 1.70622)
(-0.158003 0.449162 1.60228)
(-0.450226 -0.113751 1.90815)
(-0.220413 0.54558 0.683948)
(-0.130246 0.531951 1.01528)
(0.0887693 0.442327 1.30267)
(0.16751 -0.200966 1.86121)
(-0.0627023 -0.892724 2.11285)
(-0.0174648 0.159722 -0.413064)
(0.0456979 0.161519 0.00860213)
(0.00878693 0.341873 0.669831)
(0.00432765 0.380206 1.08703)
(0.50272 -0.226932 1.28041)
(0.315735 -0.329627 2.41496)
(0.00463179 -0.0369341 -0.110934)
(0.0297754 0.0290558 0.0105571)
(0.155564 0.282786 0.57473)
(0.315645 0.0459428 0.676095)
(0.139639 -0.229302 2.69069)
(-0.00290476 0.089829 0.181063)
(0.0369215 0.0600119 0.0488536)
(0.186779 -0.0564755 0.192337)
(0.182645 0.101287 1.14271)
(-0.467657 0.47286 1.31142)
(-0.203596 0.466487 1.30768)
(-0.147311 0.321902 1.61527)
(-0.395678 -0.234658 1.78261)
(-0.164041 0.600171 0.876792)
(-0.0464786 0.537859 0.955513)
(0.15338 0.471922 1.13792)
(0.197 -0.182536 1.88723)
(-0.0132832 -0.799206 2.3212)
(-0.00349575 0.148985 -0.256505)
(-0.0252151 0.276936 0.280415)
(0.00037601 0.427756 0.738976)
(0.126816 0.479573 0.959844)
(0.519244 -0.15133 1.21295)
(0.248919 -0.295043 2.38571)
(0.0166421 0.0211834 -0.106672)
(0.0610781 0.0827249 0.0842286)
(0.206434 0.324412 0.587832)
(0.394171 0.0574417 0.718678)
(0.103359 -0.226824 2.53252)
(-0.00925068 0.0563313 0.189426)
(0.036655 0.0769048 0.143993)
(0.212407 -0.0463363 0.373838)
(-0.208629 0.0195356 0.854033)
(-0.226243 0.239162 1.16829)
(-0.239256 0.329899 1.03252)
(-0.31375 0.189879 1.66815)
(-0.380301 -0.283313 1.68484)
(-0.118433 0.489723 0.936148)
(-0.0272175 0.512591 0.916083)
(0.167549 0.565693 0.931765)
(0.192686 -0.139666 1.92884)
(-0.0382893 -0.730347 2.48228)
(-0.000832812 0.132417 -0.175048)
(-0.0632795 0.304568 0.5087)
(0.00288896 0.425539 0.748717)
(0.20452 0.528252 0.84188)
(0.533196 -0.0471716 1.21421)
(0.204218 -0.30184 2.37989)
(0.037422 0.118128 -0.0288826)
(0.107517 0.154398 0.169816)
(0.242326 0.337251 0.616718)
(0.451676 0.0540866 0.796893)
(0.108443 -0.205676 2.36894)
(0.0130598 0.0645222 0.249745)
(0.0624498 0.0600001 0.267332)
(0.230814 -0.0465164 0.581429)
(-0.383674 -0.0443851 0.796338)
(-0.0957898 0.133886 1.03264)
(-0.334986 0.348064 0.897379)
(-0.360509 0.223421 1.49167)
(-0.329839 -0.2154 1.6149)
(-0.0881025 0.32819 0.97645)
(-0.0213926 0.435153 0.900496)
(0.157465 0.610708 0.766137)
(0.153633 -0.0529202 1.95233)
(-0.0556836 -0.635947 2.59993)
(0.00313015 0.0716618 -0.0677832)
(-0.0467713 0.275616 0.646206)
(0.00612173 0.402157 0.729429)
(0.214211 0.528768 0.758804)
(0.491313 0.0636882 1.29799)
(0.14393 -0.287415 2.40717)
(0.046808 0.160849 0.0615578)
(0.146872 0.162193 0.234678)
(0.246015 0.307504 0.651583)
(0.477552 0.0482533 0.904235)
(0.144657 -0.249558 2.19726)
(0.0535421 0.0673348 0.333062)
(0.0450182 0.0448562 0.416962)
(0.235932 -0.0453083 0.810544)
(-0.302491 -0.0428997 0.603764)
(0.0265465 -0.00534023 0.998284)
(-0.265536 0.241179 0.890966)
(-0.178195 0.4257 1.11769)
(-0.321083 -0.171988 1.53442)
(-0.0734257 0.216278 0.990786)
(0.0247117 0.304176 0.848616)
(0.108112 0.60255 0.678511)
(0.0419933 0.109711 1.95377)
(-0.106995 -0.584669 2.65348)
(-0.00233942 0.0326763 0.0135057)
(-0.0238701 0.261026 0.720459)
(0.0586748 0.342271 0.660371)
(0.169686 0.524712 0.704525)
(0.389701 0.223496 1.42503)
(0.0733514 -0.275814 2.44979)
(0.0144993 0.146075 0.109567)
(0.161781 0.112763 0.293958)
(0.2113 0.267501 0.713602)
(0.447642 0.082836 1.02472)
(0.220572 -0.276466 2.08603)
(0.0427053 0.0513086 0.400391)
(-0.000119802 0.0605306 0.575219)
(0.208138 -0.0187954 1.04239)
(-0.162925 -0.0230231 0.44984)
(0.0402803 -0.0823222 0.985066)
(-0.0444939 0.032102 0.959871)
(-0.220165 0.318852 0.863503)
(-0.337835 -0.146716 1.53553)
(-0.075394 0.172992 1.00577)
(0.0928834 0.154214 0.764376)
(0.0302648 0.565229 0.656715)
(-0.0880495 0.214635 1.90503)
(-0.135647 -0.460366 2.58695)
(-0.0155627 -0.0361904 0.0987628)
(-0.0134556 0.22775 0.719844)
(0.0990397 0.27159 0.60128)
(0.089733 0.517534 0.716386)
(0.218501 0.366684 1.56132)
(-0.0160368 -0.10927 2.41638)
(-0.00610243 0.12883 0.16133)
(0.112281 0.0359984 0.357298)
(0.126516 0.23194 0.809597)
(0.358403 0.177898 1.1704)
(0.268392 -0.219487 2.11452)
(-0.0256068 0.0187488 0.474844)
(-0.0601222 0.0943459 0.7121)
(0.123144 0.0196781 1.28027)
(-0.0641155 -0.0411073 0.455351)
(0.0430086 -0.080447 0.975267)
(0.0796381 -0.00977421 0.95657)
(-0.274648 0.232181 0.731766)
(-0.275517 -0.108632 1.56523)
(-0.0595275 0.128412 0.991238)
(0.102919 0.0250854 0.697428)
(-0.0552016 0.494307 0.691219)
(-0.154355 0.258569 1.81134)
(-0.231379 -0.51431 2.48674)
(-0.00771321 -0.0838794 0.115579)
(-0.0152555 0.177043 0.661192)
(0.0548994 0.223259 0.588765)
(-0.033182 0.44351 0.81335)
(-0.0339056 0.452464 1.67658)
(-0.141805 0.156718 2.36292)
(-0.0435048 0.0783886 0.217522)
(-0.000572779 -0.0358784 0.422454)
(-0.0275388 0.187575 0.922126)
(0.182269 0.282233 1.33698)
(0.192351 -0.0502122 2.26836)
(-0.101995 -0.020285 0.521619)
(-0.157927 0.108161 0.835761)
(-0.0243235 0.062724 1.43738)
(0.0537247 -0.0334166 0.586179)
(0.0826458 -0.0653144 0.933392)
(0.144217 -0.0429907 0.902075)
(-0.102418 0.158141 0.778872)
(-0.134037 0.0421075 1.54442)
(-0.0707523 0.0430917 0.964079)
(0.0470468 -0.0566026 0.667996)
(-0.112958 0.319762 0.781454)
(-0.165098 0.258167 1.74786)
(-0.365601 -0.271217 2.14259)
(-0.0275056 -0.0939134 0.191858)
(-0.0474154 0.119781 0.589368)
(-0.0555682 0.153794 0.604239)
(-0.169745 0.256609 0.960467)
(-0.292245 0.419556 1.68938)
(-0.32954 0.240972 2.19874)
(-0.0838113 0.00117777 0.293068)
(-0.148105 -0.0832988 0.50064)
(-0.231029 0.160354 1.01305)
(-0.111354 0.404272 1.48755)
(0.100168 0.0208807 2.48527)
(-0.166655 -0.0410941 0.533095)
(-0.288287 0.146243 0.961482)
(-0.278476 0.14781 1.4605)
(0.171234 -0.0160044 0.719455)
(0.117617 -0.118115 0.86642)
(0.159952 -0.0793821 0.864716)
(0.137519 0.095077 0.795801)
(-0.0650391 0.28433 1.4691)
(-0.0501534 -0.0560463 0.890783)
(-0.0330085 -0.102068 0.669129)
(-0.153896 0.0897585 0.883016)
(-0.126925 0.210889 1.72449)
(-0.240881 -0.168901 1.74146)
(-0.0374153 -0.132263 0.263137)
(-0.0938163 0.0663131 0.564677)
(-0.148838 0.0860942 0.633802)
(-0.239693 0.0747475 1.06975)
(-0.380893 0.229727 1.62418)
(-0.161928 -0.0378112 1.59296)
(-0.127454 -0.0690766 0.408827)
(-0.272071 -0.114814 0.587127)
(-0.405196 0.108827 1.06573)
(-0.505459 0.373484 1.54445)
(-0.233261 0.341657 2.56082)
(-0.269775 -0.0535067 0.57042)
(-0.394984 0.170207 1.09874)
(-0.50721 0.270563 1.39998)
(0.236894 -0.00639857 0.804552)
(0.13884 -0.173778 0.856935)
(0.132397 -0.0888633 0.871049)
(0.197634 0.0663655 0.758307)
(-0.0934539 0.240964 1.41103)
(-0.0864975 -0.0850237 0.816699)
(-0.118923 -0.133142 0.683322)
(-0.20769 -0.105362 0.971276)
(-0.0206606 0.0826647 1.6889)
(-0.106486 -0.133052 1.66204)
(-0.0583147 -0.128142 0.435269)
(-0.124582 0.0198777 0.593328)
(-0.230814 0.0208838 0.669206)
(-0.273374 -0.0197466 1.08642)
(-0.25731 0.0913769 1.56198)
(-0.0145186 -0.00336726 1.10642)
(-0.166708 -0.115297 0.555199)
(-0.329049 -0.129502 0.675136)
(-0.451522 0.0305996 1.05295)
(-0.569391 0.265426 1.52571)
(-0.276297 0.248138 1.90252)
(-0.370387 -0.0653026 0.653975)
(-0.42587 0.138 1.19518)
(-0.511959 0.29649 1.43615)
(0.242343 0.00204579 0.851852)
(0.153426 -0.208093 0.907489)
(0.0475691 -0.0882765 0.935001)
(0.135982 -0.0367339 0.766993)
(-0.148482 0.204491 1.40295)
(-0.126577 -0.0912445 0.780705)
(-0.201348 -0.14121 0.704514)
(-0.271726 -0.224107 1.00465)
(-0.0492753 -0.0539599 1.63739)
(-0.0130614 -0.0582123 1.65871)
(-0.0584773 -0.137768 0.591953)
(-0.155789 -0.0139504 0.656666)
(-0.309887 -0.030424 0.70054)
(-0.337479 -0.0634543 1.02193)
(-0.165255 0.0478096 1.45912)
(0.0715606 -0.0226892 0.970609)
(-0.18355 -0.134764 0.71163)
(-0.338636 -0.0993554 0.755846)
(-0.427517 0.0126688 0.990445)
(-0.354552 -0.00151807 1.40242)
(-0.060753 0.00891683 1.11418)
(-0.422106 -0.0782016 0.784923)
(-0.461797 0.100741 1.17002)
(-0.402393 0.204413 1.41559)
(0.190122 0.0069756 0.867547)
(0.168131 -0.228288 0.98225)
(0.0137973 -0.084052 1.02931)
(0.0182281 -0.151808 0.857382)
(-0.156501 0.159109 1.44923)
(-0.159882 -0.0896303 0.788984)
(-0.247899 -0.11763 0.732409)
(-0.298912 -0.264507 0.990968)
(-0.213279 -0.223608 1.47355)
(0.0428801 -0.0806966 1.64803)
(-0.0584574 -0.145403 0.747092)
(-0.193014 -0.0273098 0.743884)
(-0.356203 -0.0604314 0.726127)
(-0.387551 -0.111669 0.860661)
(-0.172013 -0.0613338 1.22147)
(0.0786005 0.0232369 0.945896)
(-0.189153 -0.133407 0.872411)
(-0.331242 -0.0248151 0.810808)
(-0.38376 0.0488451 0.866482)
(-0.206956 0.122546 1.19051)
(-0.0251984 0.0529093 0.919836)
(-0.404161 -0.0897238 0.941399)
(-0.463898 0.0892368 1.0797)
(-0.299864 0.164471 1.15824)
(0.104623 0.00456312 0.898753)
(0.182985 -0.243918 1.05568)
(0.0360444 -0.0644355 1.14557)
(-0.0729335 -0.180738 1.00684)
(-0.218127 -0.0150923 1.55654)
(-0.176113 -0.0873402 0.823192)
(-0.243038 -0.07438 0.762628)
(-0.254687 -0.237081 0.965259)
(-0.240076 -0.361404 1.32921)
(0.0441519 -0.0892121 1.46897)
(-0.0581239 -0.151824 0.901228)
(-0.214694 -0.0170454 0.847374)
(-0.359219 -0.0667938 0.72968)
(-0.363728 -0.122677 0.710716)
(-0.147221 -0.165695 0.909143)
(0.025077 -0.0148923 0.972033)
(-0.182663 -0.119953 1.03467)
(-0.322728 0.035796 0.852601)
(-0.348756 0.0339243 0.738782)
(-0.220267 0.0207272 0.853074)
(-0.0281323 0.0287651 0.855287)
(-0.34951 -0.0785463 1.07732)
(-0.370843 0.080006 1.02932)
(-0.243737 0.152972 1.06478)
(0.0347585 -0.000860331 0.977249)
(0.185784 -0.244496 1.12156)
(0.0538427 -0.0216843 1.26775)
(-0.112872 -0.12576 1.16636)
(-0.284252 -0.17389 1.71529)
(-0.175533 -0.0729579 0.86637)
(-0.201908 -0.0367177 0.772191)
(-0.0934421 -0.115269 0.893789)
(-0.130217 -0.394211 1.30058)
(-0.16173 -0.32876 1.283)
(-0.0556925 -0.154532 1.04247)
(-0.217303 0.0053401 0.956028)
(-0.348489 -0.0667082 0.723106)
(-0.285003 -0.122144 0.581222)
(-0.0689853 -0.163779 0.679265)
(0.0136345 -0.225545 0.849584)
(-0.171924 -0.106416 1.18178)
(-0.314805 0.0354813 0.900615)
(-0.310852 -0.0293671 0.605016)
(-0.220222 -0.0849453 0.57657)
(-0.0397755 -0.014866 0.532907)
(-0.306475 -0.0624503 1.19935)
(-0.295112 0.0715125 0.998775)
(-0.207602 0.122978 0.985625)
(0.00171057 -0.0101307 1.07271)
(0.180514 -0.237957 1.18077)
(0.0459061 0.0193098 1.35776)
(-0.0971684 -0.0210887 1.30446)
(-0.274488 -0.219016 1.88876)
(-0.165381 -0.0417296 0.911965)
(-0.144578 -0.0265982 0.757383)
(0.0104593 -0.0405463 0.790966)
(0.17058 -0.233111 1.2893)
(-0.140943 -0.357427 1.26449)
(-0.0524884 -0.154599 1.1759)
(-0.200933 0.018914 1.05542)
(-0.328283 -0.0781494 0.726034)
(-0.22652 -0.113133 0.474277)
(-0.0223975 -0.0942428 0.489213)
(0.08748 -0.196804 0.611895)
(-0.162631 -0.0975942 1.31207)
(-0.287422 -0.0250908 0.943765)
(-0.274664 -0.0760686 0.492558)
(-0.199886 -0.0337477 0.403608)
(-0.0502427 0.0520277 0.32438)
(-0.271151 -0.0612425 1.31029)
(-0.27179 0.0633373 0.955648)
(-0.210975 0.0688622 0.750071)
(0.00873903 -0.0135239 1.13475)
(0.165 -0.225439 1.23517)
(0.0330998 0.0434113 1.38568)
(-0.0282623 0.111404 1.33052)
(-0.202595 -0.206958 2.05021)
(-0.155808 0.00310989 0.966042)
(-0.118087 -0.0451287 0.746454)
(0.04808 -0.00202924 0.684384)
(0.304374 0.0577901 1.17956)
(0.0549657 -0.237761 1.3268)
(-0.0474227 -0.157801 1.29411)
(-0.173442 0.0238858 1.15504)
(-0.275975 -0.120269 0.750013)
(-0.210368 -0.0738338 0.395921)
(-0.0388008 0.0059697 0.353476)
(0.13727 -0.00803152 0.510935)
(-0.15471 -0.10174 1.42362)
(-0.245311 -0.0628662 0.954096)
(-0.260784 -0.0671867 0.412381)
(-0.19644 0.0452171 0.278777)
(-0.0904812 0.158354 0.204031)
(-0.254086 -0.0658904 1.39177)
(-0.273182 0.0497286 0.908649)
(-0.243395 0.116996 0.455438)
(0.0420952 -0.0113787 1.17818)
(0.149544 -0.210593 1.28084)
(0.0297057 0.0507062 1.35191)
(0.0343537 0.228554 1.26915)
(-0.148043 -0.12316 2.19079)
(-0.153713 0.0407433 1.0292)
(-0.121566 -0.0923122 0.760875)
(0.0358167 0.0274184 0.643027)
(0.134369 0.251272 1.00162)
(0.179372 -0.14176 1.45541)
(-0.0428738 -0.157308 1.38944)
(-0.131594 0.0210358 1.25193)
(-0.207486 -0.20145 0.777816)
(-0.21863 -0.0271898 0.356774)
(-0.0942774 0.0992226 0.268524)
(0.0880804 0.181865 0.43188)
(-0.151676 -0.110194 1.51572)
(-0.216335 -0.0443147 0.942258)
(-0.275857 -0.0438312 0.362431)
(-0.208149 0.110274 0.191778)
(-0.135563 0.258645 0.138247)
(-0.233429 -0.0552655 1.462)
(-0.257683 0.0449864 0.895142)
(-0.260979 0.164055 0.342145)
(0.112342 0.00757846 1.1726)
(0.120412 -0.177503 1.32855)
(-0.0070402 0.0866043 1.21906)
(0.0652965 0.223776 1.21731)
(-0.0404209 -0.0221199 2.22981)
(-0.127564 0.0537338 1.1148)
(-0.115294 -0.168034 0.828371)
(-0.000461039 0.0390758 0.662875)
(-0.102643 0.337555 0.835269)
(0.214159 0.097149 1.56648)
(-0.0413131 -0.156618 1.46494)
(-0.0798407 -0.0031443 1.33881)
(-0.173143 -0.256824 0.787886)
(-0.23085 -0.0178038 0.35733)
(-0.166143 0.162741 0.222292)
(-0.0205384 0.374142 0.293068)
(-0.15582 -0.121415 1.58218)
(-0.153997 -0.00998152 0.873724)
(-0.29663 -0.0605189 0.328184)
(-0.231857 0.143757 0.138982)
(-0.171985 0.330723 0.111209)
(-0.213359 -0.034829 1.5233)
(-0.21047 0.0365362 0.904163)
(-0.264044 0.177691 0.306642)
(0.0857906 0.00893789 1.08952)
(0.079875 -0.140197 1.39053)
(-0.0801383 0.0833635 1.11085)
(-0.0251393 0.134415 1.19288)
(-0.0146606 0.0213786 2.27508)
(-0.0849059 0.035404 1.22343)
(-0.082961 -0.231748 0.909615)
(-0.0525107 0.0240843 0.731911)
(-0.248212 0.360011 0.720361)
(0.195609 0.124502 1.50709)
(-0.0418775 -0.169988 1.52172)
(-0.0555953 -0.0304836 1.4053)
(-0.173276 -0.271132 0.783521)
(-0.239426 -0.0740574 0.398262)
(-0.219005 0.194699 0.21155)
(-0.0852701 0.494516 0.20365)
(-0.16561 -0.124049 1.62806)
(-0.145146 -0.0477797 0.804)
(-0.303268 -0.148879 0.335271)
(-0.230641 0.132773 0.126229)
(-0.189056 0.359705 0.111627)
(-0.173045 -0.000349697 1.58132)
(-0.0831485 0.0275149 0.997346)
(-0.153235 0.059289 0.343519)
(-0.0215506 -0.0167262 1.1385)
(0.0779043 -0.110064 1.47817)
(-0.15068 -0.0103152 1.14669)
(-0.241074 -0.0312888 1.16092)
(-0.0859077 0.0555416 2.20369)
(-0.0367172 -0.00742573 1.35652)
(-0.0345239 -0.30659 0.976893)
(-0.0315448 -0.0312995 0.864876)
(-0.239213 0.341478 0.692385)
(-0.201743 0.31999 0.9665)
(-0.0441913 -0.188863 1.56754)
(-0.0602531 -0.067395 1.45443)
(-0.200756 -0.2875 0.776567)
(-0.23643 -0.146582 0.460491)
(-0.228312 0.208894 0.215151)
(-0.0910643 0.450583 0.171222)
(-0.180409 -0.118666 1.65644)
(-0.227969 -0.18393 0.754176)
(-0.330525 -0.227385 0.326257)
(-0.220903 0.131492 0.152418)
(-0.187137 0.355091 0.107989)
(-0.144945 0.0111213 1.61836)
(-0.00689195 -0.122358 0.939538)
(-0.180974 0.0403559 0.264318)
(-0.00581487 -0.0279019 1.38288)
(0.0957261 -0.112767 1.55672)
(-0.118272 -0.069685 1.31382)
(-0.234759 -0.0643275 1.20518)
(-0.3734 -0.0156592 1.87214)
(0.00989549 -0.0624187 1.4785)
(0.0396702 -0.363411 1.01493)
(0.0605125 -0.0981143 1.02341)
(-0.0458381 0.27547 0.726483)
(0.00478716 0.330796 0.439853)
(-0.0489666 -0.216969 1.61991)
(-0.0771403 -0.112233 1.4837)
(-0.213275 -0.318158 0.78246)
(-0.213955 -0.155146 0.506866)
(-0.226551 0.239413 0.204294)
(-0.0791426 0.428473 0.10702)
(-0.203241 -0.106077 1.67293)
(-0.312593 -0.310253 0.727101)
(-0.374321 -0.223632 0.282446)
(-0.241605 0.163233 0.169645)
(-0.186246 0.35236 0.0814265)
(-0.160452 -0.00906668 1.62648)
(-0.147344 -0.196211 0.699239)
(-0.266652 0.137669 0.231454)
(0.0674568 -0.00850047 1.55467)
(0.111904 -0.137221 1.61619)
(0.0230242 -0.0523299 1.51161)
(0.0573459 -0.118989 1.32306)
(0.00878299 0.13242 1.48506)
(0.0398585 -0.1109 1.56641)
(0.142518 -0.38675 1.02686)
(0.165264 -0.121399 1.1005)
(0.118807 0.287032 0.75391)
(0.156561 0.395203 0.290758)
(-0.0498978 -0.243038 1.68015)
(-0.104974 -0.152162 1.51237)
(-0.189312 -0.340671 0.788408)
(-0.144226 -0.114609 0.550243)
(-0.214784 0.312251 0.192617)
(-0.0647296 0.46669 0.0505279)
(-0.208241 -0.0981917 1.69543)
(-0.333821 -0.3882 0.702511)
(-0.404661 -0.169645 0.222262)
(-0.260042 0.231146 0.163552)
(-0.188161 0.359113 0.0515988)
(-0.213595 -0.0514499 1.598)
(-0.25553 -0.147786 0.483966)
(-0.327438 0.172802 0.19884)
(0.120473 -0.000474648 1.609)
(0.144221 -0.164663 1.66013)
(0.166018 -0.0481758 1.62473)
(0.235567 -0.154922 1.37366)
(0.262242 0.172248 1.35735)
(0.055842 -0.15302 1.62907)
(0.235871 -0.380891 1.00097)
(0.270095 -0.0972157 1.11062)
(0.192324 0.351153 0.751898)
(0.209193 0.483359 0.276839)
(-0.0443321 -0.236726 1.74433)
(-0.1101 -0.152359 1.5213)
(-0.121967 -0.379824 0.767651)
(-0.00200265 -0.00536054 0.603424)
(-0.181844 0.408222 0.214361)
(-0.0563039 0.501324 0.0383853)
(-0.200487 -0.0999821 1.73497)
(-0.293582 -0.419885 0.682609)
(-0.406477 -0.0837434 0.189313)
(-0.255334 0.323531 0.158742)
(-0.183238 0.365787 0.0354954)
(-0.261255 -0.130316 1.46311)
(-0.317766 -0.0876683 0.339971)
(-0.3698 0.207136 0.157783)
(0.201331 0.0171577 1.64889)
(0.182523 -0.18897 1.65655)
(0.308054 -0.0220995 1.63773)
(0.372065 -0.0801878 1.41607)
(0.333918 0.148944 1.33171)
(0.0610447 -0.174817 1.64894)
(0.277199 -0.342992 0.968206)
(0.346175 -0.0351819 1.10092)
(0.215151 0.444197 0.732149)
(0.220262 0.543416 0.297867)
(-0.044701 -0.235686 1.78673)
(-0.101964 -0.139697 1.50948)
(-0.0681786 -0.409698 0.721698)
(0.0907363 0.126466 0.630295)
(-0.141554 0.502797 0.27382)
(-0.0473958 0.50958 0.0815975)
(-0.178961 -0.118194 1.79866)
(-0.22797 -0.441913 0.646048)
(-0.368925 0.0208467 0.212915)
(-0.237733 0.397229 0.1812)
(-0.168526 0.359119 0.0549276)
(-0.321886 -0.161414 1.26571)
(-0.39382 -0.0176067 0.263462)
(-0.39454 0.232661 0.13155)
(0.310043 0.0150163 1.66972)
(0.206864 -0.208773 1.63986)
(0.377102 -0.0165801 1.60781)
(0.491392 0.0465166 1.45476)
(0.380633 0.18034 1.34627)
(0.0360878 -0.172839 1.63075)
(0.274669 -0.304422 0.946034)
(0.380821 0.0706912 1.08495)
(0.197827 0.554561 0.702507)
(0.207979 0.569508 0.335842)
(-0.0379838 -0.192859 1.84897)
(-0.0857545 -0.0762769 1.45526)
(-0.0378491 -0.404629 0.686341)
(0.114434 0.283904 0.650493)
(-0.104166 0.567529 0.362232)
(-0.0375269 0.481105 0.163614)
(-0.166011 -0.120486 1.85573)
(-0.175374 -0.438532 0.587198)
(-0.315146 0.119609 0.276938)
(-0.20157 0.436218 0.245805)
(-0.147502 0.334884 0.114649)
(-0.301615 -0.161341 0.906973)
(-0.433828 0.0533571 0.249555)
(-0.404206 0.249767 0.137644)
(0.39379 0.0203008 1.70675)
(0.195346 -0.206919 1.61923)
(0.389506 -0.0522394 1.53984)
(0.531297 0.156787 1.48706)
(0.392779 0.274701 1.35925)
(0.00766928 -0.0963305 1.57554)
(0.265115 -0.295416 0.938853)
(0.364691 0.248225 1.05298)
(0.158989 0.636824 0.690344)
(0.166312 0.535515 0.39606)
(-0.0197997 -0.131629 1.85652)
(0.0140669 -0.0342054 1.44445)
(-0.033012 -0.383414 0.659336)
(0.0937795 0.436967 0.676091)
(-0.060606 0.585428 0.468953)
(-0.0228681 0.422915 0.263013)
(-0.116105 -0.149304 1.94279)
(-0.125642 -0.39767 0.517762)
(-0.261768 0.201362 0.378997)
(-0.145954 0.45036 0.341711)
(-0.126379 0.292415 0.187848)
(-0.308618 -0.129573 0.722619)
(-0.432008 0.116794 0.268304)
(-0.399135 0.258339 0.175478)
(0.457327 0.0344744 1.68641)
(0.161592 -0.179065 1.56806)
(0.354805 -0.113612 1.48617)
(0.522876 0.25946 1.43162)
(0.369308 0.28456 1.35346)
(0.0443151 -0.0310948 1.45489)
(0.264869 -0.308066 0.961678)
(0.30202 0.471096 1.00937)
(0.138772 0.648079 0.716683)
(0.109266 0.427786 0.474406)
(-0.0295164 -0.0922125 1.80984)
(0.131189 -0.0280743 1.46891)
(-0.0163941 -0.360143 0.662648)
(0.0683133 0.535667 0.722306)
(-0.00469797 0.556928 0.580554)
(-0.00583399 0.345594 0.363569)
(-0.093656 -0.18771 1.97761)
(-0.117893 -0.342722 0.470456)
(-0.22195 0.262221 0.496008)
(-0.0921071 0.441924 0.45177)
(-0.108267 0.246699 0.264629)
(-0.208395 -0.25556 0.546018)
(-0.41858 0.154001 0.314535)
(-0.38176 0.257051 0.243752)
(0.436226 0.0412192 1.63383)
(0.154693 -0.171716 1.45559)
(0.325873 -0.0711591 1.41326)
(0.413414 0.286719 1.37524)
(0.332888 0.320109 1.13581)
(0.0757659 -0.109137 1.36633)
(0.267261 -0.266541 1.03041)
(0.254846 0.596858 0.994662)
(0.145467 0.580898 0.778097)
(0.0662933 0.291685 0.553754)
(0.00962902 -0.0123024 1.63764)
(0.111053 -0.166182 1.52924)
(0.0531472 -0.304002 0.705045)
(0.0791708 0.559055 0.793281)
(0.0612248 0.497428 0.685896)
(0.00923142 0.267475 0.455391)
(-0.00890547 -0.234928 1.97365)
(-0.137494 -0.293771 0.487486)
(-0.179441 0.301189 0.609748)
(-0.038269 0.418399 0.562953)
(-0.0896266 0.205633 0.346802)
(-0.198009 -0.251556 0.41191)
(-0.409097 0.164343 0.388033)
(-0.360385 0.248017 0.326486)
(0.163276 0.044791 1.53957)
(0.186834 -0.202489 1.41687)
(0.340984 -0.0218587 1.34302)
(0.198841 0.454128 1.26252)
(0.239024 0.301414 0.905692)
(0.0986986 -0.421101 1.36755)
(0.343159 -0.0959996 1.13664)
(0.258715 0.597508 1.01233)
(0.198223 0.485325 0.842525)
(0.0570391 0.181005 0.621479)
(-0.0295046 -0.319792 1.39548)
(0.0454728 -0.589585 1.48204)
(0.205686 -0.127423 0.759066)
(0.148387 0.533983 0.877745)
(0.125398 0.431143 0.776755)
(0.0170452 0.201414 0.542239)
(-0.0353118 -0.329211 1.7986)
(-0.149462 -0.219537 0.562164)
(-0.115485 0.340442 0.71722)