/*--------------------------------*- C++ -*----------------------------------*\
| =========                 |                                                 |
| \\      /  F ield         | OpenFOAM: The Open Source CFD Toolbox           |
|  \\    /   O peration     | Version:  5.x                                   |
|   \\  /    A nd           | Web:      www.OpenFOAM.org                      |
|    \\/     M anipulation  |                                                 |
\*---------------------------------------------------------------------------*/
FoamFile
{
    version     2.0;
    format      ascii;
    class       volVectorField;
    location    "6";
    object      Us;
}
// * * * * * * * * * * * * * * * * * * * * * * * * * * * * * * * * * * * * * //

dimensions      [0 1 -1 0 0 0 0];

internalField   nonuniform List<vector> 
10571
(
(0.0348332 0.039706 -0.0767946)
(0.00711608 0.0164017 -0.119822)
(0.0514025 0.139933 -0.0606671)
(0.0395619 0.129972 -0.0615401)
(0.0341819 0.0908823 -0.0686252)
(0.119776 0.0575357 -0.0701803)
(0.114307 0.213191 -0.0173319)
(-0.027531 0.219912 -0.101423)
(-0.0756688 0.109411 -0.119855)
(-0.012464 0.0239451 -0.115745)
(0.0376632 -0.0140856 -0.0975316)
(0.188372 0.0147346 -0.0428811)
(0.260961 0.00771792 0.087103)
(0.0404986 0.0764587 -0.016617)
(-0.163497 0.021401 -0.0510321)
(-0.0126768 -0.00931007 -0.118442)
(0.0606637 -0.0243706 -0.0475814)
(0.150923 -0.104744 0.0108519)
(0.00875174 -0.174229 0.028869)
(-0.114382 -0.105522 -0.0601733)
(0.00821352 -0.043138 -0.0863251)
(0.0758853 0.00824788 -0.0900402)
(0.212265 0.0131251 -0.0166228)
(0.00969025 -0.0491826 -0.019981)
(0.0136928 -0.00128364 -0.0268224)
(0.057684 -0.0505393 -0.131495)
(0.0655564 -0.00622877 -0.0284136)
(0.0492761 -0.0355643 0.0496909)
(0.00505455 -0.00286387 0.0142869)
(0.0536342 -0.0442422 -0.150549)
(0.0756535 0.125141 0.100602)
(-0.0184228 0.137176 0.149807)
(0.00227458 0.0834771 0.0629482)
(-0.0215131 0.00552879 0.0362541)
(0.00890075 -0.022771 -0.100423)
(0.0668034 -0.0152388 -0.0967132)
(0.19281 0.0250162 0.129324)
(0.0207269 0.0337437 0.209213)
(0.00165712 0.0144051 0.0367941)
(-0.015798 0.0299668 0.00588548)
(0.0317763 0.0169379 -0.0739978)
(0.104707 0.00410069 0.0248944)
(0.0679537 -0.104726 0.115521)
(0.0169438 -0.174822 -0.0289677)
(0.0225197 -0.0498142 -0.0984063)
(0.0514717 -0.0233134 -0.0212899)
(0.125467 -0.107163 0.0423116)
(0.132119 -0.114244 0.0189204)
(0.0160553 -0.061818 0.0902602)
(0.104533 -0.0989551 -0.131909)
(0.0999289 -0.124947 0.0655048)
(0.0908157 -0.237483 0.204668)
(0.0779204 -0.117658 0.0934159)
(0.0606164 -0.111177 -0.157351)
(0.0411236 0.00704431 0.23721)
(0.12076 0.0939118 0.268768)
(0.110137 0.0504667 0.130151)
(0.00816286 0.00601012 0.112141)
(0.00403042 -0.0316286 -0.15142)
(0.019661 -0.0353482 -0.125708)
(0.0832777 0.0614492 0.0640028)
(0.111543 0.117271 0.322336)
(0.130608 0.0322141 0.176354)
(0.0162659 0.0662261 0.0717648)
(0.0224984 0.00906631 -0.0861605)
(0.0703719 0.0387431 0.0120657)
(0.116518 -0.0142597 0.13877)
(0.141566 -0.115748 0.115088)
(0.0876224 -0.0699451 -0.172449)
(0.0380558 0.0121462 0.000181587)
(0.114947 -0.034211 0.078099)
(0.140071 -0.0811631 -0.00975965)
(0 0 0)
(0.160749 -0.137886 -0.313052)
(0.0781861 -0.264968 0.125517)
(0.0433559 -0.267398 0.117977)
(0.129607 -0.218332 -0.0184866)
(0.00739217 -0.155448 -0.128027)
(0.0236483 -0.0612855 0.155383)
(0.113754 -0.032863 0.161607)
(0.195393 -0.0247535 0.148072)
(0.0675094 -0.0296033 0.127886)
(0.00943903 -0.0537768 -0.205045)
(-0.00595188 -0.0626579 -0.142136)
(-0.00487634 0.032237 0.0275747)
(0.143756 0.1057 0.254676)
(0.28185 0.0689439 0.276585)
(0.260626 -0.0448752 0.0988443)
(0.00621887 -0.0156617 -0.110556)
(0.00729611 0.023474 -0.00357346)
(0.0973182 0.0428621 0.0997925)
(0.174076 0.0288315 0.198654)
(0.153029 -0.0838697 0.0210201)
(0.010226 0.0061604 -0.00522881)
(0.0653632 0.00978025 0.0658273)
(0.104376 -0.0385501 -0.0136176)
(0 0 0)
(0.15892 -0.148889 -0.653924)
(0 0 0)
(0 0 0)
(0 0 0)
(-0.0934146 -0.179489 -0.679209)
(-0.010532 -0.0858091 0.0972978)
(0.0506201 -0.0784715 0.0778548)
(0.198781 -0.0885497 0.0741208)
(0 0 0)
(-0.153452 -0.13898 -0.678985)
(-0.10295 -0.129023 -0.671532)
(-0.0531269 0.0199545 -0.0114786)
(0.0998997 0.0595107 0.178903)
(0.250443 0.0439323 0.194759)
(0.373784 -0.0537434 0.270358)
(-0.0277897 -0.0969589 -0.468567)
(-0.0492027 0.0306987 -0.00842511)
(0.0618168 0.0844519 0.0875153)
(0.184924 0.109729 0.133954)
(0.31447 0.0333036 0.212726)
(-0.0413422 -0.0100102 -0.0372145)
(0.0367236 0.0132452 0.0578683)
(0.128684 -0.0262722 0.0412179)
(0 0 0)
(0.163561 -0.147597 -0.607391)
(0 0 0)
(0 0 0)
(0 0 0)
(-0.035952 -0.184578 -0.630367)
(-0.0446881 -0.144869 -0.57322)
(0 0 0)
(0 0 0)
(0 0 0)
(-0.00954067 0.005863 -0.0028)
(0.121216 -0.121465 -0.499106)
(-0.111214 -0.1316 -0.623734)
(-0.0211013 -0.13338 -0.533787)
(0.0847625 0.0597975 0.163291)
(0 0 0)
(0 0 0)
(-0.00216983 0.000414608 -0.000616225)
(0.0168323 -0.118487 -0.449187)
(-0.054953 -0.0748957 -0.353132)
(0.0651431 0.0643738 0.0931423)
(0.0960508 -0.0292081 -0.402468)
(0 0 0)
(-0.0637304 -0.0414984 -0.303392)
(0.0490027 -0.0520549 -0.0892608)
(0.137084 -0.0858269 0.00252331)
(0 0 0)
(0.157891 -0.134492 -0.559479)
(0 0 0)
(0 0 0)
(0 0 0)
(0.118409 -0.154329 -0.595452)
(-0.0412131 -0.138151 -0.545276)
(0 0 0)
(0 0 0)
(0 0 0)
(0 0 0)
(0 0 0)
(-0.109702 -0.130873 -0.588827)
(-0.0382937 -0.12142 -0.539155)
(0.00428434 -0.0842787 -0.505657)
(0 0 0)
(0 0 0)
(0 0 0)
(-0.0535789 -0.100081 -0.380384)
(-0.0529674 -0.0794451 -0.210622)
(0.0440852 -0.0532855 -0.563128)
(0.105774 -0.056353 -0.561456)
(0 0 0)
(0 0 0)
(-0.0426168 -0.0265251 -0.273764)
(0 0 0)
(4.59403e-14 -3.28048e-14 -3.21575e-13)
(0 0 0)
(0.168567 -0.158437 -0.491752)
(0 0 0)
(0 0 0)
(0 0 0)
(0.181441 -0.0931993 -0.557368)
(-0.0443487 -0.147305 -0.505218)
(0 0 0)
(0 0 0)
(0 0 0)
(0 0 0)
(-0.131979 -0.141649 -0.574453)
(-5.3235e-14 -7.0792e-14 -3.08059e-13)
(-0.0403982 -0.122493 -0.493959)
(0 0 0)
(0 0 0)
(0 0 0)
(0 0 0)
(-0.0801159 -0.153755 -0.325517)
(-0.0984201 -0.00851288 -0.261903)
(0.067313 -0.0494339 -0.512661)
(0.0875942 -0.0647497 -0.520988)
(0 0 0)
(0 0 0)
(-0.0572964 -0.035829 -0.212474)
(0.00068182 -0.0204737 -0.450936)
(0.0769428 -0.0380771 -0.513356)
(0 0 0)
(0.123572 -0.181665 -0.492346)
(0 0 0)
(0 0 0)
(0 0 0)
(0.145699 -0.137967 -0.457841)
(0 0 0)
(0 0 0)
(0 0 0)
(0 0 0)
(0 0 0)
(0.0795668 -0.136732 -0.439986)
(-0.0820437 -0.128599 -0.543274)
(-0.0430967 -0.109323 -0.45767)
(0.00660891 -0.0777245 -0.418712)
(0 0 0)
(0 0 0)
(0 0 0)
(-0.0951219 -0.129908 -0.274778)
(-0.0453846 -0.0841619 -0.4281)
(0.0668341 -0.0384277 -0.492966)
(0 0 0)
(0 0 0)
(-0.0588012 -0.0290949 -0.157311)
(0 0 0)
(0.0697829 -0.0513757 -0.470576)
(0 0 0)
(0.130364 -0.173754 -0.419985)
(0 0 0)
(0 0 0)
(0 0 0)
(0 0 0)
(0 0 0)
(0 0 0)
(0 0 0)
(0 0 0)
(0 0 0)
(5.65473e-14 -8.38879e-14 -2.63693e-13)
(-0.0381582 -0.10483 -0.426298)
(0.00641985 -0.0809296 -0.355609)
(0 0 0)
(0 0 0)
(-0.0899306 -0.132495 -0.222191)
(-0.0397014 -0.0883889 -0.413999)
(0.035062 -0.0567054 -0.418547)
(0 0 0)
(0 0 0)
(0 0 0)
(0 0 0)
(0 0 0)
(0 0 0)
(0.104248 -0.205263 -0.403187)
(0 0 0)
(0 0 0)
(0 0 0)
(0.134265 -0.152548 -0.436591)
(0 0 0)
(0 0 0)
(0 0 0)
(0 0 0)
(-0.0423403 -0.226449 -0.252522)
(-0.0795872 -0.127441 -0.377406)
(-0.028299 -0.109594 -0.371569)
(-0.00208489 -0.0869321 -0.356723)
(0 0 0)
(0 0 0)
(-0.0771056 -0.107314 -0.244558)
(-0.0330082 -0.0865231 -0.355166)
(0.0196428 -0.0578108 -0.360398)
(0 0 0)
(0 0 0)
(0 0 0)
(0.0397206 -0.0441935 -0.333951)
(0.0525714 -0.0343846 -0.322528)
(0 0 0)
(0 0 0)
(0 0 0)
(0 0 0)
(0 0 0)
(0.10817 -0.157188 -0.408723)
(0 0 0)
(0 0 0)
(0 0 0)
(0 0 0)
(-0.126956 -0.139235 -0.400222)
(-0.0318262 -0.274964 -0.254435)
(0 0 0)
(0 0 0)
(0 0 0)
(0 0 0)
(-0.0990887 -0.106746 -0.2616)
(-0.0413431 -0.0657661 -0.25593)
(0.0110229 -0.0763448 -0.307781)
(0 0 0)
(0 0 0)
(0 0 0)
(0.00802271 -0.0142293 -0.29153)
(0 0 0)
(0 0 0)
(0 0 0)
(0 0 0)
(0 0 0)
(0 0 0)
(7.61576e-14 -1.00499e-13 -1.95697e-13)
(0 0 0)
(0 0 0)
(0 0 0)
(0 0 0)
(-0.00134615 -0.156325 -0.218653)
(0.019125 -0.220859 -0.280722)
(0 0 0)
(0 0 0)
(0 0 0)
(0 0 0)
(-0.101498 -0.0971684 -0.236507)
(-0.0303035 -0.0638234 -0.203266)
(0 0 0)
(0 0 0)
(0 0 0)
(-0.0462468 -0.0326903 -0.183358)
(2.55853e-14 -1.23511e-14 -1.16277e-13)
(0 0 0)
(0 0 0)
(0 0 0)
(0 0 0)
(0 0 0)
(0 0 0)
(0 0 0)
(0 0 0)
(0 0 0)
(0 0 0)
(0 0 0)
(0.0968904 -0.101127 -0.16513)
(0 0 0)
(0 0 0)
(0 0 0)
(0 0 0)
(0 0 0)
(-0.0663787 -0.10123 -0.185519)
(0 0 0)
(0 0 0)
(0 0 0)
(0 0 0)
(-0.113135 -0.0170395 -0.0754037)
(0.00482229 -0.0255062 -0.119173)
(0 0 0)
(0 0 0)
(0.215046 -0.170813 -0.207421)
(0 0 0)
(0 0 0)
(0 0 0)
(0 0 0)
(0 0 0)
(0 0 0)
(0 0 0)
(0 0 0)
(-0.00547489 -0.192826 -0.165092)
(0 0 0)
(0 0 0)
(0 0 0)
(0 0 0)
(0 0 0)
(-0.0398524 -0.0885801 -0.144861)
(0 0 0)
(0 0 0)
(0 0 0)
(0 0 0)
(-0.0421604 -0.0453025 0.0266014)
(0 0 0)
(0 0 0)
(0 0 0)
(0 0 0)
(0 0 0)
(0 0 0)
(0 0 0)
(0.111605 -0.190698 -0.227018)
(0 0 0)
(0 0 0)
(0 0 0)
(0 0 0)
(0.029694 -0.158073 -0.121297)
(0 0 0)
(0 0 0)
(0 0 0)
(0 0 0)
(0 0 0)
(-0.0670281 -0.122055 -0.0682688)
(0 0 0)
(0 0 0)
(0 0 0)
(0 0 0)
(0 0 0)
(0 0 0)
(0 0 0)
(0 0 0)
(0 0 0)
(0 0 0)
(0 0 0)
(0 0 0)
(0 0 0)
(0 0 0)
(0 0 0)
(0 0 0)
(0 0 0)
(-0.0671261 -0.236085 -0.0666502)
(0 0 0)
(0 0 0)
(0 0 0)
(0 0 0)
(0 0 0)
(0 0 0)
(0 0 0)
(0 0 0)
(0 0 0)
(0 0 0)
(0 0 0)
(0 0 0)
(0 0 0)
(0 0 0)
(0 0 0)
(0 0 0)
(0 0 0)
(0 0 0)
(0 0 0)
(0 0 0)
(0 0 0)
(0 0 0)
(0 0 0)
(-0.0346475 -0.203307 -0.0344993)
(0 0 0)
(0 0 0)
(0 0 0)
(0 0 0)
(0 0 0)
(0 0 0)
(0 0 0)
(0 0 0)
(0 0 0)
(0 0 0)
(0 0 0)
(0 0 0)
(0 0 0)
(0 0 0)
(0 0 0)
(0 0 0)
(0 0 0)
(0 0 0)
(0 0 0)
(0 0 0)
(0 0 0)
(0 0 0)
(0 0 0)
(0.0158504 -0.185957 -0.054602)
(0 0 0)
(0 0 0)
(0 0 0)
(0 0 0)
(0 0 0)
(0 0 0)
(0 0 0)
(0 0 0)
(0 0 0)
(0 0 0)
(0 0 0)
(0 0 0)
(0 0 0)
(0 0 0)
(0 0 0)
(0 0 0)
(0 0 0)
(0 0 0)
(0 0 0)
(0 0 0)
(0 0 0)
(0 0 0)
(0 0 0)
(0.00704818 -0.1712 -0.0184164)
(0 0 0)
(0 0 0)
(0 0 0)
(0 0 0)
(0 0 0)
(0 0 0)
(0 0 0)
(0 0 0)
(0 0 0)
(0 0 0)
(0 0 0)
(0 0 0)
(0 0 0)
(0 0 0)
(0 0 0)
(0 0 0)
(0 0 0)
(0 0 0)
(0 0 0)
(0 0 0)
(0 0 0)
(0 0 0)
(0 0 0)
(0 0 0)
(0 0 0)
(0 0 0)
(0 0 0)
(0 0 0)
(0 0 0)
(0 0 0)
(0 0 0)
(0 0 0)
(0 0 0)
(0 0 0)
(0 0 0)
(0 0 0)
(0 0 0)
(0 0 0)
(0 0 0)
(0 0 0)
(0 0 0)
(0 0 0)
(0 0 0)
(0 0 0)
(0 0 0)
(0 0 0)
(0 0 0)
(0 0 0)
(0 0 0)
(0 0 0)
(0 0 0)
(0 0 0)
(0 0 0)
(0 0 0)
(0 0 0)
(0 0 0)
(0 0 0)
(0 0 0)
(0 0 0)
(0 0 0)
(0 0 0)
(0 0 0)
(0 0 0)
(0 0 0)
(0 0 0)
(0 0 0)
(0 0 0)
(0 0 0)
(0 0 0)
(0 0 0)
(0 0 0)
(0 0 0)
(0 0 0)
(0 0 0)
(0 0 0)
(0 0 0)
(0 0 0)
(0 0 0)
(0 0 0)
(0 0 0)
(0 0 0)
(0 0 0)
(0 0 0)
(0 0 0)
(0 0 0)
(0 0 0)
(0 0 0)
(0 0 0)
(0 0 0)
(0 0 0)
(0 0 0)
(0 0 0)
(0 0 0)
(0 0 0)
(0 0 0)
(0 0 0)
(0 0 0)
(0 0 0)
(0 0 0)
(0 0 0)
(0 0 0)
(0 0 0)
(0 0 0)
(0 0 0)
(0 0 0)
(0 0 0)
(0 0 0)
(0 0 0)
(0 0 0)
(0 0 0)
(0 0 0)
(0 0 0)
(0 0 0)
(0 0 0)
(0 0 0)
(0 0 0)
(0 0 0)
(0 0 0)
(0 0 0)
(0 0 0)
(0 0 0)
(0 0 0)
(0 0 0)
(0 0 0)
(0 0 0)
(0 0 0)
(0 0 0)
(0 0 0)
(0 0 0)
(0 0 0)
(0 0 0)
(0 0 0)
(0 0 0)
(0 0 0)
(0 0 0)
(0 0 0)
(0 0 0)
(0 0 0)
(0 0 0)
(0 0 0)
(0 0 0)
(0 0 0)
(0 0 0)
(0 0 0)
(0 0 0)
(0 0 0)
(0 0 0)
(0 0 0)
(0 0 0)
(0 0 0)
(0 0 0)
(0 0 0)
(0 0 0)
(0 0 0)
(0 0 0)
(0 0 0)
(0 0 0)
(0 0 0)
(0 0 0)
(0 0 0)
(0 0 0)
(0 0 0)
(0 0 0)
(0 0 0)
(0 0 0)
(0 0 0)
(0 0 0)
(0 0 0)
(0 0 0)
(0 0 0)
(0 0 0)
(0 0 0)
(0 0 0)
(0 0 0)
(0 0 0)
(0 0 0)
(0 0 0)
(0 0 0)
(0 0 0)
(0 0 0)
(0 0 0)
(0 0 0)
(0 0 0)
(0 0 0)
(0 0 0)
(0 0 0)
(0 0 0)
(0 0 0)
(0 0 0)
(0 0 0)
(0 0 0)
(0 0 0)
(0 0 0)
(0 0 0)
(0 0 0)
(0 0 0)
(0 0 0)
(0 0 0)
(0 0 0)
(0 0 0)
(0 0 0)
(0 0 0)
(0 0 0)
(0 0 0)
(0 0 0)
(0 0 0)
(0 0 0)
(0 0 0)
(0 0 0)
(0 0 0)
(0 0 0)
(0 0 0)
(0 0 0)
(0 0 0)
(0 0 0)
(0 0 0)
(0 0 0)
(0 0 0)
(0 0 0)
(0 0 0)
(0 0 0)
(0 0 0)
(0 0 0)
(0 0 0)
(0 0 0)
(0 0 0)
(0 0 0)
(0 0 0)
(0 0 0)
(0 0 0)
(0 0 0)
(0 0 0)
(0 0 0)
(0 0 0)
(0 0 0)
(0 0 0)
(0 0 0)
(0 0 0)
(0 0 0)
(0 0 0)
(0 0 0)
(0 0 0)
(0 0 0)
(0 0 0)
(0 0 0)
(0 0 0)
(0 0 0)
(0 0 0)
(0 0 0)
(0 0 0)
(0 0 0)
(0 0 0)
(0 0 0)
(0 0 0)
(0 0 0)
(0 0 0)
(0 0 0)
(0 0 0)
(0 0 0)
(0 0 0)
(0 0 0)
(0 0 0)
(0 0 0)
(0 0 0)
(0 0 0)
(0 0 0)
(0 0 0)
(0 0 0)
(0 0 0)
(0 0 0)
(0 0 0)
(0 0 0)
(0 0 0)
(0 0 0)
(0 0 0)
(0 0 0)
(0 0 0)
(0 0 0)
(0 0 0)
(0 0 0)
(0 0 0)
(0 0 0)
(0 0 0)
(0 0 0)
(0 0 0)
(0 0 0)
(0 0 0)
(0 0 0)
(0 0 0)
(0 0 0)
(0 0 0)
(0 0 0)
(0 0 0)
(0 0 0)
(0 0 0)
(0 0 0)
(0 0 0)
(0 0 0)
(0 0 0)
(0 0 0)
(0 0 0)
(0 0 0)
(0 0 0)
(0 0 0)
(0 0 0)
(0 0 0)
(0 0 0)
(0 0 0)
(0 0 0)
(0 0 0)
(0 0 0)
(0 0 0)
(0 0 0)
(0 0 0)
(0 0 0)
(0 0 0)
(0 0 0)
(0 0 0)
(0 0 0)
(0 0 0)
(0 0 0)
(0 0 0)
(0 0 0)
(0 0 0)
(0 0 0)
(0 0 0)
(0 0 0)
(0 0 0)
(0 0 0)
(0 0 0)
(0 0 0)
(0 0 0)
(0 0 0)
(0 0 0)
(0 0 0)
(0 0 0)
(0 0 0)
(0 0 0)
(0 0 0)
(0 0 0)
(0 0 0)
(0 0 0)
(0 0 0)
(0 0 0)
(0 0 0)
(0 0 0)
(0 0 0)
(0 0 0)
(0 0 0)
(0 0 0)
(0 0 0)
(0 0 0)
(0 0 0)
(0 0 0)
(0 0 0)
(0 0 0)
(0 0 0)
(0 0 0)
(0 0 0)
(0 0 0)
(0 0 0)
(0 0 0)
(0 0 0)
(0 0 0)
(0 0 0)
(0 0 0)
(0 0 0)
(0 0 0)
(0 0 0)
(0 0 0)
(0 0 0)
(0 0 0)
(0 0 0)
(0 0 0)
(0 0 0)
(0 0 0)
(0 0 0)
(0 0 0)
(0 0 0)
(0 0 0)
(0 0 0)
(0 0 0)
(0 0 0)
(0 0 0)
(0 0 0)
(0 0 0)
(0 0 0)
(0 0 0)
(0 0 0)
(0 0 0)
(0 0 0)
(0 0 0)
(0 0 0)
(0 0 0)
(0 0 0)
(0 0 0)
(0 0 0)
(0 0 0)
(0 0 0)
(0 0 0)
(0 0 0)
(0 0 0)
(0 0 0)
(0 0 0)
(0 0 0)
(0 0 0)
(0 0 0)
(0 0 0)
(0 0 0)
(0 0 0)
(0 0 0)
(0 0 0)
(0 0 0)
(0 0 0)
(0 0 0)
(0 0 0)
(0 0 0)
(0 0 0)
(0 0 0)
(0 0 0)
(0 0 0)
(0 0 0)
(0 0 0)
(0 0 0)
(0 0 0)
(0 0 0)
(0 0 0)
(0 0 0)
(0 0 0)
(0 0 0)
(0 0 0)
(0 0 0)
(0 0 0)
(0 0 0)
(0 0 0)
(0 0 0)
(0 0 0)
(0 0 0)
(0 0 0)
(0 0 0)
(0 0 0)
(0 0 0)
(0 0 0)
(0 0 0)
(0 0 0)
(0 0 0)
(0 0 0)
(0 0 0)
(0 0 0)
(0 0 0)
(0 0 0)
(0 0 0)
(0 0 0)
(0 0 0)
(0 0 0)
(0 0 0)
(0 0 0)
(0 0 0)
(0 0 0)
(0 0 0)
(0 0 0)
(0 0 0)
(0 0 0)
(0 0 0)
(0 0 0)
(0 0 0)
(0 0 0)
(0 0 0)
(0 0 0)
(0 0 0)
(0 0 0)
(0 0 0)
(0 0 0)
(0 0 0)
(0 0 0)
(0 0 0)
(0 0 0)
(0 0 0)
(0 0 0)
(0 0 0)
(0 0 0)
(0 0 0)
(0 0 0)
(0 0 0)
(0 0 0)
(0 0 0)
(0 0 0)
(0 0 0)
(0 0 0)
(0 0 0)
(0 0 0)
(0 0 0)
(0 0 0)
(0 0 0)
(0 0 0)
(0 0 0)
(0 0 0)
(0 0 0)
(0 0 0)
(0 0 0)
(0 0 0)
(0 0 0)
(0 0 0)
(0 0 0)
(0 0 0)
(0 0 0)
(0 0 0)
(0 0 0)
(0 0 0)
(0 0 0)
(0 0 0)
(0 0 0)
(0 0 0)
(0 0 0)
(0 0 0)
(0 0 0)
(0 0 0)
(0 0 0)
(0 0 0)
(0 0 0)
(0 0 0)
(0 0 0)
(0 0 0)
(0 0 0)
(0 0 0)
(0 0 0)
(0 0 0)
(0 0 0)
(0 0 0)
(0 0 0)
(0 0 0)
(0 0 0)
(0 0 0)
(0 0 0)
(0 0 0)
(0 0 0)
(0 0 0)
(0 0 0)
(0 0 0)
(0 0 0)
(0 0 0)
(0 0 0)
(0 0 0)
(0 0 0)
(0 0 0)
(0 0 0)
(0 0 0)
(0 0 0)
(0 0 0)
(0 0 0)
(0 0 0)
(0 0 0)
(0 0 0)
(0 0 0)
(0 0 0)
(0 0 0)
(0 0 0)
(0 0 0)
(0 0 0)
(0 0 0)
(0 0 0)
(0 0 0)
(0 0 0)
(0 0 0)
(0 0 0)
(0 0 0)
(0 0 0)
(0 0 0)
(0 0 0)
(0 0 0)
(0 0 0)
(0 0 0)
(0 0 0)
(0 0 0)
(0 0 0)
(0 0 0)
(0 0 0)
(0 0 0)
(0 0 0)
(0 0 0)
(0 0 0)
(0 0 0)
(0 0 0)
(0 0 0)
(0 0 0)
(0 0 0)
(0 0 0)
(0 0 0)
(0 0 0)
(0 0 0)
(0 0 0)
(0 0 0)
(0 0 0)
(0 0 0)
(0 0 0)
(0 0 0)
(0 0 0)
(0 0 0)
(0 0 0)
(0 0 0)
(0 0 0)
(0 0 0)
(0 0 0)
(0 0 0)
(0 0 0)
(0 0 0)
(0 0 0)
(0 0 0)
(0 0 0)
(0 0 0)
(0 0 0)
(0 0 0)
(0 0 0)
(0 0 0)
(0 0 0)
(0 0 0)
(0 0 0)
(0 0 0)
(0 0 0)
(0 0 0)
(0 0 0)
(0 0 0)
(0 0 0)
(0 0 0)
(0 0 0)
(0 0 0)
(0 0 0)
(0 0 0)
(0 0 0)
(0 0 0)
(0 0 0)
(0 0 0)
(0 0 0)
(0 0 0)
(0 0 0)
(0 0 0)
(0 0 0)
(0 0 0)
(0 0 0)
(0 0 0)
(0 0 0)
(0 0 0)
(0 0 0)
(0 0 0)
(0 0 0)
(0 0 0)
(0 0 0)
(0 0 0)
(0 0 0)
(0 0 0)
(0 0 0)
(0 0 0)
(0 0 0)
(0 0 0)
(0 0 0)
(0 0 0)
(0 0 0)
(0 0 0)
(0 0 0)
(0 0 0)
(0 0 0)
(0 0 0)
(0 0 0)
(0 0 0)
(0 0 0)
(0 0 0)
(0 0 0)
(0 0 0)
(0 0 0)
(0 0 0)
(0 0 0)
(0 0 0)
(0 0 0)
(0 0 0)
(0 0 0)
(0 0 0)
(0 0 0)
(0 0 0)
(0 0 0)
(0 0 0)
(0 0 0)
(0 0 0)
(0 0 0)
(0 0 0)
(0 0 0)
(0 0 0)
(0 0 0)
(0 0 0)
(0 0 0)
(0 0 0)
(0 0 0)
(0 0 0)
(0 0 0)
(0 0 0)
(0 0 0)
(0 0 0)
(0 0 0)
(0 0 0)
(0 0 0)
(0 0 0)
(0 0 0)
(0 0 0)
(0 0 0)
(0 0 0)
(0 0 0)
(0 0 0)
(0 0 0)
(0 0 0)
(0 0 0)
(0 0 0)
(0 0 0)
(0 0 0)
(0 0 0)
(0 0 0)
(0 0 0)
(0 0 0)
(0 0 0)
(0 0 0)
(0 0 0)
(0 0 0)
(0 0 0)
(0 0 0)
(0 0 0)
(0 0 0)
(0 0 0)
(0 0 0)
(0 0 0)
(0 0 0)
(0 0 0)
(0 0 0)
(0 0 0)
(0 0 0)
(0 0 0)
(0 0 0)
(0 0 0)
(0 0 0)
(0 0 0)
(0 0 0)
(0 0 0)
(0 0 0)
(0 0 0)
(0 0 0)
(0 0 0)
(0 0 0)
(0 0 0)
(0 0 0)
(0 0 0)
(0 0 0)
(0 0 0)
(0 0 0)
(0 0 0)
(0 0 0)
(0 0 0)
(0 0 0)
(0 0 0)
(0 0 0)
(0 0 0)
(0 0 0)
(0 0 0)
(0 0 0)
(0 0 0)
(0 0 0)
(0 0 0)
(0 0 0)
(0 0 0)
(0 0 0)
(0 0 0)
(0 0 0)
(0 0 0)
(0 0 0)
(0 0 0)
(0 0 0)
(0 0 0)
(0 0 0)
(0 0 0)
(0 0 0)
(0 0 0)
(0 0 0)
(0 0 0)
(0 0 0)
(0 0 0)
(0 0 0)
(0 0 0)
(0 0 0)
(0 0 0)
(0 0 0)
(0 0 0)
(0 0 0)
(0 0 0)
(0 0 0)
(0 0 0)
(0 0 0)
(0 0 0)
(0 0 0)
(0 0 0)
(0 0 0)
(0 0 0)
(0 0 0)
(0 0 0)
(0 0 0)
(0 0 0)
(0 0 0)
(0 0 0)
(0 0 0)
(0 0 0)
(0 0 0)
(0 0 0)
(0 0 0)
(0 0 0)
(0 0 0)
(0 0 0)
(0 0 0)
(0 0 0)
(0 0 0)
(0 0 0)
(0 0 0)
(0 0 0)
(0 0 0)
(0 0 0)
(0 0 0)
(0 0 0)
(0 0 0)
(0 0 0)
(0 0 0)
(0 0 0)
(0 0 0)
(0 0 0)
(0 0 0)
(0 0 0)
(0 0 0)
(0 0 0)
(0 0 0)
(0 0 0)
(0 0 0)
(0 0 0)
(0 0 0)
(0 0 0)
(0 0 0)
(0 0 0)
(0 0 0)
(0 0 0)
(0 0 0)
(0 0 0)
(0 0 0)
(0 0 0)
(0 0 0)
(0 0 0)
(0 0 0)
(0 0 0)
(0 0 0)
(0 0 0)
(0 0 0)
(0 0 0)
(0 0 0)
(0 0 0)
(0 0 0)
(0 0 0)
(0 0 0)
(0 0 0)
(0 0 0)
(0 0 0)
(0 0 0)
(0 0 0)
(0 0 0)
(0 0 0)
(0 0 0)
(0 0 0)
(0 0 0)
(0 0 0)
(0 0 0)
(0 0 0)
(0 0 0)
(0 0 0)
(0 0 0)
(0 0 0)
(0 0 0)
(0 0 0)
(0 0 0)
(0 0 0)
(0 0 0)
(0 0 0)
(0 0 0)
(0 0 0)
(0 0 0)
(0 0 0)
(0 0 0)
(0 0 0)
(0 0 0)
(0 0 0)
(0 0 0)
(0 0 0)
(0 0 0)
(0 0 0)
(0 0 0)
(0 0 0)
(0 0 0)
(0 0 0)
(0 0 0)
(0 0 0)
(0 0 0)
(0 0 0)
(0 0 0)
(0 0 0)
(0 0 0)
(0 0 0)
(0 0 0)
(0 0 0)
(0 0 0)
(0 0 0)
(0 0 0)
(0 0 0)
(0 0 0)
(0 0 0)
(0 0 0)
(0 0 0)
(0 0 0)
(0 0 0)
(0 0 0)
(0 0 0)
(0 0 0)
(0 0 0)
(0 0 0)
(0 0 0)
(0 0 0)
(0 0 0)
(0 0 0)
(0 0 0)
(0 0 0)
(0 0 0)
(0 0 0)
(0 0 0)
(0 0 0)
(0 0 0)
(0 0 0)
(0 0 0)
(0 0 0)
(0 0 0)
(0 0 0)
(0 0 0)
(0 0 0)
(0 0 0)
(0 0 0)
(0 0 0)
(0 0 0)
(0 0 0)
(0 0 0)
(0 0 0)
(0 0 0)
(0 0 0)
(0 0 0)
(0 0 0)
(0 0 0)
(0 0 0)
(0 0 0)
(0 0 0)
(0 0 0)
(0 0 0)
(0 0 0)
(0 0 0)
(0 0 0)
(0 0 0)
(0 0 0)
(0 0 0)
(0 0 0)
(0 0 0)
(0 0 0)
(0 0 0)
(0 0 0)
(0 0 0)
(0 0 0)
(0 0 0)
(0 0 0)
(0 0 0)
(0 0 0)
(0 0 0)
(0 0 0)
(0 0 0)
(0 0 0)
(0 0 0)
(0 0 0)
(0 0 0)
(0 0 0)
(0 0 0)
(0 0 0)
(0 0 0)
(0 0 0)
(0 0 0)
(0 0 0)
(0 0 0)
(0 0 0)
(0 0 0)
(0 0 0)
(0 0 0)
(0 0 0)
(0 0 0)
(0 0 0)
(0 0 0)
(0 0 0)
(0 0 0)
(0 0 0)
(0 0 0)
(0 0 0)
(0 0 0)
(0 0 0)
(0 0 0)
(0 0 0)
(0 0 0)
(0 0 0)
(0 0 0)
(0 0 0)
(0 0 0)
(0 0 0)
(0 0 0)
(0 0 0)
(0 0 0)
(0 0 0)
(0 0 0)
(0 0 0)
(0 0 0)
(0 0 0)
(0 0 0)
(0 0 0)
(0 0 0)
(0 0 0)
(0 0 0)
(0 0 0)
(0 0 0)
(0 0 0)
(0 0 0)
(0 0 0)
(0 0 0)
(0 0 0)
(0 0 0)
(0 0 0)
(0 0 0)
(0 0 0)
(0 0 0)
(0 0 0)
(0 0 0)
(0 0 0)
(0 0 0)
(0 0 0)
(0 0 0)
(0 0 0)
(0 0 0)
(0 0 0)
(0 0 0)
(0 0 0)
(0 0 0)
(0 0 0)
(0 0 0)
(0 0 0)
(0 0 0)
(0 0 0)
(0 0 0)
(0 0 0)
(0 0 0)
(0 0 0)
(0 0 0)
(0 0 0)
(0 0 0)
(0 0 0)
(0 0 0)
(0 0 0)
(0 0 0)
(0 0 0)
(0 0 0)
(0 0 0)
(0 0 0)
(0 0 0)
(0 0 0)
(0 0 0)
(0 0 0)
(0 0 0)
(0 0 0)
(0 0 0)
(0 0 0)
(0 0 0)
(0 0 0)
(0 0 0)
(0 0 0)
(0 0 0)
(0 0 0)
(0 0 0)
(0 0 0)
(0 0 0)
(0 0 0)
(0 0 0)
(0 0 0)
(0 0 0)
(0 0 0)
(0 0 0)
(0 0 0)
(0 0 0)
(0 0 0)
(0 0 0)
(0 0 0)
(0 0 0)
(0 0 0)
(0 0 0)
(0 0 0)
(0 0 0)
(0 0 0)
(0 0 0)
(0 0 0)
(0 0 0)
(0 0 0)
(0 0 0)
(0 0 0)
(0 0 0)
(0 0 0)
(0 0 0)
(0 0 0)
(0 0 0)
(0 0 0)
(0 0 0)
(0 0 0)
(0 0 0)
(0 0 0)
(0 0 0)
(0 0 0)
(0 0 0)
(0 0 0)
(0 0 0)
(0 0 0)
(0 0 0)
(0 0 0)
(0 0 0)
(0 0 0)
(0 0 0)
(0 0 0)
(0 0 0)
(0 0 0)
(0 0 0)
(0 0 0)
(0 0 0)
(0 0 0)
(0 0 0)
(0 0 0)
(0 0 0)
(0 0 0)
(0 0 0)
(0 0 0)
(0 0 0)
(0 0 0)
(0 0 0)
(0 0 0)
(0 0 0)
(0 0 0)
(0 0 0)
(0 0 0)
(0 0 0)
(0 0 0)
(0 0 0)
(0 0 0)
(0 0 0)
(0 0 0)
(0 0 0)
(0 0 0)
(0 0 0)
(0 0 0)
(0 0 0)
(0 0 0)
(0 0 0)
(0 0 0)
(0 0 0)
(0 0 0)
(0 0 0)
(0 0 0)
(0 0 0)
(0 0 0)
(0 0 0)
(0 0 0)
(0 0 0)
(0 0 0)
(0 0 0)
(0 0 0)
(0 0 0)
(0 0 0)
(0 0 0)
(0 0 0)
(0 0 0)
(0 0 0)
(0 0 0)
(0 0 0)
(0 0 0)
(0 0 0)
(0 0 0)
(0 0 0)
(0 0 0)
(0 0 0)
(0 0 0)
(0 0 0)
(0 0 0)
(0 0 0)
(0 0 0)
(0 0 0)
(0 0 0)
(0 0 0)
(0 0 0)
(0 0 0)
(0 0 0)
(0 0 0)
(0 0 0)
(0 0 0)
(0 0 0)
(0 0 0)
(0 0 0)
(0 0 0)
(0 0 0)
(0 0 0)
(0 0 0)
(0 0 0)
(0 0 0)
(0 0 0)
(0 0 0)
(0 0 0)
(0 0 0)
(0 0 0)
(0 0 0)
(0 0 0)
(0 0 0)
(0 0 0)
(0 0 0)
(0 0 0)
(0 0 0)
(0 0 0)
(0 0 0)
(0 0 0)
(0 0 0)
(0 0 0)
(0 0 0)
(0 0 0)
(0 0 0)
(0 0 0)
(0 0 0)
(0 0 0)
(0 0 0)
(0 0 0)
(0 0 0)
(0 0 0)
(0 0 0)
(0 0 0)
(0 0 0)
(0 0 0)
(0 0 0)
(0 0 0)
(0 0 0)
(0 0 0)
(0 0 0)
(0 0 0)
(0 0 0)
(0 0 0)
(0 0 0)
(0 0 0)
(0 0 0)
(0 0 0)
(0 0 0)
(0 0 0)
(0 0 0)
(0 0 0)
(0 0 0)
(0 0 0)
(0 0 0)
(0 0 0)
(0 0 0)
(0 0 0)
(0 0 0)
(0 0 0)
(0 0 0)
(0 0 0)
(0 0 0)
(0 0 0)
(0 0 0)
(0 0 0)
(0 0 0)
(0 0 0)
(0 0 0)
(0 0 0)
(0 0 0)
(0 0 0)
(0 0 0)
(0 0 0)
(0 0 0)
(0 0 0)
(0 0 0)
(0 0 0)
(0 0 0)
(0 0 0)
(0 0 0)
(0 0 0)
(0 0 0)
(0 0 0)
(0 0 0)
(0 0 0)
(0 0 0)
(0 0 0)
(0 0 0)
(0 0 0)
(0 0 0)
(0 0 0)
(0 0 0)
(0 0 0)
(0 0 0)
(0 0 0)
(0 0 0)
(0 0 0)
(0 0 0)
(0 0 0)
(0 0 0)
(0 0 0)
(0 0 0)
(0 0 0)
(0 0 0)
(0 0 0)
(0 0 0)
(0 0 0)
(0 0 0)
(0 0 0)
(0 0 0)
(0 0 0)
(0 0 0)
(0 0 0)
(0 0 0)
(0 0 0)
(0 0 0)
(0 0 0)
(0 0 0)
(0 0 0)
(0 0 0)
(0 0 0)
(0 0 0)
(0 0 0)
(0 0 0)
(0 0 0)
(0 0 0)
(0 0 0)
(0 0 0)
(0 0 0)
(0 0 0)
(0 0 0)
(0 0 0)
(0.00861536 0.0112619 -0.0170746)
(0.00469339 -0.00156654 -0.00391517)
(-0.00803447 0.0412285 -0.0262414)
(0.00786185 0.0356859 -0.0280523)
(0.0147242 0.000991417 -0.00669138)
(0.0291635 0.0434267 -0.0226909)
(0.0238485 0.0418415 -0.0188478)
(0.011578 0.0273523 -0.0144)
(0.0415732 -0.00554199 -0.0219212)
(0.0230585 0.00994596 -0.0171824)
(0.0363038 0.0456451 -0.022244)
(0.0859002 0.0283343 -0.019227)
(0.103421 0.091357 -0.0237999)
(0.0213903 0.0941308 -0.0251655)
(0.024927 0.117609 -0.0284836)
(0.0614058 0.137668 -0.0181744)
(0.0379862 0.16504 -0.0156306)
(0.0228632 0.115921 -0.0225942)
(0.0107452 0.0979708 -0.0198146)
(0.0111947 0.159649 -0.0162954)
(-0.014387 0.143851 -0.0328583)
(0.0028129 0.0658228 -0.016019)
(-0.00152794 0.029692 -0.0133151)
(-0.0211552 0.100531 -0.0484533)
(-0.00845517 0.0526043 -0.0275827)
(-0.00265418 0.0338056 -0.0382259)
(0.0733174 0.00617905 -0.0294948)
(0.0171256 0.00345422 -0.0310939)
(0.0752183 0.0198421 -0.024009)
(0.167264 0.0438225 -0.0102313)
(0.165515 0.0984342 -0.011877)
(0.204034 0.0314676 -0.0122371)
(0.206799 0.035862 0.0151873)
(0.0946874 0.127494 0.00428498)
(0.0540508 0.149826 0.00728484)
(0.133743 0.0533 0.0286934)
(0.076056 0.101307 0.0146595)
(-0.0104543 0.171281 -0.0189584)
(-0.0477551 0.159922 -0.0534969)
(0.0180024 0.144457 -0.0103466)
(-0.069743 0.0985316 -0.00175084)
(-0.0559608 0.109014 -0.0654398)
(-0.0289569 0.0477771 -0.0415009)
(-0.0751839 0.0525489 -0.00173815)
(-0.0397802 0.024397 -0.00234262)
(-0.00499899 0.0165696 -0.0237713)
(-0.00322334 -0.00772524 -0.00794825)
(0.000549586 -0.00437395 0.000592073)
(0.0170027 0.00582156 -0.0306538)
(0.0591175 0.011182 -0.0196638)
(0.0553656 0.000705694 -0.0132726)
(0.18106 -0.00916964 -0.0119487)
(0.201512 -0.0259538 0.0220237)
(0.136343 -0.0479944 -0.00430576)
(0.14754 -0.0749419 0.015338)
(0.137717 0.000689324 0.0327223)
(0.099991 0.021842 0.0217777)
(0.0801983 -0.025277 0.0100207)
(0.0662159 -0.0236884 0.0221678)
(0.0475291 -0.000659519 0.0260467)
(-0.0571681 -0.0145193 0.0208229)
(0.0354517 -0.0709902 0.0185491)
(-0.0454754 -0.141628 0.032745)
(-0.113495 -0.0532147 -0.000354867)
(-0.0826256 -0.0577128 -0.0269817)
(-0.15601 -0.112612 -0.0248834)
(-0.0991226 -0.0904351 -0.0436877)
(-0.00626628 -0.0275624 -0.0425135)
(0.00578469 -0.0106032 -0.00553988)
(-0.0283268 -0.0371559 -0.0357024)
(0.0217901 -0.0127226 -0.0140582)
(0.0721105 -0.0474688 -0.0164254)
(0.0976461 -0.0976967 -0.0081118)
(0.0358181 -0.016198 -0.0205497)
(0.0663623 -0.0260248 -0.016828)
(0.0166066 -0.031909 -0.00243784)
(0.0185896 -0.0133471 -0.00283853)
(0.0684579 -0.0153544 -0.00950399)
(0.0197274 0.0217491 -0.00743585)
(0.0181952 -0.0884202 0.0058367)
(-0.0640403 -0.152195 0.00305559)
(0.0163148 -0.0269853 -0.00864416)
(-0.0337805 -0.0833176 -0.00497745)
(-0.136102 -0.0998746 -0.0278126)
(-0.0634348 -0.0606592 -0.0287057)
(-0.0583078 -0.0479153 -0.0124271)
(-0.0409048 -0.0237194 -0.0272541)
(-0.0110257 -0.0388357 -0.0296675)
(0.0406702 -7.68483e-05 -0.0218176)
(0.0635836 -0.00501904 -0.0160097)
(0.0498825 0.012123 -0.0121195)
(0.0235251 0.00861846 -0.00699523)
(0.0352506 -0.00687001 -0.00331684)
(0.0196721 -0.0222127 -0.00387267)
(0.0248486 -0.00209342 -0.00306575)
(-0.000386344 -0.0131506 -0.0082607)
(0.00193301 0.0320018 -0.0990074)
(0.0220402 0.0120456 -0.0897373)
(0.0186178 0.0354104 -0.0784953)
(0.0232175 0.0790737 -0.0931581)
(0.0289076 0.0633508 -0.0869759)
(0.00757645 0.0199351 -0.0672864)
(0.0280767 0.0365781 -0.0594784)
(0.0184882 0.0397882 -0.0779221)
(0.0420369 0.0708197 -0.0907677)
(0.0557111 0.0613213 -0.0924097)
(0.0275547 0.0223279 -0.0680342)
(0.031408 0.0375838 -0.0884665)
(0.0344585 0.0295491 -0.0810259)
(0.0529354 0.0498306 -0.0721412)
(0.0396979 0.0312721 -0.0789378)
(0.0338546 -0.0156791 -0.106053)
(0.0375077 -0.0513224 -0.156902)
(0.0322894 0.0665503 -0.0951127)
(0.059324 0.0368165 -0.100789)
(0.0878303 0.131008 -0.0634039)
(0.0300555 -0.013572 -0.143344)
(0.0417071 0.0287093 -0.103322)
(0.0593258 -0.00891856 -0.151205)
(0.0783205 0.079023 -0.0707683)
(0.0139414 0.0418511 -0.047288)
(-0.00903382 0.12706 -0.124236)
(-0.00142591 0.067556 -0.109738)
(0.039475 0.0714546 -0.0642544)
(0.037203 0.0475114 -0.0686023)
(0.0103993 0.11809 -0.0113781)
(0.0107019 0.0627809 -0.0457569)
(0.00360712 0.034318 -0.126114)
(0.00102482 0.00674021 -0.0642697)
(0.0671399 -0.0153387 -0.0887082)
(0.062308 -0.0229416 -0.0792623)
(0.109056 -0.00906848 -0.0784031)
(0.0524759 -0.0535965 -0.136009)
(0.0372354 -0.0358331 -0.103456)
(0.0801368 -0.0387987 -0.117434)
(0.00301277 0.00477897 -0.128677)
(-0.00161031 0.0114449 -0.0932202)
(-0.0384047 -0.00871584 -0.0419662)
(-0.007346 0.0259694 -0.0460702)
(-0.00323597 0.0363805 -0.0151434)
(0.080669 -0.0117343 -0.0832447)
(0.0764951 -0.00822109 -0.0588434)
(0.0152359 -0.0216751 -0.0998846)
(0.0603784 -0.0179838 -0.104413)
(0.0436749 -0.000541267 -0.0793612)
(-0.00107398 0.00613581 -0.0586111)
(-0.0219966 -0.027531 -0.0993056)
(-0.0297678 0.0257455 -0.0581685)
(-0.0200848 0.0256473 0.0147996)
(-0.00160753 -0.021851 -0.0784428)
(0.0356365 -0.00197287 -0.0536008)
(0.0296186 0.0137705 -0.0816602)
(0.124368 -0.052902 -0.0432416)
(0.0343133 -0.0019241 -0.0636389)
(0.0563924 0.00682316 -0.0675997)
(0.0428494 0.00714643 -0.0800383)
(0.099719 -0.0017533 -0.0656892)
(0.0213239 0.00944394 -0.0895871)
(0.0432161 0.0168128 -0.0938749)
(-0.0335231 -0.079335 -0.0907451)
(-0.0504371 -0.0756907 -0.0313864)
(-0.0106456 -0.0428326 -0.0934976)
(-0.0466169 -0.158231 -0.0573495)
(0.00459847 -0.111763 -0.138072)
(0.0398106 -0.142519 -0.037636)
(0.042469 -0.0888496 -0.151269)
(0.0231829 -0.0540567 -0.107096)
(0.0308266 0.00905058 -0.0948864)
(0.0224493 0.00573942 -0.108528)
(0.147446 0.0215248 -0.0721931)
(0.175035 0.0200036 -0.0513559)
(0.056601 0.00709568 -0.0887578)
(0.0918507 -0.00606457 -0.0711688)
(0.0969451 -0.00452151 -0.0489788)
(0.110681 -0.0637787 0.00341473)
(0.206773 -0.0035223 -0.0127878)
(0.150262 -0.0328129 -0.0225624)
(0.142913 -0.100779 0.0159042)
(0.13909 -0.0137767 -0.0230756)
(0.096793 -0.101198 -0.00353913)
(0.0576639 -0.0254451 -0.0624699)
(0.0790562 -0.0413178 -0.0477503)
(0.0200086 -0.00256441 -0.0244445)
(0.0528093 -0.00848797 -0.0308816)
(0.0401085 -0.0118843 -0.0239054)
(0.0241679 -0.00897665 0.00142359)
(0.072073 -0.0314249 -0.0112419)
(0.0524128 -0.0552238 0.0179825)
(0.0275853 -0.0155462 -0.0230341)
(0.0131188 -0.00282381 -0.0169741)
(0.0112187 -0.0109068 0.00115412)
(0.0317115 -0.0682271 0.0292887)
(0.0158503 -0.0400692 0.0200763)
(0.00463555 0.000186037 -0.0153709)
(0.00567579 -0.0142791 0.00143785)
(0.0429205 -0.0711688 -0.168144)
(0.0516338 -0.0880143 -0.181964)
(0.0722566 -0.0326449 -0.0864732)
(0.0643573 -0.0613327 -0.157253)
(0.0710053 -0.0220994 -0.0811686)
(0.0797129 -0.0778631 -0.12594)
(0.0949212 -0.0722574 -0.0734139)
(0.0780945 -0.0972745 -0.164014)
(0.0784971 -0.0897366 -0.0670315)
(0.00313999 0.00808537 0.0160003)
(-0.00971451 0.0820116 0.0549903)
(0.00386822 0.0382697 0.0367921)
(0.0134534 -0.0414653 0.0506414)
(-0.00194793 -0.00896085 0.0267926)
(0.0204657 -0.000742048 0.141334)
(0.00124762 -0.00183995 0.0869888)
(0.00425132 0.0154063 0.0263896)
(-0.00138625 0.00888407 0.0871758)
(0.0408654 -0.0726766 -0.160202)
(0.0228361 -0.042877 -0.121216)
(0.0476522 -0.0548951 -0.138061)
(0.0403511 -0.0830466 -0.183468)
(0.0100237 -0.0426295 -0.149262)
(0.0309933 -0.0616631 -0.164905)
(0.00949338 0.043158 0.0352301)
(0.00114803 0.0507652 0.0669653)
(0.0044662 0.0168797 0.103328)
(0.019737 0.0478947 0.0941666)
(0.0110299 0.0463038 0.0936464)
(0.0363947 -0.0220954 -0.107571)
(0.0247713 0.00194431 -0.0733098)
(0.00321197 -0.0282805 -0.119597)
(0.0187657 -0.0273353 -0.124457)
(0.0136434 -0.00134586 -0.0864039)
(-0.0183169 0.0303774 0.0589772)
(0.00110666 -0.0147051 -0.0358286)
(-0.00690204 0.0441957 0.0421479)
(-0.0104166 0.0427344 0.0586366)
(0.00673678 0.000187711 3.98508e-05)
(0.021935 0.0145369 -0.0696216)
(0.0125456 0.0121783 -0.0698105)
(0.0781201 0.0217697 -0.0513224)
(0.0202264 0.0179177 -0.0708313)
(0.065645 0.020959 -0.0547488)
(0.0253696 0.0160671 -0.0741165)
(0.0457201 0.0230043 -0.0522334)
(0.0218381 0.01773 -0.0605949)
(0.0391769 0.0181027 -0.0449508)
(0.0342393 -0.120795 -0.147295)
(0.092734 -0.171053 -0.020631)
(0.0718169 -0.108801 -0.186719)
(0.112179 -0.146456 0.0699737)
(0.0844775 -0.105592 -0.125542)
(0.159597 -0.163829 0.0145075)
(0.107962 -0.122665 -0.185114)
(0.0248233 -0.0408329 -0.0818243)
(0.0291588 0.00937941 -0.0570487)
(0.024682 0.0115428 -0.0375688)
(0.0789455 -0.0267081 -0.00276511)
(0.0623782 -0.00964947 0.00784763)
(0.0404343 0.0130827 -0.00438884)
(0.0682537 0.0147734 0.0226564)
(0.0476668 -0.000777165 0.0110833)
(0.149041 -0.154024 0.072424)
(0.0898732 -0.0266881 0.0374144)
(0.119183 -0.0716463 0.0706115)
(0.151016 -0.102758 0.0715443)
(0.0734827 -0.0261482 0.0511496)
(0.14762 -0.0934537 0.00953245)
(0.118761 -0.0709199 -0.0260759)
(0.182196 -0.133189 -0.0015821)
(0.0427255 -0.0479404 0.0797257)
(0.099525 -0.0784509 0.036587)
(0.0564308 -0.142418 0.093885)
(0.017752 -0.338249 0.168007)
(0.173571 -0.183972 0.0995501)
(0.0252191 -0.286162 0.144886)
(0.0380993 -0.189585 0.106287)
(0.0325208 -0.146683 0.0933775)
(0 0 0)
(0.0322509 -0.33976 0.106391)
(0.0423213 -0.281077 0.116639)
(0.0204352 -0.0777797 0.0707556)
(0.0202557 -0.173573 0.11233)
(0.0662942 -0.100034 -0.203874)
(0.0784343 -0.110825 -0.245993)
(0.126909 -0.109773 -0.0477454)