# Probe 0 (0 0 0.01)
#       Probe             0
#        Time
       0.0001       3165.84
       0.0002        6.4896
       0.0003        19.211
       0.0004       20.6412
       0.0005       22.2316
       0.0006       23.5469
       0.0007       24.4289
       0.0008       24.9264
       0.0009       25.1287
        0.001       25.0735
       0.0011       20.4962
       0.0012       18.4216
       0.0013       17.0139
       0.0014       15.9351
       0.0015       15.0302
       0.0016        14.268
       0.0017       13.6226
       0.0018       13.0673
       0.0019       12.5911
        0.002       12.1806
       0.0021       16.1528
       0.0022       15.9561
       0.0023       15.7747
       0.0024       15.6076
       0.0025       15.4446
       0.0026       15.3099
       0.0027       15.1903
       0.0028       15.0912
       0.0029        14.999
        0.003       14.9189
       0.0031       17.0534
       0.0032       16.9571
       0.0033       16.8913
       0.0034       16.8417
       0.0035       16.8039
       0.0036       16.7757
       0.0037       16.7562
       0.0038       16.7426
       0.0039       16.7345
        0.004        16.731
       0.0041       16.4576
       0.0042       16.5244
       0.0043       16.6119
       0.0044       16.6889
       0.0045       16.7599
       0.0046       16.8282
       0.0047       16.8967
       0.0048       16.9644
       0.0049       17.0314
        0.005       17.0994
       0.0051       16.6242
       0.0052       16.6802
       0.0053       16.7601
       0.0054       16.8355
       0.0055       16.9027
       0.0056       16.9772
       0.0057       17.0501
       0.0058       17.1142
       0.0059       17.1858
        0.006       17.2474
       0.0061       16.6666
       0.0062       16.7452
       0.0063       16.8773
       0.0064       17.0101
       0.0065       17.1417
       0.0066       17.2733
       0.0067       17.4078
       0.0068       17.5382
       0.0069       17.6664
        0.007       17.7971
       0.0071       16.9696
       0.0072       17.0581
       0.0073        17.209
       0.0074       17.3616
       0.0075       17.5085
       0.0076       17.6603
       0.0077       17.8108
       0.0078       17.9548
       0.0079       18.1022
        0.008       18.2471
       0.0081       17.3716
       0.0082        17.494
       0.0083       17.6631
       0.0084       17.8402
       0.0085        18.019
       0.0086       18.2001
       0.0087       18.3799
       0.0088       18.5598
       0.0089       18.7433
        0.009       18.9252
       0.0091       18.3729
       0.0092       18.5456
       0.0093       18.7782
       0.0094       19.0122
       0.0095       19.2547
       0.0096       19.5032
       0.0097       19.7491
       0.0098       19.9952
       0.0099       20.2284
         0.01        20.474
       0.0101       20.3858
       0.0102       20.6459
       0.0103       20.9352
       0.0104       21.2248
       0.0105       21.5127
       0.0106       21.8022
       0.0107       22.0914
       0.0108       22.3772
       0.0109       22.6607
        0.011       22.9406
       0.0111       22.7011
       0.0112       23.0873
       0.0113       23.4676
       0.0114       23.8481
       0.0115       24.2281
       0.0116       24.6042
       0.0117       24.9803
       0.0118       25.3504
       0.0119       25.7177
        0.012       26.0835
       0.0121        26.461
       0.0122        26.947
       0.0123       27.4272
       0.0124       27.9082
       0.0125       28.3831
       0.0126       28.8553
       0.0127       29.3318
       0.0128       29.8054
       0.0129       30.2817
        0.013       30.7518
       0.0131       32.1634
       0.0132       33.2472
       0.0133       34.3509
       0.0134       35.4764
       0.0135       36.6063
       0.0136       37.7406
       0.0137       38.8752
       0.0138       40.0084
       0.0139       41.1396
        0.014       42.2692
       0.0141       43.0939
       0.0142       43.9547
       0.0143       44.7633
       0.0144         45.55
       0.0145       46.3319
       0.0146       47.1131
       0.0147       47.8948
       0.0148       48.6821
       0.0149       49.4889
        0.015       50.2839
       0.0151        51.661
       0.0152       52.8437
       0.0153       54.0206
       0.0154       55.2048
       0.0155       56.4041
       0.0156       57.6256
       0.0157       58.8756
       0.0158       60.1524
       0.0159       61.4561
        0.016       62.7946
       0.0161        65.265
       0.0162       67.1625
       0.0163       69.0644
       0.0164       71.0124
       0.0165       73.0102
       0.0166       75.0504
       0.0167       77.1398
       0.0168         79.29
       0.0169       81.4929
        0.017        83.754
       0.0171       87.0545
       0.0172       90.3631
       0.0173        93.666
       0.0174       97.0434
       0.0175       100.486
       0.0176       103.997
       0.0177       107.573
       0.0178       111.217
       0.0179       114.921
        0.018       118.686
       0.0181       122.443
       0.0182       126.457
       0.0183       130.499
       0.0184       134.588
       0.0185       138.735
       0.0186       142.979
       0.0187       147.263
       0.0188       151.532
       0.0189       155.864
        0.019       160.193
       0.0191       164.276
       0.0192        168.23
       0.0193       172.154
       0.0194       175.883
       0.0195       179.778
       0.0196       183.629
       0.0197       187.467
       0.0198       191.297
       0.0199       195.083
         0.02       198.844
       0.0201       203.023
       0.0202       206.927
       0.0203       210.755
       0.0204       214.503
       0.0205       218.153
       0.0206       221.747
       0.0207       225.278
       0.0208       228.729
       0.0209       232.121
        0.021       235.467
       0.0211       238.545
       0.0212       241.736
       0.0213       244.876
       0.0214       247.952
       0.0215       250.967
       0.0216       253.912
       0.0217       256.802
       0.0218       259.651
       0.0219       262.458
        0.022       265.213
       0.0221       267.163
       0.0222       269.297
       0.0223       271.413
       0.0224       273.515
       0.0225        275.58
       0.0226       277.639
       0.0227       279.693
       0.0228       281.741
       0.0229       283.801
        0.023       285.863
       0.0231        286.07
       0.0232       286.755
       0.0233        287.49
       0.0234       288.254
       0.0235       289.032
       0.0236       289.829
       0.0237       290.641
       0.0238       291.473
       0.0239       292.322
        0.024       293.193
       0.0241       291.642
       0.0242       290.355
       0.0243       289.081
       0.0244       287.829
       0.0245       286.568
       0.0246       285.319
       0.0247       284.072
       0.0248       282.837
       0.0249       281.618
        0.025       280.404
       0.0251       277.102
       0.0252       274.049
       0.0253       271.018
       0.0254       268.011
       0.0255       265.026
       0.0256        262.08
       0.0257       259.165
       0.0258       256.271
       0.0259       253.408
        0.026       250.581
       0.0261       247.104
       0.0262       243.733
       0.0263       240.386
       0.0264       237.116
       0.0265       233.873
       0.0266       230.706
       0.0267       227.587
       0.0268       224.533
       0.0269       221.536
        0.027       218.592
       0.0271        215.79
       0.0272       213.201
       0.0273         210.7
       0.0274       208.275
       0.0275       205.932
       0.0276        203.66
       0.0277       201.472
       0.0278       199.353
       0.0279       197.318
        0.028       195.356
       0.0281       193.514
       0.0282       191.794
       0.0283       190.171
       0.0284       188.637
       0.0285       187.192
       0.0286       185.839
       0.0287       184.571
       0.0288       183.395
       0.0289       182.315
        0.029       181.326
       0.0291       180.507
       0.0292        179.88
       0.0293       179.332
       0.0294       178.857
       0.0295       178.466
       0.0296       178.156
       0.0297       177.927
       0.0298       177.785
       0.0299       177.723
         0.03       177.749
       0.0301       177.779
       0.0302       177.959
       0.0303       178.219
       0.0304        178.55
       0.0305       178.943
       0.0306       179.398
       0.0307       179.931
       0.0308       180.524
       0.0309       181.179
        0.031         181.9
       0.0311       182.351
       0.0312       182.924
       0.0313        183.53
       0.0314       184.187
       0.0315       184.886
       0.0316       185.627
       0.0317       186.403
       0.0318        187.23
       0.0319        188.09
        0.032       189.001
       0.0321       189.771
       0.0322       190.665
       0.0323       191.594
       0.0324       192.552
       0.0325       193.526
       0.0326       194.535
       0.0327       195.565
       0.0328       196.624
       0.0329       197.715
        0.033       198.847
       0.0331       199.908
       0.0332       201.156
       0.0333       202.451
       0.0334       203.778
       0.0335       205.106
       0.0336       206.468
       0.0337       207.863
       0.0338       209.289
       0.0339       210.773
        0.034       212.297
       0.0341       213.191
       0.0342       214.374
       0.0343       215.581
       0.0344       216.823
       0.0345       218.083
       0.0346       219.375
       0.0347       220.684
       0.0348        222.03
       0.0349       223.432
        0.035        224.87
       0.0351       224.854
       0.0352       225.081
       0.0353       225.337
       0.0354       225.608
       0.0355       225.878
       0.0356       226.177
       0.0357       226.477
       0.0358       226.806
       0.0359       227.143
        0.036       227.503
       0.0361       225.772
       0.0362       224.377
       0.0363       223.044
       0.0364       221.732
       0.0365       220.454
       0.0366       219.204
       0.0367        217.97
       0.0368        216.77
       0.0369       215.575
        0.037       214.409
       0.0371       212.041
       0.0372       209.823
       0.0373       207.654
       0.0374       205.537
       0.0375       203.457
       0.0376       201.421
       0.0377       199.432
       0.0378       197.475
       0.0379       195.563
        0.038       193.695
       0.0381       191.549
       0.0382       189.591
       0.0383       187.653
       0.0384       185.779
       0.0385       183.948
       0.0386       182.174
       0.0387       180.451
       0.0388        178.79
       0.0389       177.183
        0.039       175.624
       0.0391       173.661
       0.0392       171.936
       0.0393         170.3
       0.0394       168.741
       0.0395       167.267
       0.0396       165.869
       0.0397       164.553
       0.0398       163.305
       0.0399       162.136
         0.04       161.049
       0.0401       159.813
       0.0402       158.746
       0.0403       157.759
       0.0404       156.855
       0.0405       156.008
       0.0406       155.238
       0.0407       154.542
       0.0408       153.932
       0.0409       153.387
        0.041       152.925
       0.0411       152.153
       0.0412       151.595
       0.0413       151.099
       0.0414       150.663
       0.0415       150.286
       0.0416       149.973
       0.0417       149.728
       0.0418       149.557
       0.0419       149.454
        0.042       149.421
       0.0421       149.081
       0.0422       148.954
       0.0423       148.899
       0.0424       148.927
       0.0425       149.014
       0.0426       149.166
       0.0427       149.384
       0.0428       149.662
       0.0429       150.002
        0.043       150.399
       0.0431       150.694
       0.0432       151.178
       0.0433       151.699
       0.0434       152.262
       0.0435       152.885
       0.0436       153.556
       0.0437       154.276
       0.0438       155.059
       0.0439       155.892
        0.044        156.77
       0.0441       157.321
       0.0442       158.102
       0.0443       158.937
       0.0444        159.83
       0.0445       160.765
       0.0446       161.743
       0.0447       162.768
       0.0448        163.84
       0.0449       164.971
        0.045       166.163
       0.0451       166.799
       0.0452       167.659
       0.0453        168.55
       0.0454       169.473
       0.0455       170.428
       0.0456       171.417
       0.0457       172.443
       0.0458       173.508
       0.0459       174.622
        0.046       175.781
       0.0461       175.579
       0.0462       175.649
       0.0463       175.747
       0.0464       175.864
       0.0465       175.994
       0.0466        176.14
       0.0467       176.318
       0.0468       176.509
       0.0469       176.728
        0.047       176.986
       0.0471       176.045
       0.0472       175.304
       0.0473       174.602
       0.0474       173.917
       0.0475       173.253
       0.0476       172.608
       0.0477       171.984
       0.0478       171.384
       0.0479       170.812
        0.048       170.262
       0.0481       168.751
       0.0482       167.474
       0.0483       166.249
       0.0484       165.061
       0.0485       163.916
       0.0486       162.821
       0.0487       161.774
       0.0488       160.754
       0.0489       159.781
        0.049       158.848
       0.0491       157.323
       0.0492       155.864
       0.0493       154.486
       0.0494       153.175
       0.0495       151.931
       0.0496       150.747
       0.0497       149.633
       0.0498       148.589
       0.0499       147.609
         0.05       146.705
       0.0501        145.08
       0.0502       143.757
       0.0503       142.512
       0.0504       141.364
       0.0505       140.276
       0.0506       139.274
       0.0507       138.352
       0.0508       137.507
       0.0509       136.729
        0.051       136.024
       0.0511       134.833
       0.0512       133.823
       0.0513       132.878
       0.0514       131.998
       0.0515       131.181
       0.0516       130.432
       0.0517       129.745
       0.0518       129.121
       0.0519       128.561
        0.052       128.059
       0.0521       127.326
       0.0522       126.685
       0.0523       126.072
       0.0524       125.528
       0.0525       125.039
       0.0526       124.601
       0.0527       124.212
       0.0528       123.872
       0.0529       123.581
        0.053        123.34
       0.0531       123.157
       0.0532       122.937
       0.0533        122.76
       0.0534       122.629
       0.0535       122.533
       0.0536       122.482
       0.0537       122.477
       0.0538       122.515
       0.0539       122.605
        0.054       122.739
       0.0541       122.481
       0.0542       122.473
       0.0543       122.523
       0.0544       122.636
       0.0545       122.807
       0.0546       123.036
       0.0547       123.329
       0.0548       123.684
       0.0549       124.117
        0.055       124.617
       0.0551       124.734
       0.0552       125.116
       0.0553       125.579
       0.0554         126.1
       0.0555       126.694
       0.0556       127.359
       0.0557       128.101
       0.0558       128.915
       0.0559       129.805
        0.056       130.768
       0.0561        131.21
       0.0562       131.816
       0.0563       132.458
       0.0564       133.127
       0.0565       133.823
       0.0566       134.547
       0.0567         135.3
       0.0568       136.081
       0.0569       136.893
        0.057       137.727
       0.0571       138.042
       0.0572       138.098
       0.0573       138.173
       0.0574       138.252
       0.0575       138.345
       0.0576       138.437
       0.0577       138.538
       0.0578       138.647
       0.0579       138.764
        0.058       138.889
       0.0581       137.647
       0.0582       136.993
       0.0583        136.35
       0.0584        135.72
       0.0585       135.102
       0.0586       134.499
       0.0587       133.911
       0.0588       133.347
       0.0589       132.806
        0.059       132.292
       0.0591       130.634
       0.0592       129.415
       0.0593        128.26
       0.0594       127.169
       0.0595       126.145
       0.0596        125.18
       0.0597       124.283
       0.0598       123.455
       0.0599       122.689
         0.06       121.995
       0.0601       120.742
       0.0602       119.803
       0.0603       118.954
       0.0604       118.182
       0.0605       117.479
       0.0606       116.852
       0.0607       116.285
       0.0608       115.786
       0.0609       115.356
        0.061       114.976
       0.0611       113.793
       0.0612       112.974
       0.0613       112.204
       0.0614       111.492
       0.0615       110.807
       0.0616       110.164
       0.0617       109.557
       0.0618       108.992
       0.0619       108.455
        0.062       107.948
       0.0621       107.018
       0.0622       106.147
       0.0623        105.32
       0.0624       104.526
       0.0625       103.762
       0.0626       103.028
       0.0627       102.319
       0.0628       101.633
       0.0629       100.969
        0.063       100.328
       0.0631       99.3931
       0.0632       98.5294
       0.0633       97.6995
       0.0634       96.9006
       0.0635       96.1323
       0.0636        95.393
       0.0637       94.6799
       0.0638       93.9939
       0.0639       93.3354
        0.064       92.7038
       0.0641       91.8275
       0.0642       91.1249
       0.0643       90.4911
       0.0644       89.9209
       0.0645       89.4107
       0.0646       88.9581
       0.0647       88.5628
       0.0648        88.229
       0.0649       87.9561
        0.065       87.7425
       0.0651       87.3917
       0.0652       87.2778
       0.0653       87.2277
       0.0654       87.2286
       0.0655       87.2794
       0.0656       87.3766
       0.0657       87.5144
       0.0658       87.6961
       0.0659       87.9252
        0.066       88.1962
       0.0661       88.2039
       0.0662       88.3057
       0.0663       88.4363
       0.0664       88.5864
       0.0665       88.7499
       0.0666       88.9286
       0.0667       89.1219
       0.0668       89.3256
       0.0669        89.543
        0.067       89.7687
       0.0671       89.5008
       0.0672       89.3036
       0.0673       89.1137
       0.0674       88.9304
       0.0675        88.758
       0.0676       88.5907
       0.0677       88.4255
       0.0678       88.2639
       0.0679       88.0974
        0.068       87.9349
       0.0681       87.2416
       0.0682       86.7349
       0.0683       86.2437
       0.0684       85.7625
       0.0685       85.2951
       0.0686       84.8359
       0.0687       84.3873
       0.0688       83.9511
       0.0689       83.5252
        0.069       83.1161
       0.0691       82.2787
       0.0692        81.676
       0.0693       81.1149
       0.0694       80.5897
       0.0695       80.1005
       0.0696       79.6502
       0.0697       79.2359
       0.0698       78.8583
       0.0699        78.518
         0.07        78.214
       0.0701       77.7249
       0.0702       77.3835
       0.0703       77.0834
       0.0704       76.8154
       0.0705       76.5705
       0.0706       76.3508
       0.0707        76.148
       0.0708       75.9584
       0.0709       75.7852
        0.071       75.6247
       0.0711       75.1825
       0.0712       74.7843
       0.0713       74.3947
       0.0714       74.0257
       0.0715       73.6663
       0.0716       73.3144
       0.0717       72.9657
       0.0718       72.6197
       0.0719       72.2761
        0.072       71.9351
       0.0721       71.3602
       0.0722       70.7324
       0.0723       70.1357
       0.0724       69.5666
       0.0725       69.0199
       0.0726       68.4874
       0.0727        67.966
       0.0728        67.452
       0.0729       66.9468
        0.073       66.4481
       0.0731       65.5564
       0.0732       64.8375
       0.0733       64.1491
       0.0734       63.4851
       0.0735       62.8429
       0.0736       62.2198
       0.0737       61.6174
       0.0738        61.035
       0.0739       60.4697
        0.074       59.9219
       0.0741       59.3007
       0.0742       58.8074
       0.0743       58.3603
       0.0744       57.9492
       0.0745       57.5655
       0.0746       57.2109
       0.0747       56.8855
       0.0748       56.5866
       0.0749        56.315
        0.075       56.0687
       0.0751       55.9032
       0.0752       55.8083
       0.0753       55.7466
       0.0754       55.7048
       0.0755       55.6837
       0.0756       55.6804
       0.0757       55.6932
       0.0758       55.7205
       0.0759       55.7591
        0.076       55.8118
       0.0761       55.7854
       0.0762       55.7839
       0.0763       55.7911
       0.0764       55.8026
       0.0765       55.8185
       0.0766       55.8409
       0.0767       55.8617
       0.0768       55.8819
       0.0769       55.9005
        0.077       55.9172
       0.0771       55.5797
       0.0772       55.3825
       0.0773       55.1951
       0.0774       55.0101
       0.0775       54.8257
       0.0776       54.6438
       0.0777       54.4621
       0.0778       54.2776
       0.0779        54.094
        0.078       53.9066
       0.0781       53.4407
       0.0782       53.0181
       0.0783       52.6111
       0.0784       52.2144
       0.0785        51.827
       0.0786        51.446
       0.0787       51.0732
       0.0788       50.7064
       0.0789       50.3438
        0.079       49.9878
       0.0791       49.6557
       0.0792       49.3873
       0.0793       49.1315
       0.0794       48.8887
       0.0795       48.6606
       0.0796       48.4467
       0.0797       48.2423
       0.0798       48.0528
       0.0799       47.8751
         0.08       47.7079
       0.0801       47.3955
       0.0802       47.3134
       0.0803       47.2634
       0.0804       47.2259
       0.0805       47.2047
       0.0806       47.1933
       0.0807       47.1871
       0.0808       47.1878
       0.0809       47.1925
        0.081       47.1999
       0.0811       47.1703
       0.0812       47.1649
       0.0813       47.1564
       0.0814       47.1408
       0.0815        47.119
       0.0816       47.0907
       0.0817       47.0551
       0.0818       47.0105
       0.0819       46.9564
        0.082       46.8908
       0.0821       46.6545
       0.0822       46.4491
       0.0823       46.2507
       0.0824       46.0618
       0.0825       45.8739
       0.0826       45.6877
       0.0827       45.5006
       0.0828        45.311
       0.0829       45.1193
        0.083       44.9218
       0.0831       44.5272
       0.0832       44.1809
       0.0833       43.8497
       0.0834       43.5303
       0.0835       43.2189
       0.0836       42.9139
       0.0837       42.6134
       0.0838        42.315
       0.0839       42.0199
        0.084       41.7291
       0.0841        41.374
       0.0842       41.1028
       0.0843       40.8543
       0.0844       40.6175
       0.0845       40.3933
       0.0846       40.1823
       0.0847       39.9816
       0.0848       39.7889
       0.0849       39.6075
        0.085       39.4336
       0.0851       39.4255
       0.0852       39.3641
       0.0853       39.3107
       0.0854        39.277
       0.0855        39.251
       0.0856       39.2386
       0.0857       39.2334
       0.0858       39.2404
       0.0859       39.2536
        0.086       39.2724
       0.0861       39.1172
       0.0862       39.1936
       0.0863       39.2894
       0.0864       39.3865
       0.0865       39.4871
       0.0866       39.5896
       0.0867       39.6883
       0.0868       39.7844
       0.0869       39.8779
        0.087       39.9638
       0.0871       39.9955
       0.0872       40.0161
       0.0873       40.0388
       0.0874       40.0614
       0.0875       40.0804
       0.0876       40.0953
       0.0877       40.1032
       0.0878       40.1029
       0.0879       40.1009
        0.088       40.0876
       0.0881        39.944
       0.0882       39.8208
       0.0883       39.6978
       0.0884       39.5763
       0.0885       39.4548
       0.0886       39.3318
       0.0887       39.2065
       0.0888       39.0791
       0.0889       38.9494
        0.089       38.8163
       0.0891       38.7061
       0.0892       38.5048
       0.0893        38.307
       0.0894       38.1117
       0.0895       37.9202
       0.0896       37.7282
       0.0897       37.5393
       0.0898       37.3485
       0.0899       37.1617
         0.09       36.9661
       0.0901       36.8906
       0.0902       36.7342
       0.0903        36.582
       0.0904       36.4366
       0.0905       36.2975
       0.0906       36.1651
       0.0907       36.0364
       0.0908       35.9135
       0.0909       35.7939
        0.091       35.6781
       0.0911       35.6082
       0.0912       35.5995
       0.0913       35.5981
       0.0914       35.6033
       0.0915       35.6138
       0.0916       35.6296
       0.0917       35.6476
       0.0918       35.6683
       0.0919       35.6867
        0.092       35.7062
       0.0921       35.6452
       0.0922       35.7162
       0.0923       35.7942
       0.0924       35.8693
       0.0925         35.94
       0.0926       36.0062
       0.0927       36.0628
       0.0928       36.1153
       0.0929       36.1578
        0.093        36.193
       0.0931       36.0947
       0.0932       36.0951
       0.0933       36.0977
       0.0934        36.094
       0.0935       36.0873
       0.0936       36.0755
       0.0937       36.0607
       0.0938       36.0372
       0.0939       36.0117
        0.094       35.9797
       0.0941       35.8348
       0.0942        35.734
       0.0943       35.6389
       0.0944       35.5462
       0.0945        35.454
       0.0946       35.3623
       0.0947       35.2672
       0.0948       35.1713
       0.0949        35.074
        0.095       34.9735
       0.0951       34.8468
       0.0952       34.7285
       0.0953       34.6143
       0.0954       34.5064
       0.0955        34.399
       0.0956       34.2949
       0.0957       34.1913
       0.0958        34.089
       0.0959       33.9867
        0.096       33.8827
       0.0961       33.9497
       0.0962       33.8875
       0.0963       33.8251
       0.0964         33.77
       0.0965         33.72
       0.0966       33.6718
       0.0967       33.6254
       0.0968       33.5832
       0.0969       33.5422
        0.097       33.4986
       0.0971       33.5065
       0.0972       33.5313
       0.0973        33.563
       0.0974       33.5991
       0.0975       33.6395
       0.0976       33.6817
       0.0977       33.7257
       0.0978       33.7719
       0.0979       33.8196
        0.098       33.8671
       0.0981        33.886
       0.0982       34.0075
       0.0983       34.1397
       0.0984       34.2734
       0.0985       34.4069
       0.0986       34.5378
       0.0987       34.6658
       0.0988       34.7877
       0.0989       34.9055
        0.099       35.0171
       0.0991       35.0231
       0.0992       35.1351
       0.0993       35.2413
       0.0994       35.3379
       0.0995       35.4274
       0.0996       35.5079
       0.0997       35.5839
       0.0998       35.6477
       0.0999        35.704
          0.1       35.7507
       0.1001       35.7274
       0.1002       35.7282
       0.1003       35.7369
       0.1004       35.7383
       0.1005       35.7396
       0.1006       35.7359
       0.1007       35.7287
       0.1008        35.718
       0.1009       35.7013
        0.101       35.6749
       0.1011       35.5753
       0.1012       35.5222
       0.1013       35.4726
       0.1014       35.4232
       0.1015       35.3728
       0.1016         35.32
       0.1017       35.2637
       0.1018       35.2029
       0.1019       35.1374
        0.102       35.0664
       0.1021       35.0283
       0.1022       34.9397
       0.1023       34.8495
       0.1024       34.7594
       0.1025       34.6706
       0.1026        34.581
       0.1027       34.4875
       0.1028       34.3956
       0.1029       34.3037
        0.103       34.2058
       0.1031       34.1677
       0.1032       34.1291
       0.1033        34.096
       0.1034       34.0641
       0.1035       34.0331
       0.1036        34.001
       0.1037        33.967
       0.1038       33.9317
       0.1039       33.8948
        0.104       33.8546
       0.1041       33.8495
       0.1042       33.8554
       0.1043       33.8631
       0.1044        33.875
       0.1045       33.8852
       0.1046        33.898
       0.1047        33.911
       0.1048       33.9205
       0.1049       33.9286
        0.105       33.9333
       0.1051        33.961
       0.1052       34.0151
       0.1053       34.0694
       0.1054       34.1211
       0.1055       34.1736
       0.1056       34.2228
       0.1057       34.2686
       0.1058       34.3118
       0.1059       34.3505
        0.106       34.3849
       0.1061       34.4483
       0.1062       34.5188
       0.1063       34.5902
       0.1064        34.653
       0.1065       34.7127
       0.1066        34.768
       0.1067       34.8148
       0.1068       34.8556
       0.1069       34.8908