/*--------------------------------*- C++ -*----------------------------------*\
| =========                 |                                                 |
| \\      /  F ield         | OpenFOAM: The Open Source CFD Toolbox           |
|  \\    /   O peration     | Version:  5.x                                   |
|   \\  /    A nd           | Web:      www.OpenFOAM.org                      |
|    \\/     M anipulation  |                                                 |
\*---------------------------------------------------------------------------*/
FoamFile
{
    version     2.0;
    format      ascii;
    class       volScalarField;
    location    "0.2";
    object      voidfraction;
}
// * * * * * * * * * * * * * * * * * * * * * * * * * * * * * * * * * * * * * //

dimensions      [0 0 0 0 0 0 0];

internalField   nonuniform List<scalar> 
10571
(
0.985945
0.951489
0.987807
0.998273
0.97979
0.990718
0.99903
0.998354
0.993247
0.983709
0.99606
0.996394
1
0.997617
0.987944
0.995201
0.98251
0.996353
0.995969
0.990851
0.95612
0.975071
0.988329
0.977874
0.972879
0.980576
0.992665
0.998223
0.980913
0.999129
0.999726
0.999078
0.994577
0.986617
0.98585
0.999096
0.999891
0.99885
0.993601
0.99418
0.990649
0.998353
0.998229
0.997374
0.97897
0.987388
0.9906
0.979578
0.956349
0.96802
0.994249
0.999042
0.985345
0.99808
0.999782
0.999557
0.988295
0.983055
0.988184
0.994846
0.999757
0.999164
0.985223
0.991828
0.987973
0.998322
0.997973
0.994684
0.974308
0.981411
0.989234
0.972506
0.987254
0.95804
0.995667
0.996738
0.981526
0.996804
0.999989
0.999889
0.990817
0.991192
0.993516
0.998049
0.999602
0.999328
0.987856
0.950999
0.985719
0.997473
0.997262
0.999667
0.979844
0.976594
0.987547
0.987051
0.979553
0.969256
0.990629
0.996891
0.993768
0.991561
1
1
0.998126
0.98485
0.991314
0.997466
0.999996
0.999699
0.996546
0.954254
0.989449
0.998011
0.998386
0.997754
0.97771
0.966317
0.991335
0.984161
0.975482
0.966114
0.99477
1
0.982573
0.996858
1
0.999775
0.996413
0.977872
0.623704
1
0.998072
0.999888
0.999659
0.995741
0.971766
0.474708
0.994527
0.99845
0.998611
0.997228
0.974077
0.984357
0.988614
0.980365
0.992525
0.97317
0.998042
0.997629
0.989368
0.996114
0.991197
0.999639
0.995877
0.972684
1
1
0.999019
1
0.999483
0.995518
0.987424
1
0.990767
0.995285
0.99819
0.988198
0.972385
1
0.980446
0.988584
0.967829
0.993185
0.981852
0.997097
0.999966
0.992939
0.996789
0.989564
0.99925
0.988593
0.98578
1
0.990653
0.998579
0.999772
0.998906
0.993621
0.994359
1
0.994406
0.99469
0.997689
0.98839
0.981441
1
0.977155
0.989914
0.970536
0.977684
0.98174
0.995241
0.99719
0.988094
0.997803
0.996078
0.996289
0.985428
0.988568
1
0.994172
0.999019
0.998944
0.999282
0.993244
0.988346
1
0.99588
0.99352
0.996614
0.982399
0.974145
0.981337
0.991936
0.985442
0.995602
0.979165
0.99612
0.99479
0.98311
0.99706
0.993493
0.995593
0.989586
0.98868
0.9989
0.998038
0.99822
0.997942
0.994037
0.989339
0.994707
0.990547
0.996955
0.981109
0.979965
0.981415
0.992964
0.9876
0.991095
0.980735
0.993795
0.992192
0.986659
0.996892
0.998999
0.996609
0.992664
0.979601
1
0.999019
0.997988
0.997616
0.993858
0.987719
0.992723
0.994488
0.994445
0.988841
0.983538
0.984474
0.994565
0.984388
0.997801
0.97312
0.993054
0.997297
0.989427
0.99642
0.992278
0.99679
0.992314
0.994926
0.991863
0.999966
0.997933
0.99644
0.991763
0.990512
0.994468
0.992859
0.995549
0.989921
0.989023
0.981455
0.991425
0.978229
1
0.965616
0.997067
0.996419
0.99237
0.99588
0.995421
0.996404
0.993709
0.982558
0.992963
0.997904
0.99828
0.997286
0.993544
0.990115
0.993265
0.992885
0.996289
0.989151
0.98992
0.985404
0.990488
0.983757
0.994173
0.95632
0.999022
0.997399
0.993661
0.997501
0.999668
0.9929
0.99433
0.986122
0.996811
0.999358
0.998919
0.998165
0.993037
0.982858
0.996542
0.995526
0.996923
0.989851
0.994259
0.99125
0.991062
0.983617
1
0.914601
0.997708
0.999155
0.987472
1
0.999702
0.996028
0.99597
0.977981
1
0.999189
0.996342
0.997592
0.994593
0.983825
0.998226
0.99555
0.997089
0.989583
0.985088
0.987882
0.988435
0.991108
1
0.947249
0.998045
0.996554
0.991378
0.995914
0.998672
0.999029
0.996579
0.983641
1
0.99902
0.996988
0.997232
0.994155
0.973486
0.997956
0.997291
0.995505
0.994625
0.984597
0.973209
0.995833
0.990548
1
0.955819
0.997944
0.998379
0.99324
0.996488
0.996238
0.997709
0.994512
0.979955
1
0.99804
0.999665
0.99722
0.993324
0.981042
0.991913
0.998958
0.99662
0.995393
0.990617
0.969105
0.995621
0.994118
0.997691
0.972562
0.998382
0.996386
0.993
0.994327
0.995483
0.997974
0.99366
0.9779
1
0.997263
0.998992
0.998761
0.995687
0.981586
0.992335
0.997242
0.998209
0.995794
0.98187
0.95804
0.993509
0.99391
1
0.980681
0.999022
0.99544
0.99207
0.998345
0.99937
0.994681
0.994411
0.985969
1
0.998006
0.998461
0.998482
0.994946
0.973127
0.992214
0.997892
0.998213
0.999099
0.96528
0.97631
0.99526
0.9979
0.99934
0.979729
0.998989
0.994798
0.992641
0.997299
0.998096
0.995329
0.99374
0.987558
0.996922
0.995809
0.997384
0.998145
0.993268
0.971042
0.996303
0.997295
0.999313
0.997263
0.96619
0.978592
0.992452
0.97823
1
0.982531
0.998989
0.998041
0.998258
0.997738
0.998798
0.994735
0.994782
0.989494
1
0.99706
0.998808
0.998339
0.993539
0.975515
0.994498
0.995781
0.99909
0.998064
0.96773
0.981146
0.993055
0.98824
0.996812
0.975978
0.996663
0.994697
0.993211
0.995408
0.998482
0.99782
0.995513
0.991704
0.996812
0.995505
0.996996
0.997832
0.991573
0.983435
0.997325
0.996867
0.997671
0.997964
0.98089
0.988076
0.989795
0.99594
1
0.967074
0.994944
0.991184
0.994923
0.997738
0.99781
0.998703
0.997076
0.99465
0.993623
0.996418
0.997842
0.994788
0.993016
0.981924
1
0.995518
0.993972
0.99803
0.97683
0.982888
0.99215
0.98376
1
0.953803
0.998685
0.997838
0.996966
0.996083
0.99905
0.997337
0.995344
0.995814
0.996812
0.99804
0.998069
0.996953
0.993251
0.98141
0.995852
0.996132
0.995945
0.994826
0.98243
0.987456
0.994898
0.98859
1
0.946698
0.998786
0.997703
0.998588
0.997704
0.997707
0.998288
0.996999
0.992014
1
0.998243
0.999219
0.998095
0.99302
0.973823
0.996303
0.99662
0.995783
0.992556
0.98397
0.983933
0.997404
0.98845
1
0.960471
0.997067
0.996757
0.997086
1
0.998947
0.997736
0.996563
0.986742
1
0.997094
0.998754
0.99866
0.993106
0.980382
0.992485
0.996637
0.995149
0.993591
0.98852
0.973478
0.998249
0.99664
0.996811
0.985107
0.999933
0.999595
0.992611
0.998008
0.99966
0.998664
0.996886
0.987866
1
0.99902
0.998811
0.998412
0.993012
0.981773
0.987253
0.996507
0.996313
0.996762
0.99489
0.958036
1
0.99594
1
0.99804
0.997775
0.997703
0.994713
0.999021
0.998943
0.999589
0.995291
0.98244
0.998241
0.996046
0.998104
0.998502
0.992311
0.982951
0.993686
0.997073
0.997283
0.994559
0.99006
0.970656
0.999124
0.99804
1
1
0.999326
0.997028
0.991499
0.9974
0.991916
0.99706
0.991652
0.986743
1
0.99804
0.999358
0.9983
0.993632
0.973641
0.993116
0.996685
0.998334
0.995927
0.97445
0.973985
1
0.99657
1
0.993561
0.997944
0.994359
0.993752
0.998447
0.997913
0.994174
0.99164
0.990462
1
0.99439
0.999577
0.998869
0.993377
0.961762
0.996483
0.994371
0.997494
0.998698
0.96822
0.980373
0.999426
1
1
0.995688
0.997067
0.995744
0.995613
1
0.996486
0.996446
0.993078
0.994804
1
0.995302
0.995161
0.998904
0.994719
0.962756
0.995039
0.993556
0.99339
0.995794
0.965489
0.983392
1
0.99461
1
0.993672
0.997101
0.99902
0.996725
0.995948
0.995059
0.995782
0.994003
0.99209
1
1
0.997958
0.999311
0.99225
0.951666
0.995941
0.99511
0.994259
0.999599
0.97641
0.985328
0.997947
0.99594
1
0.998264
0.997876
0.99902
0.999159
0.998042
0.994586
0.995667
0.994116
0.992672
0.997581
0.99902
0.997365
0.998676
0.990824
0.958013
0.997444
0.993576
0.996362
0.997864
0.99195
0.984554
0.997584
0.99405
0.9989
0.988294
0.996528
0.999966
0.998257
0.999054
0.997661
0.997198
0.990602
0.996627
0.996921
0.999561
0.998477
0.99885
0.99146
0.959767
0.996482
0.994682
0.995424
0.995226
0.97648
0.981184
0.998822
0.99797
1
0.991321
0.997674
0.998953
0.997596
0.999021
0.994037
0.998776
0.990841
0.996859
1
1
0.997269
0.999601
0.991723
0.941811
0.992965
0.995853
0.996293
0.996628
0.98369
0.988694
0.999124
0.9965
1
0.981577
0.996865
0.997028
0.99384
0.997299
0.992862
0.997878
0.990562
0.993719
1
0.998243
0.997542
0.999574
0.990151
0.939236
0.99525
0.996245
0.996208
0.997263
0.99216
0.970811
0.997343
0.98439
1
0.994119
0.994135
0.99902
0.999429
0.997569
0.991298
0.995809
0.99479
0.994029
1
0.99973
0.993623
0.998676
0.986163
0.92559
0.997084
0.996196
0.997352
0.990954
0.994469
0.977853
0.998067
0.99419
1
0.985497
0.997067
0.998682
0.994712
0.994766
0.991591
0.99488
0.992965
0.995813
1
0.99902
0.995388
0.999005
0.985352
0.922566
0.994739
0.995651
0.997934
0.996361
0.991179
0.989277
0.997675
0.99524
1
0.991377
0.99818
1
0.993332
0.996421
0.989409
0.998162
0.994249
0.995502
1
0.99706
0.996042
0.999268
0.986884
0.909943
0.995851
0.996358
0.997934
0.992155
0.99531
0.980833
0.996135
0.9867
1
0.994343
0.998989
0.995406
0.994323
0.991896
0.998008
0.995579
0.994762
0.994418
1
0.991347
0.994692
0.999663
0.989138
0.901003
0.994438
0.995672
0.99846
0.992556
0.98726
0.977934
1
0.991739
1
0.994288
0.994573
0.993008
0.996756
0.997028
0.998588
0.996185
0.993458
0.995542
1
0.993882
0.995377
0.99914
0.987739
0.888338
0.99098
0.995595
0.996483
0.994726
0.99174
0.983585
0.999124
0.99951
1
0.991937
0.998045
0.992569
0.995554
0.998075
0.996814
0.997801
0.993575
0.994922
1
0.99608
0.997096
0.99854
0.986321
0.883925
0.997084
0.996964
0.995266
0.992623
0.993
0.982073
0.999819
0.98859
1
0.993896
0.997101
0.999223
0.992941
0.99686
0.992854
0.998734
0.994176
0.995581
1
0.996891
0.998658
0.998765
0.980642
0.881204
0.998076
0.996144
0.996252
0.993624
0.98467
0.978592
0.994897
0.97865
1
0.996752
0.998045
0.996859
0.995104
0.998075
0.995712
0.997824
0.992141
0.994806
1
1
0.996204
0.99554
0.9753
0.8647
0.999188
0.99738
0.993891
0.987081
0.98467
0.971617
0.990396
0.989779
1
0.996192
0.994
0.996082
0.994924
0.99848
0.998932
0.995986
0.993296
0.995774
0.996811
0.994525
0.992769
0.994339
0.968191
0.868092
0.997685
0.996083
0.991037
0.983075
0.980468
0.981026
0.99396
0.990339
0.996812
0.999384
0.997101
0.998446
0.997176
0.9974
0.992747
0.997578
0.995869
0.995696
1
0.99804
0.995696
0.997646
0.962678
0.897198
0.993927
0.995684
0.987407
0.978736
0.975427
0.993262
0.992964
0.97739
1
0.999664
0.996089
0.999358
0.995194
0.998075
0.989562
0.998384
0.994746
0.996045
1
0.99804
0.993446
0.996643
0.957389
0.889186
0.997385
0.99635
0.985272
0.962011
0.971156
0.987299
0.983694
0.97004
1
0.997312
0.999022
1
0.997536
0.998683
0.999309
0.991077
0.985578
0.996627
1
0.99902
0.980814
0.996794
0.949218
0.918273
0.996092
0.997347
0.988123
0.960776
0.969893
0.995276
0.985595
0.98999
1
0.99944
0.998011
1
0.998137
0.997129
0.999409
0.993034
0.995751
0.996239
0.996921
0.999054
0.996161
0.997278
0.935328
0.89233
0.995852
0.998498
0.98433
0.955369
0.978297
0.989003
0.980037
0.974377
1
1
0.999022
1
0.997386
0.998481
0.999004
0.998883
0.996551
0.999922
1
1
0.998108
0.988163
0.926098
0.909407
1
0.995486
0.979681
0.936842
0.96332
0.980874
0.982816
0.978227
1
0.996808
1
1
1
0.998075
0.999336
0.998473
0.995473
0.997945
1
1
0.998696
0.996914
0.908978
0.897497
0.997956
0.994448
0.978938
0.906231
0.94232
0.989432
0.984601
0.96507
1
0.998936
1
0.99902
0.998348
0.999021
0.998894
0.999774
0.997423
0.996123
1
1
0.999669
0.998219
0.888992
0.872921
0.99997
0.996899
0.972182
0.874018
0.93287
0.992063
0.984935
0.951
1
0.999328
0.998416
1
0.999129
0.996995
0.997211
0.998615
0.996131
0.997713
0.996812
0.999966
0.999442
0.998738
0.877627
0.859198
1
0.997101
0.96024
0.811928
0.93336
0.996283
0.972645
0.951554
0.994722
0.998376
0.998045
0.999662
0.998258
1
0.995063
0.996899
0.996838
0.995543
1
1
0.999169
0.999156
0.862666
0.790459
0.999128
0.997137
0.945104
0.706843
0.863219
0.995199
0.970199
0.928801
0.996812
0.998376
0.997539
1
0.999249
0.999021
0.991294
0.99668
0.99605
0.992209
1
0.999966
0.998892
0.998385
0.843353
0.709357
0.998437
0.9974
0.925715
0.657905
0.846279
1
0.958669
0.891289
0.997911
1
0.99936
0.999054
0.999129
0.998042
0.995964
0.994355
0.996026
0.99845
1
0.999054
0.997927
0.997042
0.795084
0.629041
0.99982
0.996774
0.891183
0.593178
0.819609
0.999303
0.941943
0.867279
1
1
0.998787
0.998615
0.999009
0.998987
0.998565
0.995598
0.997262
0.995503
1
1
0.998388
0.995478
0.750074
0.534269
1
0.996338
0.857798
0.525583
0.778093
0.996245
0.90351
0.797209
1
0.998376
0.999022
1
0.997837
0.999021
0.99818
0.993994
0.996192
0.998023
0.996371
1
0.997858
0.993081
0.71181
0.504762
1
0.999213
0.832791
0.439749
0.751023
0.995161
0.902061
0.770391
1
1
0.998045
0.997973
0.998258
0.999662
0.999164
0.997299
0.99738
0.999264
1
0.99902
0.998804
0.991553
0.687663
0.520759
0.997384
0.999087
0.817316
0.475658
0.756023
0.998529
0.873045
0.723617
0.997801
0.99944
0.998045
0.997703
0.995645
0.998041
0.998935
0.99876
0.997036
0.995316
0.996811
0.99902
0.999754
0.994188
0.680376
0.547181
1
0.998885
0.820091
0.440919
0.738323
0.998877
0.904807
0.717288
0.996811
1
0.999224
1
0.997688
0.998379
0.999133
0.999443
0.997399
0.996638
1
0.999662
0.99965
0.996289
0.688619
0.543511
0.999128
0.998901
0.827661
0.456253
0.692551
0.997715
0.938729
0.720641
1
1
0.999022
0.999019
0.995338
0.999054
0.998297
0.999548
0.997179
0.989395
0.99978
0.998985
0.999549
0.999135
0.727873
0.547024
0.999759
0.998839
0.845563
0.463776
0.68902
0.998645
0.960562
0.801875
0.996812
1
0.997706
1
0.996496
0.99804
0.999237
0.999102
0.998503
0.9961
0.996811
1
0.999215
0.999157
0.790103
0.599451
1
0.999128
0.999292
0.88473
0.473114
0.670682
0.997754
0.984901
0.751028
1
0.999888
0.997975
0.99573
0.999334
0.997263
0.998612
0.999349
0.99773
0.994565
1
1
0.999019
0.999111
0.999886
0.853679
0.65851
1
0.999128
0.999061
0.932062
0.512887
0.743866
0.997754
0.991424
0.693009
0.997032
0.998375
0.99703
0.996819
0.995914
0.996553
0.999076
0.998879
0.998699
0.989424
1
1
0.999019
0.998767
0.999547
0.920908
0.759802
1
1
0.999028
0.973005
0.578408
0.709207
1
0.996825
0.978106
0.705901
0.995713
1
0.998043
0.996381
0.993612
0.998378
0.998965
0.9991
0.99895
0.991065
0.995679
1
0.998951
0.999215
0.999992
0.97159
0.94585
0.935465
1
0.998542
0.994242
0.724145
0.66326
0.996477
0.971424
0.71788
0.996812
0.998376
0.99882
0.996382
0.9917
0.996487
0.998813
0.998962
0.997905
0.97693
0.997691
0.996415
0.999513
0.999773
0.988648
0.854121
0.482639
1
0.998175
0.996744
0.827226
0.578134
0.996554
0.951042
0.700523
0.996263
0.998376
0.997404
0.996688
0.98913
0.993043
0.997848
0.999245
0.998585
0.931572
0.996811
0.995267
0.999368
0.999662
0.993693
0.921764
0.998136
0.997332
0.998842
0.898897
0.645521
0.98889
0.934623
0.758759
0.989337
0.990817
0.995415
0.99902
0.983333
0.990882
0.999138
1
0.999122
0.839978
0.9989
0.995876
0.999665
0.999926
0.993031
0.936001
0.997114
0.997892
0.999612
0.964042
0.770054
0.980142
0.884667
0.803577
0.992304
0.983816
0.994338
0.99561
0.954039
0.988351
0.999775
1
0.99624
0.777385
0.990324
0.995675
0.999889
0.999961
0.992521
0.940551
0.991853
0.998628
0.999265
0.990319
0.843361
0.960085
0.860693
0.829296
0.946568
0.981355
0.989325
0.998988
0.789505
0.973318
0.999783
0.999889
0.995377
0.850408
0.965917
1
0.999889
1
0.994751
0.977776
0.989393
0.99787
0.999758
1
0.859975
0.821183
0.898091
0.903846
0.722561
0.716166
0.71441
0.946153
0.721944
0.523523
0.995256
1
0.998026
0.936687
0.73848
0.53041
0.99546
1
0.998335
0.97687
0.540476
0.891774
0.990094
1
0.843116
0.694807
0.913631
0.850931
1
1
0.992813
0.997156
1
0.999673
0.944194
0.998917
0.985423
0.941976
1
0.999084
0.953418
0.999774
0.994025
0.970883
1
0.962802
0.950181
0.967013
0.775445
1
0.983586
0.999449
1
1
1
1
1
1
1
0.898247
0.9239
1
1
1
0.994504
0.888725
0.995232
0.97279
1
1
0.955205
0.851442
0.99425
1
1
1
1
1
1
1
1
1
1
1
1
1
1
1
1
1
0.970167
0.997308
1
1
1
1
0.998304
1
1
1
0.60475
0.843604
0.621487
0.70114
0.817489
0.758032
0.665469
0.644109
0.606577
0.598476
0.614804
0.607854
0.726167
0.628963
0.682839
0.756785
0.763052
0.746084
0.664315
0.72803
0.730138
0.602089
0.616962
0.651147
0.59629
0.577364
0.628891
0.800241
0.706635
0.640853
0.737972
0.68507
0.733325
0.809315
0.828888
0.827416
0.905107
0.829981
0.809934
0.902238
0.792827
0.729662
0.645827
0.70765
0.646381
0.625507
0.638551
0.656304
0.81675
0.753272
0.649903
0.730028
0.689749
0.623755
0.734454
0.817978
0.890549
0.803605
0.824509
0.888056
0.819898
0.798651
0.835924
0.679702
0.651468
0.740394
0.601724
0.652419
0.71431
0.624796
0.635557
0.608107
0.675838
0.57272
0.628509
0.759841
0.734286
0.677887
0.684526
0.684678
0.744498
0.708617
0.636261
0.700205
0.610916
0.599872
0.555062
0.56035
0.566472
0.602278
0.655408
0.741902
0.717511
0.642474
0.784669
0.599828
0.96658
0.986802
0.987222
0.984307
0.994101
0.987272
0.989024
0.991412
0.987753
0.981716
0.982181
0.992123
0.98671
0.974452
0.976809
0.97283
0.978644
0.977755
0.978932
0.991867
0.962164
0.981705
0.990623
0.995095
0.971454
0.989631
0.972674
0.990168
0.979431
0.995027
0.981751
0.968547
0.981848
0.992914
0.996912
0.991727
0.991725
0.98706
0.991822
0.990327
1
0.987594
0.992294
0.997984
0.991751
0.989337
0.993848
0.989715
0.991792
1
0.98273
0.99459
1
0.991379
0.989474
0.988622
0.988287
0.968828
0.968146
0.992075
0.99514
0.979124
0.98425
0.967577
0.976741
0.955005
0.997164
0.979213
0.986378
0.970818
0.979066
0.95113
0.974303
0.989828
0.977963
0.977289
0.987242
0.979963
0.984533
0.977326
0.98705
0.973328
0.986854
0.980709
0.981802
0.991015
0.957872
0.989064
0.986962
0.964702
0.991382
0.981443
0.993983
0.98409
0.973717
0.986817
0.987295
0.989806
0.975893
0.986312
0.989797
0.993015
0.987095
0.997738
0.977134
0.986385
0.991791
0.998232
0.976937
0.998713
0.981193
0.987739
0.976397
0.999089
0.993919
0.968606
0.961606
0.990648
0.982741
0.993783
0.987411
0.971979
0.993764
0.991627
0.99764
0.986495
0.994841
0.998804
0.988628
0.990128
0.989248
0.988058
0.988502
1
0.990733
0.997332
1
0.993057
0.978018
0.954564
0.996376
0.973693
0.989645
0.991425
0.994782
0.97485
0.983416
0.984654
0.99068
0.969263
0.992956
0.980062
0.983428
0.967183
0.983164
0.981712
0.967395
0.985872
0.964006
0.987407
0.981127
0.977316
0.985767
0.976539
0.983202
0.981064
0.976339
0.980501
0.987158
0.981589
0.934356
0.992759
0.985625
0.952802
0.989283
0.980258
0.990564
0.986701
0.976951
0.98996
0.984612
0.967741
0.962186
0.972812
0.976669
0.979989
0.985058
0.999014
0.95742
0.983563
0.984718
0.998358
0.965839
0.999067
0.990961
0.983747
0.973055
0.997095
0.984076
0.980314
0.986472
0.988352
0.974071
0.989008
0.977097
0.970364
0.977361
0.989519
0.989707
0.992074
0.981255
0.998241
0.990802
0.982941
0.991768
0.993275
0.9843
1
0.995697
0.975956
0.997253
0.987552
0.956743
0.949517
0.994203
0.97144
0.984779
0.990285
0.9968
0.976119
0.980848
0.976951
0.986655
0.975372
0.999238
0.97929
0.985018
0.965224
0.977788
0.972673
0.962599
0.984686
0.985032
0.978605
0.98078
0.969532
0.98997
0.981865
0.985422
0.974998
0.981917
0.988754
0.977996
0.97596
0.972197
0.989411
0.977784
0.972736
0.989401
0.989288
0.997007
0.985502
0.981423
0.99116
0.993266
0.966211
0.987448
0.980931
0.979178
0.985504
0.98359
0.998478
0.974358
0.983328
0.981751
0.996102
0.97714
0.997538
0.987882
0.992426
0.988919
0.998912
0.982172
0.980716
0.982171
0.966257
0.965712
0.978598
0.977524
0.986917
0.98974
0.954872
0.989209
0.986441
0.947562
0.984246
0.989779
0.98805
0.995053
0.995095
0.98684
1
0.990224
0.935156
0.999781
0.983981
0.960762
0.954878
0.9957
0.986625
0.972626
0.981131
0.994402
0.982117
0.983814
0.985826
0.988155
0.980901
0.997861
0.98627
0.982684
0.98512
0.980669
0.970075
0.956907
0.988962
0.982996
0.981573
0.987859
0.981343
0.986837
0.977732
0.986987
0.985973
0.976956
0.980598
0.974422
0.973513
0.945795
0.988314
0.982924
0.961406
0.990673
0.985645
0.987914
0.987724
0.979771
0.996606
0.992018
0.988836
0.970748
0.969423
0.981332
0.983408
0.987251
0.99343
0.964156
0.982444
0.9781
0.986524
0.977703
0.998278
0.986391
0.991284
0.979911
0.995972
0.985475
0.9702
0.979927
0.982005
0.991094
0.98256
0.985525
0.985485
0.982192
0.945516
0.943012
0.981034
0.937617
0.900951
0.992761
0.990785
0.99989
0.995486
0.990242
0.945513
0.980175
0.964349
0.90004
0.982605
0.972169
0.986955
0.996276
0.984701
0.98287
0.991701
0.995546
0.988806
0.983501
0.983208
0.992013
0.976672
0.994004
0.983889
0.98946
0.973022
0.977497
0.978032
0.968725
0.986048
0.97377
0.977659
0.983986
0.977171
0.990036
0.983649
0.994019
0.981418
0.993525
0.971811
0.977555
0.974765
0.981637
0.992607
0.990035
0.977679
0.997058
0.995275
0.991513
0.992442
0.994393
0.996211
0.989497
0.955319
0.976979
0.989481
0.987112
0.978276
0.984832
0.986454
0.964824
0.978573
0.989509
0.988437
0.982956
0.998663
0.980851
0.981002
0.977818
0.996425
0.976498
0.972731
0.970172
0.985756
0.976248
0.98531
0.994194
0.993622
0.991003
0.89381
0.970342
0.75465
0.979748
0.988709
0.985472
0.989323
0.487083
0.480771
0.405854
0.991412
0.968201
0.980854
0.920097
0.998061
0.985052
0.996701
0.992697
0.986522
0.751936
0.980451
0.890418
0.991245
0.990146
0.976108
0.985685
0.393441
0.627346
0.475902
0.985522
0.909517
0.991715
0.965561
0.988978
0.972792
0.991455
0.985768
0.981775
0.991609
0.991055
0.979017
0.975263
0.981913
0.982582
0.955079
0.995742
0.975962
0.989011
0.968037
0.958426
0.985377
0.959558
0.985439
0.967953
0.979206
0.978061
0.941611
0.986765
0.969272
0.988399
0.985133
0.981453
0.977371
0.971558
0.989125
0.987246
0.998723
0.995851
0.989335
0.988038
0.997062
0.995969
0.993609
0.98571
0.995061
0.995276
0.985512
0.993809
0.98969
0.985579
0.98094
0.987691
0.994788
0.976698
0.976593
0.984143
0.995113
0.977387
0.989822
0.980302
0.987856
0.978771
0.991576
0.981253
0.97268
0.999258
0.981503
0.996218
1
1
1
1
0.987845
0.993622
0.992972
0.988774
1
0.996668
0.993535
0.984973
0.991438
0.982697
0.991619
0.985046
0.994058
1
0.999232
1
1
1
1
1
0.992697
0.993029
0.993402
0.996182
0.989698
0.995141
0.979835
0.995076
0.98726
0.997204
0.986547
0.99625
1
1
1
1
1
1
1
0.980815
0.983745
0.997459
0.978567
0.981531
0.995067
0.993762
0.992405
0.981258
0.985181
0.976847
0.976805
0.991579
0.979259
0.980922
0.977286
0.994578
0.982866
0.997155
1
1
1
0.983627
0.973272
0.979789
0.96927
0.983582
0.984199
0.971356
0.990221
0.984417
0.98786
0.989409
0.99166
0.991061
0.989055
0.990659
0.996812
0.991793
0.996335
0.986586
0.996555
0.997819
0.995152
0.995974
0.989667
0.996061
0.996825
0.986161
0.991648
0.995959
0.990316
0.9801
0.986707
0.984395
0.983252
0.985705
0.987303
0.991986
0.990361
0.989997
0.983043
0.987127
0.989095
0.98566
0.987873
0.975225
1
0.976135
1
1
1
1
1
0.990942
0.991093
0.996062
0.996632
0.996151
0.990518
0.995059
0.99522
0.997937
0.986688
0.998772
0.987586
0.996231
1
1
1
1
1
1
1
0.99703
0.997057
0.99956
0.996636
0.987258
0.997621
0.987217
0.996911
0.989466
0.997144
0.986281
0.999103
1
1
1
1
1
1
1
0.982419
0.991907
0.991386
0.983011
0.981016
0.991368
0.983961
0.99038
0.985437
0.980765
0.983699
0.98757
0.994633
0.9718
0.977215
0.980918
0.997397
0.977643
1
1
1
1
0.972712
0.960398
0.98148
0.984087
0.987145
0.980393
0.969381
0.986773
0.992538
0.990337
0.993211
0.985515
0.98078
0.994284
0.990659
0.926114
0.99191
0.994124
0.987795
0.993691
0.989188
0.992424
0.99663
0.980981
0.995727
0.992911
0.996167
0.973776
0.994357
0.98976
0.985585
0.990463
0.990195
0.977204
0.987414
0.990702
0.992477
0.993526
0.98853
0.985715
0.986858
0.98897
0.986323
0.980583
0.982533
0.985674
0.988736
0.99989
0.994881
0.993342
0.983175
0.99476
0.996861
0.994576
0.993438
0.993211
0.994667
0.990557
0.995806
1
1
1
1
1
1
1
0.996667
0.99361
0.993842
0.993727
0.991402
0.997239
0.980932
0.998508
0.986702
0.998043
0.981242
0.998049
1
1
1
1
1
1
1
0.989675
0.997558
0.967655
0.993193
0.982197
0.996481
0.973734
0.994543
0.986678
0.973692
0.983749
0.968521
0.984749
0.97288
0.985399
0.964737
0.977633
0.975931
0.968655
0.981751
0.978928
0.983428
0.987886
0.989793
0.994219
0.993635
0.98786
0.990457
0.993087
0.990403
0.99526
0.982436
0.996811
0.993962
0.989339
0.996811
0.99373
0.991309
0.990092
0.99574
0.992854
0.991548
0.99547
0.973284
0.982079
0.997701
0.98565
0.99167
0.990225
0.994367
0.97911
0.986009
0.986024
0.988964
0.989621
0.990335
0.988287
0.988152
0.994664
0.991897
0.989833
0.972323
0.977862
0.988968
0.993622
0.982644
0.986492
0.993622
0.994427
0.99033
0.99118
0.972921
0.990113
0.97175
0.994667
0.996437
0.985155
0.996516
0.990086
0.993437
0.984631
0.987477
0.986755
0.987117
0.995954
0.986187
0.982576
0.992969
0.987163
0.992663
0.991885
0.986444
0.985953
0.967282
0.981279
0.970907
0.987647
0.975525
0.986334
0.980234
0.976104
0.973343
0.984748
0.978338
0.984086
0.982422
0.977859
0.980684
0.991004
0.99594
0.98617
0.991706
0.970372
0.989075
0.988988
0.982506
1
0.992144
0.992096
0.996811
0.997059
0.991794
0.994608
0.99551
0.996812
0.995214
0.998026
0.989543
0.989892
0.99589
0.99199
0.986399
0.988498
0.986589
0.970095
0.992032
0.990436
0.991636
0.99326
0.994261
0.989288
0.988376
0.987813
0.99328
0.985611
0.985366
0.995953
0.995742
0.996921
0.990217
0.991408
0.993512
0.989157
0.984219
0.990516
0.983572
0.987809
0.986594
0.99188
0.993146
1
0.996425
0.994734
0.974295
0.988449
0.98374
0.991437
0.983591
0.966935
0.979283
0.982582
0.986163
0.99001
0.992994
0.986313
0.990213
0.988013
0.980048
0.988019
0.984752
0.989487
0.978909
0.983707
0.989665
0.987079
0.977472
0.979781
0.984807
0.986281
0.982965
0.989127
0.984086
0.991826
0.988368
0.988405
0.986017
0.993635
0.98243
0.991497
0.990034
0.996811
0.995511
0.994156
0.99989
0.997717
1
0.994215
0.994426
0.991754
0.994518
0.99849
0.991914
0.993656
0.993035
0.996239
0.990265
0.990049
0.994858
0.969256
0.988947
0.993028
0.997364
0.989721
0.986956
0.991172
0.993602
0.99455
0.994037
0.990715
0.987774
0.985317
0.985757
0.996701
0.99473
0.989782
0.993732
0.998789
0.989263
0.99384
0.983958
0.989261
0.996809
0.996152
0.996283
0.997361
0.997364
0.993998
0.987693
0.985299
0.995225
0.985163
0.994389
0.98591
0.983189
0.988589
0.982339
0.992826
0.996212
0.996043
0.982002
0.983533
0.989666
0.989908
0.988928
0.987083
0.98393
0.989846
0.989434
0.993143
0.979571
0.98209
0.985412
0.993415
0.981687
0.985775
0.979915
0.976025
0.990891
0.989915
0.988536
0.989464
0.990269
0.989546
0.98411
0.997141
0.991836
0.994519
0.990104
0.994738
0.995519
0.998243
0.995665
0.998681
0.997728
0.99849
0.996793
0.999303
0.99199
0.991363
0.987869
0.992254
0.997267
0.962032
0.984784
0.986921
0.993232
0.990784
0.986524
0.991287
0.994202
0.995785
0.98682
0.993283
0.983633
0.977894
0.99733
1
0.996487
0.996091
0.996811
1
0.990559
0.993729
0.984572
0.991466
0.987237
1
0.99667
0.998681
0.997728
0.995547
0.993515
0.990129
0.983946
0.989229
0.981997
0.999093
1
0.996472
0.98667
0.994218
0.996542
0.995944
0.993138
0.994733
0.987281
0.982944
0.98898
0.988549
0.990879
0.988599
0.988697
0.985017
0.972155
0.970826
0.988674
0.983976
0.989586
0.983057
0.990561
0.992176
0.986611
0.988767
0.993648
0.987489
0.985437
0.977559
0.972192
1
0.994428
0.999425
1
0.995047
0.994792
0.996487
0.995742
0.994393
0.994366
0.997755
0.99993
0.998048
0.991851
0.988089
0.984904
0.989662
0.998308
0.938849
0.985982
0.993088
0.998113
0.99764
0.996771
0.994826
0.996725
0.996965
0.996408
0.995825
0.987407
0.986567
0.993885
0.9989
0.999122
0.997833
0.997911
0.998244
0.991527
0.996699
0.982981
0.991617
0.982947
0.997364
0.995624
0.998791
0.998273
0.998645
0.979118
0.988462
0.985336
0.962412
0.9861
1
0.995954
0.994592
0.978627
0.990677
0.997384
0.991987
0.989595
0.987378
0.992923
0.982821
0.988018
0.991553
0.992526
0.988233
0.989544
0.986837
0.961382
0.965509
0.989097
0.99989
0.983546
0.990215
0.993634
0.993454
0.987489
0.98774
0.993454
0.996817
0.987748
0.979092
0.98174
1
0.99141
0.993914
1
0.990946
0.989584
0.994942
1
1
0.996911
1
1
0.993168
0.989343
0.990597
0.987689
0.987666
1
0.932129
0.977745
0.992969
0.995347
0.987468
0.999044
0.994796
0.989395
0.980556
0.998089
0.989804
0.980622
0.970198
0.998104
0.996811
0.998244
0.991563
1
0.998062
0.988864
0.987568
0.97267
0.985323
0.975797
1
0.997754
1
0.998243
1
0.995274
0.992373
0.990749
0.970876
0.986139
0.995954
0.997977
0.995614
0.987401
0.987832
0.999128
0.999308
0.984027
0.988376
0.989018
0.979933
0.990392
0.990618
0.985632
0.979234
0.988245
0.987258
0.965649
0.96474
0.991966
0.996817
0.981881
0.992933
0.998902
0.995778
0.996817
0.988586
0.993842
0.994074
0.996079
0.978674
0.969474
1
0.992687
0.994883
0.996811
0.988818
0.994459
0.998516
0.997755
1
0.998819
0.996284
0.99519
0.993168
0.995124
0.99394
0.982747
0.986236
0.998178
0.954305
0.976637
0.987011
0.998926
0.974037
1
0.99174
0.987773
0.986119
0.996013
0.991135
0.979502
0.973836
0.997291
0.993623
0.99146
0.992453
0.996811
0.997062
0.981722
0.983938
0.976779
0.990528
0.977007
1
0.996128
0.993623
1
0.994966
0.958677
0.991715
0.978535
0.983954
0.986294
0.999721
0.99986
0.998846
0.98352
0.980779
0.991371
0.998582
0.968841
0.985985
0.985815
0.986561
0.993049
0.995393
0.984198
0.994284
0.984515
0.979066
0.933187
0.944451
0.993205
0.997915
0.969531
0.99402
0.990451
0.994616
0.994074
0.997373
0.995817
0.991549
0.993839
0.976375
0.972958
0.996811
0.975352
0.99349
0.990435
0.970941
0.985496
0.998819
0.997406
0.996812
0.998546
0.9988
0.987309
0.991635
0.988578
0.984606
0.986104
0.989365
0.998471
0.95895
0.983403
0.991211
0.997071
0.979148
0.997759
0.98953
0.994983
0.976908
0.997792
0.98923
0.973132
0.982514
0.994156
0.996811
0.985192
0.991911
0.987356
0.974408
0.98971
0.984707
0.97938
0.986535
0.980859
0.998243
0.991598
1
0.996515
0.988266
0.975051
0.984549
0.975786
0.973845
0.980606
0.994698
0.997071
0.998055
0.958321
0.982536
0.992212
0.999044
0.965468
0.986045
0.990146
0.993706
0.988751
0.994591
0.987768
0.996352
0.984969
0.97487
0.938571
0.949001
0.994866
0.998902
0.962484
0.991846
0.996818
0.993104
0.996817
0.997766
0.999651
1
0.99405
0.969616
0.974561
1
0.98174
0.981715
1
0.981424
0.9861
0.993974
0.992298
1
0.995517
0.994154
0.98292
0.982361
0.974996
0.976038
0.986612
0.988532
0.994925
0.971719
0.989366
0.987962
0.99782
0.983869
0.994069
0.989894
0.991408
0.986515
0.999011
0.992891
0.984537
0.989578
0.990325
0.996702
0.980833
0.988001
0.99934
0.977253
0.988318
0.984817
0.980814
0.982602
0.947966
0.994244
0.988538
0.997471
0.993092
0.982343
0.959883
0.982306
0.987152
0.955162
0.987262
0.990305
0.989606
0.999934
0.982115
0.988075
0.983221
0.998417
0.978738
0.983441
0.987769
0.993251
0.974798
0.996794
0.983311
0.995682
0.981742
0.962397
0.95131
0.945218
0.991696
0.99572
0.970107
0.992569
0.988474
0.995701
1