/*--------------------------------*- C++ -*----------------------------------*\
| =========                 |                                                 |
| \\      /  F ield         | OpenFOAM: The Open Source CFD Toolbox           |
|  \\    /   O peration     | Version:  5.x                                   |
|   \\  /    A nd           | Web:      www.OpenFOAM.org                      |
|    \\/     M anipulation  |                                                 |
\*---------------------------------------------------------------------------*/
FoamFile
{
    version     2.0;
    format      ascii;
    class       volScalarField;
    location    "0.25";
    object      Ksl;
}
// * * * * * * * * * * * * * * * * * * * * * * * * * * * * * * * * * * * * * //

dimensions      [1 -3 -1 0 0 0 0];

internalField   nonuniform List<scalar> 
10571
(
2858.18
1388.15
3757.76
1502.28
1769.97
2850.32
2943.58
1545.03
4221.19
3217.33
2614.16
1345.16
1154.58
1677.93
1897.02
3922.89
1517.44
2639.14
1446.74
1778.2
2722.04
1201.8
1520.43
2737.97
0
139.311
10.2941
5.16351
23.1815
7.91709
36.5194
22.3184
63.1094
132.97
0
15.6052
18.0823
15.6349
65.6164
272.012
73.6659
26.2417
33.8464
23.624
143.809
141.77
18.3861
70.5927
0
129.688
10.5191
10.0318
33.6967
0
17.0272
32.6221
57.5311
98.4846
0
0.295327
13.6916
16.8527
42.9345
197.572
48.8776
21.6657
36.2594
18.8467
161.611
101.434
36.8516
87.3657
0
74.0533
7.6728
17.8814
10.412
5.70885
8.58064
13.3509
36.5661
130.447
11.1487
0.951226
25.5041
21.2688
36.8068
282.189
34.5789
30.4621
16.6941
17.2537
86.8979
109.451
20.1412
72.3123
0
68.2152
24.9806
18.4116
41.1852
7.65949
19.3216
9.96286
31.5859
138.425
0.772767
5.86523
12.1948
18.394
23.3453
220.376
10.8986
24.125
29.3289
0
60.0194
86.1494
13.0395
140.731
0
150.929
16.7241
8.15674
26.9789
5.73088
20.714
10.6291
20.1009
96.5744
7062.39
23.4849
0
4.04618
13.4578
17.9477
214.082
9926.34
22.9043
27.314
35.3356
1.28281
111.562
100.674
24.187
141.159
0
163.673
5.54052
6.00186
21.0777
5.7423
28.1031
7.83325
26.9779
76.4642
0
11.5542
-1.13202e-15
14.8071
5.22915
12.6977
247.22
0
20.5488
30.7881
23.267
0
141.791
0
63.8487
27.1896
163.295
37.8505
99.4758
22.685
17.6536
27.6076
18.0287
20.5478
14.5888
21.0692
52.7806
0
1.0304
0.368357
18.8005
3.93032
20.2682
260.355
0
39.188
26.7301
21.4183
9.37559
34.0157
0
121.238
35.7862
130.796
0
71.1981
17.0191
20.6608
58.7645
33.4867
9.01603
14.2595
16.1
76.8114
0
0
18.4278
14.9458
5.32534
16.598
231.474
0
50.717
15.5188
10.9661
0
77.1592
71.4263
67.1868
133.352
0.444831
35.3268
22.776
52.0888
51.4142
18.4926
27.5465
6.07208
14.7828
72.8248
0
0.325471
8.17291
24.1217
10.9915
362.312
38.3326
6.10718
7.10956
0
38.248
85.5277
8.11064
168.145
0
94.5673
24.2204
17.04
56.5657
17.3417
18.5555
12.3259
15.162
78.1506
6.97416
33.8888
18.0937
15.674
18.4463
377.025
30.4012
9.07198
5.37437
0
64.2309
94.3964
7.94127
144.489
-1.14946e-15
114.637
18.0408
23.5625
83.4936
9.83359
17.0977
4.0843
8.15475
82.0649
0
30.6427
23.6673
56.0908
26.7458
528.128
11.9584
44.5088
15.2421
5.80257
120.226
165.204
32.0705
209.97
0
123.446
17.5664
8.48977
24.2568
17.8882
5.57496
25.4025
7.69315
110.129
0.699652
7.15733
6.42967
189.016
25.8845
602.058
19.8604
26.2966
47.1498
4.75286
129.64
81.7354
48.8675
178.385
0.927744
79.4924
16.6988
26.4345
37.8412
6.0004
16.2841
12.7862
5.58492
50.2505
16.8437
8.34822
15.6127
74.6683
13.3295
777.526
43.4859
14.3715
52.4863
-3.24567e-15
117.901
93.1101
78.3999
134.974
21.2567
65.0348
13.248
35.0827
34.9867
18.9565
83.2701
30.7635
10.4077
106.528
20.895
43.1224
64.8667
60.5566
13.2832
1001.28
14.7052
38.6295
48.8252
14.8607
111.929
201.388
34.3923
181.091
0
55.1025
11.3941
9.37146
38.3586
-1.78736e-15
43.1893
55.8229
6.10442
74.8977
34.1202
31.7627
75.6393
76.7219
13.3436
1059.1
8.17989
96.7028
67.7962
5.47906
184.03
172.053
44.3922
268.902
0
81.6071
9.03144
14.8254
48.4232
6.59468
98.1705
40.2474
7.30569
81.5422
0
11.4406
60.3061
93.8329
28.8366
1177.37
21.1168
109.336
77.8101
5.44282
282.458
141.275
119.242
279.592
20.2211
56.9525
40.4661
11.2204
81.5467
9.14653
60.2769
49.2976
24.2801
64.2897
74.0312
1.63925
130.117
64.8307
90.1166
1177.86
47.5449
169.983
160.264
44.9081
548.862
95.4081
56.2039
313.309
21.0017
63.8782
32.587
9.63158
42.832
43.787
139.854
77.9413
18.1373
115.468
-5.7574e-16
102.443
121.893
227.976
304.065
2182.2
40.1767
169.937
318.958
121.049
2781.04
143.574
115.21
452.435
0
67.5194
28.5643
78.717
118.615
19.096
149.34
92.4268
11.3555
76.6884
0
5.72882
128.429
275.043
791.444
6115.75
32.0663
182.54
504.471
343.414
6082.15
70.6622
138.237
405.014
0
56.4514
30.6959
27.7765
70.2738
22.4693
46.644
121.295
146.554
130.772
18.4996
12.1735
85.1543
146.847
1738.15
11236.2
41.1699
123.698
507.415
6479.12
6383.96
62.7118
156.982
1383.71
0
39.6135
41.7476
5.80242
29.1451
34.8996
8.51679
67.6938
118.014
174.861
0
10.7451
18.2829
98.9102
2210.16
10127.4
22.306
52.1991
428.538
17360.6
70353.1
66.5727
92.5136
6758.43
0
2.92215
41.8165
-3.66212e-16
35.7714
41.778
0.19513
17.8277
8.57554
28.3543
19.6275
93.462
2.94651
73.0523
1557.97
12492.9
43.7238
34.9455
298.33
4659.66
3216.34
31.1678
34.4813
13268.7
21.3619
44.4755
40.2186
5.89149
10.3986
13.9738
3.99451
0.26726
4.34734
38.7738
2.34011
24.2039
1.05917
28.4902
1376.6
3894.43
29.7334
31.8773
250.053
9804.11
8140.91
24.5733
15.9706
5193.41
26.7084
26.523
43.382
38.5962
20.0585
34.6273
3.44327
0.538936
4.02593
35.4654
0
0
0
4.73741
870.386
5239.69
14.9393
14.9899
212.855
8127.79
13374.5
33.2015
51.3511
8699.17
13.6381
30.3062
21.6578
0.198114
6.80509
68.2766
13.7385
0.550134
2.71134
46.4558
6.70961
3.79546
0
0
501.648
2833.04
4.84921
5.34135
164.386
2517.86
5724.02
32.081
33.4774
2438.61
131.946
21.6717
31.7242
0
24.0709
122.759
11.4405
0
1.66105
28.0388
0
5.79046
1.06338
0
323.293
837.17
5.31842
5.14948
104.086
4060.34
16852.4
44.5514
14.0852
10499.6
54.6279
43.1857
41.0849
11.8485
28.9192
26.7429
16.1041
0.56378
4.15732
76.9747
19.6065
11.8111
2.69589
0.936446
227.659
162.664
17.8037
6.08607
55.0742
2140.73
8031.06
60.3804
25.7473
7646.76
72.302
45.5298
58.2105
18.1939
8.35476
54.1221
10.2975
4.0277
2.92908
64.4285
19.5511
11.6018
12.5157
0.485532
150.037
54.7162
6.23195
6.44202
11.1259
1086.18
3026.78
43.1054
19.6533
15678
34.3589
28.755
47.2099
27.6333
12.6685
47.3256
5.25175
7.87935
2.2372
42.1651
31.0408
5.98048
4.8465
0.507068
100.7
61.9629
13.919
9.49675
3.23189
471.306
44630
73.0463
51.1561
10236.7
37.58
48.729
32.0494
9.07016
40.0242
34.9309
3.30098
7.07157
3.3643
81.7122
1.22219
11.0993
9.32384
1.61233
48.1262
110.051
11.2452
6.77229
0.545759
226.28
14900.2
110.448
98.1478
3794.87
62.6967
54.4661
35.2984
16.8747
41.653
31.6098
1.88532
6.52277
7.50304
77.7372
35.2067
5.52732
10.5959
0
38.5771
135.569
17.2647
4.34687
7.41996
21.5401
17673
129.753
163.224
3166.91
39.4308
141.441
39.1745
9.09798
40.5479
80.7524
1.34022
4.65033
10.7952
163.92
53.7479
1.36175
0.77555
1.15362
36.6754
200.241
24.6059
2.69394
15.4084
7.22925
16474.2
219.305
209.706
1685.27
119.241
298.741
18.6242
0
60.6563
22.4856
1.25704
2.68487
3.92782
412.342
34.4587
13.0641
3.68035
0.620828
17.2923
194.554
31.0146
3.09742
6.29538
10.1132
6215.79
533.677
274.347
872.243
924.619
3138.21
819.146
65.5849
3152.64
1351.06
0.631914
1.29105
1.87486
806.325
106.885
1.00142
3.30761
0.495518
18.3467
178.922
81.0978
8.75288
10.9648
22.5236
1544.35
1439.49
173.731
245.151
384.282
106.384
82.0168
203.376
113.623
155.493
0.783305
1.31778
3.16095
333.19
86.5525
3681.68
6.4864
0
7.5152
146.852
3698.47
41.1942
3.87862
14.8305
888.873
455.191
112.617
112.236
5.45197
0
179.162
0
3.40506
17.9255
1.87909
1.30781
2.14628
100.575
46.0882
6.26847
10.3478
0
2.74701
92.4002
2.06779
46.6844
0.829356
5.67919
880.736
175.765
48.9671
135.008
0
0
23.1706
16.4889
8.28222
10.2945
18.9158
0
5.27644
164.186
54.7305
3.76721
4.66131
0
1.00542
52.5502
0
74.4077
2.97935
0
1121.06
23.1107
166.639
250.298
0
0
0
53.3832
0.818024
0
253.554
64.9508
102.882
48.7001
0
0
71.8741
47.5809
201.574
252.693
0
109.011
153.539
49.3696
216.802
0
116.573
56.8941
0
0
0
0
0
0
25.7149
180.793
86.8908
0
0
0
128.892
222.389
102.08
0
0
13.3501
76.6381
186.275
13.74
0
0
0
0
0
0
0
0
0
0
0
0
0
0
0
0
0
0
0
0
0
0
0
0
0
0
0
0
0
0
0
0
0
0
0
0
0
0
0
0
0
0
0
0
0
0
0
0
0
0
0
0
0
0
0
0
0
0
0
0
0
0
0
0
0
0
0
0
0
0
0
0
0
0
0
0
0
0
0
0
0
0
0
0
0
0
0
0
0
0
0
0
0
0
0
0
0
0
0
0
0
0
0
0
0
0
0
0
0
0
0
0
0
0
0
0
0
0
0
0
0
0
0
0
0
0
0
0
0
0
0
0
0
0
0
0
0
0
0
0
0
0
0
0
0
0
0
0
0
0
0
0
0
0
0
0
0
0
0
0
0
0
0
0
0
0
0
0
0
0
0
0
0
0
0
0
0
0
0
0
0
0
0
0
0
0
0
0
0
0
0
0
0
0
0
0
0
0
0
0
0
0
0
0
0
0
0
0
0
0
0
0
0
0
0
0
0
0
0
0
0
0
0
0
0
0
0
0
0
0
0
0
0
0
0
0
0
0
0
0
0
0
0
0
0
0
0
0
0
0
0
0
0
0
0
0
0
0
0
0
0
0
0
0
0
0
0
0
0
0
0
0
0
0
0
0
0
0
0
0
0
0
0
0
0
0
0
0
0
0
0
0
0
0
0
0
0
0
0
0
0
0
0
0
0
0
0
0
0
0
0
0
0
0
0
0
0
0
0
0
0
0
0
0
0
0
0
0
0
0
0
0
0
0
0
0
0
0
0
0
0
0
0
0
0
0
0
0
0
0
0
0
0
0
0
0
0
0
0
0
0
0
0
0
0
0
0
0
0
0
0
0
0
0
0
0
0
0
0
0
0
0
0
0
0
0
0
0
0
0
0
0
0
0
0
0
0
0
0
0
0
0
0
0
0
0
0
0
0
0
0
0
0
0
0
0
0
0
0
0
0
0
0
0
0
0
0
0
0
0
0
0
0
0
0
0
0
0
0
0
0
0
0
0
0
0
0
0
0
0
0
0
0
0
0
0
0
0
0
0
0
0
0
0
0
0
0
0
0
0
0
0
0
0
0
0
0
0
0
0
0
0
0
0
0
0
0
0
0
0
0
0
0
0
0
0
0
0
0
0
0
0
0
0
0
0
0
0
0
0
0
0
0
0
0
0
0
0
0
0
0
0
0
0
0
0
0
0
0
0
0
0
0
0
0
0
0
0
0
0
0
0
0
0
0
0
0
0
0
0
0
0
0
0
0
0
0
0
0
0
0
0
0
0
0
0
0
0
0
0
0
0
0
0
0
0
0
0
0
0
0
0
0
0
0
0
0
0
0
0
0
0
0
0
0
0
0
0
0
0
0
0
0
0
0
0
0
0
0
0
0
0
0
0
0
0
0
0
0
0
0
0
0
0
0
0
0
0
0
0
0
0
0
0
0
0
0
0
0
0
0
0
0
0
0
0
0
0
0
0
0
0
0
0
0
0
0
0
0
0
0
0
0
0
0
0
0
0
0
0
0
0
0
0
0
0
0
0
0
0
0
0
0
0
0
0
0
0
0
0
0
0
0
0
0
0
0
0
0
0
0
0
0
0
0
0
0
0
0
0
0
0
0
0
0
0
0
0
0
0
0
0
0
0
0
0
0
0
0
0
0
0
0
0
0
0
0
0
0
0
0
0
0
0
0
0
0
0
0
0
0
0
0
0
0
0
0
0
0
0
0
0
0
0
0
0
0
0
0
0
0
0
0
0
0
0
0
0
0
0
0
0
0
0
0
0
0
0
0
0
0
0
0
0
0
0
0
0
0
0
0
0
0
0
0
0
0
0
0
0
0
0
0
0
0
0
0
0
0
0
0
0
0
0
0
0
0
0
0
0
0
0
0
0
0
0
0
0
0
0
0
0
0
0
0
0
0
0
0
0
0
0
9921.91
10931.2
10139.2
9831.55
11454.4
11105.7
11113.1
12917.1
11206.8
10727.2
11074.4
10206.2
9354.55
10046.3
10474.2
8093.05
10720.2
11048.8
11074.8
11516.9
10724.6
11360.8
10896
10773.5
11647.3
11026
10835.2
10945.6
10636.6
9820.32
8049.27
10325.3
10852.4
10443.7
10638.9
10269.4
9427.55
10230.3
10769.4
10348.4
10123.3
10367.2
11678.6
10579.4
11389.8
12165.5
12991.6
13510.9
10882.6
10604.6
11205.4
10871.7
11231.5
10353.5
10190.6
10268.4
9369.26
10246.2
10455.5
10615.6
10265.9
10664.2
10471.8
10702.1
10981
10303.1
11526.1
12436.6
12459.1
12900.4
11014.3
10474.6
10016.6
10826.4
10157.2
8540.69
10998
9919.79
11373.2
10712.8
10549
11960.7
12228.4
10799
11550
12082.2
11661.9
11820.5
8866.89
10167.9
12381.3
12171.6
12309.1
12300.4
10604.5
12959.8
1127.74
215.906
1689.84
984.002
942.862
59.8412
110.295
71.6737
1132.86
1066.37
140.296
80.0108
34.5541
1600.05
79.1836
1100.82
133.732
1662.07
1680.97
4863.22
203.087
102.896
138.692
172.784
1344.18
2766.18
1828.79
102.642
99.4844
1261.12
144.283
1735.29
106.565
1070.67
1652.32
772.472
50.3183
107.847
105.223
3926.25
3607.23
181.867
228.401
180.516
906.921
1082.42
78
97.3739
68.0044
3029.33
3562.4
252.412
70.5124
164.56
1100.29
52.4096
3250.86
1168.39
1447.74
97.109
436.99
176.686
93.3135
1880.79
2585.61
2575.5
884.51
137.181
138.38
63.0454
138.068
1048.89
211.244
1843.08
1016.65
126.458
62.106
13.2715
1585.82
970.867
97.2286
74.0979
5.23109
144.13
200.145
162.637
0
89.8069
80.2506
0
81.8649
83.5326
14.037
32.5631
0
25.2344
87.1871
37.123
36.9484
163.922
131.069
108.06
61.5868
41.4578
138.249
65.5101
91.3625
37.2215
68.9523
0
106.024
17.1621
106.701
1.41738
76.2711
88.7389
112.715
95.7262
0
73.0199
118.01
0
92.5279
259.69
153.537
138.78
219.39
172.864
32.146
61.5871
0
36.81
77.405
83.7895
108.948
292.237
99.6008
102.677
140.413
79.5312
78.011
107.74
62.6799
22.4257
38.9539
122.695
66.1868
111.979
93.4663
112.678
34.9873
81.6956
67.8083
81.6547
105.559
285.336
317.947
55.0927
-2.5824e-16
173.445
49.7613
0
17.5332
0
27.7593
30.5194
0
29.7975
108.84
63.5884
18.0235
67.115
84.0803
0
70.8056
121.128
12.4491
46.8541
0
5.97612
71.2203
48.0675
80.5038
120.742
80.1398
45.2751
56.8025
32.5111
106.315
79.0002
48.9557
15.9553
91.2786
8.79752
52.5283
56.9932
96.7017
16.856
76.6921
125.044
131.716
86.4263
0
145.543
44.2564
0
97.4226
213.185
173.86
133.277
303.558
206.501
57.2951
73.1999
6.93708
56.1811
92.7862
271.719
113.74
273.677
110.497
134.525
69.6999
167.464
33.5591
176.884
75.2898
66.7804
22.8091
90.6961
70.625
64.5153
96.473
124.646
29.5594
91.7876
97.2238
157.864
173.693
243.735
243.206
24.3687
0
131.804
50.8511
27.6022
27.7261
0
31.1903
18.9989
0
28.4521
114.675
76.6865
0
17.9828
109.458
18.0834
79.1822
93.0643
41.2863
90.2928
0
21.0396
70.5302
75.94
67.465
101.09
84.0882
82.615
52.4721
88.7
57.5016
84.7075
17.973
124.081
131.741
25.8163
66.4122
38.0496
106.178
12.5944
83.0743
137.569
38.6066
16.6367
0
56.3329
46.574
0
33.6765
266.724
212.469
72.4223
218.808
209.86
82.0763
71.4587
0
101.475
42.2529
168.523
101.146
218.508
220.423
94.1477
69.9501
117.319
42.4044
105.461
75.7515
55.7277
38.2762
113.42
114.078
42.1069
104.372
112.045
-5.69772e-15
61.5637
52.396
96.1936
147.854
268.978
189.09
53.3076
0
67.6035
69.9391
0
69.49
0
22.8327
29.1941
0
55.9298
49.6041
34.2246
-1.54166e-14
93.1441
64.4575
0
13.6448
28.4128
54.6372
91.9134
0
52.145
56.2941
50.0644
44.4254
38.5758
97.8386
44.6111
13.8958
53.1717
57.8332
30.327
48.1543
52.0366
109.185
0
56.4639
31.5233
36.1563
11.1815
52.217
139.625
89.4196
51.2602
0
55.1357
47.019
0
25.0641
198.56
297.091
37.0721
133.877
314.33
64.9785
63.5757
0
42.2129
44.9278
459.151
106.688
209.595
460.606
63.6719
104.996
50.5154
55.6961
57.7255
74.0166
15.0367
54.4466
46.0606
91.0014
40.7926
72.242
73.3249
0
46.7985
63.3694
63.9123
79.6773
212.196
206.426
47.1448
27.0342
116.151
35.749
-1.75865e-14
28.9717
0
25.7471
32.995
0
81.7433
103.521
186.006
0
38.0865
16.8122
0
71.2737
46.3975
58.5934
68.3851
0
17.902
36.3253
32.3346
33.6119
74.5788
95.2719
29.6632
23.9147
30.9626
201.029
50.6952
14.097
29.2124
76.283
27.6426
88.9865
28.255
92.8075
43.4758
50.1363
30.0926
48.3225
1.85337
18.4927
28.892
32.9417
0
52.8506
370.378
109.635
1252.48
96.0165
12.2798
132.157
105.196
11179.3
9611.55
13648.6
33.7983
271.258
167.7
891.776
17.3838
31.2865
-1.67585e-14
16.7581
14.716
6385.06
125.143
378.635
188.189
188.34
97.8775
15.1714
24155.3
8790.78
16785.7
185.245
1066.39
57.0052
243.087
55.663
66.9211
62.3153
52.9935
48.2295
16.1264
29.8965
85.4303
52.0744
40.221
95.1333
131.612
-6.83688e-16
38.1033
62.742
105.637
132.749
80.7076
144.103
37.5157
0
111.42
68.6181
0
30.6173
0
35.593
35.9994
0
120.076
155.99
119.615
17.8718
51.7513
68.2626
18.3787
36.3213
61.1026
10.8517
25.0311
0
28.9729
31.5135
94.3416
33.1013
107.172
127.555
61.4823
11.8039
10.6589
168.41
61.4857
50.93
56.6624
68.1805
59.6109
27.546
26.0179
91.8346
26.4549
39.0873
41.8938
0
32.038
0.155868
0
0
0
0
34.8606
0
67.5257
31.1304
0
71.4763
26.4781
138.236
69.26
60.5224
22.3542
123.959
38.2036
0
0
0
0
0
0
0
39.3934
18.942
0
52.0896
38.8447
164.628
85.5655
13.7425
265.76
208.054
65.1918
12.5071
0
0
0
0
0
0
0
91.6232
68.012
31.621
82.8878
83.1401
40.8077
24.8349
108.204
50.3528
39.0119
73.9872
70.6626
6.32431
24.1819
106.03
134.728
-8.91218e-16
73.8492
4.69928
0
0
0
183.647
250.892
25.1453
19.497
56.7017
23.7132
19.9791
61.346
0
35.4359
76.2625
0
141.851
96.2963
102.983
72.4442
71.5967
72.3997
11.2107
79.9974
81.617
20.311
65.4711
0
49.0771
83.3261
37.5229
81.2047
135.667
76.0995
60.0701
70.5149
116.868
72.5865
46.6599
22.9886
76.9319
109.424
20.8717
38.8768
47.542
127.375
11.2099
22.5225
38.7244
4.31773
72.8916
0
0
0
0
0
56.2806
0
80.7381
19.1603
0
51.3859
8.11766
157.27
57.6717
66.2746
2.78897
149.742
100.812
0
0
0
0
0
0
0
75.9675
52.3419
0.258608
97.2306
60.5839
215.033
88.0056
26.5199
246.218
239.627
89.5057
28.4755
0
0
0
0
0
0
0
111.864
171.915
20.0184
152.84
85.1753
31.1962
12.5307
134.176
84.5989
19.1534
65.7701
104.687
0
9.23988
57.5016
103.489
-1.49435e-15
39.9016
0
0
0
0
187.913
187.258
29.1809
0
91.6773
21.2165
0
66.0539
0
31.8346
82.8844
0
129.068
73.1552
84.6933
5.93232
60.7602
52.0439
17.3402
40.868
37.0928
64.1084
64.2764
0
57.7906
53.6402
110.441
46.6431
41.7687
122.511
77.9452
45.3451
87.5222
61.5502
31.0831
46.6907
28.9394
73.6448
19.4183
25.0602
36.9565
179.814
38.6271
38.9106
56.1768
114.338
45.4654
0
43.9849
31.3
0
36.6169
11.0616
141.645
134.859
70.1265
15.1135
157.194
119.093
0
0
0
0
0
0
0
90.2841
32.7075
0
53.7105
43.9628
345.094
73.3061
31.2383
339.229
411.902
79.9277
3.0637
0
0
0
0
0
0
0
107.648
63.1064
29.2608
58.7818
67.7575
78.5427
54.7012
116.972
86.2817
35.1866
50.5868
81.716
5.4965
15.1949
40.695
49.7888
46.7203
188.528
185.538
17.6088
0
57.0084
18.6869
0
92.9805
21.0284
23.034
90.9121
18.0456
121.913
51.4965
48.946
17.7427
42.3946
47.0934
0
40.9223
51.2008
74.4348
59.3843
0
29.2177
51.4132
31.7706
58.0645
29.2734
29.4248
48.6635
17.5473
42.3854
64.7459
31.4473
35.0391
26.6504
157.438
51.2855
72.2162
111.44
78.9896
94.912
53.9116
88.5886
136.19
17.1881
0
26.7292
24.6764
19.5443
36.7473
93.6901
232.033
106.61
142.59
365.097
64.2566
12.9886
14.0004
43.0577
23.2852
577.074
67.5645
355.393
5102.15
70.6907
50.3851
75.1267
61.734
49.1664
84.0975
37.0168
16.3252
62.7296
76.0626
11.6801
44.2653
82.2209
0
22.106
61.353
111.25
16.2724
222.192
282.745
9.0106
0
103.232
47.6084
0
74.1807
0
19.6879
62.0484
0
173.371
71.6581
64.4625
0
32.8204
50.2242
0
29.7226
18.3396
45.1912
48.6204
1.60677
54.6899
33.7917
68.3702
51.0521
72.9602
63.1592
44.3497
30.1412
68.3913
80.7493
38.108
38.2072
49.3742
87.6382
75.2524
50.6072
48.0073
59.1129
36.7313
30.5751
79.462
64.8582
39.6464
0
12.8765
16.2392
0
30.1343
170.894
284.893
74.0073
154.526
238.211
44.552
28.3172
0
21.0381
10.8629
1970.17
93.057
446.724
2338.76
74.4759
74.4631
49.441
23.6525
37.8698
53.9702
29.7108
30.5148
75.7685
75.1436
14.8684
73.0374
97.9755
0
20.9369
60.9342
86.067
92.5046
265.406
328.403
31.6841
0.840376
100.786
32.7681
19.5798
86.9553
0
6.61627
82.8266
0
103.786
130.849
131.804
0
24.9389
28.8414
0
56.2938
41.0362
31.8023
57.009
18.2025
19.4556
26.6899
48.6005
37.6685
20.2336
49.5878
43.8867
60.2962
79.5666
110.437
66.738
50.8612
57.2314
72.8437
49.6755
24.9929
52.2267
108.355
144.568
26.6007
41.2459
36.8473
22.5019
0
17.7784
19.4838
19.6138
26.8662
170.168
377.95
98.7805
197.578
421.424
30.215
5.54957
0
20.6383
5.85493
1729.06
100.015
533.246
1663.87
129.455
21.4226
19.1661
0
33.6049
86.0838
17.147
10.3064
26.3566
157.292
30.3933
98.6715
110.579
0
17.9116
130.225
103.433
144.804
220.451
175.674
28.4132
0
108.315
33.559
0
122.73
0
98.1779
170.022
0
201.206
89.0983
125.028
18.3435
46.5843
18.0684
-1.29209e-14
50.8878
53.7824
13.6478
18.9755
0
9.13228
21.5289
17.7887
20.5947
99.0998
132.065
46.7258
76.5733
54.4595
111.849
50.3749
75.4598
66.2836
53.6321
68.5728
69.4939
38.3175
21.1459
35.1945
54.763
64.4224
45.8563
12.0918
18.8966
42.1586
17.4917
4.80932
52.1367
230.676
480.6
57.9216
221.985
468.916
14.3962
29.4459
2.29514
34.9188
19.0577
2273.61
132.237
732.946
2642.55
143.213
24.1461
53.5521
10.2445
39.8475
131.129
41.1475
16.9961
105.241
106.891
61.3186
88.4221
74.2129
7.3678
61.8228
85.9861
72.2282
107.866
169.551
131.108
15.9319
0
114.02
25.1569
0
176.71
0
34.4394
164.915
0
130.528
86.6682
123.746
71.2568
55.6364
57.2518
-2.33467e-14
39.461
37.6328
22.5357
15.5572
0
22.8681
50.3432
9.22769
39.2703
55.6483
31.985
48.7101
57.4445
106.778
109.961
55.9663
43.5531
88.6876
34.6107
17.5501
16.6869
24.4818
51.2454
26.5566
29.6531
28.7587
46.6287
28.0971
15.8072
56.5343
54.6423
18.5138
69.8159
241.251
385.822
74.6223
219.835
457.361
25.1308
39.1922
20.8859
109.186
45.5909
1829.9
175.935
943.765
1981.99
204.788
65.9526
79.2125
25.8934
57.2847
53.3526
25.3109
24.2556
25.6826
86.708
62.4829
116.675
101.183
1.97957
68.1287
75.6032
79.3984
120.503
190.933
193.804
22.9069
20.9752
131.23
40.1061
0
114.81
0
20.0835
74.2172
0
252.327
88.6362
109.787
36.5356
43.1527
56.7272
54.5556
51.1198
45.7559
67.77
121.131
20.9893
28.0747
66.6968
88.9578
63.3721
58.6902
49.0288
60.6775
46.9781
91.9963
64.1834
42.0845
61.2405
88.2916
44.0127
11.0861
18.3725
61.9263
56.9512
63.4246
8.64546
77.3226
35.2459
28.4246
0
76.1891
28.4598
0
107.625
241.675
469.247
140.829
220.737
462.169
77.4871
81.3678
26.4174
32.7462
71.6117
2325.27
198.366
1024.02
3146.41
265.61
62.4499
96.2106
38.2848
21.3946
141.293
37.472
26.361
54.2136
113.173
72.4115
66.7301
74.0255
0.189145
55.2042
79.3199
55.3272
118.378
183.695
152.648
47.0669
0
133.598
18.0035
34.6623
122.939
0
52.7362
158.592
0
178.701
107.637
92.2996
18.8778
34.6453
28.5524
37.0625
62.9453
42.2235
15.7192
32.632
0
35.5097
44.143
86.7213
65.8256
35.7902
45.6293
52.965
71.0644
35.8396
77.7257
60.6279
98.146
101.48
41.0972
18.716
28.4183
37.1107
34.4368
4.8945
12.2141
34.2299
18.5436
35.4618
0
20.8568
13.8035
0
27.4152
262.212
619.203
66.6852
216.959
848.577
66.5195
33.2247
18.7234
75.6375
59.1448
2621.23
400.899
1261.41
3875.53
423.012
82.8442
53.551
27.7321
41.1404
113.585
31.6422
25.229
59.6069
184.541
119.484
65.1896
67.1552
36.9328
99.272
71.1783
79.6025
218.94
160.71
167.423
42.5674
7.22523
210.168
51.8021
0
117.663
20.451
64.5312
113.784
0
224.844
55.492
102.505
37.6298
45.6675
55.723
20.2965
65.0881
42.2022
15.4007
38.2325
15.6913
21.5109
43.409
41.3533
135.165
64.8818
110.061
32.7919
68.5442
47.1636
76.2365
68.7325
75.6934
23.4086
63.2654
51.4605
34.7969
21.2094
51.3003
25.0273
49.8899
68.5697
39.1573
39.6452
0
21.5772
53.7114
39.3763
23.7516
273.042
579.081
93.9231
264.45
657.248
39.2955
12.0036
1.23711
22.0602
5.5308
3462.94
522.859
1373.08
3995.4
722.824
53.3057
49.061
7.95951
74.5786
101.222
5.15234
27.0717
32.1321
145.356
106.875
108.832
73.409
44.3655
148.282
147.181
74.7323
345.784
62.7783
54.8822
43.4151
21.1972
92.0404
64.5903
62.9864
174.836
1.5146
75.8238
129.69
-6.06312e-16
265.46
37.2243
30.4382
52.5322
53.1933
55.6108
62.9156
57.1368
15.4889
10.2519
43.0167
21.0168
0.126973
52.4982
69.1942
43.0509
44.3003
49.7758
59.0507
48.5191
14.9258
27.7851
57.5121
53.6714
19.0541
68.5377
31.0892
20.9793
57.9955
58.3459
29.7095
27.2134
90.6634
82.2092
51.0212
54.9086
89.8947
16.9438
27.5374
25.1092
276.749
1106.6
79.933
265.456
1208.5
26.3899
25.954
38.3274
28.3381
21.6666
4248.4
902.101
1394.39
5775.41
1467.58
75.3208
47.7773
9.15474
22.7307
50.137
49.4464
11.3167
57.5063
73.9552
185.502
203.812
163.347
87.9593
227.13
287.801
278.226
838.834
60.6996
40.47
90.4715
20.8185
163.226
55.1834
63.4563
97.6685
21.6977
134.93
106.011
60.5754
392.661
27.3953
107.215
56.6615
70.1134
44.5666
89.1911
30.6448
56.2407
5.2443
40.053
0.930402
8.9558
41.9664
29.6921
63.6173
10.2607
43.6446
54.2063
76.8045
24.4004
40.43
42.7513
62.372
53.7718
56.685
22.5596
37.8343
48.4639
67.1001
41.3475
43.973
69.7599
32.9063
68.3474
27.8457
9.41575
40.2852
13.5827
20.0538
210.846
980.201
71.7159
183.15
1627.78
47.6921
18.1201
18.6476
60.109
29.3812
5599.74
3341.78
3719.67
6688.39
5754.93
59.7696
37.2916
0
76.3531
29.3518
40.6783
0
44.3965
33.0444
409.851
434.05
500.998
187.082
1029.93
562.121
931.107
5337.46
84.9867
49.7981
24.9266
20.9147
97.8483
31.2887
42.9011
115.239
39.2808
128.521
96.991
49.3434
325.351
82.7746
100.766
3.78816
33.2447
74.7727
0
64.2879
30.5043
24.6306
48.6569
0
22.2556
28.4689
32.6758
52.6068
38.5326
101.281
17.418
67.454
78.497
50.0925
31.2433
79.2127
0.820665
151.505
73.8098
78.7105
55.0619
121.524
126.08
171.122
60.2426
75.2555
15.4218
28.1692
17.6016
27.9202
24.2259
50.1607
196.132
1838.86
73.9965
199.542
1336.94
35.86
19.811
41.5815
19.5597
24.4594
9753.68
10025.5
8527.87
9219.81
15333.2
25.9085
17.8141
7.45858
27.4875
29.4872
36.0374
5.74717
54.77
41.6797
4045.07
965.289
3101.71
1064.81
9699.15
2283.59
6324.35
6708.17
59.6133
48.666
18.2948
83.9902
117.014
26.8687
20.9871
136.666
115.509
82.0373
164.43
99.3436
542.776
42.1687
11.2247
19.6042
53.207
38.7347
20.3802
35.3294
14.7943
5.53754
19.7995
21.1123
30.3164
46.1873
52.6471
110.165
56.7393
66.2219
42.5055
80.3106
33.6738
55.9705
56.3246
46.5808
18.6146
146.063
63.7796
132.304
52.2541
41.5614
85.3593
374.263
165.159
206.267
50.435
20.872
29.0233
30.8282
0
27.4448
285.682
1931.75
250.575
291.887
2012.45
11.258
28.5067
0
5.18664
20.2046
6433.1
13577.7
11175.6
9114.05
12793.7
99.7603
79.9023
0
73.7528
44.0045
20.5184
0
21.632
38.9266
12065.3
8496.99
8028.99
10298.3
13801.3
17470
7550.19
8762.72
28.3519
39.1727
29.8339
0.433633
51.2829
28.3572
37.2296
234.095
59.141
139.292
410.797
76.1062
3019.9
30.959
46.1739
19.6467
24.5844
14.5333
40.3876
41.5796
4.9712
16.611
37.6583
0
30.3073
15.6817
78.1557
118.825
23.5026
98.0376
38.5343
42.1564
5.32248
16.014
22.0948
53.6497
16.1898
0.34081
0
36.7545
38.0919
61.1008
0
19.37
60.2349
20.3598
25.5839
0
35.9364
68.1647
63.318
42.3411
448.249
1086.61
55.1729
368.022
671.739
10.4798
0
20.2882
45.5237
13.8131
8424.04
14601.7
13695.3
6610.9
4009.83
55.6639
-3.36671e-15
14.7739
27.6656
36.5999
13.2499
10.7128
43.9921
31.5707
38153.1
30520.7
9541.59
16087.9
11813.9
18859.2
12391.4
3000.86
28.6479
44.8364
20.3045
0
33.6804
5.32961
0
688.967
9.81951
31.8061
1017.12
0
7237.46
72.1064
23.9924
19.8801
59.2621
15.2874
26.0625
35.3572
19.9893
12.3314
6.26087
56.9409
13.5756
33.8685
68.6238
20.8046
26.9454
59.3131
38.6904
44.178
11.4683
39.2126
23.9183
40.5562
12.6584
60.8124
0.198589
12.1378
20.031
42.3701
10.7262
14.3875
23.9842
50.1599
19.9335
0
19.2803
12.874
20.9496
10.1139
159.951
317.24
33.532
68.502
155.105
14.9648
17.393
0
25.5821
1.7938
5674.17
4465.63
8077.91
4460.07
12825.6
22.1654
44.9327
11.0284
34.9252
39.6116
54.4258
10.8577
37.2081
43.9896
4949.24
21193.8
6795.11
16265.2
6355.08
8703.7
7844.17
7462.69
49.5727
92.9633
-9.44141e-17
0
52.4298
0
0
1080.51
0
20.3575
1406.47
0
10057.7
0
31.6697
59.6813
33.8008
54.2163
15.2739
52.7695
38.4281
10.8399
-1.91413e-15
15.3772
30.5041
18.815
19.6503
40.5501
76.0412
56.4712
14.2233
20.3383
8.79562
11.2086
15.5138
25.8139
16.0005
68.6634
0
43.9838
14.1264
87.079
8.90727
48.4269
32.548
59.9412
32.4253
24.9474
12.0831
47.3421
37.1831
57.1141
33.7985
50.5067
52.2083
29.941
67.986
18.3447
7.20488
19.6483
9.33242
22.9827
2844.7
10296.2
14987.1
2238.45
12568.4
17.1378
10.9741
10.654
32.8544
21.2299
20.8564
30.0448
32.2984
26.8541
16967.7
1859.57
8511.05
6939.87
12246.1
14066.9
8973.86
9075.41
47.3546
26.8408
4.50484
19.5524
26.6073
42.1336
-3.82786e-15
2143.44
0
33.9796
1583.54
10.9573
11522.8
68.9576
40.7339
84.747
64.1888
29.5278
19.1146
46.5522
29.0105
31.9383
19.7863
20.9632
26.7144
47.2493
33.3191
13.9221
49.8023
34.2022
42.506
84.9362
0.149686
41.4578
31.95
42.1744
15.9716
41.0331
0
8.56069
14.0446
48.2857
0
33.0806
57.9709
95.7526
16.2022
20.8226
26.1424
30.7041
0
19.6154
16.9867
56.8601
40.4714
14.3707
31.8734
11.5181
27.1907
12.7771
10.7621
13.5049
1815.78
10514
4212.18
990.427
11954
14.3393
28.5646
-1.62347e-15
45.3186
37.4133
12.4846
14.2701
14.6278
44.2824
28678.2
10451
12292.6
10880.6
7863.24
2883.89
8869.1
7301.53
30.2586
50.8166
31.1354
0.658982
16.7642
67.9608
54.3843
1804.96
61.491
38.4182
2371.48
45.2317
4082.39
51.8342
22.3166
18.7694
55.0283
44.2111
19.3895
50.0113
46.6139
14.6533
6.01539
49.5889
36.7625
3.48289
37.9495
66.2483
32.4614
51.6467
49.741
24.2439
20.5742
29.3443
16.7707
27.7416
42.6464
60.9533
14.8792
26.1251
8.24888
9.37855
0
14.1193
120.43
58.0166
45.3208
0
18.5261
58.4224
40.3768
33.7837
15.7164
37.4958
22.5018
26.3462
27.3256
20.2138
41.0353
0
10.2472
66.692
618.587
9861.3
1574.21
349.019
24020.4
-1.64354e-15
10.0269
10.4299
15.961
18.9351
4.55762
15.5796
12.7132
26.8843
4590.42
5604.74
3769.68
3503.06
53029.9
4885.71
4791.43
4414.93
27.2044
68.0145
7.87269
67.1469
46.5645
17.8803
17.8849
2297.22
38.7654
20.7019
1273.15
43.9862
5647.68
28.9401
49.5247
146.92
43.4634
16.9133
21.5434
31.2095
31.2274
39.2109
23.0849
93.0088
18.123
27.9867
55.7324
79.8834
56.0634
17.4506
33.3012
33.9104
24.8901
17.9425
20.8871
33.426
25.4464
23.2538
0
18.5998
10.2313
11.2231
10.3581
18.6807
59.6845
24.2099
27.4126
19.9452
18.2581
20.1368
19.7667
39.7267
21.5921
40.2762
30.1311
24.2812
108.013
28.9776
12.7621
0
16.9033
12.902
238.529
6316.87
429.519
131.328
16981.9
0
31.6241
30.5559
8.00596
26.5614
4.68309
0
31.3056
20.6728
15016.7
29321.2
9999.06
4215.38
16420.2
16649.9
13475.3
7785.05
89.5779
48.4723
13.2844
0
57.9947
27.4334
51.0539
789.112
21.9735
13.4905
621.187
24.3031
10325.9
44.2579
23.6929
103.512
22.7221
45.4532
23.4264
46.9886
33.0394
24.2739
33.1809
7.28058
28.3547
5.90031
3.11618
45.2942
15.8399
41.8848
23.5417
54.178
22.3331
12.3764
20.0601
27.9759
23.4446
7.6287
0
8.84448
20.6604
20.9239
5.33862
23.18
80.2924
30.516
23.8704
0
21.9981
41.4174
20.1491
38.1111
46.5571
78.9746
47.52
51.0467
107.099
10.3316
12.5649
0
13.0906
22.8238
179.608
9833.33
75.4646
150.049
12837.7
10.8325
34.5343
5.14716
7.98664
25.5533
11.244
5.1041
28.0769
19.9469
15917
8808.49
7915.88
1573.13
9151.73
15181.8
9678.47
11257.8
31.269
69.3344
48.0086
51.3422
39.5701
60.4419
82.4684
423.463
52.619
25.7564
253.98
140.586
7759.41
33.2548
36.7356
0
45.8989
34.0721
10.4703
29.5277
56.2395
43.0437
26.9435
66.0214
8.83476
31.9007
29.8936
70.9388
35.3424
39.5485
34.8094
40.058
12.774
21.7981
32.8094
42.7296
32.9987
0.412092
0
7.0834
18.9411
15.8812
5.38617
13.0321
76.3845
47.2008
28.2766
15.2795
20.7018
31.4433
23.1618
9.21715
46.836
142.977
63.5469
51.1958
123.002
4.00889
12.8377
6.46996
19.378
14.6118
176.39
6832.23
60.6992
166.309
2804.11
28.9295
38.2657
0
12.3271
37.1371
14.1922
12.4018
14.9342
22.1862
36561.1
2436.75
1517.48
670.743
12308.2
7644.96
10338.4
15943.4
42.4429
55.3949
25.8773
131.948
58.561
30.2781
45.5487
169.428
58.5006
15.867
159.682
59.6868
20994.9
46.5347
30.6633
5.83269
50.613
33.1738
33.8394
67.4479
40.1894
44.1017
40.5712
16.2549
46.5255
34.2898
95.5194
30.5071
6.1465
32.6783
45.1446
55.7588
44.1204
44.0725
32.2315
49.7005
22.2738
15.9297
8.42663
8.30731
19.139
24.987
0
8.60529
35.9894
44.5007
21.0336
18.9663
27.9936
20.9721
25.5892
11.4821
47.7308
157.863
77.572
59.6232
125.446
13.6279
21.5039
12.9795
13.7518
33.5565
263.811
1315.17
105.144
477.766
735.774
34.3094
3.95183
5.17462
9.69867
27.5612
10.0634
10.0231
19.3153
7.21554
18653.4
7996.8
4288.17
303.098
9707.74
4074.76
15674.5
15326.6
81.634
75.8013
21.2955
73.8153
57.7039
47.3796
226.241
142.11
116.243
60.0273
160.981
260.222