/*--------------------------------*- C++ -*----------------------------------*\
| =========                 |                                                 |
| \\      /  F ield         | OpenFOAM: The Open Source CFD Toolbox           |
|  \\    /   O peration     | Version:  5.x                                   |
|   \\  /    A nd           | Web:      www.OpenFOAM.org                      |
|    \\/     M anipulation  |                                                 |
\*---------------------------------------------------------------------------*/
FoamFile
{
    version     2.0;
    format      ascii;
    class       volScalarField;
    location    "5";
    object      p;
}
// * * * * * * * * * * * * * * * * * * * * * * * * * * * * * * * * * * * * * //

dimensions      [0 2 -2 0 0 0 0];

internalField   nonuniform List<scalar> 
10571
(
216.739
144.485
196.926
216.899
221.23
91.7611
196.65
214.026
223.524
227.384
42.0579
41.8084
79.2572
206.506
228.233
230.202
55.3698
83.7329
149.866
223.005
226.372
46.8581
47.0604
160.178
183.549
32.8905
34.3555
164.354
194.58
27.6196
27.711
58.4391
142.997
185.671
27.6393
26.7026
19.6378
29.2619
89.0446
175.505
17.5492
18.6824
18.8883
55.2167
136.207
18.2625
26.9104
26.4723
39.867
24.5272
21.466
28.9666
54.6095
25.9601
20.5849
22.8255
32.4757
97.9155
16.8857
19.7674
21.9454
23.1702
26.5193
86.0294
18.7226
19.9533
20.8736
22.657
32.9195
19.5717
20.1616
21.5102
22.1144
17.8345
22.1661
21.9525
22.227
14.5401
22.2093
24.8382
19.9573
38.1814
16.5984
15.8745
18.5753
21.5198
21.03
38.6994
17.4238
17.6222
18.2442
21.3144
23.7457
18.2346
18.7341
19.0008
20.2092
15.101
21.8153
20.1994
21.0263
15.4779
20.0424
20.3566
19.2958
21.5647
16.1033
15.8084
15.2791
17.5182
18.7376
20.8051
16.5518
16.1026
16.1098
17.5048
16.1919
16.91
16.604
16.9389
18.3011
14.7248
14.4424
17.9191
17.7872
14.8802
14.5542
16.7487
18.7868
17.0194
14.1096
15.4855
15.2741
14.0169
14.4048
16.1836
14.8569
13.9086
15.7789
15.1809
14.4071
14.3444
14.2178
15.8419
15.0038
14.7073
14.5254
14.1016
13.9258
16.2427
16.4027
14.4745
13.4995
14.2712
16.1926
14.1961
13.9907
14.9292
14.7662
13.9762
13.5986
13.8453
13.8573
13.9226
15.0859
14.616
13.6899
13.7578
13.9123
13.9473
15.0473
14.196
13.8884
13.7091
13.9226
13.7939
13.5495
14.1534
14.0711
13.7887
13.6585
13.7169
13.7506
13.9008
14.5292
14.353
14.0684
13.8424
13.8416
13.8177
13.8892
14.5994
14.2745
13.7973
13.7866
13.8488
13.938
14.5421
13.9812
13.824
13.7057
13.8278
13.7474
13.7718
13.708
13.8823
13.7084
13.895
13.8235
13.8202
13.874
14.2498
14.0995
14.0511
13.8652
13.8232
13.8697
13.8844
14.294
14.0885
13.8688
13.866
13.8271
14.2656
13.9577
13.8974
13.7492
13.6291
13.6084
13.8151
13.6923
13.7047
13.6565
13.8059
13.7376
13.8351
14.0524
13.954
13.9234
13.8936
13.8701
13.8819
14.1353
13.9154
13.9069
13.9438
13.9197
14.1119
13.9537
13.9265
13.7116
13.5332
13.4804
13.7471
13.7868
13.5776
13.5592
13.803
13.7956
13.853
13.9895
13.8967
13.8261
13.8818
13.8799
13.8991
14.0314
13.7671
13.969
13.9936
13.9588
14.0005
13.9554
13.9572
13.7098
13.464
13.3306
13.6921
13.8102
13.5301
13.4445
13.7799
13.8219
13.8887
13.9841
13.8466
13.7691
13.8666
13.9023
13.9259
13.9668
13.7712
14.013
14.0259
13.9973
13.9511
13.9531
13.9789
13.7176
13.3861
13.1473
13.6706
13.8237
13.4918
13.352
13.7481
13.8615
13.9242
14.0311
13.8086
13.7252
13.8585
13.9262
13.9497
13.9404
13.8916
14.0317
14.0409
14.0209
13.9609
13.9622
14.0002
13.772
13.5005
13.1764
13.7102
13.8954
13.4453
13.266
13.7361
13.9019
13.9797
14.0415
13.7856
13.7086
13.8624
13.9498
13.9768
13.9346
14.0272
14.06
14.0589
14.024
13.9809
13.9968
14.0305
13.901
13.8094
13.5405
13.8287
14.0188
13.4839
13.2309
13.7458
13.9477
14.0506
14.0056
13.7461
13.7253
13.87
13.9665
14.0156
13.9151
14.1243
14.0615
14.0674
14.0224
13.9929
14.0305
14.0502
14.0883
14.1322
13.9649
14.0006
14.1577
13.5807
13.3138
13.8031
14.0191
14.1413
13.9769
13.6737
13.7334
13.8714
13.9722
14.0859
13.9108
14.0988
14.0146
14.0229
14.0388
14.02
14.0439
14.0405
14.3206
14.4407
14.2155
14.2044
14.3388
13.8042
13.543
13.925
14.1372
14.2581
14.0121
13.6185
13.7204
13.8658
13.9906
14.162
13.9319
13.9849
13.9363
13.99
14.0695
14.0107
14.001
14.0037
14.577
14.6526
14.4656
14.4479
14.5458
14.162
13.921
14.1069
14.2895
14.3946
14.1843
13.7229
13.787
13.8306
14.0133
14.2189
14.0395
13.924
13.8277
13.9599
14.0927
14.0088
13.9742
13.9757
14.8406
14.8522
14.7251
14.69
14.7237
14.5854
14.2993
14.3281
14.4642
14.5383
14.5185
14.1118
13.9733
13.9469
14.1175
14.3067
14.3213
13.9793
13.8096
13.9269
14.1707
14.1644
14.0325
13.9952
15.0392
15.075
14.9233
14.8833
14.8421
14.8739
14.5687
14.5444
14.6807
14.6973
14.9078
14.6489
14.2475
14.2034
14.3027
14.4303
14.791
14.2511
13.9801
14.0707
14.2814
14.5253
14.2877
14.1947
15.1047
15.1619
14.9802
14.9883
14.9424
14.9773
14.7289
14.7033
14.8735
14.8608
15.253
15.0333
14.6529
14.4878
14.5144
14.6052
15.2936
14.7933
14.4764
14.3595
14.4351
14.9876
14.6785
14.5299
15.0536
15.0311
14.956
14.9973
15.0267
14.9171
14.8015
14.787
15.0035
15.0183
15.2742
15.1416
14.8811
14.74
14.728
14.8499
15.3676
15.0824
14.8687
14.6458
14.6302
15.3053
15.109
14.8781
14.9814
14.8843
14.8991
14.9532
15.0354
14.813
14.7951
14.8167
15.0314
15.1053
15.1733
15.0979
14.9672
14.8823
14.883
15.0677
15.2601
15.1767
14.9692
14.8913
14.9459
15.3401
15.3495
15.1772
14.9317
14.8565
14.8363
14.8926
14.9919
14.8047
14.7777
14.7691
14.9718
15.1039
15.0731
15.0366
14.9629
14.882
14.8898
15.1141
15.1431
15.0891
14.9452
14.914
15.0916
15.2061
15.1938
15.0494
14.8833
14.864
14.8166
14.8466
14.9268
14.8742
14.7796
14.7163
14.8767
15.0361
14.996
14.9798
14.9019
14.8287
14.7997
15.0192
15.041
14.9732
14.8586
14.733
14.9487
15.0571
15.0077
14.8737
14.8489
14.8473
14.8032
14.8108
14.8629
14.8749
14.7604
14.6832
14.7753
14.937
14.9392
14.9271
14.8455
14.7756
14.6964
14.8924
14.9615
14.8881
14.7802
14.6305
14.7956
14.9381
14.876
14.7563
14.8275
14.826
14.791
14.7884
14.8174
14.8405
14.7343
14.6766
14.7071
14.8523
14.8976
14.8856
14.8025
14.7109
14.6064
14.7774
14.9063
14.8395
14.7322
14.6025
14.6953
14.8589
14.7896
14.6886
14.8198
14.8161
14.7944
14.7837
14.797
14.8203
14.7264
14.7044
14.6824
14.8129
14.872
14.8617
14.7823
14.6584
14.5619
14.7262
14.8724
14.806
14.6847
14.5646
14.6517
14.814
14.7384
14.7029
14.8289
14.8201
14.8141
14.8002
14.8007
14.8201
14.7641
14.7417
14.7111
14.8206
14.8636
14.8547
14.7998
14.6245
14.6017
14.7362
14.8531
14.7862
14.6572
14.5436
14.6632
14.8009
14.7209
14.6386
14.8612
14.8509
14.8447
14.8329
14.817
14.839
14.8198
14.7822
14.804
14.8638
14.8726
14.8629
14.8468
14.653
14.8041
14.8597
14.854
14.7865
14.7187
14.836
14.816
14.8078
14.7515
14.7215
14.9057
14.9204
14.88
14.8713
14.8686
14.8717
14.866
14.8297
14.8718
14.9175
14.8926
14.884
14.8948
14.772
14.9531
15.03
14.8754
14.8161
14.7688
14.9094
15.0499
14.8316
14.7928
14.8585
14.9496
14.9959
14.9277
14.9037
14.9288
14.9071
14.9007
14.8533
14.8434
14.9626
14.9158
14.9064
14.9343
14.7928
14.9129
15.1314
14.9071
14.859
14.7617
14.9536
15.21
14.8634
14.8244
14.8971
14.9834
15.0392
14.9769
14.925
14.9566
14.9476
14.9342
14.869
14.7893
14.8384
14.9378
14.9257
14.9372
14.7794
14.8016
14.9543
14.9384
14.9005
14.7826
14.9226
15.0876
14.8972
14.8518
14.8938
15.0249
15.0442
14.9712
14.9785
14.9708
14.9749
14.9492
14.8935
14.8131
14.8056
14.9593
14.9427
14.9419
14.8195
14.7776
14.8569
14.9659
14.9309
14.8319
14.8947
14.9422
14.9302
14.8848
14.8978
15.0543
15.0617
14.8967
15.0185
15.015
14.9861
14.9549
14.9385
14.8534
14.8724
14.984
14.9587
14.9552
14.8831
14.8277
14.8793
14.9917
14.9566
14.8921
14.9071
14.9167
14.9638
14.9233
14.922
15.0872
15.075
14.8513
15.0237
15.0457
14.9962
14.9699
14.9745
14.9195
14.9455
15.0177
14.9822
14.9774
14.9386
14.9038
14.9172
15.0201
14.9818
14.9451
14.9372
14.9401
14.9986
14.9635
14.9564
15.039
15.0832
14.9422
15.0092
15.0518
15.0179
14.9916
14.9851
14.9642
14.9894
15.0559
15.0132
15.0128
15.0076
14.9768
14.9622
15.0481
15.0089
14.9823
14.9719
14.9771
15.031
14.9992
14.9916
14.9756
15.0863
15.0152
15.0025
15.0258
15.0446
15.027
15.0306
14.9897
15.0027
15.0715
15.0363
15.0479
15.0827
15.0314
14.9965
15.0599
15.029
15.0077
15.0011
15.0094
15.0505
15.0227
15.0186
14.9809
15.0841
15.0897
15.0214
15.0146
15.0632
15.0478
15.0832
15.0291
15.0143
15.0616
15.048
15.0558
15.0996
15.0581
15.0247
15.056
15.0344
15.0204
15.0201
15.0314
15.0529
15.0301
15.0334
14.992
15.0725
15.0856
15.0371
15.0343
15.0677
15.055
15.0892
15.0748
15.047
15.064
15.0521
15.0513
15.08
15.0492
15.0395
15.057
15.0317
15.0172
15.0295
15.0392
15.0482
15.0275
15.0405
15.0085
15.0705
15.0581
15.0489
15.0542
15.0686
15.0689
15.08
15.0726
15.0615
15.0661
15.0615
15.0511
15.0671
15.0404
15.0425
15.0617
15.027
15.0121
15.039
15.0437
15.0432
15.0226
15.0446
15.0755
15.076
15.0606
15.0654
15.0663
15.0684
15.0702
15.0755
15.0582
15.0615
15.0701
15.0655
15.0546
15.0617
15.0397
15.0433
15.0634
15.022
15.0117
15.0467
15.0466
15.0378
15.0198
15.0499
15.1142
15.0792
15.0666
15.0797
15.0716
15.0764
15.0598
15.0691
15.0659
15.0637
15.0737
15.071
15.0593
15.059
15.0411
15.0456
15.0629
15.017
15.0065
15.0469
15.0485
15.034
15.0217
15.0577
15.0824
15.0796
15.071
15.0726
15.0735
15.0724
15.0594
15.059
15.0614
15.0654
15.074
15.0691
15.0622
15.0549
15.042
15.0526
15.0602
15.0122
15.0092
15.0562
15.0524
15.0321
15.0278
15.0687
15.0759
15.0846
15.082
15.0796
15.0589
15.0675
15.0626
15.0672
15.0487
15.0719
15.0695
15.0627
15.0598
15.05
15.0416
15.0577
15.0556
15.0112
15.0171
15.0584
15.0604
15.0323
15.0357
15.0812
15.0836
15.0811
15.089
15.1068
15.069
15.0596
15.057
15.0719
15.0492
15.0746
15.0636
15.0556
15.0548
15.0456
15.0384
15.0605
15.0517
15.0093
15.0277
15.0607
15.0696
15.0336
15.0456
15.0838
15.104
15.0743
15.0815
15.1166
15.0989
15.051
15.0528
15.0682
15.0571
15.0806
15.0605
15.0493
15.0486
15.0425
15.0357
15.0606
15.048
15.011
15.0409
15.0664
15.0743
15.0374
15.0558
15.0835
15.1189
15.0726
15.0747
15.111
15.1146
15.0628
15.0504
15.0568
15.0608
15.0805
15.0637
15.0459
15.0466
15.0413
15.0344
15.0544
15.0465
15.0153
15.0548
15.0693
15.0728
15.0448
15.0685
15.0889
15.1048
15.0746
15.0646
15.0883
15.1015
15.0771
15.0505
15.0435
15.0607
15.0725
15.0799
15.0495
15.045
15.0429
15.0351
15.0407
15.0503
15.0192
15.0706
15.067
15.0667
15.0609
15.0877
15.0941
15.0569
15.0792
15.0445
15.0396
15.0474
15.0829
15.0584
15.0285
15.0481
15.0514
15.0804
15.0513
15.0493
15.0465
15.0448
15.0318
15.0599
15.035
15.0716
15.061
15.0639
15.0827
15.1059
15.0893
15.0161
15.0691
15.0202
14.9849
14.9873
15.0739
15.0722
15.0195
15.0187
15.025
15.0752
15.0494
15.0567
15.0486
15.0499
15.0316
15.0629
15.0447
15.0565
15.0603
15.0669
15.1031
15.0999
15.0758
15.0117
15.0484
15.0016
14.9984
14.9949
15.0573
15.0788
15.0248
15.0083
15.0162
15.0808
15.0642
15.0686
15.0465
15.0418
15.0424
15.0665
15.0564
15.0446
15.0552
15.0755
15.0936
15.0616
15.0578
15.0315
15.046
15.0317
15.0253
15.0266
15.0382
15.0745
15.0284
15.0021
15.0121
15.0837
15.0615
15.1044
15.0402
15.0324
15.0296
15.0717
15.0655
15.0377
15.0442
15.0442
15.079
15.0217
15.0439
15.0631
15.1053
15.0725
15.0528
15.0481
15.0712
15.077
15.0291
14.9922
15.0097
15.0936
15.0729
15.1005
15.0353
15.0169
15.0003
15.0793
15.0728
15.0314
15.0374
15.0209
15.0773
15.0209
15.0379
15.0857
15.1466
15.0958
15.0727
15.0524
15.1265
15.0687
15.0238
14.9963
15.0117
15.1346
15.11
15.0587
15.0165
15.0033
15.0011
15.0961
15.0493
15.0146
15.029
15.0073
15.0749
15.0284
15.0401
15.0746
15.1244
15.0716
15.0623
15.042
15.1173
15.0486
15.011
15.0067
15.0038
15.0961
15.092
15.0097
14.9854
14.9809
14.9898
15.0833
15.0021
14.9867
15.011
14.9844
15.0595
15.0054
15.0298
15.051
15.0864
15.0391
15.0385
15.0188
15.0858
15.0248
14.9941
14.9928
14.962
15.058
15.0519
14.976
14.9622
14.9296
14.9313
15.0478
14.9498
14.9525
14.9746
14.9413
15.0212
14.9767
14.9994
15.0375
15.066
15.0208
15.021
14.9994
15.0659
15.0075
14.9812
14.9485
14.9039
15.0602
15.0345
14.9789
14.941
14.8674
14.8468
15.0312
14.9077
14.9178
14.9224
14.8786
14.9886
14.9463
14.9535
15.0587
15.0714
15.0331
15.0211
14.9694
15.0624
14.9924
14.9677
14.883
14.8088
15.0669
15.0386
15.0101
14.9324
14.7808
14.7362
15.0134
14.8867
14.8857
14.851
14.7825
14.9572
14.916
14.8963
15.0703
15.102
15.0794
15.0445
14.922
15.0737
14.9942
14.9475
14.7791
14.6452
15.0826
15.0552
15.0345
14.9356
14.675
14.5228
15.0085
14.8837
14.8567
14.7553
14.6335
14.931
14.8837
14.8266
15.1415
15.1449
15.1416
15.0974
14.9164
15.086
15.0259
14.9125
14.6321
14.2885
15.0898
15.0581
15.0438
14.9195
14.4866
14.04
14.995
14.8764
14.8379
14.6431
14.3939
14.902
14.8485
14.744
15.315
15.1502
15.1873
15.2589
15.1527
15.0743
15.0712
14.8968
14.4339
13.4663
15.0668
15.0275
14.9973
14.8613
14.2294
12.9074
14.9655
14.8547
14.8152
14.5104
13.9755
14.8621
14.8023
14.6511
15.4949
15.0927
15.1897
15.4009
15.5248
15.005
15.0686
14.9041
14.3577
11.4256
14.9982
14.9582
14.9197
14.7372
13.911
11.4131
-8.65036
14.8947
14.7853
14.7393
14.3652
13.1458
14.7875
14.7295
14.567
15.4019
14.9647
15.0836
15.3546
15.3314
14.8787
14.909
14.8014
14.0848
10.5421
0.0034336
14.8614
14.8173
14.6883
14.573
13.5273
10.9116
0.674454
14.7654
14.6468
14.5979
14.1597
12.046
14.6844
14.6269
14.4852
15.1085
14.8163
14.827
15.0367
14.8088
14.6964
14.6118
14.3482
13.4167
11.2388
2.65999
14.6278
14.5767
14.3463
14.1459
13.2577
10.0696
2.38453
14.5777
14.4432
14.3413
14.106
12.7578
4.89128
14.5312
14.4727
14.3878
14.7466
14.5994
14.6457
14.6218
14.2626
14.2788
14.2023
13.7224
12.7009
9.98499
2.02695
14.2813
14.1895
14.029
13.528
12.841
9.24039
1.99197
14.3587
14.2545
14.0441
13.9329
13.6695
14.3752
14.2934
14.2639
14.4939
14.2812
14.4602
14.3393
13.9177
13.5884
13.9073
13.506
12.5984
11.0021
13.9728
13.7963
13.6744
13.2291
12.9395
10.0042
-1.68133
14.1865
14.1299
13.9141
13.7185
13.7437
14.2576
14.1695
14.1554
14.3978
14.2255
14.3719
14.2343
13.8861
13.4828
13.9791
13.5733
13.0395
12.9772
14.0039
13.7932
13.5168
13.3169
13.4373
12.9564
14.2106
14.1477
14.0214
13.8808
14.1467
14.243
14.181
14.184
14.4513
14.4014
14.4031
14.2867
14.0691
14.1889
14.1977
13.8086
13.5236
13.9539
14.5754
14.2228
13.7337
13.7021
13.9228
14.1255
14.455
14.3358
14.2828
14.1927
14.4818
14.3755
14.3482
14.3573
14.6091
14.5789
14.4842
14.444
14.3645
14.649
14.3351
14.045
13.9403
14.4538
14.875
14.7398
14.1539
14.1105
14.3533
14.5948
14.7172
14.5936
14.5955
14.5029
14.722
14.5844
14.5747
14.5826
14.8208
14.7188
14.5763
14.656
14.6829
14.7316
14.3624
14.2953
14.3383
14.792
14.9739
14.7554
14.3642
14.4589
14.6912
14.8665
14.7978
14.8123
14.8485
14.7919
14.9139
14.8187
14.8193
14.8322
15.0536
14.882
14.7344
14.895
14.9921
14.7379
14.4592
14.5651
14.7131
15.0681
14.6443
14.5684
14.471
14.7402
14.9466
15.0792
14.7334
14.994
15.0533
15.0344
15.1161
15.0571
15.0823
15.0774
15.3082
15.1183
15.0034
15.1532
15.2694
14.7617
14.548
14.7809
15.0055
15.2882
14.4453
14.4246
14.6566
14.9446
15.1501
15.2805
14.7101
15.2159
15.2626
15.2443
15.3279
15.3519
15.3653
15.3298
15.5409
15.4698
15.3247
15.3869
15.5089
14.8933
14.792
15.0494
15.2245
15.4359
14.6869
14.3583
14.6485
14.9318
15.1845
15.4221
14.6163
15.2935
15.334
15.4252
15.499
15.69
15.6246
15.5742
15.6172
15.7085
15.5242
15.5324
15.5851
15.1399
14.9542
15.231
15.3438
15.4871
15.2745
14.7152
14.9978
15.1088
15.3078
15.4838
15.1615
15.6865
15.5209
15.5464
15.5971
15.9433
15.7614
15.7642
220.23
219.058
221.654
222.318
219.897
222.609
225.894
226.118
161.447
197.297
217.161
189.083
208.807
216.46
222.667
210.25
220.023
223.049
223.076
220.263
221.492
226.498
225.869
225.453
228.048
229.113
145.982
96.0021
116.83
178.641
205.734
163.358
203.665
219.425
222.222
229.944
228.906
220.316
222.677
225.838
227.867
226.556
229.238
231.28
233.214
229.846
233.773
233.844
87.3828
95.3736
103.341
112.971
132.224
98.2621
96.7224
210.524
235.817
189.053
248.383
231.682
233.356
248.443
242.75
236.051
235.863
240.061
238.099
234.503
233.171
234.299
117.655
120.716
119.707
112.186
111.012
191.228
247.254
169.68
199.028
262.461
250.247
216.956
244.738
240.921
239.198
245.009
239.981
233.845
121.098
146.007
78.9723
59.1729
117.231
194.85
82.4443
219.271
185.914
112.21
215.751
206.795
215.914
208.18
155.775
197.764
217.283
218.68
215.471
214.975
215.915
220.07
216.43
80.1492
36.9436
172.424
109.544
175.028
63.4877
73.3205
41.4019
58.0197
222.617
222.14
224.471
217.453
218.856
217.912
220.753
225.427
221.32
46.034
38.8372
41.6113
30.7393
30.8835
30.9677
229.406
228.128
222.478
220.569
216.76
45.0859
51.1089
33.5017
33.0918
33.2293
228.497
228.948
222.388
221.478
219.01
55.9138
25.0104
62.9548
50.1817
50.6282
23.7955
27.758
21.1084
22.3958
225.228
202.652
215.126
169.234
195.116
121.623
158.804
209.277
50.2844
20.6815
34.8202
29.2047
22.8464
32.1661
31.175
90.1741
39.6639
35.9788
39.7103
34.7746
64.442
47.1229
27.8975
152.745
72.6933
131.955
76.2817
27.7706
58.1415
178.103
186.438
102.753
100.905
126.46
190.746
137.11
31.6034
27.8878
32.9153
30.9951
24.8366
27.3575
27.1466
30.1503
23.3971
195.989
191.226
193.669
138.552
147.506
129.541
140.289
190.337
141.565
32.7571
31.2693
32.6781
28.9538
24.0189
27.2026
180.325
175.721
140.994
137.203
136.432
27.4872
20.5887
18.6533
19.1018
17.5025
176.713
164.289
126.968
131.754
108.882
18.0097
18.7598
17.6731
18.1387
17.84
19.0571
19.0998
19.5142
19.5684
101.533
31.9629
58.7638
25.1315
35.1946
20.7427
24.5703
71.6029
18.6572
19.6945
23.4574
23.7801
19.2716
18.1743
18.3421
23.4468
24.0372
19.0939
19.6586
19.1654
20.385
24.0841
22.065
35.1533
21.3747
29.3664
24.2368
19.0693
22.6613
34.0206
53.7937
23.624
22.3587
25.3716
64.795
25.7429
23.6701
18.0193
25.5999
26.2227
23.0455
21.607
23.7768
20.0764
21.8026
79.4282
45.1901
82.4202
24.8022
32.873
22.5414
37.496
93.0348
56.291
20.6909
17.0528
18.144
16.626
16.5625
16.2325
95.1106
99.2541
63.6653
62.1499
66.8265
16.6149
17.7942
16.9201
16.7384
17.4204
92.6751
67.4409
56.884
62.6918
42.1002
18.444
17.9858
19.0718
18.9377
19.4417
18.0296
18.2654
18.291
18.6077
23.4394
21.8559
22.2209
22.8863
23.9541
21.6043
22.8106
25.6194
19.4113
18.8422
19.5323
19.5381
19.0456
19.2737
19.331
20.2633
20.1709
19.7833
19.4568
19.8969
20.7416
20.3121
18.6908
21.7015
18.5658
20.9916
20.7205
19.17
20.3102
22.1324
22.1991
21.1027
21.0837
21.7274
22.157
22.2649
15.8818
16.4126
21.5246
15.468
21.0597
15.8686
18.653
16.0514
21.4765
23.4504
21.1009
24.1393
22.3542
22.7904
20.7756
21.9728
32.5645
24.2734
15.9306
16.2865
16.1813
16.2364
16.3629
16.312
38.8514
42.9047
24.9924
25.682
28.4024
16.5913
16.9485
16.3691
16.3858
16.6111
42.1836
30.4138
26.9135
28.6585
22.6908
17.3871
16.9453
17.5733
17.7012
17.9132
16.9604
17.0233
17.2101
17.3293
22.7057
19.6465
20.6368
19.3079
19.2124
17.926
17.1947
20.0752
18.1368
17.5319
18.2762
18.3391
17.5367
17.3753
17.4256
18.7877
18.687
17.6659
18.1999
17.6906
18.085
15.8655
14.36
19.9808
19.1861
19.9903
18.8039
16.0904
18.7917
19.9997
20.3029
19.2501
19.2355
18.9639
21.2274
19.7874
15.8733
15.2721
15.3085
15.1668
19.3588
15.0944
14.1057
14.7645
14.3481
20.9007
19.8341
20.0396
19.0629
19.0203
18.8303
18.6247
21.2701
18.9745
15.8592
16.2283
16.173
15.548
15.9399
15.8871
21.0891
19.8232
18.7722
17.8041
16.2967
16.094
16.2891
15.7944
15.7672
15.9359
19.724
18.5094
16.8354
15.6212
15.2839
16.5642
16.1853
16.5385
16.7453
16.8129
16.1602
16.0844
16.3314
16.3532
16.1223
16.3269
15.9772
15.6435
14.9534
15.1495
15.4208
14.5249
16.9615
16.4592
16.6394
16.6727
16.352
16.0612
16.0284
17.1201
16.6903
15.6855
15.7959
15.8928
15.6478
14.0881
13.981
16.8905
14.0181
16.4652
14.4961
13.766
14.0349
18.7963
17.7676
17.1015
17.893
16.7686
18.1931
17.1558
14.9913
14.7362
14.0966
14.7839
13.8315
14.2987
14.0284
14.5175
14.0102
17.6679
17.9252
17.5301
17.2037
16.69
17.2378
16.6562
17.2047
15.8034
15.2991
15.6019
15.5371
15.0229
15.2784
15.2107
15.2051
16.8694
14.9233
15.2822
14.013
14.8742
13.8942
13.958
13.9397
13.9658
13.9513
13.993
13.9803
13.9491
15.4587
15.5789
15.1905
15.1726
15.2468
14.0999
14.1674
14.0477
14.0392
13.8836
13.9789
13.9566
13.933
13.9301
13.939
13.939
13.9263
13.9575
13.9647
15.8039
15.452
15.6684
15.9372
15.923
15.4118
15.3028
15.5415
15.5167
14.3147
14.5273
14.8816
14.0321
14.1277
14.0045
14.4621
14.0937
15.9699
15.5308
15.5343
15.5134
15.4035
15.1116
15.1213
14.7462
15.2392
14.5242
14.2243
14.6907
14.1272
13.9033
13.855
13.7048
13.9242
13.7265
13.7339
13.7959
13.7383
15.2355
16.0837
13.7191
13.6824
14.9226
16.1865
15.3089
14.4834
14.2535
13.905
14.2038
13.9834
13.9722
13.8401
13.9689
13.7995
15.796
16.9617
15.9943
15.5865
14.9542
17.0144
15.1779
14.6305
13.9078
14.0397
13.8639
13.9697
13.973
13.9442
13.9612
14.747
14.9916
14.9244
14.5116
14.7335
14.673
13.9407
14.0125
13.9568
13.9357
13.8912
13.8174
13.886
13.9514
13.9526
13.9501
13.9328
13.9571
13.9129
13.9453
14.9155
14.9498
14.715
14.6996
14.6999
13.9297
13.7789
13.9194
13.8138
13.9013
13.8541
13.9083
13.9361
13.9526
13.9306
13.8884
13.9181
13.9187
13.9128
15.1424
14.8822
14.9792
15.1813
15.1605
14.8172
14.7111
14.8939
14.8682
13.8883
13.7717
13.9504
13.7268
13.7502
13.7483
13.7574
13.9152
13.8565
13.9313
13.9498
13.9381
13.9235
15.1653
14.8724
14.7917
14.8
14.7647
14.5587
14.565
14.0245
14.2976
14.0319
13.9767
14.0732
13.7951
13.8668
13.8375
13.7609
13.8189
13.7731
13.7332
13.7913
13.7485
13.7027
13.8034
13.6956
13.688
13.6071
14.1575
13.7423
14.1003
14.0114
13.8561
13.8786
13.7607
13.8967
13.8309
13.8347
13.712
14.0902
15.4852
14.032
13.6396
13.704
13.7112
13.7086
13.7956
13.8738
13.7685
13.8463
13.9154
13.9484
13.8834
13.9251
14.3296
14.503
14.4579
14.199
14.3234
14.2944
13.8611
13.7749
13.8597
13.8106
13.8668
13.8218
13.8659
13.9348
13.8887
13.913
13.8818
13.9142
13.8888
13.9006
14.5152
14.4995
14.3714
14.3557
14.3403
13.8895
13.8453
13.9032
13.8777
13.8979
13.8883
13.9185
13.9041
13.912
13.8884
13.8955
13.9062
13.9122
13.908
14.6677
14.4982
14.5035
14.6736
14.6403
14.4242
14.3548
14.4974
14.4736
13.7651
13.791
13.7791
13.8248
13.8216
13.8073
13.7895
13.9203
13.8416
13.913
13.9229
13.9399
13.9262
14.6408
14.4705
14.4066
14.4046
14.3805
14.3009
14.2974
13.9985
13.9952
13.969
14.007
13.9764
13.8686
13.7652
13.6917
13.7231
13.7489
13.7228
13.7146
13.704
13.7055
13.6944
13.6227
13.7323
13.7109
13.6654
13.7187
13.7101
13.9343
13.8411
13.7143
13.7707
13.6533
13.7253
13.5969
13.6813
13.596
13.7361
13.8181
13.7478
13.6649
13.7169
13.7382
13.7522
13.7769
13.7872
14.0972
14.1885
14.1579
13.9881
14.0688
14.0365
13.866
13.8515
13.8733
13.8501
13.8833
13.8509
13.9064
13.9202
13.8847
13.9127
13.8719
13.9139
13.8839
13.9082
14.2317
14.22
14.1427
14.1323
14.1318
13.9035
13.8865
13.9211
13.8821
13.9293
13.9093
13.9325
13.9147
13.9138
13.9147
13.8979
13.9197
13.9154
13.9166
14.368
14.2733
14.2561
14.3726
14.3574
14.2051
14.1794
14.2872
14.2734
13.8503
13.827
13.8102
13.9133
13.8916
13.8504
13.842
13.8734
14.3484
14.2598
14.2181
14.2128
14.1796
14.156
14.1487
13.9972
13.9696
13.951
13.9867
13.9632
13.9137
13.6081
13.5305
13.6975
13.6471
13.684
13.6688
13.5884
13.6538
13.7261
13.7259
13.7176
13.7146
13.7553
13.7491
13.78
13.7427
13.6589
13.5176
13.5904
13.5314
13.5673
13.4707
13.5266
13.4642
13.7351
13.7181
13.7321
13.7502
13.786
13.7627
13.7762
13.7811
13.8192
13.8703
13.9794
13.9409
13.776
13.9254
13.8704
13.8498
13.8587
13.8372
13.8624
13.8828
14.0382
14.0555
14.0015
13.9545
13.9893
13.9135
13.9232
13.8886
13.9194
13.9363
14.199
14.1404
14.1168
14.2156
14.2055
14.0759
14.0654
14.156
14.1495
13.9224
13.875
13.8839
13.969
13.9443
13.8997
13.9121
13.9412
14.1929
14.1389
14.1043
14.0961
14.0529
14.0517
14.0547
13.9823
13.9675
13.9558
13.9822
13.9659
13.9419
13.4513
13.3771
13.6433
13.5334
13.6238
13.6148
13.4765
13.5919
13.7063
13.7615
13.7147
13.7062
13.7585
13.7937
13.7949
13.5956
13.5587
13.4302
13.4945
13.4039
13.506
13.3766
13.4793
13.3513
13.8246
13.7877
13.8098
13.8007
13.8526
13.8043
13.8343
13.8553
13.8729
13.7029
13.8919
13.8083
13.6565
13.8639
13.7602
13.8839
13.9112
13.8756
13.9024
13.9257
13.8866
13.9476
13.9835
13.8351
13.9205
13.9262
13.9492
13.9113
13.9335
13.9605
14.0937
14.0549
14.0263
14.1147
14.1076
13.9962
13.9922
14.081
14.0777
13.9663
13.9217
13.9333
14.0128
13.9811
13.9363
13.9482
13.9762
14.0934
14.0562
14.005
14.0212
13.9648
13.9769
13.9925
13.9856
13.9588
13.9536
13.9874
13.9531
13.9693
13.3038
13.2383
13.5825
13.4195
13.5575
13.5567
13.3711
13.5319
13.7054
13.7522
13.7069
13.7041
13.7642
13.7935
13.7992
13.5533
13.5711
13.3006
13.4668
13.3158
13.4162
13.2331
13.4426
13.29
13.8595
13.8059
13.8483
13.8108
13.8619
13.8073
13.8657
13.8829
13.893
13.6308
13.8676
13.7335
13.6117
13.8851
13.7148
13.9162
13.941
13.9089
13.93
13.9473
13.81
13.8946
13.9819
13.8189
13.8803
13.9489
13.978
13.9359
13.9578
13.9889
14.0238
14.0029
13.9525
14.0519
14.0533
13.9467
13.9113
14.0258
14.033
13.9931
13.9486
13.961
14.0341
14.0034
13.9627
13.9725
14.0108
14.0295
14.0154
13.9695
13.9774
13.9522
13.9739
13.9735
13.987
13.9537
13.9564
13.988
13.9585
13.9892
13.1766
13.1929
13.5418
13.3437
13.5266
13.5565
13.3616
13.5525
13.7073
13.7856
13.7353
13.7264
13.8162
13.8153
13.8466
13.5963
13.6327
13.1858
13.4156
13.2763
13.4057
13.1864
13.4139
13.269
13.8805
13.8164
13.8865
13.8507
13.9068
13.8353
13.9118
13.9122
13.9417
13.6085
13.882
13.6934
13.6323
13.8719
13.6826
13.9445
13.9592
13.953
13.9655
13.9659
13.8196
13.8749
14.0489
13.8116
13.8682
13.9732
14.0006
13.9645
13.9835
14.0074
13.9897
13.9767
13.8669
14.0104
14.0178
13.9382
13.8093
14.0044
14.0058
14.0177
13.9784
13.9902
14.0491
14.0257
13.9993
14.0064
14.0244
14.007
13.9974
13.9817
13.9796
13.9707
13.9935
13.9927
13.9922
13.9668
13.9776
14.006
13.9814
14.0141
13.301
13.5
13.611
13.4332
13.6092
13.6988
13.5681
13.6988
13.7649
13.856
13.8283
13.8238
13.9087
13.8949
13.9543
13.6958
13.7802
13.272
13.4486
13.2823
13.6468
13.439
13.5177
13.3352
13.9422
13.8622
13.9432
13.9536
13.9866
13.9022
13.9806
13.9797
14.0225
13.6718
13.8866
13.6888
13.7176
13.8928
13.7097
13.9899
13.9925
14.0136
14.0194
14.0111
13.7981
13.8596
14.0263
13.795
13.8414
13.9991
14.0064
13.9927
14.0113
14.0028
13.9576
13.9331
13.7618
13.9976
14.001
13.9273
13.7437
13.9881
14.0008
14.0251
14.0173
14.0159
14.0662
14.0168
14.028
14.0179
14.0214
13.9942
13.9942
14.0038
14.0072
13.9864
14.0034
14.0157
14.0239
13.9998
14.0155
14.0412
14.0166
14.0431
13.7287
13.9526
13.8091
13.7364
13.8114
13.9334
13.9145
13.9391
13.897
13.9723
13.9884
13.9839
14.0485
14.0201
14.0915
13.8828
13.979
13.6302
13.6129
13.4235
13.9761
13.8028
13.735
13.5427
14.0455
13.9494
14.0235
14.0837
14.1141
14.0058
14.0746
14.0702
14.122
13.7587
13.8953
13.7374
13.8056
13.9042
13.7539
14.0531
14.0515
14.0927
14.0898
14.0824
13.8092
13.8232
13.9933
13.8167
13.82
14.037
14.0042
14.0469
14.0653
14.0221
13.9137
13.9078
13.7569
13.9788
13.9981
13.9096
13.7807
13.9772
13.9914
14.0081
14.0327
14.0189
14.0476
14.0053
14.0251
14.0192
14.0264
13.9925
13.9897
14.0027
14.0193
14.0091
14.0066
14.0258
14.0521
14.0289
14.0432
14.0586
14.039
14.0505
14.1676
14.3389
14.0639
14.08
14.0699
14.1945
14.2293
14.2059
14.0808
14.1386
14.1989
14.1871
14.2407
14.1756
14.2718
14.0681
14.183
14.0049
13.8941
13.6874
14.29
14.2807
14.0591
13.8582
14.1977
14.0656
14.1322
14.2407
14.2829
14.1381
14.197
14.1801
14.2444
13.8774
13.913
13.7793
13.9682
13.9428
13.8185
14.1348
14.1365
14.1925
14.1745
14.173
13.8232
13.8283
13.9812
13.8553
13.8522
14.1053
14.054
14.1261
14.1388
14.0928
13.9139
13.9346
13.8244
13.972
13.983
13.9155
13.865
13.9723
13.9797
14.0122
14.0066
14.0203
14.0033
14.0194
13.9889
14.0183
14.056
13.9922
13.9999
14.0062
14.0282
14.0208
13.9982
14.0183
14.055
14.0398
14.0253
14.0349
14.0242
14.0208
14.4509
14.5404
14.3309
14.3545
14.3332
14.4649
14.476
14.4656
14.3058
14.3625
14.4431
14.4248
14.4884
14.3897
14.5137
14.2968
14.4196
14.5106
14.1883
14.0073
14.5452
14.5942
14.3341
14.1261
14.3807
14.2191
14.2705
14.4405
14.483
14.3081
14.3437
14.3101
14.3854
14.1009
13.9981
13.8862
14.2569
14.1002
14.0223
14.2281
14.2364
14.3184
14.2651
14.2608
13.8921
13.9141
14.0646
13.966
14.0108
14.1775
14.133
14.1902
14.2037
14.17
13.9739
14.0356
13.8964
13.9903
13.9872
13.9703
13.9338
14.0215
14.0087
14.0252
13.9733
14.0147
13.9805
14.0275
13.9561
14.008
14.0785
14.0003
14.017
13.9795
14.002
14.0001
13.9702
13.9924
14.0109
14.0056
13.9811
13.9845
13.9884
13.9903
14.6519
14.7791
14.6111
14.6035
14.601
14.7472
14.7351
14.732
14.5535
14.6276
14.705
14.6785
14.7627
14.6482
14.7817
14.5744
14.738
14.6444
14.5082
14.2884
14.7579
14.7196
14.656
14.4885
14.5756
14.3993
14.4372
14.641
14.6668
14.4919
14.5189
14.4588
14.5327
14.4241
14.2741
14.2114
14.6084
14.4677
14.4037
14.3358
14.3469
14.4564
14.3819
14.3817
14.1163
14.1341
14.3477
14.3082
14.2898
14.2411
14.2061
14.2551
14.2741
14.2535
14.1364
14.2757
13.9778
14.0818
14.0537
14.1516
14.0224
14.1794
14.1159
14.0284
13.9313
14.0006
13.929
14.0329
13.9168
14.0039
14.1221
14.0686
14.134
13.9751
14.0002
14.0701
14.0184
14.0391
13.9656
13.9843
13.9865
13.9655
14.0053
13.9709
14.9252
15.0471
14.8862
14.8684
14.8643
14.9982
14.9691
14.9654
14.8142
14.8885
14.9519
14.9237
14.992
14.8904
14.9834
14.8698
14.9612
14.8198
14.7677
14.6684
14.9704
14.9249
14.8749
14.7995
14.7441
14.5987
14.6103
14.7905
14.8111
14.6976
14.7026
14.6133
14.6864
14.7739
14.6617
14.6035
14.8982
14.8269
14.7829
14.4505
14.4643
14.6105
14.5168
14.5223
14.5141
14.4675
14.6978
14.7276
14.6652
14.3289
14.3277
14.3546
14.3771
14.3728
14.4522
14.6605
14.1014
14.3438
14.2495
14.5434
14.2454
14.5522
14.4365
14.0606
13.9375
14.0346
13.9807
14.1093
14.0146
14.0959
14.226
14.2521
14.4564
14.1159
14.1308
14.3305
14.272
14.2756
13.9878
14.0589
14.1373
14.0648
14.1704
14.0685
15.1223
15.144
15.0881
15.0376
15.0404
15.1429
15.0687
15.0831
15.009
15.0572
15.0901
15.0627
15.0945
15.0386
15.0689
15.0493
15.1168
15.0139
14.9778
14.8653
15.1448
15.0786
15.0227
14.8937
14.873
14.8027
14.8037
14.8924
14.931
14.9015
14.8833
14.7706
14.8471
15.0043
14.9758
14.9365
15.0936
15.1267
15.056
14.6019
14.6139
14.7742
14.6886
14.6953
14.9264
14.8795
15.1258
15.1083
15.1111
14.4491
14.4176
14.5026
14.5239
14.4568
14.8661
15.098
14.4585
14.7873
14.6573
15.0722
14.7962
15.0722
14.9537
14.1734
14.1391
14.1879
14.2118
14.2833
14.3052
14.3077
14.3448
14.6641
14.9355
14.4344
14.4416
14.7362
14.6257
14.6273
14.1923
14.3296
14.4591
14.3383
14.5085
14.3496
15.1233
15.0793
15.1656
15.0633