/*--------------------------------*- C++ -*----------------------------------*\
| =========                 |                                                 |
| \\      /  F ield         | OpenFOAM: The Open Source CFD Toolbox           |
|  \\    /   O peration     | Version:  5.x                                   |
|   \\  /    A nd           | Web:      www.OpenFOAM.org                      |
|    \\/     M anipulation  |                                                 |
\*---------------------------------------------------------------------------*/
FoamFile
{
    version     2.0;
    format      ascii;
    class       surfaceScalarField;
    location    "5";
    object      phi;
}
// * * * * * * * * * * * * * * * * * * * * * * * * * * * * * * * * * * * * * //

dimensions      [0 3 -1 0 0 0 0];

internalField   nonuniform List<scalar> 
29271
(
-7.69088e-06
4.18747e-06
-4.54368e-06
8.05089e-06
-7.907e-06
-2.69812e-06
4.78938e-06
6.14199e-06
-2.88506e-05
-6.69296e-06
4.45912e-06
-7.617e-06
5.9262e-06
3.27752e-05
-2.30923e-05
-1.89994e-06
8.96978e-06
-1.12614e-05
4.35127e-06
2.29326e-05
-2.19287e-05
3.62533e-06
-8.5144e-06
-3.58913e-06
2.01417e-05
1.02652e-05
-3.09121e-05
-3.41233e-06
2.62284e-06
-4.75046e-06
5.08893e-06
3.13631e-05
-1.89699e-05
-6.14903e-06
4.06407e-06
-6.28053e-06
6.1282e-06
2.12072e-05
-3.31903e-05
-1.87713e-06
8.47138e-06
-1.42756e-05
-1.61333e-06
4.2485e-05
-2.67484e-05
5.49847e-06
1.73362e-05
-1.27942e-05
-5.56284e-06
2.22708e-05
-2.11967e-05
5.29737e-06
-6.43138e-06
1.46685e-05
7.6784e-06
-7.44233e-06
6.78583e-07
3.42958e-06
3.41466e-06
-2.7128e-05
-3.75013e-06
-1.1129e-06
-4.34071e-07
-5.18233e-06
3.76074e-05
-2.39552e-05
-7.67905e-06
5.11309e-06
-6.5144e-06
1.10997e-06
3.19256e-05
-2.3861e-05
-1.84825e-06
5.51171e-06
-4.75299e-06
1.63563e-06
2.33149e-05
-1.88862e-05
1.56973e-06
5.17183e-06
-3.5611e-06
6.79268e-07
1.50265e-05
-2.44524e-05
-2.99857e-07
2.82022e-07
5.33793e-06
1.7698e-05
1.43425e-06
-2.45211e-05
-1.61727e-06
-1.0842e-07
2.33172e-07
2.18622e-05
4.15149e-06
-2.16635e-05
2.87594e-06
1.90399e-06
-1.12118e-06
1.00077e-06
1.7004e-05
-1.7818e-05
-1.89232e-06
2.27e-06
-4.04333e-06
4.63972e-06
1.68439e-05
-2.61113e-05
-5.70066e-06
5.55075e-06
2.39786e-05
-2.94166e-06
5.22428e-06
-9.94766e-06
-5.2271e-06
5.89451e-06
9.2537e-06
-1.66827e-05
-9.49022e-07
7.4121e-06
1.04522e-05
-2.00974e-07
-3.29929e-05
4.12594e-06
-1.44373e-05
4.61786e-06
4.67426e-05
-8.05624e-06
-8.2026e-06
-6.15358e-06
6.60498e-06
7.63245e-06
-5.81789e-06
1.23584e-06
1.19548e-06
3.48415e-06
-2.1267e-06
5.29777e-08
2.92148e-06
-6.99167e-07
-7.46391e-06
3.26798e-06
-3.95751e-05
-1.30771e-05
2.37249e-06
5.44756e-05
-2.37217e-06
-2.21832e-05
8.15728e-06
-4.46788e-06
2.32729e-06
1.85386e-05
-1.84262e-05
6.81725e-07
-1.28632e-06
7.39926e-07
1.57049e-05
2.58594e-06
-1.1275e-05
-1.32479e-05
-3.70884e-05
7.03009e-06
2.47805e-06
5.21031e-05
-1.38144e-05
2.4884e-05
9.33757e-05
-1.94776e-05
-2.92287e-05
-1.41167e-05
-1.76992e-05
-4.10545e-06
-6.93004e-06
-4.23731e-06
-3.90829e-06
2.20989e-06
4.8464e-07
-2.82887e-06
-4.60766e-06
-1.9759e-05
1.72601e-05
0.000147002
-4.69789e-05
-3.72889e-05
-1.99705e-05
-2.43606e-05
-1.03816e-05
-9.74806e-06
-5.07615e-06
-4.51327e-06
-2.12948e-06
8.20226e-06
4.35878e-05
-2.56503e-06
-1.38226e-06
-1.10166e-06
-7.5501e-07
-1.76372e-06
-1.60751e-06
-1.45928e-06
-1.93704e-05
-1.45202e-05
-1.24279e-05
-1.24667e-05
-1.28039e-05
-4.78451e-07
1.90622e-07
1.1141e-05
-3.59044e-07
-1.05413e-06
1.12709e-06
2.66892e-07
-4.64556e-06
-4.2712e-05
3.20374e-06
3.58368e-06
2.63686e-06
3.79333e-05
-2.34805e-05
1.58501e-05
0.000168224
-4.27604e-05
-2.19094e-05
-3.62962e-05
-2.66268e-05
-1.80902e-06
-1.81819e-06
-5.50022e-06
1.01036e-06
-3.26516e-05
1.48041e-05
9.46911e-05
-2.21404e-05
-2.35431e-05
-1.77372e-05
-1.96432e-05
-4.01514e-06
2.781e-06
3.10032e-05
-4.70109e-06
-3.03586e-06
-3.59537e-06
2.54375e-06
1.15585e-05
3.82791e-06
-1.32239e-05
-1.53796e-05
-1.5256e-05
-1.69567e-05
-1.40038e-05
-5.41511e-07
-1.16966e-06
2.77346e-06
8.92638e-06
-2.36373e-05
-3.29485e-06
1.99786e-06
4.91335e-06
2.85016e-05
-8.48065e-06
-1.54265e-05
-2.53776e-06
0.000133607
-1.37488e-06
-7.07817e-08
-1.72424e-06
-1.00409e-06
-1.19419e-06
-4.17544e-06
-1.41641e-06
-1.72408e-05
-1.92908e-05
-2.57347e-05
-2.65661e-05
-4.89056e-06
-2.4934e-07
0.00011217
-3.6715e-06
-6.59563e-06
-7.49866e-06
5.48429e-08
8.1713e-07
-4.66156e-07
-1.88023e-05
-2.07104e-05
-3.19241e-05
-1.8856e-05
-2.0109e-05
-4.64335e-06
2.67729e-06
1.99654e-05
-7.87032e-06
-2.65807e-06
4.8251e-06
5.81419e-06
-1.91816e-05
7.38517e-06
-1.61586e-05
2.54172e-05
-4.43893e-05
3.1155e-06
2.74936e-08
3.66547e-06
3.73315e-05
-9.30548e-06
-3.37886e-06
1.72494e-06
1.05903e-05
-2.44228e-06
1.33855e-07
1.09777e-06
1.3305e-06
1.98472e-06
1.10372e-06
-1.05217e-06
-2.08026e-06
-6.56363e-06
5.73559e-06
-6.9698e-05
-1.14382e-05
1.22291e-05
6.97351e-05
-8.68542e-07
-1.36201e-05
3.82701e-06
-1.27757e-06
8.06574e-07
1.11326e-05
-1.4605e-05
-7.80337e-07
-1.84996e-06
5.83374e-07
1.53657e-05
1.2863e-06
-2.6209e-06
-1.80176e-06
-4.57744e-05
1.77838e-05
6.34602e-06
2.60672e-05
-1.99199e-05
1.80307e-05
0.000162809
-4.21397e-06
-1.77264e-06
-9.38765e-06
-4.58389e-06
-1.33818e-05
-1.04854e-05
-1.45739e-05
-9.14434e-06
-2.40661e-05
1.69767e-05
0.000142269
-2.1724e-06
-1.61551e-06
-2.45156e-06
-1.85803e-06
-3.6907e-06
3.65748e-06
2.95079e-05
-4.71261e-07
-8.58024e-07
1.60591e-07
-5.76012e-07
-2.79405e-06
-2.88985e-06
-2.52436e-06
-9.3567e-06
2.01476e-07
-2.93091e-07
5.90202e-06
-1.22775e-06
-1.3164e-06
-1.15584e-06
3.69217e-06
6.2803e-06
-2.45203e-05
-6.73567e-06
-1.01084e-07
8.01964e-06
1.70571e-05
-2.32461e-05
3.17862e-05
0.00016064
-2.15415e-06
5.32775e-06
3.89011e-06
1.00106e-05
-1.38268e-05
2.75622e-05
7.46863e-05
-2.95741e-06
1.07112e-05
5.67865e-06
-3.13878e-06
-2.6083e-06
-2.46146e-06
4.63774e-06
7.74319e-06
3.22909e-06
-5.71421e-06
-4.46878e-07
-1.97992e-06
2.20042e-06
2.98318e-06
-3.26101e-05
2.56901e-06
-2.07226e-06
1.87205e-06
3.71813e-05
-6.93996e-06
-2.29643e-05
5.30158e-08
0.000165501
2.45537e-06
1.07924e-06
8.39835e-06
4.22012e-06
1.48593e-06
2.40483e-06
2.75899e-06
-1.01129e-05
4.00767e-06
0.000131673
-7.29197e-06
-8.80852e-06
-7.07511e-06
2.99599e-06
6.00187e-06
5.37808e-06
-2.23386e-05
-9.73739e-06
1.24382e-05
2.02361e-05
-3.4268e-06
-2.8858e-06
5.80489e-06
6.09731e-07
-2.51844e-05
4.35346e-06
-7.75243e-06
2.86397e-05
-3.43137e-05
5.52359e-06
-5.79618e-06
3.96965e-06
3.46243e-05
-1.12304e-05
-6.61071e-06
5.5688e-06
1.22763e-05
8.58947e-09
-2.99509e-07
6.05806e-07
-3.33759e-07
1.56504e-06
-2.90802e-06
2.58575e-06
-1.27043e-06
-1.19588e-06
4.22174e-06
-5.82723e-05
-1.90275e-06
1.16741e-05
4.54751e-05
-2.01869e-06
-1.13942e-05
2.14232e-06
-2.00202e-06
-2.37915e-07
1.35105e-05
-1.58148e-05
-6.57249e-07
-2.26022e-06
3.09141e-06
1.32754e-05
2.36548e-06
-2.25467e-06
-8.57024e-08
-1.38994e-05
9.30123e-07
4.74643e-07
1.4835e-05
-2.17827e-05
4.31662e-05
0.000159888
-9.3478e-06
-2.95749e-06
-8.82319e-06
-3.99675e-07
-7.56068e-06
-7.72855e-07
4.1476e-06
7.25157e-06
-9.04616e-06
2.39788e-05
9.00964e-05
2.22719e-06
2.73595e-06
4.05239e-06
6.44209e-06
-2.52442e-06
2.96821e-06
3.75317e-05
-2.73009e-06
-4.83368e-07
-6.04249e-06
-1.54351e-06
-2.53734e-06
-2.05639e-06
-2.12057e-06
-2.94683e-06
1.73788e-07
-8.07999e-08
4.35722e-07
-6.14331e-06
1.29761e-06
-2.15497e-06
7.00067e-06
5.35713e-06
-1.92088e-05
-3.34135e-07
-7.82722e-06
9.13325e-07
2.10997e-05
-1.93964e-05
3.77601e-05
0.000150202
5.31491e-06
9.72394e-06
8.30022e-06
1.1902e-05
-5.97007e-06
4.24355e-05
4.28033e-05
-1.7036e-06
2.74681e-06
2.03108e-06
-1.53011e-06
-1.45791e-06
-1.12689e-06
6.34908e-07
2.48648e-06
5.96018e-07
-8.82056e-07
-1.41468e-07
-1.15108e-06
9.49473e-07
-4.78466e-07
-4.45562e-05
5.71541e-06
-7.21033e-06
-2.54526e-06
4.94771e-05
-8.80755e-07
-2.91797e-05
1.50494e-06
0.000195293
6.82703e-06
4.38903e-06
9.15126e-06
6.08511e-06
2.43323e-06
3.13297e-06
3.62419e-06
-7.86971e-06
5.9181e-06
0.000141762
-6.03605e-06
-3.97813e-06
-3.36014e-06
5.33892e-06
7.27442e-06
5.8797e-06
-1.6467e-05
-4.0526e-06
6.78133e-06
8.61536e-06
6.32757e-07
-7.40282e-07
8.24843e-07
-6.16814e-07
-3.41559e-05
5.88281e-06
-8.80245e-06
3.85802e-05
-3.71987e-05
6.33688e-06
-8.20483e-06
4.42691e-06
4.05578e-05
-1.42291e-05
-7.27359e-06
5.56108e-06
1.59506e-05
-4.93011e-08
-3.07316e-07
7.80612e-07
-4.29114e-07
-3.26523e-07
-3.33351e-06
2.7221e-07
3.36957e-06
2.46969e-06
7.24962e-06
-3.15365e-05
1.42222e-06
4.58986e-06
1.58051e-05
-2.0429e-08
-1.81626e-05
-4.06209e-06
-1.55037e-06
2.84536e-07
2.35109e-05
-5.83426e-06
-9.36915e-07
9.55151e-08
5.34023e-06
-9.47411e-08
1.43017e-06
-1.90577e-06
2.42071e-06
-2.78199e-05
-1.1735e-05
2.77773e-06
3.62623e-05
-5.85616e-06
4.95276e-05
0.000103988
-1.08481e-05
-3.28651e-06
-6.56768e-06
-2.63114e-06
6.29772e-06
6.27375e-06
1.0409e-05
1.25811e-05
3.40427e-06
1.81012e-05
5.92701e-05
-5.18545e-07
1.78565e-06
-4.58653e-08
2.24341e-06
-2.01208e-07
1.39695e-05
4.07902e-05
-6.45083e-06
-1.75509e-06
-4.09742e-06
-1.50928e-06
-7.33954e-08
1.11965e-07
1.5159e-07
1.53142e-06
-1.32853e-07
3.54094e-07
-1.91023e-06
-8.17995e-06
6.83681e-07
-1.78035e-06
9.27662e-06
2.67831e-06
-2.46367e-05
-1.66048e-06
-3.98014e-06
-1.70618e-07
2.77696e-05
-1.85024e-05
4.12387e-05
0.000148694
5.77229e-06
7.74263e-06
7.00596e-06
7.77863e-06
-3.35937e-06
3.03335e-05
1.5428e-05
-6.82683e-08
3.09361e-06
-5.83699e-07
-5.08285e-08
1.99659e-07
6.72188e-07
2.37343e-06
3.01855e-06
3.98652e-06
1.64131e-06
-3.38261e-07
7.70834e-08
5.96632e-07
-2.04503e-06
-5.52709e-05
7.13768e-06
-8.3335e-06
-5.13929e-06
6.00232e-05
1.58281e-06
-2.7151e-05
1.94616e-06
0.000223445
7.22677e-06
6.01351e-06
8.81434e-06
6.69291e-06
2.77697e-06
2.85541e-06
3.91257e-06
-1.87417e-06
6.79376e-06
0.000124647
-1.29949e-06
-1.19793e-06
-5.72507e-07
5.24264e-06
7.48521e-06
5.71957e-06
-2.26159e-06
3.78737e-07
3.83398e-06
-7.31683e-07
5.36619e-07
-3.14775e-07
-4.8494e-08
-1.67665e-07
-4.36207e-05
5.82052e-06
-7.85322e-06
4.75984e-05
-4.47067e-05
6.16938e-06
-8.27999e-06
5.70866e-06
4.79025e-05
-1.81517e-05
-3.92857e-06
2.77868e-06
1.92267e-05
9.51767e-07
7.58375e-08
-7.73099e-08
-9.64919e-07
-8.0984e-06
-4.6099e-06
9.00451e-07
1.18079e-05
7.82763e-07
4.28039e-06
-4.76058e-06
-1.13791e-06
-9.41139e-07
1.77647e-06
-3.97133e-06
-2.78563e-05
-1.61224e-06
1.42918e-06
4.88564e-06
2.7125e-05
2.7744e-06
-1.16803e-07
-1.11829e-07
1.08289e-06
-3.79684e-06
1.68179e-07
-1.3343e-06
5.03777e-06
-4.05076e-05
-9.11978e-06
2.14411e-06
4.37798e-05
-1.32692e-05
3.54565e-05
5.71794e-05
-1.67374e-06
-2.35838e-06
-6.3029e-07
-1.62432e-06
7.81e-06
8.19362e-06
7.18708e-06
7.71741e-06
1.77761e-06
1.67088e-05
4.12125e-05
-3.21199e-06
-1.79901e-06
-6.84136e-06
-1.84563e-06
2.25369e-06
1.32327e-05
2.30714e-05
-2.14418e-06
-6.8153e-07
2.74608e-07
-5.69584e-07
1.82259e-06
2.76165e-06
2.54641e-06
2.07154e-06
-6.65681e-09
7.59307e-07
9.33408e-07
-1.50391e-06
-2.10904e-07
4.99733e-08
5.85688e-08
1.20108e-07
-1.00905e-05
-6.03425e-07
-1.46889e-07
1.08408e-05
-1.03043e-07
-3.16646e-05
-1.40058e-06
-1.34635e-06
-5.0898e-07
3.50236e-05
-1.17073e-05
3.64521e-05
0.000144178
3.21382e-06
4.33882e-06
3.70052e-06
3.97386e-06
6.67787e-08
1.73614e-05
3.00142e-06
7.98071e-07
2.03596e-06
-8.71714e-06
2.6409e-06
1.29404e-06
5.01891e-06
3.05375e-06
1.91417e-06
4.67714e-06
2.60202e-06
-8.82263e-07
3.75561e-07
1.25559e-06
-2.55284e-06
-2.74529e-08
-1.89866e-07
1.68479e-09
8.69943e-09
2.08625e-07
-6.43289e-05
7.47576e-06
-7.85359e-06
-5.71898e-06
6.76164e-05
2.80936e-06
-1.40925e-05
1.44735e-06
0.000238126
6.48542e-06
5.93275e-06
7.79726e-06
6.09869e-06
2.3873e-06
2.1376e-06
3.57702e-06
-1.66946e-07
5.47171e-06
0.000109283
-3.22522e-07
-2.90895e-08
-4.04535e-07
4.72745e-06
4.56987e-06
4.78693e-06
2.68564e-06
5.72984e-07
2.03981e-06
-3.42941e-06
-1.84138e-06
-6.48648e-07
-2.57335e-06
5.06239e-06
-5.16256e-05
4.89475e-06
-5.9793e-06
5.41575e-05
-5.17721e-05
4.12784e-06
-4.535e-06
4.30168e-06
5.33493e-05
-1.94604e-05
-1.71795e-06
1.23008e-06
1.99197e-05
5.23578e-07
5.11384e-07
-7.63637e-07
-3.22734e-07
-1.37751e-05
7.52321e-07
-2.94857e-06
1.59714e-05
-7.1495e-07
1.87898e-06
-1.97749e-06
-2.61988e-06
1.81442e-06
1.61892e-06
7.68832e-07
-1.97308e-05
3.61773e-06
-4.04795e-07
2.42352e-06
1.33255e-05
2.87537e-06
2.45504e-07
9.04212e-08
-5.6215e-07
-2.08095e-06
-5.68187e-07
6.84093e-07
3.74644e-06
-4.61924e-05
-7.00347e-06
1.59829e-06
4.7167e-05
-1.02416e-05
2.0419e-05
3.67571e-05
-2.42515e-06
-4.89186e-07
-3.78648e-06
-1.12176e-06
5.07286e-06
5.16264e-06
3.69079e-06
4.14108e-06
-2.21674e-06
1.60561e-05
3.5321e-05
-6.13916e-06
-6.32733e-06
-2.01571e-06
-3.7072e-06
3.05456e-06
5.94401e-06
2.16416e-06
-3.04462e-07
-2.66429e-07
6.68913e-07
-3.03007e-07
2.38339e-06
3.88687e-06
3.62664e-06
5.45021e-07
-1.04565e-06
3.9973e-06
6.25864e-07
-1.06798e-06
2.83493e-07
-1.18606e-06
-2.48204e-06
-9.4869e-07
2.26811e-06
2.06518e-06
-1.15892e-05
-6.18795e-07
-2.6597e-07
1.2474e-05
-1.54665e-06
-3.83109e-05
-1.44149e-06
5.12597e-07
-3.82656e-07
4.11691e-05
-1.18805e-06
2.99087e-05
0.000129574
1.30959e-06
1.2445e-06
1.90823e-06
1.84015e-06
2.95503e-06
1.62437e-05
-1.32927e-06
7.53762e-07
2.10235e-06
-1.17764e-05
1.36857e-06
5.37272e-07
-2.03212e-07
2.42778e-06
2.47984e-06
2.49193e-06
3.04188e-06
-1.08086e-06
1.26085e-07
1.14352e-06
-2.47686e-06
-2.33159e-06
-3.05412e-06
7.29379e-07
-1.22896e-06
1.6629e-06
4.22238e-06
-7.03523e-05
7.84742e-06
-7.34812e-06
-5.74895e-06
7.23314e-05
3.27049e-06
-5.0281e-06
1.30807e-06
0.000242387
5.35666e-06
4.9851e-06
6.42608e-06
4.98989e-06
2.51372e-06
1.71559e-06
3.3809e-06
4.84359e-07
3.34827e-06
0.000108383
3.48145e-08
-3.56645e-07
-3.04413e-07
3.48707e-06
2.57757e-06
2.84506e-06
4.03932e-06
2.67084e-07
1.81621e-06
-3.53591e-06
-6.31772e-06
-9.74402e-07
-1.54934e-06
1.23361e-06
7.60721e-06
-1.41829e-06
2.6832e-07
-5.12731e-07
1.6627e-06
-5.66117e-05
3.95e-06
-4.32672e-06
5.82965e-05
-5.54107e-05
1.64999e-06
-2.00972e-06
2.3972e-06
5.67215e-05
-2.03423e-05
-9.80252e-07
3.79489e-07
2.09333e-05
4.03228e-07
-3.9806e-07
5.17031e-07
-5.20367e-07
-1.69175e-05
3.77215e-06
-4.4108e-06
1.75561e-05
-1.73423e-06
-1.84166e-06
-3.13939e-06
-1.94439e-07
3.68864e-06
3.22107e-06
-6.67586e-07
-1.12671e-05
1.49109e-06
-2.3542e-06
2.81156e-07
1.25167e-05
1.08768e-06
1.78583e-07
1.71204e-07
-6.03529e-07
-1.07959e-06
2.45649e-07
2.76115e-06
2.10624e-06
-4.70525e-05
-4.62095e-06
7.96646e-08
4.67264e-05
-5.12798e-07
1.48869e-05
2.5624e-05
-2.56775e-06
-1.12329e-06
-3.71931e-06
-3.33766e-06
2.03079e-06
1.88024e-06
1.67334e-06
1.9227e-06
-3.52437e-07
4.08097e-06
3.46668e-05
-9.2534e-07
-1.01357e-06
-1.11056e-06
-5.37686e-07
1.91561e-08
3.12652e-06
3.37462e-06
-4.18551e-07
-1.95542e-07
-5.97054e-08
-6.87498e-09
-5.08049e-07
-1.42589e-06
-2.09397e-06
1.45164e-06
8.26704e-08
-2.15442e-07
-1.75429e-07
-1.12429e-06
-4.10474e-06
-1.0564e-06
1.07597e-06
-9.39794e-07
2.44996e-06
2.57501e-06
-1.32763e-05
-1.0448e-07
-5.65084e-07
1.39458e-05
-2.25785e-06
-4.35828e-05
-3.96239e-07
1.65597e-06
-7.6031e-07
4.53412e-05
8.40137e-06
2.88845e-05
0.000104837
2.24506e-07
-1.39533e-07
1.12583e-06
1.12794e-06
9.00443e-06
5.58728e-06
-3.43864e-06
-1.55717e-06
2.07703e-06
2.65849e-07
-2.06533e-06
-2.04103e-06
-2.39363e-06
2.34598e-06
1.926e-06
1.79687e-06
6.08616e-07
3.54696e-07
-2.53744e-06
-7.42461e-07
7.5942e-07
-3.48053e-06
-3.28299e-06
1.89106e-06
5.68638e-09
3.00655e-06
1.86022e-06
-7.3877e-05
8.02125e-06
-6.64108e-06
-5.95842e-06
7.48846e-05
3.57067e-06
2.83279e-06
1.33983e-06
0.000242886
3.92971e-06
3.85512e-06
5.06691e-06
3.79948e-06
2.75086e-06
1.47632e-06
3.33415e-06
1.08568e-07
1.90662e-06
0.000107583
6.63957e-07
-6.92115e-08
4.79811e-07
2.35033e-06
1.78242e-06
1.9969e-06
2.76281e-06
-1.31101e-06
1.72141e-06
-9.87604e-07
-7.91836e-06
5.60636e-07
1.6147e-06
-1.36718e-06
7.10945e-06
-2.4237e-06
-1.46498e-06
1.31216e-06
1.62875e-07
2.41365e-06
-5.98045e-05
3.11603e-06
-2.75648e-06
6.07848e-05
-5.7753e-05
1.92129e-07
-2.25635e-07
1.3296e-06
5.83635e-05
-2.17967e-05
-5.96511e-07
-4.4535e-07
2.28385e-05
3.01978e-07
4.92676e-07
-8.89024e-07
9.40592e-08
-1.87e-05
3.47955e-06
-4.57742e-06
1.97979e-05
-1.90435e-06
-7.59079e-07
-2.86542e-06
-1.60907e-06
4.62431e-06
2.51362e-06
1.14761e-06
-1.12736e-05
1.49401e-06
-1.81005e-07
-1.83896e-07
8.99685e-06
1.17608e-06
7.45812e-07
-1.69669e-06
-1.43846e-06
7.25185e-07
4.88067e-07
3.14862e-06
1.31897e-06
-4.66222e-05
-3.48943e-06
-8.18909e-07
4.6463e-05
-9.80721e-06
1.27107e-05
3.14203e-05
-4.35276e-06
-3.65467e-06
-3.92263e-06
-3.45e-06
1.9159e-06
1.4047e-06
1.61133e-06
1.7483e-06
-4.7817e-06
6.50328e-06
2.45391e-05
-7.32136e-07
-5.3225e-07
-7.48366e-07
6.11648e-07
-2.3314e-06
-7.30129e-07
2.93941e-06
6.91884e-07
8.99396e-07
1.23369e-06
1.64944e-07
-2.43048e-06
-5.76984e-07
-1.26742e-06
-3.25556e-07
1.40509e-06
-2.29022e-06
4.61702e-07
-1.58241e-06
-5.34139e-07
9.76816e-07
4.52389e-08
-3.83157e-08
-4.49601e-07
-1.45083e-05
4.52225e-07
-9.58334e-07
1.50144e-05
-2.30226e-06
-4.71068e-05
6.12775e-07
1.75209e-06
-1.49101e-06
4.85352e-05
7.45436e-07
2.69774e-05
8.73306e-05
2.1096e-07
-2.47247e-07
1.38565e-06
1.14442e-06
-8.73456e-06
5.57481e-06
6.96981e-06
-3.87351e-06
1.11248e-06
4.19514e-06
-4.78461e-06
-2.9319e-06
-4.75737e-06
9.26874e-07
5.92457e-07
3.21607e-07
-1.09437e-06
-1.01944e-06
-1.79569e-06
7.6155e-07
-7.25552e-07
-1.03421e-06
6.78824e-08
-5.65522e-07
1.5568e-06
-6.79827e-07
6.5487e-07
-7.56276e-05
7.96334e-06
-5.94737e-06
-5.94931e-06
7.58128e-05
3.74816e-06
4.62332e-06
1.36939e-06
0.000242567
2.91137e-06
3.15261e-06
4.1891e-06
3.21797e-06
2.94908e-06
1.50234e-06
3.38075e-06
-6.39055e-08
1.10522e-06
0.00011032
8.75958e-07
2.50211e-07
1.18936e-06
1.58294e-06
1.12145e-06
1.40019e-06
-1.04103e-06
-1.96918e-06
1.14501e-06
2.91377e-06
-5.89232e-06
-2.00193e-06
3.02404e-06
4.87021e-06
-6.15014e-05
2.621e-06
-1.75951e-06
6.20093e-05
-5.95195e-05
-6.30649e-07
4.89894e-07
2.01115e-07
6.05644e-05
-2.37395e-05
2.06561e-07
-8.58125e-07
2.43911e-05
-7.52873e-07
4.68782e-07
-1.1842e-06
1.46829e-06
-2.10486e-05
4.03244e-06
-5.2991e-06
2.23153e-05
-2.42175e-06
-1.73812e-06
-1.79234e-06
-7.9188e-08
4.78079e-06
1.25062e-06
1.64861e-06
-6.1072e-06
1.71382e-06
2.08769e-07
1.23449e-06
1.30151e-06
-3.97176e-06
-1.41551e-06
2.74305e-06
-5.66166e-07
5.7103e-06
-2.49991e-06
3.88782e-06
1.75426e-07
-4.65407e-05
-2.29992e-06
-2.27713e-06
4.70545e-05
-1.17852e-05
7.66616e-06
4.3789e-05
-3.49974e-06
-4.35987e-06
-2.34047e-06
-4.34309e-06
1.70409e-06
8.96147e-07
2.00011e-06
1.69319e-06
-2.39603e-06
6.83053e-06
1.78569e-05
-3.3967e-06
-3.65867e-07
-3.82493e-06
-1.94999e-06
1.5728e-06
2.17393e-06
-2.54178e-06
2.18559e-07
-1.42919e-06
-1.44233e-06
-1.99355e-06
8.28156e-07
2.03748e-06
1.11931e-06
2.88445e-06
-1.92164e-06
3.24607e-06
-2.63608e-06
-1.54766e-05
9.83234e-07
-1.69458e-06
1.6188e-05
-1.47614e-06
-4.97937e-05
2.17448e-06
9.38469e-07
-2.20586e-06
5.03628e-05
-7.83539e-06
2.01253e-05
7.75745e-05
1.02946e-06
2.47051e-07
2.35753e-06
1.49834e-06
-1.24179e-05
3.02435e-06
1.53585e-05
-1.57912e-06
4.90942e-07
2.09508e-06
-3.55116e-06
-1.37245e-06
-2.94014e-06
2.82163e-07
4.38211e-07
8.76537e-08
3.13129e-06
-2.55808e-06
-1.87258e-06
3.20284e-06
-3.48259e-06
-7.59771e-05
7.84364e-06
-5.45274e-06
-5.92233e-06
7.57945e-05
3.714e-06
4.44952e-06
1.35669e-06
0.000238977
2.002e-06
2.58054e-06
3.20598e-06
2.62883e-06
2.91983e-06
1.37115e-06
3.20099e-06
1.41479e-07
6.77878e-07
0.000110399
1.29835e-06
6.03605e-07
1.69207e-06
1.18421e-06
7.48484e-07
1.04923e-06
-4.67794e-06
-1.23404e-06
6.60481e-07
5.88393e-06
-3.5612e-06
-1.68223e-06
2.77684e-06
2.46659e-06
-6.23829e-05
2.2667e-06
-1.13499e-06
6.26079e-05
-6.20416e-05
-1.01442e-06
9.75794e-07
-4.18735e-07
6.31769e-05
-2.50014e-05
7.45959e-07
-1.19161e-06
2.5447e-05
-1.27082e-06
7.05428e-07
2.34118e-07
3.3127e-07
-2.34867e-05
5.3141e-06
-6.2236e-06
2.43962e-05
-2.14917e-06
-3.09962e-06
-1.37771e-06
1.19586e-06
3.56899e-06
1.86165e-06
-1.55742e-06
2.70621e-06
-2.01065e-07
1.14956e-06
2.97298e-06
-5.07027e-06
-5.34663e-06
-5.35805e-07
3.52619e-06
1.7389e-06
3.83862e-06
-3.22127e-06
4.82089e-06
-1.66763e-06
-4.80195e-05
-1.12315e-06
-3.35237e-06
4.93417e-05
-6.75977e-06
8.69318e-07
5.695e-05
-2.18312e-06
-4.39824e-06
-1.27706e-06
-4.00109e-06
1.54044e-06
4.74598e-07
1.26568e-06
1.30828e-06
2.76104e-06
1.1007e-05
1.16765e-05
-3.44266e-06
-3.40099e-06
-3.6578e-06
-3.84601e-06
2.82955e-06
1.06722e-05
-6.35655e-06
-3.38862e-06
-3.26064e-06
-4.13792e-06
-3.77422e-06
2.48154e-06
2.83414e-06
2.3198e-06
2.19034e-06
-3.71487e-06
5.6368e-06
-1.28272e-06
-1.72213e-05
3.31695e-06
-4.33092e-06
1.82353e-05
5.72081e-08
-5.0472e-05
2.67961e-06
-4.85192e-07
-2.04654e-06
5.02669e-05
-1.2674e-05
1.07209e-05
7.08871e-05
2.63151e-06
8.48586e-07
3.89092e-06
2.13892e-06
-1.00442e-05
3.47007e-06
2.02656e-05
-4.27358e-07
9.14523e-07
4.65269e-06
-1.79623e-06
-6.77094e-07
-1.94377e-06
6.38947e-07
1.01391e-06
3.4746e-07
3.24295e-06
-4.12414e-06
-1.91833e-06
4.39169e-06
-2.01952e-06
-7.56873e-05
7.77176e-06
-4.93813e-06
-5.77867e-06
7.53832e-05
3.24917e-06
2.69063e-06
1.10136e-06
0.000231645
1.29961e-06
2.21731e-06
2.45346e-06
2.17283e-06
2.53359e-06
9.77324e-07
2.60647e-06
9.50401e-08
4.24125e-07
0.000109628
1.48344e-06
6.75906e-07
1.76027e-06
9.1691e-07
6.60593e-07
9.15417e-07
-7.28588e-06
-5.53165e-07
4.85407e-07
8.3632e-06
-2.24518e-06
-2.00825e-06
1.66195e-06
2.59148e-06
-6.27982e-05
1.91183e-06
-7.76723e-07
6.27645e-05
-6.43727e-05
-1.12736e-06
1.29819e-06
-5.32516e-07
6.51585e-05
-2.58627e-05
1.24004e-06
-1.47609e-06
2.60988e-05
7.95187e-07
4.61687e-07
4.48814e-07
-1.70569e-06
-2.54063e-05
5.93983e-06
-6.97144e-06
2.64379e-05
-1.90338e-06
-3.61142e-06
-2.81991e-06
2.23751e-06
2.11644e-06
3.98076e-06
-2.41432e-06
6.70822e-06
-1.58129e-06
2.10931e-06
3.4128e-06
-8.23472e-06
-1.49397e-06
-2.80022e-07
3.18039e-06
1.99419e-06
-4.83266e-07
-2.91732e-06
5.88283e-06
-3.34886e-06
-5.0757e-05
9.45575e-07
-4.69343e-06
5.19708e-05
1.20082e-06
-5.15054e-06
6.79561e-05
-1.00563e-06
-3.97612e-06
1.05397e-07
-3.44483e-06
1.03352e-07
2.39241e-07
-3.52767e-07
1.27497e-06
5.27026e-06
1.22541e-05
9.72641e-06
-3.45476e-06
-3.53512e-06
-3.73577e-06
-3.64777e-06
2.52446e-06
1.44158e-05
-9.17912e-06
-3.55732e-06
-3.70712e-06
-3.60662e-06
-3.91479e-06
2.01459e-06
2.37785e-06
1.54603e-06
3.65669e-07
-3.92549e-06
5.95177e-06
1.3251e-07
-1.8989e-05
5.37905e-06
-5.69894e-06
1.93089e-05
1.53655e-06
-4.98419e-05
3.31167e-06
-2.12549e-06
-1.69179e-06
4.8811e-05
-1.57225e-05
3.74257e-06
6.37935e-05
4.00303e-06
1.87764e-06
4.90904e-06
3.13317e-06
-1.05203e-05
3.87112e-06
2.34464e-05
-6.01059e-07
1.46472e-06
8.8741e-06
-1.48695e-06
-9.68544e-07
-1.73778e-06
8.22684e-07
1.68223e-06
4.98777e-07
8.87496e-07
-4.52654e-06
-2.07694e-06
4.84952e-06
2.65405e-07
-7.52423e-05
7.63542e-06
-4.22626e-06
-5.39772e-06
7.48238e-05
2.40711e-06
-1.45582e-06
7.7154e-07
0.0002239
9.73333e-07
2.06899e-06
2.23271e-06
2.07366e-06
1.99333e-06
6.91635e-07
2.13849e-06
-4.91819e-07
2.09878e-07
0.00010792
1.10107e-06
7.04943e-08
1.2715e-06
6.74708e-07
4.91202e-07
7.96108e-07
-9.76587e-06
-1.67749e-07
5.01195e-07
1.04053e-05
-3.18305e-06
-2.00136e-06
9.55791e-07
4.22861e-06
-6.27221e-05
1.53859e-06
-5.67765e-07
6.25228e-05
-6.61091e-05
-1.08153e-06
1.27287e-06
-5.15647e-07
6.66433e-05
-2.6286e-05
1.50021e-06
-1.55078e-06
2.63366e-05
2.42222e-06
-1.09901e-08
5.50741e-07
-2.96197e-06
-2.73069e-05
7.45757e-06
-7.85987e-06
2.77092e-05
-8.8267e-07
-5.18467e-06
-5.54881e-06
4.54692e-06
-1.98693e-07
7.26793e-06
-2.2354e-06
9.5784e-06
-3.377e-06
2.9155e-06
3.61276e-06
-1.04943e-05
2.165e-06
-1.09458e-06
2.90175e-06
2.2514e-06
-3.60717e-06
-2.6164e-06
7.32789e-06
-4.60211e-06
-5.30931e-05
2.5621e-06
-6.46923e-06
5.42744e-05
6.20666e-06
-6.83394e-06
7.42966e-05
6.18537e-07
-3.68358e-06
1.73203e-06
-3.2411e-06
-1.35766e-06
4.2591e-07
-1.52548e-06
1.31807e-06
5.7973e-06
1.39065e-05
1.13927e-05
-3.71867e-06
-3.57254e-06
-3.99847e-06
-3.87375e-06
1.9507e-06
1.80963e-05
-1.13787e-05
-3.50623e-06
-3.93111e-06
-3.77514e-06
-4.10179e-06
1.11987e-06
1.46763e-06
6.76663e-07
-5.23495e-07
-3.76227e-06
5.82042e-06
4.16041e-07
-1.93896e-05
6.67514e-06
-6.68626e-06
1.94007e-05
2.97772e-06
-4.69773e-05
4.01435e-06
-2.8679e-06
-1.43929e-06
4.42924e-05
-1.8732e-05
-1.33547e-07
5.83124e-05
4.96953e-06
3.03503e-06
5.49421e-06
4.01388e-06
-1.38718e-05
4.60439e-06
2.78883e-05
-1.28984e-06
1.96153e-06
1.35529e-05
-1.67791e-06
-1.46891e-06
-1.76226e-06
7.55988e-07
2.37282e-06
6.54289e-07
-1.01693e-06
-4.55486e-06
-2.1784e-06
4.9653e-06
1.49506e-06
-7.45767e-05
7.19111e-06
-3.42811e-06
-4.95793e-06
7.41551e-05
1.61654e-06
-3.474e-06
6.20266e-07
0.00021381
1.12587e-06
2.04171e-06
2.69835e-06
2.21413e-06
1.79729e-06
7.22057e-07
2.2106e-06
-8.95878e-07
-8.42868e-09
0.000106759
8.77996e-07
-1.59864e-07
1.02781e-06
5.76326e-07
2.17304e-07
6.55457e-07
-1.15411e-05
9.9729e-09
5.1117e-07
1.20856e-05
-5.4966e-06
-1.84804e-06
1.52456e-07
7.19219e-06
-6.22822e-05
1.32741e-06
-3.63674e-07
6.19387e-05
-6.75335e-05
-1.16945e-06
1.27266e-06
-6.33129e-07
6.8055e-05
-2.63933e-05
1.53791e-06
-1.51704e-06
2.63724e-05
3.38618e-06
-5.97498e-07
8.80498e-07
-3.66918e-06
-2.77312e-05
1.01951e-05
-9.82066e-06
2.73567e-05
6.26926e-07
-8.26092e-06
-8.97461e-06
8.03044e-06
-1.7644e-06
1.03426e-05
-2.00695e-06
1.08874e-05
-5.91773e-06
4.1541e-06
3.56982e-06
-1.06866e-05
5.05298e-06
-2.31167e-06
3.82036e-06
2.80674e-06
-6.22133e-06
-3.14708e-06
9.60751e-06
-5.11023e-06
-5.51146e-05
3.5051e-06
-8.34754e-06
5.54598e-05
1.1153e-05
-4.40808e-06
7.65993e-05
1.35396e-06
-4.05776e-06
1.67054e-06
-3.72663e-06
-2.43115e-06
1.62566e-07
-2.77056e-06
7.51425e-07
6.42742e-06
1.55969e-05
1.64792e-05
-3.88473e-06
-3.81382e-06
-4.12918e-06
-4.13011e-06
1.17394e-06
2.16601e-05
-1.27745e-05
-3.93682e-06
-4.30872e-06
-4.19209e-06
-4.57165e-06
7.21354e-07
8.14645e-07
4.62449e-07
-8.71721e-08
-4.05509e-06
5.77738e-06
-4.61173e-07
-1.93501e-05
6.84456e-06
-6.7543e-06
1.92598e-05
3.60365e-06
-4.09102e-05
4.77184e-06
-3.14737e-06
-1.3917e-06
3.70738e-05
-2.20969e-05
-2.17116e-06
5.77197e-05
5.48421e-06
3.95737e-06
5.99656e-06
5.01458e-06
-1.84386e-05
6.55538e-06
3.32715e-05
-1.84994e-06
2.63231e-06
1.64007e-05
-1.72607e-06
-2.09817e-06
-1.65633e-06
9.66846e-07
3.24013e-06
8.64868e-07
-1.74782e-06
-4.74175e-06
-2.07834e-06
4.77704e-06
1.94094e-06
-7.39141e-05
6.76887e-06
-2.85742e-06
-4.60982e-06
7.35957e-05
1.01683e-06
-5.10892e-06
6.36645e-07
0.000200876
1.56103e-06
2.52136e-06
3.32938e-06
2.70669e-06
1.83168e-06
9.57596e-07
2.32818e-06
-9.91097e-07
-1.18845e-07
0.000106639
8.07891e-07
-3.77162e-07
1.05231e-06
5.17758e-07
1.04725e-07
5.71381e-07
-1.33137e-05
3.81091e-07
5.96806e-07
1.3977e-05
-9.05619e-06
-9.20184e-07
-9.46346e-07
1.09227e-05
-6.16716e-05
1.29237e-06
-1.7683e-07
6.11927e-05
-6.89265e-05
-1.26363e-06
1.47138e-06
-9.08082e-07
6.9508e-05
-2.6395e-05
1.57665e-06
-1.59587e-06
2.64142e-05
3.81404e-06
-1.24469e-06
1.26614e-06
-3.8355e-06
-2.68657e-05
1.2336e-05
-1.20622e-05
2.6592e-05
1.60578e-06
-1.10898e-05
-1.11969e-05
1.12916e-05
-1.46727e-06
1.08566e-05
-1.80595e-06
1.01151e-05
-8.27011e-06
6.01078e-06
3.10251e-06
-9.15235e-06
7.28198e-06
-3.17291e-06
4.92577e-06
2.98874e-06
-7.85649e-06
-4.16709e-06
1.07192e-05
-5.25893e-06
-5.5043e-05
4.47725e-06
-9.06697e-06
5.41725e-05
1.73661e-05
4.46578e-07
7.74253e-05
1.76462e-07
-4.62597e-06
-4.0568e-07
-4.59703e-06
-4.03549e-06
-4.92216e-07
-4.59955e-06
-5.91568e-08
9.03878e-06
1.69252e-05
2.27401e-05
-3.592e-06
-3.70375e-06
-3.78337e-06
-3.77958e-06
9.62222e-07
2.45671e-05
-1.28046e-05
-4.20585e-06
-4.87341e-06
-4.31269e-06
-5.08555e-06
7.58134e-07
7.39424e-07
5.19481e-07
9.33623e-07
-4.6486e-06
5.94399e-06
-1.2668e-06
-1.89974e-05
6.29872e-06
-6.02258e-06
1.87212e-05
3.42959e-06
-3.33205e-05
5.20394e-06
-3.7282e-06
-1.74366e-06
3.01589e-05
-2.42018e-05
-3.30246e-06
6.27777e-05
5.86634e-06
4.84181e-06
6.48317e-06
5.70161e-06
-2.22067e-05
9.96045e-06
3.82411e-05
-2.55318e-06
3.615e-06
1.75193e-05
-1.67898e-06
-2.94144e-06
-1.59868e-06
9.90904e-07
4.38111e-06
1.0271e-06
-2.28815e-06
-4.78355e-06
-1.93638e-06
3.55155e-06
2.90335e-06
-7.36502e-05
6.22703e-06
-2.81426e-06
-4.66456e-06
7.35525e-05
1.34949e-06
-1.01466e-05
7.38676e-07
0.000187712
2.69288e-06
3.337e-06
4.47735e-06
3.71657e-06
1.67998e-06
1.1393e-06
2.22587e-06
-1.77726e-06
-7.41841e-09
0.000106721
7.04456e-07
-1.53856e-06
8.52781e-07
5.78031e-07
2.96048e-07
6.23919e-07
-1.53994e-05
3.55763e-07
1.04931e-06
1.5832e-05
-1.25297e-05
6.14372e-07
-1.85837e-06
1.37737e-05
-6.09619e-05
1.39274e-06
-1.24113e-07
6.0432e-05
-7.02186e-05
-1.06097e-06
1.67555e-06
-1.10521e-06
7.07018e-05
-2.65295e-05
1.63551e-06
-1.75021e-06
2.66442e-05
3.80058e-06
-1.67406e-06
1.46562e-06
-3.59215e-06
-2.64926e-05
1.16111e-05
-1.19564e-05
2.68379e-05
2.07262e-06
-1.2364e-05
-9.46413e-06
1.27642e-05
-4.22203e-07
7.41342e-06
-1.23817e-06
8.15808e-06
-9.81582e-06
7.90778e-06
1.66363e-06
-6.67549e-06
8.25581e-06
-2.94366e-06
5.90815e-06
2.25852e-06
-7.63914e-06
-5.83967e-06
1.00792e-05
-5.67613e-06
-5.27891e-05
5.62794e-06
-8.2629e-06
5.1021e-05
2.58063e-05
5.05712e-06
7.51297e-05
-2.22047e-06
-3.96406e-06
-3.09105e-06
-3.68826e-06
-6.04465e-06
-1.01136e-06
-7.38441e-06
-1.16348e-06
1.48778e-05
1.62082e-05
2.66435e-05
-2.0996e-06
-2.2776e-06
-2.37297e-06
-2.43293e-06
1.1605e-06
2.58263e-05
-1.02895e-05
-3.6659e-06
-5.07237e-06
-3.71424e-06
-5.29025e-06
1.21268e-06
9.3433e-07
9.71692e-07
1.49347e-06
-4.87708e-06
6.03779e-06
-1.49368e-06
-1.84459e-05
5.45631e-06
-5.00468e-06
1.79943e-05
3.04952e-06
-2.81085e-05
4.82236e-06
-4.80942e-06
-2.3507e-06
2.73968e-05
-2.33497e-05
-1.17633e-06
7.07618e-05
5.76442e-06
4.52578e-06
6.21636e-06
5.09246e-06
-2.41325e-05
1.38583e-05
4.13737e-05
-3.34077e-06
4.49302e-06
1.77636e-05
-1.6909e-06
-3.79618e-06
-1.78746e-06
1.20125e-06
4.9898e-06
1.38076e-06
-3.80565e-06
-4.68863e-06
-1.95741e-06
2.14057e-06
4.97036e-06
-7.36568e-05
5.74644e-06
-3.20785e-06
-4.84427e-06
7.33989e-05
2.56364e-06
-1.49708e-05
1.03676e-06
0.000177985
3.65118e-06
3.87177e-06
5.60155e-06
4.18709e-06
1.73477e-06
1.29362e-06
2.14453e-06
-3.30764e-06
3.13251e-07
0.000109521
1.4273e-07
-3.12567e-06
1.18386e-07
7.09164e-07