/*--------------------------------*- C++ -*----------------------------------*\
| =========                 |                                                 |
| \\      /  F ield         | OpenFOAM: The Open Source CFD Toolbox           |
|  \\    /   O peration     | Version:  5.x                                   |
|   \\  /    A nd           | Web:      www.OpenFOAM.org                      |
|    \\/     M anipulation  |                                                 |
\*---------------------------------------------------------------------------*/
FoamFile
{
    version     2.0;
    format      ascii;
    class       volVectorField;
    location    "5";
    object      U;
}
// * * * * * * * * * * * * * * * * * * * * * * * * * * * * * * * * * * * * * //

dimensions      [0 1 -1 0 0 0 0];

internalField   nonuniform List<vector> 
10571
(
(-0.702441 0.0593944 2.09225)
(-0.206774 0.377181 0.929973)
(-0.663607 0.386226 2.39593)
(-0.804089 0.108601 1.8613)
(-0.449615 -0.309836 1.31297)
(-0.54115 0.423436 1.18102)
(-0.677983 0.621685 1.76729)
(-0.911532 -0.299989 3.12125)
(-0.968658 -0.635284 1.94929)
(-0.228821 -0.592044 1.58481)
(0.598574 -0.0382216 1.843)
(-0.0129399 -0.0388918 2.43389)
(-0.865833 0.692815 1.76321)
(-0.719491 0.23295 1.77421)
(-0.339346 0.00857512 1.35014)
(0.1904 0.139938 1.59901)
(0.013095 0.022036 1.90076)
(-0.30122 0.0874527 1.56519)
(-0.404026 0.51494 1.3629)
(-0.424215 0.651859 1.85259)
(-0.263842 0.399823 1.82612)
(0.189888 0.0291968 1.26335)
(-1.28812 1.07151 2.43656)
(-0.748824 0.345932 1.26002)
(-0.263108 0.0945353 0.991308)
(0.0482776 0.0182802 0.152632)
(-1.09604 0.533911 2.59422)
(-0.813691 0.204558 1.62345)
(-0.228367 -0.0286485 1.13226)
(0.838731 0.657062 2.66527)
(-0.349144 0.575308 1.42394)
(-0.607227 0.589886 1.36643)
(-0.412532 0.197766 0.737185)
(-0.330565 0.051168 1.06649)
(0.017106 0.191497 0.0323497)
(0.410439 -0.115458 1.78693)
(-0.414621 0.748993 2.94956)
(-0.845126 0.518141 2.04675)
(-0.465438 0.369453 0.816129)
(-0.430958 0.190941 0.843094)
(0.0950058 0.779927 1.67284)
(-0.0958874 0.0967182 2.14563)
(-0.723487 0.228627 2.56073)
(-0.536491 0.414264 1.26957)
(-0.433258 0.434239 1.26843)
(-1.28309 -0.250789 1.67213)
(-0.128571 -0.04705 0.952138)
(-0.26618 0.337458 1.57698)
(-0.0233449 0.0911276 0.579015)
(-0.00816746 -0.0473712 -0.279823)
(-1.4702 1.16639 3.29565)
(-0.218206 0.110516 0.872695)
(-0.250115 0.10302 0.867629)
(0.698004 0.493319 2.17606)
(0.0693309 0.270909 1.89449)
(-0.903552 0.420317 3.06678)
(-0.382707 0.1191 0.669537)
(-0.388826 -0.0366441 0.801134)
(0.00791233 0.312658 0.572164)
(-0.213274 0.461234 0.54098)
(-0.439523 0.474888 1.73082)
(-0.506648 0.32583 1.41199)
(-0.355248 0.163643 0.446236)
(-0.29035 0.18207 0.382003)
(-0.214658 0.365229 1.25077)
(-0.375185 0.542459 1.41081)
(-0.555118 0.539569 1.10818)
(-0.758201 1.20091 1.34986)
(-0.124154 0.420773 0.401498)
(-0.560768 -0.211868 1.26232)
(-0.43018 0.146156 1.33268)
(-0.466326 0.191436 1.21978)
(0.0534296 -0.00153666 -0.135416)
(-0.152609 0.106488 -0.18926)
(-0.441464 0.468576 2.34338)
(-0.263632 0.16161 0.455843)
(-0.300136 0.156963 1.00272)
(-0.526043 0.067294 0.756139)
(-0.567487 0.577206 2.01052)
(-0.0782113 0.125939 1.07092)
(-0.495504 0.116754 0.680129)
(-0.104519 -0.019933 0.179631)
(-0.0535209 -0.0827201 0.965785)
(-0.654768 0.0174813 0.987627)
(-0.545156 0.725782 1.42502)
(-0.102844 0.639503 0.544096)
(-0.263459 0.0769693 -0.0161107)
(-0.124987 0.0791792 0.0202987)
(-0.443584 -0.0386741 1.86559)
(-0.504199 0.687238 1.84163)
(-0.631846 0.759333 1.5316)
(-0.560569 0.383547 0.583158)
(-0.0319649 0.113475 -0.12287)
(-0.59562 -0.118439 1.83428)
(-0.476721 0.241689 1.53758)
(-0.444749 0.365453 1.43506)
(0.0744995 0.0515622 -0.00795116)
(-0.352921 -0.0527679 0.139931)
(-0.729207 -0.32871 1.2221)
(-0.0755566 0.0504246 0.937709)
(-0.0191328 0.151809 0.0857961)
(-1.13553 0.258246 1.29615)
(-0.449129 0.606304 1.28731)
(0.139822 0.233508 0.708581)
(-0.078868 0.361226 0.47277)
(-0.0166722 0.0387483 -0.177086)
(-0.0562878 -0.105824 1.27376)
(-0.290807 0.0444363 1.09925)
(-0.513085 0.973975 1.60492)
(-0.119229 0.405401 0.359277)
(0.0138334 0.312097 0.109789)
(-0.0100215 0.0746674 -0.168814)
(-0.516609 -0.187326 2.29077)
(-0.545783 0.661132 2.28534)
(-0.426946 0.682698 1.55894)
(0.0107589 0.2535 -0.00346802)
(0.0101992 0.0208045 -0.104636)
(-0.515267 -0.0852495 2.31524)
(-0.54563 0.316139 1.81876)
(-0.211871 0.266917 1.72265)
(-0.0124626 -0.0284897 -0.216649)
(-0.116893 0.0651396 0.68248)
(-0.124424 -0.130197 0.0215702)
(0.281195 0.354587 1.30493)
(0.00540765 0.0166119 -0.206381)
(-0.737959 0.205332 1.91004)
(-0.23644 0.361645 0.742604)
(-0.237492 0.360981 0.672658)
(0.300077 0.322449 0.594273)
(0.0868728 0.0434243 -0.143069)
(0.0283578 0.0103342 -0.00209842)
(-0.0105969 0.102104 1.48563)
(0.0152222 0.0475575 1.47675)
(-0.391064 0.890805 1.56529)
(-0.0329759 0.257402 -0.0100334)
(0.0708471 0.24369 -0.129177)
(0.0738158 0.132191 -0.194919)
(0.00226719 0.00249747 0.000408206)
(-0.502746 -0.250405 2.57713)
(-0.467871 0.495344 2.49402)
(-0.0998879 0.461649 1.10319)
(0.0287605 0.221972 -0.250122)
(0.194128 -0.00700393 0.317081)
(-0.396311 -0.0776607 2.66392)
(-0.34276 0.264522 2.1017)
(-0.0715527 0.0921555 1.84389)
(-0.0030768 -0.0374348 -0.125869)
(0.0803903 -0.198179 1.12027)
(-0.183199 0.0808671 -0.00404653)
(-0.174818 0.0236521 0.629414)
(0.0287576 -0.0450929 -0.140565)
(-0.496926 0.12723 2.03493)
(-0.182182 0.0900782 0.641273)
(-0.166189 0.330967 0.246753)
(0.100875 0.132354 -0.0568026)
(0.259584 0.0715508 0.00493537)
(0.0261377 0.0608811 -0.027314)
(-0.0113272 0.132942 1.72429)
(0.205514 0.0695208 1.75058)
(-0.133996 0.661876 1.50491)
(0.0877752 0.315912 0.101724)
(0.0667376 0.163608 -0.202879)
(0.0446255 0.114129 -0.162275)
(-0.0718278 0.152842 0.136675)
(-0.511346 -0.292389 2.79865)
(-0.309901 0.416829 2.56024)
(0.0898927 0.287486 1.26882)
(0.0458005 0.200158 -0.215348)
(0.169737 -0.0413512 0.461022)
(-0.101411 0.0479229 0.0980362)
(-0.304163 -0.0584353 2.904)
(-0.081671 0.178768 2.24332)
(-0.0268185 0.0375242 1.9106)
(0.0278557 0.0222471 -0.088225)
(0.18822 -0.257548 1.27749)
(0.00254827 0.216289 0.185839)
(-0.249635 0.0161644 0.674735)
(0.0324366 -0.0535547 -0.0970682)
(-0.342901 -0.0271541 2.08328)
(0.0488722 -0.0331348 0.201746)
(-0.0672265 0.180285 0.576916)
(0.0499273 0.0800603 0.0829736)
(-0.0247278 -0.00255067 -0.0892402)
(-0.178155 0.0916825 0.167307)
(-0.00469889 0.0527156 1.94576)
(0.295981 0.0233511 1.96572)
(-0.0190671 0.571002 1.19287)
(0.29009 -0.0210506 -0.112937)
(0.0496089 0.0653948 -0.0938646)
(-0.194596 -0.0207603 0.0281561)
(-0.155367 0.197472 0.111881)
(-0.501114 -0.316794 2.92599)
(-0.175948 0.392648 2.62078)
(0.268056 0.198088 1.16817)
(-0.0864529 0.180222 -0.0847169)
(-0.0377142 0.0229622 0.438617)
(-0.0256628 0.0543166 0.147617)
(-0.224297 -0.0424242 3.05575)
(0.0624357 0.125782 2.31755)
(0.0521056 0.0288468 2.07005)
(-0.0946443 -0.017527 -0.0212484)
(0.209503 -0.267325 1.37228)
(-0.0538647 0.197599 0.125975)
(-0.0158463 -0.045738 0.415923)
(-0.0474 -0.11037 -0.0462674)
(-0.276743 -0.0863931 2.04347)
(-0.140545 0.00940098 0.273014)
(-0.160763 0.139069 0.214253)
(-0.0231889 -0.0215946 0.0390979)
(-0.230716 -0.0217266 -0.00905732)
(-0.0551088 0.018329 0.00304747)
(-0.00498269 -0.0232405 2.11586)
(0.329407 -0.0576962 2.1156)
(0.0236266 0.46267 0.9038)
(0.00249001 0.0705476 0.0311131)
(-0.287227 -0.0110562 0.0945446)
(-0.250407 0.0793828 0.032757)
(0.0640338 0.016677 0.0354872)
(-0.482256 -0.31552 2.97569)
(-0.137851 0.410738 2.56988)
(0.303285 0.115931 1.13901)
(-0.113383 0.138865 0.0975547)
(-0.187055 0.064016 0.413281)
(-0.175399 -0.0389767 3.13073)
(0.115987 0.0854724 2.37734)
(0.102132 -0.0121054 2.1947)
(-0.129223 -0.0187399 0.172489)
(0.271856 -0.313406 1.59496)
(0.0925836 0.287957 0.0605528)
(-0.136506 -0.0618967 0.180024)
(0.196759 0.0224263 0.235489)
(-0.19305 -0.161231 2.05339)
(-0.177612 0.0579216 0.360989)
(-0.195361 0.233245 0.24311)
(0.0886299 0.133403 0.0134738)
(0.112569 0.195938 -0.11444)
(-0.0119643 -0.151068 2.2581)
(0.278345 -0.149842 2.22545)
(-0.041592 0.229893 0.816383)
(-0.214769 0.0163358 0.118209)
(-0.216643 -0.0427524 0.00177867)
(-0.0481521 0.215291 -0.103165)
(-0.472207 -0.30353 2.9752)
(-0.0816852 0.408022 2.51987)
(0.272879 0.0794757 1.1696)
(-0.0722228 0.0863415 0.231566)
(-0.166141 0.129267 0.214452)
(-0.140559 -0.033744 3.15817)
(0.139367 0.0571098 2.47126)
(0.137711 -0.0461908 2.30578)
(-0.158811 0.0427925 0.144671)
(0.305119 -0.379072 1.75077)
(0.148112 0.256391 0.0701015)
(-0.00891725 0.166057 -0.176683)
(0.261944 0.0505271 0.182771)
(-0.0530939 -0.264793 2.1405)
(-0.0763405 0.0750365 0.500398)
(-0.130774 0.300658 0.133662)
(0.191153 0.325438 -0.0572312)
(0.196401 0.350791 -0.0862492)
(-0.0606831 -0.635123 2.54849)
(0.200484 -0.150424 2.22518)
(-0.140127 -0.035487 0.759024)
(-0.271314 0.0748863 0.186003)
(-0.0824643 0.0809101 0.0374705)
(0.0248486 0.343994 -0.10026)
(-0.457537 -0.272164 2.96179)
(-0.0596543 0.356754 2.49987)
(0.18515 0.048936 1.16025)
(-0.0420082 0.0797941 0.345291)
(-0.12024 0.130538 0.209029)
(-0.111173 -0.03459 3.17008)
(0.14926 0.0418154 2.55322)
(0.169899 -0.0746349 2.37226)
(-0.0911062 0.0138885 -0.188327)
(0.341739 -0.389607 1.87242)
(0.207859 0.189936 0.136963)
(0.111262 0.205826 -0.331702)
(0.212028 0.0624851 0.0116868)
(0.13567 -0.376459 2.2572)
(0.0490596 0.0607463 0.636386)
(0.00461881 0.262986 0.0947492)
(0.140513 0.344064 -0.0825667)
(0.187895 0.357963 -0.00300471)
(-0.102203 -0.83086 2.76302)
(0.0748529 -0.15725 2.18887)
(-0.22668 -0.213942 0.678032)
(-0.288923 0.1462 0.217762)
(-0.0754903 0.196925 0.0641214)
(0.0119772 0.372599 -0.00701021)
(-0.427015 -0.228548 2.9442)
(-0.084862 0.313499 2.43174)
(0.0489704 -0.00436542 1.14203)
(-0.0398403 0.0894884 0.444805)
(-0.0857804 0.103136 0.33591)
(-0.0836909 -0.0511446 3.16303)
(0.139762 0.0416292 2.61515)
(0.185192 -0.0906059 2.39849)
(-0.0187805 0.00812096 -0.390402)
(0.455899 -0.409275 2.01157)
(0.378888 0.0881995 0.262216)
(0.208811 0.205271 -0.444243)
(0.168242 0.11334 -0.116182)
(0.279862 -0.519492 2.35392)
(0.160344 0.0760342 0.712814)
(0.081726 0.254173 0.0942285)
(0.0859598 0.37313 -0.108061)
(0.151825 0.349731 0.030556)
(-0.130655 -0.92964 2.76933)
(-0.00404259 -0.19739 2.01779)
(-0.299899 -0.285365 0.605652)
(-0.320606 0.213994 0.259836)
(-0.151126 0.287693 0.122497)
(-0.0181762 0.376544 0.0560071)
(-0.376123 -0.201435 2.91517)
(-0.0961881 0.271745 2.32989)
(-0.0165154 -0.0446277 1.13332)
(-0.0489028 0.102451 0.52022)
(-0.0404784 0.0688229 0.570849)
(-0.0711624 -0.0537138 3.13197)
(0.141979 0.0408436 2.67129)
(0.185184 -0.0891507 2.40576)
(0.0700674 0.0115655 -0.507071)
(0.595677 -0.503279 2.03113)
(0.652272 -0.0241576 0.414875)
(0.369501 0.19282 -0.472731)
(0.217262 0.162121 -0.220422)
(0.375236 -0.699275 2.43785)
(0.297926 0.143741 0.746011)
(0.12493 0.260107 0.13275)
(0.0645272 0.422577 -0.13287)
(0.0786338 0.354831 -0.00759403)
(-0.166463 -0.851404 2.76031)
(-0.0650275 -0.261826 1.72464)
(-0.365581 -0.273777 0.570474)
(-0.375934 0.282574 0.311938)
(-0.243063 0.367365 0.165226)
(-0.0286399 0.397031 0.0721744)
(-0.313961 -0.184423 2.88355)
(-0.147926 0.207012 2.20253)
(-0.0514981 -0.0442594 1.12326)
(-0.0372776 0.138702 0.602143)
(0.035445 -0.0404832 0.914538)
(-0.0661721 -0.0329863 3.09477)
(0.15168 0.0266814 2.72504)
(0.186137 -0.0803724 2.40518)
(0.167974 0.0116064 -0.546736)
(0.704444 -0.69693 1.94578)
(0.892483 -0.065486 0.484348)
(0.544447 0.162111 -0.418484)
(0.269768 0.177036 -0.298456)
(0.421057 -0.796325 2.396)
(0.447235 0.22758 0.758609)
(0.198362 0.250894 0.188836)
(0.077181 0.467744 -0.141811)
(0.0487323 0.379847 -0.0571257)
(-0.164128 -0.718949 2.68888)
(-0.117053 -0.313886 1.38584)
(-0.39564 -0.201304 0.591466)
(-0.422611 0.351049 0.36439)
(-0.321252 0.430532 0.178087)
(-0.0512537 0.4011 0.101644)
(-0.26706 -0.222013 2.88283)
(-0.283843 0.110041 2.02146)
(-0.118233 0.0017801 1.1118)
(-0.0784182 0.213758 0.684059)
(0.0926616 -0.154786 1.20909)
(-0.0655324 0.0206174 3.06039)
(0.148642 0.0154303 2.77177)
(0.193565 -0.073919 2.42023)
(0.235157 0.0135806 -0.527443)
(0.6566 -0.699408 1.93476)
(1.021 -0.104191 0.363665)
(0.692278 0.0894263 -0.319463)
(0.37695 0.137926 -0.316335)
(0.479658 -0.758656 2.28156)
(0.595484 0.278759 0.774578)
(0.346462 0.173877 0.258651)
(0.125888 0.475692 -0.132902)
(0.0469284 0.388631 -0.0756829)
(-0.127263 -0.599313 2.61094)
(-0.174035 -0.290454 1.20523)
(-0.352635 -0.0760567 0.654548)
(-0.430134 0.405357 0.408963)
(-0.382248 0.462221 0.184382)
(-0.0887365 0.385865 0.174979)
(-0.24282 -0.267661 2.87878)
(-0.357006 0.0540545 1.87975)
(-0.223833 0.0731587 1.12152)
(-0.189092 0.286869 0.753274)
(0.132194 -0.218444 1.36761)
(-0.0681717 0.0787511 3.01977)
(0.138791 0.00942197 2.80853)
(0.207126 -0.0698425 2.45634)
(0.279395 0.0155912 -0.457123)
(0.461861 -0.448403 1.98485)
(1.01408 -0.231072 0.205868)
(0.782349 -0.0303367 -0.191582)
(0.466961 0.102437 -0.236583)
(0.450839 -0.600566 2.06078)
(0.787114 0.231533 0.744608)
(0.549681 0.0478451 0.279117)
(0.188095 0.42269 -0.0811064)
(0.0638995 0.373775 -0.0623758)
(-0.103039 -0.532044 2.49105)
(-0.146831 -0.243552 1.25129)
(-0.24232 0.0419821 0.737904)
(-0.388502 0.427441 0.41769)
(-0.410183 0.456072 0.185084)
(-0.130344 0.359803 0.259566)
(-0.257378 -0.322684 2.86349)
(-0.337629 0.00583122 1.82313)
(-0.276408 0.0955663 1.16106)
(-0.295514 0.312993 0.806807)
(0.121467 -0.174627 1.43068)
(-0.0596201 0.105377 3.01344)
(0.121585 0.00108326 2.84982)
(0.210632 -0.0700421 2.49681)
(0.308596 0.00817662 -0.288412)
(0.492294 -0.277203 1.54132)
(0.928776 -0.380473 0.135527)
(0.793695 -0.156436 -0.0335121)
(0.531838 0.0637262 -0.0503594)
(0.384288 -0.402667 1.81837)
(0.939643 -0.0473174 0.667223)
(0.684016 -0.137948 0.28354)
(0.201492 0.327346 -0.00273161)
(0.0791128 0.329102 -0.00867534)
(-0.0181791 -0.438987 2.27428)
(0.152885 -0.257722 1.41698)
(-0.00209044 0.0492573 0.904429)
(-0.236363 0.35639 0.453091)
(-0.375893 0.391059 0.169083)
(-0.157719 0.289702 0.304238)
(-0.252739 -0.368762 2.78773)
(-0.316081 -0.143375 1.78982)
(-0.287395 0.0361498 1.25428)
(-0.367277 0.294739 0.8749)
(0.0838507 -0.0460514 1.46671)
(-0.0239258 0.0964919 2.99851)
(0.107709 -0.0209553 2.87108)
(0.190764 -0.0768778 2.5297)
(0.330536 -0.00290854 -0.0137066)
(0.571757 -0.54797 0.837101)
(0.822019 -0.458243 0.251034)
(0.72458 -0.301861 0.190266)
(0.54673 0.0388722 0.198484)
(0.58045 -0.232932 1.50216)
(0.912052 -0.465544 0.520538)
(0.678791 -0.377557 0.358034)
(0.204925 0.176068 0.126587)
(0.106469 0.245697 0.0883329)
(0.00391572 -0.44994 1.97592)
(0.237776 -0.424188 1.4795)
(0.457623 -0.22634 0.941495)
(0.232862 -0.0596212 0.625597)
(-0.171415 0.164866 0.266318)
(-0.161032 0.175782 0.325617)
(-0.202051 -0.404937 2.63257)
(-0.212387 -0.271659 1.75926)
(-0.31901 -0.142873 1.34042)
(-0.362964 0.183056 0.985234)
(-0.0556045 0.14594 1.36667)
(-0.00723269 0.0661554 2.89305)
(0.136397 -0.069071 2.84622)
(0.200899 -0.10839 2.51477)
(0.363135 -0.0110807 0.366888)
(0.569589 -0.717903 0.779719)
(0.679748 -0.38951 0.51285)
(0.563603 -0.424678 0.45083)
(0.483789 0.0910627 0.430719)
(0.450292 -0.694277 1.20809)
(0.741125 -0.673737 0.491099)
(0.608032 -0.53867 0.495348)
(0.25431 -0.0336276 0.336918)
(0.138534 0.118303 0.224636)
(-0.0308888 -0.541234 1.70459)
(0.376793 -0.718036 1.39622)
(0.753147 -0.624894 0.799299)
(0.571625 -0.508894 0.697141)
(0.130783 -0.206566 0.509629)
(-0.126382 0.0944191 0.367967)
(-0.0402134 -0.35078 2.30665)
(0.165952 -0.368188 1.74199)
(-0.18299 -0.273944 1.35639)
(-0.347574 -0.0168657 1.04399)
(-0.130547 0.250013 1.14304)
(0.069733 -0.0291054 2.69953)
(0.230517 -0.152855 2.71827)
(0.226001 -0.134438 2.37576)
(0.417572 -0.0218843 0.784604)
(0.543662 -0.672213 1.10569)
(0.48141 -0.241392 0.849645)
(0.348524 -0.449124 0.703714)
(0.343736 0.153653 0.615521)
(0.501752 -0.809614 1.02001)
(0.547831 -0.639364 0.553069)
(0.531731 -0.591723 0.669017)
(0.307358 -0.24345 0.605319)
(0.143107 -0.00630124 0.410563)
(-0.000569232 -0.659532 1.1894)
(0.401535 -0.673362 0.936177)
(0.706643 -0.764293 0.693369)
(0.647258 -0.740462 0.810131)
(0.337774 -0.475251 0.728827)
(-0.0161434 -0.0481695 0.497058)
(0.00728915 -0.384395 1.71653)
(0.466787 -0.579346 1.55759)
(0.26128 -0.582308 1.4275)
(-0.230287 -0.225668 1.07929)
(-0.0080545 0.112292 1.01151)
(0.273317 -0.154765 2.31816)
(0.30498 -0.266101 2.45196)
(0.243489 -0.167879 2.14955)
(0.420241 -0.0178089 1.15125)
(0.421066 -0.427266 1.38266)
(0.305731 -0.152365 1.06736)
(0.132084 -0.277078 0.934115)
(0.212127 0.113646 0.821853)
(0.44636 -0.400235 0.851237)
(0.381678 -0.414017 0.641768)
(0.484945 -0.623618 0.862781)
(0.30159 -0.348222 0.855987)
(0.111882 -0.122428 0.651982)
(-0.0156497 -0.261688 0.797103)
(0.331357 -0.342187 0.742701)
(0.493156 -0.584835 0.635515)
(0.624283 -0.756022 0.890009)
(0.476303 -0.65781 0.953162)
(0.149128 -0.248353 0.734188)
(0.147203 -0.185877 1.06619)
(0.41285 -0.627763 1.31604)
(0.528049 -0.797422 1.29208)
(0.313609 -0.674931 1.26154)
(0.119166 -0.103468 0.97839)
(0.177454 -0.25539 1.62474)
(0.481542 -0.37419 2.00197)
(0.463489 -0.267823 1.91989)
(0.318714 -0.0103205 1.32292)
(0.258719 -0.0863141 1.41161)
(0.119724 -0.088887 1.12723)
(-0.0530782 -0.157529 1.12347)
(0.0379027 0.0402827 1.01687)
(0.251325 -0.0872186 0.777513)
(0.305667 -0.129618 0.707322)
(0.417269 -0.484565 0.989883)
(0.260289 -0.378065 1.14091)
(0.0725481 -0.231997 0.937023)
(0.000983056 -0.105444 0.60542)
(0.189909 -0.193264 0.61277)
(0.363644 -0.264314 0.61507)
(0.602354 -0.600885 0.881374)
(0.516626 -0.705341 1.21913)
(0.276061 -0.437998 1.07318)
(0.092626 -0.103138 0.798578)
(0.272227 -0.394821 1.02747)
(0.596947 -0.674061 1.11596)
(0.607357 -0.80855 1.3359)
(0.36527 -0.514968 1.29237)
(-0.038286 -0.161263 1.05471)
(0.382378 -0.354889 1.24496)
(0.766758 -0.452424 1.46082)
(0.208127 -0.0204043 1.36958)
(-0.0538664 0.13386 1.28837)
(-0.0709959 0.0407936 1.15574)
(-0.146856 -0.126695 1.25062)
(-0.0908234 -0.030889 1.17407)
(0.0642962 0.136792 0.735571)
(0.310595 0.0747165 0.698761)
(0.360922 -0.272571 1.0638)
(0.221319 -0.349826 1.38827)
(0.045347 -0.306787 1.22348)
(0.00826322 0.00626631 0.47693)
(0.138082 -0.0755829 0.522739)
(0.367448 -0.0773439 0.5823)
(0.546947 -0.217347 0.841629)
(0.480354 -0.546929 1.43313)
(0.292366 -0.469349 1.43471)
(0.037112 -0.0693693 0.655335)
(0.165309 -0.193585 0.83235)
(0.585898 -0.275814 0.919581)
(0.612639 -0.576658 1.30931)
(0.40473 -0.631726 1.64586)
(0.0835305 -0.066945 0.795179)
(0.344673 -0.284857 0.719376)
(0.519309 -0.224378 1.02523)
(0.0837331 -0.0332412 1.41284)
(-0.0777408 0.133017 1.14466)
(-0.128235 0.0779478 1.16724)
(-0.17997 -0.119839 1.32653)
(-0.157494 -0.0773453 1.29702)
(-0.0245728 0.179025 0.669206)
(0.303653 0.164231 0.660936)
(0.343637 -0.163519 1.0734)
(0.172858 -0.271905 1.55562)
(0.0159392 -0.329218 1.47652)
(0.00552052 0.0830307 0.419617)
(0.13216 0.00116708 0.472199)
(0.375333 -0.0136579 0.563318)
(0.472321 -0.00621301 0.811578)
(0.420376 -0.311085 1.53748)
(0.238485 -0.413883 1.74365)
(-0.00987224 -0.0523726 0.567822)
(0.0544161 -0.105849 0.674179)
(0.336052 -0.171313 0.826288)
(0.520327 -0.15361 1.32136)
(0.324021 -0.537687 1.93192)
(0.131417 -0.00095263 0.626049)
(0.294005 -0.162862 0.503068)
(0.364782 -0.14841 1.03779)
(-0.0367391 -0.0273973 1.43071)
(-0.0643324 0.0968604 1.07937)
(-0.155374 0.0593829 1.19548)
(-0.177988 -0.131527 1.37518)
(-0.192108 -0.0845534 1.38361)
(0.00490844 0.184737 0.522224)
(0.25299 0.177343 0.629377)
(0.293924 -0.106114 1.07184)
(0.0909434 -0.168465 1.68221)
(0.00730741 -0.308206 1.68127)
(0.00415179 0.102999 0.405716)
(0.148369 0.0106797 0.446408)
(0.360879 -0.00795377 0.560126)
(0.366035 0.039776 0.791522)
(0.366372 -0.152146 1.6023)
(0.195942 -0.332094 1.94158)
(-0.0608961 -0.0504654 0.521268)
(-0.0731541 -0.0842022 0.584418)
(0.0221779 -0.216013 0.733619)
(0.367523 -0.0232299 1.34919)
(0.240751 -0.393662 2.11923)
(0.136017 0.0510604 0.527208)
(0.286353 -0.0794651 0.399463)
(0.327884 -0.139714 0.955826)
(-0.096252 -0.030708 1.44585)
(-0.0823482 0.107829 1.0422)
(-0.171382 0.062946 1.21269)
(-0.169654 -0.126343 1.38989)
(-0.209682 -0.0730399 1.4391)
(0.00735196 0.184373 0.414347)
(0.141706 0.143105 0.632874)
(0.162101 -0.0237984 1.07627)
(-0.000977604 -0.0785047 1.7446)
(-0.000311436 -0.306193 1.82001)
(0.00556958 0.0880634 0.40474)
(0.153992 -0.00104298 0.435279)
(0.294243 -0.027272 0.568958)
(0.195083 -0.0176774 0.834497)
(0.289527 -0.0688646 1.69663)
(0.162801 -0.28426 2.0765)
(-0.0781758 -0.0463265 0.505256)
(-0.143781 -0.0655488 0.529821)
(-0.168495 -0.2231 0.599792)
(0.236588 -0.00864211 1.30523)
(0.160753 -0.266618 2.2407)
(0.139173 0.0820174 0.470974)
(0.269322 -0.033498 0.343646)
(0.158001 -0.107676 0.967352)
(-0.106379 -0.0303033 1.47659)
(-0.118012 0.137967 0.945165)
(-0.187975 0.0798592 1.23135)
(-0.191191 -0.0961899 1.39181)
(-0.231684 -0.0671478 1.46167)
(-0.0149267 0.187733 0.375379)
(0.00246071 0.106287 0.67956)
(-0.01693 0.0164761 1.09013)
(-0.0478172 -0.0502701 1.73701)
(-0.0221184 -0.274676 1.88845)
(0.008137 0.0724666 0.393329)
(0.132105 0.0150027 0.433478)
(0.15292 -0.0453716 0.626046)
(-0.0487163 -0.146207 0.898353)
(0.200729 -0.0504934 1.76355)
(0.120789 -0.2012 2.1014)
(-0.0477853 -0.0291401 0.515197)
(-0.151503 -0.0305132 0.496028)
(-0.234173 -0.169262 0.466942)
(0.168816 -0.117455 1.3711)
(0.0863947 -0.151933 2.31935)
(0.154337 0.0958673 0.440986)
(0.267556 -0.00834167 0.317018)
(0.0855032 -0.220145 0.32415)
(-0.111503 -0.0257238 1.48544)
(-0.145212 0.125626 0.878306)
(-0.232793 0.0951475 1.27444)
(-0.247027 -0.0304114 1.37615)
(-0.261318 -0.0806214 1.44537)
(-0.0404083 0.20869 0.388517)
(-0.105463 0.095962 0.760747)
(-0.188087 -0.0580167 1.13362)
(-0.0658593 -0.081541 1.71675)
(-0.0443667 -0.278114 1.89873)
(0.0106159 0.0611278 0.385492)
(0.0909521 0.0473421 0.448144)
(-0.0132347 -0.0427572 0.723277)
(-0.282629 -0.266143 0.915991)
(0.0975843 -0.153838 1.77728)
(0.0558324 -0.18305 2.09479)
(-0.0116618 0.0108063 0.526354)
(-0.116383 0.0210789 0.500955)
(-0.274011 -0.120468 0.386701)
(0.10341 -0.0766323 1.31741)
(0.0536375 -0.0750139 2.30805)
(0.190524 0.104919 0.424769)
(0.287079 0.000351662 0.300724)
(0.122689 -0.200492 0.157506)
(-0.127718 -0.0259204 1.48282)
(-0.171306 0.106373 0.895698)
(-0.279318 0.108983 1.31182)
(-0.317227 0.0152234 1.33458)
(-0.286105 -0.139272 1.41375)
(-0.0521022 0.240385 0.433069)
(-0.162429 0.123125 0.855531)
(-0.291094 -0.190675 1.22358)
(-0.180683 -0.265204 1.67882)
(-0.0713667 -0.295626 1.88198)
(0.0104323 0.0502531 0.405755)
(0.0501369 0.0918729 0.486409)
(-0.130013 0.00319938 0.826904)
(-0.447334 -0.320238 0.926984)
(-0.226846 -0.384486 1.61066)
(-0.00139145 -0.128523 1.94019)
(-0.0153626 0.0494266 0.550947)
(-0.0715402 0.0788325 0.539652)
(-0.274759 -0.10061 0.385962)
(-0.375577 -0.014544 0.993274)
(-0.0759678 -0.0203715 2.15341)
(0.219094 0.112797 0.41319)
(0.295287 0.00757093 0.32138)
(0.0828503 -0.105751 0.206251)
(-0.156985 -0.0309442 1.4773)
(-0.222518 0.114062 0.991019)
(-0.340359 0.0934043 1.3398)
(-0.378384 -0.00590397 1.3396)
(-0.31942 -0.304086 1.48389)
(-0.0452717 0.280815 0.494748)
(-0.171844 0.184645 0.935234)
(-0.280837 -0.240054 1.33384)
(-0.30229 -0.471555 1.63696)
(-0.127991 -0.410109 1.78906)
(0.00832556 0.0347847 0.453431)
(0.0128144 0.127722 0.548666)
(-0.143301 0.0800567 0.943864)
(-0.473046 -0.299332 0.95989)
(-0.519788 -0.448645 1.23965)
(-0.0751319 -0.321159 1.75865)
(-0.0290555 0.0805503 0.593962)
(-0.0297445 0.113174 0.584908)
(-0.214469 -0.0704074 0.441306)
(-0.500568 -0.111156 0.550261)
(0.0658226 -0.160249 1.89641)
(0.221993 0.120404 0.420475)
(0.298762 -0.00330183 0.365743)
(0.107173 -0.0684595 0.329398)
(-0.238118 -0.0224156 1.4631)
(-0.261711 0.144863 1.09884)
(-0.388077 0.0531303 1.34573)
(-0.396163 -0.0337531 1.40736)
(-0.351534 -0.38237 1.60992)
(-0.0213044 0.323944 0.555656)
(-0.159861 0.241042 0.993136)
(-0.195637 -0.166698 1.41611)
(-0.29023 -0.486217 1.61288)
(-0.161284 -0.602557 1.7847)
(0.00462479 0.012428 0.515283)
(-0.017827 0.153027 0.623671)
(-0.0855635 0.153263 1.05116)
(-0.33407 -0.170551 1.03034)
(-0.470998 -0.323319 0.969268)
(-0.117521 -0.401527 1.0982)
(-0.0380024 0.0963988 0.640543)
(-0.0125341 0.120015 0.626122)
(-0.155963 -0.0266023 0.495795)
(-0.314014 -0.104499 0.440649)
(-0.0637242 -0.047702 1.29683)
(0.224611 0.130602 0.453035)
(0.294369 -0.0168823 0.403546)
(0.165013 -0.0898969 0.386737)
(-0.32666 -0.0347409 1.48029)
(-0.277887 0.146915 1.25074)
(-0.460238 0.0504151 1.25262)
(-0.373625 -0.0285715 1.44499)
(-0.340384 -0.343467 1.73256)
(0.0113346 0.336924 0.612205)
(-0.1385 0.264659 1.03146)
(-0.11494 0.0310439 1.42336)
(-0.235571 -0.370456 1.53486)
(-0.0483615 -0.524415 1.8149)
(0.000109226 -0.0181084 0.574905)
(-0.0497169 0.159283 0.711726)
(-0.0462426 0.174114 1.10764)
(-0.0841595 0.0484661 1.13512)
(-0.320249 -0.191716 0.814703)
(-0.0601627 -0.0322999 0.65581)
(-0.0449991 0.0956889 0.675693)
(-0.0216037 0.11122 0.66452)
(-0.116523 0.0303956 0.550719)
(-0.150616 -0.0625896 0.387047)
(-0.0292554 0.00182663 0.635756)
(0.222559 0.132314 0.500198)
(0.274277 -0.0214267 0.436132)
(0.206816 -0.101142 0.413198)
(-0.301457 -0.0355822 1.58505)
(-0.128899 0.188692 1.35943)
(-0.469123 0.0174924 1.14877)
(-0.273075 0.042494 1.33731)
(-0.322515 -0.279347 1.76256)
(0.0197315 0.296513 0.668658)
(-0.104784 0.261754 1.04344)
(-0.102253 0.18859 1.39122)
(-0.199112 -0.0394077 1.39991)
(-0.0476225 -0.305474 1.70939)
(-0.00905721 -0.0475586 0.624458)
(-0.0826161 0.14384 0.802114)
(-0.0431136 0.161994 1.12155)
(0.00484426 0.163499 1.21367)
(-0.16396 -0.0801548 0.760104)
(-0.0367093 0.0699573 0.500036)
(-0.0543425 0.0896258 0.697337)
(-0.0470823 0.108005 0.701616)
(-0.0910151 0.0815244 0.61255)
(-0.0671196 -0.011999 0.362663)
(0.0183032 0.0340823 0.468113)
(0.211803 0.124788 0.552086)
(0.244869 -0.0100128 0.482941)
(0.227442 -0.102907 0.451034)
(-0.290509 -0.0162992 1.61746)
(-0.0339984 0.251409 1.13882)
(-0.392244 0.0054442 1.17763)
(-0.239473 0.0996483 1.09074)
(-0.245076 -0.132029 1.68452)
(0.0182846 0.224515 0.715709)
(-0.0634336 0.238552 1.03713)
(-0.105133 0.246429 1.40059)
(-0.181871 0.134176 1.37271)
(-0.0886618 0.0346819 1.34152)
(-0.0230268 -0.0673794 0.673752)
(-0.116337 0.113457 0.874684)
(-0.064351 0.144694 1.13134)
(-0.00638693 0.198495 1.26069)
(-0.0163488 0.0113808 0.756944)
(0.0490185 0.0318387 0.523854)
(-0.0694044 0.0875397 0.71566)
(-0.0758833 0.118788 0.734955)
(-0.0712684 0.117208 0.661327)
(-0.0363703 0.0165028 0.394262)
(0.0284552 0.0553761 0.468667)
(0.191395 0.11567 0.60779)
(0.220033 0.00768279 0.544886)
(0.23579 -0.0977577 0.511938)
(-0.345549 -0.0644219 1.48102)
(-0.0747184 0.212271 0.871914)
(-0.145776 0.131683 1.35141)
(-0.17256 0.031241 0.919631)
(-0.0270178 0.100141 1.47248)
(-0.00551786 0.171881 0.752351)
(-0.044971 0.182436 1.05124)
(-0.104204 0.24377 1.41771)
(-0.17021 0.175184 1.37708)
(-0.0809468 0.141903 1.14143)
(-0.0380251 -0.0865682 0.747407)
(-0.167856 0.0833096 0.914948)
(-0.107408 0.148999 1.12617)
(-0.0317318 0.198322 1.26074)
(0.0854043 0.0674183 0.753483)
(0.11782 -0.0117509 0.575439)
(-0.0920632 0.101944 0.748299)
(-0.0940455 0.143637 0.758744)
(-0.0484151 0.143271 0.694021)
(-0.0277427 0.0296062 0.467364)
(0.0214702 0.0699613 0.517628)
(0.167308 0.11231 0.671345)
(0.202661 0.0237902 0.619372)
(0.235977 -0.0920071 0.594152)
(-0.281845 -0.0890681 1.42594)
(-0.0988759 0.116472 0.76457)
(0.123332 0.233245 1.38349)
(-0.0465895 -0.0634257 0.884018)
(0.0346756 0.118251 1.22889)
(-0.0553899 0.131716 0.803073)
(-0.0923912 0.078513 1.07436)
(-0.0935289 0.173833 1.4515)
(-0.160105 0.171278 1.38998)
(-0.0728234 0.115266 1.08902)
(-0.0530106 -0.107459 0.873378)
(-0.218135 0.0565628 0.936939)
(-0.171571 0.177148 1.05636)
(-0.0495853 0.20473 1.21377)
(0.140251 0.0796443 0.735085)
(0.13954 -0.0371233 0.635827)
(-0.100964 0.123319 0.815382)
(-0.0901725 0.16852 0.77045)
(-0.0266931 0.155934 0.722651)
(-0.0217338 0.0310744 0.56321)
(0.00801209 0.0705628 0.573356)
(0.148391 0.115836 0.748832)
(0.19231 0.0360977 0.706329)
(0.232178 -0.0858299 0.692105)
(0.0162444 -0.0579079 1.36457)
(-0.0470233 0.0348855 0.793743)
(0.223274 0.281577 1.25223)
(-0.0124262 -0.168522 0.892964)
(0.0331291 0.063525 1.06344)
(-0.0961633 0.0805879 0.891804)
(-0.166642 -0.00618894 1.05948)
(-0.10822 0.00317763 1.40748)
(-0.103314 0.143321 1.4066)
(-0.0321695 0.0861222 1.0845)
(-0.0340025 -0.100866 1.05952)
(-0.227129 0.0471338 0.944916)
(-0.198228 0.189645 0.924775)
(-0.03301 0.222377 1.04384)
(0.152678 0.0666837 0.7199)
(0.144799 -0.039172 0.697647)
(-0.0833673 0.116534 0.905098)
(-0.0612591 0.1745 0.785166)
(-0.0131831 0.132296 0.759246)
(-0.0157687 0.0167332 0.667279)
(-0.00216047 0.0561276 0.617925)
(0.148606 0.119633 0.836493)
(0.198531 0.0391846 0.802345)
(0.232482 -0.0856794 0.796543)
(0.15727 -0.0856596 1.40877)
(0.0171365 -0.0172803 0.855042)
(0.101971 0.248633 1.10302)
(-0.0558824 -0.219548 0.936071)
(0.0624771 0.0294109 1.01286)
(-0.0994695 0.0440259 0.998322)
(-0.1964 -0.0218632 1.02142)
(-0.114982 -0.0863959 1.21288)
(0.0170833 0.041003 1.3628)
(0.0291709 0.0606034 1.1108)
(0.00357021 -0.0330333 1.15802)
(-0.163076 0.0601166 0.969107)
(-0.15475 0.160332 0.815181)
(-0.011039 0.182779 0.878523)
(0.128995 0.0327406 0.710846)
(0.133337 -0.00775552 0.772077)
(-0.033353 0.0836754 0.988212)
(-0.00843897 0.162251 0.809555)
(-0.00491045 0.0548817 0.804387)
(-0.0171646 -0.0254547 0.758073)
(-0.00670965 0.0303924 0.650501)
(0.176503 0.118842 0.914096)
(0.228661 0.0324514 0.893595)
(0.238134 -0.0937841 0.891667)
(0.178293 -0.129442 1.6351)
(0.027041 -0.0311446 0.889686)
(0.00693048 0.137191 1.05996)
(-0.0497354 -0.114995 1.0125)
(0.0637708 -0.0212042 1.07448)
(-0.0631186 0.0273124 1.10014)
(-0.179424 -0.00105572 0.991159)
(-0.0533394 -0.0474589 1.00651)
(0.0885927 -0.0616529 1.26359)
(0.0810841 0.0179708 1.17068)
(0.00930698 0.0343714 1.09375)
(-0.0429425 0.0721905 1.04208)
(-0.11615 0.116088 0.739083)
(-0.020525 0.100535 0.786)
(0.0916788 -0.0216502 0.716624)
(0.104926 0.0299034 0.865797)
(0.021747 0.0752703 1.04056)
(0.0421249 0.145348 0.826231)
(-0.0092042 -0.0343886 0.836049)