/*--------------------------------*- C++ -*----------------------------------*\
| =========                 |                                                 |
| \\      /  F ield         | OpenFOAM: The Open Source CFD Toolbox           |
|  \\    /   O peration     | Version:  5.x                                   |
|   \\  /    A nd           | Web:      www.OpenFOAM.org                      |
|    \\/     M anipulation  |                                                 |
\*---------------------------------------------------------------------------*/
FoamFile
{
    version     2.0;
    format      ascii;
    class       volVectorField;
    location    "5";
    object      Us;
}
// * * * * * * * * * * * * * * * * * * * * * * * * * * * * * * * * * * * * * //

dimensions      [0 1 -1 0 0 0 0];

internalField   nonuniform List<vector> 
10571
(
(-0.01656 0.0296027 0.0436754)
(-0.000182977 0.0670316 -0.0872938)
(-0.0365535 0.190815 0.0599778)
(-0.224984 0.000647929 0.0679255)
(-0.163984 -0.115093 0.0208078)
(0.0275988 0.107201 0.0984905)
(-0.165264 0.236057 0.199251)
(-0.286658 -0.0359525 0.142517)
(-0.149821 -0.0505387 0.0618621)
(-0.046146 -0.0453853 0.0303372)
(0.017373 -0.0334555 -0.156276)
(0.0423332 0.00687822 0.0390249)
(-0.174839 0.137934 0.13213)
(-0.235859 -0.00614333 0.1455)
(-0.0872999 0.0788583 0.0486371)
(-0.00126013 0.122515 0.0315619)
(0.0402003 0.0196177 -0.205281)
(0.00715179 0.023879 -0.211322)
(0.00672143 0.112486 -0.00574439)
(-0.10621 0.306828 0.159621)
(-0.114215 0.218603 0.0712359)
(0.0678428 0.0123614 -0.122248)
(-0.0899836 0.109798 0.126915)
(-0.170857 0.117674 0.124814)
(-0.00828609 0.016884 -0.00792736)
(0.0456634 -0.00973128 -0.299568)
(-0.05902 0.190611 0.0585862)
(-0.179948 0.154806 0.250101)
(-0.139452 -0.0246032 0.125302)
(0.0544844 -0.0599724 -0.215052)
(-0.163213 0.25308 0.344138)
(-0.229119 0.112158 0.239028)
(-0.149717 0.023482 -0.0207983)
(-0.0659627 -0.0270663 0.0140672)
(0.00598343 0.090251 -0.389557)
(0.0503224 0.0673554 -0.315235)
(0.0496846 0.151677 -0.142263)
(-0.063673 0.0904066 -0.0332175)
(-0.10294 0.119574 -0.0460546)
(-0.0701741 0.0733064 -0.042251)
(0.0652956 0.169942 -0.389925)
(0.0738715 0.116892 -0.296587)
(-0.0639341 0.0770875 -0.0482119)
(-0.193507 0.223296 0.241224)
(-0.105445 0.147916 0.0373237)
(-0.0298029 -0.00850725 -0.261585)
(0.0222435 -0.0125262 -0.258103)
(-0.122889 0.166264 0.183448)
(3.16349e-05 0.023076 -0.10014)
(0.00756846 -0.0197712 -0.392336)
(0.101516 -0.114569 -0.12172)
(-0.120541 0.0794847 0.198892)
(-0.0707694 0.0153203 0.0786847)
(0.00804594 -0.00228198 -0.247834)
(-0.117479 0.213691 0.355243)
(-0.0932267 0.136457 0.179136)
(-0.0826247 0.0352231 -0.0963514)
(-0.0502903 -0.0110654 -0.100785)
(-0.0130158 0.136567 -0.359994)
(-0.0133605 0.140074 -0.298957)
(0.0835371 0.203754 -0.244544)
(0.146215 0.185674 -0.267642)
(-0.0357145 0.0912414 -0.18831)
(-0.04176 0.0276926 -0.152645)
(-0.0326576 0.244111 -0.362661)
(0.0730906 0.24646 -0.293731)
(0.0333639 0.149011 -0.267643)
(0.0579418 0.0358659 -0.219664)
(-0.0471956 0.0462176 -0.095972)
(0.0320185 -0.114586 -0.266817)
(-0.0699718 0.0242184 -0.281872)
(0.0744182 -0.0570629 -0.119554)
(0.0961904 0.00102649 -0.400452)
(-0.0346583 0.0251613 -0.382425)
(0.0624864 -0.0670477 -0.225093)
(0.10387 0.014973 -0.295148)
(0.0847927 0.0319346 -0.221889)
(-0.0625407 0.0423287 -0.322258)
(0.0968235 0.122233 -0.113147)
(0.145226 0.124439 -0.244592)
(-0.00924433 0.0710296 -0.221413)
(-0.0284475 0.020578 -0.182892)
(0 0 0)
(-0.0685761 0.180547 -0.293586)
(0.0738376 0.209646 -0.214352)
(0.123495 0.184938 -0.289857)
(-0.0275496 0.0748615 -0.280654)
(-0.0332289 0.0224622 -0.221185)
(0 0 0)
(-0.00838645 0.219993 -0.292165)
(-0.0106672 0.210649 -0.268606)
(-0.0248832 0.07675 -0.271749)
(-0.0236626 0.0015354 -0.218038)
(-0.0698115 -0.00182748 -0.223363)
(-0.0801704 0.126744 -0.250114)
(-0.0112999 -0.0330459 -0.185547)
(0.0861379 0.00593812 -0.38113)
(-0.0792398 -0.00620836 -0.327381)
(0.0129104 -0.0597823 -0.258607)
(0.110735 -0.0191609 -0.248446)
(0.0112068 0.0447582 -0.31072)
(-0.106036 0.0632429 -0.219037)
(0.051445 0.134777 -0.186911)
(0.0912086 0.142358 -0.213324)
(0.0608213 0.134067 -0.235759)
(-0.00503988 0.035828 -0.264205)
(0 0 0)
(0 0 0)
(0.0424888 0.192877 -0.219846)
(0.0606485 0.171215 -0.289565)
(0.016415 0.140283 -0.272613)
(-0.0103766 0.0617314 -0.255484)
(0 0 0)
(-0.115716 -0.0705897 -0.196949)
(0.0160299 0.228908 -0.275925)
(-0.00861585 0.163457 -0.305094)
(0.00741774 -0.0149976 -0.197297)
(-0.0349059 0.302299 -0.232549)
(-0.102796 0.0492436 -0.163369)
(-0.012048 0.215345 -0.232148)
(0.0625233 0.00265718 -0.325785)
(0 0 0)
(-0.00641106 -0.0480679 -0.282963)
(0.0645093 0.0113713 -0.212015)
(-0.00801784 0.00251381 -0.307023)
(0 0 0)
(-0.000749996 0.0978268 -0.238296)
(0.0352122 0.13873 -0.22626)
(0.0608584 0.129631 -0.214502)
(0.011054 0.0232748 -0.277283)
(0.0219535 0.00914643 -0.00318691)
(0 0 0)
(0 0 0)
(-0.00355155 0.17457 -0.268317)
(0.0564957 0.165493 -0.280486)
(0.0544103 0.17358 -0.250772)
(0.0482249 0.101346 -0.258611)
(0.000634703 0.00216089 0.000725274)
(0 0 0)
(1.15522e-05 -0.326288 -0.119219)
(0.0309806 0.222249 -0.263276)
(0.0278601 0.209897 -0.28434)
(0.0387868 -0.0453095 -0.155534)
(0 0 0)
(-0.132796 0.017046 -0.149906)
(-0.0258216 0.125052 -0.186025)
(0.0277306 -0.00988926 -0.225344)
(0 0 0)
(-0.0254234 -0.026578 -0.32086)
(0.0374406 -0.0281266 -0.202953)
(-0.00359294 -0.0165958 -0.261275)
(0 0 0)
(0.000238709 0.0446973 -0.25076)
(0.0592732 0.0919182 -0.237875)
(0.0756636 0.0823874 -0.22352)
(0.0515048 0.00381026 -0.257933)
(0.0988186 0.113449 -0.225694)
(0 0 0)
(0 0 0)
(0 0 0)
(0.0715533 0.144925 -0.268284)
(0.0687504 0.139542 -0.243925)
(0.055533 0.0821051 -0.234497)
(0 0 0)
(0 0 0)
(0 0 0)
(-0.00663933 0.0240218 -0.218784)
(0.0669345 0.195783 -0.273598)
(0.0234253 0.00149551 -0.227015)
(0 0 0)
(0 0 0)
(0 0 0)
(-0.0434261 0.129152 -0.142321)
(-0.0204326 0.00436804 -0.160798)
(0 0 0)
(0 0 0)
(0.0589864 -0.0417966 -0.20424)
(0.0385839 -0.0192309 -0.18807)
(0 0 0)
(0 0 0)
(0.0650595 0.0317539 -0.190165)
(0.0630669 0.0355698 -0.198052)
(0.0465617 -0.0150216 -0.213255)
(0 0 0)
(0 0 0)
(0 0 0)
(0 0 0)
(-0.112056 0.065675 -0.255553)
(0.0643886 0.101773 -0.214976)
(0.0505078 0.0386122 -0.196193)
(0 0 0)
(0 0 0)
(0 0 0)
(-0.162236 -0.245142 -0.124315)
(0 0 0)
(0.0866429 0.179143 -0.250345)
(0 0 0)
(0 0 0)
(0 0 0)
(0 0 0)
(-0.0909265 -0.0151519 -0.0930015)
(0 0 0)
(0 0 0)
(0 0 0)
(0.000782064 -0.0847723 -0.164098)
(0 0 0)
(0 0 0)
(-0.0625303 0.0119947 -0.163207)
(0.00612077 0.00429527 -0.16672)
(0 0 0)
(0 0 0)
(0 0 0)
(0 0 0)
(0 0 0)
(0 0 0)
(-0.0318269 0.0934275 -0.151763)
(0 0 0)
(0 0 0)
(0 0 0)
(0 0 0)
(0 0 0)
(0 0 0)
(0 0 0)
(0 0 0)
(0 0 0)
(0 0 0)
(0 0 0)
(0 0 0)
(0 0 0)
(0 0 0)
(0 0 0)
(0 0 0)
(0 0 0)
(0 0 0)
(0.0588508 -0.0525668 -0.0995083)
(0 0 0)
(0 0 0)
(0 0 0)
(0 0 0)
(0 0 0)
(0 0 0)
(0 0 0)
(0 0 0)
(0 0 0)
(0 0 0)
(0 0 0)
(0 0 0)
(0 0 0)
(0 0 0)
(0 0 0)
(0 0 0)
(0 0 0)
(0 0 0)
(0 0 0)
(0 0 0)
(0 0 0)
(0 0 0)
(0 0 0)
(0 0 0)
(0 0 0)
(0 0 0)
(0 0 0)
(0 0 0)
(0 0 0)
(0 0 0)
(0 0 0)
(0 0 0)
(0 0 0)
(0 0 0)
(0 0 0)
(0 0 0)
(0 0 0)
(0 0 0)
(0 0 0)
(0 0 0)
(0 0 0)
(0 0 0)
(0 0 0)
(0 0 0)
(0 0 0)
(0 0 0)
(0 0 0)
(0 0 0)
(0 0 0)
(0 0 0)
(0 0 0)
(0 0 0)
(0 0 0)
(0 0 0)
(0 0 0)
(0 0 0)
(0 0 0)
(0 0 0)
(0 0 0)
(0 0 0)
(0 0 0)
(0 0 0)
(0 0 0)
(0 0 0)
(0 0 0)
(0 0 0)
(0 0 0)
(0 0 0)
(0 0 0)
(0 0 0)
(0 0 0)
(0 0 0)
(0 0 0)
(0 0 0)
(0 0 0)
(0 0 0)
(0 0 0)
(0 0 0)
(0 0 0)
(0 0 0)
(0 0 0)
(0 0 0)
(0 0 0)
(0 0 0)
(0 0 0)
(0 0 0)
(0 0 0)
(0 0 0)
(0 0 0)
(0 0 0)
(0 0 0)
(0 0 0)
(0 0 0)
(0 0 0)
(0 0 0)
(0 0 0)
(0 0 0)
(0 0 0)
(0 0 0)
(0 0 0)
(0 0 0)
(0 0 0)
(0 0 0)
(0 0 0)
(0 0 0)
(0 0 0)
(0 0 0)
(0 0 0)
(0 0 0)
(0 0 0)
(0 0 0)
(0 0 0)
(0 0 0)
(0 0 0)
(0 0 0)
(0 0 0)
(0 0 0)
(0 0 0)
(0 0 0)
(0 0 0)
(0 0 0)
(0 0 0)
(0 0 0)
(0 0 0)
(0 0 0)
(0 0 0)
(0 0 0)
(0 0 0)
(0 0 0)
(0 0 0)
(0 0 0)
(0 0 0)
(0 0 0)
(0 0 0)
(0 0 0)
(0 0 0)
(0 0 0)
(0 0 0)
(0 0 0)
(0 0 0)
(0 0 0)
(0 0 0)
(0 0 0)
(0 0 0)
(0 0 0)
(0 0 0)
(0 0 0)
(0 0 0)
(0 0 0)
(0 0 0)
(0 0 0)
(0 0 0)
(0 0 0)
(0 0 0)
(0 0 0)
(0 0 0)
(0 0 0)
(0 0 0)
(0 0 0)
(0 0 0)
(0 0 0)
(0 0 0)
(0 0 0)
(0 0 0)
(0 0 0)
(0 0 0)
(0 0 0)
(0 0 0)
(0 0 0)
(0 0 0)
(0 0 0)
(0 0 0)
(0 0 0)
(0 0 0)
(0 0 0)
(0 0 0)
(0 0 0)
(0 0 0)
(0 0 0)
(0 0 0)
(0 0 0)
(0 0 0)
(0 0 0)
(0 0 0)
(0 0 0)
(0 0 0)
(0 0 0)
(0 0 0)
(0 0 0)
(0 0 0)
(0 0 0)
(0 0 0)
(0 0 0)
(0 0 0)
(0 0 0)
(0 0 0)
(0 0 0)
(0 0 0)
(0 0 0)
(0 0 0)
(0 0 0)
(0 0 0)
(0 0 0)
(0 0 0)
(0 0 0)
(0 0 0)
(0 0 0)
(0 0 0)
(0 0 0)
(0 0 0)
(0 0 0)
(0 0 0)
(0 0 0)
(0 0 0)
(0 0 0)
(0 0 0)
(0 0 0)
(0 0 0)
(0 0 0)
(0 0 0)
(0 0 0)
(0 0 0)
(0 0 0)
(0 0 0)
(0 0 0)
(0 0 0)
(0 0 0)
(0 0 0)
(0 0 0)
(0 0 0)
(0 0 0)
(0 0 0)
(0 0 0)
(0 0 0)
(0 0 0)
(0 0 0)
(0 0 0)
(0 0 0)
(0 0 0)
(0 0 0)
(0 0 0)
(0 0 0)
(0 0 0)
(0 0 0)
(0 0 0)
(0 0 0)
(0 0 0)
(0 0 0)
(0 0 0)
(0 0 0)
(0 0 0)
(0 0 0)
(0 0 0)
(0 0 0)
(0 0 0)
(0 0 0)
(0 0 0)
(0 0 0)
(0 0 0)
(0 0 0)
(0 0 0)
(0 0 0)
(0 0 0)
(0 0 0)
(0 0 0)
(0 0 0)
(0 0 0)
(0 0 0)
(0 0 0)
(0 0 0)
(0 0 0)
(0 0 0)
(0 0 0)
(0 0 0)
(0 0 0)
(0 0 0)
(0 0 0)
(0 0 0)
(0 0 0)
(0 0 0)
(0 0 0)
(0 0 0)
(0 0 0)
(0 0 0)
(0 0 0)
(0 0 0)
(0 0 0)
(0 0 0)
(0 0 0)
(0 0 0)
(0 0 0)
(0 0 0)
(0 0 0)
(0 0 0)
(0 0 0)
(0 0 0)
(0 0 0)
(0 0 0)
(0 0 0)
(0 0 0)
(0 0 0)
(0 0 0)
(0 0 0)
(0 0 0)
(0 0 0)
(0 0 0)
(0 0 0)
(0 0 0)
(0 0 0)
(0 0 0)
(0 0 0)
(0 0 0)
(0 0 0)
(0 0 0)
(0 0 0)
(0 0 0)
(0 0 0)
(0 0 0)
(0 0 0)
(0 0 0)
(0 0 0)
(0 0 0)
(0 0 0)
(0 0 0)
(0 0 0)
(0 0 0)
(0 0 0)
(0 0 0)
(0 0 0)
(0 0 0)
(0 0 0)
(0 0 0)
(0 0 0)
(0 0 0)
(0 0 0)
(0 0 0)
(0 0 0)
(0 0 0)
(0 0 0)
(0 0 0)
(0 0 0)
(0 0 0)
(0 0 0)
(0 0 0)
(0 0 0)
(0 0 0)
(0 0 0)
(0 0 0)
(0 0 0)
(0 0 0)
(0 0 0)
(0 0 0)
(0 0 0)
(0 0 0)
(0 0 0)
(0 0 0)
(0 0 0)
(0 0 0)
(0 0 0)
(0 0 0)
(0 0 0)
(0 0 0)
(0 0 0)
(0 0 0)
(0 0 0)
(0 0 0)
(0 0 0)
(0 0 0)
(0 0 0)
(0 0 0)
(0 0 0)
(0 0 0)
(0 0 0)
(0 0 0)
(0 0 0)
(0 0 0)
(0 0 0)
(0 0 0)
(0 0 0)
(0 0 0)
(0 0 0)
(0 0 0)
(0 0 0)
(0 0 0)
(0 0 0)
(0 0 0)
(0 0 0)
(0 0 0)
(0 0 0)
(0 0 0)
(0 0 0)
(0 0 0)
(0 0 0)
(0 0 0)
(0 0 0)
(0 0 0)
(0 0 0)
(0 0 0)
(0 0 0)
(0 0 0)
(0 0 0)
(0 0 0)
(0 0 0)
(0 0 0)
(0 0 0)
(0 0 0)
(0 0 0)
(0 0 0)
(0 0 0)
(0 0 0)
(0 0 0)
(0 0 0)
(0 0 0)
(0 0 0)
(0 0 0)
(0 0 0)
(0 0 0)
(0 0 0)
(0 0 0)
(0 0 0)
(0 0 0)
(0 0 0)
(0 0 0)
(0 0 0)
(0 0 0)
(0 0 0)
(0 0 0)
(0 0 0)
(0 0 0)
(0 0 0)
(0 0 0)
(0 0 0)
(0 0 0)
(0 0 0)
(0 0 0)
(0 0 0)
(0 0 0)
(0 0 0)
(0 0 0)
(0 0 0)
(0 0 0)
(0 0 0)
(0 0 0)
(0 0 0)
(0 0 0)
(0 0 0)
(0 0 0)
(0 0 0)
(0 0 0)
(0 0 0)
(0 0 0)
(0 0 0)
(0 0 0)
(0 0 0)
(0 0 0)
(0 0 0)
(0 0 0)
(0 0 0)
(0 0 0)
(0 0 0)
(0 0 0)
(0 0 0)
(0 0 0)
(0 0 0)
(0 0 0)
(0 0 0)
(0 0 0)
(0 0 0)
(0 0 0)
(0 0 0)
(0 0 0)
(0 0 0)
(0 0 0)
(0 0 0)
(0 0 0)
(0 0 0)
(0 0 0)
(0 0 0)
(0 0 0)
(0 0 0)
(0 0 0)
(0 0 0)
(0 0 0)
(0 0 0)
(0 0 0)
(0 0 0)
(0 0 0)
(0 0 0)
(0 0 0)
(0 0 0)
(0 0 0)
(0 0 0)
(0 0 0)
(0 0 0)
(0 0 0)
(0 0 0)
(0 0 0)
(0 0 0)
(0 0 0)
(0 0 0)
(0 0 0)
(0 0 0)
(0 0 0)
(0 0 0)
(0 0 0)
(0 0 0)
(0 0 0)
(0 0 0)
(0 0 0)
(0 0 0)
(0 0 0)
(0 0 0)
(0 0 0)
(0 0 0)
(0 0 0)
(0 0 0)
(0 0 0)
(0 0 0)
(0 0 0)
(0 0 0)
(0 0 0)
(0 0 0)
(0 0 0)
(0 0 0)
(0 0 0)
(0 0 0)
(0 0 0)
(0 0 0)
(0 0 0)
(0 0 0)
(0 0 0)
(0 0 0)
(0 0 0)
(0 0 0)
(0 0 0)
(0 0 0)
(0 0 0)
(0 0 0)
(0 0 0)
(0 0 0)
(0 0 0)
(0 0 0)
(0 0 0)
(0 0 0)
(0 0 0)
(0 0 0)
(0 0 0)
(0 0 0)
(0 0 0)
(0 0 0)
(0 0 0)
(0 0 0)
(0 0 0)
(0 0 0)
(0 0 0)
(0 0 0)
(0 0 0)
(0 0 0)
(0 0 0)
(0 0 0)
(0 0 0)
(0 0 0)
(0 0 0)
(0 0 0)
(0 0 0)
(0 0 0)
(0 0 0)
(0 0 0)
(0 0 0)
(0 0 0)
(0 0 0)
(0 0 0)
(0 0 0)
(0 0 0)
(0 0 0)
(0 0 0)
(0 0 0)
(0 0 0)
(0 0 0)
(0 0 0)
(0 0 0)
(0 0 0)
(0 0 0)
(0 0 0)
(0 0 0)
(0 0 0)
(0 0 0)
(0 0 0)
(0 0 0)
(0 0 0)
(0 0 0)
(0 0 0)
(0 0 0)
(0 0 0)
(0 0 0)
(0 0 0)
(0 0 0)
(0 0 0)
(0 0 0)
(0 0 0)
(0 0 0)
(0 0 0)
(0 0 0)
(0 0 0)
(0 0 0)
(0 0 0)
(0 0 0)
(0 0 0)
(0 0 0)
(0 0 0)
(0 0 0)
(0 0 0)
(0 0 0)
(0 0 0)
(0 0 0)
(0 0 0)
(0 0 0)
(0 0 0)
(0 0 0)
(0 0 0)
(0 0 0)
(0 0 0)
(0 0 0)
(0 0 0)
(0 0 0)
(0 0 0)
(0 0 0)
(0 0 0)
(0 0 0)
(0 0 0)
(0 0 0)
(0 0 0)
(0 0 0)
(0 0 0)
(0 0 0)
(0 0 0)
(0 0 0)
(0 0 0)
(0 0 0)
(0 0 0)
(0 0 0)
(0 0 0)
(0 0 0)
(0 0 0)
(0 0 0)
(0 0 0)
(0 0 0)
(0 0 0)
(0 0 0)
(0 0 0)
(0 0 0)
(0 0 0)
(0 0 0)
(0 0 0)
(0 0 0)
(0 0 0)
(0 0 0)
(0 0 0)
(0 0 0)
(0 0 0)
(0 0 0)
(0 0 0)
(0 0 0)
(0 0 0)
(0 0 0)
(0 0 0)
(0 0 0)
(0 0 0)
(0 0 0)
(0 0 0)
(0 0 0)
(0 0 0)
(0 0 0)
(0 0 0)
(0 0 0)
(0 0 0)
(0 0 0)
(0 0 0)
(0 0 0)
(0 0 0)
(0 0 0)
(0 0 0)
(0 0 0)
(0 0 0)
(0 0 0)
(0 0 0)
(0 0 0)
(0 0 0)
(0 0 0)
(0 0 0)
(0 0 0)
(0 0 0)
(0 0 0)
(0 0 0)
(0 0 0)
(0 0 0)
(0 0 0)
(0 0 0)
(0 0 0)
(0 0 0)
(0 0 0)
(0 0 0)
(0 0 0)
(0 0 0)
(0 0 0)
(0 0 0)
(0 0 0)
(0 0 0)
(0 0 0)
(0 0 0)
(0 0 0)
(0 0 0)
(0 0 0)
(0 0 0)
(0 0 0)
(0 0 0)
(0 0 0)
(0 0 0)
(0 0 0)
(0 0 0)
(0 0 0)
(0 0 0)
(0 0 0)
(0 0 0)
(0 0 0)
(0 0 0)
(0 0 0)
(0 0 0)
(0 0 0)
(0 0 0)
(0 0 0)
(0 0 0)
(0 0 0)
(0 0 0)
(0 0 0)
(0 0 0)
(0 0 0)
(0 0 0)
(0 0 0)
(0 0 0)
(0 0 0)
(0 0 0)
(0 0 0)
(0 0 0)
(0 0 0)
(0 0 0)
(0 0 0)
(0 0 0)
(0 0 0)
(0 0 0)
(0 0 0)
(0 0 0)
(0 0 0)
(0 0 0)
(0 0 0)
(0 0 0)
(0 0 0)
(0 0 0)
(0 0 0)
(0 0 0)
(0 0 0)
(0 0 0)
(0 0 0)
(0 0 0)
(0 0 0)
(0 0 0)
(0 0 0)
(0 0 0)
(0 0 0)
(0 0 0)
(0 0 0)
(0 0 0)
(0 0 0)
(0 0 0)
(0 0 0)
(0 0 0)
(0 0 0)
(0 0 0)
(0 0 0)
(0 0 0)
(0 0 0)
(0 0 0)
(0 0 0)
(0 0 0)
(0 0 0)
(0 0 0)
(0 0 0)
(0 0 0)
(0 0 0)
(0 0 0)
(0 0 0)
(0 0 0)
(0 0 0)
(0 0 0)
(0 0 0)
(0 0 0)
(0 0 0)
(0 0 0)
(0 0 0)
(0 0 0)
(0 0 0)
(0 0 0)
(0 0 0)
(0 0 0)
(0 0 0)
(0 0 0)
(0 0 0)
(0 0 0)
(0 0 0)
(0 0 0)
(0 0 0)
(0 0 0)
(0 0 0)
(0 0 0)
(0 0 0)
(0 0 0)
(0 0 0)
(0 0 0)
(0 0 0)
(0 0 0)
(0 0 0)
(0 0 0)
(0 0 0)
(0 0 0)
(0 0 0)
(0 0 0)
(0 0 0)
(0 0 0)
(0 0 0)
(0 0 0)
(0 0 0)
(0 0 0)
(0 0 0)
(0 0 0)
(0 0 0)
(0 0 0)
(0 0 0)
(0 0 0)
(0 0 0)
(0 0 0)
(0 0 0)
(0 0 0)
(0 0 0)
(0 0 0)
(0 0 0)
(0 0 0)
(0 0 0)
(0 0 0)
(0 0 0)
(0 0 0)
(0 0 0)
(0 0 0)
(0 0 0)
(0 0 0)
(0 0 0)
(0 0 0)
(0 0 0)
(0 0 0)
(0 0 0)
(0 0 0)
(0 0 0)
(0 0 0)
(0 0 0)
(0 0 0)
(0 0 0)
(0 0 0)
(0 0 0)
(0 0 0)
(0 0 0)
(0 0 0)
(0 0 0)
(0 0 0)
(0 0 0)
(0 0 0)
(0 0 0)
(0 0 0)
(0 0 0)
(0 0 0)
(0 0 0)
(0 0 0)
(0 0 0)
(0 0 0)
(0 0 0)
(0 0 0)
(0 0 0)
(0 0 0)
(0 0 0)
(0 0 0)
(0 0 0)
(0 0 0)
(0 0 0)
(0 0 0)
(0 0 0)
(0 0 0)
(0 0 0)
(0 0 0)
(0 0 0)
(0 0 0)
(0 0 0)
(0 0 0)
(0 0 0)
(0 0 0)
(0 0 0)
(0 0 0)
(0 0 0)
(0 0 0)
(0 0 0)
(0 0 0)
(0 0 0)
(0 0 0)
(0 0 0)
(0 0 0)
(0 0 0)
(0 0 0)
(0 0 0)
(0 0 0)
(0 0 0)
(0 0 0)
(0 0 0)
(0 0 0)
(0 0 0)
(0 0 0)
(0 0 0)
(0 0 0)
(0 0 0)
(0 0 0)
(0 0 0)
(0 0 0)
(0 0 0)
(0 0 0)
(0 0 0)
(0 0 0)
(0 0 0)
(0 0 0)
(0 0 0)
(0 0 0)
(0 0 0)
(0 0 0)
(0 0 0)
(0 0 0)
(0 0 0)
(0 0 0)
(0 0 0)
(0 0 0)
(0 0 0)
(0 0 0)
(0 0 0)
(0 0 0)
(0 0 0)
(0 0 0)
(0 0 0)
(0 0 0)
(0 0 0)
(0 0 0)
(0 0 0)
(0 0 0)
(0 0 0)
(0 0 0)
(0 0 0)
(0 0 0)
(0 0 0)
(0 0 0)
(0 0 0)
(0 0 0)
(0 0 0)
(0 0 0)
(0 0 0)
(0 0 0)
(0 0 0)
(0 0 0)
(0 0 0)
(0 0 0)
(0 0 0)
(0 0 0)
(0 0 0)
(0 0 0)
(0 0 0)
(0 0 0)
(0 0 0)
(0 0 0)
(0 0 0)
(0 0 0)
(0 0 0)
(0 0 0)
(0 0 0)
(0 0 0)
(0 0 0)
(0 0 0)
(0 0 0)
(0 0 0)
(0 0 0)
(0 0 0)
(0 0 0)
(0 0 0)
(0 0 0)
(0 0 0)
(0 0 0)
(0 0 0)
(0 0 0)
(0 0 0)
(0 0 0)
(0 0 0)
(0 0 0)
(0 0 0)
(0 0 0)
(0 0 0)
(0 0 0)
(0 0 0)
(0 0 0)
(0 0 0)
(0 0 0)
(0 0 0)
(0 0 0)
(0 0 0)
(0 0 0)
(0 0 0)
(0 0 0)
(0 0 0)
(0 0 0)
(0 0 0)
(0 0 0)
(0 0 0)
(0 0 0)
(0 0 0)
(0 0 0)
(0 0 0)
(0 0 0)
(0 0 0)
(0 0 0)
(0 0 0)
(0 0 0)
(0 0 0)
(0 0 0)
(0 0 0)
(0 0 0)
(0 0 0)
(0 0 0)
(0 0 0)
(0 0 0)
(0 0 0)
(0 0 0)
(0 0 0)
(0 0 0)
(0 0 0)
(0 0 0)
(0 0 0)
(0 0 0)
(0 0 0)
(0 0 0)
(0 0 0)
(0 0 0)
(0 0 0)
(0 0 0)
(0 0 0)
(0 0 0)
(0 0 0)
(0 0 0)
(0 0 0)
(0 0 0)
(0 0 0)
(0 0 0)
(0 0 0)
(0 0 0)
(0 0 0)
(0 0 0)
(0 0 0)
(0 0 0)
(0 0 0)
(0 0 0)
(0 0 0)
(0 0 0)
(0 0 0)
(0 0 0)
(0 0 0)
(0 0 0)
(0 0 0)
(0 0 0)
(0 0 0)
(0 0 0)
(0 0 0)
(0 0 0)
(0 0 0)
(0 0 0)
(0 0 0)
(0 0 0)
(0 0 0)
(0 0 0)
(0 0 0)
(0 0 0)
(0 0 0)
(0 0 0)
(0 0 0)
(0 0 0)
(0 0 0)
(0 0 0)
(0 0 0)
(0 0 0)
(0 0 0)
(0 0 0)
(0 0 0)
(0 0 0)
(0 0 0)
(0 0 0)
(0 0 0)
(0 0 0)
(0 0 0)
(0 0 0)
(0 0 0)
(0 0 0)
(0 0 0)
(0 0 0)
(0 0 0)
(0 0 0)
(0 0 0)
(0 0 0)
(0 0 0)
(0 0 0)
(0 0 0)
(0 0 0)
(0 0 0)
(0 0 0)
(0 0 0)
(0 0 0)
(0 0 0)
(0 0 0)
(0 0 0)
(0 0 0)
(0 0 0)
(0 0 0)
(0 0 0)
(0 0 0)
(0 0 0)
(0 0 0)
(0 0 0)
(0 0 0)
(0 0 0)
(0 0 0)
(0 0 0)
(0 0 0)
(0 0 0)
(0 0 0)
(0 0 0)
(0 0 0)
(0 0 0)
(0 0 0)
(0 0 0)
(0 0 0)
(0 0 0)
(0 0 0)
(0 0 0)
(0 0 0)
(0 0 0)
(0 0 0)
(0 0 0)
(0 0 0)
(0 0 0)
(0 0 0)
(0 0 0)
(0 0 0)
(0 0 0)
(0 0 0)
(0 0 0)
(0 0 0)
(0 0 0)
(0 0 0)
(0 0 0)
(0 0 0)
(0 0 0)
(0 0 0)
(0 0 0)
(0 0 0)
(0 0 0)
(0 0 0)
(0 0 0)
(0 0 0)
(0 0 0)
(0 0 0)
(0 0 0)
(0 0 0)
(0 0 0)
(0 0 0)
(0 0 0)
(0 0 0)
(0 0 0)
(0 0 0)
(0 0 0)
(0 0 0)
(0 0 0)
(0 0 0)
(0 0 0)
(0 0 0)
(0 0 0)
(0 0 0)
(0 0 0)
(0 0 0)
(0 0 0)
(0 0 0)
(0 0 0)
(0 0 0)
(0 0 0)
(0 0 0)
(0 0 0)
(0 0 0)
(0 0 0)
(0 0 0)
(0 0 0)
(0 0 0)
(0 0 0)
(0 0 0)
(0 0 0)
(0 0 0)
(0 0 0)
(0 0 0)
(0 0 0)
(0 0 0)
(0 0 0)
(0 0 0)
(0 0 0)
(0 0 0)
(0 0 0)
(0 0 0)
(0 0 0)
(0 0 0)
(0 0 0)
(0 0 0)
(0 0 0)
(0 0 0)
(0 0 0)
(0 0 0)
(0 0 0)
(0 0 0)
(0 0 0)
(0 0 0)
(0 0 0)
(0 0 0)
(0 0 0)
(0 0 0)
(0 0 0)
(0 0 0)
(0 0 0)
(0 0 0)
(0 0 0)
(0 0 0)
(0 0 0)
(0 0 0)
(0 0 0)
(0 0 0)
(0 0 0)
(0 0 0)
(0 0 0)
(0 0 0)
(0 0 0)
(0 0 0)
(0 0 0)
(0 0 0)
(0 0 0)
(0 0 0)
(0 0 0)
(0 0 0)
(0 0 0)
(0 0 0)
(0 0 0)
(0 0 0)
(0 0 0)
(0 0 0)
(0 0 0)
(0 0 0)
(0 0 0)
(0 0 0)
(0 0 0)
(0 0 0)
(0 0 0)
(0 0 0)
(0 0 0)
(0 0 0)
(0 0 0)
(0 0 0)
(0 0 0)
(0 0 0)
(0 0 0)
(0 0 0)
(0 0 0)
(0 0 0)
(0 0 0)
(0 0 0)
(0 0 0)
(0 0 0)
(0 0 0)
(0 0 0)
(0 0 0)
(0 0 0)
(0 0 0)
(0 0 0)
(0 0 0)
(0 0 0)
(0 0 0)
(0 0 0)
(0 0 0)
(0 0 0)
(0 0 0)
(0 0 0)
(0 0 0)
(0 0 0)
(0 0 0)
(0 0 0)
(0 0 0)
(0 0 0)
(0 0 0)
(0 0 0)
(0 0 0)
(0 0 0)
(0 0 0)
(0 0 0)
(0 0 0)
(0 0 0)
(0 0 0)
(0 0 0)
(0 0 0)
(0 0 0)
(0 0 0)
(0 0 0)
(0 0 0)
(0 0 0)
(0 0 0)
(0 0 0)
(0 0 0)
(0 0 0)
(0 0 0)
(0 0 0)
(0 0 0)
(0 0 0)
(0 0 0)
(0 0 0)
(0 0 0)
(0 0 0)
(0 0 0)
(0 0 0)
(0 0 0)
(0 0 0)
(0 0 0)
(0 0 0)
(0 0 0)
(0 0 0)
(0 0 0)
(0 0 0)
(0 0 0)
(0 0 0)
(0 0 0)
(0 0 0)
(0 0 0)
(0 0 0)
(0 0 0)
(0 0 0)
(0 0 0)
(0 0 0)
(0 0 0)
(0 0 0)
(0 0 0)
(0 0 0)
(0 0 0)
(0 0 0)
(0 0 0)
(0 0 0)
(0 0 0)
(0 0 0)
(0 0 0)
(0 0 0)
(0 0 0)
(0 0 0)
(0 0 0)
(0 0 0)
(0 0 0)
(0 0 0)
(0 0 0)
(0 0 0)
(0 0 0)
(0 0 0)
(0 0 0)
(0 0 0)
(0 0 0)
(0 0 0)
(0 0 0)
(0 0 0)
(0 0 0)
(0 0 0)
(0 0 0)
(0 0 0)
(0 0 0)
(0 0 0)
(0 0 0)
(0 0 0)
(0 0 0)
(0 0 0)
(0 0 0)
(0 0 0)
(0 0 0)
(0 0 0)
(0 0 0)
(0 0 0)
(0 0 0)
(0 0 0)
(0 0 0)
(0 0 0)
(0 0 0)
(0 0 0)
(0 0 0)
(0 0 0)
(0 0 0)
(0 0 0)
(0 0 0)
(0 0 0)
(0 0 0)
(0 0 0)
(0 0 0)
(0 0 0)
(0 0 0)
(0 0 0)
(0 0 0)
(0 0 0)
(0 0 0)
(0 0 0)
(0 0 0)
(0 0 0)
(0 0 0)
(0 0 0)
(0 0 0)
(0 0 0)
(0 0 0)
(0 0 0)
(0 0 0)
(0 0 0)
(0 0 0)
(0 0 0)
(0 0 0)
(0 0 0)
(0 0 0)
(0 0 0)
(0 0 0)
(0 0 0)
(0 0 0)
(0 0 0)
(0 0 0)
(0 0 0)
(0 0 0)
(0 0 0)
(0 0 0)
(0 0 0)
(0 0 0)
(0 0 0)
(0 0 0)
(0 0 0)
(0 0 0)
(0 0 0)
(0 0 0)
(0 0 0)
(0 0 0)
(0 0 0)
(0 0 0)
(0 0 0)
(0 0 0)
(0 0 0)
(0 0 0)
(0 0 0)
(0 0 0)
(0 0 0)
(0 0 0)
(0 0 0)
(0 0 0)
(0 0 0)
(0 0 0)
(0 0 0)
(0 0 0)
(0 0 0)
(0 0 0)
(0 0 0)
(0 0 0)
(0 0 0)
(0 0 0)
(0 0 0)
(0 0 0)
(0 0 0)
(0 0 0)
(0 0 0)
(0 0 0)
(0 0 0)
(0 0 0)
(0 0 0)
(0 0 0)
(0 0 0)
(0 0 0)
(0 0 0)
(0 0 0)
(0 0 0)
(0 0 0)
(0 0 0)
(0 0 0)
(0 0 0)
(0 0 0)
(0 0 0)
(0 0 0)
(0 0 0)
(0 0 0)
(0 0 0)
(0 0 0)
(0 0 0)
(0 0 0)
(0 0 0)
(0 0 0)
(0 0 0)
(0 0 0)
(0 0 0)
(0 0 0)
(0 0 0)
(0 0 0)
(0 0 0)
(0 0 0)
(0 0 0)
(0 0 0)
(0 0 0)
(0 0 0)
(0 0 0)
(0 0 0)
(0 0 0)
(0 0 0)
(0 0 0)
(0 0 0)
(0 0 0)
(0 0 0)
(0 0 0)
(0 0 0)
(0 0 0)
(0 0 0)
(0 0 0)
(0 0 0)
(0 0 0)
(0 0 0)
(0 0 0)
(0 0 0)
(0 0 0)
(0 0 0)
(0 0 0)
(0 0 0)
(0 0 0)
(0 0 0)
(0 0 0)
(0 0 0)
(0 0 0)
(0 0 0)
(0 0 0)
(0 0 0)
(0 0 0)
(0 0 0)
(0 0 0)
(0 0 0)
(0 0 0)
(0 0 0)
(0 0 0)
(0 0 0)
(0 0 0)
(0 0 0)
(0 0 0)
(0 0 0)
(0 0 0)
(0 0 0)
(0 0 0)
(0 0 0)
(0 0 0)
(0 0 0)
(0 0 0)
(0 0 0)
(0 0 0)
(0 0 0)
(0 0 0)
(0 0 0)
(0 0 0)
(0 0 0)
(0 0 0)
(0 0 0)
(0 0 0)
(0 0 0)
(0 0 0)
(0 0 0)
(0 0 0)
(0 0 0)
(-0.0260071 0.0657808 -0.0307051)
(-0.0373668 0.0048608 -0.00640024)
(-0.0360136 0.078121 -0.0241489)
(-0.0716302 0.02171 -0.00720219)
(-0.0335128 -0.00256929 -0.00210421)
(-0.1268 -0.030537 -0.00303135)
(-0.122552 -0.0551038 -0.00457252)
(-0.0774302 -0.0362349 -0.00704249)
(0.0152991 0.0529216 -0.0194519)
(-0.00643824 0.0755886 -0.0208514)
(-0.0438766 0.132889 -0.00932847)
(-0.00166708 0.119072 0.0130602)
(-0.0568695 0.203037 0.0375948)
(-0.083478 0.152404 -0.00810031)
(-0.162033 0.0551584 -0.0197272)
(-0.199579 0.150391 0.0164214)
(-0.267717 0.0188693 -0.0177981)
(-0.225978 -0.0532024 -0.0253585)
(-0.208825 -0.109293 -0.0312743)
(-0.278106 -0.0927208 -0.0299543)
(-0.223524 -0.108508 -0.0478547)
(-0.119538 -0.0897916 -0.0119404)
(-0.0549591 -0.0394798 -0.00752696)
(-0.125671 -0.0972593 -0.0286566)
(-0.0684444 -0.0678296 -0.0141026)
(-0.0261178 -0.0203648 -0.0100567)
(0.0468556 0.0493963 -0.00900284)
(0.0196005 -0.00153197 -0.0303848)
(0.0353819 0.0236384 0.000303013)
(0.0330821 0.11316 0.0637208)
(-0.0588065 0.171939 0.0862302)
(0.0123638 0.0685896 0.0462662)
(-0.0417471 0.125376 0.0668506)
(-0.182874 0.127346 0.0476279)
(-0.245652 0.0386236 0.0431311)
(-0.147313 0.123959 0.0768136)
(-0.217014 0.0434857 0.0980907)
(-0.250666 -0.0546838 0.0185384)
(-0.198019 -0.0819979 -0.0291502)
(-0.223594 -0.0272884 0.0770659)
(-0.155417 -0.0311091 0.00507253)
(-0.105266 -0.0709033 -0.0385326)
(-0.0587865 -0.0522115 -0.0193204)
(-0.0950268 -0.00765844 -0.0240675)
(-0.0376422 0.0331225 -0.0507057)
(-0.0244078 -0.0214822 -0.0074016)
(0.00634076 0.031892 -0.0138847)
(-0.000834152 0.0322531 -0.0105838)
(0.013282 -0.00277307 -0.0195487)
(0.0176129 0.00643878 -0.00171928)
(0.0124444 -0.00124798 -0.00270193)
(0.0104207 0.0359349 0.0115186)
(-0.0442759 0.0675984 0.0274937)
(0.00449221 0.0220557 0.00660746)
(-0.0458455 0.0416618 0.0159469)
(-0.130328 0.0553746 0.0480069)
(-0.192482 -0.00293277 0.0915886)
(-0.118749 0.0235006 0.00213878)
(-0.119891 -0.0204287 0.00990105)
(-0.196861 -0.0258705 0.0792894)
(-0.127258 0.0125395 0.02875)
(-0.101463 0.0258496 0.0087207)
(-0.0623555 0.0993982 0.0224156)
(-0.0504035 0.0626537 -0.00969285)
(-0.00589874 0.097052 -0.043282)
(-0.0253504 0.144686 0.0107109)
(0.00265863 0.19966 -0.027971)
(0.00739501 0.0920687 -0.0126509)
(-0.003607 0.0623775 -0.00772198)
(-0.0226049 0.14325 -0.00898134)
(0.00933212 -0.00443204 -0.00811183)
(0.00589941 0.00961599 0.00713466)
(-0.0358313 0.0132194 0.0178681)
(-0.0021183 0.00289757 0.00520052)
(-0.0247183 -0.007255 0.014072)
(-0.098028 0.0116528 -0.00198573)
(-0.0304186 0.0275569 -0.0199194)
(-0.0444277 0.00435983 0.00224953)
(0.00217164 0.058085 -0.000709267)
(-0.00930171 0.111801 0.00683966)
(-0.0307982 0.192896 0.0611811)
(-0.0170471 0.124797 0.031008)
(-0.0803918 0.193778 0.0806361)
(-0.0427571 0.257641 0.0458626)
(-0.072062 0.242727 0.00420873)
(-0.126543 0.207619 0.0527247)
(-0.0939961 0.150342 0.0238105)
(-0.0524113 0.163008 -0.00128711)
(-0.0176254 -0.0204095 -0.010254)
(0.00629041 0.00505929 -0.00768188)
(0.00179134 0.0364115 0.0175143)
(-0.00717107 0.00921463 0.0196449)
(-0.0360512 0.0557553 0.0322858)
(-0.0843417 0.0688621 0.0520345)
(-0.0200571 0.013771 0.0228526)
(-0.0882988 0.0754239 0.0371457)
(-0.0303275 0.054713 -0.0972707)
(-0.00418161 0.0358753 -0.17096)
(-0.0115663 0.0353594 0.0154866)
(-0.0359931 0.0909744 -0.0824146)
(-0.0258675 0.118266 -0.0190549)
(-0.0135862 0.0350828 -0.0355892)
(-0.0236484 0.0856491 -0.141051)
(-0.0383969 0.138532 -0.0552448)
(-0.0986194 0.0318408 0.0358891)
(-0.162402 -0.0590176 0.0318637)
(-0.00589616 0.0276786 0.0438184)
(-0.0595381 0.0781568 0.0951453)
(-0.128459 -0.0241717 0.0996915)
(-0.146179 -0.0862729 0.0172339)
(-0.121806 -0.059433 0.0742617)
(0.0150557 0.0387236 -0.0698946)
(0.029319 0.0113176 -0.223099)
(0.000214825 0.139228 -0.0362513)
(0.0226831 0.125235 0.00097595)
(-0.012567 0.215677 0.128203)
(0.0326672 0.0290076 -0.190748)
(0.0364957 0.125007 -0.0941368)
(0.0412131 0.0735521 -0.0602188)
(-0.0131643 0.177166 0.166155)
(-0.108392 -0.102525 0.0127789)
(-0.160103 -0.103968 0.0368799)
(-0.0925868 -0.092143 0.0163604)
(-0.151322 -0.085833 0.0845525)
(-0.0967058 -0.0773608 0.0616816)
(-0.160121 -0.0690906 0.0898442)
(-0.0891827 -0.066456 0.0527735)
(-0.0490469 -0.0657419 0.0141085)
(-0.0402682 -0.050984 0.0460666)
(0.0339707 0.0263255 -0.0417556)
(0.0212672 -0.0265825 -0.153315)
(0.0429859 -0.00222565 -0.00559576)
(0.0128688 -0.0331258 -0.225172)
(0.00147271 0.0198404 -0.413588)
(0.0240518 -0.0559212 -0.321213)
(0.0113371 0.0491122 0.012514)
(0.0061377 0.0604081 0.0283113)
(-0.0342473 -0.0273244 0.0473592)
(-0.0121161 0.0233668 0.0123462)
(-0.000504728 0.0234134 0.0358891)
(0.0218571 -0.0349146 -0.00691043)
(0.0158595 -0.0217891 -0.0708721)
(0.00713064 0.0334957 -0.400286)
(0.028176 0.0132858 -0.33507)
(0.0276996 0.0782906 -0.34061)
(0.00100911 0.0920439 0.062941)
(-0.0506537 0.220176 0.0508153)
(-0.0491776 0.106429 0.024507)
(-0.0158322 0.059356 0.0788914)
(-0.0808048 0.185812 0.0476173)
(0.0267797 0.00133567 -0.153118)
(0.048803 0.0971168 -0.355404)
(0.0667928 0.0343513 -0.292422)
(0.0343191 0.0299447 -0.215274)
(0.0433196 0.0169857 -0.199597)
(0.0624148 0.10188 -0.353095)
(0.0937819 0.0902955 -0.348274)
(0.0573375 0.0605592 -0.331381)
(0.0754772 0.0585345 -0.303127)
(-0.14451 0.286073 0.120006)
(-0.203977 0.237269 0.178906)
(-0.167605 0.194277 0.132468)
(-0.169596 0.289869 0.211532)
(-0.184788 0.261743 0.163151)
(-0.223602 0.236362 0.242707)
(-0.184585 0.183133 0.175125)
(-0.120269 0.197277 0.0814057)
(0.00561138 -0.0291847 -0.132881)
(0.0411707 0.0142759 -0.242789)
(0.0612998 0.0724064 0.028494)
(-0.00275401 0.0184613 0.0531107)
(0.0240425 0.000385352 -0.247949)
(0.00113759 -0.0414795 -0.210546)
(0.0249165 -0.00944031 -0.222192)
(-0.170626 0.136692 0.160544)
(-0.0426664 0.0176907 0.066836)
(0.0356578 -0.00628639 -0.221105)
(-0.184187 0.178766 0.169047)
(0.0368452 -0.00554986 -0.294498)
(-0.186967 0.154131 0.189772)
(0.0205477 0.0149905 -0.237687)
(0.0416671 -0.00665034 -0.324421)
(-0.0150062 0.0213294 -0.108826)
(0.00112624 0.0688956 -0.201581)
(-0.0330079 0.119034 -0.127503)
(-0.00538534 0.0168141 -0.164766)
(0.0186965 0.0418291 -0.269918)
(-0.0179926 0.0787023 -0.193928)
(-0.0546565 0.0981421 0.0895628)
(-0.0877236 0.0217085 0.132284)
(-0.00403582 0.00973356 -0.0522249)
(-0.0477708 0.0780625 0.0456881)
(-0.0584617 0.0393028 0.0975419)
(-0.0834125 -0.0210594 0.10309)
(-0.047966 0.00059749 0.0736538)
(0.0172541 -0.0337342 -0.399885)
(-0.00580833 0.00407744 -0.411869)
(0.0603453 0.0599387 -0.226369)
(0.0445059 -0.0341927 -0.339425)
(-0.0513776 0.0809499 0.202996)
(0.0320643 -0.0410624 -0.390306)
(0.0565748 -0.0211117 -0.363519)
(0.0168994 -0.0490777 -0.374474)
(-0.00164159 -0.0583256 -0.0404299)
(-0.0769057 -0.0340658 0.0753853)
(-0.181361 -0.00206198 0.110593)
(-0.0967652 -0.0185022 0.0485118)
(-0.116681 0.00792411 0.102938)
(-0.0619537 -0.0285572 0.0324025)
(-0.177992 0.00730133 0.0865492)
(-0.100167 -0.0193536 0.00491985)
(-0.0407366 -0.0356302 0.0293579)
(-0.0342268 -0.0341896 -0.0222647)
(0.0119418 -0.0267641 -0.367399)
(-0.0059677 0.0681345 -0.386326)
(-0.00193188 0.034118 -0.335961)
(-0.0086948 0.0340143 -0.36857)
(-0.0145348 0.0851141 -0.364032)
(-0.0265242 0.0769862 -0.355878)
(-0.0454119 0.00264242 -0.0298072)
(-0.00673789 0.00646162 0.00256306)
(-0.0426615 -0.0234181 -0.0432663)
(-0.0443933 0.000282165 -0.0866386)
(-0.00868964 0.00232266 -0.0447632)
(0.00954413 0.10456 -0.35246)
(0.0265862 0.141895 -0.370555)
(-0.00890545 0.115071 -0.369916)
(-0.0297697 0.122262 -0.36951)
(0.00413456 0.155911 -0.393828)
(-0.0178969 0.0346195 0.0149457)
(-0.0846383 0.138903 -0.0121868)
(-0.0503951 0.0401498 -0.108138)
(-0.0125543 0.0196488 -0.051052)
(-0.0574719 0.0848279 -0.0777818)
(0.0616425 0.148096 -0.366201)
(-0.0224753 0.181182 -0.463917)
(0.0801771 0.162671 -0.381122)
(0.0840819 0.0679559 -0.307235)
(0.0608893 0.0829768 -0.272912)
(-0.0346598 0.220237 -0.465604)
(0.00696119 0.220603 -0.399814)
(-5.24489e-14 2.78702e-14 1.23209e-13)
(0 0 0)
(-0.184393 0.180981 0.152812)
(-0.199786 0.212975 0.262844)
(-0.153442 0.142389 0.173945)
(-0.168593 0.153822 0.232096)
(-0.15594 0.101348 0.102881)
(-0.0872852 0.128057 0.184132)
(-0.0887072 0.0886178 0.121608)
(-0.0677577 0.0917455 -0.0268007)
(0.0502807 0.0711693 -0.278115)
(0 0 0)
(-0.0142169 -0.0557071 -0.213359)
(0.022192 -0.00891887 -0.228204)
(-0.0867278 -0.0959327 -0.160281)
(-0.0530332 0.0586532 -0.273621)
(-0.0211491 -0.0172118 -0.309105)
(0.0150905 0.0338906 -0.119873)
(0.0283835 -0.000934428 -0.279021)
(-0.032528 0.00426008 -0.250723)
(0.0290313 -0.0312716 -0.203423)
(-0.0551264 0.0503056 -0.283418)
(0.119984 -0.0546879 -0.134448)
(0.0518948 -0.033582 -0.388718)
(0.0427322 -0.0253284 -0.376161)
(0.0281303 0.00832302 -0.237512)
(0.0507811 -0.013169 -0.34535)
(0.0378871 0.0146281 -0.26669)
(0.106214 -0.0181037 -0.376812)
(0.0676286 -0.0295353 -0.384743)
(0.092434 -0.0421716 -0.367282)
(-0.0523945 0.045327 0.0131197)
(-0.028241 0.030474 0.0504484)
(0.0434142 0.019615 -0.264926)
(0.0163599 0.0405853 -0.172477)
(0.0201372 0.0445094 -0.0407824)
(-0.0169099 0.00500553 0.0453338)
(0.00357915 0.0137499 0.0183815)
(-0.0266585 0.0367773 -0.39809)
(-0.0437155 0.0515777 -0.37715)
(0.0359477 -0.03774 -0.382252)
(-0.0170124 -0.0198845 -0.35608)
(0.0949601 -0.097925 -0.133634)
(-0.0135655 0.0113607 -0.392153)
(0.0128199 -0.0288764 -0.36495)
(-0.0411918 0.0168451 -0.358705)
(0 0 0)
(-0.0407165 -0.016941 -0.0024502)
(-0.131908 0.0186045 0.0606298)
(-0.0896109 -0.00423515 -0.0434045)
(-0.00509074 0.0104699 0.0474548)
(-0.0250593 -0.00433607 -0.0289375)
(-0.0530863 0.0106045 -0.00236685)
(-0.0737497 0.0108656 -0.0908593)
(-0.0331472 -0.0208311 -0.0702343)
(-0.0255119 -0.0027734 -0.118637)
(-0.0334709 0.0609079 -0.373003)
(-0.0150689 0.102866 -0.34857)
(-0.0444566 0.0874887 -0.361868)
(-0.0625275 0.0571141 -0.355785)
(-0.0078314 0.13768 -0.332687)
(-0.0643889 0.0794625 -0.341725)
(-0.0478202 0.00176694 -0.132969)
(-0.0119484 0.000995835 -0.0909381)
(-0.0357021 0.00399253 -0.143895)
(-0.0418312 0.0102439 -0.166375)
(-0.00902712 0.00608348 -0.140618)
(-0.0414021 0.128465 -0.351585)
(0.0129995 0.181363 -0.419605)
(0 0 0)
(-0.0492521 0.129409 -0.306803)
(-2.81255e-14 -6.05438e-14 1.37867e-13)
(-0.0106902 0.0134922 -0.103363)
(-0.0492871 0.0476235 -0.14525)
(-0.0368383 0.0198873 -0.188516)
(-0.0115313 0.0118168 -0.156906)
(-0.0404779 0.0315949 -0.198782)
(0 0 0)
(0 0 0)
(-0.0267485 0.261205 -0.415019)
(0 0 0)
(0.124946 -0.112115 -0.399142)
(-0.0326576 0.244111 -0.362661)
(-0.030519 0.229503 -0.349777)
(0 0 0)