/*--------------------------------*- C++ -*----------------------------------*\
| =========                 |                                                 |
| \\      /  F ield         | OpenFOAM: The Open Source CFD Toolbox           |
|  \\    /   O peration     | Version:  5.x                                   |
|   \\  /    A nd           | Web:      www.OpenFOAM.org                      |
|    \\/     M anipulation  |                                                 |
\*---------------------------------------------------------------------------*/
FoamFile
{
    version     2.0;
    format      ascii;
    class       volVectorField;
    location    "1.95";
    object      Us;
}
// * * * * * * * * * * * * * * * * * * * * * * * * * * * * * * * * * * * * * //

dimensions      [0 1 -1 0 0 0 0];

internalField   nonuniform List<vector> 
10571
(
(0.0551658 0.0395419 0.0170547)
(0.101121 -0.0668081 -0.000703381)
(0.175807 0.0698035 0.0790035)
(0.117495 0.0798622 0.0259578)
(0.007207 0.026084 -0.0861852)
(0.16462 -0.15376 -0.0568811)
(0.325439 -0.168772 0.0415638)
(0.131797 -0.187599 -0.0837287)
(-0.0103846 -0.182636 -0.214751)
(-0.0218092 -0.120915 -0.138018)
(0.0298629 -0.0915116 -0.0360032)
(0.134088 -0.108891 -0.0599459)
(0.200132 -0.14592 -0.0387504)
(0 0 0)
(0.0644412 -0.113107 -0.227128)
(0.0557326 -0.0954559 -0.222409)
(0.0763581 0.0144992 -0.0486147)
(0.0911345 -0.0665806 -0.0910847)
(0.0549168 -0.08755 -0.234943)
(0.0920065 -0.0563748 -0.230551)
(0.0230422 -0.0546782 -0.0832513)
(-0.021433 -0.035822 -0.286709)
(0.0651801 -0.0347337 -0.274668)
(0.0385718 -0.0356374 -0.148985)
(0.00254518 -0.000198402 0.00739375)
(0.0384078 -0.0319665 0.0145315)
(0.114334 -0.0297533 0.0883014)
(0.0410933 0.00329033 0.0768244)
(-0.0648074 -0.073505 -0.084889)
(0.0910139 -0.148928 -0.0438034)
(-0.0531767 -0.29773 0.0475937)
(-0.0168346 -0.292492 0.0127877)
(0.0325564 -0.241473 -0.0150001)
(-0.00584845 -0.156569 -0.0946987)
(0.00586804 -0.08459 -0.00239326)
(0.0308039 -0.128545 -0.0695115)
(-0.0613236 -0.208861 -0.0655059)
(0.0308747 -0.193604 -0.0853132)
(0.0874103 -0.150387 -0.0584461)
(0.0560634 -0.115068 -0.106371)
(-0.0865901 -0.133621 -0.135307)
(-0.0569663 -0.134422 -0.0871409)
(0.0633228 -0.0823835 -0.116546)
(0.0830618 -0.086444 -0.110989)
(0.0715661 -0.0526052 -0.12505)
(-0.0439618 -0.0254459 -0.145791)
(0.0551482 -0.0411874 -0.151268)
(0.0622136 -0.0320769 -0.171287)
(-0.0224864 -0.0155297 0.0684145)
(-0.0315726 0.0228871 0.0687142)
(0.00259385 -0.158938 0.189099)
(-0.0865379 -0.16735 0.185462)
(-0.092786 -0.146946 0.0529336)
(0.0149514 -0.0922279 -0.0393558)
(-0.0647738 -0.241348 0.0363958)
(-0.0737519 -0.303209 0.0237155)
(-0.0656411 -0.308453 0.117943)
(-0.0309253 -0.176859 0.0379023)
(-0.00941699 -0.0865368 0.00134306)
(-0.0304808 -0.139076 -0.043449)
(-0.0664812 -0.210611 -0.0741721)
(-0.0692143 -0.26396 0.0236396)
(-0.0384578 -0.186305 0.116269)
(0.0358249 -0.135684 0.0113429)
(-0.0925634 -0.171756 -0.0642571)
(-0.0810791 -0.220451 -0.0531257)
(-0.0234131 -0.18674 0.0606775)
(-0.0275583 -0.0953531 0.00187459)
(0.0493576 -0.0577172 0.041799)
(-0.0836335 -0.174958 0.0214341)
(0.0429817 -0.116884 0.0276943)
(0.0377162 -0.0430879 -0.0530589)
(0.00194266 -0.00828596 0.19376)
(-0.121338 0.0612627 0.105732)
(-0.0112982 -0.155612 0.284986)
(-0.0757383 -0.0811641 0.331299)
(-0.157572 -0.168226 0.197124)
(-0.105439 0.0638579 -0.304964)
(-0.0205534 -0.101178 0.0143754)
(-0.0918927 -0.233871 0.0600175)
(-0.116135 -0.34313 0.173581)
(-0.090592 -0.249485 0.171564)
(0 0 0)
(-0.235574 -0.0480451 -0.62663)
(-0.0729963 -0.144517 -0.0543581)
(-0.106962 -0.209897 0.0297696)
(-0.114052 -0.264563 0.232391)
(-0.0110494 -0.166339 0.127167)
(-0.137556 -0.179663 -0.109367)
(-0.0755629 -0.169608 -0.0108421)
(-0.0865414 -0.171279 0.0532)
(-0.0903585 -0.118962 0.140722)
(0.0308132 -0.0751852 0.237433)
(-0.0939077 -0.106979 -0.022871)
(-0.0107095 -0.0997193 0.174901)
(0.0189008 -0.0292994 0.126107)
(0.0919338 0.0013635 0.263314)
(-0.0931881 0.0418363 0.172064)
(0.0193621 -0.115359 0.286763)
(0.0642882 0.00395007 0.433007)
(-0.191397 -0.136418 0.343436)
(-0.0321403 0.408225 -0.0194018)
(0.0205521 0.100304 -0.266878)
(-0.127249 -0.232524 -0.00313533)
(-0.124096 -0.319932 0.177543)
(-0.11517 -0.334072 0.242264)
(0 0 0)
(0 0 0)
(-0.16341 -0.0463113 -0.52416)
(-0.149339 -0.204084 0.118393)
(-0.121438 -0.249243 0.222277)
(-0.0725397 -0.238645 0.225373)
(-0.236681 0.00173044 -0.631584)
(-0.155099 -0.00770288 -0.557804)
(-0.158842 -0.0958748 0.175937)
(-0.170645 -0.105925 0.292638)
(0 0 0)
(-0.143395 -0.0213202 -0.605521)
(-0.0435871 -0.0116762 0.0962026)
(-0.0423789 0.0217573 0.140084)
(0.157711 0.000854115 0.286993)
(-0.0801027 0.0910904 0.214912)
(0.0280035 -0.100812 0.305898)
(0.153329 0.00264512 0.433017)
(0.158205 0.170912 0.568508)
(-0.0852135 0.340171 0.146066)
(0.0150795 0.0822612 -0.266659)
(-0.000339104 0.00753481 -0.349344)
(-0.0650037 -0.171438 -0.0201369)
(-0.0569406 -0.21471 0.224751)
(0.0037816 -0.00433686 -0.00430749)
(0 0 0)
(0 0 0)
(-0.156736 -0.048398 -0.501758)
(-0.0953102 -0.0453631 -0.439738)
(-0.0806765 -0.177061 0.215437)
(-0.0172881 -0.18252 0.156497)
(-0.00301685 -0.00151747 -0.00200758)
(0 0 0)
(-0.157042 -0.00684589 -0.533404)
(-0.113985 0.00646713 -0.468607)
(-0.122077 -0.0739338 0.249853)
(-0.0139749 -0.0736871 0.323372)
(-0.164468 0.0538385 -0.593081)
(-0.101004 0.0256379 -0.564017)
(-0.06019 -0.0322347 -0.514756)
(0.202852 0.00819001 0.355016)
(-0.121971 0.152983 0.252628)
(0.122069 0.0723728 -0.00888689)
(-2.87058e-14 -2.57906e-14 -3.71251e-14)
(0.273932 0.11287 0.277179)
(0 0 0)
(0.0418487 0.0935729 -0.190328)
(0.086968 0.0888034 -0.194809)
(0.0830693 0.0391442 -0.268536)
(0.0293289 0.0805632 -0.1441)
(0.077768 -0.0686534 -0.216018)
(0 0 0)
(0 0 0)
(-0.148883 -0.0405076 -0.469733)
(-0.107131 -0.0431992 -0.418888)
(-0.0377502 -0.0497659 -0.316157)
(-0.00314713 -0.0946686 -0.285622)
(0 0 0)
(0 0 0)
(-0.150541 -0.014594 -0.484902)
(-0.118239 -0.00533243 -0.431219)
(-0.0175551 -0.0313966 -0.418461)
(0 0 0)
(0 0 0)
(0 0 0)
(-0.102603 0.0483792 -0.525225)
(-0.0425925 0.0262944 -0.511451)
(0.216546 0.0322218 0.470786)
(-0.282829 0.108031 0.216302)
(0.0538929 0.0682117 0.0643181)
(0.0872834 0.00595269 -0.0198484)
(0.229486 -0.00961549 0.209257)
(0 0 0)
(0 0 0)
(-0.0303649 -0.0297661 -0.25281)
(0.0582897 0.00478068 -0.227098)
(0.116832 0.204324 -0.0813593)
(0.260932 0.0668315 -0.138404)
(0 0 0)
(0 0 0)
(-0.142241 -0.0405442 -0.43558)
(-0.103527 -0.0388099 -0.406699)
(-0.0309652 -0.047539 -0.364187)
(0 0 0)
(0 0 0)
(0 0 0)
(-0.143258 -0.000699953 -0.42871)
(-0.106662 0.002575 -0.410413)
(-0.0615474 0.00449015 -0.389846)
(0 0 0)
(0 0 0)
(0 0 0)
(0 0 0)
(0 0 0)
(0 0 0)
(0 0 0)
(-0.00622428 0.0206466 0.0269812)
(0.0729879 0.0420304 0.00163144)
(0.17693 -0.0416133 0.132442)
(0 0 0)
(0 0 0)
(-0.0371789 -0.0580012 -0.250931)
(-0.0648442 -0.0947219 -0.375114)
(0.0542284 0.196119 -0.00324281)
(0.107567 -0.11318 -0.206466)
(0 0 0)
(0 0 0)
(0 0 0)
(-0.0938258 -0.0426669 -0.375694)
(-0.0360341 -0.0495884 -0.335759)
(0 0 0)
(0 0 0)
(0 0 0)
(0 0 0)
(-0.0936934 -0.00947697 -0.374329)
(-0.0644341 -0.00588093 -0.411573)
(0 0 0)
(0 0 0)
(0 0 0)
(0 0 0)
(0 0 0)
(0 0 0)
(0 0 0)
(0.0597606 0.0345615 0.0919335)
(0.175331 0.0339555 0.137818)
(0 0 0)
(0 0 0)
(-0.0705348 -0.080167 -0.347216)
(-0.034692 -0.0947835 -0.290767)
(0.0796297 0.246304 0.0791851)
(0 0 0)
(0 0 0)
(0 0 0)
(-0.0783099 -0.0380342 -0.332746)
(-0.043872 -0.0445431 -0.319701)
(0 0 0)
(0 0 0)
(0 0 0)
(0 0 0)
(0 0 0)
(-0.011921 -0.00589507 -0.369379)
(0 0 0)
(0 0 0)
(0 0 0)
(0 0 0)
(0 0 0)
(0 0 0)
(0.0311268 0.0291449 0.212805)
(0 0 0)
(0 0 0)
(0 0 0)
(0 0 0)
(-0.0370655 -0.0820231 -0.282898)
(0.0652884 0.243674 0.148853)
(0 0 0)
(0 0 0)
(0 0 0)
(0 0 0)
(-0.0365343 -0.0448789 -0.280882)
(-0.00413924 -0.0323026 -0.265911)
(0 0 0)
(0 0 0)
(0 0 0)
(0 0 0)
(0 0 0)
(0 0 0)
(0 0 0)
(0 0 0)
(0 0 0)
(0 0 0)
(0 0 0)
(0 0 0)
(0.16994 0.0462636 0.262439)
(0 0 0)
(0 0 0)
(0 0 0)
(-0.0366836 -0.069922 -0.265003)
(0.144155 0.261514 0.225805)
(0 0 0)
(0 0 0)
(0 0 0)
(0 0 0)
(-0.0281266 -0.0423853 -0.24842)
(0 0 0)
(0 0 0)
(0 0 0)
(0 0 0)
(-0.0496761 -0.01958 -0.251812)
(0 0 0)
(0 0 0)
(0 0 0)
(0 0 0)
(0 0 0)
(0 0 0)
(0 0 0)
(0 0 0)
(0.125884 0.137362 0.555823)
(0 0 0)
(0 0 0)
(0 0 0)
(0 0 0)
(0 0 0)
(0 0 0)
(0 0 0)
(0 0 0)
(0 0 0)
(0 0 0)
(0 0 0)
(0 0 0)
(0 0 0)
(0 0 0)
(0 0 0)
(0 0 0)
(0 0 0)
(0 0 0)
(0 0 0)
(0 0 0)
(0 0 0)
(0 0 0)
(0 0 0)
(0.156892 0.130546 0.536009)
(0 0 0)
(0 0 0)
(0 0 0)
(0 0 0)
(0 0 0)
(0 0 0)
(0 0 0)
(0 0 0)
(0 0 0)
(0 0 0)
(0 0 0)
(0 0 0)
(0 0 0)
(0 0 0)
(0 0 0)
(0 0 0)
(0 0 0)
(0 0 0)
(0 0 0)
(0 0 0)
(0 0 0)
(0 0 0)
(0 0 0)
(0 0 0)
(0 0 0)
(0 0 0)
(0 0 0)
(0 0 0)
(0 0 0)
(0 0 0)
(0 0 0)
(0 0 0)
(0 0 0)
(0 0 0)
(0 0 0)
(0 0 0)
(0 0 0)
(0 0 0)
(0 0 0)
(0 0 0)
(0 0 0)
(0 0 0)
(0 0 0)
(0 0 0)
(0 0 0)
(0 0 0)
(0 0 0)
(0 0 0)
(0 0 0)
(0 0 0)
(0 0 0)
(0 0 0)
(0 0 0)
(0 0 0)
(0 0 0)
(0 0 0)
(0 0 0)
(0 0 0)
(0 0 0)
(0 0 0)
(0 0 0)
(0 0 0)
(0 0 0)
(0 0 0)
(0 0 0)
(0 0 0)
(0 0 0)
(0 0 0)
(0 0 0)
(0 0 0)
(0 0 0)
(0 0 0)
(0 0 0)
(0 0 0)
(0 0 0)
(0 0 0)
(0 0 0)
(0 0 0)
(0 0 0)
(0 0 0)
(0 0 0)
(0 0 0)
(0 0 0)
(0 0 0)
(0 0 0)
(0 0 0)
(0 0 0)
(0 0 0)
(0 0 0)
(0 0 0)
(0 0 0)
(0 0 0)
(0 0 0)
(0 0 0)
(0 0 0)
(0 0 0)
(0 0 0)
(0 0 0)
(0 0 0)
(0 0 0)
(0 0 0)
(0 0 0)
(0 0 0)
(0 0 0)
(0 0 0)
(0 0 0)
(0 0 0)
(0 0 0)
(0 0 0)
(0 0 0)
(0 0 0)
(0 0 0)
(0 0 0)
(0 0 0)
(0 0 0)
(0 0 0)
(0 0 0)
(0 0 0)
(0 0 0)
(0 0 0)
(0 0 0)
(0 0 0)
(0 0 0)
(0 0 0)
(0 0 0)
(0 0 0)
(0 0 0)
(0 0 0)
(0 0 0)
(0 0 0)
(0 0 0)
(0 0 0)
(0 0 0)
(0 0 0)
(0 0 0)
(0 0 0)
(0 0 0)
(0 0 0)
(0 0 0)
(0 0 0)
(0 0 0)
(0 0 0)
(0 0 0)
(0 0 0)
(0 0 0)
(0 0 0)
(0 0 0)
(0 0 0)
(0 0 0)
(0 0 0)
(0 0 0)
(0 0 0)
(0 0 0)
(0 0 0)
(0 0 0)
(0 0 0)
(0 0 0)
(0 0 0)
(0 0 0)
(0 0 0)
(0 0 0)
(0 0 0)
(0 0 0)
(0 0 0)
(0 0 0)
(0 0 0)
(0 0 0)
(0 0 0)
(0 0 0)
(0 0 0)
(0 0 0)
(0 0 0)
(0 0 0)
(0 0 0)
(0 0 0)
(0 0 0)
(0 0 0)
(0 0 0)
(0 0 0)
(0 0 0)
(0 0 0)
(0 0 0)
(0 0 0)
(0 0 0)
(0 0 0)
(0 0 0)
(0 0 0)
(0 0 0)
(0 0 0)
(0 0 0)
(0 0 0)
(0 0 0)
(0 0 0)
(0 0 0)
(0 0 0)
(0 0 0)
(0 0 0)
(0 0 0)
(0 0 0)
(0 0 0)
(0 0 0)
(0 0 0)
(0 0 0)
(0 0 0)
(0 0 0)
(0 0 0)
(0 0 0)
(0 0 0)
(0 0 0)
(0 0 0)
(0 0 0)
(0 0 0)
(0 0 0)
(0 0 0)
(0 0 0)
(0 0 0)
(0 0 0)
(0 0 0)
(0 0 0)
(0 0 0)
(0 0 0)
(0 0 0)
(0 0 0)
(0 0 0)
(0 0 0)
(0 0 0)
(0 0 0)
(0 0 0)
(0 0 0)
(0 0 0)
(0 0 0)
(0 0 0)
(0 0 0)
(0 0 0)
(0 0 0)
(0 0 0)
(0 0 0)
(0 0 0)
(0 0 0)
(0 0 0)
(0 0 0)
(0 0 0)
(0 0 0)
(0 0 0)
(0 0 0)
(0 0 0)
(0 0 0)
(0 0 0)
(0 0 0)
(0 0 0)
(0 0 0)
(0 0 0)
(0 0 0)
(0 0 0)
(0 0 0)
(0 0 0)
(0 0 0)
(0 0 0)
(0 0 0)
(0 0 0)
(0 0 0)
(0 0 0)
(0 0 0)
(0 0 0)
(0 0 0)
(0 0 0)
(0 0 0)
(0 0 0)
(0 0 0)
(0 0 0)
(0 0 0)
(0 0 0)
(0 0 0)
(0 0 0)
(0 0 0)
(0 0 0)
(0 0 0)
(0 0 0)
(0 0 0)
(0 0 0)
(0 0 0)
(0 0 0)
(0 0 0)
(0 0 0)
(0 0 0)
(0 0 0)
(0 0 0)
(0 0 0)
(0 0 0)
(0 0 0)
(0 0 0)
(0 0 0)
(0 0 0)
(0 0 0)
(0 0 0)
(0 0 0)
(0 0 0)
(0 0 0)
(0 0 0)
(0 0 0)
(0 0 0)
(0 0 0)
(0 0 0)
(0 0 0)
(0 0 0)
(0 0 0)
(0 0 0)
(0 0 0)
(0 0 0)
(0 0 0)
(0 0 0)
(0 0 0)
(0 0 0)
(0 0 0)
(0 0 0)
(0 0 0)
(0 0 0)
(0 0 0)
(0 0 0)
(0 0 0)
(0 0 0)
(0 0 0)
(0 0 0)
(0 0 0)
(0 0 0)
(0 0 0)
(0 0 0)
(0 0 0)
(0 0 0)
(0 0 0)
(0 0 0)
(0 0 0)
(0 0 0)
(0 0 0)
(0 0 0)
(0 0 0)
(0 0 0)
(0 0 0)
(0 0 0)
(0 0 0)
(0 0 0)
(0 0 0)
(0 0 0)
(0 0 0)
(0 0 0)
(0 0 0)
(0 0 0)
(0 0 0)
(0 0 0)
(0 0 0)
(0 0 0)
(0 0 0)
(0 0 0)
(0 0 0)
(0 0 0)
(0 0 0)
(0 0 0)
(0 0 0)
(0 0 0)
(0 0 0)
(0 0 0)
(0 0 0)
(0 0 0)
(0 0 0)
(0 0 0)
(0 0 0)
(0 0 0)
(0 0 0)
(0 0 0)
(0 0 0)
(0 0 0)
(0 0 0)
(0 0 0)
(0 0 0)
(0 0 0)
(0 0 0)
(0 0 0)
(0 0 0)
(0 0 0)
(0 0 0)
(0 0 0)
(0 0 0)
(0 0 0)
(0 0 0)
(0 0 0)
(0 0 0)
(0 0 0)
(0 0 0)
(0 0 0)
(0 0 0)
(0 0 0)
(0 0 0)
(0 0 0)
(0 0 0)
(0 0 0)
(0 0 0)
(0 0 0)
(0 0 0)
(0 0 0)
(0 0 0)
(0 0 0)
(0 0 0)
(0 0 0)
(0 0 0)
(0 0 0)
(0 0 0)
(0 0 0)
(0 0 0)
(0 0 0)
(0 0 0)
(0 0 0)
(0 0 0)
(0 0 0)
(0 0 0)
(0 0 0)
(0 0 0)
(0 0 0)
(0 0 0)
(0 0 0)
(0 0 0)
(0 0 0)
(0 0 0)
(0 0 0)
(0 0 0)
(0 0 0)
(0 0 0)
(0 0 0)
(0 0 0)
(0 0 0)
(0 0 0)
(0 0 0)
(0 0 0)
(0 0 0)
(0 0 0)
(0 0 0)
(0 0 0)
(0 0 0)
(0 0 0)
(0 0 0)
(0 0 0)
(0 0 0)
(0 0 0)
(0 0 0)
(0 0 0)
(0 0 0)
(0 0 0)
(0 0 0)
(0 0 0)
(0 0 0)
(0 0 0)
(0 0 0)
(0 0 0)
(0 0 0)
(0 0 0)
(0 0 0)
(0 0 0)
(0 0 0)
(0 0 0)
(0 0 0)
(0 0 0)
(0 0 0)
(0 0 0)
(0 0 0)
(0 0 0)
(0 0 0)
(0 0 0)
(0 0 0)
(0 0 0)
(0 0 0)
(0 0 0)
(0 0 0)
(0 0 0)
(0 0 0)
(0 0 0)
(0 0 0)
(0 0 0)
(0 0 0)
(0 0 0)
(0 0 0)
(0 0 0)
(0 0 0)
(0 0 0)
(0 0 0)
(0 0 0)
(0 0 0)
(0 0 0)
(0 0 0)
(0 0 0)
(0 0 0)
(0 0 0)
(0 0 0)
(0 0 0)
(0 0 0)
(0 0 0)
(0 0 0)
(0 0 0)
(0 0 0)
(0 0 0)
(0 0 0)
(0 0 0)
(0 0 0)
(0 0 0)
(0 0 0)
(0 0 0)
(0 0 0)
(0 0 0)
(0 0 0)
(0 0 0)
(0 0 0)
(0 0 0)
(0 0 0)
(0 0 0)
(0 0 0)
(0 0 0)
(0 0 0)
(0 0 0)
(0 0 0)
(0 0 0)
(0 0 0)
(0 0 0)
(0 0 0)
(0 0 0)
(0 0 0)
(0 0 0)
(0 0 0)
(0 0 0)
(0 0 0)
(0 0 0)
(0 0 0)
(0 0 0)
(0 0 0)
(0 0 0)
(0 0 0)
(0 0 0)
(0 0 0)
(0 0 0)
(0 0 0)
(0 0 0)
(0 0 0)
(0 0 0)
(0 0 0)
(0 0 0)
(0 0 0)
(0 0 0)
(0 0 0)
(0 0 0)
(0 0 0)
(0 0 0)
(0 0 0)
(0 0 0)
(0 0 0)
(0 0 0)
(0 0 0)
(0 0 0)
(0 0 0)
(0 0 0)
(0 0 0)
(0 0 0)
(0 0 0)
(0 0 0)
(0 0 0)
(0 0 0)
(0 0 0)
(0 0 0)
(0 0 0)
(0 0 0)
(0 0 0)
(0 0 0)
(0 0 0)
(0 0 0)
(0 0 0)
(0 0 0)
(0 0 0)
(0 0 0)
(0 0 0)
(0 0 0)
(0 0 0)
(0 0 0)
(0 0 0)
(0 0 0)
(0 0 0)
(0 0 0)
(0 0 0)
(0 0 0)
(0 0 0)
(0 0 0)
(0 0 0)
(0 0 0)
(0 0 0)
(0 0 0)
(0 0 0)
(0 0 0)
(0 0 0)
(0 0 0)
(0 0 0)
(0 0 0)
(0 0 0)
(0 0 0)
(0 0 0)
(0 0 0)
(0 0 0)
(0 0 0)
(0 0 0)
(0 0 0)
(0 0 0)
(0 0 0)
(0 0 0)
(0 0 0)
(0 0 0)
(0 0 0)
(0 0 0)
(0 0 0)
(0 0 0)
(0 0 0)
(0 0 0)
(0 0 0)
(0 0 0)
(0 0 0)
(0 0 0)
(0 0 0)
(0 0 0)
(0 0 0)
(0 0 0)
(0 0 0)
(0 0 0)
(0 0 0)
(0 0 0)
(0 0 0)
(0 0 0)
(0 0 0)
(0 0 0)
(0 0 0)
(0 0 0)
(0 0 0)
(0 0 0)
(0 0 0)
(0 0 0)
(0 0 0)
(0 0 0)
(0 0 0)
(0 0 0)
(0 0 0)
(0 0 0)
(0 0 0)
(0 0 0)
(0 0 0)
(0 0 0)
(0 0 0)
(0 0 0)
(0 0 0)
(0 0 0)
(0 0 0)
(0 0 0)
(0 0 0)
(0 0 0)
(0 0 0)
(0 0 0)
(0 0 0)
(0 0 0)
(0 0 0)
(0 0 0)
(0 0 0)
(0 0 0)
(0 0 0)
(0 0 0)
(0 0 0)
(0 0 0)
(0 0 0)
(0 0 0)
(0 0 0)
(0 0 0)
(0 0 0)
(0 0 0)
(0 0 0)
(0 0 0)
(0 0 0)
(0 0 0)
(0 0 0)
(0 0 0)
(0 0 0)
(0 0 0)
(0 0 0)
(0 0 0)
(0 0 0)
(0 0 0)
(0 0 0)
(0 0 0)
(0 0 0)
(0 0 0)
(0 0 0)
(0 0 0)
(0 0 0)
(0 0 0)
(0 0 0)
(0 0 0)
(0 0 0)
(0 0 0)
(0 0 0)
(0 0 0)
(0 0 0)
(0 0 0)
(0 0 0)
(0 0 0)
(0 0 0)
(0 0 0)
(0 0 0)
(0 0 0)
(0 0 0)
(0 0 0)
(0 0 0)
(0 0 0)
(0 0 0)
(0 0 0)
(0 0 0)
(0 0 0)
(0 0 0)
(0 0 0)
(0 0 0)
(0 0 0)
(0 0 0)
(0 0 0)
(0 0 0)
(0 0 0)
(0 0 0)
(0 0 0)
(0 0 0)
(0 0 0)
(0 0 0)
(0 0 0)
(0 0 0)
(0 0 0)
(0 0 0)
(0 0 0)
(0 0 0)
(0 0 0)
(0 0 0)
(0 0 0)
(0 0 0)
(0 0 0)
(0 0 0)
(0 0 0)
(0 0 0)
(0 0 0)
(0 0 0)
(0 0 0)
(0 0 0)
(0 0 0)
(0 0 0)
(0 0 0)
(0 0 0)
(0 0 0)
(0 0 0)
(0 0 0)
(0 0 0)
(0 0 0)
(0 0 0)
(0 0 0)
(0 0 0)
(0 0 0)
(0 0 0)
(0 0 0)
(0 0 0)
(0 0 0)
(0 0 0)
(0 0 0)
(0 0 0)
(0 0 0)
(0 0 0)
(0 0 0)
(0 0 0)
(0 0 0)
(0 0 0)
(0 0 0)
(0 0 0)
(0 0 0)
(0 0 0)
(0 0 0)
(0 0 0)
(0 0 0)
(0 0 0)
(0 0 0)
(0 0 0)
(0 0 0)
(0 0 0)
(0 0 0)
(0 0 0)
(0 0 0)
(0 0 0)
(0 0 0)
(0 0 0)
(0 0 0)
(0 0 0)
(0 0 0)
(0 0 0)
(0 0 0)
(0 0 0)
(0 0 0)
(0 0 0)
(0 0 0)
(0 0 0)
(0 0 0)
(0 0 0)
(0 0 0)
(0 0 0)
(0 0 0)
(0 0 0)
(0 0 0)
(0 0 0)
(0 0 0)
(0 0 0)
(0 0 0)
(0 0 0)
(0 0 0)
(0 0 0)
(0 0 0)
(0 0 0)
(0 0 0)
(0 0 0)
(0 0 0)
(0 0 0)
(0 0 0)
(0 0 0)
(0 0 0)
(0 0 0)
(0 0 0)
(0 0 0)
(0 0 0)
(0 0 0)
(0 0 0)
(0 0 0)
(0 0 0)
(0 0 0)
(0 0 0)
(0 0 0)
(0 0 0)
(0 0 0)
(0 0 0)
(0 0 0)
(0 0 0)
(0 0 0)
(0 0 0)
(0 0 0)
(0 0 0)
(0 0 0)
(0 0 0)
(0 0 0)
(0 0 0)
(0 0 0)
(0 0 0)
(0 0 0)
(0 0 0)
(0 0 0)
(0 0 0)
(0 0 0)
(0 0 0)
(0 0 0)
(0 0 0)
(0 0 0)
(0 0 0)
(0 0 0)
(0 0 0)
(0 0 0)
(0 0 0)
(0 0 0)
(0 0 0)
(0 0 0)
(0 0 0)
(0 0 0)
(0 0 0)
(0 0 0)
(0 0 0)
(0 0 0)
(0 0 0)
(0 0 0)
(0 0 0)
(0 0 0)
(0 0 0)
(0 0 0)
(0 0 0)
(0 0 0)
(0 0 0)
(0 0 0)
(0 0 0)
(0 0 0)
(0 0 0)
(0 0 0)
(0 0 0)
(0 0 0)
(0 0 0)
(0 0 0)
(0 0 0)
(0 0 0)
(0 0 0)
(0 0 0)
(0 0 0)
(0 0 0)
(0 0 0)
(0 0 0)
(0 0 0)
(0 0 0)
(0 0 0)
(0 0 0)
(0 0 0)
(0 0 0)
(0 0 0)
(0 0 0)
(0 0 0)
(0 0 0)
(0 0 0)
(0 0 0)
(0 0 0)
(0 0 0)
(0 0 0)
(0 0 0)
(0 0 0)
(0 0 0)
(0 0 0)
(0 0 0)
(0 0 0)
(0 0 0)
(0 0 0)
(0 0 0)
(0 0 0)
(0 0 0)
(0 0 0)
(0 0 0)
(0 0 0)
(0 0 0)
(0 0 0)
(0 0 0)
(0 0 0)
(0 0 0)
(0 0 0)
(0 0 0)
(0 0 0)
(0 0 0)
(0 0 0)
(0 0 0)
(0 0 0)
(0 0 0)
(0 0 0)
(0 0 0)
(0 0 0)
(0 0 0)
(0 0 0)
(0 0 0)
(0 0 0)
(0 0 0)
(0 0 0)
(0 0 0)
(0 0 0)
(0 0 0)
(0 0 0)
(0 0 0)
(0 0 0)
(0 0 0)
(0 0 0)
(0 0 0)
(0 0 0)
(0 0 0)
(0 0 0)
(0 0 0)
(0 0 0)
(0 0 0)
(0 0 0)
(0 0 0)
(0 0 0)
(0 0 0)
(0 0 0)
(0 0 0)
(0 0 0)
(0 0 0)
(0 0 0)
(0 0 0)
(0 0 0)
(0 0 0)
(0 0 0)
(0 0 0)
(0 0 0)
(0 0 0)
(0 0 0)
(0 0 0)
(0 0 0)
(0 0 0)
(0 0 0)
(0 0 0)
(0 0 0)
(0 0 0)
(0 0 0)
(0 0 0)
(0 0 0)
(0 0 0)
(0 0 0)
(0 0 0)
(0 0 0)
(0 0 0)
(0 0 0)
(0 0 0)
(0 0 0)
(0 0 0)
(0 0 0)
(0 0 0)
(0 0 0)
(0 0 0)
(0 0 0)
(0 0 0)
(0 0 0)
(0 0 0)
(0 0 0)
(0 0 0)
(0 0 0)
(0 0 0)
(0 0 0)
(0 0 0)
(0 0 0)
(0 0 0)
(0 0 0)
(0 0 0)
(0 0 0)
(0 0 0)
(0 0 0)
(0 0 0)
(0 0 0)
(0 0 0)
(0 0 0)
(0 0 0)
(0 0 0)
(0 0 0)
(0 0 0)
(0 0 0)
(0 0 0)
(0 0 0)
(0 0 0)
(0 0 0)
(0 0 0)
(0 0 0)
(0 0 0)
(0 0 0)
(0 0 0)
(0 0 0)
(0 0 0)
(0 0 0)
(0 0 0)
(0 0 0)
(0 0 0)
(0 0 0)
(0 0 0)
(0 0 0)
(0 0 0)
(0 0 0)
(0 0 0)
(0 0 0)
(0 0 0)
(0 0 0)
(0 0 0)
(0 0 0)
(0 0 0)
(0 0 0)
(0 0 0)
(0 0 0)
(0 0 0)
(0 0 0)
(0 0 0)
(0 0 0)
(0 0 0)
(0 0 0)
(0 0 0)
(0 0 0)
(0 0 0)
(0 0 0)
(0 0 0)
(0 0 0)
(0 0 0)
(0 0 0)
(0 0 0)
(0 0 0)
(0 0 0)
(0 0 0)
(0 0 0)
(0 0 0)
(0 0 0)
(0 0 0)
(0 0 0)
(0 0 0)
(0 0 0)
(0 0 0)
(0 0 0)
(0 0 0)
(0 0 0)
(0 0 0)
(0 0 0)
(0 0 0)
(0 0 0)
(0 0 0)
(0 0 0)
(0 0 0)
(0 0 0)
(0 0 0)
(0 0 0)
(0 0 0)
(0 0 0)
(0 0 0)
(0 0 0)
(0 0 0)
(0 0 0)
(0 0 0)
(0 0 0)
(0 0 0)
(0 0 0)
(0 0 0)
(0 0 0)
(0 0 0)
(0 0 0)
(0 0 0)
(0 0 0)
(0 0 0)
(0 0 0)
(0 0 0)
(0 0 0)
(0 0 0)
(0 0 0)
(0 0 0)
(0 0 0)
(0 0 0)
(0 0 0)
(0 0 0)
(0 0 0)
(0 0 0)
(0 0 0)
(0 0 0)
(0 0 0)
(0 0 0)
(0 0 0)
(0 0 0)
(0 0 0)
(0 0 0)
(0 0 0)
(0 0 0)
(0 0 0)
(0 0 0)
(0 0 0)
(0 0 0)
(0 0 0)
(0 0 0)
(0 0 0)
(0 0 0)
(0 0 0)
(0 0 0)
(0 0 0)
(0 0 0)
(0 0 0)
(0 0 0)
(0 0 0)
(0 0 0)
(0 0 0)
(0 0 0)
(0 0 0)
(0 0 0)
(0 0 0)
(0 0 0)
(0 0 0)
(0 0 0)
(0 0 0)
(0 0 0)
(0 0 0)
(0 0 0)
(0 0 0)
(0 0 0)
(0 0 0)
(0 0 0)
(0 0 0)
(0 0 0)
(0 0 0)
(0 0 0)
(0 0 0)
(0 0 0)
(0 0 0)
(0 0 0)
(0 0 0)
(0 0 0)
(0 0 0)
(0 0 0)
(0 0 0)
(0 0 0)
(0 0 0)
(0 0 0)
(0 0 0)
(0 0 0)
(0 0 0)
(0 0 0)
(0 0 0)
(0 0 0)
(0 0 0)
(0 0 0)
(0 0 0)
(0 0 0)
(0 0 0)
(0 0 0)
(0 0 0)
(0 0 0)
(0 0 0)
(0 0 0)
(0 0 0)
(0 0 0)
(0 0 0)
(0 0 0)
(0 0 0)
(0 0 0)
(0 0 0)
(0 0 0)
(0 0 0)
(0 0 0)
(0 0 0)
(0 0 0)
(0 0 0)
(0 0 0)
(0 0 0)
(0 0 0)
(0 0 0)
(0 0 0)
(0 0 0)
(0 0 0)
(0 0 0)
(0 0 0)
(0 0 0)
(0 0 0)
(0 0 0)
(0 0 0)
(0 0 0)
(0 0 0)
(0 0 0)
(0 0 0)
(0 0 0)
(0 0 0)
(0 0 0)
(0 0 0)
(0 0 0)
(0 0 0)
(0 0 0)
(0 0 0)
(0 0 0)
(0 0 0)
(0 0 0)
(0 0 0)
(0 0 0)
(0 0 0)
(0 0 0)
(0 0 0)
(0 0 0)
(0 0 0)
(0 0 0)
(0 0 0)
(0 0 0)
(0 0 0)
(0 0 0)
(0 0 0)
(0 0 0)
(0 0 0)
(0 0 0)
(0 0 0)
(0 0 0)
(0 0 0)
(0 0 0)
(0 0 0)
(0 0 0)
(0 0 0)
(0 0 0)
(0 0 0)
(0 0 0)
(0 0 0)
(0 0 0)
(0 0 0)
(0 0 0)
(0 0 0)
(0 0 0)
(0 0 0)
(0 0 0)
(0 0 0)
(0 0 0)
(0 0 0)
(0 0 0)
(0 0 0)
(0 0 0)
(0 0 0)
(0 0 0)
(0 0 0)
(0 0 0)
(0 0 0)
(0 0 0)
(0 0 0)
(0 0 0)
(0 0 0)
(0 0 0)
(0 0 0)
(0 0 0)
(0 0 0)
(0 0 0)
(0 0 0)
(0 0 0)
(0 0 0)
(0 0 0)
(0 0 0)
(0 0 0)
(0 0 0)
(0 0 0)
(0 0 0)
(0 0 0)
(0 0 0)
(0 0 0)
(0 0 0)
(0 0 0)
(0 0 0)
(0 0 0)
(0 0 0)
(0 0 0)
(0 0 0)
(0 0 0)
(0 0 0)
(0 0 0)
(0 0 0)
(0 0 0)
(0 0 0)
(0 0 0)
(0 0 0)
(0 0 0)
(0 0 0)
(0 0 0)
(0 0 0)
(0 0 0)
(0 0 0)
(0 0 0)
(0 0 0)
(0 0 0)
(0 0 0)
(0 0 0)
(0 0 0)
(0 0 0)
(0 0 0)
(0 0 0)
(0 0 0)
(0 0 0)
(0 0 0)
(0 0 0)
(0 0 0)
(0 0 0)
(0 0 0)
(0 0 0)
(0 0 0)
(0 0 0)
(0 0 0)
(0 0 0)
(0 0 0)
(0 0 0)
(0 0 0)
(0 0 0)
(0 0 0)
(0 0 0)
(0 0 0)
(0 0 0)
(0 0 0)
(0 0 0)
(0 0 0)
(0 0 0)
(0 0 0)
(0 0 0)
(0 0 0)
(0 0 0)
(0 0 0)
(0 0 0)
(0 0 0)
(0 0 0)
(0 0 0)
(0 0 0)
(0 0 0)
(0 0 0)
(0 0 0)
(0 0 0)
(0 0 0)
(0 0 0)
(0 0 0)
(0 0 0)
(0 0 0)
(0 0 0)
(0 0 0)
(0 0 0)
(0 0 0)
(0 0 0)
(0 0 0)
(0 0 0)
(0 0 0)
(0 0 0)
(0 0 0)
(0 0 0)
(0 0 0)
(0 0 0)
(0 0 0)
(0 0 0)
(0 0 0)
(0 0 0)
(0 0 0)
(0 0 0)
(0 0 0)
(0 0 0)
(0 0 0)
(0 0 0)
(0 0 0)
(0 0 0)
(0 0 0)
(0 0 0)
(0 0 0)
(0 0 0)
(0 0 0)
(0 0 0)
(0 0 0)
(0 0 0)
(0 0 0)
(0 0 0)
(0 0 0)
(0 0 0)
(0 0 0)
(0 0 0)
(0 0 0)
(0 0 0)
(0 0 0)
(0 0 0)
(0 0 0)
(0 0 0)
(0 0 0)
(0 0 0)
(0 0 0)
(0 0 0)
(0 0 0)
(0 0 0)
(0 0 0)
(0 0 0)
(0 0 0)
(0 0 0)
(0 0 0)
(0 0 0)
(0 0 0)
(0 0 0)
(0 0 0)
(0 0 0)
(0 0 0)
(0 0 0)
(0 0 0)
(0 0 0)
(0 0 0)
(0 0 0)
(0 0 0)
(0 0 0)
(0 0 0)
(0 0 0)
(0 0 0)
(0 0 0)
(0 0 0)
(0 0 0)
(0 0 0)
(0 0 0)
(0 0 0)
(0 0 0)
(0 0 0)
(0 0 0)
(0 0 0)
(0 0 0)
(0 0 0)
(0 0 0)
(0 0 0)
(0 0 0)
(0 0 0)
(0 0 0)
(0 0 0)
(0 0 0)
(0 0 0)
(0 0 0)
(0 0 0)
(0 0 0)
(0 0 0)
(0 0 0)
(0 0 0)
(0 0 0)
(0 0 0)
(0 0 0)
(0 0 0)
(0 0 0)
(0 0 0)
(0 0 0)
(0 0 0)
(0 0 0)
(0 0 0)
(0 0 0)
(0 0 0)
(0.00456783 0.0242125 -0.00912579)
(0.051266 0.0212835 -0.0377873)
(-0.0129324 0.0706496 -0.014156)
(0.0736064 0.0504586 -0.00638468)
(0.0597293 0.0298009 -0.0221307)
(0.0978714 0.0878919 -0.00418206)
(0.062231 0.0707211 -0.00317059)
(0.0314903 0.0384859 -0.00587579)
(0.0591845 -0.0580278 -0.0192228)
(0.0804637 -0.0294257 -0.00523035)
(0.11278 0.0159188 0.00342089)
(0.144013 -0.0591627 -0.00832335)
(0.268831 -0.0477094 0.00194457)
(0.121601 0.073492 0.0289417)
(0.123575 0.0434426 0.0488736)
(0.244876 -0.00386918 0.0412361)
(0.157 -0.00101938 0.0407265)
(0.111011 0.0774388 0.0254121)
(0.0925918 0.0989809 0.0135795)
(0.0847989 0.020766 0.0274388)
(0.00251435 -0.0391028 -0.0082725)
(0.0294133 0.0459853 0.00164243)
(-0.0058114 0.00413345 -0.0104436)
(-0.0126879 -0.0914666 -0.0101043)
(-0.0178057 -0.041869 -0.00269978)
(-0.037316 -0.0461911 -0.0110381)
(0.0668891 -0.0843811 -0.0260984)
(0.00749769 -0.044395 -0.0266025)
(0.0403421 -0.0704631 -0.0250376)
(0.164216 -0.08934 -0.0186107)
(0.273527 -0.119823 -0.00700792)
(0.138137 -0.110237 -0.0259098)
(0.247408 -0.164405 -0.0160551)
(0.2567 -0.107433 0.0297372)
(0.194783 -0.0735212 0.0239757)
(0.256993 -0.120798 0.0136069)
(0.178601 -0.0866765 0.011152)
(0.0996679 -0.0711651 0.0179767)
(-0.0424655 -0.0945278 -0.0234604)
(0.0641198 -0.128393 -0.0242639)
(-0.0106056 -0.0973849 -0.0378789)
(-0.00769417 -0.104447 -0.0402886)
(-0.0151152 -0.0828579 -0.00715394)
(-0.00237376 -0.0694588 -0.0106789)
(-0.00390922 -0.0669379 -0.0202893)
(-0.0450885 -0.0440912 -0.0124546)
(-0.023461 -0.0305026 -0.0205461)
(-0.0221759 -0.0173008 -0.0422541)
(0.00150084 -0.0260336 -0.0179664)
(0.0207545 -0.0581593 -0.0259023)
(0.0294212 -0.0262157 -0.0199742)
(0.117841 -0.106736 -0.0289184)
(0.22015 -0.109437 -0.018874)
(0.119218 -0.0416709 -0.0243648)
(0.21299 -0.0314081 -0.0178464)
(0.235306 -0.0732239 0.00236868)
(0.161766 -0.0693645 0.00144402)
(0.209203 -0.0362634 0.00388174)
(0.13308 -0.0454039 0.00067737)
(0.0324699 -0.089196 -0.00200943)
(0.0173084 -0.100894 -0.0423394)
(0.0288433 -0.0640585 -0.0083159)
(0.0258436 -0.0469456 -0.0296201)
(0.0358232 -0.0741957 -0.0623288)
(0.00978982 -0.0457697 -0.0140408)
(0.0392774 -0.03189 -0.0374968)
(-0.0200849 -0.0380693 -0.00624509)
(-0.00702991 -0.0454903 -0.0100678)
(-0.00129061 -0.0321411 -0.0190489)
(-0.00902653 -0.0458423 -0.0234332)
(0.0356498 0.00678064 -0.0170977)
(0.11026 0.0499891 -0.0134445)
(0.170853 0.0278299 -0.00122987)
(0.0693787 0.0410345 -0.00260839)
(0.0936592 0.0380365 0.000549842)
(0.143075 -0.0113965 0.00804134)
(0.0724556 -0.0302775 0.00284104)
(0.0731705 0.00972205 0.00046576)
(0.0217241 -0.0200018 -0.00606002)
(0.0245207 -0.0536859 -0.025523)
(0.0433184 -0.060612 -0.0374233)
(0.0029985 -0.0387874 -0.0130149)
(0.00712461 -0.0533364 -0.0197921)
(-0.00889902 -0.0645901 -0.0129016)
(-0.00711839 -0.0522703 -0.0130782)
(0.00110356 -0.0379919 -0.0123867)
(-0.00150194 -0.0202009 -0.0124707)
(-0.00360084 -0.0248207 -0.00930602)
(0.0429056 0.0318755 0.000262529)
(0.0231792 0.0142141 -0.000105359)
(0.0043416 -0.00234869 -0.00410548)
(-0.00103162 0.00274509 -0.00312254)
(-0.00160413 -0.00613029 -0.00742688)
(-0.00615534 -0.00578808 -0.00891097)
(9.87272e-05 0.00362784 -0.00231239)
(-0.00433456 -0.00927106 -0.0116993)
(0.0239461 0.0103869 0.0487776)
(0.0254881 -0.000906784 0.0520724)
(0.0549136 0.0126914 0.0305278)
(0.018196 0.0577907 0.0544334)
(0.0691314 0.0588228 0.0394699)
(0.0249097 0.006091 0.0233417)
(0.0341273 0.019793 0.0531327)
(0.0443183 0.0273169 0.0392999)
(0.076392 0.0732778 0.010005)
(0.0404786 0.0365527 -0.0111822)
(0.0181717 0.00931507 0.00852869)
(0.0283956 0.0222934 0.0171018)
(0.00709795 0.00792219 -0.0161082)
(0.0177915 0.0159731 -0.0335252)
(-0.0117117 -0.000700408 -0.0484299)
(0.0853938 -0.11998 -0.0503651)
(0.0766682 -0.125887 -0.05961)
(0.148418 -0.015496 0.0366134)
(0.144634 -0.102996 -0.0297016)
(0.257584 -0.0922285 0.00158567)
(0.0724079 -0.057282 0.00243859)
(0.107097 -0.0261826 0.0473441)
(0.119185 -0.111127 -0.0439168)
(0.201973 -0.126653 -0.00541558)
(-0.0564296 -0.0414549 -0.098057)
(-0.0409412 -0.192056 -0.175604)
(-0.0330988 -0.142317 -0.137889)
(-0.0436155 -0.0246051 -0.105319)
(-0.0678604 -0.0674073 -0.109133)
(-0.0403731 -0.196312 -0.138937)
(-0.0341999 -0.14795 -0.0826299)
(-0.0734314 -0.1265 -0.131011)
(-0.0469116 -0.133558 -0.117998)
(0.0877358 -0.132695 -0.0603695)
(0.0382869 -0.107607 -0.0361889)
(0.0570548 -0.11402 -0.0600173)
(0.0720471 -0.140965 -0.0666187)
(0.0233558 -0.107596 -0.0332976)
(0.0578173 -0.123387 -0.062938)
(0.00598749 -0.112298 -0.197916)
(-0.013242 -0.0933283 -0.208163)
(0.00273507 -0.141024 -0.149054)
(0.0146486 -0.118816 -0.169635)
(-0.00566616 -0.103725 -0.185681)
(0.0503744 -0.0716333 -0.052769)
(0.0451421 -0.00617361 -0.0385535)
(0.0221749 -0.0886174 -0.0129343)
(0.0589816 -0.0661522 -0.0509022)
(0.0242364 -0.0194637 -0.0537696)
(0.0281031 -0.0999544 -0.226107)
(0.0431892 -0.0749371 -0.14571)
(0.0537189 -0.100421 -0.177931)
(0.0389854 -0.11075 -0.18227)
(0.077038 -0.0964544 -0.194615)
(0.034242 0.00858408 -0.0526213)
(-0.00370763 -0.0251894 -0.0891546)
(0.119852 -0.0319323 -0.0540087)
(0.0446113 0.0307239 -0.0269463)
(0.0766207 0.0187793 -0.0408147)
(-0.00320564 -0.0583177 -0.108485)
(-0.0409159 -0.112753 -0.167441)
(-0.0442241 -0.0373401 -0.138104)
(-0.0872327 -0.0661829 -0.224898)
(0.0538516 -0.054962 -0.133946)
(0.0641548 -0.0557511 -0.213093)
(0.0203624 -0.0242724 -0.0867101)
(0.0937603 -0.069237 -0.176178)
(0.0928089 -0.0498691 -0.199614)
(0.0820927 -0.0716387 -0.238191)
(0.070387 -0.0489168 -0.237589)
(0.0660044 -0.060662 -0.19352)
(0.0249372 0.0243244 -0.128067)
(-0.0670122 -0.0355249 -0.232595)
(0.0288716 -0.0332986 -0.256826)
(0 0 0)
(-0.0340834 -0.029335 -0.214723)
(0.0240025 -0.0364989 -0.205637)
(0.0685064 0.00268467 -0.207687)
(0.0751869 -0.0483424 -0.267084)
(0.0442899 -0.00887732 -0.227455)
(0.057183 -0.0363438 -0.216454)
(0.0806781 -0.0500577 -0.214986)
(0.081214 -0.000806635 -0.205947)
(0.0788277 -0.0519773 -0.236364)
(0.0132308 -0.00649047 0.0444168)
(-0.00484943 -0.00763521 0.0503242)
(0.00952609 -0.00124982 0.0147175)
(0.0235073 0.000496179 0.0450803)
(0.0235558 0.000226047 0.0403263)
(-0.0029424 -0.00568913 0.0261211)
(0.00866498 -0.0131694 0.0480411)
(0.00787985 -0.0225574 0.0601112)
(0.00152795 -0.00661691 0.0256231)
(-0.0279735 -0.0126645 -0.00692439)
(-0.0123936 -0.0106198 0.0290423)
(-0.0239349 -0.036598 0.0585756)
(-0.0469386 -0.0357107 0.0283609)
(-0.0432698 -0.0249727 -0.0444915)
(-0.0737581 -0.0463248 -0.00656474)
(0.0569421 -0.0896067 -0.0443424)
(0.0303731 -0.0543181 -0.0373398)
(0.0612169 -0.0319833 0.0561499)
(0.0840921 -0.0922395 -0.0236647)
(0.137362 -0.150169 0.0280501)
(0.0119563 -0.0175821 0.0317323)
(0.00754121 -0.04899 0.0833724)
(0.0468661 -0.0660437 -0.00233965)
(0.0620402 -0.173547 0.0873876)
(-0.0612214 -0.0795043 -0.0789692)
(-0.0463806 -0.263822 -0.0240626)
(-0.0271451 -0.221666 -0.0100319)
(-0.0729559 -0.136058 -0.0169014)
(-0.0415922 -0.134242 -0.0243129)
(-0.0240443 -0.286334 -0.000842659)
(-0.0140466 -0.282196 0.0297381)
(-0.0437207 -0.153862 -0.0499246)
(-0.0580119 -0.161858 0.0217425)
(0.0489128 -0.110103 -0.0499912)
(0.0130917 -0.092893 -0.00888477)
(0.0357708 -0.110262 -0.0413536)
(0.0248512 -0.0795035 -0.0544995)
(0.00396589 -0.0738644 -0.0132047)
(0.00718299 -0.0955513 -0.042309)
(0.0181932 -0.12776 -0.110212)
(-0.0100313 -0.0953638 -0.129449)
(-6.03265e-05 -0.158018 -0.023354)
(0.0172302 -0.136185 -0.0331243)
(-0.0236081 -0.085836 -0.0461983)
(0.0206697 -0.0905785 -0.032175)
(-0.0153283 -0.0691881 -0.0500588)
(-0.00511612 -0.0811024 -0.0100651)
(-0.0123376 -0.108806 -0.0297569)
(-0.0346324 -0.111309 -0.0453835)
(0.0265428 -0.131779 -0.0854217)
(0.0657603 -0.0983969 -0.120471)
(0.0717111 -0.128489 -0.036638)
(0.0326278 -0.106414 -0.0328439)
(0.0766811 -0.0952159 -0.0419948)
(-0.0393973 -0.0722514 -0.0931341)
(-0.0598854 -0.111661 -0.0671114)
(-0.0853411 -0.142373 -0.144508)
(-0.120346 -0.113978 -0.145691)
(-0.104312 -0.0814594 -0.151964)
(-0.0881854 -0.15782 -0.0832319)
(-0.0928355 -0.191263 -0.0902831)
(-0.120303 -0.131578 -0.0760979)
(-0.1189 -0.122092 -0.0888402)
(0.0893684 -0.0500702 -0.114887)
(0.0759745 -0.0551331 -0.154422)
(0.074679 -0.048611 -0.139758)
(0.0820339 -0.0926259 -0.0858993)
(0.0797313 -0.0448811 -0.0501164)
(0.073405 -0.0549955 -0.122062)
(0.0817255 -0.0578398 -0.090901)
(0.0600884 -0.0387047 -0.0354317)
(-0.0821607 -0.0387212 -0.160421)
(-0.0853446 -0.0555148 -0.109655)
(0.00524783 -0.0370045 -0.130607)
(0 0 0)
(-0.0597504 -0.0384555 -0.10077)
(0.0234223 -0.0229536 -0.073724)
(0.0344179 -0.0225402 0.0219104)
(0.0695801 -0.0334764 -0.176298)
(0 0 0)
(0.051927 -0.0291139 -0.0788706)
(0.0616748 -0.0159746 -0.145943)
(0.0434972 -0.0195795 0.0108488)
(0.0525972 -0.0312305 -0.146855)
(-0.0261825 -0.00463025 0.0633584)
(-0.0355329 -0.0142914 0.087979)
(-0.0134804 -0.00785968 0.0633354)
(-0.00309309 -0.0302075 0.0758081)
(-0.00948117 -0.0559931 0.112941)
(0.00755683 -0.00876048 0.103579)
(-0.00605572 -0.0575262 0.127191)
(-0.00318859 -0.0690209 0.179607)
(-0.04393 -0.0602605 0.125645)
(-0.0696221 -0.0601318 0.0843377)
(-0.0209418 -0.0127232 0.126798)
(-0.0406491 -0.0684521 0.205853)
(-0.0870675 -0.0693621 0.158081)
(-0.0848756 -0.0624674 0.0438755)
(-0.102962 -0.0677636 0.106483)
(0.00720454 -0.0188065 -0.0259843)
(-0.0408921 0.07608 -0.0422553)
(-0.0454673 -0.0539451 0.134194)
(0.00994814 -0.0274228 0.0244931)
(-0.0171012 -0.188831 0.167003)
(-0.106062 0.0836877 0.0956197)
(-0.0915315 -0.0653289 0.179392)
(-0.0579216 0.0548429 0.034293)
(-0.0669375 -0.194684 0.211135)
(-0.0618906 -0.154651 0.0414492)