/*--------------------------------*- C++ -*----------------------------------*\
| =========                 |                                                 |
| \\      /  F ield         | OpenFOAM: The Open Source CFD Toolbox           |
|  \\    /   O peration     | Version:  5.x                                   |
|   \\  /    A nd           | Web:      www.OpenFOAM.org                      |
|    \\/     M anipulation  |                                                 |
\*---------------------------------------------------------------------------*/
FoamFile
{
    version     2.0;
    format      ascii;
    class       surfaceScalarField;
    location    "7.75";
    object      phi;
}
// * * * * * * * * * * * * * * * * * * * * * * * * * * * * * * * * * * * * * //

dimensions      [0 3 -1 0 0 0 0];

internalField   nonuniform List<scalar> 
29271
(
-1.10625e-05
6.91588e-07
2.99507e-06
7.464e-06
-7.8076e-06
5.13695e-06
7.58673e-07
2.11117e-06
-6.60652e-05
-1.65095e-05
-1.51673e-05
4.0757e-06
7.07783e-06
8.65884e-05
-4.09913e-05
-9.99901e-06
2.45569e-06
-1.60787e-06
5.99698e-06
4.41455e-05
-3.3453e-05
-2.40657e-06
-3.58276e-06
7.73836e-06
2.48101e-05
6.89385e-06
-5.97149e-05
-1.19698e-07
-1.41953e-05
2.01267e-05
-1.35363e-05
6.74395e-05
-5.59291e-05
8.28881e-06
-1.80072e-05
1.26107e-05
-1.67542e-05
6.9791e-05
-5.93042e-05
-1.29372e-06
-4.84237e-06
-5.271e-06
-1.0979e-05
8.16903e-05
-4.11106e-05
-3.5026e-06
3.66721e-06
-6.4198e-06
7.7337e-07
4.65924e-05
-3.09102e-05
-1.03702e-06
-5.36379e-06
3.14304e-05
6.0339e-06
-1.1446e-05
-1.69739e-06
4.62269e-06
8.57378e-06
-3.55842e-05
-4.03821e-06
1.11341e-05
2.94141e-06
-3.47499e-06
2.90219e-05
-3.27673e-05
2.0023e-05
-8.9786e-06
1.43167e-05
-1.44263e-05
2.18324e-05
-4.28336e-05
2.21227e-05
-1.65608e-05
5.1641e-06
-2.39114e-05
5.60191e-05
-6.71042e-05
9.2623e-06
1.16611e-05
-3.26885e-05
-1.65423e-05
9.54116e-05
-3.60252e-05
1.69009e-06
-1.51075e-06
-1.26126e-07
1.28596e-05
2.31124e-05
-3.1325e-05
-2.20934e-06
2.91783e-06
3.11675e-07
2.1135e-05
9.16984e-06
-5.79474e-05
-9.88174e-06
1.17327e-05
1.53386e-05
-1.61286e-06
4.23707e-05
-5.55409e-05
5.94152e-06
-1.05373e-05
3.85462e-07
3.04657e-06
5.67046e-05
-4.88039e-05
-1.50768e-05
-5.00702e-06
3.68e-05
2.08098e-05
1.12779e-05
-9.89156e-06
3.5419e-07
4.29569e-06
5.18323e-06
-3.34941e-05
-7.25278e-07
-8.4955e-07
3.92663e-05
-4.18839e-06
-5.52351e-05
1.32611e-06
-2.37756e-06
-4.09073e-06
5.01413e-05
1.0236e-05
-1.4638e-05
-2.50883e-06
1.07411e-05
6.44874e-06
-8.50045e-06
-6.37557e-07
-3.16744e-06
1.22788e-05
-3.9931e-06
-3.18906e-06
-1.86613e-06
8.91219e-06
5.21144e-06
-8.95245e-07
-7.63341e-05
1.45238e-05
3.72567e-06
5.37684e-05
1.08013e-05
-6.11444e-05
-1.84061e-05
8.88638e-06
-1.74357e-05
7.72985e-05
-2.6657e-05
7.08541e-06
-5.42682e-06
-1.46908e-05
3.23021e-05
7.38713e-06
5.51987e-06
1.22714e-05
-5.37091e-05
9.43941e-06
-2.3362e-06
2.88146e-05
2.82074e-05
4.84909e-07
0.000249018
-7.34653e-05
-8.41418e-05
-4.42419e-05
-6.84993e-05
-1.88905e-06
2.64543e-07
1.06057e-06
1.18716e-05
-1.42691e-05
-3.16841e-06
-1.20925e-06
-2.28017e-08
8.76797e-07
-3.3867e-05
0.000286262
-9.31588e-05
-5.81507e-05
-9.53917e-05
-8.31238e-05
1.97718e-05
2.47174e-05
2.24334e-05
3.7838e-05
-4.97e-06
-2.1073e-05
0.00025471
1.30095e-05
6.84598e-06
2.09715e-05
5.93614e-06
5.32227e-07
-2.36197e-06
1.70303e-06
-6.69081e-05
-6.33186e-05
-9.0225e-05
-5.39754e-05
-2.72916e-05
8.11508e-07
3.17032e-06
1.83355e-05
-9.01641e-06
2.92915e-07
-2.34507e-06
1.09585e-05
6.59738e-06
-1.88804e-05
-3.96036e-06
-1.40441e-06
6.89673e-07
1.69582e-05
-6.03081e-06
1.31614e-05
7.81113e-05
-1.45999e-05
-2.30552e-05
-2.06303e-05
-2.44475e-05
7.82687e-08
-3.84293e-06
1.32995e-06
4.10593e-07
1.52888e-06
1.31043e-05
0.000101643
-4.40622e-05
-7.31341e-05
-1.34593e-05
-2.55181e-05
7.62948e-07
-1.42206e-06
0.0002164
2.14093e-07
2.4489e-07
8.08496e-07
1.3498e-07
1.06562e-06
1.67849e-06
-0.00010209
-4.30281e-05
-6.84089e-05
-2.59044e-05
-1.0115e-05
-2.0968e-06
5.03371e-07
-4.86647e-07
1.2958e-05
-2.14361e-05
-3.01335e-07
2.83861e-06
5.91519e-06
1.71418e-05
-4.15814e-06
-3.55093e-05
7.49105e-07
0.000209742
-3.57621e-07
-1.41478e-06
3.03257e-06
2.70342e-06
5.11423e-08
-1.14781e-06
2.22319e-06
-3.52817e-05
-4.33816e-05
-2.73535e-05
-6.0894e-05
-4.50774e-06
2.89637e-06
0.000225625
-3.77812e-06
-1.17908e-06
-1.53146e-06
-5.96734e-07
7.25377e-06
2.73595e-06
-5.62091e-05
-4.26812e-05
-9.07318e-05
-5.97006e-05
-1.73847e-05
-2.32187e-07
8.95931e-07
1.07911e-05
-3.16507e-06
2.23122e-07
2.21643e-07
2.78051e-06
-4.59698e-05
-1.21705e-06
-1.28893e-06
4.92225e-05
-4.37627e-05
1.28847e-05
-1.28287e-05
2.21721e-06
4.43858e-05
-2.2595e-06
-1.13974e-06
1.91234e-06
1.5091e-06
-1.18731e-05
7.79093e-06
-1.01892e-05
1.42529e-05
-1.35171e-05
1.02066e-06
-1.05254e-06
1.34004e-05
4.2153e-06
1.20326e-06
-3.95936e-05
1.45287e-06
-1.18583e-05
4.45804e-05
2.24561e-05
-8.81782e-05
-1.53806e-06
-8.56932e-06
-3.00435e-05
0.000105873
-4.02684e-05
1.11431e-05
-1.81962e-06
-2.4566e-05
4.07183e-05
1.47926e-05
-1.18514e-06
6.3788e-06
-2.13632e-05
-6.5658e-06
2.53063e-06
2.02047e-05
-1.47065e-05
-3.88904e-06
0.000188062
6.34496e-06
8.19393e-06
1.19877e-05
2.08691e-05
3.37639e-06
4.78709e-06
5.41906e-06
1.85736e-05
-1.57492e-05
6.62762e-07
0.000189586
1.97601e-05
3.10842e-05
2.17536e-05
2.44579e-05
-2.17399e-07
3.17742e-05
0.000184675
1.27795e-05
1.97745e-06
4.40483e-06
9.85029e-07
4.99872e-07
1.16245e-06
9.20753e-07
-1.03177e-05
1.51738e-06
4.57443e-07
8.11335e-06
-1.205e-05
5.38399e-06
-6.4904e-06
1.31555e-05
9.05308e-07
-2.01399e-05
-1.18281e-06
-2.70725e-06
-8.98358e-06
3.21083e-05
-4.84918e-06
-1.79673e-05
6.03357e-05
4.2443e-06
4.0885e-06
1.77351e-05
1.06352e-05
-8.29745e-06
-9.2027e-06
0.000114957
-4.25784e-06
2.69592e-06
0.00024477
-4.52349e-06
-2.29445e-06
-2.59504e-06
3.29232e-06
2.02575e-06
7.63223e-07
-1.4318e-05
-2.20609e-06
-3.64008e-06
7.61079e-06
8.2955e-06
-1.27179e-05
6.6728e-07
-5.27187e-06
-5.47578e-06
1.32654e-05
9.53286e-06
-8.94634e-06
-5.01768e-06
0.0001604
8.73516e-06
1.04416e-05
1.5022e-05
1.55802e-05
-1.60246e-06
-3.03046e-06
1.93397e-07
1.83145e-06
1.9958e-07
0.00018846
2.60412e-06
8.8989e-06
3.34883e-06
3.27129e-07
9.60031e-07
8.46072e-07
-9.71528e-06
-5.98209e-07
-1.11648e-06
1.59573e-05
-3.16703e-06
-3.71337e-06
2.49902e-06
4.36227e-06
-4.59257e-05
4.91055e-06
-3.72863e-07
3.63725e-05
-5.06886e-05
2.41583e-06
-3.22152e-06
-8.90535e-07
5.25844e-05
-7.1782e-07
2.22663e-07
3.92982e-07
5.40328e-08
-1.58003e-05
8.10545e-06
-7.91555e-06
1.55848e-05
-9.09831e-06
-7.35241e-07
3.07652e-06
6.75603e-06
-6.23184e-06
5.79118e-06
-6.16241e-05
-9.77396e-06
-5.33827e-06
7.7177e-05
1.96677e-05
-0.000123636
1.45492e-05
-1.5394e-05
-2.22084e-05
0.000127022
-3.41246e-05
6.44975e-06
2.58708e-07
-4.8429e-06
2.65228e-05
5.73622e-06
3.98069e-06
-3.4849e-06
-2.34667e-05
-1.68042e-06
-1.42514e-05
3.89027e-05
-1.20707e-05
-5.05388e-06
0.000133471
1.12365e-05
1.26667e-05
9.79973e-06
1.17938e-05
5.56723e-06
1.14449e-05
3.43262e-06
5.77367e-06
5.80658e-06
-7.95548e-06
0.000127433
1.12988e-05
1.15494e-05
1.71796e-05
1.22038e-05
4.8611e-06
-1.36991e-05
0.000152234
1.69812e-06
1.28833e-06
2.31428e-06
1.76632e-06
4.97209e-06
2.05069e-05
1.45395e-05
-9.42731e-06
-9.07318e-07
-2.00131e-07
1.53745e-05
-1.3776e-05
4.36405e-06
-4.36049e-06
1.37744e-05
7.04169e-06
-5.39698e-05
2.03716e-05
-1.70939e-05
-2.76513e-05
7.13018e-05
-4.53727e-06
-1.90356e-05
4.77201e-05
1.23076e-05
9.24744e-06
4.7316e-06
4.84801e-06
7.716e-06
-4.12117e-05
0.00013596
5.51124e-06
-4.30073e-06
0.000218719
4.58701e-06
1.61308e-05
7.65992e-06
-5.33637e-06
-1.81638e-06
-2.36727e-06
-6.26872e-06
1.2039e-06
1.21532e-06
-3.23743e-06
1.25982e-05
-2.51131e-05
3.51468e-06
-1.75557e-05
-1.59009e-05
3.32989e-05
2.17561e-05
9.40039e-06
-5.0199e-06
9.79546e-05
1.37084e-05
1.19153e-05
1.26252e-05
1.13492e-05
-4.42919e-06
-3.09436e-06
-3.04576e-06
6.56104e-06
-5.57101e-06
0.000156346
3.28132e-06
9.00054e-06
4.07301e-06
-5.20483e-06
-5.95239e-06
-5.88486e-06
-3.04169e-05
-1.13393e-06
-4.02874e-06
3.78399e-05
-4.43862e-06
2.14434e-06
-8.13287e-07
3.10785e-06
-2.56954e-05
5.89707e-06
-8.43019e-07
1.55232e-05
-5.75614e-05
-8.02414e-06
4.95982e-06
-2.33367e-06
5.73884e-05
-1.91715e-07
1.68011e-06
-2.07463e-06
5.27926e-07
-1.52835e-05
5.10632e-06
-1.47828e-06
1.16655e-05
-7.24479e-06
-3.69582e-06
3.69433e-06
7.24737e-06
-1.22551e-05
7.81463e-06
-8.76198e-05
-7.93028e-06
3.16909e-06
9.68214e-05
6.65127e-06
-0.000132849
9.07995e-06
-7.85986e-06
-1.0771e-05
0.000135749
-2.24214e-05
-8.29902e-06
4.37604e-06
2.66762e-06
3.14434e-05
-7.76668e-06
6.0538e-06
-4.59927e-06
-5.23422e-05
4.05913e-06
-1.06705e-05
5.74991e-05
1.20515e-05
9.02117e-06
0.000137128
-3.99757e-08
2.65475e-06
-4.97867e-06
4.85879e-07
-4.57061e-06
-3.24713e-06
-8.91578e-06
-6.11865e-06
1.27874e-05
-5.02045e-06
0.000127715
5.48816e-06
1.04378e-07
1.04452e-06
-2.63489e-06
1.19383e-05
-1.80662e-05
0.000154636
8.15596e-07
6.48564e-07
5.04902e-07
-9.39945e-07
4.04038e-06
9.60162e-06
1.84198e-06
-3.36484e-05
5.10996e-06
-2.24398e-06
4.27231e-05
-1.44645e-05
3.40168e-06
-3.82505e-06
1.48925e-05
9.79715e-06
-7.43863e-05
1.27064e-05
-3.50244e-06
-1.70911e-05
7.24763e-05
-3.08901e-06
-1.24235e-05
8.32335e-05
-1.89796e-06
-1.68637e-06
-3.36282e-06
-4.03268e-06
3.86756e-07
-3.01589e-05
0.000157622
8.33061e-06
-1.30043e-05
0.000173222
1.13984e-05
8.35695e-06
1.76256e-05
-1.97649e-06
-2.75541e-06
-1.58274e-07
-2.25017e-05
1.24094e-06
3.98281e-06
-3.23636e-06
2.8845e-05
-3.75859e-05
3.79775e-06
-9.84266e-06
-1.01212e-05
3.60256e-05
1.77264e-05
-9.13663e-07
-2.57355e-06
9.43856e-05
2.65917e-06
3.55671e-06
2.74472e-06
1.10928e-06
-9.3719e-06
-1.36907e-06
-4.69622e-06
1.52349e-06
-1.25351e-05
0.000160292
-3.11646e-07
1.80987e-06
1.37884e-06
-8.59936e-06
-1.25582e-05
-5.72658e-06
-4.47709e-05
4.14791e-06
-4.69406e-06
3.38363e-05
-3.54541e-06
2.4165e-06
-5.28452e-06
6.32967e-06
-7.37505e-06
1.82464e-06
-1.10067e-06
3.9007e-06
-5.71172e-05
-8.54893e-06
7.15454e-06
-2.78784e-06
4.87644e-05
-1.02351e-06
1.64297e-06
-2.31312e-06
1.61377e-06
-5.92577e-06
1.75949e-06
2.88153e-07
3.87755e-06
-5.85836e-06
-3.79719e-06
6.16351e-06
3.47966e-06
-2.33864e-05
4.1198e-06
-0.000105169
-6.10804e-06
1.68118e-05
0.000113732
-1.46465e-05
-0.000131824
5.63082e-06
2.85504e-06
8.71611e-06
0.000129269
-4.90521e-05
-3.72342e-05
1.86458e-05
2.46874e-05
5.95782e-05
-1.66251e-05
-6.94715e-06
-8.35664e-06
-6.09354e-05
1.19649e-05
-5.45642e-07
6.48199e-05
3.59471e-05
3.65122e-05
0.000175549
-1.47623e-05
-1.04918e-05
-2.226e-05
-1.59902e-05
-1.84608e-05
-7.17511e-06
-1.6028e-05
-5.71142e-06
1.75899e-05
-6.76446e-07
0.000180861
-8.48145e-06
-5.62812e-06
-1.20522e-05
-7.95003e-06
7.38866e-06
5.99588e-06
0.000199712
-1.2674e-05
-6.39263e-06
-1.52811e-05
-8.50372e-06
-1.95484e-06
5.36375e-06
-1.42799e-06
-4.62042e-05
1.20979e-06
5.49825e-06
-6.52455e-06
5.34093e-05
1.19545e-08
-5.24831e-09
2.01711e-08
-3.92113e-08
-1.37517e-05
9.1425e-07
1.99282e-06
1.08346e-05
-3.22866e-06
-7.56514e-05
5.52254e-06
3.48064e-06
-1.20425e-05
8.19194e-05
2.30381e-05
-5.03199e-06
0.000128236
-5.84924e-06
-7.20122e-06
-6.97526e-06
-6.47024e-06
1.06755e-05
-3.28156e-05
0.000202124
-1.0721e-07
-1.05331e-06
0.000199398
7.50259e-06
-8.77479e-06
-2.49158e-07
-1.35409e-07
-3.07972e-06
-3.6071e-06
-3.81443e-05
-2.14443e-07
6.34407e-07
5.60445e-06
3.20127e-05
1.05983e-09
1.36731e-08
6.73415e-09
-1.63401e-08
-2.84306e-08
-3.03908e-05
-4.47704e-07
9.52524e-07
-2.93682e-06
2.22135e-05
1.06092e-05
4.09537e-06
-2.3542e-06
0.000105836
-4.1285e-06
-1.87993e-06
-2.56862e-06
-1.51092e-06
-3.67354e-06
-1.85324e-06
-2.60861e-06
2.37457e-06
-1.22973e-05
0.000145225
1.10163e-06
6.10585e-06
3.97261e-06
-6.1209e-06
-5.05697e-06
-3.7328e-06
-2.88709e-05
4.20282e-06
-2.93043e-07
2.62824e-05
-1.67757e-05
-3.15671e-06
-3.09481e-06
2.3026e-05
-3.88954e-06
2.2514e-07
-1.77648e-06
2.99857e-06
-3.57976e-05
-8.06564e-07
6.34345e-06
-7.0425e-07
1.86676e-05
-2.56525e-06
4.46602e-07
-2.25375e-06
4.29333e-06
-6.78404e-06
-2.56476e-06
1.61453e-06
7.69419e-06
-2.56525e-06
-7.5966e-07
-7.6041e-07
4.05289e-06
-7.02241e-06
5.13399e-06
-0.000109511
-6.57739e-07
2.76927e-05
8.43645e-05
-5.74229e-06
-0.000118284
-1.05867e-05
1.59168e-05
1.34678e-05
0.000105228
-5.09922e-05
-6.9245e-06
9.14237e-06
1.37367e-05
4.51937e-05
-1.01561e-05
-4.9808e-06
1.77244e-06
-6.24088e-05
1.28964e-06
7.40757e-06
5.692e-05
3.44964e-05
4.18379e-05
0.000213374
-2.90651e-05
-1.7903e-05
-2.19042e-05
-1.28094e-05
-6.87425e-06
-8.18192e-06
-5.4403e-06
-1.19808e-05
2.30634e-05
2.35919e-06
0.000219118
-9.27127e-06
-8.33115e-06
-7.38388e-06
-4.19708e-06
7.73054e-06
1.19693e-05
0.000227877
-1.50907e-05
-6.98386e-06
-7.81448e-06
-3.56197e-06
-6.35866e-07
8.05402e-06
1.23108e-06
-6.29211e-05
8.70476e-06
1.53979e-05
-7.94442e-07
4.73434e-05
5.84409e-07
-3.93979e-07
-1.64456e-06
-1.2611e-06
4.54788e-07
2.26044e-06
-8.16795e-06
1.20102e-07
1.56182e-06
6.4975e-06
-1.35924e-05
-8.83116e-05
2.21115e-07
2.4537e-05
-5.95857e-06
8.31045e-05
3.3483e-05
1.3551e-05
0.000187354
-1.63592e-05
-1.45327e-05
-1.82529e-05
-1.51699e-05
1.44712e-05
-1.54251e-05
0.00023892
-7.25359e-06
-1.79474e-06
0.000230594
-1.80865e-06
-3.77794e-06
-5.86528e-07
2.23933e-06
1.60066e-06
6.62613e-06
-2.71531e-05
-2.3868e-07
-4.50081e-06
1.87282e-06
2.27662e-05
8.9442e-07
3.42422e-07
-4.25408e-07
-3.65781e-07
-8.16404e-07
3.70751e-07
-1.44291e-05
-9.51661e-07
5.21265e-06
7.37689e-07
8.83381e-06
5.96655e-07
9.09222e-06
-4.11711e-07
0.000128686
-5.49942e-06
-1.1436e-06
-7.21953e-06
-1.77676e-06
-4.25565e-07
-8.77213e-07
-1.03742e-06
1.9607e-06
-9.97068e-07
0.000151223
-1.47075e-06
1.19879e-06
-6.13095e-06
-1.30975e-06
-2.58684e-06
-2.99563e-06
-3.06916e-05
-8.98444e-07
-7.56821e-07
3.25128e-05
-1.97062e-05
-1.47042e-05
8.57285e-06
1.1271e-06
2.47105e-05
-1.80788e-07
8.34219e-07
-4.05819e-07
-2.47599e-07
-1.98085e-06
-7.95679e-08
-4.84565e-07
2.12912e-06
-9.56317e-06
5.86771e-07
3.34739e-07
4.4881e-07
7.19578e-06
-5.93248e-06
6.40877e-07
-1.55154e-06
6.8427e-06
-5.24615e-06
-4.7687e-07
2.49544e-06
3.22758e-06
-6.45275e-06
1.64582e-06
-1.84353e-06
6.65175e-06
3.99944e-07
1.27808e-07
-5.95575e-05
4.50927e-06
9.22066e-06
4.52998e-05
-7.81136e-06
-9.44656e-05
-9.00287e-06
1.22431e-05
8.48577e-06
9.0551e-05
-4.65065e-05
2.10713e-06
1.8918e-06
6.0971e-06
4.66806e-05
-1.02702e-05
1.00642e-06
-3.17699e-06
-5.29787e-05
8.37715e-06
-2.78094e-06
4.95531e-05
3.56716e-05
2.97817e-05
0.00024087
-1.31646e-05
-1.10476e-05
-1.25105e-05
-9.08925e-06
-8.34733e-06
-1.49119e-05
-1.14846e-05
-1.23939e-05
2.50646e-05
2.18672e-06
0.000247005
-7.67968e-06
-4.44209e-06
-4.68516e-06
-2.65968e-06
7.99013e-06
1.17081e-05
0.000239241
-7.57941e-06
-3.13554e-06
-4.9048e-06
-2.06175e-06
1.55278e-06
6.5207e-06
3.61078e-06
-4.80147e-05
-5.08088e-07
6.33007e-06
8.28755e-07
4.93541e-05
-5.24841e-06
2.906e-08
-1.96411e-06
-2.00106e-06
-4.38264e-08
9.22834e-06
-5.59422e-06
3.59489e-07
7.5194e-07
4.50138e-06
-6.03108e-06
-6.81946e-05
5.96523e-07
1.88702e-05
3.74443e-06
5.10145e-05
3.62794e-05
2.27624e-05
0.000215244
-1.75111e-05
-1.46269e-05
-1.46615e-05
-1.03504e-05
1.82729e-05
-2.46341e-06
0.000261577
-1.92236e-06
2.5906e-06
0.000238374
7.04374e-07
7.37062e-07
1.60619e-06
6.75774e-06
5.34461e-06
6.38224e-06
-2.05098e-05
5.47296e-07
-3.17813e-06
-5.22522e-08
2.12705e-05
-1.9996e-06
1.52042e-06
3.28279e-06
-3.07388e-06
-2.04448e-06
2.31476e-06
-6.92293e-06
-2.35659e-06
2.82202e-06
1.08087e-06
8.47593e-06
-3.0993e-06
5.46372e-06
8.25228e-07
0.000152647
-6.46902e-06
-7.14669e-07
-4.11091e-06
9.68448e-07
5.37168e-07
1.34964e-06
9.51946e-07
-2.11645e-06
8.56806e-07
0.000163073
-6.32707e-06
-1.624e-06
-6.91541e-06
2.69206e-06
1.51746e-06
3.06731e-06
-3.46277e-05
-5.25543e-06
4.86039e-06
3.54969e-05
-2.16009e-05
-3.73598e-06
1.27594e-05
-3.06662e-06
1.5644e-05
6.0367e-07
-4.58791e-08
2.02187e-06
-1.64044e-06
-9.39222e-07
-2.08034e-06
2.98658e-06
-5.76742e-06
5.6866e-06
-7.35819e-06
5.75951e-06
-1.05595e-05
3.24234e-06
9.7726e-06
-4.5331e-06
-8.07125e-06
1.01649e-05
2.43943e-06
-3.98329e-06
1.56639e-06
-3.06754e-06
5.48444e-06
-5.4327e-06
2.7412e-06
-2.03413e-06
4.72709e-06
-2.16565e-06
-3.91546e-06
-4.00607e-05
3.0475e-06
7.46814e-06
3.56262e-05
-4.11075e-06
-8.84984e-05
-8.41308e-06
9.9522e-06
7.06418e-06
8.40059e-05
-4.5803e-05
5.50267e-06
-2.7136e-06
2.65622e-06
4.53167e-05
-4.9589e-06
5.62972e-06
-7.30116e-06
-4.34628e-05
9.54297e-06
-1.15386e-06
3.67451e-05
3.56761e-05
2.81916e-05
0.000255301
-1.17017e-05
-1.1704e-05
-9.36394e-06
-8.633e-06
-9.541e-06
-1.04355e-05
-8.38185e-06
-8.53785e-06
2.29723e-05
6.11109e-06
0.000270376
-7.09698e-06
-3.9186e-06
-4.6978e-06
-1.06504e-06
5.82515e-06
1.12182e-05
0.000250097
-5.12319e-06
-7.39801e-07
-3.02501e-06
-1.56685e-06
2.79249e-06
6.46362e-07
2.08873e-06
-6.36079e-05
4.80842e-06
6.98147e-06
5.91233e-07
5.70519e-05
-1.65764e-05
-4.82801e-06
4.58721e-06
6.95159e-06
9.8656e-06
-3.36796e-06
-3.86648e-06
4.11751e-06
3.10682e-06
-4.91741e-06
-3.98994e-05
-2.30294e-06
1.08509e-05
3.66642e-06
3.26024e-05
3.28054e-05
2.40433e-05
0.00022977
-1.45221e-05
-9.69176e-06
-1.16601e-05
-7.30966e-06
1.63912e-05
6.90237e-06
0.0002772
1.31675e-06
3.72381e-06
0.000247851
1.22014e-06
1.05836e-07
-3.44099e-06
5.91868e-06
4.96833e-06
4.32036e-06
-2.48291e-05
1.92491e-07
-4.68252e-07
-2.87902e-07
2.67095e-05
-9.74487e-07
-6.15273e-06
-9.95305e-08
1.8445e-06
4.40842e-06
9.73832e-07
-1.12361e-05
-2.50033e-06
2.0821e-06
-3.0006e-08
1.32539e-05
-1.56956e-06
9.5362e-07
1.96668e-06
0.000170821
-3.57186e-06
1.56478e-06
-2.40888e-06
1.55411e-06
1.46876e-06
2.54818e-06
1.79398e-06
-4.10332e-06
3.25383e-06
0.000179448
-8.14668e-06
-3.00511e-06
-7.44295e-06
3.99104e-06
2.99548e-06
3.93893e-06
-3.97935e-05
-7.0779e-06
5.03923e-06
4.14527e-05
-8.55207e-06
-5.09287e-06
7.14563e-06
6.49931e-06
-8.80923e-06
4.91515e-06
-6.1165e-06
1.19773e-05
-1.27728e-05
5.54195e-06
-8.5913e-06
2.42256e-06
1.66535e-05
-2.02784e-06
-7.10994e-06
6.84858e-06
2.2892e-06
-6.62788e-06
2.91422e-06
-3.67354e-06
7.3872e-06
-5.00028e-06
1.2958e-06
-1.69008e-06
5.39387e-06
-1.81484e-06
-4.39686e-06
-3.3134e-05
3.87415e-06
2.74367e-06
3.27279e-05
-1.0252e-06
-7.93606e-05
-7.20947e-06
7.53188e-06
4.94444e-06
7.51189e-05
-4.54945e-05
7.81975e-06
-3.37421e-06
-8.58148e-08
4.51375e-05
-4.00271e-06
2.67637e-06
-5.04996e-06
-3.06467e-05
9.13009e-06
1.34058e-08
2.38768e-05
3.19939e-05
2.48837e-05
0.000257745
-6.79211e-06
-8.51096e-06
-4.96715e-06
-5.47108e-06
-8.05299e-06
-9.62733e-06
-7.63105e-06
-8.26839e-06
1.97057e-05
6.1677e-06
0.000286947
-6.1244e-06
-2.16864e-06
-2.81302e-06
6.55212e-07
-1.69142e-06
1.02045e-05
0.000269235
-3.94116e-06
-1.66806e-06
-1.96388e-06
-9.86818e-07
-6.2585e-07
5.31245e-07
7.08888e-07
-5.27134e-05
-3.75714e-06
2.17888e-06
5.26002e-05
-3.05159e-06
-2.46868e-06
3.23063e-06
2.28557e-06
-3.6676e-06
-2.82151e-05
-3.07081e-06
7.03276e-06
2.78792e-06
2.51328e-05
2.79859e-05
2.33725e-05
0.000236588
-1.15387e-05
-7.59009e-06
-8.57041e-06
-5.59386e-06
1.15612e-05
8.556e-06
0.000291236
-2.48763e-06
3.31392e-06
0.000267268
-5.2847e-06
-1.49234e-06
-3.3273e-06
3.13774e-06
5.34766e-06
3.1406e-06
-3.5008e-05
-1.14568e-06
-7.98663e-06
4.69431e-06
3.69584e-05
-1.51377e-05
-3.26813e-06
1.66802e-06
1.62466e-07
1.74257e-05
-8.50329e-07
-1.42638e-06
3.22905e-06
0.000184726
-2.2017e-06
1.75692e-06
-1.07703e-06
1.47918e-06
2.25783e-06
3.12757e-06
2.32206e-06
-5.54535e-06
3.03541e-06
0.000194063
-6.09541e-06
-4.06268e-06
-4.86428e-06
4.06581e-06
2.38632e-06
3.59476e-06
-4.56514e-05
-6.29721e-06
3.66578e-06
4.60514e-05
-4.74472e-06
-1.75527e-06
3.47766e-06
3.02233e-06
-1.46666e-05
3.57852e-06
-2.84296e-06
1.71601e-05
-1.96587e-05
3.11815e-06
-4.52513e-06
1.89557e-06
2.22055e-05
-2.8015e-06
-2.72921e-06
2.76135e-06
2.76936e-06
-7.89342e-06
3.63145e-06
-3.9168e-06
8.17876e-06
-6.44683e-06
-1.12965e-06
-1.62146e-06
9.19794e-06
-3.48807e-06
-2.27147e-06
-3.35588e-05
3.63451e-06
9.75856e-07
3.4708e-05
9.63968e-07
-7.14269e-05
-4.29128e-06
4.04755e-06
2.06347e-06
6.86432e-05
-4.36444e-05
8.71403e-06
-3.07923e-06
-8.88776e-07
4.04742e-05
-1.57587e-06
3.52085e-06
-3.77426e-06
-1.67448e-05
7.17825e-06
-1.06513e-06
1.08851e-05
3.00581e-05
2.05509e-05
0.000254203
-3.51022e-06
-5.82187e-06
-2.24662e-06
-2.79532e-06
-8.41646e-06
-9.15425e-06
-7.08764e-06
-8.03469e-06
1.94524e-05
6.36608e-06
0.000295107
-3.7436e-06
-9.7007e-07
-1.71493e-07
9.64964e-07
1.7621e-06
1.05035e-05
0.000276242
-3.89317e-06
-1.52861e-06
-3.16008e-06
-1.6201e-06
3.27557e-06
2.23556e-06
4.87059e-06
-5.15e-05
-7.7854e-07
3.61584e-06
5.04248e-05
-4.40822e-07
-1.37162e-06
3.0848e-06
-1.27235e-06
-3.60863e-06
-2.31471e-05
-2.89385e-06
5.59018e-06
1.41648e-06
2.2643e-05
2.26039e-05
2.11524e-05
0.000236837
-8.34237e-06
-5.26068e-06
-6.44183e-06
-3.40874e-06
1.26282e-05
8.9449e-06
0.000298633
-1.25381e-07
3.53358e-06
0.000273539
-2.45079e-08
1.35777e-09
1.65871e-06
3.0354e-06
5.35643e-06
3.4253e-06
-3.66046e-05
-1.7989e-06
-3.34436e-06
4.29941e-06
3.7323e-05
-1.94717e-05
-2.68155e-06
5.42109e-07
-2.52387e-07
2.18805e-05
-1.69973e-08
-2.45024e-06
3.08281e-06
0.000193856
-3.80122e-07
1.86635e-06
8.99146e-07
1.77191e-06
2.27072e-06
2.77356e-06
2.18788e-06
-5.75195e-06
2.16481e-06
0.000206401
-3.56498e-06
-4.00027e-06
-2.49474e-06
3.43002e-06
1.63942e-06
2.73377e-06
-4.8327e-05
-3.72271e-06
3.45707e-06
4.63743e-05
-3.35091e-06
-2.88608e-06
1.57252e-06
4.66447e-06
-1.89496e-05
3.22328e-06
-1.60363e-06
2.04128e-05
-2.42006e-05
2.00814e-06
-3.0522e-06
1.42371e-06
2.59857e-05
-2.65446e-06
-1.20153e-06
1.07821e-06
2.77777e-06
-8.43359e-06
4.19856e-06
-4.5428e-06
8.77784e-06
-1.26639e-05
-7.55005e-06
5.57377e-06
1.46402e-05
-2.76194e-06
1.44597e-06
-3.60617e-05
-4.39257e-07
-3.17512e-07
3.81344e-05
2.78693e-06
-6.61382e-05
4.85829e-07
1.12663e-06
-1.54804e-06
6.32868e-05
-3.66393e-05
7.00284e-06
-3.97371e-06
-7.31085e-07
3.3582e-05
7.5928e-07
1.50675e-06
-1.97702e-06
-7.74842e-06
4.52818e-06
-3.82058e-06
7.51109e-06
2.50787e-05
1.60881e-05
0.000243902
-9.54127e-07
-3.5601e-06
-9.62855e-08
-9.12833e-07
-5.83226e-06
-8.06931e-06
-4.68025e-06
-6.76094e-06
1.75821e-05
6.24313e-06
0.000296795
-1.16105e-06
-1.24097e-06
1.32337e-06
6.43515e-07
2.3307e-06
1.09949e-05
0.000281384
-5.63006e-06
-1.82026e-06
-3.28873e-06
-1.38847e-06
4.22377e-06
2.71851e-06
4.29979e-06
-4.92991e-05
-1.79279e-06
5.35596e-06
4.80667e-05
2.63184e-06
3.8648e-08
4.69342e-07
-3.13983e-06
-2.35051e-06
-2.17353e-05
-5.64958e-07
4.08703e-06
8.31632e-07
1.97321e-05
1.66581e-05
1.68537e-05
0.000234217
-5.9949e-06
-2.93705e-06
-4.33682e-06
-1.53513e-06
1.23404e-05
8.90941e-06
0.000300284
-2.81291e-08
3.37963e-06
0.000276787
1.64085e-06
4.57691e-07
1.46567e-06
3.75513e-06
4.86405e-06
4.55256e-06
-3.90074e-05
-3.93332e-06
-3.16998e-06
4.73953e-06
4.1343e-05
-2.41154e-05
3.34188e-08
-1.34106e-06
-1.87594e-06
2.57555e-05
1.54354e-06
-5.38458e-06
2.49194e-06
0.000198531
1.53689e-06
2.42776e-06
2.68185e-06
2.5005e-06
1.84477e-06
2.29206e-06
1.78725e-06
-5.8792e-06
1.55504e-06
0.000214869
-1.84475e-06
-3.55582e-06
-1.51094e-06
2.72113e-06
1.32738e-06
2.24441e-06
-4.68585e-05
-3.08088e-06
3.69535e-06
4.37445e-05
-6.27292e-06
-4.28961e-06
2.66195e-06
7.90058e-06
-2.15342e-05
3.39911e-06
-1.82511e-06
2.24522e-05
-2.73849e-05
1.85478e-06
-2.82707e-06
1.09144e-06
2.88207e-05
-3.36495e-06
-1.95186e-06
1.22071e-06
4.0961e-06
-9.14787e-06
4.33844e-06
-4.70024e-06
9.50967e-06
-1.53493e-05
-1.0901e-05
1.0505e-05
1.57453e-05
-1.98917e-06
4.42079e-06
-3.99307e-05
-3.0292e-06
-4.71268e-07
4.09995e-05
3.40302e-06
-6.0444e-05
3.25059e-06
-2.36083e-06
-2.70965e-06
5.88609e-05
-3.184e-05
3.6232e-06
-2.48306e-06
-1.75857e-06
3.06873e-05
1.77117e-06
-5.18917e-06
2.12186e-06
-9.13658e-06
3.78187e-07
1.12026e-07
1.17137e-05
2.03328e-05
1.24163e-05
0.000229348
6.36834e-07
-1.94791e-06
5.49997e-07
-1.86652e-07
-3.23469e-06
-6.15705e-06
-2.77001e-06
-5.08559e-06
1.40946e-05
7.17201e-06
0.000294388
9.07297e-08
-1.11645e-06
1.90714e-06
5.91893e-07
2.40843e-06
1.04796e-05
0.000282763
-3.38417e-06
-2.02058e-06
-5.94084e-07
-2.03488e-06
2.98583e-06
2.14231e-06
2.73315e-06
-4.7583e-05
-3.81218e-06
6.97366e-06
4.68299e-05
3.04098e-06
3.95702e-07
-7.53776e-07
-2.68291e-06
-2.85945e-06
-1.80099e-05
1.11713e-06
4.08715e-06
-1.72951e-06
1.73946e-05
1.29501e-05
1.33981e-05
0.000230236
-4.76063e-06
-1.6253e-06
-3.45778e-06
-1.07759e-07
1.04415e-05
9.75873e-06
0.000300206
4.21872e-07
2.52754e-06
0.000278258
1.23591e-06
6.12681e-07
9.96936e-07
4.60259e-06
3.84094e-06
5.2117e-06
-4.41287e-05
-5.78927e-06
-2.69039e-06
6.29548e-06
4.67347e-05
-2.63989e-05
2.33168e-06
-2.61346e-06
-2.77634e-06
2.67651e-05
2.69193e-06
-8.13113e-06
2.21143e-06
0.000200074
2.68095e-06
3.06352e-06
3.66454e-06
3.08182e-06
1.5641e-06
2.12481e-06
1.59553e-06
-4.38836e-06
1.41963e-06
0.000219508
-1.86668e-06
-1.9097e-06
-2.18817e-06
2.34041e-06
1.47001e-06
2.11135e-06
-4.40076e-05
-2.35367e-06
2.99603e-06
4.15044e-05
-9.35525e-06
-5.39079e-06
4.04833e-06
1.06977e-05
-2.3318e-05
3.54315e-06
-2.2009e-06
2.41872e-05
-3.0083e-05
1.99284e-06
-2.96172e-06
9.83389e-07
3.14881e-05
-4.86003e-06
-2.05799e-06
1.60536e-06
5.31266e-06
-9.77087e-06
4.08976e-06
-4.05803e-06
9.73914e-06
-1.60141e-05
-1.27973e-05
1.24728e-05
1.63387e-05
-3.00271e-06
8.02272e-06
-4.14675e-05
-6.08461e-06
3.05264e-07
4.22269e-05
3.52168e-06
-5.74858e-05
5.81127e-06
-3.79735e-06
-3.05788e-06
5.5008e-05
-3.02144e-05
1.49483e-06
-8.06246e-07
-1.66161e-06
3.06846e-05
5.02781e-07
-7.94582e-06
4.25692e-06
-1.40877e-05
-1.0952e-06
2.61226e-06
1.62595e-05
1.63393e-05
8.37085e-06
0.000215354
7.9094e-07
-1.20444e-06
7.43087e-07
5.0054e-07
-2.18573e-06
-4.24833e-06
-2.31453e-06
-2.79739e-06
1.11967e-05
9.71985e-06
0.000293558
1.34321e-07
-3.02317e-06
1.47947e-06
-2.33763e-06
2.08689e-06
8.55701e-06
0.000281205
-9.01617e-07
-1.79582e-06
7.75684e-07
-1.5396e-06
1.66228e-06
2.38936e-06
1.52071e-06
-4.54226e-05
-3.06064e-06
7.46859e-06
4.31015e-05
2.10764e-06
-9.45362e-07
2.47219e-07
-1.4095e-06
-3.41398e-06
-1.76624e-05
1.99991e-06
3.98607e-06
-3.67576e-06
1.87661e-05
8.91577e-06
1.04102e-05
0.0002231
-3.32977e-06
-1.09938e-07
-1.53943e-06
1.16041e-06
7.60958e-06
1.10716e-05
0.000300161
1.34428e-07
1.95279e-06
0.000277077
6.43771e-07
2.06993e-07
4.17198e-07
5.01016e-06
3.6363e-06
5.34587e-06
-4.90742e-05
-6.16545e-06
-2.4174e-06
7.27006e-06
5.05214e-05
-2.70156e-05
2.27732e-06
-2.95414e-06
-2.94739e-06
2.72221e-05
3.41768e-06
-1.00265e-05
2.04905e-06
0.000199705
3.02645e-06
3.43948e-06
3.97095e-06
3.44875e-06
1.39711e-06
1.9741e-06
1.5001e-06
-3.28743e-06
1.70347e-06
0.000222926
-2.70431e-06
-1.58016e-06
-3.04203e-06
2.32724e-06
1.87365e-06
2.3367e-06
-4.2638e-05
-2.26276e-06
2.38665e-06
4.11795e-05
-1.20317e-05
-6.15939e-06
5.00571e-06
1.31854e-05
-2.51173e-05
3.51137e-06
-2.40767e-06
2.60626e-05
-3.28468e-05
2.10974e-06
-2.95643e-06
9.80752e-07
3.44162e-05
-5.7039e-06
-1.87732e-06
1.59525e-06
5.98597e-06
-9.25051e-06
3.33528e-06
-2.31291e-06
8.22813e-06
-1.6832e-05
-1.25179e-05
1.19309e-05
1.7419e-05
-2.28009e-06
1.0854e-05
-4.3137e-05
-9.67306e-06
4.32992e-07
4.38031e-05
1.27743e-06
-5.04932e-05
6.99768e-06
-1.34878e-06
-7.13149e-07
4.428e-05
-3.18516e-05
6.63935e-07
-3.4731e-07
-1.29679e-06
3.27849e-05
4.69061e-08
-8.14966e-06
4.82808e-06
-1.82073e-05
-1.06247e-06
2.51927e-06
2.00721e-05
1.18e-05
4.23354e-06
0.000209457
3.53609e-07
-1.4756e-06
-3.57453e-07
-3.48683e-07
-1.92446e-06
-2.4304e-06
-2.15956e-06
-1.79437e-06
9.48423e-06
1.0489e-05
0.00029162
-8.32014e-07
-4.07294e-06
2.26445e-07
-1.55675e-06
2.81984e-06
6.3761e-06
0.00027695
2.31707e-08
-1.01281e-06
1.29088e-06
-7.29101e-07
1.05568e-06
2.83661e-06
1.07886e-06
-4.05578e-05
-2.68698e-07
5.34486e-06
3.83015e-05
6.42155e-07
-2.02057e-06
1.18549e-06
1.92922e-07
-2.89932e-06
-2.01517e-05
2.89971e-06
2.44231e-06
-4.11503e-06
2.18241e-05
2.95336e-06
6.59586e-06
0.00021528
-8.19689e-07
8.79603e-07
5.62023e-07
1.88253e-06
4.30113e-06
1.11577e-05
0.000298144
-2.19964e-07
1.81065e-06
0.000272505
1.71611e-07
-8.79162e-09
3.83079e-08
4.8993e-06
3.48815e-06
5.0703e-06
-5.15378e-05
-4.88032e-06
-2.29348e-06
6.73716e-06
5.17544e-05
-2.75656e-05
1.55254e-06
-2.91729e-06
-2.63652e-06
2.79945e-05
3.57233e-06
-1.18539e-05
1.62357e-06
0.000197959
3.21089e-06
3.73085e-06
4.2475e-06
3.80048e-06
1.05823e-06
1.47078e-06
1.05272e-06
-3.21096e-06
1.92463e-06
0.000225242
-3.42273e-06
-1.7282e-06
-3.64036e-06
2.44079e-06
2.12783e-06
2.49642e-06
-4.29146e-05
-2.66024e-06
2.33984e-06
4.18347e-05
-1.41773e-05
-6.10708e-06
5.44898e-06
1.48354e-05
-2.71181e-05
3.35796e-06
-2.5743e-06
2.7958e-05
-3.59797e-05
2.18562e-06
-2.89798e-06
1.01012e-06
3.76065e-05
-6.4631e-06
-2.10468e-06
1.57862e-06
6.98916e-06
-7.23257e-06
1.7464e-06
-1.28018e-06
6.76635e-06
-1.76797e-05
-1.11332e-05
1.12082e-05
1.76047e-05
-8.51137e-07
1.01994e-05
-4.36079e-05
-9.29474e-06
1.00706e-06
4.25473e-05
1.67863e-06
-3.79758e-05
5.87703e-06
-1.89417e-06
-7.29194e-07
3.30435e-05
-3.31949e-05
5.02501e-07
2.72143e-07
-2.29845e-06
3.31617e-05
1.55708e-06
-7.36881e-06
4.40383e-06
-2.17504e-05
-3.99863e-07
1.70862e-06
2.34066e-05
7.60085e-06
3.22858e-06
0.000209723
-9.66836e-07
-2.12843e-06
-7.52582e-07
-7.79781e-07
-1.54562e-06
-2.19192e-06
-9.51441e-07
-1.7788e-06
7.98551e-06
9.01695e-06
0.000285818
-1.72478e-06
-1.79863e-06
-2.67801e-07
1.91885e-07
2.90786e-06
3.05648e-06
0.00027168
7.18821e-07
1.54527e-08
1.86537e-06
3.8223e-07
7.98638e-07
2.59125e-06
9.19824e-07
-3.65968e-05
1.61787e-06
2.38945e-06
3.54973e-05
-1.04202e-06
-2.64934e-06
1.78045e-06
1.91091e-06
-2.22766e-06
-2.31941e-05
3.38021e-06
1.60873e-06
-3.78184e-06
2.42146e-05
-2.15307e-06
4.46651e-06
0.000211144
3.31212e-07
1.30383e-06
1.12053e-06
2.29505e-06
1.13468e-06
1.09433e-05
0.00029293
-5.38709e-07
1.60945e-06
0.00026452
-3.686e-07
-5.59715e-07
-5.31745e-07
4.59613e-06
3.26195e-06
4.70749e-06
-5.16013e-05
-3.00285e-06
-2.01555e-06
5.64617e-06
5.04348e-05
-2.86073e-05
9.56615e-07
-2.64422e-06
-2.23384e-06
2.92532e-05
3.27554e-06
-1.31665e-05
1.09428e-06
0.000196799
3.28205e-06
3.9183e-06
4.40845e-06
4.00679e-06
5.54768e-07
1.01873e-06
5.10155e-07
-3.56017e-06
2.0813e-06
0.000227033
-3.91877e-06
-2.1122e-06
-3.95498e-06
2.52858e-06