/*--------------------------------*- C++ -*----------------------------------*\
| =========                 |                                                 |
| \\      /  F ield         | OpenFOAM: The Open Source CFD Toolbox           |
|  \\    /   O peration     | Version:  5.x                                   |
|   \\  /    A nd           | Web:      www.OpenFOAM.org                      |
|    \\/     M anipulation  |                                                 |
\*---------------------------------------------------------------------------*/
FoamFile
{
    version     2.0;
    format      ascii;
    class       volScalarField;
    location    "0.35";
    object      Ksl;
}
// * * * * * * * * * * * * * * * * * * * * * * * * * * * * * * * * * * * * * //

dimensions      [1 -3 -1 0 0 0 0];

internalField   nonuniform List<scalar> 
10571
(
102.406
265.343
529.757
197.47
499.357
346.5
420.454
329.892
620.391
713.949
98.0465
132.303
573.525
671.616
898.865
949.736
427.178
744.564
688.455
939.18
1282.66
295.366
509.085
696.565
57.851
76.9259
65.2339
42.741
9.4291
17.0692
44.9545
18.8595
19.8039
24.9514
31.948
25.8366
13.4398
29.769
42.0496
38.9056
14.8233
36.0494
25.1491
4.62597
83.6402
42.1198
33.327
-2.35453e-14
65.7127
35.4582
32.8666
19.4324
10.9889
44.0332
66.9614
8.32075
19.4215
33.5441
18.0204
27.0916
14.9235
13.0027
33.7017
56.8096
55.0576
29.7178
14.2896
20.9762
56.3634
45.7693
30.6256
8.11977
28.7567
46.7773
34.9618
25.6517
7.16838
46.8014
5.80952
9.34679
18.7277
-1.27084e-14
79.5354
23.5374
9.68326
14.8359
28.6739
71.2579
70.1655
28.3515
22.9251
42.9182
91.6315
43.5453
17.0224
18.9179
58.6993
105.574
32.9294
13.3359
40.2083
37.6076
8.50242
6.3351
10.9557
24.162
31.5428
6.5894
13.5584
11.5622
28.9428
48.9904
62.5573
32.5564
15.5783
18.2362
72.3938
21.6619
26.9661
22.5591
0
92.5441
12.59
26.0248
46.4827
19.9493
19.3878
13.6037
16.9596
25.7094
1705.64
0
20.3331
12.6453
17.0339
39.8248
64.7502
6860.43
55.1598
36.794
25.4999
20.9167
73.0635
59.2982
41.452
20.5658
33.3376
65.9389
10.6535
12.913
26.5372
13.3231
23.8231
11.5351
20.906
25.9722
0
37.8933
7.91232
10.9118
12.0299
29.525
39.1342
0
37.0136
25.1077
28.4614
33.3033
87.8738
0
86.8227
22.8032
27.6827
19.5179
15.0959
9.58324
22.6643
28.8659
8.56172
9.66125
20.138
18.1878
42.8334
0
0
22.3627
12.4019
18.7669
20.1574
67.1265
0
17.135
32.394
30.2432
34.786
65.9543
0
32.1355
47.1797
27.7256
19.0092
61.4405
19.1394
36.4805
22.0397
10.422
11.8075
20.6716
16.5994
41.0405
0
46.7036
11.9395
10.996
10.4266
31.5782
37.2893
0
35.8097
32.7846
28.067
12.1635
36.6713
82.1489
29.8832
5.19422
49.1125
65.9936
14.8815
19.3151
25.606
16.0752
18.9438
19.9002
14.7874
31.2381
-6.39247e-16
11.4286
8.35332
10.4087
26.8868
29.4211
5.71102
21.0921
20.6585
32.1371
62.5702
41.8029
72.7083
9.38582
19.1221
8.52609
30.5032
30.7968
19.1603
22.105
11.0292
13.3397
16.5405
25.4681
-2.00487e-14
8.97959
9.79953
9.60229
27.2754
64.1361
31.2573
18.7333
19.2608
57.2079
58.0788
44.4549
42.7015
12.8479
15.0311
32.9641
8.116
40.7599
33.5228
31.1426
18.0273
26.7974
17.8757
20.5995
0
7.43991
6.87059
15.5358
29.1006
102.742
-4.89772e-15
13.8108
24.1904
11.4166
9.51495
67.4962
21.4393
13.7325
88.3803
9.88551
13.1666
20.7973
67.3154
26.7197
17.6636
22.9442
19.4421
42.4795
0
18.1446
9.84365
12.0536
29.9507
59.0195
31.8073
23.0763
20.412
12.7549
36.9271
10.8735
30.8186
21.2974
18.9848
0.936485
16.1898
9.3821
41.8713
41.1518
21.0171
11.9755
18.913
54.8557
14.4757
6.82954
6.50886
11.8401
28.5466
91.534
16.3207
20.5024
18.6766
13.1239
46.1062
49.5139
9.38936
8.35103
17.205
14.1812
5.15703
7.9337
48.7452
25.8128
8.53592
13.7815
20.3362
46.5068
42.8872
7.27093
11.5237
13.1912
41.8943
60.8458
35.1859
21.6919
20.7689
0.242925
31.5645
17.83
33.5349
-1.31379e-14
52.5043
15.1162
19.9095
4.8931
33.8347
11.1871
27.2217
7.49865
15.2477
23.4989
-4.51232e-16
1.34658
5.58285
13.8182
34.889
37.1279
26.7721
25.2824
11.2953
28.0924
40.4236
38.8864
0.134989
13.3774
0
15.5909
10.8717
0
7.34767
23.9977
8.28906
11.4114
16.6356
22.6323
34.6636
7.32948
13.1743
18.093
30.0219
43.4805
38.0163
20.3646
14.1696
12.1965
61.4369
17.8877
4.82632
10.3177
0
23.1997
35.6793
23.7807
10.2302
21.9078
9.13176
35.6576
23.1314
48.9557
34.0182
15.185
9.93485
11.1553
26.3968
39.5174
21.1581
30.7326
10.012
12.1389
56.3893
21.376
0.541683
13.3302
19.6777
26.8788
24.2925
6.75272
14.2678
25.7566
7.56316
29.2083
21.2895
24.641
25.7506
16.8241
9.48703
15.5649
28.2844
61.1479
15.1022
22.4418
7.95299
14.0571
44.7206
20.1594
5.43337
39.6138
11.1244
86.5533
12.4992
20.0071
19.5543
10.7712
18.7457
16.503
25.3617
51.1915
-1.45156e-14
14.2242
9.15006
20.6663
41.133
38.8737
30.8171
15.7919
11.0068
13.4227
50.3756
12.9704
9.81219
0
39.7588
28.3983
18.5841
22.8619
12.3267
8.76709
4.96773
15.2389
31.1194
48.6135
4.30091
12.1576
7.43657
16.0434
43.0226
81.5192
4.78681
22.9021
8.3382
11.915
31.3012
21.6913
7.79954
24.5518
3.29423
20.5948
6.43646
39.4481
7.40281
18.7575
6.2967
9.56101
40.4511
33.1019
0
6.81091
9.56897
19.3253
35.0615
64.6253
0
19.0673
19.6121
22.5914
50.7457
27.3645
8.5485
0
0
22.9983
13.8819
8.03063
1.91367
6.61539
6.13777
23.1415
39.1936
18.0576
-1.8645e-15
7.03582
7.20488
14.2074
44.8357
51.1473
30.0792
27.8327
29.2082
15.1745
56.7268
49.596
21.4248
0
13.2011
32.6509
71.2565
10.9607
16.2516
10.8663
7.8097
16.4381
24.813
22.6825
39.5532
6.24726
11.6845
18.1678
51.6056
63.329
1.52642
19.3176
18.877
6.56504
7.85609
21.5762
14.8773
24.4565
20.153
26.4757
22.6593
0.226852
12.566
13.3094
4.62785
13.6908
24.6312
26.885
0
12.6137
10.676
16.4604
49.6923
57.6543
17.0054
15.4644
22.7192
7.82166
46.4926
25.6319
0.226145
12.4171
20.4051
36.9293
50.6965
0.403093
-4.86672e-15
7.41358
6.03931
13.2858
23.529
9.65121
35.108
6.74959
10.4894
19.0042
56.4769
50.0924
25.1599
17.3435
13.9829
16.444
46.4887
84.6884
0.132026
0
0
38.991
19.655
0.225695
30.6817
16.0355
5.06259
15.6696
23.1988
23.1084
62.7309
0
12.4575
17.9022
77.8535
69.0851
21.4831
15.33
9.53652
21.4587
39.7075
53.8172
14.655
12.8061
101.773
56.3553
6.01082
2.32165
24.3109
6.39051
10.1861
13.6059
28.3356
27.1376
20.7868
0
15.2664
15.7743
74.0218
69.8613
0.934867
23.7363
7.71158
25.1528
47.9506
28.4844
14.5251
0.397755
39.765
47.3978
24.1401
4.28869
8.44068
4.11232
7.41255
12.0969
23.2994
33.8469
0
13.6542
7.69933
17.9732
69.695
81.2445
6.37674
25.405
3.61958
12.9552
42.443
7.11301
1.84028
26.1402
15.7715
32.3674
10.763
6.94543
10.3005
6.79876
7.44026
13.9634
39.4406
31.1005
20.3088
5.47259
13.5304
14.7594
51.9157
86.4309
10.6029
25.7533
7.73682
9.80164
18.8057
31.2425
10.79
15.4067
22.5042
33.8405
29.6349
24.3794
12.441
0
10.6288
25.4566
35.8868
26.7214
0
6.65328
11.5111
24.5686
66.5375
75.4177
10.6281
17.0617
13.1887
21.2232
30.905
35.1989
12.8783
46.8693
0
44.1856
34.0123
20.8069
20.5626
12.5775
45.8303
16.2243
31.73
33.659
0
0.202716
10.3919
22.7131
66.7458
67.5702
13.0342
14.421
10.1418
10.7857
53.6044
26.0523
30.7771
26.4461
-5.97233e-16
51.0743
12.0788
25.3535
5.74343
0
23.1536
23.1921
51.0122
44.5048
40.0359
0
6.63751
25.589
77.1659
106.729
5.46729
11.3021
10.631
37.0621
30.0129
38.3284
7.57343
3.19796
19.3266
38.9844
11.9736
0
23.2493
16.6527
23.8509
21.3361
43.6572
34.8988
0
0
4.70753
22.0014
67.3336
66.9315
6.42355
13.9917
12.4044
36.6331
31.0376
48.2212
23.7258
11.8324
22.5496
28.4877
38.1453
0
20.8992
0
41.4461
31.2432
31.9759
31.6946
0
8.58471
6.69214
15.0815
64.3008
101.622
0
14.2681
11.5303
23.8439
15.9505
28.3188
5.50277
24.7041
19.103
22.4193
6.70686
4.41587
10.5787
0
13.902
17.0676
30.7744
29.6919
30.4072
13.6354
12.8547
17.9119
75.2593
106.397
5.40916
14.4415
15.0258
32.3775
39.3539
54.907
17.3253
16.0554
19.2575
21.6369
52.0184
27.1696
0
0
61.1561
15.8613
38.5404
4.61502
18.8506
6.96496
3.43887
13.264
79.7872
105.864
10.8733
15.7353
10.3359
27.0484
50.1894
43.7116
17.5735
12.0392
0
36.6664
11.9217
15.5908
10.606
0.261596
40.1014
11.0181
44.0188
10.7198
11.8437
0
3.92888
9.14462
86.666
104.988
0.160626
16.3528
15.9172
16.8177
23.0389
42.2391
19.4117
19.2961
0
40.4089
16.0396
13.8456
5.09478
17.2785
49.6572
20.9656
43.5268
11.343
0
0
4.19754
10.5944
101.288
110.833
17.0681
30.3799
17.4183
35.3192
33.2732
19.4208
18.2521
26.4035
0
41.1438
27.7535
22.0919
4.14735
22.3895
29.6275
28.5054
41.9336
22.486
19.1934
12.3404
13.9708
16.2752
92.569
48.8531
10.8086
29.2328
15.9117
17.5027
74.325
49.1852
5.50939
14.3765
0
44.5004
5.87866
6.69752
10.3725
37.6513
4.72283
39.6513
34.5432
22.963
0
12.6485
14.5189
21.3574
114.181
48.5143
10.9159
21.9754
14.9989
36.1685
91.7698
38.0224
22.0707
27.7152
0
62.5289
10.9666
26.8724
21.1967
26.8237
6.78772
25.8975
32.71
11.4342
6.87389
0
10.3851
22.1648
101.067
35.5244
15.0057
27.165
10.376
55.2072
101.007
11.5672
15.0136
55.5408
0
0.484755
18.0118
6.61785
37.6864
20.8949
4.08991
32.2347
34.1262
9.58212
0.746648
-2.09038e-16
10.1559
17.309
124.734
38.1253
5.35117
25.5923
17.254
30.5372
56.7542
36.4555
5.91819
33.5417
0
39.4268
6.06842
27.0295
30.8133
21.2483
5.04964
53.0349
35.9065
6.68374
0
6.94543
6.31082
25.8102
128.893
36.2162
4.63958
29.0352
19.0799
64.8029
55.7786
11.6704
0
13.0553
0
16.1541
6.43849
1.38619
24.3942
24.1602
1.29924
51.959
37.2592
5.75349
0
0
10.5823
26.9673
120.798
58.0452
0
19.6622
17.5425
35.5116
71.9739
14.8631
18.9925
59.7698
0
8.22092
6.14063
0.242191
24.6914
6.03411
14.8671
40.6835
27.8872
11.8284
0
1.26671
25.7003
32.1901
140.782
49.3113
3.8331
23.9539
22.9565
19.9465
145.427
8.72645
5.48895
10.3501
0
0
15.8653
25.5137
15.3279
12.9306
12.253
31.6107
37.0595
0.197193
0
0
36.2469
30.3613
149.206
58.0747
1.67716
21.3572
28.1505
39.3184
98.9299
11.711
27.2246
31.4923
0
8.34465
12.2001
6.89707
21.1951
16.7545
12.5338
38.352
51.0223
8.05877
0
0
46.4507
35.47
197.319
30.5022
16.4523
16.5278
39.3882
43.6312
97.0863
14.8572
16.4964
54.0407
20.3332
20.2298
13.1449
27.233
14.3543
8.73547
11.1853
25.9295
53.6541
17.0731
0
0
33.3259
42.9669
214.206
35.94
4.50195
16.8461
51.6737
89.5102
115.9
16.1253
28.8824
22.6396
0
0
12.8499
6.90736
5.19866
14.9617
8.37216
31.382
47.1114
6.22154
0
3.33516
23.4313
39.2143
274.878
58.9325
20.7038
34.1979
49.963
38.0588
118.862
24.0218
24.1476
79.8712
0
8.76108
17.3562
20.0861
27.4553
14.7844
10.7737
45.6531
44.1
18.9929
7.42029
140.019
11.2506
48.1685
339.62
44.5759
27.6109
31.3343
37.6246
52.4479
126.086
66.0833
63.5329
56.9423
0
0
17.5496
20.8723
15.6884
0.462822
14.6439
30.6439
47.2928
0
15.9431
7.00535
16.7437
49.2122
412.185
49.9318
5.34622
26.8677
37.0148
78.6676
138.352
62.6699
71.3075
23.4091
0
0
7.28741
27.2681
25.5068
30.0173
20.9568
38.1861
42.7833
0
0
7.40187
21.4677
49.6884
523.604
37.7956
5.48893
23.8847
34.8463
89.5429
205.431
41.988
60.0559
38.3942
0
0
15.3347
11.4083
13.7479
4.28361
17.6005
39.2751
28.6855
0
0
7.80715
11.8541
51.3473
610.872
36.429
3.76314
16.8421
44.8593
104.214
190.474
49.438
44.7123
54.1439
0
0
15.9469
12.7316
28.5872
6.80331
17.8771
33.1554
33.0957
13.2862
0
15.3734
9.56767
53.3494
662.879
77.4437
5.5313
17.0753
38.3473
125.256
189.138
27.132
35.0233
15.8541
28.4408
9.43132
5.95536
11.5455
32.8675
6.57988
18.3614
26.9084
47.6932
17.5249
0
7.33781
35.8728
56.2279
739.282
80.0166
17.4332
20.7258
36.5824
168.835
200.016
49.6131
38.2272
72.3046
0
20.0842
5.38205
6.75744
25.1277
0.157891
12.648
21.8582
85.2393
38.2059
0
0.134709
28.2539
74.2663
1366.07
203.543
12.9641
39.1797
49.3998
292.841
293.088
62.7607
45.5791
129.939
22.0871
9.89128
47.8195
17.2601
11.489
13.8754
9.67317
53.5239
149.14
39.2531
18.2825
17.38
24.0271
144.769
1219.5
4873.96
18.533
27.861
63.3353
367.181
242.108
22.8079
70.0615
152.439
25.1895
40.0205
21.4477
23.5486
22.2257
6.9705
15.4817
100.71
96.2881
293.216
20.8269
0
29.022
270.117
729.724
2717.16
17.0553
63.8084
129.547
350.289
434.748
28.3947
101.459
99.1793
60.9546
9.91589
29.792
34.1579
39.0419
29.1668
25.3662
79.1006
83.3843
501.909
25.6377
20.197
42.8485
484.545
656.842
1719.79
28.1496
249.069
139.769
244.802
638.567
143.548
86.7553
179.706
193.853
53.3761
63.6999
21.5187
61.4963
18.6174
68.688
96.9013
146.964
332.733
11.3384
50.9856
182.804
656.074
335.28
781.357
71.2781
283.146
94.7082
60.1841
1919.09
559.891
60.9505
171.022
249.216
143.547
91.3809
86.0425
110.573
61.7583
351.244
234.938
176.421
284.267
24.4577
15.4859
343.884
564.734
68.9112
1043.4
181.087
236.798
71.503
9.7296
3505.02
91.0915
33.7158
78.1584
145.048
758.497
89.9749
284.787
155.711
231.605
467.723
503.849
86.3537
226.321
42.0832
20.188
405.58
228.752
22.9462
518.359
4622.49
577.627
188.841
35.8483
25.8464
2226.33
32.1701
39.3247
98.816
465.686
296.428
53.1344
458.104
308.805
448.016
560.601
345.767
42.7485
183.007
432.518
512.789
187.806
346.918
29.6149
18.2326
23.4025
1309.24
63.553
160.539
18.8976
28.9904
2694.09
75.8272
38.318
146.02
48.3931
193.14
102.204
278.893
392.083
447.41
390.591
166.758
20.9062
16.466
429.447
133.174
38.2852
216.611
14.8207
26.2742
11.4457
2293.91
28.1701
192.744
22.3548
47.2133
6714.71
0
238.955
19.6764
159.771
5.00508
106.311
116.213
102.153
636.555
306.744
63.8424
39.0735
19.5597
314.721
-1.02556e-14
21.0881
72.8623
105.122
9.10799
58.9246
128.599
8.54178
27.6639
202.9
27.2344
47.4896
5192.63
128.624
79.5888
145.641
1.43714
1162.5
312.945
123.885
581.521
37.7192
4.09144
12.7645
7.26665
745.926
34.9464
177.817
9.44258
10.8839
102.393
1199.69
0
39.7278
169.922
18.7033
20.7757
7218.9
62.896
90.4251
153.497
15.7042
646.626
116.957
195.744
1066.68
13.5435
2.5561
8.36749
10.7207
667.583
112.711
123.127
5.92135
10.3035
129.185
1320.41
225.806
55.0911
16.2192
74.5964
4610.47
327.789
81.101
21.0649
0
502.25
22.9641
247.106
654.252
4.87657
1.31913
13.4418
62.9971
717.765
276.499
8.53078
1.4248
7.80357
127.429
953.484
254.47
16.3866
10.7711
63.9359
4882.25
271.851
46.2325
30.0634
0
17.5975
169.944
860.265
372.166
132.671
25.4982
12.6431
370.765
2511.22
0
199.982
8.56355
6.20602
204.065
880.765
146.079
32.1224
6.36247
73.283
3724.75
180.864
55.2835
46.2691
0
0
0
14.5651
27.3363
0
117.762
166.303
954.663
1733.78
0
0
126.863
3.57663
745.027
5326.98
0
147.42
25.9646
281.601
3908.39
84.8652
254.432
195.079
0
0
0
0
0
0
5.98995
142.98
250.843
26.0486
0
0
44.786
393.922
3760.15
5436.87
0
35.9757
437.221
3863.46
4797.13
0
110.005
2108.18
0
0
0
0
0
0
0
0
0
0
0
0
0
0.261277
1.94697
0
0
0
0.353735
7.88747
1.03575
0
0
0
0
0
0
0
0
0
0
0
0
0
0
0
0
0
0
0
0
0
0
0
0
0
0
0
0
0
0
0
0
0
0
0
0
0
0
0
0
0
0
0
0
0
0
0
0
0
0
0
8280.98
5024.79
8298.49
7338.06
4896.95
6285.43
6366.35
7970.17
7463.64
6901.16
6325.67
7535.04
7045
8703.56
7282.75
7153.16
6854.3
6686.71
7868.32
6952.49
7361.59
8209.31
9746.71
8952.16
9956.17
10108.3
6611.11
5062.74
6228.85
7542.04
7189.68
6546.42
6713.21
7166.95
7063.91
7196.17
8268.55
8493.51
8411.57
9123.46
8608.97
8414.54
9546.16
8514.47
8931.51
9041.87
9995.2
9428.69
3941.28
6158.26
6421.78
6284.9
7095.47
6951.38
6818.15
7094.13
8694.2
7533.48
8708.24
9791.59
8666.55
8572.55
9153.08
8892.23
9420.77
8700.03
10444.6
9779.14
10217.7
10467.5
6704.91
7995.46
7547.09
8014.91
8187.75
8803.9
8226.44
8165.87
9320.9
8349.46
8821.38
8819.34
9128.75
9345.95
10729.7
10037.6
10802.8
9720.24
7263.55
6358.2
8181.34
7449.81
8947.62
9145.93
7693
10223.1
338.447
22.0397
282.142
489.65
274.156
35.0579
58.5267
106.753
149.485
140.328
-9.61093e-15
65.6841
43.1459
207.605
25.7292
358.674
90.4472
257.744
384.865
393.068
10.8529
27.0503
65.4437
29.5133
474.068
566.51
733.312
56.079
22.6572
105.749
78.255
728.815
30.1752
226.567
41.9897
85.917
62.2084
35.7992
37.7828
682.718
720.343
16.8358
41.8291
20.4206
99.3443
139.853
19.5166
50.9459
18.2573
946.001
1195.26
87.9779
69.7674
107.896
138.575
19.1626
464.254
312.502
443.314
31.1347
91.5089
27.2352
44.9878
1185.86
821.149
826.855
115.799
57.9242
60.0669
30.501
137.802
278.265
21.3414
509.164
513.028
73.6363
43.7327
18.3194
665.936
173.01
65.1038
146.323
23.3218
199.682
32.8901
36.8738
18.5016
25.8307
18.6716
26.617
59.497
25.2446
26.5126
19.6947
0
19.922
-4.07615e-15
9.81491
5.9321
45.7696
65.9129
35.4836
26.2216
22.8969
62.4661
72.537
47.0189
20.6424
54.2796
21.0305
41.3189
10.6251
81.9199
0.179397
30.1861
22.261
1.01169
26.9334
86.5502
100.154
18.6089
5.86913
57.2267
45.3459
26.6863
17.8146
67.2973
0
24.6033
10.5608
0.7179
24.0189
0.210422
43.3308
96.6322
24.9895
0
83.0083
24.5029
30.8983
5.8965
25.7381
41.7406
20.9025
8.74598
36.8895
27.0258
52.9375
24.1326
16.6305
29.7328
65.1495
29.2154
17.7609
14.0914
18.723
50.4286
36.3099
32.0945
87.5936
62.9442
33.0608
22.2852
42.7176
26.3265
13.6813
32.3689
11.1249
117.986
84.1366
-1.66813e-14
118.575
52.1138
77.7903
46.594
124.347
14.7875
0
48.3321
40.4164
0
7.15731
23.1275
74.9149
65.4797
51.9245
49.7662
23.5114
67.9387
72.6913
15.3869
19.8684
36.759
12.6635
46.1784
7.83486
84.2368
8.27339
36.4466
76.5188
50.0227
130.222
15.249
192.596
65.0666
131.577
65.8007
53.874
47.5273
41.1203
40.3976
48.3332
37.5335
0
37.6314
37.2315
21.5738
18.6793
89.3355
75.3399
47.0576
100.655
20.0973
21.3368
26.8065
48.0048
36.981
57.4843
7.69047
44.3389
57.8344
24.9864
5.42827
15.0812
11.7469
38.7165
23.2964
38.0628
63.6749
57.0239
39.7824
55.3171
17.0985
65.4027
74.2819
74.0896
7.44295
18.0533
30.2765
7.21712
42.7348
20.2194
71.0054
92.8037
80.0718
46.3538
81.3949
76.9082
48.2972
57.4754
63.1378
7.28461
37.2298
59.0934
29.8007
20.2259
-1.7968e-14
18.4524
40.4558
69.7842
35.8658
20.4966
88.1576
113.62
63.8917
48.3949
27.7473
26.3303
9.18656
22.7597
59.4777
6.5074
39.0644
9.80881
22.0957
44.8201
126.961
56.5005
37.8732
49.8197
25.131
22.769
59.7162
29.4286
51.5895
-2.22552e-14
43.767
0.669876
21.4184
40.1352
11.5137
45.7652
78.3864
87.263
0
119.513
34.3075
56.7775
18.4893
39.5352
35.2052
71.8049
6.4389
95.746
67.9434
35.4387
25.549
17.9871
15.485
27.22
46.7076
22.0751
48.3071
37.4344
19.1957
46.6695
90.141
21.1444
74.9309
-7.11119e-15
36.9069
53.9834
37.6324
22.4008
37.7118
2.11786
45.8475
65.2619
58.2441
37.0307
48.2432
41.2593
17.4315
32.052
37.2582
36.3947
0.68709
56.6746
20.0309
24.3945
37.9905
51.6277
15.4081
147.918
40.3119
50.8578
40.4563
77.8564
47.718
42.3458
29.1374
19.4519
30.4065
60.965
20.0207
10.5607
29.7744
27.0984
11.2015
32.3464
7.79882
37.0071
27.5216
0
7.36869
37.4433
35.1376
7.63236
51.0308
207.848
3.72073
14.2215
0
11.7243
0
69.0168
58.4681
97.9805
263.808
46.9505
45.7368
40.1309
29.0413
32.649
45.2804
37.8129
18.8987
63.1385
14.3836
22.8834
-2.02234e-14
33.5123
33.1889
24.9778
11.5982
60.5167
58.1727
23.6297
29.3611
62.7451
97.4975
52.1296
58.1177
124.933
30.0604
0.726847
55.3902
18.3273
54.3477
6.29696
85.6727
5.18394
73.4058
10.7988
23.7274
36.6017
25.8669
18.9773
11.2204
37.7552
0
25.1921
16.9137
12.414
40.101
27.7967
51.7827
78.7362
42.616
39.1864
52.0909
70.2364
52.1336
49.2468
18.0703
16.4458
19.2587
36.0981
17.6156
16.5498
43.7481
20.779
22.2598
15.5107
28.9431
19.8084
3.35992
-1.7503e-14
21.805
156.484
44.5474
629.506
19.6065
9.36744
20.0043
5.94264
7117.09
6359.5
12233.2
0.185403
38.4777
8.66911
143.766
7.91715
22.6414
0
5.6708
41.9432
632.112
99.0406
132.91
26.0356
25.7422
73.9754
14.2672
12442.5
1855.2
7850.45
7.57245
192.914
0.740993
57.2093
104.454
76.9807
48.6901
18.623
38.4049
13.7821
53.0161
72.0816
66.3877
56.8539
27.5978
38.8309
19.8678
73.9383
50.5975
10.7863
50.2099
74.6281
50.3357
87.1033
77.1982
51.7064
55.781
94.2391
11.7587
34.4532
32.1128
31.263
20.4647
0
34.5871
84.5209
10.9204
18.2371
31.4744
43.7096
30.1768
34.775
19.2521
26.5056
19.6891
21.3512
24.5592
21.5414
0
101.353
38.9943
51.0097
64.0547
67.6757
89.9808
45.2242
51.1061
24.2929
12.5449
18.1863
29.0551
23.0087
9.46813
33.7309
7.83436
33.9468
0
8.47752
0
0
0
0
0
41.544
0
7.12993
16.0702
20.3447
32.8555
4.76623
40.0115
0
18.5506
10.1463
16.3218
4.53421
0
0
0
0
0
2.13448
0
22.1721
63.5593
-1.10062e-14
21.5383
32.8443
18.7139
93.622
10.7399
37.9224
9.6129
65.6263
27.0915
0
2.06483
0
0.128614
0
0
0
26.1791
54.8256
12.8526
34.9326
37.9989
24.1765
6.31855
24.0446
26.3954
31.3321
25.4188
54.0006
26.2499
55.6703
66.1331
28.5924
-8.17456e-15
63.3488
4.48471
0
0
0
104.941
102.782
49.9253
38.0311
44.8814
81.3646
73.6034
-5.28875e-15
102.025
14.397
24.1024
19.2471
26.3166
52.0848
104.04
-1.05201e-14
20.9446
33.4984
0
20.6469
24.8503
5.06967
20.8568
34.815
0.993232
5.80164
37.6285
26.9917
27.8845
34.1397
61.8338
58.27
48.4355
35.0926
54.3018
33.2233
73.7547
13.0302
26.7066
20.7377
-4.73061e-15
27.1151
-7.03991e-15
21.3411
17.8111
2.859
36.2315
0
0
0
0
0
12.5341
19.1951
27.2976
29.8481
0
10.8495
8.55902
27.6666
17.1151
38.8101
4.41401
54.1196
8.99097
0
0
0
0
0
0
0
-7.19529e-16
7.4815
0
11.7555
7.39778
13.9719
56.9154
17.0812
44.7366
32.3001
67.1723
6.4969
0
0
0
0
0
0
0
28.7462
12.2578
29.0011
9.89931
31.1568
29.2122
11.519
33.5892
22.7972
52.8673
17.964
38.4399
31.9644
31.3291
9.76271
31.9697
6.79994
36.9094
-1.18814e-14
0
0
0
34.0379
55.2738
70.4089
72.2765
96.4129
58.1775
78.7165
9.95616
70.3526
65.7227
24.4566
115.97
27.7518
91.421
70.0115
0
32.3554
24.1569
18.6255
52.6788
22.747
16.7502
20.9414
17.8421
13.542
7.00818
61.4395
25.2593
14.3612
36.3261
61.5567
68.6906
30.7215
76.5781
54.9889
17.0641
35.2136
17.9536
0
30.3847
18.7654
7.34003
6.75409
16.0485
77.7528
30.4499
36.6969
0
10.9941
34.5723
0
6.26983
0
43.9744
7.45889
21.1637
7.04926
54.3894
9.47049
0
0
0
0
0
0
0
18.0207
30.4311
-2.40697e-14
95.189
25.4294
33.9844
63.2198
0
68.7235
31.4366
51.2901
10.2874
0
0
0
0
0
0
0
1.47756
0
34.3123
44.3406
48.2075
16.6221
18.3316
0.782807
41.7025
26.5649
16.4172
31.1717
26.6137
31.6544
6.94584
35.48
42.6412
98.3773
80.9542
74.9667
83.3695
80.2608
85.9445
50.9024
17.3771
37.6743
91.5042
13.2386
105.469
23.4779
61.6844
50.0614
17.2895
47.0188
9.82521
16.7699
47.4709
5.24084
34.9509
20.8087
8.97832
27.6922
14.7996
12.9771
25.7065
13.5589
43.2915
10.0728
39.3794
17.6706
15.1573
24.7376
47.9284
15.5431
6.30784
-3.92679e-15
8.56849
17.5515
9.18542
6.70938
15.2664
33.9035
38.1851
47.3603
27.5377
15.5876
23.0458
20.8844
60.9544
60.5339
25.1472
23.0951
49.0305
66.9644
39.4418
8.48815
26.6671
16.5361
16.9938
102.418
77.1912
62.6216
100.593
58.9092
23.1488
0
29.329
43.9918
33.6702
17.8201
9.8962
19.6811
46.173
44.5436
20.6481
-1.15493e-14
14.1722
23.7442
42.34
67.5637
54.2455
37.6478
50.2121
71.7016
99.4159
61.5123
49.6708
52.52
23.1484
45.0677
40.9682
6.59295
21.6732
67.2984
32.9506
8.64302
6.26623
43.1352
8.57998
0
81.4985
72.2127
16.3596
17.4745
0
11.2621
39.7365
25.8082
17.0845
92.9864
70.2492
17.6917
40.1079
36.8225
36.6559
20.8286
20.2189
12.5653
28.6816
0
5.2375
11.7173
11.7894
7.96542
22.8662
28.3035
45.902
94.402
19.4141
88.9264
70.7019
41.7319
75.003
31.6506
48.3314
13.8951
71.2143
70.4774
15.1652
15.6156
0
9.48715
7.65315
91.621
56.7713
86.7963
70.7974
54.4637
1.11998
0
22.6725
55.709
27.5242
10.4213
6.04602
24.8658
30.9692
24.5833
88.0676
36.9632
22.2685
48.8686
18.0361
30.0893
25.6994
45.419
28.5285
36.7982
62.83
40.2623
50.3622
15.6878
48.7057
5.96761
45.5896
23.2313
65.4263
4.88245
9.4898
9.54418
38.3459
38.6094
96.8109
38.3525
31.7501
59.4945
28.8097
25.002
27.9566
27.8719
21.9511
13.9601
21.3008
60.5721
30.462
12.5901
38.0439
46.177
27.231
19.6991
17.2165
5.28812
0
13.8298
13.6593
33.066
12.0619
18.5815
15.9277
40.6487
13.7536
74.2234
-2.98462e-14
54.1063
56.5154
41.0346
31.9176
56.4182
89.8262
30.8435
64.7405
164.046
31.3132
19.6975
41.4247
17.8127
35.1389
107.954
52.4187
62.2057
88.5429
26.1352
36.4546
12.6149
13.935
37.5186
32.1596
5.48888
11.684
0.257163
40.0974
4.80231
25.4374
10.1177
9.15347
19.5229
10.5419
0
36.1937
52.6302
37.6875
22.0513
34.0105
37.9511
20.0502
26.0542
8.36032
61.2324
45.8028
37.4019
10.0695
17.8521
36.4166
19.6052
34.739
22.4444
58.6682
53.2581
32.817
43.057
13.4214
4.86176
40.0851
22.5612
2.03729
87.5391
135.134
16.1359
14.3415
20.2327
5.60329
19.605
25.6631
21.2528
24.1185
13.2836
43.2561
0
28.1962
46.7913
29.8168
6.5119
5.7829
18.4249
47.3129
38.0422
76.5104
48.0013
25.7582
5.88991
0.178929
51.1617
62.1741
56.7747
47.6694
48.0245
-8.80864e-15
16.82
0
25.0996
35.0616
65.7237
31.6019
88.2222
75.1642
77.0857
65.1931
79.263
30.9303
30.4366
46.4445
47.2396
11.6011
41.2589
26.0586
6.21437
17.1326
19.9669
12.9213
20.7492
24.0575
21.2624
58.6986
46.6708
36.8155
31.268
24.0767
44.8688
20.0213
23.2172
25.4798
29.7628
44.7783
47.3222
46.3784
2.30971
19.432
-8.57741e-15
25.1389
15.4668
45.926
0
11.5798
21.4235
15.0835
44.9392
46.2053
10.0372
-7.00337e-15
70.9779
74.6297
33.605
21.9185
10.3138
6.742
13.5891
13.162
21.7017
14.1061
3.74502
35.7684
7.02394
33.6898
48.9822
46.7001
16.814
15.3018
53.6848
58.4705
31.8677
16.4353
30.9563
33.1856
12.883
11.6294
99.1706
10.6807
69.3263
51.842
58.436
5.91556
71.2333
0.959198
22.0724
75.4575
48.2073
32.6597
51.5813
64.3524
83.5521
34.3479
20.0415
12.3355
49.9485
40.4796
43.3115
32.2585
58.1367
44.7796
39.5936
26.3311
45.8802
12.732
23.7441
15.059
30.1421
16.797
18.5245
19.2922
15.9816
31.4037
4.27708
25.3868
-1.37483e-14
44.1342
0.622635
22.7744
23.7258
30.4781
23.6359
0
7.12924
0
12.8308
10.8345
19.3616
23.9923
13.9004
9.79142
3.14645
0
7.13561
27.0583
37.3739
13.346
10.936
0
13.2197
4.91061
25.2708
16.7703
11.5568
4.62327
30.6403
36.6138
26.6921
39.212
46.4395
38.9335
8.8724
12.962
87.0284
30.6605
24.566
0
8.4068
15.6191
0
8.45174
29.9619
62.9878
49.3709
34.5647
15.2726
24.0162
65.9236
0
8.81594
102.632
23.5057
99.4078
74.2326
47.3545
82.3445
17.7142
56.0932
33.76
57.8178
25.4829
22.0983
29.6867
45.5126
47.2566
40.9442
27.0752
17.8743
7.31955
9.2323
13.3427
18.6545
56.4794
27.9914
12.9016
14.705
20.5224
19.6091
5.70433
9.97224
30.0832
18.0355
18.1159
7.2453
16.77
0
20.5708
19.9846
0
31.2797
9.83719
19.6679
21.2698
16.545
24.4219
14.5464
7.21964
7.95136
2.33649
17.9153
51.0194
40.2309
15.1035
17.9524
7.96781
10.0995
24.8971
13.4072
22.5689
-5.01027e-15
30.1091
30.7844
19.9917
13.9356
11.0391
9.26449
7.17108
30.451
27.6529
35.8389
19.078
10.6924
13.1317
0
15.8139
44.396
74.2596
14.0965
50.6085
-1.58728e-14
27.7049
46.1948
29.205
22.7976
17.2739
32.0712
90.6126
58.9403
44.1068
32.3514
18.8364
13.8399
4.53134
37.6058
35.1447
47.5269
11.8776
8.91016
14.8913
9.59186
7.7789
35.9556
-4.30906e-15
24.0215
23.8567
33.0377
59.3657
20.7068
15.5541
19.5733
15.6626
30.8864
11.9759
15.3068
19.5942
34.4745
10.8403
17.1691
-1.21484e-14
21.6047
-9.02317e-15
36.6652
19.2369
19.4026
19.5539
19.1613
12.0164
16.2672
17.1016
14.8427
0
7.13569
31.6812
15.5324
17.5374
-9.6433e-15
0
22.2971
35.6822
6.23857
35.5014
4.00368
3.84601
11.1218
44.292
20.2088
15.4468
24.4272
20.0808
1.31216
52.622
24.309
28.5342
12.1837
25.3027
15.8437
21.0304
3.48095
19.6301
21.1347
0
12.2182
23.1916
52.6947
16.5653
31.4544
18.0976
35.8087
23.712
41.1712
50.1054
65.8256
22.0714
74.0724
24.5825
11.0411
17.7008
32.4621
16.2977
11.1268
9.40786
28.626
27.3145
36.6038
14.3369
38.1732
18.5722
19.842
5.52556
53.5804
27.8175
20.7866
22.8143
33.9051
1.96915
17.4937
23.7879
15.5093
7.02805
29.4136
8.84803
7.51113
14.769
13.5581
7.53864
20.748
0
12.3962
16.8434
54.7683
24.9232
30.3166
1.9033
48.059
0
10.4791
45.1429
23.4593
6.20048
18.3486
25.0973
15.3905
9.38014
2.60259
33.2105
45.5851
13.0341
14.9819
23.1674
10.8706
18.9281
14.5936
20.2212
17.6655
23.6103
27.9121
10.0448
13.1783
36.922
15.7647
12.5067
39.9529
20.5167
50.5164
35.1471
18.6572
21.4722
52.8954
61.851
3.28037
83.9651
25.6945
12.3367
71.9007
52.186
76.5773
83.4449
10.0407
12.3508
24.3153
17.2092
18.6959
41.1906
7.15208
26.3805
21.5513
34.3964
15.7246
16.639
33.4602
6.9276
25.9776
9.44774
47.4492
14.874
33.7469
34.4635
13.4734
29.7842
47.9435
9.48907
0
14.502
0
5.35055
14.9445
0.910393
-9.27295e-15
26.8533
19.7167
16.9628
3.8606
10.1622
0
21.6497
30.9606
18.4372
29.6828
14.9508
10.4124
36.5028
11.6247
13.7888
7.87246
32.0376
35.3687
20.754
14.9814
15.9853
27.6312
29.2733
20.9644
32.3596
9.94123
16.8841
7.31698
10.6832
6.61071
33.8853
0
50.2968
12.0902
-1.14934e-14
32.0075
11.6504
14.1775
4.34017
63.7865
54.5538
10.4441
39.4736
130.866
27.6056
15.2477
20.7038
24.5952
4.46416
41.2741
25.2518
60.3408
69.7607
45.2042
13.9449
-1.5792e-15
19.3101
26.8136
31.2658
30.8258
6.09354
17.6667
5.33217
15.2922
5.69789
8.39184
8.3848
50.7787
7.71341
8.66098
25.9516
-1.15084e-14
12.4526
36.8766
0
9.57092
24.1963
29.1707
0
-8.16798e-16
1.34946
6.98915
4.49182
13.5192
26.7868
39.7271
0
13.5774
15.9418
0
-2.32617e-15
40.562
23.7135
29.0522
0
12.6666
34.9069
2.46352
0
6.4773
29.8191
24.2883
14.5978
7.57123
31.4893
49.2929
21.9439
13.3332
19.8006
12.4505
23.6087
12.4555
33.0671
7.51694
46.5319
17.4044
11.1251
8.06755
6.45911
11.8229
17.2025
1.01276
5.20139
54.4567
46.778
71.2014
16.7904
25.74
26.4937
12.2304
58.8039
13.6126
6.74569
39.6115
46.3773
75.6005
26.0017
27.8631
11.8401
12.5973
27.4694
19.6614
16.2715
23.9912
20.4274
7.18779
31.5101
31.4361
13.0996
24.7395
15.3897
20.1698
7.34686
22.0647
29.0174
44.4837
29.7914
16.2414
-1.34633e-14
35.909
30.9041
0
0
-7.92151e-16
10.36
7.4754
0
0
-8.76339e-15
21.1849
38.8269
3.5287
11.865
-1.12932e-14
49.1325
9.32416
16.2228
19.2386
19.9268
33.8858
9.99829
31.3033
2.40823
24.9581
9.35229
23.7654
57.6642
5.683
42.3537
36.1484
25.0707
7.66225
28.6127
6.42846
24.768
20.033
43.5121
6.6306
26.5398
0
59.6741
11.3249
0
6.87464
1.13314
0
35.8698
23.0715
4.51708
15.1655
49.807
50.9372
12.4963
6.64786
20.5416
1.77296
0
59.2401
38.614
89.0997
62.8215
43.7043
11.9348
0
14.8199
27.3999
21.4394
15.3395
24.4975
9.02671
21.5224
25.3948
18.9769
8.42201
15.0107
23.8709
18.7569
2.66318
27.5592
32.6835
2.12346
10.4093
0
50.0368
29.141
0
33.7695
36.3501
16.884
11.0282
-1.57973e-14
-3.99893e-15
30.61
35.1957
27.4718
19.4287
9.70825
6.53627
11.1006
19.3169
25.827
6.91763
36.0979
20.3112
7.02636
11.6111
0
42.6178
0.365988
32.1647
28.3924
17.2305
61.8512
40.9849
27.3067
11.9155
17.3407
0.24411
20.6817
25.2843
35.0702
26.2409
6.15005
11.3485
3.94463
18.9249
0
5.80867
-5.10756e-15
0
10.6284
41.242
47.3456
6.68656
34.6292
14.3715
0
6.92143
2.79367
5.32453
11.1294
67.442
30.6944
53.5121
74.3863
59.1953
19.9784
6.86164
2.9497
3.16236
14.2103
9.24857
10.0273
25.2957
5.06005
24.0092
10.3656
15.1647
0.704519
24.5031
14.6289
8.75177
35.5869
19.1841
28.8252
29.2436
27.4347
41.8096
15.174
51.5676
26.5981
34.6022
16.1593
6.96842
0
0
28.5929
17.0039
0
5.93907
1.03768
31.6072
16.3685
9.98932
10.3777
2.60113
26.3765
12.3803
18.8178
5.47395
8.09784
10.6033
9.87516
10.8088
34.8831
23.0281
39.0368
18.7168
18.0856
29.3753
34.9884
12.9914
22.866
28.5287
9.03892
18.1499
19.5073