/*--------------------------------*- C++ -*----------------------------------*\
| =========                 |                                                 |
| \\      /  F ield         | OpenFOAM: The Open Source CFD Toolbox           |
|  \\    /   O peration     | Version:  5.x                                   |
|   \\  /    A nd           | Web:      www.OpenFOAM.org                      |
|    \\/     M anipulation  |                                                 |
\*---------------------------------------------------------------------------*/
FoamFile
{
    version     2.0;
    format      ascii;
    class       volScalarField;
    location    "0.35";
    object      voidfraction;
}
// * * * * * * * * * * * * * * * * * * * * * * * * * * * * * * * * * * * * * //

dimensions      [0 0 0 0 0 0 0];

internalField   nonuniform List<scalar> 
10571
(
0.985945
0.96235
0.938606
0.975638
0.938424
0.957672
0.951315
0.961593
0.93123
0.92003
0.985199
0.983423
0.935864
0.928465
0.906886
0.898754
0.947057
0.919457
0.925192
0.899299
0.865053
0.963145
0.940172
0.917622
0.990031
0.987721
0.989961
0.992954
0.998377
0.997295
0.992483
0.996944
0.996961
0.996066
0.994104
0.99604
0.997732
0.995205
0.993483
0.993922
0.997424
0.994015
0.995989
0.999185
0.984808
0.992904
0.994583
1
0.988841
0.993737
0.995043
0.99716
0.998105
0.993512
0.989347
0.998766
0.997196
0.994697
0.996827
0.996134
0.997688
0.998098
0.995094
0.991379
0.991143
0.995501
0.99791
0.997032
0.990001
0.992664
0.995095
0.998611
0.994726
0.991608
0.994895
0.996267
0.99883
0.993036
0.9991
0.998626
0.997326
1
0.987252
0.99667
0.99851
0.997829
0.995721
0.988143
0.988629
0.995674
0.996625
0.993912
0.983343
0.992843
0.997437
0.9979
0.989996
0.981072
0.995079
0.99804
0.993858
0.99443
0.9987
0.999064
0.998438
0.996531
0.994722
0.99902
0.997929
0.998259
0.995691
0.991005
0.98987
0.995093
0.997688
0.997285
0.986112
0.996206
0.995713
0.996285
1
0.981685
0.997976
0.996072
0.992993
0.997094
0.996951
0.998034
0.997539
0.996225
0.700109
1
0.997058
0.998063
0.997507
0.993962
0.988194
0.497679
0.990888
0.994305
0.996196
0.996923
0.985561
0.989739
0.993658
0.996634
0.994503
0.986389
0.99838
0.998036
0.995994
0.99804
0.996288
0.998318
0.996985
0.995901
1
0.993622
0.998782
0.998337
0.998205
0.995381
0.992122
1
0.993835
0.996082
0.995793
0.995204
0.98234
1
0.983428
0.996406
0.995944
0.996812
0.996807
0.998076
0.996614
0.995283
0.998614
0.998522
0.997107
0.997353
0.993252
1
1
0.996617
0.998159
0.997309
0.996823
0.985914
1
0.997293
0.99501
0.995419
0.994942
0.985721
1
0.99334
0.992662
0.995881
0.996812
0.986725
0.996996
0.994582
0.996654
0.998412
0.998227
0.996934
0.997576
0.993378
1
0.992852
0.998275
0.998383
0.998518
0.994822
0.992304
1
0.994165
0.994824
0.995812
0.998233
0.991917
0.984976
0.995319
0.99923
0.991535
0.985214
0.99774
0.997124
0.996056
0.997669
0.997078
0.997115
0.997829
0.995057
1
0.998376
0.998772
0.998496
0.99557
0.99451
0.999128
0.99672
0.99691
0.995261
0.987069
0.991172
0.988615
0.998599
0.996812
0.998152
0.995279
0.995403
0.997085
0.996723
0.99833
0.99806
0.997549
0.995912
1
0.998715
0.998582
0.998637
0.995455
0.987659
0.995099
0.99705
0.997119
0.991547
0.987444
0.990437
0.992814
0.99804
0.997471
0.993168
0.998483
0.993749
0.994984
0.99544
0.997313
0.996064
0.997396
0.996591
1
0.998918
0.998995
0.997765
0.995033
0.979543
1
0.997779
0.996353
0.998265
0.997902
0.985559
0.996346
0.99797
0.986696
0.997984
0.997707
0.997061
0.989936
0.995812
0.997386
0.996703
0.997109
0.992713
1
0.997465
0.998577
0.998281
0.994748
0.987182
0.994889
0.996362
0.996944
0.998064
0.99216
0.997522
0.994927
0.996779
0.997031
0.999832
0.997472
0.998615
0.993601
0.993955
0.996848
0.998246
0.997141
0.99089
0.997911
0.99902
0.999061
0.99832
0.994877
0.979351
0.997144
0.99679
0.997146
0.997997
0.990338
0.990166
0.998309
0.99902
0.997251
0.996808
0.999056
0.998682
0.992429
0.996082
0.998741
0.998047
0.996931
0.991704
0.993733
0.998986
0.998365
0.998087
0.99251
0.985549
0.994047
0.996524
0.996822
0.999933
0.993559
0.996283
0.994233
1
0.991424
0.996752
0.99673
0.999358
0.994803
0.998413
0.995933
0.998902
0.997686
0.995658
1
0.999797
0.999227
0.998021
0.993653
0.991051
0.99564
0.995918
0.998302
0.995693
0.991739
0.992025
0.99997
0.99797
1
0.996752
0.998382
1
0.998858
0.996286
0.99876
0.998334
0.997427
0.995696
0.994832
0.998986
0.998165
0.997414
0.994317
0.989538
0.993897
0.996729
0.997841
0.998064
0.986555
0.996361
0.999154
0.998319
1
0.99524
0.994371
0.996487
0.998288
0.996691
0.998665
0.994804
0.996297
0.990811
0.994942
0.997938
0.998588
0.998401
0.994857
0.990415
0.996423
0.994969
0.998476
0.998064
0.98761
0.996439
0.999909
0.99797
0.996812
0.99468
0.996124
0.998987
0.997687
0.996151
0.998894
0.995683
0.99662
0.995233
0.996152
0.997736
0.998623
0.997719
0.994492
0.9854
0.997505
0.996301
0.998779
0.99753
0.99055
0.995742
0.999124
0.99391
0.998571
0.982977
0.998079
0.997061
0.996846
0.998379
0.997257
0.997601
0.995949
0.990388
1
0.99804
0.998692
0.997015
0.991898
0.990388
0.9948
0.997347
0.998326
0.997864
0.98894
0.997329
0.99843
1
0.993623
0.994289
0.997067
0.996589
0.998138
0.998683
0.999264
0.997809
0.994992
0.990735
0.99934
0.998243
0.998942
0.997619
0.991322
0.979747
0.999128
0.996233
0.998718
0.997997
0.99293
0.99547
0.998762
0.99622
0.99934
0.995464
0.999022
0.994157
0.998828
0.997096
0.999077
0.998615
0.993268
0.993487
1
0.99902
0.998638
0.997197
0.992883
0.983586
1
0.996778
0.996992
0.996128
0.98915
0.994231
0.998551
1
1
0.995632
0.997876
0.998818
0.9997
0.998987
0.999115
0.996623
0.993421
0.996434
1
0.99902
0.998996
0.997894
0.990657
0.987607
0.99492
0.995284
0.995464
0.99743
0.98775
0.990283
0.996558
1
0.997911
0.993001
0.988471
0.998379
0.997387
0.998379
0.998871
0.997605
0.99582
0.995504
0.993843
0.999054
0.998354
0.997332
0.988907
0.983526
0.99976
0.996758
0.997045
0.998932
0.99818
0.995044
0.997645
0.99601
0.997471
0.994513
0.996359
0.999966
0.997897
0.997974
0.999336
0.998008
0.995727
0.994728
1
0.998175
0.998504
0.997499
0.989174
0.984765
0.997114
0.997428
0.996438
0.998698
0.98943
0.994735
0.99997
0.99804
0.996811
0.992161
0.992079
0.999932
1
0.998818
0.999138
0.998035
0.995901
0.9981
0.994721
0.999054
0.998519
0.997042
0.987293
0.987244
0.995882
0.997117
0.997841
0.997096
0.98971
0.982693
0.99997
1
1
0.991882
0.99673
0.999966
0.994954
0.997603
0.999275
0.997655
0.995869
0.995464
0.990546
1
0.998261
0.99729
0.982146
0.982286
0.996723
0.9974
0.998532
0.996628
0.99118
0.988309
0.997675
0.99797
0.984165
0.98813
0.999022
0.999662
0.995945
0.998953
0.998546
0.997997
0.994827
0.994767
0.996812
1
0.997854
0.997607
0.982551
0.982286
0.99982
0.996011
0.998799
0.99556
0.98915
0.993342
0.997675
0.99993
0.993623
0.990257
0.99609
0.999392
0.998558
0.999291
0.998947
0.998208
0.995756
0.993294
1
0.998074
0.998923
0.997228
0.982997
0.978992
0.998978
0.995732
0.999438
0.99773
0.99062
0.998452
0.999698
0.99587
0.997472
0.992889
0.998247
0.99902
0.998198
0.999021
0.998955
0.997885
0.992731
0.99368
0.996812
0.999223
0.998104
0.997634
0.986738
0.976906
0.998226
0.995736
0.998807
0.99803
0.99566
0.993071
0.998249
0.99804
0.996371
0.992664
0.995045
0.996487
0.997957
1
0.998489
0.99612
0.993171
0.994727
1
0.99902
0.998408
0.996291
0.983443
0.978899
0.998256
0.997157
0.997967
0.995994
0.993
0.992296
0.997917
0.9923
1
0.990928
0.994472
0.996993
0.996695
0.998042
0.993419
0.997548
0.993918
0.993292
1
0.999966
0.998542
0.996322
0.982628
0.981652
0.997925
0.997573
0.998423
0.998064
0.98796
0.994116
0.995109
0.99559
1
0.988522
0.998045
0.996318
0.999069
1
0.996669
0.996496
0.99013
0.991044
0.993624
1
0.999081
0.995903
0.979941
0.970558
0.999128
0.998147
0.998351
0.993224
0.99286
0.99129
0.998822
0.99958
0.996811
0.991431
0.998011
1
0.996154
0.997501
0.996551
0.996761
0.991358
0.992866
1
1
0.999362
0.996496
0.982138
0.98138
0.998948
0.997703
0.99808
0.993324
0.99293
0.989121
0.996225
0.99804
0.996152
0.994288
0.993696
1
0.996575
1
0.993907
0.995214
0.993575
0.993641
1
0.998783
0.999077
0.997572
0.982798
0.971979
1
0.99763
0.998229
0.995493
0.99664
0.993534
0.999124
0.99587
0.996812
0.995016
0.998888
0.999358
0.998257
1
0.997936
0.997394
0.993878
0.993951
0.994723
0.99804
0.998211
0.99703
0.97958
0.970434
0.999158
0.99761
0.997667
0.994025
0.99125
0.987767
0.997373
0.99727
0.996811
0.995239
0.991539
0.996082
1
1
0.990931
0.997513
0.992141
0.999031
0.996812
0.99902
0.999519
0.997859
0.978324
0.969129
0.998256
0.997448
0.998407
0.995026
0.989219
0.989546
0.997252
0.99797
1
0.992105
0.998045
0.997703
0.998257
0.999966
0.993926
0.998342
0.990833
0.99779
0.998131
1
0.999462
0.998544
0.975677
0.96916
0.99997
0.997331
0.997526
0.996896
0.995029
0.990206
0.99692
0.99671
1
0.991321
0.997404
0.997973
0.999129
0.9974
0.992389
0.996822
0.990885
0.997751
1
1
0.999423
0.998292
0.972175
0.96729
0.997234
0.995017
0.997316
0.993357
0.99272
0.995547
0.997252
0.99566
1
0.991823
0.995415
0.996656
0.999429
0.996657
0.995361
0.995617
0.991135
0.995504
0.996811
0.99831
0.998027
0.997367
0.974015
0.985339
0.998256
0.995159
0.997518
0.996662
0.98348
0.989432
0.999124
0.99755
1
0.990929
0.999022
0.99902
0.998288
0.994361
0.999256
0.99366
0.992484
0.995465
1
0.998242
0.997961
0.996585
0.967559
0.985793
0.998256
0.996423
0.997704
0.993257
0.97998
0.991792
0.996528
0.99552
1
0.987065
0.998247
0.996082
0.996456
0.99588
0.998943
0.99599
0.993001
0.997752
0.99901
1
0.998554
0.996306
0.970744
0.990267
0.997595
0.995474
0.998395
0.989552
0.97669
0.997406
0.997675
0.99041
1
0.999944
0.997
0.99902
0.993842
0.996792
0.999367
0.9949
0.992702
0.998101
0.99989
1
0.99855
0.997073
0.964186
0.989843
0.999128
0.995655
0.99732
0.993591
0.98544
0.992025
0.999064
0.99454
1
0.992105
0.998989
0.996048
0.994894
0.996691
0.999203
0.991365
0.992319
0.998643
1
0.99902
0.999131
0.995663
0.962006
0.990357
0.999128
0.99509
0.996992
0.987448
0.98586
0.997367
1
0.99755
1
0.996752
0.998989
0.999797
0.995945
0.996083
0.999798
0.991496
0.99204
0.998876
1
1
0.998485
0.995323
0.963894
0.984793
1
0.996524
0.997211
0.99289
0.981658
0.996709
0.99704
0.988729
1
0.998376
0.998989
0.999966
0.995825
0.999055
0.997715
0.993107
0.993983
0.997751
1
0.999831
0.996342
0.99444
0.957803
0.986938
0.999309
0.99593
0.996358
0.995927
0.961425
0.998219
0.999124
0.99804
1
1
0.997404
0.996386
0.997417
0.998041
0.998104
0.994608
0.99202
0.999961
1
1
0.994842
0.994676
0.954669
0.98461
0.999669
0.996402
0.995432
0.992089
0.971857
0.997561
0.995682
0.99391
1
0.998376
0.998044
0.998986
0.996334
0.9974
0.998081
0.99333
0.988886
0.998488
1
1
0.99333
0.993755
0.940495
0.991927
0.997325
0.997299
0.993657
0.99062
0.971853
0.997018
0.997343
0.99006
0.996811
0.996191
0.997876
0.996013
0.997536
0.998649
0.998237
0.995376
0.988187
0.996859
1
1
0.995169
0.992275
0.933706
0.990294
0.999279
0.997194
0.991595
0.981106
0.965766
0.99667
0.995319
0.995659
1
1
0.99791
0.998987
0.999129
0.997636
0.998726
0.994485
0.989536
0.998876
1
0.999561
0.996581
0.992895
0.917113
0.984674
0.996814
0.994335
0.991624
0.99102
0.96458
0.995083
0.996074
0.984528
1
0.998376
0.99727
0.997129
0.995343
0.99767
0.998379
0.991783
0.990481
0.996627
0.9989
0.980669
0.99835
0.991242
0.897211
0.988362
0.995791
0.994747
0.993746
0.988316
0.96346
0.98676
0.989825
0.98859
1
1
0.997169
0.997028
0.997386
0.999932
0.997791
0.994408
0.989766
1
0.997691
0.99902
0.997619
0.99075
0.87787
0.9867
0.999128
0.995522
0.993714
0.982174
0.95926
0.988076
0.988346
0.99566
1
1
0.99882
0.996014
0.996155
0.995475
0.996875
0.992985
0.990833
1
1
0.998952
0.996958
0.990711
0.852825
0.990811
0.999128
0.996039
0.994041
0.978669
0.94127
0.991483
0.989885
0.992649
1
1
0.997438
0.998345
0.997987
0.999358
0.99736
0.992754
0.993817
1
1
0.998817
0.998285
0.990436
0.834809
0.990176
0.999339
0.997279
0.992331
0.974163
0.94358
0.989973
0.992512
0.989849
1
1
0.997405
0.998041
0.995825
0.998886
0.997509
0.99384
0.993417
0.997713
1
0.99804
0.998642
0.9902
0.82365
0.979596
0.999128
0.997283
0.993269
0.967253
0.94176
0.994387
0.994173
0.99699
0.996812
0.998376
0.999022
0.998379
0.994713
0.999055
0.9972
0.99546
0.99061
0.996705
1
0.998952
0.995027
0.989534
0.816189
0.976996
0.997445
0.996701
0.993706
0.953132
0.93847
0.989549
0.993871
0.98593
1
0.996752
0.999124
0.99902
0.996185
0.999966
0.998195
0.996227
0.984573
0.993991
1
0.999966
0.996123
0.986727
0.771746
0.938934
0.997986
0.993798
0.991712
0.924858
0.920873
0.988852
0.992573
0.97494
0.996812
0.998376
0.992888
0.997737
0.998167
0.99794
0.998657
0.99191
0.974451
0.993914
0.997691
0.998006
0.996769
0.975747
0.805936
0.547599
0.997505
0.995563
0.989849
0.916006
0.938526
0.996245
0.988135
0.97066
0.996811
0.994176
0.99673
0.997028
0.996906
0.999021
0.997821
0.985103
0.983735
0.955935
0.996811
1
0.996
0.954774
0.858517
0.69463
0.997685
0.990543
0.980099
0.927931
0.895898
0.995123
0.983995
0.981654
0.991532
0.998768
0.995516
0.995676
0.994924
0.996048
0.9965
0.988057
0.987081
0.925824
0.996811
0.997194
0.994217
0.92004
0.878883
0.750624
0.996151
0.96309
0.978709
0.956383
0.858914
0.975682
0.985866
0.968494
0.975258
0.992999
0.99049
0.997297
0.992132
0.997196
0.990802
0.986397
0.980191
0.951501
0.99857
0.993339
0.976061
0.893883
0.940427
0.85172
0.990407
0.956937
0.985775
0.989988
0.712657
0.912758
0.990639
0.972631
0.964264
0.977821
0.986575
0.98874
0.986286
0.991587
0.952594
0.96946
0.978739
0.965602
0.996811
0.998039
0.95436
0.908161
0.988982
0.856121
0.975131
0.962866
0.989338
0.998426
0.633688
0.983852
0.995017
0.987818
0.976583
0.888762
0.986842
0.962857
0.981214
0.968508
0.933183
0.933475
0.990821
0.978047
0.994061
0.997497
0.944663
0.96198
0.997138
0.944088
0.731193
0.921811
0.969166
0.994673
0.996312
0.748726
0.994036
0.994202
0.984868
0.927781
0.945609
0.992237
0.932767
0.962372
0.937957
0.914894
0.948424
0.995248
0.985164
0.969078
0.938637
0.977437
0.949743
0.99493
0.997797
0.997682
0.907164
0.990707
0.972871
0.997145
0.996018
0.769753
0.985206
0.994172
0.977532
0.990656
0.960448
0.984511
0.951703
0.940838
0.927063
0.931341
0.971028
0.997407
0.998568
0.970386
0.981085
0.995196
0.9668
0.997375
0.997149
0.999061
0.840409
0.995548
0.965213
0.996575
0.993359
0.58638
1
0.947386
0.99698
0.973804
0.99934
0.976197
0.981914
0.981059
0.879163
0.938336
0.98775
0.992031
0.997559
0.9729
1
0.996591
0.990225
0.982832
0.998258
0.993843
0.988775
0.999189
0.995248
0.960642
0.995578
0.992548
0.610956
0.967169
0.987102
0.974448
0.99978
0.763798
0.948666
0.97792
0.887071
0.990778
0.999169
0.997146
0.999038
0.91743
0.993623
0.97426
0.998261
0.997749
0.985826
0.889735
1
0.993776
0.963864
0.996467
0.996206
0.507089
0.98494
0.979885
0.972393
0.996812
0.833027
0.974038
0.959717
0.781494
0.996758
0.999461
0.997971
0.997863
0.890671
0.979219
0.979952
0.998766
0.997535
0.974941
0.82805
0.963801
0.987003
0.996415
0.98492
0.562478
0.934036
0.974544
0.995868
1
0.865846
0.993089
0.928389
0.837444
0.999662
0.999702
0.996366
0.983181
0.84106
0.944804
0.998344
0.999669
0.998083
0.966445
0.818539
0.953434
0.99586
0.997263
0.984508
0.522709
0.942671
0.982277
0.992647
1
0.994008
0.94924
0.798615
0.891705
0.966979
0.993432
0.996193
0.886738
0.643236
1
0.959011
0.997997
0.998352
0.93648
0.792064
0.968585
0.991057
0.998242
0.977367
0.574807
0.958226
0.976782
0.988377
1
1
1
0.994603
0.99054
1
0.964701
0.949806
0.767203
0.703952
1
1
0.967536
0.998938
0.801738
0.486305
1
0.956979
0.992281
0.909721
0.602551
0.978979
0.921764
0.945165
1
1
1
1
1
1
0.99789
0.948857
0.906973
0.989216
1
1
0.986123
0.886267
0.677778
0.642913
1
0.988581
0.871353
0.611421
0.597194
1
0.962528
0.709763
1
1
1
1
1
1
1
1
1
1
1
1
1
0.999891
0.999362
1
1
1
0.999864
0.996746
0.998899
1
1
1
1
1
1
1
1
1
1
1
1
1
1
1
1
1
1
1
1
1
1
1
1
1
1
1
1
1
1
1
1
1
1
1
1
1
1
1
1
1
1
1
1
1
1
1
1
1
1
1
0.487064
0.598714
0.493929
0.515475
0.607992
0.546715
0.54364
0.492018
0.509642
0.52853
0.543107
0.511146
0.528851
0.484255
0.519367
0.526627
0.534976
0.53747
0.503843
0.530759
0.518949
0.490641
0.45972
0.477792
0.455699
0.454393
0.536062
0.595334
0.546541
0.511543
0.523429
0.541325
0.538498
0.526921
0.532242
0.527952
0.502001
0.488685
0.493974
0.476006
0.491258
0.496358
0.470661
0.497684
0.482672
0.476184
0.458248
0.473251
0.654371
0.551029
0.540493
0.549857
0.526266
0.528397
0.53639
0.532068
0.489457
0.51693
0.485866
0.46273
0.4903
0.490078
0.480155
0.488565
0.476592
0.492712
0.458426
0.466056
0.451302
0.453225
0.523551
0.494588
0.513109
0.490708
0.492891
0.485924
0.49799
0.500837
0.473655
0.497493
0.486783
0.482595
0.474858
0.475279
0.446202
0.453489
0.438346
0.466688
0.509789
0.554505
0.496403
0.520535
0.478422
0.474704
0.504654
0.450533
0.955132
0.994532
0.964115
0.944474
0.965433
0.993848
0.990987
0.984274
0.979455
0.981526
1
0.988978
0.993442
0.971469
0.993087
0.950865
0.979021
0.965933
0.951211
0.952742
0.995657
0.99608
0.989581
0.994895
0.94029
0.934989
0.914635
0.990822
0.995607
0.981795
0.987017
0.91448
0.991144
0.970108
0.993824
0.988453
0.989235
0.993848
0.994257
0.921862
0.917015
0.996285
0.993523
0.994801
0.986427
0.981142
0.996924
0.992013
0.996738
0.897551
0.88158
0.987977
0.990771
0.983984
0.980359
0.996417
0.944207
0.956677
0.944084
0.994926
0.984621
0.995655
0.99296
0.875876
0.907626
0.901723
0.983699
0.991099
0.989353
0.992704
0.9829
0.963442
0.990073
0.939669
0.937295
0.98924
0.99317
0.999046
0.924531
0.976155
0.989618
0.976763
0.99682
0.979264
0.994243
0.993398
0.996891
0.995766
0.99692
0.99685
0.990361
0.996129
0.995711
0.996796
1
0.99663
1
0.99808
0.999319
0.990875
0.986599
0.994524
0.995671
0.996578
0.988867
0.988674
0.992396
0.996991
0.989821
0.996557
0.993136
0.998257
0.985104
0.999969
0.995
0.996026
0.999863
0.995324
0.984671
0.983421
0.997013
0.99924
0.990514
0.992832
0.995495
0.997193
0.989503
1
0.99597
0.998269
0.999891
0.996009
0.999962
0.992923
0.984187
0.995998
1
0.98657
0.995762
0.994142
0.999102
0.994484
0.993189
0.996454
0.998648
0.99337
0.995291
0.991384
0.995886
0.998458
0.995474
0.989441
0.995357
0.996751
0.997331
0.996819
0.990225
0.994813
0.994858
0.986079
0.990074
0.996744
0.996249
0.992823
0.995882
0.997799
0.995116
0.998768
0.979218
0.985757
1
0.981113
0.991824
0.987377
0.991943
0.98071
0.997603
1
0.991878
0.993578
1
0.998688
0.995968
0.986682
0.988196
0.991677
0.991751
0.996661
0.988169
0.988029
0.997483
0.997231
0.993101
0.998101
0.992542
0.998596
0.984875
0.998727
0.994341
0.986968
0.991911
0.979156
0.997593
0.970409
0.98959
0.978925
0.989419
0.990956
0.991787
0.993659
0.994325
0.991863
0.994248
1
0.993743
0.99427
0.996528
0.996936
0.984977
0.987872
0.992968
0.982797
0.996269
0.996245
0.995974
0.991538
0.994091
0.990673
0.999053
0.991871
0.990635
0.995938
0.99913
0.997649
0.998212
0.993623
0.996489
0.9938
0.988335
0.989874
0.992743
0.991865
0.996941
0.989727
0.988401
0.988383
0.998886
0.996832
0.995361
0.998879
0.992438
0.996647
0.987257
0.983416
0.987142
0.991653
0.986973
0.987247
0.991877
0.990649
0.990052
0.998879
0.993625
0.990131
0.995433
0.996656
1
0.996312
0.992549
0.988343
0.994114
0.997182
0.984044
0.980724
0.989789
0.992951
0.994776
0.99616
0.998549
0.996453
0.989031
0.999044
0.993694
0.998393
0.996364
0.992501
0.979339
0.990901
0.99381
0.991535
0.995914
0.996489
0.99064
0.995428
0.991448
1
0.993347
0.999923
0.996372
0.993703
0.998142
0.992408
0.985918
0.985401
1
0.978121
0.994285
0.990864
0.99721
0.993256
0.99441
0.988462
0.999045
0.983523
0.988866
0.994391
0.996203
0.996723
0.997727
0.995474
0.992726
0.996662
0.990475
0.993358
0.996502
0.992641
0.986177
0.9964
0.988191
1
0.994309
0.991554
0.994293
0.996474
0.993636
0.99965
0.991915
0.987802
0.990434
0.993654
0.992098
0.992523
0.996633
0.994549
0.993911
0.994462
0.99989
0.990697
0.996939
0.995953
0.994066
0.990388
0.997423
0.974842
0.993238
0.992454
0.992327
0.985679
0.992104
0.993913
0.994595
0.99712
0.99519
0.990741
0.996736
0.998435
0.995311
0.995773
0.998236
0.994776
0.998791
0.993884
0.99551
1
0.998819
0.993128
0.992902
0.99884
0.991817
0.952972
0.999394
0.997754
1
0.998213
1
0.988177
0.988592
0.982608
0.944765
0.99002
0.992606
0.993512
0.995584
0.994207
0.992403
0.993565
0.997361
0.9892
0.99776
0.996193
1
0.994508
0.995284
0.995826
0.998228
0.990385
0.988474
0.995452
0.994892
0.989763
0.984635
0.990436
0.990301
0.980573
0.995348
0.99989
0.991542
0.997284
0.99133
0.999299
0.983828
0.998676
0.988344
0.997755
0.996002
0.993623
0.995123
0.996789
0.998212
0.99407
1
0.995878
0.997248
0.997975
0.993652
0.995054
0.991013
0.984928
0.992788
0.994139
0.989694
0.986005
0.991118
0.992834
0.996759
0.997593
0.996859
0.994443
0.997468
0.997538
0.993177
0.996772
0.996505
0.997484
0.996811
0.99685
0.999458
1
0.996426
0.962654
0.992254
0.859158
0.996962
0.99775
0.996575
0.999004
0.475031
0.51878
0.397079
0.999625
0.974939
0.993672
0.924264
0.998818
0.996244
1
0.999121
0.99361
0.855729
0.980158
0.96274
0.994956
0.994678
0.985041
0.996065
0.383998
0.698614
0.468911
0.992883
0.910251
0.99951
0.966993
0.982908
0.987931
0.99294
0.996737
0.993552
0.997684
0.992375
0.987455
0.988858
0.99085
0.995776
0.99388
0.997002
0.987981
0.99247
0.99812
0.989697
0.986356
0.990554
0.985953
0.987269
0.990242
0.990632
0.984086
0.998176
0.994184
0.995015
0.995264
0.997915
1
0.993308
0.982991
0.998021
0.996671
0.99473
0.992524
0.994271
0.994124
0.996787
0.995894
0.996812
0.996485
0.996206
0.996657
1
0.982584
0.993242
0.9899
0.988764
0.989804
0.981011
0.990559
0.99076
0.996188
0.998052
0.997405
0.995416
0.996513
0.998384
0.995215
0.998803
0.994603
1
0.998605
1
1
1
1
1
0.993458
1
0.998849
0.997561
0.996701
0.994729
0.999118
0.993145
1
0.997123
0.998
0.997181
0.999088
1
1
1
1
1
0.999254
1
0.996485
0.990318
1
0.996758
0.995043
0.996214
0.979163
0.997128
0.99193
0.997927
0.984544
0.994255
1
0.999285
1
0.999945
1
1
1
0.995744
0.990582
0.998086
0.994037
0.993551
0.995849
0.999076
0.995668
0.995761
0.994387
0.996095
0.991037
0.996095
0.990391
0.989959
0.995295
1
0.987228
0.999068
1
1
1
0.981668
0.981318
0.991752
0.993635
0.991172
0.985981
0.98705
1
0.983539
0.997856
0.996392
0.996818
0.996019
0.989055
0.978251
1
0.995974
0.994124
1
0.99609
0.995608
0.999121
0.996632
0.994284
0.999818
0.999264
0.994019
0.995894
0.995541
0.993939
0.987173
0.989598
0.992638
0.992214
0.988642
0.994069
0.988175
0.997577
0.99616
0.996731
1
0.995303
1
0.996577
0.997067
0.999606
0.994105
1
1
1
1
1
0.998065
0.996921
0.995607
0.996632
1
0.998243
0.998365
0.99515
0.996794
0.99378
0.999131
0.990442
0.998116
1
1
1
1
1
1
1
1
0.998877
1
0.998212
0.998877
0.996987
0.98657
0.996252
0.990981
0.993217
0.985164
0.998625
1
1
1
1
1
1
1
0.995256
0.997907
0.995577
0.998369
0.994459
0.995278
0.998317
0.993981
0.996064
0.990953
0.997233
0.993623
0.995176
0.994253
0.998568
0.994958
0.998576
0.992009
1
1
1
1
0.993353
0.989715
0.987523
0.987379
0.981298
0.989577
0.986172
0.998487
0.988808
0.989914
0.996392
0.981565
0.996785
0.980133
0.984455
1
0.993845
0.995942
0.996811
0.990323
0.995911
0.997333
0.99694
0.997911
0.997939
0.998915
0.990522
0.996094
0.997422
0.993521
0.986814
0.987452
0.994886
0.983477
0.988044
0.996752
0.994008
0.996928
1
0.995058
0.997197
0.999443
0.999033
0.997562
0.987507
0.995169
0.994039
1
0.998243
0.994503
1
0.99897
1
0.991791
0.998602
0.996557
0.998114
0.99026
0.998241
1
1
1
1
1
1
1
0.997303
0.995275
1
0.985758
0.996166
0.993151
0.986345
1
0.986524
0.994197
0.989922
0.998829
1
1
1
1
1
1
1
0.999791
1
0.994851
0.992293
0.991734
0.997293
0.997162
0.999887
0.992673
0.995272
0.997495
0.994652
0.996052
0.994303
0.998992
0.993955
0.991209
0.980689
0.983418
0.986313
0.984087
0.983854
0.984079
0.990342
0.997401
0.993416
0.985353
0.998138
0.982771
0.996567
0.986059
0.987872
0.996811
0.99133
0.998243
0.997911
0.99137
0.999122
0.994455
0.996824
0.998461
0.995577
0.997754
0.997977
0.995955
0.997562
0.992338
0.997843
0.992609
0.997167
0.996696
0.994757
0.991031
0.99733
0.999215
1
0.998574
0.997294
0.998877
0.999041
0.997572
0.994489
0.993724
0.992491
0.996811
0.997516
0.996323
0.996701
0.990338
0.989405
0.995845
0.996194
0.991096
0.989008
0.99397
0.998645
0.996701
0.997455
0.997405
0.982135
0.984751
0.988398
0.98234
0.987513
0.996093
1
0.995578
0.9919
0.994005
0.997083
0.998384
0.996625
0.991493
0.991897
0.996798
1
0.997891
0.99535
0.993517
0.988705
0.988328
0.992444
0.989925
0.986375
0.992647
0.987378
0.990455
0.989574
0.99651
0.992428
0.993206
0.999031
0.99594
0.990055
0.991776
0.998118
0.9989
0.991835
0.998546
1
0.984637
0.987979
0.997334
0.997368
1
0.998243
0.994194
0.995957
0.997281
0.983491
0.987601
0.996255
0.992342
0.994108
0.991712
0.995507
0.996156
0.99808
0.995394
1
0.999122
0.998258
0.998034
0.99888
0.996433
0.995331
0.992115
0.985176
0.996921
0.986007
0.988427
0.993622
0.987855
0.994143
0.99117
0.997714
0.987507
0.987363
0.997819
0.997599
1
0.998546
0.998838
0.982246
0.98806
0.983166
0.985619
0.988235
0.99986
1
0.996437
0.990663
0.995277
0.998316
0.999011
0.995444
0.99443
0.995454
0.986529
0.993957
0.996596
0.991131
0.997264
0.994917
0.994343
0.990625
0.994683
0.99266
0.987159
0.991405
0.989489
0.996817
0.992988
0.998793
0.992451
0.99663
0.988368
0.99916
0.997979
0.997979
0.993623
0.993112
0.984073
0.993842
0.993964
0.989917
0.995426
0.996246
0.995492
0.99579
0.996671
0.997909
0.996724
0.989134
0.994497
0.997214
0.992849
0.992288
0.994232
0.995956
0.996842
0.998991
1
0.998024
0.997702
0.994924
0.998034
0.997332
0.99749
0.993223
0.997693
0.987615
1
0.991126
0.990673
0.993622
0.994821
0.989475
0.98284
0.995001
0.987809
0.968755
0.995334
0.99698
0.993512
0.997395
0.994734
0.977693
0.988084
0.986974
0.981096
0.994466
0.993931
0.997977
0.997922
0.993476
0.994158
0.999128
0.998219
0.999944
0.992826
0.999116
0.995957
0.998249
0.999032
0.996432
0.998389
1
0.992233
0.989156
0.991884
0.995621
0.992537
0.991947
0.995983
0.994732
0.998838
0.989684
0.992421
0.994384
0.998903
0.99727
0.992473
0.995958
0.996152
0.995744
0.989947
0.991094
0.993616
0.992642
0.99788
0.999265
0.993623
0.996487
0.999574
0.986893
0.979434
0.997283
0.997214
0.995896
0.998868
0.996583
0.99468
0.995537
0.99568
0.997755
0.993144
1
0.995583
0.99291
0.995055
0.999044
0.999123
0.997972
0.991885
0.993846
0.988125
0.991884
0.995549
0.99912
0.99997
0.990136
0.987347
0.990503
0.990649
0.989438
1
0.997483
1
0.996304
0.994618
0.985272
0.992877
0.980228
0.982854
0.98281
0.989676
0.987026
0.995021
0.994544
0.991767
0.992574
0.998219
0.992576
0.995187
0.99881
0.997294
0.996496
0.99803
0.996156
0.99626
0.996383
0.987258
0.990765
0.991885
0.993778
0.995061
0.99036
0.995983
0.995281
0.996127
0.994293
0.992723
0.992951
0.991769
0.99958
0.996027
1
0.995932
0.996982
0.992097
1
0.997911
0.996155
0.997638
0.99342
0.992743
0.998455
1
0.988845
0.988218
0.99394
0.99596
0.997873
0.998957
0.997787
0.997312
0.995657
0.997408
0.999382
0.994043
0.998913
0.994705
0.992579
0.992413
0.997594
0.99764
0.990765
0.989996
0.994543
0.997801
0.99464
0.994079
0.997911
0.998092
0.98142
0.99769
0.987866
0.989983
0.986908
0.999121
0.989119
0.99989
0.996728
0.9885
0.989119
0.992799
0.988027
0.984613
0.981144
0.99435
0.996652
0.997923
0.991057
0.992402
0.992935
0.994988
0.989764
0.991736
0.992709
0.995774
0.991805
0.998063
0.995607
0.997659
0.994631
0.997059
0.995942
0.996152
0.996708
0.993634
0.99911
0.994956
1
0.993454
0.99989
0.996195
0.996475
0.996817
0.996289
1
0.998606
1
0.997601
0.998153
0.996811
0.995666
0.997608
0.998455
0.999613
1
0.999122
0.995974
0.993935
0.997839
0.99798
1
0.997424
0.999136
0.995965
0.996696
0.997664
0.999136
0.994892
0.993931
0.996211
0.993798
0.99276
0.993537
0.998715
0.997973
0.985169
0.994613
0.995781
1
0.998395
0.99733
1
0.998577
0.994039
0.986688
0.991161
0.993433
0.99659
0.996334
0.989506
1
0.998637
0.984163
0.994395
0.977931
0.9831
0.98879
0.980913
0.996652
0.990862
0.994757
0.989539
0.995066
0.996452
0.995252
0.991845
0.991252
0.992435
0.995743
0.996779
0.998898
0.998353
0.99778
0.996666
0.987398
0.993983
0.997272
0.99707
0.99572
0.995509
0.998852
0.997915
0.99543
0.996817
0.997041
0.998877
0.996817
1
0.995958
0.997979
1
0.994389
0.998244
0.996811
0.995976
0.996972
0.996214
0.997832
0.998901
0.998788
0.999652
0.997072
0.991285
0.992686
0.997214
0.996525
0.999136
0.998438
0.995128
0.997394
0.995978
1
0.995111
0.995551
0.996793
0.997777
0.998202
0.998715
0.998729
0.994613
0.994823
0.994001
0.996811
0.998244
0.997523
1
0.997365
0.991103
0.984158
0.997364
0.99074
1
0.99588
0.992565
0.995602
0.996516
0.997018
0.992527
0.978589
0.986184
0.989779
0.992063
0.996861
0.997628
0.999373
0.992857
0.993613
0.992183
0.998153
0.998369
0.997215
0.998139
0.998723
0.993444
1
0.995333
0.99626
0.994066
0.987118
0.995942
0.996642
0.996195
0.996817
0.993457
0.997674
0.996817
0.997018
0.993744
0.998218
0.997366
1
0.996709
1
0.996306
0.996811
0.996479
0.996609
0.996812
0.997756
0.997184
0.997395
0.997755
1
0.998879
0.995278
0.997281
0.997979
1
1
0.995717
0.993714
0.998926
0.993168
0.999011
0.999315
0.99808
0.9923
0.997133
0.997549
0.995885
0.996573
0.99967
0.991469
0.995522
0.994754
0.99791
0.996921
0.997365
0.996362
0.99945
0.996729
0.995612
1
0.997713
0.99534
0.988339
0.997486
0.994696
0.997251
0.994576
0.995934
0.990658
0.986989
0.983857
0.994835
0.981806
0.995954
0.997908
0.997132
0.993982
0.996792
0.998196
0.998384
0.994657
0.994793
0.993105
0.997719
0.992821
0.997095
0.996218
0.999027
0.990111
0.99391
0.995872
0.995313
0.993295
0.99989
0.996322
0.995409
0.996708
0.998838
0.996927
0.998551
0.998838
0.996818
0.99797
0.998467
0.996027
1
0.997717
0.996973
0.993621
0.995433
0.995003
0.999697
0.992569
1
0.998394
0.993341
0.996096
0.999233
0.996587
0.995333
0.997095
0.998272
0.999675
0.993336
0.991403
0.997646
0.997559
0.995953
0.998418
0.996944
0.997987
0.996629
0.997232
0.996339
0.995102
0.997972
0.997755
0.994063
0.997366
0.997755
0.993622
0.996486
0.98968
0.992519
0.996589
0.995582
0.988229
0.990761
0.99938
0.987245
0.996182
0.997832
0.983843
0.98703
0.981106
0.981428
0.997251
0.997977
0.995954
0.997264
0.996344
0.99207
0.998827
0.995778
0.996175
0.993582
0.997102
0.997294
0.993558
0.999032
0.995118
0.998419
0.990843
0.996639
0.993214
0.993213
0.997373
0.993745
0.990242
0.997946
1
0.997754
1
0.999094
0.997831
0.99989
1
0.994774
0.996166
0.996812
0.999265
0.998244
1
0.995782
0.9947
0.997184
0.995511
0.997471
0.998455
0.994386
0.997979
0.998466
0.998328
0.994218
0.993202
0.996276
0.997495
0.996752
0.994757
0.994756
0.996485
0.994438
0.998616
0.997247