/*--------------------------------*- C++ -*----------------------------------*\
| =========                 |                                                 |
| \\      /  F ield         | OpenFOAM: The Open Source CFD Toolbox           |
|  \\    /   O peration     | Version:  5.x                                   |
|   \\  /    A nd           | Web:      www.OpenFOAM.org                      |
|    \\/     M anipulation  |                                                 |
\*---------------------------------------------------------------------------*/
FoamFile
{
    version     2.0;
    format      ascii;
    class       volScalarField;
    location    "1";
    object      p;
}
// * * * * * * * * * * * * * * * * * * * * * * * * * * * * * * * * * * * * * //

dimensions      [0 2 -2 0 0 0 0];

internalField   nonuniform List<scalar> 
10571
(
191.509
139.97
137.694
196.901
198.026
139.383
149.942
201.853
200.019
203.192
143.129
144.989
182.281
203.755
205.582
208.76
184.698
199.635
207.602
210.051
208.982
206.794
211.528
210.966
127.938
136.255
135.275
154.839
183.138
133.675
121.647
179.544
170.048
160.692
113.211
129.741
132.993
173.346
164.551
163.271
121.646
139.282
161.572
179.21
168.148
159.887
169.318
173.751
18.2007
115.132
62.996
53.6855
105.92
101.876
8.9476
17.7564
12.7004
44.3266
4.82043
8.05239
8.71665
15.4404
19.0274
58.9536
9.16555
9.59553
29.4585
79.6097
74.6635
45.5129
74.4257
87.2363
6.33332
4.95663
5.25322
5.98265
6.7045
2.50456
4.70831
5.69707
4.66397
5.16989
6.92585
7.16662
5.74575
5.34235
5.44789
5.77447
6.68225
5.38846
5.68098
8.52197
16.0126
6.02518
7.38421
24.5052
6.54771
7.23228
6.62331
6.47531
6.64224
6.71361
7.11435
6.94201
7.27929
6.59931
6.7533
6.8254
7.17821
7.07875
7.12543
6.6787
6.58807
6.88862
7.0669
6.7798
6.75253
6.54532
6.68799
6.67099
6.57636
6.63899
6.64259
6.5184
6.54524
6.55516
6.61874
6.69794
6.60431
6.59778
6.61676
6.71229
6.82315
6.69513
6.74213
6.75178
6.65506
6.61834
6.63385
6.56234
6.66905
6.62485
6.65258
6.59162
6.61307
6.65144
6.67462
6.75246
6.70708
6.61326
6.61741
6.66528
6.59888
6.63232
6.5474
6.59717
6.62514
6.60864
6.67206
6.68818
6.74064
6.75273
6.64341
6.63075
6.61839
6.53876
6.59079
6.62178
6.66784
6.63914
6.57788
6.59396
6.638
6.73974
6.68158
6.69589
6.66165
6.68053
6.64428
6.6581
6.63689
6.66087
6.61107
6.61196
6.63214
6.66204
6.6641
6.69392
6.66779
6.64314
6.61992
6.58448
6.5643
6.55099
6.64119
6.65624
6.636
6.56694
6.55294
6.63502
6.75779
6.66175
6.66811
6.66404
6.69423
6.62725
6.60344
6.63594
6.68413
6.60452
6.59779
6.66756
6.67233
6.63158
6.6403
6.6298
6.634
6.63181
6.54785
6.55525
6.55278
6.64117
6.63953
6.5571
6.54683
6.63708
6.73902
6.63799
6.62877
6.64042
6.64609
6.62066
6.47941
6.60368
6.62248
6.59153
6.64704
6.62463
6.51225
6.58429
6.58486
6.62828
6.547
6.50329
6.55277
6.63329
6.64288
6.55555
6.55914
6.64686
6.71359
6.62703
6.61401
6.61195
6.61939
6.60858
6.43322
6.55134
6.57964
6.58988
6.59516
6.54425
6.43459
6.54446
6.57332
6.62317
6.50156
6.49739
6.56523
6.63918
6.65137
6.55234
6.57238
6.67347
6.69888
6.65143
6.63062
6.6053
6.63477
6.6178
6.52677
6.54272
6.58706
6.60014
6.57304
6.49212
6.46499
6.556
6.61526
6.64124
6.48439
6.52892
6.60292
6.6703
6.66895
6.57049
6.60065
6.71706
6.6994
6.67867
6.63921
6.62211
6.67158
6.66206
6.63407
6.57635
6.61674
6.62145
6.65176
6.56425
6.5187
6.6048
6.66336
6.66623
6.57589
6.58828
6.65982
6.71386
6.69765
6.623
6.65605
6.76404
6.70944
6.72112
6.65182
6.64285
6.70975
6.73681
6.74273
6.6345
6.65988
6.65585
6.78881
6.71686
6.58079
6.65549
6.69967
6.69528
6.73005
6.67559
6.71539
6.74421
6.72552
6.71888
6.72776
6.78805
6.72587
6.75503
6.66355
6.67047
6.7288
6.80611
6.85114
6.69641
6.718
6.71739
6.88377
6.83548
6.6566
6.70372
6.72368
6.72689
6.86703
6.74558
6.75435
6.76536
6.75319
6.78346
6.78214
6.79707
6.74749
6.78724
6.71258
6.71118
6.75138
6.8626
6.93502
6.7432
6.76703
6.77834
6.94065
6.93273
6.76533
6.73949
6.74398
6.75328
6.906
6.78326
6.77002
6.77984
6.7743
6.80437
6.79692
6.79871
6.78538
6.83134
6.78517
6.76875
6.77837
6.89382
6.94165
6.77818
6.78603
6.80643
6.9498
6.95154
6.79133
6.75566
6.76301
6.77494
6.86324
6.78908
6.77846
6.78904
6.78756
6.79967
6.79648
6.79835
6.82517
6.83339
6.82012
6.81483
6.79786
6.84911
6.84638
6.78001
6.77464
6.80426
6.84457
6.86484
6.76663
6.7651
6.78118
6.79155
6.77087
6.7677
6.78229
6.79468
6.79656
6.79615
6.7957
6.8009
6.83707
6.81166
6.81896
6.83303
6.82263
6.76167
6.76102
6.77059
6.78347
6.80571
6.67953
6.70939
6.71322
6.76759
6.79337
6.80331
6.62128
6.74003
6.78876
6.80403
6.8051
6.79782
6.80255
6.80875
6.85556
6.78088
6.80964
6.85406
6.84275
6.66684
6.68144
6.77702
6.79585
6.8206
6.55788
6.51729
6.63552
6.76576
6.803
6.81285
6.4029
6.71707
6.79938
6.81655
6.81564
6.79066
6.81623
6.82392
6.86722
6.775
6.80392
6.87172
6.85359
6.61104
6.63602
6.76329
6.80061
6.81871
6.50724
6.34782
6.56435
6.76168
6.81353
6.81998
6.30132
6.70416
6.81196
6.83076
6.82774
6.77684
6.83052
6.84335
6.85076
6.79647
6.82665
6.83896
6.88848
6.61352
6.58457
6.75394
6.81239
6.80072
6.55509
6.29941
6.51718
6.77264
6.8176
6.83057
6.41358
6.73049
6.82945
6.84348
6.84147
6.78309
6.84724
6.86427
6.86636
6.83557
6.79638
6.81487
6.87809
6.66967
6.53119
6.7353
6.81153
6.83426
6.73711
6.46922
6.53766
6.79118
6.83581
6.85518
6.6716
6.77957
6.85315
6.86029
6.86332
6.83151
6.87008
6.88636
6.84203
6.87012
6.73268
6.73841
6.81223
6.79237
6.52862
6.75284
6.8283
6.86533
6.94524
6.73199
6.64587
6.83115
6.8569
6.89594
6.90242
6.84553
6.87673
6.87727
6.88934
6.89422
6.89529
6.9075
6.7864
6.94833
6.75689
6.66174
6.77813
6.92191
6.65019
6.79522
6.84696
6.86209
7.15269
6.96458
6.84757
6.8828
6.87517
6.92705
7.03459
6.9049
6.89212
6.89204
6.90899
6.94626
6.9147
6.9222
6.75228
7.05114
6.776
6.63809
6.81042
7.03444
6.84016
6.85736
6.86756
6.86228
7.23067
7.09271
6.95932
6.91867
6.88557
6.91612
7.04891
6.92545
6.90028
6.90158
6.9196
6.96709
6.92716
6.92915
6.77044
7.02237
6.84582
6.71277
6.85924
7.02623
6.90346
6.90517
6.88175
6.87099
7.12072
7.02865
6.95578
6.92076
6.89512
6.89831
7.01518
6.91776
6.90252
6.90556
6.91153
6.96147
6.9304
6.92759
6.83781
6.97102
6.86351
6.82485
6.89204
6.97984
6.90954
6.90824
6.8997
6.89042
7.02537
6.97579
6.93498
6.92025
6.90191
6.8958
6.97999
6.90176
6.90041
6.90229
6.90749
6.94362
6.92535
6.9206
6.89274
6.93357
6.88581
6.87761
6.91306
6.94447
6.90516
6.90159
6.9124
6.90365
6.97377
6.94729
6.9225
6.91808
6.9029
6.91064
6.95629
6.88054
6.89119
6.89834
6.91465
6.92386
6.91095
6.9059
6.91229
6.92179
6.89556
6.88311
6.9227
6.92408
6.90638
6.89612
6.90987
6.90933
6.94322
6.92917
6.90975
6.91033
6.91111
6.91241
6.93888
6.86216
6.87568
6.89506
6.91258
6.90918
6.89165
6.89019
6.91011
6.92038
6.89819
6.89079
6.90294
6.91097
6.90637
6.90117
6.90659
6.90997
6.92347
6.91384
6.90288
6.90249
6.9265
6.90743
6.92352
6.8533
6.85575
6.89332
6.91496
6.89913
6.87794
6.87816
6.91516
6.91617
6.91876
6.94489
6.88696
6.89911
6.90095
6.91527
6.90187
6.90764
6.90951
6.89818
6.89843
6.8799
6.92658
6.89921
6.91323
6.84852
6.85125
6.89216
6.88447
6.89059
6.86334
6.86514
6.93135
6.90835
6.91446
6.96329
6.90598
6.88862
6.89106
6.91463
6.90217
6.90395
6.9015
6.88317
6.89172
6.85311
6.89397
6.89267
6.90711
6.85031
6.85959
6.89058
6.88299
6.88315
6.85517
6.86353
6.94422
6.90641
6.89829
6.93626
6.91914
6.88224
6.88155
6.90604
6.90292
6.89664
6.90329
6.87558
6.8949
6.8613
6.85915
6.88959
6.90328
6.85785
6.86338
6.88608
6.88899
6.87893
6.86901
6.86939
6.94605
6.91777
6.89583
6.93112
6.91414
6.88123
6.87146
6.8954
6.88795
6.88523
6.91123
6.87486
6.89416
6.88318
6.86036
6.88494
6.90107
6.86588
6.8694
6.87465
6.90028
6.87708
6.88144
6.87057
6.9478
6.91814
6.9198
6.92875
6.90299
6.87651
6.86151
6.88378
6.86587
6.87525
6.91549
6.8785
6.88824
6.88237
6.85885
6.87444
6.89824
6.86722
6.8674
6.84666
6.88364
6.87496
6.88838
6.87061
6.92367
6.91059
6.93105
6.90576
6.8765
6.8651
6.85583
6.86503
6.84146
6.86181
6.90715
6.87761
6.88529
6.87534
6.84215
6.85685
6.89193
6.86337
6.86494
6.81564
6.8503
6.87262
6.88225
6.86038
6.86394
6.88568
6.91856
6.83646
6.79079
6.8465
6.84385
6.82697
6.81526
6.84086
6.89164
6.86883
6.87768
6.86624
6.82927
6.84106
6.88447
6.86785
6.86853
6.80738
6.83255
6.87238
6.87257
6.85305
6.76422
6.82503
6.79761
6.69298
6.65007
6.8219
6.8102
6.76875
6.79152
6.81927
6.87258
6.85419
6.85949
6.84995
6.82798
6.83225
6.87472
6.87522
6.8796
6.83998
6.83658
6.87308
6.87204
6.87972
6.63407
6.72567
6.55371
6.50651
6.59755
6.79681
6.76419
6.72549
6.80611
6.81332
6.85555
6.84055
6.84189
6.82915
6.83665
6.83645
6.8654
6.8775
6.88765
6.86983
6.8504
6.87411
6.87633
6.87982
6.49616
6.6545
6.31667
6.26296
6.6706
6.78399
6.74735
6.71659
6.84225
6.83041
6.85051
6.83476
6.8304
6.82236
6.85024
6.84919
6.86238
6.88089
6.89051
6.87943
6.86443
6.87492
6.87766
6.88259
6.53599
6.71288
6.39248
6.41976
6.8764
6.80425
6.78104
6.76267
6.87247
6.85746
6.85676
6.84234
6.84209
6.83869
6.86973
6.86728
6.86789
6.88072
6.89177
6.89139
6.87957
6.87704
6.88429
6.89139
6.75216
6.83177
6.74026
6.68142
6.89403
6.84962
6.8535
6.8454
6.88848
6.88246
6.87261
6.85938
6.86742
6.86645
6.88577
6.88441
6.87741
6.88261
6.89269
6.90134
6.89425
6.88292
6.89352
6.90154
7.0503
6.92624
6.9793
6.9268
6.898
6.8952
6.91108
6.92009
6.90909
6.90622
6.88978
6.87973
6.89193
6.89308
6.89871
6.89833
6.89144
6.89422
6.89452
6.9011
6.90356
6.89179
6.89817
6.90563
7.18811
6.95811
7.01728
7.07258
6.96728
6.92232
6.92923
6.9433
6.92162
6.92307
6.90659
6.90288
6.91046
6.91066
6.91048
6.91207
6.90479
6.90652
6.90015
6.90464
6.9119
6.90261
6.90091
6.90925
7.06565
6.95832
6.99672
7.03578
6.96572
6.9325
6.94017
6.94245
6.92123
6.92968
6.91924
6.92106
6.92532
6.92196
6.91549
6.92355
6.91559
6.91358
6.90216
6.90971
6.9202
6.91518
6.90556
6.91523
6.99808
6.95534
6.97312
6.98353
6.94624
6.93659
6.93845
6.93497
6.91098
6.92922
6.93191
6.93143
6.93523
6.92852
6.91669
6.93116
6.9261
6.92942
6.91311
6.91754
6.92819
6.93043
6.92352
6.92368
6.96465
6.95016
6.95759
6.95437
6.93097
6.93935
6.93303
6.92667
6.89938
6.92491
6.93886
6.93734
6.93382
6.93042
6.91037
6.93215
6.93443
6.93853
6.92911
6.91858
6.93563
6.94081
6.93764
6.93189
6.94991
6.95051
6.95256
6.94233
6.92561
6.94398
6.93338
6.92074
6.89193
6.9205
6.94186
6.94364
6.92817
6.92645
6.89954
6.92349
6.94049
6.93434
6.93154
6.91396
6.92539
6.9418
6.9401
6.9391
6.94483
6.95208
6.9523
6.93857
6.92846
6.94862
6.93069
6.91843
6.89387
6.91942
6.94876
6.95465
6.92952
6.91955
6.8914
6.91144
6.94427
6.9261
6.9282
6.90759
6.9172
6.9392
6.93868
6.93633
6.9448
6.94986
6.95329
6.93787
6.93417
6.94677
6.92858
6.91803
6.88925
6.91652
6.95362
6.95506
6.93033
6.91375
6.88348
6.89818
6.94626
6.92223
6.92374
6.90139
6.908
6.93711
6.93577
6.93064
6.94805
6.94788
6.95012
6.9385
6.93896
6.94131
6.92875
6.91656
6.88835
6.91953
6.9582
6.95484
6.92933
6.90941
6.88103
6.88075
6.95318
6.92296
6.91755
6.89429
6.89813
6.9346
6.92838
6.92223
6.94517
6.94345
6.94044
6.94154
6.94262
6.93459
6.92745
6.91762
6.91179
6.92996
6.96074
6.95237
6.92302
6.90758
6.89375
6.8865
6.9589
6.91941
6.91009
6.89208
6.89706
6.92781
6.91852
6.9137
6.93968
6.93886
6.92902
6.93672
6.94763
6.92781
6.92557
6.92026
6.92809
6.93692
6.9582
6.94735
6.9126
6.90816
6.90555
6.9075
6.95723
6.90838
6.90624
6.89438
6.90133
6.91859
6.90998
6.90868
6.93371
6.93655
6.93373
6.93442
6.95149
6.92234
6.92386
6.9204
6.93098
6.93358
6.95261
6.93824
6.90094
6.90656
6.91113
6.90781
6.94582
6.89498
6.9043
6.8973
6.90295
6.90725
6.90469
6.90577
6.93251
6.94268
6.94354
6.92906
6.94848
6.92374
6.9228
6.91625
6.92535
6.92367
6.94434
6.92188
6.88835
6.90351
6.90888
6.90804
6.91622
6.88533
6.90057
6.89936
6.90116
6.90116
6.90248
6.9033
6.93326
6.95372
6.94773
6.9224
6.9352
6.93184
6.91805
6.90986
6.90999
6.90707
6.93685
6.90577
6.88114
6.89706
6.89656
6.88927
6.90294
6.89146
6.89678
6.89672
6.88954
6.90534
6.9036
6.90026
6.93795
6.96605
6.95077
6.9181
6.92142
6.93552
6.91752
6.90135
6.88937
6.88607
6.94402
6.90835
6.89783
6.89003
6.88036
6.85877
6.92301
6.91187
6.8932
6.89519
6.87362
6.91692
6.90523
6.89812
6.95188
6.97892
6.96087
6.92174
6.90905
6.9505
6.92924
6.89345
6.86728
6.85447
6.96433
6.92863
6.92007
6.88514
6.85508
6.82125
6.9547
6.93807
6.89058
6.88604
6.84786
6.93721
6.90737
6.89433
6.97109
6.99757
6.98051
6.93111
6.89493
6.97179
6.94656
6.88441
6.83293
6.79633
6.98306
6.95126
6.93936
6.87566
6.80955
6.73845
6.99032
6.96027
6.89277
6.86659
6.79725
6.96488
6.9183
6.88725
6.99264
7.03777
7.00497
6.94353
6.87563
7.01649
6.96889
6.87008
6.75587
6.66684
7.02201
7.0009
6.97221
6.86188
6.72487
6.53126
7.05479
6.99286
6.89689
6.82566
6.69412
7.00557
6.93491
6.87695
7.00812
7.07378
7.0258
6.95242
6.85334
7.06035
6.9858
6.84737
6.64941
6.28889
7.09459
7.07308
6.99738
6.84374
6.60138
6.03917
7.11815
7.03719
6.90816
6.77691
6.47659
7.05575
6.96295
6.87701
7.01996
7.10749
7.04069
6.95876
6.82888
7.10448
7.00953
6.8113
6.50691
5.27678
7.13856
7.1197
7.03764
6.81215
6.48198
5.26625
-5.17058
7.13734
7.08616
6.92599
6.72607
5.98126
7.12444
7.01035
6.89661
7.04654
7.13441
7.05732
6.98209
6.83663
7.14859
7.0372
6.84934
6.48008
4.57023
0.109467
7.17724
7.16148
7.07673
6.87174
6.44421
5.06518
0.315896
7.19002
7.15174
6.97698
6.73213
5.3548
7.21229
7.09831
6.9745
7.06857
7.1279
7.0419
7.00843
6.89784
7.18011
7.06232
6.89054
6.62839
5.26584
1.39696
7.21302
7.19351
7.1059
6.94785
6.60817
5.24227
1.5244
7.21813
7.19599
7.07129
6.86239
5.82143
1.82737
7.27475
7.20877
7.10553
7.07007
7.03673
6.96653
7.00956
6.96705
7.15225
7.00234
6.901
6.81378
5.69142
1.55333
7.21712
7.19249
7.10383
6.97959
6.84113
5.75417
1.46204
7.21699
7.17816
7.1136
6.96192
6.29459
7.25368
7.20714
7.1982
7.08152
6.95219
6.92077
7.0007
7.0038
7.11512
7.00287
6.91604
6.8546
6.35779
7.19063
7.16343
7.08724
7.00895
6.98927
6.31189
-1.49589
7.19219
7.13424
7.11274
7.08195
7.06563
7.22242
7.18068
7.20426
7.12632
7.0415
7.05602
7.02468
6.99756
7.08787
7.01342
6.9606
6.93581
6.99369
7.15947
7.12242
7.05889
7.01045
7.01617
6.98925
7.15606
7.10332
7.09411
7.11145
7.17707
7.17934
7.14524
7.18301
7.04135
7.07506
7.07088
6.97669
6.94775
7.06809
6.99314
6.94273
6.92756
7.05876
7.12062
7.07921
7.00866
6.97057
6.98847
7.03958
7.11045
7.06114
7.05337
7.08303
7.14997
7.13391
7.10103
7.14374
7.01249
7.07665
7.04664
6.97315
6.93819
7.04837
6.96651
6.92063
6.88018
7.03901
7.07949
7.04269
6.95704
6.93111
6.93826
7.02862
7.06142
7.01013
7.00627
7.03107
7.09694
7.0819
7.05289
7.09655
7.04665
7.07891
7.04884
6.99987
6.99871
7.03357
6.9599
6.91601
6.88391
7.05413
7.03914
7.0057
6.9197
6.90529
6.92011
7.03109
7.00714
6.95987
6.96967
6.99567
7.06597
7.02697
7.01053
7.05453
7.09698
7.09517
7.07303
7.04146
7.06003
7.03619
6.97336
6.94281
6.9299
7.08505
7.01548
6.97995
6.90429
6.89884
6.93878
7.05643
6.96072
6.92083
6.94718
6.98345
7.06459
6.9784
6.98483
7.02902
7.15049
7.12597
7.11049
7.08982
7.12033
7.06199
7.01006
6.98381
7.00016
7.13539
7.01663
6.98554
6.92812
6.93887
6.99284
7.11081
6.9332
6.92041
6.9623
6.99701
7.10849
6.95992
6.99154
7.03579
7.19963
7.16224
7.1515
7.13387
7.16139
7.10523
7.0652
7.04716
7.08257
7.19384
7.05365
7.01575
6.98153
6.97244
7.03572
7.19981
6.93721
6.94159
6.98102
7.04543
7.21124
6.98091
7.01927
7.08517
7.21866
7.18182
7.16959
7.15497
7.18525
7.13048
7.08744
7.07
7.10797
7.25736
7.10048
7.0519
7.00729
7.00636
7.09147
7.28842
6.9888
6.96844
7.00585
7.1341
7.30606
7.00144
7.04278
7.16728
141.9
198.503
147.225
187.359
233.798
244.324
234.508
218.055
141.664
142.592
141.019
141.963
141.75
144.647
185.281
157.058
204.201
231.951
209.845
211.808
204.337
208.05
210.151
204.384
211.462
212.578
143.387
148.33
145.343
143.067
145.145
146.439
153.87
172.651
211.225
191.421
211.082
205.833
203.422
205.729
205.182
205.559
208.651
207.524
209.956
213.41
215.676
214.233
168.748
162.095
191.982
156.333
175.007
193.218
199.097
205.081
207.149
208.171
208.55
205.957
206.478
208.451
209.367
208.887
212.287
210.812
213.705
215.542
214.517
215.733
210.192
219.891
215.98
219.853
222.237
214.703
213.613
217.709
216.046
212.411
212.357
215.897
215.981
213.185
215.879
217.693
217.456
216.317
223.073
219.32
219.916
213.968
220.608
219.096
217.654
218.021
139.541
140.341
158.261
138.88
148.928
147.006
142.09
145.295
197.925
203.77
165.497
172.652
190.293
200.839
193.563
138.117
137.786
139.604
138.812
137.693
140.278
139.432
138.485
136.618
197.939
198.95
199.463
194.581
192.12
197.691
194.098
201.356
190.211
138.098
138.157
140.44
135.949
138.079
138.323
206.383
205.106
188.387
190.658
186.474
146.855
156.805
137.976
141.578
139.676
206.794
208.893
196.14
189.81
197.149
175.465
148.369
191.247
194.697
199.222
158.839
173.59
170.667
181.652
209.748
210.76
209.659
202.734
201.368
201.711
200.77
198.312
202.809
184.432
208.441
205.722
193.574
196.808
199.041
211.6
208.821
198.976
200.48
198.75
201.38
136.35
123.333
112.435
132.169
116.769
62.1825
90.72
70.8232
137.552
161.779
76.9711
90.0777
118.407
176.115
144.086
133.719
128.464
135.718
134.234
132.95
130.093
132.307
128.665
129.305
181.606
189.87
181.49
160.221
158.797
160.161
147.554
170.399
131.908
132.569
127.86
130.485
128.646
90.7534
109.417
158.392
152.172
114.838
110.369
107.571
115.503
106.413
25.4573
27.8825
35.1911
156.066
165.63
115.974
111.294
121.529
109.2
50.54
137.701
129.827
144.358
73.6035
90.5747
78.5762
88.9957
175.508
174.65
174.327
135.63
130.522
133.421
131.984
123.258
147.816
93.8142
168.701
174.761
107.77
122.179
125.509
172.826
168.601
126.172
130.602
123.448
132.278
64.4976
8.0828
11.4304
20.7304
15.3222
5.96495
5.70132
6.20999
33.6642
58.884
6.52208
7.00181
8.57964
84.9733
14.6391
118.478
55.3916
112.198
120.039
119.654
30.9798
17.3537
59.8092
31.3261
106.898
94.9122
86.6616
32.8358
40.5436
24.3635
27.8194
67.3245
20.6084
107.839
12.5178
25.242
21.302
4.29619
3.93772
43.4008
50.8715
7.81534
7.45565
8.50809
4.47951
6.87348
5.86929
6.05209
6.02099
57.4468
70.3963
9.91043
10.596
26.3358
7.07677
5.83935
18.0798
10.9286
20.0121
5.65772
5.95329
5.69123
6.01905
81.0066
87.0558
85.521
35.9504
43.806
49.9265
50.9497
39.7146
27.6537
6.44477
62.6026
66.869
6.85129
10.0407
13.911
82.6183
72.6171
29.9444
44.5933
27.9884
50.6544
5.18283
7.03408
6.42115
5.84637
6.10899
6.74117
6.62349
6.57401
6.08664
6.04299
6.76509
6.68125
6.69494
5.97023
6.44903
5.10195
5.8903
4.88854
5.23221
4.10651
6.46976
7.13924
5.81949
6.97729
7.29358
6.60135
7.01669
6.15941
6.14263
6.23307
6.14967
6.51101
6.28244
2.43714
6.57645
6.15387
6.35138
6.88536
6.88661
5.70899
5.37232
6.52306
6.72348
6.85301
6.97213
6.82385
6.87059
6.70483
6.71076
5.55856
7.28629
6.8397
6.87293
6.49583
6.73756
6.48703
6.40743
6.52968
6.33851
6.43816
6.51695
6.37644
6.44752
15.2356
21.7732
25.3174
6.13956
6.65167
7.24926
10.1084
7.20123
6.27137
6.52659
5.76582
5.84064
6.53415
6.66244
6.66106
17.3665
6.87486
6.34107
6.73677
6.43373
10.0058
7.00967
6.73733
6.527
6.5582
6.48235
6.5351
6.563
6.52887
6.49
6.5953
6.55441
6.54543
6.57436
6.62407
6.58079
7.22737
6.81032
7.08457
7.33143
7.81018
6.80778
6.7491
6.87784
6.97019
6.71094
6.49419
6.62798
6.53132
6.49279
6.37091
6.37762
6.4885
6.50882
6.97563
6.66613
6.63927
6.63312
6.616
6.55496
6.66378
6.84666
6.58243
6.63223
6.69799
6.68182
6.70426
6.74545
6.75571
6.68869
6.92583
6.74457
6.67674
6.81506
6.66012
6.6398
6.63888
6.58072
6.54884
6.45938
6.64472
6.58379
6.5774
6.46206
6.76075
6.68202
6.82664
6.48987
6.69381
6.71066
6.75218
6.6584
6.56429
6.57722
6.47557
6.50539
6.56748
6.5456
6.56984
6.66968
6.66692
6.60162
6.68233
6.62208
6.67753
6.69158
6.74272
6.58411
6.65719
6.59755
6.64714
6.72648
6.66426
6.58329
6.60293
6.61795
6.62222
6.63196
6.59911
6.61872
6.60322
6.66394
6.68483
6.63784
6.699
6.70472
6.73037
6.70868
6.76257
6.54072
6.434
6.44386
6.57375
6.57613
6.52365
6.50294
6.56135
6.57429
6.55158
6.60615
6.56464
6.61309
6.584
6.56299
6.63758
6.60239
6.70364
6.5574
6.61048
6.58077
6.60929
6.63648
6.62337
6.62321
6.61048
6.64776
6.61354
6.6422
6.72263
6.62777
6.6505
6.63721
6.59813
6.77241
6.71251
6.68811
6.62425
6.67076
6.6549
6.66219
6.65225
6.6425
6.64349
6.62671
6.66605
6.63088
6.65564
6.62728
6.62134
6.594
6.58918
6.49958
6.62681
6.60296
6.59824
6.53131
6.6726
6.65736
6.68011
6.593
6.66182
6.63763
6.66917
6.64362
6.59165
6.58036
6.54554
6.56027
6.58582
6.52667
6.55095
6.62811
6.61645
6.60162
6.63305
6.60148
6.63997
6.78235
6.77309
6.70019
6.75398
6.70694
6.72165
6.76336
6.71505
6.66451
6.66459
6.71876
6.69985
6.70374
6.64386
6.68466
6.71726
6.69787
6.75193
6.76324
6.79871
6.72094
6.74
6.72267
6.75985
6.61778
6.59133
6.54383
6.65402
6.65366
6.64413
6.59041
6.63099
6.65059
6.62856
6.63336
6.6238
6.64429
6.6163
6.63876
6.65433
6.57695
6.56472
6.64206
6.61244
6.60299
6.65096
6.57323
6.63906
6.59194
6.62878
6.5645
6.61289
6.64164
6.62005
6.63697
6.61537
6.63604
6.6061
6.63
6.59686
6.58391
6.60894
6.59772
6.5862
6.68608
6.68083
6.66853
6.65075
6.66575
6.66836
6.66294
6.64946
6.6387
6.64796
6.61932
6.64481
6.62494
6.64448
6.61376
6.61351
6.599
6.59125
6.54082
6.6064
6.57325
6.56624
6.51598
6.66413
6.62532
6.66312
6.63547
6.6605
6.61259
6.66327
6.67707
6.66906
6.66523
6.6469
6.63209
6.64006
6.56319
6.53812
6.51492
6.54039
6.56552
6.5047
6.53906
6.63169
6.59024
6.57387
6.62845
6.57489
6.63686
6.74996
6.7365
6.72254
6.76517
6.71033
6.71622
6.75445
6.70046
6.71739
6.73448
6.75348
6.72306
6.75212
6.72305
6.74222
6.6667
6.6491
6.7152
6.66677
6.71435
6.66509
6.70096
6.63048
6.68655
6.68704
6.68093
6.62284
6.69692
6.70564
6.68998
6.63371
6.60901
6.63073
6.58791
6.62257
6.60995
6.63442
6.59788
6.62826
6.64573
6.65118
6.64083
6.65652
6.67963
6.6636
6.63734
6.57129
6.61392
6.61077
6.62634
6.5832
6.612
6.63319
6.60018
6.62903
6.60127
6.62636
6.59277
6.62427
6.62207
6.60465
6.65637
6.64613
6.62577
6.65134
6.66162
6.65809
6.63604
6.64656
6.65169
6.65144
6.64199
6.63386
6.64568
6.62337
6.64082
6.63015
6.64498
6.61544
6.62365
6.53668
6.55335
6.49212
6.55878
6.51383
6.55087
6.51173
6.65677
6.59953
6.65474
6.64286
6.65386
6.59063
6.64744
6.65762
6.64617
6.63453
6.64314
6.63275
6.64
6.51017
6.51452
6.51418
6.56133
6.56447
6.53322
6.58934
6.62265
6.56527
6.54627
6.62203
6.56561
6.63584
6.71939
6.69159
6.70837
6.71935
6.68879
6.69663
6.67434
6.67405
6.71892
6.75719
6.75071
6.70685
6.7496
6.74331
6.72491
6.63184
6.62127
6.69013
6.61967
6.67071
6.6486
6.67211
6.61425
6.65059
6.69715
6.67707
6.63781
6.67239
6.67078
6.6478
6.63005
6.59478
6.59119
6.64695
6.68202
6.6644
6.63483
6.66569
6.65216
6.63951
6.59139
6.61306
6.5951
6.63156
6.59657
6.61698
6.62633
6.592
6.62956
6.59796
6.62357
6.59648
6.62656
6.6597
6.64415
6.66411
6.65788
6.6552
6.6355
6.64407
6.64197
6.62635
6.61634
6.6167
6.63048
6.64525
6.63318
6.64583
6.61849
6.6376
6.62234
6.63944
6.63481
6.64206
6.50187
6.56422
6.53273
6.5485
6.50944
6.56952
6.54182
6.65169
6.5871
6.6407
6.6388
6.65386
6.58517
6.63821
6.63934
6.53473
6.55871
6.55405
6.6013
6.5596
6.56693
6.61154
6.62258
6.57204
6.55331
6.6266
6.58171
6.64145
6.66536
6.64692
6.68279
6.64242
6.65827
6.67027
6.62912
6.64561
6.69157
6.73472
6.72624
6.67814
6.72301
6.70084
6.67848
6.61814
6.61571
6.64901
6.61709
6.6305
6.62781
6.6267
6.61647
6.61327
6.63735
6.61258
6.61764
6.62806
6.61042
6.58188
6.60186
6.59567
6.5963
6.62653
6.64809
6.63538
6.62052
6.63232
6.62107
6.60096
6.63187
6.59232
6.59612
6.59816
6.63996
6.64758
6.6205
6.60955
6.62359
6.61993
6.60945
6.6204
6.61679
6.61377
6.63342
6.6174
6.5146
6.56535
6.53115
6.53121
6.48614
6.55173
6.51596
6.65415
6.58628
6.63497
6.63336
6.65517
6.59038
6.63672
6.64633
6.57007
6.56237
6.56622
6.60108
6.55309
6.56314
6.60102
6.63123
6.58725
6.5644
6.64152
6.59414
6.65604
6.63565
6.63535
6.66061
6.62857
6.63662
6.65368
6.63424
6.63093
6.66765
6.71836
6.70343
6.66126
6.71547
6.66787
6.6699
6.62042
6.62772
6.61336
6.61995
6.59997
6.63938
6.6143
6.63434
6.59626
6.59919
6.56122
6.58888
6.62157
6.60168
6.55109
6.58676
6.59292
6.59347
6.61822
6.61942
6.60772
6.62074
6.61262
6.59873
6.59981
6.60418
6.59297
6.60696
6.60961
6.57775
6.58261
6.57543
6.55284
6.53571
6.62024
6.62028
6.62503
6.62374
6.62153
6.58643
6.55295
6.45782
6.5373
6.50855
6.47713
6.44153
6.53051
6.51415
6.65759
6.60266
6.64191
6.64953
6.66367
6.62227
6.65366
6.65515
6.5519
6.54833
6.56497
6.61505
6.55728
6.57
6.62094
6.65637
6.60873
6.58271
6.67238
6.62053
6.69056
6.64174
6.64995
6.64954
6.64327
6.62755
6.64969
6.65244
6.62883
6.66136
6.71341
6.69808
6.66536
6.71383
6.67638
6.6849
6.63405
6.66363
6.62465
6.64676
6.60373
6.66127
6.63888
6.66011
6.61458
6.61583
6.55356
6.59319
6.65232
6.63732
6.57197
6.60936
6.59986
6.61197
6.63113
6.6185
6.60502
6.65501
6.64196
6.63098
6.61661
6.62125
6.60978
6.62586
6.62953
6.54852
6.5142
6.59887
6.57074
6.52892
6.63857
6.64181
6.6465
6.64491
6.64712
6.53894
6.56029
6.44423
6.54001
6.53315
6.51773
6.46937
6.56978
6.57363
6.67834
6.64811
6.67158
6.68854
6.67995
6.67756
6.68715
6.6752
6.5581
6.58611
6.5894
6.651
6.59025
6.61508
6.67583
6.70173
6.64864
6.61854
6.7221
6.67569
6.73711
6.65802
6.67051
6.65426
6.6595
6.63497
6.66119
6.6677
6.64306
6.67134
6.71681
6.70298
6.67905
6.72139
6.69331
6.70203
6.69763
6.72331
6.65603
6.68297
6.63235
6.69981
6.67534
6.70636
6.65388
6.66252
6.59431
6.62715
6.69105
6.68661
6.62002
6.64901
6.62791
6.64827
6.69048
6.68334
6.67126
6.7311
6.73445
6.71854
6.63709
6.64389
6.63438
6.64916
6.65751
6.61987
6.58531
6.71944
6.6884
6.6726
6.66465
6.67349
6.67771
6.67604
6.68715
6.6156
6.69797
6.52124
6.62026
6.6255
6.65069
6.58803
6.68595
6.67789
6.70279
6.70841
6.71249
6.72945
6.7116
6.73376
6.72591
6.70749
6.63853
6.71508
6.66183
6.73276
6.66867
6.70539
6.77694
6.75262
6.7304
6.6905
6.76797
6.76409
6.77752
6.68582
6.70193
6.67064
6.67713
6.65462
6.68116
6.68801
6.66809
6.68846
6.72339
6.71795
6.69914
6.72635
6.7106
6.71849
6.74648
6.76942
6.69496
6.7285
6.67769
6.73979
6.71278
6.7506
6.70079
6.70258
6.65032
6.67273
6.7212
6.71256
6.68068
6.69799
6.67269
6.69849
6.76682
6.78526
6.76751
6.79797
6.82832
6.81212
6.66744
6.67869
6.67978
6.68578
6.70149
6.76346
6.76312
6.842
6.82559
6.83848
6.69473
6.70878
6.71055
6.71031
6.7269
6.78064
6.85336
6.66443
6.76596
6.73801
6.80398
6.74651
6.83407
6.79421
6.7261
6.75401
6.744
6.75528
6.73867
6.76923
6.75489
6.73937
6.78647
6.83412
6.74534
6.82631
6.75934
6.77611
6.83536
6.78398
6.79509
6.76059
6.79303
6.80186
6.79325
6.71829
6.73748
6.69217
6.69946
6.68339
6.70942
6.71356
6.7034
6.71053
6.73322
6.73495
6.72127
6.74259
6.72752
6.73897
6.79258
6.81784
6.72686
6.77322
6.73064
6.76994
6.74069
6.79634
6.76638
6.72381
6.70726
6.72195
6.73769
6.73795
6.72726
6.74007
6.72386
6.74525
6.82448
6.86059
6.84568
6.85119
6.88812
6.87913
6.71725
6.73744
6.74867
6.7427
6.76732
6.8747
6.90366
6.91592
6.91671
6.94982
6.72905
6.74458
6.74046
6.74522
6.75931
6.90931
6.93288
6.81302
6.87167
6.82983
6.89759
6.84342
6.88333
6.83613
6.7503
6.77931
6.76577
6.77331
6.76001
6.78575
6.77212
6.76413
6.85286
6.84199
6.79504
6.82883
6.80025
6.80434
6.82062
6.79993
6.80734
6.79238
6.80154
6.80909
6.79814
6.76015
6.78527
6.73178
6.73314
6.72756
6.75672
6.75286
6.75272
6.73526
6.75248
6.76447
6.75479
6.76476
6.75112
6.76324
6.84421
6.86618
6.7574
6.81891
6.80211
6.81111
6.77794
6.83985
6.83187
6.75384
6.74152
6.75475
6.76586
6.76884
6.75365
6.76586
6.76226
6.77502
6.87575
6.91483
6.91416
6.89643
6.94087
6.93702
6.76721
6.79372
6.79727
6.78308
6.81052
6.94855
6.96404
6.9571
6.96319
6.95235
6.76031
6.773
6.76446
6.7732
6.78296
6.9356
6.92139
6.85985
6.88082
6.82704
6.89443
6.85152
6.85485
6.80148
6.76852
6.78998
6.77859
6.78482
6.77524
6.79234
6.78298
6.78154
6.82377
6.80779
6.80564
6.81322
6.8031
6.80353
6.80687
6.802
6.80802
6.79713
6.79974
6.80462
6.79831
6.81203
6.83527
6.78541
6.77835
6.78283
6.81294
6.80537
6.81243
6.77798
6.78112
6.80634
6.80038
6.79752
6.7754
6.79019
6.8737
6.86675
6.80165
6.85262
6.84945
6.83721
6.8192
6.85457
6.85077
6.78249
6.76344
6.77365
6.7882
6.79463
6.77152
6.7807
6.78529
6.79604
6.90101
6.9321
6.92666
6.87829
6.88232
6.88227
6.7935
6.82009
6.80771
6.79891
6.81995
6.94599
6.91854
6.90329
6.89238
6.8595
6.78391
6.79041
6.78409
6.79284
6.79512
6.88756
6.83539
6.83302
6.82212
6.78708
6.82114
6.80432
6.79536
6.77918
6.78116
6.79476
6.78748
6.79184
6.7856
6.79692
6.79088
6.79199
6.79618
6.78919
6.79886
6.80109
6.79751
6.79445
6.79662
6.79803
6.80095
6.79534
6.7968
6.79808
6.79898
6.84955
6.85149
6.83285
6.82713
6.83254
6.8441
6.84035
6.84478
6.82074
6.81355
6.83289
6.83623
6.82678
6.80407
6.81781
6.84333
6.81428
6.8265
6.84185
6.83713
6.82494
6.82447
6.82016
6.81599
6.80736
6.78351
6.79208
6.81101
6.82206
6.8048
6.80594
6.80944
6.82443
6.83505
6.81943
6.81478
6.79005
6.76688
6.74456
6.80245
6.81375
6.80304
6.80752
6.80856
6.82721
6.77562
6.76489
6.75214
6.66787
6.79991
6.79835
6.79811
6.80452
6.80104
6.7679
6.67826
6.77427
6.76866
6.77336
6.7061
6.73678
6.73299
6.76062
6.78993
6.79939
6.79481
6.79931
6.7948
6.80294
6.79875
6.80053
6.78464
6.78284
6.79017
6.79257
6.79703
6.78987
6.79076
6.79762
6.79718
6.79761
6.79972
6.79813
6.80408
6.84652
6.84081
6.849
6.84599
6.85059
6.85165
6.84846
6.85471
6.83787
6.83394
6.84391
6.83644
6.84431
6.83102
6.84541
6.78329
6.7503
6.81688
6.79585
6.79292
6.79485
6.80548
6.77044
6.76672
6.83918
6.82621
6.81837
6.83584
6.85256
6.83807
6.83536
6.84176
6.85138
6.74812
6.73176
6.69896
6.70397
6.73159
6.65498
6.81162
6.80814
6.81414
6.81923
6.81215
6.66531
6.54995
6.61161
6.5858
6.44051
6.80732
6.80377
6.80831
6.80996
6.80782
6.57127
6.47688
6.69184
6.67997
6.73863
6.51453
6.63723
6.60924
6.70542
6.80019
6.80733
6.80399
6.81052
6.80671
6.81381
6.81011
6.80999
6.77207
6.74653
6.78937
6.78985
6.79784
6.79155
6.79042
6.80393
6.80221
6.8092
6.81086
6.80784
6.81531
6.8332
6.82851
6.84875
6.85104
6.84875
6.84803
6.85096
6.8461
6.83995
6.85251
6.86817
6.85229
6.85005
6.85522
6.85702
6.72242
6.70628
6.79338
6.74496
6.74145
6.77514
6.7853
6.7261
6.72566
6.85554
6.83392
6.84894
6.84606
6.86044
6.83398
6.85811
6.85905
6.86014
6.6631
6.70901
6.61455
6.63367
6.66933
6.581
6.82369
6.81628
6.82925
6.8253
6.81913
6.52311
6.36943
6.52131
6.48099
6.33698
6.81357
6.81181
6.81681
6.81701
6.81623
6.4028
6.36331
6.59036
6.53156
6.66928
6.3277
6.51594
6.47931
6.63798
6.81341
6.82167
6.8167
6.82406
6.8205
6.8298
6.82451
6.82138
6.71862
6.6935
6.79074
6.79207
6.78048
6.78995
6.79491
6.81976
6.81498
6.8237
6.82952
6.82215
6.8332
6.8303
6.83493
6.85885
6.84823
6.8533
6.85649
6.84463