/*--------------------------------*- C++ -*----------------------------------*\
| =========                 |                                                 |
| \\      /  F ield         | OpenFOAM: The Open Source CFD Toolbox           |
|  \\    /   O peration     | Version:  5.x                                   |
|   \\  /    A nd           | Web:      www.OpenFOAM.org                      |
|    \\/     M anipulation  |                                                 |
\*---------------------------------------------------------------------------*/
FoamFile
{
    version     2.0;
    format      ascii;
    class       surfaceScalarField;
    location    "1";
    object      phi;
}
// * * * * * * * * * * * * * * * * * * * * * * * * * * * * * * * * * * * * * //

dimensions      [0 3 -1 0 0 0 0];

internalField   nonuniform List<scalar> 
29271
(
-3.22811e-06
2.7075e-06
-1.15178e-06
1.58922e-06
-7.63626e-06
-1.99388e-05
7.52933e-06
2.00274e-05
-2.56725e-05
-1.03766e-05
3.44428e-05
-2.81292e-05
-6.42486e-06
3.61604e-05
-1.1221e-05
6.33408e-07
1.336e-05
-4.82054e-06
-3.27006e-06
5.31811e-06
-2.00876e-05
-1.85776e-06
-2.28473e-06
-1.60394e-06
2.28222e-05
3.01183e-06
-2.17245e-05
5.6982e-06
4.96807e-06
-1.33302e-05
-1.89205e-05
4.33089e-05
-1.4832e-05
7.28553e-06
1.68139e-05
-1.4177e-05
-7.80737e-06
1.27169e-05
-1.72317e-05
6.93341e-06
1.25453e-05
-7.04994e-06
-9.7153e-06
1.45182e-05
-2.09191e-05
6.20222e-06
4.73402e-06
-7.97511e-06
-9.38027e-06
2.73383e-05
-1.11914e-05
1.77156e-06
-3.57802e-06
9.36325e-06
3.59854e-06
-2.70597e-06
3.24814e-06
-1.92009e-06
1.40883e-06
-2.08488e-05
5.2839e-06
2.19059e-05
-1.38365e-05
-2.14041e-05
2.88996e-05
-1.43559e-05
1.04241e-05
1.92754e-05
-1.8078e-05
-1.1317e-05
1.40513e-05
-1.96354e-05
8.8648e-06
1.26126e-05
-6.61914e-06
-9.78803e-06
1.45652e-05
-1.868e-05
6.7092e-06
7.92129e-06
-4.99865e-06
-7.44615e-06
1.64943e-05
-1.64764e-05
2.42477e-06
5.77764e-07
-1.99566e-06
1.30275e-05
2.44206e-06
-1.56412e-05
2.14538e-06
-2.92217e-06
-4.96068e-06
1.05861e-05
1.07926e-05
-1.73083e-05
5.54265e-06
1.10758e-05
-5.22269e-06
-7.57151e-06
1.3484e-05
-1.72695e-05
9.7287e-06
4.17489e-06
-3.07792e-06
-6.40665e-06
1.28505e-05
-1.76966e-05
-1.18161e-06
-3.41197e-06
1.21711e-05
6.89851e-06
3.22055e-06
-4.5019e-06
1.20714e-06
-1.64091e-07
3.48532e-06
-1.3811e-05
1.8967e-06
-2.6354e-06
9.62804e-06
5.00512e-06
-1.39035e-05
1.89337e-06
-7.56354e-07
7.3995e-07
8.7215e-06
3.30503e-06
-5.0848e-06
1.45395e-06
2.51439e-07
3.45366e-06
-1.84416e-06
6.32703e-07
-1.33283e-06
2.50045e-06
-2.75876e-05
-9.17623e-06
1.01328e-05
2.65845e-05
1.04398e-06
4.8373e-06
-2.4882e-05
1.15871e-06
1.20644e-06
1.66355e-05
1.93521e-06
-6.8881e-06
2.35528e-06
-4.343e-06
-2.17329e-06
9.1139e-06
-2.327e-05
3.47284e-06
-9.23866e-07
-3.46364e-06
2.17291e-05
2.45552e-06
2.27704e-06
6.6736e-06
-6.09909e-05
-4.25979e-07
-5.24193e-06
5.77081e-05
-9.89613e-06
-6.59377e-06
5.93756e-05
-1.19013e-05
-6.10947e-06
-6.46524e-06
-7.5147e-06
-7.02748e-07
1.18983e-06
3.87228e-07
1.03914e-06
-5.12456e-06
-2.02731e-06
-4.96997e-06
-6.86612e-07
-3.18688e-06
-4.44962e-06
5.70598e-05
-1.0284e-05
-2.81447e-05
-1.05027e-05
-1.68014e-05
1.6456e-06
1.58125e-06
1.82799e-06
1.35854e-06
9.96598e-07
-3.58335e-06
6.68453e-05
-9.61117e-08
2.43293e-07
5.85211e-07
2.9181e-07
8.77241e-07
1.36719e-06
9.06521e-07
-2.99915e-05
-1.60526e-05
-1.46935e-05
-1.08829e-05
-1.10755e-05
-6.78567e-07
-5.69839e-07
1.33784e-05
-2.59422e-06
-1.53357e-06
-5.33902e-07
4.65252e-06
3.18708e-06
-2.78523e-05
1.24075e-07
-2.45691e-06
6.28145e-07
2.63699e-05
-8.05805e-06
-6.64986e-06
5.0016e-05
-1.01624e-05
-1.05347e-05
-1.10797e-05
-1.43323e-05
1.00601e-06
1.38714e-06
7.81248e-07
1.03287e-06
-2.27825e-06
-3.29315e-06
5.58383e-05
-1.25485e-05
-2.07156e-05
-1.26291e-05
-1.68814e-05
7.94171e-07
-1.14707e-06
4.67955e-05
6.00656e-07
8.60614e-07
9.29451e-07
-7.89993e-07
-4.14972e-07
-4.69356e-07
-1.53212e-05
-1.1553e-05
-1.51002e-05
-1.10461e-05
-1.11027e-05
1.08922e-06
2.26973e-06
-1.28623e-06
9.82418e-06
-1.03729e-05
1.61377e-06
-2.0426e-06
-1.53711e-06
1.09869e-05
1.35192e-06
-5.32494e-06
-1.21785e-06
4.95992e-05
1.45594e-06
1.30303e-06
1.43053e-06
1.30361e-06
-1.70478e-06
-6.84658e-07
-9.0973e-07
-1.25809e-05
-1.33219e-05
-1.23213e-05
-1.3676e-05
-8.89774e-07
-1.67837e-07
4.06735e-05
-4.93661e-07
-7.90642e-08
-1.40886e-07
-2.116e-07
2.02116e-07
1.80808e-07
-1.13985e-05
-1.37783e-05
-1.16476e-05
-1.08673e-05
-1.00857e-05
-6.13334e-08
-4.3636e-07
8.54653e-06
-3.6096e-06
7.08045e-07
-9.78605e-07
3.9206e-06
-8.28604e-06
1.18565e-06
-2.04507e-06
8.03339e-06
-8.24966e-06
5.59804e-07
-6.1941e-07
-2.2228e-08
8.16365e-06
-2.90909e-06
8.45475e-08
2.69362e-07
2.60723e-06
-3.52069e-06
6.63846e-07
-2.79812e-06
5.57242e-06
-2.10426e-05
2.54138e-06
-1.13647e-06
1.96277e-05
3.63177e-06
-5.09286e-06
-1.70911e-05
1.71642e-06
-2.04363e-06
1.88794e-05
1.92178e-06
-1.02949e-05
1.43124e-06
-2.14371e-06
-1.10417e-06
1.01898e-05
-1.84098e-05
1.80784e-06
-6.32765e-07
2.23324e-07
1.48208e-05
2.19067e-06
-5.43687e-06
-3.18789e-07
-5.20368e-05
2.41974e-06
1.24798e-05
4.28929e-05
-2.7292e-06
-4.71608e-06
6.8774e-05
-5.76578e-07
-2.53702e-07
3.93468e-07
5.23849e-07
-3.57143e-06
-2.06013e-07
-2.50557e-06
4.24281e-06
-2.65285e-06
-4.11002e-06
6.06291e-05
-1.15485e-07
-3.99804e-07
6.16196e-07
3.63441e-07
-7.58185e-07
-4.5831e-06
7.78016e-05
-1.7666e-06
-1.65186e-06
-6.90859e-07
-1.18592e-06
-9.47585e-07
-7.41629e-07
-1.28335e-06
-1.54329e-05
-1.25808e-06
-8.55144e-07
1.68683e-05
-7.14997e-06
-2.73068e-06
1.39947e-06
8.46996e-06
2.87232e-06
-2.64935e-05
-1.45753e-06
-1.76597e-06
-1.2342e-06
2.80789e-05
-3.233e-06
-5.12441e-06
4.95986e-05
7.2155e-07
6.60437e-07
1.64596e-06
1.03073e-06
-2.72069e-06
-5.75714e-06
5.69732e-05
-1.08203e-06
-2.70182e-06
5.28256e-05
-1.39812e-06
-4.95532e-07
-7.72947e-07
-2.38452e-06
-2.20996e-06
-2.28902e-06
-9.85105e-06
1.39283e-06
6.56339e-07
-1.72953e-06
8.44938e-06
-1.07779e-05
9.64124e-07
-9.77375e-07
-7.26495e-07
1.05623e-05
9.55302e-07
-5.16297e-06
-1.64879e-06
5.17032e-05
8.50063e-07
9.66852e-07
1.19686e-06
9.39018e-07
-1.8975e-06
-1.29441e-06
-1.17763e-06
-1.89232e-06
-1.53731e-06
4.18801e-05
-1.64649e-06
-1.37195e-06
-1.49215e-06
-1.61255e-06
-1.19158e-06
-1.3824e-06
-8.16453e-06
-3.35098e-07
-1.07684e-06
4.98232e-06
-4.3764e-06
9.82345e-07
-7.77692e-07
4.22717e-06
-7.90504e-06
1.25218e-06
-2.17306e-06
7.28134e-06
-8.21664e-06
1.00071e-06
-8.30483e-07
1.58949e-07
6.35016e-06
-2.44072e-06
2.55501e-07
5.58869e-07
1.7262e-06
-6.5796e-06
1.26107e-06
2.01757e-06
3.30189e-06
-2.06439e-05
9.49693e-07
-2.26277e-06
2.19143e-05
-2.10126e-06
3.05754e-06
-1.91903e-05
-5.51099e-06
1.87246e-06
2.18726e-05
-2.59626e-06
-1.03327e-05
3.793e-06
-1.88179e-06
7.90928e-07
1.02268e-05
-1.23819e-05
1.80677e-06
-1.3134e-07
-1.39218e-07
9.82279e-06
1.0229e-06
8.54945e-07
-1.08292e-06
-3.41455e-05
-1.59451e-06
2.61599e-06
3.3352e-05
4.07108e-06
-9.10198e-06
9.34475e-05
-1.47086e-06
-1.80794e-06
-6.06671e-06
-6.65335e-06
9.75557e-07
2.3548e-06
-2.94187e-06
-4.03218e-06
-1.01574e-05
-7.40397e-06
8.78272e-05
5.33102e-07
6.47341e-07
-2.64302e-06
-4.10305e-06
-2.62343e-06
-1.18504e-05
0.000118518
-6.49024e-07
-6.98954e-07
-6.96706e-06
-5.78823e-06
-3.62423e-06
-9.34538e-06
-9.32719e-06
-1.81635e-05
-3.29945e-06
9.47053e-07
1.78913e-05
-7.3765e-06
3.66121e-06
-4.0804e-06
7.79569e-06
-5.67968e-08
-3.7348e-05
-1.231e-06
2.91237e-06
-3.79152e-06
3.95149e-05
7.14821e-06
-1.89281e-05
7.27362e-05
-3.11596e-06
-4.04735e-06
-6.58935e-06
-6.70695e-06
-6.15798e-06
-1.2601e-05
7.54763e-05
4.46487e-07
-2.77649e-06
6.13062e-05
-2.04479e-07
-6.82493e-06
-3.52426e-06
-2.84271e-06
-6.51922e-06
-4.24334e-06
-9.0604e-06
4.08636e-06
3.28707e-06
-4.76923e-06
6.90269e-06
-1.27632e-05
-2.36316e-06
2.38546e-06
7.88154e-07
1.1909e-05
4.3814e-08
-5.68025e-06
-4.16429e-06
8.08623e-05
-3.07378e-06
-3.38298e-06
-6.31515e-06
-5.7136e-06
-2.52543e-06
-1.01157e-05
-7.11601e-06
-1.11874e-06
-8.55487e-07
3.64599e-05
-1.52015e-06
-2.72502e-06
-1.52944e-06
-1.05918e-06
-2.34039e-06
-1.71256e-06
-3.37106e-06
-7.01154e-07
-1.77839e-06
1.95539e-06
-2.9626e-06
2.82067e-06
1.61529e-08
3.32578e-07
-6.58032e-06
-2.58339e-06
-1.45928e-06
6.4587e-06
-5.01762e-06
2.11423e-06
-1.90291e-06
3.21896e-07
3.62892e-06
-9.28759e-07
6.26245e-07
7.23172e-07
-2.35137e-07
-1.84584e-07
2.91848e-07
7.15524e-07
-8.22309e-07
-2.35626e-05
1.46109e-06
-1.87107e-06
2.39725e-05
-1.91665e-06
-1.36553e-07
-2.2284e-05
-2.93534e-06
3.84648e-06
2.34261e-05
-1.93655e-06
-6.32311e-06
3.91673e-06
-2.75545e-06
1.76565e-06
5.33272e-06
-7.14621e-06
-3.07305e-06
3.34868e-07
4.02227e-06
4.66282e-06
1.1993e-06
1.41722e-06
-1.80487e-06
-3.03619e-05
1.11818e-06
4.00133e-07
2.92312e-05
5.67407e-06
-6.14028e-06
0.000109164
-2.72499e-06
-2.44834e-06
-5.09679e-07
1.76815e-06
-2.69253e-06
-3.80114e-06
-2.29205e-06
-2.54953e-06
-1.00481e-05
-1.48035e-05
0.000105712
1.5518e-06
-5.47518e-07
6.3279e-06
5.30859e-06
-4.4328e-06
-1.22715e-05
0.000123422
-1.64832e-06
-5.36109e-07
3.79577e-06
3.72235e-06
-4.59236e-06
1.22608e-06
-2.15573e-07
-1.18127e-05
1.69573e-06
-4.47994e-06
1.01641e-05
-7.71164e-06
1.88773e-06
-1.20417e-06
7.02807e-06
-1.27995e-06
-3.5833e-05
-4.48531e-07
5.02251e-06
2.97026e-07
3.22419e-05
-2.98687e-06
-6.45058e-06
7.76098e-05
-3.35889e-06
-9.10028e-07
-6.46004e-07
3.33843e-06
-2.77653e-07
-4.33034e-06
6.2294e-05
2.10907e-06
-1.41089e-06
3.92303e-05
2.68511e-06
4.51112e-06
5.3851e-06
-2.51434e-06
-1.46133e-07
-1.09222e-06
8.91206e-07
4.67766e-06
-4.42349e-07
-5.81766e-06
2.80022e-06
-9.68633e-06
-7.60112e-07
2.78664e-06
8.40842e-07
8.89818e-06
-2.07923e-06
-9.2745e-06
1.28903e-06
6.99999e-05
-1.62488e-06
7.33077e-07
3.35967e-06
4.14331e-06
2.17817e-07
3.01001e-06
2.55827e-06
-4.96699e-07
1.66493e-06
1.66888e-05
-4.00054e-07
-4.44151e-07
8.76896e-09
1.1262e-06
2.80061e-06
1.90663e-06
3.0056e-06
2.47193e-07
-2.84762e-07
-4.87561e-06
2.3252e-06
1.79855e-06
-7.39807e-07
-3.37458e-06
-1.06227e-06
3.0828e-06
-4.48124e-06
3.74974e-06
-1.04425e-06
4.34515e-06
-2.47212e-06
2.1362e-06
-1.30004e-06
1.55611e-06
6.83219e-07
2.65982e-07
-2.4652e-06
1.09092e-06
-9.02542e-08
-3.47108e-07
-6.53301e-07
-2.35761e-05
2.15013e-06
-1.83104e-06
2.3257e-05
-1.0498e-06
-9.64371e-07
-2.6077e-05
-1.63259e-06
1.35746e-06
2.83663e-05
1.06718e-06
-7.79928e-06
2.4522e-06
-1.88281e-06
-4.65314e-06
1.08158e-05
-5.14417e-06
1.44288e-06
-1.73803e-06
-2.8059e-06
6.46034e-06
1.78488e-06
4.60758e-07
-1.26695e-06
-2.87103e-05
1.62834e-06
-2.66068e-07
2.81542e-05
5.32119e-06
-5.90089e-06
0.000120358
-8.36311e-07
1.66818e-06
-5.88781e-07
2.77494e-06
-2.85151e-06
-4.10914e-06
-3.2112e-06
-3.46069e-06
-5.03094e-06
-1.73818e-05
0.000105827
6.77475e-06
6.26937e-06
7.44657e-06
7.12826e-06
5.24146e-07
-1.32549e-05
0.000114602
4.90203e-06
4.67703e-06
5.61084e-06
3.87552e-06
-9.21806e-07
-2.84339e-07
-1.33938e-06
-1.12192e-05
3.90155e-06
1.52355e-06
-7.29145e-06
1.36097e-05
9.56681e-08
-8.99712e-09
1.10638e-08
-1.01262e-07
-6.5594e-06
1.30172e-06
-1.07885e-06
6.33653e-06
-1.09794e-06
-3.08088e-05
1.25143e-06
2.51896e-06
-4.26297e-07
2.85626e-05
-7.85463e-06
-3.01085e-06
7.80272e-05
-1.18368e-06
2.97769e-06
-5.59394e-07
3.3126e-06
-2.36857e-07
-5.98609e-06
4.32805e-05
1.91656e-06
-8.99706e-07
2.59486e-05
1.37309e-06
5.87687e-07
2.33709e-07
-1.15926e-06
-1.14702e-06
-1.11517e-06
-6.13789e-06
4.25875e-06
1.14429e-06
-2.67682e-06
5.32823e-06
1.28893e-09
9.16475e-08
-1.6782e-08
-2.16056e-08
-6.71454e-08
-9.99626e-06
1.51674e-06
-1.49209e-06
-1.0951e-06
1.12661e-05
-1.99344e-07
-9.47532e-06
1.63067e-06
5.89074e-05
2.95761e-06
3.96444e-06
3.3949e-06
3.81484e-06
4.2367e-07
1.06229e-06
3.08532e-07
-5.42952e-07
1.11665e-07
4.81066e-07
2.99155e-07
-5.65641e-07
1.24279e-06
-6.4722e-08
4.24793e-07
-1.58768e-07
5.46028e-06
-1.95134e-07
-7.07464e-07
-6.00034e-06
4.27751e-06
1.35042e-07
-7.85045e-07
-3.62738e-06
-5.98705e-06
2.61976e-06
-1.48702e-06
6.48498e-06
-2.38692e-07
-3.42914e-08
2.17083e-06
-9.3012e-07
-8.56065e-07
2.71294e-06
1.03444e-06
-1.31634e-06
-2.43066e-06
-3.95462e-07
6.4738e-09
-1.1458e-06
1.53478e-06
-2.31739e-05
1.12253e-06
-1.34108e-06
2.33924e-05
-1.56349e-06
-5.59005e-07
-3.03986e-05
-1.1409e-06
1.46329e-06
3.21987e-05
3.10662e-06
-1.37748e-05
1.7624e-06
-1.39516e-06
-6.38454e-06
1.66855e-05
-9.09938e-06
2.79837e-06
-2.38465e-06
-5.0119e-06
1.1997e-05
1.70051e-06
2.47224e-07
-7.44391e-07
-2.73869e-05
1.63453e-06
-4.20256e-07
2.66698e-05
5.22011e-06
-6.48049e-06
0.000131611
-9.01294e-07
1.97447e-06
-8.77311e-07
2.77562e-06
-3.01608e-06
-4.55619e-06
-2.22877e-06
-3.16348e-06
-4.53026e-06
-1.89537e-05
0.000106531
6.87884e-06
6.61278e-06
7.33186e-06
7.17721e-06
-3.14187e-07
-1.04885e-05
0.000105354
5.21418e-06
4.55663e-06
5.6051e-06
4.19094e-06
-2.01617e-06
-1.82373e-07
-1.84723e-06
-1.54068e-05
5.30022e-06
1.01085e-06
-2.37854e-06
1.11601e-05
6.13431e-07
-4.74655e-07
1.11098e-06
-1.90439e-06
5.60196e-07
9.44335e-08
-6.32157e-06
-1.53742e-07
-5.73006e-08
6.53261e-06
1.25097e-06
-2.66384e-05
3.11675e-07
-1.60312e-07
8.75934e-08
2.51485e-05
-9.80652e-06
-2.25566e-06
7.56738e-05
-5.51396e-08
3.04422e-06
1.4541e-06
3.49191e-06
-5.23011e-06
-7.82823e-06
2.75786e-05
-9.44143e-07
-9.66743e-07
1.72127e-05
-2.93433e-07
-6.82246e-07
-9.80508e-08
-9.39903e-07
-1.49199e-06
-1.56615e-06
-4.3676e-06
1.40049e-06
-1.38203e-06
-5.35938e-07
3.94093e-06
-3.47963e-08
-3.11435e-07
7.54131e-07
-6.73804e-07
2.66864e-07
-9.59396e-10
-1.28712e-05
9.52212e-07
-1.45931e-06
-1.82749e-06
1.48592e-05
3.46589e-07
-5.5717e-06
1.21474e-06
4.52486e-05
2.71637e-06
3.3089e-06
2.59928e-06
2.82839e-06
9.33182e-07
1.81241e-06
1.56162e-06
-3.30604e-07
-6.48802e-07
-1.37336e-05
2.10928e-06
3.04299e-07
2.37747e-06
-1.48294e-06
-4.33764e-07
-1.08022e-06
6.0866e-06
6.21469e-09
-2.31661e-06
-5.07355e-06
2.91531e-06
1.23974e-06
-9.57424e-07
-3.59115e-07
-2.83851e-06
-7.28401e-07
2.59518e-07
-3.75417e-07
8.443e-07
-5.55726e-06
1.54568e-06
6.46111e-07
4.58021e-06
1.14231e-06
-1.63071e-06
4.19657e-06
-1.71712e-06
-2.63985e-06
2.0217e-06
3.71284e-06
-3.53796e-06
-2.19658e-06
-2.38204e-06
1.5221e-06
-2.28213e-06
3.14208e-06
-2.38728e-05
9.1387e-08
-7.14867e-07
2.44963e-05
-2.36343e-06
4.97269e-07
-3.38126e-05
-1.76668e-06
2.38949e-06
3.5056e-05
4.28524e-06
-1.94477e-05
1.7594e-06
-1.60745e-06
-6.59063e-06
2.16011e-05
-1.4578e-05
3.44518e-06
-2.42673e-06
-5.24228e-06
1.67516e-05
2.05026e-06
-3.07801e-08
-9.75425e-07
-2.63448e-05
8.24352e-07
5.23247e-08
2.64743e-05
4.68856e-06
-9.852e-06
0.000139697
-1.07507e-06
2.21634e-06
-9.78908e-07
3.16325e-06
-1.30834e-06
-3.06717e-06
-5.51413e-07
-1.32071e-06
-5.66472e-06
-1.41454e-05
0.000104574
6.35595e-06
6.23168e-06
7.14954e-06
6.71777e-06
-1.03315e-07
-8.86568e-06
9.16223e-05
5.09695e-06
4.05362e-06
5.6564e-06
3.88307e-06
-9.27133e-07
-3.41411e-07
-3.85914e-07
-1.04868e-05
1.12686e-07
-3.34486e-07
6.40455e-07
9.96487e-06
-4.04961e-07
7.38349e-07
8.95516e-07
-2.47135e-07
-1.49127e-06
5.09499e-07
-7.02847e-06
-1.2258e-06
5.35112e-07
7.71915e-06
2.5076e-06
-2.42769e-05
-1.16128e-06
-2.36191e-06
1.93545e-06
2.33571e-05
-1.06162e-05
4.26363e-07
6.44996e-05
1.78772e-06
3.25962e-06
2.69611e-06
3.76853e-06
-9.32663e-06
-4.77626e-06
1.69198e-05
-1.82652e-06
-1.90606e-06
1.24226e-05
-1.28407e-06
-1.78936e-06
-7.17323e-07
-1.91429e-06
-2.0608e-06
-1.90382e-06
-5.1792e-06
-5.39444e-07
-7.93397e-07
-1.06762e-06
5.75314e-06
9.71102e-07
2.18251e-06
-4.88439e-07
7.76298e-07
-1.6339e-06
-1.80757e-06
-1.72485e-05
-1.71834e-06
9.74391e-07
1.49341e-06
1.8508e-05
-2.00897e-06
2.53873e-06
3.48168e-06
3.02312e-05
-8.17312e-08
1.22075e-07
-2.5349e-07
-1.48479e-06
3.41084e-06
3.95603e-06
3.75434e-06
5.81303e-07
-7.02343e-07
-1.85263e-05
2.58751e-06
5.06798e-07
2.66066e-06
-1.22683e-06
-6.86616e-07
-1.16532e-06
4.70789e-06
1.16338e-06
-2.73937e-06
-4.45667e-06
2.54959e-06
1.8564e-06
-2.87315e-06
1.01377e-06
-2.5466e-06
-7.86193e-07
6.64909e-07
-7.46286e-07
3.55945e-07
5.11625e-07
-3.84129e-06
-2.82561e-07
3.41819e-06
4.18734e-06
3.31909e-06
-3.17363e-06
4.8422e-06
-2.22731e-06
-3.4627e-06
2.2926e-06
3.64708e-06
-3.71484e-06
-2.22484e-06
-3.92343e-06
2.41393e-06
-3.23083e-06
4.74033e-06
-2.51263e-05
-1.57489e-06
1.2634e-06
2.54378e-05
-2.50169e-06
1.79828e-06
-3.58774e-05
-2.47213e-06
2.82447e-06
3.62284e-05
4.745e-06
-2.36255e-05
1.90713e-06
-1.83782e-06
-6.47338e-06
2.52846e-05
-1.85369e-05
2.76456e-06
-1.67051e-06
-4.62815e-06
1.99016e-05
2.16941e-06
-8.24629e-07
3.75152e-08
-2.71183e-05
-6.26278e-07
2.6085e-07
2.82708e-05
2.72885e-06
-1.12191e-05
0.000146344
-1.10384e-06
2.25272e-06
-8.57762e-07
3.01847e-06
-1.47089e-07
-1.23797e-06
8.53143e-08
-1.66989e-07
-7.29458e-06
-1.28966e-05
0.000102061
6.24927e-06
5.77555e-06
6.9646e-06
6.44428e-06
-6.37715e-07
-9.23644e-06
8.16789e-05
5.06198e-06
3.26075e-06
5.25771e-06
2.08759e-06
-6.22055e-07
-1.40715e-06
-1.11587e-06
-1.1947e-05
5.04274e-07
3.01598e-07
7.57576e-07
9.74584e-06
-1.12001e-06
-3.43975e-07
5.32856e-07
-1.6863e-07
1.09976e-06
-8.39996e-06
-1.39815e-06
7.77416e-07
9.02069e-06
2.4158e-06
-2.2477e-05
-1.20027e-06
-2.59838e-06
2.33329e-06
2.15265e-05
-1.50449e-05
-8.43223e-07
5.36911e-05
2.83346e-06
3.82098e-06
3.95257e-06
4.8706e-06
-1.12526e-05
-6.23898e-06
6.46994e-06
-2.31831e-06
-2.44937e-06
6.63752e-06
-7.05832e-07
-1.80776e-06
-8.46317e-07
-2.09859e-06
-2.52976e-06
-1.94806e-06
-5.5992e-06
-2.52069e-07
-3.0049e-08
-9.61969e-07
4.52497e-06
1.92845e-06
3.97741e-07
-1.66997e-06
1.29992e-06
-9.44493e-08
-1.86169e-06
-1.88669e-05
-3.50974e-06
1.68119e-06
5.43622e-06
1.9014e-05
-3.75479e-06
7.08385e-06
3.84065e-06
1.65422e-05
-1.12531e-06
-3.18315e-06
-9.1347e-08
-3.35423e-06
3.07644e-06
3.80809e-06
2.79081e-06
6.64871e-07
-1.13646e-06
-1.8655e-05
2.59336e-06
4.94063e-07
2.61524e-06
-1.54313e-06
-1.20309e-06
-1.51124e-06
4.3906e-06
1.18687e-06
-3.04874e-06
-4.31324e-06
2.96989e-06
2.42355e-06
-2.54789e-06
-2.84556e-06
-5.35514e-06
-2.65319e-06
5.02229e-06
6.8267e-06
3.27725e-06
-4.26288e-06
5.65483e-06
-2.71006e-06
-3.09561e-06
2.08224e-06
3.97372e-06
-4.0469e-06
-2.00906e-06
-5.43383e-06
2.66975e-06
-3.29338e-06
6.05746e-06
-2.54281e-05
-2.6757e-06
2.8387e-06
2.52651e-05
-2.24749e-06
2.58137e-06
-3.62894e-05
-2.84483e-06
2.69115e-06
3.61092e-05
4.54534e-06
-2.6887e-05
1.69415e-06
-1.38495e-06
-6.06612e-06
2.80986e-05
-2.11639e-05
7.83049e-07
2.1824e-08
-3.3283e-06
2.2309e-05
1.37832e-06
-2.07822e-06
1.13855e-06
-2.97177e-05
-1.16304e-06
6.65609e-07
3.11548e-05
1.9345e-06
-5.555e-06
0.000150322
-1.08153e-06
1.66846e-06
-1.07378e-06
2.0808e-06
-1.41382e-07
-9.64669e-07
-4.14167e-07
-4.3123e-07
-6.79566e-06
-1.1619e-05
9.81608e-05
5.96161e-06
5.43991e-06
6.6606e-06
6.18696e-06
-1.2861e-06
-9.70105e-06
7.92604e-05
4.05567e-06
8.08207e-07
4.32609e-06
5.68221e-07
-1.56939e-06
-3.10178e-07
-1.26861e-06
-7.48836e-06
-1.85596e-06
1.50812e-06
6.55009e-06
-9.54891e-06
-1.32297e-06
9.07814e-07
9.96406e-06
2.04069e-06
-2.12612e-05
-3.63399e-07
-2.95883e-06
1.1789e-06
2.13638e-05
-1.52941e-05
1.29772e-06
4.30545e-05
3.85422e-06
4.82507e-06
4.84934e-06
5.54935e-06
-8.30354e-06
-6.9584e-06
-5.18128e-06
-6.11038e-07
-2.95536e-06
1.47478e-06
-6.18042e-07
-6.76408e-07
-6.26716e-07
-2.24103e-06
-3.03659e-06
-2.07666e-06
-3.62663e-06
-6.45544e-07
4.08797e-07
5.10575e-07
2.74177e-06
-1.94374e-05
-3.17713e-06
-2.015e-07
5.72493e-06
2.01787e-05
-3.08761e-06
8.49677e-06
2.52026e-06
6.80888e-06
4.90891e-07
-3.43549e-06
9.95641e-07
-3.10865e-06
1.51586e-06
2.08715e-06
1.46861e-06
5.58188e-07
-1.51415e-06
-1.67975e-05
2.5148e-06
4.45972e-07
2.53201e-06
-1.67995e-06
-1.52158e-06
-1.65442e-06
4.16957e-06
6.24826e-07
-3.24797e-06
-3.94361e-06
2.70004e-06
8.93841e-08
-8.80723e-07
-1.9087e-06
-8.49297e-06
-3.45006e-06
5.34625e-06
9.11705e-06
2.81789e-06
-4.66459e-06
5.97916e-06
-2.91391e-06
-2.73271e-06
1.87255e-06
4.08855e-06
-4.20986e-06
-1.75124e-06
-6.53569e-06
2.77546e-06
-3.1015e-06
6.86173e-06
-2.49658e-05
-2.33185e-06
2.9189e-06
2.43787e-05
-2.01198e-06
2.7415e-06
-3.57307e-05
-2.85563e-06
2.7525e-06
3.51043e-05
3.97304e-06
-2.91207e-05
1.3817e-06
-5.16205e-07
-5.47376e-06
2.9756e-05
-2.3416e-05
-2.20287e-07
1.61774e-06
-2.40837e-06
2.43326e-05
9.42937e-08
-2.65582e-06
1.47698e-06
-3.22086e-05
-7.77919e-07
1.13521e-06
3.30302e-05
1.2203e-06
4.40639e-06
0.000151728
-1.73193e-06
1.8392e-07
-2.084e-06
2.31616e-07
-6.1487e-07
-1.19833e-06
-9.1491e-07
-9.03689e-07
-6.62911e-06
-7.18177e-06
9.18621e-05
5.30912e-06
4.89363e-06
5.73622e-06
5.39089e-06
1.20478e-07
-5.09007e-06
7.36551e-05
2.88243e-06
-4.62254e-07
3.09737e-06
-7.34685e-07
-6.3548e-07
2.15534e-07
-4.17148e-07
-5.79894e-06
-1.98603e-06
2.44206e-06
5.46339e-06
-1.02734e-05
-1.36029e-06
1.19464e-06
1.0439e-05
1.05254e-06
-2.1938e-05
-6.46685e-08
-2.44842e-06
1.10675e-06
2.22918e-05
-4.00409e-06
8.65137e-06
3.01512e-05
3.17554e-06
3.62695e-06
3.35523e-06
2.50474e-06
-2.11289e-06
-4.07568e-06
-1.01786e-05
-1.62562e-07
-2.54141e-06
3.48004e-06
-1.9255e-07
-3.40358e-07
-4.87919e-07
-1.35401e-06
-2.78946e-06
-1.33994e-06
-2.18224e-06
-1.32481e-06
-1.03037e-07
1.14191e-06
2.30562e-06
-2.14431e-05
-2.41794e-06
-8.10912e-07
4.68947e-06
2.28486e-05
-2.86613e-06
1.05573e-05
1.89959e-06
4.343e-06
2.63084e-07
-3.08265e-06
-8.0608e-07
-3.32743e-06
1.77227e-06
1.85826e-06
1.98294e-06
6.94721e-07
-1.23212e-06
-1.08279e-05
2.38346e-06
4.50567e-07
2.27951e-06
-1.23451e-06
-1.35431e-06
-1.47535e-06
3.6487e-06
2.92625e-07
-3.02234e-06
-2.76567e-06
1.4991e-06
-2.38352e-07
-1.73866e-07
-1.08688e-06
-9.14711e-06
-3.21587e-06
5.45507e-06
8.8075e-06
2.63266e-06
-5.0366e-06
6.40859e-06
-2.97902e-06
-2.25775e-06
1.53149e-06
3.97543e-06
-4.51115e-06
-9.95769e-07
-7.04702e-06
2.71077e-06
-2.83916e-06
7.1754e-06
-2.34351e-05
-1.05838e-06
2.07203e-06
2.24214e-05
-1.97026e-06
2.32909e-06
-3.42246e-05
-2.62675e-06
3.11526e-06
3.33772e-05
3.08641e-06
-3.01001e-05
1.46204e-06
-1.08959e-07
-4.38838e-06
3.0049e-05
-2.49961e-05
-2.02313e-07
2.27318e-06
-1.75878e-06
2.54036e-05
-7.19578e-07
-2.66141e-06
1.1256e-06
-3.32841e-05
-1.10017e-07
1.90367e-06
3.30262e-05
1.70184e-06
8.5855e-06
0.000151992
-2.44987e-06
-1.51395e-06
-2.29847e-06
-6.99479e-07
-8.4318e-07
-1.3799e-06
-8.22631e-07
-5.44461e-07
-5.92849e-06
-4.62503e-06
8.75373e-05
4.1759e-06
3.83526e-06
4.41947e-06
4.14951e-06
3.15919e-07
9.21509e-07
6.67773e-05
1.62346e-06
-1.65436e-06
1.68983e-06
-1.73829e-06
-2.29488e-07
2.60405e-07
-2.39638e-07
-5.3242e-06
-2.14834e-06
2.4249e-06
5.36356e-06
-1.04005e-05
-1.63487e-06
1.84981e-06
1.01856e-05
-1.60618e-07
-2.26956e-05
-1.2349e-06
-1.58306e-06
2.25981e-06
2.34144e-05
6.89532e-06
1.17634e-05
1.71657e-05
1.52575e-06
6.40261e-07
1.17602e-06
-4.29785e-07
3.26309e-06
-3.30239e-06
-7.86899e-06
3.45963e-07
-1.83535e-06
1.11569e-05
4.27535e-07
2.77443e-07
1.22979e-07
-4.36522e-07
-1.9845e-06
-4.09797e-07
-2.325e-06
-1.24955e-06
-3.35902e-07
1.21223e-06
3.04419e-06
-2.38029e-05
-3.34231e-06
1.49124e-06
3.89247e-06
2.44927e-05
-2.73123e-06
1.3831e-05
2.31054e-06
6.78172e-06
-2.29997e-06
-4.08041e-06
-3.69753e-06
-4.6203e-06
2.52113e-06
2.69278e-06
2.66736e-06
1.02452e-06
-1.07116e-06
-1.25837e-06
2.17787e-06
7.51394e-07
1.75641e-06
-9.87599e-07
-1.19889e-06
-1.49342e-06
1.99369e-06
4.51133e-07
-2.68377e-06
-5.71893e-07
7.30664e-07
-5.91443e-07
-5.73925e-10
-1.38647e-07
-7.90021e-06
-3.49422e-06
6.83717e-06
6.86781e-06
1.76811e-06
-5.9116e-06
6.95624e-06
-3.168e-06
-7.15894e-07
5.1136e-07
3.88843e-06
-4.67221e-06
2.72423e-07
-7.26581e-06
2.63209e-06
-2.67069e-06
7.30441e-06
-2.15723e-05
-8.13808e-07
1.50499e-06
2.08811e-05
-1.93765e-06
1.78324e-06
-3.27523e-05
-2.4004e-06
2.86189e-06
3.24452e-05
2.24474e-06
-2.98385e-05
1.75622e-06
-3.43652e-07
-3.27484e-06
2.94561e-05
-2.54026e-05
1.40728e-07
2.04918e-06
-9.8224e-07
2.50106e-05
-8.15631e-07
-2.7052e-06
5.23264e-07
-3.22977e-05
2.59747e-07
2.90301e-06
3.13168e-05
4.34925e-06
8.1021e-06
0.000149543
-2.2814e-06
-1.73598e-06
-1.98276e-06
-5.78112e-07
-8.15433e-07
-1.17019e-06
-6.73327e-07
-7.65031e-07
-2.16302e-06
-5.00247e-06
8.57476e-05
3.32508e-06
2.95561e-06
3.66454e-06
3.35918e-06
5.29125e-07
3.47369e-06
6.22182e-05
6.0519e-07
-2.01735e-06
7.72757e-07
-1.87227e-06
1.62279e-07
4.97353e-07
2.45337e-07
-5.53226e-06
-1.96288e-06
2.04791e-06
5.97636e-06
-9.79972e-06
-1.99187e-06
2.55205e-06
9.23954e-06
-2.51939e-06
-2.39014e-05
-3.15591e-06
1.68828e-06
4.43447e-06
2.3454e-05
1.37835e-05
1.10102e-05
9.27539e-06
-1.21999e-06
-2.40903e-06
-1.80966e-06
-3.36257e-06
6.53438e-06
-4.35969e-06
-1.26267e-06
8.5004e-07
-1.34389e-06
2.0536e-05
7.72693e-07
7.55937e-07
4.60009e-07
1.62834e-07
-1.25553e-06
2.26869e-07
-3.52199e-06
-9.64047e-07
-3.50134e-07
1.18417e-06
4.50204e-06
-2.43713e-05
-4.5026e-06
4.53584e-06
4.36811e-06
2.37833e-05
-3.81333e-06
1.60652e-05
3.54774e-06
1.08421e-05
-5.19116e-06
-5.44898e-06
-6.00396e-06
-6.02939e-06
3.06439e-06
3.95067e-06
2.99539e-06
1.12033e-06
-1.04157e-06
1.07604e-05
1.63663e-06
1.0047e-06
1.12989e-06
-1.24519e-06
-1.09834e-06
-1.8198e-06
-7.34262e-07
5.3041e-07
-2.26085e-06
2.24114e-06
-3.09616e-07
-8.79012e-07
2.36276e-07
9.52352e-07
-5.78751e-06
-5.47875e-06
9.52875e-06
5.28525e-06
-4.80981e-07
-7.13564e-06
7.40028e-06
-3.20834e-06
2.38311e-06
-1.00445e-06
3.55402e-06
-4.38613e-06
1.83656e-06
-7.276e-06
2.43077e-06
-2.35143e-06
7.19667e-06
-2.01843e-05
-6.6205e-07
1.5007e-06
1.93457e-05
-1.7664e-06
9.34308e-07
-3.26079e-05
-2.136e-06
2.23147e-06
3.33445e-05
1.62204e-06
-2.90287e-05
1.99138e-06
-6.91258e-07
-2.31971e-06
2.84263e-05
-2.4167e-05
3.88366e-07
1.38386e-06
-2.70698e-07
2.29172e-05
-2.51733e-07
-2.70225e-06
3.9958e-07
-3.01377e-05
2.00696e-07
3.23491e-06
2.90047e-05
8.16846e-06
6.24748e-06
0.000142201
-1.78984e-06
-1.3495e-06
-1.27454e-06
2.52402e-09
-3.82189e-07
-1.58346e-06
-5.00058e-08
-6.46658e-07
6.40716e-06
-4.24486e-06
8.10557e-05
2.51809e-06
2.19993e-06
3.13869e-06
2.84135e-06
1.34281e-06
3.99589e-06
6.1045e-05
9.08259e-08
-1.44401e-06
3.66479e-07
-1.10081e-06
1.27836e-06
1.51449e-06
1.53626e-06
-6.36087e-06
-1.39833e-06
1.88946e-06
7.21255e-06
-8.4563e-06
-2.17047e-06
3.13172e-06
7.49505e-06
-3.72647e-06
-2.23217e-05
-3.96785e-06
3.17677e-06
5.71493e-06
2.11243e-05
1.68378e-05
7.92844e-06
6.61305e-06
-2.85898e-06
-5.03077e-06
-2.22435e-06
-5.74228e-06
8.95224e-06
-5.14673e-06
7.52474e-06
1.12829e-06
-7.96913e-07
3.00484e-05
8.45121e-07
9.56847e-07
5.09322e-07
6.24339e-07
-5.33881e-07
7.02564e-07
-5.30682e-06
-1.10745e-06
-5.15708e-07
1.5003e-06
6.55797e-06
-2.25905e-05
-5.76668e-06
6.36222e-06
6.86449e-06
2.07265e-05
-5.59596e-06
1.58594e-05
3.99861e-06
1.7623e-05
-7.23166e-06
-6.74795e-06
-7.39987e-06
-7.08811e-06
3.00985e-06
3.94848e-06
2.79876e-06
1.0259e-06
-9.50843e-07
2.35947e-05
9.56239e-07
1.05969e-06
5.96421e-07
-1.65752e-06
-1.13923e-06
-2.01226e-06
-3.709e-06
4.55754e-07
-1.54128e-06
5.02351e-06
-1.48065e-06
-1.19951e-06
5.20849e-07
2.15931e-06
-5.59584e-06
-7.76802e-06
1.09001e-05
6.46233e-06
-4.62334e-06
-7.10908e-06
6.6013e-06
-3.00114e-06
7.18142e-06
-2.49332e-06
2.78562e-06
-3.3839e-06
3.0916e-06
-7.04468e-06
1.81838e-06
-1.63726e-06
6.86356e-06
-1.84111e-05
-4.51784e-07
1.30588e-06
1.7557e-05
-1.19233e-06
5.19149e-08
-3.45857e-05
-1.4008e-06
1.22862e-06
3.58983e-05
9.95838e-07
-2.79211e-05
1.71125e-06
-6.26375e-07
-1.58332e-06
2.74237e-05
-2.15316e-05
3.33006e-07
1.01594e-06
1.29745e-07
2.02112e-05
-1.58337e-07
-2.22597e-06
7.59968e-07
-2.8135e-05
-5.35896e-07
2.72021e-06
2.74167e-05
1.14486e-05
4.05779e-06
0.000124025
-1.10417e-06
-2.36875e-07
-4.21398e-07
2.08121e-06
2.32867e-07
-4.43163e-07
7.06285e-07
1.85479e-06
1.59951e-05
-2.11881e-06
7.1122e-05
1.7404e-06
1.43192e-06
2.33191e-06
2.00176e-06
2.66132e-06
4.73697e-06
6.245e-05
-3.88481e-07
-5.93937e-07
-1.28649e-07
-3.99486e-07
2.80577e-06
2.84899e-06
3.04768e-06
-7.9057e-06
-6.62809e-07
2.08845e-06
9.14139e-06
-6.64345e-06
-1.6556e-06
2.09969e-06
6.19936e-06
-1.78171e-06
-1.98618e-05
-3.59479e-06
1.54585e-06
5.12367e-06
1.85687e-05
1.60154e-05
3.55185e-06
9.85791e-06
-2.55092e-06
-6.67161e-06
-3.15325e-06
-6.37857e-06
9.08986e-06
-5.51271e-06
1.78442e-05
1.04928e-06
-1.82724e-07
3.90989e-05
6.2416e-07
8.83812e-07
3.01017e-07
9.4532e-07
1.67033e-07
9.88434e-07
-7.68752e-06
-1.56258e-06
-8.57981e-07
2.04707e-06
9.1103e-06
-1.84571e-05
-5.70202e-06
6.35364e-06
7.55828e-06
1.58887e-05
-5.64145e-06
1.15286e-05
3.34054e-06
2.51864e-05
-6.86141e-06
-6.47268e-06
-5.42145e-06
-5.74702e-06
1.94771e-06
2.48199e-06
1.19208e-06
7.26624e-07
-1.14892e-06
3.35331e-05
3.44645e-07
8.30384e-07
1.08366e-07
-1.70172e-06
-1.29284e-06
-1.78897e-06
-6.48799e-06
2.3234e-07
-7.17554e-07
7.51711e-06
-2.75939e-06
-1.50181e-06
8.33736e-07
3.42747e-06
-7.70353e-06
-7.12068e-06
8.88556e-06
9.2792e-06
-9.37334e-06
-5.10355e-06
4.79918e-06
-2.33113e-06
1.08599e-05
-3.53245e-06
1.75401e-06
-2.17753e-06
3.95596e-06
-6.73001e-06
1.22253e-06
-1.20373e-06
6.71121e-06
-1.69861e-05
-7.2235e-07
9.1444e-07
1.6794e-05
5.19339e-08
-8.37976e-08
-3.69984e-05
-3.99884e-07
4.48565e-08
3.73853e-05
8.92319e-07
-2.70763e-05
8.47758e-08
6.30919e-07
-1.275e-06
2.67432e-05
-1.92856e-05
8.43691e-08
1.03003e-06
3.82778e-07
1.87403e-05
-9.51895e-07
-8.73276e-07
1.19583e-06
-2.71335e-05
-1.40468e-06
1.1625e-06
2.70531e-05
1.52778e-05
-5.77498e-07
9.86566e-05
-1.79904e-07
1.80423e-06
6.13874e-07
3.28559e-06
6.10699e-07
1.461e-06
1.53203e-06
1.54055e-06
1.86438e-05
-7.42254e-07
6.39571e-05
9.3221e-07
7.69106e-07
1.60743e-06
1.23256e-06
3.12914e-06
5.74877e-06
6.44061e-05
-8.45604e-07
-3.01009e-07
-3.60551e-07
-2.91552e-07
3.29061e-06
3.03567e-06
3.28216e-06
-1.01858e-05
-2.49457e-07
2.33536e-06
1.12291e-05
-5.93197e-06
-1.13908e-06
1.53066e-06
5.54039e-06
-2.4332e-06
-1.75601e-05
-2.01534e-06
3.21807e-06
2.30859e-06
1.6482e-05
1.09728e-05
-1.04333e-06
1.64017e-05
-4.60397e-06
-4.88573e-06
-4.05851e-06
-3.50251e-06
6.63856e-06
-5.40873e-06
2.68449e-05
6.81912e-07
3.27553e-07
4.65711e-05
2.92197e-07
5.68565e-07
9.12985e-08
1.11628e-06
7.0549e-07
1.13188e-06
-1.04866e-05
-1.9919e-06
-1.20775e-06
2.51163e-06
1.18566e-05
-1.32442e-05
-3.08147e-06
3.65757e-06
4.29283e-06
1.08012e-05
-2.42595e-06
6.26298e-06
1.3613e-06
2.78462e-05
-3.54271e-06
-3.93561e-06
-2.35781e-06
-2.94286e-06
4.95161e-07
6.91174e-07
2.65242e-07