/*--------------------------------*- C++ -*----------------------------------*\
| =========                 |                                                 |
| \\      /  F ield         | OpenFOAM: The Open Source CFD Toolbox           |
|  \\    /   O peration     | Version:  5.x                                   |
|   \\  /    A nd           | Web:      www.OpenFOAM.org                      |
|    \\/     M anipulation  |                                                 |
\*---------------------------------------------------------------------------*/
FoamFile
{
    version     2.0;
    format      ascii;
    class       volVectorField;
    location    "1";
    object      U;
}
// * * * * * * * * * * * * * * * * * * * * * * * * * * * * * * * * * * * * * //

dimensions      [0 1 -1 0 0 0 0];

internalField   nonuniform List<vector> 
10571
(
(-0.430923 0.101862 0.766773)
(-0.604337 0.305387 1.38711)
(-3.29658 -0.559926 2.28226)
(-0.681491 -0.169578 0.832347)
(0.0149777 0.092184 1.63041)
(-0.736815 -0.965293 1.75166)
(-1.43141 -0.713835 1.18121)
(-1.39774 -0.781602 1.56081)
(-0.518171 -0.74289 1.3344)
(-0.117139 -0.291415 0.840956)
(0.143388 -0.15826 0.6514)
(-0.980627 -1.96936 2.13932)
(-1.42449 -0.910331 1.56874)
(-0.684415 -0.716489 1.41633)
(-0.477737 -0.538167 1.29091)
(0.015628 -0.218997 1.02931)
(-0.294101 -0.58583 1.1335)
(-0.595816 -0.619855 1.40123)
(-0.300057 -0.534466 1.24017)
(-0.0993842 -0.304143 0.954392)
(0.00744833 -0.0797299 0.705985)
(-0.284659 -0.211159 1.12115)
(-0.149758 0.00466266 0.75808)
(0.0136115 -0.0797518 0.726393)
(-0.193816 -0.0936678 0.749672)
(-0.440834 0.532419 2.08507)
(0.149158 -0.0795125 1.26634)
(-0.422432 -0.307603 0.796594)
(-0.155575 -0.502337 1.51298)
(-0.608884 -0.855949 2.91522)
(-0.177504 -0.208286 0.811852)
(-0.25481 -0.246881 0.95665)
(0.0522055 -0.138223 0.98534)
(-0.0120124 0.00696567 1.21625)
(-0.0252162 0.080391 1.21881)
(-0.454382 0.0902846 2.2456)
(-0.229812 -0.241157 0.818285)
(-0.201162 -0.138511 0.986252)
(0.0484175 -0.120008 0.863529)
(0.0694294 -0.188634 0.801273)
(-0.277573 -0.194048 0.97946)
(-0.229447 -0.163016 0.834227)
(-0.125205 -0.0359148 0.787422)
(-0.100583 -0.141505 0.745232)
(0.0885013 -0.097411 0.679169)
(-0.244153 -0.178355 0.843223)
(-0.0792928 -0.055585 0.664284)
(-0.0224255 -0.00424069 0.486293)
(-0.213353 -0.218612 0.918375)
(0.177515 -0.185392 2.35579)
(0.43788 -0.429495 1.1875)
(-0.335821 -0.228173 1.00233)
(-0.240483 -0.139871 1.24591)
(0.213556 1.11024 2.73549)
(0.0383 -0.0286604 0.948634)
(-0.123303 -0.0825293 0.793338)
(-0.140861 0.0286472 0.914435)
(-0.213795 0.0779323 1.21258)
(0.0215808 0.76686 2.165)
(-0.2692 -0.0639159 1.88043)
(-0.0832476 -0.189345 0.72592)
(-0.126783 -0.216596 0.652848)
(-0.155719 -0.322523 0.532716)
(-0.125263 -0.269274 0.790199)
(-0.137461 -0.125777 0.566917)
(-0.151411 -0.229688 0.65423)
(-0.24572 -0.250893 0.48304)
(-0.214693 -0.350772 0.646811)
(0.0896416 -0.120298 0.776159)
(-0.295004 -0.206538 0.752417)
(-0.169154 -0.158454 0.651087)
(-0.0506959 -0.0144671 0.440075)
(-0.0579673 0.0562526 0.983015)
(0.143981 -0.20954 2.84919)
(-0.345448 0.181205 1.47385)
(-0.182472 0.150648 0.915831)
(-0.0409589 -0.05955 0.8551)
(0.00233617 -0.215627 2.74254)
(0.299965 0.0984139 1.46924)
(-0.106249 -0.0436686 1.43139)
(-0.366332 0.166269 1.94028)
(-0.183867 0.433872 1.56801)
(-0.220486 -0.163228 0.946616)
(0.238609 -0.672631 1.57631)
(0.344484 -0.337688 1.17945)
(-0.0902317 -0.256958 1.48221)
(-0.209509 -0.674975 1.4954)
(0.0791778 -0.555301 0.95892)
(0.120685 -0.00682263 0.300633)
(0.0245247 -0.39801 1.41497)
(-0.322658 -0.311962 1.06226)
(-0.108711 -0.252645 0.13047)
(-0.00575596 -0.240813 0.231945)
(0.0852946 -0.245092 0.800261)
(-0.252086 -0.0211844 0.264262)
(-0.0721355 -0.0573248 0.0863812)
(0.0871399 0.00195976 -0.0475825)
(0.095737 -0.169285 1.55332)
(-0.0656675 0.157738 0.934096)
(-0.243669 0.218423 0.226384)
(-0.02391 0.230968 0.0881734)
(0.0161336 -0.262739 1.1359)
(0.223652 -0.101976 0.79666)
(-0.0692602 -0.289513 0.900167)
(-0.237067 -0.152139 1.11133)
(-0.439778 -0.0876829 0.420175)
(-0.0184345 -0.231051 1.08391)
(0.256821 -0.262229 1.54161)
(0.0160067 -0.126749 0.566019)
(-0.14878 -0.259943 0.52262)
(0.104366 -0.352381 0.29709)
(0.0771719 -0.403562 0.042134)
(0.0831163 0.046782 0.353879)
(-0.216576 -0.095945 0.612841)
(-0.129539 0.105165 0.170709)
(-0.000855601 0.0107643 -0.444149)
(0.0388098 -0.0795504 -0.252355)
(-0.270486 0.178034 0.0880042)
(-0.271078 0.0862703 -0.233173)
(0.0249177 -0.0333956 -0.166977)
(-0.0230005 -0.019275 -0.147092)
(0.105712 -0.197299 1.75308)
(-0.00724852 0.0642927 1.20545)
(-0.130746 -0.174659 0.415028)
(-0.145915 -0.0410644 0.20842)
(0.0306933 -0.103388 1.28321)
(0.208274 -0.113669 1.15253)
(-0.0175756 -0.36087 1.084)
(-0.172025 -0.27495 1.33519)
(0.0803364 -0.299223 0.609907)
(-0.00659068 0.00308768 -0.00210624)
(-0.0391532 -0.153594 0.898025)
(0.161434 -0.237612 1.28151)
(-0.0860726 -0.0782818 0.834955)
(-0.185208 -0.264161 0.599432)
(0.140555 -0.201457 0.42772)
(0.0871094 -0.273441 0.225319)
(-0.00364283 -0.00138163 -0.00280818)
(-0.0239184 -0.120068 0.405379)
(-0.261164 -0.0308998 0.712576)
(-0.0687818 0.0350194 0.107145)
(-0.0356792 -0.0166845 -0.319156)
(0.0588761 -0.00662924 -0.291403)
(-0.170506 0.20017 0.322622)
(0.0828229 -0.00573618 -0.0757063)
(0.0803331 -0.0490918 -0.28272)
(-0.109565 -0.0183985 0.158451)
(0.0562886 -0.157308 1.67119)
(0.00702459 0.10888 1.36168)
(-0.0825312 -0.358811 0.672998)
(-0.159418 -0.242032 0.421222)
(0.0251171 -0.0750123 1.16408)
(0.208976 -0.096896 1.33521)
(-0.0124275 -0.421043 1.11389)
(-0.139718 -0.32947 1.27367)
(0.070066 -0.244607 0.565305)
(-0.105818 0.0290687 -0.010495)
(-0.0181174 0.150814 0.920857)
(-0.0693056 -0.0685658 1.14921)
(-0.150338 -0.104329 0.813657)
(-0.178363 -0.206235 0.337765)
(-0.00389484 -0.0205448 0.186184)
(-0.099219 -0.0758571 0.166952)
(-0.0495941 0.00414729 0.00699312)
(-0.0138416 -0.125357 0.535759)
(-0.228519 0.0189043 0.575123)
(0.0224597 -0.0930686 -0.0928878)
(-0.0590598 -0.110344 -0.252533)
(0.0127753 -0.0824985 -0.194458)
(-0.0545658 0.0278293 0.0500098)
(-0.00996429 0.129724 0.240182)
(0.248256 0.0049346 -0.0870111)
(0.337814 -0.173929 -0.187448)
(-0.247893 -0.0353115 0.396958)
(0.00850889 -0.122879 1.77186)
(-0.0755859 0.193033 1.52375)
(-0.07857 -0.411229 0.910407)
(-0.17524 -0.305595 0.627801)
(0.057245 -0.0574994 1.16259)
(0.191679 -0.105902 1.37078)
(-0.0230408 -0.417418 1.08892)
(-0.134396 -0.338735 1.09492)
(0.0439973 -0.00930734 0.54514)
(-0.0331346 -0.057507 0.0155426)
(-0.00613939 0.285706 1.05704)
(-0.196485 0.104138 1.05904)
(-0.183842 -0.217646 0.732199)
(-0.172593 -0.0536266 0.216871)
(-0.152424 0.00839205 0.171913)
(-0.112833 -0.00420666 0.263505)
(0.0611147 -0.12445 -0.0672989)
(0.144865 0.14056 0.707434)
(0.0288447 0.220871 0.40689)
(0.0555195 -0.128536 -0.18895)
(0.0226354 -0.203046 -0.206982)
(0.125175 -0.17706 -0.146011)
(0.060379 -0.0200177 0.0334826)
(0.14929 0.260754 0.181609)
(0.353133 0.0232031 -0.141882)
(0.346161 -0.157798 -0.209004)
(-0.345279 -0.0720364 0.618257)
(-0.0683624 0.0262065 1.84899)
(-0.162457 0.231237 1.58372)
(-0.100812 -0.41624 1.08093)
(-0.177848 -0.251257 0.746617)
(-0.0177568 -0.00380254 1.21422)
(0.152425 -0.129637 1.40632)
(-0.0369617 -0.37794 1.0594)
(-0.154497 -0.321035 0.90928)
(-0.00783163 0.0503814 0.464256)
(0.0726367 0.0138337 0.0624778)
(-0.000900836 0.29094 1.24594)
(-0.21261 0.141559 0.968566)
(-0.295316 -0.235997 0.594693)
(-0.217688 -0.0591225 0.135495)
(-0.173824 -0.0428325 0.111866)
(-0.153295 -0.0318151 0.262306)
(0.114613 0.00623838 -0.0517364)
(0.20683 0.358387 0.746204)
(0.185775 0.192993 0.224891)
(0.0641113 -0.170191 -0.201569)
(0.0234194 -0.233101 -0.193514)
(0.097593 -0.186468 -0.211671)
(0.286439 0.300268 0.30198)
(0.421068 -0.00128475 -0.128781)
(0.369987 -0.173277 -0.187084)
(-0.365218 -0.0761919 0.824708)
(-0.141815 0.137032 1.84793)
(-0.207553 0.219984 1.59047)
(-0.071323 -0.38599 1.21543)
(-0.0950392 -0.142104 0.852149)
(-0.0768302 0.101835 1.33634)
(0.158014 -0.13208 1.47294)
(-0.0634436 -0.361334 0.988412)
(-0.127168 -0.25141 0.842234)
(0.00314929 0.133878 0.357162)
(0.00643408 0.273 1.39357)
(-0.189202 0.0640912 0.923569)
(-0.353226 -0.0437598 0.45544)
(-0.153347 -0.0438847 -0.00904155)
(-0.146313 -0.131812 0.0244822)
(0.0259992 0.0412022 0.114116)
(0.153306 0.349912 0.767272)
(0.248666 0.0805142 0.108561)
(0.0722834 -0.200993 -0.200294)
(0.00890305 -0.23923 -0.174832)
(0.00389176 -0.0632471 -0.179832)
(0.320702 0.216032 0.443534)
(0.437293 -0.022226 -0.110929)
(0.380754 -0.173094 -0.164434)
(-0.373918 -0.0694834 0.965448)
(-0.116112 0.148002 1.81007)
(-0.220221 0.194483 1.56264)
(-0.0173226 -0.337861 1.30223)
(0.030052 -0.0852099 0.939477)
(-0.0725638 0.174224 1.43986)
(0.147616 -0.072113 1.53653)
(-0.0869641 -0.297315 0.953767)
(-0.120848 -0.101676 0.828171)
(0.0747933 0.181469 0.28454)
(0.0160732 0.269206 1.4856)
(-0.102726 0.0214284 0.96823)
(-0.138972 0.230115 0.399623)
(0.0133555 0.0509454 -0.10078)
(-0.0903054 -0.0970303 0.00540202)
(0.0388135 0.116511 0.0839204)
(0.0594199 0.280835 0.858222)
(0.304382 0.0716856 0.0390511)
(0.0920225 -0.183964 -0.153527)
(0.0232261 -0.205575 -0.133704)
(0.00466885 0.0068779 -0.110058)
(0.311353 0.154956 0.455244)
(0.4676 -0.00295284 -0.0971797)
(0.387898 -0.162843 -0.115159)
(-0.360627 -0.0638755 1.01863)
(-0.00921451 0.0983954 1.67097)
(-0.193064 0.180288 1.482)
(-0.00412993 -0.259334 1.33102)
(0.108009 -0.0547046 0.989953)
(-0.028411 0.21245 1.46866)
(0.131758 -0.0393648 1.53609)
(-0.0715809 -0.228818 0.906237)
(-0.114264 0.0561662 0.741344)
(0.0811987 0.18354 0.269806)
(0.031393 0.291748 1.48124)
(-0.0276421 0.12376 1.01497)
(0.12964 0.316281 0.227156)
(0.117253 0.0733808 -0.100002)
(-0.0021239 -0.0241063 0.0740166)
(0.0474766 0.114368 0.101136)
(0.13471 0.230111 0.953507)
(0.394523 0.0917245 0.053698)
(0.124888 -0.170929 -0.0704928)
(0.0505969 -0.164734 -0.0496172)
(0.000657794 0.0503842 -0.0326608)
(0.385018 0.185377 0.369727)
(0.513062 0.00872136 -0.050591)
(0.375948 -0.165634 -0.0185017)
(-0.350505 -0.0630075 1.04688)
(-0.0108095 0.0555468 1.54816)
(-0.15453 0.156449 1.42604)
(-0.0353921 -0.184775 1.3058)
(0.133225 -0.0178938 0.989575)
(0.0220951 0.241222 1.40657)
(0.133733 -0.0243698 1.50754)
(0.00493563 -0.215379 0.870849)
(-0.0680809 0.110646 0.67127)
(0.0806162 0.166809 0.291081)
(0.0377607 0.324351 1.37566)
(0.218064 0.311153 1.06128)
(0.321628 0.276627 0.119063)
(0.170698 0.0458305 -0.0525222)
(0.055826 0.0227327 0.166354)
(0.0702741 0.0996464 0.157931)
(0.294626 0.268725 0.955821)
(0.479013 0.101928 0.0921885)
(0.129058 -0.175377 0.0457113)
(0.0651564 -0.134124 0.0706141)
(-0.0115926 0.0842143 0.0574467)
(0.591134 0.300255 0.273004)
(0.590934 0.0167496 0.0512554)
(0.343184 -0.164551 0.125975)
(-0.327493 -0.0503876 1.03881)
(-0.0421235 0.0555483 1.44388)
(-0.109594 0.117822 1.4391)
(-0.0639918 -0.127718 1.26596)
(0.0761562 0.0320623 0.920784)
(0.0410728 0.253448 1.29931)
(0.0886302 -0.0142507 1.48143)
(0.171517 -0.163122 0.855488)
(0.0610693 0.0925883 0.649256)
(0.106078 0.138665 0.344678)
(0.0481206 0.345412 1.14461)
(0.310982 0.394976 0.951432)
(0.402801 0.200398 0.0619525)
(0.205985 0.0128667 0.0274171)
(0.0978977 0.0599634 0.263599)
(0.0801134 0.122105 0.235551)
(0.362072 0.417088 0.859431)
(0.492689 0.0729534 0.144925)
(0.109385 -0.167072 0.18462)
(0.0692187 -0.0936282 0.198033)
(-0.0247651 0.114125 0.168269)
(0.712346 0.348742 0.30063)
(0.557488 0.0206712 0.231949)
(0.262537 -0.150421 0.255139)
(-0.218816 -0.0285974 0.995757)
(-0.0563976 0.0627794 1.30738)
(-0.0329085 0.0670428 1.55015)
(-0.0606893 -0.0504987 1.21761)
(0.0554398 0.0395035 0.814328)
(-0.0286795 0.21833 1.21794)
(0.0171604 0.018979 1.36978)
(0.345558 -0.0387907 0.769178)
(0.218172 0.0836167 0.651101)
(0.172576 0.117078 0.435892)
(0.0294561 0.304553 0.904726)
(0.157582 0.354058 0.849115)
(0.38945 0.0962347 0.0739611)
(0.19255 -0.0363073 0.128693)
(0.116421 0.0851704 0.364553)
(0.0673228 0.171956 0.330946)
(0.35618 0.439032 0.667903)
(0.369255 0.0253667 0.227929)
(0.0686701 -0.133753 0.306959)
(0.0606708 -0.0401842 0.312547)
(-0.0389108 0.137378 0.283374)
(0.61098 0.304297 0.420337)
(0.38773 -0.0208939 0.403061)
(0.15747 -0.110578 0.340917)
(-0.117777 -0.0263176 0.958528)
(-0.0772105 0.0520194 1.22547)
(0.0114345 -0.00973365 1.64146)
(0.0579935 -0.0402725 1.18324)
(0.0931805 0.0294182 0.73909)
(-0.0901622 0.0762771 1.18718)
(0.0920812 0.00241474 1.1067)
(0.394407 0.0528411 0.664317)
(0.258269 0.102759 0.665312)
(0.203766 0.111488 0.544003)
(0.00804181 0.193308 0.836377)
(0.167552 0.207077 0.742325)
(0.264848 -0.0312725 0.137296)
(0.131009 -0.0777199 0.229676)
(0.0983904 0.0992112 0.45819)
(0.0411382 0.21436 0.440052)
(0.2341 0.227798 0.466025)
(0.199834 -0.00652654 0.296835)
(0.0305872 -0.0944758 0.391494)
(0.04105 0.0112566 0.409012)
(-0.0470976 0.147326 0.394651)
(0.321682 0.130901 0.55292)
(0.249145 -0.0416068 0.464821)
(0.0754918 -0.0657127 0.408012)
(-0.0356906 -0.0350574 0.989265)
(-0.102133 0.0533096 1.24896)
(-0.0409372 -0.0750253 1.62192)
(0.138091 -0.0791727 1.1834)
(0.112531 0.026623 0.722695)
(-0.0862026 -0.0175261 1.22113)
(0.120435 -0.0328424 0.838949)
(0.30668 0.0902163 0.617672)
(0.238697 0.119747 0.682981)
(0.163649 0.115391 0.632304)
(0.000561755 -0.16155 0.744478)
(-0.0330163 -0.056956 0.663182)
(0.0843659 -0.140728 0.181653)
(0.0652049 -0.112118 0.307426)
(0.0586039 0.0732124 0.523962)
(0.017271 0.210293 0.54587)
(0.0459949 -0.0143301 0.300085)
(0.128923 -0.0629196 0.283652)
(0.00652779 -0.0757482 0.42468)
(0.0151504 0.0405499 0.485218)
(-0.0491748 0.141006 0.493006)
(0.112235 0.0321645 0.54742)
(0.139757 -0.0267618 0.478237)
(0.027977 -0.0346921 0.463012)
(-0.0257945 -0.0339324 1.06526)
(-0.134188 0.0651535 1.38971)
(-0.0787048 -0.114819 1.60246)
(0.135859 -0.0689471 1.20576)
(0.131015 0.00527857 0.738335)
(-0.0335424 -0.0356496 1.39739)
(-0.0432218 0.00113628 0.730458)
(0.049419 0.0884334 0.561694)
(0.142372 0.134082 0.701044)
(0.119597 0.15262 0.70754)
(-0.0192401 -0.156328 0.828149)
(-0.199824 -0.185652 0.599904)
(-0.0583549 -0.191619 0.202574)
(0.0147749 -0.151537 0.349345)
(0.00361387 0.0120902 0.571965)
(-0.0201094 0.152453 0.630411)
(-0.0866407 -0.217796 0.193536)
(0.0908237 -0.155168 0.178146)
(-0.0051624 -0.0757239 0.426395)
(0.00285959 0.0369328 0.53608)
(-0.0419511 0.115564 0.560294)
(0.00162112 0.0216168 0.449714)
(0.0792679 -0.00628949 0.461762)
(0.0122019 -0.0233596 0.502938)
(-0.018567 -0.0162997 1.07045)
(-0.171674 0.114149 1.5463)
(-0.0829022 -0.105464 1.60775)
(0.0576768 -0.0104898 1.22043)
(0.166461 -0.0446972 0.780992)
(-0.0249191 0.0536832 1.59176)
(-0.266882 0.0816647 0.70516)
(-0.149907 0.0468614 0.530665)
(-0.0302251 0.0942601 0.692347)
(-0.0558041 0.153288 0.746717)
(-0.0169874 0.273384 0.986588)
(-0.313092 -0.195922 0.642)
(-0.179028 -0.19957 0.210767)
(-0.0334195 -0.179899 0.366965)
(-0.0415791 -0.0439475 0.596367)
(-0.0204402 0.0959222 0.66152)
(-0.0559491 -0.281008 0.113982)
(0.075783 -0.193591 0.0755169)
(0.00420588 -0.0928901 0.406897)
(0.00290286 0.0133456 0.55833)
(-0.0344577 0.0850478 0.597801)
(-0.00070368 -0.0494901 0.2937)
(0.0666597 0.00889372 0.418351)
(0.0215172 -0.0249555 0.524081)
(0.00103272 -0.0166161 0.962199)
(-0.21956 0.188691 1.66057)
(-0.11373 -0.0485972 1.60639)
(0.0472154 -0.0915637 1.13153)
(0.126212 -0.0271355 0.857303)
(-0.0484701 0.10513 1.73667)
(-0.395196 0.157363 0.708693)
(-0.244462 -0.00389862 0.498275)
(-0.126262 0.0719524 0.68065)
(-0.0916717 0.170052 0.613199)
(-0.00154848 0.528257 1.16156)
(-0.423534 -0.0853454 0.78777)
(-0.250953 -0.146552 0.22533)
(-0.0596784 -0.197344 0.351188)
(-0.0642756 -0.0861732 0.595745)
(-0.00470685 0.0734237 0.654855)
(0.146957 -0.0978685 0.0956508)
(0.0937644 -0.167804 0.00534083)
(0.0541967 -0.12021 0.369043)
(0.00807303 -0.0228853 0.573069)
(-0.0233393 0.0542432 0.610895)
(0.0323219 -0.0275815 0.10239)
(0.106188 0.00320464 0.361838)
(0.0543268 -0.0388307 0.530599)
(0.0229941 -0.0411953 1.02344)
(-0.290961 0.266641 1.68164)
(-0.191043 0.00902053 1.61482)
(0.0118319 -0.123803 0.895248)
(0.00785809 -0.0189613 0.931309)
(-0.104124 0.223002 1.81098)
(-0.428331 0.191609 0.723214)
(-0.274926 -0.0370989 0.470465)
(-0.147048 0.0638154 0.651657)
(0.0102321 0.175494 0.511791)
(0.0279438 0.575186 1.30308)
(-0.444846 0.146996 1.01438)
(-0.220554 -0.0483379 0.249334)
(-0.0525977 -0.194608 0.327029)
(-0.0548663 -0.112541 0.590082)
(0.0130988 0.02923 0.660754)
(0.347459 0.216332 0.196443)
(0.171805 -0.0908737 -0.018329)
(0.116259 -0.129134 0.345066)
(0.0289918 -0.0565421 0.593219)
(-0.0137679 0.0255154 0.617084)
(0.144128 0.0573881 0.00478896)
(0.162738 -0.0163641 0.286904)
(0.108058 -0.0665397 0.526582)
(0.0159288 -0.0190516 1.11542)
(-0.372097 0.338808 1.64988)
(-0.230772 -0.0304273 1.48219)
(-0.345358 0.0208926 0.798605)
(-0.296977 0.0274325 0.827088)
(-0.119176 0.409527 1.81712)
(-0.389267 0.191935 0.746145)
(-0.25926 -0.0714245 0.452573)
(-0.146148 0.0210416 0.635929)
(0.00613177 -0.031322 0.503747)
(0.0275195 0.623443 1.35346)
(-0.267109 0.460753 1.23801)
(-0.0123248 0.0868825 0.271603)
(0.0104296 -0.147396 0.321777)
(-0.0167315 -0.129221 0.601942)
(0.0312323 -0.0517647 0.64318)
(0.485089 0.490845 0.288152)
(0.280135 0.000311227 0.0268986)
(0.168305 -0.122153 0.346989)
(0.0640203 -0.0870756 0.614712)
(0.0305912 -0.0495841 0.646434)
(0.265961 0.128228 -0.00790206)
(0.218837 -0.0279341 0.227148)
(0.166787 -0.0861561 0.531823)
(-0.167446 -0.00816675 1.01436)
(-0.389301 0.329732 1.57283)
(-0.345895 0.0471034 1.27014)
(-0.501899 0.0313084 0.781408)
(-0.257129 -0.0399924 0.580821)
(-0.148813 0.605716 1.72924)
(-0.115546 0.214652 0.76587)
(-0.183697 -0.111201 0.449033)
(-0.190725 -0.0727616 0.57632)
(-0.0258779 -0.189783 0.469907)
(0.03363 0.729803 1.38412)
(0.019623 0.707152 1.40052)
(0.280205 0.22325 0.321407)
(0.0964849 -0.0760449 0.362357)
(0.00771614 -0.118713 0.648028)
(0.0278748 -0.103375 0.589767)
(0.544634 0.60945 0.338357)
(0.372237 0.0894127 0.129893)
(0.206822 -0.10111 0.387211)
(0.101616 -0.10972 0.637769)
(0.0745053 -0.126165 0.692189)
(0.354964 0.177119 0.057388)
(0.276599 -0.0342755 0.220337)
(0.210259 -0.104257 0.557786)
(-0.428251 -0.0442365 0.90732)
(-0.321588 0.307328 1.47991)
(-0.388127 0.256687 1.23577)
(-0.381004 -0.081187 0.791537)
(-0.204325 -0.14178 0.553959)
(-0.110136 0.573828 1.56146)
(0.275338 0.228012 0.714975)
(-0.044936 -0.118301 0.487662)
(-0.221752 -0.143432 0.510051)
(-0.0774874 -0.244693 0.299186)
(0.0508689 0.752522 1.32546)
(0.273127 0.708099 1.39657)
(0.466165 0.305038 0.416754)
(0.143445 -0.0285841 0.462064)
(-0.0347621 -0.0981302 0.680583)
(-0.0160164 -0.0604142 0.537323)
(0.495384 0.594937 0.369724)
(0.402202 0.152819 0.270125)
(0.219163 -0.0787923 0.459099)
(0.120266 -0.121449 0.67971)
(0.085954 -0.160011 0.745426)
(0.398499 0.193108 0.163479)
(0.32085 -0.0416292 0.25196)
(0.244446 -0.119901 0.594907)
(-0.308687 -0.062952 0.858132)
(-0.197281 0.273773 1.34164)
(-0.210154 0.373457 1.22596)
(-0.0925957 -0.105465 0.808442)
(-0.056364 -0.15617 0.595504)
(-0.0322939 0.551431 1.24651)
(0.493329 0.208854 0.7236)
(0.0942757 -0.0943674 0.568497)
(-0.211318 -0.139948 0.505512)
(0.0286243 -0.128303 0.208518)
(0.0778792 0.555381 1.20551)
(0.371184 0.660662 1.21519)
(0.462633 0.306569 0.539587)
(0.121337 0.000197679 0.610767)
(-0.108898 -0.0702755 0.752108)
(-0.105492 -0.022088 0.330293)
(0.389633 0.48516 0.418412)
(0.354895 0.150661 0.406974)
(0.20148 -0.0616829 0.543232)
(0.119383 -0.127006 0.73782)
(0.0709479 -0.159518 0.815785)
(0.396045 0.184848 0.273074)
(0.334127 -0.0502533 0.307409)
(0.263589 -0.128012 0.643981)
(-0.1972 -0.0290157 0.770559)
(0.0828296 0.0836069 0.903482)
(-0.0732283 0.269377 1.1907)
(0.133241 -0.0361096 0.724588)
(0.0934095 -0.152272 0.638841)
(0.307923 0.204453 0.927624)
(0.521624 0.169804 0.790291)
(0.14499 -0.0497638 0.69196)
(-0.145637 -0.0845745 0.497455)
(0.0795132 -0.000356944 0.18243)
(0.061339 0.304812 0.853937)
(0.378655 0.407937 0.855623)
(0.277004 0.221172 0.688628)
(0.0460839 0.0229559 0.757323)
(-0.119481 -0.0409071 0.814495)
(-0.0174337 -0.00941799 0.221117)
(0.266797 0.353357 0.449682)
(0.27854 0.0963702 0.505797)
(0.171853 -0.0497279 0.616373)
(0.101887 -0.116095 0.806337)
(0.0556797 -0.143908 0.894516)
(0.373759 0.166384 0.356003)
(0.325333 -0.0570191 0.361501)
(0.265346 -0.128795 0.692644)
(-0.0549737 -0.0238495 0.685404)
(0.0225915 -0.0289716 0.663405)
(0.430765 0.157119 1.15064)
(0.418403 0.00763547 0.726956)
(0.242222 -0.0960458 0.754768)
(0.204167 0.13247 0.63474)
(0.378196 0.10807 0.893442)
(0.0789679 -0.0124878 0.786358)
(-0.0588181 -0.0349119 0.491393)
(0.0827554 0.073674 0.193772)
(0.0337624 0.187696 0.609438)
(0.194097 0.290006 0.653002)
(0.100371 0.126965 0.787317)
(-0.0107441 0.0375071 0.854087)
(-0.107249 -0.0126674 0.861779)
(0.0234371 0.0190621 0.193649)
(0.160698 0.275074 0.462361)
(0.225913 0.0393998 0.543965)
(0.139276 -0.0369141 0.679053)
(0.0719843 -0.103779 0.882882)
(0.0363519 -0.117598 1.01093)
(0.353085 0.151555 0.404071)
(0.3033 -0.0610021 0.405382)
(0.255605 -0.120919 0.744286)
(0.0193366 -0.0465861 0.760637)
(0.02791 -0.0275041 0.534832)
(0.382895 0.119948 0.943126)
(0.428609 -0.0545809 0.837884)
(0.283802 -0.0826378 0.91415)
(0.0690568 0.102461 0.494708)
(0.179258 0.100625 0.896763)
(0.00513599 0.00193584 0.810315)
(-0.0216773 -0.0393277 0.502511)
(0.0771467 0.0932786 0.240882)
(0.0231446 0.129801 0.49172)
(0.0147147 0.224074 0.598574)
(0.0107452 0.0743161 0.828908)
(-0.0306844 0.0255268 0.906907)
(-0.120883 -0.00159325 0.898147)
(0.0380942 0.0240149 0.226181)
(0.088353 0.240997 0.475651)
(0.2069 0.00510719 0.542224)
(0.106632 -0.024922 0.736793)
(0.041319 -0.0838534 0.957425)
(0.0354036 -0.0888458 1.0872)
(0.33899 0.142522 0.429514)
(0.291355 -0.0553127 0.440459)
(0.244455 -0.111012 0.796469)
(0.0374322 -0.0485314 0.932565)
(0.00913001 0.00527112 0.46537)
(0.0609982 -0.139839 0.765227)
(0.212299 -0.138705 0.936939)
(0.0768292 -0.0428057 0.998493)
(-0.00357115 0.0818592 0.458088)
(0.0487885 0.113101 0.801387)
(-0.0167347 0.00391403 0.799073)
(0.00738427 -0.0505396 0.507422)
(0.0752823 0.0854543 0.291692)
(0.0116584 0.0743825 0.443115)
(-0.0800855 0.169585 0.560318)
(-0.0296018 0.0702891 0.858493)
(-0.0522569 0.00201408 0.943048)
(-0.14645 -0.0168847 0.905224)
(0.0465203 0.0443282 0.300728)
(0.0578497 0.230439 0.489232)
(0.196569 -0.0197028 0.532915)
(0.0860136 -0.0220772 0.78072)
(0.0214182 -0.0569428 1.0203)
(0.0370256 -0.0318245 1.11378)
(0.322793 0.131831 0.443318)
(0.261531 -0.0466556 0.474965)
(0.223245 -0.0971877 0.865391)
(0.0520104 -0.0477963 1.12793)
(0.000532277 0.0295019 0.44416)
(-0.0530628 -0.15596 0.626604)
(0.120259 -0.134628 1.00791)
(-0.0335084 0.0139963 0.983003)
(-0.0416966 0.0734888 0.466089)
(-0.0348584 0.0895372 0.698044)
(-0.0104655 0.0177566 0.757539)
(0.0365297 -0.0421548 0.49269)
(0.0789534 0.0705043 0.338994)
(-0.0036648 0.044474 0.422312)
(-0.0927501 0.153486 0.533525)
(-0.052519 0.100639 0.892583)
(-0.0941169 0.0110857 0.989533)
(-0.167167 -0.0467883 0.859105)
(0.0553561 0.0621169 0.369961)
(0.058155 0.211343 0.507565)
(0.176824 -0.0331529 0.533177)
(0.0687531 -0.0210223 0.834131)
(-0.0203868 -0.0445614 1.06221)
(-0.053396 -0.00102373 1.13895)
(0.301622 0.112016 0.446499)
(0.201906 -0.063461 0.500767)
(0.181813 -0.0800466 0.916361)
(0.0967024 -0.0344726 1.31256)
(0.0130627 0.025865 0.450133)
(-0.109353 -0.0864676 0.55412)
(0.0464069 -0.0682028 1.05667)
(0.0281495 0.00116633 0.952471)
(-0.0417417 0.0744963 0.48629)
(-0.0878571 0.0429319 0.632436)
(-0.0174532 0.0270031 0.708687)
(0.0552322 -0.0139225 0.468892)
(0.0807001 0.048992 0.381053)
(-0.00959072 0.0190229 0.419788)
(-0.0753067 0.140092 0.533548)
(-0.0650371 0.129217 0.915161)
(-0.126552 0.056414 1.03535)
(-0.133105 -0.0185305 0.761628)
(0.0605217 0.066786 0.433549)
(0.0436321 0.176863 0.533137)
(0.13621 -0.034572 0.549609)
(0.0299749 0.00310749 0.926573)
(-0.0564119 -0.0162897 1.12134)
(-0.0814752 0.0464444 0.899505)
(0.276691 0.0851703 0.440785)
(0.157189 -0.0758612 0.502322)
(0.152716 -0.0805924 0.920334)
(0.164546 -0.0115558 1.41271)
(0.0545069 -0.0168785 0.468962)
(-0.0575138 -0.0265276 0.556903)
(0.0184211 -0.0449722 0.923902)
(0.128542 -0.0358366 0.947268)
(-0.0151795 0.0680439 0.500092)
(-0.106892 0.00566365 0.573296)
(-0.0472999 -0.00326378 0.659204)
(0.0560812 0.0101649 0.446559)
(0.0732842 0.035302 0.415271)
(-0.0133217 -0.0131509 0.411934)
(-0.0689647 0.121797 0.551543)
(-0.0671641 0.135897 0.917674)
(-0.136628 0.0841518 1.04259)
(-0.0660059 0.0450865 0.663221)
(0.0475462 0.0545139 0.497502)
(0.00121477 0.137053 0.566658)
(0.0517358 -0.0276315 0.601423)
(-0.0258768 0.049557 1.02207)
(-0.0821528 0.0553909 1.16109)
(0.0207655 0.0299212 0.853331)
(0.236162 0.0605406 0.43843)
(0.111387 -0.0518805 0.49995)
(0.0910604 -0.0655019 0.932386)
(0.149729 -0.0176692 1.51841)
(0.079467 -0.0505495 0.48327)
(0.0296795 0.0220293 0.559869)
(-0.0404599 -0.0833336 0.76637)
(0.204442 -0.0371771 0.963877)
(0.021057 0.0434791 0.508356)
(-0.104345 -0.0158729 0.513337)
(-0.0799747 -0.0506378 0.590007)
(0.0422594 0.00664789 0.428237)
(0.0635258 0.0220732 0.441245)
(-0.0241535 -0.0507626 0.412793)
(-0.100868 0.0875676 0.577984)
(-0.0714522 0.124591 0.910804)
(-0.133068 0.0828382 1.02415)
(-0.00377711 0.0718922 0.577733)
(0.019861 0.0140133 0.55364)
(-0.0317394 0.0937051 0.595372)
(-0.0463481 -0.0193587 0.679349)
(-0.0988829 0.0876563 1.06478)
(-0.0792477 0.116543 1.14578)
(0.0520695 -0.0363706 0.900101)
(0.184267 0.0519983 0.45557)
(0.0492858 -0.0187117 0.539848)
(0.0275325 -0.0289564 0.960023)
(0.0363765 -0.02221 1.61674)
(0.0611665 -0.0645414 0.514818)
(0.1125 0.0550183 0.546831)
(0.0292676 -0.13372 0.691289)
(0.206232 -0.0437861 1.0054)
(0.0321363 0.00587524 0.521734)
(-0.0919945 -0.0310482 0.463176)
(-0.101019 -0.101245 0.514932)
(0.0082483 -0.0271178 0.397746)
(0.0517773 -0.0135045 0.472135)
(-0.0369904 -0.0892579 0.439533)
(-0.150486 0.0274043 0.598523)
(-0.102582 0.113401 0.876948)
(-0.086256 0.0728076 0.955689)
(0.0616937 0.0786434 0.522831)
(-0.000849773 -0.0350099 0.587722)
(-0.0495283 0.0593098 0.610008)
(-0.128873 -0.0206038 0.762134)
(-0.165684 0.0882111 1.06229)
(-0.0889912 0.157229 1.06427)
(0.0674742 -0.0912473 0.864372)
(0.138012 0.0542302 0.500104)
(0.00879443 -0.0141832 0.596508)
(0.00947162 -0.00419079 1.03632)
(-0.0486535 -0.0259794 1.67617)
(0.0702578 -0.0946879 0.580054)
(0.156054 0.0456468 0.568436)
(0.103276 -0.163965 0.712021)
(0.175758 -0.0417342 1.08669)
(0.0275619 -0.0450932 0.54643)
(-0.0748185 -0.0454156 0.432277)
(-0.0971232 -0.135893 0.450251)
(-0.0226796 -0.0631824 0.355719)
(0.0349437 -0.0629486 0.512727)
(-0.0455945 -0.123839 0.488953)
(-0.190344 -0.037709 0.598647)
(-0.145893 0.0909322 0.813095)
(0.0202961 0.0444764 0.805922)
(0.113188 0.079735 0.512759)
(0.028918 -0.0524988 0.585969)
(-0.0684203 0.0425614 0.628324)
(-0.169792 -0.0319791 0.838831)
(-0.182837 0.058325 1.06139)
(-0.18904 0.0575511 0.946109)
(0.0706292 -0.0851186 0.82295)
(0.112521 0.0570387 0.556673)
(-0.00995054 -0.0170618 0.6365)
(-0.0120369 0.00163278 1.11141)
(-0.0401269 -0.0156758 1.70196)
(0.121462 -0.138903 0.63321)
(0.180967 -0.00474097 0.629704)
(0.167564 -0.17591 0.792401)
(0.15778 -0.0193527 1.21409)
(0.0289586 -0.097964 0.573093)
(-0.051824 -0.0689053 0.42364)
(-0.0716176 -0.153229 0.408145)
(-0.0362762 -0.0835303 0.312022)
(0.0215111 -0.102651 0.529021)
(-0.0432377 -0.145071 0.550642)
(-0.192508 -0.0975693 0.577736)
(-0.1609 0.00464363 0.732817)
(0.0581812 -0.0185636 0.664745)
(0.140063 0.0687522 0.508329)
(0.0866539 -0.0281119 0.577614)
(-0.0751638 0.0313504 0.660016)
(-0.162638 -0.0412696 0.877472)
(-0.15676 -0.00481131 1.05166)
(-0.0938979 -0.0106003 0.856971)
(-0.0143579 0.0487092 0.779151)
(0.106289 0.0579039 0.612162)
(0.00427209 -0.0161877 0.662354)
(0.000995126 0.00899111 1.16901)
(-0.00401049 -0.0234088 1.77111)
(0.15683 -0.167217 0.658509)
(0.225803 -0.0643678 0.680277)
(0.2493 -0.203819 0.908052)
(0.217095 -0.00418104 1.34687)
(0.0320445 -0.128678 0.592293)
(-0.0289577 -0.0916631 0.430594)
(-0.0410381 -0.155467 0.378715)
(-0.038511 -0.0917636 0.280197)
(0.016262 -0.14054 0.503244)
(-0.0350076 -0.143986 0.580677)
(-0.159287 -0.137164 0.554706)
(-0.146744 -0.0938491 0.639621)
(0.0599117 -0.0685299 0.534698)
(0.141787 0.0330839 0.495276)
(0.0940809 -0.0176346 0.573792)
(-0.066855 0.0181833 0.689798)
(-0.14616 -0.0401689 0.876673)
(-0.141153 -0.0722247 0.995616)
(-0.0089192 -0.0364338 0.817877)
(-0.0274454 0.0968458 0.748272)
(0.106145 0.0551011 0.662622)
(0.0380467 -0.0102918 0.67404)
(0.0299537 0.000791178 1.24913)
(0.0698731 -0.0187882 1.85624)
(0.178163 -0.174923 0.637097)
(0.30613 -0.18011 0.753657)
(0.305482 -0.258755 1.04952)
(0.228283 -0.0526245 1.55502)
(0.0507304 -0.139849 0.599381)
(-0.0102969 -0.0884631 0.438333)
(-0.0216191 -0.128785 0.345307)
(-0.0393907 -0.0870228 0.270351)
(0.021589 -0.15965 0.454928)
(-0.030042 -0.130793 0.576937)
(-0.127331 -0.145726 0.540333)
(-0.104386 -0.128975 0.550836)
(0.0557346 -0.072084 0.429434)
(0.115794 -0.0371765 0.490784)
(0.0825384 -0.0283888 0.579322)
(-0.0462102 0.0096906 0.69819)
(-0.114251 -0.0295112 0.85117)
(-0.147176 -0.0801979 0.93309)
(0.00235121 -0.088784 0.812966)
(-0.0133353 0.0841405 0.737075)
(0.0986401 0.0510886 0.708862)
(0.0394645 -0.00524572 0.674873)
(-0.0282899 -0.00231718 1.24922)
(0.144368 -0.0137861 2.04903)
(0.198203 -0.139411 0.521065)
(0.360251 -0.341214 0.844546)
(0.29218 -0.198966 1.23179)
(0.16939 0.0167767 1.79504)
(0.0934561 -0.113617 0.578253)
(0.00727111 -0.0431296 0.424047)
(-0.0162648 -0.0654721 0.305146)
(-0.0400463 -0.0568806 0.284762)
(0.0415522 -0.129505 0.432256)
(-0.0232265 -0.10428 0.563502)
(-0.103806 -0.11333 0.520968)
(-0.0480092 -0.085066 0.485269)
(0.0488941 -0.0372773 0.358576)
(0.0895613 -0.0824026 0.502494)
(0.0671997 -0.0434243 0.596954)
(-0.0140462 0.00653036 0.69155)
(-0.0931853 -0.0223971 0.82541)
(-0.0991514 -0.0385275 0.872458)
(0.039758 -0.141135 0.835128)
(0.00731841 0.0438707 0.725305)
(0.0783711 0.0473598 0.748121)
(0.000713105 0.0228489 0.721883)
(-0.00654498 -0.0338543 1.02198)
(0.172528 -0.0101104 2.22796)