/*--------------------------------*- C++ -*----------------------------------*\
| =========                 |                                                 |
| \\      /  F ield         | OpenFOAM: The Open Source CFD Toolbox           |
|  \\    /   O peration     | Version:  5.x                                   |
|   \\  /    A nd           | Web:      www.OpenFOAM.org                      |
|    \\/     M anipulation  |                                                 |
\*---------------------------------------------------------------------------*/
FoamFile
{
    version     2.0;
    format      ascii;
    class       volVectorField;
    location    "1";
    object      Us;
}
// * * * * * * * * * * * * * * * * * * * * * * * * * * * * * * * * * * * * * //

dimensions      [0 1 -1 0 0 0 0];

internalField   nonuniform List<vector> 
10571
(
(-0.0995138 -0.0283577 0.0213237)
(0.0188891 -0.125866 -0.111639)
(-0.118757 -0.193719 -0.00246561)
(-0.200472 -0.162161 0.023611)
(-0.154509 -0.174212 -0.00639604)
(-0.099406 -0.210914 -0.120842)
(-0.181157 -0.210126 -0.0193775)
(-0.216634 -0.25704 0.00968523)
(-0.130279 -0.235983 -0.0116666)
(-0.0377669 -0.16718 -0.025704)
(0.000423198 -0.0554468 -0.0420168)
(-0.134409 -0.224985 -0.0593861)
(-0.25796 -0.223491 0.0278505)
(-0.192095 -0.207111 -0.0186711)
(-0.0769507 -0.165848 -0.0367248)
(0.011265 -0.121451 -0.0229006)
(-0.0869768 -0.156797 -0.0110753)
(-0.166855 -0.214171 -0.0124755)
(-0.0931975 -0.13116 -0.0291389)
(-0.0172351 -0.0781035 -0.0486212)
(0.0260192 -0.0586168 -0.0469727)
(-0.108553 -0.0754618 -0.0718927)
(-0.0638705 -0.0253972 -0.0439066)
(-0.00789935 -0.017689 -0.0653072)
(-0.0603348 -0.0155158 0.125434)
(0.0593973 -0.11577 0.136134)
(0.00787882 -0.105393 0.174656)
(-0.126176 -0.130789 0.173655)
(-0.136627 -0.150582 0.141503)
(0.00248735 -0.11176 0.156923)
(-0.0511219 -0.183294 0.115171)
(-0.123908 -0.203914 0.155195)
(-0.0930552 -0.164416 0.0807786)
(-0.0580701 -0.121251 0.0590312)
(-0.00975182 -0.066643 0.0498193)
(-0.0174998 -0.0992112 0.115407)
(-0.0880683 -0.192076 0.077085)
(-0.10364 -0.182798 0.0711736)
(-0.0461105 -0.15503 -0.00610501)
(0.000716673 -0.126353 0.000357609)
(-0.0652648 -0.0873533 0.0419042)
(-0.0984379 -0.126268 0.00203026)
(-0.0765189 -0.0949155 -0.0226158)
(-0.0313599 -0.0929509 -0.0256371)
(0.0269221 -0.0606108 -0.0263004)
(-0.0961825 -0.0641375 -0.0150581)
(-0.0523319 -0.0244408 -0.0203639)
(-0.0119159 -0.00319569 -0.0386196)
(-0.0948327 -0.0276116 0.237283)
(0.14381 -0.146332 0.371128)
(0.0905872 -0.152026 0.365901)
(-0.140887 -0.109831 0.301389)
(-0.0951085 -0.0597971 0.224647)
(0.0685893 -0.0495913 0.363278)
(-0.0377069 -0.174232 0.217066)
(-0.112063 -0.165019 0.190543)
(-0.0890247 -0.138061 0.0937076)
(-0.0532007 -0.0850664 0.0499622)
(-0.0131414 -0.0510838 0.108353)
(-0.0825177 -0.18144 0.109845)
(-0.0801312 -0.182673 0.0761004)
(-0.0989003 -0.184584 0.0395097)
(-0.0669104 -0.183935 -0.0764569)
(-0.0228595 -0.152486 -0.0555545)
(-0.0844492 -0.107642 0.0316477)
(-0.0997843 -0.120715 -0.0430013)
(-0.102585 -0.119048 -0.108878)
(-0.0558848 -0.130089 -0.140538)
(0.0275615 -0.0672471 -0.0968726)
(-0.102325 -0.0664007 -0.0543591)
(-0.0866302 -0.0418045 -0.0997504)
(-0.0197093 -0.00851392 -0.113272)
(-0.0699512 0.0159711 -0.374968)
(0.105177 -0.138864 0.406133)
(0.12176 -0.127555 0.438919)
(-0.162374 -0.0862558 0.264544)
(-0.014727 -0.0430714 0.175502)
(0.0773717 -0.0950105 0.34002)
(-0.0863112 -0.204241 0.266236)
(-0.112497 -0.151221 0.201899)
(-0.0624404 -0.096194 0.144173)
(0.07403 0.173863 -0.0337462)
(0 0 0)
(0 0 0)
(-0.0983866 -0.206226 0.090702)
(-0.0944266 -0.179546 0.025403)
(-0.0460398 -0.176821 -0.153217)
(-0.012406 -0.151228 -0.16238)
(0 0 0)
(-0.11359 -0.0992605 -0.100152)
(-0.0842661 -0.108429 -0.205157)
(-0.043541 -0.135165 -0.258181)
(0.0180726 -0.109097 -0.283952)
(-0.0859237 -0.0273008 -0.101846)
(-0.0955293 -0.0412811 -0.214683)
(-0.0166121 -0.0279 -0.259385)
(-0.0757658 0.0102327 -0.321861)
(0 0 0)
(0 0 0)
(-0.0514812 0.00628388 -0.309721)
(0.0138658 0.0314799 -0.360081)
(0 0 0)
(0 0 0)
(0 0 0)
(0 0 0)
(0 0 0)
(0 0 0)
(0 0 0)
(0 0 0)
(1.12183e-17 1.44292e-16 5.17446e-16)
(-0.0063201 -0.0507229 -0.524787)
(-0.0303939 -0.040966 -0.359323)
(0 0 0)
(0 0 0)
(3.44349e-17 6.15139e-17 3.27885e-16)
(0 0 0)
(0.0348399 -0.0950111 -0.503123)
(0 0 0)
(0.00245598 -0.0349826 -0.528255)
(0.0260452 -0.0339225 -0.425572)
(-0.0880299 -0.00852005 -0.251638)
(0 0 0)
(0 0 0)
(0 0 0)
(0.0149294 0.0155738 -0.288576)
(0 0 0)
(0 0 0)
(0 0 0)
(0 0 0)
(0 0 0)
(-0.00655786 0.00303812 -0.00236494)
(0 0 0)
(0 0 0)
(0 0 0)
(0 0 0)
(-0.00844838 -0.147218 -0.470846)
(0.0258289 -0.14973 -0.453171)
(-0.00472908 -0.00131029 -0.00294339)
(0 0 0)
(0 0 0)
(0.00479696 -0.0832482 -0.485573)
(0 0 0)
(0.0388071 -0.0951952 -0.489148)
(0 0 0)
(0 0 0)
(0.0304436 -0.0314689 -0.496949)
(0 0 0)
(0 0 0)
(0 0 0)
(0 0 0)
(0 0 0)
(0 0 0)
(0 0 0)
(0 0 0)
(0 0 0)
(0 0 0)
(0 0 0)
(0 0 0)
(0 0 0)
(0 0 0)
(0 0 0)
(0 0 0)
(0 0 0)
(0.122236 -0.147857 -0.414529)
(0 0 0)
(0 0 0)
(0 0 0)
(0 0 0)
(0 0 0)
(0 0 0)
(0 0 0)
(0 0 0)
(0 0 0)
(0 0 0)
(0 0 0)
(0 0 0)
(0 0 0)
(0 0 0)
(0 0 0)
(0 0 0)
(0 0 0)
(0 0 0)
(0 0 0)
(0 0 0)
(0 0 0)
(0 0 0)
(0 0 0)
(0 0 0)
(0 0 0)
(0 0 0)
(0 0 0)
(0 0 0)
(0 0 0)
(0 0 0)
(0 0 0)
(0 0 0)
(0 0 0)
(0 0 0)
(0 0 0)
(0 0 0)
(0 0 0)
(0 0 0)
(0 0 0)
(0 0 0)
(0 0 0)
(0 0 0)
(0 0 0)
(0 0 0)
(0 0 0)
(0 0 0)
(0 0 0)
(0 0 0)
(0 0 0)
(0 0 0)
(0 0 0)
(0 0 0)
(0 0 0)
(0 0 0)
(0 0 0)
(0 0 0)
(0 0 0)
(0 0 0)
(0 0 0)
(0 0 0)
(0 0 0)
(0 0 0)
(0 0 0)
(0 0 0)
(0 0 0)
(0 0 0)
(0 0 0)
(0 0 0)
(0 0 0)
(0 0 0)
(0 0 0)
(0 0 0)
(0 0 0)
(0 0 0)
(0 0 0)
(0 0 0)
(0 0 0)
(0 0 0)
(0 0 0)
(0 0 0)
(0 0 0)
(0 0 0)
(0 0 0)
(0 0 0)
(0 0 0)
(0 0 0)
(0 0 0)
(0 0 0)
(0 0 0)
(0 0 0)
(0 0 0)
(0 0 0)
(0 0 0)
(0 0 0)
(0 0 0)
(0 0 0)
(0 0 0)
(0 0 0)
(0 0 0)
(0 0 0)
(0 0 0)
(0 0 0)
(0 0 0)
(0 0 0)
(0 0 0)
(0 0 0)
(0 0 0)
(0 0 0)
(0 0 0)
(0 0 0)
(0 0 0)
(0 0 0)
(0 0 0)
(0 0 0)
(0 0 0)
(0 0 0)
(0 0 0)
(0 0 0)
(0 0 0)
(0 0 0)
(0 0 0)
(0 0 0)
(0 0 0)
(0 0 0)
(0 0 0)
(0 0 0)
(0 0 0)
(0 0 0)
(0 0 0)
(0 0 0)
(0 0 0)
(0 0 0)
(0 0 0)
(0 0 0)
(0 0 0)
(0 0 0)
(0 0 0)
(0 0 0)
(0 0 0)
(0 0 0)
(0 0 0)
(0 0 0)
(0 0 0)
(0 0 0)
(0 0 0)
(0 0 0)
(0 0 0)
(0 0 0)
(0 0 0)
(0 0 0)
(0 0 0)
(0 0 0)
(0 0 0)
(0 0 0)
(0 0 0)
(0 0 0)
(0 0 0)
(0 0 0)
(0 0 0)
(0 0 0)
(0 0 0)
(0 0 0)
(0 0 0)
(0 0 0)
(0 0 0)
(0 0 0)
(0 0 0)
(0 0 0)
(0 0 0)
(0 0 0)
(0 0 0)
(0 0 0)
(0 0 0)
(0 0 0)
(0 0 0)
(0 0 0)
(0 0 0)
(0 0 0)
(0 0 0)
(0 0 0)
(0 0 0)
(0 0 0)
(0 0 0)
(0 0 0)
(0 0 0)
(0 0 0)
(0 0 0)
(0 0 0)
(0 0 0)
(0 0 0)
(0 0 0)
(0 0 0)
(0 0 0)
(0 0 0)
(0 0 0)
(0 0 0)
(0 0 0)
(0 0 0)
(0 0 0)
(0 0 0)
(0 0 0)
(0 0 0)
(0 0 0)
(0 0 0)
(0 0 0)
(0 0 0)
(0 0 0)
(0 0 0)
(0 0 0)
(0 0 0)
(0 0 0)
(0 0 0)
(0 0 0)
(0 0 0)
(0 0 0)
(0 0 0)
(0 0 0)
(0 0 0)
(0 0 0)
(0 0 0)
(0 0 0)
(0 0 0)
(0 0 0)
(0 0 0)
(0 0 0)
(0 0 0)
(0 0 0)
(0 0 0)
(0 0 0)
(0 0 0)
(0 0 0)
(0 0 0)
(0 0 0)
(0 0 0)
(0 0 0)
(0 0 0)
(0 0 0)
(0 0 0)
(0 0 0)
(0 0 0)
(0 0 0)
(0 0 0)
(0 0 0)
(0 0 0)
(0 0 0)
(0 0 0)
(0 0 0)
(0 0 0)
(0 0 0)
(0 0 0)
(0 0 0)
(0 0 0)
(0 0 0)
(0 0 0)
(0 0 0)
(0 0 0)
(0 0 0)
(0 0 0)
(0 0 0)
(0 0 0)
(0 0 0)
(0 0 0)
(0 0 0)
(0 0 0)
(0 0 0)
(0 0 0)
(0 0 0)
(0 0 0)
(0 0 0)
(0 0 0)
(0 0 0)
(0 0 0)
(0 0 0)
(0 0 0)
(0 0 0)
(0 0 0)
(0 0 0)
(0 0 0)
(0 0 0)
(0 0 0)
(0 0 0)
(0 0 0)
(0 0 0)
(0 0 0)
(0 0 0)
(0 0 0)
(0 0 0)
(0 0 0)
(0 0 0)
(0 0 0)
(0 0 0)
(0 0 0)
(0 0 0)
(0 0 0)
(0 0 0)
(0 0 0)
(0 0 0)
(0 0 0)
(0 0 0)
(0 0 0)
(0 0 0)
(0 0 0)
(0 0 0)
(0 0 0)
(0 0 0)
(0 0 0)
(0 0 0)
(0 0 0)
(0 0 0)
(0 0 0)
(0 0 0)
(0 0 0)
(0 0 0)
(0 0 0)
(0 0 0)
(0 0 0)
(0 0 0)
(0 0 0)
(0 0 0)
(0 0 0)
(0 0 0)
(0 0 0)
(0 0 0)
(0 0 0)
(0 0 0)
(0 0 0)
(0 0 0)
(0 0 0)
(0 0 0)
(0 0 0)
(0 0 0)
(0 0 0)
(0 0 0)
(0 0 0)
(0 0 0)
(0 0 0)
(0 0 0)
(0 0 0)
(0 0 0)
(0 0 0)
(0 0 0)
(0 0 0)
(0 0 0)
(0 0 0)
(0 0 0)
(0 0 0)
(0 0 0)
(0 0 0)
(0 0 0)
(0 0 0)
(0 0 0)
(0 0 0)
(0 0 0)
(0 0 0)
(0 0 0)
(0 0 0)
(0 0 0)
(0 0 0)
(0 0 0)
(0 0 0)
(0 0 0)
(0 0 0)
(0 0 0)
(0 0 0)
(0 0 0)
(0 0 0)
(0 0 0)
(0 0 0)
(0 0 0)
(0 0 0)
(0 0 0)
(0 0 0)
(0 0 0)
(0 0 0)
(0 0 0)
(0 0 0)
(0 0 0)
(0 0 0)
(0 0 0)
(0 0 0)
(0 0 0)
(0 0 0)
(0 0 0)
(0 0 0)
(0 0 0)
(0 0 0)
(0 0 0)
(0 0 0)
(0 0 0)
(0 0 0)
(0 0 0)
(0 0 0)
(0 0 0)
(0 0 0)
(0 0 0)
(0 0 0)
(0 0 0)
(0 0 0)
(0 0 0)
(0 0 0)
(0 0 0)
(0 0 0)
(0 0 0)
(0 0 0)
(0 0 0)
(0 0 0)
(0 0 0)
(0 0 0)
(0 0 0)
(0 0 0)
(0 0 0)
(0 0 0)
(0 0 0)
(0 0 0)
(0 0 0)
(0 0 0)
(0 0 0)
(0 0 0)
(0 0 0)
(0 0 0)
(0 0 0)
(0 0 0)
(0 0 0)
(0 0 0)
(0 0 0)
(0 0 0)
(0 0 0)
(0 0 0)
(0 0 0)
(0 0 0)
(0 0 0)
(0 0 0)
(0 0 0)
(0 0 0)
(0 0 0)
(0 0 0)
(0 0 0)
(0 0 0)
(0 0 0)
(0 0 0)
(0 0 0)
(0 0 0)
(0 0 0)
(0 0 0)
(0 0 0)
(0 0 0)
(0 0 0)
(0 0 0)
(0 0 0)
(0 0 0)
(0 0 0)
(0 0 0)
(0 0 0)
(0 0 0)
(0 0 0)
(0 0 0)
(0 0 0)
(0 0 0)
(0 0 0)
(0 0 0)
(0 0 0)
(0 0 0)
(0 0 0)
(0 0 0)
(0 0 0)
(0 0 0)
(0 0 0)
(0 0 0)
(0 0 0)
(0 0 0)
(0 0 0)
(0 0 0)
(0 0 0)
(0 0 0)
(0 0 0)
(0 0 0)
(0 0 0)
(0 0 0)
(0 0 0)
(0 0 0)
(0 0 0)
(0 0 0)
(0 0 0)
(0 0 0)
(0 0 0)
(0 0 0)
(0 0 0)
(0 0 0)
(0 0 0)
(0 0 0)
(0 0 0)
(0 0 0)
(0 0 0)
(0 0 0)
(0 0 0)
(0 0 0)
(0 0 0)
(0 0 0)
(0 0 0)
(0 0 0)
(0 0 0)
(0 0 0)
(0 0 0)
(0 0 0)
(0 0 0)
(0 0 0)
(0 0 0)
(0 0 0)
(0 0 0)
(0 0 0)
(0 0 0)
(0 0 0)
(0 0 0)
(0 0 0)
(0 0 0)
(0 0 0)
(0 0 0)
(0 0 0)
(0 0 0)
(0 0 0)
(0 0 0)
(0 0 0)
(0 0 0)
(0 0 0)
(0 0 0)
(0 0 0)
(0 0 0)
(0 0 0)
(0 0 0)
(0 0 0)
(0 0 0)
(0 0 0)
(0 0 0)
(0 0 0)
(0 0 0)
(0 0 0)
(0 0 0)
(0 0 0)
(0 0 0)
(0 0 0)
(0 0 0)
(0 0 0)
(0 0 0)
(0 0 0)
(0 0 0)
(0 0 0)
(0 0 0)
(0 0 0)
(0 0 0)
(0 0 0)
(0 0 0)
(0 0 0)
(0 0 0)
(0 0 0)
(0 0 0)
(0 0 0)
(0 0 0)
(0 0 0)
(0 0 0)
(0 0 0)
(0 0 0)
(0 0 0)
(0 0 0)
(0 0 0)
(0 0 0)
(0 0 0)
(0 0 0)
(0 0 0)
(0 0 0)
(0 0 0)
(0 0 0)
(0 0 0)
(0 0 0)
(0 0 0)
(0 0 0)
(0 0 0)
(0 0 0)
(0 0 0)
(0 0 0)
(0 0 0)
(0 0 0)
(0 0 0)
(0 0 0)
(0 0 0)
(0 0 0)
(0 0 0)
(0 0 0)
(0 0 0)
(0 0 0)
(0 0 0)
(0 0 0)
(0 0 0)
(0 0 0)
(0 0 0)
(0 0 0)
(0 0 0)
(0 0 0)
(0 0 0)
(0 0 0)
(0 0 0)
(0 0 0)
(0 0 0)
(0 0 0)
(0 0 0)
(0 0 0)
(0 0 0)
(0 0 0)
(0 0 0)
(0 0 0)
(0 0 0)
(0 0 0)
(0 0 0)
(0 0 0)
(0 0 0)
(0 0 0)
(0 0 0)
(0 0 0)
(0 0 0)
(0 0 0)
(0 0 0)
(0 0 0)
(0 0 0)
(0 0 0)
(0 0 0)
(0 0 0)
(0 0 0)
(0 0 0)
(0 0 0)
(0 0 0)
(0 0 0)
(0 0 0)
(0 0 0)
(0 0 0)
(0 0 0)
(0 0 0)
(0 0 0)
(0 0 0)
(0 0 0)
(0 0 0)
(0 0 0)
(0 0 0)
(0 0 0)
(0 0 0)
(0 0 0)
(0 0 0)
(0 0 0)
(0 0 0)
(0 0 0)
(0 0 0)
(0 0 0)
(0 0 0)
(0 0 0)
(0 0 0)
(0 0 0)
(0 0 0)
(0 0 0)
(0 0 0)
(0 0 0)
(0 0 0)
(0 0 0)
(0 0 0)
(0 0 0)
(0 0 0)
(0 0 0)
(0 0 0)
(0 0 0)
(0 0 0)
(0 0 0)
(0 0 0)
(0 0 0)
(0 0 0)
(0 0 0)
(0 0 0)
(0 0 0)
(0 0 0)
(0 0 0)
(0 0 0)
(0 0 0)
(0 0 0)
(0 0 0)
(0 0 0)
(0 0 0)
(0 0 0)
(0 0 0)
(0 0 0)
(0 0 0)
(0 0 0)
(0 0 0)
(0 0 0)
(0 0 0)
(0 0 0)
(0 0 0)
(0 0 0)
(0 0 0)
(0 0 0)
(0 0 0)
(0 0 0)
(0 0 0)
(0 0 0)
(0 0 0)
(0 0 0)
(0 0 0)
(0 0 0)
(0 0 0)
(0 0 0)
(0 0 0)
(0 0 0)
(0 0 0)
(0 0 0)
(0 0 0)
(0 0 0)
(0 0 0)
(0 0 0)
(0 0 0)
(0 0 0)
(0 0 0)
(0 0 0)
(0 0 0)
(0 0 0)
(0 0 0)
(0 0 0)
(0 0 0)
(0 0 0)
(0 0 0)
(0 0 0)
(0 0 0)
(0 0 0)
(0 0 0)
(0 0 0)
(0 0 0)
(0 0 0)
(0 0 0)
(0 0 0)
(0 0 0)
(0 0 0)
(0 0 0)
(0 0 0)
(0 0 0)
(0 0 0)
(0 0 0)
(0 0 0)
(0 0 0)
(0 0 0)
(0 0 0)
(0 0 0)
(0 0 0)
(0 0 0)
(0 0 0)
(0 0 0)
(0 0 0)
(0 0 0)
(0 0 0)
(0 0 0)
(0 0 0)
(0 0 0)
(0 0 0)
(0 0 0)
(0 0 0)
(0 0 0)
(0 0 0)
(0 0 0)
(0 0 0)
(0 0 0)
(0 0 0)
(0 0 0)
(0 0 0)
(0 0 0)
(0 0 0)
(0 0 0)
(0 0 0)
(0 0 0)
(0 0 0)
(0 0 0)
(0 0 0)
(0 0 0)
(0 0 0)
(0 0 0)
(0 0 0)
(0 0 0)
(0 0 0)
(0 0 0)
(0 0 0)
(0 0 0)
(0 0 0)
(0 0 0)
(0 0 0)
(0 0 0)
(0 0 0)
(0 0 0)
(0 0 0)
(0 0 0)
(0 0 0)
(0 0 0)
(0 0 0)
(0 0 0)
(0 0 0)
(0 0 0)
(0 0 0)
(0 0 0)
(0 0 0)
(0 0 0)
(0 0 0)
(0 0 0)
(0 0 0)
(0 0 0)
(0 0 0)
(0 0 0)
(0 0 0)
(0 0 0)
(0 0 0)
(0 0 0)
(0 0 0)
(0 0 0)
(0 0 0)
(0 0 0)
(0 0 0)
(0 0 0)
(0 0 0)
(0 0 0)
(0 0 0)
(0 0 0)
(0 0 0)
(0 0 0)
(0 0 0)
(0 0 0)
(0 0 0)
(0 0 0)
(0 0 0)
(0 0 0)
(0 0 0)
(0 0 0)
(0 0 0)
(0 0 0)
(0 0 0)
(0 0 0)
(0 0 0)
(0 0 0)
(0 0 0)
(0 0 0)
(0 0 0)
(0 0 0)
(0 0 0)
(0 0 0)
(0 0 0)
(0 0 0)
(0 0 0)
(0 0 0)
(0 0 0)
(0 0 0)
(0 0 0)
(0 0 0)
(0 0 0)
(0 0 0)
(0 0 0)
(0 0 0)
(0 0 0)
(0 0 0)
(0 0 0)
(0 0 0)
(0 0 0)
(0 0 0)
(0 0 0)
(0 0 0)
(0 0 0)
(0 0 0)
(0 0 0)
(0 0 0)
(0 0 0)
(0 0 0)
(0 0 0)
(0 0 0)
(0 0 0)
(0 0 0)
(0 0 0)
(0 0 0)
(0 0 0)
(0 0 0)
(0 0 0)
(0 0 0)
(0 0 0)
(0 0 0)
(0 0 0)
(0 0 0)
(0 0 0)
(0 0 0)
(0 0 0)
(0 0 0)
(0 0 0)
(0 0 0)
(0 0 0)
(0 0 0)
(0 0 0)
(0 0 0)
(0 0 0)
(0 0 0)
(0 0 0)
(0 0 0)
(0 0 0)
(0 0 0)
(0 0 0)
(0 0 0)
(0 0 0)
(0 0 0)
(0 0 0)
(0 0 0)
(0 0 0)
(0 0 0)
(0 0 0)
(0 0 0)
(0 0 0)
(0 0 0)
(0 0 0)
(0 0 0)
(0 0 0)
(0 0 0)
(0 0 0)
(0 0 0)
(0 0 0)
(0 0 0)
(0 0 0)
(0 0 0)
(0 0 0)
(0 0 0)
(0 0 0)
(0 0 0)
(0 0 0)
(0 0 0)
(0 0 0)
(0 0 0)
(0 0 0)
(0 0 0)
(0 0 0)
(0 0 0)
(0 0 0)
(0 0 0)
(0 0 0)
(0 0 0)
(0 0 0)
(0 0 0)
(0 0 0)
(0 0 0)
(0 0 0)
(0 0 0)
(0 0 0)
(0 0 0)
(0 0 0)
(0 0 0)
(0 0 0)
(0 0 0)
(0 0 0)
(0 0 0)
(0 0 0)
(0 0 0)
(0 0 0)
(0 0 0)
(0 0 0)
(0 0 0)
(0 0 0)
(0 0 0)
(0 0 0)
(0 0 0)
(0 0 0)
(0 0 0)
(0 0 0)
(0 0 0)
(0 0 0)
(0 0 0)
(0 0 0)
(0 0 0)
(0 0 0)
(0 0 0)
(0 0 0)
(0 0 0)
(0 0 0)
(0 0 0)
(0 0 0)
(0 0 0)
(0 0 0)
(0 0 0)
(0 0 0)
(0 0 0)
(0 0 0)
(0 0 0)
(0 0 0)
(0 0 0)
(0 0 0)
(0 0 0)
(0 0 0)
(0 0 0)
(0 0 0)
(0 0 0)
(0 0 0)
(0 0 0)
(0 0 0)
(0 0 0)
(0 0 0)
(0 0 0)
(0 0 0)
(0 0 0)
(0 0 0)
(0 0 0)
(0 0 0)
(0 0 0)
(0 0 0)
(0 0 0)
(0 0 0)
(0 0 0)
(0 0 0)
(0 0 0)
(0 0 0)
(0 0 0)
(0 0 0)
(0 0 0)
(0 0 0)
(0 0 0)
(0 0 0)
(0 0 0)
(0 0 0)
(0 0 0)
(0 0 0)
(0 0 0)
(0 0 0)
(0 0 0)
(0 0 0)
(0 0 0)
(0 0 0)
(0 0 0)
(0 0 0)
(0 0 0)
(0 0 0)
(0 0 0)
(0 0 0)
(0 0 0)
(0 0 0)
(0 0 0)
(0 0 0)
(0 0 0)
(0 0 0)
(0 0 0)
(0 0 0)
(0 0 0)
(0 0 0)
(0 0 0)
(0 0 0)
(0 0 0)
(0 0 0)
(0 0 0)
(0 0 0)
(0 0 0)
(0 0 0)
(0 0 0)
(0 0 0)
(0 0 0)
(0 0 0)
(0 0 0)
(0 0 0)
(0 0 0)
(0 0 0)
(0 0 0)
(0 0 0)
(0 0 0)
(0 0 0)
(0 0 0)
(0 0 0)
(0 0 0)
(0 0 0)
(0 0 0)
(0 0 0)
(0 0 0)
(0 0 0)
(0 0 0)
(0 0 0)
(0 0 0)
(0 0 0)
(0 0 0)
(0 0 0)
(0 0 0)
(0 0 0)
(0 0 0)
(0 0 0)
(0 0 0)
(0 0 0)
(0 0 0)
(0 0 0)
(0 0 0)
(0 0 0)
(0 0 0)
(0 0 0)
(0 0 0)
(0 0 0)
(0 0 0)
(0 0 0)
(0 0 0)
(0 0 0)
(0 0 0)
(0 0 0)
(0 0 0)
(0 0 0)
(0 0 0)
(0 0 0)
(0 0 0)
(0 0 0)
(0 0 0)
(0 0 0)
(0 0 0)
(0 0 0)
(0 0 0)
(0 0 0)
(0 0 0)
(0 0 0)
(0 0 0)
(0 0 0)
(0 0 0)
(0 0 0)
(0 0 0)
(0 0 0)
(0 0 0)
(0 0 0)
(0 0 0)
(0 0 0)
(0 0 0)
(0 0 0)
(0 0 0)
(0 0 0)
(0 0 0)
(0 0 0)
(0 0 0)
(0 0 0)
(0 0 0)
(0 0 0)
(0 0 0)
(0 0 0)
(0 0 0)
(0 0 0)
(0 0 0)
(0 0 0)
(0 0 0)
(0 0 0)
(0 0 0)
(0 0 0)
(0 0 0)
(0 0 0)
(0 0 0)
(0 0 0)
(0 0 0)
(0 0 0)
(0 0 0)
(0 0 0)
(0 0 0)
(0 0 0)
(0 0 0)
(0 0 0)
(0 0 0)
(0 0 0)
(0 0 0)
(0 0 0)
(0 0 0)
(0 0 0)
(0 0 0)
(0 0 0)
(0 0 0)
(0 0 0)
(0 0 0)
(0 0 0)
(0 0 0)
(0 0 0)
(0 0 0)
(0 0 0)
(0 0 0)
(0 0 0)
(0 0 0)
(0 0 0)
(0 0 0)
(0 0 0)
(0 0 0)
(0 0 0)
(0 0 0)
(0 0 0)
(0 0 0)
(0 0 0)
(0 0 0)
(0 0 0)
(0 0 0)
(0 0 0)
(0 0 0)
(0 0 0)
(0 0 0)
(0 0 0)
(0 0 0)
(0 0 0)
(0 0 0)
(0 0 0)
(0 0 0)
(0 0 0)
(0 0 0)
(0 0 0)
(0 0 0)
(0 0 0)
(0 0 0)
(0 0 0)
(0 0 0)
(0 0 0)
(0 0 0)
(0 0 0)
(0 0 0)
(0 0 0)
(0 0 0)
(0 0 0)
(0 0 0)
(0 0 0)
(0 0 0)
(0 0 0)
(0 0 0)
(0 0 0)
(0 0 0)
(0 0 0)
(0 0 0)
(0 0 0)
(0 0 0)
(0 0 0)
(0 0 0)
(0 0 0)
(0 0 0)
(0 0 0)
(0 0 0)
(0 0 0)
(0 0 0)
(0 0 0)
(0 0 0)
(0 0 0)
(0 0 0)
(0 0 0)
(0 0 0)
(0 0 0)
(0 0 0)
(0 0 0)
(0 0 0)
(0 0 0)
(0 0 0)
(0 0 0)
(0 0 0)
(0 0 0)
(0 0 0)
(0 0 0)
(0 0 0)
(0 0 0)
(0 0 0)
(0 0 0)
(0 0 0)
(0 0 0)
(0 0 0)
(0 0 0)
(0 0 0)
(0 0 0)
(0 0 0)
(0 0 0)
(0 0 0)
(0 0 0)
(0 0 0)
(0 0 0)
(0 0 0)
(0 0 0)
(0 0 0)
(0 0 0)
(0 0 0)
(0 0 0)
(0 0 0)
(0 0 0)
(0 0 0)
(0 0 0)
(0 0 0)
(0 0 0)
(0 0 0)
(0 0 0)
(0 0 0)
(0 0 0)
(0 0 0)
(0 0 0)
(0 0 0)
(0 0 0)
(0 0 0)
(0 0 0)
(0 0 0)
(0 0 0)
(0 0 0)
(0 0 0)
(0 0 0)
(0 0 0)
(0 0 0)
(0 0 0)
(0 0 0)
(0 0 0)
(0 0 0)
(0 0 0)
(0 0 0)
(0 0 0)
(0 0 0)
(0 0 0)
(0 0 0)
(0 0 0)
(0 0 0)
(0 0 0)
(0 0 0)
(0 0 0)
(0 0 0)
(0 0 0)
(0 0 0)
(0 0 0)
(0 0 0)
(0 0 0)
(0 0 0)
(0 0 0)
(0 0 0)
(0 0 0)
(0 0 0)
(0 0 0)
(0 0 0)
(0 0 0)
(0 0 0)
(0 0 0)
(0 0 0)
(0 0 0)
(0 0 0)
(0 0 0)
(0 0 0)
(0 0 0)
(0 0 0)
(0 0 0)
(0 0 0)
(0 0 0)
(0 0 0)
(0 0 0)
(0 0 0)
(0 0 0)
(0 0 0)
(0 0 0)
(0 0 0)
(0 0 0)
(0 0 0)
(0 0 0)
(0 0 0)
(0 0 0)
(0 0 0)
(0 0 0)
(0 0 0)
(0 0 0)
(0 0 0)
(0 0 0)
(0 0 0)
(0 0 0)
(0 0 0)
(0 0 0)
(0 0 0)
(0 0 0)
(0 0 0)
(0 0 0)
(0 0 0)
(0 0 0)
(0 0 0)
(0 0 0)
(0 0 0)
(0 0 0)
(0 0 0)
(0 0 0)
(0 0 0)
(0 0 0)
(0 0 0)
(0 0 0)
(0 0 0)
(0 0 0)
(0 0 0)
(0 0 0)
(0 0 0)
(0 0 0)
(0 0 0)
(0 0 0)
(0 0 0)
(0 0 0)
(0 0 0)
(0 0 0)
(0 0 0)
(0 0 0)
(0 0 0)
(0 0 0)
(0 0 0)
(0 0 0)
(0 0 0)
(0 0 0)
(0 0 0)
(0 0 0)
(0 0 0)
(0 0 0)
(0 0 0)
(0 0 0)
(0 0 0)
(0 0 0)
(0 0 0)
(0 0 0)
(0 0 0)
(0 0 0)
(0 0 0)
(0 0 0)
(0 0 0)
(0 0 0)
(0 0 0)
(0 0 0)
(0 0 0)
(0 0 0)
(0 0 0)
(0 0 0)
(0 0 0)
(0 0 0)
(0 0 0)
(0 0 0)
(0 0 0)
(0 0 0)
(0 0 0)
(0 0 0)
(0 0 0)
(0 0 0)
(0 0 0)
(0 0 0)
(0 0 0)
(0 0 0)
(0 0 0)
(0 0 0)
(0 0 0)
(0 0 0)
(0 0 0)
(0 0 0)
(0 0 0)
(0 0 0)
(0 0 0)
(0 0 0)
(0 0 0)
(0 0 0)
(0 0 0)
(0 0 0)
(0 0 0)
(0 0 0)
(0 0 0)
(0 0 0)
(0 0 0)
(0 0 0)
(0 0 0)
(0 0 0)
(0 0 0)
(0 0 0)
(0 0 0)
(0 0 0)
(0 0 0)
(0 0 0)
(0 0 0)
(0 0 0)
(0 0 0)
(0 0 0)
(0 0 0)
(0 0 0)
(0 0 0)
(0 0 0)
(0 0 0)
(0 0 0)
(0 0 0)
(0 0 0)
(0 0 0)
(0 0 0)
(0 0 0)
(0 0 0)
(0 0 0)
(0 0 0)
(0 0 0)
(0 0 0)
(0 0 0)
(0 0 0)
(0 0 0)
(0 0 0)
(0 0 0)
(0 0 0)
(0 0 0)
(0 0 0)
(0 0 0)
(0 0 0)
(0 0 0)
(0 0 0)
(0 0 0)
(0 0 0)
(0 0 0)
(0 0 0)
(0 0 0)
(0 0 0)
(0 0 0)
(0 0 0)
(0 0 0)
(0 0 0)
(0 0 0)
(0 0 0)
(0 0 0)
(0 0 0)
(0 0 0)
(0 0 0)
(0 0 0)
(0 0 0)
(0 0 0)
(0 0 0)
(0 0 0)
(0 0 0)
(0 0 0)
(0 0 0)
(0 0 0)
(0 0 0)
(0 0 0)
(0 0 0)
(0 0 0)
(0 0 0)
(0 0 0)
(0 0 0)
(0 0 0)
(0 0 0)
(0 0 0)
(0 0 0)
(0 0 0)
(0 0 0)
(0 0 0)
(0 0 0)
(0 0 0)
(0 0 0)
(0 0 0)
(0 0 0)
(0 0 0)
(0 0 0)
(0 0 0)
(0 0 0)
(0 0 0)
(0 0 0)
(0 0 0)
(0 0 0)
(0 0 0)
(0 0 0)
(0 0 0)
(0 0 0)
(0 0 0)
(0 0 0)
(0 0 0)
(0 0 0)
(0 0 0)
(0 0 0)
(0 0 0)
(0 0 0)
(0 0 0)
(0 0 0)
(0 0 0)
(0 0 0)
(0 0 0)
(0 0 0)
(0 0 0)
(0 0 0)
(0 0 0)
(0 0 0)
(0 0 0)
(0 0 0)
(0 0 0)
(0 0 0)
(0 0 0)
(0 0 0)
(0 0 0)
(0 0 0)
(0 0 0)
(0 0 0)
(0 0 0)
(0 0 0)
(0 0 0)
(0 0 0)
(0 0 0)
(0 0 0)
(0 0 0)
(0 0 0)
(0 0 0)
(0 0 0)
(0 0 0)
(0 0 0)
(0 0 0)
(0 0 0)
(0 0 0)
(0 0 0)
(0 0 0)
(0 0 0)
(0 0 0)
(0 0 0)
(0 0 0)
(0 0 0)
(0 0 0)
(0 0 0)
(0 0 0)
(0 0 0)
(0 0 0)
(0 0 0)
(0 0 0)
(0 0 0)
(0 0 0)
(0 0 0)
(0 0 0)
(0 0 0)
(0 0 0)
(0 0 0)
(0 0 0)
(0 0 0)
(0 0 0)
(0 0 0)
(0 0 0)
(0 0 0)
(0 0 0)
(0 0 0)
(0 0 0)
(0 0 0)
(0 0 0)
(0 0 0)
(0 0 0)
(0 0 0)
(0 0 0)
(0 0 0)
(0 0 0)
(0 0 0)
(0 0 0)
(0 0 0)
(0 0 0)
(0 0 0)
(0 0 0)
(0 0 0)
(0 0 0)
(0 0 0)
(0 0 0)
(0 0 0)
(0 0 0)
(0 0 0)
(0 0 0)
(0 0 0)
(0 0 0)
(0 0 0)
(0 0 0)
(0 0 0)
(0 0 0)
(0 0 0)
(0 0 0)
(0 0 0)
(0 0 0)
(0 0 0)
(0 0 0)
(0 0 0)
(0 0 0)
(0 0 0)
(0 0 0)
(0 0 0)
(0 0 0)
(0 0 0)
(0 0 0)
(-0.0147465 0.00371336 0.00316318)
(-0.0637752 0.00530125 0.0117714)
(-0.0436863 0.00490378 0.00877314)
(-0.0929696 -0.0101793 0.0204501)
(-0.0652418 -0.00640305 0.000576678)
(-0.104037 -0.0408878 0.0100302)
(-0.0597108 -0.0249528 -0.00288741)
(-0.0279532 -0.0209448 -0.00398314)
(-0.00204569 -0.0047811 -0.00216867)
(-0.00294769 -0.000484938 -9.43925e-05)
(-0.0115758 0.00337417 0.00218073)
(-0.00368648 -0.00505992 0.000689594)
(-0.0397206 -0.0462277 0.0168787)
(-0.0907096 -0.0502452 0.0335137)
(-0.190254 -0.108275 0.0365825)
(-0.218465 -0.178334 0.0349188)
(-0.244856 -0.203387 0.00782826)
(-0.164411 -0.0999229 0.00597549)
(-0.117264 -0.0895627 0.00170808)
(-0.18579 -0.151503 0.000660024)
(-0.128092 -0.143523 0.00452814)
(-0.0772748 -0.0607092 0.00218061)
(-0.0507721 -0.038743 -0.000785057)
(-0.120417 -0.136425 0.00949574)
(-0.0949354 -0.0977255 0.00511996)
(-0.05382 -0.0698462 -0.00262141)
(-0.00295332 -0.0128718 0.00234993)
(-0.00648854 -0.0498299 -0.011848)
(-0.00868149 -0.050376 -0.00547129)
(-0.00554284 -0.0217064 0.00486234)
(-0.116354 -0.128101 0.0349099)
(-0.0434257 -0.109607 -0.0132951)
(-0.141787 -0.17989 0.00403121)
(-0.252648 -0.230138 0.0196188)
(-0.245357 -0.223027 -0.00237392)
(-0.209817 -0.21747 0.000862021)
(-0.215133 -0.202067 -0.00790843)
(-0.178584 -0.175731 -0.00591179)
(-0.131059 -0.187907 -0.000331748)
(-0.153603 -0.172213 -0.00546656)
(-0.122252 -0.179289 -0.00541774)
(-0.114406 -0.207865 -0.00886518)
(-0.0937271 -0.155273 -0.00204472)
(-0.101378 -0.176972 -0.00825047)
(-0.0703782 -0.156352 -0.00799953)
(-0.0509313 -0.11652 -0.00674008)
(-0.0338823 -0.105203 -0.0091208)
(-0.0159854 -0.0598192 -0.0126871)
(-0.00248579 -0.0347942 -0.00117314)
(-0.00989644 -0.0675182 0.00349827)
(-0.0196721 -0.0726837 -0.00281462)
(-0.047897 -0.129091 0.0029495)
(-0.130071 -0.171348 0.0139421)
(-0.0490324 -0.129125 0.0125419)
(-0.108327 -0.164555 0.0104567)
(-0.182721 -0.192894 0.00515244)
(-0.183045 -0.170924 -0.00890872)
(-0.146653 -0.166602 6.82527e-05)
(-0.146756 -0.149846 -0.0124113)
(-0.143304 -0.147031 -0.00459129)
(-0.113114 -0.147016 -0.00633742)
(-0.119102 -0.131797 -0.00824345)
(-0.088685 -0.116365 -0.0108613)
(-0.0846665 -0.133199 -0.00989084)
(-0.0523639 -0.122166 -0.0101757)
(-0.0549309 -0.102483 -0.00979991)
(-0.024814 -0.0736821 -0.0111077)
(-0.0194238 -0.0714635 -0.011312)
(-0.0076656 -0.0412739 -0.0116961)
(-0.0127853 -0.0402413 -0.00876439)
(-0.0258588 -0.0627239 -0.00593811)
(-0.0576214 -0.11362 0.00438581)
(-0.095059 -0.150052 0.00527213)
(-0.0479821 -0.0805349 -0.00907012)
(-0.091476 -0.125639 -0.00905607)
(-0.131012 -0.139027 -0.000773684)
(-0.129524 -0.124391 -0.00771101)
(-0.11273 -0.127419 -0.022981)
(-0.103838 -0.0954793 -0.0219707)
(-0.0984219 -0.109524 -0.0138129)
(-0.0630454 -0.0848768 -0.0134076)
(-0.0882061 -0.0764672 -0.016345)
(-0.045727 -0.0546662 -0.0117783)
(-0.0339859 -0.0701216 -0.0107854)
(-0.0116752 -0.0332402 -0.00948602)
(-0.013716 -0.0263143 -0.00974719)
(-0.00525827 -0.0147011 -0.00698862)
(-0.00259985 -0.0210742 -0.0112223)
(-0.0607462 -0.0666038 -0.0213054)
(-0.0829351 -0.0625847 -0.0221431)
(-0.0783065 -0.034728 -0.0195443)
(-0.0512291 -0.00605985 -0.0139057)
(-0.0507089 -0.0225925 -0.0115706)
(-0.0205889 -0.0253677 -0.0117989)
(-0.0370072 -0.0106604 -0.0254877)
(-0.00858768 -0.0128607 -0.00742729)
(0.0606654 -0.0416509 -0.0780111)
(0.0919431 -0.0593078 0.0634646)
(-0.104791 -0.00428325 0.0059258)
(-0.00904741 0.0112202 -0.0187692)
(-0.144599 -0.035267 0.0289011)
(-0.0500487 -0.00389174 0.0445422)
(0.0194082 -0.0113591 0.0558223)
(-0.0669318 -0.0335574 0.0631658)
(-0.142552 -0.0746301 0.0275785)
(-0.148319 -0.0769608 0.0176182)
(-0.0670239 -0.0124178 0.0730488)
(-0.107492 -0.0641192 0.0911975)
(-0.132269 -0.0756084 0.0738998)
(-0.136747 -0.0899966 -0.00426478)
(-0.138015 -0.0940322 0.0435832)
(-0.0345382 -0.158547 -0.150182)
(0.0127215 -0.101227 -0.0116842)
(-0.0577507 -0.194007 -0.0728908)
(-0.0657652 -0.186866 -0.133713)
(-0.088221 -0.206322 -0.0875695)
(0.0386376 -0.116649 0.0130287)
(-0.00526125 -0.163845 0.0460791)
(-0.0268867 -0.148141 0.00342716)
(-0.0170992 -0.15991 0.0275437)
(-0.115452 -0.151666 -0.038333)
(-0.15522 -0.23665 -0.00798027)
(-0.0978476 -0.188492 -0.0422193)
(-0.149599 -0.175788 0.043722)
(-0.0887658 -0.120136 0.0274133)
(-0.127918 -0.216646 0.0568569)
(-0.0593719 -0.139654 0.0249152)
(-0.0709169 -0.149097 -0.0394985)
(-0.0495207 -0.100767 0.0101489)
(-0.0657549 -0.166848 -0.134073)
(-0.0292047 -0.115375 -0.0708677)
(-0.0645892 -0.148557 -0.110784)
(-0.0116384 -0.0946363 -0.00589902)
(-0.00400889 -0.0543485 -0.0403334)
(-0.0179738 -0.0903188 -0.0344512)
(0.00425675 -0.155935 -0.0288799)
(-0.00418632 -0.12847 -0.00919139)
(-0.0313342 -0.133635 0.0230055)
(-0.00101346 -0.138153 0.0131182)
(-0.00950419 -0.102446 0.0260444)
(-0.0203372 -0.0904782 -0.0394583)
(-0.0253545 -0.0932609 -0.0371023)
(-0.00821236 -0.0373464 -0.0491571)
(-0.0158663 -0.0481711 -0.0282251)
(-0.0178095 -0.0438953 -0.013678)
(0.0093516 -0.110191 -0.0246697)
(0.0145324 -0.0833655 -0.024769)
(0.0214226 -0.123327 0.00731462)
(0.0142541 -0.0965452 0.0112439)
(0.0189814 -0.0941759 0.00173264)
(-0.0425826 -0.0888132 -0.0323337)
(-0.0330593 -0.0509895 -0.00894833)
(-0.154677 -0.226812 -0.00658647)
(-0.0866956 -0.111187 -0.0335876)
(-0.124872 -0.135416 -0.0409111)
(-0.0684695 -0.0827806 0.00946762)
(-0.102014 -0.118473 0.00375007)
(-0.0658695 -0.0647145 -0.0118345)
(-0.0949526 -0.0753616 -0.0202862)
(0.0236641 -0.0591425 -0.0455376)
(0.000552734 -0.0345111 -0.0456387)
(0.0153127 -0.0303074 -0.0525254)
(-0.00667849 -0.0666087 -0.00828892)
(0.026767 -0.0676035 -0.0164681)
(-0.00669254 -0.027081 -0.0225091)
(0.0141195 -0.0282792 -0.0277475)
(0.0306441 -0.0644605 -0.0197099)
(-0.0996542 -0.0691199 -0.0628208)
(-0.0839573 -0.0459076 -0.0448775)
(-0.0857365 -0.058714 -0.0595031)
(-0.0718549 -0.0288134 -0.0416857)
(-0.0960044 -0.0525646 -0.0364201)
(-0.0758785 -0.0588099 -0.0197815)
(-0.0451471 -0.0309415 0.00418011)
(-0.0279427 -0.0237765 -0.0377293)
(-0.0591861 -0.016791 -0.0670628)
(-0.0495962 -0.0162362 -0.0174442)
(-0.0318429 -0.0120662 -0.0133116)
(-0.0298783 -0.00214133 -0.0274631)
(-0.0132825 -0.00679842 -0.0348528)
(0.100376 -0.0629161 0.160627)
(0.133133 -0.0787871 0.252928)
(-0.028944 -0.0064307 0.106259)
(0.0441923 -0.0305471 0.144099)
(-0.0260907 -0.0384653 0.143652)
(-0.0431696 -0.00689541 0.178019)
(0.0611504 -0.0550064 0.242868)
(-0.0285275 -0.0571861 0.23799)
(-0.0909852 -0.0568608 0.167478)
(-0.116339 -0.0636049 0.155167)
(-0.0774739 -0.0135509 0.17257)
(-0.104339 -0.0571766 0.233108)
(-0.115404 -0.0510775 0.197957)
(-0.128168 -0.0846519 0.12609)
(-0.113913 -0.0604542 0.173483)
(0.0242283 -0.0948107 0.101095)
(0.0430306 -0.0916522 0.253774)
(0.0594466 -0.148505 0.175725)
(0.00800055 -0.125101 0.11924)
(0.0375827 -0.140272 0.138739)
(0.0936951 -0.120132 0.286074)
(0.128417 -0.15463 0.323459)
(0.0428885 -0.121206 0.271033)
(0.120273 -0.138236 0.312829)
(-0.0795963 -0.0976571 0.110831)
(-0.118801 -0.161996 0.142358)
(-0.0619247 -0.110259 0.0916511)
(-0.122256 -0.0931744 0.215373)
(-0.0754886 -0.062377 0.180141)
(-0.123399 -0.142871 0.20167)
(-0.065156 -0.0975866 0.137569)
(-0.043734 -0.0743253 0.0717799)
(-0.0360945 -0.0649101 0.0833182)
(-0.0154385 -0.0667961 0.118206)
(-0.00150229 -0.0624047 0.0901709)
(-0.0181558 -0.0967227 0.105673)
(0.00309129 -0.021827 0.294638)
(-0.00723407 -0.0408425 0.153199)
(-0.0221203 -0.0651466 0.191695)
(-0.0280553 -0.136554 0.0249813)
(-0.0173198 -0.0960296 0.036168)
(-0.0404108 -0.103168 0.0558592)
(-0.0304662 -0.133989 0.0154869)
(-0.0157137 -0.0975081 0.0322465)
(-0.0192008 -0.102421 0.0550702)
(-0.032606 -0.0867226 0.0333804)
(-0.00798257 -0.0650262 0.0722671)
(-0.0399814 -0.114648 0.0682939)
(-0.0519207 -0.11777 0.038538)
(0.0114885 -0.0868784 0.0215246)
(0.00689319 -0.0988692 -0.00791201)
(-0.000456153 -0.134642 -0.0244598)
(0.0133132 -0.0971006 0.0152902)
(0.01054 -0.101383 -0.0452325)
(-0.0434599 -0.072296 0.0213811)
(-0.0571421 -0.0977498 0.0247857)
(-0.0774431 -0.112539 0.0478252)
(-0.0626509 -0.0669601 0.0184089)
(-0.0789983 -0.0837193 0.0125388)
(-0.0833858 -0.107766 0.042906)
(-0.0973085 -0.121392 0.0434658)
(-0.0701673 -0.0742353 0.017449)
(-0.0937417 -0.0854631 0.00137247)
(0.0190185 -0.0736296 -0.0343211)
(-0.0218019 -0.0297024 -0.0395241)
(0.0100659 -0.023736 -0.0368123)
(-0.0303592 -0.0923752 -0.0763169)
(0.0112906 -0.0682876 -0.0824966)
(-0.0134256 -0.0356881 -0.0876992)
(0.0133537 -0.0247523 -0.0733828)
(0.0230148 -0.0562206 -0.0559111)
(-0.0824819 -0.0511172 -0.0125864)
(-0.083088 -0.0488227 -0.0164256)
(-0.0836755 -0.0715113 -0.0125175)
(-0.0459712 -0.0221542 0.00458048)
(-0.0942766 -0.0438791 -0.0297369)
(-0.0937352 -0.0445586 -0.0388816)
(-0.0696575 -0.0126405 -0.0254522)
(-0.0337387 -0.0225444 -0.0219285)
(-0.0299113 -0.000428632 -0.0192551)
(-0.0680123 -0.0156573 -0.0502281)
(-0.0398173 -0.0101803 -0.0584856)
(-0.0512631 0.000366889 -0.0350197)
(-0.0134564 -0.00565479 -0.0698946)
(0.158027 -0.128825 0.339849)
(0.152358 -0.139018 0.414254)
(-0.0626534 -0.0320846 0.290941)
(0.0808538 -0.112796 0.354988)
(-0.0458495 -0.0972521 0.353777)
(-0.148591 -0.0869338 0.317536)
(0.11179 -0.15468 0.437045)
(-0.106466 -0.134564 0.413934)
(-0.126169 -0.0705528 0.287438)
(-0.111205 -0.0449263 0.217739)
(-0.122882 -0.0755546 0.295966)
(-0.134879 -0.0863617 0.306814)
(-0.0910942 -0.0590282 0.230318)
(-0.0888355 -0.0416308 0.174288)
(-0.0592931 -0.037506 0.169991)
(0.0618533 -0.0945424 0.403568)
(0.0655369 -0.100332 0.376191)
(0.168775 -0.182767 0.390621)
(0.094829 -0.138542 0.42705)
(0.149175 -0.168955 0.39276)
(0.137873 -0.147602 0.395719)
(0.155457 -0.168317 0.421849)
(0.108674 -0.14137 0.395286)
(0.137044 -0.153989 0.385989)
(-0.0436619 -0.0299025 0.184609)
(-0.101493 -0.0887562 0.227582)
(-0.0507296 -0.0487242 0.1544)
(-0.0592135 -0.0428944 0.203116)
(-0.0143766 -0.00134055 0.1501)
(-0.0687048 -0.0475528 0.215062)
(-0.0144521 0.00468456 0.14756)
(-0.0271349 -0.0430767 0.0819431)
(0.00783476 0.0209349 0.0693053)
(0.0248232 -0.00363995 0.382434)
(-0.000645058 -0.028405 0.202678)
(-0.00466825 -0.00336637 0.264589)
(0.0406868 -0.0515121 0.36662)
(0.00253407 -0.0346298 0.234216)
(0.016147 -0.00850589 0.285321)
(-0.0505081 -0.130717 0.00880643)
(-0.0212709 -0.108629 0.021133)
(-0.0421791 -0.0249342 0.0416285)
(-0.0483154 -0.120085 0.00188927)
(-0.0146461 -0.0994975 0.010728)
(-0.0538763 -0.124985 0.0982429)
(-0.0732424 -0.137214 0.0484819)
(0 0 0)
(0 0 0)
(0 0 0)
(0.00566064 -0.110674 -0.0131804)
(-0.00682734 -0.124353 -0.0994776)
(-0.0183534 -0.157921 -0.0893163)
(0.0130249 -0.117765 -0.0421178)
(-4.40478e-05 -0.141912 -0.158596)
(-0.063586 -0.103896 0.0257597)
(-0.096622 -0.107659 0.0111585)
(-0.0830456 -0.119088 0.0217067)
(-0.0710235 -0.0731394 0.00858916)
(-0.0842967 -0.087793 -0.0157916)
(-0.0875201 -0.102557 0.0164329)
(-0.0777998 -0.114544 0.00143704)
(-0.0689194 -0.0718098 -0.00373744)
(-0.079103 -0.0849591 -0.0326458)
(-0.000867835 -0.0971985 -0.148665)
(-0.0378344 -0.0508449 -0.150845)
(0.00727673 -0.0373972 -0.127445)
(-0.051523 -0.134262 -0.203814)
(-0.0063961 -0.113507 -0.22305)
(-0.0338257 -0.0652803 -0.221724)
(0.00464874 -0.0504353 -0.208138)
(0.0263681 -0.0906911 -0.186971)
(-0.0851781 -0.0564832 -0.0328078)
(-0.0787392 -0.0501976 -0.0498313)
(-0.106873 -0.0659461 -0.077757)
(-0.0866401 -0.0175096 -0.0662633)
(-0.0960518 -0.0530571 -0.0782578)
(-0.107573 -0.0523705 -0.11166)
(-0.0934711 -0.0179379 -0.111638)
(-0.0528068 -0.028025 -0.110741)
(-0.065445 -0.00450417 -0.0745452)
(-0.0970563 -0.036713 -0.152922)
(-0.0558468 -0.0298522 -0.177514)
(-0.0822936 -0.00201602 -0.130486)
(-0.0233015 -0.0157889 -0.177086)
(0.0812241 -0.193982 0.418602)
(0 0 0)
(0 0 0)
(0 0 0)
(-0.12729 -0.020483 -0.341599)
(-0.0887273 0.00278554 -0.347421)
(0 0 0)