/*--------------------------------*- C++ -*----------------------------------*\
| =========                 |                                                 |
| \\      /  F ield         | OpenFOAM: The Open Source CFD Toolbox           |
|  \\    /   O peration     | Version:  5.x                                   |
|   \\  /    A nd           | Web:      www.OpenFOAM.org                      |
|    \\/     M anipulation  |                                                 |
\*---------------------------------------------------------------------------*/
FoamFile
{
    version     2.0;
    format      ascii;
    class       volVectorField;
    location    "5.75";
    object      U;
}
// * * * * * * * * * * * * * * * * * * * * * * * * * * * * * * * * * * * * * //

dimensions      [0 1 -1 0 0 0 0];

internalField   nonuniform List<vector> 
10571
(
(0.184879 0.317146 1.56823)
(0.0406475 0.0971269 0.610444)
(0.345703 0.101725 0.978089)
(0.257811 0.00767818 1.70019)
(-0.0834611 0.0149245 0.920799)
(0.100808 0.530697 1.63005)
(0.694846 0.32353 1.49707)
(-0.439206 -0.39247 1.95106)
(-0.410317 -0.889537 1.76992)
(-0.166906 -0.161339 0.791881)
(0.03611 0.372505 3.41804)
(0.199389 0.151938 1.09502)
(0.704717 -0.894834 2.03812)
(-0.28123 -0.630161 1.08468)
(-0.531623 -1.18531 1.6292)
(-0.0139832 -0.176243 1.05815)
(0.0503523 -0.119791 1.1292)
(0.00236255 -0.917737 1.64834)
(-0.00306824 -0.494399 0.70833)
(0.138284 -0.574092 1.36867)
(-0.04068 -0.0590043 0.348867)
(-0.143492 -0.229065 0.923582)
(-0.00858898 0.00873003 0.901667)
(0.0205194 -0.102618 0.397182)
(0.0516745 0.145645 0.585156)
(0.017778 0.030684 0.319488)
(0.0467518 -0.0872466 0.493724)
(-0.398936 -0.444173 2.04162)
(-0.910605 -0.731027 1.41001)
(0.278126 -0.00551624 0.684431)
(-0.00327044 -1.53599 2.88104)
(-0.852354 -0.844522 1.52021)
(-0.144271 -0.240402 0.463311)
(-0.151365 -0.293618 0.431613)
(0.343303 0.387449 1.16783)
(0.39704 -0.163155 0.597541)
(-0.070171 -0.669735 1.01419)
(-0.136144 -0.1072 0.279801)
(-0.0251157 -0.0774952 0.41381)
(0.0206725 -0.131448 0.590909)
(0.175478 -0.302632 0.960863)
(-0.0424871 -0.0807766 0.223352)
(-0.0498186 -0.017009 0.18934)
(-0.215227 -0.1969 0.907049)
(0.0402373 -0.0637903 0.458537)
(-0.099783 -0.182114 0.483514)
(0.0120379 -0.138168 0.376467)
(-0.00138521 -0.00559545 0.241001)
(-0.0521733 -0.0253089 0.162339)
(-0.0047302 0.0267878 0.160984)
(-0.0891742 -0.38423 1.02614)
(-0.504006 -0.113333 3.41658)
(-0.287106 0.163134 1.09559)
(0.332004 -0.65576 1.20204)
(-0.101048 -1.598 4.04878)
(0.0746971 -0.0933885 0.956418)
(0.0441889 0.0882054 0.266449)
(-0.0484114 0.0469966 0.473561)
(0.0225384 -0.128179 0.329376)
(0.245455 -0.367857 0.667442)
(0.435561 0.393474 1.37339)
(0.170668 0.242816 0.51614)
(-0.00628223 0.0799319 0.372056)
(-0.106031 0.0514756 0.414681)
(0.164646 0.00606814 0.614909)
(0.141262 0.127191 0.403952)
(0.0361696 0.138502 0.614891)
(-0.0545969 0.0162552 0.356756)
(-0.0343079 0.0730514 0.464241)
(0.0588596 -0.0179023 0.335315)
(-0.00356988 -0.0160267 0.252512)
(-0.0267075 0.0151597 0.227996)
(0.00340799 -0.000179312 0.00360528)
(-0.0974171 0.0436428 0.180213)
(0.000594372 -1.0334 2.31073)
(-0.759571 0.163363 4.62387)
(0.0335811 0.0645998 0.534119)
(-0.107903 -0.338722 0.571075)
(-0.0470177 -0.252749 1.10592)
(0.177317 0.0935614 0.531877)
(0.13244 0.136835 0.460535)
(0.126521 0.195214 0.613361)
(-0.0464234 -0.0809428 0.342535)
(-0.126731 -0.0803495 0.705675)
(0.105572 0.17119 0.262399)
(0.250198 0.240388 0.637807)
(0.0681553 0.0805497 0.982899)
(0.0714303 -0.032751 0.626065)
(-0.001113 0.193323 0.379196)
(0.210357 0.433486 0.810696)
(-0.0423796 -0.0074072 0.896644)
(-0.0254808 -0.063207 0.265706)
(0.171155 -0.230746 0.370886)
(0.14582 0.208714 0.577659)
(-0.079219 -0.121916 0.159052)
(-0.00342513 -0.000784222 -0.103463)
(0.00553566 -0.133291 0.320161)
(-0.0437467 0.017216 0.676978)
(-0.441761 -0.0688971 2.24969)
(-0.537397 0.135984 4.56383)
(0.291834 -0.0257768 0.222086)
(0.0628142 0.339187 1.10766)
(-0.00314822 0.108239 2.52792)
(-0.0768414 0.266184 0.675319)
(0.0286589 0.0473585 0.257903)
(0.172841 0.0720243 0.419184)
(-0.108391 -0.0723657 0.61485)
(-0.110552 -0.00466916 0.338348)
(0.0327914 -0.0476485 0.833689)
(-0.165132 0.0228278 0.624959)
(-0.0197483 -0.0379848 0.62384)
(-0.247325 0.0257425 0.365345)
(-0.121023 0.110263 0.191935)
(0.000687617 0.015855 0.309656)
(-0.0553029 -0.153011 0.664739)
(-0.0319268 -0.332731 0.141612)
(0.0875288 -0.18613 0.367281)
(0.241595 0.0182532 0.648845)
(0.124051 -0.161281 0.0909662)
(0.121093 -0.0661051 -0.0972191)
(0.532362 0.202273 0.827498)
(-0.141982 0.0944197 0.740181)
(-0.63767 -0.169947 2.52416)
(-0.19335 -0.0765751 3.2429)
(0.293923 -0.0545227 0.434238)
(0.0246169 0.237706 0.63663)
(-0.0838233 0.424338 1.76058)
(0.00259193 0.512378 0.492217)
(-0.154105 0.0183596 0.169869)
(-0.0512524 0.173298 0.485767)
(-0.00826556 0.00100256 0.00345269)
(-0.0544598 -0.0471996 0.504763)
(-0.0796374 -0.20721 0.0230543)
(-0.10783 0.187695 0.531889)
(-0.0978467 0.0518639 0.564455)
(-0.00376597 -0.0771699 0.741101)
(-0.169858 0.118704 0.276894)
(0.00234839 0.000286995 0.000579229)
(-0.0878586 -0.195607 0.154252)
(-0.0429069 -0.0107657 0.442804)
(-0.0758374 -0.159148 0.673822)
(-0.0511443 0.0606706 0.301596)
(-0.076559 0.193182 0.191662)
(0.152944 -0.0732009 0.53326)
(0.250668 -0.0137815 0.11152)
(0.107329 -0.00323354 0.00831856)
(0.664125 0.0615518 0.894728)
(-0.375347 0.162716 1.08393)
(-0.437527 -0.145056 1.98772)
(0.0342114 -0.116217 2.01806)
(0.0533054 0.0849747 0.742039)
(-0.0412955 0.189598 0.590884)
(-0.183182 0.418815 1.53077)
(0.0178475 0.188612 0.503115)
(-0.159652 0.00672832 0.26821)
(-0.0940095 0.111589 0.393486)
(-0.125977 0.0771745 -0.0621312)
(-0.0604906 0.0666699 0.743384)
(-0.154245 0.130027 0.205006)
(-0.144961 0.321228 0.697849)
(-0.0507933 -0.0199309 0.702268)
(-0.0352372 -0.098591 0.735988)
(-0.172828 0.148553 0.257358)
(-0.0641095 0.110427 -0.00266303)
(-0.00115707 -0.123911 0.208263)
(-0.0159312 0.0733989 0.500257)
(-0.0657013 -0.198843 0.672854)
(-0.0489943 0.0933048 0.382027)
(-0.0359926 0.168489 0.212319)
(0.0192542 0.0359939 0.0464244)
(0.120071 0.0328954 0.232737)
(0.223743 0.00463701 0.194735)
(0.0844185 0.00894173 0.122561)
(0.673732 -0.0287861 1.07145)
(-0.323473 0.239051 1.27377)
(-0.303024 0.0702544 2.02807)
(-0.088666 -0.114823 1.57751)
(0.144223 0.185699 1.00068)
(-0.167203 0.280905 0.613443)
(-0.100505 0.437333 1.31969)
(-0.0514515 -0.108184 0.50645)
(-0.0625895 0.0305147 0.273852)
(0.0525663 0.084328 0.235505)
(0.0367386 0.0593562 -0.0870445)
(-0.000212567 0.166513 0.919268)
(-0.1207 0.376612 0.37187)
(-0.0918335 0.297184 0.810314)
(0.0360655 -0.0873136 0.789385)
(-0.0725282 -0.0935404 0.728959)
(-0.0794335 0.155927 0.266933)
(0.0221813 0.100738 -0.0313226)
(0.150024 0.204159 0.399704)
(0.0882207 0.0860962 0.538788)
(0.000122428 -0.240298 0.62283)
(0.0373308 0.0332833 0.446211)
(-0.0125095 0.0251637 0.212816)
(0.0769283 0.034349 0.0592058)
(0.111484 0.0932733 0.194265)
(0.184514 -0.00702591 0.232712)
(0.074259 -0.00585549 0.163947)
(0.653989 0.0263036 1.20602)
(-0.325179 0.292866 1.23565)
(-0.238816 0.0546927 1.9436)
(0.0409708 -0.0791454 1.36839)
(0.256628 0.320729 1.05572)
(-0.188335 0.546064 0.576036)
(0.0108025 0.42776 1.06965)
(-0.05483 -0.152604 0.50126)
(0.0125705 0.113662 0.313077)
(0.086196 0.189765 0.132266)
(0.063204 -0.0498018 -0.091251)
(0.0635532 0.445661 0.962988)
(-0.112589 0.493473 0.500382)
(-0.0398345 0.230707 0.837684)
(0.0867312 -0.0727808 0.803113)
(-0.0784844 -0.0494706 0.734361)
(0.0156392 0.167093 0.360171)
(0.111693 -0.0146974 0.00364439)
(0.232183 0.398603 0.63896)
(0.166268 0.0922649 0.570366)
(0.0750643 -0.185672 0.583523)
(0.0834183 0.0171234 0.494235)
(0.00574351 -0.0180105 0.192012)
(0.151256 0.0875259 0.238654)
(0.157717 -0.00894426 0.26316)
(0.0712679 -0.0162742 0.197467)
(0.68826 0.0176927 1.11799)
(-0.409103 0.46089 0.920742)
(-0.0879383 0.203362 1.5192)
(0.302258 0.15002 1.44361)
(0.482654 0.390155 0.889799)
(-0.116322 0.618893 0.574555)
(0.0278122 0.477013 0.974743)
(-0.00943841 0.0229006 0.541114)
(0.00723135 0.142456 0.388738)
(0.0496474 0.236613 0.200741)
(0.0437494 0.564313 0.986733)
(-0.110167 0.459189 0.647903)
(-0.00664567 0.215373 0.886114)
(0.0955008 -0.0199768 0.83461)
(-0.0278408 0.0131251 0.722193)
(0.0897827 0.0419072 0.353862)
(0.286906 0.455836 0.852618)
(0.190295 0.0977024 0.608267)
(0.0959037 -0.0718348 0.600336)
(0.0852127 0.0526732 0.52616)
(0.0239189 0.0175623 0.255513)
(0.164833 0.0714665 0.313429)
(0.140319 -0.0115771 0.306371)
(0.0671316 -0.0197522 0.249862)
(0.674464 0.0223813 1.05472)
(-0.185342 0.264095 0.644796)
(-0.18599 0.287186 0.656729)
(0.624169 0.249237 1.07352)
(0.558105 0.387744 0.878133)
(-0.0287109 0.376709 0.549495)
(0.00831261 0.46156 0.994576)
(0.0178007 0.189997 0.703332)
(0.000300681 0.0701321 0.524915)
(-0.00259062 0.186681 0.354279)
(0.0158589 0.519314 1.0281)
(-0.105291 0.239582 0.765434)
(0.00880728 0.19703 0.936429)
(0.0864312 0.0191633 0.882758)
(0.0658827 0.0348319 0.708314)
(0.110439 0.0147211 0.406382)
(0.298544 0.353517 0.990594)
(0.167677 0.114585 0.651341)
(0.0761612 0.00213988 0.650642)
(0.0857014 0.0871167 0.557714)
(0.0194864 0.00471115 0.36932)
(0.12906 0.057217 0.396213)
(0.119663 -0.0245412 0.359184)
(0.0650592 -0.0221496 0.320867)
(0.246524 0.0412582 0.741864)
(-0.0968247 0.138292 0.484695)
(-0.0556693 0.088667 0.368407)
(0.0510066 0.199812 0.701538)
(0.211123 0.264728 0.862903)
(-0.0219531 0.193971 0.52027)
(-0.00176987 0.306906 1.03062)
(0.0822335 0.140729 0.819833)
(0.0466574 -0.0111158 0.622319)
(-0.0321527 0.122137 0.474248)
(0.00630922 0.350452 1.07302)
(0.00614832 0.0456556 0.851832)
(0.0145182 0.175852 0.946924)
(0.0739909 0.0304502 0.910472)
(0.101275 0.047871 0.692721)
(0.069874 0.0122501 0.461196)
(0.182708 0.19247 0.999408)
(0.0901726 0.102486 0.712514)
(0.0574632 0.0227564 0.693518)
(0.0831273 0.0916512 0.579391)
(0.0198762 -0.0065182 0.499215)
(0.0724277 0.0534398 0.47456)
(0.0965377 -0.0349424 0.400746)
(0.0608124 -0.0234214 0.387383)
(0.0293524 -0.00700159 0.575125)
(-0.0665733 0.0746552 0.43696)
(-0.0421089 -0.0393259 0.364554)
(-0.107039 0.0656035 0.64064)
(-0.00563033 0.0557297 0.715014)
(-0.101606 0.064245 0.554434)
(0.00590325 0.162065 0.884128)
(0.157733 0.0611052 0.834669)
(0.091733 -0.039156 0.677361)
(-0.0317451 0.0792143 0.537864)
(0.0105407 0.0641541 1.03185)
(0.0236592 0.0228785 0.913269)
(0.0109737 0.171685 0.922084)
(0.0595646 0.0261588 0.910135)
(0.0919144 0.0586189 0.681103)
(0.0468145 0.0374113 0.518743)
(0.0668676 0.134525 0.944266)
(0.0171786 0.0338038 0.747891)
(0.0499448 0.022279 0.705937)
(0.0635352 0.0948597 0.610903)
(-0.00168695 -0.00130518 0.605819)
(0.0238161 0.0624644 0.54203)
(0.0432041 -0.00777913 0.447519)
(0.0498886 -0.0153156 0.429042)
(0.0157418 -0.0159991 0.586588)
(-0.0533079 0.0178505 0.501108)
(-0.0581922 -0.0154078 0.406184)
(-0.0178502 -0.0267693 0.67587)
(-0.0145279 -0.0223179 0.650372)
(-0.134692 -0.0556161 0.565231)
(0.0146583 0.0693189 0.619053)
(0.15916 0.0279074 0.81565)
(0.0872775 -0.0423465 0.70593)
(-0.0570104 0.0359939 0.572406)
(0.00546665 0.0411596 1.00652)
(-0.0494869 0.0722913 0.939709)
(-0.00537766 0.142465 0.890638)
(0.00811057 0.0122316 0.893502)
(0.0344885 0.0711665 0.641356)
(0.0401534 0.0540951 0.556589)
(0.0138259 0.130988 0.942991)
(-0.04027 -0.0450213 0.759718)
(0.0320414 0.0204093 0.701532)
(-0.00612785 0.123443 0.637526)
(-0.0260916 0.0221395 0.67154)
(0.00540812 0.0717269 0.601399)
(-0.00180778 0.0130645 0.48128)
(0.0134774 0.00899329 0.509649)
(0.0219186 -0.00987338 0.6101)
(-0.045155 0.034146 0.576191)
(-0.0595978 0.0101008 0.44335)
(-0.0236436 -0.0434957 0.72146)
(-0.0224469 -0.0320326 0.652484)
(-0.0667833 -0.0195142 0.53818)
(0.00412058 0.0671393 0.492939)
(0.0874351 -0.00184138 0.786636)
(0.0447005 -0.0465494 0.719592)
(-0.0845495 0.0320796 0.506883)
(0.00375466 0.114134 1.04873)
(-0.106728 0.1654 0.946659)
(-0.0427139 0.0776425 0.894557)
(-0.0247254 0.0252759 0.886274)
(-0.00228385 0.0627725 0.597651)
(0.0129948 0.106669 0.566554)
(-0.00555807 0.147568 1.00286)
(-0.0857807 -0.0821063 0.761302)
(-0.0287105 0.0172654 0.695788)
(-0.0496511 0.108491 0.652205)
(-0.0551433 0.0725625 0.701642)
(0.0107144 0.0799376 0.65966)
(-0.0295592 0.0195927 0.505016)
(-0.0366164 0.0207146 0.592853)
(0.0375229 -0.00534549 0.595108)
(-0.0361388 0.0525837 0.532172)
(-0.0646517 0.0434104 0.44805)
(-0.0355376 -0.0535995 0.729447)
(-0.0117772 -0.0279443 0.694804)
(-0.0376473 0.186015 0.542783)
(-0.017178 0.0859019 0.46284)
(-0.0182666 -0.0187004 0.733181)
(0.0308966 -0.0433826 0.706717)
(-0.000491743 0.0108438 0.383874)
(0.00414812 0.170267 1.14912)
(-0.0855699 0.187421 0.902063)
(-0.0863737 0.0199887 0.919741)
(-0.0245725 0.0512459 0.865575)
(0.00718355 0.0514133 0.564761)
(0.004149 0.131786 0.581311)
(0.00538967 0.157322 1.09755)
(-0.116965 -0.0804217 0.763313)
(-0.0884702 0.0209317 0.691055)
(-0.0683946 0.047255 0.647707)
(-0.0747171 0.115006 0.696867)
(0.0247962 0.0832663 0.728717)
(-0.0468261 0.0207089 0.526571)
(-0.0639411 0.0207135 0.615747)
(0.049595 -0.00870567 0.58027)
(-0.0803572 0.127263 0.36874)
(0.00402446 0.120782 0.387015)
(-0.0249531 -0.0702879 0.726685)
(0.0258982 -0.00430946 0.728725)
(-0.113688 0.228404 0.569097)
(-0.0478024 0.0932071 0.472263)
(-0.0803228 0.00770082 0.664002)
(0.0213234 -0.00354571 0.664386)
(0.0163281 0.0107691 0.331533)
(-0.000961156 0.193469 1.26265)
(-0.086114 0.177869 0.918593)
(-0.104084 -0.018763 0.948368)
(-0.0407288 0.0800438 0.809861)
(0.0235253 0.0598272 0.551986)
(0.0273048 0.0946467 0.583643)
(0.0153483 0.17467 1.19415)
(-0.126821 -0.0630831 0.776206)
(-0.128736 0.0387735 0.688165)
(-0.0752944 -0.00902506 0.618158)
(-0.060968 0.108056 0.694916)
(0.0429299 0.0855203 0.811946)
(-0.052492 0.0191215 0.552577)
(-0.0685569 0.023853 0.597641)
(0.0418193 -0.0142957 0.598549)
(-0.053815 0.103204 0.260511)
(0.0347246 0.0569058 0.317119)
(-0.00629348 -0.0548659 0.715724)
(0.0457715 0.0296259 0.756283)
(-0.193727 0.0853343 0.592442)
(-0.0938505 0.0629996 0.481555)
(-0.109522 0.0439492 0.59477)
(-0.0266517 0.0816621 0.581625)
(0.00795888 0.00944963 0.34224)
(-0.00265604 0.182512 1.4152)
(-0.107278 0.0898739 0.992796)
(-0.0821978 -0.0361896 0.972061)
(-0.0721931 0.0977038 0.756991)
(0.0226094 0.0896031 0.551792)
(0.0494541 0.0469237 0.584404)
(0.0208678 0.160369 1.27109)
(-0.110847 -0.0513547 0.79397)
(-0.14692 0.0616936 0.696607)
(-0.0466529 0.0148857 0.586694)
(-0.0119897 0.0161515 0.689814)
(0.0669301 0.0883601 0.904916)
(-0.0403103 0.0166628 0.585145)
(-0.040251 0.0269692 0.583357)
(0.0280111 -0.017164 0.68121)
(0.0128946 0.0238789 0.19586)
(0.0724528 -0.0401788 0.276728)
(0.0749379 0.00383751 0.687984)
(0.054176 0.0564349 0.766549)
(-0.2018 -0.0726835 0.66573)
(-0.108823 0.00845768 0.465466)
(-0.123951 0.0756141 0.533689)
(-0.0678225 0.146389 0.502128)
(-0.0154494 -0.00721738 0.380626)
(-0.0119387 0.154759 1.50169)
(-0.17289 -0.0482655 0.971002)
(-0.0202121 -0.0199812 0.980843)
(-0.0864425 0.0991623 0.729051)
(0.0169882 0.113424 0.546858)
(0.0435364 -0.00246027 0.603443)
(-0.00684289 0.154135 1.33086)
(-0.0624472 -0.059584 0.817853)
(-0.139062 0.0768259 0.716176)
(-0.0278257 0.0640711 0.583742)
(0.0193562 -0.0150551 0.664697)
(0.100534 0.0945388 0.991098)
(-0.0124148 0.0115205 0.623016)
(0.0158874 0.0159558 0.602926)
(0.0420874 -0.0059672 0.743163)
(0.0731708 -0.0485546 0.168791)
(0.0919649 -0.0923278 0.27489)
(0.0774477 0.0153509 0.704799)
(0.0403396 0.057871 0.777832)
(-0.0344976 -0.0416964 0.734493)
(-0.082065 -0.0225199 0.442248)
(-0.13365 0.0947969 0.481971)
(-0.070976 0.177286 0.429359)
(-0.033706 -0.0226083 0.420557)
(-0.0251324 0.0311824 1.6322)
(-0.207121 -0.11507 0.86977)
(0.0238164 0.0199239 0.975207)
(-0.0837854 0.0975964 0.722925)
(0.0165833 0.115492 0.543821)
(0.0343628 -0.0274625 0.613182)
(-0.0121382 0.144273 1.37661)
(-0.0149101 -0.0804819 0.844087)
(-0.10458 0.071526 0.743872)
(-0.0182758 0.0824184 0.614339)
(0.0333913 -0.0212209 0.655688)
(0.148546 0.104183 1.05066)
(0.028952 0.00265535 0.662297)
(0.0595424 -0.0098511 0.635093)
(0.0250531 -0.0122814 0.788191)
(0.0933643 -0.0859736 0.18923)
(0.0264511 -0.134237 0.353542)
(0.0378519 -0.0415304 0.730234)
(0.0029166 0.0219677 0.771557)
(0.197907 0.0317287 0.671103)
(-0.0391527 -0.0128834 0.443625)
(-0.132026 0.0923676 0.458869)
(-0.0639946 0.157725 0.377999)
(-0.038719 -0.0483746 0.45201)
(-0.00198234 -0.0573573 1.73975)
(-0.0213368 0.00221057 0.806577)
(0.0202426 0.0604896 0.986523)
(-0.0746828 0.0996452 0.729221)
(0.0187433 0.097264 0.549386)
(0.0225758 -0.049354 0.614666)
(-0.0243707 0.132006 1.34954)
(0.0137977 -0.0968695 0.874587)
(-0.0392397 0.0401416 0.77501)
(0.0116478 0.0629355 0.664882)
(0.0487318 -0.0513874 0.664736)
(0.190124 0.1062 1.07652)
(0.0707577 -0.00474659 0.699387)
(0.0856865 -0.029191 0.66522)
(-0.0357742 -0.0186288 0.814178)
(0.0627732 -0.0652091 0.274605)
(-0.0940761 -0.147439 0.473018)
(-0.207632 -0.0595275 0.710773)
(-0.15209 0.00987085 0.636282)
(0.308169 0.0306553 0.493627)
(-0.00336841 0.00246564 0.476097)
(-0.101902 0.070725 0.460104)
(-0.0695127 0.114217 0.347385)
(-0.0448908 -0.0745771 0.474493)
(0.0218722 -0.0598351 1.7238)
(0.157804 0.182467 0.746056)
(0.00413794 0.0914257 1.03256)
(-0.0300877 0.100469 0.755755)
(0.0382064 0.0413648 0.576248)
(0.0237138 -0.0817973 0.620317)
(-0.0291514 0.0708721 1.26558)
(0.034752 -0.101424 0.901087)
(0.0291593 0.0119379 0.797298)
(0.0573913 0.0150153 0.714206)
(0.0738284 -0.0958122 0.681693)
(0.19798 0.0962679 1.07929)
(0.0885412 -0.00560554 0.732445)
(0.0930667 -0.0373284 0.689083)
(-0.0588747 -0.0199352 0.835139)
(0.00468643 -0.00434571 0.390443)
(-0.200601 -0.10821 0.581324)
(-0.282149 0.0389136 0.703701)
(-0.103474 0.00266985 0.445067)
(0.21367 0.0415138 0.440208)
(0.00457716 0.0113791 0.49926)
(-0.0528402 0.0452064 0.466833)
(-0.0737578 0.081974 0.337517)
(-0.0555233 -0.0932516 0.488843)
(0.0549752 0.0642644 1.61233)
(0.173857 0.233332 0.718363)
(-0.0042366 0.101764 1.06046)
(0.0379677 0.0955135 0.758971)
(0.0625924 0.00716744 0.605266)
(0.042384 -0.10936 0.640415)
(0.018457 0.0303083 1.23173)
(0.0641368 -0.0881526 0.915665)
(0.0867988 0.00926089 0.806939)
(0.105481 -0.0115153 0.749032)
(0.0946981 -0.124939 0.70367)
(0.176301 0.0526642 1.05505)
(0.076618 0.0049442 0.760353)
(0.0893479 -0.0369295 0.70064)
(-0.130564 -0.0271771 0.859165)
(-0.0568004 0.0487666 0.497588)
(-0.199123 -0.0187876 0.648744)
(-0.211745 0.153197 0.592862)
(-0.0496063 0.0624129 0.344853)
(0.0565643 0.0838676 0.448734)
(-0.00127146 0.0100081 0.501346)
(-0.041053 0.0392198 0.457352)
(-0.080012 0.0639474 0.342285)
(-0.0690561 -0.0903258 0.498723)
(0.0266811 0.338951 1.46889)
(0.0470132 0.113018 0.794151)
(-0.00320564 0.101117 1.05672)
(0.0719612 0.0853355 0.736367)
(0.0738473 -0.00715597 0.639499)
(0.0633278 -0.121356 0.677111)
(0.158563 0.0628124 1.25895)
(0.103418 -0.0588896 0.92546)
(0.125194 0.0212275 0.81043)
(0.139501 -0.0102668 0.778938)
(0.107955 -0.141613 0.740918)
(0.152413 -0.0179902 0.967087)
(0.0532799 0.0298459 0.784735)
(0.0849264 -0.0328412 0.714939)
(-0.162339 -0.0175706 0.807185)
(-0.0688472 0.0908199 0.550503)
(-0.162926 -0.0349826 0.669643)
(-0.0710097 0.0628056 0.579335)
(-0.0262742 0.0224626 0.294533)
(-0.0239334 0.104661 0.44592)
(-0.00645952 -0.0148438 0.49953)
(-0.0367171 0.0232137 0.445598)
(-0.0852281 0.0429931 0.352405)
(-0.0725266 -0.0691053 0.497834)
(-0.011096 0.323154 1.44324)
(-0.0814889 0.00957997 0.881008)
(0.00702438 0.0858361 1.02053)
(0.0780193 0.0752477 0.717526)
(0.06896 -0.0208056 0.67334)
(0.0663976 -0.126508 0.720348)
(0.168432 0.136788 1.31905)
(0.142666 -0.0306187 0.931597)
(0.134185 0.0377872 0.812948)
(0.150783 0.00509586 0.805561)
(0.111561 -0.146735 0.789928)
(0.133702 -0.0626539 0.879881)
(0.0373062 0.0541025 0.804675)
(0.0839793 -0.0284555 0.746895)
(-0.0721393 -0.0167188 0.675725)
(-0.0638112 0.104523 0.516894)
(-0.107448 -0.0326534 0.694973)
(-0.00335093 -0.0767994 0.551586)
(-0.0153078 -0.0183109 0.271499)
(-0.028662 0.0981126 0.448818)
(0.018628 -0.0503499 0.499695)
(-0.00287012 -0.00973874 0.438252)
(-0.0794792 0.0179764 0.365015)
(-0.0612169 -0.0694774 0.483348)
(-0.0339482 0.252345 1.50161)
(-0.094026 0.0246079 0.894524)
(0.0319239 0.0443908 0.945385)
(0.0623669 0.0780314 0.693048)
(0.0505858 -0.035909 0.693588)
(0.0429863 -0.137096 0.7532)
(0.0939361 0.153534 1.40781)
(0.176893 -0.0107014 0.921844)
(0.123997 0.0631194 0.817459)
(0.144491 0.0216044 0.825109)
(0.105345 -0.146322 0.839612)
(0.0828584 -0.0615111 0.848781)
(0.0286284 0.0728543 0.821426)
(0.0856277 -0.0252737 0.794585)
(-0.0444637 -0.0363085 0.703511)
(-0.0466276 0.0540916 0.456146)
(0.0408922 0.0676609 0.69408)
(0.0159065 -0.108251 0.513798)
(-0.0102922 -0.0398038 0.275695)
(0.0213906 0.0489052 0.454316)
(0.067102 -0.0600759 0.494498)
(0.0512708 -0.0288693 0.432669)
(-0.060672 -0.00165079 0.385313)
(-0.0485892 -0.0850034 0.459105)
(-0.0177986 0.174183 1.56938)
(0.0453128 0.0294176 0.86319)
(0.0559829 0.01528 0.903642)
(0.0525034 0.0926304 0.658364)
(0.017978 -0.0400845 0.695883)
(0.0179904 -0.137251 0.770724)
(0.0839169 0.114428 1.4698)
(0.206052 0.00703439 0.914046)
(0.120396 0.0938888 0.834169)
(0.130659 0.0407284 0.838555)
(0.0966387 -0.147451 0.876886)
(0.0513505 -0.0292995 0.847555)
(0.0325685 0.0897533 0.844169)
(0.0835225 -0.0216543 0.859785)
(0.0396791 -0.0179964 0.805571)
(-0.0322262 0.0304224 0.42175)
(0.118693 0.116381 0.621345)
(0.0461938 -0.0738651 0.518182)
(-0.00396498 -0.0462661 0.298268)
(0.0443855 -0.00623475 0.485183)
(0.107103 -0.0412254 0.487107)
(0.0796938 -0.0188439 0.43473)
(-0.0339826 -0.0117289 0.41555)
(-0.04759 -0.0934416 0.434275)
(-0.0130195 0.139994 1.54186)
(0.160276 -0.078066 0.801109)
(0.067352 0.00706038 0.901939)
(0.0668478 0.1034 0.635768)
(-0.0205512 -0.0222785 0.691198)
(-0.00283215 -0.124407 0.7786)
(0.120283 0.13396 1.43606)
(0.213865 0.0187359 0.928745)
(0.125598 0.11599 0.866911)
(0.115485 0.0569632 0.849113)
(0.0912767 -0.137277 0.906774)
(0.0416509 -0.00541716 0.887877)
(0.0277599 0.101647 0.890192)
(0.0740568 -0.0170237 0.932477)
(0.0932131 -0.0162922 0.861033)
(-0.0153375 0.00700528 0.386292)
(0.135773 0.12444 0.552276)
(0.0768112 0.0070792 0.543738)
(0.00642173 -0.0335881 0.336909)
(0.0210132 -0.0456377 0.526369)
(0.112442 -0.0130873 0.483737)
(0.0817918 -0.00134269 0.446353)
(-0.00403914 -0.0154521 0.452413)
(-0.0439527 -0.0891323 0.418098)
(-0.0471153 0.112315 1.5484)
(0.193769 -0.114215 0.803344)
(0.0575373 0.0254667 0.919878)
(0.0842383 0.101327 0.62929)
(-0.0543995 0.0074197 0.695151)
(-0.0182122 -0.0890598 0.774817)
(0.213924 -0.0122366 1.18735)
(0.172894 0.0164204 0.975099)
(0.118457 0.117142 0.900747)
(0.10425 0.0596651 0.862873)
(0.085985 -0.115035 0.946934)
(0.00275801 -0.0121624 0.964434)
(-0.00412885 0.101646 0.956919)
(0.0616707 -0.0132286 0.995144)
(0.10494 -0.0153494 0.933136)
(-0.00253963 -0.000940988 0.343509)
(0.102661 0.0717187 0.492481)
(0.0832824 0.0651671 0.5741)
(0.0182952 -0.0187784 0.389129)
(-0.0253091 -0.0149163 0.558367)
(0.0831328 0.00235554 0.475481)
(0.0727367 0.00705422 0.461206)
(0.0216746 -0.0200699 0.487355)
(-0.02028 -0.0571491 0.429091)
(0.0228295 0.0361105 1.39222)
(0.143764 -0.0727433 0.862636)
(0.0335977 0.0521956 0.924646)
(0.08763 0.0886727 0.632333)
(-0.0785473 0.0306176 0.712166)
(-0.0306882 -0.0442557 0.771374)
(0.117773 -0.0456106 0.947468)
(0.109632 0.00535075 1.01389)
(0.0932775 0.100272 0.920477)
(0.0672478 0.0559841 0.876246)
(0.0670407 -0.0988204 0.987713)
(-0.0426582 -0.0232195 1.01757)
(-0.0220302 0.0954993 1.00807)
(0.0566908 -0.0124749 1.0482)
(0.0903527 -0.00897863 0.950062)
(0.00415825 0.000915077 0.304965)
(0.0451326 0.0108485 0.419778)
(0.0644407 0.0892291 0.590824)
(0.0237578 -0.0188049 0.441711)
(-0.0404259 0.0127003 0.599074)
(0.0406704 0.00434124 0.461445)
(0.0609269 -0.000771588 0.471667)
(0.0356752 -0.0262389 0.510089)
(-0.00252017 -0.0265165 0.453513)
(0.0410655 -0.015587 0.862806)
(0.00560483 -0.0273633 0.930755)
(0.0206511 0.0435832 0.903571)
(0.0759555 0.0581316 0.645754)
(-0.0890672 0.041332 0.734886)
(-0.0242002 0.00502916 0.768884)
(0.0500114 -0.00953503 0.841107)
(0.0754929 0.024457 1.02252)
(0.0525686 0.0708436 0.935127)
(-0.00867227 0.040355 0.887814)
(0.0358863 -0.0827919 0.974854)
(-0.0673501 -0.0348069 1.03826)
(-0.0212004 0.0857383 1.03907)
(0.0533212 -0.010841 1.09365)
(0.0892751 0.0218077 0.845269)
(0.0272624 -0.0257829 0.286219)
(0.0303848 -0.0214902 0.350361)
(0.0421504 0.0863162 0.604711)
(0.0242403 -0.0238213 0.487925)
(-0.0236667 -0.0185573 0.642052)
(0.0280011 -0.000673629 0.455896)
(0.0509808 -0.0171902 0.478982)
(0.0415531 -0.0256509 0.520342)
(0.00633615 -0.00675982 0.479201)
(-0.000619996 -0.0196407 0.77493)
(-0.0878334 -0.0272148 0.928278)
(-0.00785475 -0.016247 0.82838)
(0.057782 0.0244284 0.658759)
(-0.0840667 0.041787 0.752006)
(-0.00683157 0.0420569 0.745066)
(0.0195731 0.0301638 0.82643)
(0.0306436 0.0527811 1.03135)
(0.00997075 0.0371221 0.947014)
(-0.0566072 0.0202928 0.904644)
(0.0156627 -0.0466139 0.92379)
(-0.0641026 -0.0557806 1.03274)
(-0.0121748 0.0670765 1.05848)
(0.0414857 -0.00605784 1.12502)
(0.0645777 0.0198591 0.688198)
(0.0620647 -0.0699707 0.294656)
(0.0630434 -0.0564708 0.3266)
(0.0294867 0.0630861 0.619781)
(0.0272609 -0.0223269 0.526639)
(0.0126514 -0.0867698 0.664353)
(0.0394854 -0.00686031 0.453664)
(0.0482626 -0.0304442 0.489288)
(0.0430501 -0.0143938 0.525166)
(0.00831835 0.00822852 0.500731)
(-0.00561406 -0.0451595 0.775412)
(-0.0951323 -0.0309226 0.90588)
(-0.00207809 -0.0635065 0.755095)
(0.049187 -0.00481274 0.665751)
(-0.0639108 0.034571 0.756944)
(0.00701032 0.0502077 0.714395)
(0.0155058 0.0410012 0.849833)
(-0.0190752 0.0404831 1.02817)
(-0.0139469 0.0151901 0.951993)
(-0.0729366 0.0202711 0.919594)
(0.00381114 -0.0129083 0.901566)
(-0.0719638 -0.060815 1.00554)
(-0.0024388 0.0344319 1.06939)
(0.027861 -0.00519189 1.13176)
(0.0618347 0.0114418 0.654451)
(0.0865231 -0.0976087 0.318017)
(0.0835041 -0.0835512 0.341317)
(0.0222451 0.0367388 0.629382)
(0.0346848 -0.0118972 0.558805)
(0.0306994 -0.130486 0.680614)
(0.0900537 -0.0262408 0.447864)
(0.0546124 -0.0331575 0.506709)
(0.0431477 0.0136507 0.535152)
(0.00933534 0.0210822 0.51838)
(-0.0201214 -0.0974229 0.72964)
(-0.0527908 -0.0591585 0.873197)
(0.0485292 -0.075113 0.685874)
(0.0543585 -0.0244382 0.670156)
(-0.00989615 0.0196422 0.758101)
(0.0234995 0.0423239 0.703139)
(-0.00189262 0.00776622 0.896338)
(-0.0364988 0.00357556 1.01021)
(-0.0183504 0.00786561 0.956012)
(-0.0715409 0.0296344 0.928135)
(-0.00692043 0.011479 0.90422)
(-0.0489224 -0.0518849 0.979741)
(-0.0060099 0.000334707 1.07854)
(0.00826642 -0.0112179 1.09351)
(0.0668916 0.00912678 0.659684)
(0.0922067 -0.102302 0.34733)
(0.0855992 -0.0916069 0.381709)
(0.027321 0.00498331 0.651977)
(0.0439665 -0.000793913 0.586148)
(0.0478413 -0.128204 0.692178)
(0.131379 -0.0477754 0.446395)
(0.0654201 -0.0229819 0.528808)
(0.0426971 0.0430659 0.549144)
(0.0103043 0.0318715 0.5391)
(-0.0353281 -0.163054 0.731974)
(-0.0323385 -0.156553 0.823984)
(0.102935 -0.0617631 0.624686)
(0.0658806 -0.0269577 0.673657)
(0.0366601 0.0172276 0.765326)
(0.0388599 0.036959 0.71834)
(-0.02254 0.000318459 0.895433)
(-0.0242392 -0.0095226 0.99897)
(-0.0125199 0.00905132 0.962338)
(-0.0529838 0.0449593 0.932964)
(-0.0110967 0.0255377 0.927044)
(-0.0140387 -0.0391108 0.96747)
(-0.00747452 -0.0185279 1.08045)
(-0.0252601 0.00542175 1.03176)
(0.0741425 0.0061084 0.68962)
(0.0794507 -0.0845077 0.378536)
(0.0716479 -0.0841577 0.435291)
(0.0381545 -0.0182862 0.684)
(0.0570854 0.00125574 0.612543)
(0.0846122 -0.121335 0.646015)
(0.141129 -0.057854 0.45547)
(0.0696933 -0.00221226 0.54634)
(0.0425774 0.0664186 0.563528)
(0.0111074 0.041318 0.564891)
(-0.0207323 -0.133982 0.789468)
(-0.0182526 -0.152942 0.780453)
(0.124592 -0.0402614 0.598463)
(0.0727401 -0.0154916 0.683218)
(0.0566244 0.0305205 0.780908)
(0.0531202 0.0377533 0.758763)
(-0.019742 0.0176234 0.762712)
(0.0161668 0.00272782 0.98631)
(0.0285891 0.0150232 0.984105)
(-0.033964 0.0446529 0.934386)
(-0.012031 0.0203353 0.954232)
(0.00812361 -0.021155 0.992493)
(-0.0218856 -0.0221339 1.07753)
(-0.0576059 0.0368259 1.01818)
(0.0649601 0.00324933 0.721146)
(0.0535693 -0.0507276 0.403905)
(0.0421133 -0.0698434 0.490948)
(0.0371513 -0.0230002 0.709804)
(0.0659851 -0.00237099 0.635881)
(0.112929 -0.118266 0.533583)
(0.127617 -0.0570571 0.472092)
(0.0645849 0.0173872 0.555457)
(0.0441123 0.0789144 0.575086)
(0.0150319 0.0491143 0.596304)
(0.000221577 -0.045674 0.791608)
(0.0937252 -0.0245005 0.670338)
(0.120286 -0.0349994 0.597988)
(0.0647308 -0.00665537 0.704336)
(0.0637171 0.0452885 0.806298)
(0.0554793 0.0356107 0.810767)
(0.0455104 0.0437883 0.675444)
(0.0299416 -0.000588955 0.970364)
(0.0915116 0.00232209 1.0082)
(0.0336134 0.022065 0.952165)
(-0.00330517 0.00640033 0.963478)
(0.0118869 0.011166 1.05966)
(-0.0289711 -0.00565596 1.09686)
(-0.0677904 0.0516171 1.03011)
(0.0413831 -0.000912188 0.753955)
(0.0221578 -0.0139228 0.423686)
(0.0177454 -0.0607731 0.536464)
(0.0270474 -0.0167454 0.723354)
(0.0671699 -2.22564e-05 0.644643)
(0.0905869 -0.084377 0.478848)
(0.0965101 -0.0551612 0.492945)
(0.0608807 0.0260201 0.558649)
(0.0479194 0.0782054 0.586724)
(0.0232717 0.0554173 0.632079)
(0.011393 -0.0714172 0.625638)
(0.0788172 -0.0246461 0.560369)
(0.10436 -0.0579824 0.598047)
(0.055571 -0.0244938 0.727586)
(0.076189 0.0427219 0.844257)
(0.0499216 0.0325464 0.871056)
(0.0310725 -0.000222665 0.633729)
(0.0259311 -0.0423954 0.938925)
(0.108891 -0.0348024 1.00122)
(0.0935698 0.00252526 0.983513)
(0.0150225 -0.0110897 0.983146)
(-0.0157362 0.0252283 1.10834)
(-0.0160314 0.00074914 1.11566)
(-0.0441241 0.0525378 1.05139)
(0.0116167 0.000117324 0.775981)
(0.00150332 0.000822319 0.440795)
(3.90198e-05 -0.0485579 0.579305)
(0.0252371 -0.00824705 0.728154)
(0.0654045 0.00765936 0.636667)
(0.0584913 -0.0566684 0.468279)
(0.069915 -0.0577015 0.513016)
(0.0598547 0.0261609 0.566019)
(0.0475203 0.0645009 0.60671)
(0.0310865 0.0553748 0.67059)
(-0.00294708 -0.0950098 0.522913)
(0.0307663 -0.0645633 0.509091)
(0.0834513 -0.103267 0.602786)