/*--------------------------------*- C++ -*----------------------------------*\
| =========                 |                                                 |
| \\      /  F ield         | OpenFOAM: The Open Source CFD Toolbox           |
|  \\    /   O peration     | Version:  5.x                                   |
|   \\  /    A nd           | Web:      www.OpenFOAM.org                      |
|    \\/     M anipulation  |                                                 |
\*---------------------------------------------------------------------------*/
FoamFile
{
    version     2.0;
    format      ascii;
    class       volVectorField;
    location    "2.55";
    object      Us;
}
// * * * * * * * * * * * * * * * * * * * * * * * * * * * * * * * * * * * * * //

dimensions      [0 1 -1 0 0 0 0];

internalField   nonuniform List<vector> 
10571
(
(-0.00557012 -0.00262203 -0.000389296)
(0.00425522 0.00808828 -0.0125384)
(0.00795731 0.0122536 0.00677671)
(-0.0165056 -0.00301698 0.00736101)
(-0.0187841 0.00204096 -0.00162535)
(0.00398313 0.0168797 0.00783945)
(-0.0152176 -0.0243207 0.0118758)
(-0.0112508 -0.0318406 0.0137573)
(-0.0273362 0.00230614 -0.0070111)
(0.0047026 0.00852877 -0.0105782)
(-0.00385638 -0.00273178 0.00272297)
(-0.0115502 -0.0125624 0.0202292)
(-0.0343762 -0.0277529 -0.0379312)
(0.00740664 -0.0217634 -0.0495796)
(0.0283979 0.0205484 -0.0134321)
(0.00914963 0.018054 0.000223348)
(-0.00490068 -0.0104107 -0.00207284)
(-0.00810493 0.00854634 -0.0359633)
(0.0191068 0.0475979 -0.0424607)
(0.0232222 0.0277054 -0.0017897)
(0.00037003 0.0107138 0.00781784)
(0.0157901 0.0187732 0.0100942)
(0.0118675 0.0123221 0.0164033)
(0.000800595 0.00424525 0.00795094)
(0.0043077 0.0105791 -0.124039)
(-0.00480796 -0.00455732 -0.111851)
(-0.011378 0.00157973 -0.144589)
(0.0320402 -0.00116468 -0.13869)
(0.014787 0.0131427 -0.0861167)
(0.0129888 -0.0128827 -0.14006)
(0.0196022 0.0192143 -0.12727)
(0.0127349 0.0118431 -0.134974)
(-0.0016964 0.00219484 -0.119508)
(0.0159581 0.0129891 -0.0607751)
(0.0181855 0.0110393 -0.185241)
(0.030716 0.0239583 -0.121653)
(0.0169229 -0.00467795 -0.126877)
(0.0136649 -0.00754034 -0.139537)
(-0.00415589 -0.0127854 -0.135573)
(0.00054118 0.000645062 -0.086077)
(0.009216 0.00906039 -0.0810078)
(0.00974895 -0.0127802 -0.12715)
(0.00387053 -0.0182581 -0.144262)
(0.0186237 -0.00795273 -0.126913)
(0.0011818 0.00497747 -0.0185279)
(0.0185016 0.00374021 -0.0907761)
(-0.000666172 -0.00708135 -0.0831471)
(0.0101875 -0.0164962 -0.0668935)
(0.00444952 0.000986081 -0.0244993)
(-0.00618584 -0.0011087 -0.0357252)
(-0.010639 0.00694653 -0.00903042)
(0.0240147 0.00315308 0.00564789)
(0.0508943 0.0157631 -0.0574468)
(0.00959499 -0.00146223 -0.00449501)
(0.0487388 0.0662883 -0.0780556)
(0.0159582 0.0709177 -0.0933838)
(-0.00465096 0.0127355 -0.115688)
(-0.00812939 0.00207017 -0.079506)
(0.0140693 0.0158782 0.0151546)
(0.037113 0.0303377 -0.0198292)
(0.0483913 0.0066199 -0.112953)
(0.000322489 -0.0163206 -0.132342)
(-0.0204968 -0.0459025 -0.131641)
(-0.0204865 -0.0274098 -0.0933588)
(0.0173574 0.0255324 -0.0716881)
(-0.002292 -0.0488821 -0.122492)
(-0.0269536 -0.0748703 -0.115881)
(-0.0236905 -0.0684243 -0.0908973)
(0.0158051 -0.0329691 -0.0763558)
(-0.0375938 -0.0318264 -0.0792835)
(-0.0374634 -0.0844411 -0.0231009)
(0.0173001 -0.0507684 -0.0172531)
(0.00575004 -0.0116769 -0.0195014)
(-0.0193118 -0.00730208 -0.0209484)
(-0.0175053 -0.00215663 -0.0229222)
(0.0141153 -0.00561664 -0.0337227)
(0.0620903 0.00104544 -0.0514416)
(0.0022789 -0.00166427 -0.0194093)
(0.0046277 0.0600771 -0.0324783)
(0.0123105 0.0661598 -0.0399995)
(0 0 0)
(0 0 0)
(0.00378789 0.00353129 0.00254656)
(0.0144544 0.00985848 -0.026621)
(0 0 0)
(0 0 0)
(0 0 0)
(0 0 0)
(0 0 0)
(0 0 0)
(0 0 0)
(0 0 0)
(0 0 0)
(0 0 0)
(0 0 0)
(0 0 0)
(0 0 0)
(0 0 0)
(0 0 0)
(0 0 0)
(0 0 0)
(0 0 0)
(0 0 0)
(0 0 0)
(0 0 0)
(0 0 0)
(0 0 0)
(0 0 0)
(0 0 0)
(0 0 0)
(0 0 0)
(0 0 0)
(0 0 0)
(0 0 0)
(0 0 0)
(0 0 0)
(0 0 0)
(0 0 0)
(0 0 0)
(0 0 0)
(0 0 0)
(0 0 0)
(0 0 0)
(0 0 0)
(0 0 0)
(0 0 0)
(0 0 0)
(0 0 0)
(0 0 0)
(0 0 0)
(0 0 0)
(0 0 0)
(0 0 0)
(0 0 0)
(0 0 0)
(0 0 0)
(0 0 0)
(0 0 0)
(0 0 0)
(0 0 0)
(0 0 0)
(0 0 0)
(0 0 0)
(0 0 0)
(0 0 0)
(0 0 0)
(0 0 0)
(0 0 0)
(0 0 0)
(0 0 0)
(0 0 0)
(0 0 0)
(0 0 0)
(0 0 0)
(0 0 0)
(0 0 0)
(0 0 0)
(0 0 0)
(0 0 0)
(0 0 0)
(0 0 0)
(0 0 0)
(0 0 0)
(0 0 0)
(0 0 0)
(0 0 0)
(0 0 0)
(0 0 0)
(0 0 0)
(0 0 0)
(0 0 0)
(0 0 0)
(0 0 0)
(0 0 0)
(0 0 0)
(0 0 0)
(0 0 0)
(0 0 0)
(0 0 0)
(0 0 0)
(0 0 0)
(0 0 0)
(0 0 0)
(0 0 0)
(0 0 0)
(0 0 0)
(0 0 0)
(0 0 0)
(0 0 0)
(0 0 0)
(0 0 0)
(0 0 0)
(0 0 0)
(0 0 0)
(0 0 0)
(0 0 0)
(0 0 0)
(0 0 0)
(0 0 0)
(0 0 0)
(0 0 0)
(0 0 0)
(0 0 0)
(0 0 0)
(0 0 0)
(0 0 0)
(0 0 0)
(0 0 0)
(0 0 0)
(0 0 0)
(0 0 0)
(0 0 0)
(0 0 0)
(0 0 0)
(0 0 0)
(0 0 0)
(0 0 0)
(0 0 0)
(0 0 0)
(0 0 0)
(0 0 0)
(0 0 0)
(0 0 0)
(0 0 0)
(0 0 0)
(0 0 0)
(0 0 0)
(0 0 0)
(0 0 0)
(0 0 0)
(0 0 0)
(0 0 0)
(0 0 0)
(0 0 0)
(0 0 0)
(0 0 0)
(0 0 0)
(0 0 0)
(0 0 0)
(0 0 0)
(0 0 0)
(0 0 0)
(0 0 0)
(0 0 0)
(0 0 0)
(0 0 0)
(0 0 0)
(0 0 0)
(0 0 0)
(0 0 0)
(0 0 0)
(0 0 0)
(0 0 0)
(0 0 0)
(0 0 0)
(0 0 0)
(0 0 0)
(0 0 0)
(0 0 0)
(0 0 0)
(0 0 0)
(0 0 0)
(0 0 0)
(0 0 0)
(0 0 0)
(0 0 0)
(0 0 0)
(0 0 0)
(0 0 0)
(0 0 0)
(0 0 0)
(0 0 0)
(0 0 0)
(0 0 0)
(0 0 0)
(0 0 0)
(0 0 0)
(0 0 0)
(0 0 0)
(0 0 0)
(0 0 0)
(0 0 0)
(0 0 0)
(0 0 0)
(0 0 0)
(0 0 0)
(0 0 0)
(0 0 0)
(0 0 0)
(0 0 0)
(0 0 0)
(0 0 0)
(0 0 0)
(0 0 0)
(0 0 0)
(0 0 0)
(0 0 0)
(0 0 0)
(0 0 0)
(0 0 0)
(0 0 0)
(0 0 0)
(0 0 0)
(0 0 0)
(0 0 0)
(0 0 0)
(0 0 0)
(0 0 0)
(0 0 0)
(0 0 0)
(0 0 0)
(0 0 0)
(0 0 0)
(0 0 0)
(0 0 0)
(0 0 0)
(0 0 0)
(0 0 0)
(0 0 0)
(0 0 0)
(0 0 0)
(0 0 0)
(0 0 0)
(0 0 0)
(0 0 0)
(0 0 0)
(0 0 0)
(0 0 0)
(0 0 0)
(0 0 0)
(0 0 0)
(0 0 0)
(0 0 0)
(0 0 0)
(0 0 0)
(0 0 0)
(0 0 0)
(0 0 0)
(0 0 0)
(0 0 0)
(0 0 0)
(0 0 0)
(0 0 0)
(0 0 0)
(0 0 0)
(0 0 0)
(0 0 0)
(0 0 0)
(0 0 0)
(0 0 0)
(0 0 0)
(0 0 0)
(0 0 0)
(0 0 0)
(0 0 0)
(0 0 0)
(0 0 0)
(0 0 0)
(0 0 0)
(0 0 0)
(0 0 0)
(0 0 0)
(0 0 0)
(0 0 0)
(0 0 0)
(0 0 0)
(0 0 0)
(0 0 0)
(0 0 0)
(0 0 0)
(0 0 0)
(0 0 0)
(0 0 0)
(0 0 0)
(0 0 0)
(0 0 0)
(0 0 0)
(0 0 0)
(0 0 0)
(0 0 0)
(0 0 0)
(0 0 0)
(0 0 0)
(0 0 0)
(0 0 0)
(0 0 0)
(0 0 0)
(0 0 0)
(0 0 0)
(0 0 0)
(0 0 0)
(0 0 0)
(0 0 0)
(0 0 0)
(0 0 0)
(0 0 0)
(0 0 0)
(0 0 0)
(0 0 0)
(0 0 0)
(0 0 0)
(0 0 0)
(0 0 0)
(0 0 0)
(0 0 0)
(0 0 0)
(0 0 0)
(0 0 0)
(0 0 0)
(0 0 0)
(0 0 0)
(0 0 0)
(0 0 0)
(0 0 0)
(0 0 0)
(0 0 0)
(0 0 0)
(0 0 0)
(0 0 0)
(0 0 0)
(0 0 0)
(0 0 0)
(0 0 0)
(0 0 0)
(0 0 0)
(0 0 0)
(0 0 0)
(0 0 0)
(0 0 0)
(0 0 0)
(0 0 0)
(0 0 0)
(0 0 0)
(0 0 0)
(0 0 0)
(0 0 0)
(0 0 0)
(0 0 0)
(0 0 0)
(0 0 0)
(0 0 0)
(0 0 0)
(0 0 0)
(0 0 0)
(0 0 0)
(0 0 0)
(0 0 0)
(0 0 0)
(0 0 0)
(0 0 0)
(0 0 0)
(0 0 0)
(0 0 0)
(0 0 0)
(0 0 0)
(0 0 0)
(0 0 0)
(0 0 0)
(0 0 0)
(0 0 0)
(0 0 0)
(0 0 0)
(0 0 0)
(0 0 0)
(0 0 0)
(0 0 0)
(0 0 0)
(0 0 0)
(0 0 0)
(0 0 0)
(0 0 0)
(0 0 0)
(0 0 0)
(0 0 0)
(0 0 0)
(0 0 0)
(0 0 0)
(0 0 0)
(0 0 0)
(0 0 0)
(0 0 0)
(0 0 0)
(0 0 0)
(0 0 0)
(0 0 0)
(0 0 0)
(0 0 0)
(0 0 0)
(0 0 0)
(0 0 0)
(0 0 0)
(0 0 0)
(0 0 0)
(0 0 0)
(0 0 0)
(0 0 0)
(0 0 0)
(0 0 0)
(0 0 0)
(0 0 0)
(0 0 0)
(0 0 0)
(0 0 0)
(0 0 0)
(0 0 0)
(0 0 0)
(0 0 0)
(0 0 0)
(0 0 0)
(0 0 0)
(0 0 0)
(0 0 0)
(0 0 0)
(0 0 0)
(0 0 0)
(0 0 0)
(0 0 0)
(0 0 0)
(0 0 0)
(0 0 0)
(0 0 0)
(0 0 0)
(0 0 0)
(0 0 0)
(0 0 0)
(0 0 0)
(0 0 0)
(0 0 0)
(0 0 0)
(0 0 0)
(0 0 0)
(0 0 0)
(0 0 0)
(0 0 0)
(0 0 0)
(0 0 0)
(0 0 0)
(0 0 0)
(0 0 0)
(0 0 0)
(0 0 0)
(0 0 0)
(0 0 0)
(0 0 0)
(0 0 0)
(0 0 0)
(0 0 0)
(0 0 0)
(0 0 0)
(0 0 0)
(0 0 0)
(0 0 0)
(0 0 0)
(0 0 0)
(0 0 0)
(0 0 0)
(0 0 0)
(0 0 0)
(0 0 0)
(0 0 0)
(0 0 0)
(0 0 0)
(0 0 0)
(0 0 0)
(0 0 0)
(0 0 0)
(0 0 0)
(0 0 0)
(0 0 0)
(0 0 0)
(0 0 0)
(0 0 0)
(0 0 0)
(0 0 0)
(0 0 0)
(0 0 0)
(0 0 0)
(0 0 0)
(0 0 0)
(0 0 0)
(0 0 0)
(0 0 0)
(0 0 0)
(0 0 0)
(0 0 0)
(0 0 0)
(0 0 0)
(0 0 0)
(0 0 0)
(0 0 0)
(0 0 0)
(0 0 0)
(0 0 0)
(0 0 0)
(0 0 0)
(0 0 0)
(0 0 0)
(0 0 0)
(0 0 0)
(0 0 0)
(0 0 0)
(0 0 0)
(0 0 0)
(0 0 0)
(0 0 0)
(0 0 0)
(0 0 0)
(0 0 0)
(0 0 0)
(0 0 0)
(0 0 0)
(0 0 0)
(0 0 0)
(0 0 0)
(0 0 0)
(0 0 0)
(0 0 0)
(0 0 0)
(0 0 0)
(0 0 0)
(0 0 0)
(0 0 0)
(0 0 0)
(0 0 0)
(0 0 0)
(0 0 0)
(0 0 0)
(0 0 0)
(0 0 0)
(0 0 0)
(0 0 0)
(0 0 0)
(0 0 0)
(0 0 0)
(0 0 0)
(0 0 0)
(0 0 0)
(0 0 0)
(0 0 0)
(0 0 0)
(0 0 0)
(0 0 0)
(0 0 0)
(0 0 0)
(0 0 0)
(0 0 0)
(0 0 0)
(0 0 0)
(0 0 0)
(0 0 0)
(0 0 0)
(0 0 0)
(0 0 0)
(0 0 0)
(0 0 0)
(0 0 0)
(0 0 0)
(0 0 0)
(0 0 0)
(0 0 0)
(0 0 0)
(0 0 0)
(0 0 0)
(0 0 0)
(0 0 0)
(0 0 0)
(0 0 0)
(0 0 0)
(0 0 0)
(0 0 0)
(0 0 0)
(0 0 0)
(0 0 0)
(0 0 0)
(0 0 0)
(0 0 0)
(0 0 0)
(0 0 0)
(0 0 0)
(0 0 0)
(0 0 0)
(0 0 0)
(0 0 0)
(0 0 0)
(0 0 0)
(0 0 0)
(0 0 0)
(0 0 0)
(0 0 0)
(0 0 0)
(0 0 0)
(0 0 0)
(0 0 0)
(0 0 0)
(0 0 0)
(0 0 0)
(0 0 0)
(0 0 0)
(0 0 0)
(0 0 0)
(0 0 0)
(0 0 0)
(0 0 0)
(0 0 0)
(0 0 0)
(0 0 0)
(0 0 0)
(0 0 0)
(0 0 0)
(0 0 0)
(0 0 0)
(0 0 0)
(0 0 0)
(0 0 0)
(0 0 0)
(0 0 0)
(0 0 0)
(0 0 0)
(0 0 0)
(0 0 0)
(0 0 0)
(0 0 0)
(0 0 0)
(0 0 0)
(0 0 0)
(0 0 0)
(0 0 0)
(0 0 0)
(0 0 0)
(0 0 0)
(0 0 0)
(0 0 0)
(0 0 0)
(0 0 0)
(0 0 0)
(0 0 0)
(0 0 0)
(0 0 0)
(0 0 0)
(0 0 0)
(0 0 0)
(0 0 0)
(0 0 0)
(0 0 0)
(0 0 0)
(0 0 0)
(0 0 0)
(0 0 0)
(0 0 0)
(0 0 0)
(0 0 0)
(0 0 0)
(0 0 0)
(0 0 0)
(0 0 0)
(0 0 0)
(0 0 0)
(0 0 0)
(0 0 0)
(0 0 0)
(0 0 0)
(0 0 0)
(0 0 0)
(0 0 0)
(0 0 0)
(0 0 0)
(0 0 0)
(0 0 0)
(0 0 0)
(0 0 0)
(0 0 0)
(0 0 0)
(0 0 0)
(0 0 0)
(0 0 0)
(0 0 0)
(0 0 0)
(0 0 0)
(0 0 0)
(0 0 0)
(0 0 0)
(0 0 0)
(0 0 0)
(0 0 0)
(0 0 0)
(0 0 0)
(0 0 0)
(0 0 0)
(0 0 0)
(0 0 0)
(0 0 0)
(0 0 0)
(0 0 0)
(0 0 0)
(0 0 0)
(0 0 0)
(0 0 0)
(0 0 0)
(0 0 0)
(0 0 0)
(0 0 0)
(0 0 0)
(0 0 0)
(0 0 0)
(0 0 0)
(0 0 0)
(0 0 0)
(0 0 0)
(0 0 0)
(0 0 0)
(0 0 0)
(0 0 0)
(0 0 0)
(0 0 0)
(0 0 0)
(0 0 0)
(0 0 0)
(0 0 0)
(0 0 0)
(0 0 0)
(0 0 0)
(0 0 0)
(0 0 0)
(0 0 0)
(0 0 0)
(0 0 0)
(0 0 0)
(0 0 0)
(0 0 0)
(0 0 0)
(0 0 0)
(0 0 0)
(0 0 0)
(0 0 0)
(0 0 0)
(0 0 0)
(0 0 0)
(0 0 0)
(0 0 0)
(0 0 0)
(0 0 0)
(0 0 0)
(0 0 0)
(0 0 0)
(0 0 0)
(0 0 0)
(0 0 0)
(0 0 0)
(0 0 0)
(0 0 0)
(0 0 0)
(0 0 0)
(0 0 0)
(0 0 0)
(0 0 0)
(0 0 0)
(0 0 0)
(0 0 0)
(0 0 0)
(0 0 0)
(0 0 0)
(0 0 0)
(0 0 0)
(0 0 0)
(0 0 0)
(0 0 0)
(0 0 0)
(0 0 0)
(0 0 0)
(0 0 0)
(0 0 0)
(0 0 0)
(0 0 0)
(0 0 0)
(0 0 0)
(0 0 0)
(0 0 0)
(0 0 0)
(0 0 0)
(0 0 0)
(0 0 0)
(0 0 0)
(0 0 0)
(0 0 0)
(0 0 0)
(0 0 0)
(0 0 0)
(0 0 0)
(0 0 0)
(0 0 0)
(0 0 0)
(0 0 0)
(0 0 0)
(0 0 0)
(0 0 0)
(0 0 0)
(0 0 0)
(0 0 0)
(0 0 0)
(0 0 0)
(0 0 0)
(0 0 0)
(0 0 0)
(0 0 0)
(0 0 0)
(0 0 0)
(0 0 0)
(0 0 0)
(0 0 0)
(0 0 0)
(0 0 0)
(0 0 0)
(0 0 0)
(0 0 0)
(0 0 0)
(0 0 0)
(0 0 0)
(0 0 0)
(0 0 0)
(0 0 0)
(0 0 0)
(0 0 0)
(0 0 0)
(0 0 0)
(0 0 0)
(0 0 0)
(0 0 0)
(0 0 0)
(0 0 0)
(0 0 0)
(0 0 0)
(0 0 0)
(0 0 0)
(0 0 0)
(0 0 0)
(0 0 0)
(0 0 0)
(0 0 0)
(0 0 0)
(0 0 0)
(0 0 0)
(0 0 0)
(0 0 0)
(0 0 0)
(0 0 0)
(0 0 0)
(0 0 0)
(0 0 0)
(0 0 0)
(0 0 0)
(0 0 0)
(0 0 0)
(0 0 0)
(0 0 0)
(0 0 0)
(0 0 0)
(0 0 0)
(0 0 0)
(0 0 0)
(0 0 0)
(0 0 0)
(0 0 0)
(0 0 0)
(0 0 0)
(0 0 0)
(0 0 0)
(0 0 0)
(0 0 0)
(0 0 0)
(0 0 0)
(0 0 0)
(0 0 0)
(0 0 0)
(0 0 0)
(0 0 0)
(0 0 0)
(0 0 0)
(0 0 0)
(0 0 0)
(0 0 0)
(0 0 0)
(0 0 0)
(0 0 0)
(0 0 0)
(0 0 0)
(0 0 0)
(0 0 0)
(0 0 0)
(0 0 0)
(0 0 0)
(0 0 0)
(0 0 0)
(0 0 0)
(0 0 0)
(0 0 0)
(0 0 0)
(0 0 0)
(0 0 0)
(0 0 0)
(0 0 0)
(0 0 0)
(0 0 0)
(0 0 0)
(0 0 0)
(0 0 0)
(0 0 0)
(0 0 0)
(0 0 0)
(0 0 0)
(0 0 0)
(0 0 0)
(0 0 0)
(0 0 0)
(0 0 0)
(0 0 0)
(0 0 0)
(0 0 0)
(0 0 0)
(0 0 0)
(0 0 0)
(0 0 0)
(0 0 0)
(0 0 0)
(0 0 0)
(0 0 0)
(0 0 0)
(0 0 0)
(0 0 0)
(0 0 0)
(0 0 0)
(0 0 0)
(0 0 0)
(0 0 0)
(0 0 0)
(0 0 0)
(0 0 0)
(0 0 0)
(0 0 0)
(0 0 0)
(0 0 0)
(0 0 0)
(0 0 0)
(0 0 0)
(0 0 0)
(0 0 0)
(0 0 0)
(0 0 0)
(0 0 0)
(0 0 0)
(0 0 0)
(0 0 0)
(0 0 0)
(0 0 0)
(0 0 0)
(0 0 0)
(0 0 0)
(0 0 0)
(0 0 0)
(0 0 0)
(0 0 0)
(0 0 0)
(0 0 0)
(0 0 0)
(0 0 0)
(0 0 0)
(0 0 0)
(0 0 0)
(0 0 0)
(0 0 0)
(0 0 0)
(0 0 0)
(0 0 0)
(0 0 0)
(0 0 0)
(0 0 0)
(0 0 0)
(0 0 0)
(0 0 0)
(0 0 0)
(0 0 0)
(0 0 0)
(0 0 0)
(0 0 0)
(0 0 0)
(0 0 0)
(0 0 0)
(0 0 0)
(0 0 0)
(0 0 0)
(0 0 0)
(0 0 0)
(0 0 0)
(0 0 0)
(0 0 0)
(0 0 0)
(0 0 0)
(0 0 0)
(0 0 0)
(0 0 0)
(0 0 0)
(0 0 0)
(0 0 0)
(0 0 0)
(0 0 0)
(0 0 0)
(0 0 0)
(0 0 0)
(0 0 0)
(0 0 0)
(0 0 0)
(0 0 0)
(0 0 0)
(0 0 0)
(0 0 0)
(0 0 0)
(0 0 0)
(0 0 0)
(0 0 0)
(0 0 0)
(0 0 0)
(0 0 0)
(0 0 0)
(0 0 0)
(0 0 0)
(0 0 0)
(0 0 0)
(0 0 0)
(0 0 0)
(0 0 0)
(0 0 0)
(0 0 0)
(0 0 0)
(0 0 0)
(0 0 0)
(0 0 0)
(0 0 0)
(0 0 0)
(0 0 0)
(0 0 0)
(0 0 0)
(0 0 0)
(0 0 0)
(0 0 0)
(0 0 0)
(0 0 0)
(0 0 0)
(0 0 0)
(0 0 0)
(0 0 0)
(0 0 0)
(0 0 0)
(0 0 0)
(0 0 0)
(0 0 0)
(0 0 0)
(0 0 0)
(0 0 0)
(0 0 0)
(0 0 0)
(0 0 0)
(0 0 0)
(0 0 0)
(0 0 0)
(0 0 0)
(0 0 0)
(0 0 0)
(0 0 0)
(0 0 0)
(0 0 0)
(0 0 0)
(0 0 0)
(0 0 0)
(0 0 0)
(0 0 0)
(0 0 0)
(0 0 0)
(0 0 0)
(0 0 0)
(0 0 0)
(0 0 0)
(0 0 0)
(0 0 0)
(0 0 0)
(0 0 0)
(0 0 0)
(0 0 0)
(0 0 0)
(0 0 0)
(0 0 0)
(0 0 0)
(0 0 0)
(0 0 0)
(0 0 0)
(0 0 0)
(0 0 0)
(0 0 0)
(0 0 0)
(0 0 0)
(0 0 0)
(0 0 0)
(0 0 0)
(0 0 0)
(0 0 0)
(0 0 0)
(0 0 0)
(0 0 0)
(0 0 0)
(0 0 0)
(0 0 0)
(0 0 0)
(0 0 0)
(0 0 0)
(0 0 0)
(0 0 0)
(0 0 0)
(0 0 0)
(0 0 0)
(0 0 0)
(0 0 0)
(0 0 0)
(0 0 0)
(0 0 0)
(0 0 0)
(0 0 0)
(0 0 0)
(0 0 0)
(0 0 0)
(0 0 0)
(0 0 0)
(0 0 0)
(0 0 0)
(0 0 0)
(0 0 0)
(0 0 0)
(0 0 0)
(0 0 0)
(0 0 0)
(0 0 0)
(0 0 0)
(0 0 0)
(0 0 0)
(0 0 0)
(0 0 0)
(0 0 0)
(0 0 0)
(0 0 0)
(0 0 0)
(0 0 0)
(0 0 0)
(0 0 0)
(0 0 0)
(0 0 0)
(0 0 0)
(0 0 0)
(0 0 0)
(0 0 0)
(0 0 0)
(0 0 0)
(0 0 0)
(0 0 0)
(0 0 0)
(0 0 0)
(0 0 0)
(0 0 0)
(0 0 0)
(0 0 0)
(0 0 0)
(0 0 0)
(0 0 0)
(0 0 0)
(0 0 0)
(0 0 0)
(0 0 0)
(0 0 0)
(0 0 0)
(0 0 0)
(0 0 0)
(0 0 0)
(0 0 0)
(0 0 0)
(0 0 0)
(0 0 0)
(0 0 0)
(0 0 0)
(0 0 0)
(0 0 0)
(0 0 0)
(0 0 0)
(0 0 0)
(0 0 0)
(0 0 0)
(0 0 0)
(0 0 0)
(0 0 0)
(0 0 0)
(0 0 0)
(0 0 0)
(0 0 0)
(0 0 0)
(0 0 0)
(0 0 0)
(0 0 0)
(0 0 0)
(0 0 0)
(0 0 0)
(0 0 0)
(0 0 0)
(0 0 0)
(0 0 0)
(0 0 0)
(0 0 0)
(0 0 0)
(0 0 0)
(0 0 0)
(0 0 0)
(0 0 0)
(0 0 0)
(0 0 0)
(0 0 0)
(0 0 0)
(0 0 0)
(0 0 0)
(0 0 0)
(0 0 0)
(0 0 0)
(0 0 0)
(0 0 0)
(0 0 0)
(0 0 0)
(0 0 0)
(0 0 0)
(0 0 0)
(0 0 0)
(0 0 0)
(0 0 0)
(0 0 0)
(0 0 0)
(0 0 0)
(0 0 0)
(0 0 0)
(0 0 0)
(0 0 0)
(0 0 0)
(0 0 0)
(0 0 0)
(0 0 0)
(0 0 0)
(0 0 0)
(0 0 0)
(0 0 0)
(0 0 0)
(0 0 0)
(0 0 0)
(0 0 0)
(0 0 0)
(0 0 0)
(0 0 0)
(0 0 0)
(0 0 0)
(0 0 0)
(0 0 0)
(0 0 0)
(0 0 0)
(0 0 0)
(0 0 0)
(0 0 0)
(0 0 0)
(0 0 0)
(0 0 0)
(0 0 0)
(0 0 0)
(0 0 0)
(0 0 0)
(0 0 0)
(0 0 0)
(0 0 0)
(0 0 0)
(0 0 0)
(0 0 0)
(0 0 0)
(0 0 0)
(0 0 0)
(0 0 0)
(0 0 0)
(0 0 0)
(0 0 0)
(0 0 0)
(0 0 0)
(0 0 0)
(0 0 0)
(0 0 0)
(0 0 0)
(0 0 0)
(0 0 0)
(0 0 0)
(0 0 0)
(0 0 0)
(0 0 0)
(0 0 0)
(0 0 0)
(0 0 0)
(0 0 0)
(0 0 0)
(0 0 0)
(0 0 0)
(0 0 0)
(0 0 0)
(0 0 0)
(0 0 0)
(0 0 0)
(0 0 0)
(0 0 0)
(0 0 0)
(0 0 0)
(0 0 0)
(0 0 0)
(0 0 0)
(0 0 0)
(0 0 0)
(0 0 0)
(0 0 0)
(0 0 0)
(0 0 0)
(0 0 0)
(0 0 0)
(0 0 0)
(0 0 0)
(0 0 0)
(0 0 0)
(0 0 0)
(0 0 0)
(0 0 0)
(0 0 0)
(0 0 0)
(0 0 0)
(0 0 0)
(0 0 0)
(0 0 0)
(0 0 0)
(0 0 0)
(0 0 0)
(0 0 0)
(0 0 0)
(0 0 0)
(0 0 0)
(0 0 0)
(0 0 0)
(0 0 0)
(0 0 0)
(0 0 0)
(0 0 0)
(0 0 0)
(0 0 0)
(0 0 0)
(0 0 0)
(0 0 0)
(0 0 0)
(0 0 0)
(0 0 0)
(0 0 0)
(0 0 0)
(0 0 0)
(0 0 0)
(0 0 0)
(0 0 0)
(0 0 0)
(0 0 0)
(0 0 0)
(0 0 0)
(0 0 0)
(0 0 0)
(0 0 0)
(0 0 0)
(0 0 0)
(0 0 0)
(0 0 0)
(0 0 0)
(0 0 0)
(0 0 0)
(0 0 0)
(0 0 0)
(0 0 0)
(0 0 0)
(0 0 0)
(0 0 0)
(0 0 0)
(0 0 0)
(0 0 0)
(0 0 0)
(0 0 0)
(0 0 0)
(0 0 0)
(0 0 0)
(0 0 0)
(0 0 0)
(0 0 0)
(0 0 0)
(0 0 0)
(0 0 0)
(0 0 0)
(0 0 0)
(0 0 0)
(0 0 0)
(0 0 0)
(0 0 0)
(0 0 0)
(0 0 0)
(0 0 0)
(0 0 0)
(0 0 0)
(0 0 0)
(0 0 0)
(0 0 0)
(0 0 0)
(0 0 0)
(0 0 0)
(0 0 0)
(0 0 0)
(0 0 0)
(0 0 0)
(0 0 0)
(0 0 0)
(0 0 0)
(0 0 0)
(0 0 0)
(0 0 0)
(0 0 0)
(0 0 0)
(0 0 0)
(0 0 0)
(0 0 0)
(0 0 0)
(0 0 0)
(0 0 0)
(0 0 0)
(0 0 0)
(0 0 0)
(0 0 0)
(0 0 0)
(0 0 0)
(0 0 0)
(0 0 0)
(0 0 0)
(0 0 0)
(0 0 0)
(0 0 0)
(0 0 0)
(0 0 0)
(0 0 0)
(0 0 0)
(0 0 0)
(0 0 0)
(0 0 0)
(0 0 0)
(0 0 0)
(0 0 0)
(0 0 0)
(0 0 0)
(0 0 0)
(0 0 0)
(0 0 0)
(0 0 0)
(0 0 0)
(0 0 0)
(0 0 0)
(0 0 0)
(0 0 0)
(0 0 0)
(0 0 0)
(0 0 0)
(0 0 0)
(0 0 0)
(0 0 0)
(0 0 0)
(0 0 0)
(0 0 0)
(0 0 0)
(0 0 0)
(0 0 0)
(0 0 0)
(0 0 0)
(0 0 0)
(0 0 0)
(0 0 0)
(0 0 0)
(0 0 0)
(0 0 0)
(0 0 0)
(0 0 0)
(0 0 0)
(0 0 0)
(0 0 0)
(0 0 0)
(0 0 0)
(0 0 0)
(0 0 0)
(0 0 0)
(0 0 0)
(0 0 0)
(0 0 0)
(0 0 0)
(0 0 0)
(0 0 0)
(0 0 0)
(0 0 0)
(0 0 0)
(0 0 0)
(0 0 0)
(0 0 0)
(0 0 0)
(0 0 0)
(0 0 0)
(0 0 0)
(0 0 0)
(0 0 0)
(0 0 0)
(0 0 0)
(0 0 0)
(0 0 0)
(0 0 0)
(0 0 0)
(0 0 0)
(0 0 0)
(0 0 0)
(0 0 0)
(0 0 0)
(0 0 0)
(0 0 0)
(0 0 0)
(0 0 0)
(0 0 0)
(0 0 0)
(0 0 0)
(0 0 0)
(0 0 0)
(0 0 0)
(0 0 0)
(0 0 0)
(0 0 0)
(0 0 0)
(0 0 0)
(0 0 0)
(0 0 0)
(0 0 0)
(0 0 0)
(0 0 0)
(0 0 0)
(0 0 0)
(0 0 0)
(0 0 0)
(0 0 0)
(0 0 0)
(0 0 0)
(0 0 0)
(0 0 0)
(0 0 0)
(0 0 0)
(0 0 0)
(0 0 0)
(0 0 0)
(0 0 0)
(0 0 0)
(0 0 0)
(0 0 0)
(0 0 0)
(0 0 0)
(0 0 0)
(0 0 0)
(0 0 0)
(0 0 0)
(0 0 0)
(0 0 0)
(0 0 0)
(0 0 0)
(0 0 0)
(0 0 0)
(0 0 0)
(0 0 0)
(0 0 0)
(0 0 0)
(0 0 0)
(0 0 0)
(0 0 0)
(0 0 0)
(0 0 0)
(0 0 0)
(0 0 0)
(0 0 0)
(0 0 0)
(0 0 0)
(0 0 0)
(0 0 0)
(0 0 0)
(0 0 0)
(0 0 0)
(0 0 0)
(0 0 0)
(0 0 0)
(0 0 0)
(0 0 0)
(0 0 0)
(0 0 0)
(0 0 0)
(0 0 0)
(0 0 0)
(0 0 0)
(0 0 0)
(0 0 0)
(0 0 0)
(0 0 0)
(0 0 0)
(0 0 0)
(0 0 0)
(0 0 0)
(0 0 0)
(0 0 0)
(0 0 0)
(0 0 0)
(0 0 0)
(0 0 0)
(0 0 0)
(0 0 0)
(0 0 0)
(0 0 0)
(0 0 0)
(0 0 0)
(0 0 0)
(0 0 0)
(0 0 0)
(0 0 0)
(0 0 0)
(0 0 0)
(0 0 0)
(0 0 0)
(0 0 0)
(0 0 0)
(0 0 0)
(0 0 0)
(0 0 0)
(0 0 0)
(0 0 0)
(0 0 0)
(0 0 0)
(0 0 0)
(0 0 0)
(0 0 0)
(0 0 0)
(0 0 0)
(0 0 0)
(0 0 0)
(0 0 0)
(0 0 0)
(0 0 0)
(0 0 0)
(0 0 0)
(0 0 0)
(0 0 0)
(0 0 0)
(0 0 0)
(0 0 0)
(0 0 0)
(0 0 0)
(0 0 0)
(0 0 0)
(0 0 0)
(0 0 0)
(0 0 0)
(0 0 0)
(0 0 0)
(0 0 0)
(0 0 0)
(0 0 0)
(0 0 0)
(0 0 0)
(0 0 0)
(0 0 0)
(0 0 0)
(0 0 0)
(0 0 0)
(0 0 0)
(0 0 0)
(0 0 0)
(0 0 0)
(0 0 0)
(0 0 0)
(0 0 0)
(0 0 0)
(0 0 0)
(0 0 0)
(0 0 0)
(0 0 0)
(0 0 0)
(0 0 0)
(0 0 0)
(0 0 0)
(0 0 0)
(0 0 0)
(0 0 0)
(0 0 0)
(0 0 0)
(0 0 0)
(0 0 0)
(0 0 0)
(0 0 0)
(0 0 0)
(0 0 0)
(0 0 0)
(0 0 0)
(0 0 0)
(0 0 0)
(0 0 0)
(0 0 0)
(0 0 0)
(0 0 0)
(0 0 0)
(0 0 0)
(0 0 0)
(0 0 0)
(0 0 0)
(0.00208361 0.00141542 -0.000818436)
(-0.00138807 -0.000560866 0.000130533)
(0.00199689 0.000985993 -0.000158966)
(-0.0034616 0.000127795 0.000712389)
(-0.00168971 -0.000866064 -0.00021631)
(-0.00692418 -0.000221209 0.000279666)
(-0.00717043 -0.000506896 -6.08726e-05)
(-0.00425956 -0.000824024 4.17795e-05)
(-0.000737144 0.00596958 -0.000499064)
(0.0024573 0.00554484 -0.00114759)
(0.00422682 0.00575882 -0.000304697)
(0.00144825 0.009966 0.000442272)
(-0.000163108 0.00389184 0.00237171)
(-0.000423582 0.00244605 0.00105718)
(-0.00809413 -0.00253481 0.00351629)
(-0.0055516 -0.00408536 0.0045842)
(-0.0129241 -0.0115031 0.00447045)
(-0.0125996 -0.00510335 0.00364632)
(-0.0142364 -0.00373794 0.00263795)
(-0.0139412 -0.01318 0.00507326)
(-0.0144448 -0.00775896 0.00792126)
(-0.0119854 -0.00373297 0.000244776)
(-0.00550646 -0.00381406 -0.000224504)
(-0.0175884 -0.00757839 0.00031141)
(-0.007252 -0.00457456 -0.00275136)
(-0.000722321 -0.000877103 -0.000807848)
(-0.00103925 0.00309082 0.000740089)
(-0.000343451 -0.00118399 0.00114801)
(-0.00222675 -0.00143453 0.00221983)
(-0.00265631 0.00392612 0.00296727)
(-0.00930913 -0.00445596 0.00488787)
(-0.00895022 -0.00468425 0.00410965)
(-0.0201132 -0.013165 0.0052696)
(-0.0143889 -0.0124076 0.00496549)
(-0.0154491 -0.0164961 0.00297861)
(-0.0223585 -0.0283479 0.00189933)
(-0.0168872 -0.0290617 -0.000435622)
(-0.00939445 -0.0163336 0.00401561)
(-0.0109747 -0.0093911 0.0054154)
(-0.00510598 -0.0275447 -0.00141653)
(0.00532664 -0.0135933 4.50975e-05)
(-0.0144732 0.00106955 -0.000711022)
(-0.0063005 0.00727574 -0.00456893)
(0.000593311 0.00492889 0.00107257)
(-0.00241482 0.0160814 -0.00294768)
(0.00129055 0.00469741 -0.00216064)
(0.00448628 0.0132486 -0.000974909)
(0.00272515 0.00557953 0.000977606)
(-0.000668438 -0.00132782 0.0011726)
(-0.00357469 -0.00515615 0.00301501)
(-0.00260187 -0.00789877 0.00106364)
(-0.012638 -0.00986377 0.00600786)
(-0.0313074 -0.0168937 0.00488924)
(-0.0129718 -0.0137275 0.00431086)
(-0.0318159 -0.0149046 0.00164207)
(-0.0270323 -0.0245377 -0.00590016)
(-0.0101688 -0.019836 -0.00775581)
(-0.0183606 -0.00355765 -0.00802183)
(-0.00427977 0.00983186 -0.00674814)
(0.00644942 -0.0112553 -0.00820191)
(0.0207226 -0.00168505 -0.00264737)
(0.00653312 0.0132481 -0.00890999)
(0.0249564 0.0125938 -0.00891144)
(0.0108882 0.00798304 0.00245349)
(-0.000129958 0.0190886 0.000325101)
(0.0174845 0.0101373 -0.00327789)
(0.00611083 0.0164871 -1.11792e-05)
(0.00332553 0.0121015 0.000318524)
(0.00165687 0.00705451 0.00274163)
(0.00187407 0.00906059 0.00144386)
(-0.00191287 -0.00456668 -3.56384e-05)
(-0.00872978 -0.00723325 0.000810862)
(-0.0191424 -0.00363362 -0.00179682)
(-0.00287956 0.000156186 0.000194602)
(-0.00662799 0.00796171 -0.000464675)
(-0.00441042 0.0135728 -0.00630798)
(0.007983 0.0236465 -0.0030841)
(0.00663937 0.0229602 -0.00320766)
(0.0168722 0.0248784 -3.9014e-06)
(0.011256 0.0327846 -0.0033344)
(0.0165571 0.0281898 -0.0022684)
(0.0125468 0.0249412 0.00403752)
(0.0101392 0.0211047 0.000825058)
(0.0147797 0.0190262 -0.00209344)
(0.00622095 0.01229 0.0023151)
(0.00764704 0.0125656 0.00227062)
(0.00322827 0.0051848 0.00185807)
(0.00149319 0.00568223 0.00145409)
(0.000201513 0.00598555 0.00124537)
(0.00552988 0.0139781 0.00303828)
(0.00982888 0.0134373 0.00357891)
(0.00566399 0.00405608 0.00485025)
(0.0072448 0.00992924 0.00515422)
(0.00299516 0.00709687 0.00262869)
(0.00324956 0.00212423 0.00404714)
(0.00227153 0.00483832 0.00187285)
(0.00622155 0.00311318 -0.0123651)
(0.0143814 0.000493013 -0.0461505)
(-0.00581235 -0.000911396 -0.00798177)
(0.00733908 0.00529326 -0.00218759)
(-0.00528031 0.00265495 0.000650791)
(0.00667632 -0.00933662 -0.102884)
(0.0122764 0.00461629 -0.109016)
(-0.00316765 0.00491052 -0.0959808)
(-0.0114662 -0.00137984 -0.00203856)
(-0.0138822 -0.0019647 -0.0033476)
(-0.00235638 -0.000223438 -0.100613)
(-0.00430283 -0.00130083 -0.0694567)
(-0.00805017 -0.000826707 -0.0690364)
(-0.0097709 -0.0021393 -0.00437927)
(-0.0050244 -0.0031334 -0.0219475)
(-0.00469298 0.015945 -0.00908461)
(-0.0106499 0.0227373 -0.0925185)
(0.0147289 0.0155375 -0.0069065)
(0.00989565 0.0233387 -0.00615545)
(0.0109835 0.0174786 0.00705657)
(0.00522855 0.00740262 -0.040714)
(0.019078 0.012993 -0.0857986)
(0.0113184 0.0160607 -0.104912)
(0.0102584 0.00581886 -0.14298)
(-0.00919224 -0.00377063 -0.00480469)
(-0.0293398 -0.00308692 -0.000388172)
(-0.0126666 -0.00391267 -0.0131668)
(-0.00962263 0.00813607 -0.0242792)
(-0.00609033 -0.00151872 -0.0120069)
(-0.0265218 -0.00783477 -0.0373371)
(-0.00780678 -0.00626078 -0.0254993)
(0.000119685 0.000675488 -0.00740113)
(0.000791527 -0.00234301 -0.0189824)
(0.000187398 0.0119446 0.00372052)
(-0.003324 -0.00283212 0.000244495)
(-0.000528144 -0.00160171 0.00118077)
(0.00507278 -0.00134765 -0.184579)
(0.00136343 0.00646234 -0.181371)
(0.00463538 0.00234816 -0.186175)
(0.0116313 0.0161951 -0.00626416)
(0.0054505 0.0126928 0.00551249)
(0.0137693 0.00703155 -0.0249251)
(0.021806 0.018685 -0.0110336)
(0.0117107 0.0160208 0.00140593)
(-0.00340851 -0.0106586 0.00625518)
(-0.00339167 -0.0200641 0.00179199)
(-0.00118851 0.00442278 -0.13023)
(0.00970116 0.0104711 -0.147861)
(0.00279907 -0.00293406 -0.0899741)
(0.0029092 0.0133148 0.0110354)
(0.00332161 0.0160869 0.00428019)
(0.0117427 0.0235827 -0.00739401)
(0.00234058 0.0131024 0.00541141)
(0.00956203 0.0121133 -0.00588795)
(-0.0026239 -0.0104546 -0.00729851)
(0.000349361 0.00242665 -0.0295249)
(-0.0192229 -0.00866679 -0.00836363)
(-0.000732125 0.00131138 0.000973989)
(-0.00220041 0.0106571 -0.00319937)
(0.00904706 0.000827259 -0.0250317)
(-0.016213 -0.00573639 -0.0396839)
(0.00956183 0.00671668 -0.00393945)
(0.00172795 0.012467 -0.00889114)
(0.00541488 0.0191505 0.0109914)
(0.00682358 0.0171244 0.0109598)
(0.000326019 0.0082954 0.00868725)
(0.031847 0.0365359 -0.0187116)
(-0.00125988 0.0232698 0.0172071)
(0.00598054 0.00666407 0.0145936)
(-0.00537473 0.00439716 0.0134234)
(-0.00164213 0.0101445 0.0145013)
(0.00838899 0.0104992 0.00466014)
(0.0146162 0.0125654 0.00540489)
(0.0188921 0.0175499 0.0142843)
(0.012796 0.00340644 0.0159294)
(0.0284318 0.0296779 0.00983121)
(0.027411 0.0256023 0.0219884)
(0.0125428 0.00351599 0.015602)
(0.00329584 0.009263 0.0125432)
(0.00976573 0.00230804 0.0173456)
(0.0163248 0.0133524 0.0228578)
(9.88305e-05 0.014371 0.0156456)
(0.0107421 0.00323473 0.0176318)
(-0.00714669 0.00663233 0.0108042)
(-0.00801694 0.00139579 -0.118028)
(-0.00532366 0.00379827 -0.0932162)
(0.00330315 0.00143539 -0.119491)
(-0.00670969 -0.000169363 -0.14023)
(0.00857996 -0.00487214 -0.138754)
(0.00146793 0.00224214 -0.0962016)
(-0.00381427 0.00226319 -0.0956302)
(0.00518577 0.000640734 -0.097288)
(0.0201663 0.0096176 -0.139308)
(0.0230521 0.00475422 -0.120053)
(0.00364227 0.00796965 -0.0930871)
(0.0152529 0.00970388 -0.0996824)
(0.0255969 0.00619048 -0.0856193)
(0.0114038 0.00469337 -0.0861292)
(0.0196949 0.01203 -0.0786127)
(0.00606392 -0.0133782 -0.110227)
(0.0040964 -0.00475034 -0.0768281)
(-0.017276 -0.00431826 -0.13552)
(0.00215427 -0.0182169 -0.129026)
(-0.00206435 -0.00490285 -0.146174)
(-0.00330995 -0.000272249 -0.0825469)
(-0.010755 0.00224388 -0.0949675)
(0.00142378 -0.00594259 -0.088425)
(-0.000452159 0.00265638 -0.0906435)
(0.00677983 0.00976226 -0.0671719)
(0.0035237 0.000339733 -0.0918866)
(0.00443374 0.00214898 -0.0725792)
(0.0321023 0.015113 -0.0787206)
(0.018573 0.0171963 -0.0786512)
(0.032712 0.0124139 -0.0720812)
(0.0179563 0.0118369 -0.0891061)
(0.00333532 0.00267618 -0.0502112)
(0.00659745 0.00949464 -0.0715184)
(0.00807882 -0.0126602 -0.133061)
(0.00887407 0.0019377 -0.172908)
(0.0187944 -0.00112138 -0.135646)
(0.00598204 -0.00616194 -0.0836628)
(0.0136165 0.00331709 -0.0535801)
(0.019578 -0.00118656 -0.0884875)
(0.0156941 0.00849139 -0.0842542)
(0.00486251 0.00769621 -0.0826802)
(0.00255082 0.00266383 -0.0828895)
(-0.00140201 -0.00929139 -0.0949062)
(-0.00274106 -0.00936738 -0.0563556)
(0.0305101 0.0244323 -0.133099)
(0.0225804 0.0330666 -0.0917888)
(0.0195724 0.00777619 -0.0399681)
(0.0263758 0.0167728 -0.0694553)
(0.00891836 0.0168811 -0.0509104)
(6.72786e-05 0.00838593 -0.0828453)
(0.00332769 -0.0118582 -0.0649934)
(-0.0029242 -0.0213811 -0.0923589)
(0.00109155 -0.0143108 -0.0576241)
(-0.000900763 -0.0258695 -0.0788379)
(0.00934656 0.0152216 -0.0739582)
(0.0073929 0.0112534 -0.0591634)
(0.00377653 0.00330059 -0.101484)
(0.0140327 0.00948494 -0.0848198)
(0.0166678 0.0140269 -0.103197)
(0.0102692 0.011663 -0.0750279)
(0.0161496 0.00849055 -0.0895623)
(0.00959894 0.00903196 -0.0811487)
(0.0118922 0.00583953 -0.0978915)
(0.0194467 -0.00913748 -0.0790845)
(0.0100601 -0.00718088 -0.123055)
(-2.58592e-15 2.58256e-15 1.00081e-15)
(-0.00174952 -0.0339257 -0.0919364)
(0.0135999 -0.0304905 -0.0720147)
(-0.00408641 -0.0270303 -0.0705466)
(4.51464e-05 -0.0149989 -0.0425416)
(0.0127994 -0.0245677 -0.0722974)
(0.0193388 0.0142079 -0.105984)
(0.00159663 0.00148365 -0.0969416)
(-0.00718283 -0.0224522 -0.084403)
(0 0 0)
(-0.0092002 -0.0157952 -0.0879211)
(-0.0211193 -0.0316879 -0.064344)
(-0.0189416 -0.0069834 0.0149435)
(0.0114996 -0.014998 -0.0873619)
(0 0 0)
(-0.0119299 -0.0197475 -0.0616432)
(0.00455109 -9.40295e-05 -0.0470297)
(-0.0134189 -0.00786652 -0.00467041)
(0.00927943 -0.0111782 -0.0466873)
(-0.00647656 0.00283982 -0.0291389)
(-0.0121141 -0.000552526 -0.0218594)
(0.00159706 -0.00048557 -0.0185037)
(-0.00723299 0.00243897 -0.0197524)
(-0.000889946 -0.00103794 -0.0132215)
(-0.000135952 -0.00398108 -0.0191719)
(-0.0112005 -0.0028183 -0.0210416)
(-0.0041047 -0.00944561 -0.0181833)
(0.0172319 -0.000384392 -0.0205634)
(0.0382972 0.00699713 -0.0357004)
(0.00488037 -0.00424703 -0.0224475)
(0.0138764 -0.0118995 -0.0264262)
(0.0312796 -0.00452426 -0.0344075)
(0.0358994 0.0154646 -0.0514458)
(0.0355808 0.0063104 -0.0408858)
(-0.000377028 -0.00344457 -0.0266271)
(-0.00373994 -0.00462863 -0.0153296)
(-0.0121162 0.00151393 -0.0255251)
(-0.0045845 -0.00449197 -0.0252247)
(-0.00490791 0.00628429 -0.0112994)
(-0.00955686 -0.00294366 -0.0245595)
(-0.0157459 -0.00318567 -0.0231907)
(-0.00897986 -0.00495078 -0.0206218)
(-0.0117706 0.00165092 -0.0176844)
(0.0336461 0.0214804 -0.0609637)
(0.0553012 0.0283301 -0.0554244)
(0.0329884 0.021964 -0.0750635)
(0.0545938 0.0101404 -0.0530721)
(0.0403405 0.0228963 -0.0477241)
(0.0597453 0.0219721 -0.0550855)
(0.0480235 0.0241937 -0.069483)
(0.0103459 0.0140869 -0.0626995)
(0.0267414 0.0199203 -0.0448252)
(0.00175531 -0.00461457 -0.0112516)
(0.00761601 0.00704883 0.0138857)
(0.0150381 0.00255192 0.000485409)
(-0.000926416 -0.00486994 -0.012279)
(-0.000690796 0.0022345 0.00357654)
(0.00526168 0.000786672 -0.00956615)
(-0.0226264 -0.0143513 -0.0918667)
(-0.0108859 -0.0170126 -0.0632856)
(0 0 0)
(-0.019812 -0.0204708 -0.0848664)
(-0.0108463 -0.0204031 -0.0706062)
(0.0256983 0.032666 -0.00753567)
(0.0147387 0.0354512 -0.0398066)
(0.00231056 0.0081043 0.0062335)
(0.0101247 0.0153043 -0.0147521)
(0.0100291 0.0268563 -0.0388077)
(-0.00564854 -0.0156724 -0.0632161)
(-0.00683258 -0.0379137 -0.0831219)
(-0.0170489 -0.0318833 -0.0935374)
(-0.00337714 -0.0147855 -0.0724054)
(0.000598136 -0.0383525 -0.0869021)
(0.0151858 0.0275286 -0.05332)
(0.0160377 0.0286539 -0.0518941)
(0.0255333 0.0178862 -0.0875909)
(0.0145409 0.0165818 -0.0691682)
(0.0117881 0.00432511 -0.0874393)
(0.0209782 0.0283743 -0.0705047)
(0.0300708 0.0225046 -0.0856897)
(0.0194402 0.0218933 -0.0723629)
(0.0210862 0.0153439 -0.08114)
(0.00683177 -0.0587697 -0.0790135)
(-0.0235097 -0.0689748 -0.0600353)
(0.00176751 -0.0434429 -0.0476446)
(-0.0122607 -0.0524645 -0.0975284)
(0.00779964 -0.0401652 -0.0871314)
(0.00112404 -0.0359715 -0.0616176)
(0.0110287 -0.0212483 -0.0514577)
(0.01308 -0.0302526 -0.082294)
(-0.00948203 -0.00715981 -0.0770783)
(-0.0159898 -0.0137946 -0.0716698)
(-0.0585356 -0.0771081 -0.0496615)
(-0.0420907 -0.0456163 0.0176723)
(-0.0370359 -0.0276123 -0.0791574)
(-0.0390726 -0.0375022 -0.0486254)
(-0.0315841 -0.0157925 -0.00901592)
(-0.00886022 -0.0844264 0.0206421)
(-0.0246005 -0.0294443 0.0283042)
(-0.0239764 -0.0305526 -0.0317285)
(-0.00524145 -0.0314281 -0.00980798)
(-0.0197403 -0.0111127 -0.00607739)
(0.0145906 -0.0180153 -0.028632)
(-0.0203016 -0.00495494 -0.0226879)
(0 0 0)
(-0.00274052 -0.0104499 -0.0193071)
(-0.0143238 -0.00795619 -0.0223727)
(-0.00583801 -0.0121358 -0.0227133)
(0 0 0)
(0 0 0)
(0 0 0)
(0.0141329 -0.0180652 -0.0307629)
(0.0342526 -0.0156357 -0.037414)
(0 0 0)
(0 0 0)
(0 0 0)
(0 0 0)
(0 0 0)
(-0.00777958 -0.00916607 -0.0113769)
(0 0 0)