/*--------------------------------*- C++ -*----------------------------------*\
| =========                 |                                                 |
| \\      /  F ield         | OpenFOAM: The Open Source CFD Toolbox           |
|  \\    /   O peration     | Version:  5.x                                   |
|   \\  /    A nd           | Web:      www.OpenFOAM.org                      |
|    \\/     M anipulation  |                                                 |
\*---------------------------------------------------------------------------*/
FoamFile
{
    version     2.0;
    format      ascii;
    class       volScalarField;
    location    "2.4";
    object      Ksl;
}
// * * * * * * * * * * * * * * * * * * * * * * * * * * * * * * * * * * * * * //

dimensions      [1 -3 -1 0 0 0 0];

internalField   nonuniform List<scalar> 
10571
(
7974.69
12981.9
665.661
717.651
999.132
100.198
5.21947
389.642
522.112
114.64
3197.99
180.923
15.6129
915.959
1062.07
1434.97
6807.94
1369.74
2506.83
2087.77
4161.07
376.813
483.41
1336.44
2602.84
13368.9
682.634
2036.38
445.144
601.245
1488.42
731.806
555.827
582.466
4680.86
3299.09
6587.96
5508.74
4022.48
500.572
835.244
2864.1
3486.97
9137.23
3592.93
1507.18
1935.69
4910.37
1847.38
10795
1352.07
2493.36
2513.15
969.079
2519.66
1344.59
3282.6
2068.72
3028.61
8166.28
3421.54
3531.62
3303.47
8017.33
130.303
105.861
109.032
719.143
5908.77
38.4494
16.8396
11.9311
4539.92
11248.1
3724.18
2457.01
6271.86
7932.51
2771.24
2501.77
1584.37
5584.76
7109.81
1244.73
3454.63
1320.99
351.413
3676.86
89.5569
94.0169
107.804
33.4704
99.8436
56.1561
24.0553
0
6871.95
11143.2
5853.53
2025.93
4016.86
10999.5
2877.78
1558.9
1231.92
7460.53
5050.92
31.8891
1731.73
379.255
358.707
1012.28
76.1557
63.7867
76.8815
120.774
51.3814
41.69
9.19985
62.8687
6246.29
10688.2
4353.53
1236.24
1331.81
7975.86
4185.59
4222.77
1266.36
915.56
12804.2
3554.32
61.3296
181.951
396.699
344.935
728.903
11136.4
95.8681
24.8306
17.7081
6.85556
23.1792
19.4938
13.7915
0
8017.54
10212.2
813.553
806.068
3561.63
563.411
409.914
1014.74
377.541
250.912
0
382.197
133.22
13.996
26.1952
6.26593
1.2902
63.6954
34.521
15.7531
7.42201
15.1854
3.57485
167.305
19.3341
7.35933
0
7318.4
9477.28
7835.27
3320.47
1989.5
719.106
10.0205
2.8599
3.0803
1.76174
0
8.23869e-13
137.736
8.34303
6.90225
3.50475
0
0
58.7022
11.544
12.0014
13.581
0
0
9.84318
0
0
7.31951
84.4126
73.3034
22.8134
0
33.3436
2.99411
3.32369
0.527096
0.8144
0
35.1573
35.9373
5.11023
3.17485
4.90613
0
0
57.2381
5.73308
4.53397
7.92354
0
0
2.67855
0
0
11.4138
0
0
0
30.6703
4.22627
4.04825
2.25288
4.46176
37.514
29.2023
4.46257
5.81879
5.40158
0.220548
13.9296
4.36477
2.88765
0
0
9.65885
7.70897
16.4344
3.89627e-13
6.14946
0.148281
6.08124
4.82149
10.1161
2.68993
1.57872
2.02816
5.15288
17.0523
36.4104
0
3.52663
3.94635
0.166848
5.52112
4.35788
0
0
0
0
0
0
0
0
0.468286
3.42787
0
1.26976e-13
1.4536
2.17026
1.92767
0
11.1964
0
0.973458
0.742005
0.648592
0
5.54499
0.928376
0
0
0
9.48938
0
0
0
17.0176
8.08194
2.10355
0
0
2.03687
1.26385
0.472542
4.74125
0
0
0.681861
0.695171
0
0.176801
0
0.875079
0
0
14.8895
0
0
0
0
10.1988
7.55462
0.963382
0
1.9484
3.0766
2.74329
1.85639
0
16.7056
2.63395
0
0.742055
0.740663
1.26648
4.5718e-13
0
0.815803
0
0
0.324483
0
0
0
0
2.12322
7.94833
0
3.94267
5.27187
1.6415
1.68244
8.62477
0
3.92436
1.39891
2.75476
0.749188
0
3.17753
0
0
0
0
0
0
0
3.50679
5.947
0
0
2.72187
7.78228
1.87813
1.03916
0.639699
10.4539
9.66436
0.406588
0.695208
1.2614
0
7.46125
5.34778
0
0
0
0
0
0
0
0
10.7871
0
0
2.95311
8.2104
2.34207
1.86595
1.24637
5.35865
1.06678
0
1.49549
0.26195
0.842683
0
0
0
0
0
9.99901
0
0
0
11.2457
5.28114
0
2.59309
0
0
0.822904
0.8751
0.653483
2.19053
9.12337
0.761617
5.29685e-14
0.726709
0
5.29009
0
0
0.800103
0
0
0
0
0
0
3.24465
0
4.12297
0
0
2.26221
1.32207
0
0
0
0
0
0
1.48217
9.92903
0
0
0
0
0
0
0
9.32403
0
5.84885
0
0
0
4.62343
2.67328
0.302726
0
5.97544
0
0
0
0
0.744519
3.65836
11.7137
0
1.44516
0
11.4553
0
0
0
0
3.99565
0
0
0
0
1.25772
1.72251
0.683703
5.96803
1.66147e-12
0
0
0
0.701627
9.68768
0
0
0
0
0
0
0
0
0
5.08017
0
0
0
0
0
0.86683
0.171522
3.92119
15.5731
5.73777
0
0.657141
0
0
0
0
0.700157
0
0
0
0
0
0
0
0
0
3.76266
0
1.29935
0.682323
0
0
0
0
0.0342351
0.662777
0.703168
0.125552
0
0.719223
0
5.51633
12.8742
0
0
7.14383
0
0
0
0
0
0
0.0279817
0
0
0
0
0
0
0.656066
1.59366
0
0
0
0
3.59767
0
0
0
0
0
0
0
0
0
0
1.35758
0
0
0
0
0
0
0
0
4.68141
0
0
0
0
0
0
0
0
0
0
4.64148
0
0
0
2.06332
0
0
0
0
5.33545
0.694586
1.31235
0
0
0
0
0
0
10.2352
0
0
0
0
0
0
0
0
0
1.33949
0.435914
0.244693
0
0
0
0
0
0
0
0
0.908002
0
0
0
0
5.12237
0
0
0
4.59579
0
0
0
0.675857
0.652393
0
0
0
0
0
0
0
0
0.905526
0.705477
0
0
0
0
0
0
0
7.8702
0
0
0
0
0.787966
0.870406
0
0
0
0
0.67488
0
0
0.83462
0
0.461622
0
0
0
0
0
0
0
0
0
0
0
0
3.09319
7.21101e-14
0
0
0
0
0.64857
0
0
0
0
0
0
0
0
5.7785
0
0
0
0
0
0
0
5.65155
0.0208387
0
0
0
0
0
0.634693
0
0
0
0
0.973261
0
0
0
0
0
0
0
0
5.53208
0
0
0
3.19153
0
0
0
0
0
0
0
0
0
3.28991
0
0.63031
0
0
0
0
0
0
0
0
0
0
0
6.79835e-14
0
0
0
0
0
1.27985
0
0
0
6.77809
0
0
0
0
0
0
0
0
0
0
0
0
0
0.602289
0
0
0
0
0
0
0
0
0
0
0.594495
0
0
0
0
0
0
0
0
0
0
0
0
1.777
0
0
0
0
0
0
0
0
0
0
0.603648
0
0
0
0
0
0
0
0
0
0
0
1.8869e-14
0.470793
0
0
0
0
6.00503
0
0
0
0
0
0
0
0
0
0
0
0
0
0
0
0
0
0
0.704175
0
0
0
0
0
0
0
0
0
0
0
0
0
0
0
0
0
0
0
0
0
0
0
0.589541
0
0
0
0
0
0.624281
0
0
0
0
0
0
0
0
0
0
0
0
8.57668
0
0
0
0
0.623385
0
0
0
0
0
0
0.626336
0
0
0
0.617107
0
0
0
0
0
0
0
6.34343e-13
0
0
0
0
0.585232
0
0
0
5.5611
0
0
0
0
0
0
0
0
0
0
0
0
0
0
0
0
0
0
0
0.592898
0
0
0
0
0
0
0
0
0
0
0
0
0
0
0
0
0
0
0
0
0
0
0
0
0
0
0
0
0
0
0
0
0
0
0
0
0
0
0
0
0
0
0
0
0
0
0
0.593915
0
0
0
0
0
0
0
0
0
0
0
0
0
0
0
0
0
0
0
0
0
0
0
0.22065
0
0
0
0
0
0
0
0
0
9.09358
0
0
0
0
0
0
0
0
0
0
0
0
0
0
0
0
0
0
0
0
0
0
0
0
0
0
0
0
0
0
0
0
5.19247
0
0
0
3.49411
0
0
0
0
0
5.80633
0
0
0
0
0
0
0
0
0
0
0
0
0
0
0
0
0
0
0
0
0
0
0
0
0
0
0
0
0
0
0
0
0
0
0
0
0
0
0
0
0
0
0
0
0
0
0
0
0
0
0
0
0
0.600011
0
0
0
0
0
0
0
0
0
0
0
0
0
0
0
0
0
0
0
0
0
0
0
0
0
0
0
0
0
0
0
6.68195
0
0
0
1.88985
0
0
0
0
0
0
0
0
0
0
0
0
0
0
0
0
0
0
0
0
0
0
0
0
0
0
0
0
0
0
0
0
0
0
0
0
0
0
0
0
0
0
0
9.3015
0
0
0
0
0
0
0
0
0
0
0
0
0
0
0
0
0
0
0
0
0
0
0
0
0
0
0
0
0
0
0
0
0
0
0
0
0
0
0
0
0
0
0
0
0
0
0
0
0
0
0
0
0
0
0
0
0
0
0
0
0
0
0
0
0
0
0
0
0
0
0
9.54378
0
0
0
2.14977
0
0
0
0
0
0
0
0
0
0
0
0
0
0
0
0
3.7666e-13
0
0
0
0
0
0
0
0
0
0
0
0
0
0
0
0
0
0
0
0
0
0
0
0
0
0
0
0
0
0
0
0
0
0
0
0
0
0
0
0
0
0
0
0
0
0
0
0
0
0
0
0
0
0
6.02459
0
0
0
0
0
0
0
0
0
0
0
0
0
0
0
0
0
0
0
0
0
0
0
0
0
0
0
0
0
0
0
0
0
0
0
0
0
0
0
0
0
0
0
0
0
0
0
0
0
0
0
0
0
0
0
0
0
0
0
0
0
0
0
0
0
0
0
0
0
0
0
0
0
0
0
0
0
0
0
0
0
0
0
0
0
0
0
0
0
0
0
0
0
0
0
0
0
0
0
0
0
0
0
0
0
0
0
0
0
0
0
0
0
0
0
0
0
0
0
0
0
0
0
0
0
0
0
0
0
0
0
0
0
0
0
0
0
0
0
0
0
0
0
0
0
0
0
0
0
0
0
0
0
0
0
0
0
0
0
0
0
0
0
0
0
0
0
0
0
0
0
0
0
0
0
0
0
0
0
0
0
0
0
0
0
0
0
0
0
0
0
0
0
0
0
0
0
0
0
0
0
0
0
0
0
0
0
0
0
0
0
0
0
0
0
0
0
0
0
0
0
0
0
0
0
0
0
0
0
0
0
0
0
0
0
0
0
0
0
0
0
0
0
0
0
0
0
0
0
0
0
0
0
0
0
0
0
0
0
0
0
0
0
0
0
0
0
0
0
0
0
0
0
0
0
0
0
0
0
0
0
0
0
0
0
0
0
0
0
0
0
0
0
0
0
0
0
0
0
0
0
0
0
0
0
0
0
0
0
0
0
0
0
0
0
0
0
0
0
0
0
0
0
0
0
0
0
0
0
0
0
0
0
0
0
0
0
0
0
0
0
0
0
0
0
0
0
0
0
0
0
0
0
0
0
0
0
0
0
0
0
0
0
0
0
0
0
0
0
0
0
0
0
0
0
0
0
0
0
0
0
0
0
0
0
0
0
0
0
0
0
0
0
0
0
0
0
0
0
0
0
0
0
0
0
0
0
0
0
0
0
0
0
0
0
0
0
0
0
0
0
0
0
0
0
0
0
0
0
0
0
0
0
0
0
8526.68
9542.31
6147.37
7468.24
8261.28
7034.09
5599.98
8644.95
6516.52
9637.06
7787.42
5004.95
2777.22
3077.47
686.103
600.816
289.226
1468.27
6053.16
387.853
516.269
8038.15
4986.15
2193.92
3706.7
2121.24
1922.08
2614.13
816.359
498.31
341.369
425.186
264.88
319.512
332.841
261.539
305.766
296.669
283.227
325.76
305.786
389.503
1157.98
375.805
432.995
2949.35
2298.71
1940.23
2457.63
1290.25
2426.93
396.607
323.168
575.917
309.743
233.673
323.95
293.626
317.194
395.025
320.663
497.924
352.309
428.009
603.642
444.188
640.279
2160.86
2422.67
3009.74
3822.2
2051.44
531.506
3118.05
1210.49
379.062
385.891
535.427
391.523
587.348
440.391
533.107
486.611
473.95
1304.56
836.753
1680.13
3289.17
1071.5
273.175
225.337
438.723
369.392
418.436
581.734
615.594
8731
9637.97
11237.3
5777.69
5825.43
12140.7
4964.49
4145.01
2947.58
3983.61
7219.96
1270.7
3903.05
7020.91
6019.28
3657.33
2547.67
7234.8
2925.83
531.94
14121
7145.21
2465.89
847.26
473.144
161.466
113.794
348.094
448.925
285.529
131.213
95.0514
142.421
449.802
1840.16
348.256
1213.84
2813.12
2008.39
369.589
385.25
296.686
533.175
294.903
1503.5
4567.72
3564.92
3447.67
6944.94
1170.03
2810.69
358.953
466.085
224.094
8645.4
10144.5
3628.05
10233.8
6224.41
8726.9
9641.07
8564.72
9270.67
2540.29
2578.1
3143.91
4261.07
2333.18
7772.7
6385.45
512.414
4923.63
10276.6
144.099
2.39338e-13
9838.23
8913.27
7082.91
311.592
7.53521
9599.87
7744.97
8209.32
9978.86
11677.1
11165.2
12142.5
5510.82
3939.8
6106.71
6213.23
4913.89
1122.44
3402.22
1006.05
806.119
2724.38
6295.98
7834.92
5260.16
5444.17
8204.65
2829.52
1000.49
11957
7659.98
3383.91
1100.93
761.701
136.304
300.497
1213.75
1777.96
513.245
619.998
278.311
463.119
1325.56
2888.42
1884.67
1265.02
3114.06
3075.57
629.014
414.734
973.414
2185.94
1878.27
4941.59
6276.83
3369.93
5597.04
3410.13
136.686
1012.76
2666.86
819.207
4950.3
2755.52
430.307
3632
291.399
385.698
255.049
222.111
129.853
35.1809
6425.02
6704.72
11103.4
4396.82
7242.43
473.55
2858.21
8876.92
498.113
137.826
2179.73
4150.03
34.0489
25.1925
0.711103
3423.5
4105.42
15.0744
8.97119
36.1243
38.6672
11565.7
11114
4831.83
7755.3
3692.18
3286.98
8398.83
2495.04
1264.39
2562.21
3022.78
2192.78
3933.59
8479.84
9984.75
6613.49
7969
8477.4
4911.08
2061.67
10894.1
9389.85
7706.51
3524.56
3861.15
1461.41
1222.48
3909.65
6817.57
1884.62
4056.16
1274.19
4285.39
1398.55
3381.99
3327.81
1374.87
5124.31
3575.06
4752.49
4657.52
2525.64
2627.86
5533.56
3743.06
1117.87
6463.21
3161.09
643.257
5470.48
9262.41
7560.95
6361.32
2821.34
179.984
170.891
41.955
184.911
94.562
154.548
75.2332
136.077
82.2474
1681.47
40.3357
117.342
127.055
170.388
48.1509
89.0943
456.586
47.0701
94.4183
11.6125
0
63.3859
6.47904
21.7486
11.416
0
0
16.5571
0
3.76901e-14
10942.7
11258.2
3021.87
8164.19
2280.76
5286.98
8770.29
4389.97
3734.17
7088.52
6845.24
5994.2
8486.11
10321.9
10632.7
10507.2
11045.9
10078.5
9974.31
5714.1
11163.8
10440.3
10471.9
8582.11
9175.59
1563.87
6276.27
7115.62
10030.1
1826.27
7549.47
8013.6
9225.81
3468.48
8064.92
6714.2
9763.25
10084.4
9927.89
4343.22
7877.96
8570.59
6923.31
5601.46
3728.03
327.024
5876.31
2419.08
218.074
4525.04
186.252
1396.76
573.857
126.222
152.272
171.771
63.9943
96.1816
77.7638
72.7141
26.2925
165.659
52.0742
112.876
71.8822
74.4844
60.3095
52.0987
25.0341
42.5462
63.3003
104.56
106.441
6.70182
26.3442
42.1893
14.1801
0
27.557
23.0902
35.6782
44.2784
22.8452
38.587
10712.1
11720.2
6471.7
9293.04
6656.75
7705.25
9545.01
6025.42
5576.26
5643.12
6538.5
3084.89
3115.11
9186.65
5586.83
11482.3
11139
10362.4
10617
8755.07
11614.8
10067.1
10434.7
8558.83
10475.8
2414.95
6726.31
1764.35
8776.11
981.143
3779.55
10346.3
6826.02
10296.8
9481.53
8253.24
10024.7
7910.87
4180.2
5170.33
1073.63
2004.48
2480.33
650.174
662.815
280.483
4592.52
427.458
314.056
254.138
138.587
1180.16
522.247
232.767
196.922
157.958
48.0561
166.885
111.525
76.9489
55.317
193.151
74.8353
71.368
44.0152
23.4019
46.4079
35.5613
41.3178
41.2829
24.408
106.965
80.1727
1.58566
25.9332
21.0078
5.86843
26.6765
15.1138
45.1064
10.0512
36.0585
20.6201
18.2411
10500.5
9157.74
6858.24
8299.44
3779.65
6799.66
5168.59
3185.56
2570.44
2841.99
7331.22
2569.42
3637.73
5510.37
6682.16
10940.3
11120.8
10157.2
9671.62
8243.78
10175.7
8218.83
9284.83
8155.54
7161.32
413.036
1888.39
1783.9
6918.38
186.426
1999.96
3249.62
2558.28
9263.92
7574.12
2941.66
6444.89
6902.78
2276.92
2811.97
1431.97
4497.11
1140.19
278.628
939.272
200.146
12492.8
10178.2
13662.5
3738.18
11662.2
5114.81
13204.1
437.973
246.525
1663.54
353.961
251.374
4921.91
287.121
2944.68
111.809
322.524
35.353
1263.63
12433.9
11769.1
10284.4
9702.92
13453.5
9890.63
12147.9
168.042
108.516
46.0736
147.565
48.8638
93.7964
13.9601
92.5248
58.4103
44.9635
17.261
37.9958
15.0843
16.0083
14.0917
37.7143
9.13249
149.056
135.529
7.74219
2.33916e-12
0
0
0
20.8265
25.9941
17.6682
7.90238
0
48.115
9158.52
9091.61
7830.54
5416.2
3937.66
7767.38
7697.5
7600.19
3404.19
5833.35
7653.65
7376.89
8013.89
7528.98
8662.63
8730.93
6914.66
6949.91
7581
6540.08
9901.07
9117.44
3429.01
2946.35
7161.29
1059.03
3072.06
7906.29
3525
3347.21
886.99
366.385
0
20.3187
0
0
0
0
0
4689.7
2589.85
2417.47
3952.16
359.014
1049.98
4.87856
58.9226
2.95629
4.62096
0
4.39311
1.29026
36.4707
2.76172
28.6111
0
0
0
0
281.813
163.508
152.744
172.998
83.5585
0
10.3022
20.4129
9.52726
0
12.7
2.31598e-13
380.729
286.623
1417.1
0
0
0
0
85.6348
78.5446
43.2257
49.3641
99.6421
48.1576
82.3746
65.0399
115.124
12.5833
0
30.9158
14.4008
0
13.7953
0
10.8827
0
0
436.618
0
0
154.349
97.7892
7.63939
26.1315
0.174024
7.7808
18.0856
0
2.20514
7.31878
9.24686
10.1497
0
8899.91
8389.43
7292.22
9161.12
9890.2
689.143
4125.78
1319.19
9506.24
8520.68
766.987
1303.02
922.859
5478.18
120.029
1095.58
61.2579
8897.78
3401.11
1073.06
1127.75
4792.57
327.787
184.161
171.188
167.749
8.95527
46.5607
1.07293e-13
13.2307
6.04453
0
0
0
0
0
0
0
0
254.741
95.3956
206.056
21.4789
65.4061
36.4924
0
0.549954
1.72738
0
0
0
0
0
0
0
0
0
0
0
54.5283
77.5444
24.722
55.6014
44.5714
4.9749
20.5626
0
0
5.43923
6.94663
0
0
0
0
0
0
0
0
93.7651
23.9564
83.6794
13.3492
41.4505
71.1167
41.0528
22.1237
24.6066
6.46207
0
0
20.099
0
7.00863
0
0
9.94795
0
0
0
0
14.5595
0.893295
0.273713
0
0
7.37646
0
0
0
0
19.1252
0
0
312.808
15.0123
21.1243
274.127
41.3076
0
0
9.21421
6.8442
6.93322
11.3003
12.1917
11.5125
0
6.97216
55.4824
16.4171
169.43
32.6845
28.9927
13.5792
9.7277
17.219
4.53499
0
0
3.3215
3.10604
0
0
0
0
0
23.8316
32.0573
39.7549
31.6217
27.3238
55.4035
0
0
4.21472
4.4243
0
3.12932
3.65134
0
0
0
0
0
0
0
40.6543
36.753
30.6604
37.921
22.489
0
6.24669
0
5.81527
0
0
0
0
0
0
0
0
0
0
36.027
41.9294
37.8072
19.7236
0.210826
17.7063
31.23
28.7036
1.46836e-13
12.6423
0
15.1503
0
0
6.85651
10.7669
0
0
14.9422
0
0
0
0
0
0
0
4.79338
0
0
0.630982
9.06057
4.19203
16.3955
5.21056
0
3.9195
7.97191
3.21017
9.00011
0.731721
10.0151
5.66742
0
0
0
27.2888
28.0554
5.87537
19.9543
9.36387
8.46638
12.6408
26.0341
6.51485
0
2.01261
0
0
4.08848
0
1.05669
7.40268
0
38.2241
30.7268
21.6367
12.1163
15.4724
16.3946
4.5691
10.2179
7.21451
0
12.4948
53.9338
35.7449
19.2811
14.0581
8.3277
0
7.6947
25.3408
0
0
20.3616
4.27326e-13
5.8958
20.3843
8.14498e-14
3.7383
0
0
0
6.47279
0.244139
4.76045
0
6.46542
3.01531
8.4672
0
3.96967e-13
0
0
27.0014
0
0
0
0
0
0
0
0
0
0
0
0
8.45443
7.9854
22.0205
3.88389
2.72164e-13
5.61213
7.29628
0
2.66893
0
0
0
3.18965e-13
0
5.87727
10.8724
0
5.16752
6.21014
12.336
0.0635542
0
1.14809e-14
0
1.0671
0
0
0
0
0
21.2417
16.7686
28.7023
19.4911
16.0645
0.814016
0
6.11487
0
12.8464
1.55649
17.7766
6.78229
40.1962
18.9807
26.6461
4.1988
10.2086
0.29002
11.5518
8.30062
0
5.79424
0
0
11.2888
9.02935
0
0
2.2033e-14
3.05057e-14
12.3678
26.7719
0
0.349199
0
13.2108
0
0
0
0
0
10.1164
0
0
0
0
0
0
0
0
0
11.0088
0
7.56463
5.9694
0
7.80341
3.12858
5.27744
0
0
5.63959
3.03961
0
0
0
10.3156
3.12672
3.85588
5.97053
24.6531
6.09789
11.354
0
0
0
4.20759
0
0
3.95514
0
4.67766
2.49292e-14
3.97016
0
8.42761
4.24009
0
4.32543
9.06905
15.7323
0
5.94012
0
0.460452
13.5735
0.508071
10.487
26.7457
0
2.35335
5.56813
0
5.04287
0
10.8887
0
0
0
10.2058
0
1.65009
0
0
0
0
0
0
0
0
0
0
0
0
0
0
0
0
0
0
0
0
0
0
8.90955
6.70634
15.4133
6.00455
0
4.09456
7.20923
5.50432
0
0
0
0
0
0
0
24.5923
13.8498
1.07388
5.04828
0
9.8904
2.49901
9.52936
0
5.67339
6.16712
7.28765
0
0
1.28634e-13
0
0
0
18.9941
16.0111
15.2903
9.31127
0
19.8518
2.89855
16.0519
0
0
17.7887
7.21343
6.05674
33.9876
5.86027
6.02911
0
8.19039
11.2855
0
0
0.392126
0
0
0
0
5.47777
0
10.0008
0
6.36317
0
0
0
6.83915
0
0
0
0
0
0
0
0
0
0
0
0
0
0
0
0
6.60841
0
9.29462
3.33273e-13
5.53954
10.1393
0.13761
2.79183
0
0
0
0
3.41555
0
6.86632
0.994092
4.84275
4.76602
9.6606
4.59484e-14
2.37263e-14
7.92085
2.08776
6.5229
7.29074
3.48141
0
2.61759
8.56332
0
3.35092
0
0
7.63448
13.6063
3.45693
11.6344
0
3.48975
4.57664
1.91157e-12
0
0
0.65129
4.26828
2.51975
15.5716
4.35392
21.6735
0
0
10.7771
0
0
11.473
11.1951
0
0
0
0
0
0
0
0
0
0
7.16208
6.08262
0
0.7951
0
11.7214
0
0
0
0
0
0
0
0
0
0
0
0
0
5.43559
0
0
5.62751
0
11.2749
2.73199
2.6133
9.76906
9.32449
8.30417
3.61451
3.92002
5.77836
14.7888
6.86234
4.97095
2.6956
1.06736
12.7907
0
5.36786
3.08146
3.79021
0
0
0
18.1729
0
3.2889
0
9.01058
4.33822
0
0
5.36295
9.78018
4.64638
4.86698
35.1294
4.76144
4.56507
0
3.81355
0
0
7.54826
5.9411
6.02698
0
0
11.902
0
6.51679
11.2592
0
0
0
0
0
0
0
0
0
0
7.10533
0
0
0
0
0
0
0
0
0
0
0
0
0
0
0
0
0
0
0
0
0
0
0
0
0
2.03699
1.23302
1.66163
2.39626
4.71623
0
0
0
5.12569
0
5.71281
1.02073
6.2417
0
2.65225e-14
0
0
7.57539
2.78486
2.94353
0
10.1959
7.87412
19.2527
0
5.96263
10.7788
10.2345
0
1.05822e-13
1.2803e-14
0.229196
0
0
0
0
3.62171
0.515314
12.7002
0.461945
0
0
0
6.09266e-13
0
9.60994
10.5585
0
6.1145
10.181
0
0
0
0
0
5.96522
0
0
0
5.04069
0
0
0
0
0
0
0
0
0
0
0
0
0
0
0
0
0
0
11.0635
11.2595
6.3829
0
8.18998e-14
2.02154
0.160811
0
0
3.002
3.85729
6.48257
0
5.95288
0
7.93027
3.25202
7.73226
0
4.08677e-13
4.0409
1.19686e-13
11.9622
0.107082
4.1254
0
5.98053
3.85826
10.9659
0
10.2556
0.22108
8.31399
6.2305
8.53556
11.3398
6.54193
4.71265
0
26.8297
11.3018
19.284
0
0
6.29268
0.18327
7.15157e-14
0
0.811841
5.35418
0
0
0
11.4258
0
11.9013
6.65463
0
0
4.50532e-14
6.50386e-13
0.199792
0
0
0
7.44413
0
0
0
0
0
0
0
0
0
0
0
0
0
0
0
0
0
0
0
0
4.1585
0
0
1.61429
0
3.94605
10.6587
0
7.98367
0
0
0
0
0
1.95611
0
0
0
0
0
0.302673
0
9.14219
0
0
0
10.8474
9.38703
32.7304
3.04499e-13
0
0
3.07773
11.4948
0.747438
6.12967
37.189
22.8235
8.93951
0
9.0793
0
24.5621
3.63864
5.39132
19.4384
6.80669
2.10299e-14
27.25
0
4.31757e-14
23.687
0
0
0
0
0
0
0
5.65032e-13
0
0
0
5.05068
0
0
0
0
0
0
0
0
0
0
0
0
0
0
0
0
0
0
0
0
2.26628
0
0
0
6.65917
8.05528
12.4935
10.0452
0
0.240347
0
0
0
2.58271
3.85751
4.48781
0
4.02174
3.44525
8.92768
7.78247
3.91371
3.6687
0
0
0
0
8.04777
10.2259
0
12.0198
10.6606
3.86773
0
6.69676
2.38092
0
11.9556
7.81664
15.7178
4.07329
0
9.46012
0.794392
0
1.98118e-12
0
0.970413
0.512056
0
0
0
0
0
0
0
0
0
0
0
0
0
0
0
0
0
0
0
0
0
0
0
0
0
0.617698
0
0
0
0
0
0
0
0
5.19511
5.79999
0
4.87858
1.14138
3.57931
0
0
0
0
0
0
11.4694
0
0
3.94513
4.73242
0
0
0
0
0
0
0
0
0
0
4.61933
10.2166
0
13.7111
11.906
1.22357e-14
4.39873
0
15.3118
9.32082
32.6666
17.9538
14.1627
0
0.172972
0
24.547
11.5417
0
0
6.07139
0
0
12.4098
0
0
0
0
0
0
0
0
0
0.252178
4.51134
0
0
4.62192
0
0
2.76301e-13
0
0
0
0
0
0
0
0
0
0
0
0
0
0
0
0
0
0
0
0
0
0
0
0
0
0
0
0
0
12.8348
0
3.47817
0
3.36632
0
1.74036
0
6.54788
0
3.84561
0
1.07807
0
7.72246
10.0951
14.2878
4.13715
0
6.20956
7.7904
0
2.83207
5.18482e-13
0
0
7.0854
16.2267
4.99948
0
0
0
3.18462
0
4.046
4.87647
16.7093
0.560388
19.5797
4.04736
0
0
0
0
0
0
0
0
0
0
0
0
0
0
0
0
0
0
0
0
0
0
0
0
0
0
0
10.7119
0
0
0
5.50546
0
0
0
0
0
0
0
0
0
0
0
8.75027
0
2.22804
1.0413e-14
0
0
2.91693
0.16341
0
0
0
6.69759
0
0
0
4.85631
0
0
15.5264
0
4.06755
4.20519
0
0
4.82851
0.902736
5.04277e-13
0
0
0
0
0
0
0
31.3422
0
0
0
0
0
0
0
0
0
0
0
0
0
0
0
8.64147
0
4.73864
0
6.27398e-13
10.5786
14.0037
0
0
0
0
0
0
0
0
0
0
0
5.7766
0
0
0
0
0
0
0
0
0
0
0
0
0
0
0
0
0
0
3.68509
5.19552
6.21898
0
2.41511
0
0
0
3.46841e-13
0.129598
0
0
0
0
0
0
0
0
0
0
4.0035
0
1.01277
0
0
0
0
0
0
0
0
30.7528
0
0
0
0
0
0
0
0
0
0
0
0
0
1.75214
0
0
0
4.80449
0
8.73723
3.59493
0
0
6.01079
0
0
0
0
0
0
0
6.23976
0
0
4.89802
16.4117
33.1078
0
0
0
5.6612
0
0
0
0
0
0
0
0
0
0
0
2.83617
0
0
0.555249
0
0
0
0
0
0
0
0
0
0
0
0
0
0
0
0
0
2.4572
25.8459
6.07855
3.23762
0.597285
0
0
0
0
0
0
5.98682
0
0
5.93668
0
0
0
0
2.07626
0
0
0
3.18512
0
0
0
0
4.54468
0
0.307189
0
0
0
0
0
0
5.04294
0
0
0
0
0
0
0
0
10.3516
0
0
0
0
0
0
0
0
0
0
0
0
0
0
0.923298
0
0
0
0
0
3.99621
0
0
0
0
0
0
0
0
0
0
0
0
5.0735
0
1.65909e-12
1.31592
0
0
0
0
0
0
0
0
0
0
0
0
0
0
0
0
0
0
0
0
0
0
0
0
0
0
0
0
0
0
0
0
0
0
0
0
0
0
0
0
0
0
6.15984
0
0
0
0
0
0
0
0
0
0
0
0
0
0
0
0
0
0
0
0
0
0
0
0
0
0
0
0
0
0
0
0
0
0
0
0
0
0
0
0
4.09882
0
1.52549
0
0
0
0
0
0
0
0
15.6828
0.309986
0
5.66669
0
0
0
0
0
0
0
0
0
0
0
0
0
0
0
0
0
0
0
0
0
0
0
4.75493
0
2.3305e-13
0
0
0
0
0
0
0
0
0
0
0
0
0
0
0
0
0
0
0
0
0
12.1799
0
0
0
0
0
0.196862
0
0
0
0
0
0
0
0
0
0
2.14473
0
2.91173
3.30462
0
4.12934e-13
0
0
0
0
0
4.49472
0
0
0
0
0
0
0
0
0
8.84549
0
0
0
0
0
0
0
0
0
0
0
0
0
0
0
0
0
0
3.29473
17.5187
0
7.86725
0
8.58306
0
3.58938e-14
6.3151e-13
17.8096
0
0
0
0
0
0
0
0
0
0
0
0
0
0
0
0
0
0
0
4.12309
0
0
0
0
0
0
0
0
0
0
0
0
0
0
0
0
1.28287
0
0
3.28685
4.98275
0
0
0
0
0
0
0
0
0
0
0
0
0
0
0
0
0
6.21846
0
1.43061e-14
0
7.3614e-13
0
0
0
0
0
0
0
0
0
0
0
5.23664e-13
0
0
0
0
6.15801
0
0
0
0
0
0
0
0
0
0
0
0
0
0
0
0
0
0
0
0
0
0
0
0
0
8.43509e-13
0
0
0
0
0
0
0
0
0
0
0
0
0
0
0
0
0
0
0
0
0
0
0
0
0
0
0
0
0
4.98538
1.47358e-14
0
4.72268e-13
0
0
0
0
0
0
0
0
0
0
0
0
0
0
0
0
0
0
0
0
0
0
0
0
0
0
0
0
0
0
0
0
0
0
0
0
0
0
0
0
0
0
0
0
0
0
0
0
0
0
0
0
1.22509
0
0
0
0
0
0
0
0
0
0
0
0
0
0
0
0
0
0
0
0
0
0
0
0
0
0
0
0
0
0
0
9.01649
0
0
0
0
0
0
0
0
0
0
0
0
4.44626
0
0
0
0
0
0
0
0
0
0
0
0
0
0
0
0
0
0
0
0
0
0
0
0
0
0
0
0
0
0
0
0
0
0
3.48285
0
0
0.211282
0
0
0
0
0
0
0
0
0
0
0
0
0
0
0
0
0
0
0
0
0
0
4.76381
0
0
0
0
0
0
0
0
0
0
0
0
7.53765
0
0
0
0
0
4.72608e-13
0
0
0
0
0
0
0
0
0
0
0
2.10691
0
0
0
0
0
0
0
0
1.02073
0
0
0
0
0
0
0
0
0
0
0
0
0
0
0
0
4.33592
0
0
0
0
0
0
0
0
0
0
0
0
0
0
0
0
0
0
0
0
0
0
0
0
0
0
0
0
0
0
0
0
0
0
0
0
0
0
0.885447
0
0
0
0
0
0
0
0
0
0
0
0
0
0
0
0
0
0
0
0
0
0
0
0
4.37103
0
1.82444
0
0
0
0
0
0
0
0
0
0
0
0
0
0
0
0
0
0
0
0
0
0
0
0
0
0
0
0
0
0
0
0
0
0
0
4.44924
0
0
0
0
0
0
0
0
0
0
0
4.46682
0
0
0
0
0
0
0
0
0
0
0
0
0
0
0
0
0
0
0
0
0
0
0
0
0
0
0
0
0
0
0
0
0
0
0
0
0
0
0
0
0
0
0
0
0
0
0
0
0
0
0
0
0
0
0
0
0
0
0
0
0
0
0
0
0
0
0
0
0
0
32.5677
0
5.79102
7.08265e-13
0
0
0
0
0
0
0
0
0
0
0
0
0
0
0
0
0
0
0
0
0
0
4.88855
0
0
0
0
0
0
0
0
0
0
0
0
0
0
0
0
0
0
0
0
0
0
0
0
0
0
0
0
0
0
0
0
0
0
0
0
0
0
0
0
4.78958
0
0
0
0
0
0
0
0
0
0
0
0
0
0
0
0
0
0
5.43081
0
4.58607
0
0
0
0
0
0
0
0
4.26707
0
0
0
0
0
0
0
0
3.55037e-13
0
0
0
0
0
0
0
0
0
0
0
0
0
0
0
0
0
0
0
0
0
0
0
0
0
0
0
0
0
0
0
0
0
0
0
0
0
0
0
0
0
0
0
0
0
0
0
0
0
0
0
0
0
0
0
0
0
0
0
0
0.994145
0
4.5902
0
0
0
0
0
0
0
0
1.61415e-13
0
16.5336
0
0
0
0
0
0
0
0
0
0
0
0
0
0
0
0
0
0
0
0
0
0
0
0
0
0
0
0
0
0
0
0
0
0
0
0
0
11.198
2.57638e-13
0
0
0
0
0
0
0
0
0
0
0
0
0
0
0
0
0
0
0
0
0
0
0
0
0
0
0
0
0
0
0
5.78622
0
0
0
0
0
0
0
0
0
0
0
0
0
0
0
0
0
0
0
0
0
0
4.86033
0
0
0
0
0
0
0
0
0
0
0
0
0
0
0
0
0
0
0
0
0
0
0
0
0
0
0
0
0
0
0
0
0
0
0
0
0
0
0
0
0
0
0
0
0
0
0
0
0
0
0
0
0
0
0
0
0
0
0
0
0
0
0.511676
0
0
2.06541
0
0
0
0
0
0
0
0
0
1.79132
0
0
0
0
0
0
6.43969
0
0
0
0
0
0
4.41285
0
0
0
0
0
0
0
0
0
0
0
0
0
0
0
0
0
0
0
0
0
0
0
0
0
0
0
0
0
0
0
0
0
0
0
0
0
0
0
0
0
8.7692
0
0
0
0
0
0
0
0
0
0
0
0
0
15.8393
0
0
0
0
0
0
0
0
0
0
0
13.1404
0
0
0
0
0
0
0
0
0
0
0
0
0
4.97279
0
0
0
0
0
0
0
0
0
0
0
0
0
0
0
0
0
0
0
0
0
0
0
0
0
0
0
0
0
0
0
0
0
0
0
0
0
0
0
0
0
0
0
0
0
0
5.37584
0
0
0
0
0
0
0
0
0
0
0
0
0
0
0
0
0
0
0
0
0
0
0
0
0
0
0
0
0
0
0
0
0
0
0
0
0
0
0
0
0
0
0
0
0
0
0
0
0
0
0
0
0
0
0
0
0
0
0
0
0
0
0
0
0
0
0
0
0
0
0
0
0
0
0
0
0
0
0
0
0
4.77133
0
0
0
0
0
0
0
0
0
0
0
0
0
4.57782
0
0
0
0
0
0
0
0
0
0
16.6931
0
0
0
0
0
0
0
0
0
0
0
0
0
0
0
0
0
0
0
0
0
0
0
0
0
0
4.06375
0
0
4.31375e-13
0
0
0
0
0
0
0
0
0
0
0
0
0
0
0
0
0
0
0
0
0
0
0
0
4.77072
0
0
0
0
0
0
0
0
0
0
0
0
0
0
0
0
0
0
0
0
0
0
0
0
0
0
0
0
0
0
0
0
0
0
0
0
0
0
0
0
4.48851
0
0
0
0
0
0
0
0
0
0
0
0
0
0
0
0
0
4.05786
0
0
0
0
0
0
0
0
0
0
0
0
0
0
0
0
0
0
0
0
0
0
0
0
0
0
0
0
0
0
0
0
0
0
0
0
0
0
0
0
0
0
0
0
0
0
0
0
0
0
0
0
0
0
0
0
0
0
0
0
0
0
0
0
0
0
0
0
0
0
0
0
0
0
0
0
0
0
0
0
0
0
0
0
0
0
0
0
0
0
0
0
0
0
0
0
0
0
0
0
0
0
0
0
0
0
0
0
0
0
0
0
0
0
0
0
0
0
0
0
0
0
0
0
0
0
0
0
0
0
0
0
0
0
0
0
0
0
0.579794
5.15766
0
0
0
0
0
0
0
0
0
4.48028
0
0
0
0
0
0
0
0
0
0
0
0
10.1358
0.366671
0
0
0
0
0
0
0
0
0
0
0
11.4217
0
0
0
0
0
0
0
0
0
0
0
0
0
0
0
0
0
0
0
0
0
0
0
0
0
0
0
0
0
0
0
0
0
0
4.93607
0
0
0
0
0
0
0
0
0
0
0
0
0
0
0
0
0
0
0
0
4.90232
0
0
0
1.86832e-13
0
0
0
0
0
0
0
0
0
0
0
0
0
0
5.77517
0
0
0
0
0
0
0
0
11.4053
0
0
0
0
0
0
0
0
0
0
0
0
0
0
0
0
1.82398
0
0
0
0
0
0
0
0
0
0
0
0
0
0
0
0
0
0
0
0
0
0
0
0
0
0
0
0
0
0
0
0
0
0
0
0
0
0
0
0
0
0
0
0
0
0
0
0
0
0
0
0
0
0
10.5628
0
0
0
0
0
0
0
0
0
0
0
0
0
0
0
0
0
0
0
0
0
0
0
0
0
0
0
0
0
5.04028
0
0
0
4.99125
5.48957
0
0
0
0
0
0
0
0
0
0
0
0
0
0
0
0
0
0
0
0
0
0
0
0
0
0
0
0
0
0
0
0
0
8.43087
0.16706
0
0
8.40418
0
0
0
0
0
0
0
0
0
4.01101e-13
0
0
0
0
0
0
0
0
0
0
0
0
0
0
0
0
0
0
0
0
0
0
0
0
0
0
0
0
0
0
1.89696e-13
2.10256e-14
0
5.02174
0
0
0
0
0
0
0
0
0
0
0
0
0
0
0
0
0
0
0
0
0
0
0
0
0
0
0
0
0
0
0
0
0
0
0
0.299445
0
0
0
0
0
0
0
0
0
0
0
0
0
0
0
0
0
0
0
0
0
0
0
0
0
0
0
0
0
0
0
0
0
0
0
0
0
0
0
0
0
0
0
0
0
0
0
0
0
0
0
0
0
0
0
0
0
0
0
0
0
0
0
0
0
0
0
0
0
0
0
0
0
0
0
0
0
0
0
0
0
0
0
0
0
0
0
0
0
0
0
0
0
0
0
0
0
0
0
0
0
0
0
0
0
0
0
0
0
0
0
0
0
0
0
0
0
0
0
0
0
0
0
0
0
0
0
0
1.28315
0
0
0
0
0
0
0
0
0
0
0
0
0
0
0
0
0
0
0
0
0
0
0
0
0
0
0
0
0
0
0
0
0
0
0
0
0
0
0
0
0
0
0
0
0
0
0
0
0
0
0
0
0
0
0
0
0
0
0
0
0
0
0
0
10.694
0
0
0
0
0
0
0
0
0
0
0
0
0
0
0
0
0
0
0
0
0
0
4.99038
0
0
0
0
0
0
0
0
0
0
0
0
0
0
0
0
0
0
0
0
0
0
0
0
0
0
0
0
0
0
0
0
0
0
0
0
0
0
0
0
0
0
0
0
0
0
0
0
0
0
0
0
0
0
0
0
0
0
0
0
0
0
0
0
0
0
0
0
0
0
0
0
0
0
0
0
0
0
0
0
0
5.49214
2.05351
0
0
0
0
0
0
0
0
0
0
0
0
0
0
0
0
0
0
0
0
0
0
0
0
0
0
0
0
0
0
0
0
0
0
0
0
0
0
0
0
0
0
0
0
0
0
0
0
0
0
0
0
0
0
0
0
0
0
0
0
0
0
0
0
0
0
0
0
0
0
0
0
0
0
0
0
0
0
0
0
0
0
0
0
0
2.19134
0
0
0
0
0
0
0
0
0
0
0
0
0
0
0
0
0
0
0
0
0
0
0
0
0
0
0
0
0
0
0
0
0
0
0
0
0
0
0
0
0
0
0
0
0
0
0
0
0
0
0
0
0
0
0
0
0
0
0
0
0
0
0
0
0
0
0
0
0
0
0
0
0
0
0
0
1.58442
0
0.19145
3.6312
0.326155
5.13944
9.03468
0
0
0
0
0
0
0
0
0
0
0
0
0
0
0
0
0
0
0
0
0
0
0
0
0
0
0
0
0
0
0
0
0
0
0
0
0
0
0
0
0
0
0
0
0
0
0
0
0
0
0
0
0
0
0
0
0
6.4295
0
16.2153
0
0
0
0
0
0
0
0
0
0
0
0
0
0
0
0
0
0
0
0
0
0
0
0
5.43592
0
0
0
0
0
0
0
0
0
4.5937
0
0
4.00339e-13
0
0
0
0
0
0
0
0
0
0
0
0
0
0
0
0
0
0
0
0
0
0
0
0
0
0
0
0
0
0
0
0
0
0
0
0
0
0
0
0
0
0
9.08092e-13
0
0
0
0
0
0
0
0
0
0
0
0
0
0
0
0
0
0
0
0
0
0
0
0
0
0
0
0
0
0
0
0
0
0
0
0
0
0
0
0
0
0
0
0
0
0
0
0
0
0
0
0
0
0
0
0
0
0
0
0
0
0
0
0
0
0
0
0
0
0
0
0
0
0
0
0
0
0
0
0
0
0
0
0
0
0
0
0
0
0
0
0
0
0
0
0
0
0
0
0
0
0
0
0
0
0
0
0
0
0
5.12266
0
0
0
0
0
0
0
0
0
0
0
0
0
0
0
0
0
0
0
0
0
0
0
0
0
0
0
0
0
0
0
0
0
0
0
0
0
0
0
0
0
0
0
0
0
0
0
0
0
0
0
0
0
0
0
0
0
0
0
0
0
0
0
0
0
0
0
0
0
0
0
0
0
0
0
0
0
3.14718
0
0.189176
0
0
0
3.5195
0
0
0
0
0
0
0
0
0
0
0
0
0
0
0
0
0
0
0
0
0
0
0
0
0
0
0
0
0
0
0
0
0
0
0
0
0
0
0
0
0
0
0
0
0
0
0
0
0
0
0
0
0
0
0
0
0
0
0
0
0
0
0
0
0
0
0
0
0
0
0
0
0
0
0
0
0
0
0
0
0
9.68901
0
0
0
0
0
0
0
0
0
0
0
0
0
0
0
0
0
5.75485
0
0
0
0
0
0
0
0
0
0
0
0
0
0
0
0
0
0
0
0
0
0
0
0
0
0
0
0
0
0
0
0
0
0
0
0
0
0
0
0
0
0
0
0
0
0
0
0
0
0
0
0
0
0
0
0
0
0
0
0
0
0
0
0
0
0
0
0
0
0
0
0
0
0
0
0
0
0
0
0
0
7.26643
0
2.2002e-14
0
0
0
0
0
0
0
0
0
0
0
0
0
0
0
0
0
0
0
0
0
0
0
0
0
0
0
0
0
0
0
0
0
0
0
0
0
0
0
0
0
0
0
0
0
0
0
0
0
0
0
0
0
0
0
0
0
0
0
0
0
0
0
0
0
9.90397
5.4825
0
0
0
0
0
0
0
0
0
0
0
0
0
0
7.25681
0
0
0
0
0
0
0
0
0
0
0
0
0
0
0
0
0
0
0
0
0
0
0
0
0
0
0
0
0
0
0
0
0
0
0
0
0
0
0
0
0
0
0
0
0
0
0
0
0
0
0
0
0
0
0
0
0
0
0
0
0
0
0
0
0
0
0
0
0
0
0
0
0
0
0
0
0
0
0
0
0
0
0
0
0
0
0
0
0
0
0
0
0
0
0
0
0
0
0
0
0
0
0
0
0
0
0
0
0
0
0
0
0
0
0
0
0
0
0
0
0
0
0
0
0
0
0
0
0
0
0
0
0
0
0
0
0
0
0
0
0
0
0
0
0
0
0
0
0
0
0
0
0
0
0
0
0
0
0
0
0
0
0
0
0
0
0
0
0
0
0
0
0
0
0
0
0
0
0
0
0
0
0
0
0
0
0
0
0
0
0
0
0
0
0
0
0
0
0
0
0
0
0
0
0
0
0
0
0
0
0
0
0
0
0
0
0
0
0
0
0
0
0
0
0
0
0
0
0
0
0
0
0
0
0
0
0
0
0
0
0
0
0
0
0
0
0
0
0
0
0
0
0
0
0
0
0
0
0
0
0
0
0
0
0
0
0
0
0
0
0
0
0
0
0
0
0
0
0
0
0
0
0
0
0
0
0
0
0
0
0
0
0
0
0
0
0
0
0
0
0
0
0
0
0
0
0
0
0
0
0
0
0
0
0
0
0
0
0
0
0
0
0
0
0
0
0
0
0
0
0
0
0
0
0
0
0
0
0
0
0
0
0
0
0
0
0
0
0
0
0
0
0
0
0
0
0
0
0
0
0
0
0
0
0
0
0
0
0
0
0
0
0
0
0
0
0
0
0
0
0
0
0
0
0
0
0
0
0
0
0
0
0
0
0
0
0
0
0
0
0
0
0
0
0
0
0
0
0
0
0
0
0
0
0
0
0
0
0
0
0
5.4883
0
0
0
0
0
0
0
0
0
0
0
0
0
0
0
0
0
0
0
0
0
0
0
0
0
0
0
0
0
0
0
0
0
0
0
0
0
0
0
0
0
0
0
0
0
0
4.28866
0
0
0
7.41219
0
0
0
0
0
0
0
0
0
0
0
0
0
0
0
0
0
0
0
0
0
0
0
0
0
0
0
0
0
0
0
0
0
0
0
0
0
0
0
0
0
0
0
0
0
0
0
0
0
0
0
0
0
0
0
0
0
0
0
0
0
0
0
0
0
0
0
0
0
0
0
0
0
0
0
0
0
0
0
0
0
0
0
0
0
0
0
0
0
0
0
0
0
0
0
0
0
0
0
0
0
0
0
0
0
0
0
0
0
0
0
0
0
0
0
0
0
0
0
0
0
0
0
0
0
0
0
0
0
0
0
0
0
0
0
0
0
0
0
0
0
0
0
0
0
0
0
0
0
0
0
0
0
0
0
0
0
0
0
0
0
0
0
0
0
0
0
0
0
0
0
0
0
0
0
0
0
0
0
0
0
0
0
0
0
0
0
0
0
0
0
0
0
0
0
0
0
0
0
0
0
0
0
0
0
0
0
0
0
0
0
0
0
0
0
0
0
0
0
0
0
0
0
0
0
0
0
0
0
0
0
0
0
0
0
0
0
0
0
0
0
0
0
0
0
0
0
0
0
0
0
0
0
0
0
0
0
0
0
0
0
0
0
0
0
0
0
0
0
0
0
0
0
0
0
0
0
0
0
0
0
0
0
0
0
0
0
0
0
0
0
0
0
0
0
0
0
0
0
0
0
0
0
0
0
0
0
0
0
0
0
0
0
0
0
0
0
0
0
0
0
0
0
0
0
0
0
0
0
0
0
0
0
0
0
0
0
0
0
0
0
0
0
0
0
0
0
0
0
0
0
0
0
0
0
0
0
0
0
0
0
0
0
0
0
0
0
0
0
0
0
0
0
0
0
0
0
0
0
0
0
0
0
0
0
0
0
0
0
0
0
0
0
0
0
0
0
0
0
0
0
0
0
0
0
0
0
0
0
0
0
0
0
0
0
0
0
0
0
0
0
0
0
0
0
0
0
0
0
0
0
0
0
0
0
0
0
0
0
0
0
0
0
0
0
0
0
0
0
0
0
0
0
0
0
0
0
0
0
0
0
0
0
0
0
0
0
0
0
0
0
0
0
0
0
0
0
0
0
0
0
0
0
0
0
0
0
0
0
0
0
0
0
0
0
0
0
0
0
0
0
0
0
0
0
0
0
0
0
0
0
0
0
0
0
0
0
0
0
0
0
0
0
0
0
0
0
0
0
0
0
0
0
0
0
0
0
0
0
0
0
0
0
0
0
0
0
0
0
0
0
0
0
0
0
0
0
0
0
0
0
0
0
0
0
0
0
0
0
0
0
0
0
0
0
0
0
0
0
0
0
0
0
0
0
0
0
0
0
0
0
0
0
0
0
0
0
0
0
0
0
0
0
0
0
0
0
0
0
0
0
0
0
0
0
0
0
0
0
0
0
0
0
0
0
0
0
0
0
0
0
0
0
0
0
0
0
0
0
0
0
0
0
0
0
0
0
0
0
0
0
0
0
0
0
0
0
0
0
0
0
0
0
0
0
0
0
0
0
0
0
0
0
0
0
0
0
0
0
0
0
0
0
0
0
0
0
0
0
0
0
0
0
0
0
0
0
0
0
0
0
0
0
0
0
0
0
0
0
0
0
0
0
0
0
0
0
0
0
0
0
0
0
0
0
0
0
0
0
0
0
0
0
0
0
0
0
0
0
0
0
0
0
0
0
0
0
0
0
0
0
0
0
0
0
0
0
0
0
0
0
0
0
0
0
0
0
0
0
0
0
0
0
0
0
0
0
0
0
0
0
0
0
0
0
0
0
0
0
0
0
0
0
0
0
0
0
0
0
0
0
0
0
0
0
0
0
0
0
0
0
0
0
0
0
0
0
0
0
0
0
0
0
0
0
0
0
0
39.2705
17.5103
5.86366
365.138
51.5675
37.948
109.002
3096.81
79.0281
123.24
2018.07
1144.84
1022.92
1062.7
36.6263
53.1241
0
87.7274
33.6935
444.011
267.789
0
0
10.5746
54.8166
286.973
411.106
840.11
524.902
685.371
719.345
778.039
642.187
813.763
583.277
165.22
910.015
927.307
519.094
313.222
261.483
238.244
2.85126
2320.02
429.502
2287.77
926.229
6452.3
4584.76
165.872
296.397
484.806
2351.62
2597.16
4188.5
4168.93
1089.77
1276.95
1436.24
2444.06
1507.45
3924.06
3184.34
1156.28
1438.36
1935.62
511.15
111.733
1290.91
290.577
1428.08
1582.92
1247.48
7610.3
7762.76