/*--------------------------------*- C++ -*----------------------------------*\
| =========                 |                                                 |
| \\      /  F ield         | OpenFOAM: The Open Source CFD Toolbox           |
|  \\    /   O peration     | Version:  5.x                                   |
|   \\  /    A nd           | Web:      www.OpenFOAM.org                      |
|    \\/     M anipulation  |                                                 |
\*---------------------------------------------------------------------------*/
FoamFile
{
    version     2.0;
    format      ascii;
    class       volScalarField;
    location    "9";
    object      p;
}
// * * * * * * * * * * * * * * * * * * * * * * * * * * * * * * * * * * * * * //

dimensions      [0 2 -2 0 0 0 0];

internalField   nonuniform List<scalar> 
10571
(
166.704
166.105
169.978
165.408
155.477
165.459
158.446
149.877
143.951
142.117
159.648
163.159
155.569
150.565
146.391
144.587
159.699
156.882
153.29
150.701
145.212
156.461
155.832
151.028
93.1614
88.0535
95.8959
97.9846
92.1576
96.0451
46.9502
55.5252
56.8937
83.8318
98.032
97.5152
33.0234
30.4729
46.3905
83.4337
92.3805
33.7934
40.6728
86.3492
82.1909
80.2997
86.5477
80.8155
2.87878
2.62009
2.79764
2.94682
3.06078
2.77639
2.25817
2.26959
2.20268
3.19366
2.74461
2.84584
2.14687
2.12802
2.33808
3.35103
2.75833
2.22669
2.30861
2.87052
3.07069
2.66562
3.11213
2.60612
2.6718
2.60712
2.61481
2.64274
2.59475
2.61444
2.3562
2.36258
2.31848
2.6226
2.6489
2.64553
2.43075
2.48863
2.35559
2.57899
2.60961
2.37197
2.3569
2.5436
2.59681
2.56685
2.5558
2.57444
2.47284
2.46213
2.44627
2.46085
2.48463
2.44888
2.51535
2.59692
2.5392
2.45264
2.44306
2.46298
2.49668
2.53752
2.50211
2.45293
2.46324
2.4667
2.5
2.44864
2.45121
2.44994
2.45211
2.47324
2.45906
2.43618
2.41502
2.44066
2.44742
2.43444
2.44461
2.47499
2.4781
2.46279
2.47905
2.43934
2.43897
2.45911
2.4819
2.46696
2.45681
2.46987
2.44412
2.4604
2.46963
2.45482
2.45779
2.44695
2.45648
2.46727
2.41311
2.4366
2.42475
2.41992
2.42344
2.44094
2.45835
2.4624
2.49744
2.474
2.48148
2.44074
2.44673
2.46481
2.4663
2.47448
2.46179
2.48587
2.44656
2.46504
2.46474
2.46854
2.4633
2.48144
2.46938
2.47107
2.47601
2.43065
2.4401
2.43899
2.43952
2.43327
2.4491
2.49228
2.4707
2.50345
2.46477
2.4754
2.4449
2.45279
2.47004
2.46138
2.47072
2.45858
2.47933
2.45418
2.46199
2.46307
2.46935
2.45163
2.4746
2.47365
2.47881
2.478
2.44672
2.43992
2.43107
2.44966
2.45539
2.44694
2.51103
2.47154
2.48345
2.45927
2.48108
2.4508
2.45541
2.46734
2.45883
2.45715
2.45799
2.48166
2.45249
2.45332
2.4606
2.46049
2.44535
2.46077
2.48021
2.47433
2.44795
2.43988
2.42356
2.44044
2.46377
2.44963
2.50003
2.46435
2.46098
2.44637
2.45239
2.45253
2.46399
2.45726
2.44503
2.45378
2.44283
2.45277
2.4572
2.45176
2.44647
2.46287
2.47769
2.47083
2.4395
2.44236
2.42478
2.42572
2.45818
2.45183
2.47527
2.46584
2.44338
2.44795
2.44799
2.4452
2.45718
2.45347
2.43994
2.4452
2.42991
2.44787
2.45836
2.44329
2.44812
2.46657
2.47864
2.47126
2.46635
2.44646
2.44091
2.46485
2.45479
2.44918
2.45028
2.45389
2.43682
2.44748
2.43919
2.43255
2.43515
2.44406
2.44024
2.44591
2.41282
2.43026
2.45138
2.43107
2.44747
2.45763
2.47479
2.46824
2.43774
2.4465
2.45623
2.45874
2.44502
2.43384
2.42664
2.43491
2.43689
2.44554
2.42705
2.41903
2.40985
2.43324
2.43652
2.44478
2.39804
2.40976
2.43743
2.42121
2.44361
2.43208
2.45569
2.45959
2.41576
2.44651
2.45719
2.45639
2.44342
2.41719
2.4085
2.41734
2.43916
2.44144
2.4204
2.41588
2.39002
2.42228
2.42634
2.44199
2.4039
2.39982
2.43148
2.41436
2.44352
2.41871
2.44109
2.44494
2.54736
2.44941
2.45004
2.45327
2.44653
2.41577
2.40454
2.40944
2.43836
2.4367
2.42927
2.42363
2.40254
2.42211
2.43645
2.44508
2.43813
2.41965
2.43849
2.44806
2.45497
2.43816
2.45134
2.45682
2.48002
2.4579
2.44824
2.44338
2.45132
2.43358
2.4236
2.42162
2.44242
2.43832
2.44679
2.43982
2.43168
2.43802
2.44185
2.45041
2.47158
2.46623
2.46339
2.46576
2.46401
2.49257
2.50308
2.5039
2.46317
2.47104
2.4546
2.44621
2.45861
2.45384
2.4465
2.43974
2.44991
2.44625
2.46253
2.45487
2.45771
2.45245
2.44314
2.45479
2.4791
2.49586
2.46937
2.47027
2.46573
2.55882
2.46078
2.53146
2.46947
2.48538
2.4675
2.45884
2.46863
2.47225
2.46461
2.45598
2.46256
2.45694
2.47128
2.46398
2.46369
2.45924
2.45267
2.46138
2.48166
2.49254
2.47638
2.47142
2.46844
2.54376
2.47672
2.49719
2.48222
2.49434
2.48181
2.47436
2.47861
2.48349
2.47594
2.46837
2.47632
2.46863
2.47769
2.47737
2.46263
2.46406
2.4628
2.4703
2.48312
2.48601
2.47903
2.47636
2.47386
2.50745
2.48632
2.48673
2.49458
2.49357
2.49213
2.48799
2.48532
2.48249
2.47938
2.48016
2.48482
2.47933
2.48241
2.48433
2.47083
2.47244
2.47178
2.47814
2.48191
2.47579
2.48121
2.47874
2.4788
2.49266
2.49173
2.48491
2.50262
2.49306
2.49941
2.49677
2.48638
2.47213
2.48159
2.48626
2.48674
2.48691
2.48498
2.48301
2.47706
2.48033
2.47847
2.48272
2.48076
2.47153
2.4801
2.47886
2.48166
2.48849
2.49514
2.48423
2.50685
2.49609
2.50468
2.50044
2.48662
2.4714
2.47697
2.48422
2.48366
2.48921
2.48657
2.48151
2.47888
2.48464
2.48262
2.48507
2.47872
2.47196
2.47799
2.47847
2.4829
2.48455
2.48815
2.48186
2.50952
2.50448
2.50958
2.50562
2.49316
2.48086
2.47248
2.48414
2.48154
2.48915
2.48774
2.48326
2.47392
2.48553
2.48472
2.48542
2.47816
2.47092
2.47797
2.47821
2.48303
2.48105
2.48363
2.47973
2.50952
2.50935
2.5167
2.51006
2.50068
2.49281
2.48098
2.48461
2.47919
2.48753
2.48873
2.48608
2.46901
2.48317
2.48492
2.48368
2.47839
2.46953
2.48002
2.4787
2.48285
2.47741
2.48253
2.47982
2.51011
2.5052
2.51236
2.52082
2.5017
2.4987
2.48873
2.48663
2.47811
2.48533
2.48742
2.48645
2.47156
2.47865
2.48267
2.48062
2.47671
2.47112
2.47816
2.47877
2.48258
2.47827
2.48478
2.48234
2.50549
2.49844
2.50243
2.50674
2.49572
2.49524
2.49044
2.48348
2.47167
2.4809
2.48309
2.483
2.47362
2.47668
2.47883
2.47719
2.47337
2.47443
2.47584
2.4796
2.48251
2.48454
2.48644
2.48595
2.49603
2.49012
2.49214
2.49427
2.48875
2.48753
2.4851
2.48127
2.46757
2.47612
2.47721
2.47722
2.4713
2.47567
2.47525
2.4742
2.46962
2.47456
2.47607
2.47978
2.48227
2.48943
2.48686
2.4874
2.48645
2.48112
2.48128
2.48459
2.48216
2.4779
2.47218
2.47796
2.46411
2.47396
2.47135
2.47029
2.46571
2.47235
2.47122
2.473
2.46696
2.47115
2.4765
2.47833
2.48059
2.48685
2.48464
2.48548
2.47784
2.47262
2.47165
2.47608
2.4772
2.46786
2.45948
2.4727
2.4632
2.47408
2.46705
2.46425
2.45847
2.46597
2.46477
2.47367
2.46599
2.46859
2.47507
2.47538
2.47774
2.48128
2.48119
2.48222
2.47085
2.4666
2.46498
2.4688
2.47345
2.46086
2.45632
2.46677
2.46804
2.47492
2.46466
2.46024
2.45357
2.45969
2.45928
2.47307
2.46565
2.46676
2.47217
2.47306
2.4751
2.47759
2.47756
2.47846
2.46589
2.46325
2.46093
2.46286
2.47165
2.45846
2.45671
2.46005
2.47192
2.47427
2.46392
2.45858
2.45306
2.45638
2.46218
2.47151
2.46544
2.46587
2.46972
2.47164
2.47283
2.47404
2.47433
2.4763
2.4629
2.46231
2.4593
2.45838
2.46985
2.45991
2.45787
2.45542
2.47236
2.47242
2.46453
2.45966
2.45581
2.45678
2.46747
2.47069
2.46614
2.46487
2.46969
2.47164
2.4713
2.47213
2.47372
2.47546
2.46233
2.46351
2.46027
2.45733
2.46798
2.4625
2.45906
2.45407
2.4691
2.47108
2.46645
2.46246
2.46088
2.46048
2.47483
2.47086
2.4679
2.46572
2.47111
2.47331
2.4712
2.47216
2.47515
2.47446
2.46404
2.46642
2.46287
2.45983
2.46723
2.46604
2.46225
2.45679
2.46612
2.47023
2.46915
2.46539
2.46534
2.46507
2.47987
2.47257
2.47015
2.46789
2.47147
2.47484
2.47196
2.47291
2.47537
2.47489
2.46697
2.47015
2.46669
2.46381
2.46802
2.47031
2.46694
2.46254
2.46542
2.47032
2.47237
2.4676
2.46879
2.46794
2.47426
2.47311
2.47292
2.47126
2.472
2.47361
2.47135
2.47381
2.47531
2.4756
2.46997
2.47374
2.47025
2.46729
2.4696
2.47464
2.47226
2.46709
2.46623
2.47043
2.47562
2.46896
2.47092
2.46891
2.46805
2.47231
2.4759
2.47556
2.47347
2.46946
2.47135
2.47625
2.47638
2.47444
2.47245
2.4766
2.47311
2.46986
2.47125
2.47748
2.47526
2.46989
2.46737
2.47065
2.47854
2.47064
2.47411
2.47068
2.46529
2.4712
2.47895
2.47927
2.47543
2.46754
2.47197
2.47943
2.47789
2.47427
2.47451
2.47835
2.47538
2.47189
2.47261
2.47843
2.47675
2.47157
2.46859
2.47102
2.48096
2.47351
2.47762
2.47305
2.46645
2.47065
2.48144
2.48235
2.47743
2.46843
2.47262
2.48326
2.4808
2.4767
2.47635
2.47976
2.47708
2.47376
2.4741
2.47937
2.47723
2.47264
2.4696
2.47175
2.48305
2.47729
2.47939
2.47539
2.4688
2.47112
2.48401
2.48513
2.4795
2.47056
2.47314
2.48659
2.48507
2.47893
2.47803
2.48115
2.47855
2.47555
2.4759
2.48083
2.47759
2.47227
2.47139
2.47326
2.48455
2.48137
2.48067
2.47652
2.4714
2.47302
2.48585
2.48754
2.48035
2.47202
2.47446
2.4872
2.48623
2.47966
2.47957
2.48262
2.48013
2.47753
2.47781
2.48195
2.47918
2.47328
2.47479
2.47569
2.48538
2.48379
2.48239
2.47804
2.47445
2.476
2.48645
2.48729
2.48077
2.47526
2.47649
2.48701
2.48581
2.48092
2.48085
2.48385
2.48148
2.47942
2.47966
2.48201
2.48048
2.47523
2.47866
2.47836
2.48526
2.48352
2.48387
2.47976
2.47756
2.47903
2.48565
2.4851
2.48109
2.47884
2.47935
2.48506
2.48438
2.48208
2.48158
2.48363
2.48188
2.48074
2.48112
2.48118
2.47938
2.4767
2.48129
2.48056
2.48416
2.48096
2.48181
2.48053
2.47937
2.48118
2.48473
2.48216
2.48206
2.48093
2.48144
2.48285
2.48254
2.48213
2.48181
2.48205
2.48105
2.48127
2.48207
2.47857
2.47703
2.47688
2.48194
2.48209
2.48288
2.48006
2.47837
2.48003
2.48038
2.48207
2.48393
2.48265
2.48407
2.48302
2.48299
2.4819
2.48176
2.48219
2.48211
2.48117
2.48006
2.48153
2.4827
2.47456
2.47521
2.47701
2.48179
2.48315
2.48022
2.47733
2.47767
2.47952
2.47992
2.48255
2.48249
2.48466
2.48638
2.4847
2.48399
2.48323
2.48326
2.48359
2.48302
2.48295
2.48067
2.48208
2.4835
2.4766
2.47442
2.47772
2.48208
2.48438
2.47889
2.47481
2.47921
2.48122
2.48088
2.48311
2.48279
2.48599
2.48725
2.48579
2.48515
2.48457
2.48474
2.48584
2.48512
2.48595
2.4836
2.4839
2.48489
2.48296
2.47971
2.47994
2.48315
2.48616
2.48128
2.4865
2.48061
2.4824
2.48328
2.48466
2.48378
2.48552
2.48663
2.48622
2.48682
2.48576
2.48651
2.48743
2.48831
2.48716
2.48708
2.4868
2.48673
2.48309
2.48396
2.48461
2.48585
2.4884
2.4839
2.48454
2.48315
2.48397
2.4845
2.48628
2.48441
2.48361
2.48578
2.48608
2.48786
2.48632
2.48738
2.48827
2.49169
2.48915
2.49009
2.48983
2.4884
2.48361
2.48599
2.48849
2.48861
2.4905
2.48683
2.4839
2.48388
2.48747
2.48694
2.48823
2.48519
2.48058
2.48594
2.4866
2.48859
2.48648
2.48774
2.48855
2.49407
2.49192
2.49255
2.4919
2.48923
2.48655
2.48818
2.49059
2.49042
2.49191
2.48915
2.48536
2.48498
2.48908
2.4893
2.48953
2.48631
2.47816
2.48597
2.48686
2.48892
2.4862
2.48736
2.48862
2.49469
2.49416
2.49456
2.49297
2.48903
2.48987
2.49024
2.49146
2.49147
2.49255
2.49088
2.48804
2.48652
2.48867
2.49086
2.49024
2.48787
2.47959
2.48526
2.48727
2.48916
2.48677
2.4865
2.48845
2.49499
2.49527
2.49554
2.49343
2.48975
2.49195
2.4912
2.49148
2.49083
2.49263
2.49159
2.49005
2.48744
2.48816
2.49103
2.49004
2.48966
2.48259
2.48373
2.48732
2.48926
2.48791
2.486
2.4886
2.4948
2.49526
2.49548
2.49339
2.49196
2.49199
2.49162
2.49019
2.48977
2.49166
2.49153
2.4909
2.48811
2.4872
2.48954
2.48876
2.49105
2.48572
2.48215
2.48705
2.48892
2.49061
2.4858
2.48832
2.49559
2.49439
2.49674
2.49509
2.49263
2.49117
2.49201
2.48981
2.48777
2.48901
2.49169
2.49054
2.48816
2.4865
2.48687
2.48656
2.49211
2.48837
2.48134
2.485
2.48681
2.4924
2.48567
2.48675
2.49563
2.49342
2.49603
2.49461
2.49119
2.49043
2.49198
2.48992
2.48395
2.48522
2.49211
2.49056
2.48774
2.48509
2.48266
2.48343
2.49282
2.49028
2.48146
2.48256
2.4836
2.49328
2.48564
2.48505
2.49533
2.49353
2.49531
2.49355
2.48924
2.49056
2.49159
2.48692
2.48058
2.48149
2.49301
2.49101
2.48768
2.48285
2.47806
2.47937
2.49357
2.49131
2.48122
2.47962
2.47971
2.49387
2.48557
2.48333
2.4962
2.49503
2.49593
2.49347
2.48815
2.49164
2.49206
2.48513
2.4766
2.47748
2.49464
2.49196
2.48789
2.48027
2.47208
2.47345
2.49468
2.49239
2.48013
2.47635
2.47437
2.49452
2.48538
2.48139
2.49809
2.49818
2.49798
2.49482
2.48739
2.49403
2.4938
2.48325
2.47148
2.4747
2.49738
2.4938
2.48872
2.47707
2.46352
2.46451
2.49669
2.49346
2.47864
2.47142
2.46629
2.49538
2.48483
2.47826
2.50075
2.50336
2.50144
2.49667
2.4859
2.49835
2.49553
2.48172
2.46405
2.46219
2.50166
2.49692
2.4916
2.47362
2.45442
2.44798
2.50004
2.49482
2.47746
2.46408
2.45385
2.49702
2.48424
2.47416
2.50433
2.51083
2.50631
2.49808
2.48405
2.50503
2.49838
2.47813
2.4452
2.43479
2.50831
2.5027
2.4953
2.47053
2.43576
2.41022
2.50562
2.4983
2.47627
2.45334
2.429
2.49941
2.48457
2.46982
2.50894
2.52017
2.51239
2.50074
2.4804
2.51475
2.50205
2.47153
2.41345
2.38093
2.51799
2.51184
2.50089
2.46598
2.40415
2.33444
2.514
2.50528
2.47619
2.4386
2.38748
2.50403
2.48627
2.4651
2.51513
2.53066
2.51977
2.50548
2.47642
2.52695
2.50864
2.46348
2.37411
2.24632
2.53149
2.52432
2.50865
2.46206
2.36298
2.16828
2.52624
2.51459
2.4803
2.42457
2.31339
2.51374
2.49162
2.46284
2.52332
2.54083
2.5284
2.51346
2.47414
2.53989
2.51976
2.46181
2.33775
1.8845
2.54872
2.54081
2.52268
2.46147
2.32501
1.90943
-1.8375
2.54198
2.52906
2.49046
2.40912
2.15462
2.5266
2.50274
2.47144
2.53336
2.54919
2.53772
2.52488
2.48226
2.55094
2.52655
2.47775
2.33702
1.62754
0.036965
2.56371
2.55864
2.54313
2.48832
2.33267
1.85005
0.0857501
2.5605
2.5455
2.50821
2.42113
1.99964
2.54478
2.52131
2.49278
2.54221
2.5566
2.54648
2.53559
2.50241
2.55889
2.5317
2.49655
2.38722
1.87712
0.439272
2.57376
2.56909
2.55486
2.51717
2.40001
1.88455
0.51083
2.5761
2.561
2.52981
2.45548
2.16316
0.703056
2.56643
2.54354
2.52403
2.54773
2.56122
2.55202
2.54318
2.52543
2.56004
2.5389
2.51198
2.43351
2.0247
0.513735
2.5758
2.57114
2.55883
2.53629
2.45984
2.10533
0.402363
2.58597
2.57179
2.55388
2.48158
2.27116
2.58075
2.56048
2.55378
2.54784
2.55602
2.5466
2.54251
2.53555
2.5508
2.52894
2.51907
2.46008
2.21763
2.57194
2.56605
2.56021
2.54509
2.49769
2.25539
-0.873663
2.58296
2.577
2.56644
2.53238
2.52998
2.58699
2.56777
2.56732
2.54362
2.54144
2.53505
2.53428
2.53414
2.52854
2.51117
2.51306
2.49064
2.47956
2.56058
2.55558
2.55119
2.55067
2.52227
2.51795
2.57495
2.56954
2.5641
2.55241
2.56385
2.57808
2.56671
2.57148
2.54599
2.5249
2.52766
2.53396
2.54143
2.50147
2.50532
2.51971
2.52046
2.54818
2.55025
2.54646
2.55257
2.55586
2.54539
2.5749
2.56721
2.56478
2.56117
2.55497
2.57376
2.57039
2.56432
2.57106
2.55729
2.52561
2.53749
2.54366
2.55018
2.49031
2.50984
2.5299
2.53653
2.55781
2.55055
2.54521
2.55668
2.56189
2.56206
2.58656
2.56326
2.56369
2.56386
2.5585
2.57851
2.56845
2.56816
2.56914
2.56974
2.55737
2.55921
2.55743
2.55637
2.5251
2.52643
2.54035
2.54472
2.56185
2.55708
2.54875
2.55648
2.56124
2.56824
2.58179
2.56085
2.56323
2.56507
2.56458
2.57651
2.56676
2.56803
2.56994
2.57211
2.57203
2.57422
2.56363
2.55821
2.55016
2.54506
2.54944
2.55022
2.56049
2.55892
2.55186
2.55541
2.55981
2.56583
2.57757
2.55828
2.56098
2.56389
2.56536
2.57502
2.56495
2.56679
2.56812
2.56857
2.57231
2.56949
2.56041
2.55184
2.55884
2.55153
2.55425
2.55009
2.55913
2.55885
2.55245
2.55352
2.55973
2.56487
2.57597
2.55464
2.55863
2.56264
2.56569
2.57458
2.56292
2.56567
2.5679
2.57448
2.57329
2.56898
2.5639
2.56051
2.56222
2.55778
2.55743
2.55985
2.56393
2.5583
2.55356
2.55461
2.55885
2.56563
2.57735
2.55089
2.55628
2.56275
2.5682
2.57638
2.56222
2.56692
2.57018
2.57928
2.57386
2.57087
2.56734
2.56612
2.56473
2.55971
2.55925
2.56246
2.57229
2.56027
2.5566
2.55591
2.56031
2.56746
2.57986
2.55352
2.5584
2.56498
2.57063
2.57912
2.56464
2.56946
2.57397
192.854
198.472
198.301
199.266
195.931
196.746
193.413
185.72
182.228
187.847
191.698
185.671
184.492
191.654
189.761
183.346
177.443
184.789
183.166
172.341
166.658
181.059
173.547
162.835
164.878
163.103
179.397
174.36
175.293
180.185
179.559
177.538
176.646
172.234
163.693
166.206
160.771
159.2
154.053
158.888
156.033
150.087
152.924
153.088
153.935
157.417
159.936
159.177
172.524
174.267
174.65
176.116
174.783
174.761
174.05
165.595
162.444
166.671
163.224
160.769
158.462
162.015
160.413
156.508
156.741
159.64
160.271
159.849
158.435
160.206
174.409
174.492
173.52
176.383
175.982
169.017
165.582
173.792
171.456
163.742
163.679
169.305
169.405
164.837
166.288
171.15
170.367
163.993
177.367
177.275
175.3
177.299
175.053
175.64
176.928
174.516
168.468
144.287
168.503
170.642
171.724
140.869
145.885
145.296
168.852
164.608
140.722
143.721
139.212
159.594
133.148
163.852
147.946
168.27
165.854
167.245
145.178
148.626
150.491
151.638
149.861
148.479
146.407
132.601
127.939
135.455
130.149
143.532
125.579
163.681
160.63
163.561
151.355
151.759
153.299
143.746
139.52
126.844
128.039
121.499
162.495
160.963
151.494
152.471
150.195
139.842
144.137
129.804
123.733
129.991
159.156
145.502
159.42
157.749
158.126
146.851
146.277
140.74
141.28
148.386
151.375
148.424
136.713
131.83
134.33
127.783
128.173
156.397
136.507
157.125
153.922
136.126
138.684
135.129
153.645
152.943
136.731
133.262
133.296
129.716
89.5461
31.7699
92.3176
91.9519
93.7293
38.9789
37.9388
38.8839
94.9784
93.1848
40.9833
42.8041
45.5665
91.0505
46.002
91.1215
22.3846
91.7134
91.4784
95.6086
23.5233
33.4693
27.1417
36.0735
89.9207
98.3746
91.7425
48.6644
42.6723
53.0848
46.7712
87.5505
41.6475
94.5852
98.301
98.3234
29.0193
30.5114
34.5552
83.4989
78.9291
39.0965
41.2954
41.329
97.8579
97.2542
32.4338
36.0383
37.1664
79.907
83.7443
41.8781
41.6786
42.7708
93.3396
30.3363
89.5231
86.7445
83.7242
31.1736
30.4907
21.949
26.2207
83.6377
81.7188
79.0949
36.2819
35.8278
28.7975
22.7939
38.0313
80.3781
21.7149
84.098
85.7112
22.0541
32.7401
35.1943
83.5471
86.2136
37.393
30.7661
38.4029
24.7515
2.76775
1.98635
2.80637
2.74004
2.7656
1.92337
1.95151
1.92415
2.94948
3.25403
1.92058
1.92972
1.93447
3.02781
2.10091
2.57902
2.03314
2.76674
2.70884
2.79172
2.04209
1.97997
2.01447
1.93421
2.72092
3.44953
3.0391
2.05168
2.06227
1.91082
1.96166
2.80451
1.93231
2.70199
2.68693
2.80558
1.97441
1.93221
1.92387
3.06501
4.76136
1.6696
1.84559
1.70664
2.85935
2.87542
1.90596
1.90627
1.90543
4.74877
3.61837
1.88699
1.75041
1.78826
2.76812
1.9808
2.81751
2.59526
2.76514
2.00288
1.98287
2.0808
2.02857
2.89529
2.74404
2.52977
2.00209
2.03406
2.06778
2.11799
1.93415
2.63351
2.06062
2.93502
3.37732
2.05614
2.01489
2.00622
2.83141
3.61632
1.99342
1.97851
1.98722
2.02956
2.6221
2.33772
2.65334
2.63481
2.64241
2.36215
2.35259
2.35787
2.66344
2.6388
2.38583
2.38388
2.36115
2.60728
2.28776
2.60617
2.33373
2.61602
2.60349
2.61586
2.33606
2.34888
2.34764
2.35121
2.58052
2.60436
2.59897
2.3226
2.30824
2.31368
2.32568
2.59171
2.28431
2.61407
2.63253
2.62907
2.36101
2.36069
2.36599
2.58314
2.60592
2.36505
2.29576
2.39342
2.65088
2.64548
2.37688
2.37068
2.37289
2.60119
2.63837
2.29766
2.38869
2.3681
2.62646
2.36146
2.59008
2.59145
2.5741
2.35867
2.3699
2.33532
2.35847
2.55212
2.56523
2.55466
2.33749
2.34278
2.35263
2.36345
2.3557
2.5743
2.35256
2.55391
2.54613
2.36
2.34834
2.35386
2.57399
2.55571
2.35213
2.37166
2.36124
2.36381
2.46259
2.41644
2.44941
2.45124
2.44203
2.4463
2.41353
2.43247
2.46512
2.47428
2.48434
2.46751
2.44933
2.53148
2.42733
2.45514
2.42922
2.45941
2.45624
2.44268
2.42
2.41878
2.42367
2.41248
2.49138
2.4438
2.46167
2.39838
2.41237
2.4058
2.39873
2.47504
2.41186
2.44735
2.44047
2.44033
2.44047
2.44837
2.44489
2.44938
2.43976
2.44547
2.42737
2.24801
2.44374
2.44534
2.44712
2.43879
2.42899
2.43923
2.4465
2.42956
2.26089
2.45821
2.4601
2.42429
2.43849
2.47544
2.4645
2.42537
2.44025
2.41591
2.42227
2.46983
2.48301
2.48513
2.4455
2.44399
2.45479
2.45667
2.44607
2.45875
2.42154
2.45178
2.45443
2.43712
2.44557
2.45428
2.45833
2.46096
2.45145
2.46405
2.46651
2.46128
2.42911
2.42657
2.42629
2.41728
2.41923
2.4206
2.42013
2.41746
2.44491
2.42787
2.42894
2.41736
2.40239
2.44181
2.41433
2.43492
2.43782
2.43232
2.43298
2.4213
2.4316
2.43033
2.43493
2.43073
2.46237
2.42787
2.46588
2.41507
2.42693
2.4314
2.42728
2.46593
2.43398
2.43935
2.4447
2.4418
2.44115
2.44399
2.44057
2.47602
2.45947
2.5553
2.46507
2.48976
2.45921
2.4803
2.48596
2.46852
2.48656
2.48438
2.48649
2.48751
2.48919
2.4348
2.42576
2.43937
2.43922
2.4351
2.52825
2.4655
2.47019
2.46084
2.46828
2.46978
2.48007
2.48462
2.48041
2.48621
2.48783
2.48621
2.48577
2.48599
2.43697
2.44004
2.44379
2.44966
2.43488
2.4437
2.43754
2.44492
2.44766
2.45426
2.46397
2.46511
2.46554
2.46088
2.47084
2.47004
2.46344
2.44373
2.45975
2.45164
2.45613
2.46048
2.46446
2.46749
2.46944
2.46983
2.46506
2.4755
2.47971
2.47366
2.43193
2.43598
2.41923
2.42782
2.42289
2.43192
2.43516
2.42858
2.40711
2.38357
2.4091
2.41121
2.39388
2.40709
2.41097
2.44109
2.44316
2.43448
2.43967
2.44181
2.43844
2.43746
2.44191
2.44594
2.44838
2.44297
2.47137
2.41978
2.43299
2.4475
2.45217
2.46307
2.48424
2.44928
2.47873
2.4791
2.48464
2.47409
2.48326
2.44504
2.44519
2.44097
2.44787
2.44672
2.44435
2.49161
2.46345
2.48551
2.46285
2.47835
2.46457
2.48573
2.48386
2.48389
2.48626
2.47501
2.48231
2.48225
2.48534
2.44457
2.44468
2.44251
2.44833
2.45175
2.47625
2.46975
2.49064
2.45928
2.47849
2.46676
2.48332
2.48514
2.48337
2.48503
2.48367
2.4845
2.4792
2.48362
2.44514
2.45061
2.43599
2.45457
2.4609
2.45007
2.44353
2.46025
2.46953
2.46496
2.47474
2.47036
2.46955
2.46156
2.47678
2.46883
2.48351
2.4559
2.47832
2.48555
2.47725
2.48373
2.47237
2.47823
2.47391
2.47485
2.47378
2.48177
2.47942
2.47806
2.48229
2.47531
2.47961
2.48041
2.47804
2.43872
2.43809
2.44065
2.43834
2.43465
2.43963
2.43512
2.43497
2.4235
2.41843
2.44819
2.43746
2.44062
2.42507
2.44314
2.44437
2.44489
2.44009
2.44341
2.44658
2.44008
2.44004
2.44391
2.44748
2.45613
2.45488
2.47221
2.44514
2.45664
2.45684
2.46723
2.45903
2.48008
2.4498
2.47944
2.4738
2.48264
2.47453
2.48306
2.44908
2.44744
2.44769
2.44866
2.44673
2.44861
2.48077
2.46523
2.48371
2.46247
2.48323
2.4632
2.48242
2.48193
2.47911
2.48347
2.47733
2.48296
2.4783
2.48289
2.45063
2.45591
2.44534
2.45058
2.45679
2.47817
2.46545
2.48095
2.45855
2.47744
2.45989
2.47646
2.48284
2.47627
2.48254
2.47808
2.4826
2.476
2.4823
2.45391
2.45426
2.45355
2.46197
2.47352
2.45513
2.45927
2.46017
2.4706
2.45727
2.47612
2.46976
2.46466
2.45286
2.47365
2.47136
2.47558
2.44345
2.47179
2.48252
2.4738
2.4823
2.47867
2.47406
2.48533
2.48177
2.46729
2.48657
2.48132
2.47983
2.478
2.48081
2.48059
2.47833
2.4772
2.43527
2.43179
2.4382
2.42969
2.43127
2.43321
2.42611
2.42845
2.44153
2.45268
2.446
2.44547
2.4559
2.45666
2.46276
2.44468
2.44513
2.43823
2.44426
2.44774
2.43976
2.43503
2.44558
2.44708
2.46165
2.46061
2.46706
2.46154
2.46416
2.46428
2.46749
2.45452
2.452
2.44775
2.44568
2.44839
2.44761
2.44876
2.44941
2.49023
2.46181
2.48105
2.45402
2.48308
2.45909
2.47517
2.48561
2.48335
2.48437
2.48346
2.48416
2.48736
2.48507
2.45122
2.45489
2.45436
2.45189
2.45017
2.4763
2.45458
2.47445
2.45618
2.46867
2.44812
2.46538
2.48361
2.47534
2.48307
2.48475
2.48336
2.47957
2.48217
2.45213
2.44838
2.4559
2.45513
2.46189
2.4479
2.44935
2.44874
2.45353
2.45115
2.47127
2.47228
2.45557
2.45101
2.4681
2.47265
2.44655
2.46653
2.45934
2.48495
2.47899
2.45925
2.48407
2.47863
2.47772
2.47825
2.4789
2.47435
2.47778
2.47229
2.42781
2.42397
2.42363
2.42195
2.422
2.41365
2.41666
2.41178
2.45081
2.46001
2.44184
2.44972
2.46769
2.46555
2.4617
2.4471
2.44874
2.43279
2.44756
2.44601
2.44073
2.43221
2.44901
2.44485
2.46465
2.46329
2.46531
2.46111
2.46424
2.45849
2.46164
2.45307
2.45421
2.44923
2.4502
2.44939
2.45158
2.45052
2.44955
2.45473
2.48081
2.44675
2.44955
2.42164
2.45011
2.44466
2.44988
2.44702
2.43978
2.47383
2.44024
2.44543
2.42789
2.43903
2.44337
2.43781
2.441
2.44142
2.44394
2.43667
2.43332
2.43338
2.43393
2.45151
2.4656
2.47049
2.44801
2.45099
2.46459
2.46748
2.44743
2.45399
2.4501
2.48485
2.47981
2.46558
2.48294
2.47923
2.47232
2.47632
2.47751
2.47239
2.47633
2.4706
2.42234
2.42666
2.40814
2.41187
2.40202
2.41205
2.41457
2.40316
2.44489
2.48854
2.45285
2.45234
2.50367
2.45821
2.46467
2.44955
2.44987
2.43464
2.4499
2.44454
2.44477
2.43888
2.45067
2.44565
2.46289
2.45291
2.45594
2.45841
2.45936
2.44828
2.4499
2.45318
2.4499
2.45301
2.45162
2.45044
2.45333
2.45167
2.45058
2.45063
2.44947
2.44838
2.44984
2.45038
2.44416
2.43595
2.44426
2.43994
2.43149
2.44761
2.44216
2.44553
2.44656
2.44445
2.43197
2.42527
2.42603
2.42494
2.42518
2.42154
2.41713
2.41635
2.4153
2.44937
2.46417
2.46392
2.43669
2.44728
2.4633
2.46104
2.44805
2.4464
2.44045
2.47754
2.477
2.46357
2.46936
2.47226
2.47368
2.47632
2.47797
2.47323
2.47612
2.4706
2.43723
2.44847
2.42203
2.42928
2.41636
2.43144
2.45318
2.42342
2.4743
2.48538
2.46103
2.48027
2.46265
2.46306
2.45727
2.44906
2.44716
2.44356
2.45014
2.4471
2.44679
2.44692
2.44806
2.44812
2.45423
2.44315
2.44364
2.44954
2.44952
2.43826
2.43904
2.44694
2.44376
2.4514
2.44956
2.44952
2.44743
2.44787
2.44645
2.44811
2.44881
2.44652
2.4467
2.44739
2.43461
2.42656
2.43398
2.4287
2.42169
2.44637
2.44574
2.44563
2.44568
2.44678
2.41823
2.41073
2.406
2.40715
2.40336
2.40399
2.39147
2.39788
2.39016
2.44589
2.46139
2.45677
2.42688
2.44649
2.45789
2.45186
2.44617
2.43133
2.41909
2.45756
2.46205
2.44617
2.44183
2.44873
2.47102
2.47251
2.46631
2.46536
2.46683
2.46445
2.4572
2.4611
2.44452
2.47576
2.43934
2.46136
2.48104
2.4685
2.46511
2.4544
2.41457
2.4421
2.45397
2.45238
2.4509
2.44388
2.44039
2.44916
2.44475
2.44836
2.44646
2.45072
2.44115
2.44755
2.44648
2.43676
2.43623
2.44345
2.44476
2.43463
2.43237
2.44176
2.43914
2.44195
2.44247
2.4397
2.43641
2.43115
2.43098
2.44544
2.44588
2.4436
2.44454
2.44431
2.42263
2.41753
2.4215
2.41848
2.41403
2.4447
2.44634
2.44317
2.44277
2.44497
2.40477
2.40308
2.37807
2.39101
2.37761
2.39703
2.36937
2.39023
2.37202
2.44502
2.45286
2.44754
2.41765
2.44411
2.44313
2.44269
2.44277
2.40711
2.40009
2.42731
2.43556
2.41921
2.42036
2.43061
2.45887
2.45854
2.44721
2.45264
2.45225
2.45197
2.46157
2.46131
2.46692
2.47572
2.48267
2.54062
2.47431
2.49272
2.41929
2.45471
2.50276
2.44023
2.45711
2.45085
2.45327
2.43745
2.43624
2.4517
2.43783
2.44654
2.44751
2.452
2.43672
2.44569
2.44509
2.43538
2.43163
2.44457
2.44679
2.43475
2.43163
2.43787
2.43653
2.43237
2.42552
2.4265
2.43107
2.42454
2.42561
2.44345
2.44315
2.43924
2.44219
2.44193
2.41838
2.41424
2.42301
2.4218
2.4188
2.44166
2.44361
2.44264
2.44187
2.44376
2.40808
2.41914
2.36896
2.39764
2.37522
2.41845
2.38163
2.41408
2.39019
2.44178
2.43266
2.44221
2.43248
2.44893
2.42985
2.45466
2.4483
2.40221
2.41263
2.42285
2.43079
2.42452
2.43086
2.43569
2.45148
2.44589
2.44171
2.45583
2.44857
2.44461
2.46121
2.45971
2.56259
2.47305
2.50576
2.51867
2.46613
2.49018
2.47933
2.46129
2.51265
2.47661
2.46035
2.45522
2.45539
2.43749
2.44143
2.45199
2.43918
2.4451
2.45278
2.45279
2.4442
2.44465
2.44888
2.43544
2.43422
2.44863
2.45104
2.43614
2.43816
2.43667
2.43793
2.4326
2.42766
2.42825
2.43625
2.43332
2.4339
2.44064
2.44135
2.43601
2.43949
2.44095
2.42883
2.42648
2.43756
2.43777
2.43556
2.44438
2.44508
2.44792
2.44651
2.44657
2.43484
2.45037
2.40725
2.43744
2.41808
2.45694
2.43828
2.46335
2.45589
2.45962
2.42957
2.47197
2.46017
2.46847
2.47021
2.48745
2.46074
2.43516
2.46607
2.44257
2.45343
2.4663
2.46807
2.47946
2.46832
2.45964
2.48301
2.49423
2.4825
2.48551
2.45889
2.46036
2.48499
2.46036
2.47486
2.47005
2.45789
2.46578
2.46822
2.4583
2.46657
2.46269
2.45709
2.45593
2.45779
2.44821
2.45551
2.45468
2.4508
2.4458
2.46413
2.45784
2.45796
2.44814
2.45359
2.43784
2.44305
2.45459
2.45702
2.44148
2.44832
2.44098
2.44534
2.44132
2.44062
2.44128
2.44754
2.44819
2.44835
2.43914
2.44175
2.44155
2.4401
2.44288
2.44729
2.44508
2.45546
2.45599
2.4539
2.44899
2.44898
2.45252
2.45103
2.45091
2.4636
2.47215
2.4665
2.48335
2.49255
2.47793
2.48305
2.49622
2.52216
2.47211
2.51141
2.49625
2.47114
2.47207
2.52348
2.49417
2.46533
2.49854
2.54181
2.48549
2.49732
2.52325
2.48253
2.49214
2.52244
2.50213
2.49635
2.52682
2.49315
2.52505
2.46419
2.47041
2.46522
2.45926
2.46247
2.46611
2.46404
2.464
2.4626
2.45827
2.46486
2.46515
2.46146
2.46095
2.46546
2.46311
2.46982
2.46212
2.46556
2.45159
2.47837
2.4677
2.47269
2.45627
2.46159
2.4464
2.45375
2.46329
2.46636
2.45492
2.46068
2.45102
2.45721
2.45437
2.45572
2.4544
2.46093
2.46215
2.45952
2.44473
2.4475
2.45111
2.45026
2.45218
2.46325
2.4616
2.46752
2.46792
2.46765
2.45392
2.45356
2.45763
2.45693
2.45719
2.47644
2.47844
2.48496
2.50161
2.53011
2.4796
2.48174
2.49904
2.52212
2.47094
2.51489
2.48865
2.46724
2.46987
2.49752
2.48287
2.46624
2.55411
2.54214
2.48705
2.49111
2.5707
2.51061
2.51108
2.50473
2.47139
2.45828
2.49398
2.45943
2.51251
2.47786
2.4858
2.47047
2.47046
2.46851
2.47696
2.47806
2.47474
2.47008
2.46624
2.47566
2.47619
2.47251
2.47141
2.47682
2.47527
2.47891
2.47455
2.47849
2.4626
2.49138
2.48204
2.48206
2.46964
2.47116
2.46283
2.46739
2.4739
2.47544
2.47007
2.47255
2.46335
2.46856
2.46672
2.46803
2.46467
2.47123
2.47308
2.46952
2.45657
2.45877
2.46255
2.4629
2.4647
2.47094
2.47158
2.47466
2.47386
2.47439
2.46135
2.4616
2.46556
2.4658
2.46592
2.47974
2.48083
2.47733
2.49567
2.50906
2.48317
2.47454
2.493
2.49916
2.47152
2.48841
2.48036
2.47336
2.4729
2.48228
2.47866
2.47088
2.52598
2.5117
2.52935
2.51996
2.51977
2.52756
2.51781
2.49179
2.47669
2.48565
2.49362
2.48518
2.48997
2.4928
2.4982
2.48394
2.48571
2.48139
2.49101
2.49281
2.48784
2.48247
2.47942
2.48866
2.48836
2.48659
2.48223
2.48682
2.48049
2.48011
2.48928
2.48296
2.47606
2.49498
2.49485
2.48069
2.48101
2.47882
2.47618
2.47596
2.48245
2.48094
2.47942
2.47835
2.47283
2.47662
2.47461
2.4772
2.47374
2.47689
2.4804
2.47741
2.46911
2.47109
2.47428
2.4749
2.47665
2.47641
2.47708
2.48031
2.47851
2.47949
2.4709
2.47074
2.47461
2.47532
2.47493
2.48148
2.4824
2.4713
2.49114
2.49352
2.48251
2.47043
2.4896
2.49003
2.47495
2.4808
2.47844
2.47774
2.47644
2.48043
2.47883
2.47645
2.50115
2.49449
2.51557
2.50204
2.49685
2.49672
2.48651
2.49307
2.48536
2.48683
2.48998
2.48254
2.48531
2.50194
2.5045
2.49759
2.49868
2.49362
2.50294
2.50346
2.49864
2.49361
2.49289
2.49944
2.49782
2.49786
2.49014
2.49231
2.47943
2.47914
2.49816
2.47711
2.48404
2.49273
2.49986
2.47279
2.48421
2.48254
2.48041
2.48082
2.48663
2.48393
2.48009
2.48365
2.48068
2.48482
2.47817
2.48258
2.48034
2.47872
2.48378
2.48245
2.48034
2.4819
2.48381
2.48513
2.48539
2.48019
2.48133
2.48388
2.48151
2.48283
2.47918
2.47864
2.48072
2.4818
2.48126
2.48303
2.4834
2.47221
2.48705
2.48651
2.48124
2.47575
2.48474
2.48462
2.47782
2.48077
2.47944
2.47894
2.47853
2.48096
2.47977
2.48047
2.49097
2.48966
2.49068
2.49202
2.49017
2.49358
2.50087
2.48965
2.49974
2.49652
2.48937
2.51047
2.48501