/*--------------------------------*- C++ -*----------------------------------*\
| =========                 |                                                 |
| \\      /  F ield         | OpenFOAM: The Open Source CFD Toolbox           |
|  \\    /   O peration     | Version:  5.x                                   |
|   \\  /    A nd           | Web:      www.OpenFOAM.org                      |
|    \\/     M anipulation  |                                                 |
\*---------------------------------------------------------------------------*/
FoamFile
{
    version     2.0;
    format      ascii;
    class       surfaceScalarField;
    location    "9";
    object      phi;
}
// * * * * * * * * * * * * * * * * * * * * * * * * * * * * * * * * * * * * * //

dimensions      [0 3 -1 0 0 0 0];

internalField   nonuniform List<scalar> 
29271
(
-2.57407e-06
-1.32658e-07
7.17576e-07
2.00228e-06
-4.41933e-06
2.09371e-08
8.15033e-07
3.61647e-06
-9.82127e-06
-1.49477e-06
-3.86936e-07
1.04248e-06
2.42616e-06
8.23433e-06
-1.00357e-05
-2.17827e-06
-1.0848e-06
1.05439e-06
3.36737e-06
8.87698e-06
-9.58254e-06
-1.19019e-06
6.9164e-07
3.57016e-06
7.15577e-06
-6.44837e-07
-1.00105e-05
-1.19163e-06
-1.06547e-06
1.87703e-06
1.34751e-06
9.04303e-06
-9.41315e-06
-2.74869e-06
-2.92049e-06
2.77302e-06
1.33271e-06
1.09766e-05
-1.21862e-05
-3.48464e-06
-2.44738e-06
2.69731e-06
8.11587e-07
1.46093e-05
-1.34893e-05
-4.76665e-06
-1.89651e-06
-5.66516e-08
7.75413e-07
1.94337e-05
-9.25518e-06
-6.70362e-07
-6.20385e-08
9.04481e-06
9.27284e-07
-3.31557e-06
-4.02851e-07
4.87056e-07
3.23975e-06
-9.94136e-06
-1.01585e-06
-8.09505e-07
2.09172e-06
5.21939e-07
9.15305e-06
-1.13794e-05
-1.12882e-07
-2.63278e-06
1.5984e-06
-6.19624e-07
1.31462e-05
-1.00199e-05
5.0415e-07
-1.04696e-06
8.92388e-07
-7.22757e-07
1.03931e-05
-1.06127e-05
1.27627e-06
-6.15697e-07
-5.37676e-11
-1.66524e-06
1.16175e-05
-1.01208e-05
2.67466e-07
6.41708e-07
-5.35797e-07
9.53682e-06
2.10593e-07
-1.04657e-05
-9.2435e-07
1.76527e-06
4.60478e-07
9.77418e-06
-6.09875e-07
-1.03579e-05
-2.23679e-06
7.43285e-07
1.67684e-06
-1.00299e-06
1.11776e-05
-1.10333e-05
9.87953e-07
-8.75308e-07
4.28298e-07
-1.49312e-06
1.19855e-05
-1.01317e-05
-1.95994e-08
-1.26043e-06
9.57495e-06
1.86562e-06
-2.88884e-08
-3.70908e-06
7.60545e-07
-4.42193e-07
3.35887e-06
-8.57587e-06
-5.13917e-07
4.0208e-07
7.75304e-06
8.97851e-07
-1.05906e-05
-4.27431e-07
5.08745e-07
-3.35075e-07
9.82494e-06
1.01946e-06
-3.39663e-06
4.9476e-07
-1.46158e-07
3.008e-06
-2.20212e-06
5.87235e-08
-1.03863e-07
2.24774e-06
-3.8782e-06
-1.59346e-07
-2.02138e-08
4.0808e-06
-6.70374e-08
8.92336e-08
-7.79253e-06
-2.48868e-08
5.56757e-07
7.23846e-06
-6.33892e-08
-7.52666e-06
5.71223e-08
-4.52938e-08
4.96733e-07
7.08149e-06
-7.28071e-06
2.73421e-08
7.88477e-08
1.54775e-07
7.0367e-06
-1.69597e-08
-2.42658e-08
-1.55692e-07
-8.48377e-06
5.63099e-07
8.05791e-08
8.02005e-06
-5.64235e-07
1.89893e-06
6.37628e-05
-1.2104e-05
-1.58233e-05
-1.44284e-05
-1.5253e-05
-1.26001e-06
-1.42857e-06
-7.6679e-07
-7.90432e-07
-1.09785e-06
-1.22714e-06
-4.14231e-07
-5.03846e-07
-1.0733e-06
2.90071e-06
6.46626e-05
-1.58002e-05
-1.8854e-05
-1.34586e-05
-1.46462e-05
-1.33195e-06
-1.47508e-06
-7.37492e-07
-7.50715e-07
-5.97054e-07
1.27891e-06
6.36001e-05
-1.54019e-06
-1.01921e-06
-6.24562e-07
-4.5646e-07
-5.4509e-07
-8.96599e-08
-2.29045e-07
-1.91181e-05
-1.29252e-05
-1.54853e-05
-1.33225e-05
-9.16242e-06
-4.42626e-07
6.21015e-08
8.99787e-06
-3.17633e-06
-3.07292e-08
2.29784e-07
2.99308e-06
-3.21817e-07
-8.42039e-06
-9.16218e-08
7.59944e-07
-1.47357e-08
8.08862e-06
4.1455e-07
-6.46061e-07
5.89799e-05
-1.43957e-05
-1.26395e-05
-1.23004e-05
-1.24696e-05
-1.644e-06
-1.64522e-06
-8.77767e-07
-8.77335e-07
-2.5798e-06
-1.40869e-06
5.39708e-05
-1.16298e-05
-1.19337e-05
-1.14784e-05
-1.16251e-05
-9.41145e-07
-9.41898e-07
4.83657e-05
-1.22841e-06
-6.3607e-07
-7.83837e-07
-5.52825e-07
-1.49715e-07
-6.33476e-08
-1.19642e-05
-1.13712e-05
-1.12563e-05
-9.77755e-06
-8.47359e-06
-7.07371e-08
4.35279e-07
2.49385e-07
6.91851e-06
-9.24506e-06
-2.26236e-07
5.77091e-07
2.92143e-07
8.7291e-06
-1.27035e-07
-5.73707e-07
-9.53344e-07
5.03502e-05
-1.48449e-06
-1.06769e-06
-5.85916e-07
-4.01273e-07
-1.13819e-06
-3.63192e-07
-6.67196e-07
-1.1397e-05
-1.22934e-05
-1.00592e-05
-1.00117e-05
-1.33202e-06
-1.06673e-06
4.65785e-05
-7.94822e-07
-5.27267e-07
-2.99678e-07
-9.23937e-07
-6.11675e-07
-3.96618e-07
-1.21564e-05
-1.15257e-05
-9.71117e-06
-9.21496e-06
-8.64179e-06
-2.88605e-07
-2.98012e-08
6.68629e-06
-3.63605e-06
-2.14136e-08
9.43711e-08
3.58687e-06
-7.81221e-06
-1.41105e-07
-3.78863e-07
7.39498e-06
-9.38393e-06
1.10952e-07
2.85524e-07
-1.29696e-07
8.05042e-06
-3.50165e-06
-2.66546e-08
3.65592e-08
3.49626e-06
-2.29829e-06
3.89748e-08
-1.37357e-08
2.26958e-06
-4.65995e-06
-7.97293e-08
1.62786e-08
4.70936e-06
-6.78492e-08
3.87385e-08
-6.58516e-06
-4.92055e-08
1.44061e-07
6.51941e-06
-9.15054e-08
-6.87454e-06
7.35239e-08
-6.06107e-08
1.90107e-07
6.76303e-06
-6.64415e-06
-2.8913e-08
3.75988e-08
5.51152e-08
6.58247e-06
-2.12216e-09
-3.1351e-08
-3.87194e-08
-7.86245e-06
1.03013e-07
3.63383e-08
7.79316e-06
1.99388e-07
1.09742e-06
6.65416e-05
9.23281e-08
-7.51142e-08
-8.10243e-07
-6.19662e-07
1.94732e-07
-1.07432e-08
-1.65636e-06
-1.19051e-06
-1.50633e-06
1.01623e-06
6.55065e-05
-7.51737e-08
3.37893e-09
-9.20987e-08
9.46855e-09
3.30604e-07
5.05539e-07
6.09604e-05
1.48922e-07
2.70666e-07
-5.9852e-07
-1.16095e-06
2.10688e-07
4.28591e-07
9.97887e-07
-9.07188e-06
5.31734e-10
3.36408e-08
9.38766e-06
-3.2031e-06
-2.44117e-09
2.31756e-08
3.18717e-06
-1.1871e-07
-7.9495e-06
-4.29799e-08
2.21417e-07
5.84584e-08
7.83132e-06
4.29311e-07
-1.07743e-06
6.60639e-05
-1.58367e-07
-1.02158e-07
-2.60148e-06
-2.47643e-06
-1.8175e-06
-9.97138e-07
5.8231e-05
1.52903e-07
2.26882e-07
4.55952e-05
2.19338e-07
9.84293e-07
6.37619e-07
3.72143e-07
-2.60759e-07
-8.73917e-07
-6.36621e-06
-3.82623e-08
-4.61203e-07
8.25566e-08
6.93602e-06
-8.37996e-06
-1.12116e-07
1.31134e-07
1.69166e-07
8.27573e-06
-8.39582e-08
-1.04829e-07
2.21826e-07
5.46319e-05
6.47534e-08
2.11614e-07
-1.52146e-06
-2.04807e-06
1.50858e-07
-1.3507e-06
-9.83194e-07
6.33455e-08
2.08793e-07
4.56363e-05
2.09996e-07
6.40476e-09
-7.77633e-07
2.96815e-07
-1.74874e-07
7.42281e-09
-5.82711e-06
-1.08014e-07
2.40473e-08
6.2013e-06
-3.66909e-06
-9.22231e-08
1.22465e-07
3.65114e-06
-7.60848e-06
2.75552e-08
-2.09423e-07
8.00648e-06
-7.13457e-06
5.96288e-08
7.71682e-08
-1.52939e-07
7.3595e-06
-4.06227e-06
-6.2263e-08
-6.08366e-08
4.17014e-06
-2.72237e-06
-3.92658e-07
3.25485e-08
3.08248e-06
-2.87467e-06
5.93047e-07
5.39698e-08
2.22766e-06
-1.927e-07
-1.7207e-06
-6.60293e-06
1.772e-06
1.04491e-06
5.69943e-06
-2.8472e-07
-7.69528e-06
-8.23845e-07
-3.10737e-07
8.95395e-07
8.21919e-06
-5.63009e-06
4.48701e-07
-5.2678e-07
1.27839e-06
3.70123e-06
7.2855e-07
-4.47174e-07
-6.43744e-07
-7.09095e-06
1.95074e-06
4.19456e-07
5.81167e-06
3.93729e-06
1.63478e-06
7.97526e-05
-1.98595e-06
-2.57732e-06
-8.94969e-07
-1.47128e-06
-3.33741e-06
-3.48801e-06
-2.58485e-06
-2.4433e-06
-2.90733e-06
1.50054e-06
7.56629e-05
-1.86217e-06
-1.8342e-06
-7.44873e-07
-3.71133e-07
-1.28746e-06
7.0571e-07
6.91863e-05
-2.64074e-06
-2.46706e-06
-5.97325e-07
-2.37215e-07
-1.4099e-06
-1.29399e-06
-1.90529e-06
-1.15623e-05
-6.12093e-07
5.17654e-07
1.03693e-05
-2.90308e-06
-1.63157e-08
1.70701e-07
2.7487e-06
-5.63947e-07
-7.35085e-06
-1.39443e-08
2.31146e-06
-3.73754e-07
5.99104e-06
2.38237e-06
-7.70827e-07
7.61775e-05
-3.71916e-06
-3.5763e-06
-1.445e-06
-1.34989e-06
2.43912e-09
6.15069e-07
6.14964e-05
-7.21819e-07
-2.22019e-06
5.48107e-05
-7.45127e-07
-1.12388e-06
-6.32498e-07
-2.05839e-06
-4.53799e-07
-5.51624e-07
-6.06771e-06
3.19998e-07
7.5419e-07
-8.49675e-07
5.12138e-06
-7.1882e-06
-5.21674e-07
2.09502e-06
-6.75097e-09
5.10889e-06
5.12719e-07
1.15608e-06
-2.79659e-06
6.68624e-05
-3.2687e-06
-2.98546e-06
-1.40245e-06
-4.48509e-07
-1.66166e-06
-1.30445e-06
-2.89501e-07
-1.70003e-06
-1.00682e-06
5.43968e-05
-1.58919e-06
-1.03477e-07
-8.46316e-09
-1.48618e-06
-1.68063e-07
-9.27109e-07
-6.49237e-06
-7.97647e-07
-1.33247e-06
4.70226e-06
-4.0641e-06
9.13561e-07
-3.12837e-07
3.46338e-06
-6.35961e-06
-1.20393e-06
-1.11309e-07
4.87825e-06
-7.6685e-06
1.23348e-07
-1.00987e-07
1.40114e-07
6.4992e-06
-3.5457e-06
-9.69579e-08
5.14924e-07
3.12773e-06
-3.35391e-06
-5.42904e-07
-4.36203e-07
4.33301e-06
-1.77885e-06
7.15649e-07
1.05979e-07
9.57227e-07
2.71337e-07
-1.63091e-06
-4.76902e-06
1.99671e-06
-9.4544e-08
4.22642e-06
6.64519e-07
-8.98786e-06
-7.85145e-07
-9.03052e-07
-4.05687e-07
1.04172e-05
-2.59158e-06
1.04972e-06
-1.74474e-06
-7.37505e-07
2.33014e-06
1.69396e-06
-4.19269e-07
-6.56302e-07
-4.49482e-06
1.39628e-06
5.07408e-07
3.66671e-06
-6.46516e-07
-3.03206e-07
7.87675e-05
2.91131e-07
-3.32959e-07
1.19392e-06
1.18339e-06
-8.65384e-07
-7.39814e-07
4.47051e-07
7.57506e-07
1.24044e-06
5.1132e-07
6.83373e-05
1.07184e-07
9.10017e-07
1.87721e-06
2.03289e-06
-9.06711e-08
1.5029e-06
6.0659e-05
7.59214e-07
5.43436e-07
2.09853e-06
1.93727e-06
-2.3439e-07
1.15801e-06
2.0935e-06
-7.76928e-06
-3.75723e-07
6.88055e-07
7.36627e-06
-2.72469e-06
-8.41768e-08
-2.06036e-07
3.0149e-06
-1.3474e-07
-5.83264e-06
1.95001e-07
2.16606e-07
-9.3037e-07
6.48614e-06
1.11778e-06
1.43777e-06
7.30028e-05
-3.09445e-07
-2.58122e-07
3.90461e-07
4.93017e-07
1.21331e-06
4.11832e-06
5.77939e-05
-1.98052e-07
6.75698e-07
5.09289e-05
-2.01494e-07
2.02504e-06
9.14576e-07
6.31059e-07
1.51304e-06
1.23816e-06
-5.1435e-06
-9.17568e-08
2.83076e-07
-4.1638e-07
5.17051e-06
-3.16854e-06
-2.12415e-07
2.78596e-07
1.93038e-07
1.96147e-06
9.47845e-07
5.17555e-07
4.20734e-07
6.21011e-05
3.84864e-07
8.65766e-08
8.51596e-07
4.82342e-08
1.0977e-06
1.2074e-06
1.58434e-06
4.46764e-07
1.3013e-06
4.98117e-05
7.43778e-07
1.01494e-06
1.07292e-06
7.46084e-07
1.85476e-06
2.04034e-06
-4.77693e-06
-6.56783e-08
6.15005e-07
5.35006e-06
-2.50447e-06
-6.793e-08
5.46839e-07
2.02556e-06
-4.32557e-06
-8.57944e-07
2.99909e-07
5.30434e-06
-6.28849e-06
1.87778e-07
-4.47276e-07
5.67518e-07
7.28177e-06
-2.84079e-06
-5.67574e-07
2.97543e-07
3.11082e-06
-5.76645e-06
-2.36899e-07
-1.22476e-06
7.22811e-06
-4.13023e-07
2.68896e-07
1.41058e-07
3.06838e-09
7.19676e-07
-8.99752e-07
-4.05321e-06
1.24615e-06
-1.14362e-06
4.13076e-06
1.99036e-06
-1.19796e-05
-4.37952e-07
-8.34918e-07
-2.0813e-06
1.33435e-05
-3.32039e-06
1.52802e-06
-1.33805e-06
-1.88246e-06
3.50944e-06
1.50343e-06
4.31653e-08
9.38164e-08
-3.47325e-06
-3.74107e-07
3.86516e-07
3.32386e-06
-1.33286e-06
-1.07987e-06
7.32087e-05
1.23636e-06
1.15584e-06
1.32725e-06
1.40938e-06
6.48368e-07
6.67304e-07
6.88867e-07
8.38201e-07
-7.73999e-07
-7.50424e-08
6.12513e-05
1.46826e-06
1.65871e-06
1.64785e-06
1.8274e-06
6.86599e-07
1.27743e-06
5.10984e-05
1.83485e-06
7.47198e-07
2.03334e-06
9.01332e-07
5.9991e-07
3.18984e-07
3.86876e-07
-6.43567e-06
-4.37974e-07
1.94888e-06
3.28212e-07
5.28315e-06
1.07721e-08
-3.61685e-07
5.94216e-07
-2.43302e-07
-3.4062e-06
-5.95822e-07
2.82113e-07
3.71991e-06
-1.39951e-07
-7.41404e-06
-4.41106e-07
-3.30337e-07
2.05835e-07
8.11959e-06
2.31824e-07
7.04783e-07
6.99496e-05
3.06755e-07
1.26476e-07
4.06543e-07
1.97032e-07
-1.17108e-06
3.9379e-06
5.51838e-05
5.80418e-07
1.45565e-06
4.47165e-05
4.22058e-07
1.70025e-07
-2.89322e-07
1.37991e-06
1.53376e-06
1.0662e-06
-5.714e-06
-6.60906e-07
2.22866e-06
9.55598e-07
3.77107e-06
-2.48533e-07
-2.21602e-06
-4.00364e-07
-4.67169e-07
3.3321e-06
-1.42259e-06
-4.80846e-07
5.28733e-07
4.06602e-07
1.39003e-06
-4.21933e-07
-9.74775e-07
1.31445e-06
5.76142e-05
1.36541e-07
4.23021e-07
-2.53826e-07
6.35348e-07
1.388e-06
1.17518e-06
1.34779e-06
1.86548e-08
1.73832e-06
4.54168e-05
2.91549e-07
-2.35006e-07
-1.66859e-07
2.07488e-06
1.70351e-06
1.93301e-06
-6.54093e-06
-4.18107e-07
1.39254e-06
7.04081e-06
-2.23786e-06
-8.97323e-07
1.06258e-06
2.0726e-06
-6.67535e-06
5.458e-07
-5.15536e-07
7.95954e-06
-8.71039e-06
3.04491e-07
-6.91563e-07
9.54362e-07
9.88142e-06
-3.78046e-06
-8.20451e-07
-1.65955e-07
4.76686e-06
-8.19811e-06
-1.78658e-07
-1.35475e-07
8.51224e-06
2.52486e-07
1.88722e-07
5.94918e-08
-5.007e-07
1.14403e-06
-2.11466e-07
-4.40753e-06
4.08652e-07
-1.73981e-06
4.80613e-06
4.40614e-07
-1.45301e-05
-6.68202e-07
2.84303e-07
-9.64523e-07
1.54379e-05
-3.67886e-06
1.37535e-06
-7.66791e-07
-1.8263e-06
4.46366e-06
4.32944e-07
6.36798e-08
7.51943e-07
-3.24715e-06
-1.22013e-06
1.75752e-07
3.4759e-06
-9.44271e-07
-9.94663e-07
6.72633e-05
1.38602e-06
1.07066e-06
1.4667e-06
1.5098e-06
7.35938e-07
2.1487e-07
9.47087e-07
5.53197e-07
-2.66594e-06
5.08809e-07
5.85911e-05
7.75839e-07
1.2785e-06
5.99524e-07
1.21923e-06
-2.1271e-07
2.2757e-06
4.13428e-05
1.71847e-06
6.94579e-07
1.66467e-06
7.68417e-07
1.70661e-07
-1.818e-07
1.91658e-07
-4.27259e-06
4.14417e-07
3.3433e-07
5.9319e-07
2.71794e-06
-3.05664e-07
-2.50894e-07
3.33739e-07
-8.19364e-07
-7.58482e-08
1.11803e-06
-3.98193e-06
-5.15965e-07
2.96467e-07
4.20142e-06
6.74332e-08
-8.19402e-06
-8.24342e-07
-1.74138e-07
1.37289e-06
7.75218e-06
8.98698e-08
2.7372e-07
6.91837e-05
-2.03299e-07
-3.20121e-07
2.9258e-08
-9.82234e-08
-2.58901e-06
3.82165e-06
5.45499e-05
-2.21741e-07
1.48341e-06
4.06706e-05
-9.35864e-07
-3.6268e-07
-8.81472e-07
1.452e-06
1.84029e-06
1.35862e-06
-3.71884e-06
-6.1941e-07
4.03662e-07
2.09213e-07
3.50364e-06
-3.93363e-06
-1.07423e-07
-7.73102e-07
9.14097e-08
4.01349e-07
4.3214e-06
-1.58276e-06
-5.6952e-07
9.53619e-07
5.60037e-07
1.94647e-06
-1.30785e-06
-2.06901e-06
5.24658e-07
5.74156e-05
-4.78974e-07
4.3729e-07
1.42771e-08
4.03981e-07
8.84842e-07
2.61606e-08
7.29027e-07
-9.41877e-07
1.26704e-06
4.57789e-05
-7.84602e-07
-7.2936e-07
-9.10632e-07
1.30194e-06
1.18723e-06
1.00081e-06
-7.7649e-06
-9.35609e-07
1.22628e-06
8.01576e-06
-1.41133e-06
-1.03378e-06
1.43538e-06
-6.54152e-07
1.66387e-06
-6.04525e-08
5.41544e-07
-3.29226e-07
-1.51865e-07
-9.13389e-06
4.73463e-07
-5.48821e-07
9.73391e-06
-1.08548e-05
4.55929e-07
-9.09349e-07
1.03975e-06
1.15355e-05
-5.52948e-06
-3.83673e-07
1.68896e-07
5.74426e-06
-8.34343e-06
-3.12943e-07
8.61979e-07
7.79439e-06
7.1285e-07
2.78441e-07
-1.52022e-07
-8.39268e-07
8.9667e-07
1.292e-07
-5.23355e-06
3.22968e-07
-1.56069e-06
5.44541e-06
-9.52971e-07
-1.62092e-05
-9.44549e-07
6.7115e-07
3.85446e-07
1.70501e-05
-5.28778e-06
-1.83353e-07
3.20491e-07
-3.13566e-07
5.96539e-06
-5.01175e-07
2.68886e-08
6.69447e-07
-3.93603e-06
-1.32595e-06
1.68739e-07
4.3969e-06
2.47936e-06
1.53404e-06
5.66042e-05
1.03312e-06
1.0411e-06
9.53953e-07
1.45736e-06
5.61769e-07
3.80996e-07
4.99114e-07
7.18306e-07
-8.2759e-07
2.49078e-06
5.76856e-05
-2.13959e-07
6.00017e-07
3.74093e-07
9.61515e-07
-2.23353e-07
7.12044e-06
3.35307e-05
3.05033e-07
-3.30108e-08
-1.3004e-07
-9.51797e-08
1.71955e-07
-3.16631e-07
1.85298e-07
-2.56776e-06
1.05127e-07
-4.38288e-07
-1.42419e-07
2.81999e-06
-1.36259e-06
4.92129e-07
2.21789e-07
-4.87941e-08
-4.75551e-07
1.17302e-06
-4.39171e-06
-2.39993e-07
1.55487e-07
4.47621e-06
-5.28115e-08
-7.18976e-06
-7.56782e-07
-1.66868e-07
1.36773e-06
6.79849e-06
1.29177e-06
7.71239e-07
6.9196e-05
-3.17641e-07
-3.94713e-07
8.98286e-08
8.12582e-08
-1.89858e-06
3.89169e-06
5.63393e-05
-3.74353e-07
2.01981e-06
3.91308e-05
-5.54406e-07
-2.61331e-07
-3.67091e-07
1.78942e-06
2.59924e-06
1.91042e-06
-3.28176e-06
2.59683e-07
-4.03023e-07
-2.04681e-07
3.25543e-06
-4.30209e-06
1.28952e-07
-1.20277e-07
-2.05851e-08
4.24866e-07
3.88914e-06
-2.49927e-06
-4.12899e-07
2.81445e-07
8.6719e-07
2.99095e-06
-1.22741e-06
-6.28202e-07
-5.25035e-08
5.82943e-05
-1.85272e-07
-1.79123e-07
1.92411e-07
-2.01346e-07
3.83223e-07
2.91021e-07
2.72363e-07
-8.01868e-07
8.19814e-07
4.92838e-05
-1.09161e-06
-4.08642e-07
-1.05286e-06
7.10226e-07
7.52114e-07
8.31461e-07
-8.73472e-06
-4.69592e-07
1.22719e-06
9.19507e-06
-1.57345e-06
-3.19285e-09
1.00322e-06
-9.4773e-07
1.52116e-06
4.11453e-07
-4.42178e-07
6.14415e-07
-1.66804e-07
-4.16885e-07
-9.66542e-06
-3.24159e-07
5.07797e-07
9.42928e-06
-1.25258e-05
2.53006e-07
-1.43435e-06
8.19308e-07
1.37077e-05
-5.5937e-06
-8.03599e-07
1.09266e-06
5.30464e-06
-7.12254e-06
-3.94394e-07
7.34932e-07
6.78201e-06
9.0548e-07
3.50916e-07
-3.52975e-07
-9.03421e-07
6.62044e-07
2.06666e-07
-5.58526e-06
-1.62498e-09
-1.03683e-06
5.75501e-06
-4.04942e-07
-1.80304e-05
-5.33733e-07
5.41748e-07
-2.89041e-07
1.87164e-05
-6.28779e-06
-6.62769e-07
3.07754e-07
9.04833e-07
6.4468e-06
-7.08822e-07
1.97064e-07
1.17564e-07
-4.74908e-06
-4.47221e-07
-5.17021e-08
4.93337e-06
2.32134e-06
5.82175e-06
4.36453e-05
4.57801e-07
9.14635e-07
2.42786e-07
1.20632e-06
3.9551e-07
6.81328e-07
8.66157e-08
8.30768e-07
7.93099e-07
5.26083e-06
5.22409e-05
5.21859e-08
4.20863e-07
6.59054e-07
5.8003e-07
-6.21602e-07
9.19797e-06
3.05344e-05
-1.11408e-06
-3.99658e-07
-1.37878e-06
-4.38916e-07
1.75345e-08
-1.16838e-06
-3.04681e-07
-4.15082e-06
1.56126e-06
-9.74139e-07
-9.59812e-07
3.90191e-06
-1.35156e-07
-2.36724e-09
6.40314e-07
-5.04974e-07
2.18807e-09
-4.34867e-06
8.59989e-08
2.74307e-07
3.98837e-06
-5.71118e-07
-6.76973e-06
-2.54101e-07
2.98875e-07
6.15978e-07
6.68009e-06
3.73513e-06
5.29994e-06
6.73629e-05
-4.7289e-07
-4.56215e-07
-2.86761e-07
-1.64408e-07
-4.04311e-07
5.91453e-06
5.98251e-05
-1.78687e-07
2.38681e-06
3.99569e-05
-1.26973e-07
-3.82283e-07
-5.22439e-07
2.10266e-06
2.75014e-06
1.93833e-06
-3.23282e-06
6.08164e-07
-4.32914e-07
-2.12022e-07
3.0909e-06
-2.92224e-06
1.59907e-10
1.96251e-08
6.46605e-07
6.22802e-07
1.63304e-06
-3.18047e-06
-3.75744e-07
1.93124e-07
8.89791e-07
3.15201e-06
-6.78706e-07
1.78583e-06
9.00637e-07
6.08215e-05
-2.93998e-07
-5.55922e-07
-2.36049e-08
-3.55031e-07
1.48394e-07
1.15336e-06
1.31109e-08
-3.04606e-07
6.0301e-07
5.52843e-05
-8.87133e-07
1.2599e-07
-5.73804e-07
9.26912e-07
6.70158e-07
1.13926e-06
-1.00901e-05
1.3172e-07
1.40626e-06
1.06343e-05
-1.63142e-06
-3.50566e-07
-4.06352e-07
2.38834e-06
-9.37075e-06
-4.30153e-07
8.42376e-07
9.85916e-06
-1.52207e-05
2.43774e-07
-1.5905e-06
4.6383e-07
1.67066e-05
-5.21842e-06
-1.24232e-06
1.24832e-06
5.21243e-06
-6.76193e-06
-2.0225e-07
1.37415e-08
6.95043e-06
7.93165e-07
3.18603e-08
-2.26629e-07
-5.98396e-07
6.25048e-07
3.84895e-07
-5.9608e-06
-5.57906e-07
-2.92024e-07
5.80079e-06
5.12386e-07
-1.91432e-05
5.34659e-08
3.14102e-07
-9.65108e-07
1.92284e-05
-6.60273e-06
-9.83988e-07
-1.258e-07
1.54172e-06
6.64807e-06
-4.77275e-07
4.42578e-07
-4.81536e-07
-5.03978e-06
6.42633e-07
-4.87618e-07
4.92372e-06
1.0639e-06
9.19571e-06
3.39162e-05
-4.09653e-07
2.00231e-07
-6.94789e-07
-3.01607e-07
-1.00633e-07
6.45213e-07
-3.16802e-07
4.47578e-07
2.01158e-06
7.94976e-06
4.64942e-05
2.15056e-08
-9.40973e-07
-4.19134e-07
-1.81217e-06
-1.33354e-06
8.73155e-06
3.17509e-05
-1.98168e-06
-4.04025e-07
-1.88935e-06
-1.91956e-07
-9.1618e-07
-9.24848e-07
-2.94865e-07
-4.62065e-06
1.07473e-06
-1.84819e-06
4.06057e-06
-3.54347e-06
1.99923e-07
2.10305e-07
3.13324e-06
-7.92183e-07
-6.40332e-06
1.22212e-07
7.63815e-07
4.12694e-07
5.89678e-06
3.8687e-06
1.05533e-05
6.34107e-05
-5.79592e-07
-2.76524e-07
-4.8019e-07
6.23079e-08
1.04204e-06
8.95952e-06
6.1642e-05
-6.33932e-07
2.23273e-06
4.19028e-05
-1.28215e-07
-3.74068e-08
2.70927e-07
1.6986e-06
2.70049e-06
1.72443e-06
-4.38346e-06
9.18921e-07
-1.05094e-06
-6.07048e-07
4.4886e-06
-3.10243e-06
-3.24967e-07
7.23284e-08
6.77596e-07
3.1868e-06
-5.09329e-07
2.12439e-06
1.66959e-06
6.47301e-05
-8.28723e-08
-1.10819e-07
2.04278e-07
1.43529e-07
2.34012e-07
1.91546e-06
5.47106e-07
1.04678e-07
5.99081e-07
6.16477e-05
-4.62545e-08
6.19076e-07
3.35806e-07
1.30245e-06
4.87744e-07
1.318e-06
-1.17686e-05
3.63216e-07
1.53026e-06
1.22125e-05
-2.80026e-06
8.3153e-07
-6.66763e-07
2.63549e-06
-1.03792e-05
1.70393e-07
6.53764e-07
1.12246e-05
-1.8175e-05
8.36174e-08
-1.05199e-06
2.12252e-07
1.95302e-05
-5.40739e-06
-1.04764e-06
7.34527e-07
5.72051e-06
-7.2782e-06
1.41498e-07
-3.4004e-07
7.47674e-06
3.39908e-07
-4.6056e-07
1.28867e-07
-8.21524e-09
4.41325e-08
8.3085e-07
-5.46506e-06
-1.31794e-06
8.98484e-07
5.00953e-06
4.56365e-07
-1.86557e-05
1.35449e-06
-3.50901e-07
3.98091e-07
1.67977e-05
-6.7321e-06
-7.46357e-07
-6.79821e-07
1.47335e-06
7.10113e-06
-4.16197e-07
3.95451e-07
-7.77847e-07
-4.71765e-06
1.36674e-06
-4.20883e-07
4.15419e-06
1.7041e-06
1.187e-05
2.9727e-05
-1.43839e-06
-1.60904e-06
-1.66776e-06
-1.96401e-06
-8.75739e-07
-2.51276e-07
-1.17711e-06
-4.016e-07
2.96137e-06
1.01731e-05
4.4843e-05
-1.96243e-06
-2.79255e-06
-2.4774e-06
-2.54678e-06
-6.78105e-07
6.79762e-06
3.30491e-05
-1.95073e-06
-3.90399e-08
-1.61498e-06
6.08308e-08
-1.62992e-07
-5.85913e-07
-1.635e-07
-3.71257e-06
1.41188e-06
-1.94699e-06
3.56956e-06
-2.61275e-06
1.12387e-07
5.02217e-07
1.99814e-06
-9.6895e-07
-5.36924e-06
4.21838e-08
1.0983e-06
2.31003e-07
4.9667e-06
2.86454e-06
1.3972e-05
5.92871e-05
-6.7201e-07
-4.85228e-08
-4.24966e-07
3.02555e-07
2.15514e-06
1.11702e-05
6.13543e-05
2.39165e-07
1.86215e-06
4.35029e-05
4.66431e-07
2.17377e-07
3.98152e-07
1.05989e-06
2.213e-06
8.96484e-07
-4.35609e-06
1.14716e-06
5.16363e-07
-1.54469e-06
4.47643e-06
-3.31838e-06
-2.916e-07
-9.83392e-08
3.80733e-07
3.52447e-06
-1.96879e-07
1.51597e-06
2.30482e-06
6.81294e-05
2.10848e-07
4.62729e-07
4.99478e-07
6.63576e-07
1.0055e-06
2.49678e-06
1.41304e-06
4.86737e-07
4.03067e-07
6.75618e-05
6.02918e-07
1.10499e-06
7.71876e-07
1.37997e-06
5.60855e-07
1.46157e-06
-1.34016e-05
6.8454e-07
1.35356e-06
1.37124e-05
-2.76696e-06
1.09858e-06
-1.11592e-06
2.7843e-06
-1.19734e-05
5.69078e-07
7.81667e-07
1.29275e-05
-2.0859e-05
-1.87072e-07
-4.86554e-07
-1.38005e-07
2.20737e-05
-6.17222e-06
-6.89395e-07
1.88523e-07
6.67309e-06
-7.52558e-06
9.47144e-07
-1.16987e-06
7.74831e-06
-3.34986e-07
-8.00317e-07
5.53394e-07
5.81908e-07
-1.14882e-06
9.99192e-07
-4.65644e-06
-1.55106e-06
1.91081e-06
4.44631e-06
-7.21879e-07
-1.39494e-05
1.7491e-06
-7.66138e-07
3.11623e-06
1.05721e-05
-7.46943e-06
1.7942e-07
-1.32191e-06
6.90788e-07
7.4872e-06
4.33933e-07
3.4697e-07
-1.27794e-06
-3.38479e-06
2.11333e-06
-4.6783e-07
2.67026e-06
2.59096e-06
1.31248e-05
3.01424e-05
-2.09974e-06
-2.87641e-06
-2.16454e-06
-3.06222e-06
-1.75894e-06
-1.13304e-06
-1.81509e-06
-1.22122e-06
2.80227e-06
1.11399e-05
4.53554e-05
-3.38351e-06
-2.81575e-06
-3.25925e-06
-2.40509e-06
-5.10073e-07
1.37989e-06
3.68269e-05
-1.2526e-06
5.22667e-07
-7.79373e-07
5.98403e-07
-2.25896e-07
-4.77836e-07
-2.30713e-07
-3.49795e-06
1.39407e-06
-1.86107e-06
3.45487e-06
-1.42682e-06
-6.95185e-08
5.95334e-07
9.01002e-07
-8.97008e-07
-4.86063e-06
8.24848e-08
9.33569e-07
-2.73357e-07
5.01495e-06
2.65996e-06
1.46603e-05
5.59507e-05
-6.81587e-07
-4.08079e-08
-3.62401e-07
2.25682e-07
2.37762e-06
1.2316e-05
6.04606e-05
2.30692e-07
9.31451e-07
4.42491e-05
3.90497e-07
9.18048e-08
2.73923e-07
-7.63797e-09
1.3187e-06
-2.18065e-07
-4.64656e-06
1.31581e-06
5.95315e-07
-1.95951e-06
4.92563e-06
-3.67568e-06
-2.31444e-07
-2.15739e-07
-6.65169e-08
3.8837e-06
3.05679e-07
2.01089e-06
2.57423e-06
7.01414e-05
3.84904e-07
8.15422e-07
7.28978e-07
9.55038e-07
1.36919e-06
2.50593e-06
1.30376e-06
8.86887e-07
7.04023e-07
7.22648e-05
9.78409e-07
1.41108e-06
1.14493e-06
1.62343e-06
1.08871e-06
1.78638e-06
-1.50187e-05
6.77518e-07
1.05571e-06
1.51038e-05
-2.67455e-06
1.43886e-06
-1.12324e-06
2.35893e-06
-1.39665e-05
8.13121e-07
5.34578e-07
1.51931e-05
-2.32442e-05
2.08277e-07
-6.29744e-07
1.84198e-07
2.41855e-05
-7.26787e-06
-5.80805e-07
-4.69192e-10
7.84914e-06
-8.0108e-06
1.09977e-06
-1.1224e-06
8.03342e-06
-6.43376e-07
-7.88435e-07
8.85917e-07
5.45894e-07
-2.24798e-06
8.28381e-07
-4.49229e-06
-1.16085e-06
2.30423e-06
4.76851e-06
-2.12138e-06
-7.78489e-06
9.94328e-07
-6.20765e-07
3.5398e-06
5.99291e-06
-7.2799e-06
5.187e-07
-1.44446e-06
1.25383e-08
7.17836e-06
1.01477e-06
-9.32775e-08
-1.20176e-06
-2.34566e-06
2.00659e-06
-6.38253e-07
2.27237e-06
2.49368e-06
1.26212e-05
3.30284e-05
-2.30927e-06
-3.67072e-06
-2.24636e-06
-3.59945e-06
-1.92025e-06
-1.45549e-06
-1.7655e-06
-1.03385e-06
1.46482e-06
1.08251e-05
4.74279e-05
-3.62714e-06
-2.62707e-06
-3.33437e-06
-2.28015e-06
-4.30851e-07
-5.2645e-06
4.16481e-05
-2.82879e-08
1.32466e-06
6.49376e-07
1.34488e-06
-2.80709e-07
-3.87429e-07
-2.83475e-07
-3.36206e-06
1.19561e-06
-1.42091e-06
3.15651e-06
-4.16549e-07
1.67369e-08
3.6369e-07
3.61218e-08
-6.65106e-07
-5.36331e-06
8.76854e-07
4.68171e-07
-1.20305e-06
5.88643e-06
2.59813e-06
1.29206e-05
5.37345e-05
-5.15897e-07
-1.35474e-07
-1.61138e-07
1.31157e-07
1.64947e-06
1.11915e-05
6.10428e-05
5.5913e-08
1.95605e-07
4.27672e-05
1.25921e-07
1.3234e-08
-9.56942e-08
-1.34307e-06
7.10275e-07
-1.79535e-06
-5.19253e-06
1.02337e-06
2.91035e-07
-1.57783e-06
5.51186e-06
-4.0256e-06
8.94323e-08
-5.16085e-07
-8.92604e-07
4.19069e-06
1.15417e-06
2.49001e-06
2.06907e-06
7.16514e-05
6.1654e-07
1.08222e-06
1.12596e-06
1.26526e-06
6.73103e-07
1.62554e-06
4.62865e-07
8.80196e-07
9.82412e-07
7.54174e-05
1.3713e-06
1.39567e-06
1.50829e-06
1.63013e-06
1.17585e-06
1.58508e-06
-1.61219e-05
6.0728e-07
9.62912e-07
1.56275e-05
-2.01185e-06
1.42082e-06
-1.10146e-06
1.69248e-06
-1.6446e-05
1.15575e-06
-2.441e-07
1.76034e-05
-2.5155e-05
6.30695e-07
-8.19243e-07
6.35356e-07
2.56906e-05
-8.43318e-06
-5.12182e-07
-1.24238e-07
9.0696e-06
-7.8688e-06
3.65559e-07
6.15289e-07
6.88795e-06
-3.47065e-07
-5.37056e-07
7.22792e-07
1.61329e-07
-1.68928e-06
5.51206e-07
-5.03584e-06
-9.42398e-07
1.93993e-06
5.17639e-06
-3.11067e-06
-5.0929e-06
6.26889e-07
-6.60954e-07
3.50346e-06
4.73418e-06
-7.2766e-06
3.05988e-07
-1.25079e-06
-4.88916e-07
7.45544e-06
1.25487e-06
2.19598e-07
-8.23578e-07
-2.49569e-06
1.44137e-06
-1.42478e-06
3.08309e-06
1.66914e-06
9.10446e-06
3.69831e-05
-2.08721e-06
-3.61982e-06
-1.97451e-06
-3.19499e-06
-1.47657e-06
-8.30094e-07
-1.21902e-06
-3.26061e-07
-4.56675e-07
8.60457e-06
5.10492e-05
-3.34199e-06
-2.1916e-06
-2.9147e-06
-1.65176e-06
-3.27663e-07
-1.01375e-05
4.62595e-05
1.14145e-06
1.78857e-06
1.67358e-06
1.77872e-06
-3.71039e-07
-2.30863e-07
-3.83393e-07
-2.97438e-06
9.3434e-07
-1.22279e-06
2.93516e-06
1.99654e-07
2.65352e-07
-1.53661e-07
-3.11345e-07
-1.34481e-07
-6.36658e-06
2.12008e-06
-1.47485e-07
-2.38402e-06
6.91249e-06
1.78408e-06
6.3972e-06
5.4234e-05
-1.49381e-07
-2.94364e-09
1.79319e-07
3.96736e-07
5.81437e-07
7.33242e-06
6.35176e-05
4.44374e-08
-4.2974e-07
4.06758e-05
-1.81676e-07
2.49134e-08
-3.04467e-07
-2.74121e-06
-9.94778e-07
-2.88212e-06
-5.70686e-06
6.63604e-07
1.74984e-07
-7.66617e-07
5.67932e-06
-4.30488e-06
6.09809e-07
-1.2848e-06
-1.9413e-06
4.54509e-06
2.37608e-06
-1.50677e-07
7.1198e-07
7.12383e-05
1.52547e-06
1.7371e-06
2.11358e-06
1.95745e-06
-5.71366e-07
2.00471e-07
-7.13723e-07
6.11176e-07
7.40361e-07
7.5214e-05
1.11884e-06
9.49099e-07
9.21353e-07
1.13182e-06
8.22463e-07
1.09e-06
-1.59972e-05
7.2729e-07
6.83456e-07
1.47679e-05
-1.54276e-06
1.00366e-06
-9.79413e-07
1.51851e-06
-1.87937e-05
1.67883e-06
-1.68151e-06
1.95084e-05
-2.60644e-05
1.15458e-06
-9.61928e-07
8.16877e-07
2.57952e-05
-9.8477e-06
-5.45637e-07
-4.77625e-09
1.03981e-05
-4.40459e-06
-1.2963e-07
2.59212e-06
1.9421e-06
-1.01462e-07
-1.13624e-07
-3.13452e-08
2.46432e-07
-7.58215e-07
2.05611e-07
-5.1616e-06
-7.67853e-07
1.37953e-06
5.10253e-06
-2.42846e-06
-4.74627e-06
9.63806e-07
-1.2716e-06
2.54695e-06
4.93557e-06
-7.59168e-06
3.91573e-07
-1.19382e-06
-8.11317e-07
7.63158e-06
1.57367e-06
1.36195e-06
-2.65996e-07
-3.81981e-06
6.06576e-07
-2.60153e-06
4.71881e-06
4.97089e-07
-1.93588e-07
4.45069e-05
-1.31401e-06
-2.54971e-06
-1.12016e-06
-2.06137e-06
-6.0351e-07
-6.39835e-08
-3.97189e-07
2.82694e-07
-1.74482e-06
1.18302e-06
5.7175e-05
-2.15988e-06
-1.01136e-06
-1.47783e-06
-4.17869e-07
8.91075e-10
-1.1594e-05
4.94259e-05
1.64224e-06
1.78586e-06
2.03401e-06
1.73945e-06
-3.37573e-07
9.86591e-08
-2.80717e-07
-3.05e-06
3.91381e-07
-6.72118e-07
3.33163e-06
3.34074e-07
2.48536e-07
-3.06508e-07
-2.76101e-07
3.70274e-07
-7.42133e-06
3.00095e-06
-8.18797e-07
-3.16839e-06
8.03729e-06
-1.41443e-06
-5.90187e-06
5.84997e-05
4.95775e-07
6.01042e-07
8.28514e-07
9.31623e-07
-1.05617e-06
-2.80558e-06
6.7148e-05
4.96281e-08
-3.52772e-06
4.1519e-05
-2.56387e-07
-4.06816e-08
-3.24638e-07
-2.91815e-06
-3.95776e-06
-2.51766e-06
-5.39394e-06
4.22081e-07
2.17165e-07
-1.85794e-07
4.99012e-06
-4.80932e-06
8.06662e-07
-1.85463e-06
-2.60087e-06
5.24867e-06
3.20949e-06
-6.03954e-06
-1.18816e-06
6.9322e-05
2.18404e-06
2.31851e-06
2.35992e-06
2.27638e-06
-2.0368e-06
-1.72542e-06
-2.13453e-06
-3.74901e-07
-4.25694e-07
6.87749e-05
-1.82418e-09
-5.96638e-08
-3.83529e-08
2.1217e-08
-7.89568e-07
-7.37227e-07
-1.41565e-05
4.78485e-07
-1.6564e-06
1.14317e-05
-1.60855e-06
4.64047e-07
-5.8316e-07
1.72766e-06
-1.98509e-05
1.9969e-06
-2.21948e-06
1.88853e-05
-2.56267e-05
1.16261e-06
-5.58438e-07
2.30208e-07
2.43667e-05
-1.05509e-05
8.09622e-07
-5.15156e-07
1.02565e-05
-9.08123e-07
-2.43899e-07
5.58882e-07
5.93139e-07
-5.66374e-07
2.17828e-07
-6.38632e-07
9.87177e-07
-6.37674e-08
4.13109e-08
-5.0806e-06
-7.58638e-07
6.27611e-07
5.23408e-06
-9.16438e-07
-5.03811e-06
1.44299e-06
-1.80567e-06
9.72945e-07
5.34428e-06
-7.59453e-06
5.48637e-07
-1.04076e-06
-1.04712e-06
7.48515e-06
1.64862e-06
1.95203e-06
2.41156e-07
-5.45674e-06
-1.01406e-07
-2.86322e-06
6.22818e-06
-8.50117e-07
-8.98469e-06
5.36283e-05
-9.55557e-08
-9.45835e-07
1.3387e-07
-1.89248e-07
2.31362e-07
4.27885e-07
4.07927e-07
7.42962e-07
-1.70005e-06
-5.59438e-06
6.27589e-05
-4.7137e-07
2.47686e-07
3.05822e-07
7.78272e-07
3.59085e-07
-1.00008e-05
5.05617e-05
1.59094e-06
1.50886e-06
1.88e-06
1.49033e-06
-3.60895e-08
3.63774e-07
8.01695e-09
-3.50998e-06
4.08842e-08
1.00201e-07
3.72798e-06
1.61505e-07
1.0198e-07
-2.59933e-07
-3.55247e-09
6.81801e-07
-8.64142e-06
3.0028e-06
-1.21795e-06
-3.041e-06
9.21577e-06
-2.54147e-06
-1.47062e-05
6.22627e-05
9.72131e-07
9.20943e-07
1.37547e-06
1.2314e-06
-7.6609e-07
-9.24179e-06
6.902e-05
-3.98867e-08
-4.01369e-06
4.26022e-05
-3.00176e-07
-7.26476e-08
-3.45035e-07
-2.04879e-06
-3.26809e-06
-1.76168e-06
-4.54366e-06
6.80302e-08
2.93403e-08
2.13124e-07
4.19328e-06
-5.71907e-06
4.28839e-07
-1.53019e-06
-2.2803e-06
6.11673e-06
2.98399e-06
-6.7403e-06
-2.42029e-06
6.42606e-05
1.6337e-06
1.78424e-06
1.81267e-06
1.36336e-06
-2.53138e-06
-2.41746e-06
-2.12921e-06
-6.56226e-07
-1.43359e-06
6.07267e-05
-6.69604e-07
-2.59731e-07