/*--------------------------------*- C++ -*----------------------------------*\
| =========                 |                                                 |
| \\      /  F ield         | OpenFOAM: The Open Source CFD Toolbox           |
|  \\    /   O peration     | Version:  5.x                                   |
|   \\  /    A nd           | Web:      www.OpenFOAM.org                      |
|    \\/     M anipulation  |                                                 |
\*---------------------------------------------------------------------------*/
FoamFile
{
    version     2.0;
    format      ascii;
    class       volVectorField;
    location    "9";
    object      U;
}
// * * * * * * * * * * * * * * * * * * * * * * * * * * * * * * * * * * * * * //

dimensions      [0 1 -1 0 0 0 0];

internalField   nonuniform List<vector> 
10571
(
(0.0516175 0.17452 0.82143)
(-0.0100185 0.0390728 0.801519)
(0.00945553 0.0813021 1.0101)
(0.148287 0.19235 1.1545)
(0.10783 0.12689 0.779338)
(-0.00311408 0.0383438 1.13701)
(0.205634 0.161245 1.07811)
(0.248495 0.210331 1.26074)
(0.209691 0.207896 1.67523)
(-0.0424423 -0.0185701 1.14929)
(0.167408 0.0745201 1.35839)
(0.0447883 0.0796569 1.15463)
(0.180001 -0.0181996 1.22225)
(0.113519 -0.0455156 1.01725)
(0.129656 -0.104772 1.20115)
(0.147663 -0.0496248 1.06519)
(0.02699 0.107796 1.09046)
(0.1133 0.0126178 1.21409)
(0.0882064 -0.0389616 1.23353)
(0.10065 -0.0220274 1.07117)
(0.0169777 -0.0469886 0.897139)
(0.00155985 -0.0319245 1.06273)
(0.0327949 0.0557258 1.03789)
(0.0222815 -0.0347336 0.761834)
(-0.0177632 -0.00494769 0.763319)
(-0.0151253 0.000621703 0.737946)
(-0.0235254 0.0193505 0.764501)
(-0.00470466 0.00745328 0.747943)
(0.015678 -0.0228794 0.666579)
(0.0266683 -0.00738855 0.858991)
(0.0403466 0.113132 0.575525)
(-0.0309396 0.131144 0.543735)
(-0.0425031 0.0827993 0.520347)
(-0.150248 0.0395555 0.924531)
(0.022016 0.0115881 1.02091)
(0.0486631 0.0109842 0.796966)
(0.0993525 0.0378569 0.571479)
(-0.0381956 0.0415457 0.530919)
(-0.102608 -0.00363672 0.530423)
(-0.10778 0.00968144 0.693528)
(0.0428546 0.043489 0.840063)
(0.0554748 -0.0717235 0.607801)
(-0.0718045 -0.0812365 0.594296)
(-0.136315 -0.0827878 0.708369)
(-0.00732366 0.015949 0.754241)
(-0.0169072 -0.168972 0.875864)
(0.0045583 -0.136603 0.787194)
(-0.000899837 0.00517843 0.748027)
(-0.0086221 -0.000166991 0.521741)
(-0.00768878 0.00146921 0.672726)
(-0.0078804 0.0124598 0.450088)
(-0.0135301 0.0198883 0.458493)
(0.00444316 0.00531365 0.353119)
(0.00605913 0.00243303 0.621346)
(0.0213807 0.0428275 1.26309)
(-0.0175215 0.047628 1.25041)
(-0.0407861 0.0296388 1.27015)
(-0.0122487 0.00374754 0.620419)
(0.000996473 0.00175411 0.842152)
(0.017723 0.00763516 0.585172)
(0.0393919 0.00433338 1.26207)
(-0.0260754 0.000422875 1.18789)
(-0.0422226 0.00275645 0.978877)
(-0.0255199 0.0121911 0.34805)
(0.0124249 0.0167476 0.595673)
(0.0119967 -0.0309672 1.07806)
(-0.0184686 -0.0258036 0.947533)
(-0.0161249 0.00434571 0.382409)
(-0.0128563 0.0168722 0.486522)
(-0.0195447 -0.0106093 0.723862)
(0.00195837 -0.0203525 0.453535)
(0.00666714 0.00555174 0.698844)
(0.0171268 -0.00798749 0.242716)
(0.00370625 -0.00525633 -0.0146196)
(0.151598 0.0320458 0.0728578)
(0.0178843 0.0222126 0.153711)
(-0.0474949 0.0164198 -0.0938259)
(0.0565079 0.0448926 0.107327)
(0.124491 0.0661799 0.877369)
(0.0147479 0.0543082 0.933773)
(-0.132552 0.099678 0.877394)
(-0.0500537 0.0731069 0.382115)
(0.00144023 -0.00240516 0.21827)
(0.0418795 -0.016933 0.0886695)
(0.0629787 -0.00248522 0.758029)
(0.0258334 0.00879968 0.619191)
(-0.035155 -0.0694436 0.668553)
(-0.0430228 -0.0489997 -0.040989)
(0.0514038 -0.0340258 0.0747554)
(0.0826199 -0.028052 0.731956)
(-0.0440543 0.00648836 0.668689)
(-0.123259 -0.162065 0.0478084)
(0.0148227 -0.100917 0.162496)
(0.0375192 -0.245945 0.11486)
(-0.0300593 -0.0853075 0.109151)
(-0.0521119 0.0180231 0.135461)
(-0.00525426 -0.0230952 0.542803)
(0.0193996 0.0015684 0.0502575)
(0.141958 0.00742724 0.149561)
(-0.0284954 -0.0525341 0.414005)
(-0.142762 -0.0281311 -0.0549602)
(0.0808728 0.0356363 0.143349)
(-0.0254684 -0.0213943 0.755078)
(-0.00018086 -0.0213951 0.657586)
(0.0173259 0.000177019 0.640473)
(-0.0578504 0.0619155 0.343582)
(-0.0079843 -0.0188242 0.404876)
(0.0221682 -0.068043 0.243462)
(0.0282662 0.00776838 0.733144)
(0.00663715 0.0332439 0.585016)
(0.0173948 0.0498553 0.535516)
(-0.0481102 -0.0272422 0.12172)
(0.0788457 -0.0548903 0.0558869)
(-0.0166656 0.0428822 0.65832)
(0.0362831 0.112373 0.515407)
(0.0347763 0.054741 0.180659)
(-0.0275935 0.0499338 0.152953)
(0.0265572 0.0256512 0.200676)
(-0.0235368 0.0709749 0.240695)
(-0.0308659 0.0269605 0.241607)
(-0.0444222 -0.0448835 0.923759)
(0.00688034 0.00927438 0.00211368)
(0.0890367 -0.0576999 0.173154)
(-0.0351865 -0.15011 0.554553)
(-0.122004 -0.0967781 0.0876594)
(-0.00809147 -0.0136812 0.14761)
(-0.0292839 -0.0314383 0.764814)
(-0.018869 -0.0215067 0.66301)
(-0.0186482 -0.0362437 0.632179)
(0.0417443 0.0460131 0.278048)
(-0.0801287 0.0434854 -0.0093479)
(0.00623948 0.0388883 0.516566)
(0.0087976 -0.00265316 0.35405)
(0.021934 -0.00826758 0.733943)
(-0.0167785 0.0166397 0.586304)
(-0.0339765 0.0784632 0.54485)
(0.0600571 0.0148478 0.171856)
(0.150964 0.0115492 0.131593)
(0.0669881 0.0393881 0.047323)
(-0.057157 0.033214 0.627613)
(0.0201064 0.117688 0.499845)
(0.00391756 0.126339 0.30434)
(-0.0295361 0.106501 0.164639)
(-0.074329 0.121897 0.375607)
(-0.025557 0.109605 0.377052)
(0.017867 0.0399653 0.396493)
(0.00597082 -0.0124033 1.2199)
(0.0145747 -0.00435628 -0.0321524)
(0.0228444 -0.116398 0.203815)
(0.062568 -0.052395 0.67207)
(-0.0386367 -0.0991327 0.13937)
(-0.0841419 -0.0230401 0.14611)
(0.000211184 -0.0308322 0.728272)
(-0.0347489 -0.0114234 0.609567)
(-0.0481734 -0.0484414 0.520411)
(0.00651815 0.00303066 0.130647)
(-0.0355263 -0.00869245 0.0295746)
(-0.00110439 0.0754669 0.58621)
(-0.0191685 0.0759466 0.354993)
(0.0264493 -0.00530041 0.698954)
(-0.0243177 0.0274427 0.558282)
(-0.0561211 0.125462 0.459653)
(0.011693 0.00105318 0.165692)
(0.076492 0.00406417 0.159036)
(0.061074 0.0593909 0.0654397)
(-0.0409492 0.0131247 0.600246)
(-0.0381433 0.0955499 0.476782)
(-0.0603581 0.108757 0.347134)
(-0.0756688 0.0392292 0.101752)
(-0.0430686 -0.0112287 -0.00928823)
(-0.0547029 0.0524514 0.487511)
(-0.0450173 0.0765269 0.44331)
(-0.00292147 -0.00734704 0.525251)
(0.0229483 0.0213171 1.17523)
(0.0224531 -0.0113886 -0.0599445)
(-0.0267005 -0.0924621 0.234707)
(0.0792792 0.0514375 0.730834)
(0.0568252 0.0141506 0.22601)
(-0.0706769 0.000238883 0.183919)
(0.0998644 0.0277772 0.636927)
(-0.0210429 0.0289885 0.597367)
(-0.00261658 0.0448974 0.388797)
(-0.026869 -0.0180153 0.134576)
(-0.00465073 -0.0304488 0.0570963)
(-0.0114924 0.0585294 0.639578)
(-0.0149679 0.0873427 0.304088)
(0.0610599 0.0188504 0.695111)
(-0.0176409 0.0507495 0.560046)
(-0.0336661 0.202688 0.427418)
(-0.0278408 -0.0374329 0.153561)
(0.0317421 0.010052 0.163726)
(0.0448613 0.0534062 0.111028)
(0.0309477 0.00459091 0.603599)
(-0.052764 0.0796822 0.496769)
(-0.0314122 0.13386 0.398128)
(-0.0685482 0.00870398 0.093384)
(-0.0170326 0.0149772 -0.0356356)
(0.0450739 -0.0087904 0.474866)
(-0.0619307 0.0435194 0.516311)
(-0.0951139 0.0332923 0.490951)
(0.0219005 0.0283262 0.98199)
(0.0325084 -0.0125258 -0.0675749)
(-0.0385616 -0.0617224 0.248829)
(0.0493197 0.0131441 0.814092)
(0.0824597 0.0596219 0.250384)
(0.000713351 -0.00328318 0.215269)
(0.0585619 0.0741352 0.49969)
(0.0163252 0.0710841 0.572466)
(0.0204324 0.112114 0.342006)
(-0.0874692 -0.0940056 0.163279)
(0.0586226 -0.045102 -0.00316839)
(0.00759217 0.0145448 0.606272)
(0.0518395 0.0405893 0.297083)
(0.11223 0.112416 0.698419)
(0.0183802 0.106118 0.600957)
(-0.00845601 0.222095 0.434078)
(-0.0210137 -0.0400393 0.154006)
(0.018791 0.0138551 0.0880626)
(0.0596302 0.046791 0.12594)
(0.100497 0.0629913 0.629054)
(-0.0300399 0.0928075 0.550154)
(0.0177084 0.165151 0.458664)
(0.0341627 -0.0070684 0.160552)
(0.0745873 0.0615583 0.482922)
(-0.0701154 0.015465 0.630232)
(-0.107497 0.0754351 0.473455)
(0.00134668 0.00545082 0.970824)
(0.0172756 0.00701431 -0.0512231)
(-0.037264 -0.038715 0.262757)
(0.0483952 -0.0582058 0.843426)
(0.0780441 0.0680914 0.257945)
(0.0608785 -0.0315346 0.221394)
(-0.0199145 0.0922251 0.365742)
(0.0539257 0.107256 0.492507)
(0.0275525 0.11994 0.329664)
(-0.116692 -0.110142 0.19947)
(0.0136314 -0.0210708 0.477924)
(0.0857044 0.0168621 0.271869)
(0.0792948 0.207725 0.667846)
(0.0587964 0.16398 0.624651)
(0.00611085 0.204268 0.437734)
(-0.0448675 -0.0517306 0.161409)
(0.0572458 0.0341221 0.125126)
(0.09061 0.145452 0.661417)
(-0.0090006 0.139395 0.620792)
(0.0547558 0.163163 0.526472)
(0.0722201 -0.0506264 0.215633)
(0.0536588 0.10647 0.546082)
(-0.0332107 -0.00502648 0.746795)
(-0.0517062 0.0603135 0.506303)
(-0.0288801 -0.0173299 1.07504)
(-0.0132471 0.0355987 -0.0133045)
(-0.0740712 0.0391198 0.231101)
(-0.0715851 -0.0624537 0.806293)
(0.0320049 0.0568099 0.268201)
(0.0852542 -0.0337773 0.201057)
(-0.00942339 0.133353 0.303375)
(0.0652595 0.152157 0.447058)
(0.0314026 0.110735 0.336502)
(-0.0744715 -0.125068 0.180988)
(0.0252422 -0.00740092 0.329244)
(0.0980835 0.0184303 0.223462)
(0.0340028 0.260267 0.610084)
(0.0663343 0.190501 0.623327)
(0.022185 0.143495 0.452614)
(0.0216933 -0.0988163 0.17422)
(0.0456434 0.01458 0.136868)
(0.0520485 0.205079 0.699027)
(0.0079547 0.189801 0.680203)
(0.0791123 0.145681 0.592048)
(0.0815861 -0.100991 0.253697)
(0.0345234 0.147558 0.626587)
(-0.0011373 -0.0474263 0.84697)
(0.00937319 0.0389115 0.582961)
(-0.114388 -0.018346 1.07657)
(-0.0424638 0.0579462 0.0363893)
(-0.0934812 0.140011 0.198502)
(-0.112037 0.16268 0.531447)
(-0.0606292 -0.00971957 0.294273)
(0.122147 -0.0556045 0.129391)
(0.031236 0.168803 0.287369)
(0.0584365 0.179989 0.445461)
(0.0295845 0.0451823 0.364787)
(-0.0594918 -0.118797 0.176108)
(0.0231093 0.020033 0.168658)
(0.07965 -0.00543707 0.213605)
(0.041622 0.273132 0.571723)
(0.0520234 0.197604 0.614928)
(0.033451 0.00728491 0.468905)
(0.00197681 -0.122109 0.189627)
(0.0360953 -0.0128034 0.149733)
(0.0284654 0.219328 0.726178)
(0.0497677 0.216633 0.733262)
(0.0959183 0.114328 0.660289)
(0.0846708 -0.133687 0.231784)
(0.0183035 0.170292 0.73132)
(-0.0370006 -0.0298033 0.933022)
(0.0237459 0.0351422 0.687971)
(-0.142727 -0.0633815 1.14477)
(-0.0499414 0.0656585 0.045756)
(-0.0778138 0.187876 0.201361)
(-0.0349269 0.204856 0.293492)
(-0.0853265 -0.0260997 0.280959)
(0.118602 -0.0288797 0.0986654)
(0.0545126 0.187584 0.309031)
(0.031789 0.187601 0.458972)
(0.0153772 -0.0752481 0.41475)
(-0.0445178 -0.097215 0.16679)
(0.0133918 0.0023756 0.0260038)
(0.0520476 -0.0691088 0.246305)
(0.069652 0.244002 0.544265)
(0.0252547 0.187266 0.606101)
(0.029598 -0.121248 0.459613)
(-0.0176958 -0.102708 0.210718)
(0.00679918 -0.0702437 0.16247)
(0.0129967 0.192495 0.742143)
(0.0827483 0.187655 0.780982)
(0.0795986 0.101815 0.693639)
(0.0707184 -0.147551 0.167065)
(-0.0250961 0.130064 0.858895)
(-0.0654147 0.0116174 1.00208)
(0.0342453 0.0325234 0.791796)
(-0.0502056 -0.0263572 1.11698)
(-0.0356885 0.0572784 0.0166019)
(-0.0589697 0.152417 0.226343)
(-0.011843 0.20847 0.211468)
(-0.0886632 -0.0154953 0.286827)
(0.0958467 -0.0600323 0.117183)
(0.064673 0.172005 0.343615)
(-0.00681783 0.162916 0.48423)
(-0.00675503 -0.157591 0.460689)
(-0.0254878 -0.0866497 0.149977)
(-0.00245101 -0.0373437 -0.0399006)
(0.0139672 -0.166535 0.290972)
(0.0737443 0.141385 0.531777)
(-0.00666787 0.137437 0.62299)
(0.0208037 -0.225884 0.43862)
(-0.0146403 -0.0573704 0.228515)
(-0.0470227 -0.154424 0.17498)
(-0.0577398 0.0753808 0.762772)
(0.0543214 0.111189 0.814226)
(0.0651316 0.0855895 0.673306)
(0.040037 -0.114092 0.138572)
(-0.101613 0.0469967 0.971876)
(-0.0720562 0.0221432 1.02159)
(0.0190119 0.0520361 0.933451)
(0.0493836 0.106758 0.363137)
(-0.0114473 0.0231417 0.00771465)
(-0.0341609 0.109291 0.226436)
(-0.0782042 0.167013 0.21131)
(-0.10896 -0.0140509 0.297851)
(0.0546662 -0.161261 0.190119)
(0.0537554 0.0835743 0.398996)
(-0.0361618 0.0639361 0.5444)
(-0.0172033 -0.172169 0.507848)
(0.0124634 -0.0393274 0.163298)
(-0.00794686 -0.0316657 -0.0455213)
(-0.0315537 -0.232408 0.338644)
(0.0185462 -0.0880598 0.571672)
(-0.0642207 -0.0216623 0.669613)
(0.0174148 -0.263815 0.430656)
(-0.0116433 -0.0238097 0.206432)
(-0.0847886 -0.208033 0.196262)
(-0.135041 -0.107256 0.753961)
(-0.0873509 -0.079811 0.774278)
(0.0259352 -0.211792 0.558009)
(0.0111699 -0.0564223 0.153283)
(-0.134276 -0.0573756 0.992962)
(-0.0734612 -0.00245022 0.994472)
(0.0753643 -0.0462459 0.957786)
(0.0389849 0.01207 0.0960666)
(0.00474488 -0.0106742 0.0551462)
(-0.0258936 0.0525191 0.226267)
(-0.140574 0.0702974 0.227524)
(-0.103599 -0.041221 0.294715)
(0.0121653 -0.198632 0.257091)
(0.0136428 -0.0617536 0.498177)
(-0.0427407 -0.0549339 0.612391)
(-0.00846853 -0.144203 0.534385)
(0.0413027 0.00952064 0.186381)
(-0.00672538 -0.00818426 -0.0128798)
(-0.0583173 -0.230111 0.393229)
(-0.0274455 -0.244939 0.616545)
(-0.0592943 -0.134682 0.695113)
(0.0198377 -0.233321 0.439808)
(-0.0195578 -0.00174488 0.17068)
(-0.070265 -0.188236 0.230333)
(-0.105141 -0.244546 0.719218)
(-0.149217 -0.18374 0.682049)
(0.0196017 -0.29848 0.388447)
(-0.00926044 -0.0108004 0.161319)
(-0.19304 -0.116431 0.876845)
(-0.24056 -0.0589954 0.777431)
(0.113111 -0.0433916 0.890015)
(0.0465216 -0.00267571 0.0831306)
(0.00640597 -0.0255614 0.129077)
(-0.030555 -0.00124917 0.25303)
(-0.135003 -0.00797666 0.268377)
(-0.0831413 -0.0710258 0.287052)
(-0.0229876 -0.205913 0.312591)
(-0.0229233 -0.142881 0.576468)
(-0.0320339 -0.113797 0.651811)
(0.00756998 -0.121357 0.531386)
(0.0537968 0.037476 0.194154)
(-0.00110569 0.0284455 0.038346)
(-0.0557175 -0.195047 0.433526)
(-0.0450902 -0.281647 0.633779)
(-0.0117642 -0.166891 0.700523)
(0.0342007 -0.140114 0.461004)
(-0.013273 0.0272992 0.152357)
(-0.00996255 -0.0789951 0.246727)
(-0.0731815 -0.309929 0.631322)
(-0.0625558 -0.195105 0.589181)
(0.0358692 -0.187981 0.332054)
(-0.0159863 0.0167246 0.157546)
(-0.0246838 -0.116801 0.742436)
(-0.0407335 0.00730357 0.620269)
(0.00690463 -0.0652519 0.481191)
(0.0672929 -0.00453812 0.131319)
(-0.0101109 -0.0202851 0.225894)
(-0.0384703 -0.0468674 0.306598)
(-0.105865 -0.0600278 0.329492)
(-0.0620317 -0.0833969 0.302119)
(-0.0455231 -0.186528 0.344266)
(-0.0420243 -0.14947 0.613192)
(-0.0167776 -0.128676 0.664631)
(0.0160262 -0.123355 0.505596)
(0.0663791 0.05856 0.201975)
(0.00447974 0.0667797 0.0894072)
(-0.0352877 -0.149666 0.431165)
(-0.0369635 -0.256786 0.649348)
(0.00909085 -0.162556 0.695959)
(0.039938 -0.0878582 0.469154)
(-0.0106748 0.0559585 0.156647)
(0.0380809 0.0539864 0.241872)
(-0.052492 -0.234778 0.515881)
(0.0473061 -0.171227 0.47844)
(0.0559923 -0.114688 0.328102)
(-0.0172808 0.0312809 0.17033)
(0.000109866 -0.0204412 0.455125)
(0.182359 -0.0409362 0.574003)
(0.0628258 -0.0435712 0.287515)
(0.0942771 -0.00176365 0.199932)
(-0.0406047 0.0115682 0.325241)
(-0.0344245 -0.0846134 0.375742)
(-0.0796141 -0.0957975 0.392882)
(-0.0197639 -0.0565541 0.346242)
(-0.0533996 -0.123987 0.347407)
(-0.0475681 -0.141819 0.61464)
(-0.00652067 -0.13029 0.656056)
(0.00806406 -0.115332 0.462847)
(0.0736502 0.0896149 0.211319)
(0.00848722 0.089038 0.133281)
(-0.0206147 -0.0074347 0.3437)
(-0.0361783 -0.201263 0.637855)
(0.0161859 -0.134038 0.689377)
(0.0341162 -0.0615955 0.469266)
(-0.00955684 0.0761047 0.183693)
(0.0663903 0.0932871 0.237766)
(0.0299225 -0.0810171 0.428218)
(0.0717667 -0.114813 0.430514)
(0.0674628 -0.077651 0.348377)
(-0.0198525 0.0399277 0.200806)
(0.0676988 0.0263617 0.338456)
(0.138144 -0.104335 0.491544)
(0.0692354 -0.0378357 0.260635)
(0.113093 0.0059943 0.275188)
(-0.0748092 0.0326466 0.395434)
(-0.0378675 -0.0989703 0.448128)
(-0.0612636 -0.106327 0.447669)
(0.0421071 0.0133407 0.385829)
(-0.048998 -0.0172281 0.328053)
(-0.0554714 -0.135482 0.608631)
(-0.0089033 -0.127267 0.625544)
(-0.0119359 -0.0715336 0.435948)
(0.0733103 0.132619 0.21998)
(0.00935681 0.103348 0.160366)
(-0.0106064 0.0831534 0.26789)
(-0.058974 -0.138237 0.595097)
(0.0217113 -0.100839 0.649901)
(0.0268975 -0.0460306 0.469003)
(-0.0101975 0.081574 0.230969)
(0.0787819 0.0954639 0.2239)
(0.0887969 -0.0121023 0.396548)
(0.0661089 -0.0625183 0.425359)
(0.070612 -0.0514634 0.380032)
(-0.0211196 0.0427911 0.239561)
(0.107741 0.0421909 0.335465)
(0.10028 -0.118513 0.394777)
(0.0570357 -0.0310714 0.265125)
(0.061453 0.00926725 0.322063)
(-0.111413 0.0692599 0.429208)
(-0.0736314 -0.0951962 0.504874)
(-0.0541727 -0.0789602 0.493787)
(0.0781388 0.064803 0.415577)
(-0.0415263 0.0890585 0.295421)
(-0.0590282 -0.130308 0.615694)
(-0.0384263 -0.104036 0.590517)
(-0.0282385 -0.0113646 0.418728)
(0.0556453 0.157145 0.224819)
(0.00903862 0.11638 0.169693)
(0.00709844 0.0945922 0.227699)
(-0.040131 -0.0701275 0.568197)
(0.020757 -0.0904285 0.598419)
(0.0213021 -0.0386881 0.475693)
(-0.00636525 0.0690786 0.286016)
(0.0743259 0.0975754 0.223031)
(0.104356 0.00200526 0.386091)
(0.0606657 -0.0275082 0.43337)
(0.0687311 -0.0281669 0.411427)
(-0.0202268 0.0420121 0.278115)
(0.125752 0.0371277 0.364074)
(0.0558631 -0.0638175 0.370148)
(0.0317762 -0.0166292 0.276519)
(-0.00560795 -0.00516913 0.317748)
(-0.126955 0.10044 0.424555)
(-0.0633778 -0.0804067 0.552538)
(-0.00670325 -0.0521817 0.540945)
(0.10179 0.102576 0.411572)
(-0.0469423 0.150075 0.271321)
(-0.0454359 -0.125035 0.626343)
(-0.0561735 -0.0829338 0.58199)
(-0.0196162 0.0349672 0.426362)
(0.0194785 0.140295 0.233739)
(0.0098786 0.128615 0.17823)
(0.0311123 0.115386 0.213189)
(0.0315017 -0.0118509 0.541516)
(0.0265612 -0.0807218 0.5639)
(0.0190548 -0.0275027 0.486236)
(0.0034935 0.0557214 0.328854)
(0.0630391 0.0766275 0.229016)
(0.101514 -0.00629538 0.395653)
(0.0609435 -0.0121905 0.437077)
(0.0677973 -0.00992406 0.433175)
(-0.0167066 0.0400784 0.312766)
(0.0637867 -0.0295431 0.396549)
(0.00957628 -0.0212887 0.352891)
(0.00016032 0.00134676 0.291298)
(-0.0043584 -0.00588485 0.312833)
(-0.12443 0.105084 0.380046)
(-0.0327608 -0.0145352 0.57421)
(0.0619683 0.0229564 0.529846)
(0.137432 0.118172 0.355652)
(-0.0681871 0.17077 0.271631)
(0.0162325 -0.0946063 0.61827)
(-0.0543864 -0.0797561 0.585348)
(0.0246214 0.0774854 0.447562)
(0.000305423 0.131977 0.249921)
(0.0115418 0.12845 0.19345)
(0.0460907 0.127286 0.225873)
(0.106468 0.0439546 0.509912)
(0.0394713 -0.0628186 0.556031)
(0.0183708 0.00360732 0.500421)
(0.0136507 0.0502858 0.364399)
(0.0377068 0.0333834 0.251459)
(0.109622 -0.0082096 0.427936)
(0.0601494 -0.0086615 0.439902)
(0.0575794 0.00856654 0.451122)
(-0.00989271 0.0376455 0.341847)
(-0.0185111 -0.0630005 0.389833)
(-0.0206783 -0.0033868 0.332918)
(-0.0310505 0.020205 0.306856)
(0.032925 0.00491767 0.277776)
(-0.107181 0.094853 0.347145)
(-0.0882263 0.0309301 0.477522)
(0.0471872 0.0199469 0.501532)
(0.153297 0.070058 0.296152)
(-0.0748487 0.155501 0.299267)
(0.0464444 0.025471 0.595754)
(-0.0371285 -0.0619023 0.59807)
(0.0700612 0.131395 0.46177)
(-0.0183033 0.126611 0.285227)
(0.0108598 0.108519 0.212987)
(0.0511838 0.118643 0.255745)
(0.127275 0.109719 0.496926)
(0.0406561 -0.0420019 0.5646)
(0.0142485 0.0601704 0.523246)
(0.0241064 0.0495397 0.404089)
(0.0199611 0.00129117 0.284352)
(0.119927 0.0313773 0.45)
(0.0487287 -0.0096941 0.448158)
(0.0347306 0.0396293 0.478284)
(0.000637845 0.032806 0.369384)
(-0.0279935 -0.0218175 0.36666)
(-0.0302802 -0.0030427 0.324266)
(-0.0595691 0.0415473 0.329176)
(0.0380549 0.004457 0.246491)
(-0.041317 0.0392087 0.322946)
(-0.0648487 0.0458238 0.37244)
(0.00172023 -0.025404 0.344459)
(0.0979099 0.0467289 0.270215)
(-0.0401726 0.110874 0.334205)
(-0.00462411 0.152584 0.563822)
(-0.018808 0.0213924 0.624336)
(0.0690949 0.172135 0.484177)
(-0.0700778 0.0757392 0.325751)
(0.00860541 0.0785517 0.230673)
(0.0529349 0.0987004 0.281523)
(0.0954946 0.174408 0.504681)
(0.0267016 -0.000167479 0.591726)
(0.0108545 0.105963 0.547448)
(0.0347145 0.0448931 0.444214)
(0.00581372 -0.0194133 0.316276)
(0.09739 0.11047 0.47757)
(0.0164327 -0.00618604 0.478181)
(0.0096754 0.0813193 0.513126)
(0.0133498 0.0234825 0.401864)
(-0.0208775 0.0378451 0.37222)
(-0.0149617 -0.00968755 0.340383)
(-0.0797942 0.05281 0.358306)
(0.0332371 0.00727399 0.212936)
(0.0051996 -0.00765969 0.286401)
(0.00308502 0.0390276 0.309253)
(0.0108519 0.0516023 0.239054)
(0.0166635 0.0439952 0.243361)
(-0.00474681 0.0808712 0.346155)
(-0.0523371 0.188949 0.51637)
(0.0134536 0.100592 0.643702)
(0.0485406 0.182447 0.501393)
(-0.0811826 -0.00295517 0.324157)
(0.00545913 0.0487655 0.242245)
(0.0481093 0.0773884 0.294683)
(0.0470246 0.207735 0.524014)
(0.0168297 0.0568856 0.630395)
(0.0174637 0.130157 0.565519)
(0.0389068 0.0259849 0.469763)
(-0.0118253 -0.0375902 0.345614)
(0.0562259 0.16086 0.507971)
(-0.0052897 0.0126149 0.524393)
(-0.00320512 0.108771 0.542573)
(0.0250364 0.00735592 0.437711)
(-0.0297184 0.0758454 0.410643)
(0.0155425 -0.0094633 0.384467)
(-0.0812061 0.0495048 0.39052)
(0.0290033 0.00663015 0.181433)
(0.0244078 -0.0249262 0.242039)
(0.0283829 0.0309036 0.259296)
(-0.00823914 0.0833914 0.204749)
(-0.0265474 0.0259236 0.211505)
(-0.000232703 0.0722527 0.326544)
(-0.0623098 0.164649 0.461671)
(0.0589879 0.143638 0.606775)
(0.0340383 0.182258 0.492601)
(-0.0639992 -0.0475621 0.30023)
(0.00187869 0.0199799 0.252099)
(0.0412801 0.057004 0.306552)
(0.012917 0.20792 0.539024)
(0.0264369 0.102949 0.656982)
(0.0306989 0.13939 0.584631)
(0.0373412 0.000749745 0.480276)
(-0.0308085 -0.0569689 0.372646)
(0.0262726 0.17488 0.535826)
(-0.00638367 0.045578 0.575094)
(0.00175738 0.115556 0.567772)
(0.0338232 -0.00648775 0.478774)
(-0.0438027 0.0804865 0.468942)
(0.0285142 -0.00191546 0.4424)
(-0.0624423 0.0361451 0.427255)
(0.0322156 0.00550726 0.160334)
(0.0307352 -0.0300139 0.199676)
(0.0303808 0.0244593 0.220902)
(-0.0234804 0.0854753 0.199775)
(-0.0392385 0.00889296 0.192287)
(0.00303935 0.0606603 0.29056)
(-0.0412496 0.132882 0.418735)
(0.0636384 0.161233 0.54151)
(0.00480024 0.165456 0.476056)
(-0.0405462 -0.0620693 0.282031)
(-0.00219471 -0.00967138 0.263843)
(0.0357262 0.0287926 0.324016)
(0.004462 0.193285 0.538748)
(0.0321711 0.134137 0.67453)
(0.0364787 0.12776 0.610942)
(0.0262953 -0.0273234 0.482973)
(-0.0440165 -0.0725185 0.396161)
(0.00983815 0.151338 0.567786)
(-0.00230833 0.0775958 0.626614)
(0.00991367 0.106166 0.595907)
(0.0388499 -0.0191445 0.522736)
(-0.0543837 0.0385294 0.521319)
(0.0205491 0.0162969 0.508466)
(-0.0333204 0.0186586 0.463513)
(0.0423734 0.00493036 0.146465)
(0.0346235 -0.0332812 0.172683)
(0.0251161 0.0171556 0.198844)
(-0.026178 0.0749756 0.201704)
(-0.041449 0.00861651 0.186457)
(0.00507103 0.0352292 0.261776)
(-0.0319517 0.113081 0.398164)
(0.00241486 0.14225 0.4912)
(-0.0257866 0.0892779 0.450493)
(-0.0120297 -0.0577364 0.268638)
(-0.00591091 -0.0352795 0.279103)
(0.0224671 0.00632621 0.343988)
(0.00769618 0.156916 0.542042)
(0.0186019 0.14407 0.68965)
(0.0195194 0.084214 0.648132)
(0.0062747 -0.0472841 0.481979)
(-0.0481902 -0.0763741 0.41305)
(-0.0143066 0.0912887 0.611158)
(-0.00132079 0.103987 0.669982)
(0.0103122 0.0811146 0.628894)
(0.0433484 -0.0448739 0.539781)
(-0.0575912 -0.0240468 0.528246)
(0.00240592 0.0422149 0.573404)
(0.00342984 0.00379868 0.48832)
(0.056458 0.00479141 0.137296)
(0.041405 -0.0403788 0.162674)
(0.0189395 0.00818013 0.193559)
(-0.0206792 0.057677 0.20209)
(-0.0273801 0.0229019 0.177423)
(0.00260436 0.0104594 0.247274)
(-0.0439893 0.0916588 0.399999)
(-0.099135 0.0824489 0.440326)
(-0.0485969 -0.0173379 0.396403)
(-0.000579675 -0.0504256 0.254647)
(-0.00984536 -0.0532285 0.297854)
(0.000461266 -0.00292452 0.364227)
(0.00858523 0.0862908 0.56518)
(0.000718742 0.141899 0.697228)
(-0.0128474 0.0409202 0.66153)
(-0.0144239 -0.0367548 0.475428)
(-0.0486447 -0.0686237 0.422678)
(-0.0448444 0.0227998 0.639698)
(0.00663641 0.106103 0.698591)
(-0.00561349 0.0450023 0.654839)
(0.0439611 -0.0642939 0.520081)
(-0.0587967 -0.0507669 0.492946)
(-0.0137389 0.059071 0.628236)
(0.0289457 -0.00383354 0.510477)
(0.0713768 0.00545437 0.131811)
(0.0500391 -0.0507224 0.166472)
(0.0183262 -0.0033506 0.198277)
(-0.0114692 0.0489643 0.191803)
(-0.00611914 0.0282885 0.161436)
(-0.000855014 -0.00786573 0.251953)
(-0.0517067 0.0510984 0.426254)
(-0.151576 0.0300846 0.412164)
(-0.0655248 -0.0630555 0.340054)
(-0.0108101 -0.044885 0.231146)
(-0.0132028 -0.0678953 0.321036)
(-0.022107 -0.00147195 0.383218)
(0.00197279 0.0253028 0.592357)
(-0.00532006 0.131343 0.697064)
(-0.0324028 0.0193198 0.651727)
(-0.0195824 -0.0264213 0.456015)
(-0.0504112 -0.0560092 0.428014)
(-0.0692672 -0.0285954 0.641117)
(0.020198 0.0803851 0.718605)
(-0.0167839 0.00612062 0.665462)
(0.0319109 -0.0617122 0.498392)
(-0.0629878 -0.0489081 0.454967)
(-0.0257316 0.0535058 0.658643)
(0.0377516 -0.0124565 0.515448)
(0.0856104 0.00637339 0.129558)
(0.0583917 -0.0628715 0.180836)
(0.022485 -0.0179611 0.203721)
(0.00756368 0.0392938 0.176685)
(0.0129951 0.0344845 0.145755)
(-0.0040717 -0.02043 0.269114)
(-0.0400309 0.0123178 0.4617)
(-0.156057 -0.00325152 0.403647)
(-0.0738651 -0.0597896 0.292944)
(-0.0248814 -0.0396113 0.212807)
(-0.0144808 -0.082807 0.34251)
(-0.0401922 0.00126167 0.400613)
(-0.0107929 -0.0118625 0.610136)
(-0.0137836 0.10793 0.695228)
(-0.0349145 0.0180189 0.638995)
(-0.00453713 -0.0294838 0.421341)
(-0.0533104 -0.0435522 0.433757)
(-0.0832689 -0.0517925 0.627201)
(0.0183079 0.0456075 0.733195)
(-0.00227236 -0.0150728 0.664709)
(0.0194332 -0.0482402 0.485896)
(-0.0672706 -0.0447435 0.432206)
(-0.037441 0.0328098 0.651205)
(0.0331851 -0.0139885 0.503752)
(0.0975526 0.00693943 0.133937)
(0.0642165 -0.0730703 0.202906)
(0.0279123 -0.0314678 0.206959)
(0.0291954 0.0200548 0.169909)
(0.0280556 0.0405736 0.136594)
(-0.00908805 -0.0286021 0.291009)
(-0.0298873 -0.0127287 0.491227)
(-0.130007 -0.0202901 0.406084)
(-0.0637496 -0.0365123 0.263025)
(-0.0391931 -0.0335697 0.200501)
(-0.0137579 -0.0973902 0.356538)
(-0.0471932 0.00165127 0.41504)
(-0.0245544 -0.0290048 0.620626)
(-0.0455811 0.0658709 0.688464)
(-0.0387737 0.0277336 0.612118)
(0.00876446 -0.0380723 0.391731)
(-0.0542895 -0.0333644 0.443641)
(-0.089585 -0.0526103 0.615454)
(-0.00887899 0.0234044 0.733806)
(0.0104758 -0.0126593 0.657593)
(0.0182172 -0.025254 0.496448)
(-0.0635768 -0.0404158 0.425271)
(-0.0421503 0.00992591 0.607531)
(0.000223776 0.00312272 0.497203)
(0.105118 0.00740003 0.147164)
(0.0675323 -0.0788751 0.229822)
(0.0330603 -0.0419579 0.209906)
(0.0438871 0.00598223 0.170264)
(0.0361902 0.0441222 0.138865)
(-0.0125781 -0.0359623 0.314819)
(-0.0359066 -0.0221654 0.500075)
(-0.0823759 -0.0254305 0.409129)
(-0.0403717 -0.00643344 0.251097)
(-0.0427454 -0.0217685 0.190621)
(-0.0130108 -0.109507 0.360916)
(-0.0423837 0.00110361 0.42973)
(-0.0309797 -0.0344715 0.631691)
(-0.0716658 0.0333644 0.681045)
(-0.0528385 0.0334733 0.544973)
(0.00253471 -0.0466201 0.367841)
(-0.0552976 -0.0275058 0.460649)
(-0.0900096 -0.0447106 0.612748)
(-0.0434342 0.0179589 0.719623)
(0.00674188 0.0323107 0.633476)
(0.0230455 -0.012378 0.521059)
(-0.0452189 -0.0247263 0.429386)
(-0.0399722 -0.00132168 0.570141)
(-0.0266506 0.0134537 0.508844)
(0.10815 0.00791694 0.165123)
(0.0691955 -0.0787013 0.254122)
(0.0407134 -0.0463204 0.218781)
(0.0491743 0.00365209 0.174605)
(0.0356407 0.044118 0.15332)
(-0.00570368 -0.0462331 0.339978)
(-0.0489198 -0.0240849 0.492416)
(-0.043926 -0.0167923 0.398147)
(-0.0195654 0.0201414 0.25189)
(-0.0367329 -0.00782549 0.183024)
(-0.0131597 -0.122144 0.360769)
(-0.0329463 0.00160865 0.449533)
(-0.0329802 -0.0313011 0.641724)
(-0.0768142 0.0178546 0.678716)
(-0.0551286 0.0217294 0.491001)
(-0.0135763 -0.0423914 0.347317)
(-0.0584236 -0.0304898 0.478447)
(-0.082978 -0.0231416 0.611686)
(-0.0600968 0.0149409 0.705219)
(-0.0151119 0.0681726 0.603336)
(0.0281651 -0.0207025 0.532084)
(-0.0300275 -0.00164635 0.44062)
(-0.0333439 -0.00456695 0.555604)
(-0.0260675 0.00708026 0.520675)
(0.107681 0.00827775 0.18208)
(0.0699895 -0.0744268 0.267966)
(0.0494545 -0.0456334 0.231217)
(0.0451325 0.00921874 0.182299)
(0.0288727 0.041786 0.172685)
(0.0162804 -0.0609656 0.366115)
(-0.0591215 -0.0258573 0.471162)
(-0.0226514 -0.00411224 0.381367)
(-0.00955257 0.0334975 0.263272)
(-0.0287044 0.00312106 0.178008)
(-0.0134243 -0.134161 0.362541)
(-0.0216369 -0.012901 0.470533)
(-0.0375439 -0.0205601 0.644777)
(-0.0692292 0.00949361 0.678321)
(-0.0440639 -0.00193794 0.468141)
(-0.0181344 -0.0311802 0.333816)
(-0.0621574 -0.0441149 0.490774)
(-0.0676264 0.00817848 0.604436)
(-0.0573714 0.00740077 0.69081)
(-0.0243365 0.0472003 0.575681)
(0.0303569 -0.0510825 0.507434)
(-0.0231772 0.00926938 0.460634)
(-0.0195936 0.000470174 0.552454)
(0.012493 -0.00859464 0.514269)
(0.105654 0.00900461 0.194256)
(0.069787 -0.0703406 0.268668)
(0.0541248 -0.0448998 0.241965)
(0.0362578 0.0148609 0.190015)
(0.017675 0.0374318 0.188083)
(0.0375022 -0.0746321 0.391846)
(-0.0497407 -0.0272241 0.459611)
(-0.0154704 0.00287109 0.373694)
(-0.00804709 0.0319949 0.282142)
(-0.022225 0.00833823 0.174291)
(-0.0134586 -0.13739 0.370218)
(-0.0107964 -0.0542819 0.483765)
(-0.0451943 0.00539025 0.635415)
(-0.0484314 0.00482274 0.6749)
(-0.0274201 -0.0275906 0.471891)
(-0.0112917 -0.0213596 0.330418)
(-0.0684907 -0.0638 0.490864)
(-0.0420673 0.0285476 0.600474)
(-0.0404993 0.00529282 0.661786)
(-0.00805482 0.00799434 0.559351)
(0.0266601 -0.0680981 0.467922)
(-0.0248547 -0.00252077 0.469055)
(-0.00558529 0.00798963 0.549247)
(0.0510841 -0.020122 0.497777)
(0.100763 0.00880101 0.203145)
(0.0653766 -0.0655728 0.26638)
(0.0555875 -0.0438226 0.248463)
(0.0273424 0.0177558 0.1972)
(0.00716935 0.0287655 0.197852)
(0.0480745 -0.0808977 0.412449)
(-0.0150893 -0.0274235 0.457388)
(-0.0142506 0.00394469 0.375018)
(-0.010944 0.020421 0.302427)
(-0.0182553 0.0068946 0.173356)
(-0.0134713 -0.133309 0.38467)
(-0.0137962 -0.0936745 0.486814)
(-0.0430979 0.0264227 0.619134)
(-0.0260663 0.0145874 0.664337)
(-0.00907734 -0.0452653 0.48909)
(-0.00181957 -0.0205252 0.336006)
(-0.0724856 -0.0818911 0.475205)
(-0.0139813 0.0223955 0.604758)
(-0.0154448 0.0164285 0.641382)
(0.0174515 -0.0333698 0.552371)
(0.0249727 -0.0663458 0.437572)
(-0.0499579 -0.0202934 0.449769)