/*--------------------------------*- C++ -*----------------------------------*\
| =========                 |                                                 |
| \\      /  F ield         | OpenFOAM: The Open Source CFD Toolbox           |
|  \\    /   O peration     | Version:  5.x                                   |
|   \\  /    A nd           | Web:      www.OpenFOAM.org                      |
|    \\/     M anipulation  |                                                 |
\*---------------------------------------------------------------------------*/
FoamFile
{
    version     2.0;
    format      ascii;
    class       volVectorField;
    location    "4.7";
    object      U;
}
// * * * * * * * * * * * * * * * * * * * * * * * * * * * * * * * * * * * * * //

dimensions      [0 1 -1 0 0 0 0];

internalField   nonuniform List<vector> 
10571
(
(0.106209 0.210471 0.645977)
(0.116416 0.102588 0.617064)
(0.0858236 0.491038 1.03368)
(-0.531098 2.06335 3.76791)
(-0.378511 0.0722566 1.25539)
(0.755958 -0.20591 3.58767)
(-0.679026 0.408371 3.46445)
(-2.20735 -0.931699 3.31915)
(-1.25989 -0.30646 1.75148)
(-0.461094 -0.278788 1.21115)
(0.101611 -0.500883 1.22465)
(0.243095 -1.02497 1.95583)
(0.60176 -0.894917 3.4504)
(-0.577474 -0.731466 2.64477)
(-1.06093 -0.374958 2.08105)
(-0.350412 -0.0924751 1.1329)
(0.259934 -0.358651 1.14881)
(0.231981 -0.360389 1.85367)
(-0.627441 -0.16465 2.21307)
(-0.60697 -0.369698 2.09158)
(-0.205966 0.127321 1.04364)
(0.250003 -0.135684 1.30192)
(-0.195832 0.207885 1.42031)
(-0.21856 0.165993 1.83104)
(0.100392 0.0863246 0.472213)
(0.199538 -0.240891 0.537603)
(-0.92178 -1.0146 2.24596)
(0.253609 -0.455985 1.62192)
(-0.183162 -0.246335 2.97166)
(1.19562 -1.47075 4.26916)
(-1.11316 -0.0333487 4.32018)
(0.388075 -0.0264174 1.93277)
(0.0889988 -0.101304 2.42499)
(-0.335669 -0.25587 0.735669)
(0.00408275 -0.0256524 0.291668)
(0.315823 -0.255125 1.00408)
(0.333084 0.864382 2.50751)
(0.250343 0.565333 1.73696)
(-0.285682 0.0786051 1.85074)
(-0.2262 -0.00710894 0.450136)
(0.477592 0.664513 0.82583)
(0.491971 1.48877 3.30036)
(0.248609 0.484602 2.16335)
(-0.409807 0.398044 2.69298)
(-0.248282 0.229766 0.593391)
(1.01202 1.27483 3.03669)
(1.00284 0.621741 3.46443)
(0.1369 0.280368 2.98805)
(0.363747 0.0600171 0.188244)
(-0.263934 -0.908391 2.47711)
(0.609691 -1.2027 2.60574)
(1.08516 -0.172461 3.11846)
(-0.761552 -0.00649983 2.14167)
(-1.32217 -2.56432 5.32771)
(0.330012 0.0360794 1.66909)
(0.379923 -0.0591501 1.55723)
(-0.187653 0.100545 2.5699)
(-0.186615 -0.0950968 0.16801)
(0.00540882 -0.0289499 0.214911)
(-0.141733 0.222025 0.645209)
(0.171602 0.325953 1.03613)
(0.230556 0.193336 1.66894)
(-0.486498 -0.089071 2.7717)
(-0.101423 0.0307456 -0.0334627)
(0.165043 0.258655 0.325981)
(0.210443 0.39882 2.02536)
(0.300542 -0.168231 2.22419)
(-0.370743 0.0539581 2.2928)
(-0.0502843 0.161785 0.0477076)
(0.704387 1.19406 2.9028)
(1.46101 0.0279533 3.30022)
(0.896181 -0.424989 2.58623)
(-0.0200838 -0.00124819 -0.0631977)
(0.25948 0.209761 3.66642)
(0.674189 0.163816 2.89221)
(0.155489 0.513588 3.03313)
(0.0203455 0.462614 1.63909)
(-0.396798 -0.0755925 2.5367)
(0.0620186 0.00726013 1.84638)
(0.0646358 0.0825763 1.83781)
(-0.444564 0.00947385 2.19878)
(-0.024379 -0.00631973 -0.168644)
(0.0193672 -0.0682591 7.61978e-05)
(-0.0811187 0.0842567 0.734113)
(-0.00122544 -0.0916788 2.27974)
(-0.272963 -0.476775 2.36561)
(-0.30342 -0.263325 2.02376)
(0.00746348 0.00336347 -0.191547)
(0.239572 -0.180902 0.320355)
(0.114115 -1.31797 2.48838)
(-0.108833 -1.442 2.4348)
(-0.345856 -0.770823 2.17277)
(0.0107191 -0.101526 -0.162885)
(0.0625077 -0.290724 2.70406)
(1.5021 -0.595357 3.53951)
(0.805569 -0.562433 2.15055)
(0.0942233 0.027986 -0.159564)
(0.276702 0.410347 1.92825)
(0.593765 0.740402 3.01329)
(-0.00321052 0.880517 3.54997)
(0.202625 0.180518 0.774537)
(0.174126 0.495399 3.54599)
(0.139662 0.257907 1.82988)
(-0.152859 0.469382 1.9266)
(-0.18523 -0.0974137 2.04188)
(0.0378686 0.0108764 -0.274707)
(0.0026838 0.0463841 -0.326118)
(0.313614 0.134931 0.748204)
(-0.168637 -0.431408 2.05187)
(-0.256462 -0.908711 2.17572)
(0.201481 -0.120833 1.99309)
(0.0760267 0.00268004 -0.0206803)
(0.0367387 -0.0316466 -0.235887)
(-0.107004 -1.40095 2.18193)
(-0.192422 -1.65909 2.45092)
(-0.0374588 -1.42167 2.86304)
(0.0390299 -0.124308 -0.147704)
(-0.0517016 -0.159007 0.346025)
(0.801596 -0.746364 2.24785)
(0.181216 -0.329862 0.63066)
(0.14954 0.0356843 -0.210042)
(-0.0772473 0.0725856 0.510506)
(0.571671 0.566761 3.30703)
(-0.0417631 0.692776 2.96915)
(0.32908 0.0470491 0.488147)
(0.258953 0.613112 3.78752)
(-0.0785529 0.288213 1.58685)
(0.0436625 0.568801 2.18995)
(0.251514 -0.0868921 2.22296)
(0.0849153 0.159119 -0.0353173)
(0.00940701 0.00291833 -0.00235794)
(0.0234472 0.129131 -0.233782)
(0.0521347 0.269436 1.3007)
(-0.291971 -0.284783 2.07667)
(-0.152082 -0.84883 2.34606)
(0.61011 -0.0746462 2.11288)
(0.358963 -0.0881063 0.3702)
(0.00420261 0.00161032 -0.000841297)
(0.00801038 0.0322352 -0.302645)
(-0.220586 -0.818133 1.89405)
(-0.109137 -1.3071 2.29595)
(0.159859 -1.22565 2.80265)
(-0.0895814 0.0781231 0.197278)
(-0.0172354 0.0227177 -0.133052)
(-0.303747 -0.397933 1.56048)
(0.113817 -0.0679297 -0.0702139)
(0.128262 0.0154694 -0.252999)
(-0.0838271 -0.133345 0.149375)
(0.581798 0.341626 3.31176)
(-0.0712734 0.342352 2.53895)
(0.450329 0.0454674 0.444454)
(0.212949 0.694266 3.93762)
(-0.224553 0.333326 1.70692)
(0.14229 0.564439 2.35959)
(0.623863 0.0581302 2.22359)
(0.417908 0.221566 0.341645)
(0.141047 0.00897709 0.0184449)
(0.0180962 0.11562 -0.222166)
(-0.36198 0.201561 1.84655)
(-0.43116 -0.122347 2.2969)
(-0.0656916 -0.586213 2.44599)
(0.712226 0.0161466 2.00165)
(0.506832 -0.0187118 0.607439)
(0.0832894 -0.121386 0.138584)
(0.140702 0.339033 -0.0900845)
(-0.266248 -0.308813 1.76199)
(-0.0248336 -0.660683 1.54567)
(0.216773 -0.67145 2.50294)
(-0.145025 0.399104 0.401969)
(-0.418938 -0.100624 -0.209791)
(0.0704176 0.354607 -0.0805445)
(-0.0476157 0.079169 0.414604)
(0.112987 -0.0656118 0.0310719)
(0.111071 0.0317084 -0.266532)
(0.15927 -0.177899 0.0979204)
(0.272528 0.170086 3.32165)
(-0.0848163 -0.133999 1.86118)
(0.630893 -0.0443626 0.418558)
(0.0986158 0.767473 3.88051)
(-0.497843 0.513489 2.33906)
(0.17742 0.821799 2.71473)
(0.772057 0.413085 2.25744)
(0.59018 0.234227 0.931951)
(0.0318327 -0.0427758 0.280918)
(0.0162979 0.0680313 -0.178776)
(-0.569295 0.19097 2.24661)
(-0.477635 0.339333 2.35684)
(0.1962 0.105972 2.60641)
(0.75461 0.329246 1.93784)
(0.474379 0.171148 0.889604)
(0.0219011 -0.097336 0.39664)
(0.142793 0.454325 0.158036)
(-0.206475 0.419151 1.46955)
(0.113388 0.153153 1.53891)
(0.132249 -0.321416 2.30769)
(-0.41378 0.40991 0.787203)
(-0.264336 0.134283 -0.247883)
(0.185797 0.415383 0.262103)
(0.113595 0.0902928 0.337055)
(-0.0224524 -0.157685 0.218004)
(0.102163 -0.00515812 -0.0865598)
(0.171306 -0.0489051 0.0328412)
(-0.690775 -0.120667 3.44209)
(0.135879 -0.501762 0.835357)
(0.504974 -0.157332 0.605136)
(-0.0416071 0.739488 3.87891)
(-0.258217 0.293118 1.57492)
(0.178151 0.503546 1.73644)
(0.554464 0.223276 1.6853)
(0.464301 0.241953 1.34677)
(-0.0548308 0.109218 0.336163)
(0.0195638 0.0389963 -0.0245755)
(-0.670241 0.267925 2.65304)
(-0.161835 0.227546 1.22576)
(0.163933 0.170601 1.7702)
(0.641044 0.329211 1.83529)
(0.520731 0.289332 1.50016)
(-0.217898 0.065666 0.297945)
(0.0435582 0.373502 0.460791)
(-0.0337262 0.505819 1.49227)
(0.0470717 0.423107 1.53752)
(0.0939714 0.0101604 2.2079)
(-0.370741 0.500993 1.25364)
(0.202369 0.30725 0.70753)
(0.166826 -0.00156163 0.654728)
(-0.112534 -0.085803 0.493617)
(0.122603 0.0040626 -0.0285227)
(-0.00825411 -0.037985 0.228696)
(-0.577304 -0.0995009 2.96618)
(0.177236 0.059953 1.05345)
(0.172021 0.117249 0.962748)
(-0.152106 0.577052 3.82609)
(0.00441392 0.254184 1.85149)
(0.0902244 0.355325 2.04244)
(0.323934 0.109216 1.95752)
(-0.218938 0.0394946 1.87567)
(-0.027646 -0.0479335 0.222258)
(-0.702222 0.328157 2.97915)
(0.183241 0.0831771 1.52484)
(0.0343373 0.0391897 1.8972)
(0.512317 0.277182 1.99589)
(-0.192453 0.275076 1.87327)
(0.0861413 0.328755 0.703821)
(0.062448 0.304778 1.59134)
(0.00295528 0.312984 1.65506)
(0.0833416 0.105297 2.22163)
(-0.337155 0.59288 1.66299)
(0.206415 0.215793 1.08974)
(0.137575 0.0513469 0.965174)
(-0.0598906 -0.0312682 0.794545)
(0.0792671 -0.00114842 -0.0212291)
(-0.197432 -0.0687626 0.744561)
(-0.228898 -0.122305 2.23064)
(0.0622046 -0.00608368 0.745607)
(0.0547886 0.0313462 1.00414)
(-0.178731 0.355395 3.60203)
(0.388175 0.245917 1.6595)
(0.0670557 0.333223 1.84375)
(0.231031 0.081315 1.87835)
(-0.204648 0.0220863 1.9217)
(-0.0623239 -0.0358798 0.529996)
(-0.534689 0.309445 2.89682)
(0.359773 0.0391761 1.27415)
(0.0306412 0.00719186 1.85895)
(0.377447 0.17765 2.07529)
(0.140204 0.120664 2.01627)
(0.0290139 0.328122 0.758495)
(0.136733 0.179286 1.55209)
(-0.0264753 0.165604 1.77835)
(0.0618434 0.0740428 2.21591)
(-0.286008 0.380613 1.81938)
(0.24238 0.113017 1.30679)
(0.132669 0.0372914 1.2565)
(-0.0269992 -0.0243148 1.09451)
(0.0259123 -0.0276933 0.0426467)
(0.0353735 -0.292568 1.23807)
(-0.0663822 -0.162563 1.73158)
(0.059968 0.0357846 0.787546)
(-0.0213144 -0.0657269 1.13689)
(-0.313837 0.152739 3.39358)
(0.481188 0.0567721 1.43108)
(0.0733447 0.197193 1.74701)
(0.150357 -0.00279575 1.76851)
(-0.168911 0.033579 1.91684)
(-0.00581981 0.0144673 0.808584)
(-0.438051 0.419099 2.88178)
(0.257061 -0.0108068 1.15178)
(0.0488002 -0.0153445 1.80894)
(0.332505 0.117635 2.08531)
(0.0727365 0.0938832 2.01306)
(0.127764 0.247973 0.832787)
(0.13491 0.16621 1.5562)
(-0.04404 0.117661 1.83699)
(0.0587119 0.0316051 2.20285)
(-0.234292 0.257915 1.87776)
(0.206411 0.0938693 1.47429)
(0.133727 0.0263472 1.45312)
(0.00616144 -0.0234112 1.29759)
(0.0204977 -0.0555155 0.111896)
(0.14713 -0.269901 1.46905)
(-0.0482693 -0.0324882 1.53024)
(-0.034924 0.049196 0.763892)
(-0.0455982 -0.0977395 1.22155)
(-0.212274 0.0681686 3.10369)
(0.309918 -0.0182993 1.43641)
(0.0467223 0.103942 1.81787)
(0.0941731 -0.0606215 1.74964)
(-0.120982 0.0473093 1.9187)
(-0.02632 0.04363 0.951454)
(-0.23312 0.344441 2.6753)
(0.112713 -0.0832814 1.11529)
(0.0426241 -0.0310654 1.82487)
(0.315965 0.0777591 2.11692)
(0.0466267 0.0466276 2.01376)
(0.128239 0.250047 0.934558)
(0.125229 0.136297 1.57683)
(-0.0459416 0.0771986 1.86827)
(0.0717946 0.0142595 2.19631)
(-0.164414 0.151321 1.88567)
(0.143458 0.10196 1.60279)
(0.115552 0.0369296 1.59905)
(0.0423364 -0.0222184 1.43025)
(0.0231014 -0.0824907 0.279822)
(0.154558 -0.283655 1.5636)
(0.0286254 0.0256739 1.43096)
(-0.0393114 -0.0018656 0.812349)
(-0.0198236 -0.114447 1.27839)
(-0.133887 0.0893453 2.9353)
(0.220798 -0.0404793 1.34013)
(0.0500811 0.0834232 1.82035)
(0.0710107 -0.0784779 1.7627)
(-0.0884207 0.0658882 1.90732)
(-0.127237 -0.0288709 1.1869)
(-0.103875 0.25414 2.49733)
(0.0192515 -0.0693549 1.11011)
(0.0385222 -0.0380317 1.80921)
(0.288381 0.0462595 2.14553)
(0.0818667 0.0167708 2.01466)
(0.113527 0.281047 1.08091)
(0.123167 0.120679 1.56136)
(-0.0167471 0.0318736 1.91459)
(0.0884636 0.0134541 2.18462)
(-0.0944184 0.0749444 1.88747)
(0.0744075 0.115615 1.68204)
(0.105505 0.0387058 1.70951)
(0.0657372 -0.0275456 1.53081)
(0.00265904 -0.0585892 0.465238)
(0.126251 -0.250261 1.55871)
(0.125583 0.0715565 1.33431)
(0.0858616 0.0536206 0.842266)
(0.0274418 -0.0946512 1.32243)
(-0.103404 0.0815779 2.79396)
(0.116583 0.0101778 1.29878)
(0.05812 0.0864407 1.8062)
(0.0704317 -0.0734334 1.77737)
(-0.0434517 0.0846386 1.90328)
(0.0014736 0.145142 1.3119)
(-0.13015 0.260444 2.3385)
(-0.0736001 -0.0764776 1.09311)
(0.0479093 -0.0299636 1.75878)
(0.255265 0.0237811 2.14637)
(0.133759 0.000204901 2.04297)
(0.0871111 0.174771 1.13838)
(0.0920448 0.117922 1.5309)
(0.0142327 -0.00971753 1.94508)
(0.105404 0.0202804 2.16777)
(-0.0515631 0.0528981 1.936)
(0.0428048 0.140004 1.74796)
(0.0962077 0.0541972 1.79572)
(0.0551262 -0.031029 1.60228)
(-0.0054288 -0.0176472 0.615179)
(0.0896008 -0.175288 1.50855)
(-0.0130466 0.0992727 1.22901)
(0.0405539 0.132828 0.749952)
(0.0509968 -0.0601017 1.37186)
(-0.107348 0.0827899 2.65344)
(0.0689971 0.00847267 1.30407)
(0.0896863 0.0882528 1.75762)
(0.0688925 -0.0603715 1.78066)
(0.0101394 0.0884153 1.92464)
(-0.00331809 0.165886 1.31795)
(-0.118755 0.251986 2.2911)
(-0.0960998 -0.140291 1.08753)
(0.0400824 -0.00824466 1.6784)
(0.212593 0.0217859 2.12919)
(0.141343 -0.00368699 2.08051)
(0.0721657 0.13199 1.16909)
(0.054258 0.0800132 1.50006)
(0.0217429 -0.0445841 1.93838)
(0.120922 0.0234109 2.14693)
(-0.0374969 0.0577075 2.0095)
(0.0192064 0.128064 1.79075)
(0.1147 0.028391 1.84083)
(0.0507568 -0.0311379 1.66973)
(0.0149978 -0.0155365 0.716788)
(0.145117 -0.174172 1.46078)
(0.107738 0.083435 1.05707)
(0.109364 0.120712 0.691741)
(0.0754982 -0.0328652 1.43021)
(-0.125566 0.0557492 2.47742)
(0.0574051 -0.0530178 1.30644)
(0.140295 0.0587685 1.71134)
(0.0582463 -0.0597975 1.78824)
(0.0460125 0.0919679 1.96956)
(-0.0112695 0.18902 1.40795)
(-0.114795 0.250434 2.27174)
(-0.0911836 -0.237638 1.1384)
(0.00619296 -0.00856426 1.64338)
(0.156119 0.0235536 2.10139)
(0.113335 -0.000484407 2.10269)
(0.0937013 0.104065 1.14534)
(0.0613696 -0.0302962 1.48132)
(-0.008415 -0.08617 1.92647)
(0.125943 0.0158817 2.13257)
(-0.0308506 0.0502766 2.08519)
(0.0276374 0.0805088 1.802)
(0.10776 0.00591903 1.8334)
(0.057915 -0.0239734 1.76361)
(0.0194217 -0.0252008 0.765669)
(0.119357 -0.0238073 1.37207)
(0.335275 0.00567098 0.824446)
(0.151364 0.0854646 0.72643)
(0.0713386 -0.0130618 1.45726)
(-0.145121 0.0225273 2.31934)
(0.0235002 -0.243659 1.32597)
(0.152902 0.00872947 1.69552)
(0.0248517 -0.0656589 1.81243)
(0.0656856 0.0927638 2.02637)
(-0.013711 0.196748 1.51648)
(-0.0813904 0.228675 2.22137)
(-0.0890475 -0.348027 1.20872)
(-0.0317031 -0.0411928 1.64512)
(0.103132 0.01174 2.06908)
(0.0706961 -0.00042098 2.11072)
(0.0551195 0.019063 1.13023)
(0.0845275 -0.174766 1.44074)
(-0.0483458 -0.149502 1.91749)
(0.111752 0.0100121 2.10894)
(-0.0305383 0.0371839 2.14372)
(0.0132989 0.0414704 1.76904)
(0.0467393 -0.016222 1.84718)
(-0.0418243 0.000202683 1.77775)
(0.0181329 -0.036902 0.791843)
(-0.074215 0.170386 1.07438)
(0.164204 -0.0993023 0.823639)
(0.128287 0.00291268 0.832767)
(0.0545216 -0.0121753 1.44916)
(-0.161963 0.0462153 2.2015)
(-0.024578 -0.385337 1.37089)
(0.10889 -0.082409 1.68656)
(-0.0107406 -0.0621779 1.8419)
(0.0757888 0.0935711 2.07582)
(-0.00776852 0.121483 1.59171)
(-0.0499339 0.153194 2.15258)
(-0.0577872 -0.426696 1.26103)
(-0.0671862 -0.130962 1.66291)
(0.0756248 -0.0118692 2.0343)
(0.0477058 0.00476 2.10542)
(0.1196 0.0707063 1.21894)
(0.130963 -0.213475 1.37801)
(-0.0401145 -0.201484 1.91298)
(0.0961125 -0.00105629 2.06503)
(-0.0288001 0.0316619 2.16882)
(0.0589948 -0.108518 1.58213)
(0.0982442 -0.112033 1.84722)
(-0.123131 0.0227316 1.67788)
(0.0214686 -0.0430534 0.858985)
(-0.0512049 0.0305362 1.04559)
(-0.00436276 -0.18814 0.894236)
(0.117993 -0.0778668 0.97219)
(0.048157 -0.000397271 1.39731)
(-0.183933 0.0294869 2.14918)
(-0.068646 -0.416677 1.41472)
(0.0619941 -0.222871 1.67678)
(-0.012705 -0.063162 1.86091)
(0.0781626 0.0988067 2.11826)
(0.00366253 0.0739911 1.50931)
(0.0440524 0.0133737 2.1349)
(0.0445358 -0.421181 1.2896)
(-0.0544149 -0.264252 1.6423)
(0.0844181 -0.0602924 1.99899)
(0.0383076 0.00275876 2.09399)
(0.264649 0.0384156 1.13526)
(0.237723 -0.137393 1.26711)
(-0.00483859 -0.206649 1.92126)
(0.0803032 -0.0335272 1.99865)
(-0.0288928 0.0259359 2.18655)
(0.0407712 0.00700558 1.27215)
(0.248069 -0.108405 1.92615)
(-0.112757 0.0137054 1.66294)
(0.0142961 -0.0502866 0.978067)
(0.0182274 -0.132262 1.28692)
(-0.0431388 -0.177756 0.939536)
(0.109332 -0.139387 1.12326)
(0.0744386 -0.0146152 1.36364)
(-0.152262 -0.00847952 2.0888)
(-0.0823547 -0.393128 1.43096)
(0.0653584 -0.295243 1.68637)
(0.00936075 -0.0811932 1.8874)
(0.087974 0.108789 2.16878)
(-0.0505748 -0.114112 1.421)
(0.185449 -0.0467187 2.04897)
(0.243594 -0.354608 1.31662)
(0.0336961 -0.358832 1.60878)
(0.121385 -0.129731 1.99282)
(0.0237786 -0.00125743 2.09305)
(0.0782827 0.0520706 0.80254)
(0.324939 0.00245884 1.1021)
(0.0837462 -0.175956 1.90191)
(0.0588251 -0.100031 1.92278)
(-0.0491518 0.0421206 2.2106)
(0.00721511 0.0899847 1.17268)
(0.247114 0.043082 1.88155)
(0.0347273 -0.0140315 1.78872)
(0.000293304 -0.0526988 1.13321)
(0.0537415 -0.23838 1.58414)
(0.0721338 -0.136175 0.989923)
(0.109383 -0.175967 1.2293)
(0.104628 -0.0346573 1.38782)
(-0.113518 -0.0537057 2.06902)
(-0.0792039 -0.328036 1.46653)
(0.0726521 -0.295574 1.69633)
(0.0342493 -0.115012 1.95036)
(0.102584 0.123372 2.22314)
(-0.0476856 -0.230589 1.28328)
(0.32469 -0.207581 1.79751)
(0.347246 -0.263011 1.26429)
(0.147097 -0.345382 1.60052)
(0.148001 -0.171579 2.03045)
(0.0148776 0.00178748 2.11199)
(0.0286354 -0.0197083 0.591419)
(0.28127 0.0193833 0.953874)
(0.204961 -0.125582 1.79913)
(0.0765259 -0.12122 1.91587)
(-0.0626484 0.0488893 2.23582)
(-0.0449615 0.0470172 1.17999)
(0.144897 0.17091 1.87927)
(0.114909 -0.0268824 1.86786)
(-0.0146648 -0.0519944 1.30495)
(0.138763 -0.296473 1.84997)
(0.289747 -0.0941252 1.0476)
(0.152705 -0.204734 1.31898)
(0.134653 -0.0563902 1.46349)
(-0.0441292 -0.169958 2.09884)
(-0.00919913 -0.222326 1.52133)
(0.0606348 -0.250967 1.70017)
(0.0282288 -0.125209 2.01001)
(0.119652 0.149696 2.27432)
(-0.0858842 -0.195498 1.3255)
(0.043699 -0.281209 1.43512)
(0.343867 -0.160143 1.12559)
(0.245886 -0.22832 1.60918)
(0.148649 -0.158065 2.07873)
(-0.00970812 0.0307294 2.17296)
(-0.0136289 -0.151915 0.435053)
(0.19866 -0.0374396 0.828088)
(0.235591 -0.0905912 1.71427)
(0.0738564 -0.109891 1.9568)
(-0.0798814 0.0693952 2.29352)
(-0.100912 -0.104923 1.14288)
(0.0504168 0.102804 1.84592)
(0.146097 -0.0154568 1.901)
(-0.0301044 -0.0481097 1.45931)
(0.307762 -0.290178 1.78508)
(0.44287 -0.0485354 1.13536)
(0.207309 -0.228374 1.45266)
(0.152855 -0.0779201 1.56463)
(0.00541454 -0.144958 2.14737)
(0.18965 -0.109083 1.55207)
(0.0918478 -0.158513 1.70786)
(0.0116522 -0.0998008 2.04341)
(0.131444 0.18222 2.31922)
(-0.0606436 0.179487 1.49348)
(0.0379389 -0.025906 1.19141)
(0.310024 -0.0959279 1.00082)
(0.30737 -0.0824533 1.6321)
(0.138662 -0.0964473 2.15534)
(-0.0155832 0.0875816 2.25241)
(-0.00209188 -0.150421 0.336573)
(0.12015 -0.106102 0.759589)
(0.211562 -0.0587053 1.69427)
(0.0696649 -0.0391921 2.04943)
(-0.104185 0.104271 2.34731)
(-0.117705 -0.15923 1.0332)
(0.0208449 -0.123589 1.71163)
(0.143198 -0.00566028 1.95062)
(-0.04727 -0.0455056 1.57142)
(0.371195 -0.211068 1.41468)
(0.378231 0.00323234 1.26857)
(0.209147 -0.22276 1.57788)
(0.151381 -0.0884408 1.67153)
(0.253493 -0.0796449 2.06539)
(0.369971 -0.0663788 1.59971)
(0.230697 -0.0924948 1.74522)
(0.0256667 -0.0523007 2.06104)
(0.137564 0.214695 2.35533)
(0.025703 0.382664 1.31673)
(0.167792 0.103414 1.12808)
(0.272721 -0.0854737 0.942745)
(0.31579 0.00839418 1.66837)
(0.144362 -0.0401411 2.22834)
(-0.0276424 0.174281 2.35469)
(0.0261132 -0.1167 0.328435)
(0.0292588 -0.168962 0.732384)
(0.112908 -0.0229383 1.72582)
(0.0274443 0.0651913 2.18783)
(-0.126513 0.173938 2.38772)
(-0.15198 -0.144056 0.877252)
(-0.0517562 -0.142483 1.54219)
(0.0833033 0.0178719 2.02546)
(-0.0557996 -0.0408535 1.64418)
(0.128803 -0.00578387 1.21603)
(0.207637 -0.00178064 1.35357)
(0.179497 -0.194744 1.65046)
(0.141164 -0.0816718 1.76284)
(0.354131 0.0986394 1.69364)
(0.414322 -0.0937698 1.66779)
(0.345025 -0.0619581 1.7945)
(0.0745359 0.0138927 2.08775)
(0.147239 0.242188 2.37904)
(0.0524155 0.165216 0.998088)
(0.124668 0.0312765 1.14221)
(0.212156 -0.122277 0.945871)
(0.293366 0.0227391 1.69355)
(0.153114 -0.00293359 2.28872)
(-0.0372153 0.26738 2.46231)
(0.0326935 -0.103834 0.359152)
(-0.0884507 -0.219646 0.724541)
(-0.0926538 -0.0278725 1.79091)
(-0.0532736 0.161401 2.31006)
(-0.157793 0.272849 2.41819)
(-0.236322 -0.136962 0.698273)
(-0.182799 -0.110213 1.42318)
(-0.0366604 0.0786889 2.12414)
(-0.0535138 -0.0360849 1.69112)
(-0.0310745 0.0813453 1.10816)
(0.0777362 -0.0690393 1.39475)
(0.177818 -0.142602 1.67941)
(0.133129 -0.0624029 1.82613)
(0.201267 -0.0836313 1.43928)
(0.38142 -0.121287 1.69045)
(0.378616 -0.0297368 1.84055)
(0.131495 0.0909069 2.11465)
(0.15879 0.274975 2.41403)
(0.0141057 0.0716881 0.852073)
(0.137205 -0.0523024 1.0042)
(0.0837105 -0.196947 0.99521)
(0.253453 -0.022429 1.7113)
(0.121337 0.0476144 2.35892)
(-0.0444052 0.367149 2.55903)
(0.0214253 -0.0971821 0.38692)
(-0.174159 -0.248865 0.743642)
(-0.232048 -0.125764 1.77888)
(-0.110971 0.176492 2.35356)
(-0.188345 0.3494 2.43151)
(-0.285077 -0.176994 0.558388)
(-0.234552 -0.0463232 1.3152)
(-0.155554 0.135598 2.25278)
(-0.0478457 -0.0308871 1.73111)
(-0.0932534 0.0873803 1.09371)
(0.00651885 -0.0894742 1.45248)
(0.17423 -0.0714234 1.67474)
(0.134795 -0.0409167 1.8663)
(0.0940656 -0.19787 1.33335)
(0.259179 -0.102131 1.68126)
(0.354549 -0.0100151 1.87032)
(0.172088 0.14889 2.11914)
(0.168114 0.307983 2.44282)
(0.000645836 0.0574931 0.776182)
(0.133969 -0.058846 0.845723)
(-0.062145 -0.237639 1.06097)
(0.147906 -0.149633 1.76346)
(0.0365666 0.12255 2.44593)
(-0.041995 0.435642 2.63285)
(0.00810605 -0.0870906 0.404061)
(-0.188802 -0.232338 0.783129)
(-0.287326 -0.224843 1.68151)
(-0.114218 0.159403 2.362)
(-0.189861 0.403597 2.47394)
(-0.218003 -0.170205 0.506105)
(-0.250439 -0.118899 1.17165)
(-0.211553 0.140387 2.28337)
(-0.0469918 -0.0241289 1.76695)
(-0.0970721 0.0590536 1.13496)
(-0.012445 -0.0459274 1.49033)
(0.14332 -0.00730048 1.62815)
(0.14015 -0.0196259 1.88858)
(0.0155049 -0.128941 1.32207)
(0.0944904 -0.053279 1.632)
(0.312645 -0.0298589 1.87582)
(0.181281 0.172796 2.10714)
(0.167536 0.330817 2.45748)
(-0.00479863 0.037478 0.753355)
(0.066146 -0.0427296 0.803433)
(-0.17812 -0.217394 1.12493)
(0.0144394 -0.228676 1.81555)
(-0.0628422 0.168302 2.52219)
(-0.036553 0.493321 2.67375)
(-0.00878054 -0.0751946 0.424176)
(-0.174357 -0.149266 0.836171)
(-0.27898 -0.227079 1.61411)
(-0.10691 0.113778 2.37914)
(-0.190189 0.426623 2.55735)
(-0.122754 -0.120651 0.492159)
(-0.233708 -0.186678 0.923693)
(-0.257577 0.119962 2.17745)
(-0.0496427 -0.0152695 1.79901)
(-0.0603769 0.0081257 1.19262)
(0.0138368 -0.00305662 1.48612)
(0.11602 0.034942 1.57445)
(0.153218 -0.00347082 1.8991)
(-0.0290031 -0.0534443 1.34486)
(0.0241043 -0.0427594 1.57816)
(0.231158 -0.099964 1.86438)
(0.175738 0.171663 2.09503)
(0.16513 0.349635 2.45748)
(-0.0124599 0.00408517 0.79552)
(0.00841888 -0.0187565 0.795312)
(-0.213244 -0.157088 1.18298)
(-0.0827184 -0.218478 1.81476)
(-0.131346 0.138394 2.57735)
(-0.0264763 0.539175 2.67365)
(-0.0371937 -0.0605766 0.462053)
(-0.180485 -0.0656148 0.872153)
(-0.239445 -0.136865 1.58953)
(-0.155897 -0.00841851 2.46328)
(-0.207944 0.440668 2.64149)
(-0.0633812 -0.0789847 0.481242)
(-0.184684 -0.133172 0.709945)
(-0.187607 0.029204 1.96767)
(-0.0472557 -0.0072677 1.814)
(-0.0164072 -0.0384033 1.24311)
(0.0443593 -0.00596717 1.4612)
(0.105055 0.0427358 1.55117)
(0.165402 0.0151515 1.90547)
(-0.0398146 -0.0379493 1.36646)
(0.0200992 -0.0536115 1.54691)
(0.195189 -0.154711 1.84729)
(0.161714 0.144056 2.08618)
(0.159476 0.372327 2.44921)
(-0.0133105 -0.0119516 0.865955)
(-0.0245853 -0.0347126 0.750921)
(-0.161983 -0.0965415 1.23202)
(-0.0967058 -0.176427 1.77405)
(-0.148443 0.0769683 2.60645)
(-0.00604815 0.548813 2.65108)
(-0.0700357 -0.0579987 0.514513)
(-0.213417 -0.0261239 0.899316)
(-0.199312 -0.00573553 1.54168)
(-0.146004 -0.0792084 2.52042)
(-0.227342 0.461073 2.70891)
(-0.0363859 -0.0546123 0.485939)
(-0.15712 -0.098296 0.588201)
(-0.0349288 -0.0459175 1.75489)
(-0.0208019 -0.0115013 1.83302)
(0.0158835 -0.073165 1.2745)
(0.0648947 -0.0553135 1.44111)
(0.106112 0.0295084 1.55618)
(0.191265 0.029105 1.9183)
(-0.0462403 -0.058616 1.36202)
(0.0573325 -0.0867014 1.52634)
(0.209247 -0.193316 1.82817)
(0.15049 0.098131 2.10553)
(0.157128 0.390234 2.43967)
(-0.00787415 -0.00633605 0.929317)
(-0.0270251 -0.0835786 0.719838)
(-0.0959579 -0.0806817 1.23997)
(-0.0460929 -0.116669 1.68784)
(-0.139849 0.0473386 2.60619)
(0.00392898 0.540237 2.63844)
(-0.0982637 -0.066872 0.575897)
(-0.262352 -0.0372036 0.922015)
(-0.210634 0.0356972 1.4858)
(-0.127585 -0.0445932 2.56015)
(-0.242548 0.487878 2.76292)
(-0.0241359 -0.0399479 0.506892)
(-0.168086 -0.0884842 0.53573)
(0.00974331 0.0220007 1.69339)
(0.0330888 -0.00685504 1.85619)
(0.0389125 -0.106084 1.334)
(0.0867521 -0.119661 1.44999)
(0.126702 0.00176202 1.59758)
(0.21775 0.0421971 1.94136)
(-0.0536681 -0.16424 1.29685)
(0.101098 -0.173466 1.48808)
(0.233103 -0.229211 1.81772)
(0.155785 0.0888494 2.1375)
(0.16885 0.404669 2.42872)
(-0.00923335 0.00106439 0.973604)
(-0.0156601 -0.146742 0.736617)
(-0.0724485 -0.103727 1.21199)
(-0.0262134 -0.111576 1.62426)
(-0.138754 0.049715 2.59172)
(0.00529169 0.531977 2.64166)
(-0.122442 -0.0849593 0.62765)
(-0.307144 -0.0804678 0.941668)
(-0.275882 -0.0140369 1.43775)
(-0.116066 0.0450885 2.55165)
(-0.244948 0.514325 2.79227)
(-0.0113222 -0.0263774 0.536975)
(-0.206775 -0.0808556 0.536336)
(-0.132621 0.166312 1.83212)
(0.0820225 0.00402287 1.86239)
(0.0701064 -0.133506 1.42336)
(0.113724 -0.157076 1.49092)
(0.151615 -0.0376329 1.6548)
(0.258716 0.0731796 1.9881)
(-0.0014123 -0.192915 1.22987)
(0.104257 -0.239744 1.45078)
(0.239164 -0.26145 1.82125)
(0.152777 0.115341 2.16645)
(0.191048 0.422926 2.42739)
(-0.0126489 0.00575527 0.99918)
(-0.00555981 -0.198636 0.769938)
(-0.0811594 -0.157581 1.15346)
(-0.0587934 -0.146047 1.58264)
(-0.16915 0.0600598 2.54796)
(0.00550861 0.531532 2.65964)
(-0.136666 -0.109458 0.65237)
(-0.326077 -0.12325 0.956764)
(-0.377483 -0.11286 1.37728)
(-0.129282 0.0702453 2.52566)
(-0.226945 0.510306 2.81111)
(0.0088878 -0.0101184 0.554104)
(-0.192303 -0.0575461 0.575598)
(-0.415353 0.124509 1.69325)
(0.145678 0.0169614 1.87303)
(0.113452 -0.154886 1.49495)
(0.149458 -0.172604 1.54484)
(0.176567 -0.0805629 1.71838)
(0.280543 0.103014 2.04006)
(0.0591087 -0.168302 1.18772)
(0.0804079 -0.266288 1.43033)
(0.219582 -0.280618 1.83353)
(0.10228 0.154631 2.20602)
(0.196693 0.435798 2.41873)
(-0.0126633 0.0136084 0.999368)
(-0.00436102 -0.209718 0.807965)
(-0.0875436 -0.188119 1.11663)
(-0.10593 -0.182301 1.56122)
(-0.230393 0.0094285 2.49831)
(-0.00505203 0.547151 2.68628)
(-0.138287 -0.126665 0.651715)
(-0.322447 -0.145608 0.961468)
(-0.42215 -0.156242 1.30833)
(-0.129963 0.0425379 2.50699)
(-0.20953 0.490812 2.83926)
(0.0390944 0.00915416 0.551577)
(-0.0886796 -0.0351434 0.597986)
(-0.358223 0.0712868 1.22405)
(0.1879 0.0209929 1.93636)
(0.129634 -0.141267 1.51818)
(0.190901 -0.146056 1.57737)
(0.200417 -0.052021 1.80031)
(0.270952 0.105076 2.09176)
(0.0674827 -0.131591 1.16373)
(0.0338638 -0.262594 1.43496)
(0.167231 -0.28819 1.87282)
(-0.0244188 0.169226 2.25442)
(0.22651 0.460763 2.38339)
(-0.00711218 0.0342964 0.979765)
(-0.00995767 -0.184287 0.851493)
(-0.0850609 -0.189446 1.10161)
(-0.137 -0.191932 1.55759)
(-0.291605 -0.0950529 2.455)
(-0.0132169 0.561402 2.69898)
(-0.12301 -0.129609 0.651495)
(-0.311835 -0.146811 0.959109)
(-0.419363 -0.157381 1.23375)
(-0.135233 -0.0407862 2.48636)
(-0.211171 0.486562 2.86565)
(0.0615046 0.0254694 0.535912)
(-0.00227546 -0.0210602 0.585493)
(-0.258242 0.0968089 0.955016)
(0.192584 0.0217862 1.97364)
(0.113453 -0.0676826 1.46226)
(0.189948 -0.101266 1.60434)
(0.143928 -0.0212337 1.88192)
(0.244579 0.0994682 2.13254)
(0.0142761 -0.0836974 1.14957)
(-0.0611193 -0.187435 1.44988)
(0.0900368 -0.261556 1.95389)
(-0.15585 0.151902 2.26941)
(0.249199 0.47555 2.34777)
(0.00155244 0.0720791 0.964539)
(-0.0252425 -0.134598 0.893704)
(-0.085323 -0.170569 1.10441)
(-0.154137 -0.169542 1.57374)
(-0.336412 -0.174679 2.42242)
(-0.0124778 0.565312 2.68771)
(-0.0787819 -0.112666 0.697265)
(-0.287668 -0.117968 0.946673)
(-0.385262 -0.133007 1.17729)
(-0.218715 -0.196625 2.4002)
(-0.216437 0.481989 2.87524)
(0.0650607 0.0357638 0.518208)
(0.0353632 -0.0149731 0.568464)
(-0.186176 0.0824309 0.874596)
(0.19518 0.0110168 1.97741)
(0.0768138 -0.0375649 1.37433)
(0.0693715 -0.0493162 1.68612)
(0.0128766 -0.0558121 1.9304)
(0.196841 0.0643425 2.12375)
(-0.0752642 -0.0110774 1.14571)
(-0.190144 -0.0155252 1.43081)
(0.0289868 -0.180498 1.99168)
(-0.230441 0.146381 2.25189)
(0.235507 0.48139 2.29994)
(0.00602849 0.135947 0.978826)
(-0.0567483 -0.0573122 0.944423)
(-0.125344 -0.0999144 1.13792)
(-0.192325 -0.0631468 1.61899)
(-0.359144 -0.201051 2.38177)
(-0.0111686 0.549989 2.64676)
(-0.00622978 -0.061895 0.80257)
(-0.25423 -0.049074 0.941695)
(-0.355145 -0.0735087 1.15741)
(-0.269849 -0.199506 2.25026)
(-0.205195 0.453727 2.89943)
(0.0419444 0.0486496 0.520708)
(0.0374155 -0.00796184 0.571973)
(-0.156042 0.0528175 0.850898)
(0.189371 0.00327982 2.01297)
(0.00744117 -0.0313542 1.37203)
(-0.124577 0.017139 1.71212)
(-0.0291668 -0.0409817 1.94451)
(0.164767 0.0323809 2.12158)
(-0.178313 0.0755393 1.1692)
(-0.309362 0.13949 1.39028)
(-0.0887432 -0.0182585 1.93704)
(-0.234838 0.182251 2.2259)
(0.2094 0.470014 2.21921)
(0.008758 0.197325 1.04817)
(-0.103228 0.031111 1.02159)
(-0.218546 0.0166336 1.22193)
(-0.26553 0.105984 1.65034)
(-0.353085 -0.176988 2.32734)
(-0.0150013 0.553835 2.59086)
(0.0685164 0.0165849 0.943275)
(-0.243238 0.0139532 0.972672)
(-0.352738 0.00943293 1.17605)
(-0.245803 -0.0622552 2.04397)
(-0.214272 0.470396 2.92741)
(-0.00742093 0.0701735 0.564631)
(-0.0068729 0.0308466 0.641097)
(-0.166745 0.0500058 0.832906)
(0.120578 -0.00967073 2.05947)
(-0.0838703 0.0290507 1.42648)
(-0.247572 0.100895 1.62592)
(-0.0734677 0.0596284 1.81899)
(0.13444 0.0420938 2.12452)
(-0.240629 0.151245 1.24544)
(-0.412069 0.216803 1.41155)
(-0.313102 0.14558 1.82865)
(-0.293632 0.290632 2.15554)
(0.200703 0.44537 2.11245)
(0.0102974 0.236985 1.16369)
(-0.155557 0.109081 1.12931)
(-0.305582 0.0863743 1.33197)
(-0.349837 0.229145 1.66111)
(-0.346452 -0.034593 2.26911)
(-0.0166324 0.531029 2.50286)
(0.106587 0.091112 1.08719)
(-0.230739 0.0561286 1.04691)
(-0.367498 0.0710248 1.23237)
(-0.280679 0.0501117 1.85166)
(-0.204294 0.460938 2.9728)
(-0.044903 0.0869096 0.646283)
(-0.0559324 0.0888936 0.769237)
(-0.18777 0.0756838 0.8411)
(-0.1592 0.00262021 1.8437)
(-0.162774 0.124067 1.45847)
(-0.265303 0.165178 1.55952)
(-0.294518 0.163398 1.58288)