/*--------------------------------*- C++ -*----------------------------------*\
| =========                 |                                                 |
| \\      /  F ield         | OpenFOAM: The Open Source CFD Toolbox           |
|  \\    /   O peration     | Version:  5.x                                   |
|   \\  /    A nd           | Web:      www.OpenFOAM.org                      |
|    \\/     M anipulation  |                                                 |
\*---------------------------------------------------------------------------*/
FoamFile
{
    version     2.0;
    format      ascii;
    class       volScalarField;
    location    "9";
    object      p;
}
// * * * * * * * * * * * * * * * * * * * * * * * * * * * * * * * * * * * * * //

dimensions      [0 2 -2 0 0 0 0];

internalField   nonuniform List<scalar> 
10571
(
235.536
245.462
244.836
226.949
220.373
247.112
234.924
214.828
210.773
210.833
249.922
252.013
234.408
221.865
215.967
216.132
262.67
254.194
243.695
234.388
223.429
261.906
251.704
244.159
125.939
136.854
169.872
191.671
180.139
197.75
190.47
199.035
160.449
121.717
178.545
192.891
156.928
142.978
71.9973
109.726
183.756
151.72
137.224
159.724
134.403
196.603
209.474
183.146
15.8435
17.358
24.8763
64.0302
51.3814
45.1558
89.8573
69.4518
24.4152
14.7693
23.9658
22.3708
22.2926
18.2525
13.7105
13.1402
66.7432
23.8415
19.4519
17.5443
18.2984
90.4108
90.4501
66.0041
14.4179
14.7449
12.5737
13.2357
12.8766
14.8
16.5338
13.3381
12.2344
14.4955
15.4739
14.6969
12.7352
12.972
14.422
14.7234
14.8848
13.1323
12.7697
14.7255
14.8113
23.1694
21.4485
16.2029
13.4883
13.6163
13.1469
13.6561
13.5893
13.5173
13.0066
13.7518
13.7923
14.1812
14.2656
14.0395
14.7378
15.7339
14.5431
14.416
14.1983
14.698
14.9517
14.2064
14.2719
14.1628
14.1375
14.2104
13.532
13.3968
13.6534
13.6568
13.7776
13.6697
14.0131
14.1183
13.8853
13.8349
13.9169
13.965
13.8912
14.1363
14.4736
14.0307
14.2718
14.0825
13.9642
13.9778
13.9521
13.999
14.0768
13.8234
13.9398
14.0138
13.9133
13.5048
13.8783
13.8187
13.9642
13.6713
13.821
13.5588
13.8373
13.8213
13.8958
13.8113
13.8257
13.8377
13.382
13.8211
13.9869
14.0161
13.8434
13.9713
13.7796
13.83
14.019
14.0658
13.8089
13.7969
13.8254
14.2228
13.7647
13.8702
13.9912
14.0758
13.7482
13.7324
13.6558
13.8381
13.8331
13.8025
13.7755
13.8095
13.7569
13.6649
13.9034
13.9119
13.9374
13.8294
13.8586
13.7743
13.7893
13.953
14.0265
13.835
13.804
13.8228
14.1359
13.8553
13.9
14.0143
14.0738
13.8462
13.8341
13.8315
13.9254
14.032
14.0324
13.8276
13.7073
13.77
13.7734
13.9353
13.8859
13.898
13.8373
13.8499
13.8131
13.8329
13.7889
13.856
13.8542
13.8817
14.1058
13.9701
13.9694
14.0492
14.0591
13.9411
13.9604
13.958
13.9995
13.9581
13.9311
13.8883
13.868
13.8391
13.9567
13.9562
13.9223
13.8815
13.8595
13.8736
13.8713
13.9022
13.9071
13.9335
14.113
14.0405
14.0453
14.1095
14.0864
14.0187
14.0312
14.0195
14.0393
14.0362
14.0056
13.9946
13.9449
13.9323
13.9954
13.9631
13.9857
13.9307
13.9279
13.9407
13.9785
13.9645
13.9748
13.9971
14.141
14.0974
14.1074
14.1446
14.1184
14.0771
14.0702
14.0701
14.0896
14.0973
14.0612
14.0405
14.0052
14.0104
14.0622
14.0505
14.0349
13.9949
14.0046
14.0201
14.0607
14.0337
14.0429
14.0626
14.1636
14.1363
14.135
14.1629
14.1529
14.1169
14.1006
14.1188
14.1459
14.1433
14.1059
14.074
14.0594
14.0706
14.1293
14.1191
14.0851
14.0601
14.0755
14.0943
14.129
14.096
14.1047
14.1222
14.1682
14.1526
14.1531
14.169
14.1791
14.1331
14.1249
14.1554
14.1839
14.1791
14.1423
14.1108
14.1096
14.1267
14.1798
14.187
14.1299
14.1166
14.1363
14.1505
14.1814
14.1473
14.1554
14.1694
14.195
14.167
14.1806
14.1871
14.1991
14.1426
14.1434
14.183
14.2081
14.2122
14.1693
14.1427
14.1543
14.1772
14.2127
14.2246
14.1658
14.1605
14.185
14.1873
14.2111
14.1908
14.1959
14.2012
14.2125
14.1701
14.1769
14.1885
14.2
14.1458
14.1613
14.2137
14.2259
14.2301
14.1886
14.1698
14.1897
14.2136
14.2269
14.2367
14.1915
14.1898
14.2208
14.2094
14.2289
14.2228
14.225
14.2228
14.1968
14.1703
14.1769
14.178
14.1912
14.1513
14.1665
14.2235
14.219
14.2291
14.2087
14.2062
14.2091
14.2314
14.2302
14.2417
14.2101
14.2074
14.2357
14.2258
14.2401
14.2442
14.242
14.2387
14.193
14.176
14.1801
14.1808
14.1868
14.1772
14.17
14.2152
14.1968
14.2203
14.2194
14.2294
14.2207
14.2349
14.2244
14.2471
14.2201
14.2204
14.2384
14.2365
14.2501
14.2588
14.2528
14.2509
14.1918
14.186
14.1892
14.1885
14.1867
14.1962
14.1889
14.2146
14.1683
14.185
14.2187
14.222
14.2329
14.2283
14.2165
14.2337
14.2232
14.2351
14.2367
14.241
14.2573
14.2687
14.2592
14.2603
14.1896
14.1982
14.197
14.1886
14.2092
14.2051
14.1965
14.2097
14.1529
14.1619
14.2164
14.2091
14.2324
14.2228
14.2109
14.2194
14.2271
14.2462
14.2289
14.2409
14.2666
14.2723
14.2609
14.2647
14.1919
14.2119
14.2032
14.194
14.2345
14.2092
14.1727
14.1787
14.1765
14.1988
14.2182
14.2031
14.2248
14.2178
14.2146
14.2174
14.2355
14.2439
14.2152
14.2301
14.2656
14.2672
14.2556
14.2589
14.2123
14.218
14.2098
14.1858
14.2027
14.2124
14.1686
14.149
14.1712
14.2109
14.2235
14.2124
14.2136
14.2003
14.201
14.2027
14.2424
14.2293
14.2012
14.2102
14.23
14.2553
14.2423
14.2428
14.2373
14.2259
14.2196
14.1886
14.2035
14.2186
14.1792
14.1563
14.1625
14.2136
14.2296
14.2194
14.2015
14.1815
14.1629
14.17
14.242
14.2145
14.1871
14.1764
14.1658
14.2404
14.2249
14.2128
14.2426
14.2458
14.2356
14.2128
14.2216
14.2315
14.1909
14.1634
14.1738
14.2126
14.2376
14.2301
14.1934
14.1711
14.1319
14.1388
14.2368
14.2052
14.1684
14.123
14.1231
14.2282
14.2057
14.1856
14.2493
14.2636
14.2523
14.2234
14.2287
14.2522
14.1993
14.1704
14.1925
14.2152
14.2424
14.2368
14.1932
14.1598
14.1236
14.136
14.2318
14.2012
14.1591
14.1062
14.1208
14.2208
14.1928
14.1738
14.2265
14.2804
14.2461
14.215
14.2234
14.2429
14.2091
14.1764
14.2091
14.2167
14.2457
14.2341
14.1883
14.1497
14.1336
14.1589
14.2276
14.1989
14.1701
14.1255
14.1489
14.2161
14.189
14.1747
14.2024
14.283
14.2384
14.1994
14.2135
14.2601
14.2153
14.2005
14.2215
14.217
14.2409
14.2308
14.1804
14.1461
14.1524
14.1874
14.2242
14.2015
14.189
14.1538
14.1809
14.2139
14.194
14.1863
14.2006
14.2532
14.2227
14.1993
14.2053
14.2269
14.2033
14.2186
14.2193
14.2187
14.2235
14.219
14.1716
14.1603
14.175
14.2067
14.2192
14.2062
14.2038
14.183
14.2046
14.2145
14.2028
14.2006
14.2041
14.2198
14.2072
14.1984
14.2058
14.1854
14.1832
14.2124
14.2114
14.2199
14.2071
14.1897
14.172
14.1786
14.1972
14.2148
14.2088
14.2044
14.2082
14.2029
14.2198
14.2144
14.2104
14.213
14.2055
14.1814
14.1963
14.1972
14.2094
14.1283
14.1779
14.2029
14.2082
14.2192
14.1707
14.1256
14.2002
14.194
14.2152
14.2205
14.1927
14.207
14.208
14.2151
14.2305
14.2178
14.2177
14.222
14.2075
14.1747
14.1975
14.1993
14.2156
14.1244
14.1925
14.2058
14.2113
14.2205
14.149
14.1153
14.2246
14.2012
14.2218
14.2235
14.185
14.2045
14.214
14.2228
14.2358
14.2258
14.2272
14.23
14.2158
14.1917
14.2069
14.2096
14.2235
14.1484
14.2121
14.2177
14.2115
14.2257
14.1802
14.1936
14.2139
14.2093
14.2218
14.2287
14.1989
14.2179
14.2265
14.2262
14.2387
14.2339
14.234
14.2358
14.2275
14.216
14.219
14.2214
14.2336
14.1818
14.2291
14.2285
14.2118
14.2351
14.2477
14.2302
14.2149
14.2184
14.2196
14.2389
14.2168
14.2387
14.2357
14.2279
14.2427
14.2387
14.2367
14.239
14.2382
14.2345
14.2297
14.2325
14.2431
14.2116
14.2409
14.2299
14.2281
14.2481
14.2501
14.2277
14.2256
14.2289
14.2257
14.2521
14.2294
14.2411
14.237
14.2293
14.2484
14.2422
14.2384
14.2429
14.2459
14.2429
14.2377
14.2417
14.2512
14.2266
14.2421
14.2315
14.2386
14.2546
14.2446
14.2232
14.2328
14.2341
14.2375
14.2562
14.2697
14.2473
14.2365
14.2382
14.2574
14.2482
14.2389
14.2509
14.2524
14.2485
14.243
14.2481
14.2564
14.2331
14.2396
14.24
14.2439
14.2581
14.2384
14.2084
14.2416
14.2411
14.2356
14.259
14.2708
14.2466
14.2434
14.2533
14.2807
14.2464
14.243
14.2595
14.2624
14.2572
14.2479
14.254
14.26
14.2551
14.2444
14.2545
14.2552
14.2647
14.2294
14.1905
14.2398
14.241
14.248
14.2572
14.2512
14.2332
14.2372
14.2564
14.2703
14.2446
14.2441
14.2632
14.2717
14.2602
14.2519
14.2608
14.2673
14.2551
14.249
14.2576
14.2639
14.2722
14.24
14.1867
14.2372
14.2574
14.284
14.2656
14.231
14.2216
14.243
14.264
14.2679
14.2409
14.2474
14.2664
14.2743
14.2573
14.2541
14.2617
14.2717
14.2419
14.2431
14.2547
14.2666
14.2783
14.2054
14.1921
14.2231
14.2681
14.2927
14.2739
14.2161
14.2143
14.2459
14.2763
14.2748
14.234
14.2554
14.2687
14.2726
14.2546
14.2551
14.2602
14.272
14.2456
14.2459
14.2566
14.2686
14.2807
14.2519
14.2186
14.2091
14.2639
14.2762
14.2748
14.227
14.2241
14.2456
14.278
14.2716
14.236
14.2578
14.2649
14.2708
14.2531
14.2548
14.2609
14.2721
14.2443
14.2522
14.2597
14.2703
14.2811
14.2805
14.2548
14.2061
14.2555
14.2645
14.2725
14.2515
14.2368
14.2524
14.2592
14.2629
14.2475
14.2589
14.2578
14.2696
14.2569
14.2528
14.261
14.2731
14.2482
14.2544
14.2623
14.2728
14.282
14.2968
14.2848
14.2132
14.25
14.2632
14.2738
14.274
14.246
14.2531
14.2482
14.2611
14.2593
14.2583
14.2523
14.2685
14.2656
14.2493
14.2597
14.2741
14.2629
14.2522
14.2638
14.2747
14.2853
14.3022
14.303
14.2321
14.253
14.267
14.2796
14.2908
14.2627
14.2558
14.2464
14.268
14.2674
14.2563
14.2545
14.2683
14.2788
14.2474
14.2573
14.2744
14.2818
14.2596
14.2645
14.277
14.2913
14.3023
14.2996
14.2502
14.2688
14.2695
14.2862
14.3096
14.2772
14.2577
14.2523
14.2749
14.2714
14.2592
14.2573
14.2695
14.2897
14.2504
14.2564
14.2738
14.3003
14.267
14.2638
14.2749
14.2956
14.288
14.2796
14.2676
14.276
14.2731
14.291
14.2951
14.2708
14.2546
14.2695
14.2776
14.2714
14.2631
14.2681
14.2722
14.2831
14.2618
14.2579
14.2738
14.2844
14.2625
14.2629
14.2667
14.2976
14.2647
14.2531
14.2716
14.2796
14.288
14.2962
14.2381
14.2441
14.2624
14.2894
14.2897
14.2687
14.2777
14.2889
14.277
14.2626
14.2701
14.2632
14.2739
14.2571
14.2632
14.2635
14.2575
14.2972
14.2569
14.2487
14.2776
14.2844
14.305
14.2995
14.219
14.2304
14.2751
14.3022
14.3067
14.2876
14.3081
14.3223
14.285
14.27
14.2809
14.275
14.2791
14.2547
14.2697
14.2648
14.2531
14.2959
14.291
14.2797
14.3033
14.2953
14.3127
14.301
14.2614
14.2388
14.2828
14.3134
14.3195
14.3064
14.3222
14.3414
14.3001
14.3004
14.2966
14.2918
14.2945
14.2991
14.2824
14.2664
14.2528
14.2966
14.3431
14.3334
14.3246
14.3117
14.3182
14.3044
14.3215
14.2644
14.2824
14.3161
14.3268
14.307
14.3115
14.3269
14.3264
14.3319
14.3141
14.3153
14.3143
14.339
14.3046
14.2895
14.2561
14.2973
14.3801
14.3742
14.3424
14.3216
14.3209
14.308
14.3783
14.2811
14.2936
14.3207
14.3338
14.2979
14.3022
14.3268
14.3435
14.3496
14.33
14.3316
14.3368
14.3528
14.3169
14.3099
14.2666
14.2963
14.3903
14.3851
14.3366
14.3197
14.3191
14.3094
14.4266
14.2964
14.3096
14.3298
14.3398
14.292
14.3025
14.3357
14.3415
14.3413
14.3319
14.3321
14.3491
14.3433
14.3111
14.3086
14.2792
14.2946
14.3717
14.3655
14.3106
14.3085
14.3125
14.3061
14.4134
14.3059
14.319
14.3398
14.3395
14.3025
14.3087
14.3416
14.3309
14.3286
14.322
14.3218
14.3468
14.3271
14.2983
14.2941
14.2851
14.2897
14.3333
14.3266
14.2789
14.2859
14.2967
14.2981
14.3284
14.2771
14.3126
14.3306
14.3312
14.296
14.3061
14.3348
14.3241
14.3148
14.3105
14.3103
14.3307
14.3091
14.2812
14.2718
14.2823
14.2825
14.2885
14.2778
14.2563
14.251
14.2728
14.2849
14.2476
14.2335
14.2897
14.3065
14.3142
14.274
14.2951
14.3171
14.3208
14.3028
14.3017
14.3003
14.3162
14.2954
14.2684
14.2457
14.2747
14.2814
14.2557
14.2428
14.247
14.2151
14.2433
14.265
14.2037
14.2185
14.2595
14.2792
14.2862
14.2627
14.2794
14.2964
14.3192
14.2989
14.2964
14.2912
14.2949
14.2914
14.267
14.2276
14.252
14.2808
14.2496
14.237
14.2447
14.1911
14.2099
14.2442
14.2115
14.2212
14.2241
14.2431
14.2491
14.2551
14.2601
14.2679
14.3192
14.3055
14.2942
14.29
14.2708
14.2985
14.274
14.2187
14.2137
14.2657
14.2688
14.2503
14.2455
14.1868
14.1826
14.2201
14.2442
14.2341
14.1932
14.2088
14.2123
14.2504
14.2402
14.2384
14.3221
14.3201
14.2969
14.2938
14.2563
14.3164
14.2867
14.2235
14.1723
14.2274
14.3031
14.2812
14.2548
14.1963
14.1625
14.1819
14.2804
14.2331
14.171
14.1802
14.1743
14.2424
14.2262
14.2128
14.3303
14.3433
14.3131
14.2976
14.2502
14.3441
14.3064
14.2301
14.1348
14.1615
14.3456
14.3244
14.2731
14.2099
14.1314
14.1087
14.3223
14.2656
14.1797
14.1572
14.1255
14.2555
14.2202
14.1882
14.3454
14.3764
14.3428
14.3084
14.2499
14.3801
14.3311
14.2384
14.0871
14.0571
14.3953
14.3763
14.3177
14.2267
14.0784
13.9539
14.3639
14.3273
14.2246
14.1318
14.0488
14.2997
14.2633
14.1881
14.3752
14.4225
14.3851
14.3332
14.2539
14.4283
14.364
14.2362
14.0082
13.8252
14.4512
14.4349
14.3696
14.2334
13.9518
13.5542
14.4412
14.387
14.2749
14.1103
13.8807
14.3953
14.3105
14.2192
14.4303
14.4844
14.4402
14.3711
14.2778
14.4901
14.408
14.218
13.8684
13.2006
14.5134
14.498
14.4154
14.2126
13.7771
12.6783
14.5246
14.4797
14.3234
14.0647
13.5094
14.5069
14.3916
14.2349
14.4904
14.5613
14.5064
14.4336
14.3509
14.5665
14.472
14.2202
13.7084
11.3467
14.5832
14.5628
14.4526
14.1894
13.5963
11.4887
-7.10669
14.5897
14.5404
14.359
13.9995
12.6516
14.5814
14.4355
14.2564
14.4544
14.6518
14.5738
14.3901
14.393
14.6579
14.5452
14.2949
13.6805
9.87963
0.291309
14.6714
14.6336
14.4802
14.2392
13.5693
11.0714
0.996713
14.6392
14.5767
14.4058
14.0562
11.6897
14.5991
14.4633
14.2997
14.4783
14.744
14.6489
14.4084
14.2963
14.7548
14.6093
14.3687
13.801
11.0855
2.99102
14.786
14.6961
14.5189
14.2975
13.8158
10.9306
3.31191
14.6844
14.6192
14.4681
14.2352
12.5638
4.30937
14.6139
14.5067
14.4004
14.6604
14.7788
14.7074
14.5736
14.4157
14.7816
14.658
14.4216
14.0047
11.4
2.89203
14.7371
14.693
14.5576
14.3308
14.0276
11.448
2.82641
14.7334
14.6467
14.524
14.2998
13.4491
14.6462
14.5602
14.5091
14.7417
14.7488
14.692
14.6587
14.5293
14.7378
14.6377
14.4973
14.2302
12.7008
14.6679
14.7021
14.6275
14.425
14.2569
12.1796
-3.71689
14.8051
14.6583
14.528
14.3726
14.4234
14.6626
14.5951
14.5653
14.7188
14.6726
14.6606
14.6582
14.6084
14.6715
14.6341
14.5894
14.4444
14.1753
14.7412
14.7433
14.6244
14.492
14.4294
14.0475
14.8758
14.6756
14.546
14.4901
14.6217
14.688
14.6158
14.5947
14.6859
14.6485
14.6472
14.6519
14.6339
14.6496
14.6146
14.5873
14.5329
14.5568
14.7369
14.714
14.6137
14.4891
14.4848
14.5301
14.7935
14.6646
14.5402
14.5498
14.6826
14.7139
14.6294
14.5996
14.6639
14.6465
14.6428
14.6471
14.6396
14.6406
14.5925
14.5905
14.5233
14.6533
14.6944
14.666
14.5765
14.51
14.4861
14.6221
14.724
14.6547
14.5034
14.5379
14.6653
14.7699
14.641
14.5759
14.6568
14.6522
14.6423
14.6432
14.6565
14.6379
14.5618
14.5808
14.5361
14.6708
14.665
14.634
14.5362
14.4782
14.4476
14.6145
14.6665
14.5489
14.4302
14.4872
14.6103
14.6792
14.5993
14.5222
14.6651
14.6576
14.6507
14.6529
14.6814
14.6451
14.5636
14.5973
14.5321
14.6752
14.67
14.6374
14.5123
14.4565
14.4226
14.6056
14.6536
14.4679
14.3332
14.4235
14.5957
14.5836
14.4604
14.4189
14.6832
14.6705
14.6696
14.6744
14.7218
14.678
14.6096
14.6293
14.5849
14.7179
14.7069
14.6783
14.5612
14.4384
14.4474
14.6724
14.697
14.4968
14.2477
14.3631
14.6514
14.561
14.2711
14.4141
14.7031
14.6902
14.6868
14.6962
14.7603
14.7042
14.6713
14.6515
14.69
14.8059
14.7565
14.7261
14.6432
14.5572
14.5711
14.8363
14.7775
14.607
14.2749
14.5126
14.9055
14.6305
14.0935
14.6553
14.7235
14.7099
14.6961
14.711
14.7816
14.7121
14.6806
14.6817
14.745
14.9058
14.8004
14.7523
14.678
14.662
14.7079
15.0413
14.8372
14.6973
14.3594
14.7774
15.2114
14.7964
14.2684
15.1951
254.499
252.324
255.182
254.955
251.262
259.035
253.428
246.102
251.57
253.494
254.032
250.815
249.923
252.855
255.085
249.159
247.682
256.03
238.042
225.39
220.704
235.976
234.792
219.393
223.44
222.858
250.178
252.056
253.345
249.578
248.756
251.625
251.465
246.816
231.223
249.185
224.356
219.944
219.606
220.91
219.534
217.071
216.419
216.729
218.399
218.686
219.665
219.696
256.534
258.839
264.382
255.38
257.077
264.051
263.933
245.766
231.349
251.941
242.742
227.328
225.01
238.145
234.569
221.369
220.684
230.829
229.449
221.504
219.55
228.058
270.831
275.184
272.268
278.749
282.078
260.022
251.231
269.35
258.651
246.66
243.788
252.369
250.773
240.175
237.217
247.207
241.211
233.022
276.012
271.042
263.322
258.041
255.302
253.709
253.765
249.317
244.178
213.88
240.298
245.314
243.8
220.263
212.564
225.379
236.937
229.934
226.814
224.159
220.434
225.417
214.124
246.12
236.319
245.968
246.386
246.047
229.959
229.22
237.849
235.974
218.39
215.439
216.284
208.095
200.275
210.523
203.474
212.753
193.234
246.857
247.08
248.237
239.61
241.221
240.678
214.018
211.011
191.804
196.883
184.878
252.237
255.564
237.907
239.46
239.089
213.866
217.387
201.605
190.438
192.223
259.146
240.035
261.008
265.012
265.915
240.656
237.437
239.898
238.293
229.323
240.858
233.872
213.642
207.387
222.667
213.201
198.468
264.931
240.033
254.463
252.807
241.446
243.265
246.027
249.142
251.37
244.324
237.197
246.531
229.235
104.14
23.7994
107.384
105.83
124.587
24.9671
24.2798
35.0206
153.705
174.552
31.2822
57.4151
93.2256
172.41
105.349
161.825
42.5871
144.032
173.132
197.581
30.5112
47.5028
67.3034
124.037
166.454
198.26
168.463
127.932
110.959
160.125
110.308
145.562
73.3284
174.015
182.014
176.795
55.7131
71.5414
60.0287
105.94
94.997
38.9191
27.1106
24.3673
179.227
180.186
87.9938
88.6981
107.984
101.206
119.41
24.489
22.6254
40.191
181.141
117.158
183.095
184.882
186.757
123.062
119.768
128.16
131.365
151.823
174.123
162.612
78.1091
73.1383
107.338
95.0156
60.7325
189.824
136.983
205.809
213.712
142.991
150.288
154.729
198.624
218.674
150.21
137.492
154.768
122.126
15.6886
15.9324
16.5017
14.3106
15.0881
16.5775
15.053
14.2863
16.1525
21.77
15.4423
12.7807
12.6591
26.3947
13.0447
20.6851
17.3334
17.6573
22.92
55.0933
16.0722
13.8802
15.8999
21.1883
38.4712
89.6602
43.4064
14.636
13.9446
28.1617
14.3506
20.8486
13.121
21.2141
21.6311
20.7957
17.0155
16.3106
16.0116
13.6026
14.5912
14.3609
15.9666
17.796
21.5034
41.5065
14.8058
14.1156
16.5186
12.8963
15.1522
15.0288
15.4165
14.5299
62.7345
25.969
52.9918
77.9694
78.9367
24.8969
17.2598
40.8467
37.8315
19.3138
41.2458
33.3828
12.8642
14.2167
15.6748
15.353
14.3982
87.3296
49.4189
94.3433
99.1808
50.7117
52.2263
56.7494
81.4218
97.0736
48.1958
41.2265
55.1298
28.0786
14.6519
13.7862
14.8913
14.4641
14.1989
13.864
13.748
13.7341
13.7535
13.8555
13.7723
13.6627
13.8095
13.5834
13.7177
15.2095
14.0772
13.2173
14.2157
13.6328
13.8423
13.1988
13.5512
13.3811
12.9184
13.7608
12.5663
13.442
13.414
13.5715
13.0853
13.5681
13.7384
15.6353
16.1348
15.6156
14.4842
14.9481
14.8354
15.4886
16.6628
14.3729
14.6292
15.1434
15.3636
14.7683
14.5446
14.6766
14.6383
15.2753
14.7765
14.4597
14.7783
14.4148
15.9618
14.6754
13.9628
20.476
16.9943
14.4082
14.5323
15.2577
14.4004
14.967
14.4294
14.7753
14.2335
14.3285
14.0756
14.3065
14.3233
25.327
16.392
23.1347
29.1156
14.803
14.8405
17.4918
17.4209
28.0527
14.0102
13.0158
17.1188
14.4823
13.5705
13.5844
13.5832
13.5066
13.5733
13.5998
13.5663
13.5973
13.4218
13.6076
13.4411
13.3587
13.5316
13.6237
13.6273
13.8198
13.7959
13.4353
13.5029
13.4635
13.5278
13.5337
13.5727
13.4421
13.504
13.6582
13.2764
13.6751
13.5594
13.6866
13.33
13.7377
13.7133
13.9811
14.2409
14.1994
13.8904
13.965
14.0025
14.2268
14.6478
13.9766
14.0729
13.2892
14.2803
14.3114
14.0617
14.1228
14.1379
14.6603
14.3636
14.3593
13.6731
14.2935
14.2934
14.0942
14.1435
14.4459
14.3111
14.0892
13.9695
14.1589
14.1006
14.1515
14.1492
14.2677
14.1242
14.0664
14.1347
14.2115
14.1839
14.4744
14.0357
14.2623
14.9285
13.8497
13.9246
14.2719
13.791
14.8724
13.9635
13.8373
14.2751
14.0822
13.5945
13.6275
13.6749
13.6849
13.6069
13.6948
13.7555
13.587
13.4127
13.5779
13.6583
13.6278
13.7138
13.7131
13.8302
13.6902
13.6068
13.5207
13.4935
13.4861
13.3899
13.5861
13.4587
13.5468
13.6892
13.7756
13.4953
13.8727
13.8411
13.8961
13.7134
13.7068
13.7435
13.8337
13.8618
13.9526
13.7366
13.8375
13.8472
13.7384
14.1928
14.9675
13.7151
13.8371
14.1254
13.7942
13.9558
14.0203
13.987
13.839
13.9522
13.9403
13.9648
13.9985
13.9956
13.871
13.8755
13.904
14.7965
14.1867
14.158
14.032
13.9025
14.0557
14.0142
14.0274
14.0647
14.0567
13.9927
14.0133
14.0318
14.0607
13.9667
13.8828
13.8796
13.9797
13.9716
13.8818
13.8142
13.8956
13.8996
13.9884
14.0093
14.0263
13.8894
13.889
13.9341
13.9342
13.9924
13.8811
13.8157
13.8509
13.9273
13.8049
13.8209
13.8508
13.8896
13.9806
13.872
13.8651
13.9958
13.902
13.7073
13.7774
13.7564
13.8018
13.5888
13.8348
13.8429
13.7185
13.9041
13.8713
14.1639
14.1123
14.0055
13.9475
14.0389
13.6201
13.6758
13.6958
13.5049
13.6387
13.6599
13.7696
13.6134
13.7326
13.9736
13.9857
13.8854
14.0348
14.0758
14.0593
14.0665
13.9889
13.9731
14.2327
14.2022
13.8537
13.928
13.7895
13.9052
13.7063
13.8001
13.7659
13.725
13.7798
13.7423
13.8809
14.0457
13.9891
13.8027
13.8219
13.9161
13.9136
13.9553
13.9729
13.9861
13.8055
13.9204
13.8945
13.9623
13.8035
13.84
13.7925
13.7607
13.8093
14.0343
14.093
14.123
13.9538
13.9607
14.0601
14.0765
14.0204
14.0626
14.0606
13.9673
14.0017
14.0216
14.0474
13.8259
13.7901
13.777
13.8604
13.8727
13.8217
13.7675
13.8491
13.8639
13.8328
13.8681
13.8656
13.7932
13.8338
13.8387
13.8319
14.1306
14.005
14.0952
14.0657
14.0439
14.0572
13.7883
13.8171
13.8132
13.8434
13.8212
13.8196
13.8191
13.7815
13.8833
13.7936
13.7749
13.8002
13.8102
13.8432
13.8957
13.9495
13.8902
13.8686
14.0209
13.9288
13.9809
14.1708
14.0898
14.1702
14.1578
14.1247
14.0958
14.121
13.7529
13.8248
13.8243
13.728
13.805
13.8186
13.858
13.8096
13.8594
14.1182
14.1039
14.1685
14.0819
14.1163
14.108
14.1815
14.3592
14.3412
14.3102
14.3954
13.8841
13.9457
14.0148
14.0202
13.7599
13.7891
13.7583
13.8039
13.8155
13.7951
13.835
13.8106
13.8983
13.926
13.9712
13.7929
13.8659
13.9308
13.8722
13.9607
13.9315
14.029
13.857
13.9824
13.7465
13.8085
13.7773
13.7579
13.812
13.9296
14.0184
14.0437
13.8887
13.8936
13.9653
13.9909
13.9953
14.0117
14.047
13.9286
13.9985
13.9974
14.0475
13.8067
13.8391
13.7833
13.853
13.8501
13.8459
13.7806
13.8628
13.8466
13.8375
13.8296
13.8292
13.8106
13.8439
13.8473
13.8443
14.045
13.842
13.9614
14.0548
14.004
14.0545
13.855
13.8483
13.8288
13.8213
13.8391
13.8445
13.8423
13.7986
13.8016
13.8253
13.8152
13.8238
13.856
13.9395
13.9766
14.0425
13.9743
14.0302
14.0543
14.0109
14.0504
14.149
14.1269
14.1137
14.1295
14.1163
14.113
14.1009
13.8846
13.9318
13.8833
13.8725
13.9032
13.913
13.9241
13.9241
13.9427
14.095
14.0865
14.1402
14.061
14.0799
14.0681
14.0988
14.2067
14.0358
13.8542
13.8613
13.8419
13.9029
13.9097
13.8915
14.2602
13.8147
13.8569
13.9884
14.3899
13.8502
13.9084
14.0595
13.9023
14.0516
14.1289
14.1052
14.0326
14.1162
13.807
13.8321
13.8844
13.8712
13.8865
13.8782
13.9134
13.9471
13.873
13.8714
13.8279
13.8635
14.0271
13.9811
14.0589
14.0173
14.0552
14.014
14.066
13.8422
13.8879
13.7816
13.8594
13.8557
13.8867
13.8452
13.8857
13.8844
13.8582
13.8709
13.8678
13.8496
13.8841
13.8873
13.897
13.8208
13.8605
13.8815
13.8627
13.8607
13.8756
13.8829
13.8801
13.8437
13.8521
13.8753
13.8685
13.8696
13.904
14.0092
14.0369
14.0668
14.039
14.065
14.0829
14.0652
14.083
14.1136
14.109
14.1071
14.1095
14.1109
14.0958
14.1008
13.9707
14.0048
13.9711
13.968
13.9788
14.0083
14.0087
14.0046
14.0119
14.0704
14.0536
14.0772
14.071
14.0714
14.0499
14.0706
14.0044
14.0449
13.9466
13.9507
13.9345
13.9862
13.9887
13.9723
13.9135
14.1201
13.994
13.9017
13.676
13.9226
13.9239
13.9721
13.9651
13.9581
14.0867
13.8168
13.9216
13.7591
13.8759
13.9222
13.954
13.8891
13.9149
13.9114
13.9524
13.931
13.9451
13.9432
13.9191
13.9133
13.9323
13.9051
13.9526
13.9438
13.9637
13.9296
13.9093
13.94
13.9096
13.9091
13.9319
13.9349
13.9324
13.8986
13.9068
13.935
13.9288
13.9312
13.9639
14.0636
14.0875
14.1004
14.0907
14.1036
14.1209
14.1125
14.1256
14.1145
14.1211
14.1255
14.125
14.132
14.1116
14.1233
14.0361
14.0637
14.0397
14.037
14.041
14.0703
14.0687
14.0663
14.0659
14.083
14.0617
14.0776
14.102
14.1009
14.0792
14.0908
14.0688
14.0842
14.0209
14.0199
14.0046
14.0497
14.0457
14.0304
13.9454
13.9284
14.0668
14.0167
14.0564
13.9978
13.9912
14.0344
14.0249
14.0206
13.9592
13.9504
14.0129
14.0461
14.006
13.9889
14.018
13.975
13.9759
13.9766
14.0085
14.0188
14.002
14.0089
13.9886
13.9781
13.9979
13.9801
14.0255
14.0113
14.031
14.0208
13.9762
14.0079
13.9663
13.9684
13.9945
13.9942
13.997
13.9638
13.9751
14.0063
14.0003
14.0046
14.0296
14.1096
14.1289
14.1392
14.1305
14.1429
14.152
14.1431
14.1531
14.1386
14.1434
14.1539
14.1511
14.1544
14.1367
14.1517
14.0877
14.1089
14.0963
14.0914
14.0881
14.1201
14.119
14.1122
14.1061
14.1205
14.1014
14.1095
14.1369
14.1383
14.132
14.128
14.1051
14.1282
14.0743
14.0712
14.0535
14.0961
14.0972
14.075
14.072
14.1083
14.1238
14.1085
14.1381
14.0506
14.0485
14.0847
14.0751
14.0766
14.0798
14.0491
14.0837
14.1111
14.0863
14.0462
14.074
14.0574
14.0332
14.0401
14.0599
14.0887
14.0577
14.0668
14.0611
14.0452
14.0642
14.0601
14.0937
14.0774
14.0952
14.0962
14.044
14.0711
14.0323
14.0387
14.0606
14.0592
14.0653
14.0368
14.0487
14.0745
14.0704
14.0777
14.0936
14.1411
14.1448
14.1609
14.1474
14.1613
14.164
14.1468
14.1645
14.161
14.1644
14.1676
14.1673
14.1718
14.1652
14.1748
14.1275
14.1416
14.1351
14.1291
14.1215
14.1459
14.1461
14.1416
14.1355
14.1503
14.1635
14.1431
14.1666
14.1618
14.1814
14.1618
14.1497
14.1712
14.1153
14.1161
14.0949
14.1296
14.1302
14.1109
14.1404
14.1662
14.1622
14.1697
14.1905
14.0974
14.1033
14.1253
14.117
14.1282
14.145
14.1223
14.1548
14.1777
14.1565
14.1001
14.1237
14.1141
14.0872
14.0897
14.1077
14.1348
14.1092
14.1107
14.1244
14.1076
14.1242
14.1249
14.1521
14.1345
14.1501
14.1577
14.102
14.1263
14.0917
14.0985
14.1212
14.117
14.1237
14.1027
14.11
14.1303
14.1315
14.1353
14.1478
14.1492
14.1834
14.1679
14.1531
14.1687
14.1818
14.1691
14.18
14.1676
14.178
14.1776
14.1772
14.1853
14.1809
14.1915
14.1509
14.1568
14.1572
14.149
14.1482
14.16
14.1753
14.153
14.1598
14.1762
14.1883
14.1804
14.1892
14.188
14.192
14.193
14.1891
14.2013
14.1388
14.1408
14.1253
14.1429
14.1542
14.1397
14.193
14.2076
14.1964
14.2117
14.2185
14.1348
14.1489
14.1569
14.1516
14.166
14.2036
14.1822
14.211
14.2215
14.1999
14.1446
14.1623
14.1522
14.1329
14.1293
14.1485
14.1655
14.1514
14.1463
14.175
14.1588
14.1726
14.1715
14.1933
14.1781
14.1907
14.1978
14.1497
14.1705
14.1431
14.1496
14.1699
14.1655
14.1711
14.1579
14.1623
14.1764
14.1789
14.184
14.1867
14.2135
14.2148
14.2004
14.1921
14.192
14.2077
14.2025
14.1987
14.1907
14.1963
14.2121
14.2007
14.2036
14.2041
14.2096
14.1595
14.1593
14.1914
14.1561
14.1662
14.17
14.1941
14.1587
14.167
14.1988
14.1981
14.2019
14.2033
14.2045
14.2038
14.2078
14.2098
14.2187
14.1445
14.1672
14.1545
14.1473
14.1778
14.167
14.2224
14.2255
14.2239
14.2273
14.2304
14.1666
14.1798
14.1793
14.1791
14.1918
14.2345
14.2128
14.2318
14.2408
14.2214
14.1776
14.1908
14.1757
14.1689
14.1617
14.1797
14.1815
14.1828
14.1753
14.208
14.1939
14.2056
14.1995
14.2187
14.2055
14.2165
14.2217
14.1884
14.2046
14.1862
14.1915
14.2081
14.2034
14.208
14.1981
14.2056
14.212
14.2139
14.2226
14.213
14.205
14.1958
14.2034
14.2003
14.1975
14.1964
14.194
14.1934
14.202
14.2023
14.2035
14.1958
14.193
14.2064
14.1961
14.1605
14.1638
14.1889
14.16
14.1662
14.1702
14.1818
14.1601
14.1662
14.205
14.2055
14.2129
14.1954
14.2047
14.2055
14.214
14.2227
14.2244
14.1524
14.1871
14.1776
14.1621
14.1962
14.188
14.2306
14.2325
14.2305
14.2314
14.2321
14.1898
14.2013
14.1986
14.2005
14.2094
14.2427
14.2295
14.2395
14.2447
14.2343
14.2021
14.2115
14.1836
14.195
14.1866
14.2016
14.1834
14.2046
14.1965
14.2274
14.2156
14.2251
14.2188
14.2356
14.2245
14.2313
14.2339
14.2172
14.2286
14.2178
14.2221
14.2346
14.2293
14.2333
14.2273
14.2368
14.2345
14.2369
14.2475
14.231
14.1881
14.1857
14.1923
14.1884
14.1899
14.1903
14.1855
14.1882
14.1927
14.1907
14.1933
14.1912
14.1921
14.1914
14.1912
14.1701
14.1794
14.1787
14.1617
14.1685
14.1724
14.1777
14.165
14.1727
14.2013
14.2034
14.2136
14.1881
14.2006
14.2009
14.215
14.2268
14.2237
14.1751
14.2048
14.1985
14.1895
14.2113
14.2069
14.2304
14.2323
14.2264
14.2272
14.2331
14.2117
14.2156
14.2158
14.2189
14.2205
14.2461
14.2366
14.2433
14.2454
14.2405
14.2188
14.2236
14.1824
14.2126
14.2047
14.2165
14.1824
14.2186
14.2118
14.2406
14.2332
14.2371
14.2326
14.2448
14.2413
14.2437
14.2458
14.2366
14.2441
14.2387
14.2424
14.2522
14.2462
14.2497
14.2437
14.2553
14.2485
14.2492
14.2605
14.2453
14.1866
14.1891
14.1897
14.185
14.1872
14.1916
14.1862
14.1875
14.1911
14.1931
14.1942
14.1923
14.1938
14.1897
14.1876
14.1897
14.1985
14.1786
14.1707
14.1793
14.1808
14.1822
14.1769
14.186
14.1996
14.1968
14.2115
14.1864
14.1925
14.1905
14.1947
14.214
14.1981
14.2012
14.2155
14.2129
14.2093
14.2177
14.216
14.2319
14.2352
14.2079
14.2302
14.2336
14.2215
14.2235
14.2201
14.2211
14.2243
14.2478
14.2456
14.245
14.2447
14.2488
14.2259
14.2264
14.1854
14.2232
14.2169
14.2219
14.1889
14.2272
14.223
14.2458
14.2484
14.2504
14.24
14.2462
14.2533
14.2556
14.2546
14.2494
14.2552
14.2523
14.2554
14.2642
14.2575
14.2602
14.2529
14.2628
14.2569
14.2566
14.2645
14.2559
14.1922
14.1957
14.1941
14.1895
14.1891
14.194
14.1926
14.1903
14.1919
14.1951
14.1901
14.1921
14.1915
14.1869
14.1904
14.2048
14.209
14.1869
14.1815
14.1917
14.1917
14.192
14.1852
14.1961
14.1821
14.1851
14.1744
14.1906
14.1823
14.1804
14.1572
14.1795
14.1514
14.2151
14.2193
14.2179
14.2188
14.2203
14.2193
14.2044
14.2198
14.1693
14.1863
14.206
14.219
14.2246
14.2173
14.218
14.225
14.2398
14.2494
14.2243
14.2358
14.2526
14.2268
14.2276
14.1952
14.2312
14.2289
14.2248
14.2033
14.2355
14.2356
14.2466
14.2575
14.2597
14.2411
14.2485
14.2607
14.2629
14.2615
14.2598
14.2645
14.2619
14.2637
14.2713
14.2645
14.2663
14.2586
14.2649
14.2606
14.2598
14.2652
14.2638
14.2005
14.2041
14.1934
14.1954
14.1905
14.1945
14.1976
14.1911
14.1904
14.191
14.1889
14.1868
14.1805
14.2019
14.2036
14.2119
14.2152
14.1971
14.1893
14.1979
14.2057
14.2046
14.1958
14.1974
14.1885
14.1802
14.1487
14.2309
14.1972
14.1925
14.169
14.1458
14.1658
14.2207
14.2208
14.2195
14.2219
14.2213
14.2198
14.1875
14.2122
14.1792
14.1995
14.229
14.2179
14.2258
14.2165
14.218
14.2278
14.2392
14.256
14.2181
14.2445
14.2577
14.2293
14.232
14.2134
14.24
14.2424
14.2309
14.2242
14.2447
14.2482
14.252
14.2622
14.2661
14.2363
14.2504
14.2603
14.2654
14.2687
14.2669
14.2684
14.2654
14.2667
14.2708
14.2638
14.2654
14.2588
14.2642
14.2593
14.2556
14.2621
14.2631
14.2069
14.2109
14.1982
14.2018
14.1943