/*--------------------------------*- C++ -*----------------------------------*\
| =========                 |                                                 |
| \\      /  F ield         | OpenFOAM: The Open Source CFD Toolbox           |
|  \\    /   O peration     | Version:  5.x                                   |
|   \\  /    A nd           | Web:      www.OpenFOAM.org                      |
|    \\/     M anipulation  |                                                 |
\*---------------------------------------------------------------------------*/
FoamFile
{
    version     2.0;
    format      ascii;
    class       surfaceScalarField;
    location    "9";
    object      phi;
}
// * * * * * * * * * * * * * * * * * * * * * * * * * * * * * * * * * * * * * //

dimensions      [0 3 -1 0 0 0 0];

internalField   nonuniform List<scalar> 
29271
(
-8.28477e-06
-2.06334e-06
5.17243e-06
5.20278e-06
-8.25444e-06
1.72636e-06
-1.40322e-06
7.9303e-06
-2.41313e-05
-2.54949e-06
-3.82502e-06
7.52514e-06
3.84011e-06
1.91405e-05
-1.71551e-05
-6.47717e-06
-7.96018e-06
4.15333e-06
1.137e-05
1.60691e-05
-1.71101e-05
-3.72802e-06
-5.63477e-07
8.74564e-06
1.26324e-05
2.34876e-08
-2.63973e-05
3.13231e-06
-6.36651e-06
9.50859e-06
-8.44816e-06
2.8571e-05
-2.62689e-05
-4.13682e-06
-1.17454e-05
2.06419e-05
4.07774e-07
2.11014e-05
-3.3577e-05
-6.20048e-06
-1.63023e-05
1.1868e-05
-1.62388e-05
6.04506e-05
-3.59449e-05
-1.12487e-05
-5.29753e-06
-7.80324e-06
-1.44873e-05
7.47816e-05
-1.8322e-05
6.23301e-07
-5.25725e-06
2.01934e-05
2.70852e-06
-4.74666e-06
2.99087e-06
-1.77445e-06
3.58204e-06
-2.76686e-05
-4.50899e-06
1.28934e-05
8.06412e-06
-1.06641e-05
2.18841e-05
-2.48712e-05
8.14291e-06
-1.36959e-05
1.93357e-05
-1.36701e-05
2.47587e-05
-3.42602e-05
2.73764e-05
-1.20326e-05
5.68692e-06
-2.5915e-05
3.91443e-05
-3.59797e-05
2.062e-05
-4.69839e-06
-1.45578e-06
-1.84588e-05
3.99727e-05
-2.87634e-05
5.59294e-06
3.08285e-06
-6.70093e-06
2.60153e-05
7.73267e-07
-1.83109e-05
7.41585e-07
1.52719e-06
-2.3995e-06
1.22399e-05
6.20175e-06
-1.73501e-05
-3.55778e-06
9.77969e-06
4.99591e-06
-5.78658e-06
1.19189e-05
-2.09866e-05
1.79732e-05
-4.33716e-06
3.8224e-06
-1.21799e-05
1.5708e-05
-1.98489e-05
3.37889e-06
-8.53756e-06
1.63098e-05
1.24298e-05
-3.73198e-06
-6.43214e-06
4.78686e-06
-4.10035e-06
5.77792e-06
-1.44939e-05
-1.12199e-06
4.40298e-06
8.25339e-06
3.07431e-06
-2.2847e-05
-3.74873e-06
5.83636e-06
-3.69707e-06
1.67845e-05
7.67196e-06
-6.62131e-06
5.60435e-06
-3.8153e-06
4.91215e-06
-4.47806e-06
7.59625e-07
-3.38348e-06
7.06739e-06
-8.51468e-06
5.83956e-08
-2.65449e-06
1.10757e-05
3.82069e-06
8.76982e-07
-1.59504e-05
-6.67176e-07
-3.18202e-06
1.5102e-05
4.69642e-06
-1.49478e-05
9.78901e-07
-1.26388e-06
-4.81762e-06
1.5354e-05
-1.3872e-05
1.38615e-06
1.27062e-06
-2.76185e-06
1.56787e-05
-1.70159e-06
2.41133e-06
7.83741e-07
-2.43136e-05
5.02842e-07
-1.20768e-06
2.18233e-05
2.69898e-07
-3.84651e-06
0.000164256
-2.2429e-05
-6.36831e-05
-2.1553e-05
-6.45164e-05
2.11914e-06
2.64066e-06
3.33207e-06
5.7447e-06
-2.54094e-06
-1.71746e-06
9.97279e-07
9.2715e-07
1.43703e-05
5.77923e-06
0.000219661
-7.43775e-05
-7.16255e-05
-5.42607e-05
-4.74707e-05
1.87023e-06
-1.00173e-06
5.09731e-06
2.22833e-06
4.97361e-06
7.25318e-06
0.000200468
-1.17981e-06
-1.11755e-07
7.00593e-07
2.08625e-07
3.91352e-06
1.13351e-05
1.16024e-05
-9.69598e-05
-3.41254e-05
-6.2063e-05
-3.16447e-05
-2.3403e-05
-1.80504e-06
1.43709e-06
2.8817e-05
-3.61578e-06
7.96427e-08
3.58979e-08
3.56039e-06
-8.41715e-08
-1.81672e-05
5.27119e-07
1.79496e-06
-6.98584e-07
1.66279e-05
2.15618e-06
-8.00989e-06
9.63946e-05
-2.32077e-05
-3.54284e-05
-1.57578e-05
-1.63755e-05
-1.62477e-06
-1.32161e-06
-2.84311e-07
-3.87224e-07
5.66745e-06
-7.35915e-06
0.000109897
-3.67861e-05
-3.16954e-05
-1.64621e-05
-1.53259e-05
-9.24785e-07
-4.44708e-06
0.000148456
-1.34056e-06
8.30257e-07
2.81599e-07
-3.72263e-06
-2.51151e-06
-2.3162e-06
-4.28888e-05
-3.00207e-05
-2.65176e-05
-2.19571e-05
-2.21059e-05
7.07735e-07
1.50231e-06
-1.55334e-06
2.05244e-05
-1.1037e-05
1.40228e-07
5.77176e-07
-5.51026e-07
9.93741e-06
9.33184e-07
2.11028e-06
-1.98612e-06
4.5358e-05
-1.07164e-06
-6.2234e-07
-4.97588e-07
-3.23408e-07
-2.66032e-06
-1.48206e-06
-1.94296e-06
-1.10299e-05
-1.23541e-05
-1.00964e-05
-1.14113e-05
-7.44736e-07
-3.94554e-06
6.2366e-05
-2.66253e-07
6.3602e-07
3.80106e-07
-3.1473e-06
-2.65599e-06
-2.33638e-06
-1.44746e-05
-1.37619e-05
-1.34205e-05
-1.38778e-05
-1.44367e-05
2.31851e-07
-2.68889e-06
1.17019e-05
-6.08158e-06
1.76564e-06
-1.51872e-06
5.96011e-06
-7.50085e-06
3.51905e-07
-1.3615e-06
6.68937e-06
-1.43496e-05
1.19823e-07
1.8862e-06
-2.30353e-06
1.07016e-05
-4.24462e-06
1.58907e-06
-1.04011e-06
3.80311e-06
-1.25472e-05
4.62754e-07
-9.18723e-06
2.11871e-05
-1.60984e-05
-9.71208e-07
-1.01792e-05
2.6953e-05
1.22104e-05
1.80686e-06
-1.42453e-05
-1.6056e-06
-7.15779e-06
8.99144e-06
9.36437e-06
-1.67925e-05
1.39063e-06
-1.08027e-06
-8.2593e-06
1.5377e-05
-1.64638e-05
3.21652e-06
8.50554e-07
-2.71098e-06
1.58944e-05
-7.86648e-07
4.39627e-06
6.82244e-06
-1.78664e-05
-3.8683e-06
-1.07946e-06
1.15955e-05
5.15877e-06
6.14027e-06
0.000134778
3.02244e-06
2.7312e-06
3.38252e-06
2.86443e-06
1.52932e-06
9.65115e-07
1.68205e-06
2.00125e-06
2.43942e-05
1.32064e-05
0.000186097
-2.51629e-07
-7.32766e-07
1.16838e-06
9.37568e-07
1.33055e-05
6.33755e-06
0.000167318
-1.45366e-06
-8.81443e-07
3.43628e-08
3.81963e-08
1.64714e-05
1.21479e-05
1.15442e-05
-3.86028e-05
-3.27183e-06
8.89947e-06
4.62386e-05
-3.14972e-06
2.70282e-07
6.20456e-07
2.36216e-06
-4.14996e-07
-1.68293e-05
2.16329e-07
-7.10495e-07
-1.99901e-06
1.97375e-05
3.56871e-06
-7.05088e-06
0.000108339
-7.52345e-07
-8.18213e-07
-3.84904e-07
-3.66809e-07
2.68707e-06
-7.35882e-06
0.000131343
3.27273e-06
-1.62028e-06
0.00017774
5.6333e-07
-1.79514e-06
-4.17858e-06
-8.90838e-07
-1.01863e-05
-5.42448e-06
-2.3376e-05
-8.35402e-07
2.70079e-06
-3.46082e-06
2.82442e-05
-8.41492e-06
-7.65615e-10
1.34096e-06
-1.26807e-06
5.59228e-06
2.75052e-06
2.4419e-06
-2.89765e-06
5.35543e-05
-1.47008e-06
-1.49538e-06
-1.67634e-06
-1.2839e-06
-3.2532e-06
-2.69072e-06
-2.92184e-06
3.5591e-07
-4.14538e-06
6.60627e-05
4.19791e-07
5.65422e-06
3.04579e-07
-3.96878e-06
-3.81664e-06
-3.41723e-06
-1.23871e-05
-3.43311e-07
-3.28839e-06
1.47544e-05
-5.31985e-06
1.5279e-06
-6.1624e-08
3.98521e-06
-5.62698e-06
-8.20411e-08
-4.93814e-07
3.499e-06
-7.83101e-06
-3.04964e-07
1.32324e-06
-1.30503e-06
3.97238e-06
-3.14669e-06
2.75056e-06
-8.39734e-07
1.43369e-06
-2.64801e-05
-1.59016e-06
1.02899e-06
2.70413e-05
-3.2734e-05
7.8088e-06
-7.38089e-06
3.22639e-05
5.6985e-06
-1.62542e-06
-7.14249e-06
-1.01104e-06
-4.8803e-06
8.96075e-06
5.11247e-06
-1.44228e-05
6.45576e-07
-4.07957e-08
-5.58016e-06
1.42857e-05
-1.45594e-05
1.22711e-06
3.87613e-07
-2.69388e-06
1.55346e-05
1.03952e-07
3.33577e-06
2.10383e-06
-7.49012e-06
-1.84602e-06
-2.49606e-06
6.3926e-06
4.11378e-06
-3.08891e-06
0.000119384
3.18554e-06
3.02405e-06
3.25528e-06
3.55939e-06
5.62019e-07
1.04191e-07
3.8585e-07
2.93222e-07
6.20745e-06
-8.22151e-06
0.000188764
2.12232e-06
1.94535e-06
8.04174e-07
-1.41045e-06
9.07534e-06
-1.09687e-05
0.000166639
1.01271e-06
3.65076e-07
-3.59083e-06
-2.90265e-06
5.83302e-06
5.66881e-06
2.39391e-06
-5.1994e-05
3.31841e-06
2.2956e-06
5.54526e-05
-9.22393e-07
-2.04847e-06
3.11236e-06
-1.40311e-07
-3.92965e-06
-2.63125e-05
1.12041e-06
2.4279e-06
-3.32503e-06
3.00188e-05
-2.76597e-06
-2.64458e-05
0.000155133
-2.80753e-06
-3.92485e-06
-6.44281e-06
-7.49536e-06
-2.04917e-05
-4.25651e-05
0.000183413
-4.17637e-06
-1.25855e-05
0.000178587
-3.19281e-06
-3.85453e-06
-1.08683e-06
-4.63593e-06
-2.25458e-06
-5.2133e-07
-2.87827e-05
-2.34559e-06
-4.76323e-06
2.21865e-06
2.94965e-05
-1.79986e-06
-9.67259e-07
3.10925e-06
-1.68901e-06
-2.50673e-06
3.8536e-06
2.60954e-06
-3.47222e-06
5.72175e-05
-4.72092e-06
-1.13955e-06
-7.4621e-06
-2.69023e-06
-3.90415e-06
-4.09424e-06
-5.2351e-06
-9.50955e-07
-4.772e-06
6.30028e-05
-3.04273e-06
-8.27816e-06
-5.45652e-06
-4.24796e-06
-5.5422e-06
-4.60517e-06
-1.56465e-05
-3.1958e-07
-8.01649e-06
1.04461e-05
-2.95222e-06
3.32154e-07
-5.16201e-08
2.67237e-06
-1.27821e-06
-3.49211e-07
1.319e-07
-1.81427e-06
-8.15889e-07
-2.76515e-07
6.58174e-07
-1.18629e-06
-3.15147e-06
6.53061e-07
2.13038e-06
-1.61847e-07
-2.42967e-06
-2.72308e-05
-1.75931e-06
1.52248e-06
2.74676e-05
-2.89006e-05
1.05994e-05
-7.51085e-06
2.5812e-05
2.23897e-06
-8.5061e-06
-1.43842e-05
3.88738e-06
-3.00561e-06
1.97695e-05
1.19122e-06
-1.35263e-05
-1.68664e-06
4.78363e-07
1.0845e-06
1.24589e-05
-1.38455e-05
-2.71985e-06
1.75803e-06
1.2742e-06
1.23863e-05
1.14689e-06
4.11974e-06
-5.31919e-06
-7.66842e-06
2.1249e-06
-3.91211e-06
1.06551e-05
-1.85197e-06
-2.58833e-05
0.000148559
2.5566e-06
2.44797e-06
1.06307e-06
2.20304e-06
-1.24591e-06
-2.1761e-06
-3.46582e-06
-2.82231e-06
-4.29706e-06
-3.13439e-05
0.000217499
5.03701e-07
-8.47393e-07
3.14624e-06
2.25139e-06
5.02735e-06
-1.94619e-05
0.000160222
-2.62718e-07
1.22629e-06
3.59064e-06
5.02914e-06
-1.2501e-07
6.16523e-06
9.30413e-07
-5.61865e-05
5.99476e-06
-1.15091e-06
5.637e-05
-4.86237e-08
-2.28295e-07
1.09587e-06
-8.18112e-07
-4.64756e-06
-3.00123e-05
5.39311e-06
4.85033e-06
-3.88758e-06
2.8304e-05
-1.4397e-05
-2.2243e-05
0.000171511
-3.17941e-06
-3.41419e-06
1.83668e-08
9.53228e-07
-5.37678e-06
-2.2924e-05
0.000165973
-2.41368e-06
5.47899e-07
0.000146869
1.78097e-06
-8.98469e-08
4.25578e-06
2.86527e-07
1.22459e-06
1.287e-06
-2.96779e-05
-1.38348e-06
-4.82279e-06
4.33296e-06
2.91375e-05
6.98421e-06
-1.11151e-06
1.74102e-07
-1.94161e-07
-7.41639e-06
1.56375e-06
-6.16219e-07
-1.06589e-06
3.54403e-05
1.28302e-06
4.38907e-07
2.93871e-06
8.28304e-07
-1.86027e-06
-8.31602e-07
-1.58081e-06
-1.13737e-06
-1.01232e-06
3.48789e-05
2.17096e-06
3.80835e-06
2.56479e-06
-5.37218e-07
-8.25018e-07
-4.48527e-07
-5.9718e-06
-1.98207e-06
1.86797e-06
5.49643e-06
-3.89044e-06
-2.5096e-06
1.1026e-06
5.29817e-06
5.58149e-06
-5.55628e-07
4.39162e-07
-6.527e-06
7.95324e-06
-3.73803e-07
4.15705e-07
-5.12201e-07
-8.49525e-06
3.3557e-06
-2.913e-07
3.54906e-07
-3.41142e-06
-2.75297e-05
-2.7163e-06
3.28709e-06
2.69589e-05
-2.38019e-05
6.62138e-06
-5.94217e-06
2.31227e-05
-2.92312e-07
-5.69233e-06
-2.31724e-05
4.4126e-06
-1.05116e-07
2.48495e-05
-8.10633e-08
-1.29637e-05
-2.24809e-06
1.0669e-06
-6.18381e-07
1.48443e-05
-1.36523e-05
-1.69911e-06
-2.00036e-07
-1.19286e-06
1.68098e-05
-6.5532e-08
4.3674e-06
-2.92436e-06
-1.11398e-05
2.95057e-06
-4.84799e-06
1.15942e-05
-7.27469e-06
-1.98564e-05
0.000156204
2.40091e-06
3.59401e-06
4.45922e-06
6.18267e-06
-3.22028e-07
-1.2577e-06
2.71602e-06
1.71247e-06
-3.51991e-06
-1.50418e-05
0.000206085
4.63386e-06
3.81381e-06
7.54939e-06
6.70399e-06
3.79302e-06
-1.43337e-05
0.000156012
3.63292e-06
5.73123e-06
4.25431e-06
4.82599e-06
-2.53255e-06
5.31013e-07
-5.21163e-06
-5.52135e-05
5.1806e-06
9.27717e-06
-1.3413e-05
5.79618e-05
-2.91632e-08
-1.56556e-08
1.68242e-08
1.9592e-08
9.83979e-07
-5.0408e-07
7.0773e-07
-1.1863e-06
-3.29127e-06
-2.69972e-05
4.48482e-06
3.25398e-06
-1.92078e-06
2.44704e-05
-1.04349e-05
-1.01711e-05
0.000165833
-2.85966e-07
1.61484e-06
1.07931e-06
4.0195e-06
4.06748e-07
1.36715e-06
0.000138722
-1.80524e-06
5.81471e-07
0.000130697
2.47126e-06
-2.17073e-06
1.50348e-06
3.60368e-07
9.43522e-07
3.61514e-07
-2.8445e-05
-1.31204e-06
-1.39526e-06
8.16854e-06
2.11785e-05
-2.49789e-09
-2.71635e-07
-8.71565e-09
-3.28307e-09
2.77268e-07
6.20523e-06
-1.21547e-06
1.28743e-06
5.11539e-07
-6.46753e-06
-3.21212e-07
-3.10831e-06
1.10385e-07
2.91112e-05
-2.44949e-07
-1.6184e-07
-5.54455e-07
1.31278e-07
-2.45321e-07
1.32794e-07
9.84505e-08
1.10199e-06
9.65743e-07
2.66531e-05
7.95824e-09
6.92409e-07
2.06869e-07
1.1908e-06
1.21897e-06
1.09989e-06
-7.5435e-06
-2.14695e-07
1.79418e-06
7.64747e-06
-8.69587e-06
-3.13153e-06
1.56152e-06
1.02659e-05
7.36871e-06
-4.87527e-07
4.62142e-07
-7.23002e-06
8.91367e-06
-4.09271e-08
-2.11098e-08
-6.18418e-08
-7.82405e-06
3.13802e-06
-6.95692e-07
-2.23253e-08
-2.47963e-06
-2.52534e-05
-2.05426e-06
5.44973e-06
2.18579e-05
-2.31127e-05
3.46066e-08
4.85259e-08
2.30296e-05
-1.20196e-07
-4.70013e-07
-2.57809e-05
1.03765e-06
-3.03284e-07
2.56368e-05
-2.12718e-06
-1.83486e-05
-4.64495e-07
9.97004e-07
-2.25539e-06
2.21986e-05
-2.13313e-05
-2.47965e-06
-4.93697e-07
-8.39692e-07
2.5963e-05
-8.18667e-07
1.02917e-06
1.07823e-06
-1.3863e-05
-1.5217e-06
-3.02814e-06
1.63055e-05
-6.72636e-06
-1.61741e-05
0.000151641
3.45442e-06
4.29124e-06
3.18711e-06
4.28615e-06
3.34127e-06
2.02241e-06
3.52789e-06
3.35304e-06
-6.4715e-06
-1.02169e-05
0.000199154
4.70089e-06
3.95172e-06
4.39274e-06
3.8477e-06
4.15299e-07
-1.21248e-05
0.000154474
2.45122e-06
4.41162e-06
2.32725e-06
3.47613e-06
-4.13245e-06
3.12299e-07
-2.07035e-06
-6.39696e-05
1.75387e-05
5.73038e-06
-4.56674e-06
4.56825e-05
-1.06814e-06
9.28649e-07
1.27153e-06
-2.97739e-06
-1.51481e-06
3.36017e-06
1.52648e-06
-7.09205e-07
8.35042e-07
-1.64976e-06
-1.82626e-06
-2.21421e-05
2.80005e-06
2.09196e-06
-8.25051e-07
1.99014e-05
-5.49274e-06
-6.85388e-06
0.000153262
5.93169e-09
3.04912e-06
1.57209e-06
4.11687e-06
-3.66335e-06
-2.02231e-06
0.000128698
-1.91035e-06
3.02344e-07
0.000113972
8.75864e-07
-1.40844e-06
-3.5807e-07
1.3664e-06
7.0949e-07
1.35943e-06
-1.94276e-05
-1.34044e-07
-2.00995e-06
2.15593e-06
1.75053e-05
-1.5725e-07
2.04023e-06
1.75814e-06
-1.63822e-06
-2.08446e-06
8.15614e-08
7.07092e-06
-7.60264e-07
7.53487e-08
5.3014e-07
-6.43683e-06
-4.79318e-07
-4.81597e-06
7.87084e-07
1.73405e-05
1.57403e-06
1.17193e-06
2.34209e-06
1.17285e-06
8.31044e-07
9.94963e-07
8.58749e-07
5.00154e-08
-7.82871e-08
2.01638e-05
-1.96755e-07
-5.27278e-07
-4.56237e-07
2.42808e-07
4.74262e-08
5.6931e-07
-8.67395e-06
-1.6471e-06
1.48659e-06
9.18681e-06
-8.32391e-06
-7.91761e-06
3.82059e-06
1.05971e-06
1.13612e-05
5.0444e-07
6.38966e-07
-8.58344e-07
-2.85062e-07
7.05088e-06
-3.49887e-07
5.29482e-07
-6.44019e-06
6.91352e-06
-4.53159e-07
9.03071e-07
-5.19432e-07
-6.92229e-06
1.939e-06
-3.09334e-07
-2.21725e-07
-1.40365e-06
-1.76457e-05
3.59388e-08
2.94847e-06
1.46613e-05
-2.29166e-05
-2.55848e-06
2.49945e-06
2.29756e-05
-9.06373e-08
1.86658e-06
-2.48363e-05
-1.0781e-06
1.14413e-07
2.4024e-05
-1.84049e-06
-2.48975e-05
6.90357e-07
7.34104e-07
-1.18866e-06
2.65022e-05
-3.01734e-05
-2.8029e-06
-1.95151e-07
7.74485e-07
3.33843e-05
-9.87347e-07
-7.31462e-07
2.08908e-06
-1.80729e-05
-2.61302e-06
-2.0264e-07
1.9531e-05
-5.73839e-06
-1.03316e-05
0.000149878
1.87529e-06
1.81277e-06
1.22713e-06
1.41834e-06
3.17914e-06
2.46974e-06
2.64023e-06
3.20991e-06
-7.97681e-06
-7.87824e-06
0.000198972
2.54038e-06
2.08177e-06
2.9915e-06
2.68427e-06
7.80626e-07
-2.2769e-06
0.000147851
-4.35583e-08
1.06628e-06
-1.37006e-07
-1.9895e-07
-8.85805e-07
5.92499e-07
-2.50357e-07
-4.22642e-05
1.85841e-06
2.83225e-06
-2.76897e-07
3.86311e-05
-5.08747e-06
-9.87342e-07
-2.74657e-06
1.1085e-06
9.5659e-07
6.75629e-06
1.37856e-06
-8.89081e-07
1.59182e-07
-6.42731e-07
7.6029e-07
-1.86515e-05
9.14989e-07
-1.19216e-06
1.85126e-07
1.79833e-05
-5.09117e-06
-2.95893e-06
0.000140952
1.55451e-06
2.70603e-06
2.58131e-06
3.18643e-06
-7.41733e-06
-3.80402e-06
0.00012695
-1.41289e-06
1.53492e-06
0.000102163
-1.20459e-06
-9.06564e-07
-1.95583e-06
1.92242e-06
2.42011e-06
1.71665e-06
-1.6522e-05
-2.71757e-08
-1.5646e-06
6.55022e-07
1.60459e-05
1.4294e-07
-5.86646e-08
2.12251e-06
-1.38568e-06
-1.63105e-07
-6.58004e-07
5.28356e-06
-8.93329e-08
-8.00633e-07
1.10093e-06
-3.99984e-06
-1.49468e-06
-7.18657e-06
1.15062e-06
1.30433e-05
1.67852e-06
6.40722e-07
1.79101e-06
6.79826e-07
9.54778e-07
7.79763e-07
8.4968e-07
-2.17755e-06
-6.08785e-07
2.11425e-05
-2.54618e-06
-2.42281e-06
-3.20403e-06
-6.01353e-07
-3.87571e-07
-2.09937e-08
-1.0523e-05
-3.9366e-06
2.67831e-06
1.11386e-05
-1.06851e-05
-2.29335e-06
7.33055e-06
-3.29737e-06
8.94531e-06
1.23717e-06
-8.08696e-07
2.49096e-06
-1.37601e-06
-1.54343e-06
5.84449e-06
-4.6528e-07
6.80157e-07
-4.91798e-06
6.20697e-06
-4.47049e-07
-3.1892e-07
-5.36253e-07
-5.51354e-06
5.96403e-07
-2.64741e-06
1.86775e-06
1.83696e-07
-1.32833e-05
-1.05073e-08
4.4954e-07
1.28443e-05
-2.28593e-05
-1.66653e-06
2.27339e-06
2.22524e-05
-4.45401e-07
1.32384e-06
-2.34004e-05
-1.65408e-06
7.83756e-07
2.33922e-05
-5.48852e-07
-2.73026e-05
1.43231e-06
-2.4339e-07
-1.23412e-06
2.78967e-05
-3.51023e-05
-2.27778e-06
6.77434e-07
1.7823e-06
3.56605e-05
-7.40172e-07
-1.58337e-06
2.04319e-06
-2.05818e-05
-2.56893e-06
1.00426e-06
2.16867e-05
-7.15061e-06
-5.72879e-06
0.000151983
4.67095e-07
-4.39851e-07
-1.15347e-07
-3.95673e-07
2.82502e-06
2.8351e-06
2.41409e-06
3.18468e-06
-5.89876e-06
-3.67042e-06
0.000193315
1.55656e-06
1.47166e-06
2.50271e-06
2.54468e-06
1.48842e-06
4.4147e-06
0.000143453
-1.76815e-06
-8.74269e-07
-1.41305e-06
-2.3598e-06
6.93774e-07
-1.3936e-06
-2.89284e-07
-4.45795e-05
1.96532e-06
5.41772e-06
2.20381e-06
3.64811e-05
-9.84119e-06
-6.28094e-06
4.89023e-06
5.78745e-06
5.44446e-06
-2.63417e-07
-1.5051e-06
5.48946e-07
1.21957e-06
1.59117e-06
-1.76543e-05
-7.84306e-08
-2.63791e-06
3.94454e-07
1.8385e-05
-5.92895e-06
-1.93662e-06
0.000131443
2.48765e-06
2.6515e-06
3.35006e-06
3.15621e-06
-6.82821e-06
1.09079e-07
0.00012407
-3.93844e-07
2.70179e-06
9.53564e-05
-1.60533e-06
-6.39165e-07
-3.46189e-06
2.46904e-06
3.27908e-06
2.0439e-06
-1.6312e-05
-7.61201e-07
-5.974e-07
1.18939e-06
1.60873e-05
1.08764e-06
-5.54622e-06
1.83887e-07
6.76674e-07
4.01161e-06
-4.13597e-07
2.55125e-06
-6.0631e-09
-8.48082e-07
5.18281e-07
-9.85472e-07
-1.22991e-06
-6.58287e-06
3.24731e-07
1.45297e-05
1.32882e-06
3.84603e-08
1.07233e-06
-3.37575e-07
6.29415e-07
-1.0901e-07
2.1269e-07
-2.8126e-06
3.3796e-07
2.41639e-05
-3.16892e-06
-1.99061e-06
-3.27803e-06
9.4114e-07
-2.28639e-07
7.04491e-07
-1.22012e-05
-3.9746e-06
3.54518e-06
1.25198e-05
-7.20372e-06
-5.08359e-06
6.02057e-06
6.26675e-06
4.07276e-06
-8.83958e-07
6.96188e-07
-3.5602e-06
3.80455e-06
2.63515e-07
-2.48963e-06
4.3082e-07
-1.67129e-06
-8.56054e-07
-3.53224e-06
2.92142e-06
1.46687e-06
-1.27307e-05
1.20573e-08
3.00572e-08
1.26886e-05
-2.10709e-05
-9.28002e-07
2.29482e-06
1.97041e-05
-1.1715e-06
8.51856e-07
-2.36289e-05
-1.62485e-06
1.42886e-06
2.41445e-05
-9.83393e-08
-2.83661e-05
1.98376e-06
-8.85651e-07
-1.18009e-06
2.85464e-05
-3.5496e-05
-1.88004e-06
1.27623e-06
2.06027e-06
3.47123e-05
-6.7283e-07
-1.764e-06
1.89148e-06
-2.26769e-05
-2.23013e-06
9.59075e-07
2.38205e-05
-8.09802e-06
-1.84892e-06
0.000155517
-7.85355e-07
-1.85369e-06
-1.29853e-06
-1.36905e-06
2.69054e-06
2.82587e-06
2.63189e-06
3.57056e-06
-2.71073e-06
2.14569e-06
0.000179949
8.3393e-07
8.75581e-07
1.9251e-06
2.19924e-06
-1.83336e-06
8.24482e-06
0.00014287
-2.20062e-06
-2.28858e-06
-1.12637e-06
-1.84131e-06
-7.71893e-07
-4.81787e-07
1.71318e-07
-3.1244e-05
-4.17554e-06
3.40809e-06
3.01781e-05
-2.07604e-06
-1.50269e-06
7.81028e-07
2.797e-06
1.48693e-06
-1.95715e-05
9.19652e-09
-2.74622e-06
2.17781e-07
2.06038e-05
-6.44543e-06
-1.87273e-07
0.000125428
2.59384e-06
2.24805e-06
3.21706e-06
2.74012e-06
-4.23007e-06
4.54874e-06
0.000119451
-1.79289e-06
3.77847e-06
9.45176e-05
-3.47707e-06
-1.24097e-06
-2.64247e-06
2.73488e-06
4.52112e-06
2.97249e-06
-1.86219e-05
-2.42833e-06
-5.92102e-06
5.02852e-06
2.01498e-05
-1.71586e-07
-1.62877e-07
-1.67818e-07
5.77758e-07
8.14663e-07
-8.9014e-07
-6.59767e-06
-2.29839e-07
2.15619e-05
6.1887e-07
-2.7897e-07
3.49395e-07
-5.84915e-07
3.29913e-07
-7.11803e-07
-1.14457e-07
-2.06745e-06
7.75464e-07
2.87721e-05
-3.24246e-06
-1.65152e-06
-3.32275e-06
1.20271e-06
5.37947e-07
1.111e-06
-1.30872e-05
-2.04597e-06
4.01859e-06
1.28256e-05
-5.76127e-06
-2.83874e-06
3.86223e-06
4.73777e-06
3.22341e-06
2.16392e-08
-7.29214e-07
-2.74568e-06
8.79552e-08
1.36749e-06
-3.67451e-06
1.2179e-06
1.77663e-06
-2.04761e-06
-3.94081e-06
3.36338e-06
2.62503e-06
-1.25957e-05
1.4696e-07
9.66846e-08
1.23521e-05
-1.85077e-05
-1.14694e-06
2.11646e-06
1.75382e-05
-1.65933e-06
9.58328e-07
-2.44056e-05
-1.27531e-06
1.89046e-06
2.44915e-05
-1.88798e-07
-2.86116e-05
2.00492e-06
-9.80887e-07
-5.94519e-07
2.83709e-05
-3.36912e-05
-1.61026e-06
1.99577e-06
1.85619e-06
3.25479e-05
-1.09846e-06
-1.59106e-06
1.96994e-06
-2.49938e-05
-2.15664e-06
5.80753e-07
2.61908e-05
-8.06082e-06
1.7792e-06
0.000158518
-1.65806e-06
-2.55523e-06
-1.88282e-06
-1.8973e-06
2.53277e-06
2.76388e-06
2.45276e-06
3.52542e-06
-3.42033e-07
5.12541e-06
0.00016425
3.02474e-07
5.52884e-07
7.86978e-07
1.21152e-06
7.58922e-07
1.02149e-05
0.000133303
-1.80594e-06
-1.65431e-06
-8.63317e-07
-1.56229e-06
1.39751e-06
8.86095e-07
1.85356e-06
-2.83772e-05
-1.86783e-06
3.76175e-06
2.72422e-05
-3.46144e-06
-1.5389e-06
8.59138e-07
4.1412e-06
1.09066e-06
-2.16667e-05
3.35631e-07
-2.34174e-06
-1.00242e-07
2.26824e-05
-7.51722e-06
2.18752e-06
0.000123347
2.21811e-06
1.89505e-06
2.76425e-06
2.31234e-06
-2.69564e-06
7.57782e-06
0.000112177
-2.11615e-07
4.3532e-06
9.02382e-05
-1.81955e-06
-1.96643e-08
-1.66395e-06
3.2145e-06
4.80112e-06
3.14459e-06
-2.01294e-05
-2.63609e-06
-2.99778e-06
4.94361e-06
2.06081e-05
-1.27719e-06
-5.55413e-07
2.09995e-07
8.72599e-08
1.87077e-06
-3.3542e-07
-7.16586e-06
-2.93323e-07
3.16548e-05
2.12266e-07
-2.11e-07
1.92743e-07
-3.29747e-07
3.14023e-07
-7.07293e-07
8.27625e-08
-2.16083e-06
1.29742e-06
3.45322e-05
-3.27059e-06
-1.90818e-06
-3.26795e-06
1.49084e-06
1.11181e-06
1.35932e-06
-1.31809e-05
-1.45573e-06
4.11338e-06
1.27156e-05
-4.54766e-06
-2.77906e-06
2.64469e-06
4.68203e-06
2.24794e-06
6.34769e-07
-1.92989e-06
-1.24618e-06
-3.08653e-06
2.54201e-06
-4.45666e-06
1.62208e-06
4.67652e-06
-3.07357e-06
-4.00336e-06
3.57126e-06
3.50568e-06
-1.19608e-05
6.88464e-08
3.50901e-07
1.15411e-05
-1.6692e-05
-1.1772e-06
2.08779e-06
1.57814e-05
-1.66209e-06
7.00993e-07
-2.42967e-05
-8.39772e-07
2.01977e-06
2.40778e-05
-5.37832e-07
-2.79033e-05
1.52007e-06
-5.03377e-07
3.72085e-07
2.70524e-05
-3.16736e-05
-1.60069e-06
2.05957e-06
1.57721e-06
3.10061e-05
-1.36862e-06
-1.86338e-06
2.05106e-06
-2.72765e-05
-1.98624e-06
8.63822e-07
2.82112e-05
-8.03367e-06
4.67085e-06
0.000161697
-2.13271e-06
-2.94151e-06
-2.15946e-06
-2.04138e-06
1.98666e-06
2.45109e-06
1.83101e-06
3.18992e-06
-5.93289e-07
5.95446e-06
0.000151587
-5.63865e-07
-5.02214e-07
4.30665e-08
2.92137e-07
8.66278e-07
1.19295e-05
0.000122747
-1.96149e-06
-1.80299e-06
-1.28184e-06
-1.7222e-06
1.63366e-06
8.43106e-07
1.45864e-06
-2.64225e-05
-2.05897e-06
3.60546e-06
2.57423e-05
-4.73515e-06
-1.62486e-06
1.16806e-06
5.19196e-06
5.8494e-07
-2.38985e-05
9.29506e-08
-1.83211e-06
-9.25624e-08
2.51452e-05
-8.67045e-06
5.2647e-06
0.000124632
1.78687e-06
1.1802e-06
2.31351e-06
1.5111e-06
-4.47518e-06
9.68239e-06
0.000104254
-9.14719e-08
4.24896e-06
8.54275e-05
-1.47848e-06
-4.76653e-08
-1.38159e-06
3.21028e-06
4.63239e-06
3.17256e-06
-2.11289e-05
-2.84005e-06
-2.49281e-06
4.7898e-06
2.15805e-05
-2.50983e-06
-1.05877e-06
2.86019e-07
3.72248e-09
3.46178e-06
-1.82929e-07
-7.42624e-06
1.44155e-07
4.29516e-05
7.04686e-08
1.90095e-07
1.63486e-07
8.77637e-08
5.42495e-07
-1.12825e-07
3.08516e-07
-2.41463e-06
1.52537e-06
4.1821e-05
-3.20523e-06
-2.10979e-06
-3.16534e-06
1.59773e-06
1.3493e-06
1.38999e-06
-1.30934e-05
-1.58609e-06
3.88733e-06
1.26265e-05
-4.89396e-06
-2.80903e-06
2.47935e-06
5.22364e-06
2.04773e-07
1.37601e-06
-2.62825e-06
1.19162e-06
-5.67756e-06
2.90739e-06
-4.38818e-06
1.87663e-06
6.80709e-06
-3.87784e-06
-3.7703e-06
3.37425e-06
4.27389e-06
-1.11518e-05
7.31036e-08
2.85425e-07
1.07932e-05
-1.46847e-05
-7.08354e-07
1.85933e-06
1.35337e-05
-1.11214e-06
1.76792e-07
-2.38165e-05
-6.46356e-07
1.78703e-06
2.36112e-05
-1.26243e-07
-2.58496e-05
1.39694e-06
-5.3491e-07
7.95615e-07
2.43182e-05
-3.04672e-05
-1.56936e-06
1.83332e-06
1.45879e-06
2.97622e-05
-1.01775e-06
-2.08866e-06
1.98552e-06
-2.89723e-05
-1.78129e-06
1.23141e-06
2.96254e-05
-8.19842e-06
6.70982e-06
0.000164608
-2.28465e-06
-2.92925e-06
-2.24597e-06
-1.92492e-06
1.50457e-06
2.04215e-06
1.56216e-06
2.85331e-06
-2.56616e-06
8.30826e-06
0.000141753
-1.61753e-06
-1.2794e-06
-7.58796e-07
-4.51467e-07
6.17588e-07
1.3056e-05
0.000111802
-2.25303e-06
-1.87013e-06
-1.50625e-06
-1.64237e-06
8.6267e-07
4.07007e-07
7.07191e-07
-2.52252e-05
-2.18588e-06
3.51616e-06
2.45125e-05
-5.50447e-06
-1.56208e-06
1.39128e-06
5.67527e-06
1.92125e-07
-2.6553e-05
-4.5236e-07
-1.18304e-06
1.84419e-07
2.78118e-05
-9.31375e-06
8.12436e-06
0.000128219
1.12795e-06
5.36902e-07
1.46461e-06
1.18276e-06
-7.68317e-06
1.16865e-05
9.92453e-05
-3.5999e-07
4.06484e-06
7.95258e-05
-1.41996e-06
-3.44092e-07
-1.45398e-06
3.18907e-06
4.43101e-06
3.16769e-06
-2.19507e-05
-2.87752e-06
-2.07926e-06
4.57562e-06
2.19719e-05
-4.39122e-06
-1.2689e-06
3.95905e-07
4.83815e-08
5.50056e-06
-2.84721e-07
-7.35752e-06
5.48414e-07
5.46885e-05
5.13542e-08
6.18899e-07
9.12231e-08
5.46889e-07
7.84704e-07
3.9605e-07
7.07469e-07
-2.51152e-06
1.70686e-06
5.01989e-05
-3.03485e-06
-2.05718e-06
-2.90862e-06
1.62574e-06
1.67134e-06
1.45922e-06
-1.30344e-05
-1.72945e-06
3.60312e-06
1.27141e-05
-5.55146e-06
-2.83882e-06
2.4761e-06
5.91418e-06
-2.35658e-06
1.84646e-06
-2.73572e-06
3.79425e-06
-7.62875e-06
2.66875e-06
-3.77889e-06
1.79048e-06
8.65527e-06
-4.66334e-06
-3.31047e-06
2.95097e-06
5.02283e-06
-1.04875e-05
5.3891e-08
2.36171e-07
1.01974e-05
-1.25886e-05
-8.17423e-07
1.40529e-06
1.20007e-05
-1.63109e-06
-2.219e-07
-2.33812e-05
1.83072e-07
2.01038e-06
2.30408e-05
-3.33526e-07
-2.30246e-05
4.83482e-07
-2.20964e-07
8.87463e-07
2.22081e-05
-2.90113e-05
-1.312e-06
1.14565e-06
1.55734e-06
2.81853e-05
-5.64993e-07
-1.95948e-06
1.79962e-06
-3.02424e-05
-1.78983e-06
1.32447e-06
3.08676e-05
-7.81715e-06
8.38731e-06
0.000166574
-2.49437e-06
-2.86059e-06
-2.37783e-06
-1.87068e-06
1.35824e-06
1.67396e-06
1.50334e-06
2.53129e-06
-4.23594e-06
1.1196e-05
0.000132932
-2.0204e-06
-1.93356e-06
-1.14492e-06
-8.56874e-07
1.29276e-07
1.24575e-05
0.000101902
-2.22394e-06
-1.55039e-06
-1.72052e-06
-1.4749e-06
1.44032e-07
-1.44798e-08
-8.22167e-08
-2.37799e-05
-1.87834e-06
2.83725e-06
2.29503e-05
-5.72718e-06
-1.24998e-06
1.24022e-06
5.73694e-06
1.99106e-07
-2.89094e-05
-7.79744e-07
-5.57402e-07
3.70074e-07
2.96774e-05
-8.9962e-06
1.02313e-05
0.000132866
3.29258e-07
3.2365e-07
8.32039e-07
1.02072e-06
-7.99461e-06
1.35441e-05
9.58956e-05
-5.47029e-07
3.72707e-06
7.44536e-05
-1.45069e-06
-7.84537e-07
-1.34181e-06
2.95471e-06
4.07858e-06
2.89882e-06
-2.18372e-05
-2.41835e-06
-1.84807e-06
4.12481e-06
2.14318e-05
-6.42253e-06
-1.23001e-06
5.62882e-07
-7.20355e-08
7.48839e-06
-3.26693e-07
-7.20624e-06
8.3096e-07
6.61718e-05
-4.1769e-09
1.03568e-06
5.06706e-08
1.02436e-06
1.10077e-06
7.88675e-07
1.12728e-06
-2.23526e-06
2.01714e-06
5.79158e-05
-2.63686e-06
-1.60913e-06
-2.47771e-06
1.73204e-06
2.12205e-06
1.70875e-06
-1.33046e-05
-1.46293e-06
3.17971e-06
1.30797e-05
-6.23506e-06
-2.37188e-06
2.07466e-06
6.53228e-06
-5.00876e-06
2.06317e-06
-2.60173e-06
6.37828e-06
-9.65568e-06
2.25077e-06
-3.06248e-06
1.65887e-06
1.08257e-05
-5.36161e-06
-2.52977e-06
2.24955e-06
5.64183e-06
-9.69489e-06
-1.46694e-07
1.0347e-06
8.80687e-06
-1.17239e-05
-7.65561e-07
8.88068e-07
1.16014e-05
-1.51979e-06
-3.71248e-07
-2.25532e-05
5.52541e-07
2.02708e-06
2.18647e-05
-1.83835e-06
-2.197e-05
-3.06835e-07
5.27349e-07
1.80602e-06
2.17818e-05
-2.76394e-05
-2.38863e-06
1.31449e-06
2.34739e-06
2.72711e-05
-9.05035e-07
-1.67636e-06
1.80353e-06
-3.14972e-05
-1.84614e-06
1.11364e-06
3.21025e-05
-7.60364e-06
9.324e-06
0.000167724
-2.45556e-06
-2.69907e-06
-2.15774e-06
-1.77764e-06
1.30384e-06
1.31482e-06
1.40412e-06
2.19686e-06
-4.25732e-06
1.24386e-05
0.000124225
-2.38018e-06
-1.98789e-06
-1.62551e-06
-1.08497e-06
-5.8285e-07
1.05515e-05
9.65437e-05
-2.49892e-06
-1.45329e-06
-1.92944e-06
-1.21492e-06
-3.79263e-07
-1.14722e-06
-2.44892e-07
-2.21383e-05
-1.38365e-06
1.93394e-06
2.10052e-05
-5.77019e-06
-9.04052e-07
8.34212e-07
5.84003e-06
4.24169e-07
-3.02694e-05
-7.87156e-07
-3.9553e-07
4.67068e-07
3.05609e-05
-8.39321e-06
1.16729e-05
0.000137731
-1.70682e-07
1.76979e-07
4.10263e-07
7.62135e-07
-6.44438e-06
1.44756e-05
9.19098e-05
-6.41618e-07
2.9579e-06
7.04788e-05
-9.7055e-07
-3.93783e-07
-8.0119e-07
2.47087e-06
3.09139e-06
2.36899e-06
-2.09617e-05
-1.59425e-06
-1.49071e-06
2.82526e-06
2.05798e-05
-8.38086e-06
-1.06111e-06
6.93678e-07
-4.25969e-07
9.40444e-06
-2.30178e-07
-7.1868e-06
1.00009e-06
7.72937e-05
-2.51961e-08
1.4056e-06
1.99182e-07
1.41601e-06
1.3255e-06
1.02107e-06
1.3955e-06
-1.80649e-06
2.3007e-06
6.41672e-05
-2.23695e-06
-1.32702e-06
-2.16328e-06
1.85626e-06
2.46181e-06
1.95232e-06
-1.37219e-05
-9.83768e-07
2.4511e-06
1.3406e-05
-6.77349e-06
-1.66851e-06
1.42423e-06
7.01778e-06
-7.62224e-06
2.19518e-06
-2.45497e-06
8.88212e-06
-1.20841e-05
1.92858e-06
-2.45474e-06
1.57562e-06
1.33353e-05
-5.92424e-06
-1.78163e-06
1.508e-06
6.19788e-06
-7.76863e-06
-5.02736e-07
1.32708e-06
6.94428e-06
-1.15174e-05
-2.59722e-07
2.9339e-07
1.14837e-05
-6.95785e-07
8.6267e-08
-2.10571e-05
-9.72271e-08
1.46146e-06
2.03024e-05
-1.75289e-06
-2.1479e-05
-2.31363e-07
6.32816e-07
2.06722e-06
2.07632e-05
-2.71189e-05
-2.46638e-06
1.26147e-06
2.36522e-06
2.68968e-05
-9.38298e-07
-1.21319e-06
1.58772e-06
-3.27127e-05
-1.75361e-06
8.04475e-07
3.32873e-05
-8.1759e-06
9.33803e-06
0.000168084
-1.85463e-06
-2.49535e-06
-1.5215e-06
-1.40211e-06
1.26313e-06
1.07935e-06
1.41345e-06
1.99642e-06
-4.65425e-06
1.12101e-05
0.000114671
-2.12835e-06
-1.70464e-06
-9.11766e-07
-4.32682e-07
-1.33963e-06
7.69162e-06
9.21712e-05
-2.33186e-06
-8.88496e-07
-1.27792e-06
-5.43502e-07
-3.18982e-07
-1.2051e-06
-6.78815e-08
-1.97457e-05
-6.42946e-07
6.11918e-07
1.84371e-05
-5.92637e-06
-6.50467e-07
5.45369e-07
6.03147e-06
5.10627e-07
-3.06488e-05
-7.84294e-07
-7.39459e-08
5.9366e-07
3.04028e-05
-7.53118e-06
1.22673e-05
0.000142772
-5.60802e-07
-2.77015e-07
8.10916e-08
3.18375e-07
-6.08386e-06
1.34542e-05
8.82184e-05
-3.92938e-07
1.8092e-06
6.75e-05
-9.4672e-07
-1.80517e-07
-1.00921e-06
1.72099e-06
2.04392e-06
1.54183e-06
-2.01179e-05
-9.74562e-07
-7.64309e-07
1.95703e-06
1.95068e-05
-1.03376e-05
-8.37803e-07
6.39239e-07
-8.63478e-07
1.13531e-05
4.66164e-08
-7.11337e-06
1.04989e-06
8.75903e-05
1.23987e-07
1.64342e-06
5.89014e-07
1.69574e-06
1.39096e-06
1.10005e-06
1.49093e-06
-1.78529e-06
2.29541e-06