/*--------------------------------*- C++ -*----------------------------------*\
| =========                 |                                                 |
| \\      /  F ield         | OpenFOAM: The Open Source CFD Toolbox           |
|  \\    /   O peration     | Version:  5.x                                   |
|   \\  /    A nd           | Web:      www.OpenFOAM.org                      |
|    \\/     M anipulation  |                                                 |
\*---------------------------------------------------------------------------*/
FoamFile
{
    version     2.0;
    format      ascii;
    class       volVectorField;
    location    "9";
    object      U;
}
// * * * * * * * * * * * * * * * * * * * * * * * * * * * * * * * * * * * * * //

dimensions      [0 1 -1 0 0 0 0];

internalField   nonuniform List<vector> 
10571
(
(0.407071 0.460075 2.26943)
(0.0628399 -0.0504436 1.33133)
(0.338702 0.119665 1.74474)
(0.500957 0.26228 1.53403)
(-0.0204514 0.113729 0.992299)
(0.382153 -0.467333 2.09248)
(1.02287 0.177966 1.41202)
(1.30522 -0.0993882 1.96473)
(-0.0619062 -0.00248026 2.04529)
(0.0256141 -0.251189 1.77612)
(0.0645421 -0.251436 1.18588)
(0.542131 -1.00285 1.91164)
(1.33768 -1.06831 2.09684)
(0.638556 -2.23198 2.62492)
(0.345702 -1.53689 2.88291)
(0.270729 -0.529424 2.31383)
(-0.0285563 -0.271609 1.07787)
(0.349447 -0.638497 1.03465)
(0.420583 -1.11901 1.3667)
(0.360294 -0.706382 1.15447)
(0.176468 -0.344825 1.01696)
(0.182107 -0.131493 0.848347)
(0.426837 -0.217688 1.26944)
(0.302237 -0.254539 0.907638)
(-0.265891 -0.242772 1.55855)
(0.0445851 -0.239856 1.36953)
(-0.156701 -0.514389 1.35696)
(-0.167251 -0.610794 1.27174)
(0.207457 -0.271097 1.15465)
(-0.121991 -0.314238 1.68577)
(-0.176508 -0.233526 2.56786)
(0.312587 0.137367 3.04093)
(0.602593 0.199561 1.83566)
(0.143907 0.249286 1.96454)
(0.0157986 -0.0340369 1.05157)
(0.0778236 -0.0944798 1.37602)
(0.0521746 -0.210935 1.16871)
(0.169639 -0.135117 0.943487)
(0.0614738 -0.155288 0.972918)
(-0.134205 -0.188029 1.49133)
(0.00980328 -0.101607 0.874553)
(0.0773029 -0.279687 0.802485)
(0.0552779 -0.339453 0.789998)
(-0.0695122 -0.588919 1.03482)
(0.138842 -0.216276 1.07851)
(-0.124929 -0.259548 0.735176)
(0.125673 -0.521864 0.828778)
(0.176779 -0.127019 0.708059)
(-0.131394 -0.613197 3.70967)
(-0.105164 -1.00567 2.62361)
(-0.239703 -0.811752 1.13469)
(-0.229772 -0.822423 1.34516)
(0.127178 -0.405984 1.15322)
(-0.442626 -0.307534 1.31571)
(-0.117764 -0.120943 1.79158)
(0.312127 0.206189 2.05313)
(0.600788 0.279561 2.87915)
(0.837203 0.687202 3.34521)
(0.0544164 -0.0513575 0.676665)
(-0.0500728 -0.176294 1.05785)
(0.136528 0.0977908 1.45334)
(0.0805618 0.203564 1.87164)
(0.0518562 0.0188113 3.14615)
(0.20234 -0.25708 2.05101)
(0.0961842 -0.328444 0.608105)
(0.167158 -0.428171 0.617898)
(0.0436411 -0.574553 0.998449)
(-0.0270873 -0.417231 0.799611)
(0.00539228 -0.0977935 0.684975)
(-0.022021 -0.302135 0.512061)
(0.119642 -0.364227 0.501432)
(0.183861 -0.25564 0.484691)
(0.360144 0.00846132 3.75807)
(0.418018 -0.714726 2.34724)
(-0.0618155 -0.480609 0.464859)
(-0.0111162 -0.667429 1.13303)
(-0.00852371 -0.196147 0.942417)
(-0.242822 -0.311918 0.538165)
(0.00996623 -0.268764 1.87739)
(0.119873 -0.0485104 2.87669)
(0.0440011 0.0351927 2.61876)
(1.02914 0.0397649 2.69531)
(0.0564765 0.311853 -0.222237)
(0.117559 0.0196066 1.18611)
(0.336473 0.0427301 2.2167)
(-0.426893 -0.310656 2.44848)
(-0.234245 -0.367643 2.1603)
(-0.371654 0.30412 1.03758)
(0.111971 -0.255856 0.159366)
(0.313258 -1.0785 1.48804)
(-0.243867 -1.3099 1.54258)
(0.0615337 -0.987277 0.280081)
(0.0612673 -0.0187337 -0.00897193)
(0.0501416 -0.0807544 -0.0473298)
(0.0844376 -0.162257 -0.10897)
(0.0330858 -0.0698063 -0.229254)
(0.328812 0.0619161 3.97149)
(0.605037 -0.529686 2.03812)
(0.505514 -0.21735 0.784966)
(0.142254 0.0512867 0.54425)
(-0.0599706 0.0493557 0.494778)
(0.292484 -0.263618 0.562843)
(-0.00349374 -0.419739 1.87718)
(-0.0505833 -0.351193 2.56399)
(-0.174915 -0.288122 1.68739)
(0.493532 -0.210443 2.77831)
(-0.0312689 0.0251542 -0.113882)
(0.280709 -0.380118 1.33242)
(-0.0625666 -0.35886 1.54763)
(-0.389268 -0.608479 1.86683)
(0.0490589 -0.383851 1.58302)
(-0.3942 0.403314 1.15282)
(0.0874884 -0.0476893 -0.332535)
(-0.0992903 -0.436667 0.129922)
(0.0805637 -0.270141 0.157602)
(-0.182972 0.237414 0.13933)
(-0.021385 0.197925 0.372437)
(0.0622417 0.0387583 -0.394849)
(0.0617719 -0.0456828 -0.491509)
(-0.0625959 0.00868041 -0.450626)
(0.489741 0.128137 3.9357)
(0.396637 -0.414033 1.70411)
(0.423252 0.016549 1.07264)
(0.14699 0.174654 0.589296)
(0.0113641 0.0876261 0.56353)
(0.304714 -0.354894 0.47665)
(-0.189322 -0.386821 1.48438)
(-0.0540358 -0.350366 1.91745)
(-0.10872 -0.28518 1.67186)
(0.291168 -0.372638 2.69468)
(-0.0135128 0.00540504 -0.0037433)
(0.00812451 0.0923041 -0.14082)
(0.367487 -0.336703 1.13695)
(-0.188034 -0.318246 1.68128)
(-0.157125 -0.167997 1.3018)
(0.105093 -0.255157 1.50993)
(-0.326981 0.328569 0.979624)
(0.00103894 -6.83466e-05 -0.000761627)
(0.112087 0.0328707 -0.253554)
(-0.0659969 -0.0458153 0.487549)
(-0.0493403 0.184312 0.43781)
(0.143155 0.195702 0.322284)
(0.0379573 0.287532 0.738078)
(0.0575429 0.0239898 -0.460319)
(0.000945744 -0.00207138 -0.396433)
(0.00486823 0.0280655 -0.339761)
(0.489926 0.203464 3.46683)
(0.0449334 -0.0320261 1.69167)
(0.112676 0.120191 1.13043)
(0.0608609 0.152986 0.900954)
(0.0630638 0.132766 0.926284)
(0.00956893 -0.170553 0.675086)
(-0.187292 -0.308683 1.52956)
(-0.073163 -0.232342 2.10003)
(-0.11526 -0.19188 1.71892)
(0.15551 -0.44472 2.39788)
(-0.246375 -0.0490082 0.0986241)
(0.0396073 0.114912 -0.245658)
(0.27874 -0.177517 0.911062)
(-0.127728 -0.264785 1.69444)
(-0.100085 -0.1364 1.47672)
(-0.0171771 -0.231837 1.41156)
(-0.147487 0.111516 0.856972)
(-0.132009 -0.144112 -0.0108234)
(0.0703727 0.0426874 -0.279266)
(-0.173437 0.0503765 0.192673)
(-0.0279419 0.0720156 0.195421)
(0.0363075 0.162007 0.407407)
(-0.0322397 0.328752 0.763618)
(-0.140206 -0.00748732 0.00670774)
(0.0415748 0.0486186 -0.385686)
(0.0750587 -0.0468314 -0.297664)
(0.00885364 -0.0074239 -0.178683)
(0.172771 0.110753 2.23161)
(-0.0930569 0.168999 1.66732)
(-0.0736327 0.149422 1.07104)
(-0.00348238 0.12204 1.14197)
(0.0699686 0.181225 1.25641)
(-0.122458 0.00437085 0.84611)
(-0.112568 -0.150388 1.52939)
(-0.0965748 -0.152245 2.08986)
(-0.137873 0.0216198 1.7046)
(0.107336 -0.0788702 2.06149)
(0.0829704 0.0837721 0.256502)
(0.0113687 0.0975526 -0.162691)
(0.00505705 -0.0879437 0.839908)
(-0.104197 -0.188836 1.46885)
(-0.0901712 -0.106264 1.33883)
(-0.132108 -0.0936838 1.1698)
(-0.0938853 -0.0427324 0.750083)
(-0.156277 -0.0269392 -0.0303068)
(-0.0228322 0.107677 -0.163647)
(-0.130098 0.0939877 0.151138)
(-0.154851 -0.0196777 0.238336)
(-0.126786 0.221563 0.499363)
(-0.305821 0.262226 0.607044)
(-0.178975 0.0489811 -0.09642)
(0.0395407 0.068804 -0.293027)
(0.0370736 -0.052858 -0.235856)
(-0.213222 0.105867 -0.0131348)
(0.148124 -0.0222384 1.85406)
(-0.0816652 0.148133 1.66097)
(-0.106025 0.158605 1.02549)
(-0.0879898 0.0358851 1.22165)
(0.0877745 0.183079 1.39604)
(-0.154291 0.108005 0.930873)
(-0.147175 -0.0315652 1.54432)
(-0.0869367 -0.0967985 2.02431)
(-0.0623037 0.123575 1.61158)
(0.133194 0.228702 1.67814)
(0.572888 0.304604 0.368716)
(0.0099685 0.215918 0.116638)
(-0.141213 -0.0273831 0.808631)
(-0.117628 -0.167665 1.38548)
(-0.0945425 -0.0301728 1.28487)
(-0.0846061 0.0590799 1.07687)
(-0.0209441 -0.0212997 0.803729)
(0.0640297 0.275924 -0.0743755)
(-0.0235534 0.085637 -0.0744194)
(-0.0534235 0.10559 0.138204)
(-0.199593 0.0265228 0.225393)
(-0.159285 0.272862 0.5419)
(-0.303109 0.300356 0.510153)
(0.0679643 -0.0178704 -0.182695)
(-0.0699403 0.0141128 -0.0946268)
(-0.26622 0.152596 0.102221)
(0.090566 -0.0282663 1.82117)
(-0.0497282 0.133231 1.48315)
(-0.0921319 0.153051 1.05102)
(-0.148979 9.50887e-05 1.25776)
(0.106893 0.181448 1.38097)
(-0.14378 0.105915 1.01888)
(-0.200258 0.0365474 1.54208)
(-0.0593473 0.0171957 1.86694)
(0.0269221 0.118845 1.52471)
(0.0182598 0.247883 1.52918)
(-0.000830082 0.248923 0.358208)
(-0.160293 -0.0413264 0.886443)
(-0.14314 -0.103084 1.29448)
(-0.0767467 0.0515612 1.23774)
(-0.00704453 0.193008 1.00015)
(-0.106218 0.242215 0.715117)
(0.0379473 0.0456806 0.0065247)
(-0.0204352 0.095885 0.175404)
(-0.223096 0.103046 0.27576)
(-0.0757831 0.328945 0.568516)
(-0.199245 0.277586 0.414138)
(-0.0146072 -0.06524 -0.141963)
(-0.166209 0.0165421 0.0375126)
(-0.285376 0.193735 0.217568)
(0.054989 -0.0103644 1.79229)
(-0.0537972 0.116849 1.31131)
(-0.0643308 0.136166 1.0773)
(-0.167882 0.0290014 1.25603)
(0.14846 0.164922 1.29583)
(-0.144885 0.0933959 1.12252)
(-0.209938 0.0618179 1.55896)
(-0.0568816 0.0594624 1.70989)
(0.0636017 0.112563 1.4595)
(0.0682119 0.236041 1.39156)
(-0.0107754 0.24791 0.547298)
(-0.130965 -0.0491789 0.961394)
(-0.16482 -0.00473981 1.24739)
(-0.0817891 0.109424 1.16868)
(0.0224915 0.257989 0.978387)
(0.022959 0.270264 0.810451)
(0.0587566 0.0100048 0.052041)
(-0.0181467 0.0812308 0.281112)
(-0.238557 0.137788 0.333219)
(-0.084306 0.349824 0.565562)
(-0.168754 0.223214 0.408535)
(-0.0708039 -0.0615866 -0.0848247)
(-0.248111 0.0493254 0.156771)
(-0.303755 0.207058 0.301643)
(0.0570574 0.00136946 1.68088)
(-0.0609474 0.107152 1.1869)
(-0.0283766 0.108978 1.06111)
(-0.129085 0.0628876 1.21237)
(0.148177 0.13628 1.22509)
(-0.150814 0.124213 1.22033)
(-0.190122 0.0755557 1.58886)
(-0.0794117 0.0390491 1.58088)
(0.0595012 0.155479 1.36175)
(0.0555478 0.232255 1.31226)
(-0.00627976 0.278177 0.713896)
(-0.0891464 -0.0182151 1.07287)
(-0.155342 0.0779798 1.23621)
(-0.132546 0.157845 1.08969)
(0.00205114 0.278805 0.944157)
(0.0221226 0.285575 0.834429)
(0.0603626 0.0219931 0.110221)
(-0.0164151 0.101393 0.393661)
(-0.248029 0.157425 0.399718)
(-0.10582 0.331733 0.560264)
(-0.151826 0.223081 0.45766)
(-0.13061 -0.0247088 0.0277217)
(-0.263309 0.0612313 0.250078)
(-0.297232 0.196519 0.370944)
(0.0539428 0.0096056 1.56806)
(-0.040512 0.0844173 1.02545)
(0.00358666 0.0742556 1.03977)
(-0.114698 0.0381074 1.10314)
(0.126912 0.11057 1.17937)
(-0.152861 0.14856 1.28718)
(-0.176874 0.090286 1.62292)
(-0.0970592 0.0736453 1.46796)
(0.00846883 0.182587 1.24101)
(0.0483558 0.237642 1.25466)
(0.00871179 0.269516 0.805625)
(-0.0531502 0.028111 1.19908)
(-0.128404 0.133566 1.26185)
(-0.183647 0.202671 1.02473)
(-0.0540441 0.295398 0.872408)
(0.0193416 0.277745 0.867896)
(0.0763 0.0437533 0.189306)
(-0.0173605 0.137398 0.516259)
(-0.244891 0.180397 0.486036)
(-0.115409 0.305564 0.556168)
(-0.141426 0.229837 0.523161)
(-0.157029 0.00351714 0.160439)
(-0.22807 0.0700614 0.323819)
(-0.269519 0.165263 0.441332)
(0.0650045 -0.000423989 1.48351)
(-0.0652742 0.0505 0.88942)
(0.0394757 0.0944817 1.02145)
(-0.0601063 0.0493646 0.988632)
(0.0698728 0.102131 1.11786)
(-0.150797 0.146221 1.34262)
(-0.150968 0.125038 1.65067)
(-0.108786 0.14268 1.3783)
(-0.0371919 0.172085 1.11505)
(0.0211751 0.200279 1.17903)
(0.0160392 0.227492 0.820716)
(-0.042036 0.0564132 1.29219)
(-0.101406 0.166783 1.31127)
(-0.19995 0.238674 0.992122)
(-0.0507536 0.287549 0.806416)
(-0.00256402 0.244969 0.853118)
(0.0903163 0.0465652 0.268347)
(-0.0272859 0.172729 0.637117)
(-0.229693 0.204633 0.575312)
(-0.096623 0.272843 0.571015)
(-0.117836 0.184132 0.581637)
(-0.166846 0.0173237 0.291604)
(-0.184751 0.0914652 0.409513)
(-0.209871 0.111893 0.500619)
(0.0531903 0.015871 1.34038)
(-0.0666378 0.00616618 0.847878)
(0.0518579 0.100834 0.974278)
(0.0208312 0.132003 0.962459)
(0.0946898 0.163062 1.07052)
(-0.155375 0.123402 1.39584)
(-0.124343 0.139757 1.66965)
(-0.126947 0.156658 1.29694)
(-0.0255529 0.151655 1.03637)
(-0.0515829 0.136936 1.09174)
(0.00392993 0.191405 0.828283)
(-0.0642267 0.0649068 1.33933)
(-0.0854693 0.187289 1.36065)
(-0.194791 0.264978 0.955716)
(-0.010814 0.234883 0.759764)
(-0.0398915 0.150561 0.817654)
(0.0982034 0.0231802 0.344223)
(-0.0474654 0.19772 0.754655)
(-0.208094 0.210559 0.6474)
(-0.0653775 0.217262 0.588216)
(-0.0822725 0.13236 0.628078)
(-0.169109 0.0240064 0.41821)
(-0.151379 0.114916 0.506132)
(-0.143804 0.0735964 0.552373)
(0.093841 0.0325202 1.03867)
(-0.0258481 -0.0255645 0.836295)
(-0.0149087 0.0745243 0.906524)
(0.0388962 0.143111 0.932434)
(0.0998778 0.173438 1.05553)
(-0.145581 0.0936246 1.45041)
(-0.120104 0.13343 1.67544)
(-0.148095 0.11822 1.19959)
(-0.0213962 0.119254 0.99617)
(-0.126376 0.0342749 0.962222)
(-0.00530128 0.16759 0.855182)
(-0.0635782 0.0811994 1.34659)
(-0.0761142 0.19518 1.40812)
(-0.175878 0.256489 0.903664)
(-0.026956 0.160138 0.728003)
(-0.0100205 0.0972003 0.77905)
(0.0890399 -0.0197398 0.420841)
(-0.065738 0.207351 0.869432)
(-0.186715 0.185535 0.699726)
(-0.0755818 0.133884 0.602241)
(-0.0737818 0.0976796 0.655163)
(-0.168598 0.0253075 0.538323)
(-0.123206 0.123355 0.609801)
(-0.0927924 0.0500142 0.600648)
(0.125085 0.0122477 0.896457)
(0.00760323 -0.0410427 0.847628)
(-0.0585136 0.0393164 0.853202)
(-0.0264313 0.0523281 0.863742)
(0.0658935 0.125599 1.04514)
(-0.133235 0.0501566 1.50157)
(-0.1122 0.124626 1.67342)
(-0.150085 0.0720716 1.08951)
(-0.072129 0.069584 0.9364)
(-0.128737 0.0491681 0.842077)
(-0.0125149 0.149298 0.895032)
(-0.0343049 0.0799924 1.29098)
(-0.0655199 0.19138 1.4579)
(-0.143568 0.203125 0.874722)
(-0.0837005 0.117476 0.694752)
(0.00500527 0.0657466 0.742003)
(0.0484296 -0.0700405 0.502803)
(-0.0784133 0.208691 0.971182)
(-0.16446 0.14244 0.744986)
(-0.107928 0.0891749 0.609227)
(-0.0823736 0.0959588 0.580223)
(-0.165689 0.0242558 0.648445)
(-0.103794 0.112072 0.703969)
(-0.0808659 0.0439142 0.640247)
(0.131226 0.00164166 0.870491)
(0.0231335 -0.0597006 0.893206)
(-0.0473462 0.00321248 0.821028)
(-0.0637779 -0.0021467 0.869744)
(0.0672841 0.102065 1.04268)
(-0.106171 0.00865295 1.53383)
(-0.0867887 0.127342 1.65539)
(-0.133117 0.0242203 1.00596)
(-0.0904877 0.0522916 0.895346)
(-0.121011 -0.0867457 0.745759)
(-0.0133033 0.138615 0.953012)
(0.0381611 0.0574158 1.17717)
(-0.0696141 0.196714 1.49553)
(-0.111279 0.153979 0.862961)
(-0.11124 0.119208 0.654467)
(-0.0372824 0.108724 0.626163)
(-0.00934411 -0.104514 0.597476)
(-0.0915894 0.213035 1.05912)
(-0.146918 0.11079 0.787649)
(-0.136784 0.0980189 0.615482)
(-0.106733 0.193176 0.514571)
(-0.156862 0.023578 0.750175)
(-0.0950366 0.0912929 0.777869)
(-0.0849419 0.0509185 0.687224)
(0.123265 -0.00924101 0.896527)
(0.0398547 -0.0794717 0.966523)
(-0.039942 -0.0110704 0.8197)
(-0.0782397 -0.0105097 0.898001)
(0.0718569 0.0722964 1.05604)
(-0.0905873 -0.0234122 1.54559)
(-0.0796921 0.111958 1.6053)
(-0.123463 -0.00898679 0.924831)
(-0.0664769 0.0886915 0.865307)
(-0.00521252 -0.0230411 0.700282)
(-0.0105184 0.134275 1.01972)
(0.0838557 0.0338275 1.07651)
(-0.0938259 0.206498 1.5042)
(-0.0952684 0.13902 0.844684)
(-0.100102 0.165398 0.618027)
(-0.0631224 0.205022 0.453106)
(-0.0533076 -0.116854 0.68496)
(-0.101097 0.212397 1.13286)
(-0.146002 0.106236 0.83026)
(-0.143804 0.150301 0.627331)
(-0.114361 0.237025 0.503606)
(-0.143278 0.0249567 0.84666)
(-0.0888177 0.0747778 0.846818)
(-0.0952015 0.0602124 0.750455)
(0.107216 -0.00667643 0.971782)
(0.0686808 -0.101481 1.0387)
(-0.0702413 -0.0060265 0.844176)
(-0.161618 -0.00257143 0.939227)
(0.00331485 0.0901968 1.00209)
(-0.0831625 -0.0426762 1.54018)
(-0.106874 0.0890519 1.5374)
(-0.128886 0.00400422 0.817798)
(-0.0339884 0.240508 0.727919)
(0.129459 0.235516 0.562313)
(-0.00936214 0.12779 1.07821)
(0.0656381 0.00511456 1.03877)
(-0.116129 0.200437 1.48814)
(-0.101829 0.144922 0.803955)
(-0.0797008 0.251791 0.584432)
(-0.035525 0.337084 0.40191)
(-0.0716391 -0.112566 0.766866)
(-0.0940208 0.193676 1.19742)
(-0.159613 0.121852 0.878807)
(-0.127027 0.220754 0.658621)
(-0.11781 0.267292 0.563995)
(-0.128557 0.0274571 0.941204)
(-0.084111 0.0647594 0.925241)
(-0.0973602 0.0676747 0.848175)
(0.115656 0.00848732 0.978715)
(0.0968147 -0.102105 1.1012)
(-0.125072 -0.0147584 0.915943)
(-0.168214 0.0118103 0.976134)
(0.0415857 0.14517 0.748678)
(-0.0844234 -0.0357004 1.53083)
(-0.0925069 0.103253 1.50635)
(-0.108347 0.0668673 0.71445)
(-0.015526 0.357167 0.573787)
(0.204294 0.395007 0.487277)
(-0.0117917 0.119924 1.12202)
(0.00238497 -8.32592e-06 1.08711)
(-0.12737 0.161942 1.45645)
(-0.104738 0.154723 0.743683)
(-0.0712775 0.299317 0.578339)
(-0.0431535 0.415659 0.44299)
(-0.066206 -0.0906201 0.854138)
(-0.0685516 0.163407 1.25923)
(-0.157394 0.137973 0.936951)
(-0.0954353 0.277115 0.719951)
(-0.111946 0.275952 0.700872)
(-0.109495 0.0248862 1.03326)
(-0.0715932 0.0621448 1.01093)
(-0.0788683 0.0608185 0.967748)
(0.18169 0.028956 0.856701)
(0.0851568 -0.0573977 1.14177)
(-0.0535315 0.0284246 0.974164)
(-0.0011678 0.0873239 1.01099)
(0.249135 0.259983 0.595092)
(-0.0713004 -0.0330632 1.50844)
(-0.0528662 0.100418 1.46379)
(-0.0427798 0.142073 0.650082)
(-0.0105941 0.37785 0.489024)
(0.211633 0.440188 0.486661)
(-0.00986312 0.10482 1.16246)
(-0.0583328 0.00111272 1.18013)
(-0.113103 0.139253 1.4347)
(-0.0872377 0.16413 0.712772)
(-0.0745707 0.296132 0.585579)
(-0.078144 0.398024 0.510975)
(-0.037034 -0.0577753 0.939368)
(-0.0322692 0.140798 1.31473)
(-0.114135 0.153215 0.996233)
(-0.0501245 0.305415 0.800021)
(-0.0851061 0.24018 0.897059)
(-0.0844867 0.0149805 1.11394)
(-0.0507031 0.0604584 1.09548)
(-0.0274695 0.0346925 1.10005)
(0.349679 0.0369223 0.631502)
(0.0543714 -0.0290745 1.10536)
(0.132983 0.0624673 0.98522)
(0.223198 0.243844 0.937244)
(0.351913 0.271291 0.527472)
(-0.0596333 -0.00499147 1.48288)
(-0.0255946 0.0676776 1.37609)
(0.0322316 0.203479 0.620321)
(-0.0297884 0.365026 0.455159)
(0.135648 0.418579 0.482298)
(-0.00502737 0.101163 1.18721)
(-0.0988231 0.00479482 1.26402)
(-0.0780706 0.145895 1.40644)
(-0.0726562 0.165343 0.708907)
(-0.0876576 0.2433 0.607626)
(-0.108143 0.307527 0.563283)
(0.00680108 -0.0169668 1.02051)
(0.00866256 0.138185 1.36245)
(-0.0466194 0.16939 1.05109)
(-0.0227028 0.28349 0.90133)
(-0.0575534 0.158068 1.08313)
(-0.0530967 0.0119134 1.18338)
(-0.0153209 0.0544458 1.17807)
(0.0442168 -0.00355593 1.22442)
(0.386928 0.0328944 0.531788)
(0.0982696 -0.0513805 0.993126)
(0.114917 0.00472051 0.920295)
(0.356651 0.114041 0.737619)
(0.350784 0.194432 0.545815)
(-0.0408586 -0.0191284 1.41766)
(-0.0236835 0.0852471 1.31519)
(0.0839246 0.247808 0.616417)
(-0.0610736 0.329093 0.469061)
(0.0341712 0.311749 0.469206)
(-0.00475281 0.107208 1.23408)
(-0.087919 0.0418446 1.31309)
(-0.0357165 0.161011 1.37317)
(-0.0774776 0.146152 0.726116)
(-0.109756 0.118391 0.659609)
(-0.101346 0.137911 0.621673)
(0.0445678 0.0185014 1.10031)
(0.0407961 0.151197 1.40529)
(0.0157505 0.166548 1.11078)
(-0.00213193 0.15872 1.0438)
(-0.0118381 0.0343657 1.16077)
(-0.0232617 0.0327516 1.2495)
(0.0185161 0.0394875 1.24796)
(0.110172 -0.0253037 1.2822)
(0.374726 0.0153309 0.551753)
(0.0941757 -0.0402433 0.955774)
(0.169456 -0.0596934 0.678856)
(0.369953 0.00941826 0.573443)
(0.280579 0.145726 0.622405)
(0.0692229 0.0198161 1.29438)
(0.0121726 0.151194 1.29054)
(0.0919934 0.253624 0.628944)
(-0.102195 0.26214 0.517415)
(-0.00900582 0.185221 0.483376)
(0.00150865 0.100924 1.273)
(-0.0353247 0.088412 1.315)
(-0.0100362 0.166796 1.37155)
(-0.0749883 0.0963869 0.782032)
(-0.125362 0.000663519 0.718144)
(-0.0693059 -0.048402 0.697387)
(0.0586893 0.0247249 1.16955)
(0.0543518 0.157207 1.43692)
(0.0585886 0.129162 1.16156)
(0.00624361 0.0323536 1.12948)
(0.0690097 -0.104684 1.20514)
(0.00132471 0.067794 1.31644)
(0.0529995 0.00862983 1.30105)
(0.158212 -0.048564 1.30664)
(0.321766 0.0108286 0.693499)
(0.0121759 0.0872522 0.851558)
(0.262843 -0.0568853 0.481081)
(0.287665 0.00561802 0.510708)
(0.16437 0.108696 0.704125)
(0.0127828 0.0457026 1.21626)
(0.144691 0.194658 1.21213)
(0.110857 0.213338 0.671295)
(-0.121428 0.180919 0.578602)
(-0.0139764 0.079556 0.525471)
(0.0153038 0.0920342 1.24489)
(0.00193896 0.0902475 1.32658)
(0.0138339 0.164479 1.4048)
(-0.0357007 0.0932517 0.862785)
(-0.119479 -0.078683 0.774787)
(-0.0408961 -0.167534 0.750704)
(0.0636091 0.00678347 1.2255)
(0.0655445 0.141973 1.45295)
(0.0797566 0.0735302 1.19124)
(0.0268206 -0.0415979 1.15798)
(0.106492 -0.192343 1.20386)
(0.0206206 0.0875207 1.37556)
(0.0876282 -0.0161904 1.33046)
(0.178083 -0.0711296 1.3173)
(0.169162 0.0212775 0.708054)
(0.0597075 -0.046846 0.597951)
(0.203997 -0.0207978 0.417252)
(0.157491 0.063937 0.540221)
(0.0627591 0.0367406 0.747004)
(-0.177817 0.0629436 1.0675)
(0.254615 0.146921 1.08699)
(0.117268 0.129501 0.729158)
(-0.12216 0.0999889 0.646294)
(-0.000936882 -0.0078727 0.591961)
(0.0118902 0.185024 1.19027)
(-0.0216437 0.118993 1.34885)
(0.0970097 0.176941 1.46052)
(0.0297057 0.146686 0.95581)
(-0.075349 -0.105801 0.833928)
(-0.0189321 -0.213079 0.789609)
(0.09999 0.0108537 1.26766)
(0.0877519 0.125159 1.47035)
(0.0909702 0.036682 1.22219)
(0.0867483 -0.0939139 1.1728)
(0.131859 -0.232299 1.14123)
(0.0218588 0.0810681 1.40797)
(0.106688 -0.0274471 1.33595)
(0.197986 -0.0937435 1.2971)
(0.0157617 0.00957706 0.597888)
(0.0384256 -0.0662272 0.435023)
(0.122761 -1.18809e-05 0.403958)
(0.0373976 0.105987 0.585227)
(0.00219857 -0.0461746 0.766637)
(-0.0136977 0.237327 0.941923)
(0.226154 0.0512792 0.991631)
(0.0719961 0.0718792 0.7861)
(-0.121415 0.0353304 0.695729)
(0.0100767 -0.069085 0.670508)
(-0.00308147 0.205637 1.29395)
(-0.111368 0.227682 1.34564)
(0.157384 0.201208 1.4534)
(0.092722 0.194933 1.03389)
(0.00113295 -0.0971974 0.902942)
(0.00909051 -0.21329 0.830163)
(0.0987616 0.0418135 1.29883)
(0.106896 0.118311 1.49931)
(0.0976272 0.0301514 1.26855)
(0.138681 -0.112866 1.20066)
(0.142931 -0.236545 1.08434)
(0.0311881 0.0801207 1.42728)
(0.12623 -0.0193498 1.32627)
(0.208222 -0.103001 1.2531)
(-0.023683 -0.00435555 0.53874)
(-0.00807437 0.0193374 0.367531)
(0.0759366 -0.00701108 0.394143)
(-0.0195289 0.13205 0.602672)
(-0.0497155 -0.0773594 0.776884)
(0.0748684 0.245214 0.892495)
(0.138737 -0.0104824 0.895325)
(0.0145766 0.0427226 0.835218)
(-0.121997 -0.00197329 0.71062)
(0.00628081 -0.0974635 0.738914)
(-0.0156465 0.122126 1.3787)
(-0.128348 0.220182 1.32031)
(0.162409 0.205896 1.39547)
(0.14828 0.184966 1.08487)
(0.0826475 -0.0767032 0.975124)
(0.0463825 -0.196287 0.881239)
(0.0639358 0.0743736 1.3598)
(0.103777 0.118358 1.53031)
(0.0917796 0.0353986 1.32209)
(0.149984 -0.112193 1.23169)
(0.128571 -0.219713 1.04695)
(0.065914 0.0860277 1.45001)
(0.147639 0.00322191 1.3291)
(0.203192 -0.100958 1.21957)
(0.0079764 -0.00883019 0.525994)
(-0.0195929 0.0421845 0.316558)
(0.0472514 -0.0343528 0.387721)
(-0.0694185 0.101898 0.629124)
(-0.0551415 -0.0583266 0.782988)
(-0.0110649 0.0157036 0.90843)
(0.0614265 -0.00473234 0.815677)
(-0.0332304 0.0213256 0.85377)
(-0.122402 -0.0136114 0.707955)
(-0.00534838 -0.113774 0.797767)
(-0.0375932 0.104664 1.49854)
(-0.130262 0.0982982 1.32575)
(0.125529 0.139953 1.24457)
(0.183407 0.115987 1.09932)
(0.135509 -0.054884 1.03936)
(0.0767438 -0.177023 0.945991)
(0.0752997 0.0321651 1.4423)
(0.0817838 0.127747 1.54456)
(0.0804643 0.0405518 1.36362)
(0.132238 -0.0945844 1.2509)
(0.108049 -0.192996 1.02886)
(0.0684383 0.0923487 1.47096)
(0.156565 0.0171547 1.34866)
(0.19058 -0.0948518 1.20274)
(0.0393446 -0.0127984 0.535259)
(-0.00381085 0.0163059 0.316828)
(0.0264253 -0.0553005 0.404262)
(-0.100263 0.0141758 0.675855)
(-0.0387772 0.0245395 0.744107)
(-0.00424423 -0.193707 0.884965)
(0.0197282 0.0328725 0.782292)
(-0.0773678 0.0121566 0.863402)
(-0.122694 -0.0108637 0.706134)
(-0.0147989 -0.131412 0.836911)
(-0.0198908 0.0563904 1.5446)
(-0.0157808 -0.0464573 1.33257)
(0.0837648 0.0611258 1.13041)
(0.169128 0.0499872 1.0867)
(0.129705 -0.0339411 1.09541)
(0.0740093 -0.159489 1.01249)
(0.026493 -0.0587148 1.47207)
(0.0644832 0.138638 1.53056)
(0.0835855 0.046212 1.3839)
(0.122675 -0.0496272 1.26758)
(0.0987943 -0.164522 1.04708)
(0.0390566 0.0834688 1.48305)
(0.151513 0.0116478 1.35913)
(0.158553 -0.0850188 1.19867)
(0.0432881 -0.0185557 0.571332)
(0.0145914 -0.0138719 0.365473)
(0.0188854 -0.0523857 0.441349)
(-0.0596315 -0.0481953 0.698068)
(-0.0346549 0.041886 0.683482)
(0.078938 -0.223986 0.875216)
(0.0029583 0.050886 0.782345)
(-0.106524 0.0319118 0.885153)
(-0.126521 0.00875931 0.703358)
(-0.029879 -0.144011 0.853829)
(-0.0183391 0.00643438 1.50327)
(0.154754 -0.160284 1.13965)
(0.0651972 0.0370919 1.09063)
(0.103134 0.0339288 1.0694)
(0.0676446 -0.0246364 1.14164)
(0.0499589 -0.13427 1.05212)
(-0.0327286 -0.100925 1.46802)
(0.0574052 0.132249 1.49006)
(0.0973842 0.044444 1.38705)
(0.133013 -0.00777553 1.29092)
(0.103585 -0.152824 1.09699)
(0.0048603 0.0781048 1.49396)
(0.118772 0.00333587 1.36207)
(0.119943 -0.0676986 1.19526)
(0.0172825 -0.0213482 0.624775)
(0.0168201 -0.0229154 0.430834)
(0.018247 -0.0371633 0.489195)
(0.0315258 -0.0694177 0.685026)
(-0.0366771 0.00584524 0.626214)
(0.135035 -0.146961 0.917292)
(-0.00687329 0.0406552 0.788519)
(-0.0984296 0.0743731 0.90262)
(-0.130561 0.0298659 0.702272)
(-0.0654884 -0.149681 0.836083)
(0.00505028 -0.178183 1.37701)
(0.106554 -0.187405 0.940687)
(0.0563029 0.0462284 1.09056)
(-0.0234376 0.0549146 1.086)
(-0.00913713 -0.0390135 1.1573)
(0.0358812 -0.0984008 1.04376)
(-0.0433146 -0.0907175 1.48506)
(0.0634686 0.0814692 1.42407)
(0.111243 0.0292979 1.38719)
(0.149662 -0.00280128 1.3108)
(0.0961065 -0.138463 1.15723)
(-0.0152667 0.0841694 1.50099)
(0.0870669 0.00772016 1.37796)
(0.0990313 -0.0498033 1.19983)
(-0.00751034 -0.0203949 0.677556)
(0.00696164 -0.0110298 0.495913)
(0.0194772 -0.029331 0.543311)
(0.096875 -0.0626105 0.68136)
(-0.0470871 -0.0256389 0.592123)
(0.176551 -0.0416637 0.948116)
(-0.0315283 -0.0147658 0.770926)
(-0.0431809 0.12849 0.906615)
(-0.127687 0.0334877 0.708378)
(-0.0654213 -0.140869 0.778264)
(-0.00722936 -0.174366 0.961971)
(-0.0329926 -0.153829 0.891076)
(-0.00348541 0.100385 1.1062)
(-0.0992951 0.0723873 1.13823)
(-0.0656633 -0.0681311 1.15549)
(-0.0319869 -0.0872114 0.967123)
(-0.0443381 -0.0394315 1.50561)
(0.0629752 0.0462961 1.39016)
(0.111465 0.0159976 1.39177)
(0.147625 -0.0282882 1.33611)
(0.0659116 -0.0985938 1.22389)
(-0.0163131 0.0844834 1.4977)
(0.0950396 0.0198426 1.40015)
(0.105006 -0.0429524 1.22446)
(-0.0131127 -0.0196808 0.706699)
(-0.00139859 -0.000650932 0.551073)
(0.0270047 -0.0164672 0.598816)
(0.108783 -0.0379235 0.705858)
(-0.0604823 -0.0378718 0.58967)
(0.190702 0.00688565 0.920747)
(-0.0344419 -0.0470709 0.724371)
(0.000862517 0.12934 0.901815)
(-0.104005 0.0204582 0.724795)
(-0.0244137 -0.127159 0.720331)
(-0.0498945 -0.168683 0.893251)
(-0.114956 -0.0947454 0.905164)
(-0.122079 0.161092 1.08392)
(-0.0949725 0.0900779 1.1831)
(-0.094334 -0.0913205 1.15609)
(-0.0459446 -0.098016 0.895138)
(0.023365 -0.0203121 1.42633)
(0.0525177 0.041956 1.38965)
(0.100178 0.00937036 1.39798)
(0.114293 -0.0492171 1.34563)
(0.0287859 -0.0710943 1.25531)
(0.020704 0.0902108 1.48136)
(0.136914 0.0338595 1.41684)
(0.128494 -0.0455766 1.27869)
(-0.0178584 -0.0198883 0.714858)
(0.00128474 -0.00596286 0.604507)
(0.0388086 -0.00550633 0.651428)
(0.0866473 -0.0345263 0.73532)
(-0.0614715 -0.0429197 0.610079)
(0.224223 -0.0307203 0.844516)
(-0.0157857 -0.0326053 0.693336)
(0.0147832 0.0793669 0.888109)
(-0.0297796 -0.030011 0.736417)
(0.0084575 -0.116632 0.693153)
(-0.084495 -0.171068 1.00331)
(-0.140694 -0.0583586 0.939678)
(-0.198446 0.168619 1.02506)
(-0.0736945 0.113976 1.18986)
(-0.0968673 -0.0945142 1.15041)
(0.00763203 -0.0695295 0.859184)
(-0.0232496 -0.0017112 1.32026)
(-0.00581966 0.0474258 1.40616)
(0.0643535 0.00578358 1.40218)
(0.0810978 -0.0582105 1.36784)
(-0.0221899 -0.083343 1.08779)
(0.114087 0.108787 1.47898)
(0.174047 0.0421938 1.4504)
(0.146766 -0.0496522 1.36141)
(-0.0334093 -0.0294463 0.740035)
(0.00311005 -0.0063693 0.673449)
(0.0455115 -0.00767492 0.706181)
(0.031523 -0.0836834 0.76433)
(-0.0457941 -0.0583166 0.653478)
(0.240317 -0.0662342 0.793387)
(0.00482862 -0.0189129 0.685108)
(0.0216703 -0.0275427 0.816796)
(0.0203492 -0.0735769 0.72916)
(0.0236206 -0.108222 0.7076)
(0.0218695 0.0845959 1.11977)
(-0.070179 -0.051135 1.00257)
(-0.222641 0.141768 0.972948)
(-0.0774534 0.130479 1.17101)
(-0.0616252 -0.0834627 1.11632)
(0.0758908 -0.0359211 0.836627)
(-0.100147 0.0323839 1.29668)
(-0.104278 0.0539005 1.40706)
(-0.0148384 0.0129649 1.40931)
(0.0298624 -0.0850176 1.42604)
(0.0054414 -0.00286331 0.847207)
(0.140927 0.116482 1.51372)
(0.191432 0.0415733 1.49276)
(0.143861 -0.044446 1.4647)
(-0.0600735 -0.0342801 0.820025)
(-0.0152341 0.0187604 0.754903)
(0.040234 -0.0172074 0.763024)
(-0.00167156 -0.132201 0.795242)
(-0.034405 -0.0697279 0.7137)
(0.178513 -0.0661378 0.779454)
(0.0339861 -0.0241 0.683603)
(0.0335385 -0.0782958 0.734298)
(0.0331966 -0.0849909 0.719821)
(0.021782 -0.104481 0.753736)
(0.0430278 0.0260865 0.722934)
(0.00655398 -0.0516657 1.09536)
(-0.200647 0.105518 0.953598)
(-0.0954777 0.125553 1.08517)
(0.0404579 -0.0428185 1.00538)
(0.115688 -0.0349769 0.83409)
(-0.112558 0.0206144 1.32396)
(-0.148127 0.0560522 1.39045)
(-0.0754094 0.0372728 1.43087)
(-0.0608733 -0.0612111 1.4364)
(0.0190458 0.0556607 0.823628)
(0.108435 0.11511 1.55706)
(0.149246 0.0267127 1.54013)
(0.100311 -0.0407561 1.5491)
(-0.0796849 -0.0294866 0.904523)
(-0.0484917 0.0538669 0.837138)
(0.0288316 -0.0275757 0.815548)
(-0.0101051 -0.133869 0.817825)
(-0.0357758 -0.0745854 0.779005)
(0.125131 -0.100833 0.766118)
(0.0748584 -0.0396776 0.681669)
(0.0549883 -0.0810581 0.678285)
(0.0344961 -0.0753872 0.712437)
(0.0137127 -0.102618 0.810528)
(-0.0218616 -0.111455 0.547482)
(0.0860954 -0.0869052 1.12594)
(-0.0930015 0.0514734 0.963613)
(-0.0733494 0.0756994 0.948219)
(0.0743433 -0.0150575 0.900278)
(0.108005 -0.0347422 0.849473)
(-0.105592 -0.0658876 1.38278)
(-0.149464 0.0537593 1.38)
(-0.0830263 0.0660698 1.45691)
(-0.0570421 0.0106393 1.39784)
(-0.000772055 0.0858468 0.886261)
(0.039489 0.0896551 1.58544)
(0.0403294 0.0123971 1.60186)
(0.0163438 -0.0381536 1.55652)
(-0.0838067 -0.0232273 0.971811)
(-0.0802257 0.0752918 0.908606)
(0.00100253 -0.0435518 0.868237)
(-0.0217185 -0.107653 0.829935)
(-0.0473804 -0.0748714 0.837168)
(0.0952503 -0.12856 0.790075)
(0.112579 -0.0555512 0.687262)
(0.0803426 -0.071812 0.658394)
(0.0367832 -0.0600603 0.706683)
(0.0112862 -0.0962806 0.861849)