/*--------------------------------*- C++ -*----------------------------------*\
| =========                 |                                                 |
| \\      /  F ield         | OpenFOAM: The Open Source CFD Toolbox           |
|  \\    /   O peration     | Version:  5.x                                   |
|   \\  /    A nd           | Web:      www.OpenFOAM.org                      |
|    \\/     M anipulation  |                                                 |
\*---------------------------------------------------------------------------*/
FoamFile
{
    version     2.0;
    format      ascii;
    class       volVectorField;
    location    "9";
    object      Us;
}
// * * * * * * * * * * * * * * * * * * * * * * * * * * * * * * * * * * * * * //

dimensions      [0 1 -1 0 0 0 0];

internalField   nonuniform List<vector> 
10571
(
(0.00497765 0.0158904 0.133038)
(0.0441058 -0.044519 0.122715)
(0.0873523 -0.0380576 0.135032)
(0.0807009 -0.197613 0.117954)
(-0.0694811 -0.147548 0.0648236)
(0.117478 -0.140291 0.0849437)
(0.182908 -0.163849 0.0945799)
(-0.135687 -0.495442 0.0736147)
(-0.0857047 -0.355639 0.0785624)
(-0.0336285 -0.208259 0.081862)
(0.0132212 -0.0532831 0.019536)
(0.126271 -0.119078 0.0753139)
(0.0495072 -0.368517 0.0580838)
(-0.083996 -0.402601 0.0523165)
(-0.0259699 -0.308846 0.0777215)
(0.0161667 -0.163155 0.0839276)
(0.0162623 -0.0736243 0.020173)
(-0.0630839 -0.237102 -0.046502)
(-0.0465432 -0.234572 -0.0406871)
(0.0339543 -0.170924 -0.0320091)
(0.0552281 -0.109985 0.00434844)
(-0.0677682 -0.0667791 -0.0582424)
(-0.0316996 -0.0555187 -0.0876091)
(0.0392541 -0.0466388 -0.0584326)
(-0.0677929 -0.0144184 0.181214)
(0.0512956 -0.0592903 0.223635)
(-0.0161232 -0.110006 0.338275)
(-0.00727857 -0.212011 0.331806)
(-0.0121112 -0.106256 0.253618)
(0.113458 -0.142723 0.293729)
(-0.0347929 -0.372849 0.348706)
(-0.0745621 -0.326184 0.327825)
(-0.0538433 -0.199525 0.26388)
(-0.0403222 -0.0565879 0.192095)
(0.00417255 -0.0584346 0.00387721)
(0.101946 -0.177928 0.151732)
(0.0109139 -0.31305 0.110907)
(-0.035872 -0.266635 0.0955892)
(-0.078607 -0.203605 0.0832612)
(-0.0676621 -0.104526 0.0546663)
(0.00916151 -0.0862833 -0.0469791)
(0.029533 -0.198524 -0.0990063)
(0.00256445 -0.214699 -0.0933647)
(-0.0283466 -0.221042 -0.0424696)
(0.0178241 -0.0723683 -0.0138816)
(-0.0221209 -0.0583571 -0.112621)
(0.0216452 -0.103319 -0.128233)
(0.0562715 -0.0527086 -0.0907101)
(-0.177511 -0.228767 0.308156)
(-0.0840219 -0.273962 0.270257)
(-0.093557 -0.32808 0.404906)
(-0.0702727 -0.270212 0.433925)
(-0.0168722 -0.11442 0.351042)
(-0.0275284 -0.211697 0.406957)
(-0.0658717 -0.3788 0.424734)
(-0.0365531 -0.278295 0.39839)
(-0.000337812 -0.133416 0.376733)
(0.0851973 0.0969542 0.207106)
(0.0160335 -0.0328503 -0.112431)
(0.100879 -0.212617 0.1218)
(0.0573014 -0.258462 0.137971)
(0.00179633 -0.196518 0.137135)
(-0.0379052 -0.148243 0.0701354)
(0.0473339 0.0630072 -0.290031)
(0.0575742 -0.107054 -0.198879)
(0.0575396 -0.179833 -0.167907)
(0.0197395 -0.192429 -0.161108)
(-0.0230166 -0.195272 -0.0899207)
(-0.00645714 -0.0382424 -0.120364)
(0.0257985 -0.053333 -0.230672)
(0.0322874 -0.0908434 -0.273607)
(0.0459858 -0.0649689 -0.240759)
(0 0 0)
(-0.299675 -0.38408 0.00151759)
(-0.0927193 -0.408355 0.378982)
(-0.0294368 -0.312253 0.412157)
(0.0118019 -0.285547 0.329694)
(-0.128031 -0.306022 0.381614)
(-0.0303778 -0.309023 0.473069)
(-0.0233183 -0.16592 0.465348)
(0.0178852 -0.0637618 0.357217)
(0.353739 -0.0195855 0.275647)
(0.0152367 0.109289 -0.578417)
(-0.0615112 -0.134526 0.0663093)
(0.0734168 -0.0964213 0.18093)
(0.0148483 0.083609 0.0754178)
(0.0870995 0.144658 -0.402359)
(-0.0409095 0.0116571 -0.41673)
(0.0571954 -0.0476396 -0.386877)
(0.0461397 -0.0816766 -0.305519)
(0.033272 -0.144455 -0.369996)
(0 0 0)
(0.0316583 -0.0608789 -0.455061)
(0.0394715 -0.0401021 -0.354051)
(0.0376809 -0.072245 -0.397023)
(0.0154361 -0.0492752 -0.400746)
(0 0 0)
(0 0 0)
(-0.06398 -0.0730711 -0.256448)
(-0.0214602 -0.0273762 -0.373498)
(0 0 0)
(-0.155988 -0.237397 0.224425)
(-0.0102198 -0.201157 0.336004)
(0.00511155 0.0242226 -0.146044)
(0.0500438 0.0804086 -0.347311)
(0 0 0)
(0.0160761 0.105711 -0.518357)
(-0.08832 -0.0521917 0.18558)
(-0.0330811 0.0986623 -0.0494292)
(-0.0205937 0.154299 -0.248953)
(0.0624614 0.143497 -0.396458)
(-0.0697398 0.00300511 -0.280804)
(0.0338077 0.0555078 -0.51016)
(-0.0305423 0.151084 -0.303449)
(-0.0508381 0.207891 -0.30195)
(0.0672578 0.211426 -0.45347)
(0.057927 -0.142677 -0.420931)
(0.0471534 0.0111368 -0.513937)
(0.0299988 -0.0142577 -0.500196)
(-0.0343685 0.0158773 -0.484016)
(0 0 0)
(0 0 0)
(0 0 0)
(0 0 0)
(0 0 0)
(-0.155317 0.0538572 -0.322411)
(-0.0625917 0.050444 -0.273822)
(0.011595 0.0735987 -0.319319)
(0.0524767 0.0865207 -0.350451)
(0 0 0)
(-0.0120965 0.00633515 -0.00519492)
(0.0216273 0.0943365 -0.441129)
(0.133254 0.10087 -0.495234)
(-0.0559612 0.159989 -0.278917)
(0.0147905 0.138154 -0.336516)
(0.0578168 0.137596 -0.372557)
(-0.0349945 -0.0104977 -0.130242)
(-0.00633843 -0.000580491 -0.00207615)
(0.0601754 0.056853 -0.510928)
(-0.0691953 0.229419 -0.318122)
(0.011659 0.222269 -0.390653)
(0.0527336 0.196463 -0.397033)
(0.0604017 -0.117737 -0.320769)
(0.0553469 0.013692 -0.478505)
(-7.0249e-07 0.0153475 -0.462751)
(0.0191856 0.0322015 -0.372785)
(0 0 0)
(0 0 0)
(0 0 0)
(0 0 0)
(0 0 0)
(-0.115116 0.0405072 -0.262398)
(-0.0660912 0.0754741 -0.21799)
(0 0 0)
(0 0 0)
(0 0 0)
(0 0 0)
(0.018079 0.0638013 -0.32826)
(0 0 0)
(-0.0616778 0.133885 -0.224289)
(0.0159022 0.147174 -0.380522)
(0.122206 0.158626 -0.436688)
(0 0 0)
(0 0 0)
(0.0549379 0.0518452 -0.445557)
(-0.0291032 0.187888 -0.3697)
(0.0132325 0.193889 -0.41834)
(0.0414166 0.0748491 -0.384702)
(0 0 0)
(0 0 0)
(0.0584626 0.0042347 -0.409517)
(0.0598141 0.015509 -0.394099)
(0.0349365 -0.0331495 -0.264385)
(0 0 0)
(0 0 0)
(0 0 0)
(0 0 0)
(0 0 0)
(0 0 0)
(-0.0543439 0.0883149 -0.218907)
(0 0 0)
(0 0 0)
(0 0 0)
(0 0 0)
(0.0389697 0.0403489 -0.234873)
(-0.134157 0.10662 -0.223573)
(-0.0585055 0.136502 -0.243383)
(0 0 0)
(0 0 0)
(0 0 0)
(0 0 0)
(-0.0128663 0.104029 -0.350813)
(-0.0476695 0.194168 -0.328882)
(0.0695106 -0.0845475 -0.356613)
(0 0 0)
(0 0 0)
(0 0 0)
(0.00066835 0.0950289 -0.343962)
(0.0626772 -0.0169899 -0.369369)
(0.0293522 -0.0739115 -0.17189)
(0 0 0)
(0 0 0)
(0 0 0)
(0 0 0)
(0 0 0)
(0 0 0)
(0 0 0)
(0 0 0)
(0 0 0)
(0 0 0)
(0 0 0)
(0 0 0)
(-0.124574 0.0854083 -0.246368)
(-0.0450652 0.12884 -0.252849)
(0 0 0)
(0 0 0)
(0 0 0)
(0 0 0)
(-0.00336775 -0.00349433 -0.281861)
(-0.00676054 -0.0576336 -0.306299)
(0 0 0)
(0 0 0)
(0 0 0)
(-0.0172706 -0.0375386 -0.332729)
(0.0507676 -0.0172513 -0.313444)
(0 0 0)
(0 0 0)
(0 0 0)
(0 0 0)
(0 0 0)
(0 0 0)
(0 0 0)
(0 0 0)
(0 0 0)
(0 0 0)
(0 0 0)
(-0.0635329 -0.162858 -0.209397)
(0 0 0)
(0 0 0)
(0 0 0)
(0 0 0)
(0 0 0)
(0 0 0)
(0.0497767 -0.112611 -0.244396)
(0 0 0)
(0 0 0)
(0 0 0)
(0 0 0)
(0 0 0)
(0 0 0)
(0 0 0)
(0 0 0)
(0 0 0)
(0 0 0)
(0 0 0)
(0 0 0)
(0 0 0)
(0 0 0)
(0 0 0)
(0 0 0)
(0 0 0)
(0 0 0)
(0 0 0)
(0 0 0)
(0 0 0)
(0 0 0)
(0.0274559 -0.0575799 -0.16918)
(0 0 0)
(0 0 0)
(0 0 0)
(0 0 0)
(-0.117638 -0.0148983 -0.319371)
(0 0 0)
(0 0 0)
(0 0 0)
(0 0 0)
(0 0 0)
(0 0 0)
(0 0 0)
(0 0 0)
(0 0 0)
(0 0 0)
(0 0 0)
(0 0 0)
(0 0 0)
(0 0 0)
(0 0 0)
(0 0 0)
(0 0 0)
(0 0 0)
(0 0 0)
(0 0 0)
(0 0 0)
(0 0 0)
(0 0 0)
(0 0 0)
(0 0 0)
(0 0 0)
(0 0 0)
(0 0 0)
(0 0 0)
(0 0 0)
(0 0 0)
(0 0 0)
(0 0 0)
(0 0 0)
(0 0 0)
(0 0 0)
(0 0 0)
(0 0 0)
(0 0 0)
(0 0 0)
(0 0 0)
(0 0 0)
(0 0 0)
(0 0 0)
(0 0 0)
(0 0 0)
(0 0 0)
(0 0 0)
(0 0 0)
(0 0 0)
(0 0 0)
(0 0 0)
(0 0 0)
(0 0 0)
(0 0 0)
(0 0 0)
(0 0 0)
(0 0 0)
(0 0 0)
(0 0 0)
(0 0 0)
(0 0 0)
(0 0 0)
(0 0 0)
(0 0 0)
(0 0 0)
(0 0 0)
(0 0 0)
(0 0 0)
(0 0 0)
(0 0 0)
(0 0 0)
(0 0 0)
(0 0 0)
(0 0 0)
(0 0 0)
(0 0 0)
(0 0 0)
(0 0 0)
(0 0 0)
(0 0 0)
(0 0 0)
(0 0 0)
(0 0 0)
(0 0 0)
(0 0 0)
(0 0 0)
(0 0 0)
(0 0 0)
(0 0 0)
(0 0 0)
(0 0 0)
(0 0 0)
(0 0 0)
(0 0 0)
(0 0 0)
(0 0 0)
(0 0 0)
(0 0 0)
(0 0 0)
(0 0 0)
(0 0 0)
(0 0 0)
(0 0 0)
(0 0 0)
(0 0 0)
(0 0 0)
(0 0 0)
(0 0 0)
(0 0 0)
(0 0 0)
(0 0 0)
(0 0 0)
(0 0 0)
(0 0 0)
(0 0 0)
(0 0 0)
(0 0 0)
(0 0 0)
(0 0 0)
(0 0 0)
(0 0 0)
(0 0 0)
(0 0 0)
(0 0 0)
(0 0 0)
(0 0 0)
(0 0 0)
(0 0 0)
(0 0 0)
(0 0 0)
(0 0 0)
(0 0 0)
(0 0 0)
(0 0 0)
(0 0 0)
(0 0 0)
(0 0 0)
(0 0 0)
(0 0 0)
(0 0 0)
(0 0 0)
(0 0 0)
(0 0 0)
(0 0 0)
(0 0 0)
(0 0 0)
(0 0 0)
(0 0 0)
(0 0 0)
(0 0 0)
(0 0 0)
(0 0 0)
(0 0 0)
(0 0 0)
(0 0 0)
(0 0 0)
(0 0 0)
(0 0 0)
(0 0 0)
(0 0 0)
(0 0 0)
(0 0 0)
(0 0 0)
(0 0 0)
(0 0 0)
(0 0 0)
(0 0 0)
(0 0 0)
(0 0 0)
(0 0 0)
(0 0 0)
(0 0 0)
(0 0 0)
(0 0 0)
(0 0 0)
(0 0 0)
(0 0 0)
(0 0 0)
(0 0 0)
(0 0 0)
(0 0 0)
(0 0 0)
(0 0 0)
(0 0 0)
(0 0 0)
(0 0 0)
(0 0 0)
(0 0 0)
(0 0 0)
(0 0 0)
(0 0 0)
(0 0 0)
(0 0 0)
(0 0 0)
(0 0 0)
(0 0 0)
(0 0 0)
(0 0 0)
(0 0 0)
(0 0 0)
(0 0 0)
(0 0 0)
(0 0 0)
(0 0 0)
(0 0 0)
(0 0 0)
(0 0 0)
(0 0 0)
(0 0 0)
(0 0 0)
(0 0 0)
(0 0 0)
(0 0 0)
(0 0 0)
(0 0 0)
(0 0 0)
(0 0 0)
(0 0 0)
(0 0 0)
(0 0 0)
(0 0 0)
(0 0 0)
(0 0 0)
(0 0 0)
(0 0 0)
(0 0 0)
(0 0 0)
(0 0 0)
(0 0 0)
(0 0 0)
(0 0 0)
(0 0 0)
(0 0 0)
(0 0 0)
(0 0 0)
(0 0 0)
(0 0 0)
(0 0 0)
(0 0 0)
(0 0 0)
(0 0 0)
(0 0 0)
(0 0 0)
(0 0 0)
(0 0 0)
(0 0 0)
(0 0 0)
(0 0 0)
(0 0 0)
(0 0 0)
(0 0 0)
(0 0 0)
(0 0 0)
(0 0 0)
(0 0 0)
(0 0 0)
(0 0 0)
(0 0 0)
(0 0 0)
(0 0 0)
(0 0 0)
(0 0 0)
(0 0 0)
(0 0 0)
(0 0 0)
(0 0 0)
(0 0 0)
(0 0 0)
(0 0 0)
(0 0 0)
(0 0 0)
(0 0 0)
(0 0 0)
(0 0 0)
(0 0 0)
(0 0 0)
(0 0 0)
(0 0 0)
(0 0 0)
(0 0 0)
(0 0 0)
(0 0 0)
(0 0 0)
(0 0 0)
(0 0 0)
(0 0 0)
(0 0 0)
(0 0 0)
(0 0 0)
(0 0 0)
(0 0 0)
(0 0 0)
(0 0 0)
(0 0 0)
(0 0 0)
(0 0 0)
(0 0 0)
(0 0 0)
(0 0 0)
(0 0 0)
(0 0 0)
(0 0 0)
(0 0 0)
(0 0 0)
(0 0 0)
(0 0 0)
(0 0 0)
(0 0 0)
(0 0 0)
(0 0 0)
(0 0 0)
(0 0 0)
(0 0 0)
(0 0 0)
(0 0 0)
(0 0 0)
(0 0 0)
(0 0 0)
(0 0 0)
(0 0 0)
(0 0 0)
(0 0 0)
(0 0 0)
(0 0 0)
(0 0 0)
(0 0 0)
(0 0 0)
(0 0 0)
(0 0 0)
(0 0 0)
(0 0 0)
(0 0 0)
(0 0 0)
(0 0 0)
(0 0 0)
(0 0 0)
(0 0 0)
(0 0 0)
(0 0 0)
(0 0 0)
(0 0 0)
(0 0 0)
(0 0 0)
(0 0 0)
(0 0 0)
(0 0 0)
(0 0 0)
(0 0 0)
(0 0 0)
(0 0 0)
(0 0 0)
(0 0 0)
(0 0 0)
(0 0 0)
(0 0 0)
(0 0 0)
(0 0 0)
(0 0 0)
(0 0 0)
(0 0 0)
(0 0 0)
(0 0 0)
(0 0 0)
(0 0 0)
(0 0 0)
(0 0 0)
(0 0 0)
(0 0 0)
(0 0 0)
(0 0 0)
(0 0 0)
(0 0 0)
(0 0 0)
(0 0 0)
(0 0 0)
(0 0 0)
(0 0 0)
(0 0 0)
(0 0 0)
(0 0 0)
(0 0 0)
(0 0 0)
(0 0 0)
(0 0 0)
(0 0 0)
(0 0 0)
(0 0 0)
(0 0 0)
(0 0 0)
(0 0 0)
(0 0 0)
(0 0 0)
(0 0 0)
(0 0 0)
(0 0 0)
(0 0 0)
(0 0 0)
(0 0 0)
(0 0 0)
(0 0 0)
(0 0 0)
(0 0 0)
(0 0 0)
(0 0 0)
(0 0 0)
(0 0 0)
(0 0 0)
(0 0 0)
(0 0 0)
(0 0 0)
(0 0 0)
(0 0 0)
(0 0 0)
(0 0 0)
(0 0 0)
(0 0 0)
(0 0 0)
(0 0 0)
(0 0 0)
(0 0 0)
(0 0 0)
(0 0 0)
(0 0 0)
(0 0 0)
(0 0 0)
(0 0 0)
(0 0 0)
(0 0 0)
(0 0 0)
(0 0 0)
(0 0 0)
(0 0 0)
(0 0 0)
(0 0 0)
(0 0 0)
(0 0 0)
(0 0 0)
(0 0 0)
(0 0 0)
(0 0 0)
(0 0 0)
(0 0 0)
(0 0 0)
(0 0 0)
(0 0 0)
(0 0 0)
(0 0 0)
(0 0 0)
(0 0 0)
(0 0 0)
(0 0 0)
(0 0 0)
(0 0 0)
(0 0 0)
(0 0 0)
(0 0 0)
(0 0 0)
(0 0 0)
(0 0 0)
(0 0 0)
(0 0 0)
(0 0 0)
(0 0 0)
(0 0 0)
(0 0 0)
(0 0 0)
(0 0 0)
(0 0 0)
(0 0 0)
(0 0 0)
(0 0 0)
(0 0 0)
(0 0 0)
(0 0 0)
(0 0 0)
(0 0 0)
(0 0 0)
(0 0 0)
(0 0 0)
(0 0 0)
(0 0 0)
(0 0 0)
(0 0 0)
(0 0 0)
(0 0 0)
(0 0 0)
(0 0 0)
(0 0 0)
(0 0 0)
(0 0 0)
(0 0 0)
(0 0 0)
(0 0 0)
(0 0 0)
(0 0 0)
(0 0 0)
(0 0 0)
(0 0 0)
(0 0 0)
(0 0 0)
(0 0 0)
(0 0 0)
(0 0 0)
(0 0 0)
(0 0 0)
(0 0 0)
(0 0 0)
(0 0 0)
(0 0 0)
(0 0 0)
(0 0 0)
(0 0 0)
(0 0 0)
(0 0 0)
(0 0 0)
(0 0 0)
(0 0 0)
(0 0 0)
(0 0 0)
(0 0 0)
(0 0 0)
(0 0 0)
(0 0 0)
(0 0 0)
(0 0 0)
(0 0 0)
(0 0 0)
(0 0 0)
(0 0 0)
(0 0 0)
(0 0 0)
(0 0 0)
(0 0 0)
(0 0 0)
(0 0 0)
(0 0 0)
(0 0 0)
(0 0 0)
(0 0 0)
(0 0 0)
(0 0 0)
(0 0 0)
(0 0 0)
(0 0 0)
(0 0 0)
(0 0 0)
(0 0 0)
(0 0 0)
(0 0 0)
(0 0 0)
(0 0 0)
(0 0 0)
(0 0 0)
(0 0 0)
(0 0 0)
(0 0 0)
(0 0 0)
(0 0 0)
(0 0 0)
(0 0 0)
(0 0 0)
(0 0 0)
(0 0 0)
(0 0 0)
(0 0 0)
(0 0 0)
(0 0 0)
(0 0 0)
(0 0 0)
(0 0 0)
(0 0 0)
(0 0 0)
(0 0 0)
(0 0 0)
(0 0 0)
(0 0 0)
(0 0 0)
(0 0 0)
(0 0 0)
(0 0 0)
(0 0 0)
(0 0 0)
(0 0 0)
(0 0 0)
(0 0 0)
(0 0 0)
(0 0 0)
(0 0 0)
(0 0 0)
(0 0 0)
(0 0 0)
(0 0 0)
(0 0 0)
(0 0 0)
(0 0 0)
(0 0 0)
(0 0 0)
(0 0 0)
(0 0 0)
(0 0 0)
(0 0 0)
(0 0 0)
(0 0 0)
(0 0 0)
(0 0 0)
(0 0 0)
(0 0 0)
(0 0 0)
(0 0 0)
(0 0 0)
(0 0 0)
(0 0 0)
(0 0 0)
(0 0 0)
(0 0 0)
(0 0 0)
(0 0 0)
(0 0 0)
(0 0 0)
(0 0 0)
(0 0 0)
(0 0 0)
(0 0 0)
(0 0 0)
(0 0 0)
(0 0 0)
(0 0 0)
(0 0 0)
(0 0 0)
(0 0 0)
(0 0 0)
(0 0 0)
(0 0 0)
(0 0 0)
(0 0 0)
(0 0 0)
(0 0 0)
(0 0 0)
(0 0 0)
(0 0 0)
(0 0 0)
(0 0 0)
(0 0 0)
(0 0 0)
(0 0 0)
(0 0 0)
(0 0 0)
(0 0 0)
(0 0 0)
(0 0 0)
(0 0 0)
(0 0 0)
(0 0 0)
(0 0 0)
(0 0 0)
(0 0 0)
(0 0 0)
(0 0 0)
(0 0 0)
(0 0 0)
(0 0 0)
(0 0 0)
(0 0 0)
(0 0 0)
(0 0 0)
(0 0 0)
(0 0 0)
(0 0 0)
(0 0 0)
(0 0 0)
(0 0 0)
(0 0 0)
(0 0 0)
(0 0 0)
(0 0 0)
(0 0 0)
(0 0 0)
(0 0 0)
(0 0 0)
(0 0 0)
(0 0 0)
(0 0 0)
(0 0 0)
(0 0 0)
(0 0 0)
(0 0 0)
(0 0 0)
(0 0 0)
(0 0 0)
(0 0 0)
(0 0 0)
(0 0 0)
(0 0 0)
(0 0 0)
(0 0 0)
(0 0 0)
(0 0 0)
(0 0 0)
(0 0 0)
(0 0 0)
(0 0 0)
(0 0 0)
(0 0 0)
(0 0 0)
(0 0 0)
(0 0 0)
(0 0 0)
(0 0 0)
(0 0 0)
(0 0 0)
(0 0 0)
(0 0 0)
(0 0 0)
(0 0 0)
(0 0 0)
(0 0 0)
(0 0 0)
(0 0 0)
(0 0 0)
(0 0 0)
(0 0 0)
(0 0 0)
(0 0 0)
(0 0 0)
(0 0 0)
(0 0 0)
(0 0 0)
(0 0 0)
(0 0 0)
(0 0 0)
(0 0 0)
(0 0 0)
(0 0 0)
(0 0 0)
(0 0 0)
(0 0 0)
(0 0 0)
(0 0 0)
(0 0 0)
(0 0 0)
(0 0 0)
(0 0 0)
(0 0 0)
(0 0 0)
(0 0 0)
(0 0 0)
(0 0 0)
(0 0 0)
(0 0 0)
(0 0 0)
(0 0 0)
(0 0 0)
(0 0 0)
(0 0 0)
(0 0 0)
(0 0 0)
(0 0 0)
(0 0 0)
(0 0 0)
(0 0 0)
(0 0 0)
(0 0 0)
(0 0 0)
(0 0 0)
(0 0 0)
(0 0 0)
(0 0 0)
(0 0 0)
(0 0 0)
(0 0 0)
(0 0 0)
(0 0 0)
(0 0 0)
(0 0 0)
(0 0 0)
(0 0 0)
(0 0 0)
(0 0 0)
(0 0 0)
(0 0 0)
(0 0 0)
(0 0 0)
(0 0 0)
(0 0 0)
(0 0 0)
(0 0 0)
(0 0 0)
(0 0 0)
(0 0 0)
(0 0 0)
(0 0 0)
(0 0 0)
(0 0 0)
(0 0 0)
(0 0 0)
(0 0 0)
(0 0 0)
(0 0 0)
(0 0 0)
(0 0 0)
(0 0 0)
(0 0 0)
(0 0 0)
(0 0 0)
(0 0 0)
(0 0 0)
(0 0 0)
(0 0 0)
(0 0 0)
(0 0 0)
(0 0 0)
(0 0 0)
(0 0 0)
(0 0 0)
(0 0 0)
(0 0 0)
(0 0 0)
(0 0 0)
(0 0 0)
(0 0 0)
(0 0 0)
(0 0 0)
(0 0 0)
(0 0 0)
(0 0 0)
(0 0 0)
(0 0 0)
(0 0 0)
(0 0 0)
(0 0 0)
(0 0 0)
(0 0 0)
(0 0 0)
(0 0 0)
(0 0 0)
(0 0 0)
(0 0 0)
(0 0 0)
(0 0 0)
(0 0 0)
(0 0 0)
(0 0 0)
(0 0 0)
(0 0 0)
(0 0 0)
(0 0 0)
(0 0 0)
(0 0 0)
(0 0 0)
(0 0 0)
(0 0 0)
(0 0 0)
(0 0 0)
(0 0 0)
(0 0 0)
(0 0 0)
(0 0 0)
(0 0 0)
(0 0 0)
(0 0 0)
(0 0 0)
(0 0 0)
(0 0 0)
(0 0 0)
(0 0 0)
(0 0 0)
(0 0 0)
(0 0 0)
(0 0 0)
(0 0 0)
(0 0 0)
(0 0 0)
(0 0 0)
(0 0 0)
(0 0 0)
(0 0 0)
(0 0 0)
(0 0 0)
(0 0 0)
(0 0 0)
(0 0 0)
(0 0 0)
(0 0 0)
(0 0 0)
(0 0 0)
(0 0 0)
(0 0 0)
(0 0 0)
(0 0 0)
(0 0 0)
(0 0 0)
(0 0 0)
(0 0 0)
(0 0 0)
(0 0 0)
(0 0 0)
(0 0 0)
(0 0 0)
(0 0 0)
(0 0 0)
(0 0 0)
(0 0 0)
(0 0 0)
(0 0 0)
(0 0 0)
(0 0 0)
(0 0 0)
(0 0 0)
(0 0 0)
(0 0 0)
(0 0 0)
(0 0 0)
(0 0 0)
(0 0 0)
(0 0 0)
(0 0 0)
(0 0 0)
(0 0 0)
(0 0 0)
(0 0 0)
(0 0 0)
(0 0 0)
(0 0 0)
(0 0 0)
(0 0 0)
(0 0 0)
(0 0 0)
(0 0 0)
(0 0 0)
(0 0 0)
(0 0 0)
(0 0 0)
(0 0 0)
(0 0 0)
(0 0 0)
(0 0 0)
(0 0 0)
(0 0 0)
(0 0 0)
(0 0 0)
(0 0 0)
(0 0 0)
(0 0 0)
(0 0 0)
(0 0 0)
(0 0 0)
(0 0 0)
(0 0 0)
(0 0 0)
(0 0 0)
(0 0 0)
(0 0 0)
(0 0 0)
(0 0 0)
(0 0 0)
(0 0 0)
(0 0 0)
(0 0 0)
(0 0 0)
(0 0 0)
(0 0 0)
(0 0 0)
(0 0 0)
(0 0 0)
(0 0 0)
(0 0 0)
(0 0 0)
(0 0 0)
(0 0 0)
(0 0 0)
(0 0 0)
(0 0 0)
(0 0 0)
(0 0 0)
(0 0 0)
(0 0 0)
(0 0 0)
(0 0 0)
(0 0 0)
(0 0 0)
(0 0 0)
(0 0 0)
(0 0 0)
(0 0 0)
(0 0 0)
(0 0 0)
(0 0 0)
(0 0 0)
(0 0 0)
(0 0 0)
(0 0 0)
(0 0 0)
(0 0 0)
(0 0 0)
(0 0 0)
(0 0 0)
(0 0 0)
(0 0 0)
(0 0 0)
(0 0 0)
(0 0 0)
(0 0 0)
(0 0 0)
(0 0 0)
(0 0 0)
(0 0 0)
(0 0 0)
(0 0 0)
(0 0 0)
(0 0 0)
(0 0 0)
(0 0 0)
(0 0 0)
(0 0 0)
(0 0 0)
(0 0 0)
(0 0 0)
(0 0 0)
(0 0 0)
(0 0 0)
(0 0 0)
(0 0 0)
(0 0 0)
(0 0 0)
(0 0 0)
(0 0 0)
(0 0 0)
(0 0 0)
(0 0 0)
(0 0 0)
(0 0 0)
(0 0 0)
(0 0 0)
(0 0 0)
(0 0 0)
(0 0 0)
(0 0 0)
(0 0 0)
(0 0 0)
(0 0 0)
(0 0 0)
(0 0 0)
(0 0 0)
(0 0 0)
(0 0 0)
(0 0 0)
(0 0 0)
(0 0 0)
(0 0 0)
(0 0 0)
(0 0 0)
(0 0 0)
(0 0 0)
(0 0 0)
(0 0 0)
(0 0 0)
(0 0 0)
(0 0 0)
(0 0 0)
(0 0 0)
(0 0 0)
(0 0 0)
(0 0 0)
(0 0 0)
(0 0 0)
(0 0 0)
(0 0 0)
(0 0 0)
(0 0 0)
(0 0 0)
(0 0 0)
(0 0 0)
(0 0 0)
(0 0 0)
(0 0 0)
(0 0 0)
(0 0 0)
(0 0 0)
(0 0 0)
(0 0 0)
(0 0 0)
(0 0 0)
(0 0 0)
(0 0 0)
(0 0 0)
(0 0 0)
(0 0 0)
(0 0 0)
(0 0 0)
(0 0 0)
(0 0 0)
(0 0 0)
(0 0 0)
(0 0 0)
(0 0 0)
(0 0 0)
(0 0 0)
(0 0 0)
(0 0 0)
(0 0 0)
(0 0 0)
(0 0 0)
(0 0 0)
(0 0 0)
(0 0 0)
(0 0 0)
(0 0 0)
(0 0 0)
(0 0 0)
(0 0 0)
(0 0 0)
(0 0 0)
(0 0 0)
(0 0 0)
(0 0 0)
(0 0 0)
(0 0 0)
(0 0 0)
(0 0 0)
(0 0 0)
(0 0 0)
(0 0 0)
(0 0 0)
(0 0 0)
(0 0 0)
(0 0 0)
(0 0 0)
(0 0 0)
(0 0 0)
(0 0 0)
(0 0 0)
(0 0 0)
(0 0 0)
(0 0 0)
(0 0 0)
(0 0 0)
(0 0 0)
(0 0 0)
(0 0 0)
(0 0 0)
(0 0 0)
(0 0 0)
(0 0 0)
(0 0 0)
(0 0 0)
(0 0 0)
(0 0 0)
(0 0 0)
(0 0 0)
(0 0 0)
(0 0 0)
(0 0 0)
(0 0 0)
(0 0 0)
(0 0 0)
(0 0 0)
(0 0 0)
(0 0 0)
(0 0 0)
(0 0 0)
(0 0 0)
(0 0 0)
(0 0 0)
(0 0 0)
(0 0 0)
(0 0 0)
(0 0 0)
(0 0 0)
(0 0 0)
(0 0 0)
(0 0 0)
(0 0 0)
(0 0 0)
(0 0 0)
(0 0 0)
(0 0 0)
(0 0 0)
(0 0 0)
(0 0 0)
(0 0 0)
(0 0 0)
(0 0 0)
(0 0 0)
(0 0 0)
(0 0 0)
(0 0 0)
(0 0 0)
(0 0 0)
(0 0 0)
(0 0 0)
(0 0 0)
(0 0 0)
(0 0 0)
(0 0 0)
(0 0 0)
(0 0 0)
(0 0 0)
(0 0 0)
(0 0 0)
(0 0 0)
(0 0 0)
(0 0 0)
(0 0 0)
(0 0 0)
(0 0 0)
(0 0 0)
(0 0 0)
(0 0 0)
(0 0 0)
(0 0 0)
(0 0 0)
(0 0 0)
(0 0 0)
(0 0 0)
(0 0 0)
(0 0 0)
(0 0 0)
(0 0 0)
(0 0 0)
(0 0 0)
(0 0 0)
(0 0 0)
(0 0 0)
(0 0 0)
(0 0 0)
(0 0 0)
(0 0 0)
(0 0 0)
(0 0 0)
(0 0 0)
(0 0 0)
(0 0 0)
(0 0 0)
(0 0 0)
(0 0 0)
(0 0 0)
(0 0 0)
(0 0 0)
(0 0 0)
(0 0 0)
(0 0 0)
(0 0 0)
(0 0 0)
(0 0 0)
(0 0 0)
(0 0 0)
(0 0 0)
(0 0 0)
(0 0 0)
(0 0 0)
(0 0 0)
(0 0 0)
(0 0 0)
(0 0 0)
(0 0 0)
(0 0 0)
(0 0 0)
(0 0 0)
(0 0 0)
(0 0 0)
(0 0 0)
(0 0 0)
(0 0 0)
(0 0 0)
(0 0 0)
(0 0 0)
(0 0 0)
(0 0 0)
(0 0 0)
(0 0 0)
(0 0 0)
(0 0 0)
(0 0 0)
(0 0 0)
(0 0 0)
(0 0 0)
(0 0 0)
(0 0 0)
(0 0 0)
(0 0 0)
(0 0 0)
(0 0 0)
(0 0 0)
(0 0 0)
(0 0 0)
(0 0 0)
(0 0 0)
(0 0 0)
(0 0 0)
(0 0 0)
(0 0 0)
(0 0 0)
(0 0 0)
(0 0 0)
(0 0 0)
(0 0 0)
(0 0 0)
(0 0 0)
(0 0 0)
(0 0 0)
(0 0 0)
(0 0 0)
(0 0 0)
(0 0 0)
(0 0 0)
(0 0 0)
(0 0 0)
(0 0 0)
(0 0 0)
(0 0 0)
(0 0 0)
(0 0 0)
(0 0 0)
(0 0 0)
(0 0 0)
(0 0 0)
(0 0 0)
(0 0 0)
(0 0 0)
(0 0 0)
(0 0 0)
(0 0 0)
(0 0 0)
(0 0 0)
(0 0 0)
(0 0 0)
(0 0 0)
(0 0 0)
(0 0 0)
(0 0 0)
(0 0 0)
(0 0 0)
(0 0 0)
(0 0 0)
(0 0 0)
(0 0 0)
(0 0 0)
(0 0 0)
(0 0 0)
(0 0 0)
(0 0 0)
(0 0 0)
(0 0 0)
(0 0 0)
(0 0 0)
(0 0 0)
(0 0 0)
(0 0 0)
(0 0 0)
(0 0 0)
(0 0 0)
(0 0 0)
(0 0 0)
(0 0 0)
(0 0 0)
(0 0 0)
(0 0 0)
(0 0 0)
(0 0 0)
(0 0 0)
(0 0 0)
(0 0 0)
(0 0 0)
(0 0 0)
(0 0 0)
(0 0 0)
(0 0 0)
(0 0 0)
(0 0 0)
(0 0 0)
(0 0 0)
(0 0 0)
(0 0 0)
(0 0 0)
(0 0 0)
(0 0 0)
(0 0 0)
(0 0 0)
(0 0 0)
(0 0 0)
(0 0 0)
(0 0 0)
(0 0 0)
(0 0 0)
(0 0 0)
(0 0 0)
(0 0 0)
(0 0 0)
(0 0 0)
(0 0 0)
(0 0 0)
(0 0 0)
(0 0 0)
(0 0 0)
(0 0 0)
(0 0 0)
(0 0 0)
(0 0 0)
(0 0 0)
(0 0 0)
(0 0 0)
(0 0 0)
(0 0 0)
(0 0 0)
(0 0 0)
(0 0 0)
(0 0 0)
(0 0 0)
(0 0 0)
(0 0 0)
(0 0 0)
(0 0 0)
(0 0 0)
(0 0 0)
(0 0 0)
(0 0 0)
(0 0 0)
(0 0 0)
(0 0 0)
(0 0 0)
(0 0 0)
(0 0 0)
(0 0 0)
(0 0 0)
(0 0 0)
(0 0 0)
(0 0 0)
(0 0 0)
(0 0 0)
(0 0 0)
(0 0 0)
(0 0 0)
(0 0 0)
(0 0 0)
(0 0 0)
(0 0 0)
(0 0 0)
(0 0 0)
(0 0 0)
(0 0 0)
(0 0 0)
(0 0 0)
(0 0 0)
(0 0 0)
(0 0 0)
(0 0 0)
(0 0 0)
(0 0 0)
(0 0 0)
(0 0 0)
(0 0 0)
(0 0 0)
(0 0 0)
(0 0 0)
(0 0 0)
(0 0 0)
(0 0 0)
(0 0 0)
(0 0 0)
(0 0 0)
(0 0 0)
(0 0 0)
(0 0 0)
(0 0 0)
(0 0 0)
(0 0 0)
(0 0 0)
(0 0 0)
(0 0 0)
(0 0 0)
(0 0 0)
(0 0 0)
(0 0 0)
(0 0 0)
(0 0 0)
(0 0 0)
(0 0 0)
(0 0 0)
(0 0 0)
(0 0 0)
(0 0 0)
(0 0 0)
(0 0 0)
(0 0 0)
(0 0 0)
(0 0 0)
(0 0 0)
(0 0 0)
(0 0 0)
(0 0 0)
(0 0 0)
(0 0 0)
(0 0 0)
(0 0 0)
(0 0 0)
(0 0 0)
(0 0 0)
(0 0 0)
(0 0 0)
(0 0 0)
(0 0 0)
(0 0 0)
(0 0 0)
(0 0 0)
(0 0 0)
(0 0 0)
(0 0 0)
(0 0 0)
(0 0 0)
(0 0 0)
(0 0 0)
(0 0 0)
(0 0 0)
(0 0 0)
(0 0 0)
(0 0 0)
(0 0 0)
(0 0 0)
(0 0 0)
(0 0 0)
(0 0 0)
(0 0 0)
(0 0 0)
(0 0 0)
(0 0 0)
(0 0 0)
(0 0 0)
(0 0 0)
(0 0 0)
(0 0 0)
(0 0 0)
(0 0 0)
(0 0 0)
(0 0 0)
(0 0 0)
(0 0 0)
(0 0 0)
(0 0 0)
(0 0 0)
(0 0 0)
(0 0 0)
(0 0 0)
(0 0 0)
(0 0 0)
(0 0 0)
(0 0 0)
(0.0174236 -0.0282301 -0.00408984)
(0.0217165 0.00655927 -0.0164028)
(0.0145929 -0.00581902 0.025973)
(0.0539011 -0.017197 0.00548206)
(0.0167784 -0.00540378 -0.01141)
(0.0271383 -0.0433464 0.0112208)
(0.0163262 -0.0231759 0.00828902)
(0.00429704 -0.00186034 0.00193455)
(0.0577445 -0.0859273 -0.025674)
(0.0386547 -0.0442615 -0.00815929)
(0.0637266 -0.0678688 -0.00596471)
(0.0887147 -0.12626 -0.029301)
(0.130671 -0.102159 -0.00539225)
(0.109372 -0.0342577 0.00114847)
(0.105519 -0.0488394 -0.00027261)
(0.16643 -0.0929303 -0.00316019)
(0.0807546 -0.204443 -0.0075621)
(0.0455874 -0.124976 0.0218176)
(-0.00321254 -0.0907086 0.00787464)
(0.0204468 -0.254362 -0.0289561)
(-0.0907556 -0.357648 -0.0603293)
(-0.0360502 -0.0312667 0.00370816)
(-0.0383162 -0.0379896 0.00077594)
(-0.0924639 -0.322724 -0.0453768)
(-0.0815383 -0.12152 -0.0094938)
(-0.0543221 -0.109156 -0.00864842)
(0.0527002 -0.118441 -0.0446994)
(0.021202 -0.0555723 -0.0252688)
(0.042358 -0.106203 -0.0524554)
(0.108511 -0.14373 -0.0409832)
(0.161874 -0.153553 0.00193666)
(0.1119 -0.130583 -0.0512056)
(0.181449 -0.163851 -0.00879895)
(0.101204 -0.224068 0.00301211)
(0.0312546 -0.290564 0.0160542)
(0.113614 -0.258984 0.00188456)
(0.0120923 -0.365146 0.016636)
(-0.0969027 -0.371839 0.003813)
(-0.0957052 -0.363922 -0.00520435)
(-0.0949831 -0.393476 0.00318825)
(-0.0813283 -0.354134 -0.00745777)
(-0.0780793 -0.335468 -0.0363768)
(-0.0716872 -0.294174 -0.0610977)
(-0.0573169 -0.325727 -0.0142236)
(-0.0397725 -0.294693 -0.056212)
(-0.0302095 -0.188394 -0.0325786)
(-0.00454266 -0.182945 -0.044944)
(-0.00963741 -0.10771 -0.0245849)
(0.015207 -0.0487606 -0.0314388)
(0.0299382 -0.0903234 -0.0492154)
(0.0465468 -0.0371375 -0.0473914)
(0.11929 -0.117156 -0.0436463)
(0.149421 -0.190804 -0.0169659)
(0.0937529 -0.0816584 -0.0408341)
(0.0882427 -0.199243 -0.0302587)
(0.113062 -0.291384 -0.00833009)
(-0.0283588 -0.39221 -0.00248008)
(0.0629775 -0.306503 -0.0170466)
(0.000147685 -0.3316 -0.00315306)
(-0.0696661 -0.369275 0.00113594)
(-0.0571203 -0.330639 0.000959061)
(-0.0435736 -0.296027 -0.00292966)
(-0.027509 -0.271432 -0.00420491)
(-0.0298464 -0.299096 -0.00850917)
(0.00358391 -0.233121 -0.0171115)
(-0.00248241 -0.237664 0.00223779)
(0.0237204 -0.169609 -0.00614114)
(0.013993 -0.163126 -0.0468828)
(0.00754531 -0.0979913 -0.0408538)
(0.0198176 -0.110476 -0.0106973)
(0.0156556 -0.0205543 -0.0164891)
(0.043018 -0.04765 -0.035614)
(0.0429367 -0.152108 -0.0282189)
(0.0190789 -0.0203998 -0.0109547)
(0.0126482 -0.067981 -0.0160416)
(0.0227011 -0.215343 -0.0133446)
(-0.00188635 -0.223645 -0.0175827)
(-0.0100077 -0.125611 -0.0265264)
(-0.0218301 -0.115843 -0.0494717)
(-0.0190038 -0.205919 -0.00736132)
(-0.0111741 -0.184328 -0.00592362)
(-0.0129237 -0.106987 -0.0386204)
(0.00748035 -0.101233 -0.0159319)
(0.0177221 -0.138995 -0.011574)
(0.0320948 -0.10309 -0.00957892)
(0.0189514 -0.0605171 -0.00847575)
(0.0173015 -0.0410316 -0.0087408)
(0.0173767 -0.0652037 -0.0104325)
(0.00771036 -0.0236704 -0.0112986)
(-0.00915936 -0.0490051 -0.0159668)
(-0.00878843 -0.0234471 -0.0240945)
(0.00717295 -0.00184762 -0.00802893)
(-0.000982549 -0.0272448 -0.0270573)
(0.00866612 -0.0332437 -0.00789904)
(0.0121625 -0.00831355 -0.00169713)
(0.00647107 -0.023603 -0.00893714)
(0.0198889 -0.01136 0.125361)
(0.0207109 -0.0104425 0.168524)
(-0.000431931 0.00760793 0.128025)
(0.0151311 0.00560598 0.138715)
(0.0234073 0.00237577 0.146417)
(-0.0209899 0.0043734 0.142854)
(0.00377405 -0.00552756 0.195141)
(-0.0160172 -0.0108846 0.207891)
(0.0354601 -0.0784402 0.147727)
(0.0126854 -0.121976 0.113794)
(-0.0307397 0.00115099 0.143513)
(-0.0172964 -0.0286067 0.218328)
(0.00349584 -0.0507904 0.216871)
(-0.0370278 -0.0612316 0.0729763)
(-0.0229632 -0.0360061 0.14986)
(0.0612018 -0.0965159 0.0883896)
(0.0656363 -0.0758921 0.147559)
(0.0474557 -0.0395425 0.136938)
(0.0884706 -0.114309 0.106472)
(0.135217 -0.119864 0.10498)
(0.046732 -0.036404 0.190473)
(0.0373859 -0.0342835 0.232586)
(0.0908635 -0.0759617 0.223425)
(0.100676 -0.0808044 0.261801)
(-0.0512697 -0.0855348 0.0348573)
(-0.0827714 -0.300593 0.0725196)
(-0.0701892 -0.180623 0.0601671)
(-0.0412672 -0.126224 0.153885)
(-0.0328074 -0.0701762 0.12632)
(-0.0644532 -0.269058 0.192674)
(-0.057233 -0.175162 0.169684)
(-0.0627742 -0.148953 0.0606157)
(-0.0512352 -0.113329 0.162623)
(0.0635786 -0.116045 0.0893405)
(0.0324923 -0.0748867 0.0370653)
(0.0680186 -0.0975154 0.0806179)
(0.0762632 -0.0921616 0.14192)
(0.0302126 -0.0553089 0.0650528)
(0.0863035 -0.091974 0.119219)
(0.00170152 -0.193146 0.0800437)
(-0.0136902 -0.13662 0.067675)
(-0.040781 -0.161891 0.15687)
(-0.0211415 -0.145711 0.117875)
(-0.0135418 -0.0906492 0.0844731)
(0.0409415 -0.0780693 0.0536896)
(0.0338266 -0.0511722 0.0306964)
(0.00757812 -0.0486393 0.0276014)
(0.0446586 -0.0821893 0.0663407)
(0.0153838 -0.0625713 0.0240473)
(0.00826892 -0.119812 0.0686419)
(0.0421063 -0.144015 0.0482464)
(-0.0022742 -0.12967 0.101315)
(0.00518665 -0.085791 0.0869554)
(0.00652801 -0.107197 0.0641217)
(0.00635983 -0.033413 -0.00261636)
(-0.00543297 -0.0388389 -0.014368)
(-0.0134394 -0.187284 0.00820618)
(-0.00822141 -0.0413529 -0.0100982)
(-0.0376466 -0.101754 -0.0167346)
(0.0083551 -0.0770953 0.00333633)
(0.014623 -0.171633 0.00569392)
(-0.0151241 -0.0351942 -0.0223566)
(-0.0176234 -0.0870188 -0.0341191)
(0.0654569 -0.134459 -0.00758139)
(0.0519718 -0.0998912 -0.0400072)
(0.0639193 -0.0823529 -0.0260381)
(-0.00644846 -0.186515 -0.0101415)
(0.0273613 -0.123129 0.00851507)
(0.0292269 -0.107399 -0.0346434)
(0.0405105 -0.0662904 -0.00730993)
(0.0330696 -0.0817338 0.0173338)
(-0.047631 -0.0517237 -0.0490788)
(-0.0388595 -0.0367286 -0.0492305)
(-0.0650229 -0.0516247 -0.068513)
(-0.0737255 -0.0206954 -0.0150697)
(-0.0555305 -0.0687959 -0.0622689)
(-0.0545075 -0.0915984 -0.0740852)
(-0.0525642 -0.0271453 -0.0294402)
(0.0287772 -0.0512218 -0.0592727)
(-0.0427138 -0.0169656 -0.0100376)
(-0.00238681 -0.101426 -0.0620159)
(0.0370361 -0.069166 -0.0444071)
(-0.018146 -0.0319588 -0.00926723)
(0.0481957 -0.0463805 -0.0386273)
(0.010373 -0.0381899 0.2105)
(-0.00349979 -0.088461 0.311033)
(-0.0417326 -0.0204976 0.198507)
(-0.0147853 -0.0527051 0.243099)
(-0.0438479 -0.0682992 0.268523)
(-0.0756481 -0.104778 0.324002)
(-0.0408896 -0.152203 0.330017)
(-0.080036 -0.193951 0.345369)
(-0.0816774 -0.0664788 0.266479)
(-0.0661154 -0.0540516 0.268544)
(-0.133198 -0.0832382 0.287848)
(-0.118599 -0.15962 0.340707)
(-0.094859 -0.0879604 0.309335)
(-0.0434464 -0.0367027 0.215871)
(-0.0595872 -0.0490253 0.238267)
(0.0550128 -0.0672998 0.135851)
(0.033294 -0.0515268 0.101322)
(0.0155707 -0.0844787 0.297766)
(0.0780172 -0.0964081 0.279093)
(0.0545876 -0.135828 0.366954)
(0.017923 -0.113221 0.296784)
(-0.0289126 -0.175683 0.358657)
(0.0224435 -0.141964 0.324716)
(-0.0178664 -0.220281 0.448398)
(-0.0183513 -0.0372551 0.215006)
(-0.026126 -0.230948 0.313174)
(-0.0169377 -0.115998 0.272895)
(-0.0184181 -0.0899491 0.323411)
(-0.0115024 -0.0234305 0.257148)
(0.0064483 -0.193708 0.410986)
(0.0169015 -0.0517322 0.337981)
(-0.0177908 -0.034577 0.238555)
(0.0133372 0.0333241 0.239175)
(0.0680672 -0.0850157 0.133967)
(0.0205199 -0.0606982 0.0241377)
(0.0873168 -0.109133 0.10516)
(0.0427058 -0.0585095 0.109718)
(0.0196264 -0.0491155 -0.0262348)
(0.077021 -0.103599 0.0688593)
(-0.0558375 -0.0842622 0.100763)
(-0.0140698 -0.0432398 0.0626555)
(0.0145985 0.0537964 0.1972)
(0.00309122 -4.68832e-05 0.0591743)
(0.0121212 0.00135723 0.0381606)
(0.0453058 -0.109086 0.0309761)
(0.0126557 -0.0800384 -0.0188529)
(0.0127509 -0.0602304 -0.043743)
(0.059424 -0.121211 -0.0154074)
(0.0208922 -0.0912013 -0.0803655)
(-0.00345333 -0.0536618 0.0596223)
(-0.0361895 -0.0969959 0.0151704)
(-0.0481109 -0.0522978 -0.0245578)
(0.00571419 -0.0149874 0.00718597)
(-0.0351919 -0.0645533 -0.0483542)
(-0.0108838 -0.0441764 -0.0433805)
(-0.000860632 -0.0485034 -0.0966803)
(0.0498956 -0.17457 -0.0343437)
(-0.0090879 -0.0347331 -0.0582938)
(0.0100216 -0.0817663 -0.0833335)
(0.0345211 -0.0987957 -0.115259)
(0.0690893 -0.179722 -0.088251)
(0.00143902 -0.0384139 -0.113168)
(0.0240035 -0.0858043 -0.148429)
(0.000361646 -0.139696 -0.0372947)
(0.0151788 -0.130371 -0.086811)
(0.0349104 -0.0748687 -0.0560795)
(-0.0182562 -0.203054 -0.0720491)
(-0.0147025 -0.118045 -0.0889976)
(0.0233383 -0.139334 -0.151276)
(0.0273694 -0.0775881 -0.119145)
(0.00275622 -0.051028 -0.0609331)
(-0.0208834 -0.0295193 -0.081022)
(-0.00299772 -0.0287847 -0.133254)
(-0.0166334 -0.0847789 -0.133139)
(-0.0186741 -0.0188498 -0.0878656)
(0.00396546 -0.0467885 -0.163173)
(0.00978681 -0.0714584 -0.194762)
(0.00499986 -0.0143128 -0.150494)
(0.0439037 -0.0777209 -0.111389)
(0.00833691 -0.022812 -0.0860125)
(0.0303685 -0.0860094 -0.202846)
(0.0413521 -0.0670663 -0.183149)
(0.0258018 -0.0219261 -0.154056)
(0.053439 -0.0593405 -0.165537)
(-0.0375976 -0.202411 0.332685)
(-0.200756 -0.471559 0.256272)
(-0.134349 -0.448016 0.275314)
(-0.132955 -0.374647 0.285587)
(-0.113585 -0.353605 0.304863)
(0 0 0)
(-0.137551 -0.483504 0.240914)
(-0.0781892 -0.420698 0.283249)
(-0.111511 -0.270481 0.348967)
(-0.0841146 -0.165267 0.349308)
(0 0 0)
(-0.0700146 -0.301086 0.333075)
(-0.0270268 -0.227681 0.372338)
(-0.056074 -0.0841663 0.281782)
(-0.0182808 -0.149079 0.333401)
(-0.036261 -0.0422661 -0.102589)
(-0.0927691 -0.0553551 -0.310428)
(-0.0988172 -0.313937 0.362284)
(-0.0782067 -0.222998 0.35347)
(-0.0831378 -0.297805 0.475274)
(-0.224127 -0.385707 0.107259)
(-0.127151 -0.385072 0.333376)
(-0.147554 -0.29044 0.319491)
(-0.115385 -0.354064 0.456139)
(-0.00569049 -0.042171 0.27626)
(0.0174646 -0.151483 0.456799)
(0.0307026 -0.0431519 0.363039)
(0.00855281 -0.173336 0.362075)
(0.0120145 -0.100984 0.303166)
(0.00851164 -0.164533 0.441234)
(0.0542573 -0.0988853 0.356981)
(0.0439845 0.0552909 0.225068)
(0.0818422 -0.000967136 0.233869)
(-0.00511112 -0.0468539 0.0273693)
(0.023835 -0.00705471 -0.132355)
(0.0680813 -0.081419 0.0376843)
(-0.0939253 -0.0869193 -0.0498404)
(-0.00693984 0.0925052 -0.487031)
(-0.0742712 -0.0628483 -0.0567681)
(0.141164 0.12743 -0.232856)
(-0.0252992 0.0278466 -0.21858)
(0.164089 0.044955 0.254129)
(0.032456 0.0533737 -0.364835)
(-1.79689e-14 1.12406e-14 -2.38628e-13)
(0.0866437 -0.105918 -0.0762028)
(0.0489094 -0.0910544 -0.163286)
(0.0216574 0.0259689 -0.366247)
(0.0742051 -0.000554339 -0.308601)
(0.0570492 -0.063838 -0.262005)
(0.0129931 -0.00716323 -0.0540852)
(-0.0194599 -0.030484 -0.115739)
(0.0306497 0.0476624 -0.488437)
(-0.0368807 0.0352925 -0.434855)
(0.0807729 0.0631749 -0.505727)
(0.0111163 -0.0568287 -0.179541)
(0.024591 -0.0400774 -0.286354)
(0.104072 -0.188733 -0.139912)