/*--------------------------------*- C++ -*----------------------------------*\
| =========                 |                                                 |
| \\      /  F ield         | OpenFOAM: The Open Source CFD Toolbox           |
|  \\    /   O peration     | Version:  5.x                                   |
|   \\  /    A nd           | Web:      www.OpenFOAM.org                      |
|    \\/     M anipulation  |                                                 |
\*---------------------------------------------------------------------------*/
FoamFile
{
    version     2.0;
    format      ascii;
    class       volScalarField;
    location    "8.7";
    object      p;
}
// * * * * * * * * * * * * * * * * * * * * * * * * * * * * * * * * * * * * * //

dimensions      [0 2 -2 0 0 0 0];

internalField   nonuniform List<scalar> 
10571
(
29.5531
63.0221
29.9413
58.1897
127.895
133.001
97.0536
117.544
141.205
128.984
173.773
169.918
165.558
162.279
144.032
136.149
162.131
162.252
141.918
133.113
139.931
139.854
139.359
146.861
26.4133
25.7715
26.2522
25.6938
30.0536
17.6377
17.8198
28.1653
82.2901
120.297
43.9784
22.8018
35.3094
101.194
127.392
128.053
25.7256
58.09
125.546
129.844
124.991
102.142
125.973
123.266
25.5346
22.1989
25.305
25.7092
9.17354
14.3896
15.3676
13.115
8.75332
18.4623
14.3932
15.145
12.6811
24.5216
22.2033
58.5893
16.8296
13.9693
39.9227
92.895
71.4905
25.441
80.4659
86.0324
6.90426
11.8927
22.5338
8.81908
7.26366
9.85851
8.4242
7.15893
6.42111
7.11324
12.5095
12.6297
9.24596
7.65781
6.34372
6.65699
11.7891
9.73705
7.25636
8.12697
6.79661
13.4358
7.74327
6.68052
6.87031
7.88156
6.80142
6.87519
7.1735
7.55513
7.297
6.92893
7.47803
7.14197
9.00367
8.26604
7.61044
6.91341
7.53483
7.05768
8.35433
7.74142
6.91359
7.512
7.22232
6.88135
7.01167
7.2677
6.80407
6.82208
6.68672
6.72464
7.06996
6.95817
6.92323
6.73509
7.07544
7.06241
7.00919
7.524
8.23263
6.69171
6.86566
7.10528
7.01351
6.9638
6.90651
6.56166
6.94807
7.09317
7.01394
6.77394
6.94505
7.02993
6.79799
6.76747
6.63073
6.72551
6.94471
7.30254
6.45443
6.74878
6.91875
7.07032
7.00164
6.74898
7.31942
6.51575
6.85699
6.97679
6.98514
6.96125
6.63731
6.73036
6.88955
7.01091
6.99986
6.98344
6.77998
6.89732
6.98098
6.81591
6.5912
6.68163
6.77242
6.87598
6.56281
6.6101
6.79534
6.90374
6.96218
6.95545
6.61967
6.60938
6.74416
6.85011
6.94798
6.9597
6.95525
6.6695
6.71468
6.83506
6.94282
6.97703
6.99206
6.73582
6.84964
6.90779
6.82699
6.65959
6.69605
6.77148
6.8308
6.63008
6.73846
6.7997
6.87858
6.87237
6.94245
6.69049
6.68119
6.75939
6.81103
6.90815
6.92018
6.97751
6.68982
6.69708
6.79765
6.8856
6.89239
6.69929
6.78819
6.86416
6.81164
6.71718
6.72602
6.7667
6.81128
6.68067
6.77939
6.77777
6.84919
6.83552
6.70211
6.68839
6.72563
6.77496
6.86489
6.8605
6.71096
6.71473
6.76517
6.83431
6.83633
6.7026
6.75613
6.81974
6.8049
6.75894
6.76046
6.78032
6.8096
6.72695
6.80003
6.77052
6.84321
6.84302
6.71975
6.70043
6.71161
6.75877
6.81309
6.82999
6.73797
6.75295
6.73547
6.79369
6.81668
6.70729
6.72468
6.77596
6.79272
6.77573
6.78102
6.78553
6.81429
6.72839
6.8058
6.77931
6.85913
6.85017
6.72305
6.71372
6.73256
6.76441
6.79523
6.82618
6.73513
6.76646
6.71777
6.7675
6.8041
6.73463
6.72911
6.76023
6.77442
6.78323
6.78962
6.77802
6.81619
6.74634
6.78382
6.78053
6.87604
6.84292
6.7241
6.71915
6.7501
6.78299
6.79878
6.82381
6.73235
6.77737
6.75189
6.80247
6.81502
6.80918
6.8207
6.88855
6.76129
6.794
6.78983
6.75635
6.80455
6.76315
6.77939
6.76815
6.86123
6.83014
6.72508
6.73109
6.75912
6.7833
6.79172
6.82259
6.73264
6.76903
6.79098
6.80998
6.81629
6.82121
6.85139
6.84802
6.76394
6.80172
6.79147
6.75194
6.79202
6.7866
6.78649
6.76478
6.8352
6.82015
6.74359
6.75093
6.76762
6.77556
6.78499
6.81921
6.74661
6.75362
6.78164
6.806
6.81179
6.80526
6.8505
6.81851
6.77701
6.79979
6.79822
6.76227
6.78085
6.78556
6.80945
6.76682
6.80874
6.81193
6.78804
6.76806
6.78042
6.76772
6.77847
6.81398
6.77721
6.75106
6.77204
6.80302
6.80863
6.78769
6.80772
6.80693
6.79688
6.81252
6.80936
6.78036
6.77708
6.79084
6.82871
6.77171
6.78762
6.80573
6.79755
6.78178
6.80443
6.77638
6.77093
6.80872
6.79284
6.76437
6.76932
6.79807
6.80589
6.78815
6.79071
6.80342
6.81889
6.8285
6.82258
6.80009
6.78652
6.81321
6.85501
6.79071
6.77341
6.80366
6.77071
6.779
6.83405
6.78217
6.78053
6.8091
6.79317
6.77456
6.77736
6.80052
6.80867
6.79654
6.79414
6.80967
6.84249
6.84511
6.84351
6.8126
6.80694
6.82921
6.86597
6.80037
6.77747
6.81425
6.78748
6.79156
6.80979
6.77763
6.79937
6.81809
6.78877
6.76808
6.78452
6.80443
6.81431
6.78986
6.79711
6.81712
6.86119
6.87705
6.87079
6.81915
6.82838
6.84656
6.82233
6.78383
6.79355
6.83492
6.86969
6.79882
6.76207
6.76437
6.8077
6.8266
6.77624
6.75189
6.77125
6.80074
6.81844
6.76729
6.78436
6.81484
6.85371
6.91919
6.88922
6.80672
6.83169
6.83195
6.75935
6.75209
6.79791
6.85161
6.84576
6.77892
6.72975
6.74044
6.7986
6.82352
6.76087
6.73337
6.74795
6.79299
6.813
6.74911
6.76561
6.79893
6.77588
6.87486
6.79072
6.70566
6.80274
6.78419
6.69004
6.69049
6.77751
6.83388
6.77452
6.73852
6.69476
6.71159
6.78034
6.80707
6.75173
6.71547
6.72976
6.78229
6.79963
6.742
6.74978
6.77813
6.66225
6.76599
6.67544
6.61064
6.75488
6.73405
6.62333
6.64394
6.75035
6.78967
6.74181
6.70277
6.66957
6.70193
6.7609
6.78793
6.74183
6.7042
6.71787
6.76852
6.78723
6.73443
6.74282
6.76349
6.59537
6.70116
6.60338
6.56265
6.733
6.70304
6.59661
6.65797
6.73626
6.75938
6.72465
6.6831
6.67323
6.7131
6.75619
6.78209
6.73627
6.70226
6.72243
6.76435
6.78377
6.73066
6.73286
6.75608
6.59497
6.67783
6.59538
6.59323
6.71978
6.6944
6.61697
6.6952
6.73392
6.75401
6.71972
6.67744
6.69113
6.73035
6.76436
6.78686
6.73624
6.71337
6.73693
6.76814
6.78727
6.73702
6.73182
6.76284
6.63582
6.68595
6.62227
6.64638
6.72054
6.7026
6.66303
6.72081
6.73707
6.75777
6.72569
6.68458
6.70967
6.74393
6.76575
6.79677
6.73905
6.73186
6.74346
6.78121
6.79561
6.74186
6.7411
6.77891
6.66759
6.70809
6.66559
6.67591
6.7207
6.72001
6.70761
6.73305
6.74812
6.76808
6.73745
6.70111
6.73135
6.75534
6.76505
6.80777
6.74302
6.74866
6.74751
6.77981
6.80799
6.75413
6.75747
6.78291
6.704
6.7341
6.70767
6.70554
6.73846
6.74225
6.74272
6.74521
6.76427
6.76637
6.75421
6.72494
6.7473
6.76394
6.74544
6.80617
6.75124
6.7563
6.74845
6.76685
6.80971
6.7628
6.75919
6.76713
6.74302
6.75877
6.736
6.73903
6.74718
6.76514
6.76072
6.75892
6.76806
6.77255
6.77396
6.75274
6.75688
6.76037
6.72612
6.76703
6.76579
6.76257
6.75656
6.74467
6.77231
6.76716
6.76033
6.75837
6.76525
6.77959
6.75623
6.74693
6.74472
6.78474
6.77008
6.75109
6.76445
6.77759
6.789
6.7766
6.76796
6.75688
6.73829
6.73568
6.78119
6.76774
6.77196
6.7481
6.76218
6.76654
6.76482
6.76443
6.76909
6.79905
6.77166
6.72312
6.70371
6.79741
6.78677
6.73115
6.76024
6.80105
6.79687
6.79148
6.78313
6.7721
6.75183
6.72662
6.79241
6.77122
6.78212
6.75815
6.76209
6.77279
6.7673
6.76854
6.83718
6.81697
6.81267
6.78799
6.74071
6.7999
6.80317
6.79228
6.8041
6.82976
6.80151
6.79633
6.78916
6.79491
6.76891
6.76124
6.79198
6.77692
6.78031
6.76508
6.76988
6.77676
6.77351
6.77027
6.91466
6.8234
6.83093
6.85089
6.73645
6.79874
6.79689
6.81341
6.80539
6.809
6.805
6.79919
6.79014
6.80431
6.78235
6.79544
6.79459
6.77715
6.77619
6.76975
6.77585
6.77929
6.77699
6.76916
6.84424
6.81965
6.81855
6.80164
6.63385
6.80083
6.78987
6.77014
6.74687
6.77536
6.806
6.80269
6.78837
6.78245
6.76472
6.79037
6.79917
6.77971
6.77216
6.7636
6.76992
6.78342
6.77772
6.76515
6.80296
6.81267
6.8076
6.77767
6.66571
6.80225
6.79091
6.7664
6.72346
6.76091
6.80995
6.80333
6.79215
6.76678
6.74205
6.76931
6.80247
6.79027
6.77116
6.75049
6.75952
6.79308
6.78308
6.76334
6.80057
6.8084
6.80322
6.78823
6.74222
6.80185
6.79495
6.77485
6.74125
6.75819
6.80313
6.79807
6.79756
6.76392
6.7296
6.75116
6.79907
6.79548
6.77417
6.74354
6.75523
6.8008
6.78871
6.76689
6.80757
6.81176
6.8058
6.80041
6.7854
6.79807
6.79759
6.77713
6.78592
6.76803
6.79595
6.79203
6.79601
6.77565
6.74956
6.74198
6.78958
6.79429
6.77942
6.75618
6.75876
6.80723
6.79202
6.77559
6.81106
6.81092
6.80652
6.80456
6.81445
6.79679
6.80113
6.79387
6.81167
6.79047
6.79529
6.7922
6.7961
6.78504
6.77565
6.73643
6.78368
6.78836
6.78413
6.77221
6.75614
6.80855
6.79171
6.7862
6.81111
6.80319
6.79768
6.80065
6.81584
6.80068
6.80211
6.80376
6.79603
6.79633
6.80134
6.79762
6.80002
6.79286
6.75976
6.71949
6.79468
6.78301
6.79159
6.7829
6.74453
6.80573
6.79609
6.79773
6.81775
6.79395
6.78812
6.80503
6.81748
6.80847
6.80216
6.80728
6.78859
6.8113
6.81093
6.80539
6.80837
6.80681
6.75221
6.75542
6.80982
6.78402
6.80382
6.798
6.76643
6.80924
6.80451
6.81245
6.82896
6.81045
6.80603
6.81942
6.83159
6.81841
6.81613
6.82152
6.80349
6.80686
6.82095
6.81761
6.81964
6.8248
6.80779
6.84219
6.8195
6.79135
6.81743
6.82186
6.83575
6.81635
6.81354
6.82863
6.85173
6.82814
6.82687
6.84682
6.85677
6.82689
6.82621
6.83609
6.81974
6.84305
6.82771
6.82595
6.82638
6.83409
6.84135
6.89947
6.82416
6.79836
6.82771
6.83492
6.86733
6.82275
6.82059
6.83892
6.84617
6.834
6.8325
6.84581
6.86546
6.83
6.82617
6.83204
6.82826
6.84703
6.83044
6.82954
6.83003
6.83435
6.83654
6.87466
6.82587
6.80099
6.83116
6.8335
6.86159
6.82705
6.82533
6.84111
6.83794
6.83182
6.83053
6.8375
6.84154
6.83045
6.82665
6.82619
6.81413
6.83533
6.83007
6.82923
6.82825
6.83112
6.8314
6.8489
6.82646
6.80622
6.83054
6.82865
6.85314
6.83011
6.82779
6.83947
6.82976
6.82844
6.82707
6.82773
6.82492
6.828
6.8244
6.81701
6.83376
6.82544
6.82749
6.82666
6.82475
6.82574
6.825
6.83357
6.82592
6.80736
6.8281
6.82715
6.84661
6.83144
6.82807
6.83805
6.81962
6.82413
6.82302
6.81666
6.81777
6.82217
6.81809
6.81636
6.85547
6.82903
6.82324
6.82251
6.81783
6.81396
6.82401
6.82397
6.8236
6.8036
6.81899
6.82705
6.83677
6.83009
6.82582
6.83857
6.80601
6.8187
6.81355
6.8008
6.81479
6.81618
6.80828
6.81611
6.83496
6.83552
6.81806
6.81725
6.80762
6.80937
6.82244
6.82011
6.81969
6.7966
6.80801
6.82273
6.82575
6.82628
6.82191
6.83785
6.79666
6.81242
6.80091
6.78982
6.80796
6.81048
6.79755
6.80793
6.81096
6.8434
6.81299
6.81251
6.7989
6.79988
6.81002
6.81867
6.81534
6.7897
6.79731
6.81449
6.81845
6.82027
6.81447
6.83019
6.79288
6.80611
6.78843
6.78725
6.80318
6.80602
6.79298
6.79702
6.79757
6.82105
6.80898
6.80736
6.79461
6.78692
6.80408
6.80814
6.81126
6.78494
6.78256
6.80229
6.80987
6.81431
6.805
6.81743
6.79628
6.80173
6.78278
6.79042
6.79609
6.80286
6.79453
6.78673
6.78285
6.7921
6.80712
6.80215
6.79564
6.77496
6.79772
6.79596
6.80945
6.78728
6.76956
6.7879
6.80129
6.81102
6.79609
6.80262
6.79742
6.8012
6.78666
6.79332
6.78923
6.80353
6.7972
6.77879
6.77182
6.78065
6.80762
6.80133
6.79937
6.76628
6.785
6.79743
6.811
6.7958
6.76228
6.7695
6.79031
6.8136
6.79132
6.7887
6.79464
6.80319
6.79635
6.79168
6.78466
6.80815
6.79804
6.77477
6.76308
6.77519
6.81159
6.80736
6.80061
6.76219
6.77149
6.78992
6.81481
6.80608
6.76168
6.7522
6.77986
6.81967
6.79402
6.78064
6.79131
6.80519
6.80627
6.79009
6.78326
6.81201
6.79804
6.77571
6.75816
6.77285
6.8154
6.8132
6.79609
6.75978
6.75989
6.78002
6.81867
6.81293
6.76788
6.74244
6.77055
6.82213
6.8011
6.77813
6.79529
6.80816
6.81034
6.79203
6.78528
6.81428
6.79827
6.78088
6.7569
6.77258
6.8188
6.81574
6.78985
6.76201
6.75087
6.77245
6.82298
6.80836
6.78058
6.74791
6.76063
6.82224
6.80751
6.78069
6.80435
6.81097
6.80772
6.79744
6.79062
6.8164
6.80085
6.7884
6.76055
6.77487
6.82299
6.81733
6.78615
6.77367
6.75136
6.76844
6.82372
6.7996
6.79639
6.75776
6.75911
6.82212
6.81472
6.78777
6.8079
6.81538
6.81357
6.80345
6.79748
6.81986
6.80624
6.79501
6.76954
6.78071
6.82812
6.82038
6.78738
6.7936
6.74915
6.77211
6.82121
6.80106
6.81361
6.77068
6.76323
6.82096
6.82222
6.79707
6.80932
6.82134
6.81887
6.80682
6.80384
6.82498
6.81213
6.8002
6.77969
6.78684
6.8336
6.8253
6.79769
6.807
6.75329
6.77762
6.81967
6.80959
6.81195
6.7851
6.7643
6.81964
6.82304
6.80589
6.81135
6.82748
6.81941
6.80884
6.80876
6.83168
6.81597
6.80401
6.78794
6.78983
6.83949
6.8319
6.81076
6.81076
6.7621
6.777
6.82179
6.81571
6.80852
6.79221
6.77903
6.82111
6.82283
6.81271
6.81592
6.83518
6.82213
6.81193
6.81154
6.84069
6.82063
6.80801
6.79141
6.78406
6.84678
6.84027
6.81994
6.799
6.77892
6.75898
6.83053
6.822
6.82373
6.79639
6.7805
6.8252
6.82514
6.81692
6.82397
6.84722
6.83346
6.8171
6.81132
6.85157
6.82718
6.81233
6.78228
6.75256
6.8578
6.85104
6.82689
6.79187
6.78124
6.70355
6.84495
6.83848
6.83729
6.79079
6.75037
6.83663
6.83337
6.81981
6.83603
6.86304
6.84886
6.82561
6.80901
6.86255
6.83925
6.81609
6.74852
6.6718
6.87391
6.86533
6.83919
6.78228
6.73977
6.54948
6.86602
6.85678
6.8378
6.7738
6.67121
6.85567
6.84503
6.82042
6.85734
6.88473
6.8663
6.84449
6.8096
6.88014
6.85611
6.8275
6.70145
6.43138
6.90104
6.88939
6.85911
6.78306
6.66808
6.15609
6.89495
6.88668
6.84341
6.75075
6.49367
6.88995
6.86972
6.82358
6.89357
6.91638
6.88475
6.87648
6.82072
6.9131
6.87961
6.84288
6.64663
5.67754
6.94244
6.92735
6.8911
6.80194
6.61639
5.5666
-4.69559
6.93699
6.93144
6.87025
6.7481
6.10451
6.93797
6.90476
6.8475
6.94795
6.97041
6.92038
6.9255
6.84361
6.97046
6.90939
6.86785
6.63306
5.13691
0.525952
6.99766
6.97903
6.93991
6.84879
6.62696
5.36854
0.548391
6.99809
6.99791
6.93438
6.78698
5.66837
6.98809
6.96882
6.92517
7.01986
7.05113
6.98379
6.99168
6.89895
7.04948
6.96765
6.90915
6.65567
5.42343
1.3187
7.06849
7.04181
7.00076
6.899
6.66665
5.30262
1.58751
7.07008
7.07245
7.01436
6.87084
5.91101
1.64314
7.06043
7.03413
7.01467
7.10472
7.15709
7.07506
7.07287
7.00718
7.15826
7.06377
6.95691
6.74135
5.37354
1.10707
7.1532
7.12835
7.08883
6.95637
6.77972
5.64846
1.01262
7.12319
7.13646
7.11102
6.98016
6.20266
7.14188
7.11216
7.09752
7.18863
7.27648
7.175
7.15426
7.12753
7.26774
7.17741
7.0734
6.89586
5.98549
7.26732
7.2197
7.18533
7.10401
6.96588
6.00941
-3.21268
7.18608
7.20776
7.17436
7.07067
6.90121
7.22378
7.20126
7.18161
7.25558
7.33362
7.24808
7.21482
7.20828
7.3331
7.23914
7.1583
7.02756
6.87266
7.33819
7.28331
7.27508
7.20918
7.05991
6.9378
7.23848
7.25484
7.20703
7.10723
7.14038
7.27896
7.24414
7.24489
7.28695
7.33062
7.27319
7.23806
7.24278
7.31241
7.24269
7.16716
7.11547
7.14297
7.2781
7.22271
7.2676
7.21916
7.16314
7.2153
7.24205
7.28084
7.22711
7.13043
7.20236
7.2888
7.24809
7.22879
7.27044
7.3131
7.26804
7.20697
7.23358
7.28937
7.24404
7.17674
7.14812
7.21158
7.26543
7.23903
7.26982
7.22694
7.19299
7.22195
7.28739
7.29387
7.23124
7.16951
7.24101
7.29198
7.24808
7.20885
7.22548
7.28375
7.24304
7.17819
7.20755
7.27518
7.23299
7.17235
7.16235
7.2291
7.2841
7.26894
7.25929
7.2241
7.2065
7.22774
7.31344
7.28668
7.23674
7.21831
7.25065
7.29159
7.25643
7.21513
7.15929
7.26141
7.21686
7.13873
7.19757
7.26553
7.2239
7.16829
7.17358
7.23905
7.29095
7.27655
7.25409
7.22368
7.21717
7.23715
7.30412
7.27837
7.24482
7.23598
7.26189
7.29085
7.26829
7.24762
7.11459
7.24877
7.1989
7.11602
7.21875
7.2601
7.21904
7.173
7.1926
7.26307
7.29414
7.27803
7.25316
7.23588
7.24029
7.25685
7.29842
7.27908
7.25627
7.25216
7.27695
7.2929
7.27798
7.27289
7.13966
7.24683
7.19354
7.10488
7.28488
7.26187
7.21875
7.17198
7.20812
7.30996
7.30057
7.28217
7.25532
7.23288
7.24429
7.28188
7.29813
7.28129
7.26526
7.26552
7.29436
7.29577
7.28572
7.28645
7.20873
7.25694
7.21384
7.15891
7.35932
7.26921
7.22879
7.19925
7.24583
7.34956
7.3057
7.28633
7.26072
7.24225
7.25857
7.30621
7.29887
7.28395
7.27046
7.27462
7.30839
7.29656
7.28955
7.29238
64.4906
71.9613
51.135
86.2865
101.476
131.804
146.911
157.459
195.365
135.802
98.6151
185.664
155.221
99.8026
124.776
147.664
149.353
151.313
168.851
155.781
172.587
180.376
173.127
180.969
172.37
156.344
221.27
205.48
218.303
214.851
192.721
210.199
200.833
181.875
179.423
197.939
204.335
191.455
190.504
209.872
198.029
168.959
155.44
170.003
155.516
162.469
167.375
167.717
202.829
209.344
207.833
203.199
194.404
202.027
189.077
192.366
195.82
188.009
185.781
189.288
173.62
176.704
164.497
158.73
164.232
168.494
153.473
162.263
170.067
180.084
200.34
202.637
192.316
187.781
185.104
186.218
182.662
178.32
169.893
173.175
155.25
175.852
169.965
152.855
178.539
195.622
191.98
183.339
166.269
155.02
153.833
145.768
172.939
171.643
157.256
189.694
27.3606
25.3133
25.8314
25.3852
29.5683
25.4003
26.0746
25.3623
40.1401
67.838
25.4421
25.7575
27.7221
108.119
44.2994
118.686
45.9377
30.6592
90.9904
43.0226
28.3442
24.7344
35.5226
22.6367
136.2
131.731
136.349
67.803
100.764
87.7008
118.665
128.665
123.325
143.484
167.461
169.153
48.6778
100.123
90.8997
133.73
132.982
125.875
127.502
127.298
176.443
171.369
119.506
119.868
118.918
135.365
137.734
133.014
131.342
129.118
165.452
111.621
160.01
147.977
145.818
103.179
122.654
73.5767
94.953
138.104
142.013
146.659
132.304
131.048
128.799
128.263
129.934
140.634
112.853
138.036
136.061
134.203
135.717
136.322
143.072
134.392
131.905
129.305
132.667
129.699
26.0158
25.4397
26.3088
26.3168
26.2244
25.7978
25.6128
25.863
26.2767
24.3058
26.2535
26.3481
25.7208
27
22.6897
22.6217
15.7605
26.0391
23.2058
23.0903
24.3297
25.186
18.8266
22.8977
61.1635
48.1768
92.0831
17.412
18.9376
23.4234
33.5974
111.721
64.5636
17.9945
23.1229
21.2994
14.5597
14.0832
14.4411
122.141
119.118
83.2866
96.8415
95.0848
42.0144
45.4621
15.2942
16.5901
17.6758
124.18
124.824
105.239
99.1775
110.038
37.9406
18.6872
44.7633
24.2223
35.713
16.8592
16.0872
18.4127
18.9042
125.748
122.947
122.027
120.221
112.624
114.379
111.181
109.086
53.3144
26.6204
125.158
131.296
45.9726
87.4241
98.0931
122.8
128.986
114.874
117.926
113.54
113.175
25.014
24.322
25.3406
25.2051
25.2925
22.6416
25.0244
23.9224
25.7174
20.527
17.0983
16.8503
7.36812
8.95514
6.70339
13.7538
12.3576
24.3681
16.0664
21.6748
17.125
22.7344
11.8421
18.9449
7.53238
9.77131
7.90538
6.72496
7.59359
6.52381
7.11913
9.34321
6.67957
14.1884
14.867
14.7239
13.3717
14.3503
13.9508
40.808
49.495
6.13561
7.85181
10.5549
14.3181
14.5524
13.827
13.5717
13.3451
56.084
69.5929
11.9393
13.7478
16.7948
16.3367
14.1556
13.4125
18.66
16.3049
14.8843
12.6277
16.5376
14.2492
78.4972
88.7194
82.288
42.5481
29.4728
30.9003
30.7696
23.106
19.3371
15.7244
41.7264
52.4506
18.3157
20.6702
24.4619
93.8826
72.6419
21.7075
18.1659
23.677
23.491
20.1863
11.9346
8.96201
22.4766
13.9631
6.64154
9.433
6.79504
6.78655
6.2204
6.62768
6.65199
6.95488
7.19897
7.14582
10.7631
9.22948
17.3718
9.3541
12.563
9.30165
10.366
8.21784
7.22526
7.5481
7.23128
7.49719
7.2386
7.29169
7.21501
7.27781
7.48801
7.29878
11.6312
12.4653
11.825
9.57282
9.87423
9.61825
6.67134
6.4301
7.21221
7.12838
7.22376
12.2436
11.8414
10.695
10.6419
9.87476
6.36434
6.40997
7.2358
7.26368
7.09975
11.7187
9.62334
11.0662
12.6616
11.8993
9.42744
9.67567
10.0699
10.1818
7.17165
7.22324
7.01604
6.59121
6.86937
6.78989
6.84344
6.92502
12.2846
9.74349
12.1491
10.835
9.26207
7.39168
7.09331
5.90667
7.6818
6.94949
7.12452
6.93168
6.93894
7.44464
6.92135
6.88563
6.97283
6.85226
6.86071
7.05306
6.87268
6.87203
6.8024
6.81562
6.82536
6.85217
7.08889
7.06382
8.20596
7.28642
7.22429
7.42213
6.58743
7.11527
6.72675
6.95359
6.65849
7.2035
7.17407
7.2053
7.13031
7.14512
7.11315
7.13024
7.17716
7.11604
8.44797
8.31751
8.49967
7.6322
7.41358
7.7787
7.06633
7.15627
7.09459
7.04261
7.08412
8.97579
8.25472
7.75974
7.92705
7.53501
7.18893
7.12007
7.02669
7.10533
7.04628
8.40605
7.78354
9.2101
8.25526
8.72894
7.87473
9.57921
7.02629
6.97737
7.27424
7.33012
7.30288
7.16207
7.07655
7.14731
7.12036
7.07665
7.55501
6.83132
6.87581
6.93971
6.78001
6.84316
7.12042
7.29307
7.04407
6.98845
7.09385
7.03915
7.11218
6.75386
6.66715
6.80322
6.6979
6.79844
6.76883
6.66174
6.75807
6.80716
6.88678
6.79669
6.79719
6.86924
7.02687
6.97341
6.84679
6.69661
6.66731
6.76668
6.67278
6.77264
6.61941
6.71119
6.69555
7.07974
7.05169
7.05506
7.00218
7.00601
6.99212
7.01266
7.06933
7.04295
7.04534
7.03156
7.25588
6.81911
6.90017
6.93668
7.03017
7.02256
7.06895
7.04385
7.06237
6.97607
7.01213
7.01171
6.9562
6.96432
7.01035
7.0205
6.97065
6.96669
7.6215
7.56129
7.16434
7.39063
7.06263
7.05793
6.98194
6.98419
6.98517
7.00309
6.98545
6.97909
6.97167
6.98335
6.93945
6.9824
6.97119
6.9871
6.98211
7.13764
6.72972
7.81305
6.64039
6.50436
6.50877
6.33008
6.72541
6.68152
7.06015
7.06915
7.06059
7.05523
7.02572
7.04087
7.03022
6.99202
6.88206
6.77848
6.83496
6.93332
6.78104
6.83398
6.84467
6.9924
6.95318
6.91675
6.96763
6.90965
7.01079
6.65654
6.67178
6.7566
6.66977
6.73808
6.76499
6.69656
6.73953
6.78723
6.84837
6.80762
6.78797
6.85332
6.92418
6.89966
6.64462
6.59466
6.59979
6.89222
6.566
6.55986
6.62919
6.70192
6.51096
6.96318
6.94404
6.98368
6.90696
6.92568
6.91169
6.96264
7.08039
7.05301
7.01333
7.00553
7.00463
7.01077
6.97692
7.00411
6.7182
6.77315
6.78989
6.62031
6.67998
6.56875
7.06959
6.96452
7.01105
7.02023
6.99953
6.94171
6.9708
7.00208
6.94998
6.96234
6.95998
6.98942
6.92411
6.95696
6.62938
6.51903
6.54577
6.44849
6.54317
7.01411
6.99162
6.99409
6.97605
6.99488
6.97916
6.99221
6.97491
6.98301
6.9836
6.9516
6.96932
6.98256
6.98969
6.67431
6.68476
6.60924
6.73266
6.73507
6.67112
6.74489
6.70084
6.75008
6.98553
7.0062
6.99267
6.97475
6.96467
6.96495
6.96298
6.97951
6.99817
7.00573
6.98661
6.99162
6.99451
6.77317
6.77876
6.83558
6.83575
6.7689
6.82954
6.82879
6.94095
6.89508
6.87804
6.91187
6.88029
6.94247
6.69255
6.71929
6.78022
6.72098
6.74755
6.78943
6.73629
6.75253
6.79396
6.86361
6.82095
6.79546
6.84954
6.88642
6.86849
6.57993
6.6425
6.6573
6.54979
6.60308
6.62924
6.67668
6.60123
6.67613
6.88634
6.87795
6.91896
6.84983
6.85171
6.84072
6.8531
6.92382
6.96151
6.83085
6.9324
6.95922
6.99419
6.94801
6.98859
6.59468
6.5902
6.51864
6.62653
6.61212
6.61765
6.95947
6.90621
6.94484
6.89316
6.92044
6.87007
6.92748
6.98658
6.91574
6.96167
6.94168
6.98024
6.91886
6.96187
6.62987
6.63539
6.67375
6.67486
6.66026
6.98318
6.96619
6.99035
6.93924
6.97354
6.94427
6.98743
6.97407
6.98376
6.99213
6.96452
6.97877
6.98744
6.99651
6.6865
6.68911
6.76095
6.71039
6.74883
6.67547
6.80129
6.70484
6.74016
6.94347
6.92594
6.9357
6.91575
6.91965
6.89609
6.91349
6.99894
6.93876
6.99179
6.99525
6.9916
6.99609
6.78041
6.77864
6.81618
6.81206
6.70611
6.79824
6.79533
6.87784
6.8567
6.8159
6.84587
6.82533
6.88533
6.74167
6.76113
6.79093
6.74822
6.75541
6.78536
6.75966
6.75781
6.79607
6.82454
6.82144
6.79492
6.81012
6.84606
6.83085
6.67763
6.71148
6.69867
6.63013
6.70853
6.68871
6.72066
6.66416
6.73172
6.83187
6.8137
6.81221
6.81806
6.82539
6.80224
6.80317
6.8306
6.82657
6.67383
6.65746
6.66795
6.70413
6.68442
6.69083
6.91224
6.87143
6.92857
6.84828
6.88295
6.86072
6.91108
6.98364
6.93721
6.97031
6.9543
6.98183
6.96196
6.96691
6.69561
6.67428
6.69578
6.71283
6.69353
6.9685
6.91764
6.99057
6.89196
6.94462
6.87428
6.95831
6.99044
6.99362
6.99547
6.98473
6.99084
6.99196
6.99382
6.69816
6.71114
6.84002
6.71295
6.74296
6.69594
6.83507
6.71637
6.74983
6.89264
6.86839
6.88559
6.85949
6.86542
6.84376
6.8581
6.85026
6.76073
6.747
6.78228
6.77994
6.69956
6.76858
6.76998
6.81731
6.79568
6.77046
6.78581
6.77892
6.84096
6.77832
6.79173
6.78056
6.77007
6.76023
6.77977
6.77938
6.76307
6.78778
6.80392
6.80637
6.78205
6.80029
6.8229
6.819
6.73949
6.75733
6.74075
6.69729
6.75603
6.74129
6.75969
6.72304
6.7798
6.82241
6.80198
6.80387
6.80922
6.82186
6.80748
6.80924
6.82359
6.82701
6.73229
6.69722
6.70662
6.75364
6.70829
6.71719
6.86094
6.92986
6.83612
6.83184
6.77279
6.72434
6.71122
6.71164
6.72793
6.72637
6.95347
6.82693
6.82825
6.74744
6.81634
6.71738
6.73782
6.81194
6.72489
6.74953
6.72744
6.78148
6.72587
6.74493
6.84285
6.82125
6.83461
6.81222
6.82846
6.79962
6.81493
6.82859
6.7422
6.72035
6.74581
6.75491
6.70649
6.7034
6.72312
6.76522
6.76737
6.73887
6.74741
6.74628
6.79505
6.79953
6.80194
6.7809
6.78717
6.76662
6.78212
6.7911
6.7713
6.77982
6.79819
6.80111
6.77981
6.79746
6.81668
6.81537
6.76351
6.76166
6.77456
6.74028
6.78972
6.76979
6.78476
6.75014
6.78043
6.82328
6.81128
6.81611
6.81141
6.82642
6.81517
6.82293
6.83036
6.83408
6.7614
6.71779
6.7231
6.75728
6.71924
6.72258
6.83305
6.83151
6.84808
6.83765
6.83787
6.72797
6.73514
6.72389
6.72541
6.73323
6.81461
6.8108
6.83132
6.82772
6.807
6.75285
6.74581
6.75916
6.72997
6.73995
6.73841
6.73811
6.73376
6.73884
6.8195
6.77637
6.79764
6.77774
6.81287
6.75955
6.7839
6.80728
6.70906
6.72986
6.64539
6.68054
6.71679
6.63486
6.66299
6.72736
6.71987
6.71758
6.7183
6.71781
6.76299
6.80186
6.80086
6.78231
6.79227
6.77526
6.78208
6.79174
6.77773
6.78062
6.79653
6.78354
6.77792
6.79283
6.81408
6.81117
6.75792
6.75542
6.7914
6.7561
6.76859
6.78005
6.79801
6.75862
6.76298
6.82991
6.81604
6.82806
6.8167
6.83071
6.81377
6.83046
6.83468
6.8345
6.75262
6.7195
6.72082
6.75397
6.7261
6.72595
6.83926
6.83746
6.84911
6.83732
6.83761
6.72078
6.73097
6.71886
6.71792
6.73175
6.82044
6.80351
6.82373
6.81858
6.80448
6.73656
6.73059
6.72619
6.73764
6.74378
6.73298
6.72102
6.74096
6.74871
6.81266
6.76246
6.77693
6.7807
6.82009
6.78249
6.78435
6.80855
6.74638
6.76718
6.68923
6.7043
6.77697
6.78409
6.75133
6.72901
6.74479
6.77805
6.8007
6.77411
6.83059
6.79993
6.79787
6.78155
6.79089
6.77783
6.77814
6.79012
6.77663
6.76905
6.78622
6.76645
6.75979
6.77626
6.80635
6.79994
6.76058
6.76741
6.80217
6.75918
6.77628
6.78818
6.80196
6.76069
6.78859
6.82875
6.81125
6.82901
6.81149
6.82404
6.81166
6.82558
6.83171
6.82892
6.75985
6.73663
6.73717
6.76818
6.75159
6.75477
6.83263
6.83581
6.83738
6.8297
6.83289
6.71726
6.73521
6.7284
6.71963
6.73877
6.81962
6.80821
6.82351
6.81833
6.81077
6.72947
6.73194
6.72168
6.74462
6.75258
6.73184
6.72467
6.74778
6.75502
6.82325
6.81094
6.79564
6.81006
6.82264
6.81329
6.80482
6.81829
6.78109
6.78632
6.84298
6.79195
6.82183
6.84701
6.82109
6.87014
6.81207
6.85733
6.89529
6.804
6.87659
6.79543
6.79402
6.77492
6.78932
6.77538
6.77365
6.78882
6.77515
6.75547
6.76175
6.76023
6.75499
6.7499
6.79007
6.78077
6.77687
6.78407
6.79862
6.76912
6.7918
6.79996
6.7962
6.77906
6.79227
6.81631
6.81131
6.82179
6.79815
6.80865
6.81078
6.81809
6.82513
6.82101
6.77516
6.76883
6.76732
6.77874
6.77971
6.77896
6.8258
6.8289
6.82465
6.82198
6.82538
6.72233
6.74188
6.72457
6.72723
6.74679
6.81562
6.81152
6.82102
6.81323
6.81066
6.73594
6.74489
6.72469
6.75126
6.75683
6.73702
6.72583
6.75701
6.75602
6.8142
6.81268
6.81049
6.8073
6.80759
6.80483
6.80808
6.81328
6.78735
6.78545
6.84373
6.87865
6.81505
6.8515
6.89324
6.86944
6.8442
6.85238
6.84228
6.91573
6.82947
6.79316
6.79592
6.77472
6.78903
6.77621
6.77769
6.79151
6.77904
6.76061
6.74565
6.77015
6.76751
6.75434
6.77775
6.77447
6.78914
6.79401
6.79729
6.78308
6.79366
6.79986
6.80152
6.78052
6.79851
6.80172
6.80517
6.81309
6.78556
6.79581
6.79673
6.80699
6.81593
6.81046
6.781
6.78552
6.78061
6.78704
6.79674
6.78935
6.81836
6.82052
6.81572
6.81475
6.81644
6.7413
6.75685
6.76629
6.76255
6.77184
6.81013
6.80957
6.81644
6.80738
6.8079
6.75763
6.77222
6.73232
6.76726
6.75329
6.76243
6.74903
6.78209
6.75955
6.80392
6.80072
6.80472
6.80539
6.80289
6.79778
6.80265
6.81041
6.78679
6.79112
6.83746
6.86102
6.79051
6.81689
6.83254
6.82334
6.91781
6.82478
6.81062
6.85806
6.8118
6.8008
6.80728
6.78443
6.79558
6.78406
6.79417
6.80182
6.79141
6.77493
6.76553
6.78522
6.78433
6.77636
6.7763
6.78036
6.79895
6.80531
6.80659
6.77807
6.80463
6.80542
6.81272
6.78414
6.80851
6.79125
6.78817
6.80235
6.77805
6.78929
6.78098
6.79997
6.80568
6.80276
6.80182
6.80936
6.80434
6.8143
6.81741
6.81047
6.8112
6.81181
6.80853
6.80825
6.80835
6.77928
6.78539
6.79866
6.78721
6.79247
6.80428
6.80665
6.81149
6.80255
6.80573
6.78563
6.79388
6.76442
6.79517
6.7735
6.78727
6.77559
6.80476
6.78905
6.80175
6.79418
6.80063
6.80055
6.80032
6.79081
6.79929
6.80699
6.80326
6.81684
6.8088
6.8216
6.78295
6.80245
6.81825
6.8078
6.82459
6.79562
6.80541
6.81037
6.80389
6.81515
6.82413
6.80857
6.81073
6.80206
6.82409
6.82028
6.81415
6.79461
6.78807
6.80838
6.80449
6.80044
6.78679
6.79528
6.8162
6.82339
6.81744
6.79717
6.80881
6.81817
6.81918
6.81165
6.81481
6.79086
6.77673
6.80081
6.77965
6.79599
6.77634
6.80404
6.80123
6.80217
6.82129
6.82412
6.81228
6.82412
6.82347
6.80859
6.80576
6.8057
6.80447
6.8049
6.80407
6.78451
6.79406
6.78334
6.77595
6.79262
6.80123
6.80475
6.80795
6.8022
6.80583
6.79693
6.79674
6.78651
6.80737
6.79813
6.79484
6.79745
6.80256
6.802
6.79894
6.78848
6.7985
6.79791
6.79991
6.78934
6.79962
6.80653
6.82899
6.82917
6.80523
6.82125
6.79019
6.8062
6.82477
6.80725
6.80526
6.79017
6.81059
6.80551
6.80574
6.83349
6.84141
6.83729
6.83094
6.82649
6.8502
6.84514
6.84023
6.8137
6.81154
6.83094
6.82373
6.82204
6.80469
6.81487
6.82697
6.83089
6.82404
6.82486
6.82073
6.83896
6.8263
6.83264
6.82185
6.80276
6.77897
6.80851
6.79603
6.80972
6.78325
6.81226
6.80463
6.80901
6.81881
6.80543
6.80267
6.82121
6.794
6.79694
6.8049
6.8043
6.80723
6.80881
6.80732
6.77727
6.792
6.78141
6.79285
6.79716
6.80529
6.80885
6.8122
6.81046
6.81323
6.79492
6.79352
6.79708
6.79824
6.80049
6.79169
6.79492
6.79548
6.79636
6.80346
6.79157
6.80122
6.80233
6.80474
6.79235
6.80338
6.81146
6.82223
6.81231
6.81024
6.83084
6.79689
6.81054
6.83277
6.81627
6.80786
6.79654
6.81774
6.80878
6.81367
6.85448
6.86888
6.86147
6.86179
6.8542
6.87173
6.87891
6.86864
6.83373
6.83241
6.85182
6.84095
6.84004
6.8256
6.83402
6.84516
6.84852
6.83595
6.83998
6.81883
6.85895
6.85986
6.84802
6.82523
6.81646
6.78738
6.81579
6.81926
6.82462
6.79679
6.82235
6.81659
6.82918
6.85141
6.80255
6.81748
6.87226
6.78159
6.82574
6.81479
6.81522
6.82206
6.82212
6.82466
6.80556
6.80364
6.80266
6.80149
6.80385
6.81717
6.81963
6.8228
6.82368
6.82505
6.79262
6.78925
6.78776
6.79103
6.78551
6.78331
6.78112
6.78199
6.77267
6.8073
6.79721
6.80653
6.80198
6.80962
6.79967
6.80951
6.81717
6.79617
6.77886
6.80675
6.82582
6.77925
6.79798
6.81415
6.8182
6.80712
6.79245
6.81448
6.8017
6.81803
6.89641
6.91953
6.88468
6.90796
6.88679
6.90805
6.93796
6.91256
6.84531
6.84469
6.86449
6.84168
6.84559
6.84044
6.84346
6.8658
6.90323
6.88003
6.87525
6.8534
6.89166
6.90025
6.907
6.88057
6.83271
6.81109
6.83221
6.83137
6.83813
6.82378
6.8393
6.84626
6.86154
6.86565
6.82222
6.80972
6.85825
6.89414
6.8265
6.83279
6.83567
6.84445
6.83902
6.84488
6.81495
6.80377
6.89151
6.83309
6.80152
6.82846
6.82915
6.82673
6.83031
6.82948
6.78561
6.78102
6.77105
6.76991
6.76019
6.7684
6.76258
6.75882
6.75382
6.81
6.79984
6.80897
6.79711
6.80713
6.79713
6.80635
6.81712
6.76514
6.75583
6.7847
6.79745
6.75807
6.77042
6.77978
6.8071
6.79176
6.77446
6.79658
6.78039
6.80807
6.91378
6.88303
6.91916