/*--------------------------------*- C++ -*----------------------------------*\
| =========                 |                                                 |
| \\      /  F ield         | OpenFOAM: The Open Source CFD Toolbox           |
|  \\    /   O peration     | Version:  5.x                                   |
|   \\  /    A nd           | Web:      www.OpenFOAM.org                      |
|    \\/     M anipulation  |                                                 |
\*---------------------------------------------------------------------------*/
FoamFile
{
    version     2.0;
    format      ascii;
    class       volScalarField;
    location    "7.8";
    object      p;
}
// * * * * * * * * * * * * * * * * * * * * * * * * * * * * * * * * * * * * * //

dimensions      [0 2 -2 0 0 0 0];

internalField   nonuniform List<scalar> 
10571
(
232.187
194.003
223.243
225.711
295.643
169.026
141.698
166.549
230.023
278.865
147.076
99.9935
114.336
149.023
189.408
238.058
103.849
105.448
169.766
201.771
216.421
147.804
214.404
213.282
152.447
54.5795
38.493
122.045
171.978
73.9988
83.1086
130.571
140.301
180.836
46.9324
73.0249
90.2985
127.404
141.477
172.106
74.9902
41.8222
77.7319
161.027
165.286
32.065
48.627
120.621
39.5247
24.5193
28.7607
27.5938
78.5605
18.7064
40.0438
34.0967
50.8613
97.841
18.7424
30.6501
21.9253
20.1306
23.3816
81.1548
14.8939
10.7276
15.9036
51.629
68.878
15.8089
12.9273
21.3116
25.1348
14.4904
22.8532
25.1594
33.2518
16.5418
12.8824
12.2056
13.5983
37.638
14.3241
13.3501
9.36765
10.8876
12.0124
14.8466
13.6547
12.9844
12.5304
13.212
13.9148
12.8962
12.8983
13.0464
13.3108
13.557
13.1733
12.7006
14.2
13.0803
12.936
13.5591
13.1728
13.6673
13.6481
13.1162
14.2272
14.0466
13.487
13.6181
13.4727
13.3426
13.3709
13.2792
13.4478
12.921
13.6247
12.9978
13.2659
13.3993
13.422
13.2975
13.2425
13.4645
13.583
13.4038
13.3406
13.2587
13.278
13.5333
13.4191
13.6798
13.3943
13.0631
13.2476
13.2157
13.4256
13.1745
13.0425
13.2509
13.2897
13.2112
12.7469
13.0704
13.2826
13.3038
13.3164
13.3029
13.2614
13.3278
13.3055
13.3159
13.2653
13.2428
13.2404
13.4381
13.3976
13.283
13.251
13.2104
13.2249
13.2321
13.4355
13.2027
13.1523
13.217
13.2575
13.2358
13.2857
13.0938
13.0881
13.2695
13.2592
13.2706
13.2748
13.2696
13.2887
13.1774
13.2611
13.2593
13.2488
13.242
13.3638
13.3289
13.2443
13.2986
13.2154
13.2335
13.2195
13.3701
13.2849
13.208
13.2611
13.2774
13.2358
13.3366
13.2016
13.273
13.287
13.2451
13.2319
13.2676
13.2609
13.3021
13.1188
13.2042
13.2266
13.2521
13.2401
13.3518
13.3191
13.2563
13.278
13.2298
13.2469
13.2349
13.3433
13.309
13.2788
13.3002
13.3018
13.3633
13.3352
13.5097
13.2892
13.2793
13.2469
13.2684
13.256
13.3344
13.1849
13.1584
13.2518
13.2714
13.3687
13.3363
13.2742
13.2651
13.2761
13.2968
13.3544
13.3089
13.3813
13.3213
13.3229
13.3513
13.4043
13.3756
13.2972
13.3703
13.3104
13.2848
13.2689
13.3838
13.2987
13.1836
13.2843
13.3109
13.3823
13.3558
13.3061
13.3147
13.3179
13.3287
13.3946
13.3676
13.4789
13.3759
13.3648
13.3603
13.4793
13.4249
13.3123
13.4653
13.3807
13.303
13.2883
13.4438
13.3861
13.2664
13.3261
13.3514
13.4162
13.3851
13.366
13.3718
13.3529
13.3664
13.4421
13.4265
13.47
13.4125
13.3937
13.3715
13.4753
13.4057
13.3328
13.5249
13.4011
13.3119
13.3068
13.4447
13.4112
13.3026
13.3527
13.3823
13.4016
13.3766
13.4038
13.3892
13.3827
13.3922
13.4713
13.4311
13.4598
13.4309
13.4141
13.3552
13.5223
13.4522
13.3365
13.4707
13.3794
13.3146
13.3235
13.4231
13.3444
13.2627
13.3582
13.3895
13.3509
13.3471
13.3693
13.3792
13.4085
13.4047
13.4473
13.4389
13.5071
13.4492
13.4233
13.421
13.8203
13.5279
13.3312
13.3719
13.34
13.316
13.3344
13.3339
13.2754
13.2556
13.3588
13.3793
13.2766
13.2658
13.3161
13.3448
13.4242
13.4041
13.4069
13.4383
13.4412
13.4373
13.4173
13.4522
13.4039
13.463
13.3241
13.2818
13.3021
13.3129
13.334
13.2209
13.2428
13.2865
13.3508
13.3644
13.2137
13.2119
13.2895
13.354
13.4121
13.3885
13.3802
13.4081
13.3642
13.4073
13.3977
13.4462
13.2652
13.4043
13.32
13.2165
13.2746
13.3085
13.3263
13.1441
13.237
13.2984
13.3358
13.3537
13.1904
13.1842
13.2919
13.3596
13.3722
13.3717
13.3698
13.3989
13.3145
13.3653
13.3649
13.4278
13.2927
13.3526
13.314
13.1898
13.2563
13.3043
13.3145
13.1554
13.2556
13.2848
13.3146
13.336
13.214
13.1977
13.2839
13.336
13.3247
13.3431
13.3766
13.434
13.2685
13.317
13.3199
13.4096
13.2374
13.3084
13.3022
13.1676
13.2499
13.2946
13.3019
13.1549
13.2752
13.2633
13.294
13.3157
13.2323
13.2133
13.2729
13.3085
13.2869
13.3131
13.386
13.4521
13.2324
13.2732
13.2849
13.3987
13.181
13.2719
13.2894
13.1796
13.2584
13.2812
13.2898
13.1395
13.2814
13.2446
13.2776
13.2968
13.2513
13.2277
13.2466
13.2714
13.2844
13.3031
13.336
13.3624
13.2166
13.2525
13.2758
13.3878
13.2112
13.2537
13.2763
13.2523
13.2754
13.2696
13.2773
13.1747
13.2795
13.2318
13.2635
13.2794
13.2902
13.2493
13.2235
13.2515
13.2949
13.2989
13.2537
13.2515
13.2004
13.2592
13.2843
13.3476
13.2555
13.2766
13.2569
13.3397
13.2918
13.251
13.2607
13.2995
13.266
13.2227
13.2468
13.2609
13.3487
13.2771
13.232
13.2557
13.2834
13.2796
13.1866
13.2086
13.1867
13.2498
13.2759
13.3205
13.2623
13.2908
13.2292
13.3978
13.2799
13.2241
13.2362
13.4395
13.2302
13.215
13.2286
13.2414
13.3901
13.2877
13.2574
13.2686
13.2671
13.2587
13.1557
13.2108
13.1793
13.2226
13.2544
13.2901
13.2277
13.1991
13.1866
13.386
13.2335
13.1754
13.2034
13.516
13.1908
13.2095
13.2109
13.2181
13.3628
13.277
13.2858
13.2836
13.2545
13.2411
13.1465
13.2026
13.1726
13.2187
13.2395
13.2659
13.2135
13.1885
13.1328
13.3525
13.1882
13.1087
13.1482
13.5768
13.1583
13.1867
13.1806
13.1883
13.2999
13.2519
13.2893
13.2824
13.235
13.2182
13.1491
13.1769
13.2011
13.2235
13.23
13.2428
13.2724
13.2682
13.0956
13.2653
13.1491
13.0599
13.0758
13.4151
13.134
13.1423
13.1307
13.1472
13.2066
13.2126
13.2576
13.2469
13.197
13.1797
13.1533
13.1297
13.2499
13.2119
13.2054
13.2462
13.3307
13.282
13.0539
13.007
13.0332
13.0385
13.0039
13.0324
13.1388
13.0743
13.0613
13.0879
13.053
13.1073
13.2126
13.1591
13.1311
13.1249
13.1513
13.1104
13.2299
13.178
13.1648
13.262
13.295
13.2282
12.9385
12.6103
12.7302
12.9855
12.9481
12.6334
13.0801
12.9879
12.9729
13.0091
12.8831
12.9503
13.1006
13.0488
13.0415
13.0525
13.0955
13.071
13.1404
13.1169
13.1034
13.1817
13.18
13.1405
12.7396
12.1925
12.2094
12.755
12.842
12.4036
12.8566
12.8548
12.8664
12.9161
12.7403
12.8159
12.9373
12.9267
12.936
12.966
13.0081
12.9995
13.0083
13.0313
13.0187
12.9907
13.0209
13.0359
12.537
11.9026
11.449
12.4934
12.7238
12.2847
12.5436
12.6746
12.7498
12.821
12.6579
12.7119
12.7559
12.7928
12.8305
12.875
12.9123
12.8927
12.8523
12.9292
12.9211
12.8197
12.8734
12.9336
12.4329
11.9496
11.1867
12.3505
12.6426
12.1792
12.2339
12.4935
12.6388
12.7387
12.6277
12.5868
12.5443
12.6554
12.7513
12.7982
12.7914
12.7282
12.7244
12.8319
12.8375
12.7602
12.7735
12.8479
12.4791
12.2785
11.604
12.3784
12.6321
12.1625
12.0079
12.3595
12.5838
12.7019
12.5838
12.4628
12.3424
12.5475
12.7044
12.7571
12.6726
12.5853
12.6539
12.7643
12.79
12.7372
12.7221
12.7912
12.6424
12.7758
12.2988
12.5371
12.7049
12.3358
11.9065
12.344
12.6182
12.7353
12.5546
12.4151
12.2158
12.5042
12.7186
12.7706
12.5481
12.4662
12.647
12.7429
12.7933
12.6663
12.7055
12.768
12.8642
13.277
12.981
12.7649
12.8384
12.5954
11.9974
12.473
12.7508
12.8474
12.5649
12.4007
12.1798
12.5226
12.8021
12.8434
12.429
12.3512
12.6864
12.7733
12.845
12.5937
12.7142
12.7835
13.0761
13.5558
13.256
13.0042
12.9841
12.9406
12.2808
12.6965
12.9386
12.9918
12.5799
12.4015
12.2799
12.5881
12.9295
12.9643
12.2518
12.2837
12.7665
12.8615
12.9345
12.5651
12.757
12.8545
13.2479
13.5692
13.3345
13.2117
13.1346
13.1303
12.586
12.9577
13.1326
13.1481
12.7378
12.4711
12.4756
12.7244
13.0757
13.0948
12.2155
12.4628
12.9043
13.0028
13.0661
12.6231
12.8746
12.9879
13.3853
13.6443
13.4806
13.368
13.298
13.3997
13.0655
13.2301
13.3137
13.2926
13.0725
12.5245
12.751
12.9713
13.2328
13.237
12.3631
12.7999
13.1178
13.1729
13.2163
12.8511
13.0627
13.157
13.5045
13.6495
13.5691
13.4926
13.4445
13.6288
13.5908
13.4414
13.4575
13.422
13.2449
13.0392
13.0497
13.2349
13.3913
13.3763
12.5239
13.1522
13.3475
13.3493
13.3667
13.1162
13.2819
13.3426
13.6173
13.7048
13.6594
13.6037
13.5637
13.6327
13.7559
13.5797
13.569
13.5351
13.3244
13.4637
13.4311
13.4957
13.5383
13.5032
13.1717
13.5005
13.5435
13.5097
13.5051
13.4312
13.5061
13.5186
13.7157
13.8057
13.7531
13.6977
13.6605
13.7669
13.8256
13.6937
13.658
13.6304
13.8051
13.9634
13.8395
13.711
13.6525
13.6071
13.7882
13.7363
13.6711
13.6313
13.6153
13.6964
13.6753
13.6569
13.7893
13.8975
13.826
13.7683
13.7383
13.9404
13.8747
13.7685
13.7254
13.7061
14.1684
14.2092
13.9467
13.788
13.7188
13.6845
14.0336
13.8201
13.7463
13.6972
13.6942
13.822
13.7609
13.7331
13.8415
13.944
13.8729
13.8238
13.7972
13.9917
13.8929
13.8139
13.7773
13.7644
14.1741
14.1291
13.9258
13.8179
13.7491
13.7431
14.0344
13.8604
13.7938
13.7089
13.7314
13.8548
13.7974
13.751
13.8707
13.9587
13.8958
13.8539
13.8323
13.9859
13.898
13.8409
13.8177
13.8062
14.0947
14.0512
13.91
13.8412
13.7955
13.7905
14.0032
13.8784
13.8153
13.7523
13.7799
13.8727
13.8332
13.7876
13.8759
13.9582
13.9087
13.8638
13.8409
13.9659
13.9001
13.8593
13.8432
13.8393
14.0229
13.9911
13.9024
13.8628
13.8416
13.8281
13.9679
13.8797
13.846
13.8352
13.8387
13.8937
13.9047
13.8867
13.8754
13.9535
13.9211
13.8627
13.8439
13.948
13.904
13.8713
13.8551
13.8624
13.9769
13.9541
13.9026
13.8716
13.8578
13.8504
13.9361
13.8807
13.8747
13.8649
13.8671
13.9066
13.9336
13.888
13.8915
13.9486
13.93
13.8809
13.8674
13.9369
13.9111
13.8741
13.8614
13.8754
13.9543
13.9341
13.9044
13.869
13.872
13.8688
13.9152
13.8762
13.8646
13.8604
13.8763
13.898
13.8758
13.8726
13.9056
13.9434
13.9296
13.8976
13.8797
13.9309
13.9093
13.8738
13.8658
13.8818
13.9458
13.9267
13.9189
13.8705
13.8843
13.888
13.915
13.8795
13.8535
13.8621
13.8886
13.8902
13.8178
13.873
13.9046
13.9357
13.9198
13.8967
13.8849
13.9227
13.8981
13.8688
13.8671
13.8921
13.9388
13.9229
13.9307
13.8798
13.8897
13.903
13.9264
13.9001
13.8649
13.8692
13.9012
13.9175
13.8554
13.8809
13.8977
13.9244
13.9091
13.8909
13.8839
13.9115
13.8824
13.871
13.8711
13.9007
13.9305
13.9115
13.9206
13.884
13.8896
13.912
13.9284
13.9157
13.8771
13.8786
13.906
13.9502
13.9096
13.8926
13.8899
13.913
13.9006
13.8902
13.884
13.8996
13.8874
13.8798
13.8724
13.8983
13.9208
13.9002
13.9018
13.8818
13.8896
13.912
13.9181
13.9089
13.8782
13.8866
13.9039
13.9294
13.9058
13.8949
13.8909
13.9067
13.8945
13.8809
13.8909
13.8885
13.8856
13.8902
13.8904
13.8928
13.912
13.8923
13.8878
13.8819
13.8943
13.9024
13.9085
13.9007
13.8789
13.8935
13.9031
13.9127
13.8966
13.8959
13.8971
13.9042
13.8913
13.8852
13.896
13.8772
13.8766
13.8884
13.915
13.8975
13.9049
13.8884
13.8828
13.8829
13.8946
13.8895
13.9036
13.8958
13.8808
13.8967
13.8987
13.9059
13.8945
13.8979
13.9043
13.9016
13.8898
13.8917
13.8942
13.8717
13.8681
13.8804
13.9042
13.8938
13.899
13.8842
13.8793
13.8788
13.8842
13.8798
13.8992
13.8897
13.8756
13.8866
13.8903
13.8967
13.8918
13.8968
13.9093
13.8971
13.8899
13.8999
13.887
13.8679
13.8562
13.8767
13.8779
13.8772
13.8937
13.8775
13.8732
13.8668
13.8621
13.868
13.8931
13.8809
13.8654
13.8682
13.8735
13.8888
13.885
13.8824
13.9014
13.8921
13.8887
13.8884
13.8765
13.8707
13.8564
13.8701
13.8566
13.8557
13.8918
13.8714
13.8644
13.8545
13.8423
13.8487
13.8864
13.8705
13.8568
13.8493
13.8543
13.8792
13.8715
13.8626
13.8876
13.8872
13.8828
13.8754
13.8664
13.8756
13.8617
13.8544
13.8371
13.8313
13.8918
13.8698
13.8537
13.8437
13.8218
13.8282
13.8838
13.8637
13.8436
13.8277
13.8325
13.869
13.8574
13.8421
13.8792
13.8871
13.8771
13.8701
13.8597
13.8842
13.8671
13.8415
13.8216
13.813
13.8925
13.8785
13.8454
13.8304
13.8002
13.8021
13.8851
13.8624
13.8261
13.8088
13.8059
13.8609
13.8428
13.8229
13.8813
13.8932
13.8771
13.871
13.8596
13.8918
13.8662
13.8343
13.8062
13.7956
13.8972
13.8866
13.8436
13.8133
13.7771
13.7684
13.8891
13.8638
13.8118
13.7875
13.7706
13.8589
13.8328
13.8038
13.8998
13.9088
13.8825
13.8797
13.8719
13.9047
13.8599
13.8252
13.7724
13.7673
13.909
13.8979
13.8554
13.7936
13.7304
13.706
13.9002
13.8665
13.7986
13.7508
13.7181
13.8621
13.8269
13.785
13.9382
13.9344
13.898
13.8993
13.9014
13.9242
13.847
13.8034
13.7104
13.7003
13.9329
13.918
13.8802
13.7676
13.6332
13.5576
13.9203
13.8836
13.7896
13.7047
13.6222
13.8786
13.8248
13.7643
13.9936
13.9749
13.922
13.9193
13.9522
13.9564
13.8451
13.7483
13.5436
13.5455
13.9713
13.9509
13.8921
13.7312
13.4675
13.1861
13.9533
13.9174
13.7824
13.621
13.4239
13.9076
13.8306
13.7417
14.0232
14.0531
13.9451
13.8623
13.9082
14.0163
13.855
13.6289
13.2403
13.0652
14.0251
14.0017
13.8993
13.6706
13.2312
12.2748
14.0005
13.9611
13.7859
13.5219
13.0063
13.9492
13.853
13.7294
13.9351
14.2212
13.9974
13.6097
13.687
14.1256
13.87
13.4285
12.6593
10.9287
14.0958
14.0622
13.9292
13.5738
12.9497
10.8946
-8.45592
14.0657
14.0168
13.8001
13.4041
12.0285
14.0071
13.8951
13.741
13.9129
14.4667
14.1385
13.5606
13.3601
14.2654
13.9223
13.3552
12.2638
8.18853
0.295388
14.2008
14.1529
13.9746
13.5929
12.8024
10.1232
0.979015
14.1502
14.0899
13.8546
13.3445
10.7848
14.0779
13.9655
13.8091
13.9167
14.5099
14.309
13.6626
13.3098
14.3243
14.0007
13.4363
12.5672
8.58683
1.6415
14.3179
14.2574
14.0412
13.7115
13.0413
10.2175
2.56998
14.2519
14.1844
13.9638
13.5471
11.5618
3.74111
14.1675
14.0617
13.9574
13.8866
14.3894
14.1773
13.6842
13.6261
14.2653
14.1301
13.6587
13.2495
10.3618
2.12979
14.4417
14.3671
14.1124
13.8297
13.4666
11.0282
2.54266
14.3665
14.2644
14.1157
13.7623
12.7011
14.2583
14.168
14.1266
13.9048
14.2834
14.0784
13.7244
13.9843
14.4791
14.2526
13.8812
13.7531
12.3545
14.6081
14.4913
14.1587
13.9679
13.8862
12.2908
-3.73149
14.4882
14.3046
14.2535
14.0649
14.0625
14.332
14.2541
14.2582
13.9761
14.2614
14.0028
13.7474
14.1549
14.5088
14.1147
13.9203
14.1307
14.1402
14.7409
14.5929
14.209
14.144
14.2592
14.0107
14.6092
14.3117
14.327
14.2612
14.3571
14.3904
14.3195
14.3592
14.0717
14.2351
13.958
13.8258
14.2043
14.3847
13.937
13.8692
14.2356
14.3919
14.6956
14.5803
14.1113
14.1751
14.3451
14.3633
14.5927
14.2422
14.3222
14.3477
14.4429
14.3962
14.3476
14.3968
14.1641
14.2212
13.9608
13.9661
14.2323
14.2549
13.8062
13.8645
14.2658
14.3973
14.4704
14.3249
13.8898
14.0853
14.3616
14.4228
14.3861
14.0661
14.2628
14.3495
14.4345
14.3035
14.3215
14.3861
14.2404
14.2352
14.0276
14.0805
14.2682
14.198
13.8252
13.9628
14.2805
14.3764
14.3067
14.1468
13.7005
14.0123
14.338
14.4031
14.1544
13.8096
14.2063
14.3401
14.407
14.0825
14.2566
14.363
14.2997
14.2939
14.1356
14.163
14.3088
14.2312
13.9538
14.0916
14.3105
14.3892
14.2522
14.1031
13.7584
14.0736
14.3509
14.4028
13.9868
13.6768
14.2006
14.3365
14.4093
13.8223
14.2207
14.3585
14.3628
14.4031
14.2628
14.2336
14.3546
14.3275
14.097
14.2015
14.3492
14.4157
14.293
14.1586
13.9401
14.211
14.3887
14.4215
14.0001
13.8306
14.2527
14.3779
14.433
13.8084
14.2684
14.3926
14.4378
14.5154
14.3729
14.317
14.4135
14.4473
14.2662
14.255
14.3569
14.4471
14.3838
14.2769
14.1191
14.2198
14.3787
14.4526
14.133
14.0102
14.2604
14.4237
14.471
14.0461
14.4045
14.4672
14.4942
14.548
14.4234
14.3639
14.4472
14.5018
14.3336
14.3007
14.3823
14.4873
14.4729
14.3627
14.2159
14.2766
14.3936
14.4686
14.255
14.119
14.3679
14.461
14.5009
14.2992
14.572
14.5417
285.006
254.517
292.655
279.316
262.194
297.36
330.83
335.568
241.621
263.644
291.501
241.61
244.868
286.282
262.657
249.501
223.538
266.37
312.734
222.753
264.348
345.488
338.168
319.277
338.656
321.553
249.776
228.715
242.193
225.876
215.885
200.048
161.026
204.881
181.351
151.521
156.8
188.315
223.262
166.405
189.066
282.246
313.367
230.905
266.637
309.728
283.648
268.974
209.328
201.876
144.278
130.388
117.147
107.431
111.97
132.635
148.76
124.937
147.839
160.555
179.019
165.098
183.095
204.878
235.965
200.282
220.645
256.063
253.746
235.381
125.985
113.333
105.433
130.622
138.533
135.895
186.657
165.284
215.675
192.031
193.769
234.916
222.663
205.483
218.917
221.024
217.049
224.303
174.821
223.503
266.531
268.995
275.665
254.277
275.051
233.68
224.501
128.401
227.725
239.304
234.956
206.085
153.851
188.393
241.936
272.627
216.428
205.762
214.126
291.232
225.448
189.528
123.238
204.197
179.936
159.44
115.905
106.989
122.913
111.573
298.911
272.523
297.764
230.308
239.347
216.131
239.68
287.482
237.193
192.068
178.549
182.314
118.613
103.771
105.39
256.45
250.537
231.28
218.988
215.677
124.995
107.115
91.4825
85.6323
88.5414
240.841
223.862
210.515
213.789
203.847
105.037
90.9019
95.8044
107.31
105.91
95.6746
86.902
91.6605
86.5055
210.737
209.324
210.758
195.008
200.499
194.302
201.373
201.401
123.922
86.8984
184.711
187.461
84.2508
91.6823
69.9643
219.471
204.28
125.762
156.554
101.851
182.133
50.5101
33.2545
117.618
51.5134
79.9322
46.044
34.5275
37.4269
136.376
153.673
71.2157
61.9641
97.1446
165.227
114.396
65.9556
28.5642
40.3808
68.6755
77.8871
30.2705
28.4975
29.6784
37.2452
182.552
168.98
184.408
121.228
132.369
122.931
136.098
184.932
137.341
51.9867
33.2272
40.672
22.8482
22.2518
22.0243
174.786
172.004
136.035
133.17
133.431
59.5145
67.6544
23.5377
28.1195
27.4899
170.918
168.222
128.919
130.071
124.005
67.4678
25.9275
76.36
66.7512
69.297
45.8986
69.2451
26.0236
44.0348
168.422
142.935
161.805
101.899
114.593
84.9959
102.617
117.495
56.6172
29.1231
26.7409
25.578
18.7931
17.1896
18.6907
90.7726
32.1247
18.989
39.6325
18.0508
65.8164
29.9393
25.4398
32.9311
33.0714
33.0325
30.8344
28.9641
31.3705
38.3391
55.3432
32.4723
32.8282
38.6972
74.4378
48.3984
19.3722
17.7401
28.101
20.1168
21.4569
20.5762
25.6947
18.8299
21.6358
91.6064
82.6783
95.7083
48.4012
61.3405
50.862
63.5859
98.3661
67.5586
18.9951
19.9981
18.741
18.6744
18.707
18.4824
91.9223
94.4986
65.5346
53.1009
55.5362
17.1769
14.2367
17.3141
15.9828
14.3061
85.8924
75.4687
38.9103
45.6029
34.5927
14.337
13.1791
32.6943
13.6117
15.1089
11.3722
9.16268
12.0602
11.1477
64.5974
34.4527
45.0598
19.6526
27.9358
16.6313
21.904
32.7519
16.4027
12.5831
14.928
15.9486
14.0485
13.7369
13.7521
14.7911
14.2203
12.6494
12.4393
13.384
13.5024
16.2928
12.7146
23.9312
19.5158
24.1703
14.313
12.7258
13.0303
26.0146
28.9994
16.5201
15.9296
19.4562
33.2215
22.4775
15.3195
14.0532
17.523
15.0454
18.1072
13.1504
12.6034
13.2693
12.8677
39.7095
26.6029
38.6237
20.8786
25.3474
13.9235
21.8505
41.7592
24.6254
15.1877
15.0419
15.4163
13.6645
13.7261
13.4015
22.7234
24.987
18.2528
13.6986
13.9091
14.6099
14.5967
13.6375
13.7034
14.25
18.2342
13.844
12.785
12.8387
12.8549
14.4016
14.4184
13.4575
13.2763
13.0513
13.7745
15.1097
13.4014
13.3101
13.4534
13.2826
13.9705
13.199
12.9889
12.9046
12.8786
12.9581
13.0166
13.1559
13.2628
13.1565
12.711
13.3315
13.2474
12.7728
13.0606
13.231
12.9116
13.1187
13.0592
13.4506
13.305
13.2767
13.4931
13.3757
13.4226
13.2559
13.3735
13.0913
14.2775
13.2957
13.2838
13.22
16.2676
13.6237
13.7464
13.6167
13.4199
13.4511
12.8824
13.4993
13.4599
13.5065
13.3604
17.143
13.1821
14.2574
13.2636
13.7836
13.2128
13.2288
15.9801
13.4164
13.6849
13.6784
13.3748
13.6771
13.7226
13.555
13.4557
13.4764
13.2268
13.272
13.2136
13.5671
13.8699
13.5961
13.558
13.6773
13.616
13.5549
13.1875
13.1447
13.1711
13.9752
13.7354
14.1261
13.3846
13.2768
13.3928
13.535
13.4396
13.3273
13.3693
13.0435
13.2923
13.1842
13.0894
13.0402
13.0813
13.1606
13.2693
13.3458
13.4379
13.2522
13.119
13.1926
13.1433
13.008
13.2492
13.2496
12.8776
13.0301
12.9805
13.2849
13.3339
13.2639
13.2634
13.2459
13.3691
13.3331
13.3715
13.2419
13.2261
13.2957
13.273
13.2548
13.2211
13.25
13.5311
13.4436
13.3268
13.4582
13.4048
13.3441
13.3114
13.3725
13.3308
13.245
13.1572
13.2249
13.254
13.2459
13.2015
13.2267
13.2242
13.2128
13.618
13.6829
13.5711
13.5225
13.6112
13.5025
13.2687
13.2936
13.2473
13.2223
13.2386
13.2208
13.2319
13.203
13.2039
13.2425
13.2362
13.2606
13.2406
13.2483
13.514
13.6241
13.4877
13.4627
13.5969
13.2063
13.2609
13.2079
13.2232
13.2002
13.2299
13.1914
13.2587
13.2441
13.2284
13.2355
13.2528
13.2339
13.2316
13.6443
13.5868
13.4647
13.4979
13.3886
13.4441
13.4728
13.5318
13.4328
13.2584
13.0806
13.1592
13.2063
13.1701
13.041
13.0987
13.2266
13.3574
13.3739
12.9887
13.0603
13.2574
13.0973
13.1365
12.872
12.8454
12.9168
12.9675
12.9147
13.0801
13.2943
13.2795
13.2813
13.278
13.278
13.2838
13.2871
13.2873
13.2771
13.2669
13.2733
13.2714
13.2768
13.2628
13.2711
13.3734
13.3276
13.2902
13.3112
13.2853
13.2765
13.2658
13.2743
13.2572
13.2593
13.2286
13.2504
13.267
13.2685
13.2545
13.2619
13.2356
13.2387
13.2518
13.2466
13.2422
13.2537
13.2476
13.2571
13.4324
13.5421
13.4323
13.3724
13.4862
13.3839
13.2331
13.2362
13.2319
13.2499
13.2374
13.2272
13.2284
13.2508
13.2374
13.2468
13.2436
13.2527
13.2365
13.2452
13.4142
13.5629
13.3931
13.3715
13.5107
13.2185
13.2462
13.2076
13.232
13.2251
13.2379
13.227
13.2374
13.2337
13.2343
13.2276
13.2381
13.2284
13.2353
13.5351
13.4782
13.4356
13.5293
13.4638
13.4046
13.3907
13.4974
13.479
13.2131
13.0496
13.1377
13.2302
13.2256
13.0915
13.1507
13.2212
13.2687
13.238
13.2345
13.2358
13.2363
13.399
13.4267
13.1997
13.2421
13.3121
13.262
13.2935
13.079
13.089
13.1657
13.1629
13.2052
13.1334
13.2672
13.2512
13.2861
13.2821
13.2796
13.2861
13.27
13.2736
13.2675
13.2806
13.2781
13.2698
13.2784
13.2767
13.2766
13.3027
13.2891
13.2433
13.2546
13.2331
13.2481
13.2233
13.2504
13.2138
13.2743
13.266
13.27
13.2692
13.2754
13.2709
13.2734
13.2579
13.2475
13.2637
13.2489
13.2459
13.2557
13.2444
13.257
13.3441
13.4464
13.3597
13.3374
13.4189
13.3527
13.2366
13.2178
13.2304
13.2483
13.2375
13.2119
13.2218
13.2532
13.2295
13.2439
13.242
13.2539
13.2233
13.2421
13.3451
13.4617
13.3527
13.3391
13.4263
13.2278
13.2376
13.2407
13.2343
13.2359
13.2443
13.251
13.2366
13.2311
13.2421
13.2194
13.2377
13.2387
13.2511
13.4271
13.3961
13.3639
13.4598
13.4769
13.3493
13.3512
13.4282
13.4606
13.2477
13.1865
13.193
13.2916
13.2538
13.3138
13.2437
13.2426
13.2667
13.2516
13.2419
13.2374
13.2475
13.4502
13.4606
13.2998
13.3199
13.3564
13.33
13.3446
13.2634
13.2566
13.2691
13.3638
13.2914
13.4689
13.2427
13.2573
13.2824
13.2583
13.2689
13.2806
13.2539
13.2734
13.2769
13.276
13.2821
13.2796
13.2759
13.2702
13.2694
13.2882
13.2994
13.2205
13.2484
13.1988
13.2546
13.238
13.2554
13.2032
13.2778
13.2683
13.2782
13.2538
13.2748
13.2683
13.2874
13.2722
13.2758
13.3428
13.4044
13.3527
13.3559
13.3955
13.3602
13.2454
13.2213
13.2406
13.2503
13.2576
13.2401
13.2629
13.2623
13.2224
13.2529
13.2463
13.2645
13.2448
13.2603
13.3375
13.3969
13.3588
13.3454
13.3768
13.2689
13.2817
13.3084
13.2641
13.2852
13.2865
13.328
13.2631
13.245
13.2688
13.2611
13.2758
13.2553
13.2711
13.3825
13.379
13.3461
13.4036
13.4331
13.3457
13.3333
13.3874
13.4033
13.2888
13.3669
13.3017
13.3036
13.3064
13.3481
13.3111
13.3067
13.4534
13.4304
13.3435
13.3613
13.3563
13.3394
13.356
13.3747
13.3286
13.3811
13.305
13.3479
13.4153
13.2862
13.3244
13.2912
13.2691
13.288
13.3027
13.2943
13.3058
13.2887
13.2779
13.2924
13.2952
13.2779
13.2745
13.2786
13.3272
13.3578
13.266
13.2897
13.2291
13.3181
13.3082
13.3352
13.2697
13.2856
13.2737
13.2952
13.2585
13.2893
13.2771
13.3004
13.2908
13.2972
13.3688
13.3941
13.3727
13.3828
13.4034
13.3875
13.2681
13.3059
13.288
13.2805
13.2609
13.3577
13.3667
13.3742
13.362
13.3646
13.3884
13.3112
13.3064
13.285
13.3302
13.3804
13.3873
13.3187
13.3832
13.3887
13.3709
13.3153
13.392
13.3901
13.3302
13.3533
13.3428
13.3465
13.3524
13.3713
13.3623
13.3484
13.4114
13.4044
13.3287
13.3311
13.3551
13.3273
13.3126
13.2808
13.3538
13.4312
13.321
13.3947
13.3837
13.3657
13.3991
13.3146
13.3304
13.3252
13.3275
13.3642
13.3414
13.3027
13.2846
13.3034
13.3114
13.2905
13.2866
13.2945
13.3941
13.4366
13.3691
13.3774
13.319
13.423
13.419
13.4079
13.3801
13.2994
13.2807
13.3068
13.2777
13.3092
13.2833
13.3133
13.311
13.3214
13.418
13.4215
13.407
13.4642
13.444
13.4287
13.3117
13.3179
13.3249
13.3268
13.3309
13.3709
13.3719
13.3998
13.3947
13.3809
13.345
13.3459
13.3484
13.3699
13.3609
13.4022
13.4206
13.3238
13.4087
13.396
13.4174
13.3355
13.4322
13.4085
13.3708
13.4001
13.3864
13.3983
13.3869
13.418
13.4026
13.3806
13.4043
13.4035
13.3481
13.3267
13.364
13.3675
13.3437
13.4398
13.4561
13.5345
13.5314
13.5028
13.4327
13.4228
13.4354
13.3362
13.3899
13.3522
13.3411
13.4012
13.3568
13.3219
13.2978
13.3236
13.3294
13.3042
13.3029
13.3103
13.4688
13.4813
13.447
13.4328
13.4426
13.5015
13.4602
13.4732
13.4732
13.3174
13.2877
13.3206
13.2973
13.3255
13.2938
13.3269
13.3372
13.351
13.4832
13.4638
13.4498
13.4703
13.4715
13.4615
13.348
13.3528
13.3687
13.3631
13.3701
13.4146
13.3807
13.4168
13.4106
13.3715
13.3841
13.378
13.3809
13.3971
13.3913
13.4367
13.4483
13.3559
13.4579
13.44
13.4696
13.3706
13.4803
13.4694
13.3987
13.4262
13.4143
13.4249
13.4085
13.434
13.4243
13.4049
13.3984
13.3949
13.3575
13.3517
13.3599
13.3276
13.3396
13.5013
13.4878
13.4077
13.4567
13.4559
13.411
13.4369
13.428
13.3507
13.4014
13.3574
13.3532
13.3938
13.3544
13.3312
13.3104
13.3358
13.333
13.3165
13.3174
13.3252
13.4936
13.5165
13.4637
13.5446
13.4786
13.5024
13.4529
13.5814
13.4734
13.3312
13.2998
13.3302
13.3154
13.3353
13.3063
13.3316
13.3596
13.3667
13.4428
13.4673
13.4533
13.4158
13.4511
13.4299
13.3759
13.3821
13.3895
13.3822
13.3876
13.3888
13.36
13.38
13.3674
13.3422
13.4063
13.4022
13.3995
13.4108
13.4089
13.4496
13.4385
13.3768
13.4975
13.4774
13.4632
13.3867
13.5109
13.4518
13.4165
13.4461
13.4334
13.4408
13.4251
13.4601
13.4424
13.4206
13.4038
13.4244
13.3395
13.3422
13.3849
13.3482
13.3733
13.4612
13.4776
13.807
13.4928
13.5992
13.4964
13.4086
13.3827
13.3506
13.3795
13.3485
13.3464
13.3631
13.3418
13.3332
13.3228
13.3345
13.3321
13.3283
13.3322
13.3377
13.5063
13.4536
13.4281
13.5347
13.4427
13.4233
13.3949
13.4545
13.4026
13.339
13.3126
13.3346
13.3304
13.3434
13.319
13.3388
13.368
13.3666
13.3931
13.4178
13.3951
13.3595
13.3759
13.3525
13.3822
13.3871
13.387
13.3795
13.3844
13.3377
13.3181
13.3144
13.3
13.2914
13.4128
13.4119
13.4064
13.4123
13.4107
13.4204
13.4025
13.4091
13.5063
13.4177
13.4263
13.4276
13.4851
13.385
13.4293
13.4695
13.4466
13.4467
13.4284
13.4652
13.4447
13.4228
13.4269
13.425
13.2895
13.3711
13.4431
13.2416
13.3568
13.5169
13.6979
13.5942
13.5066
13.7089
13.4983
13.3548
13.3268
13.3414
13.3452
13.3348
13.3353
13.3276
13.3274
13.329
13.3316
13.3271
13.3241
13.3317
13.3402
13.3396
13.3861
13.3248
13.3589
13.3822
13.3584
13.3242
13.3238
13.3238
13.3193
13.3463
13.3262
13.345
13.3354
13.3472
13.3315
13.3508
13.3623
13.3619
13.3148
13.3324
13.3098
13.2658
13.2902
13.2701
13.373
13.3785
13.3733
13.3687
13.3728
13.2648
13.2709
13.2425
13.233
13.2553
13.4089
13.4057
13.3989
13.4026
13.4021
13.3864
13.369
13.4378
13.461
13.3748
13.392
13.4328
13.4393
13.3759
13.4211
13.4488
13.4332
13.424
13.4103
13.4276
13.4193
13.408
13.4264
13.4353
13.2545
13.345
13.463
13.2829
13.3134
13.4716
13.6189
13.2935
13.4326
13.4475
13.4324
13.3005
13.278
13.3283
13.3113
13.3192
13.3187
13.2966
13.3103
13.3191
13.3293
13.322
13.3154
13.3255
13.3364
13.332
13.2681
13.2201
13.2926
13.2713
13.285
13.2451
13.2652
13.2231
13.2556
13.3452
13.3315
13.3503
13.3308
13.3406
13.33
13.3451
13.3596
13.3526
13.2213
13.2491
13.2347
13.1893
13.2142
13.2036
13.3592
13.3643
13.3604
13.3502
13.3572
13.206
13.2405
13.1939
13.1897
13.228
13.3932
13.3963
13.3811
13.3844
13.3904
13.3525
13.3372
13.4225
13.4218
13.377
13.3729
13.3989
13.4082
13.374
13.3955
13.4041
13.4008
13.3868
13.3774
13.3848
13.3818
13.3844
13.4341
13.428
13.2947
13.3051
13.4324
13.2913
13.2966
13.4047
13.3398
13.2837
13.3752
13.3369
13.3769
13.2603
13.2467
13.3092
13.2832
13.3015
13.3007
13.272
13.2931
13.313
13.3211
13.3175
13.3122
13.316
13.3267
13.3218
13.1926
13.1713
13.2433
13.1818
13.2323
13.1993
13.2276
13.169
13.2163
13.3335
13.3263
13.3366
13.3208
13.3262
13.321
13.3283
13.3459
13.3399
13.1809
13.1879
13.1832
13.1912
13.1755
13.1766
13.3456
13.3539
13.3466
13.3428
13.351
13.1926
13.2254
13.201
13.2115
13.2329
13.374
13.3776
13.3587
13.3625
13.36
13.3322
13.3333
13.3789
13.4
13.375
13.3711
13.368
13.3959
13.3711
13.3547
13.3629
13.3576
13.3422
13.3291
13.3407
13.3335
13.3436
13.4197
13.4112
13.2992
13.2714
13.4237
13.3327
13.2659
13.3487
13.3138
13.2711
13.3275
13.2594
13.329
13.2363
13.2284
13.2933
13.2649
13.286
13.2867
13.2598
13.2801
13.3122
13.3112
13.3083
13.3103
13.3069
13.3167
13.3115
13.1879
13.1878
13.2174
13.1713
13.2053
13.1798
13.2105
13.1583
13.1919
13.3189
13.3153
13.3206
13.3083
13.3121
13.3101
13.3135
13.3301
13.3208
13.196
13.1762
13.1812
13.1857
13.1808
13.1866
13.3364
13.3427
13.3265
13.3299
13.3346
13.2279
13.243
13.2244
13.2361
13.2511
13.3459
13.343
13.3271
13.3316
13.3297
13.3415
13.3513
13.3686
13.3934
13.3715
13.384
13.3886
13.3959
13.3847
13.302
13.3221
13.3098
13.2943
13.2769
13.3014
13.2901
13.2979
13.4031
13.4042
13.3693
13.2985
13.3968
13.3828
13.3372
13.31
13.2149
13.1961
13.2867
13.1755
13.2904
13.2239
13.2244
13.2811
13.2579
13.2755
13.2771
13.2582
13.2722
13.307
13.3023
13.2958
13.3023
13.2976
13.3061
13.3006
13.1475
13.1167
13.2045
13.1234
13.1784
13.1641
13.204
13.0969
13.1697
13.3049
13.3041
13.3064
13.2959
13.2981
13.2975
13.2992
13.311
13.3029
13.1628
13.1832
13.1907
13.1597
13.1892
13.1983
13.3205
13.3235
13.306
13.3083
13.3121
13.2401
13.2601
13.2398
13.2463
13.2677
13.3202
13.3178
13.3058
13.3135
13.3096
13.3589
13.3578
13.3947
13.39
13.385
13.3688
13.3669
13.3708
13.3638
13.2615
13.2795
13.272
13.2562
13.2583
13.2612
13.2617
13.2773
13.4046
13.3923
13.376
13.366
13.3998
13.3691
13.379
13.2654
13.1634
13.1945
13.2523
13.1808
13.2589
13.2312
13.2444
13.2747
13.2609
13.2713
13.2729
13.2652
13.2712
13.2961
13.2935
13.2832
13.2891
13.2903
13.2945
13.2882
13.1338
13.1799
13.2128
13.1037
13.1704
13.2156
13.2299
13.1456
13.1771
13.2909
13.2907
13.2924
13.2838
13.2844
13.284
13.285
13.2948
13.2869
13.1804
13.2046
13.2119
13.217
13.2312
13.2377
13.2957
13.3003
13.2885
13.2856
13.2908
13.2566
13.2708
13.2682
13.2714
13.2725
13.3071
13.3019
13.3026
13.3034
13.2963
13.344
13.3226
13.3163
13.3404
13.3308
13.2975
13.2548
13.3071
13.2892
13.2615
13.2465
13.2551
13.2611
13.2693
13.2461
13.2835
13.28
13.3676
13.3372
13.3576
13.3684
13.3661
13.3381
13.3412
13.2521
13.2134
13.2346
13.2628
13.2367
13.2589
13.264