/*--------------------------------*- C++ -*----------------------------------*\
| =========                 |                                                 |
| \\      /  F ield         | OpenFOAM: The Open Source CFD Toolbox           |
|  \\    /   O peration     | Version:  5.x                                   |
|   \\  /    A nd           | Web:      www.OpenFOAM.org                      |
|    \\/     M anipulation  |                                                 |
\*---------------------------------------------------------------------------*/
FoamFile
{
    version     2.0;
    format      ascii;
    class       volVectorField;
    location    "4.5";
    object      U;
}
// * * * * * * * * * * * * * * * * * * * * * * * * * * * * * * * * * * * * * //

dimensions      [0 1 -1 0 0 0 0];

internalField   nonuniform List<vector> 
10571
(
(0.286217 0.557106 0.901628)
(0.0216011 0.109097 0.799834)
(0.0290193 0.628834 1.78421)
(0.750517 0.675394 3.06968)
(-0.444918 0.102994 1.81832)
(-0.156968 -0.0620617 1.62942)
(0.100335 0.20789 2.24913)
(0.502806 -0.843686 4.04767)
(-2.21464 -1.29285 3.90759)
(-0.202623 -0.18851 1.28307)
(0.398282 -0.0641077 1.043)
(0.114557 0.0800305 2.1984)
(0.198293 -0.665696 4.06444)
(-1.00895 -2.87471 3.75218)
(-1.21108 -1.494 2.40953)
(-0.140728 -0.711019 1.81703)
(0.375848 -0.770386 2.35314)
(-1.06232 -2.12773 2.52245)
(-1.90307 -2.80532 5.08643)
(-0.799608 -0.568026 1.35257)
(-0.00629588 -0.188155 1.10073)
(-0.178289 -0.412944 0.903995)
(-0.2356 -0.57744 3.37314)
(-0.387356 0.0447493 1.21733)
(-0.178391 -0.0490612 0.116202)
(0.303447 -0.200797 0.842785)
(-0.159207 -0.039314 2.8761)
(-0.243161 -0.190467 4.81036)
(-0.166575 -0.173066 2.98143)
(-0.291344 -0.213962 2.41479)
(-0.298494 -0.52864 4.02978)
(-0.0179844 -1.93757 5.33739)
(-0.215196 -0.363081 3.09699)
(-0.486064 -0.168307 2.26162)
(0.0646436 0.0823792 0.453633)
(-0.803699 -1.21206 4.66662)
(-0.90703 -0.450592 3.81375)
(0.0649059 -0.421663 1.39058)
(0.0864624 -0.448224 1.682)
(-0.279417 -0.737278 2.03002)
(-0.149205 0.0889996 1.80654)
(-0.497551 -0.504033 1.94584)
(-0.533861 -1.03553 2.4615)
(-0.136806 -0.48788 0.944363)
(0.00438292 -0.15354 0.624474)
(-0.337904 -0.201524 0.638958)
(-0.397258 -1.5309 2.78297)
(0.0550694 -0.151043 0.500115)
(-0.485857 -0.39355 1.22685)
(0.0791903 -0.150637 0.58036)
(-0.617004 -1.14494 2.94382)
(-0.812328 -1.3037 4.04467)
(0.378261 -0.307211 2.24574)
(-0.215621 -0.00823754 3.56358)
(-0.607701 0.00275982 3.35081)
(0.11452 -0.852027 5.52638)
(-0.253819 0.17665 4.14308)
(-0.71702 -0.349996 1.58788)
(0.0301095 -0.236862 0.86345)
(-0.482899 -0.586541 3.65843)
(-0.293252 -0.06211 3.4487)
(-0.0318795 -0.268579 1.87345)
(-0.546321 -0.539278 2.0823)
(-0.285964 -0.114758 0.910961)
(-0.0313537 -0.126136 1.74687)
(-0.787188 -0.691222 2.14689)
(-0.174318 -1.0265 2.25671)
(-0.00149851 -0.48906 0.672703)
(-0.0038015 -0.00683737 0.135757)
(-0.581116 -0.289363 0.750165)
(-0.0903176 -0.178288 0.552049)
(0.070002 -0.126689 0.204861)
(-0.265451 -0.190091 2.9522)
(0.151644 -0.598923 1.46433)
(-0.476925 -0.990364 3.15881)
(-0.410196 -1.05572 2.67693)
(0.118729 -0.685529 1.474)
(-0.227328 -0.342702 3.60892)
(-0.378867 -0.457767 2.1318)
(-0.00209855 -0.478546 3.18651)
(-0.270969 0.00837891 3.71321)
(-0.299962 -0.193871 0.958293)
(0.0148707 -0.248111 0.461816)
(-0.350459 -0.590062 3.97128)
(0.25294 -0.52343 3.73567)
(0.0644407 -0.618626 2.66556)
(-0.434433 -0.435389 1.40262)
(-0.116901 0.0129694 0.486918)
(-0.318256 -0.250537 1.85401)
(-0.63644 -0.545283 2.20525)
(0.0192335 -0.233001 1.00013)
(0.285225 -0.481952 0.635084)
(-0.000826751 -0.0153016 -0.00578155)
(-0.130852 -0.0532017 0.194436)
(0.00135438 -0.0137958 -0.0337736)
(0.0210388 -0.0297488 -0.0695187)
(0.192942 -0.126167 3.80849)
(0.384367 -0.620762 1.97429)
(0.0762995 -0.240904 3.48892)
(-0.0574336 -0.508913 3.10923)
(0.111118 -0.347587 2.4005)
(0.569578 -1.17471 3.89826)
(0.197884 -0.793353 2.90025)
(-0.045945 -0.546699 4.27912)
(-0.311072 -0.370962 3.60604)
(0.00731789 -0.31139 0.499068)
(-0.0416046 -0.194476 0.305538)
(-0.482242 -1.07553 4.26757)
(0.368342 -0.428252 2.09911)
(0.183891 -0.444521 1.62137)
(-0.103256 -0.201252 1.30398)
(0.00908595 -0.000519801 0.10966)
(-0.84018 0.200171 2.47687)
(0.0778335 -0.00586582 0.69158)
(0.061656 -0.0585204 0.394068)
(0.0250418 0.0126286 0.0943264)
(-0.0174524 -0.00174772 -0.0238137)
(-0.00466281 0.000667315 -0.0544973)
(0.0122461 -0.0197137 -0.108499)
(-0.00958308 -0.00214184 -0.0723878)
(0.297387 -0.064296 3.84876)
(0.262688 -0.501851 2.65104)
(0.253716 -0.0838352 3.62696)
(0.151355 -0.412138 3.14217)
(0.430767 0.0155207 2.60766)
(0.290443 -1.16733 3.11083)
(0.346721 -0.403343 3.06659)
(0.0295575 -0.371366 4.16105)
(-0.277582 -0.251211 3.78848)
(0.052485 -0.106887 0.713676)
(-0.00212057 0.00157866 -0.00186258)
(-0.428614 -0.369677 1.31854)
(0.175118 -0.34363 2.64594)
(0.32525 -0.293495 3.00906)
(0.0987924 -0.322821 2.38112)
(-0.227259 -0.248694 1.71805)
(-0.0547347 0.0361226 0.272611)
(-0.0016552 -0.000820726 -0.0014494)
(-0.218368 0.053237 2.27692)
(0.215086 -0.152975 1.67855)
(-0.0314937 -0.191572 0.865231)
(-0.0819342 -0.15474 0.3285)
(-0.00376833 0.0116122 0.0880343)
(0.110758 -0.0326452 0.05654)
(-0.0670622 -0.0326686 0.0301242)
(0.0117367 -0.023351 -0.101945)
(0.332533 -0.0568097 4.06509)
(0.160092 -0.351168 3.05199)
(0.311635 0.00217825 3.87679)
(0.224439 -0.344592 3.42788)
(0.630897 0.0868309 3.11277)
(0.223854 -0.587696 2.82184)
(0.284121 -0.263381 3.0168)
(0.111822 -0.242533 3.89668)
(-0.243037 -0.232835 3.60709)
(-0.043555 0.077761 0.655386)
(-0.374281 -0.0256897 0.0458254)
(0.00661658 0.0115744 1.86443)
(0.194399 -0.312581 2.425)
(0.343948 -0.263213 2.71857)
(0.0935022 -0.232348 2.17725)
(-0.202214 -0.238204 1.388)
(-0.147728 -0.0318222 -0.0780775)
(-0.132012 -0.0645154 0.0202192)
(-0.0710417 -0.0482378 2.45567)
(0.252178 -0.131854 1.03561)
(0.139738 -0.147322 0.306078)
(0.215542 -0.217599 0.0587602)
(0.101719 -0.157681 -0.123929)
(-0.128393 -0.0575946 0.00278572)
(0.258803 0.0614375 -0.128531)
(0.108186 -0.062141 -0.180737)
(0.182153 -0.101407 -0.291726)
(0.331124 -0.0560711 4.28548)
(0.136173 -0.282138 3.23126)
(0.330586 0.0456225 3.96125)
(0.26939 -0.292398 3.51456)
(0.704789 0.112711 3.42809)
(0.117041 -0.498473 2.57135)
(0.224093 -0.241293 3.03417)
(0.162126 -0.149711 3.88255)
(-0.0830023 -0.196888 3.50049)
(-0.0153568 0.23526 0.864872)
(-0.143692 -0.131879 -0.0544867)
(-0.0154934 -0.208009 1.00182)
(0.22243 -0.298197 1.86923)
(0.300187 -0.17223 2.51078)
(0.125586 -0.102911 2.2106)
(-0.0884424 -0.0953501 1.21363)
(-0.0101386 -0.167739 0.109294)
(-0.0993684 -0.223105 -0.0858702)
(-0.0244335 -0.0134952 2.02437)
(0.364194 0.0715359 0.900365)
(0.281647 0.0313401 0.362378)
(0.303289 -0.010996 0.143884)
(0.192839 -0.145075 -0.115074)
(0.00735521 -0.0306667 -0.0755795)
(0.234933 0.137461 -0.0934863)
(0.161956 -0.0639277 -0.205814)
(0.134563 -0.0544082 -0.331529)
(0.315416 -0.0445404 4.46617)
(0.100009 -0.247776 3.33229)
(0.344849 0.0599965 3.98617)
(0.2857 -0.235034 3.52494)
(0.683633 0.107771 3.56186)
(0.0150657 -0.396933 2.51219)
(0.168816 -0.219236 3.11572)
(0.191077 -0.107347 3.92035)
(-0.023623 -0.196115 3.55193)
(0.372155 0.50764 1.69226)
(0.594302 0.468869 0.408314)
(-0.0380482 -0.158745 1.09704)
(0.167591 -0.284198 1.718)
(0.247349 -0.121838 2.52484)
(0.156658 -0.0157022 2.37673)
(-0.00910294 -0.0247739 1.21913)
(0.0867941 -0.346715 0.128622)
(0.181671 0.266216 -0.190769)
(-0.0358864 -0.00615675 1.52206)
(0.317517 0.0908785 0.869587)
(0.307388 0.0718306 0.461501)
(0.323904 0.0202138 0.229255)
(0.205119 -0.16007 -0.109775)
(0.0628272 0.00517688 0.0281782)
(0.149093 -0.0982615 -0.18786)
(0.0438805 0.00866849 -0.284322)
(0.308466 -0.0284362 4.60671)
(0.0717579 -0.225488 3.40063)
(0.345194 0.076597 4.0082)
(0.283848 -0.170632 3.54141)
(0.614908 0.108609 3.62519)
(-0.0218874 -0.296015 2.41848)
(0.139605 -0.181032 3.1478)
(0.212439 -0.0514668 3.92289)
(0.0504927 -0.150922 3.52056)
(0.413137 0.861987 2.01041)
(-0.0131626 -0.0453823 1.11704)
(0.157628 -0.166464 1.50075)
(0.203798 -0.0639417 2.5204)
(0.150052 0.0116735 2.40344)
(0.0552987 -0.0135896 1.15055)
(-0.221623 0.121768 0.209474)
(-0.0458984 -0.120127 1.14317)
(0.266512 0.0340942 0.822686)
(0.285542 0.0321613 0.476517)
(0.324475 -0.022896 0.306078)
(0.0798821 -0.134205 -0.0648376)
(-0.0913346 -0.137432 0.000954605)
(0.0759531 -0.001317 -0.179956)
(0.0124956 0.0291273 -0.25014)
(0.292589 -0.0246312 4.70055)
(0.0501727 -0.207634 3.43197)
(0.341163 0.0850309 4.00527)
(0.275613 -0.106696 3.55672)
(0.544742 0.11818 3.64478)
(-0.0194684 -0.243591 2.28231)
(0.121397 -0.16149 3.12926)
(0.210119 -0.00985374 3.87458)
(0.0891901 -0.117367 3.49126)
(0.475005 0.932646 2.36688)
(-0.00035449 -0.0422523 1.14631)
(0.127094 -0.124923 1.38168)
(0.175307 -0.0290419 2.44726)
(0.185467 0.0381682 2.45138)
(0.0995443 -0.0189432 1.19619)
(-0.0117132 0.380916 0.712116)
(-0.0240679 -0.187426 0.842585)
(0.256775 -0.00425989 0.800172)
(0.247904 -0.00875219 0.487547)
(0.28265 -0.0855933 0.290491)
(-0.0543273 0.0551376 -0.0835204)
(-0.100737 -0.0917922 -0.194683)
(-0.0291641 0.0734651 -0.12723)
(-0.0619186 0.0646439 -0.201103)
(0.274827 -0.0249059 4.79089)
(0.0228171 -0.181275 3.41783)
(0.336835 0.0805786 3.98484)
(0.277589 -0.0586606 3.577)
(0.472053 0.123291 3.62194)
(-0.0328936 -0.177676 2.1396)
(0.12905 -0.147107 3.0914)
(0.199411 0.0256125 3.78153)
(0.0996647 -0.103797 3.44203)
(0.454355 0.88204 2.56601)
(0.0010122 -0.0570919 1.1801)
(0.0996705 -0.120724 1.33429)
(0.1641 -0.0111155 2.35991)
(0.222387 0.0590189 2.43066)
(0.115857 -0.0189354 1.27664)
(0.0782152 0.609838 1.131)
(0.00988067 -0.181503 0.634942)
(0.249013 -0.00274021 0.74051)
(0.230407 -0.00049669 0.511559)
(0.243002 -0.112773 0.305965)
(-0.145489 0.324328 0.122078)
(-0.18735 -0.0540687 -0.296118)
(-0.121587 0.0827668 -0.111505)
(-0.132284 0.100759 -0.142783)
(0.258938 -0.0275173 4.87421)
(-0.00180582 -0.158718 3.38315)
(0.329171 0.0589793 3.94804)
(0.28411 -0.0263325 3.59495)
(0.404547 0.116547 3.57194)
(-0.00900061 -0.0906046 2.00936)
(0.144678 -0.130881 3.03108)
(0.202897 0.0455187 3.72129)
(0.0944384 -0.0627215 3.39991)
(0.415041 0.815129 2.65309)
(0.00333353 -0.0536273 1.19618)
(0.069034 -0.106484 1.32757)
(0.136722 0.00753166 2.26051)
(0.28447 0.0763006 2.45991)
(0.0774839 0.0210814 1.35241)
(0.124332 0.794412 1.55884)
(0.0270753 -0.170659 0.409722)
(0.20021 0.00361429 0.666019)
(0.18723 0.0136741 0.545482)
(0.151264 -0.0745731 0.390717)
(-0.217328 0.506372 0.307778)
(-0.245137 -0.0385997 -0.324981)
(-0.193841 0.0844978 -0.097542)
(-0.213619 0.156059 -0.100171)
(0.251132 -0.0269808 4.95884)
(-0.0215908 -0.139596 3.36327)
(0.31604 0.0460183 3.90738)
(0.292053 -0.00268588 3.61441)
(0.349852 0.111321 3.51953)
(0.0284728 -0.0353392 1.90308)
(0.134127 -0.124713 2.96239)
(0.195067 0.0558451 3.64318)
(0.0977656 0.00194309 3.35461)
(0.368597 0.742776 2.69357)
(0.000942883 -0.0512345 1.18417)
(0.0428571 -0.108839 1.35544)
(0.047623 0.0406909 2.10397)
(0.346178 0.0989186 2.44898)
(-0.0156331 0.10488 1.42848)
(0.106211 0.907338 1.87825)
(-0.00522418 -0.152163 0.255653)
(0.126334 -0.0380273 0.589276)
(0.111988 0.0517165 0.639329)
(-0.0588702 0.0570972 0.52422)
(-0.301585 0.650492 0.496597)
(-0.293522 -0.0386825 -0.311201)
(-0.263745 0.0843756 -0.0740761)
(-0.312904 0.231341 -0.0173408)
(0.244839 -0.0233673 5.03948)
(-0.0403089 -0.121303 3.35892)
(0.298845 0.0324021 3.87403)
(0.2889 0.0202776 3.6372)
(0.306487 0.106184 3.47406)
(0.0387594 -0.0242591 1.82163)
(0.11234 -0.130121 2.89445)
(0.161537 0.0732149 3.57818)
(0.0804241 0.0329204 3.30615)
(0.33803 0.672008 2.69511)
(-0.00293483 -0.0390079 1.18136)
(0.00766773 -0.101058 1.40001)
(-0.0456138 0.0820914 1.97881)
(0.387247 0.132077 2.50337)
(-0.0976506 0.193766 1.54867)
(0.0491384 0.904164 2.05312)
(-0.064291 -0.132069 0.234116)
(0.0313479 -0.0825519 0.553991)
(0.00297519 0.0982464 0.762897)
(-0.191765 0.176862 0.674598)
(-0.354562 0.73371 0.648926)
(-0.318814 -0.0440142 -0.28302)
(-0.321533 0.102484 -0.0103472)
(-0.37992 0.268673 0.0815802)
(0.233308 -0.0185659 5.1033)
(-0.0516123 -0.103079 3.36141)
(0.280668 0.0192327 3.84111)
(0.273378 0.0500834 3.66119)
(0.262889 0.100197 3.43896)
(0.0282208 -0.0203761 1.76527)
(0.101038 -0.140562 2.83318)
(0.118315 0.089683 3.51631)
(0.0353554 0.0277636 3.22932)
(0.302007 0.618325 2.6839)
(-0.00558533 -0.0110629 1.19076)
(-0.0171764 -0.0727462 1.44618)
(-0.0834201 0.119587 1.82953)
(0.379066 0.17133 2.50548)
(-0.187783 0.258877 1.61407)
(-0.0310106 0.834102 2.06211)
(-0.101716 -0.12197 0.277316)
(-0.0706436 -0.0945625 0.577736)
(-0.106303 0.137997 0.87292)
(-0.268939 0.294201 0.848542)
(-0.374127 0.742069 0.752105)
(-0.325647 -0.0316402 -0.239269)
(-0.361752 0.0965153 0.053597)
(-0.368822 0.259449 0.138765)
(0.213672 -0.0125455 5.14791)
(-0.0541631 -0.0894261 3.3558)
(0.261912 0.0101933 3.81448)
(0.25096 0.0827828 3.68825)
(0.218023 0.0880851 3.40478)
(0.0374752 -0.0105616 1.73417)
(0.0950724 -0.140456 2.7758)
(0.0884844 0.104887 3.4656)
(-0.0197485 0.0527856 3.15066)
(0.257599 0.573783 2.63317)
(-0.00535704 0.0193345 1.18357)
(-0.0210896 -0.0359181 1.49405)
(-0.0714994 0.160972 1.71862)
(0.349675 0.202316 2.54377)
(-0.267509 0.319624 1.68177)
(-0.119652 0.747685 1.94546)
(-0.124374 -0.102981 0.357344)
(-0.160789 -0.0900232 0.632932)
(-0.20245 0.172729 0.996092)
(-0.314169 0.39418 1.01996)
(-0.341434 0.686611 0.826811)
(-0.315086 -0.0063016 -0.175285)
(-0.36144 0.0888911 0.095787)
(-0.400144 0.269908 0.24868)
(0.184952 -0.00937453 5.16988)
(-0.0470175 -0.0762119 3.34736)
(0.245023 0.00757623 3.78876)
(0.226341 0.114352 3.71038)
(0.171197 0.0733502 3.36062)
(0.0481654 -0.00181341 1.70948)
(0.0853484 -0.121955 2.70537)
(0.0555837 0.129207 3.41888)
(-0.0763189 0.122268 3.0555)
(0.212981 0.516971 2.54183)
(-0.0054954 0.0210893 1.15411)
(-0.016885 -0.0181495 1.49913)
(-0.065055 0.200264 1.66763)
(0.269642 0.237409 2.6014)
(-0.297789 0.371831 1.73162)
(-0.199192 0.668943 1.70282)
(-0.133335 -0.0822347 0.459345)
(-0.232929 -0.0728304 0.723212)
(-0.280248 0.19653 1.10887)
(-0.312233 0.451027 1.16948)
(-0.283749 0.590007 0.894732)
(-0.288634 0.0292714 -0.0796688)
(-0.365921 0.0917933 0.145406)
(-0.407316 0.253339 0.326669)
(0.154597 -0.00809254 5.17835)
(-0.0386354 -0.0625281 3.33555)
(0.233277 0.013691 3.76748)
(0.197003 0.139056 3.72827)
(0.121319 0.0547262 3.30104)
(0.0729195 0.00224908 1.67533)
(0.0727827 -0.0804458 2.64601)
(-0.0188698 0.155604 3.36533)
(-0.123659 0.175677 2.92379)
(0.180908 0.439084 2.45682)
(-0.00886614 0.00776731 1.14851)
(-0.00137045 -0.0120541 1.46519)
(-0.0703827 0.215032 1.67165)
(0.151404 0.270804 2.65181)
(-0.281354 0.418947 1.76405)
(-0.194837 0.619764 1.49226)
(-0.133926 -0.0671875 0.577651)
(-0.288522 -0.0513642 0.818313)
(-0.334141 0.205628 1.19508)
(-0.2879 0.459052 1.28217)
(-0.216629 0.475968 0.976536)
(-0.252765 0.052765 0.0404687)
(-0.351645 0.0934632 0.185928)
(-0.378457 0.216467 0.383557)
(0.126995 -0.00859058 5.18)
(-0.0284439 -0.051528 3.3254)
(0.228655 0.0323949 3.75578)
(0.16538 0.156399 3.74247)
(0.0668261 0.0403951 3.22371)
(0.120497 -0.00577369 1.6383)
(0.0638728 -0.0234361 2.62743)
(-0.126551 0.174871 3.31454)
(-0.143113 0.180227 2.72621)
(0.153597 0.368106 2.32409)
(-0.0140667 -0.0175877 1.19622)
(0.0372051 0.0134325 1.33885)
(-0.100029 0.229274 1.72972)
(-0.00136769 0.287502 2.69642)
(-0.244154 0.442602 1.76126)
(-0.15107 0.535955 1.39114)
(-0.134596 -0.0567772 0.709818)
(-0.327816 -0.0257028 0.914255)
(-0.369209 0.201732 1.26743)
(-0.253073 0.425839 1.35096)
(-0.150105 0.359612 1.06649)
(-0.200208 0.0754457 0.19047)
(-0.314708 0.100088 0.227226)
(-0.321651 0.163017 0.406208)
(0.103893 -0.00884892 5.18391)
(-0.0134281 -0.0411358 3.32335)
(0.216024 0.0467278 3.7444)
(0.14071 0.173726 3.75771)
(0.0189278 0.026118 3.13862)
(0.165645 -0.0148978 1.58217)
(0.0572644 0.0222555 2.6443)
(-0.237972 0.19393 3.27865)
(-0.131052 0.171388 2.46459)
(0.10735 0.295471 2.13702)
(-0.0119769 -0.0411431 1.2274)
(0.0500939 9.10151e-05 1.19269)
(-0.204235 0.254899 1.87262)
(-0.160349 0.288299 2.72355)
(-0.204055 0.419851 1.72543)
(-0.0927182 0.430233 1.37553)
(-0.144447 -0.0528563 0.847385)
(-0.349671 0.00755125 1.00006)
(-0.376696 0.191166 1.3165)
(-0.204198 0.364092 1.38379)
(-0.0959075 0.260977 1.15928)
(-0.138644 0.0992848 0.349978)
(-0.254056 0.111382 0.279648)
(-0.239505 0.113702 0.411915)
(0.0902671 -0.00867027 5.19055)
(0.0061275 -0.0300715 3.31667)
(0.194979 0.0513772 3.72959)
(0.120071 0.185882 3.77527)
(-0.0319201 0.0212264 3.0464)
(0.179971 -0.0201694 1.52046)
(0.0258695 0.045027 2.68354)
(-0.332691 0.211963 3.24181)
(-0.115154 0.183351 2.19975)
(0.0408092 0.27693 1.93157)
(-0.0159099 -0.063904 1.24225)
(-0.00392075 -0.0288811 1.13909)
(-0.29718 0.266287 1.98187)
(-0.276163 0.285993 2.69639)
(-0.134253 0.298368 1.64535)
(-0.0411681 0.32703 1.41079)
(-0.155673 -0.0479563 0.987847)
(-0.351671 0.0461179 1.07334)
(-0.35133 0.181506 1.33451)
(-0.144288 0.256175 1.37239)
(-0.0668311 0.195369 1.24407)
(-0.091202 0.110934 0.501386)
(-0.186941 0.121586 0.346342)
(-0.149549 0.0701698 0.420219)
(0.0845484 -0.00627047 5.189)
(0.0315503 -0.025099 3.29901)
(0.172401 0.0526845 3.70478)
(0.0917903 0.199953 3.79396)
(-0.085257 0.0154778 2.94118)
(0.162323 -0.0264565 1.48017)
(-0.0699885 0.0537856 2.74763)
(-0.383545 0.216397 3.18358)
(-0.108806 0.209881 1.99566)
(-0.0451036 0.306642 1.7172)
(-0.0222196 -0.087253 1.28115)
(-0.0922864 -0.054444 1.16992)
(-0.344117 0.261379 2.04316)
(-0.326594 0.297162 2.63543)
(-0.0645511 0.173203 1.56771)
(-0.00484067 0.2297 1.45888)
(-0.155997 -0.0375639 1.13142)
(-0.333112 0.0778545 1.13408)
(-0.296168 0.16868 1.32984)
(-0.092986 0.15193 1.32622)
(-0.0611144 0.164843 1.3089)
(-0.0536598 0.10972 0.642112)
(-0.124741 0.129473 0.426109)
(-0.0711918 0.0364306 0.436931)
(0.0837924 -0.00120563 5.17992)
(0.0545077 -0.0297006 3.27893)
(0.14769 0.054835 3.67967)
(0.0576968 0.217932 3.82304)
(-0.115549 0.0108681 2.80306)
(0.133103 -0.0444985 1.47544)
(-0.182117 0.048746 2.80529)
(-0.383863 0.209673 3.09146)
(-0.0927539 0.233212 1.84752)
(-0.0929756 0.260943 1.56282)
(-0.0261065 -0.107115 1.3613)
(-0.16812 -0.0708366 1.23015)
(-0.352411 0.248731 2.05814)
(-0.325447 0.299748 2.56018)
(0.00373255 0.100308 1.50364)
(0.0188196 0.139486 1.48816)
(-0.144745 -0.023134 1.27668)
(-0.297813 0.100835 1.1867)
(-0.235618 0.151966 1.31174)
(-0.0408447 0.0823788 1.27956)
(-0.0667353 0.153651 1.34106)
(-0.0199788 0.098423 0.768674)
(-0.0703378 0.128532 0.512052)
(-0.013301 0.0137822 0.471499)
(0.0847229 -0.000311311 5.16336)
(0.0744839 -0.0392679 3.26771)
(0.11901 0.0544221 3.65746)
(0.00664981 0.238709 3.85435)
(-0.101742 0.0330781 2.63948)
(0.0769126 -0.0717041 1.51322)
(-0.245029 0.0359406 2.83795)
(-0.357008 0.215992 2.98839)
(-0.0635302 0.243875 1.73406)
(-0.113683 0.169488 1.47357)
(-0.0212458 -0.110058 1.48559)
(-0.21997 -0.0768112 1.28847)
(-0.34668 0.225741 2.04214)
(-0.296321 0.253672 2.47125)
(0.0630278 0.0642618 1.46153)
(0.0307348 0.0845079 1.48699)
(-0.130823 -0.0067651 1.42392)
(-0.254047 0.124192 1.2355)
(-0.1786 0.139865 1.28697)
(-0.00598341 0.0395309 1.25742)
(-0.0712103 0.146523 1.35339)
(0.00573624 0.0803755 0.878016)
(-0.0275256 0.118565 0.596369)
(0.0266012 -0.00155475 0.523757)
(0.0792264 -0.00173575 5.14034)
(0.0836242 -0.0453574 3.27813)
(0.0864589 0.0561125 3.64666)
(-0.0485705 0.269842 3.88657)
(-0.0711365 -0.0275209 2.52313)
(0.0208649 -0.0998964 1.6006)
(-0.261284 0.0275518 2.86158)
(-0.328948 0.238517 2.91462)
(-0.0333128 0.223346 1.64452)
(-0.123628 0.0956278 1.44636)
(-0.00738076 -0.099371 1.61575)
(-0.238078 -0.0613992 1.34514)
(-0.333108 0.176266 1.97329)
(-0.262726 0.178561 2.37113)
(0.106802 0.0423887 1.44364)
(0.037325 0.0640215 1.47121)
(-0.11394 0.00481984 1.57141)
(-0.212607 0.146539 1.2796)
(-0.124707 0.134689 1.26041)
(0.00588654 0.0132384 1.25088)
(-0.070801 0.134681 1.36379)
(0.0168953 0.0611326 0.974985)
(0.00410547 0.104889 0.674317)
(0.0515668 -0.0124727 0.588555)
(0.0564115 -0.00748913 5.11906)
(0.0849577 -0.0451167 3.31655)
(0.0543454 0.0600849 3.65736)
(-0.130352 0.314925 3.91602)
(-0.0390789 -0.115309 2.43461)
(-0.0111492 -0.120242 1.71267)
(-0.248379 0.0197765 2.88218)
(-0.311423 0.24513 2.8696)
(-0.00276875 0.155254 1.58124)
(-0.116407 0.0373889 1.45638)
(0.00150035 -0.0921968 1.70103)
(-0.214449 -0.0344062 1.40834)
(-0.326049 0.153614 1.88968)
(-0.220024 0.121504 2.25836)
(0.139075 0.0185828 1.43612)
(0.0429087 0.0518123 1.46009)
(-0.106791 0.00331091 1.71332)
(-0.179332 0.156426 1.31573)
(-0.0711184 0.13112 1.23842)
(0.0155994 -0.00790424 1.24965)
(-0.0667848 0.115399 1.37737)
(0.0164242 0.048249 1.06054)
(0.0268832 0.0919349 0.744157)
(0.0647418 -0.0182308 0.659143)
(0.0171904 -0.0204751 5.11565)
(0.0779543 -0.0413351 3.37585)
(0.0194808 0.0750519 3.69468)
(-0.203341 0.338379 3.92598)
(-0.0889023 -0.1033 2.29062)
(-0.0318726 -0.128643 1.83554)
(-0.212408 -0.00952851 2.9066)
(-0.291992 0.232082 2.85136)
(0.0391107 0.0508905 1.54469)
(-0.123176 -0.0291813 1.46221)
(-0.00153931 -0.0970797 1.73043)
(-0.164393 -0.0176321 1.47843)
(-0.319735 0.150142 1.79669)
(-0.150013 0.0953678 2.13217)
(0.165199 -0.0144829 1.43474)
(0.049158 0.0334223 1.45336)
(-0.0959106 -0.014478 1.84813)
(-0.150085 0.147576 1.3448)
(-0.0237782 0.127544 1.22169)
(0.0291108 -0.0152596 1.25294)
(-0.0591247 0.0903525 1.38786)
(0.0134601 0.0416083 1.13308)
(0.0422244 0.0814745 0.804115)
(0.0693325 -0.018734 0.732395)
(-0.0151932 -0.0284315 5.12909)
(0.0685663 -0.0321197 3.45619)
(-0.0252331 0.0928789 3.74359)
(-0.257429 0.301024 3.87523)
(-0.168293 -0.0399036 2.13895)
(-0.0642199 -0.120448 1.969)
(-0.199098 -0.0387752 2.92115)
(-0.261746 0.202972 2.83162)
(0.0902736 -0.0611634 1.52908)
(-0.157272 -0.121787 1.4376)
(-0.00821481 -0.0949407 1.73119)
(-0.104989 -0.0277677 1.55264)
(-0.301785 0.142429 1.70114)
(-0.0742026 0.0965974 1.99386)
(0.184785 -0.0611087 1.42355)
(0.0589998 -0.00151125 1.44758)
(-0.0609057 -0.0237713 1.9599)
(-0.123908 0.127219 1.37092)
(0.0110683 0.120522 1.21362)
(0.0519925 -0.00914416 1.25932)
(-0.0458248 0.0606224 1.39209)
(0.0131908 0.0376988 1.19007)
(0.0525999 0.0729816 0.855465)
(0.0662723 -0.0146924 0.810405)
(-0.0219042 -0.0177897 5.13367)
(0.0600444 -0.0216003 3.53615)
(-0.0715778 0.119634 3.80245)
(-0.297136 0.228685 3.73166)
(-0.198788 -0.0219871 2.04172)
(-0.119884 -0.100679 2.12189)
(-0.219071 -0.0553552 2.92601)
(-0.246279 0.144157 2.77418)
(0.129458 -0.151496 1.53024)
(-0.172772 -0.197543 1.40768)
(-0.0143213 -0.0681946 1.744)
(-0.0543924 -0.0518981 1.62963)
(-0.265671 0.11566 1.61834)
(-0.0212675 0.103588 1.84526)
(0.182183 -0.120853 1.3905)
(0.0620715 -0.0552406 1.43553)
(-0.000494109 -0.0170394 2.02007)
(-0.0921368 0.0974199 1.3956)
(0.0370279 0.0997894 1.21434)
(0.070455 -0.00436986 1.26424)
(-0.0377984 0.0396507 1.37722)
(0.015018 0.0363525 1.23362)
(0.0609563 0.0645928 0.900069)
(0.0528545 -0.00568065 0.89348)
(-0.0281252 0.0103838 5.08635)
(0.0427801 -0.00304335 3.61942)
(-0.121509 0.146583 3.8567)
(-0.288069 0.25417 3.5513)
(-0.199625 -0.0429504 2.03215)
(-0.188211 -0.0759142 2.29757)
(-0.262615 -0.0807005 2.93851)
(-0.21516 0.0240451 2.66166)
(0.148673 -0.203202 1.55122)
(-0.171487 -0.22915 1.40922)
(-0.0158544 0.00829847 1.80798)
(-0.0193684 -0.0685296 1.69848)
(-0.208627 0.0653156 1.56095)
(0.00589752 0.0784424 1.70274)
(0.135262 -0.181686 1.34504)
(0.0329862 -0.112481 1.36749)
(0.0359745 -0.0125311 2.02825)
(-0.047658 0.0608023 1.40965)
(0.0497633 0.0617602 1.22233)
(0.0778343 -0.00828456 1.2588)
(-0.0324058 0.0297909 1.3398)
(0.0192836 0.0364374 1.26524)
(0.0693758 0.0542745 0.938117)
(0.0249831 0.00881891 0.977361)
(-0.111543 -0.0451861 4.97441)
(0.0186497 0.0119433 3.69414)
(-0.163469 0.165008 3.91082)
(-0.276816 0.321623 3.41027)
(-0.162623 -0.0941104 2.08499)
(-0.252182 -0.0476504 2.48649)
(-0.277503 -0.0993403 2.96057)
(-0.0968799 -0.127414 2.52392)
(0.158175 -0.210394 1.58985)
(-0.125413 -0.196095 1.44834)
(-0.00874978 0.0839289 1.89975)
(0.0127966 -0.0721705 1.75104)
(-0.14391 0.0111002 1.52884)
(0.0136017 0.00748817 1.58351)
(0.0645032 -0.210572 1.29102)
(0.00397839 -0.141336 1.25167)
(0.0399986 -0.0166409 1.99646)
(0.00468129 0.0299608 1.40521)
(0.0484188 0.0164247 1.22889)
(0.0703535 -0.0149413 1.23505)
(-0.0385262 0.044248 1.28175)
(0.0284384 0.0364845 1.28194)
(0.0771127 0.040659 0.969395)
(-0.0141134 0.0231725 1.04959)
(-0.228628 -0.0712331 4.92034)
(-0.0119764 0.0391891 3.78557)
(-0.188742 0.18612 3.98317)
(-0.267185 0.255835 3.32016)
(-0.0798723 -0.130438 2.18164)
(-0.284293 -0.0284991 2.65774)
(-0.268342 -0.109472 2.96745)
(0.0726581 -0.242919 2.35824)
(0.152184 -0.158149 1.63839)
(0.035294 -0.046221 1.58846)
(0.00156203 0.114738 1.97069)
(0.0447854 -0.0724995 1.8004)
(-0.0985369 -0.0227693 1.51517)
(-0.00607532 -0.0811788 1.48828)
(-0.0128662 -0.167509 1.24196)
(-0.0255082 -0.0945367 1.12042)
(0.0201511 -0.0486495 1.92356)
(0.0462547 0.0156088 1.38946)
(0.0235286 -0.018967 1.22888)
(0.0325841 -0.0102405 1.20136)
(-0.0584498 0.0564461 1.17681)
(0.0406695 0.0368184 1.28822)
(0.0802642 0.02631 0.995879)
(-0.054652 0.0367095 1.09916)
(-0.2874 -0.042433 4.68974)
(-0.0321346 0.0529495 3.8438)
(-0.167921 0.184452 4.06438)
(-0.220076 0.103 3.30576)
(0.016438 -0.0717904 2.29667)
(-0.293447 -0.0125481 2.80427)
(-0.233127 -0.126375 2.94822)
(0.1845 -0.237744 2.19685)
(0.0722972 0.0523396 1.67301)
(0.167894 0.101698 1.66603)
(0.00795549 0.121197 2.01443)
(0.0674678 -0.0709348 1.86588)
(-0.0848035 -0.0306205 1.51377)
(-0.0556903 -0.132245 1.4171)
(-0.0783429 -0.0110752 1.22918)
(-0.0324248 0.156105 1.03872)
(0.00812903 -0.0869139 1.79874)
(0.0627753 0.0116946 1.38046)
(-0.0129118 -0.0337513 1.22812)
(-0.0247305 0.0314371 1.1778)
(-0.104071 0.15295 1.08697)
(0.0515768 0.0402666 1.29617)
(0.0784236 0.0160724 1.02548)
(-0.0959942 0.0565849 1.13372)
(-0.216765 -0.0149484 4.53378)
(-0.0665812 0.0957082 3.89473)
(-0.132881 0.198125 4.08382)
(-0.114404 0.0193817 3.37257)
(0.111338 -0.0689811 2.38641)
(-0.307402 0.0454007 2.93197)
(-0.156044 -0.111837 2.88021)
(0.19012 -0.0909457 2.10289)
(-0.072774 0.376335 1.57126)
(0.229947 0.414487 1.52736)
(0.00744662 0.1495 2.06523)
(0.0759001 -0.0471877 1.94985)
(-0.0905372 -0.020376 1.52376)
(-0.105364 -0.117438 1.38252)
(-0.107609 0.207707 1.25546)
(0.00189958 0.44679 1.05768)
(0.0404474 -0.0776356 1.6412)
(0.0636752 0.0117918 1.3846)
(-0.0485377 -0.0266532 1.24416)
(-0.0699302 0.126865 1.1982)
(-0.131036 0.250233 1.12603)
(0.0613724 0.04725 1.31195)
(0.0712535 0.0138035 1.06756)
(-0.135696 0.0794625 1.18166)
(-0.156217 0.0399497 4.2369)
(-0.115383 0.133971 3.87656)
(-0.137647 0.236843 4.05992)
(-0.025531 0.0231946 3.38803)
(0.21797 0.0577216 2.40452)
(-0.280993 0.132734 3.09343)
(-0.108632 -0.0167504 2.79798)
(0.0977658 0.190087 2.05026)
(-0.142342 0.573689 1.42196)
(0.232673 0.699704 1.27624)
(0.00961982 0.250916 2.14168)
(0.079652 0.0277722 2.04312)
(-0.098567 0.0162475 1.56856)
(-0.128505 -0.0371244 1.3985)
(-0.100027 0.367658 1.30946)
(0.0169552 0.564436 1.21268)
(0.0875821 -0.0105684 1.53136)
(0.0602447 0.0225639 1.41113)
(-0.0621994 0.00106352 1.28115)
(-0.0772417 0.220848 1.27551)
(-0.125798 0.268333 1.27852)
(0.0760416 0.0526797 1.34361)
(0.0594516 0.0186167 1.1304)
(-0.158141 0.0949471 1.26112)
(0.0335441 0.0587894 4.03242)
(-0.213396 0.228862 3.85311)
(-0.158418 0.277936 3.93163)
(0.0124042 0.0526964 3.27408)
(-0.000818432 0.273501 2.33459)
(-0.272013 0.303755 3.27403)
(-0.0984509 0.110649 2.73548)
(-0.0188488 0.425817 2.02686)
(-0.161524 0.617703 1.35956)
(0.0410487 0.458077 1.08153)
(0.0234509 0.37995 2.21983)
(0.110437 0.175154 2.14452)
(-0.0848263 0.0746383 1.64925)
(-0.139331 0.13821 1.4791)
(-0.105064 0.426203 1.38934)
(-0.0376502 0.427614 1.39875)
(0.141902 0.0913689 1.49435)
(0.0557938 0.0532368 1.46992)
(-0.0528363 0.0470309 1.35408)
(-0.0557789 0.252179 1.38988)
(-0.102495 0.225145 1.46734)
(0.0953341 0.0543799 1.39379)
(0.0536618 0.0322133 1.21301)
(-0.149636 0.0905401 1.36543)
(0.00626181 0.110132 3.58817)
(-0.233573 0.242869 3.70063)
(-0.14099 0.300877 3.75672)
(0.0243001 0.167103 3.15619)
(-0.126638 0.131665 1.93757)
(-0.198985 0.456604 3.35491)
(-0.0783874 0.228675 2.70988)
(-0.0975706 0.544808 2.02862)
(-0.198301 0.544011 1.33272)
(0.00584492 0.194934 0.954954)
(0.0317096 0.48953 2.2414)
(0.178996 0.37353 2.24878)
(-0.0449714 0.147978 1.76675)
(-0.107987 0.295809 1.60103)
(-0.126413 0.370918 1.4918)
(-0.0806204 0.295092 1.39178)
(0.198559 0.203984 1.53158)
(0.0537826 0.0956721 1.55237)
(-0.0168825 0.106013 1.47023)
(-0.0269396 0.223032 1.51971)
(-0.0819069 0.16335 1.59171)
(0.118647 0.0568181 1.46721)
(0.0572944 0.0461949 1.31759)
(-0.11454 0.0711091 1.47862)
(0.0813646 0.0650392 3.08309)
(-0.304681 0.321553 3.53665)
(-0.0955548 0.311728 3.56863)
(0.0529162 0.208791 3.12253)
(0.02093 0.0692837 1.55481)
(-0.061552 0.561564 3.31757)
(-0.00247814 0.327412 2.72759)
(-0.122345 0.581296 2.08057)
(-0.232236 0.297826 1.22444)
(0.0442578 0.129337 0.870428)
(0.0460551 0.597946 2.20565)
(0.254718 0.565669 2.30401)
(0.0116104 0.223709 1.91587)
(-0.0273445 0.385043 1.74624)
(-0.0978815 0.260355 1.60566)
(-0.0334242 0.243188 1.22876)
(0.231177 0.282229 1.64535)
(0.0549892 0.136818 1.66545)
(0.0274066 0.155009 1.61495)
(0.00428452 0.155239 1.64151)
(-0.0868939 0.148385 1.69214)
(0.142893 0.0588844 1.56707)
(0.0680127 0.0543623 1.44276)
(-0.0679391 0.0482048 1.59517)
(0.0709254 0.0459721 2.71897)
(-0.217383 0.27879 3.18563)
(0.0214246 0.273138 3.38336)
(0.00970587 0.225337 2.99368)
(0.0655742 0.0138451 1.43224)
(-0.0439947 0.581075 3.20199)
(0.107168 0.386345 2.78962)
(-0.106319 0.569652 2.17923)
(-0.161326 0.0948538 1.0992)
(0.0501103 0.0988946 0.762258)
(0.0633111 0.607404 2.17012)
(0.292752 0.646182 2.30315)
(0.0509027 0.285041 2.077)
(0.0558449 0.383645 1.88389)
(-0.0479418 0.179659 1.68723)
(0.0026937 0.16382 1.11078)
(0.218319 0.290393 1.80769)
(0.0586963 0.169824 1.79005)
(0.0702519 0.175998 1.76538)
(0.0357497 0.0909434 1.74651)
(-0.0903947 0.135881 1.78599)
(0.161881 0.0599849 1.68626)
(0.0833991 0.0540473 1.57954)
(-0.0252041 0.030938 1.71257)
(-0.0884701 0.00493153 2.45458)