/*--------------------------------*- C++ -*----------------------------------*\
| =========                 |                                                 |
| \\      /  F ield         | OpenFOAM: The Open Source CFD Toolbox           |
|  \\    /   O peration     | Version:  5.x                                   |
|   \\  /    A nd           | Web:      www.OpenFOAM.org                      |
|    \\/     M anipulation  |                                                 |
\*---------------------------------------------------------------------------*/
FoamFile
{
    version     2.0;
    format      ascii;
    class       volScalarField;
    location    "8.15";
    object      p;
}
// * * * * * * * * * * * * * * * * * * * * * * * * * * * * * * * * * * * * * //

dimensions      [0 2 -2 0 0 0 0];

internalField   nonuniform List<scalar> 
10571
(
169.837
225.437
223.812
190.558
165.215
207.695
206.888
184.549
137.97
99.9872
207.837
202.082
181.115
175.173
165.817
157.011
199.782
197.555
184.227
180.975
167.701
250.425
242.015
228.404
77.1728
79.4073
74.3966
72.124
79.2402
99.7645
119.17
89.2785
84.1509
80.0302
150.975
158.574
121.172
123.611
79.2586
86.6489
166.776
158.684
130.153
90.7837
85.0015
154.707
161.079
117.349
72.835
69.6639
69.3134
72.4561
69.4347
64.1742
68.809
61.4757
71.3109
72.1286
63.9708
70.4129
76.5589
64.2696
68.9964
72.0422
126.724
120.83
74.0789
69.0833
72.3813
119.331
102.846
81.2606
66.6061
64.449
65.7453
66.5652
60.1578
61.7467
59.0678
56.9889
60.0313
63.691
60.1778
60.0317
57.9659
55.9264
63.3133
62.0786
65.0205
55.283
52.721
61.1611
61.0978
72.9005
63.3896
55.0717
57.8382
59.5401
62.431
55.717
57.7825
58.2533
56.4983
57.4376
54.4142
58.9487
57.818
56.5469
56.1765
58.0779
56.5426
55.553
54.5593
52.6921
53.8055
54.4967
54.9381
54.2876
54.7068
54.8642
54.448
55.4828
53.663
54.1696
55.4632
55.6405
55.2348
56.7446
53.7114
55.3645
52.2844
56.0036
55.1635
55.9215
55.5907
52.9315
53.3357
52.4061
54.1261
53.2096
53.1899
53.6284
53.5833
53.1563
53.3436
53.5955
54.0285
53.5964
53.6345
53.9122
54.3813
54.2957
54.2094
55.1514
53.2896
52.6839
51.9094
54.358
54.3929
55.7216
53.5147
51.9476
52.3353
51.9875
53.7116
51.9165
51.9513
52.1082
52.9014
52.528
51.4737
51.5713
52.1822
53.4471
52.5112
52.895
53.6516
53.7539
53.0674
53.2821
53.6754
52.2395
52.9449
51.7497
52.6352
52.6436
52.2977
51.6948
51.0561
51.906
51.426
52.5664
49.2701
49.9274
50.7056
52.2479
52.1427
50.4793
50.7528
50.9154
50.2914
51.3867
51.73
51.1507
51.1724
52.5848
49.8624
49.3656
49.3686
49.9427
52.7707
50.8443
51.2194
48.0932
48.0677
49.5595
50.4505
51.3984
49.1148
48.8466
48.7783
49.408
49.4135
49.5618
49.7733
49.8937
48.53
48.5635
48.0445
48.3568
48.1845
48.0557
47.6243
47.2888
48.1488
47.9988
48.1447
47.8308
48.5846
48.5343
49.0555
49.0782
48.6302
48.9415
48.7692
48.9901
48.3012
49.0625
49.2093
49.3083
48.5139
48.4185
48.2902
48.4897
48.4462
48.2532
48.3997
48.2609
48.3808
48.1345
48.4136
48.4145
48.7702
48.6723
48.8416
48.4277
48.5925
48.7173
48.6657
48.7508
48.6529
48.8448
48.9356
48.9961
48.5004
48.4598
48.4052
48.4171
48.4495
48.4033
48.5153
48.4984
48.546
48.4344
48.4075
48.4169
48.603
48.5597
48.7072
48.7016
48.5197
48.5567
48.5467
48.5746
48.6937
48.6983
48.7719
48.8152
48.4734
48.4343
48.4131
48.4435
48.4856
48.4676
48.4249
48.4207
48.5308
48.5428
48.4164
48.4454
48.5205
48.4776
48.6025
48.6198
48.4842
48.4864
48.4675
48.4547
48.6525
48.5886
48.6442
48.6875
48.4748
48.4751
48.4368
48.4115
48.4948
48.5355
48.421
48.4219
48.4847
48.5411
48.4465
48.4617
48.5145
48.4355
48.5289
48.5441
48.5244
48.467
48.4235
48.4163
48.6021
48.534
48.5502
48.5939
48.4631
48.4675
48.4447
48.4193
48.4919
48.4872
48.4385
48.4398
48.4763
48.5376
48.446
48.4677
48.5033
48.4168
48.4989
48.5194
48.5236
48.4528
48.4047
48.41
48.5687
48.4609
48.4995
48.563
48.4598
48.4503
48.4492
48.4461
48.4867
48.4297
48.4501
48.4386
48.4803
48.5537
48.4479
48.4674
48.4738
48.3853
48.4829
48.5088
48.4293
48.4308
48.4101
48.4054
48.5531
48.4273
48.4854
48.553
48.4771
48.4787
48.4727
48.4585
48.4991
48.4282
48.4405
48.4247
48.4697
48.5618
48.4387
48.404
48.4187
48.3392
48.4519
48.4962
48.2966
48.4108
48.4372
48.402
48.5321
48.4572
48.4861
48.547
48.5005
48.532
48.5034
48.4692
48.5089
48.4642
48.4383
48.3978
48.4836
48.5586
48.4073
48.2961
48.3947
48.3066
48.4188
48.4816
48.3691
48.3802
48.4425
48.4036
48.5187
48.4698
48.4755
48.5314
48.5326
48.6098
48.6098
48.5141
48.5134
48.491
48.4348
48.3647
48.5398
48.558
48.369
48.2018
48.3806
48.2913
48.4035
48.4742
48.4723
48.2549
48.3691
48.383
48.5148
48.4027
48.4538
48.5045
48.5578
48.6507
48.6267
48.5571
48.5308
48.5114
48.3976
48.3401
48.5387
48.54
48.3483
48.1453
48.371
48.2663
48.3751
48.452
48.7576
48.1461
48.2652
48.3684
48.4996
48.468
48.4508
48.4868
48.5684
48.6741
48.6218
48.5495
48.5249
48.538
48.3844
48.2998
48.4372
48.4844
48.4003
48.2722
48.3585
48.1897
48.334
48.4153
48.9078
48.1796
48.1873
48.3496
48.4875
48.5467
48.4988
48.5122
48.5744
48.7017
48.6254
48.5463
48.5271
48.5564
48.3971
48.2693
48.3259
48.4426
48.5104
48.4587
48.3577
48.1301
48.3267
48.4164
48.9362
48.3362
48.2317
48.3728
48.5138
48.6737
48.6124
48.6099
48.5747
48.6901
48.6144
48.5602
48.4974
48.5534
48.4311
48.3516
48.2677
48.4596
48.5779
48.4986
48.4428
48.2109
48.3516
48.4654
48.885
48.529
48.4845
48.5052
48.5955
48.8217
48.8165
48.7932
48.5604
48.6646
48.5949
48.573
48.4117
48.5056
48.4629
48.4294
48.2758
48.4887
48.5254
48.4531
48.4902
48.3197
48.4134
48.4975
48.7649
48.6324
48.7351
48.7058
48.6854
48.9037
48.9851
49.0531
48.5444
48.6524
48.5662
48.563
48.4395
48.4907
48.4488
48.458
48.2872
48.4615
48.465
48.4408
48.4587
48.3267
48.4259
48.4722
48.665
48.6164
48.7809
48.8897
48.7343
48.8212
49.0245
49.0779
48.5197
48.6131
48.5293
48.504
48.43
48.4838
48.4282
48.4276
48.3405
48.425
48.4292
48.3847
48.3766
48.2624
48.3577
48.4254
48.5892
48.5233
48.5691
48.8701
48.6664
48.6651
48.7643
48.7995
48.4834
48.5541
48.4839
48.4549
48.4029
48.4855
48.407
48.3706
48.3682
48.418
48.3968
48.2971
48.3047
48.1761
48.2596
48.36
48.4562
48.3608
48.335
48.5219
48.4579
48.5227
48.4841
48.4632
48.4404
48.5063
48.4383
48.4328
48.3964
48.4379
48.3818
48.3409
48.3418
48.3992
48.3762
48.3614
48.2902
48.1101
48.1803
48.28
48.267
48.239
48.1617
48.1078
48.2444
48.3908
48.2633
48.1682
48.3961
48.4513
48.3919
48.3927
48.3912
48.3919
48.3553
48.3179
48.3012
48.3707
48.3798
48.4035
48.2639
48.0906
48.1717
48.2315
48.196
48.1856
48.0716
47.8197
48.1265
48.2789
48.1296
47.9779
48.3331
48.3673
48.293
48.3511
48.3648
48.3448
48.3077
48.2815
48.2779
48.3536
48.3726
48.3581
48.2305
48.1227
48.1876
48.2188
48.1752
48.1895
48.0463
47.8149
48.1226
48.2319
48.0811
47.9116
48.2572
48.2825
48.1652
48.2919
48.3412
48.2815
48.2538
48.2731
48.2743
48.3441
48.3603
48.3301
48.2123
48.1578
48.1799
48.2246
48.3574
48.2287
48.0799
47.9318
48.1727
48.2379
48.1028
47.9593
48.2196
48.2362
48.169
48.2703
48.393
48.244
48.2429
48.2788
48.2762
48.3416
48.3347
48.3112
48.2109
48.2371
48.1598
48.2371
48.4232
48.264
48.1488
48.0641
48.2273
48.2725
48.1578
48.0732
48.2912
48.3152
48.2493
48.336
48.4345
48.2627
48.2685
48.314
48.2578
48.3234
48.3257
48.302
48.2249
48.354
48.1548
48.2584
48.3501
48.2756
48.2217
48.1697
48.2739
48.2984
48.2261
48.1776
48.3734
48.3996
48.26
48.3583
48.3948
48.2658
48.2762
48.3163
48.225
48.3005
48.2759
48.2886
48.2406
48.3901
48.1703
48.2664
48.2494
48.2636
48.2518
48.2355
48.2996
48.2912
48.2879
48.2662
48.3963
48.3057
48.3105
48.3558
48.3428
48.1766
48.2756
48.2926
48.1673
48.2769
48.1745
48.1647
48.2338
48.3232
48.2033
48.2758
48.1038
48.2494
48.2539
48.3128
48.3251
48.2779
48.36
48.3672
48.4108
48.2893
48.3912
48.3723
48.3613
48.1525
48.294
48.2714
48.1053
48.2843
48.114
48.0282
48.2313
48.2818
48.2708
48.2845
47.977
48.2875
48.3061
48.4102
48.3786
48.3214
48.4672
48.5097
48.4097
48.3354
48.4535
48.3852
48.3982
48.2407
48.3351
48.2982
48.1159
48.2979
48.1087
48.0064
48.2999
48.35
48.3949
48.3353
48.0627
48.4084
48.4341
48.6029
48.4825
48.4136
48.5959
48.6628
48.4202
48.421
48.4679
48.4024
48.3794
48.3656
48.3981
48.3634
48.147
48.2964
48.1831
48.1697
48.4692
48.4642
48.5043
48.4407
48.3699
48.5507
48.5763
48.7529
48.5929
48.5177
48.7021
48.7735
48.4496
48.4843
48.4886
48.4361
48.3718
48.4497
48.4705
48.4385
48.1857
48.2359
48.5986
48.4594
48.6336
48.5865
48.6215
48.5545
48.6655
48.6453
48.6703
48.8023
48.7976
48.6008
48.7508
48.8293
48.4923
48.5332
48.5186
48.4843
48.4268
48.529
48.533
48.5236
48.362
48.3154
48.8115
48.6232
48.6676
48.6956
48.799
48.7214
48.704
48.6568
48.7032
48.7626
48.8535
48.63
48.7495
48.8145
48.5407
48.5587
48.5428
48.5398
48.5231
48.5588
48.5516
48.596
48.5594
48.4939
48.703
48.6282
48.6186
48.7109
48.7831
48.7843
48.6803
48.6133
48.6883
48.7063
48.8139
48.6204
48.6973
48.7658
48.5587
48.5589
48.5432
48.568
48.6096
48.5596
48.5349
48.6183
48.6903
48.6111
48.6353
48.5967
48.5373
48.6511
48.6163
48.6846
48.6399
48.5522
48.6183
48.621
48.726
48.6256
48.5794
48.6409
48.5399
48.5362
48.521
48.5555
48.6391
48.5346
48.5002
48.5803
48.6708
48.6201
48.5791
48.5434
48.4589
48.5308
48.4348
48.5455
48.5915
48.4648
48.4832
48.5137
48.626
48.5253
48.4205
48.5051
48.5005
48.5005
48.4831
48.516
48.5761
48.4981
48.4501
48.4552
48.4959
48.5603
48.5164
48.4877
48.3873
48.3784
48.3039
48.4204
48.537
48.3545
48.323
48.4071
48.4916
48.3933
48.3075
48.3809
48.4582
48.4639
48.4422
48.47
48.4613
48.4582
48.3958
48.3325
48.2486
48.4163
48.4669
48.4322
48.3152
48.2254
48.149
48.2456
48.473
48.2449
48.1492
48.2822
48.3335
48.2949
48.2002
48.268
48.4213
48.4306
48.4097
48.4267
48.3966
48.4294
48.3646
48.2767
48.1293
48.3984
48.4428
48.4042
48.2622
48.1172
48.0113
48.097
48.4082
48.1636
47.9982
48.1786
48.1869
48.2271
48.1175
48.1965
48.418
48.4114
48.3903
48.4005
48.3696
48.4149
48.3567
48.2775
48.2446
48.3862
48.4286
48.3895
48.2384
48.0752
47.9346
48.0597
48.3618
48.1238
47.9059
48.1115
48.0952
48.1955
48.0759
48.1746
48.516
48.4231
48.3888
48.4587
48.4111
48.4233
48.3633
48.3337
48.4488
48.6141
48.4219
48.3794
48.2392
48.0808
47.926
48.1205
48.3367
48.1237
47.86
48.0814
48.0648
48.1967
48.0676
48.1806
48.519
48.4589
48.4071
48.4676
48.4993
48.4406
48.3642
48.3446
48.4296
48.4366
48.4126
48.3737
48.2518
48.099
47.966
48.198
48.3273
48.1532
47.8417
48.0594
48.1141
48.2237
48.0803
48.1944
48.4357
48.4589
48.4217
48.4022
48.4681
48.4194
48.3476
48.3104
48.328
48.3852
48.386
48.3526
48.2708
48.1281
48.0767
48.1257
48.3263
48.1994
47.8483
48.0663
48.188
48.2688
48.1181
48.1994
48.2999
48.3836
48.4188
48.2879
48.2747
48.3181
48.3091
48.2776
48.2352
48.4089
48.3391
48.3112
48.2927
48.1842
48.1513
48.1861
48.3313
48.25
47.8858
48.0234
48.2264
48.3336
48.2111
48.2089
48.257
48.3014
48.3682
48.2237
48.1264
48.1825
48.2779
48.2824
48.1855
48.3659
48.2786
48.2668
48.3143
48.2385
48.1239
48.4729
48.3469
48.3121
47.9903
47.9533
48.2626
48.4245
48.3727
48.2716
48.3596
48.2716
48.3556
48.3234
48.2797
48.0832
48.2784
48.3385
48.2647
48.3689
48.262
48.26
48.3499
48.3117
48.0135
48.3756
48.3868
48.4096
48.2107
47.9123
48.2653
48.5282
48.5513
48.4143
48.518
48.3303
48.3752
48.4813
48.4617
48.1208
48.3045
48.4049
48.3992
48.359
48.3337
48.3251
48.4075
48.4123
47.9328
48.1834
48.4596
48.5192
48.4875
48.0019
48.1991
48.6253
48.7257
48.5553
48.6321
48.3615
48.317
48.5248
48.4737
48.2678
48.3197
48.4623
48.4481
48.3522
48.4588
48.4417
48.4848
48.5223
47.9326
48.0123
48.5582
48.6287
48.7208
48.3767
48.2064
48.7075
48.8854
49.08
48.5678
48.4273
48.2935
48.5017
48.4783
48.4687
48.3582
48.5158
48.4257
48.3762
48.6258
48.6047
48.5794
48.5987
48.2321
48.0407
48.6606
48.7207
48.8529
48.6751
48.4189
48.7671
48.9161
49.0792
48.6249
48.5477
48.3558
48.5094
48.5265
48.662
48.4722
48.5601
48.4516
48.3711
48.77
48.7415
48.6622
48.6423
48.497
48.3542
48.7488
48.7822
48.8878
48.8441
48.736
48.8105
48.908
49.044
48.5609
48.6486
48.4287
48.5063
48.5503
48.8268
48.5853
48.5675
48.4761
48.366
48.8469
48.8185
48.7245
48.6493
48.517
48.3638
48.8225
48.8266
48.8681
48.8988
48.79
48.8432
48.8922
48.9857
48.5465
48.7815
48.4914
48.4901
48.4957
48.9349
48.6771
48.5068
48.3454
48.174
48.9239
48.892
48.7702
48.6145
48.4158
48.1831
48.8945
48.8645
48.8368
48.8342
48.5878
48.8785
48.8807
48.9209
48.556
48.9804
48.6157
48.4833
48.4299
49.0771
48.7692
48.4031
48.0188
47.6175
49.0347
48.9892
48.8201
48.5368
48.2518
47.7101
48.975
48.9072
48.7986
48.7283
48.4289
48.9159
48.8811
48.8992
48.5969
49.1691
48.8012
48.5143
48.2836
49.213
48.8461
48.2806
47.5942
46.5701
49.1561
49.102
48.8677
48.4128
47.938
46.4085
49.0688
48.9653
48.7544
48.6301
48.1432
48.9758
48.9154
49.0114
48.6732
49.2701
48.9746
48.5606
48.0099
49.3392
48.9233
48.1484
47.0313
43.9819
49.2798
49.2269
48.9222
48.2488
47.3384
43.089
49.1769
49.0416
48.6972
48.4644
47.3052
49.068
48.99
49.4121
48.7978
49.4999
49.1731
48.6399
47.8477
49.539
49.0527
48.056
46.4686
36.7083
49.4327
49.3603
48.9866
48.1333
46.5003
37.9855
-32.3682
49.2966
49.1192
48.6524
47.9131
45.0593
49.1954
49.0238
49.1617
48.9866
49.9382
49.3849
48.8551
48.0613
49.8648
49.2197
48.2766
46.2988
32.947
0.472147
49.6113
49.5005
49.0308
48.1632
45.6315
36.2445
5.39573
49.4157
49.2397
48.5978
47.0238
41.2885
49.3545
49.0962
48.6078
49.2001
50.1399
49.5371
49.1711
48.6061
49.9152
49.2755
48.4711
46.7808
38.1253
10.6574
49.7351
49.6015
49.0233
48.1572
45.3505
35.9385
11.0272
49.512
49.3663
48.6174
47.2829
39.0627
10.8024
49.4882
49.3259
48.4488
49.2444
49.6645
49.3768
49.2783
49.1822
49.6531
49.1743
48.4839
47.1102
39.3877
12.7549
49.6119
49.4365
49.0675
48.1804
46.4037
37.8799
8.59645
49.5394
49.418
49.1301
47.3504
39.393
49.5604
49.4223
48.448
48.8723
48.1051
48.6491
48.7855
49.0552
48.927
48.7703
48.2002
46.8124
43.482
49.4499
49.2932
49.1826
48.5047
46.6645
40.3325
-14.6105
49.5492
49.6289
49.3422
47.7257
43.6119
49.6694
49.462
48.5581
48.0642
46.7584
47.7267
47.7168
48.0481
48.4498
48.0277
47.6454
46.4174
46.2138
49.1338
48.9232
48.8226
48.4204
46.7872
44.3888
49.5468
49.8149
48.9681
47.6726
46.1843
49.8731
49.5107
48.599
47.3474
47.7255
46.9345
46.6675
46.9972
48.4306
47.7445
47.1561
46.223
47.0403
48.9029
48.7425
48.7852
48.0656
47.032
46.3683
49.409
49.7003
48.7875
47.8383
47.5349
50.1025
49.5152
48.8083
47.4805
49.3178
47.1232
46.7053
47.0867
48.6418
47.8507
47.1621
46.7363
47.7602
48.8823
48.765
48.6221
47.995
47.5141
47.5567
49.3718
49.51
48.7493
48.2149
48.3931
50.0915
49.4928
49.1056
48.5851
48.8316
48.5781
47.8559
48.349
48.9171
48.1136
47.6474
47.8383
48.8706
49.1767
48.989
48.5558
48.1894
48.2008
48.5511
49.5268
49.2891
48.9504
48.7189
49.1377
49.975
49.6492
49.5271
49.7198
49.728
49.6632
49.2058
49.8913
49.2556
48.5463
48.3866
48.921
49.9459
49.6473
49.1117
48.5925
48.5828
48.9372
49.3142
49.5765
49.2825
49.3226
49.3119
49.8647
50.0342
49.9762
50.0561
50.8563
50.2192
50.7729
50.2943
50.762
49.5185
49.1239
48.9532
49.6586
50.3705
49.6244
49.0263
48.7723
49.0156
49.5979
50.0184
49.3649
49.3717
49.7698
49.9322
50.5976
50.2484
50.41
50.6499
52.733
50.5373
50.913
51.3411
51.9846
49.6857
49.6348
49.3545
50.0633
50.9899
49.4556
48.8731
48.9251
49.2375
49.7484
50.7202
48.9529
49.0048
49.7642
50.486
51.2936
50.4985
50.8944
51.3293
54.8504
50.8286
51.2213
52.3103
52.9422
49.8611
49.9746
49.9334
50.8422
51.5375
49.4336
49.0011
49.1843
49.5556
50.2309
50.9752
48.6977
49.2105
50.1305
50.7631
51.4638
50.7016
51.2303
51.5105
249.696
242.384
264.795
254.702
215.728
221.693
220.105
213.435
241.076
240.801
249.728
242.414
236.746
248.686
246.272
228.758
244.313
219.301
212.65
215.669
197.599
204.637
192.396
185.303
187.347
172.086
238.254
213.305
222.502
228.241
222.081
210.555
208.162
217.098
233.172
206.511
221.301
224.539
197.033
227.621
227.957
173.823
171.77
181.775
164.269
181.23
200.179
205.126
223.077
232.187
256.917
213.506
214.158
241.327
239.01
237.178
255.1
253.018
254.626
213.211
225.499
213.125
197.974
193.32
179.129
180.959
190.236
195.755
194.578
207.498
273.325
269.089
252.177
278.942
280.093
248.174
245.827
264.718
257.846
219.721
211.165
247.777
239.635
202.889
229.218
250.203
250.98
227.341
306.322
332.493
326.954
323.589
308.495
277.328
305.796
261.879
232.235
159.347
188.965
225.929
201.785
90.5757
138.124
95.4257
158.966
167.669
92.1907
87.0206
92.1177
173.678
100.883
212.997
111.381
229.587
225.737
220.277
135.833
143.252
116.074
136.749
161.237
160.592
138.5
94.0915
95.3749
84.2742
85.4118
110.758
81.2668
208.042
191.859
191.562
160.912
178.838
176.872
123.069
130.527
80.3335
87.9
89.6537
214.358
226.021
189.112
179.918
185.401
147.772
154.833
106.624
104.372
100.773
221.17
174.121
205.589
221.749
208.622
169.597
167.507
174.444
176.237
169.269
212.361
199.943
127.755
100.172
137.771
113.907
103.778
235.955
178.173
258.881
263.94
174.551
191.019
202.874
236.517
249.913
207.532
197.126
211.461
173.524
88.3107
71.3294
75.7531
83.4222
75.0978
77.8709
73.8138
77.1331
77.1971
77.7738
76.2394
77.424
76.2819
78.9662
75.9698
70.6302
67.3909
77.8245
73.2228
74.2298
70.9803
70.5764
68.4786
67.6969
80.7152
74.4457
79.8147
76.8583
75.9908
75.5496
77.437
79.3226
77.2388
81.2225
163.784
157.042
63.685
76.1577
70.4002
80.1335
78.6892
77.247
75.9478
75.1996
147.211
149.96
91.2522
92.182
121.71
84.53
83.9542
78.4241
76.2652
76.7695
161.046
143.686
161.572
160.353
164.266
157.147
156.424
148.652
149.856
82.3232
100.697
88.5737
77.797
77.9928
88.6815
81.8845
78.3853
161.271
145.555
157.366
161.426
136.076
133.005
133.775
146.3
163.117
127.688
114.468
130.997
96.4567
69.5441
66.8917
74.8169
71.1143
76.2259
69.145
66.2466
69.8552
74.72
72.7452
69.5608
70.4801
69.0171
70.6309
66.0349
67.0563
65.1838
70.3205
68.1858
68.4142
67.1123
68.3883
66.1681
66.2969
68.6671
70.3196
70.825
63.2929
64.3245
65.0277
64.4966
72.4773
67.2103
64.31
60.4559
59.833
63.608
61.9176
62.0787
71.2198
71.133
67.5049
66.8702
67.1715
65.6556
86.8885
61.2625
61.2207
65.8936
70.4673
71.4774
67.2028
66.3255
68.1751
113.799
83.0667
129.409
128.055
130.191
89.8764
85.4541
99.9517
100.824
72.7285
73.3653
69.4775
63.7882
69.3605
56.1026
61.1644
67.2196
125.316
100.579
114.081
112.87
97.9158
93.9712
93.273
92.3942
107.156
81.2918
68.8819
86.3574
58.2683
64.044
61.1315
64.509
62.3195
64.0399
61.232
59.4249
60.2437
66.8392
65.2407
62.8114
62.4111
60.0021
61.7235
58.7839
62.9299
60.9071
65.8872
63.4593
63.4521
61.9071
63.0667
60.9253
61.1637
61.5794
61.6973
60.9676
59.0164
59.4606
59.8032
59.2417
63.0614
60.7813
61.9794
60.8914
60.9482
60.226
59.572
59.4047
62.7515
63.4037
60.8211
59.3968
60.2741
59.9604
59.5996
59.0024
58.7738
57.4473
62.1819
63.2543
57.4661
58.9626
57.7898
64.8161
58.2234
56.7977
74.3386
69.5751
56.4425
53.3443
59.6649
55.6979
63.6027
54.3131
57.1156
57.8859
56.1686
54.8545
55.3477
56.7286
74.225
58.1739
72.9732
73.4886
57.3404
59.5356
60.8567
55.1763
68.0304
55.2317
54.1888
57.6377
55.2702
58.5782
56.3218
58.8459
57.0713
57.5971
56.2021
55.5567
56.0062
57.5007
56.5836
55.0287
55.523
55.6332
57.3688
56.3128
59.2922
58.1528
59.5537
58.7874
59.1934
57.3065
56.6141
57.0482
57.2729
57.8103
58.3248
58.0168
56.4527
56.3524
56.8835
56.7841
58.9522
57.0759
58.8489
58.4587
58.2875
58.1082
57.5971
57.4873
56.651
58.0073
57.544
54.3297
54.7468
57.5964
56.216
56.8732
56.6071
55.5625
56.8757
55.3346
54.5685
54.8999
54.4318
55.7702
54.8307
53.9224
55.0755
54.4317
54.1929
53.8671
54.2499
54.0855
53.7385
54.4955
54.6301
54.1854
53.8945
54.1038
54.4201
54.4092
54.7366
53.8921
54.4596
55.4585
53.3112
52.8366
53.1984
54.6303
55.0097
54.0023
53.8642
54.0346
54.1984
55.0087
54.2649
54.7498
54.7951
54.9501
54.1961
54.3482
54.2186
54.8469
55.0265
54.2195
54.427
54.4988
55.3782
54.7831
57.4761
56.6319
54.8987
56.143
55.7673
54.2978
53.9242
55.5595
54.8907
55.2557
55.7804
55.5261
54.7827
54.5967
55.0334
54.537
54.6172
52.7943
57.5695
56.8651
56.7517
56.6436
55.8432
55.9191
53.0096
52.0161
56.6064
52.7521
49.4273
51.5016
51.125
52.1896
52.5073
52.2542
51.823
52.223
51.7088
52.197
55.8097
54.9638
55.1118
55.0859
54.4113
55.2023
53.6224
52.9997
52.4745
51.4211
52.6526
51.8783
52.1916
52.6843
52.6303
51.7597
52.111
52.4959
52.8842
54.3672
54.1204
53.8357
54.2482
53.936
54.0598
53.8034
54.1863
53.8012
53.5672
53.6152
53.8938
52.6705
53.0247
52.893
53.2498
52.9096
53.5977
53.0679
52.9919
52.9043
52.4032
52.4492
52.4882
53.3958
53.0809
52.4588
52.7525
52.3302
52.9044
53.6832
53.2385
53.813
53.909
53.7693
53.4725
53.5084
53.4105
54.1433
54.0636
53.7481
53.8064
53.6653
54.4425
54.0952
55.244
53.8364
53.2865
54.7134
54.3238
53.1047
52.8142
53.7765
53.7937
54.0168
54.7597
53.8545
54.2147
53.5828
54.9846
53.4922
53.1003
50.7606
54.3365
52.8252
51.8212
52.1113
51.8421
52.131
55.3215
54.7932
54.9812
54.0437
53.8452
54.0668
51.0939
51.92
52.2963
52.961
51.9984
52.1915
52.2317
52.2364
52.0118
52.3155
51.8106
52.2383
51.8178
52.2201
54.4114
53.8266
53.5455
53.6388
52.9834
52.3506
52.6086
52.7934
52.2179
52.1214
52.4948
52.5867
52.1674
52.3596
52.7696
51.7732
52.0946
52.0947
52.537
53.7003
53.1379
53.6877
53.5368
53.1104
53.261
53.3311
52.6133
51.3642
52.5246
52.0932
52.5057
51.6202
51.9655
51.3399
51.6801
52.8937
52.6914
52.8382
52.8923
52.2728
52.7547
51.9636
50.8688
51.6951
51.8257
50.9301
51.0813
51.4111
51.9788
51.6858
51.1951
51.4466
51.4403
51.5344
52.7821
52.1144
53.0161
53.0025
52.9711
51.3748
52.2531
51.8052
53.3531
53.2415
52.7706
52.8822
52.8437
53.6698
53.1223
52.8969
52.3985
52.4478
52.9574
53.3293
51.9316
52.0116
52.2714
52.8901
53.2327
55.0825
53.2413
53.1464
52.6879
54.4514
52.5992
54.5953
53.5948
53.0088
53.9806
52.1111
52.2494
52.589
52.6243
53.227
53.1446
53.3495
52.7691
52.6112
52.77
52.3223
52.225
52.2343
51.5774
52.3456
51.7007
51.9984
52.1596
51.7796
52.2018
52.2109
52.6659
51.8952
52.3103
52.5699
52.293
51.7654
51.5703
51.6236
51.8545
52.2552
52.2775
51.2529
51.4611
51.6185
51.8499
52.0706
51.7595
52.4948
51.3426
52.0918
51.6905
52.5623
52.437
51.3712
51.754
50.6406
49.6971
51.0668
49.6024
49.3036
49.2416
51.1679
50.619
50.936
49.8599
50.4739
50.1211
50.4039
52.4443
51.0302
51.8026
52.7304
51.9852
52.744
50.1119
49.7577
50.5633
50.7257
49.9961
50.0713
50.16
50.9185
50.8355
50.2407
50.3573
50.3414
50.3579
51.3108
49.9663
49.8114
51.1622
49.8643
48.9339
49.5338
48.8554
50.9268
51.3297
48.9448
48.9072
48.9594
51.4937
49.1468
51.4767
48.8737
51.4041
51.8136
52.3568
50.019
50.3606
50.1975
50.5944
50.7733
51.1182
50.2169
48.7144
48.7129
47.4484
48.3227
50.3238
48.4114
51.9976
52.1486
52.3636
49.1309
49.7207
50.0507
52.8307
50.5569
51.8731
48.7203
52.9569
49.3943
51.4671
52.8084
52.2335
52.6114
53.154
53.0031
52.7935
53.0362
50.7228
50.6513
49.1876
49.1429
49.034
50.9844
50.7473
51.5425
49.5637
50.3772
49.1789
49.9795
52.1524
51.4914
52.5986
52.2385
52.3313
51.9104
52.7287
49.53
48.6672
48.7914
48.9676
49.1527
48.523
48.6701
48.8702
49.0324
49.8674
49.7468
49.9431
49.1687
49.4597
49.4732
49.568
48.5141
49.4694
49.1996
49.6267
49.6955
49.2652
49.3079
49.3442
49.8222
49.8511
49.4395
49.4281
49.4686
49.551
48.6636
48.3152
48.6229
48.3679
48.5426
48.5447
48.2257
48.4939
48.4428
48.1407
48.485
48.4522
48.2896
48.2151
48.2855
48.0757
48.2853
48.6372
48.2028
48.0282
48.1741
48.0308
48.0787
47.7035
48.1836
47.8171
48.1168
48.3444
48.3673
48.3897
48.3953
48.0463
48.4629
47.8729
47.9566
47.7979
48.2471
48.1846
48.1359
48.7651
51.201
47.9863
48.2084
45.5433
48.0405
48.3286
48.2938
48.2692
48.4779
50.6988
47.9745
48.3876
46.336
47.9093
48.6571
48.6798
48.7264
48.7855
48.9075
48.6558
48.7236
48.7088
48.7943
49.2054
49.2607
49.289
48.8576
49.0766
49.0979
49.1092
48.5283
48.9995
48.8818
49.0883
49.1002
48.9399
48.963
48.9754
49.1727
49.2034
49.0513
49.0196
49.0395
49.1293
48.4925
48.5554
48.5223
48.423
48.5047
48.5101
48.4765
48.5069
48.4965
48.4162
48.5238
48.4983
48.4504
48.4053
48.4561
48.3829
48.3938
48.3246
48.3493
48.2174
48.4913
48.4834
48.4333
48.4052
48.5233
48.5721
48.5265
48.4531
48.5239
48.5545
48.5269
48.599
48.5769
48.3731
48.3563
48.3494
48.3695
48.3615
48.3252
48.1628
47.0612
48.2976
48.3707
48.2833
48.4376
48.5567
48.4245
48.4403
48.5278
47.6672
48.1965
48.6216
48.5874
48.436
48.6408
48.5839
48.6622
48.6632
48.7067
48.5476
48.6056
48.6277
48.6393
48.9943
48.9727
48.9976
48.6584
48.9377
48.8723
48.9193
48.694
48.7948
48.7167
48.8633
48.8831
48.7688
48.7824
48.7992
48.9176
48.9222
48.8474
48.8379
48.8354
48.8971
48.5055
48.46
48.4875
48.4452
48.4875
48.4607
48.421
48.464
48.4826
48.4456
48.4792
48.4716
48.4499
48.4724
48.488
48.4013
48.418
48.4549
48.415
48.3892
48.4366
48.4158
48.4093
48.3769
48.5059
48.5356
48.5138
48.4711
48.5172
48.5022
48.5063
48.5298
48.537
48.3782
48.3601
48.3352
48.4089
48.3836
48.3743
48.5394
48.5906
48.5135
48.596
48.6186
48.4122
48.4833
48.4025
48.4064
48.46
48.7079
48.5553
48.677
48.672
48.5847
48.5357
48.5036
48.5655
48.5819
48.5814
48.4975
48.5309
48.536
48.5248
48.8776
48.7859
48.8485
48.4987
48.8134
48.7163
48.7895
48.6771
48.6429
48.579
48.7058
48.7185
48.6378
48.6375
48.6483
48.7658
48.7583
48.7037
48.7025
48.6904
48.7471
48.4488
48.4634
48.4503
48.4242
48.4562
48.457
48.4431
48.464
48.4702
48.472
48.4761
48.4757
48.4903
48.5004
48.508
48.4369
48.4493
48.4084
48.4203
48.3927
48.4556
48.4269
48.4309
48.4187
48.5276
48.4911
48.5115
48.4925
48.5329
48.4887
48.5256
48.5605
48.576
48.4421
48.4194
48.4092
48.4644
48.4472
48.4338
48.5805
48.6011
48.5475
48.5539
48.5868
48.4221
48.4528
48.4368
48.4395
48.449
48.6467
48.572
48.5729
48.6363
48.5585
48.4922
48.5049
48.4968
48.4976
48.4701
48.4961
48.4754
48.477
48.4328
48.7532
48.6555
48.738
48.4307
48.6989
48.6022
48.6897
48.6314
48.5317
48.5021
48.5801
48.5918
48.5576
48.5392
48.5524
48.6431
48.6328
48.5905
48.5912
48.5804
48.6329
48.4761
48.4761
48.465
48.4612
48.4734
48.467
48.4705
48.4736
48.4794
48.4996
48.4672
48.4729
48.498
48.5096
48.5077
48.4553
48.4544
48.4463
48.4371
48.4279
48.4782
48.4544
48.4412
48.4149
48.533
48.4845
48.5236
48.4962
48.5311
48.4737
48.5137
48.5703
48.5536
48.4699
48.4641
48.4496
48.4692
48.4664
48.4548
48.5341
48.5774
48.536
48.5226
48.5682
48.4483
48.4483
48.4456
48.4501
48.4527
48.628
48.5477
48.5296
48.6188
48.5399
48.5278
48.5407
48.4712
48.4845
48.427
48.5361
48.4681
48.4863
48.4294
48.6528
48.5654
48.6499
48.4122
48.6188
48.5438
48.6215
48.5816
48.4898
48.4654
48.5141
48.5274
48.5021
48.4958
48.5078
48.5537
48.5397
48.5181
48.5294
48.5037
48.5728
48.4695
48.4638
48.465
48.4687
48.4706
48.4643
48.4628
48.4702
48.4664
48.4885
48.4592
48.4655
48.4813
48.502
48.4964
48.4478
48.4415
48.4522
48.4396
48.3973
48.4544
48.4513
48.4331
48.3961
48.5255
48.4661
48.5113
48.4871
48.522
48.4645
48.5168
48.5452
48.5455
48.4619
48.4646
48.4575
48.4495
48.4634
48.4557
48.5159
48.5576
48.5454
48.5141
48.5496
48.4527
48.4663
48.4486
48.4597
48.4762
48.6077
48.536
48.5134
48.5993
48.5361
48.5357
48.5128
48.4615
48.4714
48.4292
48.4932
48.4474
48.4494
48.4173
48.5954
48.5334
48.6034
48.4071
48.5798
48.5255
48.5909
48.5622
48.4378
48.4498
48.4772
48.4921
48.436
48.4584
48.4879
48.5247
48.479
48.489
48.5306
48.4769
48.5562
48.4674
48.4822
48.4727
48.4637
48.476
48.4841
48.4752
48.4893
48.4664
48.478
48.4681
48.4689
48.4765
48.4943
48.4962
48.4403
48.4479
48.456
48.4351
48.4194
48.4606
48.4642
48.4535
48.4536
48.5201
48.4765
48.5243
48.4917
48.5196
48.4931
48.527
48.5468
48.5454
48.4406
48.4575
48.4492
48.4354
48.4494
48.4417
48.516
48.546
48.5608
48.5168
48.5446
48.4684
48.4669
48.447
48.4693
48.4428
48.5915
48.5353
48.503
48.5847
48.5295
48.4753
48.4275
48.4177
48.4085
48.4072
48.3594
48.3842
48.3251
48.3886
48.5671
48.52
48.5789
48.4045
48.5532
48.515
48.5683
48.5434
48.4654
48.4732
48.4481
48.4942
48.4377
48.4432
48.4997
48.5363
48.5038
48.4832
48.5354
48.5465
48.5493
48.5054
48.5339
48.4941
48.4912
48.5031
48.5071
48.5062
48.5157
48.4746
48.4794
48.4888
48.4859
48.4858
48.5011
48.5078
48.4662
48.4911
48.4761
48.48
48.4997
48.5022
48.505
48.5024
48.5314
48.5215
48.5207
48.5259
48.5065
48.5215
48.5412
48.5204
48.5428
48.5418
48.4382
48.4459
48.4392
48.4523
48.4449
48.4431
48.5149
48.5412
48.5591
48.5144
48.5365
48.4528
48.4231
48.4198
48.4313
48.4027
48.5755
48.5211
48.4883
48.5659
48.511
48.3942
48.3892
48.3663
48.3285
48.3805
48.299
48.3497
48.4059
48.4093
48.538
48.5096
48.5564
48.4056
48.5258
48.5063
48.5467
48.5234
48.5
48.5109
48.4294
48.5037
48.4743
48.415
48.5166
48.5253
48.5823
48.4859
48.5051
48.6073
48.5411
48.5624
48.5937
48.5202
48.5258
48.5301
48.5376
48.5527
48.5474
48.4995
48.4955
48.516
48.5136
48.5066
48.5126
48.515
48.5133
48.5286
48.5523
48.5226
48.5519
48.5713
48.6078
48.5441
48.5571
48.5134
48.5523
48.5125
48.5075
48.5066
48.5502
48.505
48.5408
48.5369
48.4701
48.4459
48.4507
48.4832
48.4487
48.4532
48.5157
48.5343
48.5606
48.5178
48.5334
48.4239
48.3732
48.3941
48.4094
48.3621
48.5569
48.5041
48.4787
48.5515
48.5022
48.4115
48.4425
48.3427
48.6175
48.4422
48.4328
48.3492
48.6325
48.3841
48.5155
48.4989
48.534
48.3897
48.507
48.4833
48.5209
48.5172
48.4909
48.4453
48.412
48.5294
48.4306
48.4104
48.532
48.4854
48.6139
48.4662
48.469
48.5841
48.5174
48.6264
48.6547
48.5626
48.5782
48.568
48.5858
48.5874
48.5842
48.5268
48.5178
48.5472
48.536
48.5207
48.5225
48.5284
48.5417
48.5567
48.6599
48.5641
48.5669
48.6359
48.6969
48.5812
48.5833
48.5097
48.5469
48.5003
48.5253
48.5188
48.5361
48.4969
48.5325
48.5293
48.4912
48.4502
48.4492
48.5007
48.4453
48.4408
48.5206
48.5331
48.5506
48.5196
48.531
48.3755
48.3521
48.35
48.3518
48.3673
48.5448
48.4984
48.4663
48.5348
48.4913
48.4701
48.5329
48.3751
48.4505
48.2316
48.5978
48.4225
48.3965
48.176
48.4994
48.4698
48.5075
48.3731
48.49
48.4537
48.4951
48.5083
48.4058
48.4114
48.3894
48.5121
48.4239
48.3589
48.4892
48.455
48.5718
48.4526
48.4515
48.5694
48.4947
48.6755
48.6923
48.6016
48.595
48.5923
48.6106
48.6109
48.5956
48.5394
48.5178
48.5638
48.5415
48.5163
48.5294
48.5292
48.5751
48.5934
48.7127
48.5977
48.6042
48.6625
48.7142
48.6187
48.6222
48.5229
48.5238
48.4892
48.5297
48.517
48.5139
48.4754
48.5205
48.5009
48.5137
48.437
48.431
48.5233
48.4318
48.4217
48.5099
48.5251
48.5152
48.4832
48.5094
48.3444
48.4126
48.3662
48.3575
48.4714
48.518
48.4838
48.4317
48.4961
48.4753
48.6239
48.7022
48.4504
48.4659
48.2282
48.8612
48.4723
48.5627
48.3085
48.4809
48.4397
48.4849
48.3546
48.4692
48.436
48.4776
48.4903
48.4676
48.5324
48.3478
48.4821
48.5068
48.3647
48.4951
48.4526
48.5654
48.4631
48.4643
48.5726