/*--------------------------------*- C++ -*----------------------------------*\
| =========                 |                                                 |
| \\      /  F ield         | OpenFOAM: The Open Source CFD Toolbox           |
|  \\    /   O peration     | Version:  5.x                                   |
|   \\  /    A nd           | Web:      www.OpenFOAM.org                      |
|    \\/     M anipulation  |                                                 |
\*---------------------------------------------------------------------------*/
FoamFile
{
    version     2.0;
    format      ascii;
    class       volVectorField;
    location    "8.15";
    object      Us;
}
// * * * * * * * * * * * * * * * * * * * * * * * * * * * * * * * * * * * * * //

dimensions      [0 1 -1 0 0 0 0];

internalField   nonuniform List<vector> 
10571
(
(-0.138991 -0.0228205 0.0497977)
(0.0831969 -0.0246513 -0.0180012)
(0.192339 0.00808562 0.182607)
(-0.157983 0.0341558 0.0909758)
(-0.114943 0.0676107 -0.0247087)
(0.17348 0.0372718 -0.0674517)
(0.293265 0.171881 0.187833)
(0.0623953 0.17441 0.161405)
(-0.258534 -0.00974931 0.176104)
(-0.0960806 -0.162647 -0.097603)
(-0.0197153 -0.0295041 0.0408395)
(0.132203 0.232545 0.113245)
(0.187104 0.0435261 0.207202)
(0.0358094 -0.00455593 0.163825)
(-0.150531 -0.0632269 0.22761)
(-0.0681218 -0.100907 -0.0418831)
(0.101328 -0.0696749 -0.008271)
(0.08568 -0.290301 0.170327)
(-0.132728 -0.256974 0.140783)
(-0.0491263 -0.198089 0.0397747)
(0.00979305 -0.0890442 -0.1342)
(-0.040696 -0.102744 -0.174612)
(0.00939323 -0.105378 -0.0423661)
(0.0775932 -0.0833746 -0.117589)
(0.0972285 0.0116882 -0.375612)
(0.00545277 0.0338182 -0.122469)
(0.145355 0.0666238 0.206741)
(0.165931 -0.145732 -0.00439122)
(0.0173571 -0.00930576 -0.278618)
(0.156071 -0.309814 -0.0623776)
(0.229007 -0.112857 0.247336)
(0.135515 -0.208409 0.258203)
(-0.0385529 -0.220452 0.152426)
(0.064673 -0.136663 -0.259071)
(0.00149166 -0.103499 -0.125739)
(0.116749 -0.11453 0.00858097)
(0.175785 -0.143758 0.297178)
(0.0250086 -0.22933 0.252548)
(-0.0606016 -0.192587 0.275186)
(0.00877655 -0.100133 -0.382587)
(-0.0718891 -0.0774708 -0.220515)
(-0.00855924 -0.170816 -0.0241749)
(0.116638 -0.172697 -0.0106352)
(0.107362 -0.152891 0.0502068)
(0.0537095 -0.0665908 -0.407236)
(0.00110365 -0.00847907 -0.362528)
(0.0399811 -0.0500101 -0.31725)
(0.0688182 -0.0575755 -0.274199)
(0.101705 0.00548586 -0.362237)
(-0.0167759 0.000865518 -0.350351)
(-0.0104486 -0.0322428 -0.0211271)
(0.249367 -0.101144 0.197164)
(0.101385 0.00594995 -0.183394)
(-0.0626739 -0.0456083 -0.026723)
(0.11865 -0.227508 0.182576)
(0.145543 -0.283255 0.252043)
(0.0111582 -0.174866 -0.060182)
(0.076798 -0.112045 -0.264606)
(-0.00195845 -0.124176 -0.273697)
(0.0390908 -0.165195 -0.0359293)
(0.116465 -0.270424 0.150392)
(0.110601 -0.224245 0.224076)
(0.0664541 -0.175527 0.159144)
(0.044159 -0.0503347 -0.368256)
(-0.0643491 -0.0888701 -0.203722)
(-0.0161499 -0.0814298 -0.216769)
(0.0313937 -0.0479895 -0.28937)
(0.140501 -0.0974953 0.0012673)
(0.0582943 -0.0672262 -0.330815)
(0.00997158 0.00351495 -0.388067)
(0.00767973 -0.010904 -0.400226)
(0.0135463 -0.0023704 -0.39998)
(0.00876294 0.00465043 -0.274417)
(0.00448205 -0.00828607 -0.29995)
(-0.0924813 0.111206 -0.0349774)
(0.101185 0.0335775 -0.0574354)
(0.0235997 0.00430182 -0.159187)
(-0.144773 0.128082 -0.0327)
(-0.0106494 -0.12312 0.162651)
(0.0391821 -0.210123 0.26354)
(0.0247097 -0.142771 -0.0892612)
(0.0684096 -0.131606 -0.0770461)
(-0.00852911 -0.045423 -0.356242)
(-0.0820061 0.0796476 0.0014094)
(0.0718719 -0.233895 0.226271)
(0.0431152 -0.151284 0.235946)
(0.0692449 -0.0537623 -0.114057)
(0.0580442 -0.0376298 -0.283992)
(-0.0325774 -0.0436698 -0.244357)
(-0.0304437 -0.0077099 -0.303744)
(-0.0137974 0.0117569 -0.365351)
(0.0796162 0.0451094 -0.161644)
(0.0539851 -0.0508983 -0.192619)
(0.00962624 -0.00632972 -0.384431)
(0.00952011 -0.0014087 -0.41049)
(0.0327558 -0.026227 -0.404422)
(-5.36104e-05 -0.00184356 -0.18468)
(0.0371306 -0.0319218 -0.27558)
(-0.0562788 0.018766 -0.038086)
(0.0942611 -0.0150696 -0.0144172)
(-0.0552996 -0.000550249 -0.119449)
(-0.141729 0.130364 0.0234204)
(-0.101336 0.0452067 0.113185)
(-0.107147 -0.154536 0.228939)
(0.0610896 -0.109097 -0.0297389)
(0.0226565 0.00419945 0.0289952)
(0.00716362 0.00180367 -0.254253)
(-0.178182 0.0694546 0.0536632)
(-0.105275 -0.0608218 0.271954)
(-0.075229 -0.0997895 0.161733)
(0.0971218 -0.0293592 -0.120835)
(-0.043726 -0.00175405 -0.257527)
(-0.0156911 0.019558 -0.241144)
(-0.0176311 0.0929852 -0.340369)
(0.0152606 0.0777997 -0.327889)
(0.0760721 0.0695509 -0.180154)
(-0.000335729 -0.0770983 -0.210776)
(0.0237953 0.0378196 -0.404235)
(0.0483653 0.0426471 -0.419793)
(0.0687696 -0.0385583 -0.421291)
(0.0145717 0.00619903 -0.185874)
(0.0469212 -0.037711 -0.242124)
(-0.0314004 -0.059477 -0.0695023)
(0.0486085 -0.121923 0.00131096)
(-0.0439926 -0.00397187 5.35678e-05)
(-0.0760603 0.110126 0.0590593)
(-0.118868 -0.0137907 0.161841)
(-0.0215927 -0.12663 0.158684)
(0.0872303 -0.0837228 0.0327436)
(-0.0371917 0.0422222 -0.025556)
(-0.0229204 0.015568 -0.0109063)
(-0.00532681 0.00241756 -0.169998)
(-0.207025 0.111614 0.128089)
(-0.11774 -0.0264526 0.114185)
(0.00523739 -0.0255207 0.00497274)
(0.100717 -0.0091422 -0.0739028)
(-0.0409486 -0.0109792 -0.1675)
(-0.0101793 -0.0023458 -0.00410687)
(-0.0329701 0.0342642 -0.17586)
(-0.0149746 0.152388 -0.270261)
(0.0625117 0.104132 -0.216967)
(0.0987863 0.0641819 -0.152954)
(0.176389 0.081938 -0.234653)
(0.0406305 0.102756 -0.34416)
(0.0790203 0.110043 -0.35198)
(0.0838806 0.000319863 -0.321445)
(0.0321897 0.00466908 -0.151028)
(0.0336887 -0.0317296 -0.180402)
(-0.0683601 -0.123095 0.0048511)
(-0.0719265 -0.294797 0.308706)
(0.0308182 -0.10527 0.118063)
(-0.117792 0.0697521 0.160858)
(-0.117689 -0.0607606 0.205472)
(0.0122449 -0.1692 0.288076)
(0.0801524 -0.0932943 0.198009)
(0.149002 0.122838 0.123072)
(0.0972836 -0.00729189 -0.0470114)
(-0.0380087 -0.00332572 -0.0840292)
(-0.217876 0.103887 0.164831)
(-0.0820418 0.0275737 0.0562277)
(0.0758063 0.0487864 0.0226827)
(0.202415 0.0960303 -0.104052)
(0.234894 0.0506503 -0.161318)
(0.0111539 0.0426746 0.0157393)
(-0.0287563 0.00435924 -0.154236)
(0.00489981 0.145466 -0.224192)
(0.0740857 0.136797 -0.245938)
(0.158162 0.123091 -0.092523)
(0.156171 0.0826112 -0.137556)
(0 0 0)
(0.0263851 0.189401 -0.280116)
(0.0642314 0.154707 -0.321117)
(0.112754 0.223549 -0.27059)
(0.0567904 -0.00833757 -0.0928818)
(0.0137078 -0.0234514 -0.113201)
(-0.113475 -0.160781 0.156227)
(-0.0104096 -0.317657 0.30521)
(0.0694713 -0.118557 0.213615)
(-0.0926638 -0.00132264 0.189017)
(-0.0141937 -0.0230207 0.0607047)
(0.104722 -0.0407658 0.0369212)
(0.218754 -0.0333099 0.0511666)
(0.128251 0.159916 0.125934)
(0.388675 -0.0200344 -0.0015996)
(-0.100827 0.029698 0.0136888)
(-0.21004 0.0813399 0.183982)
(0.0148193 0.0682082 -0.130499)
(0.0936261 0.0791085 -0.127981)
(0.179303 0.0915017 -0.118092)
(0.251185 0.077408 -0.0893452)
(0.342065 0.00392383 -0.0336451)
(-0.0562295 0.0560266 -0.0895205)
(0.0147287 0.111853 -0.175044)
(0.0831958 0.113114 -0.166682)
(0.155936 0.144623 -0.152078)
(0.308178 0.130132 -0.101467)
(0 0 0)
(0.147749 -0.0437964 -0.131436)
(0.0540011 0.20627 -0.240876)
(0 0 0)
(0.00386049 -0.0244434 0.0382657)
(0.0195948 -0.0228672 -0.0384198)
(-0.0528693 -0.179531 0.130742)
(0.0836388 -0.163841 0.0431867)
(0.185905 -0.136392 0.132532)
(-0.147531 -0.0439316 0.175916)
(0.00198483 -0.0259833 0.0490391)
(0.117465 -0.0352135 -0.00692048)
(0.20201 -0.0276681 0.0323561)
(0.295132 -0.0325604 0.0887242)
(0 0 0)
(-0.0869798 0.035422 0.0691913)
(-0.167366 0.0893445 0.145322)
(0.0120229 0.0540248 -0.0478814)
(0.0717235 0.0541204 -0.123418)
(0.158632 0.0162733 -0.0215256)
(0 0 0)
(0 0 0)
(-0.0780777 0.129202 -0.0102982)
(0.0185921 0.140857 -0.123062)
(0.0750778 0.0859205 -0.134826)
(0 0 0)
(0 0 0)
(0 0 0)
(0 0 0)
(0 0 0)
(-0.0248419 0.00779857 0.1309)
(-0.0188107 -0.0884295 0.0731985)
(0.0223957 -0.143581 0.151157)
(-0.015657 0.220104 0.15248)
(0.106311 0.103629 0.180244)
(-0.0902891 -0.0605003 0.0764679)
(0.0234286 -0.0429274 0.0460143)
(-0.000220363 0.31609 0.156424)
(0.0904423 0.313882 0.207531)
(0.023724 0.320624 0.170821)
(0.151589 0.018456 0.0857152)
(-0.1085 0.0485262 0.0866455)
(0.0399042 -0.0112147 0.0340138)
(0 0 0)
(0.112942 -0.0567081 -0.489782)
(0 0 0)
(-0.0952325 0.0808009 0.0221738)
(0 0 0)
(0.080163 -0.032504 -0.567538)
(0 0 0)
(0 0 0)
(0 0 0)
(0 0 0)
(0 0 0)
(0 0 0)
(0 0 0)
(0 0 0)
(-0.0499083 0.143557 0.191411)
(-0.00362596 0.191537 0.212075)
(0 0 0)
(0.0968941 -0.106127 -0.55701)
(0 0 0)
(0 0 0)
(0 0 0)
(0 0 0)
(0 0 0)
(0 0 0)
(0.0965087 -0.0681257 -0.548074)
(0 0 0)
(0 0 0)
(0 0 0)
(0 0 0)
(0 0 0)
(0 0 0)
(0 0 0)
(0 0 0)
(0 0 0)
(0 0 0)
(0 0 0)
(0 0 0)
(0 0 0)
(0.150262 -0.142469 0.0755726)
(0 0 0)
(0 0 0)
(0 0 0)
(0 0 0)
(0.157122 0.305154 0.300457)
(0 0 0)
(0 0 0)
(0 0 0)
(0.0907732 -0.0894443 -0.576175)
(0.0965087 -0.0681257 -0.548074)
(0 0 0)
(0 0 0)
(0 0 0)
(0 0 0)
(0 0 0)
(0 0 0)
(0 0 0)
(0 0 0)
(0 0 0)
(0 0 0)
(0 0 0)
(0 0 0)
(0 0 0)
(0 0 0)
(0 0 0)
(0 0 0)
(0 0 0)
(0 0 0)
(0.18818 0.259015 0.525159)
(0 0 0)
(0 0 0)
(0 0 0)
(0 0 0)
(0 0 0)
(0 0 0)
(0 0 0)
(0 0 0)
(0 0 0)
(0 0 0)
(0 0 0)
(0 0 0)
(0 0 0)
(0 0 0)
(0 0 0)
(0 0 0)
(0 0 0)
(0 0 0)
(0 0 0)
(0 0 0)
(0 0 0)
(0 0 0)
(0 0 0)
(0 0 0)
(0 0 0)
(0 0 0)
(0 0 0)
(0 0 0)
(0 0 0)
(0 0 0)
(0 0 0)
(0 0 0)
(0 0 0)
(0 0 0)
(0 0 0)
(0 0 0)
(0 0 0)
(0 0 0)
(0 0 0)
(0 0 0)
(0 0 0)
(0 0 0)
(0 0 0)
(0 0 0)
(0 0 0)
(0 0 0)
(0 0 0)
(0 0 0)
(0 0 0)
(0 0 0)
(0 0 0)
(0 0 0)
(0 0 0)
(0 0 0)
(0 0 0)
(0 0 0)
(0 0 0)
(0 0 0)
(0 0 0)
(0 0 0)
(0 0 0)
(0 0 0)
(0 0 0)
(0 0 0)
(0 0 0)
(0 0 0)
(0 0 0)
(0 0 0)
(0 0 0)
(0 0 0)
(0 0 0)
(0 0 0)
(0 0 0)
(0 0 0)
(0 0 0)
(0 0 0)
(0 0 0)
(0 0 0)
(0 0 0)
(0 0 0)
(0 0 0)
(0 0 0)
(0 0 0)
(0 0 0)
(0 0 0)
(0 0 0)
(0 0 0)
(0 0 0)
(0 0 0)
(0 0 0)
(0 0 0)
(0 0 0)
(0 0 0)
(0 0 0)
(0 0 0)
(0 0 0)
(0 0 0)
(0 0 0)
(0 0 0)
(0 0 0)
(0 0 0)
(0 0 0)
(0 0 0)
(0 0 0)
(0 0 0)
(0 0 0)
(0 0 0)
(0 0 0)
(0 0 0)
(0 0 0)
(0 0 0)
(0 0 0)
(0 0 0)
(0 0 0)
(0 0 0)
(0 0 0)
(0 0 0)
(0 0 0)
(0 0 0)
(0 0 0)
(0 0 0)
(0 0 0)
(0 0 0)
(0 0 0)
(0 0 0)
(0 0 0)
(0 0 0)
(0 0 0)
(0 0 0)
(0 0 0)
(0 0 0)
(0 0 0)
(0 0 0)
(0 0 0)
(0 0 0)
(0 0 0)
(0 0 0)
(0 0 0)
(0 0 0)
(0 0 0)
(0 0 0)
(0 0 0)
(0 0 0)
(0 0 0)
(0 0 0)
(0 0 0)
(0 0 0)
(0 0 0)
(0 0 0)
(0 0 0)
(0 0 0)
(0 0 0)
(0 0 0)
(0 0 0)
(0 0 0)
(0 0 0)
(0 0 0)
(0 0 0)
(0 0 0)
(0 0 0)
(0 0 0)
(0 0 0)
(0 0 0)
(0 0 0)
(0 0 0)
(0 0 0)
(0 0 0)
(0 0 0)
(0 0 0)
(0 0 0)
(0 0 0)
(0 0 0)
(0 0 0)
(0 0 0)
(0 0 0)
(0 0 0)
(0 0 0)
(0 0 0)
(0 0 0)
(0 0 0)
(0 0 0)
(0 0 0)
(0 0 0)
(0 0 0)
(0 0 0)
(0 0 0)
(0 0 0)
(0 0 0)
(0 0 0)
(0 0 0)
(0 0 0)
(0 0 0)
(0 0 0)
(0 0 0)
(0 0 0)
(0 0 0)
(0 0 0)
(0 0 0)
(0 0 0)
(0 0 0)
(0 0 0)
(0 0 0)
(0 0 0)
(0 0 0)
(0 0 0)
(0 0 0)
(0 0 0)
(0 0 0)
(0 0 0)
(0 0 0)
(0 0 0)
(0 0 0)
(0 0 0)
(0 0 0)
(0 0 0)
(0 0 0)
(0 0 0)
(0 0 0)
(0 0 0)
(0 0 0)
(0 0 0)
(0 0 0)
(0 0 0)
(0 0 0)
(0 0 0)
(0 0 0)
(0 0 0)
(0 0 0)
(0 0 0)
(0 0 0)
(0 0 0)
(0 0 0)
(0 0 0)
(0 0 0)
(0 0 0)
(0 0 0)
(0 0 0)
(0 0 0)
(0 0 0)
(0 0 0)
(0 0 0)
(0 0 0)
(0 0 0)
(0 0 0)
(0 0 0)
(0 0 0)
(0 0 0)
(0 0 0)
(0 0 0)
(0 0 0)
(0 0 0)
(0 0 0)
(0 0 0)
(0 0 0)
(0 0 0)
(0 0 0)
(0 0 0)
(0 0 0)
(0 0 0)
(0 0 0)
(0 0 0)
(0 0 0)
(0 0 0)
(0 0 0)
(0 0 0)
(0 0 0)
(0 0 0)
(0 0 0)
(0 0 0)
(0 0 0)
(0 0 0)
(0 0 0)
(0 0 0)
(0 0 0)
(0 0 0)
(0 0 0)
(0 0 0)
(0 0 0)
(0 0 0)
(0 0 0)
(0 0 0)
(0 0 0)
(0 0 0)
(0 0 0)
(0 0 0)
(0 0 0)
(0 0 0)
(0 0 0)
(0 0 0)
(0 0 0)
(0 0 0)
(0 0 0)
(0 0 0)
(0 0 0)
(0 0 0)
(0 0 0)
(0 0 0)
(0 0 0)
(0 0 0)
(0 0 0)
(0 0 0)
(0 0 0)
(0 0 0)
(0 0 0)
(0 0 0)
(0 0 0)
(0 0 0)
(0 0 0)
(0 0 0)
(0 0 0)
(0 0 0)
(0 0 0)
(0 0 0)
(0 0 0)
(0 0 0)
(0 0 0)
(0 0 0)
(0 0 0)
(0 0 0)
(0 0 0)
(0 0 0)
(0 0 0)
(0 0 0)
(0 0 0)
(0 0 0)
(0 0 0)
(0 0 0)
(0 0 0)
(0 0 0)
(0 0 0)
(0 0 0)
(0 0 0)
(0 0 0)
(0 0 0)
(0 0 0)
(0 0 0)
(0 0 0)
(0 0 0)
(0 0 0)
(0 0 0)
(0 0 0)
(0 0 0)
(0 0 0)
(0 0 0)
(0 0 0)
(0 0 0)
(0 0 0)
(0 0 0)
(0 0 0)
(0 0 0)
(0 0 0)
(0 0 0)
(0 0 0)
(0 0 0)
(0 0 0)
(0 0 0)
(0 0 0)
(0 0 0)
(0 0 0)
(0 0 0)
(0 0 0)
(0 0 0)
(0 0 0)
(0 0 0)
(0 0 0)
(0 0 0)
(0 0 0)
(0 0 0)
(0 0 0)
(0 0 0)
(0 0 0)
(0 0 0)
(0 0 0)
(0 0 0)
(0 0 0)
(0 0 0)
(0 0 0)
(0 0 0)
(0 0 0)
(0 0 0)
(0 0 0)
(0 0 0)
(0 0 0)
(0 0 0)
(0 0 0)
(0 0 0)
(0 0 0)
(0 0 0)
(0 0 0)
(0 0 0)
(0 0 0)
(0 0 0)
(0 0 0)
(0 0 0)
(0 0 0)
(0 0 0)
(0 0 0)
(0 0 0)
(0 0 0)
(0 0 0)
(0 0 0)
(0 0 0)
(0 0 0)
(0 0 0)
(0 0 0)
(0 0 0)
(0 0 0)
(0 0 0)
(0 0 0)
(0 0 0)
(0 0 0)
(0 0 0)
(0 0 0)
(0 0 0)
(0 0 0)
(0 0 0)
(0 0 0)
(0 0 0)
(0 0 0)
(0 0 0)
(0 0 0)
(0 0 0)
(0 0 0)
(0 0 0)
(0 0 0)
(0 0 0)
(0 0 0)
(0 0 0)
(0 0 0)
(0 0 0)
(0 0 0)
(0 0 0)
(0 0 0)
(0 0 0)
(0 0 0)
(0 0 0)
(0 0 0)
(0 0 0)
(0 0 0)
(0 0 0)
(0 0 0)
(0 0 0)
(0 0 0)
(0 0 0)
(0 0 0)
(0 0 0)
(0 0 0)
(0 0 0)
(0 0 0)
(0 0 0)
(0 0 0)
(0 0 0)
(0 0 0)
(0 0 0)
(0 0 0)
(0 0 0)
(0 0 0)
(0 0 0)
(0 0 0)
(0 0 0)
(0 0 0)
(0 0 0)
(0 0 0)
(0 0 0)
(0 0 0)
(0 0 0)
(0 0 0)
(0 0 0)
(0 0 0)
(0 0 0)
(0 0 0)
(0 0 0)
(0 0 0)
(0 0 0)
(0 0 0)
(0 0 0)
(0 0 0)
(0 0 0)
(0 0 0)
(0 0 0)
(0 0 0)
(0 0 0)
(0 0 0)
(0 0 0)
(0 0 0)
(0 0 0)
(0 0 0)
(0 0 0)
(0 0 0)
(0 0 0)
(0 0 0)
(0 0 0)
(0 0 0)
(0 0 0)
(0 0 0)
(0 0 0)
(0 0 0)
(0 0 0)
(0 0 0)
(0 0 0)
(0 0 0)
(0 0 0)
(0 0 0)
(0 0 0)
(0 0 0)
(0 0 0)
(0 0 0)
(0 0 0)
(0 0 0)
(0 0 0)
(0 0 0)
(0 0 0)
(0 0 0)
(0 0 0)
(0 0 0)
(0 0 0)
(0 0 0)
(0 0 0)
(0 0 0)
(0 0 0)
(0 0 0)
(0 0 0)
(0 0 0)
(0 0 0)
(0 0 0)
(0 0 0)
(0 0 0)
(0 0 0)
(0 0 0)
(0 0 0)
(0 0 0)
(0 0 0)
(0 0 0)
(0 0 0)
(0 0 0)
(0 0 0)
(0 0 0)
(0 0 0)
(0 0 0)
(0 0 0)
(0 0 0)
(0 0 0)
(0 0 0)
(0 0 0)
(0 0 0)
(0 0 0)
(0 0 0)
(0 0 0)
(0 0 0)
(0 0 0)
(0 0 0)
(0 0 0)
(0 0 0)
(0 0 0)
(0 0 0)
(0 0 0)
(0 0 0)
(0 0 0)
(0 0 0)
(0 0 0)
(0 0 0)
(0 0 0)
(0 0 0)
(0 0 0)
(0 0 0)
(0 0 0)
(0 0 0)
(0 0 0)
(0 0 0)
(0 0 0)
(0 0 0)
(0 0 0)
(0 0 0)
(0 0 0)
(0 0 0)
(0 0 0)
(0 0 0)
(0 0 0)
(0 0 0)
(0 0 0)
(0 0 0)
(0 0 0)
(0 0 0)
(0 0 0)
(0 0 0)
(0 0 0)
(0 0 0)
(0 0 0)
(0 0 0)
(0 0 0)
(0 0 0)
(0 0 0)
(0 0 0)
(0 0 0)
(0 0 0)
(0 0 0)
(0 0 0)
(0 0 0)
(0 0 0)
(0 0 0)
(0 0 0)
(0 0 0)
(0 0 0)
(0 0 0)
(0 0 0)
(0 0 0)
(0 0 0)
(0 0 0)
(0 0 0)
(0 0 0)
(0 0 0)
(0 0 0)
(0 0 0)
(0 0 0)
(0 0 0)
(0 0 0)
(0 0 0)
(0 0 0)
(0 0 0)
(0 0 0)
(0 0 0)
(0 0 0)
(0 0 0)
(0 0 0)
(0 0 0)
(0 0 0)
(0 0 0)
(0 0 0)
(0 0 0)
(0 0 0)
(0 0 0)
(0 0 0)
(0 0 0)
(0 0 0)
(0 0 0)
(0 0 0)
(0 0 0)
(0 0 0)
(0 0 0)
(0 0 0)
(0 0 0)
(0 0 0)
(0 0 0)
(0 0 0)
(0 0 0)
(0 0 0)
(0 0 0)
(0 0 0)
(0 0 0)
(0 0 0)
(0 0 0)
(0 0 0)
(0 0 0)
(0 0 0)
(0 0 0)
(0 0 0)
(0 0 0)
(0 0 0)
(0 0 0)
(0 0 0)
(0 0 0)
(0 0 0)
(0 0 0)
(0 0 0)
(0 0 0)
(0 0 0)
(0 0 0)
(0 0 0)
(0 0 0)
(0 0 0)
(0 0 0)
(0 0 0)
(0 0 0)
(0 0 0)
(0 0 0)
(0 0 0)
(0 0 0)
(0 0 0)
(0 0 0)
(0 0 0)
(0 0 0)
(0 0 0)
(0 0 0)
(0 0 0)
(0 0 0)
(0 0 0)
(0 0 0)
(0 0 0)
(0 0 0)
(0 0 0)
(0 0 0)
(0 0 0)
(0 0 0)
(0 0 0)
(0 0 0)
(0 0 0)
(0 0 0)
(0 0 0)
(0 0 0)
(0 0 0)
(0 0 0)
(0 0 0)
(0 0 0)
(0 0 0)
(0 0 0)
(0 0 0)
(0 0 0)
(0 0 0)
(0 0 0)
(0 0 0)
(0 0 0)
(0 0 0)
(0 0 0)
(0 0 0)
(0 0 0)
(0 0 0)
(0 0 0)
(0 0 0)
(0 0 0)
(0 0 0)
(0 0 0)
(0 0 0)
(0 0 0)
(0 0 0)
(0 0 0)
(0 0 0)
(0 0 0)
(0 0 0)
(0 0 0)
(0 0 0)
(0 0 0)
(0 0 0)
(0 0 0)
(0 0 0)
(0 0 0)
(0 0 0)
(0 0 0)
(0 0 0)
(0 0 0)
(0 0 0)
(0 0 0)
(0 0 0)
(0 0 0)
(0 0 0)
(0 0 0)
(0 0 0)
(0 0 0)
(0 0 0)
(0 0 0)
(0 0 0)
(0 0 0)
(0 0 0)
(0 0 0)
(0 0 0)
(0 0 0)
(0 0 0)
(0 0 0)
(0 0 0)
(0 0 0)
(0 0 0)
(0 0 0)
(0 0 0)
(0 0 0)
(0 0 0)
(0 0 0)
(0 0 0)
(0 0 0)
(0 0 0)
(0 0 0)
(0 0 0)
(0 0 0)
(0 0 0)
(0 0 0)
(0 0 0)
(0 0 0)
(0 0 0)
(0 0 0)
(0 0 0)
(0 0 0)
(0 0 0)
(0 0 0)
(0 0 0)
(0 0 0)
(0 0 0)
(0 0 0)
(0 0 0)
(0 0 0)
(0 0 0)
(0 0 0)
(0 0 0)
(0 0 0)
(0 0 0)
(0 0 0)
(0 0 0)
(0 0 0)
(0 0 0)
(0 0 0)
(0 0 0)
(0 0 0)
(0 0 0)
(0 0 0)
(0 0 0)
(0 0 0)
(0 0 0)
(0 0 0)
(0 0 0)
(0 0 0)
(0 0 0)
(0 0 0)
(0 0 0)
(0 0 0)
(0 0 0)
(0 0 0)
(0 0 0)
(0 0 0)
(0 0 0)
(0 0 0)
(0 0 0)
(0 0 0)
(0 0 0)
(0 0 0)
(0 0 0)
(0 0 0)
(0 0 0)
(0 0 0)
(0 0 0)
(0 0 0)
(0 0 0)
(0 0 0)
(0 0 0)
(0 0 0)
(0 0 0)
(0 0 0)
(0 0 0)
(0 0 0)
(0 0 0)
(0 0 0)
(0 0 0)
(0 0 0)
(0 0 0)
(0 0 0)
(0 0 0)
(0 0 0)
(0 0 0)
(0 0 0)
(0 0 0)
(0 0 0)
(0 0 0)
(0 0 0)
(0 0 0)
(0 0 0)
(0 0 0)
(0 0 0)
(0 0 0)
(0 0 0)
(0 0 0)
(0 0 0)
(0 0 0)
(0 0 0)
(0 0 0)
(0 0 0)
(0 0 0)
(0 0 0)
(0 0 0)
(0 0 0)
(0 0 0)
(0 0 0)
(0 0 0)
(0 0 0)
(0 0 0)
(0 0 0)
(0 0 0)
(0 0 0)
(0 0 0)
(0 0 0)
(0 0 0)
(0 0 0)
(0 0 0)
(0 0 0)
(0 0 0)
(0 0 0)
(0 0 0)
(0 0 0)
(0 0 0)
(0 0 0)
(0 0 0)
(0 0 0)
(0 0 0)
(0 0 0)
(0 0 0)
(0 0 0)
(0 0 0)
(0 0 0)
(0 0 0)
(0 0 0)
(0 0 0)
(0 0 0)
(0 0 0)
(0 0 0)
(0 0 0)
(0 0 0)
(0 0 0)
(0 0 0)
(0 0 0)
(0 0 0)
(0 0 0)
(0 0 0)
(0 0 0)
(0 0 0)
(0 0 0)
(0 0 0)
(0 0 0)
(0 0 0)
(0 0 0)
(0 0 0)
(0 0 0)
(0 0 0)
(0 0 0)
(0 0 0)
(0 0 0)
(0 0 0)
(0 0 0)
(0 0 0)
(0 0 0)
(0 0 0)
(0 0 0)
(0 0 0)
(0 0 0)
(0 0 0)
(0 0 0)
(0 0 0)
(0 0 0)
(0 0 0)
(0 0 0)
(0 0 0)
(0 0 0)
(0 0 0)
(0 0 0)
(0 0 0)
(0 0 0)
(0 0 0)
(0 0 0)
(0 0 0)
(0 0 0)
(0 0 0)
(0 0 0)
(0 0 0)
(0 0 0)
(0 0 0)
(0 0 0)
(0 0 0)
(0 0 0)
(0 0 0)
(0 0 0)
(0 0 0)
(0 0 0)
(0 0 0)
(0 0 0)
(0 0 0)
(0 0 0)
(0 0 0)
(0 0 0)
(0 0 0)
(0 0 0)
(0 0 0)
(0 0 0)
(0 0 0)
(0 0 0)
(0 0 0)
(0 0 0)
(0 0 0)
(0 0 0)
(0 0 0)
(0 0 0)
(0 0 0)
(0 0 0)
(0 0 0)
(0 0 0)
(0 0 0)
(0 0 0)
(0 0 0)
(0 0 0)
(0 0 0)
(0 0 0)
(0 0 0)
(0 0 0)
(0 0 0)
(0 0 0)
(0 0 0)
(0 0 0)
(0 0 0)
(0 0 0)
(0 0 0)
(0 0 0)
(0 0 0)
(0 0 0)
(0 0 0)
(0 0 0)
(0 0 0)
(0 0 0)
(0 0 0)
(0 0 0)
(0 0 0)
(0 0 0)
(0 0 0)
(0 0 0)
(0 0 0)
(0 0 0)
(0 0 0)
(0 0 0)
(0 0 0)
(0 0 0)
(0 0 0)
(0 0 0)
(0 0 0)
(0 0 0)
(0 0 0)
(0 0 0)
(0 0 0)
(0 0 0)
(0 0 0)
(0 0 0)
(0 0 0)
(0 0 0)
(0 0 0)
(0 0 0)
(0 0 0)
(0 0 0)
(0 0 0)
(0 0 0)
(0 0 0)
(0 0 0)
(0 0 0)
(0 0 0)
(0 0 0)
(0 0 0)
(0 0 0)
(0 0 0)
(0 0 0)
(0 0 0)
(0 0 0)
(0 0 0)
(0 0 0)
(0 0 0)
(0 0 0)
(0 0 0)
(0 0 0)
(0 0 0)
(0 0 0)
(0 0 0)
(0 0 0)
(0 0 0)
(0 0 0)
(0 0 0)
(0 0 0)
(0 0 0)
(0 0 0)
(0 0 0)
(0 0 0)
(0 0 0)
(0 0 0)
(0 0 0)
(0 0 0)
(0 0 0)
(0 0 0)
(0 0 0)
(0 0 0)
(0 0 0)
(0 0 0)
(0 0 0)
(0 0 0)
(0 0 0)
(0 0 0)
(0 0 0)
(0 0 0)
(0 0 0)
(0 0 0)
(0 0 0)
(0 0 0)
(0 0 0)
(0 0 0)
(0 0 0)
(0 0 0)
(0 0 0)
(0 0 0)
(0 0 0)
(0 0 0)
(0 0 0)
(0 0 0)
(0 0 0)
(0 0 0)
(0 0 0)
(0 0 0)
(0 0 0)
(0 0 0)
(0 0 0)
(0 0 0)
(0 0 0)
(0 0 0)
(0 0 0)
(0 0 0)
(0 0 0)
(0 0 0)
(0 0 0)
(0 0 0)
(0 0 0)
(0 0 0)
(0 0 0)
(0 0 0)
(0 0 0)
(0 0 0)
(0 0 0)
(0 0 0)
(0 0 0)
(0 0 0)
(0 0 0)
(0 0 0)
(0 0 0)
(0 0 0)
(0 0 0)
(0 0 0)
(0 0 0)
(0 0 0)
(0 0 0)
(0 0 0)
(0 0 0)
(0 0 0)
(0 0 0)
(0 0 0)
(0 0 0)
(0 0 0)
(0 0 0)
(0 0 0)
(0 0 0)
(0 0 0)
(0 0 0)
(0 0 0)
(0 0 0)
(0 0 0)
(0 0 0)
(0 0 0)
(0 0 0)
(0 0 0)
(0 0 0)
(0 0 0)
(0 0 0)
(0 0 0)
(0 0 0)
(0 0 0)
(0 0 0)
(0 0 0)
(0 0 0)
(0 0 0)
(0 0 0)
(0 0 0)
(0 0 0)
(0 0 0)
(0 0 0)
(0 0 0)
(0 0 0)
(0 0 0)
(0 0 0)
(0 0 0)
(0 0 0)
(0 0 0)
(0 0 0)
(0 0 0)
(0 0 0)
(0 0 0)
(0 0 0)
(0 0 0)
(0 0 0)
(0 0 0)
(0 0 0)
(0 0 0)
(0 0 0)
(0 0 0)
(0 0 0)
(0 0 0)
(0 0 0)
(0 0 0)
(0 0 0)
(0 0 0)
(0 0 0)
(0 0 0)
(0 0 0)
(0 0 0)
(0 0 0)
(0 0 0)
(0 0 0)
(0 0 0)
(0 0 0)
(0 0 0)
(0 0 0)
(0 0 0)
(0 0 0)
(0 0 0)
(0 0 0)
(0 0 0)
(0 0 0)
(0 0 0)
(0 0 0)
(0 0 0)
(0 0 0)
(0 0 0)
(0 0 0)
(0 0 0)
(0 0 0)
(0 0 0)
(0 0 0)
(0 0 0)
(0 0 0)
(0 0 0)
(0 0 0)
(0 0 0)
(0 0 0)
(0 0 0)
(0 0 0)
(0 0 0)
(0 0 0)
(0 0 0)
(0 0 0)
(0 0 0)
(0 0 0)
(0 0 0)
(0 0 0)
(0 0 0)
(0 0 0)
(0 0 0)
(0 0 0)
(0 0 0)
(0 0 0)
(0 0 0)
(0 0 0)
(0 0 0)
(0 0 0)
(0 0 0)
(0 0 0)
(0 0 0)
(0 0 0)
(0 0 0)
(0 0 0)
(0 0 0)
(0 0 0)
(0 0 0)
(0 0 0)
(0 0 0)
(0 0 0)
(0 0 0)
(0 0 0)
(0 0 0)
(0 0 0)
(0 0 0)
(0 0 0)
(0 0 0)
(0 0 0)
(0 0 0)
(0 0 0)
(0 0 0)
(0 0 0)
(0 0 0)
(0 0 0)
(0 0 0)
(0 0 0)
(0 0 0)
(0 0 0)
(0 0 0)
(0 0 0)
(0 0 0)
(0 0 0)
(0 0 0)
(0 0 0)
(0 0 0)
(0 0 0)
(0 0 0)
(0 0 0)
(0 0 0)
(0 0 0)
(0 0 0)
(0 0 0)
(0 0 0)
(0 0 0)
(0 0 0)
(0 0 0)
(0 0 0)
(0 0 0)
(0 0 0)
(0 0 0)
(0 0 0)
(0 0 0)
(0 0 0)
(0 0 0)
(0 0 0)
(0 0 0)
(0 0 0)
(0 0 0)
(0 0 0)
(0 0 0)
(0 0 0)
(0 0 0)
(0 0 0)
(0 0 0)
(0 0 0)
(0 0 0)
(0 0 0)
(0 0 0)
(0 0 0)
(0 0 0)
(0 0 0)
(0 0 0)
(0 0 0)
(0 0 0)
(0 0 0)
(0 0 0)
(0 0 0)
(0 0 0)
(0 0 0)
(0 0 0)
(0 0 0)
(0 0 0)
(0 0 0)
(0 0 0)
(0 0 0)
(0 0 0)
(0 0 0)
(0 0 0)
(0 0 0)
(0 0 0)
(0 0 0)
(0 0 0)
(0 0 0)
(0 0 0)
(0 0 0)
(0 0 0)
(0 0 0)
(0 0 0)
(0 0 0)
(0 0 0)
(0 0 0)
(0 0 0)
(0 0 0)
(0 0 0)
(0 0 0)
(0 0 0)
(0 0 0)
(0 0 0)
(0 0 0)
(0 0 0)
(0 0 0)
(0 0 0)
(0 0 0)
(0 0 0)
(0 0 0)
(0 0 0)
(0 0 0)
(0 0 0)
(0 0 0)
(0 0 0)
(0 0 0)
(0 0 0)
(0 0 0)
(0 0 0)
(0 0 0)
(0 0 0)
(0 0 0)
(0 0 0)
(0 0 0)
(0 0 0)
(0 0 0)
(0 0 0)
(0 0 0)
(0 0 0)
(0 0 0)
(0 0 0)
(0 0 0)
(0 0 0)
(0 0 0)
(0 0 0)
(0 0 0)
(0 0 0)
(0 0 0)
(0 0 0)
(0 0 0)
(0 0 0)
(0 0 0)
(0 0 0)
(0 0 0)
(0 0 0)
(0 0 0)
(0 0 0)
(0 0 0)
(0 0 0)
(0 0 0)
(0 0 0)
(0 0 0)
(0 0 0)
(0 0 0)
(0 0 0)
(0 0 0)
(0 0 0)
(0 0 0)
(0 0 0)
(0 0 0)
(0 0 0)
(0 0 0)
(0 0 0)
(0 0 0)
(0 0 0)
(0 0 0)
(0 0 0)
(0 0 0)
(0 0 0)
(0 0 0)
(0 0 0)
(0 0 0)
(0 0 0)
(0 0 0)
(0 0 0)
(0 0 0)
(0 0 0)
(0 0 0)
(0 0 0)
(0 0 0)
(0 0 0)
(0 0 0)
(0 0 0)
(0 0 0)
(0 0 0)
(0 0 0)
(0 0 0)
(0 0 0)
(0 0 0)
(0 0 0)
(0 0 0)
(0 0 0)
(0 0 0)
(0 0 0)
(0 0 0)
(0 0 0)
(0 0 0)
(0 0 0)
(0 0 0)
(0 0 0)
(0 0 0)
(0 0 0)
(0 0 0)
(0 0 0)
(0 0 0)
(0 0 0)
(0 0 0)
(0 0 0)
(0 0 0)
(0 0 0)
(0 0 0)
(0 0 0)
(0 0 0)
(0 0 0)
(0 0 0)
(0 0 0)
(0 0 0)
(0 0 0)
(0 0 0)
(0 0 0)
(0 0 0)
(0 0 0)
(0 0 0)
(0 0 0)
(0 0 0)
(0 0 0)
(0 0 0)
(0 0 0)
(0 0 0)
(0 0 0)
(0 0 0)
(0 0 0)
(0 0 0)
(0 0 0)
(0 0 0)
(0 0 0)
(0 0 0)
(0 0 0)
(0 0 0)
(0 0 0)
(0 0 0)
(0 0 0)
(0 0 0)
(0 0 0)
(0 0 0)
(0 0 0)
(0 0 0)
(0 0 0)
(0 0 0)
(0 0 0)
(0 0 0)
(0 0 0)
(0 0 0)
(0 0 0)
(0 0 0)
(0 0 0)
(0 0 0)
(0 0 0)
(0 0 0)
(0 0 0)
(0 0 0)
(0 0 0)
(0 0 0)
(0 0 0)
(0 0 0)
(0 0 0)
(0 0 0)
(0 0 0)
(0 0 0)
(0.0783965 -0.00153105 0.00841797)
(-0.152316 -0.000813989 0.0210705)
(0.0904208 0.0148408 0.0426653)
(-0.0872826 -0.00896454 0.0888235)
(-0.14013 0.00378324 0.0245881)
(-0.205495 0.0365212 0.064478)
(-0.137226 0.0520758 -0.0229896)
(-0.0751477 0.0334598 -0.0491105)
(0.0327431 0.0222276 -0.0403474)
(0.0377501 0.0117844 -0.0258384)
(0.126064 0.0188272 0.0112965)
(0.0961106 0.0655922 -0.0148563)
(0.1932 0.122085 0.0258997)
(0.219125 0.00892569 0.076478)
(0.053075 0.00691935 0.0787281)
(0.166675 0.0524131 0.0756907)
(0.0489931 0.0185952 0.025423)
(-0.218306 0.157416 0.0936653)
(-0.18223 0.144778 0.0659143)
(-0.0384906 0.199737 0.0308871)
(-0.231032 0.181409 0.160543)
(-0.115935 0.0629044 0.0090903)
(-0.0730626 -0.00892886 -0.0277532)
(-0.199415 0.0647636 0.133624)
(-0.153923 -0.080204 0.0611096)
(-0.0967766 -0.122607 0.002012)
(0.0608188 0.102824 -0.0761783)
(0.0167707 0.0762777 -0.0260104)
(0.0534885 0.193263 -0.0167149)
(0.149095 0.161509 -0.0393036)
(0.229962 0.192724 0.0370791)
(0.158465 0.266521 0.0200772)
(0.253767 0.328799 0.0463397)
(0.147088 0.141675 0.0729194)
(0.125835 0.0350445 0.044404)
(0.0995494 0.0449533 0.0360646)
(0.128692 -0.0206493 0.0352175)
(0.0515535 0.133476 0.0430579)
(-0.237594 0.0932089 0.0750913)
(0.0757777 -0.00342785 0.0360723)
(-0.11975 0.037272 0.0468246)
(-0.30605 0.0304127 0.143409)
(-0.242779 -0.0982192 0.0597104)
(-0.233448 -0.000880866 0.0738974)
(-0.268918 -0.0110362 0.0497978)
(-0.138785 -0.148172 -0.0476861)
(-0.158073 -0.0658466 -0.0797048)
(-0.0544649 -0.0397135 -0.113166)
(0.0127304 0.0656958 -0.0154017)
(0.0336735 0.167071 0.023948)
(0.0650861 0.0704201 0.00787557)
(0.145807 0.290084 0.0926928)
(0.0530737 -0.0513019 0.0205493)
(0.140543 -0.00509308 0.0284948)
(0.160626 -0.092822 0.028753)
(0.0672076 -0.0863581 0.018829)
(0.080413 -0.0713758 0.0248082)
(0.0558421 -0.211478 0.0473105)
(0.0280797 -0.115426 0.0246014)
(0.0381006 -0.0288566 0.0070635)
(-0.0427322 0.0458295 0.041718)
(0.0192991 -0.0496202 0.00648457)
(0.00160648 0.00180623 0.0175596)
(-0.0837161 0.00955141 0.0665688)
(-0.207258 0.075719 0.0899449)
(-0.0690465 -0.0480024 0.0459499)
(-0.12657 -0.121193 0.0274523)
(-0.123402 0.0659825 -0.00732269)
(-0.0517707 0.0445928 -0.0826364)
(-0.0485288 -0.0594041 -0.0143238)
(0.0415714 -0.018121 -0.0265247)
(0.0992082 -0.0919424 0.0303185)
(0.131119 -0.234909 0.102715)
(0.0348976 -0.0815114 -0.0381314)
(0.0351549 -0.20422 0.00652624)
(0.0814165 -0.3244 0.0956267)
(0.0178957 -0.173845 0.0318817)
(0.0244156 -0.3083 0.0522042)
(0.0706797 -0.258546 0.0565342)
(0.0168487 -0.10873 0.00849245)
(-0.0652317 -0.176343 0.0125231)
(0.0337812 -0.160879 0.0183652)
(-0.0571534 -0.194933 0.0126301)
(-0.119152 -0.198097 0.0186653)
(-0.0790693 -0.125079 -0.0265319)
(-0.0785959 -0.117172 -0.022571)
(-0.035886 -0.0615151 -0.0422553)
(-0.0270003 -0.0790034 -0.0483909)
(-0.0328511 -0.113177 -0.0535975)
(-0.0206879 -0.159371 -0.0627372)
(0.0469072 -0.167656 -0.0673075)
(0.0407305 -0.0532406 -0.080589)
(0.0663891 -0.0798005 0.0169133)
(0.0100219 -0.0669857 -0.00905203)
(0.064453 -0.045335 0.00760293)
(-0.0123129 -0.0499017 -0.0385093)
(0.0918549 -0.00426499 0.050954)
(0.0376932 0.022465 -0.0138673)
(-0.129874 -0.0184292 0.096576)
(0.0417573 0.00918379 0.146533)
(-0.10172 -0.0369807 0.151)
(-0.0756262 0.00395628 0.142829)
(0.0631018 0.0245928 0.177908)
(-0.0264698 -0.0160147 0.244584)
(-0.179748 -0.0390911 0.0320498)
(-0.118536 0.0135939 -0.0964848)
(-0.02302 -0.00195381 -0.0627829)
(-0.0913896 -0.0446286 0.00199597)
(-0.0714117 0.00074382 -0.174885)
(-0.0585385 0.0130885 -0.140162)
(-0.0542715 -0.00729316 -0.219696)
(0.0651439 -0.0775334 -0.110429)
(0.0790724 -0.135403 -0.119385)
(0.163166 0.0169116 0.0650169)
(0.133733 -0.0271411 -0.0326201)
(0.239211 0.0405065 0.093151)
(0.0510566 -0.00490155 -0.0569947)
(0.108546 0.056709 0.0110889)
(0.113349 -0.0807343 -0.0421027)
(0.187788 0.00143819 0.0700266)
(-0.0725678 -0.0159221 -0.0674536)
(-0.205369 0.0475775 0.150838)
(-0.131291 -0.0527311 0.0451562)
(-0.0648495 0.0347709 -0.0971598)
(-0.062401 -0.0290742 -0.158195)
(-0.162314 -0.00319755 0.180526)
(-0.0730942 -0.0654147 -0.00399142)
(-0.0745225 -0.114255 -0.013967)
(-0.042673 -0.0651578 -0.0430343)
(0.0905193 -0.0525671 -0.149097)
(0.0270356 0.00638734 0.0338489)
(0.0562708 0.10964 -0.0106325)
(0.112519 -0.192203 -0.188283)
(0.0199893 -0.179924 -0.0480813)
(0.0735848 -0.191869 -0.0675257)
(-0.101339 -0.151114 -0.202842)
(-0.029589 -0.133497 -0.251167)
(-0.0157776 -0.155033 -0.223957)
(0.000573 -0.145328 -0.362067)
(-0.00155876 -0.133307 -0.345171)
(0.0194543 0.105207 0.0198763)
(0.0543567 0.0174844 -0.0518179)
(-0.0048325 -0.108409 -0.0414839)
(0.0346494 -0.0726679 -0.0419634)
(0.0330834 -0.0313483 -0.125027)
(0.00328568 -0.0955759 -0.161495)
(-0.0172326 -0.10953 -0.0477472)
(-0.0417461 -0.137065 -0.170205)
(0.0235664 -0.121631 -0.314438)
(-0.019582 -0.101882 -0.180111)
(0.0341657 -0.0113491 -0.112237)
(-0.000504967 -0.0351127 -0.193189)
(0.14081 -0.17537 0.122623)
(0.00375374 -0.0651255 -0.126999)
(0.0309534 -0.1535 -0.0542728)
(0.0390847 -0.0500099 -0.107855)
(0.164625 -0.0340255 0.109762)
(-0.0257977 -0.0334175 -0.237551)
(-0.0137237 -0.0294628 -0.232901)
(-0.0164067 -0.14039 -0.0932169)
(0.0241254 -0.133926 -0.0808855)
(0.0396055 -0.0938404 -0.123912)
(0.0506515 -0.176715 0.0390505)
(0.0439029 -0.147098 -0.154348)
(0.110942 -0.150892 -0.126331)
(0.0796452 -0.111385 -0.180241)
(0.0279745 -0.0781623 -0.235707)
(-0.03842 -0.0709808 -0.141786)
(-0.0125835 -0.0275675 -0.255115)
(-0.0191003 -0.110408 -0.190505)
(9.02461e-05 -0.0268931 -0.206004)
(-0.0215659 -0.0533663 -0.28075)
(-0.0181073 -0.0622286 -0.289846)
(-0.000422764 -0.0106834 -0.280395)
(0.0208603 -0.0782208 -0.0762998)
(0.0443107 -0.0265537 -0.143331)
(0.0472656 -0.0880533 -0.197805)
(0.101299 -0.0885333 -0.213179)
(0.0331625 -0.0117831 -0.232813)
(0.116826 -0.0929177 -0.184662)
(-0.00235183 0.045414 -0.121808)
(-0.0108114 0.0414452 -0.278222)
(0.0223036 0.00786292 -0.068683)
(0.0599235 0.0536708 0.0967373)
(0.0681878 0.00311181 0.28441)
(0.0946851 -0.00406207 -0.337215)
(0.0174793 0.0439234 -0.216814)
(0.155209 0.00587185 0.0695696)
(0.10104 0.0480538 -0.291233)
(0.0265167 0.0337626 -0.285044)
(0.108433 0.00904533 -0.376181)
(0.121241 0.0518841 -0.287872)
(0.0832261 0.0555634 -0.252062)
(-0.0341788 -0.0226938 -0.303498)
(0.00240816 -0.000215198 -0.262338)
(0.0725355 -0.142156 -0.131646)
(-0.0264382 0.0425847 -0.308565)
(0.0399438 0.0847236 -0.0616265)
(0.0244975 -0.0903157 -0.0388883)
(0.114989 -0.0333262 0.0891115)
(-0.0179042 0.00758314 -0.353114)
(-0.0226919 0.0412379 -0.293383)
(-0.0838934 0.0046251 -0.23638)
(-0.0884111 0.047126 -0.118037)
(-0.0385199 -0.0713927 -0.27144)
(0.0213399 -0.13393 -0.0890677)
(0.0213921 -0.165858 -0.210745)
(0.0561171 0.00260222 -0.243714)
(-0.0110004 -0.08226 -0.214915)
(0.0489901 -0.124573 -0.0683714)
(0.029504 -0.202053 -0.185447)
(0.0137165 -0.0542304 -0.232071)
(0.00604668 -0.0630676 -0.186454)
(0.0976529 -0.227043 -0.218321)
(0.0286729 -0.150379 -0.120863)
(0.0982414 -0.219123 -0.132106)
(0.0527854 -0.150344 -0.25958)
(0.0238126 -0.153677 -0.204946)
(0.0577724 -0.187264 -0.198273)
(0.058429 -0.0743928 -0.425676)
(0.00777224 -0.131485 -0.380983)
(0.0495283 -0.111284 -0.226551)
(0.0526571 -0.0408121 -0.410047)
(0.00348598 -0.134413 -0.350695)
(0.0433555 -0.114907 -0.143478)
(0.0139066 -0.0710764 -0.192204)
(0.00351541 -0.123149 -0.203876)
(0.034126 -0.142991 -0.215463)
(-0.0101316 -0.113249 -0.224273)
(0.0292425 -0.0994245 -0.393141)
(0.00545489 -0.0954131 -0.383122)
(0.0237022 -0.070347 -0.389984)
(0.022509 -0.106564 -0.366601)
(0.014135 -0.0958047 -0.362779)
(-0.042808 -0.0776777 -0.220612)
(-0.0616032 -0.106593 -0.207737)
(0.00918655 -0.0924112 -0.0792952)
(-0.0390097 -0.0154886 -0.281231)
(-0.037873 -0.00675693 -0.277305)
(-0.0743701 -0.0861766 -0.193994)
(-0.0278096 -0.119681 -0.111415)
(-0.0388032 -0.0299856 -0.254593)
(-0.0407909 -0.02275 -0.272099)
(0.0544822 -0.0896292 -0.352764)
(0.122349 -0.105054 -0.188501)
(0.0529224 -0.0607105 -0.345385)
(0.153713 -0.128385 0.0336851)
(0.0520307 -0.0792209 -0.355539)
(0.0768933 -0.0430435 -0.312524)
(0.0353004 -0.0327657 -0.408174)
(0.0563008 -0.0720527 -0.384227)
(0.0112863 0.00181167 -0.344892)
(0.00653995 -0.00305253 -0.339773)
(0.0090941 -0.0271654 -0.356487)
(0.0173887 -0.000220331 -0.337831)
(0.0108897 0.00510621 -0.391831)
(0.0112297 -0.00433914 -0.393639)
(0.0192688 0.00565816 -0.378892)
(0.059573 -0.0469033 -0.292232)
(0.0349461 -0.00574785 -0.326683)
(0.0153961 -0.0210658 -0.377748)
(0.0216603 -0.0149964 -0.362285)
(0.018719 -0.000997451 -0.376702)
(0.0278858 -0.0102756 -0.389883)
(0.0287266 -0.0125207 -0.372977)
(0.043357 -0.020766 -0.362774)
(0.0880166 -0.00616103 -0.322598)
(0.0185468 0.00722778 -0.330571)
(0.0452264 0.0391787 -0.203512)