/*--------------------------------*- C++ -*----------------------------------*\
| =========                 |                                                 |
| \\      /  F ield         | OpenFOAM: The Open Source CFD Toolbox           |
|  \\    /   O peration     | Version:  5.x                                   |
|   \\  /    A nd           | Web:      www.OpenFOAM.org                      |
|    \\/     M anipulation  |                                                 |
\*---------------------------------------------------------------------------*/
FoamFile
{
    version     2.0;
    format      ascii;
    class       volScalarField;
    location    "3.35";
    object      p;
}
// * * * * * * * * * * * * * * * * * * * * * * * * * * * * * * * * * * * * * //

dimensions      [0 2 -2 0 0 0 0];

internalField   nonuniform List<scalar> 
10571
(
224.335
259.858
254.786
236.711
189.652
263.564
242.274
246.134
181.636
35.9498
255.594
263.378
252.131
262.469
245.391
125.054
259.458
258.948
260.875
259.453
216.479
247.155
238.892
239.968
53.151
126.035
102.533
25.5184
25.9687
122.481
132.623
36.7155
14.553
18.2806
99.5294
117.022
51.482
30.2298
32.5271
15.2831
106.541
21.2005
14.3281
84.0201
64.707
100.56
120.452
114.044
13.0737
42.4428
26.4084
16.7562
11.0081
12.8835
21.3347
6.853
4.92834
13.0414
5.36825
5.44151
6.61341
5.92474
6.83358
11.4876
5.80186
4.61588
3.97183
4.9794
11.0527
5.63999
4.6952
5.6082
6.1972
6.92569
6.96192
6.80573
7.94613
5.9482
6.1066
6.31631
5.69416
10.3247
6.83743
6.80514
6.68223
7.05732
6.29223
9.60593
6.76223
7.29549
7.11679
6.0348
6.284
6.54705
6.41781
6.22333
6.42112
6.40584
6.43387
6.35546
6.40096
6.10442
6.3099
6.53553
6.06727
6.6809
6.73116
6.64389
6.66496
6.64471
6.37965
6.34311
6.69074
6.73127
6.54724
6.22483
6.43816
6.59397
6.53097
6.42378
6.43135
6.39305
6.48858
6.33235
6.46566
6.21869
6.37337
6.54342
6.34596
6.35172
6.17453
6.73088
6.64984
6.60398
6.51538
6.42456
6.71703
6.21688
6.65071
6.59939
6.47277
6.39769
6.50185
6.5387
6.45212
6.47389
6.48449
6.49729
6.48253
6.39794
6.42865
6.45781
6.43114
6.50856
6.46117
6.49104
6.23212
6.67407
6.59806
6.4973
6.43345
6.35421
6.42569
6.09036
6.57732
6.47528
6.43539
6.45453
6.52641
6.49251
6.44128
6.40906
6.47799
6.46818
6.48608
6.45087
6.41552
6.38858
6.43594
6.3776
6.4242
6.40274
6.28498
6.13084
6.55745
6.50777
6.36186
6.31336
6.29621
6.18443
5.67084
6.48749
6.29982
6.32159
6.37186
6.37848
6.09739
6.36122
6.31253
6.39107
6.45198
6.38566
6.38235
6.39244
6.37661
6.31157
6.29307
6.32979
6.35323
6.34718
6.37696
6.41706
6.3687
6.20707
6.19528
6.26661
6.16228
5.7859
6.39416
6.20449
6.24022
6.26505
6.25945
6.30368
6.25123
6.29385
6.38003
6.31476
6.32093
6.33591
6.36312
6.22588
6.23226
6.26097
6.33689
6.16632
6.30728
6.26601
6.11381
6.1347
6.21923
6.27287
6.32493
6.19776
6.24621
6.23266
6.21739
6.28228
6.24722
6.25677
6.27588
6.29628
6.27336
6.25536
6.31963
6.22817
6.21826
6.19496
6.30817
6.14931
6.26192
6.23045
6.10457
6.13005
6.17756
6.03434
6.28387
6.22992
6.28102
6.2078
6.16765
6.28055
6.27005
6.2438
6.15828
6.24355
6.16427
6.12473
6.23998
6.23686
6.18286
6.11871
6.21997
6.14722
6.25232
6.2241
6.15221
6.17771
6.14315
6.06471
6.2667
6.24937
6.25653
6.2504
6.13986
6.28856
6.28343
6.24886
6.05927
6.18941
6.05622
5.98563
6.10632
6.22144
6.15933
6.06955
6.13643
6.11285
6.25973
6.23521
6.21079
6.1908
6.11082
6.09416
6.26366
6.23911
6.20546
6.19686
6.13849
6.28396
6.26769
6.22443
6.039
6.17498
6.02455
5.97197
6.09958
6.22022
6.17759
6.08025
6.12865
6.08713
6.27308
6.25057
6.2597
6.14631
6.08082
6.10544
6.27259
6.2344
6.1651
6.12789
6.12371
6.27518
6.23749
6.1839
6.12003
6.19506
6.09243
6.03366
6.18553
6.23569
6.19156
6.11078
6.16865
6.11111
6.28952
6.26699
6.27695
6.11112
6.06434
6.10867
6.28598
6.23879
6.16452
6.09528
6.1437
6.27099
6.22235
6.17262
6.20585
6.25118
6.18843
6.00182
6.23434
6.26193
6.18851
6.1352
6.1594
6.09269
6.30986
6.28774
6.26767
6.12164
6.06052
6.08363
6.29951
6.25286
6.20223
6.12387
6.20896
6.28657
6.23485
6.20312
6.31051
6.30939
6.2923
5.9279
6.22252
6.2967
6.21822
6.1713
6.12985
6.11351
6.33686
6.31178
6.26617
6.189
6.07455
6.09356
6.32131
6.28085
6.25906
6.18071
6.29097
6.31992
6.27592
6.2603
6.57606
6.36255
6.36297
6.38034
6.14097
6.33587
6.23168
6.21941
6.11557
6.15643
6.37292
6.33943
6.27773
6.25901
6.09967
6.12353
6.35477
6.32617
6.32988
6.24394
6.34606
6.37043
6.33698
6.33264
6.52683
6.41432
6.38936
6.32829
6.13375
6.38329
6.24299
6.26939
6.1195
6.12267
6.41776
6.37933
6.32717
6.33005
6.14058
6.16
6.40091
6.39239
6.41798
6.32239
6.40354
6.4373
6.41485
6.42122
6.42882
6.4745
6.41646
6.31803
6.3847
6.44194
6.31587
6.30851
6.14753
6.15094
6.47019
6.43277
6.40175
6.41977
6.22975
6.27266
6.45655
6.47231
6.51762
6.42362
6.49913
6.5114
6.50249
6.52398
6.41475
6.54351
6.46268
6.33832
6.19976
6.51088
6.40906
6.40433
6.23736
6.27597
6.52574
6.49361
6.49032
6.53711
6.32175
6.499
6.51636
6.55512
6.61528
6.55524
6.61106
6.58459
6.58451
6.62583
6.45513
6.6129
6.52786
6.38181
6.0041
6.57812
6.50775
6.53329
6.3148
6.53035
6.57605
6.54938
6.58019
6.64901
6.60252
6.9007
6.57542
6.62649
6.68663
6.69346
6.92712
6.65057
6.65631
6.70878
6.53904
6.67484
6.59823
6.50314
6.24254
6.63556
6.59445
6.64125
6.63395
6.71172
6.6249
6.60422
6.65149
6.71345
6.77919
6.99619
6.62302
6.67765
6.72122
6.77104
6.89619
6.70295
6.709
6.75368
6.64282
6.71799
6.64984
6.62592
6.68916
6.67803
6.65418
6.71365
6.78321
6.74577
6.67092
6.65361
6.69453
6.75195
6.80827
6.87927
6.65644
6.70802
6.7374
6.78234
6.8225
6.74007
6.74104
6.77377
6.70007
6.73145
6.67033
6.69719
6.90374
6.7033
6.6901
6.75432
6.84815
7.09417
6.70393
6.6898
6.71972
6.77021
6.80838
6.84848
6.68311
6.72564
6.74639
6.76263
6.79852
6.76333
6.75805
6.77477
6.70234
6.72111
6.66048
6.68333
6.90714
6.70765
6.69849
6.7618
6.84472
7.04378
6.7275
6.71211
6.73383
6.76729
6.77203
6.84056
6.70256
6.74148
6.7421
6.75262
6.7951
6.77417
6.76054
6.76626
6.69129
6.70438
6.64553
6.64606
6.83923
6.68926
6.68849
6.74946
6.79705
6.92389
6.7405
6.7171
6.73536
6.75804
6.7456
6.80255
6.71204
6.75904
6.73964
6.73884
6.76429
6.77679
6.76305
6.75644
6.68001
6.68343
6.64748
6.65388
6.77404
6.66161
6.67445
6.72612
6.72748
6.79678
6.73436
6.7026
6.73348
6.74598
6.71529
6.73723
6.71572
6.77296
6.74347
6.73754
6.74176
6.7736
6.76258
6.74739
6.66173
6.68193
6.67233
6.69067
6.73642
6.65174
6.66785
6.70494
6.6726
6.70033
6.72101
6.69407
6.73177
6.71743
6.68904
6.68438
6.72348
6.78178
6.73179
6.73538
6.72122
6.76961
6.75281
6.74447
6.70547
6.70877
6.71401
6.72251
6.72963
6.66754
6.67893
6.69992
6.64969
6.64671
6.72164
6.69919
6.73259
6.68063
6.68007
6.65262
6.73348
6.77246
6.71836
6.73455
6.71212
6.7652
6.73702
6.73585
6.76854
6.74917
6.76259
6.76106
6.74217
6.68758
6.71964
6.71169
6.66401
6.6542
6.72923
6.71286
6.73502
6.64966
6.67904
6.66415
6.74154
6.74963
6.71145
6.73632
6.72922
6.75878
6.72997
6.73442
6.78656
6.77948
6.79664
6.77809
6.76089
6.70264
6.75607
6.73719
6.70939
6.72385
6.73605
6.72347
6.73204
6.66195
6.70655
6.74208
6.75309
6.72174
6.71338
6.74464
6.77106
6.74487
6.73019
6.73822
6.78279
6.78562
6.81474
6.77753
6.77413
6.70781
6.77098
6.75652
6.76597
6.80589
6.74406
6.72941
6.73088
6.70815
6.7881
6.82867
6.76399
6.69713
6.7151
6.75954
6.84437
6.73317
6.73319
6.74517
6.77403
6.79635
6.78406
6.768
6.77661
6.72067
6.75803
6.75038
6.77698
6.80603
6.74391
6.72977
6.72065
6.70519
6.8117
6.83226
6.75765
6.71051
6.71616
6.78459
6.84853
6.72631
6.73299
6.75162
6.76112
6.75584
6.74692
6.75219
6.77185
6.71978
6.72925
6.72813
6.76157
6.7825
6.73149
6.72024
6.69696
6.68017
6.7721
6.79787
6.74175
6.71191
6.70803
6.76298
6.79913
6.71297
6.71622
6.72992
6.75424
6.7004
6.72177
6.74224
6.7671
6.68752
6.70565
6.71263
6.74802
6.76591
6.71896
6.7028
6.6913
6.67703
6.741
6.76903
6.72911
6.70523
6.70635
6.69828
6.75588
6.70304
6.70468
6.69693
6.75888
6.66326
6.71927
6.74433
6.76864
6.6587
6.70825
6.71433
6.74552
6.76213
6.72143
6.70931
6.70308
6.6997
6.7412
6.75939
6.72943
6.71438
6.71576
6.7059
6.74918
6.71481
6.7239
6.7348
6.77503
6.70981
6.73835
6.75612
6.77794
6.69505
6.72743
6.74265
6.75299
6.76824
6.74145
6.7326
6.71937
6.72762
6.7473
6.76241
6.74453
6.71758
6.73622
6.74975
6.75861
6.73832
6.74468
6.83337
6.79931
6.75877
6.76232
6.77279
6.79063
6.75007
6.75651
6.77674
6.76902
6.77919
6.76807
6.7633
6.75012
6.75535
6.75987
6.77236
6.77193
6.73329
6.74747
6.7579
6.76841
6.75869
6.73339
6.78797
6.82598
6.78878
6.7755
6.79519
6.79923
6.78531
6.78226
6.81127
6.78725
6.79272
6.79746
6.79116
6.77717
6.78661
6.77704
6.78592
6.79305
6.76325
6.78007
6.77044
6.78096
6.78611
6.80755
6.78422
6.84343
6.80262
6.78813
6.81571
6.80335
6.80431
6.80136
6.83289
6.80905
6.81092
6.80559
6.79721
6.7891
6.81012
6.79275
6.80078
6.76465
6.78682
6.80012
6.78576
6.79482
6.82666
6.83641
6.79615
6.84529
6.8125
6.81184
6.82235
6.81481
6.80665
6.82222
6.82937
6.82499
6.82787
6.81674
6.80442
6.80963
6.82081
6.80637
6.81429
6.82235
6.79734
6.80394
6.80019
6.80785
6.83117
6.81349
6.8052
6.83677
6.82931
6.83162
6.81572
6.83579
6.80967
6.83385
6.82038
6.83113
6.83707
6.81276
6.80085
6.82168
6.82158
6.81649
6.82294
6.82028
6.81456
6.80858
6.81199
6.81913
6.82979
6.81256
6.81383
6.82771
6.84491
6.83937
6.80998
6.85043
6.82932
6.83784
6.81496
6.82986
6.84051
6.82601
6.81748
6.81979
6.82057
6.82246
6.82912
6.8184
6.82855
6.81608
6.82159
6.82828
6.8333
6.82508
6.82237
6.82358
6.84887
6.83602
6.81174
6.85823
6.83917
6.83646
6.81024
6.8247
6.83841
6.83237
6.82669
6.82723
6.82018
6.82483
6.83263
6.82766
6.83221
6.82194
6.82724
6.83505
6.84298
6.83544
6.82806
6.82517
6.8459
6.82736
6.81295
6.85628
6.83981
6.83176
6.80511
6.81972
6.83518
6.83798
6.83217
6.82976
6.8172
6.8252
6.83403
6.83896
6.83731
6.82498
6.83041
6.83953
6.84956
6.83818
6.83148
6.82623
6.83832
6.81947
6.81358
6.83947
6.83819
6.82746
6.7992
6.81418
6.83074
6.84642
6.83992
6.82657
6.8165
6.82686
6.83434
6.85069
6.83961
6.82904
6.83341
6.8429
6.84754
6.83797
6.83513
6.82618
6.83364
6.82111
6.81627
6.8201
6.83834
6.82351
6.7998
6.80913
6.82432
6.85873
6.85603
6.82827
6.82186
6.83156
6.83613
6.85647
6.83938
6.8349
6.83765
6.8458
6.84435
6.83862
6.84004
6.82496
6.83705
6.82622
6.8186
6.80545
6.84051
6.82813
6.80856
6.80949
6.82067
6.85745
6.85881
6.834
6.82852
6.83826
6.84032
6.85557
6.83983
6.84119
6.84279
6.84901
6.84319
6.8414
6.8458
6.82798
6.83939
6.8305
6.82304
6.8006
6.83761
6.83125
6.82228
6.81409
6.82275
6.85317
6.8474
6.83493
6.8348
6.84611
6.84586
6.85088
6.84162
6.84659
6.84785
6.85315
6.84487
6.84684
6.85222
6.83681
6.83169
6.83106
6.82955
6.81029
6.82598
6.83282
6.83403
6.82181
6.82956
6.84775
6.83906
6.83839
6.84091
6.85312
6.85295
6.84806
6.84461
6.85303
6.8534
6.85809
6.84957
6.85386
6.8591
6.84721
6.84263
6.84372
6.84378
6.82921
6.83225
6.83536
6.8406
6.83049
6.8418
6.8527
6.84528
6.84528
6.8474
6.85968
6.86046
6.85138
6.85135
6.86077
6.85967
6.86468
6.85703
6.86193
6.8658
6.869
6.86992
6.86566
6.86154
6.84274
6.86613
6.85876
6.85227
6.84343
6.85581
6.86379
6.85961
6.85492
6.85485
6.86424
6.8697
6.86003
6.86214
6.868
6.86518
6.87288
6.86603
6.86903
6.87185
6.88637
6.89526
6.88215
6.87371
6.8599
6.89478
6.87935
6.86352
6.85699
6.86736
6.87478
6.8719
6.86555
6.86163
6.86603
6.87704
6.86971
6.87172
6.87227
6.87007
6.88156
6.87378
6.87324
6.8762
6.89543
6.90914
6.89898
6.88313
6.86693
6.90072
6.88883
6.86989
6.86387
6.87043
6.88384
6.87928
6.87156
6.86388
6.86128
6.8749
6.87849
6.87661
6.87261
6.87094
6.88238
6.87878
6.87479
6.87784
6.88905
6.91305
6.90598
6.87869
6.85732
6.90329
6.89443
6.86909
6.85637
6.8594
6.89328
6.88763
6.87738
6.86396
6.85489
6.86108
6.88685
6.87734
6.86928
6.86646
6.87055
6.8814
6.87459
6.87532
6.88476
6.91763
6.90486
6.87414
6.8498
6.91135
6.89449
6.8674
6.84379
6.8418
6.9049
6.89755
6.8826
6.86537
6.84579
6.8433
6.89707
6.88139
6.86462
6.85371
6.85332
6.88855
6.87567
6.86948
6.89328
6.92889
6.90815
6.88187
6.85521
6.92402
6.90124
6.87029
6.83096
6.82772
6.9208
6.91135
6.89433
6.86252
6.82147
6.81764
6.91142
6.89211
6.86591
6.84255
6.83191
6.90034
6.87992
6.86441
6.90294
6.94508
6.91947
6.89305
6.85883
6.94292
6.91454
6.87496
6.81257
6.79372
6.94154
6.93128
6.90885
6.86046
6.79159
6.77888
6.93116
6.90741
6.87355
6.83008
6.80039
6.91729
6.88532
6.85812
6.91497
6.96921
6.93873
6.90596
6.85955
6.96776
6.93746
6.87831
6.7719
6.73718
6.96803
6.95818
6.92891
6.85775
6.74888
6.70042
6.95734
6.9283
6.87912
6.80917
6.76012
6.93704
6.89268
6.85161
6.93628
7.00357
6.97134
6.92538
6.85791
6.99999
6.96469
6.87806
6.70544
6.60862
7.00097
6.99123
6.95016
6.85023
6.67704
6.52336
6.99123
6.95622
6.88295
6.78464
6.68742
6.96099
6.89617
6.85867
6.97151
7.04957
7.01631
6.9536
6.86045
7.03932
6.99541
6.87279
6.61817
6.27536
7.04163
7.02973
6.97497
6.84353
6.57895
6.06888
7.03251
6.98595
6.90494
6.75797
6.54189
6.99722
6.93252
6.87565
7.01928
7.09735
7.06567
6.99324
6.87479
7.08451
7.03455
6.87334
6.53665
5.2373
7.08111
7.06773
7.00219
6.83788
6.4803
5.31461
-4.73609
7.07436
7.01977
6.92239
6.71908
6.16489
7.05123
6.97934
6.91425
7.08059
7.14445
7.11365
7.03887
6.90104
7.1282
7.07155
6.92785
6.53326
4.57239
0.133638
7.11506
7.10283
7.03095
6.89928
6.46428
5.21448
0.454008
7.10401
7.0468
6.95384
6.7123
5.60834
7.08602
7.02247
6.96454
7.11005
7.16153
7.12658
7.07243
6.95515
7.14856
7.09229
6.98317
6.64882
5.22488
1.31635
7.14641
7.13343
7.06095
6.96476
6.62113
5.22079
1.39521
7.12776
7.08055
7.01021
6.81749
6.00611
1.84263
7.1129
7.06112
7.03225
7.13327
7.1494
7.11148
7.09558
7.02871
7.1604
7.12671
7.03053
6.79508
5.53676
1.30479
7.16644
7.15292
7.10067
7.03034
6.802
5.69908
1.28795
7.14361
7.10258
7.07748
6.91469
6.37848
7.13127
7.09887
7.1047
7.13821
7.14238
7.12419
7.10854
7.06514
7.1469
7.11642
7.03767
6.82901
5.97627
7.15621
7.14417
7.10744
7.0521
6.87986
5.95665
-1.96837
7.13793
7.10133
7.10027
7.03844
7.06573
7.13366
7.1167
7.14124
7.12607
7.12926
7.11163
7.09845
7.05475
7.1267
7.09065
7.03668
6.83671
6.69464
7.13779
7.12314
7.07737
7.01849
6.89082
6.6735
7.12131
7.07627
7.07795
7.0626
7.11121
7.11463
7.10435
7.1377
7.10011
7.10463
7.08371
7.07714
7.03301
7.10145
7.06308
7.00286
6.80585
6.89019
7.11101
7.09356
7.03181
6.94855
6.84239
6.86006
7.0967
7.03888
7.01824
7.01763
7.07887
7.08618
7.06854
7.09692
7.0777
7.08867
7.06385
7.05351
7.02231
7.08001
7.02167
6.97559
6.82162
6.98361
7.07962
7.06314
6.97649
6.90903
6.83922
6.94689
7.05516
6.99395
6.97971
6.97317
7.04509
7.05464
7.03698
7.05813
7.06896
7.08609
7.06224
7.04237
7.0385
7.06138
7.00616
6.97658
6.87772
7.04981
7.03922
7.02094
6.94338
6.90086
6.89378
7.01886
6.99372
6.95137
6.98
6.98296
7.05792
7.02658
7.03002
7.04984
7.07977
7.09363
7.07943
7.05813
7.0684
7.05242
7.01935
7.00146
6.95858
7.10312
7.0081
6.99247
6.93646
6.92486
6.95934
7.07258
6.94124
6.95408
7.00926
7.02007
7.09185
7.01971
7.04733
7.08159
7.11704
7.11364
7.10772
7.09342
7.10841
7.06071
7.04277
7.04565
7.03498
7.14304
7.00484
6.99173
6.94822
6.97062
7.04232
7.12787
6.93501
7.00189
7.04949
7.07743
7.14302
7.03869
7.0859
7.12853
7.1689
7.14332
7.13727
7.12821
7.14364
7.08809
7.06728
7.07244
7.09241
7.1657
7.03149
7.01007
7.00939
7.02452
7.07836
7.17032
6.96555
7.01072
7.05343
7.13145
7.1933
7.08992
7.14574
7.18384
7.19174
7.16605
7.1539
7.14372
7.1619
7.11598
7.08908
7.09129
7.11151
7.1915
7.08079
7.03711
7.03029
7.04982
7.10514
7.19986
7.00656
7.04589
7.09713
7.16439
7.22182
7.14234
7.18529
7.21911
295.025
298.752
304.229
310.994
304.852
320.977
305.186
281.937
290.872
291.535
303.67
298.415
303.275
313.256
317.761
304.767
306.92
324.341
317.237
313.514
305.313
291.6
236.514
289.577
215.766
140.765
292.981
284.45
297.092
295.56
293.386
289.925
282.239
293.339
290.534
271.898
273.757
306.797
314.839
285.686
306.588
292.247
200.08
304.869
243.69
97.7859
136.757
134.877
289.205
298.058
292.52
293.669
285.812
295.585
291.841
273.026
278.996
283.909
286.15
286.361
298.74
288.85
295.801
308.026
287.44
305.653
303.587
228.503
189.555
265.621
285.19
291.853
292.918
282.82
290.248
289.384
285.116
285.949
275.429
282.347
286.915
272.578
273.995
295.604
295.557
279.641
279.166
273.753
280.027
278.866
277.618
268.061
266.593
259.266
251.974
263.051
256.652
189.158
237.203
253.521
247.238
130.422
173.089
139.232
228.695
197.46
126.711
121.93
84.1695
194.065
75.552
259.701
199.737
259.344
263.242
255.972
198.316
192.343
200.539
193.973
157.658
172.476
112.581
79.0044
71.9735
67.8486
37.4466
50.8948
22.9765
258.529
252.327
258.237
197.575
198.682
194.027
50.2884
45.9771
21.7226
22.0692
22.3292
261.22
260.154
192.073
194.029
193.688
96.2535
181.462
35.6583
26.3992
90.2343
258.328
191.103
263.041
252.766
253.727
189.748
192.352
185.003
182.647
242.536
247.768
243.541
181.279
160.422
189.049
173.938
131.643
248.989
181.807
245.667
235.841
184.763
190.178
186.668
235.247
231.711
199.371
202.188
204.729
197.421
112.232
49.6743
53.7726
85.6621
44.5689
31.6447
37.4322
30.6444
42.2832
35.6312
26.0528
23.5538
19.4677
30.1325
16.4298
120.679
53.1609
120.68
128.341
131.553
70.8842
70.8824
71.2484
85.9079
27.9406
22.1509
15.6778
13.2886
14.6735
12.4927
12.4689
16.6527
15.7665
95.566
93.1653
93.4271
18.8868
8.46223
9.66239
16.4494
17.155
15.3754
14.3992
15.4673
105.223
105.468
9.95855
11.7789
17.2426
15.2794
31.8913
12.9192
14.5594
14.3046
103.937
22.8819
104.569
103.27
101.552
25.5146
20.3362
29.6223
27.2489
86.3756
100.07
94.1585
8.80118
30.65
13.029
22.7872
26.9236
98.7829
26.0341
104.343
107.509
23.4422
17.5675
21.145
132.433
130.834
14.9917
17.0508
22.804
19.7942
29.0733
14.8844
22.0831
23.4083
28.1823
7.55454
11.1402
10.8999
15.0752
10.8546
6.7629
7.34111
7.74745
10.896
9.07068
14.7534
7.28544
39.4189
35.4201
50.7896
23.9346
20.8661
15.6638
25.9709
12.2419
9.89815
12.3462
10.1974
10.1521
8.25371
9.76953
14.897
12.6313
6.56045
5.60394
5.6288
6.88879
7.55462
7.50624
12.4347
13.0501
11.2474
11.0633
11.226
5.38287
5.3709
7.25624
7.19553
7.10503
11.9479
9.97709
10.7234
10.2589
9.64652
5.71232
6.91163
5.46967
6.05599
5.91923
6.75983
6.79913
6.65566
6.6546
6.93848
5.27234
5.96677
6.47068
6.10341
6.27665
6.11968
6.91083
5.80891
6.66389
5.21308
5.23146
6.49837
6.61362
6.62325
4.83357
4.96108
6.66312
6.57383
6.66047
6.49321
6.66656
6.30842
5.96573
6.18828
5.85533
6.66577
6.4106
6.57338
6.03099
6.6667
6.43665
6.33786
6.36325
7.28271
6.46513
6.29649
6.28671
6.86607
6.58678
9.05311
6.246
6.29048
6.27223
6.32535
7.61346
7.58899
7.0244
6.37944
6.72801
7.9071
6.81724
8.36808
7.01049
6.32497
6.9415
6.76302
6.20862
6.54787
6.40759
10.5817
10.7464
9.04458
9.79811
10.8853
6.82225
6.75166
6.70582
6.69456
6.69555
9.70784
6.91086
7.29211
9.25045
6.37108
6.71544
6.67321
6.58217
6.7224
6.63573
6.68896
6.60125
6.65385
6.59155
6.19666
6.19682
6.21853
6.09886
6.30678
6.16301
6.28869
6.39199
6.60572
6.57366
6.51062
6.49021
6.53288
6.53521
6.57622
6.38394
6.36988
6.45622
6.45878
6.51253
6.36291
6.48352
6.46913
6.55903
6.49113
6.55302
6.50057
6.46038
6.47374
6.37877
6.46573
6.41335
6.38553
6.48161
6.61935
6.58669
6.3178
6.24652
6.42377
6.33796
6.51518
6.3127
6.36447
6.2649
6.39478
6.6696
7.12222
6.69254
6.44486
6.51816
5.88717
6.30543
6.79706
6.56485
6.23924
6.52488
6.4145
6.17969
6.56861
6.48522
6.86812
8.36189
5.69297
5.33438
5.20714
6.70814
6.70716
6.73276
6.7187
6.69371
7.5426
6.53298
6.41942
5.53452
6.56242
6.70446
6.67689
6.66342
6.68997
6.68041
6.6606
6.60587
6.62663
6.59632
6.37075
6.26354
6.36218
6.32503
6.40786
6.34664
6.42087
6.47151
6.64175
6.57371
6.57342
6.59654
6.55133
6.53765
6.57083
6.51424
6.55902
6.47426
6.50421
6.50853
6.45377
6.51052
6.52479
6.53328
6.48262
6.51127
6.51951
6.48424
6.51313
6.41994
6.45269
6.46616
6.45844
6.44409
6.48571
6.45135
6.27847
6.34461
6.47644
6.30349
6.4501
6.43508
6.4773
6.3504
6.44944
6.50082
6.12571
6.35633
6.4546
6.52364
6.36065
6.47576
6.45227
6.42245
6.21409
6.65334
6.55434
6.37594
6.68829
6.59423
5.77876
6.14061
6.10883
6.43259
6.22671
6.36439
5.93279
6.17319
6.16492
6.12041
6.26531
6.18273
6.18661
6.11576
6.71769
6.69352
6.71084
6.69747
6.68147
6.51474
6.56268
6.46999
6.5019
6.09031
6.5217
6.46048
6.28992
6.4095
6.77488
6.2277
6.38722
6.38682
7.07723
6.67409
6.63604
6.62221
6.60543
6.58311
6.60372
6.54189
6.5671
6.53164
6.43699
6.40596
6.46035
6.43667
6.44415
6.44139
6.48316
6.49367
6.56728
6.51243
6.52007
6.55275
6.48572
6.48121
6.50136
6.48772
6.47738
6.43808
6.47377
6.44807
6.48644
6.54509
6.53749
6.49619
6.48659
6.512
6.48844
6.49429
6.50609
6.47877
6.46268
6.48182
6.47899
6.46347
6.4531
6.4363
6.42546
6.47344
6.54025
6.42518
6.45845
6.51051
6.52094
6.45693
6.45177
6.52321
6.40183
6.56156
6.39596
6.50178
6.35354
6.56284
6.65234
6.20849
6.82702
6.53684
6.31237
6.25794
6.28025
6.14615
6.49736
6.65107
6.63682
6.5108
6.63308
6.64914
6.21025
6.39624
6.1505
6.36593
6.25554
6.30396
6.12637
6.1812
6.18537
6.08493
6.18087
6.10576
6.07236
6.03161
6.66503
6.66317
6.635
6.62376
6.62115
6.27003
6.52843
6.45147
6.27831
6.16216
6.31849
6.23607
6.13166
6.39179
6.62522
5.86242
6.05764
5.95473
6.36987
6.61342
6.56908
6.5225
6.5396
6.49886
6.53862
6.47611
6.50537
6.45732
6.44466
6.45672
6.4891
6.4229
6.42204
6.43599
6.4726
6.44187
6.44822
6.34981
6.83093
6.17436
6.66864
6.47805
6.44125
6.43898
6.44596
6.40743
6.39811
6.40001
6.45047
6.40946
6.36542
6.41075
6.36713
6.4403
6.49879
6.4562
6.48237
6.48269
6.49014
6.46985
6.45496
6.46621
6.46725
6.44308
6.46262
6.4579
6.44126
6.41233
6.39679
6.46484
6.41208
6.47946
6.44036
6.42221
6.44013
6.4318
6.3974
6.37718
6.48607
6.32134
6.51858
6.38995
6.4749
6.29433
6.46583
6.88349
6.64097
6.7544
6.7106
6.29597
6.19464
6.40443
6.26934
6.4732
6.57942
6.58338
6.40998
6.49717
6.48373
6.1683
6.19365
6.14521
6.16813
6.06951
6.12371
6.1671
6.09009
6.05084
6.06014
6.23181
6.22111
6.08808
6.15846
6.55504
6.54736
6.48912
6.48325
6.47506
6.13325
6.20627
6.1366
6.15727
6.11524
6.12069
6.03046
6.08693
5.79455
6.375
5.83919
6.18186
5.86406
6.45748
6.51153
6.45725
6.42674
6.45963
6.42202
6.44037
6.38612
6.4233
6.38543
6.38806
6.39905
6.42456
6.3136
6.34653
6.35333
6.37005
6.27127
6.29244
6.12802
6.65679
6.14406
6.64327
6.40353
6.37094
6.34531
6.34526
6.33513
6.3049
6.30528
6.36368
6.32059
6.2732
6.31554
6.27987
6.33778
6.41211
6.37285
6.44408
6.42156
6.43289
6.41003
6.38855
6.39379
6.45159
6.46143
6.42294
6.42563
6.45322
6.39831
6.41859
6.34424
6.29101
6.38614
6.34559
6.32574
6.34115
6.34921
6.30119
6.28309
6.46038
6.27951
6.41566
6.3665
6.43756
6.30543
6.37384
6.68007
6.33473
6.32966
6.40072
6.3768
6.26781
6.32007
6.29627
6.64589
6.05026
6.18319
6.24112
6.89728
5.96616
6.16942
6.32556
6.12174
6.20783
6.60532
6.46501
6.41746
6.53647
6.41259
6.40848
6.35465
6.35034
6.35221
6.12366
6.20447
6.19818
6.19152
6.17949
6.20247
6.23749
6.16782
5.84897
6.52725
6.28736
6.40697
6.24551
6.60584
6.404
6.35864
6.35075
6.38597
6.35279
6.35666
6.31595
6.35499
6.32474
6.31962
6.30073
6.31943
6.24839
6.28649
6.28146
6.28694
6.22502
6.33898
6.31813
6.26848
6.26933
6.29357
6.24688
6.25071
6.28209
6.25393
6.242
6.25829
6.24654
6.26946
6.34064
6.31689
6.36968
6.34837
6.34981
6.31763
6.30477
6.30169
6.38197
6.41125
6.33069
6.33068
6.35948
6.42054
6.39101
6.26334
6.25941
6.32688
6.27543
6.25587
6.30431
6.31408
6.27145
6.25053
6.40127
6.32405
6.31903
6.34447
6.35941
6.30761
6.27199
6.2235
6.31882
6.23453
6.26678
6.2489
6.23001
6.24089
6.23082
6.03214
6.55981
6.14303
5.97666
5.47931
6.30316
6.30966
6.27859
6.27288
6.28046
6.61494
6.17648
6.1166
5.90454
6.13787
6.32275
6.29756
6.29072
6.3289
6.3081
6.30018
6.27285
6.30912
6.29733
6.25486
6.27274
6.27525
6.22179
6.23894
6.25912
6.26854
6.19069
6.30393
6.29636
6.23962
6.24662
6.27924
6.24161
6.25076
6.25175
6.25458
6.25942
6.25954
6.26919
6.24948
6.28889
6.24382
6.25367
6.26471
6.24438
6.18382
6.21034
6.17866
6.27491
6.31263
6.21458
6.21715
6.26961
6.34409
6.29416
6.25937
6.25534
6.29594
6.27223
6.24851
6.27504
6.262
6.26398
6.23824
6.31707
6.2608
6.24044
6.29054
6.29294
6.19816
6.23372
6.38317
6.38086
6.24172
6.23226
6.2292
6.24972
6.23043
6.23234
5.97945
5.81458
6.15635
6.03577
6.04673
6.25766
6.26386
6.25255
6.24991
6.25796
6.03214
6.08311
6.04265
6.11234
6.0561
6.28139
6.27283
6.26349
6.29511
6.29012
6.27261
6.26086
6.28596
6.28702
6.22327
6.23912
6.24878
6.23081
6.1898
6.23704
6.21875
6.14769
6.29231
6.28919
6.25264
6.26087
6.28033
6.2602
6.26896
6.26481
6.28233
6.27838
6.26817
6.29062
6.24533
6.19399
6.13134
6.11167
6.14196
6.10885
6.03657
6.06784
6.03616
6.15775
6.22744
6.10488
6.0968
6.18091
6.2389
6.17724
6.24625
6.23469
6.21794
6.24806
6.22081
6.21208
6.17349
6.23097
6.19796
6.2744
6.15563
6.23502
6.17249
6.24601
6.13296
6.22565
6.3437
6.31312
6.25034
6.23173
6.2346
6.24565
6.2319
6.23523
6.09467
6.16223
6.12844
6.13878
6.23485
6.24778
6.25925
6.25151
6.24867
6.26331
6.13895
6.06897
6.08248
6.16001
6.09715
6.27099
6.27162
6.25586
6.28081
6.2832
6.26312
6.255
6.27835
6.27987
6.16574
6.23529
6.18564
6.23333
6.13054
6.21757
6.15377
6.13703
6.28992
6.2841
6.2702
6.27601
6.27846
6.27154
6.2754
6.27066
6.29251
6.28128
6.2702
6.2854
6.24287
6.0891
6.05924
5.97162
5.9974
5.9635
5.92832
5.95034
5.90759
6.04156
6.13509
6.03455
6.00908
6.1001
6.11573
6.07529
6.22594
6.22232
6.13898
6.2176
6.17424
6.17746
6.11701
6.20738
6.15934
6.20892
6.11511
6.21231
6.0751
6.1822
6.11294
6.2028
6.29796
6.28745
6.23984
6.23576
6.23794
6.23709
6.24001
6.24247
6.15515
6.27955
6.10092
6.15973
6.29171
6.25534
6.27437
6.26232
6.26028
6.27792
6.18491
6.133
6.09751
6.1979
6.1562
6.27951
6.28235
6.25229
6.27679
6.27545
6.26695
6.25684
6.2796
6.27583
6.08429
6.19185
6.12447
6.15982
6.0444
6.16632
6.09816
6.131
6.2843
6.27921
6.27403
6.27329
6.27334
6.26441
6.26347
6.25635
6.27106
6.25239
6.24045
6.25489
6.203
6.05625
6.08121
5.91669
5.9426
5.88514
5.9379
5.98556
5.89945
6.01295
6.09898
6.07313
6.04246
6.11404
6.06715
6.08777
6.22391
6.22968
6.11296
6.20445
6.15664
6.18099
6.1258
6.20847
6.16443
6.17968
6.11976
6.19478
6.15136
6.19332
6.13909
6.19497
6.27341
6.2599
6.24015
6.24999
6.25098
6.24684
6.26021
6.25936
6.15893
6.29577
6.09183
6.17134
6.3038
6.26984
6.2914
6.27879
6.2763
6.29638
6.21146
6.1528
6.11151
6.22245
6.14612
6.29444
6.29878
6.25953
6.28162
6.27237
6.27851
6.26508
6.28764
6.27772
6.00605
6.14792
6.06923
6.10458
5.97691
6.13654
6.05668
6.12489
6.28034
6.28043
6.26102
6.25994
6.26959
6.25421
6.25472
6.22474
6.24181
6.22754
6.21348
6.23482
6.17193
6.12872
6.18476
5.98305
6.05477
5.93882
6.07423
6.12858
6.02447
6.07649
6.12424
6.16709
6.10072
6.13143
6.1337
6.18073
6.24022
6.25575
6.15396
6.22014
6.1809
6.22293
6.1928
6.2392
6.20235
6.20388
6.16356
6.20318
6.21197
6.20943
6.17597
6.19797
6.25469
6.23611
6.25762
6.27355
6.27016
6.2698
6.28661
6.28233
6.18921
6.29074
6.10804
6.1787
6.27536
6.28681
6.30724
6.2981
6.29499
6.31294
6.21985
6.16209
6.09553
6.2132
6.19088
6.30922
6.31473
6.27244
6.29346
6.28055
6.29155
6.28251
6.3025
6.28846
5.96285
6.13991
6.05882
6.10285
5.96497
6.15495
6.08213
6.17055
6.28673
6.29417
6.24961
6.25312
6.27665
6.24952
6.25531
6.20963
6.23494
6.22393
6.21338
6.24051
6.18268
6.24188
6.29305
6.20264
6.20746
6.15153
6.3095
6.28546
6.2931
6.11674
6.13998
6.19849
6.14136
6.1444
6.21333
6.22229
6.27418
6.29461
6.23396
6.26036
6.2286
6.27834
6.2738
6.28232
6.25969
6.20701
6.18772
6.18574
6.2417
6.19488
6.19679
6.17906
6.20783
6.19461
6.28456
6.30156
6.2959
6.30193
6.31712
6.31106
6.1706
6.27327
6.09523
6.1801
6.28057
6.30605
6.32251
6.32193
6.31752
6.33164
6.21041
6.22403
6.08527
6.20798
6.25878
6.3234
6.33154
6.29168
6.31322
6.29898
6.30874
6.30486
6.32516
6.31354
5.9836
6.18262
6.1176
6.15095
6.00793
6.21399
6.153
6.25301
6.30696
6.32187
6.25386
6.26369
6.30105
6.26395
6.27563
6.22768
6.2584
6.25149
6.24682
6.27649
6.22918
6.33648
6.36831
6.37943
6.35506
6.40277
6.44707
6.3973
6.43289
6.21058
6.13952
6.47849
6.37328
6.17941
6.2161
6.22837
6.31707
6.34083
6.31072
6.30577
6.28998
6.33527
6.34219
6.32666
6.31794
6.18129
6.19026
6.19363
6.17235
6.16208
6.17118
6.20062
6.20038
6.20965
6.32175
6.33519
6.32796
6.34316
6.35521
6.34666
6.20113
6.29664
6.14251
6.22746
6.31668
6.33143
6.34454
6.35372
6.34735
6.36022
6.2088
6.28413
6.10819
6.21493
6.30564
6.34349
6.3584
6.3206
6.34065
6.33312
6.33627
6.33997
6.35889
6.35623
6.03861
6.25025
6.18823
6.21121
6.06816
6.28674
6.22369
6.32081
6.34205
6.36496
6.27986
6.29467
6.34281
6.30092
6.31687
6.27365
6.30745
6.3037
6.30391
6.33471
6.29441
6.3919
6.40738
6.47826
6.42121
6.43321
6.48485
6.43099
6.46147
6.57802
6.29342
6.57545
6.64326
6.49413
6.25329
6.29823
6.36604
6.39126
6.36802
6.35054
6.3429
6.38684
6.38835
6.37414
6.36439
6.14058
6.14039
6.18115
6.11009
6.16285
6.10308
6.16311
6.20438
6.18698
6.36563
6.3772
6.36681
6.38882
6.40079
6.38805
6.23783
6.32714
6.14291
6.22851
6.32056
6.36578
6.37875
6.3943
6.3862
6.40004
6.2214
6.32266
6.13982
6.23181
6.34155
6.37693
6.39861
6.36285
6.38146
6.3832
6.3763
6.38768
6.40579
6.4123
6.10305
6.3268
6.26434
6.28059
6.14399
6.36948
6.30847
6.37062
6.39216
6.42072
6.32716
6.3456
6.40171
6.35693
6.37669
6.3396
6.37444
6.37357
6.37921
6.41031
6.37452
6.42268
6.43732
6.47695
6.43771
6.46943
6.45688
6.44078
6.45005
6.55317
6.71961
6.464
6.4663
6.66078
6.36405
6.41743
6.41753
6.44739
6.40832
6.40044
6.38651
6.44017
6.42635
6.42655
6.40933
6.23529
6.07071
6.1611
6.26815
6.2933
6.09809
6.16417
6.17382
6.16658
6.41354
6.42607
6.41086
6.43933
6.45313
6.43523
6.21986
6.31418
6.11953
6.20371
6.30041
6.40889
6.42403
6.44304
6.43351
6.44964
6.24297
6.36264
6.20333
6.26673
6.38851
6.42296
6.44906
6.41741
6.43316
6.4436
6.42762
6.44738
6.46136
6.47536
6.19402
6.41472
6.35777
6.37046
6.25481
6.46463
6.41002
6.44027
6.45195
6.48395
6.39197
6.4133
6.47272
6.42829
6.45127
6.42312
6.45619
6.45677
6.46908
6.49953
6.47114
6.45887
6.4824
6.44708
6.45259
6.43881
6.45015
6.46872
6.44039
6.43226
6.49015
6.41566
6.41687
6.41458
6.44445
6.49735
6.47844
6.51153
6.45668
6.45867
6.43686
6.50762
6.4817
6.49004
6.46446
6.30151
6.15723
6.14727
6.37509
6.20714
6.19236
6.14257
6.17994
6.21309
6.46755
6.48209
6.46211
6.4974
6.51206
6.48969
6.21739
6.30444
6.19906
6.27896
6.36596
6.46048
6.47681
6.49823
6.4881
6.50433
6.33227
6.44935
6.37909
6.44076
6.53399
6.47661
6.50502
6.48033
6.49225
6.50911
6.48573
6.51185
6.52237
6.54178
6.33542
6.51818
6.47474
6.48918
6.43113
6.57507
6.53623
6.55731
6.51842
6.55164
6.46742
6.49132
6.54744
6.50534
6.52983
6.5171
6.54795
6.54326
6.55733
6.59027
6.57536
6.51064
6.5408
6.46529