/*--------------------------------*- C++ -*----------------------------------*\
| =========                 |                                                 |
| \\      /  F ield         | OpenFOAM: The Open Source CFD Toolbox           |
|  \\    /   O peration     | Version:  5.x                                   |
|   \\  /    A nd           | Web:      www.OpenFOAM.org                      |
|    \\/     M anipulation  |                                                 |
\*---------------------------------------------------------------------------*/
FoamFile
{
    version     2.0;
    format      ascii;
    class       surfaceScalarField;
    location    "6.45";
    object      phi;
}
// * * * * * * * * * * * * * * * * * * * * * * * * * * * * * * * * * * * * * //

dimensions      [0 3 -1 0 0 0 0];

internalField   nonuniform List<scalar> 
29271
(
-1.45773e-05
9.29221e-08
2.92281e-06
1.15989e-05
-1.22192e-05
1.95831e-06
6.43856e-06
3.93295e-06
-5.71763e-05
-1.33687e-05
-1.40746e-05
4.94754e-06
7.99995e-06
7.16722e-05
-5.09688e-05
-1.14639e-05
3.13434e-06
-6.62258e-07
6.04492e-06
5.39157e-05
-3.51875e-05
-1.0857e-06
-5.73427e-06
3.28092e-07
3.8172e-05
3.50731e-06
-6.4001e-05
-1.92634e-05
-1.5809e-05
8.70228e-06
1.14364e-06
8.92275e-05
-4.87182e-05
-2.32374e-06
-1.35023e-05
8.76319e-07
-3.47157e-06
6.71395e-05
-6.00202e-05
-1.66769e-06
9.78934e-06
-1.07114e-05
-2.87455e-06
6.54845e-05
-4.4454e-05
-1.26829e-06
9.44093e-06
-6.79396e-06
6.02885e-06
3.70464e-05
-1.68804e-05
-4.41022e-07
3.98539e-06
9.97427e-06
3.50071e-06
-8.26381e-06
-8.49121e-07
5.26932e-06
3.85876e-06
-4.95621e-05
-1.05222e-05
1.08116e-06
3.53259e-06
-1.09105e-05
6.63811e-05
-4.88956e-05
1.10529e-05
-1.08164e-05
1.36955e-06
-1.72514e-05
6.45409e-05
-4.18231e-05
4.72127e-06
4.51752e-06
-1.51875e-05
-8.35765e-06
5.61294e-05
-5.50045e-05
-7.88956e-06
2.07139e-05
-1.20537e-05
9.52363e-06
4.47103e-05
-4.63707e-05
-1.1753e-05
-9.24958e-06
2.17175e-05
3.77371e-05
7.91867e-06
-4.81284e-05
-1.52718e-06
4.93123e-06
-2.96353e-07
3.27153e-05
1.23054e-05
-4.06221e-05
-6.11126e-06
1.83303e-05
2.24517e-07
-9.4372e-06
3.76158e-05
-4.67158e-05
1.14004e-05
-6.02654e-06
2.98713e-06
-1.44709e-05
5.28257e-05
-4.69988e-05
-9.00112e-06
-1.58922e-05
7.02108e-05
-8.93953e-07
2.57538e-06
-1.39298e-05
-7.51759e-06
8.86866e-06
1.25137e-05
-2.78433e-05
1.4401e-06
-2.81944e-06
1.72418e-05
1.2137e-05
-4.90585e-05
-4.12251e-06
-5.52829e-06
-7.16024e-06
6.27651e-05
3.10445e-06
-1.44238e-05
3.00484e-06
6.0636e-06
5.45309e-06
-7.57088e-06
-1.56788e-06
2.53315e-06
6.62283e-06
-1.39469e-06
-6.4812e-07
1.29704e-07
1.97378e-06
1.9082e-06
1.05602e-05
-7.64073e-05
-2.09174e-06
-5.21603e-06
7.12467e-05
3.50156e-06
-5.22e-05
-7.74098e-06
5.01833e-06
-7.25725e-06
5.86784e-05
-4.30954e-05
3.59111e-06
-3.46139e-06
-3.6295e-06
4.68673e-05
-2.72151e-07
5.10534e-07
3.36687e-06
-9.70805e-05
-3.95533e-07
-1.03095e-06
9.46295e-05
1.27706e-05
-8.30762e-05
0.000321347
-8.48576e-05
-9.84173e-05
-8.09284e-05
-7.96849e-05
1.67251e-05
1.66542e-05
2.6336e-05
2.69111e-05
-3.01106e-07
-2.54795e-07
4.17134e-06
2.6052e-06
9.7305e-07
-9.9009e-05
0.00028388
-7.57722e-05
-5.52404e-05
-7.035e-05
-6.20427e-05
1.68126e-05
1.97246e-05
2.51581e-05
2.86364e-05
-9.41693e-07
-2.85498e-05
9.41113e-05
6.3355e-06
7.06889e-06
9.82401e-06
7.79557e-06
-7.42042e-07
-8.59802e-07
-2.65739e-06
-3.0513e-05
-1.45901e-05
-3.25598e-05
-1.27488e-05
-7.23258e-06
1.97156e-06
-4.75763e-07
4.70096e-06
-2.5977e-06
5.22307e-07
-6.00611e-07
2.67906e-06
1.02065e-05
-7.05182e-05
4.44857e-06
-1.03299e-05
-4.84277e-06
7.10358e-05
7.06167e-06
-5.3178e-06
0.000110029
-6.29582e-05
-5.74032e-05
-5.75416e-05
-2.92808e-05
2.69914e-06
1.27942e-06
5.16658e-06
3.18952e-06
2.27092e-05
-2.36609e-05
0.000145526
-6.18903e-05
-5.96629e-05
-5.42687e-05
-6.07001e-05
-4.93089e-07
-7.84604e-06
0.000220605
-1.84051e-06
3.87796e-06
6.38152e-07
-5.86191e-06
-3.2689e-06
-7.32023e-06
-3.57697e-05
-2.86128e-05
-6.12679e-05
-7.86801e-05
-2.83821e-05
1.60864e-06
-6.80504e-07
-7.31683e-07
2.76926e-05
-4.3623e-05
1.63686e-06
-5.34506e-06
-9.15651e-06
6.05466e-05
-4.0589e-06
-3.02473e-06
-2.00505e-06
0.00010813
2.37052e-06
3.72378e-06
1.14269e-05
1.17435e-05
-2.72094e-06
-4.16403e-08
-1.18069e-06
-3.22829e-05
-1.8076e-05
-6.23944e-05
-2.09865e-05
5.02347e-07
-5.6958e-06
0.000142946
9.43826e-07
7.51053e-06
2.14645e-06
-2.80393e-06
-1.88226e-06
-1.84529e-07
-4.85731e-05
-6.40466e-05
-2.66956e-05
-3.08527e-05
-8.15609e-05
-3.35751e-06
-4.50165e-06
8.20764e-05
-1.11743e-05
5.64258e-07
3.21726e-06
7.41914e-06
-1.87626e-05
6.14916e-06
-5.53381e-06
1.61526e-05
-7.69019e-05
4.86321e-06
-8.39428e-08
1.01333e-06
6.54135e-05
-3.09231e-06
7.87311e-07
-2.43368e-06
4.73934e-06
-7.86157e-06
5.86424e-06
-6.96699e-06
8.9724e-06
-8.14823e-06
-8.70937e-06
4.38326e-06
1.24856e-05
3.92726e-06
1.39831e-05
-5.79357e-05
4.28094e-07
-1.03073e-05
4.99045e-05
1.00368e-05
-6.91285e-05
-1.14212e-06
-3.31295e-06
-2.12771e-05
8.48238e-05
-5.44509e-05
1.15964e-05
-6.30906e-06
-1.7037e-05
6.17286e-05
4.47203e-06
6.16878e-06
7.92444e-06
-8.73211e-05
-4.50685e-06
-2.03165e-06
7.97664e-05
-2.95068e-05
-4.52088e-05
0.0002079
2.79296e-05
2.90014e-05
3.26846e-05
3.93546e-05
1.36964e-05
1.04486e-05
1.75622e-05
1.7485e-05
8.79964e-07
-7.37163e-05
0.00015457
3.63301e-05
3.77761e-05
5.04997e-05
4.80334e-05
-5.09324e-07
-4.61698e-05
7.11977e-05
1.6875e-05
1.53018e-05
2.35183e-05
2.07596e-05
-3.29079e-06
-1.81199e-07
-2.51009e-06
-2.80551e-06
8.31694e-06
-1.1267e-05
5.18278e-06
-2.81519e-06
4.06175e-07
-7.66929e-07
3.18978e-06
3.84509e-06
-7.11007e-05
2.89574e-06
-7.94125e-06
-6.54338e-06
7.88445e-05
-1.31936e-05
2.19086e-06
3.6921e-05
8.27091e-06
6.38915e-06
1.03848e-05
1.38572e-05
2.21071e-05
5.00807e-06
3.15014e-05
6.5681e-06
-5.59779e-06
0.000184675
4.46232e-06
7.62161e-06
5.06335e-06
-6.38906e-06
6.21239e-07
-4.82642e-07
-3.14615e-05
1.22976e-05
3.07911e-06
-9.78083e-06
3.24338e-05
-7.2098e-05
6.70122e-06
-2.75368e-06
-9.38081e-06
6.16471e-05
1.58841e-05
-2.38227e-05
-3.16253e-06
0.000110267
8.61477e-06
6.17841e-06
1.51907e-05
3.9143e-06
-2.81872e-06
-1.78984e-06
-2.24998e-06
-1.04976e-06
-1.90918e-07
0.000114583
-5.32469e-07
2.00691e-06
7.50975e-07
2.06393e-06
1.41183e-06
5.08753e-06
-8.99686e-05
-4.78616e-06
1.02412e-06
8.7083e-05
-5.01757e-06
3.50258e-06
-1.56986e-06
3.07349e-06
-1.26713e-05
2.43694e-06
-2.46471e-06
9.5447e-06
-5.32635e-05
1.96666e-06
4.50119e-06
2.35337e-07
4.63694e-05
-9.97587e-06
9.20688e-07
-3.58222e-06
1.26396e-05
-1.04168e-05
7.61308e-06
-8.77876e-06
1.15895e-05
-1.99512e-05
-1.04034e-05
-5.28713e-07
3.086e-05
5.52913e-06
6.50195e-06
-6.15303e-05
-4.67733e-06
-2.21809e-05
7.63574e-05
2.04056e-05
-0.000105966
6.29383e-06
-1.36219e-05
-3.51772e-05
0.000128066
-7.14699e-05
1.4894e-05
-9.13381e-06
-2.70045e-05
7.89709e-05
1.37433e-05
6.33915e-06
6.17529e-06
-7.35521e-05
-4.13379e-06
-3.52998e-07
6.55244e-05
-7.57467e-06
-2.81289e-06
0.00013424
1.26978e-05
2.2229e-05
8.09425e-06
2.22508e-05
6.45513e-06
4.99194e-06
4.45569e-06
2.87281e-06
-4.18356e-06
-2.91379e-06
5.52172e-05
2.78959e-05
2.62176e-05
2.41959e-05
2.05663e-05
-6.56898e-06
-1.21496e-05
5.28959e-05
1.60119e-05
1.47204e-05
6.93774e-06
6.99911e-06
-6.65637e-06
-2.75568e-06
-2.42031e-06
-1.04837e-05
9.83524e-06
-1.67089e-05
1.07686e-05
-3.84028e-06
-7.95136e-08
-3.45978e-07
4.27809e-06
6.84713e-06
-9.27237e-05
1.84001e-06
-1.14573e-05
-1.01955e-05
0.000105689
-2.38085e-06
3.24988e-06
1.76791e-05
4.56589e-06
5.27337e-06
2.23007e-06
3.49068e-06
-3.81156e-06
5.98074e-06
2.40376e-05
5.09533e-06
6.02191e-06
0.000127362
1.7444e-06
2.30393e-06
6.11499e-07
5.81862e-06
1.40312e-05
5.7247e-06
-3.19624e-05
1.21467e-05
4.76416e-06
-4.67376e-06
2.48206e-05
-5.48483e-05
1.17397e-06
-1.24048e-05
-1.90484e-06
5.56972e-05
1.22867e-05
-7.29131e-06
-1.38227e-06
9.60613e-05
1.0249e-05
3.18045e-06
1.28184e-05
5.12052e-06
-2.89048e-06
-7.40078e-07
-1.60865e-06
-5.00624e-06
-2.71506e-06
0.00013261
-2.55335e-06
-3.18483e-06
-1.57173e-06
-1.92165e-06
-1.80659e-07
-2.20427e-06
-8.72836e-05
-5.69139e-06
7.37025e-06
8.66204e-05
-2.05408e-06
-2.29537e-06
2.9258e-06
1.42305e-06
-7.09012e-06
6.81629e-07
-1.11317e-06
6.15072e-06
-4.2405e-05
1.35339e-06
7.08598e-06
1.97342e-07
3.10532e-05
-1.18904e-05
3.10244e-06
-8.79218e-07
9.69613e-06
-1.15688e-05
8.2714e-06
-5.84729e-06
9.16233e-06
-3.85138e-05
-3.95655e-06
6.84693e-07
4.17714e-05
-4.11636e-06
7.91895e-06
-9.02048e-05
-1.51937e-05
-5.83075e-07
0.000102179
1.39533e-05
-0.000143803
1.44603e-05
-2.39037e-05
-1.80212e-05
0.000157315
-7.67207e-05
6.90354e-06
-4.04268e-06
-4.15875e-06
6.20126e-05
1.6006e-05
4.53401e-06
-3.18555e-06
-5.88845e-05
7.66016e-06
-2.55799e-06
5.24339e-05
-1.07909e-06
5.57799e-06
0.000153771
-1.56941e-06
9.09442e-06
-8.97681e-06
2.37976e-06
-3.60372e-06
-1.88767e-06
-1.14364e-05
-8.02983e-06
-5.99459e-06
6.05081e-07
6.13748e-05
5.33124e-06
-5.52293e-06
1.50868e-06
-3.16417e-06
-2.10844e-06
-8.23671e-06
6.38635e-05
-1.48208e-06
-1.11158e-06
-5.65226e-07
-7.47718e-07
-1.55039e-06
-5.4968e-07
-6.10362e-07
-7.87702e-06
1.04881e-06
-9.24427e-07
5.69083e-06
-4.78157e-06
6.23363e-07
-1.15622e-06
5.33057e-06
3.82424e-06
-0.000111265
2.73861e-06
-1.33225e-06
-5.12954e-06
0.000111164
-3.34824e-06
-5.18542e-06
3.45977e-05
-2.2961e-07
-5.6774e-07
-1.34598e-06
-6.63687e-07
-1.59973e-05
-1.27091e-05
5.00008e-05
-2.7424e-07
1.18221e-05
7.18792e-05
-1.59425e-06
-6.2356e-09
-9.78675e-09
4.07046e-06
1.41377e-05
3.10308e-06
-1.82459e-05
8.60477e-07
3.21538e-06
2.12697e-06
1.17688e-05
-6.54371e-05
2.34063e-06
-1.91718e-05
1.8522e-06
7.57307e-05
4.68526e-06
-1.48456e-05
-2.29001e-06
0.000110301
4.73427e-06
3.15535e-07
6.77117e-07
-7.99093e-07
-3.82938e-06
-1.5092e-06
-1.87866e-06
-1.5447e-05
-3.03702e-06
0.000171337
-9.48514e-06
-1.29175e-05
-1.11146e-05
-7.79333e-06
-2.1891e-06
-4.2979e-06
-9.34868e-05
-7.81678e-06
1.23359e-05
8.53427e-05
-2.13523e-06
-3.41882e-06
3.2611e-06
2.27544e-06
-6.34763e-06
6.17058e-07
-2.29531e-06
5.74537e-06
-2.51814e-05
5.22238e-07
-7.00275e-07
-7.68806e-08
2.23993e-05
-7.7905e-06
1.38154e-06
1.58241e-07
6.28821e-06
-5.8235e-06
4.05028e-06
-2.90053e-06
4.75008e-06
-4.29203e-05
-1.64936e-06
1.86881e-06
4.26848e-05
-1.15228e-05
8.20544e-06
-0.00011204
-2.20694e-05
1.19501e-05
0.000125477
-9.17956e-06
-0.000167827
2.88831e-05
-2.0897e-05
1.33447e-05
0.000155676
-4.70859e-05
-2.13198e-06
7.40245e-07
6.56618e-06
4.03242e-05
1.58729e-06
-1.70546e-06
-1.21423e-05
-5.0994e-05
1.39041e-05
-3.38157e-06
5.43192e-05
2.91629e-05
1.86265e-05
0.000218547
-1.35915e-05
-6.584e-06
-1.6752e-05
-9.15547e-06
-1.55137e-05
-1.47055e-05
-1.63838e-05
-1.98795e-05
4.32237e-06
6.10725e-07
0.000124946
-7.76278e-06
-8.87576e-06
-1.11711e-05
-1.15316e-05
5.17939e-07
-5.88905e-06
9.53941e-05
-3.20662e-06
-3.37319e-06
-1.47267e-06
-1.12021e-06
5.23807e-08
-6.97388e-06
-5.7429e-06
-5.08431e-06
-7.04391e-08
5.28151e-07
-9.57093e-07
6.10163e-06
-4.10188e-09
-5.47119e-10
-8.0225e-09
1.18017e-08
-5.73114e-06
1.88924e-06
-1.11029e-06
4.96269e-06
-1.22736e-05
-0.000108883
7.57963e-06
2.00921e-05
-6.41129e-06
9.98966e-05
-4.37654e-06
-2.00275e-05
0.000108917
-6.57031e-06
-1.45919e-06
-1.69951e-05
-6.26445e-06
-7.78908e-06
-2.90703e-05
8.30944e-05
5.05263e-07
2.20467e-06
5.22127e-05
1.12332e-06
1.88525e-06
2.27383e-06
-5.01213e-08
-7.61208e-07
-1.19264e-06
-7.18888e-06
2.4095e-07
2.78981e-07
5.39827e-07
6.63438e-06
1.22715e-08
-2.78711e-07
1.55396e-08
4.0775e-09
2.45297e-07
-7.8999e-05
4.81647e-06
-6.20555e-06
-1.5052e-06
7.3362e-05
8.53126e-06
-1.56307e-05
-9.94266e-07
0.000121519
-3.55467e-06
-3.5497e-06
-2.03043e-06
-1.97331e-06
-1.20535e-06
-6.91557e-07
-1.61529e-06
-1.16466e-05
-7.9633e-07
0.000156371
-1.01094e-05
-3.67807e-06
-2.21043e-06
-1.48228e-06
2.09906e-07
-2.2337e-08
-7.49584e-05
1.53277e-06
1.20654e-05
5.19183e-05
-3.8869e-06
1.6369e-07
-2.29918e-06
5.87282e-06
-5.12746e-06
-3.34269e-07
-3.68236e-07
4.75948e-06
-2.47826e-05
1.71566e-06
-6.50892e-06
6.47319e-07
2.81322e-05
-5.23459e-06
-2.67403e-06
3.35931e-06
4.55766e-06
-5.75585e-06
-6.43867e-09
-3.56957e-07
6.08605e-06
-4.25262e-05
-2.36827e-06
-8.40086e-08
4.49596e-05
-8.50257e-06
1.21073e-05
-0.00013622
-2.20434e-05
1.42155e-05
0.000140443
-4.31812e-06
-0.000131684
1.64297e-05
-5.63544e-06
1.41213e-05
0.000111086
-4.14382e-05
-3.21761e-07
-9.90499e-07
-2.54904e-06
4.39087e-05
1.3908e-06
-5.93028e-07
-8.41004e-06
-5.51345e-05
1.68681e-05
-4.00044e-06
5.12699e-05
3.91275e-05
2.79658e-05
0.000273474
-1.51055e-05
-1.32332e-05
-1.35467e-05
-8.68927e-06
-1.4895e-05
-2.10418e-05
-1.49351e-05
-2.05736e-05
1.43964e-05
6.30047e-06
0.000173471
-1.38582e-05
-6.9158e-06
-9.03044e-06
-2.90406e-07
-6.72969e-07
2.73347e-06
9.90075e-05
1.78366e-06
2.97374e-06
2.72442e-06
2.58505e-06
-9.90166e-07
-6.36072e-07
2.81854e-07
-1.81477e-07
1.29095e-06
-2.74175e-06
4.03146e-07
5.5617e-07
3.47731e-07
-1.42026e-06
3.97908e-06
-3.19271e-06
1.5958e-06
-1.30965e-06
-3.5072e-06
4.85165e-07
4.22611e-07
2.60192e-06
-1.44445e-05
-8.42437e-05
6.7765e-06
3.15693e-05
-7.68252e-06
6.80249e-05
3.4882e-05
-1.65519e-06
0.000184597
-2.40736e-05
-1.77574e-05
-2.25027e-05
-1.66066e-05
1.46892e-05
-5.22546e-06
0.000114813
-5.40505e-07
-1.61134e-06
8.20479e-05
1.10558e-06
-3.05759e-06
-2.31539e-06
-1.65724e-06
-1.34615e-06
-2.98987e-06
-8.69556e-06
3.47364e-07
4.63363e-07
-2.18233e-09
7.34651e-06
3.00632e-07
-1.42328e-06
-7.4362e-07
-4.79281e-07
4.1407e-07
1.93148e-06
-5.71982e-05
4.59243e-06
5.66458e-06
6.26086e-06
3.68501e-05
3.83022e-06
-1.14231e-05
7.02974e-07
0.000131511
-2.93978e-06
8.41688e-08
-2.60754e-06
8.5388e-07
3.11797e-07
2.54122e-06
8.29405e-07
-1.56003e-06
7.87488e-08
0.000143875
-9.74423e-07
-1.86863e-06
-2.12859e-06
1.16744e-06
3.36517e-07
7.97342e-07
-3.73247e-05
3.45276e-06
-1.02106e-06
3.17216e-05
-8.13653e-06
-1.68119e-06
-5.88502e-06
3.59288e-06
1.21088e-05
-1.19275e-06
-1.3041e-06
1.3007e-07
2.36678e-06
-5.50146e-06
5.02721e-07
-2.90068e-06
8.4508e-06
-2.84862e-05
1.81734e-06
-1.23316e-06
1.04695e-06
2.69338e-05
-5.01808e-06
-3.94128e-06
1.91078e-06
6.90193e-06
-6.05885e-06
-1.48644e-06
4.48939e-07
7.0906e-06
-4.986e-05
-7.99057e-06
3.00714e-06
5.48481e-05
-4.38741e-06
1.44856e-05
-0.000137227
-1.50946e-05
1.23207e-05
0.000129903
-4.7038e-06
-0.000101429
1.06539e-05
-7.40164e-06
8.82297e-06
9.40571e-05
-4.56692e-05
2.6328e-06
-6.15585e-06
-2.5207e-06
4.61167e-05
5.59626e-06
8.34269e-07
-3.16611e-06
-4.59145e-05
8.35387e-06
-3.9925e-06
4.3885e-05
3.80758e-05
2.53771e-05
0.000303449
-1.18828e-05
-7.24454e-06
-1.07218e-05
-4.03148e-06
-1.32547e-05
-2.06117e-05
-1.03063e-05
-1.53752e-05
1.92327e-05
4.39373e-06
0.000199625
-9.21409e-06
5.07473e-07
-5.30354e-06
2.30579e-06
7.7323e-07
1.7999e-06
0.000101247
2.24702e-06
1.84517e-06
2.83087e-06
1.8481e-06
1.50061e-06
1.70654e-06
2.44153e-06
-4.53509e-06
1.08454e-06
-4.53982e-07
-1.07354e-06
5.75131e-06
2.87106e-06
7.91839e-07
7.19935e-07
-2.51355e-07
-1.07032e-06
-3.06116e-06
-2.04897e-06
-1.17855e-07
2.58232e-07
1.83146e-06
-6.45829e-06
-5.36416e-05
5.4821e-06
1.72451e-05
-2.1893e-06
3.9562e-05
3.96383e-05
9.06166e-06
0.000221568
-2.23631e-05
-1.47142e-05
-1.70648e-05
-6.15166e-06
1.67624e-05
2.32882e-06
0.000139754
2.18678e-07
-4.13456e-08
9.09288e-05
4.38683e-08
3.59496e-06
3.35014e-06
-6.71329e-07
2.13704e-06
1.04933e-06
-5.20602e-06
1.53499e-06
1.99856e-07
-1.70059e-06
5.39044e-06
-3.95619e-06
1.16967e-06
-1.11603e-06
7.25462e-07
-1.76286e-06
4.93995e-06
-3.06402e-05
-8.13147e-06
2.76376e-06
5.38019e-06
3.52125e-05
-4.58473e-06
-1.6903e-05
2.86501e-06
0.000146666
-4.67615e-07
7.23568e-07
1.91669e-06
3.15807e-09
1.95899e-06
2.18559e-06
1.62365e-06
-5.40213e-06
8.99378e-07
0.000146998
-3.76921e-06
-5.56375e-06
-5.28052e-06
9.88105e-07
2.00791e-07
2.29217e-07
-2.97719e-05
-2.44497e-06
1.49279e-06
2.52806e-05
-1.12177e-05
4.0177e-07
3.02535e-07
1.59903e-06
8.91485e-06
-3.08955e-06
1.65504e-06
-1.8803e-06
9.13057e-07
2.40175e-06
-1.20227e-05
1.97314e-06
-1.54369e-06
1.44578e-05
-2.5077e-05
1.8584e-06
-1.73176e-06
1.50834e-06
2.43414e-05
-9.42179e-06
-1.75476e-06
5.74504e-07
1.0602e-05
-7.41969e-06
7.17882e-07
-1.23281e-06
7.93462e-06
-5.88498e-05
-7.63586e-06
4.6591e-06
6.18266e-05
-2.83665e-06
1.16251e-05
-0.000125477
-1.51625e-05
6.83468e-06
0.000125016
-2.20309e-06
-8.44215e-05
1.32672e-05
-7.33638e-06
7.2205e-06
7.34733e-05
-4.55475e-05
4.34012e-06
-6.56665e-06
-3.12265e-06
4.39448e-05
6.95191e-06
-6.71405e-07
5.84408e-07
-4.33912e-05
4.54896e-06
-3.44507e-06
4.23743e-05
3.03298e-05
1.877e-05
0.000324061
-9.65693e-06
-6.12939e-06
-8.47108e-06
-2.75881e-06
-8.59353e-06
-1.52656e-05
-7.09171e-06
-1.1744e-05
1.8281e-05
4.12913e-06
0.000212868
-6.51925e-06
1.86426e-06
-3.45939e-06
2.79123e-06
1.35975e-06
2.03612e-06
0.000104092
2.46443e-06
2.24052e-06
2.72387e-06
1.66388e-06
2.08244e-06
-1.17323e-07
9.82161e-07
-7.7157e-06
3.4454e-06
1.81969e-07
-1.88519e-06
7.33327e-06
3.91753e-06
-5.26521e-07
8.88281e-07
-2.56963e-06
-1.70966e-06
-1.40394e-06
-6.22483e-07
8.64106e-07
1.15737e-06
-2.02079e-06
-2.85184e-05
2.68491e-06
9.15549e-06
-2.78168e-06
2.14805e-05
3.03313e-05
1.00497e-05
0.000224155
-1.4879e-05
-8.19823e-07
-1.04003e-05
1.9011e-06
1.4257e-05
6.13834e-06
0.000153819
2.7832e-06
1.71469e-06
9.15972e-05
2.61752e-06
1.55851e-06
1.49686e-07
1.99306e-06
2.6388e-06
2.16929e-06
-6.38276e-06
1.17225e-06
1.88379e-06
-4.85294e-07
6.59522e-06
-4.96356e-06
2.17671e-06
-1.57285e-06
1.84691e-06
-6.58283e-07
3.17108e-06
-3.83279e-05
-6.1244e-06
1.79389e-06
4.90606e-06
3.81309e-05
-3.78628e-07
-1.96615e-05
2.58218e-06
0.00016026
2.27073e-06
-6.04145e-09
3.70467e-06
2.81863e-07
2.01081e-06
2.91126e-06
2.3618e-06
-5.4597e-06
5.91429e-07
0.000149288
-5.20581e-06
-4.35546e-06
-4.7124e-06
9.63784e-07
8.41089e-07
1.52405e-06
-2.3161e-05
-4.07543e-06
2.00777e-06
2.14837e-05
-5.84226e-06
-1.57305e-06
2.56968e-06
4.84562e-06
-1.64429e-05
2.29736e-06
-1.95446e-06
1.86821e-05
-2.33495e-05
2.14095e-06
-2.46678e-06
1.47451e-06
2.27922e-05
-1.21397e-05
-4.23561e-06
2.76544e-06
1.36099e-05
-8.96485e-06
1.23255e-06
-2.35645e-06
1.00888e-05
-6.41772e-05
-8.31904e-06
6.32964e-06
6.61666e-05
-2.00064e-06
1.24905e-05
-0.00012567
-1.6151e-05
5.872e-06
0.000125459
-1.01946e-06
-6.26639e-05
1.14974e-05
-6.65969e-06
5.15418e-06
5.36915e-05
-4.16659e-05
4.67719e-06
-5.43378e-06
-2.57003e-06
3.91985e-05
5.79399e-06
-2.00198e-06
2.15693e-06
-4.1768e-05
1.42284e-06
-1.84236e-06
4.20326e-05
2.139e-05
1.8788e-05
0.000337856
-8.61193e-06
-5.31658e-06
-8.01369e-06
-2.4786e-06
-5.52223e-06
-1.12866e-05
-4.44159e-06
-8.3023e-06
1.46082e-05
6.02834e-06
0.000216943
-5.13139e-06
1.81498e-06
-2.4555e-06
2.44991e-06
-6.00912e-07
3.0518e-06
0.000110869
1.68469e-06
1.50492e-06
1.83934e-06
1.37419e-06
-1.17638e-06
2.69794e-07
-1.16189e-07
-7.16369e-06
3.30215e-06
-2.8908e-06
6.15142e-06
-6.27861e-07
3.8664e-08
6.89292e-07
-1.00032e-07
1.52517e-07
-1.79832e-05
1.52667e-06
3.4978e-06
-3.64011e-06
1.64463e-05
1.6922e-05
1.08942e-05
0.000223943
-8.87103e-06
2.66137e-06
-5.9647e-06
3.35761e-06
9.1403e-06
8.6144e-06
0.000159015
-1.00104e-06
1.68881e-06
9.59629e-05
-5.40403e-07
4.86356e-08
2.7239e-07
2.32311e-06
2.42937e-06
2.60551e-06
-8.73052e-06
7.84569e-07
-1.9303e-06
9.39986e-07
7.93522e-06
-3.67833e-05
-3.35836e-06
-2.70818e-07
3.86732e-06
3.50043e-05
1.5409e-06
-2.22322e-05
2.91638e-06
0.000171951
3.7477e-06
7.20117e-07
5.37506e-06
9.1343e-07
2.19286e-06
3.02053e-06
2.54985e-06
-4.79709e-06
1.01214e-06
0.000146
-4.70288e-06
-3.40638e-06
-4.20907e-06
2.05617e-06
1.43764e-06
2.27959e-06
-2.10642e-05
-3.35891e-06
1.6111e-06
1.97037e-05
-3.98176e-06
-1.16939e-06
2.11227e-06
3.03888e-06
-2.11613e-05
2.3434e-06
-1.92729e-06
2.36616e-05
-2.33163e-05
2.75144e-06
-4.78328e-06
1.32142e-06
2.50388e-05
-1.42855e-05
-3.90479e-06
4.19097e-06
1.39993e-05
-1.07038e-05
1.56021e-06
-1.7409e-06
1.08845e-05
-6.78991e-05
-9.71737e-06
8.1927e-06
6.94238e-05
-1.39687e-06
1.34945e-05
-0.000124238
-1.5897e-05
5.43075e-06
0.000122607
-1.74227e-06
-4.68117e-05
9.39575e-06
-5.37721e-06
3.23564e-06
4.12997e-05
-3.67859e-05
3.33562e-06
-2.36121e-06
-1.03686e-06
3.31596e-05
3.68873e-06
-3.27053e-06
2.34288e-06
-4.32902e-05
-7.05613e-08
-1.4422e-06
4.57306e-05
1.25968e-05
1.60273e-05
0.000350094
-7.79991e-06
-4.59738e-06
-7.13192e-06
-1.96525e-06
-3.34021e-06
-8.13871e-06
-2.48776e-06
-5.4008e-06
1.13675e-05
9.34345e-06
0.000211723
-3.70987e-06
4.801e-07
-5.7262e-07
9.08846e-07
5.33539e-07
3.34399e-06
0.000113821
8.074e-07
6.88197e-07
1.2199e-06
5.33202e-07
9.43445e-08
9.0539e-07
2.89479e-07
-5.97685e-06
2.69649e-06
-2.42239e-06
6.23629e-06
6.0975e-07
5.44289e-07
-4.6303e-07
-6.91009e-07
1.08805e-06
-1.5904e-05
2.5517e-06
7.42324e-08
-4.42408e-06
1.66141e-05
5.71393e-06
8.29374e-06
0.000220501
-3.31523e-06
3.75574e-06
5.09196e-07
4.51246e-06
6.1717e-06
9.97219e-06
0.000157928
2.71997e-07
1.66942e-06
9.45829e-05
4.13042e-07
5.76542e-07
6.08247e-07
2.20876e-06
2.9769e-06
2.17078e-06
-6.9706e-06
6.43172e-07
-1.20978e-07
4.20417e-07
6.29999e-06
-3.33661e-05
-1.80399e-06
-1.80952e-06
2.89781e-06
3.14578e-05
2.62399e-06
-2.24099e-05
2.64833e-06
0.000181212
4.77278e-06
7.84026e-07
5.66731e-06
8.46231e-07
2.05382e-06
2.45825e-06
2.21143e-06
-3.79956e-06
1.08248e-06
0.000140877
-3.8417e-06
-2.52945e-06
-3.2746e-06
2.03259e-06
1.02355e-06
1.99216e-06
-2.05797e-05
-2.28313e-06
3.40853e-07
2.03919e-05
-2.8877e-06
-9.33142e-07
9.68847e-07
2.85205e-06
-2.64859e-05
2.17986e-06
-2.14881e-06
2.91032e-05
-2.76312e-05
3.39341e-06
-5.87598e-06
1.48536e-06
2.97108e-05
-1.26939e-05
-2.69811e-06
4.71452e-06
1.06775e-05
-1.10869e-05
2.02237e-06
-2.26553e-06
1.13301e-05
-7.06807e-05
-1.06774e-05
9.61157e-06
7.17465e-05
-1.3791e-06
1.41502e-05
-0.000120905
-1.5794e-05
4.92429e-06
0.000119004
-1.0835e-06
-3.76486e-05
9.32892e-06
-7.03934e-06
1.27474e-06
3.51678e-05
-2.82079e-05
1.43352e-06
-2.56265e-06
1.47066e-07
2.35616e-05
5.62831e-06
-5.26101e-06
2.0578e-06
-4.97504e-05
-1.5611e-06
-1.11738e-06
5.56321e-05
5.2992e-06
1.43196e-05
0.000360243
-7.10345e-06
-4.2072e-06
-6.28267e-06
-1.46272e-06
-1.50909e-06
-5.67328e-06
-3.71971e-07
-3.15678e-06
6.6243e-06
1.06688e-05
0.000199402
-1.62455e-06
-4.60711e-07
1.79308e-06
6.18622e-07
5.82018e-07
1.73286e-06
0.0001116
7.72924e-07
8.96858e-07
2.12233e-06
1.94161e-06
-4.72017e-08
6.86585e-07
1.58197e-07
-6.86108e-06
2.07225e-06
-1.81707e-06
7.18792e-06
5.16577e-07
7.37956e-07
-1.02453e-06
-2.30006e-07
2.13183e-06
-1.82107e-05
3.31986e-06
-3.40125e-06
-3.68695e-06
1.98472e-05
7.15912e-07
5.06518e-06
0.000216508
1.22875e-06
3.89654e-06
2.64479e-06
4.76083e-06
4.79664e-06
8.79271e-06
0.000155723
4.55646e-07
2.31748e-06
9.06239e-05
4.0811e-07
5.76386e-07
5.58989e-07
1.4927e-06
3.22307e-06
1.45606e-06
-6.22673e-06
5.09256e-07
2.52284e-07
-1.30073e-07
6.05091e-06
-2.99006e-05
-1.86026e-06
-1.87346e-06
2.35654e-06
2.8968e-05
2.3098e-06
-2.21228e-05
2.0651e-06
0.000189671
4.37298e-06
4.70585e-07
5.37956e-06
6.79035e-07
1.82938e-06
1.86694e-06
2.06501e-06
-2.95394e-06
5.10788e-07
0.000132506
-2.62862e-06
-1.621e-06
-2.28635e-06
1.8793e-06
3.65369e-07
1.77552e-06
-2.14697e-05
-1.16845e-06
1.40062e-06
2.06011e-05
-2.84151e-06
-2.29578e-07
2.6699e-07
2.8041e-06
-3.16105e-05
1.44222e-06
-1.59683e-06
3.38305e-05
-3.15569e-05
2.07141e-06
-3.80697e-06
1.08464e-06
3.27186e-05
-9.23498e-06
-2.40296e-06
2.70018e-06
8.93776e-06
-1.16455e-05
1.28149e-06
-2.11743e-06
1.24814e-05
-7.25228e-05
-1.13286e-05
1.08882e-05
7.29632e-05
-8.8344e-07
1.40549e-05
-0.000116967
-1.46221e-05
3.7893e-06
0.000114628
1.89194e-06
-3.37642e-05
7.39332e-06
-4.40108e-06
-3.4643e-06
3.23444e-05
-2.07046e-05
2.7683e-06
-3.26798e-06
-2.10378e-06
1.94654e-05
3.84267e-06
-8.19678e-06
1.76227e-06
-6.3032e-05
-3.02178e-06
1.09547e-06
7.13928e-05
1.91806e-06
1.58934e-05
0.000359934
-6.33239e-06
-2.91073e-06
-5.27183e-06
7.27882e-08
4.81392e-07
-3.85802e-06
1.47121e-06
-1.15484e-06
4.64166e-06
8.66652e-06
0.000183973
1.37273e-06
-6.04729e-07
3.36501e-06
-9.41832e-08
4.28286e-07
-3.20794e-06
0.000107443
2.2942e-06
2.56395e-06
3.3823e-06
2.9725e-06
-1.18552e-07
4.36291e-07
4.67663e-08
-7.43758e-06
1.91455e-06
-1.45037e-06
7.40168e-06
-7.0122e-08
5.42436e-07
-9.03065e-07
4.3075e-07
2.16645e-06
-2.10813e-05
3.14137e-06
-3.52858e-06
-2.90138e-06
2.22034e-05
2.00522e-07
4.3395e-06
0.000216912
1.37293e-06
3.23781e-06
2.258e-06
4.08077e-06
4.81427e-06
6.51845e-06
0.000153258
4.5572e-07
1.53032e-06
8.63709e-05
4.16236e-07
5.66233e-07
4.734e-07
3.83074e-07
1.70938e-06
3.25054e-07
-6.14322e-06
5.11933e-07
4.9581e-07
-6.33455e-07
6.22465e-06
-2.9214e-05
-2.52367e-06
-1.56877e-06
2.18317e-06
2.99312e-05
1.19206e-06
-2.27652e-05
1.63794e-06
0.000199403
3.98933e-06
6.77525e-07
5.27337e-06
1.0805e-06
1.67683e-06
1.48208e-06
1.55589e-06
-2.20332e-06
1.31193e-07
0.000119992
-2.25792e-06
-1.13273e-06
-2.21503e-06
1.7105e-06
3.91191e-07
1.84376e-06
-2.08384e-05
6.09527e-08
1.46197e-06
1.86424e-05
-2.77937e-06
2.72379e-07
-1.72695e-07
2.67968e-06
-3.5836e-05
8.69641e-07
-8.63894e-07
3.74682e-05
-3.38056e-05
3.30301e-07
-1.49204e-06
3.15373e-07
3.47831e-05
-9.28938e-06
-1.33149e-06
6.38495e-07
9.98238e-06
-1.37751e-05
-2.43228e-07
-1.15118e-06
1.51695e-05
-7.31874e-05
-1.19831e-05
1.18543e-05
7.33161e-05
4.43313e-07
1.41855e-05
-0.000111955
-1.31966e-05
2.07324e-06
0.000108449
3.19818e-06
-3.05572e-05
6.2601e-06
-3.0596e-06
-3.98449e-06
2.8143e-05
-1.92221e-05
3.72935e-06
-3.5783e-06
-3.35139e-06
1.90081e-05
3.41431e-06
-1.08738e-05
2.13416e-06
-7.9889e-05
-4.35247e-06
5.05847e-06
8.79226e-05
1.00586e-07
1.87533e-05
0.000350153
-5.50734e-06
-2.32604e-06
-4.25269e-06
-9.32659e-07
2.18799e-06
-2.22351e-06
3.35473e-06
6.25892e-07
4.50887e-06
1.44641e-06
0.000177074
1.15053e-06
-8.64299e-07
8.23211e-07
-6.44105e-08
2.77855e-07
-6.16749e-06
0.000104226
3.13984e-06
3.19662e-06
3.93089e-06
3.35224e-06
-1.31462e-07
2.10034e-07
-8.17992e-08
-7.3331e-06
1.77168e-06
-1.30633e-06
7.1456e-06
-8.55658e-07
1.46159e-07
-6.23669e-07
1.33317e-06
1.83086e-06
-2.34774e-05
3.63093e-07
-2.43274e-06
-1.4436e-06
2.51598e-05
2.22873e-06
5.09503e-06
0.000220814
6.24115e-07
2.36851e-06
1.28376e-06
3.25141e-06
6.56499e-06
-1.46068e-06
0.000151829
5.36652e-07
3.36374e-08
8.51567e-05
4.56243e-07
6.55414e-07
5.26556e-07
-3.17396e-07
2.53311e-09
-2.82002e-07
-6.46383e-06
5.11121e-07
5.42343e-07
-6.89499e-07
6.63652e-06
-3.16231e-05
-1.84026e-06
-2.44499e-06
1.56244e-06
3.38723e-05
4.73654e-07
-1.99837e-05
1.35106e-06
0.000208782
4.02753e-06
1.04665e-06
5.43107e-06
1.36137e-06
8.98797e-07
1.10093e-06
4.81851e-07
-1.72348e-06
-2.21787e-07
0.000103509
-1.85846e-06
-1.24783e-06
-1.99578e-06
1.05764e-06
9.10361e-09
1.01868e-06
-1.76583e-05
2.03719e-07
-6.94667e-08
1.58342e-05
-2.5313e-06
2.29189e-07
-6.4696e-08
2.36681e-06
-3.88692e-05
9.86927e-07
-7.88807e-07
4.00221e-05
-3.62131e-05
-2.03163e-07
-8.17237e-07
1.47091e-07
3.68646e-05
-1.057e-05
9.07191e-07
-5.17702e-07
1.01806e-05
-1.65223e-05
-7.08588e-07
-3.77141e-07
1.7608e-05
-7.33593e-05
-1.23242e-05
1.24135e-05
7.327e-05
1.56374e-06
1.44608e-05
-0.000103845
-9.81493e-06
-3.25674e-07
9.79615e-05
-5.25957e-07
-2.58319e-05
5.79384e-06
-4.71883e-06
1.27494e-06
2.4008e-05
-1.85501e-05
4.42416e-06
-4.26515e-06
-3.65926e-06
1.76859e-05
4.36436e-06
-1.27521e-05
3.66347e-06
-9.50449e-05
-5.20153e-06
8.71125e-06
0.000100624
-1.67637e-06
1.96494e-05
0.000333842
-3.73152e-06
-3.01335e-06
-2.57299e-06
-2.48579e-06
3.99627e-06
-8.52454e-07
4.9606e-06
2.03757e-06
4.56873e-06
-3.27383e-06
0.000176374
-1.36968e-06
-3.6723e-07
-1.31222e-06
7.77726e-07
1.47984e-07
-6.27713e-06
0.000100619
3.44527e-06
3.39438e-06
4.20664e-06
3.5679e-06
-1.09591e-07
-2.25269e-08
-1.77783e-07
-6.88981e-06
1.8148e-06
-1.39781e-06
6.6208e-06
-1.86975e-06
-1.9655e-07
-4.42193e-07
2.50849e-06
1.39497e-06
-2.69915e-05
-2.84393e-06
-9.2355e-07
6.10991e-07
2.87531e-05
6.76224e-06
3.43147e-06
0.000228219
-9.61758e-07
1.28617e-06
-1.47509e-07
1.87386e-06
9.66216e-06
-9.14895e-06
0.000154804
8.40397e-07
-9.74415e-07
8.68188e-05
6.98443e-07
1.01103e-06
7.88396e-07
-2.44753e-07
-3.98473e-07
2.36164e-09
-6.94755e-06
5.28585e-07
7.06584e-07
-6.70283e-07
7.22307e-06
-3.65881e-05
-5.68574e-07
-3.36305e-06
1.00893e-06
3.92283e-05
2.82449e-07
-1.38051e-05
6.31038e-07
0.000214748
3.87101e-06
1.17309e-06
4.99152e-06
1.63353e-06
-4.50125e-07
1.62848e-07
-7.42093e-07
-1.39644e-06
-1.02648e-06
8.89198e-05
-1.85574e-06
-6.88025e-07
-2.23246e-06
1.7229e-07
-1.05319e-06
-2.84606e-07
-1.55713e-05
-3.05515e-07
-1.42791e-06
1.49339e-05
-2.11004e-06
-9.0749e-08
2.92439e-07
1.90835e-06
-4.08563e-05
1.03504e-06
-8.40244e-07
4.12925e-05
-3.77217e-05
2.28982e-07
-1.57002e-06
5.01091e-07
3.75352e-05
-8.35584e-06
2.68535e-06
-2.29374e-07
5.89987e-06
-1.83512e-05
-5.04116e-07
-1.60439e-08
1.88714e-05
-7.31997e-05
-1.21122e-05
1.21161e-05
7.31957e-05
3.27137e-06
1.37518e-05
-9.1256e-05
-6.81269e-06
-2.70872e-06
8.37542e-05
-3.27473e-06
-2.26132e-05
5.35689e-06
-5.42628e-06
5.0537e-06
2.09036e-05
-1.68186e-05
4.7505e-06
-4.76091e-06
-4.11047e-06
1.60364e-05
4.90308e-06
-1.28768e-05
4.49965e-06
-0.00010475
-5.54314e-06
1.08306e-05
0.00010784
-1.02856e-06
1.73354e-05
0.000316323
-1.43359e-06
-4.44536e-06
-9.05988e-07
-4.33199e-06
4.90778e-06
-3.41652e-07
5.46899e-06
2.29358e-06
4.43377e-06
-5.3193e-06
0.000182174
-3.87676e-06
1.93788e-07
-3.94443e-06
1.68392e-06
-1.79426e-08
-5.70022e-06
9.5346e-05
3.88496e-06
3.74379e-06
4.6033e-06
3.82887e-06
-8.67334e-08
-2.86251e-07
-2.62883e-07
-6.27345e-06
2.11067e-06
-1.93528e-06
6.08011e-06
-3.22711e-06
-7.38053e-07
-1.55952e-08
3.98075e-06
7.17913e-07
-3.06836e-05
-5.61786e-06
5.45459e-07
2.4252e-06
3.26129e-05
1.4138e-05
-3.92179e-07
0.000237414
-3.20751e-06
-5.05243e-07
-1.98582e-06
9.29729e-08
1.50785e-05
-1.29868e-05
0.000161531
1.71717e-06
-6.57589e-07
8.95636e-05
1.36291e-06
1.90335e-06
1.42378e-06
3.44889e-07
4.96269e-08
4.8928e-07
-7.48308e-06
8.75088e-07
1.2106e-06
-8.00595e-07
7.91516e-06
-4.18744e-05
-6.46649e-08
-3.01014e-06
8.58255e-07
4.43793e-05
-2.88361e-07
-7.88668e-06
-8.58033e-07
0.000218521
2.99341e-06
1.28488e-06
3.94179e-06
1.5331e-06
-1.65899e-06
-1.75229e-06
-1.76255e-06
-3.10839e-07
-1.64128e-06
7.99959e-05
-1.74618e-06
1.07382e-06
-1.77289e-06
-2.40227e-06
-1.98362e-06