/*--------------------------------*- C++ -*----------------------------------*\
| =========                 |                                                 |
| \\      /  F ield         | OpenFOAM: The Open Source CFD Toolbox           |
|  \\    /   O peration     | Version:  5.x                                   |
|   \\  /    A nd           | Web:      www.OpenFOAM.org                      |
|    \\/     M anipulation  |                                                 |
\*---------------------------------------------------------------------------*/
FoamFile
{
    version     2.0;
    format      ascii;
    class       volScalarField;
    location    "0.3";
    object      voidfraction;
}
// * * * * * * * * * * * * * * * * * * * * * * * * * * * * * * * * * * * * * //

dimensions      [0 0 0 0 0 0 0];

internalField   nonuniform List<scalar> 
10571
(
0.918547
0.880526
0.847713
0.905916
0.839532
0.83857
0.915102
0.890024
0.801364
0.802289
0.940262
0.916509
0.905786
0.894643
0.803829
0.798958
0.860392
0.884989
0.830097
0.823187
0.795735
0.891364
0.867373
0.854606
1
0.986662
0.995182
0.997194
0.989953
0.99372
0.996843
0.99282
0.991116
0.987021
0.981455
0.996788
0.997777
0.996888
0.98915
0.960724
0.986785
0.995514
0.994759
0.991338
0.994096
0.979777
0.992291
0.994232
0.999453
0.98049
0.994117
0.996169
0.995322
0.998974
0.99667
0.991119
0.991587
0.983939
0.992014
0.997985
0.998173
0.997033
0.993721
0.95552
0.993216
0.994767
0.995013
0.996413
0.988682
0.971156
0.997099
0.99396
0.99989
0.981873
0.99906
0.994115
0.992353
0.999361
0.994947
0.994503
0.993039
0.99127
0.993736
0.997107
0.995552
0.997899
0.992971
0.94752
0.99595
0.992691
0.99619
0.993247
0.979914
0.981314
0.998764
1
0.996152
0.979224
0.994405
0.995539
0.993317
0.999021
0.996581
0.995861
0.994515
0.988518
0.99912
0.998547
0.996884
0.996772
0.992596
0.953176
0.996152
0.996375
0.994026
0.992826
0.984446
0.979326
0.997343
0.995094
0.996812
0.98863
0.993285
0.998002
0.994292
0.996351
0.997192
0.998111
0.995096
0.986105
0.675208
1
0.993777
0.993888
0.99815
0.992535
0.943533
0.476806
0.995369
0.995257
0.994892
0.995605
0.989185
0.986254
0.995591
0.990183
1
0.990702
0.997064
1
0.995573
0.999932
0.998664
0.997483
0.995627
0.993301
1
1
0.999019
0.997266
0.998256
0.990895
0.939709
0.999629
0.994827
0.996641
0.99684
0.995715
0.987317
1
0.986177
0.997373
0.991817
1
0.982188
0.997502
0.99587
0.996425
0.997567
0.998737
0.998935
0.995956
0.990317
1
1
0.996481
0.997335
0.997862
0.992899
0.92161
1
0.994255
0.997446
0.996307
1
0.98509
1
0.983118
0.999124
0.998324
1
0.987397
0.99865
1
0.992013
0.999662
0.993023
0.995164
0.993325
0.991914
1
1
1
0.998681
0.998341
0.992869
0.93997
1
0.995489
0.996641
0.99615
0.992729
0.987815
0.984473
0.998792
0.99916
1
0.980565
0.996727
0.996414
1
0.998412
0.992052
0.996057
0.993554
0.993862
0.996921
0.998681
0.999031
0.997645
0.99298
0.925791
0.994888
0.994394
0.993418
0.994824
0.987433
0.987532
0.997554
0.994886
1
0.977599
0.99774
0.998817
0.994562
0.998243
0.997153
0.996763
0.994856
0.994822
0.99879
0.996754
0.99911
0.99906
0.991529
0.910609
0.996512
0.993648
0.995918
0.996993
0.989188
0.986526
0.999638
0.990969
1
0.970488
1
0.999797
0.995014
0.999088
0.99716
0.997508
0.995499
0.995933
1
0.997329
0.99781
0.999551
0.99105
0.900376
0.999128
0.996438
0.995423
0.999066
0.99154
0.987495
0.998218
0.99678
1
0.968584
0.998045
0.997568
0.998258
1
0.99731
0.997985
0.994242
0.994341
1
0.99902
0.992471
0.99947
0.993009
0.900241
0.99555
0.996636
0.997603
0.997363
0.98894
0.972396
0.997403
0.989358
1
0.986896
0.993021
0.998446
0.998288
1
0.998806
0.998887
0.995913
0.994146
1
0.99902
0.998315
0.999632
0.991245
0.883845
0.996512
0.998151
0.997546
0.996428
0.991738
0.974216
0.998792
0.989358
0.993623
0.98348
0.997269
1
0.995614
0.998818
0.997329
0.999183
0.994964
0.991471
1
0.998411
0.997215
0.999102
0.990439
0.890405
0.994047
0.997137
0.998621
0.998097
0.99755
0.967053
0.999426
0.986138
1
0.975136
0.994808
0.998041
0.991468
0.999054
0.992347
0.999701
0.996155
0.988719
1
1
0.996354
0.999814
0.988286
0.890224
0.994408
0.997153
0.999111
0.99773
0.987678
0.962678
0.998249
0.951762
1
0.986001
0.998416
0.998041
0.995463
1
0.995452
0.999332
0.992642
0.98988
1
0.99902
0.996104
0.999624
0.985782
0.864181
0.999068
0.997816
0.998949
0.998064
0.988166
0.966782
0.999124
0.975492
1
0.977602
0.996259
0.999257
0.995674
0.991761
0.997612
0.999486
0.994447
0.989609
1
0.999358
0.996469
0.999752
0.981064
0.869865
0.996904
0.997485
0.998735
0.997797
0.98754
0.966091
1
0.95926
1
0.984601
0.999022
0.99902
0.998468
0.994462
0.998245
0.998534
0.995816
0.991744
1
1
0.988092
0.999663
0.978316
0.879602
0.996663
0.993039
0.998807
1
0.98544
0.969962
0.999275
0.96115
1
0.981689
0.998921
0.999932
0.993662
0.996387
0.998256
0.998971
0.995226
0.988372
1
0.999358
0.998011
0.999249
0.972451
0.883139
0.994228
0.993895
0.998387
0.998898
0.9825
0.982502
0.999396
0.96367
1
0.992609
1
0.997264
0.99213
0.998683
0.996185
0.997525
0.995319
0.99182
0.993624
0.999155
0.999977
0.999253
0.969066
0.873769
0.994529
0.998231
0.996556
0.997697
0.98278
0.987456
0.995652
0.96458
0.998241
0.996416
0.997101
0.99848
0.994803
0.997062
0.996864
0.992478
0.996454
0.993681
0.996921
1
0.998715
0.97465
0.974785
0.844629
0.994379
0.993935
0.986598
0.992356
0.95702
0.981455
0.996256
0.96388
0.996812
0.99356
0.999022
0.997804
0.993722
0.998042
0.997215
0.995471
0.996087
0.995503
0.996812
0.997634
0.997665
0.996488
0.97226
0.82882
0.993868
0.993887
0.996362
0.990353
0.98635
0.979404
0.999275
0.97116
1
0.992945
0.997337
0.99902
0.996786
0.999021
0.994388
0.9984
0.995117
0.996046
1
0.998682
0.997477
0.999404
0.972122
0.793242
0.999699
0.994638
0.993891
0.992556
0.97858
0.988231
0.993901
0.96346
1
0.993449
0.999022
0.998683
0.998288
0.998312
0.991233
0.994101
0.994419
0.995232
1
0.999155
0.994904
0.990641
0.970546
0.809293
0.996573
0.992728
0.988248
0.993858
0.96227
0.987998
0.998068
0.97977
1
0.997089
0.997034
1
0.995914
0.999021
0.992511
0.997997
0.994189
0.99593
0.99989
0.99733
0.993738
0.997375
0.973752
0.800375
0.995641
0.986857
0.981351
0.989251
0.86987
0.968561
0.996981
0.97711
0.996811
0.998376
0.998989
0.996994
0.996215
0.998683
0.995498
0.995828
0.993231
0.994301
0.998021
0.999662
0.993415
0.996147
0.977675
0.784143
0.998888
0.989502
0.983684
0.985412
0.636
0.982928
0.993841
0.96703
1
0.996753
0.998045
0.998683
0.984651
0.994226
0.99063
0.997394
0.996725
0.993992
0.998131
0.99706
0.992603
0.998645
0.968839
0.715707
0.996542
0.983195
0.975942
0.991755
0.60415
0.984012
0.983726
0.94484
1
0.997704
0.999966
1
0.996215
0.999527
0.990264
0.996677
0.996664
0.994224
1
0.998006
0.993954
0.994173
0.945262
0.667947
0.998256
0.983147
0.959718
0.991421
0.54304
0.984283
0.958178
0.780899
0.99956
1
0.998989
0.998446
0.986603
0.999223
0.99005
0.992551
0.998732
0.993796
1
0.998817
0.989646
0.985503
0.893232
0.551781
0.998076
0.98034
0.95456
0.969589
0.53387
0.991367
0.96872
0.621229
1
0.995184
0.99646
0.99902
0.993239
0.999021
0.99472
0.996485
0.997629
0.98263
1
0.999662
0.990546
0.97791
0.843293
0.522266
0.999248
0.9842
0.958776
0.783988
0.520282
0.989238
0.974034
0.544159
0.996811
1
0.995449
0.999358
0.998257
1
0.998306
0.995621
0.991184
0.960374
1
1
0.992796
0.988233
0.826731
0.527477
0.997956
0.984972
0.954629
0.62025
0.479262
0.989548
0.973128
0.513219
0.993732
0.996753
0.998685
0.998818
0.994171
0.999088
0.99947
0.988997
0.996147
0.995076
0.996812
1
0.995642
0.993906
0.82558
0.525361
0.998226
0.987895
0.959981
0.619182
0.480592
0.988928
0.985778
0.557249
1
0.998376
0.999157
0.997669
0.998828
0.999021
0.999905
0.98897
0.997432
0.994572
1
1
0.996577
0.99401
0.828568
0.546611
1
0.996055
0.957394
0.57632
0.557733
0.997522
0.992119
0.519239
1
0.993504
0.997404
0.998243
0.998257
0.9974
0.999664
0.99858
0.998631
0.997015
1
1
0.999888
0.996705
0.842859
0.583973
0.999278
0.999152
0.946167
0.58353
0.535123
0.997599
0.998037
0.608935
0.99934
0.996696
0.999933
0.99902
1
0.999021
0.99826
0.999889
0.998457
0.996433
0.996812
0.999358
1
0.999439
0.852595
0.661114
0.999128
0.999063
0.946632
0.609501
0.560813
0.998877
0.998822
0.644889
1
0.996752
0.996663
0.997433
0.998257
0.999358
0.997814
0.999777
0.999632
0.996821
1
1
0.999777
0.999775
0.867753
0.769513
1
0.999297
0.953012
0.59962
0.517778
0.999264
0.998369
0.695429
0.993622
0.998488
0.999022
0.99902
0.997957
0.991828
0.998321
1
0.999624
0.994998
1
1
0.999888
0.999775
0.884939
0.856622
1
0.999649
0.968924
0.614909
0.537381
0.998877
0.999124
0.793569
0.993622
0.998376
0.997472
1
0.998198
0.995002
0.994945
0.999777
0.999532
0.999767
1
1
0.999704
0.999667
0.893017
0.959672
1
0.999766
0.98543
0.653765
0.509504
0.998877
1
0.905009
1
0.996752
0.995921
0.998379
1
0.991863
0.99615
0.999332
0.99939
0.998527
1
0.998682
0.998685
0.999772
0.903681
0.993622
0.999158
0.999532
0.995699
0.650928
0.506074
0.996671
0.999849
0.932232
0.996812
0.99552
0.997135
0.998108
0.998799
0.994867
0.995391
0.999183
0.999766
0.998876
1
0.998107
0.997735
0.999593
0.918544
0.995284
1
0.999532
0.99774
0.605128
0.529175
0.998103
0.999608
0.97291
1
0.996752
0.994505
0.996149
0.995855
0.996049
0.99636
0.998814
0.999766
1
0.99934
0.99804
0.997131
0.999322
0.937974
0.99335
0.999639
0.999532
0.998941
0.579057
0.636066
0.996554
0.992452
0.94743
1
1
0.998011
0.99642
0.998889
0.998345
0.996276
0.99848
1
0.997752
0.996811
0.999628
0.996508
0.999361
0.953105
0.991083
0.999459
0.998773
0.998423
0.586635
0.697456
0.997058
0.994716
0.95114
0.994943
1
0.995652
0.997669
0.998348
0.99453
0.996673
0.998818
0.99941
0.997713
1
0.998243
0.998665
0.998451
0.964802
0.982861
0.997745
0.999075
0.997239
0.588371
0.739807
0.99485
0.988373
0.964086
0.996812
0.998936
0.996764
0.998345
0.997387
0.993854
0.997413
0.99736
0.999346
0.997364
0.993402
0.998716
0.998896
0.996887
0.973825
0.983069
0.997715
0.999616
0.995424
0.62025
0.725566
0.996864
0.992178
0.929432
0.996812
0.996809
0.997506
0.997467
0.999129
0.997029
0.996505
0.997805
0.997747
0.991315
0.995712
0.995471
0.997923
0.994037
0.987865
0.976174
0.997385
0.999221
0.992109
0.662677
0.722906
0.997793
0.988073
0.894089
0.991534
0.996639
0.995685
0.992873
0.997957
0.996083
0.997467
0.998879
0.997759
0.990229
0.990432
0.997161
0.998785
0.993801
0.98964
0.966166
0.995792
0.999249
0.993693
0.711748
0.749369
0.993456
0.983362
0.831649
0.993622
0.996527
0.991469
0.994628
0.996364
0.992133
0.998394
0.997882
0.997759
0.983405
0.996702
0.993207
0.998438
0.991551
0.991403
0.957942
0.995641
0.999386
0.992173
0.816033
0.759704
0.994463
0.973335
0.822549
1
0.993111
0.984523
0.994729
0.995523
0.993347
0.997463
0.998446
0.997468
0.961731
0.993732
0.997093
0.999135
0.991555
0.992575
0.941705
0.998256
0.998748
0.992618
0.874518
0.744259
0.988306
0.959289
0.812588
0.991862
0.964607
0.968077
0.988886
0.99387
0.97731
0.999134
0.998553
0.997536
0.889227
0.996811
0.991416
0.998996
0.994173
0.990775
0.946617
0.996242
0.997864
0.995727
0.927595
0.808269
0.973054
0.953188
0.800686
0.967897
0.900652
0.958473
0.997534
0.983956
0.974338
0.998245
0.999148
0.998522
0.784618
0.992302
0.993545
0.999354
0.996399
0.984529
0.960734
0.986381
0.998122
0.995129
0.939079
0.905359
0.918937
0.937167
0.876309
0.586393
0.684015
0.910812
0.99902
0.783664
0.802641
0.999905
0.999444
0.999475
0.840838
0.901476
0.939201
0.999188
0.997096
0.983905
0.951242
0.596372
0.998918
0.992933
0.950829
0.96087
0.757334
0.946955
0.96003
0.99967
0.994456
0.995989
0.979632
0.967707
0.996049
1
0.999444
0.998263
0.972127
0.940518
0.999425
0.99975
0.996051
0.982636
0.983768
0.987223
0.995454
0.992238
0.954601
0.9734
0.923964
0.962711
0.983058
1
0.99916
0.987158
1
1
0.994429
1
0.999866
0.997904
0.981202
1
0.99902
0.998827
0.997077
0.985704
0.9815
1
0.997501
0.99339
0.979437
0.9748
0.985404
0.982971
0.991109
1
1
0.956417
1
1
0.991424
0.999985
0.999912
0.997957
0.988062
1
0.99804
0.998577
0.998773
0.989891
0.987607
1
0.998692
0.990831
0.97917
0.96801
0.993651
0.98584
0.97522
1
1
0.988944
0.99973
0.999129
0.999595
0.999832
1
0.998708
0.989419
1
0.994762
0.999554
0.998966
0.992749
0.986125
0.999128
0.998914
0.99411
0.981707
0.95884
0.980955
0.991667
0.97879
1
1
1
0.993076
0.998228
1
0.995971
1
0.999842
0.992866
1
0.994221
0.999885
0.999799
0.996871
0.987212
0.999128
0.999532
0.996649
0.99329
0.958966
0.991407
0.98741
0.98481
1
1
1
0.995947
0.998017
1
0.965479
0.996872
0.99958
0.988332
1
1
0.998731
0.999888
0.999133
0.989147
1
0.997533
0.99886
0.990419
0.919622
0.989007
0.991305
0.977662
1
1
1
1
1
1
0.999058
0.978814
0.989411
0.979847
1
1
0.989541
0.989563
0.995134
0.99722
1
0.986752
0.998023
1
0.886867
1
0.979435
0.965969
1
1
1
1
1
1
1
0.998634
0.990268
1
1
1
0.99688
0.987571
0.971568
0.979206
1
0.99393
0.981773
0.967262
0.956142
1
0.99994
0.960583
1
1
1
1
1
1
1
1
1
1
1
1
1
1
1
1
1
1
0.999883
1
1
1
1
1
1
1
1
1
1
1
1
1
1
1
1
1
1
1
1
1
1
1
1
1
1
1
1
1
1
1
1
1
1
1
1
1
1
1
1
1
1
1
1
1
1
1
1
1
1
1
1
1
1
1
1
1
1
1
1
1
1
1
1
1
1
1
1
1
1
1
1
1
1
1
1
1
1
1
1
1
1
1
1
1
1
1
1
1
1
1
1
1
1
1
1
1
1
1
1
1
1
1
1
1
1
1
1
1
1
1
1
1
1
1
1
1
1
1
1
1
1
1
1
1
1
1
1
1
1
1
1
1
1
1
1
1
1
1
1
1
1
1
1
1
1
1
1
1
1
1
1
1
1
1
1
1
1
1
1
1
1
1
1
1
1
1
1
1
1
1
1
1
1
1
1
1
1
1
1
1
1
1
1
1
1
1
1
1
1
1
1
1
1
1
1
1
1
1
1
1
1
1
1
1
1
1
1
1
1
1
1
1
1
1
1
1
1
1
1
1
1
1
1
1
1
1
1
1
1
1
1
1
1
1
1
1
1
1
1
1
1
1
1
1
1
1
1
1
1
1
1
1
1
1
1
1
1
1
1
1
1
1
1
1
1
1
1
1
1
1
1
1
1
1
1
1
1
1
1
1
1
1
1
1
1
1
1
1
1
1
1
1
1
1
1
1
1
1
1
1
1
1
1
1
1
1
1
1
1
1
1
1
1
1
1
1
1
1
1
1
1
1
1
1
1
1
1
1
1
1
1
1
1
1
1
1
1
1
1
1
1
1
1
1
1
1
1
1
1
0.461045
0.421725
0.439675
0.434756
0.451077
0.427591
0.442979
0.436465
0.43472
0.444277
0.442796
0.437772
0.454518
0.44914
0.435541
0.4358
0.452651
0.438299
0.424913
0.447023
0.443203
0.417843
0.413819
0.449473
0.43507
0.429894
0.433813
0.462347
0.436372
0.426043
0.435746
0.445198
0.454229
0.448753
0.462975
0.486568
0.455655
0.444272
0.44148
0.434894
0.440011
0.4778
0.464574
0.45612
0.448753
0.439179
0.42959
0.423972
0.452615
0.434178
0.438018
0.437077
0.474964
0.427567
0.444052
0.471296
0.452536
0.456536
0.448384
0.435199
0.439712
0.436508
0.446966
0.454477
0.47513
0.50066
0.473744
0.456294
0.436273
0.440743
0.413305
0.429217
0.436721
0.429366
0.441334
0.444218
0.432377
0.449037
0.435713
0.431172
0.446419
0.415853
0.423549
0.4754
0.452248
0.420475
0.425429
0.446435
0.457349
0.469201
0.428384
0.430653
0.416482
0.424532
0.43399
0.414831
0.896213
0.995726
0.897562
0.886448
0.896823
0.993954
0.990076
0.991084
0.893303
0.89558
0.998939
0.989716
0.979521
0.856586
0.977124
0.861328
0.990264
0.895715
0.879768
0.849895
0.984576
0.985207
0.990779
0.974932
0.824732
0.802682
0.79934
0.975969
0.990414
0.853077
0.972366
0.821314
0.985365
0.871448
0.908538
0.903726
0.987377
0.999576
0.991904
0.753338
0.76809
0.973121
0.968819
0.974427
0.90334
0.887925
0.990242
0.974808
0.988425
0.762194
0.769896
0.963056
0.985361
0.978482
0.86528
0.985793
0.842819
0.868183
0.872301
0.991394
0.890946
0.994057
0.980183
0.825511
0.823825
0.799411
0.811555
0.970416
0.971398
0.985609
0.982335
0.869498
0.965444
0.854121
0.884065
0.966425
0.983963
0.990883
0.866427
0.905686
0.976531
0.980163
0.984416
0.987747
0.989611
0.991288
0.993676
0.992194
0.993898
0.99685
0.992024
0.999143
0.994991
0.990977
0.997393
0.992729
0.992324
0.990336
0.990194
0.997553
0.992245
0.990333
0.989066
0.997679
0.983246
0.989398
0.989054
0.987251
0.986321
0.991946
0.991517
0.990093
0.992607
0.997612
0.993275
0.993575
0.992758
0.989396
1
0.995826
0.990095
1
0.997547
0.977291
0.990454
0.991465
0.982594
0.984345
0.995077
0.997201
0.992506
0.993378
0.991414
0.981344
0.984481
0.967513
0.985005
0.987936
0.98689
0.986989
0.997933
0.992787
0.990119
0.993809
0.999686
0.992877
0.993916
0.983781
0.993367
0.986546
0.994581
0.989883
0.990656
0.987281
0.982275
0.976477
0.975461
0.992492
0.993787
0.984714
0.992089
0.996852
0.996065
1
0.988475
0.99537
1
0.998016
0.995788
0.991732
1
0.992453
0.993052
0.993744
0.992868
0.998222
0.991762
0.990763
0.996817
0.994633
0.9887
0.985355
0.994787
0.993928
0.990973
0.989847
0.994628
0.990779
0.988336
0.986987
0.997423
0.993173
0.991821
0.9972
0.985382
0.998745
0.989076
0.997487
0.995936
0.985166
0.994212
0.997854
0.998031
0.996675
0.998805
0.995609
0.997257
0.973706
0.985546
0.990527
0.970026
0.970642
0.996555
0.992448
0.992646
0.994813
0.993172
0.987853
0.991816
0.954597
0.950778
0.982411
0.995992
0.992421
0.999968
0.989366
0.986958
0.993035
0.992587
0.98705
0.991418
0.988626
0.988724
0.977555
0.993013
0.99007
0.987288
0.983937
0.981769
0.970593
0.975997
0.992702
0.996613
0.984436
0.996234
0.993534
0.998809
0.996941
0.997681
0.998879
0.993863
0.99043
0.984541
0.994007
0.99989
0.994706
0.995557
0.991425
0.99033
0.995582
0.992683
0.994665
0.996812
0.996488
0.998142
0.988156
0.997559
0.997216
0.995891
0.985265
0.996254
0.997214
0.987291
0.984465
0.994344
0.995582
0.990508
0.999672
0.994651
0.994199
0.999381
0.997461
0.993906
0.995878
0.99168
0.993777
0.996813
0.995919
0.993539
0.998681
0.998305
0.975756
0.983153
0.985152
0.974405
0.98162
0.997309
0.996984
0.993184
0.994429
0.9964
0.977666
0.982776
0.95234
0.975403
0.974995
0.990522
0.990167
0.999048
0.983815
0.988035
0.996124
0.999045
0.99342
0.990712
0.994087
0.989491
0.984574
0.990641
0.99367
0.9937
0.986591
0.986972
0.978395
0.966841
0.993818
0.997916
0.978863
0.990426
0.998903
0.998877
0.997038
0.996528
0.998489
1
0.994186
0.992612
0.993169
0.984497
0.993848
0.998093
0.996481
0.99075
0.994307
0.997849
0.997328
0.99978
0.99503
0.99814
0.995953
0.99993
0.996657
0.991293
0.978286
0.99583
0.989332
0.974405
0.980526
0.989095
0.983758
0.994032
0.99904
0.992906
0.993335
0.990209
1
0.994976
0.987179
0.993796
0.993576
1
0.999122
0.99551
1
0.995942
0.971341
0.981072
0.988997
0.979013
0.948724
0.998486
0.993418
0.993732
0.999091
0.994037
0.951373
0.988672
0.960209
0.930453
0.978877
0.995187
0.990582
1
0.983689
0.987319
0.993114
0.998812
0.994881
0.987739
0.9899
0.987715
0.990827
0.991983
0.99377
0.990315
0.979809
0.984815
0.98118
0.972993
0.99088
0.997805
0.981647
0.996737
0.989463
0.999961
0.996927
1
0.995733
0.99989
0.99411
0.997909
0.989195
0.9989
0.994426
0.995911
0.997911
0.992684
0.997062
0.998242
0.997287
1
0.999273
0.99628
0.991902
0.99993
0.991014
0.995751
0.987325
0.991686
0.985607
0.990982
0.995595
0.991506
0.988372
0.998435
0.997091
0.992087
0.994594
0.99323
1
0.995269
0.988814
0.986261
0.997213
1
0.999122
0.998877
1
0.998061
0.962277
0.989103
0.838147
0.993366
0.997584
0.987743
0.996395
0.436129
0.5082
0.398099
0.998312
0.944138
0.991961
0.902801
0.997909
0.994849
0.99945
0.995909
0.996631
0.825579
0.983416
0.942696
0.935472
0.967417
0.980697
0.994391
0.391674
0.648592
0.404511
0.985495
0.905244
0.996008
0.940609
0.992466
0.995396
0.999043
0.991169
0.992462
0.995338
0.99759
0.989255
0.985588
0.99009
0.994153
0.987647
0.992438
0.991611
0.992225
0.984737
0.981576
0.95697
0.970543
0.995801
0.992976
0.986989
0.997673
0.997476
0.997671
1
1
0.9967
1
0.989842
0.993866
0.989962
0.99934
0.991406
0.997365
0.997471
0.995084
0.995457
0.997848
0.997134
1
0.997121
0.998916
1
0.998052
0.991919
0.993382
0.987143
0.993592
0.992768
0.989805
0.990889
0.996721
0.990846
0.992156
0.998045
0.996865
0.995882
0.996929
0.999798
0.997284
0.984573
1
0.978983
0.999951
1
1
1
1
0.996477
1
0.999303
0.99489
1
0.997122
0.998443
0.985908
0.996335
0.990762
0.999
0.986283
0.993492
1
1
1
1
1
1
1
0.998242
0.996553
1
0.999121
0.997715
0.982869
0.975503
0.998271
0.93963
0.981625
0.987718
0.993911
1
0.999384
1
1
1
1
0.999706
0.993163
0.997279
0.982907
0.988637
0.987889
0.994646
0.993135
0.993474
0.995095
0.99314
0.993503
0.977566
0.99803
0.994024
0.992211
0.987616
1
0.990107
0.999951
1
1
0.998943
0.987266
0.987266
0.994864
1
0.988771
0.994441
0.998903
0.998836
1
1
0.996004
1
0.993156
0.989892
0.987801
1
0.997368
0.996608
1
0.991213
0.995851
0.997364
0.996709
1
0.999121
0.995934
0.996245
0.995963
0.995402
0.99366
0.989391
0.994248
0.997785
0.983868
0.99071
0.994188
0.995407
0.996823
0.99899
0.994046
0.997504
0.993522
0.998586
0.995132
0.992193
1
0.991918
1
1
1
1
1
0.997755
0.996811
0.999121
0.996632
1
0.998243
0.99833
0.982437
0.997111
0.989643
0.999551
0.986669
0.995062
1
1
1
1
1
1
1
0.996303
0.997754
1
0.998333
0.999923
0.98081
0.988092
0.997154
0.931936
0.976926
0.986747
0.9974
1
0.999172
1
1
1
1
1
0.994837
0.995744
0.993333
0.988918
0.990009
0.998526
1
0.988918
0.987859
0.994027
0.990998
0.990866
0.997384
0.994846
0.990435
0.98558
0.999705
0.995909
1
1
1
1
0.971103
0.974462
0.995317
0.99155
0.980214
0.997644
0.993635
0.992941
1
0.997735
0.999534
0.996818
0.992871
0.994702
0.99059
0.996811
0.993032
0.995972
0.996811
0.990788
0.995427
0.998242
0.994422
0.99956
0.994667
0.998605
0.991916
0.994002
0.99798
0.995611
0.986065
0.996781
0.991531
0.982917
0.996134
0.99997
0.997557
0.991002
1
0.998855
0.998252
0.996769
0.999033
0.996086
0.984842
0.983175
0.99431
1
0.998182
0.996516
1
0.996365
0.998643
0.980796
0.994442
0.994024
1
0.982479
0.992829
1
1
1
1
1
1
1
0.998242
0.998877
1
1
0.998877
0.969376
0.994028
0.99838
0.93633
0.968286
0.989239
0.99961
1
1
1
1
1
1
1
0.993931
0.997977
0.997459
0.984924
0.993097
0.997384
0.998053
0.99235
0.990614
0.991635
0.991691
0.982965
0.997233
0.994121
0.989889
0.982369
0.987091
0.984887
0.982788
0.994682
0.993635
0.985248
0.993142
0.996817
0.995965
1
0.997705
0.996237
1
0.994326
0.98348
0.991775
1
0.990827
0.997941
1
0.992028
0.996366
0.998424
0.99512
1
0.999121
0.997522
0.997419
0.995188
0.989133
0.997214
0.986187
0.993027
0.993292
0.984318
0.98499
0.993116
0.991829
0.998373
0.999369
0.993658
0.996782
0.996686
0.999206
0.990258
0.989402
0.98931
0.996671
1
0.999152
0.997755
1
0.997032
0.987266
0.994606
0.994608
0.986183
0.97966
0.999848
0.996824
1
0.999121
0.996553
0.943926
0.987785
0.916209
0.894964
0.990486
1
0.997907
0.997591
0.991281
0.995126
0.990919
0.986837
0.992575
0.991009
0.992447
0.985303
0.985172
0.998661
0.993728
0.987734
0.985825
0.996063
0.983838
0.979921
0.994441
0.996817
0.981609
0.9942
0.990452
0.999147
1
0.999124
0.99752
1
0.987954
0.975606
0.991427
0.99989
0.989551
0.995791
0.993733
0.994931
0.989099
0.999
0.995665
1
0.996184
0.99551
0.993168
0.997978
0.989412
0.991641
0.983553
0.994428
0.993067
0.985271
0.989725
0.994458
0.99808
1
0.999373
0.993433
0.996486
0.991857
0.999671
0.994045
0.989756
0.999651
0.996052
1
0.99473
0.997716
1
0.998243
0.986131
0.989316
0.996629
0.988898
0.984946
0.997879
0.996825
0.998021
0.998485
0.993262
0.911341
0.988449
0.913682
0.925678
0.991873
0.997977
0.995954
0.995843
0.989088
0.984016
0.993174
0.995613
0.991451
0.992947
0.990207
0.98963
0.982944
0.99703
0.995215
0.986199
0.990625
0.993854
0.987756
0.965509
0.996285
0.99572
0.983042
0.995379
0.997915
0.995893
1
0.998249
0.99663
1
0.99013
0.979231
0.98857
0.995822
0.990829
0.994368
0.997801
0.992648
0.99243
0.994336
0.994388
1
0.997365
0.999961
0.992471
0.989962
0.988995
0.99192
0.984843
0.99565
0.998731
0.984208
0.989726
0.992939
0.997462
0.991855
0.9972
0.994105
0.995254
0.990337
0.995981
0.990866
0.991756
0.989652
0.996246
0.993622
0.991187
0.995278
1
0.998243
0.98512
0.97448
0.994343
0.985328
0.989218
0.999061
0.995392
0.996811
0.999
0.992759
0.924946
0.993926
0.884969
0.932078
0.989358
0.994629
0.998675
0.997131
0.984364
0.992432
0.997023
0.998087
0.991057
0.993129
0.994757
0.989574
0.997232
0.999666
0.996463
0.992522
0.986892
0.991813
0.982579
0.974114
0.992872
0.996817
0.975377
0.995168
1
0.996824
0.996817
0.99997
0.995004
1
0.988589
0.993867
0.994982
0.996811
0.993345
0.997063
0.997471
0.994351
0.99676
0.996032
0.997368
0.99934
0.997244
0.995936
0.995956
0.995259
0.991363
0.99192
0.991523
0.993952
0.99603
0.981072
0.99353
0.996931
0.999967
0.993482
0.995914
0.992679
0.995944
0.994549
0.998484
0.992134
0.992656
0.993844
0.99582
1
0.997698
0.995743
1
0.997547
0.98832
0.989658
0.991588
0.982146
0.981516
0.997364
0.996631
1
0.996001
0.996592
0.933722
0.986877
0.893641
0.917346
0.979907
0.99993
0.992118
0.997922
0.980202
0.991524
0.992333
0.995812
0.985489
0.994461
0.994937
0.990849
0.980503
0.999666
0.993015
0.984768
0.985475
0.991389
0.970406
0.980621
0.99556
0.996817
0.971389
0.996527
0.996817
0.99694
0.996817
0.998007
0.996475
1
0.987678
0.991707
0.986758
0.996811
0.994157
0.993732
0.996811
0.993229
0.995973
0.999576
0.998219
1
0.997577
0.997329
0.99519
0.994841
0.991502
0.994567
0.985832
0.995174
0.990434
0.981688
0.99356
0.992999
0.991768
0.986513
0.998089
0.993737
0.990957
0.989491
0.995518
0.994554
0.985868
0.995662
0.993188
0.996811
0.996669
0.992066
0.996811
0.994185
0.983023
0.990428
0.99151
0.979331
0.983937
0.998213
0.997406
1
0.999424
0.996631
0.95285
0.986217
0.888043
0.929661
0.989507
0.999442
0.994769
0.999044
0.98577
0.991676
0.99522
0.997164
0.982958
0.990798
0.996339
0.987929
0.981802
1
0.998932
0.988294
0.97971
0.990338
0.979991
0.970826
0.992329
1
0.964498
0.994775
0.993744
0.995623
1
0.99695
0.995817
1
0.981517
0.985086
0.983622
1
0.995512
0.992672
0.997691
0.987966
0.99137
0.998243
0.997484
1
0.996487
0.994387
0.99763
0.990031
0.99394
0.995473
0.993201
0.99568
0.992842
0.980624
0.988947
0.993446
0.992516
0.98286
0.992388
0.99295
0.997537
0.99039
0.99542
0.993283
0.994403
0.989017
0.993575
1
0.98719
0.987306
1
0.990218
0.974823
0.987238
0.997868
0.966864
0.990209
0.997667
0.991288
1
0.997758
0.98819
0.963403
0.989121
0.886022
0.930432
0.982422
0.993652
0.996652
1
0.984364
0.989315
0.995701
0.999934
0.989595
0.989769
0.996431
0.99024
0.975246
0.999366
0.996217
0.977379
0.980785
0.984037
0.969287
0.959912
0.997614
0.99989
0.980178
0.992993
0.993634
0.999109
1
1
0.998838
0.994732
0.974866
0.98857
0.994494
0.995932
0.994544
0.992975
1
0.987928
0.983952
0.999122
0.99551
0.996811
0.998243
0.998142
0.991634
0.991425
0.988577
0.988368
0.992691
0.997974
0.99385
0.991208
0.993081
0.995382
0.99154
0.98848
0.996178
0.995885
0.99288
0.992975
0.994827
0.99413
0.995942
0.992235
0.995356
1
0.994852
0.993034
1
0.995609
0.970496
0.981628
0.989766
0.973219
0.971286
0.992275
0.987841
0.996921
0.991457
0.99547
0.948236
0.970691
0.876015
0.952302
0.980254
0.999442
0.994559
1
0.985714
0.994612
0.989056
0.999967
0.98712
0.992463
0.994967
0.982001
0.977281
0.998064
0.993472
0.9872
0.983384
0.990548
0.966209
0.951657
0.995893
0.996817
0.973248
0.99396
1
0.994423
0.998903
1
0.994384
1
0.975216
0.990592
0.993518
1
0.987812
0.985617
1
0.993074
0.985527
0.996487
0.995471
0.995493
0.996002
0.994388
0.988495
0.991984
0.992617
0.97959
0.994969
0.994221
0.988516
0.982919
0.995716
0.997616
0.991409
0.98044
0.994267
0.994251
0.99219
0.988763
0.991827
0.993435
0.996222
0.991676
0.99555
1
0.996154
0.996633
1
0.997365
0.979179
0.968204
0.989574
0.972253
0.971728
0.99585
0.992566
1
0.997334
0.987259
0.935594
0.984007
0.856013
0.93692
0.976077
0.998117
0.997419
0.997758
0.992913
0.988892
0.995189
0.997131
0.989145
0.988648
0.99341
0.983519
0.97609
0.996394
0.99515
0.980087
0.977115
0.98572
0.961939
0.955717
0.995651
0.996817
0.961362
0.995681
1
0.994422
1
0.99994
0.9933
1
0.96808
0.994355
0.98627
0.996812
0.991373
0.992371
1
0.988816
0.99576
0.989795
0.99226
1
0.994759
0.993999
0.993098
0.991564
0.989204
0.987183
0.990536
0.991749
0.994112
0.989864
0.99359
0.993147
0.994305
0.990501
0.990576
0.990045
0.999189
0.985111
0.97703
0.9892
0.984187
0.968734
0.995704
1
0.995579
0.997329
1
0.991428
0.971401
0.976346
0.990775
0.970256
0.967107
0.989943
0.991404
1
0.996182
0.998451
0.949002
0.984165
0.870675
0.949778
0.971543
0.993932
0.991978
0.997198
0.991001
0.988831
0.997955
0.997757
0.993025
0.990283
0.992314
0.973461
0.979206
0.997028
0.991091
0.971628
0.987395
0.982284
0.956557
0.964178
0.99547
0.999342
0.969293
0.995076
0.997475
0.992913
1
0.999124
0.984388
1
0.967999
0.990941
0.992542
1
0.992108
0.996216
1
0.996207
0.994034
0.990521
0.995317
1
0.993487
0.989663
0.992193
0.993515
0.989901
0.992616
0.992363
0.996544
0.994339
0.981071
0.990024
0.996544
0.99232
0.988988
0.980166
0.99029
0.992909
0.994661
0.979303
0.986685
0.994544
0.986496
0.990636
1
0.995398
0.993845
0.996811
0.992821
0.97159
0.962711
0.994107
0.972912
0.959508
0.995608
0.99698
1
0.997364
0.996282
0.945608
0.972903
0.878564
0.941522
0.978315
0.99993
0.98898
0.993868
0.992969
0.986107
0.994798
0.997131
0.990776
0.976358
0.988501
0.983554
0.985365
0.997162
0.989901
0.977588
0.983268
0.96975
0.962783
0.975652
0.995712
1
0.973901
0.99704
1
0.989195
1
0.998128
0.983652
1
0.948322
0.989198
0.987942
1
0.994777
0.999092
0.996811
0.991409
0.994882
0.995064
0.992647
0.996811
0.996183
0.989005
0.9954
0.993236
0.997284
0.983143
0.993051
0.992792
0.997983
0.982639
0.992721
0.993027
0.995737
0.986122
0.974565
0.983967
0.989604
0.987972
0.985268
0.986897
0.983912
0.989924
0.994079
1
0.998819
0.997755
1
0.997365
0.96566
0.974921
0.989415
0.962258
0.972162
0.99267
0.991598
1
0.99191
0.99574
0.955058
0.968412
0.855704
0.959989
0.970957
0.986469
0.993861
0.996769
0.998369
0.981811
0.992332
0.990568
1
0.989131
0.989355
0.975529
0.982201
1
0.982121
0.967887
0.982873
0.980113
0.969153
0.9739
0.999426
1
0.985752
0.999124
0.996817
0.980715
0.996927
0.995319
0.98586
1
0.959526
0.987736
0.986686
1
0.990909
0.99228
1
0.982082
0.994034
0.995578
0.994542
1
0.996183
0.994426
0.991912
0.995887
0.987742
0.994009
0.989967
0.9944
0.995413
0.976756
0.987987
0.997348
0.995639
0.996741
0.991763
0.995432
0.994442
0.995111
0.995023
0.996611
0.994614
0.991535
0.997833
0.996812
0.999122
0.997291
0.996811
0.995396
0.9626
0.958527
0.994728
0.971189
0.984047
0.987611
0.997328
1
0.993576
0.990473
0.964398
0.964425
0.854101
0.964825
0.969641
0.995884
0.996024
0.99301
0.995163
0.9954
0.995129
0.995317
0.98965
0.990706
0.986732
0.975559
0.976154
0.993522
0.976171
0.973787
0.983834
0.974161
0.976145
0.975722
0.998248
1
0.985791
0.996949
1
0.976956
0.997146
0.994232
0.978347
0.996049
0.961067
0.991986
0.990591
0.996812
0.991489
0.996488
1
0.994969
0.992126
0.994094
0.994736
0.99989
0.999122
0.997794
0.992122
0.991635
0.996657
0.991919
0.994759
0.993953
0.996259
0.988352
0.994848
0.994607
0.996518
0.988256
0.995223
0.993284
0.998618
0.992919
0.985103
0.998094
0.997692
0.992584
0.99791
1
0.996942
0.997755
0.996811
0.99473
0.96726
0.960177
0.996705
0.975396
0.961273
0.994729
0.996399
1
0.993637
0.996786
0.96187
0.942205
0.841824
0.942951
0.944006
0.997698
0.991001
0.996373
0.992182
0.982173
0.994497