/*--------------------------------*- C++ -*----------------------------------*\
| =========                 |                                                 |
| \\      /  F ield         | OpenFOAM: The Open Source CFD Toolbox           |
|  \\    /   O peration     | Version:  5.x                                   |
|   \\  /    A nd           | Web:      www.OpenFOAM.org                      |
|    \\/     M anipulation  |                                                 |
\*---------------------------------------------------------------------------*/
FoamFile
{
    version     2.0;
    format      ascii;
    class       volScalarField;
    location    "4";
    object      p;
}
// * * * * * * * * * * * * * * * * * * * * * * * * * * * * * * * * * * * * * //

dimensions      [0 2 -2 0 0 0 0];

internalField   nonuniform List<scalar> 
10571
(
187.973
162.839
173.99
174.822
218.683
126.683
155.774
161.617
173.907
225.21
165.938
154.299
155.191
151.081
172.017
220.919
160.133
126.538
147.476
166.068
204.889
171.095
133.411
169.116
150.179
97.2864
132.245
152.927
130.139
107.993
112.738
140.463
104.091
143.145
97.9485
87.104
94.1115
123.093
120.834
158.717
76.3383
107.528
116.449
138.729
143.037
107.341
120.342
120.029
69.1689
53.4229
51.0656
82.1415
51.1167
77.8803
62.1128
67.9373
44.3652
70.4804
44.6483
72.8178
49.8634
71.7585
47.125
61.3921
53.4841
62.4016
94.8871
80.3166
66.3367
65.8448
112.708
100.47
28.6881
35.2596
28.2955
31.1105
28.9829
43.9479
28.5614
26.5955
24.739
25.4451
35.1622
32.842
33.5185
28.879
22.7828
22.9384
34.1413
23.5311
23.2007
22.0051
22.5458
24.875
25.0862
23.9634
24.2351
25.5073
24.0656
22.7183
23.3679
26.4013
22.3968
21.855
22.8018
22.9251
27.6677
27.771
25.2085
23.0065
22.5685
23.0434
26.2917
22.3706
21.9792
22.8145
22.8851
22.9943
23.2595
23.1547
22.5402
22.9856
22.6933
22.5152
22.3929
22.9139
22.3626
22.8647
22.8454
22.6766
22.5689
24.5449
23.1743
21.6118
22.6251
22.9422
22.6318
22.5625
24.4797
22.9144
23.14
22.749
22.7235
22.744
22.8483
22.827
22.3823
22.4625
22.3614
22.4336
22.434
22.8115
22.5822
22.7023
22.596
22.5934
22.6786
23.3128
22.5179
22.6856
22.7837
22.731
22.6515
22.674
23.296
22.9042
22.8674
22.6852
22.7293
22.6543
22.9339
22.9588
22.8739
22.343
22.1934
22.1408
22.3107
22.4852
22.4908
22.5421
22.4937
22.5722
22.6537
22.6986
22.466
22.4971
22.6871
22.6823
22.646
22.6797
22.7033
22.7832
22.7171
22.6514
22.7064
22.7841
22.7038
22.8212
22.9414
22.9763
22.3636
22.0423
22.0447
22.3603
22.4991
22.1981
22.3396
22.4282
22.5713
22.5666
22.7056
22.0636
22.1277
22.4655
22.5595
22.557
22.5894
22.7375
22.5831
22.522
22.5499
22.6633
22.6992
22.6365
22.8054
22.8886
22.3801
22.0243
22.0907
22.38
22.4746
21.9735
22.2201
22.375
22.4656
22.3573
21.9317
21.9769
22.3239
22.4509
22.4215
22.4048
22.0256
22.3611
22.4656
22.5324
22.4908
22.4705
22.6274
22.7275
22.3259
22.0672
22.1074
22.3122
22.4075
22.0328
22.2355
22.3187
22.3535
22.3559
21.9671
21.9973
22.2565
22.3698
22.3118
22.3355
21.8442
22.2739
22.3776
22.4098
22.4309
22.3939
22.478
22.5694
22.2618
22.1376
22.1854
22.2707
22.2937
22.0702
22.2386
22.2859
22.2768
22.3167
22.0551
22.1092
22.2272
22.316
22.2501
22.3334
22.0558
22.2524
22.3068
22.3389
22.377
22.3628
22.3824
22.4453
22.1589
22.1792
22.1298
22.143
22.2192
22.1206
22.2209
22.2557
22.2308
22.2915
22.0888
22.0531
22.2158
22.2819
22.2195
22.3093
22.1216
22.247
22.2668
22.2911
22.3204
22.3372
22.3286
22.3665
22.178
22.1822
22.09
22.1552
22.2151
22.1771
22.2003
22.2529
22.2176
22.2833
22.1574
22.1454
22.2164
22.2603
22.2084
22.2737
22.2002
22.2445
22.2526
22.2616
22.2588
22.3145
22.2993
22.3207
22.2863
22.1816
22.143
22.2514
22.2655
22.2162
22.202
22.2728
22.2297
22.2901
22.2389
22.2397
22.2251
22.2359
22.2271
22.264
22.2486
22.2451
22.2596
22.2458
22.2489
22.3005
22.2926
22.3088
22.3266
22.1961
22.1759
22.3287
22.2916
22.2437
22.2145
22.2758
22.2504
22.303
22.2876
22.2767
22.2366
22.2239
22.2621
22.2938
22.2658
22.2483
22.2817
22.266
22.2912
22.2916
22.2935
22.3137
22.298
22.2286
22.1796
22.2928
22.2932
22.2648
22.2266
22.2672
22.2719
22.3169
22.3099
22.2975
22.2524
22.2379
22.2986
22.3334
22.2729
22.2516
22.3004
22.299
22.3422
22.283
22.2978
22.3244
22.2781
22.2739
22.2377
22.2794
22.2965
22.2822
22.2282
22.2614
22.2941
22.3282
22.323
22.3078
22.2748
22.2682
22.3296
22.3669
22.2876
22.2602
22.3127
22.3164
22.3748
22.278
22.3039
22.3333
22.3106
22.311
22.3089
22.3024
22.3067
22.2987
22.2386
22.2595
22.3109
22.3343
22.3286
22.3128
22.2948
22.2922
22.3442
22.3805
22.3049
22.2494
22.3123
22.327
22.3808
22.2687
22.3063
22.3377
22.346
22.3352
22.3241
22.3157
22.3156
22.3155
22.2449
22.2585
22.3158
22.3373
22.3326
22.313
22.2942
22.304
22.3441
22.3806
22.3156
22.2474
22.3104
22.3377
22.3798
22.2657
22.3044
22.3414
22.3377
22.365
22.3356
22.3295
22.3219
22.3266
22.2552
22.2791
22.3148
22.3379
22.3388
22.3175
22.2902
22.3169
22.3475
22.3752
22.3332
22.2559
22.3212
22.3557
22.3772
22.2613
22.3043
22.3478
22.337
22.3834
22.338
22.347
22.3274
22.3337
22.3158
22.3207
22.3196
22.3383
22.3426
22.3353
22.2967
22.3291
22.3496
22.3674
22.337
22.2733
22.3278
22.3649
22.3718
22.2674
22.3094
22.3501
22.3455
22.3384
22.2934
22.3346
22.3239
22.3296
22.3033
22.3346
22.3192
22.3334
22.3445
22.3394
22.2882
22.3383
22.3406
22.3561
22.344
22.2666
22.3258
22.3579
22.3732
22.2687
22.3152
22.3464
22.3462
22.31
22.2797
22.3191
22.3109
22.3119
22.281
22.326
22.3107
22.3235
22.335
22.3134
22.2641
22.3158
22.326
22.3397
22.3105
22.2386
22.3277
22.3462
22.3527
22.2424
22.3242
22.348
22.3247
22.2942
22.281
22.2979
22.2918
22.2884
22.2614
22.3113
22.2974
22.3111
22.312
22.2788
22.24
22.2792
22.3124
22.3228
22.2822
22.1943
22.3206
22.3472
22.3377
22.2142
22.3349
22.3431
22.2958
22.2787
22.241
22.2704
22.2736
22.2747
22.2202
22.2902
22.284
22.2992
22.2887
22.2319
22.2041
22.2435
22.2934
22.3072
22.2452
22.1517
22.2985
22.3194
22.3228
22.2036
22.3016
22.3222
22.2709
22.3046
22.2425
22.2499
22.2635
22.2755
22.2162
22.2761
22.2755
22.2914
22.2833
22.2306
22.166
22.2196
22.2737
22.2946
22.2244
22.1395
22.2582
22.2943
22.3062
22.1907
22.2429
22.3033
22.2583
22.3129
22.2345
22.2404
22.2668
22.272
22.2015
22.2699
22.2701
22.2913
22.2835
22.2434
22.138
22.2269
22.2589
22.2899
22.2341
22.1267
22.2305
22.2812
22.2948
22.1955
22.2429
22.2943
22.2656
22.2745
22.2436
22.2434
22.2839
22.2471
22.2004
22.2642
22.2854
22.3031
22.2718
22.2442
22.1388
22.2619
22.2619
22.294
22.2474
22.1346
22.253
22.2837
22.2947
22.2279
22.3041
22.3119
22.2947
22.2794
22.2892
22.2709
22.311
22.2472
22.2469
22.2666
22.3055
22.3224
22.2634
22.2545
22.1822
22.3077
22.2835
22.3059
22.2576
22.1661
22.293
22.2936
22.3021
22.2727
22.4081
22.3449
22.3356
22.3134
22.3421
22.3207
22.3428
22.2779
22.3168
22.2801
22.3199
22.3403
22.2781
22.3047
22.2511
22.3296
22.3124
22.3199
22.2769
22.2127
22.2848
22.2919
22.3091
22.3745
22.4425
22.3418
22.3656
22.3339
22.3597
22.3597
22.3709
22.3012
22.3783
22.3009
22.3216
22.3477
22.3121
22.3295
22.3266
22.3142
22.3348
22.3347
22.288
22.1923
22.2582
22.2851
22.3157
22.3901
22.3445
22.3088
22.3719
22.323
22.3316
22.3678
22.3839
22.3037
22.3669
22.3221
22.3216
22.353
22.335
22.3286
22.4294
22.2836
22.3533
22.3492
22.2842
22.1868
22.2386
22.284
22.3253
22.2953
22.233
22.2805
22.3878
22.3134
22.3265
22.3736
22.3907
22.2993
22.3185
22.334
22.3316
22.3641
22.3406
22.3344
22.5084
22.2847
22.3703
22.3681
22.3059
22.205
22.2134
22.301
22.3457
22.2477
22.1962
22.2786
22.4094
22.3428
22.3634
22.3751
22.3986
22.3188
22.3211
22.3514
22.3571
22.3812
22.3459
22.3258
22.4939
22.3067
22.3885
22.3936
22.3327
22.272
22.2313
22.3427
22.3799
22.2704
22.2234
22.3233
22.4356
22.4099
22.3982
22.3863
22.4051
22.3803
22.3823
22.3808
22.3901
22.4044
22.3653
22.3624
22.4297
22.3441
22.4171
22.4251
22.3648
22.3941
22.3022
22.4082
22.4256
22.3578
22.288
22.3977
22.4554
22.4829
22.4365
22.3935
22.4108
22.4859
22.4277
22.4095
22.417
22.4304
22.4301
22.4177
22.3995
22.3972
22.4511
22.4602
22.4076
22.4901
22.3849
22.4802
22.4769
22.435
22.3618
22.4852
22.4497
22.5296
22.4436
22.3648
22.4307
22.5238
22.4447
22.4382
22.4392
22.4583
22.4584
22.4468
22.4341
22.452
22.4881
22.4967
22.4606
22.5354
22.4438
22.5449
22.5261
22.5032
22.4352
22.5663
22.4618
22.5195
22.441
22.3955
22.4587
22.5278
22.4633
22.4663
22.4572
22.4895
22.5058
22.4731
22.488
22.4923
22.517
22.5286
22.5074
22.5307
22.4686
22.5903
22.5641
22.5845
22.5079
22.6303
22.4911
22.5037
22.4631
22.4851
22.4927
22.5143
22.4697
22.4785
22.4683
22.5162
22.5611
22.5216
22.5181
22.5125
22.5271
22.5482
22.5388
22.5269
22.4823
22.608
22.5822
22.5925
22.534
22.6497
22.533
22.5153
22.4763
22.519
22.5219
22.4984
22.4719
22.487
22.4757
22.5273
22.5611
22.5195
22.5242
22.5256
22.5303
22.5522
22.5714
22.5153
22.5156
22.5985
22.5793
22.5619
22.5509
22.6412
22.5404
22.5098
22.509
22.5319
22.5152
22.4896
22.4755
22.4946
22.473
22.5243
22.5479
22.5026
22.5271
22.5398
22.533
22.5465
22.5693
22.5239
22.55
22.5783
22.5721
22.5307
22.5786
22.6449
22.5356
22.5099
22.5199
22.5267
22.5116
22.4894
22.4813
22.4965
22.4725
22.511
22.5335
22.4898
22.5402
22.5463
22.516
22.537
22.5549
22.5592
22.6017
22.5811
22.5655
22.52
22.6084
22.6639
22.5268
22.5096
22.515
22.5156
22.5135
22.4917
22.4796
22.4916
22.4829
22.5024
22.5141
22.4747
22.5407
22.537
22.5037
22.5234
22.5265
22.5445
22.6118
22.5747
22.5567
22.5279
22.5656
22.6013
22.5227
22.5063
22.5063
22.507
22.5207
22.4941
22.4675
22.4828
22.4846
22.4912
22.498
22.4622
22.518
22.5077
22.4836
22.5006
22.4841
22.5164
22.5515
22.5296
22.5297
22.5337
22.5735
22.5727
22.5135
22.5012
22.4975
22.4977
22.5161
22.4972
22.4515
22.4714
22.4668
22.4718
22.4929
22.4872
22.4963
22.4835
22.4455
22.4707
22.4755
22.5096
22.5106
22.4396
22.4826
22.5452
22.6157
22.4722
22.5043
22.4965
22.4873
22.4814
22.5067
22.4954
22.4363
22.4573
22.458
22.4511
22.5029
22.5011
22.468
22.4583
22.4248
22.4484
22.482
22.5031
22.4715
22.3904
22.4429
22.5534
22.5191
22.4115
22.49
22.4927
22.4826
22.455
22.4856
22.4844
22.4258
22.4457
22.4566
22.4325
22.5095
22.4951
22.4393
22.4385
22.4288
22.4314
22.4838
22.4857
22.4337
22.3925
22.4286
22.5297
22.4997
22.4064
22.4911
22.4882
22.4823
22.4327
22.4458
22.4725
22.4242
22.4406
22.439
22.4191
22.5075
22.4843
22.4191
22.4327
22.4209
22.422
22.4823
22.4692
22.4226
22.4156
22.4301
22.5244
22.4884
22.4269
22.4879
22.4841
22.4806
22.4345
22.4325
22.4636
22.4281
22.4388
22.4284
22.415
22.5036
22.4757
22.3937
22.4296
22.4116
22.4187
22.4806
22.4499
22.4326
22.4391
22.4395
22.5674
22.4978
22.4461
22.4802
22.4807
22.4803
22.4655
22.4562
22.4584
22.4409
22.4424
22.4289
22.426
22.514
22.4746
22.3611
22.4289
22.4305
22.43
22.4863
22.4384
22.4474
22.4602
22.4649
22.5607
22.4914
22.4663
22.4866
22.4818
22.4832
22.4685
22.469
22.4582
22.4698
22.4533
22.4408
22.444
22.5415
22.4847
22.3512
22.4381
22.4515
22.4482
22.4883
22.4264
22.456
22.4733
22.4846
22.5138
22.4809
22.4856
22.495
22.4945
22.4907
22.4803
22.4641
22.4687
22.4968
22.4664
22.4543
22.4563
22.5494
22.4905
22.3701
22.4499
22.4755
22.4707
22.5133
22.4145
22.4567
22.4811
22.4838
22.4898
22.4742
22.4921
22.4843
22.5045
22.4825
22.4715
22.4467
22.5031
22.5158
22.4814
22.4714
22.4642
22.544
22.5144
22.3982
22.4688
22.5009
22.4944
22.5237
22.402
22.4594
22.4886
22.5117
22.4619
22.4717
22.4937
22.4633
22.5027
22.4633
22.4192
22.449
22.5291
22.5365
22.4843
22.4931
22.475
22.5474
22.5332
22.4487
22.4826
22.5044
22.5013
22.5197
22.4046
22.4659
22.4903
22.5064
22.4492
22.4723
22.4947
22.5034
22.5307
22.5132
22.4321
22.5053
22.5387
22.5267
22.495
22.489
22.4768
22.5588
22.5448
22.4976
22.4897
22.4883
22.4906
22.532
22.4226
22.4781
22.4895
22.499
22.457
22.4798
22.497
22.6153
22.5722
22.571
22.527
22.503
22.5445
22.5117
22.5162
22.464
22.4631
22.5762
22.5439
22.5069
22.4977
22.4684
22.4729
22.5628
22.4746
22.4962
22.4837
22.4861
22.486
22.4973
22.4999
22.5413
22.5863
22.5628
22.4956
22.4724
22.5385
22.4845
22.5085
22.4115
22.428
22.6018
22.5505
22.5197
22.5008
22.4345
22.4263
22.5851
22.534
22.5105
22.4672
22.4536
22.5415
22.5206
22.4993
22.4589
22.5836
22.5438
22.4457
22.4366
22.5147
22.4951
22.4579
22.313
22.3311
22.6348
22.5849
22.5386
22.4902
22.362
22.3148
22.5936
22.578
22.5266
22.443
22.3924
22.5956
22.5462
22.4989
22.4812
22.5862
22.5521
22.4502
22.4227
22.523
22.5394
22.4249
22.1974
22.1244
22.6933
22.6379
22.571
22.4743
22.2464
22.0914
22.6749
22.6282
22.5534
22.4167
22.2929
22.6466
22.5764
22.507
22.5453
22.6201
22.5951
22.5022
22.4705
22.5962
22.6046
22.4
22.0317
21.6888
22.7806
22.7307
22.6333
22.4674
22.1074
21.5377
22.7967
22.6977
22.5964
22.3995
22.1448
22.7043
22.628
22.5441
22.6247
22.7132
22.6556
22.5641
22.6533
22.7239
22.682
22.3961
21.8405
20.6719
22.8923
22.8255
22.714
22.4736
21.9578
20.2307
22.8853
22.7905
22.6714
22.4281
21.8927
22.784
22.7028
22.6445
22.7462
22.8731
22.7844
22.6182
22.5545
22.8872
22.7777
22.3976
21.5724
17.9313
22.9995
22.9322
22.8293
22.5439
21.8516
18.178
-12.9014
22.9702
22.9107
22.7872
22.4928
21.1695
22.8884
22.8077
22.8228
22.9557
23.0658
22.9765
22.8161
22.5292
23.0528
22.9352
22.5564
21.4791
15.7274
0.609622
23.1019
23.0449
22.9894
22.718
21.7996
17.7855
3.09573
23.0764
23.0546
22.9129
22.52
19.9634
23.0118
22.9137
22.9016
23.2067
23.258
23.1922
23.0945
22.7932
23.2057
23.1369
22.8427
21.8245
17.3607
4.56064
23.2185
23.1856
23.1594
22.9093
21.8202
17.5144
5.48255
23.2057
23.2207
23.0539
22.7912
19.3626
5.8417
23.1792
22.9883
22.9306
23.4495
23.406
23.4036
23.3558
23.176
23.3454
23.3189
23.0368
22.2902
18.1782
3.82059
23.3411
23.3266
23.3183
22.984
22.2657
18.2662
3.09986
23.345
23.3891
23.2467
22.7531
18.9515
23.3676
23.4051
23.1131
23.6333
23.5276
23.5626
23.5516
23.4255
23.4629
23.4763
23.265
22.734
20.437
23.4591
23.4462
23.4786
23.1508
22.8166
19.58
-10.983
23.4807
23.5967
23.3533
22.9343
21.249
23.5022
23.5468
23.2897
23.6839
23.6065
23.6126
23.5968
23.5822
23.5524
23.5645
23.4695
23.219
22.874
23.5622
23.5527
23.5853
23.4166
23.2015
21.9078
23.6026
23.6573
23.4353
23.1977
22.7006
23.8125
23.5942
23.4323
23.72
23.645
23.6293
23.6527
23.724
23.6081
23.5683
23.5476
23.5627
23.5322
23.6366
23.6122
23.6173
23.511
23.4394
23.1047
23.6626
23.6323
23.5298
23.4143
23.2996
23.7598
23.6282
23.5473
23.7867
23.6988
23.7105
23.7605
23.8219
23.6235
23.5699
23.6314
23.7731
23.7383
23.6724
23.6342
23.605
23.534
23.6002
23.5436
23.8066
23.6546
23.6273
23.5547
23.5593
23.7138
23.6718
23.6407
23.8377
23.7826
23.7988
23.8399
23.8698
23.694
23.6745
23.7347
23.8442
23.8102
23.6129
23.5427
23.5881
23.5925
23.7105
23.7218
23.7189
23.6851
23.7038
23.6612
23.6993
23.7264
23.726
23.7187
23.8714
23.8646
23.8574
23.8673
23.887
23.7701
23.7825
23.8114
23.8642
23.8586
23.551
23.5273
23.6633
23.6967
23.774
23.8106
23.6707
23.748
23.7686
23.7434
23.7877
23.7675
23.779
23.7839
23.8765
23.9159
23.894
23.8648
23.875
23.8589
23.8352
23.8435
23.8554
23.8829
23.6216
23.6506
23.7313
23.7813
23.8086
23.8669
23.7112
23.7996
23.8262
23.8119
23.8547
23.8159
23.8313
23.8468
23.8902
23.9723
23.9283
23.8874
23.8952
23.9444
23.888
23.8627
23.8455
23.9082
23.8718
23.8152
23.7853
23.8182
23.8238
23.8985
23.7925
23.8105
23.8364
23.8648
23.9088
23.858
23.8716
23.8974
23.9282
24.0015
23.9535
23.9038
23.9077
23.9673
23.9111
23.8776
23.8759
23.9394
23.9246
23.8795
23.838
23.8448
23.8579
23.9281
23.828
23.837
23.854
23.8885
23.9428
23.8816
23.8901
23.9204
198.796
190.384
190.713
191.872
197.751
202.851
222.727
247.417
192.002
198.338
195.965
186.136
174.913
179.154
183.454
168.316
174.777
186.171
210.403
173.966
184.341
264.48
281.402
220.193
287.002
283.229
189.043
172.586
179.143
146.894
160.301
158.935
161.807
165.025
167.717
165.797
162.812
169.812
172.675
163.463
167.481
192.277
236.422
184.335
214.815
258.531
234.364
226.761
183.265
192.807
206.529
177.808
183.641
190.692
174.928
198.226
167.568
210.84
196.954
162.163
168.418
170.62
170.135
193.443
226.169
191.067
242.441
235.118
227.454
255.105
210.753
209.884
185.546
215.488
219.187
189.808
218.643
197.462
190.881
211.065
215.987
205.558
228.421
213.929
247.682
239.257
222.581
253.09
226.143
239.657
237.674
211.488
224.238
231.279
211.138
233.594
182.004
146.505
185.43
183.757
185.933
182.667
165.883
177.921
190.216
200.843
181.271
176.699
175
214.322
175.212
151.691
119.526
172.049
142.563
151.097
123.393
138.984
117.239
130.318
236.278
188.574
230.245
172.025
181.222
157.876
176.49
232.17
181.332
139.805
149.674
141.572
117.483
125.101
118.293
219.756
218.248
185.785
197.361
202.586
166.386
172.573
135.152
131.884
113.383
218.992
213.429
197.865
202.913
177.858
167.953
93.9081
130.248
172.277
161.642
94.3639
104.357
110.814
110.482
189.508
176.99
183.631
150.619
158.87
137.773
157.307
166.791
177.387
122.616
152.318
152.926
115.261
119.645
123.451
145.44
141.252
117.41
120.386
118.549
128.762
96.9567
44.4432
151.85
121.685
149.184
101.953
64.894
100.99
149.143
139.006
108.492
108.808
93.8252
132.432
87.0772
101.302
85.3196
104.279
102.743
113.269
71.5319
60.9357
84.4503
90.8969
134.664
122.978
133.026
85.7809
93.2856
72.1606
92.4649
137.638
99.203
101.439
103.438
102.624
86.9793
91.7009
95.9425
157.266
158.717
104.167
111.791
113.574
95.5588
82.2163
69.2014
73.5196
60.9704
160.815
149.502
111.178
112.539
108.495
76.8108
64.6279
93.9082
81.4379
98.0949
64.3048
73.9464
67.5902
77.9375
141.712
122.792
134.442
113.506
111.782
110.11
112.606
109.586
101.307
80.8313
116.861
117.161
89.3253
108.313
109.387
119.444
118.322
119.996
116.477
117.321
113.066
36.6534
34.8911
56.5372
35.5417
52.5324
34.71
30.5866
32.8853
70.2674
59.8874
38.8521
43.1849
43.1132
54.0216
38.8121
68.3112
52.7033
39.3469
62.5961
58.5135
42.689
34.6328
49.3458
38.7926
59.6048
38.2975
56.4579
36.256
39.8074
27.4172
35.7188
65.7927
40.517
70.5395
64.649
81.6198
55.1317
41.945
46.9269
68.1306
69.2921
39.5132
30.3618
29.6889
49.0885
45.6861
38.7269
38.2977
39.0698
59.5253
61.385
27.7619
26.5775
25.8652
52.8644
42.9477
55.1277
52.2075
50.2499
43.8704
42.3989
37.8121
31.2996
72.3649
93.3628
84.0252
32.8499
32.5373
54.943
45.8342
30.7434
57.6717
36.4446
85.5322
90.0341
35.3467
41.0634
49.7775
108.418
106.902
80.2336
82.9492
71.7761
69.8448
32.3351
29.1307
28.1387
28.9881
28.2207
26.0159
27.4137
26.2317
29.7832
33.1953
25.8263
25.6309
27.2601
31.0676
26.63
40.7507
31.6082
32.1337
40.1974
30.4319
29.1296
28.7473
30.3636
26.5721
29.8559
24.8111
27.6618
25.3325
25.5683
23.9455
24.7173
27.9333
24.2197
45.5069
35.1658
34.395
35.8107
30.7446
29.8616
23.3059
23.0675
23.4693
23.5874
23.8085
34.2212
35.5618
30.9662
30.6093
30.7734
22.7725
22.4493
23.3394
23.7941
23.2528
34.9689
29.6134
30.9232
29.7561
26.2495
28.2081
26.3481
27.1865
26.0368
22.5096
23.266
23.0974
22.552
22.7105
22.3963
22.6132
22.8577
27.8972
25.1948
23.464
24.1053
22.6853
22.2967
22.5183
25.8542
24.384
22.0642
21.7111
22.2137
22.1727
25.5312
23.4899
24.6335
24.9756
24.5109
23.652
23.1179
23.5342
23.6539
24.3608
23.1706
22.9649
23.1917
24.1029
23.1085
25.7002
23.8661
25.7261
25.0928
24.2545
23.7564
23.7922
23.7142
23.1377
23.2212
23.5756
23.19
22.5721
22.5873
23.5227
22.6419
23.0191
22.8071
25.9135
26.7283
26.5764
23.2675
24.5287
24.4646
23.2221
23.3337
22.7331
22.866
22.8045
27.5768
27.0272
25.8024
25.6137
25.1234
23.5062
23.0102
22.8082
22.7563
22.7956
26.5307
25.0365
25.4258
25.6527
25.5543
25.2852
24.6689
24.7635
25.0743
22.8122
23.034
22.8998
22.7675
22.7517
22.8022
22.7454
22.7827
24.7123
24.1853
23.0934
23.1837
22.8633
23.0982
23.0879
23.2628
23.2563
22.8963
22.8109
22.9365
22.771
22.9445
22.6122
22.9405
22.9257
22.9291
22.5066
22.719
22.5274
22.6035
22.7009
22.4381
22.4581
22.5076
22.7253
22.5334
23.2058
22.9148
23.0182
22.9693
22.7807
22.6569
22.6545
22.5421
22.6312
22.5258
23.5566
22.5406
22.3897
22.5206
23.1899
22.496
22.7258
22.7147
23.0795
23.6397
23.604
22.9695
23.4193
23.4736
22.6597
22.6513
22.8123
22.5718
22.5351
22.5924
22.5292
22.5909
22.4999
22.5861
22.6546
22.6765
22.6452
22.6767
24.4842
24.2976
23.7527
23.6972
23.6106
22.9453
22.6812
22.5174
22.6251
22.4471
22.6074
22.3514
22.6065
22.5895
22.6328
22.6496
22.6778
22.6479
22.696
24.2397
23.6128
24.0821
24.2863
24.5565
23.8169
23.4405
23.671
23.5521
22.7574
22.8471
22.7852
22.709
22.7519
22.7904
22.7982
22.6958
23.5909
23.0954
23.0799
23.1674
22.8646
23.1105
23.2687
22.8386
22.9544
22.9132
22.8728
23.0376
22.8436
22.387
22.2481
22.3417
22.4732
22.3627
22.268
22.2967
22.2669
22.3949
22.4446
22.3446
22.362
22.4466
22.487
22.4799
22.6891
22.4135
22.3916
22.3438
22.4968
22.3139
22.2296
22.2629
22.3513
22.5154
22.5436
22.502
22.4754
22.5194
22.43
22.538
22.6514
22.628
22.5977
22.6714
22.6779
22.6821
22.6817
22.6854
22.8453
23.1511
23.1448
22.6131
22.7605
22.6703
22.6387
22.6282
22.6598
22.6264
22.6624
22.6575
22.6454
22.6823
22.6809
22.6865
22.6778
22.6827
22.6756
22.6798
23.1584
23.0816
22.8108
22.8561
22.8384
22.6697
22.646
22.5635
22.6746
22.6441
22.664
22.6054
22.6805
22.665
22.679
22.6701
22.6809
22.6626
22.6866
23.1419
22.8702
22.5525
23.0781
22.8182
22.9607
22.2463
22.9312
22.7601
22.7364
22.7617
22.7893
22.6977
22.7525
22.7488
22.8071
22.5749
22.7756
22.6669
22.6776
22.6591
22.688
22.9125
22.8556
23.1147
23.2684
22.9089
23.0774
23.2215
22.9166
23.0542
22.9769
22.994
23.0557
22.9589
22.1664
22.128
22.2393
22.2013
22.2139
22.2282
22.135
22.1872
22.3541
22.4517
22.3442
22.3384
22.4436
22.4785
22.4796
22.2382
22.152
22.135
22.2229
22.2337
22.1187
22.0917
22.1669
22.1846
22.5212
22.5323
22.5484
22.498
22.5191
22.5821
22.5429
22.5904
22.6751
22.5184
22.6586
22.692
22.6945
22.69
22.6958
22.4111
22.4062
22.3516
22.2545
22.181
22.2088
22.6847
22.6733
22.6731
22.6305
22.6804
22.6475
22.664
22.6934
22.7015
22.6944
22.6955
22.6953
22.7025
22.6966
22.5534
22.7476
22.2545
22.2837
22.687
22.6649
22.6648
22.6619
22.6527
22.6639
22.6367
22.7195
22.6953
22.6967
22.7052
22.7129
22.7006
22.7316
22.722
22.7764
22.7083
22.4097
22.7549
22.7144
22.6891
22.5004
22.5976
22.5951
22.7521
22.7462
22.788
22.6967
22.7206
22.7334
22.7597
22.7561
22.7473
22.8333
22.7103
22.7393
22.7244
22.7744
22.6425
22.9914
23.1168
22.7305
22.8952
23.0021
23.016
23.0072
22.8814
22.979
22.9391
22.953
22.1144
22.1311
22.2639
22.1268
22.2055
22.2921
22.1698
22.2509
22.3379
22.4342
22.3854
22.3573
22.4389
22.4756
22.4667
22.0761
22
22.0604
22.0639
22.2423
22.0128
22.0419
21.9907
22.0996
22.507
22.5643
22.5137
22.4914
22.4955
22.5261
22.4945
22.4769
22.4436
22.139
22.0331
22.0937
22.0144
21.9278
21.9516
22.6785
22.5934
22.6625
22.4757
22.5622
22.509
22.5937
22.7042
22.7173
22.7065
22.6774
22.6986
22.6945
22.7045
22.1203
22.6059
21.9631
22.0174
22.4776
22.6371
22.6163
22.7873
22.4921
22.5706
22.5407
22.7542
22.7103
22.7583
22.7291
22.7167
22.7075
22.7626
22.7321
22.6024
22.3472
22.4555
22.478
22.4609
22.3452
22.3416
22.2762
22.3083
22.6637
22.698
22.7087
22.6044
22.5911
22.6515
22.6523
22.5644
22.4881
22.3793
22.7886
22.8808
22.5403
22.6859
22.7666
22.9044
22.8514
22.721
22.8177
22.7575
22.8128
22.1421
22.1423
22.2857
22.1806
22.2461
22.2632
22.1598
22.2113
22.3489
22.4346
22.3555
22.3295
22.4085
22.451
22.4262
21.978
21.999
22.046
21.9856
21.8959
22.0459
22.07
22.0119
21.9838
22.4767
22.4886
22.4715
22.4488
22.449
22.4395
22.4306
22.4237
22.4078
21.9702
21.9168
21.9113
21.9906
21.9546
21.9479
22.4062
22.4891
22.3583
22.3402
22.1776
21.9475
22.1704
21.9371
21.9082
21.8621
22.4716
22.4422
22.3453
22.146
22.3974
22.0066
21.8474
22.2317
22.0494
22.1858
21.8304
22.1764
21.9556
22.1278
22.5196
22.595
22.5877
22.4651
22.4655
22.537
22.5314
22.4596
22.2994
22.2445
22.5938
22.6633
22.4262
22.5177
22.5766
22.7282
22.6593
22.5456
22.6464
22.576
22.6463
22.1611
22.1798
22.2435
22.1702
22.199
22.2457
22.2033
22.2183
22.3177
22.3675
22.291
22.2998
22.3146
22.3902
22.3447
22.0314
22.0643
22.0851
22.0388
22.0677
22.1058
22.1265
22.0669
22.107
22.4062
22.38
22.3845
22.3521
22.355
22.3193
22.3363
22.3759
22.3459
22.0237
21.9877
21.9846
22.0543
22.0139
22.0224
22.3354
22.3236
22.3387
22.3255
22.335
21.9313
21.8643
22.0242
22.0099
21.941
22.2985
22.3755
22.3435
22.3355
22.3637
21.8774
21.9596
22.1935
22.0023
22.1295
21.9674
22.2124
22.0684
22.1551
22.4277
22.4818
22.4819
22.3697
22.4021
22.4351
22.4428
22.402
22.2428
22.2591
22.4492
22.502
22.3751
22.396
22.441
22.5726
22.5036
22.4247
22.5045
22.4444
22.5016
22.1993
22.2059
22.2374
22.2122
22.2211
22.1996
22.1938
22.19
22.27
22.2583
22.2194
22.2296
22.2007
22.2966
22.2472
22.0977
22.132
22.1722
22.1005
22.1323
22.1625
22.1842
22.1323
22.1521
22.3025
22.2646
22.3001
22.2477
22.2648
22.2258
22.2766
22.3148
22.2958
22.0752
22.0313
22.0438
22.0929
22.04
22.0395
22.3109
22.3176
22.3023
22.3023
22.3075
22.0866
22.0123
22.0695
22.1033
22.0549
22.3274
22.3464
22.3209
22.3169
22.3272
22.0291
22.0591
22.224
22.1239
22.1832
22.0944
22.2295
22.1542
22.1986
22.3781
22.3937
22.4081
22.316
22.352
22.3609
22.3763
22.3525
22.2732
22.2781
22.36
22.3965
22.3504
22.3368
22.3674
22.4468
22.3974
22.3518
22.4042
22.3634
22.4017
22.2047
22.2056
22.1493
22.1661
22.139
22.13
22.1555
22.114
22.1562
22.1623
22.1393
22.1055
22.147
22.2111
22.1948
22.1625
22.1909
22.18
22.1614
22.1672
22.1868
22.1632
22.1855
22.1833
22.2486
22.2088
22.267
22.2074
22.2428
22.2073
22.2649
22.2816
22.2744
22.1085
22.0679
22.0523
22.1333
22.1154
22.092
22.2987
22.2989
22.2843
22.2932
22.2915
22.1095
22.0797
22.1187
22.1284
22.1077
22.3055
22.3028
22.2924
22.293
22.2762
22.0873
22.1437
22.232
22.1759
22.2109
22.1606
22.2354
22.1985
22.2238
22.3171
22.3322
22.3455
22.2727
22.2812
22.3105
22.317
22.2863
22.2805
22.2815
22.319
22.3453
22.3251
22.3052
22.3279
22.373
22.3376
22.3112
22.3506
22.3172
22.3398
22.2116
22.2179
22.1511
22.1676
22.1252
22.1942
22.1946
22.1586
22.1254
22.1777
22.2355
22.1759
22.232
22.2101
22.2412
22.2156
22.2346
22.1427
22.2024
22.1973
22.1796
22.1291
22.213
22.2073
22.2497
22.2163
22.2661
22.2374
22.2631
22.2305
22.2715
22.2748
22.2774
22.1635
22.1704
22.1401
22.1943
22.2206
22.1853
22.2878
22.2849
22.2831
22.2827
22.2809
22.16
22.1474
22.2001
22.1987
22.1928
22.2802
22.2525
22.2636
22.2732
22.244
22.2052
22.2533
22.2457
22.2202
22.2373
22.2303
22.2615
22.24
22.2504
22.2535
22.2936
22.297
22.2494
22.2347
22.286
22.2831
22.2456
22.2839
22.287
22.2936
22.3121
22.3061
22.2849
22.3006
22.3345
22.3024
22.2935
22.3239
22.294
22.3114
22.2223
22.2265
22.2375
22.2235
22.1987
22.267
22.2441
22.2324
22.2275
22.2812
22.3161
22.2682
22.3076
22.2764
22.2968
22.2486
22.2601
22.122
22.2193
22.2136
22.1873
22.125
22.2249
22.2187
22.2799
22.2464
22.2778
22.2854
22.2913
22.265
22.2837
22.2846
22.2896
22.2231
22.2603
22.2239
22.2468
22.2879
22.2536
22.2824
22.2834
22.2954
22.2834
22.2886
22.2356
22.2358
22.2686
22.2634
22.2697
22.2777
22.2494
22.2749
22.2889
22.2611
22.2829
22.3005
22.2782
22.2544
22.2625
22.2591
22.284
22.2626
22.2673
22.2379
22.2864
22.2845
22.2529
22.2552
22.2935
22.2945
22.2668
22.2898
22.2888
22.2808
22.2933
22.2959
22.2794
22.2901
22.3184
22.2909
22.2921
22.3146
22.2908
22.31
22.2298
22.2321
22.2808
22.2525
22.2523
22.2749
22.2555
22.2557
22.2856
22.3098
22.3152
22.2839
22.3001
22.3061
22.3051
22.2723
22.2861
22.1421
22.2332
22.2283
22.2098
22.1627
22.2455
22.2422
22.2966
22.2783
22.2877
22.2922
22.2971
22.2875
22.2907
22.2972
22.3016
22.2648
22.306
22.2754
22.2793
22.3176
22.2915
22.2884
22.2976
22.31
22.2979
22.3087
22.28
22.2946
22.2999
22.2905
22.3098
22.3065
22.2769
22.3134
22.3237
22.2936
22.3098
22.3134
22.2873
22.2685
22.2693
22.2701
22.2845
22.275
22.2716
22.278
22.3001
22.307
22.2838
22.3014
22.3075
22.3196
22.3166
22.2857
22.2814
22.2791
22.2874
22.2868
22.2801
22.2857
22.3153
22.2923
22.2959
22.3171
22.2949
22.3191
22.237
22.2473
22.2661
22.2568
22.2522
22.2631
22.2592
22.2533
22.2715
22.2904
22.2835
22.2585
22.2823
22.3028
22.2999
22.2981
22.3064
22.1828
22.2592
22.2574
22.251
22.2094
22.2702
22.2753
22.2978
22.2945
22.2938
22.2943
22.2991
22.2995
22.2974
22.308
22.3115
22.2921
22.326
22.3046
22.3024
22.3317
22.3149
22.3083
22.3199
22.3226
22.3193
22.3301
22.3009
22.3208
22.3179
22.3102
22.3258
22.3419
22.3114
22.3523
22.357
22.3308
22.3138
22.3134
22.2823
22.2815
22.2724
22.2785
22.2774
22.2875
22.2725
22.328
22.3132
22.3326
22.3086
22.3543
22.3169
22.3456
22.3636
22.2797
22.2794
22.2824
22.2856
22.2813
22.2867
22.2885
22.319
22.2981
22.3019
22.3236
22.3019
22.3295
22.2634
22.2822
22.2689
22.2718
22.2633
22.2828
22.2886
22.2793
22.2526
22.2769
22.2881
22.2625
22.2778
22.2997
22.3026
22.3133
22.3227
22.2464
22.2791
22.2868
22.2944
22.2823
22.2904
22.2965
22.3021
22.3026
22.3017
22.3006
22.306
22.3054
22.3074
22.317
22.32
22.3093
22.3343
22.322
22.3139
22.3348
22.3255
22.3285
22.3392
22.3315
22.3356
22.3447
22.317
22.3258
22.326
22.3222
22.3226
22.3694
22.3461
22.3765
22.376
22.3588
22.3132
22.3133
22.2819
22.2913
22.2743
22.2971
22.2828
22.2948
22.2764
22.3724
22.3194
22.3558
22.3223
22.3777
22.3223
22.3605
22.3792
22.2833
22.2909
22.2902
22.2912
22.2732
22.2952
22.2936
22.3255
22.3052
22.3058
22.3277
22.3074
22.3357
22.3011
22.3155
22.3001
22.3056
22.299
22.3145
22.3185
22.313
22.2911
22.2852
22.3341
22.3249
22.2951
22.3093
22.3167
22.3351
22.3478
22.3094
22.3065
22.3077
22.3235
22.3224
22.3228
22.3191
22.3106
22.3086
22.313
22.3121
22.3141
22.3089
22.3175
22.3242
22.3261
22.319
22.3357
22.3278
22.3252
22.3383
22.3311
22.3404
22.3488
22.3354
22.3434
22.3501
22.3278
22.3192
22.3304
22.3305
22.3181
22.3786
22.367
22.3816
22.3786
22.3726
22.3151
22.3185
22.29
22.2989
22.2836
22.31
22.2944
22.3049
22.2947
22.3782
22.3253
22.3627
22.3313
22.3762
22.3299
22.3635
22.3804
22.3052
22.3192
22.2989
22.2948
22.2671
22.3026
22.2963
22.3287
22.308
22.3047
22.3273
22.3079
22.3394
22.3275
22.3394
22.32
22.3258
22.3144
22.3206
22.3275
22.3096
22.3448
22.3047
22.3444
22.3435
22.3126
22.3225
22.3265
22.3591
22.3659
22.3312
22.3355
22.3271
22.3522
22.3431
22.3462
22.3312
22.3163
22.3064
22.3195
22.3183
22.318
22.3038
22.3208
22.328
22.3286
22.3314
22.3426
22.3367
22.3359
22.3472
22.3431
22.3455
22.351
22.3374
22.3458
22.3501
22.3329
22.3224
22.3354
22.3359
22.3336
22.377
22.3762
22.3782
22.3744
22.3773
22.3222
22.3329
22.3027
22.3119
22.3033
22.3246
22.3142
22.3206
22.3158
22.3743
22.3352
22.3635
22.346
22.3721
22.3411
22.3628
22.3785
22.3316
22.3496
22.3071
22.2976
22.2616
22.3126
22.3005
22.3283
22.308
22.3035
22.3292
22.3092
22.3445
22.3493
22.3639
22.3231
22.3252