/*--------------------------------*- C++ -*----------------------------------*\
| =========                 |                                                 |
| \\      /  F ield         | OpenFOAM: The Open Source CFD Toolbox           |
|  \\    /   O peration     | Version:  5.x                                   |
|   \\  /    A nd           | Web:      www.OpenFOAM.org                      |
|    \\/     M anipulation  |                                                 |
\*---------------------------------------------------------------------------*/
FoamFile
{
    version     2.0;
    format      ascii;
    class       surfaceScalarField;
    location    "4";
    object      phi;
}
// * * * * * * * * * * * * * * * * * * * * * * * * * * * * * * * * * * * * * //

dimensions      [0 3 -1 0 0 0 0];

internalField   nonuniform List<scalar> 
29271
(
-6.11525e-06
3.46326e-06
-3.92066e-07
3.04431e-06
-6.64283e-06
-9.69622e-07
3.72658e-06
4.05891e-06
-3.5882e-05
-1.10677e-05
5.12715e-07
-4.0982e-06
2.88978e-05
2.16374e-05
-3.10986e-05
-1.44492e-05
6.56747e-06
-1.09247e-05
2.19648e-05
2.79402e-05
-1.634e-05
5.14008e-07
-3.49239e-06
3.93828e-06
7.89299e-06
7.4871e-06
-4.84352e-05
-1.49257e-05
-1.24768e-05
-2.55368e-06
1.77281e-07
7.82141e-05
-4.20476e-05
-2.42484e-05
2.58155e-05
-1.87993e-05
9.30502e-06
4.99748e-05
-3.58034e-05
-2.64347e-05
8.71103e-06
-1.69021e-05
1.86721e-05
5.17571e-05
-3.51105e-05
-6.12159e-06
2.38576e-05
-1.395e-05
3.38043e-06
2.7944e-05
-1.4604e-05
-1.11091e-06
1.29166e-06
8.69482e-06
5.95227e-06
-5.92614e-06
2.27235e-06
9.27514e-07
2.85292e-06
-3.88621e-05
-5.43883e-06
1.45017e-05
5.31143e-06
-3.4149e-06
2.79027e-05
-1.94546e-05
-2.17888e-07
1.94898e-06
3.37551e-06
4.13997e-07
1.3934e-05
-4.54138e-05
-1.45288e-05
7.13843e-06
-2.6777e-05
8.26676e-06
7.13144e-05
-2.31176e-05
-7.82982e-07
2.01429e-05
-1.51634e-05
4.10878e-06
1.48122e-05
-3.18735e-05
-9.13359e-07
1.46733e-08
3.27241e-06
1.73314e-05
1.21683e-05
-2.45132e-05
-7.56415e-07
5.24967e-06
-3.05588e-06
2.0166e-05
2.90978e-06
-3.84464e-05
-2.92637e-06
-2.31777e-06
-3.90408e-06
-4.97128e-06
5.25659e-05
-2.961e-05
3.29147e-06
2.82113e-06
-5.9567e-06
1.86381e-08
2.94355e-05
-3.46966e-05
-1.143e-05
-5.66039e-06
3.92867e-05
4.81774e-06
7.68247e-06
-7.27459e-06
-7.33365e-07
4.28581e-06
3.90005e-06
-1.6373e-05
-5.96244e-07
1.55903e-06
7.00301e-06
8.63621e-06
-3.22397e-05
-2.03365e-06
-2.27537e-06
-5.93304e-06
3.87088e-05
3.77296e-06
-8.49589e-06
-8.68221e-08
3.11099e-06
5.65096e-06
-1.88868e-06
2.5645e-07
-8.81251e-09
1.67635e-06
-4.41025e-06
-1.54827e-06
-2.38577e-06
7.82753e-06
4.98755e-07
3.18324e-06
-1.23568e-05
-6.06015e-06
4.68849e-06
1.00465e-05
1.68292e-07
-2.079e-05
1.36554e-06
2.02579e-06
1.1271e-06
1.61032e-05
-5.39054e-06
-2.29995e-07
-6.62258e-07
7.52643e-07
5.29541e-06
2.34744e-07
-2.37301e-06
2.5331e-06
-8.95825e-05
-7.61773e-06
1.28087e-05
8.42315e-05
-2.68591e-05
1.75724e-05
8.22893e-05
-4.40991e-05
-2.13819e-05
-2.78956e-05
-3.39484e-05
-1.61426e-05
-5.20878e-06
-3.05035e-06
-2.31702e-06
1.94565e-05
1.93709e-05
1.99085e-05
2.23052e-05
-8.91117e-07
3.13774e-05
0.000158186
-5.412e-05
-5.01275e-05
-7.12159e-05
-4.27047e-05
-2.53966e-06
1.35234e-07
7.03553e-07
4.33764e-06
-2.50733e-06
-5.44023e-06
9.9324e-05
-4.33035e-07
-3.50882e-07
1.13501e-06
3.32778e-08
-2.96945e-06
-1.57577e-06
-1.76195e-06
-2.85122e-05
-1.05657e-05
-2.95214e-05
-1.77456e-05
-7.42111e-06
3.62e-07
-2.02379e-06
6.64065e-06
-1.7497e-06
-3.3449e-07
5.22815e-07
1.55465e-06
-1.98687e-06
-2.74257e-05
-8.86349e-06
-3.25626e-06
2.37246e-06
3.91598e-05
-6.03291e-05
-2.67023e-05
0.000232433
-1.7936e-05
-7.19347e-05
-1.96398e-05
-4.45703e-05
4.03419e-06
5.47591e-06
9.21573e-06
7.52595e-06
-2.64434e-05
3.25083e-05
0.00023321
-8.18632e-05
-3.7933e-05
-7.2734e-05
-7.5696e-05
-1.74573e-06
-1.2323e-06
4.79321e-05
-1.69141e-06
-9.16452e-07
-6.00889e-07
-5.51492e-07
-3.00903e-07
-4.35405e-07
-1.08077e-05
-1.27688e-05
-3.82616e-05
-1.05029e-05
-9.05094e-06
6.46994e-08
-1.30981e-06
1.67932e-06
6.87099e-06
-2.73358e-05
5.02995e-06
-1.84559e-05
-2.80834e-06
4.77744e-05
-4.2043e-06
-7.57789e-05
-1.85187e-06
0.000230806
1.77508e-05
8.36723e-06
2.12804e-05
8.64076e-06
-4.2264e-06
-1.59461e-06
-2.71162e-06
-6.41958e-05
-2.91539e-05
-5.60816e-05
-7.79529e-05
-1.26215e-05
-6.40389e-06
0.00015462
-8.52241e-06
-5.38125e-06
-4.87517e-06
-1.7846e-06
8.65728e-07
5.34255e-07
-3.45385e-05
-2.74431e-05
-5.82921e-05
-3.94278e-05
-2.75023e-05
-2.21053e-06
4.78137e-06
1.10777e-05
-2.93164e-06
-8.43606e-07
4.434e-07
3.28418e-06
-3.03584e-07
9.89118e-07
-4.16847e-06
1.59965e-06
-3.90584e-05
4.32681e-06
-3.0538e-06
6.71344e-07
3.07102e-05
-3.17176e-06
-2.65337e-06
1.87174e-06
3.9114e-06
-1.42014e-06
6.28211e-07
-2.48823e-07
1.06041e-06
-1.15855e-05
7.80099e-06
-6.99199e-06
1.06473e-05
2.9847e-06
2.63361e-06
-1.03398e-05
-2.7297e-06
-2.71825e-06
1.01694e-05
1.2797e-06
-1.23884e-05
5.17696e-07
3.09756e-06
-6.69604e-07
8.16305e-06
-5.67282e-06
-7.36474e-07
-5.68941e-07
2.60583e-06
6.4402e-06
-2.06779e-06
1.08841e-05
6.98272e-06
-7.62326e-05
-1.66674e-05
-2.32866e-07
7.5266e-05
-2.00412e-06
-2.31827e-06
7.39965e-05
1.1061e-06
2.04456e-07
2.98192e-06
1.06735e-06
5.31005e-06
2.99671e-06
1.10691e-06
-2.15834e-06
1.08212e-05
-8.92594e-06
0.000137052
1.84462e-06
4.49515e-06
2.49246e-06
8.40243e-06
-9.40501e-07
-2.45079e-06
0.000107013
4.34496e-07
7.55628e-08
4.84154e-06
9.22518e-08
-1.92299e-07
3.15908e-07
9.5563e-07
-5.48775e-06
-7.26536e-08
4.94879e-07
4.19435e-06
-2.97834e-06
-1.64662e-06
-2.42165e-06
6.78128e-06
1.51343e-05
-6.6788e-05
-3.37826e-05
-1.10543e-05
1.9584e-05
7.69065e-05
-2.90618e-05
-1.4315e-05
0.000262164
-3.44161e-07
2.6836e-06
2.25667e-06
6.73117e-06
5.12198e-06
-1.09488e-05
0.000201049
4.166e-07
-9.36345e-07
4.81331e-05
4.2527e-07
1.57761e-06
1.81182e-06
-6.80164e-07
5.37562e-08
-1.98369e-07
-6.52896e-06
-5.53323e-07
3.88228e-08
2.08156e-07
7.2519e-06
-6.33125e-05
6.33579e-06
-1.23125e-05
8.46815e-07
7.27831e-05
-4.34072e-06
-1.88327e-05
-2.02489e-07
0.00019609
1.41497e-05
4.09203e-06
1.33262e-05
7.13974e-06
-5.95154e-07
8.42474e-07
4.81578e-07
7.37019e-07
-7.64575e-07
0.000122105
1.11608e-06
2.05153e-06
1.28406e-06
-1.46267e-06
3.5174e-08
-2.63848e-07
-4.8197e-06
4.71688e-07
-1.43122e-06
5.57991e-06
-3.44031e-06
3.70252e-07
-5.74896e-07
3.60659e-06
-2.37128e-06
7.46628e-07
-2.29571e-06
3.65846e-06
-2.25579e-05
3.71954e-06
5.41645e-07
2.18743e-06
1.53447e-05
-5.34258e-06
2.34442e-06
-2.31466e-06
5.34154e-06
-1.24383e-06
3.81822e-07
-1.70626e-06
2.4755e-06
-7.4037e-06
7.18706e-06
-5.49466e-06
5.70246e-06
2.89554e-06
-7.29471e-06
-1.52824e-05
-1.05562e-07
-2.11837e-06
2.19055e-05
1.68361e-06
-5.75342e-06
5.78196e-07
-7.10556e-08
-1.07692e-06
4.63959e-06
-9.09992e-06
-2.86108e-06
9.20963e-07
5.89306e-06
7.43536e-06
-2.28838e-06
1.05889e-05
4.49487e-06
-7.95902e-05
-5.88899e-06
-4.24112e-06
7.46364e-05
2.49832e-06
-2.19554e-06
6.02803e-05
3.75878e-06
1.99469e-06
6.66311e-06
2.73471e-06
-6.5889e-07
-6.91706e-07
-1.22016e-06
8.32909e-07
8.49837e-06
-2.79553e-06
0.000124988
1.76382e-06
1.78627e-06
2.5088e-06
2.80028e-06
1.97579e-06
7.09392e-06
0.000106068
-3.13878e-06
-1.60651e-06
-3.0579e-06
-1.82332e-06
3.70602e-06
2.74499e-06
3.5496e-06
-3.295e-06
-1.25466e-06
3.65257e-06
2.81384e-06
-1.37619e-05
-1.32575e-06
-3.73167e-07
1.54223e-05
6.03428e-06
-6.55717e-05
-6.00726e-06
-2.52416e-06
6.45196e-06
6.16168e-05
8.57061e-06
2.66694e-05
0.00020246
1.68721e-06
4.63572e-06
7.91875e-06
8.02707e-06
1.87571e-05
8.27524e-06
0.000179791
2.51788e-06
5.91704e-08
6.31525e-05
3.39539e-06
-1.53798e-06
1.38246e-06
3.94491e-07
2.49062e-06
2.12959e-06
-8.77601e-06
-2.22287e-06
1.77676e-06
1.78236e-06
9.95762e-06
-7.7271e-05
8.63908e-07
-3.2859e-06
7.81012e-06
7.55901e-05
-3.70725e-06
-2.32315e-06
2.08074e-06
0.000217254
4.36305e-06
-2.29128e-06
1.38861e-06
-5.8485e-06
2.03564e-06
2.3541e-06
3.74586e-06
7.05536e-07
1.37085e-06
0.000118423
6.12486e-07
1.9824e-06
9.60752e-07
1.09982e-06
1.24755e-06
1.65469e-06
-8.86641e-06
3.67935e-08
-1.02568e-06
1.062e-05
-3.39386e-06
-8.54782e-08
-2.4473e-07
3.74746e-06
-5.20416e-06
-1.54483e-06
8.07681e-07
8.05217e-06
-1.25679e-05
7.3993e-07
-5.0949e-07
4.04001e-07
1.33043e-05
-4.65286e-06
3.42213e-07
-3.50054e-08
4.41659e-06
-2.5177e-06
-1.24811e-06
3.30282e-06
4.60095e-07
-3.63844e-06
1.39774e-06
1.20668e-07
2.12227e-06
-3.30541e-06
-7.17442e-06
-3.00517e-05
5.41602e-06
1.77878e-06
3.33367e-05
-3.65321e-06
-5.66673e-06
-2.06221e-06
3.43363e-08
7.61928e-07
1.05859e-05
-4.57999e-06
-1.2419e-06
8.86117e-07
2.95942e-06
1.53329e-06
4.43066e-07
2.36014e-06
-8.15353e-07
-6.49007e-05
5.93693e-06
2.41406e-07
5.71776e-05
6.13461e-06
-9.45906e-07
6.17486e-05
2.12897e-06
1.34934e-07
5.71937e-07
4.20182e-07
-2.61943e-06
-3.88026e-07
-4.15237e-06
-2.75318e-06
3.9056e-06
1.6017e-06
0.000126225
3.00388e-09
-9.70464e-07
1.07754e-07
2.49967e-07
1.86639e-06
8.31517e-06
0.000110835
-6.08223e-06
-1.50972e-06
-4.4431e-06
-1.09373e-06
2.89886e-07
1.9025e-06
-1.06581e-07
-4.01595e-06
-8.69393e-07
7.3827e-07
5.99249e-06
-1.43164e-05
2.73702e-07
6.64628e-07
1.33654e-05
2.32391e-06
-6.79992e-05
-1.96494e-06
-3.0018e-06
6.57418e-06
6.40678e-05
1.50315e-05
3.40087e-05
0.000139533
1.30576e-06
4.25941e-06
1.42068e-06
5.95529e-06
2.32041e-05
9.28708e-06
0.000163933
-2.00761e-06
1.18165e-06
9.24669e-05
1.9623e-06
-6.49938e-07
1.94147e-06
2.6703e-07
4.02211e-07
-8.92232e-07
-8.74483e-06
-1.2683e-06
-4.17717e-06
3.03959e-06
9.1431e-06
-7.59198e-05
-3.39867e-06
3.24728e-06
4.72846e-06
7.70537e-05
-5.71091e-06
1.26764e-05
5.43795e-06
0.000242257
-5.30768e-06
-9.61885e-06
-4.18293e-06
-9.22708e-06
6.46853e-06
5.63936e-06
7.1204e-06
6.35692e-07
-1.37101e-06
0.000159188
-1.87073e-06
-1.36199e-06
-3.96181e-06
-2.74343e-06
-2.48196e-06
-5.64639e-06
-1.16994e-05
-1.99101e-07
3.99976e-07
1.33159e-05
-5.43146e-06
-3.7807e-06
1.25388e-06
7.95828e-06
-8.72355e-06
-5.48591e-06
7.8119e-06
1.18333e-05
-1.91075e-05
-2.49448e-06
1.61058e-06
-2.28413e-06
2.09045e-05
-5.11083e-06
6.86504e-07
2.86362e-07
4.13797e-06
3.39958e-07
-9.49661e-07
7.20446e-07
-1.10096e-07
-3.20558e-07
2.80491e-07
7.97782e-07
-7.6193e-07
-3.80191e-06
-5.31768e-06
-3.68824e-05
5.04091e-06
2.08787e-06
3.88732e-05
-1.506e-06
-1.48152e-05
-2.31902e-06
9.92174e-07
-7.88379e-07
1.84365e-05
3.96829e-07
4.93412e-07
9.46679e-07
-6.71083e-07
4.24518e-07
-1.59036e-06
4.89939e-07
-2.89699e-06
-5.46809e-05
7.34386e-06
-2.44478e-06
5.21889e-05
1.98887e-06
9.02116e-06
8.06583e-05
-1.84701e-06
-1.90882e-06
-2.08893e-06
-1.43658e-06
-5.61064e-06
-4.84514e-06
-6.36274e-06
-5.81984e-06
4.992e-06
7.72577e-06
0.000113641
2.03153e-07
-7.02763e-07
1.43068e-06
9.24047e-07
2.23802e-06
8.47859e-06
0.000104667
-3.56257e-06
-4.09778e-07
-1.22486e-06
-2.89531e-08
-6.18996e-08
3.855e-06
1.87691e-06
-8.05141e-06
-4.99345e-07
4.76698e-07
-8.92625e-07
1.12047e-05
1.10405e-07
-9.4035e-09
3.08049e-08
-1.3968e-07
-1.15582e-05
2.45187e-06
-5.24091e-07
9.61564e-06
-3.3922e-06
-5.7103e-05
1.3569e-06
3.48199e-06
2.08703e-06
5.35693e-05
3.24078e-07
1.66163e-05
0.00013559
-1.49468e-06
6.78657e-07
-3.50556e-06
3.44571e-07
1.02745e-05
8.71356e-06
0.000152995
-1.33774e-06
2.45051e-09
0.000102275
2.10869e-06
1.13354e-06
3.43814e-06
1.93774e-07
2.12858e-06
1.27752e-06
-9.57889e-06
-1.97538e-07
-2.98911e-06
3.21601e-06
8.21179e-06
-4.25541e-10
2.13172e-07
-1.43788e-08
-1.85172e-08
-1.89143e-07
-7.64013e-05
-1.05868e-06
3.96846e-06
5.21726e-06
7.33701e-05
-5.09581e-06
2.06892e-05
6.77198e-06
0.000235651
-7.74708e-06
-8.38996e-06
-5.33204e-06
-6.21592e-06
6.91242e-06
8.58872e-06
7.94456e-06
1.33649e-07
-1.4016e-07
0.000180787
-4.22553e-08
3.26465e-06
3.64178e-06
-2.87317e-06
2.83117e-06
9.88185e-07
-1.41667e-05
-5.45903e-07
-1.72761e-06
1.65763e-05
-1.10501e-05
-1.60455e-06
3.69772e-07
1.22848e-05
-1.494e-05
-5.4637e-06
8.25186e-06
1.89195e-05
-2.04362e-05
-5.61289e-06
6.61869e-06
-3.91259e-06
2.32028e-05
-3.61026e-06
4.22311e-06
-3.48637e-06
2.87352e-06
8.25957e-08
-6.02011e-08
-3.28497e-08
9.28351e-09
9.16474e-07
-1.77676e-07
3.13611e-08
-7.70969e-07
-3.25629e-06
-3.16198e-06
-3.86343e-05
5.01436e-06
2.38085e-06
3.76573e-05
9.13071e-07
-2.25111e-05
-2.27896e-06
9.45961e-07
-2.29398e-06
2.5225e-05
-2.56735e-06
7.67726e-07
1.15342e-06
-1.52051e-06
3.60323e-06
-1.43651e-06
2.48723e-06
-2.90962e-06
-4.7089e-05
7.74716e-06
-1.28336e-06
4.10475e-05
6.01094e-06
3.09869e-06
0.000102206
-1.84032e-06
-1.8081e-06
-1.31162e-06
-4.3025e-07
-6.95211e-06
-6.40338e-06
-6.78972e-06
-5.12224e-06
5.94943e-06
5.46175e-06
0.000105752
5.93382e-07
1.39956e-07
1.08212e-06
6.73044e-07
3.55692e-06
7.13532e-06
9.31047e-05
-7.5304e-07
2.65941e-07
2.21667e-07
5.17064e-07
1.6826e-06
3.01949e-06
1.86535e-06
-1.48374e-05
-6.85417e-08
4.65525e-06
1.57414e-06
1.22334e-05
4.37077e-07
7.0219e-07
-1.62957e-06
5.76876e-07
-5.43907e-07
4.57331e-07
-7.0789e-06
1.09217e-06
1.73121e-06
4.24848e-06
-5.64951e-06
-5.21539e-05
9.42577e-07
4.89817e-06
7.00117e-07
5.12626e-05
-1.63969e-06
1.34164e-05
0.000133638
-4.05059e-06
-8.3099e-07
-2.28839e-06
4.44519e-07
9.25622e-06
8.21353e-06
0.000139348
9.02966e-07
1.29937e-06
0.000100401
4.19071e-06
1.55307e-06
4.43301e-06
1.40439e-06
3.0033e-06
1.47858e-06
-9.82948e-06
-7.86028e-07
-4.44908e-07
7.24388e-07
1.1239e-05
7.11096e-07
1.14099e-06
-1.56118e-07
1.71727e-07
-1.58016e-06
-2.87532e-07
-6.93128e-05
-7.75037e-07
3.81693e-06
4.17163e-06
6.41958e-05
-2.09648e-06
2.29247e-05
6.69122e-06
0.000218444
-5.11125e-06
-4.97171e-06
-3.97603e-06
-4.72323e-06
6.24534e-06
7.01562e-06
6.52842e-06
2.81862e-06
2.13543e-06
0.000186103
4.38784e-06
4.40931e-06
5.21907e-06
1.25564e-06
2.79825e-06
2.79805e-06
-2.05221e-05
2.10889e-06
-4.59656e-07
2.29909e-05
-1.10065e-05
-4.88817e-06
-1.4872e-06
3.26814e-06
1.41138e-05
6.30501e-07
-2.53388e-07
-5.05724e-07
1.2861e-07
-2.35326e-05
-4.56356e-06
8.75805e-06
2.60297e-05
-2.89561e-05
-7.31912e-06
8.84598e-06
-3.04236e-06
3.2607e-05
-3.77139e-06
4.25507e-06
-6.19576e-06
5.71208e-06
-6.44496e-07
8.01585e-07
-1.59725e-06
1.4398e-06
4.45353e-07
-4.0265e-08
-4.36213e-07
3.23052e-08
-2.09804e-06
-2.50083e-06
-3.709e-05
3.65887e-06
1.19299e-06
3.6837e-05
1.66852e-06
-2.75629e-05
-2.2013e-06
3.85552e-07
-2.10305e-06
2.98132e-05
-4.66218e-06
1.85694e-06
-1.66594e-06
-1.39863e-06
5.2858e-06
5.84014e-07
2.71755e-06
-1.75826e-06
-3.4943e-05
6.11183e-06
-1.48105e-06
2.93529e-05
7.12804e-06
4.98529e-06
0.000113881
-1.4739e-06
-1.45671e-06
-7.61478e-07
5.74855e-07
-6.28337e-06
-5.15606e-06
-5.83528e-06
-3.39566e-06
2.99141e-06
2.61317e-06
0.000106052
2.41802e-07
-3.9829e-07
1.1965e-06
1.84175e-07
2.52082e-06
8.5947e-06
8.18291e-05
-7.14494e-07
2.7262e-08
2.6639e-07
7.13736e-08
1.34394e-06
1.18527e-06
9.71755e-07
-1.21102e-05
-5.91219e-08
1.44114e-06
1.99572e-06
1.12533e-05
-1.63938e-06
6.24525e-07
4.38075e-08
-1.07906e-07
-1.19914e-06
2.27809e-06
-2.76273e-06
2.13906e-07
1.88228e-07
2.36718e-06
-4.38125e-06
-5.1239e-05
1.46459e-06
4.46739e-06
-3.19319e-07
5.00076e-05
-2.49508e-06
1.29395e-05
0.000132584
-2.7303e-06
-8.70875e-07
-1.11597e-06
3.11682e-07
7.82071e-06
4.82783e-06
0.000126817
7.44666e-07
1.24348e-06
0.000103651
3.86563e-06
8.95923e-07
3.32201e-06
3.84648e-07
2.53074e-06
1.78488e-07
-1.27969e-05
-1.71643e-06
6.67229e-07
7.993e-07
1.37914e-05
-8.29401e-07
1.91267e-06
-7.04548e-07
5.1816e-08
-2.26827e-06
1.83773e-06
-5.91737e-05
-2.24887e-06
4.50503e-06
2.98353e-06
5.52981e-05
-1.36407e-06
2.24759e-05
5.83712e-06
0.000205042
-5.49044e-06
-4.68312e-06
-4.04969e-06
-4.40169e-06
5.16902e-06
6.17304e-06
5.31198e-06
2.94192e-06
1.49361e-06
0.00018982
4.99129e-06
3.65622e-06
5.11184e-06
1.59627e-06
1.9348e-06
1.86076e-06
-2.69518e-05
2.47305e-06
-1.72549e-07
2.88366e-05
-1.50662e-05
-4.90677e-07
-2.30883e-06
2.99073e-06
1.48749e-05
-8.64867e-07
1.47593e-06
-3.16804e-06
1.17798e-06
1.37901e-06
-2.84244e-05
-3.0841e-06
7.08496e-06
3.02607e-05
-3.69493e-05
-6.75758e-06
8.18404e-06
-2.61402e-06
3.96305e-05
-8.82136e-06
4.01017e-06
-6.36798e-06
1.11792e-05
-2.39474e-06
2.22379e-06
-3.22756e-06
3.39851e-06
-6.1756e-07
-6.30658e-07
2.89979e-08
1.22031e-06
-1.91796e-07
-1.5469e-06
-3.65089e-05
2.41616e-06
-1.71006e-06
3.75415e-05
2.23111e-06
-3.24742e-05
-1.84658e-06
1.31104e-07
-1.97665e-06
3.39352e-05
-5.92833e-06
3.07617e-06
-2.5843e-06
-2.15482e-06
6.38989e-06
1.20139e-06
9.3761e-07
-1.53456e-07
-2.47268e-05
2.71547e-06
-5.98359e-07
2.18255e-05
2.25037e-06
6.58007e-06
0.000117643
1.51216e-07
-6.33708e-07
7.94967e-08
3.33992e-07
-4.61919e-06
-3.17189e-06
-2.87828e-06
-1.8541e-06
-5.7765e-06
4.01456e-06
0.000111753
-1.68401e-07
-1.43249e-06
7.15632e-07
-8.04265e-07
-1.68863e-06
7.21169e-06
7.63111e-05
1.70136e-08
3.48911e-07
6.6401e-07
5.0086e-07
-5.86489e-07
-4.19942e-06
-2.52642e-06
-1.38781e-05
3.59458e-06
-2.66677e-06
-3.07502e-07
1.15691e-05
-2.00563e-06
2.35764e-06
-7.12155e-07
-6.80499e-07
1.04064e-06
-1.90026e-06
1.15689e-07
-1.62721e-07
1.95006e-06
-2.92955e-06
-4.89391e-05
1.91676e-06
2.90142e-06
-1.3203e-06
4.83707e-05
-3.5136e-06
1.10383e-05
0.000134792
-1.94254e-06
-1.31362e-06
8.49084e-08
1.86908e-08
2.06076e-06
3.30566e-06
0.000121952
-5.90895e-07
9.08039e-07
0.000112796
1.75988e-06
-1.16639e-06
-7.79731e-07
-5.33255e-07
2.00808e-06
-1.47867e-06
-1.55742e-05
-1.44827e-06
-5.9261e-07
6.20201e-07
1.6404e-05
-2.631e-06
1.70074e-06
2.50151e-07
3.13638e-08
-1.99549e-06
2.64424e-06
-5.1728e-05
-3.21573e-06
4.55031e-06
3.54778e-06
4.80043e-05
-1.15874e-06
2.00726e-05
5.24926e-06
0.000194425
-5.51809e-06
-4.17073e-06
-4.21383e-06
-3.85232e-06
4.23354e-06
5.39764e-06
4.45737e-06
2.2897e-06
1.07666e-06
0.00019414
4.61836e-06
3.12458e-06
4.70068e-06
9.57362e-07
1.31604e-06
9.75159e-07
-3.22883e-05
1.99361e-06
-4.32153e-07
3.39246e-05
-1.19503e-05
-1.1403e-06
-1.6235e-06
1.47141e-05
-3.21493e-05
-1.74068e-06
5.69625e-06
3.34431e-05
-4.27933e-05
-5.5521e-06
7.05446e-06
-2.41064e-06
4.47783e-05
-1.35602e-05
4.00816e-06
-5.72758e-06
1.52797e-05
-4.22205e-06
2.55548e-06
-3.16002e-06
4.82659e-06
-1.91988e-06
-2.00118e-06
8.0713e-07
3.11031e-06
-3.58671e-08
6.42812e-07
-3.79835e-05
5.5228e-07
-4.70445e-07
3.72947e-05
1.8842e-06
-3.50167e-05
-1.07495e-06
-2.16183e-07
-1.38811e-06
3.58117e-05
-7.00124e-06
3.13615e-06
-3.34852e-06
-1.83452e-06
7.10484e-06
1.94329e-06
-1.06159e-07
3.94554e-08
-2.08782e-05
9.08086e-07
-4.35911e-07
2.04727e-05
-4.24474e-06
4.31362e-06
0.00012268
5.03704e-07
-5.35798e-07
4.2971e-07
8.67184e-09
-1.60146e-06
-1.97473e-06
-1.03761e-06
-8.98443e-07
-1.22608e-05
7.0323e-06
0.000116972
-6.45547e-07
-2.14771e-06
2.55202e-07
-1.69709e-06
-4.87958e-06
9.44448e-07
7.31074e-05
8.17617e-07
1.36595e-06
1.06614e-06
1.91262e-06
-3.8958e-06
-3.43406e-06
-2.95449e-06
-1.19304e-05
1.74528e-06
-3.60617e-06
8.91174e-06
-2.51273e-06
7.0032e-07
-8.48724e-07
2.66078e-06
-1.71901e-06
-4.84008e-05
2.13022e-06
1.41394e-06
-1.70679e-06
4.82824e-05
-6.37705e-06
8.31606e-06
0.000137333
-4.44376e-07
-1.34684e-06
1.29624e-06
3.28323e-07
-2.76785e-07
3.42539e-06
0.000119458
-2.07523e-06
7.65862e-08
0.000122068
-1.77887e-06
-7.24973e-07
-6.57578e-07
-2.52772e-06
1.41827e-06
-2.33496e-06
-2.51805e-05
1.61769e-06
-1.98517e-06
-2.2001e-06
2.56728e-05
-4.43907e-05
-2.12119e-06
3.43225e-06
2.78538e-06
4.15374e-05
-1.24317e-06
1.52407e-05
4.57911e-06
0.000185299
-5.03804e-06
-3.22293e-06
-3.17954e-06
-2.62206e-06
3.58292e-06
4.46989e-06
3.63128e-06
1.78012e-06
5.56353e-07
0.000197337
4.23355e-06
3.124e-06
4.33293e-06
3.27266e-07
7.96342e-07
3.18365e-07
-3.72419e-05
1.85224e-06
-6.48778e-07
3.78951e-05
-1.50513e-05
4.09805e-06
-1.60085e-06
1.25541e-05
-3.44811e-05
-8.38913e-08
4.04277e-06
3.51014e-05
-4.68786e-05
-4.39679e-06
6.23311e-06
-2.32251e-06
4.79212e-05
-1.68859e-05
3.85867e-06
-5.04876e-06
1.8076e-05
-5.18038e-06
2.29494e-06
-2.3702e-06
5.25564e-06
-4.79728e-06
-3.58644e-06
2.23967e-06
6.14462e-06
-5.37523e-07
1.44608e-06
-3.59597e-05
-1.42075e-07
1.85419e-07
3.50078e-05
9.52327e-07
-3.6644e-05
1.33857e-07
-1.37065e-06
-1.16658e-06
3.8095e-05
-6.7619e-06
2.92394e-06
-3.705e-06
-9.00902e-07
5.4199e-06
3.02395e-06
-4.8944e-07
2.95633e-07
-2.04085e-05
2.63039e-07
-4.64769e-07
2.0804e-05
-9.06698e-06
5.04321e-06
0.000128362
1.37384e-07
-7.32808e-07
4.07794e-07
3.49482e-07
-3.57684e-07
-1.3881e-06
3.18695e-07
-3.93493e-07
-1.28802e-05
6.04817e-06
0.000119208
-5.9207e-07
-2.50235e-06
3.89361e-07
-1.76512e-06
-2.89767e-06
-1.71291e-06
6.68008e-05
2.19987e-07
1.91038e-06
3.26779e-08
1.96098e-06
-2.18049e-06
-2.30808e-06
-1.59853e-06
-6.66191e-06
2.57529e-06
-3.36705e-06
4.55599e-06
-2.05571e-06
5.885e-07
2.59032e-07
1.20832e-06
-8.41632e-07
-4.81464e-05
2.10218e-06
4.88232e-08
-1.02425e-06
4.78612e-05
-7.87591e-06
7.12228e-06
0.000139772
8.09069e-07
-7.72542e-07
2.35674e-06
9.65015e-07
-1.46543e-06
3.46359e-06
0.000115632
7.45559e-08
-6.84537e-07
0.000124672
-3.02146e-07
3.86759e-07
1.76576e-08
-2.95675e-06
5.27473e-07
-2.845e-06
-2.55178e-05
2.17042e-06
1.32475e-06
-3.63641e-06
2.57336e-05
-4.0532e-05
-1.74571e-06
1.67756e-06
1.34793e-06
4.09963e-05
-1.74411e-06
9.90098e-06
3.73373e-06
0.00017663
-3.44194e-06
-1.46357e-06
-1.42004e-06
-7.02917e-07
2.90457e-06
3.4685e-06
2.81243e-06
1.63612e-06
2.56483e-07
0.000198207
3.69999e-06
3.07137e-06
3.67215e-06
-1.37394e-07
4.96832e-07
-2.00512e-07
-4.07157e-05
2.22653e-06
-1.08811e-06
4.05289e-05
-1.20101e-05
2.93746e-06
-2.54197e-06
1.16147e-05
-3.54446e-05
1.17601e-06
2.50965e-06
3.54926e-05
-4.91377e-05
-3.32011e-06
5.36071e-06
-2.25012e-06
4.96037e-05
-1.91099e-05
3.66521e-06
-4.36847e-06
1.98132e-05
-5.10328e-06
1.19496e-06
-8.6089e-07
4.7692e-06
-6.9714e-06
-4.96757e-06
4.24192e-06
7.69706e-06
-2.47451e-06
2.07131e-06
-3.53067e-05
-8.26214e-07
6.29077e-07
3.59071e-05
2.09088e-08
-3.99286e-05
6.40812e-07
-1.53502e-06
-6.94782e-07
4.14966e-05
-3.6982e-06
2.49652e-06
-3.73843e-06
-3.59694e-07
2.05639e-06
3.24342e-06
-1.29525e-06
9.4774e-07
-2.18265e-05
-8.47201e-07
-5.05015e-07
2.35262e-05
-1.10993e-05
5.14024e-06
0.000132267
2.88955e-07
-6.17735e-07
2.86218e-07
2.96448e-07
9.74798e-07
-1.09022e-06
1.71984e-06
1.96225e-07
-1.12465e-05
3.00736e-06
0.000118557
-3.40838e-07
-1.94187e-06
6.75499e-07
-6.02228e-07
-2.29012e-06
-4.54984e-06
6.34427e-05
-4.25275e-07
2.02148e-06
-7.51282e-09
1.90358e-06
-1.23142e-06
-2.28557e-06
-1.02378e-06
-3.21683e-06
2.86164e-06
-4.24138e-06
2.30645e-06
-9.89072e-07
1.40628e-07
-1.54294e-07
1.00255e-06
-1.40831e-06
-4.85804e-05
2.01543e-06
-5.63743e-07
-4.41649e-07
4.89787e-05
-7.71119e-06
6.08232e-06
0.000141982
1.15719e-06
-3.62299e-07
2.40806e-06
1.356e-06
-2.79035e-06
2.55139e-06
0.000111168
-1.08873e-07
-1.74155e-06
0.000127484
-6.71822e-07
-1.20566e-07
-7.51954e-07
-3.23214e-06
-5.68682e-07
-2.95662e-06
-2.61179e-05
2.67387e-06
1.17192e-06
-3.25497e-06
2.54182e-05
-4.23617e-05
-6.08402e-07
6.55708e-07
-1.08288e-07
4.38915e-05
-1.46876e-06
6.03756e-06
2.88278e-06
0.000168937
-2.09341e-06
-4.09595e-08
-3.30237e-07
3.0144e-07
2.18442e-06
2.63455e-06
2.19918e-06
1.36823e-06
1.08459e-07
0.00019753
3.0011e-06
2.63226e-06
2.91675e-06
-5.02686e-07
3.31665e-07
-5.90375e-07
-4.29014e-05
2.01593e-06
-1.60892e-06
4.2121e-05
-1.12956e-05
2.47914e-06
-2.29312e-06
1.11096e-05
-3.55604e-05
1.46239e-06
1.5395e-06
3.54413e-05
-5.01721e-05
-2.49667e-06
4.58236e-06
-2.03024e-06
5.02251e-05
-2.0371e-05
3.35566e-06
-3.70362e-06
2.07189e-05
-4.19819e-06
1.50656e-06
-9.52138e-07
3.64376e-06
-8.36913e-06
-5.86455e-06
5.42466e-06
8.80903e-06
-2.47006e-06
2.54311e-06
-3.61473e-05
-5.7386e-07
6.0556e-07
3.60425e-05
-4.24906e-08
-4.29652e-05
-1.05359e-07
-5.44588e-07
-5.14867e-07
4.41725e-05
-1.08037e-06
2.28039e-06
-2.9156e-06
-1.02999e-06
8.56956e-07
1.88861e-06
-2.23736e-06
2.26658e-06
-2.55979e-05
-2.19161e-06
1.14893e-07
2.76454e-05
-1.17269e-05
5.14898e-06
0.000132707
2.65226e-07
-5.56105e-07
5.6773e-07
6.49696e-07
2.20101e-06
-4.51311e-07
2.70737e-06
7.54102e-07
-9.82713e-06
1.952e-06
0.0001131
-1.31125e-07
-4.75976e-07
1.16112e-06
1.05109e-06
-1.99446e-06
-7.63848e-06
6.12498e-05
7.06074e-07
2.15374e-06
1.50007e-06
1.94017e-06
-1.02385e-06
-2.13614e-06
-1.14128e-06
-1.67003e-06
2.65274e-06
-4.40069e-06
1.42351e-06
-1.10172e-06
-6.48983e-07
4.26024e-07
1.32468e-06
-1.17456e-07
-4.89885e-05
1.48958e-06
-7.55152e-07
-2.55185e-07
4.86267e-05
-6.2283e-06
5.50635e-06
0.000142657
1.1325e-06
1.41491e-08
2.44016e-06
1.60901e-06
-2.48045e-06
1.42093e-06
0.000107951
-2.42878e-07
-2.70123e-06
0.000128245
-5.63276e-07
-2.50911e-07
-1.96869e-07
-2.85247e-06
-1.45044e-06
-2.62145e-06
-2.40611e-05
2.66985e-06
1.3234e-06
-2.45522e-06
2.22802e-05
-4.56802e-05
9.79283e-07
2.33405e-08
-9.83435e-07
4.70334e-05
-1.37236e-06
3.43076e-06
2.28242e-06
0.000162772
-1.31648e-06
6.30647e-07
2.10519e-07
8.42064e-07
1.71251e-06
2.10937e-06
1.76902e-06
9.63304e-07
-2.36952e-09
0.000195794
2.4091e-06
2.46988e-06
2.40473e-06
-8.41022e-07
1.52429e-07
-9.67878e-07
-4.40029e-05
1.54364e-06
-2.18455e-06
4.29059e-05
-1.09386e-05
1.6989e-06
-1.53888e-06
1.07785e-05
-3.5366e-05
1.42848e-06
9.95828e-07
3.52241e-05
-5.04375e-05
-2.00729e-06
3.94388e-06
-1.77153e-06
5.027e-05
-2.09466e-05
3.13794e-06
-3.15712e-06
2.09658e-05
-3.51222e-06
2.66617e-06
-2.92156e-06
3.76761e-06
-8.99351e-06
-5.15252e-06
5.06902e-06
9.07701e-06
-1.5625e-06
2.46497e-06
-3.57078e-05
-4.8686e-07
6.09509e-08
3.52313e-05
1.63718e-06
-4.50258e-05
-2.94728e-07
-3.22738e-07
-1.16691e-06
4.5173e-05
-1.09034e-06
1.92409e-06
-1.82229e-06
-1.88448e-06
1.9643e-06
9.08732e-07
-2.40561e-06
3.10593e-06
-2.95047e-05
-2.88449e-06
6.26733e-07
3.10621e-05
-1.1798e-05
5.35695e-06
0.000130135
6.01882e-07
-8.97016e-08
6.99481e-07
8.9719e-07
2.73533e-06
9.31159e-08
2.94186e-06
1.13438e-06
-8.77927e-06
3.13009e-06
0.00010369
1.77016e-07
5.91358e-07
1.43312e-06
1.05998e-06
-1.68072e-06
-9.95218e-06
5.94228e-05
2.09922e-06
2.15712e-06
2.67242e-06
1.97802e-06
-1.15317e-06
-1.75909e-06
-1.31388e-06
-1.19275e-06
2.36039e-06
-4.16474e-06
1.31638e-06
-1.65492e-06
-1.41387e-06
9.56065e-07
2.11273e-06
4.13954e-07
-4.8346e-05
9.45575e-07
-8.45515e-07
-4.54909e-08
4.78775e-05
-4.65412e-06
5.68959e-06
0.000141584
1.15499e-06
1.46102e-07
2.37479e-06
1.71913e-06
-1.46318e-06
1.17447e-06
0.000106715
-4.59704e-08
-3.03719e-06
0.000125711
3.92411e-07
-1.15143e-09
6.66857e-07
-2.61635e-06
-1.58415e-06
-2.6565e-06
-2.05681e-05
2.50831e-06
1.37463e-06
-2.72982e-06
1.9369e-05
-4.85248e-05
1.54019e-06
-4.14809e-07
-1.54242e-06
4.96933e-05
-7.51456e-07
1.18719e-06
1.87314e-06
0.000159014
-9.29359e-07
1.00663e-06
5.40588e-07
1.12424e-06
1.44026e-06
1.67515e-06
1.53003e-06
9.78512e-07
-1.42522e-07
0.000192716
2.06118e-06
2.55927e-06
2.17365e-06
-1.07341e-06
4.59577e-08
-1.16316e-06
-4.43708e-05
1.78725e-06
-2.47293e-06
4.29978e-05
-1.05383e-05
2.08987e-06
-1.85434e-06
1.03028e-05
-3.51546e-05
1.23403e-06
7.2296e-07
3.50707e-05
-5.01984e-05
-1.68212e-06
3.58101e-06
-1.59443e-06
4.97514e-05
-2.08686e-05
3.12991e-06
-2.8566e-06
2.05953e-05
-4.08341e-06
3.11044e-06
-3.31019e-06
4.28317e-06
-9.30118e-06
-4.61138e-06
4.09824e-06
9.81431e-06
-1.52677e-06
3.14714e-06
-3.45456e-05
-9.23597e-07
4.54322e-08
3.38034e-05
2.09387e-06
-4.49439e-05
-1.73936e-07
-2.17054e-07
-1.02785e-06
4.42688e-05
-3.14691e-06
1.94259e-06
-1.2669e-06
-2.38955e-06
4.38398e-06
4.76791e-07
-1.98398e-06
3.08993e-06
-3.22466e-05
-3.04487e-06
1.08107e-06
3.31045e-05
-1.16288e-05
5.57273e-06
0.00012696
5.18736e-07
-2.25354e-07
5.59845e-07
6.70125e-07
2.80695e-06
4.62797e-07
2.91608e-06
1.52175e-06
-8.3338e-06
3.55566e-06
9.88478e-05
1.48434e-07
-1.24544e-06
1.12648e-06
-2.03813e-06
-1.44647e-06
-1.21073e-05
5.85458e-05
2.84755e-06
2.20924e-06
3.17184e-06
2.17064e-06
-1.38847e-06
-1.47617e-06
-1.43762e-06
-1.42168e-06
2.07325e-06
-3.86322e-06
1.76518e-06
-2.68499e-06
-1.66097e-06
9.98662e-07
3.34729e-06
6.77034e-07
-4.75737e-05
1.03551e-07
-6.80098e-07
4.56761e-07
4.70164e-05
-3.67787e-06
4.82083e-06
0.000140833
1.00288e-06
2.38565e-07
2.11964e-06
1.81921e-06
-6.21712e-07
5.99967e-07
0.000106615
2.56283e-07
-3.11761e-06
0.000121004
1.11158e-06
2.66393e-07
1.21447e-06
-3.0307e-06
-1.61948e-06
-3.10286e-06
-1.85922e-05
2.63e-06
1.60305e-06
-3.6386e-06
1.8254e-05
-5.11e-05
1.33737e-06
-5.70066e-07
-1.57448e-06
5.2351e-05
-4.43781e-07
-5.7301e-07
1.41565e-06
0.000156672
-6.16813e-07
1.16426e-06
8.66194e-07
1.23534e-06
1.15634e-06
1.25281e-06
1.26245e-06
1.03763e-06
-2.32006e-07
0.000188055
1.88672e-06
2.42379e-06
1.97244e-06
-1.20722e-06
-1.73874e-08
-1.17586e-06
-4.41098e-05
2.27913e-06
-2.59427e-06
4.23449e-05
-1.02326e-05
3.00169e-06
-3.13837e-06
1.03693e-05
-3.49912e-05
9.63574e-07
6.4024e-07
3.4803e-05
-4.93685e-05
-1.42594e-06
3.3548e-06
-1.4132e-06
4.86208e-05
-2.01676e-05
3.44291e-06
-2.81079e-06
1.95355e-05
-4.27e-06
2.44294e-06
-2.12914e-06
3.9562e-06
-1.05726e-05
-3.77323e-06
2.91487e-06
1.1431e-05
-1.58378e-06
3.91229e-06
-3.33282e-05
-2.52399e-06
3.01912e-07
3.32217e-05
1.64391e-06
-4.38134e-05
1.40914e-06
-1.70012e-06
-5.39623e-07
4.30001e-05
-5.12478e-06
2.08578e-06
-1.42145e-06
-2.79321e-06
5.53689e-06
1.71677e-06
-1.37493e-06
2.77919e-06
-3.37761e-05
-2.94896e-06
9.99061e-07
3.43218e-05
-1.27966e-05
4.71225e-06
0.000125401
2.89402e-07
-5.11595e-07
1.47192e-07
3.95162e-07
2.98476e-06
1.07461e-06
3.08348e-06
2.18027e-06
-9.20493e-06
1.04889e-06
9.65758e-05
-1.51793e-07
-2.24392e-06
6.83058e-07
-6.56001e-07
-1.30874e-06
-1.38496e-05
5.77463e-05
3.08105e-06
2.39049e-06
3.3419e-06
2.37106e-06
-1.56003e-06
-1.34208e-06
-1.5295e-06
-2.06184e-06
1.88648e-06
-3.59519e-06
2.46182e-06
-4.02044e-06
-1.573e-06
9.33362e-07
4.66009e-06
5.867e-07
-4.65544e-05
-3.71727e-07
-6.74053e-07
9.91326e-07
4.60221e-05
-2.60016e-06
3.16151e-06
0.000139996
8.35996e-07
2.87359e-07
2.04849e-06
1.81622e-06
-1.81103e-06
-1.75586e-06
0.000108631
1.46802e-07
-3.0286e-06
0.000114072
1.21405e-06
1.23999e-07
1.27437e-06
-3.47844e-06
-1.57267e-06
-3.40792e-06
-1.81097e-05
2.96312e-06
1.73445e-06
-4.359e-06
1.79179e-05
-5.38988e-05
9.99449e-07
-6.6657e-07
-1.25069e-06
5.52906e-05
-4.73951e-07
-1.45242e-06
9.85562e-07
0.000154594
-2.8755e-07
1.11312e-06
1.10584e-06
1.10653e-06
8.64169e-07
8.40729e-07
9.62928e-07
9.95027e-07
-4.77764e-07
0.000181214
1.67935e-06
2.13301e-06
1.704e-06
-1.22331e-06
-2.24614e-07
-9.53503e-07
-4.29927e-05