/*--------------------------------*- C++ -*----------------------------------*\
| =========                 |                                                 |
| \\      /  F ield         | OpenFOAM: The Open Source CFD Toolbox           |
|  \\    /   O peration     | Version:  5.x                                   |
|   \\  /    A nd           | Web:      www.OpenFOAM.org                      |
|    \\/     M anipulation  |                                                 |
\*---------------------------------------------------------------------------*/
FoamFile
{
    version     2.0;
    format      ascii;
    class       volVectorField;
    location    "4";
    object      U;
}
// * * * * * * * * * * * * * * * * * * * * * * * * * * * * * * * * * * * * * //

dimensions      [0 1 -1 0 0 0 0];

internalField   nonuniform List<vector> 
10571
(
(-0.289176 0.111805 1.25686)
(-0.0459848 0.182068 0.506639)
(-0.0909835 1.19541 1.55269)
(-0.934834 1.2296 1.91898)
(-0.468696 0.104969 0.759232)
(0.854441 1.07952 3.51608)
(-2.10622 1.16731 2.95607)
(-0.700095 1.62061 2.41705)
(-1.50697 0.586561 1.71653)
(-0.370215 0.0915939 0.91195)
(0.18936 -0.295576 0.945661)
(0.465402 -0.622643 1.74182)
(-0.274588 0.0233125 1.7418)
(-1.58872 1.00159 3.43517)
(-1.23553 0.280095 1.34717)
(-0.523913 0.12197 1.44749)
(0.157258 -0.305468 1.0355)
(-0.242688 0.17357 2.80113)
(-0.419295 0.0955828 2.51387)
(-0.842609 -0.425284 2.48184)
(-0.257033 0.12834 0.721599)
(0.0754272 -0.384361 0.926089)
(0.0350703 -0.28085 1.77227)
(-0.286791 -0.0199391 0.876158)
(-0.0768134 0.0145729 0.566159)
(-0.169618 -0.108205 0.755795)
(-0.539397 -0.12684 0.945304)
(0.195802 -0.0707244 1.32082)
(-0.0723268 0.0690953 0.446766)
(-0.12572 0.788662 4.23936)
(-0.607965 0.430128 1.63918)
(-0.223414 0.0381803 2.01256)
(-0.0959965 -0.134894 0.907848)
(-0.263821 -0.174287 0.665265)
(0.0368392 0.0897643 0.529058)
(0.000438605 0.347869 1.80296)
(-0.820987 0.186076 2.28208)
(-1.1658 0.88518 3.83484)
(-0.128448 -0.124581 0.595312)
(-0.221 0.0961417 0.596876)
(-1.1212 -0.0463879 2.32648)
(-1.77495 -0.518836 3.87305)
(-1.44392 0.464378 3.77055)
(-0.493884 0.0887361 1.06675)
(-0.0348632 0.122396 0.628202)
(-0.236971 -0.0374312 0.0672073)
(-0.452726 -0.618878 1.31394)
(-0.0762487 0.152123 0.504398)
(-0.120665 -0.00840413 0.43403)
(0.720164 -0.574906 1.3556)
(-0.410421 -0.323392 0.801005)
(0.0538348 -0.173737 0.963393)
(0.00289998 0.151171 0.391727)
(-0.939448 -1.40879 3.66976)
(0.0443995 -0.0755745 0.923629)
(0.0324982 -0.348464 1.79079)
(0.194469 -0.114553 1.78786)
(-0.14392 0.0397464 0.490115)
(-0.187113 0.473028 0.826342)
(-1.81733 2.6087 4.28262)
(-0.607154 -0.187726 3.12718)
(-0.150557 -0.284345 1.74175)
(0.202808 -0.077413 0.775676)
(-0.0288498 0.0674378 0.477563)
(-0.897309 0.254267 3.23428)
(-0.731133 -0.0503322 1.44644)
(-0.0581193 -0.0875255 0.778157)
(0.0881666 -0.173502 0.439103)
(0.0661253 -0.063714 0.634278)
(-0.248986 -0.0385139 0.316587)
(-0.461224 -0.0135419 1.1412)
(0.246946 -0.198403 1.00555)
(-0.0475796 -0.114659 0.483449)
(0.231724 -0.325467 0.662988)
(0.140045 -0.148367 1.20305)
(-0.05775 -0.199333 0.493918)
(0.223819 0.361407 0.532695)
(-0.865841 -1.10357 4.18757)
(0.0910347 -0.296575 1.18631)
(0.069469 -0.16824 1.71877)
(0.222997 0.12743 1.38509)
(0.0514131 0.216033 0.294951)
(0.0580949 0.441804 2.4838)
(-0.374438 0.870407 3.13726)
(-0.133602 0.268767 3.56961)
(0.363707 0.105577 2.88059)
(0.27153 0.150978 0.824164)
(0.11271 0.17357 0.845984)
(-0.152129 0.454484 3.09022)
(-0.0872459 0.423993 3.05008)
(0.0252313 0.128059 1.9244)
(0.0365026 -0.0839169 0.865507)
(0.019603 -0.0839756 0.638683)
(0.188599 -0.0266888 0.606819)
(-0.0987065 0.022048 0.637317)
(0.0173696 -0.0183911 0.53843)
(0.153998 0.120927 0.2629)
(-0.0713311 0.0859488 0.341515)
(0.530511 0.410811 1.41482)
(0.0761399 0.183867 0.506705)
(0.0419389 0.122443 0.169272)
(0.282951 -0.157561 2.62245)
(0.0803256 -0.138254 0.749582)
(0.0857188 -0.010641 1.80319)
(0.0303707 0.243273 1.51784)
(0.0983935 0.0820409 0.244947)
(0.0497712 0.00412239 2.22569)
(-0.253812 0.317605 3.23656)
(0.00694731 0.141465 1.256)
(0.470648 0.106396 1.98153)
(0.301102 0.057378 1.12859)
(-0.441139 0.176363 0.361973)
(0.364168 0.398855 3.21615)
(0.535395 0.882826 2.84866)
(-0.0134839 0.145972 1.88837)
(0.127457 0.149354 0.489128)
(0.0251295 0.370022 0.568427)
(0.706066 0.146914 0.519333)
(0.10067 -0.147608 0.600599)
(-0.0551976 -0.0260852 0.121598)
(0.133272 -0.0152593 -0.0493271)
(-0.0588389 0.0557231 -0.0264432)
(0.535916 0.354828 1.75381)
(0.114909 0.03994 0.680854)
(0.157463 -0.221839 -0.019071)
(0.394182 -0.142556 2.47175)
(0.101026 0.268643 0.800811)
(-0.023375 0.142327 1.16927)
(0.15325 0.236184 1.14788)
(0.0684315 0.0806505 0.430338)
(-0.0120946 0.00944894 -0.00774328)
(0.0129027 -0.308903 1.57641)
(0.301487 -0.0558834 2.57279)
(-0.00997731 -0.0101638 1.78533)
(0.0225524 0.0979333 1.80178)
(0.297755 0.112306 1.02932)
(-0.368421 0.0494535 0.36725)
(-0.00522879 -0.00263057 -0.00291272)
(0.234421 0.43414 3.00236)
(0.702972 0.637686 2.53925)
(0.14884 0.248085 1.76649)
(-0.045764 -0.0330782 0.633034)
(-0.00540585 0.249352 0.859976)
(0.696252 0.293085 0.828045)
(0.502924 -0.10504 0.829215)
(0.339158 -0.289135 0.239243)
(0.0282098 0.00803864 -0.0514869)
(-0.0267635 0.0724944 -0.06177)
(0.433176 0.324911 1.68085)
(0.0827267 -0.0799124 1.05023)
(0.168036 -0.195784 0.146112)
(0.394421 -0.20515 1.88963)
(0.212287 0.185586 0.917995)
(0.00420096 0.215758 1.0416)
(0.16319 0.16692 1.08576)
(0.285461 0.23848 0.620562)
(0.0523721 -0.0163074 -0.0346081)
(0.072058 -0.102224 0.856263)
(0.387379 -0.0831882 2.35413)
(-0.061833 -0.0716012 1.30167)
(-0.000942932 -0.023752 1.48335)
(0.290851 0.109738 1.11686)
(-0.0344897 0.056451 0.478914)
(0.0256823 -0.0857806 -0.0522793)
(0.1744 0.221263 2.64143)
(0.602494 0.517233 2.3493)
(0.221669 0.294395 1.9042)
(0.203724 0.104519 0.974491)
(0.123909 0.162311 0.915599)
(-0.138129 -0.0128797 -0.0155207)
(0.551969 0.429781 1.23595)
(0.672206 0.104808 1.19902)
(0.547318 -0.204847 0.405786)
(-0.129722 -0.0350424 0.140367)
(-0.0182084 0.0286692 -0.013037)
(0.320307 0.213899 1.66395)
(0.0645313 -0.101473 1.24318)
(-0.103584 -0.124319 0.201093)
(0.289307 -0.228397 1.40518)
(0.209113 0.234979 1.1223)
(0.012286 0.222051 1.08539)
(0.0881953 0.227543 1.00634)
(0.212074 0.164467 0.631348)
(-0.0138948 -0.0528714 0.0834315)
(-0.0372928 -0.0346472 0.438386)
(0.350998 -0.151492 2.25937)
(-0.136851 -0.0428394 1.2804)
(0.0394677 -0.119901 1.32976)
(0.21198 0.0814235 1.12573)
(-0.0302731 0.110164 0.611338)
(-0.00719232 -0.134931 0.047633)
(0.250472 0.143395 2.26272)
(0.525176 0.439091 2.20878)
(0.274165 0.263603 2.02663)
(0.253614 0.149525 1.24558)
(0.181638 0.0285879 0.875625)
(0.246979 -0.031143 0.0861552)
(0.384695 0.387789 1.4595)
(0.623813 0.0906489 1.49245)
(0.569642 -0.158584 0.901012)
(-0.362085 -0.0825162 0.435234)
(-0.0529569 0.0322882 0.0688461)
(0.218411 -0.0084985 1.6155)
(0.079134 -0.113528 1.46903)
(-0.142284 -0.179464 0.236315)
(0.0122795 -0.0579769 0.955358)
(0.103168 0.25922 1.12641)
(-0.0276938 0.273081 1.10956)
(-0.13391 0.194942 0.841685)
(-0.142318 -0.144864 0.549707)
(-0.127984 -0.00821674 0.0693628)
(-0.0278965 -0.0260623 0.25013)
(0.254623 -0.217652 2.15142)
(-0.150765 -0.0128127 1.33052)
(0.0362953 -0.115759 1.25374)
(0.0557932 0.0596513 1.18531)
(-0.112017 0.103073 0.755647)
(-0.0679879 -0.135778 0.118578)
(0.283444 0.168064 1.99155)
(0.447863 0.352504 2.08534)
(0.27369 0.210379 2.05445)
(0.222577 0.130262 1.45978)
(0.0670395 -0.123689 0.97889)
(0.269988 0.380732 1.64617)
(0.518498 0.0684929 1.71684)
(0.528952 -0.165739 1.31482)
(-0.300108 -0.100407 0.643692)
(-0.138712 0.0647896 0.186004)
(0.0173273 0.0135124 1.71324)
(0.068715 -0.0755836 1.55004)
(-0.223271 -0.136409 0.284096)
(-0.0437108 0.0169576 0.939203)
(0.0171693 0.151934 1.24538)
(-0.146356 0.320264 1.15067)
(-0.222122 0.0251436 0.79556)
(-0.326909 -0.221088 0.49015)
(-0.0354948 -0.098424 0.40138)
(0.157535 -0.253456 2.16793)
(-0.195382 -0.0157129 1.38779)
(0.00109384 -0.0581226 1.22806)
(0.0279345 0.00650874 1.26958)
(-0.144505 -0.140277 0.95211)
(0.221544 0.172734 1.67272)
(0.320658 0.270799 2.00237)
(0.238782 0.165014 2.07146)
(0.196313 0.089955 1.63623)
(0.114887 -0.187828 1.11788)
(0.154546 0.360405 1.75169)
(0.448325 0.0274302 1.86574)
(0.471474 -0.172312 1.59843)
(-0.279141 -0.067546 0.755292)
(-0.249274 0.160999 0.431617)
(-0.03753 0.0998097 1.55006)
(-0.023533 -0.0506054 1.65517)
(-0.276905 -0.108227 0.247223)
(-0.0116445 0.0110208 0.898796)
(-0.0536014 0.15472 1.2588)
(-0.243526 0.242027 1.19599)
(-0.189403 -0.028189 0.725665)
(-0.198396 -0.232918 0.274981)
(0.0205422 -0.0266822 0.220106)
(0.0548138 -0.230863 2.1478)
(-0.224036 0.00954701 1.40515)
(-0.0237349 -0.0239484 1.20023)
(-0.0183407 -0.0434043 1.30905)
(0.0427495 -0.224321 1.01331)
(0.0941318 0.181686 1.65583)
(0.191224 0.212788 1.92441)
(0.177887 0.130163 2.09256)
(0.18587 0.0256953 1.76897)
(0.124867 -0.245024 1.06528)
(0.0678046 0.304402 1.79391)
(0.378713 0.00507798 1.94547)
(0.411755 -0.169993 1.77834)
(-0.160066 -0.0221729 0.713233)
(-0.336847 0.281751 0.533819)
(-0.0906302 0.155937 1.55915)
(-0.0551678 -0.0285447 1.77127)
(-0.255507 -0.129132 0.112633)
(-0.0349158 0.0143569 0.994103)
(-0.0919632 0.132532 1.29787)
(-0.276815 0.126758 1.19668)
(-0.118754 -0.0786965 0.683012)
(-0.159353 -0.277306 0.140741)
(-0.102311 0.125449 0.135071)
(0.00652486 -0.189228 2.12693)
(-0.223453 0.0335468 1.42538)
(-0.0244348 -0.0257199 1.1513)
(-0.0800592 -0.102014 1.33461)
(0.0249148 -0.209751 1.01977)
(0.0106311 0.119164 1.66158)
(0.0997617 0.161943 1.82877)
(0.122068 0.101957 2.09132)
(0.171177 -0.0513213 1.84637)
(0.107166 -0.20404 1.02006)
(0.0249897 0.238316 1.79145)
(0.316453 -0.00261906 1.97879)
(0.354584 -0.157466 1.8777)
(-0.08825 -0.0354624 0.547965)
(-0.373376 0.368774 0.633558)
(-0.0817733 0.16536 1.58189)
(0.0294086 0.0190022 1.939)
(-0.137289 -0.143686 0.0379171)
(-0.108673 0.074327 1.17333)
(-0.106952 0.120921 1.32311)
(-0.282781 0.10072 1.174)
(-0.068762 -0.153973 0.66267)
(-0.149087 -0.261505 0.0735983)
(-0.0452729 0.235421 0.172147)
(0.00756065 -0.172715 2.16039)
(-0.188077 0.0484051 1.43876)
(-0.0129389 -0.0314147 1.10466)
(-0.0834851 -0.13673 1.36216)
(0.013209 -0.167309 0.910584)
(-0.0458041 0.0806321 1.81874)
(0.039085 0.131627 1.74356)
(0.0852016 0.0720888 2.0802)
(0.143624 -0.135019 1.88817)
(0.0773588 -0.128948 0.989076)
(0.00325091 0.187893 1.77912)
(0.269218 -0.00492058 1.9819)
(0.305964 -0.152257 1.91428)
(-0.264232 -0.0901987 0.52217)
(-0.306949 0.346916 0.657252)
(-0.0710709 0.137732 1.56899)
(0.0487596 -0.026024 1.997)
(-0.0419125 -0.133246 0.0609137)
(-0.173719 0.0980155 1.33456)
(-0.103033 0.129316 1.3165)
(-0.283988 0.130846 1.10437)
(-0.0342823 -0.209609 0.639652)
(-0.133273 -0.230204 0.0557117)
(-0.00887977 0.321475 0.268696)
(0.0133648 -0.134816 2.12846)
(-0.13791 0.059866 1.43059)
(-0.0118757 -0.0254877 1.07975)
(-0.0483007 -0.154238 1.35581)
(0.0119238 -0.140899 0.779014)
(-0.0868141 0.00121428 1.921)
(-0.00642489 0.126335 1.6887)
(0.051534 0.0591821 2.05504)
(0.160357 -0.167928 1.89813)
(0.103719 -0.164496 0.951673)
(-0.00138313 0.145366 1.77242)
(0.237801 -0.013387 1.96774)
(0.279509 -0.157626 1.89478)
(-0.393366 -0.0617447 0.602358)
(-0.257734 0.296412 0.691599)
(-0.13622 0.136972 1.49465)
(0.0260755 -0.0336838 1.9703)
(-0.0342245 -0.138081 0.153591)
(-0.193084 0.108083 1.43947)
(-0.108665 0.156393 1.28458)
(-0.268072 0.138447 0.991497)
(-0.035158 -0.2419 0.619846)
(-0.110217 -0.198106 0.0744755)
(0.000441077 0.329934 0.430183)
(0.0194116 -0.0621963 2.07345)
(-0.10656 0.0433928 1.41713)
(-0.0148509 -0.0245692 1.07376)
(-0.0149092 -0.195932 1.31102)
(0.0237196 -0.15425 0.72327)
(-0.0887733 -0.0410026 2.02047)
(-0.0378731 0.113571 1.66245)
(0.0200911 0.0444366 2.01252)
(0.175179 -0.162867 1.88084)
(0.182607 -0.249882 0.940578)
(0.0107902 0.10143 1.76146)
(0.210504 -0.0174468 1.92866)
(0.285758 -0.180831 1.81263)
(-0.321223 -0.00416103 0.59393)
(-0.201649 0.225717 0.802825)
(-0.275916 0.150891 1.45278)
(-0.0826372 -0.0272541 1.89778)
(-0.102204 -0.158743 0.211443)
(-0.185428 0.0979391 1.49743)
(-0.15677 0.162112 1.2531)
(-0.259746 0.0709814 0.977475)
(-0.0684847 -0.263285 0.611399)
(-0.0820547 -0.17785 0.110491)
(0.00320145 0.295019 0.619598)
(0.0127235 0.0127781 2.03718)
(-0.076734 0.00826937 1.41635)
(-0.0147818 -0.0400876 1.0896)
(-0.0492989 -0.236868 1.24969)
(0.0246592 -0.205502 0.708314)
(-0.0756483 -0.0434409 2.13393)
(-0.0519947 0.0930147 1.63958)
(0.00406128 -0.0133342 1.95074)
(0.172992 -0.136541 1.82162)
(0.225986 -0.304173 0.990334)
(0.025488 0.0646417 1.73737)
(0.187483 -0.0165688 1.8663)
(0.288116 -0.173745 1.6931)
(-0.18167 0.0152276 0.460653)
(-0.137684 0.155564 0.928695)
(-0.306837 0.14459 1.4698)
(-0.168012 -0.0347329 1.83808)
(-0.135353 -0.163178 0.236834)
(-0.17966 0.0798057 1.53706)
(-0.202776 0.114722 1.24104)
(-0.240719 -0.0937846 0.954923)
(-0.0911225 -0.274998 0.606625)
(-0.0553682 -0.163887 0.151277)
(0.00526287 0.249665 0.786502)
(-0.0212334 0.0503277 2.00359)
(-0.00567095 -0.0138166 1.40473)
(-0.0185525 -0.066651 1.11777)
(-0.101498 -0.273837 1.16284)
(0.015098 -0.254009 0.696532)
(-0.0507111 -0.00214099 2.25286)
(-0.045711 0.0870156 1.62)
(-0.0115552 -0.0734423 1.86524)
(0.14343 -0.102246 1.72576)
(0.234854 -0.337048 1.05142)
(0.041691 0.0320737 1.71079)
(0.15706 -0.00650217 1.79057)
(0.260045 -0.139518 1.60454)
(-0.117006 -0.0063478 0.398743)
(-0.0415564 0.0967686 1.05834)
(-0.346084 0.0874039 1.48798)
(-0.233556 -0.0825295 1.69552)
(-0.130887 -0.150714 0.275421)
(-0.149915 0.0791756 1.56555)
(-0.199956 0.0623393 1.24485)
(-0.222479 -0.176783 0.915555)
(-0.0896678 -0.275602 0.60263)
(-0.0316259 -0.146757 0.197627)
(0.00163762 0.206206 0.917444)
(-0.0329637 0.0825462 1.99958)
(0.131883 -0.00644048 1.33548)
(-0.0327879 -0.0907949 1.14973)
(-0.109068 -0.289275 1.05792)
(0.00024263 -0.260412 0.667671)
(-0.0217902 0.0356376 2.35768)
(-0.0223181 0.0957239 1.61588)
(-0.041188 -0.0662109 1.76629)
(0.102219 -0.0865171 1.6225)
(0.210127 -0.314568 1.07434)
(0.0761893 0.0300784 1.71107)
(0.141235 0.00359033 1.72892)
(0.234034 -0.109451 1.54671)
(-0.102195 -0.0403498 0.451533)
(0.0410302 0.0012635 1.15407)
(-0.311507 0.0747978 1.43995)
(-0.183551 -0.167732 1.54711)
(-0.112205 -0.128963 0.332979)
(-0.142301 0.0842193 1.59228)
(-0.162245 0.0443236 1.25517)
(-0.212864 -0.219663 0.89086)
(-0.063733 -0.256539 0.589483)
(-0.0163025 -0.127296 0.248991)
(-0.00406231 0.183748 1.02772)
(-0.0165027 0.0924613 2.01452)
(0.202181 0.00632424 1.24142)
(-0.079636 -0.151009 1.18755)
(-0.0837576 -0.265602 0.951229)
(-0.013638 -0.241473 0.620735)
(-0.00994699 0.0681993 2.43488)
(0.0551228 0.126894 1.63703)
(-0.0549145 -0.0266556 1.68896)
(0.0876615 -0.0721171 1.53179)
(0.175528 -0.270059 1.05434)
(0.129441 0.0349535 1.74784)
(0.140299 0.00256276 1.7008)
(0.216356 -0.0941157 1.51513)
(-0.101635 -0.0511123 0.558846)
(0.056195 -0.0164206 1.1723)
(-0.248976 0.0651418 1.39975)
(-0.183156 -0.127946 1.47136)
(-0.0887652 -0.108863 0.400281)
(-0.142801 0.087951 1.62576)
(-0.11402 0.0734153 1.27274)
(-0.190271 -0.262018 0.887127)
(-0.0253014 -0.221216 0.570117)
(-0.0101673 -0.108067 0.303627)
(-0.00418917 0.18331 1.1268)
(-0.00177618 0.0954194 2.05355)
(0.167568 -0.00270444 1.17398)
(-0.145506 -0.221649 1.19353)
(-0.0581204 -0.215245 0.861709)
(-0.0120572 -0.209309 0.577894)
(0.00473245 0.0895025 2.4867)
(0.141875 0.167243 1.67924)
(-0.0500306 -0.0354106 1.62903)
(0.0914026 -0.0917025 1.43956)
(0.148201 -0.229703 1.03994)
(0.168456 0.0274163 1.81973)
(0.139205 -0.00868189 1.69672)
(0.187085 -0.0891476 1.4847)
(-0.109782 -0.0422161 0.630234)
(0.0133172 0.015428 1.18205)
(-0.30755 0.0137067 1.36877)
(-0.0694054 -0.0289144 1.37417)
(-0.0526516 -0.10522 0.478629)
(-0.0936735 0.0880907 1.66374)
(-0.0971117 0.13589 1.31383)
(-0.122742 -0.274768 0.894752)
(0.0054335 -0.186517 0.558767)
(-0.00370676 -0.0935763 0.358217)
(-0.000817314 0.181949 1.22591)
(-0.0220904 0.055964 2.09178)
(0.0074627 -0.0253379 1.12896)
(-0.179502 -0.248693 1.15938)
(-0.0421142 -0.167454 0.797398)
(-0.00297244 -0.172438 0.552471)
(-0.00110246 0.111411 2.51115)
(0.186822 0.184539 1.7152)
(-0.076545 -0.0809989 1.5556)
(0.10828 -0.168752 1.34538)
(0.126127 -0.185579 1.05154)
(0.267429 0.0490933 1.94203)
(0.160128 -0.0221161 1.69657)
(0.173003 -0.0878092 1.4115)
(-0.138022 -0.0404371 0.688897)
(-0.0902988 0.0466863 1.34775)
(-0.342361 -0.127893 1.21607)
(-0.0335505 -0.116133 1.17515)
(-0.0188804 -0.0994803 0.569682)
(-0.081401 0.0786365 1.69483)
(-0.103722 0.171825 1.34035)
(-0.0560354 -0.251155 0.895193)
(0.0111242 -0.153645 0.558155)
(0.00160476 -0.0817512 0.412663)
(-1.95812e-06 0.166527 1.32351)
(-0.0538012 0.0428027 2.09402)
(-0.152767 -0.0326924 1.13017)
(-0.168792 -0.23578 1.09803)
(-0.0290116 -0.139285 0.74315)
(0.0129746 -0.140914 0.545457)
(0.0171542 0.124981 2.54306)
(0.210212 0.170865 1.73678)
(-0.137755 -0.104051 1.47919)
(0.107134 -0.168593 1.24577)
(0.0811262 -0.15976 1.06027)
(0.368265 0.106625 2.06841)
(0.18764 -0.019534 1.7239)
(0.200356 -0.10031 1.29904)
(-0.146192 -0.0428892 0.749739)
(-0.0344068 0.0210879 1.54707)
(-0.26601 -0.0584261 1.05484)
(-0.0690343 -0.203783 1.04382)
(0.00532521 -0.0671897 0.660524)
(-0.0753194 0.0754281 1.76132)
(-0.105663 0.170835 1.34114)
(-0.043453 -0.211153 0.860295)
(-0.0156025 -0.126492 0.565464)
(0.000329794 -0.0672469 0.462509)
(-0.00842277 0.123931 1.44802)
(-0.100642 0.0513009 2.07642)
(-0.257144 -0.0397974 1.14916)
(-0.135873 -0.192539 0.974882)
(-0.0259436 -0.127195 0.68945)
(0.0270437 -0.106809 0.549585)
(-0.0106935 0.121334 2.56507)
(0.20297 0.141874 1.74363)
(-0.195012 -0.112435 1.42455)
(0.0935381 -0.10196 1.16596)
(0.0222305 -0.130874 0.922661)
(0.410197 0.154845 2.16203)
(0.185865 -0.0336912 1.78556)
(0.219385 -0.102265 1.2414)
(-0.118035 -0.0435328 0.856065)
(0.0264373 -0.0281192 1.64286)
(-0.154549 0.0620994 1.07038)
(-0.0859656 -0.226888 0.978656)
(0.0204904 -0.0135954 0.738738)
(-0.0587208 0.0729788 1.83408)
(-0.104377 0.126491 1.31117)
(-0.0498546 -0.158103 0.801225)
(-0.0526735 -0.104687 0.575743)
(-0.00301567 -0.0482927 0.497422)
(-0.0137131 0.086137 1.59319)
(-0.114531 0.0439057 2.0661)
(-0.316325 -0.0460821 1.16626)
(-0.130757 -0.174692 0.873847)
(-0.0384114 -0.112196 0.635604)
(0.0291199 -0.077308 0.547949)
(-0.0349139 0.132361 2.6157)
(0.13037 0.0632049 1.74431)
(-0.233564 -0.136834 1.37519)
(0.0620764 -0.0774145 1.11533)
(0.0239619 -0.0950551 0.765992)
(0.418044 0.172624 2.24121)
(0.192018 -0.0642444 1.83567)
(0.192989 -0.0946339 1.2249)
(-0.0696684 -0.0413174 0.97036)
(0.0558352 -0.0375122 1.71384)
(-0.0936861 0.150743 1.18071)
(-0.0757241 -0.214712 0.930893)
(0.035742 0.0294361 0.770927)
(-0.0440078 0.0810735 1.90734)
(-0.108249 0.0643253 1.26876)
(-0.0530767 -0.115735 0.755101)
(-0.0780289 -0.0854834 0.587252)
(-0.00284876 -0.022616 0.517688)
(-0.013001 0.0812537 1.73096)
(-0.101447 0.0407555 2.07489)
(-0.333885 -0.0414078 1.1909)
(-0.135342 -0.177832 0.803396)
(-0.0488584 -0.078506 0.589225)
(0.0222446 -0.0548321 0.542422)
(-0.0128648 0.132764 2.66571)
(-0.00647363 -0.0577366 1.76313)
(-0.253631 -0.181122 1.30278)
(-0.0362626 -0.105927 0.993653)
(0.0390269 -0.0902947 0.692119)
(0.396082 0.172716 2.30282)
(0.168981 -0.123371 1.8583)
(0.155625 -0.083611 1.19595)
(-0.0195688 -0.0293439 1.06482)
(0.0505365 -0.0183505 1.8083)
(-0.0386471 0.173118 1.28869)
(-0.0628474 -0.194088 0.895395)
(0.0493993 0.0558195 0.750915)
(0.0229246 0.0673302 1.93307)
(-0.1121 0.0570479 1.26003)
(-0.043381 -0.0905825 0.735195)
(-0.0833927 -0.0710597 0.595875)
(0.00512498 0.0141618 0.532567)
(-0.0188649 0.0786756 1.83538)
(-0.0774863 0.0761873 2.11634)
(-0.313816 -0.0247535 1.2311)
(-0.124822 -0.184224 0.763505)
(-0.0360405 -0.0336108 0.554929)
(0.0104281 -0.0313182 0.537472)
(0.0196624 0.146071 2.71866)
(-0.0792103 -0.117726 1.80845)
(-0.238461 -0.239419 1.2184)
(-0.0651625 -0.102061 0.826045)
(0.0433853 -0.0827685 0.668244)
(0.335194 0.160067 2.33274)
(0.0796812 -0.146174 1.88284)
(0.102245 -0.0546551 1.22287)
(0.0723723 -0.00899391 1.08855)
(-0.0446609 0.0563276 1.7371)
(0.106796 0.113161 1.43999)
(-0.0337039 -0.154844 0.889176)
(0.0714735 0.0636398 0.729423)
(0.0676219 0.115205 1.90712)
(-0.11838 0.059601 1.2707)
(-0.0210533 -0.0835069 0.742639)
(-0.0709108 -0.0656728 0.600877)
(0.0136743 0.0474458 0.545891)
(-0.0180716 0.0732903 1.88229)
(0.0315953 0.119109 2.10059)
(-0.221097 -0.0199198 1.33474)
(-0.0928738 -0.188449 0.752623)
(0.00054067 0.00936691 0.532855)
(0.00194109 -0.00465837 0.53755)
(0.061423 0.149222 2.74464)
(-0.070078 -0.126059 1.87344)
(-0.193826 -0.294569 1.13588)
(-0.0401998 -0.0811912 0.726073)
(0.0332873 -0.0596104 0.657254)
(0.292651 0.134116 2.36755)
(0.0580998 -0.0931448 1.85207)
(-0.012151 -0.0599975 1.11931)
(0.156889 -0.00651487 1.05521)
(-0.0146249 0.0749658 1.42631)
(0.12725 0.028333 1.5738)
(0.014723 -0.0864447 0.869542)
(0.10471 0.0712187 0.72384)
(0.0280108 0.267116 1.86444)
(-0.135954 0.0257706 1.29766)
(0.0532609 -0.086347 0.777943)
(-0.0164547 -0.066477 0.622455)
(0.0207284 0.0594721 0.558412)
(-0.00522346 0.125333 1.95298)
(0.102714 0.20343 2.06397)
(-0.0884286 -0.0926488 1.47594)
(-0.0301516 -0.182371 0.773371)
(0.042222 0.0449437 0.529578)
(0.00120011 0.0228721 0.553344)
(0.109871 0.180273 2.72991)
(0.0282775 -0.15078 1.97011)
(-0.138639 -0.323048 1.07339)
(-0.00377826 -0.0503945 0.685983)
(0.0184759 -0.0295209 0.656388)
(0.285552 0.114975 2.36492)
(0.152851 -0.0596477 1.74278)
(0.0122509 -0.0592039 0.928195)
(0.185557 -0.00827334 1.03688)
(0.0110276 -0.00211776 1.25302)
(0.0708483 0.0187833 1.6402)
(0.0684319 0.000428879 0.843905)
(0.130293 0.0782684 0.724395)
(-0.0956518 0.198231 1.71707)
(-0.135283 -0.0885595 1.32322)
(0.167138 -0.0848841 0.792644)
(0.08143 -0.0626037 0.667594)
(0.0411509 0.0610564 0.596468)
(0.001345 0.14451 2.06391)
(0.0557722 0.226823 2.03677)
(-0.0237738 -0.211188 1.57968)
(0.0568448 -0.141443 0.807186)
(0.0713948 0.0706667 0.55)
(0.00902017 0.0536355 0.589408)
(0.14348 0.221978 2.68893)
(0.115214 -0.262651 2.0039)
(-0.101862 -0.324749 1.06087)
(0.0315258 -0.0150581 0.682598)
(0.00853366 -0.00945829 0.672717)
(0.325407 0.099893 2.33628)
(0.253851 -0.110684 1.56928)
(0.0688972 -0.0481969 0.860991)
(0.184785 -0.00368126 1.03513)
(0.0143263 -0.0618528 1.25116)
(-0.00961458 0.071717 1.57671)
(0.117617 0.0313594 0.842849)
(0.133829 0.0577513 0.73568)
(-0.165789 0.0544753 1.57994)
(-0.0689933 -0.200947 1.32428)
(0.25071 -0.0635133 0.758476)
(0.148446 -0.0456732 0.713242)
(0.0659561 0.0683579 0.676625)
(0.0121094 0.114054 2.11793)
(0.0360769 0.191102 1.98778)
(-0.038427 -0.292248 1.66659)
(0.147987 -0.063549 0.832412)
(0.077296 0.0806582 0.592712)
(0.0187796 0.0808002 0.647396)
(0.171039 0.232868 2.62984)
(0.118857 -0.410289 1.98515)
(-0.0893797 -0.284717 1.08099)
(0.0461535 0.0208109 0.703139)
(-0.000457202 0.00626369 0.702514)
(0.319978 0.107509 2.27424)
(0.289981 -0.220012 1.33793)
(0.064533 -0.0219515 0.876165)
(0.155564 0.00307849 1.06229)
(0.0355414 -0.0873047 1.31078)
(-0.0706304 -0.0800023 1.43357)
(0.182398 -0.0489582 0.887055)
(0.14598 0.00402267 0.789064)
(-0.154983 -0.0299365 1.57031)
(0.044601 -0.258397 1.23307)
(0.282057 -0.0348467 0.703539)
(0.152665 -0.0248909 0.767386)
(0.0671632 0.0957983 0.777646)
(0.0194936 0.0896244 2.08546)
(0.0713531 0.122333 1.84283)
(-0.0768956 -0.28756 1.70379)
(0.211801 0.0139279 0.830161)
(0.0561418 0.065648 0.649768)
(0.0205582 0.0935399 0.71892)
(0.146277 0.240672 2.55067)
(0.109536 -0.463828 1.99993)
(-0.050581 -0.137393 1.13492)
(0.0387538 0.0440138 0.732071)
(-0.00492371 0.0126054 0.736485)
(0.172991 0.0639846 2.25308)
(0.0948054 -0.154528 1.16797)
(-0.0172854 0.0331548 0.884097)
(0.114851 0.0075655 1.09425)
(-0.00908679 -0.0609201 1.41638)
(-0.156723 -0.171489 1.37135)
(0.202862 -0.104582 0.917699)
(0.170369 -0.0240842 0.881008)
(-0.114635 -0.0543317 1.64991)
(0.13438 -0.27137 1.04002)
(0.249139 -0.0234194 0.662482)
(0.107486 -0.0120657 0.836374)
(0.0485449 0.138284 0.87904)
(-2.62821e-05 0.0888613 2.06565)
(0.0230784 0.0734812 1.68219)
(-0.0973672 -0.194945 1.70542)
(0.227664 0.0551227 0.80194)
(0.0214615 0.0254089 0.711424)
(0.0150175 0.0914833 0.7858)
(0.192882 0.264013 2.42713)
(0.114007 -0.448467 2.04136)
(0.0195616 0.00728737 1.1804)
(0.0382306 0.0451942 0.756368)
(-0.000987526 0.000585958 0.765839)
(0.118463 -0.0758759 2.33658)
(-0.0926609 0.00475669 1.08165)
(-0.0852247 0.0560979 0.830567)
(0.101353 0.00657963 1.09368)
(-0.00411941 -0.04551 1.60608)
(-0.179798 -0.0552501 1.32788)
(0.195306 -0.10161 0.91678)
(0.198689 -0.00932908 0.979999)
(-0.0408248 -0.0493283 1.7506)
(0.164905 -0.254429 0.830129)
(0.155285 -0.042253 0.635977)
(0.0429653 -0.00307574 0.912684)
(0.0282821 0.174568 0.962974)
(-0.0306648 0.0522221 2.0864)
(-0.102166 0.0814351 1.57778)
(-0.0202364 -0.0347485 1.64271)
(0.208027 0.0617971 0.768216)
(-0.0137563 -0.0286069 0.771612)
(0.009739 0.0818101 0.840946)
(0.244083 0.272904 2.27194)
(0.0975288 -0.347468 2.13339)
(0.110619 0.101594 1.20993)
(0.060002 0.0216945 0.776794)
(0.0115118 -0.0322384 0.79021)
(0.0937422 -0.182921 2.33344)
(-0.0995186 0.110361 1.05594)
(-0.0478517 0.0274043 0.769914)
(0.149573 0.00763944 1.1155)
(0.0419058 -0.0581339 1.71064)
(-0.0182198 0.0295195 1.2691)
(0.190441 -0.106222 0.926188)
(0.227295 0.01059 1.06407)
(-0.00939551 -0.0304099 1.81362)
(0.158197 -0.221973 0.69258)
(0.0837644 -0.0762425 0.62575)
(-0.0174721 0.00556773 0.986753)
(0.0233079 0.198825 1.02347)
(-0.0301529 0.0371434 2.12514)
(-0.173068 0.0626201 1.56232)
(0.11221 -0.0469619 1.48734)
(0.141812 0.0401994 0.744179)
(-0.035823 -0.0808837 0.829708)
(0.00385156 0.075182 0.889891)
(0.225669 0.226648 2.1017)
(0.108167 -0.0607146 2.21321)
(0.220393 0.124558 1.23433)
(0.101413 -0.0290265 0.802883)
(0.0297296 -0.0780692 0.820698)
(0.222336 -0.0485409 2.0579)
(0.101572 0.165589 1.16156)
(0.077704 -0.0147337 0.775197)
(0.242837 0.00914504 1.23196)
(0.146697 -0.0963332 1.61449)
(0.145853 -0.0628883 1.21319)
(0.236253 -0.109986 0.997396)
(0.233357 0.0174418 1.15614)
(0.0600124 0.0429702 1.85505)
(0.139805 -0.187963 0.646249)
(0.0546833 -0.114954 0.629011)
(-0.0529064 0.011976 1.04806)
(0.0415102 0.211831 1.063)
(-0.0294792 0.0314522 2.14631)
(-0.134646 0.0835768 1.58342)
(0.206969 -0.114234 1.25926)
(0.0588352 0.00553356 0.75954)
(-0.0424038 -0.114799 0.886612)
(-0.00283579 0.0726246 0.937407)
(0.164734 0.166711 1.90431)
(0.223967 0.172891 2.16727)
(0.329581 0.0616359 1.25571)
(0.155709 -0.101918 0.849238)
(0.0445668 -0.115697 0.864264)
(0.27852 0.141367 1.87667)
(0.315759 0.170125 1.32345)
(0.193217 -0.0592157 0.881383)
(0.305651 0.0171195 1.34781)
(0.190696 -0.153785 1.36625)
(0.281107 -0.220291 1.17134)
(0.305362 -0.0368491 1.13914)
(0.209491 0.0432542 1.26735)
(0.101401 0.107726 1.78935)
(0.1071 -0.176001 0.661241)
(0.0440964 -0.143785 0.653005)
(-0.0491349 0.0277083 1.09136)
(0.0649769 0.202839 1.08454)
(-0.018364 0.0651145 2.15456)
(-0.0301106 0.234426 1.54444)
(0.215516 -0.118772 1.08236)
(-0.00353167 -0.0280095 0.810911)
(-0.0406262 -0.11745 0.952891)
(-0.0073201 0.0744682 0.988015)
(0.119817 0.165415 1.77666)
(0.346192 0.220419 2.03586)
(0.379019 -0.0730022 1.26855)
(0.186993 -0.184665 0.916296)
(0.0506219 -0.132456 0.925695)
(0.309588 0.199508 1.89472)
(0.451422 0.153322 1.50724)
(0.298559 -0.103444 1.02288)
(0.347145 0.0127544 1.48722)
(0.219615 -0.269402 1.29257)
(0.333362 -0.271605 1.09269)
(0.351284 -0.00955939 1.26072)
(0.184461 0.0968507 1.40199)
(0.0860117 -0.0132282 1.56955)
(0.0326562 -0.193011 0.729903)
(0.0279116 -0.140716 0.693752)
(-0.00513158 0.0681493 1.11999)
(0.0869333 0.199705 1.09998)
(0.0172159 0.170069 2.10545)
(-0.0365834 0.179089 1.4235)
(0.176627 -0.102876 1.00208)
(-0.0468287 -0.0480724 0.885514)
(-0.035208 -0.0863654 1.03631)
(-0.0113587 0.0967956 1.04304)
(0.109651 0.160684 1.76493)
(0.387199 0.0973676 1.84713)
(0.349138 -0.204094 1.28706)
(0.144002 -0.228245 1.01059)
(0.0427558 -0.122932 1.00273)
(0.363556 0.264775 1.98052)
(0.531736 0.0961774 1.63803)
(0.377838 -0.136353 1.19437)
(0.33708 0.0204884 1.63668)
(0.216725 -0.273009 1.31371)
(0.250652 -0.214835 0.96681)
(0.364099 0.0309655 1.3687)
(0.162264 0.131772 1.49874)
(0.125484 -0.0250535 1.2946)
(-0.036308 -0.209038 0.804746)
(0.00634573 -0.123343 0.742174)
(0.0603859 0.125908 1.15092)
(0.118008 0.230633 1.12184)
(-0.00197293 0.256579 2.05185)
(0.0113416 0.0628214 1.3294)
(0.126267 -0.0986019 1.00632)
(-0.0792031 -0.063655 0.973396)
(-0.0317398 -0.0284114 1.13468)
(-0.0122499 0.145268 1.11202)
(0.0899317 0.0600922 1.82975)
(0.377817 -0.0469261 1.62616)
(0.284412 -0.239439 1.32683)
(0.0803024 -0.229024 1.12031)
(0.0255596 -0.0903532 1.09585)
(0.436008 0.28546 2.0242)
(0.596409 0.0459744 1.69679)
(0.429203 -0.175416 1.35123)
(0.319706 0.0308933 1.66481)
(0.179956 -0.230176 1.31804)
(0.0892571 -0.0419526 0.867766)
(0.329921 0.135868 1.35243)
(0.223146 0.154703 1.53808)
(0.0724749 0.0345043 1.13091)
(-0.0916035 -0.20846 0.866312)
(-0.0129712 -0.133387 0.783333)
(0.10528 0.167103 1.17777)
(0.1731 0.313196 1.18181)
(-0.00496686 0.19198 1.95781)
(0.153762 0.114671 1.32824)
(0.0564824 -0.117211 1.06434)
(-0.109753 -0.110397 1.03825)
(-0.0341938 0.0392346 1.22861)
(-0.0106977 0.203797 1.206)
(0.0859233 -0.00686451 1.86202)
(0.357111 -0.0585088 1.45841)
(0.193246 -0.186361 1.39049)
(0.0198859 -0.181927 1.24066)
(-0.00171851 -0.0377816 1.21109)
(0.457275 0.189648 1.91204)
(0.602889 0.016092 1.73207)
(0.448772 -0.1763 1.5407)
(0.296147 0.0255828 1.6618)
(0.0955786 -0.0567197 1.29003)
(-0.0385589 0.00607378 0.838886)
(0.107736 0.110429 1.16825)
(0.315337 0.219256 1.51336)
(-0.0212924 0.0759403 1.06111)
(-0.132637 -0.213031 0.920055)
(-0.00919327 -0.170741 0.800993)
(0.115543 0.178116 1.18926)
(0.217742 0.397557 1.29303)
(0.0248479 0.122207 1.76597)
(0.218706 0.143807 1.33007)
(-0.0153853 -0.157441 1.12441)
(-0.127809 -0.192072 1.05024)
(-0.0382665 0.0893816 1.29809)
(-0.0135342 0.244839 1.31832)
(0.129747 0.0703062 1.77943)
(0.286182 0.00675191 1.3701)
(0.0312133 -0.12319 1.48895)
(-0.0322957 -0.0749193 1.36057)
(-0.0295028 0.0150653 1.3299)
(0.404614 0.134012 1.69734)