/*--------------------------------*- C++ -*----------------------------------*\
| =========                 |                                                 |
| \\      /  F ield         | OpenFOAM: The Open Source CFD Toolbox           |
|  \\    /   O peration     | Version:  5.x                                   |
|   \\  /    A nd           | Web:      www.OpenFOAM.org                      |
|    \\/     M anipulation  |                                                 |
\*---------------------------------------------------------------------------*/
FoamFile
{
    version     2.0;
    format      ascii;
    class       volVectorField;
    location    "4";
    object      Us;
}
// * * * * * * * * * * * * * * * * * * * * * * * * * * * * * * * * * * * * * //

dimensions      [0 1 -1 0 0 0 0];

internalField   nonuniform List<vector> 
10571
(
(-0.0855599 -0.010105 0.0492328)
(0.0191193 0.0172254 -0.0527763)
(-0.133122 0.132252 0.0798134)
(-0.274859 0.0479964 0.0270968)
(-0.172437 -0.0151063 -0.126081)
(0.096305 0.092861 0.0199346)
(-0.332342 0.0971876 0.0632689)
(-0.265933 0.164013 0.0486859)
(-0.279043 0.0281197 -0.00177003)
(-0.0800804 -0.0370774 -0.173128)
(0.027981 0.00594791 0.00649958)
(0.0689457 -0.168408 0.0958127)
(-0.170701 0.00461549 0.105544)
(-0.38288 0.182423 0.0484886)
(-0.26578 0.0313122 -0.0800759)
(-0.1072 0.0564073 -0.138453)
(-0.0658273 -0.195471 -0.0296575)
(-0.0135111 -0.237726 0.13124)
(-0.217511 -0.0868962 0.128426)
(-0.203777 -0.0387791 0.0457075)
(-0.0527034 0.0385769 -0.112287)
(-0.0477549 -0.0805737 -0.147149)
(-0.0105232 -0.0721133 -0.0548698)
(-0.0439699 -0.00579011 -0.138402)
(-0.0914223 -0.00429289 0.0552601)
(-0.0802818 -0.0491408 -0.0158988)
(-0.158861 -0.0188573 0.213422)
(-0.154688 -0.0421404 0.173021)
(-0.0620039 0.0143241 -0.206946)
(-0.066246 -0.0958052 0.221204)
(-0.154687 -0.0179983 0.175483)
(-0.216513 -0.114353 0.164072)
(-0.0743805 -0.0707876 -0.11596)
(-0.0233107 -0.00892631 -0.255768)
(0.00377223 0.0417698 0.0392639)
(-0.077738 0.0296059 0.220003)
(-0.333761 0.0280798 0.274444)
(-0.238535 -0.0575739 0.132096)
(-0.048222 -0.036564 -0.149359)
(-0.0313933 0.0271481 -0.206767)
(-0.334209 -0.136666 -0.010661)
(-0.250789 -0.0492766 -0.0249833)
(-0.162881 -0.0105443 0.0241115)
(-0.0521013 0.029858 -0.131809)
(-0.00969588 0.0336643 -0.152218)
(-0.103896 -0.0232436 -0.245883)
(-0.0730844 0.0344672 -0.244844)
(-0.0104907 0.0194377 -0.24116)
(-0.0321108 -9.22813e-05 -0.0441568)
(-0.0125063 -0.0375421 -0.257335)
(-0.189765 -0.122421 0.23031)
(-0.0654304 -0.128775 0.285615)
(0.0119404 0.0286636 -0.261836)
(-0.210724 -0.157748 0.19206)
(-0.0928262 -0.15267 0.22147)
(-0.104374 -0.19604 0.208082)
(0.0371212 0.0317351 -0.20265)
(-0.00210914 0.0636464 -0.300037)
(-0.0551933 0.0611734 0.137166)
(-0.210669 0.155368 0.353446)
(-0.212363 -0.12069 0.249067)
(-0.0744846 -0.12684 0.0377806)
(0.0425549 0.0130464 -0.193086)
(0.00580687 0.0433239 -0.220513)
(-0.228432 -0.00694196 0.0152614)
(-0.121474 0.0613518 -0.0764776)
(-0.0322282 0.0077831 -0.0602437)
(0.0112929 -0.0130535 -0.158485)
(0.0120358 -0.00771248 -0.134774)
(-0.0798303 -0.00656881 -0.156886)
(-0.0965387 0.0436219 -0.0931229)
(0.0263627 -0.0220242 -0.107648)
(0.0121344 -0.0321544 -0.261905)
(-0.00734903 0.00312405 -0.292178)
(-0.177713 -0.122547 0.0147464)
(-0.0328007 -0.216467 0.259847)
(0.0667551 0.0307036 -0.382364)
(-0.160487 -0.106106 0.16673)
(-0.106372 -0.184235 0.21829)
(-0.00178192 -0.0530596 0.0337765)
(0.126173 0.071147 -0.288548)
(0.0607736 0.100485 -0.33372)
(-0.0639286 -0.0653945 0.0144996)
(-0.223533 0.0171402 0.391519)
(-0.0581398 0.0642798 -0.0555402)
(0.095802 0.111774 -0.229581)
(0.126101 0.104621 -0.262644)
(0.0495079 0.0633274 -0.309055)
(-0.101722 0.086302 -0.00575942)
(-0.00271619 0.166828 -0.125848)
(0.0174508 0.0733858 -0.0311687)
(0.00855723 -0.034846 -0.124679)
(0.0258721 -0.067602 -0.189499)
(0.0560773 0.000814538 -0.0994155)
(-0.0783415 0.0202943 -0.0746689)
(-0.0111136 -0.00827109 -0.142029)
(0.0205369 -0.000282968 -0.422394)
(-0.0402887 0.0418451 -0.261649)
(-0.107052 -0.0117538 -0.0799346)
(-0.0582904 -0.0897654 0.0898562)
(0.0762748 0.00995781 -0.373593)
(-0.0926017 -0.00830696 -0.147317)
(-0.00457784 0.0574385 -0.209654)
(0.0461384 0.0960817 -0.257745)
(0.141263 0.0794645 -0.282965)
(0.122108 0.0857457 -0.349584)
(-0.0253025 -0.041715 0.0715012)
(-0.124054 0.0824202 -0.0690071)
(-0.00456863 0.113454 -0.213825)
(0.0520063 0.118083 -0.26189)
(0.0539 0.176482 -0.399811)
(-0.10337 0.000986271 -0.311967)
(0.0384421 0.0739983 -0.0962679)
(0.0303969 0.203736 -0.217602)
(-0.00444109 0.0822896 -0.112896)
(0 0 0)
(0 0 0)
(0.180956 0.0693633 -0.189434)
(0 0 0)
(0 0 0)
(0.011535 0.00236752 -0.323618)
(-0.0542295 0.0496107 -0.23878)
(-0.0417606 0.056498 -0.0763552)
(-0.0568081 -0.0401994 -0.00321613)
(0.105959 -0.0223566 -0.307466)
(-0.0530293 -0.0252494 -0.131829)
(-0.00814708 0.10617 -0.222995)
(0.0490562 0.103505 -0.221385)
(0.138594 0.0722286 -0.22118)
(-0.0641428 0.0477829 -0.171882)
(-0.0123971 0.00897464 -0.00687432)
(-0.0205718 -0.00474944 0.112348)
(-0.0887781 0.07074 -0.00861912)
(-0.00162569 0.123498 -0.230562)
(0.0240961 0.115195 -0.241149)
(0 0 0)
(-0.0949503 -0.0416034 -0.176438)
(-0.0069135 -0.0024259 -0.00237075)
(0.017812 0.119752 -0.0114251)
(0.057779 0.22384 -0.0751816)
(0 0 0)
(0 0 0)
(0 0 0)
(0.206224 0.137462 -0.1732)
(0 0 0)
(0 0 0)
(0.0391598 0.000239932 -0.256581)
(-0.0527766 0.0513326 -0.197535)
(-0.0145809 -0.0187249 0.0726137)
(0.0283811 0.00525752 -0.140241)
(0.139889 0.00171543 -0.246378)
(-0.0201747 0.0298077 -0.109939)
(-0.0240753 0.136966 -0.141596)
(0.0536021 0.0872484 -0.139823)
(0.119725 0.0707104 -0.148)
(0 0 0)
(-0.0144795 0.00513651 -0.0109631)
(-0.00720198 0.0228462 0.0925814)
(-0.0293108 0.03621 0.0783546)
(-0.0667153 0.21095 -0.196127)
(0.0384595 0.196482 -0.207967)
(0 0 0)
(0 0 0)
(0 0 0)
(0.0492677 0.0982161 0.0536373)
(0 0 0)
(0 0 0)
(0 0 0)
(0 0 0)
(0 0 0)
(0.260587 0.0470021 -0.100543)
(0 0 0)
(0 0 0)
(0.0867565 -0.00360822 -0.202119)
(-0.0543182 0.0573546 -0.150295)
(-0.0145946 -0.0315651 0.190766)
(0.0271082 0.01143 -0.0577696)
(0 0 0)
(-0.0600483 0.0665241 -0.0737747)
(-0.0317798 0.117245 -0.0649546)
(0.0415295 0.0945348 -0.0617793)
(0 0 0)
(0 0 0)
(0 0 0)
(0.0181006 0.0243451 -0.0567056)
(0.0569834 0.0632721 0.141986)
(0 0 0)
(0 0 0)
(0 0 0)
(0 0 0)
(0 0 0)
(0.0789384 0.0899149 0.076382)
(0 0 0)
(0 0 0)
(0 0 0)
(0 0 0)
(0 0 0)
(0 0 0)
(0 0 0)
(0 0 0)
(0 0 0)
(-0.0465779 0.0511349 -0.0590374)
(-0.0406219 -0.0241406 0.173401)
(0.0545388 -0.0324979 0.0784939)
(0.190396 0.0409536 -0.0705959)
(-0.157494 0.0757152 0.0397781)
(-0.0378638 0.074849 0.0437944)
(0.0481003 0.0752751 0.0570841)
(0 0 0)
(0 0 0)
(0 0 0)
(0.0077534 0.012062 -0.0413672)
(0.126397 0.00940993 0.175858)
(0 0 0)
(0 0 0)
(0 0 0)
(0 0 0)
(0 0 0)
(0.0780522 0.108303 0.153126)
(0 0 0)
(0 0 0)
(0 0 0)
(0 0 0)
(0.218123 -0.0668853 0.0276039)
(0 0 0)
(0 0 0)
(0 0 0)
(-0.0720813 0.0368148 0.0518552)
(-0.0449144 -0.0327496 0.210922)
(0.0541091 -0.0145545 0.145701)
(0 0 0)
(-0.0336126 0.0244562 0.0713385)
(0 0 0)
(0 0 0)
(0 0 0)
(0 0 0)
(-0.00343009 0.00248044 0.0207805)
(0.0963898 0.0303697 0.213615)
(0 0 0)
(0 0 0)
(0 0 0)
(0 0 0)
(0.0833342 0.137861 0.207877)
(0 0 0)
(0 0 0)
(0 0 0)
(0 0 0)
(0 0 0)
(0 0 0)
(0 0 0)
(0 0 0)
(-0.0463541 0.14954 0.0658374)
(-0.0463619 -0.0181649 0.220298)
(0 0 0)
(0 0 0)
(0.0925206 -0.049339 0.111789)
(0 0 0)
(0 0 0)
(0 0 0)
(0 0 0)
(0.0129117 -0.00161762 0.0500825)
(0.134238 0.0300765 0.19811)
(0.19957 0.0317921 0.263287)
(0 0 0)
(0 0 0)
(0 0 0)
(0.0615984 0.134556 0.201489)
(0 0 0)
(0 0 0)
(0 0 0)
(0 0 0)
(0 0 0)
(0 0 0)
(0 0 0)
(0 0 0)
(0 0 0)
(0 0 0)
(0 0 0)
(0 0 0)
(0 0 0)
(0 0 0)
(0 0 0)
(0 0 0)
(0 0 0)
(-0.0177506 0.00590232 0.129976)
(0 0 0)
(0 0 0)
(0 0 0)
(0 0 0)
(0 0 0)
(0 0 0)
(0 0 0)
(0 0 0)
(0 0 0)
(0 0 0)
(0 0 0)
(0 0 0)
(0 0 0)
(0 0 0)
(0 0 0)
(0 0 0)
(0 0 0)
(0 0 0)
(0 0 0)
(0 0 0)
(0 0 0)
(0 0 0)
(0 0 0)
(0 0 0)
(0 0 0)
(0 0 0)
(0 0 0)
(0 0 0)
(0 0 0)
(0 0 0)
(0 0 0)
(0 0 0)
(0 0 0)
(0 0 0)
(0 0 0)
(0 0 0)
(0 0 0)
(0 0 0)
(0 0 0)
(0 0 0)
(0 0 0)
(0 0 0)
(0 0 0)
(0 0 0)
(0 0 0)
(0 0 0)
(0 0 0)
(0 0 0)
(0 0 0)
(0 0 0)
(0 0 0)
(0 0 0)
(0 0 0)
(0 0 0)
(0 0 0)
(0 0 0)
(0 0 0)
(0 0 0)
(0 0 0)
(0 0 0)
(0 0 0)
(0 0 0)
(0 0 0)
(0 0 0)
(0 0 0)
(0 0 0)
(0 0 0)
(0 0 0)
(0 0 0)
(0 0 0)
(0 0 0)
(0 0 0)
(0 0 0)
(0 0 0)
(0 0 0)
(0 0 0)
(0 0 0)
(0 0 0)
(0 0 0)
(0 0 0)
(0 0 0)
(0 0 0)
(0 0 0)
(0 0 0)
(0 0 0)
(0 0 0)
(0 0 0)
(0 0 0)
(0 0 0)
(0 0 0)
(0 0 0)
(0 0 0)
(0 0 0)
(0 0 0)
(0 0 0)
(0 0 0)
(0 0 0)
(0 0 0)
(0 0 0)
(0 0 0)
(0 0 0)
(0 0 0)
(0 0 0)
(0 0 0)
(0 0 0)
(0 0 0)
(0 0 0)
(0 0 0)
(0 0 0)
(0 0 0)
(0 0 0)
(0 0 0)
(0 0 0)
(0 0 0)
(0 0 0)
(0 0 0)
(0 0 0)
(0 0 0)
(0 0 0)
(0 0 0)
(0 0 0)
(0 0 0)
(0 0 0)
(0 0 0)
(0 0 0)
(0 0 0)
(0 0 0)
(0 0 0)
(0 0 0)
(0 0 0)
(0 0 0)
(0 0 0)
(0 0 0)
(0 0 0)
(0 0 0)
(0 0 0)
(0 0 0)
(0 0 0)
(0 0 0)
(0 0 0)
(0 0 0)
(0 0 0)
(0 0 0)
(0 0 0)
(0 0 0)
(0 0 0)
(0 0 0)
(0 0 0)
(0 0 0)
(0 0 0)
(0 0 0)
(0 0 0)
(0 0 0)
(0 0 0)
(0 0 0)
(0 0 0)
(0 0 0)
(0 0 0)
(0 0 0)
(0 0 0)
(0 0 0)
(0 0 0)
(0 0 0)
(0 0 0)
(0 0 0)
(0 0 0)
(0 0 0)
(0 0 0)
(0 0 0)
(0 0 0)
(0 0 0)
(0 0 0)
(0 0 0)
(0 0 0)
(0 0 0)
(0 0 0)
(0 0 0)
(0 0 0)
(0 0 0)
(0 0 0)
(0 0 0)
(0 0 0)
(0 0 0)
(0 0 0)
(0 0 0)
(0 0 0)
(0 0 0)
(0 0 0)
(0 0 0)
(0 0 0)
(0 0 0)
(0 0 0)
(0 0 0)
(0 0 0)
(0 0 0)
(0 0 0)
(0 0 0)
(0 0 0)
(0 0 0)
(0 0 0)
(0 0 0)
(0 0 0)
(0 0 0)
(0 0 0)
(0 0 0)
(0 0 0)
(0 0 0)
(0 0 0)
(0 0 0)
(0 0 0)
(0 0 0)
(0 0 0)
(0 0 0)
(0 0 0)
(0 0 0)
(0 0 0)
(0 0 0)
(0 0 0)
(0 0 0)
(0 0 0)
(0 0 0)
(0 0 0)
(0 0 0)
(0 0 0)
(0 0 0)
(0 0 0)
(0 0 0)
(0 0 0)
(0 0 0)
(0 0 0)
(0 0 0)
(0 0 0)
(0 0 0)
(0 0 0)
(0 0 0)
(0 0 0)
(0 0 0)
(0 0 0)
(0 0 0)
(0 0 0)
(0 0 0)
(0 0 0)
(0 0 0)
(0 0 0)
(0 0 0)
(0 0 0)
(0 0 0)
(0 0 0)
(0 0 0)
(0 0 0)
(0 0 0)
(0 0 0)
(0 0 0)
(0 0 0)
(0 0 0)
(0 0 0)
(0 0 0)
(0 0 0)
(0 0 0)
(0 0 0)
(0 0 0)
(0 0 0)
(0 0 0)
(0 0 0)
(0 0 0)
(0 0 0)
(0 0 0)
(0 0 0)
(0 0 0)
(0 0 0)
(0 0 0)
(0 0 0)
(0 0 0)
(0 0 0)
(0 0 0)
(0 0 0)
(0 0 0)
(0 0 0)
(0 0 0)
(0 0 0)
(0 0 0)
(0 0 0)
(0 0 0)
(0 0 0)
(0 0 0)
(0 0 0)
(0 0 0)
(0 0 0)
(0 0 0)
(0 0 0)
(0 0 0)
(0 0 0)
(0 0 0)
(0 0 0)
(0 0 0)
(0 0 0)
(0 0 0)
(0 0 0)
(0 0 0)
(0 0 0)
(0 0 0)
(0 0 0)
(0 0 0)
(0 0 0)
(0 0 0)
(0 0 0)
(0 0 0)
(0 0 0)
(0 0 0)
(0 0 0)
(0 0 0)
(0 0 0)
(0 0 0)
(0 0 0)
(0 0 0)
(0 0 0)
(0 0 0)
(0 0 0)
(0 0 0)
(0 0 0)
(0 0 0)
(0 0 0)
(0 0 0)
(0 0 0)
(0 0 0)
(0 0 0)
(0 0 0)
(0 0 0)
(0 0 0)
(0 0 0)
(0 0 0)
(0 0 0)
(0 0 0)
(0 0 0)
(0 0 0)
(0 0 0)
(0 0 0)
(0 0 0)
(0 0 0)
(0 0 0)
(0 0 0)
(0 0 0)
(0 0 0)
(0 0 0)
(0 0 0)
(0 0 0)
(0 0 0)
(0 0 0)
(0 0 0)
(0 0 0)
(0 0 0)
(0 0 0)
(0 0 0)
(0 0 0)
(0 0 0)
(0 0 0)
(0 0 0)
(0 0 0)
(0 0 0)
(0 0 0)
(0 0 0)
(0 0 0)
(0 0 0)
(0 0 0)
(0 0 0)
(0 0 0)
(0 0 0)
(0 0 0)
(0 0 0)
(0 0 0)
(0 0 0)
(0 0 0)
(0 0 0)
(0 0 0)
(0 0 0)
(0 0 0)
(0 0 0)
(0 0 0)
(0 0 0)
(0 0 0)
(0 0 0)
(0 0 0)
(0 0 0)
(0 0 0)
(0 0 0)
(0 0 0)
(0 0 0)
(0 0 0)
(0 0 0)
(0 0 0)
(0 0 0)
(0 0 0)
(0 0 0)
(0 0 0)
(0 0 0)
(0 0 0)
(0 0 0)
(0 0 0)
(0 0 0)
(0 0 0)
(0 0 0)
(0 0 0)
(0 0 0)
(0 0 0)
(0 0 0)
(0 0 0)
(0 0 0)
(0 0 0)
(0 0 0)
(0 0 0)
(0 0 0)
(0 0 0)
(0 0 0)
(0 0 0)
(0 0 0)
(0 0 0)
(0 0 0)
(0 0 0)
(0 0 0)
(0 0 0)
(0 0 0)
(0 0 0)
(0 0 0)
(0 0 0)
(0 0 0)
(0 0 0)
(0 0 0)
(0 0 0)
(0 0 0)
(0 0 0)
(0 0 0)
(0 0 0)
(0 0 0)
(0 0 0)
(0 0 0)
(0 0 0)
(0 0 0)
(0 0 0)
(0 0 0)
(0 0 0)
(0 0 0)
(0 0 0)
(0 0 0)
(0 0 0)
(0 0 0)
(0 0 0)
(0 0 0)
(0 0 0)
(0 0 0)
(0 0 0)
(0 0 0)
(0 0 0)
(0 0 0)
(0 0 0)
(0 0 0)
(0 0 0)
(0 0 0)
(0 0 0)
(0 0 0)
(0 0 0)
(0 0 0)
(0 0 0)
(0 0 0)
(0 0 0)
(0 0 0)
(0 0 0)
(0 0 0)
(0 0 0)
(0 0 0)
(0 0 0)
(0 0 0)
(0 0 0)
(0 0 0)
(0 0 0)
(0 0 0)
(0 0 0)
(0 0 0)
(0 0 0)
(0 0 0)
(0 0 0)
(0 0 0)
(0 0 0)
(0 0 0)
(0 0 0)
(0 0 0)
(0 0 0)
(0 0 0)
(0 0 0)
(0 0 0)
(0 0 0)
(0 0 0)
(0 0 0)
(0 0 0)
(0 0 0)
(0 0 0)
(0 0 0)
(0 0 0)
(0 0 0)
(0 0 0)
(0 0 0)
(0 0 0)
(0 0 0)
(0 0 0)
(0 0 0)
(0 0 0)
(0 0 0)
(0 0 0)
(0 0 0)
(0 0 0)
(0 0 0)
(0 0 0)
(0 0 0)
(0 0 0)
(0 0 0)
(0 0 0)
(0 0 0)
(0 0 0)
(0 0 0)
(0 0 0)
(0 0 0)
(0 0 0)
(0 0 0)
(0 0 0)
(0 0 0)
(0 0 0)
(0 0 0)
(0 0 0)
(0 0 0)
(0 0 0)
(0 0 0)
(0 0 0)
(0 0 0)
(0 0 0)
(0 0 0)
(0 0 0)
(0 0 0)
(0 0 0)
(0 0 0)
(0 0 0)
(0 0 0)
(0 0 0)
(0 0 0)
(0 0 0)
(0 0 0)
(0 0 0)
(0 0 0)
(0 0 0)
(0 0 0)
(0 0 0)
(0 0 0)
(0 0 0)
(0 0 0)
(0 0 0)
(0 0 0)
(0 0 0)
(0 0 0)
(0 0 0)
(0 0 0)
(0 0 0)
(0 0 0)
(0 0 0)
(0 0 0)
(0 0 0)
(0 0 0)
(0 0 0)
(0 0 0)
(0 0 0)
(0 0 0)
(0 0 0)
(0 0 0)
(0 0 0)
(0 0 0)
(0 0 0)
(0 0 0)
(0 0 0)
(0 0 0)
(0 0 0)
(0 0 0)
(0 0 0)
(0 0 0)
(0 0 0)
(0 0 0)
(0 0 0)
(0 0 0)
(0 0 0)
(0 0 0)
(0 0 0)
(0 0 0)
(0 0 0)
(0 0 0)
(0 0 0)
(0 0 0)
(0 0 0)
(0 0 0)
(0 0 0)
(0 0 0)
(0 0 0)
(0 0 0)
(0 0 0)
(0 0 0)
(0 0 0)
(0 0 0)
(0 0 0)
(0 0 0)
(0 0 0)
(0 0 0)
(0 0 0)
(0 0 0)
(0 0 0)
(0 0 0)
(0 0 0)
(0 0 0)
(0 0 0)
(0 0 0)
(0 0 0)
(0 0 0)
(0 0 0)
(0 0 0)
(0 0 0)
(0 0 0)
(0 0 0)
(0 0 0)
(0 0 0)
(0 0 0)
(0 0 0)
(0 0 0)
(0 0 0)
(0 0 0)
(0 0 0)
(0 0 0)
(0 0 0)
(0 0 0)
(0 0 0)
(0 0 0)
(0 0 0)
(0 0 0)
(0 0 0)
(0 0 0)
(0 0 0)
(0 0 0)
(0 0 0)
(0 0 0)
(0 0 0)
(0 0 0)
(0 0 0)
(0 0 0)
(0 0 0)
(0 0 0)
(0 0 0)
(0 0 0)
(0 0 0)
(0 0 0)
(0 0 0)
(0 0 0)
(0 0 0)
(0 0 0)
(0 0 0)
(0 0 0)
(0 0 0)
(0 0 0)
(0 0 0)
(0 0 0)
(0 0 0)
(0 0 0)
(0 0 0)
(0 0 0)
(0 0 0)
(0 0 0)
(0 0 0)
(0 0 0)
(0 0 0)
(0 0 0)
(0 0 0)
(0 0 0)
(0 0 0)
(0 0 0)
(0 0 0)
(0 0 0)
(0 0 0)
(0 0 0)
(0 0 0)
(0 0 0)
(0 0 0)
(0 0 0)
(0 0 0)
(0 0 0)
(0 0 0)
(0 0 0)
(0 0 0)
(0 0 0)
(0 0 0)
(0 0 0)
(0 0 0)
(0 0 0)
(0 0 0)
(0 0 0)
(0 0 0)
(0 0 0)
(0 0 0)
(0 0 0)
(0 0 0)
(0 0 0)
(0 0 0)
(0 0 0)
(0 0 0)
(0 0 0)
(0 0 0)
(0 0 0)
(0 0 0)
(0 0 0)
(0 0 0)
(0 0 0)
(0 0 0)
(0 0 0)
(0 0 0)
(0 0 0)
(0 0 0)
(0 0 0)
(0 0 0)
(0 0 0)
(0 0 0)
(0 0 0)
(0 0 0)
(0 0 0)
(0 0 0)
(0 0 0)
(0 0 0)
(0 0 0)
(0 0 0)
(0 0 0)
(0 0 0)
(0 0 0)
(0 0 0)
(0 0 0)
(0 0 0)
(0 0 0)
(0 0 0)
(0 0 0)
(0 0 0)
(0 0 0)
(0 0 0)
(0 0 0)
(0 0 0)
(0 0 0)
(0 0 0)
(0 0 0)
(0 0 0)
(0 0 0)
(0 0 0)
(0 0 0)
(0 0 0)
(0 0 0)
(0 0 0)
(0 0 0)
(0 0 0)
(0 0 0)
(0 0 0)
(0 0 0)
(0 0 0)
(0 0 0)
(0 0 0)
(0 0 0)
(0 0 0)
(0 0 0)
(0 0 0)
(0 0 0)
(0 0 0)
(0 0 0)
(0 0 0)
(0 0 0)
(0 0 0)
(0 0 0)
(0 0 0)
(0 0 0)
(0 0 0)
(0 0 0)
(0 0 0)
(0 0 0)
(0 0 0)
(0 0 0)
(0 0 0)
(0 0 0)
(0 0 0)
(0 0 0)
(0 0 0)
(0 0 0)
(0 0 0)
(0 0 0)
(0 0 0)
(0 0 0)
(0 0 0)
(0 0 0)
(0 0 0)
(0 0 0)
(0 0 0)
(0 0 0)
(0 0 0)
(0 0 0)
(0 0 0)
(0 0 0)
(0 0 0)
(0 0 0)
(0 0 0)
(0 0 0)
(0 0 0)
(0 0 0)
(0 0 0)
(0 0 0)
(0 0 0)
(0 0 0)
(0 0 0)
(0 0 0)
(0 0 0)
(0 0 0)
(0 0 0)
(0 0 0)
(0 0 0)
(0 0 0)
(0 0 0)
(0 0 0)
(0 0 0)
(0 0 0)
(0 0 0)
(0 0 0)
(0 0 0)
(0 0 0)
(0 0 0)
(0 0 0)
(0 0 0)
(0 0 0)
(0 0 0)
(0 0 0)
(0 0 0)
(0 0 0)
(0 0 0)
(0 0 0)
(0 0 0)
(0 0 0)
(0 0 0)
(0 0 0)
(0 0 0)
(0 0 0)
(0 0 0)
(0 0 0)
(0 0 0)
(0 0 0)
(0 0 0)
(0 0 0)
(0 0 0)
(0 0 0)
(0 0 0)
(0 0 0)
(0 0 0)
(0 0 0)
(0 0 0)
(0 0 0)
(0 0 0)
(0 0 0)
(0 0 0)
(0 0 0)
(0 0 0)
(0 0 0)
(0 0 0)
(0 0 0)
(0 0 0)
(0 0 0)
(0 0 0)
(0 0 0)
(0 0 0)
(0 0 0)
(0 0 0)
(0 0 0)
(0 0 0)
(0 0 0)
(0 0 0)
(0 0 0)
(0 0 0)
(0 0 0)
(0 0 0)
(0 0 0)
(0 0 0)
(0 0 0)
(0 0 0)
(0 0 0)
(0 0 0)
(0 0 0)
(0 0 0)
(0 0 0)
(0 0 0)
(0 0 0)
(0 0 0)
(0 0 0)
(0 0 0)
(0 0 0)
(0 0 0)
(0 0 0)
(0 0 0)
(0 0 0)
(0 0 0)
(0 0 0)
(0 0 0)
(0 0 0)
(0 0 0)
(0 0 0)
(0 0 0)
(0 0 0)
(0 0 0)
(0 0 0)
(0 0 0)
(0 0 0)
(0 0 0)
(0 0 0)
(0 0 0)
(0 0 0)
(0 0 0)
(0 0 0)
(0 0 0)
(0 0 0)
(0 0 0)
(0 0 0)
(0 0 0)
(0 0 0)
(0 0 0)
(0 0 0)
(0 0 0)
(0 0 0)
(0 0 0)
(0 0 0)
(0 0 0)
(0 0 0)
(0 0 0)
(0 0 0)
(0 0 0)
(0 0 0)
(0 0 0)
(0 0 0)
(0 0 0)
(0 0 0)
(0 0 0)
(0 0 0)
(0 0 0)
(0 0 0)
(0 0 0)
(0 0 0)
(0 0 0)
(0 0 0)
(0 0 0)
(0 0 0)
(0 0 0)
(0 0 0)
(0 0 0)
(0 0 0)
(0 0 0)
(0 0 0)
(0 0 0)
(0 0 0)
(0 0 0)
(0 0 0)
(0 0 0)
(0 0 0)
(0 0 0)
(0 0 0)
(0 0 0)
(0 0 0)
(0 0 0)
(0 0 0)
(0 0 0)
(0 0 0)
(0 0 0)
(0 0 0)
(0 0 0)
(0 0 0)
(0 0 0)
(0 0 0)
(0 0 0)
(0 0 0)
(0 0 0)
(0 0 0)
(0 0 0)
(0 0 0)
(0 0 0)
(0 0 0)
(0 0 0)
(0 0 0)
(0 0 0)
(0 0 0)
(0 0 0)
(0 0 0)
(0 0 0)
(0 0 0)
(0 0 0)
(0 0 0)
(0 0 0)
(0 0 0)
(0 0 0)
(0 0 0)
(0 0 0)
(0 0 0)
(0 0 0)
(0 0 0)
(0 0 0)
(0 0 0)
(0 0 0)
(0 0 0)
(0 0 0)
(0 0 0)
(0 0 0)
(0 0 0)
(0 0 0)
(0 0 0)
(0 0 0)
(0 0 0)
(0 0 0)
(0 0 0)
(0 0 0)
(0 0 0)
(0 0 0)
(0 0 0)
(0 0 0)
(0 0 0)
(0 0 0)
(0 0 0)
(0 0 0)
(0 0 0)
(0 0 0)
(0 0 0)
(0 0 0)
(0 0 0)
(0 0 0)
(0 0 0)
(0 0 0)
(0 0 0)
(0 0 0)
(0 0 0)
(0 0 0)
(0 0 0)
(0 0 0)
(0 0 0)
(0 0 0)
(0 0 0)
(0 0 0)
(0 0 0)
(0 0 0)
(0 0 0)
(0 0 0)
(0 0 0)
(0 0 0)
(0 0 0)
(0 0 0)
(0 0 0)
(0 0 0)
(0 0 0)
(0 0 0)
(0 0 0)
(0 0 0)
(0 0 0)
(0 0 0)
(0 0 0)
(0 0 0)
(0 0 0)
(0 0 0)
(0 0 0)
(0 0 0)
(0 0 0)
(0 0 0)
(0 0 0)
(0 0 0)
(0 0 0)
(0 0 0)
(0 0 0)
(0 0 0)
(0 0 0)
(0 0 0)
(0 0 0)
(0 0 0)
(0 0 0)
(0 0 0)
(0 0 0)
(0 0 0)
(0 0 0)
(0 0 0)
(0 0 0)
(0 0 0)
(0 0 0)
(0 0 0)
(0 0 0)
(0 0 0)
(0 0 0)
(0 0 0)
(0 0 0)
(0 0 0)
(0 0 0)
(0 0 0)
(0 0 0)
(0 0 0)
(0 0 0)
(0 0 0)
(0 0 0)
(0 0 0)
(0 0 0)
(0 0 0)
(0 0 0)
(0 0 0)
(0 0 0)
(0 0 0)
(0 0 0)
(0 0 0)
(0 0 0)
(0 0 0)
(0 0 0)
(0 0 0)
(0 0 0)
(0 0 0)
(0 0 0)
(0 0 0)
(0 0 0)
(0 0 0)
(0 0 0)
(0 0 0)
(0 0 0)
(0 0 0)
(0 0 0)
(0 0 0)
(0 0 0)
(0 0 0)
(0 0 0)
(0 0 0)
(0 0 0)
(0 0 0)
(0 0 0)
(0 0 0)
(0 0 0)
(0 0 0)
(0 0 0)
(0 0 0)
(0 0 0)
(0 0 0)
(0 0 0)
(0 0 0)
(0 0 0)
(0 0 0)
(0 0 0)
(0 0 0)
(0 0 0)
(0 0 0)
(0 0 0)
(0 0 0)
(0 0 0)
(0 0 0)
(0 0 0)
(0 0 0)
(0 0 0)
(0 0 0)
(0 0 0)
(0 0 0)
(0 0 0)
(0 0 0)
(0 0 0)
(0 0 0)
(0 0 0)
(0 0 0)
(0 0 0)
(0 0 0)
(0 0 0)
(0 0 0)
(0 0 0)
(0 0 0)
(0 0 0)
(0 0 0)
(0 0 0)
(0 0 0)
(0 0 0)
(0 0 0)
(0 0 0)
(0 0 0)
(0 0 0)
(0 0 0)
(0 0 0)
(0 0 0)
(0 0 0)
(0 0 0)
(0 0 0)
(0 0 0)
(0 0 0)
(0 0 0)
(0 0 0)
(0 0 0)
(0 0 0)
(0 0 0)
(0 0 0)
(0 0 0)
(0 0 0)
(0 0 0)
(0 0 0)
(0 0 0)
(0 0 0)
(0 0 0)
(0 0 0)
(0 0 0)
(0 0 0)
(0 0 0)
(0 0 0)
(0 0 0)
(0 0 0)
(0 0 0)
(0 0 0)
(0 0 0)
(0 0 0)
(0 0 0)
(0 0 0)
(0 0 0)
(0 0 0)
(0 0 0)
(0 0 0)
(0 0 0)
(0 0 0)
(0 0 0)
(0 0 0)
(0 0 0)
(0 0 0)
(0 0 0)
(0 0 0)
(0 0 0)
(0 0 0)
(0 0 0)
(0 0 0)
(0 0 0)
(0 0 0)
(0 0 0)
(0 0 0)
(0 0 0)
(0 0 0)
(0 0 0)
(0 0 0)
(0 0 0)
(0 0 0)
(0 0 0)
(0 0 0)
(0 0 0)
(0 0 0)
(0 0 0)
(0 0 0)
(0 0 0)
(0 0 0)
(0 0 0)
(0 0 0)
(0 0 0)
(0 0 0)
(0 0 0)
(0 0 0)
(0 0 0)
(0 0 0)
(0 0 0)
(0 0 0)
(0 0 0)
(0 0 0)
(0 0 0)
(0 0 0)
(0 0 0)
(0 0 0)
(0 0 0)
(0 0 0)
(0 0 0)
(0 0 0)
(0 0 0)
(0 0 0)
(0 0 0)
(0 0 0)
(0 0 0)
(0 0 0)
(0 0 0)
(0 0 0)
(0 0 0)
(0 0 0)
(0 0 0)
(0 0 0)
(0 0 0)
(0 0 0)
(0 0 0)
(0 0 0)
(0 0 0)
(0 0 0)
(0 0 0)
(0 0 0)
(0 0 0)
(0 0 0)
(0 0 0)
(0 0 0)
(0 0 0)
(0 0 0)
(0 0 0)
(0 0 0)
(0 0 0)
(0 0 0)
(0 0 0)
(0 0 0)
(0 0 0)
(0 0 0)
(0 0 0)
(0 0 0)
(0 0 0)
(0 0 0)
(0 0 0)
(0 0 0)
(0 0 0)
(0 0 0)
(0 0 0)
(0 0 0)
(0 0 0)
(0 0 0)
(0 0 0)
(0 0 0)
(0 0 0)
(0 0 0)
(0 0 0)
(0 0 0)
(0 0 0)
(0 0 0)
(0 0 0)
(0 0 0)
(0 0 0)
(0 0 0)
(0 0 0)
(0 0 0)
(0 0 0)
(0 0 0)
(0 0 0)
(0 0 0)
(0 0 0)
(0 0 0)
(0 0 0)
(0 0 0)
(0 0 0)
(0 0 0)
(0 0 0)
(0 0 0)
(0 0 0)
(0 0 0)
(0 0 0)
(0 0 0)
(0 0 0)
(0 0 0)
(0 0 0)
(0 0 0)
(0 0 0)
(0 0 0)
(0 0 0)
(0 0 0)
(0 0 0)
(0 0 0)
(0 0 0)
(0 0 0)
(0 0 0)
(0 0 0)
(0 0 0)
(0 0 0)
(0 0 0)
(0 0 0)
(0 0 0)
(0 0 0)
(0 0 0)
(0 0 0)
(0 0 0)
(0 0 0)
(0 0 0)
(0 0 0)
(0 0 0)
(0 0 0)
(0 0 0)
(0 0 0)
(0 0 0)
(0 0 0)
(0 0 0)
(0 0 0)
(0 0 0)
(0 0 0)
(0 0 0)
(0 0 0)
(0 0 0)
(0 0 0)
(0 0 0)
(0 0 0)
(0 0 0)
(0 0 0)
(0 0 0)
(0 0 0)
(0 0 0)
(0 0 0)
(0 0 0)
(0 0 0)
(0 0 0)
(0 0 0)
(0 0 0)
(0 0 0)
(0 0 0)
(0 0 0)
(0 0 0)
(0 0 0)
(0 0 0)
(0 0 0)
(0 0 0)
(0 0 0)
(0 0 0)
(0 0 0)
(0 0 0)
(0 0 0)
(0 0 0)
(0 0 0)
(0 0 0)
(0 0 0)
(0 0 0)
(0 0 0)
(0 0 0)
(0 0 0)
(0 0 0)
(0 0 0)
(0 0 0)
(0 0 0)
(0 0 0)
(0 0 0)
(0 0 0)
(0 0 0)
(0 0 0)
(0 0 0)
(0 0 0)
(0 0 0)
(0 0 0)
(0 0 0)
(0 0 0)
(0 0 0)
(0 0 0)
(0 0 0)
(0 0 0)
(0 0 0)
(0 0 0)
(0 0 0)
(0 0 0)
(0 0 0)
(0 0 0)
(0 0 0)
(0 0 0)
(0 0 0)
(0 0 0)
(0 0 0)
(0 0 0)
(0 0 0)
(0 0 0)
(0 0 0)
(0 0 0)
(0 0 0)
(0 0 0)
(0 0 0)
(0 0 0)
(0 0 0)
(0 0 0)
(0 0 0)
(0 0 0)
(0 0 0)
(0 0 0)
(0 0 0)
(0 0 0)
(0 0 0)
(0 0 0)
(0 0 0)
(0 0 0)
(0 0 0)
(0 0 0)
(0 0 0)
(0 0 0)
(0 0 0)
(0 0 0)
(0 0 0)
(0 0 0)
(0 0 0)
(0 0 0)
(0 0 0)
(0 0 0)
(0 0 0)
(0 0 0)
(0 0 0)
(0 0 0)
(0 0 0)
(0 0 0)
(0 0 0)
(0 0 0)
(0 0 0)
(0 0 0)
(0 0 0)
(0 0 0)
(0 0 0)
(0 0 0)
(0 0 0)
(0 0 0)
(0 0 0)
(0 0 0)
(0 0 0)
(0 0 0)
(0 0 0)
(0 0 0)
(0 0 0)
(0 0 0)
(0 0 0)
(0 0 0)
(0 0 0)
(0 0 0)
(0 0 0)
(0 0 0)
(0 0 0)
(0 0 0)
(0 0 0)
(0 0 0)
(0 0 0)
(0 0 0)
(0 0 0)
(0 0 0)
(0 0 0)
(0 0 0)
(0 0 0)
(0 0 0)
(0 0 0)
(0 0 0)
(0 0 0)
(0 0 0)
(0 0 0)
(0 0 0)
(0 0 0)
(0 0 0)
(0 0 0)
(0 0 0)
(0 0 0)
(0 0 0)
(0 0 0)
(0 0 0)
(0 0 0)
(-0.0197849 0.0595206 -0.01782)
(-0.0386453 0.0346836 -0.0447596)
(-0.0723866 0.0867983 -0.0335083)
(-0.0871549 0.064927 -0.0456957)
(-0.0306789 0.0237325 -0.0358305)
(-0.148003 0.0203659 -0.0285396)
(-0.171395 0.00140488 -0.0158431)
(-0.142372 -0.0342705 -0.0333589)
(0.060937 0.039703 -0.0547239)
(0.0493206 0.0311881 -0.0223137)
(0.0185853 0.100635 0.00430986)
(0.111962 0.0886648 -0.0099857)
(0.0284356 0.168099 0.00801418)
(-0.105112 0.170024 -0.00618311)
(-0.258464 0.0890914 -0.0482478)
(-0.226324 0.157444 -0.0467704)
(-0.206538 0.0726275 -0.0705008)
(-0.325084 0.0784865 -0.03546)
(-0.297088 0.0431886 -0.0244801)
(-0.335659 0.147415 -0.0452074)
(-0.352022 0.147602 -0.0244648)
(-0.205567 0.00542331 -0.0470242)
(-0.0980717 -0.0165678 -0.0421561)
(-0.270567 0.0988503 -0.0348416)
(-0.146399 0.036486 -0.042358)
(-0.0466174 0.00801193 -0.0483891)
(0.0823517 0.0915569 -0.0438025)
(0.029734 0.00303474 -0.0184239)
(0.0829764 0.0490409 -0.00647333)
(0.140598 0.130074 -0.00718402)
(-0.104754 0.128533 0.0242277)
(0.114343 0.0591521 0.00296018)
(-0.0418025 0.0595795 0.0283191)
(-0.288018 0.047817 -0.054369)
(-0.221669 0.068801 -0.0647055)
(-0.16332 0.00224689 0.00109613)
(-0.205144 0.0695121 -0.054659)
(-0.254451 0.124264 -0.0271862)
(-0.318056 0.143072 -0.00718705)
(-0.222927 0.0865247 -0.0210913)
(-0.266958 0.0827818 0.00182397)
(-0.280623 0.137991 -0.0157737)
(-0.197153 0.0850793 -0.048027)
(-0.258824 0.0891727 0.00102676)
(-0.184075 0.0508976 -0.0421748)
(-0.0662184 0.0540962 -0.0631245)
(-0.0411686 0.0327666 -0.0390549)
(-0.000314265 0.000849647 2.41465e-05)
(0.0312222 -0.0287208 -0.0362456)
(0.0657917 -0.0624845 -0.00925738)
(0.0292546 -0.105137 0.00332405)
(0.104276 -0.194968 0.0306141)
(-0.173654 0.00123954 0.0145389)
(0.0580303 -0.242554 0.0452779)
(-0.00541636 -0.263296 0.0506567)
(-0.131986 -0.0377967 0.00684024)
(-0.10872 -0.0252921 -0.000517529)
(-0.062008 -0.120371 0.0236684)
(-0.0857677 -0.0593299 0.0186297)
(-0.143958 0.0265964 0.0113373)
(-0.315317 0.0715621 -0.0133466)
(-0.113352 -0.0439504 0.0196236)
(-0.227637 -0.0366239 0.0175178)
(-0.283306 0.0351663 -0.0561815)
(-0.179058 -0.00609933 -0.053254)
(-0.299795 0.0305727 -0.0342627)
(-0.206101 0.0155766 -0.0472655)
(-0.0367387 -0.0222307 -0.0301057)
(-3.89896e-05 -0.000569109 0.000377123)
(-0.073803 -0.0121167 -0.0459047)
(-0.0159683 -0.10788 -0.00790681)
(-0.0197231 -0.206326 -0.00389318)
(0.0324029 -0.296652 0.0240689)
(-0.0427217 -0.126676 -0.0380458)
(-0.0185264 -0.195031 -0.0272095)
(-0.0169148 -0.203717 0.0377911)
(-0.0593406 -0.109176 0.0361216)
(0.00995347 -0.249553 0.0185158)
(-0.00314132 -0.140751 0.0176152)
(-0.113684 -0.0999383 0.0350175)
(-0.153309 -0.0697469 0.0235909)
(-0.0874754 -0.136503 0.0393954)
(-0.10651 -0.135178 0.0352449)
(-0.184142 0.00480383 0.0155929)
(-0.151972 0.0461944 -0.00693273)
(-0.0219456 -0.0340844 0.00232052)
(-0.0158973 0.0181978 0.00273322)
(-0.0692538 0.0214194 -0.0354471)
(-0.045492 -0.0900798 -0.0419837)
(-0.0246937 -0.105937 -0.0492182)
(0.0248214 -0.0689512 -0.0340613)
(0.00424491 0.0159641 -0.0299673)
(0.00102874 -0.0782282 -0.00419952)
(-0.0327299 -0.065867 -0.0182576)
(0.0141896 -0.0141331 -0.0507685)
(-0.0210302 -0.0293342 -0.0294681)
(-0.0383299 0.0389636 0.0228485)
(-0.0575039 0.0345479 0.0329167)
(-0.0719441 0.0269072 0.0502664)
(-0.0829724 0.0636428 0.0452766)
(-0.106166 0.054166 0.0607944)
(-0.106278 0.0206819 0.0768299)
(-0.102569 0.0525287 0.0735264)
(-0.139394 0.0455941 0.11877)
(-0.16263 -0.00159459 0.050973)
(-0.185653 -0.023971 -0.0431826)
(-0.104122 -0.00210798 0.0772781)
(-0.149481 0.000259093 0.102291)
(-0.112286 -0.0159761 -0.0341963)
(-0.132347 -0.0473126 -0.104093)
(-0.0710295 -0.0219349 -0.151294)
(0.0247496 0.0300356 -0.152788)
(0.0120332 0.00955567 -0.210063)
(-0.0259008 0.0722594 0.0550925)
(0.0736191 0.0301306 -0.03762)
(-0.0265213 0.150164 0.104725)
(-0.00869237 0.0046146 -0.0542775)
(-0.0700891 0.0327927 0.105689)
(0.0272444 -0.0510909 -0.0242367)
(-0.07109 0.062571 0.19022)
(-0.0969189 -0.0377712 -0.130014)
(-0.239029 0.0253015 -0.0915167)
(-0.138029 -0.00710599 -0.132263)
(-0.110392 -0.00365887 -0.178592)
(-0.0629678 -0.0269382 -0.196844)
(-0.184947 -0.0336978 -0.0986753)
(-0.0980117 -0.0224807 -0.202812)
(-0.0492422 -0.0332452 -0.125243)
(-0.037246 -0.0382163 -0.198514)
(0.0267007 0.0597057 -0.122258)
(0.0392426 0.0540467 -4.97821e-05)
(0.0604786 0.0665619 0.0227185)
(-0.0129406 0.0301467 -0.148406)
(0.00301223 0.0578249 -0.000461107)
(0.0169667 0.0636605 0.0419135)
(-0.10902 -0.0298 -0.161946)
(-0.0117885 -0.00380607 -0.0167398)
(-0.0530582 -0.0470334 -0.22528)
(-0.083778 -0.0480967 -0.215367)
(-0.0202201 -0.0255586 -0.052673)
(0.0416195 -0.0436766 0.0681341)
(-0.00203706 -0.0806936 0.0467319)
(0.00920286 0.0375568 0.030055)
(0.0208195 0.00855681 0.106826)
(-0.022345 -0.0322177 0.0879001)
(-0.0141136 0.0205566 -0.024373)
(-0.0840413 0.0485346 -0.116523)
(-0.0541797 0.0341842 -0.183814)
(-0.0149513 0.0121204 -0.0630251)
(-0.0438213 0.0686133 -0.157779)
(-0.0416852 -0.102438 -0.00462699)
(-0.0525856 -0.0775054 0.0289304)
(-0.0419534 -0.254147 -0.00497042)
(-0.0800417 -0.123652 -0.108566)
(-0.0564462 -0.165358 -0.100217)
(-0.157354 -0.169718 -0.0276504)
(-0.20792 -0.187049 -0.0520886)
(-0.091599 -0.103511 -0.149817)
(-0.122442 -0.117847 -0.162248)
(-0.118829 -0.00330419 -0.0818474)
(-0.120152 -0.0419516 -0.0486325)
(-0.0834883 0.0280165 -0.0782787)
(-0.173212 -0.0549366 -0.0179223)
(-0.0317301 0.0084964 -0.176327)
(-0.115407 0.02098 -0.136368)
(-0.0680033 0.0409051 -0.19426)
(-0.029551 0.0516463 -0.162655)
(-0.071626 -0.0795533 -0.129146)
(-0.082796 -0.0618423 -0.198426)
(-0.0154684 -0.075906 -0.129308)
(-0.0315395 -0.0145749 -0.191458)
(-0.0826106 -0.0463345 -0.223094)
(-0.0837182 -0.0235284 -0.253307)
(-0.078247 -0.0104112 -0.282555)
(-0.0510856 -0.0468615 -0.0685487)
(-0.00413687 -0.0111532 -0.215582)
(-0.0428638 -0.000651118 -0.239728)
(-0.0206796 -0.0163465 -0.216094)
(-0.0634673 0.00880847 -0.301433)
(-0.0362593 0.0179889 -0.218957)
(-0.0707902 0.00815583 0.0778616)
(-0.142276 -0.0514102 0.160515)
(-0.114253 0.016479 0.0637456)
(-0.117506 0.0195284 0.104981)
(-0.153722 0.0224155 0.142239)
(-0.110623 0.0102445 0.0442105)
(-0.174606 -0.0207687 0.160964)
(-0.15999 -0.0137805 0.15347)
(-0.111889 0.00674008 0.101228)
(-0.0601756 0.00593368 -0.0538585)
(-0.0506858 -0.000785521 -8.16103e-05)
(-0.0661119 0.00154278 0.0817243)
(-0.00958407 0.0215979 -0.0859068)
(-0.0247276 -0.0030817 -0.18819)
(0.0132636 0.0234974 -0.222067)
(-0.013574 -0.0226811 -0.23716)
(-0.0433825 -0.024078 -0.264992)
(-0.112634 -0.0495385 0.156007)
(-0.0751801 -0.146711 0.0836119)
(-0.144281 -0.0469863 0.250217)
(-0.122215 -0.121363 -0.0238503)
(-0.158631 -0.125002 0.183112)
(-0.148635 -0.161791 0.0861018)
(-0.129536 -0.142353 0.217597)
(-0.0292411 -0.00249976 -0.242113)
(-0.152627 -0.0634627 -0.0799045)
(-0.0593892 -0.00337339 -0.246605)
(-0.0289759 0.0259398 -0.223944)
(-0.00162022 0.0235446 -0.284317)
(-0.102494 -0.0543736 -0.0869901)
(-0.0360359 0.0240403 -0.28164)
(-0.0139554 -0.00230144 -0.241147)
(0.00124634 0.0257129 -0.281768)
(-0.0442343 0.00561402 -0.0928238)
(-0.00822784 0.0492943 0.00760383)
(-0.0378474 0.0552536 0.0593405)
(-0.0785076 -0.0270291 -0.0785866)
(-0.0166849 0.0394882 0.0337279)
(-0.0603362 0.0368141 0.0962143)
(-0.051917 -0.00943153 -0.246436)
(-0.00656675 -0.00779946 -0.121166)
(-0.00486404 0.0337078 -0.281801)
(-0.0275779 0.0335059 -0.271887)
(-0.00132256 0.0358599 -0.18661)
(-0.0157798 0.0490865 0.141462)
(-0.0846048 0.0147281 0.151722)
(-0.00619221 0.0534166 0.0723141)
(-0.075972 0.0844434 0.197134)
(-0.175386 0.0343427 0.1898)
(-0.00966967 0.0131301 -0.114104)
(-0.0163523 0.0418458 -0.174921)
(-0.0270858 0.0317978 -0.223815)
(-0.0126709 0.0322049 -0.145079)
(-0.0114346 0.0175574 -0.175074)
(-0.139543 -0.105183 0.0121823)
(-0.228898 -0.128389 0.000105756)
(-0.351326 -0.156735 0.0367429)
(-0.0901154 -0.0893633 -0.171897)
(-0.177093 -0.0934453 -0.151101)
(-0.380187 -0.0964527 0.0411328)
(-0.381205 -0.112727 0.0781155)
(-0.0652191 -0.0482891 -0.180884)
(-0.157967 -0.0604872 -0.139033)
(-0.00380435 0.0336749 -0.180467)
(-0.0274304 0.0594263 -0.188153)
(-0.0231489 0.0374939 -0.180432)
(-2.83512e-05 0.0169823 -0.156422)
(-0.00124827 0.00962588 -0.168428)
(0.0202066 0.0188962 -0.156399)
(0.00254091 0.00478841 -0.147882)
(-0.00299709 0.00893805 -0.141771)
(-0.0812464 -0.0423927 -0.218252)
(-0.0736814 -0.0263568 -0.196547)
(-0.126167 0.00215907 -0.25738)
(-0.105918 0.00116084 -0.252701)
(-0.100543 -0.0189767 -0.203773)
(-0.125568 0.00106103 -0.193193)
(-0.113634 -0.00463817 -0.182635)
(0.00052789 0.00955462 -0.255927)
(-0.100686 0.0171377 -0.263351)
(-0.0990064 0.0457407 -0.150919)
(0.00318992 0.0212015 -0.166453)
(-0.118297 0.0230034 -0.180662)
(0.0151894 0.00290117 -0.170454)
(-0.170247 -0.122117 0.0223812)
(-0.0148332 0.0344799 -0.268087)
(-0.106286 0.000947566 0.00511792)
(-0.245581 -0.09923 0.176032)
(-0.17409 -0.05979 0.159953)
(-0.112391 -0.022552 -0.158446)
(-0.202009 -0.124237 0.0445796)
(-0.166874 -0.147483 0.121676)
(-0.0249929 -0.0280752 0.0630939)
(0.0548325 -0.0109105 -0.142283)
(-0.00361036 -0.00441463 -0.114276)
(-0.00735849 -0.0972431 0.0428257)
(0.0802884 -0.0519671 -0.256151)
(0.0495396 0.0265847 -0.297238)
(0.057298 0.0285796 -0.47315)
(-0.0339 0.00864241 -0.328733)
(-0.0216522 0.0216937 -0.347247)
(-0.185224 -0.139637 0.124723)
(-0.156923 -0.134197 0.0162389)
(-0.132569 -0.180578 0.213402)
(0.00935826 -0.00467027 -0.320172)
(-0.141754 -0.0302842 -0.10348)
(-0.0625403 -0.0338429 -0.18221)
(-0.146277 -0.17255 0.132742)
(0.0119955 0.0349331 -0.326421)
(-0.0499466 0.0172724 -0.127618)
(-0.0172373 0.0518471 -0.315282)
(0.0534154 0.0339514 -0.354998)
(0.0275167 0.0395889 -0.394362)
(0.0139702 0.0418618 -0.182078)
(0.0102023 0.0642953 -0.360173)
(0.0120755 0.0468975 -0.328012)
(0.0112669 0.058151 -0.349853)
(-0.122228 -0.0147852 -0.101651)
(-0.0302465 0.0273314 0.079715)
(-0.136053 0.0211302 0.17157)
(-0.0689436 0.0426824 -0.212691)
(-0.0598792 0.00964694 0.0837899)