/*--------------------------------*- C++ -*----------------------------------*\
| =========                 |                                                 |
| \\      /  F ield         | OpenFOAM: The Open Source CFD Toolbox           |
|  \\    /   O peration     | Version:  5.x                                   |
|   \\  /    A nd           | Web:      www.OpenFOAM.org                      |
|    \\/     M anipulation  |                                                 |
\*---------------------------------------------------------------------------*/
FoamFile
{
    version     2.0;
    format      ascii;
    class       volScalarField;
    location    "4.9";
    object      p;
}
// * * * * * * * * * * * * * * * * * * * * * * * * * * * * * * * * * * * * * //

dimensions      [0 2 -2 0 0 0 0];

internalField   nonuniform List<scalar> 
10571
(
126.594
155.091
163.075
148.503
171.129
133.041
161.049
175.446
180.113
121.579
162.888
155.419
169.914
182.933
202.321
206.316
175.158
150.778
191.78
213.445
239.649
190.11
247.218
292.107
99.4035
95.5472
93.2227
100.362
81.5017
113.664
112.418
121.922
90.3929
92.0326
129.112
127.013
97.2317
123.819
101.953
92.9981
91.8198
86.8357
100.976
116.579
117.193
94.9276
111.989
131.762
83.5919
87.6623
82.7183
82.1955
76.7967
91.9667
78.1218
75.9439
76.5582
83.3047
75.9245
74.7268
83.463
85.3052
76.1371
80.4112
78.7309
81.1554
93.9046
98.3003
85.0876
84.096
93.6293
93.2958
75.1817
76.6234
73.063
70.8112
73.5262
71.1226
67.9562
67.3225
69.8286
74.7283
71.6121
71.1417
72.1598
67.5011
69.5927
75.0056
73.7243
75.3923
68.1307
67.4353
71.2956
76.1493
72.0208
71.5395
70.2208
70.8563
69.5997
68.2026
70.5066
68.9703
68.0851
67.8032
68.2272
70.1274
69.5954
69.6232
66.9505
67.671
68.9069
72.0674
69.3159
70.5058
65.569
67.5467
68.8692
71.3133
67.7654
67.0872
68.0859
68.4616
68.3623
67.7954
68.6522
68.1471
67.9061
67.0949
67.3509
66.5874
65.2665
68.0621
68.0305
67.2373
66.6213
66.4729
66.7296
66.0471
67.1517
67.3446
65.5746
65.9601
66.3066
67.8981
66.2409
66.13
66.7324
67.382
67.0814
66.5927
67.9124
67.1526
67.408
66.1928
66.9017
64.6857
64.6193
66.8725
67.1352
66.8529
65.7324
64.8521
64.624
64.6781
66.2676
66.2585
65.3315
65.331
64.993
65.0797
65.9982
65.4707
65.5787
65.8029
66.1955
65.6086
65.7937
67.1359
66.198
66.2422
65.1951
65.1469
64.3803
64.5531
66.1563
66.3097
66.0435
65.146
64.8443
64.7009
64.6523
65.8999
65.9291
65.05
65.1063
64.8996
64.9454
65.3099
65.0677
65.2063
64.8332
64.6201
64.6583
64.7723
64.4789
65.2451
64.5057
64.3131
63.4448
64.1146
65.1202
65.4701
65.4476
64.7119
64.7021
64.6744
64.3251
64.6686
65.3825
65.7694
64.8367
64.8371
64.4363
65.0151
64.8436
64.9437
63.9056
64.0388
64.1907
63.9345
63.0881
64.2798
63.936
64.12
64.0454
64.0165
64.8045
64.7018
63.5301
64.3934
64.402
64.3487
64.8171
64.7086
64.5433
64.5633
64.3378
64.5272
64.54
64.6643
63.611
63.7677
63.9205
63.7245
63.417
63.6656
64.0602
64.119
64.1294
64.0412
64.1246
63.9584
63.6456
64.2434
64.2097
64.2432
64.2337
63.5526
64.2256
64.3876
64.3396
64.0496
64.2475
64.4329
63.7515
63.7339
63.8441
63.7928
63.7683
63.6562
64.083
64.09
64.0663
64.0967
63.7337
63.825
63.8792
64.206
64.159
64.266
63.8595
63.926
64.1152
64.2398
64.2812
64.0261
64.1518
64.2736
63.8913
63.7509
63.8739
63.9269
63.9719
63.6997
64.0343
64.0363
64.0377
64.101
63.7056
63.741
63.942
64.1817
64.1295
64.2147
63.9101
64.0298
64.0823
64.1893
64.2299
64.0051
64.0887
64.1964
63.9422
63.8197
63.9115
63.9463
63.965
63.7432
63.9836
63.9948
64.0254
64.0755
63.7662
63.7177
63.9146
64.1467
64.0816
64.1506
63.9446
63.9091
64.0352
64.123
64.1451
63.9285
64.0185
64.1396
63.9678
63.8773
63.9271
63.9432
63.9516
63.8169
63.938
63.9806
64.0017
64.0413
63.8329
63.8247
63.8966
64.1035
64.0404
64.0683
63.9346
63.8183
64.0024
64.0665
64.0801
63.9084
63.9834
64.103
63.9818
63.8984
63.9136
63.9505
63.9815
63.8602
63.9119
63.9738
63.984
64.0233
63.8602
63.8715
63.8965
64.0655
64.0243
64.0748
63.9097
63.7886
63.9853
64.0352
64.058
63.9131
63.9689
64.0729
63.9785
63.9072
63.9008
63.9586
64.0152
63.8527
63.9024
63.9604
63.9691
64.0051
63.8861
63.8506
63.8968
64.0369
64.0288
64.0829
63.8968
63.7734
63.952
64.0043
64.0445
63.9109
63.9574
64.0446
63.9666
63.9107
63.8848
63.9421
64.0172
63.8587
63.8918
63.9588
63.9586
63.9762
63.8996
63.8543
63.8963
64.0037
64.0114
63.9897
63.8495
63.7654
63.9136
63.9731
64.0034
63.9013
63.9424
64.0182
63.9395
63.9047
63.8813
63.9293
63.9905
63.8602
63.8801
63.9433
63.9524
63.9647
63.8803
63.8484
63.8859
63.9331
63.9625
64.0371
63.7795
63.7689
63.8705
63.932
63.965
63.8784
63.92
63.9564
63.9109
63.8999
63.8676
63.9049
63.9424
63.8496
63.8601
63.8928
63.9275
63.9583
63.8428
63.8099
63.8625
63.8385
63.877
63.9688
63.6865
63.7695
63.8349
63.8725
63.9242
63.8524
63.8835
63.8874
63.882
63.8903
63.8579
63.8748
63.8848
63.8321
63.8291
63.8132
63.8163
63.8697
63.8221
63.797
63.8222
63.7597
63.8252
63.8706
63.694
63.767
63.8173
63.8408
63.8569
63.8282
63.8555
63.8462
63.8464
63.8619
63.8429
63.8396
63.8341
63.8122
63.8167
63.756
63.7726
63.6928
63.8123
63.7914
63.799
63.7483
63.7734
63.7233
63.7509
63.7673
63.7999
63.854
63.8014
63.8104
63.8328
63.822
63.82
63.8352
63.8249
63.811
63.8034
63.7974
63.8087
63.7401
63.8122
63.6832
63.7958
63.782
63.7863
63.7783
63.7182
63.65
63.7994
63.7657
63.7704
63.804
63.7613
63.7931
63.7995
63.7862
63.8078
63.8254
63.8078
63.7996
63.7956
63.7881
63.8054
63.8326
63.8048
63.7249
63.7842
63.7745
63.7682
63.7826
63.7151
63.671
63.8035
63.7525
63.7287
63.7468
63.7423
63.7817
63.77
63.7434
63.8003
63.8131
63.7915
63.7994
63.7978
63.7829
63.7918
63.9262
63.7659
63.7238
63.7751
63.7711
63.7435
63.7613
63.7219
63.7259
63.7877
63.741
63.6961
63.7062
63.7335
63.7731
63.7531
63.7089
63.7958
63.7948
63.7715
63.8027
63.7972
63.7759
63.772
63.9442
63.7383
63.7626
63.7603
63.7668
63.7228
63.7099
63.7059
63.7545
63.7708
63.73
63.6779
63.6626
63.717
63.7648
63.7438
63.6833
63.7833
63.7732
63.7489
63.7902
63.7876
63.7563
63.7579
63.8781
63.6998
63.8343
63.7384
63.7438
63.6961
63.6326
63.6636
63.7677
63.7425
63.7147
63.6601
63.6182
63.6781
63.75
63.7308
63.6602
63.7677
63.7422
63.7281
63.7661
63.7965
63.7227
63.7191
63.7311
63.7208
63.9783
63.7091
63.7092
63.6687
63.5817
63.6117
63.7347
63.7123
63.6949
63.64
63.5851
63.6286
63.7268
63.7076
63.6359
63.7564
63.7057
63.7034
63.7426
63.8248
63.6771
63.6477
63.5698
63.6726
63.913
63.673
63.6698
63.6424
63.5525
63.5502
63.6768
63.6733
63.662
63.6281
63.5511
63.587
63.6941
63.6751
63.6099
63.7395
63.6632
63.6702
63.7161
63.8513
63.6268
63.5759
63.4587
63.6374
63.783
63.6362
63.6297
63.6187
63.5316
63.4949
63.6108
63.6321
63.6171
63.6086
63.5269
63.5487
63.6552
63.627
63.5805
63.694
63.6159
63.6224
63.6646
63.8803
63.583
63.5275
63.4291
63.5601
63.68
63.599
63.5925
63.5859
63.4896
63.4168
63.5437
63.5883
63.5723
63.5817
63.5055
63.5127
63.6099
63.5826
63.5479
63.5892
63.568
63.5516
63.5711
63.7351
63.5437
63.4724
63.4036
63.4113
63.5626
63.5633
63.5556
63.5442
63.4344
63.3333
63.4721
63.5427
63.5288
63.5492
63.4847
63.4713
63.5648
63.5449
63.519
63.4412
63.524
63.4762
63.4262
63.3683
63.5084
63.3796
63.3649
63.222
63.4102
63.5371
63.5267
63.5001
63.4161
63.2891
63.3986
63.4999
63.484
63.5055
63.4507
63.4303
63.5281
63.5172
63.4977
63.3006
63.4938
63.4111
63.2843
62.9843
63.4852
63.3023
63.3459
63.1049
63.2722
63.5287
63.5197
63.4931
63.4388
63.3135
63.3469
63.4749
63.4482
63.4615
63.4111
63.4044
63.5075
63.4974
63.4782
63.251
63.4839
63.3883
63.2475
62.8938
63.4902
63.3189
63.3702
63.0763
63.2212
63.5463
63.5451
63.5661
63.5121
63.3775
63.3363
63.4767
63.4184
63.4511
63.3867
63.3913
63.5052
63.483
63.4559
63.2852
63.5003
63.411
63.2992
63.0544
63.5148
63.3654
63.3969
63.0929
63.272
63.5817
63.6073
63.6279
63.577
63.4279
63.3525
63.5067
63.4111
63.4579
63.3658
63.3887
63.5059
63.4635
63.4283
63.3528
63.5192
63.4383
63.3549
63.2426
63.5354
63.3722
63.4123
63.1791
63.3556
63.6107
63.6253
63.5927
63.543
63.4343
63.3774
63.5453
63.4261
63.4375
63.3649
63.403
63.5001
63.4301
63.4006
63.4197
63.528
63.4642
63.4146
63.3864
63.5415
63.3728
63.4097
63.2735
63.4174
63.6099
63.6319
63.5486
63.4835
63.4409
63.4062
63.579
63.4433
63.3855
63.3919
63.4327
63.478
63.3896
63.3981
63.489
63.5301
63.4856
63.4686
63.4998
63.5457
63.4045
63.4015
63.3541
63.4672
63.5791
63.6172
63.4973
63.4383
63.4661
63.442
63.5669
63.4376
63.3643
63.4422
63.4754
63.4492
63.385
63.4287
63.5616
63.531
63.5055
63.5445
63.6318
63.5239
63.426
63.3902
63.4413
63.5392
63.535
63.5381
63.4617
63.4128
63.5055
63.4836
63.5207
63.4214
63.3742
63.5004
63.5266
63.4274
63.4243
63.5214
63.6626
63.5185
63.5403
63.6379
63.8145
63.4736
63.4037
63.3397
63.5481
63.6189
63.508
63.4808
63.4579
63.3668
63.533
63.532
63.477
63.429
63.4168
63.5308
63.5708
63.4223
63.4958
63.5618
63.7589
63.511
63.5679
63.7098
63.8397
63.4312
63.3878
63.334
63.6328
63.6693
63.5
63.4585
63.4585
63.3063
63.5286
63.5776
63.465
63.458
63.4315
63.5256
63.6006
63.4346
63.506
63.5341
63.8815
63.53
63.6236
63.8373
63.8736
63.4201
63.4161
63.4335
63.6669
63.7023
63.5158
63.4543
63.4717
63.3167
63.503
63.6149
63.527
63.512
63.4766
63.5117
63.6254
63.4983
63.5326
63.5665
63.9625
63.581
63.7053
63.8736
63.9114
63.4528
63.4826
63.6105
63.6708
63.7247
63.5747
63.4748
63.5134
63.4244
63.4739
63.6503
63.5881
63.5757
63.591
63.5131
63.6567
63.5974
63.6397
63.6399
64.0415
63.6557
63.7791
63.9548
63.9046
63.518
63.5596
63.6347
63.6724
63.7326
63.6413
63.531
63.6002
63.571
63.4504
63.6822
63.6089
63.6846
63.7368
63.5617
63.6984
63.7522
63.7269
63.7491
64.2297
63.7365
63.8821
64.1816
63.9219
63.6075
63.6589
63.6213
63.6536
63.7306
63.6796
63.6107
63.6992
63.713
63.4704
63.7055
63.6075
63.7517
63.8625
63.6328
63.741
63.8526
63.8133
63.8493
64.1098
63.7742
63.9188
64.035
63.8211
63.6643
63.757
63.6221
63.6417
63.7237
63.6858
63.6709
63.767
63.8031
63.5254
63.7142
63.7144
63.793
63.9095
63.6992
63.7685
63.8543
63.8443
63.8831
63.9591
63.7707
63.8706
63.8313
63.7322
63.6944
63.8041
63.5983
63.6416
63.7134
63.6787
63.7014
63.7823
63.8285
63.5985
63.7152
63.7734
63.8107
63.8931
63.7379
63.7764
63.8282
63.8538
63.8656
63.8898
63.7373
63.7092
63.6908
63.6651
63.688
63.7615
63.5747
63.6331
63.7027
63.6947
63.6632
63.7206
63.7837
63.6481
63.7126
63.8808
63.7721
63.8634
63.7524
63.7711
63.7867
63.8265
63.8236
63.666
63.6834
63.6155
63.5806
63.613
63.6538
63.6947
63.5581
63.6138
63.69
63.6336
63.5784
63.6406
63.741
63.6798
63.713
63.7655
63.7482
63.8228
63.7466
63.7618
63.7657
63.8028
63.794
63.5408
63.6601
63.5424
63.5039
63.5752
63.655
63.6472
63.5478
63.5961
63.678
63.5653
63.6352
63.6096
63.7404
63.716
63.7203
63.7125
63.7504
63.7861
63.7447
63.7616
63.7665
63.7911
63.7781
63.5316
63.6784
63.5806
63.4837
63.5536
63.7066
63.6636
63.5336
63.5867
63.6726
63.7363
63.7251
63.6859
63.7922
63.7591
63.7377
63.7466
63.7678
63.7775
63.7571
63.7673
63.79
63.7933
63.7854
63.5818
63.7231
63.7174
63.4767
63.5491
63.7414
63.6961
63.5512
63.5852
63.6819
63.912
63.7763
63.7875
63.8681
63.7905
63.7558
63.7977
63.7978
63.8039
63.7746
63.7756
63.8253
63.8133
63.809
63.6067
63.7975
63.8548
63.4329
63.5818
63.7877
63.7126
63.6076
63.6167
63.7087
63.8838
63.753
63.9212
63.9214
63.8021
63.7684
63.8423
63.8435
63.8321
63.794
63.7822
63.8683
63.8524
63.833
63.628
63.8074
63.7437
63.395
63.6604
63.8433
63.7466
63.6438
63.6622
63.75
63.9992
63.8916
64.0328
63.9381
63.7856
63.7623
63.8986
63.8984
63.863
63.8092
63.7776
63.9178
63.8753
63.857
63.6735
63.7734
63.6206
63.4993
63.7649
63.8661
63.7551
63.6735
63.6947
63.7879
64.0212
63.9653
64.1011
63.9121
63.7556
63.7408
63.937
63.9532
63.89
63.8102
63.7706
63.9718
63.9298
63.8745
63.7674
63.7651
63.5364
63.6276
63.8468
63.912
63.9173
63.7445
63.7221
63.8145
63.8893
63.9231
64.1488
63.8848
63.7276
63.7083
63.9714
64.0112
63.9146
63.8118
63.7572
64.015
63.9626
63.8851
63.8739
63.7869
63.4483
63.752
63.9205
64.0181
64.1643
63.8542
63.7188
63.7871
63.8657
63.8972
64.1185
63.8827
63.6779
63.6303
64.032
64.1076
63.9505
63.8104
63.7196
64.1114
64.0097
63.902
64.037
63.9828
63.7641
63.9226
63.9803
64.2106
64.3746
63.8611
63.5833
63.5932
64.0429
64.0413
64.1418
63.8928
63.5633
63.4264
64.1362
64.208
64.0094
63.7954
63.6271
64.2072
64.0788
63.9333
64.2871
64.3042
64.1855
64.1449
64.0338
64.416
64.3517
63.7568
63.2779
63.1179
64.3846
64.2479
64.2048
63.8907
63.3153
62.8948
64.291
64.3181
64.0838
63.7564
63.4297
64.3582
64.2053
64.0067
64.6254
64.7609
64.5872
64.3992
64.1272
64.7133
64.3254
63.6369
62.752
62.0357
64.8425
64.5682
64.3166
63.8352
62.8603
61.4577
64.5786
64.4898
64.1566
63.7015
62.9946
64.5571
64.4037
64.161
65.0234
65.5255
65.197
64.761
64.3728
65.4139
64.517
63.496
61.9358
59.1245
65.3937
65.0073
64.5103
63.6855
62.1346
57.4538
65.0031
64.6825
64.2195
63.5675
62.0205
64.7913
64.6865
64.4781
65.5388
66.5715
66.0767
65.2058
64.8526
66.0877
64.9685
63.4511
60.9623
50.392
66.002
65.5799
64.7659
63.5623
61.2658
51.4633
-26.9752
65.5193
64.866
64.1536
63.2927
59.1673
64.9458
64.874
64.9093
65.5544
67.6051
66.9658
64.9905
63.727
66.9048
65.8075
63.8458
60.247
43.1943
0.865395
66.6849
66.2417
65.1732
63.7388
60.3398
49.8394
8.76098
66.1315
65.1246
63.9316
62.3822
53.4675
65.2291
64.7806
65.0429
66.4008
68.9904
67.6286
65.2575
64.0761
67.9279
66.4971
64.4351
60.8893
46.5552
14.3349
67.5149
67.0513
65.6765
64.1494
60.8318
49.0656
16.7414
66.9409
65.8334
64.678
62.9733
52.8439
16.424
66.1687
65.2268
65.7756
67.3273
69.4995
68.1444
66.3487
65.6592
68.342
66.5704
65.0764
63.1825
51.2257
14.802
68.3938
67.801
66.134
64.8229
63.2521
52.1193
17.7182
67.7873
66.6197
65.8946
64.211
57.8239
67.2532
66.3307
67.0939
66.3036
68.6881
67.136
65.8168
66.2354
68.5277
66.0262
65.3737
65.062
61.1332
69.1133
68.4012
66.242
65.4068
65.008
58.0305
-10.8627
68.3881
66.9028
66.3809
65.8219
65.4724
67.6535
66.8977
67.7202
65.022
67.3847
65.6297
64.9858
65.8597
67.7167
65.0812
65.2724
65.7146
66.6273
68.7349
67.9228
65.7537
65.5162
65.8588
65.884
68.1256
66.557
66.2041
66.2466
67.4755
67.462
66.8202
67.5015
65.0552
66.0273
64.409
64.661
65.1439
66.3331
64.2512
64.9316
65.3989
66.9533
67.6133
66.7786
65.1864
65.1593
65.5685
66.6639
67.2723
65.9517
65.777
66.0089
67.2574
66.9716
66.5172
66.9124
65.2154
65.4006
64.2154
64.6419
64.5489
65.4829
64.2357
64.662
65.3474
66.94
66.6229
65.895
64.705
64.6707
65.1898
66.2492
66.4444
65.3823
65.2807
65.5772
66.5215
66.402
66.0312
66.4044
65.1726
65.6484
64.7658
64.7537
65.2377
65.6214
64.6586
64.7829
65.5503
66.739
66.4028
65.7965
64.811
64.5481
64.899
66.1167
66.0731
65.1917
64.8935
65.0599
66.0266
65.9236
65.5818
65.8887
65.5469
66.3652
65.5183
65.2588
66.3722
66.2727
65.4148
65.2233
65.9083
66.9074
66.7518
66.1968
65.2111
64.8674
65.0044
66.1762
66.1696
65.2878
64.882
64.8333
65.7958
65.7181
65.3178
65.5671
66.4982
67.1663
66.2253
66.1423
67.172
66.9906
66.0407
65.9317
66.2799
67.2226
67.2792
66.7308
65.5774
65.3358
65.2409
66.3651
66.4486
65.3328
64.9447
64.9156
65.7769
65.5899
65.1944
65.4396
67.1429
67.9266
66.8671
66.7127
67.6735
67.5189
66.6013
66.3887
66.7576
67.7246
67.8852
67.1695
66.1645
65.7019
65.6884
66.8491
66.6617
65.7612
65.245
65.1875
66.0569
65.4205
65.1217
65.4395
67.8179
68.1731
67.2448
67.0781
67.9956
67.7507
66.7642
66.5838
66.9647
68.2986
68.2126
67.323
66.3586
65.966
66.0487
67.641
66.6712
65.9021
65.4564
65.4358
66.5892
65.3534
65.3373
65.6523
209.883
193.795
214.92
195.351
162.161
162.682
154.409
185.138
202.872
209.165
205.316
202.954
180.634
186.704
166.648
181.545
172.136
164.882
175.241
172.926
181.771
206.652
217.201
200.894
228.391
236.469
181.027
174.997
175.151
170.925
163.904
164.25
166.78
173.064
185.672
181.257
201.569
185.63
194.52
203.642
209.137
210.026
222.292
227.534
229.708
250.232
246.262
232.152
188.015
184.725
201.041
171.394
185.376
202.018
202.097
200.951
191.096
201.209
197.425
196.773
205.136
199.576
209.318
212.194
232.507
221.282
242.823
258.068
232.77
271.441
199.511
202.914
186.768
197.2
199.756
196.231
202.078
218.64
235.06
211.254
223.194
255.713
283.612
255.618
315.43
356.997
356.985
304.803
238.286
310.162
340.775
352.986
350.482
362.038
347.688
378.056
185.86
116.964
127.195
165.396
136.535
109.464
113.579
110.28
137.135
137.798
110.711
113.479
112.657
147.315
103.206
138.912
115.137
179.401
134.967
157.617
102.891
105.659
107.616
106.912
163.532
181.557
149.456
108.888
88.9729
123.6
94.9383
148.086
99.3654
135.961
148.313
144.787
121.78
130.655
128.402
150.42
168.963
94.5849
99.6756
102.559
160.732
172.09
145.831
149.739
160.31
197.675
215.168
136.742
142.225
156.364
173.982
164.407
162.82
168.864
157.536
137.076
116.512
112.068
105.442
246.253
276.388
279.253
142.391
159.661
172.599
183.271
157.865
170.477
110.458
212.925
233.574
106.574
111.269
127.551
285.95
259.14
135.942
171.392
145.358
188.31
95.1786
90.0127
102.418
97.445
102.257
95.6764
89.2639
95.6557
96.9006
90.7434
90.567
87.9638
81.4352
82.0823
79.2514
106.173
93.5037
92.3104
100.46
93.1181
92.3629
90.4499
93.5852
89.8571
80.6478
90.3419
83.162
77.951
80.2753
81.0498
80.8872
87.8801
83.582
115.97
122.909
123.526
101.148
99.86
106.424
89.9856
88.5709
88.0382
86.343
86.0508
133.585
128.369
95.9609
92.4434
87.9875
90.6576
117.407
83.8025
84.6592
90.9374
114.453
85.2588
97.4944
84.6881
87.6602
80.5264
87.1838
82.0517
83.8628
120.108
118.194
129.146
111.874
102.542
99.0419
105.027
97.5701
92.0592
87.0504
96.2812
99.1209
89.0978
89.1587
90.0844
123.035
112.132
105.224
105.718
103.306
107.185
85.4239
80.3183
88.069
82.6847
88.0405
80.4427
77.7995
80.2665
82.8958
78.3689
78.7194
78.7729
76.6172
78.0676
76.2281
83.568
77.4578
86.7942
85.8317
85.7213
81.6993
81.4001
78.9183
79.1461
78.0182
77.3422
77.9297
75.2743
75.5956
73.4631
74.9316
79.5087
75.9036
83.119
78.638
78.8074
74.8816
72.387
71.4936
82.915
82.4229
78.7319
79.3224
79.0455
73.6835
75.8538
72.3343
72.4047
73.5233
80.8714
80.1081
77.4501
77.4685
75.4301
78.5159
75.3349
80.636
81.3934
82.0099
76.5617
76.952
80.0934
80.4555
86.9523
90.3997
90.1377
72.9767
74.9216
79.0869
78.7003
76.365
82.7365
79.3752
83.8055
83.3174
80.0074
79.5212
79.2808
93.9914
92.5324
80.4724
82.3636
81.5354
81.3346
75.59
72.8048
73.9092
73.9857
73.9445
70.48
71.5257
70.5058
74.8874
74.7658
72.3316
71.7825
72.4467
74.5456
72.8933
74.1192
72.0378
76.2208
74.3284
73.3006
73.1066
72.6738
71.6514
69.8605
73.5752
71.319
72.6656
71.9167
71.7938
70.4941
71.1104
73.2582
71.5182
73.1026
71.71
71.3919
71.5017
70.5041
70.634
76.5929
76.2814
72.13
74.789
74.5584
71.8129
72.1465
70.6213
70.788
70.7295
74.9204
72.8984
73.5432
73.9218
71.3206
72.9583
71.0327
74.2853
77.4316
78.1548
71.1305
71.6781
73.2096
75.0389
69.3281
69.9351
71.059
68.0658
68.5598
67.6115
68.4638
69.7756
76.275
73.6545
75.9198
75.5227
73.4775
73.014
72.7401
72.0884
73.0767
68.9818
68.278
69.5754
67.7727
71.3017
69.7796
69.5591
70.1458
69.6508
68.831
68.9883
68.9347
69.827
70.5664
68.8679
68.7288
69.5852
70.8732
69.7341
70.315
69.0402
70.8664
69.9851
68.6042
69.3613
69.6515
69.0498
68.1685
70.321
69.7497
69.8807
69.4094
69.1696
68.9311
68.8712
69.9541
68.4947
69.9914
69.5082
69.6694
68.7951
68.724
68.753
71.8905
73.2036
68.4873
68.3329
70.5138
69.7093
69.4257
68.7887
68.8115
68.4101
73.3411
70.1418
70.0499
71.9174
69.0392
69.5762
68.454
69.7758
70.0322
71.8944
68.0669
68.3841
68.3889
69.3345
67.7841
67.0084
67.1866
66.7482
66.9187
66.4856
66.2709
67.8379
71.292
69.3303
70.6683
70.6202
69.4345
69.0185
69.1863
67.2905
67.9091
66.8892
66.5779
66.9127
66.5999
68.6591
68.0423
68.0966
68.2222
68.1397
67.3765
67.656
67.4131
68.12
68.9539
67.4014
67.4915
68.0572
68.9503
68.2818
68.1818
67.6501
68.7934
68.3954
67.8644
67.9081
68.2342
67.8249
67.5766
68.2911
68.2369
67.9471
68.1888
67.8582
67.781
67.2231
66.9698
65.9355
67.976
68.0347
68.0395
67.4261
67.4044
67.4352
66.8724
64.8785
70.8962
64.8816
64.5792
64.0426
64.8887
64.9697
65.5354
65.1022
64.689
64.8252
64.6635
64.8791
68.0196
67.5704
67.35
67.412
67.0343
73.1419
67.5018
67.9537
64.7523
65.1023
65.1143
65.5962
65.2549
66.1
65.3372
64.7917
64.9363
65.2879
65.146
67.4974
66.8802
67.2556
67.0867
67.6332
66.594
66.65
66.4461
66.668
65.8475
66.1032
65.6588
65.5282
65.2073
65.8161
65.4945
65.2429
67.7896
66.7569
67.6681
67.7652
66.8516
66.6704
66.7339
66.0856
66.1726
65.7769
65.737
65.7142
65.83
67.4518
66.6983
66.8721
66.9459
66.9053
66.4312
66.2249
66.4506
66.8536
67.4516
66.2789
66.4089
67.3492
67.9229
67.8104
67.1834
66.7348
67.5895
67.3076
67.1897
66.8279
66.8201
66.8224
66.7763
67.934
67.4893
66.9268
67.6825
68.1142
67.4972
67.0838
65.3002
64.2414
65.2294
64.3611
64.5991
64.7765
64.6315
64.7544
67.0171
66.9269
66.9596
66.5987
66.5235
66.5478
64.4082
64.4758
64.8568
64.643
64.5285
64.6434
64.7678
64.8873
64.6491
64.9037
64.6957
64.8241
64.6654
64.8705
66.9028
66.6592
66.5051
66.4844
66.3475
64.6372
64.7538
64.8685
64.6803
64.8525
64.8764
64.9126
64.8506
64.8454
65.07
64.7504
64.8874
64.8297
65.0003
66.477
66.2192
66.3354
66.1496
66.1172
66.0666
66.1591
65.952
65.9535
65.0915
65.5974
65.3388
65.2171
65.212
65.4079
65.311
64.9246
65.0437
64.9622
65.1785
64.9522
65.0421
66.0653
65.7478
65.8919
65.9234
65.4988
65.3957
65.4515
65.4728
65.4
65.2364
65.2784
65.1994
65.3678
65.935
65.3383
65.9083
65.8082
65.9501
65.4042
65.4333
65.4201
65.9227
66.8273
65.3536
65.4164
65.8353
67.4459
66.2767
66.3084
65.6665
65.8901
66.2768
66.1936
65.3148
64.9803
65.6524
65.3784
67.5385
67.4006
66.1783
66.0161
65.0481
65.7157
63.7173
64.8224
64.5294
64.109
64.7736
64.6177
64.7012
64.8035
64.8846
66.1193
66.1854
66.152
65.5495
65.7847
65.7445
64.6176
64.5576
64.6952
64.0928
64.8191
64.2987
64.6954
64.7806
64.606
64.8555
64.8377
65.0271
64.6832
64.8641
66.142
66.0662
65.8245
65.7986
65.7819
64.6535
64.8611
64.7591
64.4962
64.4306
64.6838
64.6912
64.8662
64.8246
65.0326
64.6193
64.864
64.8348
65.0305
66.0114
65.7404
65.9973
65.7271
65.7955
65.6661
65.8198
65.5547
65.6355
65.2305
65.2421
65.1942
65.0031
65.1554
65.0852
65.0857
64.8572
64.5992
64.7672
65.0744
64.9285
65.0922
65.5921
65.4754
65.1648
65.1796
65.1279
65.0009
65.0148
65.1235
65.0557
64.9612
64.9922
64.9625
65.0744
64.8272
64.4305
64.9167
64.8851
64.9402
64.4865
64.432
64.5293
64.8716
64.8612
64.3072
64.3689
64.1122
64.6204
63.6597
65.1342
64.6744
64.4638
65.0781
64.7603
64.3119
64.1217
64.5472
64.3557
62.8725
63.7694
63.0316
63.4148
63.1154
63.1018
63.434
64.0133
63.9202
65.0511
65.3778
65.3745
64.6923
65.032
64.9954
65.2809
64.174
64.741
64.1004
65.4355
64.1697
64.7701
65.1058
64.8798
65.1096
65.316
65.2354
65.1836
65.2733
65.4403
65.4565
65.091
65.0998
65.163
64.3613
64.4829
64.4952
64.2636
64.4378
64.1263
64.2875
64.9767
64.828
65.0763
65.0164
65.0534
64.9749
65.1294
65.4075
65.1433
65.5604
65.3245
65.386
65.1089
65.1915
65.0491
65.0624
64.975
64.9253
64.9324
64.6931
64.8323
64.7786
64.8067
64.3848
65.2726
64.9635
64.8967
64.8992
64.9034
64.7588
64.788
64.8609
64.8512
64.7177
64.7368
64.7429
64.8102
64.1481
64.0435
64.146
64.1796
64.2126
63.9304
64.0436
64.0053
63.8841
63.5922
63.6554
63.5634
63.3298
63.2907
63.2972
64.1913
63.8843
63.9492
64.0929
64.0279
63.8539
63.8623
63.7945
63.8179
63.5874
63.4436
63.7856
63.2336
63.7866
63.7554
63.9447
63.8928
63.9545
64.3387
64.6714
64.6089
63.9718
64.2913
64.2537
64.1803
64.9802
64.0174
64.0474
63.2616
64.8102
64.9223
64.4988
64.5067
64.5877
64.8674
64.0247
64.2481
63.6037
64.14
64.885
64.599
64.7765
64.7548
64.6489
64.5312
64.3426
64.4428
64.1982
64.6765
64.6486
64.6803
64.4899
64.5411
64.5445
64.57
64.3609
64.529
64.2141
64.4442
64.5393
64.1637
64.1597
64.2835
64.5882
64.5668
64.3652
64.4588
64.4067
64.5448
63.9745
63.8865
63.8429
63.9387
63.8659
63.8568
63.8691
63.8461
63.5736
63.4036
63.6806
63.6389
63.5848
63.4066
63.5293
63.7272
63.6355
63.8393
63.6345
63.7667
63.7459
63.803
63.6231
63.7859
63.8481
63.9458
63.9834
63.5863
63.8937
64.0345
63.992
63.9959
64.0205
63.7262
63.986
63.9255
63.6618
63.757
63.7273
64.0305
63.8247
64.0759
64.1037
64.1475
64.1509
64.2077
63.8636
63.8783
63.941
64.0853
64.2227
64.271
64.2877
64.2783
64.2901
63.9673
63.9365
64.1494
64.0085
63.9732
63.7996
63.9853
63.9885
64.4114
64.4269
64.4467
64.2983
64.3018
64.321
64.342
64.3045
64.0924
64.0449
64.0469
64.0875
64.03
64.0207
64.0313
64.3545
64.267
64.1813
64.2779
64.1935
64.335
63.8626
63.8723
63.9049
63.8642
63.9
63.946
63.8828
63.9363
63.707
63.7136
63.8261
63.7933
63.7792
63.6459
63.7827
63.6325
63.6398
63.7689
63.6558
63.8105
63.7252
63.7811
63.6606
63.8366
63.939
64.0554
64.0019
63.9054
63.9843
64.0515
64.0247
64.0387
64.0531
63.6329
63.6674
63.6582
63.6153
63.6483
63.6388
64.1328
64.1827
64.1045
64.1302
64.1638
63.7363
63.7912
63.6983
63.6936
63.7438
64.2702
64.2888
64.2415
64.2382
64.2749
63.834
63.8422
63.8569
63.9701
64.0009
63.8725
63.916
63.9657
64.0117
64.2518
64.2539
64.2771
64.2131
64.2298
64.2147
64.2348
64.258
64.0258
64.0184
64.0368
64.0416
64.0166
64.0357
64.0421
64.2258
64.1559
64.1258
64.1855
64.1294
64.2309
63.8995
63.9241
63.9732
63.9068
63.9481
63.9906
63.9312
63.9564
63.87
63.8266
63.9283
63.9116
63.8588
63.9032
63.9526
63.6785
63.7212
63.8088
63.6865
63.8372
63.7865
63.8333
63.7271
63.8287
64.0261
64.0409
64.0487
63.9818
64.034
64.0423
64.0543
64.0616
64.0575
63.6251
63.6627
63.6399
63.6649
63.6893
63.6704
64.1133
64.1383
64.0921
64.0947
64.1167
63.685
63.7409
63.731
63.7048
63.7668
64.2155
64.249
64.1883
64.1921
64.217
63.8672
63.8853
63.958
63.9596
64.0195
63.9329
63.9749
63.9702
64.0201
64.1955
64.1821
64.1932
64.1601
64.1574
64.15
64.154
64.1915
64.0125
63.9989
64.016
64.0275
63.9758
63.9853
64.0038
64.1477
64.098
64.0492
64.1115
64.0674
64.1675
63.9394
63.9454
63.9918
63.9487
63.9596
63.9826
63.9524
63.9557
63.9297
63.8829
63.9527
63.947
63.922
63.9587
63.961
63.7515
63.7854
63.8524
63.7673
63.8388
63.8541
63.8715
63.8026
63.8652
64.0116
64.0519
64.0368
63.9479
63.982
64.0477
64.01
64.0411
64.0257
63.7185
63.7283
63.7189
63.7728
63.7694
63.7642
64.0745
64.0946
64.0565
64.0533
64.0705
63.7509
63.8122
63.8032
63.7975
63.8531
64.1554
64.167
64.103
64.1155
64.1087
63.9064
63.9271
63.9705
63.9936
64.0073
63.9446
63.9673
64.0072
63.9851
64.1243
64.124
64.1307
64.0915
64.1034
64.1066
64.1157
64.1095
63.9722
63.9595
63.9472
63.9725
63.9107
63.916
63.9434
64.0808
64.0408
63.997
64.0573
64.0231
64.1178
63.9421
63.9354
63.9777
63.9463
63.9542
63.9806
63.9417
63.9587
63.9678
63.9647
63.9796
63.9808
63.9868
63.9768
63.9922
63.8203
63.85
63.8839
63.834
63.8885
63.889
63.8871
63.8578
63.8989
63.9641
64.0407
63.9975
63.9684
63.9648
64.0309
64.0001
64.018
64.0164
63.8143
63.8016
63.7961
63.8377
63.8248
63.8208
64.036
64.0516
64.0305
64.0252
64.0452
63.8273
63.8772
63.8506
63.8412
63.886
64.086
64.0544
64.0544
64.079
64.0402
63.9405
63.9409
63.9696
63.9986
63.9639
63.9211
63.9674
63.979
63.9475
64.0862
64.0896
64.0981
64.0519
64.073
64.0747
64.082
64.0652
63.9516
63.9475
63.8944
63.9231
63.9115
63.8835
63.9137
64.044
64.0115
63.9733
64.0316
64.0047
64.0882
63.9346
63.9366
63.9828
63.9411
63.9633
63.9804
63.9364
63.9637
63.9824
63.993
63.98
63.9822
63.997
63.9985
64.0062
63.8681
63.8735
63.8905
63.8735
63.9007
63.9051
63.8951
63.8801
63.8984
63.9816
64.0211
64.0062
64.0017
64.0004
64.0163
64.0075
64.0149
64.0116
63.8495
63.8411
63.8374
63.8548
63.8498
63.8437
64.0282
64.0431
64.0187
64.0368
64.0519
63.8476
63.8876
63.8714
63.8586
63.8878
64.091
64.043
64.103
64.1242
64.0714
63.9326
63.9238
63.9524
63.959
63.9329
63.9031
63.9337
63.945
63.9213
64.0595
64.0581
64.067
64.0198
64.0435
64.0433
64.0513
64.0605
63.9408
63.9333
63.8783
63.9106
63.9134
63.8765
63.9112
64.0213
64.0017
63.9629
64.0084
63.9988
64.0586
63.932
63.9277
63.9766
63.9249
63.962
63.9731
63.9186
63.9608
63.982
64.0026
63.9749
63.9785
64.0042
64.0175
64.0259
63.8752
63.8791
63.8955
63.882
63.8944
63.9089
63.8948
63.885
63.8914
64.0069
64.0096
64.0032
64.0181
64.0044
63.9972
63.9956
64.0036
63.9955
63.859
63.8545
63.8463
63.8643
63.8564
63.8468
64.0412
64.0793
63.989
64.0289
64.0765
63.8754
63.8847
63.8971
63.8896
63.8775
64.1226
64.0934
64.0203
64.075
64.0669
63.9064
63.8833
63.8995
63.9294
63.9068
63.8786
63.8591
63.9075
63.8866
64.0252
64.0283
64.0314
63.9878
64.0044
64.0186
64.0173
64.0229
63.9213
63.9056
63.8753
63.9124
63.9068
63.8765
63.9141
64.0011
63.9938
63.9532
63.9949
63.985
64.0288
63.9323
63.9385
63.9697
63.9197
63.9607
63.9649
63.922
63.9586
63.9693
63.999
63.954
63.9545
63.9859
64.0261
64.0155
63.8828
63.8835
63.8988
63.8881
63.8919
63.9091
63.9025
63.8877
63.8939
63.9975
63.9864
63.9867
64.0086
63.9872
63.9728
63.9763
63.9838
63.9694
63.8697
63.8542
63.8426
63.8749
63.8487
63.8347
63.9918
64.0359
63.9662
63.944
63.957
63.8952
63.8665
63.8935
63.8911
63.8518
64.0234
64.0225
64.02
64.0045
63.9959
63.8568
63.8278
63.8241
63.8748
63.8617
63.8179
63.7942
63.8338
63.8321
63.986
64.0201
64.0061
63.9579
63.9569
64.0152
63.9791
63.9821
63.8866
63.8655
63.877
63.9117
63.8915
63.8748
63.9078
63.9846
63.9711
63.9311
63.9686
63.9593
63.9949
63.9341
63.9202
63.9566
63.9167
63.9511
63.9444
63.9045
63.9389
63.9372
63.9671
63.925
63.9207
63.9467
63.9947
63.9706
63.8839
63.8838
63.8982
63.8844
63.8918
63.9012
63.8875
63.8806
63.885
63.9717
63.9551
63.9621
63.9683
63.9538
63.9377
63.9442
63.9566
63.9466
63.8762
63.8421
63.8287
63.8747
63.8338
63.8228
63.9387
63.9352
63.9609
63.9862
63.9751
63.8787
63.8313
63.8614
63.8612
63.8083
63.9982
63.9861
64.0094
63.9818
63.977
63.7945
63.7605
63.7662
63.785
63.8023
63.7275
63.7345
63.7319
63.7695
63.9334
63.9788
63.9441
63.9037
63.9214
63.9371
63.9153
63.9496
63.8444
63.8226
63.8762
63.9058
63.865
63.8745
63.8931
63.9371
63.9425
63.9058
63.9076
63.9204
63.9184
63.9057
63.895
63.9301
63.8923
63.925
63.9158
63.8829
63.9115
63.9055
63.9275
63.8971
63.8907
63.908
63.9477
63.925
63.8812
63.8762
63.8766
63.878
63.8759
63.8976
63.8685
63.8747
63.864
63.9336
63.9203
63.9221
63.9134
63.911
63.8994
63.8918
63.9351
63.9277
63.8694
63.8267
63.8172
63.8614
63.821
63.814
64.0857
64.0288
63.9448
64.0863
64.0369
63.8433
63.7902
63.8293
63.8309
63.7843
63.966
63.9466
63.927
63.9457
63.9088
63.7366
63.735
63.7208
63.689
63.7428
63.6746
63.7238
63.6732
63.7211
63.9011
63.8987
63.8924
63.8552
63.8742
63.8669
63.8713
63.8912
63.7991
63.7781
63.8643
63.8773
63.841
63.8532
63.8651
63.8888
63.8997
63.8644
63.875
63.8903
63.8636
63.8846
63.8714
63.9011
63.8745
63.8979
63.8856
63.8646
63.8838
63.8744