/*--------------------------------*- C++ -*----------------------------------*\
| =========                 |                                                 |
| \\      /  F ield         | OpenFOAM: The Open Source CFD Toolbox           |
|  \\    /   O peration     | Version:  5.x                                   |
|   \\  /    A nd           | Web:      www.OpenFOAM.org                      |
|    \\/     M anipulation  |                                                 |
\*---------------------------------------------------------------------------*/
FoamFile
{
    version     2.0;
    format      ascii;
    class       surfaceScalarField;
    location    "1.25";
    object      phi;
}
// * * * * * * * * * * * * * * * * * * * * * * * * * * * * * * * * * * * * * //

dimensions      [0 3 -1 0 0 0 0];

internalField   nonuniform List<scalar> 
29271
(
-6.70056e-06
1.01246e-06
2.01242e-06
3.86657e-06
-6.77389e-06
-2.29641e-06
7.59691e-06
1.62692e-06
-2.76527e-05
-1.55821e-05
1.05145e-07
2.73346e-06
2.39174e-05
1.64788e-05
-2.4464e-05
-8.86647e-06
-1.48825e-06
1.89063e-06
1.99193e-05
1.30088e-05
-2.56697e-05
-4.83498e-06
6.04315e-06
9.81487e-06
1.64305e-05
-1.78392e-06
-3.71506e-05
-1.87706e-05
-1.47485e-05
1.2247e-05
8.57436e-06
4.98484e-05
-4.40214e-05
-1.55258e-05
-4.63268e-06
2.12043e-06
1.55189e-06
6.05075e-05
-4.13309e-05
-9.04632e-06
-4.67894e-06
6.91071e-07
-3.2016e-06
5.75666e-05
-4.63633e-05
9.34768e-07
4.94108e-06
-5.88481e-06
-1.01453e-05
5.65176e-05
-1.65039e-05
2.59973e-06
-4.28124e-06
1.49252e-05
3.02529e-06
-7.18376e-06
-6.3645e-07
4.68785e-06
3.12987e-06
-3.82155e-05
-6.07497e-06
1.52571e-06
-2.57579e-06
-3.54004e-06
4.88806e-05
-2.52557e-05
6.93455e-06
5.59165e-06
-2.31653e-06
-6.32537e-06
2.13714e-05
-2.80839e-05
8.37086e-06
3.19152e-07
-2.81727e-06
-7.24283e-06
2.9454e-05
-2.43447e-05
1.08194e-05
2.38142e-06
-4.25815e-06
-5.43353e-06
2.08356e-05
-3.18081e-05
4.60673e-06
2.1621e-06
-5.64659e-06
2.91948e-05
1.49106e-06
-3.38848e-05
-1.04225e-06
-6.89229e-06
-1.38005e-06
4.10466e-05
2.15275e-06
-3.03015e-05
1.19599e-05
2.77221e-06
-9.55565e-06
3.62632e-06
2.14987e-05
-1.58894e-05
1.7678e-06
3.44116e-06
-2.14825e-06
3.60826e-06
9.22047e-06
-2.23731e-05
-3.37798e-07
1.42758e-06
1.80182e-05
2.07298e-06
1.19212e-06
-8.48042e-06
2.14371e-06
-1.01653e-06
7.36399e-06
-3.03467e-05
4.874e-06
-1.00866e-05
4.18138e-05
-6.28058e-06
-5.15769e-05
9.48528e-06
-1.86868e-05
1.48697e-05
6.04087e-05
-1.45001e-05
-1.15868e-05
-5.12182e-06
6.32638e-06
1.03871e-05
-2.03033e-06
-2.32224e-07
1.21629e-06
1.02043e-06
-5.11987e-07
1.75926e-07
1.81944e-07
1.98615e-07
-3.08027e-06
-9.43155e-07
-6.30124e-06
1.57327e-06
5.89914e-06
2.85225e-06
-3.86872e-06
-7.67539e-06
-2.10217e-06
1.94684e-06
6.0248e-06
5.67465e-06
-1.55394e-05
-2.58652e-06
5.52938e-07
2.09237e-06
1.6884e-05
-1.40341e-06
3.08781e-07
-4.12732e-06
-4.10814e-05
2.08748e-05
-4.82058e-07
2.45071e-05
5.30623e-05
-4.42712e-06
0.000277776
-7.22639e-05
-6.25354e-05
-4.56523e-05
-3.91177e-05
-6.3533e-06
-9.71247e-06
3.37879e-07
3.17823e-06
-2.29542e-05
-2.50421e-05
-2.61348e-05
-2.01607e-05
3.06215e-05
4.88031e-05
0.000251853
-7.06216e-05
-7.75096e-05
-6.21617e-05
-4.89305e-05
-1.10357e-05
-8.28396e-06
-9.87948e-07
1.3155e-06
7.16908e-06
5.21061e-05
0.000123074
-3.14801e-06
-4.25992e-06
1.18436e-06
-3.00893e-06
9.17257e-06
8.45595e-06
9.15049e-06
-5.13147e-05
-4.8512e-05
-3.88597e-05
-3.05881e-05
-2.12598e-05
-2.89936e-06
9.19427e-06
2.21237e-05
-1.20836e-06
6.55407e-07
3.011e-07
2.7191e-07
-7.96524e-06
-5.48997e-05
5.49481e-06
8.50584e-06
-7.42996e-06
5.62942e-05
3.14251e-05
-1.34398e-05
8.07867e-05
-2.06616e-05
-2.01913e-05
-1.51908e-05
-6.20006e-06
-1.44185e-05
-8.70014e-06
-1.02611e-05
-7.57577e-06
6.50009e-06
8.77651e-06
0.000148078
-3.87357e-05
-1.92704e-05
-1.18876e-05
-1.32325e-05
-5.2326e-06
7.02517e-06
0.000112624
-1.76459e-06
-7.97057e-06
-4.87376e-06
8.9634e-06
1.13929e-05
1.16226e-05
-1.99032e-05
-1.95659e-05
-1.47021e-05
-1.90093e-05
-2.93857e-05
-1.21857e-05
-8.12799e-06
8.51709e-06
3.59497e-05
-4.63451e-05
-1.08476e-07
1.55054e-07
2.49142e-07
4.23788e-05
3.67062e-06
2.55596e-05
-3.86406e-06
7.2847e-05
-6.07416e-06
-6.93314e-06
-4.0011e-06
-8.24281e-06
-5.88855e-06
-1.27089e-05
-5.46059e-06
-1.50866e-05
-5.35386e-06
-2.82348e-05
-9.9979e-06
1.96278e-06
-1.16401e-05
0.000103834
3.12556e-06
2.19245e-06
2.8283e-06
-3.89621e-06
-5.41168e-06
-4.89985e-06
-9.90194e-06
-1.10465e-05
-1.66719e-05
-1.61391e-05
-2.28246e-05
-2.46474e-06
-1.37196e-06
3.56493e-05
-6.3815e-06
-4.07423e-06
3.59385e-06
6.9037e-06
-5.09629e-05
-2.44715e-06
-1.78618e-06
5.13382e-05
-4.47243e-05
-3.09378e-06
5.25642e-06
-8.52886e-07
3.17744e-05
-7.39889e-06
1.86076e-06
-1.90044e-06
7.48445e-06
-4.39368e-07
-9.93421e-08
3.22378e-07
1.93719e-07
-1.18322e-07
1.90577e-07
-2.01853e-07
1.29083e-07
-7.87807e-07
-1.33899e-06
-3.12866e-06
1.88498e-06
-9.88263e-08
3.46931e-06
-1.19371e-06
-8.45294e-06
-3.66671e-06
1.12128e-06
2.76575e-07
1.19155e-05
-2.24127e-05
-3.25162e-07
-4.30985e-06
-3.05065e-06
2.45463e-05
5.55203e-06
2.53486e-06
-5.83709e-07
-1.29897e-05
1.31343e-05
-1.19416e-05
9.84581e-06
4.2793e-05
2.36872e-05
0.000296587
-1.24288e-06
-1.26046e-07
6.9349e-07
3.01659e-06
-2.66071e-05
-2.12806e-05
-2.31912e-05
-1.65532e-05
4.47606e-06
8.71991e-05
0.000210238
-4.06014e-06
-3.76323e-06
-6.74616e-07
1.23109e-06
1.55767e-06
6.22102e-05
7.5385e-05
-2.41012e-06
-6.42559e-06
-1.68661e-06
-6.78046e-06
4.58964e-06
2.82304e-07
8.28318e-07
-2.10563e-05
-9.45462e-06
1.71343e-05
1.49389e-05
-2.53374e-07
4.07284e-07
-4.22698e-07
2.77538e-07
-5.34968e-06
-5.14492e-05
1.73262e-05
1.86851e-05
-1.33469e-05
3.41345e-05
3.74359e-05
3.85585e-06
0.000113238
-1.69343e-05
-1.63955e-05
-9.95022e-06
-6.77557e-06
2.24596e-05
7.66147e-05
0.000173638
-5.84238e-06
1.15639e-05
0.000159582
-5.38419e-06
-1.93712e-06
-1.8452e-06
1.25967e-05
1.4671e-05
1.38886e-05
-2.87841e-05
-1.82629e-05
-1.1534e-05
2.84136e-05
2.43251e-05
-3.46885e-05
-1.66303e-06
9.04844e-06
3.894e-06
1.79798e-05
5.42932e-06
2.59391e-05
-6.12262e-06
8.75526e-05
-1.08911e-05
-1.13331e-05
-4.18956e-06
-4.04568e-06
-1.70667e-06
-9.54224e-07
2.45426e-06
2.35714e-06
1.27806e-07
0.000173402
2.3229e-06
5.16363e-06
4.0596e-06
3.27904e-06
7.25648e-06
8.41926e-06
-4.37914e-05
-1.83219e-06
1.01711e-05
4.93736e-05
-1.56152e-05
-1.5919e-05
8.89077e-06
2.2641e-05
-3.73014e-05
-6.30872e-06
6.80549e-06
3.09183e-05
-3.71288e-05
-6.68076e-06
7.85764e-06
-8.52545e-06
4.46052e-05
-1.41247e-05
-5.43912e-06
-2.0187e-07
1.97548e-05
-1.02219e-07
6.20875e-08
-4.47195e-08
6.31504e-08
-1.7524e-07
6.74507e-08
-1.39275e-07
2.12487e-07
8.53176e-08
-1.20147e-06
-4.45271e-06
2.26255e-06
-5.58912e-07
3.86522e-06
1.78119e-07
-2.01551e-05
-8.86439e-07
-1.10793e-05
-2.8565e-07
3.22283e-05
-2.24664e-05
1.01523e-06
-2.12281e-06
1.09962e-06
1.02869e-05
1.21874e-05
1.00006e-06
-1.41308e-07
-7.88106e-06
6.71693e-06
-4.10763e-06
4.41301e-06
4.86982e-05
7.24385e-05
0.000250387
-3.63772e-06
-3.30909e-06
-2.94125e-06
-3.20863e-06
-1.99118e-05
-1.47923e-05
-1.23517e-05
-1.4785e-05
2.07725e-05
9.37331e-05
0.000176726
-9.43534e-06
-8.73441e-06
-7.24637e-06
-6.87956e-06
-1.6653e-06
4.96888e-05
6.68966e-05
-1.10643e-05
-7.5834e-06
-3.76027e-06
-2.78064e-06
7.55392e-07
1.03312e-07
5.56731e-06
-1.47979e-05
-9.27113e-06
8.97186e-06
1.34962e-05
-3.57681e-07
9.63608e-08
-2.9732e-07
5.36894e-07
7.46478e-07
-1.84198e-05
3.24766e-06
5.62944e-06
-4.44975e-07
9.24118e-06
2.92732e-05
4.93974e-05
0.000122763
-6.50502e-06
-2.72264e-06
-5.23867e-06
-1.29128e-06
4.05419e-05
7.56259e-05
0.000180477
2.80092e-06
1.29707e-05
0.000186264
-6.12996e-07
5.17064e-06
1.25344e-06
1.28286e-05
1.56282e-05
1.35095e-05
-1.97416e-05
-5.43791e-06
-2.42918e-06
1.05247e-05
1.9885e-05
-1.34096e-05
-1.5904e-07
1.1811e-06
7.92038e-07
1.20832e-05
-4.87745e-07
2.66664e-06
3.20245e-06
0.000120109
-1.27669e-07
-2.01116e-07
1.09803e-06
1.71793e-06
4.67021e-06
1.48662e-06
2.32795e-06
1.27513e-06
8.74615e-06
0.000204332
-8.40154e-07
5.80684e-06
1.33298e-06
8.3688e-06
1.24399e-05
1.02333e-05
-5.84103e-05
4.7728e-07
1.01942e-05
6.19846e-05
-2.85765e-05
-6.94404e-06
4.19563e-06
3.1325e-05
-2.84469e-05
-9.34861e-07
3.02609e-07
3.22721e-05
-5.28842e-05
2.13902e-06
-5.2717e-06
4.0237e-06
6.07394e-05
-2.53692e-05
-7.89278e-06
3.31069e-06
2.99488e-05
-2.66134e-08
3.74773e-07
-4.33971e-07
5.51859e-08
-2.68002e-07
-2.56071e-07
9.62339e-08
3.50746e-07
3.67516e-09
-3.50014e-07
-4.0096e-06
-2.4799e-06
5.11358e-07
6.32448e-06
1.21233e-06
-4.30632e-05
1.18851e-05
-1.13843e-05
-8.53522e-07
4.22037e-05
-4.1997e-06
2.34165e-07
-2.03294e-07
1.43812e-07
1.71151e-06
2.3135e-06
4.03522e-08
3.26243e-07
-2.67811e-06
2.92169e-07
3.58978e-07
1.66037e-06
3.47664e-05
9.3189e-05
0.000185202
-7.40499e-06
-9.86232e-06
-1.69679e-05
-1.60578e-05
-4.0749e-06
-6.4756e-06
-1.77094e-06
-1.55825e-07
4.50333e-05
7.70591e-05
0.000140054
-1.10379e-05
-1.074e-05
-1.59367e-05
-1.29392e-05
3.44999e-06
4.183e-05
6.63046e-05
-3.95324e-06
-2.84266e-06
-3.16245e-06
-2.27292e-06
4.57177e-06
3.85646e-06
4.14834e-06
-1.01989e-05
-2.55585e-06
5.72766e-06
1.05134e-05
-6.04479e-07
-2.37934e-07
1.78234e-07
5.47046e-07
6.50351e-07
-5.21396e-06
-1.66281e-06
-1.46691e-06
2.91081e-06
4.78251e-06
1.46884e-05
4.84255e-05
0.000138708
4.86079e-07
3.34872e-06
3.25074e-06
7.04486e-06
3.62774e-05
6.93289e-05
0.000166618
6.0652e-06
1.17223e-05
0.000195082
3.36635e-06
8.22269e-06
4.56635e-06
1.04291e-05
1.38408e-05
1.10769e-05
-2.50987e-05
-6.13393e-06
1.10319e-06
4.08321e-06
3.21114e-05
-1.21319e-05
1.9297e-06
-5.22113e-06
-2.64562e-06
1.92101e-05
-1.14118e-06
-3.74893e-06
5.86812e-07
0.000145931
3.45459e-06
4.63759e-06
5.15935e-06
5.73851e-06
2.47133e-06
6.75191e-07
3.629e-06
1.85426e-06
1.18462e-05
0.00022435
-1.85968e-06
4.16034e-06
-1.9075e-06
9.18346e-06
1.28189e-05
9.46593e-06
-6.93063e-05
4.16297e-06
9.51702e-06
6.92029e-05
-3.43072e-05
-2.06786e-06
-1.41472e-06
3.77898e-05
-3.59493e-05
7.71804e-06
-1.02817e-05
3.90998e-05
-6.73287e-05
8.56306e-06
-8.52681e-06
6.94135e-06
7.21974e-05
-3.40512e-05
-6.90817e-06
3.97117e-06
3.69882e-05
-1.77338e-07
2.99456e-07
-7.29378e-07
5.42857e-07
-5.69184e-07
-8.03482e-07
3.1468e-07
9.53406e-07
9.29063e-08
1.86118e-06
-6.57876e-06
-7.2204e-06
5.99127e-06
5.8538e-06
4.56546e-06
-3.10284e-05
8.5769e-06
-6.33376e-08
-2.25523e-06
2.02046e-05
-2.2521e-06
7.98808e-09
8.01576e-07
9.27699e-07
3.19746e-06
-2.68262e-06
-2.91062e-07
8.77264e-07
-2.4208e-06
-1.66765e-06
9.52636e-07
2.54962e-06
1.26281e-05
6.29965e-05
0.000132239
-1.38585e-05
-1.38681e-05
-2.56046e-06
-3.23352e-06
5.68018e-07
2.35727e-06
9.59473e-07
6.97389e-06
2.93339e-05
5.09011e-05
9.44251e-05
-1.02463e-05
-5.42956e-06
-2.9552e-06
-3.34652e-06
3.05031e-06
3.98327e-05
5.72391e-05
-1.84131e-06
-1.79935e-06
-3.24932e-06
-2.82472e-06
2.55825e-06
1.31465e-06
1.35816e-06
-1.24203e-05
7.14663e-07
1.27115e-06
-2.02528e-06
1.55101e-05
6.83199e-08
-9.7129e-09
2.07278e-08
-9.36266e-08
-4.90965e-07
-4.45056e-07
2.68217e-07
5.44702e-07
-7.77878e-07
-6.45926e-06
-3.36332e-06
7.56661e-07
3.66336e-06
6.18044e-06
5.44164e-06
6.32027e-05
0.000134279
-5.35976e-07
1.43085e-06
-4.04256e-07
-1.70901e-06
1.423e-05
5.81837e-05
0.000150547
7.57233e-06
1.01609e-05
0.000188129
4.46845e-06
7.53128e-06
4.14741e-06
9.0543e-06
1.16157e-05
6.46562e-06
-4.03799e-05
-3.07234e-06
5.09868e-06
9.60696e-06
3.63189e-05
5.5184e-09
-8.6179e-08
-1.78045e-08
-1.69295e-08
1.05726e-07
-2.67735e-05
8.6738e-06
-8.7348e-06
-8.48661e-06
3.39117e-05
1.40948e-06
-4.01597e-06
1.51954e-07
0.000171031
5.91436e-06
7.98993e-06
6.18885e-06
9.97674e-06
4.10532e-06
2.31693e-06
5.47419e-06
1.92104e-06
1.1107e-05
0.000242426
-3.25588e-06
3.97101e-06
-2.96713e-06
6.89111e-06
1.13932e-05
7.03096e-06
-7.24135e-05
5.72521e-06
7.9512e-06
7.0819e-05
-4.7835e-05
2.47262e-06
-5.73869e-06
5.11011e-05
-4.24405e-05
1.21014e-05
-1.50156e-05
4.55066e-05
-7.64326e-05
9.29566e-06
-9.11585e-06
8.36955e-06
7.89903e-05
-3.9589e-05
-6.25213e-06
4.53815e-06
4.1303e-05
-9.74082e-07
-2.94974e-09
-4.15535e-07
1.32475e-06
-1.31229e-06
-8.0594e-07
5.19463e-07
1.47439e-06
4.21406e-07
1.00017e-06
-5.87166e-06
-5.05866e-07
4.58308e-07
4.49764e-06
-3.62995e-07
-1.55243e-05
-1.14182e-06
1.67055e-06
2.52805e-06
1.28305e-05
-3.20612e-06
-3.92304e-07
4.52663e-07
8.43385e-07
3.17487e-06
-8.72491e-07
-4.42344e-07
6.25751e-07
-1.9896e-06
-7.97893e-07
7.4146e-07
1.86262e-06
-1.74567e-06
3.99653e-05
0.000114541
-1.30999e-06
-2.33079e-06
-3.14641e-06
-7.07277e-06
4.65885e-07
1.242e-06
-1.82821e-06
-6.54073e-06
-1.07394e-05
3.75991e-05
8.62736e-05
-3.69772e-06
-5.3879e-06
-5.05012e-06
-6.31823e-06
-4.00562e-06
2.51458e-05
4.15758e-05
-2.2003e-06
-3.86268e-08
-1.40671e-06
-1.01173e-07
-3.46115e-06
-4.92379e-06
-4.0846e-06
-1.61092e-05
5.91471e-06
-2.76165e-06
-1.47337e-06
1.04239e-05
4.46904e-07
5.26558e-08
3.63599e-06
-2.90588e-06
5.42128e-07
-1.77179e-06
-6.53116e-07
-7.93198e-07
8.43262e-07
5.84147e-07
-2.54898e-06
-7.57375e-06
-1.62502e-06
4.0892e-07
-1.06174e-07
1.1445e-05
-4.41537e-07
5.10054e-05
0.000126702
2.17487e-07
-9.71773e-07
-1.72132e-06
-5.46662e-07
1.9396e-06
4.56922e-05
0.000140073
6.13136e-06
8.73018e-06
0.00016294
3.56287e-06
6.57966e-06
4.47475e-06
6.12911e-06
1.04723e-05
6.194e-06
-3.86352e-05
-1.16798e-06
5.96559e-06
1.98061e-06
3.79883e-05
-1.27781e-06
-4.47304e-07
-1.16557e-06
-1.78769e-06
2.40138e-06
2.27699e-06
-3.98908e-05
1.15465e-05
-9.14967e-06
-1.26696e-05
4.46617e-05
5.50183e-06
-4.68044e-06
1.15684e-06
0.000184511
5.22588e-06
9.4778e-06
6.45267e-06
9.93647e-06
3.47874e-06
2.34771e-06
4.13059e-06
1.92902e-06
8.93041e-06
0.000254924
-3.4236e-06
3.83348e-06
-2.95244e-06
5.43637e-06
9.11234e-06
5.64859e-06
-7.21e-05
6.41991e-06
7.24152e-06
6.90977e-05
-4.7417e-05
-1.15333e-05
-8.38221e-06
1.05671e-05
5.67654e-05
-1.38406e-06
7.52244e-07
-1.65365e-06
2.28547e-06
-4.9833e-05
1.34165e-05
-1.52674e-05
5.28407e-05
-8.21188e-05
8.61593e-06
-8.53957e-06
7.44234e-06
8.35305e-05
-4.26593e-05
-5.47838e-06
4.68863e-06
4.3449e-05
-1.11402e-06
-5.00262e-08
1.76605e-07
9.59765e-07
-1.40118e-06
-4.96502e-07
7.25798e-07
1.19326e-06
-2.04206e-07
5.33744e-07
-3.47246e-06
-3.44507e-07
5.09219e-07
2.97821e-06
-3.0021e-07
-1.20681e-05
-1.93901e-08
8.09905e-07
9.24411e-07
1.06534e-05
-3.3245e-06
-7.04584e-07
-4.50775e-07
6.16406e-07
4.52836e-06
-6.64904e-07
-1.45013e-06
1.36899e-07
-2.65953e-07
-7.99121e-07
2.4194e-06
-4.10891e-08
-3.08044e-07
2.95419e-05
8.3614e-05
-1.33763e-06
-2.94626e-06
-5.76433e-07
-1.05453e-06
2.11797e-06
-6.83042e-07
3.30375e-06
2.86908e-06
-2.06669e-06
3.10515e-05
6.71352e-05
-2.58496e-06
-3.53243e-06
-1.9511e-06
-2.08595e-06
-4.75153e-06
1.84727e-05
4.07861e-05
-1.65007e-06
5.36076e-08
-2.07181e-06
-2.66407e-07
-3.23944e-06
-5.30707e-06
-2.51697e-06
-9.05468e-06
5.13215e-07
-4.73512e-06
-1.68852e-07
8.6939e-06
4.27513e-06
8.96816e-07
5.21231e-06
-3.61484e-06
1.43526e-06
-8.20467e-06
-6.66618e-07
-9.67135e-07
1.76821e-07
1.45554e-06
-4.78566e-06
-1.45706e-05
-7.59116e-07
5.08115e-06
-3.08484e-06
1.8119e-05
-9.26052e-06
4.54475e-05
0.0001159
-6.198e-07
1.18335e-06
6.61216e-07
2.93254e-06
1.51693e-06
3.67913e-05
0.000123556
5.59327e-06
7.13921e-06
0.000138147
3.94498e-06
5.69608e-06
4.53611e-06
4.52181e-06
8.84809e-06
4.50285e-06
-3.80243e-05
-2.81443e-07
5.34867e-06
-5.29945e-07
3.90803e-05
-4.01079e-06
-3.02787e-06
-1.13318e-06
-3.19467e-06
3.76994e-06
7.59657e-06
-4.88741e-05
1.23691e-05
-9.79205e-06
-1.42801e-05
5.28702e-05
7.70694e-06
-8.34888e-06
1.63251e-06
0.000194956
5.97394e-06
1.00123e-05
7.1075e-06
1.00495e-05
2.78439e-06
2.26168e-06
3.5293e-06
1.44344e-06
7.45197e-06
0.00026138
-3.48474e-06
2.9671e-06
-3.37073e-06
4.73567e-06
7.40505e-06
4.83897e-06
-6.99359e-05
5.76591e-06
5.98133e-06
6.67713e-05
-6.00001e-05
2.78919e-06
-7.6225e-06
7.47003e-06
5.73634e-05
-7.36024e-06
-1.3385e-06
-7.2626e-06
4.30486e-06
1.16565e-05
-5.60922e-05
1.30425e-05
-1.38538e-05
5.8536e-05
-8.57013e-05
7.71322e-06
-7.60557e-06
6.19743e-06
8.68482e-05
-4.41795e-05
-4.9357e-06
4.2079e-06
4.49073e-05
-9.35067e-07
-7.31062e-08
7.69686e-08
9.18611e-07
-2.22857e-07
-1.85012e-06
2.56015e-06
-4.88295e-07
-7.34502e-07
1.04906e-06
-2.91884e-06
-5.31018e-07
1.07451e-06
2.06079e-06
-3.41454e-07
-8.95831e-06
-1.22783e-07
1.1819e-06
1.50865e-06
6.73199e-06
-5.24164e-06
-3.65857e-08
-1.15823e-06
1.70704e-06
5.42049e-06
-6.91078e-07
-2.49473e-06
1.09032e-07
-1.97104e-06
-1.34753e-06
1.57649e-06
4.12779e-06
9.58616e-08
2.44697e-05
5.23495e-05
-9.02738e-07
-8.86733e-07
-1.04565e-06
-1.10243e-06
3.288e-06
2.90634e-06
2.62462e-06
1.81752e-06
3.45782e-06
2.34278e-05
5.11465e-05
-2.65183e-06
-2.5623e-06
-2.78861e-06
-2.79835e-06
-3.94143e-06
1.63919e-05
4.37056e-05
-3.28327e-06
-7.99389e-07
-3.02995e-06
-4.69346e-07
-4.01151e-07
-5.52537e-06
1.59629e-06
-1.20988e-05
2.77072e-06
-5.68972e-06
-1.60732e-07
1.12371e-05
1.30779e-05
5.76752e-06
-2.21325e-06
-7.52821e-06
-9.10395e-06
-2.38752e-06
-9.92876e-08
-6.23358e-07
3.11017e-06
-5.44715e-06
-2.25285e-05
3.90438e-07
5.87656e-06
-4.8689e-06
2.65775e-05
-1.03556e-05
3.99672e-05
0.000103731
-6.92466e-08
3.16779e-06
-3.15847e-07
4.24403e-06
4.92684e-06
2.84818e-05
0.000103219
4.98002e-06
6.00965e-06
0.000128032
3.5131e-06
3.47376e-06
-1.3496e-06
4.55819e-06
7.38821e-06
2.86079e-06
-4.0337e-05
-3.82692e-07
5.60246e-06
-1.47832e-06
4.15755e-05
-1.33694e-05
1.32301e-05
-8.44581e-06
8.92597e-06
-1.18232e-05
1.14824e-05
-5.64884e-05
1.25043e-05
-9.70148e-06
-1.45313e-05
5.92299e-05
8.98699e-06
-1.34301e-05
1.72426e-06
0.000205437
6.27782e-06
1.00709e-05
7.47085e-06
9.8118e-06
2.55404e-06
1.93834e-06
3.06852e-06
3.68786e-07
6.06932e-06
0.000262279
-3.87091e-06
1.82562e-06
-3.83036e-06
3.89353e-06
5.86665e-06
3.82939e-06
-6.75912e-05
3.61693e-06
5.36754e-06
6.49852e-05
-4.48713e-05
-1.61905e-06
-5.9087e-06
5.2399e-05
-6.11201e-05
1.196e-05
-1.23754e-05
6.32596e-05
-8.86086e-05
6.89637e-06
-7.08487e-06
5.26994e-06
8.95964e-05
-4.54248e-05
-4.25289e-06
3.99687e-06
4.56808e-05
-5.88938e-07
-2.8079e-08
5.33093e-07
8.37913e-08
9.99878e-07
-2.63171e-06
2.98549e-06
-1.35366e-06
-9.41531e-07
1.93266e-06
-1.08596e-06
-1.69585e-06
1.51162e-06
2.7905e-07
-8.00095e-07
-4.77194e-06
8.41741e-07
-7.26912e-07
1.94339e-06
3.51381e-06
-5.56442e-06
-6.15949e-09
-3.07606e-06
1.51744e-06
5.37669e-06
1.75251e-06
-2.00313e-06
3.21445e-08
-6.00184e-06
-2.5826e-07
4.58188e-07
7.7729e-06
-3.43164e-08
2.32735e-05
3.70983e-05
-1.8632e-06
-2.16755e-06
-1.87605e-06
-1.92751e-06
1.96604e-06
-1.07629e-06
1.14589e-06
-2.18919e-06
2.51236e-07
2.08518e-05
4.15696e-05
-3.05961e-06
-3.21716e-06
-2.53877e-06
-2.7449e-06
-4.86873e-06
1.19535e-05
4.67111e-05
-2.91764e-06
1.45129e-07
-2.56392e-06
1.11866e-06
-1.9028e-06
-2.92086e-06
-7.97531e-07
-1.39679e-05
2.09755e-06
-6.35679e-06
1.33584e-05
-3.77764e-06
6.93885e-07
-1.29263e-06
4.37639e-06
-6.15784e-06
-3.01032e-05
1.74654e-06
7.75896e-06
-6.24449e-06
3.3e-05
-5.78467e-06
3.3795e-05
0.000100801
-2.7309e-06
2.01841e-06
-3.08167e-06
1.98807e-06
1.02951e-05
2.16587e-05
8.63325e-05
-9.65359e-08
5.07481e-06
0.000133016
-2.15837e-06
1.68174e-06
4.82258e-07
2.28522e-06
6.68065e-06
3.31399e-06
-6.14005e-05
3.69122e-06
3.48412e-07
-6.73148e-06
6.39958e-05
-6.1642e-05
1.15998e-05
-9.32996e-06
-1.43023e-05
6.3805e-05
9.86943e-06
-1.82044e-05
1.48423e-06
0.000216561
6.46435e-06
9.6951e-06
7.65181e-06
9.41622e-06
2.19487e-06
1.4385e-06
2.52998e-06
1.12067e-07
4.90655e-06
0.0002553
-4.03136e-06
2.21675e-06
-3.71884e-06
3.12686e-06
4.7974e-06
3.02444e-06
-6.57558e-05
2.88841e-06
5.30559e-06
6.27487e-05
-5.11754e-05
1.21901e-05
-3.73566e-06
4.2721e-05
-6.5321e-05
1.08473e-05
-1.104e-05
6.69979e-05
-9.09147e-05
6.26219e-06
-6.37726e-06
4.50866e-06
9.14277e-05
-4.60151e-05
-3.86558e-06
3.64058e-06
4.62401e-05
2.38377e-07
3.98071e-07
-2.57504e-07
-3.7899e-07
1.7541e-06
-2.64522e-06
2.90408e-06
-2.01261e-06
-8.46288e-07
1.85683e-06
3.48377e-07
-1.558e-06
1.15164e-06
-9.52558e-07
-1.13273e-07
-2.65219e-06
1.02015e-06
-1.22008e-06
8.77196e-07
2.08819e-06
-5.18031e-06
5.21862e-07
-3.46835e-06
1.06168e-06
5.00612e-06
2.059e-06
-1.43398e-06
-2.95572e-07
-9.234e-06
5.9575e-07
-4.26441e-07
1.07942e-05
-2.56312e-06
1.30954e-05
3.83817e-05
-1.37834e-06
-1.38631e-06
-1.4581e-06
-1.27568e-06
9.49887e-07
-3.63925e-06
2.08886e-07
-3.83682e-06
-8.73581e-06
1.78144e-05
3.76064e-05
-2.03254e-06
-2.10326e-06
-1.85302e-06
-1.68964e-06
-4.07743e-06
1.36846e-05
3.95439e-05
-2.74138e-06
6.54231e-07
-2.56537e-06
2.91122e-08
-7.59537e-07
-4.97118e-06
-8.21618e-07
-1.36555e-05
5.28518e-06
-8.62608e-06
1.29186e-05
-4.71965e-06
1.1825e-06
-1.42267e-06
4.95982e-06
-6.98991e-06
-3.51244e-05
2.61384e-06
9.14826e-06
-6.44216e-06
3.67944e-05
4.15448e-06
2.15001e-05
0.000102445
-5.9359e-06
-1.33339e-06
-5.86279e-06
-1.07165e-06
1.38235e-05
1.91312e-05
7.53466e-05
3.41035e-06
4.70765e-06
0.000129818
2.35576e-06
4.33595e-06
3.04646e-06
3.30772e-06
5.99703e-06
3.54527e-06
-6.55708e-05
5.64902e-06
6.52739e-06
-9.28659e-06
6.60914e-05
-6.53224e-05
1.05997e-05
-8.26904e-06
-1.3209e-05
6.63622e-05
9.83858e-06
-1.75597e-05
8.76408e-07
0.000220238
5.9603e-06
8.87553e-06
7.05995e-06
8.65537e-06
1.53541e-06
6.79481e-07
1.7406e-06
8.07189e-07
4.36386e-06
0.000244746
-3.5591e-06
3.14731e-06
-3.08003e-06
2.91621e-06
4.70892e-06
2.82077e-06
-6.27605e-05
3.86865e-06
4.77253e-06
5.96342e-05
-4.11928e-05
6.70589e-06
-6.09876e-06
4.05856e-05
-6.85713e-05
9.90126e-06
-1.0232e-05
6.97785e-05
-9.20295e-05
5.89594e-06
-5.59691e-06
4.03989e-06
9.20545e-05
-4.64226e-05
-3.12834e-06
2.95075e-06
4.66002e-05
4.37384e-07
7.93183e-07
-8.6056e-07
-3.70007e-07
2.26451e-06
-2.50095e-06
2.55729e-06
-2.32085e-06
-1.03851e-06
1.12427e-06
1.61955e-06
-6.92511e-07
7.37375e-07
-1.75018e-06
4.19979e-07
-1.39681e-06
3.9794e-07
-6.08793e-07
2.06403e-07
9.81277e-07
-4.37484e-06
6.53993e-07
-1.57975e-06
6.08833e-07
3.77079e-06
9.20969e-07
-5.73085e-07
-1.6338e-07
-1.19087e-05
9.48319e-07
-1.04887e-06
1.27457e-05
-1.32058e-06
1.38741e-06
4.73952e-05
1.66186e-07
8.81856e-08
8.80439e-08
-3.08999e-08
-3.40658e-08
-4.85184e-06
-2.54836e-07
-4.25109e-06
-1.14672e-05
1.39603e-05
3.74502e-05
-1.15515e-06
-8.42303e-07
-1.09812e-06
-5.61939e-07
-5.75185e-06
1.88781e-05
3.5436e-05
-2.54578e-06
-1.05525e-06
-2.21204e-06
-1.74808e-06
-2.44593e-06
-5.79805e-06
-4.68041e-06
-1.18973e-05
5.02257e-06
-9.55414e-06
1.06771e-05
-4.995e-06
1.36474e-06
-1.26261e-06
4.89287e-06
-7.51368e-06
-3.79686e-05
3.51359e-06
9.92288e-06
-6.77862e-06
3.88244e-05
9.82872e-06
1.10165e-05
0.000103812
-7.86885e-06
-3.20943e-06
-7.06209e-06
-2.68405e-06
1.08758e-05
1.66142e-05
7.16456e-05
2.74702e-06
4.23087e-06
0.000133336
2.36289e-06
1.97172e-06
2.40849e-06
3.57287e-06
5.43949e-06
3.50329e-06
-6.75521e-05
5.99473e-06
4.85365e-06
-8.5634e-06
6.80141e-05
-6.70329e-05
9.20131e-06
-7.05913e-06
-1.21353e-05
6.75969e-05
9.42911e-06
-1.61646e-05
2.04366e-07
0.00021786
5.12249e-06
8.07659e-06
6.30664e-06
7.87398e-06
8.67591e-07
-2.87613e-08
1.13599e-06
1.40686e-06
4.289e-06
0.000231663
-2.91271e-06
3.41934e-06
-2.50704e-06
2.59927e-06
4.64567e-06
2.59227e-06
-6.02028e-05
3.73232e-06
3.9814e-06
5.81268e-05
-4.02591e-05
5.92218e-06
-5.58668e-06
3.99236e-05
-7.08796e-05
9.25115e-06
-9.78169e-06
7.16145e-05
-9.23856e-05
5.74634e-06
-5.01687e-06
3.73679e-06
9.22083e-05
-4.67734e-05
-2.40453e-06
2.21634e-06
4.69616e-05
3.49485e-07
9.88781e-07
-1.09258e-06
-2.45811e-07
2.55293e-06
-1.86199e-06
1.75116e-06
-2.44151e-06
-8.33121e-07
1.32752e-07
1.90568e-06
5.08219e-07
-3.94497e-07
-1.31903e-06
9.56616e-07
-4.67706e-07
-4.81842e-07
1.09171e-09
-4.42853e-07
4.34694e-07
-3.01039e-06
7.53293e-07
-3.1674e-07
-6.04981e-08
2.53444e-06
9.98981e-08
6.19367e-07
3.11313e-07
-1.31977e-05
8.21552e-07
-1.76824e-06
1.32137e-05
3.17738e-06
-6.00472e-06
5.42182e-05
2.02886e-06
1.60763e-06
2.06486e-06
1.45368e-06
-7.56627e-07
-5.24052e-06
-1.18416e-06
-3.96937e-06
-7.25325e-06
7.98503e-06
3.94476e-05
-6.82537e-08
2.71947e-07
-1.21526e-07
3.66076e-07
-3.76856e-06
1.90541e-05
3.20801e-05
-1.78822e-06
-1.77629e-06
-1.62099e-06
-2.06815e-06
-4.58735e-06
-3.57604e-06
-3.76586e-06
-8.36138e-06
2.02658e-06
-3.70698e-06
6.27322e-06
-4.56441e-06
7.68295e-07
-2.27024e-07
4.02313e-06
-7.25715e-06
-3.94557e-05
4.46124e-06
9.8055e-06
-7.16593e-06
3.96121e-05
1.20584e-05
4.92471e-06
0.000105814
-8.73947e-06
-4.61409e-06
-7.82658e-06
-3.81049e-06
5.2227e-06
1.07003e-05
7.57661e-05
3.59212e-07
3.28111e-06
0.000141631
1.56513e-06
-7.70219e-07
1.3699e-06
3.04235e-06
4.35191e-06
2.78237e-06
-6.97052e-05
1.56969e-06
1.94374e-06
-6.00466e-06
7.25556e-05
-6.81627e-05
8.25726e-06
-5.94032e-06
-1.12822e-05
6.81885e-05
8.93948e-06
-1.55032e-05
-4.59173e-07
0.000212649
4.55419e-06
7.58781e-06
5.71719e-06
7.52264e-06
5.09184e-07
-6.40735e-07
8.48105e-07
1.5422e-06
3.71672e-06
0.000214001
-2.39471e-06
3.52258e-06
-2.10337e-06
2.18062e-06
4.00887e-06
2.38588e-06
-5.96965e-05
3.39817e-06
2.8378e-06
5.82839e-05
-3.96593e-05
4.74818e-06
-4.65961e-06
3.95707e-05
-7.22218e-05
8.66998e-06
-9.47028e-06
7.2563e-05
-9.21613e-05
5.49616e-06
-4.20288e-06
3.38698e-06
9.11978e-05
-4.71384e-05
-1.06187e-06
1.13891e-06
4.70613e-05
-4.14084e-08
1.07866e-06
-1.39144e-06
3.54192e-07
2.14095e-06
-1.22279e-06
4.91339e-07
-1.4095e-06
-5.2472e-07
-8.30436e-07
7.02164e-07
1.58088e-06
-1.36419e-06
4.36303e-07
1.33697e-06
-4.92536e-07
-1.54946e-06
6.08777e-07
-1.07937e-06
1.17561e-06
-2.1079e-06
7.69407e-07
2.97216e-08
-5.64948e-07
2.25732e-06
-3.83601e-07
3.28023e-06
9.92599e-07
-1.24592e-05
1.07924e-06
-4.01057e-06
1.11177e-05
8.74505e-06
-9.92768e-06
5.97095e-05
3.32164e-06
2.36014e-06
3.25131e-06
2.55098e-06
-2.47174e-06
-4.91667e-06
-3.43835e-06
-4.96599e-06
-2.0943e-06
1.59217e-06
4.41175e-05
9.91769e-07
1.18095e-06
1.10302e-06
1.30154e-06
-1.76252e-06
9.02029e-06
3.0756e-05
-6.25046e-07
-1.06223e-06
-5.56797e-07
-1.27726e-06
-1.40108e-06
-2.30175e-06
-8.0386e-07
-3.94115e-06
1.19209e-06
-2.00712e-06
2.99366e-06
-3.38784e-06
-2.73908e-07
1.00898e-06
2.65277e-06
-5.86858e-06
-3.92575e-05
5.80535e-06
8.83129e-06
-7.76096e-06
3.82504e-05
1.37313e-05
2.37397e-06
0.000106946
-9.1033e-06
-6.03727e-06
-7.19524e-06
-4.82884e-06
6.3603e-07
6.03206e-06
8.44215e-05
-1.77413e-06
1.38117e-06
0.000146198
1.04335e-06
-1.93781e-06
1.01579e-06
1.63045e-06
2.48321e-06
1.24711e-06
-7.58428e-05
6.60196e-08
-7.31043e-07
-3.94114e-06
7.86748e-05
-6.80706e-05
7.33973e-06
-4.81719e-06
-1.01887e-05
6.77691e-05
7.96764e-06
-1.17345e-05
-9.00314e-07
0.00020511
3.62607e-06
7.01781e-06
4.8067e-06
7.112e-06
3.58814e-07
-1.00746e-06
6.33304e-07
2.30525e-06
3.41964e-06
0.000192207
-1.65836e-06
4.29619e-06
-9.99047e-07
2.516e-06
3.47387e-06
2.73821e-06
-6.05059e-05
3.48112e-06
1.14685e-06
5.95643e-05
-3.96293e-05
3.80296e-06
-3.92748e-06
3.97538e-05
-7.28751e-05
8.15827e-06
-9.18679e-06
7.30033e-05
-9.03898e-05
5.1239e-06
-3.32247e-06
3.08329e-06
8.89248e-05
-4.66362e-05
1.30621e-06
-6.53547e-07
4.59836e-05
-6.65502e-07
1.25303e-06
-1.55889e-06
9.71362e-07
4.18409e-07
-7.88661e-07
-2.90857e-07
6.61109e-07
-2.16611e-07
-1.34407e-06
-1.6455e-06
2.10893e-06
-2.02662e-06
3.12387e-06
1.71073e-06
-1.86591e-06
-2.21784e-06
1.23688e-06
-1.89119e-06
3.02733e-06
-2.50259e-06
1.11685e-06
-2.07274e-08
-1.37898e-06
3.42052e-06
-6.35083e-07
5.3425e-06
1.66294e-06
-9.75702e-06
1.57776e-06
-8.15765e-06
9.33147e-06
1.27004e-05
-1.26329e-05
6.49025e-05
4.11506e-06
3.35898e-06
4.18673e-06
3.85539e-06
-3.95833e-06
-6.58327e-06
-3.75901e-06
-6.47613e-06
-2.97139e-08
-3.17458e-06
5.05568e-05
2.11396e-06
2.29662e-06
2.61465e-06
2.44015e-06
-1.61504e-06
-1.93323e-06
3.54572e-05
7.83638e-07
1.88702e-07
8.90193e-07
2.93074e-08
-1.06284e-07
-2.43369e-06
-5.34523e-07
-2.24904e-06
1.72771e-06
-3.64076e-06
2.54682e-06
-2.06273e-06
-7.75076e-07
9.31434e-07
1.90637e-06
-3.0076e-06
-3.64662e-05
8.70098e-06
6.73349e-06
-9.12809e-06
3.31674e-05
1.81385e-05
-2.88576e-07
0.000105208
-8.31097e-06
-6.83655e-06
-8.21227e-06
-5.38504e-06
-5.8e-07
6.11577e-06
9.38496e-05
-1.994e-06
-6.18556e-07
0.000146408
7.52112e-07
-1.7094e-06
7.13592e-07
4.51559e-08
5.21907e-07
-4.33703e-07
-8.0388e-05
1.76238e-06
9.39736e-07
-4.68884e-06
8.03808e-05
-6.74836e-05
6.13101e-06
-3.432e-06
-8.90276e-06
6.6155e-05
7.53237e-06
-5.53546e-06
-1.29168e-06
0.000198128
1.45644e-06
5.69901e-06
1.71712e-06
5.64102e-06
9.60951e-08
-1.30839e-06
2.19227e-07
2.4526e-06
3.35386e-06
0.000174278
-6.68664e-07
4.2079e-06
-1.64056e-07
3.11878e-06
3.24813e-06
2.96099e-06
-6.26285e-05
3.34548e-06
-1.26232e-06
6.23794e-05
-3.98978e-05
3.57893e-06
-3.55349e-06
3.98723e-05
-7.3109e-05
7.72272e-06
-8.92852e-06
7.30231e-05
-8.72252e-05
4.85367e-06
-2.33644e-06
3.03555e-06
8.50263e-05
-4.50486e-05
3.3178e-06
-2.30516e-06
4.4036e-05
-1.41845e-06
1.31183e-06
-1.79937e-06
1.90599e-06
-1.69394e-06
-7.22065e-07
-2.45239e-07
2.66124e-06
2.11802e-07
-1.29218e-06
-4.49961e-06
2.32622e-06
-2.90031e-06
6.15408e-06
2.47016e-06
-4.30999e-06
-2.65509e-06
1.67415e-06
-3.20902e-06
6.02979e-06
-4.37579e-06
1.51977e-06
-2.78564e-07
-2.29441e-06
6.20722e-06
-7.78214e-07
4.77169e-06
7.21872e-07
-9.17011e-06
1.61745e-06
-7.45366e-06
9.51276e-06
1.24627e-05
-1.75101e-05
6.3576e-05
5.17193e-06
4.98205e-06
5.60706e-06
5.74617e-06
-2.83745e-06
-5.48646e-06
-2.53899e-06
-4.27043e-06
-3.50734e-07
-1.02615e-05
5.79765e-05
3.82781e-06
3.37478e-06
4.60988e-06
3.8428e-06
-2.3165e-06
-1.03991e-05
4.5739e-05
2.29067e-06
1.52299e-06
2.50911e-06
1.43202e-06
-9.87053e-07
-3.04434e-06
-1.64031e-06
-3.08287e-06
2.93245e-06
-6.33613e-06
4.17005e-06
-2.44865e-06
4.6395e-07
-1.22897e-06
3.21368e-06
-2.05126e-06
-2.8561e-05
7.627e-06
6.92194e-06
-7.06346e-06
2.31268e-05
2.13372e-05
-2.533e-06
0.000102371
-9.85615e-06
-7.65289e-06
-8.43176e-06
-7.53601e-06
-5.3997e-07
4.48729e-06
0.000100978
-1.87107e-06
-2.48061e-06
0.000146931
4.05454e-07
-2.17478e-06
1.88801e-07
-1.79946e-06
-1.3817e-06
-2.34868e-06
-7.9436e-05
3.98776e-06
1.92595e-06
-5.56594e-06
7.72171e-05
-6.42248e-05
5.39988e-06
-1.07146e-06
-7.54949e-06
6.18028e-05
5.64298e-06
1.06701e-06
-1.51341e-06
0.000196349
-2.75144e-06
3.62659e-06
-2.53795e-06
3.20597e-06
-2.09071e-07
-1.63023e-06
-1.13444e-08
1.6181e-06
3.25213e-06
0.000161955
-8.40678e-08
3.25772e-06
4.68381e-07
3.27962e-06