/*--------------------------------*- C++ -*----------------------------------*\
| =========                 |                                                 |
| \\      /  F ield         | OpenFOAM: The Open Source CFD Toolbox           |
|  \\    /   O peration     | Version:  5.x                                   |
|   \\  /    A nd           | Web:      www.OpenFOAM.org                      |
|    \\/     M anipulation  |                                                 |
\*---------------------------------------------------------------------------*/
FoamFile
{
    version     2.0;
    format      ascii;
    class       surfaceScalarField;
    location    "9.6";
    object      phi;
}
// * * * * * * * * * * * * * * * * * * * * * * * * * * * * * * * * * * * * * //

dimensions      [0 3 -1 0 0 0 0];

internalField   nonuniform List<scalar> 
29271
(
-5.04826e-06
-2.9068e-07
1.54217e-06
3.84789e-06
-8.25816e-06
-5.4229e-07
4.12691e-07
8.30148e-06
-1.72151e-05
-2.55851e-06
-8.3635e-07
1.45598e-06
2.33573e-06
1.68183e-05
-2.43785e-05
-1.85086e-06
-4.91339e-07
1.25124e-06
5.2644e-06
2.02051e-05
-1.56362e-05
-1.8601e-06
1.83252e-06
3.77446e-06
1.43743e-05
-2.48504e-06
-2.65142e-05
-1.61525e-06
-1.78651e-08
2.18739e-06
4.37468e-06
2.15852e-05
-2.51975e-05
-2.7075e-06
-3.50213e-06
3.20287e-06
4.27577e-06
2.39285e-05
-2.23182e-05
-4.34881e-06
-1.04346e-06
-7.64627e-08
4.08042e-06
2.37065e-05
-4.11783e-05
-6.3114e-06
-2.88933e-06
3.14671e-06
1.01811e-05
3.70512e-05
-1.70234e-05
-1.92185e-06
3.90642e-06
1.80376e-05
-2.91209e-06
-6.65027e-06
-1.38869e-06
2.66683e-06
5.4849e-06
-2.25587e-05
-2.68119e-06
-4.20136e-06
3.95245e-06
4.02602e-06
2.14628e-05
-2.35311e-05
-5.63423e-06
-3.82212e-06
3.34588e-06
5.44288e-06
2.41987e-05
-1.96573e-05
-7.20087e-06
-2.47611e-06
3.03137e-06
8.56006e-06
1.77429e-05
-2.37942e-05
-1.16101e-05
-2.51659e-06
1.43651e-07
2.29143e-05
1.4863e-05
-2.27936e-05
-3.4867e-06
-7.85349e-07
5.94135e-06
1.58259e-05
5.29847e-06
-2.75134e-05
-4.64128e-06
5.70964e-06
4.36976e-06
2.58626e-05
-3.78735e-06
-2.70353e-05
-5.91825e-06
-4.78403e-06
6.05786e-06
3.62845e-06
2.80512e-05
-2.90855e-05
-9.60727e-06
-6.08425e-06
5.03661e-06
5.74373e-06
3.39967e-05
-2.8714e-05
-1.1018e-05
1.37267e-05
4.20562e-05
-2.35315e-05
7.48063e-06
-8.72665e-06
-3.78303e-06
8.69753e-06
4.01283e-06
-2.23093e-05
-2.89829e-06
3.40202e-06
2.32936e-05
-1.58832e-06
-2.67711e-05
2.55682e-06
-9.40719e-06
5.76625e-07
3.59804e-05
-2.93551e-06
-9.8245e-06
-3.29013e-06
4.76023e-06
8.35156e-06
-3.33423e-06
-7.6966e-08
1.48595e-06
1.99571e-06
-7.52696e-06
1.97748e-06
1.01109e-06
4.5677e-06
-3.45213e-06
-3.94863e-06
-1.81692e-05
2.81719e-06
1.31314e-06
2.14396e-05
-4.1962e-06
-2.20059e-05
2.36413e-07
-2.61414e-06
9.48024e-07
2.76318e-05
-1.32153e-05
-1.78321e-06
6.03768e-07
3.94973e-06
9.78977e-06
6.55192e-07
-2.41697e-06
-1.53372e-06
-1.80702e-05
2.5564e-06
3.53735e-06
1.59271e-05
-4.52626e-06
2.96813e-05
8.20686e-05
-2.57278e-05
-2.42511e-05
-2.62613e-05
-2.50287e-05
-9.38732e-07
-8.17617e-07
-2.0831e-06
2.13841e-07
-1.51507e-06
-1.16335e-06
-2.0759e-06
2.42515e-06
-2.25456e-06
3.16609e-05
4.81727e-05
-2.27375e-05
-2.57711e-05
-1.87536e-05
-1.94153e-05
-3.712e-07
-1.06122e-06
5.2921e-06
7.12455e-07
-2.84811e-06
1.33517e-05
0.000102497
-1.129e-06
-2.83577e-06
-2.88299e-06
-2.5924e-06
-2.52806e-06
-2.98756e-06
-3.15759e-06
-3.0485e-05
-2.52239e-05
-2.10196e-05
-2.04135e-05
-1.80461e-05
-4.58854e-07
7.33402e-07
1.48682e-05
-3.94959e-06
-1.93558e-07
1.49284e-06
2.67275e-06
-3.46076e-06
-2.23654e-05
-2.18937e-06
3.74517e-06
3.57698e-06
2.06934e-05
-2.35093e-05
-5.04308e-06
0.000194357
-2.45815e-05
-2.34671e-05
-2.51799e-05
-3.10591e-05
-3.40602e-06
-8.23146e-06
-8.27587e-06
-1.19225e-05
-3.12253e-05
3.21917e-05
6.66148e-05
-1.17826e-05
-9.41952e-06
-1.92766e-05
-1.8951e-05
-3.75802e-06
2.11196e-05
5.25236e-05
-2.85986e-06
-3.52811e-06
-1.88984e-06
1.02719e-05
1.58649e-05
2.89245e-06
-6.60351e-06
-3.05639e-05
-3.25639e-05
-3.87788e-05
-4.79456e-06
-1.11883e-06
-3.62682e-06
3.50619e-06
2.276e-06
-2.70354e-05
-5.41851e-06
4.6531e-06
7.19959e-07
2.92114e-05
-2.13056e-06
-3.67334e-05
-5.26957e-06
0.0001577
2.77916e-06
5.36488e-06
4.69976e-06
4.14725e-06
-2.7682e-06
-3.47015e-06
-6.12045e-07
-2.20261e-05
-3.74871e-05
-3.49234e-05
-3.6444e-05
-1.4179e-05
1.12556e-05
0.000181409
-1.0812e-05
-7.02544e-06
-7.49054e-06
1.30622e-05
1.4502e-05
1.11509e-05
-4.33974e-05
-5.36155e-05
-4.50422e-05
-5.43591e-05
-4.95866e-05
-1.33262e-05
2.69163e-05
4.29371e-05
-1.95983e-07
-1.82859e-06
3.16374e-06
-1.16557e-06
-3.50181e-05
7.69508e-06
-1.67027e-05
3.87518e-05
-4.26427e-05
1.53373e-05
-2.08604e-05
1.12251e-05
4.81963e-05
-1.52466e-05
-2.18889e-05
1.16138e-05
2.55216e-05
-3.62703e-07
1.8678e-07
7.64281e-07
-5.31395e-07
-1.71261e-06
1.12915e-06
1.10533e-06
-4.71246e-07
-4.38704e-06
-4.79504e-06
-2.47599e-05
3.60449e-06
5.80933e-06
2.45282e-05
-4.38568e-06
-3.63943e-05
5.94662e-06
-3.53437e-06
1.25217e-06
3.71155e-05
-4.81667e-06
-1.22635e-06
-1.30958e-06
3.66772e-06
2.03788e-06
1.64699e-06
-6.10403e-06
-2.71116e-06
-1.58651e-05
-2.64846e-07
6.76533e-06
1.81798e-05
-1.0102e-05
2.65764e-05
7.24956e-05
-4.76235e-06
-5.45885e-06
-5.33064e-06
-5.12773e-06
2.35398e-06
3.74538e-06
3.26503e-06
4.41381e-06
-9.59381e-06
2.03716e-05
2.46845e-05
1.46011e-06
2.27417e-07
3.97376e-07
5.23568e-07
-3.09501e-06
1.57841e-05
9.70327e-05
-4.74466e-06
-1.32237e-06
-2.00334e-06
-4.33511e-07
-3.22373e-06
-2.32408e-06
-2.76676e-06
-1.07986e-05
6.89688e-07
-3.59726e-07
7.35434e-06
-7.92051e-07
-1.6729e-06
3.12419e-06
-6.64966e-07
-6.03953e-06
-2.44442e-05
-6.91992e-06
2.96089e-06
5.54523e-06
2.88975e-05
8.27841e-07
2.28308e-05
0.000207742
-2.39854e-06
-8.05756e-06
1.5012e-06
-1.51258e-06
-1.1585e-05
2.88551e-05
7.05442e-05
-2.29479e-06
4.96951e-06
4.51304e-05
-1.42627e-06
-1.93914e-06
-1.21037e-06
1.42513e-06
6.07288e-06
5.9953e-06
-4.73092e-07
-5.38627e-07
-1.87232e-06
1.63925e-06
-1.05e-06
-3.19032e-05
-1.17921e-06
-7.81813e-07
8.28039e-07
3.5094e-05
-2.05776e-06
-1.89139e-05
-3.22526e-06
0.000187446
2.5625e-06
2.17306e-06
4.86831e-06
3.98008e-06
7.11204e-07
-7.43425e-07
1.67179e-06
-6.1565e-06
9.71047e-06
0.000181986
-6.28075e-06
-3.80144e-06
-3.9992e-06
7.09833e-06
7.2682e-06
5.52448e-06
-3.98788e-05
-1.65563e-06
4.96449e-06
3.5383e-05
7.86218e-07
-7.37169e-07
5.88783e-07
-6.50888e-07
-4.27963e-05
8.0486e-06
-1.5075e-05
4.65982e-05
-5.59907e-05
1.36698e-05
-1.78729e-05
1.12927e-05
5.86117e-05
-2.67246e-05
-7.14809e-06
1.11813e-05
2.27154e-05
8.42444e-07
3.08202e-07
-1.987e-07
-9.66285e-07
1.4089e-06
-2.19878e-07
7.09259e-07
-1.89006e-06
-5.81785e-07
4.87055e-07
-2.35174e-05
-2.55765e-06
5.3836e-06
2.07862e-05
-8.48423e-07
-3.25388e-05
6.93087e-06
-2.38247e-07
3.49847e-06
2.31962e-05
-2.17047e-06
-4.78232e-07
-6.58137e-07
1.39562e-06
3.93248e-06
-2.02126e-06
-4.21791e-06
3.21329e-07
-1.88331e-05
-3.05532e-06
7.8e-06
1.7985e-05
-9.13789e-06
4.17524e-05
6.19807e-05
-9.6062e-06
-1.11972e-05
-1.02312e-05
-1.10367e-05
4.05336e-06
4.87072e-06
4.94948e-06
6.0982e-06
-1.46819e-05
3.7014e-05
1.04352e-05
-5.32618e-06
-3.93952e-06
-4.34267e-06
-3.61235e-06
-1.40188e-06
3.73303e-05
6.14396e-05
-5.03805e-06
-2.05411e-06
-3.15442e-06
-1.99157e-06
-1.52642e-06
-8.09771e-07
-4.42906e-07
-3.93417e-06
5.52138e-08
1.27874e-06
1.15675e-06
9.67957e-07
-6.9261e-07
9.1976e-07
-1.21716e-06
-1.02999e-06
-3.26273e-05
-8.95358e-06
-6.35686e-07
7.55849e-06
3.56881e-05
1.87111e-05
3.36643e-05
0.000198123
-5.6012e-08
-3.41483e-06
2.66384e-06
-1.96292e-07
-7.01675e-07
3.84035e-05
8.85675e-05
-1.08966e-06
6.52347e-06
6.17071e-05
-9.69946e-07
-1.21113e-06
-4.98668e-07
5.25031e-06
7.23159e-06
4.81591e-06
1.9669e-06
-2.06808e-06
-1.20891e-06
2.25557e-06
-2.03514e-06
-3.88323e-05
8.18765e-07
-1.30826e-06
9.23591e-07
4.08906e-05
-2.49235e-06
-7.86629e-06
-2.2057e-08
0.000215623
1.13225e-06
1.92916e-06
2.37918e-06
2.46429e-06
1.60317e-06
1.22205e-06
2.64525e-06
-3.68429e-06
5.4709e-06
0.000196937
-1.83893e-06
-1.14712e-06
-1.45663e-06
6.00597e-06
5.572e-06
6.6652e-06
-3.4467e-05
-4.03968e-07
6.45756e-06
3.12526e-05
-5.89362e-08
-9.71655e-07
-1.14052e-06
2.17001e-06
-5.08693e-05
8.45535e-06
-1.20598e-05
5.44492e-05
-6.04766e-05
9.44474e-06
-1.09363e-05
6.15754e-06
6.12815e-05
-1.94915e-05
-5.17917e-06
4.75352e-06
1.99142e-05
9.96537e-07
1.99278e-07
-2.40586e-07
-9.4267e-07
2.1104e-06
-7.8579e-07
7.2198e-07
-2.09305e-06
6.23796e-08
3.86232e-06
-1.83397e-05
-7.84366e-06
7.17757e-06
1.50811e-05
-3.38352e-07
-1.30461e-05
4.04729e-06
4.36737e-06
1.40237e-06
3.56741e-06
-6.84456e-06
2.06096e-07
9.87415e-07
-5.32889e-08
9.86563e-06
-4.16129e-06
-4.69836e-06
2.02513e-06
-1.73934e-05
-5.5807e-06
8.19358e-06
1.74537e-05
-2.78211e-06
3.96735e-05
6.32603e-05
-1.39503e-05
-1.60571e-05
-1.48316e-05
-1.09583e-05
4.09639e-06
4.30939e-06
4.97707e-06
4.2435e-06
-6.37473e-06
2.10852e-05
-8.44572e-07
-1.12585e-06
-2.4145e-06
-8.41219e-07
-1.83121e-06
9.4921e-09
3.60169e-05
3.62135e-05
-5.78141e-06
-4.36972e-06
-4.43377e-06
-3.26573e-06
3.86452e-07
7.32239e-08
2.15929e-07
1.11766e-06
-6.89349e-07
1.50843e-06
-1.98571e-06
9.72176e-07
-3.55836e-07
-4.29007e-07
-1.83751e-07
2.7613e-06
-3.94157e-05
-9.13827e-06
-3.44248e-06
7.68762e-06
4.15475e-05
2.33252e-05
3.22526e-05
0.000183751
5.14438e-07
-2.55259e-06
1.34805e-06
-8.42216e-07
1.1162e-05
3.3031e-05
8.87849e-05
-5.03586e-10
8.55969e-06
6.93355e-05
1.6543e-06
1.09919e-06
2.96843e-06
6.74064e-06
1.04446e-05
8.08412e-06
1.83004e-06
-3.03898e-06
-7.88581e-07
1.61177e-06
3.85254e-07
-4.32745e-05
1.27378e-06
-7.58769e-07
3.60119e-07
4.54104e-05
-3.01109e-06
-2.21242e-07
6.53905e-07
0.000238771
-1.05501e-06
1.0375e-06
6.17518e-07
1.94723e-06
1.83771e-06
1.4983e-06
2.78911e-06
-7.92088e-07
4.14365e-06
0.000209198
-7.41231e-07
1.41419e-06
-1.99394e-07
5.92306e-06
4.70063e-06
6.09977e-06
-2.9573e-05
2.58044e-06
6.23696e-06
2.85232e-05
-4.91851e-06
3.09209e-06
-6.47324e-06
8.29715e-06
-5.78432e-05
8.04658e-06
-9.9936e-06
6.04442e-05
-6.27104e-05
6.64249e-06
-8.12942e-06
4.59786e-06
6.37431e-05
-2.06019e-05
-3.68659e-06
3.3638e-06
2.09209e-05
8.45646e-07
9.28088e-08
-2.12849e-07
-7.44742e-07
1.84622e-06
-1.29809e-06
8.78261e-07
-1.51965e-06
2.8971e-08
5.65387e-06
-1.31311e-05
-7.29815e-06
4.8177e-06
9.92869e-06
2.3604e-07
2.17842e-06
-7.471e-07
1.59452e-07
3.82772e-07
-2.20959e-06
-1.37867e-05
2.03174e-06
1.24898e-06
-1.91422e-06
1.27567e-05
-3.36576e-07
-3.39261e-06
1.66584e-06
-1.89734e-05
-3.4731e-06
6.5102e-06
1.76631e-05
1.84709e-07
4.21587e-05
4.55976e-05
-7.74878e-06
-4.889e-06
-7.91824e-06
-4.83241e-06
1.25569e-06
1.24481e-06
-4.51295e-07
-1.3415e-06
-3.47231e-06
2.16477e-05
-7.26479e-06
-1.40446e-06
-2.8521e-06
-3.06005e-06
-4.25383e-06
-6.74098e-08
2.74946e-05
2.25821e-05
-4.93008e-06
-3.57855e-06
-4.60094e-06
-2.6179e-06
-2.49995e-07
-1.70479e-07
-1.12018e-06
2.01708e-06
-5.2951e-07
-3.84932e-08
1.45118e-06
-2.96767e-06
-1.1758e-07
2.41238e-08
1.42926e-07
-4.57996e-09
-6.73916e-07
3.67159e-07
-7.89082e-07
1.10014e-06
2.12635e-06
-4.28506e-05
-7.02801e-06
-1.78765e-06
6.36046e-06
4.31795e-05
2.64711e-05
3.02216e-05
0.000173629
-5.01635e-07
-2.83955e-06
2.60537e-07
-1.33144e-06
1.75274e-05
2.29578e-05
9.64185e-05
2.66656e-06
8.25573e-06
6.87208e-05
5.32506e-06
3.15239e-06
5.34339e-06
6.63126e-06
8.7278e-06
5.53457e-06
-3.78419e-06
-1.60077e-06
8.64967e-07
1.76321e-06
5.42334e-06
-1.18653e-07
1.2477e-07
8.89409e-09
1.80543e-07
-1.94675e-07
-4.8495e-05
4.28601e-07
1.58472e-08
6.07358e-07
5.10371e-05
-3.59386e-06
8.67717e-06
8.74375e-07
0.000254749
-2.73936e-06
9.51721e-07
-1.14629e-06
1.64808e-06
1.87007e-06
1.47958e-06
2.62872e-06
1.20471e-06
3.25448e-06
0.000218425
1.04629e-07
2.97364e-06
6.97334e-07
5.19262e-06
3.73371e-06
5.2466e-06
-3.02483e-05
3.2055e-06
6.1359e-06
3.03673e-05
-1.32041e-05
3.92399e-06
-6.68176e-06
1.59609e-05
-6.30242e-05
7.43123e-06
-8.55631e-06
6.50236e-05
-6.57249e-05
5.38209e-06
-6.67497e-06
3.73557e-06
6.65367e-05
-2.17439e-05
-3.53147e-06
2.60754e-06
2.26677e-05
6.62414e-07
1.048e-07
-1.58902e-07
-6.43882e-07
1.48866e-06
-4.4989e-07
5.46889e-07
-1.61621e-06
-6.57812e-08
6.63196e-07
-3.40967e-06
-4.51051e-07
4.98631e-06
-1.723e-06
1.68791e-07
2.11855e-06
2.89401e-07
-6.20655e-07
1.1439e-06
-3.09999e-06
-5.59727e-06
1.96463e-07
4.28537e-07
4.63765e-06
-5.26367e-07
8.60987e-07
-5.96604e-07
1.67633e-07
-1.42038e-05
6.50162e-08
2.94163e-06
1.16261e-05
-8.89626e-07
3.55697e-05
3.54232e-05
-8.85094e-06
-6.94695e-06
-7.22506e-06
-2.4313e-06
2.30679e-07
-4.3316e-07
1.79337e-07
9.71718e-07
-2.21208e-06
1.17578e-05
-7.10781e-06
-2.10313e-06
-6.0148e-06
6.24766e-07
-3.09912e-06
-1.70161e-07
2.12408e-05
2.61262e-05
-5.66081e-06
-1.40365e-06
-5.18857e-06
-1.76344e-06
-3.7898e-06
-3.67458e-06
-5.34596e-06
4.57545e-06
-1.75793e-06
2.89735e-08
4.6916e-07
-3.48582e-06
8.62341e-07
-1.33547e-06
1.11128e-06
-3.1542e-06
4.34528e-06
-1.82922e-06
-1.00768e-06
5.90986e-07
-2.82298e-07
6.96493e-07
6.61639e-07
-4.31344e-05
-3.95946e-06
-1.88953e-07
4.30989e-06
4.23112e-05
2.50867e-05
2.72105e-05
0.000162735
-1.41324e-06
-2.87804e-06
-1.92028e-07
-1.35086e-06
2.01141e-05
1.53577e-05
9.77912e-05
3.60321e-06
6.17016e-06
6.86702e-05
6.12027e-06
4.59854e-06
5.97085e-06
4.44658e-06
6.30505e-06
4.19076e-06
-7.99834e-06
6.27469e-08
1.02536e-06
3.21942e-07
1.01915e-05
-8.12054e-07
-2.32045e-06
1.68332e-06
-2.79196e-06
5.60063e-07
3.68108e-06
-5.33655e-05
5.91245e-07
2.75677e-07
-1.35966e-07
5.56078e-05
-2.97325e-06
1.45903e-05
9.18149e-07
0.000262755
-3.33791e-06
1.28636e-06
-1.62711e-06
1.94275e-06
1.81259e-06
1.33029e-06
2.28817e-06
2.73034e-06
2.2576e-06
0.000226108
9.74454e-07
4.44575e-06
1.23495e-06
4.17841e-06
2.43704e-06
4.00622e-06
-3.2411e-05
4.10013e-06
4.83067e-06
3.23807e-05
-1.65048e-05
-2.05005e-06
-8.06323e-06
7.74226e-06
1.88758e-05
-3.73568e-06
-2.44308e-06
5.75158e-08
6.12124e-06
-6.70098e-05
7.03748e-06
-7.51459e-06
6.84051e-05
-6.80339e-05
4.36506e-06
-5.46758e-06
3.09117e-06
6.83028e-05
-2.35429e-05
-2.9926e-06
2.268e-06
2.42675e-05
6.87427e-07
1.18006e-07
-1.60549e-07
-6.31232e-07
1.83508e-06
-7.86439e-07
1.01841e-06
-2.10909e-06
-6.6734e-07
6.92269e-07
4.25315e-06
-8.79656e-07
6.81478e-07
-4.0799e-06
-3.00249e-07
2.84128e-06
4.24157e-08
4.3716e-07
4.73421e-07
-3.49403e-06
3.35787e-06
-1.76311e-07
6.42052e-08
1.81079e-06
-4.84498e-06
-2.11564e-07
-4.94294e-07
2.75529e-07
-1.00864e-05
-3.11741e-07
1.54905e-06
9.0678e-06
-5.32535e-06
2.34409e-05
1.59853e-05
-1.14868e-06
6.6394e-08
5.75303e-07
-9.95622e-07
2.26336e-07
-6.11284e-08
1.96443e-06
6.95299e-07
-1.39836e-05
1.78466e-06
9.81995e-07
2.97042e-07
-7.90556e-07
-8.97399e-07
1.74742e-07
-5.58807e-06
1.14109e-05
2.44611e-05
-3.28436e-06
-6.43461e-07
8.73535e-08
1.89945e-07
-4.84322e-06
-5.74943e-06
-3.89813e-06
2.18379e-06
-1.81618e-06
-6.83554e-06
2.62095e-06
-1.74109e-06
6.39969e-06
-1.23687e-06
7.15034e-06
-4.57032e-06
2.05089e-06
-9.79373e-06
-7.69075e-07
-2.48537e-07
-4.11149e-07
1.41769e-06
8.05233e-07
-4.19671e-05
-2.45398e-06
-6.3865e-07
2.98487e-06
4.12697e-05
2.20984e-05
2.32965e-05
0.000144841
-7.77357e-07
-2.62187e-06
3.7057e-07
-1.0313e-06
1.82747e-05
7.93497e-06
9.54646e-05
3.98123e-06
3.63161e-06
6.61932e-05
5.29178e-06
4.19571e-06
5.27959e-06
2.89298e-06
4.02295e-06
2.86666e-06
-1.20527e-05
-6.31187e-07
2.64167e-06
-5.91112e-08
1.40826e-05
-6.61641e-06
-1.12742e-07
3.35967e-07
8.54909e-07
-2.71804e-06
8.25632e-06
-5.81947e-05
1.85354e-06
-5.19083e-07
-1.61501e-06
6.03732e-05
-1.89792e-06
1.56572e-05
8.33341e-07
0.000266058
-3.47976e-06
1.77439e-06
-1.41687e-06
2.32093e-06
1.41722e-06
1.11025e-06
1.7768e-06
3.34156e-06
1.38607e-06
0.000230775
9.82522e-07
4.4251e-06
1.08144e-06
3.13078e-06
1.56467e-06
3.01285e-06
-3.41945e-05
4.31765e-06
3.35878e-06
3.34912e-05
-2.00834e-05
9.48122e-07
-7.47923e-06
7.64509e-06
1.89694e-05
-8.75704e-06
2.61437e-06
-7.36889e-06
5.21139e-06
8.30017e-06
-6.9699e-05
6.98085e-06
-6.94581e-06
7.04973e-05
-6.91867e-05
3.834e-06
-4.70249e-06
2.35181e-06
6.90895e-05
-2.49051e-05
-2.40823e-06
2.02488e-06
2.52884e-05
8.36461e-07
2.19618e-07
-1.99192e-07
-8.51548e-07
1.82232e-06
-1.4529e-06
9.98831e-07
-1.37276e-06
1.19961e-08
1.80688e-06
2.99961e-06
-1.68187e-06
4.91726e-07
-3.62834e-06
3.36353e-07
4.09289e-06
6.84989e-07
-5.79809e-07
5.52172e-07
-5.0866e-06
4.41811e-06
1.97508e-07
6.17752e-08
-8.19682e-07
-4.03261e-06
1.74901e-07
1.3363e-07
1.96427e-06
-8.43432e-06
-2.75139e-06
1.00447e-06
8.08334e-06
-9.59066e-06
1.61549e-05
8.69078e-06
-1.0116e-06
-1.444e-06
-1.797e-06
-1.9997e-06
2.35201e-06
8.63458e-07
2.37807e-06
1.3891e-06
-1.45983e-05
5.43854e-06
7.46785e-06
-1.64362e-06
-8.51341e-07
-2.25323e-06
-2.16859e-06
-5.48063e-06
5.17537e-06
2.53978e-05
1.28236e-08
-8.91815e-07
-1.11024e-06
-1.4579e-06
-3.29527e-06
-5.61117e-06
-2.87613e-06
6.49362e-07
-1.51598e-06
-5.60181e-06
1.46039e-06
-4.72585e-07
1.32511e-05
4.47701e-06
-1.71168e-06
-9.3068e-06
-6.70963e-06
-2.19465e-06
-1.33892e-08
-8.28759e-07
3.0368e-06
2.04778e-06
-4.04605e-05
-1.96614e-06
-1.50472e-06
2.54169e-06
3.93419e-05
1.89875e-05
1.90754e-05
0.000125046
-4.6452e-08
-2.3096e-06
1.09616e-06
-8.53184e-07
1.99189e-05
6.40825e-06
9.35635e-05
4.01226e-06
2.16961e-06
6.81267e-05
4.76306e-06
3.43239e-06
2.18525e-06
2.26737e-06
2.79446e-06
1.53635e-06
-1.48159e-05
-5.07017e-07
4.25718e-06
-6.28331e-07
1.57063e-05
-9.1512e-06
1.2384e-05
-4.84059e-06
4.82573e-06
-9.51621e-06
6.2983e-06
-6.26411e-05
3.28098e-06
-1.33442e-06
-3.21517e-06
6.52184e-05
-1.30868e-06
1.40016e-05
6.29306e-07
0.000266216
-3.0079e-06
2.36732e-06
-6.9989e-07
2.83892e-06
8.79063e-07
7.77439e-07
1.1316e-06
2.91098e-06
1.14901e-06
0.000234652
7.23946e-07
3.99216e-06
9.41051e-07
2.72186e-06
1.44831e-06
2.64602e-06
-3.48798e-05
3.0004e-06
2.71861e-06
3.42414e-05
-1.47573e-05
8.80958e-07
-4.67059e-06
1.85469e-05
-7.13308e-05
6.86922e-06
-6.6874e-06
7.17783e-05
-6.93973e-05
3.80226e-06
-4.46225e-06
1.97384e-06
6.92325e-05
-2.55923e-05
-2.2918e-06
2.06991e-06
2.58142e-05
7.83952e-07
5.51329e-07
-5.12724e-07
-8.22494e-07
1.8318e-07
-3.45559e-06
2.1649e-06
1.10718e-06
-2.41113e-06
2.24985e-06
5.11404e-06
-1.42936e-06
2.96668e-06
-6.49009e-06
-1.5352e-06
6.38957e-06
6.56877e-07
-4.31532e-07
2.59285e-06
-7.67257e-06
5.09347e-06
-1.07707e-06
1.71098e-06
1.48842e-06
-6.99919e-06
-2.16617e-07
-2.99562e-07
2.65242e-06
-7.95273e-06
-3.59304e-06
5.94458e-07
8.59846e-06
-1.4586e-05
1.75427e-05
6.43939e-06
-2.57916e-06
-2.81693e-06
-2.21155e-06
-2.94694e-06
3.13068e-06
1.384e-06
3.42796e-06
1.90656e-06
-1.67328e-05
7.77816e-06
1.38332e-05
-2.8103e-06
-3.02835e-06
-3.01637e-06
-3.14162e-06
-3.59657e-06
5.25257e-06
2.5073e-05
-1.81605e-06
-1.89345e-06
-2.78195e-06
-2.83322e-06
-4.43994e-06
-1.40578e-06
-2.89365e-06
-2.08822e-06
-2.18199e-06
-1.7732e-06
2.44684e-06
-4.05742e-06
6.80525e-07
-1.77586e-06
5.15275e-06
2.47582e-06
-3.82317e-05
-1.70191e-06
-1.99415e-06
2.35402e-06
3.70979e-05
1.64822e-05
1.67658e-05
0.000109466
6.0525e-07
-1.90107e-06
1.57804e-06
-4.07032e-07
1.87919e-05
6.30134e-06
9.27306e-05
1.463e-06
1.50738e-06
7.81933e-05
1.25086e-06
2.25765e-06
2.42861e-06
1.02491e-06
2.56711e-06
1.47836e-06
-2.3061e-05
2.39982e-06
1.12025e-06
-3.57732e-06
2.45813e-05
-6.83817e-05
3.9196e-06
-1.80253e-06
-4.30082e-06
7.13866e-05
-8.21083e-07
1.16905e-05
4.53564e-07
0.000264986
-2.14074e-06
2.92343e-06
1.09052e-07
3.32007e-06
4.00151e-07
5.43567e-07
6.96761e-07
2.61758e-06
1.19605e-06
0.000236242
7.61635e-07
4.13094e-06
1.15201e-06
2.561e-06
1.48556e-06
2.49651e-06
-3.58632e-05
2.23525e-06
2.60731e-06
3.51456e-05
-1.9139e-05
5.36883e-06
-2.92231e-06
1.66925e-05
-7.22801e-05
6.86626e-06
-6.66476e-06
7.25322e-05
-6.94498e-05
3.79134e-06
-4.23991e-06
1.78241e-06
6.9312e-05
-2.60297e-05
-2.21981e-06
2.02087e-06
2.62287e-05
1.41305e-06
2.21448e-07
8.99779e-07
-2.53427e-06
-2.38764e-06
-3.03365e-06
1.83483e-06
3.58604e-06
-1.28293e-06
1.91206e-06
7.4626e-06
-1.13796e-06
1.86082e-06
-8.8146e-06
-2.27481e-06
8.9893e-06
1.68244e-07
3.62702e-07
2.93226e-06
-1.01777e-05
9.18001e-06
-2.38818e-06
2.13719e-06
3.31449e-06
-1.13266e-05
-9.16897e-07
-4.84874e-07
2.79299e-06
-9.65964e-06
-4.17506e-06
4.0841e-07
1.11182e-05
-1.90659e-05
1.87828e-05
2.42676e-06
-2.42504e-06
-3.03823e-06
-1.89895e-06
-2.3836e-06
4.12244e-06
2.39287e-06
4.41218e-06
3.11406e-06
-1.7218e-05
1.1114e-05
1.37376e-05
-3.41822e-06
-3.51879e-06
-2.87757e-06
-3.05165e-06
-1.0069e-06
1.0186e-05
1.8011e-05
-4.06066e-06
-4.25982e-06
-3.74099e-06
-3.81577e-06
-1.76536e-06
-6.69072e-07
-1.02351e-06
-3.57934e-06
-3.98882e-06
1.40658e-06
5.15468e-06
-6.1586e-06
1.02899e-06
-1.97797e-06
7.10758e-06
2.40729e-06
-3.6425e-05
-1.32428e-06
-2.25797e-06
1.66613e-06
3.59339e-05
1.37153e-05
1.49438e-05
9.85743e-05
7.64813e-07
-1.55036e-06
1.64974e-06
1.50983e-07
1.6063e-05
6.79142e-06
9.47055e-05
3.07697e-06
1.51254e-06
8.50942e-05
2.66898e-06
3.64318e-06
3.18092e-06
1.29277e-06
2.49637e-06
1.47641e-06
-2.56395e-05
2.08596e-06
3.82949e-06
-4.55048e-06
2.73515e-05
-7.45993e-05
4.4433e-06
-2.10627e-06
-5.23585e-06
7.75305e-05
-3.23774e-08
1.07604e-05
3.27875e-07
0.000262302
-1.54249e-06
3.22732e-06
4.20742e-07
3.56744e-06
7.34543e-08
3.97208e-07
3.95762e-07
2.65576e-06
1.159e-06
0.000237519
9.53881e-07
4.11145e-06
1.3082e-06
2.34094e-06
1.45413e-06
2.2917e-06
-3.65911e-05
2.50677e-06
2.3747e-06
3.58779e-05
-1.68023e-05
2.90678e-06
-3.32632e-06
1.72218e-05
-7.27528e-05
6.85006e-06
-6.59952e-06
7.28301e-05
-6.94997e-05
3.77243e-06
-4.07922e-06
1.69431e-06
6.92712e-05
-2.6555e-05
-2.12841e-06
1.88002e-06
2.68033e-05
3.59341e-06
-4.88208e-07
1.19499e-06
-4.3002e-06
-4.88352e-06
-1.85258e-06
5.94402e-07
6.1417e-06
-3.66879e-07
1.48876e-06
9.99025e-06
-1.29511e-06
1.30035e-06
-1.11174e-05
-1.77886e-06
1.10894e-05
7.03906e-07
9.71915e-09
2.18108e-06
-1.22052e-05
1.34358e-05
-2.3591e-06
1.92111e-06
3.27065e-06
-1.55486e-05
-7.19924e-07
1.70729e-07
2.72389e-06
-1.28817e-05
-4.55565e-06
-1.39905e-08
1.45567e-05
-1.95556e-05
1.99606e-05
-5.23973e-06
-2.33104e-06
-2.37027e-06
-2.1382e-06
-2.03365e-06
4.51056e-06
3.36087e-06
4.3648e-06
3.89845e-06
-1.61198e-05
1.01883e-05
1.00443e-05
-2.63091e-06
-2.84249e-06
-2.09107e-06
-2.36628e-06
-1.53137e-06
9.10231e-06
1.09874e-05
-3.70388e-06
-3.71089e-06
-2.86589e-06
-2.58475e-06
-9.74796e-07
-1.92119e-06
-9.05708e-07
-6.98656e-06
-1.09155e-06
-1.77514e-06
8.32187e-06
-8.05419e-06
1.1317e-06
-2.09227e-06
9.01476e-06
2.36461e-06
-3.58882e-05
-1.10753e-06
-2.39682e-06
1.01918e-06
3.60087e-05
1.02463e-05
1.43338e-05
9.17018e-05
9.11365e-07
-8.39596e-07
1.57982e-06
6.01383e-07
1.15975e-05
5.29519e-06
9.82474e-05
2.68633e-06
1.16448e-06
8.95673e-05
2.60717e-06
2.57591e-06
2.70272e-06
1.21551e-06
2.06173e-06
1.21297e-06
-2.9459e-05
2.78759e-06
3.17224e-06
-4.34937e-06
3.05349e-05
-8.04436e-05
4.82542e-06
-2.26547e-06
-6.0038e-06
8.28068e-05
1.08063e-06
1.08247e-05
3.39305e-07
0.000259079
-1.45508e-06
3.37759e-06
3.00175e-07
3.625e-06
-5.10812e-08
3.87534e-07
2.09017e-07
2.64437e-06
1.08211e-06
0.0002379
1.21077e-06
3.93757e-06
1.41133e-06
2.11235e-06
1.30481e-06
2.03588e-06
-3.76887e-05
2.37904e-06
1.92266e-06
3.71959e-05
-1.76734e-05
2.76011e-06
-3.20668e-06
1.81199e-05
-7.28376e-05
6.80678e-06
-6.43192e-06
7.2802e-05
-6.93946e-05
3.72071e-06
-3.87104e-06
1.59386e-06
6.90332e-05
-2.70629e-05
-1.93464e-06
1.75859e-06
2.7239e-05
4.73687e-06
-7.16709e-07
1.03494e-06
-5.0551e-06
-7.34744e-06
-1.72738e-07
-6.94042e-07
8.21422e-06
2.32713e-07
4.30695e-07
1.19647e-05
-1.1069e-06
1.14583e-06
-1.26671e-05
-9.04621e-07
1.29269e-05
1.14695e-06
-7.03727e-07
9.01299e-07
-1.33668e-05
1.7126e-05
-1.90785e-06
9.50474e-07
2.0381e-06
-1.8216e-05
9.24951e-09
3.27127e-07
2.36972e-06
-1.62576e-05
-3.82513e-06
-4.18321e-07
1.78042e-05
-1.76686e-05
2.06071e-05
-1.13696e-05
-2.7563e-06
-2.0049e-06
-2.74855e-06
-1.80627e-06
3.51852e-06
3.66228e-06
2.18928e-06
3.13729e-06
-1.83058e-05
4.81001e-06
9.66722e-06
-1.10833e-06
-1.31796e-06
-5.59328e-07
-8.10154e-07
-2.91383e-06
1.6157e-06
5.00118e-06
-1.38283e-06
-1.18978e-06
-5.58693e-07
-1.59476e-07
-1.78628e-06
-3.83821e-06
-2.10618e-06
-8.99471e-06
1.81652e-06
-3.99951e-06
8.26387e-06
-9.88274e-06
1.37977e-06
-2.17261e-06
1.06756e-05
2.21136e-06
-3.6447e-05
-7.91322e-07
-2.44772e-06
6.00247e-07
3.68745e-05
6.71211e-06
1.30167e-05
8.96548e-05
1.12343e-06
-5.34431e-07
1.65129e-06
6.84974e-07
2.82769e-06
2.32835e-06
0.000104613
7.71905e-07
3.54649e-07
8.79608e-05
1.41511e-06
2.73257e-07
1.02049e-06
6.48097e-07
1.08475e-06
4.81604e-07
-3.16016e-05
2.8404e-06
2.05867e-06
-3.97006e-06
3.14445e-05
-8.50941e-05
4.97863e-06
-2.15651e-06
-6.48547e-06
8.68459e-05
1.91154e-06
9.99332e-06
3.62437e-07
0.000255939
-1.64402e-06
3.49751e-06
8.54273e-08
3.62043e-06
-1.7414e-07
3.46963e-07
6.86238e-08
2.52373e-06
8.58951e-07
0.000236004
1.21966e-06
3.85003e-06
1.46142e-06
1.70823e-06
9.77829e-07
1.61734e-06
-3.92162e-05
2.25735e-06
1.27318e-06
3.8564e-05
-1.85403e-05
2.85428e-06
-3.08218e-06
1.87682e-05
-7.26398e-05
6.73612e-06
-6.10181e-06
7.23679e-05
-6.89965e-05
3.5773e-06
-3.61755e-06
1.46635e-06
6.84293e-05
-2.74092e-05
-1.63627e-06
1.60949e-06
2.7436e-05
5.20002e-06
-9.11248e-07
9.59587e-07
-5.24835e-06
-8.66524e-06
2.48791e-06
-2.41637e-06
8.59371e-06
6.72509e-07
-1.35985e-06
1.29471e-05
-4.17973e-07
9.78679e-07
-1.28204e-05
2.63375e-08
1.33358e-05
1.39461e-06
-1.24803e-06
-4.82867e-07
-1.30259e-05
1.85905e-05
-1.38433e-06
-2.14771e-08
3.26531e-07
-1.82911e-05
7.79927e-07
8.72894e-07
7.54068e-07
-1.89456e-05
-1.34028e-06
-1.0367e-06
1.96957e-05
-1.40217e-05
2.13356e-05
-1.12131e-05
-3.0839e-06
-1.76101e-06
-3.26706e-06
-1.76701e-06
6.77093e-07
2.1247e-06
-9.07551e-07
5.14297e-07
-2.03559e-05
-4.16237e-07
1.36289e-05
5.95718e-07
5.57197e-07
9.42327e-07
6.93558e-07
-3.93743e-06
-8.116e-06
2.09754e-06
1.36388e-06
1.31597e-06
1.44259e-06
1.56715e-06
-2.90041e-06
-4.75068e-06
-3.43736e-06
-6.57041e-06
3.31773e-06
-4.81948e-06
4.13473e-06
-1.13938e-05
1.65868e-06
-2.39364e-06
1.21288e-05
1.8006e-06
-3.72676e-05
-3.96888e-07
-2.08538e-06
3.50002e-07
3.75992e-05
7.00732e-06
1.07301e-05
9.13982e-05
9.4054e-07
-6.20339e-07
1.07609e-06
4.58463e-07
-2.84397e-06
5.3628e-07
0.000113512
-1.31754e-06
-1.21225e-06
8.49861e-05
-1.53021e-07
-2.11629e-06
-5.51711e-07
-8.26348e-07
-6.10277e-07
-1.19782e-06
-3.15319e-05
2.33795e-06
1.25484e-06
-3.83805e-06
3.04596e-05
-8.85778e-05
4.89001e-06
-1.86981e-06
-6.73848e-06
8.98716e-05
2.42446e-06
8.30969e-06
2.69782e-07
0.000252752
-1.73395e-06
3.54731e-06
1.54355e-07
3.80906e-06
-4.9606e-07
2.33763e-07
-1.76919e-07
2.4672e-06
5.76644e-07
0.00023235
1.25643e-06
3.85509e-06
1.44633e-06
1.31774e-06
5.53765e-07
1.02707e-06
-4.04124e-05
2.31937e-06
1.63184e-07
3.91848e-05
-1.86965e-05
3.13888e-06
-2.93469e-06
1.84923e-05
-7.19692e-05
6.531e-06
-5.82884e-06
7.15368e-05
-6.79683e-05
3.51509e-06
-3.37424e-06
1.43203e-06
6.6972e-05
-2.73955e-05
-9.70538e-07
1.28272e-06
2.70834e-05
5.1304e-06
-1.03307e-06
8.30305e-07
-4.92763e-06
-8.12098e-06
5.07933e-06
-4.30681e-06
7.34846e-06
1.12639e-06
-3.01799e-06
1.24916e-05
2.99629e-07
8.00261e-07
-1.16999e-05
9.51868e-07
1.22926e-05
1.48599e-06
-1.54549e-06
-2.05884e-06
-1.11262e-05
1.77425e-05
-8.7125e-07
-6.94744e-07
-1.02789e-06
-1.64624e-05
1.31382e-06
1.19619e-06
-1.93226e-06
-1.99112e-05
1.5082e-06
-1.07445e-06
2.02135e-05
-1.05706e-05
1.93781e-05
-4.64291e-06
-3.06353e-06
-1.233e-06
-3.10782e-06
-1.59371e-06
-1.83881e-06
-1.68624e-07
-2.97521e-06
-1.39698e-06
-2.04535e-05
-5.71629e-06
2.07662e-05
2.2659e-06
2.06217e-06
2.06811e-06
2.06569e-06
-3.7e-06
-1.93879e-05
2.86133e-06
3.51462e-06
3.17013e-06
3.38471e-06
3.1587e-06
-3.29485e-06
-4.55067e-06
-3.51205e-06
-1.21531e-06
4.33936e-06
-6.22363e-06
-6.00424e-07
-1.28267e-05
1.86762e-06
-2.34654e-06
1.33056e-05
8.58873e-07
-3.78076e-05
1.69429e-07
-7.1077e-07
-4.02398e-07
3.78925e-05
9.76683e-06
7.31944e-06
9.64594e-05
-2.87349e-07
-1.10312e-06
-1.08423e-06
-2.94605e-07
-8.69588e-07
-4.75322e-06
0.000123186
-2.18675e-06
-3.3855e-06
8.54294e-05
-5.36349e-07
-3.32501e-06
-1.60181e-06
-2.72952e-06
-3.22554e-06
-3.71025e-06
-2.88586e-05
3.02862e-06
1.05164e-06
-4.36967e-06
2.69613e-05
-9.11375e-05
4.87707e-06
-1.85134e-06
-7.01232e-06
9.19505e-05
3.17361e-06
6.42579e-06
1.07219e-07
0.000248297
-1.37605e-06
3.92596e-06
6.53741e-07
4.13126e-06
-9.80355e-07
-5.44616e-08
-1.0592e-06
2.73316e-06
-1.06763e-07
0.000224095
1.2961e-06
4.03016e-06
1.2627e-06
5.52794e-07
-2.08192e-07
3.67847e-07
-4.05993e-05
2.50441e-06
-1.39137e-06
3.8834e-05
-1.78966e-05
3.39811e-06
-2.63783e-06
1.71363e-05
-7.10245e-05
6.3796e-06
-5.66274e-06
7.04148e-05
-6.59662e-05
3.52812e-06
-2.86582e-06
1.20975e-06
6.39874e-05
-2.66674e-05
1.32231e-07
7.5933e-07
2.57758e-05
4.64963e-06
-1.10638e-06
5.72277e-07
-4.11553e-06
-6.55337e-06
5.85547e-06
-5.31278e-06
6.01068e-06
1.50501e-06
-3.66968e-06
1.0953e-05
6.21158e-07
2.44357e-07
-9.65383e-06
2.17701e-06
1.0005e-05
1.47683e-06
-1.57941e-06
-4.15176e-06
-7.92763e-06
1.50092e-05
-4.58969e-07
-8.71657e-07
-2.21403e-06
-1.28784e-05
1.41391e-06
2.00478e-06
-3.21463e-06
-1.98017e-05
3.40235e-06
-1.58435e-06
1.91936e-05
-9.28841e-06
9.61466e-06
9.53548e-06
-1.94633e-06
2.89947e-07
-2.10191e-06
-5.48866e-07
-2.91611e-06
-1.18961e-06
-3.86666e-06
-2.22511e-06
-2.07929e-05
-1.4473e-05
3.11423e-05
4.59782e-06
3.99363e-06
3.66948e-06
3.34045e-06
-2.96553e-06
-3.4952e-05
9.93915e-06
5.3687e-06
4.67751e-06
4.67231e-06
4.10142e-06
-2.5745e-06
-3.94485e-06
-2.25373e-06
1.86719e-06
5.02147e-06
-8.47101e-06
-1.38319e-06
-1.34381e-05
2.01388e-06
-1.90186e-06
1.3326e-05
-5.31038e-07
-3.71258e-05
4.80427e-07
2.02121e-06
-1.22143e-06
3.63766e-05
9.56371e-06
-2.59574e-08
0.000105445
-2.60372e-06
-1.85054e-06
-3.34742e-06
-1.10695e-06
3.15643e-06
-1.2957e-05
0.000128077
-1.71614e-06
-6.59626e-06
8.12836e-05
-2.00643e-07
-1.01724e-06
7.99629e-07
-6.00466e-06
-6.38522e-06
-6.52928e-06
-2.40576e-05
5.68875e-06
1.05906e-06
-6.20379e-06
2.17975e-05
-9.26452e-05
4.93461e-06
-2.17383e-06
-7.27591e-06
9.29147e-05
4.24564e-06
-8.86489e-07
-6.46923e-07
0.000244669
-3.02665e-07
4.31711e-06
1.66423e-06
4.54618e-06
-1.95349e-06
-8.69108e-07
-2.2665e-06
1.85235e-06
-1.03283e-06
0.000208924
1.50272e-07
3.29816e-06
1.86327e-07
-7.85364e-07
-1.3274e-06