/*--------------------------------*- C++ -*----------------------------------*\
| =========                 |                                                 |
| \\      /  F ield         | OpenFOAM: The Open Source CFD Toolbox           |
|  \\    /   O peration     | Version:  5.x                                   |
|   \\  /    A nd           | Web:      www.OpenFOAM.org                      |
|    \\/     M anipulation  |                                                 |
\*---------------------------------------------------------------------------*/
FoamFile
{
    version     2.0;
    format      ascii;
    class       volScalarField;
    location    "2.15";
    object      Ksl;
}
// * * * * * * * * * * * * * * * * * * * * * * * * * * * * * * * * * * * * * //

dimensions      [1 -3 -1 0 0 0 0];

internalField   nonuniform List<scalar> 
10571
(
619.935
5505.29
4298.64
3664.13
5280.29
6233.16
4772.19
5619.64
5467.11
6007.63
4514.78
1951.1
1813.38
4468.2
4564.65
6539.57
2087.44
1127.78
3542.99
3535.24
6748.67
10585.5
12114.8
10899.6
9119.42
11.6402
10834.5
11419.9
12390
2743.92
5866.36
7332.42
11901.9
10868.5
12461.1
11195.5
4432.26
4239.4
6674.12
13256.7
4223.89
7640.18
6262.05
1795.18
12492.6
11732.2
13212.7
12799
13422.4
6020.28
12540.9
12803.1
9950.63
9647.18
4435.34
3908.88
1754.1
7199.11
12364.6
11420.3
1908.33
1242.45
4112.11
4744.68
4431.42
4184.05
5246.62
6901.57
2866.28
7031.49
4658.56
11822.5
117.236
12326.5
7092
698.27
32.8031
11814.2
2878.14
1561.49
1252.44
322.753
3930.72
2151.47
3403.72
3974.34
2425.18
229.66
167.482
212.836
1712.32
2665.98
167.849
143.115
17.8774
708.401
17.4924
1108.84
83.8087
59.1963
0
253.338
1691.46
1013.79
346.738
240.784
477.784
186.005
719.145
905.039
232.646
116.743
182.609
31.5236
52.1514
8.29919
57.8298
13.3907
33.2803
85.3826
0
705.378
132.819
10.6001
0
46.4024
69.8637
79.5057
71.7667
63.0273
13066.1
699.49
68.5827
41.3684
37.2234
6.53135
59.6329
8253.22
212.379
40.2923
34.2596
27.6182
23.1121
15.8051
70.4779
27.5789
0
256.096
128.616
0
0
156.273
18.4104
31.0147
41.6837
4.68609
2.9384e-14
298.747
30.1653
18.5753
3.87473
8.93789
39.2035
1.56587e-13
112.784
25.301
3.61523
10.5597
20.8559
0
14.7551
108.997
0
0
0
0
0
0
35.6915
7.79521
23.2435
22.9564
0
0
84.2022
17.9406
6.01698
6.16822
19.7617
54.8194
0
58.449
9.9627
6.91331
0
0.216758
0
0
50.2478
0
0
0
0
0
0
8.81666
2.39991
17.6804
14.6368
0
0
38.2001
16.4794
2.29345
3.44572
14.2338
7.06133
0
31.5289
3.99122
1.9261
0
11.7479
21.1819
24.6904
5.42184e-13
0
0
0
0
0
31.9527
2.85851
19.6824
11.7287
0
0
3.05349e-13
3.91749
4.7695
20.1563
0.760401
16.1565
1.47807
4.5314
0
0
0
11.9936
0
0
0
0
0
0
19.3689
1.84914
12.9889
5.9243
0
0
0
0.977227
4.6988
15.634
0
6.62445
4.96215
6.26839
0.191058
65.1107
8.07536
12.8937
0
0
0
0
0
0
10.9149
3.64177
12.9793
4.22114
0
0
0
2.88641
8.52907
4.79356
0
3.14002
7.48209
3.14055
9.92608
3.37113
39.3994
14.4522
0
0
0
0
0
0
17.9525
2.41559
9.26348
2.67922
0
0
0
1.45863
4.00626
1.05099
0
2.55366
4.22182
3.86427
22.0385
14.4268
31.3697
0
14.5356
0
0
0
0
0
1.50651
2.59351
4.8585
0.336677
0
0
4.05424
2.87602
6.0131
1.54329
0
0
1.79602
8.99495
17.5155
0
8.49801
23.302
0
0
0
0
0
0
7.88189
2.14345
6.17709
0
0
0
0
1.47474
2.65273
0
0
0
1.48489
6.88817
17.2021
0
3.00652
54.1367
1.90601
0
0
0
0
0
0
1.49028
3.5749
0
0
0
0
1.96748
5.33206
0.441021
0
0
1.33036
6.04081
7.79735
0
25.4006
64.6205
0.549058
0
0
0
0
0
0
2.59885
3.14535
0
0
0
0
1.002
2.09862
0
0
0
1.13293
3.48305
0
0
8.59134
0
10.8798
0
0
0
0
0
0
2.45529
1.34612
0
0
0
2.17788
0.971051
2.6247
0
0
2.67863
1.05577
5.7878
0
0
16.6859
5.45271
9.76545
0
0
0
0
0
0
3.82488
1.84151
0
0
0
0
2.95717
2.06706
0
0
0
0.996864
3.76204
0
0
0
0
0
0
0
0
0
0
0
2.59574
0
0
0
0
3.11953
3.05035
2.20548e-14
0
0
0
2.12668
4.55271
0
0
16.5745
0
48.5381
0
0
0
0
0
0
1.34997
0
0
0
0
1.23954
2.67666
1.09099
0
0
3.08921
2.62192
1.08422
0
0
8.36329
0
0
0
0
0
0
0
0
0.449831
0
0
0
0
1.2834e-14
3.77478
0.543337
0
0
0
2.58684
3.74906
0
0
4.05243
0
0
0
0
0
0
0
0
1.37198
0
0
0
0
6.84179
3.78298
0.355201
0
0
0
1.82491
1.64983
0
0
0
0
0
0
0
0
0
0
0
0.466314
0
0
0
0
0.822889
3.83041
0.732244
0
0
0
0.666251
2.01298
0
0
16.5425
0.727519
0
0
0
0
0
0
0
0.461335
0
0
0
0
3.42715
3.24991
0
0
0
1.06534
0.446948
0.350632
0
0
0
0.532375
0
0
0
0
0
0
0
0
0
0
0
0
0
1.16097
0
0
0
0
0.67304
0
0
0
0
0
0
0
0
0
0
0
0
0
0
0
0
0
0
3.91266
0
0
0
0
0
0.698814
0
0
0
0
0
0
0
0
0
0
0
0
0
0
0
0
0
1.76376
0
0
0
0.768672
7.41764e-14
0.468969
0
0
0
0
0
0
0
0
0
0
0
0
0
0
0
0
0
1.5598
0
0
0
2.50556
2.08994
0
0
0
0
0
0
0
0
0
0
0
0
0
0
0
0
0
0
0.705435
0
0
0
0
3.9655
0
0
0
0
0
0
0
0
0
0
0
0
0
0
0
0
0
0
0.60585
0
0
0
0
1.30419
0
0
0
0
0
0
0
0
0
0
0
0
0
0
0
0
0
0
0
0
0
0
0
2.74752
0
0
0
0
0
0
0
0
0
0
0
0
0
0
0
0
0
0
0.31813
0
0
0
0
3.11253
0
0
0
0
0
0
0
0
0
0
0
0
0
0
0
0
0
0
0
0
0
0
0
2.01615
0
0
0
0
0
0
0
0
0
0
0
0
0
0
0
0
0
0
0
0
0
0
0
0.238609
0
0
0
0
0
0
0
0
0
0
0
0
0
0
0
0
0
0
0
0
0
0
0
1.37918
0
0
0
0
0
0
0
0
0
0
0
0
0
0
0
0
0
0
0
0
0
0
0
1.5514
0
0
0
0
0
0
0
0
0
0
0
0
0
0
0
0
0
0
0
0
0
0
0
0
0
0
0
4.7728
0
0
0
0
0
0
0
0
0
0
0
0
0
0
0
0
0
0
0
0
0
0
0
0
0
0
0
0
0
0
0
0
0
0
0
0
0
0
0
0
0
0
0
0
0
0
0
0
0
0
0
0
0
0
0
0
0
0
0
0
0
0
0
0
0
0
0
0
0
0
0
0
0
0
0
0
0
0
0
0
0
0
0
0
0
0
0
0
0
0
0
0
0
0
0
0
0
0
0
0
0
0
0
0
0
0
0
0
0
0
0
0
0
0
0
0
0
0
0
0
0
0
0
0
0
0
0
0
0
0
0
0
0
0
0
0
0
0
0
0
0
0
0
0
0
0
0
0
0
0
0
0
0
0
0
0
0
0
0
0
0
0
0
0
0
0
0
0
0
0
0
0
0
0
0
0
0
0
0
0
0
0
0
0
0
0
0
0
0
0
0
0
0
0
0
0
0
0
0
0
0
0
0
0
0
0
0
0
0
0
0
0
0
0
0
0
0
0
0
0
0
0
0
0
0
0
0
0
0
0
0
0
0
0
0
0
0
0
0
0
0
0
0
0
0
0
0
0
0
0
0
0
0
0
0
0
0
0
0
0
0
0
0
0
0
0
0
0
0
0
0
0
0
0
0
0
0
0
0
0
0
0
0
0
0
0
0
0
0
0
0
0
0
0
0
0
0
0
0
0
0
0
0
0
0
0
0
0
0
0
0
0
0
0
0
0
0
0
0
0
0
0
0
0
0
0
0
0
0
0
0
0
0
0
0
0
0
0
0
0
0
0
0
0
0
0
0
0
0
0
0
0
0
0
0
0
0
0
0
0
0
0
0
0
0
0
0
0
0
0
0
0
0
0
0
0
0
0
0
0
0
0
0
0
0
0
0
0
0
0
0
0
0
0
0
0
0
0
0
0
0
0
0
0
0
0
0
0
0
0
0
0
0
0
0
0
0
0
0
0
0
0
0
0
0
0
0
0
0
0
0
0
0
0
0
0
0
0
0
0
0
0
0
0
0
0
0
0
0
0
0
0
0
0
0
0
0
0
0
0
0
0
0
0
0
0
0
0
0
0
0
0
0
0
0
0
0
0
0
0
0
0
0
0
0
0
0
0
0
0
0
0
0
0
0
0
0
0
0
0
0
0
0
0
0
0
0
0
0
0
0
0
0
0
0
0
0
0
0
0
0
0
0
0
0
0
0
0
0
0
0
0
0
0
0
0
0
0
0
0
0
0
0
0
0
0
0
0
0
0
0
0
0
0
0
0
0
0
0
0
0
0
0
0
0
0
0
0
0
0
0
0
0
0
0
0
0
0
0
0
0
0
0
0
0
0
0
0
0
0
0
0
0
0
0
0
0
0
0
0
0
0
0
0
0
0
0
0
0
0
0
0
0
0
0
0
0
0
0
0
0
0
0
0
0
0
0
0
0
0
0
0
0
0
0
0
0
0
0
0
0
0
0
0
0
0
0
0
0
0
0
0
0
0
0
0
0
0
0
0
0
0
0
0
0
0
0
0
0
0
0
0
0
0
0
0
0
0
0
0
0
0
0
0
0
0
0
0
0
0
0
0
0
0
0
0
0
0
0
0
0
0
0
0
0
0
0
0
0
0
0
0
0
0
0
0
0
0
0
0
0
0
0
0
0
0
0
0
0
0
0
0
0
0
0
0
0
0
0
0
0
0
0
0
0
0
0
0
0
0
0
0
0
0
0
0
0
0
0
0
0
0
0
0
0
0
0
0
0
0
0
0
0
0
0
0
0
0
0
0
0
0
0
0
0
0
0
0
0
0
0
0
0
0
0
0
0
0
0
0
0
0
0
0
0
0
0
0
0
0
0
0
0
0
0
0
0
0
0
0
0
0
0
0
0
0
0
0
0
0
0
0
0
0
0
0
0
0
0
0
0
0
0
0
0
0
0
0
0
0
0
0
0
0
0
0
0
0
0
0
0
0
0
0
0
0
0
0
0
0
0
0
0
0
0
0
0
0
0
0
0
0
0
0
0
0
0
0
0
0
0
0
0
0
0
0
0
0
0
3453.7
826.67
615.681
1291.11
472.724
1196.14
1378.46
2269.43
4268.86
8421.89
5080.64
6756.24
6768.53
1208.68
1264.05
1261.97
1017.22
1364.1
1438.88
2309.74
1589.85
1995.65
3114.18
1522.91
2541.92
2876.66
3953.57
3532.75
2845.32
4041.15
5702.22
1733.28
4260.23
3117.25
1464.8
6302.44
4248.46
1647.78
1610.22
1284.7
1702.3
1614.35
3029.49
2768.4
1639.86
2456.8
2478.94
1379.59
3886.6
4099.73
5239.32
1010.05
1268.51
2147.88
1179.29
6174.79
8758.5
6841.25
8960.7
6113.74
1546.22
8216.39
1036.5
1008.75
1813.14
371.615
2541.24
2712.59
2382.67
2295.61
7330.95
6517
1455.5
7422.72
1561.71
583.327
777.949
628.578
639.418
5472.58
1397.41
1917.81
5322.36
386.644
3057.11
3714.05
2835.29
3148.39
6974.49
6643.45
7336.06
10040
7624.7
8411.87
8752.53
7435.61
7444.26
11984.8
744.454
969.17
1348.38
3239.51
6578.51
4130.4
3132.83
3810.28
3702.2
6409.2
7816.19
4723.73
9408
1879.12
506.945
9267.36
4130.16
9769.65
405.442
9111.54
489.969
6892.85
5764.89
5243.32
6122.46
9883.3
10748.4
10047
10843.2
5858.15
11010.5
6556.49
6462.76
7159.35
7508.37
11325.8
10021.6
6209.08
5580.92
10179.7
11481.8
9872.91
5332.65
3128.43
10451.1
10651.9
2163.66
5245.68
5770.7
11216.4
9418.7
9709.46
4425.03
4791.62
1115.49
1923.58
3223.53
4315.33
6844.57
5963.88
9882.72
5519.06
7177.9
6516.03
4325.3
8811.46
9617.53
10703.9
10135.6
10623.7
11442
11735.4
13885.8
11809.4
13021
12690.8
11757.3
12941.8
13448
11872.8
13248.1
12628.5
12051.5
11689.2
9501.96
10438.7
9292.61
12406.3
11748
12162.6
10762.1
11487.7
13013.2
12465.5
13054
12872.3
14202.3
433.928
3070.67
6101.46
487.843
2518.43
565.832
8178.28
3105.21
4496.94
12674.4
13402.4
12844.6
13457.3
13886.9
13366.9
13096.3
12297.3
12210.6
8043.62
12080
11213.1
10700.4
13733.7
12662.5
12384.5
8683.99
10288.3
12280.5
7902.45
12283.3
7741.03
12815.5
12450
13330.3
9129.98
11085.3
13535.5
8577.63
11007.8
5972.68
12180.9
9161.14
7961.57
10715.3
8143.78
6775.12
10117.1
8157.26
10931.5
10838.6
12684.8
4221.04
11172.4
11530.9
11680.1
12145
12005.2
11431.6
12900.7
12393
10201.7
7941.46
9589.36
12263.7
12914.4
11181.2
12169.8
10517
11847.4
13040.7
13042.9
12598.4
12187.5
12735.2
11045.4
11875.7
12734.5
12871.8
12614.5
8280.58
6579.68
2161.01
13003.3
495.31
8563.08
12093.5
11000.9
7411.39
8911.82
11368.3
12391.2
11441.3
11532.9
7652.53
5433.06
6657.45
262.023
26.4714
569.761
115.496
6686.5
45.6384
11795.2
13501.7
13224.5
12451.4
12244.3
12786.1
5700.13
5584.13
460.808
573.965
346.293
12190.9
7696.7
10022.4
8707.94
1044.96
4632.61
5996.39
358.645
185.276
294.066
6435.45
575.057
1238.89
7769.74
6448.55
460.44
114.222
1421.23
1556.32
5832.85
11177.5
6981.91
5074.25
722.607
7124.11
1018.4
132.239
11103.9
7993.89
1024.57
1807.94
2608.22
99.7773
38.6066
10350.5
4014.76
543.311
5205.85
426.271
8593.6
11904.4
3053.03
2281.6
9573.01
3102.39
49.595
2144.67
148.732
96.6602
11.8925
25.5107
15.3229
6.47208
6.44257
0
12434.7
11688.5
12148.6
12064.7
9804.17
11002.4
2942.58
7812.58
3548.52
0
279.804
35.9982
13.509
0
85.0483
38.1809
36.7979
44.3021
12026.4
11327.3
9826.69
6389.94
3415.67
1297.03
273.709
159.892
299.39
299.947
438.819
1393.77
309.111
631.442
196.475
380.92
273.899
100.354
219.665
349.255
76.2971
524.955
448.48
33.7478
367.885
57.5396
166.812
64.8331
321.241
73.2324
51.0685
800.643
5.4378
217.498
17.6032
37.4982
0.128333
83.216
338.442
25.7703
14.1557
66.6453
14.7026
29.6808
71.2028
469.269
1.38743
21.792
97.8495
5.60949
105.35
943.683
820.316
48.3743
584.613
119.908
17.3459
361.291
134.541
8.79645
0
18.7166
6.84737
0
0
0
2300.99
621.73
257.705
583.937
227.675
452.234
258.486
196.424
91.0121
0
25.5031
41.9587
0
0
65.1968
21.2602
12.0258
8.88465
935.73
1504.56
508.712
426.537
528.169
303.767
238.407
345.884
128.399
270.129
397.587
269.914
343.922
512.97
228.78
302.952
449.325
45.8666
80.9262
379.593
43.9986
362.435
470.569
43.388
247.23
55.1889
217.409
52.1003
339.863
66.8003
2.07735e-14
4.30228
0
69.5784
29.2651
14.3213
11.0876
41.0641
22.0634
0.606735
12.736
138.716
7.70611
54.1705
182.022
119.76
26.8257
56.2718
114.789
1.01458e-13
22.1388
580.075
562.136
0
264.314
38.6685
0
157.979
5.36104
5.25728
0
0
0
0
0
0
383.728
394.435
276.322
197.323
91.904
752.916
250.847
352.856
92.0689
0
65.7577
31.045
0
0
97.964
5.2836
12.0509
4.08989e-13
302.061
683.111
236.718
189.325
472.757
119.414
890.989
156.332
1478.29
38.8164
3.71209
79.247
14.0476
17065.1
9631.3
13778.5
493.956
7641.23
418.732
5632.1
211.151
328.697
375.154
187.917
199.532
1481.8
28.1497
565.169
11.643
17.4197
8.63222
31.8882
11992.8
13831.4
11026
408.707
4785.88
219.143
3209.93
382.057
246.997
58.4014
325.415
72.9567
82.765
33.5672
207.254
47.3903
13.024
19.7474
0
9.90289
6.49399
0
0
0
18.3777
31.8838
50.6233
206.743
17.3712
43.6706
193.449
86.6506
187.411
57.8933
58.787
149.076
20.6178
179.083
1.07363e-13
0
31.1034
0
0
6.65141e-13
0
0
0
0
0
0
0
0
468.54
97.2337
207.211
412.095
95.7502
20.0026
11.0944
144.502
18.2416
0
74.0842
5.21243
5.42573
0
44.2771
0
0
0
7.85417
0
8.42394
0
3.1195
4.4952
166.29
240.4
86.7022
79.2828
54.1717
61.9421
2.99031
94.9064
0
5.22193
0
45.5108
0
66.5743
0
1.29972
0
0
0
0
160.082
257.951
143.131
102.61
113.564
5.79072
9.31594
19.7903
29.2514
7.83947
16.8627
35.3964
0
0
3.05687
0
0
0
0
190.549
174.662
29.3679
147.111
127.414
57.2217
12.1199
74.6902
54.9949
4.56792
0
0
0
4.72188
0
0
0
18.0385
0.108477
0
0
0
74.1846
83.9705
43.2497
161.099
0
15.8545
250.335
16.8269
113.389
55.0759
0
303.863
0
0
0
0
0
0
0
0
0
0
0
0
0
0
0
0
9.22403
5.64874
0
6.65589
7.57812
0
0
2.49043
1.25307
0
6.81407
0
0
0
21.7678
0
0
0
0
0
0
0
0
0
16.4675
19.5118
14.2806
0
20.0032
9.27083
0
10.57
0
0
0
12.4081
0
0
0
0
0
0
0
0
107.088
113.503
67.7449
51.5588
108.206
3.92053
35.7698
17.4836
63.285
0
34.5677
5.60643
0
0
0
0
0
0
0
133.511
86.7654
28.3696
79.2921
52.4394
48.8845
14.1419
24.7715
50.9535
27.428
5.32056
35.8288
0
0
5.24645
9.11683
0
20.0249
0
0
0
0
32.1738
19.8186
0
97.2907
9.16704
0
1.64625e-12
0
412.69
18.4847
0
252.53
0.335705
0
0
0
0
0
0
0
0
0
0
0
0
0
0
0
0
0
0
0
7.04319
0
0
0
6.8989
0
5.47448
4.9075
0
0
0
0
0
0
0
12.3843
3.96564
2.1223
27.9135
10.4262
0
0
0
0
0
3.79296
0
0
0
0
0
0
0
0
43.5
53.9923
24.1212
8.4242
33.8472
0
18.9296
4.4496
11.9186
0
27.0735
0
0
0
0
0
0
0
0
39.8316
28.6242
11.7679
9.11518
31.0068
13.8456
12.6429
7.28849
5.84496
0
12.8703
0
5.71678
0.213127
3.16963
0
21.7519
15.9959
0.613854
13.6279
40.5858
23.1457
0
36.2291
0
124.833
6.03141
0.261505
62.6529
13.6844
0
0
0
0
0
0
0
0
0
0
0
0
0
0
0
7.63761
0
0
3.31548
5.52723
0
0
0
9.83317
0
0
0
0
0
0
0
0
0
14.8659
0
13.317
7.82625
0
3.31128
0
0
0
0
0
12.6642
13.964
0
2.78984
13.0606
0
51.1794
0
0
8.87758
14.9918
8.61885
6.27948
10.4565
15.7102
6.69994
14.3344
3.95543
10.1938
5.10985
0
0
0
0.114712
0
0
14.357
16.1812
16.4619
0
43.5993
0
7.16751
66.0868
14.4004
42.5404
0
5.48486e-13
43.8841
0
0
0
0
0
0
0
0
0
0
0
0
0
0
0
0
6.36774
0
0
4.84209
7.99836
0
0
0
2.38999
0
0
0
0
0
0
0
0
0
6.18153
0
9.88147
4.51282
0
0
0
0
0
0
0
0
0
0
4.24044
2.25079
0
6.13589
0
0
0.278191
2.31466
0
0
2.01948
1.75552e-13
3.1554
5.55813
3.51397
12.4792
5.43776
4.61221
0
5.57991
8.9693
0
10.6277
28.2646
1.14168
11.6242
10.5142
85.3175
17.3335
16.9823
43.1367
7.57393
22.0704
29.2604
0
17.992
0
0
0
0
0
0
0
0
0
0
0
0
0
0
0
0
0
0
0
2.92319
3.30614
0
0
0
3.30884
0
0
0
0
0
0
0
0
0
3.59522
14.019
9.65456
3.04602
0
0.260071
0
0
0
0
0
3.20681
0
0
0
0
0
0
0
0
0
0
0
12.6288
0
5.54956
0.705958
0
0
0
18.586
0
4.39649e-13
13.0052
36.0581
0
9.41901
0
0
0
8.04051
0
14.7919
47.206
0
0
0
0
0
0
1.27743e-12
0
0
0
0
0
0
0
0
0
0
0
0
0
0
0
0
0
0
0
3.28228
0
0
0
6.87149
0
0
0
0
0
0
0
0
0
3.22374
0
0.121121
1.03866
0
3.12372
0
0
0
0
0
6.43039
0.891339
0
6.41326
3.06865
0
0
0
0
0
0
0
4.02573
0
0
3.30208
0
0
3.91317e-13
17.5457
0
0
20.467
24.6405
5.73001
21.7539
0
2.99116e-13
12.9825
68.0961
5.1487e-12
8.93063
33.6694
45.3611
0
0.821591
7.83589
0
63.5957
0
0
0
0
0
0
0
0
0
0
0
0
0
0
0
0
0
0
0
0
4.38795
0
0
0
0.807164
0
0
0
0
0
0
0
0
0
1.33699
0
0
0
0
2.92526
0
0
0
0
0
2.95199
4.46384
0
0
0
0
0
0
0
0
6.92882
0
0
0
5.56124
0
0
0
4.27482
0
6.41511
21.6035
15.2447
8.1822
27.8031
18.8164
0
16.4887
1.63754
7.38093
0
24.525
20.1871
8.14583e-12
1.49662
23.7729
36.1634
36.2996
69.2642
11.0565
0
0
0
0
0
0
0
0
0
0
0
0
0
0
0
0
0
0
0
1.25459
0
0
0
1.27269e-14
0
0
0
0
0
0
0
0
0
2.14833
0
2.83798
0
0
0
0
0
0
0
0
0
0
0
1.07962e-14
0
0
0
0
0
0
0
0
0
0
0
0
0
0
0
1.41527
11.3001
26.6572
5.40649
5.02227
11.8751
2.3301e-14
0
0
0
24.4907
119.904
25.8749
17.4438
15.6955
62.7672
115.717
42.6127
59.2378
34.9575
2.96883
0
0
0
0
0
0
0
0
0
0
0
0
0
0
0
0
0
0
0
3.07046
0
0
0
0
0
0
0
0
0
0
0
0
0
0
0
0
0
0
0
0
0
0
0
0
6.62887
0
0
5.23522
0
0
0
0
0
0
0
0
0
0
0
0
0
0
0
0
23.5375
0
2.1584
0
28.2734
0
0
0
21.2323
28.5922
41.4211
13.5989
19.6833
0
65.4791
29.7394
7.21734
31.4591
21.8811
0
0
0
0
0
0
0
0
0
0
0
0
0
0
0
0
0
0
0
0
0
0
0
0
0
0
0
0
0
0
0
0
0
0
0
0
0
0
0
0
0
0
0
0
0
0
0
0
6.34075
0
0
0
0
0
0
0
0
0
0
0
0
0
0
0
0
17.2399
0
0
0
10.6274
0
0
57.2125
0
12.9872
0
9.28369e-13
13.7153
0
22.8161
0
0
18.8813
0
9.73319e-13
0
0
0
0
0
0
0
0
0
0
0
0
0
0
0
0
0
0
0
0
0
0
0
0
0
0
0
0
0
0
0
0
0
0
0
0
0
0
0
0
0
0
0
0
0
0.185324
0
0
3.72275
0
0
0
0
0
0
0
0.77157
0
0
0
0
0
0
0
9.42799
0
0
0
16.7435
0
0
0
0
7.83997
0
8.41254
31.6024
0
0.384459
0
0
0
0
0
0
0
0
0
0
0
0
0
0
0
0
0
0
0
0
0
0
0
0
0
0
0
0
0
0
0
0
0
0
0
0
0
0
0
0
0
0
0
0
0
0
0
0
0
0
0
0
0
0
0
0
0
0
0
0
0
0
0
0
0
0
0
0
0
1.833
0
0
0
6.00398
0
0
0
0
6.70181
0
0.289139
7.60487e-13
0
0
0
0
8.11743
0
19.0141
0
0
0
0
0
0
0
0
0
0
0
0
0
0
0
0
0
0
0
0
0
0
0
3.2575
0
0
0
0
0
0
0
0
0
0
0
0
0
0
0
0
0
0
0
0
0
0
0
0
0
0
0
0
0
0
0
0
1.35988e-14
0
0
0
3.11203
0
0
0
0.836735
0
0
0
0
0
0
0
0
20.0759
0
6.36014
7.19369e-13
0
30.5483
0
0
7.25476
0
0
0
0
0
0
0
0
0
0
0
0
0
0
0
0
0
0
0
0
0
0
0
0
0
0
0
0
0
0
0
0
0
0
0
0
0
0
0
0
0
0
0
0
0
0
0
0
0
0
0
0
0
0
0
0
0
0
0
0
0
0
3.3087
0
0
0
0
0
0
0
0
0
0
5.18594e-13
12.709
4.92838
0
51.489
10.0934
0
0
0
0
1.48803e-14
0
0
0
0
0
0
0
0
0
0
0
0
0
0
0
0
0
0
0
0
0
0
0
0
0
0
0
0
0
0
0
0
0
0
0
0
0
0
0
0
0
0
0
0
0
0
0
0
0
0
0
0
0
0
0
0
0
0
0
0
0
0
3.57802
0
0
0
0
0
0
0
0
0
0
0
14.728
1.90359
0
0.314044
0
0
0
0
0
0
0
0
0
0
0
0
0
0
0
0
0
0
0
0
0
0
0
0
0
0
0
0
0
0
0
0
0
0
0
0
0
0
0
0
0
0
0
0
0
0
0
0
0
0
0
0
0
0
0
0
0
0
0
0
0
0
0
0
0
0
0
0
0
0
3.7677
0
0
0
0
0
0
0
0
15.4594
14.9281
0
0
9.29832e-13
0
0
0
0
0
0
0
0
0
0
0
0
0
0
0
0
0
0
0
0
0
0
0
0
0
0
0
0
0
0
0
0
0
0
0
0
0
0
0
0
0
0
0
0
0
0
0
0
0
0
0
0
0
0
0
0
0
0
0
0
0
0
0
0
0
0
8.02635
0
0
0
4.12314
0
0
0
0
0
0
0
0
31.8072
16.0479
0
0
0.213562
0
0
4.57331
0
22.6297
0.178512
0
0
0
0
0
0
0
0
0
0
0
0
0
0
0
0
0
0
0
0
0
0
0
0
0
0
0
0
0
0
0
0
0
0
0
0
0
0
0
0
0
0
0
0
0
0
0
0
0
0
0
0
0
0
0
0
0
0
0
0
1.02823e-13
1.85732
0
0
4.13812
0
0
0
0
0
0
0
0
0
0
0
0
0
0
0
0
0
0
0
0
0
0
0
0
0
0
0
0
0
0
0
0
0
0
0
0
0
0
0
0
0
0
0
0
0
0
0
0
0
0
0
0
0
0
0
0
0
0
0
0
0
0
0
0
0
0
0
0
0
0
0
0
0
0
0
0
0
2.65023
0
2.78028
0
2.80971
0
0.829063
0
0
0
0
0
0
0
0
0
0
0
0
0
0
0
0
0
0
0
0
0
0
0
0
0
0
0
0
0
0
0
0
0
0
0
0
0
0
0
0
0
0
0
0
0
0
0
0
0
0
0
0
0
0
0
0
0
0
0
0
0
0
0
0
0
0
0
0
0
0
0
0
0
0
0
0
0
3.28466
0
0
2.61085e-13
2.7481
0
0
0
0
0
0
0
0
0
0
0
0
0
0
0
0
0
0
0
0
0
0
0
0
0
0
0
0
0
0
0
0
0
0
0
0
0
0
0
0
0
0
0
0
0
0
0
0
0
0
0
0
0
0
0
0
0
0
0
0
0
0
0
0
0
0
0
0
0
0
0
0
0
0
0
0
0
0
0
0
0
0
2.01609e-13
5.06096e-13
0
0
0
0
0
0
0
0
0
0
0
0
0
0
0
0
0
0
0
0
0
0
0
0
0
0
0
0
0
0
0
0
0
0
0
0
0
0
0
0
0
0
0
0
0
0
0
0
0
0
0
0
0
0
0
0
0
0
0
0
0
0
0
0
0
0
0
0
0
0
0
0
0
0
0
0
0
0
0
3.20622
0
0
0
0
2.06747e-13
0
0
0
0
0
0
0
0
0
0
0
0
0
0
0
0
0
0
0
0
0
0
0
0
0
0
0
0
0
0
0
0
0
0
0
0
0
0
0
0
0
0
0
0
0
0
0
0
0
0
0
0
0
0
0
0
0
0
0
0
0
0
0
0
0
0
0
0
0
0
0
0
0
0
0
0
0
0
0
5.29935
0
0
0
5.27713
2.70423
0
0
0
0
0
0
0
0
0
0
0
0
0
0
0
0
0
0
0
0
0
0
0
0
0
0
0
0
0
0
0
0
0
0
0
0
0
0
0
0
0
0
0
0
0
0
0
0
0
0
0
0
0
0
0
0
0
0
0
0
0
0
0
0
0
0
0
0
0
0
0
0
0
0
0
0
0
0
0
0
0
3.00611
5.42206
2.39903e-14
0
0
0
0
0
0
0
0
0
0
0
0
0
0
0
0
0
0
0
0
0
0
0
0
0
0
0
0
0
0
0
0
0
0
0
0
0
0
0
0
0
0
0
0
0
0
0
0
0
0
0
0
0
0
0
0
0
0
0
0
0
0
0
0
0
0
0
0
0
0
0
0
0
0
0
0
0
1.1825
0
0
0
3.33727
5.52479
0.476942
0
0
0
0
0
0
0
0
0
0
0
0
0
0
0
0
0
0
0
0
0
0
0
0
0
0
0
0
0
0
0
0
0
0
0
0
0
0
0
0
0
0
0
0
0
0
0
0
0
0
0
0
0
0
0
0
0
0
0
0
0
0
0
0
0
0
0
0
0
0
0
0
0
0
0
0
0
3.93445
0
0.513273
0
4.4288
0
2.1801e-13
0
0
0
0
0
0
0
0
0
0
0
0
0
0
0
0
0
0
0
0
0
0
0
0
0
0
0
0
0
0
0
0
0
0
0
0
0
0
0
0
0
0
0
0
0
0
0
0
0
0
0
0
0
0
0
0
0
0
0
0
0
0
0
0
0
0
0
0
0
0
0
0
0
0
0
0
0
8.67854
0
1.27793
0
0
0
4.01778e-13
0
0
0
0
0
0
0
0
0
0
0
0
0
0
0
0
0
0
0
0
0
0
0
0
0
0
0
0
0
0
0
0
0
0
0
0
0
0
0
0
0
0
0
0
0
0
0
0
0
0
0
0
0
0
0
0
0
0
0
0
0
0
0
0
0
0
0
0
0
0
0
0
0
0
0
0
0
3.47364
0
1.88397
0
1.20835
0
3.5719e-14
0
0
0
0
0
0
0
0
0
0
0
0
0
0
0
0
0
0
0
0
0
0
0
0
0
0
0
0
0
0
0
0
0
0
0
0
0
0
0
0
0
0
0
0
0
0
0
0
0
0
0
0
0
0
0
0
0
0
0
0
0
0
0
0
0
0
0
0
0
0
0
0
0
0
0
0
0
3.02088
0
10.1125
0
0
0
0
0
0
0
0
0
0
0
0
0
0
0
0
0
0
0
0
0
0
0
0
0
0
0
0
0
0
0
0
0
0
0
0
0
0
0
0
0
0
0
0
0
0
0
0
0
0
0
0
0
0
0
0
0
0
0
0
0
0
0
0
0
0
0
0
0
0
0
0
0
0
0
0
0
0
0
0
0
0
0
0.161441
0
0
0
0
0
0
0
0
0
0
0
0
0
0
0
0
7.97709e-13
0
0
0
0
0
0
0
0
0
0
0
0
0
0
0
0
0
0
0
0
0
0
0
0
0
0
0
0
0
0
0
0
0
0
0
0
0
0
0
0
0
0
0
0
0
0
0
0
0
0
0
0
0
0
0
0
0
0
0
0
0
0
0
0
0
0
0
0
0
0
0
0
0
0
0
0
0
0
0
0
0
0
0
0
5.47312
0
0
0
0
0
0
0
0
0
0
0
0
0
0
0
0
0
0
0
0
0
0
0
0
0
0
0
0
0
0
0
0
0
0
0
0
0
0
0
0
0
0
0
0
0
0
0
0
0
0
0
0
0
0
0
0
0
0
0
0
0
0
0
0
0
0
0
0
0
0
0
0
0
0
0
0
0
0
0
0
0
0
0
0
0
0
0
0
0
0
0
0
0
0
0
0
0
0
0
0
0
0
0
0
0
0
0
0
0
0
0
0
0
0
0
0
0
0
0
0
0
0
0
0
0
0
0
0
0
0
0
0
0
0
0
0
0
0
0
0
0
0
0
0
0
0
0
0
0
0
0
0
0
0
0
0
0
0
0
0
0
0
0
0
5.32101e-13
0
0
4.87877
0
0
0
0
0
0
0
0
0
0
0
0
0
0
0
0
0
0
0
0
0
0
0
0
0
0
0
0
0
0
0
0
0
0
0
0
0
0
0
0
0
0
0
0
0
0
0
0
0
0
0
0
0
0
0
0
0
0
0
0
0
0
0
0
0
0
0
0
0
0
0
0
0
0
0
0
0
0
0
0
0
0
0
0
0
0
0
0
0
0
0
0
0
0
0
0
0
0
0
0
0
0
0
0
0
0
0
0
0
0
0
0
0
0
0
0
0
0
0
0
0
0
0
0
0
0
0
0
0
0
0
0
0
0
0
0
0
0
0
0
0
0
0
0
0
0
0
0
0
0
0
0
0
0
0
0
0
0
0
0
0
0
0
0
0
0
0
0
0
0
0
0
0
0
0
0
0
0
0
0
0
0
0
0
0
0
0
0
0
0
0
0
0
0
0
0
0
0
0
0
0
0
0
0
0
0
0
0
0
0
0
0
0
0
0
0
0
0
0
0
0
0
0
0
0
0
0
0
0
0
0
0
0
0
0
0
0
0
0
0
0
0
0
0
0
0
0
0
0
0
0
0
0
0
0
0
0
0
0
0
0
0
0
0
0
0
0
0
0
0
0
0
0
0
0
0
0
0
0
0
0
0
0
0
0
0
0
0
0
0
0
0
0
0
0
0
0
0
0
0
0
0
0
0
0
0
0
0
0
0
0
0
0
0
0
0
0
0
0
0
0
0
0
0
0
0
0
0
0
0
0
0
0
0
0
0
0
0
0
0
0
0
0
0
0
0
0
0
0
0
0
0
0
0
0
0
0
0
0
0
0
0
0
0
0
0
0
0
0
0
0
0
0
0
0
0
0
0
0
0
0
0
0
0
0
0
0
0
0
0
0
0
0
0
0
0
0
0
0
0
0
0
0
0
0
0
0
0
0
0
0
0
0
0
0
0
0
0
0
0
0
0
0
0
0
0
0
0
0
0
0
0
0
0
0
0
0
0
0
0
0
0
0
0
0
0
0
0
0
0
0
0
0
0
0
0
0
0
0
0
0
0
0
0
0
0
0
0
0
0
0
0
0
0
0
0
0
0
0
0
0
0
0
0
0
0
0
0
0
0
0
0
0
0
0
0
0
0
0
0
0
0
0
0
0
0
0
0
0
0
0
0
0
0
0
0
0
0
0
0
0
0
0
0
0
0
0
0
0
0
0
0
0
0
0
0
0
0
0
0
0
0
0
0
0
0
0
0
0
0
0
0
0
0
0
0
0
0
0
0
0
0
0
0
0
0
0
0
0
0
0
0
0
0
0
0
0
0
0
0
0
0
0
0
0
0
0
0
0
0
0
0
0
0
0
0
0
0
0
0
0
0
0
0
0
0
0
0
0
0
0
0
0
0
0
0
0
0
0
0
0
0
0
0
0
0
0
0
0
0
0
0
0
0
0
0
0
0
0
0
0
0
0
0
0
0
0
0
0
0
0
0
0
0
0
0
0
0
0
0
0
0
0
0
0
0
0
0
0
0
0
0
0
0
0
0
0
0
0
0
0
0
0
0
0
0
0
0
0
0
0
0
0
0
0
0
0
0
0
0
0
0
0
0
0
0
0
0
0
0
0
0
0
0
0
0
0
0
0
0
0
0
0
0
0
0
0
0
0
0
0
0
0
0
0
0
0
0
0
0
0
0
0
0
0
0
0
0
0
0
0
0
0
0
0
0
0
0
0
0
0
0
0
0
0
0
0
0
0
0
0
0
0
0
0
0
0
0
0
0
0
0
0
0
0
0
0
0
0
0
0
0
0
0
0
0
0
0
0
0
0
0
0
0
0
0
0
0
0
0
0
0
0
0
0
0
0
0
0
0
0
0
0
0
0
0
0
0
0
0
0
0
0
0
0
0
0
0
0
0
0
0
0
0
0
0
0
0
0
0
0
0
0
0
0
0
0
0
0
0
0
0
0
0
0
0
0
0
0
0
0
0
0
0
0
0
0
0
0
0
0
0
0
0
0
0
0
0
0
0
0
0
0
0
0
0
0
0
0
0
0
0
0
0
0
0
0
0
0
0
0
0
0
0
0
0
0
0
0
0
0
0
0
0
0
0
0
0
0
0
0
0
0
0
0
0
0
0
0
0
0
0
0
0
0
0
0
0
0
0
0
0
0
0
0
0
0
0
0
0
0
0
0
0
0
0
0
0
0
0
0
0
0
0
0
0
0
0
0
0
0
0
0
0
0
0
0
0
0
0
0
0
0
0
0
0
0
0
0
0
0
0
0
0
0
0
0
0
0
0
0
0
0
0
0
0
0
0
0
0
0
0
0
0
0
0
0
0
0
0
0
0
0
0
0
0
0
0
0
0
0
0
0
0
0
0
0
0
0
0
0
0
0
0
0
0
0
0
0
0
0
0
0
0
0
0
0
0
0
0
0
0
0
0
0
0
0
0
0
0
0
0
0
0
0
0
0
0
0
0
0
0
0
0
0
0
0
0
0
0
0
0
0
0
0
0
0
0
0
0
0
0
0
0
0
0
0
0
0
0
0
0
0
0
0
0
0
0
0
0
0
0
0
0
0
0
0
0
0
0
0
0
0
0
0
0
0
0
0
0
0
0
0
0
0
0
0
0
0
0
0
0
0
0
0
0
0
0
0
0
0
0
0
0
0
0
0
0
0
0
0
0
0
0
0
0
0
0
0
0
0
0
0
0
0
0
0
0
0
0
0
0
0
0
0
0
0
0
0
0
0
0
0
0
0
0
0
0
0
0
0
0
0
0
0
0
0
0
0
0
0
0
0
0
0
0
0
0
0
0
0
0
0
0
0
0
0
0
0
0
0
0
0
0
0
0
0
0
0
0
0
0
0
0
0
0
0
0
0
0
0
0
0
0
0
0
0
0
0
0
0
0
0
0
0
0
0
0
0
0
0
0
0
0
0
0
0
0
0
0
0
0
0
0
0
0
0
0
0
0
0
0
0
0
0
0
0
0
0
0
0
0
0
0
0
0
0
0
0
0
0
0
0
0
0
0
0
0
0
0
0
0
0
0
0
0
0
0
0
0
0
0
0
0
0
0
0
0
0
0
0
0
0
0
0
0
0
0
0
0
0
0
0
0
0
0
0
0
0
0
0
0
0
0
0
0
0
0
0
0
0
0
0
0
0
0
0
0
0
0
0
0
0
0
0
0
0
0
0
0
0
0
0
0
0
0
0
0
0
0
0
0
0
0
0
0
0
0
0
0
0
0
0
0
0
0
0
0
0
0
0
0
0
0
0
0
0
0
0
0
0
0
0
0
0
0
0
0
0
0
0
0
0
0
0
0
0
0
0
0
0
0
0
0
0
0
0
0
0
0
0
0
0
0
0
0
0
0
0
0
0
0
0
0
0
0
0
0
0
0
0
0
0
0
0
0
0
0
0
0
0
0
0
0
0
0
0
0
0
0
0
0
0
0
0
0
0
0
0
0
0
0
0
0
0
0
0
0
0
0
0
0
0
0
0
0
0
0
0
0
0
0
0
0
0
0
0
0
0
0
0
0
0
0
0
0
0
0
0
0
0
0
0
0
0
0
0
0
0
0
0
0
0
0
0
0
0
0
0
0
0
0
0
0
0
0
0
0
0
0
0
0
0
0
0
0
0
0
0
0
0
0
0
0
0
0
0
0
0
0
0
0
0
0
0
0
0
0
0
0
0
0
0
0
0
0
0
0
0
0
0
0
0
0
0
0
0
0
0
0
0
0
0
0
0
0
0
0
0
0
0
0
0
0
0
0
0
0
0
0
0
0
0
0
0
0
0
0
0
0
0
0
0
0
0
0
0
0
0
0
0
0
0
0
0
0
0
0
0
0
0
0
0
0
0
0
0
0
0
0
0
0
0
0
0
0
0
0
0
0
0
0
0
0
0
0
0
0
0
0
0
0
0
0
0
0
0
0
0
0
0
0
0
0
0
0
0
0
0
0
0
0
0
0
0
0
0
0
0
0
0
0
0
0
0
0
0
0
0
0
0
0
0
0
0
0
0
0
0
0
0
0
0
0
0
0
0
0
0
0
0
0
0
0
0
0
0
0
0
0
0
0
0
0
0
0
0
0
0
0
0
0
0
0
0
0
0
0
0
0
0
0
0
0
0
0
0
0
0
0
0
0
0
0
0
0
0
0
0
0
0
0
0
0
0
0
0
0
0
0
0
0
0
0
0
0
0
0
0
0
0
0
0
0
0
0
0
0
0
0
0
0
0
0
0
0
0
0
0
0
0
0
0
0
0
0
0
0
0
0
0
0
0
0
0
0
0
0
0
0
0
0
0
0
0
0
0
0
0
0
0
0
0
0
0
0
0
0
0
0
0
0
0
0
0
0
0
0
0
0
0
0
0
0
0
0
0
0
0
0
0
0
0
0
0
0
0
0
0
0
0
0
0
0
0
0
0
0
0
0
0
0
0
0
0
0
0
0
0
0
0
0
0
0
0
0
0
0
0
0
0
0
0
0
0
0
0
0
0
0
0
0
0
0
0
0
0
0
0
0
0
0
0
0
0
0
0
0
0
0
0
0
0
0
0
0
0
0
0
0
0
0
0
0
0
0
0
0
0
0
0
0
0
0
0
0
0
0
0
0
0
0
0
0
0
0
0
0
0
0
0
0
0
0
0
0
0
0
0
0
0
0
0
0
0
0
0
0
0
0
0
0
0
0
0
0
0
0
0
0
0
0
0
0
0
0
0
0
0
0
0
0
0
0
0
0
0
0
0
0
0
0
0
0
0
0
0
0
0
0
0
0
0
0
0
0
0
0
0
0
0
0
0
0
0
0
0
0
0
0
0
0
0
0
0
0
0
0
0
0
0
0
0
0
0
0
0
0
0
0
0
0
0
0
0
0
0
0
0
0
0
0
0
0
0
0
0
0
0
0
0
0
0
0
0
0
0
0
0
0
0
0
0
0
0
0
0
0
0
0
0
0
0
0
0
0
0
0
0
0
0
0
0
0
0
0
0
0
0
0
0
0
0
0
0
0
0
0
0
0
0
0
0
0
0
0
0
0
0
0
0
0
0
0
0
0
0
0
0
0
0
0
0
0
0
0
0
0
0
0
0
0
0
0
0
0
0
0
0
0
0
0
0
0
0
0
0
0
0
0
0
0
0
0
0
0
0
0
0
0
0
0
0
0
0
0
0
0
0
0
0
0
0
0
0
0
0
0
0
0
0
0
0
0
0
0
0
0
0
0
0
0
0
0
0
0
0
0
0
0
0
0
0
0
0
0
0
0
0
0
0
0
0
0
0
0
0
0
0
0
0
0
0
0
0
0
0
0
0
0
0
0
0
0
0
0
0
0
0
0
0
0
0
0
0
0
0
0
0
0
0
0
0
0
0
0
0
0
0
0
0
0
0
0
0
0
0
0
0
0
0
0
0
0
0
0
0
0
0
0
0
0
0
0
0
0
0
0
0
0
0
0
0
0
0
0
0
0
0
0
0
0
0
0
0
0
0
0
0
0
0
0
0
0
0
0
0
0
0
0
0
0
0
0
0
0
0
0
0
0
0
0
0
0
0
0
0
0
0
0
0
0
0
0
0
0
0
0
0
0
0
0
0
0
0
0
0
0
0
0
0
0
0
0
0
0
0
0
0
0
0
0
0
0
0
0
0
0
0
0
0
0
0
0
0
0
0
0
0
0
0
0
0
0
0
0
0
0
0
0
0
0
0
0
0
0
0
0
0
0
0
0
0
0
0
0
0
0
0
0
0
0
0
0
0
0
0
0
0
0
0
0
0
0
0
0
0
0
0
0
0
0
0
0
0
0
0
0
0
0
0
0
0
0
0
0
0
0
0
0
0
0
0
0
0
0
0
0
0
0
0
0
0
0
0
0
0
0
0
0
0
0
0
0
0
0
0
0
0
0
0
0
0
0
0
0
0
0
0
0
0
0
0
0
0
0
0
0
0
0
0
0
0
0
0
0
0
0
0
0
0
0
0
0
0
0
0
0
0
0
0
0
0
0
0
0
0
0
0
0
0
0
0
0
0
0
0
0
0
0
0
0
0
0
0
0
0
0
0
0
0
0
0
0
0
0
0
0
0
0
0
0
0
0
0
0
0
0
0
0
0
0
0
0
0
0
0
0
0
0
0
0
0
0
0
0
0
0
0
0
0
0
0
0
0
0
0
0
0
0
0
0
0
0
0
0
0
0
0
0
0
0
0
0
0
0
0
0
0
0
0
0
0
0
0
0
0
0
0
0
0
0
0
0
0
0
0
0
0
0
0
0
0
0
0
0
0
0
0
0
0
0
0
0
0
0
0
0
0
0
0
0
0
0
0
0
0
0
0
0
0
0
0
0
0
0
0
0
0
0
0
0
0
0
0
0
0
0
0
0
0
0
0
0
0
0
0
0
0
0
0
0
0
0
0
0
0
0
0
0
0
0
0
0
0
0
0
0
0
0
0
0
0
0
0
0
0
0
0
0
0
0
0
0
0
0
0
0
0
0
0
0
0
0
0
0
0
0
0
0
0
0
0
0
0
0
0
0
0
0
0
0
0
0
0
0
0
0
0
0
0
0
0
0
0
0
0
0
0
0
0
0
0
0
0
0
0
0
0
0
0
0
0
0
0
0
0
0
0
0
0
0
0
0
0
0
0
0
0
0
0
0
0
0
0
0
0
0
0
0
0
0
0
0
0
0
0
0
0
0
0
0
0
0
0
0
0
0
0
0
0
0
0
0
0
0
0
0
0
0
0
0
0
0
0
0
0
0
0
0
0
0
0
0
0
0
0
0
0
0
0
0
0
0
0
0
0
0
0
0
0
0
0
0
0
0
0
0
0
0
0
0
0
0
0
2636.68
5341.8
3939.3
9328.99
6495.3
10191.1
8503.82
4700.24
5597.05
5281.3
7936.35
8772.59
9397.78
9699.61
6428.23
5316.01
4337.55
3849.3
2368.23
7849.99
1083.62
4061.32
5077.51
1926.24
8440.23
8106.32
6163.53
5460.4
5804.28
2198.8
3774.18
9431.41
9667.42
6553.01
6141.63
6992.8
5061.72
5816.05
11305.1
11992.9
8972.3
11564.5
1037.72
1512.87
1078.08
6971.04
1904.75
4376.59
5025.87
7236.19
1387.98
4278.56
4658.57
5764.42
1863.3
5275.6
2359.96
4909.52
1031.88
4867.41
5180.65
5926.14
2330.39
5110.3
2390.63
5107.14
5956.55
9749.3
5102.65
8322.81
404.506
3996.78
4003.19
4125.29
1460.16
10690.8
8568.59
1485.59
4086.02
7760.23
3781.83
3877.21
6056.84
10047.1
10989.7
10243.9
11884.4
11682.4
12244.4
10913.7
13118.6
12106
12708.1
13227
13261.3
13364.7
13414.5
13442.4
683.895
7870
789.499
5402.71
3355.35
8894.72
3462
4244.9
10641.2
9156.22
11948.3
6279.16
12410.3
7731.46
12940.3
11795.2
12265.3
12879.7
10959.6
10351.4
4386.31
12194.8
11441.7
6165.17
4318.75
1513.71
842.451
132.84
8708.43
12195.8
8068.61
12313.1
11787
12599.6
9363.04
6574.05
2179.04
2712.07
9067.19
7500.69
399.492
1812.44
2821.4
3042.56
367.985
980.091
1057.84
2710.39
2253.75
463.522
150.338
245.743
617.441
132.764
870.174
639.32
5575.51
10155.1
6319.38
2070.86
899.137
1964.56
4323.48
3935.35
248.264
520.567
327.4
1186.9
289.74
310.147
110.398
710.044
940.453
90.0014
62.7697
41.5365
44.0863
6.12832
880.366
161.222
9.84792
5.8955
47.4268
50.4985
673.998
219.15
2366.23
107.165
68.1531
87.5716
180.253
509.831
136.841
70.8562
86.7377
116.84
68.9564
77.4214
125.857
77.9143
54.9541
221.925
85.2045
134.115
161.119
5.04728e-13
60.1212
76.7638
0
0
21.8046
78.266
93.9535
129.061
99.9859
81.6634
73.8899
68.6655
45.8208
128.392
78.5174
39.1777
99.2418
60.5263
92.228
71.4612
4.03638
78.7907
19.7535
0.136689
0
8.2703
0
1.31891
20.8822
89.3092
0
0
15.3143
88.2751
32.8061
57.2377
47.0347
144.838
27.3989
34.7683
17.6248
39.2378
93.5023
27.8798
40.6024
14.8297
37.0365
18.7065
0
8.64888
3.61437
0
0
6.7883
0
0
6.31013
28.6746
0
0
10.6941
23.6469
35.4562
26.3343
19.8339
16.037
12.7258
16.3708
10.1202
16.589
20.3642
28.6923
14.1544
4.20747
27.7972
13.1679
0
0
0
0
0
0
0
0
0.135297
5.98854
0
0
8.40388
7.58617
5.0717
7.70449
8.61629
12.6402
3.94912
21.3755
3.69529
11.0027
25.3591
3.68051
12.111
2.83505
5.52542
0
0
4.50991
3.63854
0
0
3.28763
0
0
7.03598
4.64529
0
0
0
3.50924
7.87844
7.68575
0.660919
7.36902
22.6104
0
7.47551
2.64828
20.9895
6.98653
4.32924
0
0.213003
3.47843
0
6.46987
0
0
0
0
0
0
0
0
0
0
0
0
15.8484
7.9392
0
10.2557
9.65822
1.48922e-14
0
2.77164
4.26155
3.04358
0
0
0
0
0
0
0
0
0
0
0
0
0
0
0
0
0
0
4.55395
3.91503
3.69615
10.8737
7.2924
0
0
0
4.00888
0
2.91738
1.09742
0
0
0
0
0
0
0
0
0
0
0
0
0
0
0
0
3.21515
0
0
0.639359
3.97376
1.37601
3.73366
0
1.90619e-14
0
4.07298
0
0.0854653
0
0
3.33001
0
0
0
0
0
0
0
0
0
0
0
0
15.1465
10.5234
3.70295
3.20943
9.68505
7.87842
3.65386
0
0
0
0
0
0
0
0
0
0
0
0
0
0
0
0
0
0
0
0
0
4.67808
3.87723
4.1166e-13
4.86748
8.05486
0
3.72101
0
0
0
0
0
0
0
0
0
0
0
0
0
0
0
0
0
0
0
0
0
9.04281
3.6773
3.99845e-13
2.89318
4.00458
10.4776
6.9109
0
0
0
0
0
11.1368
0
0
0
0
0
0
0
0
0
0
0
0
0
0
0
5.93558
6.23893
3.39332
6.29351
2.98744
2.97928
0
0
0.988413
0
2.94952
0
3.79863
0
0
0
0
0
0
0
0
0
0
0
0
0
0
0
0
8.84831
0
3.29106
3.09887
5.8253
0.167712
1.79071
3.60649
0
3.06154
0
3.76084
0
0
0
0
0
0
0
0
0
0
0
0
0
0
0
6.2237
3.16384
2.03868
0
6.16349
6.53214
7.41376
0
0
0
0
0
0
0
0
0
0
0
0
0
0
0
0
0
0
0
0
0
0
3.29013
0.103082
0
1.36002e-14
0
2.93847
0
3.20989
0
3.04428
0.123043
3.03704
0
0
0
0
0
0
0
0
0
0
0
0
0
0
0
3.23115
0
3.09163
0
1.13048e-13
0.257198
5.9818
0
0
0
5.26891
2.89125
2.97041
1.29498e-14
0
0
0
0
0
0
0
0
0
0
0
0
0
0
3.3993
0.123878
3.08521
0
0
3.82326
0
0
0
3.36269
2.36513e-13
2.06791e-14
0
0
0
0
0
0
0
0
0
0
0
0
0
0
0
0
0
0
3.22786
0
0
0
2.68947
2.62744
0
0
2.6194