/*--------------------------------*- C++ -*----------------------------------*\
| =========                 |                                                 |
| \\      /  F ield         | OpenFOAM: The Open Source CFD Toolbox           |
|  \\    /   O peration     | Version:  5.x                                   |
|   \\  /    A nd           | Web:      www.OpenFOAM.org                      |
|    \\/     M anipulation  |                                                 |
\*---------------------------------------------------------------------------*/
FoamFile
{
    version     2.0;
    format      ascii;
    class       volScalarField;
    location    "3.2";
    object      p;
}
// * * * * * * * * * * * * * * * * * * * * * * * * * * * * * * * * * * * * * //

dimensions      [0 2 -2 0 0 0 0];

internalField   nonuniform List<scalar> 
10571
(
136.05
144.877
123.668
137.49
147.453
142.424
139.414
143.452
136.055
124.877
99.2675
116.321
129.285
138.596
145.761
161.053
105.628
131.55
141.261
150.157
152.879
113.484
145.725
146.622
112.967
95.9939
106.591
111.699
119.079
92.4821
108.622
123.369
121.35
126.227
97.4554
96.1626
113.947
122.169
107.757
111.491
99.5401
102.751
104.272
102.745
104.03
102.622
105.615
106.063
78.6512
85.0741
97.5974
88.4364
106.469
81.6943
95.3122
104.593
109.119
106.769
92.5276
93.0315
102.184
108.606
101.706
104.398
96.1589
99.844
98.102
98.4689
99.9951
100.012
101.001
98.8113
58.9757
68.9733
57.5042
62.489
99.7866
71.7642
77.6689
77.1612
96.8841
97.6371
83.7982
78.5423
79.9516
72.6927
88.277
94.334
91.6822
79.9954
69.5197
83.7085
87.9585
97.0739
86.2698
83.8242
49.5882
54.5731
47.3052
42.8131
67.2253
54.6762
42.4496
38.8377
64.9315
87.6669
62.1685
56.5606
36.928
35.4488
50.368
65.5728
83.6736
38.1758
38.7052
65.8814
73.8008
69.7907
41.7103
58.9015
41.5285
44.5089
41.9773
38.5172
38.8229
44.1777
34.4503
34.4266
35.8866
58.5085
36.8003
33.1853
33.1013
33.7211
34.045
33.0121
35.3322
35.3006
31.5673
33.4786
34.564
38.0026
41.3169
33.1701
34.0294
36.7936
40.9689
36.8687
38.1606
38.8868
38.5557
38.3555
34.2605
34.3843
33.6448
34.0799
33.787
34.9185
34.6378
35.3839
34.9519
34.5941
34.0596
33.7764
34.3957
35.2361
34.9995
33.2776
33.6376
33.813
34.118
34.5038
33.5748
35.7485
33.9097
36.4192
35.8597
33.5703
33.7808
33.9462
33.7763
33.9634
33.7949
33.8178
33.5199
33.7124
34.6486
34.3142
34.2315
33.8332
33.798
34.1402
34.8991
34.8272
34.1245
33.968
33.8511
34.3669
34.536
34.0639
33.425
33.6662
33.0955
33.2795
33.5917
33.3205
33.8391
33.798
33.8246
33.7113
33.8246
33.637
33.8453
34.2329
34.0227
33.9362
33.7421
33.8498
34.1855
34.3252
34.4441
33.8254
34.0406
34.3658
34.4826
34.155
33.5522
33.5704
33.3456
33.6553
33.6509
33.4449
33.9212
33.7162
33.686
33.6557
33.7428
33.7774
34.1184
33.9419
33.8467
33.7556
34.0905
34.1343
34.2216
33.8356
33.8953
34.2665
34.3437
34.1632
33.6015
33.5821
33.4872
33.6057
33.6126
33.5505
33.8606
33.6387
33.6521
33.6701
33.7479
33.7162
34.0355
33.8876
33.8106
33.7113
34.0088
34.0986
34.0684
33.8655
33.8992
34.1731
34.1994
34.1117
33.5627
33.5949
33.489
33.5652
33.5897
33.6198
33.8045
33.6616
33.6786
33.7101
33.7795
33.7319
33.9736
33.8535
33.8253
33.7295
33.9669
34.0554
33.9557
33.8636
33.8981
34.0961
34.0941
34.0536
33.5675
33.6358
33.4908
33.509
33.6156
33.7456
33.7937
33.7335
33.7236
33.774
33.8109
33.7509
33.9415
33.8407
33.8561
33.8009
33.9404
34.0231
33.9148
33.8694
33.9169
34.0509
34.0343
34.0222
33.62
33.7198
33.5546
33.5437
33.662
33.8059
33.7953
33.7784
33.7676
33.8413
33.8427
33.7783
33.9479
33.8385
33.8789
33.8939
33.9307
34.006
33.8916
33.8629
33.931
34.0281
33.9866
33.9923
33.7207
33.8078
33.6958
33.6975
33.7478
33.8215
33.8472
33.8001
33.7982
33.8872
33.8717
33.7988
33.9794
33.8467
33.8997
33.9492
33.9242
33.979
33.8572
33.8584
33.9448
34.0086
33.9569
33.9654
33.8036
33.8735
33.8346
33.8054
33.8206
33.8552
33.896
33.8259
33.8342
33.9101
33.9104
33.8236
34.0033
33.8608
33.9099
33.9776
33.9206
33.9451
33.8592
33.9118
33.9764
33.9884
33.9446
33.9647
33.8722
33.8754
33.8844
33.8617
33.8778
33.9034
33.9059
33.8486
33.8732
33.9304
33.9486
33.8939
33.9698
33.8823
33.9146
33.9847
33.9269
33.9103
33.8752
34.061
34.0441
33.9641
33.9452
33.9862
33.935
33.8341
33.9279
33.9146
33.9307
33.9086
33.9128
33.8712
33.9299
33.9401
33.9548
33.9358
33.9135
33.9162
33.9265
33.9611
33.9423
33.9195
33.918
34.0493
34.0173
33.9516
33.9457
33.9909
33.9952
33.8665
33.9218
33.9519
33.9783
33.9351
33.9248
33.9165
33.9739
33.9625
34.0175
33.9742
33.8875
33.9401
33.9373
33.9409
33.9532
33.9464
33.9312
33.9347
33.9456
33.9504
33.9534
33.9787
34.024
33.9956
33.9517
33.9883
34.0117
34.0383
33.9144
33.9733
33.9977
33.9898
34.1092
34.0299
33.9349
33.944
33.9616
33.9509
33.9666
33.9786
33.9069
33.8561
33.9123
33.9673
33.9645
33.9393
34.0208
34.0066
33.9487
34.0058
34.0123
34.2926
33.9607
33.9944
34.0297
34.011
34.0043
34.0478
33.9611
33.9314
33.9791
33.9673
34.0238
33.9916
33.9327
33.8611
33.9125
33.9814
33.9748
33.9156
34.0176
33.9815
33.9309
33.9944
33.9913
34.1374
33.9428
33.9998
34.0431
34.023
33.9038
33.9299
33.9583
33.9055
33.9928
33.9854
34.0238
33.9885
34.0241
33.901
33.9442
33.9959
34.0081
33.9977
34.0304
34.0063
33.99
33.9964
33.9804
33.9918
33.9396
34.0002
34.0534
34.0309
33.8794
33.7823
33.9874
33.9253
34.0232
34.0079
33.963
33.9911
34.0842
34.0129
34.0121
34.0277
34.0462
34.0508
34.0564
34.0049
34.0271
34.0131
34.0064
33.9651
33.9643
34.0028
34.0574
34.0389
33.9526
33.9129
33.9987
33.9709
34.0598
34.0273
33.9451
34.0002
34.0897
34.0568
34.0564
34.0696
34.0762
34.0847
34.0393
33.9984
33.9984
34.0175
34.0478
33.977
33.9939
34.0321
34.0508
34.0468
34.0198
34.0093
33.9919
34.011
34.0744
34.0397
34.0615
34.032
34.0895
34.0634
34.0687
34.1085
34.1049
34.0857
34.0393
34.0034
33.9564
34.006
34.0638
34.0012
33.9989
34.0372
34.042
34.0501
34.0477
34.0471
33.9945
34.0407
34.0908
34.0523
34.2237
34.0217
34.0732
34.0903
34.087
34.1437
34.1187
34.0777
34.0327
34.0105
33.9975
34.0087
34.0676
34.0099
33.9952
34.0247
34.0327
34.0465
34.0474
34.0374
34.0132
34.0662
34.0705
34.0552
34.2237
33.8975
34.0222
34.1351
34.0915
34.0823
34.1091
34.0803
34.0065
34.0057
34.0077
34.0032
34.0635
34.0037
34.0001
34.003
34.0234
34.0374
34.0161
33.9931
34.014
34.0774
34.0447
34.0474
34.0693
33.8327
33.9712
34.0774
34.0731
33.9794
34.0767
34.0668
33.9863
33.992
33.9964
33.9906
34.0406
33.9824
33.9916
33.9946
34.0145
34.0265
33.9631
33.9375
33.9945
34.0527
34.0312
34.0371
33.96
33.8689
33.9583
34.0187
34.0446
33.9149
34.0216
34.0315
33.9819
33.9787
33.9905
33.9961
34.0119
33.956
33.9862
33.9976
34.0111
34.0216
33.9084
33.8775
33.9648
34.0123
34.0187
34.0274
33.8942
33.9112
33.9253
33.9768
34.0162
33.9124
33.9712
33.9946
34.0035
33.9733
33.991
34.0145
34.0095
33.9352
33.9855
34.0106
34.0141
34.0246
33.8694
33.81
33.933
33.9917
34.012
34.027
33.8847
33.9679
33.9423
33.9511
34.0112
33.9379
33.9676
33.9824
34.0335
33.9788
33.9975
34.0265
34.0222
33.9303
33.9876
34.0335
34.027
34.0345
33.8512
33.7594
33.9189
34.0213
34.0245
34.0351
33.8922
34.0141
34.0611
34.001
34.0353
33.9775
34.021
34.0122
34.0456
33.9932
34.0153
34.035
34.0386
33.9373
33.9975
34.0554
34.0372
34.0445
33.8696
33.764
33.9328
34.0488
34.0352
34.0483
33.9061
34.0326
34.1539
34.0576
34.0643
34.0201
34.0596
34.0658
34.0544
34.0137
34.0314
34.044
34.0503
33.9586
33.9942
34.055
34.0467
34.0527
33.9426
33.8283
33.9468
34.0503
34.0466
34.0599
33.9126
34.0163
34.1198
34.0789
34.0834
34.0458
34.0711
34.0844
34.0587
34.0371
34.0407
34.049
34.0573
33.9877
33.997
34.0483
34.0514
34.0581
34.0212
33.8862
33.9402
34.0272
34.0541
34.0656
33.9412
33.9584
34.0479
34.0748
34.0831
34.0552
34.0592
34.0812
34.0634
34.0607
34.0511
34.0493
34.0618
34.0199
34.0048
34.0403
34.0578
34.0601
34.0591
33.9401
33.9418
34.0097
34.0515
34.0672
33.9788
33.8503
33.9729
34.041
34.0723
34.0467
34.0377
34.0584
34.0726
34.0815
34.0661
34.0535
34.0682
34.0518
34.0167
34.0392
34.0629
34.0652
34.0883
33.9929
33.9606
34.0082
34.0485
34.068
34.0217
33.7241
33.9114
34.0038
34.0587
33.9894
33.9998
34.0341
34.0857
34.1034
34.0853
34.0667
34.0774
34.0836
34.0378
34.0477
34.0688
34.0745
34.1066
34.0419
33.9889
34.0072
34.0477
34.0721
34.0545
33.7291
33.883
33.9774
34.0499
33.9283
33.9619
34.0089
34.1036
34.1305
34.1069
34.0871
34.0892
34.115
34.0715
34.0617
34.082
34.0887
34.1129
34.084
34.0301
34.0151
34.0594
34.0825
34.0873
33.8597
33.911
33.9904
34.048
33.9205
33.951
33.9889
34.1253
34.1619
34.1327
34.1133
34.1055
34.1509
34.1096
34.0917
34.0999
34.1041
34.1452
34.1186
34.0845
34.0639
34.0803
34.0937
34.1783
33.9823
33.9452
34.0117
34.0586
33.9839
33.995
33.9898
34.1515
34.1971
34.1625
34.1424
34.1309
34.192
34.143
34.1283
34.1148
34.1229
34.1895
34.1598
34.1239
34.1142
34.0822
34.059
34.1131
34.0436
34.0697
34.0502
34.0557
33.9789
34.1326
34.0435
34.1799
34.2322
34.1939
34.1712
34.1696
34.2291
34.1664
34.1587
34.1362
34.1572
34.2256
34.1992
34.1385
34.1531
34.0589
33.9947
34.2594
34.1097
34.1174
34.1001
34.0428
33.9205
34.1211
34.12
34.2118
34.2613
34.2224
34.1985
34.2219
34.2446
34.1718
34.1822
34.1601
34.1911
34.2342
34.203
34.1251
34.1502
34.0397
34.0285
34.2315
34.1715
34.1382
34.0643
33.9999
34.1331
34.1065
34.0816
34.2411
34.2768
34.2403
34.2208
34.2742
34.2328
34.1534
34.1744
34.1785
34.2307
34.2136
34.1722
34.0959
34.135
34.0027
34.0727
34.1771
34.1631
34.1496
33.9855
33.929
34.2294
34.0864
34.0149
34.2624
34.2697
34.2496
34.2354
34.3148
34.2088
34.1279
34.1446
34.1893
34.2601
34.1804
34.1244
34.0708
34.1229
33.9441
34.1143
34.1462
34.1293
34.0158
33.945
33.9813
34.2086
33.9916
33.9115
34.2699
34.248
34.2451
34.2426
34.336
34.1754
34.0992
34.1165
34.1841
34.272
34.1512
34.0798
34.0682
34.1089
34.0768
34.1806
34.1211
34.1288
34.0538
34.1463
34.1935
34.221
34.0961
34.1182
34.2662
34.2209
34.2239
34.2322
34.3381
34.142
34.0488
34.0797
34.1495
34.2635
34.1292
34.0457
34.0552
34.0903
34.1478
34.2106
34.1086
34.1334
34.1536
34.258
34.281
34.2402
34.2607
34.5172
34.2536
34.1902
34.1885
34.204
34.2885
34.1107
33.9877
34.0095
34.0769
34.2291
34.1202
34.0347
34.0328
34.0498
34.1136
34.1924
34.1053
34.1086
34.14
34.2217
34.2548
34.2007
34.2271
34.3732
34.2099
34.1622
34.1439
34.1268
34.2203
34.1028
33.9411
33.919
34.0006
34.1772
34.1323
34.0459
34.0191
34.0296
34.0804
34.154
34.1287
34.0951
34.1138
34.1553
34.2038
34.1593
34.1687
34.2222
34.1243
34.1514
34.0964
34.0204
34.1174
34.1406
33.9098
33.8572
33.9332
34.1212
34.1884
34.1099
34.0193
34.0193
34.052
34.1147
34.1587
34.101
34.0937
34.1133
34.1654
34.1401
34.1306
34.1564
34.0001
34.1433
34.0467
33.8642
33.948
34.2294
33.9181
33.8288
33.8952
34.0581
34.2831
34.1908
34.0306
34.0046
34.0176
34.0734
34.2296
34.0995
34.0788
34.0797
34.1299
34.1256
34.1015
34.1187
33.8662
34.1434
33.9995
33.7383
33.7285
34.2094
33.8987
33.8184
33.8509
33.9612
34.2606
34.1907
33.9834
33.978
33.9839
34.0301
34.1956
34.0562
34.057
34.0497
34.0984
34.0956
34.0762
34.0909
33.8012
34.138
34.0023
33.6956
33.5067
34.1614
33.8799
33.814
33.7933
33.892
34.1766
34.1271
33.942
33.9557
33.9717
34.0163
34.1321
34.023
34.0262
34.0285
34.0656
34.0637
34.0534
34.0691
33.836
34.104
34.0134
33.7637
33.455
34.0917
33.8669
33.8339
33.7599
33.847
34.1218
34.0816
33.9405
33.9401
33.969
33.9912
34.0899
34.0164
34.0101
34.0123
34.0441
34.0459
34.0398
34.0539
33.9217
34.1358
34.0308
33.8633
33.6331
34.09
33.8663
33.8642
33.7725
33.8446
34.1018
34.0711
33.9632
33.9518
33.9738
33.9576
34.0821
34.0262
34.0161
34.0094
34.0322
34.0479
34.0364
34.0437
34.0329
34.1035
34.0169
33.9658
33.8127
34.0953
33.8915
33.8908
33.8279
33.8809
34.1104
34.0911
34.0192
33.9794
33.9773
33.9504
34.1011
34.0564
34.0327
34.0114
34.0136
34.0716
34.0488
34.0415
34.197
34.1669
34.151
34.0921
33.9574
34.1389
34.0113
33.9612
33.9061
33.939
34.1471
34.1335
34.0899
34.015
33.9873
33.9504
34.1425
34.1049
34.0608
34.0194
34.002
34.1118
34.0768
34.0504
34.2881
34.244
34.2893
34.1947
34.0568
34.2064
34.1742
34.0451
33.9292
33.9566
34.2044
34.1937
34.1455
34.0582
33.9677
33.9075
34.1975
34.1568
34.0977
34.0232
33.9701
34.1625
34.1069
34.0682
34.2963
34.3084
34.3079
34.2087
34.0691
34.2774
34.2618
34.0903
33.8511
33.8342
34.2731
34.2609
34.1949
34.0887
33.8724
33.7502
34.2615
34.2065
34.1175
33.9997
33.8872
34.2051
34.1219
34.0732
34.2999
34.3809
34.3539
34.2217
34.0201
34.3526
34.3046
34.1072
33.6335
33.4699
34.3563
34.3373
34.2429
34.06
33.6763
33.3529
34.3354
34.2651
34.1335
33.956
33.7153
34.2467
34.1482
34.0802
34.3417
34.4723
34.4373
34.2668
33.9446
34.438
34.3704
34.1008
33.3118
32.6226
34.4575
34.4279
34.3116
33.9799
33.4011
32.3329
34.4196
34.3494
34.1581
33.8833
33.4019
34.3161
34.1971
34.1057
34.4249
34.5913
34.5544
34.3415
33.8477
34.5469
34.4894
34.057
32.9546
30.6845
34.5602
34.528
34.4055
33.9236
32.9228
29.8062
34.5156
34.4715
34.1984
33.7388
32.7683
34.4641
34.3087
34.1504
34.5666
34.763
34.7234
34.4741
33.8302
34.6954
34.6708
34.0844
32.5715
25.4022
34.6694
34.6564
34.5176
33.9185
32.4497
25.9858
-22.9697
34.6174
34.5978
34.2981
33.5515
31.1936
34.6385
34.4593
34.2324
34.7798
34.9793
34.9325
34.6806
33.987
34.9106
34.8405
34.2733
32.5788
22.2852
-0.295404
34.7961
34.7881
34.6417
34.0632
32.2901
25.279
3.32423
34.7487
34.747
34.4518
33.4954
28.6074
34.8555
34.6311
34.4473
35.0732
35.2333
35.1741
34.9313
34.3693
35.141
35.0306
34.4879
33.2059
26.4431
6.58176
34.957
34.9278
34.7417
34.2481
32.5491
25.7732
7.51219
34.8814
34.847
34.5762
33.8012
28.273
8.30369
35.0378
34.8678
34.6816
35.3857
35.5134
35.427
35.1687
34.9899
35.3563
35.2138
34.7434
34.083
27.9245
8.01757
35.104
35.0705
34.8
34.4035
33.3199
27.5494
6.80241
34.8079
34.7907
34.678
33.9559
31.4608
35.0447
34.9572
34.8852
35.5876
35.7207
35.4718
35.3791
35.4411
35.5166
35.1222
34.8174
34.3349
31.2593
35.2532
35.0972
34.6928
34.4066
33.5358
28.8323
-11.0785
34.875
34.9187
34.8237
34.379
33.9074
35.2105
35.1246
35.1534
35.551
35.7038
35.3533
35.2877
35.3479
35.4652
34.7439
34.6741
34.4867
33.8384
35.3364
35.0674
34.396
34.2151
33.6761
32.3576
35.0509
34.863
34.6667
34.2375
34.3518
35.3064
35.1176
35.1197
35.3093
35.3595
35.1015
35.0984
35.1472
34.9587
34.4904
34.6644
34.6038
34.5819
35.1167
34.6858
34.288
34.3188
34.1812
34.1956
35.0796
34.7783
34.6417
34.4733
34.7824
35.2258
35.0309
35.0406
35.169
34.9172
34.8731
34.9718
35.0489
34.4745
34.4178
34.718
34.7441
34.8575
34.5713
34.0922
34.2778
34.4926
34.4871
34.7591
34.9867
34.7743
34.82
34.7564
34.9694
35.121
35.0349
35.0749
35.1067
34.588
34.768
34.9358
35.0456
34.2021
34.5077
34.8283
34.8973
35.0355
34.2051
33.8291
34.5464
34.7158
34.7512
34.9989
34.9949
34.9833
34.9719
34.9111
35.0926
35.1393
35.1059
35.134
35.1052
34.5739
34.7657
34.9713
35.0942
34.301
34.7137
34.9503
35.0473
35.165
34.5327
34.4056
34.8528
34.8969
34.9876
35.1722
35.1495
35.1263
35.0983
35.0406
35.1997
35.2116
35.1688
35.2027
35.1467
34.7945
34.8369
35.0415
35.1814
34.6739
34.8842
35.0694
35.1753
35.2737
34.9931
34.9421
34.998
35.0456
35.1645
35.2658
35.2696
35.2194
35.213
35.2179
35.2934
35.2964
35.2607
35.3007
35.2174
34.9643
35
35.112
35.2955
34.9282
34.9539
35.0796
35.222
35.3525
35.2631
35.16
35.0406
35.088
35.2206
35.3192
35.3809
35.2922
35.2199
35.2945
35.3431
35.4416
35.3808
35.3914
35.3007
35.0476
35.0767
35.1842
35.3659
35.0335
35.0278
35.1292
35.2749
35.3739
35.3479
35.2307
35.1082
35.1423
35.2543
35.3439
35.4037
35.3566
35.2446
35.3153
35.3606
35.5695
35.4552
35.4472
145.517
142.336
151.509
156.559
145.389
151.347
158.088
172.102
191.469
178.641
158.042
192.81
162.834
142.341
143.664
149.274
143.604
165.208
167.728
162.897
176.519
173.4
175.091
173.848
164.509
143.905
187.721
167.228
179.018
183.984
163.113
162.734
143.189
151.732
148.749
139.919
144.287
170.533
172.901
162.441
161.973
171.428
151.355
162.082
168.615
147.447
196.485
208.741
160.398
175.148
178.18
155.769
138.799
168.813
151.378
137.516
149.889
151.82
157.739
160.569
163.805
162.367
175.047
167.224
184.368
177.236
192.305
216.743
221.286
194.113
163.96
175.465
159.871
165.826
171.073
146.451
141.864
157.051
150.065
158.833
176.874
163.308
183.193
189.919
203.04
205.7
201.756
201.033
164.949
170.704
169.636
166.716
182.486
198.104
175.653
206.035
127.569
117.604
125.59
120.899
125.03
115.751
114.136
112.849
137.271
142.367
126.122
127.698
143.991
144.338
134.035
141.321
96.5807
133.084
153.841
146.071
114.158
114.165
105.858
113.672
137.675
138.754
129.019
132.206
127.391
126.88
127.538
125.904
128.674
113.443
102.262
108.542
93.1932
94.3571
94.5886
133.029
141.011
129.206
122.3
123.649
104.23
102.599
94.7561
95.2439
95.9021
159.379
177.586
123.723
125.054
123.217
101.597
96.0999
121.824
104.09
108.758
95.8652
99.306
96.8037
97.1997
138.934
129.888
136.552
109.293
105.145
106.64
108.661
109.449
105.476
98.7142
120.264
126.71
100.813
103.348
104.178
148.367
145.72
113.358
117.417
112.554
111.98
102.868
94.7437
109.542
111.3
109.112
102.845
103.62
104.344
113.137
123.503
99.5753
99.7254
106.839
119.646
110.941
91.5534
88.8804
98.3096
91.9005
93.5839
90.1571
91.0559
88.106
87.7649
119.735
116.728
122.668
112.046
111.811
112.861
113.163
127.114
121.008
92.9169
95.724
95.4748
90.1151
92.7536
92.3615
117.154
117.749
115.73
111.734
112.812
97.5922
99.1112
95.7739
96.0783
97.8486
113.146
106.472
107.341
108.266
104.976
99.3243
98.0242
98.6018
100.115
100.018
98.3044
98.6704
98.824
99.0154
103.133
105.168
104.757
101.681
102.099
102.817
103.08
103.347
101.601
100.211
102.705
102.774
101.798
101.52
101.893
110.652
104.761
103.43
106.1
103.078
102.776
86.7634
74.5381
86.1627
89.8674
90.2369
69.6088
67.7142
71.2274
79.4861
90.5117
64.5577
64.7582
74.9973
104.493
100.144
84.7792
79.5405
86.5069
84.3888
86.7669
77.1878
76.6428
78.6085
81.4587
105.675
109.392
105.366
103.084
101.993
107.885
102.038
107.079
102.319
85.6558
88.3564
87.5288
80.0938
82.8253
81.5985
107.185
107.781
102.056
103.524
103.199
92.34
95.3061
88.3899
87.3034
92.5889
104.248
102.107
101.248
100.338
97.7319
96.1733
94.2173
97.6077
96.8446
96.9364
93.8874
95.5902
94.8473
94.6482
98.4786
99.3451
99.3854
92.1422
92.7608
95.208
94.0328
94.5165
98.6727
97.2162
99.4626
99.6171
98.6139
97.6523
97.3628
101.852
100.376
97.3015
96.5864
96.8024
93.6054
64.4016
57.051
61.5639
56.3709
62.0098
56.3563
53.5294
56.0938
58.4944
63.8468
55.5801
54.9499
55.4034
93.1841
75.2328
73.0563
66.4725
65.7847
71.6366
68.098
61.4839
57.8194
64.5116
55.2184
98.6431
103.381
98.2938
90.8303
93.8541
88.7181
92.7529
98.1712
92.2569
73.473
76.0706
74.2338
66.3819
65.7697
64.703
98.8466
97.887
93.5285
93.9687
91.9127
82.0291
90.1636
76.1849
74.573
84.7953
92.7115
92.2661
82.8012
79.4819
84.4116
92.6143
91.4656
92.513
92.2647
91.8966
89.7573
86.6464
89.1592
87.5851
85.8389
84.9324
86.1675
75.4251
79.3338
71.1324
77.1003
81.0968
95.1333
90.4676
94.0436
93.2488
91.4078
85.6781
85.7684
83.5225
89.3813
64.9614
66.6451
73.6743
71.323
50.7979
45.8695
50.8282
50.7152
50.338
46.249
47.5576
45.8467
48.4163
45.8093
43.5833
41.9811
39.8995
53.7276
42.456
60.3244
53.9005
51.0245
57.0378
47.3264
48.9214
45.6127
50.5197
43.7266
78.5299
67.1761
83.1511
41.7002
50.9212
44.6725
64.8484
82.2378
68.598
58.7405
54.0191
54.0049
51.9635
44.7992
45.667
84.3129
74.6643
77.9326
65.8114
53.0449
64.6583
55.9366
40.4366
41.4144
34.9904
61.1023
70.5352
46.287
45.4187
55.4285
79.676
43.6916
60.7122
84.6916
79.3035
51.9336
33.8587
72.3177
56.7523
75.1382
59.3234
68.8244
53.1082
72.8799
49.6327
60.9981
64.2413
75.1923
50.6684
65.4098
67.9275
38.9734
38.2744
37.2096
48.7002
45.3799
33.8607
35.9349
34.3381
47.3197
42.326
40.2266
43.7185
44.7392
43.3976
42.3427
42.9144
42.4788
40.1886
39.1936
41.4127
40.8789
40.3542
39.7653
40.2666
47.2466
40.8275
41.4813
45.7872
41.3163
40.3391
38.0358
41.2018
39.175
41.0612
38.6959
44.1086
39.1607
40.3771
38.7105
39.6304
50.3659
40.2182
46.6366
39.1422
41.67
42.6662
37.9288
40.0569
42.8508
45.9395
44.7154
39.6842
35.6295
34.1459
34.2024
34.6143
36.5141
34.5922
34.0584
33.9433
33.9027
33.8684
32.2376
34.5978
34.8455
34.7247
35.1341
39.2159
38.0024
34.778
33.2583
32.9291
33.056
33.4129
34.2447
34.7937
34.1064
33.7792
33.8392
33.8265
33.8454
32.9067
34.188
32.6193
36.2684
34.0841
33.4758
34.492
33.2027
33.2421
53.2548
40.4377
43.8256
31.3527
31.8678
34.1257
33.932
32.4582
34.6519
33.5667
32.9625
33.4099
33.9017
34.245
34.3284
33.3395
34.0156
34.4167
33.6366
34.4662
33.6509
38.0335
35.9001
41.2181
41.1642
42.3544
39.7302
38.1952
41.2315
41.4643
41.014
39.85
41.1276
39.6069
39.5636
37.2405
35.9875
34.7065
35.5516
35.8601
38.0159
34.9441
34.5666
33.8579
37.573
38.6824
36.2987
38.1809
36.5559
34.2283
34.1238
34.1738
35.5456
33.7034
33.6495
33.7075
33.8885
33.8972
33.8543
33.8792
39.1504
37.8315
38.9007
36.6964
35.8283
36.3405
33.7283
33.5255
33.7418
33.8023
33.8168
33.7041
33.7443
33.8627
33.8145
33.8203
33.8518
33.867
33.8289
33.8248
34.9708
35.0584
34.091
34.0446
34.774
33.7797
33.9884
33.7556
34.0155
33.8013
34.061
33.7396
33.8351
33.8342
33.851
33.7915
33.8352
33.8399
33.8457
34.6078
34.572
34.7296
34.4656
34.2698
34.2085
34.4509
34.3167
34.2734
33.1836
33.0668
33.3158
34.2239
33.7048
33.7091
33.8422
33.7778
33.879
33.7848
33.8386
33.8269
33.846
34.2792
34.3394
34.4995
34.4144
34.2576
34.504
34.5299
33.9524
34.5493
34.5325
34.1732
34.6331
33.8981
34.1341
33.4529
35.8206
34.7086
36.7697
33.7226
33.3272
33.6157
36.6894
35.0399
33.3661
33.1577
33.371
33.7569
33.4775
34.3331
33.5915
34.3272
33.7206
35.1604
33.6453
33.6385
33.6098
33.0033
33.5513
33.5054
33.598
33.488
33.7111
33.6252
33.801
33.6716
33.7369
33.6493
33.7528
33.8206
33.8696
33.8244
33.8615
35.4506
33.315
33.2173
33.6802
32.95
32.8114
33.766
33.6305
33.7211
33.7514
33.7918
33.5963
33.7258
33.8575
33.7905
33.8214
33.8298
33.8558
33.7781
33.8213
33.5589
34.5114
33.5234
33.5968
34.2836
33.7825
33.9555
33.9151
33.7531
33.82
33.8456
33.9163
33.8425
33.8453
33.8553
33.8192
33.8572
33.85
33.8808
34.454
34.3484
34.3296
34.3019
34.255
34.1792
34.3083
34.3358
34.2939
33.7429
33.949
33.9839
33.9179
33.8267
33.9277
33.9755
33.8762
33.954
33.9529
33.8603
33.865
33.8785
34.3582
34.3634
34.4835
34.506
34.3926
34.4815
34.4967
34.299
34.6301
34.5311
34.3392
34.6236
34.1211
33.3892
33.4305
33.4298
33.4041
33.4191
33.4965
33.4525
33.4934
33.4138
33.5668
33.5196
33.4923
33.5494
33.6107
33.5964
33.347
33.4817
33.3841
33.5352
33.1377
33.605
33.4921
33.517
33.4461
33.694
33.7127
33.72
33.6265
33.6996
33.7039
33.675
33.6347
33.6359
32.8841
33.3012
33.2879
33.2096
33.5202
33.5507
33.7707
33.5968
33.7309
33.6891
33.7299
33.6215
33.7053
33.8609
33.7842
33.8324
33.8078
33.8544
33.803
33.8309
33.6932
34.133
33.716
33.7422
34.0254
33.8958
33.9624
34.1038
33.7543
33.9036
33.9112
34.1154
33.8836
33.8812
33.8981
33.8848
33.9084
33.8947
33.9141
34.248
34.1537
34.2676
34.3007
34.2921
34.1477
34.1903
34.2362
34.2249
33.8831
33.9216
33.9789
33.8156
33.9239
33.9447
33.9927
33.9425
34.3331
34.2781
34.4229
34.4364
34.317
34.3441
34.3622
34.3386
34.5649
34.4198
34.3201
34.4953
34.17
33.4349
33.4605
33.49
33.396
33.4733
33.5292
33.3933
33.5051
33.5156
33.5642
33.575
33.5581
33.5716
33.6118
33.5956
33.5351
33.527
33.5769
33.5308
33.5059
33.5819
33.6054
33.5323
33.4435
33.6785
33.6789
33.6652
33.6341
33.6515
33.6395
33.6391
33.6488
33.6516
33.464
33.5867
33.6172
33.5086
33.6103
33.6218
33.6211
33.7511
33.6609
33.6057
33.5164
33.731
33.9478
33.7431
33.7203
33.8938
34.0707
33.8754
33.7201
33.4758
33.858
34.0703
34.0006
34.1046
34.1651
34.1499
34.0426
34.0439
34.1034
34.0929
33.9363
33.9676
33.9918
33.8572
33.9308
33.9733
33.9783
33.8977
34.2128
34.1534
34.2691
34.2854
34.2171
34.203
34.2194
34.2828
34.4159
34.2691
34.2374
34.3415
34.1405
33.5171
33.5534
33.5623
33.4114
33.5564
33.5697
33.4599
33.5696
33.5828
33.5638
33.5904
33.5875
33.566
33.5812
33.5793
33.5319
33.5529
33.6172
33.5174
33.4357
33.581
33.6089
33.5129
33.4835
33.6347
33.6049
33.63
33.5951
33.6191
33.5674
33.6214
33.6528
33.6556
33.5313
33.632
33.6291
33.5792
33.6655
33.6554
33.6435
33.6603
33.6832
33.6559
33.6835
33.7268
33.8568
33.7627
33.7434
33.8289
33.6706
33.847
33.7176
33.7364
33.8478
33.952
33.9214
33.996
34.0549
34.0403
33.9845
33.9682
34.0127
33.9964
33.9186
33.9649
33.9646
33.8679
33.9114
33.9495
33.9556
33.8965
34.1026
34.0647
34.1499
34.1655
34.1304
34.1066
34.1229
34.1904
34.2692
34.1411
34.1464
34.2076
34.0802
33.5143
33.4922
33.5634
33.4664
33.5654
33.5496
33.4317
33.5488
33.5779
33.5683
33.5593
33.5655
33.5763
33.5882
33.601
33.5904
33.6329
33.6146
33.5239
33.5251
33.6084
33.6162
33.5552
33.5596
33.6212
33.5493
33.6299
33.5944
33.6327
33.5494
33.6428
33.6675
33.6839
33.6393
33.7004
33.6889
33.6952
33.7298
33.7174
33.6702
33.6948
33.7385
33.697
33.7215
33.762
33.812
33.7946
33.7806
33.8099
33.7497
33.8658
33.7565
33.7941
33.8897
33.9072
33.9086
33.9552
33.9831
33.9669
33.9508
33.9427
33.9639
33.9456
33.9091
33.9394
33.9474
33.8664
33.9078
33.9415
33.9425
33.9068
34.0362
34.0144
34.0724
34.0882
34.0705
34.0479
34.061
34.1095
34.1574
34.0616
34.0829
34.118
34.0353
33.5397
33.5981
33.5605
33.4689
33.5477
33.5816
33.5318
33.5779
33.57
33.5876
33.5869
33.5917
33.6045
33.6198
33.6419
33.6858
33.7413
33.6248
33.6167
33.6032
33.6748
33.6485
33.6818
33.6326
33.6561
33.5689
33.671
33.6321
33.682
33.6176
33.7035
33.7175
33.7502
33.7469
33.7566
33.7457
33.7881
33.7825
33.7743
33.7364
33.765
33.8072
33.7766
33.8101
33.8011
33.8182
33.8273
33.8214
33.8358
33.8562
33.9116
33.8461
33.9075
33.9316
33.9178
33.9227
33.9348
33.9536
33.9327
33.9349
33.9311
33.9494
33.9235
33.9052
33.9459
33.9403
33.868
33.9031
33.9466
33.9376
33.923
33.9988
33.988
34.0292
34.0406
34.0395
34.0216
34.0274
34.06
34.086
34.0087
34.0359
34.0563
34.0081
33.647
33.7006
33.6149
33.5731
33.6176
33.6628
33.6151
33.6627
33.6186
33.6457
33.668
33.6622
33.6893
33.6734
33.7064
33.7852
33.8353
33.6833
33.7413
33.6651
33.7658
33.7277
33.8001
33.7321
33.7104
33.6733
33.7417
33.7077
33.7408
33.7348
33.7735
33.7873
33.8169
33.8132
33.8081
33.8013
33.8359
33.8309
33.8251
33.8174
33.8523
33.8667
33.8535
33.8847
33.8409
33.8537
33.8563
33.8594
33.8715
33.9466
33.9527
33.9299
33.9682
33.9641
33.9254
33.925
33.9283
33.9473
33.9148
33.9259
33.9281
33.9463
33.9065
33.9064
33.943
33.9347
33.8537
33.9076
33.9394
33.9345
33.9323
33.9791
33.9704
34.0154
34.0168
34.0175
34.0101
34.008
34.0133
34.0292
33.9686
33.9916
34.0058
33.9765
33.7563
33.8101
33.7132
33.6787
33.7115
33.7633
33.7549
33.7618
33.7198
33.7211
33.7654
33.7613
33.7554
33.7403
33.7775
33.8872
33.9176
33.7735
33.8548
33.8284
33.8457
33.8263
33.8888
33.8883
33.7732
33.7796
33.8012
33.7847
33.8015
33.8119
33.8278
33.8438
33.8648
33.8555
33.8512
33.8466
33.8713
33.8684
33.8652
33.8782
33.9062
33.9005
33.891
33.9109
33.8758
33.8882
33.8886
33.8892
33.9016
33.9795
33.9618
33.9646
33.982
33.9665
33.9189
33.9135
33.927
33.9458
33.9029
33.9215
33.9206
33.9438
33.9041
33.9149
33.9425
33.9398
33.8784
33.9282
33.951
33.9491
33.96
33.9632
33.9589
34.0051
34.0002
33.9975
33.995
33.9904
33.9752
33.9876
33.9503
33.966
33.9711
33.9608
33.8557
33.8754
33.8115
33.8251
33.8113
33.8504
33.8798
33.8532
33.7994
33.7991
33.8389
33.8399
33.8375
33.8168
33.8488
33.9249
33.9154
33.8684
33.9016
33.901
33.8858
33.8861
33.8974
33.8874
33.831
33.8335
33.8473
33.8506
33.8567
33.853
33.8642
33.8808
33.8922
33.8844
33.8865
33.8818
33.8884
33.9061
33.8988
33.8976
33.9121
33.9193
33.9025
33.9111
33.8999
33.9109
33.9361
33.9107
33.9135
33.9817
33.9676
33.9876
33.9795
33.9676
33.9128
33.914
33.9149
33.9391
33.9015
33.9234
33.908
33.9333
33.8995
33.9512
33.9646
33.9662
33.9842
34.0171
33.9761
33.9911
34.0116
33.9533
33.9442
33.9829
33.9782
33.9748
33.9667
33.965
33.9595
33.961
33.9443
33.9593
33.9561
33.9753
33.8803
33.8776
33.8783
33.9075
33.8827
33.9031
33.9029
33.897
33.8728
33.8715
33.9036
33.9019
33.9033
33.8784
33.906
33.8916
33.8617
33.885
33.8649
33.8561
33.8563
33.8824
33.8139
33.8254
33.883
33.8732
33.8823
33.9047
33.907
33.8936
33.9021
33.9016
33.9134
33.8858
33.9274
33.9142
33.8964
33.9361
33.9256
33.9096
33.9121
33.9364
33.9119
33.911
33.9191
33.9134
33.9488
33.926
33.9191
33.9731
33.9669
33.9746
33.959
33.9633
33.9188
33.935
33.9027
33.9269
33.8972
33.9307
33.9109
33.9236
33.8986
34.0837
33.9815
34.0196
34.0873
34.0937
33.9787
34.0306
34.0469
33.9362
33.9332
33.9539
33.9535
33.954
33.944
33.9452
33.9612
33.9538
33.9452
33.96
33.9517
33.9907
33.8823
33.903
33.9347
33.9015
33.9143
33.9753
33.9152
33.9353
33.9317
33.9321
33.9677
33.9607
33.9588
33.9322
33.9569
33.8597
33.8816
33.8783
33.7704
33.7796
33.8315
33.8768
33.7764
33.7332
33.9316
33.9171
33.9248
33.9552
33.9543
33.9425
33.9477
33.9297
33.9481
33.9191
33.9475
33.94
33.9531
33.9714
33.9612
33.9183
33.9232
33.9473
33.9314
33.9372
33.9412
33.9335
33.9659
33.9625
33.9572
33.9514
33.9597
33.9458
33.9443
33.9525
33.9505
33.9687
33.9315
33.9315
33.9056
33.9503
33.9566
33.9366
33.9216
34.0458
33.9687
34.0115
33.9952
33.9786
33.969
33.9892
33.9782
33.9374
33.9454
33.9406
33.9405
33.9479
33.9368
33.9378
33.9573
33.9491
33.9465
33.9528
33.9479
33.9865
33.9345
33.978
34.0091
33.9384
33.9564
34.0285
33.9623
33.9773
33.9866
33.9814
34.0144
34.0055
33.9982
33.9787
33.9959
33.9423
34.0292
33.8777
33.8532
33.757
33.9336
33.9076
33.9601
33.8381
33.9764
33.968
33.9712
33.9978
33.9945
33.9914
33.9927
33.9684
33.9867
34.0001
33.9867
33.987
34.0563
34.036
34.0305
33.9463
33.9531
33.9756
33.9587
33.9672
33.9979
33.9946
34.0796
34.0373
34.0312
33.9445
33.9484
33.9421
33.949
33.9498
33.9869
34.0139
33.9752
33.9504
33.9416
33.9501
33.9898
33.9645
33.9533
33.9217
33.9609
33.9648
33.8704
33.8765
33.9496
33.9363
33.9226
33.9555
33.9638
33.939
33.9406
33.9582
33.9475
33.9479
33.9484
33.9516
33.9622
33.9433
33.9573
33.9614
34.0022
33.9697
34.0363
33.9778
33.9952
34.0302
33.9783
33.9989
34.0159
34.0073
34.0247
34.0171
34.0068
34.0059
34.0081
34.114
34.1505
33.9353
34.0485
33.9488
34.0228
33.9413
34.0802
34.0314
34.0069
34.0101
34.0093
34.0163
34.0124
34.0253
34.0203
34.002
34.0129
34.1328
34.1001
34.1002
34.1849
34.1521
34.1396
33.9736
33.9808
34.0009
33.9849
33.992
34.057
34.0587
34.0586
34.0429
34.0674
33.9574
33.9571
33.9588
33.9651
33.9609
34.0241
34.0387
33.9978
33.9758
33.9563
34.003
34.0027
33.9886
33.947
33.8574
33.9289
33.922
33.8597
33.8535
33.9071
33.907
33.9092
33.9692
33.9718
33.9514
33.9514
33.975
33.9581
33.9587
33.9365
33.9596
33.9691
33.9335
33.9622