/*--------------------------------*- C++ -*----------------------------------*\
| =========                 |                                                 |
| \\      /  F ield         | OpenFOAM: The Open Source CFD Toolbox           |
|  \\    /   O peration     | Version:  5.x                                   |
|   \\  /    A nd           | Web:      www.OpenFOAM.org                      |
|    \\/     M anipulation  |                                                 |
\*---------------------------------------------------------------------------*/
FoamFile
{
    version     2.0;
    format      ascii;
    class       volVectorField;
    location    "1.55";
    object      U;
}
// * * * * * * * * * * * * * * * * * * * * * * * * * * * * * * * * * * * * * //

dimensions      [0 1 -1 0 0 0 0];

internalField   nonuniform List<vector> 
10571
(
(-0.0664475 0.294307 0.512969)
(-0.0773107 0.298501 2.19697)
(0.375119 0.57105 2.57842)
(0.33259 2.10385 4.2555)
(0.0537781 0.711802 2.08073)
(0.679384 0.802431 3.19662)
(1.57761 1.3043 3.37128)
(-0.607869 1.27747 3.87609)
(0.796376 -0.251766 3.33684)
(-0.328886 -0.731335 2.37159)
(0.388398 -0.148554 0.914713)
(2.45909 0.681908 3.4137)
(1.37958 0.498818 3.20951)
(-0.585057 0.196284 4.49869)
(-0.114442 -0.162311 1.48215)
(-0.357872 -0.0727472 1.33)
(0.244173 -0.25203 1.18551)
(0.431027 -0.302085 4.45635)
(-0.81084 -0.687399 4.19727)
(-0.439226 -0.411168 1.83055)
(-0.120086 -0.100354 0.80787)
(-0.242389 -0.326292 1.45413)
(-0.281928 -0.299137 1.30151)
(-0.0121002 -0.0884189 0.695088)
(0.280461 -0.0960137 0.955841)
(-0.137891 0.107781 0.747019)
(0.277563 -0.219507 0.896482)
(-0.256283 -0.488521 3.61237)
(0.110294 0.0153882 0.676435)
(0.582752 0.192087 1.12097)
(1.30372 0.740886 3.47689)
(0.506882 0.821133 3.46839)
(-0.0979523 1.50447 4.05922)
(-0.731893 1.33156 2.32423)
(0.0698601 0.0898299 0.325719)
(0.442758 0.515658 1.72772)
(1.35706 1.44009 4.43541)
(0.305682 0.833603 4.7395)
(0.280772 1.07371 2.50002)
(0.465987 1.21512 1.93463)
(0.256855 0.356505 1.01555)
(1.21297 1.57333 5.09497)
(0.185262 0.513161 4.70137)
(-0.163014 1.60163 3.71944)
(0.0719128 0.533497 1.56178)
(0.47604 0.0789324 1.79608)
(0.151525 -0.255959 2.35241)
(0.188245 0.0708452 1.45322)
(0.791855 0.0855973 1.75025)
(0.272844 -0.100316 0.748362)
(0.412791 -0.245379 0.918113)
(0.530724 0.0386164 3.7173)
(-0.259592 -0.0550314 0.540375)
(0.501817 0.195763 0.890705)
(1.36226 0.6572 3.63593)
(0.964636 0.764595 4.2255)
(0.565377 1.04622 3.12112)
(0.105586 0.432293 0.658492)
(0.0396875 0.108978 0.306729)
(0.265238 1.13561 1.88091)
(1.46567 1.66508 4.70845)
(1.68678 1.99147 5.16023)
(0.329154 1.0798 1.99151)
(0.514917 0.787386 2.22783)
(0.119186 0.486198 0.683631)
(1.16154 2.06266 5.22778)
(0.82856 1.20662 3.88542)
(0.238996 1.0414 2.4585)
(-0.181669 1.29049 2.8479)
(0.657772 0.664708 1.78614)
(0.866848 0.122168 1.95339)
(-0.301019 0.104635 2.05694)
(0.217938 0.0567456 1.05259)
(0.075996 -0.0759352 0.455142)
(0.346387 -0.0254114 1.04516)
(0.334258 0.200322 4.74732)
(0.203266 -0.150721 1.04178)
(-0.0697421 0.116963 0.547528)
(-0.134301 0.0233891 1.33869)
(0.544133 0.340206 2.32332)
(0.293377 0.30029 1.38024)
(0.461766 -0.170309 1.17595)
(0.056711 0.0975982 0.334914)
(-0.169706 -0.0168072 0.547615)
(0.00376267 0.805049 2.36144)
(1.39176 1.78398 4.38523)
(0.361614 0.95742 2.40118)
(0.299719 0.61122 2.76455)
(-0.162832 -0.193771 0.890644)
(0.491337 1.23937 3.7013)
(0.718203 1.25078 3.85736)
(0.570223 0.77882 3.29941)
(-0.13169 1.3929 4.02389)
(0.286124 0.165929 1.24525)
(1.17647 0.565677 3.74611)
(0.108874 0.0519209 3.39874)
(-0.110268 -0.00166942 0.379175)
(-0.0456314 0.0538291 0.209015)
(0.114862 0.312803 1.14158)
(-0.538512 -0.187974 6.06894)
(0.301633 -0.131386 0.58847)
(0.177799 0.347463 0.826633)
(-0.218981 0.163328 1.34649)
(0.045114 0.286454 1.82728)
(-0.0173611 0.200239 1.8568)
(0.19582 -0.987158 1.82597)
(0.0219462 0.109019 0.13903)
(-0.0661384 -0.131574 1.19818)
(-0.343506 0.382937 2.64691)
(0.381886 0.728107 3.20641)
(-0.138136 0.350498 2.95832)
(-0.546051 0.145998 1.48549)
(-0.160719 -0.337993 0.856212)
(0.286387 0.826456 4.38636)
(0.41364 1.2556 4.63741)
(0.649637 0.470544 4.33158)
(-0.365896 1.68589 4.968)
(-0.192343 0.347389 2.48646)
(0.428048 0.655682 4.66799)
(0.281552 0.0488012 4.55837)
(-0.0423734 -0.0147515 0.137487)
(-0.278778 0.184109 0.197195)
(-0.637578 -0.0124125 1.30969)
(-0.37642 -0.121628 5.98242)
(0.245606 0.0830191 0.9693)
(0.0694786 0.108794 0.736962)
(0.182069 0.534672 1.29427)
(-0.0613307 0.373666 2.2393)
(-0.441672 0.0698293 1.75966)
(-0.374283 -0.298129 1.27414)
(-0.00731317 -0.0014195 -0.000775107)
(0.00668009 -0.0729488 0.285053)
(-0.149943 -0.124586 1.5762)
(-0.0674291 0.255156 2.08418)
(0.178776 0.451013 3.6426)
(-0.495125 -0.174973 3.00903)
(-1.09849 0.0693166 0.721163)
(0.043607 0.00370233 0.00836335)
(0.0392133 0.193568 0.7406)
(0.261406 0.619478 4.10771)
(0.094855 0.793879 4.96526)
(0.422579 0.198046 4.84388)
(-0.209269 1.35674 5.27598)
(-0.366774 0.184872 2.50801)
(0.000163792 0.567314 5.29201)
(0.259471 0.0203322 5.32512)
(-0.0559926 -0.203005 0.676145)
(-0.107972 0.140413 -0.00221505)
(-0.551493 0.0717169 1.02097)
(0.036669 0.103783 4.33118)
(-0.0648611 0.0627727 1.23572)
(0.0476156 0.133549 0.903747)
(0.0705318 0.270935 0.85638)
(-0.00270739 0.282579 1.79218)
(-0.308456 0.0534376 1.58778)
(-0.140877 0.103357 0.826891)
(-0.0868418 -0.0102933 -0.0294723)
(-0.0294931 -0.0544094 0.260888)
(-0.108502 -0.176301 1.54674)
(-0.122075 0.199472 1.59918)
(0.122952 0.391831 3.35978)
(-0.554629 -0.35445 2.78089)
(-0.32071 0.257384 0.277055)
(-0.0508836 0.0282264 -0.0636811)
(-0.0291299 0.139115 0.798994)
(0.223528 0.535394 3.93289)
(0.00580051 0.611676 4.80263)
(0.280705 0.050594 5.07578)
(0.0523555 0.942763 4.83383)
(-0.124248 -0.0413717 -0.110336)
(-0.453291 0.0785489 2.95294)
(-0.12773 0.427811 5.44812)
(0.242412 -0.000803393 5.68631)
(0.0214407 -0.0233508 1.12261)
(0.0298681 -0.0256483 -0.0651926)
(-0.0651015 0.0929694 0.790834)
(0.0504373 0.0814268 3.2721)
(0.0797404 0.109093 1.70182)
(-0.0263176 -0.0738529 1.12673)
(0.0657307 0.163011 0.986389)
(0.0407431 0.208145 1.82309)
(-0.0321532 -0.000559504 1.65801)
(0.175401 0.405467 0.869673)
(-0.037582 0.0496927 -0.151016)
(-0.012641 -0.053156 0.30513)
(-0.167118 -0.228518 1.47437)
(-0.179797 0.072721 1.53152)
(0.0625511 0.244896 3.04018)
(-0.373642 -0.46755 2.71741)
(0.0113879 0.571709 0.20251)
(-0.0344046 0.209565 -0.173069)
(-0.0487468 0.10803 0.951734)
(0.135965 0.391496 3.72308)
(-0.00881581 0.564442 4.73551)
(0.231415 -0.0371314 5.14092)
(0.144765 0.661767 4.20821)
(0.34274 -0.0894223 0.157684)
(-0.492581 0.0970383 3.28205)
(-0.169084 0.361503 5.51871)
(0.253788 -0.0121008 5.79454)
(-0.0819767 -0.0241754 0.868635)
(0.125137 -0.128635 0.00262993)
(0.127893 7.94638e-05 0.65561)
(0.0586133 0.0913674 2.66788)
(0.193242 0.0804701 1.98657)
(-0.03039 -0.225106 1.22258)
(0.118742 0.127016 0.975181)
(0.0369622 0.143301 1.94168)
(0.0668438 0.0092543 1.73867)
(0.350833 0.506762 1.07674)
(0.333198 0.173435 -0.00653348)
(-0.0235382 -0.0433365 0.478306)
(-0.215696 -0.157796 1.29811)
(-0.181292 0.0722954 1.61245)
(0.0184459 0.120273 3.07973)
(-0.293518 -0.598245 2.69074)
(0.0795592 0.381786 0.267198)
(0.236258 -0.0545299 -0.0508561)
(-0.146288 -0.0148896 1.15041)
(0.0739839 0.290379 3.77863)
(-0.0469764 0.509873 4.67792)
(0.194039 -0.0893039 5.17993)
(0.0675765 0.342408 4.01346)
(-0.458634 0.0810451 3.46226)
(-0.22139 0.339628 5.56293)
(0.28552 -0.0206687 5.84218)
(0.0527885 -0.00522368 0.714529)
(0.128338 -0.151733 0.0112684)
(0.101875 -0.078759 0.65091)
(-0.00366806 0.067593 2.50876)
(0.234974 0.0742832 2.12976)
(0.0122058 -0.197921 1.19586)
(0.167063 0.156141 1.02636)
(-0.00242094 0.147843 1.95736)
(0.0537207 0.0268641 1.72589)
(0.340301 0.509886 0.950308)
(-0.0179946 -0.0386262 0.526865)
(-0.150429 -0.0933285 1.08415)
(-0.128687 0.0413562 1.68497)
(0.000972802 0.0685698 3.03825)
(-0.284381 -0.578766 2.63136)
(0.0377064 0.569596 0.505867)
(-0.199281 -0.0849394 1.38688)
(0.0569111 0.202235 3.82357)
(-0.0930064 0.470142 4.63673)
(0.178292 -0.117984 5.22034)
(0.155261 0.301493 3.99195)
(-0.450895 0.0325266 3.64195)
(-0.251865 0.32175 5.59795)
(0.29317 -0.0237324 5.8784)
(0.128762 -0.0171905 0.626816)
(0.148842 -0.186175 0.0647531)
(0.0589364 -0.078024 0.739665)
(-0.041934 0.00490393 2.42242)
(0.177143 0.0379996 2.17327)
(0.0629401 -0.136326 1.12808)
(0.192398 0.131629 1.01726)
(-0.0367002 0.164333 1.93486)
(-0.000910566 0.0860148 1.73468)
(0.253225 0.506577 0.903)
(-0.0221745 -0.0332663 0.612498)
(-0.044148 -0.0995751 0.935905)
(-0.0965405 -0.00686385 1.69931)
(0.008736 0.0590794 2.96798)
(-0.282188 -0.555902 2.59228)
(0.0539974 0.601701 0.704083)
(-0.250243 -0.140692 1.58349)
(0.0427096 0.135932 3.84905)
(-0.137755 0.446825 4.5883)
(0.161875 -0.138794 5.22801)
(0.0828098 0.210478 3.61974)
(-0.447659 -0.0352988 3.78548)
(-0.270502 0.311629 5.61828)
(0.294824 -0.0231885 5.89778)
(0.139131 -0.0334534 0.691205)
(0.132809 -0.189826 0.140808)
(0.02683 -0.0357053 0.82194)
(0.00815218 -0.0765258 2.44834)
(0.107575 0.0284844 2.07472)
(0.0900429 -0.0957495 0.98068)
(0.186287 0.0176045 1.02206)
(-0.0368206 0.179793 1.9144)
(-0.0280878 0.158509 1.80305)
(0.235153 0.450654 0.817792)
(-0.0334622 -0.0280036 0.699815)
(0.0634778 -0.101309 0.832317)
(-0.106726 -0.057514 1.75661)
(0.0200703 0.0853357 2.87842)
(-0.262971 -0.522683 2.60008)
(0.0541794 0.547028 0.88773)
(-0.220381 -0.201747 1.69239)
(0.0122537 0.0832942 3.87648)
(-0.168166 0.432681 4.49374)
(0.129859 -0.147223 5.21951)
(0.0114459 0.0901083 3.404)
(-0.433034 -0.0901001 3.86519)
(-0.283635 0.297025 5.60422)
(0.293215 -0.0183142 5.88386)
(0.0791248 -0.0319639 0.821135)
(0.0967084 -0.0961225 0.188802)
(-0.0709376 -0.0103889 0.862637)
(0.0185903 -0.0965502 2.46818)
(0.0399217 0.0568781 1.94333)
(0.0909848 -0.0488513 0.894051)
(0.148075 -0.086174 1.07731)
(-0.00161064 0.191864 1.88851)
(0.0102335 0.246145 1.83457)
(0.334231 0.339971 0.881955)
(-0.0297677 -0.0238797 0.783427)
(0.143638 -0.125673 0.825972)
(-0.105286 -0.108165 1.79147)
(0.0640558 0.104651 2.82221)
(-0.27117 -0.498647 2.6498)
(0.0911774 0.439493 1.02682)
(-0.198824 -0.222144 1.74986)
(-0.00711684 0.0406572 3.84707)
(-0.174397 0.425725 4.36359)
(0.108496 -0.155297 5.21924)
(0.010913 0.0545386 3.12832)
(-0.433752 -0.123624 3.9472)
(-0.285821 0.293309 5.56399)
(0.292173 -0.0171689 5.85589)
(-0.0222536 -0.0161834 0.873238)
(-0.0299425 0.0472215 0.223818)
(-0.13935 0.00256612 0.858812)
(0.0923007 -0.0941284 2.47751)
(0.0681887 0.0882314 1.68665)
(0.0787776 0.000105072 0.906118)
(0.103164 -0.127939 1.15622)
(0.0512155 0.158262 1.84843)
(0.0790006 0.322325 1.85659)
(0.393254 0.238483 1.0242)
(-0.0234443 -0.0413395 0.792674)
(0.147132 -0.139544 0.823609)
(-0.0770394 -0.166829 1.7832)
(0.171722 0.110298 2.79867)
(-0.257241 -0.489079 2.74314)
(0.127009 0.432 1.13554)
(-0.198218 -0.237131 1.81064)
(-0.024077 -0.00598585 3.85008)
(-0.164666 0.390212 4.26341)
(0.117863 -0.168136 5.219)
(-0.00189995 0.0257386 2.88116)
(-0.439076 -0.132103 4.04603)
(-0.275421 0.293782 5.51929)
(0.29605 -0.0207634 5.82395)
(-0.143143 -0.0414124 0.913294)
(-0.10156 0.118354 0.25446)
(-0.0795546 0.0220152 0.876604)
(0.227077 -0.0651038 2.41572)
(0.188218 0.107291 1.24821)
(0.0615006 0.0639162 0.91057)
(0.0643906 -0.12239 1.21443)
(0.0822783 0.103135 1.80109)
(0.155646 0.315019 1.90175)
(0.375384 0.114593 1.14513)
(-0.016923 -0.0431927 0.756496)
(0.138999 -0.158803 0.878818)
(-0.011696 -0.225739 1.73218)
(0.272461 0.126522 2.76458)
(-0.146085 -0.467069 2.82077)
(0.151089 0.442978 1.26222)
(-0.199746 -0.230673 1.80464)
(-0.032324 -0.0294497 3.81879)
(-0.131393 0.327639 4.13172)
(0.151828 -0.181575 5.20449)
(0.0470002 0.0314781 2.81296)
(-0.431089 -0.129911 4.13886)
(-0.254281 0.2872 5.46684)
(0.298837 -0.0250253 5.78184)
(-0.24967 -0.070462 1.00124)
(-0.128048 0.136335 0.28446)
(-0.0384152 0.0610044 0.922476)
(0.173591 -0.0378896 2.41492)
(0.139187 0.0692881 0.87886)
(0.0347392 0.123993 0.831166)
(0.0495179 -0.074375 1.24512)
(0.113379 0.0509797 1.74731)
(0.230877 0.237815 1.95196)
(0.323719 0.000120134 1.22864)
(-0.00694675 -0.00247082 0.756322)
(0.101054 -0.159961 0.953102)
(0.0646305 -0.248563 1.66916)
(0.316238 0.117143 2.74003)
(-0.00494162 -0.395359 2.88381)
(0.189047 0.345945 1.47342)
(-0.221439 -0.239748 1.84892)
(0.00669144 -0.0300912 3.77368)
(-0.0963185 0.301315 3.98317)
(0.201951 -0.188486 5.17649)
(0.12648 0.0432315 2.89757)
(-0.417153 -0.125671 4.22611)
(-0.227462 0.274264 5.38935)
(0.300547 -0.0315762 5.72294)
(-0.315988 -0.0608396 1.03263)
(-0.143892 0.148903 0.339145)
(-0.130205 0.0994759 0.976795)
(-0.0755255 0.031105 2.42184)
(-0.0622514 -0.0216849 0.721493)
(0.0204405 0.147839 0.770751)
(0.0643845 -0.0102363 1.27653)
(0.16618 0.000166679 1.71754)
(0.284448 0.164301 1.99424)
(0.267182 -0.0826645 1.29669)
(-0.00984284 0.0162304 0.76126)
(0.0820316 -0.177151 1.03922)
(0.106612 -0.239526 1.61991)
(0.350407 0.106439 2.67747)
(0.102707 -0.345293 2.96039)
(0.23098 0.173752 1.77983)
(-0.222798 -0.247003 1.86729)
(0.11134 -0.0624892 3.68045)
(-0.0787657 0.260433 3.88154)
(0.235986 -0.188833 5.13635)
(0.193722 0.0437095 3.11577)
(-0.400157 -0.117379 4.29884)
(-0.203452 0.26129 5.3063)
(0.301394 -0.0344693 5.67138)
(-0.325026 -0.0512317 1.00226)
(-0.154214 0.155535 0.419552)
(-0.233762 0.130383 1.03442)
(-0.231666 0.0963786 2.08422)
(-0.237222 -0.120135 0.726956)
(0.0259607 0.15079 0.768782)
(0.100684 0.0386124 1.32311)
(0.229904 -0.0406888 1.71108)
(0.298866 0.127054 2.03286)
(0.203359 -0.156145 1.36702)
(-0.00926611 0.0145603 0.796108)
(0.0727923 -0.184083 1.11232)
(0.119019 -0.227486 1.59451)
(0.372255 0.088144 2.57729)
(0.196712 -0.340334 3.04537)
(0.258609 0.014708 2.10541)
(-0.204704 -0.247911 1.85987)
(0.111187 -0.0890744 3.56458)
(-0.0711231 0.145759 3.76487)
(0.252375 -0.185361 5.07747)
(0.224487 0.0203844 3.41255)
(-0.367697 -0.10467 4.33641)
(-0.169989 0.231263 5.23435)
(0.292396 -0.0321053 5.61742)
(-0.32561 -0.0505859 0.96728)
(-0.146157 0.151342 0.49754)
(-0.231053 0.147644 1.06363)
(-0.166508 0.0641474 1.63305)
(-0.32095 -0.184646 0.762871)
(0.0380546 0.146187 0.831958)
(0.148053 0.0521156 1.36786)
(0.27965 -0.0757364 1.70301)
(0.263588 0.106893 2.07052)
(0.113392 -0.238434 1.42575)
(-0.0231968 -0.0228875 0.855902)
(0.0602977 -0.201618 1.17004)
(0.128266 -0.23077 1.58183)
(0.356271 0.113148 2.47688)
(0.258073 -0.35054 3.11968)
(0.271999 -0.106003 2.40067)
(-0.183242 -0.259899 1.82721)
(0.0535328 -0.0582288 3.42692)
(-0.053289 0.0649857 3.58355)
(0.265567 -0.193552 4.98955)
(0.231869 -0.00488722 3.71563)
(-0.339638 -0.0966053 4.32529)
(-0.143079 0.204155 5.1428)
(0.271848 -0.0311519 5.55456)
(-0.350252 -0.062093 0.957502)
(-0.123948 0.133079 0.57239)
(-0.17946 0.159636 1.06015)
(-0.17442 -0.0102769 1.35621)
(-0.33969 -0.225759 0.798138)
(0.044322 0.116768 0.941857)
(0.184384 0.0267601 1.39987)
(0.290794 -0.103165 1.68846)
(0.156415 0.0530386 2.1201)
(0.00680997 -0.324055 1.43937)
(-0.0388789 -0.0914923 0.952541)
(0.0509441 -0.238891 1.2197)
(0.131817 -0.248713 1.57307)
(0.302757 0.171569 2.3758)
(0.267979 -0.332956 3.20513)
(0.276072 -0.181093 2.65687)
(-0.174636 -0.294354 1.73726)
(0.0563445 -0.0331811 3.29694)
(-0.0293641 0.0619842 3.41784)
(0.276096 -0.209723 4.87746)
(0.235288 -0.038884 4.02102)
(-0.32316 -0.0936083 4.29417)
(-0.112754 0.176409 5.03679)
(0.272214 -0.0255771 5.49477)
(-0.37419 -0.0739479 0.984703)
(-0.100055 0.111552 0.654953)
(-0.144751 0.163574 1.06808)
(-0.189176 -0.0808849 1.26985)
(-0.334162 -0.257223 0.83468)
(0.0445182 0.0566706 1.09879)
(0.191041 -0.0300514 1.43474)
(0.262196 -0.137055 1.67011)
(0.0305998 -0.0455521 2.16723)
(-0.0535059 -0.362415 1.42434)
(-0.0434628 -0.155775 1.0723)
(0.0200124 -0.326466 1.29151)
(0.11764 -0.311608 1.57731)
(0.223083 0.159594 2.27161)
(0.251199 -0.313747 3.28686)
(0.249254 -0.210248 2.83079)
(-0.239517 -0.377203 1.57125)
(0.0855747 -0.114399 3.19139)
(-0.0382419 0.0162802 3.30125)
(0.275393 -0.219263 4.75618)
(0.244722 -0.0795808 4.32143)
(-0.29005 -0.121942 4.22363)
(-0.0877226 0.135973 4.97758)
(0.26672 -0.0199421 5.43126)
(-0.392493 -0.0830271 1.0518)
(-0.0821919 0.100208 0.752707)
(-0.135429 0.155452 1.11377)
(-0.20904 -0.135517 1.29062)
(-0.33189 -0.301252 0.886575)
(0.0411458 0.00440261 1.27344)
(0.17632 -0.100829 1.49155)
(0.217335 -0.185125 1.67837)
(-0.0301422 -0.149387 2.20583)
(-0.0642529 -0.374618 1.38764)
(-0.0419677 -0.19629 1.20468)
(-0.0270861 -0.408546 1.37305)
(0.0843411 -0.434443 1.61088)
(0.145973 0.00648671 2.17837)
(0.239595 -0.342831 3.33111)
(0.189197 -0.216199 2.92404)
(-0.30032 -0.455968 1.41784)
(0.0781825 -0.393138 3.01041)
(-0.063987 -0.180647 3.2245)
(0.251749 -0.236103 4.61903)
(0.240023 -0.126002 4.5809)
(-0.255509 -0.092775 4.0694)
(-0.050192 0.0890136 4.88605)
(0.257193 -0.0276473 5.3602)
(-0.409686 -0.0866311 1.14514)
(-0.070366 0.0977208 0.863387)
(-0.143603 0.146604 1.19279)
(-0.229335 -0.173346 1.36491)
(-0.336644 -0.349623 0.962937)
(0.0331816 -0.0367556 1.45065)
(0.156486 -0.159631 1.57366)
(0.16398 -0.22336 1.73754)
(-0.0319782 -0.241131 2.24289)
(-0.0495745 -0.396613 1.35065)
(-0.0441534 -0.223365 1.3488)
(-0.0434091 -0.426018 1.47076)
(0.0496447 -0.507366 1.68009)
(0.109343 -0.204393 2.14816)
(0.249391 -0.449047 3.35493)
(0.138995 -0.244366 2.99356)
(-0.291434 -0.467004 1.35954)
(0.0634582 -0.719863 2.71199)
(0.0262847 -0.5879 3.06368)
(0.235609 -0.297102 4.42836)
(0.233892 -0.168541 4.75273)
(-0.27749 -0.207329 3.6157)
(0.116384 -0.0850833 4.73971)
(0.253083 -0.0526919 5.21923)
(-0.425758 -0.0890997 1.25435)
(-0.065937 0.0987652 0.989012)
(-0.156693 0.145456 1.29576)
(-0.248381 -0.195792 1.46396)
(-0.340181 -0.394238 1.06761)
(0.0248536 -0.0670042 1.61143)
(0.136578 -0.180848 1.671)
(0.0953563 -0.218971 1.82775)
(-0.023058 -0.318741 2.27291)
(-0.0378917 -0.43651 1.34103)
(-0.0430846 -0.245565 1.486)
(-0.0434022 -0.387382 1.58163)
(0.0161433 -0.481898 1.77797)
(0.100216 -0.306366 2.20245)
(0.263816 -0.549463 3.39022)
(0.116951 -0.327498 3.09032)
(-0.269126 -0.39635 1.35896)
(0.0381082 -0.756291 2.39509)
(0.229208 -0.768894 2.88108)
(0.231409 -0.414332 4.19395)
(0.221442 -0.200844 4.84792)
(-0.542335 -0.363017 2.56157)
(0.317818 -0.334912 4.4207)
(0.259351 -0.0703234 5.02838)
(-0.43785 -0.0913191 1.37822)
(-0.0674224 0.100786 1.12943)
(-0.167814 0.14949 1.4128)
(-0.258908 -0.21536 1.56972)
(-0.344354 -0.430762 1.20248)
(0.0219354 -0.0822944 1.75275)
(0.11359 -0.165426 1.77177)
(0.011003 -0.182338 1.90847)
(-0.0418001 -0.394431 2.27894)
(-0.0610702 -0.512058 1.35157)
(-0.0380324 -0.268616 1.60239)
(-0.0264667 -0.336069 1.67377)
(-0.0176935 -0.374396 1.83346)
(0.0843818 -0.28392 2.26156)
(0.262878 -0.556989 3.42498)
(0.1034 -0.39925 3.17916)
(-0.265907 -0.326066 1.36966)
(-0.0679699 -0.491961 2.09147)
(0.343627 -0.647661 2.74698)
(0.321723 -0.569079 3.95126)
(0.225069 -0.252548 4.88368)
(-0.381493 -0.0979421 1.72245)
(0.570771 -0.667616 4.05721)
(0.326007 -0.142281 4.934)
(-0.445414 -0.0935068 1.52108)
(-0.0726876 0.101216 1.27831)
(-0.177545 0.153315 1.53598)
(-0.26443 -0.238716 1.68286)
(-0.341112 -0.447567 1.36348)
(0.0222496 -0.0967382 1.88753)
(0.0778478 -0.142615 1.87165)
(-0.085465 -0.178464 1.94364)
(-0.102512 -0.499264 2.25119)
(-0.129391 -0.593323 1.35715)
(-0.0376139 -0.277443 1.72346)
(-0.0491705 -0.308771 1.75069)
(-0.091882 -0.291767 1.83747)
(-0.0286885 -0.150356 2.29121)
(0.23883 -0.478612 3.46195)
(0.0764082 -0.379152 3.22304)
(-0.330978 -0.265712 1.3879)
(-0.209269 -0.18701 1.74505)
(0.223707 -0.255792 2.6265)
(0.34358 -0.556263 3.86952)
(0.205158 -0.262221 4.93309)
(-0.17533 0.0473968 1.28764)
(0.478068 -0.577162 3.36974)
(0.394661 -0.174989 4.9369)
(-0.4497 -0.0935141 1.68619)
(-0.075995 0.0937042 1.43764)
(-0.188328 0.15426 1.66296)
(-0.274319 -0.265372 1.8037)
(-0.3294 -0.461605 1.5371)
(0.0177506 -0.120561 2.03601)
(0.0139248 -0.146604 1.9758)
(-0.194647 -0.27299 1.93173)
(-0.194673 -0.633077 2.16745)
(-0.170215 -0.640504 1.37537)
(-0.0372647 -0.268836 1.87128)
(-0.110497 -0.291497 1.83368)
(-0.26971 -0.269461 1.79903)
(-0.291121 -0.0874692 2.16565)
(0.110783 -0.28476 3.39216)
(-0.0440774 -0.203997 3.18709)
(-0.381632 -0.225799 1.43027)
(-0.31355 -0.0502669 1.45512)
(-0.211258 0.0316364 2.44823)
(0.27473 -0.463746 3.87558)
(0.178418 -0.239153 4.94466)
(-0.141572 0.0578918 1.03792)
(0.34786 -0.162487 2.98675)
(0.444974 -0.212956 4.90384)
(-0.454269 -0.0905284 1.87196)
(-0.0713293 0.0794798 1.60986)
(-0.20135 0.154493 1.79785)
(-0.295891 -0.303135 1.94342)
(-0.327742 -0.498244 1.7241)
(0.00202439 -0.149405 2.2047)
(-0.0681451 -0.17685 2.09939)
(-0.309562 -0.434809 1.92898)
(-0.300506 -0.752289 2.03711)
(-0.188028 -0.652051 1.45219)
(-0.0351451 -0.255621 2.04642)
(-0.191798 -0.281471 1.95886)
(-0.45827 -0.313841 1.77682)
(-0.567345 -0.230655 1.95338)
(-0.0895771 -0.290018 3.1841)
(-0.117911 -0.303728 2.71959)
(-0.39154 -0.215885 1.51909)
(-0.388592 -0.0885593 1.27961)
(-0.655375 -0.14663 2.11558)
(0.0992499 -0.375066 3.8694)
(0.126535 -0.192588 4.9019)
(-0.240475 -0.00213129 0.93218)
(0.266301 0.26232 2.99266)
(0.372835 -0.220289 4.83477)
(-0.444024 -0.0842184 2.07503)
(-0.0559246 0.0651733 1.77871)
(-0.210455 0.161512 1.9363)
(-0.314844 -0.32447 2.12151)
(-0.340362 -0.519273 1.92755)
(-0.0164707 -0.171198 2.38646)
(-0.125009 -0.188493 2.26788)
(-0.391094 -0.560085 2.00209)
(-0.384115 -0.821513 1.94016)
(-0.2195 -0.555836 1.51182)
(-0.0296555 -0.221691 2.23534)
(-0.243828 -0.263893 2.13433)
(-0.561922 -0.384388 1.81654)
(-0.740332 -0.49256 1.79897)
(-0.419991 -0.698495 2.70175)
(-0.111914 -0.706485 1.946)
(-0.378552 -0.20379 1.68696)
(-0.460641 -0.202698 1.21257)
(-0.942631 -0.496815 1.72856)
(-0.0865768 -0.261993 3.78664)
(0.0782715 -0.254858 4.79258)
(-0.462014 -0.0972337 0.929739)
(-0.0382876 0.223634 2.99443)
(0.212671 -0.069738 4.55751)
(-0.400956 -0.0720468 2.26769)
(-0.0351731 0.0545487 1.91129)
(-0.203668 0.179486 2.06263)
(-0.30579 -0.283684 2.32871)
(-0.322802 -0.458719 2.15611)
(-0.0267208 -0.173796 2.56901)
(-0.124912 -0.141395 2.47956)
(-0.405266 -0.561656 2.13458)
(-0.419983 -0.825082 1.92255)
(-0.211952 -0.444288 1.54735)
(-0.0055423 -0.15108 2.35031)
(-0.219661 -0.229605 2.34043)
(-0.555415 -0.399289 1.89774)
(-0.778362 -0.681422 1.78384)
(-0.657268 -1.01856 2.18696)
(-0.113686 -0.962799 1.56443)
(-0.340303 -0.156274 1.90826)
(-0.496924 -0.276967 1.23127)
(-1.02021 -0.676257 1.49021)
(-0.637895 -0.433462 3.3827)
(0.216169 -0.231537 4.32771)
(-0.628103 -0.154699 1.08321)
(-1.14089 -0.175839 2.39378)
(-0.266987 -0.0903581 3.66642)
(-0.321087 -0.0504162 2.41273)
(-0.0225473 0.0489968 1.98767)
(-0.178009 0.199005 2.16371)
(-0.268174 -0.176913 2.51779)
(-0.261467 -0.322245 2.35579)
(-0.0292192 -0.154074 2.74103)
(-0.0867291 -0.0508604 2.6885)
(-0.314901 -0.378419 2.34858)
(-0.399343 -0.678568 1.9623)
(-0.20219 -0.286321 1.57013)
(0.0238246 -0.112002 2.27049)
(-0.133963 -0.178646 2.53564)
(-0.392306 -0.317711 2.06994)
(-0.704596 -0.672836 1.86502)
(-0.631207 -0.888064 1.95501)
(-0.109633 -0.735654 1.5182)
(-0.284601 -0.0920253 2.11769)
(-0.400912 -0.259919 1.28101)
(-0.838145 -0.582482 1.4187)
(-1.01006 -0.907945 2.30913)
(0.234982 -0.840688 2.68207)
(-0.497196 -0.0902242 1.32889)
(-0.99875 -0.179994 1.74752)
(-0.610613 0.233004 2.32537)
(-0.242455 -0.018041 2.43271)
(-0.0232877 0.0410483 2.01416)
(-0.142456 0.205086 2.23522)
(-0.227313 -0.0594889 2.65154)
(-0.193934 -0.190537 2.43906)
(-0.0271293 -0.122691 2.88624)
(-0.0469073 0.0381993 2.8432)
(-0.173008 -0.117661 2.56137)
(-0.319131 -0.318894 2.04307)
(-0.173982 -0.149113 1.48646)
(0.0104485 -0.0840896 1.99419)
(-0.0214416 -0.135555 2.67928)
(-0.129627 -0.181665 2.24709)
(-0.410645 -0.470107 2.07894)
(-0.445084 -0.506305 1.82874)
(-0.0642537 -0.30112 1.38495)
(-0.217284 -0.0468097 2.26312)
(-0.222649 -0.199863 1.30161)
(-0.503885 -0.322602 1.40421)
(-0.496757 -0.445463 1.5432)
(0.0746193 -0.430721 1.45089)
(-0.323739 -0.0194693 1.48558)
(-0.422312 -0.0764701 1.43329)
(-0.351664 0.128283 1.55065)
(-0.203741 -0.00117385 2.30986)
(-0.0292987 0.0303469 2.02485)
(-0.102729 0.195008 2.28561)
(-0.195127 0.0220182 2.73415)
(-0.151527 -0.0985236 2.41401)
(-0.0288629 -0.0894692 3.00159)
(-0.0110172 0.10333 2.94702)
(-0.0757223 0.0730264 2.70441)
(-0.238849 -0.110412 2.08164)
(-0.118861 -0.104768 1.3776)
(-0.0276037 -0.0642195 1.81785)
(0.0774888 -0.120098 2.75477)
(0.035876 -0.0972896 2.33947)
(-0.12535 -0.230468 2.26889)
(-0.226532 -0.261759 1.75951)
(-0.00210229 -0.101763 1.22143)
(-0.143083 -0.0233114 2.35436)
(-0.121769 -0.155746 1.29026)
(-0.337041 -0.130593 1.34033)
(-0.210905 -0.129701 1.06962)
(0.0393965 -0.16214 0.955795)
(-0.181151 0.00530025 1.58218)
(-0.187402 -0.0101786 1.22113)
(-0.067071 0.0331559 1.23778)
(-0.201825 -0.00224202 2.16601)
(-0.02411 0.021233 2.03796)
(-0.0673471 0.173507 2.32477)
(-0.175414 0.0735302 2.77163)
(-0.133715 -0.0583322 2.33334)
(-0.0273573 -0.0636313 3.09245)
(0.019765 0.137315 3.01162)
(-0.000606016 0.172418 2.7826)
(-0.164479 -0.0381424 2.10624)
(-0.0623393 -0.1098 1.31451)
(-0.0413903 -0.0415792 1.74047)
(0.13875 -0.122862 2.78784)
(0.128657 -0.0427419 2.40642)
(0.0121691 -0.0629423 2.39181)
(-0.0234148 -0.124599 1.70553)
(0.085408 -0.0530306 1.12182)
(-0.0852616 -0.0134883 2.41845)
(-0.060724 -0.0945773 1.30365)
(-0.234604 0.0321372 1.28751)
(-0.0823331 -0.0501991 0.783569)
(0.02482 -0.0265067 0.799233)
(-0.0879561 -0.0368729 1.6376)
(-0.116945 0.0564697 1.09645)
(0.0612191 -0.00202661 1.1025)
(-0.217327 -0.00520655 2.06978)
(-0.00831403 0.00879603 2.05681)
(-0.0444391 0.146562 2.36319)
(-0.168198 0.0989153 2.77289)
(-0.128342 -0.0594565 2.23967)
(-0.0256019 -0.0489698 3.16191)
(0.0339627 0.140844 3.03464)
(0.07091 0.203713 2.81192)
(-0.13299 -0.0408918 2.11597)
(-0.0103961 -0.132606 1.31514)
(-0.0363113 -0.00389157 1.72876)
(0.143257 -0.13511 2.79001)
(0.178857 -0.0179271 2.4368)
(0.0414179 0.00788686 2.43789)
(0.144189 -0.0525961 1.65298)
(0.177348 -0.0616476 1.08716)
(-0.0395568 -0.0149773 2.46226)
(-0.024196 0.00116258 1.35323)
(-0.132823 0.166459 1.2386)
(0.00510561 -0.0369268 0.649563)
(0.0208788 0.0607352 0.800611)
(-0.0515034 -0.129372 1.63586)
(-0.0951305 0.115924 1.03706)
(0.124106 -0.00176872 1.04983)
(-0.229575 -0.00537188 2.01779)
(0.00647039 -0.00640996 2.09061)
(-0.0335472 0.119295 2.40157)
(-0.161734 0.107043 2.75437)
(-0.124184 -0.0772128 2.1485)
(-0.0323878 -0.0446089 3.21156)
(0.0348798 0.136473 3.03531)
(0.10482 0.200167 2.83189)
(-0.120631 -0.0897775 2.11364)
(0.02312 -0.167808 1.37618)
(-0.0285252 0.0376602 1.76183)
(0.12814 -0.149613 2.78161)
(0.193563 -0.0169346 2.43399)
(0.0307888 0.0102303 2.43157)
(0.280446 -0.0435136 1.55497)
(0.252478 -0.0959253 1.10385)
(-0.0135284 -0.0266051 2.47688)
(-0.022294 0.11506 1.41382)
(-0.0419473 0.247844 1.16706)
(0.0554438 -0.0262829 0.631522)
(0.0189019 0.113814 0.886632)
(-0.0202838 -0.18104 1.61929)
(-0.0773684 0.155322 1.03519)
(0.158522 -0.000214598 1.06823)
(-0.233622 -0.00243794 1.99881)
(0.0177255 -0.0226024 2.1441)
(-0.0297522 0.10167 2.43753)
(-0.147019 0.108462 2.70536)
(-0.123997 -0.0974058 2.08971)
(-0.0399364 -0.0532027 3.24369)
(0.0325285 0.132844 3.02282)
(0.118081 0.174841 2.8598)
(-0.0522487 -0.173887 2.11992)
(0.0172744 -0.191076 1.4845)
(-0.0233566 0.0767528 1.82532)
(0.103424 -0.168914 2.77029)
(0.183341 -0.0301357 2.41)
(0.0270263 -0.0244068 2.35984)
(0.383424 -0.0661158 1.42119)
(0.295383 -0.13035 1.1568)
(-0.0174917 -0.0513107 2.47383)
(-0.0512535 0.223875 1.46561)
(0.0111058 0.262316 1.07638)
(0.0929347 -0.0547459 0.666016)
(0.0131225 0.145797 1.02732)
(0.00842791 -0.198557 1.61311)
(-0.0441804 0.156444 1.09563)
(0.184492 0.0126754 1.14875)
(-0.228685 0.00100117 2.00142)
(0.027108 -0.0392209 2.21485)
(-0.0156339 0.0897192 2.48378)
(-0.125863 0.112016 2.61862)
(-0.131714 -0.10896 2.0705)
(-0.0444255 -0.0693248 3.25982)
(0.050579 0.128349 3.004)
(0.159062 0.122786 2.87712)
(0.0516552 -0.229355 2.14857)
(-0.0100038 -0.170883 1.63644)
(-0.0143209 0.109839 1.90161)
(0.0702187 -0.185608 2.76053)
(0.0689514 -0.0614351 2.3628)
(0.140067 -0.0222838 2.2331)
(0.44802 -0.0704373 1.31453)
(0.317398 -0.144436 1.23567)
(-0.0475852 -0.100325 2.45525)
(-0.0916889 0.303339 1.4975)
(0.0315855 0.215241 0.990958)
(0.110722 -0.143113 0.706868)
(0.00649768 0.164234 1.20117)
(0.0107021 -0.1939 1.61138)
(0.00226497 0.104093 1.18251)
(0.185271 -0.045348 1.23593)
(-0.218502 -0.000239381 2.02568)
(0.0367825 -0.0569243 2.29439)
(0.0139962 0.064662 2.55183)
(-0.117397 0.0902925 2.52176)
(-0.145851 -0.12356 2.07755)
(-0.045646 -0.0856819 3.2671)
(0.110762 0.0881977 2.96054)
(0.198786 -0.00737255 2.87068)
(0.148734 -0.257186 2.19788)
(-0.00895898 -0.110789 1.80898)
(-0.00602651 0.121259 1.97552)
(0.00465129 -0.195671 2.74711)
(-0.283838 -0.0735791 2.20411)
(0.296091 0.0706883 1.95251)
(0.453655 -0.0495405 1.2684)
(0.317668 -0.131686 1.34532)
(-0.0666106 -0.106986 2.4355)
(-0.115096 0.329785 1.49888)
(0.0375088 0.126948 0.936764)
(0.108552 -0.179536 0.752411)
(-0.00670945 0.164469 1.38547)
(-0.0134297 -0.106056 1.63217)
(0.0281178 0.05631 1.27201)
(0.0918444 -0.138567 0.994951)
(-0.198413 -0.00426447 2.06741)
(0.0435426 -0.0720146 2.37567)
(0.0419561 0.0240532 2.63798)
(-0.110685 0.0467116 2.46593)
(-0.168565 -0.159911 2.1188)
(-0.0581173 -0.0954969 3.27616)
(0.114604 -0.0296314 2.88325)
(0.190649 -0.167096 2.82909)
(0.227402 -0.263984 2.22371)
(0.0326274 -0.05595 1.96649)
(-0.00443143 0.109503 2.07185)
(-0.0861341 -0.213887 2.76193)
(-0.385845 -0.0328196 1.95203)
(0.27 0.138762 1.61667)
(0.362738 -0.0188748 1.25237)
(0.265813 -0.0622836 1.53365)
(-0.0666551 -0.0709265 2.43463)
(-0.1163 0.300864 1.4829)
(0.0278583 0.0450076 0.916912)
(0.0842148 -0.164623 0.795903)
(-0.0238435 0.156141 1.52046)
(-0.0494591 0.0329847 1.741)
(0.00436702 0.0395226 1.34665)
(0.0610616 -0.0688538 0.688667)
(-0.170888 -0.00602815 2.11755)
(0.0423093 -0.0772745 2.4611)
(0.0633018 -0.0143937 2.73553)
(-0.0869459 0.00424192 2.49148)
(-0.153536 -0.198007 2.1841)
(-0.085857 -0.101323 3.29594)
(0.0188435 -0.135564 2.81223)
(0.219465 -0.306937 2.71615)
(0.280507 -0.245168 2.19856)
(0.103921 -0.0391101 2.09031)