/*--------------------------------*- C++ -*----------------------------------*\
| =========                 |                                                 |
| \\      /  F ield         | OpenFOAM: The Open Source CFD Toolbox           |
|  \\    /   O peration     | Version:  5.x                                   |
|   \\  /    A nd           | Web:      www.OpenFOAM.org                      |
|    \\/     M anipulation  |                                                 |
\*---------------------------------------------------------------------------*/
FoamFile
{
    version     2.0;
    format      ascii;
    class       volScalarField;
    location    "4.05";
    object      p;
}
// * * * * * * * * * * * * * * * * * * * * * * * * * * * * * * * * * * * * * //

dimensions      [0 2 -2 0 0 0 0];

internalField   nonuniform List<scalar> 
10571
(
52.1686
317.422
209.067
81.7408
47.5372
334.528
295.606
258.899
218.571
95.6188
330.458
332.876
308.538
269.381
242.718
202.784
331.57
320.416
289.515
245.436
195.165
322.684
303.015
270.633
14.7249
163.394
43.167
14.026
17.1879
247.637
38.0884
20.1482
18.2124
13.7565
306.87
286.176
124.781
32.2478
20.1747
17.417
278.382
157.147
57.3815
29.9413
16.4649
218.095
164.616
114.441
17.3788
57.9377
15.3986
17.5556
17.151
82.3233
13.9794
13.9782
15.4451
16.67
174.4
140.212
20.0336
13.4942
15.5428
16.3728
146.419
34.1181
15.1132
16.2666
17.4505
75.4547
23.8362
19.319
16.0781
20.2169
15.4062
15.8929
16.371
16.1398
16.2767
16.6634
16.1895
16.1037
57.1242
24.6612
14.8527
17.7963
16.9073
16.4118
50.6953
16.7078
15.4936
16.2635
16.4582
19.6941
17.8269
16.3897
15.6955
15.469
15.1832
15.6126
16.1083
15.2302
15.14
16.0758
15.9777
16.3069
17.2
15.1597
15.3462
15.8152
16.4706
16.3438
15.607
15.3645
15.1067
14.9286
15.8045
17.2534
15.2176
15.2699
15.422
14.8138
14.7468
15.9025
15.6313
14.7921
14.8633
15.2083
15.5251
15.7233
14.7635
15.0134
14.8875
14.9219
14.9484
15.1889
16.2504
15.1848
14.9799
14.5068
14.8219
14.9403
14.8423
14.9004
14.7346
14.9778
14.7071
14.6625
14.5579
14.3445
15.3125
14.757
14.7586
14.595
15.1704
15.4766
14.8363
14.6725
14.7664
14.6758
14.7245
14.4968
14.825
15.0599
14.7237
14.4542
14.6878
14.8028
14.9114
15.2233
14.4845
14.642
14.7934
14.3922
14.4862
14.3707
14.2383
14.474
14.7764
14.4519
14.3402
14.6484
14.9176
14.888
14.6317
14.7461
14.4893
14.58
14.6244
14.7989
14.5782
14.4392
14.3957
14.5656
14.7211
14.9278
15.2122
14.4658
14.5679
14.6618
14.3545
14.3575
14.3216
14.2751
13.995
14.6016
14.2554
14.3072
14.3132
14.1831
15.6409
14.3949
14.405
14.3918
14.4411
14.6109
14.4616
14.2336
14.4161
14.4198
14.4818
14.5743
14.1517
14.4795
14.5079
14.5733
14.3352
14.3416
14.3103
14.2772
14.2682
14.3443
14.3441
14.3167
14.2856
13.9586
14.4121
14.4079
14.3946
14.382
14.5197
14.3154
14.4229
14.5022
14.4726
14.4577
14.0979
14.5003
14.5045
14.5365
14.3569
14.3737
14.3493
14.3192
14.2822
14.3791
14.3677
14.2944
14.304
14.0478
14.4242
14.4132
14.4169
14.3988
14.4655
14.2459
14.4042
14.5463
14.5387
14.4652
14.3849
14.5184
14.532
14.5368
14.3768
14.4196
14.397
14.3424
14.3183
14.4207
14.3863
14.276
14.3531
14.3512
14.4431
14.4368
14.4392
14.4766
14.5074
14.4636
14.3936
14.5426
14.6172
14.5131
14.5065
14.5365
14.5664
14.5291
14.3947
14.454
14.432
14.3533
14.373
14.4592
14.4231
14.3049
14.4503
14.5173
14.4694
14.4569
14.4621
14.5691
14.5529
14.5529
14.3735
14.5161
14.6569
14.568
14.5727
14.5435
14.603
14.5411
14.425
14.4756
14.4511
14.3889
14.401
14.4919
14.4562
14.3867
14.5722
14.6017
14.5082
14.4802
14.4793
14.639
14.6031
14.7233
14.3576
14.4843
14.6212
14.6431
14.6281
14.5398
14.632
14.6321
14.4516
14.4871
14.4575
14.4317
14.4409
14.5026
14.4804
14.4665
14.6098
14.646
14.5504
14.4991
14.4697
14.6275
14.6295
14.7666
14.3681
14.4415
14.607
14.7055
14.7324
14.517
14.6442
14.7262
14.4846
14.4968
14.478
14.4672
14.4753
14.5025
14.4884
14.4657
14.5035
14.571
14.5609
14.5036
14.4383
14.5219
14.5277
14.5388
14.4014
14.3952
14.5461
14.6353
14.6357
14.4896
14.6022
14.6936
14.5176
14.51
14.4954
14.487
14.4856
14.5058
14.4798
14.4409
14.3922
14.4537
14.5516
14.4955
14.4053
14.3922
14.3708
14.2996
14.4371
14.3682
14.4806
14.4904
14.4495
14.4673
14.545
14.5872
14.5466
14.5225
14.5066
14.4942
14.4855
14.512
14.4808
14.4208
14.3506
14.4083
14.5449
14.4928
14.3891
14.2919
14.3043
14.2933
14.4661
14.3696
14.4459
14.4012
14.353
14.4616
14.5086
14.5103
14.5592
14.5445
14.5289
14.5008
14.4773
14.5265
14.4974
14.439
14.3338
14.3914
14.5575
14.5085
14.4228
14.2693
14.3288
14.3728
14.4927
14.4053
14.4509
14.381
14.3644
14.4778
14.5077
14.4874
14.5954
14.5758
14.5673
14.5387
14.4873
14.5446
14.5237
14.4846
14.329
14.4342
14.5922
14.5439
14.4821
14.3556
14.3693
14.4127
14.5255
14.4678
14.4936
14.4086
14.4179
14.5127
14.5351
14.5088
14.6368
14.6027
14.5963
14.5895
14.5432
14.5671
14.5434
14.5454
14.3382
14.4255
14.6424
14.5904
14.5454
14.4675
14.401
14.4388
14.5841
14.5414
14.5515
14.4691
14.4691
14.56
14.5797
14.5551
14.6615
14.6428
14.6224
14.6244
14.6031
14.6257
14.5878
14.5923
14.3871
14.3744
14.6977
14.6449
14.5966
14.5602
14.445
14.4437
14.6665
14.6104
14.6173
14.5437
14.532
14.6163
14.6353
14.6165
14.687
14.6901
14.6549
14.6398
14.6287
14.7028
14.6442
14.6243
14.4915
14.4342
14.7527
14.7184
14.638
14.6387
14.506
14.4889
14.7158
14.6719
14.6881
14.6289
14.6166
14.6773
14.6977
14.6872
14.7365
14.732
14.7089
14.718
14.722
14.7569
14.6984
14.7287
14.6523
14.5992
14.8132
14.7636
14.6969
14.7278
14.6182
14.5943
14.7705
14.7323
14.7614
14.7243
14.7247
14.7406
14.7617
14.7614
14.7876
14.7737
14.758
14.7887
14.8739
14.7978
14.7622
14.8241
14.8613
14.7581
14.8214
14.7979
14.7684
14.8283
14.7647
14.7308
14.8366
14.7968
14.8301
14.8225
14.8365
14.8028
14.8229
14.8343
14.8028
14.7835
14.7681
14.7882
14.913
14.7853
14.8099
14.8518
14.9515
14.872
14.8227
14.8377
14.8191
14.8835
14.8628
14.8386
14.8621
14.8612
14.8854
14.8965
14.9175
14.8549
14.8724
14.8941
14.8192
14.7779
14.7791
14.8147
14.9289
14.7986
14.8407
14.8851
14.9608
14.9358
14.8442
14.8489
14.8542
14.8927
14.9099
14.8969
14.8766
14.8954
14.9103
14.9342
14.9522
14.8963
14.902
14.9343
14.8436
14.7795
14.786
14.8554
14.9295
14.8027
14.8334
14.8793
14.9366
14.9493
14.8538
14.8539
14.8609
14.8986
14.9251
14.9207
14.8826
14.899
14.9184
14.938
14.9554
14.9128
14.9166
14.9535
14.8536
14.7898
14.7903
14.8525
14.9055
14.8017
14.8105
14.8422
14.8888
14.9128
14.8566
14.8422
14.8433
14.8904
14.9207
14.9273
14.8834
14.8844
14.9141
14.927
14.9426
14.9115
14.9233
14.9558
14.8544
14.8045
14.8016
14.8381
14.8793
14.8111
14.7911
14.8248
14.8622
14.891
14.8602
14.8397
14.818
14.8734
14.8999
14.9209
14.88
14.8662
14.9021
14.9148
14.9276
14.9265
14.9256
14.9477
14.8556
14.83
14.8158
14.8364
14.8635
14.8232
14.7757
14.8231
14.8585
14.8895
14.8649
14.8411
14.7884
14.8585
14.8775
14.9057
14.8767
14.8452
14.8899
14.9053
14.9139
14.9142
14.9268
14.9361
14.8632
14.8575
14.8314
14.8395
14.8631
14.8376
14.7691
14.8234
14.8499
14.8865
14.8702
14.8437
14.7568
14.8434
14.8612
14.8867
14.8731
14.8148
14.881
14.8933
14.903
14.8953
14.9267
14.9271
14.8831
14.8796
14.846
14.8543
14.8757
14.8516
14.771
14.8276
14.8409
14.8845
14.8757
14.8466
14.731
14.8212
14.8479
14.8681
14.8692
14.7866
14.8717
14.8814
14.8958
14.8826
14.9354
14.9203
14.9031
14.8934
14.8647
14.8725
14.8862
14.861
14.786
14.8357
14.8423
14.8779
14.8829
14.8532
14.7186
14.7964
14.8356
14.8609
14.8667
14.7573
14.8557
14.8714
14.8909
14.8703
14.9112
14.9128
14.917
14.9012
14.8881
14.8892
14.8937
14.8718
14.803
14.8506
14.8471
14.8818
14.8916
14.8623
14.7222
14.7795
14.8297
14.8677
14.8644
14.7287
14.8275
14.8577
14.8865
14.8556
14.8794
14.9023
14.9181
14.9043
14.9031
14.8973
14.9015
14.8826
14.8164
14.8657
14.8569
14.8911
14.8997
14.8715
14.7342
14.7765
14.8309
14.8765
14.8631
14.7051
14.7874
14.8408
14.8803
14.839
14.8473
14.8819
14.9305
14.9036
14.9014
14.9096
14.9099
14.8889
14.8301
14.8729
14.8686
14.8997
14.9059
14.881
14.7481
14.7858
14.834
14.8801
14.863
14.6889
14.7468
14.8269
14.8723
14.8252
14.8149
14.8588
14.934
14.8966
14.8906
14.9181
14.9174
14.8955
14.8361
14.8874
14.8771
14.9028
14.9088
14.8873
14.7623
14.8003
14.8362
14.8793
14.8634
14.6957
14.7141
14.8138
14.8623
14.8174
14.7875
14.84
14.9119
14.8893
14.8746
14.9027
14.9229
14.9029
14.8369
14.8803
14.8797
14.9003
14.9097
14.891
14.7813
14.8157
14.8356
14.8728
14.8704
14.715
14.6962
14.8105
14.8507
14.8151
14.7615
14.8261
14.8916
14.8884
14.8563
14.8859
14.9206
14.9071
14.837
14.8634
14.8683
14.8932
14.9118
14.8914
14.7945
14.8309
14.8386
14.8648
14.8828
14.7337
14.6768
14.8029
14.8384
14.8158
14.7369
14.8134
14.8764
14.8904
14.8426
14.8714
14.9071
14.9106
14.8337
14.8438
14.8522
14.8901
14.9165
14.8942
14.8074
14.819
14.8292
14.86
14.8905
14.756
14.6719
14.7817
14.8289
14.8114
14.724
14.7893
14.8677
14.8971
14.8332
14.8609
14.8934
14.9171
14.8384
14.826
14.8434
14.8898
14.9249
14.9016
14.8211
14.8099
14.8294
14.8643
14.893
14.7863
14.705
14.7826
14.8331
14.7975
14.7226
14.7692
14.868
14.9092
14.8255
14.8574
14.89
14.9271
14.8507
14.8361
14.8564
14.8923
14.9401
14.9148
14.8364
14.847
14.8723
14.8806
14.9014
14.8092
14.753
14.8039
14.8554
14.7991
14.7378
14.7784
14.878
14.9209
14.8201
14.8623
14.8985
14.9376
14.8639
14.8701
14.8913
14.902
14.9619
14.9328
14.8575
14.8808
14.9046
14.8958
14.9208
14.8378
14.8232
14.8557
14.893
14.8113
14.7946
14.8244
14.8933
14.9266
14.8167
14.8735
14.9116
14.9449
14.8774
14.8984
14.9156
14.9393
14.9844
14.9486
14.883
14.9119
14.9417
14.937
14.9483
14.8848
14.9154
14.9376
14.9574
14.8592
14.8624
14.9105
14.9083
14.925
14.8136
14.8862
14.9248
14.9443
14.8861
14.9158
14.9348
14.977
14.9966
14.955
14.8995
14.9366
14.9565
14.9672
14.9657
14.9161
14.9582
14.9772
14.975
14.9206
14.9304
14.9698
14.9198
14.9202
14.8105
14.8952
14.9324
14.9344
14.8861
14.9251
14.9515
14.9865
14.9925
14.9473
14.907
14.9464
14.9664
14.9989
14.9652
14.925
14.9639
14.9751
14.9838
14.9513
14.9541
14.9738
14.9243
14.9144
14.8089
14.8992
14.9333
14.9173
14.8701
14.917
14.9458
14.9703
14.9751
14.9302
14.8987
14.9459
14.9592
14.9782
14.9516
14.9287
14.9655
14.9658
14.9752
14.952
14.9669
14.9684
14.9232
14.907
14.8164
14.9011
14.9295
14.8952
14.8427
14.9075
14.9298
14.9503
14.953
14.9106
14.8823
14.9326
14.9434
14.9558
14.9351
14.9203
14.9531
14.9533
14.9573
14.9436
14.9579
14.9567
14.9222
14.9005
14.8328
14.899
14.9228
14.874
14.8227
14.9031
14.915
14.9355
14.9323
14.893
14.8703
14.9148
14.9277
14.9383
14.9186
14.906
14.9381
14.9383
14.9415
14.9193
14.9382
14.9414
14.9201
14.8973
14.8479
14.8975
14.9171
14.8606
14.8161
14.9039
14.9059
14.927
14.9151
14.8796
14.861
14.9048
14.9136
14.9262
14.9034
14.8984
14.9231
14.9234
14.9285
14.9064
14.9215
14.9289
14.9187
14.9003
14.8699
14.9014
14.9142
14.8485
14.8199
14.9097
14.9025
14.9226
14.9005
14.8683
14.8595
14.9004
14.9034
14.9171
14.8884
14.887
14.9095
14.9113
14.917
14.8999
14.9086
14.9164
14.922
14.909
14.8995
14.9082
14.9151
14.8391
14.8313
14.9151
14.9001
14.9206
14.8867
14.8556
14.8631
14.8986
14.8942
14.9097
14.8771
14.8821
14.8995
14.9014
14.9056
14.8945
14.8986
14.9064
14.9286
14.9242
14.924
14.9135
14.9182
14.8503
14.873
14.91
14.8978
14.9174
14.8772
14.8447
14.8715
14.8983
14.8807
14.8998
14.8715
14.8875
14.8945
14.8922
14.8964
14.8952
14.8957
14.8975
14.9364
14.9432
14.9318
14.9203
14.9194
14.8739
14.9134
14.9009
14.8892
14.9117
14.8783
14.8471
14.8889
14.8981
14.8666
14.8884
14.8738
14.9015
14.8942
14.8804
14.8848
14.9035
14.9007
14.8888
14.9466
14.9746
14.9406
14.9281
14.9159
14.9033
14.9398
14.8917
14.8708
14.897
14.8969
14.872
14.9064
14.8959
14.8554
14.8762
14.89
14.9162
14.8967
14.8718
14.8766
14.9157
14.9113
14.8869
14.9524
14.9854
14.9509
14.9246
14.8994
14.9618
14.9498
14.8756
14.841
14.874
14.9238
14.9074
14.9243
14.8926
14.848
14.8596
14.9167
14.938
14.9014
14.8735
14.8681
14.9348
14.9297
14.8962
14.9455
14.9933
14.9498
14.9002
14.8691
14.9961
14.9428
14.8594
14.7993
14.8306
14.9669
14.9582
14.9478
14.8915
14.8478
14.8309
14.9538
14.9652
14.919
14.8846
14.8573
14.9639
14.9516
14.916
14.9236
15.0011
14.9383
14.8637
14.8215
15.0169
14.9372
14.8477
14.7378
14.7519
15.0125
14.9949
14.966
14.8919
14.843
14.7717
15.0131
15.0067
14.9507
14.9016
14.8381
15.0086
14.9749
14.9419
14.8922
14.9872
14.9265
14.8267
14.7524
15.0027
14.9247
14.8277
14.6355
14.5789
15.0501
15.019
14.9842
14.8852
14.8073
14.6272
15.1032
15.075
14.9793
14.9085
14.7894
15.0866
15.0243
14.9672
14.8559
14.9797
14.9091
14.7884
14.6595
15.0065
14.9138
14.7744
14.4525
14.2136
15.1272
15.0831
15.021
14.8793
14.7361
14.2576
15.2326
15.1865
15.0503
14.9037
14.6785
15.2167
15.1019
15.0131
14.8163
14.9657
14.8859
14.7538
14.5503
15.0153
14.9004
14.6736
14.1854
13.263
15.2767
15.1754
15.0659
14.8683
14.5717
13.316
15.4268
15.2973
15.1371
14.9108
14.4186
15.4094
15.1959
15.0956
14.7733
14.9362
14.8537
14.7232
14.4433
15.0075
14.7719
14.4873
13.7438
10.8367
15.4557
15.2755
15.0012
14.7784
14.3106
11.5226
-10.9756
15.6001
15.3721
15.1298
14.8259
13.7284
15.4986
15.2315
15.1619
14.7088
14.8702
14.7878
14.6673
14.399
14.9165
14.4366
14.1532
13.2236
9.5015
-0.174902
15.3898
15.1334
14.7476
14.7045
13.8992
10.9029
1.38472
15.5247
15.157
15.0134
14.6581
12.6939
15.2834
15.2667
15.1914
14.6259
14.719
14.6349
14.5461
14.3874
14.5864
13.8874
13.5607
12.8051
11.0086
3.02152
14.8203
14.5182
14.2624
14.0376
13.2457
10.1817
2.01634
14.9976
14.6504
14.7372
14.6259
12.3043
3.97724
15.0714
15.2251
15.2663
14.5562
14.5084
14.4724
14.4329
14.4037
14.0848
13.4063
13.0814
12.7263
11.6128
4.11469
13.7818
13.5778
13.506
13.3001
12.5883
8.45595
-0.568418
14.2157
14.2566
14.4796
14.1415
11.6377
14.6964
14.8507
14.8795
14.5833
14.3713
14.4263
14.4628
14.4948
13.6875
13.4178
13.4133
13.2909
13.1129
12.8096
12.7072
13.1628
13.2766
12.6967
9.5392
-4.89129
13.6263
14.163
14.4124
14.0703
12.8132
14.4904
14.632
14.5974
14.7553
14.4819
14.6025
14.7163
14.7274
13.7867
13.8977
14.1006
14.0451
14.2399
12.6254
12.7544
13.4068
13.7498
13.4964
12.4291
13.6571
14.3072
14.539
14.3392
14.0955
14.5339
14.6503
14.6954
15.0201
14.8215
14.9043
15.0625
15.0312
14.3494
14.4814
14.796
14.7423
14.8791
13.7547
13.6472
14.0605
14.382
14.2905
14.0733
14.1176
14.6016
14.7258
14.6476
14.8664
14.7446
14.7937
14.9417
15.2457
15.1328
15.1562
15.2112
15.241
14.8525
14.9072
15.0503
14.9546
15.1647
14.6634
14.4663
14.5982
14.8394
14.7477
14.8429
14.6335
14.885
14.8958
14.8315
15.1667
14.9995
14.9297
15.1536
15.3955
15.3276
15.3112
15.2596
15.392
15.1481
15.0897
15.1418
15.079
15.2726
14.9773
14.8527
14.9251
15.0165
14.8691
15.0594
15.0382
15.0647
15.0221
14.9604
15.2461
15.1781
15.0324
15.2509
15.465
15.4282
15.3813
15.3133
15.3422
15.2962
15.1472
15.1821
15.0591
15.1869
15.2619
15.1547
15.0649
15.1363
14.8944
15.0267
15.2927
15.1367
15.1311
15.0717
15.2017
15.2349
15.1405
15.2918
15.4235
15.4218
15.3431
15.3168
15.3019
15.2789
15.2058
15.209
15.0752
15.1065
15.3617
15.2306
15.1677
15.1839
14.9758
15.0269
15.3473
15.1828
15.1666
15.1499
15.2044
15.2622
15.1941
15.3339
15.4056
15.3342
15.3074
15.3177
15.2788
15.2405
15.2166
15.2259
15.1289
15.0805
15.3351
15.2502
15.1546
15.181
15.0807
15.0605
15.3462
15.1702
15.1824
15.2092
15.2555
15.3003
15.2484
15.344
15.4304
15.315
15.3206
15.3249
15.2237
15.2234
15.2161
15.2281
15.1416
15.0969
15.3174
15.2605
15.1672
15.2132
15.1385
15.1222
15.3577
15.1891
15.2453
15.2874
15.3509
15.3524
15.2993
15.3691
311.342
103.488
233.047
125.985
73.2884
79.7924
100.041
110.045
350.532
376.401
379.724
365.371
367.268
331.394
253.653
336.585
291.313
195.631
178.05
260.854
244.316
150.765
130.357
219.667
191.373
163.282
337.496
335.296
337.336
339.617
335.961
338.432
330.067
314.285
286.73
311.707
289.323
270.696
265.9
270.471
268.246
257.383
246.814
263.226
254.59
211.418
249.048
230.966
334.976
337.175
336.642
336.716
330.648
337.414
331.955
315.169
299.171
321.609
311.828
279.45
267.965
291.802
273.422
256.104
248.743
257.062
248.435
256.417
240.714
249.364
337.805
340.216
334.919
340.885
341.57
327.812
320.428
332.369
322.947
305.322
288.777
311.858
299.255
270.2
255.321
283.698
262.84
239.994
339.546
334.212
327.564
325.553
315.764
303.622
314.916
292.428
217.056
147.325
79.6541
133.799
83.2203
53.8407
96.8953
59.5415
52.5151
40.5116
28.2049
27.6459
18.3779
26.9469
16.4676
332.72
312.008
281.304
332.432
316.133
235.781
188.856
279.263
232.066
34.4977
155.031
85.0031
16.1644
15.2178
29.0811
18.1117
49.3963
16.9127
332.418
331.17
332.078
327.948
325.653
325.427
162.563
140.779
24.6936
50.5311
34.5777
331.915
331.131
322.704
322.173
320.502
169.85
197.535
77.9492
47.9149
66.1187
330.428
316.095
328.743
329.772
328.086
313.9
310.55
311.47
309.131
214.882
260.152
233.904
163.115
86.83
189.997
140.825
53.5173
325.398
303.964
317.049
312.629
298.808
293.675
292.701
290.032
303.347
272.16
247.33
282.124
210.692
91.3445
48.0973
18.3524
47.2267
21.6108
16.2041
21.2522
16.3692
15.266
16.6653
16.9579
17.1298
18.3692
18.6464
18.6382
237.056
152.02
117.266
198.831
143.044
101.728
59.4739
125.613
60.8388
17.2227
14.6107
14.4418
17.7556
17.6242
16.918
16.6678
15.5994
17.1793
288.195
301.948
299.006
198.397
241.626
232.208
15.3459
14.3607
15.8568
14.67
16.0496
301.752
299.056
250.183
244.973
240.48
15.6625
17.5931
14.9635
16.0529
15.0541
290.267
227.679
255.165
262.605
243.473
210.815
182.086
194.733
172.006
18.6018
81.9199
41.6693
13.6076
15.8061
22.8718
17.4293
16.4191
234.36
161.923
199.211
197.577
140.516
112.727
112.287
142.434
175.924
68.7207
47.4155
85.0763
40.4271
24.7067
18.0928
16.5779
16.5953
16.6359
16.2111
16.0444
16.0872
17.2875
18.0035
16.5654
16.4955
17.0516
17.8586
17.0932
88.9906
55.1635
23.7857
71.7402
21.8019
31.7514
16.8817
36.658
16.2049
17.0693
16.8417
16.5101
16.5824
16.7176
16.4689
16.3716
17.0579
16.6153
121.019
160.783
150.128
65.0194
92.5258
82.0649
15.7468
16.4438
16.3509
16.1674
16.1894
171.316
171.514
108.235
105.816
110.655
16.6156
16.7044
16.4101
16.3713
16.6569
160.843
103.541
116.88
132.009
109.175
92.582
66.1936
80.642
58.8016
17.349
16.9432
16.5301
16.5677
16.7293
16.4639
15.7984
16.8624
98.5453
50.6755
42.9402
49.6672
30.0409
21.3736
25.329
22.0571
34.0836
17.352
18.1929
18.607
17.145
16.6873
16.3561
15.9241
15.7977
15.8286
15.6766
15.5736
15.676
16.0264
16.4768
15.8236
15.7264
16.3945
16.5762
16.3088
34.4577
18.6424
15.7743
19.3397
15.4585
16.7579
15.4242
15.5831
15.3274
16.5981
16.3853
16.488
16.2787
16.4988
16.334
16.5849
16.6244
16.7149
28.1514
44.9444
35.2141
16.8979
21.9933
17.8893
16.3363
16.1631
16.2572
16.4367
16.2952
54.2993
61.0274
26.7988
21.6508
25.9634
16.3441
16.4395
16.4198
16.3942
16.2266
59.5575
29.1874
32.7421
41.7514
25.2678
22.0173
17.0245
20.6767
18.0451
16.0446
15.8513
15.5056
15.5864
15.8614
15.5206
15.5248
16.1988
23.8016
18.8359
18.7273
19.3436
18.4255
18.127
17.983
17.1527
17.4068
16.2863
15.7501
16.036
15.6358
15.5061
15.155
15.4797
15.3869
15.5175
15.3655
15.2043
15.4068
15.6008
16.3881
15.5759
15.5815
15.9711
16.1016
15.8242
15.5401
14.9246
15.1766
15.1518
15.0402
15.0009
14.9818
14.8926
14.8485
16.3212
16.1448
16.3866
15.8557
16.1194
15.8489
16.0509
16.5211
16.1322
15.5764
16.7262
15.8056
15.0209
15.3257
15.0394
16.4473
16.3228
16.1098
16.4567
14.5194
15.9612
16.2067
15.923
15.3967
15.5213
16.1806
16.029
16.2336
15.122
15.7891
17.624
15.6587
15.5888
17.153
17.4876
15.3643
15.1617
15.8361
16.2355
15.5634
15.3485
15.2993
14.9115
15.0127
15.2269
15.1672
15.2336
17.3487
16.1271
16.6808
16.5335
15.8462
15.313
15.3275
15.1534
15.2402
14.8357
14.9899
14.8299
15.1268
14.9238
14.7464
15.1196
14.941
15.1572
14.7939
14.7481
14.7162
15.5302
15.3883
15.0892
15.1354
14.9914
15.5619
15.4159
14.7706
14.7232
14.8426
14.7685
14.8022
14.7425
14.7469
14.7556
14.7425
15.9059
15.5695
15.7604
15.467
15.6838
15.3286
15.5206
15.6699
15.227
14.7492
14.8669
14.7978
14.6551
14.7636
14.6644
13.8766
16.7437
16.8782
15.4349
14.4175
15.4083
14.8264
14.9399
14.9594
15.0074
14.8801
14.9342
14.8746
14.9986
14.8614
14.9842
14.7436
14.6542
14.7306
16.1395
15.552
15.3084
15.4439
14.9841
15.0787
15.258
15.1489
15.2408
15.3307
15.0713
15.1637
15.1906
15.3811
15.0404
14.765
14.8901
15.1919
15.3835
14.8326
14.7593
14.8608
14.7991
14.801
15.0868
15.0567
14.8801
14.8009
14.9539
14.953
14.7385
15.1953
14.5708
14.6873
14.6843
14.5678
14.5195
14.5469
14.8483
14.7081
14.6801
14.7575
14.6712
14.8833
14.5859
14.4715
14.5965
14.5781
14.4527
14.4996
14.462
14.4259
14.5136
14.6775
14.4681
14.2835
14.3117
15.2028
14.7156
14.6879
14.6689
14.6289
14.7339
14.648
14.5891
14.5126
14.7446
14.573
15.5182
15.1236
15.3599
15.1389
15.4558
14.9422
15.2495
15.2769
14.4856
15.4914
15.4548
14.9384
14.9384
15.1106
15.0106
14.6297
14.6817
14.6265
14.6464
14.6599
14.6322
14.9057
14.2969
15.0973
15.6255
15.1577
14.6117
15.2346
14.94
14.9108
14.9634
14.7765
14.9352
14.738
14.9379
14.5642
14.6986
14.6353
14.5638
14.643
15.1411
15.0127
15.347
14.8162
15.1598
14.9878
15.3567
15.0615
15.2318
15.3236
14.8865
15.0008
15.1501
15.2863
14.6477
14.5667
14.7144
14.6258
14.5773
14.614
14.4675
14.5573
14.3779
14.799
14.838
14.8582
14.7601
14.7847
14.7553
14.783
15.3049
14.9985
15.3675
15.3237
15.2337
15.3661
14.5336
14.4188
14.4993
14.5064
14.4718
14.4914
14.4917
14.6856
14.6417
14.6054
14.6263
14.6043
14.7249
14.4275
14.3978
14.453
14.4137
14.4187
14.4153
14.383
14.3915
14.3167
14.1618
14.3693
14.3291
14.2113
14.1277
14.0552
14.6216
14.5249
14.4051
14.7376
14.5372
14.3782
14.3546
14.5213
14.4555
15.3173
14.6363
15.0547
13.8264
14.3819
14.1962
14.3872
15.4026
15.9076
14.6208
16.1056
15.3055
15.1654
15.5496
15.3816
14.6308
14.6313
14.6319
14.607
14.5542
14.5731
15.1775
14.6631
15.1454
13.8933
15.324
14.4815
14.9767
15.068
14.5762
14.8632
15.2612
15.3842
14.5684
14.9554
14.634
14.5176
14.5186
14.5368
14.3942
15.0084
15.0233
15.3041
14.6755
14.7195
14.8753
15.0683
14.9185
14.996
15.2722
14.3952
14.9384
14.8022
15.3236
14.4532
14.4096
14.3799
14.4017
14.3779
14.3963
14.3999
14.4022
14.3875
14.7481
14.6921
14.723
14.6623
14.6966
14.6396
14.6647
15.3206
14.5651
14.9469
15.4259
15.0488
15.5166
14.4116
14.4188
14.4851
14.488
14.4658
14.4786
14.4828
14.5794
14.5682
14.5352
14.5485
14.5366
14.6129
14.3687
14.3625
14.386
14.3578
14.3612
14.3647
14.3512
14.3459
14.32
14.28
14.3416
14.3061
14.3188
14.1683
14.2437
14.3599
14.3287
14.3375
14.2957
14.3474
14.3432
14.3362
14.2962
14.3287
13.6799
14.0005
13.978
14.1895
14.0084
14.1243
14.024
14.1169
13.905
14.3947
14.4054
14.3719
14.3189
14.336
14.3188
15.7673
14.334
14.8411
14.1891
15.8176
14.1834
14.7217
15.599
14.7525
15.2755
15.8779
15.7303
15.2442
15.6072
14.3776
14.365
14.3999
14.3935
14.3941
14.4787
14.5757
14.7555
14.2132
14.2334
13.9446
14.0754
15.0906
14.611
15.4307
14.9906
15.2577
15.0946
15.5636
14.405
14.4119
14.4067
14.4109
14.3994
14.4145
14.4154
14.4184
14.4117
14.6206
14.5893
14.6046
14.5029
14.5722
14.5501
14.5582
13.9962
14.4392
14.4535
14.4756
14.4793
14.4898
14.4762
14.4808
14.5194
14.5163
14.4996
14.5014
14.5082
14.5443
14.3711
14.3855
14.3589
14.3611
14.348
14.366
14.3753
14.3598
14.304
14.333
14.3431
14.3185
14.3425
14.2836
14.2989
14.3644
14.3724
14.3494
14.3422
14.3566
14.3538
14.3683
14.3567
14.3751
14.2104
14.2313
14.1413
14.2764
14.254
14.2642
14.2428
13.9618
14.1503
14.3685
14.3686
14.3662
14.3789
14.3806
14.3796
14.0246
14.8239
13.9298
13.8567
12.4939
14.4073
14.3962
14.4135
14.4094
14.3996
14.8736
13.7535
14.1265
13.1946
13.94
14.4154
14.4125
14.4371
14.4245
14.4325
14.4067
14.4391
14.4224
14.4481
14.5522
14.5287
14.531
14.4528
14.5531
14.5267
14.5255
14.2728
14.4722
14.4794
14.4815
14.49
14.5126
14.4916
14.5002
14.4995
14.5121
14.5137
14.5091
14.518
14.5395
14.4037
14.4246
14.3773
14.3904
14.3754
14.3879
14.406
14.3887
14.3389
14.3536
14.3699
14.3559
14.3673
14.3046
14.3147
14.389
14.4039
14.3931
14.3722
14.3891
14.397
14.4204
14.3902
14.4061
14.2666
14.2734
14.2954
14.2946
14.2907
14.2885
14.3133
14.2599
14.3104
14.3966
14.3967
14.3981
14.41
14.4122
14.4124
13.9861
13.5927
14.2124
14.2089
14.2185
14.4226
14.4122
14.4322
14.4353
14.4212
14.036
14.1769
14.3917
14.4212
14.3595
14.4148
14.417
14.4414
14.4408
14.4648
14.4017
14.4418
14.4556
14.4752
14.5516
14.5301
14.5291
14.4887
14.5578
14.5299
14.5356
14.4595
14.4854
14.4874
14.4987
14.511
14.5314
14.5119
14.5243
14.5334
14.5378
14.5504
14.5468
14.5542
14.5329
14.4435
14.4554
14.399
14.4217
14.4015
14.4126
14.4346
14.4163
14.3666
14.3799
14.3831
14.3767
14.3898
14.3376
14.3635
14.4202
14.4371
14.4455
14.4064
14.4224
14.4389
14.4636
14.4251
14.4276
14.3349
14.3187
14.3402
14.349
14.3855
14.345
14.3799
14.3667
14.4247
14.4239
14.4281
14.4277
14.4411
14.448
14.4472
14.3702
14.3882
14.4489
14.4615
14.4732
14.4458
14.4283
14.4556
14.4549
14.4343
14.4666
14.4553
14.4966
14.508
14.5297
14.4179
14.4171
14.4349
14.4551
14.4743
14.3845
14.4233
14.4505
14.4681
14.58
14.5294
14.5498
14.5385
14.5923
14.5357
14.5664
14.5478
14.4865
14.4845
14.5149
14.5293
14.5443
14.528
14.5427
14.5506
14.5729
14.5843
14.5509
14.5895
14.5299
14.4627
14.469
14.4264
14.4444
14.4296
14.4376
14.4526
14.439
14.3894
14.3969
14.4109
14.4049
14.4038
14.3814
14.393
14.4547
14.4733
14.4736
14.4448
14.4322
14.4658
14.4765
14.4648
14.4425
14.4251
14.3672
14.4229
14.3876
14.4517
14.3841
14.4568
14.4758
14.5137
14.4633
14.4696
14.4708
14.4851
14.4897
14.4931
14.5191
14.5414
14.5622
14.5673
14.6032
14.4654
14.443
14.4872
14.481
14.4584
14.5691
14.595
14.6437
14.6434
14.6384
14.4178
14.4215
14.4045
14.4408
14.4569
14.3624
14.3815
14.43
14.442
14.5861
14.5706
14.587
14.6024
14.5904
14.6209
14.6176
14.5737
14.4776
14.4699
14.5303
14.5457
14.5465
14.5401
14.5573
14.5481
14.6033
14.621
14.5445
14.6144
14.5782
14.4729
14.4735
14.4442
14.4607
14.4458
14.4502
14.4685
14.4518
14.4201
14.4139
14.4375
14.4371
14.4279
14.406
14.4259
14.4874
14.4964
14.473
14.482
14.4548
14.4826
14.4668
14.4917
14.4623
14.4728
14.4038
14.4784
14.4193
14.4935
14.4237
14.4937
14.5369
14.5514
14.504
14.5058
14.5111
14.515
14.5159
14.5206
14.6245
14.6541
14.6391
14.6742
14.6846
14.501
14.4815
14.5313
14.5226
14.5097
14.7011
14.6618
14.7838
14.7399
14.6805
14.4341
14.451
14.3557
14.4193
14.4219
14.3592
14.3309
14.4109
14.4029
14.6263
14.6581
14.6457
14.6831
14.6801
14.6916
14.67
14.6881
14.4596
14.4533
14.5454
14.5589
14.53
14.5584
14.5683
14.5666
14.6209
14.6478
14.6312
14.6319
14.6885
14.4735
14.4791
14.4589
14.4759
14.4606
14.4714
14.4846
14.4729
14.4544
14.4452
14.4681
14.4724
14.4642
14.4492
14.4723
14.5019
14.5056
14.4644
14.4963
14.468
14.4914
14.4689
14.5005
14.474
14.5114
14.4371
14.5013
14.4611
14.5226
14.4396
14.4964
14.5629
14.5531
14.5194
14.5223
14.5257
14.5213
14.5256
14.5281
14.6739
14.673
14.6225
14.6189
14.6234
14.5412
14.5332
14.5585
14.5522
14.5492
14.7276
14.6821
14.6632
14.6599
14.6442
14.4703
14.4861
14.3071
14.407
14.3866
14.3829
14.2905
14.4099
14.3758
14.7318
14.7163
14.7275
14.696
14.748
14.7295
14.7791
14.7149
14.4493
14.4482
14.5579
14.562
14.5033
14.5541
14.5529
14.6682
14.6283
14.631
14.6755
14.6241
14.7277
14.4893
14.4997
14.4862
14.4958
14.4876
14.5002
14.5081
14.5014
14.4902
14.4834
14.5014
14.507
14.5011
14.4915
14.505
14.5099
14.5147
14.4785
14.5061
14.4818
14.5034
14.4899
14.5116
14.4898
14.5211
14.4384
14.4827
14.4825
14.5129
14.4333
14.4662
14.5231
14.4814
14.5239
14.5273
14.5294
14.5269
14.5268
14.5299
14.535
14.5512
14.5108
14.4579
14.4766
14.5558
14.5564
14.5569
14.5546
14.5575
14.549
14.5584
14.4062
14.4322
14.4394
14.4989
14.5081
14.281
14.4187
14.3735
14.4206
14.2913
14.432
14.383
14.6899
14.6995
14.7397
14.5595
14.6026
14.6378
14.652
14.5414
14.448
14.4478
14.5408
14.539
14.4763
14.5268
14.5271
14.6478
14.5976
14.5745
14.6152
14.5745
14.6417
14.5082
14.516
14.5115
14.5165
14.5155
14.5237
14.5244
14.5281
14.5232
14.5158
14.5329
14.5382
14.5258
14.5114
14.5162
14.5192
14.5244
14.5004
14.5166
14.4985
14.516
14.5098
14.5212
14.5065
14.5
14.4341
14.454
14.4869
14.4873
14.434
14.4439
14.4459
14.4215
14.5295
14.528
14.5303
14.5315
14.5302
14.532
14.3935
14.4121
14.4145
14.3525
14.3779
14.5503
14.5565
14.5471
14.5462
14.5562
14.3392
14.3319
14.2511
14.3
14.2522
14.5167
14.5254
14.3092
14.4471
14.3972
14.4521
14.3337
14.4622
14.4156
14.5079
14.5752
14.5634
14.4362
14.4323
14.5227
14.5014
14.3776
14.4532
14.4636
14.5143
14.5168
14.4612
14.5056
14.5088
14.5764
14.5493
14.5229
14.5458
14.5305
14.5426
14.5238
14.5331
14.535
14.5321
14.5415
14.5458
14.5391
14.5498
14.5488
14.5313
14.5512
14.5561
14.5379
14.5198
14.5235
14.5295
14.5353
14.5183
14.5261
14.5143
14.5316
14.5281
14.5316
14.5229
14.4766
14.4331
14.437
14.4819
14.4672
14.432
14.4301
14.4094
14.4068
14.5332
14.5357
14.5365
14.5374
14.5446
14.5439
14.342
14.3792
14.4007
14.364
14.4087
14.5449
14.5591
14.5482
14.5482
14.5658
14.3427
14.2321
14.3584
14.41
14.2789
14.5363
14.5488
14.359
14.4782
14.4359
14.4793
14.3859
14.4956
14.4592
14.3911
14.4878
14.4553
14.3821
14.3708
14.4656
14.4336
14.3508
14.4769
14.4912
14.5018
14.5094
14.4663
14.5043
14.5094
14.521
14.5182
14.5021
14.5072
14.513
14.4918
14.546
14.5619
14.5577
14.5487
14.5612
14.5752
14.5634
14.5791
14.5648
14.5469
14.5745
14.58
14.5676
14.5297
14.5409
14.5443
14.5569
14.5432
14.5405
14.5331
14.5589
14.5617
14.5526
14.5459
14.4608
14.4337
14.4245
14.4764
14.4606
14.4298
14.4177
14.4096
14.4217
14.545
14.5582
14.5548
14.5556
14.5753
14.5691
14.4046
14.4374
14.408
14.4233
14.4316
14.557
14.5766
14.5724
14.5715
14.5897
14.4117
14.3351
14.3806
14.3904
14.3866
14.5635
14.5805
14.4152
14.5158
14.4856
14.5065
14.4448
14.5385
14.5117
14.3708
14.4651
14.4353
14.3895
14.3814
14.4694
14.4445
14.3872
14.5096
14.5286
14.5127
14.5233
14.4923
14.5259
14.5308
14.5063
14.5191
14.5158
14.5097
14.5267
14.4924
14.5784
14.5933
14.5944
14.5786
14.5958
14.6122
14.5931
14.6115
14.6031
14.5921
14.6169
14.6274
14.6286
14.5578
14.5827
14.5716
14.5885
14.5813
14.5665
14.5588
14.5902
14.5975
14.5804
14.5696
14.4692
14.4207
14.4182
14.5113
14.4875
14.4217
14.4335
14.4285
14.4129
14.5678
14.5968
14.5879
14.5838
14.6208
14.6085
14.4176
14.4126
14.438
14.3976
14.3899
14.5907
14.6041
14.6158
14.6128
14.618
14.3917
14.4213
14.4389
14.4246
14.4364
14.6003
14.6211
14.4784
14.5643
14.5441
14.5503
14.5137
14.5917
14.5737
14.4042
14.491
14.4662
14.4364
14.431
14.5117
14.491
14.4426
14.5555
14.5797
14.5432
14.5552
14.5345
14.5634
14.5686
14.5277
14.5455
14.5542
14.5448
14.5634
14.5294