/*--------------------------------*- C++ -*----------------------------------*\
| =========                 |                                                 |
| \\      /  F ield         | OpenFOAM: The Open Source CFD Toolbox           |
|  \\    /   O peration     | Version:  5.x                                   |
|   \\  /    A nd           | Web:      www.OpenFOAM.org                      |
|    \\/     M anipulation  |                                                 |
\*---------------------------------------------------------------------------*/
FoamFile
{
    version     2.0;
    format      ascii;
    class       volScalarField;
    location    "5";
    object      p;
}
// * * * * * * * * * * * * * * * * * * * * * * * * * * * * * * * * * * * * * //

dimensions      [0 2 -2 0 0 0 0];

internalField   nonuniform List<scalar> 
10571
(
158.446
119.909
124.258
166.923
196.804
92.9399
119.871
152.882
178.782
175.394
121.922
118.159
106.761
150.711
148.323
113.493
114.255
88.8595
93.4809
59.4035
47.2981
82.4284
50.6262
48.0196
88.0701
85.184
97.5738
94.8609
109.188
78.1211
80.9479
78.0304
51.655
89.0272
80.2139
73.0159
76.6814
56.5507
41.3796
48.5457
76.2443
64.3574
44.3845
42.8787
41.7635
50.1842
47.1398
45.5743
67.3553
15.1021
16.52
17.9268
28.3858
55.9213
22.6313
8.73065
7.98931
12.3807
47.8454
62.2059
35.0419
8.42926
9.98259
13.481
50.9155
38.415
14.1356
32.9832
36.1395
43.4906
40.5703
42.4229
6.65095
7.14906
7.10646
7.18919
6.96375
6.96066
5.69782
6.44612
6.72308
7.1271
6.33213
7.94202
6.4973
6.49808
5.9639
6.93223
7.21525
7.35953
5.3343
5.95618
7.80845
24.6451
15.1958
5.63394
7.10357
7.05466
7.03092
7.11325
7.0338
7.03545
7.11233
7.46235
7.32637
7.0354
6.77336
6.95295
6.58259
7.61632
7.23276
7.04294
6.74644
6.26747
7.37478
7.04665
7.14018
6.4919
6.66289
6.90559
7.0691
7.0538
7.02047
7.02491
7.01666
7.0031
7.0218
7.02504
7.02616
7.04137
7.01193
6.94386
6.88176
6.88155
7.15777
7.00456
6.97589
6.9675
6.788
6.78438
7.16896
6.91675
6.88869
6.7184
7.00204
6.87443
7.00611
7.0316
7.00702
7.00528
7.00181
6.97363
6.93351
6.96511
7.01145
7.02965
7.00592
6.92558
6.90776
6.84423
7.00999
6.92387
6.93874
6.94236
6.81353
6.70261
6.91564
6.91944
6.93445
6.85372
6.7365
6.80092
6.90998
6.98143
6.99879
6.96962
6.97864
7.00345
6.92628
6.91286
6.98673
7.0401
6.98991
6.99144
6.89377
6.85138
6.80689
6.99618
6.94609
6.87773
6.93914
6.79416
6.67169
6.87854
6.9471
7.3545
6.87841
6.71369
6.75146
6.94519
6.99278
6.97408
6.95754
6.95701
7.02857
6.87995
6.90087
7.01296
7.03751
6.98782
6.99847
6.88039
6.82296
6.79999
7.00304
7.01137
6.90304
7.01032
6.77803
6.69049
6.89403
6.95441
7.04745
6.67768
6.80264
6.97935
7.02862
6.97158
6.97067
6.97977
7.05758
6.88082
6.8868
7.03918
7.0402
7.00668
6.90896
6.83713
6.83969
7.01924
7.07232
7.01409
6.83222
6.7595
6.90296
7.01565
6.96222
6.72539
6.9047
7.19784
7.05877
6.9953
6.99021
7.04107
7.05922
6.92742
6.8885
7.06104
7.06338
7.09558
6.98171
6.89456
6.91486
7.05963
7.08937
7.15663
6.94365
6.93358
7.08098
7.29806
7.59715
6.98497
7.11824
7.21638
7.08509
7.03842
7.01129
7.07088
7.05192
6.98969
6.91306
7.07427
7.08858
7.142
7.07869
6.98224
6.99786
7.09638
7.1577
7.15178
7.06158
7.10914
7.08648
7.28753
7.38282
7.21117
7.14103
7.25058
7.11911
7.09157
7.04551
7.10385
7.09298
7.05843
6.9561
7.0649
7.1058
7.14631
7.16519
7.07511
7.07302
7.09587
7.17226
7.14689
7.15602
7.17765
7.06194
7.18122
7.23694
7.2968
7.18874
7.21146
7.14711
7.13998
7.08836
7.14324
7.1629
7.11794
7.02426
7.04988
7.11875
7.15083
7.21888
7.14909
7.12669
7.09931
7.15306
7.14183
7.21697
7.23996
7.11663
7.13752
7.1557
7.31369
7.242
7.19754
7.14459
7.17551
7.12742
7.16032
7.20104
7.15518
7.107
7.0503
7.1178
7.15519
7.24085
7.19299
7.17106
7.15199
7.10534
7.12335
7.24443
7.27122
7.1858
7.12482
7.1281
7.29057
7.27755
7.20862
7.11862
7.19679
7.14568
7.1263
7.14671
7.16646
7.18373
7.06798
7.11336
7.14521
7.24151
7.20734
7.18416
7.20984
7.04658
7.12366
7.24494
7.26008
7.26187
7.15913
7.1534
7.25601
7.25004
7.21126
7.09102
7.20127
7.14344
7.08445
7.11321
7.16002
7.21283
7.11619
7.10399
7.10994
7.22953
7.20383
7.16521
7.19399
7.01522
7.15116
7.23041
7.22182
7.27838
7.17192
7.16311
7.22416
7.22849
7.20168
7.12012
7.19413
7.14078
7.06194
7.11416
7.15148
7.18043
7.10561
7.10079
7.1034
7.21238
7.18341
7.15765
7.16197
6.97915
7.11009
7.21143
7.18356
7.2242
7.13976
7.12863
7.19774
7.20008
7.17915
7.1783
7.18845
7.15619
7.14955
7.12549
7.13821
7.13061
7.0619
7.07856
7.06522
7.20202
7.16048
7.14958
7.09429
7.00314
7.07
7.19777
7.17285
7.16095
7.1085
7.10106
7.1857
7.17064
7.1577
7.2006
7.18587
7.17898
7.25417
7.14071
7.12564
7.10118
7.0781
7.07375
7.05927
7.20699
7.15114
7.13461
7.06576
7.10245
7.08652
7.19628
7.17219
7.11408
7.10471
7.11028
7.18521
7.15401
7.14955
7.18269
7.18655
7.18567
7.22981
7.12233
7.1245
7.09867
7.1047
7.09325
7.09619
7.22478
7.15713
7.16135
7.11906
7.19372
7.14015
7.20331
7.1752
7.1197
7.13291
7.14731
7.18513
7.15408
7.15408
7.18746
7.19447
7.18567
7.17018
7.1085
7.12937
7.08737
7.11351
7.13409
7.15468
7.24059
7.17854
7.18857
7.17435
7.2464
7.18427
7.20834
7.17178
7.13768
7.15999
7.18202
7.18026
7.16275
7.16249
7.17976
7.19843
7.18969
7.17206
7.14784
7.14071
7.09008
7.15224
7.23988
7.21605
7.24851
7.20599
7.19129
7.19668
7.25613
7.21735
7.21181
7.17204
7.15343
7.17765
7.20079
7.18243
7.17251
7.17343
7.19542
7.20081
7.19423
7.19511
7.2108
7.17609
7.14731
7.21906
7.34717
7.28558
7.24716
7.22995
7.17956
7.19833
7.22702
7.24448
7.21881
7.17941
7.16702
7.1906
7.21963
7.19178
7.18166
7.18606
7.20539
7.21041
7.19741
7.20931
7.24368
7.20913
7.17841
7.24138
7.34862
7.29344
7.2438
7.24173
7.17575
7.1977
7.21048
7.25512
7.2218
7.18854
7.1764
7.19661
7.22939
7.20169
7.1913
7.19912
7.2023
7.21983
7.19937
7.20532
7.23096
7.22305
7.16802
7.20688
7.27977
7.26561
7.23938
7.23935
7.19566
7.19738
7.20597
7.25016
7.22224
7.19797
7.18258
7.19986
7.23159
7.21026
7.20065
7.21067
7.19994
7.22913
7.20367
7.18764
7.19908
7.22034
7.17493
7.17079
7.21938
7.23365
7.22365
7.2238
7.21072
7.19914
7.20325
7.24281
7.2286
7.2027
7.18932
7.20207
7.2291
7.21766
7.20753
7.21572
7.19368
7.2463
7.21389
7.17491
7.17769
7.22977
7.17625
7.15756
7.18138
7.20797
7.21443
7.20813
7.20917
7.1959
7.20063
7.23512
7.22112
7.20395
7.19459
7.2025
7.22468
7.21852
7.21148
7.21644
7.189
7.27222
7.21166
7.17682
7.17821
7.2459
7.18541
7.16156
7.16442
7.19386
7.23422
7.21455
7.21032
7.19171
7.19616
7.22734
7.21551
7.20137
7.19801
7.19986
7.22125
7.2146
7.21126
7.21577
7.19077
7.24845
7.16449
7.17995
7.18683
7.23799
7.1966
7.17116
7.15408
7.18958
7.23497
7.21583
7.21325
7.18457
7.19418
7.22368
7.21504
7.19984
7.20183
7.19761
7.22056
7.21177
7.2123
7.21835
7.19962
7.2001
7.1471
7.18501
7.19136
7.19106
7.18525
7.16792
7.14846
7.19376
7.22197
7.20276
7.19475
7.17442
7.19545
7.22273
7.2114
7.19867
7.20552
7.19732
7.22295
7.21601
7.21629
7.22384
7.21066
7.18662
7.17502
7.19438
7.20055
7.18032
7.17121
7.16673
7.15684
7.20469
7.21583
7.21455
7.19725
7.17231
7.2034
7.22517
7.21819
7.19901
7.2113
7.20051
7.22859
7.22666
7.22336
7.2326
7.22815
7.20092
7.21091
7.22016
7.21727
7.18229
7.20534
7.19455
7.17931
7.22195
7.21477
7.21462
7.20966
7.17483
7.21691
7.23294
7.22409
7.21115
7.21858
7.2086
7.23718
7.24363
7.23307
7.24196
7.24674
7.22308
7.23879
7.2561
7.24121
7.20481
7.23964
7.22194
7.20325
7.23932
7.21695
7.21114
7.20794
7.19284
7.22876
7.24323
7.22254
7.21911
7.22083
7.21323
7.24459
7.24972
7.23858
7.24599
7.25766
7.22838
7.24615
7.27161
7.24651
7.21637
7.25819
7.22735
7.21002
7.24593
7.20778
7.20468
7.19706
7.19907
7.22546
7.24583
7.20785
7.20258
7.21478
7.20948
7.24478
7.2302
7.23133
7.23989
7.23198
7.22014
7.22537
7.2344
7.21665
7.20666
7.2215
7.19895
7.1915
7.22737
7.18919
7.18133
7.18167
7.18948
7.20746
7.23796
7.18348
7.17744
7.20575
7.19987
7.23663
7.20782
7.21803
7.22773
7.20087
7.20837
7.20154
7.20164
7.18836
7.19347
7.19549
7.17158
7.16835
7.20155
7.17877
7.17482
7.18125
7.18625
7.18896
7.22536
7.18278
7.17142
7.19628
7.1854
7.22087
7.19407
7.20848
7.21685
7.18631
7.19907
7.18497
7.18411
7.17182
7.18675
7.18453
7.15771
7.15706
7.1776
7.17975
7.17702
7.18843
7.18353
7.1783
7.21018
7.17652
7.17953
7.1861
7.17181
7.20298
7.19017
7.20155
7.20786
7.18294
7.19329
7.17749
7.1774
7.16528
7.18137
7.17917
7.1551
7.15898
7.16379
7.18774
7.18118
7.18525
7.17648
7.16837
7.19483
7.17168
7.1904
7.18256
7.16542
7.18957
7.18984
7.19515
7.19911
7.1852
7.18802
7.17467
7.1791
7.17139
7.17052
7.17517
7.16326
7.1682
7.16581
7.19497
7.18247
7.18482
7.17212
7.16573
7.18677
7.17985
7.19427
7.18104
7.16816
7.18352
7.18957
7.19088
7.19148
7.19186
7.18232
7.17546
7.18695
7.18405
7.15213
7.17138
7.17893
7.17974
7.18053
7.19278
7.17254
7.18495
7.17763
7.17625
7.18767
7.18394
7.19727
7.18083
7.17083
7.18452
7.20283
7.18837
7.18938
7.19965
7.1819
7.1746
7.19351
7.19473
7.14311
7.16974
7.19503
7.19032
7.19349
7.17865
7.15568
7.18304
7.19117
7.18431
7.19407
7.18001
7.19342
7.18094
7.17605
7.19018
7.20481
7.18908
7.19079
7.20614
7.17954
7.17016
7.19081
7.1988
7.14756
7.16727
7.2065
7.19869
7.20217
7.17146
7.14157
7.18308
7.20707
7.18716
7.20254
7.17491
7.18367
7.18573
7.18295
7.19703
7.19382
7.18986
7.19144
7.20407
7.18083
7.15979
7.17618
7.1958
7.15143
7.1631
7.20472
7.20244
7.20585
7.17058
7.13933
7.18494
7.21904
7.19888
7.20549
7.18012
7.17811
7.19644
7.1902
7.20572
7.18703
7.19346
7.19607
7.19396
7.14692
7.12736
7.15515
7.18776
7.15517
7.15212
7.1889
7.19848
7.20352
7.16734
7.14384
7.18876
7.21377
7.20915
7.20654
7.17983
7.1852
7.20587
7.20333
7.21003
7.19446
7.20322
7.20931
7.17581
7.10679
7.10257
7.13935
7.17921
7.15101
7.12964
7.16631
7.19111
7.20131
7.17277
7.15978
7.18819
7.19614
7.21079
7.2069
7.17921
7.19885
7.20926
7.21347
7.20983
7.20316
7.20985
7.21387
7.16333
7.11407
7.10298
7.12765
7.17423
7.14356
7.09988
7.14119
7.18553
7.19705
7.17668
7.17052
7.18133
7.17994
7.20505
7.20646
7.17879
7.19676
7.20447
7.2146
7.21238
7.20702
7.2232
7.21587
7.1653
7.14545
7.11946
7.13038
7.17553
7.14725
7.08334
7.11563
7.17966
7.19514
7.18013
7.17248
7.17295
7.16504
7.19433
7.20412
7.17839
7.19091
7.19341
7.20389
7.20833
7.20378
7.21532
7.22015
7.17579
7.17002
7.13764
7.14026
7.17856
7.1561
7.08418
7.10325
7.16795
7.19215
7.18438
7.17335
7.16384
7.14454
7.18457
7.2041
7.1787
7.18635
7.17762
7.20412
7.21073
7.1996
7.20087
7.22343
7.18829
7.18012
7.15413
7.15069
7.18226
7.16387
7.09802
7.1015
7.1595
7.19254
7.1887
7.17645
7.15708
7.12767
7.17214
7.20389
7.1799
7.18286
7.16912
7.1933
7.21327
7.19754
7.18976
7.20944
7.19747
7.18832
7.16584
7.16014
7.18595
7.17328
7.11785
7.10732
7.15682
7.19536
7.19441
7.18188
7.15493
7.12519
7.15384
7.19885
7.18262
7.18096
7.16328
7.17398
7.20547
7.19874
7.18345
7.19424
7.20396
7.20249
7.17849
7.16954
7.18892
7.18707
7.138
7.1105
7.1529
7.19496
7.20224
7.19138
7.15768
7.12977
7.14611
7.1889
7.18724
7.18226
7.16269
7.15634
7.19168
7.20345
7.1832
7.18623
7.21277
7.22254
7.19661
7.18098
7.19239
7.2042
7.15952
7.11796
7.13796
7.1876
7.20911
7.2008
7.16391
7.13625
7.13485
7.17648
7.19303
7.18623
7.16672
7.14589
7.18093
7.20891
7.18768
7.18507
7.22436
7.24234
7.22265
7.19505
7.1955
7.22079
7.18293
7.13921
7.11731
7.17345
7.21283
7.20697
7.17418
7.14558
7.11666
7.16285
7.19777
7.19228
7.17371
7.14401
7.17222
7.21155
7.19579
7.18924
7.2401
7.25674
7.24746
7.21206
7.20349
7.23192
7.20562
7.15841
7.12327
7.1609
7.21364
7.21006
7.18614
7.16036
7.11333
7.14853
7.19978
7.19802
7.18008
7.1506
7.16201
7.21266
7.20444
7.19508
7.26017
7.26417
7.2626
7.2395
7.21855
7.23824
7.22715
7.17957
7.13604
7.14973
7.21266
7.20834
7.196
7.17238
7.13563
7.12795
7.19935
7.19941
7.18452
7.15985
7.15679
7.20995
7.20804
7.19907
7.27591
7.26698
7.26868
7.25902
7.24128
7.23771
7.23577
7.20482
7.15643
7.13641
7.21388
7.20672
7.20041
7.17977
7.1479
7.12016
7.19852
7.19625
7.18271
7.16948
7.15589
7.20599
7.20204
7.19656
7.27193
7.26718
7.26812
7.2569
7.24304
7.23944
7.23245
7.21256
7.17286
7.14947
7.21783
7.20678
7.19957
7.17968
7.14805
7.12608
7.19881
7.19225
7.17423
7.16798
7.1541
7.20142
7.19342
7.18842
7.26731
7.26811
7.26712
7.25342
7.23607
7.24552
7.22956
7.20627
7.15689
7.14199
7.22326
7.20988
7.19503
7.17213
7.1247
7.10297
7.20089
7.19059
7.16061
7.15063
7.13147
7.1972
7.18219
7.17114
7.27142
7.27257
7.26996
7.25671
7.23538
7.25454
7.23113
7.19016
7.1218
7.09358
7.23017
7.21535
7.1925
7.15561
7.07852
7.02243
7.20634
7.19114
7.14861
7.11861
7.07164
7.19407
7.16939
7.14687
7.28571
7.28217
7.27879
7.26578
7.24821
7.26566
7.23536
7.16993
7.05956
6.96948
7.24193
7.22472
7.19228
7.13405
6.99338
6.80866
7.21372
7.19466
7.14107
7.06989
6.95021
7.19391
7.15844
7.12038
7.30866
7.29631
7.29423
7.28084
7.28162
7.278
7.24179
7.14425
6.9693
6.6691
7.25663
7.24153
7.19492
7.0961
6.85713
6.2942
7.22123
7.19796
7.13757
7.00055
6.69177
7.1966
7.156
7.09547
7.32928
7.31416
7.31559
7.29118
7.31705
7.29243
7.24677
7.11777
6.81381
5.78383
7.27566
7.26986
7.2023
7.04859
6.69831
5.608
-5.37142
7.22859
7.20509
7.13159
6.937
6.15318
7.20058
7.15613
7.08022
7.32113
7.3349
7.34297
7.27184
7.21205
7.30371
7.24315
7.0878
6.6213
4.87176
0.397269
7.28584
7.27817
7.19517
7.06569
6.57958
5.2469
0.318734
7.24358
7.21565
7.12668
6.8967
5.5544
7.21306
7.16571
7.08367
7.3415
7.3507
7.36231
7.29865
7.04869
7.3102
7.2349
7.03286
6.43103
4.6208
0.822262
7.28676
7.2745
7.18685
7.04707
6.60829
5.05122
1.17364
7.25448
7.22473
7.13736
6.98022
6.04606
2.07735
7.22559
7.17656
7.11508
7.28088
7.34176
7.32902
7.22855
6.9119
7.30193
7.21348
6.91001
6.3442
4.55777
0.877429
7.27793
7.26218
7.17037
6.97996
6.65113
5.11914
1.11556
7.2564
7.22551
7.14474
6.99345
6.57491
7.23624
7.18342
7.15163
7.21056
7.29041
7.26196
7.15944
6.88788
7.23443
7.15833
6.88085
6.45759
5.58474
7.25706
7.23468
7.15533
6.99469
6.76781
5.55382
-1.26488
7.24967
7.21968
7.15792
7.04106
7.07472
7.24103
7.19128
7.1856
7.17563
7.26285
7.23051
7.14047
6.96641
7.20716
7.11597
6.90887
6.69209
6.67785
7.25129
7.2195
7.15845
7.02085
6.97029
6.7884
7.24697
7.21386
7.18209
7.12613
7.24627
7.24051
7.20397
7.21468
7.17477
7.27055
7.22071
7.14996
7.08239
7.25168
7.10222
6.97826
6.88278
7.07231
7.26237
7.23325
7.15279
7.04915
7.08653
7.12055
7.25475
7.22066
7.2038
7.17977
7.28005
7.24538
7.22033
7.24168
7.20114
7.2613
7.21932
7.17821
7.18947
7.25921
7.10455
7.07731
7.02989
7.22526
7.26658
7.25024
7.15846
7.11073
7.1704
7.24302
7.26637
7.23849
7.22858
7.22493
7.31119
7.25581
7.24551
7.26596
7.24843
7.25678
7.24388
7.21978
7.26643
7.2307
7.13861
7.15141
7.15825
7.32348
7.25352
7.24221
7.18943
7.19388
7.24599
7.32451
7.26841
7.25814
7.26214
7.27651
7.34706
7.26293
7.27038
7.30262
7.31114
7.2606
7.28073
7.27294
7.32261
7.22216
7.18651
7.22355
7.25865
7.38935
7.24056
7.23269
7.23656
7.25454
7.3133
7.38367
7.27493
7.28097
7.3079
7.33664
7.39054
7.28379
7.3054
7.34875
7.38577
7.27598
7.31989
7.3386
7.37498
7.22754
7.22958
7.2825
7.31386
7.41724
7.24438
7.24029
7.27519
7.30351
7.36295
7.41949
7.2926
7.31512
7.3518
7.38496
7.42643
7.32273
7.36188
7.40072
7.45702
7.31309
7.35134
7.39732
7.42972
7.24513
7.27567
7.31919
7.361
7.43702
7.26966
7.26065
7.27907
7.31001
7.3724
7.42939
7.31492
7.3379
7.3679
7.41591
7.44264
7.3677
7.40981
7.4425
7.48943
7.359
7.37927
7.42495
7.46558
7.27847
7.30055
7.34146
7.38768
7.44966
7.30306
7.2878
7.30401
7.34132
7.40249
7.43545
7.32854
7.35679
7.39123
7.43511
7.45064
7.40159
7.44008
7.46576
196.117
216.496
191.291
219.88
230.168
241.115
231.703
225.235
172.748
186.791
208.27
193.753
186.748
199.325
205.544
185.953
187.108
219.081
216.487
179.596
196.94
223.934
223.126
208.125
218.743
213.92
185.019
171.313
194.316
191.713
190.121
195.078
179.716
181.444
167.73
152.25
159.948
165.67
181.752
169.814
180.734
197.566
209.7
192.964
200.455
207.366
197.378
183.758
165.383
176.784
156.727
175.626
145.521
163.582
116.914
124.422
157.034
111.458
149.667
171.548
179.178
165.906
171.899
185.905
177.524
158.451
115.456
163.014
158.306
123.211
150.501
159.92
122.979
164.302
161.889
102.036
142.827
119.863
114.752
160.369
149.354
97.3363
75.7701
112.321
81.1076
64.254
70.0548
88.2655
154.31
144.401
104.597
107.734
67.2352
75.5357
80.1288
72.6741
132.805
104.736
147.904
124.142
149.564
110.836
107.233
111.205
172.52
190.452
98.1842
108.309
137.54
196.329
155.476
95.8166
82.6134
127.521
107.615
112.65
92.3375
99.0098
84.9143
90.3503
194.797
189.273
191.99
160.178
158.24
162.221
159.117
183.996
153.034
94.1172
118.976
120.236
80.4985
88.2137
82.4907
159.595
148.614
146.739
126.145
111.925
127.956
123.658
96.3702
96.3239
103.822
116.289
68.0656
72.3831
83.4138
48.4476
118.453
99.104
93.765
119.695
103.7
90.7199
82.2877
88.8075
77.6541
47.9318
47.229
45.6151
46.6372
44.2189
46.6842
45.4869
44.3835
106.973
72.8729
61.0512
58.422
60.6137
53.469
52.4954
49.6709
49.0419
49.9635
49.0602
50.0905
47.9154
94.2151
69.8944
90.5145
103.145
95.2816
76.5429
81.3377
75.1155
89.7711
98.7989
83.4401
81.658
74.9093
106.609
70.0605
80.4686
68.9869
89.9749
80.616
84.0696
64.6563
67.009
68.075
70.9883
108.032
108.337
104.713
65.9964
63.0229
64.4671
56.6579
98.9834
53.7606
78.7577
76.2098
74.7056
70.9637
70.4384
70.4451
73.1443
67.7073
43.5845
38.0759
38.0359
78.8389
87.7606
69.926
69.0738
70.8149
53.4474
39.906
36.9457
35.6027
36.4205
84.8573
69.1801
78.0147
74.8549
73.3775
67.0792
75.8601
64.4709
65.1522
41.2963
43.1276
43.284
40.0184
38.3942
40.8394
39.7961
38.5904
60.8513
52.0349
48.9415
50.2349
46.8001
46.2956
49.033
47.6269
47.8076
43.7991
46.2881
44.4609
43.5785
13.3389
6.85467
35.2626
17.0664
25.0448
7.44909
6.54245
7.08865
54.8664
40.7004
12.1302
10.4373
9.50494
35.7818
11.5821
32.37
6.86809
13.2547
35.5034
42.58
6.74137
6.42241
8.38125
9.53387
24.0386
30.3055
16.9584
8.72504
8.07639
8.70677
7.41438
19.7867
7.83589
50.2371
50.987
56.6632
8.43105
8.17256
10.3319
8.60774
11.2484
6.73168
6.62872
6.69505
51.0009
47.1972
8.443
9.7077
12.0497
12.6537
30.0727
6.91018
6.71321
9.0319
48.0214
17.8183
65.4462
49.8316
51.5797
28.2425
42.5249
30.8485
34.3378
35.4112
39.2662
35.2687
14.2578
33.2175
28.7973
32.6853
25.1302
45.334
36.0222
44.3153
45.4745
40.1009
43.8286
41.985
45.1164
40.6935
35.9765
35.4438
36.7449
30.8855
7.38358
7.0741
7.01695
7.32177
7.08251
7.28738
7.17744
7.20434
6.82779
6.85938
7.269
7.15299
7.19375
7.14257
7.12769
6.36761
7.19977
7.29665
6.57934
6.4608
7.09328
7.10798
7.02232
7.13786
7.14194
6.78755
7.17604
7.06638
7.17696
6.93724
7.15023
7.11823
7.12183
5.77316
6.28449
5.79871
7.28363
7.09555
7.13376
7.11277
7.12523
7.05516
7.04043
7.05373
6.13469
6.26612
6.92659
6.86555
6.73004
6.87615
5.77785
7.02811
7.03938
7.13581
6.58645
6.6511
12.1578
10.3056
16.6079
6.51734
6.49519
6.51517
6.68444
14.7157
6.7719
19.8634
6.51527
3.80187
4.88143
3.68917
5.55697
20.1707
6.81217
30.9316
21.0197
6.95788
6.75843
6.04665
7.22521
18.071
4.17182
4.8364
3.63336
5.21502
7.06839
7.07195
7.15231
7.10919
7.11367
7.11522
7.08646
7.10058
7.00851
6.99965
7.11094
7.09111
7.10294
7.0344
7.09004
7.1272
7.0922
7.08299
7.05295
7.11125
7.05815
7.08711
7.06263
7.08505
7.06538
7.00692
7.06506
7.04842
7.08208
7.03089
7.03441
7.07515
7.06081
7.13489
6.97188
7.02585
7.07236
7.04429
7.03235
7.08588
7.08055
7.04244
7.08924
7.07031
6.76361
6.72689
6.90156
6.85476
6.79191
7.08653
7.36
6.99654
7.02306
7.15657
6.74712
6.74765
6.74805
6.70549
6.67442
6.70654
6.75701
6.6807
6.71838
6.79499
6.70876
6.24338
6.98735
7.36057
6.91505
7.42379
7.34663
6.62648
6.75595
6.48569
6.50345
6.77924
6.7329
6.59037
7.16376
6.21452
7.42304
7.26213
7.08424
6.9805
7.06262
7.05528
7.08962
7.04892
7.07143
7.05033
7.04851
7.03359
7.03332
7.02914
7.035
7.01843
7.00965
7.03956
7.01198
7.06926
7.04768
7.07346
7.06015
7.07053
7.04658
7.05172
7.04649
7.07535
7.03893
7.01514
6.9789
7.00379
7.02991
6.9494
6.97681
7.03519
7.01597
7.06163
7.06451
7.06905
7.04538
7.06349
7.07397
7.05859
7.0752
7.05842
7.02468
7.05326
7.05673
7.01887
7.02329
7.01581
7.0064
7.00226
7.02611
6.99606
7.01065
6.92093
6.85735
6.93732
6.92373
6.8744
6.98235
7.08154
6.8387
6.9733
6.97091
7.25555
6.94582
6.97701
6.95744
6.94958
6.9593
6.98426
6.95407
6.95482
6.83145
6.83498
6.82365
6.77705
6.77247
6.80098
6.82864
6.77909
6.77944
6.92899
6.83929
7.06823
6.90099
6.77649
6.82913
6.87045
6.64372
6.76537
6.77269
6.6687
6.646
6.72869
6.68927
6.71595
6.9833
6.91254
6.81891
6.89365
6.83609
6.85827
7.03079
7.01116
7.02096
7.02753
7.00742
7.00255
7.01231
6.99496
6.99622
6.98603
6.98962
6.9822
6.97137
6.99723
6.99227
7.02772
7.00386
7.03136
7.02265
7.05549
7.01524
7.01487
6.99406
7.01241
7.03473
6.96605
7.01054
7.00062
7.03098
6.99002
7.02295
7.01826
7.03591
7.01372
7.02397
7.00294
7.01684
6.99586
7.01119
7.01664
7.02818
7.03781
6.99213
6.98585
6.98772
7.04165
7.02755
6.99514
7.00525
7.00852
6.96423
6.94479
7.01962
6.99183
6.99894
6.99483
7.01212
6.96504
6.98798
6.91509
6.87549
6.90726
6.89859
6.85987
6.93188
7.17325
6.80032
6.89588
6.85192
6.95313
6.70447
6.96894
6.93692
6.94804
6.92337
6.96331
6.90252
6.9366
6.83452
6.82397
6.82262
6.7894
6.77829
6.80741
6.79688
6.77257
6.75218
6.84316
6.8402
6.90734
6.94551
6.89335
6.84187
6.94267
6.6056
7.25497
6.8871
6.91259
6.81928
6.9138
6.76974
6.74574
6.71638
6.76498
6.72676
6.71241
6.77888
6.94271
6.86889
6.78244
6.97687
6.87142
6.94898
6.99586
6.98584
6.98751
6.99709
6.98215
6.98359
6.99112
6.98026
6.97847
6.96453
6.98308
6.98399
6.96727
6.99377
7.00688
6.98088
6.95916
6.99757
6.96978
6.97791
6.98404
6.98224
6.94522
6.94415
7.02795
7.00148
7.0308
7.01295
7.02643
7.01122
7.03548
7.00469
7.02879
6.99573
7.0234
6.99315
7.01071
6.99454
7.01138
6.96588
6.94918
6.94607
6.93876
6.91944
6.9138
7.01834
6.90774
6.92857
6.98617
7.01924
6.87587
6.94689
7.01102
6.96123
6.99014
6.9968
7.01213
6.97391
7.00171
6.88309
6.84307
6.88133
6.86418
6.82774
6.88535
6.7973
6.67018
6.88217
6.95567
6.79501
6.84855
6.9788
6.88178
6.96274
6.97257
7.00431
6.96093
7.01464
6.81421
6.80028
6.76531
6.75862
6.72694
6.77504
6.73504
6.74461
6.70366
6.91294
6.83898
6.9537
6.93931
6.92982
6.85362
6.94524
7.1393
7.21903
7.34969
6.96054
6.97704
7.01075
6.72018
6.68981
6.67622
6.73728
6.68421
6.61348
6.66143
6.95267
6.80819
6.76501
6.92414
6.78476
6.94674
6.98013
6.97877
6.9868
6.99317
6.98524
6.9973
7.00004
6.99753
6.9954
6.98419
7.00936
7.01243
7.01408
7.02387
7.04359
6.94668
6.94057
6.97075
6.92585
6.9151
6.96912
6.9634
6.91442
6.89672
7.02889
7.0252
7.03472
7.04135
7.03713
7.04056
7.03619
6.99624
6.99753
6.9231
6.90689
6.89756
6.91787
6.90529
6.89284
7.06582
6.90048
7.0323
6.98719
7.06401
6.96964
7.08737
7.022
6.99409
7.01947
7.00336
7.02144
7.01219
7.02267
6.86018
6.83067
6.88697
6.86311
6.84109
7.05147
6.89625
7.15338
6.94235
7.09769
6.88921
7.20879
7.03298
7.00272
7.02357
7.03215
7.03924
7.03254
7.03231
6.80803
6.82406
6.7215
6.75614
6.69692
6.79181
6.73675
6.77989
6.71749
6.95583
6.90362
6.93143
6.9804
7.00332
6.96767
6.98298
6.79322
6.68826
6.71016
6.55145
6.58224
6.6807
6.52722
6.54993
6.93351
6.83291
6.82926
6.96712
6.88596
7.0478
6.98203
6.99079
7.01171
7.00776
7.01283
7.02704
7.01614
7.02706
7.03154
7.04323
7.04571
7.04869
7.06038
7.06181
7.0671
6.94901
6.96449
6.9618
6.91441
6.89041
6.9804
6.96602
6.92401
6.89682
7.05222
7.0512
7.04818
7.06467
7.06644
7.06684
7.06011
7.03331
7.07328
6.92831
6.91905
6.9025
6.94723
6.94055
6.92081
7.02153
7.09637
7.05468
7.0491
7.00402
6.88197
6.86891
6.93951
6.91093
6.90545
7.15596
7.02191
7.10177
7.03677
7.2039
6.8673
6.9166
6.77893
6.83358
6.76682
6.8825
6.82988
6.89444
6.8416
7.0981
7.00727
7.02528
7.14716
7.32047
7.02862
7.09785
7.38149
6.77981
6.87997
6.57492
6.61652
6.83892
6.74375
6.78692
7.05947
6.97342
7.02961
7.2283
7.07384
7.22544
7.00289
7.01836
7.04207
7.02469
7.03991
7.0569
7.03543
7.05286
7.059
7.07472
7.07102
7.06927
7.08491
7.06792
7.06349
6.99082
7.01935
6.97494
6.94226
6.90836
7.01487
6.98962
6.96581
6.92472
7.06732
7.07514
7.06504
7.05257
7.07019
7.07968
7.0621
7.10006
7.11257
6.97633
6.97268
6.94918
7.00902
7.00993
6.98438
7.09113
7.12121
7.12782
7.13005
7.15723
6.95005
6.95096
7.02855
6.99574
7.00165
7.13914
7.30521
7.15916
7.18421
7.29667
6.97651
7.03518
6.89513
6.96508
6.92667
7.00362
6.95972
7.0331
7.01264
7.49456
7.08901
7.23105
7.34143
7.50895
7.22938
7.30427
7.52333
6.99473
7.08892
6.92218
6.98027
7.12264
7.06226
7.10091
7.308
7.13775
7.1421
7.2583
7.14415
7.24469
7.03653
7.05753
7.07339
7.0487
7.06761
7.09172
7.06438
7.08459
7.08384
7.09485
7.10173
7.10222
7.10807
7.07185
7.08985
7.05379
7.08632
7.00724
6.99388
6.9442
7.06399
7.02868
7.02359
6.967
7.07929
7.08904
7.06992
7.06651
7.09544
7.10146
7.08092
7.12675
7.13853
7.04544
7.05135
7.02438
7.08129
7.09208
7.06434
7.14234
7.16172
7.1464
7.14239
7.16215
7.04493
7.05372
7.12539
7.09164
7.10332
7.18146
7.25134
7.14903
7.17712
7.19504
7.09136
7.14112
7.02069
7.09426
7.08278
7.1131
7.07986
7.14676
7.13897
7.42042
7.33964
7.42317
7.22165
7.35837
7.33825
7.47369
7.29594
7.16566
7.2119
7.15998
7.1971
7.26382
7.23041
7.28207
7.19116
7.14248
7.16135
7.15173
7.16741
7.24049
7.07996
7.10164
7.11033
7.0813
7.10282
7.12643
7.09767
7.11968
7.12058
7.12335
7.13556
7.13809
7.13836
7.11284
7.13501
7.11749
7.14549
7.05313
7.05422
6.99224
7.11694
7.07843
7.08244
7.01963
7.11837
7.11515
7.09971
7.12264
7.13939
7.12874
7.12173
7.14603
7.15253
7.11511
7.1293
7.10173
7.14487
7.16113
7.13479
7.13838
7.15952
7.14415
7.13426
7.1513
7.13317
7.14625
7.19695
7.16737
7.18128
7.17168
7.1496
7.14371
7.16091
7.11759
7.18207
7.21337
7.12373
7.18786
7.17723
7.19074
7.16327
7.21854
7.21026
7.30742
7.28768
7.39136
7.15494
7.25261
7.23052
7.30407
7.18961
7.24095
7.26531
7.2638
7.31237
7.31053
7.2817
7.30372
7.15846
7.19795
7.2014
7.18549
7.22372
7.19543
7.12122
7.13735
7.13755
7.1128
7.13251
7.14203
7.12523
7.13898
7.15073
7.14779
7.14985
7.15316
7.14905
7.15364
7.15926
7.16961
7.18787
7.10313
7.10706
7.04824
7.15942
7.1246
7.12694
7.07519
7.1659
7.14012
7.13774
7.19965
7.20713
7.14412
7.14168
7.16191
7.16457
7.17043
7.18633
7.16214
7.18979
7.20523
7.1834
7.127
7.13651
7.15715
7.11757
7.11994
7.19264
7.20655
7.23337
7.20986
7.22375
7.1501
7.10249
7.13121
7.13837
7.08332
7.23464
7.24886
7.19583
7.23879
7.22661
7.23447
7.21996
7.24598
7.22874
7.21104
7.19465
7.23979
7.12541
7.18445
7.16947
7.20394
7.13315
7.27826
7.27823
7.30521
7.30851
7.30754
7.31623
7.31681
7.21568
7.26432
7.27837
7.23872
7.29227
7.20304
7.14973
7.15628
7.14191
7.13612
7.14101
7.13924
7.14407
7.14098
7.14618
7.13795
7.13174
7.1316
7.12122
7.15404
7.14255
7.19965
7.20666
7.14163
7.14217
7.10101
7.18786
7.15571
7.15249
7.12141
7.22634
7.13803
7.14391
7.17581
7.19312
7.12397
7.13174
7.14124
7.1173
7.20363
7.21779
7.1987
7.21206
7.22503
7.20793
7.11975
7.11614
7.15427
7.12313
7.12811
7.2199
7.23221
7.2434
7.22487
7.23557
7.12328
7.06412
7.11874
7.12492
7.08487
7.25499
7.25604
7.23118
7.24876
7.23029
7.24784
7.23451
7.2493
7.23156
7.17038
7.16176
7.18582
7.14009
7.17093
7.16429
7.18136
7.13738
7.2705
7.26051
7.3018
7.3046
7.27246
7.27914
7.28256
7.24435
7.29142
7.26597
7.24169
7.2775
7.21138
7.15961
7.16153
7.13586
7.14912
7.13942
7.13173
7.15164
7.1356
7.11481
7.10661
7.10306
7.09651
7.09791
7.12812
7.11518
7.20911
7.20813
7.1661
7.16041
7.13527
7.20171
7.17284
7.16721
7.14428
7.14519
7.11372
7.12073
7.12355
7.13374
7.11451
7.13334
7.10743
7.11567
7.21495
7.22705
7.21166
7.21441
7.22542
7.21094
7.13129
7.14278
7.12291
7.13523
7.1375
7.22575
7.2345
7.23683
7.22403
7.23097
7.13447
7.11814
7.14648
7.15203
7.14435
7.25222
7.24617
7.23418
7.24714
7.23473
7.23921
7.23081
7.24299
7.23287
7.17576
7.17562
7.18177
7.17223
7.1737
7.18297
7.18089
7.162
7.24895
7.2374
7.25798
7.26087
7.23943
7.23835
7.2422
7.23569
7.26167
7.23698
7.23048
7.24663
7.20855
7.16324
7.16496
7.12258
7.15237
7.12591
7.11384
7.15284
7.11366
7.08163
7.10481
7.09702
7.08441
7.12306
7.10975
7.11616
7.20457
7.19981
7.1765
7.17183
7.14857
7.19791
7.17746
7.17417
7.14919
7.14161
7.11722
7.15535
7.10929
7.1441
7.13665
7.16971
7.13898
7.15147
7.21105
7.22102
7.2068
7.20475
7.21461
7.20012
7.13867
7.13526
7.10907
7.14144
7.14992
7.22002
7.22544
7.22098
7.21377
7.21874
7.16147
7.14813
7.13857
7.15168
7.14054
7.23759
7.22806
7.22357
7.23635
7.22785
7.22101
7.21685
7.22867
7.22054
7.16553
7.18144
7.17675
7.15929
7.14934
7.17413
7.16443
7.14818
7.2264
7.21574
7.22227
7.22534
7.20961
7.20669
7.20943
7.22482
7.2336
7.21545
7.21358
7.21883
7.19189
7.16767
7.17096
7.11528
7.15424
7.10908
7.13129
7.15902
7.11994
7.10814
7.1455
7.15201
7.13975
7.17001
7.13054
7.14608
7.19447
7.18967
7.17874
7.17448
7.14654
7.19092
7.18153
7.17274
7.14369
7.14075
7.1574
7.15041
7.11837
7.13516
7.16287
7.12209
7.14526
7.1227
7.19583
7.20628
7.19231
7.18566
7.19753
7.18442
7.13119
7.14929
7.08405
7.09875
7.10151
7.20556
7.21122
7.20586
7.19709
7.20407
7.11832
7.11813
7.08191
7.08483
7.09304
7.21826
7.20975
7.20705
7.21961
7.21126
7.20355
7.19766
7.21096
7.20324
7.1268
7.1628
7.14766
7.12284
7.10628
7.1544
7.13596
7.10991
7.20623
7.1988
7.19199
7.19522
7.18942
7.17958
7.18347
7.1989
7.20116
7.18569
7.18442
7.18547
7.16723
7.17627
7.18003
7.15111
7.16424
7.14009
7.16601
7.16955
7.15538
7.15977
7.18105
7.19858
7.15795
7.17361
7.15451
7.15186
7.18577
7.18255
7.18674
7.17064
7.14175
7.18669
7.19139
7.17025
7.14606
7.12888
7.12342
7.09687
7.14202
7.12062
7.08396
7.07914
7.10179
7.08691
7.17591
7.18949
7.17686
7.16843
7.18329
7.17098
7.07973
7.07757
7.05493
7.07014
7.06705
7.19051
7.19902
7.20264
7.18745
7.19778
7.07494
7.08228
7.06877
7.07376
7.07794
7.20377
7.20158
7.18872
7.20401
7.19594
7.19538
7.1835
7.1998
7.19191
7.08741
7.14867
7.12876
7.09922
7.0791
7.14511
7.12503
7.09496
7.19391
7.19116
7.17089
7.17616
7.18445
7.16579
7.1719
7.16871
7.17093
7.16041
7.15726
7.16081
7.15096
7.18193
7.18379
7.17634
7.17506
7.16818
7.18061
7.17874
7.17605
7.16159
7.16301
7.19297
7.17369
7.15385
7.14601
7.14036
7.17963
7.17842
7.19078
7.17096
7.15539
7.18611
7.18946
7.17182
7.16621
7.10657
7.05811
7.07267
7.13009
7.09808
7.05471
7.0779
7.08158
7.08504
7.16425
7.17996
7.16784
7.1629
7.18082
7.16848
7.07039
7.06826
7.07102
7.07967
7.07728
7.18825
7.2015
7.21544
7.19304
7.21034
7.09316
7.10124
7.11103
7.11482
7.12407
7.20303
7.2081
7.18029
7.19818
7.18992
7.19973
7.1805
7.19923
7.18978
7.08582
7.14647
7.13178
7.11782
7.10055
7.14974
7.13763
7.12483
7.19072
7.19153
7.16455
7.17116
7.18514
7.16486
7.1716
7.15007
7.15463
7.15126
7.14643
7.15268
7.15058
7.18578
7.18915
7.17943