/*--------------------------------*- C++ -*----------------------------------*\
| =========                 |                                                 |
| \\      /  F ield         | OpenFOAM: The Open Source CFD Toolbox           |
|  \\    /   O peration     | Version:  5.x                                   |
|   \\  /    A nd           | Web:      www.OpenFOAM.org                      |
|    \\/     M anipulation  |                                                 |
\*---------------------------------------------------------------------------*/
FoamFile
{
    version     2.0;
    format      ascii;
    class       surfaceScalarField;
    location    "5";
    object      phi;
}
// * * * * * * * * * * * * * * * * * * * * * * * * * * * * * * * * * * * * * //

dimensions      [0 3 -1 0 0 0 0];

internalField   nonuniform List<scalar> 
29271
(
-3.93886e-06
4.28749e-07
-5.62085e-07
4.03976e-06
-7.02319e-06
-1.65945e-07
1.57686e-06
5.71581e-06
-1.72638e-05
-1.92249e-06
-1.09958e-06
-1.61464e-06
2.69517e-06
1.92054e-05
-1.5551e-05
-1.68376e-06
4.64928e-06
-4.1906e-06
5.77913e-06
1.09969e-05
-1.35616e-05
-5.51311e-07
-2.23326e-07
2.56095e-06
1.01098e-05
1.66554e-06
-1.75834e-05
-1.84405e-06
-1.54183e-06
8.21027e-07
-6.96933e-07
2.08452e-05
-1.39694e-05
1.48805e-07
2.22328e-06
-4.79451e-06
1.42255e-06
1.49692e-05
-2.35429e-05
-4.02541e-06
1.32376e-05
-1.6254e-05
1.94882e-07
3.03898e-05
-1.70139e-05
-4.13396e-06
7.99406e-06
-1.78549e-06
3.54657e-06
1.13928e-05
-1.40518e-05
-2.67374e-06
6.72227e-06
1.01455e-05
-1.77961e-07
-5.48972e-06
3.68004e-07
9.34848e-07
4.24367e-06
-1.54691e-05
-2.64352e-06
1.29638e-06
3.52414e-06
6.38483e-08
1.32283e-05
-2.60371e-05
-8.9373e-06
2.19367e-06
-1.10607e-05
1.70781e-05
2.67632e-05
-1.35873e-05
-1.88299e-06
5.97335e-06
-2.00693e-06
3.24766e-06
8.25617e-06
-1.34481e-05
-5.18648e-06
-2.17337e-06
3.96387e-06
7.32329e-06
9.52079e-06
-1.8659e-05
-9.39913e-06
-5.47031e-06
1.44226e-05
1.81349e-05
9.70868e-07
-1.60921e-05
-2.83243e-06
9.56952e-06
-5.09643e-07
9.63991e-06
2.24713e-07
-2.32587e-05
-6.09489e-06
-2.04704e-05
6.6395e-09
9.11306e-06
4.07043e-05
-1.18852e-05
-5.19084e-06
-3.02507e-07
1.68688e-06
8.6569e-06
7.0348e-06
-1.95406e-05
2.66325e-06
6.60977e-06
2.10089e-05
-8.26916e-06
-2.47215e-06
-7.36115e-06
-5.74589e-06
6.56337e-07
1.23702e-05
-1.11742e-05
-2.29041e-06
6.6191e-06
6.47478e-06
4.14578e-07
-2.31297e-05
-7.03499e-06
2.28463e-06
-1.97961e-06
3.79758e-05
-8.11612e-06
-5.91556e-06
-1.20501e-06
-1.85585e-07
7.27714e-06
-6.72719e-06
-1.78041e-06
-5.18612e-06
1.36748e-05
-3.05052e-06
-8.72175e-07
1.71684e-06
2.23405e-06
-3.14671e-06
1.80307e-06
-1.66304e-05
8.10902e-07
7.91503e-06
9.24814e-06
1.28264e-06
-7.47679e-06
-1.22423e-06
-2.41762e-07
1.32956e-06
6.33058e-06
-9.13174e-06
-2.33644e-08
1.06229e-07
5.76814e-07
8.36117e-06
1.10893e-07
-6.5226e-06
-1.61849e-06
-3.18374e-05
-2.18469e-06
1.38701e-05
2.8293e-05
4.00172e-06
4.47646e-06
5.93742e-05
-1.48179e-05
-2.01759e-05
-1.58002e-05
-1.32041e-05
-1.34688e-05
-1.13388e-05
-3.44212e-06
-4.32959e-06
8.37748e-06
7.10342e-06
3.60125e-06
9.64294e-06
4.1419e-06
2.97667e-06
5.62212e-05
-2.4394e-05
-1.17473e-05
-9.05592e-06
-7.55152e-06
-2.65289e-06
-1.20814e-06
-1.65937e-06
-1.06893e-06
-4.76868e-07
2.06941e-06
4.5749e-05
-1.96295e-06
-1.40744e-06
-1.40564e-06
-1.08797e-06
-2.5297e-07
-1.54074e-07
-9.64308e-08
-1.03045e-05
-9.12727e-06
-8.65367e-06
-8.74667e-06
-9.00172e-06
-7.96491e-07
1.26815e-06
8.05689e-06
-2.63861e-06
5.6044e-07
1.02e-06
1.0765e-06
-5.51354e-06
-1.51915e-05
-3.36875e-06
6.18582e-06
-1.94232e-06
1.98303e-05
7.94384e-06
1.1173e-05
4.03428e-05
-1.84514e-05
-6.32046e-06
-2.16905e-05
-7.66244e-06
-1.11215e-06
-2.67774e-06
3.51826e-06
-5.86689e-07
4.04084e-06
1.19885e-06
2.57998e-05
-5.5345e-06
-5.35696e-06
-4.8414e-06
-4.38611e-06
-1.39104e-07
-6.56399e-08
4.0963e-05
-3.24626e-07
3.97911e-08
1.8224e-06
8.30005e-06
-1.5e-06
5.7994e-06
-5.6753e-06
-5.94523e-06
-7.09265e-06
-3.00718e-05
-9.00448e-06
-1.81176e-06
-1.98038e-06
7.80288e-06
4.85463e-06
-5.85605e-06
-1.84316e-06
5.09791e-06
5.34188e-07
2.72915e-06
-6.62034e-07
1.639e-05
7.03305e-06
4.90518e-05
-1.35124e-05
-3.26944e-06
-5.0631e-06
-2.30651e-06
1.70795e-05
1.09199e-05
2.02154e-05
-3.06575e-05
-8.75561e-06
-2.51629e-05
-2.07892e-05
2.84085e-06
5.01304e-06
3.58778e-05
4.02222e-06
2.79475e-06
6.37561e-06
2.41319e-06
3.75275e-06
1.52759e-06
-3.97998e-06
-5.89598e-06
-1.38608e-05
-2.32923e-05
-2.22116e-05
5.5094e-06
-1.18176e-06
2.06592e-05
-2.64249e-05
-9.40167e-06
2.14902e-06
3.36732e-05
-9.51063e-06
-2.475e-06
9.23372e-06
9.73426e-06
-5.1833e-05
-1.21343e-05
1.21345e-05
-2.21463e-06
5.90605e-05
-1.76598e-05
7.91288e-06
-1.19657e-05
2.17163e-05
-9.46785e-06
1.69698e-06
3.36168e-06
4.50389e-06
-2.83063e-06
4.81421e-07
-1.86306e-06
4.22974e-06
2.44619e-09
-1.83192e-07
-7.98361e-06
-5.28693e-08
-1.17161e-06
9.38883e-06
-4.10926e-06
-1.0268e-05
-1.08897e-06
5.79485e-07
9.68853e-07
1.39179e-05
-8.44927e-06
-8.08578e-07
4.81785e-07
4.00627e-07
8.36091e-06
1.45278e-08
4.46e-06
7.76976e-07
-2.49641e-05
2.1894e-06
-4.19388e-06
2.17316e-05
1.30744e-05
-1.89013e-06
0.000100598
-3.09415e-07
-1.43774e-06
1.30532e-06
8.86256e-07
-1.05931e-05
-2.08261e-05
-4.63707e-06
-1.67967e-05
4.20248e-06
1.25269e-06
6.8983e-05
-1.10124e-06
-1.62687e-06
-1.32138e-06
-1.09312e-06
5.14136e-07
-2.52598e-06
5.31451e-05
-1.35226e-06
-5.48404e-07
-7.46341e-07
-1.1732e-06
3.53481e-07
1.00203e-06
1.28285e-06
-7.9859e-06
-8.86385e-07
6.06379e-07
8.77263e-06
-8.99745e-07
-1.16504e-07
-3.03714e-07
1.3183e-06
2.21069e-06
-2.15688e-05
-1.68917e-06
4.27019e-06
2.21765e-06
1.45594e-05
1.4596e-05
-2.13107e-06
6.14935e-05
-1.98636e-05
-5.87146e-06
-6.92879e-06
-2.84192e-06
1.759e-06
-6.50968e-06
4.63991e-05
-2.16723e-07
-6.26199e-06
7.50172e-05
-1.61268e-06
6.1881e-07
-1.09659e-07
-8.96565e-06
-2.96062e-06
-1.53126e-05
-5.70655e-06
5.00415e-07
3.58066e-07
-4.24281e-06
8.87415e-06
-3.59952e-06
1.35151e-07
-5.63213e-07
3.97805e-07
4.4177e-06
-7.87928e-07
1.23551e-05
-1.11136e-06
4.23371e-05
-3.15468e-06
-1.54994e-06
-1.73268e-06
-1.16812e-06
3.81491e-06
-1.15396e-06
-1.71556e-06
-3.44131e-06
-1.48765e-05
9.98974e-05
-4.02016e-06
-1.47196e-06
-1.98574e-06
-1.41121e-05
-1.40077e-05
-4.2587e-06
-2.11647e-05
1.834e-06
-8.67989e-06
1.83073e-05
-3.68929e-05
3.99143e-06
-2.03109e-07
3.31238e-05
-1.25099e-05
-5.07078e-07
4.65361e-06
7.26856e-06
-6.99902e-05
-1.06731e-05
6.51895e-06
-8.8109e-06
6.80787e-05
-2.17145e-05
1.42376e-05
-6.84739e-06
1.43563e-05
-3.44536e-06
-9.31474e-07
-1.19428e-06
5.56209e-06
-5.64865e-06
5.48266e-07
1.15469e-06
3.94764e-06
-2.51765e-06
-2.76525e-06
-1.12643e-05
5.87374e-07
4.65262e-06
1.13072e-05
-1.94559e-06
-1.52929e-05
-7.55992e-08
1.62893e-06
4.82203e-06
1.08631e-05
-8.25722e-06
-6.42735e-07
-6.54592e-08
6.80598e-07
8.91729e-06
-6.3248e-07
2.48849e-06
4.41754e-06
-1.86082e-05
4.40684e-08
-1.71495e-06
1.33731e-05
1.77097e-05
1.00344e-06
0.000122928
-2.58023e-06
-2.51081e-06
-7.49629e-06
-6.70265e-06
-3.40926e-06
-5.64463e-06
-7.2754e-06
-5.42344e-06
-4.28158e-06
2.32074e-05
9.00193e-05
-4.52266e-06
-3.24508e-06
-7.67727e-06
-6.80738e-06
-3.44981e-07
8.44511e-06
6.16715e-05
-1.97268e-06
-3.38215e-06
-5.22036e-06
-4.5696e-06
-1.06231e-07
-2.35819e-06
-3.29886e-06
-9.30168e-06
-1.25935e-06
2.40504e-06
7.80806e-06
-1.5069e-06
2.61638e-07
-2.46245e-07
1.49346e-06
2.2624e-06
-1.40283e-05
-3.14111e-07
-1.63577e-06
3.87866e-07
1.33279e-05
1.58076e-05
-2.7908e-06
5.74528e-05
-2.05208e-06
-1.30808e-06
-2.49871e-06
-2.11382e-06
2.0698e-06
5.83184e-06
7.75125e-05
-3.2323e-06
-2.85438e-06
0.000107992
-1.57165e-07
-6.68664e-06
-2.84352e-06
-3.95936e-06
-4.90636e-07
-2.23634e-06
-1.09497e-05
-2.81103e-06
-6.63303e-07
-5.2423e-07
1.1716e-05
-4.61563e-06
2.78549e-07
-1.64789e-07
-3.77728e-07
4.83659e-06
4.30154e-08
9.90002e-06
-1.34074e-06
3.65975e-05
-6.63756e-07
-6.64586e-07
-8.27007e-07
-6.61877e-07
-1.47874e-06
-6.38548e-07
-6.75949e-07
-5.68115e-06
-4.96835e-06
0.000139439
-1.96777e-06
-3.10157e-07
-1.81153e-06
-1.9156e-06
-4.79163e-06
-2.36361e-06
-2.38447e-05
-7.51078e-06
-1.94561e-06
2.47655e-05
-2.97579e-05
6.6313e-06
-8.85041e-06
3.19769e-05
-5.64086e-06
8.85379e-08
-3.22217e-08
4.35205e-06
-6.51706e-05
-4.17513e-06
7.19995e-06
-4.51148e-06
6.1689e-05
-1.38555e-05
-3.53958e-07
-1.97117e-06
1.61799e-05
-5.78743e-06
-1.80122e-06
3.95935e-06
3.62931e-06
-2.30084e-06
1.4507e-06
-4.79537e-07
1.32968e-06
-8.98805e-07
-3.26681e-06
-1.04402e-05
2.1848e-06
4.17957e-06
8.24146e-06
-3.66044e-08
-5.17555e-06
-1.39104e-06
2.46399e-06
7.96325e-08
4.05957e-06
-7.86441e-06
-5.92303e-07
6.78606e-07
3.30905e-06
6.32483e-06
-1.85578e-06
-1.73025e-06
-1.64319e-06
-1.00067e-05
3.39392e-06
1.83833e-06
8.14787e-06
1.69063e-05
1.57383e-05
0.000125274
-6.33691e-06
-3.6849e-06
-4.06235e-06
-1.17863e-06
-6.22702e-06
-5.44524e-06
-4.40417e-06
-3.65127e-06
5.31069e-06
1.57574e-05
9.23216e-05
-1.89921e-06
-3.57195e-06
-2.52681e-07
-7.40262e-07
8.58691e-07
4.39886e-06
6.29039e-05
-3.45429e-06
-7.97455e-07
-1.57339e-06
-3.50655e-07
-2.95896e-07
3.23149e-06
2.06088e-06
-5.33109e-06
-5.59432e-07
1.02805e-06
5.71781e-06
5.97803e-07
-2.33524e-06
1.74535e-06
-7.91386e-09
-2.19781e-06
-1.69117e-05
-7.46323e-07
2.72409e-06
8.11377e-07
1.63204e-05
6.47208e-06
9.29431e-06
7.15784e-05
-3.71201e-06
-3.53627e-06
-3.75504e-06
-3.15033e-06
-2.26358e-06
1.01975e-05
9.1808e-05
-2.92895e-06
-3.07114e-07
0.000113887
-1.35182e-06
6.65046e-07
2.04324e-07
-2.31957e-07
8.43557e-07
-6.52419e-07
-8.23413e-06
-9.62231e-07
-2.79468e-06
4.17493e-07
8.64459e-06
-6.80643e-06
-1.91061e-06
2.78617e-06
2.24993e-06
4.72243e-06
-1.0415e-06
1.4844e-06
-1.17781e-06
6.14399e-05
-3.79146e-06
-2.3237e-06
-4.14715e-06
-3.91757e-06
-2.12013e-08
-1.57463e-06
-7.89912e-08
3.01716e-06
-2.53025e-06
0.00014855
2.57636e-07
4.38257e-06
1.03417e-06
-1.68525e-06
-6.99066e-07
-1.20562e-06
-2.24254e-05
2.65691e-06
8.74077e-07
2.16045e-05
-3.4354e-05
1.24525e-06
-4.83432e-06
3.79431e-05
-3.0266e-06
-1.67864e-06
8.82793e-07
2.64521e-06
-6.23177e-05
-4.42977e-06
4.59188e-06
-4.52352e-06
6.41488e-05
-1.59213e-05
2.75999e-07
3.76975e-07
1.52683e-05
-2.38463e-06
-1.76447e-06
2.79031e-06
1.35879e-06
-2.5959e-07
2.30179e-06
-1.66939e-06
-3.72556e-07
9.5277e-07
-3.58666e-06
-5.84027e-06
4.20385e-06
1.12177e-06
3.14853e-06
-2.40993e-06
-4.76669e-06
-4.18272e-06
4.25647e-06
2.1555e-06
4.94736e-06
-7.61548e-06
9.43352e-08
1.71368e-06
1.78698e-07
9.02449e-06
-3.39573e-06
-5.5278e-07
-2.51537e-06
-7.48127e-06
2.85251e-06
1.11489e-06
6.58201e-06
1.84408e-05
1.53961e-05
0.000112665
-2.83299e-06
-1.3728e-06
-1.57705e-06
-3.80905e-07
-4.23842e-06
-3.57685e-06
-3.90231e-06
-3.34701e-06
7.33439e-06
1.09647e-05
9.51475e-05
-9.97331e-07
-9.17581e-07
-2.26426e-07
-5.42951e-07
2.45396e-06
3.27917e-06
6.39419e-05
-1.13665e-06
-1.83493e-07
-7.59117e-07
-3.34903e-07
1.33565e-06
1.13356e-06
5.08224e-07
-7.52079e-06
-8.82061e-07
1.41734e-06
1.21643e-06
8.22305e-06
6.44634e-08
-6.18832e-09
2.034e-08
-7.9014e-08
-5.12238e-07
-2.05462e-06
2.46944e-06
9.74222e-08
-1.09429e-06
-1.46197e-05
-2.19386e-06
1.36387e-06
3.41894e-06
1.3125e-05
5.29756e-06
1.46139e-05
7.82245e-05
-3.57211e-06
-2.59793e-06
-2.89395e-06
-2.09735e-06
-3.21991e-06
9.7365e-06
0.000101554
9.24399e-07
2.52519e-07
0.000113618
4.07749e-07
2.697e-07
-8.12144e-07
-6.30037e-07
1.0978e-06
-1.18216e-06
-1.17686e-05
-2.5089e-06
1.43031e-06
3.96594e-06
9.80568e-06
-1.28582e-08
-1.6835e-08
-2.72338e-09
8.84699e-09
2.24871e-08
-3.77877e-06
-2.46013e-06
2.44544e-06
2.9894e-06
4.04902e-06
-3.24496e-06
-8.57809e-07
2.55468e-06
6.82349e-05
-1.90388e-06
-1.14713e-06
-5.90601e-07
-3.87442e-07
3.20183e-06
3.28377e-06
3.66548e-06
2.14105e-06
1.02161e-07
0.000148061
1.4243e-06
2.7927e-06
2.34565e-06
-8.39354e-07
1.38867e-06
1.20036e-08
-2.39701e-05
1.63261e-06
4.41459e-07
2.42896e-05
-4.4371e-05
3.58439e-06
-4.18501e-06
4.49716e-05
-2.35779e-06
-2.57718e-06
2.58916e-06
4.90049e-06
-6.16204e-05
-2.26915e-06
5.8824e-06
1.99782e-09
5.81073e-05
-1.5484e-05
1.18623e-06
-1.95484e-06
1.62526e-05
-9.2186e-07
-1.32362e-06
1.4621e-06
7.83379e-07
1.27158e-06
3.41453e-06
-2.64392e-06
-2.04218e-06
1.53373e-06
-3.36746e-06
-1.3601e-06
3.94105e-06
-5.63768e-07
-1.83458e-07
-1.34026e-06
-5.23099e-06
-3.85978e-06
4.12458e-06
7.29182e-07
5.57727e-06
-1.0479e-05
1.33244e-07
1.09504e-06
8.98579e-08
1.23177e-05
-3.15688e-06
1.21968e-06
-1.88494e-06
-5.03675e-06
2.3944e-06
1.10754e-07
3.19685e-06
1.65945e-05
1.43686e-05
0.000100811
-1.68028e-06
-6.95893e-07
-1.31133e-06
-2.33429e-07
-3.70732e-06
-4.23111e-06
-3.43274e-06
-3.81724e-06
7.02853e-06
9.83873e-06
9.54386e-05
-2.86929e-07
-5.31847e-07
1.41377e-07
1.13587e-07
3.23751e-07
4.16954e-06
6.86937e-05
-9.71278e-07
-1.33757e-07
-4.41031e-07
-1.44261e-07
-9.41311e-08
-4.81283e-07
4.91626e-08
-8.79578e-06
1.94107e-06
-6.49902e-07
1.45296e-06
6.37541e-06
9.37578e-07
-3.71303e-07
2.16375e-06
-1.96074e-06
2.54786e-07
-1.02407e-06
1.59437e-07
-1.51744e-07
4.72253e-07
-4.79946e-07
-1.35314e-06
-1.15666e-05
-2.51949e-06
2.53904e-06
3.43185e-06
9.46836e-06
5.75599e-06
1.78877e-05
8.17773e-05
-3.73191e-06
-2.96391e-06
-3.48427e-06
-2.64776e-06
-2.63452e-07
9.16168e-06
0.00010825
6.33466e-07
1.05531e-07
0.000112072
8.3614e-07
1.30213e-06
1.58841e-06
-9.71774e-08
7.26155e-07
3.58001e-07
-1.24082e-05
-2.45228e-06
-7.60146e-07
1.58644e-06
1.46677e-05
6.06531e-07
-1.05237e-08
2.51698e-06
-1.37039e-06
1.32635e-07
-1.87523e-06
-4.66255e-06
-8.77347e-07
1.67178e-06
1.67599e-06
4.61762e-06
-2.42549e-06
-3.39876e-06
3.62626e-06
7.57581e-05
-9.84081e-07
-4.41823e-07
-6.19177e-07
1.96765e-07
4.2502e-06
3.06214e-06
4.67292e-06
8.22647e-07
1.58167e-06
0.000143618
1.71541e-06
1.122e-06
1.75733e-06
4.4165e-07
1.97877e-06
7.86378e-07
-2.55993e-05
1.71053e-06
-1.54962e-07
2.49719e-05
-3.93361e-05
-1.01063e-05
-4.05662e-07
5.03119e-06
4.48169e-05
-9.83049e-07
1.21151e-06
-1.12672e-06
8.98249e-07
-7.00534e-06
-9.7159e-07
2.57174e-06
9.03145e-06
-5.57736e-05
-2.34171e-06
5.17388e-06
9.884e-07
5.35347e-05
-1.75476e-05
2.60815e-06
-4.21122e-06
1.91507e-05
-7.61878e-07
-6.46062e-07
6.05993e-07
8.01948e-07
2.54279e-06
3.68441e-06
-3.49745e-06
-2.72975e-06
2.94964e-07
-2.93529e-06
1.14687e-06
2.95281e-06
2.44243e-07
-1.7036e-06
-8.99973e-07
-6.15048e-06
-2.54455e-06
2.40458e-06
2.1337e-07
6.97705e-06
-1.39152e-05
7.29107e-07
3.43504e-07
-9.00115e-07
1.50976e-05
-1.35485e-06
2.32937e-06
-2.22361e-06
-1.89955e-06
2.53018e-06
-1.47027e-06
7.33884e-07
1.32774e-05
1.49008e-05
8.82498e-05
-1.52438e-06
-7.02795e-07
-1.79402e-06
-8.50599e-07
-3.00206e-06
-3.11928e-06
-2.49244e-06
-2.13088e-06
5.43054e-06
8.09542e-06
9.40157e-05
-9.33988e-09
1.91151e-07
1.89843e-07
8.02687e-07
-5.0133e-07
3.92784e-06
7.15491e-05
-5.6317e-07
-4.75824e-07
2.14595e-07
-7.2717e-07
3.53351e-07
-6.53913e-07
1.00082e-06
-6.1313e-06
2.47074e-07
-1.5376e-06
7.76815e-07
6.14368e-06
1.38112e-06
5.42257e-07
1.15248e-06
-5.36571e-07
-1.28807e-06
-1.25121e-06
6.08155e-07
1.0282e-06
-8.37786e-07
-7.98574e-07
-9.04645e-07
-7.5089e-06
1.27118e-07
2.11257e-06
-4.52542e-08
6.21911e-06
2.79962e-06
1.83216e-05
8.43429e-05
-3.04279e-06
-2.01595e-06
-2.3861e-06
-1.34124e-06
6.65671e-07
5.58529e-06
0.000112894
2.43253e-06
-1.00353e-06
0.000108485
3.25233e-06
2.57611e-06
2.8119e-06
-1.75109e-07
-1.05055e-06
-6.63603e-07
-1.62488e-05
-1.22824e-06
1.70404e-06
5.53062e-07
1.76525e-05
2.51153e-06
1.96614e-06
-7.30018e-07
3.22231e-07
-2.02536e-06
-2.04452e-06
-3.57771e-06
8.25817e-07
1.35834e-07
-3.86525e-07
2.60914e-06
3.93441e-07
-7.02425e-06
3.21157e-06
8.03456e-05
1.01999e-07
1.27249e-06
7.33702e-07
1.79903e-06
5.34757e-06
2.62457e-06
5.66743e-06
-8.88237e-07
2.14519e-06
0.000135696
1.17954e-06
-1.12004e-06
1.23978e-06
8.41777e-07
2.3841e-06
7.01175e-07
-2.66097e-05
-4.95138e-07
-1.62576e-06
2.68388e-05
-4.5428e-05
1.1464e-07
1.20849e-06
2.20909e-06
4.18958e-05
-2.18437e-06
1.65789e-06
-4.26366e-06
2.34004e-06
2.4501e-06
-9.98106e-06
3.12582e-07
1.50098e-06
1.13791e-05
-5.21359e-05
-1.23628e-06
3.92063e-06
5.21316e-07
5.10755e-05
-2.07125e-05
3.3606e-06
-4.27229e-06
2.16242e-05
-8.95781e-07
-1.46557e-07
2.07195e-08
1.02162e-06
2.8385e-06
3.89223e-06
-3.86036e-06
-2.87037e-06
-7.70641e-07
-2.48584e-06
2.02335e-06
1.74413e-06
1.73139e-06
-2.24239e-06
-1.02958e-06
-7.79138e-06
-5.15816e-07
2.85844e-07
5.96286e-07
8.45465e-06
-1.56914e-05
1.28084e-06
3.61416e-07
-1.35278e-06
1.57313e-05
-3.29378e-07
2.89867e-06
-1.61546e-06
1.01511e-07
1.54441e-06
-2.32663e-06
-6.02495e-07
8.94998e-06
1.29313e-05
7.9391e-05
-2.08804e-06
-1.71965e-06
-2.27235e-06
-2.04601e-06
-1.71598e-06
-1.14656e-06
-1.37398e-06
-6.59982e-07
-3.30489e-07
5.41782e-06
9.63262e-05
-1.98868e-07
7.27701e-07
-2.36955e-07
1.26023e-06
-1.16091e-06
2.55331e-06
7.51752e-05
-2.31085e-07
-9.49624e-07
-3.5466e-07
-1.54043e-06
2.25096e-07
-2.18957e-06
-3.08743e-07
-8.9485e-06
2.49848e-06
-1.68596e-06
-1.8654e-06
8.84047e-06
5.76734e-07
-9.74503e-08
1.19384e-06
-1.71402e-06
4.08924e-08
9.89402e-07
1.63609e-06
-1.51349e-06
-1.11201e-06
1.78355e-07
-5.13357e-06
1.83736e-06
5.30689e-07
-2.11567e-06
4.70284e-06
-3.49222e-06
1.34787e-05
8.85239e-05
-9.13205e-07
-2.67909e-07
-3.26998e-07
2.71992e-07
-3.51313e-06
9.89074e-09
0.000118323
2.00358e-06
-2.56327e-06
0.000110643
2.30842e-06
8.53023e-07
-1.83354e-07
-1.1642e-06
-1.78445e-06
-2.58731e-06
-1.91885e-05
2.24489e-06
1.67232e-06
-1.93013e-06
1.9205e-05
7.64927e-07
3.1549e-06
-2.36111e-06
1.77844e-06
-2.89324e-06
-4.43917e-07
-1.92284e-06
2.15306e-06
-1.77707e-06
-2.84745e-06
2.22537e-06
2.16893e-06
-1.59745e-05
2.43181e-06
8.35821e-05
2.22157e-06
3.45711e-06
2.95895e-06
3.98738e-06
5.05356e-06
1.5756e-06
4.53075e-06
-3.50175e-06
1.87937e-06
0.000121814
-6.94275e-08
-3.12729e-06
-6.32348e-07
4.3333e-07
2.04579e-06
8.89689e-07
-2.8942e-05
-2.52082e-06
-3.83468e-06
2.92324e-05
-3.26708e-05
-2.6151e-06
3.00348e-07
3.49855e-05
-1.2525e-05
2.2422e-06
-1.2118e-06
1.39264e-05
-5.04308e-05
1.25819e-06
1.90784e-06
5.7063e-07
4.85735e-05
-2.1851e-05
3.52123e-06
-2.89523e-06
2.1225e-05
-1.1933e-06
-1.21302e-07
-5.18388e-08
1.36645e-06
2.7374e-06
4.04338e-06
-4.32177e-06
-2.45902e-06
-6.82985e-07
-2.27775e-06
2.16413e-06
6.56792e-07
2.0833e-06
-1.94349e-06
-1.08829e-06
-8.64697e-06
1.14493e-06
-1.57782e-06
1.42139e-06
8.74677e-06
-1.51282e-05
3.09958e-07
1.05816e-06
-8.39287e-08
1.38264e-05
1.76686e-08
3.76381e-06
-9.87972e-07
6.87867e-07
2.71255e-07
-3.52511e-06
-2.0985e-07
3.76567e-06
7.26105e-06
7.84156e-05
-2.15798e-06
-2.66009e-06
-2.03393e-06
-2.65275e-06
-2.62734e-07
-6.7561e-08
-3.33196e-07
1.16905e-07
-4.84505e-06
4.75041e-06
0.000103377
-1.19625e-06
-1.47168e-07
-1.42293e-06
-4.24118e-07
-2.94066e-06
-4.65008e-06
8.71311e-05
-8.19673e-07
-1.09742e-06
-3.82448e-07
-6.66884e-07
-2.14505e-06
-2.12687e-06
-1.97187e-06
-1.10176e-05
1.73697e-06
-5.52701e-06
1.1867e-05
1.17963e-06
2.11168e-06
-2.21805e-06
-1.07326e-06
1.11377e-06
-4.3232e-06
3.18637e-06
-8.41184e-07
-3.6222e-06
4.48644e-06
-1.04168e-05
2.28522e-06
9.69772e-05
1.23314e-06
1.61892e-06
1.87264e-06
2.21455e-06
-8.87889e-06
-2.68947e-06
0.000124225
-6.68409e-07
-2.95852e-06
0.000109184
-1.70727e-06
1.40614e-07
-5.27546e-07
-3.30193e-06
-1.23017e-06
-1.81643e-06
-2.5828e-05
5.56417e-06
1.43396e-06
-6.54607e-06
2.47075e-05
-2.59339e-06
3.81508e-06
-3.90534e-06
-4.95275e-06
3.58895e-06
4.04744e-06
-2.56844e-05
1.62159e-07
8.84606e-05
4.6442e-06
5.66171e-06
5.36045e-06
5.95081e-06
2.08341e-06
-1.14091e-06
3.6927e-07
-6.22231e-06
1.0182e-06
0.000112775
-2.2206e-06
-6.74044e-06
-3.30415e-06
7.86723e-08
4.32313e-09
-1.94844e-06
-3.15718e-05
-4.05564e-06
-3.81383e-06
3.02604e-05
-3.28463e-05
5.96884e-06
1.77337e-06
2.51041e-05
-1.52231e-05
4.81418e-06
-5.83076e-06
1.64019e-05
-4.72928e-05
4.7905e-06
-2.41493e-06
6.89313e-07
4.52461e-05
-1.87342e-05
5.59997e-06
-4.10713e-07
1.35449e-05
-1.46945e-06
-4.89061e-07
4.49718e-07
1.5088e-06
2.03047e-06
4.294e-06
-4.84414e-06
-1.48033e-06
-9.85497e-08
-2.48565e-06
1.63866e-06
7.98091e-07
1.33778e-06
-1.19033e-06
-1.25738e-06
-8.87768e-06
9.68527e-07
-2.05059e-06
2.42622e-06
8.79091e-06
-1.27484e-05
-9.65323e-07
3.2206e-07
2.57362e-07
1.25832e-05
5.51117e-07
4.5987e-06
-5.21253e-07
-2.6612e-07
-4.55423e-07
-4.43168e-06
1.07578e-06
-2.21048e-06
4.11361e-06
8.18508e-05
-1.53906e-06
-2.97652e-06
-1.21488e-06
-2.57596e-06
7.24819e-07
6.88388e-07
5.58775e-07
9.96166e-07
-8.36904e-06
8.29856e-06
0.000110772
-2.57218e-06
-2.28886e-06
-2.47501e-06
-2.19849e-06
-1.82336e-06
-1.09012e-05
9.36246e-05
-2.50437e-07
7.88551e-07
2.09067e-07
1.67437e-06
-1.66296e-06
-1.50354e-06
-1.39301e-06
-1.31673e-05
3.33443e-06
-5.96364e-06
1.39732e-05
9.0221e-07
2.46823e-06
-2.81246e-06
-5.57985e-07
2.15694e-06
-4.73741e-06
4.2476e-06
-2.24054e-06
-4.75247e-06
5.32588e-06
-1.3968e-05
-3.90699e-06
0.000105559
2.82227e-06
3.10728e-06
3.57657e-06
3.90083e-06
-9.5098e-06
-1.41373e-06
0.000129479
3.42842e-07
-3.40171e-06
0.000102164
-1.81348e-07
4.31202e-07
-3.37579e-07
-2.81573e-06
-3.0621e-06
-4.36737e-06
-2.4279e-05
5.91989e-06
3.72774e-06
-9.12869e-06
2.41029e-05
-4.47024e-06
4.62339e-06
-4.99302e-06
-5.85508e-06
5.56464e-06
5.13031e-06
-2.67726e-05
-2.30264e-06
9.67065e-05
5.73415e-06
6.28879e-06
6.21439e-06
6.24074e-06
-1.81085e-06
-2.84837e-06
-2.89637e-06
-8.78179e-06
-1.51857e-07
0.000116452
-5.96158e-06
-7.19995e-06
-6.96666e-06
-1.82711e-06
-1.3339e-07
-8.4109e-07
-3.01797e-05
-7.07846e-06
-4.03088e-07
2.54777e-05
-1.82357e-05
5.98642e-06
1.22825e-06
1.1021e-05
-1.80476e-05
6.20346e-06
-9.64647e-06
1.91879e-05
-4.17214e-05
7.84836e-06
-6.14137e-06
2.32678e-06
3.75357e-05
-9.16776e-06
-1.09471e-06
2.35896e-06
7.90352e-06
-1.58402e-06
-8.07615e-07
6.13992e-07
1.77764e-06
8.84375e-07
4.57788e-06
-5.29974e-06
-1.62512e-07
5.34518e-07
-2.89662e-06
7.46519e-07
1.58913e-06
6.61841e-08
-3.97354e-08
-1.43246e-06
-8.53616e-06
-3.34075e-07
-7.77115e-07
2.69606e-06
8.38375e-06
-1.32668e-05
9.86825e-07
-2.53352e-06
-7.05524e-07
1.43639e-05
1.15515e-06
5.1507e-06
-2.63551e-07
-1.84883e-06
-9.39046e-07
-5.04e-06
2.94073e-06
-6.15153e-06
2.38907e-06
8.42768e-05
-3.39557e-07
-2.28462e-06
-2.46573e-07
-1.4455e-06
1.33766e-06
1.32203e-06
1.28989e-06
1.70315e-06
-9.90141e-06
1.22908e-05
0.000115008
-3.17589e-06
-3.59539e-06
-2.89762e-06
-3.10842e-06
-1.278e-06
-1.49902e-05
9.46341e-05
5.84837e-07
3.15915e-06
1.84819e-06
3.4605e-06
-1.34269e-06
-1.14837e-06
-1.20436e-06
-1.4325e-05
3.82654e-06
-5.14896e-06
1.43695e-05
1.29587e-07
2.67841e-06
-3.18636e-06
3.78357e-07
2.99269e-06
-5.93524e-06
4.98842e-06
-3.53696e-06
-5.30334e-06
6.79442e-06
-1.50339e-05
-5.52292e-06
0.000111048
3.89891e-06
4.10874e-06
4.62503e-06
4.82389e-06
-9.31869e-06
3.46145e-06
0.000132593
2.99148e-07
-3.60383e-06
9.38064e-05
-4.64523e-07
5.21655e-07
-3.0828e-07
-4.80322e-06
-3.24769e-06
-4.34404e-06
-2.35992e-05
4.09096e-06
2.28404e-06
-4.90794e-06
2.24313e-05
-6.54605e-06
4.95593e-06
-5.31303e-06
-5.95852e-06
7.50852e-06
5.35315e-06
-2.1745e-05
-2.75009e-06
0.000102034
5.57525e-06
5.74763e-06
6.07337e-06
5.67677e-06
-3.68163e-06
-2.38577e-06
-3.36153e-06
-5.97461e-06
-3.6907e-07
0.000119038
-6.35032e-06
-3.85648e-06
-4.37888e-06
3.10327e-07
-6.28738e-07
3.77705e-07
-2.08209e-05
-3.37144e-06
-1.43499e-06
1.60489e-05
-6.74417e-06
3.54898e-06
-1.44336e-06
4.63855e-06
-1.94197e-05
5.66336e-06
-7.77428e-06
1.87805e-05
-3.4241e-05
5.01788e-06
-5.10307e-06
1.6057e-06
3.23515e-05
-7.69911e-06
-2.4613e-06
2.81757e-06
7.34284e-06
-2.0908e-06
-9.57197e-07
5.3308e-07
2.51492e-06
-5.63959e-07
4.74333e-06
-5.5205e-06
1.34113e-06
8.61014e-07
-3.38928e-06
-6.46519e-07
2.19631e-06
-6.06684e-07
1.58516e-06
-1.32158e-06
-8.37889e-06
-1.09649e-06
-6.31592e-07
2.54428e-06
8.88426e-06
-1.58198e-05
2.47957e-06
-3.44118e-06
-2.20152e-06
1.67714e-05
2.21151e-06
5.41745e-06
-8.85871e-08
-4.03322e-06
-1.35529e-06
-5.32832e-06
5.38796e-06
-7.17781e-06
-1.844e-07
8.28712e-05
6.1795e-07
-2.15988e-07
5.27396e-07
4.16192e-07
1.73522e-06
1.69989e-06
1.8027e-06
2.18445e-06
-9.98499e-06
1.40488e-05
0.000115985
-3.1414e-06
-3.69718e-06
-2.61504e-06
-2.76505e-06
-1.19408e-06
-1.76138e-05
9.42745e-05
2.29472e-06
3.78102e-06
3.20343e-06
3.58476e-06
-1.25647e-06
-1.22901e-06
-1.19592e-06
-1.43022e-05
3.22407e-06
-4.36777e-06
1.42518e-05
-9.32952e-07
2.69315e-06
-3.24571e-06
1.48551e-06
3.27197e-06
-7.62465e-06
5.33e-06
-4.0572e-06
-5.46066e-06
8.54054e-06
-1.36726e-05
-6.64183e-06
0.000112853
4.20178e-06
4.30362e-06
4.8439e-06
4.9762e-06
-5.66352e-06
8.25127e-06
0.000130382
1.00725e-06
-4.02807e-06
8.0682e-05
6.54724e-07
1.02853e-06
1.01159e-06
-3.5887e-06
-3.5717e-06
-2.66658e-06
-2.08182e-05
3.24016e-06
1.90184e-06
-2.99866e-06
1.96821e-05
-8.4991e-06
4.91418e-06
-5.48518e-06
-5.65798e-06
9.49229e-06
5.2358e-06
-1.61858e-05
-2.04903e-06
9.9411e-05
5.33982e-06
5.28343e-06
5.9136e-06
5.19801e-06
-2.857e-06
-2.15589e-06
-2.50547e-06
-2.59132e-06
-7.43508e-07
0.00012076
-1.97547e-06
-1.34502e-06
-1.20727e-06
2.52431e-07
-1.18807e-06
-8.58116e-07
-1.33732e-05
-7.90645e-07
-3.41514e-06
1.09596e-05
-3.66642e-06
2.25348e-06
-1.63582e-06
3.04876e-06
-1.7275e-05
4.95051e-06
-4.86456e-06
1.514e-05
-3.16126e-05
2.16129e-06
-2.09828e-06
-1.63312e-07
3.09694e-05
-6.60544e-06
1.13417e-06
-1.87353e-07
5.65863e-06
-3.04709e-06
-8.2809e-07
2.59306e-07
3.61588e-06
-2.06452e-06
4.80304e-06
-5.482e-06
2.74348e-06
8.98302e-07
-3.75991e-06
-2.45696e-06
2.68357e-06
-9.86168e-07
3.62115e-06
-8.69766e-07
-9.90341e-06
-1.4475e-06
-1.31133e-06
1.8764e-06
1.16556e-05
-1.66899e-05
2.90324e-06
-3.27803e-06
-1.77257e-06
1.50552e-05
3.78206e-06
5.33087e-06
4.65953e-08
-6.77518e-06
-1.74878e-06
-5.08283e-06
8.22933e-06
-6.46478e-06
-5.43007e-06
7.99092e-05
1.50782e-06
1.41699e-06
1.39314e-06
1.88424e-06
2.02049e-06
2.10797e-06
2.0095e-06
2.51669e-06
-8.92881e-06
1.41041e-05
0.000115006
-2.64512e-06
-3.36874e-06
-1.97777e-06
-2.66958e-06
-8.46764e-07
-1.94488e-05
9.51759e-05
2.59517e-06
3.52932e-06
2.99985e-06
3.31458e-06
-7.99614e-07
-7.62982e-07
-4.1089e-07
-1.46522e-05
1.41598e-06
-3.12915e-06
1.55186e-05
-2.01158e-06
2.5068e-06
-2.95622e-06
2.461e-06
2.92988e-06
-9.48307e-06
4.9775e-06
-3.88834e-06
-4.98248e-06
1.04465e-05
-1.27859e-05
-1.0222e-05
0.000112495
4.1445e-06
4.27499e-06
4.67459e-06
4.84165e-06
-1.34852e-06
6.59735e-06
0.000126451
1.18364e-06
-4.23773e-06
6.73926e-05
1.39026e-06
1.37798e-06
1.00562e-06
-2.57067e-06
-3.63878e-06
-2.01825e-06
-1.86619e-05
2.76282e-06
5.5719e-07
-1.80942e-06
1.8335e-05
-1.05668e-05
4.29619e-06
-5.18695e-06
-4.48273e-06
1.14446e-05
4.49571e-06
-1.40702e-05
-2.32868e-06
9.28419e-05
5.44771e-06
4.82495e-06
5.83337e-06
4.2924e-06
-2.93888e-06
-2.02625e-06
-2.68733e-06
-6.36246e-07
-1.99339e-06
0.00011982
-3.53316e-07
-1.34327e-08
-2.81982e-07
-1.05958e-06
-1.65936e-06
-5.35143e-07
-9.95792e-06
5.45734e-08
-3.59127e-06
8.62064e-06
-2.71766e-06
3.62993e-07
-1.0663e-07
2.46129e-06
-1.29535e-05
4.58017e-06
-5.29892e-06
1.13435e-05
-2.8782e-05
2.04838e-06
7.33764e-07
-6.22654e-07
2.46292e-05
-4.86737e-06
2.73695e-06
-2.22013e-06
4.35055e-06
-4.05869e-06
-5.95083e-07
4.36564e-07
4.21721e-06
-3.32652e-06
4.74693e-06
-5.2545e-06
3.83409e-06
6.415e-07
-3.87085e-06
-4.68119e-06
2.95742e-06
-9.46693e-07
5.89982e-06
-7.6954e-07
-1.39496e-05
-1.88933e-06
-9.79929e-07
9.73997e-07
1.66144e-05
-1.24202e-05
2.48898e-06
-2.78579e-06
-5.06634e-07
9.34862e-06
3.875e-06
4.99877e-06
4.78364e-08
-9.57112e-06
-1.72453e-06
-4.49362e-06
1.07427e-05
-4.81424e-06
-1.03354e-05
7.82992e-05
1.94537e-06
2.42616e-06
1.77309e-06
2.84727e-06
1.80107e-06
2.13187e-06
1.40311e-06
2.43162e-06
-7.15915e-06
1.12017e-05
0.000114432
-1.73306e-06
-3.23567e-06
-8.20803e-07
-2.4936e-06
-1.00292e-06
-1.8375e-05
0.000101268
1.68155e-06
2.15566e-06
2.01243e-06
1.29827e-06
-5.41882e-08
-1.06786e-06
1.00829e-07
-1.51828e-05
-2.05528e-07
1.05278e-06
1.33326e-05
-2.8466e-06
2.24507e-06
-2.53035e-06
3.13189e-06
2.22556e-06
-1.1402e-05
4.05343e-06
-3.19944e-06
-3.82416e-06
1.21466e-05
-1.29563e-05
-1.26515e-05
0.0001118
3.78597e-06
3.89418e-06
4.1127e-06
4.17421e-06
-1.13886e-06
1.23669e-06
0.000124599
1.11852e-06
-4.07745e-06
5.824e-05
-1.74342e-08
1.2149e-06
-8.55289e-07
-2.0657e-06
-3.66413e-06
-2.01461e-06
-1.82789e-05
6.7262e-07
-1.66508e-07
8.05395e-07
1.8086e-05
-1.2252e-05
3.54643e-06
-4.33174e-06
-2.95154e-06
1.27476e-05
3.24118e-06
-1.06809e-05
-1.62005e-06
7.97869e-05
5.0424e-06
3.77742e-06
5.2835e-06
3.56703e-06
-2.16838e-06
-1.21812e-06
-1.57944e-06
4.83986e-07
-1.40107e-06
0.000109878
5.16427e-07
9.53454e-07
5.61402e-07
-2.64803e-07
-5.16141e-07
1.64519e-07
-8.2424e-06
-9.45924e-08
-2.8432e-06
7.58673e-06
-2.29648e-06
-1.44332e-06
1.5852e-06
2.1546e-06
-1.05142e-05
2.74989e-06
-3.86988e-06
1.00142e-05
-2.01778e-05
1.70352e-06
7.31131e-07
-9.18504e-08
1.64339e-05
-4.00909e-06
2.07487e-06
-1.80836e-06
3.74258e-06
-4.06786e-06
-1.85061e-07
5.87107e-07
3.66582e-06
-4.25138e-06
4.53914e-06
-4.85458e-06
4.56682e-06
2.08485e-07
-3.57267e-06
-7.13115e-06
2.57092e-06
-4.69326e-07
8.39375e-06
-5.82118e-07
-1.90181e-05
-2.32073e-06
1.23782e-06
-2.14496e-07
2.08976e-05
-7.28585e-06
4.57858e-07
-1.34938e-06
2.50988e-08
6.69078e-06
1.46149e-06
4.54241e-06
-2.77743e-07
-1.1617e-05
-7.70365e-07
-4.0336e-06
1.21563e-05
-1.79428e-06
-1.1687e-05
7.97187e-05
1.57682e-06
2.63197e-06
1.2705e-06
2.81948e-06
4.69231e-07
1.58458e-06
-1.01284e-07
1.8105e-06
-4.06923e-06
-8.69659e-08
0.000119468
-4.18364e-08
-2.47906e-06
8.84922e-07
-1.0378e-06
-3.90233e-07
-1.34657e-05
0.000106256
6.90781e-07
8.6264e-07
1.54262e-06
1.58052e-06
2.34988e-07
1.11975e-08
-1.24067e-07
-1.11138e-05
-6.75039e-07
1.82319e-06
9.57541e-06
-3.34961e-06
1.98358e-06
-2.09415e-06
3.46017e-06
1.5971e-06
-1.27932e-05
3.25548e-06
-2.40823e-06
-2.91054e-06
1.32594e-05
-1.09515e-05
-1.07815e-05
0.00010984
2.91234e-06
2.85766e-06
3.13517e-06
3.10126e-06
-4.45746e-06
-5.31262e-06
0.00012333
-6.02399e-07
-3.5572e-06
5.92052e-05
-2.85538e-06
-1.91825e-06
-3.19318e-06
-1.81048e-06
-3.09796e-06
-1.85354e-06
-1.81721e-05
-2.01925e-06
-1.30554e-06
3.7847e-06
1.71097e-05
-1.32574e-05
2.99061e-06
-3.44345e-06
-2.13459e-06
1.34308e-05
2.41409e-06
-9.16843e-06
-6.78224e-07
6.69691e-05
4.04321e-06
2.99347e-06
4.18039e-06
2.82092e-06
-9.05238e-07