/*--------------------------------*- C++ -*----------------------------------*\
| =========                 |                                                 |
| \\      /  F ield         | OpenFOAM: The Open Source CFD Toolbox           |
|  \\    /   O peration     | Version:  5.x                                   |
|   \\  /    A nd           | Web:      www.OpenFOAM.org                      |
|    \\/     M anipulation  |                                                 |
\*---------------------------------------------------------------------------*/
FoamFile
{
    version     2.0;
    format      ascii;
    class       volVectorField;
    location    "5";
    object      U;
}
// * * * * * * * * * * * * * * * * * * * * * * * * * * * * * * * * * * * * * //

dimensions      [0 1 -1 0 0 0 0];

internalField   nonuniform List<vector> 
10571
(
(-0.0382162 0.141201 1.04874)
(-0.0320561 0.122308 0.65358)
(-0.0278009 0.109258 1.30242)
(-0.467818 0.178509 1.39829)
(-0.0453361 0.0762544 0.914031)
(0.0268872 -0.00387913 1.22809)
(-0.39533 -0.0852265 1.1502)
(-1.6226 -0.00532902 2.48457)
(-0.238825 0.344571 1.33016)
(0.0755846 0.441086 1.44564)
(0.301866 -0.0361993 1.46218)
(0.210153 -0.0792109 1.1891)
(-1.13304 1.23229 2.5411)
(-0.458206 0.348399 1.00585)
(0.485539 0.793743 1.10493)
(-0.139714 1.157 1.70459)
(0.281472 -0.0233956 0.97491)
(-0.0890981 1.6148 2.67194)
(0.173799 0.577113 0.828156)
(0.527904 0.954436 1.46577)
(-0.0744148 0.498151 1.16614)
(0.352492 -0.0217435 0.730538)
(0.566085 0.71507 2.13649)
(0.0436735 -0.104447 0.952454)
(0.485411 -0.40816 2.3106)
(-0.0591725 0.0740072 0.358475)
(-0.127167 0.259967 0.973864)
(0.0367491 0.024664 0.687433)
(0.00522132 0.0190011 0.760724)
(0.247691 0.93103 1.74757)
(0.0529056 0.195904 0.868988)
(0.178283 0.116874 0.593403)
(0.0468691 0.135111 0.610355)
(-0.153931 0.172721 0.936273)
(0.0669819 -0.0560332 0.5344)
(0.65846 -0.208981 1.23188)
(0.219028 0.139161 0.683024)
(0.154621 0.0774003 0.340104)
(0.112222 0.0500358 0.614137)
(-0.150668 0.311142 0.583893)
(0.132937 0.101854 0.314651)
(0.525206 0.494931 0.761878)
(0.203308 0.0185871 0.438622)
(0.326756 0.0450628 1.07222)
(-0.175203 1.24689 2.62229)
(0.484839 0.352416 0.740896)
(0.972094 0.605602 2.10645)
(0.884113 -0.392402 1.72563)
(-0.39269 0.260369 1.07911)
(0.0796579 -0.177465 0.248775)
(-0.00226304 -0.0916882 0.346661)
(0.168132 0.342635 0.619505)
(0.0329662 0.0988007 0.627471)
(-0.140868 -0.634063 1.60836)
(0.555513 0.0165383 0.745987)
(0.262838 0.162688 1.00337)
(0.037285 0.131557 0.917053)
(-0.0224551 0.152332 0.625295)
(-0.0264232 0.0291218 0.352413)
(-0.345105 0.29626 1.21731)
(0.528579 -0.0569681 0.583565)
(0.279623 -0.0625923 0.475208)
(-0.100255 -0.327015 0.631694)
(-0.000934263 -0.189817 0.318792)
(-0.083714 0.0786624 0.347802)
(0.416895 -0.113416 0.70999)
(0.0887002 -0.399149 0.544754)
(-0.316055 -0.581503 1.226)
(-0.295223 -0.209446 4.40629)
(0.0769187 -0.188883 0.80918)
(0.617891 -1.00577 3.30197)
(0.974354 -0.702778 2.65594)
(0.0673369 -0.0595373 1.27603)
(-0.00870992 0.229864 0.408005)
(0.190974 0.323456 0.493834)
(0.132635 0.421715 0.692023)
(0.0497016 0.0781143 0.616121)
(-0.0870661 -0.255163 1.11529)
(0.810589 0.0890532 1.97948)
(-0.0147586 0.404778 1.35685)
(-0.176103 0.45921 0.911573)
(0.0389158 0.174919 0.41372)
(0.0662883 0.000118208 0.666878)
(-0.251731 0.0689924 0.832849)
(0.354495 -0.032645 0.990457)
(0.349402 0.487093 1.10746)
(-0.294537 -0.214466 1.56217)
(-0.124734 0.412368 0.545536)
(-0.0496211 -0.0490103 0.219194)
(0.171396 -0.181967 0.44885)
(0.2658 -0.319505 2.09915)
(-0.930387 -0.216477 1.72547)
(0.723254 -0.714858 3.31891)
(-0.0408233 -0.114213 0.385784)
(0.75302 -0.54796 2.0622)
(0.150112 0.0536091 2.18678)
(0.275656 0.132587 0.69807)
(0.0341915 -0.0383309 0.184872)
(0.240494 0.0929711 0.445063)
(0.120974 -0.127376 0.211718)
(0.0665911 0.131029 0.276317)
(0.237749 0.223101 0.27217)
(0.576313 0.202509 1.18833)
(0.0452702 0.141699 0.741075)
(0.0932499 0.177654 0.567623)
(-0.00150763 0.0426641 0.25203)
(-0.0189514 0.393155 -0.155999)
(0.223966 0.0374398 0.618947)
(0.242029 0.293649 0.787663)
(0.0334661 0.402657 0.715205)
(-0.147991 -0.0129187 1.0895)
(-0.287424 0.00244218 0.256715)
(0.0625316 0.103547 0.109226)
(-0.0414162 -0.00525134 0.839868)
(0.119426 -0.0358359 1.41757)
(0.279057 0.023379 0.823718)
(0.364358 -0.293371 3.19709)
(0.150993 -0.11347 0.345754)
(0.725841 -0.115916 2.59036)
(-0.0406083 -0.0719004 1.26228)
(0.279358 0.0593159 0.260614)
(0.119724 -0.134041 0.0139561)
(0.316105 -0.0351762 0.195798)
(0.309016 0.189804 0.238028)
(0.17 -0.0544263 0.32495)
(0.241525 0.0923047 0.321119)
(0.492413 0.196628 1.15348)
(0.128566 0.0763582 0.99223)
(0.100429 0.0842617 0.703247)
(0.153975 0.113641 0.358596)
(0.00138089 0.00283652 0.00302241)
(0.0503469 0.331838 -0.0151552)
(0.0223165 0.237275 0.636788)
(0.242812 0.308219 0.72629)
(-0.0345861 0.318162 1.00104)
(-0.106014 0.0441412 1.24226)
(0.116259 0.173082 0.443677)
(-0.000698001 0.000767336 -5.02679e-05)
(0.12728 0.223377 0.113626)
(-0.124308 0.193561 0.610019)
(0.105448 0.0430096 1.51042)
(0.162568 0.0359667 1.06943)
(0.183353 -0.25936 3.14035)
(0.304466 0.156594 0.206357)
(0.541483 0.0331995 2.31444)
(0.124793 -0.0995039 1.46277)
(0.217883 0.0143967 0.120701)
(0.194994 -0.155728 -0.124056)
(0.250555 -0.109695 0.0208768)
(0.281962 0.109575 0.234932)
(0.150859 -0.0325876 0.44786)
(0.195094 -0.0550301 0.169481)
(0.422895 0.19968 1.09854)
(0.148154 0.0855888 1.00718)
(0.0926157 0.123277 0.759032)
(-0.00759451 0.0539847 0.330612)
(-0.13242 0.0232701 -0.032551)
(0.0167814 0.0689533 -0.0830887)
(0.151537 0.28632 0.456913)
(0.267489 0.297238 0.796994)
(-0.0429918 0.274727 1.13919)
(0.0290459 0.0195449 1.29512)
(0.0806508 0.132013 0.613538)
(-0.153932 -0.00816943 -0.0528321)
(0.127704 0.127347 0.19003)
(-0.0877677 0.283834 0.749996)
(-0.0176903 0.0219467 1.59838)
(0.131717 0.0423858 1.12277)
(0.000110915 0.0420263 2.92278)
(-0.469267 0.0261135 0.0476696)
(0.212317 0.2382 0.420728)
(0.402245 0.165972 2.17737)
(0.347106 -0.134549 1.66712)
(0.121207 0.00397625 0.11027)
(0.216863 -0.205205 -0.197961)
(0.180644 -0.000419166 -0.066947)
(0.138871 0.0837669 0.285677)
(0.00825427 -0.102838 0.574201)
(0.206811 -0.138142 0.0552218)
(0.335112 0.205112 0.956114)
(0.129398 0.0890602 0.968532)
(0.0660281 0.176634 0.771434)
(-0.0941833 0.0198115 0.322291)
(-0.0472244 -0.0495154 -0.0645834)
(-0.0119244 -0.106968 -0.112209)
(0.130628 0.038558 0.297903)
(0.222296 0.295833 0.849702)
(-0.104019 0.200447 1.13989)
(0.123079 -0.0450821 1.20927)
(0.162894 0.109076 0.795538)
(0.0405571 -0.119006 -0.0934103)
(-0.00736369 -0.0128577 0.120161)
(-0.120441 0.311608 0.843714)
(-0.109687 -0.0173488 1.52393)
(0.00599431 -0.0264839 1.19765)
(0.00343927 0.0278268 2.52962)
(0.503016 -0.0428979 0.197354)
(0.152064 0.190761 0.530414)
(0.314671 0.240682 2.03333)
(0.402495 -0.10864 1.93346)
(0.0538822 -0.00727325 0.137599)
(0.221306 -0.222415 -0.209241)
(0.108923 0.111413 -0.0952927)
(-0.0803379 0.126203 0.357175)
(-0.0577277 -0.114121 0.618053)
(0.135162 -0.175944 -0.0155943)
(0.256193 0.181657 0.808969)
(0.0684513 0.0835829 0.950817)
(-0.0594201 0.186654 0.798044)
(-0.117277 -0.13128 0.385102)
(0.135542 -0.0671532 0.0048457)
(-0.0273526 -0.195138 -0.155014)
(0.0409575 -0.142285 0.214809)
(0.0987308 0.25084 0.865338)
(-0.193264 0.106893 1.17675)
(0.0897276 -0.0879264 1.21257)
(0.122752 -0.153711 0.925836)
(0.20105 -0.193831 0.0173313)
(-0.115159 -0.164558 0.0809299)
(-0.232293 0.214257 0.862939)
(-0.32094 -0.114952 1.35287)
(-0.159139 -0.188729 1.28841)
(0.027059 -0.12898 2.51494)
(-0.0390092 0.154553 0.66725)
(0.0851181 0.255256 1.93703)
(0.293325 -0.0668325 1.97984)
(0.0489195 -0.00612855 0.184239)
(0.226873 -0.242673 -0.188021)
(0.0930265 0.119602 -0.0892819)
(-0.197185 0.157912 0.390111)
(0.0273501 -0.0204964 0.569423)
(0.0605594 -0.233059 -0.0155478)
(0.139051 0.130182 0.768806)
(0.00898945 0.11739 0.992761)
(-0.15132 0.0901015 0.856231)
(-0.126733 -0.299215 0.539816)
(-0.045143 -0.26262 -0.161809)
(-0.0322222 -0.236461 0.194079)
(-0.0974344 0.125522 0.936786)
(-0.228179 0.0480888 1.23647)
(-0.0583191 -0.272755 1.20247)
(0.0309627 -0.498233 0.918612)
(-0.241565 -0.303388 0.123864)
(-0.415053 -0.0374222 0.912942)
(-0.501477 -0.16415 1.22982)
(-0.321922 -0.106775 1.36855)
(0.058292 -0.119719 2.40517)
(-0.368906 0.0555864 0.802891)
(-0.227346 0.173634 1.84434)
(0.130617 -0.226451 1.50474)
(0.102628 0.00680553 0.213106)
(0.237691 -0.270782 -0.125126)
(0.115902 0.0703171 -0.0608469)
(-0.165045 0.182549 0.385641)
(0.0412755 0.0225552 0.478391)
(-0.00179736 -0.296638 0.0303999)
(0.0295403 0.1019 0.799306)
(-0.0899056 0.224017 1.08427)
(-0.196288 -0.0418697 0.96783)
(-0.0534407 -0.343338 0.693955)
(-0.0622939 -0.314069 -0.104603)
(-0.128989 -0.317495 0.222592)
(-0.225029 0.048621 1.03249)
(-0.229373 0.063514 1.2898)
(-0.106098 -0.385795 1.11936)
(0.0806564 -0.582127 0.936688)
(-0.308629 -0.359423 0.199191)
(-0.443274 -0.171123 0.983545)
(-0.551578 -0.130822 1.18553)
(-0.573021 -0.0921588 1.2398)
(0.072981 -0.387102 1.19556)
(-0.555745 -0.108938 0.954814)
(-0.581339 0.00848376 1.54124)
(-0.212914 0.0687058 0.749309)
(0.143517 -0.000494471 0.236801)
(0.251794 -0.29649 -0.0376049)
(0.162067 0.00866541 -0.016729)
(-0.0285938 0.183725 0.372028)
(-0.103576 -0.0914074 0.536242)
(-0.039669 -0.339596 0.106173)
(-0.0401976 0.0682961 0.842311)
(-0.150293 0.263828 1.13801)
(-0.196793 -0.201312 1.00826)
(-0.0122173 -0.336032 0.72078)
(-0.0733126 -0.344518 0.0178646)
(-0.211712 -0.3738 0.280944)
(-0.266054 0.0221806 1.10464)
(-0.236896 0.171943 1.33389)
(-0.0779808 -0.347173 1.05111)
(0.0390054 -0.365461 0.90909)
(-0.337297 -0.364058 0.276037)
(-0.346389 -0.194523 1.05675)
(-0.49048 -0.0784634 1.22847)
(-0.33983 -0.184852 0.790924)
(0.131532 -0.311187 0.49158)
(-0.473817 -0.149554 0.975901)
(-0.374085 -0.0243027 1.29817)
(-0.204075 0.171164 0.689061)
(0.154536 -0.00714727 0.327174)
(0.255882 -0.310296 0.0703341)
(0.207307 -0.029502 0.047151)
(0.0443194 0.162426 0.374535)
(-0.183701 -0.158098 0.644129)
(-0.0617062 -0.361864 0.207136)
(-0.0666983 -0.0035251 0.847081)
(-0.162113 0.2553 1.1601)
(-0.174382 -0.301624 0.998315)
(-0.018691 -0.288989 0.718504)
(-0.0750999 -0.348922 0.174041)
(-0.238421 -0.400071 0.356547)
(-0.247942 0.00160972 1.13397)
(-0.231778 0.243413 1.32933)
(0.042689 -0.331334 0.924953)
(0.0478772 -0.257816 0.791899)
(-0.34201 -0.346774 0.351858)
(-0.279795 -0.213393 1.07723)
(-0.35099 0.00581616 1.27575)
(-0.0699317 -0.25525 0.519819)
(0.120064 -0.224571 0.301353)
(-0.353789 -0.076773 0.829234)
(-0.133448 -0.0813988 1.23316)
(0.156922 0.000495401 0.560214)
(0.123331 -0.0117533 0.475176)
(0.251023 -0.30966 0.176931)
(0.238745 -0.0459856 0.132218)
(0.0553803 0.124349 0.464722)
(-0.271979 -0.112245 0.641124)
(-0.077632 -0.354284 0.329654)
(-0.0683128 -0.111101 0.820429)
(-0.151491 0.252219 1.16061)
(-0.136758 -0.333898 0.987744)
(-0.00705208 -0.187613 0.768993)
(-0.0674424 -0.323187 0.321128)
(-0.206032 -0.376758 0.438173)
(-0.230254 -0.0638862 1.13889)
(-0.221838 0.247833 1.30522)
(0.167161 -0.379154 0.76808)
(0.00498912 -0.214399 0.719477)
(-0.296186 -0.284066 0.432894)
(-0.289626 -0.256812 1.03192)
(-0.256588 -0.0431927 1.29843)
(0.0762623 -0.255561 0.387902)
(0.0387189 -0.0198563 0.237607)
(-0.387773 -0.0912749 0.604482)
(-0.116487 -0.175463 1.0756)
(0.236028 -0.0990448 0.414221)
(0.0810129 -0.000231755 0.600977)
(0.244699 -0.295218 0.262172)
(0.253457 -0.0353933 0.230779)
(0.102333 0.083472 0.664739)
(-0.294042 -0.0373898 0.408832)
(-0.082113 -0.327913 0.448033)
(-0.0417959 -0.200156 0.790543)
(-0.132267 0.219382 1.15147)
(-0.0946451 -0.334588 1.01693)
(-0.0522342 0.129869 0.736577)
(-0.0557103 -0.28611 0.429179)
(-0.142528 -0.302656 0.520182)
(-0.231484 -0.158579 1.12457)
(-0.207184 0.183723 1.27539)
(0.149022 -0.362735 0.640199)
(0.0270885 -0.080853 0.716935)
(-0.232247 -0.199346 0.491236)
(-0.310749 -0.239927 0.909905)
(-0.0946957 -0.144978 1.23825)
(0.110634 -0.229393 0.332879)
(-0.078031 0.146711 0.210458)
(-0.24592 -0.04386 0.515265)
(-0.0595901 -0.0658412 0.700248)
(0.170194 -0.0663152 0.352044)
(0.03109 0.0158073 0.559263)
(0.242473 -0.269198 0.322372)
(0.229138 -0.00747073 0.340098)
(0.222872 0.0254991 0.879267)
(-0.143059 -0.0248257 0.254042)
(-0.0559833 -0.307988 0.525523)
(0.0207763 -0.216429 0.778961)
(-0.0895696 0.0789056 1.15735)
(-0.0364575 -0.272374 1.09968)
(-0.018318 0.0782655 0.506964)
(-0.0435873 -0.250769 0.48873)
(-0.0983751 -0.236503 0.575303)
(-0.214313 -0.198665 1.109)
(-0.14577 -0.0772933 1.25038)
(-0.0359484 -0.250957 0.588274)
(-0.0259841 0.193255 0.71352)
(-0.188693 -0.149858 0.524585)
(-0.291658 -0.140821 0.756072)
(-0.0333786 -0.0971731 1.08241)
(0.105725 -0.216629 0.309184)
(-0.127814 0.194012 0.187196)
(-0.131267 0.00200043 0.478728)
(-0.0402491 0.0461758 0.522777)
(0.126886 -0.0445894 0.31267)
(-0.0653062 -0.0193403 0.447011)
(0.234543 -0.226336 0.355114)
(0.142165 0.0335877 0.441811)
(0.249301 -0.0502121 1.01096)
(0.0227231 0.00646945 0.303245)
(-0.011039 -0.278308 0.543937)
(0.109901 -0.142716 0.797202)
(-0.00151114 -0.151572 1.23768)
(-0.0444281 -0.133132 1.1397)
(0.0271745 0.175048 0.429219)
(-0.036478 -0.219383 0.500314)
(-0.0797069 -0.195674 0.612221)
(-0.174328 -0.180137 1.08901)
(0.0225772 -0.321702 1.22471)
(-0.17167 -0.1864 0.653137)
(-0.238788 0.160813 0.554006)
(-0.155636 -0.124581 0.531133)
(-0.233551 -0.0668869 0.644063)
(-0.0683535 -0.0147354 0.813858)
(0.0733717 -0.180446 0.305153)
(-0.0725065 0.12663 0.146163)
(-0.0660199 0.0125135 0.475555)
(-0.0273027 0.0394889 0.447176)
(0.10595 -0.0489811 0.295278)
(-0.168537 -0.0526121 0.492547)
(0.198639 -0.178336 0.386762)
(-0.00021183 0.0636655 0.513955)
(0.160822 -0.18368 1.14281)
(0.182929 0.0604317 0.324201)
(0.0529092 -0.23541 0.511635)
(0.112307 0.00208738 0.837745)
(0.0593996 -0.256857 1.3706)
(-0.0638723 -0.0155569 1.23625)
(0.00676138 0.196367 0.503515)
(-0.0377825 -0.186337 0.481596)
(-0.0833344 -0.162613 0.64668)
(-0.0475443 -0.0704206 1.02642)
(0.177972 -0.344281 1.15463)
(-0.153208 -0.163386 0.747377)
(-0.0691114 0.0772305 0.385379)
(-0.116418 -0.105547 0.517835)
(-0.169146 -0.0142832 0.587295)
(-0.109798 -0.0141898 0.610286)
(0.0173353 -0.0810732 0.286085)
(-0.0461031 0.119172 0.0857444)
(-0.0110185 0.0317636 0.493171)
(0.00455046 -0.00185933 0.406088)
(0.0731017 -0.0461677 0.27164)
(-0.190654 -0.0362765 0.59741)
(0.151144 -0.143282 0.430372)
(-0.108338 0.0368204 0.56681)
(-0.144331 -0.112926 1.15465)
(0.205347 0.102858 0.291137)
(0.101004 -0.178403 0.465539)
(0.00349413 0.156009 0.866871)
(0.0850106 -0.250887 1.46684)
(-0.0190735 0.0424985 1.37648)
(0.0127446 0.15935 0.557697)
(-0.0462628 -0.15502 0.474555)
(-0.144457 -0.128266 0.668153)
(0.0168031 0.0533339 0.936513)
(0.219061 -0.247454 1.1197)
(-0.0507274 -0.0779957 0.798191)
(0.0694712 0.0319019 0.308715)
(-0.0780299 -0.0699909 0.512788)
(-0.129829 0.034026 0.573152)
(-0.152883 0.00584597 0.478715)
(-0.0344479 0.0574099 0.252082)
(-0.0457643 0.151633 0.0351356)
(0.0112859 0.059224 0.516298)
(0.0396198 -0.0203744 0.3823)
(0.0452037 -0.0307874 0.265234)
(-0.107565 -0.0113197 0.736519)
(0.125803 -0.130453 0.480366)
(-0.0415598 -0.00517365 0.629208)
(-0.164994 -0.0855555 0.829099)
(0.0563385 0.040976 0.305742)
(0.0906383 -0.121508 0.45668)
(-0.0983877 0.265062 0.869351)
(0.0910021 -0.170238 1.48868)
(0.0369128 0.073609 1.45751)
(0.0265603 0.129777 0.566614)
(-0.0586489 -0.134955 0.519078)
(-0.238297 -0.099055 0.661184)
(-0.0497156 0.102884 0.874653)
(0.106218 -0.0891145 1.08044)
(0.0504428 0.0530633 0.779408)
(0.119513 0.0374859 0.280043)
(-0.0608853 -0.0158466 0.5394)
(-0.13074 0.0732456 0.581884)
(-0.184984 0.061844 0.430541)
(-0.0780564 0.158693 0.234419)
(-0.0553595 0.190711 0.0443435)
(0.0113779 0.0908366 0.558435)
(0.0533494 -0.0177185 0.38679)
(0.0398488 -0.0219426 0.295465)
(-0.0506131 0.0133891 0.790673)
(0.12003 -0.103751 0.520374)
(-0.0426806 0.0132985 0.675059)
(-0.105948 -0.0983695 0.509984)
(-0.0663356 -0.050944 0.321772)
(0.0294395 -0.0591396 0.507264)
(-0.127358 0.279493 0.875147)
(0.11045 0.0172423 1.46993)
(0.04289 0.0910404 1.47263)
(0.0495024 0.034736 0.564314)
(-0.0638793 -0.12854 0.625321)
(-0.305432 -0.0700602 0.651725)
(-0.223585 0.0893838 0.829814)
(-0.171519 0.0572973 0.951179)
(0.0744475 0.139151 0.666213)
(0.114094 0.0701761 0.276001)
(-0.0553636 0.0388377 0.605118)
(-0.133153 0.094578 0.600959)
(-0.188049 0.104126 0.438293)
(-0.114463 0.171954 0.261044)
(-0.0741702 0.215427 0.105132)
(-0.000840183 0.114024 0.628784)
(0.0565736 -0.00346358 0.426694)
(0.0565864 -0.0232323 0.34721)
(-0.0144282 0.018393 0.566011)
(0.0988795 -0.0802315 0.596235)
(-0.128415 0.042912 0.690197)
(-0.13442 0.0308464 0.406578)
(-0.1265 -0.102371 0.354481)
(-0.0439054 -0.00896351 0.595682)
(-0.162913 0.234653 0.90616)
(0.0616948 0.0804438 1.4469)
(0.0153223 0.0879454 1.45042)
(0.0785479 -0.035066 0.555865)
(-0.0503119 -0.139018 0.726905)
(-0.320595 -0.0406122 0.665964)
(-0.327559 0.0576359 0.826965)
(-0.329232 0.0793036 0.81731)
(0.0126333 0.157546 0.528598)
(0.0627092 0.131575 0.276119)
(-0.0219279 0.086708 0.697532)
(-0.103281 0.0926004 0.632054)
(-0.153146 0.111482 0.462976)
(-0.116595 0.105709 0.334183)
(-0.0843822 0.194022 0.176125)
(0.0195466 0.0927673 0.720416)
(0.0707547 -0.000637245 0.480068)
(0.0900067 -0.036092 0.390699)
(0.0330652 0.00464038 0.43333)
(0.0972581 -0.0955451 0.681244)
(-0.111435 -0.0248911 0.71248)
(-0.162681 0.0607487 0.42383)
(-0.143167 -0.160878 0.419573)
(-0.138598 -0.00997864 0.67527)
(-0.307303 0.164482 0.928694)
(-0.103167 0.103547 1.35772)
(-0.00489391 0.0429204 1.33696)
(0.123542 -0.0688765 0.528988)
(-0.0297664 -0.142866 0.791683)
(-0.28527 0.00497771 0.696709)
(-0.334451 0.0515319 0.845685)
(-0.327967 0.0785507 0.7247)
(-0.0596197 0.111067 0.434545)
(-0.0123146 0.164384 0.2634)
(0.00390839 0.0908701 0.784776)
(-0.0529846 0.0858952 0.680119)
(-0.0591987 0.0955027 0.497892)
(-0.0697054 0.0322734 0.396204)
(-0.00731921 0.00792336 0.305393)
(0.0618819 0.0129585 0.756881)
(0.0969893 -0.00357783 0.529522)
(0.12976 -0.0579735 0.418027)
(0.0556388 0.0012225 0.407454)
(0.107694 -0.116204 0.728704)
(-0.00788075 -0.01993 0.808557)
(-0.164277 0.0709006 0.506725)
(-0.145151 -0.173505 0.512696)
(-0.230561 -0.0466968 0.760381)
(-0.414437 0.106436 0.921641)
(-0.400582 0.0617259 1.0978)
(0.000706467 -0.0897466 0.993862)
(0.131493 -0.0613045 0.50044)
(-0.00627976 -0.111513 0.846127)
(-0.181071 0.0410314 0.754883)
(-0.269685 0.0610089 0.86787)
(-0.189335 0.0590368 0.659858)
(-0.0914394 0.0207443 0.403534)
(-0.0631362 0.119313 0.281276)
(0.0262547 0.0344209 0.841827)
(0.00612491 0.0855407 0.716681)
(0.0356128 0.0633742 0.519326)
(0.00868358 -0.0241684 0.430796)
(0.0662811 -0.147642 0.396454)
(0.0906694 -0.0115336 0.708293)
(0.123945 -0.00880334 0.564811)
(0.182865 -0.0863318 0.427211)
(0.0864314 -0.00228672 0.400009)
(0.111265 -0.137331 0.809294)
(0.0699013 0.00221559 0.932745)
(-0.150925 0.0613117 0.61497)
(-0.117956 -0.108102 0.595436)
(-0.244234 -0.0813794 0.866928)
(-0.415113 0.0890725 0.925352)
(-0.450728 -0.0490605 0.904196)
(-0.0410993 -0.16548 0.721838)
(0.0823996 -0.0331726 0.490433)
(0.00514969 -0.0937092 0.843757)
(-0.0450599 0.00826653 0.820784)
(-0.131854 0.0646082 0.885005)
(-0.0134375 0.00193113 0.618543)
(-0.0907054 -0.0748533 0.395743)
(-0.0677378 0.0341169 0.323511)
(0.032366 0.00707841 0.848764)
(0.0755152 0.0756274 0.736356)
(0.104598 0.0197374 0.525486)
(0.0781525 -0.0624592 0.44785)
(0.109023 -0.205122 0.437796)
(0.104345 0.00613263 0.65848)
(0.164161 -0.0110561 0.568929)
(0.233753 -0.11129 0.431545)
(0.110519 -0.00153421 0.401903)
(0.127732 -0.15416 0.920423)
(0.0894317 -0.00206957 0.994425)
(-0.104553 0.0171463 0.728224)
(-0.0425733 -0.0091553 0.641768)
(-0.136033 -0.136603 0.990043)
(-0.353056 0.0676888 0.947269)
(-0.346726 -0.129314 0.78649)
(-0.0952854 -0.167155 0.568601)
(0.0260002 -0.00758553 0.476426)
(0.00530997 -0.0353557 0.769448)
(0.0206806 -0.0464892 0.822275)
(-0.0569281 0.0422223 0.901225)
(0.0532177 -0.055645 0.592333)
(-0.0961259 -0.138444 0.401251)
(-0.045789 -0.0386852 0.365051)
(0.0291248 -0.0114998 0.827772)
(0.135865 0.0444805 0.727296)
(0.132705 -0.0215254 0.524761)
(0.118213 -0.0927642 0.459373)
(0.125304 -0.212444 0.456252)
(0.135394 0.0257049 0.601769)
(0.232782 -0.0204835 0.534765)
(0.257211 -0.126436 0.450544)
(0.121294 -2.06337e-05 0.421979)
(0.131174 -0.155155 1.00138)
(0.100894 -0.00785805 1.03027)
(0.00332534 -0.00528119 0.846912)
(0.0464964 0.0794552 0.661531)
(-0.0714329 -0.132138 1.02548)
(-0.164457 0.0149943 0.983884)
(-0.221323 -0.162306 0.745073)
(-0.117391 -0.120706 0.507736)
(0.00944167 0.0342804 0.462723)
(-0.00343013 0.0799877 0.719824)
(0.0159134 -0.053595 0.775719)
(-0.0336872 0.00987369 0.920815)
(0.0454071 -0.0814451 0.572314)
(-0.114736 -0.157795 0.411052)
(-0.0349556 -0.0603215 0.389105)
(0.0991499 -0.00453621 0.74845)
(0.160626 0.0109472 0.704805)
(0.125589 -0.0453396 0.525975)
(0.124178 -0.107336 0.469498)
(0.120647 -0.199127 0.470228)
(0.184538 0.052948 0.530549)
(0.243466 -0.0337108 0.509295)
(0.24852 -0.128296 0.460015)
(0.120063 -0.00270355 0.432048)
(0.0545263 -0.0238353 1.01819)
(0.195848 -0.0192348 1.03885)
(0.206037 -0.00560178 0.921488)
(0.146231 0.131751 0.694619)
(-0.0325302 -0.114114 0.984691)
(0.0230539 -0.00843302 1.00034)
(-0.113308 -0.155232 0.776897)
(-0.0973628 -0.0504696 0.508758)
(0.0262218 0.093499 0.454393)
(0.0146636 0.170071 0.659295)
(0.0318928 0.0403216 0.732744)
(-0.0280583 -0.00765826 0.927183)
(0.000678982 -0.0699601 0.562343)
(-0.141918 -0.140703 0.42197)
(-0.0418274 -0.0363615 0.395107)
(0.125549 0.0768522 0.655589)
(0.14949 -0.00690777 0.694493)
(0.10503 -0.0466022 0.526724)
(0.119087 -0.0988536 0.478627)
(0.102451 -0.170522 0.481397)
(0.177314 0.0586752 0.490317)
(0.197957 -0.0374676 0.486203)
(0.215182 -0.109127 0.448443)
(0.110075 -0.00850664 0.431641)
(0.067188 -0.00651177 0.801921)
(0.35879 -0.0648005 0.974508)
(0.32579 -0.0307064 0.964383)
(0.198502 0.137531 0.739207)
(0.135358 0.0513966 0.961148)
(0.140884 -0.00614214 1.03531)
(-0.0262986 -0.135676 0.866698)
(-0.0543916 0.0187658 0.549692)
(0.0452903 0.147926 0.459937)
(0.015 0.178879 0.582466)
(0.126145 0.140848 0.773079)
(-0.0232544 -0.00719577 0.93921)
(-0.0299665 -0.017753 0.569439)
(-0.170491 -0.100493 0.436999)
(-0.0558674 0.0203063 0.395023)
(0.118048 0.115271 0.606063)
(0.127198 -0.00245062 0.687536)
(0.0878065 -0.0250684 0.524862)
(0.0942126 -0.0610837 0.491563)
(0.0850576 -0.144439 0.486669)
(0.155451 0.0593278 0.472901)
(0.171101 -0.0143387 0.471586)
(0.194321 -0.0908715 0.439768)
(0.1207 -0.00635383 0.43554)
(0.0552906 0.0147861 0.558943)
(0.32969 -0.0631257 0.960291)
(0.316495 -0.0513962 0.968891)
(0.202963 0.120938 0.773981)
(0.183299 0.208773 0.796277)
(0.182658 -0.0290182 1.10469)
(0.0285076 -0.134773 0.968604)
(-0.00820259 0.0642614 0.604988)
(0.0579141 0.191529 0.479603)
(0.0194233 0.180034 0.512901)
(0.162302 0.133184 0.830732)
(0.00200639 -0.0129486 0.95998)
(-0.0305689 0.0319862 0.584275)
(-0.183803 -0.0544795 0.460145)
(-0.0570112 0.0767114 0.406146)
(0.116422 0.128038 0.580349)
(0.10798 0.0328974 0.665365)
(0.0782126 0.00894047 0.530102)
(0.0589426 -0.0224623 0.506214)
(0.0762125 -0.131442 0.498775)
(0.146157 0.0674194 0.472855)
(0.162461 0.00974709 0.479493)
(0.188371 -0.0823782 0.457619)
(0.151102 -0.00798046 0.443526)
(-0.017254 0.0582087 0.430764)
(0.201764 -0.108591 0.928228)
(0.242042 -0.0717168 1.00252)
(0.194975 0.0964768 0.811908)
(0.16328 -0.0228899 0.668062)
(0.182649 -0.0638238 1.13202)
(0.066636 -0.137332 1.03108)
(0.042553 0.0897426 0.655706)
(0.070146 0.217873 0.506124)
(0.0180085 0.137123 0.454536)
(0.0766448 -0.0212129 0.873828)
(0.0528293 -0.0117852 0.939053)
(-0.0128906 0.07618 0.606576)
(-0.175284 -0.00350498 0.493966)
(-0.053536 0.120804 0.435842)
(0.0912994 0.142737 0.57315)
(0.0959006 0.0922935 0.63046)
(0.0737612 0.0436734 0.546761)
(0.0243715 0.00820238 0.525101)
(0.0603357 -0.122465 0.522802)
(0.143119 0.0805181 0.501323)
(0.162006 0.0290807 0.514612)
(0.188194 -0.0799632 0.503535)
(0.140355 -0.00679048 0.459163)
(-0.0661529 0.0730326 0.387102)
(0.119286 -0.065986 0.909478)
(0.191092 -0.0602247 1.03194)
(0.184269 0.092562 0.850531)
(0.0505123 -0.0492117 0.640988)
(0.173154 -0.0723507 1.11574)
(0.11101 -0.109185 1.04502)
(0.108752 0.116654 0.700965)
(0.0855465 0.234001 0.538653)
(0.0151824 0.102215 0.44195)
(0.0446953 -0.0169 0.740904)
(0.0979744 0.0676145 0.871865)
(0.0394072 0.133863 0.629342)
(-0.141952 0.0537531 0.544261)
(-0.0474742 0.159789 0.480376)
(0.0415979 0.167104 0.587268)
(0.0849741 0.139176 0.613845)
(0.0836136 0.0825452 0.578449)
(-0.00567326 0.0390769 0.558833)
(0.0424274 -0.105346 0.560496)
(0.129969 0.0964539 0.561349)
(0.1625 0.0446893 0.572139)
(0.191277 -0.0799143 0.568291)
(0.0789054 -0.00198637 0.518511)
(-0.0737125 0.0601801 0.395913)
(-0.0453841 -0.0346853 0.809334)
(0.181389 -0.0152059 1.0012)
(0.179039 0.0948197 0.850197)
(-0.115871 0.0831864 0.574926)
(0.126253 -0.0289073 1.05436)
(0.18794 7.31236e-05 1.01253)
(0.178706 0.165324 0.73552)
(0.106172 0.248724 0.588107)
(0.00965218 0.118113 0.44908)
(-0.0235581 0.128922 0.578424)
(0.0798676 0.217565 0.763451)
(0.0970679 0.200697 0.650247)
(-0.0943079 0.11232 0.622845)
(-0.0383292 0.195394 0.547656)
(0.0411883 0.165488 0.623631)
(0.06167 0.18972 0.625008)
(0.101547 0.128769 0.629079)
(-0.0152088 0.0704747 0.621551)
(0.0308098 -0.083753 0.620867)
(0.099301 0.115444 0.647184)
(0.159864 0.0584089 0.646332)
(0.194557 -0.0808915 0.653592)
(0.0558268 0.00678064 0.562481)
(-0.0364714 0.00210056 0.460188)
(-0.155398 -0.0703098 0.650962)
(0.138722 -0.0434431 0.929445)
(0.226695 0.072307 0.811433)
(-0.148493 0.129779 0.515082)
(0.0371658 0.0977596 0.791876)
(0.267679 0.180709 0.876038)
(0.218155 0.216863 0.763954)
(0.138983 0.256842 0.670084)
(0.00677021 0.156478 0.517473)
(-0.0921369 0.217049 0.548475)
(0.0278366 0.289677 0.642778)
(0.121255 0.232759 0.689089)
(-0.0739117 0.145179 0.728052)
(-0.0259808 0.225856 0.648474)
(0.0621169 0.15916 0.701921)
(0.0347468 0.222054 0.656727)
(0.100735 0.162575 0.693443)
(-0.0147457 0.091863 0.713738)
(0.0260109 -0.0688237 0.705731)
(0.0854392 0.127063 0.755577)
(0.144782 0.0701812 0.737369)
(0.191543 -0.0796298 0.75144)
(0.109232 0.0086897 0.615087)
(0.00512308 -0.0350749 0.493235)
(-0.069215 -0.0381263 0.591046)
(0.15354 -0.0686427 0.700845)
(0.264155 0.0571625 0.824649)
(-0.0988604 0.105846 0.492136)
(0.00523356 0.129483 0.534991)
(0.246714 0.196134 0.747578)
(0.209313 0.232462 0.799405)
(0.161085 0.275181 0.78462)
(0.0144143 0.160612 0.552189)
(-0.0740395 0.22382 0.569932)
(-0.00779359 0.249786 0.551812)
(0.101128 0.218272 0.726885)
(-0.0974969 0.12638 0.847992)
(-0.0260371 0.236824 0.772583)
(0.0734689 0.177447 0.790413)
(0.0318226 0.204531 0.700909)
(0.0840258 0.151949 0.760722)
(-0.0127248 0.0898248 0.813188)
(0.0312235 -0.0761027 0.799685)
(0.0787933 0.113724 0.879588)
(0.125462 0.065442 0.835154)
(0.183517 -0.0765967 0.847166)
(0.129182 0.0155407 0.63264)
(0.0460285 -0.0656019 0.482691)
(0.0378825 -0.00371641 0.52892)
(0.141056 0.023759 0.527856)
(0.220934 0.091037 0.842842)
(-0.0489709 0.0403123 0.459405)
(0.00627666 0.0591998 0.404015)
(0.169138 0.113568 0.672977)
(0.14544 0.204565 0.849764)
(0.141982 0.268053 0.908278)
(0.0225866 0.107912 0.491162)
(0.0480885 0.133584 0.594837)
(-0.00879893 0.141183 0.520162)
(0.042625 0.153042 0.780016)
(-0.128534 0.0618218 0.958369)
(-0.0378705 0.215896 0.893893)
(0.0713072 0.110311 0.876073)
(0.070234 0.131732 0.77804)
(0.0912257 0.115563 0.817869)
(0.00660975 0.0645295 0.893035)
(0.0506515 -0.0992999 0.882188)
(0.0669088 0.0770805 0.971518)
(0.106303 0.0436148 0.912656)
(0.171485 -0.0748244 0.920911)
(0.065604 0.0162971 0.619909)
(0.0848964 -0.105974 0.476452)
(0.0922065 0.0179825 0.462697)
(0.0986373 0.045677 0.440081)
(0.10248 0.109948 0.807607)
(-0.0233113 -0.0495775 0.440966)
(-0.00437171 0.0051803 0.346246)
(0.0998474 0.061801 0.64792)
(0.048301 0.127571 0.909664)
(0.105935 0.221589 0.973878)
(0.00352152 0.0282384 0.43302)
(0.0838423 0.00979272 0.60281)
(0.00216462 0.0152279 0.525647)
(0.0173798 0.0988641 0.806239)
(-0.129605 -0.00706849 1.03668)
(-0.0571093 0.140555 1.00121)
(0.0820419 0.00652313 0.787589)
(0.101636 0.0743679 0.809103)
(0.113122 0.102767 0.86153)
(0.0561574 0.0400693 0.945591)
(0.0764084 -0.123317 0.946053)
(0.0741996 0.0449677 1.01252)
(0.0945555 0.0271802 0.95688)
(0.164081 -0.0761868 0.969141)
(-0.0371512 0.00115259 0.576482)
(0.121118 -0.143783 0.494505)
(0.116873 0.0566519 0.428979)
(0.0646948 0.0349439 0.408951)
(0.031657 0.065893 0.747295)
(-0.030277 -0.126514 0.441604)
(-0.0194509 -0.00419066 0.336662)
(0.0526199 0.0505003 0.644642)
(-0.0242808 0.0555867 0.950505)
(0.0779653 0.155305 0.990068)
(-0.0114336 -0.0136598 0.4357)
(-0.000257407 -0.0486226 0.589374)
(0.000178053 -0.0620616 0.510542)
(0.0110762 0.0748488 0.822404)
(-0.112027 -0.0479385 1.0725)
(-0.070416 0.00433712 1.08856)
(0.0270259 -0.0314574 0.635443)
(0.0946527 0.0460181 0.804112)
(0.113052 0.109881 0.89803)
(0.0824839 0.0430419 0.971084)
(0.0946454 -0.149603 0.996146)
(0.0724726 0.0412633 1.02381)
(0.0935971 0.0275856 0.992945)
(0.157764 -0.0754806 1.01056)
(-0.0796953 -0.00987896 0.54313)
(0.127308 -0.157235 0.535768)
(0.117462 0.0942295 0.435076)
(0.0326519 0.00638739 0.404974)
(0.00184819 0.0015538 0.708302)
(-0.0550087 -0.181355 0.44708)
(-0.0388814 0.0129119 0.344784)
(0.00640774 0.0330031 0.653875)
(-0.0813407 0.00975685 0.9721)
(0.036527 0.0402447 1.02128)
(-0.0188663 -0.0448299 0.480258)
(-0.087953 -0.09293 0.53696)
(-0.0102419 -0.0722644 0.490371)
(0.00409899 0.0703472 0.833169)
(-0.1028 -0.0594798 1.07462)
(-0.0495145 -0.101157 1.12689)
(-0.0433312 -0.0467819 0.580789)
(0.0612146 0.0172402 0.761039)
(0.104589 0.103029 0.921813)
(0.0856663 0.0455632 0.969451)
(0.107298 -0.168596 1.03124)
(0.0463231 0.0384635 1.02277)
(0.0950091 0.0295969 1.02952)
(0.154016 -0.0727259 1.06632)
(-0.0814679 -0.0167238 0.521927)
(0.127268 -0.154544 0.604374)
(0.12007 0.112357 0.463385)
(0.0201454 -0.0313097 0.417365)
(-0.0229744 -0.0388461 0.699842)