/*--------------------------------*- C++ -*----------------------------------*\
| =========                 |                                                 |
| \\      /  F ield         | OpenFOAM: The Open Source CFD Toolbox           |
|  \\    /   O peration     | Version:  5.x                                   |
|   \\  /    A nd           | Web:      www.OpenFOAM.org                      |
|    \\/     M anipulation  |                                                 |
\*---------------------------------------------------------------------------*/
FoamFile
{
    version     2.0;
    format      ascii;
    class       volVectorField;
    location    "5";
    object      Us;
}
// * * * * * * * * * * * * * * * * * * * * * * * * * * * * * * * * * * * * * //

dimensions      [0 1 -1 0 0 0 0];

internalField   nonuniform List<vector> 
10571
(
(0.0333718 -0.00221223 0.0160564)
(0.00607203 0.0155923 -0.0344953)
(0.0725827 0.0176136 -0.00125505)
(0.00854589 0.00936422 0.0167005)
(-0.00602092 -0.00225591 0.0354087)
(0.0332582 0.00481771 0.0311054)
(-0.0373962 -0.0656012 -0.00598024)
(-0.0276352 -0.107453 -0.00509646)
(0.0547383 -0.03148 0.011237)
(0.022592 0.0321862 0.0206292)
(0.0110224 -0.0125916 -0.0763272)
(0.0465908 -0.028351 -0.0335116)
(-0.0770965 0.065835 -0.0623691)
(0.0500496 0.0580575 -0.116444)
(0.122709 0.0983673 -0.0879902)
(0.0218847 0.124984 0.0281449)
(0.0548503 0.0280294 -0.0629584)
(-0.00327883 0.167177 -0.0302147)
(0.0740093 0.106582 -0.0915538)
(0.127456 0.138301 -0.0891412)
(-0.00421922 0.0374705 0.0218462)
(0.0887977 0.0154645 -0.000465435)
(0.0333996 0.0208146 0.0134527)
(0.00818167 0.00253094 0.00379849)
(0.0642494 -0.0111048 -0.0924775)
(0.0327015 -0.0250827 -0.178823)
(0.0677784 0.0172753 -0.138202)
(0.113972 0.064466 -0.015945)
(0.0274608 0.019292 0.0550016)
(0.0375803 0.0570664 -0.113185)
(0.133189 0.0714136 -0.0358276)
(0.114139 0.0272583 -0.00337585)
(0.0316779 0.0132155 0.017394)
(0.00364496 0.0149375 0.0165923)
(0.00840794 0.0340886 -0.139315)
(0.078755 0.0816877 -0.0894215)
(0.125248 0.0262912 -0.0441517)
(0.0781114 0.00328547 -0.085201)
(0.0300466 -0.0218948 -0.0498343)
(0.00875567 -0.00991947 0.00978452)
(0.0202451 0.0573542 -0.0859635)
(0.0768417 0.00360152 -0.0453471)
(0.0437646 -0.0536253 -0.060623)
(0.0328684 -0.0735989 -0.0569071)
(0.0363454 -0.00737108 0.00948912)
(0.00270204 0.0311295 -0.0430829)
(0.0261638 0.0334854 0.00930635)
(0.0443165 -0.0346502 -0.036146)
(0.0244294 0.0221054 -0.133137)
(0.0544937 -0.0502317 -0.145016)
(0.0452895 0.00380173 -0.121331)
(0.110906 0.12729 -0.0340137)
(0.045045 0.0460167 0.0886363)
(0.051363 -0.0758133 0.000786348)
(0.20121 0.0581129 -0.0108811)
(0.142189 0.0591489 0.0550777)
(0.0496403 0.0275769 0.0750171)
(0.0125504 0.0309294 0.0193754)
(0.00145874 0.0147641 -0.0898599)
(0.00908335 0.104268 0.00823589)
(0.230547 0.0179993 0.0202288)
(0.132208 -0.0253051 -0.0132775)
(-0.0124073 -0.0679669 0.0391651)
(-0.010942 -0.0697133 0.0573666)
(0.0252307 0.0516237 -0.0532054)
(0.145737 -0.0408008 0.0246847)
(0.037942 -0.0943492 0.0520201)
(-0.0261714 -0.0882361 0.0881999)
(0.0383571 -0.134532 0.199784)
(-0.0222184 -0.0232731 0.0277392)
(-0.0123166 -0.0744538 0.236957)
(0.0311246 -0.0495591 0.186933)
(0.0278998 -0.0099379 -0.152758)
(0.0603673 -0.032203 -0.592753)
(0.138407 -0.00525639 -0.604399)
(-0.000373302 -0.0498532 -0.220811)
(0.096133 -0.0222422 0.195103)
(0.0465756 -0.0915011 -0.0593259)
(0.182351 -0.00701361 -0.00827796)
(0.0748546 0.11747 -0.0245743)
(0.20035 0.0745114 0.0884734)
(0.0964819 0.0959641 -0.161616)
(0.00376402 -0.00198019 -0.0995569)
(0.0212218 0.0232681 -0.0230696)
(0.206762 0.00651554 -0.00495167)
(0.294937 -0.0622543 -0.00673539)
(-0.0242775 -0.120704 0.203566)
(-0.0501861 -0.0116918 -0.421551)
(-6.85775e-05 -0.014998 -0.0815706)
(0.124307 -0.0610783 0.00931074)
(0.0937266 -0.097014 0.118263)
(-0.058036 -0.0785524 0.17463)
(0.0500622 -0.0871119 0.233812)
(0.0408299 -0.0226197 0.0235326)
(0.167539 -0.0657033 0.266081)
(0.0185794 -0.010297 0.174829)
(0 0 0)
(0 0 0)
(0.136206 -0.00131076 -0.535122)
(0.00091234 -0.0354697 -0.164616)
(0.106363 -0.076611 -0.119922)
(0 0 0)
(-0.0280341 0.0687811 -0.111506)
(0.0107769 0.0734939 -0.0808914)
(0.138878 0.0709915 -0.0487099)
(0.197291 0.0402592 -0.109366)
(0 0 0)
(0 0 0)
(0 0 0)
(0 0 0)
(0 0 0)
(-0.0506982 0.0701007 -0.322301)
(0 0 0)
(0.0710822 -0.0500519 -0.0351354)
(0 0 0)
(0 0 0)
(0 0 0)
(0.0569236 0.00441095 -0.0648098)
(0 0 0)
(0 0 0)
(0 0 0)
(0.0823211 -0.0371321 -0.469089)
(0 0 0)
(0 0 0)
(0.115632 -0.0382845 -0.0230546)
(0 0 0)
(0 0 0)
(0.0427664 0.062768 0.0721106)
(0.123304 0.0692594 0.0497194)
(0 0 0)
(-0.0029786 0.000953707 -0.00107472)
(0 0 0)
(0 0 0)
(0 0 0)
(0 0 0)
(0 0 0)
(0 0 0)
(-0.000778356 -0.00015055 -0.000294878)
(0 0 0)
(0 0 0)
(0 0 0)
(0 0 0)
(0 0 0)
(0 0 0)
(0 0 0)
(0 0 0)
(0 0 0)
(0 0 0)
(0 0 0)
(0 0 0)
(0 0 0)
(0 0 0)
(0 0 0)
(0 0 0)
(0 0 0)
(0 0 0)
(0 0 0)
(0 0 0)
(0 0 0)
(0 0 0)
(0 0 0)
(0 0 0)
(0 0 0)
(0 0 0)
(0 0 0)
(0 0 0)
(0 0 0)
(0 0 0)
(0 0 0)
(0 0 0)
(0 0 0)
(0 0 0)
(0 0 0)
(0 0 0)
(0 0 0)
(0 0 0)
(0 0 0)
(0 0 0)
(0 0 0)
(0 0 0)
(0 0 0)
(0 0 0)
(0 0 0)
(0 0 0)
(0 0 0)
(0 0 0)
(0 0 0)
(0 0 0)
(0 0 0)
(0 0 0)
(0 0 0)
(0 0 0)
(0 0 0)
(0 0 0)
(0 0 0)
(0 0 0)
(0 0 0)
(0 0 0)
(0 0 0)
(0 0 0)
(0 0 0)
(0 0 0)
(0 0 0)
(0 0 0)
(0 0 0)
(0 0 0)
(0 0 0)
(0 0 0)
(0 0 0)
(0 0 0)
(0 0 0)
(0 0 0)
(0 0 0)
(0 0 0)
(0 0 0)
(0 0 0)
(0 0 0)
(0 0 0)
(0 0 0)
(0 0 0)
(0 0 0)
(0 0 0)
(0 0 0)
(0 0 0)
(0 0 0)
(0 0 0)
(0 0 0)
(0 0 0)
(0 0 0)
(0 0 0)
(0 0 0)
(0 0 0)
(0 0 0)
(0 0 0)
(0 0 0)
(0 0 0)
(0 0 0)
(0 0 0)
(0 0 0)
(0 0 0)
(0 0 0)
(0 0 0)
(0 0 0)
(0 0 0)
(0 0 0)
(0 0 0)
(0 0 0)
(0 0 0)
(0 0 0)
(0 0 0)
(0 0 0)
(0 0 0)
(0 0 0)
(0 0 0)
(0 0 0)
(0 0 0)
(0 0 0)
(0 0 0)
(0 0 0)
(0 0 0)
(0 0 0)
(0 0 0)
(0 0 0)
(0 0 0)
(0 0 0)
(0 0 0)
(0 0 0)
(0 0 0)
(0 0 0)
(0 0 0)
(0 0 0)
(0 0 0)
(0 0 0)
(0 0 0)
(0 0 0)
(0 0 0)
(0 0 0)
(0 0 0)
(0 0 0)
(0 0 0)
(0 0 0)
(0 0 0)
(0 0 0)
(0 0 0)
(0 0 0)
(0 0 0)
(0 0 0)
(0 0 0)
(0 0 0)
(0 0 0)
(0 0 0)
(0 0 0)
(0 0 0)
(0 0 0)
(0 0 0)
(0 0 0)
(0 0 0)
(0 0 0)
(0 0 0)
(0 0 0)
(0 0 0)
(0 0 0)
(0 0 0)
(0 0 0)
(0 0 0)
(0 0 0)
(0 0 0)
(0 0 0)
(0 0 0)
(0 0 0)
(0 0 0)
(0 0 0)
(0 0 0)
(0 0 0)
(0 0 0)
(0 0 0)
(0 0 0)
(0 0 0)
(0 0 0)
(0 0 0)
(0 0 0)
(0 0 0)
(0 0 0)
(0 0 0)
(0 0 0)
(0 0 0)
(0 0 0)
(0 0 0)
(0 0 0)
(0 0 0)
(0 0 0)
(0 0 0)
(0 0 0)
(0 0 0)
(0 0 0)
(0 0 0)
(0 0 0)
(0 0 0)
(0 0 0)
(0 0 0)
(0 0 0)
(0 0 0)
(0 0 0)
(0 0 0)
(0 0 0)
(0 0 0)
(0 0 0)
(0 0 0)
(0 0 0)
(0 0 0)
(0 0 0)
(0 0 0)
(0 0 0)
(0 0 0)
(0 0 0)
(0 0 0)
(0 0 0)
(0 0 0)
(0 0 0)
(0 0 0)
(0 0 0)
(0 0 0)
(0 0 0)
(0 0 0)
(0 0 0)
(0 0 0)
(0 0 0)
(0 0 0)
(0 0 0)
(0 0 0)
(0 0 0)
(0 0 0)
(0 0 0)
(0 0 0)
(0 0 0)
(0 0 0)
(0 0 0)
(0 0 0)
(0 0 0)
(0 0 0)
(0 0 0)
(0 0 0)
(0 0 0)
(0 0 0)
(0 0 0)
(0 0 0)
(0 0 0)
(0 0 0)
(0 0 0)
(0 0 0)
(0 0 0)
(0 0 0)
(0 0 0)
(0 0 0)
(0 0 0)
(0 0 0)
(0 0 0)
(0 0 0)
(0 0 0)
(0 0 0)
(0 0 0)
(0 0 0)
(0 0 0)
(0 0 0)
(0 0 0)
(0 0 0)
(0 0 0)
(0 0 0)
(0 0 0)
(0 0 0)
(0 0 0)
(0 0 0)
(0 0 0)
(0 0 0)
(0 0 0)
(0 0 0)
(0 0 0)
(0 0 0)
(0 0 0)
(0 0 0)
(0 0 0)
(0 0 0)
(0 0 0)
(0 0 0)
(0 0 0)
(0 0 0)
(0 0 0)
(0 0 0)
(0 0 0)
(0 0 0)
(0 0 0)
(0 0 0)
(0 0 0)
(0 0 0)
(0 0 0)
(0 0 0)
(0 0 0)
(0 0 0)
(0 0 0)
(0 0 0)
(0 0 0)
(0 0 0)
(0 0 0)
(0 0 0)
(0 0 0)
(0 0 0)
(0 0 0)
(0 0 0)
(0 0 0)
(0 0 0)
(0 0 0)
(0 0 0)
(0 0 0)
(0 0 0)
(0 0 0)
(0 0 0)
(0 0 0)
(0 0 0)
(0 0 0)
(0 0 0)
(0 0 0)
(0 0 0)
(0 0 0)
(0 0 0)
(0 0 0)
(0 0 0)
(0 0 0)
(0 0 0)
(0 0 0)
(0 0 0)
(0 0 0)
(0 0 0)
(0 0 0)
(0 0 0)
(0 0 0)
(0 0 0)
(0 0 0)
(0 0 0)
(0 0 0)
(0 0 0)
(0 0 0)
(0 0 0)
(0 0 0)
(0 0 0)
(0 0 0)
(0 0 0)
(0 0 0)
(0 0 0)
(0 0 0)
(0 0 0)
(0 0 0)
(0 0 0)
(0 0 0)
(0 0 0)
(0 0 0)
(0 0 0)
(0 0 0)
(0 0 0)
(0 0 0)
(0 0 0)
(0 0 0)
(0 0 0)
(0 0 0)
(0 0 0)
(0 0 0)
(0 0 0)
(0 0 0)
(0 0 0)
(0 0 0)
(0 0 0)
(0 0 0)
(0 0 0)
(0 0 0)
(0 0 0)
(0 0 0)
(0 0 0)
(0 0 0)
(0 0 0)
(0 0 0)
(0 0 0)
(0 0 0)
(0 0 0)
(0 0 0)
(0 0 0)
(0 0 0)
(0 0 0)
(0 0 0)
(0 0 0)
(0 0 0)
(0 0 0)
(0 0 0)
(0 0 0)
(0 0 0)
(0 0 0)
(0 0 0)
(0 0 0)
(0 0 0)
(0 0 0)
(0 0 0)
(0 0 0)
(0 0 0)
(0 0 0)
(0 0 0)
(0 0 0)
(0 0 0)
(0 0 0)
(0 0 0)
(0 0 0)
(0 0 0)
(0 0 0)
(0 0 0)
(0 0 0)
(0 0 0)
(0 0 0)
(0 0 0)
(0 0 0)
(0 0 0)
(0 0 0)
(0 0 0)
(0 0 0)
(0 0 0)
(0 0 0)
(0 0 0)
(0 0 0)
(0 0 0)
(0 0 0)
(0 0 0)
(0 0 0)
(0 0 0)
(0 0 0)
(0 0 0)
(0 0 0)
(0 0 0)
(0 0 0)
(0 0 0)
(0 0 0)
(0 0 0)
(0 0 0)
(0 0 0)
(0 0 0)
(0 0 0)
(0 0 0)
(0 0 0)
(0 0 0)
(0 0 0)
(0 0 0)
(0 0 0)
(0 0 0)
(0 0 0)
(0 0 0)
(0 0 0)
(0 0 0)
(0 0 0)
(0 0 0)
(0 0 0)
(0 0 0)
(0 0 0)
(0 0 0)
(0 0 0)
(0 0 0)
(0 0 0)
(0 0 0)
(0 0 0)
(0 0 0)
(0 0 0)
(0 0 0)
(0 0 0)
(0 0 0)
(0 0 0)
(0 0 0)
(0 0 0)
(0 0 0)
(0 0 0)
(0 0 0)
(0 0 0)
(0 0 0)
(0 0 0)
(0 0 0)
(0 0 0)
(0 0 0)
(0 0 0)
(0 0 0)
(0 0 0)
(0 0 0)
(0 0 0)
(0 0 0)
(0 0 0)
(0 0 0)
(0 0 0)
(0 0 0)
(0 0 0)
(0 0 0)
(0 0 0)
(0 0 0)
(0 0 0)
(0 0 0)
(0 0 0)
(0 0 0)
(0 0 0)
(0 0 0)
(0 0 0)
(0 0 0)
(0 0 0)
(0 0 0)
(0 0 0)
(0 0 0)
(0 0 0)
(0 0 0)
(0 0 0)
(0 0 0)
(0 0 0)
(0 0 0)
(0 0 0)
(0 0 0)
(0 0 0)
(0 0 0)
(0 0 0)
(0 0 0)
(0 0 0)
(0 0 0)
(0 0 0)
(0 0 0)
(0 0 0)
(0 0 0)
(0 0 0)
(0 0 0)
(0 0 0)
(0 0 0)
(0 0 0)
(0 0 0)
(0 0 0)
(0 0 0)
(0 0 0)
(0 0 0)
(0 0 0)
(0 0 0)
(0 0 0)
(0 0 0)
(0 0 0)
(0 0 0)
(0 0 0)
(0 0 0)
(0 0 0)
(0 0 0)
(0 0 0)
(0 0 0)
(0 0 0)
(0 0 0)
(0 0 0)
(0 0 0)
(0 0 0)
(0 0 0)
(0 0 0)
(0 0 0)
(0 0 0)
(0 0 0)
(0 0 0)
(0 0 0)
(0 0 0)
(0 0 0)
(0 0 0)
(0 0 0)
(0 0 0)
(0 0 0)
(0 0 0)
(0 0 0)
(0 0 0)
(0 0 0)
(0 0 0)
(0 0 0)
(0 0 0)
(0 0 0)
(0 0 0)
(0 0 0)
(0 0 0)
(0 0 0)
(0 0 0)
(0 0 0)
(0 0 0)
(0 0 0)
(0 0 0)
(0 0 0)
(0 0 0)
(0 0 0)
(0 0 0)
(0 0 0)
(0 0 0)
(0 0 0)
(0 0 0)
(0 0 0)
(0 0 0)
(0 0 0)
(0 0 0)
(0 0 0)
(0 0 0)
(0 0 0)
(0 0 0)
(0 0 0)
(0 0 0)
(0 0 0)
(0 0 0)
(0 0 0)
(0 0 0)
(0 0 0)
(0 0 0)
(0 0 0)
(0 0 0)
(0 0 0)
(0 0 0)
(0 0 0)
(0 0 0)
(0 0 0)
(0 0 0)
(0 0 0)
(0 0 0)
(0 0 0)
(0 0 0)
(0 0 0)
(0 0 0)
(0 0 0)
(0 0 0)
(0 0 0)
(0 0 0)
(0 0 0)
(0 0 0)
(0 0 0)
(0 0 0)
(0 0 0)
(0 0 0)
(0 0 0)
(0 0 0)
(0 0 0)
(0 0 0)
(0 0 0)
(0 0 0)
(0 0 0)
(0 0 0)
(0 0 0)
(0 0 0)
(0 0 0)
(0 0 0)
(0 0 0)
(0 0 0)
(0 0 0)
(0 0 0)
(0 0 0)
(0 0 0)
(0 0 0)
(0 0 0)
(0 0 0)
(0 0 0)
(0 0 0)
(0 0 0)
(0 0 0)
(0 0 0)
(0 0 0)
(0 0 0)
(0 0 0)
(0 0 0)
(0 0 0)
(0 0 0)
(0 0 0)
(0 0 0)
(0 0 0)
(0 0 0)
(0 0 0)
(0 0 0)
(0 0 0)
(0 0 0)
(0 0 0)
(0 0 0)
(0 0 0)
(0 0 0)
(0 0 0)
(0 0 0)
(0 0 0)
(0 0 0)
(0 0 0)
(0 0 0)
(0 0 0)
(0 0 0)
(0 0 0)
(0 0 0)
(0 0 0)
(0 0 0)
(0 0 0)
(0 0 0)
(0 0 0)
(0 0 0)
(0 0 0)
(0 0 0)
(0 0 0)
(0 0 0)
(0 0 0)
(0 0 0)
(0 0 0)
(0 0 0)
(0 0 0)
(0 0 0)
(0 0 0)
(0 0 0)
(0 0 0)
(0 0 0)
(0 0 0)
(0 0 0)
(0 0 0)
(0 0 0)
(0 0 0)
(0 0 0)
(0 0 0)
(0 0 0)
(0 0 0)
(0 0 0)
(0 0 0)
(0 0 0)
(0 0 0)
(0 0 0)
(0 0 0)
(0 0 0)
(0 0 0)
(0 0 0)
(0 0 0)
(0 0 0)
(0 0 0)
(0 0 0)
(0 0 0)
(0 0 0)
(0 0 0)
(0 0 0)
(0 0 0)
(0 0 0)
(0 0 0)
(0 0 0)
(0 0 0)
(0 0 0)
(0 0 0)
(0 0 0)
(0 0 0)
(0 0 0)
(0 0 0)
(0 0 0)
(0 0 0)
(0 0 0)
(0 0 0)
(0 0 0)
(0 0 0)
(0 0 0)
(0 0 0)
(0 0 0)
(0 0 0)
(0 0 0)
(0 0 0)
(0 0 0)
(0 0 0)
(0 0 0)
(0 0 0)
(0 0 0)
(0 0 0)
(0 0 0)
(0 0 0)
(0 0 0)
(0 0 0)
(0 0 0)
(0 0 0)
(0 0 0)
(0 0 0)
(0 0 0)
(0 0 0)
(0 0 0)
(0 0 0)
(0 0 0)
(0 0 0)
(0 0 0)
(0 0 0)
(0 0 0)
(0 0 0)
(0 0 0)
(0 0 0)
(0 0 0)
(0 0 0)
(0 0 0)
(0 0 0)
(0 0 0)
(0 0 0)
(0 0 0)
(0 0 0)
(0 0 0)
(0 0 0)
(0 0 0)
(0 0 0)
(0 0 0)
(0 0 0)
(0 0 0)
(0 0 0)
(0 0 0)
(0 0 0)
(0 0 0)
(0 0 0)
(0 0 0)
(0 0 0)
(0 0 0)
(0 0 0)
(0 0 0)
(0 0 0)
(0 0 0)
(0 0 0)
(0 0 0)
(0 0 0)
(0 0 0)
(0 0 0)
(0 0 0)
(0 0 0)
(0 0 0)
(0 0 0)
(0 0 0)
(0 0 0)
(0 0 0)
(0 0 0)
(0 0 0)
(0 0 0)
(0 0 0)
(0 0 0)
(0 0 0)
(0 0 0)
(0 0 0)
(0 0 0)
(0 0 0)
(0 0 0)
(0 0 0)
(0 0 0)
(0 0 0)
(0 0 0)
(0 0 0)
(0 0 0)
(0 0 0)
(0 0 0)
(0 0 0)
(0 0 0)
(0 0 0)
(0 0 0)
(0 0 0)
(0 0 0)
(0 0 0)
(0 0 0)
(0 0 0)
(0 0 0)
(0 0 0)
(0 0 0)
(0 0 0)
(0 0 0)
(0 0 0)
(0 0 0)
(0 0 0)
(0 0 0)
(0 0 0)
(0 0 0)
(0 0 0)
(0 0 0)
(0 0 0)
(0 0 0)
(0 0 0)
(0 0 0)
(0 0 0)
(0 0 0)
(0 0 0)
(0 0 0)
(0 0 0)
(0 0 0)
(0 0 0)
(0 0 0)
(0 0 0)
(0 0 0)
(0 0 0)
(0 0 0)
(0 0 0)
(0 0 0)
(0 0 0)
(0 0 0)
(0 0 0)
(0 0 0)
(0 0 0)
(0 0 0)
(0 0 0)
(0 0 0)
(0 0 0)
(0 0 0)
(0 0 0)
(0 0 0)
(0 0 0)
(0 0 0)
(0 0 0)
(0 0 0)
(0 0 0)
(0 0 0)
(0 0 0)
(0 0 0)
(0 0 0)
(0 0 0)
(0 0 0)
(0 0 0)
(0 0 0)
(0 0 0)
(0 0 0)
(0 0 0)
(0 0 0)
(0 0 0)
(0 0 0)
(0 0 0)
(0 0 0)
(0 0 0)
(0 0 0)
(0 0 0)
(0 0 0)
(0 0 0)
(0 0 0)
(0 0 0)
(0 0 0)
(0 0 0)
(0 0 0)
(0 0 0)
(0 0 0)
(0 0 0)
(0 0 0)
(0 0 0)
(0 0 0)
(0 0 0)
(0 0 0)
(0 0 0)
(0 0 0)
(0 0 0)
(0 0 0)
(0 0 0)
(0 0 0)
(0 0 0)
(0 0 0)
(0 0 0)
(0 0 0)
(0 0 0)
(0 0 0)
(0 0 0)
(0 0 0)
(0 0 0)
(0 0 0)
(0 0 0)
(0 0 0)
(0 0 0)
(0 0 0)
(0 0 0)
(0 0 0)
(0 0 0)
(0 0 0)
(0 0 0)
(0 0 0)
(0 0 0)
(0 0 0)
(0 0 0)
(0 0 0)
(0 0 0)
(0 0 0)
(0 0 0)
(0 0 0)
(0 0 0)
(0 0 0)
(0 0 0)
(0 0 0)
(0 0 0)
(0 0 0)
(0 0 0)
(0 0 0)
(0 0 0)
(0 0 0)
(0 0 0)
(0 0 0)
(0 0 0)
(0 0 0)
(0 0 0)
(0 0 0)
(0 0 0)
(0 0 0)
(0 0 0)
(0 0 0)
(0 0 0)
(0 0 0)
(0 0 0)
(0 0 0)
(0 0 0)
(0 0 0)
(0 0 0)
(0 0 0)
(0 0 0)
(0 0 0)
(0 0 0)
(0 0 0)
(0 0 0)
(0 0 0)
(0 0 0)
(0 0 0)
(0 0 0)
(0 0 0)
(0 0 0)
(0 0 0)
(0 0 0)
(0 0 0)
(0 0 0)
(0 0 0)
(0 0 0)
(0 0 0)
(0 0 0)
(0 0 0)
(0 0 0)
(0 0 0)
(0 0 0)
(0 0 0)
(0 0 0)
(0 0 0)
(0 0 0)
(0 0 0)
(0 0 0)
(0 0 0)
(0 0 0)
(0 0 0)
(0 0 0)
(0 0 0)
(0 0 0)
(0 0 0)
(0 0 0)
(0 0 0)
(0 0 0)
(0 0 0)
(0 0 0)
(0 0 0)
(0 0 0)
(0 0 0)
(0 0 0)
(0 0 0)
(0 0 0)
(0 0 0)
(0 0 0)
(0 0 0)
(0 0 0)
(0 0 0)
(0 0 0)
(0 0 0)
(0 0 0)
(0 0 0)
(0 0 0)
(0 0 0)
(0 0 0)
(0 0 0)
(0 0 0)
(0 0 0)
(0 0 0)
(0 0 0)
(0 0 0)
(0 0 0)
(0 0 0)
(0 0 0)
(0 0 0)
(0 0 0)
(0 0 0)
(0 0 0)
(0 0 0)
(0 0 0)
(0 0 0)
(0 0 0)
(0 0 0)
(0 0 0)
(0 0 0)
(0 0 0)
(0 0 0)
(0 0 0)
(0 0 0)
(0 0 0)
(0 0 0)
(0 0 0)
(0 0 0)
(0 0 0)
(0 0 0)
(0 0 0)
(0 0 0)
(0 0 0)
(0 0 0)
(0 0 0)
(0 0 0)
(0 0 0)
(0 0 0)
(0 0 0)
(0 0 0)
(0 0 0)
(0 0 0)
(0 0 0)
(0 0 0)
(0 0 0)
(0 0 0)
(0 0 0)
(0 0 0)
(0 0 0)
(0 0 0)
(0 0 0)
(0 0 0)
(0 0 0)
(0 0 0)
(0 0 0)
(0 0 0)
(0 0 0)
(0 0 0)
(0 0 0)
(0 0 0)
(0 0 0)
(0 0 0)
(0 0 0)
(0 0 0)
(0 0 0)
(0 0 0)
(0 0 0)
(0 0 0)
(0 0 0)
(0 0 0)
(0 0 0)
(0 0 0)
(0 0 0)
(0 0 0)
(0 0 0)
(0 0 0)
(0 0 0)
(0 0 0)
(0 0 0)
(0 0 0)
(0 0 0)
(0 0 0)
(0 0 0)
(0 0 0)
(0 0 0)
(0 0 0)
(0 0 0)
(0 0 0)
(0 0 0)
(0 0 0)
(0 0 0)
(0 0 0)
(0 0 0)
(0 0 0)
(0 0 0)
(0 0 0)
(0 0 0)
(0 0 0)
(0 0 0)
(0 0 0)
(0 0 0)
(0 0 0)
(0 0 0)
(0 0 0)
(0 0 0)
(0 0 0)
(0 0 0)
(0 0 0)
(0 0 0)
(0 0 0)
(0 0 0)
(0 0 0)
(0 0 0)
(0 0 0)
(0 0 0)
(0 0 0)
(0 0 0)
(0 0 0)
(0 0 0)
(0 0 0)
(0 0 0)
(0 0 0)
(0 0 0)
(0 0 0)
(0 0 0)
(0 0 0)
(0 0 0)
(0 0 0)
(0 0 0)
(0 0 0)
(0 0 0)
(0 0 0)
(0 0 0)
(0 0 0)
(0 0 0)
(0 0 0)
(0 0 0)
(0 0 0)
(0 0 0)
(0 0 0)
(0 0 0)
(0 0 0)
(0 0 0)
(0 0 0)
(0 0 0)
(0 0 0)
(0 0 0)
(0 0 0)
(0 0 0)
(0 0 0)
(0 0 0)
(0 0 0)
(0 0 0)
(0 0 0)
(0 0 0)
(0 0 0)
(0 0 0)
(0 0 0)
(0 0 0)
(0 0 0)
(0 0 0)
(0 0 0)
(0 0 0)
(0 0 0)
(0 0 0)
(0 0 0)
(0 0 0)
(0 0 0)
(0 0 0)
(0 0 0)
(0 0 0)
(0 0 0)
(0 0 0)
(0 0 0)
(0 0 0)
(0 0 0)
(0 0 0)
(0 0 0)
(0 0 0)
(0 0 0)
(0 0 0)
(0 0 0)
(0 0 0)
(0 0 0)
(0 0 0)
(0 0 0)
(0 0 0)
(0 0 0)
(0 0 0)
(0 0 0)
(0 0 0)
(0 0 0)
(0 0 0)
(0 0 0)
(0 0 0)
(0 0 0)
(0 0 0)
(0 0 0)
(0 0 0)
(0 0 0)
(0 0 0)
(0 0 0)
(0 0 0)
(0 0 0)
(0 0 0)
(0 0 0)
(0 0 0)
(0 0 0)
(0 0 0)
(0 0 0)
(0 0 0)
(0 0 0)
(0 0 0)
(0 0 0)
(0 0 0)
(0 0 0)
(0 0 0)
(0 0 0)
(0 0 0)
(0 0 0)
(0 0 0)
(0 0 0)
(0 0 0)
(0 0 0)
(0 0 0)
(0 0 0)
(0 0 0)
(0 0 0)
(0 0 0)
(0 0 0)
(0 0 0)
(0 0 0)
(0 0 0)
(0 0 0)
(0 0 0)
(0 0 0)
(0 0 0)
(0 0 0)
(0 0 0)
(0 0 0)
(0 0 0)
(0 0 0)
(0 0 0)
(0 0 0)
(0 0 0)
(0 0 0)
(0 0 0)
(0 0 0)
(0 0 0)
(0 0 0)
(0 0 0)
(0 0 0)
(0 0 0)
(0 0 0)
(0 0 0)
(0 0 0)
(0 0 0)
(0 0 0)
(0 0 0)
(0 0 0)
(0 0 0)
(0 0 0)
(0 0 0)
(0 0 0)
(0 0 0)
(0 0 0)
(0 0 0)
(0 0 0)
(0 0 0)
(0 0 0)
(0 0 0)
(0 0 0)
(0 0 0)
(0 0 0)
(0 0 0)
(0 0 0)
(0 0 0)
(0 0 0)
(0 0 0)
(0 0 0)
(0 0 0)
(0 0 0)
(0 0 0)
(0 0 0)
(0 0 0)
(0 0 0)
(0 0 0)
(0 0 0)
(0 0 0)
(0 0 0)
(0 0 0)
(0 0 0)
(0 0 0)
(0 0 0)
(0 0 0)
(0 0 0)
(0 0 0)
(0 0 0)
(0 0 0)
(0 0 0)
(0 0 0)
(0 0 0)
(0 0 0)
(0 0 0)
(0 0 0)
(0 0 0)
(0 0 0)
(0 0 0)
(0 0 0)
(0 0 0)
(0 0 0)
(0 0 0)
(0 0 0)
(0 0 0)
(0 0 0)
(0 0 0)
(0 0 0)
(0 0 0)
(0 0 0)
(0 0 0)
(0 0 0)
(0 0 0)
(0 0 0)
(0 0 0)
(0 0 0)
(0 0 0)
(0 0 0)
(0 0 0)
(0 0 0)
(0 0 0)
(0 0 0)
(0 0 0)
(0 0 0)
(0 0 0)
(0 0 0)
(0 0 0)
(0 0 0)
(0 0 0)
(0 0 0)
(0 0 0)
(0 0 0)
(0 0 0)
(0 0 0)
(0 0 0)
(0 0 0)
(0 0 0)
(0 0 0)
(0 0 0)
(0 0 0)
(0 0 0)
(0 0 0)
(0 0 0)
(0 0 0)
(0 0 0)
(0 0 0)
(0 0 0)
(0 0 0)
(0 0 0)
(0 0 0)
(0 0 0)
(0 0 0)
(0 0 0)
(0 0 0)
(0 0 0)
(0 0 0)
(0 0 0)
(0 0 0)
(0 0 0)
(0 0 0)
(0 0 0)
(0 0 0)
(0 0 0)
(0 0 0)
(0 0 0)
(0 0 0)
(0 0 0)
(0 0 0)
(0 0 0)
(0 0 0)
(0 0 0)
(0 0 0)
(0 0 0)
(0 0 0)
(0 0 0)
(0 0 0)
(0 0 0)
(0 0 0)
(0 0 0)
(0 0 0)
(0 0 0)
(0 0 0)
(0 0 0)
(0 0 0)
(0 0 0)
(0 0 0)
(0 0 0)
(0 0 0)
(0 0 0)
(0 0 0)
(0 0 0)
(0 0 0)
(0 0 0)
(0 0 0)
(0 0 0)
(0 0 0)
(0 0 0)
(0 0 0)
(0 0 0)
(0 0 0)
(0 0 0)
(0 0 0)
(0 0 0)
(0 0 0)
(0 0 0)
(0 0 0)
(0 0 0)
(0 0 0)
(0 0 0)
(0 0 0)
(0 0 0)
(0 0 0)
(0 0 0)
(0 0 0)
(0 0 0)
(0 0 0)
(0 0 0)
(0 0 0)
(0 0 0)
(0 0 0)
(0 0 0)
(0 0 0)
(0 0 0)
(0 0 0)
(0 0 0)
(0 0 0)
(0 0 0)
(0 0 0)
(0 0 0)
(0 0 0)
(0 0 0)
(0 0 0)
(0 0 0)
(0 0 0)
(0 0 0)
(0 0 0)
(0 0 0)
(0 0 0)
(0 0 0)
(0 0 0)
(0 0 0)
(0 0 0)
(0 0 0)
(0 0 0)
(0 0 0)
(0 0 0)
(0 0 0)
(0 0 0)
(0 0 0)
(0 0 0)
(0 0 0)
(0 0 0)
(0 0 0)
(0 0 0)
(0 0 0)
(0 0 0)
(0 0 0)
(0 0 0)
(0 0 0)
(0 0 0)
(0 0 0)
(0 0 0)
(0 0 0)
(0 0 0)
(0 0 0)
(0 0 0)
(0 0 0)
(0 0 0)
(0 0 0)
(0 0 0)
(0 0 0)
(0 0 0)
(0 0 0)
(0 0 0)
(0 0 0)
(0 0 0)
(0 0 0)
(0 0 0)
(0 0 0)
(0 0 0)
(0 0 0)
(0 0 0)
(0 0 0)
(0 0 0)
(0 0 0)
(0 0 0)
(0 0 0)
(0 0 0)
(0 0 0)
(0 0 0)
(0 0 0)
(0 0 0)
(0 0 0)
(0 0 0)
(0 0 0)
(0 0 0)
(0 0 0)
(0 0 0)
(0 0 0)
(0 0 0)
(0 0 0)
(0 0 0)
(0 0 0)
(0 0 0)
(0 0 0)
(0 0 0)
(0 0 0)
(0 0 0)
(0 0 0)
(0 0 0)
(0 0 0)
(0 0 0)
(0 0 0)
(0 0 0)
(0 0 0)
(0 0 0)
(0 0 0)
(0 0 0)
(0 0 0)
(0 0 0)
(0 0 0)
(0 0 0)
(0 0 0)
(0 0 0)
(0 0 0)
(0 0 0)
(0 0 0)
(0 0 0)
(0 0 0)
(0 0 0)
(0 0 0)
(0 0 0)
(0 0 0)
(0 0 0)
(0 0 0)
(0 0 0)
(0 0 0)
(0 0 0)
(0 0 0)
(0 0 0)
(0 0 0)
(0 0 0)
(0 0 0)
(0 0 0)
(0 0 0)
(0 0 0)
(0 0 0)
(0 0 0)
(0 0 0)
(0 0 0)
(0 0 0)
(0 0 0)
(0 0 0)
(0 0 0)
(0 0 0)
(0 0 0)
(0 0 0)
(0 0 0)
(0 0 0)
(0 0 0)
(0 0 0)
(0 0 0)
(0 0 0)
(0 0 0)
(0 0 0)
(0 0 0)
(0 0 0)
(0 0 0)
(0 0 0)
(0 0 0)
(0 0 0)
(0 0 0)
(0 0 0)
(0 0 0)
(0 0 0)
(0 0 0)
(0 0 0)
(0 0 0)
(0 0 0)
(0 0 0)
(0 0 0)
(0 0 0)
(0 0 0)
(0 0 0)
(0 0 0)
(0 0 0)
(0 0 0)
(0 0 0)
(0 0 0)
(0 0 0)
(0 0 0)
(0 0 0)
(0 0 0)
(0 0 0)
(0 0 0)
(0 0 0)
(0 0 0)
(0 0 0)
(0 0 0)
(0 0 0)
(0 0 0)
(0 0 0)
(0 0 0)
(0 0 0)
(0 0 0)
(0 0 0)
(0 0 0)
(0 0 0)
(0 0 0)
(0 0 0)
(0 0 0)
(0 0 0)
(0 0 0)
(0 0 0)
(0 0 0)
(0 0 0)
(0 0 0)
(0 0 0)
(0 0 0)
(0 0 0)
(0 0 0)
(0 0 0)
(0.00815922 0.00440306 -0.00452188)
(-0.00579857 0.00822953 -0.00550978)
(0.00348617 0.00117581 0.000114844)
(-0.0120239 0.0136389 0.0010161)
(0.00220123 0.00481939 -0.00506216)
(-0.00598405 0.00679163 0.00162958)
(-0.0124892 0.0226473 -0.00633735)
(-0.0115254 0.00997667 -0.00934179)
(0.000334826 0.00198701 -0.000580512)
(0.0021234 0.00935202 -0.005912)
(0.0133393 0.0186354 -0.00144713)
(0.0098009 0.0142792 -0.00143845)
(0.0169835 0.0169997 0.0055898)
(0.0138027 0.00936071 0.00450143)
(-0.00881222 0.0173347 0.00723121)
(0.00819775 0.00565881 0.00320067)
(-0.00406682 0.0141378 0.00216366)
(-0.0267721 0.0313872 0.00428613)
(-0.043722 0.0477459 -0.00730444)
(-0.0121076 0.0292115 0.000497052)
(-0.0371939 0.043717 -0.00710654)
(-0.00754262 0.0183091 -0.0139957)
(-0.00251058 0.014182 -0.00611762)
(-0.0240913 0.0612755 -0.0265765)
(0.0143366 0.0368892 -0.00775039)
(0.00788711 0.0257175 -0.00374312)
(0.0141417 -0.00380032 0.00127113)
(-0.00109783 -0.00249127 -0.00795197)
(0.00761862 -0.00385055 -0.00610792)
(0.0179595 0.00260219 0.00516841)
(0.0110931 0.00090661 0.00518868)
(0.0317065 -0.00115959 0.0073785)
(0.0401827 0.0213765 0.00136375)
(0.00829307 0.0110462 -0.000915398)
(0.00112357 0.0105041 -0.00158211)
(0.0207204 0.0388276 0.000952088)
(-0.00836703 0.0120544 -0.0127878)
(-0.00658181 0.0219029 -2.84271e-05)
(-0.0226637 0.0439244 -0.00424659)
(-0.00502947 0.00890298 -0.0134983)
(0.00456376 0.0435312 -0.00945822)
(-0.0109689 0.0582435 -0.0119353)
(0.0128905 0.0636643 -0.00637068)
(0.0102556 0.0618901 -0.00501565)
(0.0128807 0.0770899 0.000218102)
(0.00586375 0.0441294 -0.00107996)
(0.0121912 0.0616968 0.00348925)
(0.00583365 0.03584 0.00459155)
(0.000723191 0.0101731 -0.0146942)
(0.0177295 0.0213298 -0.01136)
(0.0252162 0.0227784 -0.0146752)
(0.0470545 0.0217951 0.00123865)
(0.0339537 0.0364897 0.00667833)
(0.0504914 0.0187325 0.000318833)
(0.0201422 0.016637 0.00909836)
(-0.00330255 0.0339227 0.00137058)
(-0.0258347 0.033605 -0.0252117)
(-0.00197232 0.0222045 0.00412491)
(-0.0100812 0.0498116 -0.0126907)
(0.0166265 0.051081 -0.0372692)
(0.0527472 0.0787616 -0.0303519)
(0.0338543 0.0904617 -0.0278726)
(0.0729324 0.0992626 -0.011211)
(0.052221 0.0842279 -0.00963006)
(0.0297966 0.0727447 0.0127255)
(0.0714734 0.097048 0.0154196)
(0.0221622 0.0569707 0.0149221)
(0.00279827 0.0505802 0.0122252)
(-0.00323957 0.0358183 0.0113697)
(-0.00109411 0.028582 0.00968561)
(0.0191945 0.0133091 -0.0130519)
(0.0408627 0.00064484 -0.0011844)
(0.0215499 0.00188775 0.00702245)
(0.0298498 0.00103987 -0.0121087)
(0.0516116 -0.00182745 -0.00132766)
(0.00328535 0.013966 0.00130822)
(0.00174577 0.0539916 -0.00643298)
(0.0353573 0.00173082 0.00748016)
(0.031424 0.0532508 0.00364463)
(0.0410021 0.0866085 -0.0143963)
(0.0771005 0.0946052 -0.00772229)
(0.0469192 0.0912499 0.00847416)
(0.0394284 0.0773531 0.0133314)
(0.054274 0.0749445 0.017261)
(0.00600897 0.024618 0.0105821)
(0.0107015 0.021496 0.00949862)
(-0.000421742 0.00806119 0.00547796)
(-0.00192481 0.0156777 0.00499958)
(0.0399422 0.00545288 -0.00494607)
(0.0447237 -0.00221677 0.0038249)
(0.0325444 0.00891075 0.0105561)
(0.017429 0.000751828 0.00278085)
(0.0188023 0.0118791 0.0098033)
(0.00639576 0.00542804 0.00672688)
(0.0124736 -0.000498871 0.00356037)
(0.00301904 0.00260747 0.00430616)
(0.030959 -0.00109505 -0.0428355)
(0.0268184 -0.00839599 -0.156338)
(0.026643 -0.00109563 -0.0234807)
(0.0719192 -0.00929369 -0.0355145)
(0.0219461 0.0163846 -0.0345019)
(0.0464242 -0.0012736 -0.0818443)
(0.069421 -0.0109619 -0.169322)
(0.0658604 0.0112382 -0.113379)
(0.0234347 -0.00752564 0.0126002)
(-0.0193956 -0.00418054 0.0260031)
(0.0692736 -0.00805216 0.0363555)
(0.0500759 -0.0192839 0.0217039)
(-0.0104425 -0.0131251 0.0374019)
(-0.0293697 -0.00499384 0.0136833)
(-0.00917571 -0.00437466 0.00920912)
(-0.000383712 0.00636584 -0.0116649)
(0.00695746 0.00798729 -0.18182)
(0.0314888 0.0299402 -0.032431)
(0.0156924 0.0305778 -0.0240174)
(0.0414233 0.0480928 0.0149253)
(0.0154329 -0.00343511 -0.165983)
(0.0284495 0.0121358 -0.154823)
(0.0141307 0.0232762 -0.150238)
(0.0251939 0.0524844 -0.161506)
(0.00134455 0.00583183 0.0190083)
(0.0120519 -0.0158556 0.0427461)
(0.0205362 0.00512591 0.0304659)
(0.00904771 -0.00493408 0.0417741)
(0.00513488 0.00144395 0.0237927)
(0.0293048 -0.0228766 0.0723472)
(0.0118699 -0.00155177 0.0375365)
(0.0135767 0.0144803 0.0160766)
(0.00699621 0.0110245 0.0180848)
(0.0250973 -0.00382411 -0.0102385)
(0.00856216 -0.0164163 -0.0528656)
(0.0438354 -0.0222001 -0.0286494)
(0.010695 0.0306874 -0.125331)
(0.00195456 0.0193631 -0.1428)
(0.0330692 0.0225015 -0.0923423)
(0.0469877 0.0815925 0.0108962)
(0.016548 0.0761403 0.0136252)
(0.00991598 0.0232655 0.0175229)
(0.0206435 0.0453109 0.00980444)
(0.00632055 0.0386599 0.0205077)
(0.039089 -0.0133356 -0.061502)
(0.0520937 0.023114 -0.0998056)
(0.0111088 0.0221362 -0.146283)
(0.0391214 0.0170074 -0.114973)
(0.0419201 0.0252458 -0.124706)
(-0.0109388 0.0856852 0.0119526)
(0.00554605 0.0997466 0.0379732)
(0.00850057 0.067951 0.00956031)
(-0.000887884 0.0447245 0.0181383)
(-0.00386074 0.0568307 0.00523318)
(0.0427905 0.0438039 -0.118007)
(0.0393769 0.0436869 -0.137447)
(0.0575099 0.0678988 -0.0197423)
(0.0426676 0.022678 -0.0500322)
(0.0847453 0.0214493 -0.02899)
(0.0197858 0.0478015 -0.0917104)
(0.0229915 0.0743135 -0.0662238)
(0.0298201 0.0298234 -0.0793929)
(0.0518655 0.0360222 -0.0619027)
(0.0572007 0.0682298 0.0122412)
(0.0231257 0.0278538 -0.00108525)
(-0.00246767 0.00483189 0.00815018)
(0.0826562 0.0557789 -0.129713)
(0.103323 0.0802094 -0.0831042)
(0.0821676 0.0357105 -0.11671)
(0.092553 0.0345988 -0.11444)
(-0.00365121 0.0393321 -0.0477581)
(0.06452 0.0212756 -0.0340629)
(0.0503674 0.0216266 -0.0615212)
(0.082189 0.0314128 0.0154178)
(0.0404778 -0.00320703 -0.0041649)
(0.0708268 0.0237116 -0.0269895)
(0.060388 0.113867 -0.0696631)
(0.0374376 0.015981 -0.046203)
(0.00916706 -0.000136662 0.00609011)
(0.022658 -0.00572767 -0.00920075)
(0.0618496 0.118985 -0.0748741)
(0.0600717 0.0427036 -0.0842331)
(0.0172408 0.0177328 -0.111322)
(0.0402544 0.00316912 -0.13233)
(0.0163015 -0.00953653 -0.170358)
(0.0289057 -0.0104765 -0.150066)
(0.0346254 0.00128341 -0.156256)
(0.0581948 -0.0035499 -0.149566)
(0.0862897 0.0189604 -0.157564)
(0.0127143 0.0135229 -0.151585)
(0.0352728 0.00523135 -0.138553)
(0.0550876 0.0343671 -0.154251)
(0.0855108 0.0269301 -0.0758191)
(0.00680976 0.00687039 0.00255414)
(0.0261145 0.0321182 -0.0845746)
(0.0822548 0.108792 -0.110937)
(0.0420827 0.0552423 -0.0359733)
(0.0110624 0.00514987 0.00508726)
(0.0200696 0.0157312 -0.00285221)
(0.0252163 -0.0126628 -0.163863)
(0.0383451 -0.0503719 -0.121321)
(0.0339249 -0.0035758 -0.16858)
(0.0400037 -0.0172126 -0.167025)
(0.0364691 0.0181696 -0.144058)
(0.0425778 -0.0346762 -0.150467)
(0.045149 -0.00659936 -0.147369)
(0.0629297 -0.0465989 -0.132765)
(0.0576127 -0.00324663 -0.102768)
(0.00876298 0.0118853 0.0285959)
(0.0490396 0.0161734 0.110234)
(0.0118843 0.0138766 0.0455317)
(0.0398632 0.0375538 0.069713)
(0.0127551 0.0154603 0.0289401)
(0.0814048 0.0384634 0.162395)
(0.0172636 0.0214554 0.0568001)
(0.00513897 0.0118979 0.0172797)
(0.00582963 0.0116348 0.0172021)
(-0.00270247 0.0385041 -0.137303)
(-0.0013189 0.0356715 -0.147573)
(-0.000776914 0.0598945 -0.131531)
(0.00808381 -0.00282343 -0.09054)
(-0.00440328 0.0292942 -0.112628)
(-0.00928733 0.0450502 -0.0988328)
(0.00773433 0.0171952 0.0120996)
(0.00277959 0.0142075 0.0228252)
(0.00223728 0.0125111 0.0170907)
(0.00105501 0.00224204 0.0181975)
(2.96546e-06 -0.00565433 0.0266137)
(0.0245375 0.0390917 -0.128277)
(0.0277167 0.0346924 -0.120317)
(0.00255583 0.0330666 -0.111219)
(0.00531563 0.0450414 -0.104698)
(0.0130695 0.0373488 -0.101908)
(0.00206486 0.00552088 0.0246349)
(0.0574144 -0.0476361 0.0117653)
(0.00382706 -0.0486761 0.0359531)
(0.00471732 -0.0221816 0.0391524)
(0.0314527 -0.131156 0.0618256)
(0.0290759 0.0396991 -0.124768)
(0.0180875 0.0328321 -0.100054)
(0.0417853 0.0934472 -0.044559)
(0.0200215 0.0305048 -0.0816527)
(0.0216455 0.0520763 -0.0735277)
(0.0176573 0.0650313 -0.0660603)
(0.0438876 0.0925304 -0.0107558)
(0.0248569 0.0357658 -0.0603696)
(0.0217804 0.0535811 -0.0344715)
(0.0759873 -0.00692774 0.00329128)
(0.0147087 -0.0487266 -0.0367219)
(0.0589804 -0.0297521 0.0274788)
(0.0204981 -0.0698597 0.0181692)
(0.0654735 -0.0756542 0.101519)
(-0.00391953 -0.090681 0.0552358)
(0.0716916 -0.0534055 0.100802)
(0.0410249 -0.0831614 0.121185)
(0.0238408 0.016146 -0.0710894)
(0.00763643 0.0116191 -0.0501051)
(-0.00440526 0.0737494 -0.0319658)
(-0.0150877 0.0144372 -0.0385891)
(-0.0259398 0.0215575 -0.0149331)
(-0.0426969 0.0507679 0.0375064)
(-0.0327409 0.00619089 0.0413651)
(0.0418666 -0.0446836 -0.0169615)
(0.00355992 0.0121758 0.0083938)
(-0.00387447 -0.0102005 0.10811)
(0.0184089 -0.0930079 0.0867897)
(0.00654675 0.0131263 0.108571)
(0.0505393 -0.0493752 0.0701001)
(0.0355099 -0.0146417 -0.155729)
(0.0704788 -0.0155369 -0.256599)
(0.0163684 0.00811275 -0.169406)
(0.0323109 0.00164147 -0.153591)
(0.0334737 0.0263505 -0.170347)
(0.0377437 0.00308625 -0.183492)
(0.0560301 -0.00123293 -0.201557)
(0.0347115 0.00421023 -0.185805)
(0.0573907 0.0907979 -0.129743)
(0.0392413 0.0576587 -0.0614107)
(0.0234971 0.00390045 -0.156973)
(0.0261163 0.0198623 -0.157542)
(0.0198677 0.0350929 -0.0979844)
(0.0225019 0.0212287 -0.0165022)
(0.00948234 0.0233498 -0.0431879)
(0.0452634 -0.0719928 -0.128087)
(0.0425697 -0.0761019 -0.141141)
(0.0551467 -0.0262175 -0.143343)
(0.0706298 -0.0800975 -0.118396)
(0.0748999 -0.0434298 -0.0764931)
(0.0718032 -0.0737841 -0.210282)
(0.0765172 -0.072963 -0.176861)
(0.0639395 -0.135145 -0.112623)
(0.0860749 -0.101245 -0.075431)
(0.0179767 0.0209688 0.0298809)
(0.119679 0.0424923 0.228449)
(0.0249943 0.0338377 0.0779818)
(0.0450827 0.0410332 0.104191)
(0.0267704 0.0378728 0.0170761)
(0.179196 0.0293306 0.275723)
(0.0644439 0.0459026 0.115031)
(0.00818218 0.0214647 0.0148861)
(0.0256918 0.0595655 -0.0323421)
(0.019898 -0.0517803 -0.0667959)
(-0.00125819 0.00475645 -0.0715389)
(-0.00571472 -0.00357491 -0.0586819)
(0.0187496 -0.064228 -0.100882)
(4.34857e-05 -0.00490425 -0.079397)
(-0.0059574 -0.0250024 -0.0811917)
(-0.00853919 -0.0221944 0.0369514)
(-0.00506507 -0.032556 0.0378892)
(0.0752977 0.101207 -0.0555204)
(-0.0389783 -0.0589825 0.0154043)
(-0.0113295 -0.0547078 0.0344405)
(0.000732454 0.0231775 -0.0919326)
(0.00683474 0.0229441 -0.0966288)
(0.000872302 0.00134316 -0.092972)
(-0.00122223 0.00377869 -0.101894)
(0.00152449 0.0050103 -0.0997427)
(0.00559518 -0.0467198 0.050078)
(-0.00078513 -0.124524 0.0930921)
(-0.0199497 -0.0674622 0.0569044)
(0.00473276 -0.0371123 0.0369324)
(0.0130804 -0.115201 0.124869)
(0.0108759 0.0208163 -0.0910727)
(0.00134855 0.00515515 -0.0921693)
(0.0861302 0.0776827 0.018382)
(0.0305798 0.0330151 -0.0431597)
(0.0510288 0.036264 -0.00571424)
(0.0154123 0.0178616 -0.065452)
(0.0794928 0.0351282 0.000364623)
(0.0195999 0.013722 -0.0485096)
(0.0490302 0.0120354 -0.00781503)
(0.0519479 -0.0923879 0.227204)
(-0.0281069 -0.0957556 0.154467)
(0.0629752 -0.0430234 0.254444)
(-0.0552406 -0.0987797 0.122572)
(-0.00379302 -0.140592 0.294714)
(-0.0459481 -0.0705169 0.16774)
(0.00160921 -0.0461631 0.382185)
(0.047595 -0.11816 0.198295)
(0.0113792 0.00695552 -0.0206537)
(0.0137036 0.00215699 -0.00958712)
(-0.0490001 -0.00741242 0.142336)
(-0.0227897 -0.00509925 0.138835)
(0.00747079 -0.0291361 0.0498432)
(0.0234948 -0.0448494 0.185683)
(0.0357242 -0.0108071 0.154329)
(0.0211396 -0.102564 0.165482)
(0.0241727 -0.00279738 0.252315)
(0.0606186 -0.121088 0.28763)
(0.0615263 -0.0720443 0.176475)
(0.0960697 -0.0232597 0.272595)
(0.0197015 -0.0238788 0.163769)
(0.0944885 -0.0514064 -0.591081)
(0.104869 -0.0396188 -0.551081)
(0.159536 -0.0302395 -0.529278)
(0.141178 -0.0451907 -0.576679)
(0.0704705 -0.0506813 -0.425918)
(0.174953 -0.0271132 -0.540999)