/*--------------------------------*- C++ -*----------------------------------*\
| =========                 |                                                 |
| \\      /  F ield         | OpenFOAM: The Open Source CFD Toolbox           |
|  \\    /   O peration     | Version:  5.x                                   |
|   \\  /    A nd           | Web:      www.OpenFOAM.org                      |
|    \\/     M anipulation  |                                                 |
\*---------------------------------------------------------------------------*/
FoamFile
{
    version     2.0;
    format      ascii;
    class       volScalarField;
    location    "1";
    object      Ksl;
}
// * * * * * * * * * * * * * * * * * * * * * * * * * * * * * * * * * * * * * //

dimensions      [1 -3 -1 0 0 0 0];

internalField   nonuniform List<scalar> 
10571
(
4546.83
4505.56
1929.38
782.596
784.593
5164.7
148.981
624.746
173.422
1706.59
4135.83
4118.4
270.63
39.4816
118.746
1031.54
7070.25
140.998
164.361
312.559
1904.65
5626.57
1275.97
2397.76
5661.42
11397.6
3462.7
3352.65
7085.84
10598.8
7169.48
6092.19
8914.35
7646.64
9773.87
696.373
6651.43
9887.35
10554.1
9777.54
7771.64
7264.67
10939.6
10515.2
9988.52
9692.19
10886.6
12423.7
12211.8
12863.1
10171
6375.55
12424.5
12458.7
11153.9
7818.38
10714.5
9599.6
10929.2
10249.3
7045.07
6669.68
5707.27
11126.7
5326.69
6789.08
1438.48
5858.04
5217.63
10930.2
7593.56
105.735
11709.3
12267
11887.7
11779
1405.66
11511.5
5007.05
3073
240.489
277.737
127.623
97.7617
137.987
173.914
86.8702
522.352
3894.93
1377.28
63.201
20.5017
25.9715
9815.01
74.4424
87.9362
3999.85
11293.9
7987.82
11.0451
3.33244
786.04
62.4132
49.601
4.04011
41.3589
65.8574
11.7882
10.6514
2.87509
16.5463
296.308
92.6881
22.2426
27.9911
14.4792
23.0491
456.219
13.6039
46.1653
73.7658
155.507
17.6428
7.49692
5.82945
59.0817
5.94177
1.41725
3.54813
37.0079
15690.3
70.5505
9.82708
6.27425
3.34903
7.30645
103.771
29784.6
29.7394
10.4819
15.9243
1.09528
18.1785
4.25444
43.4584
29.78
12.4852
10.3891
15.763
6.31782
0
46.6979
10.6592
1.40243
3.8325
0
0
76.1937
12.3808
6.34448
2.49182
15.1183
5.71678
-1.03122e-17
42.3355
5.30527
16.5002
14.5087
16.5767
0.140307
17.5355
48.08
20.1255
0
27.5924
3.19731
-8.37741e-17
2.38096
33.6005
11.3219
1.54044
1.96517
3.37169
0
104.858
21.4855
5.02733
1.24431
10.8321
8.46905
0
20.9722
10.6637
10.2235
20.696
0
0
11.5212
10.7729
-5.84929e-16
0
23.9662
0
0
0
22.6324
8.74374
1.67137
2.56898
0
0
99.966
36.7516
3.66471
1.8976
6.74908
5.92025
0
47.5122
5.42288
6.10574
5.56465
17.9503
15.2374
5.38995
0
0
12.1649
0
0
0
9.85947
6.30349
0.775263
0.616589
0
15.6282
9.49409
2.05341
1.78529
4.81473
3.95331
40.5888
6.44407
5.71207
6.73455
0
13.1577
8.02771
12.8924
0
10.1976
0
5.16608
0
3.88166
3.2481
0
5.14888
0
12.1957
15.6545
3.74494
1.79751
5.25551
10.5872
34.7721
1.52212
1.74617
6.99811
0
11.9538
11.4738
0
0
5.93979
0
0
0
3.01195
1.64592
0.760572
2.12796
20.0988
7.24892
8.04256
5.42487
1.68987
2.89694
0.148711
17.6895
5.44745
1.50991
0.245561
0
27.3855
6.19649
13.0331
0
0
0
0
0
0
0.315127
0.407838
1.1566
0
13.5936
0
9.47325
1.71721
3.69583
5.07365
8.29353
4.13601
2.33137
0
12.4895
8.89149
11.8695
0
-1.85753e-16
0
0
0
6.63146
0
0.649475
0
0
27.4088
50.8903
0
4.45527
1.18369
1.46374
9.60507
5.57666
4.0605
2.2232
0
23.6857
17.223
10.2086
9.24555
0
0
0
0
8.62428
0
0.732556
0.439668
0.622271
4.89119
20.2541
0.623094
7.35291
1.70649
0.594574
19.3109
8.69792
5.64509
0.679679
5.90642
7.47291
32.8024
9.70119
0
0
0
0
0
0
0
0.821181
0
0
27.2376
35.5468
0
4.27477
1.08106
0
20.8362
4.25113
6.05348
1.12789
-2.80897e-15
20.4704
20.5541
1.08202
6.44912
0
0
0
0
0
3.02781
0
0
0
-3.94878e-15
14.2094
0
5.57183
0
0
4.66162
4.43109
8.09727
0.939148
0
40.6963
22.1994
4.49388
7.93257
0
0
0
0
0
0
0.433168
0
0
0
10.9419
4.29224
4.62256
0.459315
0
6.76522
14.0814
7.79948
1.83003
0
17.2548
9.15782
8.47585
8.00579
0
0
0
0
0
0
0
0
0
0
45.8113
2.87213
1.52982
0
0
0
10.4839
7.59869
1.97161
0
5.09232
18.3161
0
35.1271
0
0
0
0
0
0
0
0
0
0
4.22347
0
0.277116
0.349861
0
1.1891
8.11646
9.10761
0.517473
0
10.8677
0
0
17.5117
0
0
0
0
0
0
0
0
0
0
16.4177
0
0.421908
0
0
0
0
5.00692
0.503211
0
0
9.14301
3.76969
20.2982
0
0
0
0
0
0
0
0
0
0
38.51
0
0
0
0
0
4.49282
2.03393
0
0
0
40.7527
6.4933
10.24
0
0
0
0
0
0
0.400187
0
0
0
5.64278
0
0
0
0
0
3.62838
1.51225
0
0
0
29.0446
0
-5.98823e-15
0
0
0
0
0
0
0
0
0
0
0
0
0
0
0
0
6.71292
1.96837
0
0
0
19.7404
8.80616
0
0
0
0
0
0
0
0
0
0
0
0
0
0
0
0
0
7.84818
0.172041
0
0
0
2.10027
0
0.432794
0
0
0
0
0
0
0
0
0
0
0
0
0
0
0
0
0
0
0
0
0
9.34856
0
0
0
0
0
0
0
0
0
0
0
0
0
0
0
0
0
0
0
0.0334995
0
0
0
-1.86654e-15
0
0
0
0
0
0
0
0
0
0
0
0
0
0
0
0
0
0
0
0
0
0
0
6.95501
0
0
0
0
0
0
0
0
0
0
0
0
0
0
0
0
0
0
0
0
0
0
0
14.1321
0
0
0
0
0
0
0
0
0
0
0
0
0
0
0
0
0
0
0
0
0
0
0
0
0
0
0
0
0
0
0
0
0
0
0
0
0
0
0
0
0
0
0
0
0
0
0
0
0
0
0
0
0
0
0
0
0
0
0
0
0
0
0
0
0
0
0
0
0
0
0
0
0
0
0
0
0
0
0
0
0
0
0
0
0
0
0
0
0
0
0
0
0
0
0
0
0
0
0
0
0
0
0
0
0
0
0
0
0
0
0
0
0
0
0
0
0
0
0
0
0
0
0
0
0
0
0
0
0
0
0
0
0
0
0
0
0
0
0
0
0
0
0
0
0
0
0
0
0
0
0
0
0
0
0
0
0
0
0
0
0
0
0
0
0
0
0
0
0
0
0
0
0
0
0
0
0
0
0
0
0
0
0
0
0
0
0
0
0
0
0
0
0
0
0
0
0
0
0
0
0
0
0
0
0
0
0
0
0
0
0
0
0
0
0
0
0
0
0
0
0
0
0
0
0
0
0
0
0
0
0
0
0
0
0
0
0
0
0
0
0
0
0
0
0
0
0
0
0
0
0
0
0
0
0
0
0
0
0
0
0
0
0
0
0
0
0
0
0
0
0
0
0
0
0
0
0
0
0
0
0
0
0
0
0
0
0
0
0
0
0
0
0
0
0
0
0
0
0
0
0
0
0
0
0
0
0
0
0
0
0
0
0
0
0
0
0
0
0
0
0
0
0
0
0
0
0
0
0
0
0
0
0
0
0
0
0
0
0
0
0
0
0
0
0
0
0
0
0
0
0
0
0
0
0
0
0
0
0
0
0
0
0
0
0
0
0
0
0
0
0
0
0
0
0
0
0
0
0
0
0
0
0
0
0
0
0
0
0
0
0
0
0
0
0
0
0
0
0
0
0
0
0
0
0
0
0
0
0
0
0
0
0
0
0
0
0
0
0
0
0
0
0
0
0
0
0
0
0
0
0
0
0
0
0
0
0
0
0
0
0
0
0
0
0
0
0
0
0
0
0
0
0
0
0
0
0
0
0
0
0
0
0
0
0
0
0
0
0
0
0
0
0
0
0
0
0
0
0
0
0
0
0
0
0
0
0
0
0
0
0
0
0
0
0
0
0
0
0
0
0
0
0
0
0
0
0
0
0
0
0
0
0
0
0
0
0
0
0
0
0
0
0
0
0
0
0
0
0
0
0
0
0
0
0
0
0
0
0
0
0
0
0
0
0
0
0
0
0
0
0
0
0
0
0
0
0
0
0
0
0
0
0
0
0
0
0
0
0
0
0
0
0
0
0
0
0
0
0
0
0
0
0
0
0
0
0
0
0
0
0
0
0
0
0
0
0
0
0
0
0
0
0
0
0
0
0
0
0
0
0
0
0
0
0
0
0
0
0
0
0
0
0
0
0
0
0
0
0
0
0
0
0
0
0
0
0
0
0
0
0
0
0
0
0
0
0
0
0
0
0
0
0
0
0
0
0
0
0
0
0
0
0
0
0
0
0
0
0
0
0
0
0
0
0
0
0
0
0
0
0
0
0
0
0
0
0
0
0
0
0
0
0
0
0
0
0
0
0
0
0
0
0
0
0
0
0
0
0
0
0
0
0
0
0
0
0
0
0
0
0
0
0
0
0
0
0
0
0
0
0
0
0
0
0
0
0
0
0
0
0
0
0
0
0
0
0
0
0
0
0
0
0
0
0
0
0
0
0
0
0
0
0
0
0
0
0
0
0
0
0
0
0
0
0
0
0
0
0
0
0
0
0
0
0
0
0
0
0
0
0
0
0
0
0
0
0
0
0
0
0
0
0
0
0
0
0
0
0
0
0
0
0
0
0
0
0
0
0
0
0
0
0
0
0
0
0
0
0
0
0
0
0
0
0
0
0
0
0
0
0
0
0
0
0
0
0
0
0
0
0
0
0
0
0
0
0
0
0
0
0
0
0
0
0
0
0
0
0
0
0
0
0
0
0
0
0
0
0
0
0
0
0
0
0
0
0
0
0
0
0
0
0
0
0
0
0
0
0
0
0
0
0
0
0
0
0
0
0
0
0
0
0
0
0
0
0
0
0
0
0
0
0
0
0
0
0
0
0
0
0
0
0
0
0
0
0
0
0
0
0
0
0
0
0
0
0
0
0
0
0
0
0
0
0
0
0
0
0
0
0
0
0
0
0
0
0
0
0
0
0
0
0
0
0
0
0
0
0
0
0
0
0
0
0
0
0
0
0
0
0
0
0
0
0
0
0
0
0
0
0
0
0
0
0
0
0
0
0
0
0
0
0
0
0
0
0
0
0
0
0
0
0
0
0
0
0
0
0
0
0
0
0
0
0
0
0
0
0
0
0
0
0
0
0
0
0
0
0
0
0
0
0
0
0
0
0
0
0
0
0
0
0
0
0
0
0
0
0
0
0
0
0
0
0
0
0
0
0
0
0
0
0
0
0
0
0
0
0
0
0
0
0
0
0
0
0
0
0
0
0
0
0
0
0
0
0
0
0
0
0
0
0
0
0
6215.49
7492.78
7630.9
7474
3635.77
3514.79
3942.19
5934.44
5245.52
4253.59
3086.41
2455.2
587.461
2170.75
4811.39
517.866
3602.06
768.981
2231.99
2086.22
3086.38
2447.95
3078.51
4247.33
3486.93
7380.33
4314.46
2915.24
5193.09
2082.2
281.941
4056.42
1159.41
1753.02
6498.46
4348.36
3277.83
2193.52
486.658
833.354
896.082
650.711
350.173
495.811
683.611
2002.39
591.157
4926.37
5709.08
7838.25
6073.63
8695.29
5318.77
9190.45
2321.65
1027.32
521.458
258.812
513.354
235.118
114.65
517.508
437.586
92.1229
156.661
207.413
203.743
811.553
5109.41
1933.26
6556.07
8553.01
994.212
7900.24
4253.25
514.737
605.478
615.249
458.761
441.989
159.786
288.914
42.7679
59.658
271.347
126.199
1892.39
4638.11
6322.93
4107.73
514.036
3988.94
483.518
985.522
3111.32
1767.58
5255.97
2348.83
3545.86
1709.46
4433.78
516.42
1066.6
3077.85
5643.7
4302.6
3037.84
7122.77
5094.86
3359.6
7509.78
7456.65
7717.94
5116.39
4803.32
1472.2
8575.49
7094.09
9063.24
6176.57
1343.93
287.43
375.484
4587.01
6696.5
812.505
1675.43
869.585
4183.03
2968.01
1005.5
2704.23
4097.35
2349.47
1847.68
986.512
4763.43
4100.55
3771.87
6720.98
5254.95
3189.3
4264.55
3961.61
5818.85
4969.97
1180.4
3458.74
6653.95
3021.25
2774.19
3782.68
648.909
9492.91
5222.22
6588.16
584.759
11159.9
6887.72
422.924
601.911
1431.03
333.005
1006.27
4202.46
6202.46
5450.73
9709.16
10649.8
2141.57
2850.59
8984.39
5410.17
5836.78
1157.99
1575.37
3579.77
7435.09
3028.36
10300.7
3933.76
7994.54
847.98
865.511
2219.5
6068.43
5916.71
8021.89
9126.38
8682.55
9828.56
10829.6
10950.3
10948
11821.2
10658.1
12202.9
8373.91
11079.3
9094.27
12091.6
10540.3
11718
10738.8
10868.4
4254.65
6293.21
10670.6
12202.1
9355.49
10720.6
8025.2
10893.6
8711.55
8561
5429.11
11065.4
12480
10747.7
9893.98
6303.89
9290.42
12521.1
6708.61
8013.62
8720.56
12458.3
11815
11632.2
6433.83
8581.71
11473.5
6877.21
10752.5
9540.79
10836.2
3317.69
10975.2
9408.3
8168.45
7027.51
12105.9
10568.2
10433.4
12748.2
11977.9
13300.1
13293.9
11930.4
11354.8
11137.4
11152.4
11399.1
9738.22
9023.49
10413.1
11452.4
11912.9
12041.1
6749.42
11504.3
7073.23
9676.01
6020.52
11866
11968.1
10670.4
10519.1
11318.8
11628.7
11101.7
12188.6
11666.8
11438.6
11759.4
12207.4
11410
12107.8
12488.1
12809
12946.1
11502
11789.7
11610.4
12550.1
11862.3
11809.4
11803.8
12410.7
12107.2
11907.5
12267.4
11883.6
11556
9895.63
10896.9
9540.96
11728.4
12911.6
12280.4
11124.3
11561.6
11159.6
12231.7
8118.14
8108.62
6964.9
5350.8
9339.27
6552.72
2641.95
950.083
848.241
7096.52
8171.61
4163.36
4570.47
682.388
9534.33
5853.13
4891.44
11317.3
11288.6
5234.31
1216.32
10525.3
11297.9
5359.2
947.415
1887.96
230.059
75.4384
38.2476
40.6205
31.5412
11407.2
10992.6
11864.3
11937.5
10688.4
11043.2
9953.28
190.186
8501.98
1303.23
77.7415
2693.96
36.9026
11291.7
12036.7
11180.6
11277.2
12031.7
11630.8
10912.2
11312.2
11804.4
10547.5
10097.3
9274.33
1453.67
5767.99
44.2295
13028.4
11455.9
11618.5
11757.3
11738.5
11993
11334.1
11370.3
11565.7
359.155
435.822
124.887
13.432
0
3.94891
3.12741
155.689
0
10947.5
4671.13
4754.82
9648.86
538.83
832.854
451.868
91.2235
34.5236
353.941
26.521
46.8012
142.199
52.2619
43.1771
50.833
347.925
117.655
338.46
69.9031
86.1639
2708.58
348.262
1331.07
9861.51
11035.9
700.188
1298.25
5499.06
4442.62
32.4562
30.7536
48.6862
12.8747
38.0834
43.374
56.8438
12.0942
9679.49
7949.03
7815.47
3441.82
6848.85
1890.33
1704.96
64.2813
176.313
28.6378
47.7537
110.553
99.9214
11425.8
4626
9424.63
10124.2
7696.66
2340.94
1941.47
708.356
526.888
18.324
195.838
41.1105
9.16309
8.94032
0
10927.3
2398.09
10961.4
7362.07
4497.5
2371.5
1846.62
801.257
138.151
0
-2.74182e-15
0
-9.0499e-17
0
0
0
0
0
5235.71
95.5124
124.528
401.354
131.178
49.6303
271.475
125.417
37.8554
268.303
414.548
50.2898
70.3032
31.8931
29.5677
144.28
129.586
73.7062
286.03
392.027
89.1597
69.5157
90.9955
34.5725
427.269
109.412
65.4931
29.0472
38.5216
17.032
5.95814
23.8604
33.181
27.488
14.194
33.9799
22.0278
0.369393
735.125
32.8058
179.163
453.282
22.5953
13.388
50.8337
5.56236
132.764
5.75562
57.3384
35.0449
30.5649
105.999
48.5822
115.034
71.9229
55.4438
33.3264
21.634
19.333
18.6232
5.54758
22.6737
3.03487
11.1298
3.73617
7.39856
292.69
125.943
128.196
203.442
121.399
36.2652
44.2478
113.89
58.9775
0
0
0
-2.14935e-15
0
0
0
0
0
170.835
125.013
36.6966
102.458
172.066
25.8813
1560.23
80.7349
3368.21
3.79231
46.1542
11.492
43.5201
12138.3
9083.59
12331.2
2081.57
14731.6
2202.36
13016.3
18.4814
66.3351
63.4985
55.2457
82.5362
4159.54
111.341
2327.73
17.857
95.0718
16.1687
169.37
15285.4
9544.24
11205.8
2636.13
12510.9
2552.78
21343
78.5463
110.955
9.79247
0
0
28.2528
5.916
2.57878
6.47307
21.6822
15.0731
9.21692
0
11.1539
9.69038
18.029
20.9072
20.0818
12.9418
19.8577
0
22.8074
19.1746
0
42.4041
31.0791
41.5414
26.4074
43.7781
42.1218
18.0355
17.6969
-2.76401e-15
18.5411
10.1175
7.81475
1.10263
8.45969
0
3.98554
1.45387
5.20213
3.30468
0
0
117.195
94.2642
17.0351
65.8752
56.1169
14.9771
17.176
29.696
23.842
0
0
3.06447
2.30275
0
0
0
1.86587
0
0
0
0
18.915
0
0
101.361
179.058
71.9325
122.239
296.729
76.7803
0
3.61989
0
0
0.27574
4.00871
3.53447
228.747
0.111891
144.766
0
0
0
0
27.5499
89.8215
94.5632
72.9227
85.9897
11.9925
0.308194
0
4.75063
2.46072
6.56737
4.14117
210.478
6.53729
434.761
0
0
0
0
28.1183
58.1126
5.61725
17.5529
19.3205
40.9949
23.6066
41.0504
24.8102
4.92864
24.091
16.0474
27.5284
0
6.11577
12.8134
0
0
0
57.2381
0
0
23.5691
20.3984
9.64208
15.0056
10.8373
23.1337
16.9179
9.24809
18.2344
22.151
20.5643
19.0192
12.2838
20.1789
9.42931
8.98322
8.62149
2.22424
0
9.97959
0
0
1.0888
0
0
0
0.353268
0
48.1644
36.2344
6.96863
23.4502
9.52441
1.08266
8.13315
12.0716
3.16431
0
0
0
0
0
0
3.6255
5.82273
0
0
0
0
0
0
0
108.24
258.875
82.1126
51.5101
185.502
52.7852
3.30172
2.84071
2.26399
-2.07974e-15
0
8.18725
3.6617
0
0
0
0
0
0
0
92.2027
60.0741
186.898
92.1724
79.2417
1.03984
19.2737
1.56258
14.9522
0
28.8934
9.51704
0
0
0
0
0
0
0
60.9823
87.459
34.0209
27.6819
11.5151
25.3115
5.82611
36.635
15.919
5.31686
0
7.45039
1.45239
2.80635
10.0533
50.9181
0
18.9543
0
0
0
0
15.6382
0
4.29775
16.1524
6.02783
5.01641
0
8.22062
-5.64905e-15
22.6714
0.629825
20.1859
0
4.3713
4.38947
0
0
0
0
0
0
0
0
0
2.70452
0
0
0
0.866601
5.27446
2.98799
7.62588
2.7976
7.83497
2.26377
16.9711
0.176198
0
3.22439
2.45874
3.02732
0
0
9.19269
0
0
14.0766
41.7046
60.1926
10.4773
19.5726
18.1942
0
8.05758
0
3.82369
0
6.18049
0
0
0
0
0
0
0
0
80.7965
52.1231
86.571
55.5436
100.295
5.18519
0
6.32838
14.9442
-1.48017e-15
13.9365
0
0
0
0
0
0
0
0
46.2831
51.2592
20.0335
9.97011
8.50151
39.1464
25.3233
21.7801
7.58257
9.27168
6.27649
0
3.15808
5.7764
8.9429
21.6737
19.7995
0
12.0486
15.3484
38.2264
29.2373
15.2431
54.6637
24.9335
20.3888
19.4719
15.0759
60.428
27.1589
0
0
0
0
0
0
0
0
-1.55772e-15
0
0
0
0
0
0
34.7862
11.8899
6.90899
8.17146
8.89619
25.0201
3.68718
4.44081
3.1689
11.5123
0
0.106516
0.921507
9.70403
3.33326
5.71588
0
4.48092
19.2124
0
10.8254
3.85977
3.97483
14.8371
7.67819
0
0
4.75589
30.5787
45.2215
54.2227
8.79805
30.2698
35.0716
0
1.80315
20.419
0
8.09416
75.5228
26.4068
27.4771
5.85896
11.4905
57.5056
19.9865
9.78131
17.984
5.53092
0.809935
14.2158
20.9328
5.88793
0
0
0
21.6181
44.7687
5.16616
46.2699
13.2366
20.5315
54.5237
0
0
14.8894
15.8586
0
0
0
4.29397
0
0
0
0
0
0
0
0
0
0
0
0
0
12.0802
0
0
6.13479
4.62022
0
0
0
2.41553
0
2.9874
-1.85454e-15
0
11.7912
3.85225
0
-6.87731e-16
0
21.4499
7.07852
4.47807
22.7272
17.9047
13.372
4.77225
0
5.24951
9.59427
0
7.70043
11.0391
0
7.68291
9.14851
17.1709
8.55513
-1.6474e-16
0
0.23572
35.5726
11.0303
20.842
30.0842
17.1678
26.8847
10.6464
0
4.84146
5.80708
0
21.4879
13.7147
11.6745
0
0
0
11.5477
22.318
23.4131
31.8426
6.64911
15.9298
22.7873
10.0372
32.8145
0.337389
12.7806
23.0778
0
0
0
0
0
0
0
0
0
0
0
0
0
0
0
0
0
6.53918
0
2.23106
0
1.43924
0
2.07921
0
-1.62517e-15
2.49376
0.970543
0
0
5.54181
0
0
9.26271
8.82017
0.973632
19.63
10.5677
23.4891
22.4586
-4.33045e-15
0
-6.49596e-15
0
0
11.6869
15.4908
36.5437
2.93717
1.46953
23.4341
8.79274
10.527
17.2199
6.97378
46.6797
27.0319
10.4649
0.226768
2.76017
2.22954
-1.56558e-16
8.67568
8.4357
-6.06041e-15
6.22762
0
0
7.24496
22.5881
10.2991
0
12.4732
10.5722
9.07369
17.3476
31.9671
5.27266
0
0
-6.20306e-16
15.5345
0
48.053
15.2166
0
0
0
0
0
0
0
0
0
0
0
0
0
0
0
0
0
2.02936
0
0.112873
0
0
0
0
0
8.61781
-3.93896e-16
6.56982
0
4.28472
7.50594
0
9.33377
5.58193
11.7195
17.3293
11.4416
27.8861
15.632
10.9278
0
5.61963
17.5998
0
11.4443
2.5267
38.104
3.76873
-1.57737e-16
0
13.4411
6.61701
0
6.59365
14.4813
35.6648
15.8304
17.1401
30.8495
21.0852
0
32.1149
11.2737
-4.82047e-15
5.7341
10.1382
6.68001
0
5.64951
0
0
65.6964
68.0381
20.9888
5.80517
22.0315
4.71295
61.3315
0
18.8778
11.2448
18.8909
0
11.2064
0
0
8.11789
0
0
0
0
0
0
0
0
0
0
0
0
0
7.07726
0
0
0
0
0
0
0
11.9696
0
8.95577
1.09923
16.3296
4.35115
11.0734
43.2033
50.1441
5.52088
35.8593
15.7407
0
15.394
18.606
18.6933
50.4962
26.2019
22.6486
0
10.8673
1.58597
20.2849
7.35237
16.8846
0
6.42384
19.4987
17.491
24.6931
-2.17698e-16
37.6236
6.17064
0
13.224
6.9182
0
25.8144
4.83508
0
7.99479
0
0
5.14033
8.73555
0
5.10981
0
15.6225
6.15915
30.7997
35.3316
22.4628
0
9.39573
22.8923
8.66255
6.06139
20.6107
0
0
0
0
0
0
0
0
0
0
0
0
0
0.407683
0
0
0
0
0
0
0
0
0
0
0
18.7649
7.97684
12.0568
0.907176
28.4985
0
4.54395
42.0186
39.7135
3.77277
48.852
7.42345
-2.34506e-15
13.2309
13.0356
4.30433
47.179
16.995
12.9627
70.2475
17.1711
18.9312
67.0004
30.351
10.6882
84.4146
24.2179
17.0328
92.6838
10.5838
22.8019
15.5153
1.74315
66.116
5.16705
0
8.19461
10.8166
9.8775
8.79498
4.01231
15.4985
5.34257
13.0951
3.86812
7.07317
21.4206
52.6032
23.8368
0
17.1323
18.6145
10.0769
34.5676
7.54179
0
4.69471
11.185
0
0
0
0
0
0
0
0
0
0
0
0
0
0
0
0
0
0
0
0
0
0
0
0
2.87553
0
5.82927
0
7.25394
0
2.43046
0
-1.11491e-16
7.30311
-4.29731e-15
5.97149
43.4186
3.19933
2.43276
2.91405
0
15.7855
59.3232
4.57693
5.06593
4.93588
20.319
0
25.521
15.5756
7.89724
25.7987
17.3384
12.0245
30.3948
12.7915
23.305
12.4021
0
33.8078
18.784
0
7.37961
15.86
19.4594
12.3788
4.21651
7.00467
0
-1.36699e-16
2.5678
13.6526
22.2494
23.4156
23.9966
15.606
4.31672
23.1616
19.163
35.1071
5.72469
10.7142
-2.83617e-15
-6.06679e-17
18.8073
7.12054
0
0
0
0
0
0
0
0
0
0
0
0
0
0
0
7.54381
0
0
2.50763
0
0
0
0
0
4.21017
0
0
0
0
0
0
0
0
0.133597
56.7311
3.04129
0
12.542
0
0
35.7415
0
3.44755
0
7.30718
10.6225
16.5258
13.4301
12.8849
36.828
13.5756
3.48537
0
13.327
61.9984
0
0
29.8086
12.5183
8.19485
4.97862
15.3262
7.61187
7.77764
0
0
0
8.11503
2.93793
10.0331
13.4591
15.6501
19.6204
9.80559
0
6.34341
9.94045
0
0
0
10.2667
0
18.8707
8.33127
0
0
0
0
0
0
0
0
0
0
0
0
0
0
0
0
0
0
0
0
0
0
0
0
0
0
0
0
0
0
0
0
0
0
42.4744
-1.5348e-15
0
0
8.19754
0
0
0
0
0
9.42976
9.5164
13.6818
21.5709
8.4042
0.547058
4.45903
3.44393
11.1921
8.52494
18.3584
29.099
0
32.0647
3.01815
5.49616
-4.67337e-16
15.7733
0
2.14664
4.95994
21.0044
0
3.43131
0
7.90862
0.516471
33.7471
11.0601
6.0843
0
31.106
15.7643
17.1181
9.81787
30.8885
10.6165
5.98225
25.8414
12.3178
0
0
0
0
0
0
0
0
0
0
0
0
0
0
0
0
0
0
0
0
0
0
0
0
0
0
0
0
0
0
0
0
0
0.197117
0
7.38138
0
8.52215
4.25115
0
0
0
0
0
7.64716
7.69683
21.3334
9.71344
16.3027
0
1.0087
4.31016
0
0
33.2824
52.698
4.85233
-4.36802e-15
14.5007
12.3767
9.62868
11.3701
1.31498
3.51479
6.93531
11.1556
0
0
-1.75617e-15
9.795
0
22.1044
8.89277
0
18.0041
12.9922
5.29433
0
6.25414
-5.72236e-15
4.61808
13.2209
3.14794
9.56882
0
0
0
0
0
0
0
0
0
0
0
0
0
0
0
0
0
0
0
0
0
0
0
0
0
0
0
0
0
0
0
0
0
0
4.06472
-2.7566e-15
0
0
3.91117
0
0
0
0
0
0.288694
20.2004
13.3968
3.80148
17.1478
0
0
0
0
0
9.74112
70.5867
0.163717
9.30875
4.88237
9.12614
5.09139
8.39006
3.19113
3.78361
0
9.47996
0
3.25852
0
10.9416
-4.45451e-15
0
26.9655
7.16959
18.6274
7.56441
20.7828
35.7419
13.011
0
10.9486
19.8932
0
1.88658
0
0
0
0
0
0
0
0
0
0
0
0
0
0
0
0
0
0
0
0
0
0
0
0
0
0
0
0
0
0
0
0
0
0
0
3.25216
0
0
0
0
0
0
0
0
7.36781
14.8427
48.0065
9.62885
28.6429
0
0
0
0
0
15.5404
23.5743
9.08569
15.7044
0
-2.8786e-16
0
27.9041
0
0
6.73376
5.59192
0
0
0
0
0
11.3132
41.6325
8.46733
18.276
18.274
19.6434
17.9087
13.1017
42.2137
5.33289
0
18.3459
9.75634
0
0
0
0
0
0
0
0
0
0
0
0
0
0
0
0
0
0
0
0
0
0
0
0
0
0
0
0
0
0
0
0
0
0
0.672047
0
0
0
0
0
0
0
0
0
0
10.9242
38.9354
4.18706
13.6629
0
0
0
0
0
13.4483
11.9606
0
24.7778
-5.18362e-17
11.5212
0.340946
5.47039
1.3391
0
0
0
0
0
0
5.66065
0
49.8298
11.6994
10.7955
0
13.0815
0
0
6.48809
3.64023
8.99038
6.83143
0
10.2004
0
0
0
0
0
0
0
0
0
0
0
0
0
0
0
0
0
0
0
0
0
0
0
0
0
0
0
0
0
0
0
0
0
0
0
0
0
0
0
0
0
0
0
0
0
6.88478
16.8519
4.92647
4.6278
0
0
0
0
0
7.87679
36.4537
0
8.86454
0
3.76052
0
40.265
6.81858
0
0
0
0
0
-2.3902e-16
0
0
0
23.3505
-1.19826e-15
0
11.0428
13.55
0
12.6752
0
3.8299
2.31817
18.3449
10.3495
0
0
0
0
0
0
0
0
0
0
0
0
0
0
0
0
0
0
0
0
0
0
0
0
0
0
0
0
0
0
0
0
0
0
0
0
0
0
0
0
0
0
0
0
0
12.5017
0
0
9.0888
0
0
0
0
0
5.97482
19.5277
0
32.775
8.84973
-3.65299e-15
0
1.81018
1.02202
0
2.70801
1.68753
0
0
0
0
0
13.5576
0
17.084
17.9849
13.4135
4.16794
31.8558
0
37.1219
14.1625
0
33.4905
0
0
0
0
0
0
0
0
0
0
0
0
0
0
0
0
0
0
0
0
0
0
0
0
0
0
0
0
0
0
0
0
0
0
0
0
0
0
0
0
0
0
0
0
0
0
0
18.295
0
2.45001
0
0
0
0
0
3.74644
9.70042
5.2602
10.0476
0
2.87533
0
9.49106
4.55707
0
0
0
0
0
0
0
0
19.6179
11.844
16.19
17.8352
6.92624
5.35483
34.4762
5.79531
18.5625
0
5.78579
18.5014
0
0
0
0
0
0
0
0
0
0
0
0
0
0
0
0
0
0
0
0
0
0
0
0
0
0
0
0
0
0
0
0
0
0
0
0
0
0
0
0
0
0
0
0
0
0
0
0
0
0
0
0
0
0
0
0
0
0
12.1425
9.94803
0
0
0
0
0
0
0
0
0
0
0
0
11.9126
0
5.69036
-1.54938e-14
18.6073
0
33.8254
0
12.1566
2.11352
0
17.478
0
0
0
0
0
0
0
0
0
0
0
0
0
0
0
0
0
0
0
0
0
0
0
0
0
0
0
0
0
0
0
0
0
0
0
0
0
0
0
0
0
0
0
0
0
0
0
0
0
0
0
0
0
0
0
24.2558
0
0
0
0
0
0
6.11591
-1.48514e-15
0
0
0
0
0
0
0
0
36.1209
0
5.15156
33.3627
11.2369
2.40305
0
0
12.3747
0
0
6.40524
0
0
0
0
0
0
0
0
0
0
0
0
0
0
0
0
0
0
0
0
0
0
0
0
0
0
0
0
0
0
0
0
0
0
0
0
0
0
0
0
0
0
0
0
0
0
0
0
0
0
0
0
0
0
0
0
0
0
3.15282
0
0
0
0
0
0
0
0
0
0
0
0
0
12.2175
12.3836
0
11.1614
7.04628
0
5.79055
0
18.986
0
0
0
0
0
0
0
0
0
0
0
0
0
0
0
0
0
0
0
0
0
0
0
0
0
0
0
0
0
0
0
0
0
0
0
0
0
0
0
0
0
0
0
0
0
0
0
0
0
0
0
0
0
0
0
0
0
0
0
0
0
0
0
0
0
0
0
0
0
0
0
0
0
0
0
0
0
0
0
7.13374
0
17.3857
4.93244
0
0
0
0
0
0
0
0
0
0
0
0
0
0
0
0
0
0
0
0
0
0
0
0
0
0
0
0
0
0
0
0
0
0
0
0
0
0
0
0
0
0
0
0
0
0
0
0
0
0
0
0
0
0
0
0
0
0
0
0
0
0
0
0
0
0
0
0
0
0
0
0
0
0
0
0
0
0
0
17.7638
0
0
0
0
0
0
0
0
0
0
0
0
0
0
0
0
0
0
0
0
0
0
0
0
0
0
0
0
0
0
0
0
0
0
0
0
0
0
0
0
0
0
0
0
0
0
0
0
0
0
0
0
0
0
0
0
0
0
0
0
0
0
0
0
0
0
0
0
0
0
0
0
0
0
0
0
0
0
0
0
0
0
0
0
0
0
0
0
0
0
0
0
0
0
0
0
0
0
0
0
0
0
0
0
0
0
0
0
0
0
0
0
0
0
0
0
0
0
0
0
0
0
0
0
0
0
0
0
0
0
0
0
0
0
0
0
0
0
0
0
0
0
0
0
0
0
0
0
0
0
0
0
0
0
0
0
0
0
0
0
0
0
0
0
0
0
0
0
0
0
0
0
0
0
0
0
0
0
0
0
0
0
0
0
0
0
0
0
0
0
0
0
0
0
0
0
0
0
0
0
0
0
0
0
0
0
0
0
0
0
0
0
0
0
0
0
0
0
0
0
0
0
0
0
0
0
0
0
0
0
0
0
0
0
0
0
0
0
0
0
0
0
0
0
0
0
0
0
0
0
0
0
0
0
0
0
0
0
0
0
0
0
0
0
0
0
0
0
0
0
0
0
0
0
0
0
0
0
0
0
0
0
0
0
0
0
0
0
0
0
0
0
0
0
0
0
0
0
0
0
0
0
0
0
0
0
0
0
0
0
0
0
0
0
0
0
0
0
0
0
0
0
0
0
0
0
0
0
0
0
0
0
0
0
0
0
0
0
0
0
0
0
0
0
0
0
0
0
0
0
0
0
0
0
0
0
0
0
0
0
0
0
0
0
0
0
0
0
0
0
0
0
0
0
0
0
0
0
0
0
0
0
0
0
0
0
0
0
0
0
0
0
0
0
0
0
0
0
0
0
0
0
0
0
0
0
0
0
0
0
0
0
0
0
0
0
0
0
0
0
0
0
0
0
0
0
0
0
0
0
0
0
0
0
0
0
0
0
0
0
0
0
0
0
0
0
0
0
0
0
0
0
0
0
0
0
0
0
0
0
0
0
0
0
0
0
0
0
0
0
0
0
0
0
0
0
0
0
0
0
0
0
0
0
0
0
0
0
0
0
0
0
0
0
0
0
0
0
0
0
0
0
0
0
0
0
0
0
0
0
0
0
0
0
0
0
0
0
0
0
0
0
0
0
0
0
0
0
0
0
0
0
0
0
0
0
0
0
0
0
0
0
0
0
0
0
0
0
0
0
0
0
0
0
0
0
0
0
0
0
0
0
0
0
0
0
0
0
0
0
0
0
0
0
0
0
0
0
0
0
0
0
0
0
0
0
0
0
0
0
0
0
0
0
0
0
0
0
0
0
0
0
0
0
0
0
0
0
0
0
0
0
0
0
0
0
0
0
0
0
0
0
0
0
0
0
0
0
0
0
0
0
0
0
0
0
0
0
0
0
0
0
0
0
0
0
0
0
0
0
0
0
0
0
0
0
0
0
0
0
0
0
0
0
0
0
0
0
0
0
0
0
0
0
0
0
0
0
0
0
0
0
0
0
0
0
0
0
0
0
0
0
0
0
0
0
0
0
0
0
0
0
0
0
0
0
0
0
0
0
0
0
0
0
0
0
0
0
0
0
0
0
0
0
0
0
0
0
0
0
0
0
0
0
0
0
0
0
0
0
0
0
0
0
0
0
0
0
0
0
0
0
0
0
0
0
0
0
0
0
0
0
0
0
0
0
0
0
0
0
0
0
0
0
0
0
0
0
0
0
0
0
0
0
0
0
0
0
0
0
0
0
0
0
0
0
0
0
0
0
0
0
0
0
0
0
0
0
0
0
0
0
0
0
0
0
0
0
0
0
0
0
0
0
0
0
0
0
0
0
0
0
0
0
0
0
0
0
0
0
0
0
0
0
0
0
0
0
0
0
0
0
0
0
0
0
0
0
0
0
0
0
0
0
0
0
0
0
0
0
0
0
0
0
0
0
0
0
0
0
0
0
0
0
0
0
0
0
0
0
0
0
0
0
0
0
0
0
0
0
0
0
0
0
0
0
0
0
0
0
0
0
0
0
0
0
0
0
0
0
0
0
0
0
0
0
0
0
0
0
0
0
0
0
0
0
0
0
0
0
0
0
0
0
0
0
0
0
0
0
0
0
0
0
0
0
0
0
0
0
0
0
0
0
0
0
0
0
0
0
0
0
0
0
0
0
0
0
0
0
0
0
0
0
0
0
0
0
0
0
0
0
0
0
0
0
0
0
0
0
0
0
0
0
0
0
0
0
0
0
0
0
0
0
0
0
0
0
0
0
0
0
0
0
0
0
0
0
0
0
0
0
0
0
0
0
0
0
0
0
0
0
0
0
0
0
0
0
0
0
0
0
0
0
0
0
0
0
0
0
0
0
0
0
0
0
0
0
0
0
0
0
0
0
0
0
0
0
0
0
0
0
0
0
0
0
0
0
0
0
0
0
0
0
0
0
0
0
0
0
0
0
0
0
0
0
0
0
0
0
0
0
0
0
0
0
0
0
0
0
0
0
0
0
0
0
0
0
0
0
0
0
0
0
0
0
0
0
0
0
0
0
0
0
0
0
0
0
0
0
0
0
0
0
0
0
0
0
0
0
0
0
0
0
0
0
0
0
0
0
0
0
0
0
0
0
0
0
0
0
0
0
0
0
0
0
0
0
0
0
0
0
0
0
0
0
0
0
0
0
0
0
0
0
0
0
0
0
0
0
0
0
0
0
0
0
0
0
0
0
0
0
0
0
0
0
0
0
0
0
0
0
0
0
0
0
0
0
0
0
0
0
0
0
0
0
0
0
0
0
0
0
0
0
0
0
0
0
0
0
0
0
0
0
0
0
0
0
0
0
0
0
0
0
0
0
0
0
0
0
0
0
0
0
0
0
0
0
0
0
0
0
0
0
0
0
0
0
0
0
0
0
0
0
0
0
0
0
0
0
0
0
0
0
0
0
0
0
0
0
0
0
0
0
0
0
0
0
0
0
0
0
0
0
0
0
0
0
0
0
0
0
0
0
0
0
0
0
0
0
0
0
0
0
0
0
0
0
0
0
0
0
0
0
0
0
0
0
0
0
0
0
0
0
0
0
0
0
0
0
0
0
0
0
0
0
0
0
0
0
0
0
0
0
0
0
0
0
0
0
0
0
0
0
0
0
0
0
0
0
0
0
0
0
0
0
0
0
0
0
0
0
0
0
0
0
0
0
0
0
0
0
0
0
0
0
0
0
0
0
0
0
0
0
0
0
0
0
0
0
0
0
0
0
0
0
0
0
0
0
0
0
0
0
0
0
0
0
0
0
0
0
0
0
0
0
0
0
0
0
0
0
0
0
0
0
0
0
0
0
0
0
0
0
0
0
0
0
0
0
0
0
0
0
0
0
0
0
0
0
0
0
0
0
0
0
0
0
0
0
0
0
0
0
0
0
0
0
0
0
0
0
0
0
0
0
0
0
0
0
0
0
0
0
0
0
0
0
0
0
0
0
0
0
0
0
0
0
0
0
0
0
0
0
0
0
0
0
0
0
0
0
0
0
0
0
0
0
0
0
0
0
0
0
0
0
0
0
0
0
0
0
0
0
0
0
0
0
0
0
0
0
0
0
0
0
0
0
0
0
0
0
0
0
0
0
0
0
0
0
0
0
0
0
0
0
0
0
0
0
0
0
0
0
0
0
0
0
0
0
0
0
0
0
0
0
0
0
0
0
0
0
0
0
0
0
0
0
0
0
0
0
0
0
0
0
0
0
0
0
0
0
0
0
0
0
0
0
0
0
0
0
0
0
0
0
0
0
0
0
0
0
0
0
0
0
0
0
0
0
0
0
0
0
0
0
0
0
0
0
0
0
0
0
0
0
0
0
0
0
0
0
0
0
0
0
0
0
0
0
0
0
0
0
0
0
0
0
0
0
0
0
0
0
0
0
0
0
0
0
0
0
0
0
0
0
0
0
0
0
0
0
0
0
0
0
0
0
0
0
0
0
0
0
0
0
0
0
0
0
0
0
0
0
0
0
0
0
0
0
0
0
0
0
0
0
0
0
0
0
0
0
0
0
0
0
0
0
0
0
0
0
0
0
0
0
0
0
0
0
0
0
0
0
0
0
0
0
0
0
0
0
0
0
0
0
0
0
0
0
0
0
0
0
0
0
0
0
0
0
0
0
0
0
0
0
0
0
0
0
0
0
0
0
0
0
0
0
0
0
0
0
0
0
0
0
0
0
0
0
0
0
0
0
0
0
0
0
0
0
0
0
0
0
0
0
0
0
0
0
0
0
0
0
0
0
0
0
0
0
0
0
0
0
0
0
0
0
0
0
0
0
0
0
0
0
0
0
0
0
0
0
0
0
0
0
0
0
0
0
0
0
0
0
0
0
0
0
0
0
0
0
0
0
0
0
0
0
0
0
0
0
0
0
0
0
0
0
0
0
0
0
0
0
0
0
0
0
0
0
0
0
0
0
0
0
0
0
0
0
0
0
0
0
0
0
0
0
0
0
0
0
0
0
0
0
0
0
0
0
0
0
0
0
0
0
0
0
0
0
0
0
0
0
0
0
0
0
0
0
0
0
0
0
0
0
0
0
0
0
0
0
0
0
0
0
0
0
0
0
0
0
0
0
0
0
0
0
0
0
0
0
0
0
0
0
0
0
0
0
0
0
0
0
0
0
0
0
0
0
0
0
0
0
0
0
0
0
0
0
0
0
0
0
0
0
0
0
0
0
0
0
0
0
0
0
0
0
0
0
0
0
0
0
0
0
0
0
0
0
0
0
0
0
0
0
0
0
0
0
0
0
0
0
0
0
0
0
0
0
0
0
0
0
0
0
0
0
0
0
0
0
0
0
0
0
0
0
0
0
0
0
0
0
0
0
0
0
0
0
0
0
0
0
0
0
0
0
0
0
0
0
0
0
0
0
0
0
0
0
0
0
0
0
0
0
0
0
0
0
0
0
0
0
0
0
0
0
0
0
0
0
0
0
0
0
0
0
0
0
0
0
0
0
0
0
0
0
0
0
0
0
0
0
0
0
0
0
0
0
0
0
0
0
0
0
0
0
0
0
0
0
0
0
0
0
0
0
0
0
0
0
0
0
0
0
0
0
0
0
0
0
0
0
0
0
0
0
0
0
0
0
0
0
0
0
0
0
0
0
0
0
0
0
0
0
0
0
0
0
0
0
0
0
0
0
0
0
0
0
0
0
0
0
0
0
0
0
0
0
0
0
0
0
0
0
0
0
0
0
0
0
0
0
0
0
0
0
0
0
0
0
0
0
0
0
0
0
0
0
0
0
0
0
0
0
0
0
0
0
0
0
0
0
0
0
0
0
0
0
0
0
0
0
0
0
0
0
0
0
0
0
0
0
0
0
0
0
0
0
0
0
0
0
0
0
0
0
0
0
0
0
0
0
0
0
0
0
0
0
0
0
0
0
0
0
0
0
0
0
0
0
0
0
0
0
0
0
0
0
0
0
0
0
0
0
0
0
0
0
0
0
0
0
0
0
0
0
0
0
0
0
0
0
0
0
0
0
0
0
0
0
0
0
0
0
0
0
0
0
0
0
0
0
0
0
0
0
0
0
0
0
0
0
0
0
0
0
0
0
0
0
0
0
0
0
0
0
0
0
0
0
0
0
0
0
0
0
0
0
0
0
0
0
0
0
0
0
0
0
0
0
0
0
0
0
0
0
0
0
0
0
0
0
0
0
0
0
0
0
0
0
0
0
0
0
0
0
0
0
0
0
0
0
0
0
0
0
0
0
0
0
0
0
0
0
0
0
0
0
0
0
0
0
0
0
0
0
0
0
0
0
0
0
0
0
0
0
0
0
0
0
0
0
0
0
0
0
0
0
0
0
0
0
0
0
0
0
0
0
0
0
0
0
0
0
0
0
0
0
0
0
0
0
0
0
0
0
0
0
0
0
0
0
0
0
0
0
0
0
0
0
0
0
0
0
0
0
0
0
0
0
0
0
0
0
0
0
0
0
0
0
0
0
0
0
0
0
0
0
0
0
0
0
0
0
0
0
0
0
0
0
0
0
0
0
0
0
0
0
0
0
0
0
0
0
0
0
0
0
0
0
0
0
0
0
0
0
0
0
0
0
0
0
0
0
0
0
0
0
0
0
0
0
0
0
0
0
0
0
0
0
0
0
0
0
0
0
0
0
0
0
0
0
0
0
0
0
0
0
0
0
0
0
0
0
0
0
0
0
0
0
0
0
0
0
0
0
0
0
0
0
0
0
0
0
0
0
0
0
0
0
0
0
0
0
0
0
0
0
0
0
0
0
0
0
0
0
0
0
0
0
0
0
0
0
0
0
0
0
0
0
0
0
0
0
0
0
0
0
0
0
0
0
0
0
0
0
0
0
0
0
0
0
0
0
0
0
0
0
0
0
0
0
0
0
0
0
0
0
0
0
0
0
0
0
0
0
0
0
0
0
0
0
0
0
0
0
0
0
0
0
0
0
0
0
0
0
0
0
0
0
0
0
0
0
0
0
0
0
0
0
0
0
0
0
0
0
0
0
0
0
0
0
0
0
0
0
0
0
0
0
0
0
0
0
0
0
0
0
0
0
0
0
0
0
0
0
0
0
0
0
0
0
0
0
0
0
0
0
0
0
0
0
0
0
0
0
0
0
0
0
0
0
0
0
0
0
0
0
0
0
0
0
0
0
0
0
0
0
0
0
0
0
0
0
0
0
0
0
0
0
0
0
0
0
0
0
0
0
0
0
0
0
0
0
0
0
0
0
0
0
0
0
0
0
0
0
0
0
0
0
0
0
0
0
0
0
0
0
0
0
0
0
0
0
0
0
0
0
0
0
0
0
0
0
0
0
0
0
0
0
0
0
0
0
0
0
0
0
0
0
0
0
0
0
0
0
0
0
0
0
0
0
0
0
0
0
0
0
0
0
0
0
0
0
0
0
0
0
0
0
0
0
0
0
0
0
0
0
0
0
0
0
0
0
0
0
0
0
0
0
0
0
0
0
0
0
0
0
0
0
0
0
0
0
0
0
0
0
0
0
0
0
0
0
0
0
0
0
0
0
0
0
0
0
0
0
0
0
0
0
0
0
0
0
0
0
0
0
0
0
0
0
0
0
0
0
0
0
0
0
0
0
0
0
0
0
0
0
0
0
0
0
0
0
0
0
0
0
0
0
0
0
0
0
0
0
0
0
0
0
0
0
0
0
0
0
0
0
0
0
0
0
0
0
0
0
0
0
0
0
0
0
0
0
0
0
0
0
0
0
0
0
0
0
0
0
0
0
0
0
0
0
0
0
0
0
0
0
0
0
0
0
0
0
0
0
0
0
0
0
0
0
0
0
0
0
0
0
0
0
0
0
0
0
0
0
0
0
0
0
0
0
0
0
0
0
0
0
0
0
0
0
0
0
0
0
0
0
0
0
0
0
0
0
0
0
0
0
0
0
0
0
0
0
0
0
0
0
0
0
0
0
0
0
0
0
0
0
0
0
0
0
0
0
0
0
0
0
0
0
0
0
0
0
0
0
0
0
0
0
0
0
0
0
0
0
0
0
0
0
0
0
0
0
0
0
0
0
0
0
0
0
0
0
0
0
0
0
0
0
0
0
0
0
0
0
0
0
0
0
0
0
0
0
0
0
0
0
0
0
0
0
0
0
0
0
0
0
0
0
0
0
0
0
0
0
0
0
0
0
0
0
0
0
0
0
0
0
0
0
0
0
0
0
0
0
0
0
0
0
0
0
0
0
0
0
0
0
0
0
0
0
0
0
0
0
0
0
0
0
0
0
0
0
0
0
0
0
0
0
0
0
0
0
0
0
0
0
0
0
0
0
0
0
0
0
0
0
0
0
0
0
0
0
0
0
0
0
0
0
0
0
0
0
0
0
0
0
0
0
0
0
0
0
0
0
0
0
0
0
0
0
0
0
0
0
0
0
0
0
0
0
0
0
0
0
0
0
0
0
0
0
0
0
0
0
0
0
0
0
0
0
0
0
0
0
0
0
0
0
0
0
0
0
0
0
0
0
0
0
0
0
0
0
0
0
0
0
0
0
0
0
0
0
0
0
0
0
0
0
0
0
0
0
0
0
0
0
0
0
0
0
0
0
0
0
0
0
0
0
0
0
0
0
0
0
0
0
0
0
0
0
0
0
0
0
0
0
0
0
0
0
0
0
0
0
0
0
0
0
0
0
0
0
0
0
0
0
0
0
0
0
0
0
0
0
0
0
0
0
0
0
0
0
0
0
0
0
0
0
0
0
0
0
0
0
0
0
0
0
0
0
0
0
0
0
0
0
0
0
0
0
0
0
0
0
0
0
0
0
0
0
0
0
0
0
0
0
0
0
0
0
0
0
0
0
0
0
0
0
0
0
0
0
0
0
0
0
0
0
0
0
0
0
0
0
0
0
0
0
0
0
0
0
0
0
0
0
0
0
0
0
0
0
0
0
0
0
0
0
0
0
0
0
0
0
0
0
0
0
0
0
0
0
0
0
0
0
0
0
0
0
0
0
0
0
0
0
0
0
0
0
0
0
0
0
0
0
0
0
0
0
0
0
0
0
0
0
0
0
0
0
0
0
0
0
0
0
0
0
0
0
0
0
0
0
0
0
0
0
0
0
0
0
0
0
0
0
0
0
0
0
0
0
0
0
0
0
0
0
0
0
0
0
0
0
0
0
0
0
0
0
0
0
0
0
0
0
0
0
0
0
0
0
0
2283.33
563.49
541.795
3342.94
6749.06
2944.08
3647.79
477.725
360.056
239.202
1991.1
351.78
412.373
147.352
966.406
3365.84
1039.44
8330.38
5502.49
2864.93
4171.74
965.967
792.751
489.608
2119.15
1383.52
2073.4
1077.52
223.615
189.6
193.382
1040.78
1046.12
971.34
1904.74
83.2575
177.784
232.238
295.359
176.017
1030.08
705.267
1294.74
5421.56
399.918
1358.11
3343.38
3922.9
285.951
136.028
119.969
117.015
1143.51
455.114
170.061
245.868
51.6984
128.702
130.126
298.425
454.051
211.703
182.588
85.5822
245.068
217.776
272.307
360.001
144.428
193.263
178.131
929.636
460.667
129.848
230.951
1642.06
545.069
202.286
531.882
305.282
500.87
291.263
1112.97
2740.86
5203.3
6694.96
6347.72
7020.43
5352.12
8466.18
6891.49
1481.91
1081.06
883.567
5024.43
7914.57
4316.69
6915.8
8877.39
2818.9
4152.97
11671
10630.4
9577.72
9370.64
3947.63
4146.58
4480.88
6368.84
4503.31
2647.18
4460.87
7466.67
9481.26
9417.83
11945.8
11094.3
11637.7
11233.5
10989.8
5964.21
10402.5
11116.9
12191
7533
9976.38
11652.1
12085.5
11823.6
11934.6
12152.8
9532.58
9811.34
8570.5
5322.21
1325.03
4432.25
6564.17
5023.27
2240.53
11714.8
11722.5
11126
11544.8
11071
11292.2