/*--------------------------------*- C++ -*----------------------------------*\
| =========                 |                                                 |
| \\      /  F ield         | OpenFOAM: The Open Source CFD Toolbox           |
|  \\    /   O peration     | Version:  5.x                                   |
|   \\  /    A nd           | Web:      www.OpenFOAM.org                      |
|    \\/     M anipulation  |                                                 |
\*---------------------------------------------------------------------------*/
FoamFile
{
    version     2.0;
    format      ascii;
    class       volScalarField;
    location    "1";
    object      p;
}
// * * * * * * * * * * * * * * * * * * * * * * * * * * * * * * * * * * * * * //

dimensions      [0 2 -2 0 0 0 0];

internalField   nonuniform List<scalar> 
10571
(
275.954
289.774
279.196
267.611
264.651
277.892
268.85
258.979
258.296
258.942
260.041
245.041
250.362
251.311
252.848
253.744
250.617
247.327
245.35
249.941
249.564
250.877
248.529
248.855
258.696
248.654
261.816
250.731
245.933
229.314
245.261
241.568
248.063
229.503
221.107
216.971
229.053
238.353
235.83
221.773
201.182
229.631
173.382
242.096
207.246
207.874
205.368
127.691
187.733
172.414
204.521
195.342
132.257
138.862
109.829
97.0376
37.8241
94.4296
51.9422
96.781
42.6938
32.8064
28.8159
59.2815
89.6862
56.5918
16.2112
24.7957
24.2202
105.429
27.5127
18.9566
76.8963
89.4657
97.3268
57.3409
21.8242
40.6772
24.7031
24.2914
20.2413
21.5805
24.1579
21.6694
15.9697
18.3609
18.066
21.5214
27.8068
20.663
20.5712
21.8401
22.2955
33.3719
19.5608
22.9014
23.5861
30.2042
24.1978
23.0155
23.1613
23.3256
22.9762
22.7794
24.0495
23.1206
23.788
23.9378
24.2153
24.3257
23.0375
22.3395
22.8597
22.0976
24.6542
22.1409
22.3626
22.4817
19.8666
21.9982
23.1687
23.3992
23.4805
23.1815
23.0468
23.1195
23.3422
23.3775
23.3351
23.0256
22.8834
23.0847
23.0605
23.9641
23.7909
22.832
22.2197
22.3509
23.0975
22.9606
23.8625
22.7122
22.5827
22.9651
22.4589
23.1557
23.0813
23.139
23.2043
23.0258
22.8766
22.928
22.9147
23.1116
23.0085
23.0179
22.9457
22.9719
22.6328
23.3297
23.1736
22.7052
22.7391
22.7255
23.0987
23.0273
23.4256
23.0841
22.7503
22.7288
23.354
23.453
23.5253
23.1171
23.036
23.1218
23.0597
23.0323
22.8656
22.9726
23.0675
23.003
22.9224
22.8541
23.074
22.6279
23.1875
23.1867
22.8072
22.7762
22.4819
22.9531
23.0561
23.4693
23.1268
23.1801
22.7106
23.4934
23.7481
23.5125
23.1218
22.9812
23.0751
23.094
23.1136
22.8276
22.8877
23.0551
22.9042
22.7798
22.7059
22.8108
22.6804
23.1757
23.197
22.8924
22.7023
22.5026
22.8981
23.0573
23.4139
23.1405
23.2541
23.5481
23.6814
23.5463
23.0752
22.9518
23.0297
23.0404
22.9637
22.8035
22.7863
22.9316
22.6293
22.5191
22.7081
22.6541
23.0012
22.9791
22.8649
22.7644
22.8743
22.9892
23.2375
23.0865
22.9426
23.4729
23.5201
23.4244
23.0421
22.9394
23.0012
22.9939
22.9125
22.7985
22.7169
22.7395
22.4572
22.6689
22.7633
22.6888
22.7594
22.6947
22.7614
22.7364
22.8673
22.8724
23.0753
23.0235
23.0916
23.3578
23.4001
23.4291
23.053
22.969
23.0119
22.9857
22.9655
22.8292
22.7126
22.5957
22.4977
22.9281
22.8428
22.783
22.6362
22.4827
22.812
23.0011
22.9343
22.828
23.0153
23.0419
23.2273
23.3007
23.3687
23.5242
23.1185
23.043
23.0744
23.0335
23.1145
22.9203
22.8113
22.5948
22.7853
23.2507
22.9596
22.9076
22.6703
22.4322
22.9927
23.3046
23.0672
22.9595
23.145
23.2757
23.4628
23.2186
23.4279
23.8156
23.2285
23.1644
23.1775
23.125
23.2451
23.0654
23.0002
22.8279
23.0972
23.5587
23.1114
23.089
22.9037
22.8254
23.2955
23.6352
23.1684
23.1438
23.3946
23.5258
23.6978
23.3302
23.5433
23.8318
23.3576
23.298
23.2967
23.2575
23.313
23.2328
23.1996
23.11
23.3462
23.5991
23.2775
23.2365
23.1639
23.2667
23.5263
23.8073
23.2619
23.2829
23.5739
23.6559
23.8067
23.3645
23.5704
23.7385
23.4828
23.4197
23.4111
23.4045
23.4081
23.3728
23.337
23.3149
23.4056
23.5068
23.3546
23.3393
23.3311
23.4768
23.4506
23.7181
23.3557
23.3913
23.7754
23.8462
23.8188
23.3943
23.4759
23.6302
23.5687
23.5206
23.5054
23.5282
23.5201
23.4687
23.4226
23.4469
23.4963
23.4448
23.4266
23.389
23.4247
23.5236
23.4388
23.5475
23.4111
23.4127
23.7873
23.6668
23.6577
23.3948
23.4759
23.5354
23.5972
23.604
23.5672
23.5804
23.538
23.5564
23.4787
23.4612
23.5377
23.4598
23.5269
23.4562
23.4523
23.5194
23.5473
23.5023
23.4579
23.4584
23.6727
23.5645
23.535
23.4748
23.44
23.4701
23.5888
23.6641
23.5983
23.5742
23.4905
23.6321
23.5238
23.4232
23.4884
23.4654
23.6478
23.5519
23.4861
23.4934
23.5289
23.4861
23.5073
23.6213
23.5237
23.5197
23.5012
23.5007
23.4627
23.432
23.5673
23.684
23.6032
23.5531
23.4566
23.6675
23.5324
23.3952
23.4389
23.4514
23.715
23.6146
23.4781
23.4666
23.4773
23.4579
23.5626
23.6369
23.4243
23.4882
23.4764
23.5339
23.4715
23.4211
23.5361
23.6605
23.5798
23.5246
23.4445
23.6514
23.4755
23.4097
23.4056
23.4325
23.7484
23.6154
23.4347
23.4284
23.4403
23.4351
23.5688
23.5101
23.4076
23.4609
23.4527
23.5415
23.4602
23.4588
23.4952
23.6172
23.5372
23.4838
23.4364
23.5997
23.3938
23.4101
23.3942
23.4122
23.65
23.5575
23.4012
23.3996
23.4165
23.4195
23.5606
23.4277
23.4286
23.4404
23.4402
23.4681
23.4565
23.4621
23.4554
23.5603
23.4823
23.44
23.418
23.547
23.35
23.3826
23.384
23.3959
23.549
23.4884
23.3452
23.3712
23.396
23.4011
23.5064
23.4042
23.4488
23.4294
23.4287
23.4023
23.4356
23.4334
23.4243
23.4964
23.433
23.4167
23.3938
23.5061
23.353
23.3482
23.3711
23.384
23.4809
23.3882
23.2886
23.3413
23.3711
23.3817
23.4329
23.39
23.4194
23.4211
23.4122
23.3502
23.403
23.4585
23.3955
23.4421
23.4091
23.374
23.359
23.4581
23.3693
23.2993
23.3492
23.3779
23.4396
23.3117
23.2708
23.2992
23.337
23.357
23.3602
23.332
23.3333
23.3785
23.3831
23.3476
23.358
23.4616
23.3638
23.4115
23.3912
23.3346
23.3299
23.3919
23.3491
23.2511
23.315
23.3466
23.4121
23.3173
23.2643
23.2664
23.3019
23.3258
23.3224
23.2701
23.2346
23.3223
23.3484
23.3005
23.338
23.4005
23.3309
23.3812
23.364
23.2976
23.3015
23.3598
23.3494
23.2242
23.2806
23.3
23.4069
23.3433
23.2836
23.2478
23.2684
23.2921
23.2925
23.2343
23.1684
23.2732
23.3121
23.3031
23.3752
23.478
23.2915
23.339
23.3221
23.2473
23.2608
23.3485
23.3451
23.2404
23.2434
23.2529
23.3432
23.2915
23.2754
23.2126
23.2207
23.2522
23.2546
23.2045
23.1163
23.196
23.2651
23.2588
23.3735
23.379
23.2543
23.2992
23.2705
23.2084
23.2218
23.3137
23.3035
23.2434
23.2016
23.2092
23.2896
23.2559
23.2565
23.1595
23.1521
23.1989
23.2517
23.1742
23.0221
23.0967
23.1944
23.2317
23.2558
23.2447
23.2275
23.278
23.2372
23.1963
23.1987
23.2578
23.2564
23.2032
23.1577
23.1671
23.2305
23.2396
23.218
23.0998
23.0623
23.1288
23.1872
23.1081
22.8938
22.9517
23.0882
23.1275
23.0845
23.1172
23.2047
23.2245
23.2078
23.1944
23.191
23.1936
23.1814
23.1313
23.1102
23.1247
23.1755
23.2023
23.1597
23.0404
22.9501
23.0401
23.1174
23.0215
22.8008
22.7805
22.9299
23.0464
22.8921
22.9352
23.1711
23.173
23.1655
23.1531
23.1928
23.1233
23.0971
23.0506
23.0528
23.0794
23.1212
23.1082
23.077
22.9549
22.8291
22.9474
23.0767
22.9781
22.7757
22.6296
22.7241
22.9889
22.7849
22.781
23.1368
23.1338
23.1172
23.1131
23.1784
23.1059
23.0081
22.9707
22.9939
23.0345
23.0645
23.0174
22.9713
22.8521
22.7343
22.8818
23.0326
22.9346
22.7853
22.5424
22.6146
22.9425
22.7771
22.7588
23.1118
23.1058
23.0858
23.0838
23.1199
23.0829
22.9489
22.906
22.9527
23.0051
23.0201
22.9588
22.8356
22.765
22.715
22.878
22.9754
22.8619
22.7979
22.5215
22.67
22.8936
22.7903
22.7847
23.0993
23.0845
23.0745
23.0656
23.0643
23.0707
22.9315
22.8281
22.9598
23.0054
23.0321
22.9452
22.7459
22.725
22.7834
22.9375
22.8982
22.7772
22.8169
22.5886
22.8101
22.8525
22.8143
22.8546
23.1025
23.0761
23.0806
23.0687
23.0406
23.061
22.9243
22.7768
23.0172
23.0398
23.0271
22.9692
22.748
22.732
22.9104
23.0345
22.8726
22.7298
22.8875
22.7556
23.0122
22.8414
22.869
22.9544
23.1158
23.0731
23.0903
23.0949
23.0485
23.0552
22.9355
22.8344
23.098
23.1019
23.0462
22.9975
22.841
22.8448
23.0501
23.1484
22.8959
22.7984
22.965
22.958
23.2169
22.8908
22.9746
23.0921
23.1454
23.0627
23.0799
23.1281
23.0871
23.0678
22.986
22.9925
23.1836
23.1766
23.066
23.0436
22.9835
23.0378
23.2119
23.2492
23.1664
22.9703
23.0819
23.1893
23.3875
23.0629
23.1196
23.2609
23.1714
23.064
23.0576
23.1433
23.1219
23.0604
23.0311
23.1673
23.2509
23.2494
23.1172
23.1096
23.1108
23.2595
23.3476
23.3353
23.2813
23.1712
23.2483
23.5042
23.4817
23.2007
23.2611
23.4316
23.1641
23.0935
23.0604
23.1129
23.1452
23.0171
23.0409
23.2939
23.2952
23.3049
23.1655
23.1484
23.1633
23.4391
23.4125
23.3975
23.3095
23.2669
23.5045
23.7593
23.5266
23.3009
23.3974
23.5614
23.1583
23.1319
23.0669
23.0989
23.1795
23.0046
23.0387
23.3391
23.3199
23.338
23.1425
23.0839
23.1581
23.532
23.4212
23.4262
23.3139
23.3457
23.6777
23.6958
23.5395
23.3271
23.513
23.6225
23.1724
23.185
23.1215
23.093
23.2187
23.0458
23.0691
23.3068
23.3347
23.3456
23.0995
23.003
23.1074
23.5291
23.4164
23.4291
23.3319
23.3429
23.6863
23.6236
23.5254
23.3483
23.5593
23.6119
23.22
23.2643
23.2183
23.1372
23.278
23.1297
23.1182
23.2387
23.3446
23.3456
23.0954
22.9386
23.0729
23.4825
23.4041
23.4054
23.2074
23.1846
23.5163
23.5086
23.4741
23.342
23.4926
23.5493
23.3017
23.3334
23.2905
23.219
23.3146
23.2147
23.2297
23.1674
23.3429
23.3363
23.1372
22.9459
23.1579
23.3747
23.3841
23.3759
23.0337
22.9877
23.3536
23.4043
23.4116
23.2685
23.3904
23.5673
23.301
23.3723
23.3057
23.2537
23.3163
23.2926
23.412
23.1439
23.3306
23.324
23.217
23.1016
23.1914
23.2527
23.3465
23.3412
23.0199
22.9801
23.2691
23.3214
23.3477
23.1211
23.2928
23.3705
23.317
23.4057
23.2986
23.2706
23.3208
23.3386
23.49
23.208
23.32
23.3174
23.386
23.2777
23.3212
23.1613
23.3182
23.3113
23.1328
23.0431
23.2045
23.2536
23.2925
23.0353
23.2856
23.3243
23.3539
23.4227
23.2995
23.3057
23.3279
23.3549
23.4341
23.2584
23.3142
23.3159
23.5304
23.434
23.5679
23.1536
23.2966
23.2932
23.282
23.1595
23.053
23.1959
23.24
23.1038
23.0875
23.2199
23.3878
23.441
23.3669
23.3559
23.3222
23.3491
23.3872
23.2857
23.3193
23.3211
23.6267
23.4976
23.7333
23.214
23.2868
23.2934
23.4395
23.3788
23.0213
23.1761
23.2349
23.3209
22.8624
23.1401
23.4033
23.4799
23.5046
23.3865
23.3375
23.3201
23.4106
23.3177
23.3357
23.3358
23.6113
23.4794
23.6911
23.2512
23.2904
23.3112
23.5665
23.6677
23.223
23.2198
23.2807
23.6606
23.1342
23.2296
23.3901
23.4836
23.5316
23.3763
23.3396
23.3473
23.4197
23.3554
23.3582
23.3598
23.5484
23.4467
23.5794
23.2848
23.3088
23.3421
23.5902
23.6453
23.3209
23.2946
23.3335
23.6572
23.2916
23.3641
23.3654
23.4548
23.4303
23.3598
23.3556
23.3713
23.3518
23.3623
23.3884
23.3933
23.4825
23.4063
23.4811
23.3388
23.346
23.3855
23.5197
23.5168
23.3519
23.3513
23.3747
23.5384
23.2854
23.4198
23.3355
23.3863
23.3216
23.3221
23.4064
23.3606
23.2294
23.3596
23.4305
23.436
23.4435
23.3876
23.4308
23.4142
23.3877
23.4407
23.4537
23.4156
23.353
23.3807
23.4224
23.3942
23.3011
23.4355
23.3289
23.2903
23.2027
23.2785
23.5036
23.342
23.1934
23.3597
23.4826
23.4891
23.4239
23.3761
23.3959
23.4719
23.4402
23.5061
23.4356
23.3976
23.3519
23.4415
23.4874
23.2951
23.34
23.4401
23.3666
23.2641
23.1604
23.2828
23.5519
23.3657
23.2816
23.3931
23.5466
23.5416
23.4083
23.3479
23.3848
23.5086
23.5411
23.5734
23.4705
23.4173
23.3651
23.5346
23.5673
23.2989
23.4057
23.4791
23.476
23.4363
23.319
23.3707
23.5823
23.4469
23.3784
23.4507
23.5968
23.5862
23.4075
23.3572
23.4031
23.5467
23.6431
23.6282
23.4632
23.4287
23.3667
23.5821
23.6342
23.3994
23.4735
23.5408
23.6062
23.5622
23.4726
23.5068
23.6377
23.4456
23.3836
23.5034
23.6257
23.6163
23.4749
23.4093
23.4793
23.5745
23.6767
23.6553
23.448
23.4325
23.4951
23.6394
23.6696
23.5342
23.5653
23.592
23.7119
23.6598
23.6635
23.631
23.6815
23.4181
23.3943
23.5384
23.6322
23.6317
23.4461
23.4316
23.4882
23.5665
23.6311
23.6407
23.4281
23.489
23.5587
23.6382
23.6439
23.5885
23.5981
23.6321
23.7753
23.8318
23.8395
23.7074
23.7028
23.4249
23.4821
23.5529
23.6057
23.6247
23.3933
23.4139
23.4605
23.518
23.546
23.5689
23.4353
23.5112
23.4964
23.5547
23.556
23.5308
23.5319
23.5415
23.7989
23.8188
23.8396
23.7285
23.7041
23.5351
23.5089
23.5388
23.5433
23.5726
23.4108
23.4227
23.3952
23.4313
23.4118
23.4232
23.4153
23.4401
23.4022
23.4374
23.4162
23.4224
23.4189
23.433
23.7999
23.7125
23.7601
23.7261
23.6917
23.4874
23.4802
23.4956
23.446
23.4389
23.431
23.3967
23.2972
23.3023
23.2135
23.1244
23.3451
23.3066
23.2845
23.2661
23.1833
23.2941
23.3082
23.285
23.7949
23.6392
23.6984
23.7288
23.6929
23.46
23.4128
23.4348
23.2781
23.1059
23.4122
23.3423
23.181
23.1393
22.9056
22.4221
23.3216
23.2032
23.1561
23.0425
22.7736
23.1905
23.1819
23.1157
23.7858
23.639
23.6707
23.7171
23.7394
23.5131
23.3594
23.3069
23.1027
22.2131
23.4511
23.3577
23.0619
22.9624
22.3963
20.8083
23.3472
23.1445
23.0398
22.756
21.9667
23.1202
23.0804
22.9357
23.7549
23.6605
23.6552
23.5769
23.8737
23.6059
23.3401
23.0275
22.6368
18.9916
23.5142
23.396
23.0002
22.7761
21.7469
18.611
-15.3393
23.3613
23.1113
22.9525
22.4179
20.3945
23.0718
23.0186
22.7924
23.681
23.6743
23.6577
23.4455
23.4814
23.5992
23.319
22.7235
21.8041
17.1143
2.06795
23.5165
23.4286
23.0239
22.6466
21.2675
17.2879
1.89556
23.3834
23.1265
22.9358
22.1825
18.5823
23.12
23.0329
22.7585
23.6002
23.7104
23.6875
23.4035
23.0457
23.6014
23.3409
22.4925
20.9382
17.6077
4.0045
23.4742
23.5038
23.166
22.5877
21.2578
15.5465
3.4051
23.4834
23.2423
23.0242
22.39
19.5387
7.02965
23.3604
23.158
22.914
23.5083
23.7778
23.7159
23.3478
22.8534
23.716
23.4263
22.4442
21.1147
16.0696
2.97891
23.6978
23.716
23.4905
22.6633
21.7926
15.7572
2.47451
23.6775
23.4932
23.2633
22.7148
21.3316
23.637
23.4039
23.2579
23.5347
23.8531
23.7118
23.4426
22.9927
23.847
23.5045
22.8719
22.1011
18.482
23.9813
23.9823
23.7662
23.1295
22.6171
17.9638
-8.31607
23.8745
23.7413
23.6702
23.2602
22.9588
23.8222
23.691
23.6979
23.6474
23.8881
23.7817
23.5862
23.313
23.9083
23.6077
23.4065
23.1223
22.1143
24.0359
24.0337
23.8873
23.6134
23.6713
22.6103
23.9978
23.9473
23.9548
23.822
24.1358
23.9775
23.9603
24.1448
23.8027
23.8725
23.8328
23.7611
23.6573
23.9505
23.7524
23.747
23.7244
23.4233
24.0471
24.0185
23.9923
23.9071
24.1212
23.811
24.0825
24.1047
24.1793
24.2568
24.3652
24.1093
24.1942
24.5259
23.9753
23.9305
23.919
23.9545
23.9518
24.0193
23.9289
24.0246
24.0591
24.0048
24.0416
23.9999
24.0853
24.1284
24.3115
24.1652
24.0384
24.2275
24.3042
24.3041
24.3331
24.2376
24.3206
24.377
24.1667
24.0792
24.0329
24.1533
24.1853
24.125
24.1062
24.2293
24.2757
24.3121
24.0775
24.0052
24.198
24.359
24.4205
24.3751
24.0857
24.3543
24.3929
24.3927
24.4233
24.3615
24.3689
24.4215
24.3923
24.2985
24.2156
24.3514
24.3911
24.272
24.266
24.3848
24.4395
24.5217
24.3388
24.2081
24.3584
24.5415
24.5208
24.5465
24.3857
24.5341
24.5576
24.4876
24.5437
24.5076
24.5614
24.4933
24.6343
24.5402
24.4395
24.5506
24.6131
24.4637
24.4048
24.5292
24.5561
24.7077
24.666
24.4782
24.5216
24.6351
24.5928
24.6949
24.7086
24.7065
24.6936
24.6006
24.6706
24.6414
24.5918
24.6129
24.8369
24.712
24.5933
24.6917
24.8474
24.6398
24.4993
24.5905
24.6438
24.8713
24.9022
24.7282
24.5788
24.6302
24.6196
24.8033
24.9952
24.8118
24.7118
24.6674
24.7778
24.8615
24.7104
24.7276
24.9736
24.7469
24.671
24.754
24.9662
24.7051
24.5996
24.6385
24.7542
25.0641
24.9904
24.8196
24.6687
24.6685
24.6878
24.9216
25.0916
24.873
24.764
24.724
24.8571
24.9228
24.7604
24.8049
304.193
309.301
299.525
317.355
296.926
296.834
291.335
282.511
301.866
301.628
299.779
298.9
285.792
289.341
292.569
280.578
280.221
274.899
272.874
271.305
268.746
272.62
269.158
269.077
265.985
268.263
296.903
281.95
293.111
291.329
279.328
286.336
273.4
277.175
277.907
270.963
263.436
266.239
262.173
258.697
259.539
261.841
259.565
259.021
259.417
264.294
260.842
266.592
296.612
311.641
294.961
296.553
266.063
295.416
252.223
255.091
253.935
251.508
251.757
253.363
253.579
251.569
251.738
254.36
254.429
252.309
251.875
256.981
263.522
256.323
281.847
290.627
249.67
289.749
267.006
251.492
250.89
251.749
251.001
249.056
248.793
248.795
248.64
250.823
250.453
250.14
250.719
254.504
274.799
263.548
255.11
257.944
251.56
250.535
252.844
250.855
279.858
269.45
271.158
274.096
279.737
265.943
269.362
267.367
276.048
268.71
264.809
263.509
258.558
265.656
261.405
282.831
263.924
286.185
288.66
282.063
274.38
272.005
270.847
275.019
261.94
260.021
259.175
263.287
260.149
261.757
259.575
259.176
259.169
275.634
262.793
266.75
261.938
257.012
256.028
258.688
256.777
255.294
254.447
246.115
261.853
260.438
247.188
243.56
244.982
252.044
250.691
248.884
241.591
246.025
254.245
241.803
242.729
259.158
249.485
233.512
238.146
231.893
234.22
249.687
249.589
249.274
250.35
249.826
245.1
243.809
245.324
255.248
232.484
252.449
250.029
238.277
242.89
240.431
247.724
245.644
239.627
234.997
237.64
232.91
261.634
243.768
263.495
266.51
262.232
254.605
259.008
250.265
253.563
250.085
235.158
226.512
215.721
241.968
201.047
238.464
198.143
256.051
240.993
251.033
213.877
228.93
202.428
215.216
238.334
255.588
246.767
205.819
188.585
220.558
197.198
237.047
182.01
240.549
242.295
241.498
194.677
187.305
198.062
228.52
212.952
171.989
163.459
156.746
216.367
205.153
150.199
148.254
125.641
207.724
217.809
148.616
146.467
127.857
211.498
140.504
223.128
197.923
207.353
142.973
160.651
150.112
159.927
231.134
194.322
189.122
102.184
93.0924
35.7197
49.5847
93.8223
201.704
157.523
214.73
210.706
162.581
156.33
150.959
138.726
206.054
101.399
30.6146
123.827
26.6628
203.117
150.803
211.025
217.985
207.587
150.899
159.968
151.712
181.007
159.645
130.895
124.734
95.2859
139.02
62.2244
151.004
105.345
187.52
158.723
170.246
129.083
140.9
114.803
121.933
113.035
135.141
109.16
38.4817
27.1669
30.4368
25.6012
100.983
25.9783
137.095
104.798
116.634
84.5811
38.1231
45.1491
79.001
83.211
27.2014
27.1411
27.1528
44.3751
44.9523
25.337
24.2677
25.9646
71.4578
32.7864
24.2498
26.5339
19.7854
73.1123
35.7993
75.8109
98.3161
101.431
52.4501
45.7539
58.8994
57.3898
23.4267
18.7288
20.5607
19.8085
19.6472
20.9471
21.0408
19.6525
105.263
63.1151
86.6702
78.9377
60.5141
37.9167
30.8412
15.6742
41.8005
18.5252
21.1675
20.5406
22.9015
104.975
65.9932
96.9649
107.853
97.3549
53.6079
64.3574
52.0897
67.099
34.424
35.9339
26.448
22.6571
23.6401
23.0494
67.0217
40.9286
97.0094
75.307
76.7107
55.9631
59.5845
43.3182
38.4543
21.6509
20.7826
21.5915
23.3234
23.3082
23.3498
23.3604
21.5179
23.4461
46.4371
24.2819
25.3213
27.5904
23.5211
23.3813
22.1818
21.5271
23.2635
23.0759
23.2659
24.5636
25.48
24.2894
24.5797
25.0809
21.2218
21.7371
22.1072
22.5448
21.9668
23.6868
22.849
36.0063
32.3291
31.3146
22.3689
26.4397
23.1946
23.0204
22.1257
21.6041
21.9974
22.0527
22.1687
21.3715
21.6518
22.4255
36.0408
23.3299
22.8076
21.1386
22.4292
21.889
21.4452
22.2635
19.8771
19.1873
21.7057
19.8251
21.9033
34.7783
23.347
28.1778
31.2415
25.5581
23.38
23.1645
23.286
22.9307
23.594
23.3689
23.4093
23.2065
23.3469
23.1666
27.2919
23.4673
29.8287
25.3591
23.7169
23.4228
23.262
23.3904
23.3794
23.0698
23.229
23.0206
23.1168
23.1416
23.0644
22.9866
23.1064
23.0665
23.7069
23.3989
23.3471
23.1374
23.2043
23.1396
22.8038
23.3804
23.0996
23.0149
23.15
23.8556
24.347
23.3331
23.2911
23.6825
22.8294
22.1244
22.3934
22.8205
22.2926
23.2634
23.4564
22.3591
22.7454
22.5764
23.0937
23.1244
22.9518
22.7475
22.2859
21.7629
21.9564
22.3625
22.5248
22.4098
22.4862
22.5103
22.6431
22.8532
22.1462
22.0221
22.6514
22.2485
22.2238
22.0225
20.7131
21.2791
22.9217
21.9381
22.6846
23.4603
23.2264
23.3004
23.5759
23.3107
23.2058
23.2607
23.2117
23.1239
23.0858
23.1221
23.1136
23.025
23.0598
22.9781
23.2304
23.0929
23.4715
23.3032
23.3387
23.1561
23.1582
23.1383
23.1693
23.0778
23.0375
23.019
22.9654
23.0266
22.9573
22.9995
23.0143
22.9864
23.0589
23.0241
22.983
22.9669
22.8812
22.8571
23.125
22.7223
23.1262
22.9942
22.9601
22.8468
22.893
22.9658
22.6849
22.833
22.9474
23.0609
22.8094
22.9618
23.0166
23.3184
22.9564
22.9133
23.2394
22.6876
22.3595
22.6497
22.5134
22.7652
22.3856
22.5306
22.6556
22.5329
22.642
22.6104
22.8098
22.5907
22.6838
23.2978
23.1706
23.4598
23.0519
22.8845
23.0965
23.2418
23.1174
22.9486
22.6923
22.8698
22.8128
22.9939
22.8133
23.1925
23.0236
22.5866
23.0293
23.2039
22.5745
22.6208
23.1919
22.9031
22.9862
23.4015
22.9555
23.1211
23.6369
23.5534
23.401
23.1783
23.1382
23.1583
23.212
23.1635
23.1364
23.175
23.1367
23.0625
22.9356
23.095
23.076
22.99
22.9061
22.9652
23.0356
22.9789
23.165
23.0864
23.1255
23.084
23.1104
23.0255
23.063
22.9913
22.91
22.9839
22.923
23.0175
22.9355
23.0051
23.0046
22.9902
23.0207
22.9899
22.9471
23.0295
22.946
23.033
22.9219
22.7992
22.7626
22.8968
22.7773
22.6881
23.0045
22.8746
22.9151
22.9862
22.9329
22.8689
22.8206
23.0535
22.8295
22.9548
22.9256
23.041
22.8023
22.8972
22.9062
23.2412
23.0703
22.9809
23.1939
22.8061
22.5825
22.6727
22.8064
22.7973
22.7236
22.7463
22.8566
22.6849
22.6901
22.6691
22.7788
22.6618
22.6859
23.1231
23.0953
23.1023
23.1288
23.0082
23.0479
23.1215
23.0884
23.0222
22.916
23.3172
23.1411
23.1207
22.9955
23.3492
23.2034
22.5261
22.9904
22.9169
22.6806
22.733
22.7006
23.2892
23.3456
23.1682
23.2666
23.4478
23.3698
23.4641
23.7623
23.8188
23.6649
23.8017
23.9308
23.5332
23.0954
23.0657
23.1273
23.1455
23.1246
23.1228
23.1196
23.1179
23.1052
23.056
23.1306
23.1296
23.1183
23.06
23.1252
22.9382
22.9169
23.0655
22.9838
23.0215
23.0046
23.0389
22.9538
22.9867
23.0633
23.0335
23.0583
23.1125
23.0923
23.0951
23.069
23.0504
22.9695
23.0324
22.8842
22.9443
23.0419
22.848
23.0299
22.8533
22.7736
22.679
22.8394
22.742
22.7009
22.8647
22.809
22.6974
22.8796
22.7829
22.6499
22.4929
23.0267
22.582
22.8107
22.8033
23.0231
22.3898
22.7589
23.0128
23.1417
22.9574
22.9523
23.0616
22.7706
22.7964
22.7583
22.7048
22.7159
22.7441
22.8361
22.68
22.5607
22.5629
22.3928
22.6643
22.6826
22.7335
23.0266
22.9587
23.1415
23.0452
23.0247
22.905
23.0903
23.0036
23.0377
23.0687
23.357
23.2792
23.1222
23.1095
23.3597
23.3181
23.0656
23.2359
23.2012
22.6365
22.8004
22.729
23.3662
23.3911
23.4804
23.5682
23.5156
23.5381
23.612
23.7788
23.9747
23.6885
23.7667
23.9086
23.5441
23.0435
23.0246
23.1116
23.0979
23.1045
23.0924
23.0772
23.0858
23.1236
23.121
23.0991
23.1033
23.1027
23.1218
23.0837
22.9074
22.9009
23.0158
22.9376
22.9578
22.9628
22.9942
22.9208
22.9311
23.0672
23.0693
23.0074
23.0426
22.9853
22.9978
22.9059
22.9424
22.8229
22.8456
22.7277
22.7102
22.8565
22.7249
22.7039
22.7096
22.4032
22.4069
22.5527
22.7125
22.3521
22.551
23.1188
22.2336
22.8494
22.8626
23.1324
22.7848
22.9805
22.8399
22.9542
22.733
22.7559
22.8519
22.7488
22.8441
23.1739
22.6859
22.8938
22.8811
23.4675
22.8245
22.8176
22.8423
22.9448
23.1089
23.0135
22.9721
22.9093
22.8965
23.0756
22.9763
23.036
22.8841
23.0647
22.9878
23.0406
23.1198
23.3261
23.2864
23.1127
23.078
23.2746
23.2459
23.0096
23.4218
23.4176
23.5738
23.6252
23.5475
23.5425
23.5687
23.7241
23.8074
23.6174
23.6369
23.7199
23.4997
23.0108
23.0003
23.0748
23.0597
23.0693
23.0598
23.0462
23.0558
23.0754
23.072
23.0527
23.0517
23.0492
23.0205
22.9799
22.8912
22.8847
22.9793
22.9066
22.9076
22.9411
22.9664
22.8985
22.8841
22.8945
22.8931
22.7741
22.9202
22.843
22.8023
22.6684
22.764
22.7312
22.8559
22.7425
22.7271
22.8542
22.7664
22.7506
22.6097
23.106
22.5604
22.5109
22.4456
22.7134
22.7383
22.7349
22.7119
22.7001
23.4111
22.9264
22.7341
22.5731
22.9614
22.857
22.825
23.0439
22.9894
23.0385
22.8702
23.0143
22.9889
23.0189
23.0476
23.2455
23.2254
23.0576
23.0533
23.252
23.2448
23.0291
23.3766
23.3186
23.4868
23.4942
23.4024
23.42
23.4203
23.5853
23.5828
23.4918
23.5582
23.5286
23.4225
22.9965
23.002
23.0516
23.0396
23.0477
23.0509
23.0427
23.0474
23.0417
23.0341
23.0383
23.0372
23.0292
22.9699
22.9759
22.8841
22.8889
22.962
22.895
22.8739
22.9483
22.9673
22.897
22.8771
22.8293
22.7464
22.5851
22.9199
22.8506
22.7208
22.568
22.7393
22.7959
22.8549
22.786
22.7754
22.8566
22.8046
22.7937
22.5586
22.6447
22.8077
22.6657
22.7948
22.7355
22.7345
22.7947
22.7766
22.7919
22.8194
22.9581
22.8525
23.0383
23.0205
22.8486
22.8944
22.9599
22.9721
22.9866
22.8919
22.9221
22.9436
22.9722
23.0723
23.2683
23.2546
23.0009
23.1121
23.3203
23.2757
23.1425
23.2457
23.2111
23.3392
23.3268
23.3245
23.2777
23.2706
23.5022
23.4603
23.3404
23.4696
23.3587
23.448
23.0179
23.047
23.0629
23.0569
23.0594
23.0858
23.0837
23.0824
23.0506
23.0422
23.0785
23.0744
23.0699
23.0201
23.068
22.9126
22.9505
22.987
22.9177
22.9011
22.9954
23.0163
22.952
22.9414
22.9127
22.7295
22.6306
23.0337
22.9975
22.7971
22.7511
22.9066
23.0252
22.8743
22.8407
22.822
22.9137
22.8913
22.8699
22.7956
22.917
23.0766
22.9343
23.0557
22.8161
22.8325
22.8928
22.8636
22.8769
23.1577
23.1255
23.1457
23.2529
23.2494
22.9333
22.9693
22.9455
22.9715
23.0038
22.997
22.9947
23.0445
23.0884
23.2072
23.4123
23.3725
23.1479
23.3165
23.5469
23.4821
23.3357
23.2035
23.2157
23.2343
23.2471
23.2564
23.2296
23.2481
23.4993
23.3733
23.3978
23.5744
23.3923
23.6597
23.0896
23.1401
23.1213
23.1205
23.1165
23.1669
23.1665
23.1611
23.1134
23.1159
23.1686
23.1626
23.1635
23.1396
23.2008
22.9987
23.0597
23.0605
22.9995
22.9943
23.0997
23.1127
23.0588
23.0559
23.1046
22.9026
22.9286
23.1892
23.1927
23.005
23.0814
23.1896
23.3576
22.9712
22.9539
22.9344
23.04
23.0275
23.0158
23.0875
23.2265
23.4391
23.2453
23.4113
22.9293
22.9416
23.0403
23.0146
23.025
23.4018
23.3646
23.4826
23.5476
23.5042
23.0326
23.0959
23.0457
23.1153
23.1477
23.1176
23.0944
23.1471
23.155
23.4382
23.6951
23.5457
23.4692
23.5713
23.8274
23.6312
23.6027
23.2571
23.1945
23.257
23.3135
23.2625
23.2968
23.3319
23.6806
23.3888
23.4944
23.8423
23.4424
23.8963
23.1976
23.2568
23.2205
23.2193
23.2137
23.2789
23.2753
23.2726
23.2194
23.22
23.2927
23.2797
23.2784
23.2571
23.3042
23.1287
23.1956
23.1726
23.1267
23.1251
23.2312
23.2338
23.1976
23.1936
23.2759
23.1102
23.2093
23.279
23.3041
23.1872
23.2758
23.4706
23.4803
23.1112
23.1001
23.0923
23.1834
23.1719
23.163
23.3732
23.5567
23.5876
23.5132
23.6466
23.1048
23.1222
23.1923
23.1916
23.2018
23.7006
23.6457
23.7285
23.8053
23.7412
23.159
23.2186
23.1544
23.1979
23.1884
23.2233
23.2239
23.2916
23.2607
23.628
23.8559
23.6982
23.5
23.6477
23.7575
23.7228
23.7419
23.2111
23.3176
23.3603
23.3482
23.3754
23.4154
23.4135
23.9238
23.5024
23.5725
23.8902
23.5374
23.7762
23.316
23.372
23.3385
23.3327
23.3321
23.4005
23.3886
23.394
23.3451
23.3406
23.4238
23.4109
23.4042
23.3548
23.4141
23.2633
23.3322
23.2951
23.268
23.2597
23.3612
23.353
23.3351
23.3187
23.3432
23.2458
23.3133
23.3512
23.3702
23.2894
23.3352
23.4676
23.4361
23.2537
23.2436
23.2317
23.3207
23.3068
23.2937
23.638
23.7496
23.5717
23.6387
23.7161
23.2705
23.261
23.3263
23.3171
23.3106
23.853
23.8374
23.8102
23.8022
23.8664
23.2604
23.3165
23.2987
23.3323
23.3356
23.307
23.3583
23.3337
23.3823
23.694
23.6785
23.7209
23.8626
23.7417
23.633
23.6735
23.8714
23.3582
23.3706
23.4165
23.4703
23.376
23.4228
23.4646
23.7355
23.5911
23.5251
23.5636
23.625
23.6961
23.4237
23.4701
23.4568
23.44
23.4513
23.5067
23.4854
23.5032
23.473
23.4641
23.5329
23.527
23.5153
23.4792
23.5403
23.3947
23.4513
23.4062
23.3963
23.3726
23.4729
23.4543
23.4497
23.4202
23.4063
23.3477
23.3605
23.4725
23.4632
23.4285
23.404
23.4216
23.4325
23.3787
23.3482
23.3472
23.4315
23.4054
23.3994
23.5511
23.5735
23.4578
23.4921
23.5032
23.3421
23.3699
23.3894
23.3669
23.4256
23.688
23.787
23.62
23.6087
23.6886
23.377
23.417
23.4029
23.3679
23.4163
23.3911
23.4189
23.4172
23.422
23.7257
23.5933
23.6537
23.7598
23.6867
23.5806
23.6341
23.758
23.402
23.4049
23.4225
23.4586
23.4063
23.395
23.4416
23.4518
23.6126
23.461
23.4092
23.5634
23.573
23.5104
23.5452
23.5458
23.5226
23.5436
23.5739
23.5525
23.5724
23.566
23.5499
23.5899
23.5888
23.5696
23.5759
23.5769
23.5006
23.5478
23.4961
23.4963
23.4626
23.5643
23.5327
23.5412
23.5022
23.5081
23.4912
23.4576
23.5436
23.5308
23.5287
23.4967
23.4519
23.4728
23.4842
23.4468
23.4439
23.5383
23.4907
23.4884
23.4623
23.4737
23.4429
23.4532
23.459
23.405
23.4459
23.4699
23.4491
23.4529
23.54
23.5982
23.5111
23.503
23.5371
23.4339
23.4369
23.4312
23.4377
23.4205
23.4411
23.4475
23.442
23.4317
23.6235
23.5683
23.6108
23.6002
23.566
23.5524
23.5908
23.5748
23.4134
23.4323
23.3757
23.4014
23.4016
23.38
23.4037
23.397
23.5258
23.4552
23.3807
23.5234
23.4912
23.5739
23.5969
23.5908
23.5748
23.5886
23.5987
23.5902
23.5959
23.5949
23.5721
23.5963
23.5916
23.562
23.5593
23.5395
23.5967
23.6391
23.5634
23.5841
23.5379
23.6382
23.5887
23.6215
23.569
23.5287
23.5243
23.5099
23.5157
23.5141
23.4993
23.5094
23.4851
23.4844
23.5894
23.5492
23.5418
23.6365
23.597
23.5898
23.4582
23.4635
23.4646
23.4586
23.4645
23.4926
23.4698
23.5977
23.5497
23.498
23.5023
23.5157
23.491
23.4932
23.5022
23.4782
23.524
23.4647
23.4371
23.4583
23.4712
23.4939
23.4371
23.4901
23.5328
23.5344
23.5553
23.5322
23.5055
23.5164
23.5312
23.512
23.4553
23.4823
23.4155
23.4316
23.5124
23.4351
23.4518
23.3806
23.4807
23.4556
23.3829
23.4569
23.458
23.6129
23.6216
23.6007
23.5993
23.5978
23.5971
23.6022
23.5944
23.5823
23.5474
23.5792
23.5719
23.534
23.5189
23.5024
23.6728
23.6978
23.6072
23.6506
23.594
23.6802
23.6186
23.6711
23.6103
23.4941
23.4683
23.4924
23.4717
23.4785
23.4398
23.4767
23.4741
23.4602
23.6764
23.6454
23.6346
23.7059
23.679
23.666
23.4588
23.4614
23.4599
23.4538
23.4563
23.6023
23.5374
23.6773
23.6419
23.5744
23.4832
23.4942
23.4753
23.4742
23.4871
23.5666
23.6053
23.5364
23.4737
23.5094
23.5345
23.5447
23.5094
23.5181
23.4917
23.4911
23.5077
23.5055
23.4785
23.4699
23.4875
23.491
23.481
23.4924
23.4387
23.4395
23.5005
23.4784
23.4819
23.3841
23.4667
23.4607
23.4083
23.4611
23.4224
23.6221
23.6154
23.5888
23.5986
23.5849
23.5761
23.5894
23.5705
23.5618
23.524
23.5534
23.5498
23.5156
23.4895
23.4807
23.7086
23.704
23.6219
23.6755
23.6204
23.6764
23.6177
23.6681
23.6186
23.4676
23.4138
23.4595
23.4485
23.4607
23.4002
23.4471
23.4479
23.44
23.725
23.6988
23.6833
23.729
23.7083
23.6887
23.4474
23.4494
23.4415
23.4396
23.4429
23.6745
23.602
23.7473
23.6956
23.6212
23.4594
23.4735
23.4464
23.4494
23.4621
23.663
23.6803
23.5411
23.5491
23.5337
23.5775
23.5288
23.5858
23.5353
23.4634
23.4539
23.4717
23.4741
23.4482
23.4537
23.4601
23.4624
23.5415
23.5497
23.5089
23.5294
23.546
23.5
23.5281
23.4224
23.4754
23.4722
23.4238
23.4929
23.4386
23.6025
23.5848
23.5595