/*--------------------------------*- C++ -*----------------------------------*\
| =========                 |                                                 |
| \\      /  F ield         | OpenFOAM: The Open Source CFD Toolbox           |
|  \\    /   O peration     | Version:  5.x                                   |
|   \\  /    A nd           | Web:      www.OpenFOAM.org                      |
|    \\/     M anipulation  |                                                 |
\*---------------------------------------------------------------------------*/
FoamFile
{
    version     2.0;
    format      ascii;
    class       surfaceScalarField;
    location    "1";
    object      phi;
}
// * * * * * * * * * * * * * * * * * * * * * * * * * * * * * * * * * * * * * //

dimensions      [0 3 -1 0 0 0 0];

internalField   nonuniform List<scalar> 
29271
(
-6.19656e-06
1.27713e-06
1.88519e-06
3.11502e-06
-6.89259e-06
2.03336e-06
1.84787e-06
3.23062e-06
-2.68442e-05
-1.34361e-06
-6.70096e-06
7.07713e-06
1.15628e-05
1.62489e-05
-4.30477e-05
-1.49732e-05
-1.05017e-05
1.37884e-05
2.32384e-05
3.14957e-05
-3.4276e-05
-5.43651e-06
5.90956e-06
2.03343e-05
1.65238e-05
-3.05516e-06
-2.15031e-05
-5.13149e-06
-7.47094e-07
8.55537e-06
1.03111e-05
8.51517e-06
-4.26043e-05
-2.76363e-05
-2.30236e-05
2.16527e-05
3.3968e-05
3.76436e-05
-2.72399e-05
-1.93422e-05
-1.27058e-05
7.04322e-06
2.21295e-05
3.01153e-05
-3.29845e-05
-1.86422e-05
-7.02538e-06
1.62886e-06
2.10171e-05
3.6006e-05
-1.56485e-05
-2.00599e-06
3.91043e-06
9.83451e-06
3.83479e-06
-7.66778e-06
-1.27796e-06
4.06692e-06
4.91504e-06
-2.84588e-05
-7.77236e-06
-9.68501e-06
1.72448e-06
2.082e-06
4.21097e-05
-3.47854e-05
-3.35599e-05
-5.11138e-06
8.33726e-06
2.73065e-05
3.78129e-05
-3.57093e-05
-3.02908e-05
-2.03803e-06
-2.80595e-06
2.95645e-05
4.12796e-05
-3.68182e-05
-3.00986e-05
5.49866e-06
-7.08e-06
2.67507e-05
4.17475e-05
-3.35044e-05
-9.68847e-06
-1.52946e-06
1.03775e-05
2.26222e-05
1.17226e-05
-1.64035e-05
-5.32435e-06
1.14057e-05
-1.20954e-06
1.11221e-05
4.09596e-07
-4.3067e-05
-7.90058e-06
-9.73818e-06
4.57754e-06
-6.97632e-06
6.31045e-05
-3.73866e-05
-2.40705e-05
-5.38552e-06
-4.46931e-06
4.13182e-06
6.71801e-05
-3.65053e-05
-8.59188e-06
5.67313e-06
3.93679e-05
-1.45355e-05
1.45916e-05
-5.32584e-06
-2.95309e-06
2.49034e-06
5.53478e-06
-9.78263e-06
-5.29867e-07
7.74157e-07
4.90883e-06
4.32125e-06
-3.55362e-05
-4.0726e-06
9.96058e-07
8.24914e-07
3.12263e-05
6.56152e-06
-6.29702e-06
-3.17665e-06
2.44425e-06
6.78231e-06
-1.8224e-06
-2.39088e-06
2.26992e-06
2.01801e-06
-2.06229e-06
-9.41234e-07
1.02033e-06
2.05544e-06
-5.66887e-06
6.98586e-07
-1.2432e-05
1.94428e-06
3.32248e-06
1.21356e-05
-1.865e-06
-2.23334e-05
-2.42328e-07
-1.93571e-06
5.47819e-06
2.08982e-05
-9.23909e-06
3.80595e-07
1.27273e-06
-2.19696e-07
1.10005e-05
-3.19503e-06
-1.27151e-06
-8.77927e-07
-4.70041e-06
-5.92191e-07
2.97669e-06
4.46535e-06
1.37021e-07
1.58518e-05
7.96906e-05
-2.44954e-05
-2.52413e-05
-1.95334e-05
-2.18937e-05
-2.82753e-06
-2.06825e-06
-2.58045e-06
-2.00789e-06
8.0573e-07
2.03424e-06
1.11591e-06
1.01266e-06
-1.14082e-06
9.67856e-06
0.000134995
-3.23186e-05
-3.074e-05
-2.73077e-05
-1.84193e-05
-1.14888e-05
-1.46355e-05
-3.97098e-06
-4.51524e-06
3.10431e-06
8.72225e-06
9.40354e-05
-1.16887e-06
-5.32417e-07
-5.96686e-07
-5.06763e-07
2.81861e-06
3.40771e-06
2.60164e-06
-3.30274e-05
-3.84893e-05
-1.72099e-05
-2.42995e-05
-1.39165e-05
-1.64747e-06
1.85702e-06
1.67637e-05
-3.82623e-06
-1.77124e-06
1.83372e-06
3.7208e-06
-4.26973e-06
-6.76096e-05
-1.8898e-05
4.96817e-06
2.44107e-05
6.13985e-05
-5.0862e-06
8.80077e-06
0.000179513
-3.19943e-05
-4.31142e-05
-6.588e-05
-5.54956e-05
3.89705e-06
7.91301e-06
4.99787e-06
1.23005e-05
-1.20266e-06
1.67745e-05
0.000144025
-3.45369e-05
-2.96452e-05
-4.53114e-05
-4.55114e-05
2.05551e-06
2.28422e-06
0.000172256
1.86495e-06
2.33691e-06
2.30031e-06
2.37902e-06
4.95666e-06
4.26629e-06
-3.64068e-05
-3.97958e-05
-5.36251e-05
-5.73524e-05
-2.06731e-05
-1.29892e-06
3.97064e-06
1.27505e-06
1.87819e-05
-1.68085e-05
-2.13376e-06
-5.99154e-06
9.68696e-07
2.60756e-05
-2.11049e-06
8.03534e-06
3.00101e-06
0.000163674
5.6139e-06
1.66334e-06
4.94281e-06
2.00539e-06
3.15847e-06
3.3473e-06
3.03905e-06
-6.44839e-05
-5.50497e-05
-2.51593e-05
-4.49865e-05
-2.79948e-06
1.04873e-06
0.000371671
-1.16615e-06
1.42479e-06
2.25298e-06
2.73683e-06
2.33632e-06
9.84713e-06
-0.000100686
-0.000111535
-9.03258e-05
-5.99954e-05
-2.99063e-05
-4.50518e-07
4.07366e-06
2.57679e-05
-8.53024e-06
-1.74361e-06
-2.52757e-06
1.26708e-05
-7.40849e-06
4.82839e-07
-4.21987e-07
1.01577e-05
-2.81573e-05
-6.43923e-07
4.64563e-06
-3.45215e-07
2.55495e-05
-9.90793e-06
-5.95799e-06
-6.28233e-07
1.63358e-05
-2.01874e-06
-8.36566e-07
8.84644e-07
2.00641e-06
-2.26509e-06
-1.25941e-06
1.3433e-06
2.23633e-06
-1.63583e-06
1.25541e-06
-9.60602e-06
-1.66209e-07
2.94544e-06
7.2072e-06
3.63884e-07
-2.26399e-05
-7.96402e-07
2.05016e-06
3.42035e-06
1.76019e-05
-1.22861e-05
-9.11607e-07
1.80929e-06
1.16661e-06
1.30076e-05
-2.78575e-06
-1.67829e-06
2.01075e-07
-5.8014e-06
-2.93772e-07
1.92506e-06
5.64733e-06
5.01515e-06
2.30908e-05
6.68671e-05
-4.43311e-06
-4.96296e-06
-3.30246e-06
-3.54051e-06
-2.84267e-07
-2.51447e-07
1.95913e-07
1.29632e-06
1.19739e-05
2.98888e-05
0.000125262
-1.08785e-05
-5.38738e-06
-7.26275e-06
-3.58513e-06
-6.55757e-07
1.08075e-05
0.000105132
-3.3756e-06
-2.62463e-06
-1.56526e-06
-1.56352e-06
-2.80988e-07
6.28301e-08
7.31589e-08
-1.87925e-05
-1.41857e-06
2.40981e-06
1.72068e-05
-4.4926e-06
-2.13976e-06
1.54911e-06
5.08583e-06
3.83886e-06
-4.04297e-05
-3.01852e-06
-5.32914e-07
4.12242e-06
3.60198e-05
5.68974e-06
5.37668e-06
0.000212729
-3.41429e-06
-1.03515e-05
-5.52266e-07
-6.87325e-06
4.20138e-07
2.18741e-05
0.00015731
-5.46783e-07
4.38588e-06
0.000161579
4.04432e-07
-1.84251e-06
1.51474e-06
4.62546e-06
7.10502e-06
6.25803e-06
-2.0288e-05
-1.86266e-06
-4.01304e-06
4.40708e-06
2.12098e-05
-3.77346e-05
2.20384e-06
2.61198e-06
7.25375e-08
3.90978e-05
-6.25152e-06
3.48631e-05
-4.29234e-07
0.00014272
-2.14015e-06
-1.42543e-06
-3.04451e-06
-1.65202e-06
-8.22839e-08
-1.4225e-07
3.82867e-07
1.96907e-06
1.36014e-06
0.000421084
2.5797e-06
-3.10002e-06
-2.95004e-06
9.2049e-06
-3.86517e-06
2.1257e-06
-2.79161e-05
-3.57625e-07
4.94548e-06
2.96832e-05
-1.56022e-05
-2.60394e-06
7.63523e-07
1.72661e-05
-1.18381e-05
-5.09717e-07
1.90358e-06
9.9521e-06
-2.56693e-05
-4.18487e-06
1.45838e-05
-3.64329e-06
2.02737e-05
-2.14825e-05
-2.86506e-06
-8.1919e-06
3.25291e-05
-1.85729e-06
-7.27606e-07
1.37222e-06
1.27835e-06
-1.92838e-06
-7.18952e-07
1.3601e-06
1.36249e-06
-1.02323e-06
2.03805e-07
-5.74798e-06
3.88428e-07
1.94032e-06
4.23866e-06
-1.3196e-06
-1.21875e-05
-1.79421e-06
3.22398e-06
1.16957e-06
1.09078e-05
-1.54511e-05
-2.14436e-06
3.39283e-06
4.4408e-06
1.26651e-05
-2.90325e-06
-2.39903e-06
-2.93744e-07
-4.40731e-06
1.41186e-07
5.65983e-06
1.29907e-06
4.88182e-06
3.46649e-05
3.8368e-05
-3.6652e-06
-3.99589e-06
-2.75277e-06
-2.56302e-06
1.39342e-07
3.39766e-07
-2.45014e-07
1.69521e-06
1.11377e-05
3.56113e-05
9.35436e-05
-3.35625e-06
-2.43588e-06
-3.426e-06
-9.31158e-07
-1.16089e-06
1.57214e-05
0.000149962
-5.2463e-06
-5.34012e-06
-1.01806e-05
-1.17025e-05
-6.42947e-07
-9.09997e-06
-6.04124e-06
-1.64307e-05
3.41519e-07
-1.79075e-06
1.67192e-05
-4.62996e-06
-1.5013e-06
1.79239e-06
4.34135e-06
-7.49025e-06
-3.86755e-05
-8.32244e-06
5.88385e-06
5.49965e-06
4.31047e-05
1.13651e-05
1.41694e-05
0.000269787
-1.11565e-05
-9.17703e-06
-1.76903e-05
-9.90418e-06
-2.71815e-05
1.68843e-05
0.000214583
-7.78362e-06
-1.231e-06
0.000206286
-6.5498e-06
-1.06109e-05
-1.35917e-05
-6.50557e-07
-7.46228e-06
-8.28733e-06
-1.6199e-05
-9.53034e-07
-5.32752e-07
5.51383e-06
4.38733e-06
-3.19602e-05
3.45535e-06
-1.3332e-06
2.39137e-07
2.7726e-05
1.87291e-06
2.53753e-05
2.23737e-08
0.000148232
-7.55607e-06
-2.0731e-06
-3.92794e-06
-2.65282e-06
9.59773e-08
-4.95404e-08
-5.76754e-07
-5.11657e-06
5.20222e-08
0.000456156
7.11955e-07
5.4008e-07
3.2737e-06
2.69066e-06
2.73218e-06
2.30353e-06
-3.58831e-05
-4.99004e-06
-4.35136e-06
3.8877e-05
-2.106e-05
-3.52386e-06
3.57774e-06
2.10071e-05
-7.87111e-06
-9.17156e-07
2.29998e-06
6.39055e-06
-1.47543e-05
-1.73142e-06
4.5546e-06
-6.69814e-06
1.86812e-05
-3.71907e-05
8.90438e-06
-8.42529e-06
3.67048e-05
-2.50277e-07
-5.44346e-07
1.77914e-06
-9.17759e-07
-6.50369e-07
-4.87509e-08
6.6967e-07
1.04055e-07
-1.08728e-06
-3.35123e-07
-2.80399e-06
5.94776e-07
1.4724e-06
2.15922e-06
-3.53507e-06
-9.73479e-06
-6.70724e-07
1.11746e-06
3.44418e-06
9.37895e-06
-9.764e-06
-2.54795e-06
2.30356e-06
3.73142e-06
9.39758e-06
-3.12062e-06
-2.01145e-06
-6.39832e-07
7.98738e-07
6.43875e-07
3.24636e-06
-2.0377e-06
-3.28528e-07
2.70177e-05
1.84468e-05
-1.35719e-06
-1.65578e-06
-3.01203e-06
-3.88811e-06
-6.45299e-07
2.25659e-06
-2.85784e-07
1.81966e-06
-2.31125e-06
1.51732e-05
9.26939e-05
-2.55161e-06
-2.69323e-06
-3.15148e-06
-3.94447e-06
-3.1004e-06
7.89113e-06
0.000148533
-4.35325e-06
-4.84605e-06
-6.38073e-07
-5.44416e-08
-5.59832e-07
3.80016e-06
9.79148e-07
-1.04109e-05
-7.25093e-07
-5.26448e-07
8.56495e-06
-5.89995e-06
1.51462e-06
-2.33409e-06
6.71835e-06
-3.82507e-06
-4.20017e-05
-7.22268e-06
7.81186e-06
8.87487e-06
3.63627e-05
1.46661e-05
3.53432e-05
0.000277827
-1.05002e-05
-9.65048e-06
-5.24737e-06
-5.63409e-06
-1.25406e-05
1.71734e-05
0.00023979
-1.96863e-06
-5.29909e-06
0.000222243
-5.43956e-06
-1.16064e-06
8.79234e-07
-4.93386e-06
-7.56058e-07
-1.92806e-06
5.31211e-06
-9.28736e-07
-5.72121e-06
1.14026e-06
-1.77106e-06
-2.92691e-05
-1.77496e-06
2.07146e-06
1.07209e-06
3.21199e-05
-4.21944e-06
1.41975e-05
1.98324e-07
0.000176062
-2.37164e-06
-1.11416e-06
-2.16144e-06
-3.4081e-07
-1.17555e-06
7.54038e-07
-4.72781e-07
3.38031e-06
1.13473e-05
0.000408052
8.02383e-06
1.19104e-05
1.14583e-05
7.75115e-06
1.56977e-05
9.90527e-06
-4.16071e-05
1.51803e-06
-7.14551e-06
4.53158e-05
-1.85004e-05
3.56344e-06
-2.58565e-06
1.75208e-05
-4.71127e-06
-9.28988e-07
2.21329e-06
3.61443e-06
-2.90045e-05
6.34183e-08
-6.12211e-06
8.16982e-07
4.55935e-05
-3.45076e-05
6.0659e-06
-3.70807e-06
3.21518e-05
1.32521e-06
-1.77564e-07
1.13685e-06
-2.28351e-06
-3.18066e-08
-7.68257e-08
6.71434e-08
3.62204e-08
-5.50386e-07
7.82521e-07
-2.64279e-06
-4.20401e-08
3.11496e-06
-6.62261e-07
-1.70962e-06
-6.20523e-06
-1.34263e-06
2.39048e-06
1.97919e-06
4.88781e-06
-1.17717e-05
-2.20482e-06
9.71294e-07
1.59546e-06
1.37668e-05
-2.35706e-06
-2.81177e-06
4.30242e-08
3.4417e-06
-1.55398e-06
4.32618e-06
-3.44514e-06
-9.44603e-06
2.14991e-05
3.68361e-06
-2.90913e-06
-3.23997e-06
-3.04982e-06
-3.28868e-06
3.30642e-06
4.4717e-06
2.68983e-06
4.72975e-06
-3.16835e-06
8.77116e-06
8.44016e-05
-1.51835e-06
-2.42862e-06
-1.38933e-06
-1.42027e-06
1.69136e-06
1.71366e-06
0.000137895
-5.52783e-07
1.79951e-06
2.33826e-07
1.67366e-06
-1.35789e-06
7.34601e-07
1.53319e-06
-1.10218e-05
-1.15215e-06
6.63346e-07
9.77453e-07
1.22246e-05
1.22168e-07
-1.62776e-08
3.20003e-08
-1.45348e-07
-6.23633e-06
1.51724e-06
-1.19601e-06
5.91801e-06
1.53989e-06
-3.2311e-05
-6.23724e-06
-5.36873e-07
6.77424e-06
3.07709e-05
7.08332e-06
4.2403e-05
0.000256054
-1.01321e-06
-5.96333e-06
3.16601e-06
-2.40362e-06
-4.6906e-07
2.01841e-05
0.000235929
7.75625e-07
-1.70157e-06
0.000218655
2.88091e-06
2.64845e-06
2.78232e-06
-1.11187e-06
5.72767e-07
-2.01385e-06
-2.49795e-06
-5.16974e-07
-9.44051e-07
-1.51348e-06
6.24807e-06
-3.04735e-09
5.18856e-07
-4.08688e-08
-7.92075e-08
-4.20038e-07
-3.40229e-05
-3.19557e-06
2.12981e-06
4.07614e-06
3.57981e-05
-4.78556e-06
6.26293e-06
3.89894e-06
0.000196212
-2.95139e-06
2.04831e-06
-1.11183e-06
3.34047e-06
2.49792e-06
4.6826e-06
3.58489e-06
8.72305e-06
1.34953e-05
0.000352641
9.17034e-06
1.07724e-05
9.23441e-06
9.19467e-06
1.29279e-05
8.34057e-06
-5.4067e-05
7.8044e-06
-3.39827e-06
5.66823e-05
-2.08997e-05
5.98557e-06
-7.46957e-06
2.23842e-05
-5.02414e-06
2.74901e-06
-3.70643e-06
9.88061e-06
-5.76815e-05
5.07545e-06
-7.04101e-06
8.75676e-06
6.43856e-05
-3.12419e-05
4.03415e-06
-2.98185e-06
3.01849e-05
2.47298e-06
4.58808e-07
-5.26044e-07
-2.40581e-06
6.85313e-07
-5.55627e-07
1.35077e-06
-1.47979e-06
-1.59448e-06
6.23431e-07
2.24797e-06
-8.02053e-07
3.74139e-06
-4.21626e-06
-6.21754e-07
-2.83335e-06
1.62742e-06
-1.17392e-06
1.55099e-06
1.45062e-06
-1.5121e-05
1.60115e-06
-1.70116e-06
-3.97204e-07
1.45775e-05
1.04075e-06
-2.46549e-06
-9.68169e-07
3.11163e-06
4.84195e-07
1.73416e-06
-1.89633e-06
-1.15853e-05
2.47012e-05
7.98842e-06
-5.32443e-06
-5.367e-06
-4.89373e-06
-4.95586e-06
4.82961e-08
1.89297e-06
-2.04144e-07
1.38324e-06
-1.05647e-05
1.33609e-05
6.91817e-05
-1.61995e-06
-5.53237e-07
1.9969e-07
2.81187e-06
-2.27965e-07
-1.35708e-06
0.000125413
8.27898e-07
2.53435e-06
3.17356e-06
2.96261e-06
-1.15311e-06
-2.30525e-06
-2.53723e-06
-1.31758e-05
2.91051e-06
-2.87296e-07
2.85294e-06
7.47167e-06
7.97532e-07
-9.22412e-07
2.93392e-06
-2.39553e-06
3.29963e-06
-3.71314e-06
-6.37241e-06
2.89188e-06
-3.77829e-06
7.25467e-06
2.94575e-06
-3.10288e-05
-2.08205e-06
-4.99456e-06
3.41624e-06
3.17435e-05
1.84023e-06
4.01806e-05
0.000233194
4.02253e-06
-3.53153e-06
5.52707e-06
-4.77439e-07
5.98744e-06
2.41683e-05
0.000220975
2.46634e-06
-1.48556e-06
0.00021382
3.89655e-06
2.57528e-06
4.41552e-06
-1.73141e-06
1.21392e-06
-1.88546e-06
-1.19135e-05
-2.29406e-06
9.6212e-07
-3.88888e-07
1.61007e-05
3.61941e-07
-4.43139e-06
1.51674e-06
-2.48031e-06
3.70062e-06
1.3324e-06
-3.77176e-05
-1.256e-06
1.44438e-06
8.8097e-07
3.92106e-05
-2.56235e-06
3.01955e-06
4.89327e-06
0.000212946
-2.53081e-06
3.66971e-06
-2.76928e-07
3.56968e-06
3.02193e-06
4.6186e-06
3.46168e-06
6.80736e-06
9.48412e-06
0.000323296
6.71938e-06
7.94449e-06
6.64448e-06
6.49552e-06
7.77874e-06
4.65898e-06
-6.19582e-05
8.21291e-06
-2.50666e-06
6.15737e-05
-2.18558e-05
-2.34529e-06
-8.46824e-06
5.2385e-06
2.74297e-05
-1.14954e-06
9.32037e-08
-7.41691e-07
1.79803e-06
-1.53727e-05
4.43001e-06
-5.36659e-06
2.12023e-05
-6.9366e-05
6.04227e-06
-5.26975e-06
7.81401e-06
7.02636e-05
-2.81874e-05
5.45185e-06
-2.12347e-06
2.48626e-05
1.80822e-06
1.32167e-06
-2.02611e-06
-1.10378e-06
2.22711e-06
2.67799e-07
-8.65604e-08
-2.4073e-06
-1.41532e-06
1.66489e-07
4.91826e-06
-1.8745e-06
2.98477e-06
-4.7797e-06
7.06202e-07
-1.58774e-06
5.1189e-06
-6.82214e-06
-2.44326e-07
2.8291e-06
-1.343e-05
5.86027e-06
-5.76861e-06
-4.25154e-06
1.11897e-05
6.4002e-06
-1.40185e-07
-2.11755e-06
-4.13806e-07
1.43679e-06
-1.38613e-06
2.62089e-06
-1.491e-05
2.27828e-05
1.27249e-05
-3.91491e-06
-4.37641e-06
-3.74314e-06
-4.83094e-06
-3.80477e-08
2.04182e-06
-5.12353e-07
2.76464e-06
-2.00897e-05
2.01779e-05
5.43955e-05
-7.26796e-07
1.61653e-06
-1.49079e-06
3.89086e-07
-3.29218e-06
1.46048e-06
0.000111461
1.99268e-06
1.47628e-06
9.78148e-07
-5.69301e-07
-3.08916e-06
-2.99545e-06
-2.09922e-06
-5.01082e-06
-2.59166e-06
-3.49744e-06
4.8391e-06
2.96863e-06
5.97184e-06
-1.3953e-06
4.03064e-06
-4.32004e-06
4.46528e-06
-8.75243e-06
-7.72803e-06
4.1295e-06
-3.60571e-06
7.20247e-06
1.20481e-06
-3.28515e-05
1.17478e-06
-4.88835e-06
8.53106e-07
3.45071e-05
-3.88472e-06
3.85997e-05
0.000211199
5.16574e-06
-1.97229e-06
6.25996e-06
6.09705e-07
6.10347e-06
2.73948e-05
0.00020377
3.13061e-06
-6.20721e-07
0.000207858
4.70109e-06
4.459e-06
5.26895e-06
-2.37942e-06
1.85731e-06
-2.89078e-06
-2.09813e-05
-2.57002e-06
1.29408e-06
-8.03585e-07
2.61914e-05
-4.53522e-06
-4.28705e-06
8.21376e-07
-1.2228e-06
1.75228e-06
7.47142e-06
-4.02824e-05
9.19816e-07
-7.77825e-08
-1.96893e-06
4.14362e-05
-2.69168e-08
1.7265e-06
4.76676e-06
0.000226587
-1.43211e-06
3.6349e-06
7.93083e-07
3.76174e-06
3.18132e-06
4.82629e-06
3.70057e-06
5.22695e-06
6.3538e-06
0.000310471
5.66037e-06
6.76681e-06
5.51463e-06
3.41578e-06
5.80199e-06
3.20539e-06
-6.45129e-05
6.57577e-06
-9.07462e-07
6.34508e-05
-3.00425e-05
2.72117e-06
-6.46899e-06
4.46201e-06
2.93283e-05
-5.0159e-06
-1.05297e-07
-3.46553e-06
1.80971e-06
6.77701e-06
-2.6273e-05
4.8008e-06
-4.5643e-06
3.08048e-05
-7.06878e-05
3.78359e-06
-2.59916e-06
5.15088e-06
7.07063e-05
-2.24626e-05
3.39725e-06
-2.77492e-06
2.18402e-05
5.34077e-07
1.44964e-06
-1.69665e-06
-2.87072e-07
2.33134e-06
5.83014e-07
-8.17946e-07
-2.09469e-06
-1.7404e-06
1.90082e-07
4.36579e-06
-1.64435e-06
2.92558e-06
-4.0967e-06
-2.77164e-07
-3.71218e-06
4.05105e-06
-5.50796e-06
1.71891e-06
3.72734e-06
-7.48212e-06
2.49222e-06
-3.10764e-06
6.29792e-07
2.52915e-06
4.93859e-06
1.05146e-06
-2.51055e-06
-4.7704e-06
2.56951e-06
-2.70136e-06
6.36134e-06
-1.05071e-05
2.05968e-05
1.97474e-05
-3.72553e-06
-5.20569e-06
-3.46369e-06
-5.54647e-06
-1.66702e-06
2.30313e-06
-2.15294e-06
2.34609e-06
-1.38903e-05
2.51144e-05
4.63293e-05
-3.54107e-06
-2.82346e-06
-4.13228e-06
-3.16811e-06
-3.2653e-06
4.10479e-06
0.000108829
-2.51646e-06
-1.86433e-06
-2.47045e-06
-1.46123e-06
-3.81824e-07
-4.62873e-06
1.22451e-06
-4.32718e-06
-1.1374e-06
-4.17603e-06
2.5597e-06
3.81561e-06
1.17149e-05
1.6788e-06
1.05732e-06
-6.68086e-06
-7.77012e-06
-6.30185e-06
3.36746e-06
-2.54929e-06
5.48721e-06
3.55475e-08
-3.66609e-05
2.59943e-06
-4.24721e-06
-1.15024e-06
3.94234e-05
-6.62652e-06
3.65535e-05
0.000188769
5.70665e-06
-9.56965e-07
6.72469e-06
1.62524e-06
6.37958e-06
3.04584e-05
0.00018542
5.15595e-06
1.8171e-07
0.000205409
4.96375e-06
4.77306e-06
1.82529e-06
-2.18579e-06
2.06146e-06
-3.8415e-06
-3.08962e-05
2.03875e-09
5.3401e-06
-2.46939e-06
3.31794e-05
-9.45378e-06
9.74408e-06
-6.19684e-06
6.78416e-06
-8.34053e-06
7.4629e-06
-4.30236e-05
2.7744e-06
-2.02241e-06
-3.00242e-06
4.36175e-05
1.65645e-06
3.64726e-07
4.80252e-06
0.000236614
-1.37104e-07
3.96413e-06
1.90862e-06
4.16143e-06
3.43878e-06
4.39799e-06
3.62539e-06
3.84064e-06
4.92812e-06
0.000306117
4.74048e-06
5.52133e-06
4.76803e-06
3.12334e-06
4.84292e-06
3.41206e-06
-6.5884e-05
4.92897e-06
7.79827e-08
6.48994e-05
-2.23993e-05
1.04887e-06
-5.45861e-06
2.68092e-05
-3.48824e-05
5.04023e-06
-3.77447e-06
3.84181e-05
-7.14071e-05
1.92701e-06
-1.60457e-07
2.8467e-06
7.1722e-05
-2.22441e-05
2.41582e-06
-3.44001e-06
2.32682e-05
2.43033e-07
1.23274e-06
-1.19201e-06
-2.83762e-07
1.75579e-06
6.09234e-07
-9.54245e-07
-1.40984e-06
-1.91323e-06
-4.32609e-07
3.9182e-06
-6.31798e-07
2.81389e-06
-3.75446e-06
-8.34082e-07
-3.50741e-06
2.70192e-06
-4.4208e-06
3.03374e-06
3.02663e-06
1.35606e-06
2.03639e-06
-4.39283e-06
5.55978e-07
-4.02141e-06
4.46581e-06
1.57667e-06
-2.79417e-06
-7.41133e-06
3.44698e-06
-2.88441e-06
8.06626e-06
3.93444e-06
1.78994e-05
2.03617e-05
-3.40971e-06
-5.59833e-06
-3.22988e-06
-5.54127e-06
-2.95658e-06
1.15291e-06
-3.44585e-06
5.80624e-07
-1.27397e-06
2.6024e-05
4.30135e-05
-5.20209e-06
-3.70451e-06
-5.2803e-06
-3.31294e-06
-2.21443e-06
1.85753e-06
0.000112112
-2.67749e-06
2.73122e-07
-1.26783e-06
2.18877e-06
-1.54409e-06
2.67087e-10
-1.17227e-06
-5.60763e-06
3.71715e-06
-6.64761e-06
6.32365e-06
-5.29217e-06
2.34929e-06
-2.74166e-06
5.68651e-06
1.01526e-06
-4.22031e-05
2.76057e-06
-4.06858e-06
-2.09086e-06
4.45867e-05
-4.45465e-06
3.17977e-05
0.000165729
5.51315e-06
-3.555e-07
6.40373e-06
2.03519e-06
7.47794e-06
2.67589e-05
0.000172752
2.42101e-06
-5.76706e-07
0.000213655
2.89443e-07
3.06825e-06
2.1889e-06
-4.28062e-06
1.63918e-06
-3.66008e-06
-4.56624e-05
5.62121e-06
3.38505e-06
-7.72583e-06
4.6803e-05
-4.44277e-05
3.53289e-06
-3.39627e-06
-3.83887e-06
4.48854e-05
3.24465e-06
1.24054e-07
4.22323e-06
0.000241687
8.97749e-07
3.92151e-06
2.71382e-06
3.96455e-06
3.39679e-06
4.03901e-06
3.4433e-06
3.0147e-06
3.85145e-06
0.000302365
4.17756e-06
5.17147e-06
4.36457e-06
3.19459e-06
3.80927e-06
3.05141e-06
-6.7578e-05
4.23646e-06
-1.88179e-08
6.57983e-05
-2.65627e-05
8.76745e-06
-4.99663e-06
2.27919e-05
-4.10462e-05
4.6964e-06
-2.94005e-06
4.35131e-05
-7.26025e-05
7.42736e-07
9.50867e-07
1.92354e-06
7.28368e-05
-2.45879e-05
2.43643e-06
-3.55824e-06
2.57097e-05
4.7251e-07
1.16846e-06
-1.03104e-06
-6.09928e-07
1.09615e-06
6.63845e-07
-1.10005e-06
-6.61136e-07
-1.81772e-06
-9.79574e-07
3.57825e-06
7.45437e-08
2.49631e-06
-3.3518e-06
-1.02933e-06
-2.74003e-06
1.85842e-06
-4.13607e-06
3.41999e-06
2.62702e-06
5.31535e-06
2.9179e-06
-6.19795e-06
-2.04039e-06
-5.29009e-06
5.29517e-06
1.86186e-06
-3.26125e-06
-8.28722e-06
4.10689e-06
-2.95169e-06
8.53142e-06
1.06491e-05
1.30551e-05
2.16378e-05
-2.86933e-06
-5.1241e-06
-2.86893e-06
-5.07183e-06
-3.7912e-06
-5.26294e-07
-3.95107e-06
-7.77639e-07
2.80292e-06
2.45347e-05
4.39841e-05
-5.82816e-06
-3.20351e-06
-5.68005e-06
-2.94738e-06
6.66023e-07
-1.92279e-06
0.000109263
5.84461e-07
3.50636e-06
1.02087e-06
4.7907e-06
-1.07523e-06
-4.20326e-07
-1.49864e-06
-9.13005e-06
7.22227e-06
-9.93543e-06
1.25092e-05
-6.11479e-06
2.00441e-06
-2.1912e-06
6.30123e-06
1.3475e-06
-4.67721e-05
3.27874e-06
-2.83073e-06
-3.15799e-06
4.81346e-05
-2.35621e-06
2.31899e-05
0.000149807
3.4678e-06
-6.03449e-07
3.87655e-06
1.40267e-06
5.36467e-06
2.05174e-05
0.000169049
4.34542e-06
-1.33949e-06
0.000211716
3.25346e-06
4.73511e-06
3.6583e-06
-4.60256e-06
1.16511e-07
-4.78608e-06
-4.6371e-05
8.53788e-06
6.38183e-06
-1.0363e-05
4.61597e-05
-4.51213e-05
3.72313e-06
-3.8483e-06
-4.19479e-06
4.52537e-05
4.18753e-06
9.0296e-07
3.18918e-06
0.000241947
1.65641e-06
3.4566e-06
3.05422e-06
3.45083e-06
2.37751e-06
2.45423e-06
2.38802e-06
3.16708e-06
2.33488e-06
0.000299846
3.82893e-06
5.25234e-06
3.81122e-06
2.04652e-06
2.04229e-06
1.45665e-06
-6.78302e-05
4.85633e-06
-1.074e-06
6.58754e-05
-2.26327e-05
7.00447e-06
-6.87852e-06
2.25067e-05
-4.60234e-05
4.75025e-06
-3.03749e-06
4.74998e-05
-7.34957e-05
5.35162e-07
1.3246e-06
7.88312e-07
7.31825e-05
-2.67272e-05
3.20136e-06
-3.42894e-06
2.69548e-05
7.57162e-07
1.28312e-06
-1.32316e-06
-7.17119e-07
2.80927e-07
9.78674e-07
-1.40228e-06
1.4166e-07
-1.65929e-06
-1.36544e-06
3.22701e-06
3.51142e-07
2.12614e-06
-2.67957e-06
-4.28528e-07
-2.71775e-06
1.54108e-06
-4.29417e-06
2.80475e-06
3.09463e-06
4.60911e-06
4.31435e-06
-8.08819e-06
-4.64793e-06
-2.61559e-06
6.42825e-06
2.43741e-06
-2.91469e-06
-8.55867e-06
3.66967e-06
-3.74373e-06
9.11e-06
1.10888e-05
5.26044e-06
2.77173e-05
-1.99219e-06
-4.11036e-06
-2.02266e-06
-4.07091e-06
-3.6303e-06
-1.5133e-06
-3.54774e-06
-1.54122e-06
-1.0632e-06
1.86189e-05
5.22886e-05
-5.47539e-06
-2.05324e-06
-5.2765e-06
-1.96633e-06
-1.14199e-06
-1.32994e-05
0.000109508
3.6914e-06
6.29258e-06
3.88847e-06
6.44397e-06
-2.23145e-06
-2.3263e-06
-2.62545e-06
-1.46665e-05
9.66163e-06
-1.24151e-05
1.62776e-05
-6.15881e-06
2.20215e-06
-1.70121e-06
5.65871e-06
9.62975e-07
-4.88881e-05
4.24532e-06
-1.3879e-06
-4.02505e-06
4.90927e-05
-5.88378e-07
9.93419e-06
0.000145158
6.0877e-07
-1.65547e-06
1.24659e-06
3.63763e-07
-3.26245e-06
1.26265e-05
0.000177715
2.95679e-06
-4.03293e-06
0.000203867
2.91355e-06
2.44213e-06
2.83081e-06
-6.41177e-06
-2.45962e-06
-6.95154e-06
-4.64624e-05
1.03408e-05
5.78132e-06
-1.19716e-05
4.52687e-05
-4.54316e-05
2.46537e-06
-3.19908e-06
-4.03819e-06
4.55661e-05
4.6374e-06
-1.85167e-06
9.6214e-07
0.000241564
1.60407e-06
2.99655e-06
2.69236e-06
2.66792e-06
8.34793e-07
1.58302e-07
2.53005e-07
2.32255e-06
1.04222e-06
0.000297051
2.77857e-06
3.67197e-06
2.20604e-06
7.21392e-07
7.69007e-07
5.80161e-08
-6.81386e-05
4.38155e-06
-3.19852e-06
6.52452e-05
-2.22228e-05
7.94538e-06
-7.24949e-06
2.15269e-05
-4.83084e-05
4.65028e-06
-3.20896e-06
4.78288e-05
-7.30571e-05
9.51228e-07
6.75265e-07
6.65672e-07
7.18072e-05
-2.65386e-05
3.68433e-06
-2.48246e-06
2.53402e-05
6.13971e-07
1.49418e-06
-1.67881e-06
-4.29341e-07
-6.78219e-07
1.35886e-06
-2.0004e-06
1.31976e-06
-1.35183e-06
-1.67307e-06
2.15039e-06
4.45648e-07
1.58945e-06
-1.1606e-06
5.33624e-07
-3.48466e-06
1.60539e-06
-4.44905e-06
1.34634e-06
4.44836e-06
4.44448e-07
4.99789e-06
-8.62101e-06
-5.88414e-06
2.35871e-06
6.7041e-06
3.19298e-06
-2.20447e-06
-9.68077e-06
2.43984e-06
-4.35446e-06
1.06069e-05
2.97104e-06
-3.78398e-06
4.3899e-05
-9.15292e-07
-2.81218e-06
-1.05282e-06
-2.73298e-06
-2.56037e-06
-1.71078e-06
-2.3636e-06
-1.22077e-06
-1.27834e-05
2.61812e-07
7.28171e-05
-3.24853e-06
4.38146e-07
-2.84503e-06
6.19546e-07
-3.47162e-06
-3.0058e-05
0.000112508
6.53302e-06
8.536e-06
6.41584e-06
8.02023e-06
-3.66333e-06
-4.78569e-06
-3.30947e-06
-1.72258e-05
1.0646e-05
-1.39379e-05
1.70461e-05
-5.20863e-06
2.09115e-06
-1.78382e-06
4.89998e-06
1.10514e-06
-4.91709e-05
4.50791e-06
-9.56988e-07
-4.57906e-06
4.90939e-05
-1.75088e-06
-4.5182e-06
0.000150698
-9.68518e-07
-1.75299e-06
7.23607e-08
-4.06521e-07
-8.15496e-06
-7.07682e-06
0.000191458
1.66699e-06
-7.03967e-06
0.000189798
2.4301e-06
1.27991e-06
2.09346e-06
-8.64165e-06
-6.7944e-06
-9.13893e-06
-4.36376e-05
1.11186e-05
5.62795e-06
-1.25676e-05
4.11257e-05
-4.60723e-05
2.14669e-06
-2.4672e-06
-4.03445e-06
4.61335e-05
4.29374e-06
-5.65335e-06
-1.46319e-06
0.00024111
1.40748e-06
2.45697e-06
2.52254e-06
2.27868e-06
-1.65631e-06
-1.84601e-06
-2.11145e-06
8.3705e-07
-9.11743e-07
0.000287956
5.90559e-07
1.98679e-06
5.97243e-07
-2.22242e-06
-8.39859e-07
-3.67266e-06
-6.61934e-05
3.82063e-06
-5.76867e-06
6.19388e-05
-2.0489e-05
8.46921e-06
-7.24655e-06
1.92657e-05
-4.75414e-05
3.77937e-06
-4.17585e-06
4.6475e-05
-7.02087e-05
1.6778e-06
-8.99603e-07
1.30117e-06
6.72176e-05
-2.30246e-05
5.42911e-06
-6.62419e-07
1.82579e-05
4.96355e-08
1.70252e-06
-2.14209e-06
3.89939e-07
-1.97151e-06
1.72438e-06
-2.49099e-06
2.73812e-06
-9.89223e-07
-1.82832e-06
1.48037e-07
2.15271e-07
1.15723e-06
1.297e-06
1.34394e-06
-5.27934e-06
1.88435e-06
-4.22004e-06
-5.78967e-07
6.85006e-06
-4.74667e-06
4.7368e-06
-6.89361e-06
-5.8799e-06
7.17305e-06
5.61032e-06
3.74885e-06
-1.28035e-06
-1.15763e-05
1.11367e-06
-4.89576e-06
1.28899e-05
-7.53804e-06
-1.28918e-05
6.97635e-05
1.41704e-07
-1.44132e-06
2.13824e-08
-1.14647e-06
-8.55738e-07
-1.08269e-06
-5.97852e-07
-4.73762e-07
-2.37582e-05
-2.13673e-05
0.00010153
3.97207e-07
3.25045e-06
1.13787e-06
4.08952e-06
-6.17982e-06
-3.74789e-05
0.000117291
7.60436e-06
8.4951e-06
7.98154e-06
7.11986e-06
-4.05456e-06
-6.99975e-06
-5.02887e-06
-1.55268e-05
9.99828e-06
-1.37438e-05
1.30924e-05
-4.55253e-06
1.93445e-06
-1.61935e-06
4.23936e-06
1.4555e-06
-4.90031e-05
4.75949e-06
-1.20626e-06
-4.61866e-06
4.8613e-05
-1.0271e-05
-1.65203e-05
0.000165578
-4.44857e-07
-1.57546e-06
6.70911e-07
3.69688e-07
-8.45268e-06
-2.89207e-05
0.000197193
1.37432e-06
-1.00518e-05
0.000174055
2.27121e-06
1.08527e-06
1.57959e-06
-8.95471e-06
-8.87823e-06
-8.61404e-06
-3.84199e-05
9.78243e-06
5.28071e-06
-1.09087e-05
3.56397e-05
-4.58653e-05
1.62347e-06
-1.96342e-06
-3.48675e-06
4.55321e-05
4.15984e-06
-9.24497e-06
-2.77754e-06
0.00023656
1.42836e-06
2.31401e-06
2.65563e-06
2.29851e-06
-3.23253e-06
-2.82705e-06
-2.58452e-06
-1.00657e-06
-2.71735e-06
0.000264234
-6.94518e-07
1.9355e-06
-1.75439e-06
-4.92088e-06
-1.96625e-06
-3.31933e-06
-6.14317e-05
2.89946e-06
-8.7038e-06
5.61777e-05
-1.81898e-05
7.17772e-06
-6.31784e-06
1.73297e-05
-4.55961e-05
3.98818e-06
-5.42491e-06
4.42568e-05
-6.39858e-05
4.5875e-06
-3.89438e-06
2.13492e-06
5.84404e-05
-1.30869e-05
2.66348e-06
9.38297e-07
9.48438e-06
-8.70274e-07
1.66899e-06
-2.27225e-06
1.47354e-06
-3.55291e-06
2.09023e-06
-2.95726e-06
4.41994e-06
-5.35192e-07
-1.80459e-06
-2.77869e-06
-2.19723e-07
7.70231e-07
4.56796e-06
2.29442e-06
-8.26901e-06
2.37519e-06
-3.96081e-06
-2.56929e-06
1.01295e-05
-8.89088e-06
4.28931e-06
-4.03546e-06
-5.78107e-06
1.03496e-05
4.06845e-06
4.09475e-06
-4.39898e-07
-1.40959e-05
-5.24364e-08
-4.97554e-06
1.54691e-05
-1.42365e-05
-1.93835e-05
9.8089e-05
8.78381e-07
-2.23269e-07
1.02122e-06
6.01278e-07
9.04415e-07
-1.34076e-07
1.34104e-06
9.05652e-07
-2.67654e-05
-3.24214e-05
0.00012776
2.8634e-06
5.23017e-06
4.11437e-06
6.51151e-06
-6.1288e-06
-3.67638e-05
0.000121142
7.91985e-06
6.75881e-06
9.11595e-06
6.45126e-06
-7.04723e-06
-4.60097e-06
-6.322e-06
-1.15133e-05
5.62046e-06
-1.10646e-05
1.08283e-05
-4.22407e-06
1.8672e-06
-1.97115e-06
4.32866e-06
1.63975e-06
-4.8005e-05
4.40425e-06
-8.06669e-07
-4.02105e-06
4.67887e-05
-2.06428e-05
-2.05523e-05
0.000184206
2.24007e-07
1.25945e-07
1.36641e-06
1.46695e-06
-1.54389e-05
-3.26413e-05
0.000192209
-1.99005e-06
-1.06032e-05
0.000163022
-1.27245e-06
-3.4774e-06
-3.37276e-06
-7.94512e-06
-6.99038e-06
-5.51905e-06
-3.29592e-05
7.77337e-06
2.04205e-06
-7.25842e-06
2.84122e-05
-4.53693e-05
1.58727e-06
-2.08734e-06
-3.13705e-06
4.51811e-05
3.82524e-06
-1.79687e-05
-2.69298e-06
0.000234256
1.88612e-06
2.51802e-06
3.50474e-06
2.20382e-06
-2.8374e-06
-2.45892e-06
-2.40294e-06
1.25382e-07
-1.0007e-06
0.000221776
-2.92904e-06
1.24928e-07
-2.97872e-06
-1.22389e-06
-1.78495e-07
-9.14807e-08
-5.1547e-05
3.07731e-06
-3.0206e-06
4.10125e-05
-1.68249e-05
4.54292e-06
-3.59557e-06
1.58776e-05
-4.34489e-05
3.30106e-06
-5.60853e-06
4.30639e-05
-5.37712e-05
5.98394e-06
-6.557e-06
2.93674e-06
5.04068e-05
-7.74372e-06
-2.83463e-06
4.02105e-06
6.5573e-06
-2.2311e-06
1.43378e-06
-2.1801e-06
2.97742e-06
-5.27927e-06
2.43351e-06
-3.35792e-06
6.20368e-06
5.37769e-08
-1.58554e-06
-6.46727e-06
-7.97401e-07
2.90075e-07
8.50636e-06
2.75862e-06
-1.20466e-05
2.97896e-06
-3.81247e-06
-3.99095e-06
1.41124e-05
-1.19339e-05
4.21078e-06
-2.08394e-06
-6.80999e-06
1.34013e-05
3.21579e-06
4.12165e-06
1.11205e-07
-1.67182e-05
-1.19945e-06
-4.29555e-06
1.79804e-05
-1.75887e-05
-2.21566e-05
0.00012114
1.3909e-06
8.9468e-07
1.79294e-06
2.16364e-06
2.49958e-06
1.66436e-06
3.1565e-06
3.13196e-06
-2.43446e-05
-3.51636e-05
0.000145027
4.60885e-06
6.46573e-06
5.96813e-06
7.61009e-06
-2.69569e-06
-3.44223e-05
0.000111998
8.55142e-06
6.18472e-06
9.57191e-06
6.34701e-06
-4.32214e-06
-1.59903e-06
-2.81627e-06
-1.01574e-05
2.30489e-06
-4.5029e-06
9.65993e-06
-4.48966e-06
1.58476e-06
-1.75428e-06
4.65766e-06
1.66347e-06
-4.56181e-05
3.44952e-06
-6.94917e-07
-2.95757e-06
4.41576e-05
-2.38144e-05
-1.98804e-05
0.000199046
8.79452e-07
6.77943e-07
2.83853e-06
2.30227e-06
-1.6803e-05
-3.09313e-05
0.000180965
-3.5296e-06
-5.72319e-06
0.000139126
-3.75919e-06
-2.13111e-06
-2.50786e-06
-3.84498e-06
-3.06954e-06
-2.7635e-06
-2.28772e-05
3.40359e-06
9.32408e-08
-1.66063e-06
1.75114e-05
-4.54446e-05
1.62274e-06
-2.25467e-06
-2.81646e-06
4.59763e-05
2.91664e-06
-2.18697e-05
-1.87367e-06
0.000232695
2.56521e-06
2.11387e-06
4.25078e-06
1.99452e-06
-2.17207e-06
-1.56439e-06
-1.76363e-06
-3.22594e-06
7.82203e-07