/*--------------------------------*- C++ -*----------------------------------*\
| =========                 |                                                 |
| \\      /  F ield         | OpenFOAM: The Open Source CFD Toolbox           |
|  \\    /   O peration     | Version:  5.x                                   |
|   \\  /    A nd           | Web:      www.OpenFOAM.org                      |
|    \\/     M anipulation  |                                                 |
\*---------------------------------------------------------------------------*/
FoamFile
{
    version     2.0;
    format      ascii;
    class       volVectorField;
    location    "1";
    object      U;
}
// * * * * * * * * * * * * * * * * * * * * * * * * * * * * * * * * * * * * * //

dimensions      [0 1 -1 0 0 0 0];

internalField   nonuniform List<vector> 
10571
(
(-0.119992 0.291015 0.839743)
(0.114544 0.0861139 0.607001)
(0.647152 0.0459768 1.37491)
(1.20976 1.56254 2.10157)
(0.221877 0.765876 1.69267)
(0.0484684 0.58917 0.799061)
(1.75597 2.46329 2.88266)
(0.793572 1.24637 1.85308)
(0.533924 1.27176 1.60289)
(-0.0829111 0.0813903 0.832333)
(0.481336 0.283561 1.60733)
(0.218452 0.528651 2.41505)
(0.543067 2.60167 2.45266)
(-0.0299246 2.43878 1.97913)
(-0.131504 2.22264 1.71209)
(-0.254923 0.717139 1.38354)
(0.0672862 -0.0422067 0.991937)
(0.0252056 -0.15612 2.036)
(0.231196 1.24488 1.7909)
(-0.685285 0.622005 1.24971)
(-0.00337636 0.179748 0.835255)
(-0.00126708 0.00899545 0.552876)
(0.293766 0.10021 1.64581)
(-0.149789 0.111304 1.15386)
(0.175537 0.164513 0.515541)
(-0.0851603 0.113047 0.30731)
(0.0485603 0.371098 1.02527)
(-0.16111 0.131137 1.31897)
(0.220777 -0.0866763 0.804264)
(-0.000862079 0.15188 0.403417)
(-0.103327 0.300543 1.37493)
(-0.0226341 0.283224 1.82916)
(0.267153 0.176617 1.44537)
(0.156731 0.226443 1.3316)
(0.0924363 0.421149 0.939663)
(0.288436 2.69385 4.81508)
(-0.415758 0.429866 2.21772)
(-0.0383205 0.49994 1.3528)
(0.214037 0.520829 1.32033)
(0.220823 0.16068 1.25557)
(-0.048807 0.129229 1.4841)
(-0.00679328 0.476968 1.90492)
(0.17347 0.591744 1.70306)
(-0.274785 0.466446 1.74225)
(0.221556 0.146356 1.82411)
(-0.0893674 0.139883 0.945685)
(0.4199 -0.100708 1.63284)
(-0.0663511 0.554396 1.73532)
(0.193636 0.0736538 0.596256)
(-0.14359 0.152913 0.384544)
(-0.117292 0.319345 0.701959)
(0.228139 0.00427417 1.73588)
(0.3573 0.135887 1.09018)
(-0.0428553 0.289936 0.564635)
(0.0643281 0.595059 1.00313)
(0.350601 0.793501 1.69138)
(0.105061 0.371415 1.10837)
(-0.204228 0.323554 1.74844)
(0.104318 0.610647 1.01925)
(-0.366627 0.403345 1.7876)
(0.270884 0.57265 2.04247)
(0.118103 0.741189 2.13157)
(-0.0312663 0.412335 2.72123)
(-0.238067 0.463414 1.36155)
(-0.121218 0.121269 2.70406)
(0.389471 -0.0190798 2.23602)
(0.814039 0.450528 6.73158)
(-0.0588956 0.354555 2.13992)
(-0.0461402 0.359138 2.29578)
(0.191537 -0.114637 1.19581)
(0.67582 -0.305505 1.6574)
(0.335665 0.169891 3.80006)
(0.20339 0.11176 0.494093)
(-0.0937436 0.15086 0.292163)
(0.00822405 0.23072 0.512094)
(0.367536 0.131904 0.73407)
(0.381174 0.306854 1.35897)
(0.0466717 0.363049 0.247065)
(0.0684456 0.605712 1.01242)
(0.201418 0.558157 1.76357)
(0.0836052 0.640383 2.64113)
(-0.209476 -0.116808 1.72258)
(-0.117621 0.539504 0.777043)
(0.509011 0.94855 2.75059)
(0.938863 0.916091 4.22342)
(-0.387058 0.718787 3.20287)
(-0.730807 -0.168963 3.03882)
(-0.341149 0.13532 0.82286)
(-0.308747 -0.0458987 1.53469)
(0.504655 -0.223637 2.56862)
(0.691239 0.0636541 5.63094)
(-0.629987 0.105134 1.4705)
(-0.213123 0.263036 1.81189)
(0.236767 0.0420124 0.761944)
(0.0373431 0.00380692 0.424324)
(0.626684 -0.177731 3.26198)
(0.173013 0.0481705 0.00348716)
(-0.00691309 0.0588382 -0.0241911)
(0.0420302 0.153017 0.0828083)
(0.0438308 0.314991 0.821215)
(0.230304 0.108413 0.326382)
(0.0870495 0.296809 -0.0183744)
(0.0494143 0.103142 0.548316)
(-0.0806634 0.213568 1.2978)
(-0.010726 0.234279 1.36701)
(-0.441056 -0.0308032 0.390034)
(-0.254408 -0.126069 0.914552)
(0.327668 0.924442 1.5489)
(0.741162 0.964582 2.55768)
(-0.21926 0.393275 2.13337)
(-0.317486 0.00915726 2.15977)
(-0.140784 0.102734 -0.181706)
(0.0765644 0.159166 1.23861)
(0.0281558 0.0692977 1.79086)
(0.630164 0.305119 4.11057)
(0.00303038 -0.503778 1.76838)
(-0.0149175 -0.444835 1.62423)
(0.13845 0.00217226 0.256562)
(-0.328782 0.749753 1.55846)
(0.485634 -0.162324 3.16635)
(0.0400176 0.02635 -0.269596)
(0.0197192 -0.0299022 0.0213144)
(-0.0613333 0.0757925 -0.0837563)
(0.159455 0.112163 0.324187)
(0.123 0.140627 0.521934)
(-0.0173665 0.334885 -0.176786)
(-0.256214 -0.110783 -0.0845632)
(-0.0731844 -0.0398753 0.792264)
(-0.0435415 -0.0148139 1.5631)
(0.094924 0.0568343 0.502604)
(-0.0148208 0.00883741 -0.00611617)
(-0.00516527 -0.142838 0.87176)
(-0.0282553 0.631435 1.38738)
(0.367514 0.933496 2.49734)
(-0.154115 0.356792 2.33858)
(0.077305 0.0564872 2.3561)
(-0.0348252 -0.107667 0.135414)
(-0.0150485 -0.00582701 -0.00559814)
(0.0980869 0.284009 1.36848)
(-0.125252 0.38284 1.82953)
(0.412705 0.397826 3.96792)
(0.651468 -0.152536 2.38979)
(0.227736 -0.442636 1.54235)
(-0.135844 0.27406 0.419498)
(-0.358435 1.02457 2.3932)
(0.460062 -0.103154 2.82734)
(-0.0947014 0.00200897 -0.363187)
(0.00182355 0.0748736 -0.0568986)
(-0.0175524 0.124139 -0.168871)
(-0.130718 0.0744181 0.0900385)
(-0.0887584 0.0396225 0.595132)
(0.0471957 0.242606 -0.131865)
(-0.116979 0.150514 0.132596)
(-0.248706 -0.024377 0.821588)
(-0.135032 -0.0519937 1.52828)
(0.0643277 0.102721 0.454389)
(-0.176278 0.120512 -0.0504181)
(-0.126119 -0.317765 1.03748)
(-0.208932 0.308529 1.35882)
(0.150644 0.773857 2.51231)
(-0.0915948 0.47463 2.3962)
(0.25218 -0.0116896 2.405)
(0.187542 0.0419069 0.617581)
(-0.234218 0.263474 0.00345948)
(0.00123777 0.114703 1.53553)
(-0.0812954 0.493386 2.17749)
(0.220744 0.367124 3.65598)
(0.649108 -0.0611826 2.75268)
(0.412304 -0.252551 1.68922)
(-0.357734 0.0213782 0.0470476)
(-0.287586 0.337688 0.953887)
(-0.356507 0.736366 2.76464)
(0.339004 -0.257027 2.39832)
(-0.245385 -0.03349 -0.204925)
(0.0415798 0.0234962 -0.178248)
(-0.0140767 0.126319 -0.213604)
(-0.520022 -0.0111398 0.105176)
(-0.387499 -0.299685 0.495052)
(0.165353 0.0458652 0.0707839)
(-0.0884357 0.139181 0.0566423)
(-0.42298 0.147927 0.629961)
(-0.242908 0.0654143 1.29964)
(-0.247893 0.358558 0.17786)
(-0.260807 0.216495 -0.29579)
(-0.0624455 -0.692647 1.1262)
(-0.138453 0.0952835 1.48884)
(-0.0158464 0.696492 2.32089)
(-0.10871 0.561679 2.27363)
(0.294969 -0.0292794 2.36555)
(0.164949 0.0659963 1.08793)
(-0.194171 0.218238 0.218695)
(-0.0907536 -0.0688864 1.58018)
(-0.0611443 0.532351 2.35633)
(0.155007 0.384105 3.37235)
(0.555279 0.0623251 2.83691)
(0.327005 -0.279491 1.73658)
(0.138679 0.032232 0.335568)
(-0.31875 0.307501 1.47359)
(-0.190887 0.427733 2.77437)
(0.412729 -0.14087 1.99394)
(-0.257393 -0.0280577 -0.0492254)
(0.0634849 -0.0253169 -0.168347)
(-0.0233387 0.141543 -0.18522)
(-0.411486 0.0658451 0.162729)
(-0.264102 -0.060643 0.178509)
(0.184989 -0.0840391 0.256603)
(-0.0203762 0.140809 0.183019)
(-0.315735 0.278246 0.504961)
(-0.144696 0.186546 1.14609)
(-0.320608 0.185754 0.116002)
(0.033077 -0.418344 -0.471818)
(-0.044163 -0.53367 0.858102)
(-0.0865928 -0.0262896 1.65339)
(-0.127569 0.622985 2.00894)
(-0.0919514 0.621626 1.95372)
(0.334656 -0.0320266 2.26368)
(0.343889 -0.163128 1.55563)
(0.31574 -0.489515 0.343784)
(-0.227307 -0.15678 1.69085)
(-0.0747783 0.53385 2.4653)
(0.109764 0.40195 3.24944)
(0.489405 0.136381 2.88061)
(0.239292 -0.431852 1.8366)
(-0.314046 0.311836 1.89914)
(-0.0245228 0.32852 2.82093)
(0.436248 -0.0890411 2.0521)
(-0.213497 -0.0171773 -0.031912)
(0.0449433 -0.0273024 -0.112915)
(0.0421496 0.160254 -0.171693)
(-0.293502 0.0957747 0.143814)
(-0.287672 -0.0708163 -0.120572)
(0.229007 -0.136585 0.35951)
(0.0890923 0.141676 0.201255)
(0.0634671 0.313966 0.420302)
(-0.0952455 0.186875 1.18756)
(-0.103297 -0.380994 0.228238)
(-0.0808553 -0.332737 0.792003)
(-0.107998 -0.0727372 1.92069)
(-0.139226 0.516631 1.74357)
(-0.00791018 0.572948 1.768)
(0.32693 -0.101809 2.23286)
(0.226559 -0.447693 1.75229)
(-0.295576 -0.222483 1.77668)
(-0.0812903 0.499359 2.50901)
(0.110792 0.364844 3.18686)
(0.449882 0.134611 2.92557)
(0.349852 -0.516403 2.02319)
(-0.276646 0.257544 2.11089)
(0.0613829 0.249497 2.88215)
(0.408803 -0.0850304 2.28438)
(-0.199699 -0.0186516 -0.0776737)
(0.0209811 -0.0359319 -0.0648945)
(0.0826996 0.156722 -0.153276)
(-0.224444 0.0987521 0.117184)
(-0.351899 -0.134201 -0.204664)
(0.27312 -0.154219 0.370746)
(0.195104 0.122314 0.198287)
(0.181317 0.328076 0.418183)
(-0.0967487 0.158141 1.16921)
(0.167522 -0.594575 0.569666)
(-0.0455215 -0.298214 0.892325)
(-0.0861777 -0.149657 2.0892)
(-0.0130724 0.344406 1.56789)
(-0.068798 0.492796 1.69354)
(0.282331 -0.214555 2.26446)
(0.319296 -0.590975 1.82863)
(-0.288212 -0.251576 1.77459)
(-0.0924275 0.401555 2.56532)
(0.145482 0.2397 3.16626)
(0.41363 0.0790036 2.89863)
(0.415737 -0.607055 2.0401)
(-0.293996 0.190683 2.34079)
(0.0692023 0.155977 2.87198)
(0.387395 -0.117631 2.46294)
(-0.212194 -0.0252396 -0.109242)
(0.0330346 -0.0562628 -0.00830147)
(0.10879 0.152956 -0.136222)
(-0.194885 0.0474802 0.126537)
(-0.476078 -0.263177 -0.129744)
(0.244666 -0.22285 0.391315)
(0.244123 0.0531229 0.230057)
(0.114313 0.297065 0.43909)
(-0.156828 -0.00208506 1.16117)
(0.0108945 -0.756043 0.784835)
(-0.0149607 -0.296871 0.873143)
(-0.045162 -0.251692 2.17869)
(0.166585 0.122114 1.47546)
(-0.188674 0.320074 1.70369)
(0.0884471 -0.455707 2.22988)
(0.21727 -0.723441 1.82062)
(-0.211075 -0.248479 1.78231)
(-0.0885508 0.200429 2.57229)
(0.0348413 0.135948 3.16741)
(0.365096 -0.0902146 2.89128)
(0.431692 -0.660746 2.0004)
(-0.299729 0.0383601 2.4493)
(0.00436972 0.0726902 2.8783)
(0.329091 -0.124282 2.39095)
(-0.235513 -0.0288571 -0.0750849)
(0.0500487 -0.0911241 0.0758073)
(0.126087 0.134768 -0.0813861)
(-0.204681 -0.0408683 0.170359)
(-0.510689 -0.319918 0.0390281)
(0.174579 -0.295176 0.454378)
(0.193401 -0.0333818 0.337266)
(-0.106143 0.0628785 0.618252)
(-0.302468 -0.394165 1.19659)
(-0.131328 -0.867573 0.888847)
(-0.0376742 -0.267948 0.733402)
(-0.0849111 -0.29898 2.17709)
(0.175556 -0.111233 1.4742)
(-0.248767 -0.0574992 1.92374)
(-0.0226964 -0.687196 2.11776)
(0.135816 -0.819128 1.67118)
(-0.176863 -0.240169 1.81696)
(-0.12087 -0.0271956 2.57406)
(-0.0784674 -0.150481 3.15606)
(0.254986 -0.270943 2.80912)
(0.427956 -0.71253 1.79672)
(-0.29414 -0.107879 2.39357)
(-0.0949399 0.0122559 2.73383)
(0.17063 -0.242742 1.93745)
(-0.267706 -0.0417858 0.0338037)
(0.0688862 -0.121255 0.172929)
(0.130177 0.109481 0.0133338)
(-0.211547 -0.118182 0.261888)
(-0.414065 -0.317704 0.23474)
(0.0929313 -0.338264 0.544885)
(0.0478807 -0.15024 0.561509)
(-0.326974 -0.283985 0.894634)
(-0.439084 -0.630713 1.20868)
(-0.329939 -0.918115 0.723721)
(-0.02644 -0.244817 0.613563)
(-0.124649 -0.320066 2.15591)
(-0.0229464 -0.304107 1.60898)
(-0.325847 -0.44129 2.04483)
(0.013245 -0.73592 1.93994)
(0.0937425 -0.692949 1.46789)
(-0.135715 -0.244241 1.78582)
(-0.185939 -0.226919 2.52043)
(-0.131879 -0.486843 2.95589)
(0.0666746 -0.590667 2.53862)
(0.337046 -0.582922 1.60463)
(-0.320373 -0.137851 2.28004)
(-0.432852 -0.0176834 2.4159)
(-0.0831404 0.0256209 0.973884)
(-0.256176 -0.0419766 0.165195)
(0.0906601 -0.151132 0.291132)
(0.112922 0.0780296 0.154627)
(-0.233839 -0.201464 0.405214)
(-0.275086 -0.31382 0.38203)
(0.0277076 -0.344681 0.65736)
(-0.109595 -0.258233 0.84167)
(-0.397355 -0.473521 1.1584)
(-0.465109 -0.670875 1.25966)
(-0.337932 -0.632639 0.56737)
(-0.0494759 -0.225002 0.617309)
(-0.119841 -0.282652 2.09669)
(-0.255733 -0.397487 1.7383)
(-0.431417 -0.61647 1.9656)
(-0.152194 -0.703774 1.75234)
(-0.152192 -0.567638 1.22564)
(-0.144398 -0.248328 1.76749)
(-0.313072 -0.270594 2.46755)
(-0.308815 -0.45435 2.58014)
(0.241928 -0.632847 2.05689)
(0.197459 -0.408929 1.52278)
(-0.28954 -0.121096 2.17482)
(-0.573039 0.0894995 2.02552)
(-0.411802 0.119104 0.636487)
(-0.224193 -0.0481028 0.370687)
(0.115216 -0.176352 0.417735)
(0.0747224 0.0342402 0.323686)
(-0.262119 -0.258893 0.575687)
(-0.178148 -0.358451 0.503361)
(-0.0388053 -0.314493 0.772329)
(-0.241603 -0.321259 1.10877)
(-0.363889 -0.528357 1.40148)
(-0.422752 -0.645384 1.25875)
(-0.0454665 -0.255738 0.504488)
(-0.0436625 -0.196282 0.655172)
(-0.11492 -0.210067 1.98661)
(-0.406677 -0.42086 1.95089)
(-0.382613 -0.678622 1.88654)
(-0.263457 -0.666372 1.60342)
(-0.219992 -0.231366 0.7637)
(-0.138318 -0.204485 1.77862)
(-0.41279 -0.226547 2.45199)
(-0.33698 -0.321534 2.09416)
(-0.121131 -0.174506 1.28521)
(-0.131228 -0.0420986 1.04949)
(-0.18989 -0.0688593 2.18602)
(-0.445644 0.188734 1.9073)
(-0.388306 0.183163 0.498207)
(-0.149843 -0.0432512 0.586115)
(0.134884 -0.19651 0.557992)
(0.0419519 -0.0195772 0.517475)
(-0.266717 -0.256937 0.764555)
(-0.108221 -0.342327 0.635467)
(-0.100457 -0.314611 0.878281)
(-0.336587 -0.358941 1.30269)
(-0.348278 -0.494839 1.49933)
(-0.250894 -0.558771 1.12284)
(0.112693 -0.0468828 0.474497)
(-0.0434013 -0.188127 0.712387)
(-0.217523 -0.208821 1.84581)
(-0.473816 -0.435752 2.04215)
(-0.274783 -0.63985 1.75991)
(-0.163694 -0.520476 1.3706)
(-0.00235556 -0.094031 0.511168)
(-0.127927 -0.122644 1.92568)
(-0.411106 -0.190217 2.42481)
(-0.172632 -0.243342 1.54721)
(-0.0431034 0.0637836 0.819327)
(-0.106564 0.102221 0.515923)
(-0.0946585 -0.021459 2.17885)
(-0.282552 0.252285 1.93008)
(-0.348741 0.193833 0.452771)
(-0.0720472 -0.0236768 0.7667)
(0.154027 -0.229026 0.718433)
(0.0378798 -0.0747424 0.720525)
(-0.201864 -0.189108 0.958098)
(-0.0403525 -0.147127 0.77856)
(-0.160158 -0.345762 1.02469)
(-0.379924 -0.421906 1.44057)
(-0.347349 -0.40284 1.52104)
(-0.0269523 -0.296652 0.896863)
(0.119722 0.0231617 0.499989)
(-0.0574655 -0.219191 0.790244)
(-0.377934 -0.256998 1.79314)
(-0.505728 -0.471024 2.03472)
(-0.32296 -0.53764 1.55774)
(-0.0193392 -0.166295 0.939442)
(0.0624357 -0.0150992 0.434495)
(-0.16416 -0.0785219 2.01652)
(-0.422731 -0.128866 2.36062)
(-0.0842972 -0.1079 1.0771)
(-0.0645325 0.125793 0.581208)
(-0.0716587 0.130209 0.346488)
(0.0175936 0.00202764 2.19026)
(-0.0476337 0.195937 2.11102)
(-0.231474 0.151089 0.543942)
(-0.00865483 0.00759758 0.842436)
(0.169465 -0.255985 0.911866)
(0.0626719 -0.121362 0.916208)
(-0.0910933 -0.174418 1.12888)
(0.0845103 0.080007 0.90072)
(-0.186939 -0.386915 1.21467)
(-0.361741 -0.454894 1.54574)
(-0.308179 -0.352567 1.47978)
(0.0644547 -0.0893374 0.768249)
(0.0727779 0.0514868 0.563953)
(-0.0863686 -0.252626 0.980883)
(-0.441021 -0.310041 1.80435)
(-0.503282 -0.53685 1.91898)
(-0.289092 -0.265072 1.30786)
(-0.0489912 -0.0280984 0.716387)
(0.0553002 0.0622016 0.442566)
(-0.233484 -0.049461 2.07412)
(-0.476793 -0.0104749 2.15169)
(-0.111303 0.0281555 0.800546)
(-0.147213 0.0969652 0.507254)
(-0.0686244 0.147643 0.308094)
(0.0423361 0.0590574 2.10852)
(0.133349 0.138575 2.22218)
(-0.0853583 0.0879238 0.772118)
(0.0807637 0.00864374 0.865411)
(0.175112 -0.257738 1.11258)
(0.106449 -0.140133 1.09722)
(-0.00736353 -0.173453 1.25207)
(0.182075 0.153684 0.969115)
(-0.19077 -0.38933 1.41828)
(-0.296111 -0.377863 1.6218)
(-0.228307 -0.315708 1.35933)
(0.108035 0.0261068 0.671617)
(0.0575379 0.0857263 0.600715)
(-0.105398 -0.258918 1.29281)
(-0.435609 -0.337004 1.83984)
(-0.4383 -0.498547 1.7338)
(-0.170017 0.00289107 1.04475)
(-0.104451 0.0197924 0.577228)
(0.0465089 0.119069 0.441975)
(-0.29923 -0.0573414 2.1116)
(-0.419169 -0.0188892 1.81495)
(-0.162203 0.110487 0.711684)
(-0.186624 0.0777346 0.437492)
(-0.0833418 0.161891 0.29725)
(0.0272671 0.165162 2.10051)
(0.192345 0.0725729 2.30394)
(0.059481 0.0152738 1.02173)
(0.148634 0.00677473 0.909922)
(0.171467 -0.225481 1.28425)
(0.158617 -0.136892 1.24696)
(0.0383993 -0.0870568 1.31911)
(0.222836 0.141873 1.02643)
(-0.150881 -0.363095 1.61257)
(-0.240041 -0.220421 1.68093)
(-0.0904925 -0.116708 1.15335)
(0.105544 0.0974207 0.616643)
(0.0658032 0.128249 0.635195)
(-0.0806115 -0.272486 1.56344)
(-0.351528 -0.322994 1.89684)
(-0.357208 -0.222909 1.58597)
(-0.105004 0.122477 0.840246)
(-0.130436 0.0726907 0.492898)
(0.0286194 0.18149 0.449391)
(-0.291207 -0.0510294 2.18696)
(-0.324446 -0.0822737 1.59272)
(-0.165621 0.162866 0.732877)
(-0.191427 0.0674841 0.376741)
(-0.0972537 0.192992 0.278394)
(0.0293367 0.197172 2.18297)
(0.183549 0.0260608 2.31388)
(0.105507 -0.0643234 1.19016)
(0.186239 0.0103513 0.944045)
(0.161386 -0.159024 1.36184)
(0.18093 -0.117101 1.36952)
(0.0201049 0.00745547 1.32535)
(0.215365 0.113508 1.06009)
(-0.0453332 -0.340676 1.76633)
(-0.200786 -0.102484 1.65524)
(0.000280967 0.112912 0.965899)
(0.0531952 0.146523 0.583242)
(0.0662034 0.166564 0.676392)
(-0.0600883 -0.261353 1.63043)
(-0.274319 -0.252601 1.94427)
(-0.293651 0.0592442 1.49426)
(-0.0925601 0.161895 0.740935)
(-0.138119 0.118576 0.449164)
(-0.00437362 0.229445 0.423452)
(-0.274687 -0.0354043 2.24935)
(-0.284184 -0.0806463 1.47612)
(-0.15585 0.182675 0.806531)
(-0.184582 0.0489487 0.349179)
(-0.107722 0.218882 0.29188)
(0.0234011 0.136349 2.19455)
(0.126243 0.0202155 2.32989)
(0.091677 -0.0583855 1.2264)
(0.196343 0.0118433 0.968453)
(0.108087 -0.0792149 1.32075)
(0.152675 -0.0906694 1.46564)
(0.00562779 0.0253116 1.29487)
(0.204144 0.0821939 1.07097)
(0.121062 -0.222003 1.82471)
(-0.103804 -0.0126113 1.62343)
(0.0114036 0.233591 0.821322)
(-0.020965 0.171567 0.547402)
(0.0435879 0.161398 0.702452)
(-0.0529643 -0.213114 1.7523)
(-0.263303 -0.165127 1.98015)
(-0.24759 0.201444 1.44355)
(-0.088732 0.184706 0.718517)
(-0.13729 0.137905 0.440645)
(-0.0282204 0.248914 0.375326)
(-0.242038 -0.00497366 2.32435)
(-0.284895 -0.0639225 1.45741)
(-0.191076 0.150741 0.858746)
(-0.187012 0.013746 0.36818)
(-0.11013 0.222911 0.316562)
(-0.00698001 0.108735 2.21533)
(0.0548777 0.0340934 2.32418)
(0.110156 -0.0195141 1.3376)
(0.214034 0.00701401 1.01451)
(0.0314123 -0.0121398 1.24746)
(0.108055 -0.0653205 1.50681)
(0.0889124 -0.0653119 1.17661)
(0.196104 0.0914336 1.09397)
(0.235095 -0.088823 1.78869)
(-0.000100416 0.0575166 1.62364)
(-0.00143488 0.26722 0.742242)
(-0.076456 0.176846 0.503102)
(0.00413924 0.164856 0.661954)
(-0.0599207 -0.148545 1.8787)
(-0.186657 -0.0807419 2.09797)
(-0.191564 0.253577 1.43608)
(-0.0796488 0.20175 0.733269)
(-0.121068 0.150695 0.444095)
(-0.0307192 0.242648 0.345026)
(-0.196568 0.0102725 2.45108)
(-0.284611 -0.0537695 1.48726)
(-0.289259 0.0593549 0.916147)
(-0.202004 0.0181479 0.411965)
(-0.11266 0.231455 0.331326)
(-0.0483962 0.0874392 2.30983)
(-0.0151503 0.037356 2.32666)
(0.0997243 0.0112421 1.37832)
(0.268475 0.00390988 1.09796)
(-0.0401476 0.0202817 1.21111)
(0.00381378 -0.0665699 1.45205)
(0.194138 -0.1137 1.04699)
(0.168537 0.121904 1.11994)
(0.223917 0.0508435 1.68421)
(0.0486692 0.0812177 1.63219)
(0.00158896 0.266356 0.717902)
(-0.0783112 0.163389 0.453206)
(-0.0116258 0.185449 0.518163)
(-0.0146476 -0.0877344 2.03123)
(-0.115385 -0.00021227 2.1373)
(-0.106174 0.267877 1.48372)
(-0.0527297 0.202127 0.794661)
(-0.084343 0.161785 0.444307)
(-0.0287014 0.219868 0.325554)
(-0.166222 0.0300414 2.56835)
(-0.24301 -0.0409093 1.58874)
(-0.354183 -0.0242547 0.978622)
(-0.215322 0.0832858 0.429981)
(-0.121138 0.249379 0.324924)
(-0.100262 0.0701456 2.40597)
(-0.0655596 0.0323769 2.31909)
(0.0167709 0.0200282 1.40019)
(0.304456 0.0130123 1.19129)
(-0.0686424 0.00108892 1.24986)
(-0.0695054 -0.138858 1.30695)
(0.201916 -0.104623 0.982933)
(0.145809 0.14348 1.14022)
(0.110528 0.131629 1.58808)
(0.0864207 0.0583125 1.6181)
(0.0150131 0.254632 0.714272)
(-0.0364184 0.148351 0.408364)
(0.0168653 0.15773 0.411742)
(-0.0149145 -0.11162 1.96261)
(0.124831 0.0426543 2.11001)
(-0.0185034 0.273672 1.55759)
(-0.0117478 0.175985 0.899271)
(-0.0376582 0.183552 0.43071)
(-0.0255336 0.204321 0.306387)
(-0.146884 0.0205211 2.63215)
(-0.158299 -0.0454311 1.72762)
(-0.36948 -0.129792 1.03717)
(-0.215931 0.154694 0.431784)
(-0.135501 0.279268 0.303576)
(-0.114238 0.0552129 2.56784)
(-0.118574 0.0260189 2.33942)
(-0.0569082 0.0177371 1.33489)
(0.274019 0.0187774 1.21764)
(-0.0421119 -0.0227995 1.37723)
(-0.00659609 -0.1354 1.16308)
(0.177652 -0.079587 0.988056)
(0.0945065 0.153436 1.2056)
(-0.0551765 0.0954258 1.52697)
(0.159644 0.0451291 1.55031)
(0.0488666 0.234327 0.738005)
(0.0152113 0.158762 0.365227)
(0.0348758 0.124358 0.348879)
(-0.0148862 0.0100462 1.80254)
(0.321809 0.0699355 2.12182)
(0.0601182 0.268182 1.63522)
(0.0201257 0.159972 1.01713)
(-0.000442922 0.228799 0.416795)
(-0.0363123 0.207248 0.281179)
(-0.0987055 0.0262291 2.69823)
(-0.0665769 -0.0388973 1.87747)
(-0.310775 -0.171029 1.13154)
(-0.221712 0.203498 0.457673)
(-0.158011 0.316748 0.279752)
(-0.108537 0.0309275 2.61072)
(-0.167287 0.00273587 2.29711)
(-0.168145 -0.120219 0.973917)
(0.266531 0.0215761 1.1917)
(-0.0102182 -0.0208698 1.45301)
(0.0777826 -0.149543 1.01404)
(0.127644 -0.0386502 1.03677)
(0.0751498 0.168503 1.25002)
(-0.196361 0.0181911 1.47233)
(0.234695 0.0759707 1.39062)
(0.0676794 0.221798 0.774299)
(0.0451808 0.195222 0.317032)
(0.0382218 0.121027 0.294468)
(0.0106177 0.19123 1.68291)
(0.317991 0.0513047 2.12718)
(0.146486 0.237394 1.71304)
(0.0576182 0.193079 1.15234)
(0.0168307 0.282025 0.408431)
(-0.0607417 0.225024 0.241672)
(-0.0914539 0.047413 2.80947)
(0.0177477 0.00756657 1.98681)
(-0.244971 -0.114976 1.26955)
(-0.214307 0.323452 0.505027)
(-0.183164 0.351845 0.237791)
(-0.129758 0.00989049 2.69272)
(-0.256944 -0.050895 2.25569)
(-0.402887 0.24313 0.572669)
(0.261367 0.0209605 1.14543)
(0.0285413 -0.0500641 1.42524)
(0.108359 -0.134439 0.946034)
(0.0799789 0.0476909 1.0575)
(0.0897557 0.17844 1.24015)
(-0.238057 0.0829452 1.3649)
(0.226621 0.114885 1.23579)
(0.052134 0.210655 0.790587)
(0.0451502 0.231683 0.264151)
(0.039643 0.147733 0.241105)
(0.0100256 0.320793 1.69212)
(0.239488 0.056775 2.13254)
(0.212209 0.229447 1.77449)
(0.107255 0.27347 1.30088)
(0.017659 0.332354 0.402916)
(-0.0854503 0.240747 0.188255)
(-0.0075151 0.0611505 2.85911)
(0.090408 0.0612144 2.09088)
(-0.243103 -0.0287532 1.41506)
(-0.201625 0.462063 0.546069)
(-0.197877 0.376849 0.181103)
(-0.130037 -0.0117689 2.75849)
(-0.300156 -0.0555427 2.25833)
(-0.483703 0.370454 0.651191)
(0.247954 0.0310881 1.09662)
(0.0790816 -0.058371 1.23021)
(0.0267243 -0.0474061 0.93808)
(0.0835228 0.147677 0.994399)
(0.133429 0.200089 1.17518)
(-0.103195 0.245635 1.26466)
(0.198289 0.163623 1.1184)
(0.0115409 0.186967 0.793038)
(0.0206313 0.243212 0.215816)
(0.0389113 0.18388 0.20387)
(0.0286892 0.351876 1.76165)
(0.0960698 0.120753 2.14948)
(0.225705 0.248123 1.79023)
(0.169401 0.381271 1.41897)
(0.0100574 0.358494 0.406354)
(-0.105411 0.244809 0.122469)
(0.1021 0.0717795 2.87983)
(0.187477 0.110573 2.24888)
(-0.194684 0.0560822 1.60223)
(-0.166662 0.548594 0.643979)
(-0.19967 0.390349 0.103997)
(-0.113255 -0.0111395 2.853)
(-0.281202 -0.0443201 2.3171)
(-0.471492 0.410205 0.854476)
(0.199438 0.0318401 1.02361)
(0.0575937 -0.036944 1.05783)
(-0.153374 0.116671 0.838542)
(0.000844076 0.188014 0.800617)
(0.13476 0.210038 1.05164)
(0.072243 0.307671 1.1297)
(0.210976 0.212047 1.03988)
(-0.0545276 0.125982 0.802821)
(-0.0203482 0.214301 0.180614)
(0.0303571 0.199032 0.18088)
(0.0288036 0.26333 1.80638)
(-0.157593 0.207416 2.14411)
(0.215626 0.284398 1.76551)
(0.228776 0.470243 1.48942)
(0.00678452 0.335045 0.418438)
(-0.120734 0.212993 0.0449741)
(0.121904 0.0720957 2.86025)
(0.302459 0.186201 2.38355)
(-0.0301412 0.137035 1.81523)
(-0.0162245 0.599018 0.816039)
(-0.167024 0.354483 0.0197021)
(-0.0728993 0.00905018 2.97501)
(-0.195224 -0.0484131 2.46784)
(-0.37036 0.360956 1.16102)
(0.16091 0.0187133 0.954188)
(0.055204 -0.0363887 0.973776)
(-0.229086 0.154493 0.705594)
(-0.137466 0.124726 0.603777)
(0.0982066 0.191994 0.858751)
(0.182658 0.254573 0.977794)
(0.234346 0.238377 0.979284)
(-0.139487 0.0315957 0.807125)
(-0.0675188 0.13401 0.151725)
(0.0140041 0.164804 0.157572)
(0.00239693 0.139528 1.89535)
(-0.19991 0.207893 2.11495)
(0.233954 0.370055 1.65024)
(0.257691 0.48237 1.51271)
(0.0107252 0.202944 0.453286)
(-0.12189 0.140627 -0.0360115)
(0.141094 0.0674498 2.83722)
(0.374754 0.272306 2.43137)
(0.210245 0.2244 1.9993)
(0.208835 0.54366 1.07739)
(-0.0817077 0.216622 -0.00617057)
(-0.00915405 0.0376456 3.07464)
(-0.0912695 -0.0574486 2.65135)
(-0.182467 0.168787 1.45645)
(0.0690497 0.0058275 0.908139)
(0.0612802 -0.0412418 0.937658)
(-0.260744 0.128786 0.646349)
(-0.205425 0.0621196 0.526968)
(-0.0547609 0.194232 0.597663)
(0.19226 0.181081 0.863822)
(0.213105 0.227367 0.933812)
(-0.21436 -0.0711243 0.794837)
(-0.104898 0.0254231 0.13204)
(-0.00345585 0.100598 0.12716)
(-0.0308577 0.122093 1.99194)
(-0.164873 0.181794 2.07415)
(0.297756 0.415983 1.5359)
(0.27112 0.458303 1.50969)
(0.0253079 -0.0175441 0.509432)
(-0.0953257 0.0374836 -0.0843549)
(0.167045 0.0893845 2.81446)
(0.384612 0.325578 2.41826)
(0.414096 0.2696 2.12769)
(0.398601 0.418024 1.34579)
(0.0601418 -0.0177314 0.167155)
(0.0358044 0.0680243 3.14544)
(0.0492752 -0.0758471 2.83521)
(-0.00328317 0.0262777 1.67482)
(0.000841512 0.00373333 0.849407)
(0.0392186 -0.028444 0.928074)
(-0.278641 0.122871 0.652209)
(-0.191412 0.0279211 0.520568)
(-0.0576718 0.0744577 0.409612)
(0.133509 0.16847 0.800811)
(0.103541 0.128594 0.90204)
(-0.263638 -0.163904 0.753476)
(-0.131032 -0.0815865 0.124091)
(-0.0122145 0.0327436 0.104564)
(-0.0153144 0.115611 1.98588)
(-0.0099163 0.175627 1.96679)
(0.398109 0.400288 1.45362)
(0.301503 0.394565 1.50193)
(0.0321434 -0.240045 0.555597)
(-0.0495616 -0.0857979 -0.0663067)
(0.204172 0.116605 2.81638)
(0.37523 0.332704 2.37392)
(0.505036 0.213807 2.20697)
(0.521686 0.284727 1.56263)
(0.193259 -0.242251 0.425755)
(0.0735679 0.104421 3.20073)
(0.17953 -0.0659216 2.98143)
(0.135183 -0.0247228 1.91066)
(-0.0876672 -0.0211238 0.835831)
(0.0375872 -0.030105 0.929864)
(-0.267226 0.114886 0.685522)
(-0.183594 -0.0956294 0.550898)
(-0.0448828 -0.0137958 0.341157)
(0.0670851 0.16661 0.805111)
(-0.0400312 -0.00427518 0.873888)
(-0.291695 -0.25522 0.683262)
(-0.139876 -0.162105 0.130094)
(-0.00773744 -0.0247676 0.103745)
(0.0257401 0.144819 1.82944)
(0.178199 0.14618 1.8224)
(0.481011 0.347385 1.36374)
(0.296317 0.282807 1.52553)
(0.0203035 -0.431076 0.582436)
(-0.00640369 -0.195531 -0.00611598)
(0.212004 0.0993946 2.85279)
(0.382319 0.282163 2.30816)
(0.510483 0.0819622 2.24591)
(0.557497 0.157413 1.72885)
(0.2718 -0.40957 0.617215)
(0.106646 0.126107 3.23793)
(0.256763 -0.0472881 3.06431)
(0.238538 -0.040974 2.19305)
(-0.0685713 -0.0115226 0.94226)
(0.065159 -0.0296158 0.864934)
(-0.201237 0.129832 0.753575)
(-0.175544 -0.237947 0.57126)
(0.0117679 -0.0233199 0.37267)
(0.0360955 0.169316 0.846508)
(-0.153929 -0.0916856 0.876961)
(-0.29801 -0.350493 0.607757)
(-0.119878 -0.191257 0.155842)
(0.00794735 -0.0563119 0.129776)
(-0.00406154 0.177993 1.68769)
(0.226534 0.174998 1.64021)
(0.485529 0.261621 1.30754)
(0.187357 0.0616519 1.59323)
(0.011383 -0.553179 0.579454)
(0.0309369 -0.250468 0.088552)
(0.271709 0.126157 2.88952)
(0.436432 0.131589 2.2535)
(0.499388 -0.0332153 2.25399)
(0.505646 0.0518718 1.84569)
(0.28362 -0.511537 0.673955)
(0.143293 0.0864353 3.25554)
(0.260731 -0.0387002 3.07476)
(0.284218 -0.0516892 2.44721)
(-0.0424258 0.0100097 1.00066)
(0.0837081 -0.0268113 0.656416)
(-0.137161 0.151909 0.833482)
(-0.145968 -0.270002 0.611803)
(0.113765 0.00803645 0.471558)
(0.0539856 0.149723 0.918891)
(-0.26078 -0.167759 0.938713)
(-0.299673 -0.43987 0.542452)
(-0.0837333 -0.18322 0.200167)
(0.0278398 -0.0598229 0.185696)
(0.00129446 0.0969237 1.59713)
(0.224552 0.0848623 1.43727)
(0.39976 0.129386 1.33605)
(-0.0209863 -0.268736 1.64214)
(0.0294789 -0.580513 0.561846)
(0.0637246 -0.246363 0.198799)
(0.325226 0.0496766 2.81107)
(0.50927 -0.00491592 2.20958)
(0.486005 -0.0767315 2.23123)
(0.364636 -0.0480904 1.97317)
(0.27505 -0.528932 0.604064)
(0.158181 0.0314778 3.21281)
(0.242885 -0.0307139 3.04181)
(0.299673 -0.0649855 2.59411)
(-0.0504639 0.012641 0.931105)
(0.0697188 -0.0241235 0.50401)
(-0.149032 0.167597 0.908211)
(-0.123758 -0.218906 0.721511)
(0.174493 0.0420732 0.599858)
(0.066643 0.113849 1.01326)
(-0.342833 -0.231081 1.0784)
(-0.278479 -0.503817 0.507585)
(-0.0591376 -0.164123 0.252087)
(0.0450292 -0.0438089 0.267552)
(-0.00509304 0.0725861 1.41751)
(0.170551 0.0134221 1.33483)
(0.168764 -0.105127 1.45309)
(-0.217233 -0.535586 1.5855)
(0.080387 -0.507247 0.569396)
(0.0850465 -0.201372 0.309284)
(0.22887 -0.27449 2.39133)
(0.540744 -0.0480442 2.15514)
(0.455963 -0.087556 2.22497)
(0.0136191 -0.284072 2.04591)
(0.204346 -0.405303 0.561896)
(0.110399 -0.0398048 3.05077)
(0.219657 -0.0356928 2.96196)
(0.278978 -0.0560957 2.65515)
(0.0886798 0.00709703 0.718438)
(0.0303456 -0.00848325 0.452387)
(-0.242934 0.0923375 1.01546)
(-0.141001 -0.243368 0.849072)
(0.193025 0.0911741 0.70729)
(0.0418601 0.0856054 1.17148)
(-0.395991 -0.294936 1.25781)
(-0.235809 -0.501527 0.504358)
(-0.0617614 -0.126734 0.302558)
(0.0556134 -0.015477 0.365834)
(-0.00828878 -0.0657481 1.27044)
(0.110769 -0.118219 1.29788)
(-0.0563202 -0.251156 1.58714)
(-0.347509 -0.66167 1.41131)
(0.139845 -0.360802 0.574311)
(0.0894447 -0.145116 0.413368)
(0.112076 -0.0767925 2.04653)
(0.482552 -0.0418454 2.09249)
(0.355468 -0.111995 2.28792)
(-0.160535 -0.483219 1.84544)
(0.105049 -0.233331 0.590702)
(0.178556 -0.0141495 2.89585)
(0.270933 -0.0675402 2.8732)
(0.264521 -0.118203 2.67589)
(0.19875 0.003564 0.648588)
(0.00371944 -0.0105383 0.472547)
(-0.259092 -0.0286403 1.15416)
(-0.0960577 -0.145949 0.915781)
(0.185352 0.146514 0.743088)
(-0.0471505 0.0927672 1.39108)
(-0.408364 -0.363636 1.44848)
(-0.158789 -0.387882 0.525958)
(-0.0795601 -0.0656547 0.346974)
(0.0624208 0.0183667 0.459168)
(-0.0191721 -0.09301 0.94574)
(0.162416 -0.199957 1.27394)
(-0.194574 -0.303585 1.76022)
(-0.341027 -0.611998 1.19189)
(0.159532 -0.213297 0.574699)
(0.0832544 -0.09407 0.508895)
(0.13837 0.0746779 1.72178)
(0.116269 -0.0999886 2.04741)
(-0.0107943 -0.15266 2.27814)
(0.0498712 -0.466168 1.42841)
(0.0540826 -0.106341 0.648943)
(0.338383 0.105856 2.84671)
(0.300656 -0.0415904 2.82632)
(0.161076 -0.187196 2.70892)
(0.319932 0.0016545 0.659802)
(9.31629e-05 -0.0313819 0.532687)
(-0.132687 -0.115756 1.28097)