/*--------------------------------*- C++ -*----------------------------------*\
| =========                 |                                                 |
| \\      /  F ield         | OpenFOAM: The Open Source CFD Toolbox           |
|  \\    /   O peration     | Version:  5.x                                   |
|   \\  /    A nd           | Web:      www.OpenFOAM.org                      |
|    \\/     M anipulation  |                                                 |
\*---------------------------------------------------------------------------*/
FoamFile
{
    version     2.0;
    format      ascii;
    class       volVectorField;
    location    "1";
    object      Us;
}
// * * * * * * * * * * * * * * * * * * * * * * * * * * * * * * * * * * * * * //

dimensions      [0 1 -1 0 0 0 0];

internalField   nonuniform List<vector> 
10571
(
(-0.0823282 0.0102822 -0.0877295)
(0.0102665 0.0489172 -0.115816)
(0.115542 0.0252627 -0.0207646)
(-0.0465738 0.117194 -0.0214552)
(-0.009076 0.0518442 -0.0306813)
(0.00965983 0.189327 -0.043619)
(0.115603 0.242448 0.0604603)
(-0.0435983 0.118935 0.0435732)
(0.042894 -0.0341077 0.0191024)
(0.058693 0.0105878 0.0238335)
(0.0298397 0.170688 -0.0751915)
(-0.0680806 0.265977 0.150232)
(-0.179748 0.231871 0.0604971)
(-0.0977695 0.168852 0.0497902)
(0.0571281 0.158339 0.0788554)
(0.0650363 0.0958793 0.0794133)
(-0.0498815 0.0911556 0.0891682)
(-0.257843 0.250654 0.0727145)
(-0.108941 0.262938 0.109697)
(0.0297164 0.245794 0.0879849)
(0.048919 0.091703 0.0990764)
(-0.0449969 0.0910701 0.0451098)
(-0.104103 0.214466 0.150767)
(-0.0527588 0.112041 0.128086)
(0.0305496 0.0201058 -0.12506)
(-0.0329797 0.0499321 -0.138497)
(-0.0140522 0.19051 -0.0522622)
(-0.0646939 0.119203 0.0811475)
(0.0475819 0.0264303 -0.0397892)
(-0.00674379 0.0768253 -0.12322)
(0.021912 0.207045 0.191033)
(-0.00207859 0.155257 0.188494)
(0.0701977 0.16651 0.171704)
(0.0601396 0.140246 0.18538)
(0.0150233 0.190865 -0.0242927)
(-0.0102517 0.316395 0.184101)
(-0.0531633 0.270577 0.278126)
(0.00233541 0.229472 0.239052)
(0.0202015 0.217358 0.243295)
(0.0406012 0.138919 0.272828)
(-0.00828006 0.146418 0.256313)
(-0.0362811 0.218363 0.338425)
(-0.0148787 0.205791 0.372564)
(-0.0125817 0.203557 0.359142)
(-0.0222246 0.0806869 0.327462)
(-0.0070815 0.0573466 0.223035)
(-0.032759 0.102037 0.413372)
(-0.0690547 0.0689505 0.297297)
(0.014667 0.00863484 -0.138849)
(-0.0470778 0.0603232 -0.165924)
(-0.0311441 0.110592 -0.152125)
(-0.0441346 0.0999339 0.0530639)
(0.0873508 0.0968144 -0.0911159)
(-0.00517038 0.135974 -0.165873)
(0.0587791 0.26516 0.117731)
(0.0534392 0.256935 0.166526)
(0.0267005 0.215832 0.137104)
(0.0352581 0.170302 0.221449)
(0.0184986 0.148848 -0.0456336)
(0.0145097 0.277229 0.124321)
(0.0675132 0.318662 0.275786)
(0.0534707 0.320248 0.249551)
(-0.0100076 0.270054 0.256667)
(-0.0193028 0.208016 0.321595)
(0.028783 0.171782 0.442389)
(0.10607 0.171028 0.438197)
(0.0359053 0.153971 0.404362)
(-0.00940055 0.222644 0.432744)
(-0.0371653 0.135593 0.412727)
(0.0897623 0.0489444 0.337071)
(0.119259 -0.0256298 0.478704)
(-0.15749 0.164809 0.272224)
(0.0295914 0.0161911 -0.225943)
(-0.0376331 0.0558926 -0.215682)
(-0.0253671 0.0844061 -0.220592)
(0.0894497 0.0848119 -0.162644)
(0.0908255 0.0924972 -0.153881)
(0.00818467 0.133741 -0.214779)
(0.0366654 0.268627 -0.036614)
(0.112683 0.275351 -0.00862579)
(0.0200697 0.161409 0.000406122)
(0.0314417 0.101069 0.124576)
(0.00883429 -0.0401474 -0.230429)
(-0.0694035 0.10476 0.173652)
(0.0608118 0.276077 0.167568)
(0.110507 0.379479 0.0238437)
(-0.0601972 0.0823019 -0.291772)
(-0.0799956 0.0442808 -0.0543269)
(-0.0244458 0.202897 0.431315)
(0.158366 0.175513 0.496002)
(0.0817833 -0.0131887 -0.0657517)
(-0.057069 0.0119915 -0.643319)
(-0.0889288 0.104196 -0.404449)
(0.151041 0.0875482 0.394673)
(0.18186 -0.0359843 0.139969)
(-0.0505441 0.0879479 -0.633439)
(0.0213595 0.019994 -0.398978)
(-0.00616285 0.0244838 -0.274469)
(-0.00899817 0.0830872 -0.28997)
(0.0566818 0.0730737 -0.322728)
(-0.0529843 0.121211 -0.580794)
(0.0312909 0.0370428 -0.265965)
(0.0168053 0.0799139 -0.203853)
(0.098582 0.167638 -0.179637)
(-0.0737662 -0.0432428 -0.44555)
(-0.0834976 0.0243879 -0.358195)
(-0.0296273 -0.15057 -0.148351)
(0.00808264 -0.0455176 -0.128655)
(-0.0163225 -0.0387128 -0.139804)
(-0.0504133 -0.00546417 -0.411287)
(-0.0910159 -0.0327909 -0.49921)
(-0.107557 -0.0397768 -0.337803)
(-0.0334964 -0.0547845 0.146654)
(-0.0237987 -0.0472634 0.00477246)
(-0.0556956 0.0104689 -0.38331)
(-0.122788 0.0730578 -0.66365)
(0.00727082 0.0871954 -0.677465)
(0.164941 0.0819036 0.438314)
(-0.127372 0.0712747 -0.41905)
(-0.0380687 -0.0104715 -0.655095)
(-0.0437927 0.00391828 -0.56056)
(0.0608724 -0.0904981 -0.399887)
(0.0638524 0.00872276 -0.466457)
(-0.0302775 0.0811416 -0.564562)
(0.0848807 0.0458142 -0.655726)
(0.0435784 -0.0932806 -0.388276)
(-0.0065033 -0.132664 -0.355956)
(0.0603322 -0.0377806 -0.376665)
(0.109116 0.0665432 -0.544694)
(-0.0689358 0.0399608 -0.205027)
(-0.0155267 0.00755924 -0.00581563)
(0.0098341 -0.159968 -0.08648)
(-0.060037 -0.0622127 -0.217615)
(0.00188276 -0.0436981 -0.156178)
(0.0220468 0.0216697 -0.384217)
(-0.077824 0.0679214 -0.648907)
(-0.124022 -0.035865 -0.237333)
(-0.0150605 -0.00613728 -0.00508897)
(-0.0486205 -0.000560422 0.0545865)
(-0.0763939 -0.0603698 -0.184445)
(-0.0388123 -0.024362 -0.272864)
(0.164385 -0.201331 -0.267269)
(-0.0666296 0.0727673 -0.46889)
(-0.177964 -0.0850814 -0.308373)
(-0.0919442 0.000654576 -0.279736)
(0.0193302 0.101934 -0.531317)
(-0.0167278 -0.00570112 -0.501205)
(0.0974217 -0.0419572 -0.426545)
(0.0924557 -0.0294191 -0.415369)
(-0.0306088 0.0415704 -0.490695)
(0 0 0)
(-0.00756748 -0.170507 -0.319124)
(-0.0075344 -0.218289 -0.260876)
(0.0742436 -0.163233 -0.288529)
(0.021065 0.0829138 -0.716588)
(0 0 0)
(0 0 0)
(-0.0497087 -0.094595 -0.127837)
(-0.0704897 -0.0550169 -0.103443)
(0.0311923 -0.133328 -0.00515532)
(0.0663224 -0.0468925 -0.244268)
(-0.0115368 0.036026 -0.61817)
(0.0930371 0.0725455 -0.787977)
(1.28811e-17 4.06541e-18 1.69124e-17)
(0.0263578 -0.0382786 0.124095)
(0.0262496 -0.0565165 0.0818927)
(-0.0619853 0.00055084 -0.359889)
(-0.0903192 0.111024 -0.675114)
(-0.044047 0.0620616 -0.659825)
(-0.0230917 -0.0111672 -0.0213313)
(-0.0822017 -0.00720788 -0.0369625)
(-0.189935 0.0541027 -0.638365)
(-0.16074 -0.0377601 -0.479652)
(0 0 0)
(0.0775147 -0.0446307 -0.360723)
(0.170741 0.0239796 -0.374486)
(3.38015e-17 -4.01662e-17 4.04282e-16)
(0.0365533 0.0685231 -0.703646)
(0.000186843 -0.160005 -0.26324)
(0.015377 -0.174572 -0.21233)
(0.00348518 0.107047 -0.530844)
(0.0418794 0.0595236 -0.693494)
(-0.0320237 0.109018 -0.448029)
(0 0 0)
(-0.0290141 -0.141651 -0.229868)
(-0.00581931 -0.0442465 -0.176392)
(0.0595674 -0.11803 0.100593)
(0.0674156 -0.137745 -0.0731753)
(-0.066621 0.0438391 -0.604658)
(-0.0628791 0.0826876 -0.674676)
(0 0 0)
(0.00467375 -0.0675237 0.178405)
(0.00330208 -0.0280145 0.0773446)
(-0.138557 0.0828421 -0.626233)
(-0.0921533 0.118285 -0.657841)
(0 0 0)
(0 0 0)
(-0.118665 -0.189833 -0.16376)
(-0.201296 0.066259 -0.603819)
(-8.36555e-17 -3.06641e-17 3.81512e-16)
(0 0 0)
(0.14762 -0.0857296 -0.359692)
(0 0 0)
(0 0 0)
(0 0 0)
(-0.0176488 -0.169122 -0.205729)
(-0.0440932 -0.245643 -0.118444)
(0.0542629 -0.0222261 -0.348873)
(0.0531598 0.0619214 -0.674193)
(0 0 0)
(0 0 0)
(0.0124789 -0.0989033 -0.162059)
(0.028183 -0.0937456 -0.0920475)
(-0.00971981 -0.13252 0.0239681)
(0.100257 -0.102354 -0.122175)
(-0.0488907 0.0669631 -0.569799)
(-0.0724222 0.0726631 -0.601944)
(0 0 0)
(-0.0217504 -0.0784065 0.220529)
(-0.0394057 -0.0916374 0.0525705)
(-0.05045 -0.0486203 -0.321518)
(-0.103433 0.130576 -0.640614)
(-0.0128619 0.124229 -0.650116)
(-0.202423 0.0184509 -0.197448)
(-0.0792547 -0.0498612 -0.369733)
(0 0 0)
(0 0 0)
(0.0900675 -0.0234187 -0.234979)
(0 0 0)
(0 0 0)
(0 0 0)
(-0.0363823 -0.258072 -0.114979)
(-0.0316607 -0.230495 -0.0591288)
(0.0567476 -0.348539 -0.0710417)
(0.0246968 0.0508291 -0.662571)
(0 0 0)
(0.0675779 -0.157132 -0.016786)
(0.022299 -0.00614147 -0.127523)
(-0.0193535 -0.103702 0.0556571)
(0.0607273 -0.198819 -0.0190063)
(-0.0950094 0.100353 -0.643876)
(-0.0156171 0.0775708 -0.656167)
(0.0302909 -0.0808635 0.170249)
(-0.00223015 -0.0771961 0.164636)
(-0.0570086 -0.101286 -0.269322)
(-0.0654934 0.143147 -0.634637)
(0 0 0)
(-0.118597 -0.039322 -0.0263391)
(-0.141999 0.0181789 -0.427034)
(-0.124867 0.0743042 -0.655837)
(0 0 0)
(0.0172342 -0.118187 -0.147048)
(0 0 0)
(-0.00158882 0.0120587 -0.656781)
(0 0 0)
(0.0855183 -0.0646216 -0.158466)
(-0.0424349 -0.228626 0.00601551)
(0 0 0)
(0.0399143 0.0699036 -0.640175)
(0 0 0)
(-0.03851 -0.156596 -0.0331193)
(-0.00321992 -0.170626 0.0930141)
(-0.00505941 -0.146123 0.0383866)
(0.0394574 -0.284499 -0.129095)
(-0.0410878 0.034462 -0.545205)
(-0.0869332 0.0754512 -0.612589)
(-0.000385054 -0.0505974 0.199433)
(-0.102727 -0.16746 -0.0468831)
(-0.152032 0.137842 -0.685118)
(-0.106961 0.0896034 -0.708417)
(0 0 0)
(-0.160105 -0.0569128 -0.114702)
(0.014525 -0.107162 -0.327487)
(0 0 0)
(0 0 0)
(0.239308 -0.387833 -0.736073)
(0 0 0)
(0 0 0)
(0 0 0)
(-0.108126 -0.262053 0.0149529)
(-0.0574513 -0.275872 0.0649172)
(0.00166565 -0.320941 0.0930719)
(0.0533739 0.05442 -0.612206)
(0.0451108 0.0656677 -0.593148)
(0.0451737 -0.298717 0.0129655)
(-0.0396823 -0.169341 0.164505)
(-0.0481321 -0.201252 0.142755)
(0.00950733 -0.229361 0.0809888)
(-0.0120137 -0.021697 -0.463888)
(0.0937571 0.111006 -0.667136)
(0.0107731 -0.035495 0.16386)
(-0.105791 -0.14855 0.160305)
(0.0484453 -0.108204 0.155819)
(-0.112247 0.10633 -0.676534)
(0 0 0)
(-0.112689 -0.0214418 -0.118785)
(-0.233186 -0.0826448 -0.443839)
(-0.242438 -0.0591304 -0.51655)
(0 0 0)
(0 0 0)
(0 0 0)
(0 0 0)
(0 0 0)
(0 0 0)
(-0.0144099 -0.330988 0.137049)
(-0.0586963 0.125076 -0.161241)
(0.0368922 0.0434347 -0.584508)
(0 0 0)
(-0.0913177 -0.200855 0.142625)
(0 0 0)
(-0.0545249 -0.193613 0.165499)
(0.0248024 -0.244172 0.188534)
(-0.0529368 0.128963 -0.629166)
(-0.0893161 0.120431 -0.568761)
(-0.0942348 -0.109707 0.257238)
(-0.087021 -0.147639 0.106421)
(0.073842 -0.161424 0.106534)
(0 0 0)
(-0.0346574 0.130119 -0.724003)
(-0.0577437 -0.0480567 0.365621)
(-0.182484 0.0759645 -0.545908)
(0 0 0)
(4.99041e-17 -4.49729e-18 1.723e-16)
(0 0 0)
(0 0 0)
(0 0 0)
(0.0351291 0.015409 -0.54842)
(0 0 0)
(-0.0721085 -0.328733 0.22402)
(0 0 0)
(0 0 0)
(0.0301731 0.0848305 -0.553534)
(0.00319285 -0.190342 0.125844)
(0 0 0)
(-0.0570838 -0.199434 0.242048)
(0.0884118 -0.313662 0.150621)
(-0.0940012 0.123328 -0.643684)
(-0.0630104 0.110943 -0.576143)
(-0.141937 -0.20526 -0.0408057)
(-0.0326569 -0.213715 0.185262)
(0.0566675 -0.203641 0.0910636)
(0 0 0)
(-0.0793758 0.1498 -0.620476)
(0.0195346 -0.0977447 0.164757)
(-0.0777501 -0.118098 -0.190226)
(-0.193592 0.16895 -0.581192)
(0 0 0)
(0 0 0)
(0 0 0)
(0 0 0)
(0.0395829 0.0362965 -0.509947)
(0 0 0)
(-0.0170685 -0.340734 0.270017)
(0.0795799 -0.492126 0.300499)
(0.0642266 0.0740737 -0.528832)
(0.087343 0.0786913 -0.522792)
(0.00127169 -0.168696 0.199029)
(-0.138716 -0.216437 0.27932)
(-0.0533854 -0.183256 0.32859)
(0.0499996 -0.236758 0.246672)
(0.186421 -0.450713 -0.0208916)
(-0.048198 0.099917 -0.533625)
(-0.0956745 -0.165788 0.136246)
(-0.104041 -0.115948 0.273733)
(-0.145544 -0.321537 0.0442128)
(-0.0857145 0.187583 -0.656899)
(-0.0845564 0.144044 -0.649491)
(-0.100455 -0.0507626 0.281407)
(-0.141671 -0.107754 -0.191676)
(0 0 0)
(0 0 0)
(0 0 0)
(0 0 0)
(0 0 0)
(0 0 0)
(0 0 0)
(-0.0669703 -0.406668 0.301266)
(0 0 0)
(0 0 0)
(0.0232542 0.101547 -0.521777)
(-0.0552309 -0.212519 0.27542)
(0 0 0)
(-0.0743851 -0.181986 0.396924)
(0.128417 -0.263948 0.390533)
(0 0 0)
(-0.0318347 0.138029 -0.588411)
(-0.130515 -0.277964 0.141556)
(-0.134717 -0.154068 0.272786)
(0.0655152 -0.206471 0.393435)
(7.72455e-17 -1.47785e-16 5.91665e-16)
(-0.0884114 0.15713 -0.543652)
(-0.0605562 -0.206552 0.0642898)
(-0.190976 0.00205543 -0.283683)
(0.153006 -0.0187445 0.403397)
(0 0 0)
(0 0 0)
(0 0 0)
(0 0 0)
(0 0 0)
(-0.02709 -0.384499 0.394379)
(0 0 0)
(0 0 0)
(0 0 0)
(-1.4387e-17 -8.45741e-17 4.68231e-16)
(-0.0113412 -0.37063 -0.216173)
(0 0 0)
(-0.0196149 -0.223907 0.456857)
(0 0 0)
(0 0 0)
(-0.0627521 0.111604 -0.509451)
(-0.0228459 -0.318182 0.145231)
(-0.0470504 -0.131163 0.371003)
(0.102997 -0.128892 0.414855)
(0 0 0)
(-0.0433198 0.188902 -0.589574)
(-0.110928 -0.0598002 -0.109565)
(0.221481 0.0175048 0.232578)
(-0.196354 0.158596 -0.518489)
(0 0 0)
(0 0 0)
(0 0 0)
(0 0 0)
(0 0 0)
(0 0 0)
(-0.0876016 -0.428848 0.497946)
(0 0 0)
(0 0 0)
(0 0 0)
(0.0552634 -0.308694 -0.0290388)
(-0.130073 -0.161518 0.507014)
(-0.0356966 -0.225783 0.517084)
(0.0576888 -0.217743 0.523716)
(0 0 0)
(-0.0484569 0.141894 -0.545312)
(-0.157472 -0.193878 0.328669)
(-0.0420437 -0.110219 0.570234)
(0.06259 -0.131846 0.50245)
(0 0 0)
(-0.0786725 0.161334 -0.533871)
(-0.226707 -0.0607913 -0.168273)
(-0.189941 0.0730667 -0.413832)
(-0.239564 0.0975425 -0.478234)
(0 0 0)
(0 0 0)
(0 0 0)
(0 0 0)
(0 0 0)
(0 0 0)
(0 0 0)
(0 0 0)
(0 0 0)
(0 0 0)
(-0.0863706 -0.238281 0.256544)
(0.0167986 -0.296718 0.509096)
(-0.0430344 -0.215417 0.58923)
(0 0 0)
(0 0 0)
(0 0 0)
(-0.124469 -0.204354 0.459436)
(-0.0255283 -0.119625 0.434076)
(0.106314 -0.0917274 0.548264)
(0 0 0)
(-0.0499874 0.115304 -0.516905)
(-0.110057 -0.088089 0.201166)
(0 0 0)
(-0.0966293 0.0737484 -0.205317)
(0 0 0)
(0 0 0)
(0 0 0)
(0 0 0)
(0 0 0)
(0 0 0)
(0 0 0)
(0 0 0)
(0 0 0)
(0 0 0)
(0.0628628 -0.398055 -0.00153074)
(0 0 0)
(-0.040982 -0.230826 0.748204)
(0.0453845 -0.228712 0.591737)
(0 0 0)
(0.0110769 0.135987 -0.542544)
(-0.0189151 -0.131836 0.0623753)
(-0.026274 -0.105932 0.601972)
(-0.091459 -0.0442946 0.148413)
(0 0 0)
(-0.0948982 0.139044 -0.504331)
(0 0 0)
(0 0 0)
(-0.203439 0.109988 -0.456987)
(0 0 0)
(0 0 0)
(0 0 0)
(0 0 0)
(0 0 0)
(0 0 0)
(0 0 0)
(0 0 0)
(0 0 0)
(0 0 0)
(-0.0916942 -0.363915 -0.245498)
(0 0 0)
(-0.0106677 -0.206397 0.716265)
(0 0 0)
(0 0 0)
(0 0 0)
(0 0 0)
(-0.0090633 -0.0913685 0.709406)
(-0.188772 -0.0400874 -0.477802)
(0 0 0)
(0 0 0)
(-0.145577 -0.058412 0.0630301)
(-0.201471 0.0221373 -0.248319)
(-0.176175 0.0762575 -0.472569)
(0 0 0)
(0 0 0)
(0 0 0)
(0 0 0)
(0 0 0)
(0 0 0)
(0 0 0)
(0 0 0)
(0 0 0)
(0 0 0)
(-0.0293279 -0.359177 -0.164313)
(0 0 0)
(0 0 0)
(0 0 0)
(0 0 0)
(0 0 0)
(-0.177773 -0.275216 -0.247441)
(0.102342 0.0147496 0.359297)
(0 0 0)
(0 0 0)
(0 0 0)
(-0.212598 -0.0640481 -0.10071)
(-0.208369 0.124237 -0.340559)
(-0.169164 0.14968 -0.509852)
(0 0 0)
(0 0 0)
(0 0 0)
(0 0 0)
(0 0 0)
(0 0 0)
(-0.0292208 -0.389581 0.905856)
(0 0 0)
(0 0 0)
(0 0 0)
(-0.0795219 -0.353823 -0.247274)
(0 0 0)
(0 0 0)
(0 0 0)
(0 0 0)
(0 0 0)
(-0.16136 -0.125733 0.410258)
(-0.0363738 -0.0744763 0.55083)
(0 0 0)
(0 0 0)
(0 0 0)
(-0.235806 -0.0649134 -0.179176)
(0 0 0)
(1.83418e-16 -1.20549e-16 3.53314e-16)
(0 0 0)
(0 0 0)
(0 0 0)
(0 0 0)
(0 0 0)
(0 0 0)
(0 0 0)
(0 0 0)
(0 0 0)
(0 0 0)
(0 0 0)
(0 0 0)
(0 0 0)
(0 0 0)
(0 0 0)
(0 0 0)
(-0.106774 -0.0796011 1.01778)
(-0.158552 -0.0541767 0.108256)
(0 0 0)
(0 0 0)
(0 0 0)
(-0.185609 -0.0189267 0.239444)
(-0.182737 0.0245716 -0.175808)
(0 0 0)
(0 0 0)
(0 0 0)
(0 0 0)
(0 0 0)
(0 0 0)
(0 0 0)
(0 0 0)
(0 0 0)
(0 0 0)
(0 0 0)
(0 0 0)
(0 0 0)
(0 0 0)
(0 0 0)
(0 0 0)
(0 0 0)
(-0.152924 -0.141917 0.516142)
(0.00448605 -0.0570347 0.994522)
(0 0 0)
(0 0 0)
(0 0 0)
(-0.271336 -0.0718538 -0.108463)
(0 0 0)
(-0.214053 0.102177 -0.335725)
(0 0 0)
(0 0 0)
(0 0 0)
(0 0 0)
(0 0 0)
(0 0 0)
(0 0 0)
(0 0 0)
(0 0 0)
(0 0 0)
(0 0 0)
(0 0 0)
(0 0 0)
(0 0 0)
(0 0 0)
(0 0 0)
(0 0 0)
(0 0 0)
(0 0 0)
(0 0 0)
(0 0 0)
(-0.213056 -0.0102977 -0.0640797)
(0 0 0)
(0 0 0)
(0 0 0)
(0 0 0)
(0 0 0)
(0 0 0)
(0 0 0)
(0 0 0)
(0 0 0)
(0 0 0)
(0 0 0)
(0 0 0)
(0 0 0)
(0 0 0)
(0 0 0)
(0 0 0)
(0 0 0)
(0 0 0)
(0 0 0)
(-0.178944 -0.0233775 -0.0745785)
(0 0 0)
(0 0 0)
(0 0 0)
(2.13545e-16 7.83045e-17 2.16303e-17)
(0 0 0)
(0 0 0)
(0 0 0)
(0 0 0)
(0 0 0)
(0 0 0)
(0 0 0)
(0 0 0)
(0 0 0)
(0 0 0)
(0 0 0)
(0 0 0)
(0 0 0)
(0 0 0)
(0 0 0)
(0 0 0)
(0 0 0)
(0 0 0)
(0 0 0)
(0 0 0)
(0 0 0)
(0 0 0)
(0 0 0)
(-0.203785 -0.131643 0.0270297)
(0 0 0)
(0 0 0)
(0 0 0)
(0 0 0)
(0 0 0)
(0 0 0)
(0 0 0)
(0 0 0)
(0 0 0)
(0 0 0)
(0 0 0)
(0 0 0)
(0 0 0)
(0 0 0)
(0 0 0)
(0 0 0)
(0 0 0)
(0 0 0)
(0 0 0)
(0 0 0)
(0 0 0)
(0 0 0)
(0 0 0)
(-0.225464 -0.0687679 0.0141697)
(0 0 0)
(0 0 0)
(0 0 0)
(0 0 0)
(0 0 0)
(0 0 0)
(0 0 0)
(0 0 0)
(0 0 0)
(0 0 0)
(0 0 0)
(0 0 0)
(0 0 0)
(0 0 0)
(0 0 0)
(0 0 0)
(0 0 0)
(0 0 0)
(0 0 0)
(0 0 0)
(0 0 0)
(0 0 0)
(0 0 0)
(0 0 0)
(0 0 0)
(0 0 0)
(0 0 0)
(0 0 0)
(0 0 0)
(0 0 0)
(0 0 0)
(0 0 0)
(0 0 0)
(0 0 0)
(0 0 0)
(0 0 0)
(0 0 0)
(0 0 0)
(0 0 0)
(0 0 0)
(0 0 0)
(0 0 0)
(0 0 0)
(0 0 0)
(0 0 0)
(0 0 0)
(0 0 0)
(0 0 0)
(0 0 0)
(0 0 0)
(0 0 0)
(0 0 0)
(0 0 0)
(0 0 0)
(0 0 0)
(0 0 0)
(0 0 0)
(0 0 0)
(0 0 0)
(0 0 0)
(0 0 0)
(0 0 0)
(0 0 0)
(0 0 0)
(0 0 0)
(0 0 0)
(0 0 0)
(0 0 0)
(0 0 0)
(0 0 0)
(0 0 0)
(0 0 0)
(0 0 0)
(0 0 0)
(0 0 0)
(0 0 0)
(0 0 0)
(0 0 0)
(0 0 0)
(0 0 0)
(0 0 0)
(0 0 0)
(0 0 0)
(0 0 0)
(0 0 0)
(0 0 0)
(0 0 0)
(0 0 0)
(0 0 0)
(0 0 0)
(0 0 0)
(0 0 0)
(0 0 0)
(0 0 0)
(0 0 0)
(0 0 0)
(0 0 0)
(0 0 0)
(0 0 0)
(0 0 0)
(0 0 0)
(0 0 0)
(0 0 0)
(0 0 0)
(0 0 0)
(0 0 0)
(0 0 0)
(0 0 0)
(0 0 0)
(0 0 0)
(0 0 0)
(0 0 0)
(0 0 0)
(0 0 0)
(0 0 0)
(0 0 0)
(0 0 0)
(0 0 0)
(0 0 0)
(0 0 0)
(0 0 0)
(0 0 0)
(0 0 0)
(0 0 0)
(0 0 0)
(0 0 0)
(0 0 0)
(0 0 0)
(0 0 0)
(0 0 0)
(0 0 0)
(0 0 0)
(0 0 0)
(0 0 0)
(0 0 0)
(0 0 0)
(0 0 0)
(0 0 0)
(0 0 0)
(0 0 0)
(0 0 0)
(0 0 0)
(0 0 0)
(0 0 0)
(0 0 0)
(0 0 0)
(0 0 0)
(0 0 0)
(0 0 0)
(0 0 0)
(0 0 0)
(0 0 0)
(0 0 0)
(0 0 0)
(0 0 0)
(0 0 0)
(0 0 0)
(0 0 0)
(0 0 0)
(0 0 0)
(0 0 0)
(0 0 0)
(0 0 0)
(0 0 0)
(0 0 0)
(0 0 0)
(0 0 0)
(0 0 0)
(0 0 0)
(0 0 0)
(0 0 0)
(0 0 0)
(0 0 0)
(0 0 0)
(0 0 0)
(0 0 0)
(0 0 0)
(0 0 0)
(0 0 0)
(0 0 0)
(0 0 0)
(0 0 0)
(0 0 0)
(0 0 0)
(0 0 0)
(0 0 0)
(0 0 0)
(0 0 0)
(0 0 0)
(0 0 0)
(0 0 0)
(0 0 0)
(0 0 0)
(0 0 0)
(0 0 0)
(0 0 0)
(0 0 0)
(0 0 0)
(0 0 0)
(0 0 0)
(0 0 0)
(0 0 0)
(0 0 0)
(0 0 0)
(0 0 0)
(0 0 0)
(0 0 0)
(0 0 0)
(0 0 0)
(0 0 0)
(0 0 0)
(0 0 0)
(0 0 0)
(0 0 0)
(0 0 0)
(0 0 0)
(0 0 0)
(0 0 0)
(0 0 0)
(0 0 0)
(0 0 0)
(0 0 0)
(0 0 0)
(0 0 0)
(0 0 0)
(0 0 0)
(0 0 0)
(0 0 0)
(0 0 0)
(0 0 0)
(0 0 0)
(0 0 0)
(0 0 0)
(0 0 0)
(0 0 0)
(0 0 0)
(0 0 0)
(0 0 0)
(0 0 0)
(0 0 0)
(0 0 0)
(0 0 0)
(0 0 0)
(0 0 0)
(0 0 0)
(0 0 0)
(0 0 0)
(0 0 0)
(0 0 0)
(0 0 0)
(0 0 0)
(0 0 0)
(0 0 0)
(0 0 0)
(0 0 0)
(0 0 0)
(0 0 0)
(0 0 0)
(0 0 0)
(0 0 0)
(0 0 0)
(0 0 0)
(0 0 0)
(0 0 0)
(0 0 0)
(0 0 0)
(0 0 0)
(0 0 0)
(0 0 0)
(0 0 0)
(0 0 0)
(0 0 0)
(0 0 0)
(0 0 0)
(0 0 0)
(0 0 0)
(0 0 0)
(0 0 0)
(0 0 0)
(0 0 0)
(0 0 0)
(0 0 0)
(0 0 0)
(0 0 0)
(0 0 0)
(0 0 0)
(0 0 0)
(0 0 0)
(0 0 0)
(0 0 0)
(0 0 0)
(0 0 0)
(0 0 0)
(0 0 0)
(0 0 0)
(0 0 0)
(0 0 0)
(0 0 0)
(0 0 0)
(0 0 0)
(0 0 0)
(0 0 0)
(0 0 0)
(0 0 0)
(0 0 0)
(0 0 0)
(0 0 0)
(0 0 0)
(0 0 0)
(0 0 0)
(0 0 0)
(0 0 0)
(0 0 0)
(0 0 0)
(0 0 0)
(0 0 0)
(0 0 0)
(0 0 0)
(0 0 0)
(0 0 0)
(0 0 0)
(0 0 0)
(0 0 0)
(0 0 0)
(0 0 0)
(0 0 0)
(0 0 0)
(0 0 0)
(0 0 0)
(0 0 0)
(0 0 0)
(0 0 0)
(0 0 0)
(0 0 0)
(0 0 0)
(0 0 0)
(0 0 0)
(0 0 0)
(0 0 0)
(0 0 0)
(0 0 0)
(0 0 0)
(0 0 0)
(0 0 0)
(0 0 0)
(0 0 0)
(0 0 0)
(0 0 0)
(0 0 0)
(0 0 0)
(0 0 0)
(0 0 0)
(0 0 0)
(0 0 0)
(0 0 0)
(0 0 0)
(0 0 0)
(0 0 0)
(0 0 0)
(0 0 0)
(0 0 0)
(0 0 0)
(0 0 0)
(0 0 0)
(0 0 0)
(0 0 0)
(0 0 0)
(0 0 0)
(0 0 0)
(0 0 0)
(0 0 0)
(0 0 0)
(0 0 0)
(0 0 0)
(0 0 0)
(0 0 0)
(0 0 0)
(0 0 0)
(0 0 0)
(0 0 0)
(0 0 0)
(0 0 0)
(0 0 0)
(0 0 0)
(0 0 0)
(0 0 0)
(0 0 0)
(0 0 0)
(0 0 0)
(0 0 0)
(0 0 0)
(0 0 0)
(0 0 0)
(0 0 0)
(0 0 0)
(0 0 0)
(0 0 0)
(0 0 0)
(0 0 0)
(0 0 0)
(0 0 0)
(0 0 0)
(0 0 0)
(0 0 0)
(0 0 0)
(0 0 0)
(0 0 0)
(0 0 0)
(0 0 0)
(0 0 0)
(0 0 0)
(0 0 0)
(0 0 0)
(0 0 0)
(0 0 0)
(0 0 0)
(0 0 0)
(0 0 0)
(0 0 0)
(0 0 0)
(0 0 0)
(0 0 0)
(0 0 0)
(0 0 0)
(0 0 0)
(0 0 0)
(0 0 0)
(0 0 0)
(0 0 0)
(0 0 0)
(0 0 0)
(0 0 0)
(0 0 0)
(0 0 0)
(0 0 0)
(0 0 0)
(0 0 0)
(0 0 0)
(0 0 0)
(0 0 0)
(0 0 0)
(0 0 0)
(0 0 0)
(0 0 0)
(0 0 0)
(0 0 0)
(0 0 0)
(0 0 0)
(0 0 0)
(0 0 0)
(0 0 0)
(0 0 0)
(0 0 0)
(0 0 0)
(0 0 0)
(0 0 0)
(0 0 0)
(0 0 0)
(0 0 0)
(0 0 0)
(0 0 0)
(0 0 0)
(0 0 0)
(0 0 0)
(0 0 0)
(0 0 0)
(0 0 0)
(0 0 0)
(0 0 0)
(0 0 0)
(0 0 0)
(0 0 0)
(0 0 0)
(0 0 0)
(0 0 0)
(0 0 0)
(0 0 0)
(0 0 0)
(0 0 0)
(0 0 0)
(0 0 0)
(0 0 0)
(0 0 0)
(0 0 0)
(0 0 0)
(0 0 0)
(0 0 0)
(0 0 0)
(0 0 0)
(0 0 0)
(0 0 0)
(0 0 0)
(0 0 0)
(0 0 0)
(0 0 0)
(0 0 0)
(0 0 0)
(0 0 0)
(0 0 0)
(0 0 0)
(0 0 0)
(0 0 0)
(0 0 0)
(0 0 0)
(0 0 0)
(0 0 0)
(0 0 0)
(0 0 0)
(0 0 0)
(0 0 0)
(0 0 0)
(0 0 0)
(0 0 0)
(0 0 0)
(0 0 0)
(0 0 0)
(0 0 0)
(0 0 0)
(0 0 0)
(0 0 0)
(0 0 0)
(0 0 0)
(0 0 0)
(0 0 0)
(0 0 0)
(0 0 0)
(0 0 0)
(0 0 0)
(0 0 0)
(0 0 0)
(0 0 0)
(0 0 0)
(0 0 0)
(0 0 0)
(0 0 0)
(0 0 0)
(0 0 0)
(0 0 0)
(0 0 0)
(0 0 0)
(0 0 0)
(0 0 0)
(0 0 0)
(0 0 0)
(0 0 0)
(0 0 0)
(0 0 0)
(0 0 0)
(0 0 0)
(0 0 0)
(0 0 0)
(0 0 0)
(0 0 0)
(0 0 0)
(0 0 0)
(0 0 0)
(0 0 0)
(0 0 0)
(0 0 0)
(0 0 0)
(0 0 0)
(0 0 0)
(0 0 0)
(0 0 0)
(0 0 0)
(0 0 0)
(0 0 0)
(0 0 0)
(0 0 0)
(0 0 0)
(0 0 0)
(0 0 0)
(0 0 0)
(0 0 0)
(0 0 0)
(0 0 0)
(0 0 0)
(0 0 0)
(0 0 0)
(0 0 0)
(0 0 0)
(0 0 0)
(0 0 0)
(0 0 0)
(0 0 0)
(0 0 0)
(0 0 0)
(0 0 0)
(0 0 0)
(0 0 0)
(0 0 0)
(0 0 0)
(0 0 0)
(0 0 0)
(0 0 0)
(0 0 0)
(0 0 0)
(0 0 0)
(0 0 0)
(0 0 0)
(0 0 0)
(0 0 0)
(0 0 0)
(0 0 0)
(0 0 0)
(0 0 0)
(0 0 0)
(0 0 0)
(0 0 0)
(0 0 0)
(0 0 0)
(0 0 0)
(0 0 0)
(0 0 0)
(0 0 0)
(0 0 0)
(0 0 0)
(0 0 0)
(0 0 0)
(0 0 0)
(0 0 0)
(0 0 0)
(0 0 0)
(0 0 0)
(0 0 0)
(0 0 0)
(0 0 0)
(0 0 0)
(0 0 0)
(0 0 0)
(0 0 0)
(0 0 0)
(0 0 0)
(0 0 0)
(0 0 0)
(0 0 0)
(0 0 0)
(0 0 0)
(0 0 0)
(0 0 0)
(0 0 0)
(0 0 0)
(0 0 0)
(0 0 0)
(0 0 0)
(0 0 0)
(0 0 0)
(0 0 0)
(0 0 0)
(0 0 0)
(0 0 0)
(0 0 0)
(0 0 0)
(0 0 0)
(0 0 0)
(0 0 0)
(0 0 0)
(0 0 0)
(0 0 0)
(0 0 0)
(0 0 0)
(0 0 0)
(0 0 0)
(0 0 0)
(0 0 0)
(0 0 0)
(0 0 0)
(0 0 0)
(0 0 0)
(0 0 0)
(0 0 0)
(0 0 0)
(0 0 0)
(0 0 0)
(0 0 0)
(0 0 0)
(0 0 0)
(0 0 0)
(0 0 0)
(0 0 0)
(0 0 0)
(0 0 0)
(0 0 0)
(0 0 0)
(0 0 0)
(0 0 0)
(0 0 0)
(0 0 0)
(0 0 0)
(0 0 0)
(0 0 0)
(0 0 0)
(0 0 0)
(0 0 0)
(0 0 0)
(0 0 0)
(0 0 0)
(0 0 0)
(0 0 0)
(0 0 0)
(0 0 0)
(0 0 0)
(0 0 0)
(0 0 0)
(0 0 0)
(0 0 0)
(0 0 0)
(0 0 0)
(0 0 0)
(0 0 0)
(0 0 0)
(0 0 0)
(0 0 0)
(0 0 0)
(0 0 0)
(0 0 0)
(0 0 0)
(0 0 0)
(0 0 0)
(0 0 0)
(0 0 0)
(0 0 0)
(0 0 0)
(0 0 0)
(0 0 0)
(0 0 0)
(0 0 0)
(0 0 0)
(0 0 0)
(0 0 0)
(0 0 0)
(0 0 0)
(0 0 0)
(0 0 0)
(0 0 0)
(0 0 0)
(0 0 0)
(0 0 0)
(0 0 0)
(0 0 0)
(0 0 0)
(0 0 0)
(0 0 0)
(0 0 0)
(0 0 0)
(0 0 0)
(0 0 0)
(0 0 0)
(0 0 0)
(0 0 0)
(0 0 0)
(0 0 0)
(0 0 0)
(0 0 0)
(0 0 0)
(0 0 0)
(0 0 0)
(0 0 0)
(0 0 0)
(0 0 0)
(0 0 0)
(0 0 0)
(0 0 0)
(0 0 0)
(0 0 0)
(0 0 0)
(0 0 0)
(0 0 0)
(0 0 0)
(0 0 0)
(0 0 0)
(0 0 0)
(0 0 0)
(0 0 0)
(0 0 0)
(0 0 0)
(0 0 0)
(0 0 0)
(0 0 0)
(0 0 0)
(0 0 0)
(0 0 0)
(0 0 0)
(0 0 0)
(0 0 0)
(0 0 0)
(0 0 0)
(0 0 0)
(0 0 0)
(0 0 0)
(0 0 0)
(0 0 0)
(0 0 0)
(0 0 0)
(0 0 0)
(0 0 0)
(0 0 0)
(0 0 0)
(0 0 0)
(0 0 0)
(0 0 0)
(0 0 0)
(0 0 0)
(0 0 0)
(0 0 0)
(0 0 0)
(0 0 0)
(0 0 0)
(0 0 0)
(0 0 0)
(0 0 0)
(0 0 0)
(0 0 0)
(0 0 0)
(0 0 0)
(0 0 0)
(0 0 0)
(0 0 0)
(0 0 0)
(0 0 0)
(0 0 0)
(0 0 0)
(0 0 0)
(0 0 0)
(0 0 0)
(0 0 0)
(0 0 0)
(0 0 0)
(0 0 0)
(0 0 0)
(0 0 0)
(0 0 0)
(0 0 0)
(0 0 0)
(0 0 0)
(0 0 0)
(0 0 0)
(0 0 0)
(0 0 0)
(0 0 0)
(0 0 0)
(0 0 0)
(0 0 0)
(0 0 0)
(0 0 0)
(0 0 0)
(0 0 0)
(0 0 0)
(0 0 0)
(0 0 0)
(0 0 0)
(0 0 0)
(0 0 0)
(0 0 0)
(0 0 0)
(0 0 0)
(0 0 0)
(0 0 0)
(0 0 0)
(0 0 0)
(0 0 0)
(0 0 0)
(0 0 0)
(0 0 0)
(0 0 0)
(0 0 0)
(0 0 0)
(0 0 0)
(0 0 0)
(0 0 0)
(0 0 0)
(0 0 0)
(0 0 0)
(0 0 0)
(0 0 0)
(0 0 0)
(0 0 0)
(0 0 0)
(0 0 0)
(0 0 0)
(0 0 0)
(0 0 0)
(0 0 0)
(0 0 0)
(0 0 0)
(0 0 0)
(0 0 0)
(0 0 0)
(0 0 0)
(0 0 0)
(0 0 0)
(0 0 0)
(0 0 0)
(0 0 0)
(0 0 0)
(0 0 0)
(0 0 0)
(0 0 0)
(0 0 0)
(0 0 0)
(0 0 0)
(0 0 0)
(0 0 0)
(0 0 0)
(0 0 0)
(0 0 0)
(0 0 0)
(0 0 0)
(0 0 0)
(0 0 0)
(0 0 0)
(0 0 0)
(0 0 0)
(0 0 0)
(0 0 0)
(0 0 0)
(0 0 0)
(0 0 0)
(0 0 0)
(0 0 0)
(0 0 0)
(0 0 0)
(0 0 0)
(0 0 0)
(0 0 0)
(0 0 0)
(0 0 0)
(0 0 0)
(0 0 0)
(0 0 0)
(0 0 0)
(0 0 0)
(0 0 0)
(0 0 0)
(0 0 0)
(0 0 0)
(0 0 0)
(0 0 0)
(0 0 0)
(0 0 0)
(0 0 0)
(0 0 0)
(0 0 0)
(0 0 0)
(0 0 0)
(0 0 0)
(0 0 0)
(0 0 0)
(0 0 0)
(0 0 0)
(0 0 0)
(0 0 0)
(0 0 0)
(0 0 0)
(0 0 0)
(0 0 0)
(0 0 0)
(0 0 0)
(0 0 0)
(0 0 0)
(0 0 0)
(0 0 0)
(0 0 0)
(0 0 0)
(0 0 0)
(0 0 0)
(0 0 0)
(0 0 0)
(0 0 0)
(0 0 0)
(0 0 0)
(0 0 0)
(0 0 0)
(0 0 0)
(0 0 0)
(0 0 0)
(0 0 0)
(0 0 0)
(0 0 0)
(0 0 0)
(0 0 0)
(0 0 0)
(0 0 0)
(0 0 0)
(0 0 0)
(0 0 0)
(0 0 0)
(0 0 0)
(0 0 0)
(0 0 0)
(0 0 0)
(0 0 0)
(0 0 0)
(0 0 0)
(0 0 0)
(0 0 0)
(0 0 0)
(0 0 0)
(0 0 0)
(0 0 0)
(0 0 0)
(0 0 0)
(0 0 0)
(0 0 0)
(0 0 0)
(0 0 0)
(0 0 0)
(0 0 0)
(0 0 0)
(0 0 0)
(0 0 0)
(0 0 0)
(0 0 0)
(0 0 0)
(0 0 0)
(0 0 0)
(0 0 0)
(0 0 0)
(0 0 0)
(0 0 0)
(0 0 0)
(0 0 0)
(0 0 0)
(0 0 0)
(0 0 0)
(0 0 0)
(0 0 0)
(0 0 0)
(0 0 0)
(0 0 0)
(0 0 0)
(0 0 0)
(0 0 0)
(0 0 0)
(0 0 0)
(0 0 0)
(0 0 0)
(0 0 0)
(0 0 0)
(0 0 0)
(0 0 0)
(0 0 0)
(0 0 0)
(0 0 0)
(0 0 0)
(0 0 0)
(0 0 0)
(0 0 0)
(0 0 0)
(0 0 0)
(0 0 0)
(0 0 0)
(0 0 0)
(0 0 0)
(0 0 0)
(0 0 0)
(0 0 0)
(0 0 0)
(0 0 0)
(0 0 0)
(0 0 0)
(0 0 0)
(0 0 0)
(0 0 0)
(0 0 0)
(0 0 0)
(0 0 0)
(0 0 0)
(0 0 0)
(0 0 0)
(0 0 0)
(0 0 0)
(0 0 0)
(0 0 0)
(0 0 0)
(0 0 0)
(0 0 0)
(0 0 0)
(0 0 0)
(0 0 0)
(0 0 0)
(0 0 0)
(0 0 0)
(0 0 0)
(0 0 0)
(0 0 0)
(0 0 0)
(0 0 0)
(0 0 0)
(0 0 0)
(0 0 0)
(0 0 0)
(0 0 0)
(0 0 0)
(0 0 0)
(0 0 0)
(0 0 0)
(0 0 0)
(0 0 0)
(0 0 0)
(0 0 0)
(0 0 0)
(0 0 0)
(0 0 0)
(0 0 0)
(0 0 0)
(0 0 0)
(0 0 0)
(0 0 0)
(0 0 0)
(0 0 0)
(0 0 0)
(0 0 0)
(0 0 0)
(0 0 0)
(0.0267819 0.013004 -0.0204997)
(-0.020119 0.00461891 -0.00657021)
(0.00314433 0.0139343 -0.00573365)
(-0.0315174 0.0136884 -0.00448242)
(-0.0241842 0.010897 -0.023751)
(-0.0298852 0.0524992 -0.0395942)
(-0.011149 0.0760716 -0.0533069)
(0.0036912 0.0443852 -0.046692)
(-0.0144148 0.0868786 -0.0335066)
(0.0191454 0.0417307 -0.0379283)
(0.0495743 0.0325746 -0.0302422)
(0.00933748 0.112533 -0.0386902)
(0.0820773 0.117851 -0.025788)
(0.0556035 0.0461971 -0.0104918)
(0.0348845 0.0716552 -0.0121961)
(0.0831843 0.100693 -0.0275642)
(0.0499672 0.078649 -0.0139361)
(-0.00820769 0.13877 -0.0279448)
(-0.00269321 0.148584 -0.0173444)
(-0.0338255 0.0204377 -0.0064297)
(-0.0163081 0.0770941 -0.0121593)
(0.0096611 0.0715614 -0.004844)
(0.00291093 0.0221655 -0.00356097)
(0.00629137 0.0248357 -0.00681805)
(0.0161072 0.0293405 -0.00733626)
(0.00619502 0.0133787 -0.00916037)
(-0.0234826 0.128138 -0.0123329)
(-0.00822709 0.0443792 -0.013771)
(-0.0169405 0.120086 -0.000203596)
(-0.00566955 0.189782 -0.0183803)
(0.0928812 0.222522 -0.0395809)
(-0.0201491 0.203022 0.0108848)
(-0.0262434 0.207964 -0.00746106)
(-0.00334341 0.119238 -0.0196573)
(-0.0150957 0.0803893 -0.00780897)
(-0.0447834 0.153425 -0.0132916)
(-0.0712042 0.108403 -0.0330025)
(-0.0282693 0.00694931 -0.0187417)
(-0.0321847 -0.00804203 -0.0459908)
(-0.0716958 0.0414131 -0.0692567)
(-0.0349583 0.0182639 -0.0775623)
(0.0260659 -0.00542867 -0.0408431)
(0.0562502 -0.000313483 -0.0533376)
(0.0720917 0.0373199 -0.0826373)
(0.0905476 0.0284547 -0.0784427)
(0.0430624 0.00955092 -0.0294232)
(0.0597876 0.0365243 -0.0237782)
(0.00801217 0.0302242 -0.0132713)
(0.0156756 0.0805694 -0.0210584)
(0.00295249 0.140269 0.00274101)
(-0.0113153 0.139178 0.0202263)
(-0.0362331 0.16777 0.02288)
(-0.0861361 0.19675 -0.00334325)
(-0.0546142 0.135893 0.0268601)
(-0.0896988 0.217804 0.00424933)
(-0.132713 0.179522 -0.0447274)
(-0.129137 0.110472 -0.0591083)
(-0.212718 0.22399 -0.0637623)
(-0.146365 0.212831 -0.082632)
(-0.086482 0.0992683 -0.0779605)
(-0.0372742 0.118758 -0.0679212)
(-0.0880697 0.192905 -0.077519)
(-0.043797 0.187694 -0.0791537)
(0.0671909 0.0946246 -0.06547)
(0.0861416 0.109073 -0.0613165)
(0.0605714 0.17241 -0.0524717)
(0.0804578 0.170331 -0.04641)
(0.0206123 0.0727906 -0.00909017)
(0.000944744 0.0460099 -0.0143374)
(0.00280563 0.0480657 -0.00398238)
(-0.0204349 0.0538928 0.0182463)
(-0.0404738 0.0635379 0.0206215)
(-0.121155 0.120712 0.00232093)
(0.00495555 -0.0013488 -0.000902514)
(-0.00211573 -0.00461833 0.000305416)
(-0.219503 0.233928 -0.0546096)
(-0.1528 0.245418 -0.0594038)
(-0.125298 0.222184 -0.00959343)
(-0.15391 0.29814 -0.0209009)
(-0.0944508 0.241996 -0.054787)
(-0.0547264 0.233546 -0.0531991)
(-0.107815 0.282641 -0.0164883)
(-0.073335 0.283947 -0.00786413)
(0.0317006 0.226827 -0.0171906)
(0.012079 0.0749382 -0.00485438)
(-0.0200378 0.0958708 -0.00319973)
(-0.00811671 0.0426352 -0.00917141)
(-0.0078953 0.0304887 -0.00545129)
(0.0162896 -0.00936616 -0.0134599)
(0.0272716 0.0417874 -0.0185014)
(-0.0100244 0.117877 -0.0111114)
(-0.0122769 0.00397609 -0.015308)
(-0.0730101 0.0999041 0.00713668)
(-0.0553887 0.0648466 0.000456015)
(-0.0344335 0.0204553 -0.00522307)
(-0.0347783 0.0898407 -0.00538474)
(0.0280666 0.00558419 -0.113259)
(-0.0497335 0.0470055 -0.160723)
(-0.133089 0.00365393 0.0296561)
(0.0564381 -0.0208055 0.0260554)
(-0.0976537 -0.00420024 0.0273195)
(-0.085006 -0.0112993 0.0857057)
(0.0167392 -0.00361414 0.0710951)
(-0.0306922 0.00475456 0.0577357)
(-0.0722337 0.0373282 -0.109038)
(-0.0388364 0.0236487 -0.122443)
(0.00236436 0.0167475 -0.129628)
(-0.0334829 0.0506163 -0.124023)
(-0.0331056 -0.0101097 -0.132421)
(-0.0119699 0.00883353 -0.117194)
(-0.012209 -0.00641083 -0.103849)
(-0.0269761 0.0739015 -0.0817631)
(-0.0156524 0.0338748 -0.117406)
(0.0464955 0.0395027 -0.10649)
(0.00389634 0.11141 -0.0993141)
(0.0787204 0.124788 -0.055711)
(-0.0141896 0.0484568 -0.132001)
(-0.00717364 0.0810068 -0.131851)
(0.00164952 0.0744852 -0.117372)
(0.0313845 0.12494 -0.0528677)
(0.036419 0.050223 -0.0699089)
(0.017165 -0.00450004 0.0142073)
(0.0451065 0.078295 -0.0310584)
(0.00259458 0.0167695 -0.0425654)
(0.0313849 0.0316672 -0.0620959)
(0.0116408 0.078644 0.0549518)
(0.0600878 0.080442 0.0138135)
(0.040859 0.017066 0.0082824)
(0.0457079 0.0835655 0.0590966)
(-0.00235475 0.131643 -0.0579118)
(0.0136371 0.146638 -0.101753)
(0.0333784 0.17305 -0.0390308)
(0.00558597 0.0718506 -0.103306)
(-0.00251451 0.169976 -0.0855639)
(0.0243621 0.150719 -0.0682903)
(0.085253 0.0577195 0.046844)
(0.0366458 0.0674267 0.0504358)
(0.0420123 0.0815286 0.10303)
(0.0804985 0.089885 0.138337)
(0.0257505 0.0811942 0.126902)
(0.0454742 0.212212 -0.0121881)
(0.063775 0.227022 0.026731)
(0.0125099 0.190246 -0.0750812)
(0.0341224 0.227399 -0.0384669)
(0.0787603 0.227442 0.0134604)
(0.0164721 0.0759059 0.0637176)
(0.0529649 0.111326 0.0930105)
(0.0466447 0.0935021 0.186746)
(0.00247681 0.0781823 0.148262)