/*--------------------------------*- C++ -*----------------------------------*\
| =========                 |                                                 |
| \\      /  F ield         | OpenFOAM: The Open Source CFD Toolbox           |
|  \\    /   O peration     | Version:  5.x                                   |
|   \\  /    A nd           | Web:      www.OpenFOAM.org                      |
|    \\/     M anipulation  |                                                 |
\*---------------------------------------------------------------------------*/
FoamFile
{
    version     2.0;
    format      ascii;
    class       volScalarField;
    location    "3.45";
    object      voidfraction;
}
// * * * * * * * * * * * * * * * * * * * * * * * * * * * * * * * * * * * * * //

dimensions      [0 0 0 0 0 0 0];

internalField   nonuniform List<scalar> 
10571
(
0.768099
0.652738
0.8713
0.838043
0.59723
0.649265
0.805961
0.836803
0.737794
0.516193
0.451284
0.473535
0.691668
0.618213
0.607261
0.780514
0.454152
0.468039
0.511835
0.458695
0.590548
0.483205
0.477564
0.444724
0.672302
0.910552
0.97613
0.931851
0.962358
0.898335
0.927484
0.872818
0.959967
0.836605
0.789149
0.992298
0.91481
0.847641
0.914512
0.988819
0.556446
0.728642
0.802693
0.886702
0.975387
0.432685
0.423202
0.899085
0.543469
0.930829
0.993654
0.953793
0.981881
0.985701
0.995362
0.988349
0.973075
0.835622
0.83655
0.990121
0.998165
0.987274
0.990599
0.990871
0.818794
0.8743
0.903191
0.982063
0.99257
0.436949
0.42021
0.964522
0.536621
0.826901
0.993383
0.97518
0.901843
0.987653
0.993545
0.99255
0.968674
0.820968
0.831746
1
0.999556
0.996689
0.991409
0.959287
0.850653
0.853966
0.911435
0.990286
1
0.479076
0.442745
0.897532
0.648219
0.634711
0.99609
0.944948
0.911158
0.996557
0.997904
0.997679
0.983251
0.892556
0.867727
1
0.999553
0.998263
0.993485
0.873882
0.933867
0.746532
0.90747
0.988837
1
0.482094
0.456417
0.835719
0.957782
0.577521
0.994095
0.949752
0.993144
0.997128
0.998792
0.999118
0.99222
0.952945
0.401473
0.88157
1
0.959864
0.987826
0.989868
0.952718
0.41426
0.987791
0.763024
0.910339
0.984043
0.99738
0.448243
0.441901
0.812979
0.993624
0.60169
0.975698
0.991059
0.991175
0.998885
0.968577
0.987669
0.997999
0.97874
0.920222
0.86683
0.999357
0.945926
0.964579
0.992159
0.990326
0.98049
0.989985
0.880947
0.956235
0.989457
0.997224
0.72778
0.454424
0.47273
0.849218
0.91371
0.524891
0.915111
0.943663
0.96689
0.999121
0.967862
0.980502
0.998853
0.993291
0.919341
0.908067
0.997801
0.98584
0.988629
0.991162
0.989444
0.942119
0.931427
0.919318
0.956161
0.974235
0.973513
0.994641
0.481573
0.490184
0.787048
0.830044
0.862152
0.973709
0.984153
0.973385
0.860866
0.985632
0.997417
0.996149
0.980134
0.984496
0.893223
0.910721
0.964911
0.997702
0.992516
0.986623
0.924011
0.95997
0.936422
0.9033
0.98488
0.973729
0.496202
0.621654
0.75524
0.829487
0.929933
0.994501
0.998477
0.976487
0.947628
0.957983
0.998981
0.995173
0.975406
0.887838
0.980856
0.954825
0.969668
0.980339
0.964061
0.958349
0.968819
0.928093
0.877144
0.830798
0.562781
0.803252
0.787867
0.920514
0.955533
0.997167
0.999223
0.979839
0.980475
0.930951
0.998407
0.994256
0.969518
0.992853
0.979982
0.957237
0.922804
0.956912
0.931926
0.972215
0.985441
0.955166
0.825269
0.771345
0.74431
0.941845
0.86887
0.965257
0.98292
0.99973
0.99902
0.986604
0.965887
0.985372
0.99755
0.990541
0.958708
1
0.985869
0.932124
0.930135
0.984551
0.943163
0.97324
0.98395
0.956935
0.900179
0.874075
0.868094
0.969926
0.906615
0.975811
0.98404
0.992583
0.99902
0.988194
0.99203
0.95489
0.995751
0.996503
0.981047
1
0.990095
0.918416
0.942594
0.997455
0.975514
0.986681
0.978994
0.954977
0.996996
0.92608
0.919859
0.956669
0.964784
0.962837
0.991936
0.983481
0.994527
0.991348
0.998683
0.978703
0.990229
0.997278
0.997286
1
1
0.995334
0.989534
0.989669
0.987967
1
0.998187
0.962439
0.972957
0.968844
0.990244
0.959115
0.987117
0.966575
0.998376
0.993493
0.970845
0.981974
1
0.999336
0.995126
0.996139
0.995891
1
1
0.999519
0.994707
0.983281
0.99607
1
0.999976
0.995517
0.967581
0.995729
1
0.997947
1
0.985816
1
0.999022
0.99902
0.997086
1
1
0.996304
0.992379
0.994146
1
1
0.999962
0.999233
0.997544
0.998821
1
0.999907
0.999766
0.998097
1
1
1
0.99958
1
1
1
0.999493
1
1
1
0.998672
0.991071
0.998333
1
1
1
0.999996
0.999923
1
1
1
1
1
1
1
1
1
1
1
1
0.99902
1
1
1
1
0.999604
1
1
1
1
1
1
1
1
1
1
1
1
1
1
1
1
1
1
1
1
1
1
1
1
1
1
1
1
1
1
1
1
1
1
1
1
1
1
1
1
1
1
1
1
1
1
1
1
1
1
1
1
1
1
1
1
1
1
1
1
1
1
1
1
1
1
1
1
1
1
1
1
1
1
1
1
1
1
1
1
1
1
1
1
1
1
1
1
1
1
1
1
1
1
1
1
1
1
1
1
1
1
1
1
1
1
1
1
1
1
1
1
1
1
1
1
1
1
1
1
1
1
1
1
1
1
1
1
1
1
1
1
1
1
1
1
1
1
1
1
1
1
1
1
1
1
1
1
1
1
1
1
1
1
1
1
1
1
1
1
1
1
1
1
1
1
1
1
1
1
1
1
1
1
1
1
1
1
1
1
1
1
1
1
1
1
1
1
1
1
1
1
1
1
1
1
1
1
1
1
1
1
1
1
1
1
1
1
1
1
1
1
1
1
1
1
1
1
1
1
1
1
1
1
1
1
1
1
1
1
1
1
1
1
1
1
1
1
1
1
1
1
1
1
1
1
1
1
1
1
1
1
1
1
1
1
1
1
1
1
1
1
1
1
1
1
1
1
1
1
1
1
1
1
1
1
1
1
1
1
1
1
1
1
1
1
1
1
1
1
1
1
1
1
1
1
1
1
1
1
1
1
1
1
1
1
1
1
1
1
1
1
1
1
1
1
1
1
1
1
1
1
1
1
1
1
1
1
1
1
1
1
1
1
1
1
1
1
1
1
1
1
1
1
1
1
1
1
1
1
1
1
1
1
1
1
1
1
1
1
1
1
1
1
1
1
1
1
1
1
1
1
1
1
1
1
1
1
1
1
1
1
1
1
1
1
1
1
1
1
1
1
1
1
1
1
1
1
1
1
1
1
1
1
1
1
1
1
1
1
1
1
1
1
1
1
1
1
1
1
1
1
1
1
1
1
1
1
1
1
1
1
1
1
1
1
1
1
1
1
1
1
1
1
1
1
1
1
1
1
1
1
1
1
1
1
1
1
1
1
1
1
1
1
1
1
1
1
1
1
1
1
1
1
1
1
1
1
1
1
1
1
1
1
1
1
1
1
1
1
1
1
1
1
1
1
1
1
1
1
1
1
1
1
1
1
1
1
1
1
1
1
1
1
1
1
1
1
1
1
1
1
1
1
1
1
1
1
1
1
1
1
1
1
1
1
1
1
1
1
1
1
1
1
1
1
1
1
1
1
1
1
1
1
1
1
1
1
1
1
1
1
1
1
1
1
1
1
1
1
1
1
1
1
1
1
1
1
1
1
1
1
1
1
1
1
1
1
1
1
1
1
1
1
1
1
1
1
1
1
1
1
1
1
1
1
1
1
1
1
1
1
1
1
1
1
1
1
1
1
1
1
1
1
1
1
1
1
1
1
1
1
1
1
1
1
1
1
1
1
1
1
1
1
1
1
1
1
1
1
1
1
1
1
1
1
1
1
1
1
1
1
1
1
1
1
1
1
1
1
1
1
1
1
1
1
1
1
1
1
1
1
1
1
1
1
1
1
1
1
1
1
1
1
1
1
1
1
1
1
1
1
1
1
1
1
1
1
1
1
1
1
1
1
1
1
1
1
1
1
1
1
1
1
1
1
1
1
1
1
1
1
1
1
1
1
1
1
1
1
1
1
1
1
1
1
1
1
1
1
1
1
1
1
1
1
1
1
1
1
1
1
1
1
1
1
1
1
1
1
1
1
1
1
1
1
1
1
1
1
1
1
1
1
1
1
1
1
1
1
1
1
1
1
1
1
1
1
1
1
1
1
1
1
1
1
1
1
1
1
1
1
1
1
1
1
1
1
1
1
1
1
1
1
1
1
1
1
1
1
1
1
1
1
1
1
1
1
1
1
1
1
1
1
1
1
1
1
1
1
1
1
1
1
1
1
1
1
1
1
1
1
1
1
1
1
1
1
1
1
1
1
1
1
1
1
1
1
1
1
1
1
1
1
1
1
1
1
1
1
1
1
1
1
1
1
1
1
1
1
1
1
1
1
1
1
1
1
1
1
1
1
1
1
1
1
1
1
1
1
1
1
1
1
1
1
1
1
1
1
1
1
1
1
1
1
1
1
1
1
1
1
1
1
1
1
1
1
1
1
1
1
1
1
1
1
1
1
1
1
1
1
1
1
1
1
1
1
1
1
1
1
1
1
1
1
1
1
1
1
1
1
1
1
1
1
1
1
1
1
1
1
1
1
1
1
1
1
1
1
1
1
1
1
1
1
1
1
1
1
1
1
1
1
1
1
1
1
1
1
1
1
1
1
1
1
1
1
1
1
1
1
1
1
1
1
1
1
1
1
1
1
1
1
1
1
1
1
1
1
1
1
1
1
1
1
1
1
1
1
1
1
1
1
1
1
1
1
1
1
1
1
1
1
1
1
1
1
1
1
1
1
1
1
1
1
1
1
1
1
1
1
1
1
1
1
1
1
1
1
1
1
1
1
1
1
1
1
1
1
1
1
1
1
1
1
1
1
1
1
1
1
1
1
1
1
1
1
1
1
1
1
1
1
1
1
1
1
1
1
1
1
1
1
1
1
1
1
1
1
1
1
1
1
1
1
1
1
1
1
1
1
1
1
1
1
1
1
1
1
1
1
1
1
1
1
1
1
1
1
1
1
1
1
1
1
1
1
1
1
1
1
1
1
1
1
1
1
1
1
1
1
1
1
1
1
1
1
1
1
1
1
1
1
1
1
1
1
1
1
1
1
1
1
1
1
1
1
1
1
1
1
1
1
1
1
1
1
1
1
1
1
1
1
1
1
1
1
1
1
1
1
1
1
1
1
1
1
1
1
1
1
1
1
1
1
1
1
1
1
1
1
1
1
1
1
1
1
1
1
1
1
1
1
1
1
1
1
1
1
1
1
1
1
1
1
1
1
1
1
1
1
1
1
1
1
1
1
1
1
1
1
1
1
1
1
1
1
1
1
1
1
1
1
1
1
1
1
1
1
1
1
1
1
1
1
1
1
1
1
1
1
1
1
1
1
1
1
1
1
1
1
1
1
1
1
1
1
1
1
1
1
1
1
1
1
1
1
1
1
1
1
1
1
1
1
1
1
1
1
1
1
1
1
1
1
1
1
1
1
1
1
0.451518
0.447745
0.42858
0.415551
0.49281
0.443777
0.524021
0.551013
0.527493
0.485278
0.443309
0.577999
0.495809
0.429337
0.442117
0.446769
0.44382
0.490016
0.577096
0.482474
0.587203
0.596447
0.496083
0.742861
0.528541
0.493302
0.540549
0.487943
0.524985
0.846681
0.792253
0.838394
0.975611
0.584613
0.473374
0.844021
0.635114
0.435171
0.476559
0.465717
0.487145
0.739453
0.585164
0.55065
0.62607
0.508374
0.542254
0.541043
0.521907
0.522449
0.526297
0.737741
0.938131
0.604111
0.787113
0.990983
0.853628
0.86986
0.764906
0.62516
0.589628
0.789499
0.779319
0.510298
0.499097
0.660824
0.498049
0.485335
0.557201
0.488143
0.489444
0.526064
0.644481
0.512238
0.574753
0.657174
0.672268
0.659912
0.684241
0.725586
0.765315
0.66637
0.691819
0.676855
0.514726
0.592031
0.511277
0.455721
0.579762
0.657353
0.590935
0.66802
0.611713
0.64692
0.683263
0.584778
0.673665
0.622591
0.814077
0.757107
0.794697
0.89616
0.785804
0.941528
0.830995
0.691928
0.698667
0.61739
0.495033
0.537214
0.637875
0.551824
0.699452
0.837341
0.695834
0.794675
0.661723
0.612797
0.638791
0.602708
0.48274
0.588768
0.491909
0.809194
0.916974
0.827385
0.856746
0.459875
0.536209
0.563069
0.449099
0.521805
0.765627
0.790517
0.895661
0.737591
0.770114
0.786158
0.887383
0.92848
0.459032
0.456997
0.685936
0.809459
0.488362
0.900746
0.732289
0.926276
0.952899
0.668146
0.434101
0.423806
0.45978
0.425331
0.453135
0.449299
0.456531
0.419731
0.442061
0.508102
0.44753
0.471306
0.535763
0.610406
0.617633
0.654808
0.873702
0.442628
0.416132
0.476617
0.489099
0.441379
0.436583
0.434837
0.483485
0.468499
0.442863
0.45409
0.434311
0.495671
0.989875
0.99789
0.875225
0.985603
0.970844
0.840779
0.995464
0.947194
0.7368
0.596221
0.5698
0.594347
0.676691
0.880055
0.965337
0.679292
0.666483
0.931741
0.787253
0.60828
0.954705
0.995655
0.895037
0.988461
0.961509
0.964222
0.930797
0.979866
0.948632
0.962741
0.947577
0.710829
0.747912
0.859531
0.860322
0.958063
0.877249
0.862935
0.953336
0.899042
0.865283
0.847542
0.907545
0.7842
0.945819
0.699647
0.83155
0.9603
0.819248
0.970836
0.980436
0.988944
0.949798
0.986304
0.431107
0.467029
0.773251
0.42219
0.478011
0.731771
0.988181
0.423966
0.572884
0.955848
0.979345
0.995958
0.975584
0.993423
0.980754
0.995485
0.98029
0.411404
0.421588
0.425698
0.427417
0.431649
0.421325
0.449508
0.471124
0.431692
0.416444
0.51107
0.427472
0.97708
0.992405
1
0.728235
0.99682
0.944447
0.666211
0.996569
0.887605
0.546692
0.794799
0.545827
0.564438
0.868527
0.967672
0.978104
0.694865
0.73281
0.990289
0.85851
0.998664
0.900553
0.995414
0.838883
0.995234
0.940469
0.975861
0.950031
0.960503
0.902022
0.961976
0.957014
0.767855
0.774205
0.887195
0.865761
0.970798
0.911396
0.887382
0.959273
0.912285
0.701823
0.83657
0.902532
0.814946
0.959853
0.88898
0.826682
0.966286
0.930872
0.898338
0.991086
0.980089
0.853432
0.995786
0.5988
0.709477
0.995781
0.470993
0.614194
0.82366
0.998857
0.535713
0.648032
0.988054
0.981466
0.987294
0.990364
0.993653
0.985048
0.980104
0.995949
0.424478
0.486299
0.417486
0.437128
0.455161
0.416459
0.486969
0.51776
0.456706
0.430205
0.523183
0.477463
0.924421
0.995961
0.991429
0.593501
0.997024
0.807102
0.563334
0.993695
0.70057
0.595381
0.895574
0.579988
0.645349
0.882692
0.958617
0.926153
0.750924
0.733705
0.997041
0.827967
0.999125
0.716535
0.992547
0.836979
0.998733
0.866545
0.960778
0.947023
0.848671
0.87321
0.977806
0.926596
0.793462
0.852544
0.896605
0.896586
0.964511
0.909669
0.852131
0.972762
0.882654
0.944944
0.851046
0.873972
0.968273
0.976262
0.947638
0.860927
0.969937
0.962067
0.882276
0.996431
0.903677
0.938015
0.997304
0.832178
0.902853
1
0.526882
0.681569
0.88168
0.998683
0.537961
0.684871
0.999116
0.992407
0.999943
0.979444
0.997187
0.980705
1
0.997969
0.489104
0.516602
0.439871
0.507215
0.473593
0.446836
0.495504
0.523303
0.523384
0.441998
0.513668
0.517619
0.856618
0.894342
0.816894
0.48478
0.926325
0.603107
0.506633
0.725022
0.570691
0.734341
0.854893
0.800019
0.783633
0.862724
0.943132
0.977241
0.733162
0.776049
0.95819
0.857796
0.990405
0.581018
0.863924
0.882754
0.981512
0.919538
0.989737
0.961548
0.976746
0.968093
0.994341
0.978776
0.920719
0.932909
0.920436
0.872124
0.978139
0.94028
0.851334
0.97877
0.864807
0.930668
0.927818
0.891632
0.87576
0.978797
0.97371
0.858922
0.982731
0.970609
0.932252
0.997926
0.924879
0.886846
0.994028
0.900602
0.939798
0.997957
0.540809
0.665322
0.973719
0.993468
0.541888
0.622428
0.998219
0.980643
1
0.988345
0.99822
0.987168
0.997285
1
0.496125
0.491058
0.437181
0.503055
0.465006
0.442385
0.487328
0.509556
0.500922
0.446925
0.512317
0.475427
0.829671
0.554581
0.477951
0.568526
0.572991
0.615218
0.719064
0.529949
0.68959
0.827656
0.947252
0.992964
0.897395
0.979731
0.982267
0.979072
0.793734
0.799996
0.735595
0.902225
0.986519
0.619845
0.728107
0.92406
0.999414
0.964962
0.996423
0.980186
0.990426
0.946995
0.998044
0.982199
0.942568
0.953058
0.921465
0.84627
0.982735
0.924208
0.80063
0.969133
0.644839
0.927873
0.599319
0.975174
0.833138
0.963554
0.933606
0.41393
0.422434
0.401296
0.525431
0.405344
0.589481
0.414265
0.982305
0.97293
0.854626
0.984849
0.982533
0.595316
0.970448
0.651461
0.984868
0.921342
0.991732
0.833954
0.404513
0.41677
0.383115
0.576744
0.404204
0.473597
0.405156
0.960376
0.94363
0.964436
0.671491
0.606009
0.98803
0.911639
0.770933
0.598401
0.996595
0.982857
0.992756
0.987941
0.990208
0.981451
0.993806
1
0.464681
0.467255
0.435126
0.442356
0.44976
0.438965
0.453316
0.561547
0.484537
0.452083
0.594895
0.473222
0.852527
0.494741
0.485258
0.841565
0.539732
0.765297
0.886644
0.543019
0.873339
0.932991
0.994228
0.98604
0.965394
0.99485
0.981055
0.98254
0.80055
0.77658
0.76879
0.917798
0.999967
0.544888
0.765334
0.924829
0.997296
0.951962
1
0.981692
0.977636
0.973221
0.998046
0.982771
0.931127
0.865042
0.969982
0.955012
0.811507
0.776045
0.942806
0.926424
0.932568
0.772807
0.968132
0.91627
0.854071
0.95971
0.955657
0.962953
0.9685
0.994359
0.962509
0.979099
0.964253
0.719893
0.978778
0.800998
0.95451
0.901983
0.980621
0.942678
0.98097
0.971302
0.919503
0.986363
0.979512
0.972678
0.993044
0.957622
0.990797
0.971228
0.984846
0.940963
0.841002
0.834129
0.641541
0.960301
0.917032
0.924954
0.906091
0.950537
0.938118
0.828174
0.860884
0.632474
0.951637
0.729349
0.863692
0.694011
0.995991
0.980691
0.992612
0.985127
0.991622
0.978975
0.990049
0.885844
0.996133
0.965765
0.594669
0.976963
0.979864
0.448434
0.480408
0.441369
0.469145
0.469869
0.46275
0.455656
0.651319
0.493551
0.472354
0.675142
0.501152
0.853757
0.469504
0.594084
0.879499
0.675915
0.953178
0.78604
0.89738
0.973227
0.989668
0.992761
0.883036
0.990303
0.974947
0.968219
0.947801
0.765088
0.763483
0.675606
0.855861
0.956998
0.754662
0.710769
0.764864
0.726911
0.935381
0.966184
0.961505
0.970645
0.90833
0.976604
0.957128
0.956001
0.969851
0.935202
0.991451
0.963459
0.962554
1
0.995825
0.919522
0.867487
0.970252
0.871018
0.855831
0.965678
0.965658
0.98701
0.96546
0.980094
0.950881
0.989772
0.968225
0.827377
0.963676
0.832245
0.929968
0.946694
0.893658
0.888512
0.990818
0.988652
0.928081
0.989788
0.973896
0.970312
0.977743
0.95742
0.991087
0.980625
0.976753
0.974294
0.884994
0.952266
0.969389
0.932707
0.957708
0.983903
0.998666
0.941746
0.941118
0.775539
0.882596
0.779614
0.952811
0.773968
0.923775
0.876138
0.97813
0.962776
0.992542
0.967627
0.95619
0.94255
0.93278
0.990965
0.94135
0.995766
0.998317
1
1
0.525684
0.556123
0.486793
0.502634
0.499731
0.563021
0.535999
0.683373
0.564591
0.506075
0.636699
0.575335
0.767408
0.86846
0.929039
0.792085
0.931872
0.978345
0.82979
0.949023
0.972409
0.979484
0.952124
0.83938
0.975969
0.939686
0.928288
0.937439
0.899822
0.96914
0.897838
0.886683
0.805047
0.914919
0.958617
0.964267
0.931706
0.942227
0.986713
0.973118
0.979323
0.950477
0.996131
0.98546
0.944166
0.956411
0.864904
0.873758
0.944564
0.889565
0.905761
0.829762
0.965176
0.991314
0.952097
0.973366
0.986991
0.984736
0.964485
0.999619
0.88898
0.994704
0.997198
1
0.961283
0.999929
0.982727
0.966732
0.896195
0.900882
0.933039
0.970488
0.971084
0.985076
0.979252
0.95081
0.960468
0.980036
0.997444
0.987444
1
0.95351
1
0.992077
0.993222
0.923469
0.817989
0.885702
0.904593
0.916555
0.9554
0.959346
0.895876
0.954706
0.948142
0.933316
0.878493
0.927691
0.974152
0.877751
0.844059
0.913757
0.557661
0.572571
0.659789
0.576701
0.516158
0.74799
0.631682
0.632969
0.571585
0.723768
0.792429
0.600555
0.765468
0.929879
0.945356
0.883006
0.964393
0.980526
0.904668
0.974922
0.989673
0.96876
0.942137
0.857851
0.97949
0.956326
0.935129
0.95293
0.979798
0.977291
0.964314
0.967309
0.949692
0.957324
0.967553
0.969009
0.971774
0.941037
0.998306
0.98234
0.981657
0.95686
0.998446
0.983581
0.976865
0.964137
0.984865
0.953925
0.887502
0.997871
0.996041
0.985764
0.979001
0.952984
0.962375
0.963616
0.914222
0.828769
0.848693
0.948868
0.910979
0.873326
0.916874
0.932019
0.937909
0.799682
0.87525
0.778299
0.894872
0.994885
0.903079
0.958341
0.960697
0.998746
0.891045
0.938696
0.962268
0.912461
0.828771
0.816811
0.949214
0.915323
0.806184
0.724715
0.603649
0.559162
0.772053
0.631456
0.639731
0.784721
0.669979
0.870142
0.674523
0.862909
0.890242
0.768571
0.824147
0.954488
0.960621
0.932377
0.981115
0.993792
0.95184
0.974267
0.985405
0.980826
0.952891
0.968556
0.976465
0.966829
0.951409
0.96905
0.98781
0.988437
0.972679
0.979172
0.974383
0.969703
0.976604
0.981974
0.985257
0.941699
0.996669
0.987502
0.980207
0.95378
0.996212
0.982135
0.952476
0.961272
0.996478
0.990543
0.988733
0.987537
1
0.9937
0.965525
0.877576
0.967647
0.961129
0.931211
0.990759
0.962669
0.996921
0.987608
0.990784
0.845663
0.876599
0.942848
0.870129
0.906693
0.972236
0.981654
0.994821
0.890203
0.900432
0.972487
0.996009
0.867428
0.90177
0.948563
0.944503
0.84232
0.824377
0.965438
0.949327
0.864457
0.849493
0.581198
0.745827
0.852596
0.713547
0.83716
0.900149
0.735501
0.93383
0.844284
0.961712
0.947089
0.866665
0.894857
0.960762
0.961668
0.948871
0.976821
0.986556
0.970092
0.979221
0.9848
0.988672
0.978402
0.973722
0.99055
0.983356
0.960614
0.976926
0.98997
0.992129
0.98005
0.991926
0.989749
0.976928
0.980709
0.991598
0.986593
0.95967
0.996146
0.983039
0.986723
0.973763
0.995487
0.989626
0.973941
0.985876
0.996633
1
0.991066
0.994311
1
0.996487
0.95923
0.95424
0.966831
0.971442
0.957863
0.993577
0.992526
1
0.998516
0.993456
0.897474
0.908505
0.960286
0.931419
0.939087
0.984724
0.985631
0.99347
0.920076
0.948661
0.943294
0.97065
0.96451
0.977358
0.978205
0.968235
0.919674
0.973833
0.99073
0.983554
0.953499
0.931426
0.850981
0.901564
0.908514
0.676345
0.89117
0.918514
0.65109
0.953871
0.866115
0.957816
0.955963
0.832852
0.956876
0.972959
0.97958
0.97658
0.984406
0.972567
0.969542
0.980653
0.986435
0.991277
0.986491
0.975261
0.982645
0.981497
0.968837
0.990728
0.996587
0.99798
0.990595
0.98993
0.991019
0.990928
0.985652
0.995382
0.98884
0.983086
0.996804
0.988716
0.987533
0.983928
0.997364
0.990379
0.995314
0.996013
0.998645
1
0.998243
0.999768
1
1
0.970468
0.948838
0.993216
0.98608
0.95808
0.999152
0.998877
0.996811
1
0.998877
0.93669
0.9628
0.978263
0.977028
0.964421
0.99993
1
0.958087
0.988189
0.986046
1
0.995845
0.995107
0.993855
0.985329
0.976924
0.932242
0.996361
0.97462
0.95485
0.952979
0.933979
0.937245
0.969707
0.924766
0.611582
0.963336
0.936636
0.722543
0.97312
0.776881
0.894555
0.928538
0.787418
0.920745
0.977768
0.978604
0.972841
0.985761
0.988494
0.979438
0.972992
0.984618
0.984129
0.980375
0.968884
0.98952
0.977704
0.991704
0.977621
0.998677
1
0.989157
0.997855
0.999967
0.996752
0.989846
1
0.999382
0.98359
0.997133
0.995583
0.992549
0.979601
0.996804
0.994947
0.992444
0.993983
0.998723
1
1
1
1
1
0.995067
0.987238
0.998488
0.99649
0.993619
1
1
1
1
0.998916
0.989229
0.975802
0.992744
0.993735
0.982848
1
1
1
0.999888
0.997821
1
1
1
1
0.957475
0.956886
0.978693
0.964775
0.9687
0.984585
0.993274
0.985297
0.991675
1
0.983661
0.943477
1
0.997372
0.994842
0.945735
0.946443
0.989643
0.992873
0.996927
0.993909
0.969265
0.985643
0.963715
0.964595
0.975111
0.97581
0.980847
0.98259
0.971559
0.981304
0.967895
0.987006
0.990981
0.984872
0.994423
1
1
0.992901
1
1
1
0.997424
1
1
0.98449
0.993937
0.989047
0.981554
0.989772
0.984183
0.988654
0.997691
0.996082
0.998878
1
1
1
1
1
0.994856
0.993399
0.993255
0.989923
0.99681
1
1
1
1
1
0.997033
0.995702
0.99737
0.993626
0.993767
1
1
1
1
1
1
1
1
1
0.985723
0.992308
1
0.987146
0.997071
1
0.998418
0.99993
1
1
1
1
0.998877
1
1
0.996592
1
1
1
1
0.996359
0.994703
1
0.993623
0.990249
0.994368
1
0.999613
0.995912
0.995305
0.997755
0.99934
0.99997
0.998916
1
1
1
1
0.99988
1
1
1
1
1
1
0.998258
0.987709
0.988261
1
0.99837
0.996474
0.993555
0.989786
0.997062
1
1
1
1
1
1
0.994069
0.994719
0.996666
0.995007
0.9989
1
1
1
1
1
1
0.999729
0.999123
1
1
1
1
1
1
1
1
1
1
1
0.999115
0.999118
0.999943
1
1
1
1
1
1
1
1
1
1
1
1
1
1
1
1
1
1
1
1
1
1
1
1
1
1
0.999061
1
1
1
1
1
1
1
1
1
1
1
1
1
1
1
1
0.997628
0.998245
1
1
0.999934
1
1
1
1
1
1
1
1
1
0.995612
1
0.999612
0.999697
1
1
1
1
1
1
1
1
1
1
1
1
1
1
1
1
1
1
1
1
1
1
1
1
1
1
1
1
1
1
1
1
1
1
1
1
1
1
1
1
1
1
1
1
1
1
1
1
1
1
1
1
1
1
1
1
1
1
1
1
1
1
1
1
1
1
1
1
1
1
1
1
1
1
1
1
1
1
1
1
1
1
1
1
1
1
1
1
1
1
1
1
1
1
1
1
1
0.999242
1
0.999818
1
1
1
1
1
1
1
1
1
1
1
1
1
1
1
1
1
1
1
1
1
1
1
1
1
1
1
1
1
1
1
1
1
1
1
1
1
1
1
1
1
1
1
1
1
1
1
1
1
1
1
1
1
1
1
1
1
1
1
1
1
1
1
1
1
1
1
1
1
1
1
1
1
1
1
1
1
1
1
1
1
1
1
1
1
1
1
1
1
1
1
1
1
1
1
1
1
1
1
1
1
1
1
1
1
1
1
1
1
1
1
1
1
1
1
1
1
1
1
1
1
1
1
1
1
1
1
1
1
1
1
1
1
1
1
1
1
1
1
1
1
1
1
1
1
1
1
1
1
1
1
1
1
1
1
1
1
1
1
1
1
1
1
1
1
1
1
1
1
1
1
1
1
1
1
1
1
1
1
1
1
1
1
1
1
1
1
1
1
1
1
1
1
1
1
1
1
1
1
1
1
1
1
1
1
1
1
1
1
1
1
1
1
1
1
1
1
1
1
1
1
1
1
1
1
1
1
1
1
1
1
1
1
1
1
1
1
1
1
1
1
1
1
1
1
1
1
1
1
1
1
1
1
1
1
1
1
1
1
1
1
1
1
1
1
1
1
1
1
1
1
1
1
1
1
1
1
1
1
1
1
1
1
1
1
1
1
1
1
1
1
1
1
1
1
1
1
1
1
1
1
1
1
1
1
1
1
1
1
1
1
1
1
1
1
1
1
1
1
1
1
1
1
1
1
1
1
1
1
1
1
1
1
1
1
1
1
1
1
1
1
1
1
1
1
1
1
1
1
1
1
1
1
1
1
1
1
1
1
1
1
1
1
1
1
1
1
1
1
1
1
1
1
1
1
1
1
1
1
1
1
1
1
1
1
1
1
1
1
1
1
1
1
1
1
1
1
1
1
1
1
1
1
1
1
1
1
1
1
1
1
1
1
1
1
1
1
1
1
1
1
1
1
1
1
1
1
1
1
1
1
1
1
1
1
1
1
1
1
1
1
1
1
1
1
1
1
1
1
1
1
1
1
1
1
1
1
1
1
1
1
1
1
1
1
1
1
1
1
1
1
1
1
1
1
1
1
1
1
1
1
1
1
1
1
1
1
1
1
1
1
1
1
1
1
1
1
1
1
1
1
1
1
1
1
1
1
1
1
1
1
1
1
1
1
1
1
1
1
1
1
1
1
1
1
1
1
1
1
1
1
1
1
1
1
1
1
1
1
1
1
1
1
1
1
1
1
1
1
1
1
1
1
1
1
1
1
1
1
1
1
1
1
1
1
1
1
1
1
1
1
1
1
1
1
1
1
1
1
1
1
1
1
1
1
1
1
1
1
1
1
1
1
1
1
1
1
1
1
1
1
1
1
1
1
1
1
1
1
1
1
1
1
1
1
1
1
1
1
1
1
1
1
1
1
1
1
1
1
1
1
1
1
1
1
1
1
1
1
1
1
1
1
1
1
1
1
1
1
1
1
1
1
1
1
1
1
1
1
1
1
1
1
1
1
1
1
1
1
1
1
1
1
1
1
1
1
1
1
1
1
1
1
1
1
1
1
1
1
1
1
1
1
1
1
1
1
1
1
1
1
1
1
1
1
1
1
1
1
1
1
1
1
1
1
1
1
1
1
1
1
1
1
1
1
1
1
1
1
1
1
1
1
1
1
1
1
1
1
1
1
1
1
1
1
1
1
1
1
1
1
1
1
1
1
1
1
1
1
1
1
1
1
1
1
1
1
1
1
1
1
1
1
1
1
1
1
1
1
1
1
1
1
1
1
1
1
1
1
1
1
1
1
1
1
1
1
1
1
1
1
1
1
1
1
1
1
1
1
1
1
1
1
1
1
1
1
1
1
1
1
1
1
1
1
1
1
1
1
1
1
1
1
1
1
1
1
1
1
1
1
1
1
1
1
1
1
1
1
1
1
1
1
1
1
1
1
1
1
1
1
1
1
1
1
1
1
1
1
1
1
1
1
1
1
1
1
1
1
1
1
1
1
1
1
1
1
1
1
1
1
1
1
1
1
1
1
1
1
1
1
1
1
1
1
1
1
1
1
1
1
1
1
1
1
1
1
1
1
1
1
1
1
1
1
1
1
1
1
1
1
1
1
1
1
1
1
1
1
1
1
1
1
1
1
1
1
1
1
1
1
1
1
1
1
1
1
1
1
1
1
1
1
1
1
1
1
1
1
1
1
1
1
1
1
1
1
1
1
1
1
1
1
1
1
1
1
1
1
1
1
1
1
1
1
1
1
1
1
1
1
1
1
1
1
1
1
1
1
1
1
1
1
1
1
1
1
1
1
1
1
1
1
1
1
1
1
1
1
1
1
1
1
1
1
1
1
1
1
1
1
1
1
1
1
1
1
1
1
1
1
1
1
1
1
1
1
1
1
1
1
1
1
1
1
1
1
1
1
1
1
1
1
1
1
1
1
1
1
1
1
1
1
1
1
1
1
1
1
1
1
1
1
1
1
1
1
1
1
1
1
1
1
1
1
1
1
1
1
1
1
1
1
1
1
1
1
1
1
1
1
1
1
1
1
1
1
1
1
1
1
1
1
1
1
1
1
1
1
1
1
1
1
1
1
1
1
1
1
1
1
1
1
1
1
1
1
1
1
1
1
1
1
1
1
1
1
1
1
1
1
1
1
1
1
1
1
1
1
1
1
1
1
1
1
1
1
1
1
1
1
1
1
1
1
1
1
1
1
1
1
1
1
1
1
1
1
1
1
1
1
1
1
1
1
1
1
1
1
1
1
1
1
1
1
1
1
1
1
1
1
1
1
1
1
1
1
1
1
1
1
1
1
1
1
1
1
1
1
1
1
1
1
1
1
1
1
1
1
1
1
1
1
1
1
1
1
1
1
1
1
1
1
1
1
1
1
1
1
1
1
1
1
1
1
1
1
1
1
1
1
1
1
1
1
1
1
1
1
1
1
1
1
1
1
1
1
1
1
1
1
1
1
1
1
1
1
1
1
1
1
1
1
1
1
1
1
1
1
1
1
1
1
1
1
1
1
1
1
1
1
1
1
1
1
1
1
1
1
1
1
1
1
1
1
1
1
1
1
1
1
1
1
1
1
1
1
1
1
1
1
1
1
1
1
1
1
1
1
1
1
1
1
1
1
1
1
1
1
1
1
1
1
1
1
1
1
1
1
1
1
1
1
1
1
1
1
1
1
1
1
1
1
1
1
1
1
1
1
1
1
1
1
1
1
1
1
1
1
1
1
1
1
1
1
1
1
1
1
1
1
1
1
1
1
1
1
1
1
1
1
1
1
1
1
1
1
1
1
1
1
1
1
1
1
1
1
1
1
1
1
1
1
1
1
1
1
1
1
1
1
1
1
1
1
1
1
1
1
1
1
1
1
1
1
1
1
1
1
1
1
1
1
1
1
1
1
1
1
1
1
1
1
1
1
1
1
1
1
1
1
1
1
1
1
1
1
1
1
1
1
1
1
1
1
1
1
1
1
1
1
1
1
1
1
1
1
1
1
1
1
1
1
1
1
1
1
1
1
1
1
1
1
1
1
1
1
1
1
1
1
1
1
1
1
1
1
1
1
1
1
1
1
1
1
1
1
1
1
1
1
1
1
1
1
1
1
1
1
1
1
1
1
1
1
1
1
1
1
1
1
1
1
1
1
1
1
1
1
1
1
1
1
1
1
1
1
1
1
1
1
1
1
1
1
1
1
1
1
1
1
1
1
1
1
1
1
1
1
1
1
1
1
1
1
1
1
1
1
1
1
1
1
1
1
1
1
1
1
1
1
1
1
1
1
1
1
1
1
1
1
1
1
1
1
1
1
1
1
1
1
1
1
1
1
1
1
1
1
1
1
1
1
1
1
1
1
1
1
1
1
1
1
1
1
1
1
1
1
1
1
1
1
1
1
1
1
1
1
1
1
1
1
1
1
1
1
1
1
1
1
1
1
1
1
1
1
1
1
1
1
1
1
1
1
1
1
1
1
1
1
1
1
1
1
1
1
1
1
1
1
1
1
1
1
1
1
1
1
1
1
1
1
1
1
1
1
1
1
1
1
1
1
1
1
1
1
1
1
1
1
1
1
1
1
1
1
1
1
1
1
1
1
1
1
1
1
1
1
1
1
1
1
1
1
1
1
1
1
1
1
1
1
1
1
1
1
1
1
1
1
1
1
1
1
1
1
1
1
1
1
1
1
1
1
1
1
1
1
1
1
1
1
1
1
1
1
1
1
1
1
1
1
1
1
1
1
1
1
1
1
1
1
1
1
1
1
1
1
1
1
1
1
1
1
1
1
1
1
1
1
1
1
1
1
1
1
1
1
1
1
1
1
1
1
1
1
1
1
1
1
1
1
1
1
1
1
1
1
1
1
1
1
1
1
1
1
1
1
1
1
1
1
1
1
1
1
1
1
1
1
1
1
1
1
1
1
1
1
1
1
1
1
1
1
1
1
1
1
1
1
1
1
1
1
1
1
1
1
1
1
1
1
1
1
1
1
1
1
1
1
1
1
1
1
1
1
1
1
1
1
1
1
1
1
1
1
1
1
1
1
1
1
1
1
1
1
1
1
1
1
1
1
1
1
1
1
1
1
1
1
1
1
1
1
1
1
1
1
1
1
1
1
1
1
1
1
1
1
1
1
1
1
1
1
1
1
1
1
1
1
1
1
1
1
1
1
1
1
1
1
1
1
1
1
1
1
1
1
1
1
1
1
1
1
1
1
1
1
1
1
1
1
1
1
1
1
1
1
1
1
1
1
1
1
1
1
1
1
1
1
1
1
1
1
1
1
1
1
1
1
1
1
1
1
1
1
1
1
1
1
1
1
1
1
1
1
1
1
1
1
1
1
1
1
1
1
1
1
1
1
1
1
1
1
1
1
1
1
1
1
1
1
1
1
1
1
1
1
1
1
1
1
1
1
1
1
1
1
1
1
1
1
1
1
1
1
1
1
1
1
1
1
1
1
1
1
1
1
1
1
1
1
1
1
1
1
1
1
1
1
1
1
1
1
1
1
1
1
1
1
1
1
1
1
1
1
1
1
1
1
1
1
1
1
1
1
1
1
1
1
1
1
1
1
1
1
1
1
1
1
1
1
1
1
1
1
1
1
1
1
1
1
1
1
1
1
1
1
1
1
1
1
1
1
1
1
1
1
1
1
1
1
1
1
1
1
1
1
1
1
1
1
1
1
1
1
1
1
1
1
1
1
1
1
1
1
1
1
1
1
1
1
1
1
1
1
1
1
1
1
1
1
1
1
1
1
1
1
1
1
1
1
1
1
1
1
1
1
1
1
1
1
1
1
1
1
1
1
1
1
1
1
1
1
1
1
1
1
1
1
1
1
1
1
1
1
1
1
1
1
1
1
1
1
1
1
1
1
1
1
1
1
1
1
1
1
1
1
1
1
1
1
1
1
1
1
1
1
1
1
1
1
1
1
1
1
1
1
1
1
1
1
1
1
1
1
1
1
1
1
1
1
1
1
1
1
1
1
1
1
1
1
1
1
1
1
1
1
1
1
1
1
1
1
1
1
1
1
1
1
1
1
1
1
1
1
1
1
1
1
1
1
1
1
1
1
1
1
1
1
1
1
1
1
1
1
1
1
1
1
1
1
1
1
1
1
1
1
1
1
1
1
1
1
1
1
1
1
1
1
1
1
1
1
1
1
1
1
1
1
1
1
1
1
1
1
1
1
1
1
1
1
1
1
1
1
1
1
1
1
1
1
1
1
1
1
1
1
1
1
1
1
1
1
1
1
1
1
1
1
1
1
1
1
1
1
1
1
1
1
1
1
1
1
1
1
1
1
1
1
1
1
1
1
1
1
1
1
1
1
1
1
1
1
1
1
1
1
1
1
1
1
1
1
1
1
1
1
1
1
1
1
1
1
1
1
1
1
1
1
1
1
1
1
1
1
1
1
1
1
1
1
1
1
1
1
1
1
1
1
1
1
1
1
1
1
1
1
1
1
1
1
1
1
1
1
1
1
1
1
1
1
1
1
1
1
1
1
1
1
1
1
1
1
1
1
1
1
1
1
1
1
1
1
1
1
1
1
1
1
1
1
1
1
1
1
1
1
1
1
1
1
1
1
1
1
1
1
1
1
1
1
1
1
1
1
1
1
1
1
1
1
1
1
1
1
1
1
1
1
1
1
1
1
1
1
1
1
1
1
1
1
1
1
1
1
1
1
1
1
1
1
1
1
1
1
1
1
1
1
1
1
1
1
1
1
1
1
1
1
1
1
1
1
1
1
1
1
1
1
1
1
1
1
1
1
1
1
1
1
1
1
1
1
1
1
1
1
1
1
1
1
1
1
1
1
1
1
1
1
1
1
1
1
1
1
1
1
1
1
1
1
1
1
1
1
1
1
1
1
1
1
1
1
1
1
1
1
1
1
1
1
1
1
1
1
1
1
1
1
1
1
1
1
1
1
1
1
1
1
1
1
1
1
1
1
1
1
1
1
1
1
1
1
1
1
1
1
1
1
1
1
1
1
1
1
1
1
1
1
1
1
1
1
1
1
1
1
1
1
1
1
1
1
1
1
1
1
1
1
1
1
1
1
1
1
1
1
1
1
1
1
1
1
1
1
1
1
1
1
1
1
1
1
1
1
1
1
1
1
1
1
1
1
1
1
1
1
1
1
1
1
1
1
1
1
1
1
1
1
1
1
1
1
1
1
1
1
1
1
1
1
1
1
1
1
1
1
1
1
1
1
1
1
1
1
1
1
1
1
1
1
1
1
1
1
1
1
1
1
1
1
1
1
1
1
1
1
1
1
1
1
1
1
1
1
1
1
1
1
1
1
1
1
1
1
1
1
1
1
1
1
1
1
1
1
1
1
1
1
1
1
1
1
1
1
1
1
1
1
1
1
1
1
1
1
1
1
1
1
1
1
1
1
1
1
1
1
1
1
1
1
1
1
1
1
1
1
1
1
1
1
1
1
1
1
1
1
1
1
1
1
1
1
1
1
1
1
1
1
1
1
1
1
1
1
1
1
1
1
1
1
1
1
1
1
1
1
1
1
1
1
1
1
1
1
1
1
1
1
1
1
1
1
1
1
1
1
1
1
1
1
1
1
1
1
1
1
1
1
1
1
1
1
1
1
1
1
1
1
1
1
1
1
1
1
1
1
1
1
1
1
1
1
1
1
1
1
1
1
1
1
1
1
1
1
1
1
1
1
1
1
1
1
1
1
1
1
1
1
1
1
1
1
1
1
1
1
1
1
1
1
1
1
1
1
1
1
1
1
1
1
1
1
1
1
1
1
1
1
1
1
1
1
1
1
1
1
1
1
1
1
1
1
1
1
1
1
1
1
1
1
1
1
1
1
1
1
1
1
1
1
1
1
1
1
1
1
1
1
1
1
1
1
1
1
1
1
1
1
1
1
1
1
1
1
1
1
1
1
1
1
1
1
1
1
1
1
1
1
1
1
1
1
1
1
1
1
1
1
1
1
1
1
1
1
1
1
1
1
1
1
1
1
1
1
1
1
1
1
1
1
1
1
1
1
1
1
1
1
1
1
1
1
1
1
1
1
1
1
1
1
1
1
1
1
1
1
1
1
1
1
1
1
1
1
1
1
1
1
1
1
1
1
1
1
1
1
1
1
1
1
1
1
1
1
1
1
1
1
1
1
1
1
1
1
1
1
1
1
1
1
1
1
1
1
1
1
1
1
1
1
1
1
1
1
1
1
1
1
1
1
1
1
1
1
1
1
1
1
1
1
1
1
1
1
1
1
1
1
1
1
1
1
1
1
1
1
1
1
1
1
1
1
1
1
1
1
1
1
1
1
1
1
1
1
1
1
1
1
1
1
1
1
1
1
1
1
1
1
1
1
1
1
1
1
1
1
1
1
1
1
1
1
1
1
1
1
1
1
1
1
1
1
1
1
1
1
1
1
1
1
1
1
1
1
1
1
1
1
1
1
1
1
1
1
1
1
1
1
1
1
1
1
1
1
1
1
1
1
1
1
1
1
1
1
1
1
1
1
1
1
1
1
1
1
1
1
1
1
1
1
1
1
1
1
1
1
1
1
1
1
1
1
1
1
1
1
1
1
1
1
1
1
1
1
1
1
1
1
1
1
1
1
1
1
1
1
1
1
1
1
1
1
1
1
1
1
1
1
1
1
1
1
1
1
1
1
1
1
1
1
1
1
1
1
1
1
1
1
1
1
1
1
1
1
1
1
1
1
1
1
1
1
1
1
1
1
1
1
1
1
1
1
1
1
1
1
1
1
1
1
1
1
1
1
1
1
1
1
1
1
1
1
1
1
1
1
1
1
1
1
1
1
1
1
1
1
1
1
1
1
1
1
1
1
1
1
1
1
1
1
1
1
1
1
1
1
1
1
1
1
1
1
1
1
1
1
1
1
1
1
1
1
1
1
1
1
1
1
1
1
1
1
1
1
1
1
1
1
1
1
1
1
1
1
1
1
1
1
1
1
1
1
1
1
1
1
1
1
1
1
1
1
1
1
1
1
1
1
1
1
1
1
1
1
1
1
1
1
1
1
1
1
1
1
1
1
1
1
1
1
1
1
1
1
1
1
1
1
1
1
1
1
1
1
1
1
1
1
1
1
1
1
1
1
1
1
1
1
1
1
1
1
1
1
1
1
1
1
1
1
1
1
1
1
1
1
1
1
1
1
1
1
1
1
1
1
1
1
1
1
1
1
1
1
1
1
1
1
1
1
1
1
1
1
1
1
1
1
1
1
1
1
1
1
1
1
1
1
1
1
1
1
1
1
1
1
1
1
1
1
1
1
1
1
1
1
1
1
1
1
1
1
1
1
1
1
1
1
1
1
1
1
1
1
1
1
1
1
1
1
1
1
1
1
1
1
1
1
1
1
1
1
1
1
1
1
1
1
1
1
1
1
1
1
1
1
1
1
1
1
1
1
1
1
1
1
1
1
1
1
1
1
1
1
1
1
1
1
1
1
1
1
1
1
1
1
1
1
1
1
1
1
1
1
1
1
1
1
1
1
1
1
1
1
1
1
1
1
1
1
1
1
1
1
1
1
1
1
1
1
1
1
1
1
1
1
1
1
1
1
1
1
1
1
1
1
1
1
1
1
1
1
1
1
1
1
1
1
1
1
1
1
1
1
1
1
1
1
1
1
1
1
1
1
1
1
1
1
1
1
1
1
1
1
1
1
1
1
1
1
1
1
1
1
1
1
1
1
1
1
1
1
1
1
1
1
1
1
1
1
1
1
1
1
1
1
1
1
1
1
1
1
1
1
1
1
1
1
1
1
1
1
1
1
1
1
1
1
1
1
1
1
1
1
1
1
1
1
1
1
1
1
1
1
1
1
1
1
1
1
1
1
1
1
1
1
1
1
1
1
1
1
1
1
1
1
1
1
1
1
1
1
1
1
1
1
1
1
1
1
1
1
1
1
1
1
1
1
1
1
1
1
1
1
1
1
1
1
1
1
1
1
1
1
1
1
1
1
1
1
1
1
1
1
1
1
1
1
1
1
1
1
1
1
1
1
1
1
1
1
1
1
1
1
1
1
1
1
1
1
1
1
1
1
1
1
1
1
1
1
1
1
1
1
1
1
1
1
1
1
1
1
1
1
1
1
1
1
1
1
1
1
1
1
1
1
1
1
1
1
1
1
1
1
1
1
1
1
1
1
1
1
1
1
1
1
1
1
1
1
1
1
1
1
1
1
1
1
1
1
1
1
1
1
1
1
1
1
1
1
1
1
1
1
1
1
1
1
1
1
1
1
1
1
1
1
1
1
1
1
1
1
1
1
1
1
1
1
1
1
1
1
1
1
1
1
1
1
1
1
1
1
1
1
1
1
1
1
1
1
1
1
1
1
1
1
1
1
1
1
1
1
1
1
1
1
1
1
1
1
1
1
1
1
1
1
1
1
1
1
1
1
1
1
1
1
1
1
1
1
1
1
1
1
1
1
1
1
1
1
1
1
1
1
1
1
1
1
1
1
1
1
1
1
1
1
1
1
1
1
1
1
1
1
1
1
1
1
1
1
1
1
1
1
1
1
1
1
1
1
1
1
1
1
1
1
1
1
1
1
1
1
1
1
1
1
1
1
1
1
1
1
1
1
1
1
1
1
1
1
1
1
1
1
1
1
1
1
1
1
1
1
1
1
1
1
1
1
1
1
1
1
1
1
1
1
1
1
1
1
1
1
1
1
1
1
1
1
1
1
1
1
1
1
1
1
1
1
1
1
1
1
1
1
1
1
1
1
1
1
1
1
1
1
1
1
1
1
1
1
1
1
1
1
1
1
1
1
1
1
1
1
1
1
1
1
1
1
1
1
1
1
1
1
1
1
1
1
1
1
1
1
1
1
1
1
1
1
1
1
1
1
1
1
1
1
1
1
1
1
1
1
1
1
1
1
1
1
1
1
1
1
1
1
1
1
1
1
1
1
1
1
1
1
1
1
1
1
1
1
1
1
1
1
1
1
1
1
1
1
1
1
1
1
1
1
1
1
1
1
1
1
1
1
1
1
1
1
1
1
1
1
1
1
1
1
1
1
1
1
1
1
1
1
1
1
1
1
1
1
1
1
1
1
1
1
1
1
1
1
1
1
1
1
1
1
1
1
1
1
1
1
1
1
1
1
1
1
1
1
1
1
1
1
1
1
1
1
1
1
1
1
1
1
1
1
1
1
1
1
1
1
1
1
1
1
1
1
1
1
1
1
1
1
1
1
1
1
1
1
1
1
1
1
1
1
1
1
1
1
1
1
1
1
1
1
1
1
1
1
1
1
1
1
1
1
1
1
1
1
1
1
1
1
1
1
1
1
1
1
1
1
1
1
1
1
1
1
1
1
1
1
1
1
1
1
1
1
1
1
1
1
1
1
1
1
1
1
1
1
1
1
1
1
1
1
1
1
1
1
1
1
1
1
1
1
1
1
1
1
1
1
1
1
1
1
1
1
1
1
1
1
1
1
1
1
1
1
1
1
1
1
1
1
1
1
1
1
1
1
1
1
1
1
1
1
1
1
1
1
1
1
1
1
1
1
1
1
1
1
1
1
1
1
1
1
1
1
0.775225
0.882331
0.926506
0.673751
0.695849
0.652267
0.673935