/*--------------------------------*- C++ -*----------------------------------*\
| =========                 |                                                 |
| \\      /  F ield         | OpenFOAM: The Open Source CFD Toolbox           |
|  \\    /   O peration     | Version:  5.x                                   |
|   \\  /    A nd           | Web:      www.OpenFOAM.org                      |
|    \\/     M anipulation  |                                                 |
\*---------------------------------------------------------------------------*/
FoamFile
{
    version     2.0;
    format      ascii;
    class       volScalarField;
    location    "7";
    object      p;
}
// * * * * * * * * * * * * * * * * * * * * * * * * * * * * * * * * * * * * * //

dimensions      [0 2 -2 0 0 0 0];

internalField   nonuniform List<scalar> 
10571
(
61.3796
67.3134
64.3504
68.7097
94.4942
56.2643
88.4279
102.326
112.012
109.247
45.9206
51.421
139.771
186.752
182.168
130.167
88.5602
163.921
208.282
188.367
146.434
152.146
172.728
169.9
41.0843
41.6261
41.3662
40.3201
37.5273
41.952
38.9454
34.9338
29.23
36.1574
42.5657
43.1255
40.0813
18.8537
19.5885
36.7259
44.6237
47.4015
36.8045
64.3541
46.0161
65.0659
70.5351
68.4959
12.2673
33.959
32.389
17.8681
2.92977
36.5221
4.79144
3.025
2.0785
3.59114
40.1289
38.9236
3.21457
1.80935
1.46012
2.7642
35.8724
2.89324
2.15393
2.21033
2.40722
8.31998
6.39664
2.70427
2.30979
2.08449
2.01152
2.18609
2.53758
2.18801
1.61783
2.15526
2.29193
2.67127
3.61502
2.70262
2.17835
2.69061
2.65171
2.70909
2.06324
2.20027
2.42884
2.48169
2.53727
2.60518
2.69876
2.63594
2.37999
2.34581
2.32424
2.31809
2.4371
2.50306
2.9762
2.7735
2.54228
2.4737
2.84655
2.65238
2.75065
2.52037
2.4451
2.47955
2.45802
2.5196
2.48147
2.44551
2.42873
2.48533
2.55663
2.51237
2.44471
2.46444
2.45998
2.43256
2.4324
2.49927
2.52999
2.53147
2.44064
2.45721
2.46431
2.50722
2.51031
2.5183
2.46746
2.42086
2.46667
2.46944
2.46875
2.48458
2.46066
2.44668
2.45043
2.47924
2.50438
2.47538
2.48195
2.49972
2.50652
2.48531
2.46315
2.51367
2.56178
2.48353
2.45576
2.45423
2.46206
2.52418
2.51517
2.51288
2.48566
2.44744
2.45493
2.46158
2.49499
2.49279
2.46308
2.43687
2.45225
2.46519
2.47963
2.47589
2.47098
2.49369
2.49922
2.49917
2.49998
2.48963
2.50875
2.5604
2.50037
2.47328
2.44734
2.4649
2.5101
2.50855
2.51044
2.49466
2.46724
2.44697
2.45246
2.50313
2.49305
2.46816
2.43359
2.44294
2.45849
2.48549
2.47486
2.47147
2.49055
2.49092
2.48424
2.49203
2.48928
2.49803
2.50892
2.50163
2.46776
2.45473
2.47193
2.51324
2.50387
2.49336
2.49479
2.48261
2.45871
2.46205
2.50145
2.48467
2.47924
2.44869
2.46044
2.4879
2.47954
2.47526
2.486
2.48714
2.4817
2.48449
2.48125
2.49
2.47452
2.48947
2.45713
2.45288
2.53557
2.50341
2.483
2.4932
2.49231
2.48381
2.49888
2.48358
2.49418
2.4645
2.47455
2.49212
2.49068
2.48741
2.48493
2.48804
2.47739
2.48133
2.47947
2.48652
2.46082
2.48308
2.46254
2.46993
2.517
2.50239
2.49258
2.49362
2.50437
2.48956
2.50001
2.49267
2.50459
2.4804
2.49104
2.50098
2.5027
2.50188
2.49005
2.49562
2.4798
2.48592
2.48749
2.4928
2.47354
2.48979
2.49918
2.48795
2.51151
2.50775
2.50914
2.50843
2.518
2.50786
2.50878
2.50239
2.51928
2.50307
2.51223
2.51249
2.51565
2.51739
2.50417
2.50555
2.49395
2.49746
2.50379
2.5099
2.50497
2.51391
2.52516
2.51142
2.51633
2.52048
2.53215
2.52858
2.53045
2.52151
2.52254
2.51533
2.52934
2.5224
2.52718
2.52398
2.52712
2.53062
2.52273
2.51264
2.51033
2.51433
2.5195
2.52174
2.53528
2.53612
2.53376
2.52629
2.52666
2.53224
2.54605
2.53756
2.53041
2.52581
2.53131
2.5267
2.53414
2.53158
2.53378
2.53267
2.53539
2.53835
2.53366
2.51862
2.51708
2.52341
2.52869
2.52311
2.54969
2.54653
2.53713
2.53371
2.53649
2.53182
2.53918
2.53667
2.52801
2.52577
2.53229
2.53146
2.53729
2.53379
2.53585
2.53727
2.53991
2.54146
2.5466
2.52586
2.52147
2.53951
2.53402
2.52472
2.54658
2.54535
2.53679
2.53587
2.53135
2.52607
2.53175
2.53447
2.52728
2.52464
2.5294
2.53046
2.53738
2.53168
2.53474
2.5385
2.5423
2.54242
2.55204
2.53302
2.53579
2.55074
2.5318
2.52791
2.54133
2.54033
2.53032
2.53456
2.52692
2.52228
2.52849
2.53162
2.52471
2.52408
2.52564
2.52819
2.53654
2.52554
2.52878
2.53785
2.54248
2.54312
2.54134
2.53372
2.53857
2.5489
2.52624
2.52748
2.53257
2.53073
2.52216
2.53281
2.52174
2.51747
2.52326
2.52833
2.52233
2.52898
2.51711
2.52515
2.53116
2.51622
2.52391
2.53446
2.54037
2.54345
2.53494
2.5288
2.52946
2.53158
2.52673
2.52259
2.5213
2.51919
2.52468
2.53018
2.51608
2.51106
2.51642
2.52664
2.51841
2.53632
2.50358
2.52011
2.52265
2.51225
2.52914
2.5285
2.53624
2.54295
2.52932
2.52544
2.52218
2.52451
2.53112
2.51946
2.51399
2.51418
2.52457
2.52721
2.51261
2.50662
2.51061
2.51886
2.51678
2.53837
2.49206
2.51671
2.51952
2.5197
2.55216
2.52445
2.53296
2.54277
2.52598
2.52552
2.51988
2.52131
2.53577
2.51992
2.51063
2.51308
2.52379
2.52435
2.51344
2.50811
2.50771
2.50914
2.51439
2.53343
2.49217
2.51394
2.52217
2.53532
2.55466
2.52421
2.53451
2.54693
2.52567
2.52904
2.52169
2.51931
2.53715
2.52297
2.51194
2.51609
2.52654
2.52417
2.51897
2.5136
2.50776
2.51573
2.51802
2.52702
2.50468
2.51281
2.52848
2.54713
2.54763
2.52835
2.54097
2.55765
2.52951
2.53502
2.52856
2.52321
2.53706
2.52693
2.52058
2.52091
2.527
2.52736
2.52789
2.523
2.51264
2.52127
2.51671
2.5251
2.5274
2.51436
2.5185
2.53881
2.5353
2.53064
2.55678
2.56877
2.53671
2.54143
2.53783
2.53147
2.53996
2.53334
2.53056
2.5308
2.5313
2.53261
2.53754
2.53394
2.52592
2.53088
2.51475
2.52721
2.54752
2.52611
2.51037
2.52092
2.52938
2.53316
2.51473
2.53701
2.54439
2.54593
2.54657
2.54122
2.54515
2.5406
2.53987
2.54237
2.54087
2.5407
2.54544
2.54408
2.53649
2.53984
2.52446
2.53352
2.5619
2.5399
2.5307
2.5239
2.53248
2.53539
2.49367
2.52362
2.55035
2.5485
2.55287
2.54978
2.55067
2.54507
2.54755
2.55037
2.54988
2.54917
2.55132
2.55108
2.54623
2.5455
2.53568
2.54057
2.56493
2.55387
2.54322
2.53427
2.53926
2.54555
2.49743
2.52758
2.55732
2.55271
2.55618
2.55531
2.55344
2.5497
2.54999
2.55363
2.55351
2.5527
2.55446
2.55431
2.55112
2.54938
2.54444
2.5459
2.56192
2.55928
2.54617
2.54289
2.54517
2.53707
2.5159
2.53742
2.5621
2.55888
2.55788
2.55908
2.55551
2.55499
2.55264
2.55207
2.55421
2.55341
2.55579
2.55598
2.55324
2.55104
2.54986
2.54983
2.55868
2.55662
2.54895
2.54792
2.54959
2.55158
2.5453
2.5472
2.56167
2.56461
2.56049
2.56011
2.55714
2.55874
2.55762
2.55242
2.55627
2.55462
2.55601
2.55693
2.55534
2.55246
2.55426
2.55399
2.55653
2.55722
2.55499
2.5514
2.5532
2.55626
2.56406
2.55443
2.56035
2.56585
2.56275
2.55955
2.55879
2.55985
2.56066
2.55596
2.55899
2.55655
2.55541
2.55641
2.55775
2.55351
2.55787
2.55671
2.555
2.56315
2.55768
2.55453
2.55597
2.56605
2.5685
2.55933
2.55992
2.56331
2.56365
2.55845
2.55721
2.55862
2.55867
2.55521
2.56354
2.55915
2.55401
2.55476
2.55565
2.5533
2.55877
2.55683
2.55344
2.56152
2.55469
2.55764
2.55703
2.5668
2.56746
2.56298
2.55879
2.55934
2.56042
2.55733
2.55556
2.55529
2.55482
2.55082
2.56078
2.55827
2.55234
2.55249
2.55386
2.5527
2.55636
2.55512
2.55244
2.5586
2.55255
2.55771
2.55569
2.56625
2.56217
2.56387
2.55729
2.55545
2.55666
2.55613
2.55709
2.55139
2.55051
2.54788
2.5552
2.55605
2.55091
2.55018
2.55245
2.55233
2.55189
2.55391
2.55201
2.55658
2.5515
2.55664
2.55382
2.56521
2.55881
2.56261
2.55571
2.55258
2.55375
2.55445
2.55498
2.54882
2.546
2.55291
2.55449
2.55546
2.55013
2.54845
2.55088
2.55245
2.54703
2.55393
2.55222
2.55558
2.55129
2.55525
2.55354
2.56334
2.55722
2.55993
2.55435
2.5508
2.55146
2.55313
2.55368
2.54779
2.5424
2.55837
2.55481
2.55571
2.55036
2.54896
2.54816
2.55245
2.5479
2.55438
2.55233
2.55503
2.55248
2.55348
2.55454
2.56057
2.55589
2.55637
2.5538
2.55035
2.54974
2.55302
2.55225
2.54765
2.54341
2.56585
2.55576
2.55643
2.55113
2.55046
2.54757
2.55255
2.55101
2.55517
2.55256
2.55317
2.55407
2.55215
2.55488
2.55733
2.55458
2.55486
2.55485
2.55157
2.55065
2.55502
2.55151
2.5504
2.54751
2.56794
2.55298
2.55716
2.55212
2.55136
2.5484
2.55279
2.55441
2.55679
2.55226
2.55267
2.55494
2.55169
2.55545
2.55548
2.55496
2.55594
2.55543
2.55336
2.55227
2.55467
2.55117
2.55353
2.54766
2.55774
2.55056
2.55699
2.55313
2.55169
2.55115
2.5533
2.5583
2.55889
2.55243
2.55274
2.55462
2.55318
2.55721
2.55537
2.55631
2.5579
2.55524
2.5546
2.55287
2.55533
2.55261
2.55537
2.5459
2.55121
2.55156
2.55636
2.55439
2.55312
2.55313
2.55121
2.56089
2.56033
2.55339
2.55319
2.55497
2.55511
2.55899
2.55615
2.55766
2.55942
2.55456
2.55505
2.55221
2.55476
2.554
2.55554
2.5473
2.54899
2.55369
2.5558
2.55582
2.55431
2.55433
2.54875
2.56069
2.56016
2.55512
2.55406
2.55586
2.55631
2.56053
2.55693
2.55837
2.55981
2.55399
2.5555
2.55194
2.55259
2.55503
2.55574
2.55047
2.54955
2.55522
2.5554
2.55736
2.55609
2.55551
2.54903
2.55762
2.55841
2.5565
2.55571
2.55657
2.56166
2.56135
2.55766
2.55828
2.56004
2.5544
2.55669
2.55329
2.55233
2.5551
2.55649
2.55351
2.55195
2.55561
2.55528
2.55885
2.55774
2.55704
2.55125
2.55387
2.5562
2.55787
2.55736
2.55662
2.55926
2.55891
2.55822
2.55779
2.5584
2.5563
2.55844
2.55577
2.5547
2.5558
2.55752
2.55635
2.55576
2.55563
2.55555
2.56024
2.55905
2.55822
2.55467
2.55061
2.55414
2.55932
2.55855
2.55635
2.55552
2.55579
2.55878
2.55736
2.55605
2.55871
2.56009
2.55919
2.55759
2.55687
2.55844
2.56039
2.55947
2.55596
2.55606
2.56155
2.56016
2.55947
2.55835
2.54899
2.55135
2.56106
2.55946
2.55712
2.55258
2.55242
2.55982
2.55754
2.55439
2.56057
2.56064
2.56239
2.55964
2.55791
2.56049
2.56687
2.561
2.55585
2.55568
2.56314
2.56171
2.56135
2.55979
2.54925
2.54855
2.56305
2.56024
2.55904
2.55273
2.5515
2.56128
2.55902
2.55501
2.56169
2.56056
2.56324
2.561
2.55886
2.56069
2.56666
2.56038
2.55484
2.55555
2.56493
2.5641
2.56342
2.56
2.5502
2.54894
2.56492
2.56173
2.56043
2.55455
2.55337
2.5638
2.56095
2.55756
2.56243
2.56235
2.56336
2.56199
2.55972
2.55957
2.56254
2.56016
2.55369
2.5562
2.56627
2.56602
2.56315
2.55993
2.55233
2.55215
2.5666
2.5634
2.56191
2.55764
2.55638
2.56575
2.56327
2.56048
2.56312
2.56688
2.564
2.56275
2.56054
2.56285
2.55993
2.56072
2.55416
2.55828
2.56728
2.56766
2.56244
2.5603
2.55522
2.55649
2.56808
2.56553
2.56352
2.5596
2.5592
2.56739
2.56577
2.56306
2.56376
2.56849
2.56443
2.56303
2.5614
2.56757
2.56002
2.56101
2.55636
2.56063
2.56941
2.56885
2.56178
2.56064
2.55727
2.55982
2.56888
2.5657
2.565
2.56091
2.56146
2.5687
2.56907
2.56581
2.56439
2.56666
2.56427
2.56297
2.56218
2.56726
2.56047
2.5607
2.55894
2.56247
2.57041
2.56972
2.56142
2.56084
2.55926
2.56158
2.56831
2.5649
2.56517
2.56245
2.56315
2.56868
2.57023
2.56767
2.56539
2.56451
2.56423
2.56314
2.56325
2.56384
2.56013
2.56003
2.5609
2.56412
2.56866
2.56726
2.56165
2.56137
2.56086
2.5624
2.56732
2.5644
2.56447
2.56372
2.56435
2.5679
2.56881
2.56761
2.56716
2.56441
2.56471
2.56418
2.56469
2.5607
2.56069
2.55965
2.56249
2.56604
2.56718
2.56445
2.56273
2.56279
2.56161
2.5633
2.56718
2.56545
2.56594
2.56455
2.56519
2.56731
2.56827
2.56693
2.56993
2.56703
2.56668
2.56665
2.56667
2.56179
2.56226
2.56116
2.56436
2.56856
2.56723
2.56409
2.56428
2.56512
2.56344
2.56521
2.56981
2.56844
2.56758
2.56444
2.56658
2.56674
2.56796
2.56718
2.57335
2.57103
2.57056
2.57027
2.56911
2.56681
2.56638
2.56508
2.5676
2.57107
2.56896
2.5664
2.56703
2.56727
2.56617
2.56821
2.57349
2.57066
2.57147
2.56802
2.56919
2.56671
2.56825
2.56954
2.57663
2.57479
2.57452
2.57381
2.57135
2.57213
2.57243
2.56961
2.57011
2.57239
2.57216
2.56947
2.57074
2.56875
2.56646
2.56959
2.5761
2.5732
2.57358
2.57083
2.57053
2.56971
2.5697
2.57141
2.57912
2.57823
2.57752
2.57641
2.57281
2.57698
2.57705
2.57325
2.56981
2.57174
2.57609
2.57398
2.57206
2.56853
2.56384
2.56885
2.57725
2.57442
2.57145
2.5694
2.56905
2.57293
2.57102
2.57178
2.58101
2.58179
2.58042
2.57813
2.57377
2.58177
2.58154
2.5739
2.5665
2.56831
2.58038
2.57928
2.57304
2.56657
2.55912
2.56468
2.57958
2.57242
2.56753
2.56478
2.56474
2.57501
2.57088
2.57077
2.58391
2.58527
2.58424
2.58082
2.57456
2.58542
2.58363
2.57233
2.56042
2.5606
2.58478
2.58421
2.57653
2.56337
2.55302
2.55577
2.58196
2.57194
2.56356
2.55918
2.55709
2.57611
2.56969
2.56795
2.58844
2.58867
2.58789
2.58517
2.57467
2.58825
2.58374
2.56823
2.54855
2.54732
2.58857
2.58724
2.57846
2.55934
2.53855
2.53775
2.58332
2.57296
2.55961
2.54934
2.54336
2.57629
2.56747
2.56275
2.59294
2.59152
2.59091
2.58784
2.5739
2.59065
2.58363
2.56282
2.52819
2.52039
2.59084
2.58864
2.57816
2.5515
2.51623
2.50039
2.58387
2.57384
2.55536
2.53609
2.51929
2.57704
2.56479
2.5558
2.59883
2.59393
2.59324
2.58949
2.57225
2.59307
2.58426
2.55274
2.49315
2.46092
2.59263
2.58975
2.57836
2.54054
2.47817
2.41477
2.58488
2.57496
2.55099
2.51691
2.47479
2.57787
2.56177
2.54724
2.60617
2.59596
2.59452
2.59234
2.56921
2.59528
2.58487
2.53828
2.44113
2.31384
2.59542
2.59236
2.57957
2.52643
2.42588
2.23047
2.58722
2.57624
2.54768
2.49348
2.39017
2.57885
2.56009
2.53933
2.6086
2.59685
2.58449
2.59012
2.56123
2.59827
2.58441
2.51963
2.38115
1.94654
2.59903
2.59574
2.58075
2.50945
2.37353
1.93173
-2.09661
2.59095
2.57832
2.54669
2.47077
2.20904
2.58008
2.56028
2.53505
2.59028
2.60413
2.56534
2.55953
2.54638
2.60379
2.58367
2.512
2.34294
1.65936
0.0507901
2.60266
2.59876
2.57664
2.5133
2.3676
1.90546
0.0241154
2.59747
2.581
2.54762
2.46629
2.01129
2.58311
2.56399
2.54015
2.58587
2.60805
2.57724
2.55498
2.51824
2.60866
2.58312
2.51567
2.37146
1.6939
0.324251
2.60428
2.60172
2.57348
2.52225
2.42463
1.91756
0.462395
2.61001
2.58422
2.5523
2.50239
2.22209
0.788409
2.58896
2.57211
2.55778
2.58377
2.59883
2.58553
2.56197
2.54566
2.60167
2.57831
2.53384
2.47141
1.97108
0.470632
2.61344
2.61211
2.5736
2.53127
2.48206
2.05617
0.472099
2.62613
2.59073
2.56363
2.52481
2.38096
2.60398
2.58557
2.57706
2.59445
2.58416
2.57989
2.58185
2.59016
2.58908
2.57505
2.56136
2.54466
2.28833
2.61996
2.61115
2.57648
2.54297
2.53278
2.24827
-0.515659
2.62993
2.59966
2.57972
2.55842
2.58068
2.62617
2.60243
2.59362
2.60606
2.57843
2.57262
2.59196
2.6144
2.58108
2.5688
2.57426
2.58851
2.59207
2.60727
2.59871
2.57508
2.56543
2.57781
2.55377
2.6202
2.6029
2.59179
2.59243
2.61468
2.63416
2.61824
2.61472
2.60923
2.57803
2.56713
2.59427
2.62108
2.57838
2.56425
2.57916
2.60023
2.63654
2.59793
2.59122
2.57411
2.57999
2.59529
2.6143
2.61021
2.60091
2.60269
2.6084
2.62271
2.62449
2.62449
2.62978
2.60904
2.58184
2.56883
2.59016
2.6174
2.5794
2.56249
2.58229
2.60366
2.63134
2.59476
2.58895
2.57372
2.58227
2.59723
2.6186
2.6031
2.59406
2.60678
2.61086
2.621
2.61364
2.62261
2.62678
2.60897
2.58362
2.5765
2.58732
2.61364
2.58009
2.56486
2.58103
2.60136
2.62345
2.5958
2.58879
2.57479
2.57975
2.59582
2.61412
2.59991
2.59044
2.59437
2.60394
2.61274
2.60427
2.60809
2.61144
2.61199
2.58788
2.58639
2.59029
2.61251
2.57894
2.56892
2.58074
2.59894
2.61622
2.59902
2.58907
2.5786
2.57746
2.5935
2.60618
2.59928
2.59034
2.58766
2.59504
2.60393
2.59869
2.59692
2.59951
2.61938
2.60571
2.59796
2.60017
2.61597
2.58962
2.58201
2.58567
2.59883
2.6123
2.60893
2.59355
2.58357
2.58127
2.59162
2.6015
2.60338
2.58905
2.58392
2.58851
2.59698
2.59733
2.5899
2.59193
2.62802
2.62713
2.60863
2.61158
2.62447
2.60663
2.59469
2.59224
2.60239
2.61287
2.62514
2.60434
2.58971
2.5856
2.59086
2.60035
2.61196
2.5934
2.58515
2.58504
2.59402
2.60399
2.59118
2.59024
2.64029
2.63278
2.61623
2.61917
2.63124
2.61672
2.59934
2.59809
2.60603
2.61721
2.64646
2.61555
2.59498
2.59124
2.59371
2.60377
2.62314
2.59968
2.58993
2.58752
2.59562
2.61523
2.59861
2.58891
131.224
134.118
142.051
147.411
138.345
151.048
149.828
144.816
133.931
132.194
148.071
150.703
149.988
150.884
155.857
154.748
160.164
158.423
160.63
163.692
165.843
157.372
151.668
169.843
170.584
166.178
141.921
126.703
136.371
145.383
154.718
146.697
166.25
176.093
185.787
202.801
223.596
186.246
182.649
229.165
230.01
191.338
201.827
230.94
230.804
187.808
208.029
192.563
127.234
136.427
139.517
148.491
173.378
156.8
185.884
221.088
248.87
235.629
264.21
259.497
260.974
276.333
277.803
258.43
248.158
273.717
257.18
219.456
197.512
225.773
144.91
168.065
200.929
176.829
209.579
246.616
274.414
248.173
268.978
283.935
283.855
278.127
274.282
274.237
246.801
261.645
236.726
222.595
209.412
235.608
247.267
232.984
253.868
252.161
237.964
243.588
64.6198
43.2527
60.5787
62.734
65.9571
41.7333
43.3342
42.9459
70.935
80.0563
41.1721
42.4809
43.9811
88.4148
45.7868
60.4531
42.5594
66.6808
62.8101
60.4272
43.8954
44.0328
43.0766
41.9915
95.9688
83.9209
94.4341
44.47
43.4644
39.3146
40.9018
99.1863
39.6615
53.5385
46.0758
49.4696
41.687
41.1207
41.5353
121.929
108.348
39.8867
41.5498
40.339
50.5491
56.0824
41.408
41.8758
42.6592
111.81
127.034
47.283
44.2406
56.2232
73.6454
44.9961
108.763
110.806
131.776
48.1314
55.5429
54.3902
63.0209
166.301
172.069
160.927
114.753
92.6665
99.1717
86.7523
73.3579
139.132
68.8355
167.213
158.308
82.4362
89.0257
82.3875
172.574
160.65
92.3658
98.6672
81.3679
96.0205
41.5771
41.3736
41.2002
41.5139
41.18
40.9553
40.9612
40.7004
40.9962
40.3671
40.8066
40.4036
39.6286
39.1384
35.5695
41.5949
40.9918
41.5873
41.5715
41.5957
41.4651
41.4472
41.0684
40.5073
36.0819
37.0155
37.237
35.9647
33.5822
38.381
39.0109
36.8804
36.933
41.8657
42.3006
42.3319
40.7386
40.7074
40.6895
35.9509
35.325
34.5188
34.7475
33.0389
42.7402
43.1133
40.8422
40.9063
41.556
35.6168
39.838
33.0784
31.7437
29.442
43.7296
42.7451
47.1918
47.092
51.4528
43.8573
46.4133
45.1203
48.6631
55.6042
66.47
59.9771
20.1652
22.2252
37.2467
33.5285
23.6667
56.6492
52.4628
69.5059
69.5934
56.6611
61.1003
65.1382
71.586
70.1123
60.1844
52.4247
66.5135
44.3911
28.7503
2.5725
18.9079
29.4756
24.3532
2.28386
2.63355
2.53857
11.7871
5.04608
2.03775
2.16152
2.08133
3.03394
2.07842
37.3407
6.57314
34.6028
36.3142
33.7033
2.74255
2.77357
5.82587
5.83378
2.57227
14.2069
3.35203
2.02956
2.03605
1.70704
1.91804
3.06634
1.85358
38.3663
40.0767
39.7304
19.9111
35.258
32.9254
3.02859
4.61087
1.57227
1.72277
1.67984
39.8124
39.2121
36.5332
33.9004
27.5309
4.15295
2.54169
1.84087
1.73037
1.78642
37.8661
10.4643
30.9471
26.0816
15.9497
5.88608
2.8837
2.62239
2.37347
2.26617
2.62134
2.50551
2.15822
2.11972
2.01211
2.02888
2.04515
9.09295
2.19027
8.82721
9.0978
2.03226
2.03789
1.98967
3.55717
7.2979
1.97174
1.94783
1.90217
2.04644
2.13208
2.56099
2.2251
2.14536
2.18689
2.5027
2.56441
2.51298
2.32031
2.45929
2.39798
2.37251
2.32914
2.49867
2.34734
1.94648
2.47898
2.09644
1.96621
1.76999
2.54517
2.55208
2.52986
2.57802
2.52761
2.35486
2.58142
2.32596
2.30835
2.47122
2.31763
2.5965
2.3073
2.19331
3.13269
2.88232
2.28111
2.04813
2.0977
2.6882
2.68795
2.40747
2.39531
2.40256
3.18304
2.52347
1.97518
2.03266
2.17192
2.71817
2.63012
2.4085
2.43126
2.4068
1.89939
2.4313
2.15698
2.21809
2.34319
2.48826
2.52655
2.45106
2.42005
2.49884
2.60986
2.57513
2.42446
2.40877
2.44856
2.43587
2.38725
2.45905
2.42351
2.60191
2.60225
2.37954
2.38791
2.40774
2.69105
2.68086
2.39725
2.42489
2.40771
2.40328
2.35971
2.49751
2.37822
2.36995
2.37905
2.46412
2.49983
2.47132
2.38425
2.40474
2.42798
2.42634
2.40411
2.4282
2.39991
2.42801
2.46971
2.32828
2.37762
2.38664
2.49779
2.50861
2.47862
2.47495
2.45526
2.42273
2.4509
2.38011
2.39908
2.40443
2.39264
2.48068
2.4347
2.5284
2.76244
2.69032
2.4823
2.57752
2.53062
2.47292
2.47174
2.46277
2.46102
2.39372
2.79611
2.60827
2.62267
2.5846
2.51324
2.47351
2.45019
2.46301
2.36818
2.46044
2.51257
2.47287
2.43208
2.45015
2.44308
2.4584
2.4669
2.46052
2.45823
2.43765
2.48577
2.47158
2.41544
2.43716
2.44744
2.4624
2.43772
2.46447
2.45631
2.5431
2.55088
2.43581
2.42725
2.46875
2.52841
2.55922
2.43644
2.4355
2.44959
2.44013
2.45969
2.48996
2.45964
2.4619
2.45759
2.47273
2.48877
2.47615
2.44
2.43447
2.46418
2.46494
2.46239
2.44059
2.45027
2.48524
2.49563
2.45169
2.48204
2.4913
2.49034
2.49446
2.4943
2.50656
2.45261
2.41425
2.45522
2.44193
2.45009
2.43276
2.45446
2.45362
2.45758
2.48966
2.50027
2.49845
2.50244
2.51542
2.51391
2.45749
2.4613
2.49284
2.45804
2.46726
2.45337
2.4578
2.46957
2.46467
2.47048
2.4633
2.46773
2.46679
2.46744
2.50372
2.49063
2.51646
2.51444
2.50592
2.48868
2.46049
2.46002
2.45968
2.45337
2.45923
2.46579
2.46828
2.47038
2.47167
2.46782
2.46423
2.46817
2.46868
2.48001
2.4966
2.46869
2.46523
2.46677
2.48431
2.4796
2.48707
2.49057
2.44435
2.47011
2.45663
2.42642
2.43849
2.44367
2.45344
2.44339
2.47329
2.48316
2.49671
2.51182
2.47522
2.47496
2.48178
2.49431
2.51078
2.46832
2.45955
2.46997
2.4492
2.49759
2.49928
2.48563
2.49628
2.48718
2.48972
2.49675
2.4891
2.48238
2.47849
2.49105
2.49206
2.48973
2.46878
2.483
2.50458
2.50631
2.49818
2.50242
2.51421
2.50227
2.50132
2.50307
2.51209
2.46566
2.45293
2.46406
2.4805
2.47393
2.47604
2.47197
2.46155
2.46814
2.45866
2.47358
2.46558
2.46862
2.46526
2.46929
2.5099
2.52276
2.51959
2.51171
2.51737
2.51476
2.46606
2.45418
2.46551
2.43937
2.46179
2.45068
2.46879
2.46775
2.46405
2.46681
2.46258
2.46807
2.46275
2.46653
2.52133
2.51521
2.51892
2.51665
2.51516
2.46079
2.46511
2.46829
2.44999
2.45969
2.45154
2.45899
2.46364
2.46597
2.46785
2.45492
2.46136
2.45751
2.46533
2.50933
2.51373
2.48578
2.49509
2.49392
2.50066
2.4912
2.50121
2.50099
2.44933
2.4661
2.45941
2.43104
2.43862
2.44966
2.44836
2.46771
2.43828
2.4612
2.47083
2.4599
2.4694
2.48882
2.49554
2.48616
2.48975
2.48333
2.48827
2.48908
2.47858
2.48262
2.47385
2.47009
2.47762
2.4576
2.49577
2.49075
2.48749
2.49379
2.4854
2.484
2.48708
2.48114
2.49481
2.49424
2.49292
2.49353
2.49406
2.49009
2.49124
2.50168
2.49737
2.49903
2.49869
2.50609
2.4948
2.49405
2.4944
2.49839
2.47919
2.48949
2.47767
2.49222
2.48124
2.49355
2.47646
2.46185
2.4742
2.4566
2.47453
2.46639
2.47102
2.46878
2.4736
2.50801
2.50507
2.5043
2.50054
2.49458
2.49505
2.46892
2.45259
2.4729
2.45081
2.47347
2.45193
2.47599
2.47034
2.464
2.46869
2.46877
2.47348
2.46812
2.47289
2.50993
2.51436
2.50544
2.5068
2.5147
2.46152
2.45516
2.46615
2.44697
2.465
2.45237
2.46885
2.46353
2.4578
2.46778
2.4544
2.46623
2.45706
2.47007
2.51115
2.50888
2.49293
2.50392
2.5003
2.50288
2.49325
2.50367
2.49822
2.45348
2.46955
2.46479
2.43888
2.44513
2.45966
2.45732
2.46154
2.43472
2.46599
2.46944
2.46024
2.47124
2.49584
2.49568
2.489
2.48962
2.48692
2.4894
2.48898
2.47549
2.47951
2.4762
2.47831
2.48159
2.46735
2.48704
2.4852
2.48286
2.48215
2.48005
2.4836
2.48128
2.48159
2.49019
2.49088
2.48816
2.48606
2.48652
2.48822
2.48388
2.49476
2.4924
2.49002
2.49057
2.49074
2.48838
2.48725
2.48744
2.48433
2.48015
2.4897
2.47253
2.48475
2.47811
2.48486
2.46676
2.45802
2.46063
2.49634
2.49621
2.4929
2.49475
2.5127
2.49975
2.48348
2.45813
2.48305
2.45523
2.47983
2.46432
2.48166
2.47677
2.47516
2.47765
2.47704
2.4771
2.48475
2.48127
2.50954
2.51573
2.52995
2.51855
2.51781
2.47896
2.46638
2.47561
2.46761
2.48307
2.46514
2.47567
2.47123
2.45694
2.47436
2.47504
2.47339
2.46589
2.47526
2.50887
2.50886
2.49224
2.50219
2.49465
2.49988
2.49057
2.50033
2.49115
2.45711
2.47062
2.4714
2.45767
2.46598
2.47326
2.47502
2.46567
2.49464
2.4933
2.48929
2.48882
2.48965
2.48966
2.48958
2.48366
2.48595
2.48449
2.48956
2.49122
2.48055
2.48443
2.48457
2.48507
2.48075
2.48367
2.48637
2.47954
2.48519
2.48307
2.48325
2.48488
2.48126
2.48179
2.48035
2.4787
2.4908
2.49048
2.4855
2.48513
2.4792
2.48697
2.48474
2.48414
2.4756
2.47603
2.47699
2.46109
2.47923
2.47445
2.46886
2.45677
2.46254
2.46497
2.49461
2.52163
2.50622
2.49496
2.51538
2.50602
2.46594
2.49548
2.46261
2.46358
2.43847
2.52248
2.51775
2.52513
2.51825
2.51307
2.51019
2.46795
2.47941
2.46419
2.47435
2.50701
2.50355
2.48944
2.49901
2.49058
2.4984
2.48648
2.49756
2.48839
2.47429
2.47918
2.4832
2.47182
2.48187
2.48581
2.49059
2.48121
2.49406
2.49533
2.49113
2.49174
2.49581
2.49432
2.49517
2.49626
2.49777
2.49653
2.50236
2.50355
2.49458
2.48602
2.4891
2.48783
2.47995
2.4855
2.49064
2.48238
2.48684
2.4809
2.48226
2.48636
2.48245
2.48492
2.47902
2.48138
2.49164
2.49478
2.48495
2.48511
2.47378
2.49082
2.487
2.48817
2.47587
2.47522
2.46259
2.45621
2.48178
2.47911
2.46188
2.46169
2.46812
2.47373
2.49612
2.50967
2.50423
2.49856
2.50744
2.50362
2.47108
2.47429
2.47571
2.47452
2.47948
2.51265
2.50694
2.51238
2.50863
2.50418
2.49164
2.48507
2.4985
2.49803
2.49566
2.50221
2.50462
2.48828
2.49922
2.49274
2.50359
2.49494
2.50233
2.49884
2.49174
2.4941
2.49975
2.49173
2.50223
2.50282
2.50887
2.50166
2.49927
2.50501
2.49916
2.50006
2.5064
2.50457
2.50545
2.50848
2.50933
2.50912
2.51461
2.51463
2.50968
2.4942
2.50025
2.4943
2.48787
2.49072
2.49968
2.49471
2.49691
2.48638
2.48812
2.49615
2.49322
2.49258
2.48623
2.49354
2.49924
2.5036
2.4912
2.4932
2.48182
2.50111
2.49708
2.4987
2.49116
2.48743
2.47289
2.47662
2.49503
2.49643
2.48553
2.48952
2.48451
2.49544
2.5027
2.50861
2.50551
2.50762
2.51224
2.51
2.48564
2.49126
2.49937
2.49732
2.50254
2.50761
2.50642
2.51289
2.51073
2.51195
2.50712
2.50733
2.51621
2.514
2.51599
2.50933
2.51537
2.5042
2.50819
2.50709
2.51561
2.51419
2.5147
2.51562
2.51208
2.51163
2.51847
2.51416
2.521
2.51933
2.52665
2.5208
2.51204
2.51959
2.511
2.51156
2.51827
2.51714
2.5176
2.52051
2.51999
2.52154
2.5253
2.52464
2.5246
2.50655
2.51231
2.50637
2.50235
2.50406
2.51284
2.50931
2.51092
2.50149
2.49946
2.51315
2.50982
2.5091
2.50242
2.51138
2.50667
2.51011
2.5036
2.5042
2.50192
2.50909
2.50953
2.50954
2.51102
2.50643
2.49744
2.5043
2.51241
2.51537
2.50558
2.51593
2.50692
2.51599
2.51192
2.51657
2.51532
2.51467
2.51984
2.52023
2.51019
2.51361
2.51988
2.51946
2.52101
2.51517
2.51853
2.52016
2.5202
2.52422
2.5191
2.52186
2.52463
2.52305
2.52492
2.52178
2.52725
2.52316
2.52119
2.52353
2.52802
2.53017
2.52631
2.52905
2.52785
2.52592
2.53347
2.52811
2.53207
2.5316
2.53841
2.53136
2.52632
2.53164
2.52325
2.52365
2.52888
2.52869
2.52913
2.5295
2.5289
2.53165
2.53251
2.5325
2.53543
2.51589
2.51695
2.517
2.51354
2.5159
2.51992
2.51414
2.51873
2.51696
2.52047
2.52951
2.52285
2.53124
2.51889
2.52496
2.51506
2.52006
2.51449
2.51428
2.51873
2.51565
2.51727
2.51758
2.52412
2.52237
2.5109
2.524
2.5248
2.52769
2.51796
2.53001
2.52272
2.52763
2.51725
2.52655
2.52419
2.52094
2.53196
2.52777
2.52604
2.52661
2.53077
2.53043
2.5303
2.52548
2.52858
2.53419
2.53025
2.53142
2.52502
2.52579
2.52623
2.52605
2.5261
2.53087
2.53265
2.5336
2.52981
2.53165
2.5327
2.53344
2.53118
2.53211
2.53511
2.5357
2.54185
2.53317
2.53695
2.53835
2.54435
2.53508
2.53442
2.53537
2.53318
2.53379
2.5354
2.53643
2.53744
2.53511
2.53558
2.53816
2.53729
2.53821
2.54034
2.51813
2.52243
2.52379
2.51578
2.52178
2.5295
2.52325
2.52955
2.52967
2.53735
2.53776
2.53921
2.5389
2.53013
2.5339
2.52414
2.52759
2.51862
2.51977
2.52623
2.52184
2.51967
2.52211
2.52704
2.53131
2.52288
2.53269
2.5316
2.53386
2.52672
2.53461
2.53076
2.53282
2.52436
2.53242
2.52927
2.52722
2.53112
2.52984
2.53293
2.53249
2.5354
2.53424
2.5337
2.53193
2.53157
2.53396
2.53075
2.53055
2.52635
2.5256
2.52543
2.52622
2.52475
2.53277
2.53189
2.52996
2.5313
2.53139
2.53098
2.52662
2.53132
2.53172
2.5383
2.5398
2.54559
2.53298
2.53862
2.54055
2.54569
2.5359
2.53523
2.53489
2.53867
2.53981
2.53808
2.53971
2.54127
2.53928
2.53997
2.54139
2.54133
2.54178
2.54217
2.5291
2.5361
2.53528
2.53228
2.53513
2.53947
2.54036
2.53784
2.55019
2.54127
2.55449
2.55526
2.54353
2.5364
2.53712
2.53048
2.53266
2.52421
2.5252
2.52805
2.52991
2.52954
2.52849
2.53071
2.53537
2.52864
2.53457
2.53417
2.53527
2.53103
2.534
2.53364
2.53349
2.52942
2.53056
2.52988
2.53083
2.52975
2.52949
2.53415
2.53361
2.53566
2.53336
2.53287
2.52896
2.52913
2.5291
2.52701
2.52769
2.52592
2.52308
2.52392
2.52537
2.52172
2.5303
2.52882
2.52454
2.53208
2.53339
2.52787
2.52376
2.53263
2.53557
2.53814
2.54078
2.54376
2.52881
2.53691
2.54039
2.5415
2.5325
2.535
2.53514
2.53978
2.54141
2.53846
2.53945
2.54117
2.5427
2.54306
2.54266
2.544
2.54421
2.54278
2.54193
2.54202
2.53998
2.54549
2.54035
2.5411
2.54675
2.54335
2.55318
2.54248
2.54586
2.54765
2.53939
2.53604
2.53365
2.53395
2.53387
2.53418
2.53081
2.53335
2.53474
2.53677
2.53121
2.53442
2.53323
2.53094
2.53221
2.52886
2.53081
2.52968
2.52909
2.53235
2.53052
2.53148
2.5284
2.52842
2.53098
2.52652
2.52658
2.53203
2.53152
2.53382
2.53133
2.53062
2.52488
2.52603
2.52445
2.52242
2.5239
2.52499
2.52099
2.52572
2.52537
2.52086
2.52677
2.52365
2.52276
2.53208
2.53619
2.52212
2.52028
2.52794
2.53245
2.53382
2.53977
2.53914
2.51997
2.52849
2.53848
2.5366
2.52526
2.53451
2.53191
2.53847
2.54041
2.5366
2.53694
2.5391
2.54593
2.54472
2.54155
2.54727
2.54468
2.54327
2.53953
2.53599
2.54144
2.54379
2.54319
2.54009
2.53942
2.54031
2.54335
2.53643
2.53805
2.53933
2.53445
2.53156
2.53064
2.53248
2.53038
2.53603
2.5299
2.53373
2.53125
2.53258
2.52787
2.53225
2.52857
2.52866
2.52514
2.52555
2.5279
2.52557
2.52233
2.52862
2.52688
2.52935
2.52426
2.52424
2.52711
2.52186
2.52188
2.53052
2.52991
2.53182
2.53029
2.5295
2.51968
2.5213
2.51878
2.51678
2.51833
2.52669
2.52184
2.53303
2.5287
2.52483
2.51944
2.51433
2.51533
2.5208
2.52465
2.51081
2.50864
2.51201
2.51447
2.52619
2.5368
2.53411
2.51416
2.52662
2.53545
2.53322
2.52473
2.52758
2.5209
2.5345
2.53678
2.53167
2.53182
2.53403
2.54855
2.54436
2.53855
2.54881
2.54361
2.54323
2.53214
2.52886
2.53668
2.53476
2.53618
2.53222
2.53054
2.53192
2.53552
2.5335
2.53188
2.53241
2.53309
2.53104
2.53213
2.52816
2.52622
2.52898
2.52572
2.52995
2.5268
2.52625
2.52386
2.52761
2.5293
2.52531
2.52296
2.52874
2.53125
2.52527
2.52451
2.52587
2.52541
2.52486
2.51967
2.51976
2.52304
2.51802
2.51805
2.52981
2.52924
2.52895
2.5296
2.52883
2.51405
2.51529
2.51388
2.512
2.5125
2.53102
2.52899
2.53849
2.53249
2.53701
2.50875
2.50368
2.50135
2.50175
2.50298
2.49669
2.49587
2.49249
2.49339
2.52687
2.53472
2.53422
2.51625
2.53145
2.53575
2.53675
2.54203
2.5136
2.50802
2.52908
2.53112
2.52581
2.52679
2.52876
2.5485
2.54197
2.53427
2.54669
2.5402
2.54254
2.52658
2.52578
2.5281
2.52723
2.52822
2.52479
2.52492
2.52541
2.53021
2.53254
2.52734
2.52846
2.53198
2.53318
2.53454
2.52493
2.52439
2.52464
2.52259
2.52613
2.52501
2.52423
2.522
2.52571
2.53359
2.52717
2.5278
2.53358
2.53501
2.52833
2.53037
2.52604
2.52694
2.52194
2.51719
2.51709
2.52159
2.51727
2.51707
2.52889
2.52816
2.5256
2.52773
2.52733
2.511
2.51043
2.51241
2.5112
2.50946
2.53332
2.54347
2.53654
2.53168
2.54399
2.50029
2.49884
2.49172
2.48699
2.48846
2.4906
2.48814
2.48564
2.48768
2.54033
2.53769
2.5405
2.52441
2.55291
2.54121
2.54638
2.55477
2.50499
2.50503
2.52584
2.52758
2.52379
2.52589
2.52747
2.5444
2.5391
2.53239
2.54325
2.53907
2.54378
2.52642
2.52845
2.52337
2.52379
2.52344
2.52337