/*--------------------------------*- C++ -*----------------------------------*\
| =========                 |                                                 |
| \\      /  F ield         | OpenFOAM: The Open Source CFD Toolbox           |
|  \\    /   O peration     | Version:  5.x                                   |
|   \\  /    A nd           | Web:      www.OpenFOAM.org                      |
|    \\/     M anipulation  |                                                 |
\*---------------------------------------------------------------------------*/
FoamFile
{
    version     2.0;
    format      ascii;
    class       surfaceScalarField;
    location    "7";
    object      phi;
}
// * * * * * * * * * * * * * * * * * * * * * * * * * * * * * * * * * * * * * //

dimensions      [0 3 -1 0 0 0 0];

internalField   nonuniform List<scalar> 
29271
(
-2.66442e-06
2.70886e-08
-1.46761e-07
2.79881e-06
-4.68151e-06
2.69439e-07
5.64007e-07
3.86794e-06
-1.07018e-05
-5.52274e-07
-4.16879e-07
1.42181e-07
8.14785e-07
1.0714e-05
-1.07872e-05
-6.46215e-07
2.19653e-07
-9.10471e-07
6.30376e-07
1.14939e-05
-1.0746e-05
-9.84043e-08
-4.28378e-07
9.94467e-07
9.20722e-06
1.07108e-06
-1.10893e-05
-7.65958e-07
-4.28656e-07
2.57182e-07
6.02827e-07
1.14239e-05
-1.03195e-05
1.36701e-06
1.19471e-06
-5.63387e-07
-1.80566e-06
1.01268e-05
-1.12652e-05
2.03652e-06
1.26131e-07
-2.98168e-07
-3.37166e-06
1.27724e-05
-1.15507e-05
1.36373e-06
1.58568e-06
-1.53066e-06
-2.93949e-06
1.30715e-05
-9.0529e-06
3.65037e-07
-6.83564e-07
8.95942e-06
3.74228e-07
-2.7269e-06
-3.29776e-09
2.93034e-07
2.42905e-06
-1.177e-05
-2.40256e-07
1.37068e-07
-1.04926e-06
-1.05989e-06
1.39823e-05
-9.35936e-06
1.04761e-06
3.29835e-06
-1.8771e-06
-1.02597e-06
7.91647e-06
-8.81495e-06
1.91497e-06
7.21886e-07
-3.00273e-07
-1.17676e-06
7.65513e-06
-9.34737e-06
1.80924e-06
-4.01526e-08
4.13579e-07
-9.67676e-07
8.13238e-06
-1.13883e-05
3.81774e-07
8.76087e-07
-4.65229e-07
1.17325e-05
-1.13689e-06
-1.12635e-05
7.27418e-07
-8.92954e-07
-1.80601e-06
1.12136e-05
2.02142e-06
-9.44844e-06
2.4769e-06
9.69768e-07
-1.58138e-06
-8.53441e-07
8.43659e-06
-9.2115e-06
4.02429e-07
7.3021e-07
-1.46482e-07
1.93612e-07
8.03173e-06
-9.70206e-06
4.82297e-07
1.00969e-08
9.43443e-06
1.99307e-07
-4.24063e-07
-4.05979e-06
1.12913e-06
-9.08582e-07
3.78135e-06
-8.54702e-06
4.55747e-07
-8.14237e-07
8.61668e-06
2.67286e-07
-1.14328e-05
3.2103e-07
-3.75069e-07
2.96789e-07
1.17738e-05
-5.83744e-07
-3.96418e-06
2.82386e-07
1.23046e-07
3.51384e-06
-3.1606e-06
-1.88478e-06
2.80288e-06
2.24317e-06
-3.1035e-06
2.68711e-07
-1.50065e-08
2.84888e-06
-5.61595e-07
-5.96412e-07
-1.03659e-05
1.34285e-06
1.47269e-06
8.70842e-06
-4.73536e-06
-1.38601e-05
-4.21314e-06
6.64528e-06
6.02668e-06
1.01366e-05
-8.5931e-06
-2.61003e-06
2.56414e-06
9.68098e-06
4.74466e-06
-5.78665e-06
1.04631e-06
-2.64701e-07
-1.23441e-05
1.74993e-06
-2.3687e-06
1.21812e-05
1.83313e-06
3.49803e-07
3.0475e-05
-6.45791e-06
-6.61737e-06
-3.37801e-06
-3.76835e-06
-1.60648e-06
4.24821e-07
-2.04193e-06
-1.57416e-06
-1.9007e-06
-1.52691e-06
-2.32729e-06
-1.8836e-06
4.21721e-07
3.52873e-06
5.09937e-05
-1.02064e-05
-1.39957e-05
-4.97864e-06
-5.19724e-06
-3.72675e-06
-6.01522e-06
-3.70664e-06
-5.28436e-06
-4.65731e-06
2.59459e-06
6.64849e-05
-1.36003e-05
-8.93211e-06
-4.29007e-06
-1.28159e-06
-3.6815e-06
-1.18381e-06
-9.32476e-07
-1.11368e-05
-6.44704e-06
-6.09772e-06
-6.41708e-06
-9.99566e-06
-4.79041e-06
5.45386e-07
9.57443e-06
-3.50373e-06
1.77702e-06
-3.9185e-06
5.64637e-06
4.1548e-06
-1.98702e-05
3.67655e-06
-2.89788e-06
-5.35735e-06
2.02941e-05
2.33344e-06
-1.28302e-06
2.15733e-05
-3.75283e-06
-5.0007e-06
-4.03967e-06
-5.25274e-06
-4.91853e-07
-3.14058e-07
-1.84256e-06
-1.57951e-06
-5.05016e-07
-2.25953e-06
3.61078e-05
-6.77542e-06
-6.78063e-06
-6.7464e-06
-7.17859e-06
-6.03494e-06
-1.54531e-06
4.56913e-05
-3.77754e-06
-1.11242e-06
-1.15109e-06
-1.76227e-06
-4.69343e-07
-4.72659e-07
-6.88843e-06
-6.80574e-06
-6.86855e-06
-6.7134e-06
-1.50016e-05
9.51463e-07
-1.89491e-07
-2.59277e-06
1.07974e-05
-1.01814e-05
5.03339e-06
-5.78764e-06
-5.42723e-06
1.05324e-05
5.83041e-06
8.65001e-07
-3.03491e-06
2.66665e-05
2.1187e-06
1.4812e-06
-3.54961e-07
-3.54072e-07
-3.37088e-06
-8.56847e-07
-1.00482e-06
-5.81887e-06
-5.51659e-06
-5.76181e-06
-6.34065e-06
-8.55811e-07
-4.74021e-06
3.97216e-05
-1.09432e-06
-4.29339e-08
-2.22791e-07
-3.05609e-06
-1.35486e-06
-1.22088e-06
-6.87868e-06
-7.29545e-06
-7.31105e-06
-7.04302e-06
-8.38639e-06
7.40826e-07
-7.76098e-07
6.02054e-06
-3.88862e-06
2.74105e-06
-2.29705e-06
3.39565e-06
-8.96638e-06
4.37099e-06
-3.77193e-06
5.31854e-06
-1.27915e-05
6.61723e-07
5.74792e-07
-7.42159e-07
7.55696e-06
-3.65751e-06
8.13745e-07
-3.14886e-07
3.1359e-06
-2.01605e-06
-1.95197e-07
9.53849e-08
2.11516e-06
-2.08463e-06
-7.82431e-09
-2.14638e-07
2.30302e-06
1.32288e-07
-1.81283e-07
-7.42016e-06
4.95813e-07
1.77569e-06
5.19765e-06
3.41634e-07
-8.42379e-06
-8.53069e-07
9.11614e-07
9.88574e-08
7.92475e-06
-4.02474e-06
3.92248e-09
1.50042e-07
-6.23875e-07
4.89945e-06
-4.04802e-07
2.77156e-07
-1.46115e-06
-1.26113e-05
4.58002e-06
-1.86365e-06
1.10789e-05
3.85283e-06
3.01657e-06
5.71121e-05
-4.81509e-06
-4.63108e-06
-8.1482e-07
-1.03095e-06
-8.90388e-06
-9.5826e-06
-1.77332e-06
-1.95475e-06
4.76591e-07
6.68984e-06
5.92606e-05
-4.90929e-06
-3.23362e-06
-1.82243e-06
-1.61512e-06
2.20261e-07
3.69102e-06
6.46819e-05
-1.0523e-06
-3.5041e-07
-1.16234e-06
-1.00943e-06
5.83423e-08
9.14451e-07
9.69936e-07
-8.65045e-06
-6.10451e-08
1.9913e-07
8.786e-06
-7.31278e-06
5.97729e-07
1.46452e-06
5.25769e-06
-3.86295e-06
-2.00016e-05
1.14066e-06
6.8215e-06
6.65579e-07
1.52368e-05
4.98446e-06
2.96752e-07
3.49834e-05
-7.96985e-06
-4.50796e-06
-1.78038e-06
-1.41655e-06
-2.33722e-07
-4.96358e-07
4.85122e-05
-2.67208e-07
-1.08987e-07
5.18611e-05
-5.85902e-08
-3.13205e-07
-4.32193e-07
1.51544e-07
-8.35508e-07
-8.4835e-07
-9.07761e-06
-2.34121e-07
-9.89008e-07
4.56101e-07
9.57743e-06
-7.48989e-06
-9.42799e-07
1.05054e-06
1.30122e-06
7.18191e-06
-1.10098e-06
1.96367e-06
1.35523e-07
2.95767e-05
-1.80573e-06
-8.37651e-07
-8.83445e-07
-9.5693e-07
3.96733e-08
-1.35817e-08
-2.55024e-07
1.64141e-07
9.95403e-08
3.88422e-05
4.15539e-07
1.28715e-06
8.62392e-07
1.81631e-07
-6.17977e-07
-4.57023e-08
-6.30598e-06
-1.21124e-07
-2.36535e-07
6.71879e-06
-3.66412e-06
-1.74388e-07
2.2293e-07
3.62678e-06
-4.63055e-06
-1.02881e-07
2.08378e-08
4.87667e-06
-6.49005e-06
-1.38372e-07
2.98574e-07
-1.91066e-07
6.62046e-06
-3.00393e-06
1.13704e-07
-1.06077e-07
3.01724e-06
-2.35871e-06
1.21795e-06
-1.03517e-06
2.17593e-06
-2.54125e-06
2.16323e-07
3.14152e-08
2.29266e-06
-3.28411e-06
-8.65121e-07
-5.16447e-06
-7.02214e-07
4.61573e-06
5.40019e-06
-3.38537e-06
-7.38983e-06
3.2655e-06
-3.99474e-06
5.57788e-06
5.92655e-06
-4.79415e-06
-5.09211e-08
-7.29514e-07
1.85192e-06
8.13224e-07
2.90944e-06
4.33908e-07
-2.02244e-07
-1.05098e-05
1.02561e-06
-2.30313e-07
9.48281e-06
3.45982e-07
-3.07418e-06
9.0518e-05
-2.26468e-06
-3.75423e-06
-5.53227e-06
-6.08481e-06
-1.43019e-06
-2.02577e-06
-4.9317e-06
-4.65405e-06
-1.54751e-05
-7.85423e-07
8.72099e-05
-2.56942e-06
-2.64065e-06
-2.97572e-06
-3.15703e-06
-1.87908e-06
-2.45539e-06
6.99083e-05
-1.81586e-06
-1.82199e-06
-2.42248e-06
-2.61876e-06
-2.28769e-06
-2.53566e-06
-2.86456e-06
-1.11302e-05
1.59231e-07
-8.08449e-07
9.90036e-06
-4.12507e-06
8.33344e-09
2.93697e-07
3.82692e-06
-5.27243e-07
-1.30692e-05
-1.27731e-07
1.75706e-06
6.31192e-07
1.13359e-05
-3.76418e-06
-1.8694e-05
5.94589e-05
-1.41854e-06
-1.2111e-06
-8.46261e-07
-1.61558e-06
-5.82713e-06
-6.46068e-06
5.62504e-05
-4.23603e-07
-1.81832e-06
5.01089e-05
-8.58141e-08
1.14186e-08
4.60246e-07
-1.30098e-06
-1.83274e-06
-1.54061e-06
-9.57286e-06
1.22749e-06
4.69785e-07
-1.19968e-06
8.65166e-06
-7.59839e-06
-1.45715e-07
-6.38039e-09
-1.47858e-06
1.00127e-05
-7.83652e-07
-3.93805e-06
-4.77474e-06
4.29349e-05
-7.64262e-07
-4.38332e-07
-3.04923e-06
-3.72838e-06
-4.29538e-06
-5.05488e-06
-6.00884e-06
-1.37557e-06
-1.97668e-06
4.59999e-05
-1.35655e-06
-2.64934e-06
-2.42232e-06
-2.19287e-06
-2.73079e-06
-2.85233e-06
-5.30805e-06
2.12366e-07
-1.38967e-06
3.29146e-06
-3.17873e-06
9.63307e-07
-8.57616e-07
3.07303e-06
-4.90661e-06
1.83231e-06
-2.48213e-06
7.81676e-07
-6.04588e-06
2.01106e-06
-1.19073e-06
5.52635e-07
2.69625e-06
-1.96482e-06
3.89054e-07
6.02209e-07
9.73558e-07
-2.03806e-06
4.48023e-08
8.96584e-08
1.9036e-06
-1.57345e-06
5.34902e-07
-1.10525e-06
2.1438e-06
7.76817e-07
-1.03482e-07
-3.31894e-06
-1.19498e-07
2.72744e-07
2.49235e-06
8.40697e-07
-5.09679e-06
2.83725e-07
-9.36155e-07
-2.7247e-08
4.93577e-06
3.9718e-07
4.93073e-07
-7.21772e-07
1.02502e-06
-2.51709e-06
1.32359e-06
2.85629e-07
6.0973e-07
-7.75559e-06
-7.99545e-08
4.01306e-07
6.53888e-06
1.98015e-06
2.61845e-06
8.97407e-05
-2.17701e-06
-3.10167e-06
1.21439e-06
5.8063e-07
-1.27018e-06
-1.56742e-06
1.42155e-06
1.07842e-06
-7.34197e-06
3.40226e-06
9.6686e-05
-1.99031e-06
-2.11735e-06
4.35502e-07
1.1589e-07
-1.69325e-06
-6.39981e-07
7.0131e-05
-2.12688e-06
-1.52007e-06
-3.82253e-07
9.21803e-07
-1.80192e-06
-5.39397e-07
2.17311e-07
-7.87638e-06
4.53655e-08
-1.54424e-06
7.68201e-06
-6.10437e-06
-1.7217e-07
-4.92057e-07
6.7686e-06
9.25871e-07
-1.24564e-05
-2.51461e-07
-3.33577e-07
1.26339e-07
1.19892e-05
2.14818e-06
-4.90405e-06
6.53114e-05
-7.94761e-07
-1.00582e-06
3.45216e-07
9.77197e-07
-1.287e-06
-2.45401e-06
6.55418e-05
-3.66162e-07
-1.19246e-06
5.02136e-05
2.09346e-08
6.28067e-07
3.96615e-08
-1.27898e-06
2.63669e-07
-1.46372e-07
-8.38283e-06
1.301e-06
6.44121e-07
-1.16201e-06
7.23356e-06
-7.38283e-06
-2.97203e-07
1.23638e-06
3.8002e-07
6.74825e-06
-6.84617e-07
-1.65366e-06
8.84705e-07
3.93615e-05
-2.04922e-06
-4.18625e-07
-7.64959e-07
-1.04266e-07
1.52945e-07
1.64372e-06
9.78675e-07
-1.48833e-06
-3.28196e-07
4.44155e-05
-1.28153e-06
-1.01831e-06
-4.73461e-07
1.05797e-07
4.35911e-07
1.52485e-06
-1.23615e-06
-8.28528e-07
-1.71643e-06
1.10031e-06
-3.39161e-06
7.39368e-07
-6.86557e-07
3.3388e-06
1.13338e-06
-6.69795e-07
2.13194e-09
4.18993e-07
3.19278e-07
8.69783e-07
-1.07208e-06
-4.95046e-07
4.98685e-08
-1.12332e-06
5.74367e-07
8.01731e-07
-2.5278e-07
-2.10078e-06
-3.3383e-07
2.18079e-07
2.21653e-06
-2.5975e-06
5.62021e-07
-7.66231e-07
2.80171e-06
8.90719e-07
-3.17215e-07
-2.73633e-06
3.90447e-07
-2.15178e-06
3.92415e-06
1.22171e-06
-5.29892e-06
-8.4461e-07
1.35555e-06
-2.04971e-06
5.61599e-06
1.8432e-06
-3.48607e-07
3.33986e-07
-1.28945e-07
-6.32505e-07
-1.06713e-06
5.75805e-07
4.88242e-07
-7.13315e-06
-1.45144e-06
-1.3498e-07
7.65553e-06
1.84778e-06
3.3544e-06
7.94681e-05
1.11617e-06
5.30948e-07
6.50528e-07
7.16976e-07
1.03738e-06
5.22173e-07
2.1067e-07
2.85487e-07
-5.96276e-06
4.77814e-06
9.64848e-05
5.21611e-07
1.82136e-07
1.34043e-06
1.18942e-06
-2.67692e-07
6.92309e-08
6.66542e-05
-4.13756e-07
1.81831e-07
-8.76024e-08
-8.36868e-07
-1.75734e-07
-5.08124e-07
-4.47314e-07
-7.3497e-06
-1.28008e-06
1.47952e-06
6.82242e-07
6.20032e-06
4.10335e-07
-5.11706e-07
-4.73261e-08
1.48695e-07
-6.78315e-06
-5.90435e-08
1.21863e-07
6.72033e-06
-8.08227e-08
-1.17326e-05
-5.98226e-07
-2.7402e-07
1.46219e-06
1.12235e-05
4.11075e-06
-3.33343e-06
6.73921e-05
-1.7631e-07
3.46846e-07
-5.95447e-08
3.85394e-07
1.02699e-06
4.20831e-07
7.29829e-05
1.58762e-07
-1.8764e-07
5.21885e-05
9.91951e-08
3.19958e-08
-3.48912e-07
-4.15523e-07
-3.03723e-08
-1.86116e-07
-6.0046e-06
1.68011e-07
1.62873e-06
-2.11763e-07
4.57839e-06
6.46769e-07
-8.44961e-07
-7.86415e-07
-6.44279e-07
1.62889e-06
-7.38427e-06
-1.14118e-06
6.52613e-07
2.46771e-06
7.55817e-06
-2.15304e-06
-1.24313e-07
8.86874e-07
3.94806e-05
-9.13291e-07
-1.52446e-06
-1.00639e-06
-1.90021e-06
3.95835e-07
4.68253e-07
2.65182e-07
-1.01296e-06
3.99608e-07
4.50603e-05
-1.11203e-06
-3.29929e-07
-6.64674e-07
9.69297e-07
4.38226e-07
9.64173e-07
-2.78522e-06
-1.01496e-06
-7.97831e-08
2.67936e-06
-2.63523e-06
2.50621e-07
7.38307e-07
1.6463e-06
-4.54888e-07
-6.99629e-07
1.15118e-06
8.90212e-07
-2.65693e-06
-2.55669e-07
-4.90988e-07
5.97072e-08
3.74349e-06
5.94089e-07
-3.47576e-08
-2.90733e-07
-2.68599e-07
-2.28127e-06
-4.38446e-07
3.73549e-07
2.34617e-06
-2.63061e-06
6.56667e-07
-9.88286e-09
1.98382e-06
5.11587e-07
-1.12689e-06
-4.59621e-06
1.29924e-06
-7.26976e-07
4.63924e-06
7.38642e-07
-6.16877e-06
-1.00628e-06
1.46875e-06
-1.87735e-06
6.845e-06
-3.44024e-07
-2.2634e-07
9.75291e-07
-1.53672e-07
1.11517e-06
-1.36642e-06
-4.4347e-08
-2.65299e-07
-7.81122e-06
4.96774e-07
1.8719e-07
7.4369e-06
4.41083e-06
6.13708e-06
7.30063e-05
-1.3727e-07
5.31882e-08
-4.81696e-07
-1.58111e-08
-7.87876e-07
-7.02484e-07
-1.09447e-06
-9.19617e-07
-4.32523e-06
5.74587e-06
9.67042e-05
6.11173e-07
5.86671e-07
7.46671e-07
8.26343e-07
-3.95393e-07
2.00019e-06
6.53607e-05
-3.35914e-07
-1.14078e-06
-2.92691e-07
-1.21242e-06
-4.05729e-07
-7.63145e-07
-4.85764e-07
-5.52132e-06
-1.29553e-06
7.07726e-07
1.91647e-06
3.79725e-06
-9.862e-07
3.04424e-07
7.4854e-08
-1.43586e-07
-9.7119e-07
1.7217e-06
-6.65218e-06
-1.89094e-07
2.49552e-07
6.59172e-06
-9.1086e-07
-1.05007e-05
-5.59628e-07
8.21526e-07
1.39239e-06
9.75723e-06
5.18674e-06
-9.17339e-08
7.06622e-05
-6.79851e-07
-3.49268e-07
-7.78208e-07
-4.20715e-07
2.05359e-06
2.05124e-06
7.98107e-05
2.45459e-07
-1.22595e-07
5.56427e-05
6.91962e-08
3.04655e-07
2.43793e-07
-1.85139e-07
1.31032e-07
-8.68568e-08
-5.34634e-06
-7.53386e-07
2.47859e-07
-3.72217e-07
6.46954e-06
-2.01924e-06
8.51564e-07
1.26295e-07
-5.93224e-07
-5.93389e-07
2.22799e-06
-7.40257e-06
-1.71277e-06
1.66191e-06
2.7066e-06
6.71184e-06
-1.965e-06
3.103e-06
6.7135e-07
4.22289e-05
-1.67905e-06
-2.22355e-06
-1.7084e-06
-2.27983e-06
4.37491e-07
4.83486e-07
3.55434e-07
-3.62388e-07
5.92317e-07
4.92138e-05
-9.49021e-07
-9.32794e-08
-5.72703e-07
9.72608e-07
5.26158e-07
8.87038e-07
-3.07926e-06
-7.45595e-07
-1.86392e-07
3.52627e-06
-7.23531e-07
-9.03301e-07
1.87731e-06
-9.22369e-07
6.71894e-07
6.25942e-07
7.7499e-07
-5.39262e-07
-8.6167e-07
-1.16508e-06
-1.05123e-06
1.08677e-06
1.80089e-06
-4.57391e-06
-3.55326e-07
-2.09945e-07
1.73486e-07
5.55801e-06
-7.70341e-08
8.69703e-08
-2.79417e-07
2.69481e-07
-2.42488e-06
-3.94567e-07
3.34724e-07
2.48473e-06
-1.31949e-06
4.56234e-07
4.12468e-08
8.22006e-07
1.25704e-07
-9.3088e-07
-4.07376e-06
1.32785e-06
2.37906e-07
3.31318e-06
2.06488e-08
-7.46241e-06
-1.00392e-06
1.07653e-06
-6.80027e-07
8.04918e-06
-1.37589e-06
-6.44495e-08
7.85746e-07
2.91733e-07
1.3269e-06
-9.64041e-07
-1.28954e-07
-5.55784e-07
-6.83849e-06
1.13575e-06
3.01024e-07
6.08646e-06
6.37572e-06
6.21288e-06
6.84188e-05
-6.91689e-07
-5.79814e-07
-6.24093e-07
-4.17571e-07
-1.36321e-06
-1.61734e-06
-1.16537e-06
-1.54205e-06
-1.12285e-06
7.53689e-06
9.60486e-05
-1.78592e-08
1.77564e-07
-4.64866e-08
5.04035e-07
-6.05792e-07
5.21608e-06
6.46418e-05
-9.70089e-07
-1.05386e-06
-8.53224e-07
-8.57989e-07
-2.08938e-07
-9.67985e-07
-1.02239e-07
-3.21164e-06
-5.23721e-07
-5.03536e-07
5.45623e-07
3.08749e-06
-1.90715e-06
4.52269e-07
-2.30685e-08
4.27188e-07
-5.76659e-07
1.62742e-06
-6.5283e-06
-2.50369e-07
3.39472e-07
6.43919e-06
-1.25201e-06
-9.06473e-06
-5.66352e-07
1.56271e-06
1.00209e-06
8.31829e-06
5.11623e-06
1.24863e-06
7.43635e-05
-1.33799e-06
-8.40747e-07
-1.12929e-06
-5.45283e-07
2.75435e-06
3.84376e-06
8.58657e-05
8.25193e-07
4.07309e-07
5.86166e-05
7.87327e-07
1.06313e-06
5.70758e-07
3.50236e-07
6.05733e-07
3.86805e-07
-7.31519e-06
2.69679e-07
5.72955e-07
-5.09647e-07
7.80739e-06
-2.22363e-06
2.81127e-07
-3.31092e-07
-1.15444e-07
1.93302e-07
2.19574e-06
-5.87561e-06
-1.74729e-06
1.65633e-06
2.35596e-06
5.1951e-06
-1.58449e-06
4.44018e-06
5.3317e-07
4.51272e-05
-1.83091e-06
-2.22587e-06
-1.48344e-06
-2.15451e-06
3.5686e-07
4.27956e-07
2.86884e-07
-1.02633e-07
7.76254e-07
5.47092e-05
-5.12085e-07
1.22088e-07
-4.03748e-07
1.08614e-06
8.22746e-07
9.99833e-07
-4.36637e-06
-6.70201e-07
-7.5801e-09
5.34883e-06
1.19575e-07
-3.55894e-07
2.02452e-06
-1.33989e-06
-4.48306e-07
1.30722e-06
-6.56085e-07
8.75281e-07
-4.22811e-07
-1.10361e-06
-2.45447e-06
-8.34649e-07
5.14011e-07
3.30828e-06
-6.12266e-06
-2.11352e-07
-5.77834e-08
3.8369e-07
6.78436e-06
-6.87931e-07
9.66824e-08
-3.8846e-07
9.79709e-07
-2.49789e-06
-8.01487e-08
6.77892e-08
2.51025e-06
-4.99259e-07
6.9641e-07
-5.36004e-07
3.38853e-07
-3.95899e-07
-1.4902e-07
-2.80028e-06
1.56247e-07
7.27526e-07
2.46143e-06
-5.52545e-07
-8.53878e-06
-1.51004e-07
2.34958e-08
5.85686e-07
8.63314e-06
-1.31017e-06
5.91126e-08
-5.85849e-08
1.43969e-07
1.32276e-06
-1.57088e-07
3.56892e-07
-6.20347e-07
-5.47472e-06
1.14062e-06
-2.77106e-07
4.87466e-06
5.9515e-06
5.0308e-06
6.72709e-05
-7.43153e-07
-8.8419e-07
-7.80642e-07
-7.99088e-07
-1.3726e-06
-2.14256e-06
-1.31095e-06
-1.80126e-06
-8.65727e-07
7.72342e-06
9.6009e-05
-7.0983e-07
2.12411e-09
-4.78373e-07
3.19444e-07
-7.73621e-07
5.6634e-06
6.37854e-05
-9.34293e-07
-5.68323e-07
-7.45402e-07
-6.45817e-07
-4.1461e-08
-1.46557e-06
-4.98159e-07
-4.17295e-06
1.1374e-06
-9.27382e-07
-7.61761e-07
3.95107e-06
-5.432e-07
-5.76082e-09
9.2001e-07
-4.19115e-07
4.80667e-08
-6.1457e-06
-4.25879e-08
9.03646e-07
5.28465e-06
-1.75725e-06
-7.62555e-06
-1.59057e-07
1.78136e-06
7.83377e-07
6.97713e-06
4.02616e-06
1.21463e-06
7.72678e-05
-1.32456e-06
-7.57275e-07
-7.49029e-07
-2.83416e-07
2.1397e-06
5.23968e-06
9.02359e-05
1.20608e-06
6.78863e-07
6.07774e-05
7.70457e-07
9.0453e-07
-2.80075e-07
7.88002e-07
8.65131e-07
7.09358e-07
-7.67185e-06
8.52717e-07
9.91928e-07
2.13008e-08
7.01199e-06
-1.71587e-06
-4.71098e-07
-9.30933e-07
8.50143e-07
1.26356e-06
1.00421e-06
-4.71759e-06
-1.32169e-06
1.02958e-06
2.09536e-06
4.33995e-06
-1.42562e-06
3.97358e-06
3.5416e-07
4.70714e-05
-1.22672e-06
-1.8391e-06
-9.69107e-07
-1.62559e-06
2.1188e-07
2.25617e-07
1.6577e-07
1.95781e-07
1.14296e-06
5.88515e-05
-1.6826e-07
4.68656e-07
-2.47987e-07
1.2512e-06
1.22774e-06
1.20088e-06
-6.52501e-06
-1.80491e-07
9.90537e-08
7.48109e-06
2.97857e-07
-1.19326e-06
1.06554e-06
-1.70136e-07
-4.06501e-06
4.14067e-08
-2.80267e-07
4.65803e-06
-7.22463e-06
1.47461e-07
-1.33262e-07
6.3997e-07
7.71342e-06
-1.25524e-06
1.65549e-07
-4.95635e-07
1.58533e-06
-2.49178e-06
2.80316e-07
-2.30421e-07
2.44188e-06
-3.07408e-07
1.0078e-06
-1.08876e-06
3.88363e-07
-4.57174e-07
-6.83829e-08
-2.3434e-06
-4.2122e-07
9.96394e-07
2.29378e-06
-7.05342e-07
-8.37e-06
5.43048e-07
-4.91152e-07
1.04107e-06
7.98238e-06
-1.39247e-06
1.67454e-07
-5.22449e-07
-4.44358e-08
1.57968e-06
2.12228e-07
8.49411e-07
-4.16203e-07
-4.38318e-06
9.05802e-07
-9.08973e-07
3.95314e-06
5.06551e-06
2.95145e-06
6.79604e-05
-7.64377e-07
-1.12842e-06
-7.43635e-07
-8.38577e-07
-1.22349e-06
-1.70947e-06
-1.05302e-06
-1.24546e-06
-1.40858e-06
6.70007e-06
9.68937e-05
-8.26108e-07
-1.67157e-07
-3.5573e-07
2.38386e-07
-1.48896e-06
4.12483e-06
6.41279e-05
-6.7092e-07
-3.19347e-07
-4.20807e-07
-1.71563e-07
-1.22935e-06
-7.6773e-07
-8.07287e-07
-4.22438e-06
8.51357e-07
-1.49271e-06
3.37677e-06
-4.05056e-06
9.41956e-08
8.19825e-07
3.13654e-06
-1.25528e-06
-6.36489e-06
6.46395e-07
1.01568e-06
3.56582e-07
5.60152e-06
1.9596e-06
9.273e-07
7.80759e-05
-5.1275e-07
-3.17353e-07
4.08798e-08
4.57061e-08
1.8917e-06
5.05826e-06
9.19456e-05
2.92598e-07
6.61056e-07
6.30276e-05
-3.57047e-07
5.3773e-07
-3.98974e-08
7.64389e-07
1.0608e-06
8.46672e-07
-7.25629e-06
6.43448e-07
-4.31536e-07
7.29358e-07
6.60762e-06
-3.828e-06
-6.45254e-07
7.92767e-07
1.42046e-06
3.45769e-06
-1.19766e-06
1.28532e-06
3.33193e-07
4.72622e-05
-4.54397e-07
-6.25045e-07
-1.73886e-07
-3.57821e-07
2.6287e-07
2.30186e-07
2.36068e-07
3.92561e-07
1.36763e-06
5.88109e-05
-7.07077e-08
8.52431e-07
-1.16958e-07
1.32308e-06
1.37573e-06
1.26035e-06
-8.75081e-06
1.39302e-07
3.49156e-07
9.31597e-06
-1.56412e-07
-9.18769e-07
8.60449e-07
2.14732e-07
-5.04652e-06
6.36005e-07
-7.42835e-07
5.48655e-06
-8.10815e-06
4.58e-07
-3.17523e-07
8.34877e-07
8.50043e-06
-1.84455e-06
1.40008e-07
-4.10526e-07
2.11507e-06
-2.3798e-06
1.59772e-07
-1.35826e-07
2.35585e-06
-5.50209e-07
1.31181e-06
-1.5384e-06
7.76796e-07
-3.80414e-08
-5.29206e-07
-2.32249e-06
-5.54986e-08
3.27023e-07
2.61821e-06
-5.52243e-07
-7.69044e-06
4.53681e-07
-5.45496e-07
6.95759e-07
7.63873e-06
-1.79737e-06
2.67068e-07
-8.30979e-07
-2.51745e-07
2.12829e-06
4.84735e-07
1.21597e-06
-1.76418e-07
-3.59117e-06
2.30854e-07
-1.13962e-06
3.46039e-06
3.61855e-06
-1.36923e-06
6.84169e-05
-1.30936e-07
-5.89662e-07
1.28907e-07
-7.14054e-08
-4.8169e-07
-9.34833e-07
-1.40497e-07
-4.85618e-07
-3.36714e-07
4.72691e-06
9.61681e-05
-4.21324e-07
-1.23409e-07
1.08294e-07
3.90383e-07
-8.22599e-08
1.90891e-06
6.08708e-05
-3.54038e-08
4.43285e-07
1.90537e-07
5.07829e-07
-1.35067e-07
-3.06105e-08
1.53156e-07
-2.99626e-06
7.12125e-07
-7.96435e-07
2.99831e-06
-2.65203e-06
2.88752e-07
-3.64791e-08
2.39976e-06
-6.78214e-07
-4.78197e-06
1.01848e-06
4.47045e-07
-2.08267e-07
4.20293e-06
-2.6242e-08
9.65997e-08
7.47426e-05
3.27908e-07
1.61071e-07
7.93869e-07
6.10848e-07
3.06215e-06
4.21245e-06
8.93717e-05
8.16869e-07
8.9654e-07
6.13827e-05
3.20097e-07
8.42006e-07
3.64418e-07
9.66445e-07
1.40256e-06
1.00705e-06
-5.87174e-06
3.87391e-07
7.26123e-08
5.49722e-07
5.67888e-06
-3.32786e-06
6.3033e-08
2.09222e-08
2.11561e-07
3.36721e-06
-3.34864e-07
-6.59337e-07
3.60279e-07
4.55892e-05
1.61703e-07
2.55957e-07
3.7682e-07
3.07467e-07
3.49036e-07
2.80479e-07
3.37138e-07
5.95488e-07
1.31399e-06
5.58846e-05
-4.58563e-08
9.93059e-07
-8.10158e-08
1.26633e-06
1.26111e-06
1.17638e-06
-1.03423e-05
6.11486e-07
7.7217e-07
1.04507e-05
-3.83201e-07
-5.61259e-07
2.44545e-07
6.99916e-07
-5.82854e-06
8.30966e-07
-9.12649e-07
6.2705e-06
-8.88046e-06
6.00177e-07
-4.99129e-07
8.46274e-07
9.24713e-06
-2.41417e-06
-9.97725e-08
-2.45085e-07
2.75903e-06
-2.42208e-06
-1.11193e-07
-4.61241e-08
2.57939e-06
-1.06619e-06
1.38891e-06
-1.76862e-06
1.4459e-06
5.83375e-07
-7.23641e-07
-3.03739e-06
2.69521e-07
-7.72704e-07
3.68084e-06
8.22338e-08
-7.85023e-06
2.26707e-08
-4.0218e-07
-1.54459e-07
8.30197e-06
-2.49913e-06
2.36592e-07
-1.15063e-06
-3.36032e-07
3.03113e-06
7.1807e-07
1.39876e-06
9.58493e-08
-3.43646e-06
-5.27923e-07
-9.90735e-07
3.46051e-06
3.68492e-07
-5.11959e-06
6.64677e-05
1.09024e-06
5.90032e-07
1.41444e-06
1.25284e-06
7.00228e-07
-3.27264e-09
9.72337e-07
6.83439e-07
1.23663e-06
2.2376e-06
9.07102e-05
1.36629e-07
3.68886e-07
7.61718e-07
1.08489e-06
4.53818e-07
-6.45139e-07
5.63935e-05
6.12771e-07
1.28416e-06
7.13749e-07
1.27515e-06
8.10872e-07
3.7034e-07
8.38289e-07
-2.938e-06
6.8978e-07
-4.5867e-07
3.16071e-06
-2.25744e-06
2.1902e-07
-1.90303e-07
2.22873e-06
-3.59055e-09
-3.85414e-06
7.98229e-07
-1.34503e-07
-4.73463e-07
3.66746e-06
-1.56953e-06
-1.82088e-07
6.81819e-05
6.87225e-07
5.64388e-07
1.07283e-06
8.68213e-07
2.9476e-06
3.85364e-06
8.32385e-05
6.39411e-07
1.22966e-06
5.6692e-05
3.45659e-07
4.24093e-07
3.12469e-07
1.15502e-06
1.70777e-06
1.17911e-06
-5.57218e-06
3.11227e-08
-7.33242e-08
7.53069e-07
5.50072e-06
-3.34666e-06
2.6009e-07
-3.21709e-07
-1.844e-07
3.36814e-06
2.24539e-07
-1.95723e-06
3.19469e-07
4.45817e-05
2.18983e-07
4.12019e-07
3.79236e-07
3.86106e-07
3.72714e-07
2.96133e-07
3.97968e-07
4.02946e-07
1.14116e-06
5.27591e-05
-2.06693e-07
7.44979e-07
-2.25151e-07
1.12297e-06
1.07187e-06
9.69843e-07
-1.11173e-05
7.17008e-07
1.17562e-06
1.08572e-05
-1.21116e-06
-5.04088e-07
-1.03264e-07
1.81851e-06
-6.65861e-06
7.27802e-07
-8.44445e-07
7.09472e-06
-9.65454e-06
5.99656e-07
-5.91183e-07
7.15335e-07
1.00719e-05
-3.14545e-06
-3.5661e-07
-2.30492e-08
3.52511e-06
-2.79446e-06
-1.23263e-07
-9.18774e-08
3.0096e-06
-1.95216e-06
5.19546e-07
-9.84192e-07
2.41681e-06
1.05841e-06
-4.84746e-07
-4.3721e-06
4.1209e-07
-1.68245e-06
5.0688e-06
9.2866e-07
-8.86691e-06
-2.26877e-07
-2.90084e-07
-1.15792e-06
9.61314e-06
-3.73977e-06
-1.93584e-07
-1.19364e-06
9.19534e-08
4.50268e-06
5.3236e-07
1.35174e-06
-1.25531e-07
-3.38459e-06
-6.35462e-07
-6.88473e-07
3.48232e-06
-3.77915e-06
-4.07722e-06
6.25587e-05
1.68715e-06
1.07333e-06
1.97311e-06
1.53416e-06
1.44988e-06
1.18195e-06
1.36111e-06
1.50467e-06
7.6699e-07
-5.55423e-07
8.12773e-05
1.08822e-06
1.12703e-06
1.73852e-06
1.4884e-06
5.48897e-07
4.80317e-07
5.08912e-05
2.9553e-07
1.26348e-06
3.45571e-07
1.1981e-06
9.03957e-07
4.84054e-07
7.4932e-07
-3.2518e-06
7.74492e-07
-4.07693e-07
3.43389e-06
-2.32236e-06
-9.1189e-08
1.84448e-08
2.39511e-06
1.11923e-07
-3.6848e-06
-1.43813e-07
-3.18345e-07
2.5688e-07
3.77815e-06
-2.1293e-06
1.17214e-06
6.31548e-05
6.15728e-07
3.43771e-07
5.88682e-07
3.58927e-07
1.33692e-06
4.07594e-06
7.51409e-05
3.3952e-08
1.60599e-06
5.14336e-05
2.36672e-07
1.93385e-08
4.42069e-07
1.3323e-06
2.03832e-06
1.36696e-06
-5.43161e-06
-2.12705e-07
-4.21035e-07
7.77893e-07
5.32141e-06
-3.50874e-06
7.5926e-08
-2.32858e-07
-2.1091e-07
3.83464e-06
4.19408e-08
-2.35626e-06
3.1327e-07
4.58636e-05
4.44882e-08
2.87645e-07
1.37562e-07
2.11454e-07
3.94596e-07
3.86612e-07
4.70896e-07
1.13575e-07
8.80607e-07
5.13517e-05
-3.60677e-07
3.83236e-07
-3.45494e-07
8.46897e-07
8.5306e-07
7.55847e-07
-1.12304e-05
5.73246e-07
1.4762e-06
1.09005e-05
-2.46782e-06
-2.61555e-07
-3.40561e-07
3.06993e-06
-7.52569e-06
4.98892e-07
-6.64591e-07
8.00466e-06
-1.05911e-05
5.80189e-07
-7.4086e-07
5.68224e-07
1.10641e-05
-3.93113e-06
-6.92858e-07
3.22704e-07
4.30128e-06
-3.27966e-06
-1.43647e-10
-3.74254e-07
3.65406e-06
-2.62447e-06
-4.7072e-07
4.71383e-07
2.6238e-06
1.4305e-06
-2.96938e-07
-5.71018e-06
6.46129e-07
-2.31425e-06
6.24473e-06
1.54107e-06
-1.04331e-05
-4.28603e-07
-1.19002e-07
-1.743e-06
1.11827e-05
-5.28124e-06
-4.75446e-07
-8.90429e-07
5.41281e-07
5.88907e-06
2.1676e-07
2.61863e-07
1.33792e-07
-3.82878e-06
-3.66257e-07
-2.4293e-07
4.04231e-06
-3.77351e-06
-6.49601e-07
5.68324e-05
2.02505e-06
1.30098e-06
2.12275e-06
1.71616e-06
8.73218e-07
9.93426e-07
5.31675e-07
5.86107e-07
1.29461e-06
-1.17712e-06
7.21059e-05
1.54826e-06
7.77614e-07
2.08677e-06
8.67797e-07
4.01662e-07
3.01344e-06
4.64359e-05
-3.26277e-07
7.17508e-07
-2.12296e-07
6.31974e-07
5.81657e-07
3.76463e-07
5.6584e-07
-3.55236e-06
7.33995e-07
-4.19138e-07
3.63917e-06
-2.25208e-06
-2.44787e-07
7.22109e-07
1.77476e-06
-8.23044e-07
-3.77562e-06
-5.42691e-07
7.96745e-07
8.16292e-07
3.52831e-06
-2.6042e-07
4.30052e-06
6.11969e-05
-5.86354e-07
-6.63997e-07
-7.71307e-07
-7.10143e-07
1.05695e-06
4.45168e-06
6.81948e-05
-1.11807e-07
1.70874e-06
4.77635e-05
5.04508e-07
3.9285e-08
6.89751e-07
1.36455e-06
2.10725e-06
1.43819e-06
-5.39881e-06
-1.11103e-07
-3.17809e-07
2.26352e-07
5.48956e-06
-4.41425e-06
-3.72467e-07
2.90059e-07
-1.83996e-07
5.01233e-06
-3.31678e-07
-1.53479e-06
4.74939e-07
5.04102e-05
-4.74677e-07
1.11438e-08
-4.35906e-07
2.54704e-08
4.92685e-07
5.97411e-07
5.97693e-07
-1.16708e-07
6.74382e-07
5.21017e-05
-3.78503e-07
2.09221e-07
-3.17015e-07
6.83743e-07
7.28528e-07
6.83276e-07
-1.12473e-05
3.34336e-07
1.52417e-06
1.09809e-05
-3.60235e-06
1.38018e-08
-4.51044e-07
4.0396e-06
-8.53696e-06
4.0492e-07
-5.43752e-07
9.15073e-06
-1.1652e-05
5.97934e-07
-9.43713e-07
5.25194e-07
1.21469e-05
-4.64434e-06
-8.50168e-07
5.76978e-07
4.91753e-06
-3.94962e-06
4.25468e-07
-4.33005e-07
3.95716e-06
-2.55775e-06
-1.25065e-06
1.31462e-06
2.49378e-06
7.76562e-07
1.7954e-07
-6.71809e-06
5.12189e-07
-1.95299e-06
7.2028e-06
1.40527e-06
-1.1977e-05
-3.58249e-07
8.59865e-08
-1.88039e-06
1.27244e-05
-6.37586e-06
-3.73751e-07
-5.45641e-07
7.20008e-07
6.67423e-06
-9.89901e-08
-9.53808e-07
5.80536e-07
-4.07743e-06
-3.26052e-07
8.54922e-07
3.92183e-06
-1.02002e-06
1.58573e-06
5.02528e-05
1.80508e-06
1.31824e-06
1.36766e-06
1.44666e-06
1.65167e-07
-2.31538e-07
2.28618e-07
-8.59849e-08
2.64504e-06
1.12416e-06
6.40678e-05
1.28849e-06
7.44131e-08
1.58356e-06
3.02417e-07
1.86953e-07
5.18703e-06
4.40659e-05
-8.36101e-07
1.99541e-07
-7.25801e-07
1.58685e-07
3.36805e-07
1.69855e-07
3.38073e-07
-3.77393e-06
6.72409e-07
-5.53977e-07
3.84246e-06
-1.15813e-06
-5.61272e-07
9.64683e-07
7.54722e-07
-1.09204e-06
-3.2243e-06
-9.1916e-07
1.56848e-06
8.15148e-07
2.85187e-06
1.4664e-06
6.14688e-06
6.01922e-05
-1.45138e-06
-1.37253e-06
-1.16348e-06
-1.03546e-06
1.71534e-06
5.35021e-06
6.37198e-05
-4.30702e-09
1.70285e-06
4.62639e-05
7.16146e-07
8.15137e-08
8.25374e-07
1.43057e-06
2.11117e-06
1.53863e-06
-5.72507e-06
2.52649e-07
-7.49997e-08
-3.37052e-07
5.88017e-06
-5.45714e-06
-5.72817e-07
8.23586e-07
-2.28438e-07
5.63473e-06
-1.99923e-07
-6.30466e-07
6.08902e-07
5.58933e-05
-8.67495e-07
-2.91592e-08
-5.45399e-07
1.63733e-07
5.83777e-07
6.6407e-07
7.1579e-07
-1.57664e-07
6.4274e-07
5.43621e-05
-2.83657e-07
2.15587e-07
-1.83723e-07
6.98208e-07
7.85834e-07
7.42025e-07
-1.14534e-05
2.20174e-07
1.35581e-06
1.14226e-05
-4.44851e-06
1.30991e-07
-5.10341e-07
4.82786e-06
-9.79572e-06
5.03721e-07
-5.32254e-07
1.04332e-05
-1.27496e-05
5.81697e-07
-9.70921e-07
5.2248e-07
1.32591e-05
-5.16571e-06
-8.01604e-07
5.70687e-07
5.39663e-06
-3.59728e-06
8.58032e-07
-3.30198e-07
3.06945e-06
-2.47745e-06
-1.79623e-06
1.76819e-06
2.50549e-06
-7.80238e-07
1.31694e-06
-7.77567e-06
-1.07424e-06
2.23508e-07
8.08971e-06
-3.79361e-07
-1.32788e-05
7.26973e-07
2.02521e-07
-5.40867e-07
1.32695e-05
-6.96616e-06
-1.90764e-07
-3.40064e-07
8.43419e-07
7.18455e-06
-5.30974e-07
-1.54347e-06
7.12394e-07
-3.80328e-06
-4.43162e-07
1.32851e-06
3.749e-06
9.12442e-07
3.92285e-06
4.58348e-05
1.84899e-07
4.08564e-07
-4.58937e-07
-2.06348e-07
8.13516e-08
-4.49296e-07
2.09931e-07
-1.87399e-07
2.84051e-06
5.48744e-06
5.77836e-05
4.79868e-07
-9.55386e-07
3.1172e-07
-9.67542e-07
-4.97552e-08
5.95023e-06
4.31463e-05
-1.1975e-06
-4.81756e-08
-9.57203e-07
-1.7164e-08
7.15496e-08
-6.44659e-08
7.25668e-08
-3.9781e-06
6.46941e-07
-7.48496e-07
4.0299e-06
-5.62572e-07
-6.78608e-07
7.59563e-07
4.81617e-07
-1.00236e-06
-2.67729e-06
-8.41682e-07
1.51305e-06
3.41096e-07
2.66719e-06
1.93732e-06
6.67193e-06
5.93555e-05
-1.2772e-06
-1.1825e-06
-7.77819e-07
-6.12168e-07
2.34666e-06
7.50352e-06
6.12943e-05
-3.74631e-09
1.56579e-06
4.63539e-05
8.58302e-07
-3.35124e-09
9.09418e-07
1.43183e-06
2.00939e-06
1.43931e-06
-6.02607e-06
6.12035e-07
9.83883e-08
-7.34035e-07
6.04594e-06
-5.60662e-06
-5.95704e-07
8.30395e-07
-1.85017e-07
5.41606e-06
1.40888e-07
1.16424e-07
6.25673e-07
6.02248e-05
-6.75183e-07
2.55889e-07
-2.10703e-07
2.97156e-07
6.11906e-07
6.33807e-07
6.85489e-07
-5.83165e-08
8.62808e-07