/*--------------------------------*- C++ -*----------------------------------*\
| =========                 |                                                 |
| \\      /  F ield         | OpenFOAM: The Open Source CFD Toolbox           |
|  \\    /   O peration     | Version:  5.x                                   |
|   \\  /    A nd           | Web:      www.OpenFOAM.org                      |
|    \\/     M anipulation  |                                                 |
\*---------------------------------------------------------------------------*/
FoamFile
{
    version     2.0;
    format      ascii;
    class       volVectorField;
    location    "7";
    object      U;
}
// * * * * * * * * * * * * * * * * * * * * * * * * * * * * * * * * * * * * * //

dimensions      [0 1 -1 0 0 0 0];

internalField   nonuniform List<vector> 
10571
(
(0.00789991 0.134347 0.566357)
(0.0159385 0.0411046 0.490128)
(-0.000214205 0.0369335 0.662286)
(-0.0722719 0.0428514 0.739111)
(-0.0718049 0.0353135 0.765171)
(-0.0228035 0.0546672 0.709999)
(-0.196016 -0.321459 0.878665)
(-0.000972159 -0.54643 1.08786)
(-0.133774 -0.42075 1.11261)
(-0.00540799 -0.12568 0.965204)
(0.209004 0.0294061 0.631372)
(-0.129623 -0.071737 0.762269)
(-0.479511 -0.151547 0.950699)
(-0.0709481 -0.242456 0.953094)
(0.111054 -0.190919 0.991521)
(0.192903 -0.0624354 0.972377)
(-0.170048 -0.236802 0.773485)
(-0.381987 -0.0560908 0.898945)
(-0.0554184 0.0618028 0.960061)
(0.164139 0.097346 0.946073)
(0.0574802 -0.136261 0.832837)
(-0.133587 -0.00347155 0.906934)
(-0.0613002 0.125987 0.938314)
(0.001429 -0.0392173 0.836814)
(0.299667 0.0686618 0.726783)
(0.0154498 0.0201794 0.391274)
(0.0432868 0.060797 0.522138)
(0.436335 0.391012 0.987061)
(0.278509 0.228965 0.804047)
(0.0389198 -0.132723 0.600185)
(0.0455694 0.0285742 0.506155)
(0.0572367 0.127051 0.635195)
(-0.0336433 0.142113 0.645342)
(-0.612948 0.183821 1.3256)
(-0.161741 -0.269022 0.594287)
(-0.384852 -0.36658 0.910239)
(0.0618845 -0.0155405 0.348757)
(0.0427724 0.000811821 0.398397)
(-0.0532681 -0.0405986 0.416932)
(-0.594534 -0.236657 1.51805)
(-0.463858 -0.506225 0.813112)
(0.0188799 -0.0728505 0.380996)
(-0.00371314 -0.116069 0.440443)
(-0.0470614 -0.16898 0.804806)
(0.198244 -0.164114 0.956017)
(-0.400731 -0.364173 1.04672)
(-0.0257551 -0.489858 1.16604)
(0.0674274 -0.0520646 0.959341)
(0.0591125 0.00708461 0.172066)
(-0.001104 -0.0137627 0.18414)
(0.0484488 0.00578675 0.333651)
(0.141624 -0.0830454 0.296459)
(0.0423083 -0.0551271 0.178188)
(0.196927 -0.0741172 1.05464)
(0.247624 0.188829 0.320663)
(0.050927 0.340651 0.722834)
(-0.0278122 0.199108 1.13237)
(-0.0255997 0.0197046 0.452445)
(0.0708559 -0.0848755 1.7271)
(0.543475 0.00403138 1.55936)
(0.269277 0.0450571 0.3573)
(0.0832199 0.0617595 0.988417)
(-0.0702884 -0.00376859 1.17977)
(-0.0838768 0.0485734 0.535052)
(0.127728 0.183992 0.564232)
(0.14744 -0.0367825 0.466069)
(0.0148673 -0.0630751 0.839221)
(-0.00689815 -0.0266751 0.521068)
(-0.0197168 0.0211145 0.570485)
(0.0134463 -0.0261226 0.318514)
(0.0367414 -0.0380044 0.334431)
(0.0174861 -0.0115373 0.432395)
(-0.184841 -0.0230654 0.395379)
(-0.000770125 0.0256458 0.511377)
(0.0545015 0.381287 0.637752)
(-0.340328 0.449657 0.480659)
(-0.185423 0.17069 -0.105324)
(0.0391626 -0.0354448 0.88237)
(0.262624 0.220701 1.37359)
(-0.248991 0.132896 1.08477)
(-0.32111 0.146267 0.849442)
(-0.011337 -0.00445888 0.341746)
(0.0144294 0.0110979 0.633803)
(0.0818028 0.0411237 0.897015)
(0.0563225 -0.295515 0.83597)
(-0.165672 -0.147597 0.453225)
(-0.0687217 -0.214283 0.411954)
(-0.00861837 -0.0791402 0.104912)
(0.000858149 0.059313 0.813332)
(0.130601 -0.382409 0.64871)
(-0.259455 -0.115762 0.526636)
(-0.00436394 -0.098744 0.00515144)
(0.0554013 -0.108391 0.100042)
(-0.130807 -0.256162 0.145065)
(-0.17597 -0.123415 -0.00467558)
(-0.054115 -0.0062935 -0.204428)
(-0.0159538 0.00724879 0.299269)
(0.0222869 -0.0858204 0.242726)
(-0.0101645 -0.150492 0.249903)
(-0.0457737 -0.146943 0.270076)
(-0.0868115 -0.0313202 -0.149641)
(-0.091919 0.0218392 0.220446)
(0.131154 0.103315 0.737433)
(-0.0873193 0.0880631 0.848405)
(-0.200848 0.144737 0.701276)
(-0.116568 -0.0718737 0.364095)
(-0.0250269 -0.00676203 0.818857)
(-0.0969085 -0.0105917 0.427546)
(0.0674476 -0.0333054 0.514684)
(-0.0147689 0.0066269 0.587804)
(-0.051536 -0.175418 0.531328)
(-0.0482594 -0.107421 0.278286)
(0.00704173 0.0637582 0.254536)
(0.149537 -0.14494 0.355097)
(-0.220013 -0.08697 0.444439)
(-0.0498495 -0.0479536 -0.116177)
(0.0806786 -0.0839038 0.284738)
(0.046595 0.163519 0.0213406)
(-0.0418207 0.00703056 -0.151336)
(-0.0558287 0.04473 -0.0762619)
(0.0413825 0.00503728 0.307532)
(0.0248808 -0.0473063 0.217915)
(0.0155471 -0.102312 0.18913)
(0.0845073 -0.159488 0.238058)
(0.0516498 0.0264485 -0.0485173)
(-0.0442369 -0.0379828 0.335121)
(0.129622 0.127799 0.886828)
(-0.0697373 0.0884144 0.988365)
(-0.164688 0.182593 0.765432)
(0.0139568 0.106915 0.339626)
(-0.154511 0.00479469 0.0246498)
(0.00176429 -0.00397599 0.996693)
(-0.00673289 0.0691651 0.532801)
(0.0930284 -0.0129553 0.701816)
(0.0391731 0.0632495 0.731791)
(-0.0249027 -0.182748 0.572257)
(0.0156158 -0.112528 0.20011)
(0.038222 -0.04801 0.0610067)
(0.077052 0.166458 0.301248)
(0.174649 -0.107052 0.423598)
(-0.18149 -0.0497618 0.467786)
(-0.0124488 0.0736415 0.0630816)
(0.0224099 0.011116 0.128236)
(0.0625909 0.137236 0.0485024)
(-0.00675852 0.0646432 0.0928789)
(0.043582 0.0554204 -0.105366)
(0.0601795 0.00941155 0.330396)
(0.0239437 0.00452224 0.170698)
(0.102652 -0.0293061 0.208739)
(0.0770338 -0.0947985 0.2846)
(0.0537948 0.0508059 0.0364307)
(0.0494135 0.00949339 0.338445)
(0.138416 0.153425 0.782384)
(-0.00212629 0.131665 1.02267)
(-0.144827 0.206716 0.739881)
(0.0363221 0.156552 0.201087)
(0.00706143 -0.0414613 0.0620315)
(0.000700577 0.0204079 0.938989)
(0.0949702 0.0670709 0.441076)
(0.111999 0.0459744 0.710703)
(0.0644612 0.0769902 0.800754)
(-0.0022728 -0.130758 0.600108)
(0.0412814 -0.0451959 0.270482)
(-0.0033049 -0.0478457 0.0836207)
(0.153789 0.145092 0.277234)
(0.208944 -0.0521201 0.430088)
(-0.0990565 -0.013348 0.498829)
(0.0135862 0.0548677 0.126606)
(-0.0940065 0.0572074 0.0505496)
(-0.0829972 -0.0222266 -0.0587824)
(0.0603381 0.0849998 0.0835574)
(-0.00316349 0.0662638 0.200462)
(0.0228025 0.036007 -0.0284354)
(0.0499063 0.00721734 0.351765)
(0.0279611 -0.0013255 0.0734085)
(0.0958249 0.0261641 0.157522)
(0.0649822 -0.000193543 0.339071)
(0.0499559 0.0624261 0.0524016)
(0.0801623 0.00483107 0.282982)
(0.154829 0.131835 0.678639)
(0.0498482 0.151094 0.985154)
(-0.0842834 0.224656 0.70593)
(-0.0322127 0.0512307 0.166914)
(0.0329032 -0.0444231 0.080238)
(0.00104004 0.0295494 0.928937)
(0.127424 0.0471122 0.38293)
(0.108427 0.0680537 0.729231)
(0.0709347 0.10991 0.855752)
(0.0257955 -0.0291349 0.628729)
(0.0620007 -0.0747935 0.357317)
(0.0174668 -0.0121713 0.0918853)
(0.13555 0.128456 0.213379)
(0.205623 -0.0268728 0.45732)
(-0.0422227 0.0199032 0.552006)
(0.0216039 0.0656946 0.208056)
(-0.111736 0.0656775 -0.0267593)
(-0.046446 0.0317832 -0.0916144)
(0.0255932 0.0609206 0.147044)
(0.00705082 0.0681949 0.256001)
(0.0346088 0.0297703 0.0642576)
(-0.0109837 0.00951581 0.357574)
(0.0524286 -0.0376708 0.0274228)
(-0.0136055 0.0706763 0.114149)
(-0.0137628 0.0828256 0.383515)
(0.00568267 0.0368172 0.0499038)
(0.0843137 -0.0322274 0.226828)
(0.161517 0.108953 0.670233)
(0.0516528 0.139217 0.965871)
(-0.0670751 0.212524 0.708825)
(-0.061366 -0.0669331 0.17369)
(0.0802709 -0.0514068 0.012128)
(0.0295551 0.0193235 0.85551)
(0.154871 0.0305299 0.320913)
(0.0979844 0.056861 0.761835)
(0.0509064 0.125121 0.902309)
(0.045456 0.0086731 0.669182)
(0.0875842 -0.0902028 0.370647)
(0.0571045 0.0471495 0.0553709)
(0.095168 0.119767 0.177783)
(0.158852 -0.019957 0.486262)
(-0.00618412 0.0515878 0.614805)
(0.0455391 0.0789244 0.300349)
(-0.0398742 0.0838474 -0.0402724)
(-0.0253239 0.0450854 0.225388)
(-0.00577635 0.0877325 0.295401)
(0.045464 0.0218045 0.131055)
(-0.0460243 0.00288915 0.353727)
(0.0656805 -0.0669523 0.0234701)
(-0.0415631 0.087149 0.101361)
(-0.0671646 0.119499 0.359456)
(-0.0299751 0.0214369 0.0571749)
(0.060205 -0.058967 0.183226)
(0.143434 0.0845142 0.676844)
(0.044881 0.123019 0.967937)
(-0.0713667 0.165001 0.682924)
(-0.0622555 -0.0959183 0.179266)
(0.0431986 -0.0115012 0.49037)
(0.113048 -0.0254384 0.264952)
(0.0509354 0.018384 0.794759)
(0.0283614 0.106583 0.933745)
(0.0674596 0.000432232 0.664862)
(0.0333841 -0.0170049 0.250583)
(0.0879924 0.0964835 0.139251)
(0.0374187 0.0101962 0.511578)
(0.0168385 0.068165 0.625889)
(0.0605023 0.0907491 0.383414)
(-0.0502221 0.0669372 0.0070634)
(-0.0526515 0.032791 0.268512)
(-0.0220238 0.101043 0.326942)
(0.0383265 0.0106479 0.182504)
(-0.0316692 0.00509241 0.335909)
(0.0763152 -0.0923684 0.0473038)
(0.00100221 0.0245489 0.104833)
(-0.0614599 0.097409 0.333519)
(-0.0531146 0.00053107 0.0758625)
(0.0221513 -0.0784052 0.152523)
(0.0939108 -0.00313168 0.687903)
(0.040762 0.0852899 0.978157)
(-0.0430525 0.0637503 0.675541)
(0.0217225 -0.0565558 0.148929)
(0.0101826 -0.0422671 0.356667)
(0.0887298 -0.0623517 0.193575)
(-0.0197021 -0.039873 0.78655)
(0.0235027 0.0744782 0.9304)
(0.0966167 0.0126399 0.664422)
(0.0450146 -0.00441551 0.225524)
(0.010684 0.0217565 0.131466)
(-0.0368848 0.0413914 0.490982)
(0.0170003 0.0703821 0.613589)
(0.0774652 0.105984 0.446434)
(-0.0264062 0.0383757 0.0464031)
(-0.0641387 0.0230267 0.30724)
(-0.034733 0.0943625 0.356846)
(0.0249888 0.00654819 0.236953)
(0.0116643 6.28735e-05 0.355427)
(0.0782406 -0.105897 0.090832)
(0.0238603 -0.0544371 0.146204)
(-0.0213265 0.0168922 0.352645)
(-0.0636968 -0.0132304 0.106708)
(-0.0008286 -0.0866473 0.15476)
(0.0138915 -0.098321 0.686305)
(0.00186522 0.0278521 0.963266)
(0.0436877 -0.0703645 0.625208)
(0.0302433 -0.0443774 0.15456)
(0.0035025 -0.0304993 0.316473)
(0.0289948 -0.0551155 0.162115)
(-0.0626263 -0.0685833 0.723376)
(0.00763258 0.0475133 0.891435)
(0.0981372 0.0479995 0.636655)
(0.02234 0.0277743 0.218945)
(-0.0357462 -0.0135641 0.131236)
(-0.0503918 0.059772 0.472127)
(-0.0163417 0.0796542 0.568721)
(0.0712758 0.125151 0.47341)
(-0.00316414 0.0313215 0.139267)
(-0.0579112 0.0103047 0.348933)
(-0.0411597 0.0729277 0.388545)
(0.00382693 0.00855713 0.305142)
(0.0237505 -0.0030324 0.415835)
(0.0162885 -0.0386078 0.162266)
(0.0235507 -0.107976 0.207925)
(-0.00606894 -0.0759708 0.405075)
(-0.0430744 0.00911856 0.160563)
(0.0229502 -0.0938996 0.148547)
(-0.0605959 -0.0976145 0.654084)
(-0.0647353 -0.0629583 0.866582)
(0.0912076 -0.0849441 0.558449)
(0.0159561 -0.0496984 0.16772)
(0.000506836 0.0142387 0.342239)
(0.00404606 0.0344021 0.164691)
(-0.0507227 -0.0352706 0.657694)
(-0.0244853 0.0429682 0.796474)
(0.0729989 0.101371 0.561533)
(-0.0249766 0.0496052 0.210286)
(-0.0348676 -0.0121909 0.140975)
(-0.0406152 0.0696711 0.470674)
(-0.0414774 0.087927 0.540327)
(0.0536628 0.139322 0.475564)
(0.0193949 0.00699393 0.255398)
(-0.0430019 0.00423169 0.392325)
(-0.0498144 0.0438373 0.426956)
(-0.0275434 0.0231427 0.37613)
(0.0275693 -0.012378 0.492421)
(-0.0525463 0.037922 0.193012)
(0.0383353 -0.135869 0.262047)
(0.00539187 -0.120342 0.472926)
(-0.0107373 0.0325554 0.21839)
(-0.00653543 -0.0411149 0.173793)
(-0.0802351 -0.0709881 0.597448)
(-0.0499107 -0.102612 0.762452)
(0.0913039 -0.0226022 0.50506)
(0.000916836 -0.0494675 0.179892)
(0.0176115 0.0447487 0.309524)
(0.0574928 0.0740464 0.161167)
(0.0025485 0.0499747 0.609637)
(-0.0118654 0.059319 0.715593)
(0.0505582 0.129436 0.516313)
(-0.0299618 0.0202572 0.212994)
(-0.000364542 -0.00434363 0.184882)
(-0.0133624 0.0877605 0.4964)
(-0.0405209 0.0876353 0.540545)
(0.0294728 0.137571 0.479812)
(0.0335096 -0.0144657 0.350992)
(-0.034421 0.0118077 0.445749)
(-0.0594823 0.0231323 0.469521)
(-0.0461953 0.0307041 0.436671)
(-0.0376647 -0.00411394 0.57695)
(-0.0866945 0.0789857 0.183715)
(0.0312628 -0.10246 0.301237)
(0.00887742 -0.137512 0.545008)
(0.00785318 0.0331382 0.255196)
(-0.0529152 0.0661908 0.17633)
(-0.0528671 -0.0554564 0.527404)
(0.0166287 -0.054946 0.678622)
(0.0688765 0.0392341 0.470776)
(-0.0112501 -0.048397 0.191157)
(0.0229777 0.0788745 0.124692)
(0.0863806 0.0759025 0.1309)
(0.024157 0.105578 0.608114)
(0.025723 0.0901137 0.660197)
(0.0365337 0.14599 0.492354)
(-0.0143827 -0.0286806 0.229495)
(0.0354103 -0.0160973 0.218601)
(0.00553013 0.0980603 0.560161)
(-0.0272881 0.0920343 0.555334)
(0.0192999 0.129164 0.495167)
(0.0414467 -0.0183416 0.423451)
(-0.038459 0.0206184 0.51049)
(-0.0602907 0.0181378 0.512935)
(-0.0442855 0.0333719 0.481074)
(-0.0923607 -0.0139068 0.478793)
(-0.106613 0.101118 0.181884)
(-0.0869613 0.0485425 0.355201)
(-0.033322 0.00581778 0.59419)
(0.00840978 0.0264087 0.275344)
(-0.0609842 0.115738 0.165331)
(-0.02736 -0.00104469 0.468575)
(0.0563036 0.0470113 0.602546)
(0.0355871 0.067455 0.455442)
(-0.0206101 -0.0499395 0.202206)
(0.0111949 0.0897578 0.0721082)
(0.0888039 0.0441837 0.114865)
(0.0112419 0.128411 0.603013)
(0.0567295 0.13633 0.627602)
(0.0290245 0.146489 0.485737)
(-0.0130675 -0.0673225 0.238323)
(0.0566619 -0.025144 0.217042)
(0.001936 0.0957716 0.612558)
(0.00360521 0.12065 0.589746)
(0.016955 0.113819 0.535512)
(0.046766 -0.0139681 0.497195)
(-0.0388823 0.0236112 0.572858)
(-0.0525009 0.0279977 0.558154)
(-0.017205 0.0226263 0.52305)
(-0.0582446 -0.0115104 0.334086)
(-0.102136 0.0973739 0.186802)
(-0.117055 0.109819 0.349971)
(-0.0242642 0.0883242 0.528318)
(-0.0278838 0.0133191 0.283292)
(-0.0550853 0.117131 0.169311)
(-0.0026004 0.0589138 0.444671)
(0.0545843 0.119273 0.557063)
(0.00889436 0.0526231 0.447269)
(-0.0259461 -0.0494246 0.210604)
(0.00935409 0.0904242 0.0624588)
(0.0734424 0.000653456 0.130101)
(0.00322878 0.138009 0.592334)
(0.0615756 0.177654 0.61263)
(0.0218342 0.123808 0.492035)
(-0.0265406 -0.0978273 0.238171)
(0.0661336 -0.000564476 0.194586)
(-0.00310074 0.0942185 0.65481)
(0.0305298 0.143694 0.626232)
(0.0289394 0.0969459 0.595155)
(0.054061 -0.0190789 0.565546)
(-0.0350942 0.0180866 0.631074)
(-0.042634 0.0393543 0.606735)
(0.027271 -0.00665316 0.561171)
(-0.015424 -0.00429471 0.255886)
(-0.0675151 0.0653187 0.18387)
(-0.090563 0.0951756 0.307618)
(-0.0447961 0.0441882 0.339941)
(-0.0506045 -0.0150215 0.281789)
(-0.043395 0.0839132 0.179543)
(0.029856 0.0745964 0.443139)
(0.0392635 0.128549 0.545501)
(-0.026461 -0.0302425 0.442322)
(-0.0191009 -0.040695 0.219185)
(0.00828508 0.0878087 0.0563329)
(0.0527425 -0.0242941 0.143076)
(0.00506825 0.140614 0.589181)
(0.0432112 0.195747 0.605776)
(-0.00366871 0.0106304 0.504721)
(-0.0493414 -0.11501 0.240127)
(0.0717852 0.03291 0.159417)
(-0.00112689 0.0974395 0.696422)
(0.0497357 0.152477 0.660725)
(0.0563448 0.0862459 0.651797)
(0.0692957 -0.0323971 0.624169)
(-0.0366765 0.0137433 0.694415)
(-0.02905 0.0579157 0.654442)
(0.0541215 -0.0177964 0.594352)
(-0.00653133 0.000488167 0.219965)
(-0.041646 0.0373771 0.165688)
(-0.0674068 0.0574081 0.273884)
(-0.097675 0.0541328 0.264821)
(-0.061925 -0.0386851 0.28126)
(-0.0414668 0.0474369 0.180685)
(0.0429558 0.0717666 0.445029)
(-0.00189199 0.0949243 0.530853)
(-0.0548476 -0.126636 0.443695)
(-6.76026e-05 -0.00754622 0.229587)
(0.00709115 0.0849574 0.052429)
(0.0391316 -0.0282949 0.140332)
(0.0144687 0.143678 0.587686)
(0.0160312 0.185476 0.597232)
(-0.0459679 -0.131136 0.483735)
(-0.0572777 -0.0973783 0.248063)
(0.0618985 0.0376391 0.128246)
(0.000597192 0.106671 0.73435)
(0.0573678 0.1498 0.69472)
(0.0700362 0.0589302 0.668365)
(0.0699046 -0.103203 0.621412)
(-0.0480102 0.00548155 0.764957)
(-0.0178511 0.0750363 0.702223)
(0.0654904 -0.0152258 0.640544)
(0.00763647 -0.000770722 0.191629)
(-0.0343527 0.0217655 0.153099)
(-0.0562604 0.0223321 0.273745)
(-0.123252 0.040389 0.248655)
(-0.0654271 -0.0424734 0.279926)
(-0.0415803 0.0153101 0.179024)
(0.0345496 0.0696979 0.44677)
(-0.0878289 0.0261267 0.501029)
(-0.0567964 -0.165071 0.438432)
(0.0179052 0.0294788 0.242675)
(0.00471044 0.0756816 0.0575581)
(0.0233739 -0.0284519 0.139278)
(0.0411583 0.135269 0.58387)
(-0.0207312 0.126163 0.589571)
(-0.0649349 -0.206393 0.44232)
(-0.0407591 -0.040515 0.256475)
(0.0260576 0.0110026 0.128712)
(-0.00273978 0.106352 0.756719)
(0.0445666 0.1246 0.720712)
(0.0522697 0.0509415 0.66468)
(0.0782005 -0.186462 0.408635)
(-0.0619451 0.00106556 0.8265)
(-0.00994796 0.0785401 0.737359)
(0.0763427 -0.0206691 0.698186)
(0.0352897 -0.0019788 0.178279)
(-0.0361118 0.0130396 0.163498)
(-0.0478204 -0.0122334 0.291346)
(-0.114479 0.0220206 0.247205)
(-0.0522491 -0.0228428 0.266006)
(-0.0421538 -0.0026629 0.178437)
(0.0120733 0.0493065 0.45352)
(-0.136561 -0.0197909 0.505154)
(-0.047476 -0.16492 0.430667)
(0.0281309 0.0493534 0.254973)
(0.000296472 0.0587056 0.0770041)
(0.0117206 -0.0252192 0.151337)
(0.0532565 0.101734 0.581978)
(-0.0757265 -0.0120801 0.596754)
(-0.0573388 -0.225346 0.414042)
(-0.0177063 0.0161901 0.250687)
(-0.0099165 -0.0399459 0.150751)
(-0.0207913 0.0914318 0.766654)
(-0.00833673 0.0401364 0.726186)
(-0.0217081 -0.0513232 0.630461)
(0.023944 -0.0815682 0.308226)
(-0.101269 -0.00243078 0.867664)
(-0.0192332 0.0635929 0.753578)
(0.0341691 -0.0105111 0.716169)
(0.0660405 -0.00223215 0.185742)
(-0.0422087 0.0095882 0.194659)
(-0.0438636 -0.0452156 0.317192)
(-0.0867071 -0.00427263 0.254838)
(-0.0353148 -0.00328256 0.246288)
(-0.0404542 -0.00501507 0.180151)
(-0.00561559 -0.00880344 0.470884)
(-0.140123 -0.0567632 0.535499)
(-0.00975726 -0.121464 0.418076)
(0.0328512 0.060587 0.261022)
(-0.00506182 0.0360019 0.112367)
(0.00567537 -0.0082603 0.169506)
(0.0277006 0.0271297 0.592298)
(-0.0957712 -0.0943454 0.623585)
(-0.0311828 -0.196436 0.39977)
(-0.00588362 0.0505509 0.24168)
(-0.0438125 -0.0906112 0.173203)
(-0.0615254 0.0441096 0.790904)
(-0.0963586 -0.0977292 0.692716)
(-0.0888145 -0.236183 0.478753)
(-0.0308792 0.0229348 0.261948)
(-0.129343 -0.0220192 0.892798)
(-0.0568749 0.0173641 0.740187)
(0.0235258 -0.00560923 0.681831)
(0.0947018 -0.00237645 0.214527)
(-0.0489671 0.010311 0.238985)
(-0.0382796 -0.0749275 0.354275)
(-0.0607834 -0.034312 0.273581)
(-0.0255136 0.00337597 0.231593)
(-0.0318573 0.00492212 0.187374)
(-0.0199599 -0.0818762 0.49335)
(-0.0956334 -0.0870778 0.552952)
(0.0350978 -0.0674505 0.403889)
(0.0355367 0.0675932 0.268412)
(-0.00840686 0.0103445 0.157551)
(0.00326892 0.0159168 0.190348)
(-0.00866861 -0.0719381 0.609626)
(-0.0831405 -0.108312 0.634849)
(0.0165133 -0.120627 0.388089)
(-0.00528799 0.0764022 0.23411)
(-0.0723294 -0.122914 0.192172)
(-0.0546701 0.0115458 0.819287)
(-0.110588 -0.115947 0.667875)
(-0.0370019 -0.141641 0.387597)
(-0.0494244 0.0789147 0.222498)
(-0.167922 -0.0567589 0.900433)
(-0.20252 -0.0530378 0.5762)
(-0.0208482 -0.0302432 0.479322)
(0.118783 -0.00339562 0.263153)
(-0.0543588 0.0145933 0.290045)
(-0.0370964 -0.0997623 0.398027)
(-0.0341356 -0.058 0.30366)
(-0.0205943 0.00773898 0.232243)
(-0.019146 0.0191166 0.197796)
(-0.0273071 -0.144501 0.505065)
(-0.0316465 -0.10014 0.540752)
(0.0621827 -0.0462141 0.395357)
(0.0366153 0.0698322 0.280111)
(-0.00733713 -0.0112335 0.206156)
(0.00363291 0.0362811 0.214626)
(-0.0258865 -0.150726 0.604162)
(-0.0425392 -0.107866 0.617634)
(0.044247 -0.0830094 0.379654)
(-0.00863337 0.099366 0.232698)
(-0.0791942 -0.126267 0.215092)
(-0.00280836 -0.00196878 0.829251)
(-0.0632842 -0.0701715 0.630135)
(0.0190193 -0.0634326 0.335741)
(-0.0531114 0.100922 0.211243)
(-0.142612 -0.0774819 0.927777)
(-0.101334 0.0426675 0.473871)
(-0.026816 0.0104541 0.278989)
(0.139025 -0.00589648 0.326924)
(-0.0568204 0.0232788 0.336498)
(-0.0375521 -0.120463 0.44493)
(-0.00158093 -0.052381 0.337762)
(-0.0104724 0.0176197 0.254705)
(-0.00357446 0.0355143 0.207752)
(-0.0156164 -0.17376 0.503982)
(0.00872307 -0.0893901 0.516728)
(0.0715369 -0.0323219 0.398154)
(0.030772 0.0704265 0.28678)
(-0.00291521 -0.0100814 0.243567)
(0.0023172 0.0320845 0.254914)
(-0.0177537 -0.189961 0.562285)
(0.0281812 -0.109062 0.561033)
(0.0625234 -0.0638666 0.38608)
(-0.0128175 0.111565 0.239984)
(-0.0602697 -0.0889038 0.246158)
(0.0581405 -0.0229427 0.7818)
(0.0632572 -0.00501429 0.534096)
(0.059593 -0.0317433 0.32017)
(-0.047008 0.0982546 0.233847)
(-0.0869094 -0.0475217 0.928211)
(0.0123936 0.121517 0.458774)
(0.000163703 0.0179429 0.221892)
(0.13863 -0.00598643 0.391461)
(-0.0521788 0.0346015 0.363201)
(-0.0160066 -0.128608 0.482274)
(0.0313419 -0.00718681 0.362226)
(0.0081411 0.0336814 0.287306)
(0.00748754 0.0543746 0.214457)
(0.00915863 -0.17025 0.499773)
(0.0145171 -0.0710568 0.510037)
(0.0583553 -0.0151571 0.410538)
(0.0101529 0.0694683 0.279514)
(0.000695019 0.0200218 0.257091)
(0.0134767 0.0124044 0.304946)
(0.0146871 -0.169547 0.513057)
(0.0680662 -0.0938243 0.514)
(0.0697379 -0.047128 0.413848)
(-0.00854656 0.0975295 0.26796)
(-0.0206731 -0.0408378 0.26924)
(0.0764825 -0.0527866 0.664494)
(0.101401 -0.0172768 0.471144)
(0.0740478 -0.0254796 0.348939)
(-0.031748 0.0704948 0.282766)
(0.0777422 -0.0300601 0.946288)
(0.0715561 0.126532 0.53105)
(0.016447 0.0069397 0.234497)
(0.0717079 0.00772563 0.409736)
(-0.048614 0.0423003 0.36289)
(-0.00419769 -0.097492 0.508405)
(0.0386793 0.0361714 0.375694)
(0.0251198 0.0433719 0.305043)
(0.00642976 0.0737276 0.22425)
(0.0427853 -0.116297 0.489342)
(0.0109403 -0.0598777 0.523734)
(0.0166089 0.00423556 0.437034)
(-0.0199823 0.0402486 0.254389)
(0.00365659 0.0437465 0.25527)
(0.0260813 0.0107427 0.334827)
(0.0666964 -0.0996114 0.468635)
(0.0845173 -0.0682261 0.49718)
(0.0662981 -0.0356744 0.451504)
(0.010106 0.0597078 0.318073)
(0.0119126 -0.0121185 0.282369)
(0.0616473 -0.0790885 0.564349)
(0.0909173 -0.0494023 0.434701)
(0.0781691 -0.0243196 0.38874)
(-0.0173368 0.0434365 0.330276)
(0.134508 -0.0258103 0.888377)
(0.0980609 0.0649561 0.616484)
(0.025867 -0.0104467 0.268973)
(0.0155058 0.0120811 0.353516)
(-0.048609 0.0505487 0.340716)
(-0.058451 -0.0197836 0.507618)
(0.0276722 0.0360351 0.396272)
(0.0345584 0.037184 0.300474)
(-0.00329742 0.0828497 0.240903)
(0.0302826 -0.00508322 0.475044)
(0.0217193 -0.0415913 0.551718)
(0.00110497 0.00217479 0.464184)
(-0.0241042 0.0117004 0.231802)
(0.00447429 0.0467854 0.252735)
(0.0275976 0.0122202 0.347922)
(0.0824418 -0.0232892 0.462112)
(0.0890084 -0.0457855 0.508296)
(0.0562693 -0.0221648 0.484825)
(0.0257907 0.0321567 0.36379)
(0.016784 -0.012602 0.29456)
(0.0466775 -0.0857224 0.501979)
(0.0717682 -0.0666949 0.426535)
(0.0714089 -0.0252743 0.424589)
(-0.00869797 0.0313009 0.364213)
(0.00262684 -0.0612092 0.693513)
(0.0882426 -0.022099 0.625473)
(0.025267 -0.0164938 0.307)
(0.0058119 7.59955e-05 0.319433)
(-0.0476239 0.0598453 0.291308)
(-0.0519289 0.00809575 0.475334)
(0.0135076 -0.0176932 0.387581)
(0.0312704 0.0132252 0.28511)
(-0.00380636 0.0711002 0.267422)
(-0.00560783 0.0753812 0.458226)
(0.0360593 -0.0228603 0.570284)
(0.0151207 0.010167 0.490027)
(-0.0161878 0.00588587 0.228353)
(0.00307249 0.03787 0.255717)
(0.0225257 0.0084986 0.34924)
(0.060094 0.046084 0.479328)
(0.0857309 -0.028264 0.529008)
(0.0405348 0.0116997 0.509219)
(0.0282739 0.0278709 0.390126)
(0.00105795 -0.0271516 0.314257)
(0.0388607 -0.0648837 0.485018)
(0.0466351 -0.069179 0.441034)
(0.0537315 -0.0131334 0.457416)
(-0.00181114 0.0272683 0.389813)
(-0.0747815 -0.0652631 0.523104)
(0.0950154 -0.089204 0.530693)
(0.00571257 -0.00831746 0.345443)
(0.00673588 -0.00323924 0.314925)
(-0.0403256 0.0481515 0.244967)
(-0.00526159 0.0459928 0.424195)
(0.0214648 -0.00332615 0.348195)
(0.00739616 -0.0197543 0.27472)
(0.00240442 0.0499717 0.292318)
(-0.0261503 0.109521 0.439766)
(0.0350828 -0.0164314 0.581183)
(0.0227253 0.0479442 0.50293)
(-0.0048126 0.0157791 0.244507)
(0.000521989 0.0229392 0.262876)
(0.0202562 0.0129692 0.347008)
(0.0299697 0.0947128 0.50344)
(0.0610163 -0.0241741 0.550527)
(0.015406 0.0682472 0.523732)
(0.0233734 0.0282314 0.396217)
(-0.0195691 -0.0373235 0.335684)
(0.0260399 0.00162015 0.503006)
(0.0125664 -0.0654509 0.461729)
(0.0273471 0.0368187 0.489448)
(0.00418611 0.0221866 0.419277)
(-0.0494737 -0.00541852 0.454416)
(0.0889916 -0.0770878 0.447298)
(-0.0282247 0.0106661 0.386963)
(0.00664341 -0.00224568 0.320771)
(-0.0189343 0.0242706 0.220677)
(0.0175316 0.0803912 0.354403)
(0.0204088 0.0184504 0.328639)
(-0.0154232 -0.0449743 0.267664)
(0.0111985 0.0310343 0.295849)
(-0.0267378 0.113088 0.429125)
(0.0170248 -0.0219048 0.596648)
(-0.00611432 0.109437 0.478503)
(0.00420392 0.0196408 0.266218)
(-0.000931407 0.00767674 0.266965)
(0.0221067 0.0160919 0.348779)
(0.00602695 0.118622 0.522053)
(0.014056 -0.024965 0.571156)
(-0.0120644 0.111543 0.529106)
(0.0102885 0.0075553 0.389308)
(-0.0360478 -0.0436929 0.356228)
(0.00862329 0.0631388 0.528365)
(-0.0155501 -0.059418 0.476149)
(-0.00429235 0.0867422 0.515504)
(0.0109029 0.0129872 0.455384)
(-0.0194552 0.0434535 0.458556)
(0.0753159 -0.0282949 0.432563)
(-0.0600109 0.0278348 0.433)
(-0.00103782 -0.00213285 0.33036)
(-0.00593665 0.0101513 0.200252)
(0.00723701 0.0671075 0.300696)
(0.0099647 0.00843319 0.328198)
(-0.0169554 -0.0599832 0.267331)
(0.0176808 0.0179512 0.283235)
(-0.0177998 0.104824 0.423056)
(-0.000267316 -0.0210925 0.635396)
(-0.0333161 0.127968 0.423391)
(0.00913356 0.00846799 0.274608)
(-0.00148872 -0.00535803 0.265069)
(0.022616 0.00649844 0.359582)
(-0.00843122 0.118866 0.537152)
(-0.0160139 -0.0193902 0.587662)
(-0.0282178 0.117855 0.530591)
(-0.00645738 -0.0183055 0.375682)
(-0.045972 -0.0512731 0.378338)
(0.00123931 0.0889838 0.542741)
(-0.0299856 -0.0513304 0.489979)
(-0.0299747 0.0963857 0.536268)
(0.0154948 0.00581345 0.490642)
(-0.00538538 0.0612724 0.481997)
(0.0734439 -0.00917671 0.439917)
(-0.0713099 0.027956 0.47238)
(-0.00563406 -0.00186585 0.331641)
(-0.00265904 0.00571676 0.183145)
(-0.00604043 0.0505561 0.270802)
(-0.0162534 -0.0063677 0.341501)
(-0.00890754 -0.0398215 0.282187)
(0.0172278 0.00655576 0.272296)
(-0.00767296 0.0852815 0.419337)
(0.00172437 0.0102074 0.661482)
(-0.0220166 0.0750125 0.364252)
(0.0114204 -0.00888671 0.26862)
(-0.00298376 -0.0148712 0.259127)
(0.0229482 -0.0238281 0.375641)
(-0.0172054 0.112319 0.545512)
(-0.0158349 -0.0071715 0.602797)
(-0.0319004 0.109742 0.529399)
(-0.0192265 -0.027921 0.366379)
(-0.048294 -0.0582729 0.397807)
(0.0085092 0.0962944 0.553114)
(-0.0294088 -0.0352549 0.512444)
(-0.0423131 0.0870334 0.549297)
(0.0230538 -0.00331903 0.506787)
(-0.00405225 0.0551786 0.506164)
(0.0765125 -0.00779981 0.457638)
(-0.0500626 0.00698509 0.498336)
(-0.00590756 0.00217689 0.307228)
(-0.00188675 0.00397788 0.172173)
(-0.0101726 0.0450959 0.260758)
(-0.0312917 0.0100644 0.350204)
(0.00698723 0.00430907 0.303836)
(0.00971136 -0.00583607 0.273197)
(-0.010511 0.0765033 0.420855)
(0.00190224 0.0624654 0.650677)
(-0.00451061 0.00522741 0.317583)
(0.00342369 -0.0277678 0.256442)
(-0.00447324 -0.0213307 0.254941)
(0.0187292 -0.046915 0.382594)
(-0.0177975 0.106234 0.54482)
(-0.00233452 0.0265998 0.624163)
(-0.0292317 0.0814042 0.52555)
(-0.0251739 -0.0330698 0.365953)
(-0.0428177 -0.0545792 0.413546)
(0.0183011 0.0884487 0.566797)
(-0.015872 -0.00397942 0.550113)
(-0.0503886 0.0664779 0.563985)
(0.0364871 -0.0433244 0.485512)
(-0.0130498 0.0193888 0.507808)
(0.0692716 -0.00832351 0.482517)
(-0.00326827 -0.0147801 0.507682)
(-0.00806817 0.00251644 0.271172)
(-0.00246754 0.00318329 0.168084)
(-0.0111322 0.0415842 0.264671)
(-0.0395996 0.0101069 0.355738)
(0.0144798 0.0213789 0.30713)
(-0.00159156 -0.0160112 0.284101)
(-0.0303517 0.0751789 0.424647)
(-0.0147645 0.0811631 0.61463)
(-0.0110845 -0.0303219 0.294238)
(-0.00824797 -0.0412171 0.240649)
(-0.00523882 -0.0257408 0.255113)
(0.0091211 -0.0512453 0.385557)
(-0.0121938 0.0902658 0.541086)
(-0.00135335 0.0652837 0.647459)
(-0.0237365 0.0504201 0.528125)
(-0.02088 -0.0390441 0.366425)
(-0.0282569 -0.0316205 0.412031)
(0.0181543 0.0562512 0.590778)
(-0.00444734 0.034975 0.593559)
(-0.0543575 0.0268813 0.577573)
(0.0350447 -0.0663393 0.455636)
(-0.0223779 -0.0109686 0.480958)
(0.0470877 0.00289312 0.5139)
(0.0306916 -0.0192615 0.506842)
(-0.00106368 0.00164843 0.253151)
(-0.00327452 0.00230076 0.172292)
(-0.0182607 0.0263878 0.28386)
(-0.0372301 -0.0246381 0.368427)
(0.023133 0.0257321 0.298754)
(-0.0123478 -0.0219274 0.301025)
(-0.0814656 0.0508056 0.434597)
(-0.0630492 0.0492095 0.54223)
(-0.0354788 -0.0372187 0.276432)
(-0.0198238 -0.0438545 0.226952)
(-0.00551079 -0.0289279 0.258269)
(-0.00238279 -0.0340294 0.38484)
(-0.00649884 0.0553925 0.546653)
(-0.0136179 0.0970091 0.662256)
(-0.0248645 0.0327388 0.532801)
(-0.0104551 -0.0415691 0.359496)
(-0.0153029 -0.00631867 0.396601)
(-0.000436235 0.0114769 0.611698)
(-1.59622e-05 0.0685171 0.628392)
(-0.0458963 -0.0103375 0.582728)
(0.0240951 -0.0558631 0.432643)
(-0.0240187 -0.0112269 0.456421)
(0.0184406 0.0278439 0.548453)
(0.0471863 -0.0241541 0.496388)
(0.0120183 0.000237928 0.252283)
(-0.00215472 0.000488504 0.188773)
(-0.0233966 0.00873 0.312352)
(-0.0286835 -0.0414879 0.375798)
(0.0312816 0.0322745 0.295788)
(-0.0180275 -0.0255731 0.324253)
(-0.0987475 0.0250869 0.446499)
(-0.102741 0.0023469 0.443118)
(-0.0593603 -0.0287959 0.255737)
(-0.0234403 -0.0266501 0.227344)
(-0.00548992 -0.0322829 0.264372)
(-0.0120804 -0.00459047 0.37732)
(-0.00835925 0.0309998 0.56286)
(-0.0273498 0.116281 0.653534)
(-0.0349136 0.0214044 0.530297)
(0.00443929 -0.0282125 0.3457)
(-0.0125306 0.00303657 0.386964)
(-0.029054 -0.0159724 0.618259)
(0.00244467 0.084828 0.649944)
(-0.016394 -0.0186613 0.583087)
(0.0196298 -0.0424258 0.419855)
(-0.0263557 -0.00604842 0.444498)
(-0.00599374 0.0418518 0.577557)
(0.0478019 -0.022913 0.482489)
(0.0169805 -0.00164103 0.259395)
(0.000470209 -0.0021918 0.211887)
(-0.0236249 -0.00113939 0.335915)
(-0.0153354 -0.0321358 0.382631)
(0.0400921 0.0372641 0.295941)
(-0.016326 -0.0243449 0.342836)
(-0.0807531 0.0137294 0.458923)
(-0.0870896 -0.0170512 0.372086)
(-0.0643948 -0.0137669 0.239667)
(-0.0101511 0.00817064 0.236314)
(-0.00579751 -0.0391525 0.274372)
(-0.0163158 0.0110237 0.374996)
(-0.0145669 0.0120677 0.581243)
(-0.0398497 0.112585 0.632011)
(-0.0522181 0.00278629 0.509955)
(0.0131852 -0.0204024 0.332617)
(-0.0159498 0.00190644 0.386351)
(-0.0542205 -0.0227705 0.617346)
(0.00140911 0.0835739 0.664855)
(0.00940206 -0.00929274 0.590863)