/*--------------------------------*- C++ -*----------------------------------*\
| =========                 |                                                 |
| \\      /  F ield         | OpenFOAM: The Open Source CFD Toolbox           |
|  \\    /   O peration     | Version:  5.x                                   |
|   \\  /    A nd           | Web:      www.OpenFOAM.org                      |
|    \\/     M anipulation  |                                                 |
\*---------------------------------------------------------------------------*/
FoamFile
{
    version     2.0;
    format      ascii;
    class       volVectorField;
    location    "7";
    object      Us;
}
// * * * * * * * * * * * * * * * * * * * * * * * * * * * * * * * * * * * * * //

dimensions      [0 1 -1 0 0 0 0];

internalField   nonuniform List<vector> 
10571
(
(-0.00233307 0.00261218 -0.0010739)
(0.000300451 0.00394612 -0.00333324)
(0.000601775 0.010657 0.00230182)
(-0.00723774 0.0100459 0.00819049)
(-0.00546743 0.0154146 0.000920859)
(-0.00138136 0.00886231 0.0095179)
(-0.00619013 -0.0249024 0.0150087)
(-0.00643824 -0.0462883 0.0101866)
(-0.0087005 -0.0350135 0.0234802)
(0.00439252 -0.0206479 0.00447587)
(-0.00193238 -0.00291532 0.00260295)
(-0.0261931 -0.0152202 0.0246182)
(-0.0585637 -0.0188055 -0.0171711)
(-0.0138172 -0.0247169 -0.0370044)
(0.017346 -0.0212823 -0.0324411)
(0.0200592 -0.00860114 0.0145324)
(-0.0209385 -0.0205344 0.011263)
(-0.0452901 0.0047891 -0.0106371)
(-0.0176016 0.0313753 -0.026465)
(0.0246589 0.0247326 -0.00738103)
(0.0106993 -0.000990564 0.0146531)
(-0.0162461 0.00112336 -0.00382714)
(-0.0139953 0.0179768 -0.000322856)
(0.00222368 0.00657461 0.00754933)
(0.00283329 0.00857812 -0.1146)
(-0.00461125 0.00353657 -0.173723)
(-0.00946829 0.0130792 -0.172319)
(0.0175688 0.0119246 -0.144195)
(0.0128361 0.00925767 -0.137151)
(0.0125078 -0.00526528 -0.188548)
(0.00232885 0.0224285 -0.142313)
(0.00411865 0.00855677 -0.130011)
(-0.00175688 0.0174008 -0.122971)
(0.0264095 0.0242516 -0.0420056)
(0.00511273 0.00286482 -0.185857)
(0.0264481 0.0118108 -0.180797)
(-0.00636703 0.0104761 -0.107483)
(0.00425929 0.0106147 -0.0945646)
(0.0130638 0.00748501 -0.0867102)
(0.00312033 0.00731117 -0.0762092)
(0.0160449 0.0286835 -0.163588)
(-0.00769597 0.00806151 -0.101913)
(0.00250471 0.0147663 -0.0813614)
(0.0176574 0.0252172 -0.0784693)
(0.0141726 -0.00554868 -0.0421546)
(-0.0130251 0.00266161 -0.0779681)
(-0.00449408 0.00471424 -0.0568774)
(0.00758109 0.000649927 -0.0333106)
(0.0161891 0.00181916 -0.0791114)
(0.000637019 -0.00164242 -0.0562414)
(0.00363602 0.00460214 -0.0613867)
(0.0285079 -0.00577881 -0.0693373)
(0.0240234 -0.00404839 -0.0980283)
(0.0225769 -0.00588189 -0.0232304)
(0.0641484 0.0708652 -0.0955427)
(0.010164 0.0744702 -0.108874)
(-0.020777 0.0453526 -0.121951)
(-0.0128153 0.0182695 -0.0800075)
(0.0182957 0.0166928 -0.00292014)
(0.0665267 0.0302326 -0.00920901)
(0.074549 0.0314774 -0.0955994)
(0.0201907 0.0351471 -0.0961636)
(-0.0124717 0.0170114 -0.105848)
(-0.0380526 0.0339579 -0.0929409)
(0.0458865 0.0521107 -0.0450881)
(0.0361131 -0.00430645 -0.0978081)
(0.00887605 -0.0084308 -0.0942245)
(3.91272e-06 -0.000838935 -0.0900156)
(-0.0113366 0.0145857 -0.0862096)
(0.0131501 -0.00501138 -0.0808484)
(0.0125842 -0.0138181 -0.0806603)
(0.00777222 -0.00869832 -0.0591214)
(0 0 0)
(0.00651182 -0.0189329 -0.0434605)
(0.00715904 -0.00438775 -0.0724398)
(0 0 0)
(0 0 0)
(0.0131402 -0.0100767 -0.0341382)
(0.0658299 0.0310276 -0.053622)
(0 0 0)
(0 0 0)
(0 0 0)
(0.00288943 0.0169578 0.0217974)
(0.0330736 0.02908 -0.011094)
(0.0842705 0.0360681 -0.061194)
(0 0 0)
(0 0 0)
(0 0 0)
(0.0399921 0.0596184 -0.0517509)
(0 0 0)
(0 0 0)
(0 0 0)
(0 0 0)
(0 0 0)
(0 0 0)
(0 0 0)
(0 0 0)
(0 0 0)
(0 0 0)
(0 0 0)
(0 0 0)
(0 0 0)
(0 0 0)
(0 0 0)
(0 0 0)
(0 0 0)
(0 0 0)
(0 0 0)
(0 0 0)
(0 0 0)
(0 0 0)
(0 0 0)
(0 0 0)
(0 0 0)
(0 0 0)
(0 0 0)
(0 0 0)
(0 0 0)
(0 0 0)
(0 0 0)
(0 0 0)
(0 0 0)
(0 0 0)
(0 0 0)
(0 0 0)
(0 0 0)
(0 0 0)
(0 0 0)
(0 0 0)
(0 0 0)
(0 0 0)
(0 0 0)
(0 0 0)
(0 0 0)
(0 0 0)
(0 0 0)
(0 0 0)
(0 0 0)
(0 0 0)
(0 0 0)
(0 0 0)
(0 0 0)
(0 0 0)
(0 0 0)
(0 0 0)
(0 0 0)
(0 0 0)
(0 0 0)
(0 0 0)
(0 0 0)
(0 0 0)
(0 0 0)
(0 0 0)
(0 0 0)
(0 0 0)
(0 0 0)
(0 0 0)
(0 0 0)
(0 0 0)
(0 0 0)
(0 0 0)
(0 0 0)
(0 0 0)
(0 0 0)
(0 0 0)
(0 0 0)
(0 0 0)
(0 0 0)
(0 0 0)
(0 0 0)
(0 0 0)
(0 0 0)
(0 0 0)
(0 0 0)
(0 0 0)
(0 0 0)
(0 0 0)
(0 0 0)
(0 0 0)
(0 0 0)
(0 0 0)
(0 0 0)
(0 0 0)
(0 0 0)
(0 0 0)
(0 0 0)
(0 0 0)
(0 0 0)
(0 0 0)
(0 0 0)
(0 0 0)
(0 0 0)
(0 0 0)
(0 0 0)
(0 0 0)
(0 0 0)
(0 0 0)
(0 0 0)
(0 0 0)
(0 0 0)
(0 0 0)
(0 0 0)
(0 0 0)
(0 0 0)
(0 0 0)
(0 0 0)
(0 0 0)
(0 0 0)
(0 0 0)
(0 0 0)
(0 0 0)
(0 0 0)
(0 0 0)
(0 0 0)
(0 0 0)
(0 0 0)
(0 0 0)
(0 0 0)
(0 0 0)
(0 0 0)
(0 0 0)
(0 0 0)
(0 0 0)
(0 0 0)
(0 0 0)
(0 0 0)
(0 0 0)
(0 0 0)
(0 0 0)
(0 0 0)
(0 0 0)
(0 0 0)
(0 0 0)
(0 0 0)
(0 0 0)
(0 0 0)
(0 0 0)
(0 0 0)
(0 0 0)
(0 0 0)
(0 0 0)
(0 0 0)
(0 0 0)
(0 0 0)
(0 0 0)
(0 0 0)
(0 0 0)
(0 0 0)
(0 0 0)
(0 0 0)
(0 0 0)
(0 0 0)
(0 0 0)
(0 0 0)
(0 0 0)
(0 0 0)
(0 0 0)
(0 0 0)
(0 0 0)
(0 0 0)
(0 0 0)
(0 0 0)
(0 0 0)
(0 0 0)
(0 0 0)
(0 0 0)
(0 0 0)
(0 0 0)
(0 0 0)
(0 0 0)
(0 0 0)
(0 0 0)
(0 0 0)
(0 0 0)
(0 0 0)
(0 0 0)
(0 0 0)
(0 0 0)
(0 0 0)
(0 0 0)
(0 0 0)
(0 0 0)
(0 0 0)
(0 0 0)
(0 0 0)
(0 0 0)
(0 0 0)
(0 0 0)
(0 0 0)
(0 0 0)
(0 0 0)
(0 0 0)
(0 0 0)
(0 0 0)
(0 0 0)
(0 0 0)
(0 0 0)
(0 0 0)
(0 0 0)
(0 0 0)
(0 0 0)
(0 0 0)
(0 0 0)
(0 0 0)
(0 0 0)
(0 0 0)
(0 0 0)
(0 0 0)
(0 0 0)
(0 0 0)
(0 0 0)
(0 0 0)
(0 0 0)
(0 0 0)
(0 0 0)
(0 0 0)
(0 0 0)
(0 0 0)
(0 0 0)
(0 0 0)
(0 0 0)
(0 0 0)
(0 0 0)
(0 0 0)
(0 0 0)
(0 0 0)
(0 0 0)
(0 0 0)
(0 0 0)
(0 0 0)
(0 0 0)
(0 0 0)
(0 0 0)
(0 0 0)
(0 0 0)
(0 0 0)
(0 0 0)
(0 0 0)
(0 0 0)
(0 0 0)
(0 0 0)
(0 0 0)
(0 0 0)
(0 0 0)
(0 0 0)
(0 0 0)
(0 0 0)
(0 0 0)
(0 0 0)
(0 0 0)
(0 0 0)
(0 0 0)
(0 0 0)
(0 0 0)
(0 0 0)
(0 0 0)
(0 0 0)
(0 0 0)
(0 0 0)
(0 0 0)
(0 0 0)
(0 0 0)
(0 0 0)
(0 0 0)
(0 0 0)
(0 0 0)
(0 0 0)
(0 0 0)
(0 0 0)
(0 0 0)
(0 0 0)
(0 0 0)
(0 0 0)
(0 0 0)
(0 0 0)
(0 0 0)
(0 0 0)
(0 0 0)
(0 0 0)
(0 0 0)
(0 0 0)
(0 0 0)
(0 0 0)
(0 0 0)
(0 0 0)
(0 0 0)
(0 0 0)
(0 0 0)
(0 0 0)
(0 0 0)
(0 0 0)
(0 0 0)
(0 0 0)
(0 0 0)
(0 0 0)
(0 0 0)
(0 0 0)
(0 0 0)
(0 0 0)
(0 0 0)
(0 0 0)
(0 0 0)
(0 0 0)
(0 0 0)
(0 0 0)
(0 0 0)
(0 0 0)
(0 0 0)
(0 0 0)
(0 0 0)
(0 0 0)
(0 0 0)
(0 0 0)
(0 0 0)
(0 0 0)
(0 0 0)
(0 0 0)
(0 0 0)
(0 0 0)
(0 0 0)
(0 0 0)
(0 0 0)
(0 0 0)
(0 0 0)
(0 0 0)
(0 0 0)
(0 0 0)
(0 0 0)
(0 0 0)
(0 0 0)
(0 0 0)
(0 0 0)
(0 0 0)
(0 0 0)
(0 0 0)
(0 0 0)
(0 0 0)
(0 0 0)
(0 0 0)
(0 0 0)
(0 0 0)
(0 0 0)
(0 0 0)
(0 0 0)
(0 0 0)
(0 0 0)
(0 0 0)
(0 0 0)
(0 0 0)
(0 0 0)
(0 0 0)
(0 0 0)
(0 0 0)
(0 0 0)
(0 0 0)
(0 0 0)
(0 0 0)
(0 0 0)
(0 0 0)
(0 0 0)
(0 0 0)
(0 0 0)
(0 0 0)
(0 0 0)
(0 0 0)
(0 0 0)
(0 0 0)
(0 0 0)
(0 0 0)
(0 0 0)
(0 0 0)
(0 0 0)
(0 0 0)
(0 0 0)
(0 0 0)
(0 0 0)
(0 0 0)
(0 0 0)
(0 0 0)
(0 0 0)
(0 0 0)
(0 0 0)
(0 0 0)
(0 0 0)
(0 0 0)
(0 0 0)
(0 0 0)
(0 0 0)
(0 0 0)
(0 0 0)
(0 0 0)
(0 0 0)
(0 0 0)
(0 0 0)
(0 0 0)
(0 0 0)
(0 0 0)
(0 0 0)
(0 0 0)
(0 0 0)
(0 0 0)
(0 0 0)
(0 0 0)
(0 0 0)
(0 0 0)
(0 0 0)
(0 0 0)
(0 0 0)
(0 0 0)
(0 0 0)
(0 0 0)
(0 0 0)
(0 0 0)
(0 0 0)
(0 0 0)
(0 0 0)
(0 0 0)
(0 0 0)
(0 0 0)
(0 0 0)
(0 0 0)
(0 0 0)
(0 0 0)
(0 0 0)
(0 0 0)
(0 0 0)
(0 0 0)
(0 0 0)
(0 0 0)
(0 0 0)
(0 0 0)
(0 0 0)
(0 0 0)
(0 0 0)
(0 0 0)
(0 0 0)
(0 0 0)
(0 0 0)
(0 0 0)
(0 0 0)
(0 0 0)
(0 0 0)
(0 0 0)
(0 0 0)
(0 0 0)
(0 0 0)
(0 0 0)
(0 0 0)
(0 0 0)
(0 0 0)
(0 0 0)
(0 0 0)
(0 0 0)
(0 0 0)
(0 0 0)
(0 0 0)
(0 0 0)
(0 0 0)
(0 0 0)
(0 0 0)
(0 0 0)
(0 0 0)
(0 0 0)
(0 0 0)
(0 0 0)
(0 0 0)
(0 0 0)
(0 0 0)
(0 0 0)
(0 0 0)
(0 0 0)
(0 0 0)
(0 0 0)
(0 0 0)
(0 0 0)
(0 0 0)
(0 0 0)
(0 0 0)
(0 0 0)
(0 0 0)
(0 0 0)
(0 0 0)
(0 0 0)
(0 0 0)
(0 0 0)
(0 0 0)
(0 0 0)
(0 0 0)
(0 0 0)
(0 0 0)
(0 0 0)
(0 0 0)
(0 0 0)
(0 0 0)
(0 0 0)
(0 0 0)
(0 0 0)
(0 0 0)
(0 0 0)
(0 0 0)
(0 0 0)
(0 0 0)
(0 0 0)
(0 0 0)
(0 0 0)
(0 0 0)
(0 0 0)
(0 0 0)
(0 0 0)
(0 0 0)
(0 0 0)
(0 0 0)
(0 0 0)
(0 0 0)
(0 0 0)
(0 0 0)
(0 0 0)
(0 0 0)
(0 0 0)
(0 0 0)
(0 0 0)
(0 0 0)
(0 0 0)
(0 0 0)
(0 0 0)
(0 0 0)
(0 0 0)
(0 0 0)
(0 0 0)
(0 0 0)
(0 0 0)
(0 0 0)
(0 0 0)
(0 0 0)
(0 0 0)
(0 0 0)
(0 0 0)
(0 0 0)
(0 0 0)
(0 0 0)
(0 0 0)
(0 0 0)
(0 0 0)
(0 0 0)
(0 0 0)
(0 0 0)
(0 0 0)
(0 0 0)
(0 0 0)
(0 0 0)
(0 0 0)
(0 0 0)
(0 0 0)
(0 0 0)
(0 0 0)
(0 0 0)
(0 0 0)
(0 0 0)
(0 0 0)
(0 0 0)
(0 0 0)
(0 0 0)
(0 0 0)
(0 0 0)
(0 0 0)
(0 0 0)
(0 0 0)
(0 0 0)
(0 0 0)
(0 0 0)
(0 0 0)
(0 0 0)
(0 0 0)
(0 0 0)
(0 0 0)
(0 0 0)
(0 0 0)
(0 0 0)
(0 0 0)
(0 0 0)
(0 0 0)
(0 0 0)
(0 0 0)
(0 0 0)
(0 0 0)
(0 0 0)
(0 0 0)
(0 0 0)
(0 0 0)
(0 0 0)
(0 0 0)
(0 0 0)
(0 0 0)
(0 0 0)
(0 0 0)
(0 0 0)
(0 0 0)
(0 0 0)
(0 0 0)
(0 0 0)
(0 0 0)
(0 0 0)
(0 0 0)
(0 0 0)
(0 0 0)
(0 0 0)
(0 0 0)
(0 0 0)
(0 0 0)
(0 0 0)
(0 0 0)
(0 0 0)
(0 0 0)
(0 0 0)
(0 0 0)
(0 0 0)
(0 0 0)
(0 0 0)
(0 0 0)
(0 0 0)
(0 0 0)
(0 0 0)
(0 0 0)
(0 0 0)
(0 0 0)
(0 0 0)
(0 0 0)
(0 0 0)
(0 0 0)
(0 0 0)
(0 0 0)
(0 0 0)
(0 0 0)
(0 0 0)
(0 0 0)
(0 0 0)
(0 0 0)
(0 0 0)
(0 0 0)
(0 0 0)
(0 0 0)
(0 0 0)
(0 0 0)
(0 0 0)
(0 0 0)
(0 0 0)
(0 0 0)
(0 0 0)
(0 0 0)
(0 0 0)
(0 0 0)
(0 0 0)
(0 0 0)
(0 0 0)
(0 0 0)
(0 0 0)
(0 0 0)
(0 0 0)
(0 0 0)
(0 0 0)
(0 0 0)
(0 0 0)
(0 0 0)
(0 0 0)
(0 0 0)
(0 0 0)
(0 0 0)
(0 0 0)
(0 0 0)
(0 0 0)
(0 0 0)
(0 0 0)
(0 0 0)
(0 0 0)
(0 0 0)
(0 0 0)
(0 0 0)
(0 0 0)
(0 0 0)
(0 0 0)
(0 0 0)
(0 0 0)
(0 0 0)
(0 0 0)
(0 0 0)
(0 0 0)
(0 0 0)
(0 0 0)
(0 0 0)
(0 0 0)
(0 0 0)
(0 0 0)
(0 0 0)
(0 0 0)
(0 0 0)
(0 0 0)
(0 0 0)
(0 0 0)
(0 0 0)
(0 0 0)
(0 0 0)
(0 0 0)
(0 0 0)
(0 0 0)
(0 0 0)
(0 0 0)
(0 0 0)
(0 0 0)
(0 0 0)
(0 0 0)
(0 0 0)
(0 0 0)
(0 0 0)
(0 0 0)
(0 0 0)
(0 0 0)
(0 0 0)
(0 0 0)
(0 0 0)
(0 0 0)
(0 0 0)
(0 0 0)
(0 0 0)
(0 0 0)
(0 0 0)
(0 0 0)
(0 0 0)
(0 0 0)
(0 0 0)
(0 0 0)
(0 0 0)
(0 0 0)
(0 0 0)
(0 0 0)
(0 0 0)
(0 0 0)
(0 0 0)
(0 0 0)
(0 0 0)
(0 0 0)
(0 0 0)
(0 0 0)
(0 0 0)
(0 0 0)
(0 0 0)
(0 0 0)
(0 0 0)
(0 0 0)
(0 0 0)
(0 0 0)
(0 0 0)
(0 0 0)
(0 0 0)
(0 0 0)
(0 0 0)
(0 0 0)
(0 0 0)
(0 0 0)
(0 0 0)
(0 0 0)
(0 0 0)
(0 0 0)
(0 0 0)
(0 0 0)
(0 0 0)
(0 0 0)
(0 0 0)
(0 0 0)
(0 0 0)
(0 0 0)
(0 0 0)
(0 0 0)
(0 0 0)
(0 0 0)
(0 0 0)
(0 0 0)
(0 0 0)
(0 0 0)
(0 0 0)
(0 0 0)
(0 0 0)
(0 0 0)
(0 0 0)
(0 0 0)
(0 0 0)
(0 0 0)
(0 0 0)
(0 0 0)
(0 0 0)
(0 0 0)
(0 0 0)
(0 0 0)
(0 0 0)
(0 0 0)
(0 0 0)
(0 0 0)
(0 0 0)
(0 0 0)
(0 0 0)
(0 0 0)
(0 0 0)
(0 0 0)
(0 0 0)
(0 0 0)
(0 0 0)
(0 0 0)
(0 0 0)
(0 0 0)
(0 0 0)
(0 0 0)
(0 0 0)
(0 0 0)
(0 0 0)
(0 0 0)
(0 0 0)
(0 0 0)
(0 0 0)
(0 0 0)
(0 0 0)
(0 0 0)
(0 0 0)
(0 0 0)
(0 0 0)
(0 0 0)
(0 0 0)
(0 0 0)
(0 0 0)
(0 0 0)
(0 0 0)
(0 0 0)
(0 0 0)
(0 0 0)
(0 0 0)
(0 0 0)
(0 0 0)
(0 0 0)
(0 0 0)
(0 0 0)
(0 0 0)
(0 0 0)
(0 0 0)
(0 0 0)
(0 0 0)
(0 0 0)
(0 0 0)
(0 0 0)
(0 0 0)
(0 0 0)
(0 0 0)
(0 0 0)
(0 0 0)
(0 0 0)
(0 0 0)
(0 0 0)
(0 0 0)
(0 0 0)
(0 0 0)
(0 0 0)
(0 0 0)
(0 0 0)
(0 0 0)
(0 0 0)
(0 0 0)
(0 0 0)
(0 0 0)
(0 0 0)
(0 0 0)
(0 0 0)
(0 0 0)
(0 0 0)
(0 0 0)
(0 0 0)
(0 0 0)
(0 0 0)
(0 0 0)
(0 0 0)
(0 0 0)
(0 0 0)
(0 0 0)
(0 0 0)
(0 0 0)
(0 0 0)
(0 0 0)
(0 0 0)
(0 0 0)
(0 0 0)
(0 0 0)
(0 0 0)
(0 0 0)
(0 0 0)
(0 0 0)
(0 0 0)
(0 0 0)
(0 0 0)
(0 0 0)
(0 0 0)
(0 0 0)
(0 0 0)
(0 0 0)
(0 0 0)
(0 0 0)
(0 0 0)
(0 0 0)
(0 0 0)
(0 0 0)
(0 0 0)
(0 0 0)
(0 0 0)
(0 0 0)
(0 0 0)
(0 0 0)
(0 0 0)
(0 0 0)
(0 0 0)
(0 0 0)
(0 0 0)
(0 0 0)
(0 0 0)
(0 0 0)
(0 0 0)
(0 0 0)
(0 0 0)
(0 0 0)
(0 0 0)
(0 0 0)
(0 0 0)
(0 0 0)
(0 0 0)
(0 0 0)
(0 0 0)
(0 0 0)
(0 0 0)
(0 0 0)
(0 0 0)
(0 0 0)
(0 0 0)
(0 0 0)
(0 0 0)
(0 0 0)
(0 0 0)
(0 0 0)
(0 0 0)
(0 0 0)
(0 0 0)
(0 0 0)
(0 0 0)
(0 0 0)
(0 0 0)
(0 0 0)
(0 0 0)
(0 0 0)
(0 0 0)
(0 0 0)
(0 0 0)
(0 0 0)
(0 0 0)
(0 0 0)
(0 0 0)
(0 0 0)
(0 0 0)
(0 0 0)
(0 0 0)
(0 0 0)
(0 0 0)
(0 0 0)
(0 0 0)
(0 0 0)
(0 0 0)
(0 0 0)
(0 0 0)
(0 0 0)
(0 0 0)
(0 0 0)
(0 0 0)
(0 0 0)
(0 0 0)
(0 0 0)
(0 0 0)
(0 0 0)
(0 0 0)
(0 0 0)
(0 0 0)
(0 0 0)
(0 0 0)
(0 0 0)
(0 0 0)
(0 0 0)
(0 0 0)
(0 0 0)
(0 0 0)
(0 0 0)
(0 0 0)
(0 0 0)
(0 0 0)
(0 0 0)
(0 0 0)
(0 0 0)
(0 0 0)
(0 0 0)
(0 0 0)
(0 0 0)
(0 0 0)
(0 0 0)
(0 0 0)
(0 0 0)
(0 0 0)
(0 0 0)
(0 0 0)
(0 0 0)
(0 0 0)
(0 0 0)
(0 0 0)
(0 0 0)
(0 0 0)
(0 0 0)
(0 0 0)
(0 0 0)
(0 0 0)
(0 0 0)
(0 0 0)
(0 0 0)
(0 0 0)
(0 0 0)
(0 0 0)
(0 0 0)
(0 0 0)
(0 0 0)
(0 0 0)
(0 0 0)
(0 0 0)
(0 0 0)
(0 0 0)
(0 0 0)
(0 0 0)
(0 0 0)
(0 0 0)
(0 0 0)
(0 0 0)
(0 0 0)
(0 0 0)
(0 0 0)
(0 0 0)
(0 0 0)
(0 0 0)
(0 0 0)
(0 0 0)
(0 0 0)
(0 0 0)
(0 0 0)
(0 0 0)
(0 0 0)
(0 0 0)
(0 0 0)
(0 0 0)
(0 0 0)
(0 0 0)
(0 0 0)
(0 0 0)
(0 0 0)
(0 0 0)
(0 0 0)
(0 0 0)
(0 0 0)
(0 0 0)
(0 0 0)
(0 0 0)
(0 0 0)
(0 0 0)
(0 0 0)
(0 0 0)
(0 0 0)
(0 0 0)
(0 0 0)
(0 0 0)
(0 0 0)
(0 0 0)
(0 0 0)
(0 0 0)
(0 0 0)
(0 0 0)
(0 0 0)
(0 0 0)
(0 0 0)
(0 0 0)
(0 0 0)
(0 0 0)
(0 0 0)
(0 0 0)
(0 0 0)
(0 0 0)
(0 0 0)
(0 0 0)
(0 0 0)
(0 0 0)
(0 0 0)
(0 0 0)
(0 0 0)
(0 0 0)
(0 0 0)
(0 0 0)
(0 0 0)
(0 0 0)
(0 0 0)
(0 0 0)
(0 0 0)
(0 0 0)
(0 0 0)
(0 0 0)
(0 0 0)
(0 0 0)
(0 0 0)
(0 0 0)
(0 0 0)
(0 0 0)
(0 0 0)
(0 0 0)
(0 0 0)
(0 0 0)
(0 0 0)
(0 0 0)
(0 0 0)
(0 0 0)
(0 0 0)
(0 0 0)
(0 0 0)
(0 0 0)
(0 0 0)
(0 0 0)
(0 0 0)
(0 0 0)
(0 0 0)
(0 0 0)
(0 0 0)
(0 0 0)
(0 0 0)
(0 0 0)
(0 0 0)
(0 0 0)
(0 0 0)
(0 0 0)
(0 0 0)
(0 0 0)
(0 0 0)
(0 0 0)
(0 0 0)
(0 0 0)
(0 0 0)
(0 0 0)
(0 0 0)
(0 0 0)
(0 0 0)
(0 0 0)
(0 0 0)
(0 0 0)
(0 0 0)
(0 0 0)
(0 0 0)
(0 0 0)
(0 0 0)
(0 0 0)
(0 0 0)
(0 0 0)
(0 0 0)
(0 0 0)
(0 0 0)
(0 0 0)
(0 0 0)
(0 0 0)
(0 0 0)
(0 0 0)
(0 0 0)
(0 0 0)
(0 0 0)
(0 0 0)
(0 0 0)
(0 0 0)
(0 0 0)
(0 0 0)
(0 0 0)
(0 0 0)
(0 0 0)
(0 0 0)
(0 0 0)
(0 0 0)
(0 0 0)
(0 0 0)
(0 0 0)
(0 0 0)
(0 0 0)
(0 0 0)
(0 0 0)
(0 0 0)
(0 0 0)
(0 0 0)
(0 0 0)
(0 0 0)
(0 0 0)
(0 0 0)
(0 0 0)
(0 0 0)
(0 0 0)
(0 0 0)
(0 0 0)
(0 0 0)
(0 0 0)
(0 0 0)
(0 0 0)
(0 0 0)
(0 0 0)
(0 0 0)
(0 0 0)
(0 0 0)
(0 0 0)
(0 0 0)
(0 0 0)
(0 0 0)
(0 0 0)
(0 0 0)
(0 0 0)
(0 0 0)
(0 0 0)
(0 0 0)
(0 0 0)
(0 0 0)
(0 0 0)
(0 0 0)
(0 0 0)
(0 0 0)
(0 0 0)
(0 0 0)
(0 0 0)
(0 0 0)
(0 0 0)
(0 0 0)
(0 0 0)
(0 0 0)
(0 0 0)
(0 0 0)
(0 0 0)
(0 0 0)
(0 0 0)
(0 0 0)
(0 0 0)
(0 0 0)
(0 0 0)
(0 0 0)
(0 0 0)
(0 0 0)
(0 0 0)
(0 0 0)
(0 0 0)
(0 0 0)
(0 0 0)
(0 0 0)
(0 0 0)
(0 0 0)
(0 0 0)
(0 0 0)
(0 0 0)
(0 0 0)
(0 0 0)
(0 0 0)
(0 0 0)
(0 0 0)
(0 0 0)
(0 0 0)
(0 0 0)
(0 0 0)
(0 0 0)
(0 0 0)
(0 0 0)
(0 0 0)
(0 0 0)
(0 0 0)
(0 0 0)
(0 0 0)
(0 0 0)
(0 0 0)
(0 0 0)
(0 0 0)
(0 0 0)
(0 0 0)
(0 0 0)
(0 0 0)
(0 0 0)
(0 0 0)
(0 0 0)
(0 0 0)
(0 0 0)
(0 0 0)
(0 0 0)
(0 0 0)
(0 0 0)
(0 0 0)
(0 0 0)
(0 0 0)
(0 0 0)
(0 0 0)
(0 0 0)
(0 0 0)
(0 0 0)
(0 0 0)
(0 0 0)
(0 0 0)
(0 0 0)
(0 0 0)
(0 0 0)
(0 0 0)
(0 0 0)
(0 0 0)
(0 0 0)
(0 0 0)
(0 0 0)
(0 0 0)
(0 0 0)
(0 0 0)
(0 0 0)
(0 0 0)
(0 0 0)
(0 0 0)
(0 0 0)
(0 0 0)
(0 0 0)
(0 0 0)
(0 0 0)
(0 0 0)
(0 0 0)
(0 0 0)
(0 0 0)
(0 0 0)
(0 0 0)
(0 0 0)
(0 0 0)
(0 0 0)
(0 0 0)
(0 0 0)
(0 0 0)
(0 0 0)
(0 0 0)
(0 0 0)
(0 0 0)
(0 0 0)
(0 0 0)
(0 0 0)
(0 0 0)
(0 0 0)
(0 0 0)
(0 0 0)
(0 0 0)
(0 0 0)
(0 0 0)
(0 0 0)
(0 0 0)
(0 0 0)
(0 0 0)
(0 0 0)
(0 0 0)
(0 0 0)
(0 0 0)
(0 0 0)
(0 0 0)
(0 0 0)
(0 0 0)
(0 0 0)
(0 0 0)
(0 0 0)
(0 0 0)
(0 0 0)
(0 0 0)
(0 0 0)
(0 0 0)
(0 0 0)
(0 0 0)
(0 0 0)
(0 0 0)
(0 0 0)
(0 0 0)
(0 0 0)
(0 0 0)
(0 0 0)
(0 0 0)
(0 0 0)
(0 0 0)
(0 0 0)
(0 0 0)
(0 0 0)
(0 0 0)
(0 0 0)
(0 0 0)
(0 0 0)
(0 0 0)
(0 0 0)
(0 0 0)
(0 0 0)
(0 0 0)
(0 0 0)
(0 0 0)
(0 0 0)
(0 0 0)
(0 0 0)
(0 0 0)
(0 0 0)
(0 0 0)
(0 0 0)
(0 0 0)
(0 0 0)
(0 0 0)
(0 0 0)
(0 0 0)
(0 0 0)
(0 0 0)
(0 0 0)
(0 0 0)
(0 0 0)
(0 0 0)
(0 0 0)
(0 0 0)
(0 0 0)
(0 0 0)
(0 0 0)
(0 0 0)
(0 0 0)
(0 0 0)
(0 0 0)
(0 0 0)
(0 0 0)
(0 0 0)
(0 0 0)
(0 0 0)
(0 0 0)
(0 0 0)
(0 0 0)
(0 0 0)
(0 0 0)
(0 0 0)
(0 0 0)
(0 0 0)
(0 0 0)
(0 0 0)
(0 0 0)
(0 0 0)
(0 0 0)
(0 0 0)
(0 0 0)
(0 0 0)
(0 0 0)
(0 0 0)
(0 0 0)
(0 0 0)
(0 0 0)
(0 0 0)
(0 0 0)
(0 0 0)
(0 0 0)
(0 0 0)
(0 0 0)
(0 0 0)
(0 0 0)
(0 0 0)
(0 0 0)
(0 0 0)
(0 0 0)
(0 0 0)
(0 0 0)
(0 0 0)
(0 0 0)
(0 0 0)
(0 0 0)
(0 0 0)
(0 0 0)
(0 0 0)
(0 0 0)
(0 0 0)
(0 0 0)
(0 0 0)
(0 0 0)
(0 0 0)
(0 0 0)
(0 0 0)
(0 0 0)
(0 0 0)
(0 0 0)
(0 0 0)
(0 0 0)
(0 0 0)
(0 0 0)
(0 0 0)
(0 0 0)
(0 0 0)
(0 0 0)
(0 0 0)
(0 0 0)
(0 0 0)
(0 0 0)
(0 0 0)
(0 0 0)
(0 0 0)
(0 0 0)
(0 0 0)
(0 0 0)
(0 0 0)
(0 0 0)
(0 0 0)
(0 0 0)
(0 0 0)
(0 0 0)
(0 0 0)
(0 0 0)
(0 0 0)
(0 0 0)
(0 0 0)
(0 0 0)
(0 0 0)
(0 0 0)
(0 0 0)
(0 0 0)
(0 0 0)
(0 0 0)
(0 0 0)
(0 0 0)
(0 0 0)
(0 0 0)
(0 0 0)
(0 0 0)
(0 0 0)
(0 0 0)
(0 0 0)
(0 0 0)
(0 0 0)
(0 0 0)
(0 0 0)
(0 0 0)
(0 0 0)
(0 0 0)
(0 0 0)
(0 0 0)
(0 0 0)
(0 0 0)
(0 0 0)
(0 0 0)
(0 0 0)
(0 0 0)
(0 0 0)
(0 0 0)
(0 0 0)
(0 0 0)
(0 0 0)
(0 0 0)
(0 0 0)
(0 0 0)
(0 0 0)
(0 0 0)
(0 0 0)
(0 0 0)
(0 0 0)
(0 0 0)
(0 0 0)
(0 0 0)
(0 0 0)
(0 0 0)
(0 0 0)
(0 0 0)
(0 0 0)
(0 0 0)
(0 0 0)
(0 0 0)
(0 0 0)
(0 0 0)
(0 0 0)
(0 0 0)
(0 0 0)
(0 0 0)
(0 0 0)
(0 0 0)
(0 0 0)
(0 0 0)
(0 0 0)
(0 0 0)
(0 0 0)
(0 0 0)
(0 0 0)
(0 0 0)
(0 0 0)
(0 0 0)
(0 0 0)
(0 0 0)
(0 0 0)
(0 0 0)
(0 0 0)
(0 0 0)
(0 0 0)
(0 0 0)
(0 0 0)
(0 0 0)
(0 0 0)
(0 0 0)
(0 0 0)
(0 0 0)
(0 0 0)
(0 0 0)
(0 0 0)
(0 0 0)
(0 0 0)
(0 0 0)
(0 0 0)
(0 0 0)
(0 0 0)
(0 0 0)
(0 0 0)
(0 0 0)
(0 0 0)
(0 0 0)
(0 0 0)
(0 0 0)
(0 0 0)
(0 0 0)
(0 0 0)
(0 0 0)
(0 0 0)
(0 0 0)
(0 0 0)
(0 0 0)
(0 0 0)
(0 0 0)
(0 0 0)
(0 0 0)
(0 0 0)
(0 0 0)
(0 0 0)
(0 0 0)
(0 0 0)
(0 0 0)
(0 0 0)
(0 0 0)
(0 0 0)
(0 0 0)
(0 0 0)
(0 0 0)
(0 0 0)
(0 0 0)
(0 0 0)
(0 0 0)
(0 0 0)
(0 0 0)
(0 0 0)
(0 0 0)
(0 0 0)
(0 0 0)
(0 0 0)
(0 0 0)
(0 0 0)
(0 0 0)
(0 0 0)
(0 0 0)
(0 0 0)
(0 0 0)
(0 0 0)
(0 0 0)
(0 0 0)
(0 0 0)
(0 0 0)
(0 0 0)
(0 0 0)
(0 0 0)
(0 0 0)
(0 0 0)
(0 0 0)
(0 0 0)
(0 0 0)
(0 0 0)
(0 0 0)
(0 0 0)
(0 0 0)
(0 0 0)
(0 0 0)
(0 0 0)
(0 0 0)
(0 0 0)
(0 0 0)
(0 0 0)
(0 0 0)
(0 0 0)
(0 0 0)
(0 0 0)
(0 0 0)
(0 0 0)
(0 0 0)
(0 0 0)
(0 0 0)
(0 0 0)
(0 0 0)
(0 0 0)
(0 0 0)
(0 0 0)
(0 0 0)
(0 0 0)
(0 0 0)
(0 0 0)
(0 0 0)
(0 0 0)
(0 0 0)
(0 0 0)
(0 0 0)
(0 0 0)
(0 0 0)
(0 0 0)
(0 0 0)
(0 0 0)
(0 0 0)
(0 0 0)
(0 0 0)
(0 0 0)
(0 0 0)
(0 0 0)
(0 0 0)
(0 0 0)
(0 0 0)
(0 0 0)
(0 0 0)
(-0.00150195 -2.56583e-05 0.00014461)
(-0.00149867 0.00227042 0.000186396)
(-0.00255987 0.0019639 0.00078769)
(-0.000634409 0.000239605 0.0011462)
(-0.000984127 0.00263943 3.93872e-05)
(-0.00237497 0.00213555 0.00103109)
(-0.00141248 0.00809237 -0.00220194)
(-0.000237194 0.00198735 -0.000882878)
(-0.00102247 0.000209744 4.39347e-05)
(-0.000791735 -9.79136e-05 -0.000189423)
(-0.00211259 1.67113e-05 0.000342099)
(-0.00206601 0.000314745 0.000500565)
(-0.00203774 -0.00338813 0.00251679)
(-0.00244381 0.00102071 0.00234654)
(-0.00305799 0.00220292 0.00344526)
(-0.00190488 -0.00882255 0.00509711)
(-0.00454909 -0.0127154 0.00672701)
(-0.00414348 0.00341559 0.00397597)
(-0.0046428 0.00955379 0.00261061)
(-0.00397237 -0.0143944 0.00845385)
(-0.00324262 -0.0121638 0.00923832)
(-0.000904318 -0.000684191 0.000338723)
(-0.000437745 -0.00418072 0.00117443)
(-0.00278023 -0.0129067 0.00541131)
(-0.001236 -0.0135116 0.00273071)
(-0.00175042 -0.00866782 0.00278394)
(-0.00172012 -0.00128118 0.000733441)
(-0.00117737 -0.00158109 0.00208085)
(-0.0041455 -0.00307039 0.00287605)
(-0.00574022 -0.00269488 0.00332675)
(-0.00953618 -0.00942301 0.0026916)
(-0.0121258 -0.00592477 0.00577383)
(-0.0208879 -0.0125981 0.00409942)
(-0.00652505 -0.0218716 0.00442579)
(-0.00750573 -0.032783 0.00464174)
(-0.0251752 -0.0294678 0.00268305)
(-0.0237041 -0.0430238 -8.01993e-05)
(-0.00380287 -0.0379432 0.00609492)
(-0.0011858 -0.0352455 0.00859455)
(-0.0094216 -0.0462794 -0.00242882)
(0.00173476 -0.0476542 0.00223558)
(-0.00235925 -0.033306 0.00598952)
(0.00122791 -0.0277181 0.0024777)
(0.00431332 -0.0449067 0.00119986)
(0.0112092 -0.0335547 0.000116955)
(0.00104375 -0.0148575 0.00220685)
(0.0118493 -0.0140534 0.00154307)
(0.00573719 -0.00424384 0.00576703)
(-0.00149671 -0.00145953 0.00161779)
(-0.00509323 -0.00425652 0.00310825)
(-0.00602503 -0.00582711 0.00329597)
(-0.0184777 -0.00901704 0.0087053)
(-0.0343618 -0.0137076 0.00786352)
(-0.0197052 -0.0133335 0.00808744)
(-0.0401736 -0.0129705 0.00784417)
(-0.0399454 -0.0191645 -0.000379021)
(-0.030974 -0.0252438 -0.00557817)
(-0.0461962 -0.00872266 -0.000945334)
(-0.0319196 -0.00231134 -0.00817269)
(-0.0139457 -0.0266439 -0.0105427)
(0.0042326 -0.0287283 -0.00859101)
(-0.0157036 0.00246751 -0.00748893)
(0.00236915 -0.00011691 -0.00694998)
(0.014201 -0.0222655 -0.00599466)
(0.016734 -0.0166659 -0.00212525)
(0.0160677 0.0028929 -0.00351733)
(0.0215897 -0.000692153 -0.000467897)
(0.013468 -0.00685768 0.00284484)
(0.0028809 -0.00451238 0.00420241)
(0.015756 -0.00222349 0.00111005)
(-0.00600618 -0.00511533 0.00249792)
(-0.0187583 -0.0108629 0.00505178)
(-0.035023 -0.0100862 0.0047687)
(-0.0108308 -0.00500064 0.00322202)
(-0.0203478 -0.00658375 0.0011664)
(-0.0388888 0.004455 -0.00130787)
(-0.0353254 0.0219209 -0.00289281)
(-0.0247746 0.00533671 -0.0020433)
(-0.0294751 0.0216914 -0.00742288)
(-0.0195389 0.0221666 -0.00467742)
(0.00236864 0.0177969 -0.00393826)
(-0.017548 0.0263909 -0.00362469)
(0.000564067 0.0201653 -0.00221257)
(0.0153018 0.0171117 -0.00234558)
(0.0127326 0.00684132 0.00209691)
(0.00688753 0.016074 -0.000271416)
(0.00577947 0.00775437 0.00183766)
(0.00636523 -0.000722687 0.000808188)
(-0.00757936 -0.00190359 0.000928889)
(-0.0110021 0.000564661 -1.22473e-05)
(-0.0151709 0.00840328 -0.000978161)
(-0.00611989 0.00638497 0.00327596)
(-0.0111279 0.0143963 -6.06429e-05)
(-0.00331135 0.0112087 0.000416466)
(-0.00505147 0.00662013 0.00210091)
(0.00220395 0.00529749 0.00137498)
(-0.000837026 0.00309224 -0.00209328)
(0.00296019 0.00245068 -0.0122805)
(-0.00158506 0.0044182 -0.00279595)
(-0.000307479 0.00545153 -0.00162722)
(-0.00143568 0.00564451 0.000306789)
(-0.0029453 -0.00439358 -0.0144948)
(0.00334143 0.00428325 -0.0156095)
(-0.00439468 0.00808472 -0.00935875)
(-0.00521138 0.00578797 0.000407966)
(-0.00629347 0.0111577 -0.00746233)
(0.00145924 -0.00557878 -0.0146986)
(-0.000699378 0.00813492 -0.008693)
(-0.00230987 0.00928002 -0.0201469)
(-0.00298357 0.00743039 -0.00963597)
(-0.00159429 0.00401204 -0.0235463)
(-0.000206882 0.00422039 -0.00280725)
(0.000432743 0.0115391 -0.0144348)
(0.00208486 0.00669397 -8.25349e-06)
(0.00176638 0.00963752 -0.000255933)
(0.00225246 0.00404 0.00402421)
(0.000615419 0.00541051 -0.0144174)
(0.00712701 0.0107825 -0.0140227)
(0.00763395 0.0145422 -0.0234257)
(0.0142928 0.0164219 -0.0236868)
(-0.000283516 0.00425353 0.00038257)
(-0.00809083 0.00197642 0.0205618)
(-0.00474835 -0.00523779 0.00920058)
(-0.00269875 0.00968097 -0.00507496)
(0.0011914 0.00477463 -0.00433137)
(-0.0040103 0.00910692 0.0204714)
(-0.00233081 -0.000363376 0.0119483)
(-0.00252181 -0.0102949 0.0075474)
(-0.00239994 -0.00703177 0.0127091)
(-0.000209169 0.00571515 0.00223287)
(-0.00223284 0.000680793 0.00325932)
(-0.00425314 0.000792072 0.00835401)
(0.00100169 0.0232592 -0.0213737)
(-0.00571098 0.0130172 -0.028161)
(0.00980917 0.00644558 -0.0500745)
(0.0180737 -0.0144327 0.00468941)
(0.00230552 -0.00619783 0.0175635)
(0.0104917 -0.00972892 0.00905234)
(0.0203858 -0.00697098 0.0128927)
(-0.000672195 -0.00957913 0.028842)
(-0.00736766 -0.00978027 0.0112599)
(-0.0089544 -0.0128516 0.010264)
(-0.0224515 -0.0106408 -0.0281677)
(0.00307772 -0.0139738 -0.0297069)
(-0.00522332 -0.0193178 -0.00605442)
(0.003307 -0.00813261 0.0180532)
(0.0207363 -0.00333871 0.0161804)
(0.0204949 -0.00678287 0.0363389)
(-0.00141404 -0.00310023 0.0211726)
(0.0278801 -0.012372 0.0315212)
(-0.00822829 -0.0113876 0.00730374)
(-0.0110208 -0.0134991 0.00361926)
(-0.0447332 -0.0213174 0.00840727)
(-0.0154793 -0.0120721 0.00583922)
(-0.027182 -0.0125537 -0.000164692)
(-0.0123194 -0.0221836 0.00611853)
(-0.0489006 -0.0315889 -0.0160583)
(-0.00741193 -0.00972339 0.00248503)
(-0.0267404 -0.0154902 -0.0113414)
(0.0232656 0.0120627 0.00981876)
(0.0167205 0.0183107 0.00578607)
(0.00882137 0.00394799 0.0151162)
(0.0344851 0.0317603 -0.016342)
(0.0189089 0.0143372 0.0180806)
(0.0246235 0.00919035 0.0143971)
(0.00374323 -0.0042889 0.0261717)
(0.0153156 -0.0101709 0.0275184)
(-0.0137892 -0.00588199 -0.00106786)
(-0.015185 -0.00623488 -0.00762688)
(-0.0170587 0.0105528 -0.00424005)
(-0.010082 0.0075812 0.00490348)
(-0.0202055 0.00871112 -0.0187636)
(-0.0164199 0.0168187 -0.0123687)
(-0.00849092 -0.00247276 -0.00132288)
(-0.00387937 0.0148348 -8.37328e-05)
(-0.00866623 0.00715126 0.00721735)
(-0.0127393 0.0208272 -0.000385686)
(-0.00263882 0.0197742 0.00258383)
(-0.00297483 -0.00251428 0.00644691)
(0.00297212 0.00385566 0.0126218)
(-0.00803033 0.00455021 -0.162242)
(-0.00680851 0.00505242 -0.127202)
(0.000953315 0.00502222 -0.132892)
(-0.00763175 0.00687194 -0.163712)
(-0.00126838 0.00910655 -0.1517)
(0.0020949 0.00290185 -0.100789)
(-0.00607606 0.00659942 -0.132034)
(0.000637215 0.00798879 -0.123457)
(0.00999221 0.00992443 -0.136104)
(0.00650261 0.00205244 -0.130762)
(0.00509262 0.00425299 -0.0873139)
(0.0109541 0.00665812 -0.106224)
(0.0111319 0.00182461 -0.107911)
(0.00531994 0.00373575 -0.14316)
(0.00936251 0.00331533 -0.112416)
(-0.000147582 -0.000628486 -0.190386)
(-0.00171035 0.00394531 -0.167413)
(-0.0112334 0.00581216 -0.177692)
(-0.00187634 -0.00202543 -0.184841)
(-0.000733079 0.0123693 -0.177537)
(-0.00553761 0.005849 -0.143212)
(-0.0092376 0.00848318 -0.152357)
(-0.00196313 0.00507763 -0.162491)
(-0.000586347 0.0167021 -0.152545)
(0.0102735 0.00838176 -0.129822)
(0.0157383 0.0193082 -0.0934191)
(0.0186483 0.0204889 -0.102852)
(0.0140902 0.00246718 -0.112366)
(0.00819862 0.00738732 -0.105638)
(0.0259252 0.0180488 -0.0522559)
(0.0195196 0.0162757 -0.0898177)
(0.0161316 0.0287461 -0.0855106)
(0.0132065 0.0241686 -0.088055)
(0.00337246 -0.00974355 -0.193255)
(0.00414141 0.00110363 -0.178978)
(0.00998374 -0.00158874 -0.203811)
(0.00190574 -0.000406361 -0.16782)
(0.00736676 0.0046782 -0.138426)
(0.0122733 0.00385311 -0.172597)
(0.031553 0.0162622 -0.0541979)
(-0.00251133 -0.00772293 0.00591061)
(-0.000411879 0.0269684 -0.0693002)
(-0.00188355 0.0208363 -0.0760767)
(0.00428794 0.0191111 -0.043141)
(0.00788993 0.0136488 -0.197651)
(0.00853938 0.0246312 -0.190239)
(0.00520368 0.00623874 -0.136625)
(0.0117104 0.0150278 -0.162969)
(0.0128214 0.023396 -0.155429)
(-0.0129743 0.0232281 -0.0329861)
(0.000576768 -0.00470624 -0.0599652)
(-0.0102642 0.0190373 -0.0924823)
(-0.00189958 0.0127596 -0.0448645)
(-0.0110239 0.0193394 -0.0912025)
(0.0140806 0.0278324 -0.17833)
(0.016075 0.0271956 -0.152064)
(-0.00469322 0.0111729 -0.137812)
(0.0101984 0.0158227 -0.137833)
(-0.00793677 -0.0052896 -0.104323)
(0.0166679 0.0262653 -0.136856)
(0.00740751 0.015228 -0.111934)
(0.0172664 0.017182 -0.110777)
(0.0139373 0.00872424 -0.0967675)
(0.017928 0.0118532 -0.059579)
(0.0145016 0.00118511 -0.0533056)
(0.00652162 -0.00738819 -0.0519902)
(0.008017 0.0130844 -0.0948972)
(0.00347529 0.00965186 -0.0952409)
(0.008605 0.00275186 -0.0779469)
(0.00310763 0.000361765 -0.0710477)
(-0.0054312 0.0120065 -0.0884447)
(-0.0117762 -0.00681845 -0.0877592)
(0.00543715 0.00109418 -0.0885147)
(-0.0111021 0.00699364 -0.06816)
(-0.0047929 -0.0149794 -0.0650204)
(0.00243896 -0.00163127 -0.0816717)
(0.00224501 -0.00445111 -0.081465)
(0.00086929 -0.00378358 -0.055829)
(0.00272785 0.00354967 -0.0422463)
(0.00311095 -0.00797387 -0.071131)
(0.00962564 -0.00506936 -0.0800315)
(0.0136543 -0.00497938 -0.0716936)
(0.00487571 -0.00653178 -0.056069)
(0.00862999 -0.0047456 -0.0628)
(0.000630074 -0.00165671 -0.0632085)
(0.00205839 -0.00366444 -0.0572216)
(0.012027 -0.00210947 -0.0710565)
(0.00254461 -0.000902526 -0.0688009)
(0.0121785 -0.00407505 -0.0720903)
(0.00526631 -0.000268896 -0.0676515)
(0.0025587 -0.00300598 -0.0676272)
(0.00393092 -0.00421717 -0.0735132)
(0.0249564 -0.00115226 -0.0870874)
(0.0243048 0.000298557 -0.0912864)
(0.0085682 -0.00122728 -0.0770126)
(0.013827 -0.00449328 -0.0868752)
(0.0221065 0.000112919 -0.0873673)
(0.0185941 0.00517842 -0.0823078)
(0.0233894 0.00686507 -0.0763502)
(0.00328885 -0.00530619 -0.0387798)
(0.00704367 -0.0152613 -0.0378428)
(0.00126992 -0.00173879 -0.0611632)
(0.00512923 -0.00378017 -0.0464879)
(0.00912735 0.00599079 -0.041834)
(0.00462245 -0.0107205 -0.0498636)
(0.0029113 -0.00929696 -0.0596261)
(0.00637079 -0.0157309 -0.0460149)
(0.00703801 -0.00819042 -0.0496327)
(0.0114033 0.00359601 -0.0843986)
(0.0513118 0.0135854 -0.0489355)
(0.0261614 0.0131121 -0.0848311)
(0.0301187 -0.00247081 -0.0901026)
(0.022064 -0.00884301 -0.0791817)
(0.0273214 0.0128242 -0.0524159)
(0.0308243 0.00894614 -0.077838)
(0.00711136 0.0132105 -0.0791818)
(0.00262558 0.0157351 -0.0746897)
(0.0080268 -0.00874288 -0.0269488)
(0.0164936 0.00862863 -0.012189)
(0.030198 -0.00250352 -0.0246487)
(0.00640994 -0.0222182 -0.0260285)
(0.00857337 0.0049226 0.0104492)
(0.0216197 -0.0135048 -0.0045033)
(-0.0305799 0.0232901 -0.0870098)
(-0.00976723 0.0167852 -0.0610678)
(-0.00702581 0.0149012 -0.0832111)
(-0.0112758 0.0147994 -0.0880121)
(-0.00856741 0.0121724 -0.0758738)
(0.0344689 0.0330251 -0.0239784)
(0.0295431 0.0479751 -0.0113882)
(0.0135167 0.0173091 0.0220573)
(0.0332897 0.0397439 0.00460377)
(0.0294086 0.063228 -0.0123018)
(-0.0154134 0.0308645 -0.0618573)
(-0.0216489 0.0249751 -0.0874776)
(-0.0326098 0.0279504 -0.0838026)
(-0.0140995 0.0289724 -0.0798511)
(0 0 0)
(0.0312174 0.0449719 -0.0302985)
(0.0326412 0.0583941 -0.0343375)
(0.0649921 0.0391906 -0.0562823)
(0.0407354 0.0391684 -0.064647)
(0.0444461 0.0302958 -0.0749493)
(0.0445979 0.059629 -0.0489104)
(0.0580841 0.045514 -0.0593581)
(0.0398076 0.048404 -0.0557926)
(0.0444241 0.0340975 -0.0681619)
(-0.00578017 0.00134047 -0.0910591)
(-0.00115031 -0.00745879 -0.0731232)
(-0.00270903 -0.00153236 -0.0652284)
(0 0 0)
(0 0 0)
(0 0 0)
(0 0 0)
(0 0 0)
(0.0218835 0.0114601 -0.0686041)
(0.0254413 0.0143622 -0.0634997)
(0.008003 -0.0134835 -0.0842401)
(0.00572766 -0.0035563 -0.0695759)
(0.0173429 -0.00554227 -0.0808131)
(0.00803665 -0.0167065 -0.0912886)
(0.00652849 -0.00399662 -0.0817029)
(0.0128699 -0.0121128 -0.0708045)
(0.00852555 -0.00539942 -0.0665125)
(0.0110978 -0.0184627 -0.0862878)
(0.0140772 -0.0142896 -0.0770744)
(0.00854719 -0.00757756 -0.0780628)
(0 0 0)
(0 0 0)
(0 0 0)
(0 0 0)
(0 0 0)
(0 0 0)
(0 0 0)
(0 0 0)
(0 0 0)
(0 0 0)
(0 0 0)
(0 0 0)
(0 0 0)
(0 0 0)
(0 0 0)
(0 0 0)
(0.00728523 -0.0191371 -0.0342875)
(0 0 0)
(0.00643551 -0.0141449 -0.0576543)
(0.00802839 -0.0190429 -0.0444203)
(0.00783335 -0.00884572 -0.0538389)
(0 0 0)
(0 0 0)
(0 0 0)
(0 0 0)
(0 0 0)
(0 0 0)
(0 0 0)
(0 0 0)
(0 0 0)
(0 0 0)
(0 0 0)
(0 0 0)
(0 0 0)
(0.00314578 -0.0142963 -0.0233448)
(0.00148412 0.00688572 0.0191082)
(0.00741738 0.00204959 -0.00222446)
(0 0 0)
(0.00569873 0.00113391 0.0330837)
(0 0 0)