/*--------------------------------*- C++ -*----------------------------------*\
| =========                 |                                                 |
| \\      /  F ield         | OpenFOAM: The Open Source CFD Toolbox           |
|  \\    /   O peration     | Version:  5.x                                   |
|   \\  /    A nd           | Web:      www.OpenFOAM.org                      |
|    \\/     M anipulation  |                                                 |
\*---------------------------------------------------------------------------*/
FoamFile
{
    version     2.0;
    format      ascii;
    class       volScalarField;
    location    "6.6";
    object      Ksl;
}
// * * * * * * * * * * * * * * * * * * * * * * * * * * * * * * * * * * * * * //

dimensions      [1 -3 -1 0 0 0 0];

internalField   nonuniform List<scalar> 
10571
(
1610.44
6892.81
3859.42
952.74
3995.43
513.301
530.085
1624.99
1316.01
4186.45
3867.43
1515.45
1492.57
1431.21
1739.95
1047.21
2541.13
4219.01
3392.27
1463.7
5097.68
4268
3139.66
910.886
3053.05
11730.2
7128.09
4722.9
1176.2
4705.76
2018.91
1057.17
1718.73
3496.57
11166.1
7234.21
9561.5
3523.2
4241.74
1534.74
9842.7
5972.95
3910.19
1725.65
5619.16
10930.6
8587.33
9548.69
1873
7917.34
6403.14
479.269
3320.43
4728.08
2068.64
390.187
2940.75
7376.59
11963.3
7040.32
1792.58
1262.19
3017.19
2201.23
1240.79
343.782
514.89
1238.8
5549.23
114.943
3798.88
3415.02
5589.76
2406.36
8219.49
89.6308
8961.41
308.63
1562.14
3661.05
3497.38
9117.8
130.49
1701.7
1026.35
576.77
671.544
527.537
70.0575
677.739
612.926
232.83
1826.43
39.7239
327.521
2262.82
8700.89
2075.4
2766.19
3036.9
10502.6
95.6715
544.537
959.559
823.578
6628.51
89.5149
53.404
566.171
1125.42
360.703
1311.69
16.6701
478.05
2078.14
81.927
1394.23
28.9213
98.9798
3998.84
7795.37
1844.47
111.528
686.567
244.256
55.7867
362.13
415.218
233.375
770.967
7457.58
97.4807
8.33411
253.554
188.675
441.139
2802.5
11715.2
23.9817
84.8937
213.727
872.741
2531.01
27.8692
9.43135
124.6
11173
247.328
170.349
407.685
20.7046
40.7277
228.355
170.571
12.5959
0.518835
0
51.5549
29.636
88.6898
111.591
20.1795
9.69521
0
2.5828
26.3294
13.8749
18.6992
39.4753
0
3.48068
17.3849
0
310.799
106.713
651.137
224.345
30.4169
62.2466
23.2653
21.2943
5.87322
0
0
44.169
9.02166
28.9864
44.8489
7.93335
3.43336
0
12.5382
12.6732
13.4244
9.22537
0
0
0
3.678
0
0
20.4819
59.6023
31.3481
11.8813
21.82
29.4176
25.0212
7.18013
0
0
72.9192
15.8933
16.5472
13.5245
4.70446
0
0
0.494277
5.48048
4.37915
0
0
0
0
0
0
5.9551
11.8273
4.22605
4.13185
5.73403
29.6129
20.2686
2.76309
0
37.22
29.2123
14.231
13.11
0.773752
0
-1.51144e-12
7.96707
1.47284
0
0
0
0
0
0
5.13839
2.4849
1.41136
0
16.4048
11.3194
20.4728
1.35657
0
50.1902
5.9541
18.3808
8.77784
0
0
18.6015
2.1212
0.615477
0
0
1.42367
0
0
0
5.6601
3.44346
3.82232
0
15.5555
9.62567
21.9222
1.95078
0
30.1287
5.90302
17.3707
5.59774
0.628411
0
24.488
1.35297
0
0
0
0
0
0
0
11.038
3.59047
0
0
8.75997
5.746
12.115
1.32534
0
35.2566
10.4423
8.92343
4.84068
0
0
11.7821
1.11952
0.677877
0
0
0
0
0
0
5.69206
0
0
0
-8.34419e-13
4.71671
1.42123
0
0
9.50958
9.83037
6.79169
1.5298
0.578649
0
5.90551
0.223965
0
0
0
0
0
0
0
0
7.4377
0
0
8.89302
1.78468
1.65055
0
0
11.7876
9.79633
5.46065
1.99675
0
0
11.081
0
0.0332033
0
0
0
0
0
0
1.7595
0
0
0
7.41755
4.16254
0
0
0
20.6353
11.0999
1.17844
0
0
0
25.0727
0
0
0
0
0
0
0
0
0
2.11493
0
0.608825
18.7149
0.797545
0
0
0
11.6297
12.1861
1.72354
0
0
0
3.38942
0.0238106
0
0
0
0
0
0
0
0
0.0978597
0
0
9.52553
0.775407
0.568813
0
0
20.8769
0
0.942698
0
0
0
0
0
0
0
0
0
0
0
0
2.3279
0
0
0
0.0607588
0.43863
0
0
0
43.2895
19.0963
0.757569
0
0
0
0
0
0
0
0
0
0
0
0
2.38858
0
0
0
1.42372
0.394452
0
0
0
0.398634
0
0
0
0
0
0
0
0
0
0
0
0
0
0
4.25018
0
0
0
0
0
0
0
0
0
0
0
0
0
0
0
0
0
0
0
0
0
0
0
0
0
0
0
0
0
0
0
0
0
0
0
0
0
0
0
0
0
0
0
0
0
0
0
0
0
0
0
0
0
0
0
0
0
0
0
0
0
0
0
0
0
0
0
0
0
0
0
0
0
0
0
0
0
0
0
0
0
0
0
0
0
0
0
0
0
0
0
0
0
0
0
0
0
0
0
0
0
0
0
0
0
0
0
0
0
0
0
0
0
0
0
0
0
0
0
0
0
0
0
0
0
0
0
0
0
0
0
0
0
0
0
0
0
0
0
0
0
0
0
0
0
0
0
0
0
0
0
0
0
0
0
0
0
0
0
0
0
0
0
0
0
0
0
0
0
0
0
0
0
0
0
0
0
0
0
0
0
0
0
0
0
0
0
0
0
0
0
0
0
0
0
0
0
0
0
0
0
0
0
0
0
0
0
0
0
0
0
0
0
0
0
0
0
0
0
0
0
0
0
0
0
0
0
0
0
0
0
0
0
0
0
0
0
0
0
0
0
0
0
0
0
0
0
0
0
0
0
0
0
0
0
0
0
0
0
0
0
0
0
0
0
0
0
0
0
0
0
0
0
0
0
0
0
0
0
0
0
0
0
0
0
0
0
0
0
0
0
0
0
0
0
0
0
0
0
0
0
0
0
0
0
0
0
0
0
0
0
0
0
0
0
0
0
0
0
0
0
0
0
0
0
0
0
0
0
0
0
0
0
0
0
0
0
0
0
0
0
0
0
0
0
0
0
0
0
0
0
0
0
0
0
0
0
0
0
0
0
0
0
0
0
0
0
0
0
0
0
0
0
0
0
0
0
0
0
0
0
0
0
0
0
0
0
0
0
0
0
0
0
0
0
0
0
0
0
0
0
0
0
0
0
0
0
0
0
0
0
0
0
0
0
0
0
0
0
0
0
0
0
0
0
0
0
0
0
0
0
0
0
0
0
0
0
0
0
0
0
0
0
0
0
0
0
0
0
0
0
0
0
0
0
0
0
0
0
0
0
0
0
0
0
0
0
0
0
0
0
0
0
0
0
0
0
0
0
0
0
0
0
0
0
0
0
0
0
0
0
0
0
0
0
0
0
0
0
0
0
0
0
0
0
0
0
0
0
0
0
0
0
0
0
0
0
0
0
0
0
0
0
0
0
0
0
0
0
0
0
0
0
0
0
0
0
0
0
0
0
0
0
0
0
0
0
0
0
0
0
0
0
0
0
0
0
0
0
0
0
0
0
0
0
0
0
0
0
0
0
0
0
0
0
0
0
0
0
0
0
0
0
0
0
0
0
0
0
0
0
0
0
0
0
0
0
0
0
0
0
0
0
0
0
0
0
0
0
0
0
0
0
0
0
0
0
0
0
0
0
0
0
0
0
0
0
0
0
0
0
0
0
0
0
0
0
0
0
0
0
0
0
0
0
0
0
0
0
0
0
0
0
0
0
0
0
0
0
0
0
0
0
0
0
0
0
0
0
0
0
0
0
0
0
0
0
0
0
0
0
0
0
0
0
0
0
0
0
0
0
0
0
0
0
0
0
0
0
0
0
0
0
0
0
0
0
0
0
0
0
0
0
0
0
0
0
0
0
0
0
0
0
0
0
0
0
0
0
0
0
0
0
0
0
0
0
0
0
0
0
0
0
0
0
0
0
0
0
0
0
0
0
0
0
0
0
0
0
0
0
0
0
0
0
0
0
0
0
0
0
0
0
0
0
0
0
0
0
0
0
0
0
0
0
0
0
0
0
0
0
0
0
0
0
0
0
0
0
0
0
0
0
0
0
0
0
0
0
0
0
0
0
0
0
0
0
0
0
0
0
0
0
0
0
0
0
0
0
0
0
0
0
0
0
0
0
0
0
0
0
0
0
0
0
0
0
0
0
0
0
0
0
0
0
0
0
0
0
0
0
0
0
0
0
0
0
0
0
0
0
0
0
0
0
0
0
0
0
0
0
0
0
0
0
0
0
0
0
0
0
0
0
0
0
0
0
0
0
0
0
0
0
0
0
0
0
0
0
0
0
0
0
0
0
0
0
0
0
0
0
0
0
0
0
0
0
0
0
0
0
0
0
0
0
0
0
0
0
0
0
0
0
0
0
0
0
0
0
0
0
0
0
0
0
0
0
0
0
0
0
0
0
0
0
0
0
0
0
0
0
0
0
0
0
0
0
0
0
0
0
0
0
0
0
0
0
0
0
0
0
0
0
0
0
0
0
0
0
0
0
0
0
0
0
0
0
0
0
0
0
0
0
0
0
0
0
0
0
0
0
0
0
0
0
0
0
0
0
0
0
0
0
0
0
0
0
0
0
0
0
0
0
0
0
0
0
0
0
0
0
0
0
0
0
0
0
0
0
0
0
0
0
0
0
0
0
0
0
0
0
0
0
0
0
0
0
0
0
0
0
0
0
0
0
0
0
0
0
0
0
0
0
0
0
0
0
0
0
0
0
0
0
0
0
0
0
0
0
0
0
0
0
0
0
0
0
0
0
0
0
0
0
0
0
0
0
0
0
0
0
0
0
0
0
0
0
0
0
0
0
0
0
0
0
0
0
0
0
0
0
0
0
0
0
0
0
0
0
0
0
0
0
0
0
0
0
0
0
0
0
0
0
0
0
0
0
0
0
0
0
0
0
0
0
0
0
0
0
0
0
0
0
0
0
0
0
0
0
0
0
0
0
0
0
0
0
0
0
0
0
0
0
0
0
0
0
0
0
0
0
0
0
0
0
0
0
0
0
0
0
0
0
0
0
0
0
0
0
0
0
0
0
0
0
0
0
0
0
0
0
0
0
0
0
0
0
0
0
0
0
0
0
0
0
0
0
0
0
0
0
0
0
0
0
0
0
0
0
0
0
0
0
0
0
0
0
0
0
0
0
0
0
0
0
0
0
0
0
0
0
0
0
0
0
0
0
0
0
0
0
0
0
0
0
0
0
0
0
0
0
0
0
0
0
0
0
5349.13
4465.31
6285.89
9172.36
2817.45
5249.23
6890
7353.76
3028.37
4676.52
5877.28
4381.94
5583.4
8984.88
11047.3
8186.71
10030.9
9571.81
6853.91
9160.6
8707.45
6050.73
7920.2
3686.55
5863.17
7622.5
1570.32
2227.06
1660.36
1064.22
1081.63
622.091
492.412
2486.05
4607.47
491.973
326.097
7065.97
8859.57
833.566
4256.56
9757.19
6038.61
9012.14
9162.15
4583.9
2586.4
1538.36
2773.8
3358.79
4174.11
971.279
1385.39
1029.6
2843.26
802.432
634.039
1042.49
827.305
393.774
1154.12
846.884
895.261
6484.91
8293.1
5390.4
4505.15
4543.78
2532.79
5636.87
2472.32
1884.46
3949.49
2322.97
5076.3
1050.98
1013.15
1492.68
1316.54
932.027
533.824
674.279
627.077
4113.98
3195.76
2515.71
4511.26
3808.48
2576.64
1431.42
787.655
218.948
602.65
1154.14
412.916
2134.14
9271.39
11374.8
3605.21
5962.89
1604.87
4384.09
8421.02
4161.1
1618.28
3472.15
6527.57
6796.4
475.053
8157.45
3922.89
7230.4
10865.5
4869.59
5084.92
3845.7
11145.2
8726.63
6171.19
3366.34
9267.14
221.616
4816.07
1198.63
6719.26
152.604
1981.12
8959.29
8590.73
5255.22
7434.93
4384.26
8798.2
10304.4
7645.8
2799.19
2932.8
3577.43
2959.67
4267.7
4133.69
3535.13
8370.78
6449.57
4675.24
725.59
886.233
912.29
1316.58
4136.45
1670.51
3116.66
4019.22
1740.94
6178.98
4927.94
7390.89
7797.98
10868.4
4540.23
1078.79
3775.18
858.57
6521.14
5124.66
9877.38
10946.8
5598.22
12252.1
3019.21
305.461
10031.3
7981.31
6303.61
1868.08
1638.27
5983.83
5676.77
5476.86
7761.69
12581.3
12571.2
5191.65
8559.14
3396.29
4137.15
9594.37
2884.05
1301.05
358.315
1395.05
471.585
681.29
3301.21
3287.47
12232.8
11647.6
10261.1
6865.46
1825.99
11407.3
10029.1
7046.37
1807.17
6092.08
373.632
1798.49
2393.9
7999.85
198.917
2527.25
8100.03
9413.77
10256.2
12090.9
9933.35
10748.6
12734.9
11085.6
2964.15
4424.18
5314.99
5272.49
5396.5
9689.72
8821.84
12664.2
11286.4
11190.6
1199.76
3952.12
4948.36
4201.26
4433.82
8444.44
11485.3
12725.8
11929.2
11880.9
9089.27
8413.19
1795.31
1362.24
6166.84
6553.78
10293.5
2114.49
6092.81
5272.06
6993.91
4914.18
11131
484.894
11142.4
10431.5
901.397
6128.24
8509.46
5939.69
9486.84
5025.32
259.788
10056.9
6151.78
12259.4
11754
3833.18
10025
1680.78
5333.96
9577.97
2392.49
177.106
1109.68
3512.98
374.76
1455.56
5253.14
8908.44
2632.27
366.722
10237.9
2582.2
1768.16
6192.45
9149.52
579.181
1850.03
9508.38
466.949
4965.39
5100.82
10587.1
952.386
8826.96
8650.89
9721.38
6683.78
12254.3
8970.35
1047.27
1493.68
713.764
7179.35
6808.58
8330.93
6364.17
7684.39
10765.4
9129.86
1167.19
733.363
483.883
4571.4
5060.25
692.014
2391.05
3336.21
4249.34
111.635
2227.78
130.327
200.304
119.82
467.523
77.4919
127.33
3017.87
1710.49
1623.08
612.847
573.87
779.591
931.777
3073.49
104.165
22.486
442.053
935.721
34.2558
141.876
152.1
3299.39
6280.5
1289.76
4437.19
829.895
2088.08
11426.4
9958.63
6456.33
10246.9
3980.88
7020.2
10108.6
7394.78
1550.52
2947.71
8101.06
4947.43
6866.2
11016.5
11222.7
613.996
848.263
7067.08
341.922
1523.34
503.344
2424.19
316.369
790.643
11691.8
2565.58
10375.6
10404
11594.2
8474.2
10579.7
9905.8
9897.79
674.463
150.372
234.32
525.338
92.7855
129.929
5137.26
8019.89
9933.97
4765.96
6743.75
259.732
87.4847
51.6457
36.8408
10.3658
1829.67
1210.85
1182.86
3527.86
1534.82
13.7314
22.9211
268.609
14.4656
146.856
49.3653
125.314
46.1379
76.6407
531.086
306.865
796.469
125.878
524.072
277.543
1103.68
1098.1
59.5628
36.2749
110.94
69.6205
82.47
92.043
81.1202
1119.37
200.571
176.323
617.772
66.873
3375.5
4167.09
1581.57
8966.2
7525.99
8417.88
9855.76
2302.76
3360.44
7894.16
9729.23
8737.39
7409.49
9922.78
11667.2
8681.92
1368.82
793.198
993.092
766.274
413.614
1469.4
517.746
797.797
371.699
10478.6
5074.22
6503.78
3322.24
1279.67
1193.84
1940.38
9968.39
5258.06
293.82
194.715
104.435
181.433
78.5688
55.3098
3144.51
6501.95
2687.41
1896.27
1167.7
22.9225
12.3103
64.5471
37.0767
13.4073
4959.32
1758.03
1912.29
2374.24
1242.35
25.3624
7.95337
125.81
27.6379
40.9047
25.0327
41.7358
30.3202
8.25257
275.271
623.014
1945.81
128.828
220.541
2281.09
2363.41
1701.87
27.3716
0.424612
38.7331
33.1298
16.7576
18.8054
22.321
347.838
33.8296
57.2794
237.747
6.6343
1269.34
601.595
1179.04
7554.63
748.914
833.533
7033.28
465.24
349.382
4188.46
7583.44
9918.92
2262.89
3632.36
4946.87
1356.99
341.735
156.162
492.918
480.029
175.065
524.806
575.694
162.961
131.064
177.231
61.1605
642.007
48.719
10.421
9.23188
30.6017
415.477
11.6224
152.271
119.529
79.9685
134.799
49.0191
54.093
728.344
2735.61
2429.71
60.6282
10.833
409.402
0.11403
23713.4
10356.3
12278.6
506.352
13966
632.635
8997.28
21.9318
13.7098
135.496
21.7706
35.7753
2797.22
1814.13
1758.11
578.314
8.58289
784.557
47.9113
12455.9
13044.7
14242.2
705.797
8351.31
579.263
7853.28
21.9578
37.1114
24.6782
0
25.1167
18.2366
17.257
0
8.30482
276.045
448.521
1273.59
1777.28
2327.81
97.6173
322.285
2969
2.93988
15.6818
6.51513
-1.89454e-13
16.3704
22.5263
0
65.6136
37.1094
15.0862
1.71166
14.2056
0
2265.62
705.885
4336
796.031
359.795
6660.82
1172.16
1014.95
1708.24
2899.59
6743.92
1936.9
587.531
221.415
67.1224
135.342
94.0373
677.593
102.326
253.017
147.492
490.227
100.373
290.291
7.36798
28.902
0
31.3438
7.87758
7.61035
0.164708
9.38732
0
0.197045
4.6025
0
0
0
0
63.9542
70.8855
49.8453
123.46
55.4438
53.225
13.0329
5.9799
0
0
0
0
0
46.6849
0
23.4603
0
0
0
0
27.8353
38.8968
25.3063
12.5052
43.1489
0
10.8118
0.352633
0
0
0
0
18.1351
0
44.1627
0
0
0
0
13.4713
13.9257
31.3442
0
29.5276
30.213
13.7063
12.606
5.91648
76.328
9.90304
2.82874
10.7278
0.230561
-9.78873e-13
0
0
10.6076
0
0
0
0
14.1272
0
6.55007
0
0
6.09519
0
5.47592
0
5.6055
0
0
0
86.1348
66.6528
554.246
622.185
719.816
10.597
40.0615
70.4114
262.841
45.6238
0.627652
30.6592
17.8702
29.7893
8.14208
116.239
23.9285
188.992
83.764
179.408
13.9864
44.0574
48.9058
72.2894
7.44069
4.76555
4.2259
26.4281
0
12.6956
0
0
0
0
0
0
0
0
0
57.2417
35.5534
33.6946
56.2456
23.203
30.8669
0
0
0
0
0
0
0
0
0
0
0
0
0
0
20.216
28.3178
26.1027
5.35443
31.5116
0
0
0
0
0
0
0
0
0
0
0
0
0
0
29.2758
0
1.21193
11.784
12.5672
22.5791
0
13.0766
6.07218
0
1.04767
0
14.6036
4.30355
1.43922
0
0
0
0
0
0
0
0
0
0
0
0
3.66684
0
0
0
0
0
0
0
41.3815
0.215677
0
13.3345
10.6768
11.2316
7.42559
5.92009
15.2524
11.3585
0
5.04731
0
0
0
56.2428
31.4831
20.5335
54.0591
63.6043
12.8064
5.42146
37.5157
33.09
0
31.7988
0
8.28007
0
15.3985
4.62063
0
0
18.1166
86.3238
35.2284
18.6472
6.62301
35.1201
0
0
0
0
0
0
0
0
0
0
0
0
0
0
22.2902
14.6624
41.2297
46.2218
7.31726
0
0
0
0
0
0
0
0
0
0
0
0
0
0
0
0
0
11.9342
18.4462
8.61482
-1.00223e-13
8.94015
-1.67239e-12
0
0
0
4.79127
0
0
0
0
0
15.9898
0
0
0
0
0
0
0
0
0
0
0
2.60081
21.6902
0
11.785
8.63222
0
12.1601
0.104978
5.96557
0
0
2.90072
0
4.25719
0
-2.62854e-12
9.45833
19.8877
6.82673
11.1419
2.83573
5.58075
10.5474
20.6993
0.275383
5.05843
3.4219
2.80073
0
9.93037
0.853651
0
0
22.0699
35.3767
35.2012
14.6765
53.7108
14.835
0
0
0
0
0
20.1221
25.654
28.2181
19.1738
14.3749
0
0
0
0
0
9.53508
14.4842
0.168802
-2.76342e-13
0
18.5635
0
0
0
0
0
0
0
0
0
0
0
0
0
0
0
0
0
0
0
0
0
0
0
0
-9.08193e-13
0
0
5.09934
6.13686
0
3.88716
0
0
0
0
0
0
0
0
24.3903
16.9249
3.12149
6.86388
8.82568
0
0
7.14012
22.3498
0
4.77179
0
0
0
0
0
0
0
15.908
15.7787
20.8513
19.1996
16.1814
15.4835
0
0
0
0
0
18.5915
22.1361
45.9142
28.6354
16.7245
0
0
0
0
0
0.424841
14.1032
0
0
0
8.11263
-1.89254e-13
8.19377
0.242417
0
0
0
0
0
0
0
0
13.6105
0
0
0
0
0
0
0
0
0
0
0
0
0
0
0
4.26105
3.40907
0
2.68144
-7.50537e-13
0
0
0
0
0
0
0
9.66497
7.07375
0
3.55621
-3.83123e-14
0.400548
6.66938
11.408
0.20215
0
0
0
0
0
0
0
0
0
10.1507
0
0.391688
10.0802
11.7393
19.9473
0
0
0
-5.80746e-13
0
19.6199
12.5064
4.86391
18.4227
18.9002
0
0
0
0
0
28.4162
26.9173
-9.53757e-13
0
5.99626
11.697
0.279206
19.8902
8.49908
0
0
0
0
0
0
0
0
0
0
0
0
0
0
0
0
0
0
0
0
0
0
0
0
5.45696
0
0
0
3.28707
0
0
0
0
0
0
0
0
0
0
6.82944
10.6513
0
0
3.3753
3.74311
0
0
0
0
0
0
0
0
0
14.43
0.548778
26.4524
8.58205
12.3807
15.4077
4.68628
0
0
0
0
33.5066
9.16368
14.1232
9.28868
6.97579
0
0
0
0
0
13.5908
13.3974
5.69354
0
0
5.97308
0
0
0
0
0
0
0
0
0
0
0
0
0
0
0
0
0
0
0
0
0
0
0
0
0
0
0
0
0
0
0
0
0
0
0
0
0
0
0
0
0
0
3.11116
0
0
0
4.40475
0
0
0
0
0
0
0
0
0
0
8.27587
9.38253
14.2039
22.0569
10.3155
11.8451
0
0
0
0
0
18.8787
18.7782
26.8274
12.6067
14.1086
0
0
0
0
0
12.5952
12.7994
20.115
0
0
27.938
0
0
0
0
0
0
0
0
0
0
0
0
0
0
0
0
0
0
0
0
0
0
0
0
0
0
0
0
0
0
4.28512
0
0
0
0
0
0
0
0
0
0
0
2.65739
0
0
0
-4.87371e-14
6.11355
0
0
0
0
0
0
0
0
0
0.387535
11.0821
9.16827
9.29167
20.9596
15.3901
0
0
0
0
0
10.2312
8.77567
15.0074
1.37815
13.9433
0
0
0
0
0
9.11223
24.7252
5.59911
0
0
0
0
10.6555
0
0
0
0
0
0
0
0
0
0
0
0
0
0
0
0
0
0
0
0
0
0
0
0
0
0
0
0
0
0
0
0
0
0
0
0
0
0
5.4479
2.57182
3.95112
3.20496
3.85333
0.813539
2.40102
2.43493
0
0
0
0
0
0
0
0
0
1.19021
6.87942
11.6223
0
0
17.8706
0
0
0
0
0
10.7682
0
0
12.2029
12.4296
0
0
0
0
0
4.71761
0
0
10.3033
0
1.70266
3.74175
0
0
0
0
0
0
0
0
0
0
0
0
0
0
0
0
0
0
0
0
0
0
0
0
0
0
0.987052
0
0
-2.69221e-13
0
0
0
0
0
0
0
0
0.297731
5.55953
0
4.41664
0
3.32067
2.25342
5.97424
0
0
0
0
0
0
0
0
0
0
8.97317
9.52587
13.9386
14.03
0
30.2395
0
0
0
0
0
16.5069
13.5496
32.7535
28.0076
11.5457
0
0
0
0
0
23.5316
0
5.50299
0
0
1.86519
0
0
0
0
0
0
0
0
0
0
0
0
0
0
0
0
0
0
0
0
0
0
0
0
0
4.36984
0
3.83058
0
0
0
0
0
0
0
0
0
0
0
0.983048
-2.1286e-13
1.94716
1.66682
0
3.24163
0
4.67087
0
0
0
0
0
0
0
0
0
0
40.1366
0
9.32718
22.1906
9.49032
36.5251
0
0
0
0
0
19.2043
8.52686
11.21
22.6258
5.60278
0
0
0
0
0
0
0
0
0
0
0
0
0
0
0
0
0
0
0
0
0
0
0
0
0
0
0
0
0
0
0
0
0
0
0
0.124578
0
0
0
0
0
0
0
0
0
0
0
0
0
0
16.4812
2.73433
2.38825
6.26215
0
6.20089
-6.54527e-15
0
3.22296
0
0
0
0
0
0
0
0
0
2.37023
0
20.6087
4.87145
-2.37218e-13
9.06952
0
0
0
0
0
10.1618
4.60095
45.0748
5.67534
0
0
0
0
0
0
0
0
0
0
0
0
0
0
0
0
0
0
0
0
0
0
0
0
0
0
0
0
0
0
0
0
0
0
0
0
0
0
0
0
0
0
0
0
0
0
0
0
0
0
0
9.06646
5.68806
0
2.90064
0
0
0
0.513203
0
0
0
0
0
0
0
0
0
0
4.3835
11.1797
0
7.61214
0
0
0
0
0
0
0
0
0
0
0
0
0
0
0
0
0
0
0
0
0
0
0
0
0
0
0
0
0
0
0
0
0
0
0
0
0
0
0
0
0
0
0
0
0
0
0
0
0
0
0
0
0
0
0
0
0
0
0
0
0
0
0
0
0.0853609
0.0756406
0
0
2.20597
0
0
0
0
0
0
0
0
0
0
0
0
0
0
0
0
0
0
0
0
0
0
0
0
0
0
0
0
0
0
0
0
0
0
0
0
0
0
0
0
0
0
0
0
0
0
0
0
0
0
0
0
0
0
0
0
0
0
0
0
0
0
0
0
0
0
0
0
0
0
0
0
0
0
0
0
0
0
0
4.58969
0
0
0
0
0
0
0
0
0
0
0
0
0
0
0
0
0
0
0
0
0
0
0
0
0
0
0
0
0
0
0
0
0
0
0
0
0
0
0
0
0
0
0
0
0
0
0
0
0
0
0
0
0
0
0
0
0
0
0
0
0
0
0
0
0
0
0
0
0
0
0
0
0
0
0
0
0
0
0
0
0
0
0
0
0
0
0
0
0
0
0
0
0
0
0
0
0
0
0
0
0
0
0
0
0
0
0
0
0
0
0
0
0
0
0
0
0
0
0
0
0
0
0
0
0
0
0
0
0
0
0
0
0
0
0
0
0
0
0
0
0
0
0
0
0
0
0
0
0
0
0
0
0
0
0
0
0
0
0
0
0
0
0
0
0
0
0
0
0
0
0
0
0
0
0
0
0
0
0
0
0
0
0
0
0
0
0
0
0
0
0
0
0
0
0
0
0
0
0
0
0
0
0
0
0
0
0
0
0
0
0
0
0
0
0
0
0
0
0
0
0
0
0
0
0
0
0
0
0
0
0
0
0
0
0
0
0
0
0
0
0
0
0
0
0
0
0
0
0
0
0
0
0
0
0
0
0
0
0
0
0
0
0
0
0
0
0
0
0
0
0
0
0
0
0
0
0
0
0
0
0
0
0
0
0
0
0
0
0
0
0
0
0
0
0
0
0
0
0
0
0
0
0
0
0
0
0
0
0
0
0
0
0
0
0
0
0
0
0
0
0
0
0
0
0
0
0
0
0
0
0
0
0
0
0
0
0
0
0
0
0
0
0
0
0
0
0
0
0
0
0
0
0
0
0
0
0
0
0
0
0
0
0
0
0
0
0
0
0
0
0
0
0
0
0
0
0
0
0
0
0
0
0
0
0
0
0
0
0
0
0
0
0
0
0
0
0
0
0
0
0
0
0
0
0
0
0
0
0
0
0
0
0
0
0
0
0
0
0
0
0
0
0
0
0
0
0
0
0
0
0
0
0
0
0
0
0
0
0
0
0
0
0
0
0
0
0
0
0
0
0
0
0
0
0
0
0
0
0
0
0
0
0
0
0
0
0
0
0
0
0
0
0
0
0
0
0
0
0
0
0
0
0
0
0
0
0
0
0
0
0
0
0
0
0
0
0
0
0
0
0
0
0
0
0
0
0
0
0
0
0
0
0
0
0
0
0
0
0
0
0
0
0
0
0
0
0
0
0
0
0
0
0
0
0
0
0
0
0
0
0
0
0
0
0
0
0
0
0
0
0
0
0
0
0
0
0
0
0
0
0
0
0
0
0
0
0
0
0
0
0
0
0
0
0
0
0
0
0
0
0
0
0
0
0
0
0
0
0
0
0
0
0
0
0
0
0
0
0
0
0
0
0
0
0
0
0
0
0
0
0
0
0
0
0
0
0
0
0
0
0
0
0
0
0
0
0
0
0
0
0
0
0
0
0
0
0
0
0
0
0
0
0
0
0
0
0
0
0
0
0
0
0
0
0
0
0
0
0
0
0
0
0
0
0
0
0
0
0
0
0
0
0
0
0
0
0
0
0
0
0
0
0
0
0
0
0
0
0
0
0
0
0
0
0
0
0
0
0
0
0
0
0
0
0
0
0
0
0
0
0
0
0
0
0
0
0
0
0
0
0
0
0
0
0
0
0
0
0
0
0
0
0
0
0
0
0
0
0
0
0
0
0
0
0
0
0
0
0
0
0
0
0
0
0
0
0
0
0
0
0
0
0
0
0
0
0
0
0
0
0
0
0
0
0
0
0
0
0
0
0
0
0
0
0
0
0
0
0
0
0
0
0
0
0
0
0
0
0
0
0
0
0
0
0
0
0
0
0
0
0
0
0
0
0
0
0
0
0
0
0
0
0
0
0
0
0
0
0
0
0
0
0
0
0
0
0
0
0
0
0
0
0
0
0
0
0
0
0
0
0
0
0
0
0
0
0
0
0
0
0
0
0
0
0
0
0
0
0
0
0
0
0
0
0
0
0
0
0
0
0
0
0
0
0
0
0
0
0
0
0
0
0
0
0
0
0
0
0
0
0
0
0
0
0
0
0
0
0
0
0
0
0
0
0
0
0
0
0
0
0
0
0
0
0
0
0
0
0
0
0
0
0
0
0
0
0
0
0
0
0
0
0
0
0
0
0
0
0
0
0
0
0
0
0
0
0
0
0
0
0
0
0
0
0
0
0
0
0
0
0
0
0
0
0
0
0
0
0
0
0
0
0
0
0
0
0
0
0
0
0
0
0
0
0
0
0
0
0
0
0
0
0
0
0
0
0
0
0
0
0
0
0
0
0
0
0
0
0
0
0
0
0
0
0
0
0
0
0
0
0
0
0
0
0
0
0
0
0
0
0
0
0
0
0
0
0
0
0
0
0
0
0
0
0
0
0
0
0
0
0
0
0
0
0
0
0
0
0
0
0
0
0
0
0
0
0
0
0
0
0
0
0
0
0
0
0
0
0
0
0
0
0
0
0
0
0
0
0
0
0
0
0
0
0
0
0
0
0
0
0
0
0
0
0
0
0
0
0
0
0
0
0
0
0
0
0
0
0
0
0
0
0
0
0
0
0
0
0
0
0
0
0
0
0
0
0
0
0
0
0
0
0
0
0
0
0
0
0
0
0
0
0
0
0
0
0
0
0
0
0
0
0
0
0
0
0
0
0
0
0
0
0
0
0
0
0
0
0
0
0
0
0
0
0
0
0
0
0
0
0
0
0
0
0
0
0
0
0
0
0
0
0
0
0
0
0
0
0
0
0
0
0
0
0
0
0
0
0
0
0
0
0
0
0
0
0
0
0
0
0
0
0
0
0
0
0
0
0
0
0
0
0
0
0
0
0
0
0
0
0
0
0
0
0
0
0
0
0
0
0
0
0
0
0
0
0
0
0
0
0
0
0
0
0
0
0
0
0
0
0
0
0
0
0
0
0
0
0
0
0
0
0
0
0
0
0
0
0
0
0
0
0
0
0
0
0
0
0
0
0
0
0
0
0
0
0
0
0
0
0
0
0
0
0
0
0
0
0
0
0
0
0
0
0
0
0
0
0
0
0
0
0
0
0
0
0
0
0
0
0
0
0
0
0
0
0
0
0
0
0
0
0
0
0
0
0
0
0
0
0
0
0
0
0
0
0
0
0
0
0
0
0
0
0
0
0
0
0
0
0
0
0
0
0
0
0
0
0
0
0
0
0
0
0
0
0
0
0
0
0
0
0
0
0
0
0
0
0
0
0
0
0
0
0
0
0
0
0
0
0
0
0
0
0
0
0
0
0
0
0
0
0
0
0
0
0
0
0
0
0
0
0
0
0
0
0
0
0
0
0
0
0
0
0
0
0
0
0
0
0
0
0
0
0
0
0
0
0
0
0
0
0
0
0
0
0
0
0
0
0
0
0
0
0
0
0
0
0
0
0
0
0
0
0
0
0
0
0
0
0
0
0
0
0
0
0
0
0
0
0
0
0
0
0
0
0
0
0
0
0
0
0
0
0
0
0
0
0
0
0
0
0
0
0
0
0
0
0
0
0
0
0
0
0
0
0
0
0
0
0
0
0
0
0
0
0
0
0
0
0
0
0
0
0
0
0
0
0
0
0
0
0
0
0
0
0
0
0
0
0
0
0
0
0
0
0
0
0
0
0
0
0
0
0
0
0
0
0
0
0
0
0
0
0
0
0
0
0
0
0
0
0
0
0
0
0
0
0
0
0
0
0
0
0
0
0
0
0
0
0
0
0
0
0
0
0
0
0
0
0
0
0
0
0
0
0
0
0
0
0
0
0
0
0
0
0
0
0
0
0
0
0
0
0
0
0
0
0
0
0
0
0
0
0
0
0
0
0
0
0
0
0
0
0
0
0
0
0
0
0
0
0
0
0
0
0
0
0
0
0
0
0
0
0
0
0
0
0
0
0
0
0
0
0
0
0
0
0
0
0
0
0
0
0
0
0
0
0
0
0
0
0
0
0
0
0
0
0
0
0
0
0
0
0
0
0
0
0
0
0
0
0
0
0
0
0
0
0
0
0
0
0
0
0
0
0
0
0
0
0
0
0
0
0
0
0
0
0
0
0
0
0
0
0
0
0
0
0
0
0
0
0
0
0
0
0
0
0
0
0
0
0
0
0
0
0
0
0
0
0
0
0
0
0
0
0
0
0
0
0
0
0
0
0
0
0
0
0
0
0
0
0
0
0
0
0
0
0
0
0
0
0
0
0
0
0
0
0
0
0
0
0
0
0
0
0
0
0
0
0
0
0
0
0
0
0
0
0
0
0
0
0
0
0
0
0
0
0
0
0
0
0
0
0
0
0
0
0
0
0
0
0
0
0
0
0
0
0
0
0
0
0
0
0
0
0
0
0
0
0
0
0
0
0
0
0
0
0
0
0
0
0
0
0
0
0
0
0
0
0
0
0
0
0
0
0
0
0
0
0
0
0
0
0
0
0
0
0
0
0
0
0
0
0
0
0
0
0
0
0
0
0
0
0
0
0
0
0
0
0
0
0
0
0
0
0
0
0
0
0
0
0
0
0
0
0
0
0
0
0
0
0
0
0
0
0
0
0
0
0
0
0
0
0
0
0
0
0
0
0
0
0
0
0
0
0
0
0
0
0
0
0
0
0
0
0
0
0
0
0
0
0
0
0
0
0
0
0
0
0
0
0
0
0
0
0
0
0
0
0
0
0
0
0
0
0
0
0
0
0
0
0
0
0
0
0
0
0
0
0
0
0
0
0
0
0
0
0
0
0
0
0
0
0
0
0
0
0
0
0
0
0
0
0
0
0
0
0
0
0
0
0
0
0
0
0
0
0
0
0
0
0
0
0
0
0
0
0
0
0
0
0
0
0
0
0
0
0
0
0
0
0
0
0
0
0
0
0
0
0
0
0
0
0
0
0
0
0
0
0
0
0
0
0
0
0
0
0
0
0
0
0
0
0
0
0
0
0
0
0
0
0
0
0
0
0
0
0
0
0
0
0
0
0
0
0
0
0
0
0
0
0
0
0
0
0
0
0
0
0
0
0
0
0
0
0
0
0
0
0
0
0
0
0
0
0
0
0
0
0
0
0
0
0
0
0
0
0
0
0
0
0
0
0
0
0
0
0
0
0
0
0
0
0
0
0
0
0
0
0
0
0
0
0
0
0
0
0
0
0
0
0
0
0
0
0
0
0
0
0
0
0
0
0
0
0
0
0
0
0
0
0
0
0
0
0
0
0
0
0
0
0
0
0
0
0
0
0
0
0
0
0
0
0
0
0
0
0
0
0
0
0
0
0
0
0
0
0
0
0
0
0
0
0
0
0
0
0
0
0
0
0
0
0
0
0
0
0
0
0
0
0
0
0
0
0
0
0
0
0
0
0
0
0
0
0
0
0
0
0
0
0
0
0
0
0
0
0
0
0
0
0
0
0
0
0
0
0
0
0
0
0
0
0
0
0
0
0
0
0
0
0
0
0
0
0
0
0
0
0
0
0
0
0
0
0
0
0
0
0
0
0
0
0
0
0
0
0
0
0
0
0
0
0
0
0
0
0
0
0
0
0
0
0
0
0
0
0
0
0
0
0
0
0
0
0
0
0
0
0
0
0
0
0
0
0
0
0
0
0
0
0
0
0
0
0
0
0
0
0
0
0
0
0
0
0
0
0
0
0
0
0
0
0
0
0
0
0
0
0
0
0
0
0
0
0
0
0
0
0
0
0
0
0
0
0
0
0
0
0
0
0
0
0
0
0
0
0
0
0
0
0
0
0
0
0
0
0
0
0
0
0
0
0
0
0
0
0
0
0
0
0
0
0
0
0
0
0
0
0
0
0
0
0
0
0
0
0
0
0
0
0
0
0
0
0
0
0
0
0
0
0
0
0
0
0
0
0
0
0
0
0
0
0
0
0
0
0
0
0
0
0
0
0
0
0
0
0
0
0
0
0
0
0
0
0
0
0
0
0
0
0
0
0
0
0
0
0
0
0
0
0
0
0
0
0
0
0
0
0
0
0
0
0
0
0
0
0
0
0
0
0
0
0
0
0
0
0
0
0
0
0
0
0
0
0
0
0
0
0
0
0
0
0
0
0
0
0
0
0
0
0
0
0
0
0
0
0
0
0
0
0
0
0
0
0
0
0
0
0
0
0
0
0
0
0
0
0
0
0
0
0
0
0
0
0
0
0
0
0
0
0
0
0
0
0
0
0
0
0
0
0
0
0
0
0
0
0
0
0
0
0
0
0
0
0
0
0
0
0
0
0
0
0
0
0
0
0
0
0
0
0
0
0
0
0
0
0
0
0
0
0
0
0
0
0
0
0
0
0
0
0
0
0
0
0
0
0
0
0
0
0
0
0
0
0
0
0
0
0
0
0
0
0
0
0
0
0
0
0
0
0
0
0
0
0
0
0
0
0
0
0
0
0
0
0
0
0
0
0
0
0
0
0
0
0
0
0
0
0
0
0
0
0
0
0
0
0
0
0
0
0
0
0
0
0
0
0
0
0
0
0
0
0
0
0
0
0
0
0
0
0
0
0
0
0
0
0
0
0
0
0
0
0
0
0
0
0
0
0
0
0
0
0
0
0
0
0
0
0
0
0
0
0
0
0
0
0
0
0
0
0
0
0
0
0
0
0
0
0
0
0
0
0
0
0
0
0
0
0
0
0
0
0
0
0
0
0
0
0
0
0
0
0
0
0
0
0
0
0
0
0
0
0
0
0
0
0
0
0
0
0
0
0
0
0
0
0
0
0
0
0
0
0
0
0
0
0
0
0
0
0
0
0
0
0
0
0
0
0
0
0
0
0
0
0
0
0
0
0
0
0
0
0
0
0
0
0
0
0
0
0
0
0
0
0
0
0
0
0
0
0
0
0
0
0
0
0
0
0
0
0
0
0
0
0
0
0
0
0
0
0
0
0
0
0
0
0
0
0
0
0
0
0
0
0
0
0
0
0
0
0
0
0
0
0
0
0
0
0
0
0
0
0
0
0
0
0
0
0
0
0
0
0
0
0
0
0
0
0
0
0
0
0
0
0
0
0
0
0
0
0
0
0
0
0
0
0
0
0
0
0
0
0
0
0
0
0
0
0
0
0
0
0
0
0
0
0
0
0
0
0
0
0
0
0
0
0
0
0
0
0
0
0
0
0
0
0
0
0
0
0
0
0
0
0
0
0
0
0
0
0
0
0
0
0
0
0
0
0
0
0
0
0
0
0
0
0
0
0
0
0
0
0
0
0
0
0
0
0
0
0
0
0
0
0
0
0
0
0
0
0
0
0
0
0
0
0
0
0
0
0
0
0
0
0
0
0
0
0
0
0
0
0
0
0
0
0
0
0
0
0
0
0
0
0
0
0
0
0
0
0
0
0
0
0
0
0
0
0
0
0
0
0
0
0
0
0
0
0
0
0
0
0
0
0
0
0
0
0
0
0
0
0
0
0
0
0
0
0
0
0
0
0
0
0
0
0
0
0
0
0
0
0
0
0
0
0
0
0
0
0
0
0
0
0
0
0
0
0
0
0
0
0
0
0
0
0
0
0
0
0
0
0
0
0
0
0
0
0
0
0
0
0
0
0
0
0
0
0
0
0
0
0
0
0
0
0
0
0
0
0
0
0
0
0
0
0
0
0
0
0
0
0
0
0
0
0
0
0
0
0
0
0
0
0
0
0
0
0
0
0
0
0
0
0
0
0
0
0
0
0
0
0
0
0
0
0
0
0
0
0
0
0
0
0
0
0
0
0
0
0
0
0
0
0
0
0
0
0
0
0
0
0
0
0
0
0
0
0
0
0
0
0
0
0
0
0
0
0
0
0
0
0
0
0
0
0
0
0
0
0
0
0
0
0
0
0
0
0
0
0
0
0
0
0
0
0
0
0
0
0
0
0
0
0
0
0
0
0
0
0
0
0
0
0
0
0
0
0
0
0
0
0
0
0
0
0
0
0
0
0
0
0
0
0
0
0
0
0
0
0
0
0
0
0
0
0
0
0
0
0
0
0
0
0
0
0
0
0
0
0
0
0
0
0
0
0
0
0
0
0
0
0
0
0
0
0
0
0
0
0
0
0
0
0
0
0
0
0
0
0
0
0
0
0
0
0
0
0
0
0
0
0
0
0
0
0
0
0
0
0
0
0
0
0
0
0
0
0
0
0
0
0
0
0
0
0
0
0
0
0
0
0
0
0
0
0
0
0
0
0
0
0
0
0
0
0
0
0
0
0
0
0
0
0
0
0
0
0
0
0
0
0
0
0
0
0
0
0
0
0
0
0
0
0
0
0
0
0
0
0
0
0
0
0
0
0
0
0
0
0
0
0
0
0
0
0
0
0
0
0
0
0
0
0
0
0
0
0
0
0
0
0
0
0
0
0
0
0
0
0
0
0
0
0
0
0
0
0
0
0
0
0
0
0
0
0
0
0
0
0
0
0
0
0
0
0
0
0
0
0
0
0
0
0
0
0
0
0
0
0
0
0
0
0
0
0
0
0
0
0
0
0
0
0
0
0
0
0
0
0
0
0
0
0
0
0
0
0
0
0
0
0
0
0
0
0
0
0
0
0
0
0
0
0
0
0
0
0
0
0
0
0
0
0
0
0
0
0
0
0
0
0
0
0
0
0
0
0
0
0
0
0
0
0
0
0
0
0
0
0
0
0
0
0
0
0
0
0
0
0
0
0
0
0
0
0
0
0
0
0
0
0
0
0
0
0
0
0
0
0
0
0
0
0
0
0
0
0
0
0
0
0
0
0
0
0
0
0
0
0
0
0
0
0
0
0
0
0
0
0
0
0
0
0
0
0
0
0
0
0
0
0
0
0
0
0
0
0
0
0
0
0
0
0
0
0
0
0
0
0
0
0
0
0
0
0
0
0
0
0
0
0
0
0
0
0
0
0
0
0
0
0
0
0
0
0
0
0
0
0
0
0
0
0
0
0
0
0
0
0
0
0
0
0
0
0
0
0
0
0
0
0
0
0
0
0
0
0
0
0
0
0
0
0
0
0
0
0
0
0
0
0
0
0
0
0
0
0
0
0
0
0
0
0
0
0
0
0
0
0
0
0
0
0
0
0
0
0
0
0
0
0
0
0
0
0
0
0
0
0
0
0
0
0
0
0
0
0
0
0
0
0
0
0
0
0
0
0
0
0
0
0
0
0
0
0
0
0
0
0
0
0
0
0
0
0
0
0
0
0
0
0
0
0
0
0
0
0
0
0
0
0
0
0
0
0
0
0
0
0
0
0
0
0
0
0
0
0
0
0
0
0
0
0
0
0
0
0
0
0
0
0
0
0
0
0
0
0
0
0
0
0
0
0
0
0
0
0
0
0
0
0
0
0
0
0
0
0
0
0
0
0
0
0
0
0
0
0
0
0
0
0
0
0
0
0
0
0
0
0
0
0
0
0
0
0
0
0
0
0
0
0
0
0
0
0
0
0
0
0
0
0
0
0
0
0
0
0
0
0
0
0
0
0
0
0
0
0
0
0
0
0
0
0
0
0
0
0
0
0
0
0
0
0
0
0
0
0
0
0
0
0
0
0
0
0
0
0
0
0
0
0
0
0
0
0
0
0
0
0
0
0
0
0
0
0
0
0
0
0
0
0
0
0
0
0
0
0
0
0
0
0
0
0
0
0
0
0
0
0
0
0
0
0
0
0
0
0
0
0
0
0
0
0
0
0
0
0
0
0
0
0
0
0
0
0
0
0
0
0
0
0
0
0
0
0
0
0
0
0
0
0
0
0
0
0
0
0
0
0
0
0
0
0
0
0
0
0
0
0
0
0
0
0
0
0
0
0
0
0
0
0
0
0
0
0
0
0
0
0
0
0
0
0
0
0
0
0
0
0
0
0
0
0
0
0
0
0
0
0
0
0
0
0
0
0
0
0
0
0
0
0
0
0
0
0
0
0
0
0
0
0
0
0
0
0
0
0
0
0
0
0
0
0
0
0
0
0
0
0
0
0
0
0
0
0
0
0
0
0
0
0
0
0
0
0
0
0
0
0
0
0
0
0
0
0
0
0
0
0
0
0
0
0
0
0
0
0
0
0
0
0
0
0
0
0
0
0
0
0
0
0
0
0
0
0
0
0
0
0
0
0
0
0
0
0
0
0
0
0
0
0
0
0
0
0
0
0
0
0
0
0
0
0
0
0
0
0
0
0
0
0
0
0
0
0
0
0
0
0
0
0
0
0
0
0
0
0
0
0
0
0
0
0
0
0
0
0
0
0
0
0
0
0
0
0
0
0
0
0
0
0
0
0
0
0
0
0
0
0
0
0
0
0
0
0
0
0
0
0
0
0
0
0
0
0
0
0
0
0
0
0
0
0
0
0
0
0
0
0
0
0
0
0
0
0
0
0
0
0
0
0
0
0
0
0
0
0
0
0
0
0
0
1030.6
2255.26
1906.46
4304.19
2898.38
1788.87
3537.96
318.844
1169.47
408.466
3107.95
53.4208
3937.24
1166.68
663.186
811.257
1323.48
1750.6
1003.08
3232.14
3514.51
1498.3
945.599
1340.21
1040.1
1738.4
4101.71
4324.35
1652.12
500.099
816.728
1428.79
1843.26
2259.22
906.367
960.364
1869.35
1808.85
2786.8
191.136
3020.29
743.533
1685.66
1681.59
2627.77
3945.94
4071.96
3711.54
4360.52
2900.56
2946.66
3543.63
7325.57
7622.38
9699.82
10067.8
431.79
2095.91
645.318
4885.23
1706.88
6932.57
3574.06
3727.03
3142.06
3618.73
1663.19
3949.84
1783.16
7445.52
4394.37
5516.11
4307.82
12249.7
11741.1
11552.4
10579.7
613.096
2044.66
948.111
7663.61
3922.67
6574.23
4658.68
5115.37
1394.33
3161.24
7990.18
4034.69
868.824
509.221
116.793
5724.94
3789.82
3393.45
353.891
4268.3
3467.01
1654.12
5735.13
4616.07
6868.29
2247.41
7397.33
6682.34
7560.9
7666.75
9630.42
10104.3
10268.2
11416.4
11957
2419.58
390.161
332.589
7022
1459.85
954.336
1042.97
365.294
636.314
1084.65
152.704
234.319
230.232
179.534
4347.4
4745.59
5410.06
846.7
2207.78
1017.94
2850.53
7157.02
9085.26
9952.46
856.794
1324.03
1801.96
2545.03
1101.78
1750.29
740.339
7431.39
899.093
1651.05
786.963
928.292
2638.47
254.978
274.379
3429.13
7087.85
6309.11
1026.21
706.974
793.673
152.843
498.033
342.978
619.197
703.915
745.292
1075.97
367.559
811.89
79.2144
570.992
2847.89
776.011
538.198
150.923
763.102
295.559
414.198
7105.73
3964.94
6932.68
3948.12
7745.13
659.786
1715.23
584.953
109.467
617.275
120.61
385.771
47.0798
315.69
477.999
25.9122
207.416
41.4373
262.511
31.7787
109.089
110.898
361.686
312.553
182.479
32.617
318.053
103.552
943.341
258.136
293.742
237.455
333.716
87.4594
190.993
231.972
43.1589
135.725
38.1672
103.689
21.2687
50.9166
89.5242
25.8687
75.102
5.63755
22.7495
18.1757
14.4693
63.8918
371.576
141.197
409.218
162.855
414.665
394.145
204.452
117.611
149.763
522.726
146.441
433.642
46.5349
71.0293
5.5596
10.9134
92.5603
62.4564
37.158
24.0612
34.8279
23.7839
18.789
10.1966
9.47296
31.2707
8.94356
676.826
258.194
361.735
158.698
139.204
80.5954
93.5563
89.4313
118.263
45.832
68.7064
43.4361
73.2223
21.6723
38.1487
10.3279
23.4474
56.1385
41.8924
56.1807
17.607
19.17
11.3957
2.09336
46.5915
17.6793
10.3909
15.3158
90.755
79.8466
70.6209
9.87621
25.8345
72.503
26.8448
39.4234
61.9082
49.2664
22.1522
19.5255
46.6152
68.0868
40.3732
5.58421
10.7436
42.8493
40.4014
6.41678
14.6488
22.5371
12.3336
0
6.39304
5.67683
0
5.66297
7.06947
46.3785
40.3013
5.83662
7.20288
12.0874
16.9501
0
27.1668
11.8395
6.28267
3.61754
13.9865
25.0847
26.0856
22.4899
20.3661
34.6787
19.123
19.8268
21.4474
4.98509
6.36198
11.4747
0.502537
11.2063
19.1657
11.4894
4.25154
4.50609
4.56201
0
3.10287
20.9553
9.3183
0
0
18.2042
2.42428
0
8.68954
0.431308
21.7516
5.76177
16.6538
28.7927
2.72966
2.55183
18.1824
-1.22512e-12
7.7945
10.1416
30.7536
15.9902
15.154
11.1321
0.770052
7.88534
4.41315
0
0
3.74751
4.45664
0
4.4012
0
0
0
4.82131
0
4.5329
16.5368
11.253
7.51502
8.30479
4.67618
19.5194
6.95325
12.3252
11.4028
27.7425
5.21663
5.97658
1.42339
4.33532
3.27782
0.160731
0
0
3.81527
6.26328
0
0
0
4.34307
0
-1.61114e-13
0
3.8743
9.82593
18.207
8.21307
0
0
4.42616
10.5498
10.8009
16.4848
-6.99077e-13
0
6.30568
5.4169
0
0
3.04897
0
0
3.71307
0
0
0
0
0
0
4.64842
0
2.40345
0
4.27104
21.6303
9.25704
8.36085
0.167467
26.0458
7.67671
12.5035
34.0359
4.92467
22.9875
12.5931
0
0
0
0
0
0
0
0
0
0
0
0
0
0
11.1258
-9.28072e-14
4.24553
10.1845
2.88503
0
-4.24048e-14
12.1211
22.1429
10.2413
8.49177
10.6469
8.10413
3.35131
7.73485
0
0
0
0
1.15135
3.64804
0
0
0
0
0
0
0
3.50593
9.3199
8.0931
12.8815
2.25416
9.15603
22.2621
21.2186
25.7436
16.8063
17.131
20.5421
21.4192
14.5108
0
0
0
-2.15691e-13
0
0
0
3.88962
0
0
0
0
0
0
1.93334
15.5688
15.8438
5.0038
14.2347
17.9702
4.67536
14.0308
24.7504
13.3862
9.92008
3.88315
0
4.83537
0
0
0
0
0
0
0
0
0
0
0
0
0
0
0
0.770239
12.9346
-4.30085e-14
0
8.23077
0
0
0
0
2.84078
0
10.278
5.15634
0
2.01421
0
0
0
0
0
0
0
0
0
0
0
0
1.13993
0
0.110045
7.49225
4.67802
6.72496
3.61467
0
3.22897
0
3.92966
13.2654
1.79172
0
0
0
0
0
0
0
0
0
0
0
0
0
0
0
1.96291
6.81709
0
0
0
6.6735
0
4.35176
0
0
4.03264
4.04422
0
0
0
0
0
0
0
0
0
0
0
0
0
0
0
0
0
4.33959
4.45488
0.297754
6.16557
0
0.463894
0
0
0
0
0
0
0
0
0
0
0
0
0
0
0
0
0
0
0
0
0
0
0
0
0
0
0
0
0
0
0
0
0
0
0
0
0
0
0
0
0
0
0
0
0
0
0
0
0
0
0
0
0
0
0
0
0
0
0
0
0
0
0
0
0
0
0
0
0
0
0
0
0
0
0
0
0
0