/*--------------------------------*- C++ -*----------------------------------*\
| =========                 |                                                 |
| \\      /  F ield         | OpenFOAM: The Open Source CFD Toolbox           |
|  \\    /   O peration     | Version:  5.x                                   |
|   \\  /    A nd           | Web:      www.OpenFOAM.org                      |
|    \\/     M anipulation  |                                                 |
\*---------------------------------------------------------------------------*/
FoamFile
{
    version     2.0;
    format      ascii;
    class       volVectorField;
    location    "7.3";
    object      Us;
}
// * * * * * * * * * * * * * * * * * * * * * * * * * * * * * * * * * * * * * //

dimensions      [0 1 -1 0 0 0 0];

internalField   nonuniform List<vector> 
10571
(
(0.061031 0.028569 -0.127421)
(0.0601719 0.00421096 -0.090011)
(0.176853 0.0934756 0.0950378)
(0.208528 0.126096 0.070156)
(0.108432 0.143264 0.0842748)
(0.208063 -0.0744747 0.0621584)
(0.0249102 0.0749613 0.144761)
(0.0363836 0.141997 0.113794)
(0.022605 -0.118164 0.13794)
(-0.0325369 -0.117676 0.0855207)
(0.0391521 0.0842389 -0.258201)
(0.199509 -0.131432 0.102668)
(0.179559 -0.372226 0.219665)
(0.277377 -0.459428 0.22279)
(-0.0857975 -0.382798 0.0765342)
(0.0631786 -0.208122 0.028152)
(0.187762 -0.0388847 -0.0628471)
(0.119161 -0.299088 0.118817)
(0.140269 -0.341769 0.154286)
(0.0454359 -0.253874 0.120104)
(0.0337723 -0.0903855 -0.0277279)
(0.0909281 -0.123974 -0.254777)
(0.176858 -0.166229 -0.108028)
(0.0730909 -0.0712992 -0.0536341)
(-0.0446323 -0.00583116 -0.180099)
(0.0413618 -0.027069 -0.411909)
(0.0137485 -0.0246872 0.175678)
(0.151729 -0.0864596 0.225757)
(0.0256619 0.0754351 0.150361)
(0.0811169 -0.138684 0.3486)
(0.110457 -0.193576 0.378105)
(-0.00335047 -0.252895 0.304641)
(0.069426 -0.0161157 0.280795)
(-0.0664645 -0.0611584 0.0779964)
(0.00792505 -0.0197244 -0.660982)
(0.152468 0.0638894 0.294823)
(-0.0302188 -0.173473 0.316336)
(-0.0424956 -0.159827 0.309309)
(-0.0381773 0.0658296 -0.041976)
(-0.00137292 -0.0155419 0.0966682)
(0.0590143 0.0223096 -0.567052)
(-0.0315438 0.0249394 -0.0681625)
(0.0773655 -0.0250202 0.242208)
(-0.0152939 -0.0106294 0.119344)
(-0.00686268 0.0334025 -0.0482275)
(0.0719166 0.0668772 -0.625128)
(0.0519514 0.0135903 -0.347484)
(0.113838 -0.0316863 -0.383275)
(0.00931905 0.000770053 -0.123043)
(0.0559518 -0.0401418 -0.38121)
(-0.0120986 -0.111036 0.285698)
(0.071666 -0.184292 0.294299)
(0.0324004 -0.0315394 0.207724)
(-0.0352333 -0.026484 0.316822)
(0.0294581 -0.181652 0.388297)
(0.0658916 -0.269582 0.312345)
(-0.0758744 -0.0401505 0.055745)
(-0.0263746 -0.0754549 -0.117817)
(-0.0396643 0.0241419 -0.573176)
(0.0167212 0.101515 0.134421)
(-0.0405123 -0.0909336 0.18775)
(0.0663778 -0.167764 0.285441)
(-0.00987647 0.0534085 0.0494086)
(-0.0707459 0.128967 -0.163331)
(0.00601169 0.0176475 -0.404929)
(-0.0146623 0.0518452 -0.0191134)
(0.0975018 0.0488735 0.12112)
(0.0229455 0.0819308 0.113884)
(-0.089758 0.14857 -0.118886)
(-0.0354207 0.116764 -0.374555)
(0.0314535 0.0760131 -0.141002)
(0.101997 -0.0693413 -0.190061)
(0.0276993 0.00374458 -0.141429)
(0.0144083 -0.013198 -0.352856)
(0 0 0)
(0.00232214 -0.161996 0.311409)
(-0.046446 -0.0101789 0.0904439)
(-0.0628285 0.0445252 -0.0163022)
(-0.0235086 -0.0175108 0.0084003)
(0.0708531 -0.161378 0.223219)
(-0.0131989 -0.0436682 0.147541)
(-0.0266693 -0.022463 -0.145049)
(-0.0598038 0.00904754 -0.379774)
(-0.087444 0.0954698 0.121571)
(-0.039198 0.0535991 -0.0552425)
(0.0871162 -0.0409886 0.0492435)
(0.133617 -0.0546425 0.126753)
(-0.0221916 0.050178 -0.170905)
(-0.0162764 0.0477039 -0.172281)
(-0.0690951 0.0790799 -0.0174564)
(0.0868438 0.0544625 0.0725783)
(0.143725 0.0481343 0.129094)
(0.00809818 0.0335168 -0.112673)
(-0.0439957 0.0960263 -0.249408)
(0.0284963 0.0905775 -0.0289548)
(0.121887 -0.00692259 -0.0858383)
(0.0236531 0.00491101 -0.158195)
(-0.110492 -0.0121675 -0.257571)
(0.0263835 -0.0978625 0.151342)
(-0.0376832 -0.122255 0.224768)
(-0.0408733 0.0252246 0.0814023)
(-0.075735 -0.0460122 -0.108473)
(0.00413895 0.0605529 -0.123447)
(0.0533058 0.0130965 -0.0460391)
(0.0942253 0.0198731 0.0464885)
(0.0272005 0.0495842 -0.139058)
(-0.14135 -0.0377326 -0.139181)
(-0.141554 0.173672 0.22304)
(0.0150385 0.00922933 -0.113269)
(0.0745062 0.00480033 -0.083984)
(0.145683 0.0430275 -0.051427)
(0.0201082 0.0652866 -0.144866)
(-0.00608652 0.0782076 -0.031741)
(-0.032825 0.0501829 -0.0424318)
(0.0632128 0.0655493 -0.00799537)
(0.134717 0.089633 -0.0238638)
(0.0718511 -0.0465407 -0.0124604)
(-0.0483077 0.0123902 -0.0963459)
(0.00958704 0.091647 0.0195628)
(0.103465 -0.0334783 -0.0124264)
(0.00342097 0.00101057 -0.130008)
(0 0 0)
(-0.0501374 -0.046649 0.0102225)
(0.0598202 -0.0779583 0.124505)
(0.0267811 0.0210895 0.0570009)
(0.000148468 -0.0892417 -0.263563)
(0.0601222 0.0221662 -0.105237)
(0.0400496 0.0847897 -0.0671353)
(0.152041 0.046513 -0.042599)
(0.100251 0.0306908 -0.0804256)
(0.000503655 0.000130004 -7.87338e-05)
(0.000902603 -0.0560344 0.00290456)
(-0.0293447 0.0491008 0.0997446)
(0.183346 0.046362 -0.0976308)
(0.0785515 0.00847195 -0.102495)
(0.154873 0.0409445 -0.0246624)
(0.129498 0.0805725 -0.0357076)
(0.00329783 0.000894906 -9.0952e-06)
(-0.0420956 0.120693 0.15185)
(0.100441 0.0406552 -0.0727799)
(0.0807649 0.0369752 -0.0153869)
(0.133701 -0.0146686 -0.0093304)
(0.118914 -0.163587 0.0688701)
(0.0733221 0.0495304 0.0128642)
(0.0207951 0.0807425 -0.037612)
(0.0895797 -0.0308632 -0.02146)
(-0.0439725 -0.0383592 -0.118505)
(0 0 0)
(-0.166035 0.0377553 -0.0974812)
(0.0101362 -0.0365637 0.0466157)
(0.120521 -0.0279749 0.14238)
(0 0 0)
(0.109266 -0.0576085 -0.111233)
(0.0206879 0.108708 -0.229718)
(0.10444 0.0967051 -0.0665664)
(0.130241 0.17405 -0.0708526)
(-0.0040994 0.000172494 -0.00275221)
(0 0 0)
(-0.0872614 -0.0353393 -0.0152981)
(0.162091 0.0540919 0.0352786)
(0.353038 -0.043977 -0.168394)
(0.120796 0.0440186 -0.0678121)
(0.181428 0.0605974 -0.0230415)
(0.0280332 0.00906495 -0.0375198)
(-0.0220169 0.087426 0.266669)
(0.179861 0.0835165 0.0624394)
(0.170906 0.0428015 -0.0561151)
(0.171691 -0.0223164 -0.00274438)
(0.187962 -0.125078 0.0774198)
(0.0834049 -0.0102094 -0.112013)
(0.113931 0.146961 0.110122)
(0.247508 0.180427 -0.0905257)
(0.0862101 -0.00586984 0.0196802)
(0 0 0)
(0 0 0)
(0 0 0)
(-0.109514 0.060373 0.0185178)
(0.0982781 -0.00959263 0.0852979)
(0 0 0)
(0.0715674 -0.0106509 -0.142346)
(0.0389593 0.124619 -0.414693)
(0.0505499 0.136337 -0.325561)
(0 0 0)
(0 0 0)
(0 0 0)
(-0.0926192 -0.0975815 0.0838827)
(0.167959 0.0145151 0.127538)
(0.232125 -0.00199016 -0.156466)
(-0.0144998 -0.00642004 -0.179613)
(0.09504 -0.0613935 -0.128349)
(0 0 0)
(-0.0805364 -0.0149781 0.124008)
(0.171422 0.106371 0.167652)
(0.302622 0.089775 0.00369233)
(0.0153925 0.148993 -0.355026)
(0.12786 -0.109881 0.178735)
(0 0 0)
(0.137647 0.124344 0.197998)
(0.272521 0.251067 0.0198254)
(0 0 0)
(0 0 0)
(6.46714e-15 4.05478e-16 1.70455e-13)
(0.0329084 0.0219815 -0.413779)
(-2.31441e-14 -1.96851e-15 1.24813e-13)
(0.0241748 0.12538 -0.419531)
(0 0 0)
(0.0204588 0.000101795 -0.08226)
(-0.00259366 0.0992658 -0.437035)
(0.0498693 0.104009 -0.370005)
(0.119089 0.0939413 -0.415527)
(0 0 0)
(-0.223849 -0.0873746 0.177986)
(-0.109181 -0.11512 0.169388)
(0.119859 0.00830019 0.24236)
(0.261498 -0.0210809 0.0942714)
(0.00627893 0.135957 -0.32368)
(-0.0870758 0.0710066 -0.39899)
(0 0 0)
(-0.118354 0.0212667 0.286537)
(0.148699 0.112091 0.263225)
(0.344672 0.0929935 0.121247)
(0 0 0)
(0 0 0)
(0.109938 0.218202 0.26383)
(0.286601 0.237235 0.173042)
(0 0 0)
(0 0 0)
(0 0 0)
(0 0 0)
(0 0 0)
(0 0 0)
(0 0 0)
(0 0 0)
(0.0948834 0.0872558 -0.322811)
(0.0377583 0.12514 -0.317719)
(0 0 0)
(0 0 0)
(0 0 0)
(0 0 0)
(0 0 0)
(-1.91299e-15 -4.27272e-14 1.11105e-13)
(0.0134407 0.136318 -0.281155)
(-0.0766029 0.0374217 0.487895)
(0.0765954 0.114116 0.416257)
(0 0 0)
(0 0 0)
(0 0 0)
(0 0 0)
(0 0 0)
(0 0 0)
(0.055927 0.1262 -0.50638)
(0 0 0)
(0 0 0)
(0 0 0)
(0 0 0)
(0 0 0)
(0 0 0)
(0 0 0)
(-8.28072e-15 -4.66593e-14 1.05161e-13)
(0 0 0)
(0 0 0)
(0 0 0)
(0 0 0)
(0 0 0)
(0 0 0)
(4.73165e-14 -5.26687e-14 5.77037e-14)
(0 0 0)
(0 0 0)
(0 0 0)
(0 0 0)
(0 0 0)
(0 0 0)
(0 0 0)
(0 0 0)
(0 0 0)
(0 0 0)
(0 0 0)
(0 0 0)
(0 0 0)
(0 0 0)
(-0.226588 -0.0517514 -0.243351)
(0 0 0)
(0 0 0)
(0 0 0)
(0 0 0)
(0 0 0)
(0 0 0)
(0 0 0)
(0 0 0)
(0 0 0)
(0 0 0)
(0 0 0)
(0 0 0)
(0 0 0)
(0 0 0)
(0 0 0)
(0 0 0)
(0 0 0)
(0 0 0)
(0 0 0)
(0 0 0)
(0 0 0)
(0 0 0)
(0 0 0)
(0 0 0)
(0 0 0)
(0 0 0)
(0 0 0)
(0 0 0)
(0 0 0)
(0 0 0)
(0 0 0)
(0 0 0)
(0 0 0)
(0 0 0)
(0 0 0)
(0 0 0)
(0 0 0)
(0 0 0)
(0 0 0)
(0 0 0)
(0 0 0)
(0 0 0)
(0 0 0)
(0 0 0)
(0 0 0)
(0 0 0)
(0 0 0)
(0 0 0)
(0 0 0)
(0 0 0)
(0 0 0)
(0 0 0)
(0 0 0)
(0 0 0)
(0 0 0)
(0 0 0)
(0 0 0)
(0 0 0)
(0 0 0)
(0 0 0)
(0 0 0)
(0 0 0)
(0 0 0)
(0 0 0)
(0 0 0)
(0 0 0)
(0 0 0)
(0 0 0)
(0 0 0)
(0 0 0)
(0 0 0)
(0 0 0)
(0 0 0)
(0 0 0)
(0 0 0)
(0 0 0)
(0 0 0)
(0 0 0)
(0 0 0)
(0 0 0)
(0 0 0)
(0 0 0)
(0 0 0)
(0 0 0)
(0 0 0)
(0 0 0)
(0 0 0)
(0 0 0)
(0 0 0)
(0 0 0)
(0 0 0)
(0 0 0)
(0 0 0)
(0 0 0)
(0 0 0)
(0 0 0)
(0 0 0)
(0 0 0)
(0 0 0)
(0 0 0)
(0 0 0)
(0 0 0)
(0 0 0)
(0 0 0)
(0 0 0)
(0 0 0)
(0 0 0)
(0 0 0)
(0 0 0)
(0 0 0)
(0 0 0)
(0 0 0)
(0 0 0)
(0 0 0)
(0 0 0)
(0 0 0)
(0 0 0)
(0 0 0)
(0 0 0)
(0 0 0)
(0 0 0)
(0 0 0)
(0 0 0)
(0 0 0)
(0 0 0)
(0 0 0)
(0 0 0)
(0 0 0)
(0 0 0)
(0 0 0)
(0 0 0)
(0 0 0)
(0 0 0)
(0 0 0)
(0 0 0)
(0 0 0)
(0 0 0)
(0 0 0)
(0 0 0)
(0 0 0)
(0 0 0)
(0 0 0)
(0 0 0)
(0 0 0)
(0 0 0)
(0 0 0)
(0 0 0)
(0 0 0)
(0 0 0)
(0 0 0)
(0 0 0)
(0 0 0)
(0 0 0)
(0 0 0)
(0 0 0)
(0 0 0)
(0 0 0)
(0 0 0)
(0 0 0)
(0 0 0)
(0 0 0)
(0 0 0)
(0 0 0)
(0 0 0)
(0 0 0)
(0 0 0)
(0 0 0)
(0 0 0)
(0 0 0)
(0 0 0)
(0 0 0)
(0 0 0)
(0 0 0)
(0 0 0)
(0 0 0)
(0 0 0)
(0 0 0)
(0 0 0)
(0 0 0)
(0 0 0)
(0 0 0)
(0 0 0)
(0 0 0)
(0 0 0)
(0 0 0)
(0 0 0)
(0 0 0)
(0 0 0)
(0 0 0)
(0 0 0)
(0 0 0)
(0 0 0)
(0 0 0)
(0 0 0)
(0 0 0)
(0 0 0)
(0 0 0)
(0 0 0)
(0 0 0)
(0 0 0)
(0 0 0)
(0 0 0)
(0 0 0)
(0 0 0)
(0 0 0)
(0 0 0)
(0 0 0)
(0 0 0)
(0 0 0)
(0 0 0)
(0 0 0)
(0 0 0)
(0 0 0)
(0 0 0)
(0 0 0)
(0 0 0)
(0 0 0)
(0 0 0)
(0 0 0)
(0 0 0)
(0 0 0)
(0 0 0)
(0 0 0)
(0 0 0)
(0 0 0)
(0 0 0)
(0 0 0)
(0 0 0)
(0 0 0)
(0 0 0)
(0 0 0)
(0 0 0)
(0 0 0)
(0 0 0)
(0 0 0)
(0 0 0)
(0 0 0)
(0 0 0)
(0 0 0)
(0 0 0)
(0 0 0)
(0 0 0)
(0 0 0)
(0 0 0)
(0 0 0)
(0 0 0)
(0 0 0)
(0 0 0)
(0 0 0)
(0 0 0)
(0 0 0)
(0 0 0)
(0 0 0)
(0 0 0)
(0 0 0)
(0 0 0)
(0 0 0)
(0 0 0)
(0 0 0)
(0 0 0)
(0 0 0)
(0 0 0)
(0 0 0)
(0 0 0)
(0 0 0)
(0 0 0)
(0 0 0)
(0 0 0)
(0 0 0)
(0 0 0)
(0 0 0)
(0 0 0)
(0 0 0)
(0 0 0)
(0 0 0)
(0 0 0)
(0 0 0)
(0 0 0)
(0 0 0)
(0 0 0)
(0 0 0)
(0 0 0)
(0 0 0)
(0 0 0)
(0 0 0)
(0 0 0)
(0 0 0)
(0 0 0)
(0 0 0)
(0 0 0)
(0 0 0)
(0 0 0)
(0 0 0)
(0 0 0)
(0 0 0)
(0 0 0)
(0 0 0)
(0 0 0)
(0 0 0)
(0 0 0)
(0 0 0)
(0 0 0)
(0 0 0)
(0 0 0)
(0 0 0)
(0 0 0)
(0 0 0)
(0 0 0)
(0 0 0)
(0 0 0)
(0 0 0)
(0 0 0)
(0 0 0)
(0 0 0)
(0 0 0)
(0 0 0)
(0 0 0)
(0 0 0)
(0 0 0)
(0 0 0)
(0 0 0)
(0 0 0)
(0 0 0)
(0 0 0)
(0 0 0)
(0 0 0)
(0 0 0)
(0 0 0)
(0 0 0)
(0 0 0)
(0 0 0)
(0 0 0)
(0 0 0)
(0 0 0)
(0 0 0)
(0 0 0)
(0 0 0)
(0 0 0)
(0 0 0)
(0 0 0)
(0 0 0)
(0 0 0)
(0 0 0)
(0 0 0)
(0 0 0)
(0 0 0)
(0 0 0)
(0 0 0)
(0 0 0)
(0 0 0)
(0 0 0)
(0 0 0)
(0 0 0)
(0 0 0)
(0 0 0)
(0 0 0)
(0 0 0)
(0 0 0)
(0 0 0)
(0 0 0)
(0 0 0)
(0 0 0)
(0 0 0)
(0 0 0)
(0 0 0)
(0 0 0)
(0 0 0)
(0 0 0)
(0 0 0)
(0 0 0)
(0 0 0)
(0 0 0)
(0 0 0)
(0 0 0)
(0 0 0)
(0 0 0)
(0 0 0)
(0 0 0)
(0 0 0)
(0 0 0)
(0 0 0)
(0 0 0)
(0 0 0)
(0 0 0)
(0 0 0)
(0 0 0)
(0 0 0)
(0 0 0)
(0 0 0)
(0 0 0)
(0 0 0)
(0 0 0)
(0 0 0)
(0 0 0)
(0 0 0)
(0 0 0)
(0 0 0)
(0 0 0)
(0 0 0)
(0 0 0)
(0 0 0)
(0 0 0)
(0 0 0)
(0 0 0)
(0 0 0)
(0 0 0)
(0 0 0)
(0 0 0)
(0 0 0)
(0 0 0)
(0 0 0)
(0 0 0)
(0 0 0)
(0 0 0)
(0 0 0)
(0 0 0)
(0 0 0)
(0 0 0)
(0 0 0)
(0 0 0)
(0 0 0)
(0 0 0)
(0 0 0)
(0 0 0)
(0 0 0)
(0 0 0)
(0 0 0)
(0 0 0)
(0 0 0)
(0 0 0)
(0 0 0)
(0 0 0)
(0 0 0)
(0 0 0)
(0 0 0)
(0 0 0)
(0 0 0)
(0 0 0)
(0 0 0)
(0 0 0)
(0 0 0)
(0 0 0)
(0 0 0)
(0 0 0)
(0 0 0)
(0 0 0)
(0 0 0)
(0 0 0)
(0 0 0)
(0 0 0)
(0 0 0)
(0 0 0)
(0 0 0)
(0 0 0)
(0 0 0)
(0 0 0)
(0 0 0)
(0 0 0)
(0 0 0)
(0 0 0)
(0 0 0)
(0 0 0)
(0 0 0)
(0 0 0)
(0 0 0)
(0 0 0)
(0 0 0)
(0 0 0)
(0 0 0)
(0 0 0)
(0 0 0)
(0 0 0)
(0 0 0)
(0 0 0)
(0 0 0)
(0 0 0)
(0 0 0)
(0 0 0)
(0 0 0)
(0 0 0)
(0 0 0)
(0 0 0)
(0 0 0)
(0 0 0)
(0 0 0)
(0 0 0)
(0 0 0)
(0 0 0)
(0 0 0)
(0 0 0)
(0 0 0)
(0 0 0)
(0 0 0)
(0 0 0)
(0 0 0)
(0 0 0)
(0 0 0)
(0 0 0)
(0 0 0)
(0 0 0)
(0 0 0)
(0 0 0)
(0 0 0)
(0 0 0)
(0 0 0)
(0 0 0)
(0 0 0)
(0 0 0)
(0 0 0)
(0 0 0)
(0 0 0)
(0 0 0)
(0 0 0)
(0 0 0)
(0 0 0)
(0 0 0)
(0 0 0)
(0 0 0)
(0 0 0)
(0 0 0)
(0 0 0)
(0 0 0)
(0 0 0)
(0 0 0)
(0 0 0)
(0 0 0)
(0 0 0)
(0 0 0)
(0 0 0)
(0 0 0)
(0 0 0)
(0 0 0)
(0 0 0)
(0 0 0)
(0 0 0)
(0 0 0)
(0 0 0)
(0 0 0)
(0 0 0)
(0 0 0)
(0 0 0)
(0 0 0)
(0 0 0)
(0 0 0)
(0 0 0)
(0 0 0)
(0 0 0)
(0 0 0)
(0 0 0)
(0 0 0)
(0 0 0)
(0 0 0)
(0 0 0)
(0 0 0)
(0 0 0)
(0 0 0)
(0 0 0)
(0 0 0)
(0 0 0)
(0 0 0)
(0 0 0)
(0 0 0)
(0 0 0)
(0 0 0)
(0 0 0)
(0 0 0)
(0 0 0)
(0 0 0)
(0 0 0)
(0 0 0)
(0 0 0)
(0 0 0)
(0 0 0)
(0 0 0)
(0 0 0)
(0 0 0)
(0 0 0)
(0 0 0)
(0 0 0)
(0 0 0)
(0 0 0)
(0 0 0)
(0 0 0)
(0 0 0)
(0 0 0)
(0 0 0)
(0 0 0)
(0 0 0)
(0 0 0)
(0 0 0)
(0 0 0)
(0 0 0)
(0 0 0)
(0 0 0)
(0 0 0)
(0 0 0)
(0 0 0)
(0 0 0)
(0 0 0)
(0 0 0)
(0 0 0)
(0 0 0)
(0 0 0)
(0 0 0)
(0 0 0)
(0 0 0)
(0 0 0)
(0 0 0)
(0 0 0)
(0 0 0)
(0 0 0)
(0 0 0)
(0 0 0)
(0 0 0)
(0 0 0)
(0 0 0)
(0 0 0)
(0 0 0)
(0 0 0)
(0 0 0)
(0 0 0)
(0 0 0)
(0 0 0)
(0 0 0)
(0 0 0)
(0 0 0)
(0 0 0)
(0 0 0)
(0 0 0)
(0 0 0)
(0 0 0)
(0 0 0)
(0 0 0)
(0 0 0)
(0 0 0)
(0 0 0)
(0 0 0)
(0 0 0)
(0 0 0)
(0 0 0)
(0 0 0)
(0 0 0)
(0 0 0)
(0 0 0)
(0 0 0)
(0 0 0)
(0 0 0)
(0 0 0)
(0 0 0)
(0 0 0)
(0 0 0)
(0 0 0)
(0 0 0)
(0 0 0)
(0 0 0)
(0 0 0)
(0 0 0)
(0 0 0)
(0 0 0)
(0 0 0)
(0 0 0)
(0 0 0)
(0 0 0)
(0 0 0)
(0 0 0)
(0 0 0)
(0 0 0)
(0 0 0)
(0 0 0)
(0 0 0)
(0 0 0)
(0 0 0)
(0 0 0)
(0 0 0)
(0 0 0)
(0 0 0)
(0 0 0)
(0 0 0)
(0 0 0)
(0 0 0)
(0 0 0)
(0 0 0)
(0 0 0)
(0 0 0)
(0 0 0)
(0 0 0)
(0 0 0)
(0 0 0)
(0 0 0)
(0 0 0)
(0 0 0)
(0 0 0)
(0 0 0)
(0 0 0)
(0 0 0)
(0 0 0)
(0 0 0)
(0 0 0)
(0 0 0)
(0 0 0)
(0 0 0)
(0 0 0)
(0 0 0)
(0 0 0)
(0 0 0)
(0 0 0)
(0 0 0)
(0 0 0)
(0 0 0)
(0 0 0)
(0 0 0)
(0 0 0)
(0 0 0)
(0 0 0)
(0 0 0)
(0 0 0)
(0 0 0)
(0 0 0)
(0 0 0)
(0 0 0)
(0 0 0)
(0 0 0)
(0 0 0)
(0 0 0)
(0 0 0)
(0 0 0)
(0 0 0)
(0 0 0)
(0 0 0)
(0 0 0)
(0 0 0)
(0 0 0)
(0 0 0)
(0 0 0)
(0 0 0)
(0 0 0)
(0 0 0)
(0 0 0)
(0 0 0)
(0 0 0)
(0 0 0)
(0 0 0)
(0 0 0)
(0 0 0)
(0 0 0)
(0 0 0)
(0 0 0)
(0 0 0)
(0 0 0)
(0 0 0)
(0 0 0)
(0 0 0)
(0 0 0)
(0 0 0)
(0 0 0)
(0 0 0)
(0 0 0)
(0 0 0)
(0 0 0)
(0 0 0)
(0 0 0)
(0 0 0)
(0 0 0)
(0 0 0)
(0 0 0)
(0 0 0)
(0 0 0)
(0 0 0)
(0 0 0)
(0 0 0)
(0 0 0)
(0 0 0)
(0 0 0)
(0 0 0)
(0 0 0)
(0 0 0)
(0 0 0)
(0 0 0)
(0 0 0)
(0 0 0)
(0 0 0)
(0 0 0)
(0 0 0)
(0 0 0)
(0 0 0)
(0 0 0)
(0 0 0)
(0 0 0)
(0 0 0)
(0 0 0)
(0 0 0)
(0 0 0)
(0 0 0)
(0 0 0)
(0 0 0)
(0 0 0)
(0 0 0)
(0 0 0)
(0 0 0)
(0 0 0)
(0 0 0)
(0 0 0)
(0 0 0)
(0 0 0)
(0 0 0)
(0 0 0)
(0 0 0)
(0 0 0)
(0 0 0)
(0 0 0)
(0 0 0)
(0 0 0)
(0 0 0)
(0 0 0)
(0 0 0)
(0 0 0)
(0 0 0)
(0 0 0)
(0 0 0)
(0 0 0)
(0 0 0)
(0 0 0)
(0 0 0)
(0 0 0)
(0 0 0)
(0 0 0)
(0 0 0)
(0 0 0)
(0 0 0)
(0 0 0)
(0 0 0)
(0 0 0)
(0 0 0)
(0 0 0)
(0 0 0)
(0 0 0)
(0 0 0)
(0 0 0)
(0 0 0)
(0 0 0)
(0 0 0)
(0 0 0)
(0 0 0)
(0 0 0)
(0 0 0)
(0 0 0)
(0 0 0)
(0 0 0)
(0 0 0)
(0 0 0)
(0 0 0)
(0 0 0)
(0 0 0)
(0 0 0)
(0 0 0)
(0 0 0)
(0 0 0)
(0 0 0)
(0 0 0)
(0 0 0)
(0 0 0)
(0 0 0)
(0 0 0)
(0 0 0)
(0 0 0)
(0 0 0)
(0 0 0)
(0 0 0)
(0 0 0)
(0 0 0)
(0 0 0)
(0 0 0)
(0 0 0)
(0 0 0)
(0 0 0)
(0 0 0)
(0 0 0)
(0 0 0)
(0 0 0)
(0 0 0)
(0 0 0)
(0 0 0)
(0 0 0)
(0 0 0)
(0 0 0)
(0 0 0)
(0 0 0)
(0 0 0)
(0 0 0)
(0 0 0)
(0 0 0)
(0 0 0)
(0 0 0)
(0 0 0)
(0 0 0)
(0 0 0)
(0 0 0)
(0 0 0)
(0 0 0)
(0 0 0)
(0 0 0)
(0 0 0)
(0 0 0)
(0 0 0)
(0 0 0)
(0 0 0)
(0 0 0)
(0 0 0)
(0 0 0)
(0 0 0)
(0 0 0)
(0 0 0)
(0 0 0)
(0 0 0)
(0 0 0)
(0 0 0)
(0 0 0)
(0 0 0)
(0 0 0)
(0 0 0)
(0 0 0)
(0 0 0)
(0 0 0)
(0 0 0)
(0 0 0)
(0 0 0)
(0 0 0)
(0 0 0)
(0 0 0)
(0 0 0)
(0 0 0)
(0 0 0)
(0 0 0)
(0 0 0)
(0 0 0)
(0 0 0)
(0 0 0)
(0 0 0)
(0 0 0)
(0 0 0)
(0 0 0)
(0 0 0)
(0 0 0)
(0 0 0)
(0 0 0)
(0 0 0)
(0 0 0)
(0 0 0)
(0 0 0)
(0 0 0)
(0 0 0)
(0 0 0)
(0 0 0)
(0 0 0)
(0 0 0)
(0 0 0)
(0 0 0)
(0 0 0)
(0 0 0)
(0 0 0)
(0 0 0)
(0 0 0)
(0 0 0)
(0 0 0)
(0 0 0)
(0 0 0)
(0 0 0)
(0 0 0)
(0 0 0)
(0 0 0)
(0 0 0)
(0 0 0)
(0 0 0)
(0 0 0)
(0 0 0)
(0 0 0)
(0 0 0)
(0 0 0)
(0 0 0)
(0 0 0)
(0 0 0)
(0 0 0)
(0 0 0)
(0 0 0)
(0 0 0)
(0 0 0)
(0 0 0)
(0 0 0)
(0 0 0)
(0 0 0)
(0 0 0)
(0 0 0)
(0 0 0)
(0 0 0)
(0 0 0)
(0 0 0)
(0 0 0)
(0 0 0)
(0 0 0)
(0 0 0)
(0 0 0)
(0 0 0)
(0 0 0)
(0 0 0)
(0 0 0)
(0 0 0)
(0 0 0)
(0 0 0)
(0 0 0)
(0 0 0)
(0 0 0)
(0 0 0)
(0 0 0)
(0 0 0)
(0 0 0)
(0 0 0)
(0 0 0)
(0 0 0)
(0 0 0)
(0 0 0)
(0 0 0)
(0 0 0)
(0 0 0)
(0 0 0)
(0 0 0)
(0 0 0)
(0 0 0)
(0 0 0)
(0 0 0)
(0 0 0)
(0 0 0)
(0 0 0)
(0 0 0)
(0 0 0)
(0 0 0)
(0 0 0)
(0 0 0)
(0 0 0)
(0 0 0)
(0 0 0)
(0 0 0)
(0 0 0)
(0 0 0)
(0 0 0)
(0 0 0)
(0 0 0)
(0 0 0)
(0 0 0)
(0 0 0)
(0 0 0)
(0 0 0)
(0 0 0)
(0 0 0)
(0 0 0)
(0 0 0)
(0 0 0)
(0 0 0)
(0 0 0)
(0 0 0)
(0 0 0)
(0 0 0)
(0 0 0)
(0 0 0)
(0 0 0)
(0 0 0)
(0 0 0)
(0 0 0)
(0 0 0)
(0 0 0)
(0 0 0)
(0 0 0)
(0 0 0)
(0 0 0)
(0 0 0)
(0 0 0)
(0 0 0)
(0 0 0)
(0 0 0)
(0 0 0)
(0 0 0)
(0 0 0)
(0 0 0)
(0 0 0)
(0 0 0)
(0 0 0)
(0 0 0)
(0 0 0)
(0 0 0)
(0 0 0)
(0 0 0)
(0 0 0)
(0 0 0)
(0 0 0)
(0 0 0)
(0 0 0)
(0 0 0)
(0 0 0)
(0 0 0)
(0 0 0)
(0 0 0)
(0 0 0)
(0 0 0)
(0 0 0)
(0 0 0)
(0 0 0)
(0 0 0)
(0 0 0)
(0 0 0)
(0 0 0)
(0 0 0)
(0 0 0)
(0 0 0)
(0 0 0)
(0 0 0)
(0 0 0)
(0 0 0)
(0 0 0)
(0 0 0)
(0 0 0)
(0 0 0)
(0 0 0)
(0 0 0)
(0 0 0)
(0 0 0)
(0 0 0)
(0 0 0)
(0 0 0)
(0 0 0)
(0 0 0)
(0 0 0)
(0 0 0)
(0 0 0)
(0 0 0)
(0 0 0)
(0 0 0)
(0 0 0)
(0 0 0)
(0 0 0)
(0 0 0)
(0 0 0)
(0 0 0)
(0 0 0)
(0 0 0)
(0 0 0)
(0 0 0)
(0 0 0)
(0 0 0)
(0 0 0)
(0 0 0)
(0 0 0)
(0 0 0)
(0 0 0)
(0 0 0)
(0 0 0)
(0 0 0)
(0 0 0)
(0 0 0)
(0 0 0)
(0 0 0)
(0 0 0)
(0 0 0)
(0 0 0)
(0 0 0)
(0 0 0)
(0 0 0)
(0 0 0)
(0 0 0)
(0 0 0)
(0 0 0)
(0 0 0)
(0 0 0)
(0 0 0)
(0 0 0)
(0 0 0)
(0 0 0)
(0 0 0)
(0 0 0)
(0 0 0)
(0 0 0)
(0 0 0)
(0 0 0)
(0 0 0)
(0 0 0)
(0 0 0)
(0 0 0)
(0 0 0)
(0 0 0)
(0 0 0)
(0 0 0)
(0 0 0)
(0 0 0)
(0 0 0)
(0 0 0)
(0 0 0)
(0 0 0)
(0 0 0)
(0 0 0)
(0 0 0)
(0 0 0)
(0 0 0)
(0 0 0)
(0 0 0)
(0 0 0)
(0 0 0)
(0 0 0)
(0 0 0)
(0 0 0)
(0 0 0)
(0 0 0)
(0 0 0)
(0 0 0)
(0 0 0)
(0 0 0)
(0 0 0)
(0 0 0)
(0 0 0)
(0 0 0)
(0 0 0)
(0 0 0)
(0 0 0)
(0 0 0)
(0 0 0)
(0 0 0)
(0 0 0)
(0 0 0)
(0 0 0)
(0 0 0)
(0 0 0)
(0 0 0)
(0 0 0)
(0 0 0)
(0 0 0)
(0 0 0)
(0 0 0)
(0 0 0)
(0 0 0)
(0 0 0)
(0 0 0)
(0 0 0)
(0 0 0)
(0 0 0)
(0 0 0)
(0 0 0)
(0 0 0)
(0 0 0)
(0 0 0)
(0 0 0)
(0 0 0)
(0 0 0)
(0 0 0)
(0 0 0)
(0 0 0)
(0 0 0)
(0 0 0)
(0 0 0)
(0 0 0)
(0 0 0)
(0 0 0)
(0 0 0)
(0 0 0)
(0 0 0)
(0 0 0)
(0 0 0)
(0 0 0)
(0 0 0)
(0 0 0)
(0 0 0)
(0 0 0)
(0 0 0)
(0 0 0)
(0 0 0)
(0 0 0)
(0 0 0)
(0 0 0)
(0 0 0)
(0 0 0)
(0 0 0)
(0 0 0)
(0 0 0)
(0 0 0)
(0 0 0)
(0 0 0)
(0 0 0)
(0 0 0)
(0 0 0)
(0 0 0)
(0 0 0)
(0 0 0)
(0 0 0)
(0 0 0)
(0 0 0)
(0 0 0)
(0 0 0)
(0 0 0)
(0 0 0)
(0 0 0)
(0 0 0)
(0 0 0)
(0 0 0)
(0 0 0)
(0 0 0)
(0 0 0)
(0 0 0)
(0 0 0)
(0 0 0)
(0 0 0)
(0 0 0)
(0 0 0)
(0 0 0)
(0 0 0)
(0 0 0)
(0 0 0)
(0 0 0)
(0 0 0)
(0 0 0)
(0 0 0)
(0 0 0)
(0 0 0)
(0 0 0)
(0 0 0)
(0 0 0)
(0 0 0)
(0 0 0)
(0 0 0)
(0 0 0)
(0 0 0)
(0 0 0)
(0 0 0)
(0 0 0)
(0 0 0)
(0 0 0)
(0 0 0)
(0 0 0)
(0 0 0)
(0 0 0)
(0 0 0)
(0 0 0)
(0 0 0)
(0 0 0)
(0 0 0)
(0 0 0)
(0 0 0)
(0 0 0)
(0 0 0)
(0 0 0)
(0 0 0)
(0 0 0)
(0 0 0)
(0 0 0)
(0 0 0)
(0 0 0)
(0 0 0)
(0 0 0)
(0 0 0)
(0 0 0)
(0 0 0)
(0 0 0)
(0 0 0)
(0 0 0)
(0 0 0)
(0 0 0)
(0 0 0)
(0 0 0)
(0 0 0)
(0 0 0)
(0 0 0)
(0 0 0)
(0 0 0)
(0 0 0)
(0 0 0)
(0 0 0)
(0 0 0)
(0 0 0)
(0 0 0)
(0 0 0)
(0 0 0)
(0 0 0)
(0 0 0)
(0 0 0)
(0 0 0)
(0 0 0)
(0 0 0)
(0 0 0)
(0 0 0)
(0 0 0)
(0 0 0)
(0 0 0)
(0 0 0)
(0 0 0)
(0 0 0)
(0 0 0)
(0 0 0)
(0 0 0)
(0 0 0)
(0 0 0)
(0 0 0)
(0 0 0)
(0 0 0)
(0 0 0)
(0 0 0)
(0 0 0)
(0 0 0)
(0 0 0)
(0 0 0)
(0 0 0)
(0 0 0)
(0 0 0)
(0 0 0)
(0 0 0)
(0 0 0)
(0 0 0)
(0 0 0)
(0 0 0)
(0 0 0)
(0 0 0)
(0 0 0)
(0 0 0)
(0 0 0)
(0 0 0)
(0 0 0)
(0 0 0)
(0 0 0)
(0 0 0)
(0 0 0)
(0 0 0)
(0 0 0)
(0 0 0)
(0 0 0)
(0 0 0)
(0 0 0)
(0 0 0)
(0 0 0)
(0 0 0)
(0 0 0)
(0 0 0)
(0 0 0)
(0 0 0)
(0 0 0)
(0 0 0)
(0 0 0)
(0 0 0)
(0 0 0)
(0 0 0)
(0 0 0)
(0 0 0)
(0 0 0)
(0 0 0)
(0 0 0)
(0 0 0)
(0 0 0)
(0 0 0)
(0 0 0)
(0 0 0)
(0 0 0)
(0 0 0)
(0 0 0)
(0 0 0)
(0 0 0)
(0 0 0)
(0 0 0)
(0 0 0)
(0 0 0)
(0 0 0)
(0 0 0)
(0 0 0)
(0 0 0)
(0 0 0)
(0 0 0)
(0 0 0)
(0 0 0)
(0 0 0)
(0 0 0)
(0 0 0)
(0 0 0)
(0 0 0)
(0 0 0)
(0 0 0)
(0 0 0)
(0 0 0)
(0 0 0)
(0 0 0)
(0 0 0)
(0 0 0)
(0 0 0)
(0 0 0)
(0 0 0)
(0 0 0)
(0 0 0)
(0 0 0)
(0 0 0)
(0 0 0)
(0 0 0)
(0 0 0)
(0 0 0)
(0 0 0)
(0 0 0)
(0 0 0)
(0 0 0)
(0 0 0)
(0 0 0)
(0 0 0)
(0 0 0)
(0 0 0)
(0 0 0)
(0 0 0)
(0 0 0)
(0 0 0)
(0 0 0)
(0 0 0)
(0 0 0)
(0 0 0)
(0 0 0)
(0 0 0)
(0 0 0)
(0 0 0)
(0 0 0)
(0 0 0)
(0 0 0)
(0 0 0)
(0 0 0)
(0 0 0)
(0 0 0)
(0 0 0)
(0 0 0)
(0 0 0)
(0 0 0)
(0 0 0)
(0 0 0)
(0 0 0)
(0 0 0)
(0 0 0)
(0 0 0)
(0 0 0)
(0 0 0)
(0 0 0)
(0 0 0)
(0 0 0)
(0 0 0)
(0.0682418 0.00810382 -0.0252135)
(0.132756 0.0503543 -0.0787107)
(0.0905777 0.051655 -0.0472493)
(0.127946 0.124627 -0.0300785)
(0.146797 0.0673317 -0.0618115)
(0.174113 0.136361 -0.0222482)
(0.206509 0.135442 -0.011272)
(0.156932 0.0972489 -0.00657021)
(0.0751776 0.0107858 -0.0426489)
(0.0884578 0.025374 -0.0303873)
(0.140533 0.0528734 0.0111759)
(0.158716 0.0595858 -0.00267354)
(0.23748 0.126342 0.0624519)
(0.115029 0.137198 0.0266001)
(0.0737295 0.259215 0.0358498)
(0.148314 0.150906 0.0335819)
(0.0800901 0.207518 0.0150784)
(0.137387 0.252066 0.0300682)
(0.200984 0.21088 0.0156065)
(0.0697244 0.250508 0.0178293)
(0.0133057 0.117654 0.0226393)
(0.158421 0.130119 -0.00326985)
(0.0184594 0.00648884 -0.00467039)
(-0.0320797 -0.0204911 0.0207322)
(-0.000799252 0.00221433 0.0345956)
(0.00761626 0.0492234 0.0138459)
(0.0974715 -1.82776e-05 -0.0393378)
(0.0737829 -0.0379204 -0.112611)
(0.177066 -0.120188 -0.0490797)
(0.223653 -0.0115985 0.024251)
(-0.0174336 0.0881437 0.0115963)
(0.210314 -0.300842 0.0476722)
(-0.103709 0.092657 -0.00530966)
(-0.0348788 0.102679 -0.000786513)
(-0.000975918 0.0794434 -0.00299875)
(-0.0646959 0.0342496 -0.00146346)
(-0.0300975 0.0193937 -0.00423694)
(0.0241251 0.034484 -0.0102032)
(0.0516264 0.0514857 -0.00239751)
(0.0339474 -0.000887233 -0.00553236)
(0.125273 -0.0191368 -0.00226263)
(0.00179604 -0.126069 0.00577627)
(-0.0831232 -0.152526 0.0360639)
(0.0984058 -0.187804 -0.0132825)
(-0.0642546 -0.328353 -0.0205545)
(-0.0367411 -0.0200932 0.0235004)
(0.00513346 -0.216947 0.018149)
(-0.0104486 -0.120793 -0.000286677)
(0.0597079 0.0179646 -0.112836)
(0.148153 -0.0664066 -0.0531393)
(0.0832212 -0.0638287 -0.0351482)
(0.176946 -0.298244 0.0640357)
(0.160855 -0.386678 0.117235)
(0.137811 -0.260399 0.0612375)
(0.153845 -0.346594 0.112418)
(-0.0317094 -0.0297657 0.0282273)
(-0.0133601 -0.0112235 0.00971667)
(0.15884 -0.433252 0.154022)
(0.183072 -0.490991 0.160309)
(0.0493528 0.0115863 0.00988203)
(0.105702 -0.0730348 0.0114087)
(0.219371 -0.511392 0.173128)
(0.198916 -0.512446 0.119313)
(-0.0902519 -0.38401 0.00458118)
(-0.0493657 -0.342204 -0.0314416)
(0.00996881 -0.433155 0.0750764)
(0.0159709 -0.291782 -0.0170072)
(0.0161216 -0.240894 -0.00979385)
(0.00762192 -0.135363 -0.00323115)
(0.0182736 -0.167455 -0.0174259)
(0.0397186 -0.0649793 -0.0474998)
(0.0987237 -0.165697 -0.008267)
(0.138044 -0.29647 0.0765862)
(0.0501666 -0.0989023 -0.0590088)
(0.0849492 -0.206257 -0.0147199)
(0.127855 -0.407186 0.121942)
(0.140415 -0.460802 0.13125)
(0.0658378 -0.331787 0.029175)
(0.117751 -0.373345 0.0384379)
(0.170273 -0.462757 0.144681)
(0.177915 -0.45378 0.137457)
(0.163943 -0.363199 0.0623558)
(0.171959 -0.331135 0.0763247)
(0.104864 -0.369982 0.0895263)
(0.05079 -0.205149 -0.00130788)
(0.136569 -0.226453 0.0474449)
(0.0665834 -0.138703 0.00722434)
(0.0390969 -0.13082 -0.0237849)
(0.0201156 -0.0984526 -0.055199)
(0.029041 -0.159427 -0.0670274)
(0.114514 -0.200526 -0.075327)
(0.111526 -0.0600683 -0.103057)
(0.178918 -0.207585 -0.0437004)
(0.169596 -0.180106 -0.00638039)
(0.175941 -0.0742699 -0.0818503)
(0.12333 -0.125162 -0.00441058)
(0.0768469 -0.0102308 -0.114108)
(0.052924 -0.0177853 -0.192186)
(0.0905647 0.0127087 -0.135437)
(0.150797 0.00215694 -0.128742)
(0.188342 0.0336844 -0.07633)
(-0.00102169 0.00620072 -0.189648)
(0.0572186 -0.0203735 -0.164567)
(0.0780001 -0.0255935 -0.0808608)
(0.1529 0.0683946 -0.0194839)
(0.0900163 0.0789177 0.00390516)
(-0.0467056 -0.00278099 -0.187461)
(0.00915462 -0.00450744 -0.0374805)
(0.00466307 0.0218883 -0.0655183)
(0.0988926 0.0882535 0.0285069)
(0.0475587 0.0571669 0.0162951)
(0.0619875 -0.0355934 -0.139935)
(0.0520305 -0.0411532 -0.239955)
(0.109888 0.0420661 -0.0296829)
(0.128739 0.00975789 -0.0405919)
(0.189073 0.0613289 0.0806758)
(0.0418533 -0.0146531 -0.154026)
(0.057157 0.00257762 -0.0912334)
(0.0835491 -0.0286293 -0.0681241)
(0.114214 -0.025977 0.146487)
(0.0399721 0.068601 0.0239109)
(0.0390111 0.0382198 0.126216)
(0.013284 0.0403924 0.077192)
(0.0672078 0.120786 0.0997085)
(0.00486616 0.0363635 0.0470518)
(0.0777348 0.0565489 0.172255)
(0.00887583 0.0423018 0.103616)
(0.0016145 -0.00256123 0.0298762)
(-0.0216653 -0.0226156 0.041183)
(0.0762318 0.00339712 -0.169541)
(0.0284945 0.0341669 -0.28591)
(0.113015 0.028181 -0.181918)
(0.0593318 0.00842938 -0.292005)
(0.0233746 0.0290519 -0.426028)
(0.0803033 0.0582069 -0.300493)
(0.0389849 -0.238486 0.0544604)
(-0.00252292 -0.236537 0.0405439)
(-0.0475961 -0.0733529 0.12072)
(0.0138953 -0.158579 0.111995)
(-0.00991837 -0.174491 0.08503)
(0.123047 0.0629664 -0.149086)
(0.111458 0.044538 -0.129877)
(0.0453775 0.0571515 -0.435653)
(0.0800276 0.0879472 -0.24741)
(0.0766617 0.0162022 -0.2457)
(0.0379865 -0.233699 0.0498305)
(0.0385605 -0.128801 -0.00926538)
(0.0787376 -0.101932 0.0715615)
(0.0316892 -0.136594 0.0898786)
(0.0374899 -0.0560334 -0.016045)
(0.0728743 0.0220279 -0.169849)
(0.0680366 0.0299786 -0.404756)
(0.169984 -0.196297 0.0779763)
(0.0817121 -0.0380604 -0.198773)
(0.137918 -0.159537 -0.0888334)
(0.188861 0.0366634 -0.197538)
(0.192437 -0.0646524 0.101276)
(0.0890305 0.0160475 -0.47352)
(0.119486 -0.0226143 -0.470179)
(0.0187932 -0.125251 0.0259916)
(0.0361149 -0.14155 0.0353659)
(0.00697153 -0.06904 0.016467)
(-0.00703255 -0.12021 0.122384)
(-0.0277692 0.0104926 0.0117695)
(-0.0328879 -0.0576359 0.0360697)
(-0.0532484 0.033575 -0.0159693)
(0.00497557 -0.00914391 -0.0353333)
(0.0519879 -0.0639513 -0.192284)
(0.0833672 0.00696429 -0.56929)
(0.152116 -0.153435 -0.238291)
(0.16195 -0.0363845 -0.314806)
(0.111398 0.00111731 -0.577164)
(0.128139 0.00352174 -0.517907)
(0.141051 0.00145447 -0.528774)
(0.11081 -0.131868 -0.0521562)
(0.203268 -0.0637616 -0.220251)
(0.0901791 0.00410234 -0.394355)
(0.100249 -0.0143853 -0.31642)
(0.0585782 -0.0293084 -0.585355)
(0.0335823 -0.0630998 -0.190239)
(0.00285308 -0.00329639 -0.339535)
(0.0256747 -0.0135016 -0.328535)
(-0.0117427 0.00212588 -0.20112)
(-0.0413505 -0.000971784 -0.178505)
(-0.0248892 -0.0543292 -0.000920134)
(0.0111053 0.00147943 -0.164401)
(-0.00569463 0.0164029 -0.202635)
(-0.0299739 -0.0251711 0.0156952)
(-0.0278585 -0.0299899 -0.0351941)
(-0.025503 -0.0046176 -0.0958894)
(-0.0202685 -0.000868992 -0.140985)
(-0.00105616 -0.0418563 0.0437492)
(-0.0217044 -0.00359673 -0.0655865)
(-0.016723 0.0167784 0.0585902)
(-0.0145661 0.0048255 0.0398825)
(0.0315649 -0.0354196 -0.484715)
(0.0107554 -0.0108824 -0.494637)
(0.00532015 -0.0409576 -0.159274)
(0.0266241 -0.0909775 -0.00674878)
(0.0486926 -0.124896 0.271682)
(0.0513291 -0.040457 -0.416787)
(0.0230431 -0.0504719 -0.171696)
(0.00461303 -0.0966506 0.0638709)
(0.018381 -0.164934 0.326066)
(-0.0244584 -0.0204179 0.0644374)
(0.113201 0.0715649 0.237665)
(-0.0076051 0.0177338 0.10888)
(0.0149993 0.0100769 0.175308)
(-0.0307607 -0.0741212 0.0860833)
(0.102237 0.0430602 0.273526)
(-0.0507211 -0.0465648 0.0361087)
(-0.0356217 -0.0340971 -0.00350125)
(-0.0526628 -0.0654378 -0.0825593)
(0.0272972 0.00579479 -0.436469)
(0.0237338 -0.0074466 -0.575185)
(0.0228795 0.0333901 -0.424626)
(0.00428317 0.00803852 -0.508182)
(-0.0139335 -0.0191857 -0.601704)
(-0.0179718 0.00948721 -0.445769)
(-0.00949461 -0.0848209 0.11015)
(-0.00944843 -0.0805543 0.0710198)
(-0.0422425 -0.0725321 -0.0507202)
(0.00045388 0.030366 -0.0383169)
(0.00979015 0.0390681 0.0284705)
(0.0185909 0.00608059 -0.529851)
(0.0267953 0.00903894 -0.632003)
(-0.0164958 -0.0255474 -0.638)
(-0.00344256 -0.00428613 -0.541855)
(-0.0033309 0.0237788 -0.64664)
(0.00684616 -0.0550561 0.0867567)
(0.00398216 0.0229033 -0.0115792)
(-0.030193 0.149164 -0.0676477)
(0.00887873 0.0746563 0.0544345)
(-0.0463137 0.220634 -0.0509405)
(0.0223154 0.0232701 -0.731061)
(-0.0027853 0.0120527 -0.716114)
(0.119544 0.0598814 0.0368564)
(0.0563311 0.0465144 -0.730193)
(0.0648549 0.0273326 -0.671221)
(0.0348322 0.0167689 -0.51273)
(0.0362667 -0.00698152 -0.0705839)
(0.0464245 0.0497201 -0.707173)
(0.0534304 0.0502882 -0.597635)
(-0.0324866 0.0751245 -0.0198833)
(-0.0527112 0.0607523 0.0325717)
(-0.0935947 0.111089 -0.0617134)
(-0.0107012 0.0579092 0.111736)
(-0.0561586 0.135196 -0.0385505)
(-0.0157286 0.102798 0.000795959)
(-0.0938262 0.149837 -0.0872926)
(-0.0581414 0.142688 -0.0752042)
(0.0840761 0.0500087 -0.727712)
(0.0770613 0.0606433 -0.685174)
(0.0418118 0.0567384 -0.492294)
(0.0474641 0.0347856 -0.527317)
(0.0118807 0.105654 -0.477502)
(0.00597377 0.0724906 -0.348908)
(0.0130918 -0.0117219 -0.401512)
(0.100427 0.014046 -0.305798)
(0.000553029 0.0146647 -0.488706)
(0.0669525 0.0730366 -0.215747)
(0.112725 0.0485075 -0.17431)
(0.0255284 0.0449514 -0.365433)
(0.125952 -0.0392484 -0.304266)
(0.0447761 -0.0222036 -0.310653)
(0.0450176 -0.0216141 -0.29353)
(0.0359625 0.000430734 -0.156328)
(0.0382629 0.00355116 -0.214612)
(0.00307991 0.00253438 0.0328954)
(0.0519539 0.00237186 -0.159907)
(0.0588945 -0.0128631 -0.228944)
(0.0445485 -0.0244212 0.0163011)
(0.0151633 -0.0630344 0.112568)
(0.00514445 0.000333733 -0.0521424)
(0.0226649 0.00233906 -0.128923)
(0.0113863 -0.0687207 0.158348)
(0.0123791 0.00119 -0.0496798)
(0.0146869 0.0119755 0.0200771)
(0.0211169 0.0158957 -0.0803089)
(0.0088825 -0.00425379 -0.472228)
(-0.016422 0.0117075 -0.46301)
(0.051753 -0.0187805 -0.223765)
(0.0311194 -0.0351798 -0.243482)
(-0.00393107 -0.110932 0.274629)
(0.041837 -0.0363694 -0.363165)
(0.0498467 -0.0164377 -0.222352)
(0.0189448 -0.0137924 -0.296815)
(-0.00819803 -0.0242384 0.120436)
(-0.0470187 -0.0415316 -0.0557758)