/*--------------------------------*- C++ -*----------------------------------*\
| =========                 |                                                 |
| \\      /  F ield         | OpenFOAM: The Open Source CFD Toolbox           |
|  \\    /   O peration     | Version:  5.x                                   |
|   \\  /    A nd           | Web:      www.OpenFOAM.org                      |
|    \\/     M anipulation  |                                                 |
\*---------------------------------------------------------------------------*/
FoamFile
{
    version     2.0;
    format      ascii;
    class       surfaceScalarField;
    location    "3.15";
    object      phi;
}
// * * * * * * * * * * * * * * * * * * * * * * * * * * * * * * * * * * * * * //

dimensions      [0 3 -1 0 0 0 0];

internalField   nonuniform List<scalar> 
29271
(
-5.03943e-06
-9.04484e-08
9.21924e-07
4.32252e-06
-1.30527e-05
6.85355e-06
-3.52121e-06
9.91498e-06
-6.77277e-05
-9.88194e-06
-1.29252e-05
1.04273e-05
1.18294e-05
6.82781e-05
-4.72076e-05
-8.59126e-06
1.55262e-06
-2.98369e-06
2.11104e-05
3.61195e-05
-3.34298e-05
-7.89699e-07
-1.61082e-06
5.28726e-06
2.52375e-05
5.30553e-06
-3.42821e-05
2.89905e-06
-1.05603e-05
1.66157e-05
3.52392e-07
2.49753e-05
-3.92744e-05
6.37967e-06
-1.79926e-05
1.18635e-05
-1.31528e-06
4.03391e-05
-6.19675e-05
-2.3276e-05
-6.0519e-06
-1.26219e-05
9.59124e-06
9.4326e-05
-5.6807e-05
-7.22733e-06
1.90383e-05
-1.51815e-05
1.05856e-05
4.95921e-05
-2.72685e-05
-6.92922e-07
2.37215e-06
1.95402e-05
6.18592e-06
-9.32708e-06
1.16253e-06
9.39634e-07
7.35325e-06
-3.66483e-05
-9.17579e-06
-2.93205e-08
1.5546e-05
-1.23972e-06
3.15472e-05
-6.15269e-05
7.04425e-08
-1.98812e-05
1.1439e-05
-1.13877e-06
7.10375e-05
-5.86089e-05
5.96619e-06
-1.68938e-05
7.21966e-06
-9.45251e-06
7.17694e-05
-6.57524e-05
-4.36238e-06
2.10225e-05
-2.68765e-05
-8.62814e-06
8.4597e-05
-3.6272e-05
-3.37598e-06
-1.40679e-06
4.2054e-06
2.44526e-05
1.23968e-05
-3.03643e-05
-4.76301e-06
1.14252e-05
4.16666e-06
2.11917e-05
-1.65624e-06
-5.83217e-05
-1.69212e-06
-2.15998e-06
6.73173e-06
-1.67189e-07
5.56092e-05
-4.12739e-05
5.23454e-07
-6.4693e-06
-4.46184e-07
-2.65266e-06
5.03186e-05
-3.55409e-05
-5.00906e-06
9.81761e-07
2.65403e-05
8.51323e-06
4.51462e-06
-8.1649e-06
-1.00018e-06
1.90519e-06
7.18087e-06
-2.6756e-05
-1.01432e-06
7.63983e-07
2.47525e-05
2.51772e-06
-5.16785e-05
-4.28245e-06
4.32261e-06
-1.00449e-06
5.28004e-05
-1.57554e-07
-9.80912e-06
-2.65657e-06
2.59285e-06
1.00641e-05
-4.02991e-06
-1.30272e-06
2.57859e-06
2.76446e-06
-9.77769e-06
-1.99285e-06
2.5701e-08
1.18795e-05
7.30125e-06
1.00813e-05
-5.9956e-05
-7.49663e-06
-1.03936e-05
6.04637e-05
2.7464e-06
-2.80106e-05
-6.64883e-06
8.78317e-06
-4.78835e-06
2.79182e-05
-2.77046e-05
-3.39603e-06
-3.12908e-06
4.82849e-06
3.02224e-05
-8.21153e-07
1.30487e-06
-9.58091e-07
-2.02151e-05
-1.41107e-06
2.68571e-06
1.85937e-05
-9.12332e-06
3.00397e-05
0.000145628
-4.83499e-05
-6.79055e-05
-4.77121e-05
-3.00381e-05
-1.00389e-05
-1.19901e-05
-3.02661e-06
-3.64786e-06
4.08085e-06
6.86838e-06
1.13489e-05
3.3867e-05
4.75854e-05
5.65362e-06
0.000248925
-0.000108855
-5.70489e-05
-0.000102342
-0.000105678
2.41356e-06
6.88206e-06
9.3964e-06
4.39439e-05
-1.94683e-06
-8.81713e-06
0.000236297
-5.03461e-07
-6.02525e-07
1.19719e-05
-1.06904e-06
-7.85777e-07
-5.50862e-07
1.8781e-07
-4.44346e-05
-3.36124e-05
-6.61072e-05
-4.24414e-05
-1.67159e-05
-6.89523e-07
2.03209e-06
1.36787e-05
-4.5888e-06
-2.28301e-07
2.22767e-06
2.66978e-06
-5.0456e-06
-3.61272e-05
1.56125e-06
-5.94866e-07
-5.74385e-06
4.59503e-05
-1.65522e-05
3.07274e-05
0.000165999
-6.68632e-05
-2.58184e-05
-5.46105e-05
-3.44606e-05
4.22016e-06
2.31712e-07
2.33662e-05
3.80059e-06
1.35376e-05
5.2409e-05
0.000172247
-7.30687e-05
-0.000113862
-2.48942e-05
-3.72671e-05
2.0674e-06
2.80366e-06
0.000197682
3.7133e-06
8.26296e-06
2.04065e-05
2.83378e-06
5.18645e-06
7.05878e-06
-7.94479e-05
-4.33768e-05
-7.84427e-05
-4.40264e-05
-2.27684e-05
-9.76198e-07
-3.23964e-06
2.97338e-06
2.60782e-05
-1.03927e-05
-1.88089e-06
4.15982e-06
5.03763e-06
2.90871e-06
1.67434e-07
1.57989e-05
5.82849e-06
0.000222208
-1.00383e-05
-7.69864e-06
-6.83574e-06
-8.34951e-06
4.31009e-06
6.60057e-06
4.02011e-06
-5.35316e-05
-6.31125e-05
-4.50442e-05
-3.34283e-05
2.61976e-07
5.53372e-06
0.000264398
2.84364e-06
5.63554e-06
1.31555e-05
6.44796e-06
5.22451e-06
6.15778e-06
-5.95351e-05
-3.84314e-05
-5.9297e-05
-8.4187e-05
-2.43746e-05
7.05837e-07
4.70692e-06
2.20275e-05
-8.60378e-06
-1.54623e-06
-1.08517e-06
1.13011e-05
-2.86938e-05
-6.52966e-06
3.50682e-06
3.74976e-05
-7.01078e-05
1.68373e-07
-6.4655e-06
-4.74439e-06
8.6683e-05
-1.21358e-05
3.86609e-06
-3.69314e-06
1.18947e-05
-1.14918e-06
-8.71685e-07
1.607e-06
3.90941e-07
-2.24362e-05
-1.25625e-05
6.33985e-06
2.86497e-05
7.91029e-06
1.57232e-05
-5.45484e-05
-5.80778e-07
-1.23024e-05
4.37981e-05
-1.44933e-06
-3.68412e-05
-6.05918e-06
9.20516e-06
-8.87257e-06
4.40171e-05
-4.25628e-05
-2.99346e-06
4.0474e-06
-5.0511e-06
6.24735e-05
-1.59136e-05
-4.55769e-06
2.44934e-06
-2.56855e-05
-7.85307e-06
-7.63216e-06
4.32791e-05
2.42975e-06
-3.03033e-06
9.84889e-05
-2.01526e-06
-1.71449e-06
-6.68696e-07
-6.08284e-08
5.82458e-06
2.06635e-05
1.21624e-05
1.35481e-05
5.41705e-05
1.49021e-06
0.000150199
3.4854e-06
2.61879e-05
1.83298e-06
1.39883e-05
2.23619e-06
9.11805e-06
0.000297412
2.62948e-06
-9.62545e-06
1.09288e-07
-1.02028e-05
-6.35174e-09
-2.76618e-07
-9.26065e-07
-1.14741e-05
-2.17433e-06
2.78992e-06
1.31735e-05
-1.68537e-06
-2.80934e-07
6.89185e-07
1.30083e-06
1.25194e-05
-5.68388e-05
8.0045e-06
-1.87661e-05
-3.696e-06
5.87771e-05
1.32179e-05
-6.50937e-06
0.000101229
1.49067e-05
5.58398e-06
1.72716e-05
1.72688e-05
2.72141e-05
-8.83536e-06
0.000168576
1.37258e-06
-5.75975e-06
0.000233134
1.17944e-05
1.23549e-06
6.53343e-06
-1.69712e-06
-6.95953e-06
-5.63934e-06
-3.4043e-05
1.0782e-06
7.05565e-08
1.24598e-06
3.30208e-05
-2.0907e-06
1.56613e-06
-2.55168e-06
-5.54677e-06
1.20024e-06
7.42278e-06
4.34049e-05
-6.77761e-06
0.000255036
-8.06282e-06
-1.51974e-05
-1.22555e-06
-8.44358e-06
-8.58975e-06
-1.7746e-05
-1.66992e-05
1.71893e-05
-9.40038e-06
0.000262128
2.07789e-05
3.19984e-05
2.11959e-05
-1.52767e-05
-1.50198e-05
-1.4626e-05
-3.4297e-05
6.2564e-06
-1.51162e-05
5.45864e-05
-1.97956e-05
-3.43529e-06
-6.27329e-07
2.38528e-05
-4.50116e-05
-8.25861e-06
4.249e-06
4.22744e-05
-9.10738e-05
1.22944e-06
7.12768e-06
-1.59379e-06
7.49101e-05
-6.9115e-06
1.62855e-05
-1.21279e-05
2.72139e-06
-2.34602e-07
1.85609e-07
2.28942e-07
-2.1771e-07
-2.8402e-05
1.83735e-07
7.81897e-06
2.04115e-05
-1.78839e-06
4.55924e-07
-3.78141e-05
6.64127e-07
-1.50335e-06
3.99858e-05
-1.787e-07
-4.41713e-05
3.15844e-06
3.58793e-07
-2.95648e-06
4.37893e-05
-7.84454e-05
6.82694e-07
4.55009e-06
-5.15568e-06
8.72661e-05
-8.8979e-06
-2.73621e-06
3.96318e-07
-6.15865e-05
-5.03951e-06
-5.17123e-06
7.41371e-05
3.96848e-06
-2.79152e-05
0.000106809
2.54773e-06
2.44881e-06
8.99116e-07
2.29982e-06
3.67421e-06
4.1972e-06
-1.95291e-06
1.5122e-06
1.12805e-05
-3.31565e-05
0.000172514
5.10957e-07
7.04755e-07
1.23755e-06
1.07678e-06
-6.02992e-07
-3.09335e-06
0.000327131
-3.80302e-06
-7.22323e-06
-8.19718e-07
-4.86762e-06
-2.56998e-06
2.87517e-06
1.66577e-06
-1.49811e-05
-3.24073e-06
7.98029e-07
1.68336e-05
-3.05485e-06
-9.7128e-07
-2.44553e-06
6.47205e-06
1.03194e-05
-6.85925e-05
7.27934e-06
-1.55394e-05
-1.08456e-05
7.73788e-05
1.15048e-05
-7.97283e-05
9.3282e-05
1.32379e-05
9.1199e-06
1.5203e-05
1.06941e-05
2.46724e-05
-6.88369e-05
0.000191089
1.13159e-06
-1.75943e-05
0.000309941
9.54872e-07
2.31965e-06
5.27257e-07
-1.39677e-05
-1.497e-05
-1.36299e-05
-3.10901e-05
2.88429e-06
3.13067e-06
-3.83096e-06
3.00376e-05
5.49825e-07
1.79387e-06
-8.86227e-06
-2.80736e-06
1.98959e-06
7.33634e-06
5.02891e-05
-1.68784e-05
0.000155522
9.2977e-06
3.11099e-06
1.00583e-05
3.59373e-06
-2.02339e-05
-8.77595e-06
-1.06763e-05
2.99038e-05
-2.55989e-05
0.00019469
2.04416e-05
2.98948e-05
2.22048e-05
-9.56523e-06
-1.1591e-05
-6.80038e-06
-7.72453e-05
1.952e-05
-1.39951e-05
8.40301e-05
-2.7545e-05
2.86358e-06
-5.40985e-06
3.0095e-05
-2.81293e-05
1.63205e-06
-2.42554e-06
1.20542e-05
-5.40312e-05
-1.00885e-06
6.30407e-06
-3.17647e-06
2.63136e-05
-2.47284e-06
7.4e-06
-8.53003e-06
3.53424e-06
6.61783e-07
-1.58476e-07
3.30086e-07
-8.18115e-07
-1.08451e-05
5.47441e-06
4.45363e-07
4.92406e-06
-5.68887e-06
-5.7676e-06
-4.54159e-05
1.2516e-06
3.19055e-06
5.24302e-05
-4.92513e-06
-4.68943e-05
1.1089e-06
-1.61542e-06
6.76078e-07
5.16499e-05
-8.853e-05
1.98734e-06
-9.88987e-07
3.86748e-07
8.32007e-05
3.94421e-06
-7.26906e-07
-2.56827e-06
-8.23914e-05
4.17873e-06
-6.5466e-06
8.80545e-05
-1.03449e-05
-3.21997e-05
0.000148417
1.1693e-07
2.38559e-06
1.32621e-06
4.1708e-06
-3.3549e-06
-3.40434e-07
-3.92902e-06
5.61799e-07
-1.497e-05
-4.92543e-05
0.000204684
4.13994e-06
4.4687e-06
6.72863e-06
6.37211e-06
1.77205e-06
-1.47569e-05
0.000310542
-8.38998e-07
-1.10389e-06
2.78879e-06
2.13859e-06
1.54604e-06
5.11113e-06
4.96206e-06
-2.06965e-05
-1.90896e-07
-6.04663e-07
2.32682e-05
-7.01926e-06
-1.05188e-06
2.09034e-06
5.96463e-06
4.72064e-06
-8.06398e-05
9.7571e-06
-9.73885e-06
-1.67462e-06
7.75755e-05
-9.12622e-06
-3.78932e-05
8.87039e-05
8.8696e-06
4.01841e-06
5.09564e-06
1.41409e-06
6.90995e-06
-4.76698e-05
0.000173468
4.8383e-06
-1.50602e-05
0.000320869
3.61591e-06
7.85593e-06
7.91676e-06
-1.14597e-05
-8.52524e-06
-7.95651e-06
-3.31255e-05
3.52882e-06
2.72257e-06
-8.67893e-06
4.03913e-05
-9.24551e-06
8.27398e-07
-6.05761e-06
-1.64785e-06
1.87461e-05
-2.62251e-06
1.82867e-05
-7.29349e-07
7.09155e-05
6.12338e-06
4.43529e-06
9.02518e-06
1.12704e-05
-1.10158e-06
-3.83383e-08
-5.58359e-07
2.12562e-05
-3.16257e-06
0.000110263
1.40223e-05
1.99672e-05
1.15814e-05
-3.3952e-06
-2.67197e-06
-2.55272e-06
-8.93997e-05
2.06479e-05
-1.07976e-05
8.57454e-05
-3.44021e-05
9.40829e-06
-1.45868e-05
3.95802e-05
-2.86306e-06
2.25189e-06
-1.57677e-06
1.47253e-06
-8.61993e-06
-9.48981e-07
6.56421e-06
-9.89841e-07
8.31964e-07
-6.31628e-06
6.25034e-06
-5.22849e-06
5.29984e-06
3.3964e-07
-4.22566e-07
-4.12183e-07
5.15034e-07
-3.80014e-06
-1.27903e-06
-3.11998e-07
5.36944e-06
-1.842e-06
-5.62618e-06
-5.8849e-05
1.89266e-06
2.26273e-06
6.21618e-05
-2.13668e-06
-5.74784e-05
4.93615e-07
-2.3827e-06
-8.51727e-08
6.15893e-05
-7.48235e-05
4.8752e-06
-3.38803e-06
-7.97547e-08
6.48552e-05
8.56086e-06
6.51273e-06
-3.94533e-07
-9.00804e-05
4.55466e-06
-9.45317e-06
8.88607e-05
-2.01747e-05
-1.71771e-05
0.000186516
2.91033e-07
2.5013e-06
1.65083e-06
5.21841e-06
-4.86414e-06
-1.13987e-06
-4.578e-06
1.73326e-07
-3.26666e-05
-3.68051e-05
0.000228994
6.02209e-06
3.07659e-06
9.55597e-06
6.33203e-06
2.27076e-06
-2.26125e-05
0.000274684
2.11493e-06
5.46741e-06
4.3706e-06
4.54583e-06
2.30281e-06
1.9943e-06
2.73783e-06
-2.73847e-05
2.14324e-06
3.20422e-06
-9.79649e-06
3.41045e-05
-5.07332e-08
-6.63256e-09
3.16721e-08
2.46477e-08
-6.15442e-06
-2.09637e-06
2.6328e-07
7.95054e-06
2.84969e-06
-6.97062e-05
4.12136e-06
-2.89398e-06
4.78627e-06
6.08429e-05
-2.34248e-05
-1.08507e-05
9.70849e-05
2.55413e-06
8.43482e-07
3.56737e-06
1.75241e-06
-1.38898e-05
-1.75867e-05
0.000144715
5.74148e-06
-9.79892e-06
0.000287333
6.61461e-06
6.67038e-06
7.41135e-06
-6.65065e-06
-5.15417e-06
-7.80058e-06
-5.11798e-05
6.19023e-06
6.47662e-06
-4.47936e-06
4.87338e-05
3.35406e-09
-1.64181e-07
-4.68304e-09
-8.11366e-09
1.62961e-07
-3.12103e-05
-3.27176e-06
6.70214e-07
-1.33901e-06
3.89164e-05
-3.7655e-06
-3.68363e-06
-5.64578e-07
6.80652e-05
6.46142e-08
1.78836e-06
-2.04983e-06
-2.02508e-06
-3.92616e-07
2.85328e-07
-1.42285e-06
1.07551e-05
-6.11263e-07
7.15079e-05
2.00659e-06
8.38305e-06
-9.89207e-07
-9.0862e-07
-6.14965e-07
-5.36435e-07
-8.72415e-05
1.44257e-05
-9.38629e-06
8.31583e-05
-5.01563e-05
1.59635e-05
-1.6816e-05
5.10065e-05
-3.86127e-07
1.61987e-06
-2.71202e-06
9.13457e-07
2.35967e-06
4.89993e-07
-1.32933e-07
-2.76905e-07
-3.05109e-06
-1.37525e-06
2.39312e-06
-8.28228e-08
-9.35435e-07
-1.42921e-06
9.70609e-09
-1.89914e-06
3.29967e-06
-8.17142e-06
-1.83715e-06
-1.87077e-06
1.18786e-05
3.43433e-06
-5.49227e-07
-6.31943e-05
1.5171e-06
-1.1242e-06
5.99163e-05
2.55343e-06
-6.64519e-05
1.0938e-06
-3.51615e-06
-2.77058e-06
6.90914e-05
-5.67714e-05
5.16814e-06
-6.87774e-06
-3.13317e-06
5.44871e-05
7.12699e-06
6.87629e-06
2.55245e-06
-8.69423e-05
5.72246e-07
-8.34474e-06
8.5286e-05
-3.88628e-05
3.40668e-06
0.000210475
1.06136e-06
2.76374e-06
1.5751e-06
3.10216e-06
-2.1402e-06
1.343e-06
3.32491e-07
3.45985e-06
-5.21478e-05
-1.91903e-05
0.000233357
7.54044e-06
2.65653e-06
1.08513e-05
7.06373e-06
1.39886e-06
-2.30639e-05
0.000201296
5.49029e-06
9.44548e-06
1.03385e-05
9.41223e-06
2.78759e-06
1.58918e-06
3.84172e-06
-3.56761e-05
7.77493e-06
1.15937e-05
-5.38045e-06
2.30868e-05
-8.32587e-07
1.64187e-06
-5.2185e-06
6.6148e-07
8.26687e-08
3.66507e-06
-1.02769e-05
-1.54189e-06
5.89721e-07
1.12291e-05
3.67132e-06
-5.44933e-05
9.56803e-07
-4.23219e-06
5.59963e-06
4.84977e-05
-3.68459e-05
1.19165e-05
0.000106352
3.74725e-06
3.99455e-06
5.24516e-06
6.08166e-06
-2.74162e-05
9.78971e-06
0.000106305
5.64449e-06
-5.06794e-06
0.000221165
7.98157e-06
6.12395e-06
8.25716e-06
-4.53822e-06
-6.2088e-07
-2.09239e-06
-5.23566e-05
6.2548e-06
6.83599e-06
-9.31279e-06
5.42231e-05
-1.53633e-06
7.9731e-08
-3.22215e-06
-1.71656e-07
4.12355e-07
4.43805e-06
-4.29702e-05
-4.18625e-06
4.2475e-06
3.06295e-06
4.53062e-05
-5.46022e-06
-1.34742e-05
2.2449e-06
8.18815e-05
-1.47318e-06
-5.75521e-07
6.37117e-07
5.70549e-07
3.05157e-06
3.15858e-06
3.96037e-06
2.13869e-06
1.70904e-06
6.92681e-05
-5.80189e-06
1.59961e-06
-6.19857e-06
1.2426e-06
2.30692e-06
1.55888e-06
-8.11015e-05
5.94397e-06
-3.2445e-06
7.54728e-05
-4.3219e-05
-4.12453e-07
-1.04673e-05
8.23084e-06
4.58641e-05
-8.07273e-07
3.72501e-06
-2.60923e-06
-3.08963e-07
-1.72029e-06
-3.7667e-07
-6.23735e-07
4.96531e-06
4.06282e-06
1.56884e-06
-2.30059e-06
6.52887e-07
-2.27492e-06
1.06074e-06
-3.03031e-06
2.11207e-06
-1.49981e-07
-5.80906e-06
7.12058e-07
-2.15104e-06
7.24804e-06
-1.54884e-05
-1.9197e-07
-2.97024e-06
1.86506e-05
3.74132e-06
1.67068e-06
-5.60103e-05
-2.32422e-06
-2.11436e-06
5.50369e-05
6.64246e-06
-7.13323e-05
3.24091e-06
-4.63719e-06
-4.03613e-06
7.01223e-05
-5.71274e-05
7.33968e-06
-3.67589e-06
-7.97113e-06
5.83329e-05
3.1018e-06
5.66868e-06
2.38247e-06
-8.45864e-05
-1.39959e-06
-5.64211e-06
8.3577e-05
-4.02043e-05
8.53071e-06
0.000219128
1.31889e-06
4.93143e-07
2.6693e-06
1.89272e-06
1.71386e-06
4.46172e-06
3.44946e-06
7.02062e-06
-3.05598e-05
-5.2688e-06
0.000214489
5.55827e-06
9.01299e-07
5.56531e-06
2.46742e-06
2.53167e-06
-8.69646e-06
0.000144542
6.27774e-06
5.6064e-06
8.43263e-06
5.5971e-06
4.1539e-06
-2.10249e-07
2.50106e-06
-2.05093e-05
3.37198e-06
2.82113e-06
-5.68949e-06
2.25373e-05
-5.39395e-06
2.46187e-06
-1.24481e-06
-3.63687e-07
-2.52158e-06
7.06215e-06
-1.21674e-05
-1.49782e-06
7.66257e-07
1.2899e-05
2.55541e-06
-4.40422e-05
9.72906e-07
-3.213e-06
3.45503e-06
4.02718e-05
-2.12102e-05
1.23939e-05
0.000106784
4.10822e-06
3.75571e-06
4.65569e-06
4.396e-06
-1.70007e-05
1.11451e-05
8.56816e-05
4.7034e-06
-2.10662e-06
0.000179178
5.90849e-06
3.96239e-06
2.76867e-06
-1.70256e-06
2.01519e-06
7.41633e-07
-5.60049e-05
6.58245e-06
8.69915e-06
-8.66017e-06
5.40869e-05
-6.0979e-06
1.11451e-06
-6.78976e-06
2.01419e-06
6.63792e-07
9.09517e-06
-4.8076e-05
-3.97609e-06
3.63048e-06
3.84799e-06
4.87936e-05
-4.21995e-06
-1.76849e-05
2.9447e-06
9.51047e-05
-4.211e-07
-7.11902e-07
1.38361e-06
2.24992e-07
3.36717e-06
4.8418e-06
5.22635e-06
-3.68915e-06
2.09448e-06
7.33021e-05
-6.43773e-06
-3.34978e-06
-6.22337e-06
1.88403e-06
2.65031e-06
2.49739e-06
-7.30773e-05
-1.67486e-07
1.19221e-06
6.62568e-05
-4.32491e-05
5.20693e-06
-2.14189e-06
3.97593e-06
3.62062e-05
-3.08604e-06
-1.87453e-06
-3.69363e-06
2.61911e-06
6.03546e-06
-8.05936e-06
-2.83785e-06
2.87148e-06
1.09704e-05
-9.20666e-07
6.82801e-07
-3.03282e-06
7.17752e-07
4.64741e-06
3.46892e-07
-2.76354e-06
2.39822e-06
3.98388e-09
-9.76016e-06
-6.25501e-07
-7.58104e-07
1.11438e-05
-2.09995e-05
1.55276e-06
-3.26738e-06
2.27142e-05
2.57668e-06
1.15651e-07
-5.60972e-05
-1.16104e-06
-2.69894e-06
5.72648e-05
3.90006e-06
-6.76615e-05
2.80039e-06
-2.34626e-06
-4.4504e-06
6.77578e-05
-5.79157e-05
6.18098e-06
-7.72867e-08
-7.8445e-06
5.85383e-05
1.11819e-06
4.70321e-06
1.67479e-06
-8.32375e-05
-1.28997e-06
-4.40633e-06
8.25558e-05
-3.29178e-05
7.82758e-06
0.000221767
1.76479e-06
7.85829e-07
1.54873e-06
1.77719e-06
2.63974e-06
5.09713e-06
2.89313e-06
5.94524e-06
-2.40901e-05
-4.13403e-06
0.000196673
3.85212e-06
3.08489e-07
5.78488e-06
3.17728e-06
-4.22729e-06
-1.41351e-05
0.000148168
5.14823e-06
4.07606e-06
5.92859e-06
2.16447e-06
-1.00518e-06
-1.79006e-05
-7.76475e-06
-3.92302e-05
1.23493e-05
-1.07397e-05
-8.7334e-06
4.21267e-05
-5.63281e-06
1.186e-05
-6.27453e-06
-3.87758e-06
3.92446e-06
-1.32542e-05
-1.77852e-06
1.56171e-06
1.3471e-05
1.36465e-06
-3.77107e-05
8.15329e-07
-1.97605e-06
2.20202e-06
3.53047e-05
-1.34607e-05
6.96197e-06
0.000112373
2.00138e-06
2.25143e-06
2.18844e-06
2.29608e-06
-1.93055e-05
1.44427e-06
8.5948e-05
-1.50426e-06
-1.08592e-06
0.000166489
-1.948e-06
-6.61324e-06
-8.18508e-06
-4.42365e-08
5.0573e-07
-1.87697e-06
-5.30325e-05
7.22557e-06
1.67777e-06
-5.83928e-06
4.84642e-05
-1.19426e-05
3.85239e-06
-2.617e-06
3.30902e-06
-4.60112e-06
1.19993e-05
-4.96899e-05
-3.53146e-06
2.35328e-06
3.76542e-06
4.9938e-05
-2.83535e-06
-1.57276e-05
2.96388e-06
0.000104421
3.8942e-07
-7.26174e-07
1.49555e-06
-2.93859e-07
3.19344e-06
3.05242e-06
3.29838e-06
-5.71429e-06
-1.71997e-08
8.02683e-05
-4.8894e-06
-5.94952e-06
-4.93191e-06
1.62876e-07
-1.98468e-07
2.88402e-07
-6.31319e-05
-5.93527e-06
3.87007e-06
5.83969e-05
-2.28982e-05
-1.69218e-06
4.8482e-06
1.97361e-05
-1.53004e-05
-4.32351e-06
4.44298e-06
1.81437e-05
-8.67419e-06
-8.14783e-07
-1.04246e-06
-7.75714e-07
1.12899e-05
-1.80344e-06
-4.27512e-06
1.92824e-06
4.14363e-06
-1.19231e-05
-7.01565e-07
-5.32856e-07
1.31575e-05
-2.4126e-05
2.15251e-06
-3.22644e-06
2.51999e-05
2.26254e-06
-1.17599e-06
-5.80679e-05
6.0643e-07
-1.92506e-06
5.83e-05
2.14984e-06
-6.91946e-05
7.39249e-07
-9.96948e-07
-3.41313e-06
7.07156e-05
-6.10455e-05
3.94421e-06
-2.84242e-06
-5.61314e-06
6.30676e-05
2.48925e-06
3.87299e-06
1.58617e-06
-8.15285e-05
-8.96668e-07
-3.12542e-06
8.00914e-05
-2.40151e-05
7.28796e-06
0.00022439
5.48973e-07
1.46422e-07
3.22562e-07
9.51011e-07
1.74803e-06
3.69108e-06
1.83021e-06
4.86554e-06
-2.81439e-05
-5.17506e-06
0.000192584
3.46352e-06
1.66905e-06
4.69677e-06
3.56381e-06
-1.82807e-05
-1.32796e-05
0.000173363
4.78658e-06
1.98199e-06
6.22908e-06
2.20034e-06
-1.17409e-05
-1.46122e-05
-1.06242e-05
-5.29819e-05
3.90483e-06
-1.5064e-05
4.586e-05
-1.36912e-05
-2.07994e-06
1.95422e-06
1.3817e-05
3.36238e-07
-3.35021e-05
2.48877e-08
-5.97038e-07
1.58964e-06
3.21484e-05
-5.1192e-06
4.14731e-06
0.000119128
-5.83371e-08
1.15354e-07
6.72693e-07
7.74304e-07
-1.51665e-05
-2.93415e-06
9.37544e-05
-7.63974e-06
-1.40835e-06
0.000169885
-7.67709e-06
-5.8021e-06
-5.25959e-06
-1.83659e-06
-3.14445e-07
-1.90412e-06
-6.21397e-05
6.73557e-06
-8.0192e-06
-2.7358e-06
5.85193e-05
-5.00733e-05
-2.8654e-06
1.59247e-06
3.67563e-06
4.98497e-05
-2.17913e-06
-1.05539e-05
2.38269e-06
0.00011048
1.9952e-07
-1.08745e-06
9.34862e-07
-9.1181e-07
2.37005e-06
2.33533e-06
2.41945e-06
-6.08702e-06
-1.15312e-06
9.08507e-05
-4.15695e-06
-4.00374e-06
-3.7533e-06
-8.74939e-07
-1.36178e-06
-2.67959e-06
-5.64653e-05
-6.1791e-06
2.79019e-06
5.23588e-05
-1.41927e-05
3.95273e-06
1.69507e-06
8.53532e-06
-2.08379e-05
-4.83679e-06
5.59053e-06
2.24663e-05
-1.43051e-05
-2.60867e-06
1.14145e-06
-2.22742e-06
1.68466e-05
-6.3192e-06
-2.27749e-06
1.20587e-06
7.38703e-06
-1.46755e-05
5.19037e-07
-1.96338e-06
1.61198e-05
-2.5808e-05
2.30351e-06
-2.49318e-06
2.59977e-05
2.09083e-06
-1.69011e-06
-5.83573e-05
9.13983e-07
-1.20358e-06
5.82461e-05
2.09414e-06
-7.23923e-05
4.31142e-07
-1.31523e-06
-2.7622e-06
7.39445e-05
-6.4734e-05
3.73964e-06
-1.67741e-06
-4.68045e-06
6.59917e-05
1.3605e-06
2.58799e-06
1.45368e-06
-7.84709e-05
-6.36501e-07
-1.54665e-06
7.66124e-05
-1.90447e-05
8.56947e-06
0.000225545
-4.95606e-07
-6.33602e-07
-4.64397e-07
4.35012e-07
1.17099e-06
3.14301e-06
1.58927e-06
4.57581e-06
-2.27793e-05
-4.46232e-06
0.000190131
2.4687e-06
1.25705e-06
3.8939e-06
3.02968e-06
-1.1099e-05
-1.08267e-05
0.000176402
4.02292e-06
1.80487e-06
5.35596e-06
1.63962e-06
-4.64124e-06
-8.83375e-06
-3.2404e-06
-4.1284e-05
3.72273e-06
-1.2041e-05
3.8503e-05
-1.38118e-05
-2.14588e-06
2.25592e-06
1.37017e-05
-1.01001e-06
-3.15932e-05
-6.98013e-07
5.80456e-07
1.28208e-06
3.14387e-05
2.91367e-06
4.0313e-06
0.000123361
-1.06774e-06
-9.60544e-07
-3.0441e-07
-2.75442e-07
-5.57184e-06
-5.01163e-06
0.000102789
3.94357e-07
-1.76952e-06
0.00016409
-2.83651e-06
7.32636e-07
-2.26584e-06
-1.45102e-06
-1.07144e-06
-2.33665e-06
-5.13304e-05
6.25131e-06
4.36206e-06
-5.30806e-06
4.64194e-05
-4.9694e-05
-2.44423e-06
1.1417e-06
3.30095e-06
4.93663e-05
-1.67068e-06
-5.09392e-06
2.23143e-06
0.000112812
-2.0783e-07
-1.27815e-06
4.46319e-07
-1.07164e-06
2.22644e-06
2.17138e-06
2.27547e-06
-4.04588e-06
-1.18821e-06
9.90522e-05
-2.67635e-06
-2.10853e-06
-1.38514e-06
-3.13355e-06
-8.94412e-07
-2.87498e-06
-5.0854e-05
-2.40631e-06
-4.16679e-07
4.78616e-05
-6.78753e-06
2.61086e-06
-1.98867e-06
6.16572e-06
-2.37165e-05
-4.58644e-06
6.07196e-06
2.44625e-05
-1.89912e-05
-4.04956e-06
3.67016e-06
-2.69285e-06
2.08752e-05
-7.30448e-06
8.67598e-07
7.21835e-08
6.36574e-06
-1.73882e-05
1.32261e-06
-2.4682e-06
1.85338e-05
-2.59363e-05
1.99795e-06
-1.82432e-06
2.57627e-05
1.69092e-06
-1.89788e-06
-5.82498e-05
9.98845e-07
-7.88477e-07
5.82464e-05
2.02613e-06
-7.55996e-05
4.72644e-07
-1.39937e-06
-2.26871e-06
7.67689e-05
-6.71011e-05
3.22654e-06
-1.01739e-06
-4.2047e-06
6.79435e-05
1.15311e-06
1.38502e-06
1.22024e-06
-7.49876e-05
-5.54606e-07
-1.98479e-07
7.31355e-05
-1.66401e-05
8.90777e-06
0.000225415
-9.24909e-07
-1.19425e-06
-7.32717e-07
2.04012e-07
1.28053e-06
3.09743e-06
1.58791e-06
4.54408e-06
-1.91946e-05
-3.23376e-06
0.000187058
1.84493e-06
8.76961e-07
3.40433e-06
2.73509e-06
-7.56915e-06
-1.01192e-05
0.0001759
3.44571e-06
1.10207e-06
4.64316e-06
1.00206e-06
-2.58178e-06
-6.31048e-06
-2.30516e-06
-3.73377e-05
3.47496e-06
-1.03701e-05
3.66642e-05
-1.34882e-05
-2.15816e-06
2.42646e-06
1.32199e-05
-2.02072e-06
-3.19056e-05
-1.15412e-06
1.58454e-06
9.55214e-07
3.25407e-05
6.28927e-06
4.58682e-06
0.00012728
-1.81478e-06
-1.7303e-06
-1.18653e-06
-1.15522e-06
-1.19886e-06
-4.39966e-06
0.000111443
1.22536e-06
-3.1808e-06
0.00016254
-8.12097e-07
1.3345e-06
-2.09143e-08
-2.8969e-06
-2.10158e-06
-3.31553e-06
-4.18599e-05
5.1186e-06
4.33402e-06
-3.87377e-06
3.75064e-05
-4.9019e-05
-2.34917e-06
1.17707e-06
2.87082e-06
4.85346e-05
-1.21433e-06
-1.91726e-06
2.25651e-06
0.000113859
-7.39943e-07
-1.3844e-06
-1.40479e-07
-1.28131e-06
2.22036e-06
2.26281e-06
2.26276e-06
-3.39599e-06
-7.78705e-07
0.000106206
-1.57886e-06
-1.85391e-06
-1.30363e-07
-2.84839e-06
-4.34425e-07
-2.44966e-06
-4.78372e-05
-6.3049e-07
-2.55453e-06
4.44454e-05
-6.26403e-06
3.08148e-06
-3.986e-06
7.16937e-06
-2.48768e-05
-4.27525e-06
6.32112e-06
2.50874e-05
-2.27693e-05
-4.94003e-06
5.58405e-06
-2.90716e-06
2.42537e-05
-5.13547e-06
1.88014e-06
-9.95735e-07
4.25106e-06
-1.95807e-05
1.82664e-06
-2.84288e-06
2.0597e-05
-2.55657e-05
1.43086e-06
-1.27229e-06
2.54071e-05
1.08527e-06
-1.74348e-06
-5.85135e-05
7.93093e-07
-5.79931e-07
5.89585e-05
2.11062e-06
-7.8033e-05
7.59142e-07
-1.71211e-06
-1.91628e-06
7.87916e-05
-6.87047e-05
2.67144e-06
-5.75917e-07
-3.56313e-06
6.91634e-05
1.00884e-06
2.20695e-07
1.00322e-06
-7.11609e-05
-2.02651e-07
1.12277e-06
6.90169e-05
-1.47907e-05
8.35123e-06
0.000225533
-1.02211e-06
-1.41615e-06
-7.50621e-07
1.30038e-07
1.11751e-06
2.94535e-06
1.22273e-06
4.09449e-06
-1.70782e-05
-1.84427e-06
0.000184085
1.31181e-06
5.52449e-07
2.96984e-06
2.27162e-06
-5.62232e-06
-1.10865e-05
0.00017649
2.79814e-06
7.17026e-07
3.93575e-06
5.57295e-07
-2.09477e-06
-5.01055e-06
-1.86275e-06
-3.63579e-05
3.39824e-06
-8.75121e-06
3.60878e-05
-1.2913e-05
-2.22396e-06
2.57366e-06
1.25633e-05
-2.54526e-06
-3.34354e-05
-1.74507e-06
2.34914e-06
1.19846e-06
3.41781e-05
7.24782e-06
4.83001e-06
0.000131944
-2.38204e-06
-2.43342e-06
-1.67717e-06
-1.89793e-06
9.70006e-07
-2.98464e-06
0.000118861
1.54945e-06
-3.63417e-06
0.00015865
1.1179e-06
1.38164e-06
1.39334e-06
-2.82998e-06
-2.51293e-06
-2.69196e-06
-3.40311e-05
4.54179e-06
3.96771e-06
-4.48684e-06
3.15579e-05
-4.81048e-05
-2.59447e-06
1.58957e-06
2.63891e-06
4.76424e-05
-1.17159e-06
1.35265e-06
2.37513e-06
0.000113524
-1.30896e-06
-1.56955e-06
-8.00596e-07
-1.53542e-06
2.11518e-06
2.39838e-06
2.13812e-06
-2.46677e-06
-4.77031e-07
0.000107486
1.6356e-06
-1.0732e-06
2.55674e-06
-1.39752e-06
-6.3362e-07
-1.05682e-06
-4.32788e-05
5.05726e-07
-3.01483e-06
3.96869e-05
-7.82766e-06
4.26112e-06
-4.43655e-06
8.00309e-06
-2.51356e-05
-4.01899e-06
6.42076e-06
2.51089e-05
-2.50582e-05
-5.48233e-06
7.57748e-06
-3.05416e-06
2.55402e-05
-3.96357e-06
4.73255e-06
-5.14224e-06
4.37326e-06
-2.15468e-05
2.251e-06
-3.12181e-06
2.24176e-05
-2.53444e-05
7.38077e-07
-7.75896e-07
2.53822e-05
5.9246e-07
-1.16563e-06
-5.96878e-05
3.43101e-07
-5.67556e-07
6.04854e-05
2.25662e-06
-7.96402e-05
1.3129e-06
-2.12096e-06
-1.81101e-06
8.00027e-05
-6.94392e-05
2.16378e-06
3.92161e-09
-2.98232e-06
6.91817e-05
1.07215e-06
-4.80589e-07
8.54862e-07
-6.68473e-05
2.46818e-07
1.85375e-06
6.43724e-05
-1.23929e-05
7.63125e-06
0.000227052
-1.00012e-06
-1.44192e-06
-9.41368e-07
2.17969e-07
5.08484e-07
2.21844e-06
4.8369e-07
3.19819e-06
-1.62824e-05
-1.81491e-06
0.000183534
1.05601e-06
3.24555e-07
2.79495e-06
2.07976e-06
-4.80548e-06
-1.13053e-05
0.00017751
2.30698e-06
3.32757e-07
3.35177e-06
4.19755e-07
-1.72032e-06
-4.48113e-06
-1.40092e-06
-3.60782e-05
3.07199e-06
-7.63767e-06
3.58384e-05
-1.21625e-05
-2.38195e-06
2.78536e-06
1.17591e-05
-2.79043e-06
-3.48326e-05
-2.2014e-06
2.87398e-06
1.67675e-06
3.52737e-05
7.69788e-06
4.75516e-06
0.000137338
-2.70323e-06
-3.16909e-06
-1.65989e-06
-2.68444e-06
2.2401e-06
-2.96908e-06
0.000125473
1.36623e-06
-3.75145e-06
0.000154955
1.75549e-06
1.32417e-06
1.66699e-06
-2.56683e-06
-2.50465e-06
-2.65928e-06
-3.00345e-05
4.21368e-06
3.21563e-06
-5.15864e-06
2.91301e-05
-4.72546e-05
-3.07268e-06
2.26932e-06
2.71176e-06
4.67639e-05
-1.41773e-06
2.91894e-06
2.42219e-06
0.000113555
-1.9397e-06
-1.81154e-06
-1.55611e-06
-1.86852e-06
2.00901e-06
2.41543e-06
2.13532e-06
-1.70659e-06
-8.92896e-07
0.00010717
2.92169e-06
-3.40152e-07
3.02241e-06
-8.32545e-07
-9.29806e-07
-9.76194e-07
-3.85089e-05
9.31555e-07
-3.00556e-06
3.51248e-05
-7.85471e-06
4.13509e-06
-3.76582e-06
7.48733e-06
-2.49924e-05
-3.75715e-06
6.31673e-06
2.4855e-05
-2.57841e-05
-5.46479e-06
7.55819e-06
-3.09671e-06
2.58945e-05
-4.87983e-06
5.18964e-06
-6.0375e-06
5.72769e-06
-2.31512e-05
2.49797e-06
-3.09265e-06
2.37459e-05
-2.54298e-05
-7.84785e-08
1.01883e-07
2.54064e-05
7.95309e-08
-5.9678e-07
-6.12933e-05
-2.79389e-07
6.9211e-09
6.2083e-05
2.30006e-06
-8.04788e-05
1.97264e-06
-2.41045e-06
-1.93819e-06
8.05548e-05
-6.85811e-05
1.95677e-06
1.91867e-07
-2.24084e-06
6.72395e-05
1.43381e-06
-1.08911e-06
8.67516e-07
-6.15667e-05
6.18255e-07
2.74523e-06
5.84249e-05
-1.06027e-05
7.07396e-06
0.000231337
-1.25983e-06
-1.28003e-06
-1.32722e-06
3.98856e-07
-2.00896e-07
1.279e-06
-4.33318e-07
2.06703e-06
-1.62836e-05
-2.59633e-06
0.000185348
1.05264e-06
3.99483e-07
2.86158e-06
2.14931e-06
-4.27318e-06
-1.14176e-05
0.000178069
1.69779e-06
4.50796e-07
2.6727e-06
6.32724e-07
-1.38843e-06
-4.12288e-06
-1.09421e-06
-3.55941e-05
3.09396e-06
-7.12223e-06
3.53492e-05
-1.14013e-05
-2.64752e-06
2.92615e-06
1.11227e-05
-2.51992e-06
-3.58679e-05
-3.02231e-06
2.45087e-06
2.38953e-06
3.65698e-05
7.81558e-06
4.48451e-06
0.000143092
-2.45143e-06
-4.01965e-06
-1.1623e-06
-3.34684e-06
2.78841e-06
-3.31376e-06
0.000131218
1.24554e-06
-3.49549e-06
0.000151337
1.73995e-06
1.32871e-06
1.69309e-06
-2.60388e-06
-2.23682e-06
-2.683e-06
-2.86867e-05
4.21965e-06
2.84434e-06
-5.54805e-06
2.84163e-05
-4.6205e-05
-3.77669e-06
3.3832e-06
3.11313e-06
4.54102e-05
-1.92477e-06
4.35629e-06
2.40893e-06
0.000115086
-2.94352e-06
-2.29317e-06
-2.72236e-06
-2.46943e-06
2.02909e-06
2.44403e-06
2.14329e-06
-9.83889e-07
-1.00933e-06
0.000106703
3.13439e-06
5.68197e-08
3.15295e-06
-9.03535e-07
-9.05946e-07
-1.0314e-06
-3.42269e-05
1.38041e-06
-2.97635e-06
3.13434e-05
-6.85637e-06
3.85337e-06
-3.41936e-06
6.42236e-06
-2.47019e-05
-3.558e-06
6.11504e-06
2.45538e-05
-2.60221e-05
-5.17908e-06
7.17926e-06
-3.05996e-06
2.60726e-05
-6.2503e-06
5.302e-06
-5.88459e-06
6.83289e-06
-2.41839e-05
2.62354e-06
-2.94267e-06
2.45031e-05
-2.53039e-05
-1.04887e-06
1.18705e-06
2.51657e-05
-5.88671e-07
3.86344e-07
-6.30372e-05
-1.44395e-06
7.11462e-07
6.39721e-05
2.36133e-06
-8.07712e-05
2.58116e-06
-2.71751e-06
-2.14279e-06
8.06891e-05
-6.56281e-05
1.92037e-06
-3.95139e-07
-1.78783e-06
6.38713e-05
2.01934e-06
-1.83513e-06
1.0757e-06
-5.5046e-05
8.10395e-07
3.29071e-06
5.17043e-05
-9.20303e-06
8.57759e-06
0.000236296
-1.84202e-06
-1.21043e-06
-1.94764e-06
4.92126e-07
-9.08707e-07
2.51537e-07
-5.26795e-07
1.3579e-06
-1.58779e-05
-2.64451e-06
0.000188074
1.08274e-06
4.90013e-07
2.84276e-06
2.17795e-06
-3.89775e-06
-1.21256e-05
0.000178642
1.22143e-06
7.88528e-07
2.53882e-06
1.00617e-06
-1.12643e-06
-3.82401e-06
-1.03224e-06
-3.50778e-05
3.01216e-06
-6.59624e-06
3.47641e-05
-1.09724e-05
-2.77797e-06
2.81248e-06
1.09379e-05
-1.57136e-06
-3.73893e-05
-3.86316e-06
1.42993e-06
3.3498e-06
3.80441e-05
7.69314e-06
5.77436e-06
0.000148815
-2.03133e-06
-4.42452e-06
-6.56232e-07
-3.50064e-06
3.46452e-06
-3.11383e-06
0.000135916
1.42139e-06
-3.1715e-06
0.000146835
1.85174e-06
1.4737e-06
1.75625e-06
-2.74886e-06
-1.92566e-06
-2.81591e-06
-2.84668e-05
4.15606e-06
2.68568e-06
-5.553e-06
2.85995e-05
-4.4496e-05
-4.33264e-06
4.41327e-06
3.68023e-06
4.3407e-05
-2.67177e-06
6.42217e-06
2.53122e-06
0.000118878
-4.1409e-06
-3.06162e-06
-3.53808e-06
-3.19923e-06
2.14473e-06
2.55426e-06
2.26968e-06
-3.61163e-07
-9.47154e-07
0.000106623
3.37398e-06