/*--------------------------------*- C++ -*----------------------------------*\
| =========                 |                                                 |
| \\      /  F ield         | OpenFOAM: The Open Source CFD Toolbox           |
|  \\    /   O peration     | Version:  5.x                                   |
|   \\  /    A nd           | Web:      www.OpenFOAM.org                      |
|    \\/     M anipulation  |                                                 |
\*---------------------------------------------------------------------------*/
FoamFile
{
    version     2.0;
    format      ascii;
    class       volVectorField;
    location    "3.15";
    object      Us;
}
// * * * * * * * * * * * * * * * * * * * * * * * * * * * * * * * * * * * * * //

dimensions      [0 1 -1 0 0 0 0];

internalField   nonuniform List<vector> 
10571
(
(0.00667162 0.0234764 -0.0195141)
(0.0702156 -0.0258934 0.0151626)
(-0.00494864 0.16066 0.123083)
(-0.255344 0.0700964 0.206859)
(-0.113694 0.0685162 -0.0376055)
(0.213331 -0.00631669 0.0605501)
(0.221864 0.0743639 0.194542)
(-0.358313 0.093942 0.161227)
(-0.200178 0.1265 0.127957)
(-0.023993 0.0978964 0.00811141)
(0.0370186 0.0385469 -0.0312726)
(0.302914 0.0149123 0.108199)
(0.511888 0.108476 0.28002)
(-0.100794 0.147111 0.168244)
(-0.272842 0.271024 0.191199)
(-0.0198447 0.294822 0.0691614)
(0.217791 0.05632 -0.122074)
(0.422898 -0.0275813 0.219708)
(0.214497 -0.102059 0.244913)
(-0.0812919 0.12291 0.212818)
(-0.0905717 0.182878 0.118618)
(0.129901 -0.0348183 0.0367084)
(0.00132137 -0.000668597 0.105915)
(-0.035073 -0.0127204 -0.0774545)
(0.137496 0.0184896 -0.286945)
(0.00488391 0.0260878 -0.0769017)
(0.0298244 0.0332236 0.409341)
(-0.0878039 0.0659073 0.397126)
(-0.0187495 0.16242 -0.238002)
(0.0695967 0.00678323 0.0298802)
(-0.058262 0.178038 0.445248)
(-0.128625 0.0782139 0.435991)
(-0.104198 0.115492 0.19663)
(-0.0521126 0.0777649 -0.14317)
(0.015549 0.00659168 -0.16579)
(0.106614 -0.0732396 0.0526638)
(0.167288 0.190565 0.385405)
(0.100638 0.143403 0.355898)
(0.0455735 0.102523 0.311008)
(-0.0875861 0.0871419 -0.0466557)
(0.0494871 0.0101777 -0.359855)
(0.226145 0.136659 0.275996)
(0.136632 0.0471795 0.392974)
(-0.0201433 0.247061 0.457767)
(-0.0549235 0.0738865 0.164308)
(0.0598482 0.0598641 -0.0541558)
(0.1252 -0.0141748 -0.17123)
(0.0960179 -0.0322659 -0.213021)
(0.111993 0.00810709 -0.511732)
(0.000599939 -0.00977683 -0.445751)
(0.0227037 -0.123742 0.518783)
(0.113751 -0.0558014 0.365943)
(0.140877 0.0923634 -0.474377)
(-0.0942188 -0.153498 -0.0530252)
(0.0584957 0.0187994 0.309721)
(0.21305 -0.0473323 0.401082)
(0.126435 -0.0807447 0.298413)
(-0.0277423 0.0699653 -0.344432)
(0.019512 0.0995823 -0.45788)
(-0.156511 -0.0993893 -0.138583)
(0.102895 -0.0253493 0.0726317)
(0.216486 0.00647651 0.259288)
(0.142088 -0.0702413 0.321343)
(-0.00721839 -0.0398267 -0.320973)
(-0.0503589 -0.0717019 -0.386226)
(0.216765 0.107018 0.113694)
(0.203832 0.039182 0.241)
(0.102345 0.0346715 0.340034)
(0.0890918 -0.127912 -0.320593)
(0.0229075 -0.0582238 -0.319405)
(0.153206 0.0286482 -0.103832)
(0.181726 -0.0961878 -0.307788)
(0.105922 0.00314966 -0.483625)
(0.0418025 -0.0248492 -0.457317)
(0.0307207 -0.128584 0.186361)
(0.161005 -0.102052 0.115053)
(0.133554 0.0811537 -0.388609)
(-0.0806199 -0.110245 -0.0104335)
(0.0625236 -0.164764 0.0818827)
(0.242243 -0.118323 0.26497)
(0.332259 -0.0806819 0.258055)
(-0.00044511 0.0651571 -0.354266)
(0.0137123 0.108334 -0.412101)
(-0.111165 0.035132 -0.246542)
(-0.000339891 -0.128 -0.169756)
(-0.00484943 -0.110362 0.147702)
(0.00524094 -0.0647081 0.115744)
(0.0181526 -0.0442292 -0.254103)
(-0.0971525 -0.0414534 -0.405536)
(0.0242266 -0.12087 -0.0505137)
(0.144546 -0.0739469 0.158008)
(0.133161 -0.0501617 0.19313)
(0.0734084 -0.147763 -0.225566)
(-0.0715571 -0.0313795 -0.276247)
(0.113303 -0.060584 -0.243238)
(0.135164 -0.0590357 -0.313626)
(0.102818 0.0204709 -0.395321)
(0.0195314 -0.0208699 -0.395709)
(-0.00400675 0.0129787 0.202792)
(0.128054 -0.106898 0.141267)
(0.0939241 0.0805674 -0.327563)
(-0.115396 0.0713082 0.028029)
(0.0405838 -0.097485 -0.0201863)
(0.126153 -0.0980895 0.155443)
(0.209276 -0.0228045 0.300314)
(0.00672229 0.0570198 -0.273536)
(-0.00430747 0.104784 -0.331427)
(-0.0680539 0.092089 -0.264022)
(-0.0161148 -0.0716548 -0.173207)
(-0.0241707 -0.084196 0.091988)
(0.0508952 -0.0440706 0.182003)
(0.0016789 -0.0611691 -0.200439)
(-0.107828 0.0789448 -0.404466)
(-0.0214324 -0.0459126 -0.180813)
(0.0762031 -0.0574355 0.0307668)
(0.142193 -0.0821972 0.206928)
(0.0985879 -0.166099 -0.142404)
(-0.0665322 -0.0261154 -0.329355)
(0.0756044 -0.0257302 -0.305972)
(0.0196245 -0.0197466 -0.393356)
(0.097731 0.0488918 -0.259612)
(-0.036439 -0.0269764 -0.298977)
(-0.0217668 -0.0936107 0.209636)
(0.124462 -0.147873 0.290353)
(0.0549759 0.0808925 -0.233498)
(-0.0738503 0.00781795 -0.101547)
(0.00362315 -0.0171789 0.0524661)
(0.098787 -0.0238869 0.255084)
(0.102606 0.00415286 0.391565)
(0.0199463 0.071117 -0.166776)
(-0.00582285 0.00688596 -0.00445598)
(-0.0832328 0.140448 -0.26394)
(-0.0632337 0.12789 -0.249402)
(-0.00297267 0.102772 -0.255296)
(-0.0449738 -0.031063 0.0742246)
(0.0754174 -0.0191284 0.258783)
(0.066735 -0.0244306 0.0334332)
(-0.00767701 -0.000947117 -0.0024193)
(-0.1061 0.153865 -0.325659)
(-0.00250379 0.00222905 -0.226073)
(0.0743537 0.0148412 -0.0961229)
(0.125152 -0.0510516 0.257697)
(0.0934084 -0.151072 -0.121154)
(-0.105444 -0.0334662 -0.414694)
(0.00388006 -0.0141963 -0.345476)
(0.0304981 -0.0173544 -0.380653)
(0.0869149 -0.0576202 -0.168067)
(-0.0584602 -0.0595769 -0.207607)
(0.00136952 -0.0803565 -0.0772355)
(0.100943 -0.126703 0.197916)
(0.0192598 0.100925 -0.119621)
(-0.0728392 0.0220558 -0.0485542)
(-0.008649 0.0881235 -0.0714752)
(0.0749585 0.0196671 0.183751)
(0.15598 -0.0306083 0.153808)
(0.233369 -0.0650701 -0.0745877)
(0.15419 0.0245531 -0.0954123)
(0 0 0)
(-0.0808329 0.140814 -0.172202)
(0.00569411 0.151194 -0.177225)
(0.021105 0.0799984 -0.0486209)
(0.0729226 0.0128454 0.131018)
(0.149979 -0.0270879 0.159276)
(0.129284 0.00271954 -0.118732)
(-0.207817 0.00336905 -0.270481)
(-0.0369076 0.113398 -0.299731)
(0.019504 0.0961466 -0.140762)
(0.0757857 -0.0278151 0.126611)
(0.0917772 -0.126349 -0.148207)
(0.245222 0.141529 -0.308382)
(-0.051604 0.0120271 -0.493802)
(-0.0382668 0.0107824 -0.416822)
(0.00114322 0.0068688 -0.338383)
(0 0 0)
(0 0 0)
(0.00164055 -0.0748395 -0.0363811)
(0.0813144 -0.0690809 0.0828979)
(0.019626 0.0847457 0.0142585)
(-0.123635 0.0731404 0.129993)
(0.0210572 0.0800548 -0.0618178)
(0.0999898 0.0594998 -0.007551)
(0.17344 -0.0218357 -0.0221698)
(0.221018 -0.0616537 -0.0673036)
(0.255111 -0.0845589 -0.170246)
(0 0 0)
(0 0 0)
(0.0305966 0.134559 -0.131301)
(0.0911269 0.109972 -0.103454)
(0.10916 0.036786 -0.00282945)
(0.198382 0.00701453 0.127241)
(0.234193 -0.0385201 -0.169413)
(0 0 0)
(-0.0778169 0.0298578 -0.264952)
(-0.0160646 0.0721949 -0.17501)
(0.0749202 0.0939094 0.105149)
(0.0737801 -0.0588163 -0.080141)
(0.168645 -0.0247921 -0.247233)
(-0.130689 0.0714767 -0.353691)
(-0.0435319 0.0200503 -0.381201)
(-0.0109488 0.0164588 -0.301789)
(0 0 0)
(0 0 0)
(0 0 0)
(0.106828 -0.0764986 0.158944)
(0.215938 -0.106634 0.178395)
(4.94885e-14 5.51383e-15 -8.57352e-14)
(0.0423771 0.0215844 -0.214194)
(0.12616 0.0463225 0.00416469)
(0.079296 -0.0686538 -0.0273463)
(0.071542 -0.113468 -0.0263266)
(0.138785 -0.156279 -0.0998543)
(0 0 0)
(0 0 0)
(-0.0939217 -0.0471743 -0.237766)
(0.063632 0.0294324 -0.068909)
(0.0533376 -0.022541 -0.00146267)
(0.104735 -0.0393777 0.00385017)
(0.201993 -0.0796355 -0.0971533)
(0 0 0)
(-0.106542 0.000182971 -0.228163)
(-0.048907 -0.016848 -0.205419)
(0.0337412 0.0518533 0.117688)
(0.0373267 -0.0327717 -0.0191538)
(-0.0558633 0.102931 -0.42266)
(-0.075759 0.092861 -0.303322)
(-0.0439685 0.0390705 -0.177119)
(0 0 0)
(0 0 0)
(0 0 0)
(0 0 0)
(0 0 0)
(0 0 0)
(-0.000611896 0.181825 0.28098)
(-0.133699 -0.196113 -0.146481)
(-0.013135 -0.0864 -0.144097)
(0.0328107 -0.133963 -0.261466)
(0 0 0)
(-0.0139239 0.053973 -0.590679)
(-2.65873e-14 -2.56912e-14 1.71064e-13)
(-0.0211696 -0.0684893 -0.204849)
(-0.0233211 -0.0847016 -0.0431967)
(0.0232311 -0.127043 0.0127146)
(0 0 0)
(-0.0217283 0.0201526 -0.303099)
(-0.0545735 -0.0412371 -0.280426)
(0.00837218 0.0138411 -0.0244635)
(0.0341961 -0.0371626 -0.00498943)
(0.000673957 0.107522 -0.494116)
(0.0741488 0.122551 -0.595651)
(-0.082441 0.157376 -0.160551)
(0 0 0)
(0 0 0)
(0 0 0)
(0 0 0)
(0 0 0)
(0 0 0)
(0 0 0)
(0.0911822 0.0194749 -0.398574)
(0.0325039 -0.0096245 -0.174501)
(0.0289669 -0.0697136 -0.0283573)
(0 0 0)
(0 0 0)
(0.0742249 0.0749361 -0.446916)
(0.00414892 -0.0229951 -0.163892)
(0.0178828 -0.0287922 -0.179345)
(0.113459 -0.0773485 -0.150542)
(0 0 0)
(0.0549355 0.081542 -0.495438)
(0.0410944 -0.0532478 -0.483085)
(-0.0759348 -0.0363424 0.11238)
(0.0392808 -0.0763526 -0.0714899)
(0 0 0)
(0.0411362 -0.151379 -0.433856)
(-0.154941 -0.0459441 0.0424017)
(0 0 0)
(0 0 0)
(0 0 0)
(0 0 0)
(0 0 0)
(0 0 0)
(0.077088 0.0481602 -0.399261)
(0.0826827 0.0662646 -0.342631)
(-0.00766661 0.0635728 -0.25889)
(-0.0349481 0.0172195 -0.286946)
(0 0 0)
(0 0 0)
(0 0 0)
(0.0712497 0.0808837 -0.356818)
(0.100727 0.0593981 -0.330421)
(-0.128903 -0.0104293 -0.351)
(0 0 0)
(0.046955 0.126638 -0.405345)
(0.0847258 0.0996006 -0.434476)
(0.0953723 0.100086 -0.36901)
(-0.0365156 -0.0816514 -0.0087202)
(0 0 0)
(0.0654775 0.136091 -0.508517)
(6.98078e-15 4.98356e-14 1.52599e-13)
(0 0 0)
(0 0 0)
(0 0 0)
(0 0 0)
(1.62494e-14 -3.35814e-14 7.99939e-14)
(0 0 0)
(0 0 0)
(0.090552 0.0471696 -0.302552)
(0.00291134 0.0670777 -0.252485)
(0.134845 0.00293207 -0.269987)
(0 0 0)
(0 0 0)
(0.0332091 0.0564531 -0.407968)
(0.107442 0.0679643 -0.334774)
(0.112618 0.0665833 -0.316201)
(0.0922295 0.0371633 -0.296994)
(0 0 0)
(0.0719293 0.0921422 -0.404659)
(0.0739252 0.107893 -0.360922)
(0 0 0)
(0 0 0)
(0 0 0)
(0 0 0)
(0 0 0)
(0 0 0)
(0 0 0)
(0 0 0)
(0 0 0)
(0 0 0)
(0 0 0)
(0.0575399 0.0321444 -0.369687)
(0.085901 0.0363714 -0.367709)
(0.07307 0.0395132 -0.249544)
(0 0 0)
(0 0 0)
(0 0 0)
(0.0669566 0.0792589 -0.368084)
(0.0825848 0.0825465 -0.310178)
(0.121906 0.0521818 -0.295357)
(0 0 0)
(0 0 0)
(0.0434538 0.0991006 -0.375933)
(0.087292 0.102218 -0.362831)
(0.132135 0.0920704 -0.328228)
(-0.129432 -0.0607463 -0.256027)
(0 0 0)
(0.0212448 -0.150671 -0.430116)
(0 0 0)
(0 0 0)
(0 0 0)
(0 0 0)
(0 0 0)
(0 0 0)
(0 0 0)
(0.0744077 0.0269263 -0.339871)
(0.0666241 0.0563922 -0.274612)
(0 0 0)
(0 0 0)
(0 0 0)
(0 0 0)
(0.0598286 0.0965262 -0.342064)
(0.103708 0.0992704 -0.276411)
(0.139633 0.0583245 -0.307661)
(0.151179 0.0430827 -0.332107)
(0 0 0)
(0.0598286 0.0965262 -0.342064)
(0.0969041 0.123572 -0.332279)
(-0.0117447 -0.00930624 -0.373278)
(0 0 0)
(0 0 0)
(0.103635 0.144639 -0.449303)
(0 0 0)
(0 0 0)
(0 0 0)
(0 0 0)
(0 0 0)
(0 0 0)
(0 0 0)
(0 0 0)
(0 0 0)
(0 0 0)
(0 0 0)
(0 0 0)
(0 0 0)
(0 0 0)
(0.108229 0.100002 -0.254113)
(0.117685 0.0840659 -0.249816)
(0 0 0)
(0 0 0)
(0 0 0)
(0.0748644 0.102919 -0.375346)
(0 0 0)
(0 0 0)
(0 0 0)
(0 0 0)
(0 0 0)
(0 0 0)
(0 0 0)
(0 0 0)
(0 0 0)
(0 0 0)
(0 0 0)
(0 0 0)
(0 0 0)
(0 0 0)
(0 0 0)
(0 0 0)
(0 0 0)
(0 0 0)
(0 0 0)
(0 0 0)
(0 0 0)
(0 0 0)
(0 0 0)
(0.0713239 0.0868017 -0.269472)
(0 0 0)
(0 0 0)
(0 0 0)
(0 0 0)
(0 0 0)
(0 0 0)
(0 0 0)
(0 0 0)
(0 0 0)
(0 0 0)
(0 0 0)
(0 0 0)
(0 0 0)
(0 0 0)
(0 0 0)
(0 0 0)
(0 0 0)
(0 0 0)
(0 0 0)
(0 0 0)
(0 0 0)
(0 0 0)
(0 0 0)
(0 0 0)
(0 0 0)
(0 0 0)
(0 0 0)
(0 0 0)
(0 0 0)
(0 0 0)
(0 0 0)
(0 0 0)
(0 0 0)
(0 0 0)
(0 0 0)
(0 0 0)
(0 0 0)
(0 0 0)
(0 0 0)
(0 0 0)
(0 0 0)
(0 0 0)
(0 0 0)
(0 0 0)
(0 0 0)
(0 0 0)
(0 0 0)
(0 0 0)
(0 0 0)
(0 0 0)
(0 0 0)
(0 0 0)
(0 0 0)
(0 0 0)
(0 0 0)
(0 0 0)
(0 0 0)
(0 0 0)
(0 0 0)
(0 0 0)
(0 0 0)
(0 0 0)
(0 0 0)
(0 0 0)
(0 0 0)
(0 0 0)
(0 0 0)
(0 0 0)
(0 0 0)
(0 0 0)
(0 0 0)
(0 0 0)
(0 0 0)
(0 0 0)
(0 0 0)
(0 0 0)
(0 0 0)
(0 0 0)
(0 0 0)
(0 0 0)
(0 0 0)
(0 0 0)
(0 0 0)
(0 0 0)
(0 0 0)
(0 0 0)
(0 0 0)
(0 0 0)
(0 0 0)
(0 0 0)
(0 0 0)
(0 0 0)
(0 0 0)
(0 0 0)
(0 0 0)
(0 0 0)
(0 0 0)
(0 0 0)
(0 0 0)
(0 0 0)
(0 0 0)
(0 0 0)
(0 0 0)
(0 0 0)
(0 0 0)
(0 0 0)
(0 0 0)
(0 0 0)
(0 0 0)
(0 0 0)
(0 0 0)
(0 0 0)
(0 0 0)
(0 0 0)
(0 0 0)
(0 0 0)
(0 0 0)
(0 0 0)
(0 0 0)
(0 0 0)
(0 0 0)
(0 0 0)
(0 0 0)
(0 0 0)
(0 0 0)
(0 0 0)
(0 0 0)
(0 0 0)
(0 0 0)
(0 0 0)
(0 0 0)
(0 0 0)
(0 0 0)
(0 0 0)
(0 0 0)
(0 0 0)
(0 0 0)
(0 0 0)
(0 0 0)
(0 0 0)
(0 0 0)
(0 0 0)
(0 0 0)
(0 0 0)
(0 0 0)
(0 0 0)
(0 0 0)
(0 0 0)
(0 0 0)
(0 0 0)
(0 0 0)
(0 0 0)
(0 0 0)
(0 0 0)
(0 0 0)
(0 0 0)
(0 0 0)
(0 0 0)
(0 0 0)
(0 0 0)
(0 0 0)
(0 0 0)
(0 0 0)
(0 0 0)
(0 0 0)
(0 0 0)
(0 0 0)
(0 0 0)
(0 0 0)
(0 0 0)
(0 0 0)
(0 0 0)
(0 0 0)
(0 0 0)
(0 0 0)
(0 0 0)
(0 0 0)
(0 0 0)
(0 0 0)
(0 0 0)
(0 0 0)
(0 0 0)
(0 0 0)
(0 0 0)
(0 0 0)
(0 0 0)
(0 0 0)
(0 0 0)
(0 0 0)
(0 0 0)
(0 0 0)
(0 0 0)
(0 0 0)
(0 0 0)
(0 0 0)
(0 0 0)
(0 0 0)
(0 0 0)
(0 0 0)
(0 0 0)
(0 0 0)
(0 0 0)
(0 0 0)
(0 0 0)
(0 0 0)
(0 0 0)
(0 0 0)
(0 0 0)
(0 0 0)
(0 0 0)
(0 0 0)
(0 0 0)
(0 0 0)
(0 0 0)
(0 0 0)
(0 0 0)
(0 0 0)
(0 0 0)
(0 0 0)
(0 0 0)
(0 0 0)
(0 0 0)
(0 0 0)
(0 0 0)
(0 0 0)
(0 0 0)
(0 0 0)
(0 0 0)
(0 0 0)
(0 0 0)
(0 0 0)
(0 0 0)
(0 0 0)
(0 0 0)
(0 0 0)
(0 0 0)
(0 0 0)
(0 0 0)
(0 0 0)
(0 0 0)
(0 0 0)
(0 0 0)
(0 0 0)
(0 0 0)
(0 0 0)
(0 0 0)
(0 0 0)
(0 0 0)
(0 0 0)
(0 0 0)
(0 0 0)
(0 0 0)
(0 0 0)
(0 0 0)
(0 0 0)
(0 0 0)
(0 0 0)
(0 0 0)
(0 0 0)
(0 0 0)
(0 0 0)
(0 0 0)
(0 0 0)
(0 0 0)
(0 0 0)
(0 0 0)
(0 0 0)
(0 0 0)
(0 0 0)
(0 0 0)
(0 0 0)
(0 0 0)
(0 0 0)
(0 0 0)
(0 0 0)
(0 0 0)
(0 0 0)
(0 0 0)
(0 0 0)
(0 0 0)
(0 0 0)
(0 0 0)
(0 0 0)
(0 0 0)
(0 0 0)
(0 0 0)
(0 0 0)
(0 0 0)
(0 0 0)
(0 0 0)
(0 0 0)
(0 0 0)
(0 0 0)
(0 0 0)
(0 0 0)
(0 0 0)
(0 0 0)
(0 0 0)
(0 0 0)
(0 0 0)
(0 0 0)
(0 0 0)
(0 0 0)
(0 0 0)
(0 0 0)
(0 0 0)
(0 0 0)
(0 0 0)
(0 0 0)
(0 0 0)
(0 0 0)
(0 0 0)
(0 0 0)
(0 0 0)
(0 0 0)
(0 0 0)
(0 0 0)
(0 0 0)
(0 0 0)
(0 0 0)
(0 0 0)
(0 0 0)
(0 0 0)
(0 0 0)
(0 0 0)
(0 0 0)
(0 0 0)
(0 0 0)
(0 0 0)
(0 0 0)
(0 0 0)
(0 0 0)
(0 0 0)
(0 0 0)
(0 0 0)
(0 0 0)
(0 0 0)
(0 0 0)
(0 0 0)
(0 0 0)
(0 0 0)
(0 0 0)
(0 0 0)
(0 0 0)
(0 0 0)
(0 0 0)
(0 0 0)
(0 0 0)
(0 0 0)
(0 0 0)
(0 0 0)
(0 0 0)
(0 0 0)
(0 0 0)
(0 0 0)
(0 0 0)
(0 0 0)
(0 0 0)
(0 0 0)
(0 0 0)
(0 0 0)
(0 0 0)
(0 0 0)
(0 0 0)
(0 0 0)
(0 0 0)
(0 0 0)
(0 0 0)
(0 0 0)
(0 0 0)
(0 0 0)
(0 0 0)
(0 0 0)
(0 0 0)
(0 0 0)
(0 0 0)
(0 0 0)
(0 0 0)
(0 0 0)
(0 0 0)
(0 0 0)
(0 0 0)
(0 0 0)
(0 0 0)
(0 0 0)
(0 0 0)
(0 0 0)
(0 0 0)
(0 0 0)
(0 0 0)
(0 0 0)
(0 0 0)
(0 0 0)
(0 0 0)
(0 0 0)
(0 0 0)
(0 0 0)
(0 0 0)
(0 0 0)
(0 0 0)
(0 0 0)
(0 0 0)
(0 0 0)
(0 0 0)
(0 0 0)
(0 0 0)
(0 0 0)
(0 0 0)
(0 0 0)
(0 0 0)
(0 0 0)
(0 0 0)
(0 0 0)
(0 0 0)
(0 0 0)
(0 0 0)
(0 0 0)
(0 0 0)
(0 0 0)
(0 0 0)
(0 0 0)
(0 0 0)
(0 0 0)
(0 0 0)
(0 0 0)
(0 0 0)
(0 0 0)
(0 0 0)
(0 0 0)
(0 0 0)
(0 0 0)
(0 0 0)
(0 0 0)
(0 0 0)
(0 0 0)
(0 0 0)
(0 0 0)
(0 0 0)
(0 0 0)
(0 0 0)
(0 0 0)
(0 0 0)
(0 0 0)
(0 0 0)
(0 0 0)
(0 0 0)
(0 0 0)
(0 0 0)
(0 0 0)
(0 0 0)
(0 0 0)
(0 0 0)
(0 0 0)
(0 0 0)
(0 0 0)
(0 0 0)
(0 0 0)
(0 0 0)
(0 0 0)
(0 0 0)
(0 0 0)
(0 0 0)
(0 0 0)
(0 0 0)
(0 0 0)
(0 0 0)
(0 0 0)
(0 0 0)
(0 0 0)
(0 0 0)
(0 0 0)
(0 0 0)
(0 0 0)
(0 0 0)
(0 0 0)
(0 0 0)
(0 0 0)
(0 0 0)
(0 0 0)
(0 0 0)
(0 0 0)
(0 0 0)
(0 0 0)
(0 0 0)
(0 0 0)
(0 0 0)
(0 0 0)
(0 0 0)
(0 0 0)
(0 0 0)
(0 0 0)
(0 0 0)
(0 0 0)
(0 0 0)
(0 0 0)
(0 0 0)
(0 0 0)
(0 0 0)
(0 0 0)
(0 0 0)
(0 0 0)
(0 0 0)
(0 0 0)
(0 0 0)
(0 0 0)
(0 0 0)
(0 0 0)
(0 0 0)
(0 0 0)
(0 0 0)
(0 0 0)
(0 0 0)
(0 0 0)
(0 0 0)
(0 0 0)
(0 0 0)
(0 0 0)
(0 0 0)
(0 0 0)
(0 0 0)
(0 0 0)
(0 0 0)
(0 0 0)
(0 0 0)
(0 0 0)
(0 0 0)
(0 0 0)
(0 0 0)
(0 0 0)
(0 0 0)
(0 0 0)
(0 0 0)
(0 0 0)
(0 0 0)
(0 0 0)
(0 0 0)
(0 0 0)
(0 0 0)
(0 0 0)
(0 0 0)
(0 0 0)
(0 0 0)
(0 0 0)
(0 0 0)
(0 0 0)
(0 0 0)
(0 0 0)
(0 0 0)
(0 0 0)
(0 0 0)
(0 0 0)
(0 0 0)
(0 0 0)
(0 0 0)
(0 0 0)
(0 0 0)
(0 0 0)
(0 0 0)
(0 0 0)
(0 0 0)
(0 0 0)
(0 0 0)
(0 0 0)
(0 0 0)
(0 0 0)
(0 0 0)
(0 0 0)
(0 0 0)
(0 0 0)
(0 0 0)
(0 0 0)
(0 0 0)
(0 0 0)
(0 0 0)
(0 0 0)
(0 0 0)
(0 0 0)
(0 0 0)
(0 0 0)
(0 0 0)
(0 0 0)
(0 0 0)
(0 0 0)
(0 0 0)
(0 0 0)
(0 0 0)
(0 0 0)
(0 0 0)
(0 0 0)
(0 0 0)
(0 0 0)
(0 0 0)
(0 0 0)
(0 0 0)
(0 0 0)
(0 0 0)
(0 0 0)
(0 0 0)
(0 0 0)
(0 0 0)
(0 0 0)
(0 0 0)
(0 0 0)
(0 0 0)
(0 0 0)
(0 0 0)
(0 0 0)
(0 0 0)
(0 0 0)
(0 0 0)
(0 0 0)
(0 0 0)
(0 0 0)
(0 0 0)
(0 0 0)
(0 0 0)
(0 0 0)
(0 0 0)
(0 0 0)
(0 0 0)
(0 0 0)
(0 0 0)
(0 0 0)
(0 0 0)
(0 0 0)
(0 0 0)
(0 0 0)
(0 0 0)
(0 0 0)
(0 0 0)
(0 0 0)
(0 0 0)
(0 0 0)
(0 0 0)
(0 0 0)
(0 0 0)
(0 0 0)
(0 0 0)
(0 0 0)
(0 0 0)
(0 0 0)
(0 0 0)
(0 0 0)
(0 0 0)
(0 0 0)
(0 0 0)
(0 0 0)
(0 0 0)
(0 0 0)
(0 0 0)
(0 0 0)
(0 0 0)
(0 0 0)
(0 0 0)
(0 0 0)
(0 0 0)
(0 0 0)
(0 0 0)
(0 0 0)
(0 0 0)
(0 0 0)
(0 0 0)
(0 0 0)
(0 0 0)
(0 0 0)
(0 0 0)
(0 0 0)
(0 0 0)
(0 0 0)
(0 0 0)
(0 0 0)
(0 0 0)
(0 0 0)
(0 0 0)
(0 0 0)
(0 0 0)
(0 0 0)
(0 0 0)
(0 0 0)
(0 0 0)
(0 0 0)
(0 0 0)
(0 0 0)
(0 0 0)
(0 0 0)
(0 0 0)
(0 0 0)
(0 0 0)
(0 0 0)
(0 0 0)
(0 0 0)
(0 0 0)
(0 0 0)
(0 0 0)
(0 0 0)
(0 0 0)
(0 0 0)
(0 0 0)
(0 0 0)
(0 0 0)
(0 0 0)
(0 0 0)
(0 0 0)
(0 0 0)
(0 0 0)
(0 0 0)
(0 0 0)
(0 0 0)
(0 0 0)
(0 0 0)
(0 0 0)
(0 0 0)
(0 0 0)
(0 0 0)
(0 0 0)
(0 0 0)
(0 0 0)
(0 0 0)
(0 0 0)
(0 0 0)
(0 0 0)
(0 0 0)
(0 0 0)
(0 0 0)
(0 0 0)
(0 0 0)
(0 0 0)
(0 0 0)
(0 0 0)
(0 0 0)
(0 0 0)
(0 0 0)
(0 0 0)
(0 0 0)
(0 0 0)
(0 0 0)
(0 0 0)
(0 0 0)
(0 0 0)
(0 0 0)
(0 0 0)
(0 0 0)
(0 0 0)
(0 0 0)
(0 0 0)
(0 0 0)
(0 0 0)
(0 0 0)
(0 0 0)
(0 0 0)
(0 0 0)
(0 0 0)
(0 0 0)
(0 0 0)
(0 0 0)
(0 0 0)
(0 0 0)
(0 0 0)
(0 0 0)
(0 0 0)
(0 0 0)
(0 0 0)
(0 0 0)
(0 0 0)
(0 0 0)
(0 0 0)
(0 0 0)
(0 0 0)
(0 0 0)
(0 0 0)
(0 0 0)
(0 0 0)
(0 0 0)
(0 0 0)
(0 0 0)
(0 0 0)
(0 0 0)
(0 0 0)
(0 0 0)
(0 0 0)
(0 0 0)
(0 0 0)
(0 0 0)
(0 0 0)
(0 0 0)
(0 0 0)
(0 0 0)
(0 0 0)
(0 0 0)
(0 0 0)
(0 0 0)
(0 0 0)
(0 0 0)
(0 0 0)
(0 0 0)
(0 0 0)
(0 0 0)
(0 0 0)
(0 0 0)
(0 0 0)
(0 0 0)
(0 0 0)
(0 0 0)
(0 0 0)
(0 0 0)
(0 0 0)
(0 0 0)
(0 0 0)
(0 0 0)
(0 0 0)
(0 0 0)
(0 0 0)
(0 0 0)
(0 0 0)
(0 0 0)
(0 0 0)
(0 0 0)
(0 0 0)
(0 0 0)
(0 0 0)
(0 0 0)
(0 0 0)
(0 0 0)
(0 0 0)
(0 0 0)
(0 0 0)
(0 0 0)
(0 0 0)
(0 0 0)
(0 0 0)
(0 0 0)
(0 0 0)
(0 0 0)
(0 0 0)
(0 0 0)
(0 0 0)
(0 0 0)
(0 0 0)
(0 0 0)
(0 0 0)
(0 0 0)
(0 0 0)
(0 0 0)
(0 0 0)
(0 0 0)
(0 0 0)
(0 0 0)
(0 0 0)
(0 0 0)
(0 0 0)
(0 0 0)
(0 0 0)
(0 0 0)
(0 0 0)
(0 0 0)
(0 0 0)
(0 0 0)
(0 0 0)
(0 0 0)
(0 0 0)
(0 0 0)
(0 0 0)
(0 0 0)
(0 0 0)
(0 0 0)
(0 0 0)
(0 0 0)
(0 0 0)
(0 0 0)
(0 0 0)
(0 0 0)
(0 0 0)
(0 0 0)
(0 0 0)
(0 0 0)
(0 0 0)
(0 0 0)
(0 0 0)
(0 0 0)
(0 0 0)
(0 0 0)
(0 0 0)
(0 0 0)
(0 0 0)
(0 0 0)
(0 0 0)
(0 0 0)
(0 0 0)
(0 0 0)
(0 0 0)
(0 0 0)
(0 0 0)
(0 0 0)
(0 0 0)
(0 0 0)
(0 0 0)
(0 0 0)
(0 0 0)
(0 0 0)
(0 0 0)
(0 0 0)
(0 0 0)
(0 0 0)
(0 0 0)
(0 0 0)
(0 0 0)
(0 0 0)
(0 0 0)
(0 0 0)
(0 0 0)
(0 0 0)
(0 0 0)
(0 0 0)
(0 0 0)
(0 0 0)
(0 0 0)
(0 0 0)
(0 0 0)
(0 0 0)
(0 0 0)
(0 0 0)
(0 0 0)
(0 0 0)
(0 0 0)
(0 0 0)
(0 0 0)
(0 0 0)
(0 0 0)
(0 0 0)
(0 0 0)
(0 0 0)
(0 0 0)
(0 0 0)
(0 0 0)
(0 0 0)
(0 0 0)
(0 0 0)
(0 0 0)
(0 0 0)
(0 0 0)
(0 0 0)
(0 0 0)
(0 0 0)
(0 0 0)
(0 0 0)
(0 0 0)
(0 0 0)
(0 0 0)
(0 0 0)
(0 0 0)
(0 0 0)
(0 0 0)
(0 0 0)
(0 0 0)
(0 0 0)
(0 0 0)
(0 0 0)
(0 0 0)
(0 0 0)
(0 0 0)
(0 0 0)
(0 0 0)
(0 0 0)
(0 0 0)
(0 0 0)
(0 0 0)
(0 0 0)
(0 0 0)
(0 0 0)
(0 0 0)
(0 0 0)
(0 0 0)
(0 0 0)
(0 0 0)
(0 0 0)
(0 0 0)
(0 0 0)
(0 0 0)
(0 0 0)
(0 0 0)
(0 0 0)
(0 0 0)
(0 0 0)
(0 0 0)
(0 0 0)
(0 0 0)
(0 0 0)
(0 0 0)
(0 0 0)
(0 0 0)
(0 0 0)
(0 0 0)
(0 0 0)
(0 0 0)
(0 0 0)
(0 0 0)
(0 0 0)
(0 0 0)
(0 0 0)
(0 0 0)
(0 0 0)
(0 0 0)
(0 0 0)
(0 0 0)
(0 0 0)
(0 0 0)
(0 0 0)
(0 0 0)
(0 0 0)
(0 0 0)
(0 0 0)
(0 0 0)
(0 0 0)
(0 0 0)
(0 0 0)
(0 0 0)
(0 0 0)
(0 0 0)
(0 0 0)
(0 0 0)
(0 0 0)
(0 0 0)
(0 0 0)
(0 0 0)
(0 0 0)
(0 0 0)
(0 0 0)
(0 0 0)
(0 0 0)
(0 0 0)
(0 0 0)
(0 0 0)
(0 0 0)
(0 0 0)
(0 0 0)
(0 0 0)
(0 0 0)
(0 0 0)
(0 0 0)
(0 0 0)
(0 0 0)
(0 0 0)
(0 0 0)
(0 0 0)
(0 0 0)
(0 0 0)
(0 0 0)
(0 0 0)
(0 0 0)
(0 0 0)
(0 0 0)
(0 0 0)
(0 0 0)
(0 0 0)
(0 0 0)
(0 0 0)
(0 0 0)
(0 0 0)
(0 0 0)
(0 0 0)
(0 0 0)
(0 0 0)
(0 0 0)
(0 0 0)
(0 0 0)
(0 0 0)
(0 0 0)
(0 0 0)
(0 0 0)
(0 0 0)
(0 0 0)
(0 0 0)
(0 0 0)
(0 0 0)
(0 0 0)
(0 0 0)
(0 0 0)
(0 0 0)
(0 0 0)
(0 0 0)
(0 0 0)
(0 0 0)
(0 0 0)
(0 0 0)
(0 0 0)
(0 0 0)
(0 0 0)
(0 0 0)
(0 0 0)
(0 0 0)
(0 0 0)
(0 0 0)
(0 0 0)
(0 0 0)
(0 0 0)
(0 0 0)
(0 0 0)
(0 0 0)
(0 0 0)
(0 0 0)
(0 0 0)
(0 0 0)
(0 0 0)
(0 0 0)
(0 0 0)
(0 0 0)
(0 0 0)
(0 0 0)
(0 0 0)
(0 0 0)
(0 0 0)
(0 0 0)
(0 0 0)
(0 0 0)
(0 0 0)
(0 0 0)
(0 0 0)
(0 0 0)
(0 0 0)
(0 0 0)
(0 0 0)
(0 0 0)
(0 0 0)
(0 0 0)
(0 0 0)
(0 0 0)
(0 0 0)
(0 0 0)
(0 0 0)
(0 0 0)
(0 0 0)
(0 0 0)
(0 0 0)
(0 0 0)
(0 0 0)
(0 0 0)
(0 0 0)
(0 0 0)
(0 0 0)
(0 0 0)
(0 0 0)
(0 0 0)
(0 0 0)
(0 0 0)
(0 0 0)
(0 0 0)
(0 0 0)
(0 0 0)
(0 0 0)
(0 0 0)
(0 0 0)
(0 0 0)
(0 0 0)
(0 0 0)
(0 0 0)
(0 0 0)
(0 0 0)
(0 0 0)
(0 0 0)
(0 0 0)
(0 0 0)
(0 0 0)
(0 0 0)
(0 0 0)
(0 0 0)
(0 0 0)
(0 0 0)
(0 0 0)
(0 0 0)
(0 0 0)
(0 0 0)
(0 0 0)
(0 0 0)
(0 0 0)
(0 0 0)
(0 0 0)
(0 0 0)
(0 0 0)
(0 0 0)
(0 0 0)
(0 0 0)
(0 0 0)
(0 0 0)
(0 0 0)
(0 0 0)
(0 0 0)
(0 0 0)
(0 0 0)
(0 0 0)
(0 0 0)
(0 0 0)
(0 0 0)
(0 0 0)
(0 0 0)
(0 0 0)
(0 0 0)
(0 0 0)
(0 0 0)
(0 0 0)
(0 0 0)
(0 0 0)
(0 0 0)
(0 0 0)
(0 0 0)
(0 0 0)
(0 0 0)
(0 0 0)
(0 0 0)
(0 0 0)
(0 0 0)
(0 0 0)
(0 0 0)
(0 0 0)
(0 0 0)
(0 0 0)
(0 0 0)
(0 0 0)
(0 0 0)
(0 0 0)
(0 0 0)
(0 0 0)
(0 0 0)
(0 0 0)
(0 0 0)
(0 0 0)
(0 0 0)
(0 0 0)
(0 0 0)
(0 0 0)
(0 0 0)
(0 0 0)
(0 0 0)
(0 0 0)
(0 0 0)
(0 0 0)
(0 0 0)
(0 0 0)
(0 0 0)
(0 0 0)
(0 0 0)
(0 0 0)
(0 0 0)
(0 0 0)
(0 0 0)
(0 0 0)
(0 0 0)
(0 0 0)
(0 0 0)
(0 0 0)
(0 0 0)
(0 0 0)
(0 0 0)
(0 0 0)
(0 0 0)
(0 0 0)
(0 0 0)
(0 0 0)
(0 0 0)
(0 0 0)
(0 0 0)
(0 0 0)
(0 0 0)
(0 0 0)
(0 0 0)
(0 0 0)
(0 0 0)
(0 0 0)
(0 0 0)
(0 0 0)
(0 0 0)
(0 0 0)
(0 0 0)
(0 0 0)
(0 0 0)
(0 0 0)
(0 0 0)
(0 0 0)
(0 0 0)
(0 0 0)
(0 0 0)
(0 0 0)
(0 0 0)
(0 0 0)
(0 0 0)
(0 0 0)
(0 0 0)
(0 0 0)
(0 0 0)
(0 0 0)
(0 0 0)
(0 0 0)
(0 0 0)
(0 0 0)
(0 0 0)
(0 0 0)
(0 0 0)
(0 0 0)
(0 0 0)
(0 0 0)
(0 0 0)
(0 0 0)
(0 0 0)
(0 0 0)
(0 0 0)
(0 0 0)
(0 0 0)
(0 0 0)
(0 0 0)
(0 0 0)
(0 0 0)
(0 0 0)
(0 0 0)
(0 0 0)
(0 0 0)
(0 0 0)
(0 0 0)
(0 0 0)
(0 0 0)
(0 0 0)
(0 0 0)
(0 0 0)
(0 0 0)
(0 0 0)
(0 0 0)
(0 0 0)
(0 0 0)
(0 0 0)
(0 0 0)
(0 0 0)
(0 0 0)
(0 0 0)
(0 0 0)
(0 0 0)
(0 0 0)
(0 0 0)
(0 0 0)
(0 0 0)
(0 0 0)
(0 0 0)
(0 0 0)
(0 0 0)
(0 0 0)
(0 0 0)
(0 0 0)
(0 0 0)
(0 0 0)
(0 0 0)
(0 0 0)
(0 0 0)
(0 0 0)
(0 0 0)
(0 0 0)
(0 0 0)
(0 0 0)
(0 0 0)
(0 0 0)
(0 0 0)
(0 0 0)
(0 0 0)
(0 0 0)
(0 0 0)
(0 0 0)
(0 0 0)
(0 0 0)
(0 0 0)
(0 0 0)
(0 0 0)
(0 0 0)
(0 0 0)
(0 0 0)
(0 0 0)
(0 0 0)
(0 0 0)
(0 0 0)
(0 0 0)
(0 0 0)
(0 0 0)
(0 0 0)
(0 0 0)
(0 0 0)
(0 0 0)
(0 0 0)
(0 0 0)
(0 0 0)
(0 0 0)
(0 0 0)
(0 0 0)
(0 0 0)
(0 0 0)
(0 0 0)
(0 0 0)
(0 0 0)
(0 0 0)
(0 0 0)
(0 0 0)
(0 0 0)
(0 0 0)
(0 0 0)
(0 0 0)
(0 0 0)
(0 0 0)
(0 0 0)
(0 0 0)
(0 0 0)
(0 0 0)
(0 0 0)
(-0.00587775 0.0424779 -0.040132)
(-0.0488759 0.023806 -0.0285934)
(-0.0677528 0.0713494 -0.0134811)
(-0.11117 0.0364117 0.000329587)
(-0.0527158 0.0288376 -0.0326041)
(-0.149919 0.0228406 0.0409766)
(-0.15049 -0.0101004 0.00699101)
(-0.0957259 -0.00959565 -0.0267802)
(0.104395 -0.061226 -0.0227689)
(0.0755143 -0.0376341 0.000198881)
(0.0508571 0.0373559 0.00319814)
(0.22131 -0.115671 0.00214226)
(0.309189 -0.0426502 0.0254949)
(-0.0922092 0.15979 -0.0178335)
(-0.370113 0.0894707 0.0857642)
(0.085438 -0.0147707 0.00730303)
(-0.199066 0.0025482 0.0102266)
(-0.305121 0.0281474 0.0766476)
(-0.25534 -0.0246981 0.0447188)
(-0.377397 0.0640252 0.0597056)
(-0.325952 0.033649 0.0322238)
(-0.145359 -0.0431831 0.00191537)
(-0.0634026 -0.0269113 -0.0304153)
(-0.209751 0.0233394 -0.0133092)
(-0.0992991 0.00803542 -0.0368628)
(-0.0173532 0.0192496 -0.0258895)
(0.157335 -0.0861228 -0.0271078)
(0.0182371 -0.0396933 -0.0151601)
(0.139755 -0.063023 -0.020782)
(0.267269 -0.0980838 -0.0042157)
(0.412823 -0.0821595 0.0589268)
(0.287479 -0.0393965 0.0149157)
(0.43077 0.00338621 0.0767515)
(0.0869619 0.0448431 0.0265243)
(-0.0570317 0.0181488 0.0201042)
(0.0777897 0.110777 0.0445993)
(0.0324119 0.0698001 0.0246707)
(-0.0578631 0.0534173 0.0373766)
(-0.335598 0.0924368 0.0160869)
(0.00407165 0.0711638 0.0196384)
(-0.329428 0.171642 0.0427976)
(-0.239189 0.0936549 -0.00653034)
(-0.11725 0.0750351 -0.0126028)
(-0.272717 0.193624 0.027782)
(-0.121247 0.173696 0.0152902)
(-0.0378603 0.0361423 -0.0242743)
(-0.0440832 0.135948 -0.0135904)
(-0.0291064 0.105753 -0.0212643)
(0.0301665 -0.0323238 -0.0263331)
(0.152277 -0.04376 -0.00802935)
(0.156972 0.0286269 -0.0397469)
(0.308733 -0.0358666 0.0526414)
(0.477051 0.0030248 0.14039)
(0.317059 0.0211479 0.0252102)
(0.477518 0.0143704 0.12954)
(0.0636366 0.120592 0.052331)
(0.0589306 0.119329 0.0227184)
(0.322286 0.103729 0.102781)
(0.0789707 0.209175 0.0263816)
(0.0108675 0.11798 0.0289918)
(-0.315725 0.217329 0.0610232)
(-0.0612611 0.160514 0.030563)
(-0.073897 0.098971 0.0234108)
(-0.275831 0.2333 0.0420403)
(-0.126755 0.251664 0.0490872)
(-0.0258465 0.0908318 0.0711228)
(-0.125079 0.179256 0.0908892)
(-0.046883 0.255931 0.0134394)
(-0.0376227 0.204526 -0.0178594)
(-0.075068 0.23505 0.049692)
(0.105624 0.0523462 -0.0543115)
(0.253844 0.0701544 -0.0202475)
(0.40439 0.0270458 0.0995975)
(0.164736 0.0750931 -0.021225)
(0.240174 0.0157198 0.0485557)
(0.453695 -0.060865 0.166896)
(0.1383 0.196899 0.0538779)
(0.309579 -0.0786538 0.103286)
(0.317673 -0.120133 0.107094)
(0.0171366 0.167099 0.0438099)
(-0.0666576 0.106422 0.0524286)
(0.0362145 -0.120461 0.115656)
(-0.0719759 -0.113171 0.100124)
(-0.0703838 0.095835 0.0910528)
(-0.0887822 0.133215 0.0645669)
(-0.102902 -0.0127407 0.0576336)
(-0.0845251 0.0617193 0.0293783)
(-0.0728356 0.12445 0.033044)
(0.126157 -0.00126649 -0.014235)
(0.173009 -0.0282486 0.0204016)
(0.148677 -0.0108962 0.0755256)
(-0.00970734 0.0229194 0.0289422)
(-0.00708601 -0.0170051 0.104844)
(-0.0369289 -0.0845346 0.0394093)
(-0.0305136 0.0056113 0.0590629)
(-0.0507526 -0.0412328 -0.028515)
(0.0254811 0.0217598 -0.0983763)
(0.0591432 0.00188548 -0.145054)
(0.020331 0.0195006 0.0288376)
(0.0319797 0.0516715 -0.0295265)
(-0.0327343 0.0605599 0.121988)
(0.0716086 0.00578537 -0.00807505)
(0.0735274 0.0360609 -0.0922856)
(0.0519848 0.0558306 0.143526)
(-0.0814933 0.0731967 0.111474)
(-0.076957 0.051889 0.00450707)
(0.0798923 0.032826 -0.100457)
(0.0109137 0.10919 0.104191)
(0.0224223 0.109997 -0.0830998)
(-0.0385633 0.0180299 -0.0938775)
(0.0387786 0.0694602 -0.204611)
(0.0626373 -0.0529892 -0.00279445)
(0.0301078 -0.01502 -0.0150833)
(0.0571027 0.0585576 0.0727584)
(0.141652 -0.0218634 0.0451458)
(0.215937 0.04093 0.142174)
(0.0326552 0.00416867 -0.0198923)
(0.0933911 0.041018 0.0729485)
(0.0847234 0.0252398 0.0265378)
(0.141467 0.0819348 0.19358)
(-0.0383574 0.0176778 -0.0813844)
(-0.182128 0.0949168 0.0713877)
(-0.0851529 0.0690107 -0.0398856)
(-0.0776843 0.138759 -0.123182)
(-0.00968095 0.0634297 -0.173272)
(-0.181717 0.121432 0.0552606)
(-0.0905482 0.10896 -0.121189)
(-0.00113022 0.0437678 -0.0216802)
(-0.0103468 0.0577705 -0.101831)
(0.108062 -0.0434476 0.0313163)
(0.0362703 0.0288645 0.0470272)
(0.157945 0.0222158 0.0600794)
(0.0626351 -0.00761405 -0.00111479)
(0.0386979 0.0189288 -0.0170921)
(0.139107 0.0202481 0.0147437)
(-0.0235842 0.180402 0.0235717)
(0.00496268 0.17253 0.0198668)
(-0.0488011 0.0888348 -0.0570295)
(-0.0502011 0.132446 -0.0436362)
(0.00266902 0.100439 -0.0169374)
(0.148973 0.00654303 -0.0188144)
(0.0994863 0.0191311 -0.123476)
(0.035995 0.0253102 -0.108303)
(0.12624 -0.00671553 -0.0746105)
(0.0487676 0.00131908 -0.202665)
(-0.0229097 0.236011 0.0576593)
(-0.0701937 0.2881 0.12715)
(-0.0639135 0.224114 0.0340338)
(-0.0262547 0.140913 0.00561072)
(-0.0774667 0.219564 0.179409)
(0.0798538 0.0547847 -0.147754)
(0.0447897 0.0279309 -0.259075)
(0.34919 0.0326719 0.0754453)
(0.144647 0.0866273 -0.0834833)
(0.206978 0.00442533 0.0207519)
(0.136252 0.0404081 -0.249783)
(0.250646 0.0755921 0.0616065)
(0.101982 0.0659528 -0.160133)
(0.123371 0.0156217 -0.00563872)
(-0.113757 0.211603 0.163469)
(-0.105746 -0.0159304 0.085363)
(-0.0928121 0.0849749 0.0663451)
(-0.0850233 0.252971 0.365955)
(-0.110003 0.228464 0.253724)
(-0.128203 0.050545 0.151015)
(-0.0928148 0.0838067 0.120283)
(-0.085379 0.145499 0.168552)
(0.0997661 0.000715598 -0.0735728)
(0.0655904 -0.00468309 -0.176684)
(0.0847289 -0.001356 0.14665)
(0.0480594 0.0290034 0.120194)
(0.0830126 -0.0154699 0.00881987)
(0.059364 0.0120321 0.143266)
(0.0970894 0.0254601 0.10557)
(-0.0117251 -0.0301615 -0.00597679)
(0.0142463 0.0115074 0.0859336)
(0.0344932 0.034989 0.0878448)
(0.0713851 0.0145073 -0.0544962)
(0.0975077 0.00889706 0.0666976)
(-0.00932489 -0.00735039 -0.121067)
(0.0483601 0.011311 -0.244802)
(0.0383089 -0.00988814 -0.425882)
(0.101169 -0.000532115 -0.143619)
(0.0718885 0.0170404 -0.198047)
(0.0836539 0.0339085 0.0996831)
(0.104792 0.00103452 -0.42239)
(0.0472505 -0.0178635 -0.377647)
(0.0820247 0.00952351 -0.0347304)
(0.0958481 0.0861732 0.0318593)
(0.100506 0.107748 -0.253569)
(0.117828 0.0123221 -0.49859)
(0.118096 0.0490924 -0.154953)
(0.142479 0.0622789 -0.451567)
(0.0910354 0.0892086 -0.309263)
(0.125057 0.0774126 -0.434937)
(0.0242723 -0.0125659 -0.0534482)
(0.00937795 -0.0082544 -0.208106)
(0.053867 0.0456119 0.0144836)
(0.0402608 0.0194743 -0.00784171)
(0.0558154 0.0615617 0.2356)
(-0.0250795 0.0106403 -0.255474)
(0.00945249 0.00870781 -0.0412331)
(-0.0775805 -0.00651259 -0.0898128)
(-0.0305183 0.0120132 0.340435)
(0.0165227 0.0944654 -0.265356)
(-0.150283 0.144661 0.0508418)
(-0.073765 0.119951 -0.202834)
(0.0779957 0.127211 -0.387844)
(0.0449542 0.0955538 -0.354745)
(0.166834 0.0353772 0.0175083)
(-0.0223018 0.107525 -0.302608)
(-0.0063442 0.0661151 -0.203869)
(0.00163003 0.0652751 -0.282965)
(0.0425211 -0.0092665 -0.0544046)
(0.0147675 0.00118101 -0.112415)
(0.0775926 -0.0132623 -0.0348739)
(0.0134548 -0.0300374 -0.136399)
(0.0172755 0.0597429 -0.237498)
(-0.0114247 -0.045458 -0.0942244)
(-0.0807329 0.0818312 -0.117407)
(-0.0173235 0.0376887 -0.10017)
(-0.0361685 0.0659583 -0.225857)
(-0.0645589 0.0392672 -0.195482)
(-0.0360091 -0.00925468 -0.219411)
(0.0521545 -0.047291 -0.123025)
(0.0209402 -0.0229808 -0.253397)
(0.0180332 0.0425532 -0.246537)
(-0.0275997 -0.0458545 -0.194255)
(0.0121823 -0.0256743 -0.280242)
(-0.0254714 0.0593963 -0.106367)
(-0.0741112 0.0772563 0.154797)
(-0.0400546 0.000592602 -0.189068)
(-0.0209485 -0.00563182 -0.24238)
(-0.00349911 -0.0562783 -0.0420522)
(0.0222525 0.00527447 -0.304555)