/*--------------------------------*- C++ -*----------------------------------*\
| =========                 |                                                 |
| \\      /  F ield         | OpenFOAM: The Open Source CFD Toolbox           |
|  \\    /   O peration     | Version:  5.x                                   |
|   \\  /    A nd           | Web:      www.OpenFOAM.org                      |
|    \\/     M anipulation  |                                                 |
\*---------------------------------------------------------------------------*/
FoamFile
{
    version     2.0;
    format      ascii;
    class       surfaceScalarField;
    location    "1.85";
    object      phi;
}
// * * * * * * * * * * * * * * * * * * * * * * * * * * * * * * * * * * * * * //

dimensions      [0 3 -1 0 0 0 0];

internalField   nonuniform List<scalar> 
29271
(
-2.78631e-06
1.82395e-07
-7.26808e-09
2.6069e-06
-4.57258e-06
4.13018e-07
4.77467e-07
3.69523e-06
-1.12535e-05
-6.12775e-07
-6.80609e-07
1.68214e-07
1.35597e-07
1.22431e-05
-1.12125e-05
-6.20773e-07
5.82735e-07
-1.34211e-06
-4.5511e-07
1.30478e-05
-1.06112e-05
2.36543e-07
-1.10059e-06
-2.756e-07
1.01011e-05
1.64975e-06
-1.0676e-05
-5.69326e-07
-1.62339e-07
4.82137e-09
2.22704e-07
1.11802e-05
-9.55906e-06
1.96434e-06
1.82727e-06
-1.09651e-06
-9.65686e-07
7.82965e-06
-9.3093e-06
2.8931e-06
7.78128e-07
-7.74974e-07
-1.60629e-06
8.01933e-06
-9.4122e-06
1.65558e-06
7.65093e-07
-5.85173e-07
-1.0917e-06
8.66841e-06
-8.77063e-06
2.35731e-07
1.54104e-07
8.31317e-06
3.38657e-08
-3.03184e-06
-3.21073e-08
-4.95635e-07
3.51516e-06
-1.08091e-05
1.28014e-07
9.12667e-08
-3.43144e-07
-6.97964e-07
1.1631e-05
-9.2797e-06
4.24949e-07
3.01615e-06
-1.80324e-06
-4.37301e-07
8.07915e-06
-8.96315e-06
6.08885e-07
8.55553e-07
-3.35626e-07
2.09508e-08
7.81339e-06
-9.28812e-06
2.07563e-07
-6.24705e-08
4.56947e-07
6.4481e-07
8.04127e-06
-1.09451e-05
-5.81288e-07
6.17991e-07
8.01116e-07
1.11631e-05
-1.05584e-06
-1.0913e-05
5.60227e-07
-1.59024e-07
-7.65477e-07
1.01294e-05
1.14784e-06
-9.62256e-06
2.18157e-06
4.83886e-07
-1.18153e-06
1.88973e-07
7.94966e-06
-9.26082e-06
-6.31735e-07
3.07241e-07
1.97091e-07
1.50341e-06
7.88481e-06
-1.10717e-05
3.65673e-07
1.65998e-07
1.35259e-05
-1.66949e-06
-1.31647e-06
-4.17389e-06
-3.741e-07
6.33332e-07
3.85026e-06
-8.66025e-06
-4.47518e-07
8.79849e-07
9.47404e-06
-1.3107e-06
-1.28975e-05
-2.14922e-07
-8.54068e-07
2.80287e-07
1.60555e-05
-2.36934e-06
-3.90259e-06
-3.99158e-07
9.10317e-07
3.32187e-06
-2.55442e-06
-5.07683e-07
6.62574e-07
2.4003e-06
-3.26108e-06
-2.70461e-06
3.83247e-06
2.13261e-06
-1.39513e-06
7.97618e-07
-1.33877e-05
1.83006e-07
4.40396e-06
9.39821e-06
-1.8917e-06
-1.50541e-05
-8.6466e-07
-4.35277e-07
5.4293e-06
1.28164e-05
-1.02443e-05
-4.47222e-08
-2.31155e-06
4.09393e-06
6.17836e-06
2.32827e-06
-5.50691e-06
1.50184e-06
-1.17334e-05
1.90589e-06
6.57705e-06
7.25555e-06
8.76656e-07
1.78554e-06
4.14165e-05
-3.91463e-06
-4.06045e-06
-4.2318e-06
-4.65072e-06
-5.31898e-06
-5.06896e-06
-2.82572e-06
-3.06086e-06
-3.90333e-06
-3.35376e-06
-1.91184e-06
-1.77768e-06
4.19844e-07
2.8879e-06
4.23517e-05
-5.02176e-06
-5.57905e-06
-5.78713e-06
-6.28068e-06
-6.65037e-06
-8.3963e-06
-3.89857e-06
-3.16889e-06
-6.48576e-07
2.88245e-07
4.12963e-05
-8.7515e-06
-1.40667e-06
-1.3215e-06
-8.31666e-07
-1.00958e-06
-3.91201e-07
-5.19647e-07
-6.86532e-06
-6.36182e-06
-6.45223e-06
-6.60504e-06
-7.43645e-06
-6.89057e-09
4.78899e-07
6.26399e-06
-5.24859e-06
-4.45197e-06
1.27787e-06
8.42275e-06
-1.05013e-06
-1.36885e-05
-7.46146e-06
6.58145e-06
5.83523e-06
9.78342e-06
2.6588e-06
-1.20268e-08
5.22137e-05
-4.75895e-06
-5.71709e-06
-4.94347e-06
-6.15222e-06
-1.11867e-05
-1.29287e-05
-3.68705e-06
-3.70071e-06
-2.00171e-06
-2.49951e-06
3.85556e-05
-7.10126e-06
-7.21489e-06
-7.04316e-06
-7.14842e-06
-3.43467e-06
-2.80154e-06
4.83521e-05
-7.68096e-06
-9.1519e-07
-1.30094e-06
-7.23243e-06
-8.24462e-07
-1.0142e-06
-6.57108e-06
-6.15107e-06
-6.16153e-06
-5.97753e-06
-1.38875e-05
-1.91e-06
-2.02831e-06
5.59273e-06
8.79837e-06
-9.99651e-06
-7.03292e-06
1.1507e-05
4.7132e-06
5.54396e-06
-4.73477e-06
5.00911e-07
-4.16875e-06
5.78321e-05
-1.64756e-05
-7.96131e-06
-1.516e-06
-9.54245e-07
-4.74561e-06
-8.24605e-07
-1.56104e-06
-5.21764e-06
-5.28118e-06
-4.59566e-06
-5.04345e-06
-3.50066e-06
-6.68773e-06
5.36139e-05
-6.02363e-06
-8.56404e-07
-8.6409e-07
-9.18401e-06
-2.59607e-06
-2.10847e-06
-6.01989e-06
-5.93343e-06
-6.15366e-06
-5.6844e-06
-1.63109e-05
-1.67963e-06
3.46516e-06
8.22315e-06
-4.27633e-06
-1.83554e-06
2.96377e-06
3.1456e-06
-1.04949e-05
-9.40884e-06
9.79911e-06
5.93826e-06
-2.17065e-05
-4.57757e-06
-2.6567e-06
2.19767e-06
2.00554e-05
-3.38393e-06
-8.17923e-06
9.29537e-06
2.26609e-06
-2.02176e-06
-2.48188e-08
2.35429e-08
2.02037e-06
-2.16352e-06
-7.28947e-07
-2.54427e-07
3.12354e-06
-2.73466e-08
1.05049e-06
-8.23231e-06
-2.30319e-07
1.05131e-06
6.38818e-06
-5.59029e-07
-1.25736e-05
-2.37132e-07
8.27266e-07
1.95097e-06
1.05915e-05
-5.54662e-06
-1.54268e-07
7.01103e-07
3.19235e-07
6.1585e-06
-1.47795e-06
3.69576e-07
1.94729e-07
-6.61001e-06
1.66228e-07
-1.68078e-07
6.04755e-06
3.06108e-06
4.4572e-06
5.16638e-05
-3.86394e-06
-5.58578e-06
-1.24329e-06
-1.33844e-06
-1.67411e-06
-1.71375e-06
-1.04717e-06
-1.29903e-06
4.51257e-07
5.87093e-06
5.21341e-05
-6.0964e-06
-3.6204e-06
-1.5996e-06
-1.72711e-06
2.75213e-07
6.59543e-07
4.06134e-05
-2.85859e-07
-6.36048e-08
-9.66787e-07
-6.26672e-07
1.54772e-07
9.36969e-07
1.05059e-06
-6.61241e-06
-3.67284e-08
-6.49371e-08
7.02217e-06
-8.54665e-06
6.52063e-09
3.12574e-06
5.52685e-06
-7.61486e-07
-9.08889e-06
-2.72652e-07
5.28932e-07
5.94056e-07
9.00004e-06
5.37414e-06
-7.70817e-07
5.93226e-05
-2.01852e-06
-1.77508e-06
-1.84009e-06
-1.62137e-06
-1.28858e-06
-2.49111e-06
5.35804e-05
8.30725e-08
-5.67199e-08
4.70326e-05
2.23953e-07
3.45554e-07
1.33317e-07
1.58531e-07
2.89909e-07
-4.87113e-07
-7.01843e-06
8.01545e-08
-6.61076e-07
-1.50312e-07
7.83274e-06
-5.10521e-06
-1.13843e-07
1.87184e-07
2.27746e-07
5.32856e-06
-5.24435e-07
4.00922e-07
9.30362e-08
5.71671e-05
1.88324e-08
1.38089e-07
-9.19874e-07
-6.82333e-07
-3.23652e-07
4.4182e-07
7.27381e-07
3.69584e-08
-8.46379e-07
5.27878e-05
2.32223e-07
6.62733e-07
1.45124e-07
-3.3849e-07
-1.11756e-06
-3.8768e-08
-7.23925e-06
-1.87733e-07
-2.48335e-07
7.65556e-06
-3.2768e-06
1.21402e-07
1.43503e-08
3.16012e-06
-5.14351e-06
3.34283e-08
-3.87554e-07
5.63665e-06
-1.62882e-05
2.64505e-07
4.46832e-07
-2.68744e-06
1.74179e-05
-2.03179e-06
1.13817e-07
-2.01604e-07
2.14099e-06
-2.07646e-06
3.86888e-07
-7.33614e-07
2.42315e-06
-3.45337e-06
3.03956e-06
7.85623e-07
-3.71817e-07
-5.74605e-07
-3.90078e-06
-6.21945e-06
2.26689e-06
9.87515e-07
7.44043e-06
-1.43758e-06
-1.00848e-05
4.17384e-07
-4.34412e-06
3.72815e-07
1.50763e-05
-5.50393e-06
2.81655e-06
-3.72121e-06
-9.21393e-07
1.05074e-06
6.27925e-06
-1.76953e-06
-4.99417e-07
-5.93233e-06
1.68105e-06
7.37099e-07
5.78313e-06
4.23435e-06
1.08569e-06
7.45513e-05
-1.453e-06
-1.14769e-06
-4.8309e-06
-3.90868e-06
-3.00831e-06
-2.89933e-06
-5.32354e-06
-5.63608e-06
-1.28192e-05
1.39682e-06
7.35133e-05
-1.79364e-07
-7.70929e-07
-1.87253e-06
-2.89974e-06
-1.53277e-06
-5.95345e-07
4.66986e-05
-1.56073e-06
-1.66486e-06
-3.19776e-06
-3.47701e-06
-2.22877e-06
-1.67074e-06
-2.97638e-06
-8.29144e-06
-1.83881e-07
1.21873e-07
6.82069e-06
-4.67619e-06
-8.68118e-08
-2.63822e-06
7.40123e-06
1.92997e-06
-8.6613e-06
1.43695e-06
-1.10701e-06
-2.67558e-06
9.07697e-06
2.5423e-06
-1.20437e-05
7.43118e-05
-3.63516e-07
-8.6314e-07
-1.72283e-06
-1.45256e-06
-2.60715e-06
-5.09748e-06
6.52242e-05
-9.7283e-07
-1.75905e-06
5.43366e-05
-1.29792e-06
-1.12713e-06
-8.33147e-07
-1.78511e-06
-1.53665e-06
-1.19463e-06
-7.7904e-06
7.62011e-08
3.25824e-07
1.94153e-07
6.22139e-06
-5.20111e-06
1.64232e-06
-2.9624e-07
-1.85304e-06
2.79186e-06
2.91621e-06
-7.32937e-07
-1.70017e-06
5.79356e-05
-1.71487e-06
-1.45104e-06
-1.09949e-06
-1.77629e-06
-8.16653e-07
-2.08308e-06
-1.43772e-06
-2.0027e-06
-8.71847e-07
5.94541e-05
-1.99716e-06
-2.28721e-06
-1.87242e-06
-1.09254e-06
-1.18119e-06
-1.19165e-06
-7.52226e-06
-6.26043e-07
-1.07665e-07
4.49422e-06
-2.86568e-06
-1.68423e-07
3.2127e-07
2.71284e-06
-4.13652e-06
-3.43688e-07
1.47507e-06
1.30497e-06
-1.94953e-05
-4.24035e-07
-1.06398e-06
8.43079e-07
1.92684e-05
-4.93578e-07
-7.55348e-07
1.1678e-06
8.11217e-08
-2.59027e-06
3.7332e-07
-5.4898e-07
2.76593e-06
2.58867e-07
-1.00779e-06
-9.69735e-09
7.58625e-07
4.73775e-07
1.03842e-06
-5.94948e-06
-1.19883e-06
3.11355e-07
5.32476e-06
1.08064e-06
-1.49062e-05
3.18264e-07
6.30172e-07
2.17733e-08
1.28554e-05
1.36503e-06
-5.74185e-07
6.2836e-08
1.34085e-06
-1.69298e-06
-5.01557e-07
4.21052e-07
7.07205e-08
-4.31373e-06
7.25744e-07
-6.47266e-07
3.74348e-06
4.50499e-06
1.87327e-06
7.44747e-05
-1.33695e-06
-1.95167e-06
9.72518e-08
-4.51356e-07
-1.57324e-06
-2.35776e-06
6.04364e-07
6.67685e-07
-3.24343e-06
3.7799e-06
7.96819e-05
-1.27506e-06
-1.56018e-06
-2.47541e-07
8.82734e-07
-8.89772e-07
2.55906e-08
4.75968e-05
-1.48438e-06
-7.0139e-07
-3.01734e-07
-4.02339e-07
-1.64635e-06
5.82079e-07
6.7664e-07
-5.55805e-06
-1.6086e-06
1.27931e-06
4.99757e-06
-7.95082e-06
2.2756e-07
1.33457e-07
7.58981e-06
-1.59419e-07
-8.30026e-06
9.29206e-07
4.15524e-07
-6.43151e-07
7.7581e-06
3.13166e-06
-6.24452e-06
7.94421e-05
-8.88921e-07
-8.02113e-07
6.86159e-07
8.60686e-07
3.88333e-07
-2.73415e-06
7.44816e-05
-6.4793e-07
-8.60694e-07
5.57099e-05
-3.88254e-07
1.32818e-06
6.87558e-07
-1.24661e-06
-2.38071e-07
4.06384e-07
-5.55574e-06
-5.60671e-07
-9.25945e-08
5.50965e-07
5.01011e-06
-1.82514e-06
5.76043e-07
2.68647e-07
-7.94368e-07
1.29128e-06
4.8354e-07
3.97347e-07
-1.0648e-06
5.33948e-05
-1.15007e-06
-7.11801e-07
4.64666e-07
1.32062e-06
-1.16795e-06
1.19222e-06
-9.83938e-07
1.72965e-07
-9.6587e-07
5.96256e-05
-4.45836e-07
1.53019e-06
8.82347e-07
-1.49286e-06
-9.86604e-07
-1.20264e-06
-2.22871e-06
4.23799e-07
-7.27043e-07
1.84423e-06
-3.32536e-06
-1.02033e-07
-5.17558e-07
3.94495e-06
-7.91082e-07
-5.149e-07
-4.06908e-07
6.48096e-07
-1.768e-05
-4.18692e-07
1.03619e-06
-4.96955e-07
1.65936e-05
-2.26035e-06
7.92561e-07
-5.77174e-07
2.04496e-06
-3.08162e-06
2.90497e-07
-5.85571e-07
3.3767e-06
-5.36202e-07
-1.23491e-06
8.39665e-07
9.31446e-07
5.86219e-08
1.10769e-06
-5.44169e-06
-8.83987e-07
-3.82352e-07
5.54171e-06
6.30058e-07
-1.13183e-05
1.12918e-07
1.26365e-06
-3.54994e-07
9.66663e-06
1.46152e-06
-1.14614e-06
7.02043e-07
1.20455e-06
-4.75521e-07
-1.74644e-06
7.62658e-08
2.4412e-07
-4.76831e-06
-7.87642e-07
-5.1994e-07
5.7555e-06
3.59582e-06
1.4152e-06
6.94391e-05
-1.71336e-08
-4.98576e-07
-6.79932e-07
-4.45963e-07
5.06689e-07
4.03491e-07
3.30317e-07
4.25699e-07
-1.33443e-06
4.34786e-06
7.95865e-05
-4.17628e-07
3.67388e-07
1.64803e-07
5.63249e-07
8.38493e-07
8.93073e-07
4.83098e-05
-1.1165e-06
-6.72249e-07
-1.30412e-06
-8.83965e-07
3.00784e-07
-3.16004e-07
2.13072e-07
-4.13204e-06
-4.90282e-07
1.41735e-06
1.59046e-06
2.453e-06
2.14323e-07
-4.79638e-07
6.32628e-07
-3.67311e-07
-7.26179e-06
1.51878e-07
1.25689e-07
6.98422e-06
-1.79641e-07
-8.11788e-06
2.16574e-07
-4.89009e-07
3.80866e-07
8.18908e-06
3.51859e-06
-5.77339e-06
8.00579e-05
5.06919e-07
7.02571e-07
8.68456e-07
9.76295e-07
2.40936e-06
-1.6735e-06
8.16121e-05
1.00413e-06
-1.078e-06
5.78288e-05
1.01296e-06
8.72605e-07
7.74898e-07
-3.46935e-08
-1.03318e-06
-3.35163e-07
-5.80375e-06
-1.17999e-07
2.23531e-06
-6.05406e-07
5.29597e-06
-2.76992e-07
-1.57628e-06
-5.492e-07
-3.57901e-07
2.76037e-06
-2.25759e-06
-4.39128e-07
-2.76792e-07
1.99368e-07
3.56058e-06
-7.86438e-07
6.16429e-07
6.57072e-07
4.99125e-05
-6.30704e-08
-3.6581e-07
-6.57215e-07
-1.08787e-06
-1.03579e-06
5.42518e-07
-8.97394e-07
6.2418e-07
-1.42855e-06
6.00108e-05
2.66275e-07
5.99115e-07
8.83118e-08
-6.04386e-07
-1.04792e-06
6.07332e-08
-3.42344e-06
3.83011e-07
-1.2236e-06
3.8102e-06
-4.37641e-06
1.23559e-06
-3.06776e-07
3.4476e-06
-2.43153e-06
1.11714e-07
-2.48709e-07
3.22559e-06
-1.42976e-05
1.48819e-07
1.53472e-06
-5.57647e-07
1.17432e-05
-1.86985e-06
1.08861e-06
-1.26711e-06
2.04836e-06
-3.56635e-06
-1.62952e-09
3.74762e-09
3.56424e-06
-4.08374e-07
-6.37476e-08
2.6661e-07
2.05511e-07
-6.48487e-07
2.75286e-07
-5.34378e-06
-5.62298e-08
1.16789e-06
4.60532e-06
-2.44903e-07
-8.76991e-06
-3.06086e-08
4.19864e-07
1.55115e-07
8.47045e-06
6.35847e-08
-1.7447e-08
-6.38786e-07
3.8708e-07
7.57976e-07
-5.52408e-07
-1.94725e-07
-2.01985e-08
-6.88345e-06
-3.69977e-07
-3.09913e-07
7.77827e-06
5.01828e-06
2.4888e-06
6.63777e-05
-1.27358e-06
-1.10443e-06
-1.2528e-06
-1.15914e-06
1.52143e-07
7.23321e-08
-5.10869e-08
1.70901e-07
6.94057e-07
4.11679e-06
8.0539e-05
-2.2972e-07
-1.38114e-07
-5.98628e-08
-3.17372e-07
-7.35318e-07
1.60328e-06
5.18078e-05
-1.2496e-06
-7.90284e-07
-9.47206e-07
-7.04271e-07
3.61002e-07
-5.71078e-07
2.29572e-07
-1.84129e-06
5.59372e-07
-1.393e-06
1.47694e-07
1.79191e-06
7.05446e-07
-6.35178e-07
1.65628e-06
-1.33263e-06
9.45955e-08
-4.88506e-07
-6.61578e-06
2.59893e-07
1.38618e-07
6.21727e-06
-5.57934e-07
-8.28152e-06
1.22784e-07
-2.5024e-07
4.91299e-07
8.47561e-06
3.95311e-06
-5.36877e-06
8.19788e-05
3.78873e-07
4.27356e-07
6.1375e-07
5.63583e-07
3.74577e-06
-1.04191e-06
8.69782e-05
1.17306e-06
-1.20686e-06
6.15873e-05
1.13149e-06
1.16321e-06
9.22431e-07
-2.98256e-07
-9.39493e-07
-3.55033e-07
-6.4146e-06
3.73187e-07
1.01878e-06
-1.30223e-06
7.49792e-06
-3.3464e-06
-4.42372e-07
-8.16779e-07
2.34621e-07
7.75077e-07
3.59585e-06
-3.89171e-06
-5.97768e-07
7.92194e-07
5.8779e-07
3.72266e-06
-6.13168e-07
1.43932e-06
1.13729e-07
4.93235e-05
-1.15983e-06
-9.94998e-07
-1.03857e-06
-7.28546e-07
-9.03114e-07
-3.34097e-07
-1.17363e-06
6.87783e-08
-7.29492e-07
6.16688e-05
-1.8919e-07
4.41986e-08
-3.67935e-07
2.78781e-07
-6.6596e-07
3.0018e-07
-4.62643e-06
-5.47962e-08
-1.41481e-06
4.95795e-06
-1.82359e-06
6.55354e-08
4.51844e-07
-5.83869e-08
1.36459e-06
-8.32392e-07
2.23735e-07
-2.68845e-08
6.35542e-07
-3.64039e-06
3.44386e-07
-3.87097e-07
3.79683e-06
-9.93163e-06
4.05208e-07
2.94102e-07
-2.01114e-07
8.70394e-06
-2.00524e-06
6.8177e-07
-5.93914e-07
1.91739e-06
-3.43755e-06
-5.93022e-07
8.11419e-07
3.21915e-06
6.30104e-08
1.04104e-06
-9.63748e-07
-1.40304e-07
-4.21174e-07
-6.02274e-07
-4.00284e-06
4.35762e-07
9.80145e-07
3.61038e-06
-8.91275e-07
-8.64311e-06
-1.6544e-07
-1.22426e-07
9.07983e-07
8.91427e-06
-8.31135e-07
-1.99936e-07
8.09417e-08
1.10353e-07
7.23561e-07
1.16215e-07
6.39737e-07
-6.26695e-07
-8.15184e-06
5.63912e-07
-4.28693e-07
8.00357e-06
4.62892e-06
3.29408e-06
6.45981e-05
-1.01231e-06
-1.58707e-06
-5.95369e-07
-1.28488e-06
-3.35883e-07
-3.47844e-07
-6.54148e-07
-3.25939e-07
1.78947e-06
3.73919e-06
8.17926e-05
-6.97443e-07
-6.12359e-07
-5.92907e-07
-2.50639e-07
-4.22977e-07
2.47744e-06
5.43513e-05
-6.16311e-07
-4.56516e-07
-3.95129e-07
-5.11591e-07
-6.75289e-08
-5.38205e-07
-2.23184e-07
-2.03794e-06
7.06705e-07
-6.7459e-07
-4.95216e-07
2.07806e-06
6.26262e-07
8.10316e-07
5.85733e-07
-4.22849e-07
-7.67157e-07
-8.32306e-07
-5.6853e-06
3.1792e-08
8.06295e-07
4.84721e-06
-9.98787e-07
-8.85409e-06
2.4172e-07
2.86338e-07
1.6455e-07
9.16027e-06
4.86836e-06
-4.05205e-06
8.40592e-05
1.7071e-08
-9.50514e-09
1.3978e-07
2.50005e-07
4.38432e-06
-7.48203e-07
9.19496e-05
1.21209e-06
-6.67809e-07
6.54349e-05
1.08533e-06
1.06685e-06
5.73322e-07
-4.72124e-08
-1.68504e-07
-3.98621e-08
-7.88574e-06
6.55055e-07
9.53947e-07
-3.25599e-07
7.81443e-06
-3.64876e-06
1.30587e-07
-9.57515e-07
4.6156e-07
3.9071e-07
3.62341e-06
-3.1942e-06
-6.79621e-07
8.10844e-07
7.02683e-07
2.68832e-06
-3.28029e-07
1.89944e-06
-6.89008e-07
5.11703e-05
-1.09888e-06
-6.12169e-07
-9.06225e-07
-6.28925e-07
-1.66851e-06
-6.87427e-07
-1.50713e-06
-1.91658e-07
-6.25584e-07
6.38022e-05
-2.37057e-07
5.02867e-08
-1.93673e-07
3.1406e-07
-3.76389e-07
2.77906e-07
-5.6385e-06
-4.60384e-07
-1.05091e-06
6.29033e-06
-1.15863e-06
-5.14647e-07
1.44564e-06
-9.17652e-07
1.14529e-06
-5.64536e-07
-2.51909e-07
2.00467e-07
2.95009e-07
3.2097e-07
-3.60438e-06
8.32129e-07
-1.3e-06
3.38325e-06
-8.00733e-06
3.6635e-07
2.3512e-07
-9.91061e-07
7.77134e-06
-1.74071e-06
7.4968e-07
-5.30261e-07
1.52129e-06
-2.83663e-06
-5.86416e-07
1.06602e-06
2.35703e-06
2.78547e-07
1.24397e-06
-1.07736e-06
-4.45151e-07
-7.08963e-08
-9.68164e-07
-3.57876e-06
5.29144e-07
5.02481e-07
3.5862e-06
-1.26211e-06
-9.20156e-06
-7.52264e-08
-2.06774e-07
1.53168e-06
9.21398e-06
-5.50057e-07
-5.40106e-07
2.62972e-07
2.00535e-07
5.13801e-07
1.12856e-07
1.21189e-06
-1.51312e-06
-7.75457e-06
1.80804e-06
-9.97654e-07
7.24543e-06
3.96878e-06
3.71866e-06
6.59108e-05
-5.77975e-07
-1.69723e-06
-5.59337e-07
-1.54146e-06
-1.20765e-06
-1.02625e-06
-1.36724e-06
-1.02301e-06
8.53983e-07
3.59019e-06
8.38904e-05
-1.16843e-06
-4.18388e-07
-9.32369e-07
-5.39353e-08
-8.3086e-07
2.86977e-06
5.71432e-05
-3.64905e-07
-1.65977e-07
-3.14133e-07
-3.23284e-07
-6.88201e-07
-1.26048e-06
-8.59885e-07
-2.26262e-06
1.66921e-06
-1.12782e-06
-8.47717e-07
1.73809e-06
1.65234e-06
3.32035e-07
2.36738e-07
-1.33848e-06
-8.82632e-07
-3.84835e-06
3.10251e-07
5.30842e-07
3.00726e-06
-1.26422e-06
-9.19235e-06
5.72996e-07
1.1036e-06
2.19627e-08
8.75801e-06
4.73824e-06
-3.11376e-06
8.676e-05
-5.47669e-07
-1.22897e-07
-3.38858e-07
4.02784e-07
3.84865e-06
-2.00648e-07
9.663e-05
8.79826e-07
9.55406e-08
6.93807e-05
5.08901e-07
4.02575e-07
-2.19618e-07
3.48726e-07
5.63653e-07
1.92927e-07
-7.74999e-06
6.66291e-07
4.73483e-07
9.1462e-08
7.39858e-06
-3.11937e-06
1.0469e-06
-7.90129e-07
1.10137e-06
-1.08279e-07
1.86952e-06
-2.22659e-06
-7.27635e-07
7.45252e-07
7.42166e-07
1.90066e-06
-4.33852e-07
1.42277e-06
-5.92157e-07
5.26685e-05
-8.90443e-07
-6.08424e-07
-6.53499e-07
-6.62521e-07
-1.28424e-06
-4.07388e-07
-9.36115e-07
-2.54296e-07
-1.35155e-07
6.53508e-05
-2.11779e-07
2.19752e-08
-2.46447e-07
2.56669e-07
1.81845e-08
2.24396e-07
-7.34528e-06
-3.74455e-07
-3.42331e-07
7.90331e-06
-1.07457e-06
-1.23262e-06
1.05726e-06
1.24992e-06
-3.17106e-06
6.96066e-07
-9.98874e-07
2.88171e-06
-7.66017e-06
4.13483e-07
-1.35204e-07
-2.21221e-07
7.46796e-06
-1.28954e-06
4.41009e-07
-2.7381e-07
1.12235e-06
-1.90189e-06
-3.00522e-07
6.2341e-07
1.579e-06
6.26211e-07
8.50527e-07
-6.88095e-07
-7.88643e-07
1.90653e-07
-7.42595e-07
-3.7144e-06
-7.7082e-09
3.57497e-07
3.91655e-06
-1.31005e-06
-8.97238e-06
4.51382e-07
-3.47826e-07
1.86807e-06
8.31081e-06
-5.21035e-07
-4.36808e-07
1.18507e-07
7.22661e-08
5.73397e-07
1.93672e-07
9.73632e-07
-1.29737e-06
-6.69913e-06
2.01639e-06
-1.15684e-06
6.16331e-06
3.14969e-06
3.81225e-06
6.92755e-05
-7.52483e-07
-1.91419e-06
-7.06217e-07
-1.5412e-06
-1.46312e-06
-1.49801e-06
-1.26678e-06
-1.18467e-06
-5.51279e-07
3.26791e-06
8.69863e-05
-1.42045e-06
-3.53625e-07
-9.96306e-07
1.07456e-07
-1.3247e-06
1.11102e-06
5.96385e-05
-6.74875e-08
7.21826e-09
2.13972e-07
4.63131e-08
-1.31679e-06
-8.07481e-07
-9.08609e-07
-1.49749e-06
1.20844e-06
-1.61929e-06
5.83639e-07
-2.34649e-06
2.86233e-07
3.69819e-07
1.69044e-06
-1.18919e-06
-8.12362e-06
6.72337e-07
1.18799e-06
-1.3656e-07
7.58904e-06
3.15664e-06
-2.8269e-06
9.0074e-05
-6.01058e-07
1.11489e-07
-3.71669e-08
6.95204e-07
2.93364e-06
3.93601e-07
9.97273e-05
-1.10362e-07
3.5143e-07
7.19131e-05
-4.00496e-07
2.58192e-07
-4.22916e-08
3.20096e-07
7.69762e-07
3.65983e-07
-8.80625e-06
6.30698e-07
-4.09583e-07
2.10235e-07
8.26454e-06
-1.67189e-06
-7.73515e-07
3.14719e-07
6.86685e-07
1.74911e-06
-3.05115e-07
-3.02609e-07
-1.44668e-07
5.24141e-05
-2.64016e-07
-2.69345e-07
1.95298e-08
-3.5487e-07
-6.67919e-07
-8.72669e-08
-5.0131e-07
-3.51565e-07
1.66141e-07
6.54408e-05
-3.14664e-07
1.08331e-08
-3.49199e-07
3.33474e-07
2.07753e-07
2.98215e-07
-8.70445e-06
-7.69759e-08
1.74881e-07
8.60641e-06
-1.39082e-06
-3.5131e-07
5.07864e-07
1.23427e-06
-2.58162e-06
4.80174e-07
-4.65996e-07
2.42277e-06
-7.29103e-06
4.31248e-07
-4.1316e-07
2.42141e-07
7.19694e-06
-1.06566e-06
7.45252e-08
-6.3771e-08
1.0549e-06
-1.39199e-06
-1.62418e-07
2.62701e-07
1.29171e-06
9.03521e-07
4.4771e-07
-4.12637e-07
-9.38594e-07
4.15711e-07
-3.86898e-07
-4.2786e-06
-5.4015e-07
3.841e-08
4.75153e-06
-1.05964e-06
-7.42564e-06
1.08716e-06
-7.32668e-07
1.53147e-06
6.59932e-06
-6.265e-07
2.13783e-09
-1.88053e-07
-4.70528e-07
8.43305e-07
4.39638e-07
6.51689e-07
-3.36404e-07
-5.6161e-06
1.059e-06
-1.10552e-06
5.34733e-06
1.02303e-06
2.58918e-06
7.05949e-05
-4.80349e-07
-1.34592e-06
-2.99836e-07
-6.16522e-07
-5.61043e-07
-1.14269e-06
-7.10231e-08
-4.14193e-07
-1.27983e-06
1.4456e-06
8.79973e-05
-9.64151e-07
6.41176e-08
-2.60518e-08
7.72386e-07
-2.99566e-07
-1.77652e-06
5.80602e-05
8.04124e-07
8.05331e-07
1.25579e-06
7.68486e-07
-5.59081e-07
-2.9961e-07
-4.00526e-07
-4.20847e-07
3.1068e-07
-8.46415e-07
6.57016e-07
-1.0865e-06
5.11196e-08
3.50772e-07
6.84608e-07
-4.92347e-07
-7.38897e-06
1.08018e-06
5.82898e-09
-6.46651e-07
7.44196e-06
4.28832e-07
-1.65354e-06
9.13426e-05
4.63665e-09
5.57491e-07
7.88234e-07
1.19492e-06
2.56258e-06
3.547e-07
9.86845e-05
5.88288e-07
3.55981e-07
6.89395e-05
3.36143e-07
7.54883e-07
3.52826e-07
3.83573e-07
6.70536e-07
3.17435e-07
-7.58057e-06
5.80892e-07
4.41238e-07
-1.93245e-07
7.33998e-06
-1.93461e-06
-6.90663e-07
-3.7751e-07
5.30345e-07
2.46077e-06
1.16674e-08
-3.00906e-06
3.10623e-07
5.02013e-05
8.59522e-07
4.61314e-07
1.24122e-06
3.58417e-07
-8.16586e-09
2.70371e-07
7.49902e-08
-2.3468e-07
3.08836e-07
6.19987e-05
-2.85044e-07
1.65075e-07
-3.20673e-07
4.1437e-07
3.47906e-07
3.91931e-07
-8.93056e-06
3.38413e-07
2.86752e-07
8.4267e-06
-1.30999e-06
-4.47195e-08
-1.17425e-07
1.47214e-06
-2.28388e-06
2.9346e-07
-1.75843e-07
2.47689e-06
-7.15127e-06
3.09492e-07
-3.79425e-07
3.0864e-07
7.2214e-06
-1.0298e-06
-6.34e-08
9.65946e-08
9.96609e-07
-1.28199e-06
-1.80757e-07
7.24765e-08
1.39027e-06
9.03477e-07
1.88601e-07
-2.9854e-07
-7.93538e-07
9.34354e-07
-6.15643e-08
-5.25262e-06
-7.90754e-07
-7.14268e-07
5.88485e-06
-2.18735e-07
-6.20678e-06
1.29576e-06
-9.61027e-07
-2.41383e-07
6.33217e-06
-1.1078e-06
4.52905e-07
-3.26883e-07
-1.08715e-06
1.47846e-06
5.90476e-07
5.96264e-07
5.37966e-07
-5.35717e-06
-3.40735e-07
-1.14065e-06
5.70432e-06
-2.00541e-06
-8.17002e-07
6.7246e-05
5.27909e-07
3.35089e-07
7.83089e-07
1.09962e-06
7.97105e-07
4.10395e-07
9.77529e-07
1.24058e-06
-7.86694e-07
-1.44799e-06
8.29195e-05
7.40466e-07
1.07394e-06
1.67404e-06
1.81866e-06
1.43504e-07
-3.37179e-06
5.52464e-05
1.43335e-06
1.08406e-06
1.74662e-06
9.57139e-07
-3.26714e-08
4.13935e-08
2.55346e-08
-9.60564e-07
3.669e-08
-4.71395e-07
1.53877e-06
-5.06756e-07
-2.56503e-07
2.49947e-07
5.13312e-07
5.51397e-07
-7.54359e-06
1.43943e-06
-1.08599e-06
-1.01578e-06
7.65454e-06
-1.82213e-06
-2.97594e-08
8.67163e-05
8.23281e-07
1.07536e-06
1.73852e-06
2.02412e-06
2.18563e-06
8.29756e-07
9.2399e-05
8.60138e-07
2.33648e-07
6.3615e-05
5.06048e-07
9.02342e-07
4.18087e-07
3.64948e-07
5.20591e-07
3.32475e-07
-7.25324e-06
5.29012e-07
5.90709e-07
-3.08357e-07
7.30202e-06
-3.0533e-06
-5.74243e-07
-8.06411e-07
4.49462e-07
3.80265e-06
1.81848e-07
-2.69647e-06
7.23417e-07
4.59007e-05
1.46698e-06
7.13147e-07
1.64668e-06
5.80319e-07
6.15724e-07
5.92633e-07
6.28425e-07
2.02271e-07
6.03214e-07
5.68247e-05
-1.41e-08
6.05315e-07
-6.31795e-08
6.99206e-07
6.21235e-07
6.53308e-07
-8.46485e-06
6.15309e-07
3.11408e-07
7.97406e-06
-1.66332e-06
9.40418e-08
-2.65352e-07
1.83463e-06
-2.65715e-06
1.08947e-07
6.40451e-08
3.20757e-06
-7.40203e-06
1.64205e-07
-2.85461e-07
2.45293e-07
7.8812e-06
-9.76921e-07
-2.0071e-07
1.28418e-07
1.04921e-06
-1.61494e-06
-2.64192e-07
-4.30529e-08
1.92219e-06
6.30402e-07
1.17596e-07
-3.13072e-07
-4.34926e-07
1.44443e-06
2.94915e-09
-6.54986e-06
-7.12257e-07
-1.48878e-06
7.30351e-06
5.65653e-07
-6.7653e-06
1.287e-06
-1.0399e-06
-1.43807e-06
7.39061e-06
-1.86591e-06
6.30666e-07
-3.35655e-07
-1.31442e-06
2.26843e-06
6.16893e-07
6.41738e-07
9.81236e-07
-6.16822e-06
-9.25258e-07
-1.1242e-06
6.5947e-06
-2.71546e-06
-3.97608e-06
6.22523e-05
1.46876e-06
1.53428e-06
1.61121e-06
1.97324e-06
1.06279e-06
1.4434e-06
7.54527e-07
1.837e-06
2.68307e-07
-3.21106e-06
7.49585e-05
1.77269e-06
1.75803e-06
2.35662e-06
2.30095e-06
3.23915e-07
-3.3396e-06
5.28302e-05
1.41143e-06
9.10745e-07
1.6276e-06
8.66247e-07
3.19769e-07
2.44041e-07
3.2036e-07
-1.97532e-06
4.02996e-08
-2.53897e-07
2.51284e-06
-6.65946e-07
-3.73912e-07
1.10847e-07
9.29011e-07
1.28123e-06
-7.94827e-06
1.49063e-06
-2.32521e-06
-9.78274e-07
8.47989e-06
-2.81174e-06
7.27131e-07
7.55106e-05
1.8303e-06
2.08953e-06
2.56542e-06
2.82897e-06
2.86939e-06
1.77899e-06
8.17278e-05
1.01416e-06
8.32079e-08
5.88951e-05
5.71508e-07
9.69122e-07
5.73847e-07
3.45472e-07
3.64372e-07
3.2801e-07
-7.45469e-06
4.11297e-07
4.32424e-07
-1.99829e-07
7.82496e-06
-4.62082e-06
-6.29726e-07
-5.60461e-07
4.8105e-07
5.43328e-06
-1.0333e-07
-1.45649e-07
7.63944e-07
4.10524e-05
1.05581e-06
2.78102e-07
1.01371e-06
1.53513e-07
9.38221e-07
5.9511e-07
9.2266e-07
5.68671e-07
8.16102e-07
5.31528e-05
2.38879e-07
9.00492e-07
2.5645e-07
8.6092e-07
8.39179e-07
8.24561e-07
-8.05727e-06
7.44517e-07
2.81229e-07
7.6834e-06
-1.94722e-06
7.1977e-08
-1.77513e-07
2.05275e-06
-3.69e-06
2.77584e-09
8.48901e-08
4.36627e-06
-8.42071e-06
1.65346e-07
-3.42644e-07
2.75347e-07
9.13876e-06
-1.20463e-06
-3.21777e-07
7.36873e-08
1.45272e-06
-2.26985e-06
-3.08651e-07
-4.00566e-08
2.61856e-06
2.42126e-07
1.41237e-07
-3.11338e-07
-7.20246e-08
1.45715e-06
-2.30102e-07
-8.0265e-06
-1.93531e-07
-1.70666e-06
8.69964e-06
9.01729e-07
-8.23093e-06
1.04103e-06
-1.09969e-06
-1.72332e-06
9.11117e-06
-2.68891e-06
4.2079e-07
-3.69711e-07
-1.17521e-06
3.10711e-06
7.05935e-07
5.3514e-07
8.66165e-07
-6.65135e-06
-5.87026e-07
-4.01213e-07
6.23828e-06
-2.07746e-06
-5.53175e-06
6.01226e-05
1.73173e-06
1.73819e-06
1.7091e-06
2.00659e-06
2.66932e-07
1.25831e-06
2.0724e-07
8.20848e-07
2.01698e-07
-3.0078e-06
6.79369e-05
1.82555e-06
1.74759e-06
2.15487e-06
2.02219e-06
3.55463e-07
-1.99991e-06
5.00817e-05
1.08017e-06
6.58938e-07
1.1248e-06
6.20683e-07
3.87472e-07
3.21031e-07
4.0157e-07
-2.89513e-06
1.28311e-07
-9.7553e-08
3.21984e-06
-1.24263e-06
-3.36322e-07
3.47241e-08
1.54422e-06
1.25097e-06
-9.26309e-06
4.16487e-07
-2.31554e-06
-9.08596e-08
1.0002e-05
-2.09722e-06
2.04524e-07
6.4076e-05
2.01469e-06
2.07267e-06
1.88323e-06
1.82492e-06
3.30555e-06
1.95679e-06
7.13604e-05
8.15176e-07
-8.27639e-08
5.66781e-05
6.00236e-07
7.70879e-07
6.39842e-07
2.81909e-07
2.09037e-07
2.88367e-07
-8.27675e-06
1.11179e-07
1.75687e-07
9.51788e-08
8.70989e-06
-6.29904e-06
-4.94047e-07
-9.83724e-08
6.38553e-07
7.11547e-06
-8.6256e-07
2.23961e-06
4.0716e-07
3.77785e-05
7.05068e-08
-3.96913e-07
-1.08966e-07
-4.55704e-07
7.88486e-07
2.30698e-07
7.03542e-07
5.61051e-07
8.20996e-07
5.19014e-05
2.99592e-07
8.51535e-07
3.29611e-07
8.70153e-07
8.41593e-07
8.73306e-07
-7.92459e-06
6.65997e-07
1.15914e-07
7.62097e-06
-2.21354e-06
-1.55526e-07
-6.0482e-08
2.42955e-06
-4.98186e-06
1.77168e-08
-1.61921e-07
5.53323e-06
-9.83867e-06
2.7799e-07
-5.42021e-07
4.56558e-07
1.04671e-05
-1.73061e-06
-2.88309e-07
2.75109e-08
1.99141e-06
-2.94893e-06
-3.31222e-07
2.14005e-08
3.25875e-06
-6.58519e-08
7.3252e-08
-1.87534e-07
1.80134e-07
1.14079e-06
-1.76855e-07
-9.26972e-06
1.54331e-07
-1.5359e-06
9.68736e-06
1.0652e-06
-1.00956e-05
5.07202e-07
-7.98523e-07
-1.60946e-06
1.09312e-05
-3.45166e-06
2.91974e-08
-3.12958e-07
-5.70828e-07
3.75483e-06
5.51426e-07
4.04507e-08
5.72174e-07
-5.65952e-06
-4.96713e-07
2.8276e-07
5.26084e-06
-4.85861e-07
-5.43388e-06
5.9532e-05
1.50169e-06
1.57837e-06
1.40353e-06
1.91204e-06
2.23713e-08
-3.18045e-07
3.59389e-07
5.09817e-08
1.25537e-07
-2.49208e-06
6.40393e-05
1.37321e-06
1.22796e-06
1.65692e-06
1.52022e-06
4.46431e-07
-8.92256e-07
4.71461e-05
5.5713e-07
4.56999e-07
5.39608e-07
4.22305e-07
5.11816e-07
4.39921e-07
5.79103e-07
-3.43789e-06
2.95784e-07
-6.95137e-08
3.65805e-06
-1.81272e-06
-1.95557e-07
-5.13189e-08
2.0596e-06
8.06382e-07
-1.03966e-05
-7.14979e-07
-9.25389e-07
1.06692e-06
1.01636e-05
-4.05964e-07
-9.30625e-07
5.79959e-05
4.7924e-07
4.83133e-07
5.75992e-07
4.44472e-07
2.43465e-06
1.2132e-06
6.48145e-05
5.36324e-07
-2.05511e-07
5.54948e-05
5.28541e-07
5.71193e-07
5.81936e-07
2.75282e-07
9.44367e-08
3.43528e-07
-9.20985e-06
-8.21041e-08
3.07924e-08
2.34132e-07
9.56335e-06
-7.8052e-06
-5.66885e-08
2.50605e-07
6.31441e-07
8.26568e-06
-1.28583e-06
3.17197e-06
-1.53447e-07
3.68428e-05
-8.68347e-07
-7.31084e-07
-9.2408e-07
-6.25478e-07
2.91396e-07
-3.48989e-07
1.93144e-07
4.06723e-07
6.97158e-07
5.16968e-05
2.31913e-07
7.04193e-07
2.29643e-07
8.13484e-07
6.9545e-07
8.11158e-07
-7.99657e-06
4.44744e-07
-1.14856e-07
7.86789e-06
-2.68478e-06
-3.40397e-07
1.1922e-07
2.90596e-06
-6.05168e-06
2.15093e-07
-6.51296e-07
6.33444e-06
-1.10083e-05
5.63449e-07
-6.94834e-07
5.8113e-07
1.12557e-05
-2.24045e-06
-1.15819e-07
-5.83283e-08
2.4146e-06
-3.55372e-06
-2.61957e-07
-1.77742e-08
3.83345e-06
-2.95175e-07
-4.18104e-08
-6.94848e-08
4.06471e-07
5.2208e-07
3.27446e-07
-9.88444e-06
4.39038e-08
-8.17893e-07
9.8089e-06
1.16711e-06
-1.17366e-05
-5.51976e-08
-1.68922e-07
-1.58508e-06
1.23787e-05
-4.02668e-06
-2.12397e-07
-2.75742e-08
-1.13221e-07
4.38084e-06
-9.6108e-10
-1.57114e-07
2.82805e-07
-5.18625e-06
-5.86043e-07
3.42139e-07
5.30447e-06
1.43631e-06
-4.85954e-06
5.75208e-05
1.13148e-06
1.43747e-06
1.01284e-06
1.72917e-06
1.74416e-07
-3.04916e-07
1.60953e-07
9.3057e-08
4.02011e-07
-2.65128e-06
6.28082e-05
1.09928e-06
9.87892e-07
1.51027e-06
1.31919e-06
5.3933e-07
3.18059e-07
4.36818e-05
1.37954e-07
2.41727e-07
3.89963e-07
1.79426e-07
7.09593e-07
5.55598e-07
7.94744e-07
-3.81954e-06
3.89822e-07
-5.17241e-08
4.02077e-06
-2.29451e-06
2.60624e-08
-2.21381e-07
2.48983e-06
4.70912e-07
-9.78229e-06
-6.80956e-07
-5.09445e-07
1.03511e-06
9.46667e-06
9.98075e-07
-2.3533e-06
5.49055e-05
3.16768e-08
-4.79578e-07
3.68339e-07
-3.34337e-07
1.67026e-06
-3.77867e-07
6.18689e-05
4.77528e-07
-1.84312e-07
5.43464e-05
5.04418e-07
5.83614e-07
5.50047e-07
4.503e-07
1.98671e-07
5.56407e-07
-1.00062e-05
-1.52505e-07
1.60506e-08
2.59509e-07
1.03607e-05
-8.43629e-06
2.44637e-07
4.54162e-07
2.08718e-07
8.33074e-06
-8.01966e-07
2.39805e-06
-7.1678e-07
3.74049e-05
-1.25621e-06
-5.55299e-07
-1.02914e-06
-4.08343e-07
-1.98202e-07
-8.44212e-07
-3.05251e-07
1.61852e-07
3.84438e-07
5.13602e-05
-4.61977e-08