/*--------------------------------*- C++ -*----------------------------------*\
| =========                 |                                                 |
| \\      /  F ield         | OpenFOAM: The Open Source CFD Toolbox           |
|  \\    /   O peration     | Version:  5.x                                   |
|   \\  /    A nd           | Web:      www.OpenFOAM.org                      |
|    \\/     M anipulation  |                                                 |
\*---------------------------------------------------------------------------*/
FoamFile
{
    version     2.0;
    format      ascii;
    class       volScalarField;
    location    "3.9";
    object      Ksl;
}
// * * * * * * * * * * * * * * * * * * * * * * * * * * * * * * * * * * * * * //

dimensions      [1 -3 -1 0 0 0 0];

internalField   nonuniform List<scalar> 
10571
(
7602.4
9489.87
6289.21
6527.22
6752.76
5700.43
3851.76
2231.96
4815.6
1310.62
5782.55
4988.04
1027.71
1517.48
6341.18
11521
9956.73
8977.76
4344.17
10508.1
12562.2
12611.3
11408.6
11689.1
4248.49
4181
1506.01
1915.34
1018.55
299.744
1874.19
1793.3
3240.79
7990.16
871.678
6220.08
1444.81
3801.07
651.33
7345.58
1262.77
457.393
1913.9
626.082
4289.25
8571.22
6597.27
9811.12
3028.27
1292.45
5293.67
2884.5
978.573
1015.45
2962.26
544.771
938.858
6478.89
658.738
563.616
929.379
694.476
122.146
2105.77
207.801
3440.07
1363.56
56.9683
2232.39
2573.05
4844.56
6225.64
2437.35
885.069
64.1341
42.6462
1007.1
97.4845
139.044
49.9762
274.388
2766.61
436.22
46.9339
131.596
29.3107
137.899
712.486
277.539
204.932
573.163
69.2392
1475.31
123.489
202.593
410.413
2274.65
503.251
37.2351
0.200814
302.533
65.8995
4.05096
8.38342
66.9095
244.316
193.495
6.45381
214.881
33.1769
154.165
388.607
233.891
27.0623
131.385
364.08
323.476
69.5763
11.6538
0
2257.71
503.636
32.4664
20.482
239.032
32.3013
36.6759
34.4156
35.5057
149.511
16050.8
298.812
11.7394
845.228
432.253
652.008
511.542
11219.6
237.106
11.1517
28.3842
573.639
236.65
77.3889
3.26197
2.38229e-13
1787.14
468.198
46.4451
14.4306
70.8978
56.7637
58.1766
116.392
80.4129
243.803
152.153
308.797
283.006
91.4394
131.507
222.038
152.768
0
258.011
11.5356
25.2367
351.845
7.81037e-14
0
39.933
5.77829e-13
11.4518
1917.57
356.609
5.60902
55.9804
65.8561
33.9794
138.388
198.688
206.463
351.85
0
274.892
128.58
11.9461
46.7945
17.2176
0
0
155.727
9.84772
11.5385
43.1142
0
0
41.421
0
0
904.775
329.704
188.245
0
133.38
86.5079
228.029
195.372
65.6573
5.00034
0
210.955
55.0769
6.22314
13.836
2.91333
5.63175e-13
0
130.245
11.5652
2.19064
0
0
15.6549
0
0
213.271
401.695
114.426
554.221
260.716
180.545
20.636
21.7332
5.49559
0
135.804
96.0593
5.64088
6.69853
2.07569
1.91015e-14
78.2745
7.47255
2.55238
0
9.67552
16.8168
0
0
109.099
178.533
12.8557
62.6632
7.13087
85.39
17.6956
6.55551
2.21705
0
82.2335
57.294
14.4551
4.7466
1.67306
0
41.1443
9.55032
1.32657
0
0
7.35133
0
0
60.0496
91.0213
56.6008
7.07691
3.65213
83.5113
20.1302
6.94646
0.765573
0
47.9956
63.8835
14.7393
1.37501
0.61338
0
61.1435
6.59724
1.5187
0
0
5.59083
0
0
68.4768
36.35
32.7341
0
10.6916
71.5795
27.0505
0.846537
0
0
77.4669
56.2044
20.0275
0.742763
1.4743
0
23.9252
7.06785
0.583997
0
11.2668
1.27278
0
0
12.1174
23.8289
0
0
5.18344
31.5245
8.0355
0.724761
2.92755
6.00318
6.85519
51.9418
9.52383
3.78878
0.831287
0
31.7431
5.26461
0
0
0
1.35341e-13
0
0
31.5309
9.93347
10.9922
0
0
29.7613
2.71369
2.46541
3.40987
0
32.2451
18.5823
1.7832
1.28736
0.638682
0
21.2777
1.95672
1.40646
5.46217
0
0
5.271
11.7038
0
0.0850864
0
14.3242
0
26.612
1.99774
1.63801
0
0
22.5623
17.1727
0.691107
0.718634
0.633687
0
9.25427
0.247486
0.678382
0
0
1.41133
0
0
9.52791
0
0
0
0.155375
9.76337
2.08593
0
1.34505
0
9.40895
8.83447
1.40374
0
0.627973
0
4.24723
0.273832
0
0
0
1.34569e-13
0
0
15.4263
0
0
0
6.95067
4.97322
0
0
1.33894
0
0
10.9704
0.143932
0
0
0
1.96075
1.29073
0
0
0
0
0
0
15.8387
0
0
0
8.16426
0
0
0
2.55006e-14
5.91915
0
1.38047
0
0.741739
0
0
11.5961
0.303596
1.24133
0
9.52728
0
0
0
0.641552
0
0
0
5.13196
0
0
0
0.68469
6.52017
0
0
0
0
0
0
6.30604
3.47949e-14
0.600685
0
0
0
0
0
5.85839
0
0
0
0
0
0
0
1.46905
0
0
0
0
0.0114889
0.550687
0
5.48767e-13
0.70474
1.12717
0
0
0
5.96259
0
0
0
0
0
5.14676
0
0
0
1.16485
6.29917
0
0
0
0
0.57913
4.97051
2.94741
0.704918
0.562144
0
0
0
1.87384
0
0
0
0
0
0
0
0
0
0
0
0
0
0
0
1.12154
0
0
0.680833
1.17037
3.8816
0
0
0
0
0
0
0
0
5.51669
0
0
0.794184
0.623476
0
0
0
0
0.649928
0
0
0
0
1.218
0
0
0
0
0
0
0
0
0
5.63138
0
0
0
0.132085
8.13556
0
0
0
0
0
0
0
0
0
0
0
0
0
0
0
0
0
0
5.67231
0
0
0
0
0
0
0
0
0
0
0
0
1.15004
0.544939
0
0
1.55136
0
0
0
0
0
0
0
0
0
0
0
0
0
0
0
0
0
0
0
0.551952
0.0238323
0
0
0
3.27127
0
0
0
0
0
4.12725
0
0
0
0.68945
19.2045
0
0
0
0
0.619887
0
0
0
0
0
0
0
0
0
0
0
0
0
0.362367
0
0
0
0
2.22076
0
0
0
0
0.260424
0
0
0.488641
0
0
0
0
3.56683
0
0
0
0
0
0
0
0
0
0
13.2125
0
0
0
0
0.411649
5.01999
0
0.498815
0
0
0
4.50199
0
7.64095
0
0
0
0
0
0
0
0
0
0
0
0
0
0
0.630029
0
0
0
0
0
0
5.89057
0
7.70236
0
0
0
0
0
0
0
0
0
5.72016
0
0
0
0
0
0
0
0.518863
0
0
0
10.5498
0
7.61402
0
0
0
0
0
0
0
0
0
0
0
0
0
0
1.2574
0
0
3.76697e-14
0
0
0
4.34837
3.71156
0
0
0
0
0
0
0
0
0
0.692149
0.28139
0
0
0
0
0
0
0
0.0138503
0
0
0
4.18143
0
7.85978
0
0
0
0
0
0
0
0
0
6.30235
0
0
0
0
0.625779
0
0
0
0
0
0
0
3.68472
0
0
0
0
0
0
0
0
0
0
5.95317
0
0
0
0
0.621515
0
0
0
1.13309
0
0
0
0
0
0
0
0
0
0
0
0
0
0
0
0
0
0
0
0
0
0
0
0
0
0
0
0
0
0
0
0
0
0
0
0
0
0
0
0
0
0
0
0
0
0
0
0
0
0
0
0
0
0
0
0
0
0
0
0
0
0
0
0
0
0
0
0.626335
0
0
0
0
0
0
0
0
0
0
0
0
0
0
0
0
0
0.687472
5.35452
0
0
0
0
0.629753
0
0
0
0
0
0
0
0
0
0
0
0
0
0
0
0
0
0
0
0
0
0
0
0
0
0
0
0
0
0
0
0
0
0
0
0
0
0
0
0
0
0
0
0
0
0
0
0.634446
0
0
0
0
0
0
0
0
0
0
0
0
0
0
0
0
0
0
0
0
0
0
0
0
0
0
0
0
0
0
0
0
0
0
0
0
0
0
0
0
0
0
0
0
0
0
0
0.602198
0.153188
0
0
0
0
0
0
0
0
0
0
0
0
0
0
0
0
0
0
0
0
0
0
0.592103
0
0
0
0
0
0
0
0
0
0
0
0
0
0
0
0
0
0
0
0
0
0
0
0
0
0
0
0
0
0
0
0
0
0
0
0
0
0
0
0
0
0
0
0
0
0
0
0
0
0
0
0
0
0
0
0
0
0
0
0
0
0
0
0
0
0
0
0
0
0
0
0
0
0
0
0
0
0
0
0
0
0
0
0
0
0
0
0
0
0
0
0
0
0
0
0
0
0
0
0
0
0
0
0
0
0
0
0
0
0
0
0
0
0
0
0
0
0
0
0
0
0
0
0
0
0
0
0
0
0
0
0
0
0
0
0
0
0
0
0
0
0
0
0
0
0
0
0
0
0
0
0
0
0
0
0
0
0
0
0
0
0
0
0
0
0
0
0
0
0
0
0
0
0
0
0
0
0
0
0
0
0
0
0
0
0
0
0
0
0
0
0
0
0
0
0
0
0
0
0
0
0
0
0
0
0
0
0
0
0
0
0
0
0
0
0
0
0
0
0
0
0
0
0
0
0
0
0
0
0
0
0
0
0
0
0
0
0
0
0
0
0
0
0
0
0
0
0
0
0
0
0
0
0
0
0
0
0
0
0
0
0
0
0
0
0
0
0
0
0
0
0
0
0
0
0
0
0
0
0
0
0
0
0
0
0
0
0
0
0
0
0
0
0
0
0
0
0
0
0
0
0
0
0
0
0
0
0
0
0
0
0
0
0
0
0
0
0
0
0
0
0
0
0
0
0
0
0
0
0
0
0
0
0
0
0
0
0
0
0
0
0
0
0
0
0
0
0
0
0
0
0
0
0
0
0
0
0
0
0
0
0
0
0
0
0
0
0
0
0
0
0
0
0
0
0
0
0
0
0
0
0
0
0
0
0
0
0
0
0
0
0
0
0
0
0
0
0
0
0
0
0
0
0
0
0
0
0
0
0
0
0
0
0
0
0
0
0
0
0
0
0
0
0
0
0
0
0
0
0
0
0
0
0
0
0
0
0
0
0
0
0
0
0
0
0
0
0
0
0
0
0
0
0
0
0
0
0
0
0
0
0
0
0
0
0
0
0
0
0
0
0
0
0
0
0
0
0
0
0
0
0
0
0
0
0
0
0
0
0
0
0
0
0
0
0
0
0
0
0
0
0
0
0
0
0
0
0
0
0
0
0
0
0
0
0
0
0
0
0
0
0
0
0
0
0
0
0
0
0
0
0
0
0
0
0
0
0
0
0
0
0
0
0
0
0
0
0
0
0
0
0
0
0
0
0
0
0
0
0
0
0
0
0
0
0
0
0
0
0
0
0
0
0
0
0
0
0
0
0
0
0
0
0
0
0
0
0
0
0
0
0
0
0
0
0
0
0
0
0
0
0
0
0
0
0
0
0
0
0
0
0
0
0
0
0
0
0
0
0
0
0
0
0
0
0
0
0
0
0
0
0
0
0
0
0
0
0
0
0
0
0
0
0
0
0
0
0
0
0
0
0
0
0
0
0
0
0
0
0
0
0
0
0
0
0
0
0
0
0
0
0
0
0
0
0
0
0
0
0
0
0
0
0
0
0
0
0
0
0
0
0
0
0
0
0
0
0
0
0
0
0
0
0
0
0
0
0
0
0
0
0
0
0
0
0
0
0
0
0
0
0
0
0
0
0
0
0
0
0
0
0
0
0
0
0
0
0
6644.98
5897.4
4686.05
4149.45
7000.66
7962.04
9294.92
9148.2
6733.59
6834.97
3976.42
3268.4
1233.18
1690.66
2501.95
3392.77
3926.31
6464.53
7859.29
6863.3
4056.16
7702.68
8577.16
3450.87
4710.45
5153.82
3765.39
7146.67
4366.12
863.519
1627.07
246.264
564.766
4406.76
2736.31
431.749
0
3516.53
4255.82
267.794
694.823
3275.49
3239.72
1775.94
3326.5
6625.99
7644.6
7467.57
6023.18
3478.12
3782.05
486.724
54.8917
1969.77
650.25
6.94798
0
246.394
73.5598
3.03461e-13
394.238
67.3087
203.057
2091.82
5395.88
2003.55
6991.16
8425.05
7393.84
9068.33
5831.76
6958.51
5683.06
9692.93
9375.28
1971.14
944.207
7699.15
5767.4
629.377
622.337
4341.7
3859.51
2162.1
6874.5
4901.54
8009.24
8775.24
9657.74
8927.31
8105.02
6599.97
6366.25
4609.55
5785.46
6575.01
10010.4
9524.67
9837.66
8618.75
6995.8
7067.71
5018.88
3379.38
4140.82
4723.76
5701.01
3349.18
3159.24
9009.35
3070.4
7746.38
4322.1
6811.33
5644.17
4768.27
7316.64
3632
1989.22
2093.69
11564.9
2088.48
6569.99
869.769
4253.63
1670.82
5242.11
6134.37
7227.87
6215.09
4264.87
4403.37
1110.17
1916.27
852.327
5422.34
4730.8
4018.63
4867.52
4255.86
7194.32
11023.5
1534.05
4185.11
6428.84
8104.93
11863.4
11384.1
5012.49
10718.2
11574
8252.69
9950.47
12442.9
12499.4
6325.44
1859.51
12183.5
7584.07
11828.4
11116.6
12329.5
8198.51
9001.71
9932.81
12310.2
10364.8
13086.3
12874.8
12559.4
11901.2
12301.5
11436.7
12478.7
10395.7
11033.2
10048.8
11377.5
11975.7
12819.9
6847.54
5712.59
5881.57
3197.84
2649.79
7226.88
6344.62
5353.88
2973.63
1576.42
3460.06
3546.89
2977.3
1342.19
2403.28
5141.63
1235.26
1764.72
1450.78
1349
2426.97
1771.1
1225.73
1273.17
1459.52
3675.43
750.184
1271.23
621.524
781.322
168.693
4809.15
4317.53
1444.66
1418.55
736.06
1611.08
1495.43
1345.42
7416.16
6105.61
7415.31
8050.74
5247.61
642.974
884.821
562.84
566.62
424.389
4244.21
6715.08
3999.81
4031.49
3540.59
1181.86
784.749
159.978
10241.2
4320.51
378.127
27.093
6103.42
5079.98
3359.39
3929.45
7334.36
48.76
2002.12
2743.44
4682.87
2653.19
9740.06
6991.24
6525.5
10263.7
5147.63
4310.23
6444.91
8499
10697
6758.88
7238.51
7577.08
7277.66
3540.31
1246.14
6959.31
8590.49
7988.91
2338.89
2330.53
1616.43
3309.49
3482.59
2471.99
468.668
2310.63
2615.28
3285.58
806.71
672.89
1386.2
553.506
2798.2
829.832
399.184
197.038
494.919
434.228
736.148
315.879
1283.87
1038.07
688.896
1955.44
2990.61
2787.49
492.07
724.08
514.509
435.869
827.974
322.836
6870.54
5206.82
5612.04
3473.55
3594.18
350.548
489.872
412.623
262.898
294.1
3729.61
1845.81
1318.87
2426.08
880.206
596.531
605.486
825.845
3388.17
7060.39
240.948
804.502
1064.78
1124.73
1445.41
2337.57
3314.35
65.9768
776.081
1373.84
2404.57
2096.81
6914.64
2082.38
1779.71
450.588
284.789
228.962
50.2472
6444.25
2055.39
1212.86
3644.03
95.7683
3701.37
725.46
434.509
908.169
406.712
295.588
1141.74
426.809
203.774
375.095
1758.39
1771.68
213.181
1160.29
5100.42
5375.17
694.326
622.009
401.699
273.416
125.695
639.851
327.83
259.954
115.156
3354.76
260.116
1349.93
565.141
2231.48
163.347
511.591
4054.49
2818.63
484.898
496.934
303.553
393.17
410.81
251.363
845.87
1516.5
699.639
371.085
475.892
206.69
223.941
293.487
166.758
301.64
1100.53
652.991
428.889
509.757
574.686
568.668
402.718
277.293
478.583
235.706
162.011
107.005
432.035
133.069
580.433
784.764
1434.12
86.2008
637.944
802.03
878.702
828.809
895.781
660.389
44.9979
84.2394
88.6203
33.2403
54.8937
962.707
2.21563e-12
34.947
148.343
35.4356
37.5876
575.643
621.304
842.565
347.809
253.772
570.276
348.892
196.177
333.739
625.107
1772.32
281.425
319.783
4599.59
1235.03
518.189
525.948
224.685
284.606
63.8887
564.516
169.135
199.362
44.4242
844.253
61.7427
174.694
282.001
516.347
40.748
71.5141
793.872
309.447
384.688
478.737
244.055
393.44
454.448
222.354
256.445
375.543
212.767
148.392
442.202
103.238
236.199
327.288
139.123
193.294
383.276
523.51
414.936
385.019
683.011
402.246
409.343
80.8453
587.918
121.058
219.028
68.9333
505.137
78.908
631.982
710.201
333.294
609.352
728.335
133.576
56.1331
362.241
387.114
302.653
19.4696
48.4242
99.9077
14.2673
52.7017
12.1205
1.91591e-12
4.61368e-13
12.7499
16.3781
6.10543
781.212
468.172
648.396
276.971
189.257
828.378
243.314
229.724
185.28
323.994
1782.95
211.485
382.222
558.93
489.139
457.339
476.677
129.428
149.601
32.4998
552.506
143.132
174.815
1.47572e-13
643.662
3.93367
113.024
78.6494
832.968
6.0643
147.563
402.479
798.127
239.334
627.356
185.156
289.202
493.235
271.458
1681.79
71.9776
2299.3
113.35
365.453
71.5109
88.2922
19737.8
9611.94
11286.1
1295.89
12958.1
1517.16
10181.3
131.269
190.38
183.505
129.245
160.412
2719.7
521.695
1999.46
456.043
101.369
116.768
90.1272
9348.26
13822.9
10280.4
2095.73
9723.58
2807.58
15233.9
374.066
493.037
64.3505
581.337
148.083
296.518
72.4101
791.884
143.676
630.902
52.3193
30.6923
606.746
384.335
12.0486
1.26759
52.834
338.718
231.339
13.3757
16.3633
69.8546
22.8631
4.24542
2.75997e-13
0
11.3679
0
0
14.5006
515.828
468.653
930.982
308.43
165.544
1496.86
305.419
233.008
196.356
420.385
1597.61
163.113
404.453
663.448
643.837
523.057
541.67
180.715
178.27
15.5579
367.979
83.0204
200.575
16.6301
754.628
5.98769
99.2602
65.6053
665.358
0
116.837
833.638
1761.63
1281.31
248.857
237.201
24.0061
20.616
1.1786
333.215
426.784
218.058
261.608
376.435
241.049
987.224
241.68
490.412
1027.29
241.605
860.361
182.019
28.8586
40.2087
13.4337
2.80413
2.5738
1.77102
2.0748
150.511
242.711
226.172
198.534
281.341
62.6665
3.93504
0
27.5772
7.73965
5.8007
0
107.958
2.1315
293.343
0
0
0
0
443.031
506.578
24.9516
624.991
112.175
179.827
0.206836
641.786
131.049
78.1657
3.79435
1.2462
116.242
0.644184
1.05768e-13
9.17041
0
0
0
0.254356
0
0
312.729
261.078
23.2161
13.5001
86.0924
31.8433
0
5.52251
0
5.38495
0
0
0
518.146
673.279
2081.58
308.196
222.288
1808.66
357.368
216.521
190.63
352.101
1260.99
164.199
315.203
674.033
614.776
476.527
309.573
106.922
200.491
6.31804
302.455
115.447
166.252
24.2105
786.735
0
334.141
71.2407
727.621
43.2985
335.985
672.718
12.4963
136.786
8.69346
6.50745e-14
4.89062
5.65073
12.4283
315.815
276.164
255.144
374.298
227.872
235.428
2.29174
61.6599
0
10.0111
0
0
0
0
0
0
0
0
0
0
214.064
256.917
311.915
153.491
376.947
4.56758
1.88858
0
3.42247e-14
0
0
0
0
0
0
0
0
0
0
363.176
356.657
21.1513
679.761
152.348
116.15
46.6166
444.257
134.747
0
0
0
7.15227
0
0
0
0
0
0
0
0
0
187.569
157.211
14.0742
38.6782
24.8678
0
0
0
0
4.93868
0
18.026
0
737.643
693.632
849.162
380.8
402.616
341.869
442.512
350.316
217.57
320.08
442.063
360.613
360.453
721.559
682.876
252.332
349.794
137.499
120.066
135.054
346.742
323.419
153.242
514.279
746.239
253.673
198.97
392.539
122.872
483.528
11.4418
6.81334
15.7609
336.719
331.145
93.2806
241.363
260.951
117.376
0
0
0
0
9.067
0
0
0
0
0
0
0
0
0
232.285
380.872
328.942
264.944
309.4
5.42643
0
0
4.8666
4.51909
0
0
0
0
0
0
0
0
0
288.837
186.474
37.5248
258.24
141.231
87.3581
32.9217
218.738
84.4053
0
0
9.08138
0
0
0
0
0
139.871
136.434
14.5073
0
63.0429
14.0549
0
0
0
6.15492
0.254488
0
0
308.406
234.499
121.112
226.683
126.816
203.347
106.652
93.7139
202.115
128.209
99.7038
68.1634
52.7644
218.623
27.5369
257.716
347.678
185.979
248.963
172.578
336.397
157.379
198.241
27.2948
6.83664
68.7293
9.67753
23.3525
0
42.996
3.54565e-13
0
0
141.753
208.447
141.447
186.31
204.879
160.413
5.13915
0
0
0
0
206.241
123.806
134.596
185.405
98.145
1.07797e-12
0
0
0
0
157.681
131.588
29.9666
123.217
88.5495
53.0595
50.8238
89.6129
23.939
1.80286e-14
0
0
0
0
0
0
0
35.4985
8.99429
16.0878
0
25.3203
2.14952
0
0
0
0
9.56176
0
0
207.852
128.53
229.61
101.573
110.485
182.852
94.8032
92.8438
57.4032
37.254
66.919
25.6483
27.9854
24.3346
19.6379
248.091
132.192
120.582
163.278
21.0649
112.027
69.2769
96.9225
43.7815
0
9.96468
0
1.05246
0
4.74838
6.03097
0
0
149
22.0812
100.153
111.386
90.5063
107.044
0
0
0
0
0
74.1433
111.787
115.169
63.5407
40.9921
0
2.90187
0
0
0
65.9768
51.3987
25.5345
49.429
27.1347
44.8016
7.07361
42.9909
13.6707
0
0
0
0
0
0
0
0
5.86445
8.24701
2.75829
0
5.92942
4.70957
0
7.88539e-13
0
5.68652
0
0
0
122.152
75.843
50.7878
92.1471
54.4904
21.0724
66.2718
8.03793
22.3362
19.0184
78.0213
10.7134
1.35172e-13
19.9088
11.1557
51.8236
40.8736
62.2045
84.4742
18.3054
86.1064
52.3139
67.3965
63.1904
7.61263
2.02835
0
5.0916
0
5.69537
0
0
0
120.827
106.496
96.3564
69.9238
129.125
103.579
0
0
5.96201
4.92175
0
90.0844
64.6565
42.4064
50.3991
47.463
0
0
0
16.6677
0
76.9759
32.0894
24.7737
20.8949
20.8846
30.7853
10.1514
18.166
16.1325
0
0
0
5.08914
0
0
0
0
28.3093
10.2577
5.42921
0
0
5.70241e-13
0
0
20.7373
0
0
0
0
22.1355
5.00776e-14
52.11
21.297
5.04004
4.83135e-14
2.0846e-13
7.30444
7.64391
6.31635
15.3051
0.643425
6.39973
3.81344
0
46.8021
48.1898
51.3799
52.6941
45.3057
30.7576
28.6693
45.1513
24.9206
3.78079
0
0
3.37164
5.95426
0
4.98283
11.4445
0
84.7849
43.6003
100.261
28.8168
40.9112
48.5327
0
0
0
0
0
27.4428
49.0874
24.4717
37.6047
55.127
1.20532e-12
0
4.79413
0
0
36.6765
49.1096
33.1382
19.2144
16.6526
44.6727
13.29
6.85622
10.9279
0
0
0
0
0
0
0
0
22.4308
16.5566
10.312
0
5.99882
1.22888e-13
0
0
0
0
0
20.1871
0
8.34755
0
0
0
4.03194
0
0
0.139997
0
13.9429
12.7184
0
6.52697
8.82359
26.0914
47.3795
62.572
14.9237
32.2469
3.01473
56.2945
18.8874
12.4071
5.15132
7.05836
5.62248
0
0
12.1327
0
5.04903
0
0
52.846
62.9647
32.2614
46.9407
8.05662
36.6666
0
0
0
0
0
38.2345
54.9725
23.6586
45.7419
12.6306
0
0
0
0
0
19.6124
28.3097
15.5686
16.1261
16.6696
25.5315
5.55549
40.5606
4.07234
0
0
0
0
0
0
0
0
7.55228
11.1103
0
0
0
0
0
0
0
5.2716
0
0
0
0
0
0
0
0
0
0
0
0
6.70799
9.00923
9.98728
13.4496
7.23472
11.4728
17.0466
11.8994
10.8904
22.3581
0.158108
8.58903
0.439151
18.8665
0
0
0
0
0
0
5.59281
2.0369
0
0
24.9215
35.7333
33.5475
19.0483
0
27.8369
4.90108
0
0
4.90962
0
15.0765
16.5218
0
18.6607
23.4677
0
0
0
0
0
10.202
8.46909
12.1381
2.16598
9.65655
19.0306
9.95167
2.81573
0
5.06677
0
0
0
0
0
0
0
0.900969
8.79214
0
0
0
0
0
0
0
0
0
0
0
0
0
0
0
0
0
0
0
10.1126
6.87278
0
0
6.98841
11.5924
11.3803
15.0865
8.0974
3.44491
21.0148
0.0304839
3.25835
0.402555
7.89933
1.99965
0
5.56715
19.9268
10.1578
0.347811
10.9185
4.64903
11.0883
0
6.30594
0
5.45093
4.54922
0
5.2004
4.91857
0
0
0
0
15.0568
13.2877
17.6282
31.4443
32.3734
0
0
0
0
0
14.3327
14.1388
4.91111
0
0
12.2021
0
7.58653
0
0
0
0
0
0
9.78165
0
10.4684
0
13.6061
0
0
5.71288
0
0
0
0
0
0
0
0
0
0
13.8087
0
0
0
0
4.55968
1.03941
13.7467
29.9384
0
6.92359
11.4401
11.1573
7.4809
0
0
5.9455
2.9382
0
0
0
0
8.32668
0
0.166503
5.17796
10.5713
0
3.77659
11.4845
0
9.64635
0
1.41708
0
0
4.02874
0
0
0
0
0
1.56914
15.3036
0.967183
5.97245
6.84757
0
0
0
0
0
11.3805
0
0
0
5.05316
9.09965
0
0
0
0
1.93562e-14
0
0
0
0
0
0
9.83794e-13
0
4.88079
0
0
0
0
0
0
0
0
0
0
0
0
0
0
1.65522
15.1388
0
3.08819
0
7.22096
29.7478
5.91599
14.3525
11.379
0.581466
0
0
0
0
0
0
0
0
0
0
0
0
13.7826
0
0
0
0
0
0
0
0
0
0
2.73755
0
0
0
0
18.3068
6.61842
7.94643
0
0
0
0
0
0
0
0
6.99485
0
5.38496
2.5416
0
0
0.851892
7.46378
1.93264e-14
0
0
0
0
0
0
0
0
0
0
0
0
0
0
0
0
0
4.50002
0
0
0
0
0
0
0
0
0
0
0
5.79143
0
0
11.1217
0
0
11.78
0
0
0
0
0
0
0
0
0
0
3.97786
0
1.70278
0
6.92768
4.9701
0
0
0
0
0
0
0
0
0
0
6.0316
1.3109
0
0
9.53485
0
0
0
18.3824
0
0
0
0
0
0
0.345125
0.647683
4.73588
3.33403
0
0
3.28385
0
0
0
0
0
0
0
0
0
0
0
0
0
0
0
0
14.7686
0
0
0
0
0
0
0
0
0
0
0
0
4.15011
1.9583
16.3436
0
7.22996
9.47115
14.1383
0
0
0
0
0
0
0
4.54288
0
0
5.09786
0
0
9.23996
5.2523
9.1102
0
1.51896
0
0
0
0
0
0
0
0
6.30727
0
0
0
0
0
0
0
0
0
0
0
0
0
0
0
0
1.35409e-13
5.51947
0
9.61295
0
0
3.7139
0
0
0
0
0
0
0
0
3.53131
0
4.7716
0
0
0
0
0
4.88064
0
0
0
0
0
0
0
0
0
5.03938
1.959
7.65925
11.1619
3.69652
7.30798
0
36.0077
0
0
0
0
0
0
0
0
0
0
0
0
5.15533
0
5.17884
0
0
7.53085
0
0
0
0
0
0
0
0
0
0
0
0
0
0
0
6.31812
0
0
0
0
0.14245
0
0
0
0
0
5.06828
0
0
0
0
0
0
0
0
0
0
0
0
0
0
12.2588
0
6.77363
0
0.694889
0
3.81698
3.94259e-14
0
0
0
0
0
0
0
0
0
0
0
7.38536
0
0
0
24.1238
36.6056
0
0
0
0
0
0
0
0
0
0
0
0
0
0
5.42454
0
4.01885
0
0
0
0
0
0
0
0
0
0
0
0
0
5.844
0
0
0
0
0
0
0
0
0
0
0
0
0
0
0
0
0
0
0
0
0
0
0
0
0
0
0
0
0
0
0
0
0
12.1915
0.20434
0
1.75454
0
0
0
0
0
0
0
0
0
0
9.92834
0
0
4.8111
0
0.478943
0
0
0
0
0
0
0
0
0
0
5.10561
5.39924
10.4331
4.0456e-14
0
5.08019
0
0
0
0
0
0
0
0
0
0
0
0
0
0
0
0
0
0
0
0
0
0
0
10.179
2.5169e-13
0
0
0
0
0
0
0
0
0
0
0
0
0
0
0
8.611
0
0
0
0
3.45775
11.673
0
0
0
0
0
0
0
0
0
0
0
0
0
0
0
7.33194
0
0
7.21393
0
12.3221
0
0
0
0
0
0
0
0
0
0
5.53962
0
5.6023
0
0
0
0
0
0
0
0
0
0
0
0
0
0
0
0
0
0
0
0
0
18.2826
0
0
0
0
0
0
0
0
4.35411
0
0
0
0
0
0
0
0
0
0
0
0
0
0
0
0
0
0
0
0
0
0
0
0
0
0
0
0
0
0
0
0
0
0
0
0
0
13.7852
4.71893e-13
12.1815
0
0
0
0
0
0
0
0
0
0
0
1.2368
5.6064
0
0
4.19885
0
0
0
0
0
0
0
0
3.56451
18.0268
0
4.68254
0
0
0
0
0
0
0
0
0
0
0
0
0
0
0
0
4.28348
0
0
3.99012
0
0
0
0
0
0
0
0
0
0
0
0
4.96674
0
0
4.51654
0
0
0
0
0
0
0
0
0
0
0
0
0
0
11.2221
0
0
2.44728
12.9427
6.62633e-13
0
0
0
0
0
0
0
0
0
0
0
0
5.69353
3.59935
0
5.30191
11.6962
0
0
0
0
0
0
0
1.04061
0
0
0
17.8952
0
0
0
0
0
0
6.37533
0
0
0
0
0
0
0
0
0
0
0
6.71835
0
0
0
0
4.57315
0
0
0
0
0
0
0
0
3.39967
0
0
0
2.08955
0
6.05288
0
0
0
0
0
0
0
0
0
0
2.16969
0
0
0
27.0529
4.12998
0
0
0
0
0
0
0
0
0
13.7627
0
0
0
14.0302
0
5.37988
0
12.1282
0
0
0
0
0
0
0
0
6.54108
5.09931
0
0
0
0
0
0
0
0
0
0
0
0
0
0
0
1.41165
0
0
0
0
3.01876
2.59742
6.13386
0
0
1.82258
0
0
0
8.80388
3.51992
0
0
1.95913
0
0
0
0
0
0
0
0
0
0
0
0
0
0
0
0
0
0
0
0
1.24454
0
0
0
0
0
0
0
0
0
0
0
0
0
1.18502
3.40036
0
0
4.60197e-14
0
0
0
0
0
0
0
5.22795
0
4.86029
0
0
0
0
0
0
0
0
0
0
0
0
0
0
0
0
0
0
0
0
4.04505
0
2.26954
0
4.57279
1.18124
3.39438
0
9.00626
0
8.89988
2.23086
0
0
3.54822
0
0
0
3.63478
0
0
0
0
0
0
0
0
0
0
0
0
0
0
0
0
0
7.43605
0
0
0
0
0
0
0
0
0
54.0305
0
5.72298
1.6227
3.62184
0
2.12293e-14
23.7084
12.2309
0
0
0
0
0
0
0
0
0
8.37578
0
0
0
0
0
0
0
0
0
0
0
0
0
0
0
0
0
0
0
3.98341
0
1.27808e-13
0
0
0
0
0
0
9.45874e-13
0
1.33399e-13
0
4.51555
0.178412
0
0
0
0
0
0
0
0
0
0
0
0
0
0
0
0
0
0
0
0
0
0
0
0
0
0
0
0
0
0
0
0
0
0
0
10.71
0
5.07409
12.1801
4.62763
0
0
0
0
0
0
1.97488
1.17947
0
0
18.2634
0
0
0
0
0
16.6435
0
4.98977
0
0
0
0
0
0
4.1368
0
0
0
0
0
0
0
0
0
0
0
0
0
8.69064
0
0
0
3.53579
0
0
0
0
0
0
0
0
0
0
0
0
0
0
0
0
0
0
0
0
0
0
0
0
0
0
0
0
0
0
0
9.84525
0
5.27156
0
0
0
0
10.4667
9.91537
0
0
0
0
0
0
0
0
6.61827
0
0
0
0
0
0
0
17.9953
0
4.90638
0
0
0
0
0
0
0
0
0
0
0
0
0
0
0
0
0
0
0
8.40153
0
0.703701
0
4.64917
9.97305e-14
0
0
0
4.54712
0
8.53712
5.54995e-13
0
0
0
0
0
0
0
0
0
0
0
0
0
0
0
0
0
0
0
0
0
0
0
0
0
0
0
1.46608
6.28029
0
0
0
0
0
0
0
0
0
0
5.78945
0
0
0
18.1067
0
0
0
0
0
0
0
0
0
0
0
0
0
0
0
0
0
0
0
0
3.58804
0
0
0
0
0
0
0
0
2.32203
0
0.255061
6.91055
0
0
0
0
0
0
0
0
0
0
0
0
0
0
0
0
0
0
0
0
0
0
0
0
0
0
0
0
0
0
0
0
0
0
0
0
0
0
11.7716
0
0
0
0
0
0
0
0
4.21689e-13
0
4.9759
0
0
0
0
0
0
0
0
0
0
0
0
0
0
0
0
0
0
0
0
0
0
0
0
0.0961412
0
6.28921
0
0
0
3.49337
0
4.37484
9.28145
12.7002
0
12.7718
0
0
12.638
0
0
0
0
0
0
0
0
0
0
0
0
0
0
0
0
0
0
0
0
0
0
0
0
0
0
0
0
0
0
0
5.17261
0
0.482958
0
0
0
0
0
0
2.0018e-14
0
0
4.60544
16.75
0
0
0
0
0
0
0
0
0
0
0
0
0
0
0
0
0
0
0
0
0
0
0
0
0
0
0
0
0
4.66016
25.2293
0
0
0
3.59526
0
0
0.931513
0
0
0
0
0
0
0
0
0
0
0
0
0
0
0
0
0
0
0
0
0
0
0
0
0
0
0
0
0
0
0
0
0
0
0
0
0
0
0
0
0
0
0
0
4.09215
14.6937
0
0
0
0
0
0
0
0
0
0
0
0
0
0
0
0
0
0
0
0
0
0
0
0
0
0
0
0
0
0
12.2549
0
0
0
0
0
0
0
0
0
0
0
0
0
0
0
0
0
0
0
0
0
0
0
0
0
0
0
0
0
0
0
0
0
0
0
0
0
0
0
0
0
0
0
0
0
0
0
0
0
0
0
3.8308
0
0
0
0
0
0
0
0
0
0
0
0
0
0
0
0
0
0
0
0
0
0
0
0
0
0
0
0
0
0
0
0
0
0
0
0
0
0
0
0
0
0
0
0
0
0
0
0
0
0
0
0
0
0
0
0
0
0
0
0
0
0
0
0
0
0
0
0
0
0
0
0
0
0
0
0
0
0
0
0
1.47411e-13
0
0
0
13.2063
0
0
0
0
0
0
0
0
0
0
0
0
0
0
0
0
0
0
0
0
0
0
0
0
0
0
0
0
0
0
0
0
0
0
0
0
0
0
0
0
0
0
0
0
0
0
0
0
0
0
0
0
0
0
0
0
0
0
0
0
0
0
0
0
0
0
0
0
0
0
0
0
0
0
0
0
0
0
0
0
5.03698e-14
0
0
0
0
0
0
0
0
0
0
0
0
0
0
0
0
0
0
0
0
0
0
2.85753
0
2.35636
0
1.47545e-14
0
0
0
0
0
0
0
0
0
0
0
0
0
0
0
0
0
0
0
0
0
0
0
0
0
0
0
0
0
0
0
0
0
0
0
0
0
0
0
0
0
0
0
0
0
0
0
0
0
0
0
0
0
0
0
0
0
0
0
0
0
0
0
0
0
0
0
0
0
0
0
0
0
0
0
0
0
0
0
0
0
0
0
0
0
0
0
0
0
0
0
0
0
0
0
0
0
0
0
0
0
0
0
0
0
0
0
0
0
0
0
0
0
0
0
0
0
0
0
0
0
0
0
0
0
0
0
0
0
0
0
0
0
0
0
0
0
0
0
0
0
0
0
0
0
0
0
0
0
13.8377
0
4.00333
5.21731e-13
0
0
0
0
0
0
0
0
0
0
0
0
0
0
3.94874
0
0
0
0
0
0
0
0
0
0
0
0
0
0
0
0
0
0
0
0
0
0
0
0
0
0
0
0
0
0
0
0
0
0
0
0
0
0
0
0
0
0
0
0
0
0
0
0
0
0
0
0
0
0
0
0
0
0
0
0
0
0
0
0
0
0
0
0
0
5.24465
0
0
0
0
0
0
0
0
0
7.93986
0
0
0
0
4.05883
0
0
0
0
0
0
0
0
0
0
0
0
0
0
0
0
0
0
0
0
0
0
0
0
0
0
0
0
0
0
0
0
0
0
0
0
0
0
0
0
0
0
0
0
0
0
0
0
0
0
0
0
0
0
0
0
0
0
0
0
0
0
0
0
0
0
4.26634
0
0
0
0
0
0
0
0
0
0
0
3.92509
0
0
0
7.67831
0
0
0
0
0
0
0
0
0
0
0
0
0
0
0
0
0
0
0
0
0
0
0
0
0
0
0
0
0
0
0
0
0
0
0
0
0
0
0
0
0
0
0
0
0
0
0
0
0
0
0
0
0
0
0
0
0
0
0
0
0
0
0
0
0
0
0
0
0
0
0
0
0
0
0
0
0
0
0
0.134883
0
0
4.56207
0
0
0
0
0
0
0
0
0
0
0
0
0
0
0
0
0
0
0
0
0
0
0
0
0
0
0
0
0
0
0
0
0
0
0
0
0
0
0
0
0
0
0
0
0
0
0
0
0
0
0
0
0
0
0
0
0
15.946
0
0
0
0
0
0
0
0
0
5.40507
0
0
0
0
0
0
0
0
0
0
0
0
0
0
0
0
0
3.95356
0
0
0
0
0
0
0
0
0
0
0
0
0
0
0
0
0
0
0
0
0
0
0
0
0
0
0
0
0
0
0
0
0
0
0
0
0
0
0
0
0
0
0
0
0
0
0
0
0
0
0
0
0
0
0
0
0
0
0
0
0
0
0
0
0
0
0
0
0
0
0
0
0
0
0
0
0
0
0
0
0
0
0
3.93171
0
0
0
0
0
0
0
0
0
0
0
0
0
0
0
0
0
0
0
0
0
0
0
0
0
0
0
0
0
0
0
0
0
0
0
0
0
0
0
0
0
0
0
0
0
0
0
0
0
0
0
0
0
0
0
0
0
0
0
0
0
0
0
0
0
0
0
15.5038
0
0
0
0
0
0
0
0
0
0
0
0
0
0
0
0
0
0
0
0
0
0
0
0
0
0
0
0
0
0
0
0
0
0
0
0
0
0
0
0
0
0
0
0
0
0
0
0
0
0
0
0
0
0
0
0
0
0
0
0
0
0
0
0
0
0
0
0
0
0
0
0
0
0
0
0
0
0
0
0
0
0
0
0
0
0
0
0
0
0
0
0
0
0
0
0
0
0
0
0
0
0
0
0
0
0
0
0
0
0
0
0
0
0
0
0
0
0
0
0
0
0
0
0
0
0
0
0
0
0
0
0
0
0
0
0
0
0
0
0
0
0
0
0
0
0
0
0
0
0
0
0
0
0
0
0
0
0
0
0
0
0
0
0
0
0
0
0
0
0
0
0
0
0
0
0
0
0
0
0
0
0
0
0
0
0
0
0
0
0
0
0
0
0
0
0
0
0
0
0
0
0
0
0
0
0
0
0
0
0
0
0
0
0
0
0
0
0
0
0
0
0
0
0
0
0
0
0
0
0
0
0
0
0
0
0
0
0
0
0
0
0
0
0
0
0
0
0
0
0
0
0
0
0
0
0
0
0
0
0
0
0
0
0
0
0
0
0
0
0
0
0
0
0
0
0
0
0
0
0
0
0
0
0
0
0
0
0
0
0
0
0
0
0
0
0
0
0
0
0
0
0
0
0
0
0
0
0
0
0
0
0
0
0
0
0
0
0
0
0
0
0
0
0
0
0
0
0
0
0
0
0
0
0
0
0
0
0
0
0
0
0
0
0
0
0
0
0
0
0
0
0
0
0
0
0
0
0
0
0
0
0
0
0
0
0
0
0
0
0
0
0
0
0
0
0
0
0
0
0
0
0
0
0
0
0
0
0
0
0
0
0
0
0
0
0
0
0
0
0
0
0
0
0
0
0
0
0
0
0
0
0
0
0
0
0
0
0
0
0
0
0
0
0
0
0
0
0
0
0
0
0
0
0
0
0
0
0
0
0
0
0
0
0
0
0
0
0
0
0
0
0
0
0
0
0
0
0
0
0
0
0
0
0
0
0
0
0
0
0
0
0
0
0
0
0
0
0
0
0
0
0
0
0
0
0
0
0
0
0
0
0
0
0
0
0
0
0
0
0
0
0
0
0
0
0
0
0
0
0
0
0
0
0
0
0
0
0
0
0
0
0
0
0
0
0
0
0
0
0
0
0
0
0
0
0
0
0
0
0
0
0
0
0
0
0
0
0
0
0
0
0
0
0
0
0
0
0
0
0
0
0
0
0
0
0
0
0
0
0
0
0
0
0
0
0
0
0
0
0
0
0
0
0
0
0
0
0
0
0
0
0
0
0
0
0
0
0
0
0
0
0
0
0
0
0
0
0
0
0
0
0
0
0
0
0
0
0
0
0
0
0
0
0
0
0
0
0
0
0
0
0
0
0
0
0
0
0
0
0
0
0
0
0
0
0
0
0
0
0
0
0
0
0
0
0
0
0
0
0
0
0
0
0
0
0
0
0
0
0
0
0
0
0
0
0
0
0
0
0
0
0
0
0
0
0
0
0
0
0
0
0
0
0
0
0
0
0
0
0
0
0
0
0
0
0
0
0
0
0
0
0
0
0
0
0
0
0
0
0
0
0
0
0
0
0
0
0
0
0
0
0
0
0
0
0
0
0
0
0
0
0
0
0
0
0
0
0
0
0
0
0
0
0
0
0
0
0
0
0
0
0
0
0
0
0
0
0
0
0
0
0
0
0
0
0
0
0
0
0
0
0
0
0
0
0
0
0
0
0
0
0
0
0
0
0
0
0
0
0
0
0
0
0
0
0
0
0
0
0
0
0
0
0
0
0
0
0
0
0
0
0
0
0
0
0
0
0
0
0
0
0
0
0
0
0
0
0
0
0
0
0
0
0
0
0
0
0
0
0
0
0
0
0
0
0
0
0
0
0
0
0
0
0
0
0
0
0
0
0
0
0
0
0
0
0
0
0
0
0
0
0
0
0
0
0
0
0
0
0
0
0
0
0
0
0
0
0
0
0
0
0
0
0
0
0
0
0
0
0
0
0
0
0
0
0
0
0
0
0
0
0
0
0
0
0
0
0
0
0
0
0
0
0
0
0
0
0
0
0
0
0
0
0
0
0
0
0
0
0
0
0
0
0
0
0
0
0
0
0
0
0
0
0
0
0
0
0
0
0
0
0
0
0
0
0
0
0
0
0
0
0
0
0
0
0
0
0
0
0
0
0
0
0
0
0
0
0
0
0
0
0
0
0
0
0
0
0
0
0
0
0
0
0
0
0
0
0
0
0
0
0
0
0
0
0
0
0
0
0
0
0
0
0
0
0
0
0
0
0
0
0
0
0
0
0
0
0
0
0
0
0
0
0
0
0
0
0
0
0
0
0
0
0
0
0
0
0
0
0
0
0
0
0
0
0
0
0
0
0
0
0
0
0
0
0
0
0
0
0
0
0
0
0
0
0
0
0
0
0
0
0
0
0
0
0
0
0
0
0
0
0
0
0
0
0
0
0
0
0
0
0
0
0
0
0
0
0
0
0
0
0
0
0
0
0
0
0
0
0
0
0
0
0
0
0
0
0
0
0
0
0
0
0
0
0
0
0
0
0
0
0
0
0
0
0
0
0
0
0
0
0
0
0
0
0
0
0
0
0
0
0
0
0
0
0
0
0
0
0
0
0
0
0
0
0
0
0
0
0
0
0
0
0
0
0
0
0
0
0
0
0
0
0
0
0
0
0
0
0
0
0
0
0
0
0
0
0
0
0
0
0
0
0
0
0
0
0
0
0
0
0
0
0
0
0
0
0
0
0
0
0
0
0
0
0
0
0
0
0
0
0
0
0
0
0
0
0
0
0
0
0
0
0
0
0
0
0
0
0
0
0
0
0
0
0
0
0
0
0
0
0
0
0
0
0
0
0
0
0
0
0
0
0
0
0
0
0
0
0
0
0
0
0
0
0
0
0
0
0
0
0
0
0
0
0
0
0
0
0
0
0
0
0
0
0
0
0
0
0
0
0
0
0
0
0
0
0
0
0
0
0
0
0
0
0
0
0
0
0
0
0
0
0
0
0
0
0
0
0
0
0
0
0
0
0
0
0
0
0
0
0
0
0
0
0
0
0
0
0
0
0
0
0
0
0
0
0
0
0
0
0
0
0
0
0
0
0
0
0
0
0
0
0
0
0
0
0
0
0
0
0
0
0
0
0
0
0
0
0
0
0
0
0
0
0
0
0
0
0
0
0
0
0
0
0
0
0
0
0
0
0
0
0
0
0
0
0
0
0
0
0
0
0
0
0
0
0
0
0
0
0
0
0
0
0
0
0
0
0
0
0
0
0
0
0
0
0
0
0
0
0
0
0
0
0
0
0
0
0
0
0
0
0
0
0
0
0
0
0
0
0
0
0
0
0
0
0
0
0
0
0
0
0
0
0
0
0
0
0
0
0
0
0
0
0
0
0
0
0
0
0
0
0
0
0
0
0
0
0
0
0
0
0
0
0
0
0
0
0
0
0
0
0
0
0
0
0
0
0
0
0
0
0
0
0
0
0
0
0
0
0
0
0
0
0
0
0
0
0
0
0
0
0
0
0
0
0
0
0
0
0
0
0
0
0
0
0
0
0
0
0
0
0
0
0
0
0
0
0
0
0
0
0
0
0
0
0
0
0
0
0
0
0
0
0
0
0
0
0
0
0
0
0
0
0
0
0
0
0
0
0
0
0
0
0
0
0
0
0
0
0
0
0
0
0
0
0
0
0
0
0
0
0
0
0
0
0
0
0
0
0
0
0
0
0
0
0
0
0
0
0
0
0
0
0
0
0
0
0
0
0
0
0
0
0
0
0
0
0
0
0
0
0
0
0
0
0
0
0
0
0
0
0
0
0
0
0
0
0
0
0
0
0
0
0
0
0
0
0
0
0
0
0
0
0
0
0
0
0
0
0
0
0
0
0
0
0
0
0
0
0
0
0
0
0
0
0
0
0
0
0
0
0
0
0
0
0
0
0
0
0
0
0
0
0
0
0
0
0
0
0
0
0
0
0
0
0
0
0
0
0
0
0
0
0
0
0
0
0
0
0
0
0
0
0
0
0
0
0
0
0
0
0
0
0
0
0
0
0
0
0
0
0
0
0
0
0
0
0
0
0
0
0
0
0
0
0
0
0
0
0
0
0
0
0
0
0
0
0
0
0
0
0
0
0
0
0
0
0
0
0
0
0
0
0
0
0
0
0
0
0
0
0
0
0
0
0
0
0
0
0
0
0
0
0
0
0
0
0
0
0
0
0
0
0
0
0
0
0
0
0
0
0
0
0
0
0
0
0
0
0
0
0
0
0
0
0
0
0
0
0
0
0
0
0
0
0
0
0
0
0
0
0
0
0
0
0
0
0
0
0
0
0
0
0
0
0
0
0
0
0
0
0
0
0
0
0
0
0
0
0
0
0
0
0
0
0
0
0
0
0
0
0
0
0
0
0
0
0
0
0
0
0
0
0
0
0
0
0
0
0
0
0
0
0
0
0
0
0
0
0
0
0
0
0
0
0
0
0
0
0
0
0
0
0
0
0
0
0
0
0
0
0
0
0
0
0
0
0
0
0
0
0
0
0
0
0
0
0
0
0
0
0
0
0
0
0
0
0
0
0
0
0
0
0
0
0
0
0
0
0
0
0
0
0
0
0
0
0
0
0
0
0
0
0
0
0
0
0
0
0
0
0
0
0
0
0
0
0
0
0
0
0
0
0
0
0
0
0
0
0
0
0
0
0
0
0
0
0
0
0
0
0
0
0
0
0
0
0
0
0
0
0
0
0
0
0
0
0
0
0
0
0
0
0
0
0
0
0
0
0
0
0
0
0
0
0
0
0
0
0
0
0
0
0
0
0
0
0
0
0
0
0
0
0
0
0
0
0
0
0
0
0
0
0
0
0
0
0
0
0
0
0
0
0
0
0
0
0
0
0
0
0
0
0
0
0
0
0
0
0
0
0
0
0
0
0
0
0
0
0
0
0
0
0
0
0
0
0
0
0
0
0
0
0
0
0
0
0
0
0
0
0
0
0
0
0
0
0
0
0
0
0
0
0
0
0
0
0
0
0
0
0
0
0
0
0
0
0
0
0
0
0
0
0
0
0
0
0
0
0
0
0
0
0
0
0
0
0
0
0
0
0
0
0
0
0
0
0
0
0
0
0
0
0
0
0
0
0
0
0
0
0
0
0
0
0
0
0
0
0
0
0
0
0
0
0
0
0
0
0
0
0
0
0
0
0
0
0
0
0
0
0
0
0
0
0
0
0
0
0
0
0
0
0
0
0
0
0
0
0
0
0
0
0
0
0
0
0
0
0
0
0
0
0
0
0
0
0
0
0
0
0
0
0
0
0
0
0
0
0
0
0
0
0
0
0
0
0
0
0
0
0
0
0
0
0
0
0
0
0
0
0
0
0
0
0
0
0
0
0
0
0
0
0
0
0
0
0
0
0
0
0
0
0
0
0
0
0
0
0
0
0
0
0
0
0
0
0
0
0
0
0
0
0
0
0
0
0
0
0
0
0
0
0
0
0
0
0
0
0
0
0
0
0
0
0
0
0
0
0
0
0
0
0
0
0
0
0
0
0
0
0
0
0
0
0
0
0
0
0
0
0
0
0
0
0
0
0
0
0
0
0
0
0
0
0
0
0
0
0
0
0
0
0
0
0
0
0
0
0
0
0
0
0
0
0
0
0
0
0
0
0
0
5365.72
7057.22
6022.15
3390.3
4570.32
6802.26
5202.68
1883.69
4496.5
759.874
4961.69
302.046
3431.82
441.598
3965.33
4662.81
3670.45
1715.91
3668.11
4232.71
5124.62
695.168
908.131
280.048
1694.67
1159.1
1133.9
1887.31
4078.61
1104.36
1877.34
3386.67
3968.87
2345.74
3687.22
1860.51
3330.38
2193.43
4972.31
3983.11
3073.92
1559.05
1191
6066.81
4077.94
7281.31
4349.13
6184.18
3998.38
816.723
4438.59
2291.67
2152.91
2202.5
4732.66
4046.38
4083.14
1970.93
5198.39
4887.38
3983.28
5630.41
7770.76
8616.1
9743.92
12353.9
5211.43
4679.96
6760.66
5438.82
6763.44
12032.8
10504.4
4458.58
4150.13
3564.66
1711.21
6951.06
8607.58
8613.3
5199.02