/*--------------------------------*- C++ -*----------------------------------*\
| =========                 |                                                 |
| \\      /  F ield         | OpenFOAM: The Open Source CFD Toolbox           |
|  \\    /   O peration     | Version:  5.x                                   |
|   \\  /    A nd           | Web:      www.OpenFOAM.org                      |
|    \\/     M anipulation  |                                                 |
\*---------------------------------------------------------------------------*/
FoamFile
{
    version     2.0;
    format      ascii;
    class       volScalarField;
    location    "3.9";
    object      p;
}
// * * * * * * * * * * * * * * * * * * * * * * * * * * * * * * * * * * * * * //

dimensions      [0 2 -2 0 0 0 0];

internalField   nonuniform List<scalar> 
10571
(
187.814
176.674
205.67
184.512
150.352
171.631
178.05
183.65
191.326
196.301
142.658
201.629
194.432
205.915
199.781
250.212
198.132
197.734
219.741
257.13
270.24
300.165
300.738
298.217
126.969
107.701
128.409
117.432
119.325
101.223
133.062
101.354
108.351
149.615
92.9925
101.013
103.223
99.9507
73.3433
110.187
84.9234
96.9018
96.9693
78.246
98.9794
109.854
124.306
110.048
90.7435
86.8343
90.2793
83.801
96.7979
85.5997
85.4222
76.7676
80.1873
92.0012
82.7968
77.421
80.9848
75.5261
80.4233
80.291
81.6342
87.8408
82.2839
79.8573
81.043
77.4009
78.4996
80.1109
76.1661
78.4266
75.3445
75.0063
78.787
77.0649
71.122
74.1742
73.9823
73.9675
77.8766
78.126
76.5347
74.6583
79.3068
74.5252
77.4004
71.4156
73.8988
76.9144
75.8633
74.7227
73.5968
73.5926
74.1367
75.2889
74.5982
74.7145
72.4562
75.5296
74.9012
74.8501
72.8085
72.5914
75.7734
76.6828
78.3531
75.6053
77.2178
73.486
75.4062
73.9593
72.3401
76.6841
74.2186
73.8508
73.2908
73.1468
72.8644
73.5601
73.4405
73.1186
71.1841
73.644
73.9811
74.1924
72.1136
72.3336
71.2418
74.2177
75.0261
73.8654
73.4704
73.9817
72.7947
71.161
74.0384
72.8781
71.7973
73.5552
72.0499
73.1041
72.7016
72.6445
71.8849
72.3702
72.6499
72.0524
70.5292
72.4676
72.5313
72.9846
71.7524
72.1261
70.7827
72.8147
72.3718
69.1626
70.202
70.5029
70.5489
70.8192
72.1891
71.5323
71.1905
70.7187
70.8892
71.0117
72.1638
71.836
71.5323
71.0949
71.478
71.9767
71.4835
70.0761
71.5443
71.5828
71.6696
70.8931
70.5315
70.7763
71.3682
70.3315
70.1165
69.9262
70.1102
70.3118
70.8291
70.7465
70.7502
70.6519
70.3278
70.5622
70.8024
71.0211
70.973
70.7321
70.5856
71.1389
71.8786
71.3167
70.1168
71.0001
69.9346
69.6102
69.926
70.2569
70.8406
70.2924
69.8634
70.1161
69.9295
70.22
70.1466
70.943
69.9056
70.1912
70.2226
70.1207
69.6371
70.3921
70.3801
70.3147
69.7064
70.1518
69.1455
70.0662
69.2909
69.8101
68.6565
68.1944
69.572
69.1529
69.4029
69.4275
69.758
69.7359
69.9221
69.5728
69.3522
69.7646
69.8345
69.867
69.5822
69.8457
69.9624
70.0582
69.071
68.9861
68.9781
68.5593
69.2974
69.0623
68.8731
68.6309
69.427
69.1776
68.9875
69.0374
69.4699
69.5225
69.5592
69.4637
69.0869
69.4562
69.5294
69.6263
69.5664
69.5445
69.6489
69.7874
68.8072
68.7123
68.7877
68.8152
69.2406
68.8183
69
68.9911
69.3336
69.2567
68.7952
68.8556
69.2468
69.3594
69.3946
69.4114
68.9741
69.2387
69.3234
69.4661
69.4748
69.3885
69.4122
69.5734
68.6529
68.5651
68.5187
68.681
69.1224
68.5417
68.8643
69.0321
69.2291
69.2018
68.6369
68.652
69.0535
69.2356
69.2803
69.2928
68.8411
69.1077
69.208
69.3355
69.375
69.2568
69.2951
69.4257
68.6762
68.5157
68.5398
68.7202
69.0719
68.3873
68.6453
68.9609
69.1711
69.1544
68.5595
68.602
68.8563
69.1406
69.1799
69.1952
68.7557
69.0184
69.1398
69.2305
69.2457
69.1357
69.2092
69.3027
68.7303
68.4891
68.6023
68.7652
69.008
68.3991
68.5876
68.8907
69.1284
69.0806
68.5503
68.5123
68.7876
69.0511
69.0867
69.1205
68.6969
68.9673
69.0649
69.1327
69.148
69.0806
69.1347
69.1969
68.7464
68.5368
68.6216
68.7737
68.9598
68.4522
68.6805
68.8576
69.0418
69.0124
68.5776
68.6046
68.8164
68.9621
69.0172
69.0817
68.7011
68.9541
69.0091
69.0658
69.0996
69.0471
69.0985
69.108
68.7888
68.6091
68.6796
68.7483
68.8785
68.5492
68.7461
68.824
68.9361
68.9413
68.6275
68.6484
68.8259
68.8617
68.9366
69.0365
68.7568
68.9597
68.9745
68.9818
69.0322
69.0307
69.0631
69.0495
68.783
68.6777
68.7179
68.7375
68.8109
68.6595
68.7276
68.7433
68.821
68.8604
68.7009
68.665
68.7726
68.7246
68.8184
68.9298
68.7842
68.8724
68.8968
68.9318
68.9474
68.9701
68.964
68.9885
68.7505
68.7175
68.7169
68.7055
68.7095
68.7105
68.6972
68.625
68.6957
68.7642
68.7522
68.7062
68.698
68.5749
68.6654
68.7703
68.7914
68.709
68.7755
68.833
68.7933
68.8483
68.8501
68.8913
68.7075
68.7247
68.6997
68.6614
68.6282
68.7171
68.6643
68.5285
68.5593
68.6402
68.764
68.7267
68.6369
68.4743
68.5139
68.5843
68.735
68.5417
68.6225
68.6613
68.5372
68.6567
68.7283
68.7374
68.6933
68.713
68.6783
68.6204
68.5481
68.6963
68.6337
68.5094
68.4513
68.5403
68.743
68.7061
68.5979
68.4607
68.4073
68.4787
68.71
68.4179
68.4683
68.5021
68.3945
68.5226
68.6057
68.5833
68.6493
68.707
68.6598
68.595
68.4649
68.703
68.6196
68.5327
68.4045
68.4951
68.7163
68.6847
68.5949
68.5104
68.3469
68.4431
68.7036
68.3928
68.3697
68.4237
68.3791
68.5185
68.5159
68.4956
68.6308
68.7093
68.6509
68.5785
68.4478
68.7156
68.6184
68.5772
68.4059
68.4726
68.7108
68.6843
68.6199
68.6158
68.3507
68.4495
68.7592
68.4937
68.4388
68.4336
68.4282
68.5618
68.5117
68.492
68.6171
68.7103
68.6511
68.5733
68.4402
68.7172
68.6369
68.6458
68.4191
68.4923
68.7117
68.6839
68.6392
68.6976
68.4133
68.4817
68.7193
68.5789
68.5862
68.4966
68.4785
68.5992
68.5536
68.5377
68.6061
68.7067
68.6549
68.583
68.4536
68.7076
68.6846
68.6943
68.4357
68.4948
68.6928
68.6718
68.6442
68.7027
68.4711
68.4983
68.6496
68.7086
68.6878
68.5527
68.5005
68.634
68.6053
68.5843
68.6049
68.698
68.6567
68.5977
68.4857
68.6982
68.7122
68.6908
68.4455
68.5096
68.6889
68.6522
68.6137
68.65
68.4718
68.494
68.5747
68.8326
68.6878
68.5553
68.5013
68.6727
68.6357
68.6021
68.6223
68.6855
68.6557
68.6126
68.5129
68.689
68.6872
68.6377
68.4527
68.5378
68.6908
68.6327
68.5585
68.5804
68.4404
68.4857
68.5354
68.8066
68.639
68.521
68.5016
68.6785
68.6338
68.5922
68.6417
68.6775
68.6553
68.6339
68.5763
68.6801
68.6405
68.5868
68.4751
68.5629
68.7001
68.6332
68.5218
68.5359
68.4198
68.493
68.6271
68.723
68.6
68.5107
68.5223
68.667
68.6269
68.5877
68.6601
68.6732
68.6596
68.6529
68.6336
68.6676
68.6187
68.5592
68.5219
68.5792
68.6942
68.6451
68.5169
68.525
68.4226
68.5096
68.7078
68.6547
68.5765
68.5233
68.5504
68.6659
68.616
68.5941
68.6783
68.6738
68.6685
68.6659
68.6712
68.6452
68.6215
68.5434
68.5772
68.6433
68.6679
68.6473
68.5342
68.5159
68.4653
68.5475
68.706
68.632
68.5725
68.5707
68.6067
68.6644
68.6143
68.6145
68.6943
68.6827
68.6828
68.6762
68.6984
68.648
68.6284
68.5284
68.629
68.6796
68.6457
68.6385
68.5666
68.5217
68.5165
68.5796
68.6695
68.6331
68.5858
68.6272
68.6827
68.6643
68.6259
68.63
68.7157
68.6942
68.6949
68.6928
68.7292
68.6611
68.6289
68.5497
68.6824
68.7359
68.6328
68.6256
68.602
68.55
68.5787
68.6521
68.6514
68.6373
68.6124
68.6695
68.7717
68.6634
68.6399
68.6539
68.7399
68.7078
68.7087
68.7202
68.7685
68.6672
68.6214
68.6141
68.7594
68.8157
68.6464
68.6343
68.6366
68.6101
68.657
68.7399
68.6438
68.6471
68.6535
68.7026
68.8028
68.675
68.6689
68.6793
68.7689
68.7248
68.7251
68.7516
68.8118
68.6742
68.6178
68.687
68.8328
68.9122
68.6695
68.6595
68.6725
68.6815
68.7234
68.8555
68.6341
68.6639
68.7048
68.7236
68.8254
68.6831
68.7003
68.7137
68.8036
68.7489
68.7517
68.7925
68.8483
68.6991
68.646
68.7873
68.8799
69.0029
68.6802
68.6743
68.7142
68.7477
68.7507
68.9262
68.6275
68.6901
68.7593
68.7453
68.8329
68.7051
68.743
68.7488
68.8443
68.7836
68.7905
68.8378
68.8639
68.741
68.7024
68.8497
68.8385
68.9776
68.6876
68.7041
68.7687
68.7979
68.7253
68.8727
68.6354
68.7249
68.809
68.7717
68.8054
68.7337
68.7855
68.7854
68.8897
68.826
68.8314
68.8762
68.8596
68.7942
68.7561
68.8412
68.7676
68.8574
68.7332
68.758
68.8115
68.8267
68.732
68.8242
68.673
68.771
68.851
68.8051
68.7969
68.77
68.8283
68.8236
68.9327
68.8787
68.8851
68.9065
68.8663
68.8568
68.8384
68.8367
68.7592
68.7751
68.8132
68.8435
68.8731
68.853
68.7764
68.8146
68.7294
68.8209
68.8977
68.8447
68.8181
68.8204
68.8757
68.8673
68.962
68.9205
68.9302
68.9395
68.9001
68.9027
68.9322
68.8863
68.8215
68.775
68.91
68.9141
68.9373
68.8927
68.8333
68.8524
68.8118
68.8757
68.9451
68.8936
68.8711
68.8942
68.9253
68.9199
68.9925
68.9562
68.9794
68.9891
68.966
68.9396
68.9731
68.9395
68.916
68.8403
68.9908
68.9434
68.986
68.9591
68.9101
68.9069
68.9117
68.9383
68.9898
68.9687
68.946
68.9789
68.9749
68.9809
69.0472
68.9956
69.0185
69.0733
69.0389
68.9751
69.0194
69.0031
69.0115
69.01
69.0429
68.9807
69.0078
69.0186
69.0196
68.9814
69.0114
69.0168
69.0253
69.0423
69.0255
69.042
69.0196
69.0416
69.0852
68.971
69.0257
69.0958
69.0893
69.0342
69.0519
69.0469
69.085
69.1863
69.0889
69.0153
69.032
69.0533
69.122
69.0453
69.0992
69.0675
69.0556
69.1015
69.0889
69.0874
69.0589
69.0926
69.1087
69.0391
68.9604
69.086
69.1216
69.0803
69.0457
69.0767
69.119
69.2093
69.1658
69.1199
69.076
69.0741
69.1906
69.0986
69.1653
69.1119
69.0894
69.1634
69.1198
69.1289
69.0956
69.1287
69.127
69.1556
69.052
69.1043
69.1449
69.0816
69.0509
69.0872
69.1048
69.1719
69.204
69.1393
69.1229
69.094
69.222
69.1113
69.3089
69.1712
69.1333
69.1627
69.1294
69.1565
69.129
69.1478
69.1305
69.183
69.0805
69.1015
69.1433
69.0504
69.0472
69.0753
69.0874
69.1332
69.1315
69.0773
69.1107
69.1174
69.2147
69.1096
69.2343
69.1767
69.1509
69.154
69.1433
69.1632
69.1504
69.1529
69.1064
69.1067
69.026
69.0717
69.1205
69.1096
69.0625
69.0689
69.0943
69.108
69.0365
69.0623
69.0795
69.1298
69.193
69.1069
69.1396
69.1418
69.1707
69.139
69.1446
69.1541
69.1656
69.1516
69.0802
69.0198
68.9809
69.0439
69.1162
68.9789
69.0321
69.0632
69.1186
69.1119
68.9799
69.0942
69.0548
69.1344
69.1505
69.1094
69.1016
69.1129
69.1944
69.126
69.1405
69.1331
69.1672
69.1445
69.0604
68.9822
68.9622
69.0266
69.1393
68.9181
68.9741
69.0574
69.1337
69.1264
69.0763
69.1144
69.0119
69.1118
69.1056
69.141
69.0765
69.0796
69.174
69.1161
69.1353
69.1027
69.1482
69.13
69.0439
68.9869
68.9562
69.0035
69.1723
68.9696
68.9617
69.0474
69.1362
69.1309
69.2306
69.1297
68.9832
69.0699
69.0584
69.1549
69.0469
69.0429
69.1297
69.1001
69.113
69.0641
69.1155
69.1032
69.0293
69.012
68.9445
68.9695
69.1018
68.9641
68.9521
69.0316
69.0948
69.1026
69.1964
69.0376
68.9406
69.0202
69.0045
69.1156
69.0362
68.9923
69.0839
69.0784
69.0793
69.0287
69.0765
69.0712
69.0108
69.0443
68.9338
68.9278
69.0265
68.9246
68.9318
69.0012
69.0722
69.055
69.1014
68.8821
68.8838
68.9431
68.9589
69.0489
68.9669
68.9483
69.0368
69.0508
69.0428
69.0063
69.0416
69.0406
68.994
69.0845
68.9297
68.9039
69.0634
68.9343
68.916
68.9368
69.0242
68.9961
69.0512
68.8679
68.9119
68.8897
68.9267
68.9834
68.8673
68.9615
69.0103
69.0133
69.003
69.0102
69.0173
69.0114
68.9595
69.1306
68.9549
68.8929
69.0963
69.0705
69.0057
68.8445
68.9152
68.9055
69.1453
69.2499
69.0288
68.8629
68.8619
68.9088
69.06
69.0089
68.9943
68.964
68.9526
69.0328
69.0047
68.9845
68.8952
69.1371
68.9694
68.8651
68.9984
69.1223
68.9812
68.7475
68.7797
68.7892
69.1806
69.4084
69.0667
68.8366
68.7435
68.8094
69.1851
69.0398
68.9752
68.9051
68.881
69.0577
68.9981
68.9559
68.8182
69.0473
68.9235
68.8125
68.7474
69.0694
68.9089
68.6366
68.5746
68.6296
69.1585
69.1761
69.035
68.8033
68.6041
68.6873
69.1768
69.0606
68.9499
68.8349
68.7915
69.0831
68.9965
68.9261
68.7196
68.96
68.8649
68.7248
68.339
69.0346
68.8451
68.5597
68.3349
68.4548
69.1858
69.1529
69.075
68.7761
68.4739
68.5328
69.2071
69.0912
68.9293
68.7672
68.6882
69.1213
69.0062
68.9003
68.5938
68.8779
68.7237
68.5791
68.0436
69.0347
68.8174
68.4738
68.1338
68.2332
69.2698
69.2486
69.1607
68.7805
68.387
68.3711
69.2888
69.1547
68.9337
68.7022
68.5813
69.1863
69.0325
68.886
68.4719
68.8417
68.4656
68.3817
68.0433
69.0713
68.7701
68.3291
67.8827
67.9424
69.3949
69.3881
69.298
68.7935
68.2543
68.1499
69.4111
69.2445
68.9495
68.6362
68.4523
69.2755
69.0811
68.8865
68.3025
68.9155
68.2448
68.1259
67.8078
69.1892
68.7117
68.1237
67.3714
67.4494
69.5664
69.5571
69.4628
68.7928
68.0128
67.761
69.5838
69.3477
68.9737
68.5336
68.2487
69.3949
69.1478
68.8867
67.9796
68.9313
68.0961
67.7075
67.4648
69.362
68.7083
67.8111
66.5707
66.535
69.7821
69.8386
69.5915
68.7183
67.5088
66.8523
69.8228
69.5299
68.9764
68.3628
67.8728
69.5368
69.2148
68.875
67.6823
68.8037
68.0671
67.3038
66.88
69.3209
68.6241
67.3614
65.3452
64.6631
69.9858
70.0735
69.575
68.4609
66.5889
64.5604
70.1332
69.6607
68.9429
68.047
67.093
69.6754
69.2705
68.8341
67.4705
68.5844
67.9695
67.0094
66.0933
69.0123
68.5382
66.8074
63.7065
60.1638
69.9981
70.0886
69.4032
67.9686
65.212
58.4839
70.2898
69.7725
68.8088
67.5014
65.3825
69.8007
69.2665
68.7275
67.3162
68.1906
67.7291
66.8653
65.3917
68.4272
68.1497
66.4263
62.1305
49.1347
69.0598
68.9991
69.1104
67.2479
63.533
50.0311
-33.4342
69.8852
69.3836
68.478
66.6721
61.3089
69.8393
69.0909
68.5066
67.1832
67.6086
67.3191
66.7269
65.1795
67.5719
67.0602
66.1297
61.7509
42.9365
-0.0248571
68.1491
68.0167
67.7201
66.553
62.5231
49.155
6.02186
69.2125
68.5476
67.9228
65.6357
53.6685
69.3932
68.6903
68.1526
67.0507
66.8935
66.7914
66.5947
65.7281
66.5779
66.1042
65.7735
63.4174
52.4346
17.9359
67.7725
67.0957
66.1705
65.9835
62.813
50.8373
17.4623
68.3712
67.695
67.2013
65.2716
53.05
16.319
68.4848
68.0283
67.5513
66.9303
66.2273
66.3508
66.5388
66.7666
65.533
65.7004
65.6053
65.0834
57.9982
24.4777
66.7967
66.0683
65.3941
65.1354
63.48
53.8043
15.5893
67.5022
67.0134
66.7228
64.8717
56.4781
67.6263
67.4999
67.0703
66.8245
65.9497
66.1671
66.5301
67.2184
64.6763
65.5978
65.5931
65.8985
65.5565
66.181
65.5963
64.9764
64.9084
64.0761
57.9515
-8.37063
66.8672
66.5753
66.3491
65.0512
63.19
66.9694
66.9961
66.7625
66.7855
66.4215
66.2607
66.5734
67.088
65.2599
65.7271
65.7813
66.0291
67.3803
66.0738
65.6208
65.2352
65.2865
64.9405
64.5811
66.5873
66.3367
66.0734
65.3828
65.7425
66.6042
66.5677
66.4654
66.8684
66.3171
66.6397
66.7142
67.0306
65.8073
65.8968
65.9927
66.0136
67.2345
66.346
65.9739
65.6369
65.5905
65.4831
66.7768
66.5971
66.2281
65.8496
65.554
66.2985
66.4213
66.2424
66.2045
67.1127
66.3478
66.6632
66.8999
67.1711
66.4559
66.2458
66.0683
66.1785
67.2755
66.7746
66.4485
66.0259
65.8458
65.8923
67.2398
66.8278
66.2289
65.712
65.552
66.4452
66.4242
66.1098
66.036
67.3886
67.1266
66.8217
67.1252
67.5942
67.0066
66.6195
66.3199
66.7386
67.7025
67.3275
67.0087
66.5341
66.2665
66.4592
67.5089
67.2771
66.5102
65.7973
65.7111
66.5579
66.7248
66.2278
66.1203
67.8761
67.4586
67.0771
67.5952
68.3467
67.5108
66.9689
66.8652
67.5653
68.4219
68.0265
67.6853
67.0543
66.8211
67.2289
67.9954
67.9497
67.0405
66.1509
66.1449
66.9676
67.4196
66.5337
66.2914
68.7167
67.9774
67.4056
68.2847
69.4402
68.1266
67.3433
67.5119
68.5668
69.4051
68.9491
68.4919
67.6461
67.5073
68.2055
68.7986
68.9146
67.7824
66.8623
66.97
67.7437
68.4643
67.3401
66.4989
70.0531
68.8526
67.782
69.2608
70.8124
68.9442
67.6789
67.8945
69.3246
70.6088
70.3757
69.5296
68.252
67.9439
68.7555
69.6388
70.3252
68.7961
67.7706
67.9113
68.8565
70.0295
68.6008
67.9066
71.939
69.6392
68.5082
70.1617
71.494
69.6702
68.2324
68.8025
69.9918
71.4149
71.4587
70.2086
68.7252
68.3843
69.1046
70.1893
70.9037
69.3754
68.4497
68.6856
69.6381
70.6437
69.5026
68.8232
246.995
264.379
260.45
261.504
260.667
255.977
248.492
249.058
204.127
221.218
231.739
207.695
214.01
243.841
249.9
244.565
243.136
265.504
208.218
243.628
193.482
241.538
241.256
205.758
231.832
230.479
196.711
195.263
199.861
202.336
211.859
205.449
210.455
220.202
203.446
202.414
201.611
215.812
224.319
204.997
208.913
232.622
222.82
218.564
223.061
232.666
273.501
272.071
207.427
219.267
237.018
214.61
208.321
229.027
213.933
205.245
206.053
214.745
214.661
212.766
220.963
223.063
237.529
237.771
273.07
263.803
318.605
358.798
323.859
390.925
254.776
276.441
249.347
322.548
353.991
238.997
233.381
308.824
281.285
240.033
261.074
281.696
302.962
292.629
346.101
336.483
346.81
363.014
383.513
412.839
402.674
393.287
376.506
358.187
377.451
349.978
201.132
143.438
208.618
208.475
204.584
157.722
151.964
156.532
181.171
163.861
148.615
149.208
137.265
161.791
129.557
155.286
119.172
184.953
163.478
181.511
126.307
133.83
121.702
134.154
166.499
166.138
180.09
125.241
122.713
141.463
123.949
193.764
150.928
143.186
133.328
141.027
111.867
109.268
109.9
202.287
197.464
184.378
168.266
167.054
168.061
191.969
103.348
104.995
100.172
221.382
275.922
154.999
155.479
151.724
198.652
101.836
160.697
235.035
237.01
106.935
100.234
135.665
132.651
266.918
285.179
280.429
106.138
134.462
146.318
155.619
142.089
280.523
156.94
299.337
308.096
154.273
152.461
176.238
309.764
308.938
176.26
191.322
189.415
176.842
120.552
103.789
137.723
134.056
140.832
119.55
120.35
126.109
128.825
125.865
109.319
109.854
114.587
121.96
111.558
102.704
92.7841
114.761
105.633
114.473
96.0268
100.876
94.0917
103.613
109.817
117.8
103.877
108.109
103.552
98.25
100.82
118.318
102.955
104.938
101.625
102.633
94.4031
92.1958
93.3692
140.323
137.928
110.694
105.697
106.51
89.6686
86.0066
87.6141
86.0421
85.5083
119.286
101.344
88.0974
95.5607
84.007
86.1935
85.5962
88.1916
95.1886
105.37
83.484
89.4335
83.1431
91.3294
95.4306
95.7833
101.202
79.7028
86.5028
83.7824
87.3494
87.0514
109.831
91.987
109.988
114.453
87.5202
86.9414
83.8777
126.622
125.263
95.1515
96.1763
90.5865
89.73
87.5312
79.2769
91.1667
90.3313
90.8014
78.5906
78.1854
77.2541
87.3528
95.7587
79.3101
77.2153
81.8185
98.0556
87.3668
86.5948
82.1818
86.7885
84.9968
87.2157
81.2717
79.4547
80.5949
76.6717
99.0312
89.9791
98.886
87.745
93.7032
81.9029
91.361
94.5447
87.4289
85.5211
84.4881
83.9776
82.1828
80.7969
80.4156
85.1318
87.3943
80.4398
75.7491
77.1386
82.0625
82.8903
79.6397
79.2524
80.0724
82.9467
78.892
76.385
77.1727
75.9609
83.1173
80.4924
87.0044
76.8482
78.5129
79.4109
79.2504
75.9524
74.9422
80.8801
77.3915
80.3591
78.2945
78.0944
74.9249
77.2327
77.5885
80.2932
75.9219
76.8911
76.5014
75.5328
74.8639
76.7856
82.5131
76.6171
74.5179
75.4637
74.8631
75.1296
77.0144
76.0211
76.2658
76.2007
75.9017
75.4203
75.5366
75.4531
75.9304
76.0075
74.9077
75.2674
73.5745
79.2641
74.5755
79.2817
77.1685
77.6739
78.566
75.9399
76.4555
76.3319
77.0297
75.829
83.7999
75.5991
78.7324
73.8011
74.316
73.2621
73.0195
78.6777
73.4306
79.6343
78.5507
78.5793
77.5382
77.1152
77.142
73.5869
73.9358
72.7588
72.9712
73.1711
77.7468
78.3468
76.5977
76.6344
77.0735
74.863
74.881
73.6598
74.0428
74.1537
78.1456
76.5508
74.3499
75.1388
73.9745
76.1218
73.7161
75.1226
73.7905
76.7206
73.3875
75.2879
76.8663
75.6546
73.1618
74.4342
74.8744
74.5647
73.9767
74.1361
74.8788
74.0583
73.7437
73.7011
73.5357
73.9115
73.4534
73.2691
73.6688
73.3998
75.0992
74.2058
74.5109
74.6747
74.6867
73.9354
73.9198
73.9361
74.4468
72.8274
73.4524
73.4012
72.6338
73.0849
72.3185
75.7187
74.5562
75.0757
75.6885
75.1081
74.3426
74.1174
74.4922
74.3442
72.7835
72.7949
72.5262
71.8292
72.3679
72.4388
72.3223
72.5747
72.3421
76.0207
75.9829
75.9914
74.7254
75.0336
75.0065
72.5217
72.6922
72.2843
72.1144
72.3386
75.8028
76.0077
75.0481
75.1151
75.2187
73.5506
73.9621
73.2953
73.017
73.3735
75.6181
74.817
73.8739
74.8568
73.6917
74.7145
73.7437
74.2388
73.4804
74.4722
72.6594
73.3921
75.3549
73.3306
72.2172
72.7957
73.3558
73.7216
73.4985
73.6104
73.5909
73.5545
73.3173
73.4387
73.0518
73.3975
73.0602
72.8437
73.0929
72.9918
73.4266
72.913
73.5126
73.304
73.4487
73.0696
72.8608
72.9643
72.7297
72.4779
72.3579
72.2829
72.209
71.8311
71.4903
73.695
73.0916
73.4324
73.6548
73.6742
72.9483
72.9292
73.0628
73.1722
71.9676
72.0858
72.0829
70.7681
71.6228
71.7368
71.7344
72.2368
71.7913
73.7998
74.1208
74.1892
73.1939
73.281
73.3711
71.998
71.8849
71.8099
71.929
71.5345
71.5763
71.2704
70.9502
70.9791
70.8594
71.1272
70.8879
70.9401
70.7909
74.3884
74.5777
73.5491
73.6039
73.7847
72.319
71.9629
71.1279
71.1815
70.7245
70.8529
70.6123
70.9024
71.1867
70.9599
70.7469
70.8411
70.9168
70.9305
74.1193
73.3021
73.1837
73.6977
73.191
73.1952
72.1476
73.0042
72.7641
72.0393
71.9017
72.1727
71.8445
70.9781
71.4989
71.5779
71.0476
73.1843
72.7879
72.9141
72.9957
72.6622
72.5384
72.6753
72.5512
72.7082
72.2964
72.1558
72.3748
72.1702
72.509
72.1243
72.6713
72.4426
72.5121
72.3559
72.0249
72.1463
71.7881
71.7681
71.459
71.3301
71.3031
71.131
70.7801
72.4576
71.85
72.4288
72.4712
72.7833
71.8869
72.0223
71.8615
72.4445
71.2828
71.373
71.4179
70.3025
71.0704
71.0433
71.369
71.6969
70.9475
70.9751
70.4888
70.7415
70.8695
70.687
70.8211
72.4652
72.5099
72.5287
71.7693
71.7901
71.8016
71.3221
71.6573
71.0971
71.2925
70.473
70.7367
70.4021
70.9143
70.735
70.9207
70.7535
70.8895
70.7408
70.8786
72.7986
72.9112
72.0228
72.0487
72.0256
70.8266
70.6861
71.0399
70.3784
70.6939
70.5777
70.9314
70.8833
70.9076
70.9293
70.8216
70.8695
70.8483
70.8914
72.4052
71.5359
71.2565
72.1459
72.2018
71.3678
70.8517
71.4935
71.6425
70.5164
71.1291
71.0735
70.4199
70.505
70.8396
70.8234
71.0265
70.7491
71.0634
70.9813
70.8738
70.9306
72.2343
71.5875
72.0676
72.1874
71.5879
71.5366
71.7104
71.7055
71.9233
71.3895
71.3042
71.4812
71.0685
71.8266
71.5571
71.9281
71.6559
71.7526
71.3975
71.3834
71.4068
70.961
70.8963
70.7439
70.64
70.5364
70.5116
70.3386
71.3014
70.8831
71.7517
71.2561
72.2328
71.2007
71.5404
70.8192
72.1813
70.7464
70.8727
71.0761
69.9618
70.3678
70.8566
70.4703
70.5391
70.5832
70.2557
70.5353
70.7223
70.8461
70.7291
70.8586
71.2461
71.1787
71.1525
70.7654
70.6886
70.5615
70.6302
70.0985
70.5562
70.3567
70.5664
70.2982
70.6207
70.8812
70.7793
70.8913
70.778
70.8825
70.7939
70.924
71.3488
71.3539
70.7553
70.7985
70.7777
70.6797
70.48
70.837
70.2688
70.64
70.3215
70.7819
70.891
70.8567
70.9549
70.8557
70.9503
70.885
70.9597
70.88
70.3874
70.6318
70.8019
71.0741
70.2971
70.3669
70.287
70.5629
70.4769
70.5925
70.5843
70.2537
70.4347
70.3803
70.4343
70.9345
70.0675
70.7145
70.9649
70.8111
71.0043
71.0091
70.5601
71.0519
71.249
70.6444
70.7059
70.8402
70.9452
71.0565
70.6553
70.6766
70.7213
70.4958
71.3034
70.601
70.9648
71.2202
71.069
70.2749
70.5234
70.2628
70.4468
70.2802
70.2235
70.1703
69.9895
70.2518
69.8886
70.7464
70.5641
71.4266
70.7438
72.0028
70.833
70.8698
70.6668
70.5315
70.0133
70.8164
69.8921
69.9525
69.8339
69.8037
69.6611
70.098
69.9026
70.3596
70.2606
70.0991
70.0703
69.8839
69.8482
70.5611
70.3024
70.6263
69.8425
70.2001
70.1078
70.3062
70.906
70.8787
70.9604
70.7647
70.9025
70.8807
70.9815
70.3876
70.1338
69.8153
69.8578
69.5091
70.5901
70.1257
70.9138
69.8854
70.2071
69.7836
70.2768
70.9943
70.9565
71.0195
70.9223
70.9915
70.9096
71.0168
69.9115
69.5339
70.0363
69.9428
70.1448
69.5794
69.7294
69.6654
69.7944
70.287
70.2381
70.2866
69.9926
70.1343
70.1295
70.1531
69.5667
70.2049
69.8581
70.4286
70.5284
70.1173
70.1717
70.2751
70.4476
70.4404
70.158
70.247
70.214
70.1794
69.8551
69.3621
69.6956
69.6877
69.5928
69.357
69.2549
69.2971
69.6532
69.5951
69.3271
69.2733
69.3432
69.5166
69.3357
70.1208
69.5632
69.976
70.1177
68.8998
69.4148
69.3906
69.4895
68.6509
69.634
68.8884
69.5738
69.1385
69.5029
68.9871
69.4868
69.6379
69.4855
69.8166
69.597
69.6129
69.4976
69.2866
69.3204
69.7697
69.8192
69.0867
69.5177
68.3022
69.3893
69.1972
69.1466
69.0953
69.1124
69.6916
69.263
69.4272
68.1122
69.2146
69.3154
69.1532
69.5127
69.4381
69.5308
69.1809
69.3314
69.2799
69.3591
69.9832
69.9956
70.0081
69.744
69.8523
69.8519
69.8759
69.5959
69.585
69.4514
69.933
70.0471
69.6687
69.7536
69.8641
70.0812
70.0095
69.7956
69.9245
69.8402
69.9233
69.0263
68.8181
69.0774
69.0437
69.0724
68.8593
68.8471
68.8655
69.0725
69.204
68.8951
68.9011
69.0773
69.3126
69.2483
69.0713
68.8091
69.0293
69.0386
68.9052
68.8131
68.8292
68.7936
68.9583
69.3958
69.1605
69.4043
69.3223
69.3383
69.2169
69.3331
69.4136
69.3763
69.1284
69.0634
69.0626
68.9048
68.9863
68.93
69.4293
69.0811
69.2413
69.4028
69.4045
68.9353
68.9905
68.8993
68.8889
68.8961
69.0811
69.3133
69.4663
69.4394
69.3798
69.0292
68.9723
69.1814
69.182
69.2662
69.0406
69.104
69.1131
69.1943
69.7184
69.7149
69.7522
69.537
69.6013
69.6068
69.6475
69.5186
69.3763
69.3212
69.624
69.7209
69.4642
69.5085
69.5941
69.7847
69.6948
69.523
69.6766
69.5624
69.6718
68.6859
68.59
68.7308
68.6729
68.7197
68.6915
68.5571
68.6719
68.7943
68.9653
68.7322
68.7193
68.9037
69.1334
69.0598
68.7252
68.6713
68.7175
68.7105
68.8355
68.6211
68.6424
68.6554
68.72
69.2894
69.1871
69.2832
69.1657
69.2326
69.1289
69.2496
69.3413
69.3038
68.764
68.8406
68.8149
68.6544
68.704
68.707
69.3634
69.3356
69.2371
69.3157
69.299
68.8025
68.8315
68.709
68.6977
68.7595
69.3732
69.3791
69.3454
69.3237
69.343
68.8987
68.8289
69.0589
69.0403
69.1235
68.8885
68.9955
68.9751
69.0572
69.5209
69.5173
69.5646
69.4015
69.4637
69.4515
69.4841
69.431
69.2365
69.1633
69.3948
69.4624
69.3168
69.3112
69.3648
69.5656
69.4385
69.3447
69.482
69.3507
69.4967
68.5486
68.5592
68.6593
68.5234
68.6659
68.6412
68.5557
68.6637
68.6565
68.8781
68.6287
68.6508
68.8683
69.0258
69.0029
68.6136
68.5574
68.5726
68.61
68.591
68.5339
68.5397
68.5671
68.4979
69.1919
69.0863
69.221
69.0902
69.1625
69.0728
69.1852
69.2591
69.2023
68.5783
68.6009
68.6082
68.5231
68.5549
68.5386
69.2604
69.2669
69.1831
69.2195
69.2407
68.6313
68.6977
68.5768
68.5878
68.6529
69.2871
69.3017
69.2438
69.2553
69.2604
68.7926
68.7532
68.9268
68.9212
69.0053
68.8088
68.8637
68.8733
68.9544
69.3875
69.401
69.4156
69.279
69.3193
69.3495
69.3427
69.3043
69.1179
69.0494
69.2365
69.2752
69.1918
69.1655
69.1963
69.4034
69.3042
69.2487
69.3339
69.251
69.3659
68.569
68.5673
68.6583
68.5984
68.6598
68.6706
68.6154
68.6592
68.6886
68.8749
68.7224
68.7304
68.8674
69.0143
68.9961
68.5083
68.4747
68.5312
68.5203
68.477
68.4974
68.5245
68.4883
68.4916
69.1236
69.0596
69.151
69.041
69.0891
69.0535
69.1279
69.1615
69.1352
68.5044
68.5206
68.5179
68.482
68.5011
68.4977
69.1903
69.2189
69.1157
69.1639
69.1877
68.5567
68.61
68.5566
68.5435
68.5939
69.2087
69.2218
69.1542
69.1677
69.186
68.7085
68.6737
68.8106
68.8401
68.913
68.7094
68.7731
68.805
68.8919
69.2566
69.2892
69.278
69.1815
69.1923
69.2315
69.2203
69.1929
69.0112
68.9923
69.123
69.1396
69.1032
69.0881
69.0978
69.2727
69.1962
69.1769
69.2199
69.1682
69.2489
68.573
68.582
68.679
68.6357
68.6638
68.6956
68.6513
68.6819
68.7462
68.8458
68.7324
68.7528
68.8486
68.9594
68.9431
68.4662
68.4906
68.5122
68.4752
68.5241
68.5058
68.5208
68.4773
68.5517
69.0547
69.0442
69.1045
68.985
69.0337
69.0234
69.0828
69.1073
69.0766
68.4722
68.5057
68.4933
68.4879
68.5097
68.5015
69.1333
69.1543
69.0475
69.0923
69.115
68.5392
68.6139
68.5499
68.545
68.6248
69.1306
69.1566
69.0969
69.099
69.1383
68.6728
68.6855
68.7637
68.7723
68.8762
68.6921
68.7709
68.7809
68.8716
69.1412
69.1791
69.1628
69.0947
69.098
69.1336
69.1169
69.1165
68.9663
68.9607
69.0596
69.0638
69.0644
69.0365
69.0475
69.1677
69.1323
69.107
69.1228
69.1219
69.1438
68.5951
68.62
68.7145
68.6582
68.7041
68.7321
68.6752
68.7205
68.7573
68.8612
68.7568
68.7438
68.8487
68.9283
68.9063
68.5269
68.5616
68.5496
68.4986
68.5713
68.5705
68.5858
68.5376
68.6112
69.0061
68.9743
69.0244
68.9207
68.9705
68.9143
68.9453
69.0303
68.9732
68.5236
68.5353
68.5239
68.5633
68.5662
68.5552
69.0445
69.0672
68.9797
69.0079
69.0239
68.5692
68.6366
68.6028
68.5924
68.6497
69.0767
69.1169
69.0686
69.0545
69.0918
68.698
68.7199
68.7903
68.8164
68.8911
68.7269
68.8136
68.8375
68.9166
69.0736
69.1052
69.0954
69.0268
69.0589
69.0662
69.0774
69.0714
68.9662
68.963
69.0424
69.0639
69.0438
69.0643
69.0723
69.0941
69.1017
69.0865
69.076
69.1007
69.0802
68.6586
68.697
68.7463
68.703
68.7413
68.7571
68.7298
68.761
68.7619
68.8307
68.8034
68.7867
68.8137
68.8766
68.8452
68.5986
68.6366
68.6276
68.5886
68.651
68.6463
68.6631
68.6342
68.6809
68.9327
68.8649
68.9047
68.8477
68.8856
68.8248
68.8645
68.9229
68.8718
68.5992
68.5957
68.5798
68.6376
68.6349
68.6183
68.9668
68.9755
68.9032
68.9223
68.9302
68.6142
68.6744
68.6663
68.6532
68.7011
69.0183
69.0463
68.9912
68.9758
68.9849
68.7433
68.7615
68.8406
68.8471
68.9329
68.7674
68.8522
68.8549
68.9323
69.0273
69.0295
69.0467
68.9551
68.9896
68.998
69.0083
68.9962
68.9644
68.9632
69.0787
69.0846
69.0116
69.0727
69.0875
69.0493
69.0851
69.0201
69.0189
69.0403
69.0199
68.7241
68.7399
68.7676
68.7445
68.7639
68.7635
68.7518
68.762
68.771
68.7909
68.7654
68.7549
68.7547
68.8031
68.7605
68.6766
68.7072
68.6864
68.6773
68.7112
68.7024
68.7012
68.7099
68.729
68.835
68.7854
68.8176
68.7616
68.7921
68.745
68.7705
68.8256
68.778
68.684
68.6751
68.6642
68.7141
68.7083
68.7011
68.8659
68.8787
68.8185
68.8044
68.8146
68.6877
68.7235
68.7271
68.7106
68.7586
68.9141
68.9042
68.858
68.8478
68.8108
68.7884
68.8079
68.8355
68.8443
68.9123
68.8054
68.7937
68.8028
68.8474
68.9381
68.9627
68.9585
68.9023
68.882
68.9208
68.8993
68.8873
68.9322
68.8802
69.0167
69.0349
68.9238
68.9414
68.9526
68.9794
68.9761
68.9108
68.9379
68.9251
68.9481
68.7487
68.7491
68.7457
68.753
68.7518
68.7254
68.7458
68.7296
68.7515
68.7032
68.7242
68.7265
68.6722
68.7318
68.7029
68.7242
68.7317
68.7098
68.723
68.7331
68.7242
68.7142
68.726
68.73
68.7578
68.7022
68.7326
68.6694
68.7228
68.6512
68.6913
68.7324
68.6899
68.7317
68.7356
68.7334
68.7428
68.7489
68.7529
68.7402
68.7309
68.7017
68.6748
68.6659
68.7354
68.7725
68.7648
68.7508
68.7629
68.7666
68.7105
68.6725
68.6654
68.598
68.8058
68.7859
68.7496
68.7403
68.738
68.7626
68.7079
68.6821
68.6004
68.7995
68.8612
68.8267
68.7516
68.6957
68.7916
68.7458
68.6617
68.7828
68.6664
68.8549
68.8659
68.7546
68.7758
68.7837
68.8801
68.8606
68.7914
68.8135
68.795
68.8198
68.7426
68.7334
68.7112
68.735
68.7111
68.6964
68.7253
68.6952
68.6914
68.6554
68.7067
68.6762
68.6352
68.6537
68.6089
68.7301
68.7216
68.7125
68.7249
68.7225
68.7189
68.7075
68.7178
68.7122
68.6726
68.5995
68.6404
68.5833
68.6194
68.5447
68.5851
68.6385
68.5879
68.7416
68.7444
68.7491
68.7248
68.7294
68.7303
68.615
68.6107
68.5822
68.5697
68.5661
68.7553
68.7566
68.7567
68.755
68.7519
68.5811
68.5093
68.5221
68.5253
68.4538
68.766
68.7466
68.6652
68.6391
68.4985
68.7119
68.6289
68.6119
68.4586
68.5796
68.7058
68.6504
68.5749
68.4758
68.6206
68.5623
68.4465
68.5637
68.4954
68.695
68.7035
68.5775
68.6267
68.6374
68.7416
68.7305
68.6657
68.6675
68.6669