/*--------------------------------*- C++ -*----------------------------------*\
| =========                 |                                                 |
| \\      /  F ield         | OpenFOAM: The Open Source CFD Toolbox           |
|  \\    /   O peration     | Version:  5.x                                   |
|   \\  /    A nd           | Web:      www.OpenFOAM.org                      |
|    \\/     M anipulation  |                                                 |
\*---------------------------------------------------------------------------*/
FoamFile
{
    version     2.0;
    format      ascii;
    class       volScalarField;
    location    "4.55";
    object      p;
}
// * * * * * * * * * * * * * * * * * * * * * * * * * * * * * * * * * * * * * //

dimensions      [0 2 -2 0 0 0 0];

internalField   nonuniform List<scalar> 
10571
(
264.701
189.956
266.571
253.714
235.607
259.338
263.516
256.198
224.633
169.241
257.55
270.841
253.73
250.961
180.727
165.974
256.443
230.028
224.644
207.191
125.252
239.247
234.88
187.639
109.489
58.7545
68.7242
75.0945
99.0072
58.8626
69.773
68.6577
71.3405
130.955
87.9058
112.119
120.345
76.7769
82.2416
98.1233
103.846
115.618
84.2941
80.3533
92.3038
137.293
107.006
84.3976
67.6833
57.4274
56.6246
67.7076
64.123
55.1326
59.3881
74.2534
67.6321
72.9119
54.1914
52.2546
72.7652
82.9856
87.3659
74.2007
58.5101
65.2084
81.9169
86.7843
83.6577
60.4239
78.8941
84.0244
66.0527
52.0685
52.5264
67.8615
63.0339
50.0158
51.8515
72.6729
64.7301
59.4252
48.8982
48.0642
55.4169
79.4577
83.7212
67.0543
48.1869
50.2059
68.2086
86.8554
78.9136
55.7245
61.8442
79.5571
53.7227
47.13
46.0314
56.0184
58.9359
45.0035
43.4465
60.3913
51.259
47.9111
44.6162
44.0334
41.6752
60.9796
56.5568
46.058
43.2708
43.6436
47.4836
64.5866
42.7445
51.2866
51.8294
58.4421
40.0197
41.0054
39.5824
37.0381
45.4375
41.0384
38.6157
34.3806
35.26
38.5402
35.851
40.9714
40.8601
39.5617
39.1268
33.9699
35.2864
35.7601
40.4788
40.7523
39.4928
35.0047
35.1643
46.2218
44.2482
46.2521
34.2055
36.6418
36.4818
34.599
33.8959
37.6924
35.2484
34.1577
34.3035
34.9835
35.7367
38.3752
38.5318
38.1725
34.6079
34.2293
35.1848
35.646
38.6729
39.7494
35.8591
34.6751
35.255
35.9988
40.1977
37.4974
35.1207
34.1725
34.6671
35.88
33.9895
34.0039
35.5307
34.1454
34.308
34.7009
34.4875
35.5115
36.676
36.9872
34.7154
34.2835
34.1142
35.0211
35.2815
37.2832
38.2014
34.3718
34.6395
35.1306
35.4723
36.3851
35.469
34.6381
34.1356
34.0856
33.1532
34.0462
34.0912
35.3436
33.9948
33.9827
34.4977
34.1097
36.1995
35.4008
35.8738
33.6249
34.2619
33.9953
34.5541
35.3432
36.004
34.4387
33.8266
34.4447
33.8591
35.3107
34.8132
34.511
34.1263
34.0453
34.0584
34.0319
34.1389
33.1194
34.1184
34.0357
34.3548
33.2245
34.2465
35.3369
34.033
34.1092
34.2059
33.9206
34.6923
33.403
33.8657
34.188
33.624
33.7936
33.6723
34.2249
34.152
34.0245
34.062
34.0867
34.1115
33.477
34.1167
34.0857
34.3159
33.6859
33.7443
33.5116
34.1966
34.0739
34.2843
33.7634
33.5926
33.915
33.9761
34.0622
34.0142
33.7442
33.9055
34.0824
34.1853
34.0334
34.0789
34.1241
34.1203
34.0791
34.1227
34.1161
34.3252
34.107
33.7583
33.434
34.1919
34.0968
34.2518
34.2226
33.7414
34.0115
34.0547
34.0838
34.1888
33.9502
34.0216
34.0985
34.2141
34.0147
34.1296
34.204
34.2284
34.0949
34.1759
34.1651
34.3596
34.3261
33.9689
34.1335
34.2413
34.1349
34.262
34.2495
33.8924
34.0905
34.1333
34.1613
34.2888
34.15
34.1391
34.1702
34.2749
34.1344
34.2712
34.2433
34.3728
34.1422
34.2654
34.2595
34.4694
34.4314
34.0806
34.1042
34.2997
34.2014
34.3214
34.3087
34.028
34.1922
34.2175
34.259
34.3757
34.3008
34.2324
34.2599
34.3641
34.2932
34.4393
34.3293
34.4605
34.2983
34.4078
34.364
34.5813
34.4778
34.273
34.2667
34.3462
34.2804
34.3772
34.364
34.2057
34.293
34.318
34.3757
34.4616
34.409
34.3084
34.3549
34.4476
34.4358
34.4863
34.4695
34.546
34.4099
34.5198
34.4318
34.5604
34.5169
34.4294
34.4093
34.4004
34.3425
34.401
34.395
34.3364
34.3672
34.4112
34.4849
34.5552
34.4794
34.3839
34.4432
34.5127
34.4914
34.481
34.5197
34.5602
34.4738
34.5114
34.4547
34.4951
34.5523
34.5175
34.4871
34.468
34.3886
34.417
34.4256
34.4465
34.4134
34.4719
34.5309
34.6346
34.5167
34.4447
34.5104
34.5506
34.5547
34.495
34.5399
34.5636
34.4708
34.4564
34.4561
34.4637
34.5544
34.5625
34.5933
34.5016
34.4272
34.4451
34.4582
34.5236
34.4432
34.5012
34.5478
34.6916
34.5181
34.4861
34.5529
34.5728
34.5984
34.5578
34.5705
34.5672
34.5655
34.4562
34.449
34.4519
34.5455
34.5958
34.6048
34.5163
34.4459
34.4469
34.4801
34.5635
34.4627
34.5156
34.567
34.7065
34.5227
34.5142
34.5927
34.5883
34.5852
34.5808
34.559
34.5566
34.5909
34.4932
34.4302
34.429
34.5287
34.6073
34.6004
34.5317
34.454
34.4251
34.5014
34.585
34.4759
34.5238
34.5915
34.7037
34.5361
34.5307
34.6224
34.5686
34.5854
34.5619
34.5176
34.5222
34.526
34.4822
34.3913
34.3869
34.5006
34.5847
34.6029
34.5527
34.4637
34.4026
34.5255
34.5995
34.4887
34.5226
34.5888
34.6737
34.5388
34.537
34.6477
34.531
34.5943
34.539
34.4809
34.4774
34.7085
34.5168
34.3719
34.3398
34.48
34.5626
34.6224
34.5451
34.4697
34.3778
34.5109
34.5746
34.497
34.5165
34.5752
34.6471
34.5348
34.5422
34.6615
34.5125
34.5235
34.4995
34.4736
34.4668
34.6067
34.5248
34.3964
34.3061
34.4891
34.5313
34.586
34.5127
34.4889
34.3594
34.4764
34.5042
34.5036
34.5259
34.5688
34.6245
34.5449
34.5573
34.6745
34.5176
34.4302
34.4804
34.4878
34.4755
34.4166
34.4841
34.4369
34.3068
34.4899
34.4736
34.4295
34.4772
34.5139
34.3659
34.4698
34.4688
34.5404
34.5585
34.5772
34.6077
34.5711
34.5852
34.6935
34.5366
34.3874
34.4799
34.5106
34.5212
34.3046
34.4578
34.4727
34.3313
34.4942
34.4395
34.344
34.486
34.5541
34.3936
34.4749
34.5256
34.5876
34.5987
34.5948
34.6017
34.6016
34.6196
34.7217
34.5537
34.4284
34.4931
34.533
34.5623
34.2431
34.4872
34.5241
34.3742
34.5002
34.527
34.447
34.5397
34.5953
34.4066
34.4804
34.5668
34.6255
34.6354
34.6234
34.6025
34.6286
34.6574
34.7541
34.5664
34.5424
34.5333
34.5389
34.5828
34.3641
34.5782
34.5758
34.4159
34.5098
34.7019
34.643
34.6255
34.628
34.3976
34.4828
34.6001
34.6645
34.6551
34.6452
34.6041
34.664
34.6848
34.7775
34.5831
34.663
34.5986
34.5555
34.5929
34.6445
34.6548
34.6149
34.4344
34.5147
34.8636
34.8698
34.7015
34.6556
34.3956
34.4799
34.7449
34.7087
34.6521
34.6502
34.6081
34.7046
34.6973
34.7873
34.5994
34.732
34.6359
34.5841
34.5998
34.7085
34.6543
34.6448
34.4523
34.5115
34.8618
34.8722
34.7074
34.6605
34.4035
34.4705
34.8166
34.7215
34.6265
34.6524
34.6175
34.729
34.6914
34.7787
34.6192
34.7626
34.6376
34.6068
34.6069
34.7035
34.6324
34.6638
34.4864
34.4935
34.8632
34.8188
34.7032
34.6689
34.3975
34.4487
34.8109
34.7076
34.5931
34.6466
34.6142
34.7386
34.6686
34.7518
34.6289
34.7691
34.6301
34.6173
34.6078
34.7349
34.6246
34.6579
34.5183
34.4968
34.8034
34.733
34.6624
34.6842
34.3772
34.4248
34.7977
34.6738
34.5623
34.6138
34.6055
34.7178
34.649
34.7139
34.6328
34.7611
34.6281
34.6214
34.5855
34.7886
34.6209
34.636
34.5255
34.5014
34.7275
34.6231
34.6444
34.7174
34.3763
34.3743
34.7441
34.6287
34.5529
34.5674
34.5702
34.6906
34.6409
34.6752
34.626
34.7416
34.6296
34.615
34.5343
34.7739
34.6164
34.6037
34.517
34.491
34.7056
34.6423
34.6673
34.7299
34.403
34.3703
34.6765
34.5982
34.5818
34.5305
34.5457
34.6769
34.6449
34.6574
34.6213
34.7121
34.6275
34.6116
34.5251
34.7649
34.5928
34.5963
34.5158
34.4862
34.7628
34.6764
34.6692
34.6703
34.4883
34.4348
34.6373
34.5997
34.613
34.529
34.5584
34.6776
34.6567
34.654
34.6215
34.6771
34.6275
34.615
34.5286
34.7023
34.5778
34.6206
34.5618
34.5069
34.7863
34.6947
34.6622
34.6285
34.5713
34.452
34.6532
34.6
34.633
34.5262
34.5579
34.7015
34.6762
34.6566
34.6213
34.6484
34.6265
34.6235
34.5724
34.6556
34.5693
34.6383
34.6205
34.5496
34.7162
34.6844
34.6547
34.6021
34.5932
34.4632
34.6597
34.618
34.6121
34.5081
34.5245
34.7217
34.6792
34.6471
34.6143
34.6277
34.6149
34.6225
34.5789
34.6274
34.5522
34.627
34.63
34.605
34.6914
34.6788
34.6283
34.6094
34.6353
34.5625
34.7539
34.5943
34.5529
34.4919
34.5809
34.679
34.6543
34.6167
34.597
34.6138
34.5997
34.5984
34.5681
34.6105
34.5483
34.5868
34.5679
34.635
34.6641
34.6537
34.6045
34.6262
34.6583
34.6774
34.7184
34.5473
34.4938
34.5078
34.64
34.6116
34.6194
34.5861
34.5811
34.5972
34.5833
34.5788
34.582
34.5942
34.5513
34.5521
34.566
34.6768
34.6243
34.6213
34.586
34.6091
34.6824
34.7439
34.6413
34.5465
34.478
34.5072
34.7077
34.5464
34.5876
34.5576
34.5613
34.5748
34.5708
34.5601
34.6037
34.5739
34.5922
34.5487
34.6188
34.6981
34.5819
34.5897
34.5746
34.5785
34.6658
34.7213
34.583
34.5777
34.4958
34.5624
34.7523
34.5065
34.5612
34.5571
34.5294
34.5472
34.5522
34.5349
34.5838
34.5516
34.637
34.5232
34.5767
34.6433
34.5402
34.5522
34.5475
34.5218
34.584
34.6306
34.5446
34.5889
34.4896
34.5586
34.6227
34.4985
34.534
34.5496
34.4808
34.5069
34.5158
34.4843
34.5154
34.5151
34.564
34.4551
34.4592
34.5246
34.4909
34.5016
34.4977
34.4239
34.4738
34.52
34.5099
34.5576
34.4396
34.505
34.5052
34.4868
34.4821
34.5176
34.4158
34.452
34.4542
34.4087
34.4172
34.459
34.4427
34.3334
34.3026
34.3811
34.4338
34.4436
34.4234
34.322
34.3596
34.3969
34.4615
34.4882
34.3712
34.4329
34.4103
34.4348
34.4001
34.4622
34.3451
34.39
34.3828
34.33
34.3227
34.3907
34.3213
34.2223
34.153
34.2304
34.3702
34.374
34.3337
34.2605
34.2632
34.2889
34.3842
34.4003
34.3176
34.3521
34.3293
34.3761
34.3189
34.4013
34.2817
34.3303
34.3166
34.2638
34.2504
34.3238
34.2376
34.1659
34.0628
34.1292
34.3084
34.3001
34.2447
34.2281
34.1804
34.1994
34.3062
34.3001
34.2841
34.2887
34.2553
34.3119
34.2641
34.3483
34.2325
34.2795
34.2635
34.2134
34.1961
34.2647
34.1922
34.1306
34.0399
34.0746
34.2558
34.2369
34.157
34.1923
34.1193
34.135
34.2599
34.1995
34.2341
34.2391
34.1914
34.2498
34.2312
34.2968
34.2
34.2412
34.226
34.1763
34.1511
34.2167
34.169
34.1055
34.0222
34.0344
34.2148
34.1852
34.0911
34.1357
34.0541
34.0827
34.2227
34.1473
34.1938
34.1889
34.1415
34.2287
34.1945
34.2308
34.1839
34.2203
34.2066
34.1546
34.1177
34.182
34.1468
34.0778
33.9968
34.0236
34.1895
34.1448
34.0642
34.0593
33.9943
34.0537
34.1774
34.0978
34.1426
34.1187
34.1092
34.1903
34.1278
34.1548
34.1849
34.2184
34.2039
34.1498
34.1029
34.1677
34.1193
34.0389
33.9707
33.9975
34.1914
34.1295
34.0283
33.9777
33.9582
34.0303
34.1315
34.0202
34.077
34.0447
34.0769
34.1033
34.039
34.0682
34.2069
34.2397
34.2236
34.165
34.1097
34.1819
34.1045
33.9996
33.9531
33.9585
34.222
34.1485
34.0236
33.9065
33.9489
34.0037
34.1261
33.9753
33.9989
33.9884
34.0427
34.0278
33.9716
34.0005
34.2508
34.2852
34.2694
34.2077
34.1454
34.2243
34.1552
33.9947
33.9496
33.9431
34.2726
34.1871
34.0577
33.833
33.9294
33.973
34.1618
34.0326
33.9444
33.9635
34.0133
34.0278
33.9518
33.9797
34.3188
34.3546
34.3395
34.2794
34.2156
34.2936
34.2323
34.0523
33.9893
33.9907
34.3276
34.2373
34.0565
33.8659
33.9028
33.9921
34.2353
34.1366
33.9608
33.9833
34.0187
34.1068
33.966
33.9915
34.4086
34.4435
34.429
34.3753
34.3158
34.3865
34.3373
34.1821
34.0935
34.1504
34.3913
34.2948
34.1362
34.0224
33.8836
34.1075
34.3245
34.1959
34.1106
33.9992
34.0854
34.1977
34.0297
34.0298
34.5121
34.5485
34.531
34.4845
34.4327
34.4952
34.4648
34.3317
34.2556
34.3805
34.4732
34.3806
34.3126
34.1814
33.9725
34.2838
34.4184
34.319
34.244
34.0248
34.1961
34.3236
34.1927
34.1233
34.6175
34.6592
34.6365
34.5963
34.5468
34.6134
34.5935
34.4733
34.4303
34.5859
34.578
34.5183
34.5058
34.3222
34.2466
34.432
34.517
34.4889
34.3144
34.1596
34.3369
34.4895
34.3558
34.3005
34.7141
34.7624
34.7373
34.6978
34.6399
34.7306
34.7102
34.6045
34.5734
34.717
34.7087
34.6691
34.688
34.5431
34.6779
34.6188
34.6271
34.636
34.338
34.3513
34.5135
34.6445
34.5383
34.4976
34.7964
34.86
34.8309
34.7835
34.7057
34.8397
34.8095
34.7102
34.6471
34.7362
34.8343
34.8084
34.853
34.7572
34.8917
34.9581
34.7664
34.7659
34.4646
34.53
34.6876
34.7564
34.6603
34.6933
34.8674
34.9597
34.922
34.8477
34.7335
34.9435
34.9038
34.7742
34.6587
34.6916
34.9551
34.9364
34.9585
34.8784
34.9193
34.7803
34.9146
34.8977
34.787
34.8101
34.8182
34.8386
34.7591
34.8133
34.9386
35.069
35.0201
34.9055
34.7324
35.0515
34.9905
34.8099
34.5701
34.5512
35.0776
35.0596
35.0365
34.9345
34.8741
34.6293
35.0599
35.0287
35.0153
35.0537
34.9536
34.9765
34.9007
35.023
35.0297
35.2037
35.1397
34.9744
34.708
35.1711
35.0791
34.8131
34.3593
34.2229
35.214
35.1853
35.11
34.9102
34.6407
34.2217
35.1942
35.1506
35.0624
35.0382
34.8163
35.1195
35.0158
35.0765
35.1586
35.3799
35.3002
35.0778
34.6786
35.3326
35.1851
34.7889
34.0053
33.5264
35.3652
35.3308
35.1908
34.8573
34.2983
33.2027
35.3457
35.2783
35.0795
34.9149
34.3049
35.2584
35.1096
35.0744
35.3392
35.6025
35.5046
35.2257
34.6759
35.5286
35.3209
34.7405
33.5009
31.7521
35.5482
35.5024
35.2753
34.7655
33.8555
30.6757
35.5067
35.3929
35.1109
34.7121
33.5082
35.4204
35.2208
35.0814
35.5723
35.8749
35.7304
35.4051
34.7375
35.7269
35.4974
34.6566
33.0522
26.7587
35.7479
35.7164
35.3969
34.6856
33.3544
27.4585
-16.8483
35.675
35.5254
35.1912
34.4775
31.6953
35.6078
35.386
35.1906
35.8004
36.2142
35.9303
35.5713
34.9051
35.9759
35.6883
34.9174
33.0691
23.2631
0.199438
35.929
35.9062
35.5812
34.9149
33.291
26.9249
4.17509
35.8255
35.7198
35.3847
34.4315
29.0194
35.7894
35.593
35.3929
35.9373
36.45
35.9768
35.7304
35.2574
36.1851
35.8509
35.2734
34.0338
26.9545
7.6557
36.0397
36.0063
35.7327
35.2544
33.8862
27.0905
8.85854
35.9143
35.8882
35.6459
34.8077
29.8877
9.5628
35.9507
35.8009
35.7101
36.0305
36.1764
35.6997
35.8666
35.7365
36.0941
35.9669
35.6277
35.2622
28.6037
7.87251
36.1092
36.0593
35.8497
35.5839
34.8318
28.8979
8.50494
36.0969
36.0142
35.9303
35.3415
31.6706
36.1029
36.0085
35.9852
36.1377
36.0234
35.9068
36.0454
35.9982
35.9115
36.1336
35.918
35.7108
32.1952
36.1723
36.0961
35.9387
35.8385
35.5164
31.2466
-8.39983
36.1582
36.0851
36.0901
35.8547
35.0429
36.181
36.1303
36.138
36.2232
36.1006
36.0883
36.1514
36.0697
36.101
36.0153
36.0303
35.9104
35.3262
36.1668
36.0898
35.9522
35.9208
35.8247
34.8129
36.1429
36.0268
36.0962
36.0862
36.1105
36.1559
36.151
36.1884
36.2978
36.1366
36.1464
36.1729
36.1375
36.0503
35.9828
35.9852
35.8884
35.9907
36.0628
36.0111
35.8963
35.9364
36.0101
35.7846
36.0517
35.9274
36.0464
36.1224
36.2583
36.0818
36.1187
36.1924
36.2297
36.0881
36.0875
36.0943
36.1131
35.9626
35.9185
35.912
35.8523
36.1236
35.9804
35.9612
35.8331
35.8597
35.922
35.9347
35.9251
35.8169
35.9664
36.0599
36.2002
35.9624
36.0566
36.1585
36.1214
36.0249
35.956
35.9868
36.0428
35.9464
35.8271
35.7869
35.8239
36.1663
35.9299
35.9029
35.6815
35.671
35.8208
35.9678
35.8105
35.6612
35.8307
35.9435
36.0908
35.8362
35.9618
36.0863
36.0126
36.0337
35.8972
35.878
35.9491
35.9927
35.851
35.8032
35.8757
36.1736
35.9373
35.8903
35.6674
35.7081
35.903
36.0621
35.7443
35.6071
35.817
35.9534
36.0876
35.7636
35.9296
36.0626
35.9965
36.1354
36.0071
35.876
35.8353
36.0739
35.9428
35.8665
35.9453
36.1304
36.0093
35.9429
35.7762
35.8661
36.0232
36.1899
35.7747
35.7146
35.9928
36.0972
36.1969
35.8158
36.0544
36.1637
36.1812
36.3003
36.1842
36.0146
35.8166
36.1619
36.056
35.9383
35.8733
36.0825
36.1485
36.0001
35.9311
35.9108
36.0796
36.2655
35.8687
35.8554
35.9994
36.2289
36.3248
35.9868
36.252
36.3381
36.3901
36.4026
36.274
36.1192
35.7988
36.2348
36.0942
35.9741
35.9235
36.1025
36.3016
36.0658
35.968
35.9568
36.1134
36.3148
35.9844
35.957
36.1372
36.2997
36.3655
36.2258
36.4173
36.4754
280.241
282.572
281.346
288.954
280.125
286.802
301.295
311.812
271.213
265.778
284.519
281.45
285.521
281.064
283.773
276.318
275.563
273.515
283.957
266.381
268.522
309.399
277.409
271.911
262.411
232.494
294.598
289.519
297.204
295.577
295.831
287.471
281.529
286.023
279.838
277.172
281.967
265.616
265.003
270.075
269.944
273.065
258.122
275.138
228.713
243.771
270.274
241.56
287.43
292.261
290.667
283.613
275.107
280.742
264.879
264.519
275.808
248.909
265.45
271.989
261.207
258.681
231.12
254.712
211.52
227.308
205.788
278.791
261.528
241.144
297.252
299.489
269.108
287.534
277.672
245.223
250.576
255.941
253.525
246.651
226.559
242.031
230.108
227.181
205.738
221.537
208.884
206.052
271.136
260.481
263.54
256.62
246.082
234.95
243.585
222.052
251.993
120.667
268.872
270.592
274.464
219.79
196.085
213.032
268.177
255.613
204.326
180.163
141.097
249.635
147.965
163.938
75.1041
240.738
198.878
266.789
77.4466
85.3398
72.7285
122.267
203.788
225.714
189.638
161.484
161.651
170.716
160.122
170.024
155.409
220.171
253.604
260.03
88.6799
166.976
156.08
171.799
150.47
150.366
133.48
129.363
261.825
250.531
172.021
168.604
125.412
150.366
148.292
113.496
118.104
105.548
255.956
165.097
243.304
253.53
248.11
171.95
182.372
180.283
177.66
120.281
186.259
143.488
97.01
91.6333
95.4481
96.9618
96.2814
243.285
188.046
238.864
236.07
218.657
209.676
209.304
216.82
234.436
188.048
132.934
198.504
101.629
64.2525
57.4425
129.434
93.2002
116.47
79.2819
60.0353
72.7208
88.5747
80.7089
71.9807
68.9307
68.035
83.5631
68.002
58.1342
58.4251
55.8701
55.2586
58.755
59.2958
57.5893
57.547
55.8064
126.895
101.652
131.937
67.1808
81.9874
67.9606
87.7729
142.563
111.307
57.7135
71.2324
65.7695
56.9105
54.9008
53.9884
110.715
114.476
96.8415
83.023
91.2716
90.3853
78.0742
59.6614
59.1213
62.6523
104.309
92.185
82.0984
87.6008
83.4578
94.7895
66.8821
120.043
114.092
110.031
72.5936
78.9948
80.5155
75.9504
91.4723
82.1343
87.7974
85.5014
88.1104
85.8092
86.3161
87.3794
110.853
69.3207
126.106
134.052
70.9646
79.337
86.6453
90.2678
123.858
83.6881
83.8595
88.3528
85.6269
56.4071
54.9577
64.9906
56.0263
62.471
60.1087
53.7407
57.745
67.5279
66.6457
66.9211
66.3572
65.9515
65.9843
64.9728
56.6232
53.6373
57.641
57.1308
57.6148
54.9733
55.8243
54.7607
55.8388
64.3987
64.709
66.2368
63.6943
62.9912
63.944
61.7078
78.0031
62.2341
55.6955
54.1303
53.9535
53.1513
52.0461
52.0416
67.8516
73.1441
61.0428
60.9911
63.8455
53.2336
57.2623
51.6033
51.6268
54.1229
76.8984
78.9979
70.0509
71.6941
75.1125
57.0171
52.5617
61.4896
63.9517
62.6333
52.1461
55.3093
57.2861
58.4721
84.8327
85.8349
84.4174
86.9757
83.4171
85.3159
83.4743
81.8939
61.0061
59.7686
64.8755
66.8342
58.439
58.9021
59.7133
82.1308
79.0296
71.561
77.4721
70.6914
82.6945
52.9125
50.3542
55.218
52.1809
53.0086
49.8189
50.5331
48.2313
65.7935
65.5603
62.0424
63.5712
65.9735
64.001
63.5605
51.1003
49.1403
53.2344
51.9271
53.1719
49.5249
50.0999
49.3052
50.3908
62.7168
62.5043
61.4125
61.8481
61.5835
60.501
59.2416
60.705
57.7226
50.167
49.4664
49.4681
48.0289
47.0596
47.2295
58.8745
59.4168
53.8373
54.4888
53.2857
48.9453
50.1405
46.6223
46.5476
47.0081
66.058
71.7784
58.2104
55.7112
60.5658
49.0873
46.3705
51.731
52.1739
55.3189
45.3893
48.0352
48.4393
51.818
81.9584
83.9485
80.0248
81.5975
76.0439
77.5395
73.1649
66.2723
57.207
53.3143
53.8039
53.4012
53.2541
50.7466
50.8078
68.1298
60.4536
55.9053
59.1065
54.5389
68.2925
47.6897
44.9337
44.8463
48.4648
45.0658
41.8718
45.6904
42.9489
55.6995
65.3779
45.9829
46.675
58.2395
60.4341
54.4
46.6401
43.7872
47.0958
46.3244
45.1142
44.0808
44.2297
43.5673
41.5329
58.7813
56.8337
54.9444
54.3058
54.2806
46.8507
49.7144
53.9854
49.3614
46.1616
45.2552
45.5573
43.6809
43.6393
43.8444
47.4687
46.5158
43.2859
40.8601
39.6914
44.5323
45.0681
42.7913
42.7436
43.2417
45.349
42.4608
38.3672
38.3174
36.6923
44.1069
42.338
44.3275
44.8299
48.1239
41.6924
41.9053
42.3459
44.4707
54.1406
66.4376
59.7471
45.0754
35.9707
55.5499
45.9564
35.9134
49.1188
45.1844
48.1537
48.5552
49.3817
45.7724
46.441
55.1606
51.1974
49.1995
53.7526
49.4019
53.5065
41.7308
38.1866
39.559
41.9588
40.2631
36.1286
37.2761
36.9132
40.0414
43.8433
34.4941
35.3112
34.3923
43.8828
34.5927
41.2646
38.9961
41.4463
41.2531
39.9513
38.6096
39.0105
38.8828
38.8406
47.7952
37.1304
44.0114
36.7689
41.1058
34.2684
38.9893
42.9481
37.5319
41.3661
41.7261
41.8531
39.6051
39.8791
40.1116
34.2302
37.2916
38.7246
35.5122
34.1233
35.4452
35.1899
35.699
36.127
35.7538
35.3998
35.6007
35.4711
35.6528
41.0971
41.592
39.5513
39.6681
40.3716
38.1264
35.5365
35.9646
34.9137
35.0997
35.2305
35.5425
35.6168
35.9985
36.0052
35.4424
35.575
35.7912
36.2094
40.8505
39.7522
40.3647
40.4965
41.3691
39.5282
39.21
39.301
39.2749
34.5038
40.5424
35.566
34.7148
35.0557
34.9375
34.834
35.119
42.232
39.9747
43.272
43.5713
42.8599
40.9419
40.6384
47.8274
46.0479
39.4885
38.8716
39.8954
37.1042
35.6701
34.6469
34.6172
33.4245
34.9264
34.4766
33.0348
34.3717
34.1989
34.1878
34.2244
34.1786
34.3422
34.1169
34.2339
37.2863
36.157
37.2522
36.9431
37.9558
35.2961
35.9759
35.6815
37.4277
34.933
34.1698
35.2045
33.9778
33.0957
34.3337
33.6735
34.9165
34.561
33.8031
35.4864
35.5849
35.7351
35.5261
35.6605
37.9653
38.4701
38.5813
36.6287
37.1761
37.2927
35.4219
35.3308
35.7849
34.5714
35.7033
35.1834
35.9922
35.7815
35.7769
35.7693
35.512
35.644
35.5438
35.6512
38.5495
39.5292
37.37
37.6448
38.4455
35.7751
35.3049
36.0759
35.1944
35.9133
35.1188
36.0618
35.578
35.8638
35.8269
35.4053
35.5406
35.493
35.728
38.9022
37.939
38.4298
38.5147
38.1212
37.9447
37.8696
37.9077
37.5468
34.6864
34.6966
34.7052
34.6646
34.8503
34.5692
34.7965
36.0992
35.2677
36.295
36.0372
35.7368
35.9362
38.4402
37.4327
39.1607
38.7214
37.9166
38.0072
37.8327
36.5941
36.8758
36.1546
35.4748
36.0274
34.773
34.485
34.4474
34.3489
34.0997
34.226
34.3113
34.372
34.2336
34.136
34.2512
34.1611
34.1098
34.2424
34.143
34.1919
35.4505
34.8796
35.0637
35.0503
37.567
34.2563
34.2263
34.6047
35.7288
33.7871
34.3213
34.0398
34.0387
34.0736
34.221
34.4328
34.1258
35.3589
33.9596
35.3155
35.3418
35.6561
35.449
35.7871
35.7079
36.2067
36.3196
35.0978
35.5502
35.6432
35.7027
34.9658
35.9289
34.2407
35.7955
34.7204
35.9299
35.7306
35.5067
35.748
35.7152
35.8522
35.7036
35.9069
36.9282
37.4011
36.0952
36.2898
36.4343
35.8264
34.9738
36.0224
34.7954
35.6777
34.7401
35.8373
35.604
35.3573
35.7901
35.1159
35.6926
35.3941
35.8949
37.1653
36.4955
37.3379
37.2957
37.0188
36.6462
36.9512
36.6992
36.5203
34.7571
34.5369
34.6922
34.5737
34.6904
34.4926
34.6477
36.1807
34.5248
35.6137
35.9833
35.3567
36.0251
36.9262
36.5461
37.3055
36.9652
35.8441
36.6198
36.3733
34.9403
35.4427
35.211
34.6005
35.1491
34.5777
34.2751
34.1112
34.2696
34.1883
34.2247
34.1501
34.1126
34.1605
34.0846
34.2381
34.118
34.0948
34.2189
34.1919
34.1742
34.3809
33.9002
33.8249
34.1418
33.0469
34.084
33.9716
33.7248
32.915
34.1678
34.0957
34.3554
34.1258
34.1968
34.0132
34.1552
33.4629
33.3854
34.7652
35.0327
35.1561
34.2932
34.6006
34.681
36.7778
34.479
36.1419
33.8138
36.2222
34.1779
35.9614
36.0102
36.1202
36.1017
36.4499
36.195
36.5839
36.3948
35.5892
35.4759
34.6956
34.8544
34.5142
35.6032
34.378
35.9836
34.2124
35.0192
33.7029
34.6805
35.8419
35.2645
35.9689
35.927
35.9556
35.6567
36.0906
35.7835
35.051
36.522
35.8959
35.8872
35.3448
35.4042
35.1592
35.1206
34.5978
34.42
34.5146
34.3068
34.4982
34.3211
34.4025
33.5221
36.0157
35.2461
35.9141
35.7089
34.5592
35.3887
35.1387
34.2751
34.8158
34.2082
34.0062
34.4395
34.3731
34.0766
34.0913
34.0918
34.0888
34.0954
34.0925
34.0729
34.0952
34.1166
34.2038
34.1351
34.1315
34.2017
34.1714
34.1676
33.7816
33.9584
34.0791
33.642
33.6357
34.0125
34.0979
33.8862
34.0107
34.1865
33.9749
34.0216
34.1303
34.1652
33.9719
33.9997
33.587
33.9024
33.7785
34.1991
34.1468
33.7119
33.8642
33.6879
33.8629
36.1028
33.369
33.4922
30.8813
34.2893
33.7472
33.9486
33.8583
33.5672
35.1179
33.078
33.4334
31.1334
33.2306
34.2779
33.8561
33.7275
34.4532
34.1973
34.0027
33.1568
33.8046
33.6547
34.4264
34.2187
34.314
34.103
34.3424
34.1667
34.2409
33.8589
34.1328
33.7087
34.2005
33.9687
33.6203
33.6978
33.7069
33.9286
33.8938
33.7428
33.931
33.7836
34.1235
34.0993
34.0756
34.1412
34.0765
34.1551
34.186
34.1792
34.2176
34.147
34.2076
34.1718
34.1701
34.2106
34.1561
34.1469
34.0382
34.0198
34.0995
34.034
34.0594
34.0449
34.0635
34.0176
34.0042
34.1495
34.0103
34.0433
34.1049
34.1672
34.0585
34.1081
34.1193
34.2577
33.8326
33.713
33.6019
33.9479
33.7495
33.7673
33.7919
32.6954
33.9324
34.0933
33.9962
33.5416
33.6201
33.6819
33.5593
33.6571
32.9848
33.6407
34.0954
34.0612
33.9699
33.6821
33.6743
33.5443
33.6512
33.7088
33.6111
33.7713
33.7359
33.7285
34.2822
34.1413
34.2054
34.0596
34.2547
34.1412
34.1982
34.1154
33.7437
33.7921
33.8727
33.8768
33.8156
33.9082
33.9078
33.9748
33.9308
33.9589
34.0065
33.9717
34.0797
34.0544
34.061
34.1874
34.285
34.2073
34.1705
34.2799
34.1604
34.1869
34.2083
34.1968
34.2013
34.2109
34.1541
34.1853
33.9981
34.0079
33.9922
33.9815
33.9406
34.0116
33.9325
33.9825
33.9243
34.196
34.1294
34.1651
34.1612
34.236
34.2332
34.2221
34.3276
34.3568
34.0159
33.8677
33.9085
34.0361
33.9662
33.9669
34.2667
34.211
34.2347
34.3303
34.2691
33.7464
33.7168
33.8864
33.8818
33.7356
34.1934
34.1437
34.2377
34.231
34.2202
33.7292
33.7654
33.8378
33.7878
33.7432
33.8399
33.8865
33.835
33.8033
34.2542
34.1516
34.2063
34.1199
34.2655
34.1708
34.2208
34.2412
33.8835
33.969
33.9749
33.9853
34.0553
34.0394
34.0533
34.0458
34.0376
34.0838
34.0897
34.0925
34.13
34.0645
34.1052
34.1746
34.2376
34.1503
34.2063
34.2225
34.1812
34.2205
34.2262
34.2406
34.2493
34.2559
34.2344
34.2957
34.0501
34.1052
33.9265
34.0147
33.9785
34.0546
33.985
34.0651
34.0681
34.29
34.3336
34.2901
34.3041
34.3358
34.4142
34.3473
34.3853
34.4281
34.0544
33.9958
33.9787
34.1026
34.0208
34.0091
34.3563
34.3244
34.3885
34.3867
34.3806
33.941
33.7587
34.0144
33.9928
33.8622
34.2884
34.2715
34.2741
34.3636
34.3219
33.8389
33.9377
33.962
33.9074
33.8891
33.9442
34.0536
33.9842
33.9759
34.2917
34.1975
34.2444
34.209
34.322
34.2313
34.2696
34.3324
34.0669
34.1496
34.0998
34.1259
34.2294
34.1609
34.1868
34.1377
34.1467
34.1882
34.1911
34.1904
34.2141
34.1772
34.2674
34.2533
34.2425
34.2309
34.3084
34.3069
34.2909
34.2811
34.2999
34.3168
34.3188
34.3479
34.3626
34.4166
34.1686
34.2333
34.094
34.1448
34.162
34.2231
34.2235
34.2195
34.2519
34.3864
34.4745
34.4002
34.4213
34.4489
34.4869
34.4607
34.488
34.5512
34.1632
34.0905
34.0871
34.2266
34.1764
34.1779
34.4347
34.444
34.464
34.493
34.5092
34.0725
34.0308
34.1735
34.1717
34.1738
34.4344
34.3727
34.3399
34.4894
34.4243
34.0602
34.1785
34.1412
34.0752
34.0656
34.124
34.2198
34.1575
34.1535
34.3567
34.2701
34.303
34.3173
34.3947
34.316
34.3416
34.4179
34.2267
34.2923
34.2209
34.256
34.3615
34.2728
34.3111
34.2385
34.2365
34.2703
34.2816
34.2742
34.3057
34.3525
34.4105
34.3665
34.3672
34.3521
34.4161
34.4084
34.3976
34.3647
34.3942
34.4083
34.4059
34.4331
34.4528
34.4862
34.2951
34.3547
34.336
34.2758
34.3394
34.3748
34.4076
34.3255
34.4184
34.5072
34.4701
34.5188
34.5092
34.5469
34.4743
34.5573
34.5908
34.5884
34.3024
34.2613
34.2528
34.3696
34.3524
34.338
34.5424
34.5585
34.49
34.5743
34.6029
34.2721
34.2745
34.3599
34.3669
34.3596
34.5291
34.471
34.3811
34.5536
34.5108
34.2749
34.3517
34.2865
34.2361
34.2267
34.2729
34.3454
34.307
34.2884
34.4352
34.3623
34.3831
34.4333
34.477
34.4085
34.4234
34.5084
34.3467
34.399
34.3194
34.3697
34.447
34.3627
34.4137
34.3237
34.3159
34.3466
34.364
34.3544
34.4005
34.4456
34.4738
34.4537
34.4362
34.4289
34.4888
34.4642
34.4637
34.4436
34.4674
34.4823
34.4793
34.4986
34.5171
34.5419
34.42
34.4797
34.4434
34.3858
34.4678
34.4627
34.4626
34.4344
34.5018
34.5698
34.4965
34.5725
34.5576
34.5821
34.517
34.5698
34.576
34.5813
34.4359
34.4294
34.4234
34.5029
34.4954
34.4899
34.5898
34.6363
34.5408
34.5861
34.6629
34.441
34.432
34.4812
34.4899
34.4881
34.564
34.5434
34.408
34.5645
34.5718
34.4209
34.4804
34.4054
34.3725
34.3549
34.396
34.4659
34.4307
34.4261
34.512
34.4517
34.4652
34.5141
34.5365
34.4902
34.5016
34.5991
34.438
34.4843
34.4022
34.4535
34.5063
34.4346
34.4824
34.4042
34.394
34.4167
34.4417
34.4276
34.4804
34.4987
34.5201
34.5248
34.4916
34.507
34.5491
34.5189
34.5389
34.5105
34.524
34.5338
34.5287
34.5421
34.5576
34.5693
34.5368
34.5822
34.4846
34.4892
34.5301
34.5258
34.5103
34.5487
34.5536
34.5896
34.5276
34.5726
34.562
34.5952
34.5343
34.5818
34.5959
34.6024
34.5422
34.5489
34.5449
34.5629
34.5787
34.5817
34.5845
34.6813
34.5554
34.5861
34.6921
34.5234
34.5344
34.5405
34.5434
34.5756
34.5681
34.5961
34.4432
34.5755
34.6125
34.5291
34.5676
34.5224
34.4813
34.4873
34.4876
34.56
34.5235
34.5273
34.5521
34.5193
34.5318
34.5386
34.5602
34.54
34.5555
34.6664
34.5328
34.5635
34.4608
34.503
34.5194
34.4808
34.5151
34.4745
34.4566
34.4676
34.5002
34.4795
34.5335
34.538
34.5427
34.567
34.5383
34.5523
34.5866
34.5451
34.563
34.542
34.5557
34.5657
34.5543
34.5677
34.5775
34.583
34.6082
34.6275
34.5256
34.6036
34.5445
34.5845
34.5343
34.6337
34.5108
34.5951
34.5343
34.5893
34.5657
34.5966
34.533
34.5953
34.6027
34.602
34.5825
34.6007
34.6048
34.6103
34.6164
34.6238
34.5745
34.6998
34.5535
34.5609
34.6959
34.5619
34.6085
34.5845
34.5821
34.6273
34.5856
34.6238
34.4715
34.5938
34.6325
34.597
34.6149
34.5734
34.5504
34.5449
34.548
34.5755
34.5622
34.5486
34.5609
34.5578
34.5717
34.5569
34.5583
34.578
34.5781
34.7024
34.58
34.587
34.4964
34.524
34.5193
34.509
34.5311
34.5213
34.4992
34.5019
34.5397
34.5153
34.572
34.5485
34.5573
34.6026
34.5538
34.5771
34.5986
34.5693
34.5819
34.561
34.5765
34.5807
34.5697
34.5821
34.5854
34.5857
34.6302
34.612
34.5433
34.6286
34.4895
34.5953
34.5512
34.6007
34.4847
34.5974
34.5294
34.592
34.5656
34.5899
34.5219
34.5789
34.6006
34.5961
34.6315
34.6167
34.634
34.629
34.6108
34.6225
34.5465
34.678
34.5348
34.5062
34.6435
34.5937
34.6312
34.6041
34.6026
34.6297
34.5892
34.6425
34.4874
34.577
34.65
34.6231
34.628
34.5769
34.5696
34.5461
34.576
34.5642
34.5775
34.5473
34.5568
34.6001
34.5883
34.5822
34.565
34.6272
34.6091
34.7058
34.587
34.5833
34.5198
34.5378
34.5308
34.5286
34.5447
34.5549
34.5283
34.5241
34.5686
34.5386
34.6116
34.5681
34.5843
34.5955
34.5831
34.5812
34.5907
34.5857
34.5753
34.5727
34.5789
34.5847
34.563
34.5687
34.5808
34.5692
34.5872
34.5785
34.5557
34.5671
34.5105
34.5778
34.5761
34.5591
34.5909
34.5734
34.5105
34.5619
34.5415
34.5558
34.4983
34.5473
34.5835
34.5708
34.6048
34.5945
34.5977
34.5603
34.5811
34.5794
34.4708
34.598
34.5161
34.4611
34.5659
34.6063
34.6271
34.5994
34.5954
34.6221
34.5681
34.6504
34.5191
34.5653
34.6453
34.6305
34.6298
34.5479
34.5844
34.5487
34.593
34.5362
34.5896
34.5466
34.577
34.6508
34.6396
34.5943
34.5895
34.6755
34.6668
34.69
34.5804
34.5773
34.5345
34.5496
34.539
34.536
34.5506
34.5787
34.5452
34.5343
34.5837
34.5488
34.6336
34.5959
34.5912
34.5768