/*--------------------------------*- C++ -*----------------------------------*\
| =========                 |                                                 |
| \\      /  F ield         | OpenFOAM: The Open Source CFD Toolbox           |
|  \\    /   O peration     | Version:  5.x                                   |
|   \\  /    A nd           | Web:      www.OpenFOAM.org                      |
|    \\/     M anipulation  |                                                 |
\*---------------------------------------------------------------------------*/
FoamFile
{
    version     2.0;
    format      ascii;
    class       volVectorField;
    location    "1.7";
    object      U;
}
// * * * * * * * * * * * * * * * * * * * * * * * * * * * * * * * * * * * * * //

dimensions      [0 1 -1 0 0 0 0];

internalField   nonuniform List<vector> 
10571
(
(0.166406 0.234222 1.8816)
(0.091099 0.00963949 0.831012)
(0.266634 0.146885 1.11274)
(-0.0410302 0.164773 1.20462)
(-0.560345 -0.345108 1.08096)
(0.0560987 0.0786224 1.22772)
(0.643999 0.210721 1.27297)
(-0.420343 0.286347 1.65815)
(-0.400379 0.169078 1.03925)
(-0.12115 -0.0354798 0.973881)
(0.264634 0.280066 2.4465)
(0.0207992 0.157651 1.16765)
(0.556529 -0.0754767 1.28999)
(0.0806815 0.107705 1.64424)
(-1.83067 0.85008 2.46631)
(-0.294398 0.09873 0.838987)
(-0.109657 -0.039245 1.00567)
(0.628943 -0.102521 1.14505)
(-0.180644 -0.784694 2.45502)
(-0.815294 -0.0710143 1.05564)
(-0.216511 0.149654 0.62839)
(0.43773 -0.0133863 1.06975)
(0.201286 -0.179406 1.52458)
(-0.101407 -0.0319064 0.443979)
(-0.113265 0.0787133 0.907082)
(-0.0859524 0.0592298 0.345938)
(-0.237607 0.131035 0.72249)
(-0.314934 0.591282 0.980013)
(0.095787 0.159225 0.39961)
(-0.204973 0.186928 1.17613)
(-0.961542 0.541605 1.69848)
(-0.971129 0.809141 2.82654)
(-0.161522 0.133639 0.795007)
(-0.223691 0.00397118 0.802461)
(0.0671895 0.0658622 1.35297)
(-0.123852 0.0706307 1.17528)
(-1.37658 -0.119168 2.57279)
(-1.53739 -1.20007 3.04502)
(-0.143953 -0.075176 0.484)
(-0.151446 0.0470374 0.542444)
(0.0180184 -0.0201415 0.466984)
(-0.217696 -0.130156 0.649396)
(-0.0656486 -0.170912 0.67065)
(-0.0240757 -0.111106 0.233936)
(-0.0554388 0.0479931 0.496151)
(-0.0863291 -0.121156 0.659763)
(-0.000338088 -0.0544546 0.738118)
(0.072795 -0.0385495 0.229546)
(0.0224012 -0.0284105 0.791469)
(0.452084 -0.380648 0.158776)
(-0.240698 0.010505 1.34858)
(-0.0488528 -0.264928 0.42779)
(0.10624 -0.0116058 0.405892)
(-0.509544 -0.138015 1.08471)
(-0.731812 0.0803309 1.01025)
(-0.158052 -0.16779 1.13551)
(0.146187 -0.0655167 0.79807)
(-0.0915467 -0.0483295 0.545001)
(-0.0177524 0.405901 0.825883)
(-0.232834 0.245459 0.969446)
(-1.66691 0.24997 2.10363)
(-0.471607 0.283293 1.91566)
(0.0736044 0.0162706 0.272452)
(-0.0669735 0.0394326 0.36065)
(0.37961 0.559494 0.595376)
(-0.386465 -0.0809469 1.29352)
(0.00589659 0.0495578 0.444508)
(0.00512332 -0.0447687 0.330248)
(0.00680649 0.0395122 0.443982)
(-0.134498 -0.024104 0.372455)
(0.0447376 -0.0876845 0.520957)
(0.0822228 -0.0386554 0.351412)
(0.121754 -0.0206399 0.961787)
(0.225884 -0.149133 0.432723)
(0.106982 -0.111072 0.944089)
(0.155636 0.0534156 0.349318)
(0.086346 -0.357564 0.775419)
(-0.566127 -0.137171 1.44943)
(-0.371776 0.410497 1.17288)
(0.141645 0.0263028 0.45226)
(0.20657 0.0435992 0.303924)
(0.0374212 0.027989 0.363147)
(0.0194939 0.184887 1.16594)
(-0.438678 0.200475 1.55031)
(-1.34907 0.21241 2.30029)
(0.120078 0.142123 0.687683)
(0.164592 0.0770338 0.199126)
(0.0646215 0.0478545 0.318035)
(0.376862 0.880347 1.05653)
(-0.0566881 -0.470388 1.27733)
(0.0333286 0.11175 0.70375)
(0.0942079 0.0366169 0.296039)
(0.0173918 -0.0110252 0.499395)
(0.232633 -0.0730657 0.527884)
(0.076397 0.0228299 0.309043)
(0.0562828 0.0129009 0.296265)
(0.0500236 -0.0541748 1.24582)
(0.259637 -0.196886 0.309865)
(0.379072 -0.0246937 0.861714)
(0.157896 0.0615263 0.454422)
(0.211108 -0.178801 0.573154)
(-0.372821 -0.072063 1.47583)
(0.187535 0.313411 -0.0132321)
(0.318177 0.383925 0.942991)
(0.107109 0.189858 0.776428)
(0.0996745 0.121363 0.397142)
(0.0530366 0.225795 0.968384)
(-0.575447 0.154423 1.96418)
(-0.874336 0.252892 1.73705)
(0.162801 -0.00605336 1.40825)
(-0.159107 -0.0317381 0.391788)
(-0.0878147 0.177687 0.370707)
(0.304802 0.892966 1.36545)
(0.172137 -0.380277 0.928177)
(0.0681793 -0.479872 0.59145)
(0.0172378 -0.118185 0.223007)
(0.0602128 0.0301009 0.551164)
(0.862076 0.209185 0.479124)
(0.24976 -0.302688 0.117823)
(0.234472 -0.205716 0.323766)
(0.10442 -0.0512788 1.32316)
(0.169561 -0.0177952 0.0888026)
(0.442238 0.0814339 0.529377)
(0.567325 0.218448 0.308667)
(0.194913 -0.126273 0.45422)
(-0.177408 0.153963 1.23445)
(0.252772 0.190975 0.332499)
(0.202621 0.10709 0.327325)
(0.311564 0.130926 0.444603)
(0.165634 0.191809 0.445022)
(-0.0152434 0.01235 -0.00693617)
(-0.02672 0.377132 1.06828)
(-0.580931 0.0784054 2.06557)
(-0.697575 0.276478 1.37603)
(0.165995 0.0855202 0.555867)
(0.0088107 0.099093 0.341419)
(-0.212085 0.140796 0.158127)
(-0.0030538 -0.000241142 -0.00108532)
(0.0980644 0.763213 1.63694)
(0.22423 -0.317132 1.00964)
(0.0557986 -0.266707 0.545401)
(-0.167196 -0.0594346 0.115405)
(-0.103758 0.112225 0.483617)
(0.769393 0.280616 0.460776)
(0.345976 0.0203805 0.0408084)
(0.107803 -0.0552545 0.00210038)
(0.102901 -0.0530193 1.41124)
(0.171926 -0.0950632 -0.0706099)
(0.335138 -0.13512 0.149838)
(0.59623 0.0386485 0.264525)
(0.272065 0.0132184 0.512564)
(0.198276 -0.171568 1.08865)
(0.466161 0.0826699 0.217879)
(0.367017 0.0622709 0.468091)
(0.3468 0.164693 0.622042)
(0.299815 0.223299 0.648968)
(-0.221317 -0.0409111 0.0662998)
(-0.0368374 0.227249 1.21763)
(-0.349393 -0.0474697 2.00667)
(-0.499627 0.350678 1.42345)
(0.127966 0.0655427 0.703361)
(-0.111673 0.0760847 0.524762)
(-0.16608 0.141094 0.258503)
(-0.230389 0.0711091 -0.0646042)
(0.0216712 0.657617 1.79875)
(0.288986 -0.247451 1.05102)
(0.0492988 -0.312918 0.637116)
(-0.124108 0.112756 0.328357)
(-0.201845 0.245021 0.469835)
(-0.232292 0.0365352 0.0260477)
(0.752551 0.298486 0.519892)
(0.403029 0.0261686 0.196562)
(0.10264 -0.0125948 0.0765313)
(0.182977 -0.00485185 1.43396)
(0.209019 -0.187673 -0.107667)
(0.384576 -0.0890927 -0.0161992)
(0.567499 0.00176156 0.299492)
(0.286531 -0.00785041 0.696051)
(0.243194 -0.247958 0.853514)
(0.484283 0.00575395 0.0018401)
(0.440698 -0.00748567 0.324321)
(0.4151 0.0978078 0.669256)
(0.286352 0.270734 0.822874)
(-0.0298461 0.0359951 0.126354)
(0.00485849 0.122065 1.21924)
(0.0350967 -0.205315 1.84656)
(-0.0455648 0.38414 1.34375)
(0.204719 0.0673391 0.771986)
(-0.0588582 0.022268 0.649693)
(-0.112561 0.121641 0.450031)
(-0.107628 0.00580506 -0.26799)
(0.0585863 0.517328 1.80658)
(0.447358 -0.0224147 1.0664)
(0.137053 -0.334103 0.748604)
(-0.0260264 0.0223755 0.505164)
(-0.173625 0.179121 0.370774)
(-0.149367 0.0112454 0.067941)
(0.77908 0.334642 0.615677)
(0.471916 0.00740599 0.352265)
(0.10281 -0.0224683 0.223561)
(0.225561 -0.0346053 1.39622)
(0.228849 -0.17902 -0.0482573)
(0.248745 0.00614172 -0.028851)
(0.477744 0.206672 0.290928)
(0.14191 -0.0411375 0.934279)
(0.00734948 -0.320112 0.752705)
(0.309306 0.00704725 -0.0861497)
(0.375768 -0.0713344 0.254897)
(0.363938 -0.0515823 0.671903)
(0.255973 0.293789 0.873905)
(0.453852 0.299248 0.275982)
(-0.00735047 -0.0185033 1.04891)
(-0.185518 -0.27538 1.4391)
(0.366914 0.239969 1.20026)
(0.387039 0.0771506 0.908612)
(0.112779 -0.0371757 0.78588)
(0.093242 0.153424 0.646002)
(0.195449 0.234392 -0.155065)
(0.049501 0.404699 1.71798)
(0.57477 0.167145 1.07864)
(0.281034 -0.251489 0.871942)
(0.125583 -0.105434 0.680504)
(-0.127522 0.11403 0.373442)
(0.793138 0.338116 0.736496)
(0.479813 -8.74876e-05 0.535478)
(0.104702 -0.0288179 0.377456)
(0.127255 -0.0734887 1.19775)
(0.167366 -0.0916091 0.0758774)
(0.108941 0.00945554 0.0268662)
(0.231457 0.458034 0.250345)
(-0.0901813 0.0273891 1.08478)
(0.151293 -0.3155 0.613529)
(0.240841 0.0772198 -0.106225)
(0.307132 -0.0859081 0.316944)
(0.288896 -0.193159 0.78459)
(0.0876309 0.254891 1.01856)
(0.00436635 -0.125357 1.0357)
(-0.021141 -0.20931 0.901487)
(0.458449 0.178481 1.01545)
(0.496433 0.0335685 0.986925)
(0.241763 -0.0565357 0.910371)
(-0.0544339 0.274252 0.689463)
(0.0295948 0.315687 1.50941)
(0.566595 0.188374 1.06887)
(0.371739 -0.131815 1.01658)
(0.185027 -0.123391 0.829818)
(-0.106835 0.103342 0.390433)
(0.652255 0.230703 0.870044)
(0.413497 0.00552991 0.734038)
(0.0898966 -0.0222065 0.544479)
(-0.116039 0.0424036 0.363539)
(0.0581597 -0.0103022 0.177294)
(0.00499482 -0.053983 0.10009)
(0.0780812 0.267107 0.197)
(0.116199 0.28826 1.08946)
(0.242872 -0.119967 0.453824)
(0.19113 0.136731 -0.113395)
(0.219222 -0.205741 0.493138)
(0.240261 -0.299636 0.94751)
(0.0988868 0.206475 1.16883)
(-0.0091398 -0.178477 0.816435)
(0.227646 -0.184733 0.594401)
(0.403092 0.253411 0.767637)
(0.495537 -0.0548089 1.05316)
(0.269128 -0.129191 1.06159)
(0.0115751 0.219253 0.859576)
(0.132396 0.205831 1.20898)
(0.482332 0.206883 1.0811)
(0.329504 -0.113134 1.13314)
(0.18438 -0.117067 0.978612)
(-0.109658 0.170089 0.498216)
(0.444303 0.179716 0.985941)
(0.31973 0.0161879 0.91763)
(0.0631758 -0.0142506 0.701385)
(0.0159403 -0.0157857 -0.0508977)
(-0.0300379 0.0284441 0.267811)
(-0.10078 -0.141312 0.0918972)
(0.0105021 -0.151474 0.048909)
(0.275404 0.357109 1.27155)
(0.222886 0.0786968 0.301592)
(0.130323 0.171894 -0.121523)
(0.146761 -0.267262 0.59365)
(0.194195 -0.354822 1.08727)
(0.0699622 0.110005 1.3423)
(-0.0204062 -0.141542 0.617966)
(0.127857 0.0165516 0.423693)
(0.270011 0.181704 0.683173)
(0.349656 -0.174726 1.09383)
(0.162235 -0.171932 1.15448)
(-0.0425614 0.154811 0.942834)
(0.208436 0.1733 0.893065)
(0.326292 0.179947 1.16498)
(0.153865 -0.164553 1.21071)
(0.102791 -0.100356 1.07128)
(-0.122542 0.232364 0.589677)
(0.263462 0.137337 1.09646)
(0.230457 0.0116369 1.0217)
(0.0380501 -0.0199952 0.817243)
(-0.0588809 -0.0912457 -0.0065113)
(-0.0635997 0.0742323 0.361297)
(-0.166582 -0.103981 0.0615216)
(-0.0599955 -0.347156 0.0190629)
(0.275971 0.246965 1.47996)
(0.172483 0.143747 0.191991)
(0.0837393 0.196556 -0.10342)
(0.102452 -0.207946 0.612866)
(0.140408 -0.344935 1.18079)
(-0.00290525 0.0638196 1.48962)
(-0.0293862 -0.115242 0.496236)
(0.0101602 0.0860416 0.324158)
(0.0938888 0.0881583 0.620493)
(0.206819 -0.252318 1.0815)
(0.0331386 -0.173087 1.15306)
(-0.0134907 0.104128 0.839297)
(0.162911 0.063475 0.696168)
(0.230235 0.109293 1.22665)
(0.0203472 -0.170578 1.21729)
(0.0181307 -0.077198 1.0978)
(-0.131389 0.294249 0.635816)
(0.142507 0.109082 1.15435)
(0.165497 -0.0149704 1.02001)
(0.0233307 -0.011042 0.884256)
(-0.155388 -0.0961194 0.193895)
(-0.107608 0.135921 0.321035)
(-0.0704151 0.12232 0.0733124)
(-0.059613 -0.366464 -0.0418818)
(0.264845 0.214777 1.63029)
(0.107193 0.224096 0.1752)
(0.0831857 0.223225 -0.0607269)
(0.0317568 0.0122267 0.628631)
(0.0706528 -0.219868 1.26025)
(-0.0516803 0.0785549 1.50414)
(-0.0387941 -0.128691 0.470617)
(-0.0715715 0.0773034 0.293267)
(-0.0286274 0.0855394 0.582925)
(0.120138 -0.286041 1.08432)
(-0.0294831 -0.12073 1.11318)
(0.00890111 0.0576914 0.616107)
(0.0598662 -0.0419744 0.648702)
(0.226596 0.00946216 1.21304)
(-0.00917013 -0.147172 1.19998)
(-0.0157656 -0.0548008 1.10289)
(-0.0868613 0.22741 0.653024)
(-0.031361 0.00670986 1.11364)
(0.116432 -0.0138732 0.974327)
(0.0110369 -0.00266597 0.897352)
(-0.159983 -0.0518924 0.353044)
(-0.0797477 0.234012 -0.0216037)
(0.0576003 0.338273 -0.0644348)
(0.0444561 -0.138437 -0.100079)
(0.247387 0.0283771 1.69052)
(0.157794 0.0255225 0.344969)
(0.114345 0.18117 0.0205041)
(-0.0104242 0.13814 0.652454)
(0.00322193 0.0383489 1.32568)
(-0.0880855 0.0470903 1.36595)
(-0.0364351 -0.171734 0.489437)
(-0.0961347 0.0115567 0.32093)
(-0.10495 0.0956779 0.640047)
(0.0137918 -0.260168 1.14041)
(-0.0887512 -0.000521236 1.08641)
(0.0194224 0.137684 0.557675)
(-0.0119437 -0.113561 0.686921)
(0.163741 -0.0792356 1.18627)
(-0.0467007 -0.107795 1.17013)
(-0.0370801 -0.0182008 1.10992)
(-0.0365648 0.150801 0.705508)
(-0.124637 0.00350318 0.985821)
(0.0534431 0.0407184 0.950535)
(-0.00214181 0.00761618 0.873405)
(-0.063143 0.0462913 0.35285)
(0.168723 -0.177711 0.0499008)
(0.206225 0.240225 -0.101029)
(0.159254 0.0518137 -0.0964585)
(0.123326 -0.0374095 1.7741)
(0.180991 -0.217451 0.323544)
(0.0912123 0.160834 0.0862668)
(-0.0247071 0.140929 0.680073)
(-0.0394412 0.216875 1.32063)
(-0.0435214 0.141401 1.13387)
(-0.0392523 -0.250487 0.469856)
(-0.0861231 -0.0841287 0.364404)
(-0.140838 0.103216 0.690369)
(-0.0772862 -0.159245 1.21297)
(-0.142031 0.121607 1.09378)
(-0.0251678 0.281268 0.598839)
(-0.0980855 -0.140989 0.715741)
(0.0418359 -0.139683 1.14285)
(-0.0935361 -0.0371242 1.13353)
(-0.10184 0.0736353 1.10454)
(-0.0131917 0.0872845 0.817104)
(-0.144847 0.0510583 0.886383)
(-0.024326 0.0589127 0.94919)
(-0.0440845 0.0191933 0.853296)
(0.00122658 0.0213291 0.258009)
(0.241313 -0.259507 0.0797801)
(0.319108 0.0942117 -0.00544591)
(0.103744 0.112642 0.0463625)
(-0.208084 -0.176603 1.60945)
(0.221643 -0.299583 0.255117)
(0.00208124 0.145447 0.148853)
(-0.0612015 0.110208 0.745908)
(-0.0971168 0.270231 1.27978)
(0.0172254 0.264648 0.957852)
(-0.0525621 -0.3082 0.423645)
(-0.0658683 -0.152846 0.391118)
(-0.162163 0.12443 0.771274)
(-0.120487 -0.0287238 1.24779)
(-0.124035 0.186876 1.12882)
(-0.12856 0.364152 0.588852)
(-0.160915 -0.165417 0.714178)
(-0.0262613 -0.151504 1.09052)
(-0.118919 0.0349175 1.12176)
(-0.146088 0.15275 1.10433)
(-0.0532261 0.123423 0.940438)
(-0.158642 0.0611242 0.829738)
(-0.100206 0.0683 0.952154)
(-0.0803121 0.0395964 0.845328)
(-0.0568804 -0.00504398 0.268181)
(0.273697 -0.299213 0.119431)
(0.325487 0.0653617 0.040287)
(0.0327481 0.146461 0.192313)
(-0.291923 -0.041926 1.27998)
(0.157224 -0.278655 0.184035)
(-0.146439 0.0941677 0.245304)
(-0.197784 0.112972 0.827422)
(-0.185847 0.245696 1.24474)
(-0.199062 0.0861543 0.781536)
(-0.0563166 -0.316826 0.403458)
(-0.0547263 -0.175067 0.411026)
(-0.221951 0.138174 0.867793)
(-0.189708 0.0783187 1.23231)
(-0.0620185 0.176299 1.14246)
(-0.0907796 0.333224 0.527987)
(-0.188845 -0.184742 0.697714)
(-0.106277 -0.0988293 1.07235)
(-0.160467 0.0666 1.12383)
(-0.133265 0.171544 1.11689)
(0.0023678 0.0450264 1.19132)
(-0.175566 0.0510595 0.822401)
(-0.143879 0.0976714 0.957767)
(-0.0738279 0.0498818 0.872696)
(-0.0543412 -0.0100997 0.287341)
(0.270917 -0.300561 0.158768)
(0.303312 0.0459434 0.0831514)
(-0.0101591 0.155629 0.302497)
(-0.28751 -0.0231401 1.05749)
(1.95545e-05 -0.24726 0.17688)
(-0.291146 0.00132791 0.340595)
(-0.318646 0.0135972 0.853604)
(-0.203192 0.115757 1.17784)
(-0.050421 -0.195654 0.496098)
(-0.063049 -0.302664 0.416687)
(-0.152087 -0.151562 0.49374)
(-0.341576 0.0619729 0.91938)
(-0.282894 0.0689494 1.1878)
(-0.019261 0.0415653 1.10781)
(0.062983 -0.0554255 0.473112)
(-0.227607 -0.172007 0.716942)
(-0.254196 -0.0702586 1.05891)
(-0.240959 0.0475425 1.09812)
(-0.0374058 0.132881 1.10902)
(0.0729012 -0.135979 1.32269)
(-0.187928 0.0264645 0.864225)
(-0.170845 0.0918193 0.970231)
(-0.0575974 0.0436156 0.850839)
(-0.0117043 -0.0206121 0.325592)
(0.263001 -0.302831 0.229616)
(0.268339 0.012311 0.146203)
(-0.0381609 0.154604 0.39613)
(-0.268654 -0.135569 0.979944)
(-0.105958 -0.274668 0.253349)
(-0.383359 -0.0833144 0.453121)
(-0.37283 -0.108318 0.831393)
(-0.192426 -0.160794 0.978804)
(0.0454187 -0.260889 0.402607)
(-0.0759201 -0.273006 0.509666)
(-0.308069 -0.179077 0.618343)
(-0.45981 -0.0841836 0.903507)
(-0.421536 -0.0725186 1.02026)
(-0.0880225 -0.123498 0.848393)
(0.0663214 -0.255721 0.397415)
(-0.251694 -0.15636 0.800384)
(-0.351064 -0.0719064 1.04797)
(-0.386251 0.0376661 0.929802)
(-0.0632317 -0.0360234 0.973189)
(0.0787281 -0.184623 1.36016)
(-0.211695 0.00511595 0.930942)
(-0.280363 0.100597 0.960985)
(-0.251656 0.0830031 0.604574)
(0.0301913 -0.0311876 0.392329)
(0.250949 -0.304985 0.341883)
(0.218969 -0.027095 0.243966)
(-0.0492548 0.132837 0.493711)
(-0.194843 -0.163421 1.01177)
(-0.150111 -0.301054 0.373383)
(-0.387489 -0.128393 0.560648)
(-0.376296 -0.132144 0.787691)
(-0.191835 -0.192678 0.785101)
(0.0401212 -0.142253 0.401343)
(-0.0751521 -0.254938 0.650287)
(-0.354302 -0.222542 0.730605)
(-0.4633 -0.152718 0.881048)
(-0.416063 -0.113644 0.859883)
(-0.173498 -0.0780284 0.551236)
(0.00800113 -0.335876 0.328236)
(-0.236266 -0.146964 0.921299)
(-0.353411 -0.0655656 1.04903)
(-0.365721 0.0967179 0.755873)
(-0.277527 0.106567 0.594062)
(0.0754449 -0.124388 1.3741)
(-0.250396 -0.0141227 1.03999)
(-0.320884 0.128386 0.980312)
(-0.229629 0.18024 0.499492)
(0.0622834 -0.0330982 0.481778)
(0.231938 -0.28924 0.482423)
(0.159311 -0.0615801 0.375977)
(-0.0811716 0.0659294 0.6059)
(-0.141803 -0.118321 1.04857)
(-0.160373 -0.295073 0.507857)
(-0.337627 -0.139835 0.626659)
(-0.330369 -0.124631 0.756694)
(-0.165458 -0.104537 0.608678)
(-0.0746027 -0.0466043 0.307833)
(-0.0663701 -0.231329 0.788532)
(-0.332366 -0.227404 0.820338)
(-0.433003 -0.149818 0.853807)
(-0.274221 -0.0301124 0.676757)
(-0.164727 -0.0320454 0.369531)
(-0.0195372 -0.236524 0.291237)
(-0.187504 -0.125939 1.03187)
(-0.337183 -0.0631976 1.03462)
(-0.208715 0.150014 0.645142)
(-0.247072 0.113733 0.438921)
(-0.08403 -0.0326354 0.926276)
(-0.204098 -0.02535 1.16594)
(-0.253663 0.146944 0.998559)
(-0.0656799 0.117646 0.606794)
(0.0806842 -0.0298183 0.580555)
(0.213684 -0.260116 0.631207)
(0.0979367 -0.0799836 0.524502)
(-0.121645 0.0116816 0.708528)
(-0.139615 -0.0951417 1.05808)
(-0.156982 -0.266084 0.634396)
(-0.288897 -0.108808 0.675047)
(-0.314508 -0.0995389 0.702322)
(-0.119627 -0.0230239 0.493401)
(-0.0860201 -0.0429784 0.227221)
(-0.0608352 -0.205327 0.907666)
(-0.300665 -0.214927 0.897163)
(-0.330572 -0.0849431 0.786077)
(-0.176712 0.0613046 0.511699)
(-0.142521 -0.0488456 0.278122)
(-0.0196973 -0.140742 0.248272)
(-0.15451 -0.110834 1.10572)
(-0.310693 -0.0586031 0.974064)
(-0.117896 0.142736 0.576012)
(-0.155804 0.0166842 0.388088)
(-0.0211246 -0.0512251 0.390629)
(-0.153066 -0.0427375 1.2354)
(-0.138285 0.00343812 1.02841)
(0.0685899 0.0136017 0.665979)
(0.0802018 -0.0273501 0.684458)
(0.191958 -0.217416 0.769042)
(0.0360715 -0.0857066 0.667457)
(-0.17243 -0.000309565 0.790743)
(-0.174615 -0.107 1.04364)
(-0.14239 -0.210332 0.751879)
(-0.267745 -0.0352075 0.711965)
(-0.278167 -0.0418615 0.593981)
(-0.115679 0.00455859 0.408047)
(-0.0793958 -0.0925316 0.215244)
(-0.0618955 -0.196417 1.02912)
(-0.285681 -0.19538 0.964094)
(-0.2312 0.0146325 0.717041)
(-0.138078 0.114807 0.416519)
(-0.109574 -0.0644224 0.227369)
(-0.00985558 -0.124253 0.187926)
(-0.169672 -0.117812 1.16599)
(-0.229946 -0.0357614 0.953291)
(-0.091831 0.0693275 0.543327)
(-0.0879857 -0.0483802 0.361334)
(0.0412764 -0.0927342 0.216232)
(-0.182616 -0.0787538 1.25883)
(-0.0698815 -0.0441209 0.94242)
(0.0504027 -0.029913 0.587587)
(0.0519317 -0.0230471 0.795625)
(0.164628 -0.165103 0.880719)
(-0.0236408 -0.082434 0.793993)
(-0.214756 -0.0036417 0.871471)
(-0.213845 -0.112803 1.00936)
(-0.0979912 -0.155272 0.864084)
(-0.251938 0.0454088 0.715466)
(-0.223856 0.011493 0.476689)
(-0.14253 -0.0040596 0.32722)
(-0.0637747 -0.150901 0.173095)
(-0.059128 -0.196914 1.1545)
(-0.248898 -0.169469 1.02727)
(-0.202285 0.0768006 0.684491)
(-0.100208 0.124329 0.368605)
(-0.0654236 -0.0681209 0.190434)
(0.0069274 -0.143029 0.133122)
(-0.166286 -0.125957 1.23634)
(-0.137645 0.00129963 0.932458)
(-0.0806524 -0.0240617 0.545042)
(-0.0370627 -0.0602411 0.321124)
(0.0701234 -0.127594 0.123357)
(-0.197935 -0.0661102 1.25935)
(-0.0698138 -0.010797 0.902927)
(0.0781588 -0.0343086 0.361073)
(0.0197236 -0.0196018 0.894908)
(0.119362 -0.0798784 0.95984)
(-0.0849335 -0.0750948 0.911261)
(-0.225992 -0.0434906 0.950713)
(-0.180375 -0.127899 0.971156)
(-0.0306315 -0.113027 0.9669)
(-0.215443 0.102574 0.694197)
(-0.181636 0.0332415 0.374796)
(-0.169724 -0.0186011 0.24686)
(-0.0566378 -0.172805 0.123783)
(-0.0495641 -0.202657 1.26237)
(-0.178513 -0.12487 1.0646)
(-0.175325 0.0997617 0.67368)
(-0.0596601 0.102516 0.34848)
(-0.0181761 -0.0678821 0.161546)
(0.0306921 -0.169232 0.0924048)
(-0.172365 -0.134268 1.31196)
(-0.0936403 0.0332087 0.915219)
(-0.0581174 -0.0766952 0.545117)
(0.015447 -0.0595886 0.269967)
(0.0918813 -0.15526 0.0600898)
(-0.16095 -0.0280563 1.20981)
(-0.0514905 -0.0322324 0.880924)
(0.107915 -0.0412274 0.232145)
(-0.0245192 -0.0164216 1.00108)
(0.0586516 -0.0161764 1.01523)
(-0.112145 -0.0624926 1.00699)
(-0.189948 -0.0567726 1.00664)
(-0.118955 -0.114765 0.948704)
(0.0341098 -0.0985494 1.06217)
(-0.1519 0.122277 0.684256)
(-0.147178 0.0361928 0.311363)
(-0.17864 -0.0248355 0.182114)
(-0.0540215 -0.179998 0.0864232)
(-0.0466251 -0.191439 1.32615)
(-0.106626 -0.0847096 1.086)
(-0.113647 0.092081 0.67116)
(-0.017279 0.0709659 0.341392)
(0.027209 -0.0669003 0.144794)
(0.0554555 -0.193266 0.0687904)
(-0.166526 -0.142194 1.36909)
(-0.0323305 0.0619804 0.911005)
(-0.00742989 -0.0920974 0.526128)
(0.0720655 -0.0645441 0.223213)
(0.113269 -0.180038 0.0234308)
(-0.100909 -0.02575 1.17948)
(-0.0136927 -0.0374896 0.799449)
(0.125326 -0.048379 0.160029)
(-0.0745268 -0.0137718 1.08848)
(-0.00640436 0.00871707 1.06867)
(-0.12315 -0.0477296 1.05687)
(-0.158115 -0.0503546 0.997803)
(-0.0879145 -0.10152 0.92733)
(0.0988938 -0.0486504 1.12654)
(-0.0652845 0.100459 0.702422)
(-0.112989 0.0351158 0.299884)
(-0.174149 -0.0255457 0.153477)
(-0.0472891 -0.193094 0.0691996)
(-0.0385203 -0.185718 1.36591)
(-0.0589959 -0.0359119 1.10862)
(-0.0122483 0.0527382 0.655945)
(0.0307654 0.0394266 0.349662)
(0.0697587 -0.0679292 0.143897)
(0.07907 -0.213707 0.0645602)
(-0.131766 -0.130843 1.39724)
(0.0572215 0.047943 0.904612)
(0.0701547 -0.103311 0.486346)
(0.127502 -0.0753765 0.189239)
(0.133742 -0.202594 0.0150135)
(-0.0760994 -0.0386214 1.15222)
(0.0371805 0.0250197 0.702727)
(0.149229 -0.0575064 0.11818)
(-0.103894 -0.0146733 1.14423)
(-0.0457429 0.0192516 1.11122)
(-0.130528 -0.0267107 1.06852)
(-0.141315 -0.0416072 0.944796)
(-0.027653 -0.0684082 0.885837)
(0.144877 0.0269448 1.14273)
(0.0324673 0.0531839 0.746197)
(-0.0759868 0.035444 0.330761)
(-0.168442 -0.0249955 0.155249)
(-0.0429928 -0.200799 0.0771055)
(-0.0280899 -0.155952 1.37659)
(0.0143439 0.0302372 1.13525)
(0.0749107 -0.00615231 0.653184)
(0.0792975 0.0122716 0.376067)
(0.102965 -0.0684543 0.160214)
(0.0978631 -0.229863 0.0816275)
(-0.100915 -0.126304 1.38552)
(0.117212 -0.0346401 0.872479)
(0.146096 -0.120119 0.437614)
(0.172162 -0.0871514 0.177666)
(0.150736 -0.220298 0.0348973)
(-0.0387012 -0.039809 1.13756)
(0.116916 0.039833 0.589663)
(0.176443 -0.0712704 0.106327)
(-0.109331 -0.0124984 1.17345)
(-0.0678176 0.0337837 1.13119)
(-0.116859 -0.00456812 1.06852)
(-0.0777613 0.00363303 0.85826)
(0.00345736 -0.0593743 0.836241)
(0.163598 0.0668021 1.14346)
(0.121011 -0.00447096 0.808716)
(-0.0401687 0.042909 0.392734)
(-0.167057 -0.0238466 0.175678)
(-0.0461027 -0.200519 0.103996)
(-0.0184205 -0.112889 1.36391)
(0.0921638 0.0355294 1.13569)
(0.137405 -0.0609352 0.681123)
(0.118233 -0.000243734 0.418102)
(0.1237 -0.0658207 0.189496)
(0.110947 -0.240999 0.117296)
(-0.0336424 -0.0971103 1.33588)
(0.135888 -0.130467 0.804031)
(0.195842 -0.122661 0.397461)
(0.199088 -0.0900956 0.185805)
(0.162801 -0.229855 0.0775273)
(-0.00607364 -0.0808134 1.06085)
(0.185095 -0.00521185 0.497295)
(0.198869 -0.0854966 0.122043)
(-0.124671 -0.0118762 1.17526)
(-0.0902544 0.0586838 1.13882)
(-0.101849 0.012463 1.06931)
(-0.00692939 0.0191236 0.789657)
(-0.0525712 -0.0143409 0.796296)
(0.164448 0.0697727 1.14355)
(0.183653 -0.0409771 0.881015)
(-0.0034958 0.0636528 0.477591)
(-0.163696 -0.0184354 0.205387)
(-0.0560507 -0.193283 0.148266)
(0.00549653 -0.0854295 1.31113)
(0.150749 0.0161939 1.12396)
(0.174258 -0.0757896 0.731305)
(0.151332 0.00843844 0.474012)
(0.139501 -0.0553458 0.227483)
(0.118666 -0.242886 0.166045)
(-0.0442195 -0.127053 1.25128)
(0.140922 -0.160615 0.72478)
(0.224047 -0.0885894 0.373968)
(0.213152 -0.0776827 0.209201)
(0.168151 -0.235865 0.134084)
(0.14289 -0.00208873 0.77713)
(0.201338 -0.0298042 0.453511)
(0.2111 -0.0940173 0.15474)
(-0.126377 -0.0170497 1.17358)
(-0.103618 0.0777725 1.14102)
(-0.0970508 0.0407415 1.07197)
(0.0475605 0.0177756 0.78459)
(-0.0443071 0.0342515 0.663837)
(0.146887 0.0767934 1.14682)
(0.224539 -0.032196 0.934452)
(0.0532567 0.0958892 0.582778)
(-0.136971 -0.0110016 0.24195)
(-0.0702618 -0.184851 0.196186)
(0.00600743 -0.0052146 1.15728)
(0.188181 0.0212481 1.11187)
(0.204315 -0.0334269 0.800971)
(0.209794 0.0361161 0.528143)
(0.160092 -0.0354458 0.275455)
(0.125352 -0.232423 0.224856)
(0.0469736 -0.0563201 1.14259)
(0.163564 -0.106681 0.667698)
(0.244545 -0.0244451 0.37211)
(0.215952 -0.0526182 0.248711)
(0.167502 -0.234441 0.203039)
(0.194843 0.0547685 0.620867)
(0.204315 -0.01624 0.412117)
(0.221168 -0.0993664 0.201505)
(-0.101526 -0.0179962 1.16305)
(-0.111499 0.100266 1.13977)
(-0.080167 0.0443075 1.05883)
(0.0644786 0.0447147 0.809088)
(0.00677403 0.0131181 0.594327)
(0.0751135 0.10667 1.09214)
(0.266558 0.0189768 0.942135)
(0.14351 0.120686 0.683978)
(-0.0602146 0.0028952 0.311125)
(-0.0805372 -0.168746 0.237839)
(0.0204777 0.104246 1.02955)
(0.199041 0.0982655 1.04726)
(0.246548 0.0462887 0.832471)
(0.287561 0.0724048 0.569523)
(0.180103 -0.00744063 0.339537)
(0.132338 -0.211833 0.294226)
(0.172807 0.100963 1.01641)
(0.212951 0.0207726 0.633182)
(0.257258 0.038021 0.395895)
(0.214358 -0.0234124 0.307816)
(0.164287 -0.224283 0.288762)
(0.197207 0.0665524 0.549584)
(0.222899 0.00750247 0.394137)
(0.228251 -0.104262 0.272226)
(-0.0683113 -0.0112109 1.1321)
(-0.108178 0.10747 1.13114)
(-0.0446937 0.0242117 1.05227)
(0.0292234 0.0786025 0.821217)
(0.0259396 -0.000786686 0.58933)
(0.136646 0.105092 0.989263)
(0.323159 0.0982345 0.874108)
(0.251735 0.11719 0.739965)
(0.0429201 0.0156305 0.413362)
(-0.0636333 -0.148893 0.29522)
(0.0215644 0.142528 0.871283)
(0.186304 0.206504 0.934125)
(0.279608 0.116548 0.817454)
(0.328911 0.0965305 0.605016)
(0.184555 0.0198428 0.42017)
(0.130663 -0.186417 0.378994)
(0.190921 0.157915 0.931935)
(0.234066 0.106511 0.616646)
(0.25153 0.0706921 0.444099)
(0.209529 0.00160137 0.38738)
(0.158745 -0.216236 0.393135)
(0.20101 0.0889819 0.539963)
(0.246426 0.0151452 0.415403)
(0.231318 -0.11127 0.362558)
(-0.0588292 -0.0320857 1.1206)
(-0.0966431 0.116623 1.10682)
(0.00815836 0.0374691 1.07431)
(-0.0282071 0.0489862 0.852359)
(0.0264797 -0.0288395 0.608881)
(0.0650191 0.181429 0.842154)
(0.360135 0.120258 0.771844)
(0.301721 0.0815394 0.756315)
(0.115634 0.0233379 0.524038)
(-0.0301276 -0.118747 0.386318)
(0.0107687 0.158285 0.825394)
(0.0985623 0.253716 0.788338)
(0.27226 0.13176 0.7915)
(0.319843 0.0989426 0.629939)
(0.15561 0.031851 0.512946)
(0.113363 -0.166887 0.480756)
(0.122905 0.132114 0.872737)
(0.226256 0.12528 0.601601)
(0.225172 0.0652598 0.508349)
(0.193414 -0.000296266 0.471791)
(0.149327 -0.212231 0.502828)
(0.208283 0.112084 0.573789)
(0.255051 -0.00140763 0.462608)
(0.228893 -0.11551 0.454877)
(-0.0229223 -0.0160534 1.08316)
(-0.0468767 0.04345 1.06643)
(0.062856 0.00127402 1.06116)
(0.0585243 -0.0446987 0.912355)
(0.0541676 -0.0696612 0.648319)
(0.0260754 0.270712 0.586692)
(0.328624 0.0426692 0.690488)
(0.287255 0.0459558 0.788501)
(0.141136 0.0289884 0.624417)
(7.55072e-05 -0.0872869 0.49417)
(-0.000324361 0.13346 0.866804)
(0.0137128 0.233756 0.762871)
(0.215563 0.114692 0.720485)
(0.261236 0.0873374 0.670027)
(0.0834371 0.0181262 0.607275)
(0.0783012 -0.157244 0.585289)
(0.0211595 0.133172 0.869196)
(0.189271 0.0954358 0.577296)
(0.184018 0.0267461 0.57038)
(0.174937 -0.0418865 0.55029)
(0.144307 -0.214726 0.606326)
(0.191589 0.0812133 0.603819)
(0.238645 -0.0189368 0.508402)
(0.220739 -0.107154 0.530784)
(0.124836 0.0012081 0.970639)
(-0.0271808 0.0242799 0.959748)
(0.282221 0.0327146 0.982913)
(0.318814 -0.056837 0.924352)
(0.135952 -0.0859496 0.730648)
(0.0358777 0.100121 0.487534)
(0.19404 -0.1021 0.601423)
(0.256884 0.0113686 0.803582)
(0.121626 0.0201029 0.712507)
(0.0241011 -0.060092 0.613686)
(-0.0106701 0.0483638 0.939133)
(-0.0745621 -0.00941085 0.759299)
(0.100286 0.0786793 0.599617)
(0.157512 0.0584766 0.721519)
(0.00618519 -0.0122089 0.687631)
(0.0401536 -0.143881 0.673277)
(0.00468548 0.109463 0.88824)
(0.14382 0.0661759 0.559303)
(0.140206 -0.0183577 0.608799)
(0.152615 -0.0857945 0.612893)
(0.141574 -0.218262 0.700951)
(0.133687 0.0355906 0.588294)
(0.219761 -0.0129766 0.531771)
(0.215342 -0.102334 0.571181)
(0.193763 -0.0152515 0.965037)
(0.148551 -0.0338829 0.658606)
(0.288894 -0.0664802 0.855249)
(0.411695 -0.0378217 0.962897)
(0.181605 -0.0528098 0.862644)
(0.100221 -0.0775555 0.467352)
(0.125862 -0.136975 0.523835)
(0.218313 -0.030301 0.803177)
(0.051503 0.000593901 0.807021)
(0.0335546 -0.0404732 0.728624)
(-0.0135783 0.0271404 0.929574)
(0.00879187 -0.162664 0.685771)
(0.0342387 0.0538002 0.524155)
(0.0607128 0.030689 0.761526)
(-0.0486289 -0.045704 0.741385)
(0.016392 -0.132385 0.741748)
(0.0293729 0.0585783 0.856723)
(0.117701 0.0782192 0.545323)
(0.0988853 -0.0361755 0.624402)
(0.113614 -0.114328 0.654947)
(0.134247 -0.218033 0.772089)
(0.0973842 0.0569726 0.552146)
(0.206038 0.00611433 0.537498)
(0.21707 -0.101913 0.58013)
(0.25667 -0.00972777 1.10129)
(0.153315 -0.133366 0.464571)
(0.205258 -0.134426 0.807853)
(0.34698 -0.00524623 1.03262)
(0.146833 0.00896054 0.995228)
(0.173261 -0.107092 0.390111)
(0.0903919 -0.0975146 0.455394)
(0.131677 -0.0706158 0.835146)
(-0.0369806 -0.0011938 0.89937)
(0.0319939 -0.0316196 0.809233)
(0.000478619 -0.122211 0.787032)
(0.0710611 -0.169952 0.630292)
(0.0101474 0.0615199 0.478664)
(-0.0105577 0.0223953 0.784197)
(-0.0903472 -0.0628112 0.767424)
(0.00388624 -0.134446 0.790606)
(-0.00715917 -0.0619988 0.753388)
(0.0803606 0.113549 0.528892)
(0.065441 -0.0121983 0.629392)
(0.0722179 -0.120662 0.677357)
(0.124421 -0.218624 0.803945)
(0.0663659 0.0811489 0.526397)
(0.196833 0.0175738 0.533591)
(0.217527 -0.10961 0.571528)
(0.268705 0.00403326 1.21225)
(0.0702371 -0.0950365 0.419892)
(0.072657 -0.13938 0.804215)
(0.179377 0.0252984 1.09479)
(0.0991912 0.0513203 1.09524)
(0.164808 -0.0462037 0.310546)
(0.0496144 -0.00372316 0.419284)
(-0.00433243 -0.078914 0.875389)