/*--------------------------------*- C++ -*----------------------------------*\
| =========                 |                                                 |
| \\      /  F ield         | OpenFOAM: The Open Source CFD Toolbox           |
|  \\    /   O peration     | Version:  5.x                                   |
|   \\  /    A nd           | Web:      www.OpenFOAM.org                      |
|    \\/     M anipulation  |                                                 |
\*---------------------------------------------------------------------------*/
FoamFile
{
    version     2.0;
    format      ascii;
    class       volScalarField;
    location    "0.15";
    object      voidfraction;
}
// * * * * * * * * * * * * * * * * * * * * * * * * * * * * * * * * * * * * * //

dimensions      [0 0 0 0 0 0 0];

internalField   nonuniform List<scalar> 
10571
(
0.928556
0.782344
0.998115
0.999121
0.980762
0.998858
1
1
1
0.959034
0.96092
1
1
1
0.999042
0.980181
0.975543
1
1
0.995482
0.939415
0.972382
0.977583
0.925757
0.967734
0.903778
0.998539
1
0.991716
0.997233
1
1
0.999034
0.947312
0.972344
0.999439
1
1
0.999127
0.974227
0.977939
0.999543
0.999535
0.999125
0.919726
0.974997
0.981343
0.958228
0.977573
0.933379
0.99805
0.998084
0.959024
0.981166
0.999301
1
0.998747
0.950318
0.976041
0.999372
1
1
0.999331
0.976652
0.982315
0.999203
0.99973
1
0.942783
0.964435
0.984239
0.959107
0.977694
0.950823
0.997716
0.99472
0.973759
0.990748
0.977204
0.996558
0.988955
0.944785
0.972635
1
0.996866
0.999776
0.997355
0.963673
0.973299
0.98975
0.998839
1
0.956538
0.972609
0.978923
0.922169
0.987248
0.944504
0.992719
1
0.982358
0.995814
0.990095
0.992744
0.988154
0.979548
0.989774
1
0.990016
0.998427
0.987854
0.978097
0.988908
0.986658
0.991844
0.985183
0.952504
0.974912
0.991486
0.935101
0.984938
0.958273
0.992813
0.999018
0.992963
0.996182
0.99348
0.993184
0.991911
0.973511
0.793713
0.991203
1
0.995488
0.9955
0.989889
0.98051
0.612534
0.986588
0.986725
0.996819
0.984584
0.964878
0.972393
0.991302
0.967462
0.998131
0.968016
0.997671
0.998679
0.969852
0.993579
0.982855
0.996033
0.99407
0.980729
0.985205
0.997031
1
0.99249
0.995285
0.987265
0.982241
0.957565
0.987489
0.994807
0.99393
0.98109
0.967743
0.990967
0.969565
0.981608
0.972445
0.987359
0.968072
0.998515
0.999458
0.992399
0.99243
0.999666
0.990545
0.989431
0.973391
0.996452
0.990103
0.999865
0.988474
0.99796
0.992414
0.968852
0.993241
0.984451
0.991064
0.994013
0.995723
0.987207
0.999899
0.986603
0.98934
0.969
0.98329
0.95575
0.996186
0.999018
0.987461
0.997229
0.995848
0.998922
0.995572
0.988045
1
0.986584
0.998038
0.999664
0.993607
0.988904
0.982482
1
0.989203
0.999417
0.995726
0.986103
0.978543
0.977619
0.997282
0.981592
0.985268
0.957882
0.998043
0.996075
0.991119
0.996216
0.989915
0.989876
0.990922
0.972138
0.993622
1
0.998324
0.998766
0.99465
0.984105
0.993234
0.992105
0.999319
0.998992
0.97183
0.968637
0.998339
0.978352
1
0.939404
0.999359
0.998682
0.992759
0.998818
0.999778
0.992114
0.988391
0.978121
0.99978
1
0.990636
0.994521
0.991931
0.983474
0.984334
0.995555
0.994065
0.998363
0.978655
0.981842
0.992149
0.985018
0.994283
0.925967
0.999326
0.996824
0.992161
0.998987
0.999779
0.998756
0.997089
0.981058
1
0.995233
0.999688
0.991632
0.990143
0.975343
0.988514
0.998627
0.993988
0.985115
0.983219
0.97797
0.995803
0.975079
0.99978
0.926865
0.997033
0.988683
0.99285
0.993043
0.9942
0.998238
0.996188
0.978566
0.996811
0.994862
0.999411
0.997917
0.993184
0.978023
0.988785
0.999087
0.998824
0.999967
0.97473
0.980294
0.99381
0.984317
1
0.919921
0.998045
0.990946
0.986541
0.998244
0.996505
0.991342
0.993272
0.963443
1
0.996721
0.999146
0.998025
0.994451
0.982979
0.989597
0.993406
0.997619
0.997429
0.979976
0.971234
0.996346
0.981866
1
0.923673
0.997438
0.996318
0.990296
0.997535
0.996112
0.991595
0.993195
0.969452
1
0.996485
0.994065
0.995369
0.992692
0.973395
0.987222
0.996891
0.992278
0.999032
0.955683
0.968834
0.995984
0.978226
1
0.951729
0.995449
0.991216
0.990777
0.999595
0.998668
0.995529
0.994806
0.977399
1
0.997735
0.995596
0.990727
0.993377
0.971521
0.984727
0.99631
0.989178
0.991286
0.955822
0.973635
0.993961
0.957153
1
0.927877
0.998652
0.997028
0.992128
0.99821
0.998138
0.997026
0.994875
0.972898
1
0.999459
0.998596
0.993085
0.993029
0.964927
0.993116
0.995252
0.994559
0.995093
0.947342
0.989779
0.99689
0.991037
1
0.938684
0.999966
0.993109
0.988554
0.998987
0.996742
0.997812
0.995852
0.982126
1
0.995471
0.997985
0.997599
0.9942
0.955433
0.989659
0.993035
0.995901
0.998064
0.95268
0.98622
0.999124
0.99328
1
0.963099
0.996528
0.997095
0.99177
0.997029
0.991015
0.994059
0.996083
0.974496
1
0.998175
0.997865
0.996264
0.992149
0.950608
0.988877
0.993758
0.993625
0.997029
0.97333
0.985175
0.997132
0.99594
1
0.943388
1
0.994258
0.996365
0.999021
0.994781
0.994735
0.994265
0.968721
1
0.998581
0.992357
0.997808
0.993223
0.962336
0.992665
0.996867
0.994761
0.999666
0.96556
0.969882
0.998823
0.98712
1
0.983147
0.998685
0.993954
0.993121
1
0.996063
0.996139
0.994475
0.971197
1
0.995809
0.995888
0.998773
0.990848
0.959585
0.994258
0.991795
0.994833
1
0.95478
0.980836
0.995441
0.99349
1
0.970378
0.998146
0.998987
0.988885
0.998075
0.991576
0.996653
0.993942
0.98178
1
0.996654
0.998923
0.999009
0.993097
0.954628
0.991793
0.992877
0.99092
0.999967
0.96234
0.973867
0.998249
0.99293
1
0.990033
0.99727
0.997061
0.990718
0.998244
0.994247
0.993837
0.991919
0.979415
1
0.99902
0.995923
0.999702
0.993483
0.931776
0.994138
0.990112
0.992323
0.999032
0.9699
0.971041
0.997887
0.98873
1
0.985665
0.99518
0.996217
0.993031
0.996421
0.990653
0.993898
0.996676
0.983642
1
0.997432
0.995684
0.999524
0.993855
0.925005
0.994198
0.995288
0.992945
0.99793
0.95317
0.972203
0.994203
0.97508
1
0.954313
0.999663
0.996994
0.995945
0.999797
0.990531
0.996312
0.994447
0.975888
1
1
0.995242
0.999799
0.996206
0.918657
0.9948
0.990019
0.992699
1
0.97347
0.966937
0.994626
0.98383
1
0.957392
0.997641
0.989022
0.992339
0.996589
0.983396
0.989377
0.994996
0.986044
1
0.983778
0.986515
0.997847
0.994946
0.898102
0.988186
0.99402
0.992113
0.996896
0.96717
0.978356
0.992241
0.97942
1
0.983091
0.994944
0.982132
0.987595
0.9896
0.99636
0.992463
0.996583
0.984843
1
0.989456
0.99305
0.993627
0.996474
0.866544
0.97129
0.99375
0.996956
0.997496
0.98796
0.97356
0.99677
0.96416
0.996151
0.994121
0.996798
0.98882
0.987565
0.995441
0.995536
0.997682
0.996317
0.98058
0.998021
0.996891
0.996581
0.999551
0.997759
0.85409
0.989687
0.994925
0.997441
0.998999
0.98404
0.965662
0.999124
0.98656
1
0.996752
0.99791
0.996825
0.994143
0.996151
0.995986
0.992904
0.996814
0.980696
1
0.997972
0.992377
0.996422
0.995724
0.837797
0.993025
0.994476
0.997012
0.995627
0.96318
0.971972
0.997675
0.98474
1
0.985667
0.996427
0.99902
0.993752
0.997805
0.99385
0.987911
0.997795
0.984064
0.99956
0.998378
0.992784
0.979359
0.994281
0.806632
0.991372
0.98905
0.995937
0.993557
0.97515
0.971121
0.996135
0.98201
1
0.996696
0.998045
0.99902
0.992518
0.997332
0.994796
0.994055
0.995012
0.979877
1
0.996992
0.982107
0.989433
0.99405
0.80468
0.991311
0.983304
0.994215
0.992923
0.97298
0.968217
0.993327
0.97732
0.996701
0.99272
0.998989
1
0.990625
0.997839
0.979375
0.988832
0.9946
0.983948
1
0.99902
0.99555
0.99358
0.988821
0.779669
0.995941
0.989082
0.986311
0.987015
0.953659
0.972901
0.993116
0.97774
0.99989
0.991826
0.995786
0.999831
0.99369
0.999662
0.997001
0.994531
0.993627
0.985305
1
1
0.982184
0.980869
0.990621
0.748927
0.990018
0.986062
0.980199
0.98391
0.951559
0.973443
0.988616
0.9608
1
0.996135
0.994168
1
0.995042
0.9974
0.993381
0.988809
0.996079
0.984297
1
1
0.994819
0.997545
0.987338
0.734841
0.9954
0.995252
0.991053
0.979404
0.935179
0.977313
0.986684
0.96451
1
0.990257
0.994337
1
0.994441
0.994833
0.987112
0.997774
0.996398
0.985189
1
0.999358
0.997458
0.990529
0.982255
0.730397
0.996873
0.988048
0.975586
0.972927
0.891358
0.980679
0.969834
0.964646
1
1
0.99609
1
0.995523
0.998818
0.99314
0.995671
0.987925
0.99116
1
0.99804
0.989707
0.992922
0.957288
0.710421
0.998918
0.989284
0.97876
0.963914
0.843268
0.989896
0.94767
0.89493
0.996921
0.996752
1
0.99902
0.995643
0.998717
0.986853
0.991576
0.9841
0.98988
1
0.995302
0.993934
0.987885
0.869087
0.632273
0.99991
0.992583
0.953323
0.885167
0.770511
0.98459
0.938219
0.86763
0.997471
0.989921
0.995651
0.997027
0.996304
0.996218
0.985037
0.990724
0.979068
0.992323
0.996812
0.998276
0.991515
0.96782
0.700439
0.535549
0.996783
0.990213
0.849664
0.544507
0.659477
0.996864
0.856901
0.771869
0.992522
0.997312
0.998247
0.996723
0.997957
0.997096
0.995799
0.992321
0.986011
0.988058
0.996921
0.998141
0.997131
0.92505
0.568038
0.456694
0.997986
0.994194
0.719577
0.443027
0.575585
0.996012
0.739861
0.652588
0.996811
0.994959
0.99855
0.998953
0.998198
0.99534
0.99823
0.991488
0.993918
0.989108
0.996811
1
0.998031
0.90401
0.528735
0.466144
0.995069
0.999071
0.688869
0.429441
0.575305
0.996167
0.6689
0.559017
1
0.996752
0.995685
0.997399
0.997687
0.995745
0.999779
0.997851
0.994249
0.978525
0.996811
0.999797
0.999888
0.90964
0.5297
0.440571
0.99068
0.999301
0.693854
0.429374
0.505514
0.993573
0.663372
0.534847
0.996812
0.996752
0.993156
0.998885
0.996786
0.999392
0.999889
0.999555
0.997064
0.983758
0.99934
1
1
0.925554
0.567301
0.449911
0.996242
0.998708
0.728568
0.430909
0.495854
0.992876
0.669108
0.505657
0.995823
0.995408
0.995921
0.997602
0.995374
0.994733
0.999962
1
0.99836
0.96062
0.996811
0.998006
0.999888
0.978472
0.639808
0.451574
0.994919
0.998571
0.794157
0.434448
0.503834
0.990903
0.708608
0.504817
0.993404
0.994344
0.988472
0.998007
0.994924
0.993416
0.999706
1
0.998578
0.915194
0.998131
0.99804
1
0.998087
0.742653
0.448974
0.989027
0.999637
0.868236
0.450638
0.559135
0.983543
0.733988
0.524153
0.989996
0.994344
0.988337
0.997365
0.985612
0.98862
0.999889
1
0.99918
0.749065
0.99835
0.997398
1
0.996407
0.794258
0.502541
0.992484
0.999112
0.87242
0.548012
0.99727
0.952914
0.675821
0.910459
0.974386
0.982587
0.995281
0.999662
0.969452
0.994868
1
1
0.952458
0.539497
0.975152
0.99902
1
0.974588
0.83391
0.937866
0.979286
0.964351
0.860793
0.810892
1
0.725964
0.713107
0.99811
0.905339
0.894368
0.986549
0.998683
0.534202
0.904199
1
0.998995
0.871001
0.881705
0.901025
0.750756
0.984299
0.891957
0.926046
1
0.587239
0.805007
0.932839
0.993858
1
0.646391
1
1
0.700446
0.691112
0.473016
0.573523
0.978816
0.625135
0.901781
0.921242
0.962914
1
0.787251
0.84944
0.858951
0.853853
0.998484
0.999426
0.971773
0.980599
0.999491
1
1
1
1
1
1
1
1
1
1
1
0.943302
0.950178
1
1
1
1
0.984938
0.992806
0.999647
0.998246
1
1
1
1
0.99993
1
1
0.99797
1
1
1
1
1
1
1
1
1
1
1
1
1
0.999888
0.999753
0.999123
1
1
1
1
0.99797
1
1
1
1
1
1
1
1
1
1
1
1
1
1
1
1
1
0.998938
0.999395
1
1
0.999883
1
1
1
1
1
1
1
1
1
1
1
1
1
1
1
1
1
1
1
0.99906
0.999184
1
1
1
0.999032
0.99748
1
1
1
1
1
1
1
1
1
1
1
1
1
1
1
1
1
0.999335
0.996917
1
1
1
1
0.99496
1
1
1
1
1
1
1
1
1
1
1
1
1
1
1
1
1
0.999805
1
1
1
1
0.999733
0.99601
1
1
1
1
1
1
1
1
1
1
1
1
1
1
1
1
1
1
1
1
1
1
1
1
1
1
1
1
1
1
1
1
1
1
1
1
1
1
1
1
1
1
1
1
1
1
1
1
1
1
1
1
1
1
1
1
1
1
1
1
1
1
1
1
1
1
1
1
1
1
1
1
1
1
1
1
1
1
1
1
1
1
1
1
1
1
1
1
1
1
1
1
1
1
1
1
1
1
1
1
1
1
1
1
1
1
1
1
1
1
1
1
1
1
1
1
1
1
1
1
1
1
1
1
1
1
1
1
1
1
1
1
1
1
1
1
1
1
1
1
1
1
1
1
1
1
1
1
1
1
1
1
1
1
1
1
1
1
1
1
1
1
1
1
1
1
1
1
1
1
1
1
1
1
1
1
1
1
1
1
1
1
1
1
1
1
1
1
1
1
1
1
1
1
1
1
1
1
1
1
1
1
1
1
1
1
1
1
1
1
1
1
1
1
1
1
1
1
1
1
1
1
1
1
1
1
1
1
1
1
1
1
1
1
1
1
1
1
1
1
1
1
1
1
1
1
1
1
1
1
1
1
1
1
1
1
1
1
1
1
1
1
1
1
1
1
1
1
1
1
1
1
1
1
1
1
1
1
1
1
1
1
1
1
1
1
1
1
1
1
1
1
1
1
1
1
1
1
1
1
1
1
1
1
1
1
1
1
1
1
1
1
1
1
1
1
1
1
1
1
1
1
1
1
1
1
1
1
1
1
1
1
1
1
1
1
1
1
1
1
1
1
1
1
1
1
1
1
1
1
1
1
1
1
1
1
1
1
1
1
1
1
1
1
1
1
1
1
1
1
1
1
1
1
1
1
1
1
1
1
1
1
1
1
1
1
1
1
1
1
1
1
1
1
1
1
1
1
1
1
1
1
1
1
1
1
1
1
1
1
1
1
1
1
1
1
1
1
1
1
1
1
1
1
1
1
1
1
1
1
1
1
1
1
1
1
1
1
1
1
1
1
1
1
1
1
1
1
1
1
1
1
1
1
1
1
1
1
1
1
1
1
1
1
1
1
1
1
1
1
1
1
1
1
1
1
1
1
1
1
1
1
1
1
1
1
1
1
1
1
1
1
1
1
1
1
1
1
1
1
1
1
1
1
1
1
1
1
1
1
1
1
1
1
1
1
0.570645
0.705993
0.653836
0.729895
0.739171
0.740829
0.651724
0.617773
0.570477
0.513296
0.583004
0.582871
0.652603
0.660158
0.884348
0.768164
0.973301
0.901478
0.736874
0.994717
0.832826
0.61374
0.53132
0.660896
0.555252
0.532611
0.66054
0.719002
0.741779
0.672375
0.770557
0.879719
0.977715
0.952401
1
1
1
0.998784
0.961305
1
0.999203
0.736872
0.679651
0.938398
0.796563
0.61543
0.682415
0.670364
0.743283
0.734347
0.65129
0.889494
0.987123
0.708944
0.801362
1
1
0.959516
1
1
0.998279
1
0.945183
0.938395
0.807617
0.759775
0.667613
0.683391
0.687035
0.614679
0.593685
0.597774
0.665116
0.522241
0.560828
0.753901
0.957525
0.66702
0.829467
0.988802
0.801745
0.887517
0.717351
0.666495
0.559211
0.587451
0.528433
0.539937
0.539892
0.625776
0.716475
0.74538
0.741528
0.673679
0.719847
0.610394
0.896105
0.921313
0.922373
0.971525
0.984628
0.930314
0.977206
0.986216
0.977131
0.960902
0.939224
0.984875
0.965845
0.945813
0.959401
0.914096
0.917027
0.950321
0.960136
0.998316
0.87042
0.966102
0.973613
0.998603
0.867573
0.9984
0.948663
0.984259
0.901347
0.999428
0.964545
0.882268
0.889705
0.974157
0.923551
0.982055
0.97812
0.947391
0.983891
0.968355
0.965911
0.965832
0.978275
0.950233
0.980903
0.958296
0.971256
0.982686
0.962926
0.92918
0.947906
0.981228
0.935714
0.952267
0.943464
0.971523
0.997315
0.836539
0.940058
0.9819
0.999171
0.902664
0.969205
0.944136
0.974538
0.89421
0.997221
0.961829
0.983637
0.922597
0.929339
0.892116
0.892751
0.985355
0.947515
0.964812
0.990001
0.943388
0.977037
0.935279
0.981804
0.972908
0.955898
0.942127
0.913577
0.938469
0.960981
0.983505
0.986962
0.939505
0.984729
0.986525
0.984369
0.965124
0.968178
0.982147
0.970959
0.976699
0.972079
0.952257
0.967281
0.97245
0.97408
0.999137
0.922398
0.977463
0.978541
0.998976
0.930017
0.999192
0.964506
0.977948
0.94206
0.998869
0.969827
0.909791
0.92328
0.97441
0.952083
0.980168
0.978376
0.947976
0.979934
0.979241
0.917732
0.949965
0.975033
0.918137
0.977113
0.969795
0.972957
0.984658
0.978479
0.910042
0.944138
0.963037
0.916113
0.95087
0.972853
0.973638
0.998622
0.897899
0.961732
0.987647
0.998145
0.948166
0.975256
0.97646
0.98234
0.916669
0.998566
0.968382
0.986161
0.925832
0.944087
0.909554
0.923102
0.984525
0.932618
0.953004
0.98483
0.933251
0.970209
0.980074
0.983942
0.971311
0.934336
0.950328
0.958437
0.950881
0.946172
0.983297
0.950616
0.942265
0.984002
0.945536
0.982475
0.9693
0.980902
0.983568
0.964982
0.910268
0.943975
0.961496
0.96063
0.973495
0.977015
0.994976
0.947542
0.969865
0.982052
0.98245
0.947256
0.997522
0.984845
0.973081
0.945885
0.998662
0.969536
0.936228
0.922108
0.981416
0.964553
0.974003
0.96688
0.977608
0.968016
0.958403
0.91415
0.973361
0.972381
0.954918
0.98463
0.96339
0.97223
0.989355
0.959495
0.94802
0.939253
0.968836
0.950338
0.95736
0.971185
0.974828
0.9981
0.939817
0.977676
0.975547
0.997061
0.93441
0.97362
0.966239
0.975858
0.936694
1
0.966566
0.985381
0.935634
0.942094
0.914414
0.930432
0.982174
0.883864
0.968487
0.971561
0.897087
0.96991
0.951931
0.985873
0.964912
0.936875
0.956273
0.953415
0.951642
0.966153
0.979943
0.976062
0.976694
0.981859
0.949404
0.98591
0.967833
0.97241
0.983289
0.976585
0.938971
0.98947
0.96235
0.967758
0.963954
0.974732
0.964918
0.962544
0.973809
0.981394
0.974598
0.956245
0.983425
0.95337
0.988339
0.972775
0.982027
0.965557
0.928522
0.933718
0.970663
0.974723
0.963242
0.982862
0.968997
0.979057
0.970943
0.949459
0.961238
0.961653
0.991576
0.990595
0.960439
0.965259
0.989646
0.965706
0.982837
0.948909
0.984184
0.980541
0.962688
0.966199
0.976567
0.998326
0.952851
0.955977
0.983655
0.990516
0.962097
0.964391
0.958332
0.983568
0.923492
0.995889
0.976424
0.978027
0.932843
0.970023
0.937213
0.95271
0.979402
0.9299
0.973985
0.977198
0.938982
0.955517
0.967531
0.98442
0.965436
0.972457
0.948237
0.974561
0.97435
0.972513
0.993422
0.971601
0.9746
0.990944
0.994337
0.984612
0.976571
0.975483
0.988636
0.975435
0.923664
0.987084
0.971512
0.954862
0.978196
0.985345
0.98725
0.942762
0.978459
0.976998
0.965757
0.979392
0.96931
0.980637
0.984226
0.971638
1
0.978288
0.949895
0.952373
0.980496
0.965035
0.962061
0.988931
0.977238
0.991036
0.943544
0.972226
0.988717
0.968969
0.937321
0.989611
0.979479
0.983286
0.988033
0.944663
0.988794
0.974391
0.973494
0.942827
0.958716
0.991141
0.962749
0.994331
0.967377
0.969643
0.991009
0.993435
0.971987
0.977476
0.976485
0.978661
0.948021
0.982854
0.971399
0.970731
0.955207
0.963044
0.954454
0.949484
0.977411
0.913188
0.984396
0.975435
0.928329
0.968092
0.960605
0.98683
0.968227
0.976734
0.963326
0.97644
0.958593
0.986475
0.991485
0.980191
0.990324
0.987303
0.960866
0.985633
0.989032
0.982299
0.984753
0.993993
0.986107
0.980397
0.972066
0.978822
0.968148
0.972524
0.988538
0.971714
0.982589
0.977975
0.995473
0.975021
0.979841
0.974115
0.989097
0.975672
0.98688
0.982563
0.951416
0.977825
0.986375
0.987354
0.986218
0.986645
0.996811
0.977887
0.933042
0.977676
0.802647
0.979294
0.97371
0.964492
0.973257
0.594487
0.61277
0.512724
0.960549
0.888455
0.967438
0.906208
0.987365
0.985439
0.982186
0.99503
0.989466
0.811306
0.97931
0.91574
0.989876
0.980361
0.984691
0.961576
0.520948
0.791755
0.584365
0.96428
0.891928
0.970023
0.890167
0.989396
0.988838
0.998383
0.954943
0.96473
0.992421
0.994092
0.969735
0.986012
0.979998
0.9835
0.961817
0.995674
0.9867
0.980226
0.95471
0.978061
0.946405
0.946963
0.98115
0.967733
0.965576
0.989242
0.945782
0.974307
0.973003
0.992236
0.966772
0.969052
0.962659
0.962008
0.962635
0.996812
0.994542
0.987764
1
0.990748
0.99791
0.994605
0.985009
0.997252
0.995515
0.988501
0.960507
0.986922
0.982166
0.97492
0.988552
0.98316
0.984983
0.971377
0.978871
0.982027
0.974817
0.977712
0.998012
0.989234
0.986684
0.981087
0.986151
0.980523
0.960405
0.995994
0.973448
0.999509
0.996549
0.993156
0.99854
1
0.993032
1
0.989882
0.98831
0.997471
0.994032
0.984249
0.983173
0.96733
0.972816
0.995171
0.98429
0.963625
0.99213
0.964975
0.979648
0.990896
0.997444
0.982141
0.98516
0.996727
0.981952
0.996261
0.996454
0.978428
0.962519
0.95067
0.979778
0.976408
0.961051
0.981861
0.97867
0.969989
0.981833
0.986186
0.979667
0.985331
0.992611
0.994921
0.985977
0.987303
0.995017
0.977273
0.976021
0.989473
0.999934
0.968272
0.972205
0.980578
0.967971
0.965615
0.991646
0.976535
0.985486
0.976529
0.995692
0.969106
0.994212
0.993162
0.998541
0.998387
0.963896
0.966205
0.979668
0.940736
0.973399
0.975316
0.964442
0.979355
0.938107
0.990789
0.971642
0.969384
0.967734
0.976298
0.96877
0.991534
0.992103
0.996214
0.982958
0.993768
0.98622
0.989152
0.995974
0.989337
0.99
0.990978
0.991863
0.986011
0.986764
0.978264
0.978452
0.982236
0.995928
0.960175
0.982678
0.98155
0.995114
0.969306
0.978882
0.980417
0.989293
0.984344
0.998048
0.987165
0.973104
0.999458
0.977038
1
0.998883
0.996734
1
1
0.98831
0.983945
0.989397
0.994503
0.987354
0.991609
0.986465
0.928986
0.977302
0.982458
0.999042
0.977993
0.991098
0.994353
0.994183
0.993203
0.998532
0.998972
0.999188
1
0.990879
0.991015
0.980646
0.991424
0.993339
0.981952
0.983678
0.990908
0.980976
0.991887
0.959962
0.993992
0.996586
0.995832
0.996269
0.999216
0.999284
0.998585
0.999949
0.991907
0.996023
0.996733
0.958878
0.976384
0.989594
0.999208
0.961859
0.986587
0.987294
0.990724
0.975734
0.985971
0.986196
0.967437
0.971648
0.996661
0.98221
0.999703
1
1
1
0.939477
0.970264
0.987371
0.996817
0.978665
0.994743
0.993635
0.975292
0.985077
0.995561
0.976414
0.992758
0.97484
0.986895
0.979925
0.990544
0.990013
0.986128
0.997471
0.988272
0.99264
0.991575
0.987644
0.985488
0.994242
0.990897
0.988919
0.988911
0.988645
0.984326
0.977524
0.982654
0.997818
0.959336
0.988763
0.984115
0.995603
0.977834
0.999798
0.983967
0.981131
0.991198
0.998365
0.986333
0.976139
0.974957
0.992839
0.993622
0.992245
0.997329
0.993622
0.990398
0.995165
0.983178
0.993223
0.980836
0.998569
0.974313
0.986403
1
1
1
1
1
1
1
0.988
0.988885
0.994942
0.993818
0.989001
0.99186
0.976462
0.995949
0.986583
0.990148
0.986476
0.99935
1
1
1
1
1
1
1
0.992535
0.980606
0.998449
0.958484
0.982106
0.995429
0.999043
0.960342
0.987768
0.983573
0.987079
0.975577
0.998245
0.985
0.989034
0.961379
0.986479
0.970334
0.943537
0.993172
0.996817
0.97065
0.990937
0.984306
0.996314
0.993635
0.994987
0.995267
0.994184
0.975202
0.968913
0.977696
0.981307
0.991408
0.993579
0.992413
0.990131
0.994125
0.990455
0.984895
0.993734
0.996819
0.993302
0.996861
0.990516
0.98356
0.989133
0.99191
0.978543
0.993813
0.952731
0.988795
0.985458
0.997754
0.986311
0.992627
0.992019
0.994497
0.979272
0.996164
0.98783
0.965903
0.964206
0.987807
0.990433
0.994942
0.995433
0.9989
0.993548
0.980118
0.99067
0.964516
0.975284
0.985207
0.996667
0.991325
0.990323
0.994182
0.99361
0.977104
0.977366
0.984316
0.96622
0.976969
0.986466
0.996024
1
0.972324
0.986467
0.992212
0.999934
0.973788
0.987285
0.984528
0.99003
0.962112
0.998125
0.977207
0.989286
0.957363
0.960358
0.958651
0.964739
0.993927
0.957746
0.969916
0.993959
0.934808
0.988367
0.986612
0.996074
0.985195
0.965105
0.986834
0.965361
0.942918
0.990434
0.988777
0.994095
0.993733
0.981232
0.991855
0.997334
0.991755
0.997581
0.99685
0.993691
0.989124
0.98083
0.98586
0.980287
0.984392
0.983105
0.999382
0.914428
0.98607
0.984476
1
0.966469
0.993469
0.981662
0.989157
0.973885
1
0.985369
0.958887
0.955968
0.989705
0.990653
0.995911
0.98804
0.988234
0.991247
0.977816
0.980268
0.972607
0.981668
0.984176
0.993546
0.991016
1
0.995698
0.994308
0.977781
0.970715
0.977846
0.977495
0.96784
0.991908
0.980468
0.999043
0.96732
0.980353
0.989236
1
0.953091
0.985924
0.983343
0.987623
0.977805
0.992524
0.983115
0.986838
0.975489
0.981422
0.959631
0.943051
0.984414
0.98233
0.988424
0.992147
0.996817
0.979932
0.987161
0.987982
0.982066
0.987051
0.98271
0.979022
0.979649
0.990984
0.96974
0.981832
0.996152
0.971908
0.995398
0.995972
0.987691
1
0.99373
0.986879
0.982921
0.983409
0.973949
0.984049
0.981488
0.985282
1
0.926696
0.981219
0.989423
1
0.951975
1
0.982616
0.99201
0.961627
1
0.984576
0.952912
0.957419
0.993111
0.993622
0.983282
0.989124
1
0.992096
0.984938
0.97547
0.980781
0.978884
0.976896
0.986397
0.993378
0.997031
0.9857
0.99121
0.972528
0.968122
0.977514
0.967578
0.976587
0.989467
0.986398
1
0.935093
0.990495
0.9911
1
0.95073
0.985864
0.988142
0.989756
0.954922
0.998365
0.98579
0.986685
0.952651
0.971171
0.915556
0.926051
0.993265
0.990452
0.985327
0.991634
0.994732
0.980131
0.996379
0.995048
0.991944
0.998683
0.986979
0.954908
0.946475
0.990654
0.98073
0.991522
1
0.977828
0.978774
0.99161
0.993652
1
0.994851
0.992955
0.991773
0.993935
0.962039
0.950615
0.984604
0.981648
0.999056
0.913985
0.971335
0.981767
0.999089
0.966903
0.999045
0.986598
0.987683
0.977465
0.98995
0.98811
0.945932
0.956068
0.987383
0.996811
0.991551
0.987693
0.996811
0.966475
0.981361
0.971393
0.966507
0.978908
0.968313
0.992729
0.99849
1
0.987518
0.9897
0.972192
0.985832
0.978807
0.966147
0.983507
0.99428
0.984654
1
0.965691
0.988195
0.992153
1
0.941562
0.986681
0.985817
0.983461
0.944279
0.999032
0.984077
0.982092
0.968069
0.964294
0.947669
0.911219
0.992842
0.990451
0.970925
0.988523
0.993634
0.989
0.992976
0.992209
0.988341
0.997037
0.985577
0.95219
0.95226
1
0.962622
0.974293
0.993623
0.973185
0.982832
0.99055
0.974956
1
0.988127
0.96675
0.987033
0.989821
0.955492
0.956119
0.978014
0.983912
0.996876
0.908217
0.98059
0.986176
1
0.953862
0.997364
0.990318
0.995824
0.959538
0.999044
0.98708
0.950189
0.929129
0.984093
0.996811
0.970321
0.987073
1
0.984737
0.97915
0.963584
0.961349
0.978453
0.964794
0.976703
0.975954
1
0.978915
0.987841
0.985712
0.986527
0.974815
0.9534
0.984784
0.978307
0.978935
1
0.932394
0.982171
0.988184
0.999143
0.951742
0.985713
0.988896
0.987048
0.967277
0.998698
0.989811
0.98571
0.955634
0.971224
0.881276
0.888062
0.997463
0.993634
0.9554
0.983963
0.979696
0.986637
0.997366
0.995622
0.993493
0.987928
0.984597
0.951982
0.939367
1
0.980731
0.979229
1
0.973185
0.974021
0.990489
0.98053
1
0.990883
0.979252
0.977273
0.985081
0.944208
0.960646
0.986192
0.988917
0.998113
0.944785
0.987599
0.989573
0.994339
0.9542
0.998385
0.985628
0.991648
0.957965
1
0.991014
0.940326
0.940186
0.98448
1
0.972805
0.984287
0.993623
0.968292
0.969436
0.958524
0.976081
0.978
0.950603
0.981338
0.989777
1
0.987518
0.985363
0.971535
0.969878
0.967983
0.953731
0.977854
0.966379
0.976981
1
0.946399
0.988619
0.990018
0.999044
0.931045
0.992312
0.970105
0.984403
0.946367
0.989016
0.986639
0.991031
0.956257
0.955262
0.894009
0.907302
0.979372
0.991659
0.973209
0.984869
1
0.989
0.987159
0.992723
0.983616
0.989354
0.976546
0.959857
0.947939
1
0.977209
0.974111
0.993623
0.988005
0.980743
0.98737
0.973446
1
0.988278
0.981188
0.973229
0.980898
0.957303
0.951452
0.992332
0.992373
0.995054
0.929105
0.991254
0.991211
0.994989
0.96572
1
0.987323
0.992099
0.965776
0.997331
0.993979
0.945223
0.979222
0.984674
1
0.978922
0.984945
1
0.97653
0.984446
0.971946
0.976043
0.980482
0.960285
0.985034
0.984821
1
0.993547
0.987377
0.963073
0.987765
0.970251
0.952742
0.977118
0.979214
0.973912
0.998087
0.95523
0.994158
0.991702
0.996307
0.970753
0.984805
0.985845
0.9827
0.957613
0.996995
0.986486
0.986987
0.946706
0.953302
0.911779
0.920315
0.985956
0.990451
0.977274
0.990003
1
0.97982
1
0.999305
0.98625
1
0.974866
0.926199
0.920546
1
0.988315
0.976473
1
0.9757
0.972416
0.994457
0.980219
1
0.99158
0.974261
0.990587
0.988778
0.941425
0.945876
0.991165
0.989008
0.995185
0.935821
0.984901
0.985997
0.992125
0.969593
0.998089
0.989409
0.994112
0.973199
0.998748
0.986326
0.971312
0.976288
0.983127
1
0.972353
0.980144
0.996921
0.95984
0.982054
0.956872
0.977946
0.981996
0.972388
0.983401
0.979131
1
0.981093
0.981063
0.957795
0.983775
0.966293
0.944503
0.985251
0.971818
0.970845
0.994197
0.967714
0.990587
0.988093
0.994261
0.950395
0.983714
0.989414
0.989236
0.951106
1
0.989324
0.983583
0.964684
0.9426
0.952914
0.95145
0.993356
0.993633
0.986837
0.997765
1
0.995468
1
0.997977
0.995508
1
0.97991
0.933308
0.958321
1
0.97849
0.953469
1
0.982314
0.969383
0.986403
0.967026
1
0.983399
0.951258
0.986824
0.977759
0.938709
0.94713
0.988739
0.994102
0.991639
0.961974
0.988407
0.993683
0.980539
0.974764
0.99944
0.986777
0.989936
0.976402
0.998056
0.990137
0.971103
0.963139
0.981463
0.99989
0.94898
0.984518
1
0.971286
0.984505
0.978986
0.982597
0.977911
0.978548
0.961256
0.961046
1
0.97761
0.978393
0.944276
0.979867
0.963693
0.930326
0.988772
0.967846
0.972516
0.991461
0.950508
0.987893
0.984604
0.9969
0.972833
0.98668
0.989294
0.98398
0.984856
1
0.990145
0.982271
0.971285
0.961277
0.920669
0.895892
0.999004
1
0.983078
0.998822
0.99989
0.996244
1
0.999124
0.996281
1
0.994538
0.959655
0.943888
1
0.97818
0.980261
1
0.990364
0.996881
0.985797
0.964859
1
0.995789
0.977661
0.975464
0.975107
0.973185
0.952006
0.991615
0.991778
0.96633
0.933301
0.988376
0.990466
0.990563
0.971963
1
0.988716
0.991406
0.974876
0.997759
0.98266
0.964607
0.97698
0.984367
1
0.987767
0.992103
0.996811
0.988187
0.985296
0.978001
0.976892
0.979964
0.976343
0.981311
0.980834
1
0.986607
0.98176
0.930444
0.983548
0.951075
0.925474
0.985711
0.964842
0.972937
0.993472
0.973901
0.975363
0.990889
0.980047
0.979528
0.979264
0.992954
0.982794
0.981466
0.999232
0.988711
0.986589
0.982703
0.978223
0.892196
0.946057
0.993206
0.996927
0.975295
0.993083
0.993633
0.998916
1
0.995923
0.993492
1
0.988586
0.948848
0.963409
1
0.986652
0.98468
1
0.986688
0.990098
0.996245
0.99373
1
0.99794
0.984979
0.987941
0.990726
0.953474
0.979242
0.987271
0.992077
0.995803
0.968191
0.987838
0.992759
0.995867
0.978312
0.989589
0.986327
0.991527
0.974539
0.994957
0.992495
0.977058
0.983417
0.990132
1
0.991885
0.988891
1
0.988096
0.97637
0.949622
0.970029
0.983989
0.971831
0.995244
0.989546
1
0.993213
0.991364
0.931652
0.985793
0.952042
0.928881
0.976108
0.982005
0.986955
0.985526
0.974357
0.985019
0.99143
0.997065
0.951734
0.978747
0.990606
0.985104
0.969939
0.998965
0.987124
0.977497
0.969194
0.954835
0.949497
0.964944
0.991454
0.990451
0.974058
0.992328
0.993635
0.995585
0.999342
0.994534
0.995777
0.997476
0.984385
0.972406
0.973373
1
0.984757
0.990676
1
0.987113
0.986584
0.997032
0.988078
1
0.995578
0.98951
0.98494
0.99282
0.975483
0.962594
0.993352
0.990677
0.998341
0.968131
0.993349
0.993743
0.997787
0.966285
0.99911
0.991167
0.99348
0.973025
0.995287
0.985959
0.968521
0.972995
0.991718
1
0.990038
0.985369
1
0.992064
0.983176
0.964797
0.973096
0.985383
0.975905
0.994275
0.995083
1
0.995606
0.993533
0.944509
0.98618
0.964319
0.936246
0.984239
0.986746
0.98619
0.998055
0.966312
0.9783
0.989627
0.993536
0.974126
0.983954
0.990484
0.971577
0.972764
1
0.994081
0.980933
0.970437
0.954555
0.948442
0.943888
0.992299
0.995719
0.976112
0.997553
1
0.992061
0.996159
1
0.995352
1
0.982494
0.965852
0.959297
1
0.982591
0.990918
1
0.989087
0.988219
0.996245
0.992142
1
0.99794
0.990787
0.996305
0.9855
0.970681
0.960988
0.990685
0.993685
0.996259
0.967519
0.992152
0.994547
0.992645
0.972578
0.993213
0.987234
0.992939
0.971226
0.997924
0.994402
0.976705
0.976143
0.992454
1
0.99352
0.992374
1
0.988853
0.980181
0.971508
0.977089
0.984112
0.978546
0.994063
0.990281
1
0.997667
0.995005
0.914401
0.988851
0.946055
0.928771
0.985285
0.98326
0.986188
0.998714
0.973454
0.987923
0.994617
0.998087
0.983182
0.987588
0.992558
0.979024
0.9683
0.997429
0.989992
0.989539
0.96518
0.97122
0.953893
0.936339
0.997916
0.99989
0.973557
0.990455
1
0.994695
0.996927
0.997403
0.994925
1
0.984665
0.969197
0.974979
1
0.983325
0.986225
1
0.991409
0.983041
0.994973
0.988968
1
0.99164
0.989045
0.994353
0.98299
0.97764
0.994985
0.992124
0.998481
0.994925
0.981631
0.994248
0.99571
0.988577
0.977127
0.998122
0.986567
0.994772
0.973646
0.994957
0.994402
0.967468
0.975936
0.990712
1
0.974624
0.98897
1
0.989793
0.981209
0.977228
0.975887
0.983597
0.974255
0.990216
0.990321
1
0.989274
0.983966
0.917807
0.987535
0.92885
0.933718
0.976185
0.983471
0.986605
0.994593
0.968621
0.98738
0.990678
0.996537
0.986612
0.983016
0.988898
0.981669
0.96717
1
0.983463
0.987593
0.978351
0.97045
0.948512
0.935842
0.990729
1
0.967866
0.992479
1
0.996592
1
0.998007
0.997017
1
0.981864
0.990313
0.978394
0.996811
0.993692
0.990128
1
0.986071
0.993975
0.99473
0.98742
1
0.999122
0.994039
0.989333
0.994353
0.980289
0.975899
0.993711
0.996664
0.997723
0.976423
0.987777