/*--------------------------------*- C++ -*----------------------------------*\
| =========                 |                                                 |
| \\      /  F ield         | OpenFOAM: The Open Source CFD Toolbox           |
|  \\    /   O peration     | Version:  5.x                                   |
|   \\  /    A nd           | Web:      www.OpenFOAM.org                      |
|    \\/     M anipulation  |                                                 |
\*---------------------------------------------------------------------------*/
FoamFile
{
    version     2.0;
    format      ascii;
    class       surfaceScalarField;
    location    "1.05";
    object      phi;
}
// * * * * * * * * * * * * * * * * * * * * * * * * * * * * * * * * * * * * * //

dimensions      [0 3 -1 0 0 0 0];

internalField   nonuniform List<scalar> 
29271
(
-2.79774e-06
-6.5841e-08
5.38211e-07
2.37178e-06
-4.23611e-06
-2.70356e-08
3.591e-07
3.91153e-06
-9.62028e-06
-6.97479e-07
-2.26843e-07
3.57166e-07
1.0604e-06
9.12704e-06
-9.69585e-06
-1.06746e-06
-2.89543e-07
1.02986e-07
1.28238e-06
9.66749e-06
-9.74175e-06
-8.49699e-07
3.79357e-07
1.25686e-06
9.13235e-06
-1.77116e-07
-9.96278e-06
-4.59641e-07
-1.6246e-08
4.80738e-07
6.42525e-07
9.3154e-06
-9.53151e-06
-9.92799e-07
-6.88507e-07
4.51216e-07
5.72373e-07
1.01892e-05
-1.1115e-05
-9.84386e-07
-2.97816e-07
4.78583e-07
1.01256e-06
1.0906e-05
-1.22154e-05
-1.09753e-06
-5.33748e-07
3.69451e-07
7.17481e-07
1.27597e-05
-8.84439e-06
-6.60194e-07
5.01853e-07
9.11405e-06
-1.16469e-07
-2.57226e-06
-1.20026e-07
-3.43122e-07
2.99401e-06
-9.92976e-06
2.4612e-07
-3.42969e-07
3.08461e-07
-9.87447e-08
9.81689e-06
-1.1279e-05
-3.32494e-07
-1.10348e-07
4.97871e-07
2.65812e-07
1.09581e-05
-1.09887e-05
-3.4547e-07
-1.92801e-07
8.29758e-08
1.94462e-07
1.12495e-05
-1.13189e-05
-2.25668e-07
-1.97324e-07
3.70415e-07
7.76078e-08
1.12939e-05
-1.04611e-05
-2.68336e-07
9.00514e-07
1.447e-07
1.02867e-05
-6.02395e-07
-1.03663e-05
-1.46602e-07
5.51582e-07
2.6661e-08
9.80516e-06
1.29539e-07
-1.03263e-05
-4.57494e-07
-1.0716e-07
1.10302e-07
-3.01782e-07
1.10824e-05
-1.19355e-05
-9.22628e-08
9.6442e-08
4.47532e-08
1.35263e-07
1.17513e-05
-9.61822e-06
1.41401e-07
-9.82235e-08
9.8115e-06
-1.33422e-07
-1.0303e-07
-4.03296e-06
2.35905e-07
-4.31201e-07
4.20342e-06
-8.467e-06
-3.26513e-07
-3.09249e-08
8.29622e-06
5.2294e-07
-1.0476e-05
-1.88898e-08
1.07961e-07
3.35884e-08
1.03128e-05
4.05199e-08
-3.75793e-06
1.39014e-07
-5.28657e-08
3.6581e-06
-2.19232e-06
6.62387e-08
-1.09831e-07
2.24737e-06
-3.95781e-06
-1.68528e-07
1.47345e-07
3.97305e-06
-1.59604e-07
9.75561e-08
-8.94148e-06
-1.11213e-07
6.86793e-07
8.42795e-06
-1.73271e-07
-9.51254e-06
3.00736e-07
-3.02625e-07
6.77466e-07
9.01023e-06
-9.06284e-06
-3.49705e-09
1.13759e-07
3.99561e-07
8.41429e-06
1.38731e-07
-3.06085e-07
3.30907e-07
-8.77833e-06
2.99048e-07
3.96473e-07
8.05799e-06
-9.17023e-07
9.56857e-07
5.41931e-05
-1.09674e-05
-1.15579e-05
-1.16234e-05
-1.21963e-05
-1.56636e-06
-1.66018e-06
-7.61748e-07
-8.31001e-07
-1.11457e-06
-1.29623e-06
-3.05228e-07
-3.52662e-07
-1.40374e-06
1.99294e-06
5.07795e-05
-1.09421e-05
-1.17133e-05
-1.25696e-05
-1.25802e-05
-1.47145e-06
-1.60017e-06
-6.53576e-07
-7.55387e-07
-1.16186e-06
4.84519e-07
5.17999e-05
-1.63823e-06
-1.18358e-06
-8.82195e-07
-6.46168e-07
-1.16744e-06
-8.4815e-07
-8.55822e-07
-1.23815e-05
-1.06416e-05
-1.17416e-05
-1.05401e-05
-9.6349e-06
-4.92279e-07
-2.8907e-07
9.2932e-06
-3.91542e-06
-3.47267e-08
-2.12103e-06
5.96243e-06
1.12658e-06
-9.49557e-06
-3.53457e-08
2.17692e-07
-2.66456e-07
8.4531e-06
2.13619e-07
-9.18317e-07
5.30266e-05
-1.13483e-05
-1.22204e-05
-1.13652e-05
-1.27813e-05
-1.30506e-06
-1.35312e-06
-4.98441e-07
-4.93256e-07
-2.50136e-06
-1.3045e-06
5.05212e-05
-1.17373e-05
-1.10026e-05
-1.15e-05
-1.02688e-05
-1.33428e-06
-1.4225e-06
4.68941e-05
-1.64268e-06
-9.71766e-07
-1.12585e-06
-1.0209e-06
-4.38162e-07
-4.77753e-07
-1.09588e-05
-9.6631e-06
-1.0027e-05
-9.82815e-06
-9.27176e-06
-4.85531e-09
8.57692e-08
2.43989e-07
7.61257e-06
-9.3973e-06
1.6943e-07
3.12499e-07
-4.53978e-08
8.71855e-06
2.42219e-07
-7.4648e-07
-1.27004e-06
5.27605e-05
-1.4301e-06
-9.87499e-07
-4.38526e-07
-3.07653e-07
-1.41194e-06
-5.34285e-07
-6.42414e-07
-1.19086e-05
-1.25255e-05
-1.077e-05
-1.07058e-05
-1.79305e-06
-1.3226e-06
4.91513e-05
-1.31704e-06
-7.99205e-07
-7.3268e-07
-1.24262e-06
-6.14355e-07
-6.02776e-07
-1.12125e-05
-1.09127e-05
-1.05981e-05
-1.00546e-05
-9.71237e-06
-5.81621e-07
-4.21898e-07
7.50034e-06
-4.31276e-06
2.32995e-07
1.4295e-07
3.95778e-06
-8.2092e-06
-5.25085e-08
-4.06478e-07
7.42558e-06
-1.01363e-05
1.87098e-07
6.19696e-09
-3.17132e-07
8.93755e-06
-3.73212e-06
1.2167e-07
2.89483e-07
3.34593e-06
-2.29264e-06
9.58145e-08
-2.8765e-08
2.22697e-06
-4.04698e-06
-9.82634e-08
3.96731e-07
3.74592e-06
-2.67426e-07
1.17503e-08
-8.27043e-06
-1.15001e-07
3.61804e-07
8.2793e-06
-2.20143e-07
-8.99553e-06
2.59679e-07
-2.5048e-07
3.68946e-07
8.83753e-06
-7.91495e-06
1.21481e-08
-6.42253e-08
4.1907e-08
7.79934e-06
1.25772e-07
-4.59378e-07
-1.27394e-07
-8.02706e-06
1.97805e-07
3.20515e-07
8.09551e-06
1.17782e-07
2.2827e-06
7.23403e-05
-4.88213e-07
-7.08149e-07
-4.32168e-06
-4.34328e-06
-2.65339e-07
-5.23687e-07
-5.13276e-06
-4.76457e-06
-2.04501e-06
2.41212e-06
5.57088e-05
-4.85461e-07
-2.02061e-07
-2.42664e-06
-2.06446e-06
1.79391e-07
7.68273e-08
5.39403e-05
9.58666e-08
2.32022e-07
-2.27147e-06
-2.18524e-06
1.14208e-07
-8.86275e-07
4.59234e-07
-8.82038e-06
4.363e-08
-2.58344e-08
8.99045e-06
-9.18717e-06
-6.2104e-07
-2.35856e-06
1.21699e-05
-6.38976e-07
-8.04548e-06
8.30787e-11
6.1574e-07
-7.40566e-08
8.14269e-06
1.24454e-06
-3.8307e-06
7.09375e-05
-9.82384e-07
-7.74119e-07
-5.67356e-06
-5.61193e-06
-4.30753e-06
-3.27819e-06
6.17636e-05
3.82327e-08
-6.57089e-08
4.89299e-05
1.216e-07
1.74745e-07
-1.34441e-06
2.10542e-07
-2.72062e-06
-2.68091e-06
-7.3193e-06
1.84559e-08
-3.98782e-07
2.12048e-09
7.73574e-06
-8.63036e-06
-4.34953e-08
1.1178e-07
-3.43837e-07
8.62357e-06
2.82344e-07
-1.83298e-07
-5.86339e-07
7.50776e-05
-4.95334e-07
-3.32197e-07
-5.86613e-06
-5.5868e-06
-5.3429e-07
-6.80524e-06
-5.75822e-06
-3.82153e-07
-2.09642e-07
6.23881e-05
-1.61868e-07
-3.01105e-06
-3.21341e-06
-1.03962e-07
-4.69566e-06
-4.92058e-06
-6.76468e-06
-2.12002e-07
-7.35893e-08
6.60241e-06
-3.79747e-06
-1.98634e-08
1.12271e-07
3.7191e-06
-7.05038e-06
-2.72344e-08
-4.20319e-07
6.91506e-06
-8.37423e-06
2.60929e-07
-2.29789e-07
1.69486e-07
7.96396e-06
-3.32851e-06
-3.93132e-08
1.06255e-07
3.26533e-06
-1.7055e-06
1.61537e-07
1.12201e-07
1.43176e-06
-1.91651e-06
4.29359e-07
5.69675e-07
9.17473e-07
-1.52169e-06
-1.66683e-06
-7.27474e-06
1.63724e-06
3.03489e-06
5.79113e-06
-2.06201e-06
-9.6848e-06
1.42153e-07
-1.99147e-06
2.4604e-06
1.11357e-05
-6.26293e-06
1.01304e-06
-1.03711e-06
7.13052e-07
3.61859e-06
1.95535e-06
-1.51308e-06
-2.0494e-07
-5.41318e-06
2.58835e-06
1.63256e-06
2.91028e-06
1.2281e-06
6.89976e-07
7.91711e-05
-2.14713e-06
-2.65464e-06
-3.83132e-07
-1.08823e-06
-2.47165e-06
-1.97974e-06
4.37514e-07
1.5381e-06
-1.45735e-09
-7.3474e-08
6.21508e-05
-2.02428e-06
-1.74551e-06
-1.20267e-06
-1.66498e-07
-1.63073e-06
3.52695e-07
5.82138e-05
-1.6479e-06
-1.45989e-06
1.31843e-06
1.14587e-06
-1.26196e-06
-3.69653e-07
-7.21794e-07
-9.79798e-06
-6.65038e-07
4.94912e-07
8.33738e-06
-1.25892e-05
-3.44162e-07
1.39032e-07
1.27944e-05
-5.5361e-07
-7.33837e-06
-8.93267e-07
1.88095e-06
-3.89228e-07
7.29353e-06
-1.787e-07
4.44874e-07
7.41516e-05
-2.41656e-06
-2.58991e-06
1.40682e-06
8.093e-07
2.14322e-06
1.01248e-06
5.83557e-05
-1.14757e-06
-1.40285e-06
5.48416e-05
-1.96923e-06
-2.94613e-07
-3.03211e-07
-1.49418e-06
1.79917e-06
1.39675e-06
-6.53723e-06
-9.05132e-08
2.176e-07
-1.38347e-08
5.27641e-06
-3.78752e-06
1.80117e-06
1.63689e-06
-1.7006e-06
2.86856e-07
1.76321e-06
-1.76671e-07
4.32874e-07
7.29164e-05
-2.54848e-06
7.17836e-08
1.11381e-06
2.00793e-06
-1.78225e-06
2.3113e-06
1.17577e-06
-2.17571e-06
-1.66372e-06
6.50293e-05
-1.72403e-06
1.19073e-06
1.40362e-06
-1.84455e-06
1.07003e-06
1.93829e-06
-4.09681e-06
-1.27855e-06
-9.04626e-07
2.70143e-06
-3.64099e-06
9.69012e-07
-3.50311e-07
3.02229e-06
-2.38353e-06
7.27893e-07
-5.94561e-08
2.14797e-06
-3.67409e-06
7.77242e-07
-1.56088e-06
-7.56228e-08
2.86963e-06
-1.1981e-06
-8.41496e-07
1.79232e-06
2.47268e-07
-1.67843e-06
1.65454e-07
-2.70209e-07
1.78318e-06
1.82504e-07
-4.84742e-07
1.11866e-06
-8.16425e-07
-9.35271e-07
-4.30945e-07
-5.1769e-06
1.02238e-06
6.45605e-07
4.87513e-06
-1.43184e-06
-1.22015e-05
4.24992e-07
-2.23509e-06
1.82501e-06
1.36184e-05
-2.48053e-06
1.11579e-06
-1.42597e-06
-5.08549e-07
9.32527e-07
2.36672e-06
-1.01892e-06
2.479e-07
-2.44406e-06
-4.67688e-07
1.12914e-06
2.55363e-06
-8.51643e-07
-7.81169e-07
7.37423e-05
7.2007e-07
-5.81867e-07
1.35608e-06
7.97948e-07
8.73239e-07
1.44689e-06
9.82408e-07
1.46688e-06
-3.28003e-07
7.64118e-07
5.99433e-05
-6.26114e-07
-8.13035e-09
7.42035e-07
8.11984e-07
5.59254e-07
2.39119e-07
5.00285e-05
7.9431e-07
5.32524e-07
1.27418e-06
1.31937e-06
1.24682e-07
1.39173e-06
1.62214e-06
-6.55656e-06
-9.71761e-07
1.38363e-06
6.70394e-06
-1.35422e-05
-3.35165e-07
-2.21568e-07
1.40989e-05
4.25316e-07
-8.65683e-06
-9.61365e-07
-6.89024e-07
1.70744e-07
9.71116e-06
-2.62299e-07
5.90382e-07
6.87114e-05
1.11003e-06
7.47371e-07
1.31345e-06
1.16014e-06
1.40799e-06
6.19219e-07
5.68304e-05
2.93251e-07
7.0775e-07
5.04207e-05
3.58607e-07
1.84502e-06
1.06485e-06
5.36276e-07
6.71118e-07
5.91179e-07
-6.34479e-06
-7.35416e-07
-2.92479e-08
-5.14156e-08
7.45412e-06
1.34285e-07
1.47239e-06
-1.43596e-06
-1.86834e-06
5.23125e-07
1.17451e-06
-1.09282e-06
1.28519e-06
6.4505e-05
1.55229e-06
1.52986e-06
1.67143e-06
1.43046e-06
1.13061e-06
8.86329e-07
6.08488e-07
2.9115e-07
1.08218e-06
5.98892e-05
8.04591e-08
4.28674e-07
-4.19943e-09
1.38881e-06
8.34639e-07
5.6478e-07
-3.29326e-06
6.50928e-07
5.53158e-07
3.08808e-06
-2.49916e-06
3.58057e-07
-6.33751e-07
2.77485e-06
-2.55571e-06
8.56923e-07
5.05061e-07
2.47892e-06
-4.79634e-06
-2.03784e-07
-1.05315e-06
9.15155e-07
6.22029e-06
-1.34782e-06
-5.8896e-07
3.04406e-07
1.63238e-06
-1.83676e-06
1.5722e-07
-2.26754e-07
1.90629e-06
9.25134e-07
-1.0696e-06
1.27528e-06
-1.13081e-06
6.06826e-08
8.25813e-07
-4.81522e-06
-3.97023e-07
-4.78314e-07
4.80406e-06
-2.92855e-07
-1.46789e-05
3.82528e-07
-9.21094e-07
1.80871e-07
1.53295e-05
-3.84775e-07
2.79116e-07
-8.49284e-07
2.24141e-08
-2.92958e-07
1.22549e-06
-8.21265e-07
9.55124e-07
-2.51432e-06
-9.83613e-07
8.34495e-07
2.52957e-06
-1.03163e-06
-4.2385e-07
7.112e-05
8.71998e-07
2.67956e-07
3.57889e-07
8.46101e-07
5.64813e-07
1.43498e-07
8.2447e-07
2.00997e-07
-4.06029e-06
1.29655e-06
6.08914e-05
3.55499e-08
-1.66911e-08
5.60717e-07
2.04433e-07
7.66522e-07
7.22684e-07
4.22274e-05
4.57514e-07
4.16167e-07
7.17562e-07
4.49719e-07
3.27816e-07
-1.01326e-07
-1.5884e-08
-6.057e-06
-6.06932e-07
2.21576e-06
1.04993e-06
4.16476e-06
-5.4487e-08
-3.99077e-07
8.86917e-07
-4.33352e-07
-1.44575e-05
-4.22672e-07
1.92913e-08
1.48609e-05
5.61038e-07
-1.05673e-05
-8.44627e-07
-7.86574e-07
4.30362e-07
1.12071e-05
-2.05451e-07
-3.51495e-07
6.55017e-05
6.3766e-07
6.79707e-07
9.82729e-07
1.04267e-06
5.96873e-07
1.62191e-07
5.71624e-05
1.21022e-06
2.59387e-08
4.81814e-05
7.63197e-07
5.92604e-07
1.59704e-07
4.17997e-07
8.56009e-08
3.03536e-07
-8.3503e-06
-8.87578e-07
2.96336e-06
1.24737e-06
6.23738e-06
-1.14629e-06
-2.64839e-06
-4.01627e-07
1.80694e-07
4.01561e-06
-1.68693e-06
6.74674e-07
-1.30726e-06
-7.5484e-07
2.77473e-06
2.99629e-07
-1.79723e-06
8.14217e-07
5.8859e-05
1.54474e-06
1.08529e-06
1.80754e-06
8.41639e-07
6.39648e-08
8.96148e-07
3.81587e-08
1.40758e-07
3.16317e-07
5.77719e-05
-1.99368e-07
2.74723e-07
-3.6534e-07
7.65124e-08
1.45265e-07
9.33939e-08
-3.47412e-06
4.2163e-07
-3.11187e-07
3.53037e-06
-3.55682e-06
4.77264e-07
-6.27117e-07
3.70667e-06
-2.52634e-06
7.93383e-07
-2.00825e-07
2.748e-06
-6.52382e-06
8.97476e-08
-1.36636e-08
5.54408e-07
6.20965e-06
-1.78269e-06
7.36532e-08
-2.0361e-08
1.7294e-06
-1.86482e-06
1.14104e-07
1.35649e-08
1.73715e-06
1.25397e-06
-1.01519e-06
1.07606e-06
-1.31484e-06
2.69551e-07
1.26237e-06
-4.38462e-06
-8.14818e-07
-2.66771e-07
3.93428e-06
-3.41044e-08
-1.57632e-05
-3.89428e-08
-7.16692e-08
7.79384e-08
1.58299e-05
-2.36662e-07
1.03033e-07
-1.07648e-06
-3.71198e-08
6.67637e-07
5.79592e-07
-7.80822e-07
1.18966e-06
-2.91002e-06
-1.47703e-06
1.42051e-07
3.83615e-06
-7.77488e-07
-7.27665e-07
7.01142e-05
-6.7165e-08
-1.85252e-07
3.62482e-07
-2.97163e-09
7.64435e-07
1.21249e-07
8.53546e-07
6.64624e-07
-6.33112e-06
-2.46206e-07
6.80294e-05
-4.11996e-07
-3.72697e-07
-3.98549e-07
-1.54918e-07
-1.22662e-06
3.80229e-07
3.72973e-05
1.63476e-07
8.31542e-08
3.63631e-07
2.37669e-07
-2.20317e-07
-1.09476e-06
-8.74841e-08
-2.55193e-06
2.35096e-07
-1.47367e-06
7.20045e-07
1.84385e-06
5.70674e-07
-7.0038e-07
1.67637e-06
-1.34658e-06
2.86944e-07
-4.87033e-07
-1.52057e-05
-6.81101e-08
-3.16761e-08
1.53055e-05
5.84416e-07
-1.16368e-05
-1.89705e-07
-7.2219e-07
1.63667e-07
1.18006e-05
2.67314e-07
-4.21712e-06
6.58756e-05
5.19665e-07
5.01873e-07
8.89756e-07
9.37001e-07
-6.21534e-07
-8.59994e-07
5.8665e-05
1.69998e-07
-5.00612e-07
4.87229e-05
-3.81009e-07
1.14691e-07
-3.9665e-07
2.81076e-07
-3.30916e-07
2.60621e-07
-6.46236e-06
-6.15443e-07
7.35095e-07
9.09903e-10
6.51179e-06
-4.64197e-06
-3.35169e-07
-1.16368e-06
4.96275e-07
6.51548e-07
4.99299e-06
-3.8655e-06
-1.99538e-07
-1.48158e-06
2.66365e-07
5.19477e-06
8.54836e-08
-2.84235e-06
8.70671e-07
5.0049e-05
1.80934e-06
7.16117e-07
2.02632e-06
6.10762e-07
3.96026e-08
9.85117e-07
3.77319e-07
-2.02659e-07
1.76828e-07
5.41105e-05
-6.61662e-07
-1.82085e-08
-5.77469e-07
3.45992e-07
2.89039e-07
6.07155e-07
-4.04778e-06
-1.83942e-07
-5.27787e-07
4.05624e-06
-3.2131e-06
-8.36724e-07
-6.47849e-08
5.12461e-07
3.60215e-06
-1.09152e-06
-1.61714e-07
7.0508e-08
1.18272e-06
-3.11308e-06
3.72842e-07
3.43541e-07
3.26737e-06
-5.92737e-06
-1.69973e-07
-6.51077e-08
4.26291e-07
5.91299e-06
-1.65045e-06
-1.24995e-07
1.41923e-07
1.63352e-06
-1.6092e-06
-1.61118e-07
1.78239e-07
1.59208e-06
1.39346e-06
-6.00302e-07
5.89345e-07
-1.3825e-06
2.41055e-07
8.64519e-07
-3.56897e-06
-3.56682e-07
-3.21003e-07
3.14109e-06
-3.00249e-07
-1.5395e-05
-3.26883e-07
6.5988e-07
9.66115e-07
1.43961e-05
-1.5666e-06
-1.27792e-07
-2.37428e-07
3.39442e-07
1.90252e-06
-3.10141e-07
-4.95263e-07
1.16184e-06
-4.81678e-06
-1.40029e-06
-1.24724e-07
5.67522e-06
-2.30302e-08
-4.21758e-07
7.07828e-05
4.85066e-08
-1.42486e-06
-1.57957e-07
-1.42094e-06
7.18186e-07
5.27058e-07
6.96046e-07
7.90215e-07
-4.79371e-06
-1.31226e-06
7.58481e-05
-1.06114e-06
-4.07413e-07
-3.68207e-07
1.00968e-07
-8.92589e-07
4.1679e-07
3.50398e-05
-3.9875e-07
-3.05786e-07
-3.85649e-07
-4.16057e-07
5.75543e-08
-7.64429e-07
1.52713e-07
-1.62926e-06
1.95861e-07
-1.19935e-06
2.74502e-07
1.46566e-06
6.97221e-07
7.88758e-07
9.70723e-07
-5.27672e-07
-1.00571e-06
-9.23323e-07
-1.50966e-05
3.7171e-08
4.7615e-07
1.45833e-05
3.79447e-07
-1.19738e-05
6.15239e-08
-6.6107e-07
-5.39024e-08
1.22478e-05
1.01347e-06
-6.05541e-06
6.79126e-05
4.55454e-07
3.8317e-07
8.66986e-07
8.77527e-07
-6.27226e-07
-2.55016e-06
6.15436e-05
2.45529e-07
-8.68518e-07
4.9631e-05
-5.37577e-08
4.92376e-07
-1.58478e-07
-4.78796e-08
-6.86439e-07
-4.13865e-08
-6.99646e-06
1.77343e-07
4.24347e-07
-1.04893e-06
7.68923e-06
-4.87321e-06
7.23229e-07
-7.84744e-07
4.21824e-07
1.40141e-08
4.49888e-06
-6.50354e-06
-5.54956e-07
-1.44283e-06
7.93501e-07
7.73881e-06
-3.09802e-08
-1.48143e-06
8.05251e-07
4.13914e-05
1.34527e-06
7.74002e-09
1.06791e-06
-4.88611e-08
2.2169e-07
6.95494e-07
-1.08602e-08
-4.07845e-07
-4.89798e-08
5.09871e-05
-5.47096e-07
-1.4433e-07
-3.42023e-07
4.09657e-07
-2.52307e-07
4.24721e-07
-4.51565e-06
-4.20334e-07
-6.88557e-07
4.34817e-06
-3.12684e-06
3.36235e-07
1.58396e-06
-1.18875e-06
2.39539e-06
-1.21168e-06
-2.99613e-07
4.77788e-07
2.05238e-07
8.2827e-07
-3.36679e-06
1.7e-07
7.12473e-07
3.28957e-06
-6.18139e-06
-3.50051e-07
1.00674e-07
-3.91152e-08
6.4209e-06
-1.75712e-06
8.70481e-08
-2.26954e-07
1.89702e-06
-1.69207e-06
-1.14398e-07
-1.57278e-07
1.96375e-06
1.32424e-06
-1.24657e-07
7.83337e-08
-1.27791e-06
2.16105e-07
3.43149e-07
-2.64234e-06
-9.70145e-08
-1.11293e-08
2.19123e-06
4.31498e-07
-1.31263e-05
-4.25239e-07
9.80607e-07
4.53058e-07
1.16864e-05
-2.04754e-06
-8.9021e-08
3.03672e-07
4.23758e-07
2.18966e-06
-7.80527e-07
-1.95906e-07
1.086e-06
-6.34505e-06
-1.28292e-06
-2.36401e-07
6.97427e-06
4.70808e-07
2.12293e-06
6.86727e-05
-4.33259e-07
-1.91183e-06
-1.86611e-07
-8.08614e-07
6.91751e-07
6.12409e-07
7.35173e-07
8.17296e-07
-3.11962e-06
6.15984e-07
8.04206e-05
-1.10854e-06
-3.29807e-07
-4.62275e-07
3.02592e-07
-8.35985e-07
1.619e-06
3.57626e-05
-8.25785e-07
-5.80827e-07
-7.93928e-07
-5.95707e-07
-1.37534e-08
-1.35904e-06
-4.56326e-07
-2.0394e-06
8.18922e-07
-1.31364e-06
-4.69602e-07
2.16773e-06
1.56056e-06
5.56181e-07
1.50917e-07
-1.51352e-06
-7.54132e-07
-1.39602e-05
-1.45269e-07
6.13649e-07
1.34918e-05
4.44862e-07
-1.25614e-05
4.10517e-07
-9.00437e-07
-2.08053e-07
1.28145e-05
1.81532e-06
-4.7106e-06
7.06873e-05
4.68444e-07
2.22081e-07
8.7131e-07
6.81726e-07
-2.97898e-07
-2.14709e-06
6.64199e-05
4.91777e-07
-8.36866e-07
5.23244e-05
1.32852e-07
1.76801e-08
-4.65315e-07
-2.44382e-09
-6.13533e-07
-9.64295e-08
-8.05111e-06
5.66407e-07
2.62859e-07
-4.27798e-07
8.14141e-06
-3.82526e-06
1.1011e-06
-4.96088e-07
8.93203e-07
2.47797e-08
2.30226e-06
-8.57378e-06
-9.39426e-07
1.41733e-07
9.24064e-07
8.67928e-06
-2.3187e-07
1.12385e-06
3.16413e-07
3.7929e-05
-2.90434e-07
-6.01323e-07
-4.91676e-07
-6.40018e-07
-3.81108e-07
1.30263e-07
-4.14154e-07
-1.91425e-07
-4.88017e-07
5.05796e-05
-1.61357e-07
5.71019e-08
-1.31689e-07
3.29183e-07
-3.86311e-07
3.56741e-07
-4.6567e-06
-2.40413e-07
-8.9256e-07
4.76139e-06
-1.63472e-06
-8.95583e-07
8.98741e-07
1.63156e-06
-3.291e-06
2.79625e-07
3.02638e-09
3.32476e-06
-6.71338e-06
-1.70614e-07
3.77483e-07
-8.69492e-07
6.88798e-06
-1.96098e-06
5.96813e-07
-5.24625e-07
1.88879e-06
-2.28566e-06
-2.81161e-07
5.65877e-08
2.51023e-06
1.21941e-06
1.29391e-07
-2.04621e-07
-1.14418e-06
6.45774e-07
-1.05912e-07
-1.93377e-06
2.81842e-07
-6.89732e-07
1.80179e-06
8.02518e-07
-1.04641e-05
-2.59515e-07
5.369e-07
-1.93872e-07
9.57804e-06
-2.37786e-06
-2.47784e-07
3.70398e-07
4.28529e-07
2.57016e-06
-7.43441e-07
3.90129e-07
8.23819e-07
-7.70462e-06
-9.91647e-07
-9.37656e-07
8.41998e-06
1.94241e-07
4.15987e-06
6.38459e-05
-2.60408e-07
-1.34855e-06
-5.1322e-08
-1.01023e-06
7.9753e-07
7.82796e-07
4.80321e-07
1.08258e-06
-1.36047e-06
5.25007e-06
7.97264e-05
-1.67979e-06
-6.0529e-07
-5.69602e-07
-1.46524e-07
-1.39167e-06
2.84974e-06
3.96717e-05
-1.20203e-06
-7.95598e-07
-1.17529e-06
-8.87074e-07
-1.11085e-06
-9.62603e-07
-5.9418e-07
-2.71425e-06
6.00965e-07
-1.59137e-06
2.31298e-06
-1.32345e-05
-2.06318e-07
3.15106e-07
1.31257e-05
6.46603e-07
-1.2809e-05
1.05612e-06
-1.16332e-06
-4.45286e-07
1.27149e-05
2.40381e-06
-3.24247e-06
7.3439e-05
4.70502e-07
3.10502e-07
7.95874e-07
6.69872e-07
8.9339e-07
-5.31853e-07
7.37123e-05
-3.14382e-07
-5.48842e-07
5.71048e-05
-3.57805e-07
2.12746e-07
9.33879e-09
1.04768e-07
-2.41696e-07
9.86015e-08
-1.03856e-05
6.52439e-07
-1.02918e-06
2.66231e-07
1.01817e-05
-8.37488e-06
-1.00324e-06
1.09691e-06
9.83722e-07
7.63418e-06
-3.36685e-07
3.16487e-06
-1.35414e-07
3.68509e-05
-1.18423e-06
-1.01927e-06
-1.07059e-06
-1.05686e-06
-3.84402e-07
-1.7466e-07
-3.03861e-07
-2.31509e-08
-1.87569e-07
5.24298e-05
-2.20772e-08
3.07606e-07
-4.13394e-08
3.88377e-07
-1.61816e-08
3.77192e-07
-5.39243e-06
-3.68532e-07
-7.75318e-07
5.96428e-06
-1.62429e-06
-5.46348e-07
9.86617e-07
1.18402e-06
-3.31928e-06
2.75817e-07
-2.91838e-07
3.19989e-06
-7.06165e-06
2.85136e-08
1.09849e-07
-4.06676e-07
7.1424e-06
-1.7163e-06
7.02989e-07
-4.5662e-07
1.46993e-06
-2.57682e-06
-2.04962e-07
3.07516e-07
2.47426e-06
1.04269e-06
3.05162e-07
-4.14359e-07
-9.33493e-07
8.09621e-07
-4.63389e-07
-1.80893e-06
6.6304e-07
-9.871e-07
1.78676e-06
2.56449e-07
-9.48294e-06
-2.85995e-07
2.36488e-07
-4.29563e-07
9.70556e-06
-2.59378e-06
-6.11624e-07
4.28333e-07
7.09732e-07
2.49728e-06
-4.29934e-07
7.35555e-07
2.6418e-07
-8.96942e-06
1.92236e-09
-1.2512e-06
9.21896e-06
9.96551e-07
3.59838e-06
5.93973e-05
6.69137e-08
-1.14756e-06
1.2982e-07
-8.2607e-07
8.18936e-09
8.83293e-07
-3.97382e-07
1.13644e-06
9.79951e-07
7.61287e-06
7.59216e-05
-1.23274e-06
-9.56497e-07
-8.70264e-07
-7.31881e-07
-6.80375e-07
4.76318e-06
4.27725e-05
-1.54918e-06
-1.00889e-06
-1.45611e-06
-9.16339e-07
-4.13205e-07
-6.0273e-07
-2.57192e-07
-2.09256e-06
7.79775e-07
-1.36123e-06
1.99364e-06
-1.30549e-05
-6.27773e-08
7.28748e-08
1.30448e-05
2.91846e-07
-1.26903e-05
1.31711e-06
-7.99874e-07
-8.58195e-07
1.27394e-05
2.47417e-06
-2.34597e-06
7.49823e-05
4.95842e-07
1.95049e-07
8.17623e-07
4.18377e-07
3.19539e-06
9.41584e-07
7.96623e-05
7.15846e-07
-1.91831e-07
6.19022e-05
4.56233e-07
9.08934e-07
5.44675e-07
3.18307e-07
1.70572e-07
2.38423e-07
-9.64088e-06
6.6803e-07
3.39921e-07
-1.578e-07
9.50658e-06
-6.67445e-06
-8.07374e-07
1.13761e-06
1.09419e-06
5.59382e-06
-3.43798e-07
4.71135e-06
-3.00795e-07
3.61893e-05
-1.38981e-06
-1.22268e-06
-1.1931e-06
-1.19763e-06
-4.35729e-07
-2.66735e-07
-3.8924e-07
3.56262e-07
1.16233e-07
5.5518e-05
2.22528e-07
7.52994e-07
1.71186e-07
4.05848e-07
1.84418e-07
3.55222e-07
-6.99352e-06
-8.62637e-08
-5.21246e-07
7.76546e-06
-9.94187e-07
-3.48405e-07
3.98586e-07
9.44006e-07
-3.08029e-06
1.84262e-07
-3.52104e-07
2.94733e-06
-7.19516e-06
2.14342e-07
-2.19734e-07
6.93556e-08
7.24743e-06
-1.20348e-06
4.06933e-07
-2.28709e-07
1.02525e-06
-2.22047e-06
-1.03954e-07
4.06297e-07
1.91812e-06
8.51507e-07
4.62171e-07
-5.22773e-07
-7.90905e-07
8.11976e-07
-6.39013e-07
-1.81205e-06
6.52426e-07
-8.6228e-07
1.84894e-06
-4.88987e-07
-9.98746e-06
-9.37953e-08
4.58142e-08
5.48711e-07
9.97571e-06
-2.33784e-06
-5.79473e-07
1.09164e-07
8.01773e-07
2.21777e-06
-2.11388e-07
5.10311e-07
-4.05506e-07
-9.12686e-06
1.08384e-06
-7.13768e-07
8.65198e-06
3.1644e-06
2.18111e-06
5.68879e-05
2.69945e-07
-7.63624e-07
1.67931e-07
-5.79728e-07
-1.00913e-06
3.57711e-07
-1.13865e-06
-1.40569e-07
2.6057e-06
7.27137e-06
7.40443e-05
-1.40974e-06
-1.17111e-06
-1.24616e-06
-1.00836e-06
-5.26164e-07
4.59498e-06
4.64165e-05
-1.46181e-06
-7.04494e-07
-1.23839e-06
-6.26385e-07
-2.75592e-07
-5.19089e-07
-2.81361e-07
-1.88572e-06
1.02033e-06
-1.5069e-06
1.84613e-06
-1.31176e-05
5.44055e-09
-7.76429e-08
1.31898e-05
1.74732e-07
-1.27631e-05
1.35466e-06
-4.83728e-07
-9.39345e-07
1.26567e-05
3.06871e-06
-1.39596e-06
7.44998e-05
3.633e-07
2.41703e-08
2.94867e-07
3.08581e-07
4.92361e-06
1.69354e-06
8.33852e-05
9.84409e-07
-4.47889e-08
6.71176e-05
6.95675e-07
1.02789e-06
6.66659e-07
3.08558e-07
3.9076e-07
2.74045e-07
-9.54566e-06
7.64494e-07
7.46578e-07
-5.78645e-07
9.59765e-06
-4.66634e-06
-6.84117e-07
9.43268e-07
8.19502e-07
3.9656e-06
-3.77913e-07
4.48492e-06
-3.27021e-07
3.64889e-05
-1.33333e-06
-1.09596e-06
-1.13114e-06
-1.03188e-06
-5.06549e-07
-2.92606e-07
-4.61919e-07
3.65392e-07
2.18137e-07
5.92154e-05
1.47437e-07
7.11915e-07
7.50859e-08
3.84102e-07
2.36066e-07
3.42961e-07
-8.89614e-06
2.05942e-07
-1.81548e-07
9.19235e-06
-1.02545e-06
-3.38083e-08
-1.09417e-07
1.16868e-06
-2.86228e-06
1.36157e-07
-3.59474e-07
2.75858e-06
-7.2836e-06
3.8201e-07
-4.65686e-07
2.9626e-07
7.28915e-06
-9.6565e-07
-1.24281e-08
4.00977e-09
9.74068e-07
-1.72844e-06
-5.60819e-08
1.42839e-07
1.64169e-06
7.59512e-07
6.54215e-07
-6.71173e-07
-7.42555e-07
7.36313e-07
-7.25533e-07
-1.96825e-06
4.31648e-07
-5.65887e-07
2.09171e-06
-8.77547e-07
-9.59169e-06
3.13914e-07
-1.20122e-07
1.4634e-06
8.81205e-06
-2.04616e-06
-4.61572e-08
-3.01404e-07
3.79954e-07
1.96762e-06
4.61446e-08
5.0901e-07
-2.47529e-07
-7.82896e-06
1.03785e-06
-2.13743e-07
6.74338e-06
5.47775e-06
1.97093e-06
5.63644e-05
7.71717e-08
-8.3591e-07
3.92281e-08
-6.42743e-07
-1.37001e-06
-1.4347e-06
-1.23134e-06
-1.52694e-06
3.14942e-06
5.98007e-06
7.53301e-05
-1.62566e-06
-1.16263e-06
-1.38276e-06
-7.66559e-07
-4.50254e-07
2.23928e-06
5.05323e-05
-8.4383e-07
-9.9668e-08
-4.716e-07
-6.16107e-08
-4.1756e-07
-4.55675e-07
-4.05506e-07
-1.82065e-06
1.02352e-06
-1.52965e-06
1.87652e-06
-1.3247e-05
2.95286e-07
-4.0639e-07
1.33581e-05
1.45189e-07
-1.23998e-05
9.32667e-07
1.11347e-07
-6.28403e-07
1.1839e-05
4.20672e-06
-1.02316e-06
7.51355e-05
-7.32296e-07
-2.61763e-07
-7.49018e-07
-1.05267e-07
5.82799e-06
2.17413e-06
8.55699e-05
9.4703e-07
-2.89888e-08
7.12236e-05
6.39345e-07
9.43267e-07
5.96074e-07
2.2117e-07
4.23976e-07
2.19408e-07
-9.66882e-06
8.85037e-07
8.37031e-07
-7.65011e-07
9.65879e-06
-3.3903e-06
-2.3375e-07
5.74442e-07
4.63938e-07
2.94392e-06
-3.58245e-07
1.59565e-06
-3.19831e-07
3.79931e-05
-8.50363e-07
-5.51109e-07
-5.24239e-07
-5.15735e-07
-5.66114e-07
-2.8866e-07
-5.07007e-07
8.93236e-08
2.59008e-07
6.13725e-05
-1.14749e-07
4.57594e-07
-1.38042e-07
4.07306e-07
2.69964e-07
3.82267e-07
-9.96625e-06
2.99988e-07
9.5207e-08
9.63139e-06
-1.33103e-06
1.45473e-07
-2.81956e-07
1.46751e-06
-2.7053e-06
7.35832e-08
-3.29739e-07
2.64163e-06
-7.2927e-06
4.80027e-07
-5.6164e-07
3.38456e-07
7.29486e-06
-1.05343e-06
-2.31139e-07
1.51566e-07
1.13301e-06
-1.56804e-06
-9.20145e-08
1.77071e-07
1.48299e-06
7.40946e-07
8.17731e-07
-8.23064e-07
-7.35614e-07
4.47257e-07
-7.82545e-07
-2.27036e-06
4.51165e-07
-3.09839e-07
2.46432e-06
-1.03454e-06
-7.95409e-06
1.70824e-07
-1.6525e-07
1.73181e-06
7.25125e-06
-1.88263e-06
4.85746e-07
-5.38785e-07
-4.30108e-07
1.93349e-06
4.32291e-07
6.37479e-07
2.58571e-07
-5.5729e-06
1.37305e-07
4.2547e-08
4.497e-06
6.11597e-06
1.99186e-06
5.48793e-05
-6.82171e-08
-8.47434e-07
-5.03262e-08
-4.99108e-07
-1.05487e-06
-1.87283e-06
-8.21667e-07
-1.40825e-06
2.52313e-06
5.00651e-06
7.78984e-05
-1.62891e-06
-8.69632e-07
-1.16378e-06
-3.19645e-07
-3.2881e-07
-8.00649e-07
5.33981e-05
1.90135e-07
5.7367e-07
7.39502e-07
5.59773e-07
-4.9379e-07
-3.47731e-07
-4.34713e-07
-1.93654e-06
7.9097e-07
-1.28173e-06
2.09848e-06
-1.35098e-05
5.16409e-07
-6.74669e-07
1.3668e-05
5.03768e-07
-1.10205e-05
-5.47639e-08
5.98895e-07
-2.33587e-08
9.99593e-06
4.48648e-06
-7.85566e-07
7.64551e-05
-1.24119e-06
-6.48305e-07
-7.96561e-07
-3.42585e-07
5.65181e-06
2.18469e-06
8.72264e-05
7.77487e-07
-3.15095e-08
7.28878e-05
5.26526e-07
7.71394e-07
5.17083e-07
1.35115e-07
3.26609e-07
1.64221e-07
-9.64573e-06
8.94603e-07
7.78373e-07
-7.38759e-07
9.489e-06
-2.57221e-06
3.82251e-08
-1.13512e-07
3.87384e-07
2.542e-06
-2.81886e-07
-2.4763e-06
-1.07349e-07
3.91417e-05
3.65494e-07
2.16954e-07
7.43962e-07
1.67825e-07
-3.9385e-07
-1.10886e-07
-3.4e-07
-1.11359e-07
2.66717e-07
6.01572e-05
-2.68719e-07
1.9293e-07
-2.50457e-07
4.12813e-07
2.7909e-07
4.02684e-07
-9.89787e-06
4.00192e-07
3.01736e-07
9.05307e-06
-1.58966e-06
2.55287e-07
-3.15226e-07
1.6496e-06
-2.63364e-06
-6.31534e-08
-1.82026e-07
2.77147e-06
-7.32997e-06
4.46255e-07
-5.21985e-07
2.95456e-07
7.37696e-06
-1.25154e-06
-3.35729e-07
1.90252e-07
1.39702e-06
-1.40429e-06
-5.78472e-08
9.03915e-08
1.37175e-06
7.34125e-07
8.79912e-07
-9.16023e-07
-6.98014e-07
1.62651e-07
-7.20872e-07
-2.70424e-06
4.10022e-07
-2.01429e-07
3.05387e-06
-5.78287e-07
-6.86882e-06
5.42577e-08
-3.94887e-07
9.53301e-07
6.83444e-06
-1.95864e-06
8.05272e-07
-5.89148e-07
-1.13609e-06
2.10619e-06
7.72412e-07
7.67297e-07
4.51175e-07
-3.55017e-06
-4.09786e-07
-8.17218e-08
2.8232e-06
4.72241e-06
1.56029e-06
5.28498e-05
8.68878e-09
-6.13658e-07
3.14713e-08
-2.97439e-07
-5.32211e-07
-1.27836e-06
-5.62853e-07
-1.00884e-06
1.06218e-06
3.60793e-06
7.92121e-05
-1.02142e-06
-2.75109e-07
-2.73751e-07
3.08942e-07
-1.14144e-07
-3.15098e-06
5.35135e-05
1.20121e-06
1.05522e-06
1.60794e-06
1.01696e-06
-2.94466e-07
-1.47148e-07
-2.27859e-07
-2.21736e-06
4.92823e-07
-8.62734e-07
2.47313e-06
-1.38922e-05
4.52143e-07
-7.47779e-07
1.41879e-05
9.92593e-07
-8.68854e-06
-2.59066e-07
5.25514e-07
1.53864e-07
7.27564e-06
3.69184e-06
-5.42033e-07
7.67824e-05
-9.29355e-07
-5.32299e-07
-5.39797e-07
8.46313e-08
4.62318e-06
1.73192e-06
8.81711e-05
6.46638e-07
-9.12354e-08
7.15685e-05
5.26709e-07
6.88909e-07
5.98043e-07
9.07108e-08
2.13926e-07
1.17807e-07
-9.39939e-06
7.43521e-07
5.77211e-07
-5.70077e-07
9.29537e-06
-2.63893e-06
-5.69811e-08
-4.50567e-07
5.6477e-07
2.96391e-06
-3.82204e-07
-3.57323e-06
1.9688e-07
3.91624e-05
9.62664e-07
4.42349e-07
1.08497e-06
2.68966e-07
-3.90709e-08
1.35728e-07
-4.20384e-08
-1.63849e-07
3.22123e-07
5.6952e-05
-1.99905e-07
1.80571e-07
-1.69392e-07
5.11736e-07
3.63476e-07
5.19092e-07
-8.77197e-06
4.99009e-07
3.16945e-07
7.70094e-06
-1.6696e-06
1.68911e-07
-2.15085e-07
1.71577e-06
-2.93244e-06
-2.59559e-07
4.79709e-08
3.34091e-06
-7.47427e-06
3.12665e-07
-3.8554e-07
2.65158e-07
7.60411e-06
-1.57289e-06
-2.76369e-07
6.28409e-08
1.78641e-06
-1.41337e-06
7.09878e-08
-2.00388e-07
1.54277e-06
5.99964e-07
8.41341e-07
-1.03151e-06
-4.09794e-07
1.69317e-07
-5.03697e-07
-3.47763e-06
1.00066e-07
-4.04715e-07
4.11666e-06
3.48939e-07
-7.02137e-06
3.36746e-07
-6.30369e-07
-4.28132e-07
7.39418e-06
-2.26901e-06
8.74291e-07
-5.75761e-07
-1.43391e-06
2.57372e-06
8.30671e-07
1.15767e-06
-2.76895e-07
-2.33127e-06
-1.46281e-07
-7.05602e-07
2.30238e-06
1.70012e-06
-4.94823e-07
5.23649e-05
4.71898e-07
-2.37631e-08
5.54284e-07
4.9696e-07
-2.17409e-07
-7.91627e-07
-3.94114e-07
-8.16571e-07
-1.28883e-07
6.4884e-07
7.7699e-05
1.87936e-07
4.71064e-07
9.47898e-07
1.08629e-06
1.69016e-07
-4.20081e-06
5.14354e-05
1.5804e-06
1.19956e-06
1.7888e-06
1.17172e-06
2.90623e-08
1.44037e-07
6.74591e-08
-2.66441e-06
3.11421e-07
-5.29501e-07
3.05151e-06
-1.4438e-05
4.55654e-07
-4.68014e-07
1.44503e-05
-8.85895e-07
-6.14666e-06
-2.57531e-08
5.99493e-07
5.92812e-07
5.866e-06
1.76237e-06
-4.56742e-07
7.53844e-05
-6.46325e-07
9.79343e-08
-3.40713e-07
4.86606e-07
3.13664e-06
1.04152e-06
8.64041e-05
6.68577e-07
-1.49574e-07
6.73397e-05
7.1523e-07
7.35412e-07
7.49079e-07
1.19462e-07
1.6619e-07
1.60235e-07
-9.27851e-06
5.52467e-07
4.61272e-07
-3.74566e-07
9.30792e-06
-3.40402e-06
-2.1311e-07
-1.73313e-07
7.85617e-07
3.98119e-06
-9.76357e-07
-2.57724e-06
4.48885e-07
3.87078e-05
6.2586e-07
1.36307e-07
4.74092e-07
-2.99117e-08
2.935e-07
3.6726e-07
2.59126e-07
3.48004e-08
5.07823e-07