/*--------------------------------*- C++ -*----------------------------------*\
| =========                 |                                                 |
| \\      /  F ield         | OpenFOAM: The Open Source CFD Toolbox           |
|  \\    /   O peration     | Version:  5.x                                   |
|   \\  /    A nd           | Web:      www.OpenFOAM.org                      |
|    \\/     M anipulation  |                                                 |
\*---------------------------------------------------------------------------*/
FoamFile
{
    version     2.0;
    format      ascii;
    class       volVectorField;
    location    "1.05";
    object      U;
}
// * * * * * * * * * * * * * * * * * * * * * * * * * * * * * * * * * * * * * //

dimensions      [0 1 -1 0 0 0 0];

internalField   nonuniform List<vector> 
10571
(
(0.0368815 0.182083 0.980451)
(-0.0110656 0.0248743 0.68105)
(-0.0170003 0.0145015 0.942128)
(0.045357 0.0439135 1.03821)
(0.0810663 0.0538451 0.908009)
(-0.073603 0.0212951 0.910388)
(0.0217322 0.0469648 1.05396)
(0.0604793 0.0597242 1.12792)
(0.171823 0.0203851 1.31988)
(0.0253256 0.0223928 1.10768)
(0.120022 0.0367532 0.933953)
(-0.100998 0.0360843 0.989684)
(-0.0262921 0.0584287 1.04245)
(0.029361 0.0438109 1.12345)
(0.13578 0.0413327 1.22833)
(0.17729 0.00865068 1.09135)
(-0.0127617 0.041549 0.859367)
(-0.0347674 0.0788563 1.0781)
(0.0221641 0.114894 1.24595)
(0.119968 0.113029 1.05985)
(0.0220354 -0.0211028 1.01806)
(-0.0226654 -0.0192407 1.06321)
(-0.0042663 0.0975072 1.06413)
(0.017542 -0.0147569 0.906231)
(-0.0208648 -0.00428508 0.827941)
(-0.0191359 0.0179249 0.739387)
(-0.0348192 0.0291097 0.935071)
(-0.0452115 0.0278285 0.932649)
(0.00903664 0.00399541 0.828375)
(-0.0365121 0.0412825 0.875373)
(0.0375018 0.115124 0.676649)
(-0.0393939 0.131838 0.683238)
(-0.0960688 0.097091 0.662776)
(-0.22281 0.0188141 1.02853)
(-0.166135 -0.056098 1.02961)
(-0.103142 -0.0195534 0.931917)
(0.0769681 0.0132353 0.664232)
(-0.0403249 0.02437 0.661036)
(-0.134258 -0.056111 0.644543)
(-0.157596 0.00559167 0.8158)
(-0.0173522 -0.0134222 0.854688)
(0.0531898 -0.0999371 0.656807)
(-0.109746 -0.107971 0.657989)
(-0.204316 -0.156742 0.921452)
(-0.00927187 -0.0118867 0.908269)
(-0.0279853 -0.206871 0.931021)
(-0.0224133 -0.181616 0.913584)
(-0.0257267 -0.00847285 0.809815)
(-0.0169937 0.000363909 0.655782)
(-0.00803316 0.021613 0.748553)
(-0.00578657 0.027926 0.791978)
(-0.0321606 0.0297805 0.763961)
(-0.0104102 -4.50627e-05 0.526042)
(0.00948056 0.0352766 0.865105)
(0.036876 0.0963055 1.34653)
(-0.0327987 0.068437 1.12242)
(-0.0514004 0.0287343 1.15854)
(-0.0164815 -0.00308173 0.663781)
(-0.184978 0.0400195 2.32759)
(0.0437263 -0.00556334 0.839482)
(0.104101 0.00180046 1.35839)
(-0.0626545 0.0126891 1.32166)
(-0.075327 -0.0242839 1.07972)
(-0.026856 -0.00146674 0.469156)
(-0.000744284 -0.0283606 0.821187)
(0.0738426 -0.137322 1.38777)
(-0.0810161 -0.101466 1.24224)
(-0.0353231 -0.0143807 0.537691)
(-0.00908175 0.00552796 0.567807)
(-0.0172468 -0.0480418 0.853428)
(-0.0297983 -0.0124598 0.681354)
(-0.00951802 0.00337132 0.596718)
(-0.0213892 -0.00790164 0.0870554)
(0.0145237 0.0247085 0.138449)
(0.16045 0.175902 0.225123)
(-0.106866 0.191669 0.384809)
(-0.107441 -0.0298576 -0.0498324)
(0.0702994 0.144544 0.206168)
(-0.0239049 -0.0317407 0.698893)
(0.0498686 -0.0199554 0.627934)
(-0.0527295 0.00844345 0.615195)
(-0.122222 0.0709581 0.290096)
(-0.0378422 0.0322723 1.84098)
(-0.0336466 0.0584238 0.339363)
(-0.0512222 0.0538304 0.6252)
(0.0386519 0.0202927 0.432657)
(0.0186882 0.00693166 0.530389)
(-0.105495 -0.00256845 -0.0274954)
(-0.0407968 -0.11476 0.0455432)
(0.0410276 -0.0377587 0.717426)
(-0.0524241 0.00712038 0.637317)
(-0.176642 -0.130499 -0.0816039)
(0.023055 -0.117714 0.124027)
(0.0178507 0.0679447 0.0313285)
(-0.103789 -0.159765 -0.0325601)
(-0.133665 0.0608114 -0.194493)
(-0.0245765 -0.006136 0.238019)
(-0.0206853 0.064626 -0.0451478)
(0.0837451 0.116954 0.198859)
(-0.141281 0.1956 0.578973)
(-0.151625 -0.00113232 -0.0521167)
(-0.00942913 0.0828463 0.11639)
(-0.0447453 -0.0596469 0.766935)
(0.00694202 0.00352893 0.571163)
(-0.033165 -0.0293192 0.55432)
(0.0375061 0.088656 0.293215)
(-0.0131936 0.0235845 1.95571)
(-0.0120825 0.0813029 0.397792)
(-0.0435932 0.0266556 0.737533)
(0.024128 0.0154116 0.623571)
(0.0115177 0.0353585 0.562629)
(0.0049351 0.04073 0.216498)
(-0.0616614 -0.108511 0.00169643)
(-0.0198984 -0.000830485 0.707707)
(-0.0295263 0.00973289 0.64815)
(0.0559788 0.0730866 0.0702171)
(0.0265241 -0.0333905 0.185964)
(-0.0362376 0.13097 0.109956)
(-0.0281038 0.101365 0.20231)
(-0.00315612 0.0506691 0.0732707)
(-0.0163459 -0.002873 0.275032)
(-0.0487041 0.0621551 -0.0811979)
(-0.0284911 0.000183697 0.21341)
(-0.0300812 0.0699923 0.666997)
(-0.0578559 0.050363 -0.0768499)
(-0.0782045 0.0367848 0.100046)
(0.0133223 -0.00977685 0.738465)
(-0.0579346 0.0512155 0.607876)
(-0.0802973 -0.0100432 0.52643)
(0.084983 0.0932247 0.248357)
(-0.0875548 0.0539805 -0.0177524)
(-0.00382459 0.0428938 2.10837)
(-0.0461205 0.0588848 0.477957)
(-0.0182176 -0.00824141 0.691822)
(0.00501856 -0.0128336 0.586415)
(0.00496918 0.0310864 0.554671)
(0.0988602 0.0244673 0.288888)
(0.169714 0.0714835 0.162924)
(-0.050366 -0.0417655 0.0772387)
(-0.0485849 0.000368579 0.667062)
(-0.0255455 0.0185609 0.633278)
(0.0334305 -0.00250454 0.140056)
(0.037319 -0.0207261 0.277922)
(-0.0378501 0.0855682 0.12776)
(-0.0100849 0.0221385 0.252606)
(-0.00504548 0.0165015 0.157146)
(-0.00644798 -0.000644545 0.259875)
(-0.0474041 0.0564017 -0.0991092)
(-0.0992317 -0.018963 0.184481)
(0.0208148 0.00288625 0.696792)
(-0.0436964 0.0364872 -0.0257186)
(-0.0924891 0.0394624 0.148016)
(0.0860764 0.0653917 0.707151)
(-0.117359 0.0294096 0.654309)
(-0.084954 0.042805 0.419488)
(-0.0859394 -0.00883437 0.0829351)
(-0.0912739 0.014937 -0.0194203)
(0.0119998 -0.0116934 2.19297)
(-0.0348121 0.0541976 0.520811)
(0.0181127 -0.0934241 0.652671)
(-0.0129273 -0.038769 0.585948)
(-0.0089484 -0.0311351 0.5224)
(0.0329743 -0.0132388 0.291943)
(0.0996438 0.0217796 0.182236)
(-0.0519979 0.0215883 0.170306)
(-0.0629075 -0.0421112 0.590378)
(-0.0511711 0.00622378 0.600677)
(0.013019 -0.02615 0.179878)
(0.0407804 -0.0307649 0.24334)
(0.0258073 0.0322048 0.0922846)
(0.00878265 0.107272 0.162051)
(0.0245193 0.0166572 0.227925)
(-0.00931358 0.0388444 0.145991)
(0.0316423 0.0029016 0.225562)
(-0.0228448 0.0351523 -0.102649)
(-0.0632452 0.010117 0.148483)
(0.0350009 0.0416383 0.658807)
(-0.00860644 0.0550051 0.059057)
(-0.0802684 0.0391473 0.232707)
(0.106865 0.102677 0.710209)
(-0.106311 -0.00810494 0.737727)
(-0.0459825 0.112353 0.385671)
(-0.0758368 -0.0347111 0.0765637)
(-0.0413784 -0.0637939 -0.0367541)
(0.0460611 -0.0248874 2.13893)
(-0.0193701 0.0515139 0.530922)
(0.0474865 -0.11923 0.669648)
(-0.016834 -0.0427448 0.610604)
(-0.00267078 -0.10045 0.536371)
(0.0190921 -0.0953977 0.347043)
(0.0514724 -0.0247485 0.18859)
(-0.052555 0.0681915 0.278037)
(0.0128663 -0.0769332 0.46441)
(-0.0736138 -0.0411703 0.547087)
(0.00447884 -0.0328183 0.195661)
(-0.103088 0.0285413 0.169713)
(0.0220931 0.0176494 0.0697884)
(0.0325084 0.11314 0.166521)
(0.0398944 0.0175217 0.245734)
(0.0329306 0.0332062 0.167286)
(0.0142513 -0.00737524 0.256525)
(-0.00249575 0.0127699 -0.0920798)
(-0.0308766 0.0190595 0.104567)
(0.0488119 -0.0207631 0.544494)
(0.019035 0.0386706 0.0818295)
(-0.0740984 0.0349153 0.291009)
(0.0961575 0.159509 0.7052)
(-0.0774049 0.03134 0.807029)
(-0.0146158 0.166824 0.395088)
(-0.0920639 -0.0741361 0.0867701)
(-0.00727479 -0.102219 -0.054949)
(0.0539275 0.00157971 1.95678)
(-0.0302698 0.00417303 0.559649)
(0.072214 -0.0924113 0.698624)
(-0.0108738 -0.0127064 0.653692)
(0.0136018 -0.106261 0.562176)
(0.0307842 -0.0856791 0.400356)
(0.0467573 -0.0395429 0.126222)
(0.0396658 0.0684301 0.34587)
(0.100741 -0.061708 0.405504)
(-0.0640419 -0.0579645 0.532647)
(0.0245484 -0.0309913 0.202241)
(-0.0421846 0.0478493 0.118968)
(-0.00306636 0.0571831 0.166788)
(0.0371324 -0.0198976 0.268404)
(0.0565609 0.00507842 0.178765)
(0.0179655 0.00334483 0.348619)
(0.0102171 -0.00624981 -0.0850699)
(0.0151905 -0.0383718 0.0823458)
(0.0123334 -0.0928139 0.436076)
(0.030542 0.033622 0.0973382)
(-0.0522946 -0.0343623 0.355961)
(0.0370858 0.197958 0.667652)
(-0.0266706 0.153266 0.824107)
(-0.00387147 0.182522 0.396929)
(-0.115492 -0.102795 0.112669)
(0.0348046 0.011797 1.88472)
(-0.0518883 -0.0697857 0.561338)
(0.0783184 -0.0611338 0.729346)
(0.0104909 0.0372201 0.713917)
(0.0422274 -0.0693699 0.58245)
(-0.0157903 -0.0451104 0.377199)
(0.0920962 0.04169 0.316217)
(0.145924 -0.0461696 0.389401)
(-0.0332174 -0.0519109 0.537634)
(0.0318125 -0.00978493 0.235867)
(-0.0257824 0.0642584 0.112185)
(-0.0207755 0.00448736 0.16522)
(0.00746344 0.00708712 0.279032)
(0.048153 -0.00556087 0.145985)
(0.0509158 0.00533356 0.366238)
(0.0213339 -0.0169956 -0.0713638)
(0.0586577 -0.0553 0.0794783)
(0.0119442 -0.0449913 0.415307)
(0.0387562 0.0567997 0.0999284)
(0.0006502 -0.0713352 0.405307)
(0.00339734 0.160805 0.612652)
(0.0291599 0.205382 0.785485)
(0.00359111 0.198036 0.434722)
(-0.066201 -0.0897356 0.10472)
(0.0193444 -0.00416082 1.86522)
(-0.0114158 -0.103033 0.559257)
(0.0525921 -0.0410661 0.755209)
(0.0391771 0.0690295 0.777499)
(0.0763467 -0.0132811 0.62806)
(0.0440203 -0.0609999 0.372777)
(0.0824268 0.0716956 0.237631)
(0.153683 -0.0423965 0.381876)
(0.0238905 -0.0344671 0.566119)
(0.0424223 0.00322602 0.310318)
(-0.00426208 0.0193334 0.0847755)
(-0.0147554 -0.0128139 0.151685)
(-0.0154355 0.0297403 0.284255)
(0.0254593 0.0053432 0.0995357)
(0.0405187 0.0113873 0.291588)
(0.0335776 -0.0224427 -0.0595209)
(0.0744515 -0.0507404 0.0804827)
(-0.0030648 0.0448201 0.444242)
(0.0212159 0.0589582 0.0878412)
(0.0600756 -0.0235043 0.394111)
(0.0355562 0.0778265 0.567317)
(0.0745921 0.168602 0.74137)
(0.00542918 0.169056 0.467202)
(-0.0520846 -0.100181 0.0938243)
(0.0142711 -0.01536 1.87868)
(0.00953857 -0.121865 0.559303)
(0.032764 -0.00184951 0.752415)
(0.0736382 0.0831306 0.828014)
(0.0939938 0.00798364 0.68088)
(0.0509581 -0.05742 0.3747)
(0.0639858 0.067801 0.166344)
(0.14155 -0.0503984 0.377162)
(0.0294255 -0.0223331 0.602725)
(0.0412626 0.0124016 0.385553)
(0.016626 0.0054613 0.101019)
(-0.00676534 -0.00977487 0.14207)
(-0.0296498 0.0336821 0.286624)
(0.00437017 0.0207605 0.086927)
(0.0273831 0.00206254 0.238675)
(0.0479497 -0.0318709 -0.054723)
(0.0771139 -0.0433123 0.0887209)
(-0.0301096 0.107357 0.40824)
(-0.0185884 0.0139735 0.0766582)
(0.0520386 -0.0113603 0.321614)
(0.086059 0.0379646 0.561844)
(0.105945 0.113906 0.735844)
(-0.00678623 0.0841096 0.511479)
(-0.0370709 -0.0934394 0.0931005)
(-0.00496293 -0.0548225 1.89772)
(-0.0197171 -0.11086 0.538613)
(0.0388027 0.0323954 0.744797)
(0.102832 0.0886959 0.856431)
(0.097459 0.00295579 0.734863)
(0.0460199 -0.0538188 0.380086)
(0.0334921 0.0395973 0.121466)
(0.0680462 -0.0699824 0.389359)
(-0.00566219 -0.00907584 0.642937)
(0.0316441 0.0184459 0.421557)
(0.0183158 -0.00146137 0.128476)
(-0.00172918 0.00188193 0.134901)
(-0.0351776 0.0308823 0.286576)
(-0.00976763 0.0203579 0.0990364)
(0.0360553 -0.000502989 0.217677)
(0.061064 -0.042661 -0.0542183)
(0.0747963 -0.0242852 0.102931)
(-0.0141686 0.120209 0.328713)
(-0.0478757 -0.0344768 0.0733978)
(-0.0302981 -0.0224491 0.218141)
(0.10728 0.0332621 0.551941)
(0.107115 0.0875736 0.763488)
(-0.0249745 -0.0121428 0.556891)
(-0.0158779 -0.0705318 0.101372)
(-0.00213982 -0.088694 1.93541)
(-0.0137357 -0.0164243 0.461511)
(0.0447521 0.0380901 0.755282)
(0.107341 0.0837259 0.875431)
(0.0847292 -0.014969 0.768032)
(0.0360987 -0.0531354 0.376185)
(0.0084224 0.0321952 0.097162)
(-0.0501561 -0.0646889 0.416296)
(-0.037602 -0.00576725 0.645873)
(0.0259747 0.0271566 0.408862)
(0.0100264 -0.0138408 0.149577)
(0.00883086 0.0214461 0.135536)
(-0.0293677 0.0298874 0.28787)
(-0.0115307 0.0203284 0.119647)
(0.0311901 -0.00336425 0.196591)
(0.0703842 -0.0489016 -0.0532954)
(0.0649575 -0.005756 0.124729)
(-0.0067932 0.0633161 0.297799)
(-0.0557036 -0.0636933 0.0780297)
(-0.0595881 -0.0390865 0.135887)
(0.101649 0.0320623 0.533634)
(0.0641353 0.056901 0.795928)
(-0.0266305 -0.083678 0.573376)
(0.00525854 -0.0425706 0.11755)
(0.0206322 -0.0798427 2.00161)
(0.023029 0.0180097 0.343716)
(0.0422354 0.0231322 0.773551)
(0.0890268 0.0704219 0.892415)
(0.0658847 -0.0312738 0.768977)
(0.0325592 -0.0457982 0.367296)
(0.00411839 0.047064 0.107518)
(-0.0854034 -0.0380193 0.415654)
(-0.0470541 -0.00839483 0.625404)
(0.0247317 0.0277307 0.345462)
(-0.00371327 -0.0072101 0.152925)
(0.024415 0.0400129 0.157233)
(-0.0138094 0.036599 0.295872)
(0.00258754 0.018974 0.152772)
(0.00955396 -0.00841489 0.210002)
(0.0732625 -0.051731 -0.0379519)
(0.0453127 -0.0109599 0.164694)
(-0.0246425 -0.0297544 0.316892)
(-0.0484825 -0.0754622 0.0926736)
(-0.0181527 -0.0879626 0.0988009)
(0.0570064 -0.00203471 0.529358)
(0.00191833 -0.00669002 0.803992)
(-0.00352955 -0.112594 0.556635)
(0.0230499 -0.02446 0.1431)
(-0.0250664 -0.0855166 2.07546)
(0.0569076 0.0334333 0.262446)
(0.0170836 -0.0159177 0.779552)
(0.0463754 0.0298097 0.894392)
(0.0575012 -0.0409669 0.744787)
(0.0391565 -0.0348702 0.366055)
(0.0183314 0.0723569 0.143677)
(-0.0588031 0.00236405 0.407443)
(-0.0349301 0.0074168 0.577995)
(0.036734 0.0247062 0.294042)
(-0.0115864 0.0268279 0.176524)
(0.0355245 0.0454674 0.204071)
(-0.0131512 0.0463446 0.308848)
(0.0225001 0.0149988 0.189676)
(0.00285912 -0.0117966 0.268135)
(0.0655988 -0.0481705 0.000195016)
(0.015689 -0.0407593 0.230098)
(-0.0438682 -0.104139 0.355645)
(-0.0307078 -0.0690499 0.12404)
(0.056727 -0.130649 0.12499)
(0.0100597 -0.0891226 0.527014)
(-0.00874154 -0.0598239 0.764412)
(0.0216696 -0.100562 0.532538)
(0.0401805 -0.0227121 0.18297)
(-0.095336 -0.0514402 2.06624)
(0.0553517 0.0497927 0.281817)
(-0.01461 -0.0310644 0.746361)
(0.0326144 0.00661033 0.862056)
(0.0683969 -0.0403681 0.684625)
(0.0512569 -0.0181881 0.375449)
(0.0305046 0.0756295 0.184394)
(-0.00480055 0.0600906 0.405394)
(-0.019224 0.0392146 0.531719)
(0.0438132 0.0246915 0.279983)
(-0.0150987 0.0551295 0.214431)
(0.0339889 0.0452569 0.267721)
(-0.0130599 0.0531539 0.340011)
(0.0379851 0.00979527 0.211368)
(0.0116086 -0.0124747 0.353087)
(0.050938 -0.0391852 0.048469)
(-0.00633815 -0.0584058 0.306497)
(-0.05368 -0.133505 0.407042)
(-0.0126248 -0.0366127 0.166286)
(0.0932542 -0.110732 0.180597)
(0.0286266 -0.126536 0.510286)
(0.00253701 -0.0856818 0.703836)
(0.0411769 -0.0521484 0.502471)
(0.0494208 -0.0327185 0.22927)
(0.0421371 0.0102778 1.97026)
(0.101441 0.0559445 0.328611)
(-0.0312847 -0.00888042 0.666617)
(0.0310202 0.0139715 0.783667)
(0.0782132 -0.0111726 0.628385)
(0.0585629 -0.0105631 0.394609)
(0.0252682 0.0479498 0.210115)
(0.0109017 0.0808538 0.409457)
(-0.02043 0.0523112 0.508658)
(0.0406032 0.0261197 0.298327)
(-0.0193363 0.0736113 0.24834)
(0.0249256 0.0512415 0.328452)
(-0.00291825 0.0550223 0.402738)
(0.0465578 0.00395226 0.216595)
(0.0162229 -0.0107167 0.447494)
(0.0331599 -0.0272859 0.0876258)
(-0.0232793 -0.0419542 0.375054)
(-0.0515765 -0.127311 0.463814)
(0.000639398 0.00553702 0.205229)
(0.0906182 -0.0592624 0.230477)
(0.0690017 -0.112117 0.480965)
(-0.0103702 -0.087646 0.65751)
(0.0384549 -0.00703099 0.457805)
(0.0410847 -0.0468653 0.26703)
(0.143888 -0.0014519 0.702692)
(0.0961195 0.0313029 0.373365)
(-0.00670855 0.0187691 0.594322)
(0.0111499 0.0214344 0.705436)
(0.0689129 0.0334525 0.587683)
(0.0521317 -0.013135 0.41642)
(-0.00306426 0.00523145 0.231396)
(0.00852887 0.0766101 0.413089)
(-0.0423293 0.0473148 0.494616)
(0.0324773 0.0366398 0.347237)
(-0.0239538 0.0804869 0.269845)
(-0.00320106 0.0532212 0.378592)
(-0.0333408 0.04301 0.472704)
(0.0399033 0.00117652 0.217439)
(0.00979754 -0.0063215 0.528506)
(0.0193027 -0.0180363 0.110082)
(-0.0254261 0.00148307 0.400956)
(-0.0258515 -0.123827 0.536574)
(0.0110855 0.0353181 0.226423)
(0.0773563 -0.0182447 0.25282)
(0.0864436 -0.0716547 0.458755)
(-0.0405869 -0.0762907 0.626271)
(0.0103933 0.0179492 0.402231)
(0.00250248 -0.0648961 0.273528)
(0.0155578 -0.0737465 0.371599)
(0.0547933 0.00288227 0.379095)
(0.0284604 0.037884 0.549255)
(-0.011213 0.01376 0.65663)
(0.0464452 0.0728135 0.561738)
(0.0410241 -0.0109253 0.426336)
(-0.0389018 -0.0450644 0.249323)
(0.000679317 0.0352516 0.418529)
(-0.0652045 0.0363297 0.478595)
(0.0280615 0.052782 0.398534)
(-0.0171883 0.0701078 0.290046)
(-0.0444428 0.0481534 0.443825)
(-0.0783409 0.0501266 0.494963)
(0.00339909 0.00341556 0.23012)
(-0.00182579 -0.00240011 0.591911)
(0.0118641 -0.012427 0.11999)
(-0.00850934 0.045989 0.355793)
(-0.0215128 -0.121731 0.602446)
(0.0183995 0.038592 0.239154)
(0.0726799 0.00205834 0.258916)
(0.068038 -0.0438495 0.463651)
(-0.0622352 -0.0627755 0.608691)
(-0.0292185 0.0337601 0.357847)
(-0.0455661 -0.0732957 0.240965)
(-0.00358855 -0.10831 0.313147)
(0.0361602 -0.0134824 0.38883)
(0.0400827 0.0473273 0.530001)
(-0.0234818 -0.00274907 0.631583)
(0.0141293 0.0901025 0.541007)
(0.0184866 -0.0171934 0.402748)
(-0.0614181 -0.0757689 0.263333)
(-0.00253035 -0.0293072 0.428182)
(-0.0644322 0.0160476 0.465229)
(0.0120853 0.0591514 0.435363)
(0.00868797 0.0312952 0.330029)
(-0.0437318 0.0151523 0.50185)
(-0.0689676 0.053198 0.48797)
(-0.0143717 -0.0021336 0.246422)
(0.00307558 -0.00485974 0.642685)
(0.00651522 -0.0087717 0.124027)
(-0.00693223 0.0768455 0.30333)
(-0.0329932 -0.102332 0.620707)
(0.0205931 0.0217136 0.252038)
(0.0766923 0.00943037 0.261929)
(0.0186493 -0.0211261 0.495935)
(-0.0676099 -0.054837 0.606491)
(-0.0641431 0.0428714 0.327442)
(-0.066124 -0.0493121 0.20129)
(-0.00813766 -0.125257 0.300825)
(0.027463 -0.0217661 0.416505)
(0.0359031 0.0506845 0.528212)
(-0.0262204 -0.0166771 0.629761)
(-0.0173926 0.0727842 0.527681)
(-0.000541268 -0.0460919 0.372068)
(-0.0649665 -0.0729923 0.273524)
(-0.000105555 -0.0551875 0.443316)
(-0.0426402 -0.0247033 0.468016)
(-0.0119844 0.0516242 0.459431)
(0.0312107 -0.0239966 0.345183)
(-0.036839 -0.0539325 0.439731)
(0.042104 -0.0159349 0.447012)
(0.0271875 -0.0276017 0.269347)
(0.00672836 -0.0106786 0.690683)
(0.00210567 -0.00910086 0.126422)
(-0.00682494 0.065309 0.264905)
(-0.0185519 -0.0223525 0.606543)
(0.0356416 0.00778813 0.270084)
(0.0781544 0.00165576 0.269146)
(-0.0311227 0.0164225 0.53764)
(-0.0623196 -0.0458906 0.616221)
(-0.08425 0.0361008 0.308603)
(-0.0605616 -0.00762687 0.178825)
(-0.00850995 -0.129044 0.305222)
(0.0295004 -0.0235472 0.445299)
(0.0140136 0.0726776 0.533883)
(-0.0220037 -0.0208169 0.64124)
(-0.0354922 0.0414423 0.534227)
(-0.0214188 -0.0409857 0.356431)
(-0.0697881 -0.0616316 0.275486)
(0.00827149 -0.0453476 0.462701)
(-0.0315729 -0.0503875 0.490995)
(-0.04533 0.0150331 0.487528)
(0.0372142 -0.0610093 0.308718)
(-0.0321879 -0.016203 0.324167)
(0.114372 -0.0744703 0.355306)
(0.0718435 -0.0472182 0.292456)
(0.00605463 -0.00336361 0.704222)
(0.00213741 -0.0126503 0.1311)
(-0.00101714 0.0126286 0.246527)
(-0.00220006 -0.00767609 0.59822)
(0.0610578 0.0216615 0.286432)
(0.0636099 -0.00456587 0.290307)
(-0.0617441 0.085331 0.546491)
(-0.032632 -0.00759019 0.631525)
(-0.0857357 0.0202586 0.308638)
(-0.0491666 0.0266925 0.175544)
(-0.00592735 -0.119049 0.322228)
(0.0102099 -0.0193668 0.464645)
(-0.0319318 0.124851 0.544607)
(-0.00440168 -0.0061958 0.657358)
(-0.0341898 0.0263316 0.556904)
(-0.0296372 -0.02284 0.333578)
(-0.0836034 -0.0642193 0.266319)
(0.0251732 -0.0201096 0.487021)
(-0.0297928 -0.0420527 0.512885)
(-0.0478529 -0.00281745 0.50427)
(0.0274981 -0.0598133 0.27609)
(0.00332792 0.0253963 0.269005)
(0.10826 -0.0443993 0.304511)
(0.0784958 -0.0469108 0.2941)
(0.0142138 0.00290136 0.702494)
(0.00585932 -0.0119764 0.139375)
(0.00867694 -0.0367804 0.245787)
(0.0604374 -0.0663813 0.539226)
(0.0764601 0.0573525 0.288764)
(0.0508448 -0.00526941 0.324794)
(-0.064828 0.143683 0.513685)
(0.0130057 0.0679298 0.617989)
(-0.0766454 -0.00900483 0.331621)
(-0.0383205 0.0468089 0.182312)
(-0.00695753 -0.120395 0.3372)
(-0.023221 -0.0194871 0.475086)
(-0.0628121 0.152754 0.562076)
(0.0319997 0.0541139 0.667981)
(-0.0138229 0.0283393 0.583181)
(-0.0195587 -0.0211304 0.307158)
(-0.107946 -0.0636354 0.2554)
(0.0267201 -0.0209445 0.489661)
(-0.00435128 -0.00210765 0.54358)
(-0.0377989 0.0016451 0.50367)
(0.0251475 -0.0589116 0.258382)
(0.0164614 0.0450995 0.238681)
(0.0625677 -0.0106848 0.295721)
(0.0659256 -0.0354661 0.265089)
(0.0230805 -0.00281156 0.716362)
(0.00399622 -0.00473259 0.151806)
(0.0179589 -0.0536736 0.247536)
(0.0709759 -0.0507916 0.461026)
(0.0750256 0.0804728 0.27717)
(0.0457295 -0.0319844 0.354012)
(-0.0434577 0.152111 0.472614)
(0.00986121 0.0990699 0.586273)
(-0.0657939 -0.0431184 0.367532)
(-0.0289945 0.0541338 0.197323)
(-0.00883065 -0.112206 0.359935)
(-0.0556233 -0.046008 0.473364)
(-0.0689314 0.154188 0.590312)
(0.0394524 0.0936857 0.668658)
(0.00757763 0.0209728 0.59405)
(-0.00792874 -0.0331719 0.294661)
(-0.122418 -0.0402477 0.269745)
(0.00232588 -0.0437066 0.477646)
(0.0478329 0.0176284 0.569472)
(-0.00132336 0.0176968 0.50473)
(0.0373532 -0.0693444 0.257467)
(0.00762674 0.0532862 0.22819)
(0.0200957 0.0144924 0.312088)
(0.0523485 -0.0189674 0.248391)
(0.0273758 0.00512274 0.759606)
(-0.00654071 0.00819319 0.168781)
(0.00665759 -0.0351511 0.23759)
(0.0353691 0.0243545 0.392662)
(0.0748066 0.0768048 0.268012)
(0.0225662 -0.037599 0.359354)
(-0.0113267 0.119419 0.452823)
(-0.025532 0.0947206 0.557944)
(-0.058325 -0.0722239 0.399331)
(-0.0149245 0.0578208 0.219568)
(-0.00537847 -0.0528154 0.368069)
(-0.0517005 -0.0991158 0.481184)
(-0.0532669 0.129987 0.624379)
(0.0245949 0.100983 0.671437)
(0.0187048 -0.00907887 0.588628)
(-0.00279935 -0.0443685 0.303247)
(-0.0621556 -0.00321022 0.323117)
(-0.0528485 -0.0624433 0.428233)
(0.0976156 -0.00978632 0.560219)
(0.0686221 0.00522389 0.511855)
(0.059129 -0.0904176 0.284332)
(-0.003955 0.0472205 0.23475)
(-0.00447553 0.0262391 0.320751)
(0.0343053 0.000912734 0.261723)
(0.00649123 0.000983138 0.786303)
(-0.0200462 0.021335 0.19007)
(-0.0207922 0.00402125 0.230068)
(0.0358553 0.0760353 0.337298)
(0.0745636 0.0548901 0.28471)
(-0.0109031 -0.011699 0.343665)
(0.0164238 0.0606251 0.465345)
(-0.0523876 0.0837006 0.550721)
(-0.0553266 -0.0921387 0.423506)
(0.00691484 0.0641148 0.246353)
(-0.00368494 0.0140766 0.359868)
(-0.0228443 -0.115168 0.502382)
(-0.023492 0.0510053 0.660115)
(0.0137724 0.0966364 0.687431)
(0.0166987 -0.0581459 0.578539)
(-0.0111789 -0.0385166 0.323877)
(0.021726 0.0261139 0.36192)
(-0.0524231 -0.0437543 0.394029)
(0.113762 -0.0424914 0.523047)
(0.115825 -0.0325381 0.506876)
(0.0653229 -0.105737 0.338199)
(-0.0118801 0.0192654 0.247908)
(-0.0129386 0.0293453 0.317173)
(0.0174325 0.0150879 0.287952)
(-0.00463097 -0.00550679 0.746394)
(-0.0262422 0.0258667 0.211741)
(-0.0320193 0.0204674 0.238635)
(0.0630065 0.0826067 0.336948)
(0.068471 0.0364766 0.31744)
(-0.0242993 -0.000816041 0.321608)
(0.0298623 0.0043425 0.492646)
(-0.0583565 0.0711013 0.556956)
(-0.0481144 -0.0987085 0.441286)
(0.0227755 0.0689003 0.27256)
(0.000993969 0.0534499 0.364373)
(-0.0156832 -0.0788239 0.515851)
(-0.00970643 -0.0337299 0.664015)
(0.0139707 0.0739329 0.723708)
(0.00485151 -0.089629 0.576769)
(-0.0193973 -0.0200577 0.341078)
(0.0626387 0.0351559 0.349824)
(-0.0120185 -0.00429489 0.365886)
(0.0955002 -0.0454721 0.487565)
(0.120328 -0.0544338 0.488902)
(0.0379389 -0.0871788 0.384313)
(-0.0145925 -0.0146327 0.261309)
(-0.0132482 0.0261252 0.312443)
(-0.000607553 0.0221065 0.309927)
(-0.022148 0.034574 0.433163)
(-0.0241591 0.0242787 0.228395)
(-0.0241818 0.0141091 0.257189)
(0.0682446 0.031152 0.369257)
(0.0600976 0.0338498 0.340023)
(-0.0335017 -0.0029431 0.315678)
(0.0316349 -0.0253735 0.512537)
(-0.0508035 0.039215 0.566983)
(-0.0273454 -0.0906749 0.455367)
(0.0251641 0.0667757 0.294797)
(0.00174817 0.0607399 0.380803)
(-0.0443944 -0.0346854 0.503533)
(-0.027274 -0.0726981 0.63969)
(0.00536849 0.009772 0.757784)
(0.00413762 -0.105039 0.574133)
(-0.0177753 -0.001749 0.350014)
(0.0679946 0.0497203 0.316235)
(0.02652 0.030032 0.351923)
(0.0663091 -0.0217896 0.462358)
(0.094399 -0.0490266 0.46209)
(-8.41952e-06 -0.0375851 0.398317)
(-0.012223 -0.037086 0.27603)
(-0.0138068 0.0173388 0.311312)
(-0.0165225 0.0219102 0.326531)
(-0.0314997 0.00260659 0.285369)
(-0.0208747 0.0249102 0.234994)
(-0.0167904 -0.00258509 0.275918)
(0.036093 0.00126971 0.375316)
(0.0469876 0.0324494 0.346126)
(-0.0304309 -0.00903503 0.321973)
(0.02743 -0.0338624 0.51873)
(-0.0307196 -0.0162598 0.581392)
(0.00460365 -0.0724823 0.471352)
(0.0213567 0.057414 0.313784)
(-0.000184944 0.0496837 0.421869)
(-0.0644721 -0.000144785 0.492584)
(-0.0470692 -0.0624773 0.607743)
(-0.00162647 -0.0547125 0.743495)
(0.014596 -0.108364 0.567452)
(-0.012106 0.0132215 0.355626)
(0.0635247 0.0655042 0.282496)
(0.05248 0.0579621 0.351995)
(0.0515856 0.00544863 0.4439)
(0.0699309 -0.038175 0.439575)
(-0.0191365 0.00937903 0.385964)
(-0.00965565 -0.0400862 0.290626)
(-0.015258 0.00752789 0.315746)
(-0.0239956 0.0195536 0.338432)
(-0.0273347 -0.00297828 0.259009)
(-0.0202244 0.0324908 0.230449)
(-0.0160925 -0.0133627 0.290553)
(0.0130698 0.00417233 0.371155)
(0.0337956 0.00711125 0.357646)
(-0.0274479 -0.0164068 0.340583)
(0.023539 -0.0373685 0.51203)
(0.00205423 -0.0480682 0.589761)
(0.0363265 -0.0552678 0.491255)
(0.0222439 0.0476876 0.33748)
(-0.00177721 0.0457016 0.460312)
(-0.0534849 0.00692756 0.50261)
(-0.0293929 -0.00509509 0.565959)
(0.0091883 -0.0765603 0.70222)
(0.0369838 -0.095028 0.558063)
(-0.0040088 0.0218622 0.365723)
(0.0638175 0.068643 0.260922)
(0.0694318 0.0787214 0.364998)
(0.0590769 0.0227773 0.433255)
(0.0554714 -0.0295522 0.428676)
(-0.0228893 0.0383338 0.370987)
(-0.0112861 -0.02636 0.30661)
(-0.0149282 0.00122374 0.326773)
(-0.0278668 0.0202493 0.347478)
(-0.0246581 -0.00211541 0.25949)
(-0.0214314 0.0382672 0.217698)
(-0.025704 -0.00989668 0.306993)
(-0.0193581 0.00846379 0.367863)
(0.0285796 -0.0219963 0.368116)
(-0.0352794 -0.0372299 0.371991)
(0.0152803 -0.0400826 0.464429)
(0.0407865 -0.0553934 0.585995)
(0.0541675 -0.0494107 0.512861)
(0.0228105 0.0399411 0.367048)
(4.57779e-05 0.0343215 0.483851)
(-0.048623 -0.0167905 0.509515)
(0.0262614 0.0704542 0.501409)
(0.0421714 -0.0452834 0.656832)
(0.0665598 -0.0586626 0.553712)
(0.00470743 0.0246263 0.385348)
(0.057613 0.0575083 0.266394)
(0.0796572 0.0884475 0.38332)
(0.0725605 0.0284235 0.436205)
(0.0500592 -0.0209709 0.432002)
(-0.0245321 0.0553578 0.369506)
(-0.020624 -0.0127989 0.325603)
(-0.0157346 0.0015468 0.343787)
(-0.0329695 0.024314 0.358571)
(-0.0157556 -0.000219397 0.264222)
(-0.0167765 0.0315625 0.220511)
(-0.0249081 0.00274454 0.319656)
(-0.0516151 0.0195467 0.352405)
(0.0076348 -0.0369715 0.373885)
(-0.0206796 -0.0698355 0.408687)
(0.0140145 -0.0232877 0.397231)
(0.0610146 -0.0533899 0.570642)
(0.0553731 -0.0545517 0.537333)
(0.017971 0.0348977 0.396627)
(-0.00466544 -0.0172849 0.496595)
(0.0235834 -0.0282651 0.477155)
(0.0530728 0.0939333 0.444603)
(0.0851218 0.00431876 0.621939)
(0.0802877 -0.024876 0.559721)
(0.00887434 0.0257231 0.410089)
(0.0248566 0.0126505 0.307323)
(0.0759149 0.0847511 0.399929)
(0.0747783 0.0235073 0.451528)
(0.0445919 -0.00361915 0.456957)
(-0.0277311 0.0651921 0.381448)
(-0.0346224 -0.00962264 0.346127)
(-0.0219139 0.00363862 0.364882)
(-0.0422009 0.0305796 0.374103)
(-0.00855067 -0.000464773 0.263495)
(0.00889472 -0.00142488 0.257547)
(-0.0110268 0.0087728 0.318234)
(-0.0614899 0.0258248 0.340176)
(-0.031222 -0.0438076 0.366937)
(0.0140137 -0.0941367 0.440591)
(0.0226702 0.00630971 0.359552)
(0.0599181 -0.0541443 0.561378)
(0.0541133 -0.0521549 0.565253)
(0.0133262 0.0355724 0.4207)
(-0.00491149 -0.0603375 0.459113)
(0.0743958 -0.00152574 0.367651)
(0.0504209 0.0830075 0.39803)
(0.0972271 0.037868 0.598686)
(0.0724315 0.00465089 0.568908)
(0.00709016 0.030243 0.431677)
(-0.00830083 -0.020656 0.342269)
(0.0519578 0.0684028 0.41497)
(0.0543519 0.0164857 0.48398)
(0.0357842 0.0144054 0.490058)
(-0.0268617 0.0653064 0.400546)
(-0.0484364 -0.0139099 0.364011)
(-0.0323024 0.00599663 0.385141)
(-0.0539754 0.0374184 0.390681)
(-0.00754418 -0.00237886 0.263267)
(0.0361906 -0.0278243 0.300419)
(0.00193339 0.00856757 0.312722)
(-0.0548303 0.0157391 0.343172)
(-0.0550088 -0.0445321 0.342295)
(0.0299393 -0.0967855 0.462705)
(0.0346645 0.0343607 0.341362)
(0.0464462 -0.0525255 0.554436)
(0.0553136 -0.0233274 0.584263)
(0.0115415 0.0378521 0.438516)
(0.0056277 -0.0378143 0.289921)
(0.0267891 -0.0301178 0.318668)
(0.0405585 0.0607457 0.361363)
(0.0803632 0.0548245 0.574324)
(0.0472828 0.0344521 0.576218)
(0.00335843 0.0399047 0.448722)
(-0.023982 -0.0411467 0.355965)
(0.0172666 0.0524073 0.428729)
(0.0255594 0.0234829 0.507607)
(0.0215754 0.0409494 0.520781)
(-0.0226596 0.058018 0.422904)
(-0.0583695 -0.0181293 0.376001)
(-0.0430712 0.0130146 0.402987)
(-0.0630554 0.0425269 0.407447)
(-0.00994712 -0.005 0.270463)
(0.0491092 -0.0356911 0.3093)
(0.00527383 0.00544655 0.316877)
(-0.0498741 -0.0127279 0.361011)
(-0.0361739 -0.0392431 0.320524)
(0.0363957 -0.0785551 0.474301)
(0.044956 0.0546971 0.336443)
(0.0407828 -0.0363935 0.542583)
(0.0381932 0.0297842 0.581223)
(0.00874841 0.0326815 0.44402)
(-0.0088067 -0.0477406 0.247282)
(-0.00129114 -0.0602348 0.28696)
(0.0359841 0.0437694 0.341416)
(0.0545799 0.059781 0.553275)
(0.0199228 0.0607934 0.582403)
(0.00301408 0.0469265 0.463526)
(-0.0344104 -0.0567397 0.358723)
(-0.00756417 0.0463598 0.436848)
(0.00317654 0.0380293 0.521928)
(0.00733118 0.0649857 0.544538)
(-0.0168698 0.0457511 0.444991)
(-0.0646897 -0.0197766 0.384647)
(-0.0509317 0.0220316 0.423485)
(-0.0657102 0.0419636 0.426545)
(-0.00960277 -0.00586324 0.287416)
(0.0360941 -0.0371937 0.286068)
(0.00079622 0.000367127 0.328179)
(-0.0503024 -0.0186368 0.377684)
(-0.0135393 -0.0326837 0.302308)
(0.0269629 0.00293197 0.504112)
(0.0481652 0.0645791 0.337983)
(0.0372721 -0.00099908 0.527072)
(0.00675808 0.0547946 0.560381)
(0.008873 0.0190216 0.429823)
(-0.0146425 -0.0467866 0.25358)
(-0.0145389 -0.0535217 0.261681)
(0.0364633 0.0378105 0.337371)
(0.0369014 0.0599487 0.541563)
(0.00446781 0.0719913 0.590071)
(0.00795615 0.0430226 0.480636)