/*--------------------------------*- C++ -*----------------------------------*\
| =========                 |                                                 |
| \\      /  F ield         | OpenFOAM: The Open Source CFD Toolbox           |
|  \\    /   O peration     | Version:  5.x                                   |
|   \\  /    A nd           | Web:      www.OpenFOAM.org                      |
|    \\/     M anipulation  |                                                 |
\*---------------------------------------------------------------------------*/
FoamFile
{
    version     2.0;
    format      ascii;
    class       volVectorField;
    location    "7.9";
    object      U;
}
// * * * * * * * * * * * * * * * * * * * * * * * * * * * * * * * * * * * * * //

dimensions      [0 1 -1 0 0 0 0];

internalField   nonuniform List<vector> 
10571
(
(0.181256 0.619556 2.91369)
(0.164178 -0.22569 1.47739)
(0.0930502 0.303387 2.69843)
(-0.374187 1.17202 4.18929)
(-0.10231 0.261456 1.58212)
(0.0952653 0.693794 2.92643)
(-0.261454 -0.125784 1.30371)
(0.49046 -0.598929 2.84533)
(-0.445818 0.72047 3.82494)
(-0.0488899 0.194282 1.47021)
(0.494971 0.122065 1.86938)
(-1.57625 0.533175 5.32853)
(-0.714225 -0.181032 1.50747)
(1.06508 -0.339842 3.07248)
(0.401168 -0.37769 3.01164)
(0.426347 -1.18318 3.54426)
(-0.816589 -0.500072 3.12373)
(-0.414872 -0.655841 1.37777)
(1.39827 0.87834 3.83637)
(-0.517714 0.0401172 2.12014)
(-0.112676 -0.17365 0.697466)
(0.299839 -0.00606266 1.00332)
(0.604853 0.560185 2.92777)
(-0.189713 0.233978 2.17499)
(0.247341 0.0924051 1.43798)
(0.233255 -0.311089 1.67987)
(-0.955737 0.474959 2.72093)
(-0.320219 0.586639 1.79514)
(0.0800792 0.257553 0.609426)
(-0.0854188 0.226906 0.840961)
(-0.632571 0.099464 1.67695)
(-0.301609 -0.453801 2.9592)
(0.574823 0.31921 2.82646)
(-0.376574 -0.503858 1.81139)
(-0.299117 0.93502 3.23281)
(-0.610862 0.360192 3.9136)
(-0.168075 -0.0222928 0.600362)
(-0.143433 0.27749 1.51694)
(0.494521 0.692468 3.22069)
(-0.663287 0.755518 2.38038)
(-0.94039 0.0232164 4.11582)
(-0.242954 -0.180786 0.670647)
(-0.110071 0.0999033 2.51128)
(1.11477 -0.251228 4.02627)
(-0.180449 0.576148 1.23163)
(-0.203162 -0.116016 0.273906)
(-0.152698 0.0779752 2.82665)
(0.276266 -0.437517 1.5338)
(-0.170995 -0.00770257 0.501893)
(2.8536e-05 0.648773 1.01443)
(-0.545062 0.0651763 2.48656)
(-0.868325 0.690696 2.13428)
(0.0181617 0.00953964 0.45642)
(0.290967 -0.0222453 0.790932)
(-0.672737 0.561137 1.83796)
(-0.344759 0.0454504 1.20241)
(0.066951 0.550314 2.8279)
(-0.787126 -0.212607 2.33685)
(0.0283205 0.471457 4.06014)
(0.874624 0.397798 4.00859)
(-0.190585 0.117487 1.31328)
(-0.340534 0.0990947 1.46262)
(-0.0589677 0.768162 3.25537)
(-0.826342 0.951832 2.04449)
(1.49883 0.646922 4.25672)
(-0.281193 0.241793 1.3532)
(-1.12572 -0.710714 3.70373)
(1.05093 -0.326345 4.25395)
(-0.266774 0.803286 2.02923)
(-0.810198 0.0134143 1.79062)
(-0.986658 -0.452309 1.92644)
(0.257996 -0.219843 0.395768)
(-0.00390689 -0.011691 0.359318)
(-0.462421 0.408426 0.753743)
(-1.23707 0.768264 2.89314)
(-0.569173 0.125044 1.22219)
(0.0784087 0.0429195 0.508338)
(-0.59847 -0.472731 2.23041)
(-1.2075 1.68246 2.90304)
(-0.557174 0.668539 1.79272)
(-0.355002 0.476151 2.94826)
(-0.238359 0.0486931 1.4048)
(-0.0472552 -0.0913786 1.89127)
(0.210293 0.215934 2.3132)
(0.322354 0.311773 1.41144)
(-0.492827 0.00467561 1.71797)
(-0.450176 0.347936 3.85891)
(-0.0364043 0.324231 1.36482)
(0.0827985 0.80868 2.42596)
(-0.821467 0.446899 1.92173)
(-0.551441 0.0171908 1.45803)
(0.453983 0.157674 4.05892)
(0.0116454 0.315237 3.5956)
(-0.186829 0.714114 3.30347)
(-0.441472 0.280567 0.728444)
(-0.0684541 0.0104123 0.300227)
(0.0316419 0.00253097 0.33464)
(-0.542351 0.0330176 0.905454)
(-0.553645 0.284459 1.46464)
(0.0692158 -0.021702 0.491714)
(0.0959761 0.0261733 0.54098)
(-1.20945 0.677226 2.7032)
(-0.477586 2.7422 4.19103)
(-0.221904 0.66377 1.38925)
(-0.08031 0.169115 2.03224)
(0.14368 0.440155 1.85775)
(0.0332528 0.252856 3.37987)
(-0.411533 0.217307 2.59976)
(0.193272 0.8938 2.28708)
(-0.614092 0.417891 2.42947)
(-0.161435 -0.00311166 1.98836)
(0.155335 -0.177561 1.12736)
(0.0405329 0.0186037 2.34898)
(-0.400342 0.533953 2.46148)
(-0.513611 0.0253731 2.05303)
(-0.17822 0.163573 1.91216)
(0.319454 -0.734843 5.07886)
(0.122677 0.42394 3.79276)
(0.0918248 0.66154 1.12436)
(-0.0994576 0.290468 0.528842)
(0.0327993 0.00167187 0.185808)
(-0.287657 -0.11752 1.79159)
(-0.0658388 -0.0899599 0.423116)
(0.117194 0.0594862 0.352839)
(0.052384 0.107571 0.53495)
(-1.37166 0.314617 2.94739)
(-0.0324803 1.10011 2.13095)
(0.18963 0.200018 1.48737)
(-0.0164821 -0.12949 1.89996)
(0.283354 -0.14316 1.30116)
(-0.0130772 0.0037683 -0.000590882)
(0.0488536 0.318769 3.10783)
(-0.118806 -0.0182563 1.99241)
(0.413276 0.840236 2.47365)
(-0.184751 0.232018 2.66755)
(-0.342496 -0.40028 3.07183)
(-0.250691 -0.504425 1.75936)
(0.0144982 -0.00353491 0.00186186)
(0.0570373 -0.0196737 2.50707)
(-0.0520301 0.519671 2.33065)
(-0.32392 -0.15561 1.95456)
(-0.782651 0.102534 1.51961)
(0.0384561 -0.978603 3.61407)
(0.212047 0.298669 4.00853)
(0.459967 0.246144 1.54376)
(-0.433381 0.00162278 0.925522)
(-0.0326009 -0.00265977 0.187755)
(-0.10887 -0.151004 1.94155)
(-0.0493326 0.117855 0.256601)
(0.0629547 0.191754 0.108177)
(0.000650532 0.113901 0.399899)
(-0.55259 -0.0608001 2.77321)
(0.209848 0.379977 2.44059)
(0.0865695 -0.081798 1.4161)
(-0.251276 -0.29754 2.35171)
(0.248977 -0.241935 1.50031)
(-0.167235 -0.196263 -0.192606)
(0.0289867 0.407099 3.17109)
(0.166299 -0.0896523 2.23242)
(0.4055 0.537761 2.45241)
(-0.173614 -0.034874 2.50106)
(-0.338391 -0.635599 2.33643)
(-0.356272 -1.16046 2.10611)
(-0.121131 -0.391642 -0.0418567)
(0.0238482 -0.0388313 2.62524)
(0.0383262 0.46237 2.50822)
(-0.126386 -0.0403533 1.76284)
(-0.569033 -0.385297 0.940242)
(-0.0459876 -0.167886 0.991193)
(-0.47935 -0.159427 -0.298165)
(0.289564 0.274141 4.02878)
(0.721816 0.162026 2.05848)
(0.1377 -0.244902 0.680329)
(0.0385078 0.0314191 -0.172797)
(0.0157941 -0.256313 2.25587)
(-0.0563684 -0.112891 0.285774)
(0.0882471 0.0262833 -0.0313348)
(-0.187131 -0.172549 0.486963)
(-0.2253 -0.205161 2.66446)
(0.214026 0.084269 1.9229)
(-0.0850074 -0.298815 1.50903)
(-0.198466 -0.432259 1.94481)
(-0.0583605 -0.432842 1.68348)
(-0.0887319 -0.206074 0.215325)
(0.0204362 0.429109 3.12206)
(0.195476 -0.138593 2.23787)
(0.359624 0.311636 2.2822)
(-0.244777 -0.0808439 2.49182)
(-0.0090702 -0.509987 1.84519)
(-0.402269 -0.806985 1.9467)
(-0.13814 -0.0762662 -0.0536505)
(0.0336381 -0.0897166 2.64134)
(0.115788 0.388896 2.65262)
(0.00489768 0.134661 1.89107)
(-0.190162 -0.390074 0.746614)
(0.19826 -0.00641544 0.816156)
(-0.308742 -0.0433694 -0.415683)
(0.36833 0.218698 4.00049)
(0.850173 0.12263 2.39037)
(0.542292 -0.150698 0.97455)
(0.199827 0.00556604 -0.139485)
(0.116461 -0.303745 2.36378)
(-0.0012056 -0.248966 0.320332)
(-0.0038856 -0.242674 0.253569)
(-0.271638 -0.249028 0.689941)
(-0.00280208 -0.341432 2.62315)
(0.145914 -0.194415 1.49436)
(-0.0927517 -0.250282 1.61719)
(-0.150521 -0.431563 1.96479)
(-0.0876447 -0.387042 1.69011)
(0.34323 0.129851 0.338425)
(0.0100597 0.35812 2.9602)
(0.326457 -0.238131 2.28853)
(0.372132 0.195578 2.21057)
(-0.228048 -0.0660876 2.52765)
(0.0412315 -0.405712 1.89879)
(-0.34365 -0.435314 1.75597)
(0.111939 0.243935 -0.2414)
(0.0282594 -0.0900096 2.57778)
(0.196217 0.303184 2.7044)
(0.0796297 0.229571 1.98903)
(-0.174864 -0.241956 0.808069)
(0.250413 -0.230898 1.07664)
(0.424976 0.157457 3.92435)
(0.809056 0.0735789 2.59492)
(0.715152 -0.217603 1.28688)
(0.289381 -3.41812e-06 0.119726)
(0.17392 -0.33227 2.39786)
(0.0780676 -0.266898 0.51091)
(0.0335851 -0.280647 0.54074)
(-0.191816 -0.212149 0.883029)
(0.0740271 -0.445918 2.45086)
(0.197915 -0.261865 1.49862)
(-0.110218 -0.130546 1.69571)
(-0.0827625 -0.381758 2.03997)
(-0.108709 -0.227988 1.71775)
(0.00163192 0.305327 2.79897)
(0.388282 -0.237346 2.25582)
(0.443811 0.088035 2.20695)
(-0.199802 -0.0639835 2.48906)
(0.0565874 -0.336631 1.79446)
(-0.298938 -0.209275 1.22982)
(0.045484 -0.0123438 2.37562)
(0.256992 0.233865 2.69853)
(0.16 0.243654 2.01325)
(-0.0532679 -0.222277 0.897083)
(0.186031 -0.210308 1.17997)
(0.46218 0.0996566 3.76928)
(0.746528 0.0248271 2.77332)
(0.771778 -0.285428 1.5291)
(0.293114 -0.00154984 0.423729)
(0.17719 -0.308128 2.42421)
(0.170266 -0.224106 0.70057)
(0.0615526 -0.25133 0.760077)
(-0.114071 -0.0921722 1.00435)
(0.15472 -0.467298 2.24958)
(0.292018 -0.291159 1.50054)
(-0.114586 -0.0965412 1.76198)
(-0.057151 -0.322431 2.03041)
(-0.0560889 -0.145577 1.8089)
(0.0346308 0.0254156 2.47303)
(0.416944 -0.241463 2.14086)
(0.470081 0.0225276 2.18318)
(-0.186497 -0.0787765 2.49686)
(0.0829406 -0.254719 1.70486)
(-0.250936 -0.14806 1.17513)
(0.167353 0.132591 2.10382)
(0.28589 0.180095 2.68269)
(0.268877 0.188183 2.01912)
(0.0669369 -0.262543 1.12532)
(0.107826 -0.102669 1.21276)
(0.442908 0.0790396 3.59372)
(0.70235 0.0120812 2.91469)
(0.749427 -0.339573 1.68798)
(0.259087 0.0119354 0.628614)
(0.145546 -0.213887 2.43445)
(0.223188 -0.165401 0.879555)
(0.0867633 -0.211112 1.02251)
(-0.0793472 -0.0263833 1.07309)
(0.248648 -0.403638 2.10982)
(0.353323 -0.297447 1.51368)
(-0.104291 -0.0842839 1.82913)
(-0.0249042 -0.254517 1.95093)
(-0.0404525 -0.0753931 1.75307)
(0.0247952 -0.176639 1.82392)
(0.40009 -0.306773 1.99126)
(0.441011 0.0129808 2.16561)
(-0.153218 -0.0945793 2.51653)
(0.105018 -0.234776 1.72818)
(-0.201947 -0.103238 1.05561)
(0.221079 0.165714 1.82707)
(0.286557 0.0884014 2.66879)
(0.346227 0.0887484 2.07067)
(0.119889 -0.281811 1.38565)
(0.0363888 -0.0494985 1.28861)
(0.365858 0.0561093 3.38622)
(0.660871 -0.0286676 2.92897)
(0.719649 -0.348983 1.7863)
(0.2177 0.0129827 0.74271)
(0.0926333 -0.104214 2.42999)
(0.190546 -0.0957051 1.00035)
(0.0812094 -0.15613 1.22364)
(-0.00452878 0.0521915 1.10658)
(0.26769 -0.389165 2.09092)
(0.382498 -0.279753 1.55098)
(-0.064052 -0.104653 1.91218)
(0.0514084 -0.215314 1.94268)
(0.0293919 0.0264679 1.5765)
(0.0193579 0.101814 1.56022)
(0.275438 -0.164159 1.69313)
(0.41195 0.0257199 2.18684)
(-0.0711665 -0.122071 2.53713)
(0.117965 -0.232893 1.81652)
(-0.176352 -0.152175 1.04027)
(0.182068 0.106648 1.59946)
(0.254809 -0.0342611 2.64344)
(0.357411 -0.00735667 2.1597)
(0.169666 -0.255538 1.61313)
(-0.00707892 -0.0842886 1.25215)
(0.288198 0.0165895 3.13242)
(0.609475 -0.0972189 2.83176)
(0.641294 -0.333419 1.85521)
(0.183156 0.0122226 0.804982)
(0.0533824 -0.0952859 2.49426)
(0.103575 -0.0371318 1.10656)
(0.030634 -0.150897 1.42599)
(-0.0151292 0.109691 1.09353)
(0.227631 -0.41875 2.11879)
(0.376557 -0.245579 1.55543)
(-0.027472 -0.140249 2.04272)
(0.0675715 -0.206849 1.98237)
(0.0576902 0.0454391 1.54493)
(0.0649133 0.183637 1.30138)
(0.149402 -0.0392265 1.46297)
(0.386085 0.0411351 2.1978)
(0.0332984 -0.174308 2.60702)
(0.117644 -0.233455 1.89264)
(-0.133882 -0.158519 0.981174)
(0.135337 0.0284592 1.44543)
(0.216257 -0.144636 2.61629)
(0.321702 -0.0421715 2.22466)
(0.235877 -0.189413 1.79736)
(0.0455818 -0.109551 1.24175)
(0.141378 -0.0537492 2.76445)
(0.452067 -0.190746 2.57591)
(0.505925 -0.268312 1.93774)
(0.186433 0.00994141 0.870029)
(-0.0126293 -0.0173559 2.76537)
(0.0559103 -0.0178068 1.18943)
(-0.012158 -0.139553 1.58124)
(-0.00127437 0.1507 1.06394)
(0.166535 -0.438618 2.14376)
(0.351008 -0.164267 1.53715)
(-0.0133299 -0.153838 2.16095)
(0.0697735 -0.170756 1.99467)
(0.0769498 0.0811658 1.60577)
(0.0136266 0.0511034 1.11118)
(0.125604 -0.0653116 1.33386)
(0.366987 0.0342776 2.19366)
(0.10749 -0.200746 2.5922)
(0.103825 -0.230871 1.97095)
(-0.0846258 -0.142542 0.940706)
(0.0443915 -0.0768118 1.37396)
(0.177852 -0.205755 2.56418)
(0.261702 -0.0203559 2.24093)
(0.27515 -0.0960127 1.90077)
(0.0741498 -0.123322 1.33314)
(0.00189471 -0.0361416 2.35257)
(0.268311 -0.176306 2.29877)
(0.33476 -0.186018 2.01306)
(0.233097 0.0168756 0.969433)
(-0.101448 0.159238 2.78669)
(0.133595 -0.0204468 1.23285)
(-0.01563 -0.134717 1.67857)
(0.0699123 0.20298 1.08882)
(0.301115 -0.445055 2.14662)
(0.341702 -0.0375224 1.53175)
(0.00174822 -0.13661 2.25509)
(0.0777682 -0.137295 2.05948)
(0.106327 0.119134 1.77981)
(-0.0307507 -0.0548438 1.05313)
(0.149489 -0.0971884 1.27554)
(0.357187 -0.00291951 2.19489)
(0.144636 -0.195211 2.62376)
(0.0834522 -0.221391 2.03293)
(-0.0579351 -0.123666 0.879204)
(-0.0492293 -0.14674 1.3742)
(0.101729 -0.20546 2.45281)
(0.195938 0.0404279 2.20188)
(0.266932 -0.0518776 1.9497)
(0.0528092 -0.0782462 1.52674)
(-0.0746143 0.0119216 2.06227)
(0.141508 -0.0951568 2.12044)
(0.186445 -0.109731 2.05563)
(0.267106 0.0279621 1.07161)
(-0.0993234 0.172028 2.64601)
(0.341045 -0.0724628 1.2634)
(0.021065 -0.104881 1.74034)
(0.152021 0.21573 1.1627)
(0.59688 0.0063764 1.86441)
(0.334879 0.0583436 1.61282)
(0.000443443 -0.126953 2.37737)
(0.0766371 -0.0880667 2.15192)
(0.118382 0.172591 1.93662)
(-0.0327535 -0.0682363 1.05257)
(0.151748 -0.0580783 1.28491)
(0.307891 -0.0744117 2.22453)
(0.149324 -0.174106 2.6245)
(0.0928609 -0.19705 2.0638)
(-0.000369512 -0.0328742 0.847555)
(-0.114128 -0.17 1.40249)
(0.00179228 -0.156803 2.29295)
(0.138345 0.108004 2.12698)
(0.234146 -0.0235892 1.96396)
(0.000840392 -0.037682 1.65372)
(-0.0822914 0.036673 1.87472)
(0.0612041 -0.0298152 2.056)
(0.106654 -0.0663948 2.07866)
(0.337754 0.0395004 1.14466)
(0.294571 -0.0204569 2.20012)
(0.415029 -0.111795 1.27297)
(0.100196 -0.0374646 1.76832)
(0.226887 0.213612 1.22658)
(0.408477 0.3866 1.4793)
(0.283148 0.067871 1.77963)
(-0.0369472 -0.133948 2.4901)
(0.0537742 -0.0164114 2.19975)
(0.129648 0.229563 2.10999)
(-0.0207476 -0.000194736 1.0871)
(0.12025 -0.00114042 1.36391)
(0.155181 -0.137574 2.27398)
(0.139323 -0.135348 2.59442)
(0.0966398 -0.176298 2.0901)
(0.0361376 0.0292627 1.00663)
(-0.150722 -0.157815 1.43107)
(-0.0568951 -0.0931072 2.12455)
(0.0981533 0.152757 2.04117)
(0.181006 0.0163294 1.96026)
(-0.000737646 0.0102535 1.69987)
(-0.059171 0.0297806 1.76108)
(0.016807 0.00785493 2.05074)
(0.0786473 -0.0436959 2.08374)
(0.413393 0.0388273 1.1964)
(0.338156 -0.206535 1.48226)
(0.283619 -0.101026 1.20844)
(0.168122 -0.0155967 1.7778)
(0.332696 0.260789 1.26598)
(0.253613 0.384224 1.29677)
(0.189101 0.0264258 1.9468)
(-0.0800949 -0.160409 2.59274)
(0.0368665 0.0611663 2.28689)
(0.145637 0.315612 2.25973)
(-0.017259 -0.00980589 1.13341)
(0.0554916 0.00262683 1.49072)
(0.00474584 -0.152622 2.28327)
(0.103238 -0.0605748 2.46491)
(0.093055 -0.171234 2.09736)
(0.0846324 0.0539736 1.12779)
(-0.133424 -0.12814 1.46831)
(-0.0693282 -0.0505832 1.97451)
(0.0895832 0.148025 1.97006)
(0.151837 0.0417725 1.97074)
(0.0183564 0.0234138 1.76979)
(-0.0520445 0.00222598 1.67903)
(0.00888523 0.0234796 2.07071)
(0.0566078 -0.0235502 2.09355)
(0.457756 0.0383201 1.22049)
(0.188208 -0.163505 1.12094)
(0.244586 -0.0768 1.09329)
(0.238191 -0.0241642 1.75648)
(0.448695 0.317166 1.26858)
(0.123403 0.252091 1.29092)
(0.103811 -0.0216568 2.08218)
(-0.103656 -0.196654 2.66395)
(-0.00444375 0.130233 2.38354)
(0.140386 0.402474 2.39114)
(-0.0134766 -0.0298082 1.16157)
(-0.0124507 -0.0172732 1.60486)
(-0.0945275 -0.153135 2.25657)
(0.0545982 -0.00645651 2.32591)
(0.0823921 -0.176157 2.09158)
(0.066157 0.0769666 1.35213)
(-0.0590263 -0.06536 1.5169)
(-0.0496711 -0.0416504 1.85075)
(0.0967957 0.0738058 1.9252)
(0.145977 0.0460579 1.97071)
(0.0195071 0.0260225 1.88747)
(-0.0428226 -0.014095 1.61101)
(0.00886827 0.00858563 2.11682)
(0.00958241 0.00968966 2.11519)
(0.464547 0.0394308 1.21613)
(0.172617 -0.128729 0.900907)
(0.272697 -0.0669024 1.01114)
(0.33504 -0.0691291 1.7189)
(0.559343 0.349886 1.25458)
(-0.0168957 0.130992 1.30611)
(0.0616119 -0.0344331 2.17262)
(-0.109667 -0.226138 2.7079)
(-0.0246275 0.180147 2.4733)
(0.125338 0.455597 2.41689)
(0.00111212 -0.0609864 1.14496)
(-0.0285902 -0.0313231 1.66626)
(-0.133101 -0.134038 2.22031)
(0.0217366 -0.00759604 2.18984)
(0.0513723 -0.193527 2.12234)
(0.0390957 0.122149 1.58023)
(0.0360519 0.0383261 1.53051)
(-0.00389162 -0.0386366 1.7598)
(0.0982373 -0.0336925 1.89587)
(0.129859 0.0305851 1.95466)
(0.00648383 0.0398328 2.00113)
(0.00379084 -0.00862828 1.55572)
(0.0422593 -0.0337658 2.166)
(-0.00877228 0.0344041 2.15854)
(0.441112 0.0518203 1.19811)
(0.11497 -0.0906595 0.77578)
(0.264174 -0.0526963 0.924509)
(0.374842 -0.0957277 1.67103)
(0.64232 0.375284 1.24037)
(-0.0363773 0.0415431 1.33832)
(0.0623397 -0.0287499 2.22729)
(-0.0914116 -0.238217 2.7351)
(0.0113591 0.203447 2.59293)
(0.140881 0.475332 2.48147)
(0.0105607 -0.0320268 1.09386)
(-0.0170381 -0.0415948 1.6676)
(-0.132173 -0.0794868 2.18628)
(-0.00147242 -0.0414975 2.0807)
(-0.0123522 -0.200621 2.14602)
(0.018094 0.145476 1.82495)
(0.0862385 0.120962 1.52483)
(0.0505667 -0.0197924 1.70538)
(0.0916952 -0.115481 1.87333)
(0.103964 2.62716e-05 1.93067)
(-0.00815123 0.0668955 2.0944)
(0.0574367 -0.00527346 1.5151)
(0.121831 -0.0427789 2.16898)
(-0.00839238 0.0338412 2.2023)
(0.443173 0.0538689 1.15779)
(0.073289 -0.0763486 0.696521)
(0.25499 -0.113588 0.821045)
(0.357802 -0.103743 1.55584)
(0.670182 0.3796 1.2568)
(0.0169193 0.0198621 1.30104)
(0.0976778 -0.024003 2.24472)
(-0.0411646 -0.243983 2.75379)
(0.0616457 0.148878 2.72448)
(0.160894 0.452808 2.57476)
(0.000580839 0.0700559 1.0513)
(-0.00117943 -0.0240753 1.69104)
(-0.0964749 -0.0305188 2.16644)
(-0.0107317 -0.0738301 2.0256)
(-0.0627792 -0.193878 2.1597)
(0.0109023 0.156872 2.01326)
(0.0798447 0.144329 1.52517)
(0.0980696 0.0120445 1.69114)
(0.0810752 -0.163896 1.85881)
(0.0942482 -0.0114491 1.929)
(-0.0102758 0.0675084 2.18325)
(0.0874799 -0.0037187 1.49944)
(0.137656 -0.094286 2.08913)
(0.0104784 0.0354436 2.24844)
(0.414958 0.0400057 1.13054)
(0.0576368 -0.0717536 0.665724)
(0.259694 -0.144854 0.732418)
(0.385183 -0.049745 1.41661)
(0.609406 0.258102 1.41968)
(-0.188901 0.0194822 1.15517)
(0.150237 0.00586555 2.2178)
(0.028296 -0.262319 2.76568)
(0.0883398 0.023042 2.84273)
(0.164761 0.367974 2.71336)
(0.00567532 0.123378 1.03384)
(-0.015236 0.0342367 1.7122)
(-0.0188896 0.0171779 2.15231)
(-0.00852979 -0.0852507 2.01291)
(-0.0906709 -0.187155 2.15563)
(-0.00409309 0.147289 2.10894)
(0.0381749 0.118311 1.5319)
(0.132094 0.0493937 1.70909)
(0.0655597 -0.180268 1.86154)
(0.0861432 -0.0199231 1.97039)
(-0.0290758 0.0541223 2.2678)
(0.0964479 0.00293143 1.514)
(0.124859 -0.162675 1.88811)
(0.0513248 0.0211409 2.28922)
(0.292439 0.0162543 1.01803)
(0.0629305 -0.0679433 0.648494)
(0.197333 -0.0788345 0.70118)
(0.376158 -0.00697427 1.41435)
(0.45716 0.0708932 1.70261)
(-0.125606 -0.0490611 0.984834)
(0.223862 0.0301827 2.09805)
(0.101603 -0.29273 2.76746)
(0.0888252 -0.0866347 2.94212)
(0.156856 0.302193 2.88248)
(-0.00315567 0.132599 1.07889)
(-0.015234 0.0704633 1.69401)
(0.0777919 0.0807938 2.13367)
(-0.00506101 -0.0829846 2.01845)
(-0.0930944 -0.179505 2.13329)
(-0.0208099 0.123605 2.11016)
(-0.00720725 0.0960006 1.53122)
(0.156678 0.0813577 1.74358)
(0.0447673 -0.169705 1.87126)
(0.0562605 -0.0241889 2.04637)
(-0.0460633 0.0465873 2.30403)
(0.0973698 0.0315466 1.55454)
(0.129974 -0.117366 1.70789)
(0.112377 -0.0122222 2.32709)
(0.177224 0.0109393 0.964671)
(0.0589726 -0.0595861 0.617016)
(0.0707996 0.0137111 0.701466)
(0.157729 0.0213976 1.54027)
(0.296708 -0.107729 1.95153)
(0.0891869 -0.109455 0.849639)
(0.29058 0.0429712 1.93571)
(0.167549 -0.289287 2.75409)
(0.0922636 -0.0965065 3.0201)
(0.116962 0.235882 3.08841)
(-0.0318595 0.0876052 1.159)
(-0.0512921 0.107618 1.71145)
(0.159938 0.136384 2.10842)
(0.012826 -0.0793243 2.03422)
(-0.0738234 -0.143437 2.08694)
(-0.00842885 0.0999727 2.06214)
(-0.0172731 0.0821305 1.50992)
(0.172708 0.106876 1.78897)
(0.00582841 -0.124003 1.88831)
(0.0105828 -0.00946165 2.12952)
(-0.0437655 0.0456027 2.30505)
(0.073743 0.0608013 1.58512)
(0.126837 -0.057525 1.60456)
(0.149816 -0.0443349 2.36168)
(-0.05347 -0.0172946 1.02108)
(0.0487154 -0.0559994 0.594843)
(-0.0188875 0.0551943 0.748973)
(-0.195671 0.117601 1.55416)
(0.111584 -0.0331526 2.03933)
(0.210259 -0.150886 0.76917)
(0.29399 0.112655 1.84907)
(0.195959 -0.226276 2.72797)
(0.105699 -0.0218127 3.08123)
(0.0598888 0.15594 3.27654)
(-0.0443091 -0.00431898 1.25184)
(-0.113659 0.059745 1.65825)
(0.207753 0.148107 2.07145)
(0.0561465 -0.0869104 2.0585)
(-0.0641081 -0.099779 2.05974)
(0.0213794 0.0967485 2.04463)
(-0.0283523 0.0661009 1.48637)
(0.169946 0.116418 1.82988)
(-0.0331364 -0.0835737 1.9088)
(-0.025246 0.0193567 2.19934)
(-0.0229011 0.0404453 2.29071)
(0.0421935 0.0840759 1.60077)
(0.123827 -0.0306449 1.55658)
(0.170439 -0.0596052 2.38496)
(-0.220463 -0.0275671 1.13216)
(0.0557886 -0.0669034 0.570727)
(0.0344921 0.0399556 0.828789)
(-0.434363 0.253834 1.47031)
(0.196337 0.164813 1.87883)
(0.252361 -0.177076 0.724493)
(0.234213 0.212348 1.85762)
(0.183704 -0.144016 2.7106)
(0.0812544 0.0201101 3.16389)
(0.00118954 0.140658 3.37368)
(-0.028657 -0.0547198 1.27703)
(-0.0282733 -0.00543878 1.46861)
(0.222142 0.115937 2.04073)
(0.0927724 -0.0869387 2.1042)
(-0.0888676 -0.0663689 2.06228)
(0.0318769 0.128662 2.09351)
(-0.0212223 0.0454706 1.48112)
(0.136305 0.110156 1.85033)
(-0.0743854 -0.0631392 1.92222)
(-0.0564413 0.0291799 2.2326)
(-0.00374681 0.024947 2.27856)
(0.0108597 0.100239 1.60478)
(0.123774 -0.0223577 1.53711)
(0.156756 -0.0585174 2.41674)
(-0.200376 -0.00141417 1.10659)
(0.0652744 -0.0786809 0.542248)
(0.204194 0.0142178 0.924609)
(-0.363751 0.280075 1.26969)
(0.17431 0.240418 1.64127)
(0.24945 -0.191014 0.685706)
(0.113448 0.236807 1.93511)
(0.129803 -0.076008 2.75234)
(-0.00220487 0.0148942 3.27455)
(-0.0176214 0.251499 3.35341)
(-0.0226643 -0.0692719 1.23081)
(0.0270731 -0.0182431 1.30454)
(0.202921 0.0662269 2.03676)
(0.0920428 -0.0513418 2.17287)
(-0.149995 -0.00620298 2.10228)
(0.00549121 0.218375 2.19047)
(-0.00280717 -0.0107856 1.46618)
(0.0541499 0.0940838 1.86189)
(-0.122288 -0.0398607 1.92441)
(-0.0722397 0.0164968 2.23169)
(-0.00161992 0.00778568 2.26135)
(-0.0226029 0.1019 1.59782)
(0.124126 -0.0241465 1.52398)
(0.117431 -0.0564222 2.42632)
(0.0364816 0.0151013 0.810724)
(0.0527683 -0.0660545 0.514843)
(0.332126 -0.0131615 0.967987)
(-0.338025 0.301986 1.1299)
(-0.193767 0.207677 1.47482)
(0.226025 -0.167155 0.642062)
(-0.0150106 0.153084 2.03558)
(-0.0129043 0.044171 2.86466)
(-0.0862203 0.0718822 3.33844)
(-0.0578323 0.212398 3.16074)
(-0.0249472 -0.118318 1.1908)
(0.00157746 -0.0145999 1.22956)
(0.148674 0.0492712 2.03522)
(0.025456 0.041 2.28779)
(-0.203237 0.0969125 2.18339)
(-0.0305567 0.290078 2.25873)
(-0.0305237 -0.0730693 1.44887)
(-0.032847 0.0647254 1.8582)
(-0.173467 -0.00541049 1.93162)
(-0.106639 -0.0115357 2.19342)
(0.00347511 -0.00700314 2.26663)
(-0.0555105 0.0830096 1.58479)
(0.108175 -0.025271 1.51238)
(0.0787997 -0.0382496 2.45804)
(0.242355 0.00656553 0.618005)
(0.01486 -0.0261342 0.493843)
(0.363762 -0.140767 0.976198)
(-0.35746 0.292077 1.10481)
(-0.337458 0.15887 1.26769)
(0.19738 -0.103848 0.611015)
(-0.104717 0.111321 2.12352)
(-0.183203 0.122818 2.97326)
(-0.155415 0.250531 3.32608)
(-0.0123646 0.15717 2.87681)
(-0.0206365 -0.200716 1.18333)
(-0.0418337 0.00195133 1.22336)
(0.0702204 0.0962727 2.04505)
(-0.0766388 0.145033 2.41844)
(-0.217447 0.187187 2.26707)
(-0.0247047 0.319778 2.27228)
(-0.0847147 -0.121846 1.45265)
(-0.102162 0.028739 1.85894)
(-0.216451 0.0100166 1.95317)
(-0.141741 0.0249583 2.1419)
(-0.00245197 -0.0165882 2.29248)
(-0.0756893 0.0641971 1.56637)
(0.00247877 -0.00934657 1.53075)
(-0.0444338 -0.00490712 2.47816)
(0.391269 0.0142279 0.490839)
(-0.03092 0.0137234 0.489781)
(0.175284 -0.383179 0.920722)
(-0.265472 0.115155 1.22587)
(-0.129946 0.167177 0.98514)
(0.180103 -0.0339876 0.619204)
(-0.129063 0.156071 2.15109)
(-0.262042 0.106648 3.05538)
(-0.228565 0.388807 3.2638)
(0.152777 0.518791 2.86834)
(-0.0236381 -0.228303 1.21947)
(-0.0739712 0.00442655 1.28)
(-0.00795477 0.210991 2.08457)
(-0.157708 0.193974 2.53087)
(-0.222072 0.195143 2.32843)
(0.0253513 0.397272 2.32293)
(-0.128294 -0.141871 1.46808)
(-0.146014 0.0213811 1.88595)
(-0.240428 -0.0180059 1.98998)
(-0.16397 0.0648718 2.10687)
(-0.0194457 -0.0113565 2.27725)
(-0.0815685 0.0593023 1.5577)
(-0.114741 0.000650746 1.55267)
(-0.0949328 0.0264793 2.46842)
(0.473975 0.0118511 0.534729)
(-0.0531703 0.0266468 0.525019)
(-0.0328113 -0.475297 0.820704)
(0.0991444 -0.299572 1.37602)
(0.123837 0.214918 0.838263)
(0.188594 -0.0380883 0.662387)
(-0.105074 0.2976 2.07227)
(-0.237817 0.078282 3.10407)
(-0.257043 0.387492 3.20166)
(0.131894 0.727596 2.82822)
(-0.0329503 -0.211838 1.28383)
(-0.0872938 -0.0290126 1.3698)
(-0.0582891 0.348435 2.14585)
(-0.196621 0.205659 2.63076)
(-0.224117 0.146106 2.37271)
(0.0508357 0.487243 2.493)
(-0.154946 -0.144671 1.49308)
(-0.159928 0.0541857 1.94499)
(-0.251277 -0.0501968 2.05238)
(-0.167057 0.055974 2.09193)
(-0.0528264 0.0487196 2.23271)
(-0.0752378 0.0690201 1.56987)
(-0.149768 -0.00387764 1.55596)
(-0.0640099 0.0177264 2.45721)
(0.470808 0.0097738 0.740364)
(-0.0144738 -0.0102895 0.57271)
(-0.0468918 -0.312741 0.796635)
(0.474449 -0.441343 1.30533)
(0.353237 0.22726 0.857851)
(0.230188 -0.152264 0.731239)
(-9.45649e-05 0.353894 1.7857)
(-0.203078 0.10933 3.1418)
(-0.239554 0.298067 3.07953)
(0.137446 0.599812 2.58047)
(-0.0489099 -0.23216 1.34264)
(-0.0647149 -0.0898286 1.44617)
(-0.0816705 0.433945 2.2294)
(-0.204601 0.244418 2.72893)
(-0.206603 0.103939 2.40857)
(0.0415245 0.471603 2.62188)
(-0.16853 -0.148188 1.52244)
(-0.151798 0.103296 2.03811)
(-0.239483 -0.0273173 2.13768)
(-0.149362 -0.0641015 2.1127)
(-0.0558884 0.0920289 2.26462)
(-0.0385921 0.104842 1.60626)
(-0.0403497 -0.00906623 1.59198)
(0.00318416 -0.082545 2.15649)
(0.412221 0.0156103 0.897051)
(0.0205275 -0.0466723 0.635478)
(0.0869868 -0.200537 0.816367)
(0.516163 -0.337829 1.2521)
(0.441553 0.211802 0.986817)
(0.264797 -0.295773 0.776912)
(0.101514 0.200786 1.54196)
(-0.159285 0.231577 3.14741)
(-0.172306 0.252805 2.94128)
(0.175499 0.450295 2.36192)
(-0.0420186 -0.257911 1.3595)
(-0.0326059 -0.164788 1.49061)
(-0.10712 0.438824 2.30963)
(-0.193999 0.307847 2.80079)
(-0.161499 0.0833862 2.45617)
(0.0244129 0.402834 2.69391)
(-0.167822 -0.161852 1.54378)
(-0.132409 0.135566 2.11959)
(-0.199373 0.0431736 2.23117)
(-0.146974 -0.0907593 2.18692)
(-0.0703261 0.124824 2.34936)
(-0.00802104 0.130967 1.6421)
(0.103246 -0.00674309 1.62119)
(0.161552 -0.106042 1.77541)
(0.394586 0.0261149 0.950267)
(0.0199981 -0.0551747 0.699608)
(0.205028 -0.189799 0.835023)
(0.38457 -0.119786 1.25734)
(0.421276 0.247715 1.12401)
(0.27708 -0.386519 0.772626)
(0.146996 0.00918531 1.40514)
(-0.0782568 0.343277 3.05449)
(-0.0843617 0.256025 2.86469)
(0.203245 0.416209 2.35267)
(-0.00716141 -0.273448 1.29513)
(-0.0295028 -0.208282 1.47969)
(-0.132985 0.400688 2.34052)
(-0.174257 0.353849 2.83853)
(-0.10705 0.0687439 2.50924)
(0.00600528 0.331158 2.72927)
(-0.156988 -0.168062 1.55275)
(-0.0992327 0.153549 2.16759)
(-0.145858 0.112841 2.334)
(-0.133941 -0.0398091 2.2571)
(-0.0768049 0.141461 2.43095)
(0.00763996 0.145896 1.67181)
(0.167029 0.0040068 1.64428)
(0.224784 -0.0972078 1.69007)
(0.417433 0.0360089 0.955231)
(-0.013583 -0.0362818 0.747371)
(0.257031 -0.205397 0.836081)
(0.305258 0.0393334 1.24653)
(0.37062 0.290834 1.19821)
(0.268638 -0.394123 0.743471)
(0.15833 -0.138225 1.33302)
(-0.00138772 0.344622 2.9242)
(-0.0100991 0.23126 2.84644)
(0.207172 0.36981 2.48441)
(-0.0185256 -0.363246 0.96003)
(0.0275651 -0.194397 1.4243)
(-0.126127 0.334036 2.33315)
(-0.153956 0.361086 2.87191)
(-0.0754155 0.0515169 2.55738)
(-0.000999084 0.264259 2.7379)
(-0.13844 -0.146188 1.54714)
(-0.0558713 0.153093 2.18957)
(-0.0980981 0.155761 2.4429)
(-0.0996118 0.0258137 2.33996)
(-0.0846314 0.153174 2.49718)
(0.00083084 0.143097 1.70074)
(0.185926 0.0153569 1.69294)
(0.229067 -0.0858411 1.72678)
(0.442419 0.035673 0.958639)
(-0.0561706 -0.00715767 0.765278)
(0.265921 -0.222968 0.829054)
(0.255593 0.0850949 1.24737)
(0.30363 0.30225 1.21716)
(0.225647 -0.34099 0.727197)
(0.15303 -0.237509 1.31293)
(0.0285447 0.282894 2.80642)
(0.0205675 0.160157 2.85898)
(0.177571 0.281662 2.63715)
(-0.0405327 -0.338584 0.765161)
(0.166298 -0.229123 1.29857)
(-0.0929304 0.231252 2.30299)
(-0.125146 0.338626 2.91272)
(-0.0718863 0.0324731 2.59306)
(-0.0357638 0.204516 2.69343)
(-0.110086 -0.124232 1.52408)
(-0.0208829 0.119137 2.18269)
(-0.0557722 0.175509 2.53881)
(-0.0631202 0.0752628 2.42646)
(-0.0941683 0.151858 2.54421)
(-0.0198665 0.123098 1.72244)
(0.168077 0.0342008 1.77676)
(0.187772 -0.0607073 1.82871)
(0.457158 0.0360722 0.97989)
(-0.0901367 0.0204847 0.763116)
(0.258854 -0.24238 0.831703)
(0.216622 0.0957944 1.28253)
(0.22838 0.298234 1.21706)
(0.167518 -0.302012 0.710875)
(0.14185 -0.3074 1.3261)
(0.0148446 0.202323 2.72659)
(-0.00416606 0.0698217 2.88651)
(0.130505 0.177421 2.78126)
(-0.0330516 -0.264324 0.681344)
(0.114616 -0.297435 1.12939)
(-0.0605938 0.121542 2.23297)
(-0.0911927 0.309507 2.94101)
(-0.0764689 0.0174141 2.61513)
(-0.103285 0.175802 2.57034)
(-0.101565 -0.147947 1.51521)
(-0.00849637 0.0809683 2.15284)
(-0.0220356 0.185704 2.61865)
(-0.0371693 0.0950927 2.4982)
(-0.0917473 0.138178 2.57796)
(-0.0341043 0.101005 1.73048)
(0.109213 0.0638592 1.8993)
(0.137734 -0.0324801 1.94093)
(0.470746 0.0328742 1.0001)
(-0.105435 0.0374773 0.757967)
(0.250257 -0.256274 0.860842)
(0.191197 0.0970804 1.34143)
(0.114981 0.279642 1.19991)
(0.13297 -0.292362 0.688104)
(0.124869 -0.357923 1.3665)
(-0.011904 0.134429 2.67951)
(-0.0587972 0.0136043 2.92555)
(0.0387205 0.0075511 2.88236)
(-0.0363046 -0.223758 0.659341)
(0.0436104 -0.370437 0.946927)
(-0.0439086 0.00537558 2.12782)
(-0.0512941 0.293913 2.95583)
(-0.0747454 0.0120543 2.62219)
(-0.10069 0.183096 2.43299)
(-0.0255955 -0.165795 1.50541)
(-0.0300239 0.0684009 2.10345)
(0.00116209 0.173234 2.67348)
(-0.021767 0.0943972 2.55191)
(-0.0851082 0.128792 2.59674)
(-0.049699 0.0825383 1.73808)
(0.0321157 0.0996264 2.03748)
(0.0901038 -0.00353434 2.05312)
(0.470809 0.0251206 1.03704)
(-0.103562 0.0425928 0.760916)
(0.235304 -0.255176 0.926321)
(0.186809 0.0913106 1.40556)
(-0.0373033 0.250078 1.22662)
(0.115929 -0.293635 0.663325)
(0.0994918 -0.391085 1.43949)
(-0.0393895 0.0990595 2.67368)
(-0.09664 0.0177129 2.95217)