/*--------------------------------*- C++ -*----------------------------------*\
| =========                 |                                                 |
| \\      /  F ield         | OpenFOAM: The Open Source CFD Toolbox           |
|  \\    /   O peration     | Version:  5.x                                   |
|   \\  /    A nd           | Web:      www.OpenFOAM.org                      |
|    \\/     M anipulation  |                                                 |
\*---------------------------------------------------------------------------*/
FoamFile
{
    version     2.0;
    format      ascii;
    class       volVectorField;
    location    "7.9";
    object      Us;
}
// * * * * * * * * * * * * * * * * * * * * * * * * * * * * * * * * * * * * * //

dimensions      [0 1 -1 0 0 0 0];

internalField   nonuniform List<vector> 
10571
(
(0.0552724 0.0118668 -0.0206322)
(0.097046 -0.0721122 -0.0262677)
(0.190865 -0.0182311 0.163261)
(0.0271752 -0.0484992 0.102588)
(-0.0733026 0.00251192 0.0397642)
(0.0567685 0.00121476 0.0204018)
(-0.0496474 -0.233699 -0.031211)
(0.159883 -0.26161 -0.0414862)
(0.167944 -0.116905 0.0388182)
(-0.0442643 -0.0290009 -0.0159402)
(0.00818182 -0.0625913 0.0844571)
(-0.120457 -0.174032 0.14481)
(-0.036034 -0.171388 -0.0466891)
(0.240979 -0.132812 -0.0489507)
(0.118923 -0.23341 0.104971)
(0.00234271 -0.10452 0.0455469)
(-0.124209 -0.132488 -0.0167578)
(0.0407151 -0.126744 -0.0691758)
(0.169515 -0.120578 0.0876695)
(-0.0438015 -0.17721 0.0523834)
(0.0144356 -0.0873561 -0.0991148)
(0.0762121 -0.0165689 -0.118924)
(0.23038 0.0161678 -0.00497486)
(0.0887271 -0.0754405 -0.0985035)
(0.152136 -0.0218825 0.0518746)
(0.00920624 0.0228084 -0.15329)
(0.0735478 -0.1837 0.197922)
(-0.0187321 -0.00590216 0.165816)
(0.0312792 -0.00845767 0.0446396)
(0.0556989 -0.0335151 -0.0396432)
(0.0202888 -0.110312 0.0461748)
(0.0646786 -0.154934 0.0989939)
(0.125984 -0.122417 0.190546)
(-0.0912178 -0.210339 0.0177998)
(-0.073719 -0.0202798 0.171963)
(-0.104782 -0.176938 0.156246)
(0.0533729 -0.0914746 -0.0682295)
(0.122559 -0.0864346 0.0642342)
(0.177291 -0.0537749 0.209905)
(-0.00326967 -0.047881 0.105173)
(-0.0147376 -0.0317758 -0.0294099)
(-0.00320596 -0.0868332 -0.105946)
(0.139178 -0.129381 0.115663)
(0.237066 -0.215771 0.110216)
(0.0272828 -0.0170312 -0.109375)
(-0.0142162 -0.0421346 -0.215129)
(0.159122 -0.0393677 0.0863048)
(0.162558 -0.110675 -0.109741)
(0.139 -0.00260092 0.0539641)
(-0.0574062 0.108413 -0.067009)
(0.0478111 -0.200103 0.283429)
(0.058758 -0.133016 0.216561)
(0.0888939 -0.0382651 0.148128)
(0.138791 -0.114072 -0.0460952)
(0.0323129 -0.0594298 0.146524)
(-0.0143 -0.12979 0.111437)
(0.138063 -0.146908 0.308907)
(-0.0771629 -0.203953 0.142168)
(0 0 0)
(0.196419 -0.0577038 0.149775)
(0.140269 -0.00717847 0.000692751)
(0.0587861 -0.0792133 0.118586)
(0.157197 -0.0472511 0.354638)
(0.0150691 -0.0298691 0.155283)
(0.179706 0.124959 0.0600897)
(0.140548 0.127661 -0.0191899)
(0.074963 -0.128398 0.239698)
(0.196574 -0.188117 0.237308)
(0.033614 -0.0123594 0.0386356)
(0.153754 0.212481 -0.163159)
(-0.0452431 -0.0710295 0.122217)
(0.105283 -0.0679729 -0.0123085)
(0.0776676 -0.00327285 0.0879822)
(-0.115688 0.113238 -0.0422574)
(0.0126047 -0.11791 0.401625)
(0.0871617 -0.0854883 0.182586)
(0.0993027 0.0182823 0.214696)
(0.0251851 -0.194485 0.0905044)
(0.0820224 0.00423321 0.294992)
(-0.0156361 -0.0154262 0.213696)
(0.104498 -0.163858 0.397622)
(-0.045344 -0.147749 0.171791)
(-0.0025024 0.00734298 -0.0538553)
(0.160228 -0.0255819 0.151689)
(0.231661 0.0576673 0.129845)
(0.0362635 -0.0707214 0.164838)
(0.113981 -0.0844544 0.461415)
(0.0149577 -0.0704145 0.122876)
(0.152365 0.16896 -0.0206214)
(0.123018 0.136337 0.0213221)
(-0.0136281 -0.0637682 0.141056)
(0.146002 -0.153309 0.361537)
(0.0509131 -0.0774228 0.243566)
(-0.0183966 0.14527 -0.425604)
(-0.0685172 0.0113968 -0.0455741)
(-0.0100242 -0.00198055 -0.0208025)
(0.0543536 0.00492629 0.0859329)
(-0.12977 0.00228283 -0.00897114)
(0.00790135 -0.0177188 0.231392)
(0.0856169 0.000617295 0.182092)
(0.0834963 0.0467832 0.272782)
(-0.115632 0.0098646 -0.0383431)
(0.290281 -0.0455886 0.467996)
(0.181734 0.0579809 0.29652)
(0.0589569 -0.192153 0.407496)
(0.0446082 -0.0987776 0.194723)
(0.025462 0.0616866 -0.582596)
(-0.0535853 0.133522 -0.0738603)
(0.265425 0.124808 0.164518)
(0.121473 0.0448652 0.214455)
(0.0864949 -0.132051 0.403903)
(0.0365498 -0.103861 0.0657341)
(0.00700723 0.121842 -0.595779)
(0.0551474 0.158884 -0.430784)
(-0.0126022 -0.0147815 0.0750691)
(0.145689 -0.0803032 0.355681)
(0.0728744 -0.13684 0.420412)
(0.0857015 0.116077 -0.55559)
(-0.0259862 0.1521 -0.195224)
(-0.0338335 0.0565435 -0.0221881)
(0.0387245 0.00558487 0.0365231)
(-0.0819521 -0.0427001 -0.319366)
(0.00391874 -0.0285452 0.124561)
(0.106914 0.0311116 0.176834)
(0.0504773 0.0663544 0.326635)
(-0.0834621 0.0144208 -0.273839)
(0.201636 0.0300731 0.251458)
(0.257059 0.0580931 0.282824)
(0.0216862 -0.204719 0.368497)
(0.111259 -0.1789 0.298358)
(-0.015615 0.00772843 -0.00606048)
(-0.0334792 0.0649769 -0.645635)
(-0.0777858 0.125136 -0.0984436)
(0.182997 0.159994 0.111639)
(0.157519 0.0993566 -0.0318789)
(0.0439156 -0.137213 0.345516)
(0.0449169 -0.121846 0.150832)
(-0.0124698 -0.00558003 -0.00683155)
(0.00324952 0.118811 -0.582401)
(0.0819229 0.13898 -0.450398)
(-0.00976819 0.0620626 -0.26124)
(0.0041459 -0.0069463 0.26184)
(0.0877827 -0.138277 0.412484)
(-5.48484e-14 -3.42562e-14 1.97424e-13)
(0.117152 0.144074 -0.545576)
(-0.194277 -0.00193074 -0.195272)
(0.0474616 -0.0339834 -0.368869)
(-0.0354569 -0.039899 -0.570823)
(0.0193057 -0.0187205 -0.392037)
(0.0882214 0.115294 0.0220285)
(0.0188552 0.11026 0.25223)
(0.00518268 -0.0325786 -0.583915)
(0.078277 0.0444771 -0.332554)
(0.104583 0.139289 -0.169575)
(0.0695474 0.148542 -0.015855)
(0.0878167 0.203164 0.35801)
(0 0 0)
(0 0 0)
(0.0149839 0.0464523 -0.538709)
(0.0879814 0.10285 -0.38924)
(0.116641 0.0969228 -0.295056)
(-0.00240344 -0.0226353 -0.168107)
(0.0611528 -0.322605 0.375785)
(-0.0425845 0.0464254 -0.19194)
(0.0180421 0.106228 -0.543368)
(0.0765246 0.165928 -0.452971)
(0.105769 0.135868 -0.410453)
(-0.120864 -0.0470778 -0.282491)
(0.102628 -0.0893004 0.445177)
(0.119979 -0.244862 -0.193287)
(0 0 0)
(0 0 0)
(0.0481137 0.0594384 -0.423498)
(0.0679015 0.0774275 -0.32492)
(0 0 0)
(-0.0113425 -0.0399552 -0.407162)
(0.0596532 0.0215499 -0.249878)
(-0.0208832 0.0452417 0.0490011)
(-6.34544e-17 1.34654e-14 1.76448e-13)
(0.0556592 0.0339054 -0.35547)
(0.0579276 0.109295 -0.125181)
(0.0360119 0.198972 0.160047)
(0.106662 0.121759 0.236798)
(0 0 0)
(0 0 0)
(-1.10932e-14 -1.40826e-14 1.82981e-13)
(0.0756968 0.0951023 -0.335134)
(0.119931 0.0943086 -0.277724)
(0.0398535 0.059768 -0.322305)
(-0.0477889 0.00901528 -0.376105)
(0.120596 0.209376 -0.306513)
(-1.0648e-14 -4.72245e-14 1.93272e-13)
(0.10014 0.189314 -0.421467)
(0.0742235 0.113807 -0.353905)
(0.0606545 0.113721 -0.400168)
(0.0182015 0.0439692 -0.313627)
(0.10659 0.174719 -0.422142)
(0.0916376 0.179298 -0.511722)
(0 0 0)
(-0.0977211 0.0557548 -0.392529)
(-2.39834e-14 4.18732e-14 1.13713e-13)
(-0.112617 0.00423464 -0.222266)
(-0.0317447 -0.0241109 -0.33204)
(0.053943 -0.0145743 -0.241161)
(-0.0173549 0.01732 0.00547749)
(0 0 0)
(0.0414836 0.049167 -0.309459)
(0.0819812 0.0679838 -0.136684)
(0.0795262 0.178118 0.158766)
(0.108882 0.178406 0.37821)
(0.18074 0.160909 -0.158953)
(0 0 0)
(0.0305602 0.040674 -0.426011)
(0.0589754 0.108182 -0.309086)
(0.0999143 0.0992799 -0.231337)
(0.0817292 0.0871609 -0.26541)
(-0.0676508 0.130872 -0.281205)
(0.101537 0.274558 -0.250052)
(0.0378146 0.103066 -0.47973)
(0.0805841 0.363216 -0.150897)
(0.00356752 0.0859331 -0.287592)
(-0.181185 -0.00424419 -0.316596)
(-0.0399425 0.0829342 -0.277991)
(0 0 0)
(0 0 0)
(0 0 0)
(0 0 0)
(0 0 0)
(-0.0580047 0.0234782 -0.20473)
(0.0683622 0.00272428 -0.143066)
(-0.0100155 0.08481 -0.121256)
(0 0 0)
(0.0318344 0.0557044 -0.238585)
(0.072765 0.0732581 -0.047378)
(0.0589911 0.171422 0.239565)
(0.0686197 0.159941 0.40568)
(0 0 0)
(0 0 0)
(0.043702 0.160385 -0.152152)
(0.0967999 0.111437 -0.15432)
(0.0279062 0.0865809 -0.223335)
(-0.0281329 0.204189 -0.180511)
(0 0 0)
(0 0 0)
(0.0934144 0.194671 -0.34486)
(0.111348 0.135772 -0.342661)
(-0.0828248 0.0723988 -0.248998)
(0 0 0)
(0 0 0)
(0 0 0)
(0 0 0)
(0 0 0)
(-0.00466942 -0.0276642 -0.152158)
(0.0154915 -0.0444655 -0.120618)
(0.110622 -0.0146909 -0.0838272)
(0 0 0)
(0.00386319 0.0865 -0.13686)
(0.0605071 0.0747271 0.0462218)
(0.0806691 0.132243 0.174885)
(0.0919768 0.196763 0.350377)
(0 0 0)
(0 0 0)
(0.0181077 0.129996 -0.186336)
(0.0792532 0.123567 -0.0920074)
(-0.0401865 0.0867657 -0.177008)
(-0.0136419 0.165405 -0.105107)
(0 0 0)
(0.0852501 0.255762 -0.00236262)
(0.0923305 0.18629 -0.255895)
(-0.237522 -0.0859062 -0.226977)
(-0.0697497 0.0581455 -0.197561)
(0 0 0)
(0 0 0)
(-0.140154 -0.174587 -0.18856)
(0 0 0)
(0 0 0)
(0 0 0)
(0.0864171 -0.0512359 -0.291499)
(0.0842355 -0.00346433 -0.0908183)
(0 0 0)
(0.0053764 0.0964204 -0.150204)
(0.0245018 0.0993651 0.134445)
(0.0686837 0.150172 0.241654)
(0.0451177 0.149891 0.271822)
(0 0 0)
(0 0 0)
(-0.0371576 0.0621301 -0.216086)
(0.0807596 0.137365 -0.0322511)
(-0.0621598 0.121264 -0.134827)
(-0.0194168 0.191674 -0.0431321)
(0 0 0)
(0 0 0)
(0.0195269 0.20802 -0.0954193)
(0 0 0)
(0.100975 0.133653 -0.189682)
(0 0 0)
(0 0 0)
(0 0 0)
(0 0 0)
(0 0 0)
(0 0 0)
(0 0 0)
(0 0 0)
(0 0 0)
(0.0473671 0.0549791 -0.1783)
(0.0375247 0.0890763 0.152273)
(0.0486741 0.140656 0.284872)
(0.0352927 0.150445 0.274012)
(0 0 0)
(0 0 0)
(0 0 0)
(0.0474438 0.163139 0.0608171)
(-0.0377354 0.173717 -0.00168217)
(-0.00704871 0.136036 -0.018011)
(0 0 0)
(0 0 0)
(0.0932882 0.180597 -0.094567)
(0 0 0)
(-0.131193 0.0268441 -0.139834)
(0 0 0)
(0 0 0)
(0 0 0)
(0 0 0)
(0 0 0)
(0 0 0)
(0 0 0)
(0.0493205 -0.000260489 0.13914)
(0 0 0)
(-0.0377372 0.139413 0.0403251)
(-0.00228895 0.084243 0.21364)
(0.0468887 0.0960555 0.32529)
(0.0657581 0.128968 0.369779)
(0 0 0)
(0 0 0)
(0 0 0)
(0.0543874 0.138253 -0.0765294)
(0.00801874 0.136823 0.0343479)
(-0.030602 0.0724301 -0.10325)
(0 0 0)
(0 0 0)
(0.0958702 0.18803 -0.137888)
(0 0 0)
(-0.0952218 0.0183476 -0.180526)
(0 0 0)
(0 0 0)
(0 0 0)
(0 0 0)
(0 0 0)
(0 0 0)
(0 0 0)
(0.0447926 0.0355219 0.0152708)
(0 0 0)
(0.0499454 0.0821229 -0.0540479)
(0.00705665 0.0936222 0.213972)
(0.0342173 0.109911 0.343437)
(0.0403643 0.119191 0.203424)
(0 0 0)
(0 0 0)
(0 0 0)
(0.0345354 0.136543 0.0952086)
(-0.0020948 0.149153 0.0405351)
(-0.05557 0.0889188 -0.0633176)
(0 0 0)
(0 0 0)
(0.0701013 0.158941 -0.0769589)
(-0.0327671 0.322406 0.370078)
(0.131519 0.17486 -0.0820737)
(0 0 0)
(0 0 0)
(0 0 0)
(0 0 0)
(0 0 0)
(0 0 0)
(0 0 0)
(0 0 0)
(0 0 0)
(0 0 0)
(0.012576 0.0871244 0.217768)
(0.0415987 0.121625 0.342115)
(0.0988225 0.110471 0.302371)
(0 0 0)
(0 0 0)
(0 0 0)
(0.0599284 0.126435 0.0603652)
(0.0694896 0.140736 0.105296)
(-0.0218022 0.0893924 -0.0313209)
(0 0 0)
(0 0 0)
(0 0 0)
(0 0 0)
(0 0 0)
(0 0 0)
(0 0 0)
(0 0 0)
(0 0 0)
(0 0 0)
(0 0 0)
(0 0 0)
(0 0 0)
(0 0 0)
(0 0 0)
(0.0340345 0.107132 0.197023)
(0.0569121 0.12807 0.347809)
(0.0935639 0.0963803 0.345841)
(0 0 0)
(0 0 0)
(0 0 0)
(0.0419617 0.172839 0.16799)
(0.0917278 0.141931 0.196661)
(0.04294 0.130406 0.0904411)
(0 0 0)
(0 0 0)
(0 0 0)
(0 0 0)
(0 0 0)
(0 0 0)
(0 0 0)
(0 0 0)
(0 0 0)
(0 0 0)
(0 0 0)
(0 0 0)
(0 0 0)
(0 0 0)
(0 0 0)
(0.0259241 0.071377 0.254536)
(0.0572639 0.104994 0.361548)
(-0.0666856 0.119867 0.121797)
(0 0 0)
(0 0 0)
(0 0 0)
(0.0530661 0.135352 0.19189)
(0.0917363 0.150657 0.16137)
(0.137702 0.133839 0.0895059)
(0 0 0)
(0 0 0)
(0 0 0)
(0 0 0)
(0 0 0)
(0 0 0)
(0 0 0)
(0 0 0)
(0 0 0)
(0 0 0)
(0 0 0)
(0 0 0)
(0 0 0)
(0 0 0)
(0 0 0)
(0.00658436 0.0908265 0.352591)
(0.0625803 0.0831102 0.401248)
(0 0 0)
(0 0 0)
(0 0 0)
(0 0 0)
(0.0687934 0.135086 0.202285)
(0.0985866 0.140158 0.205145)
(0.15226 0.125757 0.169398)
(0 0 0)
(0 0 0)
(0 0 0)
(0 0 0)
(0 0 0)
(0 0 0)
(0 0 0)
(0 0 0)
(0 0 0)
(0 0 0)
(0 0 0)
(0 0 0)
(0 0 0)
(0 0 0)
(0 0 0)
(0.0382056 0.107602 0.344076)
(0.080035 0.0934517 0.385473)
(0 0 0)
(0 0 0)
(0 0 0)
(0 0 0)
(0.0805556 0.170649 0.200743)
(0.104754 0.132806 0.274032)
(0.143854 0.116289 0.262664)
(0 0 0)
(0 0 0)
(0 0 0)
(0 0 0)
(0 0 0)
(0 0 0)
(0 0 0)
(0 0 0)
(0 0 0)
(0 0 0)
(0 0 0)
(0 0 0)
(0 0 0)
(0 0 0)
(0 0 0)
(0 0 0)
(0.0961963 0.101708 0.372035)
(0.126424 0.0774709 0.419406)
(0 0 0)
(0 0 0)
(0 0 0)
(0 0 0)
(0 0 0)
(0 0 0)
(0 0 0)
(0 0 0)
(0 0 0)
(0 0 0)
(0 0 0)
(0 0 0)
(0 0 0)
(0 0 0)
(0 0 0)
(0 0 0)
(0 0 0)
(0 0 0)
(0 0 0)
(0 0 0)
(0 0 0)
(0 0 0)
(0.08645 0.0593015 0.479329)
(0 0 0)
(0 0 0)
(0 0 0)
(0 0 0)
(0 0 0)
(0 0 0)
(0 0 0)
(0 0 0)
(0 0 0)
(0 0 0)
(0 0 0)
(0 0 0)
(0 0 0)
(0 0 0)
(0 0 0)
(0 0 0)
(0 0 0)
(0 0 0)
(0 0 0)
(0 0 0)
(0 0 0)
(0 0 0)
(0 0 0)
(0 0 0)
(0 0 0)
(0 0 0)
(0 0 0)
(0 0 0)
(0 0 0)
(0 0 0)
(0 0 0)
(0 0 0)
(0 0 0)
(0 0 0)
(0 0 0)
(0 0 0)
(0 0 0)
(0 0 0)
(0 0 0)
(0 0 0)
(0 0 0)
(0 0 0)
(0 0 0)
(0 0 0)
(0 0 0)
(0 0 0)
(0 0 0)
(0 0 0)
(0 0 0)
(0 0 0)
(0 0 0)
(0 0 0)
(0 0 0)
(0 0 0)
(0 0 0)
(0 0 0)
(0 0 0)
(0 0 0)
(0 0 0)
(0 0 0)
(0 0 0)
(0 0 0)
(0 0 0)
(0 0 0)
(0 0 0)
(0 0 0)
(0 0 0)
(0 0 0)
(0 0 0)
(0 0 0)
(0 0 0)
(0 0 0)
(0 0 0)
(0 0 0)
(0 0 0)
(0 0 0)
(0 0 0)
(0 0 0)
(0 0 0)
(0 0 0)
(0 0 0)
(0 0 0)
(0 0 0)
(0 0 0)
(0 0 0)
(0 0 0)
(0 0 0)
(0 0 0)
(0 0 0)
(0 0 0)
(0 0 0)
(0 0 0)
(0 0 0)
(0 0 0)
(0 0 0)
(0 0 0)
(0 0 0)
(0 0 0)
(0 0 0)
(0 0 0)
(0 0 0)
(0 0 0)
(0 0 0)
(0 0 0)
(0 0 0)
(0 0 0)
(0 0 0)
(0 0 0)
(0 0 0)
(0 0 0)
(0 0 0)
(0 0 0)
(0 0 0)
(0 0 0)
(0 0 0)
(0 0 0)
(0 0 0)
(0 0 0)
(0 0 0)
(0 0 0)
(0 0 0)
(0 0 0)
(0 0 0)
(0 0 0)
(0 0 0)
(0 0 0)
(0 0 0)
(0 0 0)
(0 0 0)
(0 0 0)
(0 0 0)
(0 0 0)
(0 0 0)
(0 0 0)
(0 0 0)
(0 0 0)
(0 0 0)
(0 0 0)
(0 0 0)
(0 0 0)
(0 0 0)
(0 0 0)
(0 0 0)
(0 0 0)
(0 0 0)
(0 0 0)
(0 0 0)
(0 0 0)
(0 0 0)
(0 0 0)
(0 0 0)
(0 0 0)
(0 0 0)
(0 0 0)
(0 0 0)
(0 0 0)
(0 0 0)
(0 0 0)
(0 0 0)
(0 0 0)
(0 0 0)
(0 0 0)
(0 0 0)
(0 0 0)
(0 0 0)
(0 0 0)
(0 0 0)
(0 0 0)
(0 0 0)
(0 0 0)
(0 0 0)
(0 0 0)
(0 0 0)
(0 0 0)
(0 0 0)
(0 0 0)
(0 0 0)
(0 0 0)
(0 0 0)
(0 0 0)
(0 0 0)
(0 0 0)
(0 0 0)
(0 0 0)
(0 0 0)
(0 0 0)
(0 0 0)
(0 0 0)
(0 0 0)
(0 0 0)
(0 0 0)
(0 0 0)
(0 0 0)
(0 0 0)
(0 0 0)
(0 0 0)
(0 0 0)
(0 0 0)
(0 0 0)
(0 0 0)
(0 0 0)
(0 0 0)
(0 0 0)
(0 0 0)
(0 0 0)
(0 0 0)
(0 0 0)
(0 0 0)
(0 0 0)
(0 0 0)
(0 0 0)
(0 0 0)
(0 0 0)
(0 0 0)
(0 0 0)
(0 0 0)
(0 0 0)
(0 0 0)
(0 0 0)
(0 0 0)
(0 0 0)
(0 0 0)
(0 0 0)
(0 0 0)
(0 0 0)
(0 0 0)
(0 0 0)
(0 0 0)
(0 0 0)
(0 0 0)
(0 0 0)
(0 0 0)
(0 0 0)
(0 0 0)
(0 0 0)
(0 0 0)
(0 0 0)
(0 0 0)
(0 0 0)
(0 0 0)
(0 0 0)
(0 0 0)
(0 0 0)
(0 0 0)
(0 0 0)
(0 0 0)
(0 0 0)
(0 0 0)
(0 0 0)
(0 0 0)
(0 0 0)
(0 0 0)
(0 0 0)
(0 0 0)
(0 0 0)
(0 0 0)
(0 0 0)
(0 0 0)
(0 0 0)
(0 0 0)
(0 0 0)
(0 0 0)
(0 0 0)
(0 0 0)
(0 0 0)
(0 0 0)
(0 0 0)
(0 0 0)
(0 0 0)
(0 0 0)
(0 0 0)
(0 0 0)
(0 0 0)
(0 0 0)
(0 0 0)
(0 0 0)
(0 0 0)
(0 0 0)
(0 0 0)
(0 0 0)
(0 0 0)
(0 0 0)
(0 0 0)
(0 0 0)
(0 0 0)
(0 0 0)
(0 0 0)
(0 0 0)
(0 0 0)
(0 0 0)
(0 0 0)
(0 0 0)
(0 0 0)
(0 0 0)
(0 0 0)
(0 0 0)
(0 0 0)
(0 0 0)
(0 0 0)
(0 0 0)
(0 0 0)
(0 0 0)
(0 0 0)
(0 0 0)
(0 0 0)
(0 0 0)
(0 0 0)
(0 0 0)
(0 0 0)
(0 0 0)
(0 0 0)
(0 0 0)
(0 0 0)
(0 0 0)
(0 0 0)
(0 0 0)
(0 0 0)
(0 0 0)
(0 0 0)
(0 0 0)
(0 0 0)
(0 0 0)
(0 0 0)
(0 0 0)
(0 0 0)
(0 0 0)
(0 0 0)
(0 0 0)
(0 0 0)
(0 0 0)
(0 0 0)
(0 0 0)
(0 0 0)
(0 0 0)
(0 0 0)
(0 0 0)
(0 0 0)
(0 0 0)
(0 0 0)
(0 0 0)
(0 0 0)
(0 0 0)
(0 0 0)
(0 0 0)
(0 0 0)
(0 0 0)
(0 0 0)
(0 0 0)
(0 0 0)
(0 0 0)
(0 0 0)
(0 0 0)
(0 0 0)
(0 0 0)
(0 0 0)
(0 0 0)
(0 0 0)
(0 0 0)
(0 0 0)
(0 0 0)
(0 0 0)
(0 0 0)
(0 0 0)
(0 0 0)
(0 0 0)
(0 0 0)
(0 0 0)
(0 0 0)
(0 0 0)
(0 0 0)
(0 0 0)
(0 0 0)
(0 0 0)
(0 0 0)
(0 0 0)
(0 0 0)
(0 0 0)
(0 0 0)
(0 0 0)
(0 0 0)
(0 0 0)
(0 0 0)
(0 0 0)
(0 0 0)
(0 0 0)
(0 0 0)
(0 0 0)
(0 0 0)
(0 0 0)
(0 0 0)
(0 0 0)
(0 0 0)
(0 0 0)
(0 0 0)
(0 0 0)
(0 0 0)
(0 0 0)
(0 0 0)
(0 0 0)
(0 0 0)
(0 0 0)
(0 0 0)
(0 0 0)
(0 0 0)
(0 0 0)
(0 0 0)
(0 0 0)
(0 0 0)
(0 0 0)
(0 0 0)
(0 0 0)
(0 0 0)
(0 0 0)
(0 0 0)
(0 0 0)
(0 0 0)
(0 0 0)
(0 0 0)
(0 0 0)
(0 0 0)
(0 0 0)
(0 0 0)
(0 0 0)
(0 0 0)
(0 0 0)
(0 0 0)
(0 0 0)
(0 0 0)
(0 0 0)
(0 0 0)
(0 0 0)
(0 0 0)
(0 0 0)
(0 0 0)
(0 0 0)
(0 0 0)
(0 0 0)
(0 0 0)
(0 0 0)
(0 0 0)
(0 0 0)
(0 0 0)
(0 0 0)
(0 0 0)
(0 0 0)
(0 0 0)
(0 0 0)
(0 0 0)
(0 0 0)
(0 0 0)
(0 0 0)
(0 0 0)
(0 0 0)
(0 0 0)
(0 0 0)
(0 0 0)
(0 0 0)
(0 0 0)
(0 0 0)
(0 0 0)
(0 0 0)
(0 0 0)
(0 0 0)
(0 0 0)
(0 0 0)
(0 0 0)
(0 0 0)
(0 0 0)
(0 0 0)
(0 0 0)
(0 0 0)
(0 0 0)
(0 0 0)
(0 0 0)
(0 0 0)
(0 0 0)
(0 0 0)
(0 0 0)
(0 0 0)
(0 0 0)
(0 0 0)
(0 0 0)
(0 0 0)
(0 0 0)
(0 0 0)
(0 0 0)
(0 0 0)
(0 0 0)
(0 0 0)
(0 0 0)
(0 0 0)
(0 0 0)
(0 0 0)
(0 0 0)
(0 0 0)
(0 0 0)
(0 0 0)
(0 0 0)
(0 0 0)
(0 0 0)
(0 0 0)
(0 0 0)
(0 0 0)
(0 0 0)
(0 0 0)
(0 0 0)
(0 0 0)
(0 0 0)
(0 0 0)
(0 0 0)
(0 0 0)
(0 0 0)
(0 0 0)
(0 0 0)
(0 0 0)
(0 0 0)
(0 0 0)
(0 0 0)
(0 0 0)
(0 0 0)
(0 0 0)
(0 0 0)
(0 0 0)
(0 0 0)
(0 0 0)
(0 0 0)
(0 0 0)
(0 0 0)
(0 0 0)
(0 0 0)
(0 0 0)
(0 0 0)
(0 0 0)
(0 0 0)
(0 0 0)
(0 0 0)
(0 0 0)
(0 0 0)
(0 0 0)
(0 0 0)
(0 0 0)
(0 0 0)
(0 0 0)
(0 0 0)
(0 0 0)
(0 0 0)
(0 0 0)
(0 0 0)
(0 0 0)
(0 0 0)
(0 0 0)
(0 0 0)
(0 0 0)
(0 0 0)
(0 0 0)
(0 0 0)
(0 0 0)
(0 0 0)
(0 0 0)
(0 0 0)
(0 0 0)
(0 0 0)
(0 0 0)
(0 0 0)
(0 0 0)
(0 0 0)
(0 0 0)
(0 0 0)
(0 0 0)
(0 0 0)
(0 0 0)
(0 0 0)
(0 0 0)
(0 0 0)
(0 0 0)
(0 0 0)
(0 0 0)
(0 0 0)
(0 0 0)
(0 0 0)
(0 0 0)
(0 0 0)
(0 0 0)
(0 0 0)
(0 0 0)
(0 0 0)
(0 0 0)
(0 0 0)
(0 0 0)
(0 0 0)
(0 0 0)
(0 0 0)
(0 0 0)
(0 0 0)
(0 0 0)
(0 0 0)
(0 0 0)
(0 0 0)
(0 0 0)
(0 0 0)
(0 0 0)
(0 0 0)
(0 0 0)
(0 0 0)
(0 0 0)
(0 0 0)
(0 0 0)
(0 0 0)
(0 0 0)
(0 0 0)
(0 0 0)
(0 0 0)
(0 0 0)
(0 0 0)
(0 0 0)
(0 0 0)
(0 0 0)
(0 0 0)
(0 0 0)
(0 0 0)
(0 0 0)
(0 0 0)
(0 0 0)
(0 0 0)
(0 0 0)
(0 0 0)
(0 0 0)
(0 0 0)
(0 0 0)
(0 0 0)
(0 0 0)
(0 0 0)
(0 0 0)
(0 0 0)
(0 0 0)
(0 0 0)
(0 0 0)
(0 0 0)
(0 0 0)
(0 0 0)
(0 0 0)
(0 0 0)
(0 0 0)
(0 0 0)
(0 0 0)
(0 0 0)
(0 0 0)
(0 0 0)
(0 0 0)
(0 0 0)
(0 0 0)
(0 0 0)
(0 0 0)
(0 0 0)
(0 0 0)
(0 0 0)
(0 0 0)
(0 0 0)
(0 0 0)
(0 0 0)
(0 0 0)
(0 0 0)
(0 0 0)
(0 0 0)
(0 0 0)
(0 0 0)
(0 0 0)
(0 0 0)
(0 0 0)
(0 0 0)
(0 0 0)
(0 0 0)
(0 0 0)
(0 0 0)
(0 0 0)
(0 0 0)
(0 0 0)
(0 0 0)
(0 0 0)
(0 0 0)
(0 0 0)
(0 0 0)
(0 0 0)
(0 0 0)
(0 0 0)
(0 0 0)
(0 0 0)
(0 0 0)
(0 0 0)
(0 0 0)
(0 0 0)
(0 0 0)
(0 0 0)
(0 0 0)
(0 0 0)
(0 0 0)
(0 0 0)
(0 0 0)
(0 0 0)
(0 0 0)
(0 0 0)
(0 0 0)
(0 0 0)
(0 0 0)
(0 0 0)
(0 0 0)
(0 0 0)
(0 0 0)
(0 0 0)
(0 0 0)
(0 0 0)
(0 0 0)
(0 0 0)
(0 0 0)
(0 0 0)
(0 0 0)
(0 0 0)
(0 0 0)
(0 0 0)
(0 0 0)
(0 0 0)
(0 0 0)
(0 0 0)
(0 0 0)
(0 0 0)
(0 0 0)
(0 0 0)
(0 0 0)
(0 0 0)
(0 0 0)
(0 0 0)
(0 0 0)
(0 0 0)
(0 0 0)
(0 0 0)
(0 0 0)
(0 0 0)
(0 0 0)
(0 0 0)
(0 0 0)
(0 0 0)
(0 0 0)
(0 0 0)
(0 0 0)
(0 0 0)
(0 0 0)
(0 0 0)
(0 0 0)
(0 0 0)
(0 0 0)
(0 0 0)
(0 0 0)
(0 0 0)
(0 0 0)
(0 0 0)
(0 0 0)
(0 0 0)
(0 0 0)
(0 0 0)
(0 0 0)
(0 0 0)
(0 0 0)
(0 0 0)
(0 0 0)
(0 0 0)
(0 0 0)
(0 0 0)
(0 0 0)
(0 0 0)
(0 0 0)
(0 0 0)
(0 0 0)
(0 0 0)
(0 0 0)
(0 0 0)
(0 0 0)
(0 0 0)
(0 0 0)
(0 0 0)
(0 0 0)
(0 0 0)
(0 0 0)
(0 0 0)
(0 0 0)
(0 0 0)
(0 0 0)
(0 0 0)
(0 0 0)
(0 0 0)
(0 0 0)
(0 0 0)
(0 0 0)
(0 0 0)
(0 0 0)
(0 0 0)
(0 0 0)
(0 0 0)
(0 0 0)
(0 0 0)
(0 0 0)
(0 0 0)
(0 0 0)
(0 0 0)
(0 0 0)
(0 0 0)
(0 0 0)
(0 0 0)
(0 0 0)
(0 0 0)
(0 0 0)
(0 0 0)
(0 0 0)
(0 0 0)
(0 0 0)
(0 0 0)
(0 0 0)
(0 0 0)
(0 0 0)
(0 0 0)
(0 0 0)
(0 0 0)
(0 0 0)
(0 0 0)
(0 0 0)
(0 0 0)
(0 0 0)
(0 0 0)
(0 0 0)
(0 0 0)
(0 0 0)
(0 0 0)
(0 0 0)
(0 0 0)
(0 0 0)
(0 0 0)
(0 0 0)
(0 0 0)
(0 0 0)
(0 0 0)
(0 0 0)
(0 0 0)
(0 0 0)
(0 0 0)
(0 0 0)
(0 0 0)
(0 0 0)
(0 0 0)
(0 0 0)
(0 0 0)
(0 0 0)
(0 0 0)
(0 0 0)
(0 0 0)
(0 0 0)
(0 0 0)
(0 0 0)
(0 0 0)
(0 0 0)
(0 0 0)
(0 0 0)
(0 0 0)
(0 0 0)
(0 0 0)
(0 0 0)
(0 0 0)
(0 0 0)
(0 0 0)
(0 0 0)
(0 0 0)
(0 0 0)
(0 0 0)
(0 0 0)
(0 0 0)
(0 0 0)
(0 0 0)
(0 0 0)
(0 0 0)
(0 0 0)
(0 0 0)
(0 0 0)
(0 0 0)
(0 0 0)
(0 0 0)
(0 0 0)
(0 0 0)
(0 0 0)
(0 0 0)
(0 0 0)
(0 0 0)
(0 0 0)
(0 0 0)
(0 0 0)
(0 0 0)
(0 0 0)
(0 0 0)
(0 0 0)
(0 0 0)
(0 0 0)
(0 0 0)
(0 0 0)
(0 0 0)
(0 0 0)
(0 0 0)
(0 0 0)
(0 0 0)
(0 0 0)
(0 0 0)
(0 0 0)
(0 0 0)
(0 0 0)
(0 0 0)
(0 0 0)
(0 0 0)
(0 0 0)
(0 0 0)
(0 0 0)
(0 0 0)
(0 0 0)
(0 0 0)
(0 0 0)
(0 0 0)
(0 0 0)
(0 0 0)
(0 0 0)
(0 0 0)
(0 0 0)
(0 0 0)
(0 0 0)
(0 0 0)
(0 0 0)
(0 0 0)
(0 0 0)
(0 0 0)
(0 0 0)
(0 0 0)
(0 0 0)
(0 0 0)
(0 0 0)
(0 0 0)
(0 0 0)
(0 0 0)
(0 0 0)
(0 0 0)
(0 0 0)
(0 0 0)
(0 0 0)
(0 0 0)
(0 0 0)
(0 0 0)
(0 0 0)
(0 0 0)
(0 0 0)
(0 0 0)
(0 0 0)
(0 0 0)
(0 0 0)
(0 0 0)
(0 0 0)
(0 0 0)
(0 0 0)
(0 0 0)
(0 0 0)
(0 0 0)
(0 0 0)
(0 0 0)
(0 0 0)
(0 0 0)
(0 0 0)
(0 0 0)
(0 0 0)
(0 0 0)
(0 0 0)
(0 0 0)
(0 0 0)
(0 0 0)
(0 0 0)
(0 0 0)
(0 0 0)
(0 0 0)
(0 0 0)
(0 0 0)
(0 0 0)
(0 0 0)
(0 0 0)
(0 0 0)
(0 0 0)
(0 0 0)
(0 0 0)
(0 0 0)
(0 0 0)
(0 0 0)
(0 0 0)
(0 0 0)
(0 0 0)
(0 0 0)
(0 0 0)
(0 0 0)
(0 0 0)
(0 0 0)
(0 0 0)
(0 0 0)
(0 0 0)
(0 0 0)
(0 0 0)
(0 0 0)
(0 0 0)
(0 0 0)
(0 0 0)
(0 0 0)
(0 0 0)
(0 0 0)
(0 0 0)
(0 0 0)
(0 0 0)
(0 0 0)
(0 0 0)
(0 0 0)
(0 0 0)
(0 0 0)
(0 0 0)
(0 0 0)
(0 0 0)
(0 0 0)
(0 0 0)
(0 0 0)
(0 0 0)
(0 0 0)
(0 0 0)
(0 0 0)
(0 0 0)
(0 0 0)
(0 0 0)
(0 0 0)
(0 0 0)
(0 0 0)
(0 0 0)
(0 0 0)
(0 0 0)
(0 0 0)
(0 0 0)
(0 0 0)
(0 0 0)
(0 0 0)
(0 0 0)
(0 0 0)
(0 0 0)
(0 0 0)
(0 0 0)
(0 0 0)
(0 0 0)
(0 0 0)
(0 0 0)
(0 0 0)
(0 0 0)
(0 0 0)
(0 0 0)
(0 0 0)
(0 0 0)
(0 0 0)
(0 0 0)
(0 0 0)
(0 0 0)
(0 0 0)
(0 0 0)
(0 0 0)
(0 0 0)
(0 0 0)
(0 0 0)
(0 0 0)
(0 0 0)
(0 0 0)
(0 0 0)
(0 0 0)
(0 0 0)
(0 0 0)
(0 0 0)
(0 0 0)
(0 0 0)
(0 0 0)
(0 0 0)
(0 0 0)
(0 0 0)
(0 0 0)
(0 0 0)
(0 0 0)
(0 0 0)
(0 0 0)
(0 0 0)
(0 0 0)
(0 0 0)
(0 0 0)
(0 0 0)
(0 0 0)
(0 0 0)
(0 0 0)
(0 0 0)
(0 0 0)
(0 0 0)
(0 0 0)
(0 0 0)
(0 0 0)
(0 0 0)
(0 0 0)
(0 0 0)
(0 0 0)
(0 0 0)
(0 0 0)
(0 0 0)
(0 0 0)
(0 0 0)
(0 0 0)
(0 0 0)
(0 0 0)
(0 0 0)
(0 0 0)
(0 0 0)
(0 0 0)
(0 0 0)
(0 0 0)
(0 0 0)
(0 0 0)
(0 0 0)
(0 0 0)
(0 0 0)
(0 0 0)
(0 0 0)
(0 0 0)
(0 0 0)
(0 0 0)
(0 0 0)
(0 0 0)
(0 0 0)
(0 0 0)
(0 0 0)
(0 0 0)
(0 0 0)
(0 0 0)
(0 0 0)
(0 0 0)
(0 0 0)
(0 0 0)
(0 0 0)
(0 0 0)
(0 0 0)
(0 0 0)
(0 0 0)
(0 0 0)
(0 0 0)
(0 0 0)
(0 0 0)
(0 0 0)
(0 0 0)
(0 0 0)
(0 0 0)
(0 0 0)
(0 0 0)
(0 0 0)
(0 0 0)
(0 0 0)
(0 0 0)
(0 0 0)
(0 0 0)
(0 0 0)
(0 0 0)
(0 0 0)
(0 0 0)
(0 0 0)
(0 0 0)
(0 0 0)
(0 0 0)
(0 0 0)
(0 0 0)
(0 0 0)
(0 0 0)
(0 0 0)
(0 0 0)
(0 0 0)
(0 0 0)
(0 0 0)
(0 0 0)
(0 0 0)
(0 0 0)
(0 0 0)
(0 0 0)
(0 0 0)
(0 0 0)
(0 0 0)
(0 0 0)
(0 0 0)
(0 0 0)
(0 0 0)
(0 0 0)
(0 0 0)
(0 0 0)
(0 0 0)
(0 0 0)
(0 0 0)
(0 0 0)
(0 0 0)
(0 0 0)
(0 0 0)
(0 0 0)
(0 0 0)
(0 0 0)
(0 0 0)
(0 0 0)
(0 0 0)
(0 0 0)
(0 0 0)
(0 0 0)
(0 0 0)
(0 0 0)
(0 0 0)
(0 0 0)
(0 0 0)
(0 0 0)
(0 0 0)
(0 0 0)
(0 0 0)
(0 0 0)
(0 0 0)
(0 0 0)
(0 0 0)
(0 0 0)
(0 0 0)
(0 0 0)
(0 0 0)
(0 0 0)
(0 0 0)
(0 0 0)
(0 0 0)
(0 0 0)
(0 0 0)
(0 0 0)
(0 0 0)
(0 0 0)
(0 0 0)
(0 0 0)
(0 0 0)
(0 0 0)
(0 0 0)
(0 0 0)
(0 0 0)
(0 0 0)
(0 0 0)
(0 0 0)
(0 0 0)
(0 0 0)
(0 0 0)
(0 0 0)
(0 0 0)
(0 0 0)
(0 0 0)
(0 0 0)
(0 0 0)
(0 0 0)
(0 0 0)
(0 0 0)
(0 0 0)
(0 0 0)
(0 0 0)
(0 0 0)
(0 0 0)
(0 0 0)
(0 0 0)
(0 0 0)
(0 0 0)
(0 0 0)
(0 0 0)
(0 0 0)
(0 0 0)
(0 0 0)
(0 0 0)
(0 0 0)
(0 0 0)
(0 0 0)
(0 0 0)
(0 0 0)
(0 0 0)
(0 0 0)
(0 0 0)
(0 0 0)
(0 0 0)
(0 0 0)
(0 0 0)
(0 0 0)
(0 0 0)
(0 0 0)
(0 0 0)
(0 0 0)
(0 0 0)
(0 0 0)
(0 0 0)
(0 0 0)
(0 0 0)
(0 0 0)
(0.0668376 -0.0123217 0.00180135)
(0.0169898 -0.0115473 0.000155173)
(0.064325 -0.00761939 0.00337203)
(0.0576183 -0.00989854 -0.00107924)
(0.0117454 -0.0169816 0.00112931)
(0.0601413 -0.0438127 0.0106961)
(-0.00259362 -0.0163249 0.0129667)
(-0.0498586 -0.0310564 0.0130624)
(0.0671697 0.0132219 -0.0553641)
(0.112712 -0.056088 -0.0112497)
(0.148549 -0.0203246 0.0378854)
(0.161016 -0.0120737 -0.00729914)
(0.152292 0.00244885 0.034522)
(0.154506 -0.0235113 0.0464197)
(0.146425 -0.0413 0.00426311)
(0.127133 -0.0487316 0.0149721)
(0.161422 -0.0711429 -0.00017273)
(0.125195 -0.0486062 0.0106396)
(0.0519021 -0.0374649 0.015502)
(0.177518 -0.0980978 0.00838987)
(0.133699 -0.0976345 0.0141047)
(-0.0254076 -0.0375157 0.0187946)
(-0.0243463 0.0243819 -0.0186618)
(0.0502177 -0.0390762 0.0205417)
(-0.0278612 0.00508964 0.0168515)
(-0.0387215 0.0169918 -0.0321296)
(0.0510279 0.0885169 0.00100249)
(-0.00792381 -0.0186452 0.00665658)
(-0.0147927 0.0129824 0.0112994)
(0.0624452 0.0198132 0.0151867)
(0.0593345 -0.0402466 0.00370629)
(-0.00793249 -0.0439466 0.00891964)
(-0.00341316 -0.152425 0.00167077)
(0.0839916 -0.0972883 0.0042264)
(0.178616 -0.170611 -0.0208615)
(0.0528086 -0.158788 -0.0190962)
(0.15698 -0.16507 -0.020388)
(0.225362 -0.199741 -0.00712649)
(0.205286 -0.128397 0.00707644)
(0.242085 -0.173185 -0.0125215)
(0.197009 -0.14889 0.00388702)
(0.103828 -0.0778494 0.0083386)
(0.0570966 -0.0276412 0.0193252)
(0.124192 -0.123183 0.000308348)
(0.143997 -0.124658 0.00104093)
(0.022948 0.0451301 0.000443865)
(0.123765 0.043729 -0.00240119)
(0.0239562 0.055241 -0.013263)
(0.00450638 -0.0218025 0.00828783)
(0.0155333 -0.0559378 0.014628)
(0.0338505 -0.114193 0.0186157)
(0.0218809 -0.107753 0.00564351)
(-0.000644956 -0.181924 -0.00659982)
(0.0589172 -0.158086 0.0129615)
(0.0224364 -0.206553 -0.0160275)
(0.0659623 -0.168142 -0.0262395)
(0.162369 -0.159531 -0.0237294)
(0.0862694 -0.206559 -0.0181748)
(0.184163 -0.183276 -0.0124319)
(0.231215 -0.144488 -0.0177017)
(0.151938 -0.129384 0.000576731)
(0.173097 -0.149229 -0.00318627)
(0.130016 -0.139589 0.0107952)
(0.133035 -0.129397 0.00485613)
(0.0661747 -0.228885 0.0122797)
(0.0470277 -0.143523 0.0275148)
(-0.0374264 -0.27035 0.0130275)
(0.0138192 -0.0651973 -0.0068447)
(0.00830024 0.0166598 0.00138827)
(0.00207594 -0.16621 -0.00152883)
(-0.0054155 -0.0822502 -0.0232434)
(-0.00836658 -0.131207 -0.000966124)
(-0.001334 -0.193598 -0.00900622)
(-0.0316846 -0.0686932 -0.0189277)
(-0.0418018 -0.133721 -0.0237577)
(0.097731 -0.207825 -0.0114462)
(0.191657 -0.175543 -0.0147978)
(0.0994993 -0.136236 -0.0325762)
(0.185883 -0.12671 -0.0114742)
(0.12563 -0.132051 0.0119145)
(-0.0313773 -0.164642 0.00964038)
(0.0500902 -0.0767164 0.0170038)
(-0.0796356 -0.111278 -0.0198433)
(-0.12916 -0.185665 0.0318227)
(-0.0470335 -0.160132 -0.0343609)
(-0.0646452 -0.0973843 -0.0312559)
(-0.0355514 -0.0708446 -0.04442)
(-0.000238105 -0.132522 -0.0376364)
(0.00378453 -0.0525099 -0.0490552)
(0.104467 -0.0353701 -0.0382212)
(0.212138 0.0012782 -0.0142781)
(0.170247 0.0207917 -0.0134261)
(0.13776 0.00773461 0.00962519)
(-0.0554239 -0.0402888 -0.0278242)
(0.173132 0.0244235 -0.00776465)
(-0.0290028 -0.0335661 -0.0403284)
(0.115533 -0.0294938 0.0132911)
(0.0573032 -0.0272657 -0.0250896)
(0.0692623 -0.00915411 0.0045035)
(0.164487 -0.0183637 0.0781503)
(0.0565839 0.0181437 0.0797374)
(0.123449 -0.0257345 -0.00299371)
(0.102676 -0.0326456 0.0458252)
(0.113603 -0.0228921 0.0736054)
(0.0277971 0.00240928 0.0606499)
(-0.072672 0.00166143 0.0797596)
(0.161095 -0.00478573 -0.0256662)
(0.0464281 0.00246962 0.0603273)
(0.008541 0.049477 0.0257056)
(-0.0624513 0.00643499 0.00861508)
(0.0240372 0.0404353 -0.0279084)
(0.03935 -0.0172674 -0.147186)
(0.00575872 -0.00216633 -0.20426)
(0.150773 -0.053426 0.0417244)
(0.104587 -0.0574336 -0.0769359)
(0.156241 -0.0672193 0.0844414)
(0.0457677 -0.0273523 -0.138704)
(0.0958981 -0.0693037 -0.00441515)
(0.0238469 -0.0346625 -0.156408)
(0.0779407 -0.159585 0.0489564)
(-0.0422565 -0.0086263 -0.0710522)
(0.00317518 -0.0240785 0.134216)
(-0.06536 -0.00733554 0.0851409)
(-0.0353368 0.0218085 0.0170585)
(-0.0341402 -0.028678 -0.123267)
(-8.584e-05 -0.0622984 0.156779)
(-0.0418631 -0.0626745 0.0560095)
(-0.0477668 -0.0305001 -0.113728)
(-0.0457252 -0.07281 -0.141101)
(0.0307896 0.0220031 -0.102503)
(0.00937584 -0.0164629 0.0921303)
(-0.027654 0.0351513 0.108418)
(0.0212733 -0.0282136 -0.178758)
(-0.0487405 -0.0167323 0.105253)
(-0.136643 -0.0241782 0.168219)
(-0.00938739 0.0102977 0.00706547)
(-0.00155109 -0.00986632 -0.0297442)
(-0.0523073 -0.108732 -0.0349886)
(-0.00699627 -0.0674929 0.0929381)
(-0.000335224 -0.0879807 0.0965088)
(-0.0302347 -0.124939 0.124093)
(-0.0829577 -0.153799 0.0448631)
(-0.0416542 -0.0386432 0.112064)
(-0.123848 -0.119226 0.154091)
(-0.128291 -0.0949977 0.0526394)
(-0.00894529 -0.00158844 -0.03577)
(0.000471386 -0.12368 -0.0171701)
(-0.00680731 -0.0798517 0.0843761)
(0.00561 -0.087546 0.0871442)
(0.00162521 -0.0286682 -0.0517058)
(-0.0678415 -0.113891 -0.0275485)
(-0.0661441 -0.0744168 -0.0450855)
(-0.104315 -0.150053 -0.00210223)
(-0.0978057 -0.095991 -0.0328517)
(-0.0522289 -0.0808804 -0.10243)
(-0.0961051 -0.0825883 -0.0509932)
(-0.0355141 -0.110473 -0.0561884)
(-0.0282821 -0.0435006 -0.112997)
(0.0142053 -0.0475018 -0.167688)
(0.00431742 -0.142186 -0.0882297)
(0.0413972 -0.119152 -0.0546636)
(0.0514085 -0.106099 -0.12965)
(0.0905422 -0.185252 0.0766716)
(0.0817496 -0.146285 -0.099705)
(0.18129 -0.165757 -0.0745876)
(0.117533 -0.136117 -0.164273)
(0.0115326 -0.0313776 -0.120171)
(0.0049763 -0.0281081 -0.158406)
(0.00763212 -0.0172001 -0.21884)
(0.170544 0.021695 -0.0495035)
(0.190534 0.0351868 -0.0317096)
(0.017084 -0.0386733 -0.204688)
(0.0555713 -0.0601928 -0.1073)
(0.106949 0.00796208 0.0298259)
(0.0238293 -0.0816327 -0.0325552)
(0.212998 0.00224442 -0.0297527)
(0.172945 -0.0160624 -0.0082426)
(0.21589 -0.0523723 0.0351278)
(0.136575 -0.00132811 0.0668497)
(0.144862 -0.10205 -0.147212)
(0.0383805 -0.0268001 -0.0657577)
(0.0222981 -0.0168424 -0.06308)
(0.067333 -0.0535477 0.0637768)
(0.0497378 -0.0419479 0.0234831)
(0.084841 -0.0709805 0.112282)
(0.0592736 -0.0301785 0.0691551)
(0.0455221 -0.0451053 0.00629033)
(0.0442277 -0.0758913 0.110539)
(0.0659903 -0.0205192 0.1046)
(0.0678348 0.0415995 0.0310846)
(0.150425 -0.0137391 0.0720189)
(0.0457357 -0.0392843 0.138945)
(0.0698561 0.0123423 0.054296)
(0.0572052 0.0363407 -0.0241709)
(0.0620119 0.0249754 0.00751696)
(-0.00102548 0.00856089 -0.203601)
(-0.00161015 0.00627359 -0.166506)
(0.0662443 -0.0933142 0.00691307)
(0.0130577 0.0158825 -0.161458)
(0.0692174 -0.151625 0.112767)
(-0.0198727 0.0703521 -0.110285)
(0.0336583 -0.0411249 0.0918225)
(0.00526306 0.0427418 -0.131929)
(0.0853277 -0.0917284 0.144263)
(-0.0322086 -0.0374813 -0.108484)
(0.0658196 -0.145111 0.170225)
(-0.0324478 -0.0856788 0.0317063)
(0.0692828 -0.0329174 0.0942139)
(-0.0354866 -0.0380519 -0.0589965)
(0.0688033 -0.180989 0.216512)
(-0.0534233 -0.096316 0.0158827)
(-0.0599755 -0.108164 -0.110993)
(-0.0630536 -0.113925 -0.055154)
(0.0320975 -0.0371246 -0.166664)
(-0.0786982 -0.0333043 0.189111)
(-0.121528 -0.0671747 0.189942)