/*--------------------------------*- C++ -*----------------------------------*\
| =========                 |                                                 |
| \\      /  F ield         | OpenFOAM: The Open Source CFD Toolbox           |
|  \\    /   O peration     | Version:  5.x                                   |
|   \\  /    A nd           | Web:      www.OpenFOAM.org                      |
|    \\/     M anipulation  |                                                 |
\*---------------------------------------------------------------------------*/
FoamFile
{
    version     2.0;
    format      ascii;
    class       volVectorField;
    location    "4.85";
    object      U;
}
// * * * * * * * * * * * * * * * * * * * * * * * * * * * * * * * * * * * * * //

dimensions      [0 1 -1 0 0 0 0];

internalField   nonuniform List<vector> 
10571
(
(-0.235948 0.243822 1.43036)
(0.086463 -0.175784 1.00505)
(-0.155493 0.58717 2.07387)
(-1.57319 0.796408 5.15095)
(-0.483569 -0.0445038 1.25934)
(1.63547 -2.27654 5.03711)
(-0.513852 -0.942886 3.1783)
(-0.257707 -0.699081 2.39172)
(-0.329946 -0.117942 2.58855)
(-0.364731 0.112774 1.19828)
(-0.208334 -1.4362 2.74847)
(0.707069 -1.62612 1.76909)
(0.254403 -2.17281 2.64889)
(0.197475 -1.46796 4.51536)
(-0.197601 -0.300713 1.95303)
(0.147113 0.0840997 1.25953)
(0.169138 -0.539431 1.13089)
(1.24264 -1.43431 1.48323)
(1.16267 -0.770481 2.69654)
(0.655749 0.284055 1.96643)
(0.072767 0.0449631 0.961753)
(0.41627 -0.337274 1.0487)
(0.576204 -0.671642 1.20903)
(0.362902 -0.472828 0.889285)
(0.337933 0.054497 2.22867)
(-0.024789 -0.264802 2.84929)
(-0.132489 -0.565344 1.67985)
(0.0708111 -0.612412 4.47049)
(-0.0756125 -0.126853 0.859471)
(0.0548149 -1.46461 3.74027)
(-0.805099 -1.48552 4.27715)
(0.133328 -0.68909 1.74875)
(0.169665 -0.252924 2.68915)
(-0.183755 -0.068607 1.10126)
(0.284262 -0.295742 0.789779)
(0.419115 -0.564301 1.3624)
(-0.671033 -0.743356 2.4981)
(0.342391 -0.45538 2.24991)
(0.601926 -0.199262 1.76688)
(0.0763889 0.127871 3.85872)
(0.0759329 -0.453394 0.622951)
(0.294418 -0.432933 1.19119)
(1.35554 0.390472 4.11961)
(1.68853 -0.547763 4.91919)
(0.102671 0.202455 2.86305)
(0.20525 -0.205253 0.54599)
(0.757306 -0.457616 0.780665)
(0.69956 -0.214147 0.15792)
(0.287361 0.25706 0.942992)
(-0.089708 -0.532508 4.05208)
(0.291337 -0.929371 1.98941)
(0.0364713 -1.01903 4.23553)
(-0.0623659 -0.298646 1.5886)
(-0.389278 -0.611134 3.81764)
(0.0956605 -0.934966 3.3457)
(0.0765881 -0.459449 1.42611)
(-0.502909 -0.182002 3.12847)
(-0.266757 -0.442856 0.568823)
(0.00847179 -0.13732 0.147289)
(0.068984 -0.315904 1.27343)
(-0.264507 -0.149136 1.72613)
(0.371103 -0.589489 2.60132)
(0.696967 -0.686396 3.12255)
(-0.80313 -0.0391442 3.18523)
(0.0521452 -0.146141 -0.0386667)
(-0.0184241 -0.0651236 0.0150485)
(0.229754 -0.0132952 1.83955)
(1.50659 -1.66855 4.29492)
(-0.553289 -0.0277646 3.17005)
(0.0363899 -0.114825 0.115751)
(0.0927536 -0.0521374 0.218002)
(0.329211 0.0769773 0.35936)
(-0.0895044 -0.0393461 0.257015)
(0.0886533 -0.503167 5.04794)
(0.291336 0.486702 3.49337)
(-0.227645 0.114913 4.85609)
(-0.467183 0.586377 1.74628)
(-0.404019 -0.3677 4.70848)
(0.0820806 -0.275673 2.90178)
(-0.618978 -0.186055 2.10611)
(-0.787921 -0.0543259 3.05163)
(-0.077465 -0.193831 0.257268)
(0.00776756 -0.0293057 -0.0914576)
(0.0664862 -0.0625119 1.2243)
(-0.116259 0.0929459 0.619877)
(-0.0843843 -0.0455653 1.2776)
(-0.406936 -0.57773 4.39422)
(-0.499339 -0.156348 2.19537)
(0.0781181 0.0631293 -0.257596)
(-0.0358089 0.153109 0.785605)
(-0.158957 0.192919 0.833595)
(1.1032 -1.17259 4.72661)
(-0.700727 -0.00424794 1.77893)
(0.0489074 -0.00532986 -0.161002)
(0.0142711 0.002018 0.0276959)
(-0.103799 -0.0316903 0.122838)
(0.151246 0.00785932 -0.0370164)
(-0.133922 -0.101509 5.04514)
(0.282646 1.03154 4.0986)
(-0.229551 0.642029 5.42652)
(-0.0845293 0.183146 1.57241)
(0.177017 0.0919573 5.1901)
(-0.275206 0.819346 3.43286)
(-0.622789 0.350547 1.89081)
(-0.211502 -0.377211 1.68642)
(0.00138477 -0.0896701 0.124476)
(0.030419 0.102704 -0.17578)
(0.31276 0.546944 1.68741)
(-0.0179729 0.634844 1.62158)
(-0.750893 0.325755 1.79025)
(-0.792577 -0.494395 4.0222)
(-0.0484238 -0.339044 1.50818)
(0.0865768 0.198999 0.0148715)
(0.308139 0.0956821 0.748165)
(-1.10513 0.233869 2.15564)
(-0.485938 0.167423 3.3916)
(0.126291 -0.157464 0.541661)
(0.0649588 -0.00839538 -0.137042)
(0.215646 -0.252635 0.537732)
(-0.26363 0.320726 0.183535)
(0.315818 0.0429453 0.0401298)
(-0.145212 0.317307 4.39006)
(0.297039 0.649043 4.22266)
(0.0232076 0.171081 5.59851)
(0.321053 0.0943191 1.61966)
(-0.0486573 0.573301 4.81142)
(-0.175902 0.672645 2.32807)
(0.114813 0.384786 1.44673)
(-0.0111712 -0.411849 2.18741)
(0.104687 -0.185138 0.213605)
(0.00234991 -0.00229683 0.00155869)
(0.0144945 0.236302 -0.118269)
(0.0760038 0.679399 1.63828)
(0.133288 0.876691 1.39444)
(-0.762839 0.172604 2.04813)
(-0.351223 -0.230276 2.54393)
(0.131391 -0.0601716 1.04339)
(0.0305685 -0.000729576 0.00759491)
(0.0120066 0.363789 0.19753)
(0.128013 0.295966 1.00819)
(-0.767874 0.167902 1.74822)
(-1.03284 0.544485 2.47568)
(0.371823 0.0799423 0.765766)
(-0.00191159 0.255148 0.0985456)
(0.0578692 -0.135989 0.624986)
(-0.372877 0.305677 1.26008)
(0.43744 -0.00735782 0.680095)
(0.0477798 0.290691 2.92696)
(0.0853073 0.246666 4.16913)
(0.271612 0.03294 4.66098)
(0.650468 0.12448 1.43317)
(-0.0398833 0.720362 4.08947)
(0.159614 0.568331 2.33)
(0.269504 0.217498 1.89062)
(-0.0552646 -0.0718374 2.32577)
(0.0784096 -0.035349 0.543879)
(-0.0325795 -0.129164 -0.0179342)
(-0.0105066 0.394478 0.0723251)
(-0.120809 1.05872 2.0776)
(0.224353 0.770069 1.56486)
(-0.432321 -0.0820698 1.94554)
(-0.320867 -0.377354 2.8948)
(0.00756141 -0.317747 1.10847)
(-0.374124 -0.496818 0.113863)
(-0.150589 0.272305 0.601126)
(0.168904 0.290486 1.24399)
(-0.187288 -0.00708424 1.73529)
(-0.472535 0.514378 1.97058)
(-0.556576 0.26326 0.148915)
(-0.711347 -0.204803 -0.475893)
(0.0726715 0.317849 0.483586)
(0.119005 -0.0563846 0.746739)
(-0.154963 0.061063 1.28211)
(0.27867 0.12807 0.720136)
(0.141944 -0.000776563 1.84206)
(0.2369 0.0224223 3.29925)
(0.368138 0.13045 4.51803)
(0.409716 0.20166 1.43335)
(-0.0243055 0.538051 3.37452)
(0.138389 0.379658 2.35529)
(0.201808 0.0690925 1.79982)
(0.00177103 -0.078235 2.1653)
(0.0941243 -0.175088 0.943464)
(-0.0540357 0.109898 0.210204)
(-0.119686 0.412129 0.626184)
(0.00828231 1.07035 1.96557)
(0.131248 0.540511 1.76058)
(-0.257193 -0.239294 1.99297)
(-0.255779 -0.367325 2.45266)
(-0.462433 -0.362951 0.691262)
(-0.516278 -0.051742 0.0549842)
(-0.0675508 0.285985 1.05206)
(0.180963 0.1214 1.27257)
(0.194078 -0.0600511 1.91091)
(-0.104967 0.0558511 1.72719)
(-0.074754 0.00547767 -0.0466979)
(-0.428017 0.0732041 -0.559323)
(0.0253664 0.280111 0.553897)
(0.258574 -0.109989 0.903773)
(-0.0623181 0.0317993 1.596)
(0.194672 0.00570674 0.431208)
(0.137466 -0.255606 1.40372)
(0.226959 0.00151072 2.85798)
(0.360318 0.13525 4.0693)
(0.373369 0.175681 1.54139)
(-0.00253376 0.440228 2.75091)
(0.0241021 0.220043 2.16817)
(0.12861 -0.0171709 1.88287)
(0.104595 -0.115621 2.17507)
(0.238675 0.0459189 1.22218)
(0.697834 0.235786 0.300833)
(-0.084447 0.173488 1.12713)
(0.130586 0.643606 1.8925)
(-0.0171773 0.299281 1.79007)
(-0.200422 -0.276699 2.16471)
(-0.129472 -0.340147 2.39309)
(-0.218594 -0.245357 0.576188)
(-0.00757895 0.4729 -0.117509)
(0.0295792 0.571779 1.49961)
(0.177804 0.00222372 1.18756)
(0.276251 -0.0869172 1.86276)
(0.166175 -0.055541 1.68934)
(0.207362 -0.280666 0.161634)
(0.0122459 0.108015 0.485573)
(0.0592236 0.0384127 1.17506)
(-0.0969352 0.0510639 1.76065)
(0.266375 0.0377999 0.743124)
(0.0878098 -0.21599 0.865743)
(0.110603 -0.0931059 2.61103)
(0.330178 0.0456531 4.02289)
(0.216898 0.0836633 1.71773)
(0.0192012 0.226503 2.15488)
(-0.0108086 0.0187801 2.07386)
(0.137463 -0.0913462 2.03109)
(0.122459 -0.140006 2.24107)
(0.213213 0.281616 1.31041)
(-0.0647191 0.0984934 1.26888)
(0.133947 0.388444 1.66734)
(-0.0973434 0.159798 1.86331)
(-0.148444 -0.301363 2.22571)
(-0.0645168 -0.338785 2.31731)
(0.000555286 0.0713191 0.430208)
(0.0847653 0.512733 1.54512)
(0.227551 -0.00767167 1.1382)
(0.262665 -0.131259 1.74673)
(0.113232 -0.16656 1.56566)
(0.159493 -0.291386 0.142525)
(0.144053 0.0276526 0.474083)
(-0.145612 0.12033 1.45887)
(-0.167763 0.0815209 1.75086)
(0.171434 0.0483988 0.69507)
(0.00665076 -0.186593 0.994771)
(0.0745587 -0.140383 2.54911)
(0.257544 -0.0246519 3.86274)
(0.118086 0.0271101 1.86519)
(0.0417044 -0.0197826 2.01168)
(-0.0212071 -0.0924827 2.08327)
(0.149978 -0.1126 2.11703)
(0.162898 -0.145456 2.28259)
(0.248011 0.344488 1.54502)
(-0.0595209 0.0554199 1.30818)
(0.148834 0.201532 1.48808)
(-0.0825148 0.115537 1.90668)
(-0.104352 -0.305502 2.20467)
(0.0170258 -0.347747 2.27181)
(0.107448 0.225747 0.719452)
(0.0914628 0.345405 1.49484)
(0.361003 0.0449224 1.13091)
(0.298609 -0.110747 1.59178)
(0.196568 -0.228762 1.44805)
(0.103826 -0.251719 0.229388)
(0.22798 -0.00634432 0.614517)
(-0.206479 0.112981 1.63325)
(-0.199398 0.118179 1.70293)
(0.134783 0.0167278 0.787363)
(0.0229172 -0.20273 1.14749)
(0.00178727 -0.216658 2.43984)
(0.204063 -0.0878529 3.69008)
(0.100123 -0.00450603 2.03191)
(0.0687713 -0.103948 1.84549)
(0.0453474 -0.138232 2.03611)
(0.124041 -0.119607 2.14375)
(0.192673 -0.135924 2.28301)
(0.242792 0.336099 1.70891)
(-0.0599088 0.0308077 1.28992)
(0.257261 0.109853 1.35165)
(-0.0334985 0.0860903 1.88437)
(-0.099154 -0.293804 2.16252)
(0.0930063 -0.36656 2.23405)
(0.0524949 0.272244 0.983672)
(-0.129778 0.0887136 1.36757)
(0.474392 0.0900276 1.11153)
(0.323711 -0.0464931 1.4827)
(0.271465 -0.211823 1.34202)
(0.0509789 -0.0177728 0.506159)
(0.210322 -0.0296195 0.83834)
(-0.143967 0.0804962 1.73642)
(-0.113699 0.104752 1.58684)
(0.135723 0.00260117 0.950316)
(0.0831142 -0.229508 1.45731)
(-0.00572357 -0.23431 2.38327)
(0.165356 -0.11938 3.5949)
(0.103546 -0.0128315 2.21414)
(0.0923519 -0.125755 1.84796)
(0.0960175 -0.179939 1.95824)
(0.0960508 -0.148899 2.13834)
(0.20428 -0.0996067 2.29542)
(0.22015 0.308804 1.83533)
(0.00761176 -0.0942929 1.22029)
(0.116318 -0.0544488 1.29486)
(0.127592 0.0129427 1.84839)
(-0.123755 -0.260183 2.06709)
(0.151183 -0.358929 2.21442)
(0.0218781 0.275482 1.25134)
(-0.236559 0.00924871 1.0638)
(0.47934 0.111096 1.09376)
(0.29351 0.00546156 1.45492)
(0.168414 -0.192365 1.24505)
(0.00219293 0.151398 0.821557)
(0.0619519 -0.0275826 1.06776)
(-0.141732 0.0690385 1.78699)
(-0.0637264 0.0987912 1.54215)
(0.136727 -0.00688015 1.12292)
(0.100558 -0.195187 1.68345)
(0.0127048 -0.201196 2.32082)
(0.134341 -0.112352 3.50806)
(0.100445 -0.0173129 2.37568)
(0.0442551 -0.153786 1.90133)
(0.148855 -0.227947 1.92207)
(0.101885 -0.169141 2.14534)
(0.210488 -0.0720716 2.31094)
(0.193399 0.286296 1.96764)
(-0.0266478 -0.283885 1.34042)
(-0.120755 -0.334497 1.34226)
(0.368934 0.00973203 1.78823)
(-0.0537847 -0.213808 1.99069)
(0.212715 -0.282274 2.18046)
(-0.00173498 0.270429 1.48148)
(-0.0623954 -0.0051257 0.771854)
(0.339135 0.135687 1.06533)
(0.182497 0.0607033 1.48807)
(0.0873368 -0.130288 1.21505)
(-0.0609287 0.270716 1.09528)
(-0.122527 -0.00461167 1.2672)
(-0.169616 0.0689676 1.77767)
(-0.0840639 0.0637953 1.50446)
(0.156829 -0.0124223 1.31181)
(0.0896774 -0.159974 1.83486)
(0.0113715 -0.16737 2.27383)
(0.105874 -0.116089 3.41396)
(0.0895731 -0.0198289 2.51956)
(0.00739928 -0.16586 2.00808)
(0.284052 -0.276886 1.88685)
(0.133666 -0.17847 2.15034)
(0.229798 -0.0676158 2.32688)
(0.172784 0.264287 2.09272)
(-0.0123315 -0.14805 1.4519)
(-0.141292 -0.337444 1.36311)
(0.49386 0.0749501 1.599)
(0.160598 -0.106646 1.9332)
(0.258988 -0.194042 2.16833)
(-0.00752872 0.244485 1.66642)
(-0.0174797 -0.113329 0.6463)
(0.15136 0.0645211 1.03315)
(0.0599519 0.0907248 1.49362)
(0.110375 -0.0469142 1.27889)
(-0.103567 0.346398 1.27703)
(-0.28773 0.0224266 1.48432)
(-0.235777 0.0796104 1.73372)
(-0.0833338 -0.00997101 1.12967)
(0.182826 -0.00596382 1.52418)
(0.067855 -0.127622 1.95091)
(0.0253852 -0.144282 2.27769)
(0.0986711 -0.112277 3.3383)
(0.0920507 -0.0161588 2.63772)
(-0.078888 -0.129987 2.11796)
(0.418753 -0.317895 1.7853)
(0.219049 -0.189794 2.16144)
(0.243838 -0.0623672 2.36443)
(0.16039 0.239569 2.20596)
(-0.00886695 -0.0418108 1.5366)
(-0.274275 -0.203987 1.28487)
(0.420843 0.0328492 1.33318)
(0.260836 -0.0430747 1.90957)
(0.28352 -0.129761 2.188)
(-0.0121557 0.211343 1.82448)
(-0.0131529 -0.176075 0.667409)
(0.0613275 -0.0865689 1.03509)
(-0.030174 0.0609871 1.44585)
(0.180406 0.0972374 1.36912)
(-0.126334 0.376108 1.42095)
(-0.363267 -0.0101417 1.64827)
(-0.293315 0.101398 1.62413)
(-0.171948 0.116792 0.986164)
(0.181405 -0.00603692 1.72485)
(0.0509303 -0.112069 2.05104)
(0.0726119 -0.158324 2.31905)
(0.106103 -0.134673 3.27701)
(0.0945884 -0.00145539 2.73631)
(-0.252968 -0.132063 2.19584)
(0.41297 -0.346718 1.65235)
(0.284734 -0.181953 2.23058)
(0.223866 -0.0642916 2.42999)
(0.148104 0.214036 2.33313)
(0.0029637 -0.0933823 1.51828)
(-0.0486737 -0.144627 1.22409)
(0.272858 -0.0971918 1.17612)
(0.261053 -0.0359949 1.87971)
(0.30637 -0.0652012 2.18532)
(-0.010183 0.166863 1.95299)
(-0.0345898 -0.208062 0.771396)
(0.0312931 -0.215687 1.03739)
(-0.0726425 -0.0146548 1.38444)
(0.149144 0.171186 1.3501)
(-0.146247 0.38861 1.55784)
(-0.295716 -0.118139 1.67328)
(-0.279977 0.100561 1.56458)
(-0.296348 0.208398 1.0299)
(0.192927 -0.0127408 1.91333)
(0.0473844 -0.0282901 2.09307)
(0.132578 -0.183533 2.43377)
(0.125103 -0.150351 3.21356)
(0.103598 0.0235325 2.81191)
(-0.251922 -0.132875 2.2538)
(0.238387 -0.347307 1.52854)
(0.302402 -0.130293 2.32302)
(0.189607 -0.0720205 2.49523)
(0.130029 0.201617 2.46179)
(0.0161865 0.000614088 0.856444)
(0.215326 -0.166571 1.09787)
(0.164449 -0.19081 1.10591)
(0.186899 -0.0431053 1.8151)
(0.284559 -0.0167099 2.13429)
(0.0450087 0.103941 2.08236)
(-0.0347039 -0.185884 0.850451)
(0.00252291 -0.261038 1.03782)
(-0.0589717 -0.13138 1.35554)
(-0.0618773 0.118798 1.21553)
(-0.16879 0.393084 1.70658)
(-0.186303 -0.319831 1.3991)
(-0.140291 0.0850778 1.61844)
(-0.287421 0.239265 1.13788)
(0.193052 -0.015824 2.08308)
(-0.00695563 0.0372878 2.05072)
(0.137518 -0.191606 2.52235)
(0.127438 -0.139508 3.17788)
(0.10319 0.0609486 2.86803)
(-0.13374 -0.155498 2.37103)
(0.0716595 -0.300405 1.45687)
(0.279606 -0.0515231 2.35593)
(0.159354 -0.0698049 2.56718)
(0.116043 0.19386 2.58802)
(-0.0154969 0.0203448 0.59567)
(0.181159 -0.17031 0.964153)
(0.108895 -0.215905 1.07101)
(0.0904642 -0.0403162 1.80638)
(0.219121 0.00888175 2.05958)
(0.0691731 0.0807103 2.21773)
(0.013133 -0.149725 0.81134)
(-0.0316907 -0.2488 1.03139)
(-0.0268687 -0.230638 1.36756)
(-0.114826 -0.12224 1.13315)
(-0.141317 0.34666 1.85003)
(-0.192271 -0.22005 0.986344)
(0.0533824 -0.164465 1.71947)
(0.0602385 0.0579401 1.36694)
(0.181467 -0.0143768 2.23904)
(-0.0173888 0.0666072 1.94904)
(0.165754 -0.0898109 2.59852)
(0.133655 -0.0830175 3.15634)
(0.121726 0.0981428 2.90351)
(0.0106123 -0.0676585 2.46439)
(0.03114 -0.249551 1.44325)
(0.237193 0.00901989 2.34945)
(0.138037 -0.0545809 2.63897)
(0.104815 0.190395 2.69893)
(-0.0168705 0.143283 0.535747)
(0.210709 -0.0762772 0.874003)
(0.0983749 -0.208443 1.06486)
(0.0765702 -0.0161454 1.84256)
(0.181119 0.0445363 2.05219)
(0.0750725 0.0833887 2.35264)
(-0.000781635 -0.126833 0.689261)
(-0.0344203 -0.217323 1.01214)
(0.00964075 -0.256602 1.38939)
(-0.0813944 -0.246095 1.21386)
(-0.127538 0.302181 1.97155)
(-0.156732 -0.168697 0.748914)
(-0.019405 -0.199599 1.49247)
(0.206117 -0.124623 1.16615)
(0.174044 -0.00445133 2.35481)
(-0.036183 -0.0478613 1.80696)
(0.145301 0.0268753 2.67702)
(0.144282 -0.020621 3.13628)
(0.13211 0.128573 2.92812)
(0.155873 0.0363866 2.54821)
(0.085614 -0.21368 1.47447)
(0.216342 0.0420717 2.32624)
(0.15082 -0.0308928 2.69285)
(0.0991893 0.19675 2.79305)
(-0.00682513 0.178307 0.597842)
(0.216819 -0.0213066 0.859759)
(0.105622 -0.189954 1.07286)
(0.113163 0.0681094 1.91804)
(0.153467 0.112155 2.08164)
(0.0666383 0.109764 2.4822)
(-0.00812165 -0.117571 0.587548)
(-0.019156 -0.184388 0.987811)
(0.0349352 -0.21628 1.42607)
(-0.0899662 -0.142206 1.33506)
(-0.138096 0.292229 2.07758)
(-0.101538 -0.147147 0.613402)
(0.00935643 -0.0996785 1.16418)
(0.0509569 -0.0449703 0.990985)
(0.177591 0.0113656 2.42304)
(-0.167351 -0.06925 1.85209)
(0.154123 0.122831 2.77553)
(0.176493 0.0181807 3.11398)
(0.158552 0.138556 2.95215)
(0.385862 0.107766 2.4641)
(0.248673 -0.115219 1.6276)
(0.227379 0.0805975 2.3042)
(0.193359 -0.00571091 2.73754)
(0.0976796 0.204367 2.87022)
(-0.00122503 0.0511069 0.635747)
(0.11883 -0.0535472 0.940333)
(0.111738 -0.150268 1.08043)
(0.143342 0.149021 1.98047)
(0.125548 0.173238 2.10788)
(0.0462171 0.160235 2.59244)
(0.00887614 -0.0917392 0.511686)
(-0.0281937 -0.160705 0.95752)
(0.0462006 -0.0672519 1.50304)
(-0.0687044 -0.00646649 1.42535)
(-0.147612 0.313311 2.16276)
(-0.106929 -0.128588 0.517443)
(-0.045067 0.00944689 1.01973)
(-0.114228 0.0675413 0.983914)
(0.262184 0.0229681 2.42983)
(-0.213743 0.194682 1.88418)
(0.387628 0.143377 2.63831)
(0.223558 0.0365715 3.09796)
(0.177762 0.137915 2.98249)
(0.407788 0.0913342 2.35102)
(0.330177 0.0367702 1.81277)
(0.217893 0.122144 2.30244)
(0.211901 0.0154511 2.78653)
(0.10046 0.213267 2.93815)
(-0.00039843 0.00774186 0.600976)
(0.0900631 -0.112361 0.979615)
(0.12598 -0.0581328 1.10021)
(0.14281 0.174844 2.00118)
(0.116898 0.215713 2.14051)
(0.0290389 0.215844 2.68382)
(0.0119323 -0.0707474 0.455516)
(-0.0700501 -0.134407 0.944433)
(0.0264944 0.0814809 1.55181)
(-0.0375532 0.0871772 1.50883)
(-0.157785 0.344314 2.24002)
(-0.150156 -0.114747 0.460802)
(-0.134074 0.0868585 1.02249)
(-0.202272 0.135738 1.04326)
(0.322933 0.0206887 2.48269)
(-0.148092 0.114136 1.83236)
(0.0805655 0.272134 1.90756)
(0.268516 0.0435577 3.05732)
(0.19563 0.128315 3.0139)
(0.251914 0.166294 2.19638)
(0.334146 0.179558 1.97234)
(0.161788 0.190634 2.31728)
(0.209008 0.0362426 2.81743)
(0.10547 0.222745 2.99726)
(0.00532466 -0.00348908 0.564338)
(0.111697 -0.0315773 0.980858)
(0.16123 0.0924741 1.16134)
(0.123528 0.185139 1.99651)
(0.122733 0.241838 2.16689)
(0.0194774 0.264821 2.76754)
(0.00170156 -0.0501169 0.435607)
(-0.120628 -0.10304 0.965386)
(0.00101275 0.188419 1.56963)
(0.00440644 0.156371 1.59564)
(-0.166191 0.379135 2.32434)
(-0.189734 -0.108781 0.445388)
(-0.201348 0.123241 1.08367)
(-0.245275 0.170218 1.14018)
(0.277983 0.0329655 2.59474)
(0.160402 -0.205367 1.65101)
(0.140394 0.0819668 1.36135)
(0.396728 0.0581794 3.0478)
(0.202907 0.116813 3.05259)
(0.244098 0.497069 1.76731)
(0.348224 0.265538 2.0707)
(0.153787 0.27396 2.34329)
(0.221947 0.0619664 2.81599)
(0.111968 0.226723 3.05054)
(0.00500061 -0.0281391 0.558732)
(0.0654478 0.169009 1.0665)
(0.192059 0.230786 1.25885)
(0.113831 0.217802 1.99059)
(0.120505 0.259558 2.17971)
(0.0146185 0.303625 2.84753)
(-0.0163407 -0.0336189 0.457524)
(-0.170868 -0.0802492 1.02559)
(-0.0109319 0.263563 1.58695)
(0.0151112 0.19982 1.68941)
(-0.1773 0.414244 2.40102)
(-0.209772 -0.107442 0.462965)
(-0.249213 0.13553 1.17416)
(-0.282406 0.191225 1.26905)
(0.219722 0.0295404 2.71185)
(0.186973 -0.0442108 1.17411)
(0.307401 -0.0392012 1.12383)
(0.424803 0.0426856 2.98631)
(0.20907 0.102109 3.10423)
(0.0446013 0.284663 1.3212)
(0.390363 0.291912 2.08305)
(0.21661 0.330619 2.37157)
(0.236111 0.094723 2.80771)
(0.118807 0.225071 3.10408)
(-0.0117577 -0.0568224 0.579436)
(-0.0503876 -0.0351266 1.14743)
(0.191251 0.292432 1.3656)
(0.141241 0.284139 2.00072)
(0.0926386 0.278495 2.19011)
(0.012681 0.332843 2.92494)
(-0.0383372 -0.0531842 0.507112)
(-0.224281 -0.0856081 1.10822)
(0.00200917 0.318207 1.62268)
(0.00772975 0.228476 1.77194)
(-0.183204 0.429696 2.48941)
(-0.219315 -0.110286 0.507348)
(-0.286115 0.137933 1.28468)
(-0.322735 0.208453 1.41502)
(0.0765411 0.0283441 2.71946)
(0.109187 -0.0627868 0.862267)
(0.253784 -0.0305288 1.03721)
(0.386187 -0.00856392 2.7409)
(0.214304 0.0819507 3.13301)
(-0.0398951 -0.0557178 1.13563)
(0.407008 0.299753 2.03291)
(0.28334 0.36475 2.38368)
(0.216187 0.121063 2.80679)
(0.128608 0.224613 3.15826)
(-0.0214091 -0.0604679 0.610082)
(-0.119637 -0.143725 1.11343)
(0.138464 0.266613 1.44481)
(0.207983 0.407582 2.03305)
(0.058436 0.315423 2.20595)
(0.0117493 0.349752 2.99831)
(-0.0535131 -0.0721658 0.564357)
(-0.272655 -0.112536 1.1882)
(0.0412715 0.35788 1.68751)
(-0.0267332 0.250665 1.85084)
(-0.183697 0.432849 2.5923)
(-0.219956 -0.115821 0.564767)
(-0.315559 0.134788 1.40964)
(-0.363348 0.236162 1.58395)
(-0.139048 0.0188465 2.67046)
(0.0505251 -0.0840636 0.787002)
(0.153251 -0.0194427 1.03772)
(0.229669 -0.0379813 2.34667)
(0.210402 0.0585661 3.1437)
(-0.0886833 -0.167945 1.0701)
(0.356275 0.284304 1.88161)
(0.318563 0.432094 2.34676)
(0.184614 0.154002 2.80254)
(0.134717 0.227643 3.19743)
(-0.0217904 -0.0443782 0.651835)
(-0.129723 -0.133581 1.10247)
(-0.0215527 0.144727 1.484)
(0.266855 0.500913 2.04361)
(0.0599584 0.365167 2.23799)
(0.0104952 0.35621 3.06277)
(-0.0588256 -0.072332 0.626052)
(-0.294801 -0.140152 1.24301)
(0.0916459 0.38308 1.78654)
(-0.0565016 0.275837 1.96028)
(-0.180195 0.427774 2.70122)
(-0.211148 -0.121607 0.623676)
(-0.338732 0.117096 1.53608)
(-0.399894 0.264513 1.77853)
(-0.245388 0.0375465 2.50746)
(0.0173734 -0.0885324 0.842317)
(0.0373698 0.000626529 1.08807)
(-0.132675 0.0866294 1.89249)
(0.221692 0.0353547 3.13131)
(-0.0807188 -0.170656 1.09582)
(0.213861 0.120268 1.65842)
(0.345218 0.539106 2.24516)
(0.184539 0.208273 2.79709)
(0.136679 0.23761 3.22418)
(-0.0179536 -0.0287383 0.70369)
(-0.0987827 -0.0781552 1.11689)
(-0.162973 -0.0218939 1.49471)
(0.305934 0.53053 2.00957)
(0.0917794 0.413823 2.29422)
(0.00669783 0.357273 3.12925)
(-0.0590225 -0.0606446 0.685071)
(-0.288023 -0.155867 1.26117)
(0.112766 0.370115 1.91731)
(-0.0624609 0.305071 2.10834)
(-0.17869 0.420995 2.82736)
(-0.194773 -0.117465 0.676746)
(-0.350354 0.0693489 1.63237)
(-0.420029 0.28179 1.98961)
(-0.0538949 0.038489 2.32484)
(0.0159415 -0.0853935 0.939077)
(0.00505432 -0.0493674 1.22975)
(-0.0238373 0.10778 1.60988)
(0.282605 0.0627036 3.12225)
(-0.0533213 -0.136095 1.12107)
(0.157766 -0.0401418 1.54662)
(0.356421 0.542822 2.07118)
(0.230373 0.295566 2.8157)
(0.127198 0.252544 3.25046)
(-0.0104316 -0.0179377 0.759009)
(-0.0525765 -0.0610885 1.09382)
(-0.135034 -0.157288 1.47111)
(0.323532 0.50308 1.97881)
(0.133704 0.459132 2.38227)
(-0.00289098 0.364084 3.20482)
(-0.056042 -0.0561778 0.748855)
(-0.25636 -0.155284 1.25354)
(0.0390923 0.267062 2.05803)
(-0.0510147 0.327916 2.2747)
(-0.183519 0.414847 2.97329)
(-0.174561 -0.0897796 0.72673)
(-0.348813 -0.0182344 1.6634)
(-0.426541 0.287915 2.1973)
(0.179344 0.00617187 2.38598)
(0.0432754 -0.0946178 1.01425)
(0.0612147 -0.0822084 1.32621)
(0.179094 0.0572454 1.67373)
(0.370865 0.0573006 3.01261)
(-0.0318795 -0.14537 1.10457)
(0.199275 -0.137386 1.47879)
(0.336397 0.377762 1.89072)
(0.270996 0.391678 2.85003)
(0.114931 0.278851 3.29011)
(-0.00467618 -0.0162962 0.800499)
(-0.00575573 -0.049782 1.01688)
(-0.00348851 -0.251762 1.4149)
(0.3113 0.401938 1.98089)
(0.14813 0.510132 2.5094)
(-0.0164242 0.379175 3.29272)
(-0.0523415 -0.0731106 0.809606)
(-0.156924 -0.127287 1.22048)
(-0.128313 0.0729253 2.19581)
(-0.00906737 0.381696 2.44039)
(-0.182381 0.408979 3.12755)
(-0.154164 -0.0518734 0.773747)
(-0.31004 -0.0971743 1.6228)
(-0.42145 0.285268 2.39529)
(0.251266 -0.00308197 2.46146)
(0.0751012 -0.102576 1.04538)
(0.0965393 -0.0849765 1.36529)
(0.307181 -0.0107437 1.7584)
(0.342304 0.0762961 2.74585)
(0.0248965 -0.150862 1.04944)
(0.269066 -0.189931 1.42168)
(0.289305 0.153731 1.81028)
(0.283054 0.467722 2.86778)
(0.11373 0.309071 3.34539)
(-0.00280092 -0.0259318 0.808051)
(0.0201354 -0.0737408 0.931628)
(0.129 -0.307714 1.34709)
(0.186862 0.13281 2.0612)
(0.135982 0.554156 2.64222)
(-0.0308473 0.400999 3.38551)
(-0.049075 -0.0963788 0.844216)
(-0.0691431 -0.098081 1.17976)
(-0.266519 -0.101163 2.27377)
(0.00933038 0.416758 2.586)
(-0.179675 0.406441 3.2769)
(-0.134332 -0.0313877 0.807749)
(-0.23362 -0.138298 1.52894)
(-0.394644 0.278198 2.59047)
(0.264784 -0.0124211 2.51766)
(0.0780891 -0.0895226 1.03933)
(0.103162 -0.0463367 1.37077)
(0.328584 -0.081171 1.74621)
(0.288228 -0.0625702 2.54834)
(0.0733265 -0.145265 0.994163)
(0.317187 -0.204676 1.39507)
(0.244365 -0.0620049 1.83513)
(0.284017 0.494474 2.85327)
(0.119494 0.354786 3.41406)
(-0.00222098 -0.0417706 0.774848)
(0.0395214 -0.123204 0.87464)
(0.211348 -0.337038 1.29693)
(0.0419546 -0.133758 2.13829)
(0.129436 0.566859 2.74275)
(-0.0386801 0.426236 3.4774)
(-0.0433916 -0.113313 0.840978)
(-0.0254485 -0.0861303 1.1277)
(-0.315227 -0.199853 2.27194)
(0.00341957 0.409526 2.71177)
(-0.178116 0.408683 3.41918)
(-0.119397 -0.0302748 0.815873)
(-0.162762 -0.158298 1.42335)
(-0.357349 0.269036 2.78393)
(0.252571 -0.0296407 2.60945)
(0.0643061 -0.0571214 1.00709)
(0.196096 0.0486963 1.3394)
(0.30038 -0.119872 1.75281)
(0.258698 -0.0736928 2.54054)
(0.102354 -0.151176 0.952634)
(0.330865 -0.198418 1.40435)
(0.212044 -0.221279 1.9092)
(0.284908 0.482088 2.81519)
(0.108866 0.411449 3.48376)
(-0.00404773 -0.0454634 0.729287)
(0.0627835 -0.156818 0.83519)
(0.242522 -0.351556 1.26359)
(-0.0134266 -0.282224 2.17637)
(0.135044 0.546563 2.81346)
(-0.0387824 0.455167 3.56999)
(-0.0311926 -0.127331 0.803759)
(-0.0149254 -0.0927823 1.06746)
(-0.296955 -0.234762 2.2345)
(0.00513603 0.385308 2.82796)
(-0.185897 0.418856 3.55647)
(-0.109683 -0.0447841 0.800772)
(-0.114225 -0.17085 1.32362)
(-0.329892 0.262192 2.98512)
(0.227754 -0.0364352 2.73686)
(0.0899642 -0.0710797 0.958195)
(0.263395 0.0760902 1.28739)
(0.274843 -0.0992978 1.77523)
(0.250305 -0.0146111 2.59767)
(0.121474 -0.176455 0.905029)
(0.325276 -0.170942 1.4563)
(0.193083 -0.301844 2.00028)
(0.272608 0.402153 2.74556)
(0.106956 0.466517 3.55051)
(-0.00316813 -0.0398363 0.681185)
(0.0859251 -0.174676 0.787356)
(0.244127 -0.3562 1.24069)
(0.00772926 -0.348816 2.19244)
(0.13578 0.474149 2.87628)
(-0.0354998 0.48144 3.66606)
(-0.0168331 -0.134115 0.745532)
(-0.0154506 -0.106209 0.992365)
(-0.224542 -0.239301 2.18363)
(0.0166795 0.35295 2.94272)
(-0.196754 0.438442 3.69005)
(-0.103662 -0.0662549 0.757745)
(-0.0775111 -0.177393 1.22694)
(-0.326339 0.252377 3.20205)
(0.198598 -0.0383858 2.88903)
(0.132404 -0.107331 0.910327)
(0.28254 0.0699068 1.23767)
(0.26696 -0.0555191 1.80001)
(0.241878 0.0530241 2.68559)
(0.126668 -0.211684 0.838989)
(0.29048 -0.131744 1.55076)
(0.201882 -0.320219 2.08556)
(0.253777 0.31783 2.70122)
(0.124944 0.498249 3.5917)
(-0.00264289 -0.0443739 0.616606)
(0.0959964 -0.182823 0.728375)
(0.226468 -0.362105 1.22856)
(0.0429623 -0.370323 2.1997)
(0.13175 0.355979 2.93781)
(-0.0352213 0.507364 3.76924)
(-0.000463001 -0.136827 0.671678)
(-0.0146146 -0.1121 0.904457)
(-0.151988 -0.243613 2.1428)
(0.0269321 0.300499 3.06167)
(-0.204901 0.461803 3.8155)
(-0.10085 -0.0850529 0.69142)
(-0.0576077 -0.176026 1.1341)
(-0.349779 0.212429 3.39794)
(0.182449 -0.00183938 3.02362)
(0.177199 -0.151001 0.852512)
(0.309783 0.0528976 1.17689)
(0.247034 -0.00485189 1.83252)
(0.252277 0.100267 2.79241)
(0.131365 -0.242899 0.76251)
(0.241742 -0.0957177 1.64486)
(0.215036 -0.295212 2.15731)
(0.243093 0.277095 2.68428)
(0.151897 0.499101 3.60443)
(-0.00463472 -0.0579243 0.540743)
(0.0907292 -0.191889 0.663813)
(0.191392 -0.37597 1.21869)
(0.0735406 -0.358177 2.20336)
(0.129516 0.247608 2.98742)
(-0.0387975 0.526409 3.87051)
(0.0122865 -0.136863 0.587995)
(-0.0137529 -0.112736 0.810709)
(-0.130817 -0.255272 2.11024)
(0.0300968 0.240242 3.19092)
(-0.210089 0.487373 3.92944)
(-0.0994207 -0.0975533 0.611589)
(-0.0656709 -0.168849 1.03556)
(-0.355068 0.14278 3.487)
(0.18808 0.0182278 3.02136)
(0.219252 -0.200026 0.769674)
(0.346903 0.0223412 1.12962)
(0.218978 0.0303826 1.89582)
(0.254131 0.161663 2.90004)
(0.124104 -0.283796 0.683037)
(0.174507 -0.0488895 1.73757)
(0.201227 -0.24728 2.21493)
(0.24039 0.269526 2.68523)
(0.164086 0.48499 3.59888)
(-0.00794228 -0.0614973 0.468933)
(0.0605674 -0.204663 0.593766)
(0.15778 -0.380714 1.21742)
(0.0885224 -0.322548 2.21747)
(0.115954 0.200715 3.04955)
(-0.0415342 0.536665 3.96123)
(0.0161831 -0.135582 0.499243)
(-0.0236352 -0.113932 0.721284)
(-0.153566 -0.266246 2.08825)
(0.0218568 0.19323 3.33244)
(-0.219263 0.512671 4.03581)
(-0.103459 -0.102677 0.524104)
(-0.0920533 -0.156576 0.937573)
(-0.332498 0.094729 3.4693)
(0.21456 0.0396544 2.94515)
(0.252274 -0.260053 0.689099)
(0.392264 -0.00992481 1.11222)
(0.189368 0.0365517 1.98196)
(0.301141 0.228917 3.00176)
(0.0921214 -0.342176 0.60235)
(0.0965526 -0.00446395 1.8139)
(0.159121 -0.199128 2.25213)
(0.238708 0.27451 2.69542)
(0.171974 0.464812 3.58686)
(-0.00870804 -0.0501576 0.419575)
(0.00227685 -0.226856 0.526489)
(0.116869 -0.376449 1.22191)
(0.0697084 -0.281879 2.25904)
(0.0989598 0.212992 3.10521)
(-0.0476599 0.545901 4.03391)
(0.00934052 -0.133689 0.414734)
(-0.0458873 -0.116713 0.646854)
(-0.232812 -0.29008 2.06252)
(-0.0119084 0.163086 3.48983)
(-0.228569 0.535934 4.14076)
(-0.116826 -0.0984629 0.443098)
(-0.13916 -0.135549 0.853723)
(-0.222761 0.0880318 3.40935)
(0.286314 0.00908749 2.95055)
(0.272142 -0.307118 0.637708)
(0.435068 -0.0606421 1.11012)
(0.193438 -0.00688633 2.0661)
(0.375294 0.266112 3.09764)
(0.0506273 -0.38998 0.528674)
(0.0147714 0.028287 1.87192)
(0.127751 -0.141599 2.26431)
(0.237244 0.301886 2.70605)
(0.172738 0.450618 3.57421)
(-0.00578581 -0.0146743 0.40279)
(-0.0733392 -0.253388 0.467808)
(0.0486477 -0.367878 1.23217)
(0.026504 -0.255821 2.31998)
(0.0982136 0.249492 3.15343)
(-0.0559013 0.552058 4.08584)
(-0.00348484 -0.137954 0.343546)
(-0.0740506 -0.126564 0.592327)
(-0.337131 -0.330955 2.02516)
(-0.0616088 0.153158 3.63307)
(-0.237158 0.559036 4.23548)
(-0.140103 -0.0964077 0.384513)
(-0.220759 -0.101198 0.806178)
(-0.2189 0.169897 3.3858)
(0.228116 0.00845121 3.07264)
(0.284304 -0.331393 0.618488)
(0.479753 -0.0855316 1.11298)
(0.237491 -0.00117772 2.0843)
(0.395861 0.239456 3.16252)
(0.00692393 -0.424956 0.478621)
(-0.0355488 0.0333973 1.91998)
(0.130337 -0.0298801 2.2415)
(0.237421 0.33143 2.68845)
(0.173191 0.443137 3.55885)
(-0.00306291 0.0463943 0.42332)
(-0.148503 -0.255463 0.427329)
(-0.0584411 -0.342719 1.24132)