/*--------------------------------*- C++ -*----------------------------------*\
| =========                 |                                                 |
| \\      /  F ield         | OpenFOAM: The Open Source CFD Toolbox           |
|  \\    /   O peration     | Version:  5.x                                   |
|   \\  /    A nd           | Web:      www.OpenFOAM.org                      |
|    \\/     M anipulation  |                                                 |
\*---------------------------------------------------------------------------*/
FoamFile
{
    version     2.0;
    format      ascii;
    class       volScalarField;
    location    "0.3";
    object      voidfraction;
}
// * * * * * * * * * * * * * * * * * * * * * * * * * * * * * * * * * * * * * //

dimensions      [0 0 0 0 0 0 0];

internalField   nonuniform List<scalar> 
10571
(
0.997232
0.905468
0.885863
0.975547
0.924682
0.914772
0.967097
0.93968
0.906468
0.891022
0.99638
0.980302
0.97949
0.94648
0.886902
0.859941
0.917837
0.909088
0.930611
0.868705
0.841133
0.931699
0.927226
0.923263
0.994962
0.982216
0.989432
0.992113
0.993143
0.997482
0.998227
0.99775
0.995356
0.989374
0.999357
0.994044
0.997288
0.996873
0.991513
0.973195
0.993197
0.995434
0.996042
0.992666
0.978572
0.981137
0.992291
0.990916
1
0.979105
0.998083
0.995508
0.990555
0.99904
0.997974
0.996227
0.996787
0.991816
0.999562
0.997786
0.999492
0.998053
0.994262
0.975276
0.994905
0.997965
0.997155
0.995793
0.979308
0.98095
0.994049
0.986809
1
0.983216
0.998153
0.998352
0.996491
0.99566
0.999297
0.994855
0.997293
0.989097
0.996923
0.998352
0.998629
0.99808
0.993482
0.974834
0.99652
0.995066
0.997367
0.998037
0.990552
0.978451
0.99216
0.99594
0.996922
0.981576
0.999798
0.997871
0.989523
0.998346
0.999774
0.998662
0.996888
0.995375
0.990764
0.996149
0.99877
0.998388
0.99348
0.97859
0.989178
0.99589
0.995908
0.997285
0.99014
0.983739
0.994656
0.987665
1
0.985382
0.995107
0.998679
0.992721
0.991587
0.999559
0.999172
0.996404
0.99411
0.694645
0.995821
0.996381
0.998802
0.998432
0.994221
0.98001
0.505095
0.993084
0.997062
0.998367
0.994963
0.981268
0.986061
0.996497
0.995442
0.998901
0.991262
0.996017
0.997663
0.994488
0.99368
0.998142
0.998664
0.996678
0.991466
1
0.996371
0.998816
0.997502
0.998511
0.994217
0.980963
1
0.990376
0.99607
0.998459
0.996429
0.987365
1
0.98486
0.996799
0.994125
0.995713
0.985324
0.997469
0.997055
0.997626
0.996181
0.996272
0.996746
0.996081
0.991461
1
0.990983
0.998072
0.998731
0.998584
0.99436
0.975462
1
0.993564
0.99711
0.996552
0.996979
0.994459
1
0.988577
0.999185
0.998045
0.996812
0.986445
0.996153
0.997054
0.997348
0.996958
0.998925
0.996129
0.996191
0.988255
1
0.992962
0.999966
0.998936
0.996968
0.994354
0.981273
1
0.994496
0.997697
0.996821
0.994122
0.985973
0.980059
0.994986
0.99727
0.998901
0.991375
0.999022
0.995872
0.994189
0.99706
0.999127
0.996309
0.996696
0.99159
0.994722
0.999019
0.999664
0.997946
0.992618
0.985605
0.992903
0.997913
0.997555
0.995193
0.985308
0.987571
0.993235
0.996427
0.996812
0.988687
0.99774
0.998276
0.994652
0.99902
0.996878
0.995982
0.995706
0.98836
0.996811
0.99858
0.998967
0.997647
0.994081
0.98305
0.994467
0.997959
0.997957
0.997294
0.987095
0.986333
0.995622
0.991949
0.996812
0.98544
0.997067
0.995844
0.997807
0.999021
0.999275
0.998115
0.996565
0.992447
1
0.998445
0.998576
0.997672
0.992962
0.982928
0.996452
0.997783
0.997655
0.994794
0.980283
0.987069
0.993931
0.99811
1
0.983424
1
0.996419
0.997386
0.997062
0.998794
0.998346
0.996447
0.99
0.99912
0.997837
0.998534
0.997251
0.991615
0.982557
0.997925
0.995704
0.996168
0.996695
0.99643
0.991212
0.997373
0.996429
0.99956
0.98516
0.995482
0.998041
0.998167
0.998075
0.99897
0.997632
0.996596
0.990735
1
0.999087
0.996346
0.997479
0.990394
0.973274
0.996332
0.994529
0.996762
0.994792
0.986627
0.977197
0.9923
0.994609
0.993623
0.996192
0.99346
0.999291
0.998528
0.999021
0.998314
0.9984
0.994039
0.991161
0.997251
0.998039
0.997915
0.996767
0.990248
0.974725
0.994348
0.99268
0.996337
0.995092
0.993909
0.986643
0.999698
0.996499
1
0.997312
0.999562
0.997095
0.996515
1
0.998085
0.998073
0.993486
0.995658
1
0.999628
0.996527
0.995892
0.987723
0.966351
0.997114
0.995724
0.997421
0.992655
0.994539
0.978668
0.998128
0.99797
1
0.995184
0.997809
0.997264
0.997747
0.997062
0.995296
0.995813
0.994508
0.991974
0.998901
1
0.998515
0.997096
0.987634
0.966257
0.994979
0.996015
0.99844
0.991387
0.993278
0.988811
0.999124
0.993908
0.985269
0.982081
0.99727
0.995541
0.997236
0.998042
0.996231
0.995694
0.99389
0.995153
1
0.999358
0.997696
0.997255
0.988619
0.955826
0.997715
0.996402
0.998698
0.994525
0.98831
0.988387
0.998249
0.99748
0.99934
0.987401
0.992584
0.997061
0.998558
0.998042
0.995021
0.998258
0.995081
0.990504
1
0.99706
0.998431
0.998912
0.986418
0.960583
0.996453
0.993402
0.99831
0.99516
0.97319
0.980026
0.997404
0.99797
0.996812
0.977714
0.996056
1
0.998048
0.995746
0.997825
0.998331
0.995667
0.997713
0.996702
0.999358
0.998223
0.99832
0.987901
0.948703
0.99982
0.994331
0.99808
0.99299
0.97851
0.98467
0.999426
1
1
0.973573
0.998551
0.998379
0.999249
0.997062
0.998466
0.997126
0.996604
0.988642
0.998901
0.999662
0.99338
0.997681
0.986138
0.957772
0.998286
0.99505
0.996911
0.985713
0.98817
0.980178
1
0.98985
0.992634
0.974802
0.998045
0.997399
0.998198
0.999494
0.993827
0.998749
0.996559
0.993836
0.996812
0.99902
0.998035
0.998281
0.984687
0.956018
0.996062
0.995954
0.998553
0.996428
0.99188
0.973945
0.998249
0.98621
0.997691
0.982641
0.996764
0.999358
0.997176
1
0.995414
0.997624
0.996834
0.995658
1
1
0.996754
0.998869
0.984967
0.967989
0.995341
0.996709
0.997619
0.99279
1
0.981533
0.998249
0.99174
0.996811
0.988633
0.996022
0.997602
0.997387
0.998413
0.994121
0.997655
0.996563
0.996511
0.99989
0.998209
0.998573
0.998443
0.982267
0.945378
0.995731
0.996221
0.998508
0.990653
0.99594
0.984475
0.998249
0.99454
1
0.995185
0.995415
0.999358
0.997957
1
0.993823
0.996842
0.996167
0.989805
0.998791
0.998682
0.999777
0.999191
0.982142
0.93897
0.992665
0.997065
0.997445
0.99516
0.99636
0.983933
0.997373
0.99545
0.996701
0.995129
0.998247
1
0.996785
1
0.990672
0.99802
0.989185
0.992441
0.99989
1
0.999262
0.998877
0.981258
0.953751
0.994228
0.996947
0.996576
0.997997
0.99307
0.990979
0.996226
0.99097
0.993622
0.993281
0.997067
1
0.998288
1
0.996219
0.998691
0.993728
0.994185
0.99923
0.999797
0.995015
0.999605
0.979382
0.954084
0.996783
0.996338
0.998047
0.996695
0.99594
0.988503
0.997102
0.99629
1
0.995129
0.99818
0.999662
0.993362
0.999797
0.99876
0.995422
0.994039
0.992209
1
0.99902
0.998658
0.999888
0.977294
0.955414
0.998015
0.996947
0.998254
0.997363
0.9958
0.985251
0.995622
0.99419
1
0.998152
0.994472
0.998311
0.993512
0.987405
0.998241
0.993802
0.993058
0.99624
1
0.99902
0.994881
0.999698
0.973529
0.952391
0.994889
0.996366
0.997336
0.991287
0.99314
0.986025
0.999034
0.99489
1
0.994345
0.998348
0.99902
0.993842
0.9948
0.998363
0.998902
0.994847
0.998449
1
0.999932
0.989911
0.999547
0.970894
0.955777
0.998437
0.996378
0.999297
0.992689
0.98747
0.984515
0.999124
0.99132
1
0.996752
0.995786
0.992467
0.996575
0.998041
0.99926
0.999232
0.994386
0.996239
0.997032
0.998986
0.996927
0.999175
0.969922
0.961033
0.997264
0.99811
0.998003
0.996028
0.97697
0.985212
0.99686
0.99153
1
0.996192
0.997303
0.996318
0.998828
0.994834
0.998749
0.998975
0.994819
0.998178
1
0.997702
0.998696
0.999326
0.966849
0.96288
0.998256
0.997565
0.998088
0.993224
0.98915
0.989006
0.998037
0.9832
1
1
0.997843
0.999189
0.998948
0.997096
0.999336
0.998162
0.995344
0.999108
1
0.992869
0.998846
0.9988
0.95548
0.966628
0.998557
0.997226
0.998727
0.992389
0.9832
0.982192
1
0.98565
1
1
0.997708
0.99902
0.997416
0.998041
0.998256
0.998231
0.995178
0.995813
1
0.99902
0.997981
0.997348
0.955845
0.973823
0.999128
0.995708
0.997489
0.989351
0.97837
0.977274
0.997947
0.97571
0.996811
0.99944
0.998989
1
0.998257
0.999865
0.998386
0.998077
0.99244
0.995619
1
1
0.99865
0.998474
0.954268
0.950547
0.999128
0.995437
0.997308
0.991421
0.9769
0.986797
0.997675
0.984038
0.99934
0.996864
0.997067
0.999662
0.996965
0.999966
0.998825
0.998143
0.991988
0.996821
1
1
0.999254
0.998432
0.945327
0.961184
0.999128
0.994012
0.996491
0.987515
0.98285
0.986915
0.998792
0.99048
1
0.995351
0.998112
0.997061
0.996575
0.999021
0.993445
0.997079
0.992274
0.994766
1
0.99902
0.996761
0.993805
0.942725
0.968706
0.999699
0.996063
0.994959
0.982575
0.966396
0.984551
1
0.9846
1
0.996696
1
0.99902
0.998257
0.999021
0.995456
0.993599
0.993696
0.998721
1
0.999662
0.997223
0.982688
0.93337
0.959061
1
0.994925
0.992141
0.981707
0.957855
0.982928
0.991243
0.9839
1
0.996304
0.999933
0.997061
0.997447
1
0.998142
0.996039
0.994059
0.996627
1
0.99902
0.997542
0.994413
0.925884
0.973971
0.996813
0.993334
0.988539
0.970791
0.956599
0.984395
0.996195
0.98782
1
0.998432
0.998753
1
0.999399
1
0.99871
0.99394
0.994911
1
1
0.998952
0.994146
0.991919
0.906688
0.973913
0.996573
0.994888
0.990641
0.96091
0.956809
0.991909
0.997011
0.990269
1
0.995016
0.999056
0.999358
0.999129
1
0.99942
0.995817
0.99561
0.995155
1
1
0.992419
0.990308
0.905853
0.956411
0.998767
0.996245
0.988648
0.959375
0.948129
0.981494
0.995532
0.98796
0.996702
0.996304
0.998045
1
0.998258
0.998075
0.997245
0.991902
0.996394
0.999612
0.99989
1
0.99945
0.995512
0.896969
0.937972
0.999128
0.996681
0.987484
0.947925
0.920969
0.978279
0.989645
0.97396
1
1
0.995146
0.99902
0.996335
0.99821
0.996238
0.998304
0.99855
0.995194
1
1
0.999185
0.997247
0.904078
0.907381
0.999098
0.997287
0.987852
0.931033
0.938119
0.979831
0.988405
0.97256
1
0.991881
0.998416
0.998987
1
1
0.992255
0.998008
0.996099
0.998488
1
0.999662
0.999073
0.997646
0.909781
0.874463
1
0.994896
0.983882
0.921052
0.867348
0.987996
0.984748
0.947704
1
0.995128
0.997708
0.999662
0.998318
0.999021
0.997089
0.998588
0.996713
0.987595
0.996811
1
0.998358
0.995052
0.909671
0.825886
1
0.99591
0.981792
0.923523
0.818677
0.987996
0.975688
0.950924
1
1
0.999056
1
0.999129
0.999021
0.998008
0.999225
0.995634
0.988329
1
1
0.998288
0.997677
0.904228
0.771085
0.999429
0.994529
0.975501
0.854522
0.795855
0.993921
0.974062
0.898009
1
1
0.998955
1
1
0.996421
0.998089
0.998081
0.995812
0.976426
1
1
0.996796
0.998734
0.885895
0.695737
1
0.99658
0.966179
0.810391
0.771072
0.991016
0.97234
0.817929
1
0.996808
0.996797
0.99902
0.99997
0.996455
0.996826
0.994228
0.998247
0.98042
1
1
0.994681
0.997201
0.864701
0.639408
1
0.997755
0.963038
0.72717
0.799963
0.998877
0.980915
0.755489
1
1
0.99764
0.999358
1
0.998075
0.997009
0.991077
0.999019
0.993137
1
1
0.998431
0.994904
0.836304
0.573736
1
0.996394
0.954904
0.687381
0.768202
0.998877
0.982514
0.754971
1
1
0.999022
0.997061
0.998047
0.999021
0.999004
0.991215
0.998223
0.994184
1
1
0.997988
0.994269
0.826678
0.634029
1
0.996322
0.949531
0.538633
0.696618
0.998877
0.985685
0.700924
1
0.998712
1
0.99902
0.999429
1
0.999153
0.990118
0.998829
0.996162
0.99989
1
0.998288
0.993805
0.823144
0.626714
0.999429
0.997606
0.948443
0.559062
0.695498
0.998142
0.988828
0.726298
1
1
0.998045
1
1
0.998379
0.999786
0.998047
0.997957
0.99589
0.996371
1
0.999108
0.997328
0.818329
0.613837
0.999128
0.998946
0.938834
0.571947
0.663858
0.997716
0.992815
0.792729
1
1
0.997371
1
0.999609
0.996016
0.999142
0.998457
0.998477
0.998837
1
1
0.999665
0.996074
0.809432
0.675139
1
0.999911
0.929584
0.57809
0.735048
0.999613
0.991878
0.852422
1
0.998376
1
0.999358
1
0.998042
0.999447
0.999685
0.998183
0.997713
1
0.999594
0.999881
0.997712
0.809793
0.705851
0.999128
0.999398
0.933878
0.528351
0.752618
0.998877
0.999789
0.844651
1
0.996753
0.99973
0.99902
0.99997
0.997096
0.999153
0.999873
0.999188
0.998062
1
0.99804
0.999888
0.999439
0.825097
0.753309
0.999128
0.999423
0.94185
0.530354
0.741138
0.995587
0.995924
0.874769
0.996812
1
0.999022
0.999223
1
1
0.999668
0.999624
0.999313
0.997752
1
0.99902
0.999777
0.999667
0.851467
0.859621
0.998437
0.999641
0.952074
0.570111
0.741208
0.997058
0.996166
0.877359
1
0.998656
0.998685
0.998615
0.999129
1
0.999008
0.999635
0.999136
0.997984
1
0.999088
0.999888
0.999307
0.860352
0.91339
0.998256
0.999297
0.962011
0.598288
0.717172
1
0.998581
0.9251
1
1
0.999022
0.996994
1
0.998919
0.999302
0.999444
0.999451
0.999961
1
1
0.999665
0.999245
0.859693
0.985187
0.998256
0.999491
0.970966
0.5614
0.633816
1
0.997192
0.968769
1
1
1
0.999966
0.999129
0.998379
0.999557
0.999444
0.999536
1
1
0.999189
0.9996
0.999241
0.861174
0.992656
0.99982
0.999907
0.981174
0.503164
0.663823
1
0.998128
0.981444
1
0.998376
0.997404
0.99902
0.998258
0.99902
0.999443
0.999666
0.999625
0.998877
1
0.99902
0.999138
0.998958
0.885003
0.99662
1
0.999536
0.988536
0.51377
0.639835
0.998838
0.996799
0.987048
1
0.998376
1
0.998344
0.999129
0.99902
0.998728
0.99922
0.999766
0.998879
1
0.998073
0.999553
0.99957
0.897989
0.993348
1
0.999766
0.994693
0.546327
0.669374
0.999961
0.997675
0.98901
1
0.999944
0.997032
0.998986
0.999128
0.997838
0.998198
0.9992
0.999009
1
0.994281
0.998275
0.999367
0.996129
0.900626
0.997703
0.999128
0.999414
0.997125
0.644103
0.716406
1
0.996557
0.987748
1
0.996191
1
0.996106
0.999879
0.999358
0.998907
0.999094
0.999673
0.998874
1
0.999019
0.99944
0.996302
0.893049
0.997363
1
1
0.999057
0.998337
0.750294
0.65193
0.998877
0.995319
0.976812
1
1
0.99838
0.998814
0.99997
0.996722
0.998704
0.998174
0.999544
0.997026
1
1
0.997057
0.999223
0.999334
0.89482
0.997963
1
0.997383
0.999073
0.998574
0.905427
0.541497
0.999923
0.997433
0.957864
1
1
1
0.997055
0.999159
0.998242
0.99775
0.998763
0.999272
0.998935
0.999211
0.996921
0.996718
0.998648
0.998941
0.91564
0.998478
0.996105
1
0.999312
0.998898
0.984742
0.541102
0.975118
0.996593
0.998007
0.961928
1
1
1
0.999019
0.99913
1
0.998367
0.99865
0.998899
0.998286
0.998188
0.997911
0.998038
0.99824
0.999584
0.949983
0.97056
0.97902
0.999429
0.998712
0.998914
0.999416
0.583683
0.998839
0.993113
0.924815
1
0.998432
0.998314
0.999019
0.998346
0.998987
0.998112
0.998877
0.998555
0.995204
0.996812
0.997057
0.998594
0.998712
0.968705
0.883611
0.999391
0.997655
0.998927
0.998614
0.999085
0.665235
0.995587
0.989429
0.924675
0.994724
0.996248
1
1
0.999129
0.99642
0.998315
0.999103
0.998191
0.992826
1
0.998648
0.998793
0.99925
0.973909
0.859035
0.997505
0.99831
0.998704
1
0.807961
0.995626
0.985536
0.884806
1
0.998376
0.992921
0.99902
0.998228
0.996724
0.998344
0.999071
0.99695
0.982507
1
0.993172
0.998638
0.998463
0.977793
0.867125
0.997415
0.998178
0.998706
0.998097
0.882407
0.989742
0.977749
0.86429
0.99989
0.994456
0.99609
0.994596
0.990567
0.990782
0.998849
0.998631
0.996212
0.97095
0.996151
0.990978
0.99937
0.997942
0.978789
0.872717
0.994438
0.999253
0.999071
0.991888
0.977743
0.973674
0.951602
0.823204
0.993733
0.982363
0.994376
0.997335
0.985104
0.992006
0.999779
0.99902
0.996737
0.928766
0.986367
0.997975
0.999739
0.99778
0.980077
0.894405
0.978305
0.999638
0.999169
0.971742
0.995097
0.936394
0.923757
0.832694
0.991763
0.972846
0.981242
0.998994
0.957588
0.954637
0.999104
0.998835
0.994246
0.875539
0.940249
0.992252
0.999123
0.997281
0.982915
0.940078
0.896992
0.958463
0.994897
0.964587
0.986361
0.694343
0.907331
0.907986
0.880696
0.830799
0.66219
0.874247
0.746098
0.781552
0.993761
0.997544
0.991064
0.931791
0.808747
0.92064
0.99655
0.994014
0.985678
0.971241
0.765294
0.98569
0.990228
0.964049
0.994424
0.836378
0.937113
0.966691
0.941236
1
0.996245
0.999441
0.991041
0.999242
0.986925
0.999967
0.989618
0.981238
1
0.993512
0.997914
0.995909
0.978106
0.962269
0.999519
0.975834
0.982536
0.954401
0.970483
0.997931
0.965312
0.946615
1
1
1
0.995983
0.998117
1
0.999664
0.924676
0.982775
0.955441
1
1
0.974497
0.911589
0.971883
0.96261
1
0.972598
0.981966
0.969225
0.771159
0.997853
0.925676
0.73974
0.447034
0.541666
0.476797
0.473413
0.587265
0.510658
0.513295
0.472647
0.468979
0.468123
0.462543
0.482719
0.477166
0.462492
0.479788
0.459745
0.482858
0.480923
0.465542
0.481112
0.462078
0.448142
0.434616
0.455055
0.427192
0.441663
0.471947
0.558749
0.50241
0.447357
0.462395
0.479744
0.492773
0.477204
0.478196
0.487322
0.465094
0.444733
0.458189
0.446791
0.462592
0.471819
0.445497
0.458764
0.446153
0.446931
0.427624
0.458634
0.591896
0.510546
0.526868
0.517095
0.520653
0.485067
0.493804
0.486605
0.449233
0.483262
0.453253
0.444687
0.443364
0.437179
0.462895
0.461006
0.454129
0.453009
0.438328
0.427112
0.420966
0.422264
0.494808
0.451972
0.458731
0.472822
0.457311
0.462613
0.461093
0.467665
0.445544
0.47989
0.448673
0.460863
0.443771
0.45294
0.426194
0.439821
0.42364
0.428103
0.489854
0.496248
0.460655
0.475734
0.453386
0.464058
0.516478
0.468144
0.891276
0.986362
0.975296
0.933621
0.941688
0.990242
0.993407
0.974702
0.979305
0.975643
0.991939
0.993244
0.992601
0.961218
0.991453
0.933674
0.992777
0.910924
0.921787
0.91105
0.979435
0.984109
0.985309
0.98942
0.896806
0.914166
0.879779
0.992051
0.985322
0.98311
0.990719
0.903146
0.986684
0.936894
0.977001
0.952163
0.994951
0.98759
0.994092
0.864046
0.868652
0.986718
0.980023
0.990238
0.979178
0.971586
0.994272
0.991876
0.990881
0.876891
0.842644
0.976855
0.986634
0.982932
0.953231
0.992771
0.915267
0.925891
0.900626
0.986032
0.989309
0.984718
0.991421
0.834043
0.884271
0.86364
0.983699
0.990444
0.99191
0.985509
0.98114
0.919779
0.981466
0.908554
0.928672
0.986121
0.979182
0.985688
0.938195
0.970088
0.988416
0.995409
0.994275
0.994156
0.990537
0.976449
0.993783
0.992047
0.990531
1
0.988774
0.996365
0.993638
0.993261
0.997936
0.995862
0.990547
0.978288
0.976301
0.990478
0.992381
0.988097
0.990259
0.994822
0.983628
0.984502
0.984244
0.995781
0.989184
0.996677
0.993638
0.992504
0.996769
0.9989
0.996842
0.992383
0.996584
0.993336
0.991639
0.994071
0.995766
0.991854
0.989331
0.985577
0.985735
0.994955
0.986212
0.998152
0.994501
0.988176
0.997502
0.99731
0.993646
0.993138
0.986982
0.976494
0.989894
0.985887
0.994306
0.990463
0.997844
0.985043
0.990203
0.992966
0.995442
0.994466
0.991021
0.990623
0.995522
0.988301
0.998884
0.987848
0.99618
0.993062
0.980906
0.978664
0.973889
0.987219
0.987574
0.972197
0.991585
0.990449
0.996028
0.994215
0.99209
0.998899
0.991209
0.991106
0.990127
0.987842
0.993654
0.995518
0.993112
0.990451
0.983964
0.989511
0.996765
0.99038
0.993634
0.996834
0.995565
0.985701
0.992979
0.993238
0.989723
0.984209
0.992573
0.996916
0.990401
0.994759
0.992388
0.998744
0.983476
0.997007
0.993616
0.993069
0.993222
0.999053
0.996207
0.9939
0.992748
0.993065
0.996827
0.990805
0.99306
0.99056
0.993036
0.987153
0.988721
0.989368
0.9837
0.988455
0.994967
0.988346
0.996707
0.991014
0.993133
0.985665
0.980635
0.974327
0.990221
0.9879
0.999171
0.989987
0.998776
0.990758
0.993583
0.995636
0.995787
0.984023
0.990514
0.991725
0.994722
0.992556
0.995861
0.996386
0.995914
0.99566
0.991618
0.98384
0.976625
0.989681
0.984268
0.980922
0.988401
0.993643
0.994927
0.993008
0.993464
0.994667
0.988493
0.997974
0.98677
0.985019
0.979779
0.98203
0.972011
0.98197
0.98797
0.978273
0.993862
0.996211
0.996812
0.996942
0.991679
0.972621
0.98173
0.990744
0.99227
0.990914
0.99022
0.992971
0.994513
0.987009
0.991635
0.995127
0.993204
0.996619
0.99311
0.996514
0.994544
0.998285
0.995937
0.990987
0.992659
0.987206
0.98901
0.979928
0.986112
0.992304
0.987471
0.982112
0.992072
0.995663
0.982592
0.987419
0.993226
0.995243
0.997911
0.998607
0.992413
0.982617
0.989797
0.968004
0.986663
0.986755
0.994425
0.980333
0.993402
0.982523
0.985678
0.996124
0.994566
0.990552
0.996037
0.991282
0.997449
0.993445
0.996758
0.990398
0.99577
0.998133
0.984871
0.979164
0.981532
0.992672
0.990127
0.985212
0.990789
0.992098
0.994657
0.990347
0.997192
0.996823
0.995172
1
0.9839
0.975535
0.996592
0.98665
0.992582
0.994832
0.988893
0.99358
0.994881
0.993765
0.998901
0.996576
0.993994
0.982974
0.969422
0.982796
0.978476
0.988409
0.986834
1
0.980902
0.986039
0.993505
0.998112
0.987106
0.998378
0.991445
0.989353
0.99623
0.995473
0.994732
0.99799
0.987835
0.980341
0.987905
0.99234
0.981383
1
0.995942
0.988567
0.977369
0.995159
0.986586
0.956624
0.995517
0.990282
0.996921
0.996455
0.997715
0.974607
0.989908
0.977152
0.961089
0.986212
0.994559
0.98835
0.99621
0.995163
0.997458
0.992934
0.997823
0.994769
0.996034
0.99122
0.997714
0.995017
0.99808
0.994538
0.993829
0.992421
0.986523
0.98125
0.986146
0.989823
0.984086
0.982653
0.989515
0.993634
0.995735
0.996818
0.995016
0.99581
0.992976
0.995652
0.980831
0.980063
0.996811
0.986569
0.991489
1
0.993187
0.991731
0.997363
0.994031
0.996812
0.996787
0.991862
0.975216
0.981025
0.983142
0.989272
0.995655
0.992401
0.999218
0.991654
0.992778
0.992728
0.997329
0.991953
0.998362
0.995349
0.993023
0.994606
0.996088
0.992449
0.989259
0.996445
0.988117
0.996811
0.996789
0.991136
0.993622
0.992518
0.953224
0.987778
0.847785
0.990572
0.996459
0.991096
0.990559
0.523871
0.51099
0.398439
0.99985
0.988806
0.996307
0.950103
0.994213
0.981218
0.994612
0.996182
0.977382
0.844824
0.988531
0.95677
0.983174
0.985683
0.991347
0.998368
0.400166
0.707309
0.487342
0.995735
0.937301
1
0.975835
0.984443
0.985489
0.995414
0.9928
0.993097
0.992511
0.99726
0.988749
0.98801
0.994923
0.996663
0.991914
0.997377
0.98975
0.994001
0.990876
0.98691
0.986216
0.987615
0.993294
0.993634
0.989855
0.988305
0.993634
0.994605
0.991221
0.996556
0.997244
0.996708
0.997828
0.983827
0.990659
0.996921
0.987922
0.995517
0.996702
0.989084
0.992519
0.995121
0.98803
0.992855
0.997606
0.985171
0.983771
0.985044
0.987251
0.990107
0.989631
0.993801
0.99684
0.987565
0.991608
0.994814
1
0.995402
0.994136
0.994706
0.992906
0.987607
0.996091
0.991561
0.989683
1
0.991404
1
0.998439
1
0.999497
1
0.993613
0.993622
0.994729
0.991677
0.995711
0.992669
0.998119
0.989509
0.997441
0.997312
1
0.994259
0.990159
1
1
1
1
0.999148
1
1
0.986152
0.987258
0.993402
0.986878
0.993145
0.986654
0.99216
0.997421
0.972905
0.989352
0.986925
0.997592
1
1
1
1
1
1
1
0.98814
0.995814
0.996238
0.989874
0.993642
0.993173
0.997326
0.989086
0.990523
0.992546
0.998932
0.996686
1
0.993438
0.996714
0.994051
0.998515
0.988578
1
1
1
1
0.981668
0.978449
0.991903
1
0.977774
0.994864
0.993635
0.997322
0.993745
0.998248
0.998875
1
0.997975
0.994632
0.983479
0.993623
0.997755
0.995094
0.996921
0.996129
0.99685
0.996788
0.994503
0.996812
0.99597
0.993688
0.992072
0.990047
0.993242
0.997074
0.992627
0.992608
1
0.990758
0.988971
0.988346
0.995732
0.993377
0.99771
0.994572
0.995338
0.995357
0.998014
0.993715
0.996435
0.999901
0.995912
1
1
1
1
1
0.989974
0.994612
0.996183
0.992258
0.990653
0.997031
0.997808
0.988569
0.995683
0.993406
0.995927
0.987268
0.989603
1
1
1
1
1
1
1
0.99397
0.99206
0.990213
0.994485
0.994345
0.989152
0.985162
0.997779
0.985556
0.990361
0.982867
0.995815
1
1
1
1
1
1
1
0.994279
0.99121
0.994785
0.987399
0.993733
0.995398
0.997261
0.992912
0.989433
0.992973
0.995377
0.996649
0.997045
0.996297
0.995614
0.985851
0.999509
0.990249
1
1
1
1
0.97789
0.97922
0.995529
1
0.971695
0.996435
0.993635
0.999922
0.996928
0.993296
0.998875
0.99989
0.998672
0.977275
0.993936
0.996702
0.996632
0.993549
0.996591
0.993265
0.995003
0.996788
0.997289
0.989996
0.990394
0.995274
0.990731
0.989259
0.989272
0.989202
0.986664
0.991267
0.996743
0.990366
0.994217
0.992281
0.997916
0.994239
0.993004
0.99548
0.994574
0.994596
0.997031
0.997351
0.987803
0.991671
0.993613
0.992632
0.995335
0.993265
0.997801
0.998243
0.998219
0.982555
0.993223
0.991847
0.995902
0.989547
0.99195
1
1
1
1
1
1
1
0.994061
0.993261
0.995711
0.991485
0.993106
0.988704
0.989104
0.995011
0.982814
0.988327
0.988134
0.999935
1
1
1
1
1
1
1
0.997628
0.995814
0.996534
0.987005
0.990674
0.992903
0.996304
0.981155
0.989676
0.995666
0.997129
0.990352
0.999798
0.988364
0.99664
0.990932
0.988371
0.981528
0.966906
0.992658
0.987269
0.988771
0.993052
0.993635
0.998409
0.999342
0.995984
0.996703
0.99561
0.998529
0.995678
0.992263
0.997911
0.998878
0.998455
0.99989
0.995317
0.992066
0.994001
0.991286
0.99956
0.995032
0.995857
0.99149
0.99219
0.986486
0.992477
0.992599
0.993712
1
0.988015
0.98481
0.990584
0.998437
0.988499
0.997708
0.995539
0.998346
0.993877
0.997321
0.995539
0.993823
0.99931
0.994813
0.995711
0.998213
0.993884
0.994722
0.988339
0.992915
0.993075
0.991714
0.992508
0.987056
0.995788
0.994849
0.9989
0.997728
0.995314
0.993802
0.99034
0.977625
0.972689
0.983826
0.992047
0.997907
0.999043
0.990381
0.990312
0.990858
0.999373
0.998369
0.993733
0.994618
0.997134
0.986469
0.995045
0.987609
0.994643
0.987011
0.980939
0.983838
0.988456
0.994139
1
0.981415
0.995167
1
0.998876
0.995281
0.995803
0.99438
0.996818
0.988585
0.987733
0.987524
0.993732
0.990751
0.997063
0.990434
0.993383
0.995004
0.996486
0.997368
1
0.997425
0.99702
0.981804
0.995957
0.98983
0.988159
0.989904
0.997169
0.999935
0.982639
0.989515
0.99124
0.996876
0.994103
0.998615
0.992707
0.998018
0.994047
0.999934
0.998277
0.990662
0.99365
0.993923
0.996811
0.996517
0.996013
0.996811
0.996487
0.985251
0.988553
0.987563
0.991046
0.986044
0.99591
0.994036
0.995602
0.996819
0.995431
0.985732
0.986777
0.978814
0.984192
0.990247
0.993861
0.998675
0.989642
0.997806
0.988345
0.995219
0.996306
0.995669
0.988406
0.987522
0.992367
0.981476
0.99773
0.994666
0.997173
0.988874
0.986381
0.978591
0.975373
0.988461
1
0.98552
0.991694
0.996817
0.99663
0.996818
0.994052
0.997753
0.998134
0.9993
0.986828
0.991846
0.996811
0.992609
0.997366
0.996811
0.995511
0.996488
0.999122
0.996865
1
0.998546
0.999768
0.997978
0.997978
0.991572
0.98997
0.991433
0.989661
0.997885
0.988296
0.987809
0.993714
0.998113
0.993653
0.998913
0.997249
0.997387
0.989213
0.999045
0.996794
0.992944
0.992169
0.99702
1
0.996487
0.997755
1
0.999425
0.98518
0.97822
0.98636
0.991257
0.984047
0.996486
0.994656
0.993622
0.995607
0.997638
0.974726
0.993733
0.979236
0.97637
0.985139
0.99421
0.993931
0.997625
0.990607
0.984108
0.993656
0.996109
0.990551
0.989345
0.986131
0.994832
0.993447
0.996429
0.989022
0.996139
0.990225
0.992513
0.975933
0.979012
0.98363
0.993634
0.9813
0.992057
0.996817
0.993842
1
0.992813
0.999032
1
0.99587
0.9954
0.996376
0.990434
0.998878
0.997426
0.996811
0.992145
0.997366
0.999697
0.998142
1
0.99688
0.998065
0.995956
0.997978
0.983562
0.994428
0.994998
0.993177
0.999967
0.9902
0.98745
0.993684
0.996323
0.995673
0.999045
0.995946
0.996515
0.995392
0.999044
0.994282
0.995174
0.991186
0.995588
0.996811
0.998516
0.992414
0.993623
0.99573
0.988048
0.987237
0.989146
0.989802
0.985807
0.996637
0.996747
0.996811
1
0.995934
0.985272
0.9892
0.980258
0.972632
0.993496
0.998396
0.997907
0.998483
0.991113
0.989466
0.994197
0.999604
0.995107
0.982201
0.992039
0.995683
0.99384
0.995092
0.990361
0.991821
0.990844
0.990198
0.972365
0.98195
0.994956
1
0.988966
0.998278
0.990451
0.998257
1
0.998973
0.994849
1
0.995169
0.99547
0.991916
0.993623
0.990249
0.997154
1
0.992919
0.997396
0.997486
0.998645
1
0.999122
0.998877
0.994632
0.991634
0.99798
1
0.990145
0.989781
0.998503
0.991936
0.990026
0.99139
0.992321
0.993818
0.997133
0.995068
0.998288
0.992638
1
0.997973
0.989926
0.975164
0.995007
0.993623
0.999818
0.995511
0.996811
0.994731
0.990347
0.984817
0.990192
0.987229
0.984708
0.99591
0.995082
0.996811
0.998243
0.997289
0.97714
0.990205
0.978352
0.970765
0.993844
0.990025
0.992048
1
0.997019
0.992584
0.993746
0.998087
0.995669
0.986197
0.986059
0.995287
0.989488
0.997997
0.991153
0.995956
0.995083
0.993489
0.977543
0.976843
0.992782
0.993634
0.982462
0.998883
0.996817
0.999961
0.996817
0.996799
0.997792
1
0.99797
0.997352
0.996585
0.993623
0.996634
0.999455
0.996811
0.9923
0.997729
0.997123
0.997019
0.993623
0.999122
0.997368
0.982222
0.99756
1
0.99798
0.990475
0.993714
0.993753
0.995184
0.988228
0.99568
0.988026
0.994212
0.997133
0.994645
0.997116
0.99438
0.999044
0.991891
0.981671
0.988737
0.997446
0.990434
0.995821
0.992956
0.9989
0.99149
0.987835
1
0.992596
0.985566
0.981187
0.999576
0.995895
0.997691
0.999182
0.997367
0.975052
0.994464
0.968497
0.973843
0.989004
1
1
0.998252
0.988639
0.99098
0.997234
0.998318
0.994657
0.988346
0.992618
0.995835
0.990618
0.99556
0.99396
0.99322
0.98994
0.996569
0.979012
0.987897
0.997252
1
0.98765
0.994503
1
1
1
0.998249
0.997018
1
0.99923
0.998676
0.993449
0.990434
0.992416
0.996609
0.993623
0.996905
0.996003
0.999091
0.999342
1
0.998243
0.999613
0.995817
0.993238
0.998886
0.990318
0.995028
0.99714
0.99782
0.995184
0.994549
0.998242
0.997364
0.997808
0.99911
0.996884
0.996515
0.992076
0.997133
0.994403
0.996012
0.994473
0.993962
0.994722
0.990794
0.992376
1
0.995609
0.994402
0.990319
0.994883
0.987502
0.983058
0.998849
0.994501
0.996811
0.999758
0.995818
0.974613
0.98792
0.962965
0.976261
0.988733
0.994769
0.995954
0.997197
0.993588
0.995793
0.997384
0.998912
0.9964
0.994067
0.993289
0.994527
0.994801
0.992922
0.991702
0.996686
0.9974
0.991319
0.983839
0.989926
0.991453
1
0.98343
0.994594
0.996817
0.999613
1
0.998309
0.997754
0.998903
1
0.992474
0.992891
0.996811
0.99083
0.997184
0.996812
0.994273
0.996912
0.997547
0.996903
0.998901
0.999425
0.996981
0.999303
0.988568
0.998119
0.981959
0.987512
0.99571
0.997007
0.990816
0.989305
0.99568
0.990693
0.993874
1
0.994432
0.996786
0.99455
0.998682
0.994524
0.987755
0.990837
0.994698
1
0.99682
0.994813
0.990434
0.99467
0.992888
0.981957
0.993101
0.993767
0.99681
0.997334
0.994541
0.99978
0.999
0.993223
0.966808
0.987415
0.964963
0.983735
0.978477
0.99142
0.994699
0.997132
0.997919
0.993462
0.996753
0.99967
0.994095
0.996246
0.991976
0.990452
0.983042
0.995926
0.992496
0.994193
0.985704
0.9874
0.975232
0.979153
0.996829
0.996817
0.978048
0.996376
1
0.997753
0.997914
0.997403
0.997986
1
0.99909
0.997909
0.985503
0.993624
0.995125
0.995519
0.996811
0.992492
0.99679
0.998789
0.996285
0.996811
0.997364
0.998877
0.988916
0.993934
0.992269
0.993034
0.983288
0.9944
0.993559
0.98936
0.98014
0.996841
0.997169
0.998932
0.998781
0.997398
0.997957
1
0.999341
0.997913
0.991184
0.997202
0.991564
0.996812
0.997366
0.994542
0.9989
1
0.990467
0.981076
0.997248
0.991861
0.984709
0.998243
0.991404
0.996921
0.996061
0.993378
0.957575
0.982655
0.954201
0.955712
0.996554
0.996861
0.994977
0.998714
0.996626
0.992342
0.996241
0.993404
0.9973
0.993189
0.984628
0.992127
0.988755
0.997395
0.995515
0.997233
0.992426
0.988446
0.98454
0.985097
0.993296
1
0.987028
0.995076
0.997914
0.999768
1
1
0.999768
1
0.996219
0.990523
0.988638
0.987357
0.993694
0.998486
0.994171
0.991912
0.998244