/*--------------------------------*- C++ -*----------------------------------*\
| =========                 |                                                 |
| \\      /  F ield         | OpenFOAM: The Open Source CFD Toolbox           |
|  \\    /   O peration     | Version:  5.x                                   |
|   \\  /    A nd           | Web:      www.OpenFOAM.org                      |
|    \\/     M anipulation  |                                                 |
\*---------------------------------------------------------------------------*/
FoamFile
{
    version     2.0;
    format      ascii;
    class       volScalarField;
    location    "2.35";
    object      p;
}
// * * * * * * * * * * * * * * * * * * * * * * * * * * * * * * * * * * * * * //

dimensions      [0 2 -2 0 0 0 0];

internalField   nonuniform List<scalar> 
10571
(
121.527
131.513
128.413
125.075
123.918
134.665
127.445
119.429
115.709
118.957
133.692
135.873
129.418
126.09
121.538
121.2
135.317
132.714
129.25
125.938
122.873
133.35
132.2
128.989
104.445
99.6427
103.859
103.942
95.8347
104.132
91.3018
100.26
94.8022
89.9297
103.36
106.705
66.0467
56.8355
79.0037
88.9004
100.511
57.9491
69.2615
97.3878
87.0343
92.2041
95.4183
91.2319
12.093
3.96966
11.494
21.1023
11.6676
6.88587
3.41391
3.36934
3.30874
8.7931
3.3127
5.10069
2.7912
2.49541
3.01878
8.68867
4.01001
2.57256
2.80582
7.06611
5.41604
3.11306
3.64404
3.13955
2.36522
2.5571
2.36868
2.26025
2.35191
2.4757
1.84755
1.83922
1.82311
2.33299
2.59963
2.52662
2.10631
2.20007
2.03514
2.30725
2.56423
2.15621
2.06547
2.32983
2.42027
2.5436
2.47156
2.48708
2.44885
2.44528
2.42899
2.44522
2.41692
2.41724
2.63905
2.77429
2.59743
2.3229
2.42386
2.43836
2.62391
2.63467
2.57087
2.34855
2.42515
2.43551
2.52452
2.32937
2.35886
2.39864
2.41965
2.39854
2.44742
2.42868
2.43812
2.45453
2.43393
2.411
2.43861
2.5076
2.44982
2.39227
2.44738
2.40879
2.41969
2.45481
2.47881
2.4616
2.41979
2.43266
2.40864
2.40554
2.42628
2.36936
2.39691
2.4095
2.40897
2.41047
2.44352
2.41802
2.43425
2.44317
2.43549
2.39487
2.41237
2.44677
2.444
2.43439
2.45085
2.41683
2.4214
2.44014
2.45559
2.46273
2.44083
2.45343
2.41288
2.43261
2.44236
2.4209
2.42603
2.45348
2.43579
2.4375
2.43382
2.44009
2.41858
2.43712
2.43354
2.43432
2.39889
2.43204
2.45356
2.46137
2.44063
2.44462
2.42435
2.42848
2.45893
2.46085
2.4706
2.4487
2.45396
2.42277
2.44691
2.45086
2.43825
2.4375
2.45391
2.45243
2.4483
2.44649
2.44231
2.4316
2.44585
2.43874
2.44243
2.4244
2.44574
2.45407
2.47787
2.44824
2.45043
2.4405
2.44459
2.45788
2.45606
2.47197
2.45426
2.46651
2.44215
2.44616
2.44943
2.44492
2.44019
2.4518
2.45498
2.45412
2.44755
2.44624
2.45343
2.4517
2.44975
2.44681
2.4606
2.45071
2.48429
2.44749
2.45421
2.45675
2.45202
2.45303
2.45866
2.45198
2.45434
2.44122
2.45522
2.44851
2.44652
2.44694
2.45833
2.45781
2.44991
2.45556
2.45507
2.45511
2.44889
2.46858
2.47182
2.45415
2.47172
2.45476
2.46173
2.46504
2.4536
2.45301
2.44784
2.44786
2.45639
2.43999
2.45464
2.44958
2.45184
2.44836
2.45972
2.45479
2.44903
2.45426
2.44918
2.45012
2.44433
2.48099
2.47517
2.45469
2.45996
2.45581
2.46153
2.46421
2.44846
2.44947
2.44631
2.4487
2.45481
2.44053
2.45311
2.44068
2.4482
2.448
2.45822
2.4498
2.44576
2.44869
2.44027
2.44339
2.44216
2.47353
2.46779
2.45442
2.45283
2.45289
2.45612
2.46032
2.44182
2.4477
2.4437
2.44812
2.44891
2.4393
2.45358
2.43622
2.44552
2.44377
2.45725
2.44866
2.44274
2.44648
2.43762
2.43611
2.4457
2.45874
2.45403
2.45044
2.44733
2.44955
2.45712
2.4551
2.43612
2.44575
2.44147
2.44726
2.44594
2.43193
2.45157
2.43846
2.44716
2.43121
2.46006
2.4499
2.44298
2.44391
2.44005
2.43358
2.45195
2.44672
2.44066
2.44235
2.44281
2.44686
2.45509
2.44695
2.42992
2.44376
2.44189
2.44636
2.445
2.42321
2.45005
2.44992
2.45041
2.41544
2.45473
2.45521
2.44516
2.44118
2.43816
2.44239
2.45383
2.43898
2.42847
2.43648
2.44229
2.44559
2.44463
2.43937
2.43561
2.44632
2.43698
2.44566
2.44433
2.43072
2.45465
2.45851
2.45139
2.44834
2.45945
2.47459
2.44584
2.44103
2.43594
2.4432
2.44971
2.43612
2.43213
2.43237
2.4474
2.44619
2.43968
2.43693
2.4421
2.44426
2.43046
2.44493
2.44071
2.44206
2.45896
2.45555
2.44859
2.52169
2.43034
2.48264
2.44389
2.44606
2.44036
2.44124
2.44422
2.43888
2.44044
2.43206
2.45514
2.44794
2.44016
2.43875
2.44456
2.44468
2.43215
2.44518
2.43917
2.4429
2.45359
2.447
2.4456
2.51053
2.42167
2.45375
2.44357
2.45224
2.44784
2.44011
2.44075
2.44568
2.45077
2.43766
2.45929
2.45108
2.44466
2.44225
2.4379
2.44377
2.44104
2.44767
2.44272
2.45097
2.45409
2.44431
2.4466
2.44803
2.44111
2.45101
2.44812
2.45796
2.45545
2.44293
2.44113
2.45358
2.46077
2.44595
2.45701
2.45513
2.45215
2.44672
2.43197
2.44666
2.44918
2.4521
2.44778
2.45764
2.45555
2.44639
2.4512
2.45208
2.45613
2.45571
2.45869
2.46371
2.46352
2.4526
2.44851
2.46319
2.46946
2.45384
2.45409
2.46039
2.46281
2.45469
2.44567
2.4517
2.45704
2.45812
2.45641
2.45742
2.45792
2.45303
2.45767
2.46308
2.47944
2.46125
2.47044
2.46981
2.46929
2.46513
2.461
2.47399
2.48503
2.46447
2.46063
2.46749
2.47666
2.46906
2.46275
2.46068
2.46404
2.46562
2.46834
2.45845
2.46513
2.46008
2.46496
2.46707
2.47317
2.46446
2.47829
2.47524
2.47043
2.47517
2.4739
2.48263
2.49527
2.47716
2.47334
2.47603
2.48545
2.48469
2.4774
2.47587
2.47108
2.474
2.47795
2.46203
2.47341
2.46556
2.47225
2.46989
2.47325
2.46894
2.484
2.47883
2.46951
2.48063
2.48619
2.48443
2.49641
2.48222
2.48414
2.48289
2.48446
2.48833
2.48927
2.487
2.48207
2.48176
2.48124
2.4684
2.47753
2.46938
2.47894
2.47432
2.47591
2.47354
2.49033
2.48202
2.47379
2.4837
2.49345
2.48316
2.49339
2.48043
2.48941
2.48469
2.49004
2.48619
2.4876
2.48579
2.48722
2.48554
2.48184
2.47412
2.47771
2.47316
2.48388
2.47781
2.47863
2.47772
2.49683
2.48614
2.48594
2.49471
2.49655
2.48508
2.49088
2.48332
2.4897
2.48242
2.48352
2.47854
2.48417
2.4814
2.48613
2.48516
2.48067
2.47885
2.47816
2.47774
2.48623
2.48191
2.48145
2.48175
2.49572
2.4877
2.49228
2.49962
2.49448
2.48655
2.48732
2.49002
2.48405
2.47863
2.48039
2.47697
2.48129
2.48154
2.48219
2.48377
2.4806
2.48334
2.47799
2.48125
2.48516
2.48394
2.48287
2.48467
2.49224
2.48583
2.48926
2.4902
2.48842
2.48511
2.48214
2.48913
2.47527
2.48157
2.48023
2.47853
2.47921
2.48111
2.47826
2.48303
2.48122
2.48692
2.47916
2.4834
2.48366
2.48464
2.48385
2.48637
2.48626
2.48265
2.48303
2.4829
2.4814
2.48167
2.47529
2.48471
2.46887
2.48302
2.4805
2.47935
2.47723
2.47939
2.47515
2.48162
2.48105
2.48917
2.48207
2.48425
2.48397
2.48493
2.48357
2.48704
2.48126
2.48001
2.47686
2.47859
2.47561
2.47866
2.46882
2.48164
2.46336
2.4795
2.48049
2.47863
2.47407
2.47805
2.47609
2.48089
2.47916
2.48994
2.48573
2.48469
2.48323
2.48498
2.48431
2.48716
2.47803
2.47834
2.47358
2.47702
2.4742
2.47761
2.46732
2.47853
2.46263
2.47529
2.48051
2.47998
2.47414
2.47669
2.47594
2.47891
2.47919
2.48736
2.48733
2.4844
2.48213
2.48386
2.48393
2.48592
2.47703
2.47747
2.47324
2.47636
2.47466
2.47667
2.4698
2.47574
2.46613
2.47251
2.48032
2.47996
2.47544
2.47532
2.47573
2.47802
2.47966
2.48265
2.48704
2.48284
2.48137
2.48288
2.48323
2.48352
2.47735
2.47865
2.47594
2.47517
2.47552
2.47772
2.47167
2.47316
2.47126
2.47242
2.48044
2.4783
2.47389
2.47488
2.47532
2.47759
2.48046
2.47547
2.48421
2.4798
2.48073
2.48086
2.48034
2.48057
2.47859
2.48019
2.4808
2.47626
2.47689
2.47905
2.47572
2.47442
2.47634
2.47477
2.48071
2.47893
2.47582
2.47518
2.47537
2.47751
2.48155
2.47011
2.48029
2.47721
2.47971
2.47842
2.47694
2.47861
2.48005
2.47984
2.48205
2.47848
2.47892
2.47949
2.47878
2.47631
2.48235
2.47868
2.48101
2.47923
2.48093
2.47653
2.47611
2.47832
2.48079
2.46931
2.47686
2.47508
2.47854
2.47693
2.47472
2.47678
2.48135
2.47894
2.48091
2.48136
2.48085
2.47994
2.48199
2.47933
2.48599
2.48207
2.48108
2.48044
2.48071
2.47683
2.47914
2.48004
2.47911
2.46994
2.47599
2.47453
2.47906
2.47714
2.47484
2.47696
2.48226
2.47918
2.4818
2.48255
2.48202
2.48076
2.48384
2.48434
2.48483
2.483
2.48094
2.48087
2.47961
2.47796
2.48341
2.48134
2.47855
2.47238
2.47699
2.47835
2.48215
2.47851
2.47672
2.47941
2.48298
2.47947
2.48193
2.48382
2.48246
2.48137
2.4833
2.48856
2.48235
2.48199
2.48098
2.48022
2.47908
2.4818
2.48447
2.48196
2.47897
2.47668
2.47883
2.48232
2.48456
2.48045
2.47919
2.48195
2.48358
2.48008
2.48115
2.48454
2.48245
2.48164
2.48154
2.48948
2.48002
2.48177
2.48129
2.47956
2.47903
2.48386
2.48518
2.4826
2.47935
2.48018
2.48224
2.48734
2.48678
2.48343
2.48189
2.48338
2.48406
2.48129
2.48099
2.48463
2.48251
2.48187
2.48002
2.48818
2.47901
2.48261
2.4817
2.47916
2.47922
2.48337
2.48497
2.48346
2.48016
2.48278
2.48421
2.49013
2.4882
2.48578
2.48425
2.48399
2.48457
2.48257
2.48166
2.48467
2.48326
2.48215
2.47851
2.48583
2.47986
2.48335
2.48243
2.47902
2.47982
2.48357
2.48412
2.48317
2.48206
2.48435
2.48481
2.48916
2.4869
2.48753
2.48618
2.48515
2.48514
2.48405
2.48279
2.48503
2.48426
2.48262
2.47662
2.48471
2.48035
2.48355
2.48365
2.48169
2.48074
2.48417
2.48406
2.48311
2.48424
2.48601
2.48576
2.48655
2.48539
2.48869
2.48829
2.48645
2.48559
2.48536
2.48382
2.48533
2.48469
2.48315
2.47498
2.48437
2.4793
2.48353
2.48471
2.48401
2.48179
2.48432
2.48399
2.48346
2.48687
2.48694
2.4866
2.48429
2.48486
2.48917
2.49084
2.48747
2.48587
2.48633
2.48445
2.48532
2.48464
2.48405
2.47687
2.48183
2.47812
2.48368
2.48546
2.48461
2.48344
2.48437
2.48377
2.48426
2.48957
2.48703
2.4875
2.48372
2.48525
2.48913
2.49145
2.48779
2.48615
2.48719
2.48491
2.48516
2.48469
2.48587
2.48016
2.47795
2.47869
2.48466
2.48584
2.48474
2.48511
2.48442
2.48514
2.48623
2.49069
2.49196
2.48989
2.48565
2.48642
2.4895
2.49037
2.48774
2.48681
2.48783
2.48611
2.48546
2.48538
2.48786
2.48324
2.47755
2.48051
2.48623
2.48597
2.48439
2.48495
2.48443
2.48736
2.48905
2.48953
2.49464
2.4928
2.4879
2.48855
2.49061
2.48965
2.48844
2.4882
2.48853
2.48717
2.48683
2.48707
2.48862
2.48889
2.48038
2.48452
2.48762
2.48799
2.48578
2.4833
2.48472
2.48811
2.48997
2.48869
2.49153
2.49434
2.48913
2.48967
2.49144
2.48968
2.48964
2.49014
2.48823
2.48845
2.48923
2.48903
2.48992
2.49542
2.48468
2.48871
2.48903
2.49202
2.48992
2.48658
2.48523
2.48787
2.48964
2.48978
2.48889
2.49321
2.48959
2.48986
2.49101
2.48966
2.49015
2.49184
2.48957
2.48968
2.49139
2.49067
2.49137
2.49698
2.48886
2.49137
2.49063
2.49395
2.49254
2.49376
2.48601
2.48712
2.48879
2.49122
2.48807
2.49028
2.48837
2.48936
2.49042
2.48916
2.48939
2.49279
2.49091
2.49063
2.49205
2.49163
2.49171
2.49408
2.49142
2.49261
2.49211
2.49165
2.49164
2.49859
2.48658
2.48811
2.48854
2.49161
2.48937
2.48767
2.4876
2.48885
2.4899
2.48772
2.48825
2.4929
2.49295
2.4914
2.49209
2.49209
2.49223
2.49108
2.49207
2.49289
2.493
2.49306
2.49196
2.49839
2.49005
2.48925
2.48952
2.49225
2.4896
2.48553
2.48677
2.48935
2.48968
2.48613
2.48808
2.4921
2.4947
2.49212
2.49234
2.49247
2.49362
2.48791
2.49262
2.49373
2.49305
2.49531
2.4933
2.49606
2.49371
2.49096
2.4909
2.49261
2.48823
2.48513
2.48726
2.49099
2.4898
2.48522
2.4884
2.49152
2.49602
2.49274
2.49205
2.49295
2.4944
2.48738
2.49263
2.49447
2.49273
2.49469
2.4933
2.49424
2.49423
2.49182
2.49198
2.49264
2.48731
2.48508
2.48757
2.49266
2.49075
2.48588
2.48905
2.49148
2.49671
2.4937
2.49107
2.49243
2.49447
2.48938
2.49227
2.49299
2.49141
2.49442
2.49299
2.493
2.49265
2.49136
2.49148
2.49304
2.48728
2.48604
2.48704
2.49315
2.49235
2.48905
2.48985
2.49214
2.49716
2.4951
2.49151
2.49151
2.4944
2.49254
2.49089
2.48928
2.48865
2.49489
2.49351
2.49229
2.49086
2.48947
2.48915
2.49431
2.48954
2.48783
2.48616
2.49175
2.49424
2.4937
2.4911
2.49276
2.49767
2.49678
2.49209
2.49006
2.49441
2.49537
2.48917
2.48315
2.4846
2.49637
2.49502
2.49156
2.48969
2.48714
2.48555
2.49648
2.49265
2.48947
2.48583
2.48876
2.49644
2.49727
2.49268
2.49355
2.4989
2.49817
2.49262
2.48831
2.49511
2.49699
2.48929
2.47859
2.47994
2.49893
2.49718
2.49247
2.48908
2.48261
2.48035
2.49951
2.49628
2.49132
2.48636
2.4846
2.49821
2.49945
2.49496
2.49437
2.50111
2.49949
2.49327
2.48633
2.49718
2.4975
2.49012
2.47543
2.4738
2.50258
2.49991
2.49522
2.48824
2.47571
2.47291
2.50347
2.5007
2.49317
2.48628
2.47944
2.50101
2.49979
2.49814
2.49548
2.5046
2.5018
2.4936
2.48285
2.50105
2.49832
2.48785
2.46718
2.46329
2.50763
2.50392
2.4989
2.48645
2.46817
2.45828
2.50869
2.50662
2.49402
2.48361
2.4704
2.50543
2.49989
2.49551
2.49688
2.50951
2.50498
2.49419
2.47731
2.50711
2.49915
2.48421
2.45402
2.44015
2.51421
2.5106
2.50374
2.48348
2.45322
2.42668
2.51525
2.51444
2.49564
2.47723
2.45373
2.51099
2.50224
2.49316
2.49967
2.51588
2.50991
2.49578
2.47037
2.51536
2.50031
2.47843
2.43071
2.38945
2.5214
2.51971
2.50987
2.47811
2.42535
2.35222
2.52377
2.52337
2.50318
2.46996
2.42468
2.51942
2.50862
2.49521
2.5061
2.5237
2.51665
2.50125
2.46424
2.52424
2.50846
2.47133
2.39565
2.25531
2.52911
2.52788
2.51656
2.47468
2.38875
2.17845
2.53251
2.53233
2.51277
2.46404
2.37001
2.52884
2.5191
2.50147
2.51906
2.53336
2.52666
2.51088
2.46451
2.53488
2.52263
2.47078
2.3636
1.88841
2.53688
2.53566
2.52682
2.47309
2.35993
1.88922
-1.97979
2.54027
2.54177
2.52214
2.46084
2.24162
2.5403
2.53188
2.51433
2.53744
2.54084
2.53834
2.52546
2.47639
2.54534
2.53562
2.4903
2.36578
1.6972
0.0606082
2.54551
2.54548
2.54017
2.49757
2.3607
1.88548
0.0734326
2.54906
2.55144
2.53642
2.46661
2.0837
2.55189
2.54552
2.5323
2.55457
2.54776
2.55206
2.54312
2.5022
2.55138
2.54499
2.51112
2.41772
1.91806
0.459834
2.55362
2.55376
2.55108
2.52009
2.41039
1.94886
0.499109
2.55799
2.56285
2.5548
2.4936
2.23779
0.714148
2.56337
2.5604
2.55316
2.56586
2.55433
2.56307
2.56003
2.53249
2.55625
2.55363
2.52928
2.46646
2.05751
0.516872
2.56055
2.56014
2.55845
2.53334
2.46149
2.13447
0.395526
2.56519
2.5698
2.56496
2.52024
2.22098
2.56947
2.56835
2.55777
2.56647
2.55376
2.55927
2.56324
2.54914
2.55806
2.55645
2.54315
2.50628
2.2639
2.5663
2.56537
2.56142
2.53743
2.50695
2.2921
-0.950801
2.56891
2.57074
2.55988
2.5303
2.39832
2.56983
2.56735
2.5549
2.55946
2.55523
2.55733
2.55859
2.54689
2.55897
2.55947
2.56408
2.53915
2.50196
2.56736
2.56619
2.56157
2.55107
2.54635
2.48534
2.56869
2.56684
2.55849
2.53856
2.50816
2.56703
2.56369
2.55487
2.56012
2.56177
2.56319
2.55985
2.55548
2.56074
2.5623
2.56057
2.55424
2.5495
2.5653
2.56319
2.56117
2.55757
2.55122
2.53853
2.5664
2.56354
2.55556
2.54678
2.54196
2.5648
2.56212
2.55678
2.56265
2.56363
2.56206
2.5609
2.5663
2.56037
2.5594
2.55999
2.55948
2.55998
2.56081
2.55878
2.55999
2.55641
2.56049
2.55447
2.56265
2.56154
2.55716
2.55594
2.55562
2.56334
2.56198
2.55982
2.56402
2.56441
2.5618
2.56232
2.5662
2.56041
2.55967
2.56318
2.56349
2.56465
2.55359
2.55294
2.55788
2.55951
2.56119
2.5608
2.55985
2.56149
2.55999
2.56057
2.56181
2.56261
2.56294
2.56256
2.56697
2.56771
2.56556
2.56588
2.56773
2.56303
2.5643
2.5666
2.56658
2.56754
2.54953
2.55116
2.55888
2.56205
2.56423
2.56496
2.5598
2.56273
2.56325
2.56381
2.56598
2.56295
2.56474
2.5653
2.57017
2.57309
2.56991
2.56899
2.56977
2.56866
2.56762
2.5688
2.56869
2.56971
2.55731
2.55735
2.56238
2.56459
2.56652
2.56829
2.56244
2.56438
2.56556
2.56665
2.56932
2.56452
2.56718
2.56799
2.57297
2.57866
2.57384
2.57133
2.57137
2.5763
2.57034
2.56971
2.56919
2.57144
2.56728
2.56508
2.56402
2.56574
2.56737
2.57091
2.56575
2.56552
2.56636
2.56907
2.57223
2.56708
2.56947
2.57037
2.57517
2.58195
2.5761
2.57273
2.57225
2.58021
2.57358
2.57115
2.57044
2.57273
2.57263
2.56874
2.56717
2.56764
2.56905
2.57242
2.56746
2.56721
2.56817
2.57079
2.57387
2.56894
2.57133
2.57206
142.57
131.883
138.796
136.858
128.806
137.185
136.944
142.106
147.407
148.555
144.474
146.428
142.633
139.758
136.68
140.527
139.888
137.361
141.258
139.089
137.269
146.068
146.805
135.913
141.616
142.453
147.228
144.859
146.417
145.171
144.173
145.64
147.326
141.33
134.186
140.177
134.541
131.21
128.497
133.035
129.818
125.597
129.852
128.136
130.091
136.312
136.578
135.761
144.147
146.832
146.823
146.041
147.84
146.901
147.061
140.812
136.495
142.045
138.032
134.908
133.018
136.854
134.616
131.846
132.186
133.499
135.141
136.223
134.983
137.261
148.618
148.128
146.657
150.456
148.514
142.978
140.218
145.417
144.294
137.858
136.921
143.062
142.244
138.616
142.951
145.61
147.092
143.988
150.985
147.264
145.208
146.405
145.461
145.505
145.414
149.462
128.111
120.321
122.536
126.639
125.396
117.9
120.525
118.695
124.163
123.324
117.244
116.314
115.006
123.266
111.24
133.367
124.649
130.296
133.175
131.774
122.325
122.943
126.088
125.644
122.897
120.498
121.255
110.098
107.085
112.547
109.648
120.554
106.851
134.778
133.494
135.799
128.915
130.404
130.337
120.632
117.569
109.098
110.9
107.349
136.076
135.502
131.034
130.842
130.151
117.871
121.457
111.078
107.427
110.803
134.662
126.321
135.05
134.403
134.706
127.943
128.197
124.625
127.167
124.759
128.027
125.855
118.378
113.613
117.506
111.694
109.172
133.701
124.425
133.311
130.816
126.008
125.985
124.509
130.435
129.825
124.3
121.893
123.299
116.643
101.312
70.2602
104.432
103.067
104.087
83.7986
75.6068
80.6858
103.156
100.685
86.3997
82.8952
78.7959
96.9489
73.1356
100.28
64.3124
101.537
100.782
104.476
63.3696
69.3494
66.4267
71.2302
93.0856
100.772
94.9734
73.9951
69.6689
79.8752
70.8192
90.8943
63.1397
101.863
102.048
103.211
64.2501
60.145
61.5279
90.5822
86.4481
59.5619
59.7205
57.1695
104.348
102.991
59.4533
60.816
61.319
85.4938
87.4101
57.9439
56.1554
56.9519
101.45
62.2299
99.3926
96.1682
93.8352
59.9802
54.7175
51.4714
50.2785
91.0856
91.9772
88.9769
56.3754
56.9964
53.3168
52.9806
54.8535
91.854
46.339
94.7802
94.2717
44.8197
47.2643
44.9112
93.833
95.7149
50.5029
50.1988
47.6488
49.9145
4.58073
1.9932
10.7847
8.53396
13.3795
2.01053
2.0088
2.30011
16.6274
13.5611
1.96282
2.38465
2.22133
7.69009
2.08077
4.2654
2.00114
5.61805
5.53197
7.9005
2.05963
2.03925
2.04689
2.11501
5.56191
17.8272
8.93008
2.16559
1.89564
2.30103
1.95788
6.44918
1.83527
5.00376
3.28778
4.55952
1.92782
1.80897
1.86874
9.55094
11.8236
1.57572
1.93647
1.63783
4.37352
4.66224
1.81502
1.88182
1.85893
10.814
8.25591
1.97773
1.64892
1.68973
3.53318
1.96874
3.95159
2.84151
3.34494
2.00746
1.92077
2.02642
1.97563
5.90392
4.78027
3.58893
1.9737
1.89412
1.9
1.81651
1.70999
2.80706
1.97318
3.39535
2.76607
1.87163
1.91684
1.9021
3.68646
2.75065
1.88416
1.80188
1.87334
1.84295
2.53795
2.4002
2.4196
2.46286
2.37261
2.46061
2.41904
2.43618
2.33135
2.35541
2.46288
2.44443
2.44992
2.40677
2.43282
2.5756
2.36929
2.52529
2.54451
2.46799
2.38305
2.38781
2.38068
2.38484
2.42191
2.26534
2.35437
2.39968
2.37747
2.40235
2.35094
2.40391
2.36406
2.5615
2.60191
2.57252
2.35008
2.35007
2.33168
2.23018
2.1999
2.28714
2.25258
2.27761
2.57169
2.59069
2.34582
2.31773
2.34205
2.28402
2.36274
2.26486
2.29841
2.2828
2.58329
2.33841
2.52405
2.55516
2.53803
2.35016
2.30386
2.34284
2.30612
2.37245
2.43136
2.43403
2.25654
2.24552
2.25864
2.28859
2.2874
2.53957
2.29688
2.49006
2.49496
2.29502
2.27783
2.29506
2.49915
2.47936
2.26259
2.27755
2.28874
2.28825
2.43972
2.43257
2.4444
2.43378
2.4388
2.44102
2.44086
2.43843
2.44267
2.44577
2.44829
2.44401
2.44773
2.4302
2.43595
2.44066
2.41744
2.43726
2.43977
2.42288
2.42608
2.42676
2.42313
2.41432
2.42001
2.39079
2.38614
2.43275
2.42695
2.38882
2.38833
2.36422
2.37762
2.4291
2.4248
2.42547
2.41334
2.41278
2.41061
2.33696
2.36825
2.35206
2.36273
2.25671
2.42635
2.41396
2.41237
2.40625
2.39259
2.38227
2.35772
2.36422
2.25793
2.38404
2.42548
2.38309
2.40201
2.43244
2.41608
2.37638
2.35202
2.37411
2.34347
2.37653
2.40748
2.41922
2.31939
2.35116
2.36847
2.39102
2.37169
2.42334
2.35126
2.4135
2.41062
2.36895
2.37443
2.38112
2.40245
2.41997
2.38191
2.38495
2.40148
2.37257
2.43212
2.4301
2.43865
2.43999
2.43721
2.43887
2.43871
2.43702
2.44488
2.44793
2.44555
2.44431
2.44672
2.43512
2.43496
2.41589
2.40939
2.42755
2.42103
2.4114
2.42165
2.4239
2.41273
2.40796
2.42884
2.39769
2.41062
2.43336
2.42983
2.40007
2.41108
2.3968
2.40142
2.4082
2.40713
2.40252
2.40252
2.40466
2.39803
2.43783
2.41324
2.48397
2.41177
2.45712
2.4139
2.43612
2.45444
2.43944
2.45068
2.45158
2.45506
2.45828
2.45362
2.40255
2.39644
2.41246
2.40701
2.39948
2.46967
2.40851
2.41656
2.42849
2.43045
2.42818
2.43879
2.45099
2.44303
2.45402
2.4586
2.45471
2.4488
2.45587
2.4007
2.39187
2.38056
2.41207
2.4001
2.39011
2.39469
2.39874
2.39762
2.40388
2.41928
2.42698
2.39974
2.41606
2.42392
2.42802
2.41446
2.4085
2.40352
2.40158
2.40816
2.42274
2.41876
2.42361
2.40947
2.41525
2.42709
2.42769
2.43387
2.42283
2.42797
2.42789
2.4396
2.43801
2.43749
2.43981
2.43837
2.43791
2.44294
2.44357
2.44133
2.44049
2.44017
2.43752
2.43673
2.4047
2.40264
2.42132
2.40744
2.40512
2.41552
2.42067
2.40499
2.40322
2.43154
2.40431
2.42779
2.43179
2.42937
2.40989
2.42777
2.41307
2.45378
2.41655
2.44937
2.44897
2.4571
2.44552
2.4574
2.39469
2.40211
2.39392
2.39038
2.40127
2.39344
2.4629
2.42355
2.45172
2.4344
2.44871
2.42768
2.45606
2.45446
2.44682
2.4507
2.44439
2.45288
2.44371
2.45192
2.41198
2.40755
2.42024
2.41731
2.41662
2.44817
2.43852
2.45359
2.44634
2.45806
2.44704
2.45736
2.45386
2.45266
2.45686
2.45211
2.4567
2.45685
2.45838
2.41126
2.41537
2.41043
2.41892
2.42113
2.41357
2.4136
2.42083
2.42748
2.42898
2.43507
2.43518
2.43152
2.43549
2.44282
2.44103
2.45887
2.43457
2.4608
2.45816
2.45361
2.45949
2.42802
2.43224
2.43177
2.43515
2.44527
2.44027
2.44371
2.44144
2.44608
2.44353
2.45025
2.45232
2.44188
2.42963
2.43207
2.44012
2.44028
2.43854
2.44105
2.44189
2.43925
2.43905
2.43866
2.44044
2.43935
2.43785
2.43854
2.43942
2.40684
2.41438
2.42289
2.4094
2.40601
2.42396
2.42723
2.41601
2.41142
2.43471
2.41748
2.43298
2.43585
2.43833
2.43091
2.43884
2.42245
2.44921
2.42674
2.45211
2.44551
2.45745
2.44851
2.46089
2.39483
2.40718
2.40196
2.40662
2.41726
2.41546
2.45399
2.4321
2.45516
2.44254
2.45631
2.43947
2.45703
2.45579
2.44318
2.4547
2.44664
2.45911
2.4492
2.45961
2.42331
2.42663
2.4301
2.43098
2.43673
2.46118
2.45156
2.46454
2.4506
2.46329
2.45323
2.46549
2.45933
2.45885
2.45997
2.45911
2.46467
2.4609
2.46246
2.42524
2.43522
2.41556
2.43077
2.43583
2.43268
2.42063
2.43713
2.44025
2.43923
2.44808
2.44581
2.44242
2.44146
2.45079
2.44875
2.46177
2.4386
2.46133
2.46073
2.45683
2.46451
2.44085
2.44722
2.44694
2.44995
2.45411
2.45255
2.45521
2.4553
2.45404
2.45259
2.45832
2.45577
2.45015
2.43617
2.44071
2.44222
2.44395
2.43965
2.44381
2.44649
2.44041
2.44174
2.4385
2.44491
2.4448
2.43993
2.44221
2.44547
2.42435
2.4344
2.43316
2.42466
2.41989
2.43909
2.43851
2.43353
2.42722
2.44542
2.44591
2.44564
2.44739
2.45032
2.45574
2.45163
2.44481
2.44752
2.42164
2.43187
2.42965
2.43595
2.44448
2.44101
2.46463
2.45235
2.46753
2.44844
2.46041
2.45386
2.46376
2.46314
2.4598
2.46324
2.46256
2.46464
2.47288
2.46533
2.44054
2.4451
2.44966
2.44886
2.44978
2.46832
2.45189
2.47061
2.45237
2.46522
2.44716
2.46528
2.46723
2.46266
2.4645
2.47902
2.4717
2.4686
2.46513
2.44372
2.44938
2.43102
2.44341
2.44429
2.44985
2.44227
2.44926
2.44874
2.44297
2.45194
2.45115
2.44726
2.44593
2.45303
2.45367
2.44413
2.45108
2.45332
2.45525
2.45601
2.44894
2.45631
2.45591
2.45924
2.45651
2.45692
2.45919
2.45733
2.45785
2.44537
2.44913
2.44595
2.449
2.44227
2.44808
2.45059
2.44486
2.44771
2.44215
2.44925
2.44945
2.44448
2.44758
2.44856
2.44428
2.45355
2.44319
2.44248
2.43441
2.45199
2.44706
2.45145
2.44378
2.45167
2.45748
2.45499
2.45015
2.45108
2.45529
2.45525
2.45143
2.45446
2.44747
2.45075
2.44841
2.45694
2.45704
2.45615
2.45559
2.48237
2.45286
2.45321
2.41649
2.45345
2.45269
2.45847
2.45715
2.45702
2.48133
2.43947
2.447
2.40751
2.442
2.45352
2.45671
2.45222
2.45279
2.45171
2.45591
2.46163
2.45435
2.4554
2.45088
2.45341
2.45584
2.44935
2.45741
2.45192
2.45598
2.45068
2.45428
2.45467
2.45705
2.45539
2.44713
2.45897
2.45586
2.45822
2.458
2.45967
2.45688
2.45874
2.45727
2.45158
2.45234
2.44976
2.45073
2.44694
2.45076
2.44912
2.44812
2.45019
2.44629
2.44982
2.45018
2.44714
2.44798
2.44644
2.46147
2.46611
2.44988
2.45882
2.45241
2.45619
2.45127
2.46217
2.45757
2.45051
2.45075
2.45338
2.44672
2.44918
2.44295
2.45094
2.45368
2.4522
2.46517
2.46312
2.4629
2.47451
2.46695
2.46674
2.45575
2.45331
2.45636
2.45653
2.45687
2.46018
2.46057
2.46236
2.46104
2.46244
2.44518
2.44435
2.44854
2.44901
2.44516
2.4591
2.46023
2.46685
2.45448
2.45603
2.45636
2.46979
2.45352
2.45479
2.45954
2.44821
2.45227
2.44637
2.45805
2.44426
2.44746
2.45055
2.45355
2.45143
2.46186
2.45764
2.44834
2.46317
2.45951
2.45533
2.45925
2.45936
2.45367
2.45954
2.45176
2.45137
2.44947
2.45079
2.4456
2.44849
2.44978
2.4415
2.44822
2.44942
2.44668
2.44759
2.4478
2.44504
2.44445
2.44242
2.46635
2.46444
2.45073
2.4612
2.45825
2.45127
2.44933
2.45829
2.45635
2.44753
2.43425
2.44766
2.44264
2.44625
2.42574
2.44445
2.44964
2.44709
2.48039
2.46846
2.46776
2.47812
2.46842
2.46787
2.45565
2.45501
2.45464
2.45483
2.4537
2.45976
2.46182
2.45888
2.45806
2.4606
2.44881
2.44568
2.44831
2.44834
2.44575
2.45906
2.45636
2.46564
2.4513
2.45
2.45164
2.45818
2.44788
2.44404
2.45278
2.44153
2.44246
2.43806
2.44777
2.43716
2.43918
2.44637
2.4474
2.44269
2.46277
2.45994
2.44601
2.45948
2.45922
2.45412
2.45908
2.45687
2.45646
2.45817
2.44853
2.44771
2.44626
2.44832
2.43857
2.44765
2.44711
2.43839
2.44715
2.44599
2.44317
2.44395
2.4444
2.44175
2.44107
2.44215
2.46103
2.45703
2.44862
2.45415
2.45243
2.44721
2.44797
2.45001
2.44838
2.44551
2.4209
2.44279
2.44308
2.44573
2.42156
2.44357
2.44529
2.44546
2.47158
2.468
2.46881
2.46508
2.46679
2.46855
2.45361
2.45211
2.45099
2.45192
2.4506
2.45613
2.45869
2.45444
2.45422
2.45653
2.4475
2.44595
2.44772
2.44685
2.44571
2.45355
2.45119
2.44924
2.44446
2.4375
2.44706
2.44165
2.44169
2.43045
2.44483
2.43292
2.43825
2.43654
2.4452
2.42943
2.43932
2.44593
2.43812
2.43195
2.45518
2.45648
2.43907
2.45016
2.45321
2.45866
2.45762
2.4588
2.46039
2.45903
2.44934
2.44533
2.44443
2.44582
2.43999
2.4457
2.44454
2.44184
2.44489
2.4435
2.44192
2.44214
2.44325
2.44318
2.44595
2.4498
2.45316
2.4494
2.44666
2.4468
2.44527
2.4455
2.4449
2.4439
2.44241
2.44633
2.42905
2.44527
2.44908
2.44737
2.44016
2.44679
2.44688
2.44793
2.45991
2.46551
2.46571
2.45536
2.46545
2.46075
2.45014
2.44896
2.44833
2.44825
2.44745
2.45303
2.45491
2.45895
2.45312
2.45313
2.4461
2.44573
2.44677
2.44558
2.44554
2.44903
2.44732
2.4358
2.43929
2.42344
2.44538
2.43179
2.43754
2.41715
2.44652
2.42914
2.44204
2.44476
2.44919
2.43595
2.44679
2.44889
2.42362
2.41639
2.4421
2.44615
2.4197
2.42943
2.43751
2.46109
2.46078
2.4587
2.46099
2.46055
2.45281
2.44327
2.44202
2.44454
2.44305
2.44442
2.44507
2.44334
2.444
2.44452
2.4447
2.44431
2.44624
2.44577
2.45255
2.45375
2.44592
2.44285
2.44259
2.4413
2.43867
2.44231
2.44004
2.43922
2.43494
2.44812
2.44989
2.4471
2.45369
2.44836
2.46305
2.4463
2.44862
2.44903
2.45104
2.46079
2.45509
2.4464
2.45138
2.44883
2.44631
2.44625
2.44589
2.44523
2.44538
2.45094
2.44983
2.44931
2.44718
2.44599
2.44521
2.44532
2.44595
2.44499
2.44483
2.44574
2.44398
2.42978
2.43768
2.41763
2.44472
2.43009
2.44048
2.42582
2.4519
2.44806
2.45218
2.45607
2.45407
2.46099
2.45666
2.45131
2.41774
2.43408
2.42392
2.43259
2.42767
2.42645
2.43535
2.46165
2.45971
2.45425
2.46705
2.46113
2.46006
2.44097
2.4402
2.44474
2.44284
2.44355
2.44382
2.44176
2.44316
2.44673
2.44617
2.44578
2.44669
2.44595
2.4532
2.45099
2.44085
2.44017
2.43812
2.43808
2.43191
2.44015
2.43755
2.43813
2.43091
2.44837
2.474
2.44563
2.4522
2.44767
2.47371
2.44564
2.44931
2.4492
2.44299
2.44475
2.44379
2.44059
2.44111
2.44037
2.44455
2.44512
2.44577
2.44447
2.4451
2.44349
2.44281
2.44143
2.44064
2.44036
2.44462
2.44424
2.44536
2.44444
2.44347
2.44262
2.44137
2.43353
2.44451
2.43951
2.44273
2.4369
2.44874
2.45132
2.45487
2.46956
2.45955
2.45932
2.45369
2.47469
2.45991
2.45031
2.45687
2.47266
2.43592
2.44327
2.48533
2.44811
2.45172
2.47971
2.46367
2.45744
2.48465
2.45972
2.48807
2.44078
2.44311
2.44263
2.44065
2.44234
2.44196
2.44043
2.44156
2.44632
2.44549
2.44507
2.44529
2.44463
2.44846
2.44607
2.44093
2.44282
2.43925
2.43941
2.43303
2.44315
2.44262
2.44155
2.43795
2.44742
2.46746
2.44683
2.44665
2.44635
2.45828
2.44703
2.44866
2.44782
2.43964
2.43993
2.43888
2.43996
2.44056
2.43911
2.44462
2.44557
2.44676
2.44514
2.44616
2.439
2.43921
2.4393
2.43856
2.43927
2.44408
2.44301
2.44484
2.4443
2.44334
2.44024
2.43953
2.43754
2.44978
2.45599
2.439
2.43553
2.44725
2.45358
2.45093
2.47036
2.45779
2.45076
2.44757
2.46125
2.45385
2.4466
2.4758
2.47535
2.44462
2.45345
2.54176
2.45153
2.45412
2.46704
2.44079
2.41247
2.44229
2.42385
2.46361
2.44649
2.44973
2.44229
2.4417
2.44147
2.44352
2.44417
2.44229
2.444
2.44308
2.44326
2.44317
2.4421
2.44407
2.44262
2.44563
2.44899
2.44691
2.44454
2.44416
2.44915
2.45081
2.44773
2.45167
2.44566
2.4509
2.44765
2.44211
2.44503
2.44567
2.44765
2.44777
2.44784
2.44161
2.44307
2.44107
2.44412
2.44668
2.44439
2.4461
2.44727
2.44923
2.44738
2.44856
2.43937
2.44008
2.442
2.44105
2.44169
2.44522
2.44455
2.44622
2.44669
2.44623
2.43983
2.44088
2.43459
2.44457
2.44895
2.44047
2.43482
2.44334
2.44511
2.44533
2.45484
2.45072
2.44439
2.44382
2.45106
2.44858
2.44541
2.46915
2.45953
2.46337
2.45992
2.47069
2.48249
2.46234
2.44103
2.42009
2.43831
2.44962
2.42455
2.45105
2.45231
2.45437
2.44601
2.44743
2.44435
2.44968
2.45099
2.44747
2.44312
2.44217
2.44508
2.44412
2.44344
2.44202
2.44265
2.45273
2.45617
2.45396
2.45103
2.4595
2.45518
2.45637
2.45467
2.46654
2.44508
2.44221
2.44794
2.44037
2.44566
2.43947
2.44839
2.44843
2.4494
2.44733
2.45069
2.4487
2.45091
2.45469
2.45325
2.44912
2.45019
2.45296
2.45116
2.45199
2.44338
2.44379
2.44793
2.4464
2.44621
2.44866
2.44804
2.44965
2.45096
2.45014
2.4426
2.4447
2.43519
2.44447
2.44418
2.44504
2.4345
2.44632
2.44488
2.4446
2.44946
2.44865
2.44489
2.44633
2.44874
2.44944
2.4485
2.45255
2.45006
2.48794
2.463
2.44549
2.46897
2.4456
2.45587
2.43313
2.44135
2.46042
2.4371
2.4524
2.45672
2.45947
2.4545
2.4548
2.45171
2.46019
2.459
2.45696
2.44667
2.4466
2.45281
2.45101
2.45146
2.44484
2.44873
2.45929
2.46247
2.45817
2.45864
2.47089
2.46077
2.45965
2.46249
2.47235
2.44713
2.43832
2.44966
2.44381
2.44976
2.44018
2.4518
2.45103
2.45327
2.45482
2.45857
2.45767
2.45919
2.46258
2.46184
2.45348
2.45393
2.45755
2.45605
2.45629
2.45023
2.4494
2.45701
2.45466
2.45398
2.4537
2.4526
2.45495
2.45668
2.45544
2.44759
2.45173
2.43415
2.44903
2.44749
2.45153
2.43661
2.45258
2.45008
2.44957
2.44918
2.45118
2.44937
2.45281
2.45036
2.45323
2.45425
2.45142
2.45485
2.45873
2.48047
2.45692
2.47151
2.50621
2.46505
2.48459
2.47702
2.46953