/*--------------------------------*- C++ -*----------------------------------*\
| =========                 |                                                 |
| \\      /  F ield         | OpenFOAM: The Open Source CFD Toolbox           |
|  \\    /   O peration     | Version:  5.x                                   |
|   \\  /    A nd           | Web:      www.OpenFOAM.org                      |
|    \\/     M anipulation  |                                                 |
\*---------------------------------------------------------------------------*/
FoamFile
{
    version     2.0;
    format      ascii;
    class       volVectorField;
    location    "3.65";
    object      U;
}
// * * * * * * * * * * * * * * * * * * * * * * * * * * * * * * * * * * * * * //

dimensions      [0 1 -1 0 0 0 0];

internalField   nonuniform List<vector> 
10571
(
(-0.275168 0.160827 1.37976)
(-0.042719 0.305164 0.779036)
(-0.0414171 0.235687 1.16873)
(-0.824661 0.0633811 2.03581)
(-0.140415 -0.151932 1.76702)
(0.19949 0.443626 1.92937)
(-2.33807 1.995 5.09817)
(-0.930394 0.611827 2.06271)
(-0.253308 1.0399 2.14776)
(-0.105352 0.305394 1.98205)
(0.273642 -0.0774979 0.977238)
(-0.279351 -0.25539 2.36429)
(-0.980699 -0.127138 4.42037)
(-0.286967 0.402316 1.88631)
(-0.431614 0.228904 1.6065)
(-0.08545 -0.0618455 1.39278)
(-0.0679019 -0.0203139 1.10801)
(0.0958046 0.0541976 1.56316)
(-0.0423037 0.567132 2.90951)
(-0.577517 0.0938338 1.65016)
(-0.246047 0.0685855 1.13077)
(0.0816279 0.00122022 1.0313)
(-0.112846 0.0850406 1.71223)
(-0.234005 0.0430677 1.06528)
(-0.1652 -0.00258817 1.3051)
(0.0426713 -0.00153295 -0.0152077)
(-0.200221 0.151504 1.3791)
(-0.095547 -0.0958086 1.06325)
(-0.636206 -0.383941 2.20985)
(-0.270415 -0.100029 3.14961)
(0.101537 0.0650102 3.33673)
(-0.417525 0.337494 2.80676)
(-0.899489 0.45825 1.95292)
(-0.443257 0.169171 1.11021)
(0.0264677 0.341256 0.994601)
(0.260572 -0.042905 1.84171)
(0.219147 0.105131 2.89224)
(-0.540096 -0.190563 3.80779)
(-1.20491 0.848533 3.53311)
(-0.754613 0.821555 1.42933)
(-0.0549517 -0.155105 1.42274)
(0.041195 -0.283092 1.99047)
(-0.269411 -0.13931 1.64549)
(-0.3708 -0.00158384 2.02318)
(-0.166948 0.229234 0.839274)
(0.289469 -0.227112 1.58903)
(-0.54398 0.151651 1.68692)
(0.0661485 -0.226262 0.0925773)
(0.00346941 -0.00182377 0.146708)
(0.0538588 -0.0579907 -0.242058)
(0.396009 0.403688 1.6646)
(-0.401307 0.387918 1.07255)
(-0.684445 -0.12282 1.53563)
(0.0195334 -0.0272318 2.96485)
(0.290765 -0.197803 2.80418)
(-0.850821 -0.702387 2.04795)
(-0.423155 -0.0715164 0.67009)
(-0.112782 0.0292989 0.102864)
(0.0167135 0.366424 1.46495)
(0.403947 0.0387355 1.45061)
(-0.390588 -0.0783067 1.78026)
(-0.39517 -0.223917 1.57824)
(-0.550445 0.534304 1.72044)
(-0.188998 0.265517 0.207528)
(0.26025 -0.040783 0.809814)
(-0.13468 -0.294175 2.08319)
(-0.204199 0.10159 1.60168)
(-0.305093 0.0700629 1.60663)
(-0.0750436 0.109262 0.0495118)
(0.03206 -0.38526 1.81392)
(-0.356611 -0.0832148 1.64533)
(0.0533438 -0.122233 -0.033734)
(0.0652413 0.0273538 0.0622587)
(0.022731 -0.0406631 -0.202831)
(0.516004 0.0969964 2.11066)
(-0.482628 -0.0347549 1.48044)
(-0.0161979 0.110053 1.30086)
(0.00357933 -0.126991 2.60755)
(0.14058 -0.332752 2.84541)
(-0.522445 -1.38279 2.417)
(0.0722257 -0.278684 0.393104)
(-0.0185602 -0.0340679 -0.135797)
(0.0899847 -0.0220052 0.617002)
(0.207726 -0.0933919 1.76338)
(-0.524528 -0.218217 1.92158)
(-0.314184 -0.0383152 1.45922)
(-0.17136 0.254043 1.80721)
(0.0531718 -0.0467729 0.0424689)
(0.125925 -0.0691275 0.628391)
(-0.174593 -0.785052 2.37858)
(-0.216217 -0.168011 1.83568)
(-0.166057 0.291569 2.04552)
(-0.00365825 0.0178191 -0.111793)
(-0.355745 -0.605621 1.38279)
(-0.0543656 -0.391504 1.08819)
(0.0685203 -0.0101244 -0.166355)
(0.0957866 0.024525 0.104578)
(0.0301385 -0.0304197 -0.164997)
(0.484464 -0.226418 2.39979)
(-0.260158 -0.76249 2.34837)
(0.118965 -0.156742 1.43176)
(0.015231 -0.172258 2.84372)
(-0.561048 -0.911813 3.03364)
(0.0747796 -0.920791 2.10543)
(0.278501 -0.187323 0.187309)
(0.0402326 -0.0243656 -0.037716)
(0.0164449 -0.0934498 0.419315)
(-0.13454 -0.362446 2.16111)
(-1.0506 -0.738126 2.84264)
(-0.129379 -0.0879725 1.48227)
(0.66056 -0.19162 1.80945)
(0.213075 -0.138971 0.160321)
(-0.315772 -0.296942 0.870804)
(-0.588022 -0.806006 2.52547)
(0.2961 -0.203268 2.3269)
(0.199118 0.341499 2.33217)
(0.0276299 -0.0176704 -0.0393872)
(-0.250316 -0.0456748 0.271328)
(0.199358 -0.0439316 0.666562)
(0.0645126 0.0230605 -0.142493)
(0.117932 0.00423513 0.155245)
(0.0538652 -0.0523371 -0.129427)
(0.0303679 -0.339245 2.39794)
(0.534433 -0.853707 3.39819)
(0.22943 0.256081 1.78679)
(0.130352 -0.246557 3.34313)
(-0.391766 -1.05511 2.54581)
(0.367404 -0.336286 0.76022)
(0.361537 -0.14042 0.405062)
(0.179744 0.157566 0.356126)
(-0.00919873 0.00565958 -0.00432361)
(-0.0244949 -0.0344094 0.166944)
(-0.560302 -0.434113 3.08535)
(-0.260895 -0.288565 1.06064)
(0.180119 -0.0657304 0.215471)
(0.295869 -0.146808 0.3685)
(0.362203 -0.00428789 0.627949)
(-0.0033876 -0.00118799 -0.00198455)
(-0.482225 -0.664071 1.82198)
(-0.37883 0.0767112 1.53629)
(0.466319 0.244281 1.40488)
(0.785713 0.00608609 2.85016)
(0.464565 -0.288612 0.647731)
(-0.0640808 0.0570977 0.0255265)
(0.272424 0.055339 0.528513)
(0.048953 0.102261 0.0225571)
(0.201727 -0.0375982 0.368409)
(0.0700775 -0.0704895 -0.0625766)
(-0.0793866 -0.331881 2.57526)
(0.980665 -0.396498 3.60317)
(0.851732 0.672322 1.92757)
(0.0812717 -0.364207 3.70609)
(0.332737 -0.178398 1.80979)
(0.535264 0.0322547 0.964333)
(0.150698 0.677321 0.796656)
(0.0875169 0.160558 0.245872)
(-0.140218 0.192629 0.0178685)
(-5.90629e-06 0.0227844 0.0939008)
(-0.528569 -0.230719 3.76219)
(0.185042 0.146248 0.630365)
(0.152971 -0.0115314 0.770634)
(0.0583212 0.112218 1.54646)
(0.691122 0.256087 0.755568)
(0.266705 0.0521806 0.333699)
(0.114056 -0.0171057 2.10948)
(-0.000621817 0.111172 0.541418)
(0.207164 0.0938656 1.01831)
(0.392799 0.0156708 1.94367)
(0.641956 -0.173346 1.75437)
(-0.216979 0.0282133 0.25815)
(-0.0301446 0.105619 0.167864)
(0.103204 0.170691 0.670788)
(0.25213 -0.0680966 1.49405)
(0.344517 -0.00546207 0.656508)
(0.075084 -0.120576 0.109409)
(0.206876 -0.389983 2.53084)
(1.01461 -0.138065 3.64845)
(0.829943 0.424378 1.95541)
(-0.281186 -0.621947 3.88749)
(0.276313 0.0239958 0.558409)
(0.459529 -0.00602006 0.884302)
(-0.100653 0.357891 0.693732)
(-0.393564 0.280432 0.210761)
(-0.29001 -0.0901627 -0.134753)
(0.00601357 0.104054 0.113679)
(-0.269364 0.24621 4.33809)
(0.2688 0.549891 1.08352)
(-0.520021 0.308127 0.505327)
(0.0179364 0.209203 0.777745)
(-0.225048 0.376537 0.553219)
(0.0553019 -0.0867078 0.446578)
(0.309445 0.567818 1.53593)
(0.214301 -0.125503 1.49526)
(-0.325171 -0.0240664 1.24419)
(0.370064 -0.136336 1.14533)
(0.539616 -0.286654 1.52553)
(0.284696 0.0396705 0.428197)
(0.099904 0.464832 0.627987)
(-0.084384 0.19427 0.60941)
(0.146978 -0.0999413 1.14642)
(0.231476 -0.0199797 0.720768)
(-0.0751321 -0.0237253 0.43625)
(0.623388 -0.0589104 2.58291)
(0.809457 0.084563 3.38997)
(0.655706 0.226704 1.97074)
(-0.0183349 -0.277883 2.37185)
(-0.0991482 -0.123467 1.08196)
(0.00211121 -0.0361544 0.736578)
(-0.246587 0.270992 0.978551)
(-0.352562 0.306048 0.453503)
(-0.391488 -0.329772 -0.280387)
(-0.0601461 -0.0139197 0.190707)
(0.275957 0.61549 3.66299)
(0.0242507 0.137253 1.03009)
(-0.2756 0.0769902 0.429772)
(-0.038183 0.228266 0.915018)
(-0.245202 0.295111 0.726793)
(-0.0623957 -0.467722 0.45894)
(0.261024 0.782373 1.66007)
(0.083147 0.0250527 1.03924)
(-0.139442 -0.0309994 0.797583)
(-0.0233098 0.00699442 1.01039)
(0.295727 -0.338728 1.77136)
(0.0106104 -0.178765 0.39793)
(-0.0441383 -0.141108 0.546032)
(0.0844451 -0.0740237 1.07941)
(0.131924 -0.0231776 0.826726)
(-0.178212 0.0262052 0.288676)
(0.542104 -0.0475413 2.34024)
(0.72915 0.0749836 3.11863)
(0.639932 0.142927 2.27461)
(-0.0465002 -0.024874 2.50964)
(-0.1219 -0.166281 0.620295)
(-0.0767974 0.0652314 0.859526)
(-0.246044 0.21689 1.11051)
(-0.434801 0.0627622 0.736355)
(0.0913494 0.146842 0.0775635)
(0.170949 0.353982 3.09853)
(0.0218551 0.105105 1.24093)
(-0.0547063 -0.0205911 0.580517)
(-0.0260317 0.172632 1.03447)
(-0.326086 -0.111622 1.11622)
(0.0551934 0.359238 1.65282)
(0.0574489 0.0744065 1.24994)
(-0.0776801 -0.0591919 0.931081)
(0.0182582 -0.0113944 1.02659)
(0.289222 -0.328773 1.8733)
(0.00732294 0.160087 0.596032)
(0.023118 -0.0269728 0.575468)
(0.0936679 -0.0697769 0.859587)
(0.115846 0.0413864 0.691407)
(-0.118208 0.0632376 0.275982)
(0.417677 -0.20385 2.17161)
(0.686692 0.034225 2.99193)
(0.564672 0.0943547 2.39146)
(-0.175054 -0.0419444 2.25038)
(-0.185115 -0.168144 0.705593)
(-0.201185 0.0186992 0.950156)
(-0.262209 0.204191 1.17429)
(-0.236528 0.149546 0.843086)
(-0.0733176 0.140982 0.149169)
(0.0543436 0.375057 2.70853)
(-0.0694697 -0.0519419 1.32626)
(-0.0409324 -0.0590344 0.59)
(-0.033923 0.0369159 1.0842)
(0.0152816 -0.223612 1.20339)
(-0.0962591 0.255715 1.75888)
(0.0594179 0.0849958 1.26659)
(-0.0583253 -0.0898861 0.93782)
(0.0201514 0.00181513 1.04477)
(0.2659 -0.319578 1.77741)
(0.0438639 0.15729 0.782028)
(0.100557 -0.0207464 0.649358)
(0.126126 -0.039228 0.757358)
(0.190146 0.0258956 0.633458)
(-0.0618004 0.086649 0.387097)
(0.246738 -0.320938 1.92286)
(0.609418 -0.0128355 2.67118)
(0.521264 0.0655335 2.56986)
(-0.205992 -0.0563216 2.06385)
(-0.202234 -0.282156 0.781513)
(-0.228189 -0.0640641 1.01015)
(-0.286178 0.120371 1.22687)
(-0.137586 0.315835 1.00876)
(-0.0297338 0.115323 0.39229)
(0.0404886 0.35766 2.61476)
(-0.0757573 -0.153663 1.27343)
(-0.0824962 -0.106577 0.601806)
(-0.142451 -0.117055 1.05396)
(0.0249915 -0.167397 1.29484)
(-0.154163 0.193516 1.87663)
(0.0847909 0.107012 1.19746)
(-0.0438513 -0.105359 0.898983)
(0.0356868 0.0168481 0.992995)
(0.234805 -0.291631 1.70994)
(0.0400392 0.119092 0.841837)
(0.153117 -0.0302594 0.673456)
(0.0890118 0.00811354 0.76757)
(0.202449 0.0045914 0.72104)
(0.0205919 -0.0167311 0.546296)
(0.221466 -0.386629 1.90893)
(0.536433 -0.0963428 2.58375)
(0.467016 0.0365315 2.72246)
(-0.166735 -0.00821454 1.86911)
(-0.168863 -0.368796 0.793536)
(-0.224505 -0.0920362 1.06908)
(-0.226243 0.0695497 1.33775)
(-0.204332 0.170168 1.2315)
(-0.0386386 0.0974103 0.591386)
(0.00496906 0.273412 2.48133)
(-0.0176152 -0.205939 1.12063)
(-0.168332 -0.132151 0.66255)
(-0.299114 -0.116269 0.950703)
(0.0279888 -0.154524 1.31543)
(-0.183087 0.167472 1.95444)
(0.0714962 0.136397 1.04353)
(-0.00618308 -0.087313 0.865228)
(-0.00207661 -0.0269619 0.870841)
(0.185164 -0.239168 1.64734)
(0.0433754 0.114031 0.849289)
(0.140701 -0.0232779 0.72043)
(-0.00462097 0.0460286 0.791544)
(0.160096 -0.00232712 0.797412)
(0.0103077 -0.0650216 0.812204)
(0.194382 -0.425521 1.77011)
(0.503428 -0.151084 2.37013)
(0.438468 0.0249898 2.8496)
(-0.148978 -0.00395866 1.66249)
(-0.157567 -0.393961 0.803517)
(-0.244537 -0.09418 1.08971)
(-0.162277 0.147436 1.45208)
(-0.159846 0.178445 1.6394)
(-0.0571535 0.034844 0.858451)
(-0.0627344 0.217728 2.31155)
(-0.0738448 -0.229067 0.981865)
(-0.247747 -0.130783 0.732731)
(-0.359589 -0.023294 0.878461)
(-0.0586972 -0.209961 1.07213)
(-0.185208 0.202921 2.05167)
(-0.0240553 0.0738936 0.946315)
(0.00971599 -0.0509506 0.856472)
(-0.105633 0.011373 0.779994)
(0.124167 -0.201208 1.53856)
(0.0694576 0.10525 0.882126)
(0.0869452 -0.00675346 0.808592)
(-0.0571313 0.0514005 0.767061)
(0.212878 -0.0154262 1.0313)
(-0.00560153 -0.0504368 1.04208)
(0.199724 -0.366697 1.64447)
(0.466055 -0.112567 2.24595)
(0.428241 0.0501148 2.94876)
(-0.0987312 -0.0334713 1.57793)
(-0.214481 -0.365783 0.816778)
(-0.337321 -0.0582848 1.07073)
(-0.205892 0.243836 1.44645)
(0.0914908 0.361653 1.9676)
(-0.102997 -0.0403269 1.17434)
(-0.176538 0.0883622 2.2434)
(-0.154157 -0.224222 0.903176)
(-0.259854 -0.144014 0.781974)
(-0.330816 0.0381511 0.860828)
(-0.117273 0.185578 0.857721)
(-0.168871 0.215605 2.10461)
(-0.0962379 -0.0220066 0.860508)
(0.0233008 -0.0301427 0.838521)
(-0.165903 0.0893741 0.772373)
(-0.0487917 0.0886184 1.34087)
(0.0780612 0.0935813 0.952427)
(0.0346461 0.0089593 0.890923)
(-0.083353 0.0496587 0.753665)
(0.25633 -0.000338459 1.3068)
(-0.00992055 -0.0549437 1.19367)
(0.218283 -0.321898 1.55901)
(0.426242 -0.0656742 2.13237)
(0.401329 0.0908769 3.01704)
(-0.0240256 -0.0676123 1.54553)
(-0.328283 -0.300146 0.892346)
(-0.475103 -0.0386249 1.04888)
(-0.395987 0.308736 1.28293)
(0.17766 0.454773 2.01874)
(-0.146067 -0.0985054 1.5687)
(-0.220502 0.0644399 2.02116)
(-0.182255 -0.212789 0.868611)
(-0.212559 -0.16454 0.825249)
(-0.285322 0.0130952 0.850911)
(-0.0744716 0.294869 0.754412)
(-0.0993565 0.213766 2.14917)
(-0.0945978 -0.100836 0.805933)
(0.0374057 -0.0356195 0.80021)
(-0.11333 0.11035 0.805697)
(-0.086279 0.120428 1.32104)
(0.0719228 0.0873375 0.988769)
(0.0103758 0.00415458 0.95047)
(-0.100396 0.0578656 0.781229)
(0.272348 0.00738636 1.52516)
(0.00993732 -0.07347 1.30577)
(0.199867 -0.290561 1.50308)
(0.392915 -0.00825041 2.05288)
(0.358195 0.112229 3.06576)
(-0.0227682 -0.228116 1.5383)
(-0.326247 -0.243113 1.00611)
(-0.52553 -0.0732104 1.07115)
(-0.511778 0.226562 1.14465)
(-0.0639426 0.492956 1.81255)
(-0.10819 -0.138814 1.84626)
(-0.115628 -0.205075 1.61972)
(-0.173452 -0.199001 0.868673)
(-0.170335 -0.193721 0.84633)
(-0.209748 -0.125046 0.801943)
(-0.0291523 0.120905 0.729473)
(-0.0386933 0.273158 2.09455)
(-0.0526345 -0.168072 0.771349)
(0.0254549 -0.0792572 0.746551)
(-0.0581177 0.0512518 0.813074)
(-0.0389524 0.0533817 1.37099)
(0.13468 0.075581 1.02457)
(0.0010934 -0.0117745 0.948413)
(-0.0847068 0.0572338 0.844274)
(0.275999 0.0116365 1.71469)
(0.0644231 -0.114277 1.42745)
(0.187871 -0.289123 1.46877)
(0.363448 0.026442 2.02526)
(0.304143 0.0977054 3.12195)
(0.0252272 -0.33624 1.59957)
(-0.235346 -0.194758 1.10815)
(-0.498319 -0.114072 1.13915)
(-0.466863 0.0754543 1.13177)
(-0.33573 0.245497 1.29746)
(-0.0637784 -0.199119 1.92795)
(-0.109543 -0.164552 1.20742)
(-0.170281 -0.190741 0.863184)
(-0.159895 -0.227428 0.855793)
(-0.17552 -0.252764 0.750697)
(-0.0142852 -0.0987617 0.730376)
(0.000850777 0.287142 2.05331)
(-0.0312671 -0.223541 0.728215)
(-0.0150795 -0.145199 0.6932)
(-0.109348 -0.0326061 0.749456)
(-0.0105414 0.0716682 1.36686)
(0.222477 0.0591832 1.07806)
(0.0381185 -0.0135777 0.891472)
(-0.0714997 0.0604338 0.946117)
(0.27176 0.0100999 1.85589)
(0.137842 -0.183759 1.55494)
(0.204912 -0.287681 1.49006)
(0.329344 0.0158214 2.01635)
(0.252615 0.0786416 3.1931)
(0.0717107 -0.358716 1.60692)
(-0.137483 -0.1617 1.16635)
(-0.386204 -0.0955564 1.25771)
(-0.310687 -0.0906242 1.20512)
(-0.253749 -0.0664909 1.08239)
(-0.0613842 -0.21779 1.95827)
(-0.233663 -0.0749425 1.10505)
(-0.193821 -0.192247 0.843829)
(-0.161031 -0.242357 0.858576)
(-0.154765 -0.327307 0.701943)
(-0.00339799 -0.213599 0.656293)
(-0.033641 0.100233 2.00136)
(-0.0637723 -0.242168 0.667633)
(-0.0512065 -0.186505 0.628487)
(-0.0973545 -0.162835 0.638281)
(-0.0150815 -0.0413991 1.25089)
(0.196883 -0.0227851 1.11954)
(-0.0118587 -0.0842958 0.809192)
(0.0156951 0.0260749 1.02765)
(0.267977 0.00122718 2.00477)
(0.178306 -0.189011 1.6132)
(0.258964 -0.268385 1.56879)
(0.295052 -0.0223067 2.03268)
(0.232004 0.0393456 3.27385)
(0.0466195 -0.292461 1.51637)
(-0.105069 -0.157834 1.19855)
(-0.26237 -0.0267746 1.34394)
(-0.134722 -0.116222 1.32879)
(-0.0375162 -0.169277 1.10576)
(-0.0546724 -0.147604 2.06518)
(-0.254581 -0.0712302 1.1256)
(-0.236569 -0.217102 0.836079)
(-0.156225 -0.236327 0.863016)
(-0.137636 -0.339168 0.638048)
(0.0172109 -0.197998 0.502047)
(-0.0440807 -0.112493 2.09717)
(-0.109868 -0.225953 0.616032)
(-0.0526688 -0.167417 0.557617)
(-0.0841331 -0.178213 0.576089)
(-0.070367 -0.107285 0.857296)
(0.0257746 -0.0899462 1.09722)
(-0.161221 -0.0670869 0.652086)
(0.0195495 -0.0539685 0.809638)
(0.262567 0.0001202 2.16139)
(0.17413 -0.154227 1.56403)
(0.320381 -0.224241 1.62952)
(0.28402 -0.0619535 2.06458)
(0.244893 0.0621915 3.34655)
(-0.0749837 -0.341899 1.38486)
(-0.117698 -0.179588 1.24663)
(-0.211398 0.0385728 1.37526)
(-0.0361828 0.0171031 1.46119)
(0.142238 0.00314012 1.34043)
(-0.0470805 -0.0236776 2.06263)
(-0.235695 -0.312914 1.23166)
(-0.275609 -0.250985 0.880044)
(-0.160127 -0.21305 0.865145)
(-0.133752 -0.264553 0.564154)
(0.0292003 -0.100244 0.347549)
(-0.101393 -0.287605 2.11094)
(-0.133284 -0.212564 0.592777)
(-0.0416101 -0.125452 0.485033)
(-0.0896145 -0.0959888 0.523704)
(-0.0362794 -0.0251785 0.477909)
(-0.00750689 -0.0815408 1.00497)
(-0.097733 -0.0353277 0.514335)
(-0.0400797 -0.0204368 0.437969)
(0.262589 0.000109966 2.30797)
(0.199656 -0.258102 1.5015)
(0.433979 -0.174947 1.70052)
(0.292506 -0.0632354 2.10805)
(0.282176 0.110603 3.38904)
(0.0355991 -0.759534 1.34513)
(-0.156042 -0.216759 1.32565)
(-0.23052 0.066418 1.37094)
(-0.0491533 0.210309 1.50839)
(0.258822 0.259457 1.65537)
(-0.0389903 -0.0105902 2.07088)
(-0.137856 -0.661586 1.22363)
(-0.30427 -0.262423 0.938047)
(-0.205592 -0.178357 0.864885)
(-0.151139 -0.138958 0.519462)
(0.0246129 0.0167075 0.248597)
(-0.0552989 -0.367187 1.94856)
(-0.14153 -0.216531 0.586326)
(-0.0503332 -0.101278 0.43118)
(-0.0792416 -0.0317328 0.454092)
(-0.0176947 0.0161476 0.325618)
(-0.012908 -0.11062 0.802707)
(0.00212942 -0.0795663 0.408013)
(-0.0385665 0.00487097 0.308632)
(0.257775 0.0017134 2.45467)
(0.287564 -0.411482 1.66931)
(0.519525 -0.154713 1.807)
(0.330108 -0.0294347 2.14542)
(0.306734 0.146227 3.40144)
(0.160834 -0.889823 1.3845)
(-0.198398 -0.19965 1.38879)
(-0.325978 0.105873 1.36159)
(-0.16697 0.384006 1.45363)
(0.29257 0.444051 1.94962)
(0.0255937 -0.0494031 2.00178)
(0.0280215 -0.775539 1.16534)
(-0.366905 -0.233444 0.971679)
(-0.288458 -0.12657 0.86506)
(-0.181296 -0.0312607 0.504196)
(-0.000480535 0.13774 0.216011)
(0.127666 -0.256485 1.21155)
(-0.171017 -0.211366 0.556826)
(-0.0797204 -0.0810101 0.400055)
(-0.0741619 0.0180178 0.404491)
(-0.0249699 0.0445601 0.273947)
(-0.095625 -0.152965 0.57549)
(0.0607134 -0.141649 0.308527)
(-0.0307802 0.00581677 0.258957)
(0.252171 0.0223574 2.54569)
(0.296601 -0.350126 1.82489)
(0.526998 -0.101055 1.9072)
(0.352881 0.0189342 2.16893)
(0.336132 0.184452 3.39267)
(0.247843 -0.79906 1.50064)
(-0.212119 -0.116554 1.43379)
(-0.410515 0.167976 1.38132)
(-0.34623 0.480519 1.32746)
(0.237836 0.582046 2.06185)
(-0.0171093 -0.206332 1.90869)
(-0.00905836 -0.573284 1.10953)
(-0.441553 -0.119471 1.01426)
(-0.364395 -0.0584218 0.85456)
(-0.196163 0.0325005 0.494164)
(-0.0246464 0.218648 0.234193)
(0.0604569 -0.19757 0.884325)
(-0.195335 -0.143934 0.525039)
(-0.101174 -0.0473684 0.378016)
(-0.0643302 0.0512985 0.376618)
(-0.0299352 0.0596235 0.265369)
(-0.151059 -0.147152 0.396779)
(0.0470084 -0.0913755 0.235778)
(-0.0228366 0.00192046 0.240849)
(0.253237 0.0372011 2.53944)
(0.270713 -0.258416 1.79617)
(0.548212 -0.0236182 1.91508)
(0.411126 0.0541913 2.19338)
(0.324029 0.213521 3.37687)
(0.303832 -0.704945 1.70997)
(-0.138537 0.00763729 1.45717)
(-0.445226 0.219811 1.44276)
(-0.477292 0.508965 1.19547)
(0.0639906 0.694984 1.84604)
(-0.0584599 -0.630506 2.03708)
(-0.188551 -0.470021 1.20112)
(-0.443982 0.101663 1.01126)
(-0.386451 0.040492 0.848636)
(-0.167313 0.0610458 0.491922)
(-0.0384165 0.235297 0.283461)
(-0.047506 -0.115435 0.859439)
(-0.19788 0.0433074 0.560806)
(-0.0812883 -0.00130477 0.3567)
(-0.029443 0.0695184 0.364944)
(-0.0240218 0.0583089 0.277953)
(-0.102905 -0.0235482 0.33606)
(0.0366371 -0.0437083 0.205715)
(-0.00648957 -0.000558443 0.233516)
(0.297252 0.0742787 2.35352)
(0.305703 -0.304951 1.81832)
(0.567373 0.0602134 1.8477)
(0.410224 0.117953 2.25316)
(0.261267 0.216283 3.30239)
(0.39994 -0.685553 1.93269)
(0.00237537 0.123393 1.47046)
(-0.464694 0.299789 1.55527)
(-0.489486 0.510272 1.10572)
(-0.140533 0.758082 1.28432)
(-0.0785883 -0.711213 1.62039)
(-0.389765 -0.254186 1.40999)
(-0.347389 0.357483 0.934372)
(-0.31973 0.176852 0.855184)
(-0.0685983 0.0784558 0.510646)
(-0.0207259 0.183136 0.353899)
(-0.20844 -0.0625325 0.900856)
(-0.140474 0.251751 0.608973)
(-0.014633 0.0545367 0.365277)
(0.0324775 0.0733066 0.374233)
(-0.010622 0.0456902 0.311272)
(0.0821936 0.101094 0.393741)
(0.0654518 -0.019726 0.206013)
(0.0278541 -0.00507781 0.251553)
(0.200947 0.0205257 1.99692)
(0.367746 -0.42897 1.98049)
(0.552339 0.111314 1.77768)
(0.376305 0.216504 2.32323)
(0.103471 0.230038 3.26652)
(0.391479 -0.642723 1.93835)
(0.0779719 0.187638 1.4952)
(-0.505501 0.432344 1.72013)
(-0.35511 0.489063 1.03582)
(-0.161884 0.551988 0.896423)
(-0.072187 -0.481603 1.39576)
(-0.279943 -0.0783482 1.50947)
(-0.190833 0.534338 0.867203)
(-0.152484 0.290687 0.85638)
(0.0833448 0.0837299 0.560431)
(0.0284821 0.101919 0.429984)
(-0.256381 0.0277737 0.968074)
(-0.0135762 0.365371 0.650775)
(0.0726694 0.106458 0.427512)
(0.104573 0.075454 0.418039)
(0.00282294 0.0327953 0.374417)
(0.224856 0.195038 0.516821)
(0.143218 -0.00639245 0.273277)
(0.0669834 -0.0135767 0.315868)
(0.0140163 -0.0393435 1.83642)
(0.419675 -0.444051 2.13774)
(0.562776 0.0955991 1.76568)
(0.2498 0.323004 2.39914)
(-0.0292191 0.113839 2.9968)
(0.305933 -0.419666 1.92981)
(0.0559606 0.213288 1.53473)
(-0.500227 0.533627 1.87863)
(-0.112632 0.405504 1.00686)
(-0.108376 0.302767 0.754824)
(-0.0804972 -0.401353 1.24568)
(-0.0278255 0.0600787 1.26336)
(-0.0479977 0.5725 0.834379)
(0.0582327 0.336068 0.858343)
(0.217105 0.0764941 0.646289)
(0.0838216 0.0429414 0.521186)
(-0.143398 0.193707 0.998523)
(0.152074 0.352378 0.695229)
(0.15846 0.13282 0.537955)
(0.165066 0.07782 0.51049)
(0.0105055 0.0320668 0.478094)
(0.347592 0.242061 0.676245)
(0.217337 -0.0110278 0.40638)
(0.0957321 -0.0216535 0.436036)
(-0.0241086 -0.0292438 1.7918)
(0.485165 -0.460733 2.03194)
(0.509379 0.085329 1.96575)
(-0.0658325 0.441736 2.4946)
(-0.372159 0.0374794 2.98329)
(0.30952 -0.187248 1.42708)
(-0.109681 0.273071 1.65018)
(-0.412845 0.536942 1.9412)
(0.12795 0.260392 1.05331)
(-0.0414327 0.138596 0.730049)
(-0.0634563 0.113774 1.32022)
(0.106346 0.483048 1.04044)
(0.121453 0.461193 0.784326)
(0.241094 0.307393 0.874762)
(0.298554 0.0767661 0.764076)
(0.108176 0.0184941 0.639614)
(-0.0287871 0.203677 1.13044)
(0.329611 0.254347 0.741072)
(0.21848 0.124398 0.68465)
(0.192093 0.079243 0.641029)
(0.0122893 0.0409422 0.620114)
(0.425005 0.258719 0.818956)
(0.268277 -0.0140692 0.583859)
(0.107607 -0.0224414 0.597977)
(-0.0523724 -0.00273981 1.69606)
(0.301709 -0.249414 1.8767)
(0.0839594 0.353373 2.34822)
(-0.324671 0.390367 2.63326)
(-0.44549 0.111821 2.20264)
(0.129485 0.116166 1.04392)
(-0.165487 0.295011 1.69627)
(-0.171943 0.441302 1.86933)
(0.326733 0.0939363 1.11261)
(0.0374438 0.0280247 0.785102)
(-0.0105312 0.502808 1.4044)
(0.0992217 0.383611 0.915378)
(0.310074 0.293416 0.768794)
(0.356289 0.248903 0.948723)
(0.301732 0.0813606 0.898093)
(0.0839685 0.028287 0.77021)
(0.186791 0.19754 1.17942)
(0.436536 0.121516 0.808732)
(0.205154 0.0785918 0.856)
(0.175884 0.0792778 0.795027)
(0.0090852 0.0523021 0.77631)
(0.520201 0.2445 0.907111)
(0.249224 -0.00856731 0.797507)
(0.0951853 -0.0186171 0.777503)
(-0.214725 -0.0785773 1.74099)
(-0.0701762 0.141478 1.94711)
(-0.0737027 0.374227 2.41132)
(-0.304513 0.312765 2.68703)
(-0.0395703 0.131961 1.39812)
(0.00537475 0.30393 0.96685)
(-0.061862 0.309925 1.66177)
(0.225114 0.232564 1.67083)
(0.430648 -0.0243049 1.1633)
(0.11517 -0.0201344 0.901286)
(-0.0190233 0.430105 1.41035)
(0.319071 -0.02487 0.696438)
(0.384872 0.185782 0.872679)
(0.344965 0.205955 1.06402)
(0.224428 0.087571 1.02066)
(0.0347999 0.0709657 0.888642)
(0.272102 0.151452 0.896077)
(0.378649 -0.0163587 0.93636)
(0.142033 0.0178649 1.01583)
(0.133166 0.0784284 0.938689)
(0.00085759 0.0627994 0.921298)
(0.465472 0.167696 0.976509)
(0.17505 -0.00783107 1.0063)
(0.0677387 -0.0101701 0.931125)
(-0.249679 -0.0454336 1.92533)
(-0.0904113 0.16116 2.03963)
(0.0108095 0.264379 2.33908)
(-0.136856 0.103528 2.72679)
(0.0188103 0.0757856 1.13937)
(0.068944 0.308982 0.98112)
(0.24692 0.318886 1.50084)
(0.412543 0.0824499 1.53006)
(0.443941 -0.0460195 1.23215)
(0.156733 0.0107341 1.05016)
(0.0205651 0.0801741 0.966915)
(0.330346 0.0214299 0.658249)
(0.329175 0.0935513 1.03247)
(0.239058 0.171913 1.17311)
(0.1267 0.0900258 1.11267)
(-0.0103655 0.125387 0.985877)
(0.254709 0.0768542 0.621156)
(0.260541 -0.0914151 1.06657)
(0.0903946 -0.0253582 1.13041)
(0.0922219 0.0737914 1.05339)
(-0.0087294 0.0677283 1.04515)
(0.300041 0.0405097 0.974185)
(0.13204 -0.00938298 1.11034)
(0.0435762 -0.00383894 1.04453)
(0.0542681 0.061218 1.84301)
(-0.0207445 -0.0437853 2.10252)
(-0.0290021 -0.0638882 2.36331)
(-0.174406 0.057546 2.58542)
(0.0601042 0.0208697 1.15701)
(0.150211 0.306102 0.971017)
(0.350701 0.270793 1.40768)
(0.430311 0.0258557 1.46576)
(0.378169 0.0132648 1.29988)
(0.154175 0.120967 1.18812)
(0.0221029 0.0335695 0.555046)
(0.234385 0.084029 0.62535)
(0.193022 0.0119146 1.18939)
(0.104236 0.133242 1.25924)
(0.0458909 0.0831285 1.17354)
(-0.0394064 0.168059 1.07136)
(0.161667 0.0954213 0.424163)
(0.190795 -0.118173 1.11977)
(0.0472617 -0.0490094 1.21236)
(0.0560913 0.0718116 1.14582)
(-0.014908 0.0635072 1.1457)
(0.232522 0.06798 0.887119)
(0.129607 -0.00911737 1.16516)
(0.0364866 -0.00364441 1.13749)
(0.46764 0.00839272 1.68964)
(-0.0682519 -0.0859098 2.15447)
(0.246622 -0.290087 2.36614)
(-0.06472 -0.133447 2.44308)
(0.229652 -0.00237086 1.29602)
(0.139883 0.289424 0.929709)
(0.286472 0.179389 1.38483)
(0.356122 5.89967e-06 1.44065)
(0.226316 0.13039 1.37662)
(0.155323 0.279392 1.31983)
(0.0126343 0.0261078 0.355293)
(0.128065 0.0430437 0.602392)
(0.0485788 -0.00667042 1.30764)
(-0.0133909 0.101854 1.31207)
(-0.0135776 0.0696883 1.221)
(-0.0576261 0.193013 1.1511)
(0.0836695 0.0988613 0.315733)
(0.139533 -0.100182 1.11114)
(-0.00283571 -0.0620787 1.27679)
(0.0346395 0.0622306 1.21656)
(-0.0156731 0.0528613 1.22666)
(0.151039 0.127833 0.838916)
(0.102792 0.00207169 1.19999)
(0.0257181 -0.00315859 1.21916)
(0.620133 -0.0114375 1.92312)
(-0.0492321 0.0369283 2.03531)
(0.293701 -0.00505346 1.98216)
(0.518301 -0.130948 2.19899)
(0.44595 0.0530051 1.55072)
(-0.0280052 0.130031 0.962785)
(0.0437028 -0.0173052 1.37881)
(0.138336 -0.06577 1.42381)
(0.0801357 0.199066 1.41945)
(0.187991 0.407348 1.4791)
(0.00542687 0.105392 0.327034)
(0.00145274 -0.00751631 0.613424)
(-0.0376345 -0.000530518 1.34378)
(-0.0890251 0.0713621 1.33437)
(-0.0575764 0.0543224 1.25906)
(-0.0689414 0.197384 1.22546)
(0.021694 0.0796989 0.290534)
(0.00897959 -0.0505594 1.06981)
(-0.047194 -0.0604357 1.30006)
(0.0165761 0.0498351 1.26391)
(-0.0115492 0.0406397 1.28839)
(0.0403351 0.171928 0.83684)
(0.0483733 0.0158614 1.21838)
(0.00848484 0.00300315 1.27236)
(0.63721 0.0102267 2.24505)
(0.110589 0.0594181 1.42291)
(0.278932 0.0697469 1.59504)
(0.670029 0.0692004 2.00975)
(0.496579 0.139206 1.83085)
(-0.145188 -0.0197651 1.00165)
(-0.0805631 -0.13686 1.35053)
(-0.0468439 -0.111045 1.4054)
(-0.0506472 0.203875 1.4304)
(0.169919 0.438267 1.63525)
(0.00094513 0.166931 0.408789)
(-0.0923134 -0.0487598 0.646228)
(-0.0758868 -0.0256369 1.31604)
(-0.110301 0.0316048 1.33028)
(-0.0874169 0.0486458 1.28346)
(-0.0679322 0.16988 1.2887)
(-0.0137798 0.0521726 0.322519)
(-0.114114 -0.0425351 1.01809)
(-0.0706534 -0.0392453 1.28235)
(-0.00428548 0.0366186 1.27641)
(-0.00279339 0.0233469 1.32962)
(-0.0545489 0.145959 0.897702)
(-0.0252238 0.0176629 1.21622)
(-0.0166951 0.0108864 1.29266)
(0.645143 0.0366568 2.41224)
(0.0919129 -0.0798303 1.14867)
(0.210549 -0.107205 1.51287)
(0.474297 0.0312922 1.94891)
(0.404051 0.210159 2.03889)
(-0.168527 -0.113244 0.997362)
(-0.134302 -0.224365 1.29513)
(-0.156987 -0.103403 1.36743)
(-0.138135 0.185821 1.42762)
(0.0622121 0.329289 1.71527)
(0.000391018 0.208087 0.529679)
(-0.122896 -0.0801872 0.691417)
(-0.0828466 -0.100598 1.24188)
(-0.109079 0.000618397 1.30723)
(-0.10484 0.0572725 1.29917)
(-0.0531955 0.11171 1.33127)
(-0.0108613 0.0340399 0.386174)
(-0.135566 -0.0881957 0.977544)
(-0.0826124 0.0114707 1.22057)
(-0.0056389 0.0300662 1.2692)
(0.0094138 -0.00103618 1.34343)
(-0.103956 0.0916745 0.969697)
(-0.0743384 0.0273424 1.18717)
(-0.028964 0.0160681 1.28675)
(0.611351 0.0319312 2.48186)
(0.0944271 -0.140436 1.14607)
(0.160186 -0.220221 1.53051)
(0.324202 0.0519642 2.02685)
(0.28848 0.247382 2.16438)
(-0.148233 -0.148827 0.98686)
(-0.179728 -0.265027 1.24403)
(-0.216164 -0.0474652 1.32878)
(-0.167812 0.184495 1.41851)
(-0.021198 0.209331 1.68008)
(0.00182008 0.246469 0.639079)
(-0.0983283 -0.074431 0.725898)
(-0.0830169 -0.17632 1.1731)
(-0.12244 -0.0060489 1.28317)
(-0.107275 0.0712035 1.31255)
(-0.0399559 0.0543378 1.34892)
(0.0151112 0.0333498 0.453296)
(-0.0701675 -0.157247 0.909768)
(-0.0668817 0.0217013 1.16609)
(0.00377232 0.0210889 1.25118)
(0.0244942 -0.0272739 1.34033)
(-0.112149 0.0585413 0.994608)
(-0.0844503 0.0384216 1.15364)
(-0.0322741 0.0227529 1.27014)
(0.526342 0.038815 2.52898)
(0.108114 -0.172767 1.19674)
(0.142078 -0.243326 1.56521)
(0.250208 0.173545 2.14152)
(0.129992 0.225508 2.19691)
(-0.13626 -0.150255 0.985415)
(-0.217998 -0.240986 1.21226)
(-0.233892 0.0303022 1.31042)
(-0.16228 0.191241 1.40271)
(-0.0208421 0.198972 1.58588)
(0.0022081 0.280903 0.726896)
(-0.0733081 -0.0454955 0.737466)
(-0.0982162 -0.203785 1.14492)
(-0.150562 0.00620448 1.27747)
(-0.0956335 0.0811673 1.32362)
(-0.0355414 0.0270933 1.35474)
(0.0431571 0.0537179 0.509918)
(-0.00249949 -0.179848 0.846398)
(-0.0396721 -0.0182779 1.13348)
(0.0146717 0.0202397 1.2323)
(0.0364423 -0.0457726 1.33719)
(-0.0811865 -0.0329675 0.974938)
(-0.0581649 0.0437105 1.11686)
(-0.0323556 0.0241887 1.26573)
(0.406271 0.00959408 2.52081)
(0.130138 -0.20231 1.22761)
(0.104561 -0.182656 1.62226)
(0.0865943 0.254363 2.2073)
(-0.0765455 0.138105 2.07896)
(-0.139396 -0.117507 0.990592)
(-0.254655 -0.158573 1.19936)
(-0.209162 0.097355 1.29727)
(-0.121287 0.184846 1.36587)
(0.0263497 0.234634 1.51827)
(0.0013196 0.312048 0.80006)
(-0.0812485 -0.0128684 0.73951)
(-0.113717 -0.200572 1.14677)
(-0.170503 0.0274228 1.30162)
(-0.0791887 0.0743196 1.32913)
(-0.0375042 0.028746 1.36537)
(0.0613415 0.090246 0.560856)
(0.0133073 -0.139677 0.821739)
(-0.016948 -0.0665466 1.118)
(0.0274598 0.0125041 1.21735)
(0.0425034 -0.0568391 1.34081)
(0.01768 -0.145549 0.870297)