/*--------------------------------*- C++ -*----------------------------------*\
| =========                 |                                                 |
| \\      /  F ield         | OpenFOAM: The Open Source CFD Toolbox           |
|  \\    /   O peration     | Version:  5.x                                   |
|   \\  /    A nd           | Web:      www.OpenFOAM.org                      |
|    \\/     M anipulation  |                                                 |
\*---------------------------------------------------------------------------*/
FoamFile
{
    version     2.0;
    format      ascii;
    class       volVectorField;
    location    "3.65";
    object      Us;
}
// * * * * * * * * * * * * * * * * * * * * * * * * * * * * * * * * * * * * * //

dimensions      [0 1 -1 0 0 0 0];

internalField   nonuniform List<vector> 
10571
(
(-0.0996522 -0.013079 0.0534168)
(0.0326467 0.0120191 -0.0849313)
(0.0831955 0.0194291 0.0299124)
(-0.19455 -0.0879052 0.190618)
(-0.142231 -0.0453682 0.0458926)
(0.107258 0.0240714 0.0487117)
(0.0374381 0.154592 0.110996)
(-0.211512 0.0668908 0.103321)
(-0.170699 0.0528883 0.0224672)
(-0.0603502 -0.0243781 -0.077527)
(0.00289181 -0.0730104 -0.0780063)
(0.0118896 -0.0745324 0.137314)
(-0.0332084 -0.0411461 0.133735)
(-0.116934 0.147081 0.134158)
(-0.279234 0.0439225 0.0873836)
(-0.0725908 -0.042403 -0.106742)
(0.00550381 -0.0645965 0.0380336)
(-0.017998 -0.0962379 0.0961719)
(0.0335174 -0.0512259 0.163813)
(-0.259496 -0.0266502 0.112453)
(-0.0425891 0.00089619 -0.107454)
(0.0547144 -0.0047381 0.0413967)
(-0.06559 -0.037235 0.0096585)
(-0.0772764 0.0104766 -0.084254)
(-0.030284 -0.0276786 -0.117888)
(0.0377338 -0.0207129 -0.233439)
(-0.0252052 -0.0803134 -0.0853628)
(-0.117618 -0.1448 0.146245)
(-0.0684563 -0.0271502 -0.0628289)
(-0.0200336 -0.22206 -0.0512437)
(-0.0151954 -0.0515501 0.0646145)
(-0.0723551 -0.0262677 0.031467)
(-0.0719989 -0.111167 -0.212521)
(-0.0330478 -0.0578445 -0.326178)
(-0.0152961 -0.0154946 -0.332345)
(-0.0793374 -0.112851 -0.0945025)
(-0.0363152 -0.00720428 -0.0274987)
(-0.0630113 0.0106301 0.0316637)
(-0.00180552 -0.061877 -0.216296)
(-0.0345233 0.0123432 -0.347871)
(-0.00842918 0.000987726 -0.371944)
(-0.0759149 -0.00289568 -0.275561)
(-0.0594233 0.00178774 -0.239524)
(0.00064964 -0.0337851 -0.234003)
(-0.022056 0.0171125 -0.395244)
(-0.0323322 -0.00402632 -0.414733)
(-0.0424357 0.00743877 -0.450108)
(-0.00761181 -0.00570975 -0.556917)
(0.0147406 -0.000163427 -0.356954)
(0.0428412 -0.0481894 -0.295859)
(-0.0721126 -0.102757 -0.0961022)
(-0.113304 -0.17912 -0.158587)
(-0.00535334 0.0272827 -0.257297)
(-0.0724057 -0.240759 -0.0313318)
(-0.0916253 -0.0842951 -0.0354497)
(-0.0305169 -0.123314 -0.123635)
(0.000187111 -0.110716 -0.26844)
(-0.0160262 -0.0481424 -0.320318)
(0.00566767 0.00991037 -0.269375)
(-0.073778 -0.102861 -0.172997)
(-0.107866 -0.0357 -0.11642)
(-0.0386521 -0.0847082 -0.114526)
(0.0508261 -0.0834384 -0.207033)
(0.024824 -0.0472437 -0.376284)
(-0.0106492 -0.00333841 -0.323384)
(-0.0707936 -0.00789171 -0.244992)
(-0.0206895 0.0195704 -0.221534)
(0.0377991 -0.0135102 -0.212987)
(0.00114398 -0.0152257 -0.432194)
(-0.0443002 -0.0649802 -0.351353)
(-0.0250354 -0.020428 -0.404114)
(0.00562991 -0.00779607 -0.491521)
(0.0264029 -0.00085211 -0.30604)
(0.0281213 -0.0401755 -0.247738)
(-0.0881284 -0.140167 -0.0127954)
(-0.0884664 -0.204706 -0.0803077)
(0.0211532 0.016021 -0.197574)
(-0.0945174 -0.205111 -0.0160189)
(-0.095691 -0.096869 -0.00921883)
(-0.000662072 -0.121735 -0.0688791)
(0.0463417 -0.0919949 -0.23638)
(-0.000640372 -0.0359761 -0.280528)
(0.00629382 -0.0236587 -0.2834)
(-0.110031 -0.0993748 -0.117537)
(-0.110624 0.00953695 -0.0966167)
(0.0128262 -0.0283132 -0.140166)
(0.0751432 -0.0719175 -0.157317)
(0.0208233 -0.0407135 -0.324514)
(-0.0555537 -0.0017781 -0.274854)
(-0.0662769 -0.0356442 -0.194156)
(0.0105026 0.00515533 -0.186134)
(0.0319614 0.0136741 -0.194418)
(0.00691855 -0.0274039 -0.345381)
(-0.0692677 -0.0422065 -0.351046)
(-0.0058445 -0.0133898 -0.374098)
(0.0130061 -0.00525182 -0.414141)
(0.0255636 0.00061202 -0.24788)
(0.0300268 -0.0358884 -0.205313)
(-0.0827558 -0.188804 0.0380261)
(-0.0627255 -0.229841 0.0237203)
(0.0249324 -0.00890592 -0.125513)
(-0.0655128 -0.187184 0.0407519)
(-0.125197 -0.169356 0.0139791)
(0.0696959 -0.0767946 -0.106346)
(0.102746 -0.0668892 -0.181849)
(0.0280341 -0.02961 -0.205201)
(-0.000110882 -0.0209779 -0.233009)
(-0.15112 -0.107292 -0.0679711)
(-0.147855 -0.0769961 -0.0482736)
(0.0535283 -0.00683366 -0.114638)
(0.141419 -0.0484255 -0.111549)
(0.0507086 -0.0404 -0.221619)
(-0.111053 -0.0179269 -0.208704)
(-0.119213 -0.040158 -0.127572)
(0.0471514 -0.0114444 -0.103333)
(0.0728974 -0.00631755 -0.107136)
(0.0210666 -0.032869 -0.233167)
(-0.0388451 0.00173309 -0.313395)
(0.017389 0.00732815 -0.289175)
(0.0203551 -0.00229695 -0.31134)
(0.0300394 -0.000798291 -0.1714)
(0.0426968 -0.0539402 -0.173418)
(-0.0698742 -0.235691 0.0725768)
(-0.0303702 -0.233766 0.111758)
(0.0794997 -0.0313423 -0.0714818)
(-0.0859675 -0.202183 0.186355)
(-0.0527477 -0.163165 0.0152289)
(0.0905055 -0.053593 -0.144698)
(0.115948 -0.0502055 -0.173635)
(0.0157335 0.0241 -0.104817)
(-0.0094771 0.00492225 -0.00361698)
(-0.00148188 -0.00970524 -0.193454)
(-0.15495 -0.0856722 -0.00561212)
(-0.0107552 -0.0170097 -0.0955261)
(0.0724348 0.00485726 -0.150593)
(0.122855 -0.019667 -0.155305)
(0.13177 -0.0254615 -0.153374)
(-0.0054377 -0.00109433 -0.00197342)
(-0.0567328 -0.0229792 -0.133555)
(-0.039021 0.0598399 -0.122138)
(0.0693951 0.0666248 -0.110634)
(0.123253 0.0221795 -0.0471167)
(0.0965792 -0.0659235 -0.0917538)
(-0.0198919 0.0196017 -0.235857)
(0.033614 0.0310127 -0.201683)
(0.0366225 0.0196142 -0.187785)
(0.0499573 0.000407159 -0.108671)
(0.0443882 -0.059833 -0.115958)
(0.00756926 -0.201748 0.11139)
(0.0433019 -0.0885702 0.28589)
(0.112689 0.0150833 -0.0244374)
(-0.032066 -0.198236 0.275857)
(0.0544121 -0.0542278 -0.0154679)
(0.0950604 -0.032582 -0.0854512)
(0.106081 -0.0497487 -0.183057)
(0.120289 0.203256 -0.0726935)
(0 0 0)
(-0.00318404 0.00772697 -0.144098)
(0 0 0)
(0.020101 0.0415799 -0.138541)
(0.0522942 0.0239155 -0.160177)
(0.0891671 0.00527168 -0.173994)
(0 0 0)
(0 0 0)
(0.00332038 0.00140287 -0.0538417)
(-0.00821406 0.0906693 -0.15344)
(0.0440997 0.0829108 -0.14482)
(0.10026 0.0619617 -0.135898)
(0.0669524 -0.0168031 0.0247873)
(0 0 0)
(-0.021339 0.0639841 -0.166166)
(0.0291656 0.112991 -0.183424)
(0.0921835 -0.0613267 -0.221053)
(0.0760848 0.00858959 -0.0594901)
(0.0372464 -0.0553072 -0.037817)
(0.04841 -0.182183 0.18261)
(0.1024 -0.191443 0.23014)
(0.134732 0.00994903 0.103573)
(0 0 0)
(0.0268615 -0.0103378 -0.0520227)
(0.0770491 -0.0222112 -0.0708562)
(0 0 0)
(0 0 0)
(0 0 0)
(0.00185996 0.0143255 -0.0709495)
(-0.0749923 0.0885649 0.141202)
(0.0152285 0.0293417 -0.0761174)
(0.0684872 0.002581 -0.101482)
(0.17614 0.044313 -0.183382)
(0 0 0)
(0 0 0)
(-0.0383057 0.113414 0.0387175)
(0.00292695 0.0509103 -0.132711)
(0.0353867 0.073655 -0.112163)
(0 0 0)
(0 0 0)
(0 0 0)
(2.5899e-17 -1.22428e-17 8.83515e-17)
(0 0 0)
(0 0 0)
(0.0512683 0.0172496 0.0184503)
(-0.000199436 -0.0133818 0.0252233)
(0.0383763 -0.0482816 0.20469)
(0.107374 -0.138171 0.285561)
(0.200705 -0.0581325 0.265663)
(-0.0971033 -0.0560999 0.12927)
(0.0137272 -0.0471863 -0.0676817)
(0.0863931 -0.0322788 -0.0954882)
(0 0 0)
(0 0 0)
(0 0 0)
(-0.0193182 0.00414783 0.0534593)
(-0.0567456 0.0864109 0.248165)
(-0.0192154 -0.0606364 -0.807084)
(0.0200428 -0.0523107 -0.804951)
(0.0504902 -0.0432491 -0.777568)
(0 0 0)
(0 0 0)
(-0.0704271 0.149035 0.163782)
(-0.00761212 -0.0428842 -0.82209)
(0.00412006 -0.0398574 -0.803177)
(0 0 0)
(0 0 0)
(0 0 0)
(0 0 0)
(0 0 0)
(0.0699787 0.00693813 0.145486)
(-0.0293541 0.00468857 0.10529)
(0.0447818 -0.029439 0.223216)
(0.0905988 -0.0485634 0.3203)
(0.217566 -0.0982252 0.311764)
(0 0 0)
(0 0 0)
(0 0 0)
(0 0 0)
(0 0 0)
(0.0504137 0.0179652 0.121004)
(0 0 0)
(-0.0288373 -0.0613158 -0.795185)
(0.0189111 -0.0538832 -0.804561)
(-4.49702e-17 3.87323e-17 6.8491e-16)
(0 0 0)
(0 0 0)
(-0.00851788 -0.0364839 -0.789206)
(0.0294395 -0.0369406 -0.791208)
(0.0459602 -0.0344906 -0.786926)
(0 0 0)
(-0.0160424 -0.0111404 -0.801621)
(0.010796 0.000431308 -0.779478)
(0 0 0)
(0.0813182 -0.0249884 0.224145)
(-0.0355504 0.0433223 0.167789)
(0.0204495 0.0255748 0.239528)
(0.112969 -0.0915945 0.402276)
(0 0 0)
(0 0 0)
(0.0162531 0.00749387 0.201886)
(0 0 0)
(0 0 0)
(0 0 0)
(0 0 0)
(0 0 0)
(-0.0121565 -0.0631299 -0.748695)
(0.0102841 -0.0502176 -0.756655)
(0 0 0)
(0 0 0)
(0 0 0)
(-0.0177164 -0.0472559 -0.760112)
(0 0 0)
(0 0 0)
(0 0 0)
(0 0 0)
(0 0 0)
(0 0 0)
(0.0658076 0.131175 0.241725)
(-0.0919896 0.0606061 0.306224)
(0.000932507 0.00137084 0.354158)
(0.0962444 -0.110699 0.456012)
(0 0 0)
(0 0 0)
(0 0 0)
(0 0 0)
(0 0 0)
(0 0 0)
(0 0 0)
(0 0 0)
(0 0 0)
(-9.29836e-18 4.4519e-17 6.65303e-16)
(0 0 0)
(0 0 0)
(0 0 0)
(1.59242e-17 4.2261e-17 6.69661e-16)
(0 0 0)
(0 0 0)
(0 0 0)
(0 0 0)
(0 0 0)
(0 0 0)
(0.0843835 -0.110244 0.471145)
(-0.0571211 0.112222 0.390442)
(0 0 0)
(0 0 0)
(0 0 0)
(0 0 0)
(0 0 0)
(0 0 0)
(0 0 0)
(0 0 0)
(0 0 0)
(0 0 0)
(0 0 0)
(0 0 0)
(0 0 0)
(0 0 0)
(-0.0468435 -0.041441 -0.658809)
(0 0 0)
(0 0 0)
(0 0 0)
(0 0 0)
(0 0 0)
(0 0 0)
(0 0 0)
(0 0 0)
(0 0 0)
(0 0 0)
(0 0 0)
(0 0 0)
(0 0 0)
(0 0 0)
(0 0 0)
(0 0 0)
(0 0 0)
(0 0 0)
(0 0 0)
(0 0 0)
(0 0 0)
(0 0 0)
(0 0 0)
(-0.0535416 -0.035696 -0.577944)
(-0.0298411 -0.0470083 -0.703138)
(0.00649333 -0.018485 -0.681822)
(0 0 0)
(0 0 0)
(0 0 0)
(0 0 0)
(0 0 0)
(0 0 0)
(0 0 0)
(0 0 0)
(0 0 0)
(0 0 0)
(0 0 0)
(0 0 0)
(0 0 0)
(0 0 0)
(0 0 0)
(0 0 0)
(0 0 0)
(0 0 0)
(0 0 0)
(0 0 0)
(0 0 0)
(0 0 0)
(-0.0185741 -0.0336497 -0.683374)
(-0.00375838 -0.0101659 -0.657295)
(0 0 0)
(0 0 0)
(0 0 0)
(0 0 0)
(0 0 0)
(0 0 0)
(0 0 0)
(0 0 0)
(0 0 0)
(0 0 0)
(0 0 0)
(0 0 0)
(0 0 0)
(0 0 0)
(0 0 0)
(0 0 0)
(0 0 0)
(0 0 0)
(0 0 0)
(0 0 0)
(0 0 0)
(0 0 0)
(-0.0362355 -0.024367 -0.645119)
(0 0 0)
(0 0 0)
(0 0 0)
(-0.0321478 -0.0136655 -0.649742)
(0 0 0)
(0 0 0)
(0 0 0)
(0 0 0)
(0 0 0)
(0 0 0)
(0 0 0)
(0 0 0)
(0 0 0)
(0 0 0)
(0 0 0)
(0 0 0)
(0 0 0)
(0 0 0)
(0 0 0)
(0.024756 -0.055723 -0.626212)
(0 0 0)
(0 0 0)
(0 0 0)
(0 0 0)
(0 0 0)
(0 0 0)
(0 0 0)
(0 0 0)
(3.44404e-18 -8.86931e-19 5.59805e-16)
(0 0 0)
(0 0 0)
(0 0 0)
(0 0 0)
(0 0 0)
(0 0 0)
(0 0 0)
(0 0 0)
(0 0 0)
(0 0 0)
(0 0 0)
(0 0 0)
(0 0 0)
(0 0 0)
(0 0 0)
(0 0 0)
(0 0 0)
(0 0 0)
(-0.0265165 -0.0368898 -0.601953)
(0.0137094 -0.0142889 -0.584279)
(0 0 0)
(0 0 0)
(0 0 0)
(0 0 0)
(0 0 0)
(0 0 0)
(0 0 0)
(0 0 0)
(0 0 0)
(0 0 0)
(0 0 0)
(0 0 0)
(0 0 0)
(0 0 0)
(0 0 0)
(0 0 0)
(0 0 0)
(0 0 0)
(0 0 0)
(0 0 0)
(0 0 0)
(0 0 0)
(0 0 0)
(0 0 0)
(0 0 0)
(0 0 0)
(0 0 0)
(0 0 0)
(0 0 0)
(0 0 0)
(0 0 0)
(0 0 0)
(0 0 0)
(0 0 0)
(0 0 0)
(0 0 0)
(0 0 0)
(0 0 0)
(0 0 0)
(0 0 0)
(0 0 0)
(0 0 0)
(0 0 0)
(0 0 0)
(0 0 0)
(0 0 0)
(0 0 0)
(0 0 0)
(0 0 0)
(0 0 0)
(0 0 0)
(0 0 0)
(0 0 0)
(0 0 0)
(0 0 0)
(0 0 0)
(0 0 0)
(0 0 0)
(0 0 0)
(0 0 0)
(0 0 0)
(0 0 0)
(0 0 0)
(0 0 0)
(0 0 0)
(0 0 0)
(0 0 0)
(0 0 0)
(0 0 0)
(0 0 0)
(0 0 0)
(0 0 0)
(0 0 0)
(0 0 0)
(0 0 0)
(0 0 0)
(0 0 0)
(0 0 0)
(0 0 0)
(0 0 0)
(0 0 0)
(0 0 0)
(0 0 0)
(0 0 0)
(0 0 0)
(0 0 0)
(0 0 0)
(0 0 0)
(0 0 0)
(0 0 0)
(0 0 0)
(0 0 0)
(0 0 0)
(0 0 0)
(0 0 0)
(0 0 0)
(0 0 0)
(0 0 0)
(0 0 0)
(0 0 0)
(0 0 0)
(0 0 0)
(0 0 0)
(0 0 0)
(0 0 0)
(0 0 0)
(0 0 0)
(0 0 0)
(0 0 0)
(0 0 0)
(0 0 0)
(0 0 0)
(0 0 0)
(0 0 0)
(0 0 0)
(0 0 0)
(0 0 0)
(0 0 0)
(0 0 0)
(0 0 0)
(0 0 0)
(0 0 0)
(0 0 0)
(0 0 0)
(0 0 0)
(0 0 0)
(0 0 0)
(0 0 0)
(0 0 0)
(0 0 0)
(0 0 0)
(0 0 0)
(0 0 0)
(0 0 0)
(0 0 0)
(0 0 0)
(0 0 0)
(0 0 0)
(0 0 0)
(0 0 0)
(0 0 0)
(0 0 0)
(0 0 0)
(0 0 0)
(0 0 0)
(0 0 0)
(0 0 0)
(0 0 0)
(0 0 0)
(0 0 0)
(0 0 0)
(0 0 0)
(0 0 0)
(0 0 0)
(0 0 0)
(0 0 0)
(0 0 0)
(0 0 0)
(0 0 0)
(0 0 0)
(0 0 0)
(0 0 0)
(0 0 0)
(0 0 0)
(0 0 0)
(0 0 0)
(0 0 0)
(0 0 0)
(0 0 0)
(0 0 0)
(0 0 0)
(0 0 0)
(0 0 0)
(0 0 0)
(0 0 0)
(0 0 0)
(0 0 0)
(0 0 0)
(0 0 0)
(0 0 0)
(0 0 0)
(0 0 0)
(0 0 0)
(0 0 0)
(0 0 0)
(0 0 0)
(0 0 0)
(0 0 0)
(0 0 0)
(0 0 0)
(0 0 0)
(0 0 0)
(0 0 0)
(0 0 0)
(0 0 0)
(0 0 0)
(0 0 0)
(0 0 0)
(0 0 0)
(0 0 0)
(0 0 0)
(0 0 0)
(0 0 0)
(0 0 0)
(0 0 0)
(0 0 0)
(0 0 0)
(0 0 0)
(0 0 0)
(0 0 0)
(0 0 0)
(0 0 0)
(0 0 0)
(0 0 0)
(0 0 0)
(0 0 0)
(0 0 0)
(0 0 0)
(0 0 0)
(0 0 0)
(0 0 0)
(0 0 0)
(0 0 0)
(0 0 0)
(0 0 0)
(0 0 0)
(0 0 0)
(0 0 0)
(0 0 0)
(0 0 0)
(0 0 0)
(0 0 0)
(0 0 0)
(0 0 0)
(0 0 0)
(0 0 0)
(0 0 0)
(0 0 0)
(0 0 0)
(0 0 0)
(0 0 0)
(0 0 0)
(0 0 0)
(0 0 0)
(0 0 0)
(0 0 0)
(0 0 0)
(0 0 0)
(0 0 0)
(0 0 0)
(0 0 0)
(0 0 0)
(0 0 0)
(0 0 0)
(0 0 0)
(0 0 0)
(0 0 0)
(0 0 0)
(0 0 0)
(0 0 0)
(0 0 0)
(0 0 0)
(0 0 0)
(0 0 0)
(0 0 0)
(0 0 0)
(0 0 0)
(0 0 0)
(0 0 0)
(0 0 0)
(0 0 0)
(0 0 0)
(0 0 0)
(0 0 0)
(0 0 0)
(0 0 0)
(0 0 0)
(0 0 0)
(0 0 0)
(0 0 0)
(0 0 0)
(0 0 0)
(0 0 0)
(0 0 0)
(0 0 0)
(0 0 0)
(0 0 0)
(0 0 0)
(0 0 0)
(0 0 0)
(0 0 0)
(0 0 0)
(0 0 0)
(0 0 0)
(0 0 0)
(0 0 0)
(0 0 0)
(0 0 0)
(0 0 0)
(0 0 0)
(0 0 0)
(0 0 0)
(0 0 0)
(0 0 0)
(0 0 0)
(0 0 0)
(0 0 0)
(0 0 0)
(0 0 0)
(0 0 0)
(0 0 0)
(0 0 0)
(0 0 0)
(0 0 0)
(0 0 0)
(0 0 0)
(0 0 0)
(0 0 0)
(0 0 0)
(0 0 0)
(0 0 0)
(0 0 0)
(0 0 0)
(0 0 0)
(0 0 0)
(0 0 0)
(0 0 0)
(0 0 0)
(0 0 0)
(0 0 0)
(0 0 0)
(0 0 0)
(0 0 0)
(0 0 0)
(0 0 0)
(0 0 0)
(0 0 0)
(0 0 0)
(0 0 0)
(0 0 0)
(0 0 0)
(0 0 0)
(0 0 0)
(0 0 0)
(0 0 0)
(0 0 0)
(0 0 0)
(0 0 0)
(0 0 0)
(0 0 0)
(0 0 0)
(0 0 0)
(0 0 0)
(0 0 0)
(0 0 0)
(0 0 0)
(0 0 0)
(0 0 0)
(0 0 0)
(0 0 0)
(0 0 0)
(0 0 0)
(0 0 0)
(0 0 0)
(0 0 0)
(0 0 0)
(0 0 0)
(0 0 0)
(0 0 0)
(0 0 0)
(0 0 0)
(0 0 0)
(0 0 0)
(0 0 0)
(0 0 0)
(0 0 0)
(0 0 0)
(0 0 0)
(0 0 0)
(0 0 0)
(0 0 0)
(0 0 0)
(0 0 0)
(0 0 0)
(0 0 0)
(0 0 0)
(0 0 0)
(0 0 0)
(0 0 0)
(0 0 0)
(0 0 0)
(0 0 0)
(0 0 0)
(0 0 0)
(0 0 0)
(0 0 0)
(0 0 0)
(0 0 0)
(0 0 0)
(0 0 0)
(0 0 0)
(0 0 0)
(0 0 0)
(0 0 0)
(0 0 0)
(0 0 0)
(0 0 0)
(0 0 0)
(0 0 0)
(0 0 0)
(0 0 0)
(0 0 0)
(0 0 0)
(0 0 0)
(0 0 0)
(0 0 0)
(0 0 0)
(0 0 0)
(0 0 0)
(0 0 0)
(0 0 0)
(0 0 0)
(0 0 0)
(0 0 0)
(0 0 0)
(0 0 0)
(0 0 0)
(0 0 0)
(0 0 0)
(0 0 0)
(0 0 0)
(0 0 0)
(0 0 0)
(0 0 0)
(0 0 0)
(0 0 0)
(0 0 0)
(0 0 0)
(0 0 0)
(0 0 0)
(0 0 0)
(0 0 0)
(0 0 0)
(0 0 0)
(0 0 0)
(0 0 0)
(0 0 0)
(0 0 0)
(0 0 0)
(0 0 0)
(0 0 0)
(0 0 0)
(0 0 0)
(0 0 0)
(0 0 0)
(0 0 0)
(0 0 0)
(0 0 0)
(0 0 0)
(0 0 0)
(0 0 0)
(0 0 0)
(0 0 0)
(0 0 0)
(0 0 0)
(0 0 0)
(0 0 0)
(0 0 0)
(0 0 0)
(0 0 0)
(0 0 0)
(0 0 0)
(0 0 0)
(0 0 0)
(0 0 0)
(0 0 0)
(0 0 0)
(0 0 0)
(0 0 0)
(0 0 0)
(0 0 0)
(0 0 0)
(0 0 0)
(0 0 0)
(0 0 0)
(0 0 0)
(0 0 0)
(0 0 0)
(0 0 0)
(0 0 0)
(0 0 0)
(0 0 0)
(0 0 0)
(0 0 0)
(0 0 0)
(0 0 0)
(0 0 0)
(0 0 0)
(0 0 0)
(0 0 0)
(0 0 0)
(0 0 0)
(0 0 0)
(0 0 0)
(0 0 0)
(0 0 0)
(0 0 0)
(0 0 0)
(0 0 0)
(0 0 0)
(0 0 0)
(0 0 0)
(0 0 0)
(0 0 0)
(0 0 0)
(0 0 0)
(0 0 0)
(0 0 0)
(0 0 0)
(0 0 0)
(0 0 0)
(0 0 0)
(0 0 0)
(0 0 0)
(0 0 0)
(0 0 0)
(0 0 0)
(0 0 0)
(0 0 0)
(0 0 0)
(0 0 0)
(0 0 0)
(0 0 0)
(0 0 0)
(0 0 0)
(0 0 0)
(0 0 0)
(0 0 0)
(0 0 0)
(0 0 0)
(0 0 0)
(0 0 0)
(0 0 0)
(0 0 0)
(0 0 0)
(0 0 0)
(0 0 0)
(0 0 0)
(0 0 0)
(0 0 0)
(0 0 0)
(0 0 0)
(0 0 0)
(0 0 0)
(0 0 0)
(0 0 0)
(0 0 0)
(0 0 0)
(0 0 0)
(0 0 0)
(0 0 0)
(0 0 0)
(0 0 0)
(0 0 0)
(0 0 0)
(0 0 0)
(0 0 0)
(0 0 0)
(0 0 0)
(0 0 0)
(0 0 0)
(0 0 0)
(0 0 0)
(0 0 0)
(0 0 0)
(0 0 0)
(0 0 0)
(0 0 0)
(0 0 0)
(0 0 0)
(0 0 0)
(0 0 0)
(0 0 0)
(0 0 0)
(0 0 0)
(0 0 0)
(0 0 0)
(0 0 0)
(0 0 0)
(0 0 0)
(0 0 0)
(0 0 0)
(0 0 0)
(0 0 0)
(0 0 0)
(0 0 0)
(0 0 0)
(0 0 0)
(0 0 0)
(0 0 0)
(0 0 0)
(0 0 0)
(0 0 0)
(0 0 0)
(0 0 0)
(0 0 0)
(0 0 0)
(0 0 0)
(0 0 0)
(0 0 0)
(0 0 0)
(0 0 0)
(0 0 0)
(0 0 0)
(0 0 0)
(0 0 0)
(0 0 0)
(0 0 0)
(0 0 0)
(0 0 0)
(0 0 0)
(0 0 0)
(0 0 0)
(0 0 0)
(0 0 0)
(0 0 0)
(0 0 0)
(0 0 0)
(0 0 0)
(0 0 0)
(0 0 0)
(0 0 0)
(0 0 0)
(0 0 0)
(0 0 0)
(0 0 0)
(0 0 0)
(0 0 0)
(0 0 0)
(0 0 0)
(0 0 0)
(0 0 0)
(0 0 0)
(0 0 0)
(0 0 0)
(0 0 0)
(0 0 0)
(0 0 0)
(0 0 0)
(0 0 0)
(0 0 0)
(0 0 0)
(0 0 0)
(0 0 0)
(0 0 0)
(0 0 0)
(0 0 0)
(0 0 0)
(0 0 0)
(0 0 0)
(0 0 0)
(0 0 0)
(0 0 0)
(0 0 0)
(0 0 0)
(0 0 0)
(0 0 0)
(0 0 0)
(0 0 0)
(0 0 0)
(0 0 0)
(0 0 0)
(0 0 0)
(0 0 0)
(0 0 0)
(0 0 0)
(0 0 0)
(0 0 0)
(0 0 0)
(0 0 0)
(0 0 0)
(0 0 0)
(0 0 0)
(0 0 0)
(0 0 0)
(0 0 0)
(0 0 0)
(0 0 0)
(0 0 0)
(0 0 0)
(0 0 0)
(0 0 0)
(0 0 0)
(0 0 0)
(0 0 0)
(0 0 0)
(0 0 0)
(0 0 0)
(0 0 0)
(0 0 0)
(0 0 0)
(0 0 0)
(0 0 0)
(0 0 0)
(0 0 0)
(0 0 0)
(0 0 0)
(0 0 0)
(0 0 0)
(0 0 0)
(0 0 0)
(0 0 0)
(0 0 0)
(0 0 0)
(0 0 0)
(0 0 0)
(0 0 0)
(0 0 0)
(0 0 0)
(0 0 0)
(0 0 0)
(0 0 0)
(0 0 0)
(0 0 0)
(0 0 0)
(0 0 0)
(0 0 0)
(0 0 0)
(0 0 0)
(0 0 0)
(0 0 0)
(0 0 0)
(0 0 0)
(0 0 0)
(0 0 0)
(0 0 0)
(0 0 0)
(0 0 0)
(0 0 0)
(0 0 0)
(0 0 0)
(0 0 0)
(0 0 0)
(0 0 0)
(0 0 0)
(0 0 0)
(0 0 0)
(0 0 0)
(0 0 0)
(0 0 0)
(0 0 0)
(0 0 0)
(0 0 0)
(0 0 0)
(0 0 0)
(0 0 0)
(0 0 0)
(0 0 0)
(0 0 0)
(0 0 0)
(0 0 0)
(0 0 0)
(0 0 0)
(0 0 0)
(0 0 0)
(0 0 0)
(0 0 0)
(0 0 0)
(0 0 0)
(0 0 0)
(0 0 0)
(0 0 0)
(0 0 0)
(0 0 0)
(0 0 0)
(0 0 0)
(0 0 0)
(0 0 0)
(0 0 0)
(0 0 0)
(0 0 0)
(0 0 0)
(0 0 0)
(0 0 0)
(0 0 0)
(0 0 0)
(0 0 0)
(0 0 0)
(0 0 0)
(0 0 0)
(0 0 0)
(0 0 0)
(0 0 0)
(0 0 0)
(0 0 0)
(0 0 0)
(0 0 0)
(0 0 0)
(0 0 0)
(0 0 0)
(0 0 0)
(0 0 0)
(0 0 0)
(0 0 0)
(0 0 0)
(0 0 0)
(0 0 0)
(0 0 0)
(0 0 0)
(0 0 0)
(0 0 0)
(0 0 0)
(0 0 0)
(0 0 0)
(0 0 0)
(0 0 0)
(0 0 0)
(0 0 0)
(0 0 0)
(0 0 0)
(0 0 0)
(0 0 0)
(0 0 0)
(0 0 0)
(0 0 0)
(0 0 0)
(0 0 0)
(0 0 0)
(0 0 0)
(0 0 0)
(0 0 0)
(0 0 0)
(0 0 0)
(0 0 0)
(0 0 0)
(0 0 0)
(0 0 0)
(0 0 0)
(0 0 0)
(0 0 0)
(0 0 0)
(0 0 0)
(0 0 0)
(0 0 0)
(0 0 0)
(0 0 0)
(0 0 0)
(0 0 0)
(0 0 0)
(0 0 0)
(0 0 0)
(0 0 0)
(0 0 0)
(0 0 0)
(0 0 0)
(0 0 0)
(0 0 0)
(0 0 0)
(0 0 0)
(0 0 0)
(0 0 0)
(0 0 0)
(0 0 0)
(0 0 0)
(0 0 0)
(0 0 0)
(0 0 0)
(0 0 0)
(0 0 0)
(0 0 0)
(0 0 0)
(0 0 0)
(0 0 0)
(0 0 0)
(0 0 0)
(0 0 0)
(0 0 0)
(0 0 0)
(0 0 0)
(0 0 0)
(0 0 0)
(0 0 0)
(0 0 0)
(0 0 0)
(0 0 0)
(0 0 0)
(0 0 0)
(0 0 0)
(0 0 0)
(0 0 0)
(0 0 0)
(0 0 0)
(0 0 0)
(0 0 0)
(0 0 0)
(0 0 0)
(0 0 0)
(0 0 0)
(0 0 0)
(0 0 0)
(0 0 0)
(0 0 0)
(0 0 0)
(0 0 0)
(0 0 0)
(0 0 0)
(0 0 0)
(0 0 0)
(0 0 0)
(0 0 0)
(0 0 0)
(0 0 0)
(0 0 0)
(0 0 0)
(0 0 0)
(0 0 0)
(0 0 0)
(0 0 0)
(0 0 0)
(0 0 0)
(0 0 0)
(0 0 0)
(0 0 0)
(0 0 0)
(0 0 0)
(0 0 0)
(0 0 0)
(0 0 0)
(0 0 0)
(0 0 0)
(0 0 0)
(0 0 0)
(0 0 0)
(0 0 0)
(0 0 0)
(0 0 0)
(0 0 0)
(0 0 0)
(0 0 0)
(0 0 0)
(0 0 0)
(0 0 0)
(0 0 0)
(0 0 0)
(0 0 0)
(0 0 0)
(0 0 0)
(0 0 0)
(0 0 0)
(0 0 0)
(0 0 0)
(0 0 0)
(0 0 0)
(0 0 0)
(0 0 0)
(0 0 0)
(0 0 0)
(0 0 0)
(0 0 0)
(0 0 0)
(0 0 0)
(0 0 0)
(0 0 0)
(0 0 0)
(0 0 0)
(0 0 0)
(0 0 0)
(0 0 0)
(0 0 0)
(0 0 0)
(0 0 0)
(0 0 0)
(0 0 0)
(0 0 0)
(0 0 0)
(0 0 0)
(0 0 0)
(0 0 0)
(0 0 0)
(0 0 0)
(0 0 0)
(0 0 0)
(0 0 0)
(0 0 0)
(0 0 0)
(0 0 0)
(0 0 0)
(0 0 0)
(0 0 0)
(0 0 0)
(0 0 0)
(0 0 0)
(0 0 0)
(0 0 0)
(0 0 0)
(0 0 0)
(0 0 0)
(0 0 0)
(0 0 0)
(0 0 0)
(0 0 0)
(0 0 0)
(0 0 0)
(0 0 0)
(0 0 0)
(0 0 0)
(0 0 0)
(0 0 0)
(0 0 0)
(0 0 0)
(0 0 0)
(0 0 0)
(0 0 0)
(0 0 0)
(0 0 0)
(0 0 0)
(0 0 0)
(0 0 0)
(0 0 0)
(0 0 0)
(0 0 0)
(0 0 0)
(0 0 0)
(0 0 0)
(0 0 0)
(0 0 0)
(0 0 0)
(0 0 0)
(0 0 0)
(0 0 0)
(0 0 0)
(0 0 0)
(0 0 0)
(0 0 0)
(0 0 0)
(0 0 0)
(0 0 0)
(0 0 0)
(0 0 0)
(0 0 0)
(0 0 0)
(0 0 0)
(0 0 0)
(0 0 0)
(0 0 0)
(0 0 0)
(0 0 0)
(0 0 0)
(0 0 0)
(0 0 0)
(0 0 0)
(0 0 0)
(0 0 0)
(0 0 0)
(0 0 0)
(0 0 0)
(0 0 0)
(0 0 0)
(0 0 0)
(0 0 0)
(0 0 0)
(0 0 0)
(0 0 0)
(0 0 0)
(0 0 0)
(0 0 0)
(0 0 0)
(0 0 0)
(0 0 0)
(0 0 0)
(0 0 0)
(0 0 0)
(0 0 0)
(0 0 0)
(0 0 0)
(0 0 0)
(0 0 0)
(0 0 0)
(0 0 0)
(0 0 0)
(0 0 0)
(0 0 0)
(0 0 0)
(0 0 0)
(0 0 0)
(0 0 0)
(0 0 0)
(0 0 0)
(0 0 0)
(0 0 0)
(0 0 0)
(0 0 0)
(0 0 0)
(0 0 0)
(0 0 0)
(0 0 0)
(0 0 0)
(0 0 0)
(0 0 0)
(0 0 0)
(0 0 0)
(0 0 0)
(0 0 0)
(0 0 0)
(0 0 0)
(0 0 0)
(0 0 0)
(0 0 0)
(0 0 0)
(0 0 0)
(0 0 0)
(0 0 0)
(0 0 0)
(0 0 0)
(0 0 0)
(0 0 0)
(0 0 0)
(0 0 0)
(0 0 0)
(0 0 0)
(0 0 0)
(0 0 0)
(0 0 0)
(0 0 0)
(0 0 0)
(0 0 0)
(0 0 0)
(0 0 0)
(0 0 0)
(0 0 0)
(0 0 0)
(0 0 0)
(0 0 0)
(0 0 0)
(0 0 0)
(0 0 0)
(0 0 0)
(0 0 0)
(0 0 0)
(0 0 0)
(0 0 0)
(0 0 0)
(0 0 0)
(0 0 0)
(0 0 0)
(0 0 0)
(0 0 0)
(0 0 0)
(0 0 0)
(0 0 0)
(0 0 0)
(0 0 0)
(0 0 0)
(0 0 0)
(0 0 0)
(0 0 0)
(0 0 0)
(0 0 0)
(0 0 0)
(0 0 0)
(0 0 0)
(0 0 0)
(0 0 0)
(0 0 0)
(0 0 0)
(0 0 0)
(0 0 0)
(0 0 0)
(0 0 0)
(0 0 0)
(0 0 0)
(0 0 0)
(0 0 0)
(0 0 0)
(0 0 0)
(0 0 0)
(0 0 0)
(0 0 0)
(0 0 0)
(0 0 0)
(0 0 0)
(0 0 0)
(0 0 0)
(0 0 0)
(0 0 0)
(0 0 0)
(0 0 0)
(0 0 0)
(0 0 0)
(0 0 0)
(0 0 0)
(0 0 0)
(0 0 0)
(0 0 0)
(0 0 0)
(0 0 0)
(0 0 0)
(0 0 0)
(0 0 0)
(0 0 0)
(0 0 0)
(0 0 0)
(0 0 0)
(0 0 0)
(0 0 0)
(0 0 0)
(0 0 0)
(0 0 0)
(0 0 0)
(0 0 0)
(0 0 0)
(0 0 0)
(0 0 0)
(0 0 0)
(0 0 0)
(0 0 0)
(0 0 0)
(0 0 0)
(0 0 0)
(0 0 0)
(0 0 0)
(0 0 0)
(0 0 0)
(0 0 0)
(0 0 0)
(0 0 0)
(0 0 0)
(0 0 0)
(0 0 0)
(0 0 0)
(0 0 0)
(0 0 0)
(0 0 0)
(0 0 0)
(0 0 0)
(0 0 0)
(0 0 0)
(0 0 0)
(0 0 0)
(0 0 0)
(0 0 0)
(0 0 0)
(0 0 0)
(0 0 0)
(0 0 0)
(0 0 0)
(0 0 0)
(0 0 0)
(0 0 0)
(0 0 0)
(0 0 0)
(0 0 0)
(0 0 0)
(0 0 0)
(0 0 0)
(0 0 0)
(0 0 0)
(0 0 0)
(0 0 0)
(0 0 0)
(0 0 0)
(0 0 0)
(0 0 0)
(0 0 0)
(0 0 0)
(0 0 0)
(0 0 0)
(0 0 0)
(0 0 0)
(0 0 0)
(0 0 0)
(0 0 0)
(0 0 0)
(0 0 0)
(0 0 0)
(0 0 0)
(0 0 0)
(0 0 0)
(0 0 0)
(0 0 0)
(0 0 0)
(0 0 0)
(0 0 0)
(0 0 0)
(0 0 0)
(0 0 0)
(0 0 0)
(0 0 0)
(0 0 0)
(0 0 0)
(0 0 0)
(0 0 0)
(0 0 0)
(0 0 0)
(0 0 0)
(0 0 0)
(0 0 0)
(0 0 0)
(0 0 0)
(0 0 0)
(0 0 0)
(0 0 0)
(0 0 0)
(0 0 0)
(0 0 0)
(0 0 0)
(0 0 0)
(0 0 0)
(0 0 0)
(0 0 0)
(0 0 0)
(0 0 0)
(0 0 0)
(0 0 0)
(0 0 0)
(0 0 0)
(0 0 0)
(0 0 0)
(0 0 0)
(0 0 0)
(0 0 0)
(0 0 0)
(0 0 0)
(0 0 0)
(0 0 0)
(0 0 0)
(0 0 0)
(0 0 0)
(0 0 0)
(0 0 0)
(0 0 0)
(0 0 0)
(0 0 0)
(0 0 0)
(0 0 0)
(0 0 0)
(0 0 0)
(0 0 0)
(0 0 0)
(0 0 0)
(0 0 0)
(0 0 0)
(0 0 0)
(0 0 0)
(0 0 0)
(0 0 0)
(0 0 0)
(0 0 0)
(0 0 0)
(0 0 0)
(0 0 0)
(0 0 0)
(0 0 0)
(0 0 0)
(0 0 0)
(0 0 0)
(0 0 0)
(0 0 0)
(0 0 0)
(0 0 0)
(0 0 0)
(0 0 0)
(0 0 0)
(0 0 0)
(0 0 0)
(0 0 0)
(0 0 0)
(0 0 0)
(0 0 0)
(0 0 0)
(0 0 0)
(0 0 0)
(0 0 0)
(0 0 0)
(0 0 0)
(0 0 0)
(0 0 0)
(0 0 0)
(0 0 0)
(0 0 0)
(0 0 0)
(0 0 0)
(0.044261 0.00851458 -0.00811319)
(-0.0807312 0.0472682 0.0110216)
(0.0225093 0.0582624 0.0305816)
(-0.0331223 0.0638305 0.0528134)
(-0.0547473 0.0106953 0.021683)
(-0.0633325 -0.0192223 0.0634212)
(-0.0771157 -0.0261153 0.0550885)
(-0.0742944 -0.033192 0.00464684)
(0.0462354 0.0183193 -0.0276039)
(0.0352052 0.0426848 -0.0276528)
(0.0785463 0.0524471 -0.0181912)
(0.0843045 0.0995372 0.00351216)
(0.103434 0.184262 0.0243983)
(0.10869 0.113762 0.0221618)
(-0.0059912 0.114755 0.0494226)
(0.0594946 0.207413 0.0394309)
(-0.112617 0.126466 0.0504208)
(-0.123515 -0.00838709 0.0768056)
(-0.14077 -0.0713334 0.0876539)
(-0.209113 0.0327824 0.0619664)
(-0.208313 0.0374898 0.0559683)
(-0.105655 -0.0640387 0.0147536)
(-0.0603571 -0.0334214 -0.0207451)
(-0.135792 0.046955 0.0336729)
(-0.0587058 0.00956009 -0.00935248)
(-0.0200098 0.023623 -0.0303122)
(0.111937 -0.00342552 -0.0139541)
(0.0532973 -0.0792876 -0.055492)
(0.106855 -0.063329 0.0163775)
(0.181718 0.0959889 0.0399975)
(0.146452 0.178434 0.0408986)
(0.0993597 -0.02706 0.0227607)
(0.0581773 0.00242162 0.0259276)
(0.00395955 0.132688 0.0434854)
(-0.112148 0.0522233 0.0345345)
(0.00588773 0.0187561 0.0200135)
(-0.0512077 0.0288611 0.0195475)
(-0.184307 0.0837009 0.0659857)
(-0.146744 0.154001 0.0485944)
(-0.117313 0.0793629 0.0580016)
(-0.0684203 0.120644 0.0544951)
(-0.115567 0.138671 0.046185)
(-0.0645167 0.0860008 0.0342774)
(-0.100237 0.080512 0.0413252)
(-0.0651489 0.0173947 0.0214622)
(-0.0148316 0.0516284 0.00392825)
(-0.00301245 -0.0204542 0.0129766)
(0.00649823 -0.0321472 0.00875387)
(0.0254905 -0.0585331 -0.00777152)
(0.0295878 -0.0711602 0.0670964)
(0.0322067 -0.0381538 0.0584661)
(0.0219401 -0.0879768 0.0461154)
(0.00688014 -0.07152 0.0302131)
(-0.00850795 -0.0801629 0.0859767)
(-0.0224599 -0.10207 0.0930572)
(-0.00362859 -0.0527771 0.0236376)
(-0.0504476 -0.00901952 0.0411466)
(0.0124412 -0.106826 0.0969437)
(0.0329353 -0.0405194 0.074046)
(-0.08331 0.0950936 0.0949735)
(-0.0988934 0.0555812 0.119743)
(-0.00721039 0.0487166 0.0712685)
(-0.0646461 0.0405501 0.0923253)
(-0.221103 0.00424889 0.0939489)
(-0.192189 -0.0469164 0.00371812)
(-0.275289 -0.000150463 0.121917)
(-0.253509 -0.034829 -0.00364651)
(-0.0219063 -0.0629579 -0.0217201)
(0.0139479 -0.0466194 0.00649995)
(-0.0790679 -0.0193263 -0.0305356)
(0.00567702 -0.0273461 0.0193255)
(-0.0138208 -0.0479624 0.0657058)
(-0.0197652 -0.0746828 0.0940378)
(-0.0233325 -0.0282361 0.0209455)
(-0.0228355 -0.0342523 0.0449538)
(0.017596 -0.0822057 0.102489)
(0.0640289 -0.0562561 0.0638944)
(0.0165704 -0.0566669 0.0809887)
(0.052315 -0.061031 0.0724907)
(0.0130091 -0.015187 0.0321883)
(-0.0596379 -0.00609989 0.0516857)
(0.00933278 -0.0798795 0.0475582)
(-0.0621671 -0.0569693 0.0321601)
(-0.191026 -0.036539 0.0775458)
(-0.156179 -0.0278685 -0.0120412)
(-0.0942289 -0.0357045 0.00952672)
(-0.0467263 -0.00974402 -0.00802373)
(-0.0560655 -0.000860647 -0.0302041)
(0.00967138 0.00091795 0.0118582)
(0.0251878 -0.0220336 0.0636549)
(0.00610975 0.0054486 0.0671299)
(-0.00736632 -0.00489264 0.0238341)
(-0.0514704 -0.0382491 0.0242529)
(-0.0743808 -0.0435646 0.00197856)
(-0.0404851 -0.0140411 0.00507598)
(-0.0583599 -0.00226648 -0.0102718)
(0.0496372 -0.0232371 -0.0177988)
(0.0729878 -0.0742752 -0.0623211)
(-0.128365 0.0128027 0.00977934)
(0.0141308 0.00535478 0.037396)
(-0.0847277 0.0272791 0.109196)
(-0.167988 -0.034544 0.0233712)
(-0.0259378 -0.0599056 0.0353808)
(-0.192154 -0.0751164 0.104664)
(-0.141696 -0.0651982 0.158232)
(-0.149077 -0.0427559 0.0919684)
(-0.0827901 -0.0202884 0.0543995)
(-0.129139 -0.0930977 0.178179)
(-0.0838945 -0.0343396 0.0631198)
(-0.0987773 -0.031967 0.0108359)
(-0.0544857 -0.0187921 -0.0382453)
(0.0282675 -0.00156007 -0.0758337)
(0.016622 -0.0122318 -0.177261)
(0.0692736 0.000825967 -0.0631707)
(0.0650384 0.0401436 -0.0309418)
(0.0570835 0.0648919 -0.0131796)
(0.0388345 -0.0106424 -0.150403)
(0.0628031 -0.0236244 -0.106641)
(0.0551444 -0.0205106 -0.0948725)
(0.0433504 -0.0209566 -0.0330492)
(-0.0731312 -0.0268125 -0.0298287)
(-0.152217 -0.0328842 0.00527046)
(-0.0922474 -0.0289011 -0.0349629)
(-0.110244 -0.0464569 0.0251855)
(-0.0607858 -0.0363077 -0.0921768)
(-0.143583 -0.0797771 -0.041845)
(-0.0868725 -0.0398208 -0.101499)
(-0.0377308 -0.0345977 -0.0921544)
(-0.0294938 -0.0261063 -0.179226)
(0.0589647 -0.0365694 -0.0623727)
(0.00571394 -0.0915654 -0.130867)
(0.0468103 -0.0811692 -0.00743348)
(0.00930663 -0.0675474 -0.218436)
(-0.0330995 -0.029869 -0.313674)
(-0.0202083 -0.1003 -0.112887)
(-0.0632464 -0.0474429 -0.0542804)
(-0.0121596 -0.0359801 -0.0378402)
(-0.070556 -0.050921 -0.225397)
(-0.0789042 -0.0215516 -0.224474)
(-0.0062157 0.00438308 -0.193596)
(0.0369755 -0.0710306 0.0452987)
(0.0284886 -0.0625594 0.0232772)
(-0.0178388 -0.0384534 -0.282749)
(-0.0149935 -0.0739809 -0.04514)
(-0.0254258 -0.0526605 -0.165539)
(0.0147434 -0.0484151 -0.0112106)
(-0.0716584 -0.0175532 -0.11277)
(-0.0945202 0.0130159 -0.201863)
(-0.0262924 0.0408558 -0.199422)
(-0.0648094 -0.000778316 -0.202355)
(-0.0058064 -0.0368269 -0.0335361)
(-0.0217393 -0.0149503 -0.178734)
(-0.0011137 -0.0940248 0.0606864)
(0.00861653 -0.0170546 -0.0195952)
(0.0128296 -0.0244853 -0.00820536)
(-0.00763649 -0.0219491 -0.102279)
(-0.00610018 -0.0334604 -0.176249)
(0.0314357 0.0016086 -0.219378)
(0.00105235 0.0192596 -0.182087)
(-0.142558 -0.0300532 -0.0827581)
(-0.125652 -0.0286509 -0.0445528)
(-0.056355 -0.00191507 -0.0644963)
(-0.195554 -0.0300566 0.0546061)
(-0.0942125 -0.0273286 -0.171241)
(-0.0854271 0.00294459 -0.174454)
(-0.0585922 -0.000208998 -0.180589)
(-0.0356566 0.00906307 -0.197048)
(0.0456715 0.0197236 -0.0340791)
(0.0471662 0.0357274 -0.188007)
(0.00454929 -0.00507446 0.0922656)
(-0.0280669 -0.0132761 0.106792)
(0.0465733 0.000869064 -0.0805311)
(-0.0187008 -0.00383411 -0.0169716)
(-0.0214539 0.0181629 -0.0481979)
(-0.0880565 -0.0370457 -0.0453725)
(-0.057869 -0.0126798 0.000790149)
(-0.0489162 0.0151586 -0.328643)
(-0.0394897 0.0163516 -0.497107)
(-0.00709385 -0.0167883 -0.358906)
(-0.0717166 0.0261916 -0.298227)
(0.0728 -0.103803 -0.204181)
(0.0625201 -0.0693853 -0.231236)
(-0.0879605 -0.0355633 -0.130933)
(-0.0165053 -0.105242 -0.158989)
(-0.174016 -0.0981915 0.0195625)
(-0.0114218 0.00689533 -0.2785)
(0.0246485 -0.119109 -0.166883)
(-0.0735816 -0.0686381 -0.137847)
(-0.0788537 -0.121424 0.122617)
(-0.0179985 -0.00257701 -0.143487)
(0.0042871 0.001166 -0.376991)
(-0.0396135 -0.0338001 -0.212726)
(0.0110699 0.0262005 -0.339017)
(-0.0150438 0.00863743 -0.218982)
(0.0117625 0.0140061 -0.383979)
(0.0128347 -0.0256578 -0.393455)
(0.0148779 -0.0335767 -0.373751)
(0.0798105 -0.0763745 -0.180398)
(0.0311653 -0.0667044 -0.261747)
(-0.00547966 -0.206884 -0.0214254)
(0.0445612 -0.0444177 -0.291896)
(0.0722484 -0.0936758 -0.24463)
(0.0367494 -0.0985294 -0.28532)
(-0.0666008 -0.25219 -0.0395918)
(-0.0495127 -0.0310634 -0.196004)
(-0.105997 -0.0912872 -0.125235)
(-0.0573157 -0.0658871 -0.250646)
(-0.0273848 0.0252034 -0.270556)
(-0.0264876 -0.0244021 -0.332085)
(-0.0731823 -0.10021 -0.20625)
(-0.0391794 -0.078987 -0.296936)
(-0.0187344 -0.0348797 -0.327672)
(-0.0176446 -0.0449736 -0.328249)
(0.0062986 -0.0417304 -0.36496)
(-0.0209647 -0.000575006 -0.330062)
(-0.017291 -0.0707758 -0.297302)
(0.00603554 -0.0475395 -0.345456)
(0.00248885 0.00233536 -0.332198)
(-0.00900053 -0.0670226 -0.261501)
(-0.0273629 -0.0264516 -0.318099)
(-0.00570562 0.0196021 -0.32578)
(-0.0123661 -0.0555592 -0.335554)
(-0.00997948 -0.0418864 -0.363661)
(-0.0142913 4.26664e-06 -0.36502)
(-0.0451752 -0.080047 -0.253738)
(-0.0382541 -0.0350382 -0.292342)
(-0.0177669 0.000177676 -0.292955)
(-0.0376533 -0.0668898 -0.23089)
(-0.0317685 -0.027774 -0.272314)
(-0.0139695 0.0393369 -0.349756)
(-0.0236381 0.00124254 -0.362604)
(0.0126355 -0.0342621 -0.399936)
(-0.00129186 -0.00298905 -0.412182)
(0.00174365 -0.0083688 -0.43973)
(0.00985466 0.0187628 -0.397347)
(0.0148284 0.0135499 -0.375747)
(-0.037003 -0.0120953 -0.359546)
(0.0232695 0.0173312 -0.435498)
(-0.0287707 0.0283807 -0.379115)
(-0.00831128 -0.00403272 -0.347783)
(-0.065542 -0.00520259 -0.33396)
(0.014589 0.0103634 -0.408481)
(-0.0473526 0.0221004 -0.361548)
(-0.00318792 -0.0144855 -0.404445)
(0.00750254 0.00533006 -0.467914)
(-0.00584256 -0.00923327 -0.521778)
(0.0253267 -0.0279158 -0.220262)
(0.0185147 -0.0201819 -0.37813)
(0.00293442 -0.00438017 -0.446185)
(-0.00301124 -0.008244 -0.505299)
(-0.00317229 -0.00854531 -0.471763)
(0.0240627 0.0286365 -0.422518)
(0.0251357 0.00455976 -0.403837)
(-0.0572022 -0.00666256 -0.414679)
(-0.0387086 -0.0129805 -0.529824)