/*--------------------------------*- C++ -*----------------------------------*\
| =========                 |                                                 |
| \\      /  F ield         | OpenFOAM: The Open Source CFD Toolbox           |
|  \\    /   O peration     | Version:  5.x                                   |
|   \\  /    A nd           | Web:      www.OpenFOAM.org                      |
|    \\/     M anipulation  |                                                 |
\*---------------------------------------------------------------------------*/
FoamFile
{
    version     2.0;
    format      ascii;
    class       volScalarField;
    location    "0.45";
    object      Ksl;
}
// * * * * * * * * * * * * * * * * * * * * * * * * * * * * * * * * * * * * * //

dimensions      [1 -3 -1 0 0 0 0];

internalField   nonuniform List<scalar> 
10571
(
3670.6
1306.27
1780.37
1253.64
2042.55
1290.47
1312.89
249.883
4737.05
4970.57
3570.57
1850.43
987.186
1516.98
376.923
946.467
1762.09
1873.11
909.662
3904.82
4326.84
1925.2
1761.18
4337.12
37.1262
23.995
25.9265
24.012
32.5564
25.3556
71.2721
269.689
139.648
53.2972
11.7852
26.556
96.522
229.441
239.024
175.633
25.8021
49.2722
554.931
186.171
108.324
44.0955
81.2822
58.3893
11.3217
61.0276
27.3713
14.5099
26.571
15.7723
7.65875
36.0306
106.245
19.0871
-1.47457e-14
5.53181
12.7923
20.5477
267.108
88.2924
24.0885
20.2477
22.3531
89.4905
21.8739
22.2568
11.386
22.8811
0
20.3938
38.4726
0
11.5924
16.373
4.76498
40.432
112.295
38.1822
0
0
8.90691
24.1512
215.725
135.395
14.2448
22.9781
14.3204
97.037
84.6097
70.9113
15.9769
60.1994
0
51.2469
15.2796
-1.99861e-16
5.93486
10.0367
8.4068
39.7318
97.8912
28.018
0
11.3592
6.68137
23.4284
182.306
84.9653
20.7558
23.655
12.875
41.9161
159.066
35.9435
11.3271
65.5771
0
31.6629
42.4405
14.5906
24.8837
12.7548
4.95148
42.9841
103.778
18.9123
1244.19
9.385
0.663698
12.5286
26.8758
155.527
89.7788
5352.46
19.8365
18.0843
20.4408
38.4226
81.3397
57.2836
-1.57056e-15
25.083
0
2.22783
11.9482
-6.11213e-15
12.7322
12.8871
9.46589
32.9315
91.0056
5.50171
0
34.8227
6.68024
6.76047
21.4647
206.915
78.3021
0
32.0571
11.0711
25.5452
43.9461
164.099
0
64.3803
9.81652
28.3985
0
10.8851
27.0282
2.60381
23.5863
-5.91872e-15
41.9527
53.4282
75.6317
12.4245
2.20701
13.1918
5.89247
6.58105
23.0871
282.99
47.0178
1.28833
14.4931
13.7596
16.6221
30.9521
217.268
0
65.3553
7.61237
31.343
0
9.61539
39.6511
7.13765
12.104
18.9722
35.9766
49.7668
63.1083
6.46732
0
5.88504
28.6935
10.0636
25.9721
315.826
66.8363
0
12.8913
10.6342
10.652
62.0091
98.0535
30.824
17.8066
13.3459
0
10.8608
52.3681
0.28642
7.32687
10.4214
6.79626
44.5729
40.3646
7.82475
0
0.237552
7.18398
27.0712
363.109
57.7814
26.6836
11.8357
20.433
25.0543
177.547
66.8775
28.4332
24.0121
0
12.779
22.704
0
11.6781
6.59588
31.5432
31.1081
38.5316
21.3209
0
0
6.93453
28.0883
373.989
72.0419
21.6278
13.2169
18.1568
58.8971
136.636
38.6414
20.5811
24.716
6.91119
10.6101
9.62351
6.94292
21.1272
0
81.1996
36.0141
35.9435
23.954
43.6246
13.0159
3.53138
19.2837
406.98
109.589
4.73958
21.8866
11.7012
12.9574
240.844
11.0883
32.2702
12.269
3.77461
10.5059
26.196
6.98444
12.1538
41.358
12.1485
37.389
23.7574
19.7077
9.31057
4.94935
12.0591
12.3666
397.797
95.0541
13.4277
14.3897
20.8513
26.208
341.521
62.0457
27.0414
11.5402
27.8558
0
0.801223
34.2793
38.9727
6.80378
5.96582
33.4433
25.2221
37.1149
9.32492
0.231476
34.7632
8.82559
373.829
172.254
24.0009
15.0274
12.9738
58.2571
315.41
28.4436
25.6021
0
1.82438
-9.3568e-15
10.9174
16.663
23.2306
0
8.37884
28.3996
20.6158
2.42113
0
0
18.1678
13.2991
356.64
181.164
30.035
15.6928
11.8384
62.9758
407.748
28.1437
42.843
15.1875
0
27.3595
13.1338
27.5601
6.42852
1.60183
7.90862
32.1142
21.9042
7.39044
-2.87877e-15
0
14.6031
9.6026
321.005
338.276
6.14243
19.9911
13.1859
293.747
595.51
19.7966
29.7593
35.6556
2.19381
20.193
9.88099
24.7441
17.7042
12.737
6.85769
13.7387
11.9284
15.9348
22.3269
15.4754
7.198
8.94808
294.952
549.979
17.6922
15.2244
13.2323
434.858
449.644
12.1663
24.465
57.3958
-7.69748e-15
22.1004
37.5808
7.50858
24.7354
0
1.9037
10.8939
11.8682
8.78297
0
7.32479
3.90523
9.82277
266.821
790.766
22.1453
18.7505
7.46175
355.985
478.07
12.1136
27.1461
23.3666
0
30.3591
7.66534
0.264718
17.4376
-2.13018e-15
3.30689
9.04337
16.7755
21.5546
0
7.05697
4.73656
8.9785
260.348
909.931
30.7917
19.145
13.8081
258.702
580.906
11.9233
22.5573
132.005
0
60.5989
86.7473
5.47909
21.9443
0
1.37011
5.98903
11.5318
24.7875
0
-4.28373e-15
28.6278
6.34149
265.913
1300.66
32.6392
23.7843
14.8722
275.917
874.914
15.3749
-5.43048e-15
273.843
0
12.1884
81.8167
0.517847
30.1348
7.07134
8.48468
3.29663
16.5544
21.8693
-4.38115e-15
0
78.3096
7.81934
274.23
2163.64
44.5378
16.4896
22.5668
163.065
1591.99
11.9866
22.6157
618.127
23.937
13.8583
52.5678
0
25.6313
1.56918
3.21188
5.10382
22.7358
-6.06297e-15
23.8343
7.19937
17.2196
9.94862
306.194
2075.67
26.4167
16.4563
16.9104
388.046
1726
16.5792
14.8347
650.149
0
0.348568
25.7698
0
69.4687
52.9658
3.33702
3.74685
26.91
14.3495
47.9963
0
5.95642
25.6176
303.399
1601.65
11.6991
18.0614
99.9723
1501.55
2161.38
37.2083
20.9129
513.047
0
20.5198
10.0799
17.5704
44.7768
0.562338
6.78597
14.9945
20.9148
27.6997
0
7.7747
26.8139
207.803
282.627
1664.22
48.8367
63.4403
523.02
939.511
2167.47
19.3212
14.1935
781.982
33.144
14.2896
12.1111
33.347
60.5789
7.28407
5.5441
42.4827
16.8904
44.3545
0.820291
-2.20756e-16
32.3331
66.672
273.477
1714.54
27.5511
41.6733
80.3978
1066.25
2177.86
23.6995
64.0735
558.436
2.69962
10.6423
1.34309
6.83447
11.0506
0
8.93469
49.9803
16.9904
26.9389
27.6488
4.76949
23.8323
8.50717
279.415
1969.79
29.6825
29.2277
53.9245
939.467
1282.33
37.3074
87.1004
367.618
36.77
11.1994
24.4839
19.3217
14.7133
7.42133
18.3169
70.63
17.1102
-6.93881e-15
0
0
11.746
4.53985
282.032
1456.77
25.3959
19.4176
53.1109
888.314
1742.9
44.0967
105.553
155.48
1.44935
27.7555
5.73635
29.7065
5.56935
7.26478
20.9173
92.5766
20.6158
29.8124
0
0
8.43198
2.50528
301.899
1120.99
12.4724
3.91032
62.0062
1306.24
1525.95
35.9716
43.3656
69.4248
23.8726
-9.31432e-15
18.1505
17.334
62.7443
9.91813
9.08256
18.6276
26.898
43.314
0
7.25956
4.31569
2.61451
319.86
637.441
30.6344
13.329
49.3172
2179.42
1410.94
23.8861
35.7941
50.9258
1.43243
7.25623
3.95573
7.43594
23.366
39.4007
3.7677
3.64105
21.0233
86.2328
112.903
205.133
2.14413
5.12196
335.14
465.634
23.5084
13.6475
43.2665
2921.22
1945.42
37.3261
21.0645
6.38253
40.0411
21.8902
18.2195
8.00932
5.41552
74.5138
6.61519
6.18927
17.3544
38.825
113.553
35.4573
3.42257
4.16961
264.21
272.528
7.97356
6.79359
46.9487
1964.94
1794.47
111.805
4.9315
22.3036
0
11.0297
9.92522
0
32.4559
72.8797
4.70114
11.8568
10.2767
13.7912
69.9833
7.62114
2.30973
1.33885
225.317
192.475
11.5854
3.94376
31.3771
1481.61
1423.47
15.1559
20.2008
17.2994
5.12269
22.0597
17.6132
13.0301
13.6063
43.3355
3.82941
12.0598
17.2063
11.3505
0.710418
17.389
0.748185
4.8058
215.007
191.877
39.5596
2.34735
28.6486
2604.04
1530.28
6.32561
0
21.4603
0
10.7879
6.50359
21.5679
12.2089
0
5.05138
2.54561
11.9078
0
0
11.6371
2.25078
4.55281
212.683
83.4864
57.4748
0.783268
15.8709
2440.29
1363.05
12.5013
3.42853
16.2398
0
0
18.3916
14.231
5.29313
0
9.57608
2.64783
7.3197
13.0747
1.34932
9.26135
3.20538
8.22026
250.913
40.0723
25.1328
2.26602
20.8571
2269.03
785.161
28.91
0.333218
15.1293
0
0.470787
5.12989
14.1369
7.63423
6.75935
13.4582
8.38609
6.67807
13.3212
0
16.1067
1.64401
15.5395
277.014
41.0063
0
5.9321
15.4378
1776.18
517.294
32.8553
4.97406
0
0
33.6213
35.3807
14.1815
-7.49289e-15
0
44.686
13.7277
7.33416
0
27.0078
0
0.794983
16.5236
376.16
23.5598
0
6.23834
10.6373
910.012
411.289
29.407
0
12.1778
0
-3.01416e-15
6.2255
7.07932
4.04804
0
8.76234
22.3451
8.71149
0
0
0
1.53826
28.7228
499.898
2.72826
0
5.16905
7.93652
570.819
406.793
0
-4.04025e-15
21.7646
23.4497
0
6.81335
0
0
4.3405
11.8233
93.7336
19.1982
6.6551
2.808
13.164
5.84695
23.0688
471.971
0.164863
0
2.28885
7.11723
191.63
596.552
3.81213
4.60406
0
0
0.340864
10.8466
28.4685
5.13308
2.03893
4.51551
18.506
22.0594
0
0
0
4.60014
18.4352
480.681
-2.72682e-15
-3.09324e-15
1.52253
4.30633
43.9451
678.084
-2.55284e-15
0
0
0
10.7906
4.97667
7.23
0
6.60285
26.2928
0.62938
15.6394
0
0.797024
0.601683
7.93947
15.1963
476.286
13.2465
0
0.75463
1.30824
9.9539
800.085
-2.8139e-15
8.70038
-7.21307e-15
0
8.41392
7.53821
17.0167
0
0
26.5195
1.83182
6.99045
11.2114
7.0011
0
35.5662
13.4452
298.572
144.58
0.49683
0.730593
1.27187
3.14938
626.644
0
0
49.4332
0
20.5711
10.218
9.1457
0
1.11165
5.12011
1.30975
10.3213
-5.13305e-15
0
0
7.24443
13.8248
145.109
750.182
0
2.24562
2.95712
0
321.236
5.98801
-2.3553e-15
-1.50052e-14
0
0
-1.88505e-15
0
0
0
3.8135
0.0191998
18.8575
1.59235
0
0
7.36579
8.79232
32.518
2275.57
0
0.759204
0.981281
0
62.9739
0
8.82959
0
21.8645
11.5903
2.20738
6.65855
5.11063
6.85089
5.03194
1.81554
9.94359
8.65736
0
0
18.0458
5.08495
4.73876
974.677
0
2.2626
0.521635
3.29406
13.7104
-5.12383e-15
5.80954
0
0
0
15.8243
0
4.73933
0
0.75401
0
7.98603
224.658
0
0
5.74451
1.2874
3.13177
296.093
0
0
1.55579
5.59314
8.85924
0
5.02077
0
0
0
5.8742
6.62268
0
2.34917
0.780853
1.81975
5.41129
370.194
0
0
0.773457
0.733312
3.08453
40.5403
0
0
1.03347
0
9.93065
3.8923
0
-7.69782e-15
-6.91194e-16
1.78896
5.61661
13.2742
0.174015
7.62384
2.29328
0.578604
7.903
414.941
9.91791
0
1.37523
2.53941
0.407305
21.1985
1.70782
1.5295
2.39189
3.48212
18.9695
0
5.6104
0
-7.22533e-16
0.664888
0
0
11.8706
13.9159
3.5272
5.27483
7.10671
293.662
0
0
1.2
1.28194
1.87952
9.69109
0
0.402391
0.924888
0
18.9589
0
5.83966
7.07027
21.896
20.8046
6.1592
6.67811
23.5616
12.3985
3.67224
4.15525
5.80535
209.363
0
0
1.53932
2.42997
1.38642
23.825
7.16148
2.22716
2.26083
1.66833
37.793
5.7523
7.7948
0
23.6179
22.3135
8.38672
0
25.054
0
3.67945
3.685
7.201
52.4817
0
0
1.17801
3.91012
4.47765
17.4456
0
3.14932
1.28399
0.200446
26.9011
0
8.85772
18.646
4.45707
55.0776
9.43106
18.1033
62.3759
22.6426
6.41895
5.77855
8.78022
25.5034
0
0
5.02617
4.91575
5.37969
22.0285
0
1.52977
2.21414
-4.51514e-15
45.7811
0
-1.43818e-16
-8.48339e-15
-7.44364e-15
-4.32271e-15
16.9148
16.9257
44.9253
19.71
16.9963
18.6276
18.9032
28.889
0
7.20543
2.57571
8.96464
8.44261
38.1511
0
1.64645
9.68777
5.91282
66.7385
5.7489
19.2914
42.1145
34.2078
-9.55176e-15
9.6184
12.751
54.1974
46.3696
12.7926
25.0656
28.4241
63.8618
22.0835
0
3.99275
14.0342
15.9934
26.7602
0
1.58047
7.86281
12.6902
55.2399
8.97859
8.20484
54.0424
25.8757
15.9549
11.7937
12.2065
60.7439
14.4298
10.0863
29.0051
43.4943
88.1539
0
0
3.93337
24.4061
24.1336
77.5514
6.41123
5.33556
11.8703
17.3692
196.602
0
10.4105
99.7262
0.725148
12.7136
14.497
32.1348
98.4559
14.7963
10.2517
23.4468
57.4825
173.295
22.9446
8.99043
11.1261
19.4553
37.0145
148.251
0
2.24427
26.9042
24.3555
292.421
8.98558
24.1965
141.253
23.3205
23.8614
35.3031
12.4029
76.6353
17.7356
12.2496
25.8335
55.8906
243.498
0
0
9.98222
21.6677
40.4413
347.089
13.6501
9.20826
23.7319
54.6815
434.027
6.24814
115.562
262.304
14.9843
84.5581
41.2501
20.3429
38.9117
34.1456
14.1733
16.584
39.0785
225.253
0
12.3039
9.68422
28.4118
112.708
488.626
9.84441
16.2038
23.622
85.2029
572.115
10.4753
170.894
474.252
39.865
66.832
123.813
29.2016
61.7616
25.6744
12.8576
16.7005
30.867
170.094
0
0
15.9618
22.8689
101.515
168.411
10.1566
19.2808
29.9286
142.273
509.271
124.143
356.351
855.61
48.8349
65.9527
105.527
11.9641
204.306
91.7615
17.5459
14.7514
32.4904
442.406
1.11813
6.37358
13.907
23.6285
53.4418
139.917
281.291
36.1808
70.2734
220.794
14.641
1251.45
883.393
1648.81
316.281
368.2
164.152
71.8025
435.603
1528.56
160.88
18.8215
27.78
876.153
241.498
401.943
115.003
20.9921
18.5601
159.484
3368.74
312.709
75.1436
40.191
0
2412.65
688.044
211.223
967.805
0
4.90954
52.7581
278.88
2.26055
138.547
62.1352
24.5627
328.619
103.078
1.38073
152.437
28.9684
14.1995
166.184
9.84515
136.142
124.104
16.0319
0
83.8956
92.1664
13.034
0
0
4.47962
-1.01054e-14
22.7137
-4.44849e-15
77.594
78.6008
18.2556
17.9305
0
0
69.2959
73.5233
15.6075
54.6687
4838.08
2.49771
29.1567
2.97723
4.42154
0
36.5086
5.90343
0
0
0
0
0
0
0
7.43008
1.6388
1.44974
10.0005
0
0
0
37.4342
23.3655
1.12975
0
42.8458
0
0.629004
0.816117
0
0
-1.02333e-15
0
0
0
0
0
0
0
0
0.69917
0
0
0
0
0
0
-6.46769e-16
0
0
0
0
0
0
0
0
0
0
0
0
0
0
0
0
0
0
0
0
0
0
0
0
0
0
0
0
0
0
0
0
0
0
0
0
0
0
0
0
0
0
0
0
0
0
0
0
0
0
0
0
0
0
0
0
0
0
0
0
0
0
0
0
0
0
0
0
0
0
0
0
0
0
0
0
0
0
0
0
0
0
0
0
0
0
0
0
0
0
0
0
0
0
0
0
0
0
0
0
0
0
0
0
0
0
0
0
0
0
0
0
0
0
0
0
0
0
0
0
0
0
0
0
0
0
0
0
0
0
0
0
0
0
0
0
0
0
0
0
0
0
0
0
0
0
0
0
0
0
0
0
0
0
0
0
0
0
0
0
0
0
0
0
0
0
0
0
0
0
0
0
0
0
0
0
0
0
0
0
0
0
0
0
0
0
0
0
0
0
0
0
0
0
0
0
0
0
0
0
0
0
0
0
0
0
0
0
0
0
0
0
0
0
0
0
0
0
0
0
0
0
0
0
0
0
0
0
0
0
0
0
0
0
0
0
0
0
0
0
0
0
0
0
0
0
0
0
0
0
0
0
0
0
0
0
11532.3
10077.4
10034.7
11826.3
8344.23
11250.4
10489.3
8594.58
12718
11557.1
10553.2
10738.1
10401.4
10781.7
9668.5
11061
7269.1
9081.58
10904.9
9101.18
11041.4
12333.4
10713.7
8696.97
8556.31
8479.85
10586.3
8944.73
10542.1
10878.3
11435.5
10558.1
7266.11
9123.43
8551.3
8104.73
10497.7
11260.9
9873.55
10988.3
7244.12
7772.96
7366.09
5973.13
6983.31
5910.66
8048.46
9062.04
8631.51
11004.5
10431.6
9791.3
7231.99
10511.9
9372.44
8675.35
11532
10525.5
11397.1
10488
6276.94
10178.7
7615.89
4761.97
5955.89
6561.25
7192.41
8121.41
10696.5
9567.36
11085.8
11606.9
10665.3
12275.6
11620.8
8338.36
7761.44
7494.42
5988.79
10385.6
6241.78
9820.33
10381.6
6556.82
9825.3
6357.81
8718.2
10160.1
11847.7
10210
9125.47
8734.11
8547.03
10507.2
5040.78
8378.53
1288.24
94.2486
3292.72
1542.88
3645.15
343.317
315.404
838.339
1875.5
1847.1
1159.21
2541.5
3101.03
4330.52
1083.15
1591.8
169.835
1246.67
1189.02
1005.86
95.8961
197.282
341.878
1429.46
4212.35
1053.8
3821.37
2673.53
1663.06
3748.81
1775.54
4629.51
713.334
1127.51
1893.52
1620.78
237.835
897.035
636.364
3899.49
3769.3
2523.62
1076.76
1293.21
1830.59
1488.36
1236.71
1322.58
782.57
1765.99
1046.44
199.118
137.862
242.926
3172.55
464.896
1763.99
3516.84
1966.56
897.481
1750.74
187.713
264.013
4075.23
4020.06
3576.56
1585.85
384.707
2476.44
770.8
475.917
1774.62
184.231
1669.7
1930.79
327.369
1083.71
443.759
1645.59
2817.03
4310.43
5451.95
3453.91
3462.95
11.7944
21.1646
45.3798
32.6985
16.7649
17.6451
60.3148
17.9976
33.7863
27.2583
0.857933
4.84499
7.04525
13.2116
36.5227
10.4633
11.2748
36.7451
37.0819
45.9579
21.1952
33.8754
28.6662
22.2578
8.41958
143.198
47.0725
13.2679
9.55551
7.73431
55.3954
56.8603
40.9864
4.15072
17.5246
29.0912
0
27.4372
20.4951
53.243
12.9907
92.2684
34.6711
0
22.2561
14.4627
29.0514
15.3549
14.1332
26.744
161.862
122.197
26.343
152.958
13.8473
12.0428
56.2044
37.179
79.2136
30.4658
21.2247
92.1832
50.7859
71.7865
231.657
150.064
94.2787
97.6158
69.3171
83.4274
107.433
64.0566
33.163
30.5844
22.6251
42.9956
10.5881
0
151.257
100.048
0
32.3425
0
23.724
45.2094
30.2752
5.40717
42.3345
19.4727
12.2616
47.0249
23.405
9.86995
16.2039
6.54718
16.8271
20.0111
-2.1638e-14
12.7361
25.5316
17.8307
40.7922
13.4276
7.91021
2.19676
40.722
49.1944
14.0869
0
29.3446
62.9555
-6.27976e-15
16.1073
6.67782
30.3073
37.4212
26.4641
16.5068
3.54953
-4.2014e-15
23.9997
5.12298
5.52538
39.4989
20.6736
76.4557
52.7507
0
-4.47001e-15
7.71056
10.5677
11.1492
7.9827
0.704952
213.12
121.673
23.53
191.932
19.165
30.8243
7.80987
30.906
36.7309
18.0982
30.7284
67.6869
56.1241
112.022
160.275
92.7848
61.9314
117.659
89.8955
161.681
120.453
84.1184
38.1141
37.0989
0
16.8836
14.9722
0
22.0435
0
15.4091
8.69035
0
11.3908
36.5085
12.5074
0
26.2758
5.89379
0
22.9362
5.67369
0
14.0114
0
6.41193
21.3323
13.0728
-7.73383e-15
34.4407
-3.938e-15
50.5088
17.5541
28.5151
12.118
27.1962
45.7293
20.1094
21.0376
6.16887
28.397
5.84442
10.3311
12.6143
47.5966
13.5734
27.3727
18.288
25.0462
4.62144
24.1299
0
0
30.1379
73.4375
55.4161
17.2519
28.7647
7.59317
22.1835
0
11.2236
6.54484
105.29
204.691
94.8423
24.0878
139.513
49.4311
-9.41495e-15
18.9821
44.1555
26.0004
23.5827
16.6381
22.327
50.0497
96.499
110.813
90.3158
30.9849
96.7956
90.5283
103.117
140.527
12.4287
127.889
40.4665
0
18.7167
31.3974
33.0385
18.4794
0
7.48676
54.4985
0
95.516
54.9465
25.7531
54.1801
35.9737
12.2351
4.21389
24.1845
25.6766
12.0812
18.4952
0
5.83723
34.7439
0
0
0
11.8708
18.202
39.039
5.49314
34.2961
24.9794
32.7236
4.12597
-6.07032e-15
15.2406
42.2004
-3.49455e-15
0.338237
37.1731
14.6494
36.9888
-1.81537e-14
8.04749
20.2342
0
0
0
16.0989
33.4623
41.2844
8.15341
46.7508
171.123
-3.3239e-15
21.5601
0
24.4094
14.9746
21.2257
146.518
69.7366
135.795
131.475
0
0
27.6372
-9.13912e-15
25.3089
23.8091
13.5807
75.7511
53.6226
57.7134
41.1055
41.0971
17.3609
90.5382
71.5159
25.4503
131.305
40.2065
42.2149
22.7605
18.4186
38.9983
12.2327
0
27.8763
0
16.5003
26.7776
0
39.1704
11.1169
25.509
0
-1.53483e-14
8.26237
30.0215
15.8157
8.07204
17.8738
37.1844
0
7.65371
13.7441
7.05717
26.6173
4.6109
29.2225
30.5011
0.174851
12.4068
26.6659
24.5172
17.1156
22.1614
26.901
31.4392
18.8865
5.61588
3.80313
21.9334
19.714
34.421
36.6865
8.19987
15.4847
7.01015
24.7092
0.671501
6.13613
119.478
17.1189
709.993
20.963
2.82908
25.5348
25.5305
6544.8
5052.26
16681.1
0
24.9522
2.50065
90.1343
15.2553
22.7635
-6.56116e-15
10.2996
20.424
536.75
163.346
117.596
45.6272
24.0485
189.443
7.86787
11578.6
1154.15
6907.44
6.5242
118.968
3.51981
49.2268
0
13.1693
10.1778
25.5745
33.713
27.2296
6.43901
29.6956
45.0952
147.025
33.3346
67.4103
10.8153
93.4885
55.4156
67.1154
73.7581
64.5911
19.2225
8.31144
0
47.5251
18.8266
47.0461
40.7579
0
4.49533
7.53422
3.20562
13.8707
8.84859
11.9528
-1.88304e-14
7.64726
12.0952
21.4202
18.4644
8.51289
10.0207
2.64722
0
17.9219
38.1224
-4.28733e-16
7.72066
19.337
0
62.333
24.8715
28.0781
18.226
33.2093
5.76258
26.5146
0
-5.63901e-15
18.1986
24.3359
23.3681
33.3024
12.5773
9.34533
0
12.0744
0
0
0
0
0
13.3157
0
12.6179
23.5052
14.2063
5.11318
5.21811
32.8284
11.5481
14.5095
5.75007
18.7526
6.17215
0
0
0
3.49733
0
0
0
51.602
18.594
19.5118
32.9509
12.9943
2.91727
136.363
5.05577
63.0242
19.9505
208.478
8.56446
0
0
0
1.64912
0
1.89444
0
0
0
36.8447
5.03021
17.7776
18.1714
6.53113
5.14113
27.4277
77.0405
53.4305
81.1774
46.9543
92.0083
92.8509
77.1765
0
129.305
-6.26367e-16
0
0
0
28.4381
52.3266
26.7446
-3.64394e-14
30.9768
25.7542
7.58456
27.0307
0.736216
22.6862
33.4207
11.536
16.9431
0.490913
17.9265
21.498
37.0162
16.2607
0
34.1858
29.083
3.44881
7.33988
0
18.9493
18.0208
-7.4837e-15
0
0
0
25.4413
17.7574
13.9242
21.6147
46.7308
28.9334
27.7515
42.4326
9.44929
18.6029
13.0833
30.309
21.2486
26.715
28.1833
0
8.96648
0
0
0
0
0
0
14.1577
0
29.7473
20.8977
2.14472
5.81083
10.1033
13.4257
0
-4.10361e-15
16.8978
8.15002
0
0
0
0
0
0
0
22.4257
21.9113
17.0811
7.4635
2.7531
9.53335
266.505
18.6834
64.9171
10.6399
220.906
4.67465
2.52081
0
2.5728
0
0
0
0
19.1963
0
8.83723
16.5492
19.9598
16.7377
7.79234
19.4371
47.6548
145.716
31.7898
67.0357
43.0624
114.336
44.2143
86.2878
17.9924
126.643
0
0
0
0
37.5881
29.3208
27.5595
0
27.3815
30.132
45.4297
0.629993
0
4.81112
7.30166
0
32.5508
35.6603
42.2666
43.7676
20.292
13.3918
21.8196
8.71088
24.6157
-6.25221e-15
34.165
21.9119
6.2974
-7.00259e-15
0
0
0
0
15.3302
0.280172
44.6949
21.3085
28.3499
23.0505
19.858
13.0443
16.2067
22.1608
7.85143
34.0484
41.3961
34.3486
3.97729
39.717
24.924
0
5.53541
16.2392
21.779
6.64767
5.09226
12.2911
2.34644
17.3997
20.7898
30.9986
18.6651
0
0
0
0
0
0
0
6.75385
26.5293
8.23732
1.66184
12.7409
18.1531
234.324
16.6759
40.5519
12.0046
227.808
17.2849
0
0
0
0
0
0
0
4.87322
0
10.5806
32.1944
51.5413
11.0868
26.2061
31.4097
16.8731
66.1592
50.1436
64.954
33.8148
103.52
70.5713
60.9041
167.501
62.4351
50.3131
19.4851
0.797491
46.5096
13.2043
0
23.3412
0
15.5759
16.9087
0.718772
35.2867
29.3332
13.8803
0
0
3.9456
22.2096
21.5991
7.54867
12.2974
7.64721
22.5895
24.4912
8.90342
27.3042
-1.36657e-14
0
27.7745
35.5488
17.287
38.1426
20.0314
28.0448
17.1276
16.207
3.89185
11.3988
17.2234
6.7409
29.5378
36.7115
11.3237
-1.68762e-14
0
30.4882
0
0
29.1662
0
33.5232
25.8454
0.80823
-6.57633e-15
15.9799
-5.04868e-16
11.59
8.92559
0
-1.76147e-15
0
29.0847
268.573
85.4438
55.3151
237.303
14.8003
2.422
6.99835
50.7554
26.8389
31.4829
23.8718
33.7918
15.2758
155.834
41.6241
94.8991
70.2178
124.928
24.9096
83.2532
128.114
44.2256
38.2641
19.9588
0
23.7621
11.347
23.1777
7.10568
0
2.91368
24.9154
0
23.2905
-1.15072e-14
14.5854
-6.78501e-16
9.88785
19.1979
21.6081
21.1101
1.558
-5.38044e-15
14.5075
0
8.49449
23.3276
12.2064
24.0744
0
0
15.6987
18.054
19.2874
44.7301
11.3366
11.4277
61.0927
24.9606
12.6776
17.5542
32.6196
42.6504
9.82189
21.9393
0
20.867
3.55546
0
-9.43526e-15
21.574
0
0
13.7955
0
18.8999
18.2281
39.7575
6.13402
4.59489
0
0
0
53.4941
221.669
54.6334
36.5188
235.548
5.56011
18.2041
12.6447
52.1639
34.5716
19.2033
24.2464
18.4728
41.356
109.802
24.4872
35.0479
30.2577
174.246
41.4687
103.924
164.773
45.8649
3.17536
29.2696
38.5632
7.16026
27.2867
8.01966
0
15.2029
35.2062
0.330805
27.2391
23.3128
14.437
13.0902
14.153
0.210498
0
22.8336
0
12.6075
10.1947
15.6439
6.19636
17.5576
10.7028
-8.45385e-15
10.7742
0
14.6537
48.1434
3.58287
43.6979
0
9.06593
12.7818
10.1059
21.3146
50.5892
5.40902
34.9751
47.4728
31.4662
32.2564
12.6437
40.2204
0.282371
0
7.79446
0
22.4664
12.2607
20.817
0
15.3856
33.233
61.3258
0.261249
16.0763
0.773061
3.92969
17.3943
43.1751
367.879
82.1506
19.0365
455.317
-1.27907e-14
11.6368
8.15631
48.9449
29.1575
13.1456
8.95115
19.2792
35.691
181.464
28.9976
71.775
34.8675
301.26
40.4199
80.168
303.341
18.3032
0
19.0921
21.4531
20.703
1.23222
0
0
0
22.6215
0
22.4291
9.13587
32.2585
8.74875
0
7.55257
6.22774
0
24.5962
43.5437
30.0764
7.81328
-1.3791e-15
22.2412
16.1258
0.553812
-4.94859e-16
15.1563
28.7599
26.2106
12.9373
15.7613
10.0862
15.4309
17.9543
6.47394
12.0845
14.4204
18.3043
40.7047
26.4451
49.5396
19.3471
16.5346
0
11.462
0
6.10603
13.2046
23.6531
12.1051
31.6071
14.3749
14.4306
26.2925
0
9.96508
4.6309
0
0
-2.48903e-15
27.9387
532.652
157.673
17.8412
528.819
30.5226
2.1718
25.6535
48.5835
65.0138
28.4093
26.0632
59.963
16.1981
279.243
59.2424
63.462
39.0439
358.058
27.8508
76.7431
367.384
72.7748
14.5537
27.0919
0
28.5292
20.9778
45.0652
9.23437
0
22.4505
3.95702
18.2881
11.254
0
17.0335
0
18.6637
37.5617
0.813205
20.9361
39.1107
33.0315
8.35154
17.5268
16.1669
24.1899
63.7688
0.413595
-2.06143e-15
14.6299
16.3413
-3.85593e-16
6.27017
15.5109
20.9026
13.5772
20.0297
10.7319
17.9603
51.3156
39.7186
6.21372
20.2435
23.1368
2.37286
13.5748
8.07687
23.4325
7.20507
14.2778
46.3873
1.64082
4.89731
40.0325
13.7361
26.9464
0
12.7347
0
32.0025
4.59562
20.6207
103.947
543.997
194.543
77.4359
811.713
14.4353
17.598
7.70205
96.8357
46.3043
16.9493
21.8902
62.9407
47.1033
434.601
29.8779
127.198
62.6115
626.886
37.4278
114.098
421.946
32.2641
10.4131
12.9699
20.5264
6.68164
28.7864
0
17.3455
18.0226
42.9673
38.5642
0
1.83617
13.1593
15.8181
0
-1.41625e-14
8.29434
23.3648
8.06572
10.4586
28.0409
7.78308
20.2374
24.0106
8.40301
15.943
48.7966
14.7325
5.26908
31.6916
3.8621
25.5466
5.41727
43.891
5.9136
0.575887
11.6226
16.599
-1.53644e-14
27.5546
10.78
5.93542
16.4119
0
0
9.99009
8.30178
6.68587
21.5267
18.5654
6.52915
26.321
41.1278
26.3392
18.0034
40.3467
4.02532
16.2362
4.84086
0
-1.20283e-14
46.3838
1117
271.331
39.3381
1291.07
15.0426
28.258
5.99508
102.456
35.8844
26.078
41.7836
49.5588
31.1916
793.501
45.6673
153.158
98.4972
1133.3
156.833
228.491
547.011
9.69899
23.9435
12.2792
21.3182
27.9499
15.1837
0
37.993
0
16.3262
42.7659
46.5784
67.8424
50.0152
35.8152
0
0
22.9382
23.4787
32.0112
7.86631
6.09488
15.9547
0
18.5059
13.1135
54.1006
19.2868
16.254
0
40.0445
0.53536
2.54105
22.7075
61.8095
16.4769
29.4303
2.36654
6.23004
29.9327
28.6753
32.9051
6.62296
1.76387
14.136
13.2036
20.4175
-1.07904e-14
2.80361
8.55509
23.5492
10.7887
29.8027
17.5738
6.08626
32.019
31.4865
6.11728
7.74937
0
0
0
106.115
1620.36
398.635
148.816
2508.38
-1.28623e-14
0
21.5813
27.6359
54.7141
10.3013
31.4659
54.9497
53.8657
1690.41
116.942
215.245
391.181
2476.15
143.898
237.128
527.001
49.8981
28.9918
26.5978
43.8612
9.16589
24.891
21.9566
18.3666
5.87585
17.9273
47.2345
23.2019
63.1365
14.2622
13.6068
-7.23607e-15
12.8959
31.6439
0
16.3155
14.2742
29.9293
18.9387
10.0534
5.73373
28.0674
42.9607
-4.50956e-16
29.3682
8.77312
77.6071
19.027
19.2485
0.262793
41.0935
-1.3653e-15
10.9113
-6.39274e-15
11.8053
11.0397
13.2786
22.2475
-4.92273e-15
21.9621
0.660537
26.5819
46.0841
0
8.43925
18.5345
0
26.4294
26.6609
36.5564
7.53314
24.2311
17.7952
6.46203
7.71602
9.83947
22.6707
15.9557
241.049
2296.12
660.586
188.643
1504.66
0
29.9711
30.7128
65.8202
59.1286
28.4614
8.18904
48.1384
37.1985
3008.62
108.342
328.646
403.538
3130.33
105.938
308.757
433.829
-1.16914e-14
18.9916
9.61449
0
6.10068
11.3618
0
24.7273
0
43.4835
36.83
0.951877
27.4431
25.608
25.7187
0
22.2927
22.7417
23.3217
14.1042
23.24
-3.0224e-15
8.6115
0
6.21546
3.51547
28.6192
23.6964
11.3487
62.8628
37.5268
18.8596
14.0628
17.7127
38.0497
2.52206
11.5303
26.1519
24.7906
43.7633
9.29265
-3.02546e-16
27.5129
5.6881
14.5614
33.9884
15.895
0
6.56399
0.277569
0
7.70615
51.716
46.3276
24.1909
45.7134
36.9173
6.46919
6.66179
8.86723
17.0583
8.35232
121.545
1773.79
874.517
93.9483
2170.24
5.86691
0.465428
32.1001
48.507
48.7638
34.4327
23.72
26.1063
47.7092
3745.75
183.052
409.67
299.683
5256.26
329.834
575.905
557.104
90.4738
66.7998
5.3371
0
11.5002
8.22564
21.791
25.2051
21.2689
32.6024
20.1518
15.8555
43.8905
24.106
65.0344
0
13.5456
33.8
0
29.7605
24.282
14.5165
21.9976
0
10.3006
16.169
39.8589
28.5634
17.6817
14.6005
23.3302
6.02109
6.28733
11.196
75.1239
45.7212
8.43821
21.5452
21.9392
23.4855
16.8957
39.507
-1.06325e-14
8.04308
13.8579
11.5691
0
0
19.3211
16.3961
0
11.6578
49.8348
0
18.0226
49.1209
0
0
8.31347
0
12.862
3.40888
121.943
1440.44
1019.17
123.425
1449.5
-3.21219e-16
0
11.2975
31.5088
70.0443
41.6983
24.1495
93.1222
44.5857
5109.86
355.714
695.16
277.045
5474.53
487.418
1366.05
701.281
73.2357
65.4876
5.50751
-6.72092e-15
12.4274
16.7698
0
26.5954
35.5442
25.1675
45.1135
-4.36917e-15
112.191
27.3598
27.2126
23.0195
15.4042
29.3957
45.7964
27.0045
12.069
0
24.255
0
0
0
13.6831
4.33841
-4.50421e-16
10.4613
93.8954
6.66864
8.37831
10.3625
51.0401
16.6162
12.7228
45.7328
13.4637
18.0642
49.6514
64.4697
19.6705
8.70018
26.5032
-2.3884e-15
15.7458
0
17.0486
7.64788
0
15.4947
32.9039
34.7304
1.04682
16.7116
9.52703
12.9342
5.40946
24.5658
12.7283
8.05256
168.689
1729.71
1826.85
316.832
3033.95
14.5007
0
32.6671
82.1127
31.7105
18.7843
46.0034
58.4537
32.671
8011.31
649.781
1512.41
213.676
6738.92
805.763
1955.52
1276.25
68.7289
88.9474
8.6694
0
14.9751
26.2291
26.3205
31.7771
0
35.4999
142.905
32.1541
376.554
70.1639
2.04234
-4.81432e-15
35.8728
8.52459
46.3027
15.4188
10.3526
24.1718
7.92328
0
7.20598
15.8893
34.8868
40.2847
46.1579
13.8493
35.4067
17.3087
10.5282
9.97798
45.5787
11.2533
4.86566
53.361
28.1234
25.4083
32.9453
57.4364
28.3203
16.504
26.997
16.9972
8.15882
0
2.26514
22.5726
0
10.9999
61.8393
119.768
13.5223
58.4632
173.967
0
0
0
31.3091
0
480.299
2528.4
3067.87
507.606
2187.04
0
0
43.3992
35.6974
48.8033
15.4541
27.4013
57.9198
74.3028
7593.07
896.803
1612.73
184.645
12168.9
887.829
1437.57
1542.74
48.5945
48.5175
5.8397
0.741472
19.975
16.8576
21.5778
344.004
42.4787
39.7808
213.122
46.1156
564.901
12.9317
3.25085
0
10.0852
8.23778
0
36.8487
7.53475
6.26598
0
0
0
31.4767
4.74134
0
7.99641
1.02278
33.0977
17.9412
14.0874
10.1342
33.7467
18.4116
35.6162
70.6208
11.8544
13.0401
33.8891
51.182
2.13323
9.04956
18.9655
13.4743
42.87
0
13.8942
16.1756
0
12.908
84.4155
145.078
10.6446
174.932
241.986
14.3002
6.18419
0
0
35.6279
729.252
2542.12
1710.98
727.363
2781.53
28.949
0.440531
44.4006
40.6371
49.524
43.6867
3.30636
9.26463
44.456
7114.27
1080.63
1634.2
683.556
6675.67
1403.81
2199.32
1532.68
81.1391
88.7606
16.9929
41.7888
25.3182
6.27669
0
250.813
9.03867
21.788
62.4547
29.2043
499.158
0
0
0
-2.017e-14
17.2483
0
14.6634
0.764537
6.64441
20.9632
13.9391
28.1223
0.26075
72.9622
38.8882
0
0
16.1951
-5.52391e-15
28.4304
20.5985
18.1466
17.9659
22.978
58.2206
6.297
5.61715
63.3727
57.8919
18.4033
23.2572
26.9191
13.6287
8.61866
24.0776
19.0919
5.64461
0
12.3917
166.348
327.492
24.1724
152.493
493.58
4.32719
15.0674
-1.38939e-14
6.52345
8.45253
734.112
4088.2
1801.83
1076.8
5072.12
14.7878
26.2849
28.5499
20.996
59.6417
31.5088
36.2685
19.5742
55.11
10987.9
1811.07
2935.85
1831.55
8941.08
2176.68
2513.83
2451
52.0741
38.2964
4.05726
0
24.8659
13.4348
21.7803
62.9542
2.04551
18.6247
115.211
21.6082
632.86
25.8624
18.4949
0
17.2076
17.2823
0
4.76312
18.2612
24.7527
28.0805
0
28.5735
164.489
22.5153
161.655
0
0.890479
13.6243
23.3831
7.76575
0.475029
-2.24814e-15
29.1969
12.7074
53.5823
13.1587
7.0364
43.6033
48.9838
5.84738
22.6345
18.4891
-1.27275e-14
7.48347
0
8.32698
7.97195
4.39573
0
131.559
276.384
61.1353
99.0035
135.543
0
0
13.6004
8.39808
16.7083
790.301
4461.25
1520.21
677.05
3406.05
29.4679
14.3911
36.8024
35.3389
31.4978
21.1343
13.9868
16.7786
39.9836
6420.17
2558.94
2011.41
830.414
7340.09
2060.36
1165.67
2793.58
21.5202
42.2629
23.7544
0
44.7553
44.4267
0
182.567
22.0995
37.3202
120.371
28.0867
652.607
0
13.1903
0
7.56394
2.38043
0
22.5813
10.465
58.3046
260.045
30.165
65.5793
42.228
112.219
64.0105
0
0
7.93826
-1.83142e-15
13.1546
-9.39683e-15
7.81424
17.8755
7.80274
9.61816
0
0.207818
36.6631
19.3819
6.3757
11.8092
0.68575
18.0936
0
-1.54483e-15
0
7.94108
0
6.49066
77.2922
131.556
25.9503
60.7984
101.86
13.075
8.14348
0
6.58183
0
724.265
3586.29
2360.76
374.276
4273.81
29.1266
0
73.6673
8.92226
57.4842
21.4664
57.8152
17.6117
32.118
7520.53
1482.85
1213.84
1072.42
9284.46
1495.59
1463.37
1632.16
22.3658
5.00385
53.0112
44.7106
28.8877
88.1535
84.1691
97.7905
24.119
138.6
109.288
117.015
472.794
13.2493
3.81728
0
7.62992
6.20412
23.9285
12.5334
0
43.0042
53.6093
24.0577
18.9224
60.7636
39.5341
52.5436
14.1052
0
21.5575
18.3281
3.27112
2.34361
17.151
-1.05741e-14
19.9824
5.00533
12.8958
11.6925
41.4301
37.3012
12.6056
17.5548
30.7012
27.2021
0
0
0
0
0
6.57321
55.0604
106.62
30.8767
76.497
64.2213
5.71406
0
24.3628
12.0559
6.92889
234.452
4599.17
1771.07
171.15
2761.67
9.68144
11.7788
14.6413
14.7353
49.5707
37.9399
16.5225
20.9085
29.6908
7170.62