/*--------------------------------*- C++ -*----------------------------------*\
| =========                 |                                                 |
| \\      /  F ield         | OpenFOAM: The Open Source CFD Toolbox           |
|  \\    /   O peration     | Version:  5.x                                   |
|   \\  /    A nd           | Web:      www.OpenFOAM.org                      |
|    \\/     M anipulation  |                                                 |
\*---------------------------------------------------------------------------*/
FoamFile
{
    version     2.0;
    format      ascii;
    class       volScalarField;
    location    "0.45";
    object      voidfraction;
}
// * * * * * * * * * * * * * * * * * * * * * * * * * * * * * * * * * * * * * //

dimensions      [0 0 0 0 0 0 0];

internalField   nonuniform List<scalar> 
10571
(
0.75447
0.855411
0.831865
0.872888
0.811338
0.869702
0.869894
0.965639
0.710178
0.676418
0.752955
0.828502
0.897486
0.851288
0.960627
0.900879
0.831148
0.823948
0.901105
0.743672
0.696857
0.821324
0.831586
0.695816
0.99389
0.996348
0.995991
0.99601
0.995298
0.995989
0.990023
0.960214
0.980622
0.991507
0.998714
0.995416
0.986886
0.966785
0.968897
0.977323
0.99608
0.993049
0.919356
0.971721
0.983016
0.994227
0.985613
0.98833
0.997921
0.990855
0.995538
0.997754
0.995707
0.997451
0.99888
0.994684
0.984197
0.996734
1
0.999339
0.998162
0.997377
0.961161
0.987937
0.996267
0.996755
0.996611
0.98702
0.996667
0.996889
0.998236
0.996043
1
0.996979
0.993786
1
0.998261
0.997443
0.999297
0.993959
0.982058
0.994257
1
1
0.998736
0.996639
0.961385
0.979946
0.99775
0.996458
0.997746
0.985164
0.987472
0.990599
0.997377
0.990621
1
0.992216
0.99764
1
0.999127
0.99838
0.998818
0.994295
0.983181
0.995854
1
0.998041
0.999098
0.996768
0.961225
0.984474
0.996874
0.996524
0.998069
0.993161
0.976113
0.995199
0.998249
0.989487
1
0.995127
0.993252
0.997833
0.996436
0.997973
0.99931
0.993779
0.980514
0.997234
0.742298
0.9989
0.999899
0.998326
0.996084
0.960989
0.981688
0.535301
0.997113
0.997418
0.996974
0.993069
0.986286
0.992333
1
0.996003
1
0.999664
0.998211
1
0.998253
0.99804
0.998687
0.995194
0.980982
0.999143
1
0.994612
0.999019
0.999091
0.996766
0.944832
0.981792
1
0.995098
0.998426
0.9962
0.992416
0.969944
1
0.991288
0.99855
0.995384
1
0.998376
0.995747
0.999594
0.996695
1
0.994164
0.992193
0.982814
0.997789
0.99917
0.997911
0.999087
0.999103
0.996631
0.926002
0.990344
0.999722
0.997955
0.998009
0.997538
0.993856
0.954414
1
0.991017
0.998883
0.994624
1
0.998432
0.994026
0.999018
0.998252
0.997127
0.994934
0.992468
0.986549
0.998989
1
0.99934
0.995602
0.998615
0.995953
0.914037
0.987283
1
0.998195
0.998478
0.9984
0.987292
0.975988
0.995276
0.997463
0.99797
1
0.998376
0.991903
0.999966
0.998976
0.998446
0.999073
0.993331
0.991636
0.998844
1
0.999966
0.999031
0.995684
0.899244
0.989116
0.99603
0.998305
0.997028
0.994756
0.955499
0.990475
0.995984
0.995937
1
0.998656
0.996391
1
0.998257
0.998987
0.995567
0.99522
0.992073
0.996613
1
1
0.999067
0.99567
0.890576
0.986325
0.996752
0.998068
0.997156
0.987338
0.963658
0.99396
0.997071
0.995939
0.998901
0.998376
0.998415
0.99902
0.996726
1
0.988735
0.994367
0.992746
0.996243
0.993842
0.998107
0.999519
0.99682
0.879519
0.976431
0.999278
0.996842
0.998249
0.997163
0.931269
0.99849
0.99529
0.99783
0.99956
0.998376
0.995988
0.99902
0.998228
0.99436
0.99834
0.993993
0.995239
0.996861
0.998681
0.999358
0.998338
0.997944
0.879907
0.975635
0.998076
0.997949
0.996851
0.99319
0.89689
0.989431
0.996195
0.99797
0.996152
1
0.999899
0.99527
0.994442
0.999021
0.999164
0.994827
0.994916
0.993914
0.9989
0.999966
0.995288
0.998571
0.883952
0.954076
0.996482
0.997799
0.998031
0.986445
0.899041
0.994735
0.996407
1
0.99978
1
0.998382
0.997737
0.996455
1
0.99884
0.995402
0.995857
0.999612
1
1
0.997538
0.997843
0.891327
0.943555
0.995701
0.997682
0.998237
0.98521
0.87118
0.997755
0.993961
0.99734
1
0.995688
0.998045
0.996115
0.999129
0.99973
0.998905
0.994735
0.995844
0.998837
1
1
0.998019
0.998428
0.900074
0.898296
0.999158
0.997065
0.997987
0.925914
0.829871
0.996709
0.995863
0.993629
0.99967
0.996976
0.998517
0.996555
0.997416
0.99821
0.999039
0.997755
0.99765
0.997519
0.996812
0.997871
0.999054
0.998556
0.907483
0.83969
0.997385
0.997747
0.998051
0.88883
0.861213
0.997716
0.996467
0.988866
1
0.996416
0.994438
0.998953
0.996275
1
0.999741
0.998261
0.997621
0.998643
1
0.998986
0.999481
0.998354
0.912699
0.793157
0.996693
0.997202
0.998921
0.892178
0.85349
0.997755
0.996166
0.99524
1
0.995128
0.99882
0.999966
0.997387
1
0.999557
0.998549
0.996753
0.996628
1
0.99902
0.999373
0.99854
0.914523
0.780999
0.9954
0.997174
0.997938
0.916479
0.825
0.997755
0.996679
0.97242
1
0.990649
0.987292
0.999223
0.996756
1
0.999817
0.999002
0.997722
0.996279
1
1
0.996061
0.998989
0.915001
0.728463
0.99507
0.996386
0.997817
0.91708
0.77677
0.99698
1
0.93595
1
0.997928
0.98763
0.999932
0.995464
0.999021
0.998855
0.999478
0.996822
0.996627
1
1
0.989157
0.998761
0.916432
0.669791
0.993326
0.997517
0.996632
0.948225
0.69627
0.997793
0.99692
0.85636
0.996812
0.998376
0.991776
1
0.996035
0.999662
0.999557
0.999183
0.995784
1
0.996812
0.99902
0.997608
0.998405
0.910275
0.702014
0.995641
0.997509
0.997247
0.889874
0.72182
0.997058
0.997736
0.84761
1
0.999944
0.995888
1
0.989276
0.992875
0.999557
0.999409
0.995105
0.997752
0.993623
1
0.999192
0.996054
0.914182
0.723143
0.998136
0.997327
0.984472
0.707678
0.67163
0.993457
0.996619
0.84817
1
0.996752
0.998382
0.997636
0.993121
0.999899
0.999103
0.997694
0.996289
0.995969
1
0.99902
0.996404
0.968467
0.920218
0.720483
0.992425
0.990814
0.916995
0.805119
0.68101
0.996709
0.997615
0.81289
0.995491
0.998376
0.998045
0.995508
0.990809
0.999021
0.999271
0.993664
0.997064
0.993294
0.99989
1
0.995627
0.98886
0.920023
0.700714
0.995701
0.993754
0.985099
0.763191
0.70446
0.995935
0.990007
0.86602
0.99956
0.998376
0.999798
0.999223
0.998258
1
0.998859
0.992282
0.997092
0.995813
0.996371
0.999358
0.996677
0.998544
0.9161
0.710024
0.995401
0.995659
0.989521
0.78302
0.74331
0.994115
0.986414
0.90361
0.995051
0.99832
0.996056
0.997365
0.997657
0.999021
0.997619
0.98889
0.997133
1
1
1
0.99835
0.999249
0.91293
0.741249
0.995972
0.997057
0.98904
0.781952
0.70369
0.992954
0.982429
0.9552
0.99978
0.995801
0.999022
0.996082
0.999129
0.999021
0.997276
0.985033
0.996668
0.995465
1
1
0.998811
0.999593
0.90621
0.77583
0.997895
0.999419
0.986869
0.760254
0.72749
0.994154
0.991787
0.97921
0.996812
1
0.997101
0.997737
0.990328
0.998683
0.998783
0.996903
0.995586
0.993255
1
0.99902
0.999396
0.999578
0.90058
0.823711
0.99519
0.99803
0.988798
0.667754
0.71713
0.996206
0.993568
0.98355
0.99978
0.998936
0.999326
0.99902
0.996275
0.994935
0.999496
0.999397
0.996616
0.986507
0.985379
0.974349
0.999704
0.999191
0.895315
0.861133
0.996573
0.997921
0.989938
0.680973
0.69585
0.993883
0.996135
0.99811
0.994722
0.996752
0.997135
0.998885
0.999129
0.99014
0.999119
0.998964
0.99723
0.993758
0.984609
0.995133
0.999542
0.999326
0.914223
0.909852
0.998797
0.998966
0.989105
0.703372
0.713975
0.981341
0.999004
0.99314
1
0.998376
0.998416
1
0.994772
0.990073
0.999374
0.998031
0.998267
0.997751
0.990324
0.99902
0.999673
0.999775
0.924494
0.934254
0.998196
0.999406
0.992396
0.72617
0.729796
0.997329
0.996316
0.99538
0.99934
0.996753
0.997236
0.998243
0.997746
0.994024
0.999485
0.997993
0.997104
0.998876
0.99989
0.997567
0.999888
0.999195
0.927315
0.934526
0.994257
0.999649
0.992723
0.668119
0.734486
0.998877
1
0.99419
1
0.99832
0.998989
0.997061
0.997957
1
0.999332
0.999574
0.998001
1
1
0.998378
0.999688
0.999191
0.92697
0.970679
0.99137
0.999883
0.996139
0.675163
0.737286
0.997755
0.999366
0.99594
1
1
0.997135
0.998041
0.999129
1
0.99871
0.999555
0.998845
0.99779
0.99978
0.998682
0.999554
0.998548
0.913441
0.985944
0.996212
0.999629
0.994647
0.6549
0.802527
0.994773
0.999879
0.99594
1
0.999944
0.999157
0.998041
0.998738
0.999021
0.99818
0.998626
0.998906
0.997751
1
0.997702
0.999769
0.997278
0.903393
0.987122
1
0.999096
0.996127
0.735383
0.838648
0.994038
0.999124
1
1
0.995127
0.994472
0.998041
1
1
0.993926
0.997717
0.99878
1
0.996152
1
0.999888
0.997131
0.874932
0.992622
1
0.999047
0.997409
0.786791
0.863343
0.994386
1
0.99797
1
1
0.999022
0.99902
0.999459
1
0.998798
0.996251
0.99855
1
1
1
0.999785
0.995117
0.849275
0.999123
1
0.999213
0.998282
0.845643
0.83996
1
1
0.99384
0.996811
1
0.998955
1
1
0.999392
0.998367
0.984327
0.996769
0.998876
0.99956
0.99804
0.999196
0.995892
0.853644
0.99997
1
0.999653
0.998484
0.932002
0.829828
0.999264
0.999185
1
1
0.999944
0.998247
0.996116
0.999129
0.999662
0.999374
0.996799
0.996305
1
1
1
0.999354
0.99662
0.853786
1
1
0.99977
0.999038
0.983109
0.798818
1
1
1
1
0.998376
0.999225
0.998987
1
0.999054
0.996341
0.999889
0.997359
1
0.99989
0.999932
0.998885
0.997266
0.856672
0.99601
1
0.999883
0.999761
0.996028
0.798398
1
0.999124
1
1
0.998936
0.999022
0.997636
1
1
0.996242
0.999666
0.998845
0.997752
0.99901
1
0.994977
0.997657
0.906092
0.958467
0.99994
0.999883
0.99977
0.999032
0.825138
1
1
0.99797
1
0.996864
0.998315
0.998683
1
0.999797
0.999264
0.99977
0.998372
1
1
1
0.998965
0.997584
0.953259
0.810864
1
0.999649
0.999398
1
0.892969
0.998877
1
1
1
1
1
1
1
1
0.999451
0.999996
0.996995
0.999651
1
1
0.99895
0.998443
0.989559
0.673991
1
0.999883
0.999774
1
0.97578
1
0.998248
1
0.996922
0.998152
0.999629
0.99902
0.999129
0.999021
0.999264
0.99967
0.998356
0.999263
1
1
0.997415
0.999067
0.998338
0.792509
1
0.999641
0.999883
0.999032
0.994469
1
0.998822
1
1
1
0.997405
1
0.999309
1
0.999889
1
0.998651
0.953628
1
1
0.999181
0.999737
0.99906
0.906058
1
1
0.999648
0.999366
0.99671
1
0.999004
1
1
1
0.999022
0.99902
1
0.999662
0.999886
0.999666
0.999075
0.911288
1
1
0.999888
0.999903
0.999153
0.98207
1
1
0.999806
1
0.99594
0.999264
1
1
1
0.99972
0.999056
0.99804
0.99997
0.998886
0.999668
0.999889
0.998651
0.880813
0.998571
1
0.999815
0.999535
0.999858
0.992108
0.999699
0.999762
0.999531
0.999032
0.993909
1
0.998852
1
1
0.999888
1
1
0.998197
0.998041
0.99947
0.99911
0.998801
0.899656
1
1
0.999812
0.999775
0.999501
0.996583
1
0.999927
0.999842
1
0.994469
1
0.998822
0.99867
0.996921
0.996808
0.999022
0.99902
0.996394
0.99821
0.999447
0.999294
0.998998
0.929356
1
1
0.999773
0.999551
0.999595
0.99199
0.998888
0.999649
0.999576
0.999599
0.98901
0.998877
0.998581
1
0.996592
0.996696
0.998854
1
0.996124
1
0.999519
0.999359
0.998728
0.980924
1
1
0.999854
0.999288
0.999015
0.994257
1
0.999532
0.999766
0.999933
0.99181
1
0.998249
0.99594
0.99934
0.991825
0.998618
0.997467
0.989996
0.997164
0.999065
0.999033
0.998477
0.98957
1
1
0.999285
0.999179
0.998829
0.993531
1
0.999766
0.999608
1
0.98747
1
1
1
1
1
0.997472
0.997602
0.99231
0.997299
0.997619
0.996865
0.996725
0.990696
1
0.99902
0.999662
0.998459
0.99816
0.989541
1
0.999766
0.998233
0.998698
0.98243
0.998877
0.996498
0.990409
0.995492
1
0.998989
0.998244
0.990958
0.99372
0.99818
0.995905
0.995033
0.98031
0.996812
1
0.999442
0.997599
0.996575
0.992927
1
0.999766
0.99852
0.999032
0.98383
0.99911
0.99843
0.988099
0.996812
0.998376
0.998247
0.998379
0.989397
0.997907
0.998565
0.995272
0.992387
0.975116
1
1
0.999462
0.995942
0.995189
0.979838
0.999128
0.999188
0.997914
0.996462
0.94841
1
0.999124
0.97788
0.99989
0.99804
0.997809
0.995508
0.983269
0.997603
0.998543
0.99622
0.989972
0.957791
0.996812
0.998716
0.998461
0.996868
0.992846
0.962094
1
0.999649
0.995383
0.99556
0.92139
0.998142
0.995622
0.96654
0.996812
0.996136
0.994539
0.998345
0.987114
0.997366
0.998249
0.995978
0.990304
0.940218
1
1
0.998615
0.996461
0.992627
0.918257
0.998106
0.998599
0.995905
0.990019
0.887121
0.998877
0.977387
0.93784
0.997911
0.986055
0.993427
0.997264
0.99354
0.995171
0.998031
0.997456
0.993535
0.946154
1
0.99804
0.998646
0.995753
0.981309
0.892651
0.998527
0.997452
0.996172
0.985111
0.871661
0.998103
0.965582
0.890762
0.994502
0.988072
0.979068
0.995947
0.990116
0.996117
0.998214
0.997579
0.995156
0.96388
1
1
0.997827
0.996686
0.983664
0.961799
0.998437
0.997056
0.995485
0.976467
0.897579
0.976117
0.927644
0.826902
0.993182
0.988462
0.980547
0.998311
0.969093
0.986049
0.997676
0.997997
0.995313
0.920714
0.99978
0.99902
0.998153
0.996771
0.991945
0.973412
0.956487
0.994843
0.989959
0.966494
0.996573
0.795702
0.834681
0.746413
0.956344
0.94679
0.976327
0.990877
0.934357
0.845115
0.979848
0.997567
0.996365
0.867874
0.967117
0.946407
0.986174
0.997293
0.997381
0.974685
0.670857
0.957923
0.989556
0.993926
1
0.726386
0.859038
0.945122
0.872339
1
0.998988
0.991411
0.95167
0.999662
0.98223
0.992217
0.996998
0.952062
0.984713
0.999797
0.980957
0.996441
0.998181
0.978569
0.997684
0.979366
0.982456
0.997756
1
0.977076
0.981881
0.99601
1
1
0.999089
1
0.995228
1
0.989272
0.990061
0.997947
0.997748
1
1
0.990798
0.990999
0.998205
0.993972
0.61569
0.999128
0.995134
0.999568
0.999662
1
0.988653
0.998248
1
1
1
1
1
1
1
0.998892
0.999775
0.999838
0.999009
1
1
1
0.994618
0.997048
0.999867
1
0.995691
1
0.999883
0.999882
1
1
1
1
1
1
1
1
1
1
1
0.999889
1
1
1
1
1
1
1
1
1
1
1
1
1
1
1
1
1
1
1
1
1
1
1
1
1
1
1
1
1
1
1
1
1
1
1
1
1
1
1
1
1
1
1
1
1
1
1
1
1
1
1
1
1
1
1
1
1
1
1
1
1
1
1
1
1
1
1
1
1
1
1
1
1
1
1
1
1
1
1
1
1
1
1
1
1
1
1
1
1
1
1
1
1
1
1
1
1
1
1
1
1
1
1
1
1
1
1
1
1
1
1
1
1
1
1
1
1
1
1
1
1
1
1
1
1
1
1
1
1
1
1
1
1
1
1
1
1
1
1
1
1
1
1
1
1
1
1
1
1
1
1
1
1
1
1
1
1
1
1
1
1
1
1
1
1
1
1
1
1
1
1
1
1
1
1
1
1
1
1
1
1
1
1
1
1
1
1
1
1
1
1
1
1
1
1
1
1
1
1
1
1
1
1
1
1
1
1
1
1
1
1
1
1
1
1
1
1
1
1
1
1
1
1
1
1
1
1
1
1
1
1
1
1
1
1
1
1
1
1
1
1
1
1
1
1
1
1
1
1
1
1
1
1
1
1
1
1
1
1
1
1
1
1
0.42806
0.467364
0.455258
0.425452
0.508529
0.430857
0.446772
0.497301
0.409666
0.425069
0.443932
0.437442
0.444691
0.440443
0.461724
0.431502
0.518553
0.472682
0.435203
0.467534
0.433458
0.419089
0.449188
0.488391
0.506043
0.506992
0.440175
0.482935
0.442551
0.43523
0.425225
0.444021
0.527149
0.471971
0.482682
0.496798
0.439783
0.42888
0.475936
0.437519
0.54343
0.538594
0.555099
0.589859
0.564649
0.602456
0.522692
0.492322
0.49394
0.435758
0.44634
0.460746
0.527752
0.443044
0.467393
0.48132
0.41934
0.441614
0.428321
0.450786
0.560115
0.453763
0.521954
0.623799
0.5699
0.551426
0.528972
0.498468
0.451581
0.469664
0.435322
0.425773
0.446068
0.417706
0.433126
0.504811
0.517657
0.539114
0.578623
0.448899
0.578534
0.459603
0.450838
0.577503
0.472036
0.57338
0.492796
0.464127
0.428687
0.458961
0.477968
0.494517
0.488148
0.442888
0.608564
0.498644
0.858995
0.985293
0.790225
0.850601
0.796271
0.944421
0.956866
0.895747
0.823997
0.826937
0.843977
0.763525
0.714028
0.695761
0.857526
0.834754
0.97475
0.869347
0.873211
0.894099
0.986573
0.971538
0.946992
0.827035
0.71394
0.888773
0.757096
0.751249
0.797403
0.684748
0.796655
0.690296
0.905533
0.8835
0.817928
0.841918
0.964655
0.887357
0.913274
0.745165
0.748596
0.783915
0.858634
0.823642
0.827576
0.85467
0.848643
0.835691
0.895582
0.825133
0.890404
0.977047
0.987164
0.970281
0.774563
0.926577
0.834049
0.754186
0.817783
0.87879
0.80296
0.970335
0.964355
0.737745
0.732493
0.752612
0.806427
0.949105
0.770089
0.899361
0.933174
0.82399
0.974743
0.840651
0.819231
0.954123
0.868182
0.934059
0.841946
0.796043
0.646243
0.601292
0.67528
0.680286
0.998081
0.997073
0.993783
0.994146
0.997352
0.99685
0.99176
0.99734
0.994818
0.995618
0.999891
0.999143
0.998903
0.997485
0.994143
0.998148
0.998027
0.994356
0.994311
0.992858
0.996889
0.995336
0.995852
0.996371
0.998038
0.977605
0.991685
0.997734
0.998412
0.998178
0.991141
0.990661
0.993647
0.999264
0.998178
0.995222
1
0.996199
0.996927
0.991828
0.996889
0.98494
0.994722
1
0.996776
0.997606
0.99685
0.997428
0.997806
0.995497
0.978229
0.983875
0.996414
0.97921
0.996292
0.998025
0.992003
0.993847
0.989086
0.995437
0.996668
0.985809
0.992746
0.989638
0.967199
0.979952
0.986389
0.986462
0.98954
0.987886
0.984123
0.990326
0.995079
0.995386
0.996893
0.994424
0.998578
1
0.975763
0.981681
1
0.995218
1
0.996032
0.992474
0.995484
0.998906
0.994024
0.997065
0.997915
0.993215
0.996534
0.998382
0.997279
0.998902
0.997256
0.996645
1
0.997984
0.995998
0.997223
0.994185
0.998033
0.998823
0.999665
0.994134
0.992803
0.99781
1
0.995655
0.990066
1
0.997423
0.998988
0.995274
0.994177
0.995955
0.997778
0.999344
1
0.996684
0.998902
0.999126
0.99416
0.996824
0.988478
0.992363
1
1
0.998888
0.998024
0.998221
0.998727
0.999891
0.970107
0.981024
0.996814
0.971238
0.996683
0.994785
0.998712
0.99549
0.994688
0.9971
0.995265
0.989517
0.991839
0.984383
0.975828
0.986958
0.990794
0.983298
0.986349
0.976891
0.982118
0.988071
0.994348
0.995095
1
0.997837
0.997951
1
0.996272
1
0.99741
0.998493
1
0.997974
0.99422
0.997979
1
0.996251
0.999123
1
0.996635
0.999122
1
0.997758
1
0.999304
0.996633
0.99798
1
0.994641
1
0.992707
0.997354
0.99553
0.998264
0.995929
0.993183
0.996979
0.996742
0.999048
0.995558
0.999128
0.998425
0.998087
0.992905
0.997974
0.995945
0.997333
0.996154
0.999305
0.996673
1
1
0.996156
0.988989
0.991794
0.997504
0.995843
0.999123
0.996636
1
0.998214
0.998916
0.987127
0.968422
0.983211
0.99683
0.975737
0.991567
1
0.996914
0.993256
0.996193
0.996425
0.997398
0.996401
0.992346
0.985643
0.983143
0.98706
0.99492
0.98523
0.986031
0.984498
0.978778
0.998112
0.981462
0.994481
1
0.997445
0.995591
0.996817
0.997096
1
0.998822
0.992018
1
0.985641
0.994633
0.996445
0.994283
0.994776
0.998244
0.99934
0.996633
0.996275
0.998061
0.997096
1
0.999121
0.994731
1
1
1
0.998816
0.997394
0.9944
0.999057
0.994735
0.996255
0.995143
0.999349
1
0.997583
0.993607
1
0.999944
0.994574
0.997655
0.994456
1
0.998878
0.996811
1
1
1
0.997668
0.994792
0.993828
0.99884
0.993133
0.967282
1
0.997483
1
0.996213
0.997793
0.996916
0.974072
0.986202
0.966754
0.974829
1
1
0.995814
1
0.996308
0.996301
0.998053
0.988412
0.991645
0.990668
0.993537
0.993772
0.996733
0.985178
0.988574
0.996041
0.978839
0.994193
0.993633
0.99698
0.996817
0.994657
0.998187
1
0.995696
1
0.997432
0.995888
1
0.993899
0.997979
0.997351
1
1
0.998819
0.996811
0.997716
0.999122
0.997363
0.99438
1
0.998818
0.997985
0.999302
0.996233
0.999303
0.995681
0.995655
0.99997
0.998144
0.996023
0.996194
0.997407
0.996808
0.997318
0.995219
0.99707
0.999124
0.99945
0.996526
0.997089
0.995047
0.994757
0.9988
0.998021
0.998879
0.9964
0.99989
0.999122
0.97592
0.997379
0.868314
0.996927
0.999583
0.995205
0.996121
0.511185
0.560811
0.397759
1
0.988093
0.997692
0.951361
0.997728
0.996553
1
0.998424
0.996902
0.883922
0.965756
0.97606
0.989984
0.995674
0.958452
0.998661
0.397041
0.746753
0.489036
0.995926
0.93662
0.998908
0.973938
1
0.997977
0.998416
0.99595
0.994672
0.99588
0.999043
0.995106
0.993218
0.975256
0.994459
0.989275
0.997922
0.98368
0.990756
0.989272
0.987334
0.990554
0.997131
0.998912
1
0.993417
0.997401
0.993634
0.993945
1
0.999517
0.998835
0.999671
0.997968
0.998606
0.998118
1
0.998877
0.998243
0.996812
0.997368
0.998789
0.998545
0.999613
1
0.997364
0.994386
1
0.999165
0.997144
1
0.99065
0.996185
0.99583
0.997199
0.995115
0.999136
0.996026
1
1
0.997131
0.996513
0.996659
0.995451
0.998073
0.998615
1
0.998155
1
1
1
1
1
0.998181
1
0.998243
0.996632
0.997801
0.999122
0.999118
0.994218
0.998041
0.997728
0.999069
0.996597
0.9989
1
1
1
0.999178
1
1
1
0.992212
0.997173
0.996811
0.995
0.998102
0.999369
0.967937
0.999033
0.986676
0.996356
0.949853
0.998314
1
1
1
0.999475
1
0.999179
1
1
1
0.994555
0.999437
0.997366
0.997113
0.999043
0.999381
0.995822
0.984943
0.990666
0.986529
0.990899
0.981076
0.983478
0.985939
1
0.973872
1
1
1
1
0.995802
0.992093
0.996254
1
0.995586
0.996495
0.998903
0.995886
0.99989
0.996648
0.994802
0.998354
0.997276
0.99993
0.997281
0.996812
0.994774
0.997698
1
0.995123
0.995851
0.999485
0.998916
1
0.997333
0.997367
1
1
1
1
0.996254
0.997377
0.997948
0.996695
0.992867
0.995708
0.995863
0.993915
0.998383
0.997052
0.998165
0.995519
0.996667
0.99584
0.995668
1
0.998621
1
1
1
1
1
1
0.997911
1
0.995897
0.996811
0.999697
0.998991
0.997991
0.999079
1
1
0.997073
0.998505
1
1
1
1
1
1
1
0.996515
0.996708
0.997251
0.999
0.999574
0.998097
0.939012
0.996322
0.987247
0.998118
0.946274
0.999133
0.999029
1
0.999148
1
1
1
1
0.997209
1
0.998713
0.998369
0.99676
0.997353
0.998713
0.996737
0.992643
0.968585
0.994161
0.98757
0.991745
0.974436
0.991227
0.983412
0.999165
0.970318
1
1
1
1
0.994333
0.995452
0.996193
1
0.995857
0.995921
0.993745
0.999922
1
0.999426
0.998875
1
0.994059
0.994632
0.993657
0.993623
0.997097
0.998062
0.996811
0.998761
0.996578
1
0.995119
0.996922
0.999091
1
1
1
1
1
0.997692
0.99997
0.993518
0.996807
0.995655
0.996543
0.997004
0.99808
0.996872
0.996595
0.999126
0.994986
0.993362
0.99422
0.999289
0.993836
0.996632
1
0.999152
0.997755
0.996811
0.999091
0.99877
0.997471
0.999534
0.997077
0.998114
0.994833
0.997057
1
1
1
1
1
1
1
0.999
0.99605
0.99879
0.999758
0.998025
0.99645
0.94105
0.996845
0.992431
0.997841
0.946098
0.997139
1
1
1
1
1
1
1
0.999302
1
0.998383
0.995106
0.991855
0.998346
0.996172
0.99505
0.997366
0.984058
0.990378
0.986989
0.992779
0.974789
0.986071
0.987574
0.958103
0.990344
0.992164
0.997371
0.99989
0.993147
0.998248
1
0.99612
1
0.997644
0.997556
0.99989
0.993906
0.995469
0.997909
1
1
0.999425
0.996811
0.996904
0.99894
0.998243
0.998877
0.996812
0.996486
0.998838
0.996303
1
1
0.99596
0.994607
0.997348
0.994334
0.996976
0.995895
0.997408
0.997591
0.999439
0.99814
0.997299
0.999098
0.995675
0.994246
0.99824
1
1
0.99551
1
1
0.99582
1
0.995366
0.995404
0.999854
1
0.997329
1
0.998273
0.998761
1
1
1
0.995042
0.934773
0.983794
0.991067
0.940103
0.997837
0.999581
0.998878
0.991844
0.995792
0.995279
0.996569
0.9946
0.997608
0.96294
0.992103
0.981056
0.985069
0.968794
0.994887
0.982945
0.966574
0.992794
0.993773
0.997221
1
0.996322
0.998459
0.996817
0.998876
1
0.999517
0.995969
1
0.995868
1
0.997839
1
0.998684
0.997365
0.996811
0.996982
0.999758
1
0.997948
1
0.998819
0.996671
0.998397
0.996654
1
1
0.997603
0.997229
0.997168
0.993224
0.998233
0.998182
0.991148
0.996462
0.998087
0.997186
0.995465
0.993654
0.998419
0.996675
1
0.997976
0.999613
1
1
0.997058
1
1
0.997663
1
0.997017
0.997066
0.993627
0.999121
0.999303
1
1
1
0.991395
0.937735
0.988757
0.993742
0.932158
0.999163
0.997977
0.99812
0.991563
0.994218
0.997023
0.996306
0.996906
0.993159
0.971261
0.99483
0.992376
0.993559
0.952881
0.991884
0.976619
0.954185
0.992514
0.99958
0.995952
0.994732
0.998877
0.996225
0.998902
1
0.997805
0.994988
0.999961
0.996159
0.99594
0.99777
0.997979
0.997911
0.999961
1
0.996811
1
0.998244
0.998546
0.997794
0.99912
0.997547
0.998529
1
0.998536
1
0.99798
0.992571
0.999434
0.993687
1
0.998562
0.998123
0.998438
0.996742
0.991534
0.999002
0.995134
0.992921
0.995223
0.99507
0.997974
0.996364
0.999961
1
0.999122
1
0.996811
0.998213
0.99625
1
0.997753
0.994343
0.990538
0.99997
0.997715
0.99989
0.999424
0.997522
0.992308
0.895274
0.980173
0.996593
0.867802
1
0.998675
0.998714
0.991788
0.995096
0.997955
0.998615
0.996738
0.994097
0.947875
0.994042
0.983562
0.992357
0.915806
0.992035
0.980959
0.911903
0.996782
1
0.997251
0.996817
0.996399
0.999819
1
1
1
0.996799
1
0.996817
0.99839
0.995261
0.998746
1
0.998878
0.999122
1
0.996634
0.993884
0.99579
0.998877
1
0.996789
0.997755
0.99993
1
0.998189
0.99596
0.995956
0.998183
0.997592
0.998432
0.997604
0.997378
0.999056
0.998146
0.997595
0.997187
0.994172
0.995954
0.992125
0.996914
0.997552
1
0.998374
1
0.999152
0.998142
0.996811
0.998365
0.994614
0.99791
0.99779
0.995552
1
0.998606
0.999342
1
1
1
0.995603
0.852399
0.958521
0.996922
0.855786
0.995745
0.999651
0.996142
0.991507
0.988891
0.995791
0.996175
0.98937
0.997003
0.915206
0.988599
0.983442
0.991988
0.891008
0.994071
0.98118
0.890711
0.987127
0.997481
0.996195
1
0.995044
0.996799
0.993634
0.998683
1
0.996739
0.99938
0.997476
0.99797
1
0.998049
1
0.997369
0.994731
0.99989
0.997021
0.994489
0.995305
0.999071
0.997581
0.997668
0.996594
0.991216
0.99993
1
0.99798
0.997394
1
0.999056
0.998376
0.996825
0.997974
0.997169
0.99837
0.997166
0.991891
0.994382
0.999045
0.996606
0.99646
0.99958
0.997971
0.99911
0.996811
0.999001
0.998065
0.994722
0.999758
0.999092
0.993619
0.997751
0.995128
1
0.998243
1
0.995602
0.999334
0.997173
0.980547
0.841571
0.943886
0.985053
0.788522
0.997977
0.997628
0.998813
0.983127
0.991524
0.997414
0.996637
0.98847
0.991676
0.869101
0.993463
0.968011
0.986111
0.8284
0.991791
0.969763
0.868094
0.993843
0.997971
0.998007
0.996817
0.9988
0.995742
1
0.997444
0.997476
0.99384
0.994345
1
0.9993
0.998049
0.9977
1
1
0.998849
0.996811
0.998878
0.998516
0.996002
0.998877
0.997141
0.996638
0.998839
0.997699
0.993307
0.99798
0.999303
0.994998
0.999434
0.996258
0.99944
0.992991
0.999136
0.999902
0.99837
0.997463
1
0.996125
0.99837
0.999011
0.997398
1
1
0.998645
0.9989
0.999122
0.99702
0.997471
0.999122
0.995431
0.9967
0.995891
0.996883
0.992519
0.999424
0.997754
0.99934
1
1
0.989449
0.760769
0.917252
0.990988
0.752908
0.997838
0.996024
0.999044
0.981383
0.99325
0.996031
0.993966
0.991395
0.994582
0.788383
0.990119
0.956765
0.975127
0.755955
0.965825
0.938906
0.839883
0.997971
0.995383
0.998158
0.996817
0.994851
0.997584
1
0.994306
1
0.997735
0.993764
0.993635
0.987888
0.992543
0.994703
1
1
0.99679
0.996811
0.995512
0.999122
0.999122
0.997755
1
0.997365
0.998142
0.99261
0.997142
0.997701
1
0.99368
0.99994
0.999675
0.996528
0.989936
0.997557
0.995607
0.99955
0.999044
0.995401
0.995644
0.995111
0.998978
0.999697
0.997971
0.997971
0.997175
1
0.999697
0.998839
0.996811
0.998577
0.994765
0.99681
0.998953
0.994553
0.99791
0.999121
0.998877
1
1
1
0.973404
0.711365
0.878947
0.96604
0.699517
1
1
0.996472
0.994713
0.990132
0.998076
0.99512
0.989876
0.989951
0.711081
0.973244
0.938737
0.904045
0.673773
0.966768
0.927264
0.845344
0.990345
0.994193
0.995862
0.993634
0.998103
0.996195
0.996817
0.997211
0.999122
0.997373
0.992912
0.996817
0.988308
0.997909
0.997979
1
0.998181
0.995579
1
0.997717
0.997971
0.99576
0.997406
0.998681
0.999182
0.995897
0.993934
1
0.99596
0.998677
0.987182
0.9972
0.997105
0.999944
0.993229
1
0.998438
1
0.998056
0.998245
0.998107
0.996404
1
0.996551
0.99993
0.996013
0.993653
1
0.998819
0.997368
1
0.996487
0.9954
0.993619
0.998876
0.995794
0.99681
0.999122
0.998877
0.99868
0.996849
0.997754
0.935704
0.718286
0.816472
0.942195
0.736072
1
0.995745
0.995549
0.987344
0.988287
0.99573
0.998582
0.99027
0.993219
0.660382
0.972238
0.902211
0.887776
0.662851
0.971453
0.906087
0.86315
1
0.996082
0.99855
1
0.998916
0.998248
1
0.996049
1
0.993931
0.994385
0.99989
0.99468
0.996097
0.996306
1
0.996712
0.996821
0.996811
0.99791
0.996729
1
0.998878
1
0.999121
0.999574
0.995957
0.996653
0.998398
0.991084
0.993561
0.99723
0.997788
0.997312
0.993919
0.999672
0.998308
0.996066
0.996145
0.993071
0.998588
1
0.995518
0.999123
0.997761
0.994754
0.997794
1
0.999122
0.999961
1
0.99894
0.991102
0.996809
0.996395
0.992133
0.99351
0.999122
0.999109
0.99879
0.997697
0.998877
0.959883
0.707413
0.791532
0.96791
0.717484
0.999163
0.99993
0.994989
0.990383
0.990193
0.994768
0.996108
0.994938
0.990646
0.621246
0.947288
0.872635
0.908303
0.628745
0.906946
0.842916
0.832433
0.982581
0.986637
0.999154
1
0.997754
0.999124
0.996817
0.995895
0.997037
0.995409
0.997172
0.997695
0.991177
0.996307
0.990311
1
0.998104
0.995308
1
0.995666
0.996608
0.997941
0.996904
1
0.998546
0.997755
0.994215
0.995956
0.997562
0.99791
0.996017
0.999136
0.999057
0.998656
0.986998
0.993386
0.998763
0.996741
0.996508
0.996309
0.997506
0.993986
1
0.99879
0.997972
0.998251
1
1
0.997396
0.997716
1
0.998425
0.990954
1
0.997247
0.991283
1
1
0.998877
1
0.998243
0.999613
0.960662
0.741492
0.773577
0.965375
0.729632
1
1
0.998352
0.993419
0.987046
0.993535
0.99624
0.980991
0.990918
0.616945
0.895943
0.800929
0.912711
0.575656
0.862913
0.726587
0.808135
0.985449
0.986567
0.999124
1
0.997754
0.997372
1
0.99574
0.995062
0.996497
0.992833
1
0.974441
0.99554
0.995818
0.996811
0.997756
0.995882
0.993622
0.996092
0.998244
1
0.996633
1
1
1
0.997979
0.999303
1
0.998677
0.983976
0.998957
0.999057
0.998376
0.991223
0.997586
0.998113
0.993089
0.99776
0.997035
0.992578
0.990052
0.996836
0.998578
0.995943
1
0.997755
1
0.997699
0.998878
1
0.99794
0.99407
0.99362
0.999612
0.99661
0.99934
0.998243
0.999264
0.996701
0.998273
0.998877
0.945827
0.699917
0.682439
0.909975
0.605058
0.997977
1
0.99489
0.983692
0.993342
0.997083
0.992711
0.987568
0.993521
0.573452
0.825143
0.734873
0.931745
0.587433
0.800543
0.732126
0.728447
0.984541
0.981737
0.998671
1
0.997367
0.995922
0.996927
0.994385
1
0.994775
0.977338
0.996817
0.908899
0.989269
0.999442
1
0.994777
0.998819
0.993621
0.997755
0.998546
0.996608
0.998877
1
0.999
0.997755
0.995747
0.994005
0.993244
0.99798
0.99401
0.997409
0.998276
0.998376
0.992241
0.998272
0.999349
0.991515
0.995387
0.996037
0.994892
0.990727
0.995518
0.997367
0.996013
0.997341
0.998878
1
0.999697
0.996787
1
0.998546
0.98832
0.977888
0.997752
0.988651
0.969964
1
1
1
0.995788
1
0.861547
0.610186
0.66735
0.850068
0.649087
1
1
0.99334
0.992689
0.990164
0.997775
0.995449
0.987738
0.985529
0.587329
0.790549
0.727245
0.939125
0.568669
0.795039
0.739644
0.699808
0.988527
0.988666
0.999124
0.99989
0.996167
0.997372
0.996817
0.942836
0.993744
0.994081
0.961342
0.993635
0.864223
0.997979
0.999164
1
0.998491
0.998819
1
0.994543
0.99894
0.999122
1
1
1
0.99551
0.999233
1
0.998816
0.999861
0.99395
0.9972
0.998081
0.998432
0.994069
0.997348
0.994793
0.988762
0.998089
0.997913
0.994742
0.991626
0.99967
0.998578
0.997971
0.997971
0.993847
1
0.998092
0.997677
1
0.998273
0.983207
0.971508
0.998876
0.964168
0.953351
0.998061
0.999264
1
1
0.995121
0.813638
0.669994
0.720902
0.840175
0.640451
0.995955
0.99993
0.992978
0.991283
0.990345
0.993445
0.999472
0.999325
0.990495
0.579308
0.759025
0.701874
0.818844
0.557654
0.730874
0.687641
0.716333
0.982999
0.980272
0.997373
0.993853
0.99547
0.999124
1
0.946675
0.998464
0.996829
0.98555
0.9955
0.860022
1
1
1
1
0.997548
1
0.997794
0.999879
0.999091
0.997019
0.998131
0.996153
0.999961
0.991564
0.994144
1
1
0.997125
1
0.995771
0.996752
0.996705
0.997527
0.99655
0.990278
0.999045
0.999123
0.990446
0.990223
0.997133
0.99649
0.995942
0.997971
0.9988
0.996811
0.997365
0.999187
1
0.998304
0.96487
0.931465
0.99624
0.966105
0.89702
0.999424
0.997987
1
0.999121
0.998877
0.814297
0.61607
0.707234
0.771255
0.633404
0.997978
0.996512
0.995153
0.99567
0.988802
0.995129
0.994261
0.996118
0.989283
0.532734
0.69704