/*--------------------------------*- C++ -*----------------------------------*\
| =========                 |                                                 |
| \\      /  F ield         | OpenFOAM: The Open Source CFD Toolbox           |
|  \\    /   O peration     | Version:  5.x                                   |
|   \\  /    A nd           | Web:      www.OpenFOAM.org                      |
|    \\/     M anipulation  |                                                 |
\*---------------------------------------------------------------------------*/
FoamFile
{
    version     2.0;
    format      ascii;
    class       volScalarField;
    location    "1.05";
    object      voidfraction;
}
// * * * * * * * * * * * * * * * * * * * * * * * * * * * * * * * * * * * * * //

dimensions      [0 0 0 0 0 0 0];

internalField   nonuniform List<scalar> 
10571
(
0.885327
0.974628
0.840774
0.836255
0.442377
0.879271
0.910454
0.911937
0.656437
0.486932
0.969758
0.825926
0.721301
0.609205
0.850336
0.669896
0.673624
0.779491
0.689536
0.485057
0.45034
0.53727
0.44715
0.468424
0.45641
0.582137
0.486634
0.661189
0.99972
0.775374
0.683192
0.697188
0.82874
0.760606
0.708646
0.469078
0.534375
0.607372
0.718511
0.844702
0.678792
0.676288
0.842223
0.669312
0.605265
0.577888
0.443751
0.428327
0.5287
0.590961
0.741353
0.463347
0.999141
0.552385
0.760782
0.856232
0.973285
0.938099
0.573434
0.969206
0.788857
0.831039
0.903878
0.882155
0.935806
0.919677
0.754821
0.899391
0.754051
0.950109
0.679257
0.429993
0.58464
1
1
0.854277
0.987194
0.988764
0.886063
0.970626
0.998235
0.90866
0.943293
0.962391
0.874371
0.945521
0.949804
0.817364
0.968589
0.977475
0.868947
0.953395
0.798368
0.962164
0.816731
0.480659
0.541146
1
1
0.921764
0.952764
0.994531
0.953448
0.992516
0.999036
0.816408
0.981528
0.88994
0.877755
0.988065
0.987015
0.708271
0.972284
0.943282
0.942837
0.962288
0.706206
0.959154
0.856496
0.480173
0.654336
1
1
0.965802
0.91504
1
0.99651
0.992263
0.969985
0.778297
0.40828
0.973389
0.998613
0.972966
0.991432
0.994259
0.820412
0.408219
0.977717
0.950729
0.953638
0.957199
0.57859
0.973128
0.909666
0.663124
0.798387
1
0.998346
0.970739
0.94139
1
0.997447
0.967747
0.913238
0.916338
0.664662
0.962171
1
0.996392
0.99668
0.981274
0.941713
0.506262
0.972812
0.991436
0.983367
0.969934
0.703893
0.402102
0.970611
0.955031
0.702771
0.94328
1
0.996186
0.978027
0.988523
1
0.995726
0.939663
0.979812
0.990012
0.981945
0.973938
0.999662
0.99742
0.990818
0.974258
0.966637
0.995995
0.976601
0.995779
0.992912
0.993313
0.721756
1
0.978278
0.952047
0.6694
0.98417
0.997311
0.988896
0.992483
0.999397
0.999088
0.990445
0.984497
0.99586
0.989091
0.998862
0.976247
0.997497
0.997819
0.990419
0.977591
0.984901
1
0.989203
0.994548
0.989487
0.985695
0.721301
0.974289
0.963757
0.841749
0.992524
0.995183
0.985931
0.999053
0.998314
1
0.992018
0.99519
0.998792
0.993343
0.949197
0.99381
0.993207
0.978507
0.990719
0.996776
0.983279
0.990301
0.960973
0.915597
0.990347
0.98215
0.973304
0.969245
0.993733
0.983087
0.976123
1
0.998257
0.944668
0.989008
0.998995
0.999413
0.998988
0.953048
0.99415
0.984412
0.985594
0.998268
0.997695
0.983281
0.985065
0.9852
0.995857
1
0.975802
0.991304
0.994609
1
0.988352
0.998382
0.998986
1
0.986422
0.996805
0.999293
0.999532
0.998838
0.990544
0.986274
0.993611
0.997594
0.999765
1
0.992543
0.992031
0.997126
0.999032
0.997972
0.984165
0.994957
0.99797
0.996811
0.998376
1
1
0.998288
0.997062
0.99879
0.999482
0.999265
0.998488
1
0.996248
0.997711
0.999466
0.999882
0.997068
0.988966
0.998268
0.999466
1
0.9993
0.995509
0.998249
0.99797
1
0.998936
1
0.998074
0.998468
1
0.999668
0.999777
0.999322
0.99779
1
0.996721
0.999777
0.999981
0.999145
0.999486
0.99994
0.99918
0.999648
1
1
1
0.999124
0.99797
1
1
1
1
0.998258
1
0.999889
0.999666
0.999883
0.997015
1
1
0.999442
0.999911
0.999882
0.998791
0.999128
0.999883
0.999648
1
1
1
1
0.995939
1
1
1
0.999054
0.999129
1
0.999557
0.999444
0.999572
0.996976
1
0.999797
0.999888
0.999977
0.999672
0.998428
0.999158
0.999952
0.999531
1
0.99811
1
1
1
1
1
1
0.999088
0.999129
1
0.999779
0.999332
0.999649
0.998449
1
1
0.999888
0.999775
0.999765
0.998246
1
0.999774
0.999414
1
1
0.998297
1
1
0.996922
1
1
1
0.999099
1
1
0.99944
0.999923
0.999612
1
1
0.999888
0.999775
0.999805
0.999123
0.999128
0.99979
0.999648
0.999032
0.99797
0.998877
0.99997
1
1
1
1
0.99902
0.999129
1
1
0.999777
0.999414
0.996395
1
1
1
0.999888
0.999724
0.999819
1
1
0.999531
0.999967
0.99804
0.998877
0.999819
1
1
1
1
1
0.999129
1
0.999889
0.999889
0.999883
0.999225
1
1
1
1
1
0.999123
1
0.999766
0.999689
1
0.9993
1
1
0.99601
1
1
1
1
0.999429
1
0.999779
1
0.999774
0.998798
1
1
0.999762
1
1
0.999154
1
1
0.999725
1
1
1
1
1
1
0.998376
1
1
1
1
1
0.999555
0.999649
1
1
1
0.999962
0.999864
0.999765
0.998247
1
1
0.999883
1
1
0.998877
1
1
1
1
1
1
1
1
0.999889
0.999889
0.999649
1
1
1
0.999927
0.999686
0.999647
1
1
0.999766
0.999883
1
1
0.999613
0.999124
1
1
1
1
1
0.999129
1
1
0.999889
0.999532
0.997752
1
1
0.999996
0.999926
0.99953
1
0.999158
0.999883
0.999766
1
1
1
0.999124
1
1
0.998432
1
1
1
1
0.999889
1
0.99979
0.998876
1
1
0.999892
0.999961
0.999647
0.999123
1
0.999992
1
1
1
1
1
1
1
1
0.999022
0.99902
1
1
0.999668
0.999889
0.999483
1
1
1
1
1
1
0.999123
1
0.99977
1
0.9998
1
1
1
1
1
1
1
1
1
1
1
1
0.999984
0.999535
1
1
1
1
0.999923
1
1
0.99979
1
0.999032
1
1
1
1
1
1
1
1
1
0.999966
0.999889
1
0.999758
0.999264
1
1
1
0.999775
0.999607
0.999456
1
0.999742
1
1
1
1
0.99997
1
1
0.998376
1
1
1
1
0.999889
1
1
0.999574
1
1
0.999888
1
0.999923
1
0.999519
0.999883
1
0.999032
0.99797
1
1
0.99944
1
1
1
1
1
1
1
1
0.999879
0.998876
1
1
1
1
1
0.999305
1
1
1
1
1
0.998955
1
0.99797
1
1
1
1
1
1
1
1
0.999653
0.999263
1
1
0.999888
1
1
1
1
1
1
1
1
0.998877
1
1
1
1
1
1
1
0.999021
1
1
1
1
0.99868
1
1
0.999888
1
0.99997
1
1
1
1
0.99797
1
0.999124
1
1
1
1
1
1
1
1
1
0.999883
1
1
0.99902
1
0.999888
1
0.999123
1
1
0.999766
1
1
1
0.998249
1
1
1
1
1
1
1
1
1
0.999883
1
1
1
0.999888
1
1
1
1
0.999766
0.999883
0.999032
1
1
1
0.99804
1
1
1
1
1
1
1
1
1
1
1
0.99902
1
0.999888
1
1
1
1
1
1
1
1
1
0.9993
1
1
1
1
1
1
1
1
1
0.998876
1
1
1
1
0.999765
1
1
0.999883
1
1
1
1
1
1
1
1
1
1
1
1
1
1
1
1
1
1
1
0.999888
1
1
1
1
1
1
1
1
1
1
1
1
1
1
1
1
1
1
1
1
1
1
0.999888
1
1
0.999153
1
1
0.999883
0.999032
0.99867
1
1
0.99804
1
1
1
1
1
1
1
1
1
1
1
1
0.999888
1
1
0.999123
1
1
1
1
1
1
0.999124
1
1
1
1
1
1
1
1
1
1
1
1
1
0.999888
1
1
1
1
1
0.999956
1
1
1
1
0.99636
1
1
1
1
1
1
1
1
1
1
1
1
1
1
1
1
1
0.999996
0.999883
1
1
0.998877
1
1
1
1
1
1
1
1
1
1
1
1
1
1
1
1
1
1
1
1
1
1
1
1
1
1
1
1
1
1
1
1
1
1
1
1
1
1
1
1
1
1
1
1
0.999883
1
1
1
1
1
1
1
1
1
1
1
1
1
1
1
1
1
1
1
1
1
1
1
1
1
1
1
1
1
1
1
1
1
1
1
1
1
1
1
1
1
1
1
1
1
1
1
1
1
1
1
1
1
1
1
1
1
1
1
1
1
1
1
1
0.99902
1
1
1
1
1
1
0.999883
1
1
1
1
1
1
1
1
1
1
1
1
1
1
1
1
1
1
1
1
1
1
0.999883
1
1
1
1
1
1
1
1
1
1
1
1
1
1
1
1
1
1
1
1
1
1
1
1
1
1
1
1
1
0.99797
1
1
1
1
1
1
1
1
1
1
1
1
1
1
1
1
1
1
0.999883
1
1
1
1
1
1
1
1
1
1
1
1
1
1
1
1
1
1
1
1
1
1
1
1
1
1
1
1
1
1
1
1
1
1
1
1
1
1
1
1
1
1
1
1
1
1
0.999883
0.999883
1
1
1
1
0.99797
1
1
1
1
1
1
1
1
1
1
1
1
1
1
1
1
1
1
1
1
1
1
1
1
1
1
1
1
1
1
1
1
1
1
1
0.99902
1
1
1
1
1
1
1
1
1
1
1
1
1
1
1
1
1
1
1
1
1
1
1
1
1
1
1
1
0.999128
1
1
1
1
1
1
1
1
1
1
1
1
1
1
1
1
1
1
1
1
1
1
1
1
0.999883
1
1
1
1
1
1
1
1
1
1
1
1
1
1
1
1
1
1
1
1
1
1
1
1
1
1
1
1
1
1
1
1
1
1
1
1
1
1
1
1
1
1
1
1
1
1
1
1
1
1
1
1
1
1
1
1
1
1
1
1
1
1
1
1
1
1
1
1
1
1
1
1
1
1
1
1
1
1
1
1
1
1
1
1
1
1
1
1
1
1
1
1
1
1
1
1
1
1
1
1
1
1
1
1
1
1
1
1
1
1
1
1
1
1
1
1
1
1
1
1
1
1
1
1
1
1
1
1
1
1
1
1
1
1
1
1
1
1
1
1
1
1
1
1
1
1
1
1
1
1
1
1
1
1
1
1
1
1
1
1
1
1
1
1
1
1
1
1
1
1
1
1
1
1
1
1
1
1
1
1
1
1
1
1
1
1
1
1
1
1
1
1
1
1
1
1
1
1
1
1
1
1
1
1
1
1
1
1
1
1
1
1
1
1
1
1
1
1
1
1
1
1
1
1
1
1
1
1
1
1
1
1
1
1
1
1
1
1
1
1
1
1
1
1
1
1
1
1
1
1
1
1
1
1
1
1
1
1
1
1
1
1
1
1
1
1
1
1
1
1
1
1
1
1
1
1
1
1
1
1
1
1
1
1
1
1
1
1
1
1
1
1
1
1
1
1
1
1
1
1
1
1
1
1
1
1
1
1
1
1
1
1
1
1
1
1
1
1
1
1
1
1
1
1
1
1
1
1
1
1
1
1
1
1
1
1
1
1
1
1
1
1
1
1
1
1
1
1
1
1
1
1
1
1
1
1
1
1
1
1
1
1
1
1
1
1
1
1
1
1
1
1
1
1
1
1
1
1
1
1
1
1
1
1
1
1
1
1
1
1
1
1
1
1
1
1
1
1
1
1
1
1
1
1
1
1
1
1
1
1
1
1
1
1
1
1
1
1
1
1
1
1
1
1
1
1
1
1
1
1
1
1
1
1
1
1
1
1
1
1
1
1
1
1
1
1
1
1
1
1
1
1
1
1
1
1
1
1
1
1
1
1
1
1
1
1
1
1
1
1
1
1
1
1
1
1
1
1
1
1
1
1
1
1
1
1
1
1
1
1
1
1
1
1
1
0.793128
0.861554
0.877052
0.960114
0.845311
0.876418
0.730605
0.627939
0.735931
0.669812
0.662212
0.787461
0.812915
0.850719
0.910896
0.814171
0.941361
0.90911
0.831361
0.964549
0.946118
0.656385
0.543441
0.843071
0.648833
0.575843
0.769194
0.908467
0.837905
0.827245
0.798925
0.757896
0.640513
0.821858
0.925996
0.564222
0.611243
0.978318
0.967623
0.683935
0.882814
0.905695
0.744849
0.879606
0.898078
0.653087
0.795148
0.729804
0.918741
0.686911
0.719376
0.793238
0.747532
0.809938
0.87818
0.542973
0.531797
0.611408
0.589751
0.611437
0.760704
0.771488
0.894692
0.894598
0.959622
0.820743
0.832806
0.96994
0.784028
0.743174
0.737557
0.799528
0.928832
0.584975
0.73166
0.844606
0.843695
0.840925
0.71024
0.87835
0.841822
0.667589
0.733732
0.673091
0.615093
0.542272
0.533004
0.583325
0.680958
0.721076
0.678971
0.718527
0.537834
0.57566
0.611903
0.529223
0.839355
0.490545
0.882334
0.826998
0.963608
0.615082
0.525809
0.816873
0.802002
0.527753
0.673848
0.710629
0.492298
0.426779
0.592814
0.989913
0.998807
0.789557
0.974363
0.950174
0.789956
0.53635
0.939282
0.832454
0.414058
0.645181
0.461481
0.846116
0.928856
0.801435
0.888108
0.46264
0.724891
0.937527
0.984987
0.946515
0.942143
0.934981
0.814815
0.553469
0.5512
0.495218
0.446642
0.497559
0.73409
0.605302
0.929996
0.580515
0.452445
0.63589
0.503925
0.448166
0.506717
0.52025
0.663065
0.456054
0.795825
0.455731
0.531668
0.474775
0.496894
0.429369
0.442113
0.482742
0.456341
0.456365
0.541693
0.55993
0.47679
0.430394
0.518699
0.50815
0.424174
0.475667
0.477282
0.439031
0.437403
0.443
0.529253
0.441141
0.444202
0.454441
0.435795
0.430634
0.43044
0.547503
0.458451
0.477303
0.575443
0.408299
0.451982
0.476314
0.544271
0.593459
0.449896
0.445582
0.758861
0.938638
0.998025
0.999735
0.919937
0.459962
0.876892
0.611285
0.422896
0.526956
0.517526
0.475072
0.998462
0.994252
1
0.998431
0.998412
0.999969
1
0.991787
0.997199
0.803453
0.611409
0.563443
0.583168
0.473463
0.456466
0.620857
0.700211
0.917834
0.76486
0.828773
0.463975
0.454141
0.464676
0.578289
0.816752
0.837347
0.805863
0.870287
0.93828
0.65275
0.547706
0.804155
0.596788
0.642515
0.700808
0.911462
0.954234
0.905154
0.964843
0.48791
0.565104
0.447418
0.816846
0.488237
0.566982
0.472232
0.641527
0.604754
0.914079
0.493789
0.428917
0.935897
0.885219
0.55685
0.439384
0.4288
0.549823
0.430429
0.441365
0.421379
0.990334
1
0.496623
0.663214
0.446925
0.54141
0.924752
0.489626
0.531564
0.957074
0.602681
0.473412
0.833779
0.997997
0.996803
0.516076
0.806204
0.955816
0.474257
0.786318
0.997265
1
0.920212
0.975172
1
1
0.998598
0.999761
1
1
1
0.999238
0.999442
0.458158
0.423659
0.603392
0.71252
0.470277
0.759891
0.759495
0.803223
0.940806
0.733858
0.765796
0.90886
0.879818
0.760165
0.910107
0.878525
0.946816
0.865366
0.882616
0.989562
0.869683
0.80251
0.833043
0.987215
0.925509
0.979109
0.951992
0.993991
0.944108
0.975186
0.754585
0.550816
0.499767
0.948275
0.869787
0.561241
0.600446
0.814198
0.907062
0.924501
0.972812
0.740961
0.962346
0.96644
0.873085
0.457005
0.508926
0.737678
0.466532
0.665414
0.47095
1
1
0.575478
0.981875
0.659694
0.565313
0.9959
0.851722
0.471988
0.613572
0.558663
0.499735
0.528987
0.925316
0.747846
1
0.999582
1
0.999138
0.994007
1
1
0.999137
0.999935
1
0.998884
1
0.97262
0.994487
0.995614
0.998211
1
0.990281
0.933943
0.658217
0.791965
0.963984
0.899405
0.855458
0.730228
0.765351
0.868708
0.712915
0.742467
0.892649
0.92401
0.961961
0.94393
0.955178
0.99791
0.922297
0.759938
0.996392
0.931939
0.863331
0.885906
0.994715
0.951615
0.983865
0.969894
0.992755
0.951355
0.981303
0.887708
0.572325
0.598872
0.970854
0.867013
0.587967
0.561922
0.789599
0.944834
0.961594
0.968183
0.889749
0.965662
0.975084
0.85799
0.511883
0.740247
0.872615
0.582059
0.790961
0.47158
1
1
0.574828
0.993074
0.9178
0.672115
0.998645
0.940007
0.620929
0.580596
0.574422
0.826785
0.796314
0.735057
0.864771
1
1
1
1
0.999057
1
1
1
1
0.988908
0.99073
0.998234
0.913862
0.96528
0.982557
0.995006
0.953776
0.869345
0.994776
0.992193
0.958337
1
0.996811
0.998243
0.718243
0.718042
0.785534
0.778418
0.789679
0.984674
0.956054
0.971631
0.9877
0.954383
0.922794
0.895651
0.764304
0.857998
0.86697
0.907717
0.890687
0.995452
0.952866
0.974849
0.983552
0.995084
0.964562
0.984288
0.818693
0.613067
0.547764
0.962845
0.726696
0.66723
0.528261
0.597815
0.963339
0.967325
0.974391
0.878068
0.972509
0.970027
0.885744
0.640638
0.822118
0.868966
0.735655
0.801145
0.57828
1
1
0.650225
0.995665
0.952054
0.669144
0.995006
0.952415
0.912161
0.903496
0.692053
0.923796
0.954076
0.879431
0.896267
1
1
1
1
1
1
1
1
1
0.887175
0.947079
0.936722
0.921925
0.836307
0.962224
0.881065
0.694196
0.714912
1
0.996811
1
1
0.993402
1
0.597685
0.864552
0.494715
0.826808
0.484164
0.862004
0.539017
0.395958
0.427435
0.40463
0.399616
0.41775
0.404209
0.413374
0.989092
0.947681
0.956454
0.987879
0.953525
0.494346
0.796363
0.618159
0.956188
0.565026
0.8577
0.46662
0.398264
0.411481
0.39519
0.41276
0.408188
0.415828
0.4058
0.896474
0.911678
0.99096
0.953818
0.978384
0.976721
0.995016
0.973448
0.981319
0.724255
0.765269
0.519177
0.96229
0.822769
0.840219
0.614841
0.676072
0.959839
0.936538
0.976769
0.8942
0.960929
0.973438
0.936672
0.762979
0.873576
0.949852
0.80886
0.912204
0.693985
0.994632
0.997351
0.745801
0.988116
0.958687
0.83332
0.984671
0.962928
0.944053
0.97486
0.915248
0.968788
0.980641
0.945184
0.978714
1
0.995959
0.9997
1
0.999055
0.998376
1
1
0.999967
0.899595
0.932733
0.909494
0.970181
0.961905
0.958588
0.981924
0.909777
0.940719
0.982673
0.993173
0.803455
0.567548
0.990082
0.978931
1
1
1
0.998877
0.987244
0.998819
0.888951
0.889621
0.931501
0.988604
0.975477
0.981299
0.97073
0.468269
0.637247
0.442172
0.972433
0.955752
0.965361
0.939536
0.986455
0.95976
0.961181
0.986212
0.95244
0.860487
0.945056
0.668775
0.970193
0.933221
0.957487
0.829185
0.419042
0.432406
0.412326
0.920575
0.849836
0.792046
0.703917
0.887888
0.94349
0.994291
0.953984
0.981925
0.982285
0.996039
0.96709
0.978775
0.870963
0.885579
0.680816
0.978301
0.887801
0.89947
0.667027
0.624926
0.716374
0.935944
0.390471
0.847592
0.719321
0.951302
0.969493
0.974351
0.953905
0.978626
0.972748
0.972454
0.865029
0.925706
0.94854
0.871127
0.937123
0.711425
0.991914
0.993935
0.89874
0.985909
0.970138
0.917429
0.979755
0.959053
0.981123
0.994658
0.962734
0.985667
0.998103
0.987482
0.990187
1
0.99798
0.99997
1
0.999088
1
0.99976
1
1
0.99133
0.981374
0.992645
0.99612
0.998002
0.994008
0.995338
0.993953
0.991084
0.995008
0.988254
0.993199
0.982319
0.995714
0.998527
1
1
0.999424
0.999613
0.994721
1
0.971991
0.994839
0.946381
0.990794
0.979064
0.988679
0.958771
0.994647
0.991928
0.996283
0.997444
0.996275
0.999215
1
0.992363
0.955422
0.967999
0.985848
0.949535
0.883308
0.877416
0.838112
0.957196
0.909293
0.848816
0.919774
0.999096
0.996688
0.999941
1
1
1
1
0.935886
0.94928
0.996205
0.97221
0.983317
0.985714
0.996601
0.978286
0.982712
0.901189
0.88179
0.645735
0.996127
0.88258
0.876052
0.591151
0.96818
0.680587
0.997103
1
1
1
0.974322
0.964176
0.971933
0.959504
0.971773
0.976344
0.971027
0.874443
0.90662
0.960863
0.881447
0.936684
0.688922
0.992471
0.987035
0.942276
0.972904
0.956871
0.960196
0.951578
0.969047
0.98709
0.99663
0.988127
0.996212
0.997753
1
1
0.99798
0.998537
0.997722
0.999046
0.997166
0.999328
0.997513
0.998659
0.997688
0.996763
0.998655
0.996896
0.994213
0.998385
0.994229
0.996719
0.995026
0.993226
0.999265
0.994282
0.998243
1
0.990983
0.995911
0.987911
0.992084
0.976263
0.995063
0.996228
0.99608
0.998072
1
0.998349
1
1
1
1
1
0.987879
0.950272
0.976248
0.975213
0.963673
0.962778
0.929107
0.967765
0.991184
0.98944
0.98264
0.995383
1
1
1
1
1
1
1
0.984373
0.972653
0.990098
0.98183
0.9858
0.988722
0.994027
0.987287
0.987677
0.899346
0.91068
0.765917
0.924823
0.956517
0.910528
0.957573
0.943636
0.969354
0.983278
0.971055
0.948748
0.970728
0.96695
0.949735
0.896913
0.917916
0.967264
0.936577
0.94985
0.933802
0.969749
0.97679
0.970532
0.961915
0.988522
0.990214
0.967414
0.988916
0.996546
0.997754
0.996922
1
0.999961
1
0.997978
0.995263
0.990039
0.994307
0.998272
0.996548
0.991319
0.979927
0.995977
0.991145
1
0.997708
0.998543
0.998527
0.999494
1
0.99563
0.994368
0.987103
0.995897
0.978227
0.996183
0.984556
0.948868
0.98322
0.998851
0.997886
0.999921
0.996438
1
0.977486
0.974517
0.936333
0.967094
0.971304
0.996062
0.994372
0.998742
0.991683
0.999762
0.977956
0.986467
0.99241
0.975249
0.985316
0.98728
0.995118
0.986106
0.98898
0.984925
0.968808
0.986581
0.970305
0.992872
0.993669
0.99616
0.999309
0.971734
0.966837
0.975015
0.970806
0.978667
0.980728
0.966745
0.979488
0.968945
0.980463
0.967677
0.979151
0.977659
0.964803
0.987106
0.996811
0.967029
0.996003
1
0.994041
0.997578
1
0.997716
1
0.997335
0.998955
1
0.998397
0.988716
0.990527
0.980498
0.984238
0.978452
0.984095
0.973279
0.968804
0.968756
0.996742
1
0.997851
0.997237
1
0.999045
0.999698
0.989896
1
0.9743
0.951508
0.95366
0.963773
0.968662
0.971743
1
0.996948
0.998876
0.999123
0.996154
0.969883
0.981838
0.978228
0.984033
0.989041
0.992049
0.996616
0.996796
0.996816
0.998142
0.987862
0.993234
0.992875
0.976657
0.976629
0.988544
0.989776
0.983801
0.976842
0.996614
0.993918
0.998362
0.995161
0.996617
0.999118
0.998362
0.999721
0.987337
0.980061
0.979853
0.984196
0.980332
0.987043
0.988037
0.991477
0.984747
0.994052
0.993609
0.996818
1
0.997142
0.994564
0.996811
0.996595
0.999818
1
0.998955
0.998244
0.999122
1
1
0.999879
0.997445
1
1
0.978337
0.988298
0.986101
0.985163
0.978587
0.99804
0.997005
0.992373
0.995217
0.991518
0.999045
0.997853
0.997417
0.995112
1
0.999123
0.997974
0.996714
0.988428
0.992523
0.990309
0.995549
0.997361
0.992641
0.998276
0.99736
0.997404
0.999092
0.99791
0.994395
0.992952
1
0.99791
0.995934
1
0.998491
0.999124
0.998901
1
0.99435
0.997977
0.988523
0.988413
0.982049
0.989777
0.992481
0.987514
0.981172
0.999116
0.999118
0.998362
0.998064
0.998811
0.997355
1
0.993912
0.98104
0.984329
0.991694
0.993525
0.992296
0.995862
0.990451
0.998877
0.992538
0.998369
1
0.997805
1
0.997909
0.997979
1
0.99853
0.998698
1
0.999923
0.999001
0.998425
0.997523
1
0.998243
0.998877
0.997978
1
0.999582
0.99589
0.997424
0.99568
1
0.997816
1
0.996544
0.999675
0.996741
0.997199
0.999062
0.99997
1
0.999934
0.997156
0.999231
0.998671
0.997678
0.99945
0.99682
0.996672
1
0.997941
0.99767
0.996809
0.99969
0.999122
1
0.99591
0.997367
1
0.998243
0.996554
1
0.998529
0.999123
0.996373
0.999032
0.994559
0.995466
0.990305
0.986445
0.984986
0.997144
0.995153
0.995332
0.990556
0.996767
0.999118
0.995423
1
0.999481
0.999118
0.999661
0.99923
0.98209
0.995802
0.996497
0.993744
0.998877
0.999124
0.996817
0.998877
0.996817
0.99994
1
0.997037
1
1
1
1
0.999923
0.999182
1
1
0.999122
1
0.999613
1
0.998243
0.997252
1
0.999582
0.99791
1
1
0.998302
0.999414
1
1
1
1
0.999382
0.999802
0.99882
0.999129
0.997303
1
0.996823
0.997971
0.997272
0.998878
0.996811
1
0.998839
1
0.999152
0.997519
0.99769
0.996705
0.9977
0.99912
0.99791
0.999303
1
1
1
0.996593
0.999264
0.997944
0.996813
0.999613
1
1
0.998318
1
0.998941
1
1
1
1
0.999969
1
1
0.999933
0.998719
0.999301
0.998361
1
0.99972
1
0.999124
1
1
0.999698
0.996817
0.999264
0.996817
0.999124
0.996243
1
1
1
1
1
1
1
1
1
0.999122
1
0.998877
1
0.997971
1
1
0.999303
1
1
0.999131
1
1
1
1
1
1
0.99837
0.999044
1
0.996815
1
0.997759
1
0.997901
0.997971
1
1
1
1
1
1
0.998245
1
0.997752
0.998547
1
1
1
0.99912
0.998485
1
0.999121
1
0.999819
0.996373
0.998877
1
1
0.999967
0.998369
0.999152
0.99997
0.99812
1
0.99997
0.999817
0.999818
1
0.999032
1
1
1
0.99797
1
1
0.999426
0.996817
1
0.999698
1
1
1
1
1
0.996817
1
1
1
1
1
1
1
1
0.999122
0.999425
1
1
1
0.999265
1
0.999303
0.99798
1
1
1
1
1
0.999131
1
0.997495
0.999944
0.999341
0.997489
0.99997
1
1
0.997973
0.99972
0.995942
1
1
1
1
1
1
0.998547
1
0.998876
0.998245
1
1
0.997754
1
0.99997
1
0.997472
0.999923
0.999819
0.992966
1
1
1
1
1
0.999001
0.997565
0.999802
0.998369
0.999122
0.999634
1
0.998361
1
0.998231
1
0.996722
1
0.996222
1
0.999426
1
0.999845
1
1
0.998877
0.997915
1
1
0.998903
1
0.994634
1
1
1
1
1
1
1
0.999939
0.999961
1
0.999697
0.998878
1
1
1
1
0.999701
1
0.999675
1
1
1
1
0.99837
1
1
0.998258
1
1
0.999123
1
0.997972
1
1
0.998244
1
1
0.999697
0.998547
1
0.996744
0.999939
1
0.999182
0.999961
1
1
1
1
0.998877
0.999123
0.996813
0.997755
1
1
1
0.999944
0.999153
1
1
1
0.999818
0.999298
0.999118
1
1
1
1
1
0.99797
1
1
0.998248
1
0.998877
1
1
1
1
1
0.997754
1
1
1
1
1
0.998878
1
1
0.997755
1
0.999092
0.999265
1
1
1
1
0.999373
1
1
1
1
0.999057
1
1
1
1
0.999438
0.999077
1
0.999369
0.998932
1
0.997368
1
0.997972
1
1
0.999425
1
1
0.999122
1
0.993619
0.998876
0.999123
1
1
1
1
0.999121
1
0.993625
0.998877
0.999305
1
1
1
1
1
1
1
1
1
0.998369
1
1
1
0.998361
1
0.998261
1
1
0.997969
1
1
1
1
0.997754
0.998852
1
1
0.996928
0.99843
1
1
1
1
1
1
0.998917
1
1
0.999961
1
1
1
1
1
1
0.998048
1
1
1
1
1
1
1
1
1
1
1
1
0.999879
0.999129
1
0.999077
1
0.998181
0.99979
1
1
0.999122
1
1
1
0.999123
0.99681
0.995929
0.999122
0.993618
1
1
0.99989
0.998273
1
1
1
1
1
0.997793
1
1
1
1
1
1
0.999077
1
0.99997
0.999908
0.999118
1
0.999065
0.999695
1
1
0.995308
0.997971
1
0.999366
1
0.998877
0.999154
1
1
1
1
0.998877
1
1
1
1
0.996811
1
1
1
0.998878
1
1
1
1
1
1
0.997979
0.997978
1
1
1
1
1
0.998376
1
0.999136
1
1
0.998089
1
1
0.999438
0.999967
1
0.997972
0.997971
1
1
1
1
1
1
0.999123
0.99681
0.999612
0.997367
1
1
1
1
1
1
1
1
0.999819
0.994394
0.998877
1
1
1
1
1
1
1
1
1
0.998231
0.99997
1
1
1
0.998236
0.998361
1
1
1
1
1
1
0.999426
0.996817
0.998877
1
0.998248
1
1
1
1
1
1
0.997756
1
1
1
1
1
1
1
1
1
1
1
0.99798
1
1
1
1
1
1
1
1
0.998483
0.999045
0.999939
0.999129
1
1
0.999425
0.9993
0.998741
1
1
1
1
1
1
0.998245
0.99681
0.998837
0.999122
0.996809
1
1
1
0.999121
1
0.99978
0.999613
0.999123
1
0.999264
1
1
1
1
1
1
1
1
1
1
1
0.998361
1
1
0.999118
1
1
1
1
0.999698
1
1
1
1
1
1
1
0.998877
1
1
1
0.999721
1
1
1
1
0.999032
1
1
0.998877
1
1
1
1
0.997978
0.999443
0.999582
0.9997
0.999255
0.999382
1
1
1
1
0.995617
1
0.999516
1
0.997752
1
0.997609
1
1
0.999768
1
1
0.999497
1
1
1
0.99362
1
1
0.993619
1
1
1
1
1
0.996813
1
1
1
0.998877
1
1
0.999044
1
1
1
0.999044
1
0.999122
1
0.999118
1
1
0.998535
1
0.998361
0.997269
1
1
1
1
0.999264
1
1
1
1
0.999124
0.998877
1
1
1
1
1
0.998878
1
1
1
0.999122
1
1
1
1
1
1
1
0.99798
1
1
1
1
1
1
0.999136
1
1
1
0.999123
0.999129
0.998427
1
0.999123
1
0.997971
1
1
1
1
1
1
0.999123
0.99945
1
0.998063
0.997359
0.999122
0.999768
1
1
0.999109
0.996813
1
1
1
1
0.999303
0.998674
1
0.998369
1
1
1
1
1
0.999115
1
1
1
1
1
0.998361
1
1
1
1
0.996817
1
1
1
1
1
0.999124
1
1
1
1
1
1
1
1
1
1
1
1
1
1
1
1
0.997978
0.998118
1
1
1
1
1
1
0.999131
1
1
0.999944
1
1
0.99994
1
1
0.997367
1
1
0.999961
1
0.999152
1
1
0.999152
0.999304
1
0.998876
1
1
1
1
1
1
1
1
1
0.999123
1
1
0.99993
1
1
1
1
1
1
0.998369
1
1
1
0.998361
1
0.999115
1
0.998361
1
1
1
0.998248
1
1
1
1
1
1
0.999124
1
1
1
1
1
1
1
0.999122
1
1
1
1
1
1
1
1
1
1
1
1
0.999132
0.99997
1
1
1
1
1
1
1
1
1
1
1
0.998245
0.997971
0.997971
1
1
0.99997
1
1
1
1
0.99373
1
1
1
1
1
1
0.999121
0.998877
0.996703
0.998877
0.999123
1
0.998877
1
1
0.999077
1
0.999122
1
1
0.998369
1
1
0.998541
1
0.999232
0.999115
0.998814
1
1
1
1
1
1
1
1
1
1
1
0.999366
0.999613
0.999122
0.997969
1
1
1
1
1
1
1
1
1
1
1
1
0.999961
1
0.998048
1
1
1
1
1
1
1
1
1
0.99837
1
0.999123
1
1
0.998616
1
1
1
1
1
1
1
1
1
1
1
0.99969
0.999364
1
1
1
1
1
1
1
1
0.999123
1
1
1
1
1
1
1
1
1
1
1
1
1
1
0.999032
1
0.998814
0.998361
1
1
1
1
1
1
1
1
0.999264
1
0.999124
1
1
1
0.997979
1
1
1
1
1
1
1
1
1
1
1
1
1
1
1
1
1
1
1
1
1
1
1
1
0.999802
0.999123
0.99997
0.999944
0.999077
0.999153
1
0.997971
1
1
1
1
1
1
0.997731
1
0.999612
1
1
1
1
1
1
1
1
0.99849
1
1
0.999264
0.997977
1
1
1
1
1
1
1
1
1
0.999422
1
1
1
1
1
1
1
1
1
1
1
1
1
1
1
0.999154
1
1
1
1
1
1
1
1
1
1
1
1
1
1
1
1
1
1
1
1
1
1
1
1
1
1
1
1
1
1
1
1
0.99911
1
0.997972
1
1
1
1
1
1
1
0.999123
1
0.998876
1
0.996809
1
1
1
1
0.998877
0.996813
0.998955
0.999305
1
1
1
1
1
1
1
1
1
1
1
0.999115
1
0.998361
1
1
1
1
1
0.997971
1
1
1
1
1
1
0.998877
1
1
1
1
1
0.999303
1
1
0.999265
1
1
1
1
1
1
1
1
1
1
1
1
0.998119
1
1
1
1
1
0.99997
1
1
1
1
1
1
1
0.999122
0.997972
1
1
1
1
0.999961
1
1
0.999455
1
1
1
1
1
1
1
1
1
1
0.998877
0.999819
1
0.998877
0.999791
0.99993
1
1
1
0.999729
1
1
1
1
0.999362
0.998361
1
0.997315
1
0.998361
0.99881
1
1
1
1
1
1
1
0.998877
1
0.999366
0.99969
1
1
0.997979
1
1
1
1
1
1
1
1
1
1
1
1
1
1
1
1
1
1
1
1
1
1
1
1
1
1
1
1
1
1
0.997971
1
1
1
1
0.998916
1
0.99997
0.999122
0.99681
0.999574
0.999153
1
1
1
1
1
1
1
1
1
1
1
1
1
1
1
1
1
1
1
1
0.999664
1
1
1
0.998474
0.99927
0.999435
0.997409
1
1
0.99994
1
1
1
1
1
1
1
1
1
1
1
1
1
1
1
1
1
1
1
1
1
1
1
1
1
1
1
1
1
1
1
1
1
1
1
0.999044
1
1
1
1
1
1
1
1
1
1
1
1
1
1
1
1
0.999122
1
1
1
1
1
1
1
1
0.999214
0.99978
1
1
1
1
1
1
1
1
1
1
1
0.999848
0.998926
1
1
1
1
1
1
1
0.999124
1
1
1
1
1
1
1
1
1
1
1
1
1
1
1
1
1
1
1
1
1
1
1
1
1
1
1
1
1
1
1
1
1
1
1
1
1
1
1
1
1
1
1
1
1
1
1
1
1
0.999122
1
1
1
1
0.999485
1
1
1
1
1
1
0.99997
0.996922
1
1
1
1
1
1
1
1
1
1
1
1
1
1
0.999878
1
0.998587
1
1
1
1
1
1
1
1
1
1
1
1
1
1
1
1
1
1
1
1
1
1
1
1
1
1
1
1
1
1
1
1
1
1
1
1
0.999136
1
1
1
1
1
1
1
1
1
0.998531
1
1
0.999122
1
0.996811
1
1
1
0.99969
0.999122
1
1
1
1
1
1
1
0.996632
1
0.996922
1
0.997977
1
1
1
1
1
1
1
1
1
1
0.998361
1
1
1
1
1
1
0.997971
0.999124
1
1
1
1
1
1
1
0.997792
1
0.99993
0.997979
1
1
1
1
1
0.998878
1
1
1
1
1
1
1
1
1
0.99798
1
1
1
1
0.999131
1
1
1
1
1
1
1
1
1
1
1
1
1
1
1
1
1
1
1
1
1
0.996809
1
1
1
1
1
0.99989
1
1
1
1
1
1
1
1
1
1
1
1
0.999122
1
0.99997
1
1
1
1
0.998361
1
1
1
1
1
1
1
1
1
1
1
1
1
0.99867
1
1
1
1
1
1
1
1
1
1
1
1
1
1
1
1
1
1
1
1
1
1
1
1
1
1
1
1
1
1
1
1
1
1
1
1
1
1
1
1
0.99681
1
1
1
1
1
1
1
1
1
0.997755
1
1
1
1
1
1
1
1
0.99997
0.999077
1
1
1
0.999118
0.998361
1
1
1
1
1
1
1
1
0.996817
1
1
1
0.999961
1
1
0.998915
1
1
1
1
1
1
1
1
1
1
1
1
1
1
1
1
1
1
1
1
1
1
1
1
1
1
1
1
1
1
1
1
1
1
1
1
1
1
1
1
0.999122
1
1
1
1
1
1
1
1
1
1
1
1
1
1
1
1
1
1
1
1
1
1
1
0.999001
1
1
1
1
1
1
1
1
1
0.998251
1
1
1
1
1
1
1
1
0.998877
1
0.997969
1
1
1
1
1
1
1
1
1
1
1
1
1
1
1
1
0.998677
1
1
1
0.998376
1
1
1
1
1
1
1
1
1
1
1
1
1
1
1
1
1
1
1
1
1
1
1
1
1
1
1
1
1
1
1
1
1
1
1
1
1
1
1
1
1
1
1
1
1
0.999032
1
1
0.998361
0.9993
1
1
1
1
0.998877
0.999124
0.996818
1
1
1
1
1
1
1
0.998676
1
1
1
1
1
1
1
1
1
1
1
1
1
0.999303
1
1
1
1
0.998376
1
1
1
1
1
1
1
1
1
1
1
1
1
1
1
1
1
0.999122
1
1
1
1
1
1
1
1
1
1
1
0.999961
1
1
1
1
1
1
1
1
1
1
1
1
1
0.99997
1
1
1
0.999118
1
1
1
1
1
1
1
1
1
1
1
1
1
1
1
0.999303
1
1
1
1
1
1
1
1
1
1
1
1
1
1
1
0.99993
1
1
1
1
1
1
1
1
1
1
1
1
1
1
1
1
1
1
1
0.998916
1
1
1
1
1
1
1
1
1
1
1
0.998877
1
1
1
1
1
0.997977
1
1
1
1
1
1
1
1
0.999115
1
1
1
1
1
1
1
1
1
0.999124
1
1
0.999124
1
1
1
1
1
1
1
1
1
1
0.998878
1
1
1
1
1
1
1
1
1
1
1
1
1
1
1
1
1
1
1
1
1
1
1
1
1
1
1
1
1
1
1
1
1
1
1
1
1
1
1
1
1
1
1
1
1
1
1
1
1
1
1
1
1
1
1
1
1
1
1
1
0.999422
1
1
1
1
0.998361
1
1
1
1
1
1
1
1
0.999768
1
1
0.998915
1
1
0.997979
1
1
1
1
1
1
1
1
1
1
1
1
1
1
1
1
1
1
1
1
1
1
1
1
1
1
1
1
1
1
1
1
1
1
1
1
1
1
1
1
1
1
1
1
1
1
1
1
1
0.999961
1
1
0.998916
1
1
1
1
1
1
1
1
1
1
1
1
1
1
1
1
1
1
1
1
0.997915
1
0.999154
1
1
0.998903
1
1
1
1
1
1
1
1
1
1
1
1
1
1
1
1
1
1
1
1
1
1
1
1
1
1
1
1
1
1
1
1
1
1
1
1
1
1
1
1
1
1
1
1
1
1
1
1
1
1
1
1
1
1
0.998877
1
1
1
1
1
1
1
1
1
1
1
1
1
1
1
1
1
1
1
1
1
1
1
1
0.998877
1
1
1
1
1
1
1
1
1
1
1
1
1
1
1
1
1
1
1
1
1
1
1
1
1
1
1
1
1
1
1
1
1
1
1
1
1
1
1
1
1
1
1
1
1
1
1
1
1
1
1
1
1
1
1
1
1
1
1
1
1
1
1
1
1
1
1
1
1
1
1
1
1
1
1
1
1
1
1
1
1
1
1
1
1
1
1
1
1
1
1
1
1
1
1
1
0.999122
1
1
1
1
1
1
1
1
1
1
1
1
1
1
1
1
1
1
1
1
1
1
1
1
1
1
1
1
1
1
1
1
1
1
0.999123
1
1
1
1
1
1
1
1
1
1
1
1
1
1
1
1
1
1
1
1
1
1
1
1
1
1
1
1
1
1
1
1
1
1
1
1
1
1
1
1
1
1
1
1
1
1
1
1
1
1
1
1
1
1
1
1
1
1
1
1
1
1
1
1
1
1
1
1
1
1
1
1
1
1
1
1
1
1
1
1
1
1
1
1
1
1
1
1
1
1
1
1
1
1
1
1
1
1
1
1
1
1
1
1
1
1
1
1
1
1
1
1
1
1
1
1
1
1
1
1
1
1
1
1
1
1
1
1
1
1
1
1
1
1
1
1
1
1
1
1
1
1
1
1
1
1
1
1
1
1
1
1
1
1
1
1
1
1
1
1
1
0.998878
1
1
1
1
1
1
1
1
1
1
1
1
1
1
1
1
1
1
1
0.998877
1
1
1
1
1
1
1
1
1
1
1
1
1
1
1
1
1
1
1
1
1
1
1
1
1
1
1
1
1
0.997969
1
1
1
1
1
1
1
1
1
1
1
1
1
1
1
1
1
1
1
1
1
1
1
1
1
1
1
1
1
1
1
1
1
1
1
1
1
1
1
1
1
1
1
1
1
1
1
1
1
1
1
1
1
1
1
1
1
1
1
1
1
1
0.999243
1
1
1
1
1
1
1
1
1
0.99972
1
1
1
1
1
1
1
1
1
1
1
1
1
1
1
1
1
1
1
1
1
1
1
1
1
1
1
1
1
1
1
1
1
1
1
1
1
1
1
1
1
1
1
1
1
1
1
1
1
1
1
1
1
1
1
1
1
1
1
1
1
1
1
1
1
1
1
1
1
1
1
1
1
1
1
1
1
1
1
1
1
1
1
1
1
1
1
1
1
1
1
1
1
1
1
1
1
1
1
1
1
1
1
1
1
1
1
1
1
1
1
1
1
1
1
1
1
1
1
1
1
1
1
1
1
1
1
1
1
1
0.999122
1
1
1
1
1
1
1
1
1
1
1
1
1
1
1
1
1
1
1
1
0.999967
1
1
1
1
1
1
1
1
1
1
1
1
1
1
1
1
1
1
1
1
1
1
1
1
1
1
1
1
1
1
1
1
1
1
1
1
1
1
1
1
1
1
1
1
1
1
1
1
1
1
1
1
1
1
1
1
1
1
1
1
1
1
1
1
1
1
1
1
1
1
1
1
1
1
1
1
1
1
1
1
1
1
1
1
1
1
1
1
1
0.999122
1
1
1
1
1
1
1
1
1
1
1
1
1
1
1
1
1
1
1
1
1
1
1
1
1
1
1
1
1
1
1
1
1
1
1
1
1
1
1
1
1
1
1
1
1
1
1
1
1
1
1
1
1
1
1
1
1
1
1
1
1
1
1
1
1
1
1
1
1
1
1
1
1
1
1
1
1
1
1
0.999122
1
1
1
1
1
1
1
1
1
0.999422
1
1
1
1
1
1
1
1
1
1
1
1
1
1
0.9993
1
1
1
1
1
1
1
1
1
1
1
1
1
1
1
1
1
1
1
1
1
1
1
1
1
1
1
1
1
1
1
1
1
1
1
1
1
1
1
1
1
1
1
1
1
1
1
1
1
1
1
1
1
1
1
1
1
1
1
1
1
1
1
1
1
1
1
1
1
1
1
1
1
1
1
1
1
1
1
1
1
1
1
1
1
1
1
1
1
1
1
1
1
1
1
1
1
1
1
1
1
1
1
1
1
1
1
1
1
1
1
1
1
1
1
1
1
1
1
1
1
1
1
1
1
1
1
1
1
1
1
1
1
1
1
1
1
1
1
1
1
1
1
1
1
1
1
1
1
1
1
1
1
1
1
1
1
1
1
1
1
1
1
1
1
1
1
1
1
1
1
1
1
1
1
1
1
1
1
1
1
1
1
1
1
1
1
1
1
1
1
1
1
1
1
1
1
1
1
1
1
1
1
1
1
1
1
1
1
1
1
1
1
1
1
1
1
1
1
1
1
1
1
1
1
1
1
1
1
1
1
1
1
1
1
1
1
1
1
1
1
1
1
1
1
1
1
1
1
1
1
1
1
1
1
1
1
1
1
1
1
1
1
1
1
1
1
1
1
1
1
1
1
1
1
1
1
1
1
1
1
1
1
1
1
1
1
1
1
1
1
1
1
1
1
1
1
1
1
1
1
1
1
1
1
1
1
1
1
1
1
1
1
1
1
1
1
1
1
1
1
1
1
1
1
1
1
1
1
1
1
1
1
0.998877
1
1
1
1
1
1
1
1
1
1
1
1
1
1
1
1
1
1
1
1
1
1
1
1
1
1
1
1
1
1
1
1
1
1
1
1
1
1
1
1
1
1
1
1
1
1
1
1
1
1
1
1
1
1
1
1
1
1
1
1
1
1
1
1
1
1
1
1
1
1
1
1
1
1
1
1
1
1
1
1
1
1
1
1
1
1
1
1
1
1
1
1
1
1
1
1
1
1
1
1
1
1
1
1
1
1
1
1
1
1
1
1
1
1
1
1
1
1
1
1
1
1
1
1
1
1
1
1
1
1
1
1
1
1
1
1
1
1
1
1
1
1
1
1
1
1
1
1
1
1
1
1
1
1
1
1
1
1
1
1
1
1
1
1
1
1
1
1
1
1
1
1
1
1
1
1
1
1
1
1
1
1
1
1
1
1
1
1
1
1
1
1
1
1
1
1
1
1
1
1
1
1
1
1
1
1
1
1
1
1
1
1
1
1
1
1
1
1
1
1
1
1
1
1
1
1
1
1
0.999122
1
1
1
1
1
1
1
1
1
1
1
1
1
1
1
1
1
1
1
1
1
1
1
1
1
1
1
1
1
1
1
1
1
1
1
1
1
1
1
1
1
1
1
1
1
1
1
1
1