/*--------------------------------*- C++ -*----------------------------------*\
| =========                 |                                                 |
| \\      /  F ield         | OpenFOAM: The Open Source CFD Toolbox           |
|  \\    /   O peration     | Version:  5.x                                   |
|   \\  /    A nd           | Web:      www.OpenFOAM.org                      |
|    \\/     M anipulation  |                                                 |
\*---------------------------------------------------------------------------*/
FoamFile
{
    version     2.0;
    format      ascii;
    class       volVectorField;
    location    "2.5";
    object      U;
}
// * * * * * * * * * * * * * * * * * * * * * * * * * * * * * * * * * * * * * //

dimensions      [0 1 -1 0 0 0 0];

internalField   nonuniform List<vector> 
10571
(
(0.138598 0.562656 1.46731)
(0.140715 0.0173996 0.845537)
(0.206322 0.278064 1.47497)
(0.899489 0.515642 4.50002)
(-0.725774 -0.190577 1.7937)
(-0.215225 0.107981 2.8138)
(0.671191 0.665736 2.15704)
(0.289755 0.108537 3.84842)
(-0.78281 -0.0878227 3.05463)
(-0.265929 0.00280173 1.13606)
(0.185315 -0.477153 2.84041)
(0.593435 -0.481958 2.46138)
(0.989069 -2.32009 6.13016)
(-2.10821 -4.12383 5.99737)
(-1.54419 -3.45735 5.35307)
(-0.224898 -0.425226 1.377)
(-0.0466711 -0.75961 2.09357)
(-0.335526 -1.7428 2.1169)
(-0.258622 -2.27808 2.50795)
(-0.39211 -1.27696 1.87682)
(0.00400988 -0.188841 0.99161)
(-0.482523 -0.781609 1.76869)
(0.132307 -0.667427 1.61227)
(0.275143 -0.439459 1.32985)
(-0.453254 0.0438226 0.46786)
(0.718431 -1.15529 1.39292)
(-1.00797 -1.17123 2.94638)
(-0.876749 -1.24299 3.1991)
(1.39892 0.0106175 2.36854)
(0.70835 -0.0657318 3.38381)
(-1.44394 0.644499 5.37645)
(-0.605341 0.0585714 4.32121)
(0.926499 -0.105068 4.06376)
(0.0420801 -0.263006 1.36171)
(0.184224 0.800589 3.5648)
(0.296988 0.672968 2.16013)
(-1.0148 0.44024 6.41113)
(-0.591249 0.309426 2.89099)
(-0.498946 0.267721 4.02673)
(-0.259808 -0.02078 2.07708)
(0.169649 -0.332785 3.87171)
(-0.264387 -0.599848 1.99857)
(-0.28641 -0.185042 1.57866)
(-0.609556 -0.794004 2.37587)
(0.0417778 0.0085255 1.17352)
(-0.169565 -0.294524 1.07539)
(-0.149207 -0.202968 0.762941)
(0.00394716 -0.124717 0.797311)
(-0.186666 -0.0447457 0.911362)
(-0.0934444 -0.487925 1.9313)
(-0.681295 -0.56838 3.8636)
(-0.242182 -0.520364 1.62542)
(-0.221156 -0.960287 1.8457)
(-0.204849 -0.304343 1.32284)
(-1.2457 0.199619 4.45904)
(-0.34062 0.0200979 1.79313)
(0.601584 0.444542 3.72422)
(0.250079 0.327735 2.33199)
(0.219004 0.452159 1.34928)
(0.11157 0.530562 2.20489)
(-0.770165 1.07244 6.37326)
(-1.00819 1.28945 3.22749)
(-0.120419 0.466495 1.37962)
(0.0425557 0.167415 0.634164)
(0.35943 -0.391828 2.91453)
(0.338881 0.0321389 1.65478)
(-0.490778 0.450894 2.56572)
(-0.126081 0.643836 1.4014)
(-0.0475795 0.206579 0.553304)
(0.116033 0.0275428 -0.0726972)
(0.537556 -0.0074253 1.62717)
(-0.127794 0.229577 0.816053)
(0.125454 0.0192336 0.479518)
(-0.271982 0.553705 1.38021)
(0.0289718 1.1855 4.11574)
(-0.106393 0.423899 2.68703)
(-0.469716 -0.0715543 2.43113)
(0.0170642 0.189413 1.75525)
(-0.935344 0.157275 4.95872)
(-0.185241 -0.0341579 2.21567)
(0.0710972 0.0189522 1.73484)
(0.430661 1.20439 3.4561)
(0.0705544 -0.070995 0.162035)
(0.392282 -0.191304 2.59467)
(-0.56572 1.09248 6.32534)
(-0.674612 0.827352 2.76056)
(0.0205473 0.380451 1.41575)
(-0.124943 0.554607 1.21435)
(0.302683 0.205135 1.93113)
(0.160899 0.369848 1.54632)
(-0.210756 0.322017 1.98628)
(-0.0053243 0.141479 1.67883)
(-0.0107484 0.247339 1.44063)
(0.0560738 0.0917953 -0.281637)
(0.33786 0.266274 1.15569)
(0.456119 -0.0952452 1.0032)
(0.242844 -0.0552645 0.65938)
(-0.139965 0.079151 0.609458)
(0.0985495 0.971918 3.70101)
(0.439907 0.439264 2.36513)
(-0.70442 0.200851 2.26065)
(-0.121224 0.323831 1.85036)
(-0.541436 0.113855 3.57103)
(0.43918 -0.00655024 1.26722)
(0.00661692 0.409687 2.5071)
(-0.025878 0.734142 2.23132)
(-0.00925736 -0.0222766 -0.0447773)
(0.476846 0.104795 2.96665)
(-0.316534 1.14951 6.2151)
(0.0296645 0.52607 2.21508)
(0.211029 -0.148499 1.50508)
(-0.37101 0.554302 1.25889)
(0.566877 0.517048 1.29502)
(0.115085 0.569514 2.15043)
(-0.123191 0.449076 1.83135)
(0.129242 0.170598 1.23849)
(-0.0195657 0.316066 1.4003)
(0.0425483 -0.0371723 0.200821)
(0.188611 0.264589 1.47463)
(0.581743 -0.187903 1.46935)
(0.544625 -0.0123486 1.07577)
(-0.258096 0.0738288 0.70584)
(0.300768 0.284368 3.19982)
(0.594974 0.543514 2.81528)
(-0.0776719 0.207036 2.35474)
(-0.589381 0.222356 2.0384)
(0.151949 -0.216291 3.19851)
(0.706959 -0.0347842 1.40778)
(0.146572 0.203002 2.07978)
(-0.00854964 0.201476 2.3178)
(-0.00807538 0.00150905 -0.00157946)
(0.0886334 0.330019 0.265648)
(0.143909 0.466231 3.41445)
(-0.262228 1.34567 5.83835)
(0.43642 0.240291 1.78565)
(0.573879 -0.117002 1.32439)
(-0.317591 0.190874 1.65387)
(0.00327707 -0.0014 -0.00048321)
(-0.136871 0.214226 0.41667)
(0.231004 1.02401 2.79106)
(0.0249614 0.587693 1.86481)
(0.292931 -0.112454 1.59604)
(-0.0290523 0.205693 1.71505)
(0.177265 0.122227 0.677713)
(0.154526 0.180176 1.60479)
(0.619604 -0.225006 1.61723)
(0.317114 0.0915225 0.891119)
(0.102185 -0.0136756 0.696575)
(0.17863 -0.0305681 2.35413)
(0.739843 0.319788 2.97483)
(0.122414 0.0873581 1.83)
(-0.689784 0.134031 2.26772)
(0.27304 -0.600488 1.97229)
(0.618359 0.0933092 1.60416)
(0.264551 0.0666937 2.11904)
(0.273751 -0.0145319 1.90383)
(-0.211832 -0.124427 -0.0740109)
(0.0538463 0.152384 0.233983)
(-0.209115 0.593509 3.48534)
(0.0955825 1.14784 5.56926)
(0.512446 0.108873 1.03289)
(0.593873 -0.089491 1.61879)
(0.172681 0.00210518 1.74937)
(0.0761852 -0.443517 0.222806)
(-0.461698 0.465323 1.02642)
(0.371883 1.56145 3.54926)
(0.138552 0.48135 1.88996)
(0.256837 -0.115976 1.70048)
(0.0932527 0.0608494 1.59047)
(-0.391391 -0.130037 -0.362496)
(0.233038 0.315011 1.38304)
(0.200855 0.0744527 1.75718)
(0.560662 -0.114929 1.82008)
(-0.0737797 -0.0612677 0.593171)
(0.019263 -0.0844746 0.23442)
(0.217446 0.0497892 2.45315)
(0.418458 0.154234 2.49052)
(0.238934 0.0693701 1.9683)
(-0.0724539 -0.154127 1.79325)
(0.191416 -0.686646 1.89221)
(0.305551 0.155035 1.63299)
(0.217044 0.0618819 2.22402)
(0.252989 -0.00694345 2.06329)
(0.0163407 -0.141419 0.314911)
(-0.039901 -0.0445139 0.439101)
(-0.544392 0.413332 3.44921)
(0.164104 0.416107 2.84911)
(0.668629 0.0220221 1.46916)
(0.304098 -0.116921 1.85121)
(0.379443 -0.190611 1.87301)
(0.0309066 -0.299389 0.614668)
(-0.0992662 0.89965 1.87607)
(0.418059 1.34355 3.1997)
(0.201903 0.269373 2.15787)
(0.107491 -0.114071 1.81391)
(-0.0740141 -0.0531242 1.47591)
(-0.36041 0.101237 -0.317943)
(0.246471 0.603965 2.12829)
(0.309395 -0.0177008 2.00321)
(0.530802 -0.0960075 2.07768)
(0.0125698 -0.0189537 0.883136)
(-0.032273 -0.00986611 0.567434)
(0.204717 -0.0132375 2.42439)
(0.304039 0.20698 2.51645)
(0.163792 0.092345 2.20632)
(0.020491 -0.457278 1.56426)
(0.155754 -0.302935 1.93308)
(0.0945331 0.144035 1.91216)
(0.0616895 0.0461618 2.30833)
(-0.0566735 -0.158112 2.11182)
(0.36044 -0.13 0.128383)
(-0.126891 -0.121846 1.01675)
(-0.186141 0.124033 2.71869)
(0.0793117 0.262486 3.23005)
(0.0526361 -0.0464208 1.2832)
(-0.00904412 -0.194578 1.90731)
(0.258119 -0.253767 2.08221)
(-0.145265 0.15698 0.420035)
(-0.121276 0.780139 2.26512)
(0.420347 0.954972 3.37315)
(0.0355798 0.111688 2.1992)
(-0.0844896 -0.05901 1.94317)
(-0.282719 0.119277 1.59455)
(0.278088 0.696021 2.72041)
(0.458809 -0.0763758 2.26221)
(0.514868 -0.139672 2.25482)
(0.0729735 0.0155367 0.811862)
(-0.0135035 0.0447639 0.591887)
(0.159238 -0.0606599 2.29891)
(0.261792 0.120061 2.35839)
(0.0842426 0.0830818 2.45295)
(-0.0278341 -0.139013 1.62939)
(0.0328048 -0.13231 1.68863)
(-0.0102493 0.0896982 1.91853)
(0.0376831 -0.0673038 2.34911)
(-0.475958 -0.313122 2.23242)
(0.0010173 -0.0227674 1.45911)
(-0.0420977 0.113873 2.67261)
(-0.00563393 0.1831 2.68007)
(-0.312958 -0.211291 1.26294)
(-0.0107627 -0.193985 1.94026)
(-0.250639 -0.0361494 2.10189)
(0.0170682 0.256771 2.48006)
(0.342109 0.65619 3.2196)
(-0.0429887 0.0276578 2.24041)
(-0.209431 -0.141263 1.99891)
(-0.199942 0.167235 1.69516)
(0.229557 0.561789 3.02125)
(0.559014 -0.0910221 2.46899)
(0.515249 -0.193476 2.36702)
(0.0355169 -0.0159112 0.813292)
(-0.000553286 -0.00414072 0.535074)
(0.14038 -0.0896451 2.14842)
(0.301173 -0.0020083 2.43669)
(-0.0548337 -0.00742654 2.51091)
(-0.108479 -0.0929959 1.66522)
(-0.0334211 -0.218634 1.61039)
(-0.0692249 0.039314 2.00894)
(0.106004 -0.142003 2.45859)
(-0.277218 -0.242053 2.23551)
(-0.0448061 -0.0803538 1.31288)
(-0.0816243 0.0438608 2.18667)
(-0.0513498 0.056305 2.25557)
(-0.300012 -0.2792 1.33949)
(-0.0118226 -0.231363 1.94694)
(0.0852664 -0.11033 2.10866)
(-0.00506001 0.112277 2.37662)
(0.329623 0.535969 3.06909)
(-0.0772477 -0.0313381 2.31185)
(-0.233913 -0.287613 1.99758)
(-0.116489 -0.0850017 1.53337)
(0.17574 0.464016 3.0886)
(0.589315 -0.0646315 2.61103)
(0.500823 -0.201223 2.40169)
(0.0310484 -0.0165829 0.891233)
(0.0551348 -0.0786095 0.569217)
(0.12736 -0.149322 2.1357)
(0.284065 -0.0501355 2.43037)
(-0.124885 -0.090991 2.59559)
(-0.122241 -0.13966 1.81741)
(-0.112407 -0.25102 1.6416)
(-0.104384 0.0287897 2.04726)
(0.0935338 -0.139949 2.51225)
(-0.17042 -0.202399 2.19121)
(-0.0550569 -0.0836911 1.45668)
(-0.0931532 -0.0215266 2.15077)
(-0.107597 -0.0489194 2.22)
(-0.305821 -0.317606 1.40266)
(-0.024838 -0.239425 1.9259)
(0.061689 -0.104985 1.94077)
(-0.00364243 0.0116444 2.39043)
(0.312079 0.437403 2.97938)
(-0.0891543 -0.0950773 2.37697)
(-0.199807 -0.36207 1.95766)
(-0.145843 -0.0239208 1.41698)
(0.138955 0.393624 3.06606)
(0.5638 -0.04588 2.69233)
(0.463572 -0.18377 2.42932)
(0.0520395 -0.0147259 0.971586)
(0.058261 -0.123202 0.684837)
(0.125359 -0.186809 2.12462)
(0.253258 -0.0875367 2.54045)
(-0.146955 -0.128416 2.66782)
(-0.112039 -0.172332 1.93914)
(-0.155353 -0.265872 1.64977)
(-0.116754 -0.00420884 2.06685)
(0.0896682 -0.130779 2.50743)
(-0.128172 -0.17917 2.2037)
(-0.0659378 -0.0827958 1.61356)
(-0.106419 -0.0588522 2.14154)
(-0.125978 -0.162482 2.1175)
(-0.316942 -0.32512 1.4466)
(-0.0391748 -0.20498 1.89131)
(0.0588414 -0.114841 1.82321)
(-0.0360502 -0.0497484 2.40664)
(0.265424 0.360927 2.91306)
(-0.0541954 -0.173137 2.38068)
(-0.152912 -0.376298 1.9426)
(-0.215469 0.108795 1.2309)
(0.104179 0.336602 3.0064)
(0.529397 -0.0250553 2.73526)
(0.42847 -0.164863 2.44992)
(0.0143455 -0.022779 1.11256)
(0.0643886 -0.155842 0.893985)
(0.120476 -0.213354 2.12671)
(0.242441 -0.103603 2.62302)
(-0.164964 -0.151715 2.74501)
(-0.10338 -0.210728 2.00626)
(-0.157371 -0.280318 1.66788)
(-0.12538 -0.0413026 2.07252)
(0.076226 -0.117094 2.48651)
(-0.112465 -0.172469 2.20948)
(-0.0651372 -0.100991 1.75735)
(-0.109496 -0.100518 2.13168)
(-0.12142 -0.239749 1.96938)
(-0.320737 -0.306014 1.47806)
(-0.13031 -0.156411 1.82866)
(0.103324 -0.105268 1.64303)
(-0.0741032 -0.0572856 2.41522)
(0.256216 0.224566 2.78097)
(0.0177938 -0.197736 2.31502)
(0.00614381 -0.338826 1.94953)
(-0.0324763 -0.136268 1.20834)
(0.0925567 0.293756 2.92346)
(0.484109 -0.0116253 2.73652)
(0.417919 -0.166423 2.4352)
(-0.0123349 -0.0248482 1.24623)
(0.0928676 -0.188719 1.16253)
(0.119462 -0.205488 2.13669)
(0.234493 -0.102632 2.7073)
(-0.150829 -0.180729 2.85225)
(-0.0968135 -0.24448 2.05389)
(-0.166794 -0.26999 1.68955)
(-0.142331 -0.0444466 2.06865)
(0.0344144 -0.0709619 2.45164)
(-0.10669 -0.176988 2.19902)
(-0.0584767 -0.121313 1.85613)
(-0.146892 -0.141128 2.13889)
(-0.157025 -0.279171 1.8467)
(-0.340006 -0.297695 1.52355)
(-0.211054 -0.143056 1.73407)
(0.0257965 -0.00753131 1.4636)
(-0.0994886 -0.0591117 2.42514)
(0.247873 0.142269 2.56103)
(0.0571877 -0.16495 2.21446)
(0.0651239 -0.234938 1.9282)
(0.166236 -0.328974 1.34683)
(0.0458002 0.240285 2.80844)
(0.427244 -0.0119198 2.69347)
(0.419988 -0.182264 2.38792)
(0.0209179 -0.0179243 1.36374)
(0.121385 -0.213907 1.42761)
(0.131081 -0.187093 2.14517)
(0.221442 -0.0798824 2.80416)
(-0.100515 -0.199223 2.95887)
(-0.0739325 -0.277294 2.10464)
(-0.208076 -0.243136 1.73617)
(-0.198201 -0.0463238 2.05813)
(-0.0221032 -0.0471846 2.35231)
(-0.0856347 -0.212795 2.19854)
(-0.0528305 -0.187445 1.94494)
(-0.139664 -0.165141 2.14723)
(-0.179156 -0.301337 1.7916)
(-0.363762 -0.343585 1.57072)
(-0.193462 -0.182482 1.66904)
(-0.042612 -0.0719277 1.34253)
(-0.0813654 -0.0328606 2.40379)
(0.244752 0.111441 2.35091)
(-0.0105879 -0.159754 2.13536)
(0.0969148 -0.180799 1.91863)
(0.228085 -0.370266 1.41779)
(0.0437008 0.206344 2.6901)
(0.385887 0.00028289 2.61764)
(0.408017 -0.190865 2.34772)
(0.0660108 -0.0142196 1.50422)
(0.146467 -0.235021 1.68862)
(0.139533 -0.178966 2.1691)
(0.200881 -0.0813008 2.90359)
(-0.0496404 -0.20056 3.08176)
(-0.0526947 -0.309693 2.16725)
(-0.252971 -0.273108 1.80908)
(-0.256978 -0.116023 2.05659)
(-0.0241655 -0.146296 2.24231)
(-0.058639 -0.217306 2.22989)
(-0.0626694 -0.279369 2.03292)
(-0.0368665 -0.253645 2.1692)
(-0.17154 -0.345388 1.7827)
(-0.329601 -0.457319 1.60968)
(-0.0566095 -0.334694 1.5937)
(-0.0522267 -0.146978 1.35055)
(-0.0458402 -0.108119 2.31035)
(0.230899 -0.0623622 2.24271)
(-0.0965906 -0.265598 2.00293)
(0.114264 -0.213533 1.88547)
(0.261916 -0.41008 1.39204)
(-0.00905074 0.130938 2.5896)
(0.289835 -0.0599771 2.50357)
(0.421131 -0.212677 2.26135)
(0.0771216 -0.0211449 1.68543)
(0.160877 -0.248467 1.93573)
(0.128815 -0.175306 2.24537)
(0.172893 -0.107702 3.01958)
(-0.0123399 -0.203663 3.19322)
(-0.0335878 -0.346291 2.26075)
(-0.262882 -0.347556 1.92345)
(-0.227891 -0.258329 2.06841)
(0.0184027 -0.309773 2.18716)
(-0.0466399 -0.203263 2.30678)
(-0.056685 -0.26339 2.08777)
(0.0214051 -0.312796 2.1786)
(-0.195437 -0.467256 1.84147)
(-0.145772 -0.590248 1.58813)
(0.119244 -0.470641 1.55099)
(-0.028492 -0.264244 1.47231)
(-0.127307 -0.196842 2.17977)
(-0.013625 -0.430806 2.11065)
(-0.00426373 -0.412771 1.73699)
(0.213575 -0.460846 1.66931)
(0.314391 -0.47114 1.41828)
(-0.00945494 0.0624748 2.39878)
(0.143921 -0.0950794 2.26939)
(0.297916 -0.158535 2.12057)
(0.058974 -0.0335988 1.91062)
(0.17193 -0.258431 2.17323)
(0.114971 -0.159149 2.35559)
(0.13802 -0.134535 3.19059)
(0.0207506 -0.199919 3.29454)
(-0.00901888 -0.375106 2.3675)
(-0.210943 -0.363579 2.06268)
(-0.150157 -0.343924 2.13408)
(0.0477025 -0.379511 2.19588)
(-0.0490896 -0.185705 2.4378)
(-0.0527742 -0.253297 2.09431)
(0.00375972 -0.350008 2.1654)
(-0.218732 -0.549443 1.9361)
(0.0381301 -0.628074 1.48287)
(0.197005 -0.465521 1.55862)
(0.0358238 -0.399052 1.68277)
(-0.31996 -0.334365 2.07201)
(-0.281059 -0.551729 1.83159)
(0.18679 -0.448124 1.36015)
(0.353166 -0.503891 1.43222)
(0.353339 -0.495216 1.58606)
(-0.427859 -0.253312 2.1465)
(0.0793671 -0.29886 1.90158)
(0.457726 -0.253579 1.79878)
(0.0299351 -0.0419898 2.15058)
(0.179847 -0.263913 2.39233)
(0.107727 -0.137106 2.47556)
(0.105432 -0.131641 3.40951)
(0.0483918 -0.19671 3.38806)
(0.0193815 -0.401596 2.4715)
(-0.107348 -0.328538 2.1772)
(-0.0813459 -0.33006 2.24444)
(0.0506852 -0.382597 2.19907)
(-0.0401208 -0.143215 2.60869)
(-0.0568654 -0.282527 2.1153)
(-0.0558206 -0.400404 2.2087)
(-0.201611 -0.538308 1.95847)
(0.0801935 -0.554708 1.34913)
(0.195926 -0.396444 1.54927)
(0.0562206 -0.412986 1.91617)
(-0.378415 -0.428395 2.08468)
(-0.174687 -0.446865 1.53153)
(0.243328 -0.333154 1.04818)
(0.320645 -0.300442 1.27359)
(0.338798 -0.431916 1.7979)
(-0.387497 -0.167298 1.6915)
(0.209766 -0.339195 1.22529)
(0.498411 -0.275184 1.55437)
(0.0052085 -0.0457644 2.3781)
(0.187038 -0.267388 2.58693)
(0.113689 -0.114911 2.58551)
(0.0908452 -0.104599 3.6344)
(0.066744 -0.191683 3.46772)
(0.0454304 -0.422513 2.5698)
(0.0100586 -0.279183 2.28131)
(-0.0468166 -0.264238 2.36384)
(0.0459633 -0.377568 2.18673)
(-0.0178401 -0.0717922 2.75736)
(-0.0609217 -0.328552 2.20895)
(-0.067476 -0.464536 2.27103)
(-0.103442 -0.488545 1.93802)
(0.0658495 -0.429561 1.24419)
(0.138984 -0.292489 1.46568)
(-0.0200663 -0.229386 2.15963)
(-0.351346 -0.419685 2.07447)
(0.183505 -0.384997 1.12833)
(0.219016 -0.225645 0.845549)
(0.23283 -0.131227 1.15085)
(0.242261 -0.303636 1.97351)
(0.0517361 -0.10209 1.22604)
(0.159631 -0.197013 0.89422)
(0.304286 -0.14768 1.48795)
(-0.012785 -0.0487009 2.55734)
(0.190898 -0.262894 2.75411)
(0.135097 -0.0871468 2.68369)
(0.0951309 -0.0741865 3.84438)
(0.077568 -0.196921 3.53471)
(0.063013 -0.424933 2.65388)
(0.102272 -0.237287 2.37747)
(-0.0368504 -0.182289 2.48257)
(0.0277942 -0.350116 2.14772)
(0.00679428 -0.00866208 2.85916)
(-0.0589408 -0.332672 2.31611)
(-0.0477738 -0.469427 2.31352)
(0.0366557 -0.393391 1.92479)
(0.0435335 -0.277399 1.20532)
(0.094421 -0.247405 1.37271)
(-0.0521754 -0.0428924 2.27444)
(-0.270333 -0.26635 1.99962)
(0.262892 -0.329339 0.854734)
(0.151193 -0.145664 0.747114)
(0.146431 -0.0741142 1.07232)
(0.0209127 -0.0470275 2.04741)
(0.221938 -0.16708 0.729576)
(0.0135981 -0.0314986 0.848536)
(0.0849294 -0.0349572 1.50678)
(-0.0372998 -0.0576982 2.6914)
(0.190587 -0.253952 2.89038)
(0.155115 -0.0550924 2.76678)
(0.105682 -0.0363906 4.02852)
(0.0870976 -0.197025 3.57808)
(0.0672326 -0.414672 2.71779)
(0.155415 -0.201958 2.45157)
(-0.0117302 -0.114191 2.5942)
(0.00857327 -0.292285 2.12603)
(0.0284029 0.0242746 2.91965)
(-0.055308 -0.289267 2.42919)
(-0.049285 -0.451828 2.30907)
(0.0464855 -0.343573 1.92208)
(0.0414431 -0.122426 1.18767)
(0.0990458 -0.203669 1.2805)
(-0.0393734 0.00454897 2.26075)
(-0.221904 -0.288853 1.81508)
(0.134622 -0.228086 0.682441)
(0.0660971 -0.0825778 0.699735)
(0.0818742 -0.0609883 1.05834)
(-0.09618 0.160121 1.99558)
(0.000682139 -0.123264 0.503684)
(-0.110493 0.0616781 0.868927)
(-0.10309 0.0479902 1.54024)
(-0.0773919 -0.074493 2.77127)
(0.185299 -0.240518 3.00064)
(0.164848 -0.0188419 2.83938)
(0.111749 0.0106314 4.18405)
(0.09599 -0.183144 3.60878)
(0.0673282 -0.389682 2.75846)
(0.186432 -0.142994 2.52225)
(0.0270677 -0.0773949 2.68911)
(0.013054 -0.242547 2.11425)
(0.0245124 0.0309974 2.95033)
(-0.0483939 -0.230866 2.5643)
(-0.0414896 -0.402591 2.30051)
(-0.00466714 -0.312772 1.9109)
(0.0976713 -0.00981026 1.13654)
(0.160852 -0.142522 1.20755)
(-0.0299049 -0.021006 2.21348)
(-0.174436 -0.27231 1.63977)
(0.0599342 -0.141009 0.544027)
(0.0138747 -0.0494256 0.668972)
(0.0316041 -0.0286241 1.08305)
(-0.106463 0.228223 1.90365)
(-0.141024 -0.101178 0.356014)
(-0.183024 0.100651 0.8905)
(-0.189405 0.0883995 1.54956)
(-0.109299 -0.0862236 2.81838)
(0.176139 -0.223077 3.08757)
(0.169807 0.0128909 2.90085)
(0.118616 0.0803099 4.30335)
(0.103591 -0.163942 3.63383)
(0.0643585 -0.349024 2.76325)
(0.19559 -0.0513269 2.58263)
(0.0614602 -0.0524919 2.77189)
(0.0305734 -0.213166 2.12315)
(0.00777698 0.0292372 2.96772)
(-0.0427193 -0.141635 2.71855)
(-0.0592269 -0.291589 2.28224)
(-0.127316 -0.208164 1.87393)
(0.200952 0.0438649 1.03572)
(0.227286 -0.0780516 1.16937)
(-0.0032258 -0.0437911 2.17607)
(-0.0611218 -0.105257 1.52297)
(0.111823 -0.0816099 0.44099)
(0.00573039 -0.0477845 0.653903)
(0.01746 0.00667102 1.11644)
(-0.0743718 0.212265 1.8475)
(-0.171981 -0.11005 0.261893)
(-0.213651 0.120319 0.905947)
(-0.214637 0.107948 1.5383)
(-0.0864075 -0.066923 2.82001)
(0.166503 -0.204652 3.14638)
(0.178348 0.0247726 2.94452)
(0.124973 0.145929 4.37228)
(0.116105 -0.130489 3.66576)
(0.0498959 -0.305299 2.72925)
(0.14665 0.0298053 2.59572)
(0.0893181 -0.0259802 2.84223)
(0.0654686 -0.189957 2.16586)
(-0.0134126 0.0306577 2.97913)
(-0.0259395 -0.0323928 2.84238)
(-0.128139 -0.155459 2.19936)
(-0.212756 -0.0847877 1.77344)
(0.288909 0.0559004 0.913753)
(0.248124 -0.00851164 1.15993)
(0.0155566 -0.0373507 2.17807)
(0.147743 0.104748 1.49786)
(0.222641 -0.0524874 0.406492)
(0.0139361 -0.0577679 0.657189)
(0.0199347 0.0286458 1.16364)
(-0.0474058 0.192385 1.85447)
(-0.139255 -0.116792 0.242428)
(-0.222697 0.129076 0.924577)
(-0.240763 0.135925 1.51444)
(0.00718895 -0.0232171 2.78969)
(0.159813 -0.188189 3.18311)
(0.19336 0.0160631 2.97501)
(0.134551 0.181828 4.37795)
(0.143854 -0.0900351 3.7188)
(0.040547 -0.276367 2.65608)
(0.0393251 0.0569691 2.57466)
(0.105768 -0.00766298 2.87138)
(0.147791 -0.146787 2.23094)
(-0.0456669 0.0386397 2.98355)
(-0.0120093 0.0587901 2.93711)
(-0.167323 -0.0616817 2.06479)
(-0.160092 -0.0478461 1.65449)
(0.331891 0.0520825 0.808351)
(0.225246 0.0746283 1.1696)
(0.0466649 -0.00449099 2.22499)
(0.223501 0.226601 1.53936)
(0.307996 -0.0498477 0.432105)
(0.00582645 -0.062565 0.680905)
(0.0112808 0.0581122 1.20848)
(-0.0156606 0.152351 1.93727)
(-0.117945 -0.116672 0.286292)
(-0.236876 0.133056 0.953914)
(-0.243653 0.151905 1.48875)
(0.10192 0.0137497 2.75572)
(0.158624 -0.177971 3.20094)
(0.205561 0.00237652 2.99153)
(0.143631 0.185508 4.33446)
(0.178256 -0.0365217 3.82624)
(0.0434358 -0.255425 2.55549)
(-0.0698049 0.0462144 2.55578)
(0.108909 -0.00694112 2.86076)
(0.257514 -0.0936209 2.28179)
(-0.0526956 0.0509217 2.97638)
(-0.000268588 0.104721 3.02006)
(-0.14824 -0.0218697 1.94251)
(0.0110843 -0.0908004 1.49797)
(0.33455 0.0457806 0.751902)
(0.180345 0.156209 1.20126)
(0.0422424 0.0719718 2.35814)
(0.211428 0.215641 1.61026)
(0.347298 -0.0654306 0.476381)
(-0.0287272 -0.0475758 0.718137)
(-0.00910375 0.115704 1.24722)
(-0.00721074 0.121464 2.02436)
(-0.135327 -0.1066 0.366794)
(-0.267347 0.134232 0.995749)
(-0.253906 0.176435 1.45637)
(0.168558 0.0411014 2.71921)
(0.163344 -0.172555 3.20871)
(0.218206 -0.00255371 2.99825)
(0.181661 0.165868 4.23544)
(0.201905 0.00471163 3.97644)
(0.0420632 -0.247953 2.47292)
(-0.128995 0.0316663 2.54861)
(0.130539 -0.0428061 2.78409)
(0.346946 -0.0439363 2.31751)
(-0.0314676 0.054911 2.96926)
(0.00352984 0.119923 3.07363)
(-0.143805 -0.0171913 1.83729)
(0.163144 -0.165792 1.33862)
(0.310199 0.0429156 0.744802)
(0.12009 0.218827 1.2444)
(-0.0189655 0.215201 2.54561)
(0.179997 0.158303 1.66356)
(0.341702 -0.0889557 0.526522)
(-0.0782588 -0.0256165 0.768461)
(-0.0513932 0.20215 1.27095)
(-0.035394 0.147289 2.10641)
(-0.180953 -0.0812941 0.465256)
(-0.31298 0.138987 1.04854)
(-0.30225 0.218845 1.43192)
(0.181775 0.0560106 2.67851)
(0.166212 -0.169672 3.21114)
(0.227644 0.000524464 2.99317)
(0.237614 0.120363 4.09034)
(0.207327 0.0240135 4.14269)
(0.0298835 -0.249135 2.43251)
(-0.136164 0.022612 2.54762)
(0.175139 -0.0721344 2.66854)
(0.373369 0.0021587 2.33504)
(0.00913625 0.0667782 3.00486)
(0.00557022 0.101522 3.10596)
(-0.145794 -0.0683208 1.73497)
(0.208323 -0.20087 1.24115)
(0.271501 0.050447 0.768334)
(0.0496548 0.265092 1.2823)
(-0.0606976 0.325786 2.63942)
(0.116429 -0.00461444 1.48664)
(0.261039 -0.112373 0.569458)
(-0.138083 -0.00239337 0.817807)
(-0.118312 0.302018 1.28912)
(-0.0886304 0.239298 2.21776)
(-0.2499 -0.0704073 0.584623)
(-0.362674 0.151951 1.11063)
(-0.36287 0.265997 1.42293)
(0.158688 0.0553184 2.64914)
(0.165446 -0.160527 3.20963)
(0.237122 0.0119205 2.97924)
(0.282628 0.0789464 3.88361)
(0.213795 0.0308475 4.30453)
(0.00605607 -0.254435 2.43794)
(-0.117088 0.0207164 2.54844)
(0.184748 -0.023351 2.57109)
(0.340322 0.04325 2.3327)
(0.0385363 0.0811469 3.09961)
(-0.00185106 0.0791456 3.14187)
(-0.114653 -0.193654 1.70958)
(0.180565 -0.182764 1.21058)
(0.222315 0.0803539 0.815415)
(-0.0040836 0.306431 1.30222)
(-0.0593572 0.338064 2.6499)
(0.00916673 -0.143227 1.0702)
(0.140865 -0.136067 0.604885)
(-0.195394 0.0206296 0.85381)
(-0.158198 0.364034 1.29825)
(-0.138219 0.338717 2.33254)
(-0.321536 -0.0867731 0.693494)
(-0.406102 0.171669 1.17552)
(-0.41199 0.303666 1.43814)
(0.131478 0.0414743 2.64637)
(0.150364 -0.142563 3.2003)
(0.220989 0.0420248 2.94707)
(0.30096 0.0756755 3.65745)
(0.232975 0.0379727 4.45043)
(0.0130935 -0.242825 2.48556)
(-0.0843744 0.0472677 2.55902)
(0.167228 0.0736316 2.48065)
(0.25861 0.11905 2.29731)
(0.0615724 0.110232 3.2062)
(-0.0104853 0.0440487 3.1801)
(-0.0917243 -0.215161 1.70644)
(0.123464 -0.141594 1.17714)
(0.184669 0.129446 0.870418)
(-0.0231087 0.346899 1.31153)
(-0.0516806 0.333498 2.63646)
(-0.0487434 -0.168404 0.860205)
(0.0594211 -0.153244 0.620478)
(-0.227448 0.047487 0.880225)
(-0.173699 0.394471 1.30246)
(-0.160607 0.349722 2.40052)
(-0.377468 -0.109319 0.770534)
(-0.443636 0.184751 1.23604)
(-0.45392 0.332658 1.47742)
(0.140947 0.0313835 2.65291)
(0.131931 -0.105623 3.17066)
(0.241554 0.0575771 2.89385)
(0.291126 0.0992287 3.43625)
(0.246151 0.0532356 4.57856)
(0.0311397 -0.188215 2.56411)
(-0.100758 0.0897126 2.56887)
(0.146574 0.177074 2.39242)
(0.200174 0.20788 2.23156)
(0.0821301 0.14095 3.29284)
(-0.0179835 0.0346286 3.22056)
(-0.0924569 -0.147708 1.69514)
(0.104837 -0.104531 1.15661)
(0.165219 0.181386 0.93478)
(-0.0172826 0.381917 1.32539)
(-0.0354939 0.335966 2.6038)
(-0.0567249 -0.166507 0.8241)
(0.022086 -0.163524 0.638216)
(-0.235992 0.0727322 0.918774)
(-0.181351 0.416789 1.31268)
(-0.182406 0.35549 2.40639)
(-0.407938 -0.127192 0.826254)
(-0.470968 0.187058 1.29555)
(-0.491603 0.352865 1.53472)
(0.18577 0.028303 2.66417)
(0.143454 -0.006815 2.96319)
(0.272731 0.104565 2.80195)
(0.268981 0.124735 3.27571)
(0.250932 0.0645699 4.66373)
(0.070479 -0.0778 2.66075)
(-0.126289 0.1854 2.5692)
(0.133584 0.237323 2.27721)
(0.184892 0.27613 2.14148)
(0.0960016 0.180083 3.36256)
(-0.0197465 0.0280201 3.23973)
(-0.136592 0.0420236 1.67941)
(0.101217 -0.0406001 1.1753)
(0.169514 0.232484 1.00093)
(-0.00191684 0.400043 1.34435)
(-0.0100653 0.364138 2.57162)
(-0.019207 -0.107301 0.922766)
(0.014718 -0.162181 0.672696)
(-0.2125 0.0913083 0.974105)
(-0.18268 0.430522 1.33257)
(-0.194646 0.376741 2.39352)
(-0.413722 -0.136128 0.872957)
(-0.485956 0.186303 1.3627)
(-0.518304 0.365369 1.606)
(0.211464 0.0306536 2.68098)
(0.0900545 0.0872745 2.49701)
(0.278997 0.108094 2.63754)
(0.230534 0.121955 3.18304)
(0.225267 0.0593246 4.71346)
(0.111517 0.0265566 2.78101)
(-0.0927272 0.2408 2.53866)
(0.151798 0.229681 2.13229)
(0.20147 0.284707 2.03924)
(0.123925 0.228553 3.40532)
(-0.0158073 0.0526148 3.26893)
(-0.16738 0.156256 1.68571)
(0.0845047 0.0548808 1.20453)
(0.203126 0.269631 1.06178)
(0.0155097 0.39777 1.36858)
(0.00261062 0.428778 2.56974)
(0.0158738 -0.0581079 1.06581)
(0.0229719 -0.153503 0.734264)
(-0.173706 0.0872439 1.05316)
(-0.17081 0.429235 1.36788)
(-0.204982 0.433457 2.40304)
(-0.402374 -0.135689 0.920211)
(-0.490918 0.182358 1.44706)
(-0.534326 0.372504 1.69397)
(0.222748 0.0538423 2.67294)
(0.072691 -0.0103032 2.13479)
(0.228039 -0.0121519 2.41957)
(0.201046 0.0790223 3.17537)
(0.173838 0.0278208 4.72762)
(0.11685 0.0723451 2.82643)
(0.0112752 0.234266 2.46313)
(0.220062 0.161466 1.99035)
(0.235265 0.226878 1.94651)
(0.139194 0.270668 3.44587)
(-0.0145426 0.0934535 3.29845)
(-0.195492 0.242675 1.75501)
(0.0697587 0.124397 1.2219)
(0.256152 0.280435 1.10535)
(0.0415156 0.378354 1.39809)
(0.00355032 0.492197 2.58663)
(0.0377175 -0.0433768 1.19429)
(0.0360396 -0.146651 0.815927)
(-0.137096 0.0595935 1.14114)
(-0.131858 0.404769 1.42436)
(-0.214689 0.487696 2.47073)
(-0.379044 -0.131663 0.969095)
(-0.48484 0.170145 1.5435)
(-0.539489 0.37074 1.79164)
(0.20594 0.064958 2.5536)
(0.0692983 -0.099534 1.94149)
(0.160341 -0.115683 2.25351)
(0.149218 -0.027168 3.23119)
(0.120169 -0.0159778 4.71218)
(0.112522 0.082446 2.77993)
(0.163012 0.174049 2.24868)
(0.304203 0.0727574 1.86551)
(0.269189 0.136665 1.87857)
(0.150652 0.338901 3.48969)
(-0.00478853 0.135979 3.34853)
(-0.195404 0.282084 1.87851)
(0.0664408 0.141365 1.22786)
(0.306536 0.260808 1.12797)
(0.0722409 0.343739 1.4302)
(0.0164035 0.525191 2.62476)
(0.0720227 -0.0276697 1.28516)
(0.0445988 -0.148569 0.903624)
(-0.118445 0.0135955 1.23406)
(-0.105719 0.365676 1.4908)
(-0.222967 0.522784 2.57578)
(-0.348922 -0.130803 1.01087)
(-0.473761 0.143757 1.64251)
(-0.53349 0.359976 1.88995)
(0.145681 0.0275046 2.53826)
(0.00895773 -0.0936815 1.89192)
(0.134457 -0.137831 2.20859)
(0.0217659 -0.167794 3.38091)
(0.0621855 -0.0883557 4.68394)
(-0.00673547 0.120476 2.68559)
(0.166295 0.130792 1.99541)
(0.375007 0.00468807 1.74361)
(0.283503 0.0562832 1.83451)
(0.18223 0.376739 3.52957)
(0.0155916 0.197549 3.396)
(-0.116765 0.273014 1.99955)
(0.067752 0.121374 1.22834)
(0.327657 0.198939 1.1355)
(0.0874035 0.291392 1.4672)
(0.0321105 0.529661 2.68206)
(0.105441 -0.0065719 1.35131)
(0.0511549 -0.161243 0.990912)
(-0.121065 -0.031311 1.31645)
(-0.0883552 0.318932 1.55513)
(-0.232938 0.538363 2.68714)
(-0.317123 -0.130928 1.03927)
(-0.450983 0.0990569 1.72618)
(-0.512657 0.337942 1.97887)
(0.0760038 -0.00460044 2.72348)
(-0.0205591 -0.0878408 1.95688)
(0.130704 -0.125405 2.22764)
(-0.0267415 -0.212561 3.58635)
(0.0526012 -0.124646 4.64329)
(-0.11251 0.0855124 2.54781)
(0.0852148 0.0939874 1.73216)
(0.404192 -0.0190865 1.62074)
(0.279069 0.0227481 1.81235)
(0.196407 0.340804 3.57309)
(0.0208029 0.237969 3.36645)
(0.00233955 0.229374 2.13443)
(0.0677692 0.0288052 1.23139)
(0.294785 0.112395 1.14352)
(0.0826117 0.236496 1.50299)
(0.0355298 0.507287 2.74532)
(0.11445 0.00481868 1.42113)
(0.0551622 -0.180382 1.06952)
(-0.141689 -0.0603958 1.38747)
(-0.083705 0.270239 1.60804)
(-0.238255 0.535957 2.7823)
(-0.289906 -0.13071 1.05067)
(-0.412006 0.0491895 1.79194)
(-0.483533 0.308494 2.04726)
(0.0408674 -0.00425715 2.96377)
(-0.0123335 -0.0934961 2.08286)
(0.13446 -0.115 2.28885)
(0.0329764 -0.139042 3.70687)
(0.0489582 -0.104188 4.58941)
(0.0187546 -0.0666237 2.34065)
(0.01314 0.0358219 1.50412)
(0.372603 0.0150989 1.50978)
(0.263863 0.0443588 1.80872)
(0.179595 0.248502 3.59063)
(0.0430916 0.33879 3.32026)
(0.0685535 0.148686 2.2719)
(0.0534721 -0.0906048 1.2446)
(0.220266 0.0344693 1.15518)
(0.0700898 0.210387 1.53178)
(0.0387104 0.451455 2.7875)
(0.0906002 0.0143565 1.49624)
(0.0536264 -0.196172 1.12842)
(-0.167554 -0.069004 1.4394)
(-0.0894769 0.235525 1.64637)
(-0.232883 0.515593 2.85176)
(-0.264405 -0.130119 1.05147)
(-0.365395 0.00155769 1.85372)
(-0.45517 0.282077 2.09221)
(0.0341279 0.0133759 3.12157)
(0.0189974 -0.0809865 2.23882)
(0.126472 -0.128431 2.34453)
(0.091748 0.00378243 3.776)
(0.0617875 -0.0544484 4.51554)
(0.0472935 -0.147839 2.11267)
(-0.0399586 -0.0304712 1.33722)
(0.308441 0.0796057 1.4224)
(0.214435 0.180277 1.82589)
(0.173536 0.186096 3.58426)
(0.0500512 0.395113 3.22693)
(0.0812472 0.0475613 2.39216)
(0.0256534 -0.171521 1.25755)
(0.128056 -0.0215282 1.17712)
(0.0635184 0.224752 1.56085)
(0.0351559 0.386772 2.81135)