/*--------------------------------*- C++ -*----------------------------------*\
| =========                 |                                                 |
| \\      /  F ield         | OpenFOAM: The Open Source CFD Toolbox           |
|  \\    /   O peration     | Version:  5.x                                   |
|   \\  /    A nd           | Web:      www.OpenFOAM.org                      |
|    \\/     M anipulation  |                                                 |
\*---------------------------------------------------------------------------*/
FoamFile
{
    version     2.0;
    format      ascii;
    class       volVectorField;
    location    "1.05";
    object      Us;
}
// * * * * * * * * * * * * * * * * * * * * * * * * * * * * * * * * * * * * * //

dimensions      [0 1 -1 0 0 0 0];

internalField   nonuniform List<vector> 
10571
(
(0.0701728 0.0375735 0.0552058)
(-0.0411736 0.0478275 0.144353)
(0.0319908 0.0345846 0.117133)
(0.103393 0.0557959 0.0535724)
(0.140912 0.088058 0.0463866)
(-0.016836 0.0793029 0.201548)
(0.120461 0.101006 0.149689)
(0.246507 0.124343 0.10357)
(0.205335 0.140697 0.0796408)
(-0.0348197 0.00806588 0.0452971)
(-0.00678631 0.0728362 0.126155)
(0.00410253 0.0771984 0.17831)
(0.103506 0.0820601 0.180946)
(0.090805 0.0366811 0.147799)
(0.0624458 0.103193 0.102847)
(-0.0342733 0.0634999 -0.0252516)
(-0.0399547 -0.0488078 0.144259)
(0.0571811 -0.111155 0.130429)
(0.143511 0.00765665 0.0691732)
(0.0900112 0.103678 0.142467)
(-0.00389018 0.0193217 0.0382969)
(0.0537951 0.0130586 0.118706)
(0.186266 0.0353588 0.130266)
(0.0477488 0.00219084 0.0843641)
(-0.00831032 0.0412216 0.198918)
(-0.0669256 0.0849032 0.314118)
(-0.0382487 0.0799113 0.285353)
(0.0748002 0.160174 0.284115)
(0.0197438 0.131115 0.213269)
(-0.0236093 0.144822 0.232532)
(0.0227937 0.0887477 0.153166)
(0.0418175 0.0791156 0.192662)
(0.00723588 0.094432 0.125903)
(-0.0131292 0.0296744 0.0338124)
(-0.0870656 0.19919 0.135154)
(-0.00563847 0.0786811 0.189641)
(0.0233351 0.0681212 0.197288)
(0.0192098 0.130305 0.129082)
(0.00847141 0.140643 0.122097)
(-0.00255564 0.0605444 0.0145522)
(0.00764589 -0.00880765 0.106828)
(0.0665165 0.038541 0.0930918)
(0.0542659 0.10189 0.196826)
(0.0338105 0.133937 0.272392)
(-0.00618 0.0369253 0.0909251)
(0.0857777 0.00722571 0.123257)
(0.126588 0.0103557 0.250004)
(0.0461522 -0.00865914 0.290667)
(-0.092726 0.00161851 0.0300939)
(0.0809479 0.122001 0.167072)
(-0.114612 0.0537972 0.262794)
(0.0184416 0.0663756 0.305171)
(-0.0350619 0.0813268 0.19097)
(0 0 0)
(-0.0565697 0.075048 0.103765)
(-0.0339299 0.0294521 0.147476)
(-0.0138392 0.0080488 0.0850571)
(-0.00409089 -0.0117278 5.86469e-05)
(0 0 0)
(1.7977e-14 -2.51902e-14 3.64133e-14)
(-0.0995917 0.0907916 -0.0175789)
(-0.0473394 0.121473 0.0667288)
(-0.0221476 0.124468 0.0716119)
(-0.00576962 0.0413706 0.0029819)
(-0.194386 -0.0904595 -0.396005)
(-0.0722925 0.0247798 -0.122806)
(-0.00743458 0.114621 0.201759)
(-0.0192244 0.176813 0.409087)
(-0.0401159 0.0767366 0.109332)
(-0.0582976 -0.0698277 -0.324231)
(0.0403384 -0.00951 0.299237)
(0.0100194 -0.00151017 0.368799)
(-0.126447 -0.019108 -0.0833107)
(0 0 0)
(0 0 0)
(-0.0900493 -0.0692413 -0.103432)
(-0.0107239 0.00441333 -0.102838)
(0 0 0)
(-0.118806 -0.150274 -0.304082)
(-0.0572045 0.0389463 -0.02617)
(-0.0259511 -0.00724255 -0.0425892)
(-0.0107644 -0.0151952 -0.0403788)
(-0.311042 -0.379994 -0.24021)
(0.0410628 -0.45081 -0.434036)
(-0.100724 -0.0725437 -0.267484)
(-0.0630151 0.0599034 -0.0625633)
(-0.0283383 0.0903735 -0.033959)
(-0.0101026 0.0409953 -0.0415891)
(-0.162818 -0.159574 -0.315669)
(-0.0763758 -0.115887 -0.249006)
(0.00879348 -0.0594374 -0.142693)
(0.0273674 0.0594409 0.112951)
(-0.0696238 0.117291 0.0267178)
(0 0 0)
(-0.0648299 -0.0152538 0.0421584)
(-0.0898334 0.0557565 0.117876)
(0 0 0)
(0 0 0)
(0 0 0)
(-0.0899486 -0.0537396 -0.0286493)
(0.0140683 -0.0378317 -0.120474)
(0 0 0)
(-0.187176 -0.229573 -0.241273)
(-0.0267406 -0.0339202 -0.145437)
(-0.0038142 -0.0073699 -0.108511)
(-0.0094822 0.0048511 -0.0941826)
(0.111254 -0.395202 -0.190733)
(0 0 0)
(-0.0860739 -0.173361 -0.205045)
(-0.0141369 -0.113046 -0.201235)
(-0.00113907 -0.0183214 -0.111906)
(-0.0122131 0.019519 -0.0938816)
(-0.171732 -0.156528 -0.241053)
(-0.0839148 -0.15452 -0.175196)
(-0.0140078 -0.0792416 -0.084995)
(0.0215241 -0.00546983 -0.0232521)
(-0.0221995 0.0281666 -0.101982)
(0 0 0)
(-0.0881998 -0.0612257 0.155691)
(-0.131206 0.0342595 0.0479343)
(0 0 0)
(0 0 0)
(0 0 0)
(-0.0889871 -0.362502 -0.24145)
(0.0748259 -0.035574 0.0166976)
(0 0 0)
(-0.124802 -0.276477 -0.183315)
(-0.0295747 -0.250957 -0.210528)
(0.0309189 -0.114874 -0.114968)
(0.0268765 -0.00226189 -0.0662639)
(0.00896008 -0.0111299 0.00233281)
(0 0 0)
(-0.241297 -0.220741 -0.130182)
(-0.0780887 -0.213312 -0.151956)
(0.0229884 -0.199031 -0.156617)
(0.0806334 -0.163374 -0.145046)
(0.0355357 -0.0877347 -0.113337)
(0.00373862 -0.00123779 -0.000573812)
(-0.192198 -0.173636 -0.13874)
(-0.090356 -0.147468 -0.0633145)
(-0.166673 -0.120227 0.0782894)
(0.0134566 0.0177168 0.041196)
(0.026761 -0.0613085 -0.0537411)
(0 0 0)
(-0.130975 -0.0289301 0.270621)
(-0.147558 0.0355877 0.0450666)
(0 0 0)
(0.00638575 0.00277206 -1.10597)
(0 0 0)
(0 0 0)
(0 0 0)
(0 0 0)
(-0.100479 -0.296497 -0.0938101)
(-0.0197213 -0.251923 -0.216206)
(0.0715459 -0.250161 -0.182124)
(0.0754672 -0.258533 -0.151214)
(0.181039 -0.239229 -0.140078)
(0 0 0)
(0 0 0)
(-0.0691167 -0.214328 -0.046469)
(0.0169868 -0.222169 -0.078714)
(0.0993442 -0.211087 -0.132267)
(0.1667 -0.211222 -0.156637)
(0.18008 -0.219195 -0.189727)
(-0.184947 -0.191926 -0.0718656)
(-0.0703066 -0.162392 0.0221692)
(-0.0581994 -0.102035 0.091615)
(0.0481573 -0.0592893 0.0639081)
(0.0518534 -0.0677948 0.00652406)
(0 0 0)
(-0.159542 -0.0419414 0.14583)
(-0.104092 -0.0367919 0.313466)
(-0.146073 -0.0120784 -0.225554)
(0 0 0)
(0 0 0)
(0 0 0)
(0 0 0)
(0 0 0)
(0 0 0)
(-0.184497 -0.368526 0.0300682)
(0.0274645 -0.300191 -0.0484817)
(0.038343 -0.313083 -0.150926)
(0.0617064 -0.388286 -0.236102)
(0.182758 -0.316571 -0.107797)
(0 0 0)
(0 0 0)
(-0.071005 -0.237102 0.0464502)
(0.0142148 -0.228812 -0.00595436)
(0.0784326 -0.203181 -0.078449)
(0.152991 -0.214486 -0.122776)
(0.202028 -0.224327 -0.110144)
(-0.289879 -0.172785 0.0232672)
(-0.0986523 -0.168301 0.144133)
(-0.0503511 -0.10427 0.078137)
(-0.00168488 -0.0829452 0.00884779)
(0.156797 -0.0680596 -0.250209)
(0 0 0)
(0 0 0)
(-0.1426 -0.037682 0.451135)
(-0.123801 0.0970328 -1.03159)
(0 0 0)
(0 0 0)
(0 0 0)
(0 0 0)
(0 0 0)
(0 0 0)
(0 0 0)
(0.0088235 -0.34373 0.0490393)
(0.0504807 -0.360927 -0.0374492)
(0 0 0)
(0.112001 -0.049534 -0.340968)
(0 0 0)
(0 0 0)
(-0.0819439 -0.227833 0.135715)
(0.00202758 -0.226969 0.0753676)
(0.0546207 -0.205703 -0.0445044)
(0.166795 -0.226402 -0.0208922)
(0.222276 -0.241542 -0.0391997)
(-0.219597 -0.220446 0.0708731)
(-0.132132 -0.161163 0.184198)
(-0.0922436 -0.149096 0.145464)
(0.104119 -0.104348 0.0982453)
(0.00146933 -0.091753 -0.08808)
(-0.189039 -0.125558 0.126235)
(-0.0923023 -0.0646143 0.406048)
(-0.0275187 0.00650772 -0.0304693)
(0 0 0)
(0 0 0)
(0 0 0)
(0 0 0)
(0 0 0)
(0 0 0)
(0 0 0)
(0 0 0)
(0.0598281 -0.341455 0.0366543)
(0.0395365 0.0309286 -1.12637)
(0 0 0)
(-0.343871 -0.194591 0.118887)
(-0.110957 -0.237496 0.184756)
(-0.00822515 -0.227909 0.120342)
(0.0414048 -0.221897 0.0422062)
(0.0780902 -0.213135 0.016896)
(-0.278342 -0.199589 0.194814)
(-0.137405 -0.161177 0.237979)
(-0.048592 -0.153833 0.194665)
(0.0305558 -0.0170181 0.00896249)
(-0.00746387 -0.0250567 -0.477503)
(-0.229644 -0.0662632 0.240299)
(-0.112773 0.0218328 0.427339)
(0 0 0)
(0 0 0)
(0 0 0)
(0 0 0)
(0 0 0)
(0.0165208 0.0212213 -1.09566)
(0 0 0)
(0 0 0)
(0 0 0)
(-0.00189222 -0.204844 -0.206909)
(0.0384126 0.0234803 -1.1041)
(0 0 0)
(0 0 0)
(-0.281116 -0.329212 0.209593)
(-0.0211383 -0.219488 0.205264)
(0.0572369 -0.205326 0.17086)
(0.023266 -0.24691 0.0694557)
(-0.264261 -0.230923 0.271909)
(-0.16266 -0.110622 0.31767)
(-0.0990621 -0.121767 0.326886)
(-0.0398494 -0.0608447 0.138579)
(0.00599797 -0.150556 0.0319713)
(-0.294975 -0.0776411 0.31092)
(-0.155168 -0.0662615 0.437164)
(0.0157751 -0.0726719 0.246896)
(0 0 0)
(0 0 0)
(0 0 0)
(0 0 0)
(0 0 0)
(0 0 0)
(0 0 0)
(0 0 0)
(-4.3914e-16 -7.12375e-15 1.21417e-13)
(0 0 0)
(0 0 0)
(-0.382553 -0.297246 0.288934)
(-0.212215 -0.257904 0.272601)
(-0.011676 -0.212566 0.282053)
(0.0519481 -0.208328 0.251743)
(0.000905118 -0.185752 0.0803687)
(-0.125107 -0.330402 0.234753)
(-0.224769 -0.116097 0.389491)
(-0.101323 -0.149637 0.364372)
(-0.0716223 -0.0571661 0.173175)
(-0.0550161 0.0876376 -0.927377)
(-0.194683 -0.134782 0.313462)
(-0.207586 -0.00197289 0.756743)
(0.0187943 -0.142137 0.561833)
(0 0 0)
(0 0 0)
(0 0 0)
(0 0 0)
(-1.39216e-15 -3.27511e-15 1.19585e-13)
(0 0 0)
(-0.318399 -0.413896 0.318775)
(0 0 0)
(0.0649031 -0.371658 0.352416)
(-7.50683e-16 -4.91817e-15 1.1745e-13)
(0 0 0)
(0 0 0)
(-0.212706 -0.243768 0.434532)
(-0.0254411 -0.208938 0.368113)
(0.0502341 -0.199454 0.339225)
(0.150454 -0.217642 0.249555)
(0 0 0)
(-0.265776 -0.148499 0.402068)
(-0.0666526 -0.128826 0.439093)
(0.0311112 -0.107359 0.330179)
(0.159578 -0.145502 0.331593)
(-0.259714 -0.0113585 0.461701)
(-0.212014 0.00569352 0.712314)
(-0.0117295 0.11812 0.64137)
(0 0 0)
(0 0 0)
(0 0 0)
(0 0 0)
(0 0 0)
(0 0 0)
(0 0 0)
(0 0 0)
(0 0 0)
(0 0 0)
(0 0 0)
(0 0 0)
(-0.173096 -0.232914 0.475181)
(-0.0409315 -0.209487 0.46308)
(0.0311415 -0.205447 0.42399)
(0 0 0)
(0 0 0)
(-0.237886 -0.10955 0.56129)
(-0.059548 -0.123362 0.496222)
(0.0436572 -0.117538 0.421239)
(0 0 0)
(0 0 0)
(-0.159045 -0.00643149 0.798458)
(0.052076 0.0961917 0.418934)
(0 0 0)
(0 0 0)
(0 0 0)
(0 0 0)
(0 0 0)
(0 0 0)
(0 0 0)
(0 0 0)
(0 0 0)
(0 0 0)
(0 0 0)
(0 0 0)
(0 0 0)
(-0.102309 -0.212358 0.561987)
(0 0 0)
(0 0 0)
(0 0 0)
(-0.185523 -0.0915169 0.626178)
(-0.079735 -0.104071 0.602396)
(0.018078 -0.116269 0.530828)
(0 0 0)
(0 0 0)
(1.55646e-14 2.1285e-14 -8.9703e-14)
(0.0191175 0.0142687 0.501921)
(0 0 0)
(0 0 0)
(0 0 0)
(0 0 0)
(0 0 0)
(0 0 0)
(0 0 0)
(0 0 0)
(0 0 0)
(0 0 0)
(0 0 0)
(0 0 0)
(0 0 0)
(0 0 0)
(-2.2241e-15 3.01799e-14 -7.61468e-14)
(0 0 0)
(0 0 0)
(0 0 0)
(-0.0843342 -0.0615033 0.703951)
(0 0 0)
(0 0 0)
(5.28388e-14 4.46179e-16 -8.1823e-14)
(-0.0977615 -0.015168 0.80278)
(0 0 0)
(0 0 0)
(0 0 0)
(0 0 0)
(0 0 0)
(0 0 0)
(0 0 0)
(0 0 0)
(0 0 0)
(0 0 0)
(0 0 0)
(0 0 0)
(0 0 0)
(0 0 0)
(0 0 0)
(0.0197538 -0.268899 0.671199)
(0 0 0)
(0 0 0)
(0 0 0)
(0 0 0)
(0 0 0)
(0 0 0)
(0 0 0)
(-0.138123 0.08108 0.839196)
(0 0 0)
(0 0 0)
(0 0 0)
(0 0 0)
(0 0 0)
(0 0 0)
(0 0 0)
(0 0 0)
(0 0 0)
(0 0 0)
(0 0 0)
(0 0 0)
(0 0 0)
(0 0 0)
(0 0 0)
(0 0 0)
(0 0 0)
(0 0 0)
(0 0 0)
(0 0 0)
(0 0 0)
(0 0 0)
(0 0 0)
(0 0 0)
(0 0 0)
(0 0 0)
(0 0 0)
(0 0 0)
(0 0 0)
(0 0 0)
(0 0 0)
(0 0 0)
(0 0 0)
(0 0 0)
(0 0 0)
(0 0 0)
(0 0 0)
(0 0 0)
(0 0 0)
(0 0 0)
(0 0 0)
(0 0 0)
(0 0 0)
(0 0 0)
(0 0 0)
(0 0 0)
(0 0 0)
(0 0 0)
(0 0 0)
(0 0 0)
(0 0 0)
(0 0 0)
(0 0 0)
(0 0 0)
(0 0 0)
(0 0 0)
(0 0 0)
(0 0 0)
(0 0 0)
(0 0 0)
(0 0 0)
(0 0 0)
(0 0 0)
(0 0 0)
(0 0 0)
(0 0 0)
(0 0 0)
(0 0 0)
(0 0 0)
(0 0 0)
(0 0 0)
(0 0 0)
(0 0 0)
(0 0 0)
(0 0 0)
(0 0 0)
(0 0 0)
(0 0 0)
(0 0 0)
(0 0 0)
(0 0 0)
(0 0 0)
(0 0 0)
(0 0 0)
(0 0 0)
(0 0 0)
(0 0 0)
(0 0 0)
(0 0 0)
(0 0 0)
(0 0 0)
(0 0 0)
(0 0 0)
(0 0 0)
(0 0 0)
(0 0 0)
(0 0 0)
(0 0 0)
(0 0 0)
(0 0 0)
(0 0 0)
(0 0 0)
(0 0 0)
(0 0 0)
(0 0 0)
(0 0 0)
(0 0 0)
(0 0 0)
(0 0 0)
(0 0 0)
(0 0 0)
(0 0 0)
(0 0 0)
(0 0 0)
(0 0 0)
(0 0 0)
(0 0 0)
(0 0 0)
(0 0 0)
(0 0 0)
(0 0 0)
(0 0 0)
(0 0 0)
(0 0 0)
(0 0 0)
(0 0 0)
(0 0 0)
(0 0 0)
(0 0 0)
(0 0 0)
(0 0 0)
(0 0 0)
(0 0 0)
(0 0 0)
(0 0 0)
(0 0 0)
(0 0 0)
(0 0 0)
(0 0 0)
(0 0 0)
(0 0 0)
(0 0 0)
(0 0 0)
(0 0 0)
(0 0 0)
(0 0 0)
(0 0 0)
(0 0 0)
(0 0 0)
(0 0 0)
(0 0 0)
(0 0 0)
(0 0 0)
(0 0 0)
(0 0 0)
(0 0 0)
(0 0 0)
(0 0 0)
(0 0 0)
(0 0 0)
(0 0 0)
(0 0 0)
(0 0 0)
(0 0 0)
(0 0 0)
(0 0 0)
(0 0 0)
(0 0 0)
(0 0 0)
(0 0 0)
(0 0 0)
(0 0 0)
(0 0 0)
(0 0 0)
(0 0 0)
(0 0 0)
(0 0 0)
(0 0 0)
(0 0 0)
(0 0 0)
(0 0 0)
(0 0 0)
(0 0 0)
(0 0 0)
(0 0 0)
(0 0 0)
(0 0 0)
(0 0 0)
(0 0 0)
(0 0 0)
(0 0 0)
(0 0 0)
(0 0 0)
(0 0 0)
(0 0 0)
(0 0 0)
(0 0 0)
(0 0 0)
(0 0 0)
(0 0 0)
(0 0 0)
(0 0 0)
(0 0 0)
(0 0 0)
(0 0 0)
(0 0 0)
(0 0 0)
(0 0 0)
(0 0 0)
(0 0 0)
(0 0 0)
(0 0 0)
(0 0 0)
(0 0 0)
(0 0 0)
(0 0 0)
(0 0 0)
(0 0 0)
(0 0 0)
(0 0 0)
(0 0 0)
(0 0 0)
(0 0 0)
(0 0 0)
(0 0 0)
(0 0 0)
(0 0 0)
(0 0 0)
(0 0 0)
(0 0 0)
(0 0 0)
(0 0 0)
(0 0 0)
(0 0 0)
(0 0 0)
(0 0 0)
(0 0 0)
(0 0 0)
(0 0 0)
(0 0 0)
(0 0 0)
(0 0 0)
(0 0 0)
(0 0 0)
(0 0 0)
(0 0 0)
(0 0 0)
(0 0 0)
(0 0 0)
(0 0 0)
(0 0 0)
(0 0 0)
(0 0 0)
(0 0 0)
(0 0 0)
(0 0 0)
(0 0 0)
(0 0 0)
(0 0 0)
(0 0 0)
(0 0 0)
(0 0 0)
(0 0 0)
(0 0 0)
(0 0 0)
(0 0 0)
(0 0 0)
(0 0 0)
(0 0 0)
(0 0 0)
(0 0 0)
(0 0 0)
(0 0 0)
(0 0 0)
(0 0 0)
(0 0 0)
(0 0 0)
(0 0 0)
(0 0 0)
(0 0 0)
(0 0 0)
(0 0 0)
(0 0 0)
(0 0 0)
(0 0 0)
(0 0 0)
(0 0 0)
(0 0 0)
(0 0 0)
(0 0 0)
(0 0 0)
(0 0 0)
(0 0 0)
(0 0 0)
(0 0 0)
(0 0 0)
(0 0 0)
(0 0 0)
(0 0 0)
(0 0 0)
(0 0 0)
(0 0 0)
(0 0 0)
(0 0 0)
(0 0 0)
(0 0 0)
(0 0 0)
(0 0 0)
(0 0 0)
(0 0 0)
(0 0 0)
(0 0 0)
(0 0 0)
(0 0 0)
(0 0 0)
(0 0 0)
(0 0 0)
(0 0 0)
(0 0 0)
(0 0 0)
(0 0 0)
(0 0 0)
(0 0 0)
(0 0 0)
(0 0 0)
(0 0 0)
(0 0 0)
(0 0 0)
(0 0 0)
(0 0 0)
(0 0 0)
(0 0 0)
(0 0 0)
(0 0 0)
(0 0 0)
(0 0 0)
(0 0 0)
(0 0 0)
(0 0 0)
(0 0 0)
(0 0 0)
(0 0 0)
(0 0 0)
(0 0 0)
(0 0 0)
(0 0 0)
(0 0 0)
(0 0 0)
(0 0 0)
(0 0 0)
(0 0 0)
(0 0 0)
(0 0 0)
(0 0 0)
(0 0 0)
(0 0 0)
(0 0 0)
(0 0 0)
(0 0 0)
(0 0 0)
(0 0 0)
(0 0 0)
(0 0 0)
(0 0 0)
(0 0 0)
(0 0 0)
(0 0 0)
(0 0 0)
(0 0 0)
(0 0 0)
(0 0 0)
(0 0 0)
(0 0 0)
(0 0 0)
(0 0 0)
(0 0 0)
(0 0 0)
(0 0 0)
(0 0 0)
(0 0 0)
(0 0 0)
(0 0 0)
(0 0 0)
(0 0 0)
(0 0 0)
(0 0 0)
(0 0 0)
(0 0 0)
(0 0 0)
(0 0 0)
(0 0 0)
(0 0 0)
(0 0 0)
(0 0 0)
(0 0 0)
(0 0 0)
(0 0 0)
(0 0 0)
(0 0 0)
(0 0 0)
(0 0 0)
(0 0 0)
(0 0 0)
(0 0 0)
(0 0 0)
(0 0 0)
(0 0 0)
(0 0 0)
(0 0 0)
(0 0 0)
(0 0 0)
(0 0 0)
(0 0 0)
(0 0 0)
(0 0 0)
(0 0 0)
(0 0 0)
(0 0 0)
(0 0 0)
(0 0 0)
(0 0 0)
(0 0 0)
(0 0 0)
(0 0 0)
(0 0 0)
(0 0 0)
(0 0 0)
(0 0 0)
(0 0 0)
(0 0 0)
(0 0 0)
(0 0 0)
(0 0 0)
(0 0 0)
(0 0 0)
(0 0 0)
(0 0 0)
(0 0 0)
(0 0 0)
(0 0 0)
(0 0 0)
(0 0 0)
(0 0 0)
(0 0 0)
(0 0 0)
(0 0 0)
(0 0 0)
(0 0 0)
(0 0 0)
(0 0 0)
(0 0 0)
(0 0 0)
(0 0 0)
(0 0 0)
(0 0 0)
(0 0 0)
(0 0 0)
(0 0 0)
(0 0 0)
(0 0 0)
(0 0 0)
(0 0 0)
(0 0 0)
(0 0 0)
(0 0 0)
(0 0 0)
(0 0 0)
(0 0 0)
(0 0 0)
(0 0 0)
(0 0 0)
(0 0 0)
(0 0 0)
(0 0 0)
(0 0 0)
(0 0 0)
(0 0 0)
(0 0 0)
(0 0 0)
(0 0 0)
(0 0 0)
(0 0 0)
(0 0 0)
(0 0 0)
(0 0 0)
(0 0 0)
(0 0 0)
(0 0 0)
(0 0 0)
(0 0 0)
(0 0 0)
(0 0 0)
(0 0 0)
(0 0 0)
(0 0 0)
(0 0 0)
(0 0 0)
(0 0 0)
(0 0 0)
(0 0 0)
(0 0 0)
(0 0 0)
(0 0 0)
(0 0 0)
(0 0 0)
(0 0 0)
(0 0 0)
(0 0 0)
(0 0 0)
(0 0 0)
(0 0 0)
(0 0 0)
(0 0 0)
(0 0 0)
(0 0 0)
(0 0 0)
(0 0 0)
(0 0 0)
(0 0 0)
(0 0 0)
(0 0 0)
(0 0 0)
(0 0 0)
(0 0 0)
(0 0 0)
(0 0 0)
(0 0 0)
(0 0 0)
(0 0 0)
(0 0 0)
(0 0 0)
(0 0 0)
(0 0 0)
(0 0 0)
(0 0 0)
(0 0 0)
(0 0 0)
(0 0 0)
(0 0 0)
(0 0 0)
(0 0 0)
(0 0 0)
(0 0 0)
(0 0 0)
(0 0 0)
(0 0 0)
(0 0 0)
(0 0 0)
(0 0 0)
(0 0 0)
(0 0 0)
(0 0 0)
(0 0 0)
(0 0 0)
(0 0 0)
(0 0 0)
(0 0 0)
(0 0 0)
(0 0 0)
(0 0 0)
(0 0 0)
(0 0 0)
(0 0 0)
(0 0 0)
(0 0 0)
(0 0 0)
(0 0 0)
(0 0 0)
(0 0 0)
(0 0 0)
(0 0 0)
(0 0 0)
(0 0 0)
(0 0 0)
(0 0 0)
(0 0 0)
(0 0 0)
(0 0 0)
(0 0 0)
(0 0 0)
(0 0 0)
(0 0 0)
(0 0 0)
(0 0 0)
(0 0 0)
(0 0 0)
(0 0 0)
(0 0 0)
(0 0 0)
(0 0 0)
(0 0 0)
(0 0 0)
(0 0 0)
(0 0 0)
(0 0 0)
(0 0 0)
(0 0 0)
(0 0 0)
(0 0 0)
(0 0 0)
(0 0 0)
(0 0 0)
(0 0 0)
(0 0 0)
(0 0 0)
(0 0 0)
(0 0 0)
(0 0 0)
(0 0 0)
(0 0 0)
(0 0 0)
(0 0 0)
(0 0 0)
(0 0 0)
(0 0 0)
(0 0 0)
(0 0 0)
(0 0 0)
(0 0 0)
(0 0 0)
(0 0 0)
(0 0 0)
(0 0 0)
(0 0 0)
(0 0 0)
(0 0 0)
(0 0 0)
(0 0 0)
(0 0 0)
(0 0 0)
(0 0 0)
(0 0 0)
(0 0 0)
(0 0 0)
(0 0 0)
(0 0 0)
(0 0 0)
(0 0 0)
(0 0 0)
(0 0 0)
(0 0 0)
(0 0 0)
(0 0 0)
(0 0 0)
(0 0 0)
(0 0 0)
(0 0 0)
(0 0 0)
(0 0 0)
(0 0 0)
(0 0 0)
(0 0 0)
(0 0 0)
(0 0 0)
(0 0 0)
(0 0 0)
(0 0 0)
(0 0 0)
(0 0 0)
(0 0 0)
(0 0 0)
(0 0 0)
(0 0 0)
(0 0 0)
(0 0 0)
(0 0 0)
(0 0 0)
(0 0 0)
(0 0 0)
(0 0 0)
(0 0 0)
(0 0 0)
(0 0 0)
(0 0 0)
(0 0 0)
(0 0 0)
(0 0 0)
(0 0 0)
(0 0 0)
(0 0 0)
(0 0 0)
(0 0 0)
(0 0 0)
(0 0 0)
(0 0 0)
(0 0 0)
(0 0 0)
(0 0 0)
(0 0 0)
(0 0 0)
(0 0 0)
(0 0 0)
(0 0 0)
(0 0 0)
(0 0 0)
(0 0 0)
(0 0 0)
(0 0 0)
(0 0 0)
(0 0 0)
(0 0 0)
(0 0 0)
(0 0 0)
(0 0 0)
(0 0 0)
(0 0 0)
(0 0 0)
(0 0 0)
(0 0 0)
(0 0 0)
(0 0 0)
(0 0 0)
(0 0 0)
(0 0 0)
(0 0 0)
(0 0 0)
(0 0 0)
(0 0 0)
(0 0 0)
(0 0 0)
(0 0 0)
(0 0 0)
(0 0 0)
(0 0 0)
(0 0 0)
(0 0 0)
(0 0 0)
(0 0 0)
(0 0 0)
(0 0 0)
(0 0 0)
(0 0 0)
(0 0 0)
(0 0 0)
(0 0 0)
(0 0 0)
(0 0 0)
(0 0 0)
(0 0 0)
(0 0 0)
(0 0 0)
(0 0 0)
(0 0 0)
(0 0 0)
(0 0 0)
(0 0 0)
(0 0 0)
(0 0 0)
(0 0 0)
(0 0 0)
(0 0 0)
(0 0 0)
(0 0 0)
(0 0 0)
(0 0 0)
(0 0 0)
(0 0 0)
(0 0 0)
(0 0 0)
(0 0 0)
(0 0 0)
(0 0 0)
(0 0 0)
(0 0 0)
(0 0 0)
(0 0 0)
(0 0 0)
(0 0 0)
(0 0 0)
(0 0 0)
(0 0 0)
(0 0 0)
(0 0 0)
(0 0 0)
(0 0 0)
(0 0 0)
(0 0 0)
(0 0 0)
(0 0 0)
(0 0 0)
(0 0 0)
(0 0 0)
(0 0 0)
(0 0 0)
(0 0 0)
(0 0 0)
(0 0 0)
(0 0 0)
(0 0 0)
(0 0 0)
(0 0 0)
(0 0 0)
(0 0 0)
(0 0 0)
(0 0 0)
(0 0 0)
(0 0 0)
(0 0 0)
(0 0 0)
(0 0 0)
(0 0 0)
(0 0 0)
(0 0 0)
(0 0 0)
(0 0 0)
(0 0 0)
(0 0 0)
(0 0 0)
(0 0 0)
(0 0 0)
(0 0 0)
(0 0 0)
(0 0 0)
(0 0 0)
(0 0 0)
(0 0 0)
(0 0 0)
(0 0 0)
(0 0 0)
(0 0 0)
(0 0 0)
(0 0 0)
(0 0 0)
(0 0 0)
(0 0 0)
(0 0 0)
(0 0 0)
(0 0 0)
(0 0 0)
(0 0 0)
(0 0 0)
(0 0 0)
(0 0 0)
(0 0 0)
(0 0 0)
(0 0 0)
(0 0 0)
(0 0 0)
(0 0 0)
(0 0 0)
(0 0 0)
(0 0 0)
(0 0 0)
(0 0 0)
(0 0 0)
(0 0 0)
(0 0 0)
(0 0 0)
(0 0 0)
(0 0 0)
(0 0 0)
(0 0 0)
(0 0 0)
(0 0 0)
(0 0 0)
(0 0 0)
(0 0 0)
(0 0 0)
(0 0 0)
(0 0 0)
(0 0 0)
(0 0 0)
(0 0 0)
(0 0 0)
(0 0 0)
(0 0 0)
(0 0 0)
(0 0 0)
(0 0 0)
(0 0 0)
(0 0 0)
(0 0 0)
(0 0 0)
(0 0 0)
(0 0 0)
(0 0 0)
(0 0 0)
(0 0 0)
(0 0 0)
(0 0 0)
(0 0 0)
(0 0 0)
(0 0 0)
(0 0 0)
(0 0 0)
(0 0 0)
(0 0 0)
(0 0 0)
(0 0 0)
(0 0 0)
(0 0 0)
(0 0 0)
(0 0 0)
(0 0 0)
(0 0 0)
(0 0 0)
(0 0 0)
(0 0 0)
(0 0 0)
(0 0 0)
(0 0 0)
(0 0 0)
(0 0 0)
(0 0 0)
(0 0 0)
(0 0 0)
(0 0 0)
(0 0 0)
(0 0 0)
(0 0 0)
(0 0 0)
(0 0 0)
(0 0 0)
(0 0 0)
(0 0 0)
(0 0 0)
(0 0 0)
(0 0 0)
(0 0 0)
(0 0 0)
(0 0 0)
(0 0 0)
(0 0 0)
(0 0 0)
(0 0 0)
(0 0 0)
(0 0 0)
(0 0 0)
(0 0 0)
(0 0 0)
(0 0 0)
(0 0 0)
(0 0 0)
(0 0 0)
(0 0 0)
(0 0 0)
(0 0 0)
(0 0 0)
(0 0 0)
(0 0 0)
(0 0 0)
(0 0 0)
(0 0 0)
(0 0 0)
(0 0 0)
(0 0 0)
(0 0 0)
(0 0 0)
(0 0 0)
(0 0 0)
(0 0 0)
(0 0 0)
(0 0 0)
(0 0 0)
(0 0 0)
(0 0 0)
(0 0 0)
(0 0 0)
(0 0 0)
(0 0 0)
(0 0 0)
(0 0 0)
(0 0 0)
(0 0 0)
(0 0 0)
(0 0 0)
(0 0 0)
(0 0 0)
(0 0 0)
(0 0 0)
(0 0 0)
(0 0 0)
(0 0 0)
(0 0 0)
(0 0 0)
(0 0 0)
(0 0 0)
(0 0 0)
(0 0 0)
(0 0 0)
(0 0 0)
(0 0 0)
(0 0 0)
(0 0 0)
(0 0 0)
(0 0 0)
(0 0 0)
(0 0 0)
(0 0 0)
(0 0 0)
(0 0 0)
(0 0 0)
(0 0 0)
(0 0 0)
(0 0 0)
(0 0 0)
(0 0 0)
(0 0 0)
(0 0 0)
(0 0 0)
(0 0 0)
(0 0 0)
(0 0 0)
(0 0 0)
(0 0 0)
(0 0 0)
(0 0 0)
(0 0 0)
(0 0 0)
(0 0 0)
(0 0 0)
(0 0 0)
(0 0 0)
(0 0 0)
(0 0 0)
(0 0 0)
(0 0 0)
(0 0 0)
(0 0 0)
(0 0 0)
(0 0 0)
(0 0 0)
(0 0 0)
(0 0 0)
(0 0 0)
(0 0 0)
(0 0 0)
(0 0 0)
(0 0 0)
(0 0 0)
(0 0 0)
(0 0 0)
(0 0 0)
(0 0 0)
(0 0 0)
(0 0 0)
(0 0 0)
(0 0 0)
(0 0 0)
(0 0 0)
(0 0 0)
(0 0 0)
(0 0 0)
(0 0 0)
(0 0 0)
(0 0 0)
(0 0 0)
(0 0 0)
(0 0 0)
(0 0 0)
(0 0 0)
(0 0 0)
(0 0 0)
(0 0 0)
(0 0 0)
(0 0 0)
(0 0 0)
(0 0 0)
(0 0 0)
(0 0 0)
(0 0 0)
(0 0 0)
(0 0 0)
(0 0 0)
(0 0 0)
(0 0 0)
(0 0 0)
(0 0 0)
(0 0 0)
(0 0 0)
(0 0 0)
(0 0 0)
(0 0 0)
(0 0 0)
(0 0 0)
(0 0 0)
(0 0 0)
(0 0 0)
(0 0 0)
(0 0 0)
(0 0 0)
(0 0 0)
(0 0 0)
(0 0 0)
(0 0 0)
(0 0 0)
(0 0 0)
(0 0 0)
(0 0 0)
(0 0 0)
(0 0 0)
(0 0 0)
(0 0 0)
(0 0 0)
(0 0 0)
(0 0 0)
(0 0 0)
(0 0 0)
(0 0 0)
(0 0 0)
(0 0 0)
(0 0 0)
(0 0 0)
(0 0 0)
(0 0 0)
(0 0 0)
(0 0 0)
(0 0 0)
(0 0 0)
(0 0 0)
(0 0 0)
(0 0 0)
(0 0 0)
(0 0 0)
(0 0 0)
(0 0 0)
(0 0 0)
(0 0 0)
(0 0 0)
(0 0 0)
(0 0 0)
(0 0 0)
(0 0 0)
(0 0 0)
(0 0 0)
(0 0 0)
(0 0 0)
(0 0 0)
(0 0 0)
(0 0 0)
(0 0 0)
(0 0 0)
(0 0 0)
(0 0 0)
(0 0 0)
(0 0 0)
(0 0 0)
(0 0 0)
(0 0 0)
(0 0 0)
(0 0 0)
(0 0 0)
(0 0 0)
(0 0 0)
(0 0 0)
(0 0 0)
(0 0 0)
(0 0 0)
(0 0 0)
(0 0 0)
(0 0 0)
(0 0 0)
(0 0 0)
(0 0 0)
(0 0 0)
(0 0 0)
(0 0 0)
(0 0 0)
(0 0 0)
(0 0 0)
(0 0 0)
(0 0 0)
(0 0 0)
(0 0 0)
(0 0 0)
(0 0 0)
(0 0 0)
(0 0 0)
(0 0 0)
(0 0 0)
(0 0 0)
(0 0 0)
(0 0 0)
(0 0 0)
(0 0 0)
(0 0 0)
(0 0 0)
(0 0 0)
(0 0 0)
(0 0 0)
(0 0 0)
(0 0 0)
(0 0 0)
(0 0 0)
(0 0 0)
(0 0 0)
(0 0 0)
(0 0 0)
(0 0 0)
(0 0 0)
(0 0 0)
(0 0 0)
(0 0 0)
(0 0 0)
(0 0 0)
(0 0 0)
(0 0 0)
(0 0 0)
(0 0 0)
(0 0 0)
(0 0 0)
(0 0 0)
(0 0 0)
(0 0 0)
(0 0 0)
(0 0 0)
(0 0 0)
(0 0 0)
(0 0 0)
(0 0 0)
(0 0 0)
(0 0 0)
(0 0 0)
(0 0 0)
(0 0 0)
(0 0 0)
(0 0 0)
(0 0 0)
(0 0 0)
(0 0 0)
(0 0 0)
(0 0 0)
(0 0 0)
(0 0 0)
(0 0 0)
(0 0 0)
(0 0 0)
(0 0 0)
(0 0 0)
(0 0 0)
(0 0 0)
(0 0 0)
(0 0 0)
(0 0 0)
(0 0 0)
(0 0 0)
(0 0 0)
(0 0 0)
(0 0 0)
(0 0 0)
(0 0 0)
(0 0 0)
(0 0 0)
(0 0 0)
(0 0 0)
(0 0 0)
(0 0 0)
(0 0 0)
(0 0 0)
(0 0 0)
(0 0 0)
(0 0 0)
(0 0 0)
(0 0 0)
(0 0 0)
(0 0 0)
(0 0 0)
(0 0 0)
(0 0 0)
(0 0 0)
(0 0 0)
(0 0 0)
(0 0 0)
(0 0 0)
(0 0 0)
(0 0 0)
(0 0 0)
(0 0 0)
(0 0 0)
(0 0 0)
(0 0 0)
(0 0 0)
(0 0 0)
(0 0 0)
(0 0 0)
(0 0 0)
(0 0 0)
(0 0 0)
(0 0 0)
(0 0 0)
(0 0 0)
(0 0 0)
(0 0 0)
(0 0 0)
(0 0 0)
(0 0 0)
(0 0 0)
(0 0 0)
(0 0 0)
(0 0 0)
(0 0 0)
(0 0 0)
(0 0 0)
(0 0 0)
(0 0 0)
(0 0 0)
(0 0 0)
(0 0 0)
(0 0 0)
(0 0 0)
(0 0 0)
(0 0 0)
(0 0 0)
(0 0 0)
(0 0 0)
(0 0 0)
(0 0 0)
(0 0 0)
(0 0 0)
(0 0 0)
(0 0 0)
(0 0 0)
(0 0 0)
(0 0 0)
(0 0 0)
(0 0 0)
(0 0 0)
(0 0 0)
(0 0 0)
(0 0 0)
(0 0 0)
(0 0 0)
(0 0 0)
(0 0 0)
(0 0 0)
(0 0 0)
(0 0 0)
(0 0 0)
(0 0 0)
(0 0 0)
(0 0 0)
(0 0 0)
(0 0 0)
(0 0 0)
(0 0 0)
(0 0 0)
(0 0 0)
(0 0 0)
(0 0 0)
(0 0 0)
(0 0 0)
(0 0 0)
(0 0 0)
(0 0 0)
(0 0 0)
(0 0 0)
(0 0 0)
(0 0 0)
(0 0 0)
(0 0 0)
(0 0 0)
(0 0 0)
(0 0 0)
(0 0 0)
(0 0 0)
(0 0 0)
(0 0 0)
(0 0 0)
(0 0 0)
(0 0 0)
(0 0 0)
(0 0 0)
(0 0 0)
(0 0 0)
(0 0 0)
(0 0 0)
(0 0 0)
(0 0 0)
(0 0 0)
(0 0 0)
(0 0 0)
(0 0 0)
(0 0 0)
(0 0 0)
(0 0 0)
(0 0 0)
(0 0 0)
(0 0 0)
(0 0 0)
(0 0 0)
(0 0 0)
(0 0 0)
(0 0 0)
(0 0 0)
(0 0 0)
(0 0 0)
(0 0 0)
(0 0 0)
(0 0 0)
(0 0 0)
(0 0 0)
(0 0 0)
(0 0 0)
(0 0 0)
(0 0 0)
(0 0 0)
(0 0 0)
(0 0 0)
(0 0 0)
(0 0 0)
(0 0 0)
(0 0 0)
(0.00497813 -0.00235325 -0.00482874)
(0.0271453 -0.00136616 -0.0102872)
(0.0190977 0.00130818 -0.0107066)
(0.0548796 0.00062664 -0.0165572)
(0.0478339 0.00517273 -0.00867126)
(0.0853994 0.00201084 -0.00991499)
(0.0992408 0.0220245 -0.00442641)
(0.05658 0.0255632 -0.00366024)
(-0.00525074 0.00942717 -0.00853478)
(-0.000308004 -0.00148623 -0.00482375)
(0.00512135 -0.00893255 -0.0109906)
(-0.00863245 -0.0139893 -0.0168419)
(0.0259682 -0.0212089 -0.0491407)
(0.042442 -0.00509761 -0.0239405)
(0.0959888 0.0137748 -0.0278617)
(0.0909277 0.00297811 -0.0506091)
(0.145055 0.029408 -0.0426358)
(0.124759 0.0240939 -0.0211073)
(0.14181 0.0536799 -0.0157794)
(0.196901 0.0512868 -0.0439192)
(0.216049 0.0877648 -0.0515054)
(0.0844831 0.0639166 -0.000643903)
(0.0207915 0.0227185 0.0014982)
(0.112969 0.109379 -0.00922172)
(0.0232398 0.0386028 0.00156064)
(-0.00134527 -0.00709723 0.000593604)
(-0.00926204 0.0243124 0.00989602)
(-0.0116795 0.055614 0.0363725)
(-0.0402718 0.0676421 0.0469613)
(-0.01396 0.021204 -0.00879852)
(0.0600665 0.0240138 -0.0240743)
(-0.00358176 0.0596387 0.0362901)
(0.0641738 0.0699817 0.0160517)
(0.115463 0.0389447 -0.0288838)
(0.176821 0.0382797 -0.0225021)
(0.119553 0.0748922 0.0150657)
(0.149295 0.0544302 0.0263479)
(0.236632 0.0488857 -0.0171413)
(0.268043 0.0715358 -0.0218553)
(0.166005 0.0225572 0.0349808)
(0.179195 -0.00224162 0.0248087)
(0.147673 0.0979134 -0.0318942)
(-0.00581819 0.0517304 -0.00195748)
(0.116359 0.0392517 0.00549497)
(-0.027433 0.0314626 -0.0145224)
(-0.0164354 -0.0176654 -0.00302755)
(-0.0212675 -0.0241088 -0.011458)
(-0.0121954 -0.0213932 -0.00461828)
(-0.00755169 0.0477582 0.0566779)
(-0.0447172 0.0673668 0.0782374)
(-0.0381881 0.0162183 0.0551339)
(-0.0263738 0.0606579 0.0712497)
(0.0333575 0.054392 0.0479243)
(-0.0697163 -0.000440696 0.060079)
(0.0028857 -0.0611209 0.0342457)
(0.0555079 0.0226195 0.0398287)
(0.0487984 0.000120804 0.0452947)
(0.0372859 -0.0876284 0.020693)
(0.0336386 -0.0959586 0.0218552)
(0.0356432 -0.0157268 0.0539876)
(0.0761689 -0.0244887 0.0483097)
(0.026987 -0.0413003 0.0332675)
(0.0473798 0.0212845 0.0511627)
(0.0960373 0.00340137 0.025156)
(0.0255045 -0.0484559 0.00907208)
(0.0868264 0.0287133 0.0540599)
(0.0360881 -0.0034972 0.0166588)
(0.00245926 -0.0155604 -0.015683)
(0.00341344 -0.00934018 -0.00989265)
(0.00802979 -0.0215055 -0.00454813)
(-0.0486168 -0.0289897 0.0351352)
(-0.0832055 -0.0570305 0.0167734)
(-0.061071 -0.10772 -0.00377546)
(-0.0398582 -0.0413698 -0.00669653)
(-0.0486765 -0.0406727 -0.017783)
(-0.0115985 -0.131898 -0.01291)
(0.0371521 -0.108925 -0.0184996)
(0.00116987 -0.049915 -0.0251559)
(0.0697237 -0.0358765 -0.021588)
(0.0654213 -0.0377668 -0.0061746)
(0.0891621 0.045437 0.0319803)
(0.128747 -0.0156643 -0.0174863)
(0.11893 0.0242166 0.027601)
(0.0714915 0.0644998 0.0599122)
(0.0261942 0.0283872 0.023557)
(0.0352939 0.0494722 0.0365685)
(-0.00021734 0.0199493 0.0183891)
(0.0111888 -0.0141566 0.00163763)
(-0.00871676 -0.00800599 -0.00734123)
(0.00849676 -0.00585479 -0.0187127)
(0.057787 0.0272568 -0.0262461)
(0.046798 0.00410796 -0.0176927)
(0.102903 0.0299127 0.00218852)
(0.0530194 0.00801222 0.029894)
(0.0663769 0.00318193 -0.0132121)
(-0.00163082 0.0212582 0.0123697)
(-0.0211799 0.0231973 0.109457)
(-0.00845388 0.0230649 0.214864)
(0.053138 0.0134225 0.063065)
(-0.00974782 0.025131 0.108216)
(0.061778 0.0381847 0.0355966)
(0.0537647 0.0260097 0.1383)
(0.00268837 0.0219854 0.185414)
(0.0482136 0.0526106 0.126896)
(0.0909188 0.0366121 0.0250471)
(0.109508 0.0571109 0.0223034)
(0.0659671 0.0347887 0.163298)
(0.0866821 0.0636328 0.109807)
(0.105667 0.0750195 0.104487)
(0.129818 0.0664258 0.0298623)
(0.118441 0.0774993 0.116038)
(-0.0370722 0.074946 0.206124)
(-0.0500743 0.110874 0.252845)
(-0.0373783 0.0339924 0.159314)
(-0.0683034 0.0567784 0.204478)
(0.0108767 0.0493246 0.160096)
(-0.0349334 0.0587978 0.309177)
(-0.0222067 0.0404549 0.271176)
(-0.0650864 0.102602 0.305071)
(0.0013349 0.0765499 0.264235)
(0.086532 0.0739949 0.0292848)
(0.109399 0.0957214 0.0738962)
(0.0357864 0.0689391 0.0422188)
(0.125208 0.107313 0.12097)
(0.0935029 0.0891013 0.101836)
(0.117735 0.15447 0.173047)
(0.0458164 0.106437 0.10261)
(0.00827334 0.0327509 0.0334573)
(0.013666 0.05199 0.0741867)
(-0.0189345 0.0864158 0.203827)
(-0.0111819 0.0900764 0.144189)
(-0.0254281 0.105499 0.168396)
(-0.0325147 0.133919 0.217459)
(-0.00674831 0.0979149 0.155792)
(-0.018547 0.124443 0.175347)
(-0.0596061 0.0468051 0.0113316)
(-0.0181913 0.0441464 0.016193)
(-0.0108943 0.0479506 0.0520182)
(-0.0140437 0.072914 -0.00814266)
(0.00170142 0.0505167 0.00965621)
(-0.0196333 0.0744174 0.147585)
(-0.0329978 0.00332127 0.145661)
(-0.0022667 0.0728054 0.163473)
(-0.00675012 0.0728578 0.182593)
(-0.00726139 0.0213595 0.187617)
(-0.00608451 0.0605437 -0.000106156)
(-0.00911985 0.0345037 0.00713301)
(-0.0130928 0.0704876 -0.00612655)
(-0.00782659 0.049815 0.00308739)
(-0.00463249 0.0473393 0.0333765)
(-0.036638 -0.0476688 0.106639)
(-0.0141453 -0.00803264 0.118554)
(-0.00532667 -0.0835623 0.157926)
(-0.0208693 -0.0358208 0.129296)
(-0.0144012 -0.0282334 0.126715)
(-0.00856172 -0.017074 0.129388)
(0.0352288 -0.0201773 0.145024)
(-0.00385881 -0.0192123 0.10081)
(0.027356 -0.016431 0.125776)
(0.0201013 0.0603462 0.0919744)
(0.0748155 0.0533062 0.123612)
(0.0107997 0.0236936 0.0794653)
(0.0684187 0.128121 0.205415)
(0.0187181 0.0768044 0.148641)
(0.0765482 0.0529419 0.229087)
(0.0176741 0.0275144 0.159362)
(-0.00458968 0.033894 0.0691494)
(0.0181593 -0.00450489 0.129348)
(0.0436172 0.00485568 0.149573)
(0.123929 0.0357675 0.135889)
(0.141364 0.0207904 0.169745)
(0.0827323 0.0186501 0.151211)
(0.141009 0.0314796 0.170141)
(0.153732 0.00967778 0.210736)
(0.115034 0.00344072 0.113254)
(0.168027 -0.0035232 0.134012)
(0.170176 0.0292045 0.189783)
(0.12548 0.00109072 0.215849)
(0.154335 -0.00723268 0.194948)
(0.0519925 -0.00620825 0.192048)
(-0.0748512 0.058034 0.273556)
(-0.111855 0.0737853 0.272622)
(-0.0335791 0.0443863 0.188229)
(-0.0684287 0.0533664 0.247294)
(-0.0381398 0.0950223 0.203731)
(-0.118851 0.0384541 0.125662)
(-0.133145 0.0672583 0.234617)
(-0.119531 0.0952894 0.18363)
(0.0110752 0.11691 0.195048)
(0.0237221 0.122897 0.207329)
(-0.0809845 0.0285571 0.105712)
(-0.0671203 0.116042 0.161601)
(-0.0394391 0.0963113 0.155366)
(0.0304391 0.0852934 0.197722)
(-0.00116403 0.0646949 0.125938)
(-0.0527832 0.101156 0.257016)
(-0.0510823 0.0751601 0.243396)
(-0.0753212 0.0853001 0.313383)
(-0.0653535 0.121611 0.29219)
(-0.0514375 0.114496 0.275756)
(-0.0688499 0.075128 0.30756)
(-0.0844719 0.0841137 0.312385)
(-0.0571317 0.100492 0.268494)
(-0.0580373 0.101104 0.26312)
(0.0173667 0.0727833 0.144351)
(0.0318108 0.152028 0.248568)
(-0.0231668 0.0917406 0.139912)
(-0.0322718 0.122346 0.211543)
(-0.0250295 0.0315174 0.0935707)
(-0.013327 0.101057 0.323578)
(-0.0429809 0.0304762 0.137038)
(-0.0107825 0.0157522 0.0612855)
(-0.0150458 -0.0188857 0.032908)
(-0.0291753 0.133194 0.213791)
(-0.0267347 0.128286 0.103285)
(-0.022164 0.151436 0.1817)
(-0.0360925 0.128909 0.236542)
(-5.45665e-16 -1.36806e-15 1.3829e-13)
(0.019211 0.024496 -1.21774)
(0.00658672 0.0539009 -0.00363565)
(0.00656877 0.0387618 0.00651023)
(0.00306793 -0.00245708 0.0154575)
(0.0155638 0.0297918 -0.00890716)
(0.0061612 0.0245591 0.000153391)
(-0.0225067 0.0977978 0.19461)
(-0.0136741 0.0157516 0.18263)
(0 0 0)
(0 0 0)
(0.0243941 -0.241533 -0.332004)
(-0.00750042 0.0380434 0.0113666)
(-0.00623048 0.0542994 0.0505122)
(-0.000889017 0.0492205 0.0136876)
(-0.00370029 0.0263748 0.00770121)
(-0.00430744 0.0587537 0.0561714)
(-0.0307321 -0.023873 0.0782346)
(-0.0895743 -0.25122 -0.479382)
(0.0697244 0.00838952 0.130521)
(0.00623124 -0.0165287 0.0599097)
(0.0649142 -0.0122879 0.0839965)
(-0.190852 -0.115266 -0.437441)
(-0.0734074 -0.0261462 -0.109826)
(-0.12863 -0.101473 -0.277598)
(-0.0294204 -0.0306262 -0.0486704)
(-0.00278333 0.0854891 0.200048)
(0.0421147 0.0480526 0.33005)
(-0.00661576 0.0351053 0.245752)
(0.00423275 0.151099 0.335154)
(-0.035005 0.105842 0.250956)
(0.0220102 0.0381748 0.412946)
(-0.0147019 0.0386854 0.325329)
(-0.02091 0.0546518 0.107119)
(0.0444314 0.00689439 0.0960073)
(0.0335844 0.00712727 0.0484409)
(0.123797 0.0131936 0.173095)
(0.127537 0.00560691 0.204146)
(0.0694319 0.012527 0.0866798)
(0.0958585 0.0061718 0.172717)
(0.0967725 0.0073247 0.181294)
(0.100315 -0.0110162 0.302857)