/*--------------------------------*- C++ -*----------------------------------*\
| =========                 |                                                 |
| \\      /  F ield         | OpenFOAM: The Open Source CFD Toolbox           |
|  \\    /   O peration     | Version:  5.x                                   |
|   \\  /    A nd           | Web:      www.OpenFOAM.org                      |
|    \\/     M anipulation  |                                                 |
\*---------------------------------------------------------------------------*/
FoamFile
{
    version     2.0;
    format      ascii;
    class       volScalarField;
    location    "9";
    object      p;
}
// * * * * * * * * * * * * * * * * * * * * * * * * * * * * * * * * * * * * * //

dimensions      [0 2 -2 0 0 0 0];

internalField   nonuniform List<scalar> 
10571
(
257.966
287.713
289.544
268.921
204.438
288.478
287.611
264.7
195.729
94.3482
274.691
282.447
270.917
267.318
235.143
93.4875
257.328
230.332
233.969
222.392
113.028
194.5
184.549
210.763
105.855
186.465
153.773
69.3658
26.5028
214.048
24.5003
19.2434
30.1126
83.0669
228.608
168.952
32.1847
23.6025
37.1286
81.4925
160.031
86.3994
59.033
87.6584
85.1623
158.034
148.254
117.064
15.7819
48.0506
13.3245
7.92241
11.5161
56.0237
5.01025
6.97964
6.64719
16.4558
97.2561
53.9531
5.58984
6.84899
5.34754
38.7276
28.8866
7.66897
6.61403
7.05452
33.0687
43.6296
67.5957
9.92155
7.0759
6.79913
7.15914
8.04293
7.32553
6.70368
7.77957
7.40805
6.99938
6.92885
11.3316
6.56585
7.64526
7.96753
6.99367
6.28817
6.48667
6.53495
6.81062
7.05872
6.65492
6.61405
6.36875
6.97811
6.69327
6.8626
6.64739
6.46479
6.74667
6.81873
6.9509
6.95462
6.9597
6.89076
6.84153
6.72816
7.09248
7.3554
7.17884
7.02415
6.75245
7.13231
7.18561
6.94002
6.95899
6.85301
7.09726
6.96485
6.77086
6.82275
6.73846
6.85247
6.74708
6.82974
6.751
6.94154
6.94134
6.93932
6.97255
6.82426
6.78917
6.87849
7.05335
6.96899
6.98517
6.96133
6.82517
6.93311
7.01006
6.94237
6.93003
6.93782
7.04345
6.99123
6.81691
6.84648
6.86956
6.77049
6.78541
6.83742
6.84834
6.93838
6.95336
6.96021
6.98126
6.85496
6.81381
6.8982
7.00427
6.98419
6.96054
6.95493
6.87917
6.94727
7.0156
6.96558
6.95743
6.92299
6.96015
7.01204
6.99693
6.84951
6.86883
6.8795
6.79513
6.88832
6.87109
6.88952
6.93866
6.96339
6.9637
6.97513
6.91043
6.87198
6.94764
7.00617
7.01555
6.97714
6.93519
6.93836
7.00174
7.02689
6.99914
7.04413
6.98919
6.98146
7.00744
7.00537
6.88855
6.87217
6.83181
6.85664
6.93616
6.898
6.90439
6.93868
6.96252
6.92217
6.98718
6.98054
6.94623
6.99004
6.98689
7.01055
6.96428
7.01746
6.99725
7.04146
6.99939
6.97537
6.97349
7.01564
7.00618
7.00084
6.94805
6.90979
6.85629
6.92257
6.94414
6.9294
6.91589
6.93382
6.96113
6.89697
7.04339
7.01316
7.03314
6.95868
6.97695
6.951
7.03919
7.05657
6.9669
6.91192
6.88042
7.03408
6.99491
6.94775
6.97696
6.96377
6.93838
6.94369
6.93337
6.95596
6.94172
6.94275
6.95786
6.95403
7.07719
7.04588
7.05225
6.9564
6.96351
6.95419
7.05502
7.0457
6.96813
6.906
6.93254
7.03502
6.99315
6.93151
6.97679
7.00249
6.97751
6.96003
6.90859
6.988
6.97465
6.95638
6.95864
6.97455
7.0822
7.04208
7.04205
6.98054
6.98422
7.07669
7.05353
7.02359
6.99009
6.94451
6.99471
7.02531
6.99992
6.96066
6.97909
7.02436
6.98881
6.96302
6.91185
7.00965
6.9837
6.96861
6.96788
6.98084
7.07292
7.0375
7.02364
6.98756
6.9911
7.05015
7.04652
7.00269
6.99358
6.99073
7.08989
7.012
7.00105
6.99251
6.97854
7.03797
7.00337
6.9794
6.94045
7.00907
6.98449
6.97766
6.97608
6.98415
7.05859
7.03583
7.00936
6.98208
6.97922
7.00792
7.03396
6.987
6.98002
6.99033
7.03884
6.99624
6.99293
6.99079
6.98949
7.04381
7.01727
6.99952
6.97481
7.01943
6.98649
6.98006
6.9749
6.9848
7.04406
7.02519
6.99341
6.97571
6.96727
6.98394
7.01971
6.97953
6.97858
6.98054
6.99092
6.98544
6.98678
6.98877
7.00552
7.05103
7.05533
7.00643
6.98202
7.04257
6.97402
6.97413
6.96975
6.98221
7.02567
7.00758
6.97117
6.97173
6.96071
6.97441
7.00618
6.97817
6.98086
6.97644
6.97169
6.98475
6.98676
6.9879
6.99432
7.02737
7.03063
6.98577
6.97503
7.00833
6.95587
6.96649
6.95827
6.97504
7.00522
6.98698
6.95625
6.96763
6.95635
6.96742
6.9963
6.98545
6.98283
6.97435
6.96403
6.99251
6.98977
6.98686
6.96426
6.96008
6.98771
6.9582
6.96242
6.95129
6.94971
6.95098
6.94889
6.971
6.98237
6.9601
6.9643
6.95833
6.95035
6.95953
6.99119
7.00091
6.98009
6.97222
6.96082
7.0077
6.98982
6.98362
6.9373
6.88126
6.9509
6.93378
6.95133
6.90739
6.95052
6.94155
6.94391
6.9656
6.96527
6.95127
6.98081
6.95641
6.94611
6.95116
6.97298
6.99515
6.97012
6.96801
6.96011
6.99938
6.98397
6.97742
6.92151
6.84239
6.92267
6.92565
6.94733
6.88372
6.94748
6.93504
6.937
6.95895
6.9439
6.93453
6.98133
6.95352
6.94814
6.94699
6.9349
6.98465
6.96042
6.96271
6.96061
6.97973
6.9739
6.97008
6.92992
6.84903
6.91709
6.93283
6.94699
6.85795
6.93281
6.93452
6.93044
6.95053
6.91888
6.90473
6.97848
6.95177
6.94937
6.94761
6.89967
6.96395
6.9576
6.95854
6.96092
6.95599
6.96121
6.96385
6.93906
6.90725
6.92737
6.93752
6.94938
6.86339
6.8959
6.93741
6.92967
6.95279
6.90706
6.89612
6.95991
6.9555
6.95013
6.95223
6.89314
6.9372
6.95507
6.9563
6.9611
6.92767
6.95346
6.95971
6.95083
6.94137
6.94075
6.94384
6.95583
6.88279
6.87341
6.94253
6.93792
6.95944
6.90448
6.89149
6.93192
6.9546
6.95352
6.9583
6.90565
6.9236
6.95449
6.9552
6.96192
6.90473
6.94505
6.95777
6.96483
6.97348
6.95083
6.95245
6.96107
6.92219
6.89365
6.95252
6.95082
6.9668
6.90931
6.8891
6.90824
6.95191
6.95567
6.96368
6.91555
6.90662
6.95328
6.95557
6.96366
6.89531
6.94216
6.95938
6.97348
6.95862
6.94921
6.95885
6.96635
6.93634
6.926
6.96214
6.96263
6.97312
6.91491
6.89937
6.8997
6.94881
6.96129
6.96903
6.9236
6.89099
6.95069
6.95883
6.96727
6.90401
6.94508
6.96389
6.97138
6.93833
6.95332
6.96414
6.97207
6.8936
6.92902
6.97106
6.96966
6.97887
6.9377
6.91969
6.92163
6.95739
6.97228
6.97485
6.93007
6.90987
6.95514
6.96491
6.9731
6.93438
6.95272
6.97021
6.97166
6.94078
6.96544
6.97034
6.97855
6.89793
6.95027
6.97763
6.97574
6.98536
6.92661
6.93015
6.94621
6.97149
6.98222
6.9818
6.94603
6.92664
6.96598
6.97155
6.98046
6.96181
6.96446
6.97676
6.98429
6.96519
6.98058
6.98331
6.98994
6.93901
6.9775
6.98277
6.98735
6.99447
6.92561
6.939
6.96638
6.98397
6.98792
6.98905
6.96184
6.94203
6.97383
6.98042
6.98816
6.97138
6.97772
6.98535
6.99778
7.00384
6.99459
6.99588
7.00256
7.04333
7.00068
6.99083
6.99971
7.00519
6.98355
7.01298
6.98679
6.9974
6.99254
6.99866
6.97685
6.95537
6.98656
6.98847
6.99774
6.97446
6.99256
6.99715
7.00696
7.02384
7.00476
7.00568
7.0144
7.04479
7.01153
7.00488
7.01265
7.01749
7.0235
7.0444
6.9928
7.01226
7.00574
7.01291
6.98001
6.97147
7.0014
7.00295
7.01274
6.9888
7.01378
7.01944
7.01388
7.02075
7.00767
7.01245
7.02282
7.01342
7.01119
7.01229
7.02278
7.03083
6.98203
6.97603
6.99031
7.01974
7.01766
7.02889
6.97066
6.98215
7.00585
7.01962
7.03337
6.99615
7.02231
7.03769
7.01801
7.01391
7.00821
7.01611
7.02718
6.99574
7.01088
7.01402
7.02535
7.04014
6.96586
6.92307
6.98752
7.0229
7.01637
7.04024
6.96632
6.993
7.00142
7.01936
7.04345
6.99936
7.00587
7.02916
7.01745
7.01642
7.00863
7.0161
7.02732
7.00702
7.01193
7.01308
7.02128
7.04236
7.0007
6.92672
6.99394
7.02554
7.01542
7.0435
6.99896
7.01099
7.01017
7.01892
7.04567
7.01907
7.00771
7.03381
7.01105
7.02167
7.00838
7.00807
7.02096
7.03396
7.01065
7.00808
7.01328
7.03953
7.1328
7.03537
7.01036
7.02023
7.01201
7.04006
7.04555
7.00922
7.01795
7.01801
7.04562
7.03013
7.02139
7.04484
7.00377
7.0218
7.00713
6.99573
7.01125
7.0394
7.00803
6.9998
7.00438
7.03227
7.13892
7.07322
7.01948
7.01085
6.99751
7.02803
7.06255
7.00268
7.01951
7.01319
7.03777
7.01824
7.02491
7.05265
6.99965
7.01752
7.00389
6.99113
7.00468
7.03188
7.00579
6.99427
6.99666
7.02239
7.08855
7.06116
7.01504
6.99709
6.98081
7.01454
7.07201
7.02087
7.01054
7.0007
7.02787
7.03312
7.02402
7.04462
7.00053
7.01187
6.99835
6.99389
7.00382
7.02242
7.0023
6.99244
6.99143
7.01447
7.05966
7.04615
7.00331
6.97375
6.96972
7.00247
7.08442
7.02346
6.98768
6.9787
7.00518
7.04752
7.00958
7.01116
7.00593
7.00821
6.99358
7.00007
7.00993
7.01593
7.0024
6.99437
6.99506
7.01829
7.04256
7.03145
6.99496
6.96293
6.96795
7.00586
7.05879
7.01135
6.96509
6.95863
6.98996
7.03605
6.98298
6.97547
7.01533
7.01112
6.99927
7.00844
7.01631
7.01449
7.00862
7.00688
7.00701
7.03227
7.03363
7.02355
7.00072
6.98033
6.98681
7.02628
7.03785
7.01527
6.95192
6.96471
6.99962
7.02203
6.9727
6.96473
7.0254
7.02001
7.01271
7.01742
7.02449
7.0182
7.01523
7.01989
7.01908
7.05015
7.03224
7.02338
7.01373
7.0132
7.01455
7.08421
7.02864
7.02049
6.99375
6.9999
7.04677
7.02202
6.99408
6.98779
7.03853
7.03051
7.02305
7.02436
7.03114
7.02536
7.01864
7.02796
6.99993
7.02968
7.03606
7.0281
7.02608
7.03227
7.01015
7.06322
7.02797
7.03125
7.02278
7.0094
7.0446
7.0323
7.02061
7.00879
7.04264
7.04003
7.03009
7.02928
7.03272
7.0337
7.02528
7.03206
7.00561
7.02066
7.04205
7.03465
7.0325
7.03613
7.00739
7.03032
7.03095
7.04043
7.02654
7.0136
7.02074
7.04265
7.03247
7.01502
7.04533
7.04879
7.03702
7.0342
7.03719
7.04178
7.03201
7.03464
7.02943
7.01934
7.04805
7.04116
7.03582
7.03742
7.01524
7.02126
7.03449
7.04213
7.02764
7.02123
7.01875
7.04597
7.03474
7.02241
7.04929
7.05699
7.04686
7.03949
7.04021
7.0491
7.03793
7.03439
7.04062
7.02705
7.05282
7.04671
7.04168
7.03893
7.02713
7.02413
7.03781
7.04437
7.03703
7.03237
7.02764
7.04673
7.04001
7.03333
7.05591
7.06259
7.05614
7.04731
7.04142
7.05522
7.04741
7.04255
7.04582
7.0365
7.05588
7.05064
7.04678
7.04642
7.03608
7.03089
7.04065
7.04708
7.04325
7.04246
7.03781
7.04796
7.04437
7.04282
7.06085
7.06439
7.06171
7.05398
7.04746
7.05852
7.05426
7.04967
7.04867
7.04333
7.05729
7.05285
7.04968
7.04807
7.03947
7.03809
7.04268
7.0484
7.04515
7.04626
7.04474
7.04953
7.04755
7.04776
7.06015
7.06393
7.06176
7.05542
7.04986
7.05969
7.05554
7.05342
7.047
7.04381
7.05768
7.05318
7.04999
7.04422
7.04144
7.04629
7.04438
7.0491
7.04308
7.04538
7.04931
7.05056
7.04859
7.04855
7.05993
7.0629
7.06068
7.05674
7.05106
7.05986
7.05469
7.05238
7.04217
7.04315
7.05742
7.05191
7.04925
7.04268
7.04715
7.051
7.04672
7.05065
7.04311
7.04434
7.04994
7.05098
7.04845
7.04817
7.06197
7.06218
7.06015
7.05884
7.05176
7.0587
7.05377
7.05189
7.03899
7.04456
7.05703
7.05003
7.04931
7.04532
7.04969
7.05212
7.05038
7.05151
7.0442
7.04259
7.04865
7.05097
7.04829
7.04747
7.06477
7.06023
7.05939
7.06157
7.05508
7.05661
7.05094
7.0525
7.04059
7.04769
7.05724
7.05068
7.04921
7.04846
7.04612
7.05349
7.05434
7.05216
7.05327
7.04293
7.04592
7.05197
7.05088
7.04814
7.06325
7.05682
7.05633
7.06198
7.05589
7.05488
7.05036
7.05153
7.04234
7.04963
7.05811
7.05405
7.05084
7.05222
7.04088
7.0544
7.05717
7.05461
7.0592
7.04515
7.04765
7.05665
7.05355
7.05062
7.05909
7.05238
7.04855
7.05852
7.05547
7.05371
7.05179
7.0556
7.04361
7.05035
7.05986
7.05669
7.05551
7.05486
7.04413
7.0569
7.05899
7.05302
7.0581
7.05038
7.05749
7.06003
7.06535
7.05571
7.05757
7.04749
7.03949
7.05129
7.0555
7.05384
7.0508
7.05453
7.04328
7.04974
7.06299
7.06041
7.05233
7.05726
7.04637
7.05531
7.06156
7.04959
7.05901
7.05372
7.06493
7.06059
7.066
7.06027
7.05797
7.04766
7.04003
7.05151
7.05598
7.05622
7.0451
7.04741
7.04424
7.04771
7.06956
7.06305
7.04926
7.05652
7.04527
7.04919
7.0648
7.05388
7.05753
7.05477
7.06326
7.05944
7.06331
7.06079
7.0576
7.05226
7.04638
7.05327
7.05358
7.0612
7.04972
7.04266
7.04091
7.04313
7.07863
7.07316
7.04855
7.05325
7.03826
7.04078
7.06831
7.05433
7.05511
7.05336
7.05684
7.05279
7.06041
7.05795
7.05524
7.06469
7.05279
7.05057
7.04778
7.07163
7.04475
7.03303
7.03025
7.03361
7.08599
7.07073
7.03368
7.04751
7.02812
7.02963
7.05495
7.05076
7.05343
7.04911
7.04762
7.05014
7.05884
7.05572
7.0501
7.07219
7.05403
7.04275
7.03621
7.07505
7.03235
7.02207
7.01485
7.01822
7.08576
7.07146
7.03608
7.04456
7.01768
7.01467
7.06507
7.06566
7.05655
7.04465
7.03625
7.06225
7.06388
7.05607
7.04313
7.07391
7.0521
7.03155
7.01868
7.07497
7.03274
7.01178
6.99003
6.99088
7.08902
7.07936
7.05571
7.04247
7.00456
6.99166
7.08593
7.08742
7.06988
7.04142
7.02181
7.08632
7.07807
7.06169
7.03777
7.07755
7.05502
7.02154
6.99668
7.0785
7.03883
7.00254
6.95509
6.9455
7.09506
7.08979
7.07646
7.04554
6.98464
6.9507
7.10668
7.10677
7.08318
7.04232
7.00172
7.11235
7.09539
7.07342
7.03684
7.08409
7.06332
7.01672
6.9699
7.08449
7.04557
6.99508
6.89804
6.85817
7.1033
7.09959
7.09536
7.04892
6.95571
6.86741
7.12516
7.13009
7.0958
7.03978
6.96561
7.12739
7.11033
7.08141
7.04194
7.09218
7.07289
7.02182
6.9424
7.08996
7.04947
6.97922
6.81384
6.6944
7.11006
7.11012
7.111
7.04389
6.90906
6.67941
7.1397
7.14757
7.105
7.02634
6.89505
7.14598
7.12237
7.08974
7.0531
7.09977
7.08315
7.03226
6.92054
7.09664
7.05537
6.95734
6.69803
6.29857
7.10251
7.10327
7.12624
7.03258
6.84386
6.22331
7.14924
7.16693
7.11525
7.00705
6.75788
7.16118
7.13577
7.0995
7.07209
7.11372
7.09767
7.04714
6.91562
7.10727
7.06377
6.9496
6.5764
5.27919
7.10113
7.08489
7.12243
7.02341
6.79167
5.47705
-5.43986
7.15159
7.17393
7.12994
6.98284
6.39827
7.17607
7.15325
7.11434
7.10293
7.14006
7.1228
7.07628
6.9469
7.13017
7.07773
6.97687
6.57494
4.80327
0.111851
7.13769
7.10653
7.10421
7.03581
6.76599
5.35007
0.463735
7.16805
7.18396
7.15072
6.96769
5.8599
7.20031
7.17806
7.13955
7.15125
7.1834
7.16553
7.12478
7.02504
7.17545
7.12307
7.01594
6.74699
5.46658
1.30058
7.20448
7.16153
7.12583
7.05808
6.76599
5.2949
1.5489
7.20301
7.20529
7.18347
7.02065
6.14735
1.84322
7.22498
7.20611
7.17996
7.21641
7.23577
7.22192
7.19116
7.13353
7.22408
7.17751
7.08539
6.92884
5.65821
1.43535
7.2489
7.21867
7.16692
7.08604
6.87335
5.64383
1.14473
7.23713
7.22602
7.22839
7.07272
6.29881
7.24784
7.23833
7.22056
7.28116
7.28855
7.28214
7.25745
7.2347
7.25551
7.24758
7.18393
7.08228
6.3112
7.26856
7.23903
7.20783
7.16831
7.04101
6.27554
-2.67837
7.26662
7.25137
7.23198
7.14702
6.96425
7.26895
7.25588
7.2526
7.32639
7.33328
7.32863
7.30695
7.30037
7.29842
7.28833
7.25772
7.22225
7.09777
7.3161
7.27399
7.24141
7.2264
7.16774
7.04195
7.29959
7.26108
7.24432
7.21783
7.21613
7.27633
7.2642
7.26776
7.3334
7.34525
7.34148
7.32755
7.33038
7.32163
7.31398
7.30154
7.29036
7.31315
7.31922
7.29031
7.25464
7.258
7.24986
7.26898
7.32682
7.24278
7.25374
7.25623
7.29373
7.26416
7.26808
7.27795
7.33335
7.32991
7.32757
7.32498
7.33439
7.31226
7.30667
7.31406
7.31615
7.34348
7.32289
7.30073
7.26119
7.28075
7.28182
7.31384
7.31169
7.25573
7.25534
7.27318
7.31108
7.27207
7.26594
7.27448
7.32774
7.32115
7.31913
7.31949
7.32861
7.30121
7.29629
7.30717
7.31157
7.33752
7.31006
7.28017
7.26274
7.27744
7.28805
7.31372
7.29488
7.24833
7.25828
7.27917
7.30585
7.27157
7.24733
7.26721
7.32117
7.31267
7.31295
7.31554
7.32122
7.29238
7.29583
7.30725
7.3138
7.33259
7.29916
7.2675
7.26636
7.28371
7.2882
7.31376
7.29232
7.26878
7.26634
7.2717
7.29977
7.28596
7.25426
7.26065
7.31879
7.30755
7.30854
7.31339
7.31862
7.28684
7.2979
7.30761
7.31528
7.33086
7.29952
7.27643
7.28243
7.29274
7.30093
7.32374
7.29775
7.28481
7.27727
7.28433
7.30737
7.30433
7.28684
7.27962
7.31905
7.30522
7.30542
7.3133
7.31963
7.28836
7.2947
7.30963
7.31666
7.32998
7.2979
7.28108
7.28488
7.29725
7.30645
7.3323
7.29749
7.29315
7.29151
7.30114
7.32093
7.31348
7.30668
7.30071
7.32037
7.30611
7.3061
7.31352
7.32002
7.29233
7.29398
7.30894
7.31708
7.32971
7.29426
7.27961
7.28677
7.29946
7.30981
7.33141
7.29528
7.29714
7.29878
7.30857
7.33026
7.31723
7.31691
7.3164
308.61
298.775
308.649
303.338
292.8
294.915
284.729
269.624
299.27
305.735
310.331
305.466
303.73
309.916
308.207
306.835
314.959
304.718
296.845
315.139
308.882
277.853
245.898
284.323
239.616
189.539
299.489
288.682
299.694
303.165
307.699
310.244
326.773
324.2
328.592
332.093
330.328
326.586
320.812
331.234
331.168
296.998
245.77
315.664
261.337
177.026
170.6
150.6
286.716
300.816
300.355
314.686
319.776
301.822
298.67
315.116
314.945
288.68
277.781
328.614
333.164
312.37
321.464
326.38
276.873
320.836
280.572
179.781
156.033
197.525
286.079
285.097
277.636
269.638
257.16
257.678
242.385
225.474
221.958
273.487
289.203
247.244
263.126
299.681
251.35
270.937
242.388
200.769
230.796
206.661
212.434
199.802
220.791
242.122
197.668
252.64
287.446
238.806
271.837
283.597
278.791
223.914
235.454
231.388
263.241
240.275
202.612
201.766
153.735
214.591
106.846
286.386
261.923
288.878
290.122
295.955
249.409
247.365
258.126
263.669
173.223
190.228
147.508
93.2308
82.965
68.1061
88.2256
105.676
86.6665
284.204
276.917
280.833
266.412
266.944
266.356
94.2398
85.0168
85.4594
84.3404
84.2322
278.565
273.233
265.492
262.417
250.741
83.1586
101.815
81.5318
82.7514
82.713
262.341
236.087
246.788
238.103
217.276
223.352
211.869
199.637
188.136
157.459
212.876
174.659
145.344
107.159
151.894
126.949
93.5249
199.559
181.281
192.076
184.314
180.505
168.836
164.994
205.892
176.665
162.764
170.962
162.738
162.465
166.655
97.5987
134.802
157.519
141.326
62.7238
86.398
62.0867
91.7657
30.3961
39.3601
25.0699
14.4879
28.2888
16.8417
211.443
135.236
174.479
196.879
180.585
113.57
100.043
118.15
89.4439
36.6236
18.8707
46.6721
15.3056
18.7022
10.1352
17.091
75.0192
36.9475
226.353
232.629
224.95
155.423
179.955
163.196
82.7409
82.6218
52.2636
63.6011
72.6032
214.575
194.473
175.977
147.843
133.579
80.3857
74.7287
72.147
75.5133
65.9065
178.276
109.731
138.125
143.445
137.3
83.6194
39.498
65.4281
41.7731
87.9935
104.102
100.153
34.0301
59.6275
53.1095
63.8095
68.6159
150.327
86.3064
149.459
151.873
127.055
137.475
145.222
136.541
153.387
132.562
89.9817
146.394
65.3793
42.9449
11.2203
22.25
33.511
18.3316
9.60002
9.39655
7.4308
12.0009
13.4497
10.2068
8.47467
9.39439
14.7502
8.92302
62.3379
14.4482
37.1871
39.4591
17.5409
9.53795
8.43084
9.19631
6.86
11.7635
9.39126
8.63465
8.91878
7.89902
9.30051
6.92813
12.6989
6.82303
83.7485
98.9935
90.2725
30.2021
44.6275
37.536
17.4089
37.31
6.36278
5.6506
7.57012
86.136
75.9891
45.0109
39.28
32.733
57.6654
47.7877
7.25458
12.4978
9.53829
51.4498
15.2609
9.53523
13.6056
8.9257
7.32824
6.20264
6.36277
6.5468
13.356
8.44657
13.8077
6.34618
6.26286
6.09432
6.4915
7.74178
13.7811
6.3411
72.1527
95.6318
7.92897
10.0167
17.0624
19.4645
99.936
8.01603
6.26279
13.6016
6.2271
6.87148
6.91887
7.04484
6.99568
7.00854
6.83277
6.80468
6.81671
6.97624
6.9821
6.75205
6.70776
6.69255
7.08258
6.68578
7.14798
6.93775
6.87014
6.93581
7.52709
7.00019
6.91389
7.01645
7.0669
6.73048
8.0943
6.56408
6.6659
6.79087
6.43107
6.749
6.89649
6.86206
7.82434
12.6288
8.60242
6.81446
6.82222
6.75061
6.8021
6.64643
6.92893
6.94144
7.00414
8.78111
7.52365
6.73732
6.72463
6.68007
6.10546
6.1467
7.01116
7.07014
6.97493
6.80248
6.79166
6.9059
6.87396
7.03112
6.77572
6.79301
6.86069
6.91314
6.93941
7.04114
6.97481
6.91543
6.92218
6.85742
6.89238
6.98918
6.99039
6.95171
6.42861
6.3052
6.87099
7.11215
7.19568
6.7393
6.01891
7.21331
6.90783
7.40719
6.90231
6.81014
6.78131
6.7594
6.75732
6.74669
6.74941
6.75467
6.73621
6.67381
6.65353
6.75863
6.75174
6.71212
6.71168
6.7467
6.83743
6.80909
6.80014
6.84245
6.60496
6.81209
6.78784
6.81889
6.64944
6.79914
6.59494
6.80694
6.76444
6.79187
6.7811
6.78274
6.81293
6.84815
6.83668
6.8266
6.83366
6.78482
6.80366
6.798
6.84639
6.94263
6.91473
6.8653
6.69594
6.84622
6.85117
6.82003
6.82901
6.81358
7.17186
7.00852
6.96218
6.57227
6.87568
6.80897
6.80838
6.78219
6.85025
6.87432
6.79248
6.82015
6.86373
6.8917
6.94335
6.94858
6.96353
6.95344
6.97021
6.96549
6.99476
6.93189
6.88243
6.90439
6.95912
7.01484
6.90357
6.95753
7.02514
6.96799
7.25208
7.07147
7.00242
7.14345
6.98638
6.7831
6.77719
6.7713
6.76512
6.74392
6.79904
6.77937
6.76739
6.7567
6.69847
6.80056
6.79418
6.70369
6.73993
6.75487
6.82615
6.83782
6.80144
6.82561
6.74559
6.83464
6.81585
6.83376
6.7837
6.82702
6.82262
6.83402
6.75235
6.85386
6.82023
6.87391
6.87911
6.89473
6.81983
6.81935
6.81796
6.82908
6.82741
6.82305
6.9841
6.91516
7.07058
6.94342
6.98699
6.90266
6.90646
6.99817
6.96588
6.9891
6.96981
7.0012
6.95384
6.97737
6.82698
6.83334
6.83555
6.83291
6.84144
7.24993
6.84762
6.65792
6.9509
6.9329
6.89752
6.89147
6.9812
6.92302
6.94595
6.94482
6.97529
6.9237
6.95578
6.8317
6.85409
6.83928
6.87322
6.89513
6.85164
6.85954
6.88528
6.89263
6.9757
6.95359
6.98467
6.94929
6.97768
6.95468
6.98438
6.89956
6.92908
6.93961
6.95872
6.98855
6.95225
6.95861
6.97926
7.00484
7.05949
7.02702
7.00054
7.0302
6.99478
6.79769
6.84159
6.82083
6.78049
6.79404
6.82937
6.81683
6.81848
6.80706
6.72128
6.83558
6.82877
6.75134
6.79103
6.8511
6.84725
6.86054
6.83117
6.8437
6.7896
6.86173
6.84762
6.85554
6.81591
6.87994
6.84332
6.91516
6.83715
6.90037
6.89574
6.94455
6.91868
6.99188
6.91687
6.97507
6.97923
7.00691
6.97107
7.00734
6.84225
6.84316
6.83779
6.86101
6.86494
6.85853
7.00188
6.9154
6.95721
6.96502
6.97434
6.9178
6.94425
7.00265
6.96109
6.98666
6.97287
7.00098
6.94553
6.97992
6.85023
6.86765
6.88
6.87331
6.89634
6.96978
6.96415
6.95757
6.97278
6.94293
6.95459
6.93374
6.97549
6.91546
6.95885
6.92956
6.97034
6.89159
6.95483
6.88068
6.90874
6.88167
6.90634
6.9058
6.90752
6.90826
6.93214
6.92857
6.98736
6.9689
6.99396
6.98361
6.99981
6.98606
7.00668
6.96526
7.01706
7.0737
6.95028
6.94455
6.95358
6.94169
6.95405
6.95694
6.97188
6.96239
6.96111
6.9738
7.00455
7.01254
7.00418
7.0131
7.00536
6.99908
6.87166
6.88027
6.83885
6.84805
6.83821
6.85238
6.86307
6.85041
6.84551
6.78141
6.86488
6.86057
6.81324
6.91013
6.93981
6.87771
6.8901
6.85496
6.86946
6.84744
6.86716
6.84637
6.8825
6.87004
6.92027
6.9395
6.95653
6.92072
6.92853
6.95907
6.95658
6.91608
6.9775
6.88545
6.94518
6.972
7.00897
6.96834
7.01112
6.88295
6.89243
6.88337
6.90344
6.92386
6.91206
6.9794
6.91276
6.93861
6.94127
6.96071
6.91568
6.91114
7.00679
6.95
6.98863
6.97607
7.01158
6.95951
6.99813
6.9024
6.9281
6.9444
6.93478
6.96055
6.92433
6.9619
6.97351
6.97034
6.92357
6.96415
7.06617
6.98173
6.92196
6.98729
6.9548
7.00686
7.01285
7.06479
6.93937
6.97032
6.93795
6.95934
6.95813
6.96854
6.96984
6.98558
6.98488
7.00853
7.0029
7.01616
6.99308
7.00715
7.0034
7.0119
7.13594
7.01436
7.22538
6.99837
7.06127
7.0568
6.97663
6.99806
6.98064
6.98899
6.99787
6.99829
7.00429
7.01954
7.0053
7.0097
7.02011
7.00717
7.00874
6.88503
6.89748
6.87034
6.87538
6.86694
6.89351
6.89143
6.88964
6.8826
6.85426
6.91905
6.91105
6.8944
6.94631
6.94914
6.90245
6.92085
6.84969
6.89006
6.88242
6.88608
6.86804
6.90174
6.89375
6.9369
6.95915
6.9537
6.94306
6.94978
6.95852
6.95637
6.8839
6.89575
6.92283
6.95693
6.94291
6.94331
6.98795
6.97269
6.97723
6.93367
6.94923
6.89605
6.95021
6.94971
6.98826
7.02245
6.99024
7.02243
6.99905
7.02677
7.02409
7.03609
6.9691
6.99316
7.015
7.00316
7.02367
6.96044
6.97908
7.21988
6.95262
7.00109
6.93054
7.26396
7.0544
7.07653
7.08297
7.05983
7.07786
7.12084
7.10108
6.99906
7.02397
6.99821
7.00849
7.00491
7.02106
7.01642
7.02755
7.01888
6.98652
6.98686
6.98845
6.94549
6.95184
6.94917
6.94891
6.89779
7.01523
7.02839
7.01655
7.01928
7.02732
7.02869
7.03041
7.015
7.00603
7.00119
7.00844
7.00375
6.97859
6.91821
6.94213
6.91985
6.91479
6.91712
6.94261
6.93722
6.94148
6.9401
6.92319
6.96778
6.9599
6.93162
6.94892
6.93992
6.9455
6.97116
6.89663
6.92382
6.91718
6.93758
6.92787
6.95057
6.94702
6.95531
6.95529
6.9542
6.94041
6.95177
6.94837
6.94667
6.92059
6.93661
6.96439
7.01586
6.99966
6.98323
7.03743
7.02241
6.96864
7.05683
6.92818
6.9365
6.86256
7.03149
7.04811
7.06383
7.0518
7.06463
7.09363
6.87526
6.92949
6.74357
6.88416
7.04384
7.0573
7.02569
7.03965
7.02569
7.05037
7.03073
7.04667
7.03027
6.9244
6.91186
6.91127
6.89936
6.91124
6.89868
6.89642
6.91283
7.03366
7.0359
7.03509
7.03486
7.03726
7.03556
7.03525
6.99838
6.99967
6.99275
6.99246
6.99616
6.93079
6.96374
6.98066
6.95904
6.95683
6.95956
6.96901
6.97148
6.96955
6.97013
6.92897
6.97917
6.97629
6.93276
6.92625
6.91736
6.99558
7.01717
6.9553
6.97646
6.97366
6.98551
6.97339
6.99849
6.99565
6.94615
6.9402
6.94315
6.92067
6.93264
6.92994
6.94035
6.94331
6.94988
7.00078
7.05025
7.03821
7.01895
7.05912
7.049
6.96692
6.97488
6.96789
6.97816
6.98915
7.06279
7.07452
7.08262
7.06817
7.07916
6.95092
6.91546
7.03524
7.03278
6.96637
7.06424
7.06728
7.03143
7.0493
7.03274
7.05534
7.0305
7.05042
7.03344
6.91623
6.90222
6.89986
6.92739
6.92991
6.91323
6.92964
6.96466
7.03483
7.03295
7.03131
7.03171
7.03114
7.02547
7.02808
6.98846
6.9962
6.99551
6.98722
6.99829
6.94211
6.99312
7.00264
6.97492
6.98075
6.97446
6.97975
6.98623
6.97895
6.97335
6.94874
6.97643
6.97176
6.96361
6.91492
6.92536
7.03375
7.04347
6.98503
7.01434
7.01674
7.01526
6.99616
7.02449
7.03547
6.92573
6.9238
6.93992
6.90845
6.92702
6.92398
6.94362
6.95202
6.95751
7.03612
7.06809
7.05744
7.05081
7.07604
7.06295
6.98337
6.98948
6.97752
6.9937
6.99124
7.0708
7.08036
7.07865
7.07069
7.0792
7.05194
6.99187
7.07221
7.05565
7.07172
7.06756
7.06617
7.03018
7.04947
7.03472
7.05068
7.02874
7.04834
7.03425
6.96233
6.94467
6.97832
6.97002
7.01368
6.98398
7.01056
7.04534
7.03111
7.02973
7.01843
7.02062
7.01946
7.01202
7.01424
6.98905
7.00137
7.00167
6.9915
7.00281
6.98183
7.00936
7.01517
6.9847
6.98964
6.98397
6.98803
6.99245
6.98543
6.97444
6.97005
6.97939
6.97509
6.96982
6.94052
6.95248
7.04756
7.04758
7.0083
7.02925
7.04704
7.03161
7.02024
7.03083
7.04288
6.93438
6.92921
6.94884
6.92178
6.94635
6.941
6.95765
6.96364
6.97013
7.05684
7.07813
7.06318
7.05478
7.07353
7.05934
7.00028
6.99591
6.9817
6.99782
6.99738
7.06749
7.0756
7.06534
7.06187
7.06957
7.04665
7.11724
7.02748
7.03005
7.09379
7.06289
7.05773
7.02631
7.04591
7.03187
7.04071
7.02077
7.04174
7.02694
7.04763
6.997
7.01743
6.99206
7.03354
6.99375
7.01206
7.07684
7.02699
7.02194
7.00506
7.0072
7.00412
6.99932
7.00137
6.99312
7.0014
6.99766
6.99188
6.99846
6.99247
7.02223
7.02842
6.99102
6.99761
6.98471
6.99711
7.00656
6.99018
6.97426
6.96846
6.982
6.97799
6.97465
6.96355
6.97498
7.04464
7.04998
7.0282
7.03096
7.02839
7.04137
7.0325
7.03257
7.01518
6.96096
6.95096
6.96588
6.96205
6.97409
6.95899
6.97294
6.97627
6.98128
7.05088
7.0677
7.05364
7.05425
7.06113
7.0458
6.99592
6.99856
6.9848
6.99397
6.99691
7.05563
7.06132
7.05196
7.04868
7.05154
7.01181
7.0546
6.99236
6.99832
7.02144
7.05076
7.0431
7.01254
7.03508
7.0203
7.02705
7.00495
7.02647
7.01407
7.0145
6.98761
7.00113
6.98289
6.9948
6.98232
6.99048
7.00889
7.0153
7.00917
6.99497
6.99628
6.9891
6.99252
6.99294
6.98927
6.99395
6.98935
6.9873
6.99047
6.98951
7.03497
7.04407
7.00746
7.01791
7.0044
7.01769
7.03006
7.018
6.98553
6.98382
6.99874
6.99338
6.98987
6.98293
6.98863
7.05824
7.06279
7.03939
7.03501
7.00413
7.04937
7.05253
7.03355
7.02314
6.9823
6.96453
6.97741
6.98036
6.98587
6.97035
6.98026
6.98514
6.98767
7.06026
7.05354
7.03817
7.06691
7.04601
7.03734
6.99392
6.99494
6.98364
6.99388
6.99253
7.04045
7.04113
7.03495
7.03173
7.03176
6.98877
7.00051
6.97824
6.98232
6.98501
7.03508
7.02734
6.9978
7.01859
7.00793
7.01255
6.99207
7.01214
7.00203
6.98347
6.98119
6.98422
6.97751
6.97599
6.98095
6.98095
6.9787
7.00407
6.99948
6.99129
6.9909
6.98388
6.99121
6.99039
6.98614
6.98816
6.98604
6.98555
6.98755
6.98847
7.05208
7.05208
7.02327
7.0405
7.02403
7.02388
7.04446
7.02073
6.9972
6.99279
7.00486
6.9953
6.99141
6.99051
6.98833
7.06776
7.0651
7.05946
7.04378
7.05455
7.04402
7.05545
7.04798
7.0601
6.98722
6.97348
6.98043
6.97983
6.98634
6.97291
6.97869
6.98837
6.98602
7.05761
7.04186
7.04107
7.04261
7.03392
7.03713
6.99286
6.98827
6.97927
6.98992
6.98384
7.02204
7.02472
7.01594
7.01146
7.01872
6.97753
6.97511
6.97065
6.97295
6.96739
7.0204
7.01454
6.9864
7.00537
6.99619
7.00056
6.98278
6.99964
6.99196
6.9718
6.98136
6.97933
6.97491
6.96806
6.98134
6.97835
6.96693
6.99632
6.99599
6.99279
6.9912
6.98778
6.99543
6.99289
6.98643
6.98835
6.98833
6.9873
6.98978
6.98762
7.03905
7.01366
7.01415
7.03627
7.00726
6.99603
7.01715
6.98689
6.98642
6.98417
6.97844
6.97472
6.97317
6.98223
6.97397
7.04765
7.02384
7.03661
7.03526
7.04496
6.99927
7.00428
7.00757
7.01539
6.98232
6.96924
6.97405
6.96947
6.97519
6.96276
6.9678
6.98118
6.97516
7.02178
7.02052
7.02376
6.99819
7.0029
7.00511
6.985
6.97938
6.97403
6.98029
6.97431
7.00104
7.01348
6.99366
6.99082
7.00803
6.96885
6.96152
6.96361
6.96413
6.95666
7.00979
7.00651
6.97995
6.99471
6.99057
6.994
6.97833
6.98907
6.99067
6.96512
6.98122
6.97731
6.97352
6.96328
6.97997
6.97641
6.96201
6.99605
7.00232
6.99772
6.99517
6.99926
6.99946
6.99682
6.98781
6.99102
6.99044
6.98774
6.99148
6.98559
6.98475
6.9539
6.97778
6.99599
6.96837
6.95983
6.9738
6.95043
6.96152
6.96108
6.95041
6.94821
6.95009
6.96476
6.95641
6.99482
6.9616
6.9707
6.97129
6.98167
6.9164
6.93554
6.92902
6.9489
6.96702
6.95573
6.96222
6.9562
6.95969
6.94925
6.95757
6.96997
6.9661
6.97298
6.98314
6.98537
6.94633
6.96264
6.96513
6.97347
6.96854
6.96888
6.96738
6.96268
6.98165
7.00569
6.97234
6.97472
7.00162
6.95967
6.95251
6.95549
6.95534
6.95021
6.99809
6.99418
6.97796
6.98537
6.99855
6.98462
6.97439
6.98333
7.00755
6.96179
6.97817
6.97478
6.97023
6.96086
6.97542
6.97286
6.96008
7.02143
7.02319
6.99987
6.9981
7.00781
6.99724
6.99674
6.98657
6.99076
6.98759
6.98432
6.98825
6.98082
6.92376
6.89883
6.94069
6.95199
6.93124
6.91868
6.9312
6.91273
6.93564
6.9402
6.92632
6.92528
6.93284
6.94974
6.94611
6.92439
6.8829
6.90347
6.88238
6.91076
6.85677
6.88148
6.83237
6.8627
6.95489
6.94613
6.95585
6.94866
6.95247
6.94586
6.95597
6.96252
6.9649
6.92142
6.94103
6.94236
6.90324
6.91748
6.91419
6.95991
6.95707
6.96403
6.95268
6.95204
6.97151
6.9895
6.95625
6.96417
6.97013
6.95206
6.94942
6.94781
6.94946
6.95024
6.98381
6.96858
6.96847
6.97952
6.99703
6.95511
6.95685
6.96997
6.97289
6.96037
6.97219
6.97023
6.96507
6.9602
6.96873
6.9678
6.96021
7.00646
6.98639
6.98969
6.99091
6.98908
6.98786
6.98628
6.98119
6.98345
6.97928
6.97764
6.97816
6.97374
6.87959
6.87482
6.90267
6.91402
6.90151
6.90392
6.90697
6.90371
6.92356
6.93096
6.92459
6.92576
6.93276
6.944
6.94416
6.84491
6.83492
6.86793
6.79813
6.81419
6.83503
6.86291
6.79609
6.78365
6.95145
6.94706
6.95838
6.94672
6.95155
6.94766
6.95826
6.96547
6.96097
6.89042
6.89657
6.88632
6.87977
6.88379
6.87372
6.94604
6.94792
6.95294
6.9413
6.94526
6.95188
6.94874
6.9301
6.93552
6.92969
6.95046
6.95323
6.94618
6.95209
6.95464
6.95209
6.93458
6.94596
6.95493
6.94829
6.91473
6.92972
6.93773
6.92158
6.96009
6.96553
6.9655
6.96062
6.96
6.96256
6.9634
6.96071
6.96778
6.95027
6.98257
6.97327
6.96821
6.96862
6.9667
6.97348
6.9705
6.96686
6.96852
6.96388
6.9668
6.8828
6.8979
6.91714
6.90827
6.91419