/*--------------------------------*- C++ -*----------------------------------*\
| =========                 |                                                 |
| \\      /  F ield         | OpenFOAM: The Open Source CFD Toolbox           |
|  \\    /   O peration     | Version:  5.x                                   |
|   \\  /    A nd           | Web:      www.OpenFOAM.org                      |
|    \\/     M anipulation  |                                                 |
\*---------------------------------------------------------------------------*/
FoamFile
{
    version     2.0;
    format      ascii;
    class       surfaceScalarField;
    location    "9";
    object      phi;
}
// * * * * * * * * * * * * * * * * * * * * * * * * * * * * * * * * * * * * * //

dimensions      [0 3 -1 0 0 0 0];

internalField   nonuniform List<scalar> 
29271
(
-4.47454e-06
-1.49717e-06
9.3188e-07
4.99216e-06
-5.52203e-06
5.97312e-07
3.63599e-07
4.64173e-06
-1.76045e-05
-6.81218e-08
-1.66209e-06
3.36292e-06
7.52439e-07
1.52194e-05
-1.80578e-05
-6.87658e-07
-2.87913e-06
2.36007e-06
8.60581e-07
1.8404e-05
-1.83854e-05
-1.84062e-06
1.97779e-06
2.04897e-06
1.88343e-05
-2.63507e-06
-1.98681e-05
-2.84894e-06
6.16302e-08
1.09076e-06
2.88566e-06
1.8679e-05
-1.29399e-05
-1.52104e-06
-2.85736e-06
1.66636e-06
6.57389e-07
1.49946e-05
-1.60042e-05
2.13302e-07
-1.07103e-06
1.17136e-06
-5.89866e-07
1.62805e-05
-1.66971e-05
1.91372e-07
-2.11181e-06
2.87865e-06
-1.73211e-06
1.7471e-05
-1.82504e-05
-1.15165e-06
1.61952e-06
2.25814e-05
-4.96156e-06
-1.08214e-05
-2.83179e-06
-1.35552e-06
1.50291e-05
-1.49609e-05
-9.4305e-07
-1.84864e-06
1.75053e-06
1.43759e-06
1.45645e-05
-1.63204e-05
-1.02515e-06
-2.65319e-06
1.59942e-06
2.34118e-06
1.60581e-05
-1.49169e-05
1.11765e-06
7.30958e-07
1.0718e-07
3.92684e-07
1.25684e-05
-1.35966e-05
1.65412e-06
-1.23085e-06
3.62358e-06
-8.72792e-07
1.04226e-05
-2.30693e-05
5.29661e-07
1.36919e-06
-3.87387e-06
3.31213e-05
-8.07705e-06
-1.64384e-05
-2.78653e-06
4.23033e-06
3.08081e-06
1.44614e-05
-2.5477e-06
-1.8334e-05
-6.78884e-06
-5.59182e-06
3.36511e-06
1.32734e-05
1.40761e-05
-1.55326e-05
-1.49404e-06
3.0796e-06
-1.38363e-06
3.42186e-06
1.19088e-05
-1.36224e-05
4.62204e-06
-9.23021e-07
1.14597e-05
9.23923e-08
-1.62878e-06
-8.69325e-06
1.4389e-06
-5.71045e-06
1.26986e-05
-2.01487e-05
-4.19016e-06
8.42855e-06
3.20837e-05
-1.61744e-05
-1.65408e-05
-9.02554e-07
-6.98892e-06
1.006e-05
2.11595e-05
-6.78727e-06
-5.39829e-06
9.05641e-07
7.96072e-07
3.7027e-06
-5.1849e-06
-1.21875e-06
2.05932e-06
4.30365e-06
-4.70749e-06
9.67331e-07
-5.40812e-07
4.33073e-06
-3.07467e-07
-1.63672e-06
-1.39117e-05
2.37825e-06
9.60626e-07
1.2517e-05
-1.69294e-06
-1.68532e-05
-2.79555e-06
2.30537e-06
2.86896e-06
1.61673e-05
-1.94895e-05
-5.4652e-07
-2.59779e-06
2.14757e-06
2.0009e-05
4.77261e-07
7.07221e-07
-1.32842e-06
-1.6362e-05
2.78316e-06
8.79515e-07
1.33206e-05
2.91458e-06
-1.10072e-06
9.22575e-05
-1.7874e-05
-1.66987e-05
-1.73478e-05
-1.74861e-05
-2.65082e-06
-2.19292e-06
-1.67566e-06
-1.71683e-06
-5.03264e-06
-4.43119e-06
-3.87502e-06
-3.08976e-06
-8.15809e-06
-9.77755e-07
7.71009e-05
-1.73085e-05
-1.64389e-05
-1.76278e-05
-1.60588e-05
-1.15417e-07
-5.09697e-07
-4.64324e-07
3.47299e-06
-8.36042e-06
-1.47812e-06
6.70585e-05
2.03047e-07
5.81463e-07
9.11264e-06
7.70619e-07
-9.61297e-06
-4.22284e-06
-4.37696e-06
-1.68067e-05
-1.97316e-05
-1.07152e-05
-1.05795e-05
-1.98629e-05
9.15857e-07
-1.70042e-06
1.23937e-05
-1.25734e-05
-6.2276e-07
6.73863e-06
6.67929e-06
-4.0252e-06
-1.51665e-05
-1.2443e-06
2.77198e-06
-6.05713e-07
1.82697e-05
1.79407e-06
-8.78776e-06
8.21929e-05
-1.56759e-05
-1.59359e-05
-1.60812e-05
-1.61181e-05
-3.30972e-06
-3.3703e-06
-3.07885e-06
-2.72981e-06
-1.80106e-06
-5.21815e-06
5.3084e-05
-1.19173e-05
-1.09936e-05
-1.15485e-05
-1.07891e-05
-1.43911e-05
-1.53788e-06
7.65506e-05
-1.00132e-05
-6.08012e-06
-1.48504e-05
-3.77478e-06
-6.07139e-07
-1.05328e-06
-7.85124e-06
-5.56562e-06
-8.01924e-06
-6.08582e-06
-4.29056e-05
-1.87726e-06
2.95109e-06
1.36735e-06
2.60733e-05
-1.32244e-05
-1.43095e-06
1.41945e-06
6.92325e-07
1.25888e-05
-4.51824e-08
3.03872e-06
-1.13584e-05
0.000100407
-1.1121e-06
-7.6001e-07
1.79352e-07
5.40175e-07
-1.63872e-05
-4.06249e-06
-5.35213e-06
-1.33004e-05
-1.53922e-05
-2.14593e-05
-2.37685e-05
-5.89382e-07
-1.55024e-05
7.23029e-05
-2.78869e-07
1.4305e-07
-7.59767e-08
-4.19143e-06
-6.47443e-06
-3.07795e-06
-1.1236e-05
-1.02418e-05
-1.29899e-05
-9.96731e-06
-8.23248e-06
3.5866e-07
-1.2339e-06
6.98047e-06
-1.55317e-05
1.12163e-05
-4.2448e-06
8.53535e-06
-2.90246e-05
5.1067e-07
1.36664e-07
1.72401e-05
-2.23708e-05
-2.4184e-06
5.34369e-06
-1.1734e-05
1.56771e-05
-2.96484e-06
1.20503e-06
-1.29271e-06
3.04411e-06
-2.66238e-06
-7.46219e-07
2.6781e-06
6.19648e-07
-3.70674e-06
7.82191e-07
2.83077e-07
2.67663e-06
-1.972e-06
-1.87431e-06
-1.11058e-05
2.39594e-06
1.66486e-06
1.08913e-05
-7.88053e-06
-1.75981e-05
4.90041e-08
-5.0869e-06
4.68274e-06
2.58338e-05
-2.41023e-05
-4.51139e-06
-5.35044e-07
2.12811e-06
2.06925e-05
6.32809e-06
8.32974e-07
-1.71859e-06
-1.1003e-05
2.63313e-06
1.77801e-07
9.07763e-06
3.53437e-06
2.44372e-06
0.00012995
-1.44869e-06
-3.99576e-06
-7.84414e-06
-7.87781e-06
-1.60789e-06
-4.23432e-06
-4.63643e-06
-1.20258e-05
-8.0842e-06
8.66943e-06
8.84228e-05
-3.61425e-06
2.85435e-07
-3.60483e-06
-1.43912e-06
-6.67201e-07
6.56455e-06
6.1764e-05
1.45428e-06
-1.89596e-06
-1.58747e-06
-2.18321e-06
-1.19653e-06
-5.29383e-07
-2.74874e-06
-8.61845e-06
-6.47634e-08
-2.38602e-09
8.00763e-06
-3.3285e-06
-1.81865e-08
1.24006e-06
2.14248e-06
-3.41311e-06
-1.84714e-05
7.53834e-07
7.41806e-06
4.58517e-07
1.32541e-05
6.18322e-06
-1.52345e-05
0.000114866
-3.80567e-06
-1.72614e-06
-1.03763e-05
-5.27009e-06
-1.81736e-05
-8.42757e-06
9.45378e-05
-6.24038e-06
6.16443e-08
8.90841e-05
-8.58439e-06
-5.42685e-06
-4.51186e-06
6.37352e-07
3.29545e-07
-4.07485e-07
-1.81824e-05
9.8087e-07
-8.35551e-06
3.57342e-07
1.89593e-05
-1.20336e-05
-2.46555e-06
5.14795e-06
2.50942e-06
8.68973e-06
-1.84798e-06
2.95371e-06
-3.62799e-06
0.000104683
-2.37591e-06
-1.04428e-07
-4.54944e-06
-3.17594e-08
-5.24038e-06
-3.1778e-06
-3.35674e-06
3.69613e-07
-4.4051e-06
7.66012e-05
8.5954e-07
1.36156e-06
2.93483e-07
-1.94696e-06
-3.42886e-06
-2.87549e-06
-8.67531e-06
-7.07469e-07
-1.01615e-07
9.91565e-06
-6.04408e-06
-1.49911e-06
2.531e-06
5.01214e-06
-1.28739e-05
1.95833e-06
-2.77143e-06
1.01536e-05
-1.71878e-05
-4.01473e-07
3.91022e-06
-7.67546e-06
1.69494e-05
-3.44145e-06
1.84351e-07
-7.23706e-07
3.95241e-06
5.02196e-07
8.74259e-08
-4.45364e-07
-2.09764e-07
-2.71613e-06
-1.12652e-06
-1.10731e-06
4.89618e-06
-1.02369e-06
2.29055e-06
-9.86589e-06
-4.91038e-06
3.55707e-06
9.95234e-06
-1.01894e-06
-2.80824e-05
8.51275e-06
-6.02709e-06
3.66818e-06
2.29475e-05
-1.48973e-05
4.80998e-07
2.97485e-06
-5.66309e-07
1.0626e-05
1.3818e-06
2.40239e-07
-1.00825e-06
-7.91487e-06
-3.1688e-07
-1.32822e-07
9.13258e-06
2.52273e-06
9.03596e-06
0.000138807
-4.51186e-06
-5.52944e-06
-2.12797e-06
-2.8703e-06
1.00519e-06
-7.82772e-06
2.93465e-06
-1.48815e-06
4.06565e-06
1.49754e-05
8.42657e-05
-4.93845e-06
-3.18016e-06
-2.55447e-06
-1.68806e-06
1.76732e-06
5.71046e-06
6.05108e-05
-1.88809e-06
-9.23422e-07
-5.28132e-07
-7.50008e-07
1.04316e-06
1.92097e-07
6.95414e-07
-7.31565e-06
-1.2401e-06
3.57454e-06
6.74853e-06
-1.42417e-06
-1.84322e-08
3.01892e-07
1.13679e-06
-9.23886e-07
-6.29023e-06
2.72388e-07
4.73942e-06
3.73615e-07
1.8287e-06
6.52461e-06
-5.30751e-06
0.000134136
-8.19541e-06
-1.08366e-06
-3.3857e-06
1.21338e-06
-2.49349e-06
1.72641e-06
0.000116805
4.05453e-07
2.14389e-07
9.25781e-05
-1.47054e-07
-3.48338e-07
-1.86735e-07
2.62514e-08
-2.41044e-07
5.99811e-11
-1.63261e-05
-3.26966e-06
-6.32134e-08
1.14351e-06
1.89209e-05
-5.61336e-06
-1.23209e-06
1.9075e-06
2.7546e-07
6.04915e-06
-1.38667e-06
-5.23643e-07
-1.49501e-06
0.000120867
-3.62425e-06
-3.04506e-07
-2.91401e-06
-1.29695e-06
-1.54268e-06
-4.4418e-06
-5.34886e-06
5.13825e-07
9.27913e-07
8.53071e-05
-1.29541e-07
-4.21049e-08
-3.65022e-08
-1.69563e-06
-3.57956e-06
-3.4615e-06
-1.0899e-05
2.10309e-06
7.92517e-07
8.73161e-06
-4.11569e-06
2.30604e-06
-3.25936e-06
5.06556e-06
-5.82108e-06
1.05683e-07
2.73666e-07
3.95198e-06
-1.29533e-05
9.67726e-07
-2.20152e-06
2.01087e-06
1.31041e-05
-4.72226e-06
-3.09016e-07
6.84218e-07
4.34706e-06
-8.70326e-07
-6.14839e-07
7.75735e-07
7.0943e-07
-6.21967e-06
8.38322e-07
-1.41773e-06
6.79907e-06
1.41949e-06
2.33308e-06
-1.20265e-05
-4.13436e-06
-9.66148e-07
1.33744e-05
-2.04996e-06
-1.77169e-05
2.4557e-06
-1.61481e-06
2.67222e-06
1.62537e-05
-9.2716e-06
5.4737e-07
-1.8073e-06
3.91783e-07
8.89489e-06
1.24486e-06
-1.39101e-06
-9.23393e-07
-8.90916e-06
-7.3045e-07
3.1021e-06
8.85191e-06
-1.31777e-06
7.02656e-06
0.000130867
-9.09874e-07
-2.194e-06
-4.5889e-07
-8.74124e-07
3.26077e-06
-1.14739e-06
3.97089e-06
5.83559e-07
4.27497e-06
1.02832e-05
7.23006e-05
-1.68196e-06
-7.64958e-07
-1.4216e-06
-4.24208e-08
3.28418e-07
5.1235e-07
5.83153e-05
-3.17552e-07
5.5183e-07
4.22786e-07
1.7569e-06
1.07567e-07
1.62822e-06
1.48003e-06
-5.5583e-06
2.58942e-07
3.5239e-07
5.27538e-06
-1.00224e-06
3.01895e-07
2.15981e-07
4.84366e-07
-1.99541e-06
1.55778e-07
9.73239e-08
2.39893e-06
-2.73362e-06
2.07699e-06
4.05038e-06
-3.24539e-06
0.000139493
-2.5805e-06
1.65362e-06
-9.81993e-07
2.77406e-06
8.02267e-06
6.77574e-06
0.00011634
1.11348e-06
-4.9212e-07
9.075e-05
2.21684e-06
2.50615e-06
3.02664e-06
1.77787e-07
8.14871e-07
9.99447e-07
-2.00996e-05
-6.46603e-07
-4.99105e-07
8.74079e-08
2.22714e-05
-7.02214e-06
-8.66412e-07
4.99171e-07
-2.84216e-06
8.43382e-06
1.79772e-06
6.03368e-07
-9.65663e-07
0.000116183
-1.15885e-06
-3.81861e-07
1.04776e-06
6.13278e-07
-1.01759e-06
1.60925e-06
1.0896e-06
6.26508e-07
-8.87454e-07
8.55537e-05
1.17759e-06
1.5299e-06
1.91842e-06
-7.24554e-07
1.36138e-06
2.13078e-06
-7.94952e-06
9.81972e-07
-6.34115e-07
7.73606e-06
-5.32623e-06
9.03473e-07
-2.1032e-06
6.52596e-06
-2.70786e-06
9.4636e-08
-1.49432e-06
3.14188e-06
-7.04836e-06
6.84102e-07
2.56409e-06
-2.82392e-06
5.73664e-06
-4.36612e-06
1.56773e-06
-1.78554e-06
4.58393e-06
-4.18066e-07
-9.30203e-07
1.57929e-06
-2.31025e-07
-6.74852e-06
1.4889e-06
-1.27426e-06
6.53387e-06
1.00072e-06
1.63604e-06
-1.46366e-05
-3.66862e-06
1.05359e-06
1.46149e-05
-2.62085e-06
-1.42821e-05
3.0756e-06
-1.08173e-06
3.32098e-06
1.15881e-05
-9.1739e-06
2.08543e-06
-3.54978e-06
-9.28114e-07
1.02239e-05
1.34249e-06
-1.36104e-06
-4.53669e-07
-9.75544e-06
-1.76219e-06
2.3139e-06
1.10184e-05
-9.91669e-06
6.18669e-06
0.000127814
-8.20048e-07
-1.83791e-06
-9.80268e-07
-1.15971e-06
4.22336e-06
1.28933e-06
3.90253e-06
2.16651e-06
-1.44247e-06
6.34452e-06
6.28737e-05
-2.51663e-06
-9.87479e-07
-1.65243e-06
-2.35301e-07
6.90513e-07
-4.34372e-06
5.39792e-05
7.43227e-07
2.57873e-06
1.55356e-06
2.17123e-06
-1.09492e-07
-1.50854e-07
-2.39634e-07
-5.56776e-06
1.42675e-06
6.88264e-07
-2.09756e-06
6.24082e-06
1.54421e-07
-1.51279e-08
5.40018e-08
-1.93293e-07
-2.41018e-07
6.99398e-07
-7.21307e-07
2.62927e-07
-3.29543e-07
-3.67896e-06
7.00308e-07
5.09484e-07
-3.31708e-06
6.11579e-06
-6.40982e-07
-1.46424e-06
0.000140121
-8.94643e-08
2.67925e-06
1.75431e-06
3.31948e-06
8.41543e-06
4.72987e-06
0.000108898
1.56359e-06
-9.2579e-09
8.58329e-05
3.30645e-06
7.89355e-07
2.28699e-06
4.94935e-07
5.69602e-07
-1.29084e-08
-2.38927e-05
3.9639e-08
2.49424e-06
3.9896e-06
1.89328e-05
-5.92109e-09
-6.70917e-07
6.13737e-09
9.07788e-08
5.7983e-07
-9.55646e-06
1.65755e-06
-1.69596e-06
-3.27374e-06
9.78952e-06
3.07909e-06
1.8836e-06
1.61341e-06
0.000102525
9.79433e-07
1.2238e-06
1.68514e-06
1.79351e-06
1.12526e-06
1.33246e-06
5.5702e-07
1.40911e-06
1.11089e-06
7.95812e-05
1.81683e-06
1.87508e-06
1.80436e-06
1.99967e-06
5.60474e-07
2.00949e-06
-9.11521e-06
1.50666e-06
-7.35194e-07
9.7436e-06
-9.33872e-06
1.48423e-06
-2.46104e-06
1.03155e-05
-4.54564e-06
2.58908e-07
4.64917e-07
5.43522e-06
-6.5395e-06
-8.10225e-08
1.08743e-06
-2.58822e-07
6.90282e-06
-4.67471e-06
1.50766e-06
-1.67619e-06
4.84324e-06
4.05375e-07
-1.13626e-06
7.684e-07
-3.75125e-08
-6.31498e-06
2.04516e-06
-1.17278e-06
5.4426e-06
5.17406e-07
4.58801e-07
-1.28716e-05
-1.21585e-06
2.3781e-06
1.07331e-05
-2.02738e-06
-9.65011e-06
1.19619e-06
-6.87355e-07
2.12364e-06
9.04502e-06
-1.1305e-05
4.13772e-06
-3.33552e-06
-2.72831e-06
1.18605e-05
1.3706e-06
-1.52592e-06
6.46597e-07
-1.22528e-05
-2.75556e-06
2.28146e-06
1.36062e-05
-1.25642e-05
7.31518e-06
0.00012529
-1.37995e-06
-1.77443e-06
-1.91854e-06
-1.18419e-06
4.19527e-06
2.19704e-06
4.36222e-06
3.27522e-06
-5.03679e-06
-2.01574e-06
5.81396e-05
-1.14573e-06
-2.00842e-07
-1.04576e-07
6.73489e-07
-1.30876e-06
-5.58325e-06
5.05596e-05
1.49027e-06
2.14579e-06
2.19579e-06
1.81942e-06
-5.53435e-07
-1.47974e-06
-3.43266e-07
-7.23895e-06
2.58123e-06
-1.75001e-06
-1.01518e-06
6.11414e-06
1.39292e-06
-6.58284e-07
1.82291e-06
-2.0904e-06
3.31362e-07
-7.98503e-07
-4.96081e-07
7.2223e-07
-1.08307e-06
8.56919e-07
1.40873e-06
-9.04152e-06
6.46283e-08
-2.14894e-06
-2.50476e-06
1.22219e-05
-1.95486e-06
1.81954e-06
0.000135283
2.17216e-06
3.11304e-06
3.27616e-06
3.72704e-06
7.5169e-06
1.11705e-06
9.62938e-05
7.35186e-07
5.03176e-08
8.06147e-05
2.28083e-06
1.24381e-06
2.6281e-06
9.48253e-08
3.31509e-07
-2.12659e-07
-1.94379e-05
4.81531e-07
-2.38839e-07
4.12708e-07
1.95177e-05
-8.03899e-07
-4.36263e-07
1.00396e-06
-1.25917e-06
1.25056e-06
2.44823e-07
-9.66601e-06
1.82417e-06
-2.1108e-06
-2.27981e-06
9.67522e-06
2.55723e-06
2.92631e-06
1.08541e-06
9.11417e-05
1.64584e-06
1.98132e-06
2.0554e-06
1.94729e-06
5.19118e-07
6.34103e-07
4.07773e-07
2.12374e-06
1.77247e-07
7.09168e-05
2.1333e-06
2.77038e-06
2.31037e-06
1.96231e-06
1.45432e-07
1.08502e-06
-1.09183e-05
2.11477e-06
-3.24451e-07
1.13021e-05
-9.61945e-06
-3.65335e-06
-2.91582e-06
3.01143e-06
1.31772e-05
-2.69604e-06
-7.15652e-07
-9.85038e-08
3.51019e-06
-5.57703e-06
1.26787e-06
-2.68665e-07
5.66323e-06
-6.97629e-06
4.13331e-07
3.56907e-07
-4.2428e-07
6.80758e-06
-5.33695e-06
8.66922e-07
-1.43606e-06
5.90609e-06
-3.89274e-07
-8.24312e-08
-2.52159e-07
7.23865e-07
-3.59058e-06
2.88263e-06
-1.17755e-06
1.8855e-06
-1.16962e-07
-2.44209e-06
-8.32396e-06
2.62167e-06
1.69151e-06
6.56983e-06
-1.24115e-06
-1.00635e-05
-7.1924e-07
-1.04558e-06
1.02394e-06
1.20455e-05
-1.17141e-05
4.44594e-06
-1.60553e-06
-3.64608e-06
1.12559e-05
1.26387e-06
-1.42547e-06
1.57624e-06
-1.49771e-05
-3.71e-06
2.15532e-06
1.6381e-05
-1.13935e-05
1.09445e-05
0.000119537
-2.6243e-06
-2.2529e-06
-2.58953e-06
-1.48423e-06
4.33111e-06
2.75558e-06
4.42351e-06
3.64299e-06
-6.37332e-06
-6.5112e-06
5.74395e-05
6.49601e-09
9.67789e-08
1.28694e-06
8.00934e-07
-1.98016e-06
-5.26993e-06
4.68004e-05
1.89215e-06
1.46163e-06
2.22187e-06
1.28263e-06
-3.87526e-07
-1.97684e-06
1.42091e-07
-6.96014e-06
5.11133e-07
-2.19486e-06
-8.15355e-07
7.47906e-06
1.39168e-06
1.15534e-06
1.81947e-06
-9.67949e-07
-1.11217e-06
-2.28637e-06
-1.28458e-06
5.18249e-07
-1.0011e-06
1.76743e-06
2.52884e-06
-1.5459e-05
-7.55394e-07
-3.5963e-06
-1.14767e-06
1.84295e-05
-1.40631e-06
7.61041e-06
0.000125688
2.93195e-06
3.34464e-06
4.00094e-06
4.05757e-06
9.09496e-06
-2.74365e-06
8.2025e-05
2.40462e-06
-6.80995e-07
7.58671e-05
3.09148e-06
3.07946e-06
2.87481e-06
-6.83741e-07
-6.88923e-07
-8.24097e-07
-1.98652e-05
1.19698e-06
1.47673e-06
-6.72965e-07
2.02691e-05
2.9401e-08
1.29769e-06
-9.53814e-08
1.26069e-07
-1.37577e-06
1.79833e-08
-9.79596e-06
1.52151e-06
-2.03144e-06
-1.49172e-06
1.0242e-05
1.55559e-06
5.5423e-06
1.17935e-06
8.04256e-05
1.78629e-06
1.81854e-06
2.09718e-06
1.75527e-06
1.24476e-06
1.33616e-06
1.56667e-06
2.94547e-06
5.32078e-08
6.02741e-05
2.95659e-06
3.47179e-06
3.14167e-06
2.68549e-07
2.60431e-07
3.43628e-07
-1.22158e-05
2.29142e-06
-5.71266e-07
1.27601e-05
-1.4603e-05
2.36622e-07
-2.20713e-06
1.86734e-06
1.47061e-05
-4.86187e-06
8.0997e-07
-3.75087e-06
3.10419e-06
4.69858e-06
-5.60663e-06
1.42381e-06
-7.90155e-07
6.15233e-06
-6.7821e-06
6.3477e-07
-3.84926e-07
-2.77484e-07
6.86295e-06
-5.96742e-06
1.16089e-06
-7.34031e-07
5.54056e-06
-1.05085e-06
5.65077e-07
-9.80026e-07
1.4658e-06
-1.03259e-06
1.89959e-06
-1.61479e-06
7.47783e-07
-1.01897e-06
-1.54624e-06
-5.82612e-06
1.00835e-06
1.03699e-06
6.346e-06
8.56043e-07
-1.45985e-05
8.81676e-07
-2.754e-06
-1.43316e-06
1.70479e-05
-1.09002e-05
3.34738e-06
-2.2308e-06
-2.8881e-06
1.08058e-05
1.86593e-06
-5.2235e-07
1.664e-06
-1.75596e-05
-3.79006e-06
1.7276e-06
1.84804e-05
-1.11875e-05
1.21155e-05
0.00010969
-2.4394e-06
-2.00429e-06
-1.88954e-06
-8.06861e-07
4.4208e-06
3.17818e-06
4.41293e-06
4.04722e-06
-7.74029e-06
-6.89325e-06
5.51728e-05
1.36752e-06
7.99918e-07
2.11603e-06
1.4293e-06
-2.59621e-06
-5.04609e-06
4.45455e-05
1.84117e-06
1.5643e-06
1.93373e-06
1.57758e-06
-2.13397e-07
-3.45901e-06
-1.0875e-06
-1.03199e-05
3.47565e-06
-2.84112e-06
-1.86079e-06
8.94996e-06
3.32764e-06
1.57628e-06
-5.93248e-07
-2.66477e-06
-1.64589e-06
-2.31067e-06
3.55784e-07
-9.79459e-07
2.93435e-06
3.56811e-06
-2.11099e-05
-1.49603e-06
-4.46277e-06
3.59396e-07
2.31412e-05
8.11222e-08
9.85066e-06
0.000113029
3.5035e-06
3.16582e-06
4.37546e-06
3.79863e-06
9.46422e-06
-4.50825e-06
7.02569e-05
2.94799e-06
-9.756e-07
7.62e-05
2.4029e-06
1.82063e-06
-3.30636e-07
-5.59309e-07
-3.12254e-07
-9.08488e-07
-2.04556e-05
1.40658e-06
2.59347e-06
-7.4212e-07
2.01457e-05
-1.58572e-06
4.1558e-06
-2.23471e-06
1.80833e-06
-3.85512e-06
1.71141e-06
-1.10283e-05
9.49985e-07
-1.63376e-06
-8.41199e-07
1.21077e-05
4.45618e-07
7.10572e-06
1.39932e-06
7.17445e-05
1.20969e-06
1.09672e-06
1.52354e-06
1.05037e-06
1.67622e-06
1.57829e-06
1.89186e-06
3.0132e-06
-1.18504e-07
5.04207e-05
2.92661e-06
3.37467e-06
2.79446e-06
1.67343e-07
-3.46022e-08
3.27713e-07
-1.41601e-05
2.37845e-06
-1.04768e-06
1.48669e-05
-1.25348e-05
-1.67043e-06
-1.4957e-06
1.57009e-05
-6.8156e-06
1.48597e-06
-7.73344e-07
7.50229e-06
-7.18282e-06
3.10631e-07
-8.25194e-08
-2.83701e-07
7.1199e-06
-4.80306e-06
1.53307e-06
-7.76888e-07
4.04688e-06
-1.97864e-06
7.59469e-07
-1.32016e-06
2.53933e-06
-9.02355e-07
1.3425e-06
-1.87371e-06
1.43357e-06
-6.64066e-07
-3.25576e-07
-8.04271e-06
-1.44409e-06
6.72935e-08
1.04091e-05
1.94832e-06
-1.8507e-05
2.90115e-06
-3.19953e-06
-2.20616e-06
1.90632e-05
-1.08915e-05
2.93737e-06
-3.23016e-06
-2.42884e-06
1.1004e-05
2.60913e-06
1.93285e-07
1.33807e-06
-1.91945e-05
-3.46739e-06
1.29064e-06
1.98399e-05
-1.00137e-05
7.85776e-06
9.89749e-05
-1.07743e-06
-7.35012e-07
-6.3952e-07
1.68977e-07
4.0741e-06
3.21061e-06
3.90091e-06
3.96816e-06
-8.6235e-06
-7.81535e-06
5.53649e-05
1.78953e-06
8.07433e-07
2.39803e-06
1.23803e-06
-3.78681e-06
-4.61356e-06
4.59578e-05
1.7729e-06
1.97732e-06
2.04144e-06
2.17376e-06
-3.17144e-06
-3.30052e-06
-3.12889e-06
-9.00109e-06
2.39076e-06
-4.69305e-06
7.51657e-06
-3.59496e-06
2.79569e-07
-9.41471e-07
4.25686e-06
3.81839e-06
-2.46524e-05
-1.68729e-06
-4.31148e-06
1.25904e-06
2.55737e-05
2.19467e-06
6.70084e-06
9.94663e-05
3.0338e-06
2.53497e-06
3.76272e-06
3.19319e-06
6.01591e-06
-4.80076e-06
6.3421e-05
-1.72014e-07
-1.71797e-07
7.87131e-05
-1.37939e-06
3.23974e-07
-5.18856e-07
-4.92994e-07
9.55851e-07
3.44501e-07
-2.77633e-05
1.99979e-06
-1.16088e-06
-5.58803e-07
2.73112e-05
-1.34704e-05
3.19119e-07
-9.90171e-07
-3.72252e-07
1.49768e-05
-4.63023e-07
2.46617e-06
1.13281e-06
6.77091e-05
7.55261e-07
6.19406e-07
1.05937e-06
5.38371e-07
1.43087e-06
1.16523e-06
1.56874e-06
1.29117e-06
-8.89612e-08
4.50993e-05
1.06926e-06
5.92032e-07
-5.69952e-07
3.09992e-07
3.86596e-08
3.44573e-07
-1.65727e-05
1.25686e-06
-4.51559e-07
1.68868e-05
-1.66648e-05
2.06792e-06
9.7598e-08
1.44993e-05
-8.34547e-06
1.47875e-06
-9.50549e-07
8.95008e-06
-7.20863e-06
3.17104e-07
-3.35098e-07
-1.46309e-07
7.28397e-06
-3.36561e-06
7.83551e-07
-1.48634e-07
2.73069e-06
-3.04178e-06
8.01655e-07
-1.18573e-06
3.42586e-06
-2.19349e-06
1.10607e-06
-1.96843e-06
3.05586e-06
-1.3553e-07
5.38755e-07
-1.28541e-05
-1.98972e-06
-5.12434e-07
1.4953e-05
1.45653e-06
-1.9322e-05
2.82655e-06
-2.64202e-06
-1.81958e-06
1.95005e-05
-1.11569e-05
1.61449e-06
-3.04236e-06
-1.65196e-06
1.15337e-05
2.70303e-06
6.73763e-07
6.32307e-07
-2.04277e-05
-2.58064e-06
7.80516e-07
2.09218e-05
-5.8349e-06
2.47855e-06
8.9907e-05
-3.22061e-09
2.65733e-07
-1.08861e-07
8.589e-07
3.12815e-06
2.5067e-06
3.05715e-06
2.71978e-06
-7.73022e-06
-8.14095e-06
5.72087e-05
2.0901e-06
1.41253e-06
2.4209e-06
2.26893e-06
-2.73221e-06
-4.09566e-06
4.66472e-05
1.36867e-06
1.62692e-06
1.41336e-06
9.64313e-07
-2.95618e-06
-1.55175e-06
-2.45704e-06
-6.29137e-06
1.75335e-06
-3.97872e-06
5.78453e-06
-4.91541e-06
2.84133e-07
-9.17205e-07
5.54848e-06
3.45299e-06
-2.6265e-05
-1.49678e-06
-3.73903e-06
1.46301e-06
2.65848e-05
-8.60237e-07
3.25066e-06
8.96691e-05
2.41648e-06
2.01347e-06
2.86061e-06
2.59476e-06
-5.31169e-06
-3.61343e-06
6.33449e-05
-7.84548e-07
5.97349e-07
7.07055e-05
-9.09617e-07
-1.40059e-06
-6.48876e-07
3.75942e-07
1.05799e-06
3.12586e-07
-2.605e-05
1.52909e-06
6.86853e-07
-1.14081e-09
2.30507e-05
-1.66656e-05
-2.65754e-07
-3.80968e-07
2.60464e-07
1.82165e-05
-1.16465e-06
-3.88053e-06
5.64436e-07
6.9345e-05
5.03477e-07
3.61005e-07
9.66124e-07
2.23695e-07
1.11861e-06
5.31536e-07
1.22642e-06
-2.08002e-06
2.86338e-07
4.67463e-05
-2.6923e-06
-2.838e-06
-3.33012e-06
5.44285e-07
4.20495e-07
5.48394e-07
-1.7842e-05
-1.08632e-06
1.09959e-06
1.63461e-05
-1.41972e-05
4.47584e-08
3.14377e-07
1.3838e-05
-9.81257e-06
1.04643e-06
-1.21083e-06
1.05414e-05
-7.5661e-06
6.17837e-07
-1.02103e-06
2.40531e-07
8.0151e-06
-2.51564e-06
-6.92251e-07
6.70476e-07
2.53742e-06
-3.63917e-06
7.92103e-07
-8.6112e-07
3.70819e-06
-3.90933e-06
9.80017e-07
-1.79571e-06
4.72502e-06
1.84509e-07
6.99522e-07
-1.64382e-05
-1.50172e-06
-2.84544e-07
1.73404e-05
4.85632e-07
-1.98217e-05
9.94859e-07
-6.75631e-07
-9.66306e-07
1.99832e-05
-1.21045e-05
-1.08908e-06
-3.69516e-07
-1.25757e-07
1.2763e-05
9.25793e-07
1.01523e-06
1.21558e-06
-2.1361e-05
-2.66314e-06
1.48158e-07
2.16452e-05
-3.41821e-06
8.23676e-08
8.22573e-05
-7.34982e-08
5.21083e-07
-2.10674e-08
1.01018e-06
2.83049e-06
1.55784e-06
3.01349e-06
2.14701e-06
-3.33668e-06
-6.81033e-06
5.66963e-05
1.70781e-06
1.74758e-06
2.1737e-06
1.61216e-06
-2.23489e-07
-1.35356e-06
4.6163e-05
3.57174e-07
8.76132e-08
3.3219e-07
-1.29893e-07
-1.34178e-06
1.52599e-07
-7.33337e-07
-6.03831e-06
-2.30258e-07
-5.96054e-07
6.64113e-06
-6.09372e-06
2.7525e-08
-5.05653e-07
6.57184e-06
2.80607e-06
-2.673e-05
-8.77323e-07
-3.10985e-06
1.33965e-06
2.65715e-05
-5.87208e-06
2.3739e-06
8.48051e-05
1.84531e-06
1.7879e-06
2.44056e-06
2.37077e-06
-1.42657e-05
-2.1309e-06
6.70591e-05
-2.43679e-06
4.37678e-07
6.24342e-05
-2.0511e-06
-1.97592e-06
-2.88094e-06
7.7704e-08
8.81908e-07
5.99508e-07
-1.88714e-05
1.64268e-06
1.08462e-06
-2.29326e-07
1.39366e-05
-1.97907e-05
-6.80079e-07
-1.93397e-07
1.1226e-06
2.1147e-05
-1.60543e-06
-6.59546e-06
1.79834e-07
7.46311e-05
4.46361e-07
-3.21181e-08
1.02837e-06
-1.51036e-07
9.58326e-07
1.87592e-07
1.06595e-06
-4.53232e-06
5.14708e-07
5.22263e-05
-3.90654e-06
-4.52597e-06
-3.67036e-06
6.24042e-07
6.43057e-07
6.46952e-07
-1.5278e-05
-3.29413e-06
1.24471e-06
1.32328e-05
-1.33174e-05
-9.49418e-08
1.11796e-06
1.22944e-05
-1.14515e-05
3.52537e-07
-9.4123e-07
1.222e-05
-8.56377e-06
7.46824e-07
-1.22029e-06
4.64456e-07
9.08748e-06
-2.71264e-06
-1.23056e-06
8.74403e-07
3.0688e-06
-3.76205e-06
6.2584e-07
-7.62604e-07
3.89882e-06
-5.49246e-06
4.87012e-07
-1.22681e-06
6.23226e-06
3.86516e-07
9.20617e-07
-1.7992e-05
-1.32429e-06
-4.237e-07
1.84329e-05
1.09681e-07
-2.0031e-05
-7.69832e-08
6.08541e-07
-5.45719e-07
1.99355e-05
-1.35368e-05
-1.57223e-06
1.19327e-06
6.06592e-07
1.39378e-05
-6.28615e-07
7.58302e-07
2.08584e-06
-2.19088e-05
-3.11584e-06
1.55291e-07
2.20252e-05
-2.25555e-06
1.44486e-06
7.27967e-05
-2.64437e-09
5.36405e-08
2.20718e-07
2.61856e-07
3.05627e-06
1.70552e-06
2.80978e-06
2.16613e-06
2.46826e-06
-3.43742e-06
5.30129e-05
1.19943e-06
5.3125e-09
1.2175e-06
-2.52889e-08
8.90534e-07
2.79273e-06
4.58826e-05
-5.55064e-07
-6.71449e-07
-5.43573e-07
-8.33087e-07
2.45897e-07
9.84892e-07
4.37791e-07
-6.81017e-06
-1.01144e-06
1.51191e-06
7.20024e-06
-7.01141e-06
-3.19948e-07
-9.99377e-08
7.43129e-06
2.31706e-06
-2.63764e-05
-7.2489e-07
-2.64312e-06
1.45142e-06
2.59759e-05
-7.43743e-06
3.37054e-06
8.21492e-05
1.78807e-06
1.67894e-06
2.41049e-06
2.29018e-06
-1.42151e-05
-9.00565e-07
7.13e-05
-1.91577e-06
6.74654e-07
5.70428e-05
-3.31088e-06
-1.86331e-06
-2.65407e-06
1.00138e-06
1.14721e-06
8.89802e-07
-1.10632e-05
-3.27256e-07
-3.6505e-07
2.17432e-07
9.62228e-06
-2.24335e-05
-8.74185e-07
-7.88995e-08
1.84779e-06
2.34727e-05
-1.93393e-06
-4.97464e-06
1.00902e-07
8.08467e-05
2.12729e-07
-5.18834e-07
6.89154e-07
-5.71176e-07
9.87614e-07
1.40171e-07
1.089e-06
-4.81137e-06
5.32253e-07
5.77677e-05
-2.86645e-06
-3.87401e-06
-2.24077e-06
5.69893e-07
6.53005e-07
6.20917e-07
-1.31248e-05
-5.03851e-06
1.13706e-06
1.28896e-05
-1.01869e-05
-1.05752e-06
3.62925e-06
7.61518e-06
-1.30007e-05
7.64871e-08
-7.08963e-07
1.37341e-05
-9.73595e-06
5.25066e-07
-9.30145e-07
4.00128e-07
1.02732e-05
-3.40231e-06
-7.87829e-07
5.89419e-07
3.60072e-06
-4.13357e-06
1.03672e-08
-2.3213e-07
4.35533e-06
-6.8969e-06
-1.73928e-07
-3.00408e-07
7.37124e-06
8.16632e-07
1.15422e-06
-1.86917e-05
-1.39912e-06
-5.43809e-07
1.86638e-05
4.04768e-09
-1.94467e-05
7.13697e-07
3.58406e-07
3.79806e-07
1.79907e-05
-1.40662e-05
-1.03632e-06
1.90056e-06
9.19545e-07
1.40479e-05
-1.7655e-06
2.76363e-07
1.71559e-06
-2.20582e-05
-1.99385e-06
1.08873e-07
2.19512e-05
6.57917e-07
4.73555e-06
6.42523e-05
-3.29414e-07
-1.07255e-06
-3.10746e-07
-5.24098e-07
1.62231e-06
1.3104e-06
8.42714e-07
1.61233e-06
5.5588e-06
1.03457e-06
5.01602e-05
-4.08106e-07
-1.10065e-06
-6.73174e-07
-9.00762e-07
1.19401e-06
7.20902e-06
4.56915e-05
-1.32007e-06
-1.24775e-06
-1.3018e-06
-1.36043e-06
6.77398e-07
1.17978e-06
7.19709e-07
-7.47798e-06
-1.37299e-06
2.17956e-06
7.86542e-06
-7.82533e-06
-4.91247e-07
9.21248e-08
8.22446e-06
2.21239e-06
-2.54855e-05
-7.63634e-07
-2.4014e-06
1.71451e-06
2.47236e-05
-5.26313e-06
4.44596e-06
8.05458e-05
1.58026e-06
1.5089e-06
2.04814e-06
2.01881e-06
-8.82422e-06
8.03231e-07
7.50924e-05
-1.44541e-06
1.28278e-06
5.57722e-05
-1.77263e-06
-1.40309e-06
-1.45372e-06
1.26491e-06
1.91132e-06
1.27122e-06
-8.77279e-06
-1.61122e-06
-1.07323e-06
1.61094e-06
8.40089e-06
-2.44976e-05
-9.93754e-07
3.12463e-07
2.01401e-06
2.53653e-05
-2.20037e-06
-9.22099e-07
1.98117e-07
8.55922e-05
-2.61707e-07
-9.12122e-07
1.47991e-07
-9.70098e-07
1.01408e-06
3.38237e-07
1.06801e-06
-3.00539e-06
5.3397e-07
6.26034e-05
-1.35479e-06
-1.95761e-06
-1.01055e-06
5.61562e-07
6.35763e-07
6.42467e-07
-1.32229e-05
-3.03529e-06
1.27687e-06
1.32587e-05
-5.77684e-06
-1.29417e-06
2.10517e-06
4.96584e-06
-1.45105e-05
-2.89284e-07
-4.30053e-07
1.54279e-05
-1.10017e-05
1.56213e-07
-5.56896e-07
2.9447e-07
1.16418e-05
-3.70755e-06
-4.7412e-07
3.4705e-07
3.83462e-06
-4.42512e-06
-5.83601e-07
7.35165e-07
4.27355e-06
-7.68074e-06
-7.73252e-07
3.70614e-07
8.08338e-06
1.013e-06
1.29291e-06
-1.83943e-05
-8.5639e-07
-6.30458e-07
1.75752e-05
-3.88957e-08
-1.61468e-05
1.69453e-07
5.85873e-07
9.34834e-07
1.44955e-05
-1.40522e-05
-9.99975e-07
1.86765e-06
1.30858e-06
1.3925e-05
-2.04911e-06
-2.56096e-07
-5.94209e-07
-2.20712e-05
2.09818e-08
4.96192e-07
2.24043e-05
3.20985e-06
6.7304e-06
5.74665e-05
-7.30257e-07
-1.61524e-06
-7.37338e-07
-1.99048e-06
-3.16575e-08
6.65594e-07
2.25662e-07
1.0592e-06
5.78569e-06
3.65883e-06
5.03585e-05
-1.6776e-06
-1.65992e-06
-1.65776e-06
-1.43773e-06
1.08466e-06
8.76304e-06
4.62245e-05
-1.87453e-06
-1.56685e-06
-1.71072e-06
-1.59936e-06
5.89206e-07
1.04616e-06
5.21121e-07
-8.26454e-06
-1.52173e-06
2.22285e-06
8.64808e-06
-8.63953e-06
-5.77833e-07
1.75357e-07
9.042e-06
1.99227e-06
-2.40089e-05
-1.10779e-06
-2.07843e-06
1.73433e-06
2.34685e-05
-2.86332e-06
3.93967e-06
8.04236e-05
1.18192e-06
1.21866e-06
1.61123e-06
1.76443e-06
-4.43589e-06
2.27595e-06
7.80478e-05
-1.09305e-06
1.62037e-06
5.73616e-05
-9.24862e-07
-1.04545e-06
-6.7301e-07
1.36069e-06
2.13917e-06
1.35387e-06
-8.16919e-06
-1.84701e-06
-9.85235e-07
1.66063e-06
8.24775e-06
-2.62508e-05
-1.16299e-06
7.72551e-07
1.80047e-06
2.69862e-05
-2.14542e-06
1.66469e-06
3.45905e-07
8.90453e-05
-7.899e-07
-1.26234e-06
-2.96181e-07
-1.27685e-06
8.41453e-07
4.15761e-07
8.44113e-07
-1.60578e-06
6.20424e-07
6.68932e-05
-4.75664e-07
-7.9423e-07
-2.43912e-07
6.89204e-07
7.14917e-07
7.45905e-07
-1.38955e-05
-1.47926e-06
1.43025e-06
1.39591e-05
-4.68145e-06
-7.07434e-07
5.64707e-07
4.82418e-06
-1.64276e-05
-1.06178e-06
4.58633e-07
1.73767e-05
-1.24455e-05
-2.80793e-07
-2.01729e-07
2.69449e-07
1.3279e-05
-4.02654e-06
-3.59582e-07
1.14761e-07
4.27136e-06
-4.01e-06
-1.21493e-06
1.37286e-06
3.85207e-06
-8.7005e-06
-1.66816e-06
1.09426e-06
9.27441e-06
7.88e-07
6.62254e-07
-1.58542e-05
1.14496e-06
1.13604e-07
1.31453e-05
-1.05082e-06
-1.31294e-05
-2.04853e-06
2.46989e-06
1.93442e-06
1.18245e-05
-1.39734e-05
-1.35097e-06
2.14077e-06
1.61169e-06
1.4153e-05
-2.58112e-06
-1.09454e-06
-6.25772e-07
-2.28171e-05
-5.4433e-07
1.85751e-06
2.32243e-05
2.87265e-06
6.15984e-06
5.4456e-05
-1.69344e-06
-2.88025e-06
-2.35651e-06
-1.96994e-06
4.71619e-07
6.12303e-07
7.58323e-07
1.03589e-06
3.79538e-06
3.8653e-06
5.2185e-05
-2.08892e-06
-1.77452e-06
-1.48042e-06
-1.27066e-06
7.84355e-07
8.20419e-06
4.7101e-05
-2.00385e-06
-1.67319e-06
-1.62658e-06
-1.69529e-06
1.43476e-07
7.08948e-07
7.68058e-08
-9.14375e-06
-1.67755e-06
2.09355e-06
9.5121e-06
-9.40887e-06
-7.37528e-07
3.88866e-07
9.75753e-06
1.53167e-06
-2.33197e-05
-1.81814e-06
-1.69017e-06
1.84324e-06
2.34532e-05
-2.00438e-06
1.75544e-06
8.17526e-05
9.76532e-07
1.03809e-06
1.54039e-06
1.52481e-06
-2.82796e-06
2.68728e-06
8.00494e-05
-8.75873e-07
1.48163e-06
5.93607e-05
-3.51232e-07
-7.93202e-07
-1.42537e-07
1.07794e-06
1.95715e-06
1.02326e-06
-8.52129e-06
-1.62206e-06
-6.03033e-07
8.50111e-07
9.0204e-06
-2.77206e-05
-1.36689e-06
1.13205e-06
1.78086e-06
2.82123e-05
-2.03774e-06
3.26676e-06
1.49114e-07
9.0999e-05
-1.15752e-06
-1.426e-06
-6.73634e-07
-1.34492e-06
4.30308e-07
1.04082e-07
4.53548e-07
-8.03084e-07
6.5339e-07
7.05138e-05
7.0163e-08
-7.12191e-08
2.70634e-07
7.32372e-07
7.27625e-07