/*--------------------------------*- C++ -*----------------------------------*\
| =========                 |                                                 |
| \\      /  F ield         | OpenFOAM: The Open Source CFD Toolbox           |
|  \\    /   O peration     | Version:  5.x                                   |
|   \\  /    A nd           | Web:      www.OpenFOAM.org                      |
|    \\/     M anipulation  |                                                 |
\*---------------------------------------------------------------------------*/
FoamFile
{
    version     2.0;
    format      ascii;
    class       volVectorField;
    location    "9";
    object      U;
}
// * * * * * * * * * * * * * * * * * * * * * * * * * * * * * * * * * * * * * //

dimensions      [0 1 -1 0 0 0 0];

internalField   nonuniform List<vector> 
10571
(
(0.291038 0.211401 1.56574)
(0.0245557 -0.00153064 0.66123)
(0.188276 -0.112306 1.37026)
(0.352122 -0.0842898 1.67008)
(0.356188 0.147659 1.50787)
(-0.185952 0.17961 1.63311)
(0.14559 0.0519999 1.53097)
(0.180945 -0.146634 1.60153)
(0.455626 -0.255989 1.3529)
(0.475898 0.0938945 1.48988)
(-0.00708891 0.325021 3.72966)
(-0.00762312 0.151863 1.68815)
(0.204227 0.214733 1.87325)
(-0.0340201 -0.0395835 1.30579)
(0.440643 -0.169075 1.16228)
(0.909198 -0.247876 1.5798)
(0.235241 0.377544 1.22337)
(0.484698 0.89131 1.71384)
(-0.18972 0.418665 1.43943)
(0.532765 0.0786162 1.11867)
(0.411883 -0.23422 1.17638)
(0.577579 0.955491 2.4557)
(-0.36733 0.637074 1.36998)
(0.0222393 -0.0827059 0.744345)
(0.353254 0.168019 1.46033)
(0.0964178 -0.0606305 0.755327)
(0.305415 0.0651198 1.26266)
(0.412306 0.22003 1.31108)
(-0.16768 0.101081 1.33341)
(0.271946 -0.00233858 1.18547)
(0.381344 0.132163 1.18887)
(-0.035825 -0.0372565 1.4441)
(-0.440457 -0.0900227 0.944008)
(-0.685844 -0.191828 0.90239)
(0.498546 0.21924 2.23774)
(0.430755 0.0570082 1.35329)
(0.231166 -0.15851 0.848613)
(0.0110331 -0.0701449 0.579609)
(-0.143162 -0.0791485 0.428357)
(-1.18817 0.487779 1.89116)
(0.211174 0.077908 1.00551)
(0.0572548 -0.390903 0.797939)
(0.0676511 -0.326903 0.667199)
(-0.0426996 -0.228258 0.740036)
(0.439513 -0.836961 1.50122)
(-0.010988 -1.14914 2.0213)
(0.489238 -1.55233 1.36753)
(0.168853 -0.107194 0.611205)
(0.261903 0.0963302 0.593756)
(0.0729999 0.0353477 0.541251)
(0.249995 0.284955 0.737625)
(-0.268261 0.751547 1.53153)
(-0.270072 0.678692 0.989565)
(0.317204 -0.0577791 0.94878)
(0.342848 0.263263 2.21578)
(-0.148933 0.329894 1.57076)
(-0.243732 0.216097 1.29204)
(-0.0406905 0.0311455 0.495746)
(0.102377 0.0300212 0.879238)
(0.641646 -0.0386575 1.33056)
(0.304787 -0.15585 2.0729)
(0.0192542 0.0453378 1.50838)
(-0.960358 0.0177862 1.73571)
(-0.44826 -0.0704178 0.860847)
(0.413503 0.355578 0.859962)
(0.00859715 -0.662165 1.89286)
(0.0958993 -0.516509 1.45596)
(-0.0476969 -0.0111967 0.6315)
(-0.242872 0.22225 0.726164)
(-0.372865 -0.196249 0.931727)
(0.443293 -0.595952 1.06676)
(0.10284 -0.0216809 0.446911)
(-0.0117633 -0.0139114 -0.180383)
(-0.0571774 -0.0734382 0.599266)
(-0.203735 0.187269 0.263277)
(-0.559869 0.334034 1.5168)
(0.246452 -0.10968 0.462191)
(0.122275 0.0102871 0.770357)
(0.0260764 0.219199 1.21157)
(0.0293207 0.367215 0.742942)
(0.0815355 0.230482 0.613069)
(0.150648 0.194133 0.378747)
(0.023683 0.0210135 0.271155)
(0.115877 -0.00306393 0.48531)
(0.0423336 0.111069 1.13069)
(0.197975 0.247604 1.0328)
(-0.296723 -0.00966855 0.956214)
(0.190692 0.248882 1.06157)
(0.0814434 0.105321 0.419241)
(0.0900044 -0.322292 1.62499)
(-0.107207 -0.199206 1.07705)
(0.137978 0.0561981 0.237846)
(0.180729 -0.322389 0.682578)
(0.0437971 -0.0389119 0.419933)
(-0.20725 0.198712 1.03818)
(-0.0654161 -0.00692781 0.2464)
(0.163139 0.00538111 0.141924)
(0.109721 -0.138704 0.484526)
(-0.287579 -0.154624 0.568406)
(-0.100939 0.214076 0.94475)
(0.0254719 0.050723 0.376457)
(0.122588 0.231317 0.391641)
(-0.102786 0.135528 1.31731)
(0.0333513 0.166641 0.868496)
(0.0896999 0.0597269 0.6393)
(-0.0446673 0.0394593 0.277147)
(-0.0350399 -0.036125 0.0719164)
(0.0661029 -0.211524 0.135073)
(-0.0323382 0.0942367 1.35821)
(0.167182 0.208651 1.16462)
(0.0626855 -0.0343169 0.903463)
(0.00636921 0.130402 0.784379)
(-0.0416577 -0.108594 0.316605)
(0.0162776 -0.185447 1.15085)
(0.00128756 0.00725719 0.81963)
(0.0622267 -0.0279053 0.300544)
(0.120306 -0.141847 0.463365)
(-0.0439816 -0.0247695 0.129146)
(0.0419486 -0.105303 0.229417)
(0.135126 -0.104828 0.407769)
(0.137178 0.0164975 0.0207577)
(0.105362 -0.128367 0.490099)
(-0.283302 0.0893193 0.685627)
(-0.11649 0.23512 0.507309)
(-0.115732 -0.0646485 0.363149)
(0.0561604 0.202052 0.451277)
(-0.238468 0.161136 1.35497)
(-0.0858588 0.104612 0.659028)
(0.0131217 -0.088703 0.620064)
(0.0317156 -0.0517797 0.270041)
(-0.00500035 0.00721942 0.00460342)
(-0.0229484 -0.106971 0.02457)
(0.0195925 -0.233902 0.213255)
(-0.141011 0.061462 1.45519)
(0.1147 0.12193 1.18821)
(0.127752 -0.078233 0.988791)
(0.0324649 0.0619515 0.874866)
(0.00625 0.00205494 0.00145104)
(-0.106029 -0.223572 0.381832)
(0.0302467 -0.106384 1.16776)
(0.0428279 0.0343095 0.897168)
(0.122361 0.0542737 0.399802)
(0.1271 -0.0753249 0.760467)
(0.0110525 0.213559 0.257911)
(0.0450041 0.100127 0.263436)
(0.153126 -0.0212717 0.422398)
(0.163862 0.00840858 -0.0393581)
(0.160723 -0.1351 0.452081)
(-0.102651 0.222392 0.523416)
(-0.0681209 0.211602 0.402015)
(-0.16219 -0.237463 0.472235)
(-0.075575 0.194826 0.578425)
(-0.266898 0.190737 1.28806)
(-0.14794 -0.0205671 0.604244)
(-0.0251229 -0.102575 0.586205)
(-0.116316 -0.0759477 0.291359)
(-0.105757 0.0187686 -0.0405171)
(-0.0273977 -0.101322 0.094737)
(-0.136467 -0.14617 0.469074)
(-0.165022 0.0633871 1.42268)
(0.100596 -0.0462879 1.10427)
(0.135782 -0.0971664 0.947372)
(0.0398319 0.0164057 0.905182)
(-0.0999087 0.0404953 -0.00332734)
(-0.117649 -0.182306 0.376739)
(-0.0101825 0.00606441 1.04321)
(0.124451 0.0804074 0.835064)
(0.168285 0.0715085 0.485951)
(0.181473 -0.00727467 0.820319)
(-0.047184 0.0829406 0.264409)
(-0.0536444 0.115714 0.277548)
(-0.0508454 -0.0201775 0.268162)
(0.121885 0.0155387 0.519571)
(0.0209451 -0.00789128 0.0783517)
(0.179869 -0.127868 0.174425)
(0.222353 0.0422601 0.311932)
(-0.0533186 0.153126 0.473841)
(-0.0750106 -0.298234 0.447262)
(-0.172059 0.175914 0.692084)
(-0.255549 0.254333 1.23394)
(-0.123967 -0.051219 0.592756)
(-0.0805555 -0.0685204 0.527221)
(-0.167977 -0.0659547 0.391016)
(-0.106771 -0.0683794 -0.0852326)
(-0.0222125 -0.0540578 0.219535)
(-0.246144 -0.0318788 0.752651)
(-0.201154 0.123583 1.34071)
(0.154469 -0.16814 0.91043)
(0.157928 -0.11529 0.845237)
(0.166376 -0.0715096 0.933995)
(0.0070364 -0.089402 -0.0204644)
(-0.104133 -0.115918 0.390449)
(-0.0271471 0.148136 0.907267)
(0.229885 0.0780222 0.687689)
(0.210145 0.00412513 0.546375)
(0.135572 -0.0326823 0.860332)
(0.446346 0.0339214 0.360112)
(-0.0896289 0.0522898 0.295374)
(-0.0772302 -0.0298853 0.266773)
(0.100385 -0.0434594 0.541309)
(-0.039069 -0.0198083 0.178795)
(0.0907641 -0.123993 0.0562961)
(0.0887867 0.0171147 0.24986)
(-0.20593 -0.0322971 0.710711)
(-0.0825036 -0.2225 0.419941)
(-0.180242 0.111409 0.797338)
(-0.271975 0.259439 1.14925)
(-0.100016 -0.0556493 0.567595)
(-0.135427 -0.0868339 0.500488)
(-0.228017 -0.194071 0.414708)
(-0.0792793 -0.12956 -0.113908)
(-0.0179319 -0.0176693 0.3758)
(-0.326977 0.0794322 0.986436)
(-0.19692 0.172151 1.21336)
(0.202003 -0.172521 0.761858)
(0.147594 -0.0902351 0.820909)
(0.207485 -0.111917 0.967285)
(0.177225 -0.266085 0.115395)
(-0.0727039 -0.057494 0.450072)
(0.0460688 0.16753 0.792093)
(0.207569 0.0185995 0.574492)
(0.235197 -0.043727 0.635741)
(0.0248124 -0.072306 1.03856)
(-0.099333 0.0622612 0.359521)
(-0.0461179 -0.0165589 0.281107)
(0.0963057 -0.0676341 0.39806)
(-0.0764443 -0.0208318 0.323147)
(0.066524 -0.122024 0.0814095)
(-0.0420976 -0.0103012 0.410021)
(-0.270819 -0.123829 0.830129)
(-0.176592 -0.180099 0.427163)
(-0.157454 0.0596337 0.860419)
(-0.24513 0.186511 1.04392)
(-0.0872104 -0.0979965 0.552923)
(-0.169408 -0.107759 0.478333)
(-0.246713 -0.270682 0.375128)
(-0.0136784 0.00547213 0.561365)
(-0.319809 0.125064 1.10879)
(-0.0783656 0.101049 1.06536)
(0.15286 -0.164445 0.666249)
(0.086964 -0.0566179 0.852304)
(0.0280184 -0.0620562 1.03243)
(-0.0190916 -0.00380766 0.551279)
(0.0711697 0.119203 0.71236)
(0.0168247 -0.00288223 0.488038)
(0.158547 0.0488389 0.732646)
(0.0386257 -0.0167496 1.2657)
(-0.112339 0.0581034 0.433504)
(-0.043893 -0.00850069 0.284359)
(0.0105986 -0.00426905 0.27215)
(-0.0974686 -0.0226903 0.465255)
(0.0714073 -0.111455 0.191058)
(-0.10963 -0.0382283 0.615333)
(-0.222106 -0.0930362 0.855105)
(-0.198095 -0.113021 0.435724)
(-0.0885377 0.0130746 0.912656)
(-0.11793 0.0773543 0.944653)
(-0.0766011 -0.12999 0.566963)
(-0.165733 -0.0748783 0.483738)
(-0.181927 -0.207822 0.28453)
(-0.0160885 0.0163232 0.748138)
(-0.273215 0.116682 1.16359)
(-0.00286536 0.0177736 0.92616)
(-0.0290394 -0.154367 0.634545)
(-0.13409 -0.0718555 0.813115)
(0.0205214 -0.00484537 0.996483)
(0.0248983 0.0543408 0.680002)
(0.0291494 0.082923 0.704461)
(-0.178645 0.0187395 0.475346)
(-0.107636 0.120031 0.749708)
(9.99927e-05 -0.000242976 1.26839)
(-0.110227 0.0199399 0.510175)
(-0.0638376 0.0108857 0.30704)
(-0.0821697 0.0313348 0.229205)
(-0.106669 -0.018493 0.527756)
(0.078597 -0.0782036 0.313971)
(-0.100418 -0.0520158 0.741957)
(-0.00567322 -0.0205527 0.874285)
(-0.018404 0.0478865 0.488439)
(-0.123099 -0.0151115 0.947021)
(-0.0726814 -0.0037398 0.855225)
(-0.0448883 -0.121122 0.584527)
(-0.0650539 0.0266694 0.497649)
(0.0098478 0.011099 0.322854)
(-0.00671172 0.0604879 0.907345)
(-0.236826 0.0878948 1.17765)
(-0.036288 0.00848481 0.868203)
(-0.176617 -0.117535 0.65547)
(-0.31583 -0.0747534 0.691969)
(-0.0753574 -0.158369 0.613158)
(0.0396271 0.104959 0.801187)
(0.00591471 0.0644938 0.7511)
(-0.248453 0.0287906 0.518161)
(-0.342292 0.0932745 0.609246)
(-0.0467614 -0.0333063 1.18562)
(-0.0697152 -0.00997928 0.595946)
(-0.0702699 0.0256894 0.348725)
(-0.0917019 0.0414037 0.26338)
(-0.0914058 -0.0122598 0.543037)
(0.0570822 -0.0284224 0.426533)
(-0.112501 -0.0490969 0.800959)
(0.0903516 0.0213523 0.879441)
(0.111894 0.096775 0.542359)
(-0.17074 0.0126158 0.965597)
(-0.106774 0.0179422 0.772927)
(0.0294878 -0.0533607 0.554962)
(0.0503221 0.107032 0.485661)
(0.0678847 0.0951004 0.354635)
(0.00163225 0.116871 1.03386)
(-0.198307 0.0910043 1.15517)
(-0.0761414 0.0369685 0.839335)
(-0.188744 -0.0675855 0.695389)
(-0.302487 -0.00791634 0.619811)
(-0.0269589 -0.0305607 0.397561)
(0.0496725 0.139623 0.898265)
(0.0312718 0.0695687 0.824359)
(-0.211231 0.0231107 0.573351)
(-0.386708 0.0902308 0.55837)
(-0.138723 0.162121 0.782928)
(-0.0557634 -0.0209772 0.672335)
(-0.0482542 0.0352293 0.395663)
(-0.0456104 0.0184368 0.319694)
(0.0109044 -0.0107315 0.612308)
(0.0153209 0.0115571 0.523617)
(-0.114704 -0.0621877 0.820107)
(-0.0206547 0.0306086 0.835136)
(0.179597 0.068953 0.552513)
(-0.145415 0.00303858 0.968454)
(-0.0678262 0.104271 0.682942)
(0.0887876 0.0300449 0.507301)
(0.0920583 0.145287 0.478594)
(0.0765431 0.12815 0.387389)
(0.00225835 0.14782 1.14751)
(-0.194054 0.0996058 1.10917)
(-0.0790935 0.0651771 0.813852)
(-0.107924 0.00378496 0.743111)
(-0.190451 0.114488 0.580887)
(-0.0296021 0.120521 0.337349)
(0.0699752 0.152252 0.97585)
(0.06446 0.0773698 0.882715)
(-0.0971216 0.015929 0.640699)
(-0.242418 0.102194 0.573585)
(-0.0740003 0.134597 0.472822)
(-0.0379527 -0.0162458 0.752797)
(-0.00665124 0.0466331 0.447635)
(-0.0177215 -0.000807507 0.34322)
(0.0889126 0.0156198 0.633211)
(-0.0348083 0.00503988 0.573819)
(-0.118161 -0.0822368 0.798947)
(-0.023455 -0.0148738 0.671779)
(0.172839 0.0600219 0.546128)
(0.012914 -0.013495 0.983352)
(0.0136025 0.169941 0.593391)
(0.0978006 0.0674848 0.495878)
(0.0889497 0.157542 0.480491)
(0.0652697 0.135701 0.426151)
(0.0057432 0.148436 1.26552)
(-0.170698 0.0964686 1.04333)
(-0.0726096 0.0686512 0.802919)
(-0.0257005 0.0555455 0.777013)
(-0.119965 0.159314 0.596157)
(-0.0294153 0.15591 0.3229)
(0.0898038 0.146156 1.04235)
(0.091238 0.0596042 0.923492)
(-0.0268424 0.0220346 0.683703)
(-0.123904 0.120205 0.604762)
(0.00496032 0.0523735 0.427971)
(0.0393998 0.00397575 0.854109)
(0.0334553 0.0557158 0.506748)
(0.00592791 -0.00845348 0.376804)
(0.163347 0.0271541 0.555795)
(-0.102632 0.0475494 0.659969)
(0.00538114 -0.0602818 0.638861)
(0.168726 0.0854808 0.545571)
(0.174532 0.0926992 0.548317)
(0.00537618 0.0845664 1.00939)
(0.0275939 0.165976 0.546717)
(0.0742162 0.0636051 0.512277)
(0.0468849 0.148864 0.492067)
(0.0531416 0.145332 0.471034)
(0.00938813 0.158655 1.37092)
(-0.134111 0.117565 1.02782)
(-0.0735174 0.0534853 0.807577)
(0.00791083 0.0692211 0.803327)
(-0.098611 0.149167 0.61871)
(-0.0204925 0.139805 0.345649)
(0.107259 0.137834 1.09665)
(0.106184 0.00736718 0.955057)
(0.015734 0.0255984 0.726458)
(-0.0591079 0.1124 0.642292)
(0.0455526 -0.00653252 0.47443)
(0.111782 0.00661825 0.929189)
(0.0616645 0.059822 0.581098)
(0.0259077 -0.0111424 0.431875)
(0.208038 0.0256726 0.541504)
(-0.145384 0.152426 0.675786)
(-0.00102879 0.0206736 0.38477)
(0.163032 0.0448898 0.455869)
(0.167576 0.0988624 0.559474)
(-0.0753996 0.172843 1.05014)
(-0.0297899 0.0543713 0.532663)
(-0.0226123 0.00810995 0.5291)
(-0.0479582 0.107892 0.494753)
(0.0326345 0.148669 0.506363)
(0.00804136 0.173207 1.47372)
(-0.106681 0.136268 1.06868)
(-0.0905934 -0.0034472 0.837142)
(0.0205033 0.0655744 0.813074)
(-0.0990996 0.114848 0.631698)
(-0.00303948 0.0776381 0.402532)
(0.143124 0.10793 1.11844)
(0.0851708 -0.0561522 0.96614)
(0.0424557 0.024173 0.757945)
(-0.0129345 0.0920518 0.673251)
(0.0684038 -0.0570408 0.51851)
(0.149931 -0.00719361 0.920802)
(0.0738395 0.0598441 0.665656)
(0.0464983 -0.0154266 0.497348)
(0.187616 0.0157913 0.540706)
(-0.143028 0.169885 0.630809)
(-0.0870676 -7.77877e-05 0.247871)
(0.0136802 -0.0747882 0.434026)
(0.139515 0.0808151 0.571837)
(-0.105619 0.171773 1.09827)
(-0.0899889 -0.0988239 0.507135)
(-0.068583 -0.0375974 0.493058)
(-0.114898 0.0633834 0.471807)
(-0.00760159 0.134224 0.49258)
(0.00204798 0.160515 1.56149)
(-0.0652479 0.104907 1.15337)
(-0.130051 -0.049566 0.842858)
(0.0439315 0.0678164 0.806729)
(-0.0819632 0.0900747 0.636446)
(0.0154467 0.00376677 0.467828)
(0.0843865 0.0131386 1.11794)
(0.0233715 -0.0837017 0.9442)
(0.0544166 0.0250579 0.768426)
(0.0161393 0.0690313 0.69569)
(0.0831017 -0.0975608 0.550744)
(0.115067 -0.0090403 0.880336)
(0.0751726 0.054491 0.742268)
(0.0647249 -0.0198132 0.567129)
(0.164754 0.00834969 0.559006)
(-0.0591935 0.117752 0.63335)
(-0.0930219 0.0214024 0.191166)
(-0.0854453 -0.0683552 0.431942)
(0.0880252 0.0875556 0.570625)
(-0.124598 0.0715178 1.14133)
(-0.0881071 -0.144152 0.460753)
(-0.0517762 -0.0532985 0.457491)
(-0.140949 0.0243519 0.452901)
(-0.059911 0.101617 0.42293)
(-0.0173404 0.1019 1.632)
(0.0256888 0.0371801 1.27136)
(-0.158376 -0.0831422 0.80393)
(0.0965722 0.0538473 0.762494)
(-0.0213083 0.0634667 0.646899)
(0.0347344 -0.0605901 0.534887)
(-0.10531 -0.161383 1.1571)
(-0.0510931 -0.0500586 0.882562)
(0.0532413 0.0260784 0.764639)
(0.0302028 0.0501212 0.70926)
(0.0922763 -0.125301 0.574649)
(-0.042806 0.0221175 0.828264)
(0.0693304 0.0386164 0.770332)
(0.0769017 -0.0254931 0.630545)
(0.0733695 -0.00428234 0.611003)
(0.0616547 -0.0223651 0.557623)
(-0.0750616 0.0538744 0.18541)
(-0.119925 -0.0296242 0.414641)
(0.00579207 0.0238772 0.543394)
(-0.14025 -0.0552969 1.23011)
(-0.0495569 -0.104969 0.419264)
(-0.0148681 -0.0393338 0.448335)
(-0.131766 -0.0150195 0.457059)
(-0.06381 0.00534363 0.396095)
(-0.0169647 0.000389095 1.69454)
(0.0585819 -0.0130678 1.40905)
(-0.122792 -0.0985046 0.727464)
(0.14258 0.0105807 0.683732)
(0.0462671 0.0211726 0.66475)
(0.0579733 -0.103067 0.590881)
(-0.153281 -0.198302 1.19378)
(-0.0797181 0.00574385 0.802543)
(0.0319891 0.0177063 0.744151)
(0.0390964 0.025139 0.716143)
(0.0943248 -0.135947 0.595073)
(-0.0933843 0.0339197 0.774822)
(0.0659705 0.0103582 0.759878)
(0.0869378 -0.0327165 0.677914)
(-0.0852165 0.00687509 0.552246)
(0.116634 -0.0957626 0.493097)
(-0.021578 0.0679674 0.234942)
(-0.113867 -0.0307599 0.425012)
(-0.0406402 -0.0305261 0.509152)
(-0.142227 -0.138658 1.31698)
(0.0171533 0.0134507 0.381616)
(-0.00135113 -0.0168535 0.466095)
(-0.111746 -0.0557953 0.480659)
(-0.0416347 -0.0849654 0.402534)
(-0.0216995 -0.0916611 1.74283)
(0.0560973 -0.0723855 1.49965)
(-0.0080262 -0.0552159 0.592659)
(0.144697 -0.00457999 0.638457)
(0.0791594 -0.0237929 0.68746)
(0.0680558 -0.133057 0.626608)
(-0.145137 -0.141362 1.2548)
(-0.0437281 0.032878 0.721164)
(0.00999866 -0.00976544 0.703512)
(0.0521838 -0.018405 0.711665)
(0.0926004 -0.137799 0.613506)
(-0.0741594 0.0746473 0.762653)
(0.0628299 -0.0259033 0.717912)
(0.0980436 -0.0410352 0.702636)
(-0.072044 -0.00454418 0.39707)
(0.0926579 -0.0520289 0.428448)
(0.0333243 0.0221617 0.323526)
(-0.0900773 -0.0605834 0.477694)
(-0.0495052 -0.0269835 0.489884)
(-0.0422951 -0.115172 1.39123)
(0.0602931 0.109619 0.34873)
(-0.0046196 0.00917942 0.499621)
(-0.0917493 -0.081939 0.509323)
(-0.0271689 -0.122441 0.419017)
(-0.0191379 -0.117718 1.75147)
(0.0943877 -0.0938405 1.50153)
(0.0637509 0.0250195 0.494023)
(0.129813 0.00104251 0.62987)
(0.0834144 -0.0646979 0.709602)
(0.0612356 -0.150506 0.650075)
(-0.122682 -0.0634778 1.29134)
(0.0304792 0.0255789 0.647494)
(0.0236913 -0.0354302 0.678532)
(0.0695557 -0.0563348 0.69602)
(0.0879651 -0.133002 0.626971)
(0.00879511 0.121974 0.776564)
(0.0668639 -0.022824 0.675422)
(0.111228 -0.0498817 0.707948)
(-0.0537976 -0.020697 0.383827)
(0.0285451 -0.0187168 0.369424)
(0.0418373 -0.0373069 0.414689)
(-0.0886877 -0.0850782 0.505338)
(-0.0960139 -0.00193175 0.469384)
(0.0720094 -0.146096 1.47231)
(0.088678 0.150605 0.327259)
(-0.00222559 0.0377254 0.532944)
(-0.0593585 -0.0773961 0.536122)
(-0.0120545 -0.136065 0.443541)
(-0.0182312 -0.137772 1.73994)
(0.105158 -0.0936412 1.43646)
(0.0886214 0.0874332 0.432801)
(0.0963682 -0.00592327 0.649388)
(0.0631442 -0.0922202 0.72426)
(0.0467323 -0.148013 0.665703)
(-0.0449865 -0.00331749 1.29158)
(0.0964914 0.0127767 0.590917)
(0.0456277 -0.0587461 0.669412)
(0.0828367 -0.078711 0.681517)
(0.0826195 -0.125266 0.638065)
(0.114787 0.14255 0.800614)
(0.101796 -0.0178756 0.647881)
(0.128687 -0.0615572 0.697992)
(-0.0629349 -0.0366588 0.442043)
(-0.0298478 -0.00367616 0.37127)
(0.0329229 -0.0374881 0.49949)
(-0.0952428 -0.114701 0.505976)
(-0.113877 -0.00967598 0.444184)
(0.173887 -0.0848612 1.49348)
(0.106378 0.148704 0.327787)
(0.000133768 0.0513006 0.554079)
(-0.0165062 -0.0457516 0.546567)
(0.00756092 -0.136592 0.477535)
(0.00655055 -0.155169 1.55223)
(0.085372 -0.084588 1.39112)
(0.0826238 0.129487 0.404836)
(0.0740174 -0.0311771 0.693583)
(0.0237393 -0.0935684 0.741009)
(0.0325055 -0.127055 0.675485)
(-0.0129612 0.0440963 1.28089)
(0.123308 0.0164726 0.544715)
(0.0488717 -0.0737915 0.664896)
(0.08266 -0.0879662 0.672904)
(0.0772865 -0.117732 0.647516)
(0.20563 0.144996 0.841423)
(0.158375 -0.0200975 0.639104)
(0.144286 -0.0730918 0.68958)
(-0.0827437 -0.040829 0.524351)
(-0.0502515 0.0520477 0.382354)
(0.0477361 0.0425552 0.566673)
(-0.0976349 -0.121147 0.476836)
(-0.10079 -0.0426724 0.453232)
(0.185776 0.0741837 1.52222)
(0.114373 0.113925 0.331934)
(-0.00235436 0.0491308 0.55886)
(0.0151818 -0.0151668 0.534544)
(0.00917406 -0.129295 0.510803)
(-0.0241197 -0.0244091 1.29318)
(0.0534323 -0.027209 1.34932)
(0.0558269 0.137442 0.404748)
(0.0719696 -0.0288857 0.757212)
(-0.00562462 -0.0675456 0.770155)
(0.0307952 -0.0933102 0.677378)
(-0.0450401 0.0514606 1.31766)
(0.113035 0.0371916 0.529959)
(0.0448639 -0.0752984 0.66133)
(0.0753333 -0.0868568 0.670971)
(0.0647834 -0.0956592 0.658517)
(0.248343 0.111916 0.868535)
(0.206072 -0.0153062 0.646277)
(0.155848 -0.0813551 0.695889)
(-0.0802263 -0.0311673 0.594479)
(-0.0216753 0.042696 0.401655)
(0.0551269 0.104115 0.552923)
(-0.0366388 -0.0497347 0.441941)
(-0.080375 -0.0583955 0.493492)
(0.0615563 0.0310842 1.63609)
(0.1043 0.0645101 0.348012)
(-0.00906246 0.0209665 0.551053)
(0.0264462 0.00263116 0.51482)
(-0.0135138 -0.124547 0.525575)
(-0.0360918 -0.0160736 1.27924)
(-0.107299 -0.0206458 1.31195)
(0.00612784 0.111553 0.430348)
(0.0424875 0.0122484 0.809177)
(0.00251411 -0.0229307 0.78907)
(0.0483523 -0.0641928 0.676012)
(-0.138887 0.0190296 1.30749)
(0.0715895 0.0687186 0.559302)
(0.0231178 -0.0581444 0.666756)
(0.0419422 -0.0482955 0.687381)
(0.0473505 -0.055681 0.683022)
(0.238142 0.0844922 0.840895)
(0.228194 -0.00797055 0.670883)
(0.158372 -0.0858795 0.706819)
(-0.0120882 -0.00869547 0.581569)
(0.025288 5.46726e-05 0.447601)
(0.0747419 0.0993804 0.495328)
(0.0258683 -0.0162747 0.44255)
(-0.042106 -0.0285759 0.543978)
(-0.0782889 0.0390948 1.66267)
(0.0966768 0.0197183 0.376638)
(0.00315886 -0.0276192 0.540266)
(0.0275304 0.0104126 0.506073)
(-0.0361338 -0.111029 0.525044)
(-0.0546574 0.0155342 1.43106)
(-0.184555 -0.00505308 1.23203)
(-0.0350764 0.0513604 0.476252)
(-0.0197118 0.0451831 0.797394)
(0.0271503 0.0154719 0.760011)
(0.0613577 -0.0466819 0.679094)
(-0.145044 0.0394121 1.23538)
(0.0134912 0.0711681 0.642739)
(-0.0543578 -0.0201965 0.687115)
(0.0205168 0.0263683 0.716058)
(0.0298071 -0.0117648 0.715294)
(0.242557 0.091008 0.804822)
(0.188921 -0.0083318 0.710891)
(0.134916 -0.0737128 0.728532)
(0.0390353 -0.00161113 0.539387)
(0.0665296 -0.0467697 0.501431)
(0.0957194 0.0531663 0.469784)
(0.0527168 -0.0314745 0.476098)
(0.00909878 0.00618737 0.605589)
(-0.0250457 0.0454873 1.57209)
(0.0914624 -0.0115915 0.420101)
(0.0284339 -0.0600237 0.542423)
(0.0281453 0.011001 0.508968)
(-0.0339008 -0.0885071 0.531794)
(-0.0370497 0.111493 1.52417)
(-0.0543105 0.0505745 1.14785)
(-0.0413895 -0.0210276 0.523034)
(-0.0448674 0.0338738 0.763069)
(0.0348067 0.010761 0.704848)
(0.0523567 -0.0345081 0.683082)
(0.0178422 0.112341 1.17371)
(-0.0204503 0.0078442 0.710796)
(-0.0889471 -0.0218199 0.692006)
(0.0096101 0.0739512 0.717438)
(0.0150326 0.0101741 0.759873)
(0.23557 0.110916 0.811482)
(0.129032 -0.014864 0.766118)
(0.0844298 -0.0444576 0.767749)
(0.0451952 0.00219373 0.541486)
(0.0970637 -0.0810056 0.538247)
(0.105946 0.0118465 0.472302)
(0.0618429 -0.0586667 0.510975)
(0.0306908 0.0156772 0.675786)
(0.0617441 -0.171413 1.21057)
(0.0911957 -0.0233129 0.465312)
(0.0547365 -0.0867432 0.557124)
(0.0338409 -0.0040794 0.529793)
(-0.0248613 -0.0729926 0.554873)
(0.0150839 0.172238 1.49169)
(0.0705458 0.176926 1.0482)
(-0.0358443 -0.0712196 0.560179)
(-0.0217699 -0.0287878 0.726017)
(0.0390308 -0.0544995 0.671268)
(0.0320232 -0.0419935 0.681731)
(0.113802 0.162475 1.13088)
(-0.0336933 -0.0818386 0.74528)
(-0.0869905 -0.0581798 0.69337)
(-0.0482745 0.0466823 0.691461)
(0.0162501 -0.0121065 0.788041)
(0.231034 0.12163 0.853475)
(0.108967 -0.0174796 0.833568)
(0.0755724 -0.048013 0.788266)
(0.0320902 -0.000856103 0.580027)
(0.103559 -0.0760917 0.531125)
(0.101356 -0.0133731 0.487057)
(0.0641968 -0.0749424 0.548403)
(0.0396 -0.00202535 0.73971)
(0.0386169 -0.134323 0.878158)
(0.101689 -0.0212051 0.498059)
(0.0772042 -0.0987176 0.583153)
(0.0471523 -0.0487305 0.594168)
(-0.018509 -0.0757841 0.5952)
(0.0213891 0.19052 1.51581)
(0.0192006 0.145894 0.885208)
(-0.0321019 -0.0810762 0.572673)
(0.0175361 -0.0899804 0.692479)
(0.0669988 -0.160549 0.678011)
(0.0330068 -0.0815329 0.683134)
(0.114604 0.132147 1.11574)
(-0.0355654 -0.123836 0.756234)
(-0.0240354 -0.141286 0.672502)
(-0.00722963 -0.139187 0.672049)
(0.0244599 -0.0398445 0.75254)
(0.179442 0.0841799 0.892504)
(0.00820868 -0.0985885 0.820324)
(0.0945367 -0.069022 0.74208)
(0.0094741 -0.00520899 0.645627)
(0.0717089 -0.043835 0.489113)
(0.0838647 -0.0352495 0.504287)
(0.0643752 -0.0766853 0.589532)
(0.0302538 -0.0201472 0.796096)
(0.113898 0.0226761 0.716923)
(0.126862 -0.0262949 0.512935)
(0.0905438 -0.0971934 0.613907)
(0.0541762 -0.0766439 0.680686)
(-0.016725 -0.0962473 0.658397)
(0.00859577 0.217356 1.67569)
(-0.0351773 0.0148185 0.793993)
(-0.0132547 -0.0611104 0.567202)
(0.0338937 -0.0799671 0.675037)
(0.0884053 -0.197081 0.722752)
(0.0552996 -0.151374 0.722036)
(0.105647 0.109563 1.07292)
(-0.0252407 -0.120129 0.75276)
(0.0602266 -0.129285 0.629631)
(0.0674726 -0.224765 0.634137)
(0.106555 -0.186596 0.738478)
(0.154809 0.0564727 0.95707)
(0.0131631 -0.0649148 0.64561)
(0.159615 -0.101456 0.530965)
(-0.00942173 -0.00739527 0.71964)
(0.0341772 -0.0234096 0.471683)
(0.0670047 -0.0534989 0.523723)
(0.06862 -0.0687448 0.633768)
(-0.00574678 -0.0343845 0.843107)
(0.193723 0.0135187 0.569819)
(0.15256 -0.0491017 0.519205)
(0.090116 -0.0989133 0.640938)
(0.0476101 -0.0797053 0.764392)
(-0.0181137 -0.122822 0.741016)
(0.0109316 0.1791 1.72021)
(0.01774 -0.0297632 0.811542)
(0.0715738 -0.0172468 0.547944)
(0.0781495 -0.0396444 0.641851)
(0.104193 -0.177763 0.767856)
(0.0669779 -0.200207 0.797794)
(0.161946 0.13948 1.00866)
(0.0377932 -0.0902295 0.727063)
(0.123561 -0.0754364 0.588126)
(0.117763 -0.154082 0.5894)
(0.154731 -0.259099 0.755387)
(0.134922 0.0773097 1.01677)
(0.148806 -0.02443 0.501611)
(0.191353 -0.0966658 0.429083)
(-0.029934 -0.00987907 0.802937)
(0.00863793 -0.00873301 0.476409)
(0.0539171 -0.0518198 0.551927)
(0.0769893 -0.0671223 0.685972)
(-0.0372228 -0.0511931 0.882465)
(0.193888 -0.0487181 0.495896)
(0.161472 -0.0810725 0.52711)
(0.0807889 -0.100368 0.663636)
(0.0318399 -0.0778352 0.836845)
(-0.0228352 -0.1448 0.833465)
(0.00278194 0.205103 1.64109)
(0.112052 0.0445791 0.858901)
(0.170297 -0.00203688 0.534867)
(0.145716 -0.0217475 0.619164)
(0.125261 -0.156797 0.800442)
(0.0651636 -0.22474 0.878345)
(0.198321 0.170864 0.948466)
(0.138707 -0.0459173 0.690658)
(0.171383 -0.0445659 0.567898)
(0.162704 -0.0904477 0.58544)
(0.157585 -0.257299 0.750406)
(0.0109257 -0.00282802 1.03817)
(0.219615 -0.0272592 0.438383)
(0.21771 -0.0982579 0.411959)
(-0.0478992 -0.00651211 0.877081)
(-0.00948429 0.00705337 0.488434)
(0.0421399 -0.0147386 0.587223)
(0.0738144 -0.0497893 0.7607)
(-0.0543714 -0.0739424 0.922511)
(0.147774 -0.0565942 0.503462)
(0.151768 -0.102488 0.537759)
(0.0724462 -0.0878003 0.688104)
(0.0210133 -0.0709081 0.897289)
(-0.0309489 -0.15885 0.917463)
(0.0303608 0.102427 1.23658)
(0.286839 0.0207358 0.799526)
(0.228298 -0.0123633 0.525037)
(0.201222 -0.0236479 0.61575)
(0.1324 -0.13894 0.836473)
(0.0751456 -0.22661 0.94911)
(0.167321 0.122816 0.954875)
(0.225434 -0.00606244 0.640341)
(0.214696 -0.0326713 0.566395)
(0.205204 -0.0652435 0.609963)
(0.161917 -0.246845 0.761252)
(0.0568576 -0.00942496 0.850895)
(0.249225 -0.0324422 0.427974)
(0.240165 -0.105159 0.448281)
(-0.069638 -0.00299174 0.924844)
(-0.0211438 0.020575 0.488499)
(0.0399618 0.0256005 0.617155)
(0.0398469 -0.00420652 0.848195)
(-0.0678579 -0.081047 0.959303)
(0.0890658 -0.0288811 0.509479)
(0.128702 -0.101883 0.552117)
(0.0638334 -0.0502979 0.722852)
(0.015172 -0.0419256 0.947142)
(-0.0396046 -0.167759 0.992468)
(0.035153 -0.0409864 0.750094)
(0.224232 -0.0244287 0.624527)
(0.234769 -0.0290435 0.509467)
(0.225553 -0.0194941 0.630821)
(0.116619 -0.103689 0.886491)
(0.0833426 -0.235608 1.02455)
(0.148593 0.0932497 1.00071)
(0.28794 0.00513921 0.57133)
(0.251635 -0.0292232 0.573081)
(0.242157 -0.057276 0.652327)
(0.155439 -0.221813 0.79238)
(0.213732 0.0793905 0.624526)
(0.28381 -0.035555 0.441239)
(0.256011 -0.106566 0.526179)
(-0.0878336 -0.00308116 0.945672)
(-0.0302515 0.0315859 0.47282)
(0.0367196 0.0433129 0.641043)
(-0.0146615 0.0321499 0.911506)
(-0.0881461 -0.0769387 0.974348)
(0.0445447 -0.00477317 0.495563)
(0.0838575 -0.0788943 0.580768)
(0.0480877 0.00726092 0.761679)
(-0.0022671 0.00371761 0.975904)
(-0.0369293 -0.150729 1.05734)
(0.0126672 0.0236777 0.534379)
(0.125535 -0.0080678 0.510201)
(0.204082 -0.0345169 0.48311)
(0.218269 0.00100276 0.659722)
(0.0846645 -0.0440362 0.959092)
(0.0593497 -0.200004 1.08179)
(0.16248 0.0617054 0.925942)
(0.299195 -0.0142964 0.507205)
(0.260862 -0.0288408 0.582411)
(0.258079 -0.040549 0.718776)
(0.164974 -0.213185 0.866792)
(0.317326 0.0985357 0.522412)
(0.305455 -0.030761 0.47254)
(0.273268 -0.104184 0.642205)
(-0.0962185 -0.00716909 0.958823)
(-0.042466 0.0448752 0.451498)
(0.0274715 0.0444198 0.661926)
(-0.0510069 0.0508457 0.94505)
(-0.100461 -0.0766922 0.963218)
(0.0119561 0.0157334 0.479193)
(0.026856 -0.0503861 0.614418)
(0.0164432 0.0501143 0.791233)
(-0.0422459 0.0296205 0.978146)
(-0.0497411 -0.144099 1.0903)
(0.00912423 0.0753964 0.450878)
(0.0820685 0.014244 0.442687)
(0.145285 -0.0278326 0.45475)
(0.149857 0.0452217 0.720755)
(0.0400685 0.00582482 1.03621)
(0.0450295 -0.180775 1.13879)
(0.151417 0.0516617 0.669883)
(0.246035 -0.0341963 0.464063)
(0.227975 -0.0185091 0.605086)
(0.205239 -0.00418382 0.809328)
(0.166871 -0.222291 0.993301)
(0.291716 0.0537831 0.459462)
(0.277107 -0.0264891 0.50052)
(0.25765 -0.105879 0.768482)
(-0.104853 -0.0133391 0.957357)
(-0.0639475 0.0637264 0.437828)
(-0.0248804 0.0360066 0.694214)
(-0.0929335 0.0446722 0.944509)
(-0.0891373 -0.06096 0.935504)
(-0.0136924 0.0363115 0.468724)
(-0.0277222 -0.0331462 0.645865)
(-0.0233853 0.0444863 0.810864)
(-0.104635 0.00143728 0.966663)
(-0.0616256 -0.119216 1.08292)
(0.0106088 0.110586 0.408736)
(0.0501035 0.0266113 0.396726)
(0.0786476 -0.0272019 0.45479)
(0.00544087 0.0689665 0.784585)
(-0.0435236 0.0179223 1.06368)
(0.00951102 -0.116347 1.15487)
(0.130022 0.0912138 0.518864)
(0.167334 -0.0436695 0.441592)
(0.0774327 0.0269572 0.673903)
(0.0973671 0.0572339 0.924843)
(0.112282 -0.138804 1.0808)
(0.20923 0.0277358 0.391491)
(0.188399 -0.0358605 0.520847)
(0.186787 -0.0858568 0.858466)
(-0.129419 -0.0142703 0.950205)
(-0.0908289 0.0857044 0.446379)
(-0.0967687 0.0335477 0.744123)
(-0.148687 0.0398451 0.909257)
(-0.117693 -0.0833434 0.899791)
(-0.0374839 0.0583622 0.470333)
(-0.065622 -0.0302939 0.679264)
(-0.0617907 -0.0197178 0.838038)
(-0.169415 -0.0580101 0.950697)
(-0.105439 -0.161092 1.02745)
(0.0110175 0.13156 0.393042)
(0.0197359 0.0368127 0.378839)
(0.0142019 -0.0350472 0.484749)
(-0.119914 0.0340424 0.821223)
(-0.189253 0.00377112 1.01851)
(-0.0395902 -0.0763325 1.11879)
(0.112981 0.104806 0.457046)
(0.0847621 -0.0522503 0.453928)
(-0.0848581 0.0698063 0.7352)
(-0.0142806 0.0497415 0.970894)