/*--------------------------------*- C++ -*----------------------------------*\
| =========                 |                                                 |
| \\      /  F ield         | OpenFOAM: The Open Source CFD Toolbox           |
|  \\    /   O peration     | Version:  5.x                                   |
|   \\  /    A nd           | Web:      www.OpenFOAM.org                      |
|    \\/     M anipulation  |                                                 |
\*---------------------------------------------------------------------------*/
FoamFile
{
    version     2.0;
    format      ascii;
    class       volVectorField;
    location    "9";
    object      Us;
}
// * * * * * * * * * * * * * * * * * * * * * * * * * * * * * * * * * * * * * //

dimensions      [0 1 -1 0 0 0 0];

internalField   nonuniform List<vector> 
10571
(
(0.0499623 -0.00351893 0.112853)
(0.0145771 0.00293889 -0.0218109)
(0.0930215 -0.0397644 0.0666324)
(0.0305301 -0.0959087 0.143447)
(-0.014941 -0.0479408 0.0729938)
(0.0185397 0.0991754 0.0411454)
(0.0220584 -0.0247368 0.0996035)
(-0.0421932 -0.162782 0.0568538)
(0.0208612 -0.146818 -0.00347828)
(0.0333532 -0.0524343 0.0640369)
(0.0392928 0.0479959 0.0493243)
(0.0142948 -0.0746316 0.0956775)
(-0.0337455 -0.162784 0.0576818)
(-0.0398459 -0.114483 -0.0389902)
(0.0656816 -0.0746625 -0.079363)
(0.102483 -0.0568278 0.0812397)
(-0.0375566 -0.0852464 0.0210664)
(-0.0223827 -0.069728 -0.0191975)
(0.0186409 -0.0211328 -0.0691012)
(0.148077 -0.014347 -0.0128485)
(0.0729799 -0.0463166 0.0815963)
(-0.0014621 0.000443158 -0.0449168)
(0.00833692 0.0190291 -0.0443086)
(0.0807964 -0.0472089 -0.0298815)
(0.0887997 0.0032398 0.204902)
(0.0157642 -0.00422509 -0.0415218)
(0.0802801 -0.00861863 0.0687794)
(0.0545169 -0.0381354 0.248063)
(-0.0179683 -0.00209782 0.0676484)
(0.0253874 0.00492593 0.123408)
(0.0288803 -0.0255493 0.0800487)
(0.00184462 -0.0108555 -0.108846)
(-0.0211569 0.0193117 -0.187883)
(-0.0508599 -0.0248394 -0.180457)
(0.0472602 0.0042612 0.11385)
(0.0323107 -0.0768607 0.215503)
(-0.00126777 -0.0192917 -0.045683)
(0.0244618 0.0224594 -0.144425)
(0.0330766 0.0314729 -0.154706)
(-0.000445049 0.0156064 -0.130387)
(-0.0117315 -0.0660874 0.0209192)
(-0.00656315 -0.0790875 -0.0364005)
(0.0314917 -0.0215684 -0.0871377)
(0.0548047 0.0153977 -0.103988)
(0.0542792 -0.0800374 -0.090434)
(-0.0445042 -0.109325 0.0367115)
(0.051309 -0.102888 0.0134692)
(0.0308924 -0.0160851 -0.0327089)
(0.0906629 -0.0154503 -0.0555076)
(0.0162245 -0.00768094 -0.0682366)
(0.0436569 0.0800585 -0.00697732)
(0.030754 0.133092 -0.109002)
(0.0560796 0.0664349 -0.291361)
(0.0201323 -0.0401907 0.138125)
(0.0271998 0.0847961 -0.00746231)
(0.0239371 0.110468 -0.220848)
(0.0686226 0.106173 -0.23883)
(0.0303749 0.082818 -0.19145)
(0.00617731 -0.00575913 0.0500007)
(0.0167842 -0.0178634 0.131756)
(0.0287838 0.0247088 -0.0835302)
(0.0507643 0.0495796 -0.145581)
(0.0272438 0.0796644 -0.121998)
(-0.0474049 0.056415 0.0191842)
(0.0659989 0.0831115 0.00414812)
(0.00763684 -0.0682028 -0.0492341)
(0.0656571 -0.0396296 -0.0610015)
(0.0593212 0.0347981 -0.0784157)
(-0.0207476 0.0362166 0.0305927)
(-0.058757 -0.0485852 0.000752204)
(0.0774272 -0.0814223 0.0566958)
(0.033957 -0.013759 0.0138663)
(-0.0117038 -0.017155 -0.266571)
(-0.0613136 -0.0315659 -0.181569)
(-0.111257 -0.020043 -0.258442)
(-0.0266899 0.109689 -0.122191)
(0.101193 -0.000823804 -0.236711)
(0.022519 -0.0836253 0.0348209)
(-0.0771077 0.153234 -0.16788)
(0.0285886 0.123922 -0.216803)
(0.119062 0.0882563 -0.245398)
(0 0 0)
(-6.03694e-05 0.00589051 -3.31669e-05)
(0.0302786 0.00365398 0.02149)
(0.0699212 0.0482211 -0.318855)
(0 0 0)
(-0.0462796 0.0459927 0.0966367)
(-0.0293293 0.0749031 0.0523164)
(0.0686104 0.14893 -0.0748452)
(0.0933647 0.103809 -0.324673)
(0 0 0)
(0 0 0)
(-0.0222592 0.0599693 0.0755227)
(-0.0656882 -0.0378644 -0.206672)
(0.0384674 -0.0470117 -0.0508146)
(0 0 0)
(0 0 0)
(0 0 0)
(-0.0830014 -0.041499 -0.1738)
(7.87706e-15 -2.15587e-14 -1.01259e-13)
(0 0 0)
(0.0653354 -0.0877624 -0.295391)
(-0.101841 0.0990685 -0.111358)
(0 0 0)
(0 0 0)
(0 0 0)
(0 0 0)
(0 0 0)
(0 0 0)
(0 0 0)
(0 0 0)
(0 0 0)
(0 0 0)
(0 0 0)
(0 0 0)
(0 0 0)
(0 0 0)
(-0.0136182 -0.0263031 -0.266256)
(0 0 0)
(0 0 0)
(0 0 0)
(0 0 0)
(0 0 0)
(0 0 0)
(0 0 0)
(0 0 0)
(0 0 0)
(0 0 0)
(0 0 0)
(0 0 0)
(-1.45423e-06 1.37993e-06 -1.50919e-06)
(0 0 0)
(0 0 0)
(0 0 0)
(0 0 0)
(0 0 0)
(0 0 0)
(-0.000161301 -5.64171e-05 -3.72463e-05)
(0 0 0)
(0 0 0)
(0 0 0)
(0 0 0)
(0 0 0)
(0 0 0)
(0 0 0)
(0 0 0)
(0 0 0)
(0 0 0)
(0 0 0)
(0 0 0)
(0 0 0)
(0 0 0)
(0 0 0)
(0 0 0)
(0 0 0)
(0 0 0)
(0 0 0)
(0 0 0)
(0 0 0)
(0 0 0)
(0 0 0)
(0 0 0)
(0 0 0)
(0 0 0)
(0 0 0)
(0 0 0)
(0 0 0)
(0 0 0)
(0 0 0)
(0 0 0)
(0 0 0)
(0 0 0)
(0 0 0)
(0 0 0)
(0 0 0)
(0 0 0)
(0 0 0)
(0 0 0)
(0 0 0)
(0 0 0)
(0 0 0)
(0 0 0)
(0 0 0)
(0 0 0)
(0 0 0)
(0 0 0)
(0 0 0)
(0 0 0)
(0 0 0)
(0 0 0)
(0 0 0)
(0 0 0)
(0 0 0)
(0 0 0)
(0 0 0)
(0 0 0)
(0 0 0)
(0 0 0)
(0 0 0)
(0 0 0)
(0 0 0)
(0 0 0)
(0 0 0)
(0 0 0)
(0 0 0)
(0 0 0)
(0 0 0)
(0 0 0)
(0 0 0)
(0 0 0)
(0 0 0)
(0 0 0)
(0 0 0)
(0 0 0)
(0 0 0)
(0 0 0)
(0 0 0)
(0 0 0)
(0 0 0)
(0 0 0)
(0 0 0)
(0 0 0)
(0 0 0)
(0 0 0)
(0 0 0)
(0 0 0)
(0 0 0)
(0 0 0)
(0 0 0)
(0 0 0)
(0 0 0)
(0 0 0)
(0 0 0)
(0 0 0)
(0 0 0)
(0 0 0)
(0 0 0)
(0 0 0)
(0 0 0)
(0 0 0)
(0 0 0)
(0 0 0)
(0 0 0)
(0 0 0)
(0 0 0)
(0 0 0)
(0 0 0)
(0 0 0)
(0 0 0)
(0 0 0)
(0 0 0)
(0 0 0)
(0 0 0)
(0 0 0)
(0 0 0)
(0 0 0)
(0 0 0)
(0 0 0)
(0 0 0)
(0 0 0)
(0 0 0)
(0 0 0)
(0 0 0)
(0 0 0)
(0 0 0)
(0 0 0)
(0 0 0)
(0 0 0)
(0 0 0)
(0 0 0)
(0 0 0)
(0 0 0)
(0 0 0)
(0 0 0)
(0 0 0)
(0 0 0)
(0 0 0)
(0 0 0)
(0 0 0)
(0 0 0)
(0 0 0)
(0 0 0)
(0 0 0)
(0 0 0)
(0 0 0)
(0 0 0)
(0 0 0)
(0 0 0)
(0 0 0)
(0 0 0)
(0 0 0)
(0 0 0)
(0 0 0)
(0 0 0)
(0 0 0)
(0 0 0)
(0 0 0)
(0 0 0)
(0 0 0)
(0 0 0)
(0 0 0)
(0 0 0)
(0 0 0)
(0 0 0)
(0 0 0)
(0 0 0)
(0 0 0)
(0 0 0)
(0 0 0)
(0 0 0)
(0 0 0)
(0 0 0)
(0 0 0)
(0 0 0)
(0 0 0)
(0 0 0)
(0 0 0)
(0 0 0)
(0 0 0)
(0 0 0)
(0 0 0)
(0 0 0)
(0 0 0)
(0 0 0)
(0 0 0)
(0 0 0)
(0 0 0)
(0 0 0)
(0 0 0)
(0 0 0)
(0 0 0)
(0 0 0)
(0 0 0)
(0 0 0)
(0 0 0)
(0 0 0)
(0 0 0)
(0 0 0)
(0 0 0)
(0 0 0)
(0 0 0)
(0 0 0)
(0 0 0)
(0 0 0)
(0 0 0)
(0 0 0)
(0 0 0)
(0 0 0)
(0 0 0)
(0 0 0)
(0 0 0)
(0 0 0)
(0 0 0)
(0 0 0)
(0 0 0)
(0 0 0)
(0 0 0)
(0 0 0)
(0 0 0)
(0 0 0)
(0 0 0)
(0 0 0)
(0 0 0)
(0 0 0)
(0 0 0)
(0 0 0)
(0 0 0)
(0 0 0)
(0 0 0)
(0 0 0)
(0 0 0)
(0 0 0)
(0 0 0)
(0 0 0)
(0 0 0)
(0 0 0)
(0 0 0)
(0 0 0)
(0 0 0)
(0 0 0)
(0 0 0)
(0 0 0)
(0 0 0)
(0 0 0)
(0 0 0)
(0 0 0)
(0 0 0)
(0 0 0)
(0 0 0)
(0 0 0)
(0 0 0)
(0 0 0)
(0 0 0)
(0 0 0)
(0 0 0)
(0 0 0)
(0 0 0)
(0 0 0)
(0 0 0)
(0 0 0)
(0 0 0)
(0 0 0)
(0 0 0)
(0 0 0)
(0 0 0)
(0 0 0)
(0 0 0)
(0 0 0)
(0 0 0)
(0 0 0)
(0 0 0)
(0 0 0)
(0 0 0)
(0 0 0)
(0 0 0)
(0 0 0)
(0 0 0)
(0 0 0)
(0 0 0)
(0 0 0)
(0 0 0)
(0 0 0)
(0 0 0)
(0 0 0)
(0 0 0)
(0 0 0)
(0 0 0)
(0 0 0)
(0 0 0)
(0 0 0)
(0 0 0)
(0 0 0)
(0 0 0)
(0 0 0)
(0 0 0)
(0 0 0)
(0 0 0)
(0 0 0)
(0 0 0)
(0 0 0)
(0 0 0)
(0 0 0)
(0 0 0)
(0 0 0)
(0 0 0)
(0 0 0)
(0 0 0)
(0 0 0)
(0 0 0)
(0 0 0)
(0 0 0)
(0 0 0)
(0 0 0)
(0 0 0)
(0 0 0)
(0 0 0)
(0 0 0)
(0 0 0)
(0 0 0)
(0 0 0)
(0 0 0)
(0 0 0)
(0 0 0)
(0 0 0)
(0 0 0)
(0 0 0)
(0 0 0)
(0 0 0)
(0 0 0)
(0 0 0)
(0 0 0)
(0 0 0)
(0 0 0)
(0 0 0)
(0 0 0)
(0 0 0)
(0 0 0)
(0 0 0)
(0 0 0)
(0 0 0)
(0 0 0)
(0 0 0)
(0 0 0)
(0 0 0)
(0 0 0)
(0 0 0)
(0 0 0)
(0 0 0)
(0 0 0)
(0 0 0)
(0 0 0)
(0 0 0)
(0 0 0)
(0 0 0)
(0 0 0)
(0 0 0)
(0 0 0)
(0 0 0)
(0 0 0)
(0 0 0)
(0 0 0)
(0 0 0)
(0 0 0)
(0 0 0)
(0 0 0)
(0 0 0)
(0 0 0)
(0 0 0)
(0 0 0)
(0 0 0)
(0 0 0)
(0 0 0)
(0 0 0)
(0 0 0)
(0 0 0)
(0 0 0)
(0 0 0)
(0 0 0)
(0 0 0)
(0 0 0)
(0 0 0)
(0 0 0)
(0 0 0)
(0 0 0)
(0 0 0)
(0 0 0)
(0 0 0)
(0 0 0)
(0 0 0)
(0 0 0)
(0 0 0)
(0 0 0)
(0 0 0)
(0 0 0)
(0 0 0)
(0 0 0)
(0 0 0)
(0 0 0)
(0 0 0)
(0 0 0)
(0 0 0)
(0 0 0)
(0 0 0)
(0 0 0)
(0 0 0)
(0 0 0)
(0 0 0)
(0 0 0)
(0 0 0)
(0 0 0)
(0 0 0)
(0 0 0)
(0 0 0)
(0 0 0)
(0 0 0)
(0 0 0)
(0 0 0)
(0 0 0)
(0 0 0)
(0 0 0)
(0 0 0)
(0 0 0)
(0 0 0)
(0 0 0)
(0 0 0)
(0 0 0)
(0 0 0)
(0 0 0)
(0 0 0)
(0 0 0)
(0 0 0)
(0 0 0)
(0 0 0)
(0 0 0)
(0 0 0)
(0 0 0)
(0 0 0)
(0 0 0)
(0 0 0)
(0 0 0)
(0 0 0)
(0 0 0)
(0 0 0)
(0 0 0)
(0 0 0)
(0 0 0)
(0 0 0)
(0 0 0)
(0 0 0)
(0 0 0)
(0 0 0)
(0 0 0)
(0 0 0)
(0 0 0)
(0 0 0)
(0 0 0)
(0 0 0)
(0 0 0)
(0 0 0)
(0 0 0)
(0 0 0)
(0 0 0)
(0 0 0)
(0 0 0)
(0 0 0)
(0 0 0)
(0 0 0)
(0 0 0)
(0 0 0)
(0 0 0)
(0 0 0)
(0 0 0)
(0 0 0)
(0 0 0)
(0 0 0)
(0 0 0)
(0 0 0)
(0 0 0)
(0 0 0)
(0 0 0)
(0 0 0)
(0 0 0)
(0 0 0)
(0 0 0)
(0 0 0)
(0 0 0)
(0 0 0)
(0 0 0)
(0 0 0)
(0 0 0)
(0 0 0)
(0 0 0)
(0 0 0)
(0 0 0)
(0 0 0)
(0 0 0)
(0 0 0)
(0 0 0)
(0 0 0)
(0 0 0)
(0 0 0)
(0 0 0)
(0 0 0)
(0 0 0)
(0 0 0)
(0 0 0)
(0 0 0)
(0 0 0)
(0 0 0)
(0 0 0)
(0 0 0)
(0 0 0)
(0 0 0)
(0 0 0)
(0 0 0)
(0 0 0)
(0 0 0)
(0 0 0)
(0 0 0)
(0 0 0)
(0 0 0)
(0 0 0)
(0 0 0)
(0 0 0)
(0 0 0)
(0 0 0)
(0 0 0)
(0 0 0)
(0 0 0)
(0 0 0)
(0 0 0)
(0 0 0)
(0 0 0)
(0 0 0)
(0 0 0)
(0 0 0)
(0 0 0)
(0 0 0)
(0 0 0)
(0 0 0)
(0 0 0)
(0 0 0)
(0 0 0)
(0 0 0)
(0 0 0)
(0 0 0)
(0 0 0)
(0 0 0)
(0 0 0)
(0 0 0)
(0 0 0)
(0 0 0)
(0 0 0)
(0 0 0)
(0 0 0)
(0 0 0)
(0 0 0)
(0 0 0)
(0 0 0)
(0 0 0)
(0 0 0)
(0 0 0)
(0 0 0)
(0 0 0)
(0 0 0)
(0 0 0)
(0 0 0)
(0 0 0)
(0 0 0)
(0 0 0)
(0 0 0)
(0 0 0)
(0 0 0)
(0 0 0)
(0 0 0)
(0 0 0)
(0 0 0)
(0 0 0)
(0 0 0)
(0 0 0)
(0 0 0)
(0 0 0)
(0 0 0)
(0 0 0)
(0 0 0)
(0 0 0)
(0 0 0)
(0 0 0)
(0 0 0)
(0 0 0)
(0 0 0)
(0 0 0)
(0 0 0)
(0 0 0)
(0 0 0)
(0 0 0)
(0 0 0)
(0 0 0)
(0 0 0)
(0 0 0)
(0 0 0)
(0 0 0)
(0 0 0)
(0 0 0)
(0 0 0)
(0 0 0)
(0 0 0)
(0 0 0)
(0 0 0)
(0 0 0)
(0 0 0)
(0 0 0)
(0 0 0)
(0 0 0)
(0 0 0)
(0 0 0)
(0 0 0)
(0 0 0)
(0 0 0)
(0 0 0)
(0 0 0)
(0 0 0)
(0 0 0)
(0 0 0)
(0 0 0)
(0 0 0)
(0 0 0)
(0 0 0)
(0 0 0)
(0 0 0)
(0 0 0)
(0 0 0)
(0 0 0)
(0 0 0)
(0 0 0)
(0 0 0)
(0 0 0)
(0 0 0)
(0 0 0)
(0 0 0)
(0 0 0)
(0 0 0)
(0 0 0)
(0 0 0)
(0 0 0)
(0 0 0)
(0 0 0)
(0 0 0)
(0 0 0)
(0 0 0)
(0 0 0)
(0 0 0)
(0 0 0)
(0 0 0)
(0 0 0)
(0 0 0)
(0 0 0)
(0 0 0)
(0 0 0)
(0 0 0)
(0 0 0)
(0 0 0)
(0 0 0)
(0 0 0)
(0 0 0)
(0 0 0)
(0 0 0)
(0 0 0)
(0 0 0)
(0 0 0)
(0 0 0)
(0 0 0)
(0 0 0)
(0 0 0)
(0 0 0)
(0 0 0)
(0 0 0)
(0 0 0)
(0 0 0)
(0 0 0)
(0 0 0)
(0 0 0)
(0 0 0)
(0 0 0)
(0 0 0)
(0 0 0)
(0 0 0)
(0 0 0)
(0 0 0)
(0 0 0)
(0 0 0)
(0 0 0)
(0 0 0)
(0 0 0)
(0 0 0)
(0 0 0)
(0 0 0)
(0 0 0)
(0 0 0)
(0 0 0)
(0 0 0)
(0 0 0)
(0 0 0)
(0 0 0)
(0 0 0)
(0 0 0)
(0 0 0)
(0 0 0)
(0 0 0)
(0 0 0)
(0 0 0)
(0 0 0)
(0 0 0)
(0 0 0)
(0 0 0)
(0 0 0)
(0 0 0)
(0 0 0)
(0 0 0)
(0 0 0)
(0 0 0)
(0 0 0)
(0 0 0)
(0 0 0)
(0 0 0)
(0 0 0)
(0 0 0)
(0 0 0)
(0 0 0)
(0 0 0)
(0 0 0)
(0 0 0)
(0 0 0)
(0 0 0)
(0 0 0)
(0 0 0)
(0 0 0)
(0 0 0)
(0 0 0)
(0 0 0)
(0 0 0)
(0 0 0)
(0 0 0)
(0 0 0)
(0 0 0)
(0 0 0)
(0 0 0)
(0 0 0)
(0 0 0)
(0 0 0)
(0 0 0)
(0 0 0)
(0 0 0)
(0 0 0)
(0 0 0)
(0 0 0)
(0 0 0)
(0 0 0)
(0 0 0)
(0 0 0)
(0 0 0)
(0 0 0)
(0 0 0)
(0 0 0)
(0 0 0)
(0 0 0)
(0 0 0)
(0 0 0)
(0 0 0)
(0 0 0)
(0 0 0)
(0 0 0)
(0 0 0)
(0 0 0)
(0 0 0)
(0 0 0)
(0 0 0)
(0 0 0)
(0 0 0)
(0 0 0)
(0 0 0)
(0 0 0)
(0 0 0)
(0 0 0)
(0 0 0)
(0 0 0)
(0 0 0)
(0 0 0)
(0 0 0)
(0 0 0)
(0 0 0)
(0 0 0)
(0 0 0)
(0 0 0)
(0 0 0)
(0 0 0)
(0 0 0)
(0 0 0)
(0 0 0)
(0 0 0)
(0 0 0)
(0 0 0)
(0 0 0)
(0 0 0)
(0 0 0)
(0 0 0)
(0 0 0)
(0 0 0)
(0 0 0)
(0 0 0)
(0 0 0)
(0 0 0)
(0 0 0)
(0 0 0)
(0 0 0)
(0 0 0)
(0 0 0)
(0 0 0)
(0 0 0)
(0 0 0)
(0 0 0)
(0 0 0)
(0 0 0)
(0 0 0)
(0 0 0)
(0 0 0)
(0 0 0)
(0 0 0)
(0 0 0)
(0 0 0)
(0 0 0)
(0 0 0)
(0 0 0)
(0 0 0)
(0 0 0)
(0 0 0)
(0 0 0)
(0 0 0)
(0 0 0)
(0 0 0)
(0 0 0)
(0 0 0)
(0 0 0)
(0 0 0)
(0 0 0)
(0 0 0)
(0 0 0)
(0 0 0)
(0 0 0)
(0 0 0)
(0 0 0)
(0 0 0)
(0 0 0)
(0 0 0)
(0 0 0)
(0 0 0)
(0 0 0)
(0 0 0)
(0 0 0)
(0 0 0)
(0 0 0)
(0 0 0)
(0 0 0)
(0 0 0)
(0 0 0)
(0 0 0)
(0 0 0)
(0 0 0)
(0 0 0)
(0 0 0)
(0 0 0)
(0 0 0)
(0 0 0)
(0 0 0)
(0 0 0)
(0 0 0)
(0 0 0)
(0 0 0)
(0 0 0)
(0 0 0)
(0 0 0)
(0 0 0)
(0 0 0)
(0 0 0)
(0 0 0)
(0 0 0)
(0 0 0)
(0 0 0)
(0 0 0)
(0 0 0)
(0 0 0)
(0 0 0)
(0 0 0)
(0 0 0)
(0 0 0)
(0 0 0)
(0 0 0)
(0 0 0)
(0 0 0)
(0 0 0)
(0 0 0)
(0 0 0)
(0 0 0)
(0 0 0)
(0 0 0)
(0 0 0)
(0 0 0)
(0 0 0)
(0 0 0)
(0 0 0)
(0 0 0)
(0 0 0)
(0 0 0)
(0 0 0)
(0 0 0)
(0 0 0)
(0 0 0)
(0 0 0)
(0 0 0)
(0 0 0)
(0 0 0)
(0 0 0)
(0 0 0)
(0 0 0)
(0 0 0)
(0 0 0)
(0 0 0)
(0 0 0)
(0 0 0)
(0 0 0)
(0 0 0)
(0 0 0)
(0 0 0)
(0 0 0)
(0 0 0)
(0 0 0)
(0 0 0)
(0 0 0)
(0 0 0)
(0 0 0)
(0 0 0)
(0 0 0)
(0 0 0)
(0 0 0)
(0 0 0)
(0 0 0)
(0 0 0)
(0 0 0)
(0 0 0)
(0 0 0)
(0 0 0)
(0 0 0)
(0 0 0)
(0 0 0)
(0 0 0)
(0 0 0)
(0 0 0)
(0 0 0)
(0 0 0)
(0 0 0)
(0 0 0)
(0 0 0)
(0 0 0)
(0 0 0)
(0 0 0)
(0 0 0)
(0 0 0)
(0 0 0)
(0 0 0)
(0 0 0)
(0 0 0)
(0 0 0)
(0 0 0)
(0 0 0)
(0 0 0)
(0 0 0)
(0 0 0)
(0 0 0)
(0 0 0)
(0 0 0)
(0 0 0)
(0 0 0)
(0 0 0)
(0 0 0)
(0 0 0)
(0 0 0)
(0 0 0)
(0 0 0)
(0 0 0)
(0 0 0)
(0 0 0)
(0 0 0)
(0 0 0)
(0 0 0)
(0 0 0)
(0 0 0)
(0 0 0)
(0 0 0)
(0 0 0)
(0 0 0)
(0 0 0)
(0 0 0)
(0 0 0)
(0 0 0)
(0 0 0)
(0 0 0)
(0 0 0)
(0 0 0)
(0 0 0)
(0 0 0)
(0 0 0)
(0 0 0)
(0 0 0)
(0 0 0)
(0 0 0)
(0 0 0)
(0 0 0)
(0 0 0)
(0 0 0)
(0 0 0)
(0 0 0)
(0 0 0)
(0 0 0)
(0 0 0)
(0 0 0)
(0 0 0)
(0 0 0)
(0 0 0)
(0 0 0)
(0 0 0)
(0 0 0)
(0 0 0)
(0 0 0)
(0 0 0)
(0 0 0)
(0 0 0)
(0 0 0)
(0 0 0)
(0 0 0)
(0 0 0)
(0 0 0)
(0 0 0)
(0 0 0)
(0 0 0)
(0 0 0)
(0 0 0)
(0 0 0)
(0 0 0)
(0 0 0)
(0 0 0)
(0 0 0)
(0 0 0)
(0 0 0)
(0 0 0)
(0 0 0)
(0 0 0)
(0 0 0)
(0 0 0)
(0 0 0)
(0 0 0)
(0 0 0)
(0 0 0)
(0 0 0)
(0 0 0)
(0 0 0)
(0 0 0)
(0 0 0)
(0 0 0)
(0 0 0)
(0 0 0)
(0 0 0)
(0 0 0)
(0 0 0)
(0 0 0)
(0 0 0)
(0 0 0)
(0 0 0)
(0 0 0)
(0 0 0)
(0 0 0)
(0 0 0)
(0 0 0)
(0 0 0)
(0 0 0)
(0 0 0)
(0 0 0)
(0 0 0)
(0 0 0)
(0 0 0)
(0 0 0)
(0 0 0)
(0 0 0)
(0 0 0)
(0 0 0)
(0 0 0)
(0 0 0)
(0 0 0)
(0 0 0)
(0 0 0)
(0 0 0)
(0 0 0)
(0 0 0)
(0 0 0)
(0 0 0)
(0 0 0)
(0 0 0)
(0 0 0)
(0 0 0)
(0 0 0)
(0 0 0)
(0 0 0)
(0 0 0)
(0 0 0)
(0 0 0)
(0 0 0)
(0 0 0)
(0 0 0)
(0 0 0)
(0 0 0)
(0 0 0)
(0 0 0)
(0 0 0)
(0 0 0)
(0 0 0)
(0 0 0)
(0 0 0)
(0 0 0)
(0 0 0)
(0 0 0)
(0 0 0)
(0 0 0)
(0 0 0)
(0 0 0)
(0 0 0)
(0 0 0)
(0 0 0)
(0 0 0)
(0 0 0)
(0 0 0)
(0 0 0)
(0 0 0)
(0 0 0)
(0 0 0)
(0 0 0)
(0 0 0)
(0 0 0)
(0 0 0)
(0 0 0)
(0 0 0)
(0 0 0)
(0 0 0)
(0 0 0)
(0 0 0)
(0 0 0)
(0 0 0)
(0 0 0)
(0 0 0)
(0 0 0)
(0 0 0)
(0 0 0)
(0 0 0)
(0 0 0)
(0 0 0)
(0 0 0)
(0 0 0)
(0 0 0)
(0 0 0)
(0 0 0)
(0 0 0)
(0 0 0)
(0 0 0)
(0 0 0)
(0 0 0)
(0 0 0)
(0 0 0)
(0 0 0)
(0 0 0)
(0 0 0)
(0 0 0)
(0 0 0)
(0 0 0)
(0 0 0)
(0 0 0)
(0 0 0)
(0 0 0)
(0 0 0)
(0 0 0)
(0 0 0)
(0 0 0)
(0 0 0)
(0 0 0)
(0 0 0)
(0 0 0)
(0 0 0)
(0 0 0)
(0 0 0)
(0 0 0)
(0 0 0)
(0 0 0)
(0 0 0)
(0 0 0)
(0 0 0)
(0 0 0)
(0 0 0)
(0 0 0)
(0 0 0)
(0 0 0)
(0 0 0)
(0 0 0)
(0 0 0)
(0 0 0)
(0 0 0)
(0 0 0)
(0 0 0)
(0 0 0)
(0 0 0)
(0 0 0)
(0 0 0)
(0 0 0)
(0 0 0)
(0 0 0)
(0 0 0)
(0 0 0)
(0 0 0)
(0 0 0)
(0 0 0)
(0 0 0)
(0 0 0)
(0 0 0)
(0 0 0)
(0 0 0)
(0 0 0)
(0 0 0)
(0 0 0)
(0 0 0)
(0 0 0)
(0 0 0)
(0 0 0)
(0 0 0)
(0 0 0)
(0 0 0)
(0 0 0)
(0 0 0)
(0 0 0)
(0 0 0)
(0 0 0)
(0 0 0)
(0 0 0)
(0 0 0)
(0 0 0)
(0 0 0)
(0 0 0)
(0 0 0)
(0 0 0)
(0 0 0)
(0 0 0)
(0 0 0)
(0 0 0)
(0 0 0)
(0 0 0)
(0 0 0)
(0 0 0)
(0 0 0)
(0 0 0)
(0 0 0)
(0 0 0)
(0 0 0)
(0 0 0)
(0 0 0)
(0 0 0)
(0 0 0)
(0 0 0)
(0 0 0)
(0 0 0)
(0 0 0)
(0 0 0)
(0 0 0)
(0 0 0)
(0 0 0)
(0 0 0)
(0 0 0)
(0 0 0)
(0 0 0)
(0 0 0)
(0 0 0)
(0 0 0)
(0 0 0)
(0 0 0)
(0 0 0)
(0 0 0)
(0 0 0)
(0 0 0)
(0 0 0)
(0 0 0)
(0 0 0)
(0 0 0)
(0 0 0)
(0 0 0)
(0 0 0)
(0 0 0)
(0 0 0)
(0 0 0)
(0 0 0)
(0 0 0)
(0 0 0)
(0 0 0)
(0 0 0)
(0 0 0)
(0 0 0)
(0 0 0)
(0 0 0)
(0 0 0)
(0 0 0)
(0 0 0)
(0 0 0)
(0 0 0)
(0 0 0)
(0 0 0)
(0 0 0)
(0 0 0)
(0 0 0)
(0 0 0)
(0 0 0)
(0 0 0)
(0 0 0)
(0 0 0)
(0 0 0)
(0 0 0)
(0 0 0)
(0 0 0)
(0 0 0)
(0 0 0)
(0 0 0)
(0 0 0)
(0 0 0)
(0 0 0)
(0 0 0)
(0 0 0)
(0 0 0)
(0 0 0)
(0 0 0)
(0 0 0)
(0 0 0)
(0 0 0)
(0 0 0)
(0 0 0)
(0 0 0)
(0 0 0)
(0 0 0)
(0 0 0)
(0 0 0)
(0 0 0)
(0 0 0)
(0 0 0)
(0 0 0)
(0 0 0)
(0 0 0)
(0 0 0)
(0 0 0)
(0 0 0)
(0 0 0)
(0 0 0)
(0 0 0)
(0 0 0)
(0 0 0)
(0 0 0)
(0 0 0)
(0 0 0)
(0 0 0)
(0 0 0)
(0 0 0)
(0 0 0)
(0 0 0)
(0 0 0)
(0 0 0)
(0 0 0)
(0 0 0)
(0 0 0)
(0 0 0)
(0 0 0)
(0 0 0)
(0 0 0)
(0 0 0)
(0 0 0)
(0 0 0)
(0 0 0)
(0 0 0)
(0 0 0)
(0 0 0)
(0 0 0)
(0 0 0)
(0 0 0)
(0 0 0)
(0 0 0)
(0 0 0)
(0 0 0)
(0 0 0)
(0 0 0)
(0 0 0)
(0 0 0)
(0 0 0)
(0 0 0)
(0 0 0)
(0 0 0)
(0 0 0)
(0 0 0)
(0 0 0)
(0 0 0)
(0 0 0)
(0 0 0)
(0 0 0)
(0 0 0)
(0 0 0)
(0 0 0)
(0 0 0)
(0 0 0)
(0 0 0)
(0 0 0)
(0 0 0)
(0 0 0)
(0 0 0)
(0 0 0)
(0 0 0)
(0 0 0)
(0 0 0)
(0 0 0)
(0 0 0)
(0 0 0)
(0 0 0)
(0 0 0)
(0 0 0)
(0 0 0)
(0 0 0)
(0 0 0)
(0 0 0)
(0 0 0)
(0 0 0)
(0 0 0)
(0 0 0)
(0 0 0)
(0 0 0)
(0 0 0)
(0 0 0)
(0 0 0)
(0 0 0)
(0 0 0)
(0 0 0)
(0 0 0)
(0 0 0)
(0 0 0)
(0 0 0)
(0 0 0)
(0 0 0)
(0 0 0)
(0 0 0)
(0 0 0)
(0 0 0)
(0 0 0)
(0 0 0)
(0 0 0)
(0 0 0)
(0 0 0)
(0 0 0)
(0 0 0)
(0 0 0)
(0 0 0)
(0 0 0)
(0 0 0)
(0 0 0)
(0 0 0)
(0 0 0)
(0 0 0)
(0 0 0)
(0 0 0)
(0 0 0)
(0 0 0)
(0 0 0)
(0 0 0)
(0 0 0)
(0 0 0)
(0 0 0)
(0 0 0)
(0 0 0)
(0 0 0)
(0 0 0)
(0 0 0)
(0 0 0)
(0 0 0)
(0 0 0)
(0 0 0)
(0 0 0)
(0 0 0)
(0 0 0)
(0 0 0)
(0 0 0)
(0 0 0)
(0 0 0)
(0 0 0)
(0 0 0)
(0 0 0)
(0 0 0)
(0 0 0)
(0 0 0)
(0 0 0)
(0 0 0)
(0 0 0)
(0 0 0)
(0 0 0)
(0 0 0)
(0 0 0)
(0 0 0)
(0 0 0)
(0 0 0)
(0 0 0)
(0 0 0)
(0 0 0)
(0 0 0)
(0 0 0)
(0 0 0)
(0 0 0)
(0 0 0)
(0 0 0)
(0 0 0)
(0 0 0)
(0 0 0)
(0 0 0)
(0 0 0)
(0 0 0)
(0 0 0)
(0 0 0)
(0 0 0)
(0 0 0)
(0 0 0)
(0 0 0)
(0 0 0)
(0 0 0)
(0 0 0)
(0 0 0)
(0 0 0)
(0 0 0)
(0 0 0)
(0 0 0)
(0 0 0)
(0 0 0)
(0 0 0)
(0 0 0)
(0 0 0)
(0 0 0)
(0 0 0)
(0 0 0)
(0 0 0)
(0 0 0)
(0 0 0)
(0 0 0)
(0 0 0)
(0 0 0)
(0 0 0)
(0 0 0)
(0 0 0)
(0 0 0)
(0 0 0)
(0 0 0)
(0 0 0)
(0 0 0)
(0 0 0)
(0 0 0)
(0 0 0)
(0 0 0)
(0 0 0)
(0 0 0)
(0 0 0)
(0 0 0)
(0 0 0)
(0 0 0)
(0 0 0)
(0 0 0)
(0 0 0)
(0 0 0)
(0 0 0)
(0 0 0)
(0 0 0)
(0 0 0)
(0 0 0)
(0 0 0)
(0 0 0)
(0 0 0)
(0 0 0)
(0 0 0)
(0 0 0)
(0 0 0)
(0 0 0)
(0 0 0)
(0 0 0)
(0 0 0)
(0 0 0)
(0 0 0)
(0 0 0)
(0 0 0)
(0 0 0)
(0 0 0)
(0 0 0)
(0 0 0)
(0 0 0)
(0 0 0)
(0 0 0)
(0 0 0)
(0 0 0)
(0 0 0)
(0 0 0)
(0 0 0)
(0 0 0)
(0 0 0)
(0 0 0)
(0 0 0)
(0 0 0)
(0 0 0)
(0 0 0)
(0 0 0)
(0 0 0)
(0 0 0)
(0 0 0)
(0 0 0)
(0 0 0)
(0 0 0)
(0 0 0)
(0 0 0)
(0 0 0)
(0 0 0)
(0 0 0)
(0 0 0)
(0 0 0)
(0 0 0)
(0 0 0)
(0 0 0)
(0 0 0)
(0 0 0)
(0 0 0)
(0 0 0)
(0 0 0)
(0 0 0)
(0 0 0)
(0 0 0)
(0 0 0)
(0 0 0)
(0 0 0)
(0 0 0)
(0 0 0)
(0 0 0)
(0 0 0)
(0 0 0)
(0 0 0)
(0 0 0)
(0 0 0)
(0 0 0)
(0 0 0)
(0 0 0)
(0 0 0)
(0 0 0)
(0 0 0)
(0 0 0)
(0 0 0)
(0 0 0)
(0 0 0)
(0 0 0)
(0 0 0)
(0 0 0)
(0 0 0)
(0 0 0)
(0 0 0)
(0 0 0)
(0 0 0)
(0 0 0)
(0 0 0)
(0 0 0)
(0 0 0)
(0 0 0)
(0 0 0)
(0 0 0)
(0 0 0)
(0.0250469 0.000951132 -0.0114039)
(0.0469585 -0.0032408 -0.00434607)
(0.0642651 -0.00154448 -0.0182668)
(0.0857012 -0.0299742 0.00378412)
(0.0475663 0.00628974 0.00305084)
(0.078711 -0.0237193 0.018593)
(0.05021 -0.00834526 0.0144996)
(0.0204212 -0.00221361 0.0104707)
(-0.00355515 0.028101 -0.00672056)
(0.00219906 0.0185026 -0.00996444)
(0.02044 0.0102344 -0.0111734)
(0.000535788 0.0461695 -0.0101587)
(0.0480626 0.0646669 -0.0269585)
(0.0761907 0.00441315 -0.0190635)
(0.0866448 -0.0256961 0.00186549)
(0.0577229 0.0235897 -0.013868)
(0.0493219 -0.0323712 0.00469695)
(0.0747008 -0.054907 0.0248055)
(0.0584049 -0.0625001 0.0350577)
(0.0485983 -0.0771791 0.0265196)
(0.0528373 -0.0980716 0.0334785)
(0.0421428 -0.0313627 0.0230991)
(0.0210477 -0.00208154 0.00944496)
(0.0675749 -0.0859414 0.0296758)
(0.0482851 -0.0178956 0.02118)
(0.0193509 0.00132147 0.015791)
(0.00508431 0.0232219 -0.00138197)
(-0.00521512 -4.72874e-06 0.000846189)
(-0.00936086 0.00805154 -0.000702841)
(0.00670401 0.0428979 -0.00301864)
(0.0181731 0.0232421 -0.00826308)
(0.00621826 0.0151924 -0.00416457)
(0.0263009 -0.00347238 6.65752e-05)
(0.0256766 0.0184169 0.00434653)
(0.0212152 -0.0113801 0.0135028)
(0.0299222 0.00163687 0.0194951)
(0.0140649 -0.0173357 0.0210095)
(0.0290379 -0.0595414 0.0250086)
(0.0425013 -0.0920346 0.0174679)
(0.012422 -0.0688538 0.0175873)
(0.0431946 -0.0992317 0.0103893)
(0.0733788 -0.095895 0.0101563)
(0.076137 -0.0489135 0.02159)
(0.0845189 -0.0942512 -0.000424196)
(0.098576 -0.0653922 0.0146902)
(0.0307211 -0.00694643 0.0176258)
(0.0456255 -0.0197632 0.0224955)
(0.0112637 -0.010774 0.0160006)
(-0.00797527 -0.000217152 0.0022655)
(-0.0140874 0.000338976 -0.00133819)
(-0.00126874 0.00173021 -0.00209435)
(-0.00459913 -0.00405966 -0.00375474)
(0.0245113 -0.0153265 0.000760426)
(-0.00120205 -0.0134197 -0.00533011)
(0.0212675 -0.0249159 -0.005943)
(0.0225781 -0.0155352 0.0054004)
(-0.00771382 -0.0250345 0.00477487)
(0.0243587 -0.0153901 -0.000392311)
(-0.00754253 -0.00634928 -0.0026043)
(-0.0121682 -0.0742966 0.00203112)
(0.0374468 -0.0930379 -0.007823)
(-0.018311 -0.0247773 -0.00768622)
(0.0324517 -0.0322971 -0.0155213)
(0.0883817 -0.0808079 -0.0124211)
(0.104441 -0.0513441 0.00659087)
(0.093216 -0.0234508 -0.0123397)
(0.10651 -0.0136106 0.00632424)
(0.0479343 -0.029357 0.0211153)
(0.0105309 -0.0149637 0.0208827)
(0.045252 -0.0227773 0.019875)
(0.00168798 0.00178277 -0.00278607)
(0.0032116 -0.00692823 -0.00771157)
(0.0294284 -0.0131482 -0.0103742)
(0.0115028 -0.00084346 -0.00788273)
(0.0289653 0.0113194 -0.00478708)
(0.0316539 -0.000200146 -0.00247868)
(0.0111038 -0.00188245 -0.00344489)
(0.0234984 0.0114545 -0.00294826)
(0.000488642 0.00723691 -0.00394743)
(-0.00267319 -0.00668091 -0.010685)
(0.042317 -0.010708 -0.0105772)
(-0.00905577 0.00617828 -0.0184909)
(0.0370196 -0.0227015 -0.0131858)
(0.105931 -0.00970441 4.86212e-06)
(0.0828076 -0.0110616 0.0198707)
(0.0767077 -0.0271352 0.00138049)
(0.0467689 -0.0201864 0.0123212)
(0.0342168 -0.0156124 0.0149903)
(0.0117534 0.00962237 -0.00257909)
(0.0117788 0.0072561 -0.00553564)
(-0.000501832 0.00929099 -0.0069133)
(0.00204942 0.0129398 -0.00431548)
(-0.00634779 0.01826 -0.00999527)
(0.0102666 -0.0172737 -0.0178571)
(-0.00331611 0.0142609 0.00198556)
(0.0282864 -0.0260171 -0.0117709)
(0.06311 -0.0246682 -0.00243868)
(0.0505225 -0.025596 -0.0147211)
(0.0791943 -0.0168955 0.101409)
(0.0972638 -0.029328 0.0477919)
(0.100882 -0.0480502 0.109067)
(0.0771444 -0.0149669 0.14491)
(0.0832701 -0.028142 0.0463622)
(0.095021 -0.0404664 0.156594)
(0.0493531 -0.0423301 0.132951)
(0.00481052 -0.0237024 0.111452)
(0.0596935 -0.00119718 0.169726)
(0.0556445 -0.0361812 0.204669)
(0.0137914 -0.0217953 0.173026)
(-0.0120722 -0.0132354 0.0702634)
(-0.0190948 -0.0191206 0.0921896)
(-0.00895432 0.0571025 -0.025183)
(0.00683461 0.0142458 0.028606)
(0.0543299 -0.0184847 0.0063977)
(0.00105111 0.0412666 -0.00453018)
(0.0573235 0.0281688 0.0338487)
(0.0176895 -0.00498665 -0.0229512)
(0.0542723 -0.0186832 -0.0126215)
(0.0194711 0.00903078 0.0196685)
(0.0472447 -0.00753211 0.0663745)
(-0.00866416 -0.0191132 0.0157682)
(-0.000273006 -0.106516 0.0606643)
(0.024554 -0.0493385 0.0532482)
(-0.0384951 -0.0394609 0.098586)
(-0.0386109 -0.0365587 0.0114258)
(-0.0737864 -0.0709463 0.0739362)
(-0.0919543 -0.0533949 -0.0628146)
(0.0108194 -0.0252639 0.0547637)
(-0.0743033 -0.102204 -0.138837)
(0.00402448 0.0934936 0.00668323)
(0.0369504 0.0676872 0.0236847)
(0.0297312 0.0851951 0.0295454)
(0.0040292 0.0371767 0.0661123)
(0.0281261 0.0303264 0.0776086)
(0.0385452 0.0387322 0.0774142)
(0.0596125 -0.0476651 0.0666069)
(0.0115943 -0.0319035 0.0509713)
(-0.103341 -0.112284 -0.183532)
(-0.0539388 -0.0816978 -0.187896)
(-0.0312159 -0.118496 -0.0965554)
(0.0437171 -0.00859597 0.0222278)
(-0.0197957 -0.0834923 0.0619381)
(0.049664 0.0142522 0.094816)
(0.0421508 -0.027575 0.0935654)
(-0.0115889 -0.0619337 0.095195)
(0.0174005 -0.0335753 0.0613832)
(0.110035 -0.0540037 0.0786474)
(0.0449129 -0.0737313 -0.148485)
(0 0 0)
(0.113645 -0.133191 -0.071441)
(-0.0393131 -0.0895542 0.0405148)
(-0.0278313 -0.0698809 0.054495)
(-0.0298799 -0.0806084 -0.00296911)
(-0.0213381 -0.0376629 -0.0265933)
(-0.0137675 -0.0224932 -0.0274065)
(-0.0342401 -0.0883471 0.0217048)
(-0.0484908 -0.103086 -0.00962678)
(-0.0385733 -0.0503847 -0.0333311)
(-0.0431706 -0.0612523 -0.0448378)
(0.147232 -0.0414319 0.0813617)
(0.142508 -0.0552614 0.00349718)
(0.0962572 -0.0654401 0.0645299)
(0.0926598 0.00124032 -0.0624025)
(0.155073 -0.0590398 0.0254146)
(0.0888175 -0.0272083 -0.0399062)
(0.0955713 -0.0728263 0.0356369)
(0.0945534 -0.110923 -0.0451967)
(-0.0232741 -0.00601438 -0.0398464)
(-0.0550203 -0.0357295 -0.0480692)
(0.019232 0.0278215 -0.0409618)
(0.0360859 0.0139365 -0.0134496)
(-0.0244815 -0.015945 -0.0217054)
(0.0191633 0.00873969 -0.0326831)
(0.0253036 -0.00691144 0.0259127)
(0.0530903 -0.0128699 -0.0441766)
(0.0126272 0.0112612 0.0236009)
(0.0509699 -0.0242351 -0.0462315)
(0.0587203 -0.0188351 -0.0483626)
(0.0249737 -0.0260965 0.0909396)
(0.0582456 -0.0285397 -0.0424622)
(0.0325045 -0.0106368 -0.0346671)
(0.0140473 0.00199713 -0.0672067)
(0.0885363 -0.00516341 0.15036)
(0.0644052 -0.0150227 0.016807)
(0.0987511 -0.0217654 0.165189)
(0.0911196 -0.0156915 0.110383)
(0.0355786 0.00882742 -0.0381057)
(0.0967691 0.00336726 0.132996)
(0.0951269 -0.0163361 0.254547)
(0.0488587 -0.0203682 0.241581)
(0.126922 -0.00606504 0.181293)
(0.136274 0.0155189 0.257704)
(0.0975201 -0.00821079 0.241119)
(0.0112548 -0.0202227 0.0983324)
(0.0434503 0.0453722 -0.322825)
(0.00540845 0.00460672 0.0334197)
(0.00542438 -0.00784648 0.0276358)
(0.0409076 -3.13365e-05 -0.0376337)
(0.0206279 0.00679275 0.0141927)
(0.0461345 -0.00234466 0.0645793)
(0.0132996 -0.0058087 -0.0599055)
(0.0273741 0.0115301 -0.062346)
(0.0148957 -0.00373294 0.00209309)
(0.045235 0.00570621 0.0623833)
(-0.013321 -0.000960683 -0.127565)
(-0.12824 0.0113241 -0.0028235)
(-0.088307 0.0274027 -0.206511)
(0.028277 0.0791049 -0.284605)
(0.0465101 0.0583534 -0.322788)
(-0.0504302 0.0587832 -0.188937)
(-0.0047443 0.0665125 -0.275182)
(-0.0438344 -0.0263659 -0.224374)
(0.00221025 0.030021 -0.247026)
(0.0153138 0.0122058 0.0965062)
(0.0331773 0.00456765 0.113211)
(0.0543335 0.00664288 0.130025)
(0.0119545 -0.0143653 0.094248)
(0.017239 -0.0118429 0.0933369)
(0.040904 -0.016628 0.127102)
(-0.0496671 -0.00757527 -0.163282)
(-0.0314566 -0.0894001 -0.0536509)
(-0.000810389 0.0456019 -0.18281)
(-0.0128722 0.0508405 -0.119737)
(-0.00861408 0.0113305 0.0125983)
(0.0587454 -0.0248757 0.140005)
(0.00424245 -0.0351347 0.113118)
(0.0196609 -0.00557668 0.0819058)
(0.0510271 -0.0178676 0.123459)
(0.0126821 -5.74425e-05 0.092747)
(0 0 0)
(0.0118895 -0.107403 -0.0879454)
(-0.00404228 0.0577937 -0.0463601)
(0.00305471 0.0256878 0.0825249)
(0.00463471 0.0565204 -0.00832734)
(-0.00976084 -0.0355776 0.0655657)
(0.0182105 0.0179446 0.045317)
(-0.0155891 -0.091049 -0.00803039)
(-0.0191235 -0.043058 -0.0589155)
(-0.00514123 -0.0779657 -0.0477995)
(0.019542 -0.00475795 0.0183242)
(-0.00549426 -0.0432224 -0.00122918)
(0.0104686 -0.00528365 -0.0769038)
(0.000380841 -0.0617785 -0.0640475)
(0.0535259 -0.021289 -0.112571)
(0.0346571 -0.00185882 -0.0693981)
(0.0230321 -0.0116534 -0.0824156)
(0.0573846 0.0277286 -0.104275)
(0.0201506 0.0199586 -0.0608585)
(0.0338534 0.00245824 -0.0542799)
(0.0118172 0.00401672 -0.0302767)
(0.00387716 0.00396434 -0.00440281)
(-0.0497264 -0.0502102 -0.0141295)
(-0.0434997 -0.0380794 -0.0344886)
(-0.0110409 -0.12362 0.0411408)
(-0.00241174 -0.0370345 0.084566)
(-0.0474737 -0.0457384 0.0320472)
(-0.0172806 -0.0825078 0.0596142)
(-0.00495852 -0.0515837 0.118856)
(0.0530428 -0.0430611 -0.0153844)
(0.0248685 -0.0570899 0.139392)
(0.0643676 -0.0797656 0.0630135)
(0.0551404 -0.0281811 0.014327)
(0.0304437 -0.0757829 0.145698)
(0.0291181 -0.0128961 -0.0139369)
(0.00558229 0.0106839 -0.0978821)
(-0.00215553 0.0103277 -0.139404)
(0.031649 -0.0119326 0.000644431)
(0.0106152 0.0303682 -0.0918034)
(0.0410712 0.0649405 -0.00222994)
(-0.00629876 -0.0142581 -0.225036)
(0.00986378 0.0263814 -0.153864)
(0.0116615 0.0290754 -0.195622)
(0.0677953 0.0699288 -0.111166)
(0.0335818 0.0517933 -0.274823)
(-0.00142977 -0.0060774 -0.280303)
(-0.0034014 0.00460107 -0.284437)
(0.0258418 0.0135478 -0.285401)
(0.0514562 0.0396349 -0.317329)
(0.0400619 0.0194285 -0.300898)
(0.0144546 -0.0292961 0.0305582)
(0.026581 -0.067868 0.041616)
(0.0277791 0.0235142 -0.0804778)
(0.0162046 -0.0202867 0.00511776)
(0.0358837 0.00692975 0.0461689)
(0.012823 -0.0100759 -0.0803933)
(0.00918611 0.0283591 -0.114504)
(0.0267492 -0.0549161 0.000273676)
(-0.0120526 -0.00327695 -0.0602798)
(0.0641647 0.0598884 -0.321454)
(0.0159258 0.119848 -0.196216)
(0.0543196 0.0781138 -0.30386)
(0.0703222 0.0391338 -0.271239)
(0.0781473 0.0452685 -0.288868)
(0.0781608 0.103677 -0.169281)
(0.128185 0.0602284 -0.286938)
(0.0397775 0.0625595 -0.264959)
(0.0699342 0.0822008 -0.233362)
(0.0135575 -0.0371211 0.0899741)
(0.00723447 -0.0137128 0.0649716)
(0.0203159 -0.0293013 0.109893)
(0.010641 -0.0585587 0.087096)
(0.00281276 -0.0145049 0.0422118)
(0.00707303 -0.0339245 0.0848744)
(-0.00739732 0.0872562 -0.0966411)
(-0.0125204 0.033527 0.00124279)
(0.0622932 0.105296 -0.175333)
(0.00450042 0.10244 -0.0689607)
(-0.000892608 0.0691375 -0.00586614)
(0.0300715 -0.00948448 0.0784158)
(0.0209412 0.0295138 0.0551126)
(0.00240466 0.00107053 0.0249075)
(0.0129811 0.00112944 0.0424327)
(0.0202239 0.0422943 0.0111938)
(-0.0321263 0.0349892 0.100544)
(-0.0304078 0.0571259 0.0629657)
(-0.0351436 0.0691098 0.0488479)
(-0.0166798 0.0593287 0.0789172)
(-0.0202826 0.0609689 0.0859816)
(0.0384727 0.0620427 0.0124093)
(0.0459413 0.0838038 -0.0264582)
(0.0105303 0.060947 -0.00866379)
(0.0725293 0.0538481 -0.104322)
(0.0176243 -0.0413737 -0.0926125)
(0.0739209 0.135695 -0.0537898)
(0.0951622 0.137757 -0.181167)
(0.108102 0.135987 -0.195745)
(0.0589218 0.102003 -0.364119)
(0.0054943 0.0300321 -0.017452)
(0.0386235 0.0112895 -0.0223783)
(0.00473774 0.00763728 -0.00625853)
(0.0174073 0.0311452 0.00433982)
(-0.0106018 0.0449373 0.0221559)
(0.0270935 0.0278577 0.0131701)
(0.00832004 0.0212103 0.0132933)
(-0.0261588 0.0482042 0.0549086)
(-0.0363413 -0.0337625 -0.0559248)
(-0.00654994 -0.00760561 -0.159568)
(-0.0184264 -0.0834282 0.0287408)
(0.0016903 -0.0321786 0.0497338)
(-0.0591607 -0.038341 -0.078802)
(-0.0125346 -0.0568834 -0.0409072)
(0.00429368 -0.0138634 -0.0303299)
(0.0737855 -0.0396286 0.0255463)
(0.0515123 -0.044552 0.0791881)
(0.0631977 -0.0627261 0.00671298)
(0.0922995 -0.0483953 0.0191984)
(0.0476532 -0.0164708 0.000858112)
(0.0398488 0.00610922 0.0278007)
(-0.0395507 0.0114886 -0.169871)
(0 0 0)
(-0.0241474 -0.00534115 -0.26334)
(-0.0431371 -0.0217318 -0.229428)
(-0.0269061 -0.0394769 -0.270593)
(-0.0162009 0.0119123 -0.223878)
(-0.0865821 -0.0913304 -0.229825)
(-0.0566299 -0.0819073 -0.22415)
(0.00198686 -0.0451143 -0.279261)
(0.0239925 -0.0107977 -0.262511)
(-0.0118308 0.000290423 -0.217291)
(0.00471552 -0.0724678 -0.23861)
(0.0507642 -0.0671142 -0.218344)
(0.0463115 0.00176783 -0.255616)
(0.0773183 -0.0368006 -0.19284)
(0.0457887 -0.104534 0.0244593)