/*--------------------------------*- C++ -*----------------------------------*\
| =========                 |                                                 |
| \\      /  F ield         | OpenFOAM: The Open Source CFD Toolbox           |
|  \\    /   O peration     | Version:  5.x                                   |
|   \\  /    A nd           | Web:      www.OpenFOAM.org                      |
|    \\/     M anipulation  |                                                 |
\*---------------------------------------------------------------------------*/
FoamFile
{
    version     2.0;
    format      ascii;
    class       volScalarField;
    location    "2";
    object      p;
}
// * * * * * * * * * * * * * * * * * * * * * * * * * * * * * * * * * * * * * //

dimensions      [0 2 -2 0 0 0 0];

internalField   nonuniform List<scalar> 
10571
(
316.26
349.315
318.034
240.065
202.51
302
241.371
220.892
212.382
229.036
299.011
259.276
223.091
211.116
200.618
206.483
247.514
210.479
202.822
184.735
187.661
175.771
177.606
183.966
168.328
198.486
148.498
149.003
176.798
141.867
148.63
173.947
188.201
170.927
134.558
141.513
173.117
186.353
160.907
144.628
135.14
151.245
159.346
153.97
146.457
148.419
154.081
163.856
123.077
120.865
119.675
124.709
132.634
115.196
116.507
132.372
129.289
121.973
116.087
114.447
125.025
144.735
126.853
136.166
117.345
125.038
130.027
136.604
138.842
138.042
133.567
141.38
106.217
112.283
113.707
108.07
104.827
112.754
113.16
110.712
104.607
108.972
112.661
112.8
111.116
112.299
107.7
121.086
112.143
113.764
111.697
116.877
121.488
123.989
113.539
106.798
104.648
105.568
107.701
103.783
104.733
109.647
103.553
101.342
103.057
104.594
109.558
109.481
104.763
102.947
101.481
107.911
108.614
106.909
104.204
105.354
109.203
111.659
107.074
104.951
103.53
103.134
102.799
103.237
103.82
103.265
102.177
103.684
103.497
102.825
102.665
105.804
106.307
102.863
104.258
102.959
101.971
102.482
105.043
102.854
103.39
102.974
103.1
104.922
104.776
104.462
103.182
102.833
102.907
103.128
103.214
102.489
102.895
103.357
103.018
102.555
102.496
103.27
103.862
102.894
103.433
102.989
102.264
102.351
102.803
102.491
103.131
101.991
102.441
102.212
102.154
102.765
103.266
102.812
102.571
102.671
102.752
102.823
102.333
102.516
102.685
102.554
102.239
102.352
102.249
102.341
102.3
102.402
102.123
102.193
102.287
102.013
101.91
102.354
101.594
105.642
102.166
101.664
101.757
102.668
102.515
102.393
102.446
102.44
102.525
102.272
102.131
102.308
102.35
102.319
102.349
102.021
101.727
101.674
101.93
101.808
102.18
102.603
101.908
101.356
101.648
101.837
102.789
101.463
101.004
101.95
102.213
102.225
102.249
102.189
102.291
102.106
102.023
102.112
102.196
102.114
101.919
101.659
101.549
101.849
101.762
102.055
101.763
101.536
101.476
102.136
101.288
101.486
101.409
101.941
102.063
102.07
102.069
101.979
102.129
101.985
101.964
101.972
101.958
101.893
101.897
101.872
101.732
101.851
101.66
101.726
101.886
101.672
101.623
101.561
101.769
101.536
101.49
101.923
101.949
101.966
101.919
101.818
101.993
101.978
101.87
101.855
101.753
101.829
101.878
101.891
101.779
101.823
101.679
101.879
101.819
101.697
101.766
101.166
101.472
101.597
101.579
101.424
101.856
101.872
101.809
101.75
101.883
101.884
101.766
101.784
101.712
101.818
101.815
101.803
101.734
101.751
101.669
101.85
101.895
101.659
101.816
101.768
101.714
101.637
101.6
101.289
101.776
101.769
101.766
101.702
101.785
101.763
101.738
101.743
101.71
101.77
101.724
101.704
101.684
101.678
101.608
101.777
101.789
101.648
101.765
101.872
101.844
101.664
101.571
101.604
101.707
101.709
101.717
101.643
101.692
101.69
101.718
101.673
101.663
101.694
101.655
101.626
101.644
101.606
101.589
101.684
101.584
101.589
101.677
101.746
101.715
101.627
101.542
101.571
101.634
101.634
101.66
101.572
101.602
101.624
101.613
101.568
101.575
101.61
101.601
101.581
101.571
101.523
101.551
101.587
101.461
101.509
101.579
101.654
101.608
101.535
101.477
101.501
101.552
101.543
101.555
101.489
101.504
101.536
101.499
101.474
101.476
101.518
101.535
101.539
101.465
101.43
101.46
101.49
101.432
101.439
101.472
101.543
101.484
101.456
101.405
101.47
101.465
101.437
101.459
101.422
101.41
101.401
101.386
101.374
101.376
101.429
101.44
101.445
101.361
101.341
101.358
101.391
101.411
101.372
101.369
101.415
101.357
101.378
101.332
101.323
101.384
101.333
101.369
101.378
101.333
101.277
101.296
101.28
101.284
101.345
101.324
101.301
101.239
101.25
101.26
101.29
101.331
101.287
101.268
101.273
101.235
101.297
101.24
101.248
101.287
101.247
101.278
101.298
101.248
101.168
101.22
101.206
101.209
101.271
101.204
101.147
101.125
101.146
101.16
101.182
101.214
101.201
101.174
101.13
101.127
101.217
101.16
101.153
101.173
101.176
101.183
101.179
101.133
101.127
101.135
101.151
101.139
101.183
101.14
101.088
101.018
101.051
101.065
101.07
101.128
101.132
101.106
101.017
101.017
101.152
101.087
101.045
101.058
101.111
101.082
101.058
101.016
101.106
101.055
101.1
101.067
101.106
101.123
101.072
100.926
101.003
101.004
100.981
101.085
101.088
101.087
100.972
100.938
101.112
101.045
101.036
100.97
101.044
100.992
100.968
100.924
101.075
100.986
101.048
101.018
101.049
101.15
101.15
100.934
100.996
100.98
100.935
101.073
101.081
101.092
100.997
100.921
101.098
101.066
101.099
100.946
100.969
100.936
100.932
100.907
101.032
100.937
101.026
101.011
101.014
101.154
101.12
101.002
101.006
100.991
100.932
101.068
101.087
101.091
101.041
100.955
101.109
101.111
101.177
100.982
100.968
100.914
100.945
100.953
100.99
100.896
101.007
101.029
101.025
101.078
101.031
100.985
101.026
101.017
100.973
101.03
101.079
101.093
101.058
101.017
101.126
101.133
101.193
101.05
100.979
100.909
100.998
101.032
100.97
100.856
100.997
101.055
101.06
101.052
101.018
100.966
101.06
101.054
101.034
101.055
101.079
101.112
101.061
101.086
101.154
101.147
101.179
101.132
100.997
100.927
101.07
101.104
100.979
100.848
101.021
101.082
101.102
101.09
101.07
100.964
101.119
101.097
101.099
101.161
101.12
101.155
101.08
101.155
101.197
101.178
101.174
101.204
101.017
100.978
101.138
101.153
100.998
100.868
101.043
101.116
101.151
101.138
101.132
101.023
101.175
101.138
101.166
101.286
101.201
101.222
101.135
101.226
101.241
101.225
101.219
101.244
101.033
101.023
101.173
101.18
101.017
100.862
101.018
101.153
101.198
101.168
101.165
101.076
101.194
101.186
101.23
101.283
101.265
101.278
101.208
101.3
101.264
101.274
101.305
101.255
101.049
101.043
101.18
101.196
101.033
100.862
101.008
101.187
101.249
101.21
101.209
101.196
101.233
101.258
101.298
101.299
101.293
101.32
101.281
101.363
101.293
101.319
101.375
101.242
101.07
101.052
101.17
101.229
101.063
100.942
101.096
101.254
101.33
101.274
101.271
101.374
101.349
101.345
101.383
101.402
101.353
101.375
101.359
101.416
101.329
101.369
101.435
101.241
101.132
101.068
101.179
101.289
101.117
101.061
101.22
101.354
101.437
101.33
101.318
101.44
101.5
101.424
101.475
101.441
101.429
101.436
101.407
101.473
101.388
101.421
101.481
101.287
101.241
101.129
101.231
101.389
101.189
101.129
101.333
101.448
101.606
101.383
101.357
101.41
101.587
101.484
101.58
101.464
101.438
101.484
101.444
101.52
101.44
101.47
101.504
101.376
101.382
101.236
101.326
101.521
101.29
101.146
101.423
101.551
101.727
101.452
101.409
101.353
101.629
101.531
101.663
101.513
101.447
101.534
101.483
101.573
101.496
101.525
101.534
101.54
101.545
101.387
101.473
101.648
101.429
101.168
101.523
101.635
102.026
101.545
101.488
101.313
101.648
101.584
101.739
101.59
101.533
101.61
101.562
101.64
101.559
101.585
101.591
101.785
101.736
101.588
101.682
101.724
101.595
101.241
101.625
101.633
102.021
101.654
101.595
101.344
101.636
101.645
101.809
101.686
101.677
101.69
101.654
101.714
101.627
101.657
101.678
101.992
101.922
101.833
101.871
101.584
101.77
101.434
101.743
101.665
101.937
101.767
101.716
101.442
101.627
101.706
101.863
101.787
101.827
101.781
101.743
101.792
101.709
101.742
101.758
102.136
102.077
102.07
102.035
101.742
101.918
101.697
101.904
101.841
101.989
101.874
101.837
101.577
101.684
101.801
101.94
101.88
101.943
101.881
101.849
101.882
101.822
101.829
101.839
102.197
102.161
102.231
102.157
101.933
102.011
101.939
102.06
102.022
102.09
101.966
101.94
101.754
101.799
101.904
102.026
101.956
101.989
101.962
101.941
101.969
101.92
101.906
101.918
102.24
102.185
102.268
102.233
102.083
102.068
102.072
102.149
102.117
102.139
102.036
102.019
101.916
101.91
101.978
102.072
102.017
101.998
102.006
102.008
102.03
102.019
101.971
101.987
102.259
102.183
102.241
102.285
102.16
102.101
102.129
102.183
102.127
102.14
102.081
102.07
102.022
101.984
102.029
102.092
102.057
102.006
102.018
102.052
102.062
102.12
102.023
102.034
102.223
102.167
102.196
102.221
102.166
102.117
102.127
102.19
102.09
102.122
102.103
102.096
102.067
102.022
102.055
102.098
102.074
102.01
102.005
102.067
102.067
102.146
102.045
102.056
102.185
102.145
102.153
102.153
102.142
102.119
102.15
102.156
102.045
102.083
102.103
102.103
102.064
102.036
102.048
102.082
102.076
101.994
101.973
102.056
102.049
102.134
102.047
102.059
102.15
102.118
102.112
102.122
102.106
102.108
102.18
102.136
102.002
102.041
102.087
102.085
102.027
102.046
102.025
102.041
102.063
101.967
101.934
102.033
102.019
102.08
102.011
102.04
102.12
102.085
102.068
102.096
102.074
102.079
102.141
102.113
101.967
101.999
102.058
102.051
101.977
102.046
101.995
101.998
102.031
101.929
101.875
101.999
101.986
102.016
101.953
101.999
102.085
102.046
102.023
102.068
102.042
102.035
102.053
102.074
101.932
101.967
102.016
102.003
101.898
101.992
101.956
101.956
101.978
101.863
101.807
101.946
101.943
101.927
101.865
101.938
102.046
102.007
101.987
102.036
102.017
101.988
101.97
102.029
101.917
101.957
101.967
101.945
101.794
101.911
101.923
101.965
101.906
101.776
101.753
101.887
101.909
101.804
101.775
101.87
102
101.97
101.95
101.996
101.993
101.951
101.924
102.002
101.961
101.963
101.922
101.895
101.749
101.887
101.903
101.991
101.843
101.698
101.726
101.849
101.888
101.752
101.727
101.817
101.946
101.938
101.905
101.945
101.96
101.928
101.911
101.967
101.974
101.954
101.891
101.878
101.854
101.908
101.892
101.991
101.801
101.667
101.72
101.827
101.876
101.772
101.726
101.789
101.89
101.91
101.855
101.88
101.914
101.917
101.98
101.919
101.884
101.911
101.87
101.875
101.948
101.917
101.847
101.931
101.77
101.661
101.734
101.799
101.844
101.764
101.737
101.777
101.843
101.889
101.817
101.801
101.869
101.909
102.038
101.915
101.78
101.845
101.849
101.852
101.916
101.905
101.767
101.851
101.732
101.714
101.76
101.772
101.809
101.746
101.745
101.772
101.808
101.88
101.807
101.741
101.834
101.894
101.978
101.904
101.753
101.802
101.832
101.821
101.872
101.878
101.706
101.774
101.715
101.777
101.791
101.773
101.773
101.745
101.768
101.78
101.779
101.879
101.836
101.69
101.801
101.874
101.873
101.817
101.703
101.741
101.828
101.803
101.848
101.847
101.661
101.686
101.74
101.82
101.798
101.768
101.721
101.771
101.796
101.786
101.762
101.874
101.869
101.625
101.759
101.85
101.783
101.694
101.598
101.677
101.834
101.804
101.822
101.821
101.587
101.596
101.789
101.83
101.813
101.727
101.647
101.792
101.81
101.778
101.748
101.847
101.87
101.565
101.679
101.816
101.718
101.577
101.467
101.573
101.834
101.805
101.796
101.757
101.477
101.472
101.831
101.819
101.834
101.678
101.55
101.849
101.826
101.76
101.68
101.793
101.791
101.51
101.57
101.774
101.667
101.47
101.294
101.417
101.814
101.787
101.76
101.626
101.323
101.29
101.84
101.768
101.771
101.578
101.4
101.861
101.813
101.713
101.517
101.717
101.678
101.438
101.414
101.728
101.628
101.347
101.036
101.161
101.779
101.756
101.727
101.478
101.088
101.024
101.818
101.786
101.637
101.425
101.188
101.909
101.776
101.629
101.28
101.633
101.545
101.306
101.211
101.686
101.602
101.207
100.688
100.795
101.744
101.724
101.693
101.373
100.765
100.631
101.772
101.787
101.499
101.233
100.868
101.863
101.759
101.529
101.13
101.55
101.402
101.152
100.936
101.655
101.546
101.069
100.186
100.173
101.715
101.692
101.616
101.283
100.286
99.9525
101.714
101.723
101.432
100.983
100.38
101.727
101.668
101.389
100.939
101.48
101.254
100.917
100.552
101.646
101.448
100.891
99.3594
99.0819
101.696
101.666
101.508
101.126
99.5476
98.5515
101.64
101.563
101.329
100.595
99.5726
101.592
101.509
101.167
100.7
101.448
101.134
100.605
100.007
101.658
101.316
100.564
98.1349
97.0524
101.681
101.619
101.387
100.876
98.5416
95.2032
101.522
101.335
101.087
100.077
98.1007
101.39
101.228
100.867
100.468
101.471
101.139
100.207
99.2828
101.58
100.952
100.032
96.5352
92.8705
101.532
101.428
101.094
100.411
97.3524
88.0432
101.275
101.058
100.799
99.4365
95.0983
101.104
100.933
100.51
100.522
101.553
101.299
99.782
98.4059
101.243
100.332
99.005
94.7192
83.0847
101.184
100.866
100.578
99.6922
96.091
80.52
2.23468
100.123
100.624
100.453
98.7397
89.0296
100.694
100.59
100.216
100.905
101.582
101.469
99.5719
97.6089
100.749
99.8732
97.2711
92.8676
76.4059
32.1287
100.34
99.9147
99.7953
99.1517
94.9636
80.7643
17.6153
99.0811
99.8987
100.07
98.095
82.4585
100.142
100.177
99.8994
100.834
101.003
101.026
99.7186
97.2449
99.9975
99.0048
96.142
92.5773
82.398
38.6384
99.4186
99.003
98.9822
98.5189
95.39
82.7858
36.8002
98.8396
99.2903
99.6498
98.4332
87.5617
40.794
99.7634
99.7676
99.6839
100.656
100.254
100.215
99.5778
97.7569
99.1589
97.9742
96.2393
94.1103
86.2326
48.649
98.8103
98.3584
98.2042
98.0092
97.062
86.1827
38.9262
98.6338
98.6542
99.2247
98.7151
94.4066
99.4244
99.3312
99.5372
100.082
99.4666
99.4243
99.0948
98.5622
98.4361
97.2988
96.5274
96.2832
95.507
98.4241
97.9869
97.5546
97.9832
98.6327
95.2814
21.6773
98.3931
98.2633
98.8414
99.0499
100.467
99.1314
98.9576
99.3148
99.7868
98.7901
98.6088
98.5807
99.0958
97.9652
96.8356
96.566
97.2296
98.8412
98.2163
97.8163
97.3151
97.8011
98.9672
100.448
98.333
98.0543
98.4235
99.1213
100.512
98.6806
98.6437
99.048
99.1359
98.3323
97.9891
98.0264
98.9996
97.7722
96.5325
96.0304
96.9319
99.2878
98.2054
97.784
97.2568
97.5311
98.7394
100.217
98.2782
97.9404
98.0415
98.9052
100.184
98.4246
98.5479
98.7961
98.2098
98.1924
97.5932
97.2489
98.1348
97.832
96.4128
95.4358
96.6354
98.5616
98.4419
97.9443
97.3471
97.4797
98.6846
99.6272
98.2803
97.9849
97.9462
98.8154
99.8082
98.3134
98.4654
98.7149
97.5844
98.4233
97.521
96.5288
97.022
98.1762
96.5524
95.2241
96.4298
98.0227
98.9068
98.4016
97.5595
97.701
98.9662
99.4107
98.4638
98.0339
98.1116
98.971
99.7004
98.3624
98.3326
98.8159
97.3559
99.0604
97.9497
96.2635
95.819
98.8457
97.1019
95.5232
96.4994
98.0436
99.5674
99.0252
98.0742
98.1677
99.4291
99.7644
98.8587
98.2963
98.5222
99.313
100.027
98.6048
98.5207
99.1608
97.8315
100.086
98.9481
96.6231
94.6567
99.753
98.1201
96.4102
97.2587
98.7375
100.325
99.7471
98.7407
98.7307
100.004
100.569
99.457
98.7358
99.264
99.9369
100.776
99.0259
99.0066
99.8587
99.3606
101.51
100.388
97.7929
94.4374
100.792
99.2078
97.356
97.0152
100.234
101.246
100.381
99.3604
98.787
99.8628
101.74
100.176
99.414
99.4965
100.812
101.979
99.5126
99.7702
101.039
100.85
102.192
101.328
98.9479
96.8655
101.388
99.8437
98.2178
98.6211
102.449
101.844
100.773
99.6911
99.2932
100.51
102.793
100.558
99.7485
99.9297
101.505
102.842
99.9082
100.532
102.218
398.942
414.805
431.175
424.298
412.159
400.292
362.538
298.908
364.804
378.981
379.962
364.039
324.36
353.467
325.635
286.97
262.412
294.461
269.011
243.352
230.769
255.74
252.826
225.156
244.799
256.11
350.963
317.165
323.859
326.951
285.512
294.45
262.403
252.725
235.951
240.082
227.996
228.688
223.142
221.937
218.579
219.857
227.675
216.941
219.877
245.24
235.099
238.378
309.23
307.299
301.194
275.819
246.571
269.428
237.328
232.735
224.378
226.86
225.177
223.459
223.474
238.111
222.434
218.751
216.454
212.87
223.098
234.219
234.575
218.971
292.72
275.021
237.866
270.674
264.659
221.639
227.089
238.757
236.013
238.027
237.335
260.544
278.464
215.558
209.999
234.395
211.259
206.11
257.958
242.149
230.503
207.651
254.445
285.832
211.747
234.494
364.884
278.993
362.146
365.097
358.596
245.922
268.569
240.14
291.881
234.3
216.224
201.317
190.683
208.091
184.281
335.031
262.801
353.379
339.229
310.277
274.486
271.479
265.184
245.148
216.565
215.062
223.003
179.974
182.637
191.835
194.427
232.497
198.498
322.076
309.535
312.37
251.159
243.59
238.853
224.428
219.174
196.96
188.898
172.28
293.524
277.605
217.043
204.677
191.746
207.576
200.911
164.308
159.928
159.811
263.106
195.436
225.703
252.727
231.491
188.704
193.671
185.564
163.12
189.417
184.192
177.144
166.495
156.744
164.968
158.158
153.119
215.578
151.483
175.018
165.274
150.544
155.826
157.348
190.027
165.739
161.646
169.528
160.477
169.006
198.409
144.107
170.945
187.099
160.018
135.435
136.812
127.247
162.534
175.693
142.857
141.621
156.987
178.098
164.856
184.358
130.679
187.516
180.559
140.195
144.012
131.176
125.881
116.859
175.064
164.6
172.735
172.693
167.695
143.762
149.266
171.668
147.377
162.65
147.064
136.527
121.058
117.362
115.65
157.922
151.778
147.026
139.727
139.716
127.923
131.138
117.013
116.27
118.643
145.098
143.806
140.702
141.516
140.752
139.199
121.334
148.145
141.44
136.24
121.349
127.095
130.559
131.54
147.906
158.712
153.922
145.728
145.424
153.399
149.787
145.408
141.429
138.138
153.219
153.833
144.997
146.655
147.871
165.433
155.089
144.412
156.216
146.049
158.333
120.504
112.785
117.305
116.484
112.021
109.034
111.396
107.085
122.955
130.678
109.034
109.108
110.288
135.892
109.289
117.182
114.479
116.99
116.179
115.88
114.626
113.201
114.229
114.862
132.543
129.108
119.521
106.565
107.356
115.811
108.213
120.374
109.897
115.582
115.459
115.257
114.098
113.817
113.921
125.368
127.893
113.25
118.082
119.109
116.116
117.149
114.203
114.551
114.904
135.651
134.479
129.677
128.021
127.115
117.644
114.898
119.338
122.79
127.961
114.638
116.174
115.948
121.983
137.729
144.887
142.135
127.518
127.216
129.512
129.22
129.99
133.103
126.379
136.119
139.657
130.891
127.277
132.575
138.728
135.338
122.208
122.712
125.063
125.932
110.592
108.365
107.631
109.951
107.522
106.988
108.143
106.955
106.144
105.009
105.692
105.539
105.129
104.948
105.314
113.126
111.951
111.386
113.288
114.415
110.014
110.097
112.45
114.767
105.269
106.134
106.031
105.468
105.503
103.903
105.133
106.843
105.618
112.754
112.217
112.291
111.54
110.914
110.843
112.781
112.563
106.326
108.82
109.351
112.734
113.013
111.035
111.163
111.375
118.641
120.336
113.79
112.574
114.417
112.756
111.057
113.589
111.863
114.798
110.094
109.915
109.932
109.713
117.604
106.681
113.352
108.024
110.676
103.091
106.13
114.448
118.241
111.96
120.508
123.433
117.195
114.912
116.025
110.012
116.068
108.685
105.137
111.175
105.175
105.163
103.609
105.351
104.428
104.551
103.699
103.022
103.114
104.278
104.705
103.845
103.722
104.239
104.673
104.186
109.235
105.572
105.779
108.281
110.696
103.426
102.994
103.301
103.053
104.653
104.208
104.479
104.164
104.191
104.084
104.048
104.629
103.895
110.11
109.724
109.579
107.855
108.074
108.046
106.052
107.784
103.527
104.096
104.553
109.591
109.675
107.893
107.801
107.595
107.975
109.69
104.007
103.784
106.325
109.234
106.967
107.218
108.628
107.178
107.042
105.62
107.035
105.453
106.919
104.978
105.479
104.029
105.683
104.638
105.722
105.916
108.639
106.567
111.134
111.065
107.851
108.709
108.113
103.608
109.896
106.651
103.902
109.948
104.922
103.272
103.165
103.262
103.241
103.141
103.172
103.188
103.17
103.56
103.859
103.362
103.396
103.54
103.822
103.508
103.142
102.761
103.012
102.626
102.993
103.013
103.07
102.841
103.194
103.869
103.72
103.671
103.508
103.585
103.297
103.352
103.347
103.016
104.689
106.244
106.283
103.111
104.459
104.713
102.8
102.952
105.678
102.522
102.211
102.611
101.861
102.724
102.709
102.532
102.597
102.858
102.36
102.471
105.73
105.035
104.049
103.978
103.526
103.688
103.969
102.121
101.997
101.805
102.958
100.692
102.432
102.373
102.421
102.289
102.454
102.283
102.434
104.306
103.293
104.452
104.722
104.009
103.648
103.604
102.922
102.75
105.035
103.757
105.106
102.281
104.21
103.278
103.887
101.526
104.778
103.085
105.572
105.162
103.087
103.196
103.209
104.186
105.632
103.372
103.806
103.271
103.808
103.015
102.84
103.05
103.04
103.063
102.901
102.885
102.899
103.196
103.256
102.992
102.982
102.996
103.241
103.019
102.589
102.495
102.936
102.71
102.948
102.684
102.77
102.615
102.719
103.3
103.001
103.09
103
103.08
102.802
102.877
102.907
102.575
102.884
102.527
102.587
102.828
102.521
102.749
102.539
103.263
103.45
102.257
102.358
102.383
102.596
102.703
102.695
102.34
102.353
102.583
102.582
102.743
102.363
102.48
102.422
102.636
102.387
102.472
103.265
103.156
102.707
102.854
102.86
102.438
102.935
101.405
102.226
102.523
102.404
102.151
102.508
102.302
102.395
102.306
102.474
102.255
102.469
102.894
102.572
103.082
102.155
102.017
102.274
102.878
102.003
101.739
103.375
102.992
103.019
101.689
102.731
102.756
102.735
100.577
104.223
103.04
102.313
102.072
102.303
102.021
101.84
102.249
102.302
101.79
101.791
101.85
103.162
102.659
102.297
102.602
102.086
102.96
102.695
102.595
102.756
102.743
102.746
102.643
102.614
102.615
102.791
102.788
102.67
102.634
102.632
102.837
102.687
102.421
102.363
102.647
102.53
102.581
102.475
102.552
102.437
102.48
102.885
102.661
102.738
102.665
102.72
102.518
102.602
102.841
102.597
102.707
102.601
102.508
102.732
102.495
102.743
102.23
102.063
102.071
102.226
102.124
102.153
102.524
102.448
102.501
102.254
102.478
102.402
102.512
102.625
102.229
102.468
102.353
102.691
102.295
102.529
102.308
102.51
102.085
101.985
102.173
102.633
101.693
101.628
102.187
102.688
101.867
101.938
102.527
101.92
102.34
102.449
102.636
102.465
102.801
102.335
102.156
102.851
101.954
101.682
101.94
102.589
101.927
101.611
102.34
102.589
102.623
101.628
102.256
102.384
102.564
104.53
104.906
105.122
102.314
102.848
102.795
101.774
101.685
101.583
101.623
101.546
101.518
101.507
102.041
101.632
101.127
101.673
101.321
102.328
102.496
102.385
102.525
102.492
102.491
102.382
102.379
102.368
102.484
102.489
102.347
102.333
102.355
102.549
102.421
102.316
102.255
102.456
102.356
102.386
102.311
102.354
102.282
102.293
102.577
102.398
102.474
102.397
102.449
102.299
102.352
102.541
102.252
102.2
102.12
102.144
102.159
102.074
102.09
102.695
102.386
102.595
102.292
102.555
102.391
102.617
102.759
102.35
102.601
102.526
102.772
102.606
102.653
101.931
101.941
101.95
101.938
101.882
102.674
102.323
103.306
102.229
102.72
101.692
103.293
102.776
102.769
102.793
102.773
102.891
102.904
102.859
102.038
101.936
101.777
101.91
101.519
101.804
101.14
101.865
101.506
102.266
102.139
102.533
102.054
102.403
102.123
102.521
100.812
101.617
101.582
101.468
101.47
101.444
101.462
101.468
101.384
101.197
101.235
101.183
101.32
101.847
102.282
102.186
102.257
102.277
102.258
102.159
102.184
102.162
102.213
102.246
102.129
102.121
102.159
102.313
102.221
102.184
102.116
102.258
102.207
102.208
102.143
102.17
102.132
102.134
102.33
102.206
102.231
102.205
102.233
102.107
102.138
102.12
102.09
102.109
102.026
102.047
102.056
101.99
102.007
102.235
102.733
101.976
101.925
101.586
101.934
101.915
101.907
101.904
101.934
102.629
101.268
101.741
101.077
101.365
101.862
101.868
101.141
101.817
101.567
101.825
101.473
101.806
101.626
102.717
102.118
102.52
101.963
102.506
102.126
102.419
101.772
101.583
101.606
101.497
101.491
101.512
101.541
101.536
101.364
101.429
101.469
101.536
101.499
101.968
102.098
102.023
102.082
102.099
102.082
102.022
102.025
102.018
102.044
102.082
102.005
101.979
102.012
102.137
102.061
102.058
102.006
102.089
102.072
102.069
102.012
102.018
102.022
102.01
102.15
102.022
102.071
102.058
102.077
101.952
102.014
102.048
101.998
102.008
101.96
101.973
101.968
101.939
101.947
101.818
101.768
101.849
101.843
101.873
101.882
101.923
101.892
101.888
101.906
101.503
101.624
101.833
101.799
101.783
101.897
101.89
101.71
101.819
101.676
101.866
101.779
101.835
101.714
101.781
102.119
102.355
101.132
101.186
101.905
102.342
101.581
101.643
101.688
101.581
101.575
101.572
101.607
101.604
101.593
101.539
101.543
101.482
101.574
101.715
101.964
101.913
101.971
101.962
101.965
101.924
101.91
101.917
101.931
101.954
101.899
101.892
101.903
101.998
101.944
101.956
101.907
101.962
101.971
101.956
101.923
101.913
101.921
101.901
102.006
101.902
101.961
101.934
101.94
101.864
101.913
101.957
101.929
101.931
101.914
101.917
101.891
101.882
101.875
101.87
101.867
101.824
101.877
101.858
101.884
101.898
101.851
101.856
101.877
101.84
101.899
101.878
101.831
101.971
101.852
101.834
101.776
101.843
101.749
101.839
101.763
101.871
101.783
101.097
101.542
101.355
101.447
101.35
101.188
100.732
101.576
101.734
101.772
101.624
101.622
101.612
101.626
101.637
101.359
101.609
101.596
101.389
101.627
101.206
101.866
101.823
101.88
101.866
101.873
101.839
101.828
101.834
101.855
101.856
101.814
101.819
101.814
101.895
101.848
101.858
101.811
101.865
101.872
101.846
101.818
101.816
101.82
101.803
101.881
101.832
101.873
101.833
101.835
101.802
101.837
101.906
101.879
101.847
101.834
101.821
101.806
101.782
101.762
101.86
101.846
101.801
101.837
101.829
101.817
101.833
101.768
101.767
101.787
101.813
101.985
101.814
101.79
101.943
101.83
101.811
101.755
101.903
101.817
101.879
101.748
101.882
101.817
101.681
101.143
101.012
101.916
101.82
101.335
101.587
101.829
101.785
101.768
101.642
101.658
101.66
101.657
101.669
101.493
101.642
101.588
101.596
101.645
101.448
101.783
101.747
101.803
101.794
101.799
101.767
101.76
101.767
101.784
101.776
101.742
101.748
101.743
101.803
101.76
101.766
101.733
101.768
101.776
101.771
101.737
101.73
101.744
101.746
101.792
101.766
101.803
101.739
101.753
101.725
101.764
101.845
101.804
101.763
101.742
101.709
101.723
101.735
101.679
101.811
101.804
101.733
101.78
101.773
101.716
101.741
101.687
101.667
101.689
101.759
101.896
101.734
101.721
101.836
101.765
101.712
101.725
101.805
101.759
101.681
101.686
101.706
101.682
101.782
101.6
101.79
101.801
101.691
101.698
101.708
101.786
101.727
101.675
101.653
101.66
101.656
101.637
101.655
101.622
101.632
101.559
101.587
101.613
101.65
101.713
101.677
101.732
101.726
101.734
101.695
101.691
101.699
101.714
101.713
101.672
101.68
101.684
101.717
101.674
101.702
101.666
101.701
101.715
101.714
101.673
101.67
101.68
101.673
101.709
101.684
101.724
101.647
101.664
101.64
101.679
101.757
101.708
101.689
101.755
101.692
101.654
101.74
101.686
101.744
101.736
101.654
101.702
101.694
101.62
101.632
101.625
101.584
101.589
101.674
101.778
101.635
101.629
101.717
101.655
101.6
101.64
101.615
101.618
101.512
101.587
101.55
101.572
101.629
101.647
101.591
101.689
101.618
101.592
101.516
101.659
101.632
101.604
101.607
101.631
101.579
101.571
101.598
101.531
101.568
101.515
101.47
101.544
101.519
101.637
101.595
101.655
101.652
101.66
101.612
101.611
101.617
101.645
101.653
101.594
101.609
101.616
101.63
101.585
101.629
101.586
101.633
101.641
101.626
101.591
101.591
101.598
101.577
101.619
101.598
101.635
101.554
101.575
101.548
101.591
101.66
101.611
101.617
101.681
101.639
101.57
101.615
101.584
101.651
101.644
101.564
101.598
101.593
101.567
101.566
101.57
101.543
101.551
101.58
101.656
101.538
101.536
101.598
101.563
101.544
101.537
101.513
101.532
101.437
101.495
101.493
101.495
101.584
101.552
101.486
101.598
101.503
101.53
101.47
101.554
101.565
101.526
101.534
101.559
101.494
101.496
101.521
101.424
101.511
101.44
101.394
101.47
101.494
101.551
101.505
101.566
101.568
101.571
101.519
101.523
101.522
101.568
101.574
101.508
101.523
101.522
101.539
101.493
101.534
101.477
101.545
101.545
101.531
101.491
101.497
101.487
101.489
101.53
101.502
101.545
101.456
101.487
101.455
101.499
101.56
101.509
101.519
101.55
101.532
101.462
101.492
101.477
101.543
101.539
101.472
101.489
101.486
101.515
101.532
101.494
101.48
101.499
101.489
101.537
101.441
101.443
101.475
101.523
101.493
101.462
101.481
101.464
101.431
101.429
101.476
101.426
101.422
101.507
101.429
101.474
101.344
101.469
101.353
101.426
101.493
101.455
101.458
101.48
101.417
101.422
101.444
101.361
101.429
101.371
101.314
101.395
101.396
101.457
101.408
101.471
101.477
101.473
101.425
101.43
101.426
101.477
101.472
101.426
101.433
101.424
101.45
101.41
101.415
101.356
101.447
101.426
101.443
101.383
101.398
101.366
101.389
101.443
101.409
101.451
101.37
101.401
101.362
101.405
101.46
101.413
101.398
101.429
101.414
101.332
101.358
101.345
101.433
101.432
101.383
101.381
101.381
101.43
101.449
101.382
101.374
101.392
101.393
101.411
101.341
101.345
101.35
101.453
101.402
101.386
101.459
101.382
101.376
101.337
101.423
101.338
101.282
101.406
101.3
101.336
101.227
101.343
101.261
101.286
101.41
101.365
101.38
101.403
101.339
101.337
101.36
101.259
101.355
101.286
101.214
101.311
101.278
101.361
101.316
101.379
101.382
101.38
101.332
101.334
101.333
101.387
101.377
101.338
101.339
101.328
101.368
101.321
101.299
101.248
101.351
101.311
101.33
101.288
101.305
101.261
101.276
101.357
101.308
101.359
101.294
101.312
101.255
101.313
101.36
101.311
101.268
101.31
101.28
101.213
101.254
101.234
101.329
101.33
101.311
101.28
101.28
101.316
101.338
101.259
101.254
101.283
101.295
101.296
101.238
101.243
101.242
101.345
101.283
101.288
101.371
101.29
101.274
101.236
101.312
101.24
101.183
101.29
101.222
101.192
101.135
101.218
101.174
101.184
101.32
101.273
101.295
101.32
101.257
101.259
101.286
101.183
101.269
101.199
101.156
101.229
101.204
101.272
101.228
101.282
101.285
101.284
101.229
101.233
101.231
101.287
101.278
101.232
101.231
101.222
101.268
101.208
101.205
101.173
101.261
101.215
101.225
101.21
101.22
101.179
101.178
101.263
101.198
101.265
101.192
101.212
101.142
101.216
101.262
101.214
101.183
101.201
101.193
101.166
101.155
101.147
101.229
101.229
101.227
101.179
101.179
101.198
101.233
101.163
101.163
101.195
101.191
101.185
101.125
101.138
101.125
101.223
101.174
101.182
101.251
101.19
101.164
101.142
101.196
101.145
101.086
101.143
101.121
101.057
101.038
101.068
101.071
101.07
101.225
101.181
101.221
101.245
101.181
101.186
101.207
101.131
101.188
101.125
101.108
101.153
101.097
101.182
101.137
101.175
101.18