/*--------------------------------*- C++ -*----------------------------------*\
| =========                 |                                                 |
| \\      /  F ield         | OpenFOAM: The Open Source CFD Toolbox           |
|  \\    /   O peration     | Version:  5.x                                   |
|   \\  /    A nd           | Web:      www.OpenFOAM.org                      |
|    \\/     M anipulation  |                                                 |
\*---------------------------------------------------------------------------*/
FoamFile
{
    version     2.0;
    format      ascii;
    class       surfaceScalarField;
    location    "2";
    object      phi;
}
// * * * * * * * * * * * * * * * * * * * * * * * * * * * * * * * * * * * * * //

dimensions      [0 3 -1 0 0 0 0];

internalField   nonuniform List<scalar> 
29271
(
-8.5704e-06
-2.38537e-06
6.62498e-06
4.52563e-06
-9.99963e-06
4.95387e-07
2.87599e-06
6.85699e-06
-2.72291e-05
-7.27233e-06
-5.19995e-06
6.60455e-06
1.67257e-05
1.63712e-05
-4.35679e-05
-1.11316e-05
-8.48109e-06
7.68765e-06
1.93272e-05
3.61658e-05
-4.44905e-05
-3.97655e-06
-7.4984e-07
9.38798e-06
4.31272e-05
-3.2983e-06
-2.74381e-05
-7.56563e-06
-5.13882e-06
1.40692e-05
9.29678e-06
1.67766e-05
-7.08302e-05
-3.39982e-05
-3.16725e-05
4.29022e-05
3.92672e-05
5.43314e-05
-7.18248e-05
-3.55526e-05
-3.27181e-05
2.91685e-05
3.98816e-05
7.10453e-05
-7.88577e-05
-2.89825e-05
-9.01673e-06
-1.54649e-05
2.26732e-05
0.000109649
-1.82614e-05
-1.52515e-06
2.73438e-06
8.06513e-06
9.04645e-06
-7.12869e-06
-1.94545e-06
4.25277e-06
4.92163e-06
-5.93707e-05
-2.10455e-05
-1.32356e-05
4.25976e-05
9.99697e-06
4.10572e-05
-7.04329e-05
-2.73681e-05
-4.62478e-05
3.9058e-05
2.33479e-05
8.1643e-05
-5.76621e-05
-2.33664e-05
-3.01483e-05
1.67034e-05
7.33982e-06
8.71337e-05
-5.36213e-05
-1.78509e-05
1.81848e-08
-1.33649e-05
8.03291e-06
7.67859e-05
-4.40965e-05
-6.24647e-06
-3.52538e-06
7.95869e-06
3.30087e-05
1.29009e-05
-3.59331e-05
-5.64651e-06
2.39024e-05
7.56264e-07
1.91506e-05
-2.22966e-06
-9.05137e-05
-4.16369e-05
-2.70369e-06
2.24739e-05
-1.11883e-05
0.000123569
-5.18646e-05
1.22837e-06
-5.39469e-06
5.57373e-06
-8.63806e-07
5.1321e-05
-5.99407e-05
-6.90052e-06
-2.35699e-06
8.03221e-05
-6.77423e-06
-4.34965e-06
-1.91417e-05
-7.6855e-06
2.53324e-06
2.42505e-05
-3.51114e-05
-6.94071e-06
8.12724e-06
4.07953e-05
-6.87702e-06
-4.98132e-05
-2.10291e-06
-6.49454e-06
1.40455e-05
5.29424e-05
-8.57724e-06
-2.11943e-05
1.47992e-06
2.16359e-07
1.92301e-05
-1.38083e-06
-1.45171e-07
1.62098e-06
-5.33416e-08
-4.64764e-06
1.12315e-06
1.82664e-06
1.94772e-06
-3.98189e-06
-3.47689e-06
-1.34495e-05
4.6971e-06
5.62478e-06
1.05864e-05
-1.70043e-05
-5.10507e-05
1.6912e-05
-3.43888e-05
1.94985e-05
6.60334e-05
-4.99891e-05
-4.90521e-06
-5.52287e-07
1.21176e-05
2.50346e-05
1.82944e-05
-3.50904e-06
-2.05396e-06
-1.53658e-05
2.55622e-06
2.69646e-06
1.56761e-05
4.0548e-07
7.02255e-06
0.000220234
-3.53464e-05
-6.88313e-05
-7.10092e-05
-9.34207e-05
-7.02951e-07
-4.84811e-07
9.77331e-06
1.3448e-05
-1.23254e-07
-4.54076e-07
1.36767e-05
5.81262e-06
4.62795e-06
1.85753e-05
0.000312993
-5.40645e-05
-9.32938e-05
-9.4742e-05
-0.000110214
2.24527e-08
-8.37342e-07
1.38032e-05
3.53456e-06
4.41299e-06
5.22396e-05
0.000206793
5.09705e-07
2.14765e-07
2.80268e-06
3.80769e-07
8.93273e-06
5.04775e-06
9.99674e-06
-0.000100081
-2.70391e-05
-9.54863e-05
-6.40964e-05
-6.04328e-06
-8.23495e-07
5.11435e-06
6.13689e-06
-3.55778e-06
-7.94054e-07
2.29523e-06
2.15642e-06
4.29673e-07
-3.16128e-05
-7.61885e-07
-1.06706e-06
1.80219e-06
3.12099e-05
2.23846e-05
5.06686e-05
0.000305476
-7.63813e-05
-9.32091e-05
-0.000117643
-9.05018e-05
-2.57922e-06
-4.66283e-06
7.69282e-06
5.77786e-06
5.94985e-05
5.97799e-05
0.000251531
-8.58732e-05
-9.85773e-05
-7.81637e-05
-6.72354e-05
1.4331e-05
2.02896e-05
0.000270208
1.43311e-05
2.12145e-05
2.40739e-05
1.62504e-05
2.34343e-05
1.82439e-05
-9.88884e-05
-8.41725e-05
-8.46966e-05
-4.2881e-05
-4.31885e-05
-8.75431e-06
-9.14094e-07
6.86701e-06
6.03209e-05
-1.68321e-05
-9.87482e-07
3.37926e-07
-1.19679e-06
1.85983e-05
8.01826e-08
1.3168e-05
1.57164e-05
0.000271229
-2.15665e-06
-7.56556e-07
7.13123e-06
1.32003e-05
1.8307e-05
1.37614e-05
1.43505e-05
-0.000124815
-0.000113797
-3.42729e-05
-4.03968e-05
1.71569e-05
1.54e-05
0.000148772
1.03565e-05
2.15672e-05
9.34189e-06
5.22447e-06
1.56411e-05
4.70093e-06
-5.90978e-05
-5.76122e-05
-3.30002e-05
-2.55027e-05
-0.000112377
2.47821e-05
4.03941e-06
0.000121002
-3.1502e-05
-1.48395e-06
-1.06606e-05
4.36328e-05
-5.39466e-05
8.77821e-06
-4.42274e-06
6.52894e-05
-6.51186e-05
6.54854e-06
-1.2961e-05
9.16652e-06
7.77646e-05
-1.50916e-05
8.75156e-06
-6.02729e-07
6.49367e-06
4.83669e-07
2.70645e-07
1.03105e-07
-8.12156e-07
8.10183e-07
4.48633e-07
1.57839e-06
-2.82971e-06
-8.17075e-07
2.36368e-06
-2.01498e-05
-9.69973e-06
-1.32335e-07
2.84352e-05
-9.92912e-07
-4.85709e-05
1.35981e-05
-3.14792e-06
-2.58302e-06
4.16967e-05
-1.09608e-05
-8.2462e-07
3.2278e-07
3.18564e-06
7.34056e-06
9.36479e-07
-3.91973e-06
-1.02582e-06
-2.0169e-05
-6.61942e-06
5.60786e-06
2.61261e-05
-4.48527e-05
-6.01311e-06
0.000209372
3.20386e-06
2.62384e-06
2.7656e-06
5.60788e-06
1.3694e-05
1.01854e-05
1.24384e-05
1.12094e-05
1.79237e-06
-3.22524e-06
0.000239383
1.00572e-05
8.05255e-07
1.31426e-05
6.18506e-06
2.97321e-06
1.69899e-05
0.000166443
-2.74057e-06
-4.10515e-07
3.31092e-06
6.85833e-06
3.66604e-06
6.82967e-06
4.6652e-06
-7.62536e-06
-4.01655e-07
1.24302e-07
1.07897e-05
-4.61716e-07
3.97364e-07
7.78063e-07
-7.16021e-07
-1.13317e-06
-3.80434e-05
-2.77883e-06
-4.71948e-06
-3.12408e-06
4.9799e-05
-1.85189e-05
7.92089e-06
0.000261518
9.53406e-06
9.17243e-06
1.44717e-05
1.53642e-05
3.44244e-05
3.75909e-05
0.000157772
7.24518e-06
8.05341e-06
0.000255804
1.31469e-05
4.96974e-06
1.20353e-05
7.47454e-06
6.6834e-06
6.21015e-06
-8.07605e-05
4.38877e-07
3.09506e-06
6.84893e-07
8.37868e-05
-2.45379e-05
9.91383e-07
-6.14203e-06
-6.55226e-06
2.75973e-05
8.64342e-06
2.49008e-06
4.38903e-06
0.000236166
5.85878e-06
7.09396e-06
1.14399e-05
5.56792e-06
5.04871e-06
3.58362e-07
7.36687e-07
1.19853e-05
1.15331e-05
0.000133169
1.6929e-06
1.0474e-05
1.43457e-06
4.11335e-06
1.05171e-05
3.93349e-06
-0.000141228
2.26051e-05
1.75431e-06
0.000136908
-6.07497e-05
1.05688e-06
-1.44974e-05
7.41852e-05
-7.20039e-05
1.00919e-05
-5.05203e-06
7.13611e-05
-8.70494e-05
3.78276e-06
-5.0821e-06
6.79513e-06
9.30867e-05
-2.82015e-06
2.3638e-07
-4.25832e-07
2.39103e-06
8.23865e-07
-1.89076e-06
-7.07957e-07
1.76804e-06
3.37489e-06
-3.76302e-07
-9.78144e-07
-2.10384e-06
9.55112e-06
5.93379e-06
-3.17368e-05
-7.16821e-06
-1.02254e-05
3.36455e-05
9.50015e-06
-4.63703e-05
1.41018e-07
9.27103e-06
-1.51524e-05
4.26105e-05
-1.29093e-05
1.23453e-06
-4.15994e-07
-5.16769e-06
2.16052e-05
-4.34677e-06
-2.10589e-06
3.03213e-06
-3.34189e-05
-1.26895e-05
4.31342e-06
4.08687e-05
-4.16482e-06
1.09859e-05
0.000153857
2.2187e-06
3.2397e-06
2.27099e-06
2.52366e-06
1.16619e-05
8.02151e-06
9.39052e-06
9.36652e-06
1.29206e-05
2.82068e-06
0.000188899
6.75651e-06
5.82262e-06
7.65661e-06
1.03427e-05
-3.79055e-07
-3.8724e-06
0.000185932
1.56251e-06
2.85382e-06
1.4716e-06
8.60243e-07
-2.48179e-06
-2.85956e-06
-3.72357e-06
-2.16377e-05
6.77744e-06
-1.25405e-05
2.70016e-05
4.60028e-07
3.64242e-07
-2.34818e-07
-5.80859e-07
-1.34947e-07
-6.42343e-05
-1.65862e-06
-4.52672e-06
-3.90787e-06
7.44624e-05
-5.72682e-06
-1.15217e-05
0.000253058
8.50125e-06
8.74045e-06
1.00189e-05
9.4343e-06
5.40816e-06
1.79025e-05
0.000131555
-2.70664e-06
1.49307e-06
0.000244775
3.33732e-06
-2.18377e-06
8.50771e-07
9.16075e-07
7.25861e-06
3.59946e-06
-7.41699e-05
9.06121e-06
9.05892e-06
-1.32433e-06
5.46674e-05
-3.39429e-05
3.68443e-07
-9.4844e-06
-2.26151e-06
4.17043e-05
3.61605e-06
1.0681e-05
-8.91832e-06
0.000225878
7.227e-06
3.31925e-06
8.89047e-06
3.60323e-06
-9.21112e-06
-7.62222e-06
-9.20254e-06
6.78488e-06
5.92541e-06
0.000114617
3.81429e-06
7.43415e-06
5.88155e-06
4.14905e-06
5.5025e-06
7.64344e-06
-0.000130806
1.42057e-05
8.53542e-06
0.000116343
-8.64578e-05
1.46491e-06
-1.00095e-05
9.49972e-05
-6.91088e-05
5.45447e-06
-2.60584e-06
5.73663e-05
-0.000101047
-5.28782e-06
3.05628e-06
-4.63632e-06
0.00011384
-3.47826e-06
-1.7354e-06
-1.13802e-06
5.6771e-06
-5.92474e-06
-5.48566e-06
1.81938e-06
9.58811e-06
-2.99406e-06
-1.46768e-06
-5.31731e-06
9.65042e-06
8.65455e-06
3.42333e-06
-3.03349e-05
6.78102e-07
-4.72785e-06
2.23067e-05
3.42865e-06
-3.98214e-05
-7.66884e-06
9.02838e-06
-2.29965e-06
3.73329e-05
-2.56344e-05
-6.03827e-07
2.05727e-06
8.89793e-07
3.09336e-05
-7.64245e-06
-7.10255e-07
4.81016e-06
-4.59651e-05
-6.57453e-06
6.14991e-06
4.22898e-05
2.17278e-05
-4.68225e-07
0.000131178
7.45457e-08
-4.74109e-07
6.41216e-07
1.30022e-06
2.27007e-07
1.843e-06
-2.66548e-06
4.72971e-07
1.26393e-06
-6.38607e-06
0.000210692
3.70947e-07
4.38848e-06
-1.71049e-06
2.00812e-06
-4.22874e-06
-6.28224e-06
0.000212234
-1.95923e-06
-1.23171e-06
-6.45925e-07
-4.73107e-07
-4.78008e-06
-1.93645e-06
-3.5006e-06
-2.94037e-05
7.71922e-06
-1.17344e-05
2.91827e-05
2.6275e-07
-2.37086e-07
-2.87613e-07
2.67171e-07
8.31763e-07
-8.31547e-05
-2.55822e-06
-4.06868e-06
-5.95048e-07
8.95449e-05
1.99584e-05
-1.72938e-05
0.000241933
1.07357e-06
2.07945e-06
1.83384e-06
3.00528e-06
-6.90618e-06
-8.39835e-06
0.000160432
-6.00022e-06
2.53845e-06
0.000234938
-1.88905e-06
-4.16776e-06
-2.61128e-06
2.37937e-06
2.45527e-06
3.94368e-06
-3.81854e-05
4.7434e-06
3.53e-06
-2.40313e-06
2.63149e-05
-4.84347e-05
-2.24934e-06
-1.94321e-06
1.66433e-06
5.04941e-05
4.68768e-07
1.0546e-05
-7.32658e-06
0.000217465
4.93701e-06
4.19041e-07
5.80867e-06
-4.53973e-07
-1.0268e-05
-4.83151e-06
-7.71113e-06
2.24574e-06
-4.62827e-06
0.000119829
1.735e-06
2.89394e-06
7.4648e-08
2.47022e-06
-7.03562e-06
-8.19864e-07
-0.000107414
5.69893e-06
1.2517e-05
9.39827e-05
-0.000101124
4.2986e-08
-5.74391e-06
0.000106826
-4.45356e-05
6.54814e-06
-9.16769e-07
3.15702e-05
-0.000127581
-1.29454e-05
1.90872e-05
-1.74737e-05
0.000134284
-9.66837e-06
-3.80926e-06
-2.88272e-06
1.63367e-05
-1.06595e-05
-2.27757e-06
2.39745e-06
1.05396e-05
-1.32194e-05
2.89277e-06
-3.38468e-06
1.37101e-05
4.727e-08
-5.66418e-07
-1.77376e-05
8.17873e-08
9.60244e-07
1.72147e-05
-1.60783e-06
-3.45689e-05
-1.99375e-06
5.37413e-06
6.95932e-07
3.21004e-05
-3.56029e-05
2.91615e-07
2.36067e-06
6.96396e-07
3.95651e-05
-7.31093e-06
5.44076e-06
-2.48144e-06
-3.75096e-05
3.65947e-06
-3.54994e-06
3.44407e-05
1.10313e-05
-6.18481e-06
0.000147357
4.2014e-08
2.86687e-07
-3.05364e-06
-1.71302e-06
-4.47297e-06
-2.51255e-06
-5.53728e-06
-4.06484e-06
1.24812e-06
-7.84025e-06
0.000224787
-1.86136e-06
1.30526e-06
7.46556e-07
3.33776e-06
-2.21338e-06
-8.75635e-06
0.000239597
-2.07709e-06
-5.93218e-07
-5.65557e-07
-1.24734e-06
-5.80683e-06
-1.18361e-06
-3.67117e-06
-2.63966e-05
3.17643e-06
4.65807e-08
-9.54713e-06
3.05073e-05
5.49309e-08
-1.22675e-08
1.76001e-08
-7.6e-08
-3.33613e-07
-3.19901e-07
2.27405e-07
4.3024e-07
6.05875e-07
-9.38277e-05
-1.40772e-06
-2.75729e-07
1.78845e-06
9.31168e-05
1.83525e-05
-2.24629e-05
0.000246457
-3.48528e-06
-1.4727e-06
-2.1154e-06
4.75393e-07
-6.60677e-06
-1.07714e-05
0.000188322
-3.70936e-06
-1.12648e-07
0.00022826
-2.28241e-06
-1.60858e-06
-4.338e-06
3.16117e-06
1.48611e-06
-1.28182e-06
-2.22091e-05
2.58313e-06
-1.52512e-06
2.84481e-06
1.45969e-05
3.93429e-11
1.48323e-07
-2.73003e-08
-3.2358e-08
-1.08085e-07
-5.15718e-05
-5.56107e-07
-4.71338e-08
1.59564e-06
5.14655e-05
-8.86102e-07
8.38893e-06
-5.42805e-06
0.000212705
8.52363e-07
-3.26688e-06
1.48323e-06
-3.61519e-06
-6.83652e-06
-4.02918e-06
-5.25208e-06
8.21571e-10
-9.80098e-06
0.000153091
-1.79741e-06
-3.14984e-07
-2.34173e-06
-5.73225e-06
-9.17698e-06
-6.48099e-06
-8.69723e-05
1.90868e-06
5.28764e-06
7.96642e-05
-0.000127776
5.8906e-06
-8.9578e-06
0.000130842
-2.40961e-05
1.49546e-06
-2.49762e-06
1.96559e-05
-0.000130243
-9.11971e-06
2.45385e-05
-1.27422e-05
0.000117766
-2.40657e-05
-4.29696e-07
-6.68023e-06
3.11782e-05
-1.03195e-05
-1.12097e-06
1.53543e-06
9.905e-06
-1.43839e-05
1.32916e-06
-1.68915e-06
1.47439e-05
-1.85267e-06
-2.79237e-07
-1.66324e-05
-7.33122e-07
2.45932e-06
1.70381e-05
-2.45847e-06
-3.04098e-05
-1.07795e-06
4.9517e-06
8.25487e-07
2.8169e-05
-4.32894e-05
1.27013e-06
2.1359e-06
5.80194e-08
4.66916e-05
-6.86627e-06
5.24421e-06
-1.70308e-06
-3.37609e-05
3.40146e-06
-6.47827e-06
3.32966e-05
7.2103e-06
-6.32892e-06
0.00016818
-2.161e-06
-2.87145e-06
-1.48465e-06
-2.09605e-06
-4.34732e-06
-4.116e-06
-1.72419e-06
-2.90335e-06
4.20473e-06
-8.18992e-06
0.000227737
-2.10526e-07
2.45971e-06
1.49936e-06
4.49635e-06
1.98425e-07
-9.21794e-06
0.000254362
-1.55087e-06
-2.2961e-07
1.2915e-07
2.8914e-07
-1.38558e-06
1.56254e-06
-3.55812e-07
-3.46138e-05
8.35021e-06
-9.41999e-07
-6.49077e-07
2.80531e-05
1.20197e-06
-6.05896e-06
7.48904e-06
-7.18473e-06
8.50616e-06
-3.95349e-06
-7.30548e-07
-2.22167e-07
-3.30255e-07
1.29338e-06
2.18512e-06
-8.87963e-05
9.74049e-07
1.77971e-06
2.75364e-06
8.11038e-05
1.66282e-05
-1.83939e-05
0.00025001
-3.98959e-06
-2.34998e-06
-2.02321e-06
2.46457e-07
-2.7264e-06
-1.10358e-05
0.000210522
-8.94835e-08
-6.20273e-08
0.000209802
-1.95081e-06
7.74691e-07
3.31991e-07
2.11529e-06
2.49519e-06
2.89879e-06
-1.59892e-05
1.81869e-06
4.61777e-07
-3.24548e-06
1.68648e-05
1.15278e-06
-8.68879e-06
1.5321e-07
-4.4724e-07
6.65631e-06
1.17373e-06
-5.05562e-05
3.33698e-07
-4.41131e-07
5.3925e-06
4.97471e-05
-4.47594e-06
8.08934e-06
-1.74805e-06
0.000194254
-3.04996e-07
-2.44373e-06
1.65911e-06
-8.89158e-07
-2.81573e-06
8.70256e-09
-1.49845e-06
-2.15045e-06
-6.96652e-06
0.000179097
-2.44213e-06
-7.97844e-07
-1.60056e-06
-5.46332e-06
-4.66648e-06
-4.86487e-06
-7.6739e-05
-7.61657e-07
1.97513e-06
7.33131e-05
-0.000115948
-2.57738e-05
-6.25445e-06
1.4936e-05
0.000133037
-3.13428e-06
4.04582e-06
-2.632e-06
1.72046e-06
-1.64789e-05
5.10781e-08
-6.10074e-07
1.52814e-05
-0.000102882
-4.2945e-06
1.7734e-05
-5.2676e-06
8.77432e-05
-3.74122e-05
5.06844e-06
-1.04852e-05
4.28289e-05
-9.1514e-06
-7.34078e-07
1.85357e-06
8.0319e-06
-1.48783e-05
3.36642e-07
-2.09838e-07
1.47515e-05
-2.06766e-06
-3.54053e-07
-1.76628e-05
-2.22099e-07
2.54005e-06
1.77665e-05
-2.47082e-06
-2.60599e-05
-9.7015e-07
4.48047e-06
9.11867e-07
2.41085e-05
-4.9709e-05
2.49185e-06
1.34853e-06
-1.04762e-07
5.20005e-05
-6.02707e-06
3.69669e-06
2.13036e-07
-3.35979e-05
-3.35661e-07
-3.86769e-06
3.38915e-05
6.96814e-06
-4.5696e-06
0.000176485
-1.28334e-06
-3.06852e-06
-6.47891e-07
-1.99991e-06
-4.87504e-07
-3.57795e-06
6.79344e-07
-3.1797e-07
6.70744e-06
-8.04546e-06
0.000228728
-3.88324e-07
2.68173e-06
7.96291e-07
4.22608e-06
2.23485e-06
-6.61263e-06
0.000265009
-1.77781e-06
-3.96209e-07
-1.29438e-07
-1.38163e-07
-1.4034e-07
2.79574e-06
2.24067e-07
-3.0533e-05
-8.64995e-07
3.87868e-07
7.03973e-07
3.2541e-05
6.44846e-06
-1.39655e-06
1.2997e-06
-1.40722e-06
3.09502e-06
-8.03942e-06
-2.78084e-06
1.29539e-06
-3.79781e-06
5.25813e-06
1.79389e-06
-7.45492e-05
2.28789e-06
1.51041e-06
1.17803e-06
6.77789e-05
1.72466e-05
-5.17367e-06
0.00024212
-3.99162e-06
-2.73638e-06
-1.9939e-06
-3.06013e-08
4.49246e-06
-1.09284e-05
0.00022616
8.84251e-08
-2.8756e-07
0.000198382
1.83701e-06
3.72543e-08
1.68912e-06
1.96777e-06
1.93028e-06
2.03796e-06
-1.7826e-05
1.75796e-07
4.33183e-07
-4.13575e-06
2.14412e-05
-4.43996e-06
-3.61917e-06
-1.55934e-06
1.01305e-06
4.79657e-06
3.80885e-06
-5.11596e-05
-9.0721e-07
-2.4336e-06
6.30756e-06
5.43095e-05
-6.11663e-06
6.64928e-06
1.43421e-06
0.000177509
2.59856e-08
-1.0956e-06
1.62285e-06
-4.87033e-07
3.51365e-07
1.91718e-06
1.15282e-06
-3.38734e-06
-2.30013e-06
0.000192288
-1.69774e-06
-1.88029e-06
-1.0821e-06
-3.72935e-06
-6.73678e-07
-2.72014e-06
-7.49621e-05
-2.94785e-06
-1.13293e-07
7.43483e-05
-0.0001347
5.72333e-06
-5.38404e-07
7.36713e-06
0.000122143
-7.02447e-06
-1.79034e-06
-9.10379e-06
5.59377e-06
1.23248e-05
-1.58999e-05
-1.07425e-06
1.75945e-07
1.82295e-05
-7.11261e-05
-6.30861e-07
1.12685e-05
5.11118e-07
5.76772e-05
-4.71592e-05
7.30482e-06
-1.00241e-05
4.98775e-05
-6.63606e-06
-7.76363e-07
1.98873e-06
5.42369e-06
-1.46131e-05
-4.71724e-07
4.93057e-07
1.45918e-05
-1.9175e-06
1.39933e-07
-1.76479e-05
5.0532e-07
1.69736e-06
1.72228e-05
-1.67251e-06
-2.29283e-05
-1.5495e-06
3.3778e-06
1.08586e-06
2.16866e-05
-5.38655e-05
2.79601e-06
7.36579e-07
-1.15136e-07
5.52379e-05
-4.78983e-06
1.44761e-06
1.8588e-06
-3.46123e-05
-1.53685e-06
-2.30953e-06
3.51522e-05
7.3278e-06
9.87466e-07
0.000175548
-9.09562e-07
-3.2577e-06
-5.25907e-07
-1.77287e-06
1.24595e-07
-1.34208e-06
1.17201e-07
1.88049e-07
4.92773e-06
-7.16373e-06
0.000233037
-1.15672e-06
2.38339e-06
2.72226e-07
3.75515e-06
2.01279e-06
-5.75721e-06
0.000280692
-1.94631e-06
2.91217e-07
-3.50382e-07
-1.33813e-06
-9.8644e-07
-9.53046e-07
-1.72784e-06
-4.56239e-05
2.11187e-06
2.46298e-06
8.48546e-07
4.22133e-05
1.11233e-05
-5.78294e-07
6.32458e-07
-5.1103e-06
-6.06721e-06
-7.02984e-06
4.57781e-07
-1.26122e-06
7.82726e-06
1.18627e-06
-6.29853e-05
1.52685e-06
3.21694e-07
4.44267e-07
5.95062e-05
1.60348e-05
-1.12972e-06
0.000235448
-3.69629e-06
-1.96653e-06
-1.61926e-06
3.56516e-08
2.16939e-06
-6.13283e-06
0.000238994
-2.69084e-06
-9.95648e-07
0.000203496
1.08077e-06
-4.43806e-06
-3.6383e-06
2.11641e-06
1.16885e-06
-1.30495e-06
-2.57037e-05
-3.60598e-07
-5.51045e-07
-4.1825e-06
2.8107e-05
-6.73821e-06
5.88476e-06
-3.22078e-06
5.08168e-06
-7.79029e-06
6.78284e-06
-5.73435e-05
6.9935e-07
-2.50377e-06
6.36662e-06
5.70664e-05
-4.28504e-06
1.71505e-06
1.30991e-06
0.000172391
3.05839e-07
-8.11277e-07
1.31562e-06
-1.41526e-06
7.51965e-07
6.35565e-07
1.81483e-07
-6.18442e-06
-1.70984e-07
0.00020789
-2.70431e-06
-4.86137e-06
-3.11309e-06
-1.81441e-06
-1.76571e-08
-1.15275e-06
-8.00019e-05
-8.23763e-06
-1.29779e-06
8.23572e-05
-9.35665e-05
-6.80735e-06
3.19673e-06
9.71767e-05
-2.05451e-05
-1.97932e-06
1.97221e-06
2.18618e-05
-4.90996e-05
-8.08729e-07
6.30422e-06
-9.59925e-07
4.43931e-05
-5.13486e-05
7.71957e-06
-7.89653e-06
5.15263e-05
-4.99234e-06
4.59185e-07
-8.25096e-07
5.35825e-06
-1.45029e-05
-9.28439e-07
9.99971e-07
1.44314e-05
-2.01086e-06
6.15037e-07
-1.66919e-05
5.19496e-07
1.3853e-06
1.61829e-05
3.04859e-07
-2.04327e-05
-1.96452e-06
2.94319e-06
6.18488e-07
1.85307e-05
-5.66269e-05
2.9776e-06
5.33936e-07
-5.37312e-07
5.75741e-05
-3.92144e-06
7.27112e-08
1.68105e-06
-3.55795e-05
-8.92902e-07
-7.38802e-07
3.54574e-05
6.09936e-06
4.8473e-06
0.000172586
-9.26481e-07
-2.6004e-06
-1.13193e-06
-1.34906e-06
-5.17349e-07
-8.9005e-07
-7.06054e-07
1.36702e-07
1.48338e-06
-6.8581e-06
0.000240371
-1.39423e-06
1.72807e-06
4.44319e-07
3.36241e-06
-2.99478e-06
-6.69281e-06
0.000303686
-2.03102e-06
-1.4584e-06
4.07992e-07
-3.50893e-07
-4.23498e-06
-7.48476e-07
-3.40679e-06
-4.01046e-05
-4.87782e-06
5.68134e-07
4.14187e-05
-8.13928e-06
-1.17441e-07
-9.44052e-08
8.35113e-06
-3.54737e-07
-5.74674e-05
-1.58197e-07
5.83538e-07
1.10936e-06
5.62874e-05
1.06369e-05
7.71535e-07
0.000233959
-2.62316e-06
-1.19479e-06
-1.47407e-06
2.20299e-07
-7.07261e-07
-5.27881e-06
0.000248759
-7.08345e-06
-2.45616e-06
0.000223697
-5.68677e-06
-6.78513e-06
-2.96303e-06
-2.26177e-06
1.46009e-07
-5.10941e-07
-4.81451e-05
-2.9571e-08
-4.81884e-06
-3.19397e-06
4.9104e-05
-5.59501e-05
-1.35246e-06
-1.05671e-07
4.80103e-06
5.50172e-05
-2.40997e-06
-4.9691e-06
8.74234e-07
0.000179239
-6.44993e-07
-1.66932e-06
4.66862e-07
-1.81031e-06
4.59661e-07
7.2183e-07
4.94068e-07
-8.74567e-06
-4.01679e-07
0.00022568
-5.04434e-06
-5.80179e-06
-5.06964e-06
-1.36975e-06
-2.95926e-07
-1.3098e-06
-8.77963e-05
-8.94866e-06
-4.21609e-07
8.59647e-05
-9.0861e-05
1.24036e-05
5.00982e-06
7.34412e-05
-2.24324e-05
-3.21629e-06
3.48574e-06
2.30369e-05
-4.05922e-05
-1.58035e-06
5.58833e-06
-1.18488e-06
3.73674e-05
-5.18669e-05
6.21505e-06
-5.98925e-06
5.16386e-05
-5.9264e-06
1.35335e-06
-1.68014e-06
6.2532e-06
-1.43686e-05
-6.71886e-07
8.29408e-07
1.42111e-05
-1.98404e-06
1.36098e-07
-1.56452e-05
6.26705e-07
1.66465e-06
1.52017e-05
7.25652e-07
-1.69304e-05
-1.80044e-06
2.48204e-06
2.51669e-07
1.52715e-05
-5.8543e-05
2.95075e-06
5.13752e-07
-6.2777e-07
5.90508e-05
-3.34461e-06
8.67409e-08
1.40555e-06
-3.49245e-05
6.92662e-08
-1.91976e-07
3.35549e-05
5.59816e-06
7.31551e-06
0.00017088
-1.52353e-06
-2.52964e-06
-1.38587e-06
-1.54638e-06
-1.18771e-06
-1.14555e-06
-1.43634e-06
-4.52263e-07
3.77999e-06
-7.98146e-06
0.000245278
-9.99112e-07
1.60187e-06
8.79941e-07
3.40955e-06
5.01477e-07
-4.90409e-06
0.000313322
-1.58645e-06
-5.37437e-07
4.48803e-07
-3.58371e-07
-1.0846e-06
1.35231e-06
3.12113e-07
-4.19243e-05
-2.22196e-06
2.10205e-06
4.25457e-05
-8.5124e-06
-1.41751e-07
5.2569e-08
8.60159e-06
-8.68081e-07
-5.54194e-05
-7.24947e-07
1.92804e-06
1.08192e-06
5.40025e-05
9.21934e-06
3.20961e-06
0.000236598
-3.3482e-06
-1.89996e-06
-1.99248e-06
-5.12144e-07
-1.73114e-07
-7.45948e-06
0.000257629
-4.5562e-06
-2.30445e-06
0.000232945
-1.76989e-06
-3.07893e-06
-1.08713e-06
3.28227e-08
-9.54023e-07
-6.07399e-07
-4.7426e-05
-1.10378e-06
-1.96138e-07
-3.4456e-06
4.76154e-05
-5.38333e-05
-2.47645e-06
1.39126e-06
4.64158e-06
5.241e-05
-2.13308e-06
-5.17075e-06
1.04581e-06
0.000190406
-1.55797e-06
-2.24485e-06
-3.59763e-07
-2.32491e-06
6.20687e-07
1.2032e-06
8.31589e-07
-7.31669e-06
-4.6752e-07
0.000239009
-5.44263e-06
-3.93179e-06
-4.83605e-06
-1.76941e-06
-3.17618e-07
-1.87676e-06
-8.67833e-05
-5.16105e-06
-1.45849e-06
8.37817e-05
-6.77872e-05
4.87414e-06
-1.90349e-06
6.4813e-05
-2.32303e-05
-4.01928e-06
4.53194e-06
2.37634e-05
-3.59067e-05
-1.68461e-06
3.45984e-06
-1.84303e-06
3.5507e-05
-5.15245e-05
4.50504e-06
-4.40994e-06
5.14291e-05
-6.18893e-06
1.44666e-06
-1.11065e-06
5.85292e-06
-1.38378e-05
-2.14331e-07
8.83334e-07
1.31688e-05
-1.43219e-06
-3.10155e-07
-1.49714e-05
7.9698e-07
1.30286e-06
1.46139e-05
-3.23899e-07
-1.44446e-05
-1.30553e-06
1.7346e-06
2.73082e-07
1.40663e-05
-5.95489e-05
2.79972e-06
3.6228e-07
-4.86194e-07
5.97135e-05
-2.84048e-06
-3.18983e-07
1.76402e-06
-3.14171e-05
7.2243e-07
5.13944e-07
2.87357e-05
6.45644e-06
6.83705e-06
0.000169571
-1.29765e-06
-2.32243e-06
-7.14449e-07
-1.28631e-06
-1.73561e-06
-2.01803e-06
-1.35515e-06
-1.25548e-06
6.82264e-06
-8.65461e-06
0.000247289
-3.94883e-07
1.81383e-06
1.24516e-06
3.61362e-06
1.24921e-06
1.65579e-06
0.000318751
-1.88852e-06
-8.23862e-07
6.51359e-08
-7.30238e-07
1.06404e-07
1.27562e-06
4.83991e-07
-4.36683e-05
-2.40139e-06
2.55757e-06
4.47613e-05
-8.56052e-06
1.21139e-07
8.06365e-08
8.35875e-06
-1.29015e-06
-5.26993e-05
-3.41974e-07
2.6224e-06
6.14014e-07
5.1095e-05
9.09273e-06
6.05592e-06
0.000238539
-3.88971e-06
-2.5775e-06
-2.50839e-06
-1.27636e-06
1.34251e-06
-7.78014e-06
0.000264505
-2.96786e-06
-3.35756e-06
0.000248817
-1.10377e-06
-2.08539e-06
-9.44075e-07
-8.50628e-07
-1.29358e-06
-2.71275e-07
-4.9484e-05
-1.27908e-06
2.51882e-07
-3.30943e-06
5.08527e-05
-5.07896e-05
-1.41505e-06
1.92033e-06
4.06152e-06
4.83932e-05
-2.17039e-06
-5.45291e-07
1.5883e-06
0.000200114
-2.3299e-06
-2.95952e-06
-8.97062e-07
-2.96275e-06
1.04276e-06
1.97793e-06
1.43322e-06
-4.77119e-06
-5.27773e-07
0.000247503
-4.24864e-06
-1.2107e-06
-3.01141e-06
-1.43428e-06
-3.38871e-07
-1.27718e-06
-8.47137e-05
-2.90411e-06
-3.51202e-06
8.30011e-05
-6.26675e-05
3.18338e-06
-1.38223e-06
6.08663e-05
-2.45766e-05
-4.80275e-06
5.20326e-06
2.57643e-05
-3.59767e-05
-2.20291e-06
3.63407e-06
-2.13463e-06
3.61524e-05
-5.09487e-05
3.61336e-06
-3.46258e-06
5.07972e-05
-5.44084e-06
1.10579e-06
-7.82508e-07
5.11756e-06
-1.23938e-05
-8.67528e-07
1.5362e-06
1.17251e-05
-3.9525e-07
1.53555e-08
-1.39795e-05
1.14938e-06
-7.73497e-08
1.32873e-05
-1.26527e-06
-1.45645e-05
-1.04044e-06
1.25871e-06
3.06197e-07
1.53053e-05
-6.00347e-05
2.52313e-06
2.11558e-07
-3.14404e-07
6.02425e-05
-2.62806e-06
-1.68067e-06
1.93057e-06
-2.63291e-05
-2.49992e-07
1.76677e-06
2.45625e-05
7.2801e-06
5.77129e-06
0.000163004
-1.17017e-07
-1.66721e-06
4.75939e-07
-5.78127e-07
-8.25792e-07
-2.49455e-06
1.52983e-07
-1.43017e-06
7.32342e-06
-8.15124e-06
0.000247838
6.85923e-08
2.01651e-06
1.6867e-06
3.78679e-06
1.10194e-06
2.21923e-06
0.000324788
-2.07915e-06
-9.83387e-07
6.71344e-09
-7.51339e-07
1.43771e-07
1.18498e-06
4.43924e-07
-4.58553e-05
-2.2489e-06
2.43341e-06
4.67728e-05
-8.00071e-06
-4.52753e-07
8.34234e-07
7.61923e-06
-1.90816e-06
-4.98514e-05
-1.0332e-06
3.29816e-06
8.26947e-07
4.86677e-05
9.41517e-06
7.34527e-06
0.000239959
-4.55438e-06
-3.20873e-06
-2.99635e-06
-1.64967e-06
3.20361e-06
-6.55904e-06
0.000269125
-1.75427e-06
-4.21708e-06
0.000261694
-8.04463e-07
-9.26803e-07
-3.46186e-07
2.85122e-07
-5.42915e-07
8.53284e-07
-5.22424e-05
-1.21742e-06
6.42213e-07
-2.25404e-06
5.33174e-05
-4.48844e-05
-7.08001e-07
2.93559e-06
4.35167e-06
3.98117e-05
-1.50654e-06
4.48095e-06
2.43914e-06
0.000208793
-3.11465e-06
-4.14531e-06
-2.14819e-06
-4.67024e-06
1.43002e-06
2.6144e-06
1.77996e-06
-2.87129e-06
-2.12118e-07
0.000251872
-1.60586e-06
5.97023e-07
-9.86639e-07
-8.76309e-07
3.90463e-08
-5.31065e-07
-8.47639e-05
-1.96672e-06
-2.1597e-06
8.1802e-05
-5.9097e-05
1.87151e-06
1.06283e-07
5.71192e-05
-2.73452e-05
-6.16702e-06
6.81935e-06
2.9132e-05
-3.63827e-05
-3.93345e-06
5.33342e-06
-2.09251e-06
3.68631e-05
-5.10832e-05
3.74665e-06
-4.38394e-06
5.17215e-05
-4.93619e-06
7.93381e-07
-7.45911e-07
4.88872e-06
-1.13104e-05
-3.6366e-07
7.89889e-07
1.08841e-05
-1.7782e-08
-2.02893e-07
-1.28302e-05
1.25904e-06
-7.29079e-07
1.25209e-05
-1.36019e-06
-1.65874e-05
-8.66294e-07
1.05764e-06
-1.33842e-07
1.789e-05
-6.07597e-05
2.43434e-06
-6.6501e-08
-3.76239e-07
6.11902e-05
-2.42208e-06
-6.86375e-07
2.14153e-06
-2.34155e-05
-1.51643e-06
1.08344e-06
2.23933e-05
9.85769e-06
5.52571e-06
0.00015226
7.31068e-07
-9.6905e-07
9.40812e-07
-3.10782e-07
-1.6482e-07
-3.01263e-06
-1.51809e-07
-1.70264e-06
7.6147e-06
-7.29014e-06
0.000248469
6.42655e-07
2.3458e-06
1.89637e-06
4.01769e-06
1.16822e-06
1.78639e-06
0.000330319
-1.78484e-06
-8.26192e-07
3.24834e-07
-4.90887e-07
1.32339e-07
1.32703e-06
4.46731e-07
-4.76458e-05
-2.0055e-06
2.33058e-06
4.8489e-05
-7.31002e-06
-1.44912e-06
1.57098e-06
7.18817e-06
-1.10413e-06
-4.81651e-05
-1.36912e-06
2.97531e-06
-3.32874e-07
4.79959e-05
1.0867e-05
7.738e-06
0.000241445
-4.8277e-06
-3.96685e-06
-3.00684e-06
-2.76392e-06
5.60264e-06
-5.32117e-06
0.00027242
-7.64328e-07
-3.48055e-06
0.000272431
4.42738e-08
-6.08492e-08
4.81114e-07
4.69897e-07
-5.51648e-07
5.13608e-07
-5.48381e-05
-1.42778e-06
8.98558e-07
-1.67085e-06
5.62738e-05
-3.49075e-05
-2.28369e-06
3.35955e-06
3.43844e-06
3.1088e-05
-6.94727e-07
6.664e-06
2.70662e-06
0.000217146
-4.14935e-06
-5.04413e-06
-2.73747e-06
-4.5893e-06
1.71536e-06
2.80407e-06
2.01563e-06
-1.18199e-06
-3.02541e-08
0.000255088
-1.18956e-06
1.91722e-06
-8.71566e-07
-5.15801e-07
3.03907e-07
-3.04482e-07
-8.37798e-05
-5.37022e-07
-1.38032e-06
8.10346e-05
-5.53763e-05
1.17725e-06
4.80218e-07
5.37188e-05
-3.0781e-05
-6.07044e-06
7.31899e-06
3.22391e-05
-3.78662e-05
-4.1967e-06
5.21447e-06
-2.22765e-06
3.90458e-05
-5.25996e-05
2.7786e-06
-4.10452e-06
5.39256e-05
-4.91046e-06
5.12268e-07
-6.40176e-07
5.03837e-06
-1.00486e-05
9.64996e-07
1.30962e-07
8.95267e-06
-2.11392e-07
-2.07897e-07
-1.23412e-05
1.12027e-06
-5.10538e-07
1.21508e-05
-1.83174e-06
-1.93928e-05
-5.39604e-07
7.75057e-07
2.1796e-07
2.07711e-05
-6.19165e-05
2.42873e-06
-4.56376e-07
-6.13783e-07
6.25905e-05
-2.03256e-06
-2.21235e-07
7.83939e-07
-2.16848e-05
-5.27801e-07
7.58601e-07
2.08913e-05
1.09243e-05
7.46952e-06
0.000138046
6.14828e-07
-1.40165e-06
6.41111e-07
-1.01203e-06
-7.22752e-07
-1.98175e-06
-2.75508e-07
-4.23548e-08
8.17214e-06
-6.01579e-06
0.000249261
4.74459e-07
2.36359e-06
1.41197e-06
3.7259e-06
1.23545e-06
1.65559e-06
0.000334957
-1.33728e-06
-5.94344e-07
7.77031e-07
-1.81352e-07
1.39231e-07
1.36945e-06
4.70766e-07
-4.93476e-05
-1.65433e-06
2.07968e-06
5.01577e-05
-7.3424e-06
-2.57928e-06
2.17597e-06
7.74572e-06
-2.17537e-07
-4.82222e-05
-2.20877e-06
2.37381e-06
5.26633e-07
4.7748e-05
1.26139e-05
9.22643e-06
0.00024182
-4.77774e-06
-4.65328e-06
-2.5972e-06
-2.71782e-06
7.68094e-06
-4.15173e-06
0.000275489
-5.85303e-08
-3.46645e-06
0.00028272
8.37025e-07
4.78263e-07
1.27626e-06
1.35974e-07
-5.92109e-07
4.37041e-07
-5.82621e-05
-1.56533e-06
1.13512e-06
-1.43776e-06
6.00716e-05
-2.87402e-05
-4.28823e-06
3.34294e-06
3.35801e-06
2.75472e-05
-1.21974e-06
7.52235e-06
2.65596e-06
0.00022409
-4.23653e-06
-4.09986e-06
-2.58558e-06
-3.48724e-06
1.91202e-06
2.48848e-06
2.11312e-06
3.1811e-08
4.30204e-08
0.00025723
-1.10382e-06
2.82513e-06
-2.63683e-07
-3.93936e-07
3.57781e-07
-2.68332e-07
-8.28454e-05
7.11445e-07
-1.52029e-06
8.02196e-05
-5.24661e-05
7.25344e-07
3.78838e-07
5.13619e-05
-3.34011e-05
-5.1181e-06
6.79689e-06
3.43783e-05
-4.06418e-05
-3.89804e-06
4.95159e-06
-2.1129e-06
4.17441e-05
-5.53076e-05
1.92139e-06
-3.24443e-06
5.66306e-05
-5.19459e-06
3.03288e-07
-5.14034e-07
5.40534e-06
-8.05315e-06
8.96836e-07
-2.86593e-07
7.4429e-06
-1.9253e-07
-2.39253e-07
-1.19528e-05
1.08993e-06
-1.33609e-07
1.14282e-05
-2.03176e-06
-2.22361e-05
-1.88445e-07
2.79196e-07
7.70812e-07
2.34063e-05
-6.35327e-05
2.23134e-06
-8.96621e-07
-7.66247e-07
6.43662e-05
-1.40196e-06
-6.83222e-07
-6.27077e-08
-2.04044e-05
8.65082e-08
1.44926e-06
1.96146e-05
8.6049e-06
1.09495e-05
0.000124749
-5.21172e-07
-2.64153e-06
-1.28375e-06
-2.23948e-06
4.06683e-09
-4.65135e-07
4.50983e-07
4.38905e-07
7.96393e-06
-5.5737e-06
0.000250173
-1.86193e-07
1.91437e-06
5.4106e-07
3.03349e-06
1.19553e-06
1.63252e-06
0.000338642
-1.03093e-06
-3.28125e-07
9.53725e-07
6.92518e-08
8.82631e-08
1.27725e-06
4.21556e-07
-5.09747e-05
-1.20884e-06
1.72885e-06
5.16502e-05
-8.2163e-06
-2.6249e-06
2.25432e-06
8.58688e-06
7.41104e-07
-4.68177e-05
-3.29341e-06
7.24454e-07
3.73972e-06
4.49058e-05
1.37336e-05
1.10288e-05
0.000239648
-4.09914e-06
-4.13742e-06
-1.68406e-06
-1.72019e-06
8.48196e-06
-3.77761e-06
0.000278944
4.72403e-07
-3.41849e-06
0.000291204
1.52161e-06
1.0471e-06
1.85932e-06
1.78724e-07
-5.08483e-07
4.78779e-07
-6.22934e-05
-1.46668e-06
1.41624e-06
-1.44164e-06
6.42579e-05
-2.77372e-05
-4.6027e-06
2.9533e-06
4.1437e-06
2.89165e-05
-3.67358e-06
8.0873e-06
2.43783e-06
0.000230253
-3.85259e-06
-3.18876e-06
-2.10001e-06
-2.8164e-06
1.86083e-06
2.40206e-06