/*--------------------------------*- C++ -*----------------------------------*\
| =========                 |                                                 |
| \\      /  F ield         | OpenFOAM: The Open Source CFD Toolbox           |
|  \\    /   O peration     | Version:  5.x                                   |
|   \\  /    A nd           | Web:      www.OpenFOAM.org                      |
|    \\/     M anipulation  |                                                 |
\*---------------------------------------------------------------------------*/
FoamFile
{
    version     2.0;
    format      ascii;
    class       volVectorField;
    location    "2";
    object      U;
}
// * * * * * * * * * * * * * * * * * * * * * * * * * * * * * * * * * * * * * //

dimensions      [0 1 -1 0 0 0 0];

internalField   nonuniform List<vector> 
10571
(
(0.660925 0.746875 1.46126)
(-0.00938384 0.174006 0.881744)
(0.6393 0.877998 1.2483)
(1.00181 1.06159 1.90163)
(0.11328 0.271062 1.5114)
(0.684021 0.771777 1.29546)
(3.29848 3.41274 3.88365)
(2.39034 3.07441 4.9048)
(-0.491682 1.85716 4.32678)
(-0.132672 0.171715 0.682466)
(0.279155 0.374075 1.12786)
(2.09329 1.24037 2.76723)
(3.14469 2.07357 4.45916)
(1.87425 1.00152 4.19252)
(-0.196239 0.836415 3.17751)
(-0.255432 0.507198 1.92907)
(0.676288 0.144146 1.36534)
(2.66837 -0.982844 5.10073)
(0.352466 -0.0292409 2.69701)
(0.0972169 0.345516 3.61777)
(-0.0867754 0.535026 1.44318)
(0.777307 0.408177 1.65078)
(-0.312476 1.02567 3.16264)
(0.142595 -0.0567533 2.84847)
(0.0575445 0.0888307 0.187326)
(0.08855 0.164681 0.527599)
(0.442607 0.568637 0.747612)
(-2.3863 2.1025 4.246)
(-0.555373 1.06073 2.43735)
(0.314103 0.439106 0.811672)
(-0.00532792 -0.0301314 1.49916)
(0.0418482 -0.196955 2.65433)
(0.555531 0.233096 2.64799)
(0.170847 0.300805 0.599772)
(0.136729 0.229329 0.623319)
(-0.212259 0.159989 1.67691)
(0.10368 0.551403 3.01194)
(1.02551 1.07776 3.1786)
(1.2021 1.37513 3.0662)
(0.666351 1.04345 2.91341)
(0.0203641 -0.120689 0.993386)
(0.175951 1.14348 3.53821)
(0.421423 1.02628 1.95871)
(1.83089 1.4608 5.52262)
(0.365367 -0.00697843 4.2616)
(-0.515346 1.42424 3.36622)
(-0.849552 1.1938 3.21078)
(0.326163 -0.504415 1.54767)
(-0.0554392 0.0124942 -0.188424)
(0.0236496 0.055359 -0.254389)
(-0.338815 0.259739 1.43842)
(-0.627034 0.278707 1.60636)
(-0.00831389 0.125054 0.205055)
(0.119796 0.519748 1.235)
(-0.951339 -0.161437 4.00978)
(-0.28832 -0.522039 4.47478)
(0.367074 0.0835494 2.08293)
(0.135289 0.101631 0.56065)
(0.00016725 -0.04734 -0.270465)
(-0.230687 -0.00623459 2.30054)
(-0.699328 0.0660033 3.66567)
(0.227922 0.498677 2.57692)
(0.728927 0.47299 3.33144)
(0.733648 0.265942 3.69933)
(-0.249887 -0.996227 1.17117)
(-0.0071528 0.176055 3.06878)
(0.0966545 0.765924 1.90885)
(1.57182 0.790142 6.35452)
(0.789036 -0.215795 5.70663)
(-0.839382 0.645708 3.695)
(-0.681222 0.857296 3.98709)
(0.12775 0.0658172 0.452698)
(0.228618 -0.0183114 0.162887)
(0.0323847 -0.0720099 -0.338093)
(-0.521662 -0.866999 1.56736)
(0.636798 -1.20506 2.50119)
(0.0751012 -0.421399 1.23708)
(-0.506693 0.332005 1.58183)
(-0.293417 0.161209 1.64895)
(0.128969 -0.143614 1.48723)
(0.202605 -0.0226171 2.43539)
(-0.0816894 -0.814965 1.49405)
(-0.0074593 -0.0534143 -0.0865704)
(-0.015806 -0.131144 3.042)
(-0.316041 0.196524 3.13074)
(0.126291 0.263418 1.41075)
(-0.0668465 -0.134934 2.86199)
(-0.106755 -0.369748 2.76836)
(-0.34255 -0.285865 1.49418)
(0.0559538 -0.614432 3.04654)
(0.347724 0.542802 1.69633)
(0.726306 0.59162 5.34391)
(0.534655 -0.279516 8.17607)
(-0.557432 -0.48769 3.63473)
(0.46149 0.216056 4.62743)
(0.11804 0.0834551 0.637425)
(1.02061 -0.122427 1.09892)
(-0.0432572 -0.468565 0.45688)
(-0.170581 -0.640519 0.889237)
(0.870751 -0.292211 1.76615)
(0.326048 0.109163 1.02921)
(-0.66872 0.341431 2.1959)
(0.389721 0.0620421 1.37973)
(0.289219 0.0514258 2.771)
(-0.290527 0.221158 2.46931)
(-0.457755 -0.782207 1.58197)
(-0.00280564 0.0358616 0.0618218)
(-0.0617991 -0.0146259 3.95862)
(0.342428 -0.0749324 2.62101)
(0.408683 -0.209651 2.11357)
(-0.819357 -0.551158 3.00764)
(-0.330169 -0.285404 1.29528)
(0.193968 0.065478 2.18176)
(0.0587734 -0.590991 2.22361)
(0.254818 -0.092856 1.38865)
(0.206208 0.795571 4.85189)
(0.0970194 -0.123052 9.37016)
(-0.460851 -0.462748 2.27056)
(1.55121 -0.467035 5.68655)
(-0.0568269 -0.0835302 1.28763)
(0.630471 -0.0620661 1.5846)
(0.235782 -0.149819 1.08076)
(0.00704206 0.195717 0.930063)
(0.326019 0.00572146 1.52865)
(0.472125 -0.0244362 1.44319)
(0.218071 -0.494436 1.78775)
(0.324472 0.0218933 1.6728)
(0.126495 -0.0408102 2.15547)
(-0.136837 0.178217 2.47944)
(-0.365576 -0.246231 1.3348)
(-0.0125759 0.00725457 -0.00635502)
(0.0133442 0.040614 0.0418203)
(-0.0405072 0.107707 4.23891)
(0.468278 -0.189873 2.67827)
(0.290795 -0.191762 1.76879)
(-0.612156 -0.566161 2.78949)
(-0.257614 -0.315512 0.728442)
(-0.00617467 -0.00244575 -0.0033589)
(0.232481 0.0861221 2.03495)
(0.101563 -0.668179 2.52245)
(0.262295 -0.242305 1.63566)
(-0.100187 0.339914 3.6492)
(0.134443 0.00730194 9.32305)
(-0.280907 -0.247152 1.23855)
(1.42656 -0.867666 4.88658)
(-0.0574878 -0.244415 2.54838)
(0.321045 -0.051541 1.45986)
(0.134489 -0.07232 1.03979)
(0.00991005 0.1552 0.705791)
(0.255657 0.095983 1.25116)
(0.473736 -0.092309 1.75929)
(0.157151 -0.695346 1.48188)
(0.158698 -0.0539775 1.5511)
(0.112857 -0.102789 2.20166)
(0.00795183 0.0431987 2.66281)
(0.0456599 -0.0109884 1.32792)
(-0.57324 0.360891 -0.0107435)
(0.00492586 0.0527567 0.213178)
(-0.035822 0.0906616 3.89125)
(0.41551 -0.146294 2.62472)
(0.218431 -0.185934 1.94395)
(-0.331017 -0.370918 2.25572)
(0.187094 -0.333344 0.712217)
(0.00829125 0.455054 -0.0812852)
(0.0442312 0.351308 2.01983)
(0.0267309 -0.501347 2.34635)
(0.324673 -0.199561 1.8606)
(-0.374825 0.233631 3.36684)
(0.389433 0.121949 8.64314)
(-1.30978 0.0287984 0.171462)
(-0.0517552 0.0184158 0.86313)
(0.832514 -0.564251 3.85936)
(0.612936 -0.494773 3.76395)
(0.16952 0.011491 1.26253)
(0.0413182 0.0129863 1.0838)
(0.0307808 0.170575 0.792515)
(0.194213 0.097904 1.09444)
(0.436241 -0.149193 1.97579)
(-0.00973019 -0.442167 1.51589)
(0.140171 -0.102967 1.6769)
(0.123628 -0.0993824 2.3203)
(0.11014 0.0353739 2.87601)
(0.104388 0.119394 1.6741)
(-0.132444 0.202381 -0.290369)
(-0.200566 -0.158442 0.588785)
(-0.00632944 -0.0879537 3.30465)
(0.390283 -0.0498553 2.4052)
(0.25906 -0.211494 2.27092)
(-0.1146 -0.312567 2.2495)
(0.0453741 -0.0530117 0.853613)
(0.0900806 0.335242 0.171227)
(-0.13184 0.486016 2.09025)
(0.0537575 -0.141302 1.81003)
(0.239799 -0.10648 1.92845)
(-0.416249 0.214009 3.37545)
(0.242447 0.0112797 7.6805)
(0.850966 0.170905 0.719855)
(0.0802717 0.192296 0.873766)
(0.249655 -0.191314 2.45318)
(0.90162 -0.537289 4.43736)
(0.154409 0.062046 0.833409)
(-0.0143461 0.0214684 1.06959)
(-0.00438813 0.136924 0.763262)
(0.139018 0.0605877 0.980808)
(0.366885 -0.172206 2.12295)
(-0.0877134 -0.220014 1.51889)
(0.182622 -0.021017 1.80623)
(0.110478 -0.0935253 2.36988)
(0.113679 0.102249 3.08257)
(0.0691861 0.200126 1.9177)
(0.0657726 -0.368305 -0.446696)
(-0.0314152 -0.0494611 1.08022)
(-0.0307585 -0.129503 2.76762)
(0.367322 0.0463811 2.42787)
(0.247205 -0.174555 2.44966)
(-0.131153 -0.35691 2.22775)
(-0.242049 0.0124851 1.23296)
(0.182848 -0.319019 0.336603)
(-0.248799 0.440641 2.25568)
(0.042239 -0.0969495 1.89491)
(0.0301947 -0.0108193 2.12842)
(-0.512613 0.189998 3.66529)
(-0.0605836 -0.258715 7.07034)
(0.162772 0.181784 1.0991)
(0.0402361 -0.0106063 1.94663)
(0.823474 -0.525643 4.67022)
(-0.093554 -0.00731336 0.742158)
(-0.0454469 0.0323963 1.04808)
(-0.0475666 0.126156 0.71559)
(0.161481 -0.0235637 0.852082)
(0.313784 -0.16586 2.22573)
(-0.0729426 -0.109014 1.56438)
(0.1759 0.0429025 1.77139)
(0.0645673 -0.107072 2.41069)
(0.0866632 0.0995372 3.10203)
(-0.0147399 0.156558 1.96853)
(-0.0326893 0.072336 1.18644)
(0.0193575 0.00287431 2.56234)
(0.28209 0.0984344 2.44403)
(0.146434 -0.132801 2.53603)
(-0.0987346 -0.390997 2.3308)
(-0.565488 0.0364529 1.78899)
(-0.0376786 0.275898 2.21899)
(0.0431138 -0.0649015 1.88535)
(-0.246985 -0.0671677 2.37238)
(-0.585135 0.129043 3.91372)
(0.136764 -0.221787 6.68514)
(0.270374 0.105164 1.1763)
(0.0891262 0.00204859 1.49135)
(0.68489 -0.453292 4.78894)
(-0.266666 -0.0106075 0.888954)
(-0.0483289 0.0326207 1.0452)
(-0.017899 0.131211 0.67449)
(0.135424 -0.0418176 0.69927)
(0.258745 -0.140283 2.29225)
(-0.0427778 -0.0898023 1.52496)
(0.143721 0.0876208 1.70033)
(0.0613288 -0.128793 2.44863)
(0.111242 0.111833 3.23859)
(0.0374272 0.207587 2.11292)
(-0.0223614 0.0608525 1.23422)
(0.0888132 0.0494731 2.38683)
(0.262524 0.144096 2.36604)
(0.0978723 -0.13815 2.57151)
(-0.079109 -0.288583 2.38598)
(-0.314615 0.0907992 1.90805)
(0.102277 0.220226 2.05426)
(0.075342 -0.0265138 1.92211)
(-0.254646 -0.115076 2.50148)
(-0.531632 -0.0188704 3.76706)
(0.284257 -0.281549 5.98527)
(0.338108 0.0958735 1.17907)
(0.0163468 0.00565938 1.41202)
(0.499875 -0.377814 4.75549)
(-0.319372 0.0241651 0.873524)
(-0.0333349 0.063348 0.991693)
(0.000550412 0.0992253 0.653143)
(0.0454502 0.0153586 0.624791)
(0.211076 -0.122042 2.3296)
(-0.0270623 0.0200213 1.313)
(0.138626 0.0763895 1.69286)
(0.0939984 -0.139835 2.48805)
(0.125587 0.119609 3.37195)
(0.0610916 0.219314 2.24362)
(-0.0152891 0.0142609 1.21341)
(0.117237 0.0143234 2.27267)
(0.254884 0.155075 2.37371)
(0.0777186 -0.155446 2.63836)
(-0.0376139 -0.0440662 2.52397)
(-0.233333 0.0811105 1.96716)
(0.147792 0.230867 1.96249)
(0.12214 0.0413191 2.04488)
(-0.133175 -0.0861966 2.57404)
(-0.328699 -0.247927 3.75232)
(0.181652 -0.189211 5.67902)
(0.393392 0.115221 1.26053)
(0.130098 -0.009586 1.40887)
(0.383387 -0.270404 4.63947)
(-0.268357 0.0115964 0.756788)
(-0.055196 0.0917877 0.870772)
(0.0271652 0.0147481 0.601748)
(-0.020738 0.0603258 0.65256)
(0.188598 -0.112782 2.34975)
(-0.0508259 0.157197 1.10924)
(0.154551 0.0544828 1.68039)
(0.105862 -0.132898 2.49878)
(0.123771 0.108456 3.42087)
(0.0540012 0.193554 2.33016)
(-0.00134006 0.122486 1.11513)
(0.154696 0.0605047 2.16211)
(0.253505 0.14701 2.39881)
(0.0791324 -0.157865 2.70526)
(0.0111925 -0.0323983 2.70309)
(-0.145774 0.0507504 2.06673)
(0.199961 0.184683 1.64621)
(0.19116 0.0844604 2.15623)
(0.00185641 -0.0392818 2.6169)
(-0.150262 -0.224055 3.61735)
(0.0533451 -0.0822941 5.31511)
(0.514293 0.178212 1.44792)
(0.321946 0.0198877 1.43627)
(0.374574 -0.226902 4.73518)
(-0.198889 -0.00966781 0.706973)
(-0.0392886 0.0273761 0.822164)
(0.0250003 0.00620155 0.554146)
(-0.0550164 0.0613085 0.75692)
(0.162185 -0.109789 2.37903)
(-0.13244 0.0173763 1.01214)
(0.222666 0.0345805 1.60005)
(0.113753 -0.122283 2.48549)
(0.131745 0.0921201 3.45031)
(0.0478289 0.164578 2.41763)
(0.0193342 0.298705 1.03047)
(0.128814 0.0414084 2.10898)
(0.26286 0.144507 2.42788)
(0.111559 -0.14178 2.74747)
(0.0555511 -0.0365449 2.84973)
(-0.0769422 0.0615256 2.1849)
(0.220316 0.190244 1.27007)
(0.222448 0.103229 2.23826)
(0.0433725 -0.0155448 2.672)
(0.00175336 -0.161915 3.58409)
(0.00635476 -0.00267789 4.94997)
(0.519515 0.207742 1.59415)
(0.30037 0.0322295 1.5149)
(0.33865 -0.209797 4.82656)
(-0.123837 -0.0319537 0.713571)
(0.0874879 -0.0498764 0.68885)
(0.0159816 0.027507 0.536845)
(-0.0860842 0.103798 0.883546)
(0.114816 -0.102371 2.43011)
(-0.04879 -0.077651 0.938451)
(0.228832 0.0794851 1.42553)
(0.134484 -0.0925966 2.4828)
(0.143724 0.0806871 3.49511)
(0.0480156 0.13227 2.50974)
(0.0220541 0.486998 1.07571)
(0.069115 0.0945588 2.11986)
(0.269537 0.161847 2.43333)
(0.155685 -0.126177 2.77214)
(0.0910079 -0.0276152 2.94192)
(-0.0322829 0.0793608 2.32873)
(0.247591 0.218232 1.08907)
(0.222098 0.132014 2.3232)
(0.0713639 0.0064724 2.69528)
(0.107403 -0.177165 3.57275)
(-0.0181072 0.0427201 4.7255)
(0.453555 0.191829 1.71528)
(0.267739 0.0283301 1.63103)
(0.255408 -0.165866 5.07896)
(-0.056776 -0.0478672 0.761488)
(0.0873892 -0.0552661 0.55873)
(0.0298723 0.0129743 0.514483)
(-0.113517 0.127487 1.00519)
(0.0519784 -0.0929961 2.49735)
(0.0882516 0.0335316 0.883727)
(0.149906 0.162197 1.30634)
(0.134541 -0.0733559 2.50271)
(0.13847 0.0701491 3.5412)
(0.0483183 0.099569 2.58838)
(0.0324541 0.449764 1.20843)
(-0.075715 0.283676 2.02259)
(0.289814 0.203734 2.42459)
(0.178273 -0.125881 2.80473)
(0.115163 -0.013109 3.01989)
(0.00653687 0.0782353 2.49552)
(0.224946 0.31976 1.09899)
(0.213933 0.150467 2.40236)
(0.0975763 0.0172684 2.71753)
(0.165079 -0.182455 3.51601)
(-0.0096226 0.0761427 4.58855)
(0.377921 0.158518 1.79925)
(0.22825 0.0083907 1.70018)
(0.17341 -0.114199 5.33637)
(-0.0135464 -0.0472592 0.811548)
(0.0702981 -0.0500303 0.491183)
(0.0603391 -0.0108179 0.444683)
(-0.109849 0.107459 1.08329)
(-0.0123194 -0.0799824 2.57307)
(-0.0520321 0.158317 0.801318)
(0.0721827 0.214318 1.18349)
(0.109427 -0.0599436 2.50702)
(0.137892 0.0580656 3.57728)
(0.0497074 0.0741935 2.64883)
(0.0233291 0.317038 1.27484)
(-0.128878 0.381127 1.82558)
(0.281987 0.253157 2.40255)
(0.177451 -0.10104 2.84159)
(0.133734 0.00318559 3.10739)
(0.0374431 0.0684409 2.66793)
(0.159841 0.443378 1.25774)
(0.214435 0.149837 2.45781)
(0.116469 0.00180313 2.72191)
(0.224621 -0.177758 3.46387)
(-0.00275128 0.0873436 4.54783)
(0.332064 0.149184 1.87269)
(0.205009 -0.00577969 1.77549)
(0.104412 -0.0813825 5.56496)
(0.00468872 -0.0420057 0.859952)
(0.0685462 -0.0512347 0.418921)
(0.0764471 0.013095 0.394588)
(-0.0871684 0.023964 1.11334)
(-0.0588464 -0.0697596 2.62635)
(-0.0797554 0.152736 0.748821)
(-0.032631 0.224503 1.03693)
(0.0770257 -0.0271276 2.51214)
(0.140635 0.0486562 3.60451)
(0.0411525 0.0524524 2.67407)
(0.0342133 0.257362 1.29323)
(-0.121255 0.34467 1.60908)
(0.23594 0.289793 2.34642)
(0.18002 -0.0680628 2.86687)
(0.14258 0.00576158 3.19006)
(0.0571426 0.0574869 2.8397)
(0.1172 0.442427 1.38438)
(0.220539 0.161146 2.5006)
(0.143005 -0.0239536 2.718)
(0.252043 -0.175036 3.41529)
(0.00409262 0.0844679 4.56314)
(0.305168 0.154861 1.96501)
(0.177033 -0.011125 1.83857)
(0.0541366 -0.0581603 5.80488)
(0.0119301 -0.036914 0.930034)
(0.0965508 -0.0868389 0.345165)
(0.120577 0.0431525 0.372494)
(-0.0118257 -0.0299924 1.08421)
(-0.0728458 -0.0651234 2.64871)
(-0.0316884 0.0675144 0.671583)
(-0.150434 0.224029 0.902884)
(0.0535896 0.00767823 2.5189)
(0.130924 0.0433071 3.62759)
(0.0319759 0.0434533 2.65979)
(0.0281655 0.185386 1.18915)
(-0.121383 0.279303 1.44432)
(0.191221 0.29027 2.3161)
(0.170526 -0.050096 2.89104)
(0.151733 -0.00136338 3.26668)
(0.0693625 0.0527554 3.00387)
(0.107505 0.363214 1.44548)
(0.218757 0.157137 2.54972)
(0.160051 -0.0558202 2.72169)
(0.25589 -0.176003 3.37876)
(0.0432717 0.0548276 4.65612)
(0.283407 0.161984 2.07035)
(0.142126 -0.00924711 1.89115)
(0.0085668 -0.0523055 5.99215)
(0.030481 -0.028416 1.00277)
(0.144462 -0.145343 0.292928)
(0.182648 0.0277211 0.370506)
(0.0905188 -0.0234798 0.996794)
(-0.0606182 -0.0655721 2.66633)
(0.0850253 -0.0374852 0.531898)
(-0.170776 0.197936 0.761256)
(0.0364328 0.0248454 2.52331)
(0.117523 0.0353957 3.64516)
(0.002374 0.0486928 2.58915)
(-0.0110512 0.124839 1.02336)
(-0.0782685 0.253265 1.43274)
(0.118054 0.298227 2.27612)
(0.153423 -0.0290258 2.93597)
(0.159247 -0.0194135 3.3364)
(0.0839337 0.0368855 3.18157)
(0.0942873 0.28313 1.46488)
(0.206802 0.143977 2.58746)
(0.161947 -0.0970246 2.72985)
(0.249967 -0.187278 3.37034)
(0.0676704 0.0243752 4.78527)
(0.248206 0.16098 2.16711)
(0.110179 -0.0040973 1.96257)
(-0.000102832 -0.0798186 6.10853)
(0.0451231 -0.0222952 1.02438)
(0.16525 -0.177275 0.286422)
(0.244884 -0.00496484 0.403333)
(0.125376 -0.0376449 0.950946)
(-0.0523649 -0.0741739 2.71707)
(0.177861 -0.194747 0.38907)
(-0.0471075 0.0897541 0.653533)
(0.0247663 0.0254663 2.5104)
(0.116018 0.0280532 3.67007)
(-0.0194239 0.0450746 2.49514)
(-0.0542804 0.00972761 0.809499)
(0.106335 0.169278 1.42503)
(0.0794561 0.318866 2.21693)
(0.145984 -0.00440588 2.97839)
(0.163732 -0.0457014 3.40284)
(0.101306 0.00681361 3.37212)
(0.103923 0.230251 1.44411)
(0.189296 0.15086 2.61771)
(0.152094 -0.136234 2.74199)
(0.239992 -0.223166 3.38201)
(0.0958275 -0.014221 4.93033)
(0.200485 0.157645 2.24223)
(0.0883784 -0.00226003 2.0171)
(0.0145092 -0.120281 6.13062)
(0.0451202 -0.0193728 0.987988)
(0.14526 -0.162396 0.286583)
(0.235793 0.00680538 0.500893)
(0.101524 -0.0585607 0.96858)
(-0.0821687 -0.100711 2.79696)
(0.205087 -0.246567 0.298993)
(0.141038 -0.0880698 0.59582)
(0.00239244 0.0148674 2.50317)
(0.111776 0.0120863 3.70261)
(-0.0313236 0.0121424 2.42397)
(-0.0677812 -0.0663045 0.809388)
(0.19264 0.203031 1.25219)
(0.0719777 0.304605 2.19185)
(0.102759 0.000860366 3.00925)
(0.161182 -0.0740269 3.47209)
(0.120451 -0.0400333 3.56291)
(0.0915904 0.131501 1.42467)
(0.160954 0.137562 2.6505)
(0.141539 -0.174807 2.75525)
(0.222352 -0.28329 3.38131)
(0.129117 -0.0707315 5.08006)
(0.154741 0.144667 2.30079)
(0.0678059 -0.00607688 2.06065)
(0.0835757 -0.158561 6.04841)
(-0.00989263 -0.0364629 0.934273)
(0.138541 -0.147796 0.306587)
(0.0588383 0.0352343 0.672631)
(0.0214745 -0.160206 1.03938)
(-0.13681 -0.141396 2.89511)
(0.177338 -0.213098 0.275783)
(0.270268 -0.219403 0.586649)
(-0.0402583 -0.021074 2.50104)
(0.0991715 -0.0224767 3.72552)
(-0.0411943 -0.0392486 2.39264)
(-0.00378952 -0.228162 0.723004)
(-0.0360759 -0.0452622 0.928137)
(0.0303264 0.27092 2.13586)
(0.0696136 -0.000632073 3.0334)
(0.149295 -0.0956682 3.53061)
(0.140334 -0.105696 3.75357)
(0.0528647 0.00698176 1.39647)
(0.137862 0.115298 2.65992)
(0.132459 -0.21337 2.75837)
(0.196838 -0.305343 3.3636)
(0.175468 -0.160162 5.22068)
(0.121549 0.132843 2.3412)
(0.0679042 -0.0141326 2.10937)
(0.174643 -0.163954 5.86402)
(-0.0776213 -0.0602698 0.96422)
(-0.0717778 0.0443453 0.5406)
(-0.125167 0.0451755 0.75049)
(-0.0458555 -0.236385 1.10428)
(-0.199063 -0.196576 2.97174)
(0.146848 -0.106774 0.226215)
(0.335765 -0.261475 0.630598)
(-0.0670701 -0.0881597 2.47938)
(0.0870035 -0.0514203 3.72803)
(-0.0519476 -0.0887204 2.39976)
(-0.00481598 -0.180641 0.296086)
(0.2319 -0.200367 0.452594)
(-0.00206352 0.226139 2.0658)
(0.0682918 0.00998112 3.04478)
(0.133873 -0.107359 3.5724)
(0.155993 -0.179229 3.94644)
(0.0231064 -0.0195214 1.41329)
(0.128716 0.0974015 2.66107)
(0.126917 -0.229035 2.74724)
(0.146872 -0.282385 3.33804)
(0.219589 -0.258225 5.35191)
(0.104806 0.114279 2.35415)
(0.0898431 -0.0235593 2.15183)
(0.245242 -0.148298 5.64036)
(-0.132242 -0.0828376 1.08598)
(-0.273892 0.246199 0.791338)
(-0.247323 0.0460861 0.730998)
(-0.105047 -0.241013 1.14583)
(-0.225259 -0.24542 3.0046)
(0.167412 -0.00873335 0.190998)
(0.361606 -0.244285 0.677229)
(-0.0786138 -0.155793 2.47573)
(0.0676652 -0.0678195 3.72191)
(-0.0610325 -0.126369 2.4316)
(-0.000457553 -0.0879391 0.0911849)
(0.185752 -0.130338 0.198923)
(0.0256495 0.182932 2.02162)
(0.056435 0.025283 3.04436)
(0.105112 -0.111311 3.60805)
(0.163102 -0.248298 4.11896)
(-0.0610887 0.0550857 1.48799)
(0.112801 0.0734413 2.66999)
(0.124438 -0.223901 2.73613)
(0.0759273 -0.226429 3.30518)
(0.245294 -0.335836 5.44962)
(0.0993271 0.0941212 2.33885)
(0.113039 -0.0259887 2.17813)
(0.274035 -0.137508 5.42127)
(-0.170652 -0.0853514 1.2012)
(-0.370952 0.342173 0.923676)
(-0.269717 0.00843067 0.679914)
(-0.161067 -0.185817 1.17273)
(-0.21653 -0.262986 2.9901)
(0.167353 0.113029 0.237849)
(0.36355 -0.233901 0.736162)
(-0.117658 -0.181549 2.50024)
(0.0348943 -0.0767287 3.71849)
(-0.0740821 -0.157352 2.48472)
(-0.0187244 -0.087884 0.00921512)
(0.133556 -0.100247 0.105195)
(0.0349799 0.122239 2.0453)
(0.0341703 0.0314144 3.04565)
(0.0697934 -0.118002 3.62917)
(0.157163 -0.29764 4.25505)
(-0.0628749 0.0678374 1.49177)
(0.111095 0.0395478 2.68908)
(0.115172 -0.223557 2.73046)
(0.0192853 -0.195298 3.2763)
(0.245494 -0.376038 5.48384)
(0.115056 0.069462 2.29649)
(0.126684 -0.0216836 2.19533)
(0.269333 -0.124263 5.21485)
(-0.175444 -0.0822967 1.29017)
(-0.392914 0.367856 0.99726)
(-0.228373 -0.0857182 0.683175)
(-0.16819 -0.126214 1.1893)
(-0.183679 -0.243157 2.96578)
(0.163555 0.220356 0.323958)
(0.350658 -0.283367 0.804775)
(-0.16012 -0.191317 2.54055)
(0.00180814 -0.0751114 3.71492)
(-0.0957343 -0.174412 2.54047)
(-0.034474 -0.0892125 0.0302608)
(0.0910123 -0.099235 0.10099)
(0.094708 -0.0160499 2.05629)
(0.0195587 0.0196128 3.04324)
(0.0406764 -0.131194 3.64522)
(0.143408 -0.328367 4.35173)
(-0.0883652 -0.0262443 1.38579)
(0.146622 0.010086 2.68868)
(0.0985931 -0.211476 2.72462)
(-0.02175 -0.17947 3.25608)
(0.249567 -0.396304 5.47128)
(0.158332 0.0528524 2.24693)
(0.137154 -0.0148923 2.21251)
(0.250051 -0.10317 5.02442)
(-0.142124 -0.067522 1.37153)
(-0.375103 0.347305 1.05244)
(-0.206273 -0.21428 0.725572)
(-0.0997156 -0.0743776 1.22198)
(-0.15418 -0.20771 2.94573)
(0.158717 0.310646 0.402665)
(0.324483 -0.381664 0.866192)
(-0.165773 -0.211424 2.59407)
(-0.0138897 -0.0752042 3.71956)
(-0.110448 -0.192001 2.60006)
(-0.0343534 -0.0726784 0.063195)
(0.0667347 -0.00234863 0.126)
(0.158248 -0.0868065 1.97667)
(0.00501219 0.0133173 3.05277)
(0.0240041 -0.144171 3.66668)
(0.12842 -0.349333 4.41724)
(0.111774 -0.0423917 1.21321)
(0.18632 -0.0405569 2.63432)
(0.0960398 -0.197488 2.72647)
(-0.0286543 -0.180323 3.24042)
(0.253285 -0.413253 5.41876)
(0.232825 0.0447119 2.19523)
(0.148234 -0.00478243 2.25448)
(0.239488 -0.0895361 4.82056)
(-0.0808551 -0.0605074 1.43697)
(-0.347827 0.321131 1.11888)
(-0.205232 -0.305145 0.763914)
(-0.00666353 -0.037419 1.28377)
(-0.141455 -0.178177 2.93506)
(0.14761 0.370611 0.430857)
(0.269608 -0.500613 0.909741)
(-0.179155 -0.204493 2.68288)
(-0.0322232 -0.0746918 3.73429)
(-0.124853 -0.208391 2.66182)
(-0.0346215 -0.0661237 0.0802966)
(0.0603029 0.108795 0.13992)
(0.138885 -0.067329 1.92212)
(-0.0226852 0.00224956 3.08738)
(0.00626598 -0.164481 3.68756)
(0.111443 -0.36532 4.46201)
(0.0750295 0.0771128 1.01427)
(0.203212 -0.0765352 2.58932)
(0.103358 -0.195484 2.74208)
(-0.0252525 -0.193116 3.23247)
(0.247234 -0.421998 5.31634)
(0.27495 0.0760592 2.16968)
(0.166786 -0.000340847 2.31861)
(0.233898 -0.0987887 4.56006)
(-0.00811526 -0.0682439 1.54659)
(-0.316062 0.305137 1.17487)
(-0.19197 -0.366308 0.80251)
(0.0587623 -0.0602816 1.37714)
(-0.15011 -0.157789 2.94033)
(0.112879 0.412458 0.428701)
(0.178947 -0.619216 0.945941)
(-0.248269 -0.17499 2.79941)
(-0.0728476 -0.0729911 3.7554)
(-0.132089 -0.233397 2.72942)
(-0.039528 -0.0882166 0.130088)
(0.0568108 0.173714 0.180341)
(-0.00661917 -0.0635486 1.8217)
(-0.0396455 -0.0612881 3.12408)
(-0.0186511 -0.180954 3.69573)
(0.0937319 -0.378972 4.48427)
(0.0572225 0.0581135 0.846876)
(0.21415 -0.0649618 2.55794)
(0.111521 -0.190147 2.75976)
(-0.02375 -0.198066 3.22852)
(0.234271 -0.420028 5.19125)
(0.265163 0.0928109 2.15304)
(0.182103 0.00106456 2.36837)
(0.213028 -0.108576 4.26622)
(0.0176446 -0.0600822 1.68619)
(-0.309048 0.30768 1.17268)
(-0.178191 -0.393591 0.859008)
(0.0715753 -0.103697 1.51439)
(-0.188204 -0.148282 2.94154)
(0.0525301 0.449178 0.427469)
(0.113553 -0.693233 0.985405)
(-0.318001 -0.17811 2.8821)
(-0.106066 -0.0929531 3.74761)
(-0.153657 -0.25564 2.76291)
(-0.0297904 -0.046786 0.23172)
(0.0426097 0.224691 0.255646)
(-0.0768663 -0.207297 1.64779)
(-0.0234896 -0.0948267 3.1021)
(-0.0262507 -0.180688 3.69659)
(0.0820377 -0.387544 4.47763)
(-0.0151042 -0.177597 0.570113)
(0.215918 -0.00403877 2.50949)
(0.112694 -0.177444 2.75951)
(-0.0249594 -0.182165 3.23023)
(0.222837 -0.414835 5.05372)
(0.239297 0.0995067 2.15253)
(0.186208 -0.00197719 2.39421)
(0.185905 -0.111555 3.95664)
(-0.0371288 -0.0594376 1.77189)
(-0.338964 0.352664 1.06995)
(-0.210392 -0.308305 0.979701)
(-0.0134982 -0.134009 1.70074)
(-0.246513 -0.164577 2.93111)
(-0.016252 0.498176 0.439451)
(0.0944249 -0.69666 1.03477)
(-0.332513 -0.2185 2.93611)
(-0.130812 -0.100702 3.7129)
(-0.178846 -0.266132 2.77223)
(-0.00871207 0.0330347 0.308771)
(0.0341143 0.330171 0.316319)
(0.0216701 -0.373964 1.45546)
(0.0133977 -0.138006 3.04779)
(-0.024199 -0.171898 3.69411)
(0.0734995 -0.389238 4.45594)
(0.00988721 -0.0397623 0.439813)
(0.22031 0.101557 2.41076)
(0.127061 -0.151507 2.75082)
(-0.021471 -0.129985 3.24174)
(0.210954 -0.402728 4.91582)
(0.189297 0.105317 2.17578)
(0.187745 -0.000327766 2.40418)
(0.182182 -0.118518 3.65699)
(-0.0944128 -0.0586502 1.83786)
(-0.393515 0.406486 0.903913)
(-0.298196 -0.132562 1.19811)
(-0.165406 -0.130885 1.91392)
(-0.322916 -0.176536 2.88662)
(-0.084991 0.558806 0.457053)
(0.0936076 -0.632666 1.11237)
(-0.344424 -0.287964 2.99165)
(-0.152053 -0.0993819 3.68927)
(-0.222727 -0.281077 2.70328)
(-0.0014707 0.102977 0.365273)
(0.0426364 0.438967 0.36396)
(0.129176 -0.456436 1.25664)
(0.0241985 -0.159473 3.02807)
(-0.01874 -0.151206 3.69231)
(0.0599585 -0.376631 4.41636)
(0.0726539 0.115462 0.424292)
(0.2244 0.122966 2.31791)
(0.132133 -0.105894 2.74893)
(-0.0291285 -0.0700019 3.24869)
(0.19016 -0.373451 4.78746)
(0.143023 0.127735 2.23722)
(0.185573 0.00388954 2.40894)
(0.192366 -0.114993 3.42314)
(-0.153556 -0.0619254 1.86285)
(-0.433189 0.426034 0.769742)
(-0.405471 0.0303009 1.42689)
(-0.330418 -0.102395 2.11981)
(-0.452904 -0.244675 2.8061)
(-0.154732 0.614708 0.483815)
(0.0583984 -0.518108 1.21931)
(-0.39038 -0.350504 3.05039)
(-0.199634 -0.119962 3.64311)
(-0.244159 -0.204317 2.66512)
(0.00420869 0.14882 0.433621)
(0.0354874 0.524062 0.420662)
(0.181993 -0.46812 1.08425)
(0.0189966 -0.163388 2.98905)
(-0.0253989 -0.123316 3.69279)
(0.0329611 -0.344048 4.36241)
(0.115867 0.173956 0.463666)
(0.221948 0.119369 2.20349)
(0.0898773 -0.0579899 2.76004)
(-0.0431429 -0.0341812 3.25142)
(0.153126 -0.327273 4.66227)
(0.132815 0.129391 2.28093)
(0.181771 0.00841147 2.41605)
(0.197825 -0.103255 3.26344)
(-0.291566 -0.0934294 1.9032)
(-0.445891 0.423654 0.727476)
(-0.521841 0.139291 1.57909)
(-0.48974 -0.110201 2.31842)
(-0.481143 -0.257798 2.70353)
(-0.210562 0.650375 0.529816)
(-0.0462975 -0.354687 1.36777)
(-0.426586 -0.359336 3.09672)
(-0.292755 -0.101399 3.55753)
(-0.551624 -0.0880923 2.22762)
(0.00776245 0.170084 0.523657)
(0.00514437 0.570079 0.507148)
(0.200195 -0.442313 0.962102)
(-0.00267693 -0.189761 2.92809)
(-0.0443214 -0.0870598 3.69439)
(0.00428034 -0.304458 4.27905)
(0.124062 0.20024 0.528628)
(0.222358 0.0749012 2.06604)
(0.0480401 -0.0414965 2.76273)
(-0.0567654 -0.029152 3.25369)
(0.116266 -0.268844 4.52491)
(0.123173 0.103436 2.30737)
(0.176012 0.012827 2.43013)
(0.184536 -0.0974821 3.14002)
(-0.416937 -0.112931 1.99235)
(-0.432015 0.405323 0.751234)
(-0.62771 0.193343 1.6704)
(-0.572896 -0.103435 2.39598)
(-0.570902 -0.268727 2.58134)
(-0.234259 0.657953 0.60816)
(-0.20641 -0.131579 1.54678)
(-0.42491 -0.346211 3.11152)
(-0.305172 -0.0891451 3.52865)
(-0.347547 -0.132972 1.60047)
(0.00823799 0.173175 0.629131)
(-0.0478535 0.583022 0.622644)
(0.179185 -0.380305 0.926206)
(-0.0364315 -0.221676 2.91173)
(-0.0577786 -0.0795789 3.70815)
(-0.0171893 -0.283788 4.18343)
(0.112812 0.20814 0.616086)
(0.219219 -0.0568242 1.89749)
(0.0351741 -0.0531686 2.75857)
(-0.0619166 -0.0406218 3.26953)
(0.0939169 -0.221863 4.37488)
(0.13155 0.101097 2.30398)
(0.164895 0.0102972 2.44592)
(0.165659 -0.10161 2.98437)
(-0.45382 -0.116721 2.08477)
(-0.391703 0.359905 0.818063)
(-0.673728 0.231509 1.68713)
(-0.55311 -0.0897572 2.39353)
(-0.497938 -0.19552 2.46733)
(-0.220194 0.618847 0.732428)
(-0.361996 0.103339 1.71742)
(-0.411742 -0.330652 3.10061)
(-0.302773 -0.104619 3.4822)
(-0.126677 -0.183148 1.31242)
(0.00804261 0.165885 0.738633)
(-0.107584 0.554554 0.765062)
(0.095451 -0.245006 0.996272)
(-0.0741884 -0.235903 2.91486)
(-0.0802941 -0.0893247 3.72139)
(-0.0314299 -0.259839 4.09293)
(0.100076 0.210029 0.724917)
(0.211251 -0.184869 1.70902)
(0.0356913 -0.0790471 2.74728)
(-0.0744684 -0.0432107 3.29353)
(0.0833792 -0.196031 4.22586)
(0.144142 0.111759 2.27582)
(0.167907 0.00986737 2.44808)
(0.169711 -0.0919548 2.80393)
(-0.412174 -0.0757536 2.17417)
(-0.325349 0.295727 0.909819)
(-0.629735 0.240357 1.65127)
(-0.427495 -0.0761426 2.26157)
(-0.196694 0.0250105 2.10435)
(-0.160486 0.50836 0.887731)
(-0.446427 0.284678 1.84038)
(-0.404813 -0.280118 3.06134)
(-0.325081 -0.106542 3.37679)
(-0.0277194 -0.156557 1.21442)
(0.00609643 0.159572 0.839629)
(-0.162138 0.479486 0.921942)
(-0.0448498 -0.0297424 1.17387)
(-0.0889034 -0.231181 2.89978)
(-0.116325 -0.0864179 3.71467)
(-0.0451846 -0.214311 4.01284)
(0.0980699 0.208552 0.836924)
(0.223114 -0.211579 1.54954)
(0.0608551 -0.12047 2.71401)
(-0.0779558 -0.0357672 3.31222)
(0.0801362 -0.198783 4.07539)
(0.128962 0.138608 2.19776)
(0.187776 0.00701831 2.44459)
(0.177626 -0.0830015 2.66696)
(-0.321675 -0.0293407 2.09149)
(-0.228189 0.213461 0.992853)
(-0.424054 0.125337 1.53104)
(-0.222436 -0.00236336 2.11227)
(0.131904 0.200718 1.89622)
(-0.119739 0.347339 0.998554)
(-0.461241 0.409824 1.92783)
(-0.383537 -0.226561 3.00979)
(-0.33884 -0.0978618 3.26456)
(0.0327277 -0.0873857 1.25173)
(0.00364166 0.159747 0.928046)
(-0.194694 0.380145 1.07806)
(-0.149869 0.144316 1.35568)
(-0.0805253 -0.227324 2.88938)
(-0.14151 -0.0587346 3.70052)
(-0.0653616 -0.139429 3.9462)
(0.103282 0.214455 0.937326)
(0.260111 -0.172045 1.45308)
(0.0978408 -0.167519 2.6936)
(-0.0736201 -0.0269597 3.32765)
(0.0828086 -0.206159 3.93612)
(0.112614 0.148642 2.12104)
(0.228492 0.00857664 2.44092)
(0.183912 -0.0753543 2.59443)
(-0.140314 -0.0129746 1.90997)
(-0.127865 0.14209 1.02296)
(-0.24731 0.068904 1.41056)
(-0.0565013 -0.0436682 2.0265)
(0.309557 0.171242 1.80815)
(-0.113406 0.202801 1.03671)
(-0.42275 0.48402 1.96772)
(-0.32377 -0.187195 2.95274)
(-0.314906 -0.093099 3.19499)
(0.0676893 0.00181634 1.37899)
(0.00369772 0.164373 1.00253)
(-0.169315 0.293773 1.21868)
(-0.207073 0.237531 1.53367)
(-0.0605876 -0.218381 2.89085)
(-0.153463 -0.0322791 3.70699)
(-0.102712 -0.0428578 3.92657)
(0.111934 0.221616 1.03349)
(0.291549 -0.1237 1.42985)
(0.129943 -0.204444 2.67495)
(-0.0665631 -0.0191408 3.35301)
(0.0821361 -0.196729 3.82864)
(0.100425 0.128422 2.04003)
(0.264834 0.0111043 2.44084)
(0.186557 -0.0770374 2.58705)
(-0.107623 -0.0102163 1.89947)
(-0.0783512 0.112241 1.00434)
(-0.140035 0.0840317 1.33175)
(0.0179028 -0.164553 1.83803)
(0.336776 0.121665 1.77243)
(-0.095968 0.11318 1.03669)
(-0.369687 0.484191 1.98956)
(-0.245725 -0.126781 2.92621)
(-0.265952 -0.0833699 3.16065)
(0.0766156 0.103087 1.55195)
(0.00613557 0.172479 1.06021)