/*--------------------------------*- C++ -*----------------------------------*\
| =========                 |                                                 |
| \\      /  F ield         | OpenFOAM: The Open Source CFD Toolbox           |
|  \\    /   O peration     | Version:  5.x                                   |
|   \\  /    A nd           | Web:      www.OpenFOAM.org                      |
|    \\/     M anipulation  |                                                 |
\*---------------------------------------------------------------------------*/
FoamFile
{
    version     2.0;
    format      ascii;
    class       volVectorField;
    location    "2";
    object      Us;
}
// * * * * * * * * * * * * * * * * * * * * * * * * * * * * * * * * * * * * * //

dimensions      [0 1 -1 0 0 0 0];

internalField   nonuniform List<vector> 
10571
(
(0.147525 0.0533931 -0.233509)
(0.0152117 0.0326304 -0.201593)
(0.203485 0.165868 -0.164457)
(0.288059 0.263578 -0.0335912)
(0.187068 0.219719 -0.0897068)
(0.139378 0.210848 -0.147446)
(0.387914 0.362595 0.0821671)
(0.493114 0.392271 0.186115)
(0.497131 0.424444 0.143266)
(0.00921602 0.0869948 -0.00584523)
(0.0399039 0.168631 -0.135837)
(0.274451 0.303626 0.0760328)
(0.450848 0.448259 0.166673)
(0.35062 0.340665 0.139832)
(0.287071 0.322801 0.132508)
(-0.00680174 0.133569 -0.030943)
(0.226837 0.160079 -0.0132203)
(0.53882 0.353978 0.184929)
(0.191413 0.271806 0.183542)
(-0.119024 0.292778 0.0559915)
(-0.0805875 0.157856 -0.00112387)
(0.280251 0.0913561 -0.00685316)
(0.204399 0.191637 0.20316)
(-0.128368 0.142199 0.146607)
(0.0128077 0.00929675 -0.455192)
(0.0163862 0.0407371 -0.416071)
(0.114781 0.134546 -0.352076)
(0.0430707 0.146836 -0.0693777)
(0.0762638 0.073429 -0.280863)
(0.0915157 0.155349 -0.294193)
(0.201026 0.218525 0.127309)
(0.300795 0.28297 0.292328)
(0.161825 0.226627 0.275581)
(0.0683309 0.184385 0.0138571)
(0.0280532 0.0790303 -0.344513)
(0.141655 0.199559 0.117102)
(0.275967 0.310146 0.282819)
(0.350479 0.440567 0.328038)
(0.115791 0.265142 0.154344)
(0.0445072 0.0642513 -0.146211)
(0.0732329 -0.0405568 -0.118797)
(0.398142 0.361731 0.38861)
(0.366915 0.505539 0.357838)
(0.159739 0.443597 0.214629)
(0.0776329 0.0699975 -0.116303)
(-0.00354175 0.0646373 -0.0849112)
(0.260843 0.389159 0.325173)
(0.174476 0.162067 -0.0172626)
(0.00415758 0.00949865 -0.541925)
(-0.0109575 0.0128106 -0.560443)
(-0.0421513 0.0218608 -0.419909)
(-0.0747156 0.0155524 -0.304095)
(0.0309919 0.0676814 -0.488165)
(-0.0356759 0.0610908 -0.425466)
(0.0341429 0.185786 0.2129)
(0.148907 0.25932 0.388399)
(0.164804 0.199956 0.289938)
(0.0798755 0.152054 -0.026658)
(0.0012103 0.0209331 -0.612334)
(0.044678 0.0139945 0.13143)
(0.182323 0.215648 0.332321)
(0.188092 0.394168 0.401223)
(0.0721521 0.149725 0.0828671)
(0.00191344 -0.0351295 -0.199151)
(-0.0274109 -0.0786877 -0.314452)
(0.308393 0.344277 0.432897)
(0.317646 0.488254 0.381786)
(0.198909 0.414157 0.282615)
(0.0453471 0.0685771 0.0161002)
(-0.0936749 -0.0450019 -0.0986187)
(0.299836 0.457201 0.399035)
(0.159644 0.0327775 0.126611)
(0.00985616 -0.00753535 -0.639273)
(-0.000567963 -0.0310009 -0.52455)
(-0.0776688 -0.0478701 -0.275416)
(0.0933449 -0.0797917 -0.316772)
(0.0579924 0.0373414 -0.601423)
(-0.109354 0.0629762 -0.281668)
(-0.0581889 0.0112963 -0.177475)
(0.0462447 0.0230269 -0.0720122)
(0.121255 0.0917773 0.0516864)
(0.0489593 0.0372656 -0.259724)
(0.00697782 0.0115155 -0.547421)
(-0.209382 0.224702 0.0671355)
(0.0594732 0.158114 0.23851)
(0.0650496 0.265878 0.244857)
(0.0868578 0.119495 0.0662962)
(-0.0329636 -0.0670747 -0.22798)
(-0.0808932 -0.0164418 -0.178036)
(0.101594 0.123943 0.276749)
(0.212976 0.397131 0.309679)
(0.185372 0.439595 0.311839)
(0.0828195 0.00204049 0.291929)
(-0.0741848 -0.0579509 -0.136406)
(0.210617 0.324676 0.414911)
(0.0882217 0.0783552 0.438636)
(0.0620385 -0.0671016 -0.556129)
(-0.00688094 -0.11197 -0.408492)
(-0.0394483 -0.105541 -0.290087)
(0.0852532 -0.0122302 -0.412145)
(-0.0115261 0.0421354 -0.564178)
(-0.198452 0.00544411 -0.182666)
(0.016232 -0.000623253 -0.282019)
(0.0947163 0.00319055 -0.243799)
(0.0652618 0.0618966 -0.0981001)
(0.0435207 0.0190437 -0.167124)
(0.00485379 0.00347313 -0.486206)
(-0.166888 -0.0794898 0.226254)
(-0.0402253 0.0250497 0.0795183)
(0.0397657 0.0132244 -0.0909769)
(0.0484487 -0.0156482 -0.0598371)
(-0.0606076 -0.0530687 -0.214546)
(0.0527113 0.0377023 -0.334993)
(-0.0861306 -0.00240003 0.0440144)
(0.0227932 0.0488905 0.0191914)
(0.0736911 0.0880384 0.0489891)
(0.00954828 -0.0389707 0.249233)
(-0.0592535 -0.00914695 -0.162011)
(0.150137 0.201426 0.339799)
(0.21672 0.0590758 0.299453)
(0 0 0)
(0.0875276 -0.126382 -0.305774)
(-0.0429465 -0.00795178 -0.462467)
(-0.0398528 0.0692439 -0.497542)
(0 0 0)
(-0.0902083 -0.0715772 -0.229971)
(0.0424762 -0.0228306 -0.216421)
(0.0705686 0.00377346 -0.300705)
(0.0598663 0.00224688 -0.0576899)
(-0.0588778 0.0264796 -0.170352)
(-0.0130007 0.007381 -0.00705637)
(0.00152876 -0.00619108 -0.371905)
(-0.196001 -0.0224153 0.262332)
(-0.0221206 0.0224055 0.0564158)
(0.0567308 0.0272699 -0.0567754)
(0.062338 -0.086961 0.0383766)
(-0.0441211 -0.0640763 -0.123247)
(-0.0146656 -0.00564158 -0.00520096)
(0.0409066 0.0460795 -0.298606)
(-0.03274 0.00343711 0.0040024)
(0.0115081 -0.0293233 -0.000916518)
(0.0974785 0.0702092 0.0873488)
(0.0330425 -0.0364932 0.524835)
(0.00796999 0.0277749 -0.160601)
(0.0878941 -0.0860612 0.216872)
(-0.0239355 -0.140355 0.435673)
(0 0 0)
(0 0 0)
(0 0 0)
(0 0 0)
(0 0 0)
(-0.0455811 -0.0845336 -0.193634)
(0.0547735 0.00405513 -0.18308)
(0.0880316 -0.0466541 -0.0706254)
(0.0655762 -0.0202779 0.04207)
(0 0 0)
(0.0610138 0.0329071 -0.172144)
(0.015505 0.0245138 -0.208555)
(-0.193359 -0.0115567 0.279034)
(0.0109172 0.0458585 0.0903683)
(0.0728976 -0.0154054 0.0312912)
(0.0507812 -0.152371 0.117937)
(0.0949014 -0.153633 0.0259602)
(-0.0263185 -0.0199234 -0.0244575)
(-0.0356122 0.0775356 -0.144466)
(0.0415429 0.0899766 -0.0166898)
(0.0482742 -0.00715048 0.0365921)
(0.0640087 -0.014376 0.108626)
(0.141822 -0.0331527 0.551047)
(0 0 0)
(0.0954585 0.0654634 -0.169942)
(0.0993533 0.0140899 0.175001)
(2.59279e-14 -9.5651e-15 4.95243e-14)
(0 0 0)
(0 0 0)
(0 0 0)
(0 0 0)
(0 0 0)
(-0.025458 -0.106662 -0.0835493)
(0.0620105 -0.0440006 -0.114922)
(0 0 0)
(0.0375913 0.043266 0.0971684)
(0.0924305 0.0373618 0.0392578)
(0 0 0)
(-0.111164 -0.00626582 -0.0574363)
(-0.122344 0.00412343 0.214187)
(0.0336974 0.0463614 0.0992829)
(0.0961092 0.0184284 0.0790754)
(0.058681 -0.168465 0.186918)
(0.109039 -0.188189 0.148625)
(0 0 0)
(-0.0733794 0.106105 0.00610018)
(0.0504729 0.0983765 0.0278486)
(0.0441777 -0.0427583 0.124827)
(0.0577171 -0.0909684 0.169899)
(0.0863698 -0.093126 0.521861)
(0 0 0)
(0.0740161 0.0737951 -0.13859)
(0.0513615 -0.0434524 0.23841)
(0.222643 -0.0843641 0.493815)
(0 0 0)
(0 0 0)
(0 0 0)
(0 0 0)
(0 0 0)
(0 0 0)
(0 0 0)
(0 0 0)
(0.0446148 0.0393245 0.0901417)
(0.0935358 0.0377662 0.0589613)
(0 0 0)
(-0.212197 0.0140946 0.187268)
(-0.0778975 0.00909968 0.178908)
(0.0465139 0.0525684 0.120066)
(0.0671643 -0.117404 -0.0118225)
(0.0659318 -0.166519 0.333764)
(0.097129 0.0818061 0.0527964)
(0 0 0)
(-0.0985084 0.132233 0.0926609)
(0.0544588 0.0486873 0.0283031)
(1.30617e-05 -0.0950245 0.188382)
(0.0251258 -0.135035 0.319221)
(0.0360265 -0.145605 0.605687)
(0.0865808 0.0498304 -0.172544)
(0.0568688 0.0126168 0.0734169)
(0.184383 -0.116509 0.522878)
(0 0 0)
(0 0 0)
(0 0 0)
(0 0 0)
(0 0 0)
(0 0 0)
(0 0 0)
(0 0 0)
(0.0743497 0.0502351 0.162347)
(0.0920689 0.0318644 0.10775)
(0 0 0)
(-0.121695 -0.0360725 0.366652)
(0.0913179 -0.0501259 -0.0865297)
(0.191975 -0.091228 -0.0970121)
(0.0715807 -0.18887 0.405141)
(0.0583394 0.0751928 0.0573397)
(-0.0571581 0.125506 0.164234)
(0.110135 0.011879 -0.210927)
(0.00167575 -0.100156 0.269292)
(0.0354565 -0.158028 0.436111)
(0.130234 -0.15949 0.613387)
(0.0865099 0.0465771 -0.235237)
(0.0197997 0.0352903 0.129365)
(0.149237 -0.059774 0.703342)
(0 0 0)
(0 0 0)
(0 0 0)
(0 0 0)
(0 0 0)
(0 0 0)
(0 0 0)
(0 0 0)
(0 0 0)
(0 0 0)
(0 0 0)
(0 0 0)
(0.133508 -0.0493571 -0.205266)
(0.123684 -0.0465801 0.00827715)
(0.0903597 -0.213406 0.284699)
(0 0 0)
(0 0 0)
(0.0966021 -0.00932866 -0.175697)
(0.033424 -0.0918205 0.402516)
(0.0460315 -0.150791 0.618543)
(0.131469 -0.172179 0.607083)
(6.14241e-15 9.58231e-15 -3.18309e-14)
(0.0612951 -0.00292612 0.108303)
(0.178987 -0.0983202 0.495859)
(0 0 0)
(0 0 0)
(0 0 0)
(0 0 0)
(0 0 0)
(0 0 0)
(0 0 0)
(0 0 0)
(0 0 0)
(0 0 0)
(0 0 0)
(0 0 0)
(0 0 0)
(0.146522 -0.0861619 -0.00564728)
(0.181028 -0.164285 0.0961599)
(0 0 0)
(0 0 0)
(0.147879 -0.0276895 -0.115186)
(0.0728717 -0.0634203 0.347526)
(0.0667984 -0.0898324 0.588914)
(2.00926e-14 -2.01375e-15 2.3275e-14)
(0.0823428 0.0332446 -0.187018)
(0.131504 0.0135535 -0.11042)
(0.0447851 -0.020301 0.848386)
(0 0 0)
(0 0 0)
(0 0 0)
(0 0 0)
(0 0 0)
(0 0 0)
(0 0 0)
(0 0 0)
(0 0 0)
(0 0 0)
(0 0 0)
(0 0 0)
(0 0 0)
(0.178168 -0.0801883 0.00790947)
(0 0 0)
(0 0 0)
(0 0 0)
(0.0761713 -0.0188113 -0.186111)
(0.159125 -0.0468217 0.0139477)
(0.19691 -0.0892887 0.0334064)
(0 0 0)
(0 0 0)
(0.112556 -0.0621843 -0.117306)
(0.146271 -0.106346 0.537096)
(0 0 0)
(0 0 0)
(0 0 0)
(0 0 0)
(0 0 0)
(0 0 0)
(0 0 0)
(0 0 0)
(0 0 0)
(0 0 0)
(0 0 0)
(0 0 0)
(0 0 0)
(0 0 0)
(0.203343 -0.0905719 0.10352)
(0 0 0)
(0 0 0)
(0.0798386 0.0729658 -0.0115842)
(0.135306 -0.0704161 -0.0147121)
(0.177287 -0.11683 0.0699246)
(0 0 0)
(0 0 0)
(0.0770352 -0.116265 -0.0666474)
(0 0 0)
(0 0 0)
(0 0 0)
(0 0 0)
(0 0 0)
(0 0 0)
(0 0 0)
(0 0 0)
(0 0 0)
(0 0 0)
(0 0 0)
(0 0 0)
(0 0 0)
(0 0 0)
(0 0 0)
(0 0 0)
(0 0 0)
(0 0 0)
(0.0798386 0.0729658 -0.0115842)
(0.158472 -0.0573128 0.0232674)
(0.105309 -0.0857135 0.0838382)
(0 0 0)
(0 0 0)
(0.15083 -0.00549416 -0.0727071)
(0 0 0)
(0 0 0)
(0 0 0)
(0 0 0)
(0 0 0)
(0 0 0)
(0 0 0)
(0 0 0)
(0 0 0)
(0 0 0)
(0 0 0)
(0 0 0)
(0 0 0)
(0 0 0)
(0 0 0)
(0.0292584 -0.200987 0.213096)
(0 0 0)
(0 0 0)
(0 0 0)
(0.103711 -0.0952262 0.0740249)
(0.0794555 -0.167751 0.107899)
(0 0 0)
(0 0 0)
(0.0727422 -0.0117995 -0.0494721)
(0 0 0)
(0 0 0)
(0 0 0)
(0 0 0)
(0 0 0)
(0 0 0)
(0 0 0)
(0 0 0)
(0 0 0)
(0 0 0)
(0 0 0)
(0 0 0)
(0 0 0)
(0 0 0)
(0 0 0)
(0 0 0)
(0 0 0)
(0 0 0)
(0 0 0)
(0.121839 -0.0899747 0.0118904)
(0 0 0)
(0 0 0)
(0 0 0)
(0 0 0)
(0.158096 -0.0704186 0.283379)
(0 0 0)
(0 0 0)
(0 0 0)
(0 0 0)
(0 0 0)
(0 0 0)
(0 0 0)
(0 0 0)
(0 0 0)
(0 0 0)
(0 0 0)
(0 0 0)
(0 0 0)
(0 0 0)
(0 0 0)
(0 0 0)
(0 0 0)
(0 0 0)
(0 0 0)
(0 0 0)
(0 0 0)
(0 0 0)
(0 0 0)
(0 0 0)
(0 0 0)
(0 0 0)
(0 0 0)
(0 0 0)
(0 0 0)
(0 0 0)
(0 0 0)
(0 0 0)
(0 0 0)
(0 0 0)
(0 0 0)
(0 0 0)
(0 0 0)
(0 0 0)
(0 0 0)
(0 0 0)
(0 0 0)
(0 0 0)
(0 0 0)
(0 0 0)
(0 0 0)
(0 0 0)
(0 0 0)
(0 0 0)
(0 0 0)
(0 0 0)
(0 0 0)
(0 0 0)
(0 0 0)
(0 0 0)
(0 0 0)
(0 0 0)
(0 0 0)
(0 0 0)
(0 0 0)
(0 0 0)
(0 0 0)
(0 0 0)
(0 0 0)
(0 0 0)
(0 0 0)
(0 0 0)
(0 0 0)
(0 0 0)
(0 0 0)
(0 0 0)
(0 0 0)
(0 0 0)
(0 0 0)
(0 0 0)
(0 0 0)
(0 0 0)
(0 0 0)
(0 0 0)
(0 0 0)
(0 0 0)
(0 0 0)
(0 0 0)
(0 0 0)
(0 0 0)
(0 0 0)
(0 0 0)
(0 0 0)
(0 0 0)
(0 0 0)
(0 0 0)
(0 0 0)
(0 0 0)
(0 0 0)
(0 0 0)
(0 0 0)
(0 0 0)
(0 0 0)
(0 0 0)
(0 0 0)
(0 0 0)
(0 0 0)
(0 0 0)
(0 0 0)
(0 0 0)
(0 0 0)
(0 0 0)
(0 0 0)
(0 0 0)
(0 0 0)
(0 0 0)
(0 0 0)
(0 0 0)
(0 0 0)
(0 0 0)
(0 0 0)
(0 0 0)
(0 0 0)
(0 0 0)
(0 0 0)
(0 0 0)
(0 0 0)
(0 0 0)
(0 0 0)
(0 0 0)
(0 0 0)
(0 0 0)
(0 0 0)
(0 0 0)
(0 0 0)
(0 0 0)
(0 0 0)
(0 0 0)
(0 0 0)
(0 0 0)
(0 0 0)
(0 0 0)
(0 0 0)
(0 0 0)
(0 0 0)
(0 0 0)
(0 0 0)
(0 0 0)
(0 0 0)
(0 0 0)
(0 0 0)
(0 0 0)
(0 0 0)
(0 0 0)
(0 0 0)
(0 0 0)
(0 0 0)
(0 0 0)
(0 0 0)
(0 0 0)
(0 0 0)
(0 0 0)
(0 0 0)
(0 0 0)
(0 0 0)
(0 0 0)
(0 0 0)
(0 0 0)
(0 0 0)
(0 0 0)
(0 0 0)
(0 0 0)
(0 0 0)
(0 0 0)
(0 0 0)
(0 0 0)
(0 0 0)
(0 0 0)
(0 0 0)
(0 0 0)
(0 0 0)
(0 0 0)
(0 0 0)
(0 0 0)
(0 0 0)
(0 0 0)
(0 0 0)
(0 0 0)
(0 0 0)
(0 0 0)
(0 0 0)
(0 0 0)
(0 0 0)
(0 0 0)
(0 0 0)
(0 0 0)
(0 0 0)
(0 0 0)
(0 0 0)
(0 0 0)
(0 0 0)
(0 0 0)
(0 0 0)
(0 0 0)
(0 0 0)
(0 0 0)
(0 0 0)
(0 0 0)
(0 0 0)
(0 0 0)
(0 0 0)
(0 0 0)
(0 0 0)
(0 0 0)
(0 0 0)
(0 0 0)
(0 0 0)
(0 0 0)
(0 0 0)
(0 0 0)
(0 0 0)
(0 0 0)
(0 0 0)
(0 0 0)
(0 0 0)
(0 0 0)
(0 0 0)
(0 0 0)
(0 0 0)
(0 0 0)
(0 0 0)
(0 0 0)
(0 0 0)
(0 0 0)
(0 0 0)
(0 0 0)
(0 0 0)
(0 0 0)
(0 0 0)
(0 0 0)
(0 0 0)
(0 0 0)
(0 0 0)
(0 0 0)
(0 0 0)
(0 0 0)
(0 0 0)
(0 0 0)
(0 0 0)
(0 0 0)
(0 0 0)
(0 0 0)
(0 0 0)
(0 0 0)
(0 0 0)
(0 0 0)
(0 0 0)
(0 0 0)
(0 0 0)
(0 0 0)
(0 0 0)
(0 0 0)
(0 0 0)
(0 0 0)
(0 0 0)
(0 0 0)
(0 0 0)
(0 0 0)
(0 0 0)
(0 0 0)
(0 0 0)
(0 0 0)
(0 0 0)
(0 0 0)
(0 0 0)
(0 0 0)
(0 0 0)
(0 0 0)
(0 0 0)
(0 0 0)
(0 0 0)
(0 0 0)
(0 0 0)
(0 0 0)
(0 0 0)
(0 0 0)
(0 0 0)
(0 0 0)
(0 0 0)
(0 0 0)
(0 0 0)
(0 0 0)
(0 0 0)
(0 0 0)
(0 0 0)
(0 0 0)
(0 0 0)
(0 0 0)
(0 0 0)
(0 0 0)
(0 0 0)
(0 0 0)
(0 0 0)
(0 0 0)
(0 0 0)
(0 0 0)
(0 0 0)
(0 0 0)
(0 0 0)
(0 0 0)
(0 0 0)
(0 0 0)
(0 0 0)
(0 0 0)
(0 0 0)
(0 0 0)
(0 0 0)
(0 0 0)
(0 0 0)
(0 0 0)
(0 0 0)
(0 0 0)
(0 0 0)
(0 0 0)
(0 0 0)
(0 0 0)
(0 0 0)
(0 0 0)
(0 0 0)
(0 0 0)
(0 0 0)
(0 0 0)
(0 0 0)
(0 0 0)
(0 0 0)
(0 0 0)
(0 0 0)
(0 0 0)
(0 0 0)
(0 0 0)
(0 0 0)
(0 0 0)
(0 0 0)
(0 0 0)
(0 0 0)
(0 0 0)
(0 0 0)
(0 0 0)
(0 0 0)
(0 0 0)
(0 0 0)
(0 0 0)
(0 0 0)
(0 0 0)
(0 0 0)
(0 0 0)
(0 0 0)
(0 0 0)
(0 0 0)
(0 0 0)
(0 0 0)
(0 0 0)
(0 0 0)
(0 0 0)
(0 0 0)
(0 0 0)
(0 0 0)
(0 0 0)
(0 0 0)
(0 0 0)
(0 0 0)
(0 0 0)
(0 0 0)
(0 0 0)
(0 0 0)
(0 0 0)
(0 0 0)
(0 0 0)
(0 0 0)
(0 0 0)
(0 0 0)
(0 0 0)
(0 0 0)
(0 0 0)
(0 0 0)
(0 0 0)
(0 0 0)
(0 0 0)
(0 0 0)
(0 0 0)
(0 0 0)
(0 0 0)
(0 0 0)
(0 0 0)
(0 0 0)
(0 0 0)
(0 0 0)
(0 0 0)
(0 0 0)
(0 0 0)
(0 0 0)
(0 0 0)
(0 0 0)
(0 0 0)
(0 0 0)
(0 0 0)
(0 0 0)
(0 0 0)
(0 0 0)
(0 0 0)
(0 0 0)
(0 0 0)
(0 0 0)
(0 0 0)
(0 0 0)
(0 0 0)
(0 0 0)
(0 0 0)
(0 0 0)
(0 0 0)
(0 0 0)
(0 0 0)
(0 0 0)
(0 0 0)
(0 0 0)
(0 0 0)
(0 0 0)
(0 0 0)
(0 0 0)
(0 0 0)
(0 0 0)
(0 0 0)
(0 0 0)
(0 0 0)
(0 0 0)
(0 0 0)
(0 0 0)
(0 0 0)
(0 0 0)
(0 0 0)
(0 0 0)
(0 0 0)
(0 0 0)
(0 0 0)
(0 0 0)
(0 0 0)
(0 0 0)
(0 0 0)
(0 0 0)
(0 0 0)
(0 0 0)
(0 0 0)
(0 0 0)
(0 0 0)
(0 0 0)
(0 0 0)
(0 0 0)
(0 0 0)
(0 0 0)
(0 0 0)
(0 0 0)
(0 0 0)
(0 0 0)
(0 0 0)
(0 0 0)
(0 0 0)
(0 0 0)
(0 0 0)
(0 0 0)
(0 0 0)
(0 0 0)
(0 0 0)
(0 0 0)
(0 0 0)
(0 0 0)
(0 0 0)
(0 0 0)
(0 0 0)
(0 0 0)
(0 0 0)
(0 0 0)
(0 0 0)
(0 0 0)
(0 0 0)
(0 0 0)
(0 0 0)
(0 0 0)
(0 0 0)
(0 0 0)
(0 0 0)
(0 0 0)
(0 0 0)
(0 0 0)
(0 0 0)
(0 0 0)
(0 0 0)
(0 0 0)
(0 0 0)
(0 0 0)
(0 0 0)
(0 0 0)
(0 0 0)
(0 0 0)
(0 0 0)
(0 0 0)
(0 0 0)
(0 0 0)
(0 0 0)
(0 0 0)
(0 0 0)
(0 0 0)
(0 0 0)
(0 0 0)
(0 0 0)
(0 0 0)
(0 0 0)
(0 0 0)
(0 0 0)
(0 0 0)
(0 0 0)
(0 0 0)
(0 0 0)
(0 0 0)
(0 0 0)
(0 0 0)
(0 0 0)
(0 0 0)
(0 0 0)
(0 0 0)
(0 0 0)
(0 0 0)
(0 0 0)
(0 0 0)
(0 0 0)
(0 0 0)
(0 0 0)
(0 0 0)
(0 0 0)
(0 0 0)
(0 0 0)
(0 0 0)
(0 0 0)
(0 0 0)
(0 0 0)
(0 0 0)
(0 0 0)
(0 0 0)
(0 0 0)
(0 0 0)
(0 0 0)
(0 0 0)
(0 0 0)
(0 0 0)
(0 0 0)
(0 0 0)
(0 0 0)
(0 0 0)
(0 0 0)
(0 0 0)
(0 0 0)
(0 0 0)
(0 0 0)
(0 0 0)
(0 0 0)
(0 0 0)
(0 0 0)
(0 0 0)
(0 0 0)
(0 0 0)
(0 0 0)
(0 0 0)
(0 0 0)
(0 0 0)
(0 0 0)
(0 0 0)
(0 0 0)
(0 0 0)
(0 0 0)
(0 0 0)
(0 0 0)
(0 0 0)
(0 0 0)
(0 0 0)
(0 0 0)
(0 0 0)
(0 0 0)
(0 0 0)
(0 0 0)
(0 0 0)
(0 0 0)
(0 0 0)
(0 0 0)
(0 0 0)
(0 0 0)
(0 0 0)
(0 0 0)
(0 0 0)
(0 0 0)
(0 0 0)
(0 0 0)
(0 0 0)
(0 0 0)
(0 0 0)
(0 0 0)
(0 0 0)
(0 0 0)
(0 0 0)
(0 0 0)
(0 0 0)
(0 0 0)
(0 0 0)
(0 0 0)
(0 0 0)
(0 0 0)
(0 0 0)
(0 0 0)
(0 0 0)
(0 0 0)
(0 0 0)
(0 0 0)
(0 0 0)
(0 0 0)
(0 0 0)
(0 0 0)
(0 0 0)
(0 0 0)
(0 0 0)
(0 0 0)
(0 0 0)
(0 0 0)
(0 0 0)
(0 0 0)
(0 0 0)
(0 0 0)
(0 0 0)
(0 0 0)
(0 0 0)
(0 0 0)
(0 0 0)
(0 0 0)
(0 0 0)
(0 0 0)
(0 0 0)
(0 0 0)
(0 0 0)
(0 0 0)
(0 0 0)
(0 0 0)
(0 0 0)
(0 0 0)
(0 0 0)
(0 0 0)
(0 0 0)
(0 0 0)
(0 0 0)
(0 0 0)
(0 0 0)
(0 0 0)
(0 0 0)
(0 0 0)
(0 0 0)
(0 0 0)
(0 0 0)
(0 0 0)
(0 0 0)
(0 0 0)
(0 0 0)
(0 0 0)
(0 0 0)
(0 0 0)
(0 0 0)
(0 0 0)
(0 0 0)
(0 0 0)
(0 0 0)
(0 0 0)
(0 0 0)
(0 0 0)
(0 0 0)
(0 0 0)
(0 0 0)
(0 0 0)
(0 0 0)
(0 0 0)
(0 0 0)
(0 0 0)
(0 0 0)
(0 0 0)
(0 0 0)
(0 0 0)
(0 0 0)
(0 0 0)
(0 0 0)
(0 0 0)
(0 0 0)
(0 0 0)
(0 0 0)
(0 0 0)
(0 0 0)
(0 0 0)
(0 0 0)
(0 0 0)
(0 0 0)
(0 0 0)
(0 0 0)
(0 0 0)
(0 0 0)
(0 0 0)
(0 0 0)
(0 0 0)
(0 0 0)
(0 0 0)
(0 0 0)
(0 0 0)
(0 0 0)
(0 0 0)
(0 0 0)
(0 0 0)
(0 0 0)
(0 0 0)
(0 0 0)
(0 0 0)
(0 0 0)
(0 0 0)
(0 0 0)
(0 0 0)
(0 0 0)
(0 0 0)
(0 0 0)
(0 0 0)
(0 0 0)
(0 0 0)
(0 0 0)
(0 0 0)
(0 0 0)
(0 0 0)
(0 0 0)
(0 0 0)
(0 0 0)
(0 0 0)
(0 0 0)
(0 0 0)
(0 0 0)
(0 0 0)
(0 0 0)
(0 0 0)
(0 0 0)
(0 0 0)
(0 0 0)
(0 0 0)
(0 0 0)
(0 0 0)
(0 0 0)
(0 0 0)
(0 0 0)
(0 0 0)
(0 0 0)
(0 0 0)
(0 0 0)
(0 0 0)
(0 0 0)
(0 0 0)
(0 0 0)
(0 0 0)
(0 0 0)
(0 0 0)
(0 0 0)
(0 0 0)
(0 0 0)
(0 0 0)
(0 0 0)
(0 0 0)
(0 0 0)
(0 0 0)
(0 0 0)
(0 0 0)
(0 0 0)
(0 0 0)
(0 0 0)
(0 0 0)
(0 0 0)
(0 0 0)
(0 0 0)
(0 0 0)
(0 0 0)
(0 0 0)
(0 0 0)
(0 0 0)
(0 0 0)
(0 0 0)
(0 0 0)
(0 0 0)
(0 0 0)
(0 0 0)
(0 0 0)
(0 0 0)
(0 0 0)
(0 0 0)
(0 0 0)
(0 0 0)
(0 0 0)
(0 0 0)
(0 0 0)
(0 0 0)
(0 0 0)
(0 0 0)
(0 0 0)
(0 0 0)
(0 0 0)
(0 0 0)
(0 0 0)
(0 0 0)
(0 0 0)
(0 0 0)
(0 0 0)
(0 0 0)
(0 0 0)
(0 0 0)
(0 0 0)
(0 0 0)
(0 0 0)
(0 0 0)
(0 0 0)
(0 0 0)
(0 0 0)
(0 0 0)
(0 0 0)
(0 0 0)
(0 0 0)
(0 0 0)
(0 0 0)
(0 0 0)
(0 0 0)
(0 0 0)
(0 0 0)
(0 0 0)
(0 0 0)
(0 0 0)
(0 0 0)
(0 0 0)
(0 0 0)
(0 0 0)
(0 0 0)
(0 0 0)
(0 0 0)
(0 0 0)
(0 0 0)
(0 0 0)
(0 0 0)
(0 0 0)
(0 0 0)
(0 0 0)
(0 0 0)
(0 0 0)
(0 0 0)
(0 0 0)
(0 0 0)
(0 0 0)
(0 0 0)
(0 0 0)
(0 0 0)
(0 0 0)
(0 0 0)
(0 0 0)
(0 0 0)
(0 0 0)
(0 0 0)
(0 0 0)
(0 0 0)
(0 0 0)
(0 0 0)
(0 0 0)
(0 0 0)
(0 0 0)
(0 0 0)
(0 0 0)
(0 0 0)
(0 0 0)
(0 0 0)
(0 0 0)
(0 0 0)
(0 0 0)
(0 0 0)
(0 0 0)
(0 0 0)
(0 0 0)
(0 0 0)
(0 0 0)
(0 0 0)
(0 0 0)
(0 0 0)
(0 0 0)
(0 0 0)
(0 0 0)
(0 0 0)
(0 0 0)
(0 0 0)
(0 0 0)
(0 0 0)
(0 0 0)
(0 0 0)
(0 0 0)
(0 0 0)
(0 0 0)
(0 0 0)
(0 0 0)
(0 0 0)
(0 0 0)
(0 0 0)
(0 0 0)
(0 0 0)
(0 0 0)
(0 0 0)
(0 0 0)
(0 0 0)
(0 0 0)
(0 0 0)
(0 0 0)
(0 0 0)
(0 0 0)
(0 0 0)
(0 0 0)
(0 0 0)
(0 0 0)
(0 0 0)
(0 0 0)
(0 0 0)
(0 0 0)
(0 0 0)
(0 0 0)
(0 0 0)
(0 0 0)
(0 0 0)
(0 0 0)
(0 0 0)
(0 0 0)
(0 0 0)
(0 0 0)
(0 0 0)
(0 0 0)
(0 0 0)
(0 0 0)
(0 0 0)
(0 0 0)
(0 0 0)
(0 0 0)
(0 0 0)
(0 0 0)
(0 0 0)
(0 0 0)
(0 0 0)
(0 0 0)
(0 0 0)
(0 0 0)
(0 0 0)
(0 0 0)
(0 0 0)
(0 0 0)
(0 0 0)
(0 0 0)
(0 0 0)
(0 0 0)
(0 0 0)
(0 0 0)
(0 0 0)
(0 0 0)
(0 0 0)
(0 0 0)
(0 0 0)
(0 0 0)
(0 0 0)
(0 0 0)
(0 0 0)
(0 0 0)
(0 0 0)
(0 0 0)
(0 0 0)
(0 0 0)
(0 0 0)
(0 0 0)
(0 0 0)
(0 0 0)
(0 0 0)
(0 0 0)
(0 0 0)
(0 0 0)
(0 0 0)
(0 0 0)
(0 0 0)
(0 0 0)
(0 0 0)
(0 0 0)
(0 0 0)
(0 0 0)
(0 0 0)
(0 0 0)
(0 0 0)
(0 0 0)
(0 0 0)
(0 0 0)
(0 0 0)
(0 0 0)
(0 0 0)
(0 0 0)
(0 0 0)
(0 0 0)
(0 0 0)
(0 0 0)
(0 0 0)
(0 0 0)
(0 0 0)
(0 0 0)
(0 0 0)
(0 0 0)
(0 0 0)
(0 0 0)
(0 0 0)
(0 0 0)
(0 0 0)
(0 0 0)
(0 0 0)
(0 0 0)
(0 0 0)
(0 0 0)
(0 0 0)
(0 0 0)
(0 0 0)
(0 0 0)
(0 0 0)
(0 0 0)
(0 0 0)
(0 0 0)
(0 0 0)
(0 0 0)
(0 0 0)
(0 0 0)
(0 0 0)
(0 0 0)
(0 0 0)
(0 0 0)
(0 0 0)
(0 0 0)
(0 0 0)
(0 0 0)
(0 0 0)
(0 0 0)
(0 0 0)
(0 0 0)
(0 0 0)
(0 0 0)
(0 0 0)
(0 0 0)
(0 0 0)
(0 0 0)
(0 0 0)
(0 0 0)
(0 0 0)
(0 0 0)
(0 0 0)
(0 0 0)
(0 0 0)
(0 0 0)
(0 0 0)
(0 0 0)
(0 0 0)
(0 0 0)
(0 0 0)
(0 0 0)
(0 0 0)
(0 0 0)
(0 0 0)
(0 0 0)
(0 0 0)
(0 0 0)
(0 0 0)
(0 0 0)
(0 0 0)
(0 0 0)
(0 0 0)
(0 0 0)
(0 0 0)
(0 0 0)
(0 0 0)
(0 0 0)
(0 0 0)
(0 0 0)
(0 0 0)
(0 0 0)
(0 0 0)
(0 0 0)
(0 0 0)
(0 0 0)
(0 0 0)
(0 0 0)
(0 0 0)
(0 0 0)
(0 0 0)
(0 0 0)
(0 0 0)
(0 0 0)
(0 0 0)
(0 0 0)
(0 0 0)
(0 0 0)
(0 0 0)
(0 0 0)
(0 0 0)
(0 0 0)
(0 0 0)
(0 0 0)
(0 0 0)
(0 0 0)
(0 0 0)
(0 0 0)
(0 0 0)
(0 0 0)
(0 0 0)
(0 0 0)
(0 0 0)
(0 0 0)
(0 0 0)
(0 0 0)
(0 0 0)
(0 0 0)
(0 0 0)
(0 0 0)
(0 0 0)
(0 0 0)
(0 0 0)
(0 0 0)
(0 0 0)
(0 0 0)
(0 0 0)
(0 0 0)
(0 0 0)
(0 0 0)
(0 0 0)
(0 0 0)
(0 0 0)
(0 0 0)
(0 0 0)
(0 0 0)
(0 0 0)
(0 0 0)
(0 0 0)
(0 0 0)
(0 0 0)
(0 0 0)
(0 0 0)
(0 0 0)
(0 0 0)
(0 0 0)
(0 0 0)
(0 0 0)
(0 0 0)
(0 0 0)
(0 0 0)
(0 0 0)
(0 0 0)
(0 0 0)
(0 0 0)
(0 0 0)
(0 0 0)
(0 0 0)
(0 0 0)
(0 0 0)
(0 0 0)
(0 0 0)
(0 0 0)
(0 0 0)
(0 0 0)
(0 0 0)
(0 0 0)
(0 0 0)
(0 0 0)
(0 0 0)
(0 0 0)
(0 0 0)
(0 0 0)
(0 0 0)
(0 0 0)
(0 0 0)
(0 0 0)
(0 0 0)
(0 0 0)
(0 0 0)
(0 0 0)
(0 0 0)
(0 0 0)
(0 0 0)
(0 0 0)
(0 0 0)
(0 0 0)
(0 0 0)
(0 0 0)
(0 0 0)
(0 0 0)
(0 0 0)
(0 0 0)
(0 0 0)
(0 0 0)
(0 0 0)
(0 0 0)
(0 0 0)
(0 0 0)
(0 0 0)
(0 0 0)
(0 0 0)
(0 0 0)
(0 0 0)
(0 0 0)
(0 0 0)
(0 0 0)
(0 0 0)
(0 0 0)
(0 0 0)
(0 0 0)
(0 0 0)
(0 0 0)
(0 0 0)
(0 0 0)
(0 0 0)
(0 0 0)
(0 0 0)
(0 0 0)
(0 0 0)
(0 0 0)
(0 0 0)
(0 0 0)
(0 0 0)
(0 0 0)
(0 0 0)
(0 0 0)
(0 0 0)
(0 0 0)
(0 0 0)
(0 0 0)
(0 0 0)
(0 0 0)
(0 0 0)
(0 0 0)
(0 0 0)
(0 0 0)
(0 0 0)
(0 0 0)
(0 0 0)
(0 0 0)
(0 0 0)
(0 0 0)
(0 0 0)
(0 0 0)
(0 0 0)
(0 0 0)
(0 0 0)
(0 0 0)
(0 0 0)
(0 0 0)
(0 0 0)
(0 0 0)
(0 0 0)
(0 0 0)
(0 0 0)
(0 0 0)
(0 0 0)
(0 0 0)
(0 0 0)
(0 0 0)
(0 0 0)
(0 0 0)
(0 0 0)
(0 0 0)
(0 0 0)
(0 0 0)
(0 0 0)
(0 0 0)
(0 0 0)
(0 0 0)
(0 0 0)
(0 0 0)
(0 0 0)
(0 0 0)
(0 0 0)
(0 0 0)
(0 0 0)
(0 0 0)
(0 0 0)
(0 0 0)
(0 0 0)
(0 0 0)
(0 0 0)
(0 0 0)
(0 0 0)
(0 0 0)
(0 0 0)
(0 0 0)
(0 0 0)
(0 0 0)
(0 0 0)
(0 0 0)
(0 0 0)
(0 0 0)
(0 0 0)
(0 0 0)
(0 0 0)
(0 0 0)
(0 0 0)
(0 0 0)
(0 0 0)
(0 0 0)
(0 0 0)
(0 0 0)
(0 0 0)
(0 0 0)
(0 0 0)
(0 0 0)
(0 0 0)
(0 0 0)
(0 0 0)
(0 0 0)
(0 0 0)
(0 0 0)
(0 0 0)
(0 0 0)
(0 0 0)
(0 0 0)
(0 0 0)
(0 0 0)
(0 0 0)
(0 0 0)
(0 0 0)
(0 0 0)
(0 0 0)
(0 0 0)
(0 0 0)
(0 0 0)
(0 0 0)
(0 0 0)
(0 0 0)
(0 0 0)
(0 0 0)
(0 0 0)
(0 0 0)
(0 0 0)
(0 0 0)
(0 0 0)
(0 0 0)
(0 0 0)
(0 0 0)
(0 0 0)
(0 0 0)
(0 0 0)
(0 0 0)
(0 0 0)
(0 0 0)
(0 0 0)
(0 0 0)
(0 0 0)
(0 0 0)
(0 0 0)
(0 0 0)
(0 0 0)
(0 0 0)
(0 0 0)
(0 0 0)
(0 0 0)
(0 0 0)
(0 0 0)
(0 0 0)
(0 0 0)
(0 0 0)
(0 0 0)
(0 0 0)
(0 0 0)
(0 0 0)
(0 0 0)
(0 0 0)
(0 0 0)
(0 0 0)
(0 0 0)
(0 0 0)
(0 0 0)
(0 0 0)
(0 0 0)
(0 0 0)
(0 0 0)
(0 0 0)
(0 0 0)
(0 0 0)
(0 0 0)
(0 0 0)
(0 0 0)
(0 0 0)
(0 0 0)
(0 0 0)
(0 0 0)
(0 0 0)
(0 0 0)
(0 0 0)
(0 0 0)
(0 0 0)
(0 0 0)
(0 0 0)
(0 0 0)
(0 0 0)
(0 0 0)
(0 0 0)
(0 0 0)
(0.0326636 0.0338302 -0.0761758)
(0.10591 0.0434787 -0.094035)
(0.099127 0.060383 -0.0752116)
(0.204821 0.116323 -0.0888906)
(0.138542 0.0751783 -0.0765944)
(0.237528 0.186724 -0.0708475)
(0.213851 0.197698 -0.0661715)
(0.195218 0.169965 -0.0524054)
(0.0232265 0.0535407 -0.0785892)
(0.0276843 0.0294397 -0.0769595)
(0.116374 0.103102 -0.0927643)
(0.0932784 0.117877 -0.102278)
(0.199072 0.189128 -0.0376985)
(0.208528 0.197943 -0.0642773)
(0.283118 0.279488 -0.0296339)
(0.308225 0.278399 -0.0116959)
(0.399965 0.351706 0.0223552)
(0.355405 0.318462 -0.0110958)
(0.370152 0.342482 -0.0259405)
(0.468461 0.39031 0.02867)
(0.526825 0.401007 0.0475867)
(0.290401 0.28346 -0.0296156)
(0.112303 0.176973 -0.0163539)
(0.473809 0.363874 0.0689813)
(0.0576732 0.193801 0.0144949)
(0.00262988 0.101222 -0.0171942)
(0.0489781 0.119899 -0.0679558)
(0.0139841 0.070818 -0.0208442)
(0.089679 0.192844 -0.0463291)
(0.165955 0.199138 -0.0693127)
(0.272955 0.261961 -0.0175418)
(0.215036 0.262302 -0.0149575)
(0.347405 0.347119 0.0111688)
(0.399179 0.350219 0.0177362)
(0.496629 0.4172 0.0407699)
(0.429794 0.391138 0.0113603)
(0.507084 0.43705 0.0179616)
(0.532939 0.40614 0.0156015)
(0.567964 0.39691 0.00821818)
(0.405452 0.335682 0.00973429)
(0.436192 0.306608 3.45637e-05)
(0.574935 0.386904 -0.000398826)
(0.177654 0.259432 0.0205123)
(0.466465 0.296243 -0.00300637)
(0.389291 0.282412 -0.00690565)
(-0.0224117 0.102127 -0.023305)
(-0.0388286 0.0489225 0.0131214)
(-0.019265 0.0302067 -0.0340072)
(0.0486009 0.137791 -0.0606803)
(0.144015 0.200444 -0.0165104)
(0.179268 0.209267 -0.0519707)
(0.255236 0.334544 0.00960591)
(0.38932 0.412646 0.0195553)
(0.322169 0.298027 0.0236294)
(0.425003 0.420841 0.0402722)
(0.442386 0.450614 0.0123945)
(0.375676 0.38198 0.0156744)
(0.458353 0.492803 0.00719786)
(0.155965 0.307207 0.021672)
(0.0291285 0.122788 -0.00416712)
(0.00816927 0.149644 0.00132858)
(0.00219317 0.161103 0.0178285)
(-0.0682049 0.137184 0.00804532)
(-0.00293954 0.131246 0.0021186)
(-0.0328011 0.123814 -0.0252497)
(-0.113181 0.140369 -0.0165133)
(-0.0645253 0.177164 -0.0269992)
(-0.0384772 0.106785 -0.0127025)
(-0.0367843 0.0495985 -0.0152134)
(-0.0108098 0.16964 -0.00136496)
(0.158676 0.166825 -0.0407429)
(0.278892 0.200565 0.0122334)
(0.433493 0.246246 0.0534687)
(0.185709 0.110562 -0.00394267)
(0.277511 0.100712 0.027888)
(0.485377 0.397536 0.0477199)
(0.283908 0.284685 0.0211684)
(0.351118 0.0328197 0.062641)
(0.197608 0.197905 0.0617662)
(0.110706 0.170067 0.05716)
(-0.0136043 0.112884 0.0343987)
(0.134161 0.162889 0.0726955)
(0.0302169 0.113591 0.0574389)
(-0.0849253 0.213393 -0.00213037)
(-0.0503541 0.217332 0.0223816)
(-0.0352382 0.131559 0.0405138)
(-0.0484311 0.075344 0.0166805)
(-0.0380684 0.14563 0.00450268)
(0.204487 0.0465375 -0.023964)
(0.282655 0.0349115 0.0123047)
(0.292782 0.0639833 0.0492702)
(0.164898 0.0381313 0.0218237)
(0.136578 0.109768 0.0571292)
(0.0204042 0.074111 0.0535995)
(0.125478 0.0725408 0.032198)
(-0.0101162 0.0482184 0.0230308)
(0.0514065 0.0090215 -0.197995)
(0.0464276 0.0106785 -0.309479)
(0.132863 0.0193323 -0.224863)
(0.110217 0.0503284 -0.208875)
(0.182551 0.113403 -0.209409)
(0.0660041 0.0136946 -0.336171)
(0.0967088 0.0571356 -0.330843)
(0.120201 0.107672 -0.309665)
(0.204453 0.16466 -0.175176)
(0.154837 0.145508 -0.189441)
(0.0787948 0.0313148 -0.371887)
(0.124297 0.114615 -0.301447)
(0.0372098 0.0411779 -0.420281)
(0.110202 0.112577 -0.194981)
(0.0496692 0.0457021 -0.434077)
(-0.00858123 0.0753283 -0.195676)
(-0.00545769 0.077487 -0.293104)
(0.100921 0.0882593 -0.212612)
(0.0628215 0.121532 -0.208302)
(0.192329 0.209226 -0.128185)
(0.0163608 0.038103 -0.316382)
(0.091155 0.0958892 -0.327248)
(0.0602249 0.120032 -0.317925)
(0.160189 0.189285 -0.223912)
(0.136635 0.165126 -0.040604)
(0.343995 0.334633 0.112868)
(0.141113 0.216533 0.05022)
(0.145079 0.127544 -0.0300494)
(0.0549043 0.0698116 -0.106989)
(0.302194 0.260365 0.190034)
(0.148931 0.188429 0.0994216)
(0.0543574 0.104394 0.00459305)
(0.0563687 0.103658 0.0166699)
(0.029024 0.133668 -0.178548)
(0.0185017 0.146182 -0.135895)
(0.0876806 0.199583 -0.11569)
(0.0342552 0.122672 -0.273675)
(0.0170811 0.11731 -0.219866)
(0.096892 0.165095 -0.190285)
(0.000138165 0.07658 0.0191371)
(0.00781301 0.0687949 -0.0455974)
(0.0450611 0.139864 0.0194038)
(0.0507519 0.126102 0.000905394)
(0.0408704 0.123353 -0.0627454)
(0.148511 0.211363 -0.0776814)
(0.144022 0.18008 -0.110136)
(0.0380896 0.123378 -0.235283)
(0.135137 0.163652 -0.136682)
(0.101853 0.0891109 -0.148434)
(-0.0078102 0.105781 -0.015918)
(-0.0361098 0.146255 0.0289419)
(0.00765866 0.0838763 -0.0451053)
(-0.00633537 0.0665175 -0.0253519)
(-0.0139413 0.0930066 -0.00794909)
(0.113015 0.144501 -0.0956834)
(0.068267 0.0504178 -0.167048)
(0.400305 0.232301 0.122871)
(0.173449 0.117704 -0.0337754)
(0.280276 0.127356 0.0359621)
(0.15281 0.0577888 -0.0632329)
(0.317779 0.197149 0.155546)
(0.100203 0.0471588 -0.10432)
(0.20469 0.0889252 0.0162693)
(-0.107952 0.23917 0.0533983)
(-0.130585 0.239715 0.145462)
(-0.139201 0.19815 0.0698532)
(0.0213647 0.365748 0.148403)
(-0.0498152 0.244953 0.0621108)
(-0.117939 0.24854 0.157854)
(-0.0984995 0.237426 0.094533)
(-0.0178144 0.1228 -0.00579446)
(0.18489 0.0786611 -0.0675671)
(0.0862822 0.0309972 -0.109996)
(0.329362 0.104333 0.123778)
(0.263041 0.0682605 0.100693)
(0.199128 0.107635 0.00747331)
(0.337494 0.172226 0.235691)
(0.0105319 0.0856384 -0.0372902)
(-0.0442179 0.18101 0.20122)
(0.21327 0.100576 0.127812)
(0.225319 0.313182 0.309769)
(0.0218852 0.290344 0.257005)
(0.0182148 0.283251 0.229505)
(-0.128231 0.166623 0.149244)
(0.0210621 0.0266951 -0.410868)
(0.00638475 0.022691 -0.485689)
(0.014211 0.00768675 -0.416791)
(0.0420573 0.0602699 -0.421386)
(0.0335387 0.083505 -0.408226)
(0.000432216 0.0157851 -0.482437)
(0.0108508 0.0527764 -0.48495)
(-0.0053587 0.063013 -0.507378)
(0.000895151 0.0340531 -0.487257)
(0.00144524 -0.00777351 -0.536604)
(0.00617684 0.00876594 -0.498832)
(-0.00539868 0.0244118 -0.537907)
(0.00875881 0.0123468 -0.540798)
(0.0365108 0.00611588 -0.538034)
(0.0257343 0.0220084 -0.515473)
(-0.00137008 0.0602794 -0.392811)
(-0.00255181 0.0451598 -0.479222)
(0.0645726 0.0896044 -0.415599)
(0.0579487 0.096959 -0.404973)
(0.112033 0.155329 -0.304686)
(0.00686386 0.0313822 -0.491891)
(0.0287285 0.0607374 -0.479448)
(0.0275249 0.0650655 -0.468823)
(0.0138484 0.0916873 -0.390392)
(0.0566666 0.0423843 -0.298212)
(0.263362 0.171472 0.247276)
(0.122878 0.131551 0.0717327)
(0.047416 0.0708508 -0.453837)
(0.0660376 0.0833225 -0.437905)
(0.168414 0.118169 0.204905)
(0.0611364 0.0977627 -0.109763)
(0.044106 0.0857367 -0.0313813)
(0.0352254 0.0728187 -0.129425)
(0.0323584 0.0945291 -0.364639)
(0.0201093 0.0717878 -0.325563)
(0.07735 0.115866 -0.266516)
(0.0175779 0.0562893 -0.452035)
(0.0171081 0.0349148 -0.505404)
(0.0276232 0.0439962 -0.406421)
(0.10636 0.187717 -0.0431132)
(0.0848424 0.175218 -0.237668)
(0.0778369 0.187686 0.000469494)
(0.128295 0.197411 -0.0608393)
(0.0261601 0.127599 -0.234175)
(0.0899996 0.0988098 -0.185077)
(0.0477787 0.0084013 -0.20102)
(0.00772909 0.0389516 -0.608607)
(0.00369623 0.0011021 -0.398327)
(-0.00278875 -0.00563831 -0.464051)
(-0.00540664 0.0140818 -0.143342)
(0.0455739 0.0295454 -0.148359)
(0.0207098 -0.00686204 -0.222278)
(-0.00374409 -0.0109871 -0.163601)
(0.0701923 0.00617454 -0.134632)
(0.0278512 -0.00985254 -0.255066)
(0.00410293 -0.0337234 -0.391259)
(0.230397 0.167073 0.199146)
(0.0275152 -0.0306 -0.197323)
(0.0926021 0.0343909 -0.0250724)
(-0.00845651 -0.0959321 -0.275059)
(0.170891 0.217918 0.309452)
(-0.0227497 -0.0586588 -0.295394)
(-0.0734141 -0.0539727 -0.195842)
(0.245324 0.258003 0.0564677)
(0.288576 0.423135 0.213762)
(0.157737 0.163442 0.20454)
(0.201248 0.41216 0.232561)
(0.218934 0.269563 0.139086)
(0.3267 0.310238 0.205406)
(0.132957 0.159172 0.218684)
(0.09444 0.0652221 -0.0519528)
(-0.0763713 -0.0383394 -0.264695)
(-0.11011 -0.0593132 -0.29847)
(0.302454 0.316034 0.309187)
(0 0 0)
(-0.0854821 -0.00514966 -0.119217)
(0.314313 0.376161 0.377486)
(0 0 0)
(0.246221 0.403501 0.226076)
(4.73654e-05 -0.136363 0.239793)
(0.299124 0.407007 0.344139)
(0.158287 0.369309 0.183809)
(0.014389 0.50258 0.327889)
(0.211858 0.0740446 0.0370174)
(-0.00882303 0.0156636 -0.536601)
(-0.0230068 -0.0035001 -0.588961)
(-0.0103145 0.00554782 -0.555191)
(-0.0103103 0.0271484 -0.528783)
(-0.00898958 0.0330562 -0.554561)
(-0.0111812 -0.00252559 -0.606922)
(-0.0117243 -0.0136655 -0.568674)
(-0.0094283 -0.00174808 -0.582352)
(0.00252028 0.0287122 -0.563678)
(0.0169067 0.0266203 -0.553317)
(0.000561306 0.00307032 -0.59759)