/*--------------------------------*- C++ -*----------------------------------*\
| =========                 |                                                 |
| \\      /  F ield         | OpenFOAM: The Open Source CFD Toolbox           |
|  \\    /   O peration     | Version:  5.x                                   |
|   \\  /    A nd           | Web:      www.OpenFOAM.org                      |
|    \\/     M anipulation  |                                                 |
\*---------------------------------------------------------------------------*/
FoamFile
{
    version     2.0;
    format      ascii;
    class       volScalarField;
    location    "4.75";
    object      p;
}
// * * * * * * * * * * * * * * * * * * * * * * * * * * * * * * * * * * * * * //

dimensions      [0 2 -2 0 0 0 0];

internalField   nonuniform List<scalar> 
10571
(
255.722
262.492
265.559
249.046
238.12
246.488
234.372
229.403
224.75
231.43
230.423
225.753
220.123
221.378
220.857
225.778
223.409
213.919
218.229
232.547
232.235
233.43
244.877
234.37
97.6604
125.121
98.2811
94.5903
119.749
98.8978
141.94
167.602
187.967
186.246
150.869
193.248
188.982
201.965
195.619
211.922
194.137
189.058
184.995
188.525
184.613
198.732
204.651
196.183
80.9513
80.3887
81.5157
82.0927
81.5573
80.1014
85.7135
91.1175
115.836
114.045
80.252
77.4859
135.311
161.669
161.255
143.869
95.0715
151.649
165.345
167.831
162.493
153.301
180.647
178.716
78.1638
76.4954
76.7258
78.3831
78.4101
78.3503
75.6628
74.5715
85.8677
88.4941
78.118
79.9654
83.4775
93.2429
125.092
111.735
78.7811
95.2616
130.993
146.644
146.857
98.913
148.11
153.32
75.091
73.3886
73.5827
74.0879
73.9804
72.6172
69.891
68.5116
70.6526
76.8824
73.139
73.0845
68.6409
67.0897
78.6814
85.4592
74.816
71.7043
72.554
78.4727
102.841
69.2545
87.9134
77.8043
72.5715
71.9608
72.1407
71.6281
71.1569
71.8037
70.8853
69.2937
67.8986
68.469
69.4022
71.421
70.9995
70.7818
69.5175
67.6058
74.384
70.0986
70.764
68.9553
67.716
68.495
68.7605
69.1524
68.6349
68.6532
71.135
70.9927
71.0287
70.7758
70.1027
71.0224
70.9049
69.7525
69.6307
69.3877
69.4087
70.6949
70.8417
70.7469
70.0591
70.0639
69.0215
69.3982
69.8118
69.5187
69.6794
69.5036
69.3108
69.3372
69.2108
69.1336
69.2647
70.3878
70.2604
70.4246
70.195
69.654
70.3817
70.5119
69.5598
69.5452
69.1832
69.3033
70.0818
70.253
70.0889
69.6739
69.8091
69.5492
69.3768
69.4217
69.5223
69.5561
69.4746
69.4723
69.3626
69.523
69.5254
69.5669
69.9265
69.7945
69.8661
69.8133
69.3903
69.7753
69.6181
69.2761
69.3024
69.0764
69.3537
69.634
69.6112
69.4721
69.4498
69.5066
69.3215
69.4495
69.221
69.3309
69.307
69.3572
69.5355
69.4865
69.5332
69.5377
69.622
69.48
69.4811
69.5266
69.2902
69.2843
68.8663
69.0683
69.1184
68.7595
69.297
69.1604
69.1133
69.27
69.2593
69.0489
69.2123
69.1822
69.154
69.1994
69.1115
69.4171
69.4251
69.4057
69.4313
69.2848
69.3321
69.2884
69.2112
69.127
68.9867
68.9046
68.9335
68.7653
69.1364
69.0642
69.0578
69.0367
68.9376
68.8385
69.1864
69.0956
69.0996
69.0568
68.9838
69.3048
69.3136
69.2903
69.2902
69.1839
69.2218
69.1782
69.1163
69.0568
69.075
68.8719
68.927
68.9598
69.0327
69.0244
69.0593
68.9479
68.9011
68.9945
69.0873
69.0253
69.0652
69.0387
69.0522
69.1879
69.2069
69.197
69.1702
69.1028
69.1154
69.0434
69.1932
69.0058
69.0744
68.964
69.0398
69.0642
68.99
69.0049
69.0417
68.9849
68.987
69.0469
69.026
68.9673
69.0308
69.0691
69.0916
69.0994
69.1113
69.1161
69.0688
69.044
69.0287
68.9746
69.1544
68.9746
69.0173
69.0323
69.1344
69.0923
68.9698
68.9836
69.0153
69.013
69.0235
69.0554
69.0027
68.9389
69.015
69.0565
69.0775
69.042
69.0529
69.0749
68.9693
68.9942
68.9649
68.9146
69.0076
68.9524
68.9639
69.0669
69.1131
69.03
68.9546
68.9548
68.971
69.012
69.0123
69.0437
68.9708
68.9295
69.0018
69.0119
69.0431
69.0084
69.0232
69.016
68.9062
68.9662
68.9209
68.8774
68.9472
68.9325
68.9286
69.0664
69.0405
68.9693
68.8856
68.9044
68.9123
68.999
68.9748
69.0078
68.937
68.9215
68.9905
68.9686
68.9972
68.9804
68.9947
68.9655
68.8892
68.9553
68.8874
68.8768
68.9934
68.9232
68.9069
69.0661
69.0188
69.0278
68.8225
68.8706
68.8695
68.9935
68.9457
68.9729
68.9098
68.9074
68.9711
68.9431
68.9585
68.9505
68.9698
68.9491
68.9238
68.9691
68.8762
68.9226
69.0443
69.0022
68.9015
69.0419
69.0126
69.0912
68.8961
68.9003
68.8414
68.9913
68.9293
68.9618
68.9109
68.8926
68.9475
68.9362
68.9349
68.9256
68.9581
68.931
69.0573
68.9835
68.9152
69.0215
69.0623
69.0106
68.9201
68.9713
68.9922
69.0304
68.9567
68.9444
68.8313
68.9806
68.9099
68.9401
68.9351
68.8887
68.9312
68.9094
68.9044
68.9121
68.9353
68.8898
69.1039
68.9942
68.9502
69.0745
69.1299
69.0013
68.9201
68.8973
68.9643
68.9875
69.0061
69.0659
68.877
68.9314
68.9016
68.9128
68.9612
68.8883
68.8984
68.88
68.8484
68.9059
68.9256
68.8692
69.0069
68.9608
68.9227
69.1302
68.9866
68.9561
68.8656
68.8337
68.888
68.9228
69.0396
69.0526
68.9047
68.8711
68.8768
68.8808
68.9728
68.8723
68.852
68.8432
68.8319
68.8861
68.8971
68.8623
68.9043
68.863
68.8485
68.9529
68.8802
68.8816
68.7965
68.786
68.7559
68.8202
69.0068
68.9736
68.8737
68.7966
68.8097
68.8318
68.9506
68.8428
68.8134
68.8128
68.8188
68.854
68.8565
68.8447
68.7804
68.7611
68.7538
68.7449
68.5988
68.7999
68.7211
68.6961
68.6231
68.682
68.9252
68.871
68.8122
68.7113
68.7222
68.7633
68.893
68.801
68.7734
68.7759
68.7882
68.8169
68.8154
68.8137
68.677
68.6977
68.6757
68.5858
68.4111
68.736
68.6487
68.6257
68.5286
68.6143
68.8448
68.7952
68.7592
68.6511
68.6771
68.714
68.8303
68.7435
68.7227
68.7306
68.7567
68.7751
68.7775
68.7746
68.6346
68.686
68.6249
68.5289
68.4998
68.698
68.6061
68.565
68.5557
68.6084
68.7745
68.7395
68.6977
68.6337
68.6845
68.7007
68.7775
68.6699
68.6774
68.7119
68.7435
68.7378
68.7469
68.7423
68.6335
68.694
68.6185
68.6239
68.5947
68.6793
68.5981
68.6668
68.6804
68.6391
68.7201
68.697
68.6438
68.6367
68.7207
68.7206
68.7139
68.6393
68.6756
68.7217
68.7524
68.7202
68.7275
68.736
68.641
68.7144
68.6449
68.6544
68.6229
68.6745
68.6374
68.7698
68.7472
68.7042
68.6826
68.6681
68.6187
68.6465
68.7614
68.7644
68.6503
68.6717
68.7115
68.7483
68.7835
68.7258
68.727
68.7481
68.666
68.7447
68.6757
68.6703
68.6917
68.6893
68.6722
68.7782
68.7983
68.8459
68.6576
68.6495
68.6418
68.679
68.7921
68.8438
68.5931
68.722
68.7434
68.7841
68.8234
68.7412
68.7216
68.7685
68.7007
68.7587
68.6888
68.6942
68.8646
68.703
68.7015
68.826
68.9586
69.115
68.6496
68.6512
68.6824
68.7346
68.8321
68.9692
68.5852
68.7409
68.7964
68.8344
68.8754
68.7583
68.7331
68.7928
68.715
68.7536
68.661
68.6983
68.9804
68.7218
68.7542
68.934
69.117
69.1435
68.6696
68.6754
68.7091
68.7722
68.8927
69.0464
68.6267
68.7621
68.839
68.8876
68.9375
68.7723
68.7711
68.8416
68.6974
68.7345
68.6161
68.676
68.994
68.7491
68.7879
69.0273
69.2587
69.1795
68.7151
68.7133
68.7008
68.7797
68.9476
69.1
68.6945
68.7788
68.8482
68.9175
68.9838
68.7748
68.8068
68.8661
68.6724
68.7253
68.577
68.6368
68.947
68.7866
68.755
69.0293
69.2554
69.2244
68.7619
68.7519
68.6936
68.7816
68.9957
69.1781
68.7501
68.7867
68.8436
68.9173
69.011
68.7744
68.8099
68.8684
68.6638
68.727
68.5668
68.5966
68.873
68.8024
68.6878
68.8896
69.0693
69.131
68.7941
68.7731
68.7077
68.7835
68.9446
69.066
68.7803
68.7854
68.8491
68.8903
68.9728
68.7794
68.8078
68.8619
68.6755
68.7379
68.587
68.5838
68.8004
68.7881
68.6286
68.7192
68.8514
68.9439
68.805
68.7758
68.7162
68.7799
68.8223
68.8624
68.7879
68.7815
68.8199
68.8413
68.8753
68.7852
68.8133
68.8397
68.6947
68.7523
68.6288
68.6014
68.7496
68.7662
68.5953
68.5946
68.6954
68.7526
68.801
68.7676
68.7265
68.7669
68.7269
68.678
68.7896
68.7801
68.7837
68.7907
68.7804
68.7905
68.8031
68.8135
68.7234
68.7723
68.684
68.6352
68.7294
68.7569
68.6113
68.5302
68.62
68.6306
68.8018
68.7674
68.753
68.7543
68.6902
68.6071
68.7963
68.7862
68.7739
68.769
68.7312
68.7987
68.8073
68.8031
68.7714
68.799
68.7371
68.6878
68.7421
68.7684
68.6757
68.5489
68.6186
68.6119
68.8165
68.7796
68.7847
68.7802
68.7072
68.6292
68.8138
68.7989
68.7862
68.7649
68.7287
68.813
68.8141
68.8064
68.8384
68.8387
68.7908
68.7523
68.7835
68.7936
68.7353
68.6318
68.6687
68.6663
68.8424
68.8036
68.8332
68.8246
68.7771
68.69
68.837
68.8201
68.7957
68.7855
68.7603
68.8321
68.8256
68.8263
68.9096
68.8999
68.8706
68.8339
68.8379
68.8256
68.7964
68.7093
68.7358
68.7478
68.877
68.8277
68.8912
68.8545
68.847
68.7636
68.8647
68.8403
68.8066
68.8257
68.8076
68.8609
68.8449
68.8567
68.9475
68.9473
68.9387
68.8953
68.8876
68.8442
68.8518
68.7715
68.798
68.8265
68.904
68.853
68.9303
68.8705
68.8868
68.8314
68.8922
68.8672
68.8403
68.8506
68.8515
68.8929
68.8751
68.8879
68.9667
68.954
68.9526
68.9338
68.9215
68.8683
68.8795
68.8363
68.8554
68.8915
68.9285
68.8806
68.9447
68.8922
68.9041
68.8858
68.9205
68.9008
68.8801
68.8659
68.8891
68.9222
68.9086
68.9151
68.9721
68.9181
68.9509
68.9444
68.9479
68.8877
68.9251
68.9008
68.9094
68.9428
68.956
68.9086
68.9657
68.914
68.9276
68.9229
68.9513
68.9332
68.9107
68.8885
68.9219
68.9505
68.9348
68.9366
68.9748
68.8853
68.935
68.9493
68.9692
68.9062
68.9473
68.9437
68.9557
68.9816
68.9882
68.9317
68.9895
68.9475
68.9585
68.9406
68.9842
68.9649
68.9462
68.9224
68.9561
68.9775
68.961
68.9589
68.9906
68.9122
68.9448
68.9716
68.9914
68.9365
68.9503
68.9727
68.9908
69.0062
69.0224
68.9613
68.9998
68.9879
68.9873
68.9606
69.0151
68.9884
68.9809
68.9512
68.9862
69.0096
68.9904
68.9839
69.025
69.005
68.999
69.0081
69.0192
68.9726
68.956
69.0026
69.0179
69.0215
69.0566
69.0003
69.0221
69.0291
69.0172
68.9891
69.0463
69.0145
69.0125
68.9859
69.0155
69.048
69.0259
69.0168
69.069
69.1376
69.0749
69.0554
69.0508
69.0452
68.991
69.0368
69.0457
69.0476
69.0867
69.0398
69.0407
69.0692
69.0502
69.033
69.0824
69.0417
69.049
69.0312
69.0522
69.0854
69.0629
69.0576
69.111
69.2382
69.1351
69.1008
69.0857
69.1604
69.0541
69.0772
69.0789
69.0923
69.1439
69.0884
69.054
69.0959
69.0894
69.0896
69.1308
69.0745
69.0837
69.0876
69.0934
69.1207
69.0971
69.0993
69.1457
69.2611
69.161
69.1344
69.1154
69.2782
69.102
69.1149
69.1154
69.1355
69.2014
69.1607
69.0733
69.1212
69.1362
69.1448
69.198
69.097
69.1121
69.1284
69.1379
69.1532
69.1239
69.1325
69.1725
69.257
69.1755
69.1595
69.1396
69.2391
69.1483
69.1562
69.1395
69.1646
69.2516
69.2237
69.086
69.1448
69.1683
69.1755
69.2768
69.1218
69.1245
69.154
69.169
69.1864
69.1373
69.1508
69.1902
69.2636
69.1916
69.1754
69.1544
69.2518
69.2326
69.1888
69.1427
69.1728
69.3762
69.3208
69.1369
69.1517
69.1722
69.1855
69.3921
69.1346
69.1199
69.1584
69.1799
69.2277
69.1452
69.1571
69.1968
69.2809
69.2019
69.1797
69.1564
69.2661
69.2762
69.1946
69.1296
69.1647
69.5024
69.3999
69.1966
69.1529
69.1604
69.1764
69.4657
69.1747
69.1185
69.1577
69.1731
69.2533
69.1469
69.1563
69.1941
69.2639
69.1934
69.1747
69.1514
69.2656
69.2525
69.183
69.1057
69.1423
69.4227
69.3298
69.1488
69.1516
69.132
69.1533
69.4345
69.1819
69.1082
69.1363
69.1577
69.2344
69.1397
69.1399
69.1869
69.2448
69.1717
69.1621
69.1383
69.2679
69.2129
69.1573
69.072
69.1082
69.3451
69.264
69.0998
69.1286
69.0889
69.1145
69.2033
69.1055
69.0989
69.097
69.1175
69.1669
69.119
69.11
69.1802
69.2476
69.1507
69.1522
69.1211
69.2769
69.1867
69.1295
69.0283
69.0644
69.3025
69.2425
69.1138
69.0827
69.0361
69.0612
69.0025
69.0969
69.0678
69.0556
69.0681
69.1245
69.0983
69.0754
69.1774
69.2762
69.1461
69.147
69.0997
69.2845
69.1857
69.1075
68.9778
69.0067
69.2958
69.2517
69.159
69.0405
68.9771
68.9924
69.0733
69.097
69.0461
69.0083
69.0018
69.1453
69.0827
69.0406
69.178
69.3344
69.1721
69.1457
69.0636
69.333
69.2036
69.0643
68.8975
68.9156
69.3569
69.3267
69.2326
69.0089
68.8834
68.8883
69.3274
69.1815
69.0233
68.9489
68.9091
69.2482
69.0835
68.9978
69.1818
69.4155
69.2308
69.1462
69.0106
69.4282
69.245
68.9977
68.7609
68.7645
69.4522
69.436
69.3075
68.9642
68.7423
68.7181
69.5534
69.3285
69.0046
68.8556
68.765
69.353
69.082
68.9347
69.1863
69.5091
69.3093
69.1328
68.9317
69.5438
69.2956
68.9106
68.5266
68.4987
69.5807
69.5261
69.383
68.873
68.4969
68.4242
69.7188
69.4794
68.9547
68.7039
68.5222
69.4842
69.0581
68.8266
69.1936
69.6045
69.3881
69.111
68.8126
69.6568
69.2999
68.7681
68.1219
68.025
69.7679
69.6295
69.3849
68.7176
68.0768
67.8707
69.793
69.4985
68.8337
68.4522
68.1133
69.4428
68.9953
68.6487
69.2147
69.7467
69.4757
69.0829
68.6413
69.8054
69.2768
68.5396
67.486
67.1245
70.0144
69.7199
69.2914
68.4696
67.3969
66.7449
69.8148
69.4019
68.6516
68.0369
67.4128
69.4145
68.8781
68.3966
69.2714
69.9251
69.5874
69.0676
68.4238
69.9119
69.2193
68.238
66.5685
65.4212
69.9944
69.7667
69.1008
68.1294
66.3864
64.141
69.8383
69.2983
68.4199
67.478
66.197
69.4267
68.7483
68.0931
69.3968
69.968
69.6861
69.0881
68.1806
69.8964
69.1367
67.8525
65.3464
61.5141
69.9276
69.6379
68.8128
67.6932
65.1912
58.1372
69.8621
69.1456
68.2035
66.8297
63.8571
69.3244
68.6015
67.7928
69.6099
69.8567
69.76
69.1807
68.0206
70.0698
69.1049
67.4254
64.1537
51.1832
69.4971
69.11
68.5123
67.2024
64.0073
51.5054
-30.2761
69.3157
68.8453
68.0872
66.2704
59.072
69.1247
68.4619
67.6126
69.9221
69.7797
69.9052
69.3982
68.1793
69.525
68.8366
67.3716
63.6938
44.2631
-2.49644
68.8461
68.6645
68.1842
67.1136
63.756
51.1205
6.81478
68.3991
68.4904
67.9731
66.1864
53.3421
68.7701
68.3589
67.6946
70.2483
69.9445
70.1371
69.6867
68.7689
69.043
68.3186
67.4301
64.8485
52.3117
16.0598
68.2383
68.213
67.9378
67.4101
65.2605
53.039
19.4313
67.8398
68.2182
68.0925
66.9996
57.4948
21.4047
68.4464
68.252
68.0304
70.5149
69.2461
69.3872
69.536
69.0258
68.0633
67.4677
67.3649
66.3101
55.5131
17.2691
67.7383
67.6762
67.6165
67.6985
67.128
56.6078
20.8244
67.4517
67.9795
68.4461
68.0731
64.6561
68.1685
68.196
68.4722
69.276
68.2528
68.181
68.0696
67.8671
67.2932
66.8246
67.0232
66.9567
60.5504
67.3893
67.3124
67.4052
67.7078
67.534
61.057
-1.32116
67.7876
67.7708
68.2645
68.3224
69.5507
67.9167
68.1242
68.5735
68.0225
67.6891
67.4549
67.3416
67.3939
67.1959
66.8856
67.1604
67.4113
66.5176
67.2616
67.1782
67.2721
67.4699
67.4175
66.6671
67.3708
67.4467
67.7181
67.8328
68.8631
67.7118
67.9066
68.2704
67.5793
67.5572
67.2868
67.2118
67.4197
67.3732
67.0765
67.246
67.469
67.784
67.4097
67.2728
67.2386
67.3668
67.1148
68.2083
67.2122
67.3354
67.5432
67.681
68.4096
67.6057
67.733
67.9882
67.5147
67.603
67.3542
67.3168
67.5053
67.5591
67.2678
67.2483
67.4602
67.9379
67.6386
67.5104
67.2801
67.2769
67.0466
68.5334
67.3614
67.3627
67.6492
67.7129
68.2169
67.5562
67.6979
67.9451
67.5956
67.8631
67.5753
67.3707
67.419
67.7472
67.303
67.2574
67.3091
67.6551
67.8557
67.7112
67.31
67.3019
67.0632
68.3356
67.6128
67.3602
67.6764
67.5883
68.0416
67.5856
67.751
67.887
68.1416
68.4614
68.11
67.6824
67.3624
68.0566
67.4165
67.1763
67.0235
67.2557
67.9972
67.8274
67.3099
67.3479
67.3021
68.1878
67.8541
67.4153
67.741
67.678
68.2201
67.7764
68.0144
68.0947
68.9357
69.4085
69.0393
68.4466
67.7002
68.606
67.7171
67.5837
67.242
66.9285
68.13
67.866
67.3248
67.5427
67.6564
68.5115
67.5448
67.554
68.1668
68.0849
68.9037
68.1747
68.7754
68.9495
70.0672
70.7564
70.1314
69.4085
68.7991
69.3651
68.4949
68.1459
68.0177
68.1531
68.5479
67.8813
67.5469
67.5877
67.9617
69.4887
66.9883
67.515
68.21
69.042
70.1183
69.1778
70.4623
71.1517
70.6727
71.5212
70.829
69.9643
69.293
69.9817
68.9618
68.5853
68.629
69.0205
69.5754
68.398
67.8743
68.022
68.4104
70.1339
67.639
68.01
68.9582
70.2133
71.3225
70.7165
72.4984
74.4463
274.843
278.55
279.639
285.017
270.812
272.825
252.04
242.485
258.227
266.02
273.186
264.873
264.123
272.791
273.629
257.705
256.329
264.854
249.735
248.953
241.696
241.857
243.797
236.77
243.986
250.056
252.523
235.99
240.879
252.564
247.358
239.463
233.479
242.675
239.834
229.787
227.604
236.975
232.42
228.246
227.601
230.653
234.878
226.996
230.953
258.846
240.291
237.969
230.955
231.172
226.127
229.858
226.265
225.793
223.831
224.037
223.111
221.776
223.487
224.85
225.676
224.368
226.589
225.752
229.238
229.784
239.615
230.888
229.651
232.539
223.035
224.034
223.861
224.874
226.98
222.472
229.787
230.728
245.506
237.727
241.447
243.689
243.794
251.29
256.467
251.564
257.47
241.9
236.383
250.253
261.67
259.8
249.747
247.185
248.746
245.816
267.22
230.474
268.517
272.074
272.198
216.858
225.318
216.584
253.788
244.201
216.066
214.242
225.935
240.25
229.542
252.947
217.016
267.618
257.325
255.691
233.906
236.627
224.198
221.482
235.674
232.187
232.135
224.446
220.047
223.984
218.102
234.919
214.122
243.468
234.27
234.59
208.279
221.075
214.743
228.763
227.735
213.046
219.556
216.589
228.431
225.893
220.36
219.522
220.534
226.436
228.136
220.479
219.251
224.414
225.019
220.888
219.146
223.974
222.311
219.888
213.992
218.521
215.949
238.698
234.13
233.201
208.537
194.791
205.222
199.011
210.837
225.81
217.356
244.227
244.249
212.523
227.305
235.164
236.634
244.447
230.318
220.298
237.715
213.863
108.042
80.3271
99.3085
98.8961
96.468
78.5134
78.8661
78.6031
94.3282
102.277
77.8901
78.1366
77.7123
110.911
79.88
111.56
82.1562
117.986
102.641
108.732
83.6426
82.0679
79.8449
80.4839
154.675
190.485
178.654
81.1518
92.1727
96.1808
119.26
181.912
132.408
110.471
141.409
121.208
82.2792
85.071
81.9678
202.896
199.891
149.15
169.64
169.329
152.049
170.82
89.0528
87.7002
102.35
204.707
213.473
179.803
173.473
176.204
179.146
115.178
205.621
190.131
200.599
135.796
180.15
138.914
167.35
175.212
187.613
183.918
177.732
171.264
182.442
180.658
170.54
200.771
173.546
203.506
206.451
177.572
185.165
187.463
203.938
208.427
190.459
193.312
191.964
186.869
79.9027
78.6955
80.4337
80.7377
80.468
79.1527
79.0157
79.1113
81.0883
80.807
79.8185
79.7655
79.9308
81.667
80.7216
81.0399
79.5964
79.6396
80.7356
81.664
78.681
78.0269
79.9649
80.5927
81.7238
80.853
90.5899
80.7446
79.761
79.9139
80.3178
96.1954
84.447
80.6665
79.627
79.661
79.1906
78.9477
79.2358
127.53
127.43
97.1301
105.172
108.453
79.6596
83.4319
80.5245
81.1091
81.1378
140.175
152.702
125.337
124.464
139.711
88.9912
83.1348
137.506
101.137
131.418
80.8146
93.9697
84.1603
97.4149
165.817
177.271
173.375
157.376
159.082
171.655
164.774
155.211
140.576
107.846
167.15
170.413
126.317
145.489
148.277
186.649
181.173
168.69
175.13
166.382
167.421
76.8887
75.2006
77.6101
77.0988
77.4489
76.1273
75.616
76.0042
78.0957
78.0173
76.6262
76.5311
76.3067
78.7946
76.8879
76.5921
74.1665
76.3445
77.4987
76.9871
74.591
74.8514
74.1077
73.7474
77.862
77.2745
75.9012
76.1429
75.9391
74.3031
74.1056
79.1432
75.7811
77.0576
76.9452
77.4465
74.6761
74.9182
74.8099
93.5388
97.1706
82.264
87.3764
89.4535
79.7805
78.3874
75.3581
75.9031
75.1817
111.384
125.329
97.3082
97.7828
107.002
79.9134
76.7393
77.4763
78.9512
77.6193
77.189
74.8489
76.5638
72.3084
153.301
162.07
151.042
127.989
147.463
131.174
128.977
131.486
83.1926
72.5748
118.092
122.403
76.847
93.2423
98.2128
157.274
142.019
117.917
126.088
113.428
120.611
73.8935
72.8721
74.7314
74.2821
74.6178
73.4673
73.1478
73.4205
74.9347
74.7049
73.6518
73.4873
73.2282
75.0121
73.1965
73.0343
72.572
73.5925
72.8314
72.485
72.5968
72.7009
72.4306
72.2075
73.7993
72.1915
72.4031
72.2663
71.9491
70.7183
70.8838
72.934
70.8123
73.1983
73.0677
72.8051
72.5043
71.9343
71.8728
83.3623
82.4077
71.1583
79.591
74.3767
72.6218
72.2953
71.8772
71.498
71.0332
85.417
90.7256
79.5065
74.9334
79.1498
73.7197
71.7401
72.6108
74.3635
71.0201
72.3293
70.7892
72.3706
70.2971
114.785
72.7436
82.8457
66.329
70.6165
66.9703
68.7899
73.9812
70.0246
69.8654
72.2257
75.7638
69.0643
69.4155
70.3453
89.4664
86.8987
69.3434
68.5051
70.0828
67.9172
72.1798
71.6471
72.4915
72.3217
72.4451
71.7762
71.6881
71.6973
72.394
72.0929
71.7996
71.6351
71.4574
71.7568
70.8945
71.9644
71.3803
72.0443
71.8923
71.7689
71.4233
71.4928
71.3339
71.3144
70.8104
69.8494
69.9854
70.4301
70.1622
69.6803
69.8105
69.7543
69.6366
71.9363
71.4487
71.4758
71.4442
71.0808
71.1068
69.6401
72.8323
72.2487
68.8118
69.0991
68.1819
69.2292
69.5474
69.9159
69.5498
69.3158
69.617
69.2703
69.4505
71.3352
70.812
71.0525
71.1109
70.5521
73.3309
70.5566
69.8057
68.4226
68.9864
68.3313
68.9398
69.6056
69.6083
69.5188
69.3134
69.4679
69.2106
69.4633
70.7723
70.3015
69.9333
70.7369
69.8576
70.081
69.6979
69.9879
69.8192
68.0054
68.9602
68.5782
69.4101
68.8993
69.3537
69.0589
68.7784
69.7961
69.6725
68.7215
68.8602
69.0551
68.8315
68.907
68.6506
68.7565
68.852
68.8536
68.8864
69.1062
71.1082
70.6553
71.2341
71.1805
71.2318
70.7835
70.8083
70.83
71.0522
71.0054
70.6976
70.6072
70.5887
70.4316
70.1287
70.895
70.4701
71.0185
70.8754
70.9177
70.6013
70.6394
70.5001
70.6137
69.8508
69.7289
69.8396
69.9049
69.6821
69.5596
69.7435
69.5736
69.4059
69.4868
69.2984
69.3412
69.4967
69.2001
69.4521
70.9619
70.7297
70.7664
70.5443
70.4505
70.4395
69.4127
69.0793
69.7686
69.3223
69.2456
69.5377
69.5017
69.5327
69.3744
69.4517
69.3262
69.4854
69.2517
69.4154
70.7331
70.2445
70.3469
70.3504
70.0233
69.7481
69.2541
69.5246
69.5267
69.6685
69.2857
69.3986
69.484
69.3794
69.4686
69.2639
69.4542
69.2786
69.4439
69.9983
69.8069
69.6996
69.7868
69.6529
69.6123
69.6499
69.4937
69.4286
69.1606
69.3183
69.2262
69.4875
69.2623
69.3707
69.3647
69.4901
69.3745
69.473
69.43
69.3084
69.4106
69.5623
69.536
69.1266
69.1913
69.4208
69.3953
69.4237
69.1546
69.1592
69.3707
69.3743
69.4058
69.4568
70.3405
70.0815
70.4493
70.4696
70.4609
70.2412
70.1607
70.1658
70.3197
70.2408
70.1262
70.1191
69.9908
69.8861
69.7119
70.1759
69.9497
70.3166
70.2038
70.3028
70.0074
70.0463
69.9669
70.0224
69.5818
69.3376
69.5873
69.4874
69.4759
69.2496
69.4234
69.5546
69.3487
69.4983
69.5715
69.226
69.4561
69.326
69.5183
70.2207
70.1757
70.1454
69.9591
69.892
69.8698
69.1942
69.5151
69.3871
69.031
69.2047
69.4152
69.3937
69.4637
69.3207
69.3922
69.3844
69.4806
69.3069
69.4041
70.055
69.8026
69.8469
69.7942
69.5831
69.4661
69.3193
69.4345
69.4202
69.4329
69.3671
69.4686
69.436
69.3339
69.4096
69.3701
69.4499
69.3446
69.4551
69.6377
69.4438
69.5005
69.1337
69.2315
69.2944
69.3947
68.9989
69.0858
69.3808
69.4533
69.4574
69.4268
69.4642
69.483
69.5385
69.5242
69.499
69.6111
69.4079
69.4028
69.4352
69.4148
69.184
69.5483
69.5478
69.5156
69.5847
69.605
69.5072
69.5214
69.5699
69.5493
69.5918
69.5581
69.876
69.6857
69.978
69.9226
69.9343
69.7299
69.732
69.7371
69.9048
69.8224
69.7414
69.7084
69.674
69.5887
69.5091
69.7421
69.5407
69.82
69.7515
69.7674
69.6228
69.6215
69.5521
69.4876
69.3818
69.2182
69.2904
69.3215
69.3144
69.1367
69.1736
69.3409
68.9456
69.7217
69.67
69.6447
69.5127
69.4662
69.4506
69.5578
69.2116
69.4739
68.9186
69.4284
69.0283
69.3855
69.5161
69.3673
69.45
69.397
69.5105
69.4336
69.4535
69.5832
69.4364
69.4348
69.4212
69.333
69.5348
69.4381
69.692
69.2095
69.511
69.3182
69.7417
69.5038
69.4425
69.4987
69.513
69.5429
69.521
69.5236
69.3303
69.3002
69.3657
69.061
69.0357
69.2121
69.3391
69.1537
69.0975
69.4249
69.4674
69.4971
69.2839
69.3486
69.4102
69.4066
69.2888
69.1468
69.2523
69.5435
69.5664
69.4579
69.4882
69.5123
69.5297
69.5624
69.4839
69.4875
69.5141
69.4911
69.5293
69.4262
69.603
69.5682
69.5945
69.4998
69.4547
69.4844
69.5969
69.5562
69.5163
69.4978
69.4749
69.4645
69.415
69.3682
69.2551
69.4801
69.3855
69.3246
69.3649
69.3867
69.284
69.265
69.2576
69.0729
69.108
69.2678
69.2054
69.056
69.0989
68.8527
68.974
69.3395
69.2995
69.2683
69.2185
69.1945
69.1626
68.9449
69.3071
68.7158
68.8465
68.3596
69.3005
69.2699
69.2098
69.2092
69.2161
69.5036
69.1191
68.8409
68.4032
68.9666
69.2899
69.266
69.3022
69.1945
69.1747
69.2129
69.2463
69.1931
69.2083
69.254
69.3062
69.3044
69.118
69.112
69.2269
69.2052
69.0375
69.3127
69.3095
69.4254
69.4425
69.3662
69.3648
69.3746
69.4171
69.4483
69.3668
69.3599
69.3822
69.3373
69.356
69.2985
69.4123
69.3859
69.3949
69.3482
69.3285
69.3321
69.4014
69.3936
69.3598
69.3296
69.3153
69.3438
69.255
69.19
69.1557
69.3202
69.2149
69.2388
69.2295
69.2684
69.1741
69.2133
69.1616
69.06
69.1139
69.1378
69.1733
69.0711
69.1364
69.0388
69.0676
69.1427
69.1269
69.1036
69.104
69.0807
69.0641
68.8708
68.7331
68.8703
68.9351
68.9375
69.1346
69.1527
69.0767
69.0766
69.0966
68.7311
68.8751
68.9317
68.9421
68.9089
69.2221
69.1646
69.2041
69.1697
69.1952
69.1375
69.175
69.1407
69.1655
69.0241
69.1809
69.1148
69.0331
69.0118
69.1568
69.0987
68.9974
69.2584
69.1992
69.3097
69.3132
69.2433
69.2605
69.2633
69.3186
69.3232
69.2605
69.2762
69.275
69.2474
69.245
69.1944
69.2929
69.2639
69.2762
69.2373
69.2027
69.2225
69.2683
69.2527
69.2243
69.2119
69.2058
69.1937
69.1677
69.1272
69.0994
69.2217
69.1419
69.1841
69.1409
69.1765
69.1103
69.151
69.1929
69.0939
69.1415
69.1419
69.2038
69.1108
69.1364
69.0832
69.093
69.0744
69.0502
69.035
69.0458
69.0291
69.014
68.9922
68.9891
69.0228
69.0344
69.0202
69.0281
69.0512
69.0046
68.9983
69.0195
68.9963
68.9826
69.0327
69.0168
69.0253
69.1087
69.0657
69.1443
69.1046
69.1322
69.0489
69.1127
69.0718
69.1005
69.0466
69.1382
69.1122
69.0574
69.0864
69.1151
69.1152
69.0863
69.1515
69.1179
69.2126
69.2138
69.1402
69.1664
69.1653
69.2216
69.2263
69.1557
69.1673
69.1789
69.1501
69.1489
69.1072
69.182
69.1535
69.1714
69.1273
69.1114
69.12
69.1643
69.1653
69.1203
69.1168
69.1219
69.1547
69.137
69.074
69.0518
69.1346
69.0821
69.1189
69.0705
69.0927
69.0583
69.0893
69.2048
69.0982
69.1149
69.2065
69.175
69.0561
69.067
69.0927
69.0719
69.0249
69.0127
68.9959
69.0121
68.9984
68.982
69.0597
69.0531
69.0914
69.0748
69.0767
68.98
68.9989
68.9785
68.9685
68.9904
69.0386
69.0452
69.0523
69.0549
69.0618
69.0405
69.0271
69.089
69.0478
69.0747
69.0136
69.0752
69.0323
69.0563
69.101
69.0936
69.1014
69.0681
69.0941
69.0781
69.0881
69.0875
69.0925
69.0693
69.122
69.1166
69.0674
69.0853
69.0785
69.1226
69.1315
69.0771
69.0918
69.0938
69.0954
69.068
69.0331
69.0773
69.0728
69.0713
69.0366
69.0399
69.0329
69.065
69.0731
69.0173
69.0124
69.0213
69.105
69.0552
69.0322
69.0135
69.0568
69.0384
69.061
69.0202
69.0269
69.0207
69.0321
69.106
69.0278
69.0123
69.071
69.0117
69.0145
68.9685
69.0379
69.0098
69.0038
68.986
68.9731
68.993
68.9752
68.968
69.0762
69.0812
69.0649
69.0586
69.0695
68.9616
68.982
68.9661
68.9561
68.9731
69.0606
69.0654
69.053
69.0586
69.055
69.0141
68.9986
69.0635
69.0185
69.0424
68.9879
69.0428
69.0031
69.0277
69.0801
69.0614
69.0743
69.0343
69.0594
69.0383
69.0549
69.0629
69.0471
69.0286
69.058
69.0512
69.0232
69.0406
69.034
69.0659
69.0677
69.0368
69.0424
69.0508
69.0477
69.003
68.977
69.0085
69.0054
69.005
68.9918
68.9814
68.9969
68.962
68.9741
68.9307
68.9197
68.9421
69.0099
68.9794
68.9951
68.978
68.9962
69.0051
69.0037
68.9772
68.9696
68.987
68.9758
68.9517
69.0099
68.9555
68.9695
68.9215
69.0062
68.9606
68.9867
68.9789
68.9778
68.9665
68.9623
68.964
68.959
68.9577
69.0314
69.0393
68.9924
69.0023
69.0149
68.9459
68.9639
68.928
68.919
68.9498
69.0484
69.0364
69.0291
69.0313
69.0174
68.9823
68.9636
69.0073
68.987
69.0098
68.9537
68.9754
68.9731
68.9936
69.0334
69.0119
69.0328
68.9889
69.0083
68.9873
69.0123
69.0213
69.0121
68.9963
69.0257
69.0183
68.9948
69.0086
69.0014
69.0196
69.0345
69.0097
69.0009
69.018
68.99
68.9618
68.9516
68.9781
68.967
68.9894
68.966
68.9551
68.9795
68.8937
68.929
68.8917
68.8833
68.93
68.9642
68.9679
68.9631
68.9512
68.9515
68.9693
68.9478
68.958
68.9395
68.9516
68.928
68.942
69.009
68.9716
68.9618
68.9809
69.0155
68.9936
68.9843
68.9864
68.9565
68.9516
68.953
68.9496
68.9373
68.9434
68.9817
68.9952
68.9895
68.98
68.9885
68.8702
68.9246
68.8423
68.8199
68.8968
69.0131
68.9963
68.9884
68.9969
68.9769
68.9405
68.9152
68.9433
68.9602
68.9763
68.9222
68.9124
68.9471
68.96
68.9845
68.9667
68.9906
68.9529
68.965
68.9503
68.9723
68.9746
68.9795
68.962
68.9901
68.9831
68.9648
68.9727
68.9666
68.9859
69.0018
68.9809
68.9765
68.9897
68.9466
68.9458
68.9463
68.9553
68.9478
68.968
68.9521
68.9476
68.9582
68.8778
68.9346
68.8992
68.8794
68.942
68.9814
68.9999
68.9437
68.9432
68.9308
68.9445
68.921
68.96
68.9237
68.9536
68.9167
69.0357
69.041
69.0578
69.0219
69.0861
69.0691
69.1261
69.0638
69.1643
68.9432
68.9196
68.9312
68.9424
68.9242
68.9366
68.9948
68.9947
69.0812
69.0161
69.0067
68.8059
68.8823
68.8473
68.8394
68.8868
68.9853
68.9621
68.9673
68.9774
68.9547
68.8962
68.8964
68.8844
68.9347
68.9444
68.9064
68.8617
68.9264
68.9311
68.9496
68.9416
68.9569
68.9451
68.9396
68.9362
68.9431
68.9449
68.9462
68.9322
68.9571
68.9517
68.937
68.9429
68.939
68.9687
68.9765
68.9642
68.9605
68.9687
68.95
68.9559
68.9685
68.958
68.9534
68.9503
68.9748
68.9652
68.9556
68.8965
68.9651
68.9823
68.9514
69.0075
69.0246
69.0457
68.9523
68.9623
68.9191
68.9735
68.9127
68.9786
68.9161
68.9882
68.9103
69.1056
69.0671
69.151
69.0548
69.13
69.0516
69.1511
69.1781
69.1222
68.9486
68.9425
68.9443
68.9597
68.9634
68.9543
69.0223
69.0124
69.0628
69.0103
69.0057
68.8991
68.9038
68.9355
68.9349
68.9208
68.9623
68.9466
68.9525
68.9572
68.9401
68.9103
68.924
68.8563
68.9224
68.9227
68.9215
68.8645
68.9215
68.9174
68.9293
68.9163
68.9234
68.9215
68.9179
68.8862
68.9081
68.9265
68.9228
68.9181
68.9278
68.9266
68.9182
68.9164
68.9158
68.947
68.9623
68.9474
68.9342
68.9538
68.9088
68.9739
68.9706
68.9982
68.9746
68.9731
69.0055
68.9721
68.9734
69.031
69.0735
69.098
69.0678
69.1098
69.0707
69.0928
68.9725
68.9812
68.9175
68.9899
68.9106
68.9885
68.9258
68.9858
68.918
69.1345
69.0301
69.1223
69.1068
69.127
69.0098
69.0901
69.0789
69.0549
68.9728
68.9812
68.9639
68.9806
68.9964
68.9775
68.9904
68.99
69.0063
68.9715
68.9736
68.9513
68.9355
68.9823
68.976
68.9488
68.9453
68.9288
68.9258
68.9337
68.9138
68.9352
68.9467
68.8887
68.9279
68.9194
68.9488
68.9162
68.9368
68.9241
68.8859
68.8685
68.8682
68.8876
68.8467
68.8556
68.8355
68.8708
68.9182
68.9207
68.9078
68.9081
68.9107
68.9048
68.9034
68.9258
68.9434
68.9312
68.9257
68.9361
68.8663
68.9548
68.9331
68.9958
68.962
68.968
68.9739
68.9381
68.9539
69.0518
69.097
69.0637
69.0285
69.0697
69.0769
69.0438
68.9819
68.97
68.931
68.9772
68.9197
68.9861
68.9221
68.9594
68.9095
69.1221
69.001
69.067
69.0667
69.1038
68.981
69.0383
69.0342
69.0039
68.9832
69.0038
68.9918
68.9789
68.9989
68.991
68.9556
68.9581
68.956
68.9343
68.939
69.0016
68.9618
69.0224
69.0084
68.9716
68.9191
68.8997
68.896
68.9045
68.8875
68.9591
68.9707
68.9356
68.9426
68.9269
68.9696
68.9473
68.9461
68.925
68.8014
68.8542
68.8283
68.8551
68.8
68.8515
68.8315
68.836
68.9214
68.917
68.8991
68.8985
68.8996
68.8951
68.8923
68.9164
68.9308
68.9133
68.908
68.9199
68.8664
68.9029
68.8699
68.9441
68.9104
68.9317
68.908
68.8805
68.9004
68.9947
69.0314
68.9611