/*--------------------------------*- C++ -*----------------------------------*\
| =========                 |                                                 |
| \\      /  F ield         | OpenFOAM: The Open Source CFD Toolbox           |
|  \\    /   O peration     | Version:  5.x                                   |
|   \\  /    A nd           | Web:      www.OpenFOAM.org                      |
|    \\/     M anipulation  |                                                 |
\*---------------------------------------------------------------------------*/
FoamFile
{
    version     2.0;
    format      ascii;
    class       volVectorField;
    location    "7.05";
    object      Us;
}
// * * * * * * * * * * * * * * * * * * * * * * * * * * * * * * * * * * * * * //

dimensions      [0 1 -1 0 0 0 0];

internalField   nonuniform List<vector> 
10571
(
(-0.0277765 -0.0085549 -0.0706886)
(0.0143224 0.0206382 -0.0259922)
(-0.0175545 0.0283986 0.00236462)
(-0.0851484 0.0268848 -0.0398394)
(-0.0612004 -0.00999588 -0.0574241)
(0.0785667 0.0419011 0.0307413)
(-0.00874149 0.0583945 -0.00752343)
(-0.101442 0.087611 -0.0768037)
(-0.0861063 0.0914054 -0.106877)
(0.0191456 0.0846463 -0.049036)
(0.0199458 -0.0183002 -0.0469117)
(0.154401 -0.0357682 0.0527368)
(0.153424 -0.0355906 0.0756021)
(-0.103642 0.137101 -0.280294)
(-0.0478067 0.190191 -0.242923)
(-0.0107325 0.0949364 -0.0179635)
(0.0840054 -0.0404995 -0.079616)
(0.230887 -0.115688 0.0352149)
(0.129104 -0.0579712 0.0560919)
(-0.00172596 0.0334726 0.00532081)
(-0.0099854 0.0464594 -0.0296834)
(0.105615 -0.0283547 -0.0836189)
(0.0598301 -0.0841048 0.0165404)
(-0.0169422 -0.0100544 -0.0248762)
(-0.0242628 0.00752708 -0.177307)
(-0.101576 0.0780332 -0.264068)
(-0.0985538 0.0504724 -0.220538)
(-0.0305538 0.045713 -0.236593)
(-0.031332 0.0332973 -0.215045)
(-0.152579 0.109457 -0.229785)
(-0.079476 0.112497 -0.177792)
(-0.0564709 0.105423 -0.280082)
(-0.0871758 0.0722702 -0.265592)
(-0.0182908 0.0432686 -0.198063)
(0.00851505 -5.11993e-05 -0.0984863)
(0.0400356 -0.0346339 -0.0452887)
(-0.120689 0.136442 -0.21679)
(-0.105277 0.0992252 -0.265349)
(-0.0883625 0.0683676 -0.250668)
(-0.0408133 0.0477429 -0.229931)
(0.00829987 -0.00996559 -0.159615)
(-0.0571391 0.0960575 -0.20111)
(-0.073197 0.148807 -0.155729)
(-0.000817291 0.155597 -0.13965)
(0.0232574 0.0832495 -0.087348)
(0.0344169 0.0114886 -0.177843)
(-0.0254541 0.0544425 -0.171966)
(-0.0452704 0.0119408 -0.125513)
(-0.0178459 0.0125949 -0.206291)
(-0.0812866 0.0611998 -0.134243)
(-0.0470776 0.0407033 -0.106784)
(0 0 0)
(0 0 0)
(-0.123788 0.11008 -0.0927869)
(-0.0420088 0.112887 -0.144853)
(-0.0406975 0.105043 -0.224152)
(-0.118609 -0.0980117 -0.283821)
(0 0 0)
(0.000958372 0.0157362 -0.142004)
(-0.160601 0.121509 -0.0666756)
(-0.0800903 0.109522 -0.182583)
(-0.137669 0.0464441 -0.212998)
(-0.134788 0.00835709 -0.160725)
(-0.0279068 0.00630121 -0.193635)
(-0.0252366 0.0160397 -0.152493)
(-0.0853279 0.0656624 -0.162509)
(-0.13237 0.0712807 -0.138164)
(-0.0524531 0.0704406 -0.0400406)
(0.0306742 0.0207797 0.102365)
(-0.0274116 0.0159972 -0.144391)
(-0.0663942 0.0247823 -0.11894)
(-0.0267786 0.0214365 0.0124354)
(0 0 0)
(-0.0192487 0.0152042 -0.0729623)
(0.0630965 -0.0874655 -0.151198)
(0 0 0)
(0 0 0)
(-0.0946177 0.0719003 0.0130158)
(-0.0241027 0.113075 -0.0858069)
(0 0 0)
(0 0 0)
(0 0 0)
(-0.00128813 0.0352953 -0.101956)
(-0.0830186 0.177704 -0.00314465)
(-0.0386848 0.0956627 -0.116614)
(-0.191631 -0.0127519 -0.114961)
(-0.153709 -0.0365421 -0.0530432)
(-0.0307469 -0.0234861 -0.165726)
(-0.0144703 0.0289877 -0.0908648)
(-0.0686596 0.0312383 -0.100033)
(-0.182561 0.0241895 -0.0630378)
(-0.104186 -0.0305797 0.0115272)
(0.0333261 -0.0184442 0.219797)
(-0.0352868 0.00205761 -0.0819437)
(-0.0864779 0.0123572 -0.0786719)
(-0.0259885 0.0174731 0.122571)
(0 0 0)
(0.012358 -0.0263814 -0.0532083)
(0 0 0)
(0 0 0)
(0 0 0)
(-0.0363938 0.0137752 0.0360373)
(0 0 0)
(0 0 0)
(0 0 0)
(0 0 0)
(-0.00261255 0.0321111 -0.0468306)
(-0.0232999 0.118964 0.0598415)
(-0.00555142 0.0540295 -0.085845)
(-0.224173 -0.0595267 0.00259085)
(-0.138932 -0.0696977 0.0498457)
(-0.0777322 0.00455938 -0.199071)
(0.00033631 0.0369557 -0.0332543)
(-0.0412282 0.00825351 -0.0356203)
(-0.210523 -0.0168354 0.0252564)
(-0.182954 -0.0681248 0.0912278)
(0 0 0)
(-0.0328212 -0.00378146 -0.0318167)
(-0.122971 0.00976487 -0.0177966)
(-0.0527819 0.0218565 0.209582)
(0 0 0)
(-2.50705e-14 2.25388e-14 2.26162e-14)
(0 0 0)
(0 0 0)
(0 0 0)
(-0.0288651 -0.00791409 0.0349573)
(0 0 0)
(0 0 0)
(0 0 0)
(0 0 0)
(-0.00690682 0.00291692 -0.00132359)
(-0.00442045 0.0238946 -0.00722092)
(-0.0218341 0.0648716 0.0635811)
(0.0019397 0.0371263 -0.0475079)
(0.0921006 -0.12246 -0.07396)
(-0.105367 -0.0814364 0.181219)
(0 0 0)
(-0.00332338 -0.00120168 -0.000883238)
(0.00507945 0.0437066 0.0101234)
(-0.0147027 0.00983951 0.00961246)
(-0.195891 -0.00515231 0.143298)
(-0.157194 -0.0355525 0.156845)
(-0.0143463 -0.0768744 0.339109)
(-0.0173536 -9.36758e-05 0.0123509)
(-0.150216 0.0197889 0.0728989)
(-0.155611 0.0382375 0.22901)
(0 0 0)
(0 0 0)
(0 0 0)
(0 0 0)
(0 0 0)
(0 0 0)
(0 0 0)
(0 0 0)
(0 0 0)
(0 0 0)
(0 0 0)
(-0.0126845 0.0316007 0.033624)
(-0.0228445 0.0690671 0.0560942)
(-0.029448 -0.0351486 -0.023533)
(0.142942 -0.080372 -0.00399944)
(0 0 0)
(0 0 0)
(0 0 0)
(-0.000970811 0.0482774 0.0447943)
(-0.010146 0.0233992 0.0243294)
(0.0741065 0.0116476 0.0165234)
(0 0 0)
(0 0 0)
(0 0 0)
(-0.00729558 0.0272369 0.0446334)
(-0.0331417 0.000467746 0.101704)
(-0.126188 0.0707514 0.218845)
(0 0 0)
(0 0 0)
(0 0 0)
(0 0 0)
(0 0 0)
(0 0 0)
(0 0 0)
(0 0 0)
(0 0 0)
(0 0 0)
(0 0 0)
(0 0 0)
(0 0 0)
(0 0 0)
(0 0 0)
(0 0 0)
(0 0 0)
(0 0 0)
(0.0200779 0.0435483 0.104792)
(0.0148875 0.14761 0.0269752)
(0 0 0)
(0 0 0)
(0 0 0)
(0 0 0)
(0 0 0)
(0 0 0)
(0 0 0)
(0 0 0)
(0 0 0)
(0 0 0)
(0 0 0)
(0 0 0)
(0 0 0)
(0 0 0)
(0 0 0)
(0 0 0)
(0 0 0)
(0 0 0)
(0 0 0)
(0 0 0)
(0 0 0)
(0 0 0)
(0 0 0)
(0 0 0)
(0 0 0)
(0 0 0)
(0 0 0)
(0 0 0)
(0 0 0)
(0 0 0)
(0 0 0)
(0 0 0)
(0 0 0)
(0 0 0)
(0 0 0)
(0 0 0)
(0 0 0)
(0 0 0)
(0 0 0)
(0 0 0)
(0 0 0)
(0 0 0)
(0 0 0)
(0 0 0)
(0 0 0)
(0 0 0)
(0 0 0)
(0 0 0)
(0 0 0)
(0 0 0)
(0 0 0)
(0 0 0)
(0 0 0)
(0 0 0)
(0 0 0)
(0 0 0)
(0 0 0)
(0 0 0)
(0 0 0)
(0 0 0)
(0 0 0)
(0 0 0)
(0 0 0)
(0 0 0)
(0 0 0)
(0 0 0)
(0 0 0)
(0 0 0)
(0 0 0)
(0 0 0)
(0 0 0)
(0 0 0)
(0 0 0)
(0 0 0)
(0 0 0)
(0 0 0)
(0 0 0)
(0 0 0)
(0 0 0)
(0 0 0)
(0 0 0)
(0 0 0)
(0 0 0)
(0 0 0)
(0 0 0)
(0 0 0)
(0 0 0)
(0 0 0)
(0 0 0)
(0 0 0)
(0 0 0)
(0 0 0)
(0 0 0)
(0 0 0)
(0 0 0)
(0 0 0)
(0 0 0)
(0 0 0)
(0 0 0)
(0 0 0)
(0 0 0)
(0 0 0)
(0 0 0)
(0 0 0)
(0 0 0)
(0 0 0)
(0 0 0)
(0 0 0)
(0 0 0)
(0 0 0)
(0 0 0)
(0 0 0)
(0 0 0)
(0 0 0)
(0 0 0)
(0 0 0)
(0 0 0)
(0 0 0)
(0 0 0)
(0 0 0)
(0 0 0)
(0 0 0)
(0 0 0)
(0 0 0)
(0 0 0)
(0 0 0)
(0 0 0)
(0 0 0)
(0 0 0)
(0 0 0)
(0 0 0)
(0 0 0)
(0 0 0)
(0 0 0)
(0 0 0)
(0 0 0)
(0 0 0)
(0 0 0)
(0 0 0)
(0 0 0)
(0 0 0)
(0 0 0)
(0 0 0)
(0 0 0)
(0 0 0)
(0 0 0)
(0 0 0)
(0 0 0)
(0 0 0)
(0 0 0)
(0 0 0)
(0 0 0)
(0 0 0)
(0 0 0)
(0 0 0)
(0 0 0)
(0 0 0)
(0 0 0)
(0 0 0)
(0 0 0)
(0 0 0)
(0 0 0)
(0 0 0)
(0 0 0)
(0 0 0)
(0 0 0)
(0 0 0)
(0 0 0)
(0 0 0)
(0 0 0)
(0 0 0)
(0 0 0)
(0 0 0)
(0 0 0)
(0 0 0)
(0 0 0)
(0 0 0)
(0 0 0)
(0 0 0)
(0 0 0)
(0 0 0)
(0 0 0)
(0 0 0)
(0 0 0)
(0 0 0)
(0 0 0)
(0 0 0)
(0 0 0)
(0 0 0)
(0 0 0)
(0 0 0)
(0 0 0)
(0 0 0)
(0 0 0)
(0 0 0)
(0 0 0)
(0 0 0)
(0 0 0)
(0 0 0)
(0 0 0)
(0 0 0)
(0 0 0)
(0 0 0)
(0 0 0)
(0 0 0)
(0 0 0)
(0 0 0)
(0 0 0)
(0 0 0)
(0 0 0)
(0 0 0)
(0 0 0)
(0 0 0)
(0 0 0)
(0 0 0)
(0 0 0)
(0 0 0)
(0 0 0)
(0 0 0)
(0 0 0)
(0 0 0)
(0 0 0)
(0 0 0)
(0 0 0)
(0 0 0)
(0 0 0)
(0 0 0)
(0 0 0)
(0 0 0)
(0 0 0)
(0 0 0)
(0 0 0)
(0 0 0)
(0 0 0)
(0 0 0)
(0 0 0)
(0 0 0)
(0 0 0)
(0 0 0)
(0 0 0)
(0 0 0)
(0 0 0)
(0 0 0)
(0 0 0)
(0 0 0)
(0 0 0)
(0 0 0)
(0 0 0)
(0 0 0)
(0 0 0)
(0 0 0)
(0 0 0)
(0 0 0)
(0 0 0)
(0 0 0)
(0 0 0)
(0 0 0)
(0 0 0)
(0 0 0)
(0 0 0)
(0 0 0)
(0 0 0)
(0 0 0)
(0 0 0)
(0 0 0)
(0 0 0)
(0 0 0)
(0 0 0)
(0 0 0)
(0 0 0)
(0 0 0)
(0 0 0)
(0 0 0)
(0 0 0)
(0 0 0)
(0 0 0)
(0 0 0)
(0 0 0)
(0 0 0)
(0 0 0)
(0 0 0)
(0 0 0)
(0 0 0)
(0 0 0)
(0 0 0)
(0 0 0)
(0 0 0)
(0 0 0)
(0 0 0)
(0 0 0)
(0 0 0)
(0 0 0)
(0 0 0)
(0 0 0)
(0 0 0)
(0 0 0)
(0 0 0)
(0 0 0)
(0 0 0)
(0 0 0)
(0 0 0)
(0 0 0)
(0 0 0)
(0 0 0)
(0 0 0)
(0 0 0)
(0 0 0)
(0 0 0)
(0 0 0)
(0 0 0)
(0 0 0)
(0 0 0)
(0 0 0)
(0 0 0)
(0 0 0)
(0 0 0)
(0 0 0)
(0 0 0)
(0 0 0)
(0 0 0)
(0 0 0)
(0 0 0)
(0 0 0)
(0 0 0)
(0 0 0)
(0 0 0)
(0 0 0)
(0 0 0)
(0 0 0)
(0 0 0)
(0 0 0)
(0 0 0)
(0 0 0)
(0 0 0)
(0 0 0)
(0 0 0)
(0 0 0)
(0 0 0)
(0 0 0)
(0 0 0)
(0 0 0)
(0 0 0)
(0 0 0)
(0 0 0)
(0 0 0)
(0 0 0)
(0 0 0)
(0 0 0)
(0 0 0)
(0 0 0)
(0 0 0)
(0 0 0)
(0 0 0)
(0 0 0)
(0 0 0)
(0 0 0)
(0 0 0)
(0 0 0)
(0 0 0)
(0 0 0)
(0 0 0)
(0 0 0)
(0 0 0)
(0 0 0)
(0 0 0)
(0 0 0)
(0 0 0)
(0 0 0)
(0 0 0)
(0 0 0)
(0 0 0)
(0 0 0)
(0 0 0)
(0 0 0)
(0 0 0)
(0 0 0)
(0 0 0)
(0 0 0)
(0 0 0)
(0 0 0)
(0 0 0)
(0 0 0)
(0 0 0)
(0 0 0)
(0 0 0)
(0 0 0)
(0 0 0)
(0 0 0)
(0 0 0)
(0 0 0)
(0 0 0)
(0 0 0)
(0 0 0)
(0 0 0)
(0 0 0)
(0 0 0)
(0 0 0)
(0 0 0)
(0 0 0)
(0 0 0)
(0 0 0)
(0 0 0)
(0 0 0)
(0 0 0)
(0 0 0)
(0 0 0)
(0 0 0)
(0 0 0)
(0 0 0)
(0 0 0)
(0 0 0)
(0 0 0)
(0 0 0)
(0 0 0)
(0 0 0)
(0 0 0)
(0 0 0)
(0 0 0)
(0 0 0)
(0 0 0)
(0 0 0)
(0 0 0)
(0 0 0)
(0 0 0)
(0 0 0)
(0 0 0)
(0 0 0)
(0 0 0)
(0 0 0)
(0 0 0)
(0 0 0)
(0 0 0)
(0 0 0)
(0 0 0)
(0 0 0)
(0 0 0)
(0 0 0)
(0 0 0)
(0 0 0)
(0 0 0)
(0 0 0)
(0 0 0)
(0 0 0)
(0 0 0)
(0 0 0)
(0 0 0)
(0 0 0)
(0 0 0)
(0 0 0)
(0 0 0)
(0 0 0)
(0 0 0)
(0 0 0)
(0 0 0)
(0 0 0)
(0 0 0)
(0 0 0)
(0 0 0)
(0 0 0)
(0 0 0)
(0 0 0)
(0 0 0)
(0 0 0)
(0 0 0)
(0 0 0)
(0 0 0)
(0 0 0)
(0 0 0)
(0 0 0)
(0 0 0)
(0 0 0)
(0 0 0)
(0 0 0)
(0 0 0)
(0 0 0)
(0 0 0)
(0 0 0)
(0 0 0)
(0 0 0)
(0 0 0)
(0 0 0)
(0 0 0)
(0 0 0)
(0 0 0)
(0 0 0)
(0 0 0)
(0 0 0)
(0 0 0)
(0 0 0)
(0 0 0)
(0 0 0)
(0 0 0)
(0 0 0)
(0 0 0)
(0 0 0)
(0 0 0)
(0 0 0)
(0 0 0)
(0 0 0)
(0 0 0)
(0 0 0)
(0 0 0)
(0 0 0)
(0 0 0)
(0 0 0)
(0 0 0)
(0 0 0)
(0 0 0)
(0 0 0)
(0 0 0)
(0 0 0)
(0 0 0)
(0 0 0)
(0 0 0)
(0 0 0)
(0 0 0)
(0 0 0)
(0 0 0)
(0 0 0)
(0 0 0)
(0 0 0)
(0 0 0)
(0 0 0)
(0 0 0)
(0 0 0)
(0 0 0)
(0 0 0)
(0 0 0)
(0 0 0)
(0 0 0)
(0 0 0)
(0 0 0)
(0 0 0)
(0 0 0)
(0 0 0)
(0 0 0)
(0 0 0)
(0 0 0)
(0 0 0)
(0 0 0)
(0 0 0)
(0 0 0)
(0 0 0)
(0 0 0)
(0 0 0)
(0 0 0)
(0 0 0)
(0 0 0)
(0 0 0)
(0 0 0)
(0 0 0)
(0 0 0)
(0 0 0)
(0 0 0)
(0 0 0)
(0 0 0)
(0 0 0)
(0 0 0)
(0 0 0)
(0 0 0)
(0 0 0)
(0 0 0)
(0 0 0)
(0 0 0)
(0 0 0)
(0 0 0)
(0 0 0)
(0 0 0)
(0 0 0)
(0 0 0)
(0 0 0)
(0 0 0)
(0 0 0)
(0 0 0)
(0 0 0)
(0 0 0)
(0 0 0)
(0 0 0)
(0 0 0)
(0 0 0)
(0 0 0)
(0 0 0)
(0 0 0)
(0 0 0)
(0 0 0)
(0 0 0)
(0 0 0)
(0 0 0)
(0 0 0)
(0 0 0)
(0 0 0)
(0 0 0)
(0 0 0)
(0 0 0)
(0 0 0)
(0 0 0)
(0 0 0)
(0 0 0)
(0 0 0)
(0 0 0)
(0 0 0)
(0 0 0)
(0 0 0)
(0 0 0)
(0 0 0)
(0 0 0)
(0 0 0)
(0 0 0)
(0 0 0)
(0 0 0)
(0 0 0)
(0 0 0)
(0 0 0)
(0 0 0)
(0 0 0)
(0 0 0)
(0 0 0)
(0 0 0)
(0 0 0)
(0 0 0)
(0 0 0)
(0 0 0)
(0 0 0)
(0 0 0)
(0 0 0)
(0 0 0)
(0 0 0)
(0 0 0)
(0 0 0)
(0 0 0)
(0 0 0)
(0 0 0)
(0 0 0)
(0 0 0)
(0 0 0)
(0 0 0)
(0 0 0)
(0 0 0)
(0 0 0)
(0 0 0)
(0 0 0)
(0 0 0)
(0 0 0)
(0 0 0)
(0 0 0)
(0 0 0)
(0 0 0)
(0 0 0)
(0 0 0)
(0 0 0)
(0 0 0)
(0 0 0)
(0 0 0)
(0 0 0)
(0 0 0)
(0 0 0)
(0 0 0)
(0 0 0)
(0 0 0)
(0 0 0)
(0 0 0)
(0 0 0)
(0 0 0)
(0 0 0)
(0 0 0)
(0 0 0)
(0 0 0)
(0 0 0)
(0 0 0)
(0 0 0)
(0 0 0)
(0 0 0)
(0 0 0)
(0 0 0)
(0 0 0)
(0 0 0)
(0 0 0)
(0 0 0)
(0 0 0)
(0 0 0)
(0 0 0)
(0 0 0)
(0 0 0)
(0 0 0)
(0 0 0)
(0 0 0)
(0 0 0)
(0 0 0)
(0 0 0)
(0 0 0)
(0 0 0)
(0 0 0)
(0 0 0)
(0 0 0)
(0 0 0)
(0 0 0)
(0 0 0)
(0 0 0)
(0 0 0)
(0 0 0)
(0 0 0)
(0 0 0)
(0 0 0)
(0 0 0)
(0 0 0)
(0 0 0)
(0 0 0)
(0 0 0)
(0 0 0)
(0 0 0)
(0 0 0)
(0 0 0)
(0 0 0)
(0 0 0)
(0 0 0)
(0 0 0)
(0 0 0)
(0 0 0)
(0 0 0)
(0 0 0)
(0 0 0)
(0 0 0)
(0 0 0)
(0 0 0)
(0 0 0)
(0 0 0)
(0 0 0)
(0 0 0)
(0 0 0)
(0 0 0)
(0 0 0)
(0 0 0)
(0 0 0)
(0 0 0)
(0 0 0)
(0 0 0)
(0 0 0)
(0 0 0)
(0 0 0)
(0 0 0)
(0 0 0)
(0 0 0)
(0 0 0)
(0 0 0)
(0 0 0)
(0 0 0)
(0 0 0)
(0 0 0)
(0 0 0)
(0 0 0)
(0 0 0)
(0 0 0)
(0 0 0)
(0 0 0)
(0 0 0)
(0 0 0)
(0 0 0)
(0 0 0)
(0 0 0)
(0 0 0)
(0 0 0)
(0 0 0)
(0 0 0)
(0 0 0)
(0 0 0)
(0 0 0)
(0 0 0)
(0 0 0)
(0 0 0)
(0 0 0)
(0 0 0)
(0 0 0)
(0 0 0)
(0 0 0)
(0 0 0)
(0 0 0)
(0 0 0)
(0 0 0)
(0 0 0)
(0 0 0)
(0 0 0)
(0 0 0)
(0 0 0)
(0 0 0)
(0 0 0)
(0 0 0)
(0 0 0)
(0 0 0)
(0 0 0)
(0 0 0)
(0 0 0)
(0 0 0)
(0 0 0)
(0 0 0)
(0 0 0)
(0 0 0)
(0 0 0)
(0 0 0)
(0 0 0)
(0 0 0)
(0 0 0)
(0 0 0)
(0 0 0)
(0 0 0)
(0 0 0)
(0 0 0)
(0 0 0)
(0 0 0)
(0 0 0)
(0 0 0)
(0 0 0)
(0 0 0)
(0 0 0)
(0 0 0)
(0 0 0)
(0 0 0)
(0 0 0)
(0 0 0)
(0 0 0)
(0 0 0)
(0 0 0)
(0 0 0)
(0 0 0)
(0 0 0)
(0 0 0)
(0 0 0)
(0 0 0)
(0 0 0)
(0 0 0)
(0 0 0)
(0 0 0)
(0 0 0)
(0 0 0)
(0 0 0)
(0 0 0)
(0 0 0)
(0 0 0)
(0 0 0)
(0 0 0)
(0 0 0)
(0 0 0)
(0 0 0)
(0 0 0)
(0 0 0)
(0 0 0)
(0 0 0)
(0 0 0)
(0 0 0)
(0 0 0)
(0 0 0)
(0 0 0)
(0 0 0)
(0 0 0)
(0 0 0)
(0 0 0)
(0 0 0)
(0 0 0)
(0 0 0)
(0 0 0)
(0 0 0)
(0 0 0)
(0 0 0)
(0 0 0)
(0 0 0)
(0 0 0)
(0 0 0)
(0 0 0)
(0 0 0)
(0 0 0)
(0 0 0)
(0 0 0)
(0 0 0)
(0 0 0)
(0 0 0)
(0 0 0)
(0 0 0)
(0 0 0)
(0 0 0)
(0 0 0)
(0 0 0)
(0 0 0)
(0 0 0)
(0 0 0)
(0 0 0)
(0 0 0)
(0 0 0)
(0 0 0)
(0 0 0)
(0 0 0)
(0 0 0)
(0 0 0)
(0 0 0)
(0 0 0)
(0 0 0)
(0 0 0)
(0 0 0)
(0 0 0)
(0 0 0)
(0 0 0)
(0 0 0)
(0 0 0)
(0 0 0)
(0 0 0)
(0 0 0)
(0 0 0)
(0 0 0)
(0 0 0)
(0 0 0)
(0 0 0)
(0 0 0)
(0 0 0)
(0 0 0)
(0 0 0)
(0 0 0)
(0 0 0)
(0 0 0)
(0 0 0)
(0 0 0)
(0 0 0)
(0 0 0)
(0 0 0)
(0 0 0)
(0 0 0)
(0 0 0)
(0 0 0)
(0 0 0)
(0 0 0)
(0 0 0)
(0 0 0)
(0 0 0)
(0 0 0)
(0 0 0)
(0 0 0)
(0 0 0)
(0 0 0)
(0 0 0)
(0 0 0)
(0 0 0)
(0 0 0)
(0 0 0)
(0 0 0)
(0 0 0)
(0 0 0)
(0 0 0)
(0 0 0)
(0 0 0)
(0 0 0)
(0 0 0)
(0 0 0)
(0 0 0)
(0 0 0)
(0 0 0)
(0 0 0)
(0 0 0)
(0 0 0)
(0 0 0)
(0 0 0)
(0 0 0)
(0 0 0)
(0 0 0)
(0 0 0)
(0 0 0)
(0 0 0)
(0 0 0)
(0 0 0)
(0 0 0)
(0 0 0)
(0 0 0)
(0 0 0)
(0 0 0)
(0 0 0)
(0 0 0)
(0 0 0)
(0 0 0)
(0 0 0)
(0 0 0)
(0 0 0)
(0 0 0)
(0 0 0)
(0 0 0)
(0 0 0)
(0 0 0)
(0 0 0)
(0 0 0)
(0 0 0)
(0 0 0)
(0 0 0)
(0 0 0)
(0 0 0)
(0 0 0)
(0 0 0)
(0 0 0)
(0 0 0)
(0 0 0)
(0 0 0)
(0 0 0)
(0 0 0)
(0 0 0)
(0 0 0)
(0 0 0)
(0 0 0)
(0 0 0)
(0 0 0)
(0 0 0)
(0 0 0)
(0 0 0)
(0 0 0)
(0 0 0)
(0 0 0)
(0 0 0)
(0 0 0)
(0 0 0)
(0 0 0)
(0 0 0)
(0 0 0)
(0 0 0)
(0 0 0)
(0 0 0)
(0 0 0)
(0 0 0)
(0 0 0)
(0 0 0)
(0 0 0)
(0 0 0)
(0 0 0)
(0 0 0)
(0 0 0)
(0 0 0)
(0 0 0)
(0 0 0)
(0 0 0)
(0 0 0)
(0 0 0)
(0 0 0)
(0 0 0)
(0 0 0)
(0 0 0)
(0 0 0)
(0 0 0)
(0 0 0)
(0 0 0)
(0 0 0)
(0 0 0)
(0 0 0)
(0 0 0)
(0 0 0)
(0 0 0)
(0 0 0)
(0 0 0)
(0 0 0)
(0 0 0)
(0 0 0)
(0 0 0)
(0 0 0)
(0 0 0)
(0 0 0)
(0 0 0)
(0 0 0)
(0 0 0)
(0 0 0)
(0 0 0)
(0 0 0)
(0 0 0)
(0 0 0)
(0 0 0)
(0 0 0)
(0 0 0)
(0 0 0)
(0 0 0)
(0 0 0)
(0 0 0)
(0 0 0)
(0 0 0)
(0 0 0)
(0 0 0)
(0 0 0)
(0 0 0)
(0 0 0)
(0 0 0)
(0 0 0)
(0 0 0)
(0 0 0)
(0 0 0)
(0 0 0)
(0 0 0)
(0 0 0)
(0 0 0)
(0 0 0)
(0 0 0)
(0 0 0)
(0 0 0)
(0 0 0)
(0 0 0)
(0 0 0)
(0 0 0)
(0 0 0)
(0 0 0)
(0 0 0)
(0 0 0)
(0 0 0)
(0 0 0)
(0 0 0)
(0 0 0)
(0 0 0)
(0 0 0)
(0 0 0)
(0 0 0)
(0 0 0)
(0 0 0)
(0 0 0)
(0 0 0)
(0 0 0)
(0 0 0)
(0 0 0)
(0 0 0)
(0 0 0)
(0 0 0)
(0 0 0)
(0 0 0)
(0 0 0)
(0 0 0)
(0 0 0)
(0 0 0)
(0 0 0)
(0 0 0)
(0 0 0)
(0 0 0)
(0 0 0)
(0 0 0)
(0 0 0)
(0 0 0)
(0 0 0)
(0 0 0)
(0 0 0)
(0 0 0)
(0 0 0)
(0 0 0)
(0 0 0)
(0 0 0)
(0 0 0)
(0 0 0)
(0 0 0)
(0 0 0)
(0 0 0)
(0 0 0)
(0 0 0)
(0 0 0)
(0 0 0)
(0 0 0)
(0 0 0)
(0 0 0)
(0 0 0)
(0 0 0)
(0 0 0)
(0 0 0)
(0 0 0)
(0 0 0)
(0 0 0)
(0 0 0)
(0 0 0)
(0 0 0)
(0 0 0)
(0 0 0)
(0 0 0)
(0 0 0)
(0 0 0)
(0 0 0)
(0 0 0)
(0 0 0)
(0 0 0)
(0 0 0)
(0 0 0)
(0 0 0)
(0 0 0)
(0 0 0)
(0 0 0)
(0 0 0)
(0 0 0)
(0 0 0)
(0 0 0)
(0 0 0)
(0 0 0)
(0 0 0)
(0 0 0)
(0 0 0)
(0 0 0)
(0 0 0)
(0 0 0)
(0 0 0)
(0 0 0)
(0 0 0)
(0 0 0)
(0 0 0)
(0 0 0)
(0 0 0)
(0 0 0)
(0 0 0)
(0 0 0)
(0 0 0)
(0 0 0)
(0 0 0)
(0 0 0)
(0 0 0)
(0 0 0)
(0 0 0)
(0 0 0)
(0 0 0)
(0 0 0)
(0 0 0)
(0 0 0)
(0 0 0)
(0 0 0)
(0 0 0)
(0 0 0)
(0 0 0)
(0 0 0)
(0 0 0)
(0 0 0)
(0 0 0)
(0 0 0)
(0 0 0)
(0 0 0)
(0 0 0)
(0 0 0)
(0 0 0)
(0 0 0)
(0 0 0)
(0 0 0)
(0 0 0)
(0 0 0)
(0 0 0)
(0 0 0)
(0 0 0)
(0 0 0)
(0 0 0)
(0 0 0)
(0 0 0)
(0 0 0)
(0 0 0)
(0 0 0)
(0 0 0)
(0 0 0)
(0 0 0)
(0 0 0)
(0 0 0)
(0 0 0)
(0 0 0)
(0 0 0)
(0 0 0)
(0 0 0)
(0 0 0)
(0 0 0)
(0 0 0)
(0 0 0)
(0 0 0)
(0 0 0)
(0 0 0)
(0 0 0)
(0 0 0)
(0 0 0)
(0 0 0)
(0 0 0)
(0 0 0)
(0 0 0)
(0 0 0)
(0 0 0)
(0 0 0)
(0 0 0)
(0 0 0)
(0 0 0)
(0 0 0)
(0 0 0)
(0 0 0)
(0 0 0)
(0 0 0)
(0 0 0)
(0 0 0)
(0 0 0)
(0 0 0)
(0 0 0)
(0 0 0)
(0 0 0)
(0 0 0)
(0 0 0)
(0 0 0)
(0 0 0)
(0 0 0)
(0 0 0)
(0 0 0)
(0 0 0)
(0 0 0)
(0 0 0)
(0 0 0)
(0 0 0)
(0 0 0)
(0 0 0)
(0 0 0)
(0 0 0)
(0 0 0)
(0 0 0)
(0 0 0)
(0 0 0)
(0 0 0)
(0 0 0)
(0 0 0)
(0 0 0)
(0 0 0)
(0 0 0)
(0 0 0)
(0 0 0)
(0 0 0)
(0 0 0)
(0 0 0)
(0 0 0)
(0 0 0)
(0 0 0)
(0 0 0)
(0 0 0)
(0 0 0)
(0 0 0)
(0 0 0)
(0 0 0)
(0 0 0)
(0 0 0)
(0 0 0)
(0 0 0)
(0 0 0)
(0 0 0)
(0 0 0)
(0 0 0)
(0 0 0)
(0 0 0)
(0 0 0)
(0 0 0)
(0 0 0)
(0 0 0)
(0 0 0)
(0 0 0)
(0 0 0)
(0 0 0)
(0 0 0)
(0 0 0)
(0 0 0)
(0 0 0)
(0 0 0)
(0 0 0)
(0 0 0)
(0 0 0)
(0 0 0)
(0 0 0)
(0 0 0)
(0 0 0)
(0 0 0)
(0 0 0)
(0 0 0)
(0 0 0)
(0 0 0)
(0 0 0)
(0 0 0)
(0 0 0)
(0 0 0)
(0 0 0)
(0 0 0)
(0 0 0)
(0 0 0)
(0 0 0)
(0 0 0)
(0 0 0)
(0 0 0)
(0 0 0)
(0 0 0)
(0 0 0)
(0 0 0)
(0 0 0)
(0 0 0)
(0 0 0)
(0 0 0)
(0 0 0)
(0 0 0)
(0 0 0)
(0 0 0)
(0 0 0)
(0 0 0)
(0 0 0)
(0 0 0)
(0 0 0)
(0 0 0)
(0 0 0)
(0 0 0)
(0 0 0)
(0 0 0)
(0 0 0)
(0 0 0)
(0 0 0)
(0 0 0)
(0 0 0)
(0 0 0)
(0 0 0)
(0 0 0)
(0 0 0)
(0 0 0)
(0 0 0)
(0 0 0)
(0 0 0)
(0 0 0)
(0 0 0)
(0 0 0)
(0 0 0)
(0 0 0)
(0 0 0)
(0 0 0)
(0 0 0)
(0 0 0)
(0 0 0)
(0 0 0)
(0 0 0)
(0 0 0)
(0 0 0)
(0 0 0)
(0 0 0)
(0 0 0)
(0 0 0)
(0 0 0)
(0 0 0)
(0 0 0)
(0 0 0)
(0 0 0)
(0 0 0)
(0 0 0)
(0 0 0)
(0 0 0)
(0 0 0)
(0 0 0)
(0 0 0)
(0 0 0)
(0 0 0)
(0 0 0)
(0 0 0)
(0 0 0)
(0 0 0)
(0 0 0)
(0 0 0)
(0 0 0)
(0 0 0)
(0 0 0)
(0 0 0)
(0 0 0)
(0 0 0)
(0 0 0)
(0 0 0)
(0 0 0)
(0 0 0)
(0 0 0)
(0 0 0)
(0 0 0)
(0 0 0)
(0 0 0)
(0 0 0)
(0 0 0)
(0 0 0)
(0 0 0)
(0 0 0)
(0 0 0)
(0 0 0)
(0 0 0)
(0 0 0)
(0 0 0)
(0 0 0)
(0 0 0)
(0 0 0)
(0 0 0)
(0 0 0)
(0 0 0)
(0 0 0)
(0 0 0)
(0 0 0)
(0 0 0)
(0 0 0)
(0 0 0)
(0 0 0)
(0 0 0)
(0 0 0)
(0 0 0)
(0 0 0)
(0 0 0)
(0 0 0)
(0 0 0)
(0 0 0)
(0 0 0)
(0 0 0)
(0 0 0)
(0 0 0)
(0 0 0)
(0 0 0)
(0 0 0)
(0 0 0)
(0 0 0)
(0 0 0)
(0 0 0)
(0 0 0)
(0 0 0)
(0 0 0)
(0 0 0)
(0 0 0)
(0 0 0)
(0 0 0)
(0 0 0)
(0 0 0)
(0 0 0)
(0 0 0)
(0 0 0)
(0 0 0)
(0 0 0)
(0 0 0)
(0 0 0)
(0 0 0)
(0 0 0)
(0 0 0)
(0 0 0)
(0 0 0)
(0 0 0)
(0 0 0)
(0 0 0)
(0 0 0)
(0 0 0)
(0 0 0)
(0 0 0)
(0 0 0)
(0 0 0)
(0 0 0)
(0 0 0)
(0 0 0)
(0 0 0)
(0 0 0)
(0 0 0)
(0 0 0)
(0 0 0)
(0 0 0)
(0 0 0)
(0 0 0)
(0 0 0)
(0 0 0)
(0 0 0)
(0 0 0)
(0 0 0)
(0 0 0)
(0 0 0)
(0 0 0)
(0 0 0)
(0 0 0)
(0 0 0)
(0 0 0)
(0 0 0)
(0 0 0)
(0 0 0)
(0 0 0)
(0 0 0)
(0 0 0)
(0 0 0)
(0 0 0)
(0 0 0)
(0 0 0)
(0 0 0)
(0 0 0)
(0 0 0)
(0 0 0)
(0 0 0)
(0 0 0)
(0 0 0)
(0 0 0)
(0 0 0)
(0 0 0)
(0 0 0)
(0 0 0)
(0 0 0)
(0 0 0)
(0 0 0)
(0 0 0)
(0 0 0)
(0 0 0)
(0 0 0)
(0 0 0)
(0 0 0)
(0 0 0)
(0 0 0)
(0 0 0)
(0 0 0)
(0 0 0)
(0 0 0)
(0 0 0)
(0 0 0)
(0 0 0)
(0 0 0)
(0 0 0)
(0 0 0)
(0 0 0)
(0 0 0)
(0 0 0)
(0 0 0)
(0 0 0)
(0 0 0)
(0 0 0)
(0 0 0)
(0 0 0)
(0 0 0)
(0 0 0)
(0 0 0)
(0 0 0)
(0 0 0)
(0 0 0)
(0 0 0)
(0 0 0)
(0 0 0)
(0 0 0)
(0 0 0)
(0 0 0)
(0 0 0)
(0 0 0)
(0 0 0)
(0 0 0)
(0 0 0)
(0 0 0)
(0 0 0)
(0 0 0)
(0 0 0)
(0 0 0)
(0.000939 0.000307626 -0.000604572)
(-0.00509684 -3.31035e-05 0.00106505)
(-0.00222053 0.00186679 -0.000113912)
(-0.00916739 0.00118861 0.00152195)
(-0.00800664 -0.00157195 0.00208715)
(-0.022129 0.000291939 0.00370382)
(-0.036669 -0.00627625 0.00440883)
(-0.0350735 -0.0165162 0.00035729)
(0.034179 -0.0106649 -0.0107746)
(0.0183808 0.000916189 -0.00468432)
(0.0105133 0.00226839 0.000822543)
(0.0517331 0.00785119 0.00439199)
(0.0268097 0.0170792 0.0050662)
(-0.000338978 0.00508798 0.0010601)
(-0.01666 0.010075 0.00397062)
(0.003271 0.0110471 0.00235247)
(-0.0188859 0.0171662 0.00687795)
(-0.0513249 0.0133398 0.00799633)
(-0.0797154 0.0052206 -0.0040969)
(-0.0648989 0.0326232 0.0121985)
(-0.105687 0.0306818 0.00146373)
(-0.0547284 -0.0171578 -0.0162061)
(-0.0167822 -0.00718071 -0.0105819)
(-0.0764136 0.0207617 -0.0257415)
(-0.00715559 0.014349 -0.0160165)
(0.00829533 0.0208876 -0.00600234)
(0.0506659 -0.0171044 -0.0062187)
(0.0246885 -0.0327211 -0.0106656)
(0.051338 -0.0278532 0.000167632)
(0.0721804 0.0243056 0.0259066)
(0.0388731 0.026604 0.00699121)
(0.10269 0.0181033 0.041031)
(0.0641552 0.0205549 0.0181874)
(0.0167174 0.01778 0.00418629)
(-0.00980871 0.0268289 0.00845674)
(0.038137 0.0191746 0.0092444)
(0.00596028 0.031741 0.00881481)
(-0.0581911 0.0516471 0.0150253)
(-0.114725 0.0647088 -0.00394147)
(-0.0352274 0.0549401 0.0156825)
(-0.090825 0.0984745 -0.00111706)
(-0.0658476 0.0719579 -0.0244289)
(-0.00416032 0.0764816 -0.0185023)
(-0.0625761 0.125177 -0.0282609)
(-0.00141147 0.111746 -0.0145891)
(0.0186138 0.0650052 -0.00879972)
(0.0243066 0.0858145 0.00198658)
(0.0117529 0.0450911 0.0155219)
(0.0203084 -0.0280431 -0.0132314)
(0.0504557 -0.0301279 -0.0108017)
(0.0634468 -0.00960957 -0.016757)
(0.144061 -0.0254325 0.0406767)
(0.113928 -0.0165897 0.0370516)
(0.149553 -0.053302 0.007571)
(0.172187 -0.0709761 0.0395215)
(0.0754584 -0.00583608 0.0170931)
(0.0327497 0.00844482 0.0101982)
(0.12096 -0.0513302 0.033253)
(0.069743 -0.0215905 0.0234437)
(-0.00594212 0.0320567 0.00875635)
(-0.034999 0.0712753 0.00988666)
(0.0165345 0.0051223 0.00595987)
(-0.00320725 0.0262358 0.00678128)
(-0.0395746 0.105046 0.00886331)
(-0.0172017 0.0964246 0.0187042)
(-0.00870059 0.031744 0.0095658)
(-0.0125004 0.03094 0.0117258)
(-3.57742e-05 0.0560031 0.0113925)
(-0.00132808 0.0373023 0.0119486)
(-0.0060761 0.0213506 0.00410746)
(0.0295338 -0.00537504 -0.0164079)
(0.0848208 -0.0322763 -0.0243822)
(0.17554 -0.0805989 -0.00059763)
(0.0381943 -0.0062406 -0.0228788)
(0.10174 -0.0347719 -0.0271238)
(0.1754 -0.0911222 0.034956)
(0.104238 -0.064381 0.0309682)
(0.16821 -0.08459 0.00384711)
(0.125575 -0.079037 0.0343865)
(0.0385022 -0.0229807 0.0164557)
(0.0122736 -0.00364983 0.00515024)
(0.0559589 -0.0395117 0.0174139)
(0.0201795 -0.0184992 0.00753678)
(-0.00109405 0.00435025 0.00279192)
(-0.00644353 0.00497099 0.00238785)
(0.00273591 -0.0063336 0.0016917)
(-0.000916415 -0.000993845 0.000988038)
(-0.00214785 0.00775305 -8.53303e-07)
(0.0604332 -0.00167107 -0.0260494)
(0.0966481 -0.0368657 -0.0183034)
(0.0932564 -0.0516709 0.000696525)
(0.0437999 -0.0190131 -0.0235533)
(0.0464547 -0.0446842 0.0104606)
(0.0170727 -0.014603 0.00377136)
(0.0401082 -0.0205108 -0.0118452)
(0.00393953 -0.00291897 0.000909027)
(-0.00496085 0.00446067 -0.00373771)
(-0.0944006 0.054294 -0.260033)
(-0.0285859 8.86654e-05 -0.0691102)
(-0.0344411 0.0108421 -0.00307595)
(-0.0408233 0.0115334 -0.043108)
(-0.0573002 0.00567483 -0.274236)
(-0.0889359 0.0237863 -0.255271)
(-0.069297 0.0126186 -0.272953)
(-0.0455827 0.000376013 -0.0508331)
(-0.0548504 -0.0109204 -0.0238855)
(-0.0455578 -0.000305132 -0.248401)
(-0.0436804 0.00879642 -0.243682)
(-0.014072 0.00980355 -0.230478)
(-0.0472801 -0.0341001 -0.0103692)
(-0.0240357 -0.0156053 -0.200805)
(0.029988 0.0112071 -0.057078)
(0.000111974 0.0420525 -0.119695)
(0.00371161 0.024396 5.79746e-05)
(0.0539571 0.038726 -0.00322554)
(0.0212121 0.0499164 0.0193356)
(-0.049777 0.0605942 -0.216665)
(-0.114137 0.0679115 -0.258368)
(-0.0026914 0.0722571 -0.133256)
(-0.125847 0.0857827 -0.236586)
(-0.017637 0.00129579 -0.0344021)
(-0.0786651 0.0362273 -0.0938089)
(-0.0111339 0.0321445 -0.0538641)
(-0.0476933 0.00816146 -0.155701)
(-0.0162317 0.0138267 -0.0938602)
(-0.0577719 0.0584654 -0.165167)
(-0.0276005 0.0470516 -0.106309)
(0.00790765 0.0298941 -0.0323635)
(-0.000441444 0.0298539 -0.0783464)
(0.0507153 0.0127395 -0.0357608)
(0.0232696 -0.0162671 -0.0414538)
(0.0716502 -0.00626285 -0.00928582)
(0.027524 0.0397897 -0.0860356)
(0.00972464 0.00728362 -0.0744178)
(0.0485272 0.0132226 -0.033356)
(0.0406347 0.137412 -0.0367175)
(0.026718 0.0746932 0.0318563)
(0.00449444 0.0689881 -0.131095)
(0.00502888 0.101148 -0.214112)
(0.021081 0.0655545 -0.191586)
(0.072095 -0.0261892 -0.0270681)
(0.0583706 -0.0247827 -0.0537841)
(0.00898096 -0.00342237 -0.0753498)
(0.05476 -0.0193784 -0.0576397)
(0.0313982 -0.0229163 -0.100944)
(-0.00865007 0.0571918 0.00853823)
(-0.0255025 0.0618511 -0.0146701)
(0.00911129 0.0889911 -0.265412)
(0.00914866 0.0694625 -0.215962)
(0.0211373 0.103831 -0.23457)
(0.024011 -0.00635252 -0.0641354)
(0.0109182 -0.010099 -0.112735)
(0.172283 -0.0919258 -0.052075)
(0.0424538 -0.000586521 -0.0779002)
(0.105199 -0.0303544 -0.0921282)
(0.0372733 -0.0258635 -0.13489)
(0.082312 -0.039731 -0.133071)
(0.0201542 -0.000673969 -0.133242)
(0.0532301 -0.00747347 -0.150681)
(-0.0323791 0.0421572 -0.0448795)
(-0.0153155 -0.0068274 -0.03113)
(-0.0258016 -0.00722414 -0.05081)
(-0.00473823 0.174784 -0.175872)
(0.0254893 0.116283 -0.188561)
(0.0348351 0.120102 -0.195185)
(-0.0288352 0.0511733 -0.213056)
(-0.0121236 0.087902 -0.219323)
(0.0662941 0.00941182 -0.087034)
(0.0378385 0.00895945 -0.136542)
(0.119073 -0.0772214 -0.0237855)
(0.0415579 -0.0157708 -0.081819)
(0.0639709 -0.00488724 -0.149857)
(0.0983571 -0.0608882 -0.105253)
(0.0286202 -0.0188664 -0.137587)
(0.00306077 -0.0374551 -0.0144272)
(0.031481 -0.0267236 -0.0749076)
(0.0349419 -0.0350875 -0.073188)
(-0.0462963 0.0394263 -0.19911)
(-0.00507892 -0.0229146 -0.17296)
(-0.059597 0.0268534 -0.210048)
(-0.0953211 0.0467304 -0.207851)
(-0.0904195 0.0414671 -0.179211)
(-0.0381381 0.00390145 -0.18457)
(-0.0726015 0.026352 -0.202903)
(-0.0497501 0.0120544 -0.193961)
(-0.0169816 0.00362705 -0.150756)
(-0.0370245 0.0114644 -0.121636)
(-0.0236574 0.016581 -0.162375)
(-0.0206181 0.0249752 -0.213769)
(-0.00429476 0.0229116 -0.248773)
(-0.00668309 0.0171935 -0.198537)
(-0.0138615 0.0428866 -0.228276)
(-0.0102695 0.0251059 -0.255031)
(-0.00215527 0.0143516 -0.270259)
(-0.00807617 0.0125837 -0.287503)
(-0.0433011 0.0705369 -0.211298)
(-0.0615374 0.0811924 -0.219445)
(-0.122567 0.0643501 -0.231929)
(-0.124098 0.0946035 -0.262663)
(-0.138111 0.0883644 -0.238325)
(-0.0789478 0.0711025 -0.188196)
(-0.0946245 0.0534622 -0.147134)
(-0.095923 0.0885108 -0.194965)
(-0.120684 0.10766 -0.109576)
(-0.0145268 0.0228925 -0.146131)
(-0.0526147 0.0652726 -0.195329)
(-0.0417188 0.0524092 -0.13817)
(0 0 0)
(0 0 0)
(0 0 0)
(0 0 0)
(-0.00709394 0.033402 -0.126974)
(0 0 0)
(-0.0239541 0.0744297 -0.177192)
(0.00486917 0.00826718 -0.101097)
(-3.19282e-05 0.0516199 -0.125145)
(-0.0599146 0.0874083 -0.21725)
(-0.00161209 0.0227695 -0.163225)
(-0.047029 0.0826407 -0.193812)
(-0.0737595 0.0144835 -0.299155)
(-0.0170348 0.0295557 -0.137146)
(3.58661e-14 3.68076e-14 1.35578e-13)
(-0.0810602 -0.0409839 -0.291698)
(-0.0300941 -0.0212829 -0.192401)
(0.031146 -0.0139049 -0.0985121)
(0.0200783 -0.0162298 -0.13466)
(0.00579302 0.00452622 -0.135534)
(0.00111309 0.00226357 -0.132512)
(0.00509205 -0.00718025 -0.15073)
(-0.0115998 0.0332721 -0.164126)
(0.0178735 0.0834515 -0.155666)
(-0.0484426 0.0191343 -0.210713)
(-0.00945572 0.00787517 -0.162807)
(0.0197582 0.0736721 -0.084047)
(0.00423074 -0.00556256 -0.14333)
(-0.00258071 -0.00151132 -0.155692)
(-0.000641482 0.00477997 -0.170516)
(0.00368738 0.00147623 -0.153572)
(0.0111368 0.00864424 -0.16928)
(-0.0109744 0.00311868 -0.1669)
(-0.0363248 0.0212549 -0.176843)
(-0.00584438 0.00325465 -0.151676)
(-0.0181147 0.0210905 -0.170171)
(0.0342172 0.114779 -0.112881)
(0.0513682 0.101213 -0.0867143)
(-0.0271044 0.0250929 -0.114296)
(0.00236601 0.146677 -0.0819433)
(0.0346319 0.109573 -0.0285356)
(0.0497244 0.103387 -0.00465451)
(-0.00567073 0.04481 -0.0245574)
(0.0243634 0.0646946 -0.0181849)
(0.0131327 0.00884792 -0.157087)
(-0.00990882 0.00715363 -0.151368)
(0.0370733 -0.0172946 -0.202271)
(0.0116317 -0.00667909 -0.181624)
(-0.00606349 0.018929 -0.175818)
(-0.0112818 0.026389 -0.195304)
(-0.0190768 0.00307798 -0.188851)
(-0.0407917 0.0439822 -0.15277)
(-0.0444191 0.00645098 -0.220428)
(-0.0357655 0.0608515 -0.13575)
(-0.0398401 0.055676 -0.0805065)
(-0.0540125 0.0125102 -0.193617)
(-0.0112072 0.0364418 -0.0409026)
(-0.0476025 0.0303408 -0.0753243)
(-0.0356476 0.020296 -0.0803351)
(-0.0315508 0.00985446 -0.157802)
(-0.0302297 0.0219726 -0.0917643)
(-0.0219316 0.0224665 -0.151819)
(-0.0362637 0.00794002 -0.128377)
(-0.0314215 0.0319679 -0.0891894)
(-0.0389719 0.026244 -0.132214)
(-0.0303598 0.0356477 -0.224656)
(0 0 0)
(0 0 0)
(0 0 0)
(0 0 0)
(0 0 0)
(0 0 0)
(-0.0590486 0.0704706 -0.167283)
(-0.0486382 0.0508412 -0.115806)
(-0.0822149 0.0466865 -0.0959819)
(-0.113146 0.0815605 -0.138647)
(-0.104103 0.0920103 -0.0671431)
(-0.0420081 0.0336832 -0.0885817)
(-0.0488696 0.0248866 -0.0827727)
(-0.0841206 0.0556609 -0.0812963)
(-0.0625992 0.0542047 -0.0492167)
(0 0 0)
(0 0 0)
(0 0 0)
(0 0 0)
(0 0 0)
(0 0 0)
(0 0 0)
(0 0 0)
(0 0 0)
(-0.0639548 0.0821317 -0.167243)
(-0.0132146 0.0493094 -0.16299)
(-0.0574028 0.0881945 -0.150733)
(-0.0632534 0.0660694 -0.1111)
(-0.0134609 0.0555383 -0.122483)
(-0.0505492 0.0817443 -0.0990498)
(-0.0678002 -0.0553763 -0.336972)
(-0.0191072 -0.0340725 -0.238994)
(0 0 0)
(-0.0412963 0.0123902 -0.482217)
(-0.0371734 -0.0109901 -0.480689)
(-0.0357219 0.0250666 -0.128682)
(-0.023694 0.00711114 -0.14667)
(-9.44695e-05 0.0282848 -0.122695)
(-0.0187707 0.028205 -0.101074)
(-0.0296573 0.0218192 -0.115791)
(-0.00641222 0.00210033 -0.18365)
(-0.0503509 0.0196793 -0.0456206)
(-0.0252505 -0.00847519 -0.185785)
(-0.00721268 0.00866747 -0.19046)
(-0.0495911 0.00476474 -0.0394746)
(-0.0093273 0.00433899 -0.140056)
(-0.00509531 0.00626743 -0.109187)
(-0.0570382 0.0433479 -0.154622)
(-0.00773974 0.00264767 -0.132325)
(-0.0306357 0.020362 -0.152195)
(-0.0219405 0.0222645 -0.12075)
(-0.0534178 0.0433612 -0.125736)
(-0.00663819 0.00610765 -0.107101)
(-0.0303063 0.0141116 -0.119905)
(0.024935 0.0698066 0.0729035)
(0.0321522 0.114383 0.0425411)
(-0.00955592 0.0395907 0.0644003)
(-0.0758767 0.0264631 -0.0399268)
(0.0486149 0.0210359 0.131436)
(-0.00062544 0.0621046 0.0711861)
(0.011273 0.0315287 0.104102)
(0.0657675 -0.018365 0.137115)
(-0.0109796 0.00313159 -0.122465)
(-0.0152124 -0.000959269 -0.09653)
(-0.0403598 0.0349676 -0.159533)
(-0.0202099 0.00374947 -0.152756)
(-0.0324972 0.00912487 -0.110048)
(-0.055535 0.030467 -0.121635)
(-0.0340589 0.00307 -0.113753)
(-0.043351 0.0310817 -0.0235555)
(-0.0577221 0.00558277 -0.15878)
(-0.0760331 0.0317798 -0.0986912)
(-0.0591627 0.0247461 0.0294567)
(-0.0648131 0.00650945 -0.121664)
(-0.0373461 0.0169027 0.0842542)
(-0.0436826 0.0272162 -0.0754675)
(0 0 0)
(0 0 0)
(1.82023e-14 -1.4525e-14 2.5639e-14)
(0 0 0)
(0 0 0)
(0 0 0)
(0 0 0)
(0 0 0)
(0 0 0)
(0 0 0)
(0 0 0)
(0 0 0)
(0 0 0)
(0 0 0)
(-0.0223079 0.0172947 -0.0706651)