/*--------------------------------*- C++ -*----------------------------------*\
| =========                 |                                                 |
| \\      /  F ield         | OpenFOAM: The Open Source CFD Toolbox           |
|  \\    /   O peration     | Version:  5.x                                   |
|   \\  /    A nd           | Web:      www.OpenFOAM.org                      |
|    \\/     M anipulation  |                                                 |
\*---------------------------------------------------------------------------*/
FoamFile
{
    version     2.0;
    format      ascii;
    class       volScalarField;
    location    "5.2";
    object      p;
}
// * * * * * * * * * * * * * * * * * * * * * * * * * * * * * * * * * * * * * //

dimensions      [0 2 -2 0 0 0 0];

internalField   nonuniform List<scalar> 
10571
(
141.099
163.822
154.427
141.988
126.959
169.392
156.147
139.035
126.947
123.975
191.165
190.972
175.817
153.577
133.099
124.517
198.012
188.116
155.295
132.011
126.15
185.203
151.091
135.76
128.378
130.958
134.148
122.582
115.307
141.231
128.465
114.854
115.667
118.862
148.349
146.276
94.3642
55.7634
108.175
117.574
142.447
89.8852
78.0002
121.219
117.477
119.524
111.695
114.882
84.5251
32.0718
55.8901
85.9555
93.3898
61.5306
35.2399
41.1828
17.8368
80.3689
61.0329
61.0776
8.71996
8.15449
8.91857
52.48
49.578
8.54721
7.17836
9.33857
14.3219
37.7748
10.9946
8.30467
12.6054
7.17473
6.77654
49.3256
23.6998
6.78157
7.19057
7.93044
4.3867
5.08981
7.28024
7.4532
6.14118
6.68889
5.78953
5.35796
6.67942
6.45041
6.79051
7.31558
7.37325
7.04839
7.19786
7.55417
7.08062
7.32087
7.08549
7.10842
6.9069
7.25091
7.04385
6.48726
7.95291
7.45937
7.20108
7.15121
7.47622
7.65685
7.81981
7.30957
7.05917
7.27401
7.44186
7.12942
7.20192
7.05965
7.11599
7.18619
7.16227
7.249
7.13331
7.14865
7.1645
7.21419
7.1423
7.08911
7.37932
7.32626
7.26018
7.16728
7.17148
7.1428
7.36092
7.31624
7.34033
7.25623
7.15122
7.12261
7.23638
7.12977
7.1708
7.14313
7.1914
7.19
7.16689
7.22412
7.15288
7.13237
7.20038
7.20187
7.16036
7.1306
7.09475
7.26745
7.23739
7.21045
7.1837
7.16115
7.20911
7.0904
7.22864
7.21644
7.19392
7.18709
7.23407
7.12417
7.1567
7.18647
7.19762
7.2318
7.19845
7.17141
7.20131
7.20135
7.16219
7.17516
7.19594
7.17584
7.10074
7.10619
7.17063
7.20327
7.20882
7.18355
7.17721
7.19874
7.14577
7.1705
7.1801
7.20244
7.21315
7.2359
7.11443
7.18788
7.18139
7.22053
7.24003
7.19989
7.18591
7.19261
7.18284
7.16644
7.16776
7.19097
7.17828
7.10581
7.13812
7.15753
7.18788
7.2204
7.20181
7.15012
7.18538
7.19415
7.15829
7.17639
7.20924
7.21516
7.20354
7.08337
7.1614
7.24119
7.23806
7.1943
7.19512
7.20679
7.17401
7.18168
7.18631
7.19407
7.15467
7.15095
7.18144
7.11144
7.24158
7.22568
7.1527
7.17647
7.22902
7.18695
7.23619
7.21988
7.20349
7.0641
7.17877
7.26847
7.23583
7.20236
7.21824
7.25938
7.19062
7.20078
7.21584
7.23555
7.15228
7.21
7.24541
7.18763
7.27585
7.2567
7.19214
7.22507
7.31001
7.21832
7.28045
7.24622
7.25617
7.16756
7.23007
7.28358
7.2581
7.24747
7.256
7.28938
7.22537
7.2377
7.25622
7.26969
7.18204
7.26195
7.30533
7.24622
7.30229
7.27955
7.23832
7.29933
7.37934
7.29506
7.30165
7.27715
7.31737
7.32394
7.3089
7.28581
7.28434
7.30676
7.29014
7.29842
7.25495
7.2767
7.29534
7.27876
7.22081
7.30656
7.34675
7.26636
7.31944
7.30346
7.27321
7.33396
7.41181
7.32732
7.31194
7.27169
7.3385
7.40307
7.35208
7.33137
7.304
7.33337
7.31383
7.29821
7.26709
7.30196
7.31807
7.28759
7.24847
7.32316
7.35159
7.2733
7.33301
7.31913
7.28949
7.33012
7.39323
7.33031
7.31219
7.25102
7.32994
7.38026
7.34992
7.31591
7.30559
7.33085
7.31303
7.29691
7.27111
7.30805
7.3175
7.28779
7.26331
7.31344
7.31849
7.27295
7.33782
7.32575
7.28076
7.31471
7.3491
7.319
7.31789
7.24547
7.30282
7.3425
7.3399
7.27953
7.28337
7.31486
7.29458
7.30014
7.27492
7.29601
7.30054
7.29053
7.26798
7.29638
7.28151
7.27543
7.3306
7.32589
7.26647
7.29507
7.31051
7.30314
7.32605
7.23439
7.28238
7.31195
7.31601
7.22318
7.26999
7.2984
7.27155
7.31518
7.27744
7.25909
7.27792
7.29933
7.27075
7.27096
7.24591
7.2785
7.3204
7.31619
7.26127
7.27967
7.279
7.28865
7.31931
7.26807
7.27655
7.29459
7.29753
7.13345
7.22857
7.28858
7.25104
7.29424
7.27033
7.22121
7.25704
7.30024
7.27654
7.24935
7.21247
7.27046
7.31062
7.30579
7.2742
7.27128
7.24838
7.26923
7.30397
7.28197
7.28432
7.29014
7.28561
7.18237
7.18828
7.29063
7.28038
7.2731
7.26321
7.25153
7.25352
7.29391
7.27408
7.2477
7.20894
7.24971
7.30273
7.30038
7.27807
7.25738
7.22454
7.24978
7.29657
7.29563
7.28776
7.29162
7.28088
7.37066
7.29041
7.30553
7.261
7.2552
7.24579
7.27606
7.24676
7.28452
7.26206
7.25343
7.21628
7.236
7.29383
7.29184
7.26096
7.24498
7.21217
7.23893
7.29319
7.29426
7.27865
7.28959
7.28229
7.42475
7.32802
7.30661
7.24898
7.24353
7.19275
7.25382
7.25334
7.27699
7.25018
7.25316
7.2223
7.24018
7.28841
7.28393
7.24629
7.23931
7.22003
7.24134
7.29689
7.27667
7.26672
7.28034
7.28732
7.34093
7.30647
7.29689
7.24447
7.25361
7.15111
7.23248
7.28469
7.27849
7.24859
7.24847
7.26547
7.26735
7.28886
7.28099
7.24641
7.24393
7.24797
7.26102
7.29653
7.26462
7.25786
7.27593
7.29428
7.299
7.2856
7.28964
7.30109
7.27138
7.22463
7.25022
7.38274
7.27688
7.24598
7.23139
7.31426
7.30041
7.28984
7.27996
7.2532
7.24646
7.27537
7.28368
7.29256
7.2633
7.25269
7.27953
7.30268
7.29002
7.27727
7.28659
7.39746
7.27085
7.25551
7.29894
7.41766
7.27372
7.25093
7.21795
7.33052
7.31012
7.29365
7.28032
7.26287
7.24737
7.29494
7.29795
7.29665
7.2778
7.25251
7.28862
7.31176
7.30033
7.28288
7.28873
7.37998
7.26954
7.24881
7.2724
7.34247
7.27795
7.28169
7.24407
7.32712
7.31594
7.30452
7.28828
7.28338
7.27249
7.3011
7.30907
7.31247
7.29947
7.27456
7.29999
7.31796
7.32011
7.30445
7.29841
7.29053
7.26464
7.20322
7.21013
7.28936
7.28931
7.31375
7.33783
7.30574
7.31862
7.32007
7.30575
7.30379
7.3073
7.31456
7.323
7.33165
7.31784
7.3107
7.31155
7.32597
7.33909
7.3315
7.31724
7.23186
7.28742
7.21779
7.21806
7.23913
7.30283
7.30879
7.40305
7.30413
7.32731
7.33479
7.3162
7.32031
7.33245
7.32978
7.33645
7.34275
7.32592
7.33335
7.32227
7.33631
7.3515
7.35034
7.33842
7.24214
7.32245
7.28101
7.24999
7.2353
7.31111
7.27535
7.34003
7.30749
7.3348
7.3385
7.31559
7.32861
7.33873
7.33919
7.34273
7.34333
7.32583
7.33989
7.33223
7.34472
7.35261
7.35486
7.35168
7.34938
7.33971
7.34183
7.38837
7.31573
7.30717
7.28419
7.34112
7.31901
7.35788
7.33487
7.30139
7.3172
7.33561
7.34065
7.34674
7.33096
7.32374
7.34216
7.33816
7.34948
7.34381
7.35293
7.35701
7.39679
7.34593
7.35683
7.41773
7.36311
7.30361
7.28753
7.34761
7.33518
7.38139
7.3231
7.28128
7.29588
7.33087
7.33779
7.35404
7.31333
7.31821
7.33967
7.34168
7.35144
7.33599
7.35037
7.35803
7.39458
7.36752
7.3671
7.38237
7.36699
7.33625
7.30136
7.33899
7.33861
7.38908
7.31892
7.28382
7.29051
7.32547
7.33424
7.35846
7.30229
7.3112
7.33134
7.3399
7.34972
7.32859
7.34555
7.35501
7.37494
7.37118
7.36215
7.34285
7.35131
7.35507
7.31271
7.32479
7.32598
7.37775
7.34016
7.31315
7.29329
7.31125
7.32611
7.35234
7.30908
7.3024
7.31878
7.33251
7.34169
7.31908
7.33582
7.34524
7.35126
7.36448
7.34532
7.31646
7.32818
7.3613
7.30425
7.30043
7.28878
7.34913
7.35303
7.33694
7.29032
7.29137
7.30223
7.33584
7.31376
7.29326
7.30556
7.31672
7.3258
7.30968
7.3205
7.32881
7.32732
7.35019
7.32915
7.29668
7.28931
7.34296
7.29048
7.27489
7.23505
7.28554
7.34029
7.32244
7.28205
7.27343
7.27457
7.31299
7.30397
7.28476
7.29558
7.29643
7.30685
7.29976
7.3061
7.31221
7.31051
7.33959
7.31773
7.28002
7.23496
7.32646
7.28501
7.26072
7.21609
7.22943
7.31389
7.29929
7.28025
7.26392
7.25879
7.29476
7.27998
7.27771
7.29647
7.29316
7.29914
7.29527
7.30084
7.30506
7.30582
7.33827
7.31442
7.27743
7.21559
7.32246
7.29226
7.26591
7.23837
7.24156
7.30524
7.29805
7.28773
7.27265
7.27192
7.29579
7.28418
7.28641
7.30154
7.29924
7.30385
7.30369
7.30481
7.30694
7.31619
7.34372
7.31848
7.2975
7.26132
7.32832
7.30764
7.29285
7.27605
7.28831
7.31254
7.30601
7.30389
7.30016
7.29359
7.31536
7.28523
7.30479
7.30954
7.30978
7.31903
7.31745
7.31869
7.31936
7.33671
7.35126
7.32597
7.32526
7.32148
7.33815
7.32486
7.32259
7.31329
7.33316
7.32662
7.32167
7.32046
7.32785
7.32192
7.34607
7.3089
7.33174
7.33725
7.32041
7.33607
7.33471
7.33728
7.33381
7.35727
7.35628
7.33199
7.34867
7.36207
7.34662
7.33575
7.3388
7.33032
7.36396
7.33947
7.3364
7.33179
7.34215
7.34184
7.3627
7.33361
7.35526
7.35815
7.33781
7.36208
7.34508
7.35088
7.34782
7.36778
7.35955
7.33574
7.36148
7.38171
7.35158
7.3396
7.34519
7.31868
7.3672
7.34735
7.34564
7.34013
7.34893
7.34587
7.36239
7.34712
7.36033
7.36175
7.36285
7.37522
7.34891
7.35784
7.35583
7.36805
7.36161
7.34273
7.36543
7.39049
7.35424
7.34258
7.35011
7.31662
7.36093
7.35216
7.35137
7.34773
7.3501
7.35268
7.35194
7.35101
7.35536
7.35632
7.36116
7.36275
7.35247
7.35826
7.35821
7.36414
7.35926
7.34941
7.36239
7.3805
7.35501
7.34696
7.35446
7.33226
7.35156
7.35431
7.35492
7.35177
7.35173
7.3473
7.33734
7.35579
7.35281
7.3533
7.3554
7.3507
7.35844
7.36009
7.36649
7.36204
7.35739
7.3544
7.35915
7.35935
7.35482
7.35038
7.35773
7.35286
7.35356
7.35561
7.35608
7.35233
7.35276
7.34796
7.33915
7.35851
7.34756
7.35112
7.35222
7.34892
7.35611
7.3527
7.36578
7.35957
7.35735
7.35772
7.35939
7.34583
7.3549
7.35362
7.35819
7.35698
7.36094
7.35717
7.35539
7.35123
7.35286
7.35132
7.34997
7.35938
7.34507
7.34149
7.34731
7.35002
7.35743
7.32349
7.34528
7.36411
7.36188
7.36185
7.3638
7.35873
7.35329
7.35709
7.35729
7.35172
7.3668
7.35822
7.35548
7.3511
7.35618
7.35256
7.34723
7.35858
7.34988
7.33654
7.34648
7.36191
7.35756
7.32611
7.34045
7.36667
7.36296
7.36218
7.3661
7.37206
7.3569
7.35804
7.36146
7.35337
7.36359
7.35843
7.3551
7.3522
7.35854
7.35189
7.35684
7.35808
7.35056
7.33887
7.34616
7.36329
7.35773
7.34031
7.34581
7.36442
7.35869
7.35954
7.35802
7.36562
7.35759
7.35869
7.36957
7.35582
7.35945
7.35865
7.35338
7.35495
7.35659
7.3506
7.35953
7.35746
7.34963
7.34537
7.34782
7.35945
7.35695
7.35244
7.35157
7.36385
7.35692
7.35555
7.35171
7.36023
7.35834
7.35984
7.3697
7.35565
7.35616
7.36091
7.35411
7.35759
7.35336
7.34952
7.35927
7.35829
7.34998
7.34794
7.35063
7.35829
7.35898
7.35889
7.35662
7.36482
7.35649
7.35279
7.35327
7.35919
7.35716
7.35968
7.36244
7.35269
7.35359
7.36279
7.35739
7.35535
7.35027
7.34975
7.35827
7.35969
7.3528
7.35035
7.35386
7.35843
7.35934
7.36083
7.36092
7.36627
7.36067
7.35297
7.35709
7.35863
7.35934
7.35687
7.35548
7.34885
7.35185
7.3636
7.35739
7.3524
7.35055
7.35182
7.35375
7.36008
7.35318
7.35369
7.35768
7.35893
7.36314
7.36123
7.36396
7.36991
7.36977
7.35995
7.36072
7.3588
7.36468
7.35319
7.35255
7.34888
7.35077
7.36322
7.35733
7.3508
7.35472
7.35446
7.35422
7.35999
7.35517
7.35754
7.36134
7.36156
7.36469
7.36311
7.36702
7.37577
7.37808
7.3711
7.3704
7.35936
7.36928
7.35121
7.34645
7.35147
7.3534
7.36833
7.36119
7.35004
7.35855
7.35572
7.35572
7.36266
7.35802
7.36135
7.36514
7.36403
7.36683
7.3655
7.36866
7.37623
7.37841
7.37709
7.37393
7.36064
7.37407
7.35712
7.35038
7.35577
7.35556
7.37413
7.36882
7.35506
7.36213
7.3568
7.35662
7.36797
7.36475
7.36502
7.36732
7.36593
7.37123
7.36828
7.36931
7.37603
7.38186
7.37913
7.3745
7.35974
7.3826
7.37145
7.35995
7.3556
7.35676
7.38081
7.37562
7.36386
7.36591
7.3554
7.35493
7.37567
7.37164
7.36674
7.36712
7.36462
7.3732
7.36938
7.36869
7.3714
7.38906
7.3795
7.36902
7.35793
7.38711
7.37089
7.36413
7.35124
7.35335
7.38636
7.3786
7.36485
7.36437
7.34983
7.35037
7.37835
7.37064
7.36612
7.36279
7.35943
7.373
7.36802
7.36579
7.36677
7.38815
7.37662
7.3598
7.3559
7.38486
7.36766
7.36465
7.34431
7.34591
7.38542
7.3779
7.36387
7.35858
7.34092
7.34334
7.37666
7.36765
7.3617
7.356
7.35077
7.37094
7.36501
7.36094
7.36405
7.38473
7.3745
7.35632
7.35277
7.38318
7.37237
7.35657
7.33177
7.33478
7.38213
7.37704
7.36638
7.35375
7.32957
7.33082
7.37578
7.3681
7.35614
7.34785
7.33808
7.37054
7.36156
7.35466
7.36585
7.38564
7.37593
7.36073
7.34754
7.38458
7.37737
7.35292
7.31554
7.31554
7.38362
7.37997
7.37146
7.34715
7.31249
7.30831
7.37887
7.36938
7.35151
7.33357
7.31863
7.37264
7.35907
7.34621
7.37212
7.39187
7.38132
7.36826
7.3401
7.38876
7.38016
7.35549
7.28714
7.27848
7.3909
7.38597
7.37232
7.33993
7.28206
7.26422
7.38503
7.37233
7.34655
7.31443
7.28874
7.37584
7.35708
7.33516
7.38002
7.40069
7.39025
7.37384
7.32853
7.39421
7.38226
7.34535
7.24124
7.20021
7.40143
7.39383
7.36924
7.32784
7.23354
7.16713
7.39551
7.38062
7.34269
7.28699
7.23404
7.38395
7.35702
7.32267
7.39202
7.41394
7.40377
7.38144
7.31653
7.40516
7.38015
7.32624
7.15756
7.04023
7.41553
7.40386
7.37121
7.30427
7.1515
6.94641
7.41639
7.40356
7.34947
7.26143
7.13293
7.40245
7.36522
7.3147
7.4072
7.43567
7.42248
7.39163
7.29815
7.42695
7.39114
7.28801
7.03762
6.63192
7.44262
7.42402
7.37777
7.28127
7.05025
6.4626
7.45783
7.42919
7.37017
7.23212
6.92979
7.43631
7.38966
7.3168
7.42493
7.46176
7.43963
7.40078
7.27983
7.44659
7.39895
7.26836
6.89375
5.53638
7.47046
7.44694
7.40356
7.2554
6.96272
5.78648
-3.58324
7.51742
7.47433
7.409
7.21922
6.46656
7.49239
7.43191
7.34141
7.4451
7.48504
7.45344
7.40634
7.28035
7.45583
7.37524
7.27431
6.8618
4.90357
-0.140914
7.4592
7.44126
7.40915
7.27308
6.91904
5.51047
0.404297
7.59971
7.51467
7.43564
7.23
5.94697
7.58147
7.49365
7.39694
7.47421
7.51825
7.47674
7.42127
7.31818
7.47625
7.37745
7.25103
6.96592
5.75072
1.4832
7.47026
7.43211
7.38728
7.28086
6.97087
5.66095
1.72649
7.57987
7.53362
7.46756
7.32389
6.39994
2.16419
7.66146
7.58377
7.47874
7.5208
7.5749
7.52259
7.46649
7.3931
7.53116
7.42458
7.29307
7.11097
6.02491
1.72937
7.50726
7.46527
7.3996
7.30646
7.12975
5.88752
1.56463
7.56759
7.53507
7.51964
7.37819
6.68143
7.63804
7.61457
7.57898
7.5664
7.57828
7.52933
7.50689
7.45467
7.53677
7.46593
7.38803
7.25208
6.73159
7.55169
7.50205
7.41299
7.35761
7.25307
6.53534
-1.37432
7.5676
7.53404
7.51901
7.4703
7.39832
7.62129
7.59426
7.60785
7.56501
7.56323
7.52489
7.50858
7.4382
7.51891
7.43814
7.36403
7.2813
7.23881
7.55984
7.50046
7.38866
7.32001
7.25378
7.14869
7.55879
7.5097
7.48436
7.45233
7.48335
7.60126
7.56756
7.58546
7.51069
7.54128
7.49443
7.46185
7.38878
7.48155
7.38234
7.31905
7.22325
7.26372
7.5405
7.46764
7.30495
7.24356
7.19626
7.23062
7.5191
7.43654
7.41116
7.39208
7.43157
7.5579
7.51568
7.53577
7.4643
7.49781
7.44589
7.41345
7.35698
7.42312
7.30172
7.25102
7.18298
7.26264
7.48434
7.39066
7.19179
7.13035
7.10439
7.22177
7.42969
7.30853
7.32034
7.31399
7.36202
7.4756
7.44257
7.46558
7.4502
7.44528
7.41239
7.39563
7.3646
7.35569
7.23333
7.23718
7.20514
7.29362
7.38501
7.27641
7.02321
7.03495
7.0842
7.25277
7.28221
7.13969
7.22944
7.2503
7.32633
7.35826
7.36479
7.39716
7.46915
7.42477
7.41405
7.41423
7.4052
7.32696
7.2533
7.27078
7.29031
7.36277
7.25756
7.16886
6.99676
7.07805
7.18215
7.34279
7.09792
7.02454
7.23273
7.26517
7.3656
7.28047
7.34675
7.3912
7.51505
7.45007
7.45192
7.45912
7.46678
7.35195
7.30772
7.33453
7.36701
7.44134
7.19167
7.11206
7.02771
7.14949
7.28022
7.44693
6.95381
7.12019
7.32245
7.35692
7.46227
7.31302
7.42677
7.48117
7.56762
7.50294
7.50599
7.50909
7.52488
7.42829
7.40099
7.40413
7.44664
7.5119
7.21858
7.11824
7.16319
7.24213
7.38198
7.53571
6.89063
7.12121
7.32039
7.481
7.58518
7.49656
7.60982
7.66017
7.5774
7.53933
7.53658
7.53066
7.54353
7.48494
7.4513
7.44188
7.48371
7.54159
7.36515
7.23254
7.24014
7.30533
7.43247
7.57458
7.09992
7.2881
7.44835
7.58204
7.6804
7.72868
7.75196
7.80208
169.937
157.363
163.957
160.119
152.962
156.543
166.965
162.821
186.491
177.413
170.959
180.656
168.332
163.888
158.57
161.434
157.37
157.282
159.097
149.683
132.813
147.904
142.765
129.268
129.54
130.024
196.245
197.533
202.196
182.833
167.449
197.118
191.603
166.722
161.831
179.04
168.248
148.499
139.251
155.693
144.792
133.676
129.721
137.373
131.938
128.563
129.304
129.636
203.507
208.105
210.281
203.071
197.312
204.742
200.473
187.374
173.78
194.288
180.191
159.688
147.746
163.563
149.68
138.344
131.152
138.643
131.857
127.414
127.057
129.156
211.446
210.353
205.107
211.6
209.194
199.325
181.846
201.869
183.879
161.834
149.725
160.232
147.744
139.348
133.535
139.03
135.734
132.366
209.227
207.56
196.077
190.496
161.949
152.555
168.251
143.989
157.8
149.759
146.575
154.136
149.06
139.989
145.122
141.912
143.649
142.685
138.214
139.767
135.685
135.13
126.826
173.162
162.054
160.365
168.254
160.899
154.454
152.256
157.1
154.402
125.572
124.839
124.461
122.178
123.005
124.165
125.044
124.147
124.482
179.571
186.849
188.069
167.594
184.367
180.869
124.392
123.295
123.702
123.052
122.766
194.098
197.081
186.04
186.435
185.312
123.656
125.272
122.598
122.29
123.805
197.468
182.846
195.557
196.19
195.586
182.684
180.702
180.234
178.038
127.214
132.847
129.304
127.881
124.802
128.744
125.376
124.681
191.641
173.657
168.807
163.287
164.546
152.474
148.458
142.828
150.075
146.011
136.17
144.926
130.41
126.656
84.7915
128.725
128.25
130.091
109.577
95.4228
108.971
127.082
118.383
114.332
111.366
104.376
116.066
105.781
136.786
99.9025
131.056
136.388
142.127
89.6268
90.1956
98.9433
112.022
116.071
120.364
121.33
106.853
108.061
113.377
113.411
119.852
111.598
141.138
149.298
146.012
105.17
108.664
106.621
118.731
116.557
111.295
110.567
107.644
146.642
145.249
105.644
104.054
101.76
114.767
114.644
106.851
105.736
94.0601
143.88
99.6862
139.085
138.938
133.864
97.4365
90.1642
93.4984
88.2472
120.117
117.337
117.092
90.747
101.926
85.0929
96.4027
95.1133
128.398
84.4431
113.981
111.709
76.1216
71.9395
71.6423
111.87
111.085
65.2928
63.6379
67.6855
73.6917
16.2422
7.0786
62.8965
27.1961
61.0985
15.5349
8.35054
20.1326
84.98
88.2308
37.3651
52.4122
63.9213
89.6811
57.5202
55.0006
10.7895
22.2208
45.224
52.1783
7.98348
6.98025
8.80644
9.45305
91.0653
97.6339
89.0775
70.0452
46.5225
70.2458
23.9489
80.7001
13.6173
61.4728
62.7752
61.6788
14.7615
17.3305
19.355
74.5374
76.0432
11.102
8.30598
10.5847
59.5505
56.8312
17.8908
20.6319
14.9396
71.9392
22.7624
6.43134
10.7795
4.76924
53.3051
12.2263
39.7825
49.1463
45.4274
9.04444
7.25774
10.0062
8.71609
13.9549
9.32755
11.1852
4.62711
4.92325
5.18179
5.24454
5.05241
44.3155
10.7849
29.0423
27.808
11.9861
7.98463
7.65335
8.28034
13.0373
6.21077
5.79081
6.57293
5.56683
7.56028
7.67205
8.81342
7.10132
9.31447
7.56968
7.31058
6.99485
21.2558
26.5534
7.57953
8.29998
8.32539
13.8222
6.64933
7.01078
7.44512
7.33363
7.01753
6.54314
7.5354
7.59181
7.52858
7.55923
9.08812
23.0655
6.23732
7.06668
6.49689
6.96614
6.79839
5.99362
7.37773
7.07107
7.25471
7.24
7.34989
7.26436
7.22147
4.89171
4.48574
7.43459
7.3019
7.35453
7.38559
6.98943
7.25957
7.15985
7.18188
4.8268
6.72022
7.07951
7.31372
7.22594
6.95872
7.20576
6.6591
6.90569
6.82723
7.17517
7.1596
7.11822
7.06813
7.62195
7.62838
7.77919
6.991
7.27901
7.10485
7.21849
7.20612
7.04627
7.12706
6.94003
7.03849
7.0305
7.01708
7.01884
7.45433
7.18364
6.89183
7.05349
6.9165
7.00179
7.36468
7.26136
7.0303
7.23789
6.82712
7.15758
7.20533
7.0387
6.82777
6.92448
6.97727
6.97335
7.03952
7.27976
7.30406
7.28818
7.28511
7.34565
7.33246
7.34041
7.26893
7.24732
7.26444
7.25929
7.47479
7.04775
7.37856
7.11212
7.31459
7.19563
7.17206
7.4388
7.25927
7.25495
7.23451
7.21826
7.23858
7.18221
7.2011
7.38198
7.54765
7.37167
7.34948
6.93064
7.15409
7.17823
7.14545
7.15769
7.17907
7.54104
7.2156
7.30089
6.7833
7.19886
7.09771
7.16887
7.04859
7.0735
7.03572
7.14693
7.09033
7.17733
7.12457
7.2736
7.20404
7.26021
7.15676
7.30573
7.25986
7.31209
7.22882
7.07541
7.13478
7.09788
7.09987
7.10186
7.1255
7.13702
7.15009
7.14996
7.15091
7.19706
7.17158
7.19489
7.25687
7.24869
7.25157
7.2152
7.13941
7.16689
7.20145
7.122
7.09281
7.05523
7.2094
7.13899
7.10568
7.21932
7.2793
7.24395
7.22708
7.25798
7.22343
7.27459
7.23238
7.26232
7.21951
7.24808
7.18277
7.14
7.14109
7.21478
7.16203
7.13337
7.16342
7.18217
7.15939
7.22607
7.21133
7.21196
7.21676
7.20473
7.21082
7.2448
7.3182
7.54467
7.29708
7.23711
7.22656
7.21564
7.23581
7.26337
7.23097
7.23873
7.23489
7.22055
7.21637
7.17883
7.18087
7.19545
7.19132
7.20125
7.52219
7.20893
7.14805
7.27179
7.18378
7.1708
7.15231
7.21704
7.20526
7.19766
7.21079
7.19825
7.18908
7.19537
7.17534
7.20272
7.11751
7.16882
7.11852
7.18091
7.15728
7.19252
7.15135
7.22063
7.22092
7.22597
7.1236
7.16449
7.20504
7.19647
7.12928
7.13991
7.16923
7.161
7.1699
7.1748
7.18843
7.19408
7.20865
7.21204
7.21854
7.22514
7.23571
7.19352
7.23526
7.21577
7.14896
7.18277
7.13293
7.16132
7.18064
7.14462
7.1486
7.16146
7.16174
7.15442
7.17536
7.2913
7.22127
7.21548
7.20716
7.25038
7.21482
7.20689
7.21606
7.22795
7.20568
7.19226
7.17921
7.16143
7.18402
7.18031
7.18743
7.17042
7.17631
7.26685
7.24394
7.24296
7.25903
7.23809
7.23002
7.21855
7.22179
7.21296
7.20709
7.20696
7.21187
7.20361
7.2012
7.24187
7.19025
7.23953
7.1945
7.19422
7.16383
7.19986
7.2259
7.22505
7.21402
7.20684
7.21591
7.18959
7.20277
7.19786
7.20529
7.20943
7.19912
7.20549
7.24468
7.17139
7.20146
7.19544
7.20932
7.14671
7.20566
7.20808
7.19027
7.19969
7.18407
7.1943
7.17796
7.2018
7.20795
7.20772
7.17132
7.19606
7.17281
7.19758
7.16121
7.19081
7.18007
7.1439
7.19506
7.17984
7.11952
7.14069
7.18899
7.17171
7.22408
7.18454
7.25253
7.20213
7.18251
7.2082
7.18418
7.19461
7.20836
7.21488
7.21304
7.22576
7.23106
7.23872
7.24531
7.23968
7.24448
7.23928
7.20126
7.19436
7.18317
7.17272
7.18571
7.14222
7.1853
7.18463
7.15164
7.16285
7.17456
7.18064
7.17076
7.17394
7.18487
7.17186
7.20427
7.20624
7.20087
7.19927
7.18548
7.19263
7.18583
7.19556
7.18439
7.17708
7.15778
7.16173
7.16806
7.1643
7.13987
7.14705
7.19598
7.22853
7.12446
7.19089
7.21023
7.21656
7.19414
7.2105
7.21278
7.20271
7.19986
7.21464
7.20642
7.20336
7.19014
7.14614
7.18588
7.12898
7.17286
7.13369
7.16878
7.21173
7.18612
7.20266
7.19016
7.20484
7.1746
7.19786
7.20244
7.20936
7.21335
7.20818
7.21513
7.19969
7.1715
7.2203
7.15387
7.18872
7.18035
7.2199
7.19883
7.17979
7.20892
7.17212
7.19731
7.18058
7.21393
7.2098
7.21268
7.15983
7.19121
7.18465
7.20679
7.16297
7.19251
7.18023
7.14676
7.1925
7.17648
7.10444
7.14722
7.19681
7.18386
7.24795
7.14246
7.24439
7.21176
7.1801
7.21193
7.20392
7.2019
7.24191
7.24583
7.22983
7.24996
7.25537
7.2466
7.24042
7.24214
7.24742
7.24353
7.19608
7.18178
7.18701
7.19253
7.18045
7.17136
7.19498
7.17879
7.18337
7.17541
7.17494
7.1895
7.17757
7.17794
7.16926
7.17272
7.2097
7.21445
7.18165
7.19459
7.18283
7.19565
7.18205
7.19315
7.1816
7.16044
7.12509
7.12855
7.17469
7.16354
7.11818
7.1163
7.10336
7.11071
7.21725
7.21247
7.20878
7.22133
7.22061
7.21502
7.19517
7.14275
7.17328
7.13295
7.15323
7.15769
7.17009
7.20802
7.17574
7.20339
7.18231
7.20395
7.17665
7.201
7.21556
7.21931
7.22839
7.22283
7.22376
7.18927
7.21843
7.24843
7.17798
7.18701
7.22194
7.2437
7.20812
7.18683
7.21673
7.1826
7.20806
7.18928
7.21521
7.2186
7.22701
7.17466
7.18671
7.1632
7.21885
7.19845
7.1951
7.15908
7.13999
7.19534
7.18831
7.06608
7.13812
7.1925
7.19344
7.16487
7.19726
7.21215
7.2562
7.25889
7.25581
7.26363
7.2601
7.24039
7.24189
7.23349
7.23127
7.24036
7.19484
7.2004
7.22003
7.1961
7.18371
7.19119
7.20207
7.19667
7.20179
7.18357
7.18414
7.20391
7.19475
7.19332
7.18159
7.19539
7.22303
7.23748
7.18512
7.19647
7.18236
7.23094
7.19221
7.20985
7.18683
7.17502
7.12221
7.12202
7.19946
7.19019
7.14035
7.13918
7.13001
7.16342
7.22816
7.23132
7.22265
7.2388
7.24339
7.23297
7.17402
7.18322
7.1487
7.17531
7.16116
7.23659
7.23175
7.25781
7.25332
7.24642
7.21145
7.22394
7.18635
7.16156
7.23148
7.24169
7.26141
7.22224
7.21348
7.18744
7.26066
7.24892
7.24454
7.22589
7.1468
7.19552
7.2036
7.0951
7.1649
7.20704
7.21897
7.19925
7.24465
7.27031
7.25731
7.26108
7.27977
7.24608
7.26047
7.22762
7.24567
7.24386
7.23112
7.25542
7.21941
7.23782
7.25485
7.21523
7.2164
7.21736
7.23314
7.23753
7.23637
7.20979
7.20737
7.23622
7.22819
7.22785
7.21399
7.23538
7.25152
7.26301
7.20395
7.23017
7.19662
7.27821
7.21838
7.24892
7.20701
7.20964
7.1675
7.16605
7.23497
7.23178
7.20053
7.19792
7.19504
7.22115
7.25077
7.25662
7.24804
7.26338
7.2683
7.26212
7.20421
7.2169
7.21685
7.23306
7.24059
7.26721
7.26208
7.29248
7.28103
7.27803
7.22749
7.25648
7.26209
7.26438
7.28701
7.27807
7.29354
7.27234
7.27581
7.25975
7.29339
7.29038
7.29827
7.28893
7.21237
7.23501
7.25057
7.24786
7.26742
7.27762
7.28593
7.26925
7.28703
7.29986
7.24348
7.26085
7.27645
7.24422
7.2617
7.24672
7.27126
7.27036
7.26205
7.28266
7.27905
7.27077
7.28449
7.25184
7.25674
7.2557
7.26851
7.27153
7.27321
7.24841
7.25152
7.27449
7.26744
7.27426
7.25782
7.27922
7.27107
7.27719
7.23336
7.26207
7.21478
7.29615
7.24886
7.27002
7.22229
7.25647
7.23671
7.23163
7.27643
7.27946
7.26361
7.25512
7.24275
7.26011
7.27297
7.27842
7.27208
7.28056
7.28745
7.28126
7.25843
7.26421
7.25871
7.26992
7.27895
7.29362
7.29341
7.31102
7.30533
7.30807
7.29648
7.31016
7.31453
7.31819
7.32594
7.30749
7.31897
7.31083
7.30982
7.32281
7.30916
7.32354
7.3153
7.35472
7.31997
7.31775
7.32098
7.38593
7.35339
7.34354
7.34421
7.33833
7.3199
7.37936
7.24696
7.26436
7.30516
7.24877
7.26688
7.27988
7.29445
7.29327
7.29543
7.30396
7.32508
7.29464
7.30093
7.2837
7.2816
7.28902
7.2969
7.28789
7.30226
7.28392
7.29375
7.30369
7.29862
7.30963
7.2986
7.31367
7.28142
7.28477
7.26442
7.27364
7.23357
7.29809
7.27643
7.27375
7.24673
7.30035
7.28643
7.27548
7.31002
7.31403
7.29899
7.28739
7.2729
7.28255
7.28606
7.29533
7.29101
7.29036
7.30346
7.29622
7.2791
7.28853
7.27022
7.28115
7.29213
7.31559
7.32187
7.32693
7.32324
7.33293
7.3323
7.33403
7.33163
7.33607
7.33738
7.32681
7.33039
7.32376
7.32059
7.34216
7.31221
7.31535
7.32039
7.32245
7.36731
7.34819
7.35222
7.39748
7.36735
7.34613
7.35449
7.3542
7.3739
7.33862
7.26486
7.27502
7.32801
7.27692
7.27824
7.30972
7.31293
7.31076
7.31855
7.31667
7.33485
7.30472
7.30635
7.30633
7.29167
7.31133
7.30847
7.2926
7.31351
7.30951
7.32198
7.31717
7.3131
7.32883
7.3232
7.32761
7.28767
7.28935
7.2828
7.27371
7.2584
7.29787
7.28487
7.27519
7.26667
7.31915
7.30886
7.29236
7.32053
7.31713
7.3135
7.29242
7.28623
7.28412
7.29484
7.30801
7.30055
7.29518
7.31097
7.30392
7.27915
7.29061
7.27524
7.27589
7.28824
7.32733
7.3401
7.33704
7.33083
7.34268
7.33168
7.33927
7.32573
7.32629
7.33698
7.3316
7.33298
7.30273
7.31428
7.30992
7.31412
7.29998
7.31002
7.30102
7.35823
7.34014
7.34838
7.36005
7.34992
7.33234
7.34107
7.3464
7.32184
7.3153
7.26677
7.26441
7.30259
7.23967
7.23534
7.31534
7.30536
7.29637
7.30825
7.29332
7.32396
7.30976
7.30691
7.30412
7.29253
7.30838
7.29768
7.29407
7.29922
7.30974
7.33
7.3043
7.30082
7.32724
7.32644
7.32068
7.29139
7.29243
7.28423
7.2767
7.27205
7.29962
7.28785
7.28019
7.27547
7.31329
7.3093
7.28581
7.3108
7.30444
7.299
7.27641
7.27781
7.2726
7.29595
7.31362
7.30583
7.29683
7.31395
7.30663
7.27632
7.28535
7.2738
7.28053
7.28485
7.33229
7.34143
7.33471
7.33227
7.33776
7.3182
7.32618
7.31134
7.31221
7.31682
7.33397
7.33389
7.30108
7.30933
7.29292
7.32328
7.30701
7.30975
7.28763
7.34054
7.32405
7.33198
7.32629
7.3295
7.31606
7.32452
7.3288
7.30669
7.29707
7.21641
7.20807
7.25253
7.21094
7.20837
7.29453
7.27725
7.27748
7.28679
7.26964
7.30587
7.29532
7.28512
7.29028
7.28316
7.28882
7.28061
7.26517
7.27674
7.28813
7.32144
7.28416
7.27261
7.31325
7.31244
7.30313
7.29241
7.29527
7.29655
7.28562
7.28105
7.30912
7.30143
7.29314
7.28743
7.29634
7.28932
7.27037
7.28947
7.28916
7.28535
7.27091
7.27189
7.27546
7.29834
7.31289
7.30663
7.29993
7.3113
7.30631
7.28324
7.28412
7.27811
7.28416
7.2819
7.33024
7.33171
7.32606
7.32592
7.32457
7.30328
7.30766
7.29627
7.29605
7.2997
7.332
7.32828
7.31806
7.31471
7.29155
7.32558
7.33566
7.3153
7.29517
7.31622
7.309
7.31652
7.30125
7.3047
7.30342
7.30987
7.30629
7.29063
7.2779
7.2175
7.2167
7.17734
7.21887
7.21775
7.28357
7.25312
7.25422
7.28185
7.23731
7.2926
7.27978
7.27787
7.27363
7.25875
7.27457
7.28023
7.25823
7.27627
7.25637
7.30362
7.25564
7.24439
7.29108
7.29258
7.28029
7.29889
7.29845
7.29766
7.30113
7.29128
7.30637
7.29187
7.30351
7.29335
7.28155
7.28394
7.27202
7.26597
7.27225
7.28494
7.27492
7.28223
7.28752
7.30067
7.31029
7.30672
7.30037
7.30854
7.30632
7.27751
7.27473
7.2777
7.26687
7.26514
7.32
7.31763
7.31505
7.31483
7.31226
7.28745
7.2919
7.27957
7.27824
7.28499
7.32282
7.31684
7.34253
7.3078
7.2884
7.31105
7.33957
7.2958
7.26904
7.29419
7.29975
7.30383
7.2912
7.28592
7.29739
7.29956
7.29096
7.2353
7.18712
7.2196
7.2182
7.12948
7.21164
7.22575
7.28094
7.21984
7.20345
7.28271
7.20829
7.28704
7.27558
7.26935
7.27966
7.26613
7.27106
7.26734
7.27249
7.26473
7.23934
7.27814
7.26303
7.25192
7.26833
7.26849
7.26005
7.30098
7.29944
7.28479
7.30073
7.29337
7.28264
7.27566
7.2966
7.28877
7.26316
7.28227
7.27755
7.2545
7.26342
7.26761
7.28063
7.28358
7.27669
7.29886
7.30593
7.30444
7.29766
7.30271
7.30147
7.25478
7.25655
7.25954
7.24273
7.2469
7.31072
7.30799
7.3068
7.30761
7.30456
7.2681
7.27834
7.25909
7.25861
7.27369
7.31069
7.30576
7.32301
7.29279
7.2621
7.29901
7.30769
7.29448
7.28108
7.28056
7.29729
7.29601
7.29036
7.27592
7.29867
7.294
7.28257
7.20984
7.27913
7.23086
7.26211
7.26372
7.31087
7.32274
7.28656
7.21704
7.23315
7.29656
7.26072
7.29841
7.26212
7.25278
7.26776
7.27751
7.27103
7.26959
7.27685
7.28237
7.26425
7.26672
7.2704
7.26378
7.26751
7.25658
7.25716
7.29304
7.28553
7.26501
7.28958
7.2809
7.26399
7.25162
7.28088
7.27253
7.25949
7.25675
7.26951
7.24884
7.24801
7.25096
7.24482
7.2654
7.25141
7.29412
7.29885
7.29762
7.28932
7.29448
7.29304
7.23545
7.2438
7.24007
7.23025
7.24243
7.30429
7.30121
7.29837
7.29903
7.2962
7.25103
7.27051
7.24298
7.24641
7.26991
7.30157
7.29829
7.29929
7.29891
7.3028
7.29445
7.29501
7.29812
7.30826
7.27344
7.30037
7.29252
7.29214
7.27121
7.30043
7.29126
7.28091
7.34158
7.3583
7.3788
7.36796
7.44452
7.39885
7.3831
7.30775
7.30728
7.32258
7.31267
7.3291
7.30801
7.2375
7.22188
7.27953
7.26392
7.28933
7.28163
7.24837
7.28481
7.26025
7.26117
7.25293
7.25455
7.25805
7.25176
7.24879
7.27879
7.2743
7.23355
7.2733
7.26299
7.24749
7.21213
7.2677
7.25411
7.23796
7.24974
7.21894
7.25162
7.22699
7.24358
7.18616
7.23329
7.21441
7.28475
7.29007
7.28851
7.28231
7.28645
7.28537
7.23076
7.24862
7.23583
7.23365
7.25409
7.29391
7.29238
7.28964
7.28944
7.29087
7.24544
7.27105
7.23762
7.24718
7.2742
7.29742
7.29562
7.29609
7.29573
7.30596
7.29391
7.29592
7.29399
7.30027
7.27041
7.29777
7.29028
7.28586
7.27117
7.29556
7.28943
7.28425
7.34227
7.32616
7.3815
7.37148
7.37791
7.3515
7.34809
7.31096
7.33034
7.31869
7.304
7.3205
7.30181
7.20928
7.21214
7.2798