/*--------------------------------*- C++ -*----------------------------------*\
| =========                 |                                                 |
| \\      /  F ield         | OpenFOAM: The Open Source CFD Toolbox           |
|  \\    /   O peration     | Version:  5.x                                   |
|   \\  /    A nd           | Web:      www.OpenFOAM.org                      |
|    \\/     M anipulation  |                                                 |
\*---------------------------------------------------------------------------*/
FoamFile
{
    version     2.0;
    format      ascii;
    class       volScalarField;
    location    "0.7";
    object      voidfraction;
}
// * * * * * * * * * * * * * * * * * * * * * * * * * * * * * * * * * * * * * //

dimensions      [0 0 0 0 0 0 0];

internalField   nonuniform List<scalar> 
10571
(
0.759901
0.851118
0.93121
0.918037
0.814323
0.953216
0.9251
0.986557
0.930691
0.885169
0.990097
0.905478
0.945948
0.988504
0.956795
0.897305
0.834774
0.906108
0.873151
0.698497
0.612949
0.947327
0.879619
0.708289
0.639071
0.931088
0.984428
0.793808
0.859814
0.889475
0.963466
0.988888
0.967433
0.796087
0.996248
0.901898
0.947382
0.985342
0.89594
0.851411
0.805758
0.76209
0.970088
0.715488
0.467473
0.47133
0.941908
0.719667
0.579024
0.950561
0.996199
0.96314
0.849834
0.895503
0.98154
0.968004
0.926999
0.710551
0.847381
0.868068
0.906623
0.994391
0.81658
0.562713
0.966052
0.687694
0.866848
0.62659
0.471717
0.577213
0.787188
0.463458
0.619144
0.831824
0.995063
0.985539
0.935672
0.619945
0.902066
0.947274
0.643554
0.86819
0.431719
0.998318
0.91167
0.973349
0.596159
0.435245
0.888815
0.696711
0.609995
0.455178
0.497844
0.457721
0.443017
0.420115
0.961194
0.777343
0.707148
0.84755
0.983592
0.66965
0.821455
0.796707
0.790979
0.965235
0.923693
0.797277
0.950273
0.930625
0.595151
0.82752
0.731319
0.761373
0.512615
0.440383
0.466782
0.756862
0.42544
0.424175
0.994613
0.996247
0.996221
0.989707
0.991422
0.996148
0.973305
0.97738
0.985736
0.987992
0.741313
0.996371
0.965201
0.894476
0.776991
0.792787
0.963111
0.550205
0.993986
0.96408
0.865805
0.601846
0.969728
0.992759
0.977409
0.985274
0.994833
0.996751
0.998009
0.993972
0.995482
0.998378
0.997739
0.996803
0.992791
0.992597
0.996468
0.996371
0.998681
0.993004
0.98839
0.991248
0.991328
0.998915
0.996181
0.995228
0.99384
0.995749
0.98703
0.997536
0.999961
0.996829
0.988321
0.992195
0.998264
0.999021
0.994211
0.991077
0.998378
0.998069
0.996205
0.995055
0.996721
1
0.996591
0.996109
0.99742
0.996803
0.994564
0.987956
0.999472
0.996962
0.996224
0.994595
0.994093
0.989685
0.998534
0.996244
0.994081
0.997068
0.994503
0.998936
0.997064
0.99509
0.990114
0.998986
0.997816
0.996436
0.995126
0.994842
1
0.996701
1
0.997258
0.997282
0.99318
0.991644
1
0.996241
0.996714
0.995307
0.993918
0.994829
0.995276
0.993355
0.99594
0.998241
0.996023
1
0.997293
0.991058
0.99804
0.998587
0.99605
0.994587
0.995576
1
0.999019
0.998007
0.997364
0.994745
0.991318
0.996512
0.997108
0.995276
0.993277
0.995265
0.997793
0.995319
0.985078
0.99934
1
0.998752
0.99449
0.991497
0.997703
0.997741
0.996636
0.995155
0.99272
0.997031
0.998681
0.997981
0.997138
0.996118
0.99157
0.997384
0.996553
0.995359
0.992617
0.997349
0.994773
0.990096
1
0.996592
1
0.998044
0.995878
0.990839
0.999021
0.998733
0.997573
0.995846
0.996979
1
0.999087
0.997679
0.997765
0.995483
0.996525
0.997745
0.996733
0.996082
0.993626
0.997972
0.990398
0.994444
0.99363
0.99978
0.996752
0.998112
0.997365
0.989125
0.998683
0.998451
0.996788
0.996124
0.985233
0.99989
0.998208
0.997826
0.996465
0.995121
0.993712
0.998076
0.995885
0.996725
0.992723
0.99006
0.996128
0.996105
0.993839
0.995492
1
0.998382
0.996993
0.997266
0.999021
0.998573
0.99805
0.994415
0.987672
0.996811
0.999324
0.998061
0.99758
0.995436
0.990628
0.996512
0.996806
0.995141
0.993189
0.99804
0.991483
0.996226
0.995939
0.989445
0.998376
1
0.990473
0.991017
0.998109
0.997986
0.996181
0.993409
0.995464
0.996811
0.99902
0.99765
0.997375
0.994848
0.989116
0.996813
0.995635
0.995266
0.994992
0.992859
0.995741
0.997584
0.992089
0.995822
0.999944
0.997202
0.998818
0.996064
0.996522
0.997795
0.996838
0.994899
0.987207
1
0.995606
0.996865
0.996697
0.995586
0.996251
0.993897
0.996774
0.994312
0.994491
0.992789
0.99307
0.997373
0.99762
1
0.998376
0.997135
0.998244
0.992879
0.999021
0.997585
0.997363
0.995582
0.995502
0.99934
0.998074
0.997277
0.996662
0.994848
0.993499
0.997024
0.993887
0.996123
0.993924
0.993208
0.99218
0.995138
0.992227
1
1
0.999022
0.994292
0.996545
0.998109
0.997852
0.997916
0.994996
0.989648
1
0.996181
0.997196
0.996113
0.996044
0.990294
0.99507
0.993237
0.99472
0.993257
0.99468
0.988658
0.988739
0.99321
0.990546
0.996752
0.998382
0.996082
0.995945
0.995442
0.997978
0.997855
0.995461
0.994109
0.994723
0.996722
0.996496
0.99564
0.995254
0.994468
0.993897
0.994711
0.994482
0.997062
0.99321
0.995394
0.99526
0.99244
0.993734
0.997928
0.998045
0.997332
0.996516
0.998042
0.997551
0.996753
0.996196
0.993915
1
0.994998
0.995742
0.996027
0.994998
0.99338
0.995341
0.995231
0.99603
0.996462
0.99118
0.994038
0.995169
0.99783
0.996812
1
0.997135
0.997703
0.997356
0.999662
0.997753
0.996949
0.997108
0.994767
0.993624
0.998783
0.997365
0.997332
0.996093
0.994378
0.994498
0.996758
0.994821
0.992856
0.99244
0.994038
0.995048
0.99559
0.996592
0.996808
0.997101
0.995879
0.998378
0.99919
0.997913
0.997736
0.995832
0.99279
0.993623
0.99706
0.998015
0.996937
0.997118
0.994106
0.996603
0.997977
0.997498
0.997096
0.99601
0.995935
0.996558
0.99538
1
0.9958
0.997067
0.997399
0.995644
0.996117
0.998214
0.996515
0.995828
0.997829
0.996921
0.998885
0.997838
0.997588
0.996231
0.991234
0.998046
0.997735
0.997223
0.996628
0.99664
0.996671
0.996679
0.99881
0.995052
0.998432
0.999966
0.99848
0.995854
0.996353
0.997722
0.997256
0.997028
0.99717
0.996812
0.998682
0.99855
0.997851
0.994865
0.996463
0.998256
0.998708
0.997182
0.999599
0.99538
0.998916
0.999094
0.99993
0.998131
0.9986
0.994135
0.997061
0.998738
0.999021
0.998001
0.996746
0.997072
0.997752
0.996592
0.994728
0.998777
0.998552
0.996218
0.99737
0.999098
0.997295
0.996147
0.996128
0.99188
0.999342
0.995924
0.99391
0.995161
0.998432
0.998045
0.99642
0.998227
1
0.998287
0.996416
0.99603
0.997441
0.99967
0.997499
0.998211
0.997061
0.995777
0.999244
0.999008
0.998829
0.997853
0.995026
0.99804
0.998877
0.99206
0.99419
0.993622
1
0.996932
0.997365
0.998799
0.997873
0.998836
0.996488
0.996652
0.997752
0.993294
0.996992
0.998996
0.998161
0.997678
0.995919
0.998256
0.998175
0.996442
0.99536
1
0.996709
0.998249
0.99797
0.993072
0.993561
0.997371
0.99902
0.996876
0.998818
0.998409
0.997406
0.996822
0.993798
0.997911
0.99902
0.998885
0.99801
0.998427
0.998247
0.998918
0.99874
0.997813
1
0.99797
0.997832
0.998249
0.99594
1
0.997256
0.996124
0.998075
0.997837
0.998784
0.99871
0.997175
0.997032
0.998139
0.996812
0.999358
0.999004
0.998533
0.998265
0.995919
0.998557
0.999483
0.998828
0.998398
0.99797
0.996671
0.997705
1
1
0.999944
0.997337
0.995744
0.997507
0.998042
0.999092
0.996147
0.995344
0.996821
0.999121
0.998851
0.998627
0.998463
0.998217
0.998942
0.999429
0.999532
0.999103
0.998231
0.99993
0.998877
0.999124
1
1
0.995128
0.99346
0.997365
0.997626
0.995104
0.998829
0.997287
0.997512
0.998837
1
0.997668
0.999008
0.999253
0.998281
0.999547
1
0.998385
0.998698
0.998665
0.99783
0.999613
0.997524
1
1
0.993952
0.99764
0.998784
0.999129
0.995881
0.998966
0.997475
0.997129
0.997751
0.996811
0.997161
0.99955
0.998436
0.998468
0.996373
0.999699
0.998954
0.998824
1
0.99797
0.998877
1
0.99594
0.996811
0.994065
0.994135
0.99902
0.998708
0.999662
0.99871
0.997866
0.997298
0.997015
0.996812
0.99902
0.998896
0.998951
0.998298
1
0.998827
0.999766
0.999531
0.99743
1
0.999303
1
1
0.99989
0.982301
0.99646
0.99902
0.995673
0.997062
0.998325
0.998799
0.997698
0.998876
0.996701
0.99902
0.998685
0.998978
0.998314
0.999244
1
0.999532
0.999418
1
0.99923
1
0.999124
1
0.997911
0.992945
0.99609
1
0.997416
0.995948
0.998234
0.998634
0.998328
0.997751
0.996812
0.99706
0.999454
0.998447
0.9994
1
0.998467
0.999297
0.998969
0.998064
0.99916
0.999264
0.999124
0.99797
1
0.998096
0.997809
0.997264
0.99994
0.998683
0.998558
0.99815
0.998574
0.998876
1
0.998107
0.998858
0.99933
0.998946
0.998247
1
0.999491
0.999644
0.999032
0.99867
1
0.999124
1
1
0.998376
0.996056
0.998142
0.999099
0.999088
0.99871
0.998806
0.999649
1
1
0.998648
0.999211
0.999102
0.999745
0.997672
1
0.999415
0.999806
1
0.99867
0.999303
1
0.99594
0.99989
1
0.99855
0.998041
0.998768
0.998109
0.999149
0.999106
0.999532
0.998876
0.993843
0.998006
0.999554
0.998982
0.999339
1
1
0.999883
0.999725
1
0.99797
1
1
0.99797
0.996811
0.99636
0.999933
1
0.999129
0.998041
0.998932
0.999332
0.999649
1
1
0.997296
0.999554
0.999067
0.999724
0.999123
0.999128
1
0.999495
0.999032
1
1
0.999124
1
0.99934
0.998376
0.999022
1
1
1
0.999145
0.99929
0.999673
1
1
1
0.999442
0.999628
0.999765
1
0.999128
0.999649
0.999721
1
1
1
1
1
1
1
1
1
1
0.999021
0.999577
0.999409
0.999532
1
1
0.99902
0.999438
0.999888
0.9997
1
0.999429
0.999806
0.999923
1
1
1
1
1
1
1
1
1
1
1
0.999447
0.999739
0.999883
1
1
0.999966
0.999662
0.999326
0.999765
1
1
0.99996
0.999883
1
1
1
1
1
1
1
1
1
1
0.998987
0.999779
1
1
1
1
0.99902
0.999665
0.999663
0.999765
1
1
0.999883
1
1
1
1
1
1
1
1
0.999023
1
1
0.999021
0.999779
1
1
1
1
1
1
0.999888
1
1
0.999128
1
1
1
1
1
1
1
1
1
1
1
1
0.999021
0.999889
1
1
1
1
1
1
0.999888
1
1
1
1
1
1
1
1
1
1
1
1
1
0.999797
1
1
1
1
1
1
1
1
1
1
0.999882
1
1
1
1
1
1
1
1
1
1
1
1
1
1
1
0.999889
1
1
1
1
1
1
1
1
1
1
1
1
1
1
1
1
1
1
1
1
1
1
1
1
1
1
1
1
1
1
1
1
1
1
1
1
1
1
1
1
1
1
1
1
1
1
1
1
1
1
1
1
1
1
0.999888
1
1
1
1
1
1
1
1
1
1
1
1
1
1
1
1
1
1
1
1
1
1
1
1
1
1
1
1
1
1
1
1
1
1
1
1
1
1
1
1
1
1
1
1
1
1
1
1
1
1
1
1
1
1
1
1
1
1
1
1
1
1
1
1
1
1
1
1
1
1
1
1
1
1
1
1
1
1
1
1
1
1
1
1
1
1
1
1
1
1
1
1
1
1
1
1
1
1
1
1
1
1
1
1
1
1
1
1
1
1
1
1
1
1
1
1
1
1
1
1
1
1
1
1
1
1
1
1
1
1
1
1
1
1
1
1
1
1
1
1
1
1
1
1
1
1
1
1
1
1
1
1
1
1
1
1
1
1
1
1
1
1
1
1
1
1
1
1
1
1
1
1
1
1
1
1
1
1
1
1
1
1
1
1
1
1
1
1
1
1
1
1
1
1
1
1
1
1
1
1
1
1
1
1
1
1
1
1
1
1
1
1
1
1
1
1
1
1
1
1
1
1
1
1
1
1
1
1
1
1
1
1
1
1
1
1
1
1
1
1
1
1
1
1
1
1
1
1
1
1
1
1
1
1
1
1
1
1
1
1
1
1
1
1
1
1
1
1
1
1
1
1
1
1
1
1
1
1
1
1
1
1
1
1
1
1
1
1
1
1
1
1
1
1
1
1
1
1
1
1
1
1
1
1
1
1
1
1
1
1
1
1
1
1
1
1
1
1
1
1
1
1
1
1
1
1
1
1
1
1
1
1
1
1
1
1
1
1
1
1
1
1
1
1
1
1
1
1
1
1
1
1
1
1
1
1
1
1
1
1
1
1
1
1
1
1
1
1
1
1
1
1
1
1
1
1
1
1
1
1
1
1
1
1
1
1
1
1
1
1
1
1
1
1
1
1
1
1
1
1
1
1
1
1
1
1
1
1
1
1
1
1
1
1
1
1
1
1
1
1
1
1
1
1
1
1
1
1
1
1
1
1
1
1
1
1
1
1
1
1
1
1
1
1
1
1
1
1
1
1
1
1
1
1
1
1
1
1
1
1
1
1
1
1
1
1
1
1
1
1
1
1
1
1
1
1
1
1
1
1
1
1
1
1
1
1
1
1
1
1
1
1
1
1
1
1
1
1
1
1
1
1
1
1
1
1
1
1
1
1
1
1
1
1
1
1
1
1
1
1
1
1
1
1
1
1
1
1
1
1
1
1
1
1
1
1
1
1
1
1
1
1
1
1
1
1
1
1
1
1
1
1
1
1
1
1
1
1
1
1
1
1
1
1
1
1
1
1
1
1
1
1
1
1
1
1
1
1
1
1
1
1
1
1
1
1
1
1
1
1
1
1
1
1
1
1
1
1
1
1
1
1
1
1
1
1
1
1
1
1
1
1
1
1
1
1
1
1
1
1
1
1
1
1
1
1
1
1
1
1
1
1
1
1
1
1
1
1
1
1
1
1
1
0.83644
0.796574
0.968345
0.916367
0.851988
0.840608
0.6339
0.506907
0.528133
0.549659
0.860232
0.627635
0.977474
0.997019
0.905294
0.942082
0.811787
0.820696
0.663825
0.778793
0.739023
0.542884
0.497275
0.699532
0.635019
0.570399
0.726287
0.859362
0.853072
0.845701
0.992632
0.902574
0.961992
0.897576
0.843815
0.841463
0.784395
0.850028
0.786409
0.818871
0.836645
0.750186
0.732512
0.80594
0.844781
0.666877
0.866757
0.878057
0.843604
0.937712
0.941175
0.938089
0.922613
0.992036
0.955899
0.810386
0.780337
0.837522
0.798233
0.856756
0.854113
0.893112
0.92289
0.887573
0.916117
0.890807
0.78391
0.84619
0.808102
0.673053
0.849804
0.901248
0.791916
0.54748
0.62206
0.920562
0.877782
0.866048
0.791972
0.788725
0.780641
0.776537
0.722171
0.696442
0.604466
0.560629
0.579703
0.611104
0.512351
0.576576
0.582613
0.663011
0.545489
0.640802
0.567946
0.582457
0.915256
0.969581
0.879885
0.915397
0.811293
0.808549
0.929723
0.745328
0.727247
0.559987
0.571388
0.606723
0.536342
0.504724
0.592311
0.754219
0.81584
0.920021
0.924414
0.945979
0.915044
0.957895
0.927352
0.965635
0.66788
0.955698
0.843218
0.922679
0.895157
0.977108
0.927787
0.60624
0.703975
0.906971
0.980196
0.92492
0.963673
0.996924
0.974702
0.985927
0.977629
0.887192
0.989697
0.987691
0.96583
0.943963
0.98759
0.961159
0.800389
0.876891
0.666057
0.870369
0.893175
0.645611
0.885627
0.589573
0.952406
0.650879
0.887719
0.746124
0.860159
0.732664
0.637576
0.538392
0.693483
0.510763
0.736527
0.491363
0.74976
0.459776
0.475259
0.934966
0.534502
0.833153
0.873526
0.649561
0.547802
0.511909
0.846722
0.921866
0.939292
0.947883
0.75214
0.744191
0.996162
0.998026
0.893448
0.984941
0.930521
0.827203
0.998677
0.980142
0.728768
0.577549
0.616936
0.854664
0.714127
0.681935
0.822465
0.97236
0.965376
0.997625
0.901647
0.989645
0.938988
0.99496
0.912003
0.997674
0.922966
0.974641
0.939615
0.814523
0.911995
0.958154
0.943922
0.740501
0.833307
0.999963
0.996462
0.992056
1
0.998045
0.981648
0.989563
0.972434
0.650284
0.941734
0.957601
0.960616
0.641595
0.992398
0.795264
0.643262
0.858898
0.573663
0.740575
0.79213
0.520724
0.615838
0.800749
0.771724
0.863265
0.6382
0.93582
0.806376
0.793651
0.770048
0.466988
0.690152
0.447258
0.681059
0.467207
0.58326
0.442884
0.460442
0.60429
0.82269
0.519523
0.473481
0.489417
0.494714
0.454175
0.977675
0.701116
0.915238
0.939548
0.618387
0.603921
0.992405
0.906625
0.720358
0.988009
0.966728
0.648978
0.925832
0.930556
0.862018
0.717072
0.557681
0.862903
0.749511
0.824128
0.929447
0.982611
0.995973
0.992208
0.906916
0.997838
0.927228
0.978977
0.921485
0.99166
0.923444
0.82359
0.921452
0.926922
0.94807
0.686635
0.901264
0.882229
0.908022
0.99977
0.928231
0.86001
0.890961
0.665987
0.667796
0.662256
0.710584
0.81055
0.5484
0.539948
0.644669
0.833739
0.5481
0.69736
0.887281
0.610425
0.498196
0.447439
0.551287
0.467869
0.89089
0.82755
0.910213
0.833593
0.840419
0.98048
0.973743
0.766455
0.855906
0.458529
0.48145
0.430808
0.538448
0.442494
0.440352
0.453227
0.513004
0.920864
0.759617
0.479697
0.447179
0.598168
0.450984
0.442582
0.769851
0.541483
0.492796
0.503938
0.459928
0.427852
0.634494
0.661004
0.623832
0.800359
0.89802
0.609067
0.679799
0.774346
0.850634
0.816162
0.785872
0.821963
0.93556
0.938065
0.983194
0.78927
0.478483
0.860271
0.808822
0.890996
0.585804
0.576759
0.483549
0.498323
0.989497
0.805072
0.911242
0.973641
0.983687
0.924908
0.95352
0.953466
0.977137
0.563153
0.450399
0.510262
0.482967
0.466023
0.496192
0.592119
0.630354
0.939981
0.803426
0.896724
0.643384
0.732545
0.485266
0.577174
0.551467
0.577406
0.462519
0.578636
0.830442
0.458366
0.587553
0.446337
0.971146
0.53312
0.72115
0.590118
0.945301
0.450964
0.598193
0.439484
0.42915
0.433426
0.442625
0.424479
0.424693
0.424099
0.471826
0.468478
0.456579
0.432301
0.410457
0.434765
0.417058
0.4369
0.450481
0.439469
0.42352
0.442449
0.430821
0.422759
0.920478
0.987523
0.888952
0.827963
0.892398
0.990104
0.977785
0.983283
0.951321
0.982147
0.988566
0.992364
0.994653
0.998116
0.982197
0.696107
0.976247
0.780795
0.664924
0.663683
0.969981
0.976452
0.9694
0.971649
0.98795
0.970304
0.979267
0.991073
0.989196
0.988116
0.990073
0.991545
0.991484
0.817768
0.910717
0.819661
0.991292
0.993622
0.969896
0.938028
0.971197
0.987636
0.963546
0.960351
0.810085
0.79812
0.988344
0.957979
0.978702
0.959084
0.520775
0.930976
0.960344
0.738509
0.852682
0.995884
0.802743
0.838856
0.716138
0.970502
0.88928
0.975418
0.952955
0.420684
0.416903
0.452639
0.436413
0.558344
0.5526
0.751829
0.770032
0.84713
0.985867
0.519262
0.587123
0.967824
0.904249
0.929975
0.438839
0.486437
0.733219
0.689141
0.88455
0.683675
0.998676
0.999303
0.992633
0.997561
0.995638
1
0.999381
0.997486
0.994453
0.993489
0.994943
0.995969
0.996241
0.995951
0.992257
0.99596
0.997701
0.998262
1
0.990492
0.998376
0.9997
0.998271
0.995342
0.995529
0.988099
0.988251
0.9955
0.992514
0.988296
0.989174
0.994435
0.993552
1
0.99934
0.998425
0.99791
0.99912
0.997668
0.964981
0.976822
0.87657
0.995112
0.991251
0.98558
0.989873
0.488563
0.548383
0.39395
0.991637
0.957471
0.979713
0.900626
0.997303
0.998877
0.996591
1
0.998877
0.893064
0.913853
0.98159
0.987029
0.995022
0.990261
0.995019
0.387802
0.734113
0.451329
0.982453
0.881784
0.997514
0.947876
0.997977
1
0.975653
0.995669
0.994884
0.995459
0.993564
0.990381
0.995428
0.836487
0.924481
0.976529
0.92768
0.975261
0.991184
0.981751
0.990909
0.993913
0.988805
0.99426
0.992317
0.993417
0.993956
0.994732
0.985523
0.992318
0.990816
0.990839
0.98288
0.993415
0.997978
1
1
0.999265
0.995305
0.993623
0.996942
0.99679
0.992635
0.985784
0.993844
0.995091
0.989895
0.992199
0.989218
0.993939
0.99798
0.994965
0.998271
0.999967
1
0.997812
0.998838
0.997785
0.986746
0.994406
0.992132
0.992756
0.99181
0.992284
0.993838
0.998042
1
0.998695
1
0.998357
0.998938
0.99854
0.998384
0.998839
0.99835
0.997062
0.994619
1
0.997546
0.997796
0.995534
0.995703
0.99451
0.998827
0.993915
0.996039
0.997826
0.998463
0.997881
0.999178
0.999354
0.999198
1
0.999121
0.998877
1
0.999636
0.998954
0.995299
0.993258
0.997157
0.989835
0.998115
0.98821
0.992362
0.998629
0.999285
0.997827
0.999033
0.999031
0.999462
0.999149
0.997837
0.997977
0.988945
0.991843
0.994308
0.997113
0.998119
0.996737
0.99888
0.992873
0.992893
0.990385
0.990017
0.989718
0.991055
0.986967
0.997846
0.990871
0.998578
1
0.998541
1
0.996012
0.996641
0.994441
0.996817
0.996438
0.996828
0.996817
0.991113
0.996818
0.992541
0.987741
0.997476
0.985124
0.997212
0.991565
0.998901
0.998916
0.997062
0.994722
0.997755
0.99679
0.992516
0.99009
0.995713
0.993182
0.992759
0.987969
0.98608
0.99798
0.996029
0.998711
0.995857
0.999055
0.99832
0.995565
0.998331
0.997817
0.991761
0.990098
0.991099
0.992631
0.994169
0.99623
0.994305
0.993547
0.998079
0.986498
0.996432
1
0.998367
1
1
0.993419
0.996811
0.995668
0.998839
1
0.995608
0.998782
0.995185
0.995079
0.991447
0.99985
0.991112
0.992592
0.998941
0.99936
0.999799
0.998962
0.999589
0.999242
0.999377
0.996424
0.997211
1
0.999121
0.998838
0.996574
0.992657
0.996009
0.993377
0.995911
0.990999
0.998954
1
0.999572
1
1
0.999689
1
1
0.99421
1
0.999571
0.996231
0.991583
0.998256
0.996997
0.995668
0.993793
0.988289
0.993431
0.987678
0.993444
0.990669
0.992202
0.989104
1
0.993341
1
1
1
1
0.997831
0.997481
0.996828
0.997366
0.992604
0.996949
0.999342
0.988325
0.992099
0.998218
0.992668
1
0.987769
0.997978
0.996794
1
0.997794
0.999122
0.996811
1
0.999818
0.992788
0.995352
0.986917
0.996454
0.991207
0.985923
0.991073
1
0.996656
0.995954
0.997407
0.999055
0.99748
0.996884
0.999106
0.999056
0.988423
0.990918
0.99343
0.992103
0.993649
0.993228
0.995304
0.990941
0.991004
0.9964
1
0.999788
0.997987
1
0.996698
0.997582
0.997361
0.993976
0.993406
0.999935
0.992903
0.998715
0.999962
1
0.999974
1
1
1
0.998005
0.999121
0.996708
0.996921
0.999152
0.997018
0.99333
0.99113
0.997484
0.990383
0.990891
0.990279
0.997724
1
1
1
1
1
1
1
0.99993
0.997907
0.998416
0.998312
0.996427
0.996
0.995281
0.996737
0.99667
0.988665
0.99273
0.993054
0.992577
0.992152
0.990439
0.990149
0.99004
0.998531
0.998111
0.998187
0.990452
0.996902
0.995076
1
0.992512
0.997037
0.994504
0.987471
0.990892
0.989282
1
0.998118
0.995382
0.997755
0.994094
0.99912
0.997368
0.998213
0.993092
0.985166
0.995163
0.994426
0.993766
0.991072
0.984728
0.997283
0.997283
0.998112
0.998301
0.999056
0.995128
0.997543
0.997497
0.99733
0.991753
0.994354
0.991321
0.993144
0.992304
0.995039
0.995599
0.995034
0.993172
0.997755
1
0.999122
0.994388
0.996811
0.999122
0.995724
0.997813
0.990762
0.993429
0.993836
0.99703
0.998877
1
0.999091
0.998877
0.998979
0.994132
0.990117
0.995482
0.99334
0.995884
0.999163
0.998119
0.996681
0.992038
0.998617
0.998087
0.995163
0.996064
0.993151
0.995579
0.989062
0.99605
0.992229
0.989956
0.994014
0.993301
0.99972
0.996572
0.997462
0.993195
0.997483
0.993053
0.990452
0.991082
0.989795
0.994625
0.987947
1
0.986974
0.997979
1
1
0.998065
0.995337
0.996152
0.996246
0.999122
0.996638
0.992723
0.993623
0.993942
0.994659
0.993865
0.990938
0.998677
1
0.998922
0.995977
0.996973
0.995128
0.998263
0.997974
0.998926
0.996799
0.990996
0.994462
0.990869
0.994159
0.99552
0.995405
0.997979
0.993231
1
0.99978
1
0.9964
1
0.998183
0.99299
0.990516
0.991941
0.992952
0.993627
0.997334
0.997754
1
0.999121
0.996631
0.988346
0.996889
0.989361
0.99506
0.989009
0.996024
0.997977
0.997262
0.998931
0.992401
0.996512
0.999241
0.996738
0.998244
0.992495
0.996168
0.99407
0.993492
0.994453
0.995835
0.995143
0.984146
0.997271
0.997971
0.996828
0.993744
0.994696
0.994865
0.993525
0.987061
0.993635
0.995984
0.991401
0.997915
0.9972
0.997979
1
0.991094
0.99702
0.996366
0.996811
0.995511
0.99894
0.992186
0.994117
0.996811
0.99476
0.995084
0.99275
0.995957
0.999303
0.998677
0.999131
0.999106
0.99795
0.998376
1
0.998332
0.999967
0.991069
0.994499
0.991081
0.991499
0.995562
0.996278
0.993165
0.990289
0.995735
0.996826
1
0.998243
0.998878
0.996811
0.998274
0.993225
0.9934
0.995466
0.993224
0.989768
1
0.998877
0.99989
0.996516
0.998838
0.983297
0.997253
0.990993
0.994395
0.991176
0.99993
0.996303
0.995614
0.996738
0.997215
0.997053
0.998714
1
0.995459
0.996434
0.992705
0.99164
0.996629
0.989876
0.994893
0.995254
0.995942
0.993354
0.993284
0.997433
0.996817
0.994386
0.99707
0.990561
0.98594
0.998903
0.996014
0.995314
0.990452
0.99531
1
0.99993
0.997031
0.997872
0.997547
0.995712
0.997756
0.997063
0.993215
0.993729
0.990434
0.995638
0.993691
0.995259
0.992819
0.99798
0.99798
0.99997
0.998808
0.998438
0.999328
0.997783
0.999136
0.998113
0.99174
0.998023
0.99398
0.992069
0.989154
0.993871
0.987898
0.995524
0.991955
1
1
0.99997
0.999265
1
0.997365
0.995794
0.993288
0.99279
0.993464
0.988337
0.999152
0.9988
1
0.998243
0.998838
0.984392
0.996129
0.994044
0.986151
0.994812
0.995954
0.998675
0.996175
0.998144
0.999122
0.998497
0.995977
0.997863
0.997215
0.989813
0.993828
0.996044
0.994725
0.995577
0.994467
0.992201
0.996569
0.995942
0.993913
0.998369
0.993525
0.991366
0.997312
0.997476
0.995197
0.996817
0.996467
0.991672
0.996269
0.995379
0.992334
1
0.994722
0.997717
0.995034
1
0.998143
0.993157
0.995093
0.996168
0.996811
0.9927
0.993691
0.995956
0.990031
0.99798
0.99596
0.998143
0.999136
0.998438
0.996752
0.998562
0.996544
0.999056
0.986007
0.991037
0.992134
0.988433
0.994886
0.992717
0.994554
0.98349
0.980761
0.998258
1
0.999152
0.997949
0.996811
0.997365
0.990044
0.987238
0.982322
0.990316
0.980747
0.996304
0.998916
1
0.998303
0.997909
1
0.991134
0.990023
1
0.995005
0.995954
0.997977
0.997626
1
0.994491
0.998256
0.99789
0.990214
0.996035
0.993929
0.995531
0.992483
0.995593
0.995424
0.995804
0.993218
0.997059
0.99923
0.995942
0.993386
0.996817
0.99187
0.993356
0.983427
0.996204
0.993635
0.995984
0.99357
0.992098
0.99769
0.996237
0.985295
0.997691
0.996208
0.996336
0.993733
1
0.994096
0.991186
0.993265
0.997801
0.9927
0.992181
0.995259
0.994702
1
1
0.998832
0.998212
1
0.99524
0.997214
0.999106
0.998764
0.988985
0.995156
0.993858
0.994682
0.996684
0.997693
0.994675
0.991185
0.989296
0.997794
1
0.997365
0.997755
1
0.999091
0.988501
0.984048
0.988331
0.992889
1
0.997516
0.998722
0.996152
0.998394
0.995547
0.990438
0.993108
0.991837
0.987251
0.991637
0.997977
0.997977
0.998021
0.995107
0.995036
0.997956
0.996208
0.998369
0.997094
0.992252
0.992764
0.991184
0.99359
0.993746
0.994862
0.993501
0.992929
0.993983
0.993773
0.99408
0.993634
0.996283
0.99399
0.983427
0.993687
0.992866
0.993025
0.992331
0.992318
0.995589
0.996655
1
0.993623
0.99911
0.995943
0.996811
1
0.997699
0.995245
0.995858
0.993513
0.992761
0.994387
0.996026
0.995259
0.998119
1
0.997394
0.997408
1
1
0.99994
0.998212
0.996226
0.997303
0.994168
0.994554
0.996305
0.994549
0.995321
0.997519
0.995523
0.990416
0.998181
1
0.999122
0.998491
0.994832
0.99679
0.988743
0.993619
0.992596
0.988471
0.993619
0.999121
0.995741
0.99989
0.998364
0.996515
0.995494
0.997754
0.991928
0.996813
0.986991
0.997977
0.995048
0.995911
0.996738
0.997185
0.99555
0.993405
0.995107
0.996489
0.993106
0.993615
0.995366
0.99379
0.991367
0.995561
0.995422
0.990408
0.992514
0.994753
0.99843
0.998902
0.996554
0.994715
1
0.991673
0.996708
0.99698
0.992912
0.984416
0.989918
1
1
0.996811
0.995512
0.996851
0.993624
0.998878
0.997184
0.997335
0.996284
0.996702
0.99682
0.995084
0.995328
0.989335
0.998677
0.999303
1
0.998272
1
1
0.999131
0.997438
0.999382
0.98859
0.99397
0.996914
0.994773
0.996741
0.994167
0.995795
0.998041
0.996643
0.99644
0.996371
0.995458
0.998878
1
1
0.992858
0.993619
0.996977
0.994311
0.993069
0.997365
0.9988
0.99879
0.996818
0.992603
1
0.997018
0.992987
0.993406
0.996013
0.993931
0.993513
0.994098
0.996738
0.992494
0.996512
0.993305
0.996738
0.991796
0.996125
0.994192
0.993839
0.996427
0.990758
0.996443
0.991468
0.99608
0.990065
0.993774
0.988674
0.996817
0.991289
0.987889
0.988368
0.991904
0.998463
0.995562
0.991674
0.986174
0.98789
0.99993
0.996167
1
0.997021
0.996185
0.993621
0.996633
0.99573
0.996063
0.995898
0.994941
0.99591
0.993651
0.999163
0.996026
0.99798
0.99993
0.997095
0.998838
0.997463
0.998376
0.998862
0.997408
0.997136
0.991625
0.996738
0.993343
0.998798
0.99573
0.996309
0.995734
0.992723
0.997412
0.996943
1
0.997547
0.996478
1
0.997062
0.992918
0.985807
0.990853
0.995613
0.991639
0.998243
0.998141
0.996921
0.996304
0.996283
0.98758
0.98761
0.993954
0.993626
0.990514
0.993234
0.993094
0.998088
0.989258
0.991223
0.995429
0.991722
0.9928
0.994733
0.99332
0.993859
0.994123
0.995993
0.993593
0.996016
0.9961
0.993838
0.992165
0.992164
0.988767
0.981016
0.991791
0.992811
0.994072
0.990551
0.986284
0.993537
0.993453
0.993085
0.993908
0.996655
0.999303
0.997471
1
0.997366
0.996151
0.998142
0.997365
0.998334
0.994698
0.996811
0.994123
0.996438
0.998118
0.995049
0.993941
0.996169
0.999431
0.998838
0.99717
1
0.998262
0.999076
0.996225
0.992471
0.995915
0.993466
0.995914
0.994998
0.994859
0.99192
0.995943
0.995242
0.998143
0.99934
0.998244
0.995548
0.991092
0.999091
0.9964
0.99626
0.992517
0.996338
0.996809
0.998273
0.993766
1
0.997334
0.994423
0.99956
0.996942
0.995555
1
0.99334
0.994768
0.994629
0.993604
0.99505
0.990526
0.988634
0.993668
0.997919
0.991403
0.995852
0.993951
0.989772
0.994757
0.991762
0.991181
0.993556
0.990547
0.995033
0.995942
0.992088
0.996818
0.996438
0.996526
0.995719
0.992022
0.991112
0.995923
0.989114
0.981998
0.996009
1
0.997979
0.996702
0.997408
0.995882
0.993732
0.997756
0.998213
0.993822
0.99435
1
0.997031
0.993264
0.994493
0.995328
0.99596
1
0.999131
0.997379
0.999057
0.996752
0.99976
0.998242
0.998113
0.99646
0.999242
0.994222
0.995132
0.993368
0.996177
0.996944
0.994614
0.996222
0.996633
0.996812
0.998244
0.996246
1
0.997244
0.997822
0.99681
0.998294
0.994431
0.993618
0.996183
0.994347
0.996591
0.996758
0.997405
0.993407
0.996981
0.998276
1
0.995663
0.989886
0.995954
0.991527
0.991902
0.991405
0.996512
0.995844
0.996794
0.996458
0.995242
0.992187
0.998305
0.993522
0.995728
0.995499
0.997061
0.995378
0.992515
0.997201
0.995591
1
0.994463
0.994986
0.993635
0.996553
0.99989
0.996557
0.995429
0.990451
0.99993
1
0.993936
0.99989
0.998491
0.996216
0.991532
0.997833
0.994973
0.994246
0.994813
0.993623
0.997183
0.999419
0.991912
0.991635
1
0.99791
0.995148
0.99857
0.999252
0.998376
0.997723
0.998808
0.998113
0.991908
0.995981
0.997671
0.997326
0.99674
0.99621
0.997065
0.995943
0.997971
0.996285
1
0.993278
0.999768
0.996151
0.998061
0.99649
0.99681
0.994844
0.992101
0.993619
0.998637
0.997328
0.994281
0.99197
0.996786
1
0.994387
0.992259
1
0.993146
0.997279
0.996373
0.995121
0.993364
0.997155
0.997805
0.993932
0.997919
0.997639
0.996248
0.995562
0.994745
0.995826
0.996064
0.998206
0.996156
0.989987
0.99944
0.995872
0.994745
0.999341
0.998761
0.996798
0.994293
0.997483
0.998902
0.994806
0.991788
0.996708
0.997269
1
0.996027
0.998461
0.996596
0.99449
0.997251
0.995511
0.997062
0.997638
0.993071
0.993183
0.999061
0.995858
0.995398
0.995469
0.992757
0.99798
1
0.99857
0.99717
1
0.996795
0.999106
1
0.998314
0.99519
0.992982
0.996214
0.99674
0.995551
0.998941
0.996222
0.994333
0.997562
0.996812
0.998425
0.995936
0.997471
0.999788
0.994917
0.987239
0.997674
0.995491
0.996809
0.998001
0.997715
0.996811
0.997637
0.994385
0.993627
0.999923
0.994769
0.995933
0.994385
0.998047
0.995745
0.993307
1
0.995672
0.996151
0.995548
0.998481
0.998274
0.998017
0.99617
0.989603
0.997329
0.996034
0.998267
0.995421
0.992858
0.998251
0.993494
0.997071
1
0.996632
0.995922
1
0.995314
0.996927
0.997403
0.9957
0.996817
0.99951
0.998606
0.991218
0.994723
0.997253
0.996882
0.996591
0.994582
0.997244
0.99467
0.993033
0.987575
0.994305
0.998452
0.993377
0.996026
0.99596
1
0.996855
0.998302
0.998113
0.998656
0.996435
0.998272
0.998861
0.997302
0.995882
0.999092
0.998197
0.995898
0.997858
0.998154
1
0.993214
0.997717
0.99934
0.998274
0.998258
1
0.997516
0.999123
0.99362
0.997131
0.997367
0.994279
0.997486
0.999961
0.996811
0.999121
0.996243
0.998901
0.997755
0.99368
0.989777
0.99574
1
0.998674
0.996439
0.996064
0.999092
0.997324
0.998846
0.999494
0.996518
0.993625
0.997294
0.996271
0.993422
0.995637
0.995317
0.992539
0.991877
0.991955
0.997901
0.996225
1
0.997754
0.99858
1
0.997289
0.996049
0.996195
0.997056
0.99989
0.991877
0.997909
0.993936
1
0.993305
0.990128
0.990434
0.997214
0.994974
0.993761
0.997097
0.996812
0.995608
0.997368
0.99505
0.995957
0.997911
0.999443
0.997155
0.999672
0.99717
1
0.996255
0.995859
0.995835
0.995111
0.994926
0.99764
0.999129
0.997359
0.997726
0.997065
0.994614
1
0.994698
0.993732
0.997729
0.996787
0.996702
0.998243
0.994705
0.99934
0.995503
0.997639
0.996589
0.994215
0.997754
0.993622
0.995546
0.998877
0.997473
0.994464
0.994527
0.996922
0.996708
0.999303
0.998674
0.997132
0.996738
0.99882
0.998436
0.99746
0.998369
0.997669
0.991216
0.99769
0.991242
0.992153
0.994813
0.995195
0.993952
0.997199
0.99993
0.996642
0.999124
0.996817
0.998877
0.998067
0.996817
0.998877
0.996927
0.996617
0.993686
0.996817
0.993978
0.990522
0.999373
0.996811
0.999729
0.996457
0.996812
0.996634
0.994096
0.995881
0.994387
0.995713
0.994912
0.997445
0.997978
0.993934
0.993245
0.994636
0.997305
0.997587
0.999057
0.996191
0.996046
0.998987
0.997885
0.999045
0.997134
0.996521
0.998227
0.99837
0.996572
0.998245
0.997971
0.998111
0.997755
1
0.998244
0.996478
0.99978
0.997607
0.995613
1
0.997674
0.998396
1
0.995608
0.996709
0.994831
0.995516
0.99849
1
0.997755
0.996523
1
0.996128
0.998047