/*--------------------------------*- C++ -*----------------------------------*\
| =========                 |                                                 |
| \\      /  F ield         | OpenFOAM: The Open Source CFD Toolbox           |
|  \\    /   O peration     | Version:  5.x                                   |
|   \\  /    A nd           | Web:      www.OpenFOAM.org                      |
|    \\/     M anipulation  |                                                 |
\*---------------------------------------------------------------------------*/
FoamFile
{
    version     2.0;
    format      ascii;
    class       volVectorField;
    location    "7.05";
    object      U;
}
// * * * * * * * * * * * * * * * * * * * * * * * * * * * * * * * * * * * * * //

dimensions      [0 1 -1 0 0 0 0];

internalField   nonuniform List<vector> 
10571
(
(0.222546 0.620017 2.3427)
(0.012565 0.0312904 0.655134)
(0.106763 -0.000872432 1.90197)
(0.632975 0.828253 2.23695)
(0.50771 0.455328 1.87338)
(-0.429094 0.534829 1.16841)
(0.271198 0.0302983 1.05466)
(1.47983 0.294198 2.93222)
(0.751822 0.503305 2.65242)
(0.217278 -0.007971 2.15276)
(0.609767 0.344555 1.61212)
(-0.0724376 0.773346 3.21811)
(-0.389527 0.368388 0.948843)
(1.01098 -0.0175443 1.80209)
(0.503311 0.218686 2.62508)
(0.56372 0.00588589 2.16891)
(0.100803 0.0934119 2.30352)
(-0.256359 0.417504 1.90195)
(0.0528407 0.174266 1.12315)
(0.0926727 -0.229863 2.08515)
(0.2935 -0.231353 2.19713)
(0.312461 -0.146186 2.49157)
(-0.612859 0.443997 2.13714)
(-0.127026 -0.0905074 0.864248)
(0.106469 0.149313 0.210508)
(-0.628473 0.662497 0.821239)
(0.285476 0.461738 0.643971)
(0.181112 0.45401 0.70648)
(1.55662 0.402293 1.70335)
(0.538677 1.04713 1.44816)
(-0.290599 0.304564 0.57545)
(0.0751891 0.1679 0.54918)
(0.496464 -0.0221713 0.683037)
(0.986719 0.271688 1.99312)
(0.0542946 0.0971984 0.0460814)
(0.962194 0.20303 2.2209)
(-0.321815 0.42274 1.24016)
(-0.294839 0.7833 1.03343)
(0.377152 0.20203 0.869287)
(0.959597 0.0701513 1.97785)
(0.49348 0.579924 1.14526)
(-0.26618 -0.126459 1.70129)
(-0.689851 0.720555 1.30122)
(-0.01466 0.236755 0.815976)
(0.300368 -0.249657 1.28743)
(-0.168256 -0.340847 1.37237)
(-0.431074 0.168331 0.510479)
(-0.200061 0.0981312 -0.024649)
(0.0434235 0.0267698 0.0221112)
(-0.102706 0.158363 0.176309)
(0.0279802 0.139223 0.169353)
(0.105238 -0.307461 0.722039)
(-0.128197 -0.316412 0.653798)
(0.754023 0.685619 1.47851)
(-0.13322 0.247974 0.556246)
(-0.00796639 0.0372341 0.393935)
(-0.0680603 0.0140888 0.452448)
(0.935198 0.55654 2.87367)
(0.0160158 0.0030168 -0.149447)
(0.358321 0.00942034 1.67831)
(-0.0544044 0.0963092 1.54347)
(-0.0758008 0.034402 0.59309)
(-0.071916 -0.100091 0.385643)
(0.664197 -0.0336451 3.12766)
(0.168438 -0.0172493 0.952915)
(-0.270274 -0.268579 2.15308)
(-0.417091 0.151983 1.28024)
(-0.0792947 -0.0574548 0.145509)
(0.472857 -0.516257 2.24049)
(-0.291983 -0.239308 1.8891)
(-0.372749 0.12736 0.844335)
(-0.0322282 0.0790925 0.138052)
(0.26136 -0.0402557 0.356855)
(0.0195409 0.00301985 -0.0980717)
(0.0203413 -0.060963 0.0720085)
(0.801056 -1.00851 1.05297)
(-0.543839 -0.334969 1.00804)
(0.302836 0.180469 1.36945)
(0.280983 -0.0586669 0.863891)
(0.362003 -0.0324198 0.625924)
(-0.0961776 -0.0284308 0.571285)
(-0.00234207 0.867837 2.83926)
(-0.00487849 -0.0195613 -0.192621)
(0.0134734 -0.181969 1.2233)
(0.576888 -0.463283 2.08047)
(0.39687 -0.467607 1.30735)
(-0.0563499 -0.178457 0.315274)
(0.455797 -0.2472 3.72636)
(0.00227469 -0.317841 0.528554)
(-0.0736175 -0.731995 2.4033)
(0.103999 -0.620571 1.35351)
(-0.00273937 -0.128465 0.0673198)
(0.00013073 -0.699901 1.50048)
(-0.211215 -0.255818 1.78398)
(-0.102154 -0.0435923 0.635284)
(-0.00323222 -0.0108726 0.0100627)
(0.674506 0.180468 0.7004)
(0.0164145 -0.036801 -0.128681)
(0.127104 -0.195568 0.0257375)
(0.225483 -0.32677 0.300219)
(-0.0360211 0.129287 1.92571)
(0.0533691 -0.289684 1.25282)
(0.929027 -0.360716 0.757256)
(0.739141 -0.511809 0.749678)
(0.411695 -0.346954 0.65148)
(-0.240622 -0.24173 3.08226)
(-0.00918918 -0.0177146 -0.145141)
(-0.131947 -0.294433 1.03098)
(0.693111 -0.738546 1.79652)
(1.54501 -1.01354 1.60679)
(0.217027 -0.146815 0.43318)
(0.195392 -0.174689 4.11346)
(-0.0599371 -0.253919 0.20898)
(0.00484241 -0.88178 2.01016)
(0.379779 -0.407691 1.005)
(0.140453 -0.0951852 0.10843)
(0.047249 0.154595 0.314554)
(-0.190976 -0.199658 1.31119)
(0.303242 -0.386339 0.588)
(0.0662065 -0.0359842 -0.0212196)
(0.182327 -0.00693019 0.194042)
(0.0126561 -0.106558 0.0603687)
(0.254828 -0.284547 0.254991)
(0.298973 -0.241923 0.247767)
(-0.11102 0.190973 2.50861)
(-0.211231 -0.87495 1.23239)
(0.732838 -0.481824 1.12958)
(0.558456 -0.466557 0.694354)
(0.772214 -0.199058 1.01968)
(-0.265132 -0.842887 2.88011)
(-0.00204603 -0.00138486 0.000489496)
(-0.00954668 -0.0242168 -0.0641289)
(-0.0400254 -0.0298718 0.804782)
(1.08157 -0.86529 2.17839)
(1.42104 -0.708095 1.67794)
(0.681 -0.0829514 0.705483)
(0.0976692 -0.0470288 3.13987)
(0.04017 0.00604551 0.00741986)
(-0.0750346 -0.198665 0.0996242)
(0.537355 -0.62487 2.02831)
(0.348526 -0.109448 0.442878)
(0.266972 -0.0627037 0.224994)
(0.0352952 1.00921 1.64552)
(-0.106115 0.0886448 0.835435)
(0.321947 -0.557596 0.42341)
(0.133531 -0.0681096 0.0847337)
(0.313456 -0.00967446 0.340568)
(-0.00293012 -0.17954 0.798247)
(0.0987023 -0.152063 0.332686)
(-0.058047 -0.238877 0.379939)
(-0.229602 0.116071 2.92569)
(-0.0928236 -0.414983 1.11013)
(0.155697 -0.280633 0.481821)
(0.427595 -0.321062 0.841445)
(0.479383 -0.0867492 1.44751)
(-0.361748 -0.68791 2.94857)
(-0.202096 -0.106438 -0.0494478)
(-0.0222583 -0.042321 0.0574596)
(-0.297772 0.319749 1.11283)
(0.357757 -0.30949 0.812825)
(0.899352 -0.191992 1.2084)
(0.791956 -0.0797472 1.26621)
(0.169266 -0.112507 3.36443)
(-0.282065 -0.0704401 -0.0559445)
(-0.0904734 -0.0369871 0.230768)
(0.133986 -0.0515904 0.463855)
(0.782131 -0.0276721 0.895921)
(0.768507 0.0130707 0.534772)
(-0.0697833 0.716605 2.20354)
(0.109589 -0.00441645 0.0465758)
(0.0227991 -0.104386 0.563106)
(0.167835 -0.0423598 0.220586)
(0.135583 -0.0189244 0.160077)
(0.45981 0.00241114 0.491558)
(-0.0271588 -0.142052 1.0613)
(-0.153889 -0.17426 0.414703)
(-0.345689 0.0618639 0.7805)
(-0.395854 0.00916463 2.97717)
(-0.0452003 -0.124695 1.11829)
(0.118079 0.205123 1.08693)
(0.0274767 -0.0151767 0.617357)
(0.096479 -0.112213 1.67144)
(-0.560218 -0.540051 2.84207)
(-0.202415 -0.0558432 -0.068499)
(-0.0201172 -0.0507354 0.225564)
(-0.108238 -0.113972 0.519228)
(0.18364 -0.0625925 1.44711)
(0.418033 -0.184066 1.5427)
(0.486853 -0.0659568 1.19666)
(0.00711523 -0.15618 3.04184)
(0.196817 -0.117774 0.03503)
(-0.0705706 0.00714567 0.261395)
(0.0768358 -0.0756572 1.10568)
(0.338444 -0.298597 0.587087)
(0.379942 -0.0345078 0.579987)
(-0.385753 0.649187 2.26457)
(0.4666 0.0602034 0.00199997)
(9.15399e-05 0.00855505 0.331089)
(0.226393 -0.171582 0.152779)
(-0.164065 0.174248 0.315565)
(0.108878 0.0796938 0.178446)
(0.0172349 -0.170624 0.901026)
(0.242431 -0.122856 0.381925)
(-0.433281 0.365341 0.959399)
(-0.471072 -0.0910266 2.92416)
(-0.0304982 -0.0236195 0.491646)
(0.0476038 0.17257 0.431791)
(0.0176606 -0.0179444 0.672227)
(-0.0261507 -0.260118 1.85723)
(-0.643891 -0.536444 2.61588)
(0.0387402 0.0652719 0.0518897)
(-0.0127627 -0.0387701 0.219444)
(-0.0412665 0.142475 0.43478)
(0.200323 0.0758973 1.14879)
(0.342651 -0.188881 1.21123)
(0.441341 -0.00950512 1.21827)
(-0.233273 -0.147399 3.08911)
(0.0641579 -0.12522 0.105387)
(-0.0328354 0.125654 0.114773)
(0.136534 -0.104264 0.682385)
(0.213683 -0.164641 0.458076)
(0.148582 0.0646016 0.74705)
(-0.48215 0.483074 2.31178)
(0.0356713 -0.245216 0.0269955)
(0.00513035 0.0199863 0.105685)
(-0.355005 0.260245 0.556074)
(0.0637265 -0.00351727 -0.131577)
(0.0763681 -0.218012 1.00962)
(0.325367 0.109749 0.431807)
(-0.416878 0.460265 1.16057)
(-0.421491 -0.0885356 2.79876)
(-0.0441153 0.0407313 0.452821)
(-0.0719876 0.155336 0.549485)
(-0.157524 -0.051183 0.929821)
(-0.111431 -0.351661 1.98796)
(-0.612898 -0.579061 2.40841)
(0.0273791 0.29171 0.264413)
(-0.00192494 0.26845 0.400259)
(0.140416 0.161122 1.04665)
(0.335681 -0.174051 1.11486)
(0.479246 0.011867 1.36592)
(-0.373588 -0.163824 2.85104)
(0.134302 0.282929 0.117458)
(0.206528 -0.0315594 0.680071)
(0.209504 -0.0491075 0.524265)
(0.148645 0.117697 0.86274)
(-0.30578 0.437302 2.34849)
(0.0740473 0.111142 0.13983)
(-0.081105 0.0202559 0.210813)
(-0.38673 0.240395 0.72509)
(-0.243925 -0.0417514 -0.151355)
(0.144776 -0.225213 0.891763)
(-0.0309577 0.531985 0.354773)
(-0.542449 0.377155 1.36659)
(-0.410155 -0.0984393 2.6533)
(-0.187593 0.0615069 0.422811)
(-0.391017 0.352281 0.585923)
(-0.416136 0.0835538 1.16009)
(-0.173408 -0.322396 1.95951)
(-0.467556 -0.429975 2.24083)
(0.023855 0.358455 0.265967)
(-0.0339081 0.314458 0.371791)
(0.0990127 0.255782 1.03674)
(0.251085 -0.0872976 1.07343)
(0.434293 0.0422645 1.44678)
(-0.274593 -0.275381 2.74384)
(0.170715 0.271652 0.226208)
(0.238668 0.0631429 0.769924)
(0.151443 0.045661 0.579595)
(0.119082 0.116132 0.949219)
(-0.241968 0.298361 2.11908)
(0.0321011 0.121077 0.277139)
(-0.129518 0.0143543 0.316325)
(-0.36285 0.199178 0.791433)
(-0.602958 -0.100848 -0.0378892)
(-0.0951767 0.167855 0.767824)
(-0.386207 0.448423 0.348591)
(-0.844546 0.307157 1.43518)
(-0.45172 -0.179719 2.41154)
(-0.30351 0.220234 0.534735)
(-0.597304 0.525548 0.630846)
(-0.588996 0.472054 1.11464)
(-0.234205 -0.127685 1.87133)
(-0.460272 -0.359898 1.76077)
(0.0115869 0.366975 0.321917)
(-0.0658751 0.328611 0.429268)
(-0.0350823 0.372779 1.01579)
(-0.0486016 0.234885 1.02114)
(0.25096 0.128504 1.48532)
(-0.313298 -0.187436 2.47632)
(0.133263 0.178519 0.355905)
(0.188245 0.147901 0.831204)
(0.0390045 0.164392 0.689335)
(0.0609944 0.148743 1.04971)
(-0.183444 0.293111 1.986)
(-0.0253324 0.0871762 0.378945)
(-0.159827 0.052984 0.452866)
(-0.30555 0.174413 0.839538)
(-0.582026 -0.114343 0.250096)
(-0.288158 0.335002 0.767617)
(-0.522764 0.304276 0.47016)
(-1.09399 0.212408 1.08361)
(-0.332516 -0.0621533 2.08789)
(-0.257535 0.313617 0.713284)
(-0.629696 0.570728 0.744074)
(-0.653802 0.72722 0.973257)
(-0.274593 0.485713 1.62794)
(-0.173676 0.0362293 1.55878)
(-0.00204982 0.328322 0.483691)
(-0.0736223 0.306621 0.564969)
(-0.200411 0.446823 1.071)
(-0.321042 0.501719 1.05651)
(-0.0803857 0.414523 1.48998)
(-0.421691 -0.213611 1.8377)
(0.0313999 0.117246 0.530925)
(0.0778805 0.206066 0.940047)
(-0.106253 0.270671 0.881707)
(-0.0633616 0.324186 1.19906)
(-0.153646 0.265552 1.8591)
(-0.0781293 0.0721252 0.519435)
(-0.200474 0.0981039 0.632321)
(-0.265996 0.202737 0.953244)
(-0.339795 -0.058064 0.369938)
(-0.128532 0.2171 0.645241)
(-0.433089 0.336348 0.595854)
(-0.770816 0.362892 0.729397)
(-0.226285 0.0618424 1.05607)
(-0.170792 0.245329 0.83854)
(-0.602261 0.489389 0.869533)
(-0.667939 0.665116 0.921966)
(-0.537016 0.62681 1.33013)
(0.0773872 0.435843 1.48402)
(-0.00768946 0.256333 0.682933)
(-0.0466813 0.244742 0.731714)
(-0.27329 0.426954 1.19904)
(-0.398379 0.512812 1.16924)
(-0.332211 0.501356 1.49487)
(-0.252347 0.258786 1.36143)
(-0.0664196 0.0817904 0.728405)
(-0.0278764 0.202028 1.10571)
(-0.233626 0.302115 1.08315)
(-0.178672 0.438168 1.39932)
(-0.172321 0.272977 1.80077)
(-0.112269 0.0531323 0.692086)
(-0.242241 0.118389 0.843888)
(-0.281732 0.204536 1.17528)
(-0.183444 -0.0122635 0.247532)
(-0.105764 0.0659697 0.513523)
(-0.238995 0.246848 0.823042)
(-0.454398 0.362386 0.614895)
(-0.277238 0.010709 0.453565)
(-0.129992 0.136013 0.932051)
(-0.466618 0.267358 0.961081)
(-0.518952 0.407475 0.866479)
(-0.571595 0.519778 1.0938)
(-0.287329 0.233681 1.00857)
(-0.00477891 0.178419 0.875391)
(0.0246717 0.158282 0.862146)
(-0.238228 0.333281 1.35553)
(-0.34936 0.405516 1.28545)
(-0.424975 0.424227 1.52915)
(-0.21433 0.17758 1.09043)
(-0.134276 0.0243379 0.901229)
(-0.0864528 0.131114 1.27634)
(-0.241579 0.240066 1.25791)
(-0.359486 0.375978 1.53419)
(-0.304715 0.269627 1.39764)
(-0.120945 0.0357916 0.865181)
(-0.252275 0.123876 1.06199)
(-0.325105 0.222199 1.3896)
(-0.120197 -0.00325895 0.134928)
(-0.0757648 0.0194984 0.520704)
(0.139517 0.231029 0.799143)
(0.0235406 0.312223 0.528806)
(-0.205898 0.00660404 0.248534)
(-0.0953353 0.0690212 1.00958)
(-0.308588 0.070234 1.02762)
(-0.253616 0.179576 0.823488)
(-0.317769 0.361113 0.909945)
(-0.27793 -0.00570177 0.470109)
(-0.00716909 0.0569818 1.04016)
(0.0715304 0.0513208 0.935766)
(-0.166683 0.23317 1.4603)
(-0.183761 0.261962 1.38402)
(-0.392828 0.334066 1.57089)
(-0.097101 0.0609504 0.786291)
(-0.174279 -0.0271706 1.03019)
(-0.101498 0.0387715 1.38618)
(-0.128745 0.136099 1.38765)
(-0.302822 0.270706 1.60796)
(-0.0508787 0.114646 0.844578)
(-0.11334 0.0193804 0.995397)
(-0.227164 0.0999818 1.25174)
(-0.277511 0.215168 1.62847)
(-0.0994677 -0.0122208 0.0913932)
(-0.0730352 -0.0287169 0.64385)
(-0.00706442 0.103371 0.508348)
(0.273431 0.155256 0.421127)
(-0.128564 -0.0141868 0.206793)
(-0.117304 0.0465848 1.07046)
(-0.189782 0.00988098 1.06551)
(-0.0446548 0.156476 0.827168)
(-0.149348 0.13577 0.847621)
(-0.199771 -0.184161 0.171292)
(-0.0132191 -0.0412065 1.20114)
(0.0511897 -0.0350009 0.996762)
(-0.124636 0.142319 1.48141)
(-0.0304089 0.161759 1.42347)
(-0.239535 0.169068 1.5937)
(0.0545707 -0.072697 0.694227)
(-0.186879 -0.0751863 1.10233)
(-0.09185 -0.0129236 1.41855)
(-0.0443199 0.0714385 1.43938)
(-0.163985 0.123614 1.67799)
(0.128155 -0.169959 0.648934)
(-0.107739 -0.00156567 1.07504)
(-0.197904 0.0768283 1.38265)
(-0.233228 0.124217 1.76786)
(-0.0853581 -0.0250488 0.0852137)
(0.0172117 -0.0744253 0.737858)
(0.136845 0.0633196 0.238232)
(0.212944 0.0116141 0.328011)
(-0.118957 -0.0865096 0.192581)
(-0.158022 0.0972914 1.13301)
(-0.089333 0.0910323 1.09291)
(0.0592899 0.229706 0.8677)
(-0.0842427 -0.0812185 0.863986)
(-0.158239 -0.265913 0.047766)
(-0.0242088 -0.105941 1.34763)
(-0.0185531 -0.0457506 1.0736)
(-0.11898 0.0766198 1.46476)
(0.0363781 0.10851 1.45469)
(-0.0907431 0.0489592 1.57517)
(0.11335 -0.177013 0.694243)
(-0.16219 -0.115148 1.13418)
(-0.0775678 -0.0197848 1.41563)
(-0.0300196 0.0562439 1.4367)
(0.0822994 -0.122127 1.53586)
(0.212614 -0.304734 0.677126)
(-0.0892581 -0.0203037 1.13486)
(-0.160147 0.0254035 1.39587)
(-0.0760356 0.00414168 1.69213)
(-0.0808617 -0.0321247 0.0882615)
(0.0672403 -0.0385175 0.603348)
(0.253337 0.11405 0.117237)
(0.115373 -0.0119167 0.340537)
(-0.127031 -0.162542 0.196451)
(-0.0887629 0.142253 1.15513)
(0.00752592 0.187611 1.14069)
(0.0427582 0.272242 0.918098)
(-0.0787191 -0.242317 0.893404)
(-0.13864 -0.29662 0.020113)
(-0.0396669 -0.174466 1.42133)
(-0.0945064 -0.0494768 1.17274)
(-0.113767 0.033305 1.46387)
(0.0395717 0.0862886 1.48343)
(-0.039917 0.0127042 1.53576)
(0.11091 -0.285235 0.644831)
(-0.0802852 -0.0878857 1.18411)
(-0.0684341 -0.00206795 1.40823)
(-0.0250508 0.0552721 1.39421)
(0.129457 -0.131405 1.36799)
(0.235808 -0.298974 0.784567)
(-0.0701181 -0.0208931 1.17504)
(-0.160418 -0.0142853 1.30919)
(0.0537645 -0.0379656 1.63017)
(-0.0780649 -0.0379079 0.0923358)
(0.140212 -0.111455 0.427654)
(0.281246 0.127612 0.104546)
(0.0614214 -0.0238293 0.413319)
(-0.135998 -0.228374 0.242897)
(0.0961885 -0.0406171 1.15397)
(0.0999617 0.246767 1.18655)
(-0.0333223 0.258965 0.951045)
(-0.0948272 -0.363051 0.894993)
(-0.119685 -0.282423 0.050302)
(-0.0383961 -0.161656 1.47547)
(-0.126407 -0.0795265 1.26133)
(-0.106317 0.0111606 1.48019)
(-0.00316645 0.0830859 1.51347)
(-0.0187322 -0.0509575 1.43711)
(0.0698369 -0.385918 0.545191)
(0.0417953 -0.0447493 1.22126)
(-0.075789 0.0233478 1.41928)
(-0.0254041 0.0353177 1.36745)
(0.101288 -0.0338934 1.30058)
(0.230664 -0.265559 0.885879)
(-0.0619164 -0.00477663 1.1847)
(-0.122925 -0.0564535 1.27492)
(0.0517841 -0.057369 1.49232)
(-0.0686092 -0.0445904 0.108298)
(0.162587 -0.12188 0.322977)
(0.26701 0.110289 0.131447)
(-0.0349079 -0.073408 0.558789)
(-0.147718 -0.263432 0.31332)
(0.217718 -0.182876 1.1029)
(0.157185 0.253542 1.25225)
(-0.143849 0.149351 1.00213)
(-0.103071 -0.462642 0.860652)
(-0.0870811 -0.22906 0.0995018)
(0.00167822 -0.0337308 1.44579)
(-0.123466 -0.114634 1.35582)
(-0.112354 0.0130408 1.50429)
(-0.0882341 0.0197239 1.55109)
(0.0193136 -0.235248 1.2552)
(0.0185929 -0.392178 0.488874)
(0.0922331 -0.040628 1.20232)
(-0.090841 0.0201072 1.44777)
(-0.0420127 -0.0390322 1.35812)
(0.0968963 -0.0180388 1.26643)
(0.239938 -0.315704 0.889103)
(-0.0593972 0.0125746 1.19196)
(0.0217295 -0.0851619 1.25869)
(0.140157 -0.0872059 1.31501)
(-0.0534672 -0.0472311 0.140273)
(0.116817 -0.0756736 0.255733)
(0.215405 0.0665756 0.180837)
(-0.12227 -0.114152 0.717981)
(-0.143293 -0.228451 0.392405)
(0.234007 -0.223994 0.993047)
(0.145869 0.219941 1.3129)
(-0.238583 -0.0540475 1.11833)
(-0.0933977 -0.50626 0.820421)
(-0.0543091 -0.156961 0.152794)
(0.0174762 -0.0282664 1.09658)
(-0.119064 -0.154953 1.44058)
(-0.140982 0.0109849 1.55926)
(-0.157481 -0.146605 1.54955)
(0.015832 -0.402043 1.10174)
(-0.0117544 -0.302086 0.488574)
(0.0776989 -0.0295104 1.15041)
(-0.0785329 -0.018336 1.47487)
(-0.00450587 -0.18018 1.26056)
(0.148945 -0.173975 1.17092)
(0.19573 -0.370842 0.816083)
(-0.00998384 0.0405027 1.22138)
(-0.0143516 -0.0741692 1.12712)
(0.153762 -0.0864394 1.1865)
(-0.0417399 -0.0457597 0.192535)
(0.041372 -0.0165513 0.232285)
(0.125788 -0.00399738 0.253723)
(-0.136843 -0.154628 0.883099)
(-0.0943979 -0.111189 0.494873)
(0.220149 -0.227333 0.918585)
(0.0691537 0.100994 1.37088)
(-0.255358 -0.24477 1.22304)
(-0.0833157 -0.486892 0.797919)
(-0.0296376 -0.0909495 0.203468)
(-0.0274844 -0.019232 0.890224)
(-0.120373 -0.161473 1.50375)
(-0.173904 -0.0639918 1.62833)
(-0.139161 -0.275728 1.51359)
(-0.0187888 -0.447467 0.994602)
(-0.0101428 -0.19271 0.487799)
(0.142536 0.00607746 1.07743)
(-0.00556923 -0.0763279 1.45807)
(0.103348 -0.231746 1.11728)
(0.153129 -0.308749 1.00512)
(0.09608 -0.27709 0.681524)
(0.146426 0.0995482 1.22289)
(0.0987025 -0.0063309 1.02191)
(0.170863 -0.0981568 0.982938)
(-0.0474714 -0.0484716 0.280818)
(-0.0408268 0.0351223 0.279431)
(-0.0275664 -0.0492995 0.311714)
(-0.0826445 -0.264929 1.03013)
(0.0224092 0.0254071 0.585502)
(0.168439 -0.186173 0.866523)
(0.0194383 -0.0938611 1.4417)
(-0.195741 -0.357258 1.28847)
(-0.0648065 -0.382238 0.793178)
(-0.0165311 -0.0361085 0.2479)
(-0.0340508 -0.00962057 0.862437)
(-0.0785772 -0.12855 1.52448)
(-0.125088 -0.205694 1.64699)
(-0.0604292 -0.342011 1.44151)
(-0.0280084 -0.401048 0.920794)
(0.0105965 -0.112417 0.475002)
(0.164752 0.0793163 1.02414)
(0.150271 -0.122492 1.31438)
(0.158948 -0.215572 1.00963)
(0.0906205 -0.26927 0.876036)
(0.0431448 -0.167363 0.56852)
(0.274446 0.119176 1.14585)
(0.305375 0.00151819 1.00138)
(0.237509 -0.129138 0.849387)
(-0.078756 -0.0529957 0.398459)
(-0.0747518 0.0409109 0.386194)
(-0.162547 -0.001547 0.361222)
(-0.00385343 -0.325109 1.12358)
(0.147721 0.0939056 0.64697)
(-0.0220079 -0.0404319 0.873803)
(0.0723121 -0.208332 1.5085)
(-0.11999 -0.396552 1.33383)
(-0.0380776 -0.224976 0.830092)
(-0.0140809 0.0127086 0.29119)
(-0.00966688 0.0302258 0.919579)
(0.0985824 -0.0371034 1.40255)
(0.0619029 -0.286036 1.59459)
(0.0401358 -0.354268 1.37276)
(-0.00807129 -0.3188 0.885313)
(0.036396 -0.0651511 0.470263)
(0.107851 0.195107 0.981768)
(0.229851 -0.11737 1.16304)
(0.124567 -0.180472 0.947121)
(0.0545538 -0.185992 0.802147)
(0.0201939 -0.0875843 0.5133)
(0.305069 0.101863 1.01937)
(0.342994 -0.0259061 0.983959)
(0.263439 -0.141202 0.807573)
(-0.136803 -0.0640244 0.500134)
(-0.0296675 -0.000223214 0.501993)
(-0.190677 0.0779135 0.415589)
(0.125068 -0.306089 1.20836)
(0.195086 0.114416 0.710925)
(-0.065155 0.0881801 0.855151)
(0.105202 -0.208462 1.60527)
(-0.0861953 -0.372684 1.38922)
(-0.000578245 -0.0996388 0.874971)
(-0.0190017 0.0487691 0.341306)
(-0.00405333 0.0668087 0.90867)
(0.163628 0.116178 1.15778)
(0.233776 -0.23062 1.54791)
(0.111873 -0.326709 1.34876)
(0.0248582 -0.218072 0.882124)
(0.0545463 -0.0378995 0.48567)
(0.102349 0.175631 0.911056)
(0.200348 -0.0547712 1.08096)
(0.0558465 -0.113128 0.903454)
(0.0338812 -0.0802999 0.768675)
(0.00998898 -0.0300469 0.509145)
(0.278359 0.0905494 0.914325)
(0.306843 -0.0406211 0.948984)
(0.251192 -0.140897 0.799414)
(-0.180214 -0.0561722 0.564545)
(0.0300062 -0.0400012 0.555097)
(-0.13125 0.0987639 0.494384)
(0.160947 -0.209392 1.26451)
(0.155484 0.0597156 0.758781)
(-0.0693962 0.151734 0.820383)
(0.129335 -0.0951792 1.74704)
(-0.0886813 -0.303306 1.45478)
(0.0649671 -0.0200014 0.918119)
(-0.0177469 0.0665575 0.405281)
(-0.00862409 0.0794663 0.793723)
(0.0991673 0.048941 0.947687)
(0.248099 -0.127309 1.55251)
(0.143074 -0.241636 1.34676)
(0.0663479 -0.0971715 0.887091)
(0.0656438 -0.0148149 0.525108)
(0.0657894 0.0961877 0.810343)
(0.116299 0.0634079 1.0418)
(0.00532367 -0.0146354 0.872881)
(0.0192392 0.0120658 0.768985)
(0.00706141 0.00930522 0.545957)
(0.241018 0.0879936 0.858458)
(0.27052 -0.0342358 0.929381)
(0.217329 -0.128484 0.809962)
(-0.141897 -0.0288464 0.59594)
(0.0846139 -0.116813 0.56812)
(-0.0546957 -0.0191535 0.57103)
(0.023946 -0.052947 1.18904)
(0.0866024 -0.0243831 0.762013)
(-0.173654 0.0670187 0.721644)
(0.178286 -0.0210168 1.76669)
(-0.0281979 -0.218688 1.49895)
(0.146554 0.0173251 0.951394)
(5.01112e-05 0.0659618 0.487886)
(-0.0157144 0.0967803 0.756498)
(-0.124657 0.102783 0.84989)
(0.144708 0.0361867 1.49692)
(0.149078 -0.0404069 1.28878)
(0.105911 0.0194098 0.896133)
(0.0677263 0.00722794 0.588859)
(-0.0344245 0.104133 0.788346)
(0.0228913 0.180016 1.01826)
(-0.00513872 0.0862178 0.876443)
(0.0258519 0.0748132 0.7968)
(0.00736876 0.0319646 0.615224)
(0.190035 0.110022 0.878061)
(0.231715 -0.00857843 0.948084)
(0.18067 -0.106654 0.85352)
(-0.0788211 -0.0148028 0.663918)
(0.132409 -0.184088 0.64599)
(0.0325567 -0.153453 0.663037)
(-0.0491166 -0.0665234 1.03808)
(0.0407424 -0.0774001 0.761767)
(-0.0723049 -0.0665023 0.59032)
(0.191111 -0.0108502 1.67811)
(0.131394 -0.126585 1.47167)
(0.196362 0.0345209 0.972506)
(0.0244573 0.0520684 0.588034)
(-0.0588083 0.0596867 0.895832)
(-0.249681 0.201603 0.845739)
(0.00576657 0.239692 1.26829)
(0.140686 0.140702 1.16814)
(0.124936 0.095103 0.912333)
(0.0633371 0.0263283 0.674286)
(-0.137597 0.164702 0.89033)
(-0.0515511 0.227171 1.01838)
(-0.00105766 0.150248 0.909323)
(0.0363845 0.110867 0.849308)
(0.007994 0.0392358 0.710225)
(0.139711 0.135297 0.991267)
(0.181826 0.0197318 1.01069)
(0.150965 -0.0810206 0.93404)
(-0.0596707 -0.0156199 0.76648)
(0.089388 -0.115726 0.740587)
(0.0146004 -0.206388 0.791349)
(-0.0518431 -0.103084 0.984868)
(0.00550327 -0.0904735 0.801528)
(0.0835562 -0.0479166 0.532942)
(0.0659947 -0.0562623 1.35471)
(0.218091 -0.0687199 1.38498)
(0.193724 0.0383601 0.979493)
(0.0313597 0.0297052 0.695196)
(-0.00738498 0.0528372 1.24906)
(-0.0905587 0.179648 0.82926)
(-0.00121785 0.279826 1.03605)
(0.127239 0.188551 1.04413)
(0.123194 0.121413 0.930719)
(0.0578243 0.0336841 0.770113)
(-0.154916 0.140803 1.05763)
(-0.0800398 0.205607 1.03011)
(-0.00289616 0.160078 0.950954)
(0.0389207 0.116803 0.913908)
(0.00983337 0.0358068 0.818015)
(0.108098 0.1383 1.14426)
(0.128929 0.0277404 1.10407)
(0.12193 -0.0581348 1.03951)
(-0.0599276 -0.0206032 0.903329)
(-0.0565791 0.06259 0.791406)
(-0.0808681 -0.169836 0.909548)
(-0.109734 -0.1472 1.00476)
(-0.0227915 -0.0562636 0.858848)
(0.0837364 0.118191 0.525912)
(-0.0817057 -0.0878577 1.14978)
(0.156438 -0.0441658 1.2808)
(0.128081 0.0391409 0.957318)
(0.0150769 0.00477186 0.787702)
(0.00288593 0.231498 1.27979)
(0.120045 0.178621 0.801896)
(0.0959876 0.195481 0.885408)
(0.130346 0.156205 0.959506)
(0.116879 0.110525 0.950622)
(0.0492333 0.0203408 0.859329)
(-0.0723718 0.0616091 1.19202)
(-0.0606653 0.11085 1.039)
(0.00565209 0.128955 0.979687)
(0.0463648 0.0997622 0.975181)
(0.0141643 0.02229 0.924599)
(0.101262 0.118004 1.28374)
(0.0845853 0.0164856 1.19984)
(0.0940453 -0.0436996 1.14147)
(-0.0138625 -0.00720524 1.09203)
(-0.0786498 0.0897505 0.824607)
(-0.140181 -0.158392 0.996647)
(-0.14427 -0.155929 1.04138)
(-0.00409075 0.0112422 0.88005)
(0.0743702 0.196754 0.539101)
(-0.16738 -0.0613726 1.01565)
(0.0039783 -0.00661729 1.10421)
(0.0423521 0.037749 0.926023)
(-0.00896855 -0.0123405 0.844152)
(-0.0168853 0.2546 1.1889)
(0.0651693 0.108187 0.780897)
(0.154718 0.115143 0.816534)
(0.138998 0.1135 0.9361)
(0.0993843 0.0465419 1.003)
(0.0363729 -0.0094627 0.93051)
(0.0351378 0.083002 1.32628)
(0.0454473 0.0185005 1.03542)
(0.0593875 0.0710293 1.0036)
(0.0662937 0.0625326 1.02538)
(0.0267874 -0.0112217 1.01603)
(0.116321 0.0907088 1.35595)
(0.0674041 0.0013759 1.27568)
(0.0758303 -0.0336152 1.22222)
(0.0341323 0.00332435 1.15531)
(-0.0468225 0.0732405 0.838793)
(-0.150996 -0.116575 1.04174)
(-0.0336076 -0.0643131 1.0297)
(0.0745389 0.0862706 0.868823)
(0.0416192 0.193105 0.590413)
(-0.182763 0.00772429 0.927143)
(-0.0588967 0.039249 1.00493)
(-0.0042225 0.0326524 0.921171)
(-0.0199216 -0.0209932 0.872762)
(-0.00523829 0.00688659 1.02787)
(0.101823 0.0558168 0.706268)
(0.155681 0.0884619 0.810285)
(0.129564 0.0936782 0.952781)
(0.0700634 -0.0224899 1.06441)
(0.0266268 -0.0354775 0.984725)
(0.123497 0.102111 1.3444)
(0.162911 -0.00939608 1.03515)
(0.152455 0.017057 1.03528)
(0.120814 0.0192617 1.06435)
(0.0503249 -0.0571716 1.09275)
(0.110286 0.0794037 1.41401)
(0.0772709 -0.00911954 1.31454)
(0.0725804 -0.0294505 1.28267)
(0.117379 0.0153007 1.06537)
(-0.0608287 0.108639 0.730087)
(-0.0920728 0.0700882 1.05052)
(0.105492 0.131646 0.902894)
(0.118635 0.126143 0.897482)
(0.00182661 0.182102 0.669809)
(-0.17272 0.0804771 0.928961)
(-0.0721286 0.0677225 0.972465)
(-0.0354402 0.0229663 0.935816)
(-0.0175364 -0.0262768 0.898635)
(-0.0140024 -0.110884 0.96067)
(0.170379 0.047924 0.680689)
(0.117339 0.0913262 0.845156)
(0.0800369 0.0695389 1.01194)
(0.0313918 -0.0658827 1.11705)
(0.0154589 -0.0475553 1.02466)
(0.136166 0.0883946 1.22542)
(0.249441 -0.0265284 1.04545)
(0.239655 -0.02553 1.07698)
(0.179776 -0.0109698 1.11199)
(0.0677574 -0.0963333 1.16374)
(0.07572 0.00764532 1.44261)
(0.0953114 -0.0228956 1.31717)
(0.0781512 -0.0268464 1.33361)
(0.0554897 0.014336 0.910557)
(-0.0428722 0.0930513 0.581055)
(-0.0319605 0.186844 1.00025)
(0.0147276 0.0943722 0.800945)
(0.0567947 0.0853999 0.960015)
(-0.046837 0.174559 0.745885)
(-0.173524 0.101438 0.980474)
(-0.0927043 0.0702751 0.960719)
(-0.0584682 0.0124099 0.949516)
(-0.00942219 -0.0205477 0.925029)
(0.00682466 -0.0905304 0.905764)
(0.164041 0.0548049 0.713922)
(0.0028746 0.100728 0.944594)
(0.0232699 0.038134 1.07074)
(-0.00928543 -0.0863811 1.15215)
(0.00227072 -0.0459084 1.04994)
(0.105706 0.00529449 1.0498)
(0.286289 -0.0379025 1.05003)
(0.28261 -0.0597832 1.12491)
(0.202208 -0.0249088 1.17501)
(0.0628071 -0.121491 1.21968)
(0.14554 -0.00683594 1.37188)
(0.168433 -0.0455734 1.30367)
(0.106917 -0.0364077 1.40118)
(-0.0261224 0.00776663 0.743889)
(-0.0294031 0.0480958 0.495096)
(-0.0607889 0.140165 0.962464)
(-0.0415956 0.0364435 0.746711)
(-0.00953292 0.015325 0.969197)
(-0.0866029 0.130793 0.791604)
(-0.165576 0.0778579 1.0097)
(-0.112678 0.0523774 0.934505)
(-0.0711559 0.00697498 0.949478)
(-0.00692764 0.00157144 0.947647)
(0.0228296 0.0468031 0.648296)
(0.0493254 0.107881 0.838015)
(-0.0711578 0.104649 1.02472)
(-0.0175074 0.0181499 1.10657)
(-0.037112 -0.0897961 1.17566)
(-0.0107166 -0.0428107 1.05409)
(0.134989 -0.00424578 0.886349)
(0.284267 -0.0371712 1.0442)
(0.26141 -0.0813726 1.18418)
(0.148053 -0.0406503 1.25324)
(0.0405992 -0.131657 1.22103)
(0.283571 0.0503485 1.22099)
(0.283469 -0.0597963 1.32603)
(0.152836 -0.0618467 1.48419)
(-0.0215758 -0.00424552 0.666571)
(-0.0416002 0.0229756 0.484119)
(-0.0797839 0.140034 0.906648)
(-0.0465997 0.0131328 0.720531)
(-0.0336959 -0.0220693 0.930246)
(-0.133883 0.0641493 0.778078)
(-0.138252 0.0582774 1.00399)
(-0.10015 0.0400913 0.913354)
(-0.072307 0.00674424 0.944397)
(-0.0185498 0.0174761 0.95782)
(0.00555057 0.141076 0.619374)
(-0.0329808 0.188044 0.908831)
(-0.0683425 0.12218 1.08267)
(-0.0365079 0.0295947 1.12787)
(-0.0433452 -0.0768459 1.20596)
(-0.0366143 -0.0336699 1.02191)
(0.104913 0.068243 0.804225)
(0.236423 -0.0153967 1.03436)
(0.176978 -0.0857185 1.26459)
(0.00331211 -0.0745639 1.34678)
(0.0332562 -0.0884252 1.17135)
(0.273582 0.0951588 1.10048)
(0.319384 -0.0612898 1.37183)
(0.189232 -0.0874124 1.55776)
(-0.0093373 -0.0118219 0.659662)
(-0.0735578 0.0393032 0.527623)
(-0.0312553 0.0266938 0.841812)
(-0.0231547 -0.0067828 0.737776)
(-0.0185032 -0.0321402 0.885488)
(-0.159106 0.0833786 0.728207)
(-0.0975652 0.0721362 0.948475)
(-0.0530255 0.0460156 0.884643)
(-0.0622174 0.0117024 0.93994)
(-0.0294635 0.0152704 0.951661)
(0.00101717 0.152346 0.707256)
(-0.135589 0.260264 0.877339)
(-0.0270444 0.17414 1.10276)
(-0.0483092 0.0804233 1.15852)
(-0.0293511 -0.0422372 1.24168)
(-0.0501738 -0.0119927 0.962073)
(0.0482813 0.150771 0.809966)
(0.146502 0.0647984 1.04653)
(0.0860276 -0.076642 1.35107)
(-0.103231 -0.0989441 1.43003)
(0.0196508 -0.0113283 1.15862)
(0.260175 0.129884 1.04846)
(0.309715 -0.047878 1.39975)
(0.188278 -0.0896813 1.61801)
(-0.0077498 -0.018309 0.699211)
(-0.101291 0.105138 0.534015)
(0.00225447 -0.0884325 0.7407)
(-0.0111261 -0.0503253 0.758646)
(-0.0124882 -0.0329364 0.865804)
(-0.151384 0.158402 0.721742)
(-0.0804325 0.1408 0.794079)
(-0.0390592 0.0602914 0.848413)
(-0.0310077 0.0247058 0.932373)
(-0.0357546 0.00378449 0.923683)
(-0.00228419 0.0993624 0.854102)
(-0.180495 0.262569 0.831013)
(-0.0335831 0.252094 1.0883)
(-0.0715445 0.125063 1.19779)
(-0.00978184 0.00321755 1.2621)
(-0.0391484 0.00523582 0.915108)
(0.0231764 0.189872 0.881572)
(0.0918557 0.14422 1.09044)
(0.0210354 -0.0675172 1.44618)
(-0.130831 -0.106022 1.50227)
(-0.018153 0.0436982 1.15242)
(0.252056 0.1412 1.06986)
(0.291279 -0.0267295 1.42849)
(0.165474 -0.0718734 1.68983)
(-0.0251335 -0.0198802 0.737769)
(-0.114543 0.143241 0.484271)
(-0.0303555 0.0439775 0.635431)
(-0.0609689 -0.0656263 0.719029)
(-0.0245731 -0.0233627 0.859198)
(-0.108759 0.181472 0.762766)
(-0.0983238 0.191749 0.679849)
(-0.0746557 0.0751282 0.782827)
(-0.00833671 0.0422375 0.911147)
(-0.0322682 -0.00131499 0.896912)
(-0.00806885 0.0720989 0.974844)
(-0.164723 0.224934 0.830155)
(-0.108575 0.307423 1.06303)