/*--------------------------------*- C++ -*----------------------------------*\
| =========                 |                                                 |
| \\      /  F ield         | OpenFOAM: The Open Source CFD Toolbox           |
|  \\    /   O peration     | Version:  5.x                                   |
|   \\  /    A nd           | Web:      www.OpenFOAM.org                      |
|    \\/     M anipulation  |                                                 |
\*---------------------------------------------------------------------------*/
FoamFile
{
    version     2.0;
    format      ascii;
    class       volVectorField;
    location    "4.8";
    object      U;
}
// * * * * * * * * * * * * * * * * * * * * * * * * * * * * * * * * * * * * * //

dimensions      [0 1 -1 0 0 0 0];

internalField   nonuniform List<vector> 
10571
(
(0.0693301 0.446514 2.08804)
(0.194077 -0.21887 1.08755)
(0.0108706 -0.00821457 1.4164)
(-0.321277 0.140751 3.43151)
(0.0368975 -0.0465749 0.913707)
(0.982973 -0.878015 2.18791)
(1.08215 0.0588534 2.95854)
(-0.34219 0.436231 3.21621)
(-0.243806 0.73058 2.28144)
(-0.267338 -0.0578832 0.975136)
(0.100807 -0.477367 3.46768)
(1.3486 -0.893373 2.58362)
(2.00896 -1.21356 4.39076)
(0.155221 -0.580839 3.23092)
(-0.718422 -0.139086 3.28379)
(-0.519701 -0.135518 2.02634)
(0.235915 -0.37714 0.829087)
(2.06159 -2.06437 3.96027)
(0.995167 -1.88838 4.97089)
(-0.428632 -0.758891 3.31533)
(-0.161169 0.0652725 0.673208)
(-0.0716544 -0.564619 1.13609)
(0.486248 -0.638656 1.1537)
(0.361689 -0.350674 1.78627)
(0.0184174 0.124794 1.77211)
(0.226765 -0.224882 1.87142)
(-0.302902 -0.0630196 2.3587)
(0.113267 -0.278618 0.878074)
(0.182487 -0.337478 1.70603)
(0.683532 -0.984276 2.96028)
(-0.803477 -0.78198 3.74822)
(-0.038514 -0.428628 2.79296)
(0.438469 -0.689256 2.24213)
(-0.0360948 -0.785795 1.60755)
(0.24141 -0.839443 1.17605)
(0.301154 -0.105147 0.753842)
(0.0757766 -0.786732 3.54817)
(0.0947166 -0.377134 3.279)
(0.163121 -0.48961 2.83979)
(-0.0272612 -0.281939 0.54836)
(0.154254 -0.0744333 0.206324)
(0.637017 -0.674909 2.93896)
(0.407435 -0.181385 2.93982)
(-0.161928 -0.830189 3.77639)
(0.0812209 -0.173315 0.0625468)
(0.161362 -0.0961285 0.478229)
(0.0813478 0.109141 1.02483)
(0.0281641 -0.0559928 -0.176586)
(0.467524 0.178709 1.37191)
(-0.114303 0.0593314 2.12009)
(-0.0135824 -0.514878 2.92572)
(-0.00373809 -0.528663 1.44635)
(-0.018713 0.201306 2.39795)
(0.116882 -0.262909 2.65705)
(-0.584138 -0.892426 3.6886)
(0.0893541 -0.575073 1.89943)
(0.204128 -1.00964 2.72772)
(-0.0334208 -0.787954 1.9568)
(0.00517815 -0.162477 0.19769)
(0.0945015 -0.373109 0.942998)
(-0.592101 -1.24 2.82645)
(-0.0914117 -0.810784 3.38769)
(0.452192 -1.09909 2.85556)
(0.140515 -0.490575 0.65476)
(0.0360938 -0.0690681 -0.0513749)
(-0.256605 -0.530518 1.828)
(0.518891 -0.37332 2.38916)
(0.503471 -0.6966 3.79645)
(0.24899 -0.328714 0.355634)
(0.00624431 0.061005 0.147118)
(0.0383584 -0.209962 0.582559)
(0.113003 -0.0466583 -0.326348)
(0.461625 0.049887 0.975995)
(0.00358365 -0.00869204 2.23616)
(0.00674693 -0.341364 4.00578)
(-0.144088 0.305256 1.90694)
(0.207147 0.391453 2.80576)
(-0.333043 -0.436972 3.46607)
(-0.454273 -1.382 3.4426)
(0.337216 -1.32181 3.15243)
(0.758077 -0.917599 3.25222)
(0.118055 -0.486807 2.26775)
(-0.0289716 -0.109084 -0.0802923)
(-0.534907 -0.737135 1.38968)
(-1.00993 -1.87589 3.37337)
(0.212549 -1.56502 3.38378)
(0.660739 -0.858715 2.10656)
(0.457447 -0.634552 0.986137)
(-0.0107326 -0.029857 -0.120583)
(-0.27919 -0.0490972 0.710351)
(0.667841 -0.14905 2.07952)
(0.844822 -0.554685 2.87954)
(0.0107796 -0.241226 0.425811)
(-0.0150481 0.0458644 -0.0581393)
(0.202912 -0.154427 0.363074)
(0.162953 -0.0272722 -0.0925935)
(0.275616 0.0419321 1.00534)
(0.149843 -0.0344863 2.18765)
(-0.406431 -0.471167 4.85456)
(0.110398 0.390265 3.41611)
(0.553174 0.129247 2.72729)
(-0.508114 -0.639741 4.18407)
(-0.101712 -1.48316 4.09293)
(0.504886 -0.694908 1.97232)
(0.750866 -0.751049 2.65817)
(0.592402 0.123414 3.68309)
(-0.0382757 -0.113878 0.117007)
(-0.615664 -0.955198 2.02108)
(-0.250215 -0.38375 1.29326)
(0.223221 -0.495905 1.35184)
(1.02098 -0.959284 2.32615)
(0.626546 -0.742114 1.53282)
(-0.0275793 0.0215972 -0.0759305)
(-0.0264738 0.0521628 0.0850517)
(0.221242 0.0852424 1.17811)
(1.12714 -0.713087 3.11207)
(0.0742996 -0.2647 0.21906)
(-0.00274054 0.0332379 -0.0112353)
(0.0520979 0.00301069 0.215543)
(0.135012 0.0206536 0.234262)
(0.186316 -0.011619 0.59752)
(0.242136 0.037452 1.96701)
(0.599626 -0.311135 5.60704)
(0.386534 -0.406793 3.48114)
(0.39328 0.199365 3.55882)
(-0.346314 -0.585293 4.90439)
(0.334733 -0.485558 2.08643)
(0.81026 -0.432157 2.37851)
(0.611382 -0.81203 3.55122)
(0.772849 0.1499 3.813)
(-0.0172811 0.00750335 0.000218368)
(0.0157052 -0.015576 0.0414813)
(-0.537037 -0.166515 2.33254)
(0.285862 0.213089 0.968508)
(0.08249 -0.0852649 1.10067)
(0.308316 -0.439559 1.26571)
(0.693486 -0.550924 2.28666)
(0.0156086 -0.00420111 0.00538009)
(0.0191684 0.0421238 -0.0394189)
(0.0749232 -0.0135475 0.137186)
(0.0237033 0.0460897 0.36577)
(0.123697 0.105243 1.69029)
(0.22915 -0.223404 0.486485)
(0.0372383 -0.0296313 0.00240444)
(0.132122 -0.015958 0.0505449)
(-0.0757799 0.586365 1.48352)
(0.366374 -0.0189911 0.846247)
(0.00293185 -0.0342543 1.07683)
(1.81531 -0.666296 5.90137)
(0.946611 -0.143077 3.47215)
(0.34375 0.091315 3.22562)
(-0.14052 -0.382043 5.48259)
(0.883218 0.182909 2.26332)
(0.685622 0.264059 2.56953)
(0.374993 -0.32532 3.61614)
(0.951347 0.0907565 4.28247)
(-0.732586 -0.303342 0.0829203)
(-0.0514183 0.127074 0.0951123)
(-0.00480428 0.680632 2.21677)
(0.544052 0.0993398 1.74295)
(0.140322 0.0472898 1.85333)
(-0.281329 -0.301376 1.74748)
(0.738222 -0.564321 2.5948)
(-0.117557 -0.594789 0.112456)
(0.0293031 0.0812256 -0.00103165)
(0.405797 -0.392659 0.555969)
(-0.112946 -0.314203 1.63404)
(-0.321993 -0.150498 1.34247)
(0.00497985 -0.0475428 0.178987)
(-1.09347 -0.403068 -0.398058)
(0.0463566 0.00151811 -0.0150741)
(0.0892929 -0.199522 0.248745)
(-0.348547 0.148064 2.28077)
(0.236966 -0.043526 1.49144)
(0.169589 -0.5008 1.17022)
(0.960219 -0.378123 3.99172)
(1.20926 -0.143868 3.89926)
(0.354274 0.105455 3.4512)
(-0.0815021 -0.0471262 4.25733)
(0.576288 -0.0530972 2.12809)
(0.552807 0.233026 2.2146)
(0.331698 -0.214949 3.31277)
(0.697198 0.28696 4.23136)
(-0.208923 -0.109045 0.451205)
(-0.0829644 0.315369 1.03105)
(0.0715223 0.634876 1.64954)
(0.396462 -0.0837936 1.17374)
(0.0716338 0.0972687 1.37486)
(-0.153401 -0.0911667 1.0612)
(0.189257 -0.357305 2.52539)
(-0.547163 -0.312363 0.352976)
(-0.0251389 0.0393491 -0.102578)
(-0.24546 0.130848 -0.0269428)
(-0.114703 0.0518868 0.917636)
(-0.469772 -0.273292 0.221606)
(-0.8809 0.119377 0.48511)
(-1.01476 0.307685 -1.00616)
(-0.0723913 0.110202 -0.283707)
(-0.216937 0.289743 -0.0290318)
(-0.398925 0.138885 2.1369)
(0.0779756 -0.00202626 2.01429)
(-0.126957 0.0945094 1.01568)
(0.811066 -0.147553 2.99783)
(1.1624 -0.127372 4.02733)
(0.353933 0.138036 3.56843)
(0.0427196 -0.0966255 3.75055)
(0.480866 -0.0675637 1.67836)
(0.410537 0.269483 2.18615)
(0.393819 -0.0931521 3.29229)
(0.474065 0.465298 4.67639)
(1.19254 0.936919 1.07398)
(0.0223788 0.0186994 0.888881)
(0.040074 0.179893 1.35602)
(0.239279 -0.0455821 1.08682)
(0.0604576 0.161732 1.55135)
(0.00286231 0.0247328 1.19236)
(0.125349 -0.132393 2.74174)
(-0.263158 0.938491 -0.679298)
(0.0688658 0.0639324 0.00863408)
(-0.228933 0.206269 0.366776)
(-0.153521 0.125789 1.0602)
(-0.309267 -0.146025 0.47635)
(-0.545275 0.222898 0.538891)
(-0.143264 0.0606175 0.064345)
(-0.387126 0.230622 0.240643)
(-0.398869 0.082022 1.82519)
(-0.0211517 0.0204033 2.27099)
(-0.0688894 -0.0176115 1.04463)
(0.553342 -0.0591017 2.47533)
(1.09952 -0.0972934 4.01975)
(0.349002 0.149946 3.65451)
(0.0301743 -0.0807238 3.18295)
(0.401387 0.0321931 1.60535)
(0.352982 0.335208 2.28875)
(0.450406 0.0145468 3.47764)
(0.0710626 0.646209 5.16035)
(0.0575102 0.115444 0.683467)
(0.051936 0.161749 1.36921)
(0.133646 -0.0834566 1.05315)
(0.0573605 0.242913 1.77393)
(-0.0408004 0.199084 1.49605)
(-0.34998 0.424482 2.52146)
(0.107228 0.0976366 0.0315497)
(-0.215144 0.190065 0.372753)
(-0.137724 0.156119 1.09949)
(-0.169538 -0.197395 0.638816)
(-0.41046 0.125451 0.668052)
(-0.165558 -0.129719 0.222135)
(-0.258579 0.182212 0.409328)
(-0.113539 -0.0189607 0.779563)
(-0.0603201 0.00642126 2.4701)
(-0.0894081 -0.0731369 1.28352)
(0.360054 -0.0261276 1.82758)
(1.00496 -0.0751327 3.97211)
(0.381659 0.170773 3.73705)
(0.0737323 -0.0448896 3.03713)
(0.351548 0.120442 1.52671)
(0.31295 0.44849 2.32323)
(0.520509 0.108725 3.6178)
(0.19 0.722568 5.35615)
(0.0430016 0.156532 0.330706)
(0.143127 0.0498525 1.26706)
(0.0352671 -0.0951555 1.01542)
(0.0776262 0.275628 1.84157)
(0.0210158 0.246853 1.73616)
(0.0343801 0.446972 2.82461)
(0.116298 0.0887317 0.170054)
(-0.211942 0.144575 0.462245)
(-0.0849118 0.187877 1.06712)
(-0.129969 -0.162865 0.749243)
(-0.223484 -0.139877 0.766655)
(-0.177767 -0.165851 0.319578)
(-0.138897 0.139396 0.435365)
(0.133882 0.00581563 0.451819)
(-0.0205886 0.00745272 2.68108)
(-0.0446426 -0.107989 1.52869)
(0.25827 -0.152683 1.45795)
(0.960213 -0.044058 3.87179)
(0.418119 0.177112 3.79217)
(0.167532 -0.0244189 2.70091)
(0.411711 0.250528 1.41133)
(0.316012 0.54208 2.23022)
(0.542837 0.208971 3.66798)
(0.243787 0.797997 5.50106)
(0.0147112 0.217983 0.153039)
(0.214721 0.0445124 1.04103)
(-0.0370817 -0.0303301 1.03035)
(0.103054 0.273306 1.86514)
(0.0563322 0.283677 1.92721)
(0.05768 0.533524 2.93909)
(0.0931223 0.0594806 0.291801)
(-0.194162 0.0794096 0.578117)
(-0.0308614 0.204382 1.07109)
(-0.0954719 -0.0374675 0.86749)
(-0.193611 -0.036295 0.968876)
(-0.160502 -0.193895 0.280938)
(-0.0956518 0.111418 0.498212)
(0.14534 -0.0361626 0.351669)
(0.0257922 0.0048052 2.88684)
(0.0544449 -0.188335 1.62177)
(0.192665 -0.185462 1.26152)
(0.941364 -0.0790555 3.70402)
(0.468732 0.160503 3.83255)
(0.210945 0.0529782 2.42821)
(0.479033 0.296125 1.31876)
(0.318436 0.593289 2.13394)
(0.53781 0.308154 3.68542)
(0.263057 0.825947 5.633)
(0.00757037 0.228068 0.223319)
(0.186755 0.152426 0.816627)
(-0.0674342 0.0392574 1.08763)
(0.109717 0.237386 1.88172)
(0.0985342 0.31746 2.10312)
(0.0431778 0.650497 3.15386)
(0.0409634 0.0195371 0.41714)
(-0.193196 0.0251169 0.649266)
(-0.0275919 0.197194 1.09433)
(-0.061893 0.0974827 1.02622)
(-0.236933 0.163365 1.23966)
(-0.170134 -0.0947366 0.218552)
(-0.136245 0.106466 0.548651)
(0.109763 -0.0196928 0.274829)
(0.0479225 0.000198172 3.07357)
(0.092422 -0.178585 1.61147)
(0.255032 -0.070275 1.11644)
(0.867114 -0.126316 3.48436)
(0.498228 0.128244 3.88141)
(0.257822 0.0842613 2.02913)
(0.497221 0.270597 1.29123)
(0.320458 0.600638 2.05613)
(0.518753 0.370369 3.69767)
(0.279566 0.830606 5.75277)
(0.000428132 0.00698107 0.283224)
(0.0943774 0.0498314 0.77353)
(-0.0840593 0.0833921 1.14137)
(0.103261 0.210462 1.9197)
(0.127934 0.33247 2.26439)
(0.0378002 0.729854 3.40894)
(-0.0229254 -0.0371555 0.499688)
(-0.193241 -0.0397685 0.692893)
(-0.0594371 0.158492 1.14454)
(-0.0660904 0.178144 1.21133)
(-0.280189 0.31578 1.52094)
(-0.170038 -0.0535341 0.22746)
(-0.159651 0.0730707 0.567476)
(-0.00423785 0.0409804 0.302216)
(0.0619443 -0.00740922 3.24799)
(0.183084 -0.215555 1.42581)
(0.417669 0.0170461 1.05902)
(0.739684 -0.114296 3.17368)
(0.499013 0.105663 3.92085)
(0.243962 0.217993 1.54941)
(0.520327 0.224539 1.30284)
(0.330216 0.556037 1.97826)
(0.507622 0.397246 3.69827)
(0.29469 0.816916 5.85487)
(0.00267059 -0.135759 0.249346)
(0.0135374 0.0232165 0.812585)
(-0.130968 0.0716367 1.1863)
(0.0930625 0.196212 1.96586)
(0.141268 0.334128 2.42567)
(0.0303121 0.771363 3.64164)
(-0.0106494 -0.0638489 0.510022)
(-0.183218 -0.100785 0.751338)
(-0.118683 0.105772 1.19594)
(-0.0939652 0.225822 1.40785)
(-0.317456 0.430248 1.80205)
(-0.136193 -0.046855 0.268379)
(-0.146206 0.0534637 0.55901)
(-0.109423 0.0808061 0.38847)
(0.100529 -0.0102223 3.39059)
(0.192957 -0.145496 0.978993)
(0.519844 0.0419582 1.04697)
(0.644919 -0.0877576 2.79096)
(0.490279 0.0885896 3.94517)
(0.105885 0.156227 1.03347)
(0.503137 0.101544 1.31815)
(0.323696 0.482625 1.97476)
(0.486679 0.42384 3.72237)
(0.303929 0.788494 5.93824)
(-0.0132865 -0.157201 0.18666)
(-0.0439729 -0.0849583 0.926309)
(-0.17631 -0.0158353 1.24326)
(0.0582073 0.140945 1.99573)
(0.152662 0.314869 2.57745)
(0.0190971 0.784819 3.85775)
(-0.0171172 -0.136894 0.416144)
(-0.16985 -0.141082 0.828908)
(-0.192048 0.0480225 1.22336)
(-0.126242 0.243024 1.5851)
(-0.333858 0.519146 2.07575)
(-0.0967324 -0.0559948 0.304323)
(-0.135688 0.0327618 0.533001)
(-0.175378 0.102287 0.491545)
(0.175432 -0.00326739 3.56671)
(0.16847 -0.0938532 0.603539)
(0.552628 0.0245362 0.961335)
(0.625421 -0.00403667 2.48348)
(0.478703 0.060701 3.95556)
(0.0854829 -0.1023 0.806541)
(0.363745 -0.138009 1.34582)
(0.249738 0.347698 1.99557)
(0.437993 0.436861 3.76917)
(0.301593 0.753962 6.01216)
(-0.0235464 -0.15991 0.144091)
(-0.0549399 -0.190397 0.972483)
(-0.185362 -0.132779 1.27689)
(-0.0234412 -0.00177721 2.00314)
(0.146396 0.260004 2.71429)
(0.0111038 0.763474 4.05428)
(-0.0257199 -0.139256 0.344553)
(-0.165389 -0.153912 0.895712)
(-0.2514 -0.00325146 1.24549)
(-0.183863 0.227623 1.7544)
(-0.325798 0.585216 2.32169)
(-0.0629128 -0.06731 0.300999)
(-0.136446 0.0129757 0.494044)
(-0.223066 0.121657 0.576852)
(0.255216 0.00260383 3.74073)
(0.160543 -0.0969817 0.392217)
(0.482808 -0.0803921 0.901095)
(0.624551 0.0298871 2.35504)
(0.472109 0.0265957 3.97045)
(0.10106 -0.232782 0.756254)
(0.240901 -0.2988 1.33225)
(0.143868 0.140998 1.9713)
(0.397113 0.397229 3.81447)
(0.29125 0.715786 6.0795)
(-0.020448 -0.138485 0.123136)
(-0.0612576 -0.211834 0.968942)
(-0.183431 -0.226278 1.24795)
(-0.110289 -0.166784 1.98318)
(0.105704 0.174225 2.83009)
(0.00125841 0.724373 4.23577)
(-0.00403094 -0.0992255 0.301279)
(-0.174394 -0.136556 0.932655)
(-0.283915 -0.0453978 1.23929)
(-0.278373 0.18861 1.90292)
(-0.316979 0.585526 2.47804)
(-0.0551122 -0.0490032 0.274114)
(-0.142648 0.00789525 0.471388)
(-0.247306 0.129697 0.625461)
(0.303027 -0.00344948 3.91728)
(0.160544 -0.118794 0.306777)
(0.367027 -0.232216 0.927084)
(0.553057 0.026541 2.36552)
(0.465279 0.00459258 3.99807)
(0.0836732 -0.292849 0.73923)
(0.168757 -0.361787 1.29211)
(0.0617581 -0.0479695 1.93087)
(0.362734 0.322336 3.86744)
(0.277547 0.668211 6.14018)
(-0.0179516 -0.107153 0.129968)
(-0.0773798 -0.185455 0.939655)
(-0.168517 -0.280807 1.1786)
(-0.177301 -0.299953 1.93241)
(0.0422694 0.0824941 2.9214)
(-0.00746566 0.673838 4.3923)
(-0.00130706 -0.0468998 0.269143)
(-0.177132 -0.109505 0.933361)
(-0.288344 -0.0706716 1.19218)
(-0.375817 0.13687 1.97118)
(-0.32611 0.543496 2.49224)
(-0.0509681 -0.0225288 0.267675)
(-0.134915 0.00978227 0.441828)
(-0.251825 0.115746 0.635677)
(0.270318 -0.0180129 4.06602)
(0.158607 -0.120848 0.30149)
(0.230057 -0.312923 0.989442)
(0.358016 0.0579642 2.42831)
(0.431242 -0.00220986 4.01659)
(0.0473146 -0.287708 0.727989)
(0.139513 -0.359849 1.27368)
(0.0226571 -0.173116 1.90958)
(0.319268 0.248418 3.90926)
(0.261383 0.610914 6.1979)
(-0.0181516 -0.0740425 0.166138)
(-0.0941926 -0.161849 0.859243)
(-0.129505 -0.31016 1.11297)
(-0.24121 -0.386368 1.87242)
(-0.0428078 0.0149665 2.99266)
(-0.00947279 0.609058 4.51531)
(0.00188513 -0.00887918 0.252593)
(-0.152127 -0.0831979 0.90952)
(-0.257215 -0.0965763 1.09568)
(-0.400719 0.108831 1.96643)
(-0.313597 0.337988 2.29038)
(-0.0478012 -0.00830719 0.276641)
(-0.0986203 0.0133039 0.418994)
(-0.234392 0.0970451 0.604898)
(0.244077 -0.0110465 4.10714)
(0.154926 -0.106918 0.334618)
(0.130899 -0.290852 1.05721)
(0.293677 0.0905823 2.40804)
(0.38909 0.00196212 4.01148)
(0.0198524 -0.245365 0.721712)
(0.138382 -0.338958 1.28122)
(0.0132934 -0.231082 1.94218)
(0.280875 0.169143 3.93165)
(0.240585 0.551928 6.24604)
(-0.0154483 -0.0482957 0.213286)
(-0.0783864 -0.159207 0.773062)
(-0.0733215 -0.312727 1.06388)
(-0.292391 -0.422859 1.83866)
(-0.131844 -0.0254277 3.03814)
(0.00129093 0.522929 4.58841)
(0.0125706 0.016256 0.23867)
(-0.0589444 -0.0413626 0.85892)
(-0.203619 -0.111677 0.999643)
(-0.38401 0.0972832 1.92855)
(-0.243077 0.14966 1.99928)
(-0.0503528 -0.00650875 0.280091)
(-0.0485619 0.0142269 0.41324)
(-0.192026 0.0787721 0.553585)
(0.255738 0.00158297 4.09274)
(0.137824 -0.0830415 0.375384)
(0.0632577 -0.174024 1.08433)
(0.368927 0.0881544 2.32261)
(0.349539 0.013501 4.02734)
(0.00795673 -0.185837 0.709688)
(0.15901 -0.271195 1.31055)
(0.00397708 -0.240305 2.02411)
(0.267611 0.102534 3.98605)
(0.217048 0.495182 6.2945)
(-0.00982426 -0.0272031 0.254061)
(-0.0493154 -0.137397 0.701583)
(-0.0209557 -0.290796 1.0279)
(-0.314774 -0.428978 1.8327)
(-0.193017 -0.0652232 3.04524)
(0.00877239 0.454296 4.63238)
(0.0217221 0.0271187 0.227733)
(0.0483378 -0.00816203 0.800586)
(-0.140055 -0.109184 0.927245)
(-0.334032 0.0948174 1.87066)
(-0.20318 0.0896947 1.74491)
(-0.0585552 -0.014073 0.273226)
(-0.00722381 0.0110075 0.417714)
(-0.13419 0.0508939 0.501894)
(0.306777 0.034477 3.99254)
(0.0869283 -0.0597481 0.448342)
(0.0609597 0.0769437 1.09114)
(0.396552 0.112503 2.23755)
(0.327951 0.0343745 4.08862)
(-0.00329805 -0.150613 0.680866)
(0.189183 -0.195203 1.35957)
(-0.0166885 -0.222938 2.12652)
(0.235499 0.0858866 4.07778)
(0.191217 0.447449 6.34963)
(-0.00429948 -0.0130911 0.278785)
(-0.0179087 -0.119851 0.647134)
(0.0104172 -0.264607 1.0108)
(-0.316091 -0.421194 1.84126)
(-0.226175 -0.117228 3.03097)
(0.0130408 0.393569 4.65865)
(0.026028 0.0258184 0.224154)
(0.105417 0.00355889 0.732653)
(-0.0848357 -0.0965157 0.884851)
(-0.244992 0.116888 1.78096)
(-0.180411 0.0767708 1.56157)
(-0.0644145 -0.0226394 0.25591)
(0.018751 0.00575763 0.422902)
(-0.0816761 0.0242747 0.45423)
(0.386743 0.0325141 3.8269)
(0.0511555 -0.0596287 0.569995)
(0.159881 0.217103 1.10597)
(0.476319 0.23416 2.21361)
(0.306537 0.0733924 4.16666)
(0.00285571 -0.173783 0.638764)
(0.20633 -0.147855 1.46709)
(-0.0356684 -0.198913 2.24717)
(0.175277 0.0820123 4.16207)
(0.163418 0.41152 6.40793)
(-0.000646425 -0.00603747 0.289182)
(0.00163874 -0.123961 0.593803)
(0.020364 -0.252611 1.01028)
(-0.310881 -0.376699 1.86691)
(-0.25134 -0.165195 3.01088)
(0.0116358 0.325309 4.65201)
(0.0269224 0.0132456 0.223062)
(0.102595 5.64331e-05 0.660526)
(-0.0485873 -0.0802387 0.860753)
(-0.143303 0.120871 1.64345)
(-0.151148 0.0489334 1.48351)
(-0.0604842 -0.0240493 0.232002)
(0.0247559 0.00441146 0.422534)
(-0.0465512 0.00959721 0.418172)
(0.391148 0.0232803 3.55535)
(0.0815922 -0.0755843 0.629732)
(0.212184 0.15568 1.13294)
(0.502599 0.353896 2.2441)
(0.300375 0.12936 4.265)
(0.0324729 -0.221326 0.603611)
(0.202852 -0.136331 1.60813)
(-0.0529453 -0.166608 2.40809)
(0.151329 0.0773118 4.25292)
(0.13657 0.384426 6.45748)
(0.000859534 -0.00911296 0.284461)
(0.0107131 -0.151356 0.526048)
(0.019909 -0.258489 1.01904)
(-0.312246 -0.314707 1.89556)
(-0.260329 -0.187274 2.97056)
(-0.024679 0.290107 4.60366)
(0.0231571 -0.0132442 0.217908)
(0.0629634 -0.0190877 0.582755)
(-0.0310324 -0.0682305 0.833997)
(-0.102071 0.121499 1.49587)
(-0.100491 0.00615616 1.47263)
(-0.0605516 -0.0264493 0.201282)
(0.0124081 0.00606682 0.411051)
(-0.0352128 0.0125227 0.403091)
(0.300266 -0.00763761 3.35114)
(0.113524 -0.0921173 0.617148)
(0.227583 0.0581805 1.14829)
(0.444239 0.374118 2.19071)
(0.31145 0.207504 4.37077)
(0.0645351 -0.276029 0.584421)
(0.189194 -0.13254 1.75005)
(-0.0908963 -0.133501 2.60608)
(0.146377 0.0949478 4.38524)
(0.111752 0.3583 6.51098)
(-0.000766175 -0.0255683 0.259434)
(0.0112906 -0.183627 0.449313)
(-0.00300112 -0.287095 1.04048)
(-0.324132 -0.262619 1.93888)
(-0.246097 -0.176036 2.89231)
(-0.0784853 0.281415 4.49961)
(0.0154449 -0.0458835 0.206078)
(0.0179019 -0.0406727 0.49627)
(-0.0397244 -0.0617214 0.800569)
(-0.0575276 0.152036 1.33394)
(-0.0555329 -0.0165379 1.5486)
(-0.0703391 -0.0351891 0.164527)
(-0.010923 0.00405942 0.383689)
(-0.0446284 0.0241544 0.410528)
(0.220403 -0.0091231 3.21114)
(0.148013 -0.124885 0.597778)
(0.253794 0.0203864 1.17355)
(0.374996 0.284402 2.08274)
(0.342363 0.298393 4.43898)
(0.0910293 -0.335196 0.585204)
(0.180876 -0.116793 1.89436)
(-0.144686 -0.117304 2.81304)
(0.115745 0.122986 4.52126)
(0.089279 0.338064 6.5699)
(-0.00442545 -0.0503383 0.218638)
(-0.0021729 -0.226553 0.372157)
(-0.0849012 -0.330237 1.07427)
(-0.331852 -0.219473 1.98607)
(-0.232895 -0.132153 2.77839)
(-0.128628 0.276152 4.33915)
(0.00715401 -0.076228 0.185094)
(-0.0284869 -0.0460397 0.408863)
(-0.0808342 -0.0502536 0.765774)
(-0.0118709 0.173503 1.18043)
(-0.0491094 0.0298812 1.71491)
(-0.0859176 -0.0487892 0.123463)
(-0.0424699 0.00421171 0.341745)
(-0.0829988 0.0443282 0.440449)
(0.195836 0.0390462 2.94367)
(0.177773 -0.168994 0.595766)
(0.316553 0.0327378 1.21653)
(0.354509 0.214602 1.9848)
(0.380902 0.372604 4.45364)
(0.114924 -0.393547 0.602861)
(0.175906 -0.108204 2.05017)
(-0.18472 -0.103382 3.03694)
(0.100807 0.116854 4.65269)
(0.0668246 0.327755 6.6226)
(-0.00924376 -0.0781023 0.163853)
(-0.0266364 -0.277184 0.307218)
(-0.188649 -0.351364 1.09006)
(-0.337441 -0.18541 2.00021)
(-0.232131 -0.0716973 2.63738)
(-0.136162 0.266256 4.18613)
(-0.00203453 -0.0987527 0.156024)
(-0.0838896 -0.0433403 0.345112)
(-0.146711 -0.0298302 0.73065)
(-0.0302199 0.159839 1.05221)
(-0.0913002 0.153107 1.90752)
(-0.105915 -0.0557755 0.089098)
(-0.0807869 0.0132755 0.301908)
(-0.135945 0.0647726 0.470895)
(0.191383 0.0520082 2.5008)
(0.200376 -0.200736 0.608148)
(0.364827 0.0439348 1.30434)
(0.344953 0.223061 1.92489)
(0.414712 0.443819 4.43212)
(0.134659 -0.451261 0.64023)
(0.152321 -0.131499 2.21701)
(-0.204061 -0.0881424 3.25779)
(0.137273 0.125346 4.80407)
(0.0517656 0.323542 6.66877)
(-0.0143678 -0.0924809 0.111491)
(-0.0676429 -0.331544 0.258416)
(-0.288763 -0.359291 1.07994)
(-0.343381 -0.175612 1.98396)
(-0.221706 -0.0083868 2.47507)
(-0.0841233 0.253607 4.03446)
(-0.011398 -0.1103 0.127482)
(-0.139518 -0.0388302 0.297592)
(-0.220558 -0.00293098 0.69741)
(-0.123338 0.131584 0.953385)
(-0.146668 0.279949 2.0264)
(-0.124338 -0.0547856 0.0674361)
(-0.119952 0.0311115 0.276468)
(-0.186945 0.0823408 0.493062)
(0.225332 0.0404771 2.12361)
(0.218018 -0.215819 0.614041)
(0.418714 0.0256769 1.42498)
(0.3674 0.264707 1.86194)
(0.428378 0.492071 4.379)
(0.138166 -0.501158 0.704093)
(0.101029 -0.176876 2.38408)
(-0.242009 -0.0981885 3.46534)
(0.146147 0.13467 4.97902)
(0.0422402 0.328195 6.72604)
(-0.0177441 -0.0827864 0.0757293)
(-0.100221 -0.376744 0.217467)
(-0.373103 -0.359441 1.04134)
(-0.358294 -0.161055 1.92739)
(-0.22165 0.0506059 2.2832)
(-0.0195307 0.238655 3.91724)
(-0.0193767 -0.110863 0.109009)
(-0.183879 -0.0352905 0.266294)
(-0.281235 0.0315634 0.676621)
(-0.242693 0.103203 0.88305)
(-0.164708 0.365536 1.9998)
(-0.137756 -0.0488233 0.0628088)
(-0.151539 0.0528767 0.270208)
(-0.21874 0.0947294 0.516198)
(0.295049 0.0415972 1.81677)
(0.221656 -0.216818 0.608558)
(0.466738 -0.0386291 1.53832)
(0.429118 0.283764 1.77822)
(0.452462 0.534142 4.2742)
(0.114181 -0.532641 0.802133)
(0.0310499 -0.249135 2.55411)
(-0.306898 -0.144854 3.65115)
(0.0826794 0.0978237 5.12883)
(0.0438251 0.337347 6.79406)
(-0.0179518 -0.0463271 0.0576818)
(-0.104882 -0.401006 0.183955)
(-0.427968 -0.343984 0.978383)
(-0.386999 -0.150318 1.82733)
(-0.271366 0.104242 2.06234)
(0.0503121 0.179554 3.84241)
(-0.0228987 -0.100676 0.102577)
(-0.211315 -0.0358318 0.247408)
(-0.304619 0.0678102 0.657961)
(-0.305427 0.058417 0.847906)
(-0.169355 0.373033 1.80139)
(-0.144097 -0.040641 0.0759858)
(-0.169728 0.0742693 0.280606)
(-0.220879 0.096226 0.546068)
(0.381563 0.032807 1.59249)
(0.212213 -0.204609 0.584248)
(0.484179 -0.0675123 1.62686)
(0.504275 0.269417 1.71654)
(0.447639 0.53334 4.16567)
(0.0678431 -0.528468 0.931558)
(-0.0801362 -0.358178 2.72304)
(-0.400335 -0.244387 3.85003)
(0.0426401 0.0048257 5.21217)
(0.054474 0.34009 6.83895)
(-0.0126797 0.0103885 0.0544112)
(-0.0717845 -0.391118 0.161719)
(-0.439789 -0.296369 0.891979)
(-0.397161 -0.158893 1.71158)
(-0.376355 0.152235 1.83143)
(0.102138 0.14224 3.82594)
(-0.0200548 -0.0812632 0.106254)
(-0.219255 -0.0425793 0.238428)
(-0.292135 0.0974689 0.625153)
(-0.290124 0.0173741 0.816486)
(-0.216859 0.319015 1.49947)
(-0.142869 -0.0294934 0.103395)
(-0.176719 0.0903213 0.302215)
(-0.198196 0.0882537 0.572144)
(0.497814 -0.0148471 1.57904)
(0.186825 -0.187962 0.534699)
(0.450424 -0.0858585 1.67673)
(0.573016 0.198189 1.725)
(0.411924 0.480668 4.13391)
(-0.00313682 -0.478059 1.08758)
(-0.261545 -0.464669 2.8612)
(-0.505456 -0.394115 3.99076)
(0.0972166 -0.128035 5.20913)
(0.0819048 0.33585 6.8412)
(-0.00724188 0.0787766 0.0525962)
(-0.00144384 -0.335293 0.152622)
(-0.41856 -0.208076 0.788138)
(-0.383462 -0.160429 1.59827)
(-0.513806 0.205199 1.60166)
(0.150798 0.165394 3.79438)
(-0.00795001 -0.0566724 0.117491)
(-0.212561 -0.0500908 0.23996)
(-0.263758 0.119725 0.581377)
(-0.265218 0.0130755 0.782588)
(-0.313817 0.394017 1.24827)
(-0.133683 -0.0138669 0.141653)
(-0.177748 0.0997088 0.332318)
(-0.178987 0.0879743 0.594848)
(0.424953 -0.0738266 1.73063)
(0.154975 -0.17504 0.489518)
(0.30329 -0.15829 1.76704)
(0.538869 0.0350911 1.88988)
(0.287083 0.375351 4.22663)
(-0.109489 -0.387386 1.28087)
(-0.503944 -0.538198 2.96307)
(-0.632238 -0.514234 3.98819)
(0.133562 -0.286614 5.02604)
(0.102941 0.315027 6.80025)
(-0.00218643 0.167349 0.0389039)
(0.0751489 -0.235476 0.149678)
(-0.386905 -0.0836229 0.680191)
(-0.375341 -0.109317 1.49395)
(-0.61623 0.269497 1.41465)
(0.253475 0.458469 3.69855)
(0.0102321 -0.0273782 0.13876)
(-0.19895 -0.0500832 0.259949)
(-0.231227 0.12966 0.54449)
(-0.245976 0.047284 0.778701)
(-0.420693 0.513271 1.07972)
(-0.113757 0.00562221 0.192456)
(-0.175542 0.107282 0.374797)
(-0.169537 0.0975523 0.634449)
(0.348827 -0.0331849 1.56844)
(0.138819 -0.174148 0.479728)
(0.207934 -0.221088 1.89536)
(0.36699 -0.150945 2.32331)
(0.082537 0.210717 4.40146)
(-0.261272 -0.276767 1.51261)
(-0.800017 -0.580687 3.02634)
(-0.922811 -0.591226 3.84448)
(-0.0851891 -0.379051 4.84246)
(0.124199 0.229676 6.69482)
(0.000902915 0.289288 0.0411519)
(0.130236 -0.10758 0.158864)
(-0.341172 0.0537607 0.575822)
(-0.392399 0.0595533 1.34189)
(-0.580192 0.330653 1.32701)
(0.0199096 1.06352 3.11187)
(0.0329965 0.00741998 0.173338)
(-0.18349 -0.0437969 0.304447)
(-0.189533 0.113651 0.537939)
(-0.199589 0.120452 0.807541)
(-0.418367 0.525414 1.05201)
(-0.0880273 0.0253104 0.25973)
(-0.169169 0.114 0.43287)
(-0.172935 0.113387 0.703477)
(0.166976 -0.0569786 1.49703)
(0.134237 -0.181952 0.543213)
(0.147297 -0.294157 2.08278)
(0.0873978 -0.314963 2.87918)
(-0.150434 -0.026627 4.65641)
(-0.450854 -0.17208 1.77182)
(-1.04779 -0.562863 3.06932)
(-1.41034 -0.617479 3.5182)
(-0.941481 -0.492711 4.35744)
(0.0691595 0.155085 6.4842)
(0.0155994 0.421708 0.0859877)
(0.144289 0.0451443 0.201249)
(-0.266722 0.168261 0.501345)
(-0.394507 0.182827 1.16636)
(-0.363101 0.37456 1.30329)
(-0.544512 1.2284 2.10314)
(0.0596862 0.0491113 0.2244)
(-0.159859 -0.0417408 0.374063)
(-0.142504 0.0791377 0.559562)
(-0.138537 0.171561 0.855063)
(-0.273036 0.387189 1.14227)
(-0.0581994 0.0406551 0.341206)
(-0.154795 0.112735 0.500106)
(-0.180922 0.126269 0.800694)
(-0.0718495 -0.0446712 1.56262)
(0.110276 -0.17621 0.709028)
(-0.0214227 -0.336774 2.33874)
(-0.185055 -0.392702 3.38728)
(-0.333905 -0.258264 4.94501)
(-0.598148 -0.110056 2.00911)
(-1.10767 -0.521401 3.10014)
(-1.53721 -0.536624 3.30199)
(-1.50452 -0.485806 3.4189)
(0.0466262 -0.37883 6.29703)
(0.0307192 0.530111 0.19648)
(0.116765 0.198311 0.282472)
(-0.181183 0.249287 0.472525)
(-0.365627 0.176559 0.992362)
(-0.208427 0.256774 1.24574)
(-0.494706 0.732191 1.6654)
(0.0880083 0.0958246 0.296015)
(-0.126486 -0.0540512 0.462293)
(-0.0976574 0.0452084 0.586893)
(-0.0853985 0.165769 0.902328)
(-0.141668 0.22484 1.2288)
(-0.0240042 0.0472411 0.433015)
(-0.134812 0.09882 0.568171)
(-0.178484 0.125542 0.896684)
(-0.198632 -0.0173244 1.64028)
(0.0602652 -0.151698 0.984172)
(-0.176953 -0.400181 2.64317)
(-0.416127 -0.336368 3.83524)
(-0.523659 -0.419285 5.25669)
(-0.65829 -0.140698 2.11341)
(-0.947968 -0.48821 3.10174)
(-1.39906 -0.404094 3.2408)
(-1.00245 -0.256983 2.59979)
(-0.260198 -0.661107 5.02516)
(0.046378 0.592426 0.370125)
(0.0641516 0.299482 0.393252)
(-0.107928 0.284582 0.470083)
(-0.310357 0.164106 0.85368)
(-0.153914 0.0480519 1.12773)
(-0.180959 0.284829 1.58916)
(0.117337 0.136525 0.381307)
(-0.0909 -0.0848958 0.561245)
(-0.0596115 0.0298918 0.6079)
(-0.0363124 0.135908 0.908106)
(-0.0667639 0.130475 1.27716)
(0.0121391 0.0464075 0.528272)
(-0.122069 0.0864325 0.626983)
(-0.16157 0.113927 0.959455)
(-0.146078 -0.00548356 1.67397)
(-0.00439997 -0.0889107 1.34445)
(-0.228243 -0.440793 2.9501)
(-0.537396 -0.174244 4.21468)
(-0.656145 -0.481255 5.58989)
(-0.698827 -0.157411 2.01743)
(-0.507024 -0.36482 2.8997)
(-0.907172 -0.252616 3.16152)
(-0.213194 -0.0545113 1.9867)
(-0.285342 0.0806935 3.12782)
(0.0451553 0.616897 0.595971)
(-0.0205453 0.285367 0.544187)
(-0.0750192 0.235898 0.482427)
(-0.22541 0.210097 0.757959)
(-0.13606 -0.0879719 0.999881)
(-0.0379931 0.190797 1.49713)
(0.14839 0.160752 0.470278)
(-0.0604551 -0.117409 0.659009)
(-0.0253612 0.0383488 0.631956)
(0.0042052 0.104971 0.879722)
(-0.0344062 0.106884 1.31833)
(0.0468068 0.0399866 0.621021)
(-0.110223 0.0788457 0.681958)
(-0.138318 0.100285 0.986971)
(0.089474 -0.019585 1.77961)
(-0.0914251 0.0201132 1.69809)
(-0.212902 -0.42803 3.25326)
(-0.576337 -0.0121087 4.46343)
(-0.614196 -0.438987 5.86362)
(-0.763118 -0.0519301 1.78974)
(-0.427558 -0.138456 2.46569)
(-0.169346 -0.14384 2.8275)
(0.215832 0.0232859 1.64226)
(0.0785493 0.122546 2.11205)
(0.0362716 0.624325 0.864748)
(-0.0866012 0.181868 0.695301)
(-0.0838513 0.0809155 0.517368)
(-0.129649 0.242233 0.698729)
(-0.109346 -0.130417 0.90006)
(0.0225427 0.156252 1.41738)
(0.172306 0.180488 0.539018)
(-0.0323226 -0.132143 0.729655)
(0.0034303 0.0480251 0.665104)
(0.0197444 0.0802945 0.848676)
(-0.0281933 0.0978645 1.3656)
(0.0809228 0.0236394 0.708558)
(-0.0969817 0.0683151 0.736261)
(-0.122036 0.0919852 0.998798)
(0.225742 -0.0175911 1.98481)
(-0.181961 0.103334 2.02262)
(-0.244261 -0.402403 3.54321)