/*--------------------------------*- C++ -*----------------------------------*\
| =========                 |                                                 |
| \\      /  F ield         | OpenFOAM: The Open Source CFD Toolbox           |
|  \\    /   O peration     | Version:  5.x                                   |
|   \\  /    A nd           | Web:      www.OpenFOAM.org                      |
|    \\/     M anipulation  |                                                 |
\*---------------------------------------------------------------------------*/
FoamFile
{
    version     2.0;
    format      ascii;
    class       volScalarField;
    location    "9";
    object      p;
}
// * * * * * * * * * * * * * * * * * * * * * * * * * * * * * * * * * * * * * //

dimensions      [0 2 -2 0 0 0 0];

internalField   nonuniform List<scalar> 
10571
(
255.873
241.175
213.586
221.353
298.855
243.495
208.327
198.626
213.191
235.638
236.83
199.715
180.206
192.032
197.614
224.027
183.809
169.225
155.51
151.427
212.936
121.009
102.616
103.959
166.182
83.0371
136.32
142.332
136.843
79.2192
125.455
140.201
113.588
136.387
95.9476
85.8326
101.56
103.764
151.82
137.685
77.6678
73.3573
69.8535
93.8632
102.789
78.1852
80.4018
84.2251
82.8783
68.5233
67.913
79.6598
81.8113
66.4056
66.3768
77.3906
71.3405
86.6957
70.4917
63.3691
58.6039
57.8563
63.2018
75.202
62.1268
61.1073
62.6513
59.4414
64.075
67.7007
70.7222
67.0651
67.0541
63.7131
64.5534
69.8347
63.6856
62.0279
58.6227
57.5692
58.6708
64.0684
58.8559
58.6581
56.7303
54.6281
54.3851
59.9017
60.1516
59.4231
59.4938
56.9218
58.2883
61.3618
62.5553
60.6561
58.2097
59.4346
57.7438
55.2811
56.1255
58.8111
56.1652
55.7587
57.109
56.2001
57.2294
57.5406
56.4944
54.9771
57.9697
55.1167
57.8429
57.8127
57.4495
57.2946
56.5334
58.3233
58.5628
58.0655
54.6802
56.5386
56.127
54.2768
54.0708
55.5075
54.5219
54.2137
54.5352
53.4065
52.3208
55.9009
56.3583
55.7225
54.2135
54.7452
53.0511
52.1834
56.3145
55.9147
55.7685
56.7133
54.548
55.0086
56.0935
55.7375
54.1436
55.0237
54.17
53.4118
53.133
54.4481
53.9529
53.4287
52.1639
52.0748
52.075
54.4881
54.9564
53.9505
53.2225
51.6688
51.9437
52.0736
52.9625
52.8716
53.2477
51.5051
51.8171
52.0587
52.6238
52.3716
51.4562
52.2241
53.9545
53.1336
52.7786
52.5807
53.7436
52.7649
52.8973
52.1798
51.9763
52.0295
52.4438
52.3622
51.8455
52.1791
51.891
51.9625
52.0652
52.2031
51.1486
51.3013
51.5809
51.8508
52.0641
52.171
51.5903
51.7813
52.2243
52.6719
52.2653
52.7409
52.2961
51.8176
51.3588
51.7849
51.7123
51.8853
52.0135
51.2743
51.5127
51.0261
51.3493
51.7782
51.8033
52.0865
51.6862
51.2348
50.9265
51.5512
51.5429
51.7792
51.6757
51.6745
50.8297
51.3901
51.4588
50.6833
50.8074
50.8487
50.74
50.8799
51.1422
51.1783
50.879
50.9514
51.0645
51.0086
51.4394
51.4889
51.3297
51.3902
51.1235
51.3309
51.3342
51.548
51.4871
51.4635
50.8256
50.7302
50.7519
50.8328
50.9913
50.7165
50.8005
50.9168
51.0244
51.1288
50.8971
50.9206
51.0916
51.0188
51.2062
51.2011
51.1619
51.331
51.2631
51.1997
51.2668
51.382
51.3585
51.3247
50.8695
50.7936
50.7887
50.8172
51.0097
50.7874
50.8932
51.0212
51.0598
51.1071
50.936
50.9222
51.06
51.0387
51.1054
51.1703
51.1035
51.2058
51.2436
51.152
51.2065
51.2536
51.2827
51.2311
50.9428
50.8362
50.8267
50.9098
51.0106
50.8251
50.9121
51.0428
51.0778
51.0786
50.9565
50.9244
51.0093
51.0322
51.0716
51.1091
51.043
51.1189
51.1459
51.1535
51.1408
51.1654
51.1895
51.1525
50.9699
50.8558
50.8473
50.9808
51.0122
50.8562
50.8968
51.0134
51.0609
51.0547
50.9667
50.9225
50.949
51.002
51.0368
51.0666
50.9996
51.0636
51.0409
51.1267
51.0843
51.0947
51.1086
51.0973
50.9565
50.8768
50.8724
50.97
51.0219
50.9121
50.9586
50.9815
51.0325
51.0257
51.0039
50.9586
50.9131
50.9563
50.9861
51.023
50.9817
51.042
50.9716
51.0536
51.0219
51.045
51.0433
51.0305
50.9185
50.879
50.8916
50.939
51.0023
50.9447
51.022
50.9446
51.0235
50.987
51.0049
50.9615
50.8913
50.9104
50.9279
50.9593
50.9676
51.0307
50.9263
50.9577
50.9516
51.0044
50.991
50.9576
50.8459
50.8669
50.8857
50.8591
50.8714
50.9202
50.9811
50.8391
50.9468
50.9138
50.941
50.9044
50.8436
50.8459
50.8618
50.8776
50.9253
51.0001
50.8841
50.8644
50.8729
50.9627
50.9364
50.8806
50.7262
50.8828
50.8391
50.718
50.698
50.8715
50.9049
50.7369
50.8102
50.8092
50.8629
50.8366
50.7837
50.7423
50.7731
50.7878
50.8708
50.9393
50.8286
50.7674
50.7818
50.9102
50.8707
50.8087
50.5829
50.8239
50.7609
50.5422
50.6169
50.8194
50.8305
50.6918
50.7189
50.7411
50.8046
50.776
50.7834
50.6368
50.6927
50.7116
50.8184
50.8857
50.7733
50.701
50.7199
50.8615
50.8046
50.7595
50.5123
50.7687
50.6809
50.4408
50.6201
50.771
50.7249
50.6739
50.6832
50.7082
50.7756
50.7246
50.8009
50.5987
50.6587
50.6602
50.7813
50.8532
50.7413
50.6896
50.6957
50.8327
50.7638
50.7387
50.5333
50.7439
50.61
50.4428
50.6581
50.7644
50.5863
50.6448
50.6536
50.6719
50.7699
50.7051
50.7597
50.6252
50.63
50.6313
50.7518
50.7852
50.7265
50.6902
50.6901
50.7902
50.7371
50.7329
50.5913
50.7075
50.5716
50.4952
50.6716
50.7643
50.475
50.6036
50.6383
50.6347
50.7703
50.6802
50.6927
50.6395
50.5862
50.6166
50.7214
50.6957
50.7078
50.6801
50.6859
50.7441
50.7128
50.7222
50.6305
50.7029
50.5706
50.5408
50.6567
50.7441
50.4279
50.5874
50.6469
50.6182
50.7923
50.6818
50.6588
50.6327
50.5506
50.6125
50.7145
50.6525
50.7083
50.6826
50.6873
50.7265
50.7059
50.7186
50.6688
50.7204
50.595
50.5638
50.6609
50.7361
50.451
50.5835
50.6655
50.6383
50.8683
50.7526
50.6537
50.6417
50.54
50.6309
50.7379
50.6578
50.7329
50.7098
50.7086
50.7306
50.7185
50.7296
50.7267
50.7441
50.6377
50.598
50.6845
50.7306
50.5005
50.5935
50.6695
50.6891
50.8875
50.7971
50.6831
50.659
50.5788
50.6652
50.7755
50.6874
50.7645
50.7494
50.7442
50.7462
50.741
50.7539
50.7905
50.7796
50.6974
50.644
50.7227
50.7187
50.5907
50.6422
50.6801
50.7372
50.9835
50.8744
50.7469
50.6884
50.6553
50.7148
50.809
50.7487
50.8045
50.7942
50.7926
50.7878
50.7803
50.7925
50.8445
50.8259
50.7699
50.7237
50.7621
50.71
50.7095
50.7449
50.7168
50.795
51.0033
50.8739
50.8373
50.7549
50.7441
50.7817
50.8662
50.8279
50.8644
50.8548
50.8522
50.8476
50.8304
50.8465
50.8997
50.8796
50.8476
50.8242
50.8166
50.7225
50.8254
50.8573
50.7621
50.8626
50.9476
50.9173
50.9142
50.8715
50.8358
50.8646
50.9124
50.8918
50.934
50.9311
50.9355
50.8933
50.8821
50.9084
50.9617
50.941
50.922
50.9314
50.8982
50.7483
50.9193
50.9483
50.7981
50.9337
51.0177
50.9355
50.9608
51.1043
50.9536
50.9513
50.9607
50.9362
51.0155
51.005
51.0245
50.9398
50.9542
50.9785
51.0182
51.0063
50.9861
50.9986
50.9815
50.8092
50.9923
50.9782
50.8373
51.001
51.0575
50.9335
51.0518
51.3078
51.0696
51.0452
51.0061
50.981
51.0729
51.0501
51.0994
51.0077
51.0508
51.0479
51.0655
51.0682
51.0428
51.0482
51.0263
50.9201
51.0494
50.9887
50.8745
51.05
51.0963
50.9578
51.1249
51.3409
51.1496
51.1422
51.0696
51.0113
51.0954
51.0916
51.1425
51.0561
51.1125
51.0967
51.1018
51.1184
51.0911
51.0818
51.1777
51.0323
51.093
51.0104
50.8952
51.0677
51.1364
50.9874
51.1074
51.2453
51.1645
51.1631
51.1345
51.0323
51.1284
51.1215
51.1444
51.077
51.134
51.1219
51.1304
51.1576
51.132
51.1054
51.1639
51.117
51.109
51.027
50.9187
51.0764
51.1319
50.9987
51.0783
51.1291
51.1041
51.1065
51.1603
51.0513
51.1733
51.1074
51.1107
51.0966
51.1566
51.1361
51.1563
51.191
51.1663
51.1256
51.1443
51.1787
51.1106
51.0371
50.957
51.0985
51.1389
51.0094
51.0783
51.039
51.0567
51.0524
51.1785
51.052
51.1797
51.0984
51.0843
51.0997
51.1638
51.1433
51.1849
51.2246
51.1963
51.1504
51.1468
51.2173
51.11
51.0517
50.9977
51.1272
51.1803
51.054
51.054
51.0138
51.0742
51.0658
51.4312
51.0351
51.165
51.1176
51.1009
51.1021
51.1406
51.1468
51.2154
51.2532
51.2209
51.1775
51.1739
51.2256
51.103
51.0769
51.0329
51.1613
51.2153
51.0614
51.0215
51.0453
51.1098
51.1133
51.4568
51.0691
51.2009
51.153
51.1479
51.1243
51.1264
51.1611
51.243
51.2668
51.2319
51.2078
51.2221
51.2174
51.1073
51.125
51.117
51.1985
51.1912
51.0265
50.9946
51.128
51.1346
51.151
51.6497
51.1226
51.2472
51.1893
51.1908
51.1393
51.1687
51.1844
51.2621
51.26
51.2317
51.2317
51.2682
51.1874
51.123
51.1931
51.2205
51.2812
51.1425
50.9238
51.0233
51.2337
51.1398
51.2053
51.2897
51.1602
51.2602
51.2177
51.2262
51.1524
51.2189
51.2112
51.2675
51.2318
51.2183
51.2381
51.2908
51.1478
51.1557
51.2223
51.3041
51.4727
51.0907
50.8015
51.1506
51.3078
51.1432
51.3305
51.1008
51.2006
51.2215
51.2268
51.2597
51.1817
51.2053
51.2144
51.2567
51.1809
51.1929
51.2223
51.2874
51.1063
51.1888
51.1942
51.342
51.5413
51.0536
50.7622
51.3816
51.2663
51.2182
51.4905
51.0018
51.2769
51.1625
51.2244
51.306
51.2286
51.1695
51.2064
51.2357
51.0995
51.157
51.1939
51.263
51.0652
51.186
51.1242
51.3012
51.4896
51.0618
50.8854
51.4749
51.2351
51.2749
51.6992
50.8184
51.3602
51.0975
51.2047
51.3485
51.2606
51.1806
51.199
51.2116
51.0228
51.1212
51.1659
51.227
51.0137
51.1602
51.0874
51.2094
51.3625
51.088
50.9917
51.4054
51.2558
51.2895
51.5363
50.7024
51.3703
51.0082
51.1382
51.34
51.249
51.1847
51.1824
51.1869
50.9882
51.0862
51.1388
51.2006
50.9552
51.1186
51.105
51.1794
51.2554
51.1613
50.9745
51.2414
51.2382
51.2772
51.1781
50.6602
51.2764
51.0297
51.14
51.2264
51.2211
51.1937
51.1897
51.1657
51.0243
51.0408
51.1109
51.1907
50.9231
51.067
51.1221
51.1934
51.2226
51.1848
50.9358
51.0728
51.1775
51.2239
51.0614
50.766
51.2902
51.1683
51.2547
51.1931
51.2137
51.2417
51.276
51.1527
51.0564
50.9776
51.0902
51.1948
50.9014
50.9937
51.12
51.2234
51.2416
51.1176
50.8825
50.8662
51.0939
51.1958
51.2853
50.8977
51.3609
51.3158
51.4179
51.3945
51.2165
51.3144
51.4202
51.1564
51.0084
50.9244
51.088
51.2144
50.8586
50.885
51.1244
51.2437
51.2703
51.0037
50.8038
50.5865
50.9622
51.299
51.3996
50.943
51.1742
51.414
51.7339
51.8069
51.1337
51.3663
51.7147
51.1899
50.9264
50.9159
51.1118
51.2506
50.8142
50.8028
51.097
51.2477
51.2827
50.9479
50.7618
50.3303
50.7784
51.2205
51.3708
50.9444
50.846
51.2078
51.5677
51.724
50.9734
51.3149
51.6497
51.2674
50.9433
50.9229
51.1763
51.3029
50.868
50.8248
51.0766
51.2471
51.2962
51.0433
50.8119
50.2632
50.678
51.1294
51.2859
50.9737
50.6177
50.8527
51.2374
51.4208
50.8741
51.182
51.4227
51.4047
51.1023
51.1055
51.3006
51.3668
51.019
51.0109
51.1393
51.2824
51.3373
51.2517
51.0125
50.4043
50.6439
51.1146
51.2491
51.0708
50.4891
50.6524
50.9846
51.239
50.8891
50.9858
50.9745
51.5657
51.3887
51.3758
51.4465
51.4294
51.231
51.2742
51.2699
51.3543
51.4001
51.4847
51.1877
50.8094
50.7806
51.196
51.2908
51.2644
50.5116
50.6268
50.8742
51.1851
50.9953
50.9791
50.6871
51.6969
51.7016
51.6039
51.5728
51.4851
51.5317
51.5002
51.4197
51.4502
51.4847
51.7809
51.4386
51.3684
51.1509
51.3462
51.3911
51.6458
50.6539
50.8018
50.9187
51.2241
51.2362
51.1108
50.9271
51.7819
51.9141
51.7532
51.657
51.5416
51.9062
51.7082
51.5513
51.5421
51.5712
52.189
52.0913
51.8136
51.5255
51.4971
51.5043
51.9862
50.9543
50.9639
51.0398
51.332
51.3018
51.2278
51.1984
51.8309
51.9978
51.8362
51.706
51.6032
52.1503
51.8208
51.6569
51.6222
51.646
52.5104
52.8812
52.1977
51.7191
51.5551
51.5907
52.4923
51.1441
51.1994
51.2161
51.4895
51.199
51.3221
51.3611
51.8605
52.0295
51.8841
51.7349
51.6616
52.189
51.9179
51.7358
51.6861
51.7009
52.4756
52.7223
52.2086
51.711
51.5429
51.6505
53.0484
51.5275
51.4484
51.4218
51.6255
51.3095
51.4872
51.5575
51.8816
52.0549
51.9252
51.7579
51.6993
52.1489
51.9782
51.7852
51.7213
51.7247
52.307
52.2981
51.9366
51.6431
51.5635
51.6901
52.0059
51.6119
51.6828
51.5951
51.7022
51.7326
51.68
51.7131
51.8944
52.0859
51.9511
51.7572
51.7047
52.1329
52.0227
51.8065
51.719
51.7057
52.1768
52.0835
51.7363
51.6707
51.5893
51.6874
51.2364
51.6321
51.785
51.6866
51.7111
51.8804
51.74
51.7548
51.8914
52.1112
51.9742
51.7465
51.6724
52.1579
52.0804
51.8149
51.6524
51.6184
52.2404
52.1611
51.7999
51.7165
51.5679
51.5979
51.8761
51.8713
51.7047
51.6266
51.6329
51.9113
51.7072
51.7125
51.8771
52.1478
51.994
51.7251
51.6078
52.2372
52.1166
51.803
51.504
51.438
52.433
52.3426
51.9099
51.6732
51.4486
51.4054
52.5242
52.0265
51.6394
51.5525
51.4757
52.002
51.6828
51.6338
51.8428
52.2104
52.013
51.69
51.4761
52.3588
52.075
51.7224
51.2327
51.1322
52.6665
52.576
51.954
51.5848
51.1163
50.9979
52.8294
52.0571
51.5381
51.3259
51.1338
52.1252
51.6123
51.4842
51.7955
52.3032
52.0142
51.6652
51.2605
52.4949
51.8854
51.5995
50.7568
50.5104
52.753
52.7404
51.7891
51.3726
50.5708
50.1289
52.9901
51.8111
51.2876
50.9402
50.5111
51.8675
51.4768
51.1829
51.7355
52.3758
51.9969
51.6142
50.9624
52.4959
51.5201
51.3493
50.0121
49.2563
52.4298
52.2428
51.2404
50.9905
49.7204
48.1648
51.4551
51.3078
50.9343
50.3085
49.4241
51.3488
51.147
50.76
51.6992
52.3667
51.9484
51.6014
50.6609
52.2858
51.026
51.0743
49.047
46.4548
52.0047
51.5367
50.7335
50.5809
48.6297
43.8225
49.2847
50.7855
50.5219
49.5922
47.4364
50.8572
50.8002
50.2945
51.6923
52.2488
51.8777
51.5813
50.5006
52.0182
50.9475
50.909
48.1194
38.8253
51.7874
51.3959
51.0937
50.2125
47.6358
39.218
-20.6881
49.2493
50.6861
50.326
49.0203
43.6809
50.8376
50.6887
50.0445
51.713
52.0571
51.863
51.5412
50.5784
51.7496
51.498
51.1843
48.1813
34.011
-0.583679
51.4827
51.2841
51.6501
50.4426
47.5353
38.3402
3.96895
50.4443
51.1167
50.5105
48.9903
39.338
51.2637
50.9519
50.2515
51.7555
51.9241
51.9565
51.5837
51.0742
51.5067
51.7768
51.62
49.7821
40.535
12.7695
51.1539
51.0754
51.5234
50.775
48.9579
39.0206
13.7457
51.3875
51.5668
50.9614
49.7989
41.6753
14.9988
51.7977
51.5044
50.8673
51.6026
51.7249
51.6051
51.3984
51.4387
50.9463
51.1271
51.1605
49.9608
41.1856
14.8211
50.9105
50.8683
51.5622
50.6798
49.6109
41.0486
12.8505
51.9171
51.7588
51.6071
50.4522
46.514
51.9211
52.1721
51.537
51.241
51.2861
50.9884
50.8238
51.0885
50.6862
50.7114
50.9666
49.986
46.0663
51.4643
51.058
51.6268
51.4426
50.3413
45.099
-9.42572
52.1592
52.0862
52.508
51.4057
50.852
53.0568
52.7736
52.1919
50.9998
51.1833
50.6567
50.4499
50.7197
51.1411
50.767
51.0302
50.5107
50.0702
52.2665
51.6105
51.5869
52.0033
51.5577
51.0489
52.1457
52.1346
52.6378
52.2002
52.5554
53.0534
52.5348
52.7911
51.2702
51.5272
51.0124
50.8822
51.1347
51.5687
51.107
51.3828
51.2541
51.5017
52.038
51.6904
51.6
52.2468
52.1673
52.4468
52.1212
52.1746
52.5649
52.5892
52.9603
52.6822
52.7133
53.2253
51.8775
51.825
51.6135
51.674
51.8688
51.7298
51.5246
51.9275
51.8735
52.2532
52.0412
51.7696
51.7194
52.3155
52.2821
52.4347
52.1809
52.296
52.4618
52.4643
52.6099
52.5588
52.7508
53.0654
52.3158
52.1532
52.0674
52.2073
52.3572
52.0153
51.7444
52.2422
52.0862
52.5039
52.0406
51.923
51.932
52.2682
52.2389
52.326
52.3091
52.3786
52.4706
52.3388
52.4787
52.5744
52.6853
52.6479
52.5864
52.2047
52.2724
52.4949
52.6404
52.0784
51.8428
52.3774
52.3474
52.7153
52.1034
52.0743
52.1877
52.4037
52.4378
52.4727
52.5146
52.5023
52.6023
52.5314
52.7022
52.7136
52.7708
52.7322
52.8223
51.8351
52.3914
52.6945
52.8652
51.9651
52.0791
52.5314
52.5207
53.0252
52.1932
52.1594
52.4259
52.5769
52.6275
52.7712
52.5935
52.6614
52.7687
52.7517
52.9961
52.9294
52.9599
52.9701
53.1026
51.9363
52.7111
52.9267
53.1927
52.0438
52.1838
52.5415
52.6226
53.3748
52.4062
52.2609
52.4152
52.5616
52.7434
53.0388
52.613
52.6596
52.7276
52.9162
53.1981
53.1201
53.2316
53.2838
53.2848
52.5926
52.9984
53.0653
53.4825
52.2685
52.4152
52.6814
52.7813
53.8578
52.8536
52.4725
52.5024
52.6648
52.8545
53.3449
52.9154
52.7664
52.8943
53.013
53.3619
53.427
53.5363
53.4842
283.656
262.33
265.76
266.214
274.626
287.875
338.702
365.565
291.687
296.835
288.492
288.451
259.601
251.175
252.32
236.05
234.487
258.839
311.931
225.206
251.13
372.546
344.966
286.29
308.636
280.091
300.156
283.496
295.29
283.324
270.106
252.718
227.424
250.38
219.579
228.089
222.472
209.163
219.578
209.751
210.172
231.979
250.141
212.332
221.211
254.648
237.887
233.74
297.079
299.607
271.285
241.066
200.597
238.051
206.151
192.377
197.083
191.053
183.457
214.536
207.891
187.471
195.173
209.625
215.265
211.458
223.977
233.563
232.02
239.117
237.176
215.308
187.544
206.21
202.427
182.849
174.985
181.877
164.494
170.965
167.739
174.605
161.283
194.883
240.165
146.03
196.501
243.567
199.791
197.037
190.038
179.638
179.752
156.984
167.476
126.842
234.552
189.077
256.036
222.562
256.632
237.835
196.458
210.526
258.567
287.065
223.002
210.11
217.383
304.401
219.729
228.112
105.131
235.917
241.611
234.952
145.612
166.458
114.775
169.516
288.159
242.02
262.911
207.059
202.53
156.091
172.131
251.636
187.664
219.667
193.501
182.744
107.193
110.123
106.626
227.826
225.841
195.315
198.797
195.47
236.267
236.604
139.767
144.056
160.808
223.172
223.142
187.89
187.862
178.231
208.166
145.355
176.772
175.152
167.686
125.723
154.749
112.149
105.465
189.512
107.782
132.629
119.15
135.816
95.0474
96.8099
157.179
150.558
86.8311
107.964
112.972
86.1464
84.4891
85.0755
99.261
100.914
82.9402
84.894
81.2945
96.1045
130.172
75.5703
156.265
175.227
143.451
92.2351
91.942
82.0187
164.089
161.722
111.327
109.835
118.121
154.961
112.351
81.9492
75.9505
89.2015
77.0758
103.333
70.9441
67.4361
72.2127
70.3586
137.14
101.152
115.118
100.45
105.628
84.813
99.1929
127.915
99.8755
84.5966
91.6998
90.7794
77.4949
87.8812
88.7198
141.104
139.818
104.349
100.922
101.203
95.4762
99.3492
82.6052
76.7824
70.6067
137.024
128.521
96.8778
96.8156
88.8364
89.5721
65.7182
97.7587
68.8489
70.7035
63.4853
63.8442
63.5169
64.1204
87.0675
81.1041
76.5288
74.5381
69.9541
69.2911
69.0114
73.3604
72.5369
68.2312
79.4833
79.3051
72.8296
74.8629
74.6106
81.8012
79.752
76.1514
76.5617
76.1009
74.5874
67.4117
65.7534
71.8384
71.5163
70.3949
69.5894
68.5011
69.9823
82.8038
89.1449
73.1474
74.2913
74.154
87.3595
73.3295
70.3447
66.026
66.6713
69.5519
65.5881
65.9492
65.6613
66.2829
64.802
86.4992
79.145
89.0611
71.4577
73.6062
74.4875
75.6761
86.845
75.3265
69.7887
80.1682
80.6654
65.3382
68.5767
66.5849
81.0084
78.7275
73.7726
69.4865
67.4669
65.3806
61.5146
62.1307
59.9581
59.9427
73.7587
69.3787
65.5664
64.9961
62.8255
61.3524
60.6448
60.6116
63.1379
62.8259
61.4557
60.7212
61.8672
61.718
61.9979
63.5394
63.3713
56.9037
59.1805
61.2332
60.7351
60.6529
65.0004
62.7499
69.3602
69.8188
64.0967
64.7917
65.5788
70.43
71.2333
66.1199
65.7985
67.41
62.5852
63.7157
61.1242
67.0123
65.2372
67.4285
63.711
61.7835
64.2147
66.6823
64.7325
62.1186
60.831
59.2588
63.8775
59.6138
62.6118
60.2876
63.7361
63.3086
62.9144
61.4582
61.241
60.9177
60.6312
63.7428
69.1702
64.288
59.2475
58.923
63.5897
58.2109
65.4688
59.4496
62.8749
60.2995
59.018
60.5009
58.1285
57.8128
61.9801
61.569
58.6533
58.2165
58.588
58.4508
58.8085
57.9679
57.741
58.0397
60.5485
58.5346
56.9847
58.1233
56.2151
59.62
58.6082
59.7408
60.2679
60.2387
58.8065
58.482
58.8648
58.6155
58.29
59.7563
59.3119
57.1363
57.8847
58.5196
58.1994
57.171
60.6998
59.1127
61.7432
62.1537
59.6884
59.7767
59.5919
62.6591
63.5542
60.0522
60.5816
60.0798
59.3079
58.7482
57.0001
60.0341
58.6539
60.4593
56.9465
56.541
56.8898
57.1315
56.8045
55.8937
55.4739
55.5152
57.1988
55.3367
58.645
57.408
59.157
59.0634
58.8747
57.8009
57.6554
57.5577
57.3425
56.4416
58.7419
55.6232
54.6469
54.8737
55.0657
54.0746
56.3245
54.4728
58.3542
57.1257
56.8457
56.8795
56.1122
56.0119
55.8489
56.2848
55.0218
53.9636
54.5082
57.0654
57.2538
56.5648
56.4208
56.4441
55.9376
55.2527
53.8414
54.4312
54.2602
57.6426
56.8203
57.6502
57.8023
57.4257
57.1497
57.2322
56.9729
56.6319
57.5821
57.7095
57.4802
57.1456
57.5657
57.1551
56.744
56.2914
57.9903
56.8163
58.52
58.0931
56.7958
57.6375
57.1855
58.8344
58.1127
57.4042
57.3173
57.1592
57.1197
55.8381
55.09
55.0731
55.2697
54.8833
54.0087
54.2961
53.9399
54.5438
54.39
53.865
53.8776
53.5312
53.9935
53.1448
56.577
55.8269
56.5177
56.4232
56.0461
55.6913
55.6933
55.703
55.3937
53.9381
53.1144
53.39
53.5846
53.386
52.4922
52.8008
53.2658
52.5674
55.8885
55.4347
55.2971
55.1656
54.9757
54.7112
53.0843
52.3351
53.6007
52.2412
52.3785
51.9203
52.2729
52.105
52.1567
52.0405
52.0715
52.0756
52.0708
51.9846
55.6921
55.5996
55.2722
54.8741
54.607
53.4221
53.1567
52.5498
52.1908
52.0729
51.9458
51.9544
52.0911
52.1348
52.0829
52.0265
52.058
52.0299
52.06
55.9031
54.603
56.9985
55.6208
55.3728
54.5461
55.7001
54.0245
53.6024
56.7232
56.6506
54.892
54.2442
52.9654
53.793
52.4973
52.2702
55.1892
53.7083
56.1539
55.4121
53.3679
53.6146
53.4664
55.4558
55.443
54.3009
53.3513
53.3911
52.7021
54.7495
54.462
53.5409
53.7773
53.3845
53.0905
53.5452
53.0978
53.3299
52.9225
52.595
52.9253
52.5478
52.6774
52.4033
55.1081
54.6558
55.0437
55.2443
55.0075
54.4654
54.5594
54.9018
54.661
52.7135
52.366
52.4083
52.8209
52.4075
52.2533
52.1507
52.2513
52.1454
52.0872
52.0882
52.0944
52.1239
52.0611
52.0888
54.5667
54.6004
54.1787
54.0553
53.8715
53.55
52.1542
52.0329
52.1397
51.9207
52.1022
52.0528
52.1272
52.1075
52.0551
52.1069
52.0396
52.0587
52.0545
52.0451
53.9607
53.6145
53.3381
53.0139
52.9066
52.1076
51.8031
52.0835
51.9586
52.0931
51.9039
52.0259
52.0949
52.0523
52.0817
52.0643
52.0641
52.0519
52.0662
53.5336
52.7836
53.0509
53.0385
52.5585
52.396
51.806
52.6281
52.1909
51.5508
51.241
51.6317
51.3705
51.9494
51.4865
51.9574
52.0205
51.9202
52.0155
52.0773
52.0539
52.068
52.7666
52.3739
52.1569
52.4499
52.3948
51.9908
52.236
52.0021
52.2982
51.5677
51.6231
51.9885
51.6698
54.0572
53.4559
52.8543
53.3996
52.8267
52.6746
53.1562
52.5346
52.5348
52.3581
52.3627
52.3336
52.2755
52.2615
52.1299
54.2277
53.5721
53.9714
54.5141
54.2529
53.4373
53.2702
53.7147
53.4387
52.2116
52.2239
52.0025
52.4257
52.0457
52.2267
51.8431
52.037
52.0731
51.8958
52.0405
52.0394
52.0828
52.0239
52.0929
53.4865
53.1144
52.9446
52.7862
52.3582
52.413
52.0977
52.0336
52.0826
51.9312
52.0674
51.9519
52.0386
52.0783
52.0348
52.0709
52.0175
52.078
52.0338
52.0732
52.3318
52.4022
51.8394
51.8965
51.9507
52.0882
51.9505
52.0631
51.9012
52.0838
51.8563
52.0748
52.084
52.0626
52.0747
52.0696
52.0812
52.0758
52.0872
52.3124
51.9719
51.7743
52.3279
52.0512
51.9877
51.753
52.0169
51.9053
51.9952
51.7906
51.9094
51.6308
51.8518
51.7542
51.7632
52.0496
51.6456
52.0504
52.0771
52.0726
52.0882
52.1667
51.9895
51.9835
52.0522
51.9491
51.8828
51.8812
51.6935
51.8329
51.6988
51.7217
51.7568
51.7689
52.605
51.9181
52.1146
52.4438
52.1973
51.6113
51.7667
51.7427
52.2688
52.1594
51.605
51.6751
51.285
51.9946
51.1555
52.6033
51.7979
52.3525
52.3723
52.2105
51.9056
51.7073
51.7799
51.7372
51.6811
52.2409
51.6319
51.1699
51.0681
51.4464
51.2511
51.8476
51.5997
52.0548
51.5833
51.7163
51.0456
50.8935
50.9288
52.1139
51.8624
52.0774
51.5724
51.9177
51.6708
51.9787
52.1001
52.0527
52.0921
52.0139
52.1022
52.0837
52.0875
51.455
51.5705
50.9653
51.0354
51.2621
52.0962
51.7392
52.1299
51.65
51.934
51.5156
51.9411
52.0943
52.1
52.101
52.0822
52.0985
52.1016
52.1073
51.6394
51.3824
51.6085
51.7279
51.7364
51.4608
51.4763
51.5414
51.5834
51.6697
51.6401
51.6323
51.4352
51.547
51.5437
51.5427
51.4308
51.8175
51.66
51.7403
51.7329
51.6515
51.6016
51.5991
51.6338
51.6775
51.5821
51.5177
51.5631
51.5628
51.3932
50.7486
50.9695
51.1457
50.9275
50.7802
50.7709
50.7622
50.7244
50.7316
50.823
50.8405
50.8914
50.7996
50.944
51.0521
50.7033
51.2751
51.3368
51.2325
50.6838
50.6517
50.665
50.592
51.0169
50.6913
51.0333
51.014
51.0732
50.9236
51.0658
51.3154
51.1928
50.6813
50.731
50.7025
50.7178
50.7585
50.7531
51.4974
51.955
51.131
51.2674
50.8237
50.859
51.0831
50.8832
50.8635
51.0318
51.8195
51.2102
51.2843
50.7297
51.1681
51.25
51.1624
51.3788
51.4185
51.4624
51.2292
51.292
51.3146
51.3671
51.4436
51.446
51.4681
51.2529
51.3701
51.3734
51.3977
51.2976
51.5298
51.4255
51.5022
51.4982
51.4596
51.4356
51.4374
51.4267
51.4652
51.4089
51.3634
51.4004
51.3858
50.7694
50.7907
50.8124
50.7888
50.8066
50.8208
50.8019
50.8107
50.8142
50.8543
50.8421
50.8311
50.9065
50.9193
50.9615
50.7202
50.7592
50.7473
50.7037
50.6985
50.7818
50.7808
50.7614
50.7402
51.0541
50.9905
51.0645
50.9994
51.0465
50.988
51.0599
51.135
51.1046
50.7406
50.7793
50.7645
50.7686
50.7986
50.776
51.1498
51.0924
51.12
51.143
51.203
50.8775
51.0219
50.9171
50.8874
51.0119
51.0548
51.172
51.191
51.1922
51.1754
51.1104
51.0929
51.2303
51.2381
51.2906
51.1296
51.1963
51.1948
51.2299
51.311
51.3115
51.3295
51.1681
51.2646
51.2513
51.2716
51.2381
51.3396
51.2722
51.3775
51.3847
51.3111
51.3184
51.3316
51.329
51.3568
51.3215
51.3029
51.3211
51.2749
50.7994
50.8142
50.8364
50.8135
50.8268
50.8596
50.828
50.8535
50.8573
50.9298
50.9016
50.8935
50.9523
50.9792
50.99
50.7805
50.8066
50.7825
50.7756
50.7456
50.8205
50.7989
50.7999
50.7623
51.0445
50.9883
51.0522
51.0108
51.0394
50.9998
51.0401
51.0868
51.072
50.7933
50.8062
50.786
50.8144
50.8127
50.7977
51.1285
51.1806
51.0916
51.1076
51.1549
50.8998
51.0019
50.9489
50.9097
50.9947
51.1635
51.1615
51.1394
51.1331
51.1411
51.0833
51.0667
51.1611
51.1629
51.1791
51.0727
51.1172
51.1273
51.1334
51.2238
51.1929
51.2193
51.1542
51.1838
51.142
51.1708
51.1735
51.2217
51.1806
51.2651
51.2796
51.2072
51.219
51.2331
51.2732
51.2816
51.2381
51.2316
51.2391
51.187
50.8153
50.8243
50.8816
50.8373
50.8766
50.8937
50.8459
50.887
50.9444
50.9894
50.9657
50.9726
51.0049
51.0017
51.0039
50.8278
50.8477
50.8062
50.8202
50.7793
50.8473
50.8139
50.8379
50.7996
51.0363
51.0067
51.0289
51.0102
51.0351
51.0064
51.025
51.0557
51.0433
50.834
50.8236
50.8106
50.8568
50.8382
50.826
51.0898
51.1394
51.066
51.0714
51.1217
50.9115
50.9884
50.9598
50.9106
50.9782
51.1105
51.1149
51.086
51.0912
51.0886
51.0481
51.0286
51.0773
51.0916
51.0943
51.0176
51.0454
51.0618
51.0586
51.148
51.0978
51.1314
51.145
51.1146
51.074
51.1001
51.1127
51.1423
51.1044
51.174
51.1871
51.128
51.1316
51.142
51.1864
51.1943
51.1472
51.1461
51.1512
51.1256
50.8354
50.8486
50.8977
50.8535
50.8892
50.8982
50.8599
50.8886
50.9778
50.9973
50.9652
50.971
50.9822
51.0024
51.0011
50.8681
50.8877
50.827
50.8549
50.8208
50.865
50.8468
50.8699
50.8372
51.034
50.9911
51.0232
51.0161
51.0351
50.9829
51.0213
51.0339
51.0244
50.8843
50.8563
50.8484
50.9136
50.8795
50.8774
51.0543
51.0996
51.0439
51.0393
51.0773
50.923
50.9707
50.9841
50.945
50.9706
51.0718
51.0646
51.0465
51.0507
51.0414
51.0112
50.999
51.0209
51.0374
51.0277
50.9875
51.0028
51.0149
51.0015
51.0779
51.0567
51.0701
51.1028
51.0434
51.0357
51.0418
51.0548
51.0703
51.0434
51.095
51.1022
51.0681
51.0681
51.0732
51.1093
51.1116
51.0748
51.0737
51.0742
51.0656
50.8621
50.8678
50.8957
50.8624
50.8871
50.8924
50.8628
50.8843
50.9593
50.9642
50.9407
50.9423
50.9447
50.9987
50.9847
50.9027
50.91
50.8695
50.8831
50.8498
50.8838
50.8799
50.8906
50.8561
51.0361
50.9728
51.0148
51.0217
51.0296
50.9711
51.0083
51.0154
51.0012
50.9399
50.9083
50.9085
50.9566
50.9332
50.9327
51.0207
51.057
51.0066
51.0019
51.0369
50.9613
50.9687
51.0154
50.969
50.9607
51.0264
51.0152
50.9947
50.9979
50.9866
50.9905
50.9818
50.9881
50.9972
50.9791
50.9765
50.9735
50.9847
50.9609
51.0079
51.008
51.0118
51.0017
50.97
50.978
50.978
50.9888
51.0208
51.0006
51.0469
51.0527
51.0244
51.0265
51.0322
51.0385
51.0391
51.0166
51.0055
51.0129
50.9939
50.8634
50.8554
50.8848
50.8612
50.8774
50.8712
50.8565
50.8661
50.9195
50.9182
50.8872
50.8854
50.8819
50.9579
50.9123
50.9098
50.9091
50.8727
50.8886
50.8576
50.8667
50.8558
50.8883
50.8578
51.011
50.9541
50.9844
50.9503
50.9634
50.9157
50.9355
50.9746
50.9345
50.9573
50.9394
50.9387
50.9435
50.9305
50.9306
50.9797
51.0173
50.9548
50.9435
50.9857
50.9621
50.9484
50.9744
50.939
50.9272
50.9641
50.9545
50.9203
50.928
50.9219
50.9699
50.9497
50.9547
50.9723
50.9445
50.9506
50.9325
50.9543
50.9277
50.9283
50.9391
50.9393
50.9119
50.8877
50.8966
50.897
50.9133
50.9819
50.9635
51.008
51.0149
50.9845
50.9914
51.0006
50.9757
50.9834
50.9639
50.9474
50.9634
50.9197
50.8511
50.8458
50.8499
50.8503
50.8491
50.8201
50.8368
50.8244
50.8406
50.8315
50.7918
50.7808
50.765
50.8499
50.7712
50.9031
50.884
50.8479
50.8903
50.8722
50.8792
50.8564
50.8949
50.8837
50.8915
50.8661
50.8717
50.7814
50.8104
50.812
50.8092
50.8827
50.8275
50.9196
50.9086
50.9071
50.8902
50.8714
50.8697
50.8988
50.9395
50.8614
50.8488
50.8861
50.9124
50.8999
50.9035
50.8794
50.8732
50.8867
50.8874
50.833
50.8424
50.8533
50.9223
50.8948
50.9055
50.9296
50.9056
50.8987
50.8794
50.902
50.8793
50.8434
50.8455
50.8536
50.8153
50.7996
50.8003
50.811
50.8274
50.9423
50.9176
50.9717
50.9823
50.9373
50.9453
50.9582
50.9205
50.9385
50.9053
50.892
50.909
50.8425
50.8324
50.8082
50.7807
50.816
50.7901
50.7348
50.7866
50.7478
50.7116
50.6958
50.649
50.629
50.6298
50.6985
50.6444
50.8663
50.8404
50.8502
50.9091
50.8729
50.8619
50.8261
50.8923
50.8503
50.7365
50.7557
50.7544
50.6398
50.6845
50.7058
50.7149
50.7794
50.7383
50.8612
50.8362
50.8356
50.8376
50.8067
50.8027
50.7996
50.8268
50.7701
50.7558
50.7782
50.8385
50.8396
50.8304
50.8059
50.8086
50.7977
50.8204
50.7455
50.757
50.7805
50.8656
50.8374
50.8553
50.8746
50.8519
50.8436
50.8322
50.8484
50.826
50.7581
50.7626
50.7723
50.7287
50.7232
50.7314
50.7405
50.75
50.8913
50.8669
50.9145
50.9278
50.8836
50.884
50.8987
50.862
50.8758
50.8358
50.8325
50.8429
50.7807
50.7796
50.7492
50.6886
50.7534
50.7035
50.6438
50.7183
50.6546
50.5649
50.5903
50.5278
50.5133
50.572
50.6194
50.6151
50.8127
50.8081
50.7981
50.8365
50.8216
50.7864
50.7708
50.7775
50.7866
50.655
50.6724
50.6948
50.6138
50.6443
50.655
50.6869
50.7048
50.7093
50.8197
50.7737
50.7681
50.8109
50.7545
50.754
50.7185
50.7308
50.7233
50.6955
50.702
50.7846
50.7912
50.7867
50.7667
50.7768
50.7205
50.7404
50.6822
50.6914
50.7161
50.8143
50.7958
50.8109
50.8235
50.8043
50.7973
50.793
50.8035
50.7871
50.703
50.7102
50.7212
50.6918
50.692
50.6973
50.7106
50.7042
50.8457
50.8278
50.859
50.8748
50.8475
50.8432
50.8601
50.8059
50.8141
50.7813
50.7859
50.7923
50.7459
50.7201
50.6946
50.6037
50.6864
50.6104
50.5717
50.6567
50.5736
50.4924
50.5722
50.5125
50.4934
50.5852
50.6243
50.6468
50.8515
50.8729
50.7459
50.7697
50.7518
50.7591
50.7213
50.7915
50.7181
50.6478
50.6421
50.6836
50.6384
50.6633
50.6339
50.6761
50.7145
50.7
50.8161
50.7524
50.7548
50.8207
50.7502
50.7566
50.679
50.6826
50.6918
50.6671
50.668
50.7547
50.7639
50.7688
50.7547
50.7579
50.6709
50.694
50.6438
50.6559
50.6777
50.7809
50.7678
50.7758
50.7877
50.7718
50.7663
50.7595
50.7724
50.755
50.6889
50.6909
50.7048
50.6899
50.6873
50.6895
50.701
50.6916
50.8103
50.7918
50.8283
50.8475
50.8131
50.8101
50.8325
50.7718
50.7759
50.7504
50.763
50.7613
50.7358
50.6736
50.656
50.5566
50.6344