/*--------------------------------*- C++ -*----------------------------------*\
| =========                 |                                                 |
| \\      /  F ield         | OpenFOAM: The Open Source CFD Toolbox           |
|  \\    /   O peration     | Version:  5.x                                   |
|   \\  /    A nd           | Web:      www.OpenFOAM.org                      |
|    \\/     M anipulation  |                                                 |
\*---------------------------------------------------------------------------*/
FoamFile
{
    version     2.0;
    format      ascii;
    class       surfaceScalarField;
    location    "9";
    object      phi;
}
// * * * * * * * * * * * * * * * * * * * * * * * * * * * * * * * * * * * * * //

dimensions      [0 3 -1 0 0 0 0];

internalField   nonuniform List<scalar> 
29271
(
-9.13113e-06
1.98465e-06
8.2187e-07
6.38133e-06
-9.51941e-06
8.07098e-07
2.43243e-06
6.59087e-06
-5.76083e-05
-7.2081e-06
-7.02295e-06
-5.73162e-06
5.37864e-06
7.21923e-05
-3.82063e-05
-9.51762e-06
2.43959e-06
-7.22962e-06
1.40631e-05
3.84509e-05
-2.30801e-05
-1.89645e-06
3.83533e-07
6.37538e-06
1.33402e-05
4.87743e-06
-3.99227e-05
-3.54305e-06
-4.30743e-07
3.854e-06
8.53933e-06
3.15032e-05
-3.1771e-05
-7.98654e-06
-7.3249e-06
1.2051e-05
7.01588e-06
2.80156e-05
-8.16452e-05
-1.98301e-05
-3.42158e-06
-1.3012e-05
1.77526e-05
0.000100156
-4.61715e-05
-1.13329e-05
1.27579e-05
-6.32702e-06
2.55275e-05
2.5546e-05
-2.65125e-05
-5.82812e-06
8.27598e-06
1.86312e-05
5.62212e-06
-7.03796e-06
1.67723e-06
1.52454e-06
3.9697e-06
-3.36811e-05
-6.85937e-06
5.81564e-07
1.87838e-05
-7.27581e-07
2.19026e-05
-7.15511e-05
-2.24369e-05
-1.80606e-05
2.53132e-07
1.64427e-05
9.53528e-05
-2.115e-05
-7.61968e-06
4.90792e-06
-4.86051e-06
1.65115e-05
1.22108e-05
-6.00751e-05
-1.74567e-05
1.31475e-05
-3.20825e-05
7.8216e-06
8.86452e-05
-4.40203e-05
-4.27393e-06
-2.43696e-06
2.19849e-06
2.02091e-05
2.83236e-05
-4.18697e-05
-8.35832e-06
2.1375e-05
3.53762e-06
2.94836e-05
-4.16819e-06
-5.666e-05
-2.76024e-05
-1.31736e-05
1.89994e-05
1.58069e-05
6.26297e-05
-7.45818e-05
-2.47955e-05
-9.99896e-06
-3.04577e-06
1.35625e-05
9.88595e-05
-3.64282e-05
-1.40807e-05
2.87022e-05
3.2422e-05
-2.14526e-05
1.08374e-05
-9.26905e-06
-2.00185e-06
6.13073e-06
5.16282e-06
-3.05189e-05
-3.93087e-06
3.39943e-06
3.35305e-05
-2.27275e-06
-4.33234e-05
-9.01899e-07
1.63576e-07
-1.97953e-06
4.78784e-05
-1.83709e-06
-2.32439e-05
-1.93184e-05
6.58551e-06
3.59904e-05
-3.16954e-06
4.88889e-07
7.507e-07
2.03833e-06
-5.2156e-06
-2.73316e-06
4.75347e-06
3.41766e-06
-6.92962e-06
8.64294e-06
-7.79049e-05
-1.50338e-06
1.07864e-06
7.66164e-05
-5.89466e-06
-3.9509e-05
1.9673e-06
-3.59374e-07
9.59421e-06
3.42015e-05
-7.79539e-06
-1.87546e-06
-1.07193e-07
5.93695e-06
3.88572e-06
-4.46265e-08
-3.08416e-06
-1.13852e-06
-2.93474e-05
-5.56809e-06
-3.78192e-06
4.29201e-05
-7.79615e-06
1.67555e-05
0.000163411
-3.18137e-05
-0.000107515
-1.59962e-05
-2.75447e-05
-5.42347e-06
-4.4454e-06
-4.50209e-07
2.66002e-06
3.03355e-06
3.47539e-06
5.35662e-06
6.29313e-06
6.60051e-06
2.88626e-05
0.000238637
-9.68633e-05
-4.53659e-05
-7.66234e-05
-5.59644e-05
-5.89247e-06
-5.5281e-06
3.26099e-06
1.08084e-06
-1.95678e-06
-5.28096e-06
0.000227428
-8.37893e-07
-1.94251e-07
4.3087e-06
9.94859e-07
-1.45762e-06
-4.5614e-07
-2.36657e-07
-2.4589e-05
-2.5101e-05
-8.58795e-05
-8.01415e-05
-1.47479e-05
5.54216e-07
-8.57665e-07
1.33204e-05
-1.58061e-06
9.02267e-07
4.89297e-07
2.15132e-07
-1.85345e-06
-2.26282e-05
6.49158e-07
-5.01643e-06
1.5239e-06
2.7325e-05
-2.87122e-06
4.86151e-05
0.000211508
-9.45405e-05
-2.98528e-05
-5.47186e-05
-7.24217e-05
1.8146e-06
3.87289e-07
6.48425e-06
2.35126e-06
-1.85572e-05
7.14231e-05
9.25582e-05
-1.41974e-05
-4.22048e-05
-3.41806e-05
-2.885e-05
6.80874e-07
1.32424e-05
0.000120105
9.65618e-07
2.76048e-06
3.21809e-06
6.80042e-06
1.31766e-05
1.65119e-05
-9.76717e-05
-6.47425e-05
-2.31556e-05
-1.573e-05
-1.19996e-05
-4.44711e-07
-5.53532e-07
1.6245e-06
1.20542e-05
-2.88656e-05
-1.96238e-06
-5.21214e-07
3.9571e-06
2.87115e-05
-1.31942e-06
8.95683e-06
4.04625e-06
0.000324764
-5.32723e-06
-2.55572e-06
-1.58114e-06
5.05601e-06
7.14292e-06
4.07565e-06
6.30705e-06
-5.73139e-05
-6.86781e-05
-7.12712e-05
-0.000105006
-6.65904e-06
9.3287e-06
0.00045432
-1.21676e-05
-2.17013e-06
-5.81129e-06
1.19353e-05
1.01775e-05
9.98168e-06
-0.000102445
-8.75542e-05
-9.2278e-05
-0.000106278
-2.56179e-05
-1.57729e-06
1.45e-05
1.92785e-05
-4.15038e-06
-2.6026e-06
2.53232e-06
4.24412e-06
-3.95264e-05
5.86006e-06
3.29556e-08
3.76588e-05
-7.60894e-05
1.60338e-06
-1.7094e-05
4.08065e-06
9.68281e-05
-3.6123e-05
-1.03903e-05
1.42367e-05
3.22686e-05
-7.14173e-07
1.16685e-06
-1.93539e-08
-3.42059e-07
-2.68462e-06
-4.71063e-07
3.11498e-07
2.84167e-06
-7.0586e-06
8.29166e-06
-7.80002e-05
-1.36516e-05
4.9226e-06
8.54961e-05
1.0923e-06
-3.63101e-05
1.87112e-05
-3.65801e-06
-7.67786e-06
2.78425e-05
-1.81503e-06
-9.04523e-07
-7.81882e-07
3.71974e-06
-6.16827e-07
3.98518e-07
5.38984e-06
-1.30073e-05
-6.43076e-05
9.839e-06
-1.26749e-05
7.47609e-05
-1.47025e-05
2.08233e-05
0.000166126
-2.032e-06
-1.4912e-06
-5.4193e-06
-3.16171e-06
1.70281e-06
-1.18931e-06
1.96671e-06
7.8756e-07
-6.96267e-07
3.13488e-05
0.0002034
-2.94162e-06
-2.9254e-06
-3.12095e-06
-1.13011e-06
-2.23789e-06
1.61875e-05
0.000236841
-8.09585e-06
-4.7386e-06
-6.11726e-06
-3.26055e-06
-9.58617e-07
-1.18353e-06
2.95254e-07
-1.12235e-05
-5.91063e-07
2.9306e-06
6.70294e-06
-4.08409e-08
-1.75048e-06
2.19136e-06
-3.91573e-07
-2.66603e-06
-3.48361e-05
-1.0732e-05
-1.17498e-06
1.03279e-05
3.90812e-05
3.1415e-06
2.83755e-06
0.000226645
1.10978e-06
-1.12773e-06
1.22129e-06
-1.49661e-06
-4.52501e-06
3.70665e-05
9.45069e-05
-9.86496e-07
4.72118e-06
0.000116688
-1.02265e-06
-1.44789e-06
-1.73245e-06
6.55559e-06
5.20119e-06
3.79176e-06
-1.43941e-05
-2.59029e-06
-2.92283e-07
4.84733e-06
1.14428e-05
-3.12841e-05
1.40203e-07
2.5083e-06
-4.12951e-06
3.49173e-05
-2.15218e-06
-3.91604e-06
-4.35942e-06
0.000344008
-2.04602e-06
4.13729e-06
1.003e-06
2.65271e-06
-3.15211e-06
-4.09755e-06
-6.62794e-06
-1.29614e-06
4.90087e-06
0.000477187
-3.90959e-06
1.21226e-06
-1.53258e-06
3.40502e-06
3.70789e-06
3.79613e-06
-1.98298e-05
-2.09615e-06
2.32428e-06
2.30267e-05
-6.48552e-06
-5.83326e-06
4.79069e-06
7.54917e-06
-3.56258e-05
9.96266e-06
-7.64618e-06
2.89268e-05
-0.000111392
5.99558e-06
-9.91997e-06
2.46188e-06
0.000117755
-2.85602e-05
3.40646e-06
1.89012e-06
2.32653e-05
6.36467e-07
1.65539e-07
-5.93625e-08
-7.76543e-07
-5.41778e-06
-4.85345e-06
2.1441e-06
8.12496e-06
-4.57451e-06
1.24784e-05
-8.80003e-05
-1.66143e-05
1.13199e-05
8.53907e-05
5.76687e-07
-1.31258e-05
6.12469e-06
1.72576e-06
1.07536e-06
3.6233e-06
8.06912e-07
3.18114e-07
-1.62451e-07
-2.02414e-07
-7.44046e-07
-1.61143e-08
1.57252e-06
-9.59072e-06
-7.59161e-05
1.00995e-05
2.7124e-06
7.11223e-05
5.08338e-08
2.77002e-05
0.000173013
-8.79355e-06
-4.53508e-06
-9.2283e-06
-3.88355e-06
-5.03323e-06
1.6069e-06
-7.14332e-06
2.37228e-06
-5.72359e-06
2.21628e-05
0.000205557
-3.75634e-06
-5.75206e-06
-4.1057e-06
-4.93142e-06
-1.08179e-06
3.31868e-05
0.000223027
-9.55901e-06
-3.46006e-06
-4.69873e-06
-3.34599e-06
-1.27625e-06
-6.91636e-07
-9.82543e-07
-3.45902e-06
-9.99545e-07
2.20581e-06
1.18438e-06
9.68925e-07
-1.5938e-07
4.30218e-07
-1.22006e-06
-1.9665e-06
-3.94033e-05
-4.21893e-06
1.16265e-06
4.24378e-06
4.01822e-05
2.17976e-05
-9.39978e-06
0.000259259
-3.6846e-06
-7.62763e-06
-7.62003e-07
-5.23724e-06
-1.27185e-05
1.25227e-05
0.000138663
-5.85898e-06
-3.67892e-06
0.000179435
-5.62554e-06
-5.76378e-06
-5.05324e-06
-1.07725e-06
-5.96791e-06
-9.25367e-06
-7.80522e-06
-2.22452e-06
-3.40699e-06
3.58572e-06
3.99203e-06
-3.93298e-05
2.8855e-06
-1.5681e-06
-5.12935e-06
4.17531e-05
1.3887e-06
-3.6801e-06
-4.71058e-06
0.000350025
8.56294e-07
3.47354e-06
4.41496e-06
3.58818e-06
-7.98164e-06
-3.91281e-06
-7.46482e-06
-1.75708e-06
-1.15635e-06
0.000487011
-1.30796e-06
4.07295e-06
8.30372e-07
-9.53672e-07
-1.02134e-06
3.11401e-07
-3.79376e-05
-8.26457e-06
-9.17531e-06
4.99415e-05
-4.70986e-06
-1.13285e-06
4.61955e-06
1.24307e-06
-2.55658e-05
5.29794e-06
-8.08889e-06
2.36158e-05
-0.000121038
6.78467e-06
-3.0701e-06
-3.13243e-06
0.0001193
-1.99774e-05
6.82539e-06
-3.50069e-06
1.66564e-05
9.95376e-07
-1.67181e-07
3.91346e-07
-1.22872e-06
-9.11709e-06
-2.54887e-06
3.25355e-06
8.41187e-06
-6.2116e-06
7.56322e-06
-8.16553e-05
-4.65408e-06
9.45516e-06
7.55026e-05
-1.09403e-06
-2.29436e-06
-1.52032e-06
-7.3386e-07
3.66251e-07
5.27632e-06
5.14323e-08
-6.23031e-07
-3.09048e-07
-2.50175e-06
1.69396e-06
1.68843e-06
-2.95537e-06
-8.01219e-07
-6.23987e-05
4.45235e-06
8.95214e-06
5.27508e-05
5.37553e-06
9.15747e-06
0.000187812
-9.23153e-06
-2.71255e-06
-6.73821e-06
7.25034e-07
-6.86765e-06
-1.18523e-06
-4.01738e-06
6.95843e-07
-6.49261e-06
1.10802e-05
0.000212555
-3.10691e-06
-3.32667e-06
1.46424e-07
7.73778e-08
1.04054e-06
1.59589e-05
0.000197562
-1.49931e-06
-1.26941e-06
3.57471e-07
-4.19809e-07
3.28541e-07
2.70318e-06
1.77235e-06
-2.13952e-08
-5.76607e-07
1.22629e-06
4.01761e-07
1.23633e-06
-3.08003e-08
-3.46967e-08
-1.14454e-06
1.48447e-06
-4.4846e-05
-4.76968e-06
-8.42951e-07
-4.38606e-07
4.94127e-05
2.09972e-05
-1.42415e-05
0.000281805
-5.058e-06
-7.99643e-06
-2.39081e-06
-4.69877e-06
-2.29039e-05
5.91338e-07
0.000193053
-1.11538e-06
-7.2411e-06
0.000187657
7.79519e-07
2.18211e-06
3.04756e-06
-6.76975e-06
-2.35491e-06
-3.69534e-06
-2.77414e-06
-1.43533e-06
-3.78577e-06
-4.62406e-07
7.34227e-06
-4.39438e-05
1.72801e-06
-2.93059e-06
-3.72989e-06
4.48402e-05
4.03607e-06
-2.81853e-06
-2.53617e-06
0.000336728
3.27062e-06
3.87574e-06
6.17966e-06
4.26875e-06
-6.91392e-06
-1.62695e-06
-4.64398e-06
1.18437e-06
-3.32466e-06
0.000486944
5.58316e-07
4.64696e-06
1.09848e-06
-2.22011e-06
-2.26448e-06
-1.83876e-06
-6.06588e-05
9.36106e-07
-1.19842e-05
6.56501e-05
4.71354e-07
2.45555e-06
-2.38485e-06
-5.27444e-07
-2.20104e-05
3.74329e-06
-6.55088e-06
2.2248e-05
-0.000116665
5.77085e-06
-2.97683e-06
9.1482e-07
0.000109632
-1.24979e-05
5.79185e-06
-2.08701e-06
8.79912e-06
1.37705e-06
1.54076e-08
-9.42901e-09
-1.43128e-06
-6.95205e-06
-9.46493e-07
2.50096e-06
5.39956e-06
-1.66923e-06
1.33785e-06
-6.62892e-05
4.30359e-06
7.75749e-06
5.45595e-05
1.65125e-07
-9.90433e-06
-3.23067e-06
6.3188e-07
-1.58059e-06
1.39186e-05
-3.01903e-06
-1.07726e-06
3.12254e-07
1.6983e-06
2.05836e-06
2.7381e-08
-4.70227e-06
-1.45626e-06
-4.48152e-05
4.49439e-06
6.5884e-06
3.9891e-05
3.44381e-06
2.58074e-06
0.000203596
-5.93706e-06
4.17208e-07
-5.60657e-06
1.71809e-06
-3.75947e-06
-2.32741e-06
-4.48093e-06
-1.83302e-06
6.96362e-07
-1.76943e-06
0.000216158
-8.26171e-07
-6.17119e-07
1.06875e-06
1.28753e-06
2.40622e-06
5.81156e-08
0.000175002
1.16985e-06
7.52976e-07
2.64624e-06
8.96044e-07
2.54371e-06
4.13061e-06
8.65217e-06
-1.27718e-06
-4.29974e-07
4.08184e-07
1.92556e-06
1.77963e-06
-4.00574e-08
1.08129e-09
2.1797e-08
1.40793e-08
1.02233e-06
-5.408e-08
-1.09448e-07
-8.78551e-07
1.99873e-06
-5.44727e-05
-3.58229e-06
-1.4384e-09
-2.27e-06
5.83277e-05
2.32779e-05
-1.07365e-05
0.000292735
-5.13929e-06
-7.38693e-06
-3.55982e-06
-4.80506e-06
-2.69713e-06
-1.05053e-05
0.000227764
4.14601e-06
-6.34812e-06
0.000172921
4.2925e-06
7.06661e-06
4.74114e-06
-7.59294e-07
-1.67403e-06
6.32814e-07
-1.40919e-05
4.60981e-07
2.68438e-06
-1.68912e-06
1.67817e-05
-2.74759e-09
-3.51783e-08
2.05876e-09
-2.03368e-09
3.29372e-08
-4.53484e-05
4.65209e-06
-7.87355e-06
-3.11376e-08
4.53539e-05
3.24702e-06
-5.5926e-06
-1.34134e-07
0.000309914
4.62912e-06
3.67537e-06
5.92817e-06
5.14966e-06
-2.381e-06
3.73385e-06
1.06966e-06
4.18599e-07
-1.63923e-06
0.000463341
1.37364e-06
2.79354e-06
1.71473e-06
-7.7067e-08
9.3513e-07
1.98593e-06
-7.04347e-05
3.84616e-06
-5.60388e-06
6.62629e-05
-1.54119e-06
2.97192e-06
-5.32602e-06
3.8401e-06
-2.52655e-05
2.20815e-06
-7.09288e-06
2.99527e-05
-0.000103623
5.0037e-06
-2.0451e-06
1.79413e-06
9.72313e-05
-6.7699e-06
-4.68905e-07
1.1118e-06
6.1212e-06
1.42871e-06
8.26474e-08
2.3577e-07
-1.75606e-06
-3.95456e-06
3.83019e-07
1.3055e-06
2.26715e-06
-2.28377e-07
-4.00825e-06
-4.46049e-05
6.75904e-06
4.74883e-06
3.73336e-05
4.39088e-08
-1.74773e-05
-5.09237e-06
3.13679e-06
-8.01778e-07
2.01907e-05
-2.07221e-06
-2.86587e-07
1.62424e-06
1.37318e-06
1.03577e-06
-1.67439e-06
-5.19008e-06
-1.43207e-06
-3.71668e-05
4.08068e-06
4.31089e-06
3.53973e-05
1.45364e-05
3.09512e-06
0.000216262
-5.51278e-06
1.02037e-06
-4.4422e-06
2.13793e-06
-6.35711e-06
-5.73795e-06
-6.51411e-06
-4.89136e-06
1.45566e-05
-4.14157e-06
0.000216116
-9.27463e-08
3.32581e-07
1.77903e-06
2.14516e-06
2.97152e-06
3.62956e-06
0.000173907
-8.04542e-07
-1.93886e-06
-1.17197e-06
-2.09372e-06
6.70478e-06
3.06143e-06
5.29413e-06
-4.2815e-06
-2.59758e-06
2.40428e-06
1.56348e-06
5.88285e-06
-1.07865e-07
-2.1391e-06
-2.46583e-06
6.59995e-07
2.28199e-06
1.77081e-06
8.52956e-07
-2.91075e-07
-1.6439e-08
-6.34351e-07
4.11204e-06
-6.07688e-05
-2.09715e-06
-8.51239e-07
7.3478e-07
5.88703e-05
2.79067e-05
4.68052e-06
0.000277494
-6.15401e-06
-4.08213e-06
-3.00972e-06
-1.00528e-06
1.8629e-05
-4.40128e-06
0.000237301
5.90917e-06
-1.91433e-06
0.000178308
4.23354e-06
4.1847e-06
1.66691e-06
1.53893e-06
5.98188e-07
6.54111e-07
-1.98842e-05
-6.00021e-07
4.86508e-06
8.32878e-08
2.14451e-05
-8.38159e-07
-2.04674e-06
-2.19588e-06
-2.19541e-07
2.06972e-06
3.23059e-06
-4.53536e-05
2.19747e-06
-5.75368e-06
2.88079e-06
4.81769e-05
-2.14785e-06
-6.58267e-06
4.35522e-06
0.000286292
4.27828e-06
4.08774e-06
5.88197e-06
4.96094e-06
2.70449e-06
4.91721e-06
3.69937e-06
2.73875e-06
2.33288e-06
0.000420425
3.70081e-06
5.56187e-06
4.20541e-06
3.80314e-06
3.99871e-06
5.58983e-06
-6.5182e-05
2.5978e-06
-4.56406e-07
6.3865e-05
-4.51183e-06
-1.76641e-06
1.62573e-06
-1.94184e-06
6.59176e-06
-1.46133e-06
1.33533e-06
-7.62607e-07
8.88602e-07
-3.60787e-05
1.02388e-06
-2.69684e-06
4.2105e-05
-8.99203e-05
4.32563e-06
-9.4142e-07
5.06169e-06
8.38073e-05
-8.58519e-06
-1.15154e-06
-2.54679e-06
1.22819e-05
1.65315e-06
-1.29691e-08
2.2822e-08
-1.64373e-06
-9.89708e-07
8.18877e-07
-4.15126e-07
5.83482e-07
8.78309e-07
-5.98919e-06
-3.30647e-05
7.59507e-06
1.02347e-06
2.95571e-05
3.57208e-07
-2.2646e-05
-7.23771e-06
5.88932e-06
-1.27035e-06
2.49076e-05
-4.13538e-07
-9.62022e-10
2.39153e-06
2.04792e-06
4.62796e-07
-4.48774e-06
-3.71186e-06
1.4978e-06
-3.25333e-05
1.8406e-06
5.38516e-06
2.75216e-05
1.54075e-05
1.47866e-05
0.000210216
-4.4149e-06
-5.61933e-07
-2.39781e-06
2.08858e-07
-5.9579e-06
-5.12183e-06
-3.57937e-06
-2.32305e-06
2.07876e-05
4.89911e-07
0.000206303
1.62034e-07
6.55808e-07
1.36681e-06
1.75831e-06
5.5286e-06
5.19986e-06
0.000171703
-2.81206e-06
-1.86055e-06
-1.0587e-06
-1.07715e-06
6.04373e-06
5.78449e-06
7.24297e-06
-9.08516e-06
-1.22281e-06
2.08005e-06
1.32401e-06
1.24325e-05
-1.96828e-06
-3.5247e-07
3.10212e-07
-9.95198e-07
1.90018e-06
1.10555e-06
3.89924e-07
-7.99948e-07
6.58766e-07
-2.60658e-07
3.10971e-06
-5.6681e-05
-5.03737e-06
-1.74667e-06
3.7863e-06
5.6569e-05
2.07998e-05
1.39278e-05
0.000266992
-4.01781e-06
-2.50889e-06
-1.95483e-06
-9.56962e-07
1.83968e-05
4.04242e-06
0.000236152
4.76868e-06
-1.36874e-06
0.000188722
2.35062e-06
4.39597e-06
1.49266e-06
2.33935e-07
8.45499e-07
4.64266e-07
-2.21071e-05
-7.68405e-07
3.25766e-06
4.8616e-07
2.39004e-05
-4.85429e-06
-2.00429e-06
-1.92455e-06
6.56754e-07
2.39043e-06
5.73596e-06
-5.25524e-05
-4.98423e-07
-2.77989e-06
1.81126e-06
5.71183e-05
-3.09887e-06
-5.43091e-06
3.74454e-06
0.000286162
2.36958e-06
2.34229e-06
2.50463e-06
1.68588e-06
1.90316e-06
3.05157e-06
1.88682e-06
1.24694e-06
2.6305e-06
0.000397247
1.9336e-06
2.64563e-06
1.69689e-06
4.59659e-06
2.59384e-06
4.44529e-06
-6.78352e-05
8.82488e-07
-1.82075e-07
6.7013e-05
-7.61302e-06
-6.42651e-07
2.15115e-06
-2.52116e-06
8.62568e-06
-1.81028e-06
-1.77143e-06
1.02291e-06
5.14436e-07
2.04436e-06
-4.6662e-05
8.30102e-07
-4.10307e-07
4.99867e-05
-8.4587e-05
1.62529e-06
-1.55229e-06
1.12332e-06
8.60212e-05
-1.43801e-05
-8.85861e-07
-9.99844e-07
1.62619e-05
1.43267e-06
4.47455e-08
-3.76334e-07
-1.11969e-06
-7.06903e-08
-4.61328e-07
5.74422e-07
-2.37464e-07
3.32126e-07
-2.51878e-06
-2.67226e-05
5.40414e-06
7.25091e-07
2.27801e-05
2.59567e-06
-2.51167e-05
-5.65067e-06
7.02844e-06
-1.48291e-06
2.26262e-05
-3.19162e-06
4.048e-07
3.34394e-06
6.56609e-07
5.17124e-06
-6.38497e-06
-3.83186e-06
2.97776e-07
-2.43142e-05
1.12055e-06
5.83343e-06
2.08943e-05
8.53447e-06
2.03001e-05
0.000203397
-3.36522e-06
-2.68961e-06
-3.68174e-06
-2.60447e-06
-2.57452e-06
-2.95862e-06
-2.52017e-06
-1.62167e-06
1.40495e-05
8.55602e-06
0.000196037
-1.57337e-06
-1.11933e-06
-6.9369e-07
-4.19057e-07
4.85174e-06
3.88369e-06
0.000168992
-2.25309e-06
-4.32233e-07
-4.92281e-07
1.8154e-07
6.40569e-06
2.53e-07
4.36218e-06
-1.83907e-05
-4.67833e-07
1.16468e-06
1.40777e-06
2.11378e-05
1.84982e-06
1.97751e-06
-7.63113e-07
-1.96491e-06
-1.09931e-06
5.91733e-08
-7.05403e-07
-2.74859e-07
9.0449e-07
2.48275e-06
-5.77229e-05
-6.05107e-06
-2.55923e-07
3.81255e-06
5.77346e-05
1.50707e-05
1.21117e-05
0.000272197
-4.32289e-06
-3.12533e-06
-2.81244e-06
-1.82678e-06
8.4402e-06
1.08504e-05
0.000240488
3.82842e-06
-1.0117e-06
0.000196562
7.66985e-07
1.71366e-06
-3.20306e-06
9.36511e-07
1.1033e-06
3.4927e-07
-2.58034e-05
-1.10579e-06
1.90053e-06
1.98157e-06
2.68555e-05
-5.84094e-06
-3.1581e-07
-6.66199e-07
9.53407e-07
8.93124e-07
4.97641e-06
-6.03732e-05
3.9089e-08
-1.45639e-06
1.85984e-06
6.25353e-05
-2.60462e-06
-4.48677e-06
2.30305e-06
0.000292338
2.42764e-07
8.48943e-07
1.40879e-06
9.89519e-07
1.01285e-06
2.24881e-06
1.36716e-06
-9.42054e-07
1.66139e-06
0.000392952
6.09641e-07
6.83228e-07
2.82337e-07
3.46648e-06
1.74594e-06
3.1522e-06
-6.9883e-05
-3.37427e-07
-2.36768e-07
6.85035e-05
-8.83993e-06
-5.10132e-06
1.93296e-06
1.20083e-05
-5.26158e-05
4.96291e-07
-2.77983e-07
5.47006e-05
-8.77335e-05
1.24239e-06
-1.17054e-06
1.00368e-06
8.83194e-05
-1.82318e-05
-8.22456e-07
-6.28512e-07
1.96863e-05
8.32611e-07
-6.60877e-08
-1.46445e-07
-6.95888e-07
4.20379e-07
-5.54713e-07
4.70214e-07
-4.09016e-07
5.22321e-07
5.75469e-07
-1.83744e-05
1.54377e-06
1.8155e-06
1.39174e-05
5.81152e-07
-2.119e-05
-3.24032e-06
3.65557e-06
2.62028e-08
2.01674e-05
-6.64674e-06
1.27534e-07
9.29642e-07
-4.63294e-07
9.49031e-06
-3.43745e-06
-2.61511e-06
2.00906e-06
-1.64746e-05
-3.96085e-07
4.84789e-06
1.26288e-05
7.28383e-06
1.76226e-05
0.000198397
-3.44419e-06
-3.4626e-06
-3.46523e-06
-2.57476e-06
-2.24092e-06
-2.1161e-06
-1.66746e-06
-9.34726e-07
8.94403e-06
6.73141e-06
0.000191106
-1.3826e-06
-1.02002e-06
-5.955e-07
-4.62269e-07
-2.27657e-06
2.0222e-06
0.000174159
-2.03891e-07
5.52691e-07
9.44983e-07
1.17828e-06
9.69685e-07
-1.28528e-06
1.87516e-06
-2.39786e-05
-1.90826e-06
-5.61803e-07
2.41721e-05
-2.77197e-06
9.40457e-08
-1.87003e-06
4.5477e-06
3.47117e-06
-5.65177e-05
-5.06225e-06
-2.3058e-07
3.66932e-06
5.467e-05
1.55686e-05
1.00685e-05
0.00027599
-4.1591e-06
-3.63732e-06
-2.17416e-06
-1.83642e-06
5.22357e-06
8.62273e-06
0.000248942
-1.42415e-06
-1.17119e-06
0.000210968
-4.71088e-06
-2.01595e-08
-2.42529e-06
2.42483e-07
1.32429e-06
1.02538e-06
-3.65966e-05
-1.49726e-06
-5.98367e-06
5.0273e-06
3.76261e-05
-6.46403e-05
8.17769e-07
-1.27016e-06
1.03562e-06
6.60533e-05
-1.99619e-06
-4.66836e-06
1.90851e-06
0.000298224
-4.04093e-07
5.68522e-07
1.33515e-06
1.05303e-06
7.67441e-07
2.09275e-06
1.52982e-06
-2.18792e-06
1.14293e-06
0.00039097
-2.39677e-07
4.15509e-07
-2.26363e-07
2.67947e-06
1.54405e-06
2.80805e-06
-7.07676e-05
-1.14633e-06
-8.48142e-08
6.86397e-05
-1.36061e-05
-1.53642e-06
3.03681e-06
1.21057e-05
-5.66178e-05
4.86043e-07
-1.65116e-07
5.82053e-05
-8.90349e-05
1.08735e-06
-9.7171e-07
9.21672e-07
8.91405e-05
-2.10388e-05
-6.80342e-07
-4.65343e-07
2.21845e-05
6.37597e-07
7.99472e-07
-3.95957e-07
-1.04111e-06
-7.24997e-08
-1.6312e-06
9.03626e-07
8.00006e-07
-1.22718e-06
1.63686e-06
-1.00856e-05
-1.07277e-07
1.95311e-06
7.83005e-06
1.34587e-07
-1.9823e-05
-1.74726e-06
1.7602e-06
2.1815e-07
1.94573e-05
-1.0231e-05
2.69507e-06
-1.2239e-06
-7.98256e-07
1.02092e-05
-6.5115e-07
-9.94366e-07
8.10646e-07
-1.04892e-05
-1.25717e-06
3.41208e-06
8.51805e-06
6.78668e-06
1.42223e-05
0.000192029
-3.08479e-06
-3.28841e-06
-2.66042e-06
-2.76631e-06
-5.00384e-07
-1.53633e-06
-2.02019e-07
-6.02086e-07
8.31459e-06
5.40559e-06
0.000188792
-1.75733e-06
-1.39199e-06
-8.98911e-07
-5.71265e-07
-1.01687e-06
5.06735e-07
0.000173704
2.95668e-07
1.3327e-06
9.17605e-07
1.4061e-06
2.76375e-06
-8.60772e-07
3.42518e-06
-2.41949e-05
-5.86928e-07
-3.25174e-07
2.40902e-05
-5.9677e-06
1.41536e-06
-2.56765e-06
7.11999e-06
3.34555e-06
-5.33402e-05
-4.59079e-06
-2.86095e-07
3.08681e-06
5.17847e-05
1.58908e-05
8.39591e-06
0.000276387
-3.57823e-06
-3.63992e-06
-1.62537e-06
-1.61815e-06
6.71732e-06
6.07036e-06
0.00025745
1.32296e-06
-1.25123e-06
0.000216009
-1.48467e-06
2.01199e-06
-4.82329e-07
4.60026e-07
1.03159e-06
5.74558e-07
-3.72619e-05
-1.24627e-06
-1.39265e-06
4.09138e-06
3.71324e-05
-6.75751e-05
1.52567e-06
-1.64351e-06
2.83636e-07
6.88188e-05
-1.40955e-06
-4.56648e-06
1.83929e-06
0.000301183
-2.88525e-07
8.33007e-07
1.62953e-06
1.35909e-06
9.48187e-07
2.05777e-06
1.62553e-06
-1.90366e-06
1.09015e-06
0.000385972
-4.94535e-07
7.60805e-07
-2.36815e-07
2.66211e-06
1.68761e-06
2.93597e-06
-7.05878e-05
-2.6614e-07
-3.3562e-07
6.80347e-05
-1.25265e-05
-2.15432e-06
1.59844e-06
1.30823e-05
-5.97454e-05
6.94056e-07
-1.45277e-07
6.1036e-05
-9.00413e-05
7.19288e-07
-1.00588e-06
7.45669e-07
9.06724e-05
-2.32782e-05
-3.79713e-07
-6.05534e-07
2.42635e-05
1.37079e-06
1.33667e-06
-1.50913e-06
-1.19834e-06
-1.46289e-06
-2.73261e-06
1.70245e-06
2.49305e-06
-7.63021e-07
2.85547e-06
-5.85197e-06
-1.8174e-06
9.77952e-07
4.59896e-06
8.79427e-07
-1.81165e-05
1.6639e-07
5.53499e-07
1.25413e-10
1.65171e-05
-1.02678e-05
2.05845e-06
-1.20779e-06
-1.01508e-06
1.03085e-05
1.23675e-07
-4.95909e-08
3.87739e-07
-6.67688e-06
-7.43171e-07
1.60467e-06
5.47723e-06
3.04366e-06
1.25913e-05
0.000183944
-1.9437e-06
-3.13328e-06
-1.57671e-06
-1.96372e-06
4.19649e-07
-7.625e-07
9.02362e-07
5.07631e-07
7.6513e-06
3.69971e-06
0.000183197
-1.40238e-06
-1.13996e-06
1.93473e-07
-3.63849e-07
-7.59463e-07
-4.48713e-07
0.000172455
2.93748e-07
1.50821e-06
9.83093e-07
1.54969e-06
3.13876e-06
-5.58402e-07
3.19291e-06
-2.41111e-05
-5.53003e-07
-3.69642e-07
2.42743e-05
-8.20336e-06
1.85642e-06
-2.83188e-06
9.17883e-06
3.21859e-06
-5.01378e-05
-3.54863e-06
-5.45727e-07
2.82128e-06
4.81923e-05
1.53682e-05
6.6905e-06
0.000275241
-2.81861e-06
-3.35462e-06
-7.62234e-07
-1.38633e-06
7.65062e-06
4.50827e-06
0.000264359
1.55867e-06
-1.6838e-06
0.000221464
-5.77333e-07
1.78228e-06
-1.92408e-07
1.7149e-08
6.90454e-07
1.51566e-07
-3.7956e-05
-1.08153e-06
-1.10819e-06
3.32922e-06
3.83751e-05
-7.03109e-05
2.12134e-06
-2.0134e-06
-2.73484e-07
7.15527e-05
-1.0762e-06
-4.43051e-06
1.68808e-06
0.000302057
-4.68763e-08
1.20235e-06
1.75909e-06
1.5912e-06
8.86503e-07
1.74717e-06
1.41869e-06
-1.74493e-06
1.00611e-06
0.000379575
-3.90041e-07
8.53431e-07
-6.79818e-08
2.5617e-06
1.53626e-06
2.72092e-06
-6.96827e-05
-1.18907e-08
-3.42858e-07
6.66087e-05
-1.37883e-05
-1.93665e-06
1.3337e-06
1.43912e-05
-6.23717e-05
9.41413e-07
-2.96408e-07
6.34148e-05
-9.1948e-05
6.14292e-07
-8.25945e-07
7.82046e-07
9.23837e-05
-2.52584e-05
1.59779e-08
-9.2627e-07
2.61687e-05
9.68391e-07
1.35419e-06
-1.60643e-06
-7.16156e-07
-3.52418e-06
-2.7006e-06
1.80552e-06
4.41927e-06
-5.94624e-07
3.9044e-06
-4.14322e-06
-4.25517e-06
1.04706e-06
4.04155e-06
1.54273e-06
-1.50138e-05
3.54986e-06
-1.728e-06
-9.8969e-07
1.2639e-05
-1.02926e-05
1.07395e-06
-1.03091e-06
-7.13282e-07
1.03145e-05
6.48315e-07
-4.78114e-07
-5.88688e-07
-5.16068e-06
-3.22434e-07
1.13417e-06
5.41574e-06
-6.63774e-07
1.23135e-05
0.000174487
-1.49636e-06
-2.91693e-06
-1.00963e-06
-2.1124e-06
1.4278e-06
4.92502e-07
1.88521e-06
1.53647e-06
6.61895e-06
3.9213e-06
0.000175409
-8.3419e-07
-1.60992e-06
-2.51357e-08
-9.46921e-07
-4.68111e-07
-1.61306e-07
0.000169643
2.3371e-07
1.46383e-06
1.0364e-06
1.69232e-06
2.89176e-06
-2.08117e-07
2.95038e-06
-2.4573e-05
-3.29914e-07
-5.05926e-07
2.49407e-05
-9.97459e-06
2.07982e-06
-2.89151e-06
1.07863e-05
2.98094e-06
-4.64227e-05
-2.60616e-06
-8.80947e-07
2.40299e-06
4.45259e-05
1.41952e-05
6.41435e-06
0.000273059
-1.79849e-06
-3.08158e-06
-5.19425e-08
-1.18159e-06
8.50545e-06
4.25202e-06
0.000269718
1.44118e-06
-1.53055e-06
0.000227468
-1.98725e-07
1.62349e-06
1.36771e-07
-1.65312e-07
9.07927e-07
1.25629e-07
-3.89578e-05
-9.36689e-07
-8.21038e-07
2.88936e-06
3.92673e-05
-7.29207e-05
2.32804e-06
-2.01905e-06
-6.82947e-07
7.40719e-05
-7.77178e-07
-3.57416e-06
1.57904e-06
0.000301995
1.85331e-08
1.35048e-06
1.79731e-06
1.62206e-06
7.99145e-07
1.59648e-06
1.2883e-06
-1.91091e-06
8.09263e-07
0.000375098
-2.99958e-07
6.49757e-07
2.15683e-08
2.30538e-06
1.17412e-06
2.40567e-06
-6.77383e-05
3.82019e-09
-9.40461e-09
6.43024e-05
-1.503e-05
-1.97982e-06
1.40423e-06
1.56056e-05
-6.44093e-05
1.11898e-06
-4.00676e-07
6.52701e-05
-9.33381e-05
5.23885e-07
-6.02462e-07
7.12689e-07
9.35133e-05
-2.7106e-05
1.8993e-07
-1.02473e-06
2.79408e-05
6.21216e-07
6.41623e-07
-6.44838e-07
-6.18001e-07
-5.1756e-06
-1.44883e-06
8.03909e-07
5.82053e-06
-3.22938e-07
2.94683e-06
-4.31027e-06
-3.89412e-06
5.17457e-07
5.06304e-06
2.62558e-07
-1.03488e-05
4.69934e-06
-3.23865e-06
1.75518e-07
8.45003e-06
-1.02484e-05
8.11373e-07
-1.43272e-06
-4.98963e-07
9.7475e-06
1.62118e-06
-5.16072e-07
-6.44324e-07
-6.28603e-06
-1.17236e-06
9.24934e-07
7.69385e-06
-3.18254e-06
1.13389e-05
0.000159334
-3.53556e-07
-1.96681e-06
9.91193e-08
-6.49537e-07
2.63788e-06
1.27905e-06
3.66947e-06
2.28172e-06
4.8652e-06
4.48237e-06
0.000166222
-1.08331e-06
-1.79543e-06
2.27522e-07
-6.91127e-07
-3.72486e-07
1.03277e-06
0.000164353
2.65229e-07
1.51644e-06
1.25367e-06
1.64572e-06
2.48433e-06
-2.32973e-07
2.56288e-06
-2.55107e-05
-1.94304e-07
-6.07362e-07
2.59399e-05
-1.13973e-05
1.99282e-06
-2.51772e-06
1.19222e-05
2.63142e-06
-4.28244e-05
-1.56801e-06
-1.0859e-06
1.76387e-06
4.1083e-05
1.30837e-05
6.66144e-06
0.000269492
-1.11494e-06
-2.90871e-06
2.75074e-07
-1.09098e-06
8.76868e-06
4.57508e-06
0.000273941
1.28161e-06
-1.04281e-06
0.000233569
1.41155e-07
1.42987e-06
4.15368e-07
-9.82018e-08
1.24861e-06
3.24404e-07
-3.98482e-05
-8.45898e-07
-8.33426e-07
2.6079e-06
4.02012e-05
-7.52733e-05
2.25652e-06
-1.79509e-06
-9.30842e-07
7.61321e-05
-3.89438e-07
-2.68635e-06
1.57302e-06
0.000301694
-9.22845e-08
1.26113e-06
1.63423e-06
1.43287e-06
8.47225e-07
1.63299e-06
1.3596e-06
-1.97562e-06
4.64694e-07
0.000373421
-2.93671e-07
5.62502e-07
-9.0607e-10
1.9936e-06
7.93041e-07
2.02136e-06
-6.49242e-05
-2.0317e-07
6.28123e-07
6.14808e-05
-1.62154e-05
-2.14348e-06
1.69411e-06
1.66647e-05
-6.60207e-05
1.22361e-06
-3.51308e-07
6.67214e-05
-9.41907e-05
3.42022e-07
-4.43239e-07
5.3128e-07
9.42253e-05
-2.89198e-05
1.39457e-08
-9.19491e-07
2.98253e-05
6.2097e-07
-1.59055e-07
1.4087e-07
-6.02785e-07
-6.4108e-06
-7.4084e-07
5.95727e-07
6.55591e-06
2.34144e-07
-3.7385e-07
-6.18703e-06
-7.96249e-07
-1.38937e-07
7.26192e-06
-2.23575e-07
-7.7498e-06
2.31282e-06
-2.24242e-06
4.30616e-07
7.47236e-06
-9.04277e-06
1.22021e-07
-1.28565e-06
-3.97293e-07
8.53099e-06
2.0727e-06
-1.03207e-07
2.56112e-07
-9.48925e-06
-3.20492e-06
9.55467e-07
1.15858e-05
-7.31968e-06
1.13005e-05
0.00013995
2.63839e-07
-9.32599e-07
3.12403e-07
-5.0544e-07
4.81421e-06
2.30148e-06
5.22944e-06
3.91992e-06
3.85342e-06
4.95751e-06
0.000153743
-9.40045e-07
-1.38555e-06
-6.97853e-07
-6.28206e-07
-1.61153e-07
1.59091e-06
0.000157112
4.24457e-07
1.41148e-06
1.00696e-06
1.38425e-06
2.54153e-06
7.71194e-08
2.81882e-06
-2.63861e-05
-5.89688e-09
-6.32003e-07
2.68628e-05
-1.24125e-05
1.77324e-06
-2.24346e-06
1.28827e-05
2.0891e-06
-3.94693e-05
-1.20863e-06
-6.60244e-07
1.42968e-06
3.78194e-05
1.1395e-05
6.9513e-06
0.000266632
-1.00312e-06
-2.72943e-06
4.52388e-07
-9.05432e-07
7.60521e-06
4.34873e-06
0.000278339
9.74569e-07
-4.92888e-07
0.000237934
2.67515e-07
1.20042e-06
4.21649e-07
1.54887e-07
1.66692e-06
6.38189e-07
-4.0854e-05
-9.49583e-07
-9.1336e-07
2.45844e-06
4.12331e-05
-7.70262e-05
2.13009e-06
-1.50914e-06
-9.47714e-07
7.76355e-05
-2.82496e-07
-1.92782e-06
1.63297e-06
0.000301231
-3.08426e-07
1.06389e-06
1.4534e-06
1.25345e-06
9.79651e-07
1.73881e-06
1.52812e-06
-1.8988e-06
1.05116e-07
0.000373678
-3.21699e-07
5.78973e-07
3.37278e-09
1.65006e-06
4.07943e-07
1.6395e-06
-6.22977e-05
-5.24964e-07
9.49683e-07
5.94813e-05
-1.70413e-05
-2.28512e-06
2.08512e-06
1.72413e-05
-6.73321e-05
1.22971e-06
-1.38774e-07
6.78741e-05
-9.47936e-05
2.88341e-08
-2.30887e-07
3.09752e-07
9.47911e-05
-3.08331e-05
-2.49288e-08
-8.7879e-07
3.17368e-05
6.0983e-07
-8.03609e-07
8.27058e-07
-6.33279e-07
-6.31375e-06
-8.11462e-07
9.74881e-07
6.15033e-06
7.414e-07
-8.31051e-07
-7.71502e-06
9.39191e-07
-1.82587e-07
7.04806e-06
-4.27985e-07
-7.47182e-06
-7.86295e-07
5.70925e-07
1.36417e-06
6.751e-06
-8.64033e-06
-1.46424e-06
4.76744e-07
8.33818e-07
9.03607e-06
-2.42061e-07
1.15657e-07
1.03267e-06
-1.38083e-05
-3.96931e-06
8.23816e-07
1.58055e-05
-1.12792e-05
1.16098e-05
0.000120629
-1.06638e-07
-1.18263e-06
-1.67076e-07
-5.19816e-07
5.55643e-06
4.51646e-06
5.37971e-06
5.51339e-06
4.62795e-06
7.13275e-06
0.00013822
-2.45633e-06
-1.79219e-06
-1.92591e-06
-1.34299e-06
5.56333e-07
3.30125e-06
0.000149198
-4.34652e-07
8.52265e-07
-2.72242e-07
6.31624e-07
3.1146e-06
1.37669e-06
3.41582e-06
-2.74376e-05
2.97886e-07
-5.87367e-07
2.82834e-05
-1.32988e-05
1.4433e-06
-1.79684e-06
1.36524e-05
1.59236e-06
-3.657e-05
-1.43207e-06
-7.28802e-07
1.57834e-06
3.55602e-05
9.10215e-06
8.47181e-06
0.000262614
-3.99963e-07
-2.31367e-06
1.20205e-06
-4.34853e-07
6.95716e-06
4.23286e-06
0.000283384
8.29129e-07
4.1839e-08
0.000241379
2.75431e-07
1.13278e-06
3.93091e-07
7.35669e-07
2.20396e-06
1.20133e-06
-4.19933e-05
-1.12702e-06
-1.06748e-06
2.4375e-06
4.25794e-05
-7.83804e-05
2.02292e-06
-1.29176e-06
-7.81674e-07
7.89743e-05
-5.43437e-07
-1.09339e-06
1.79526e-06
0.000300936
-4.2297e-07
9.18619e-07
1.42978e-06
1.13665e-06
1.23718e-06
1.94301e-06
1.82266e-06
-1.64735e-06
-2.80009e-07
0.000375262
-1.8748e-07
8.00245e-07
1.66683e-07
1.31963e-06