/*--------------------------------*- C++ -*----------------------------------*\
| =========                 |                                                 |
| \\      /  F ield         | OpenFOAM: The Open Source CFD Toolbox           |
|  \\    /   O peration     | Version:  5.x                                   |
|   \\  /    A nd           | Web:      www.OpenFOAM.org                      |
|    \\/     M anipulation  |                                                 |
\*---------------------------------------------------------------------------*/
FoamFile
{
    version     2.0;
    format      ascii;
    class       volVectorField;
    location    "9";
    object      U;
}
// * * * * * * * * * * * * * * * * * * * * * * * * * * * * * * * * * * * * * //

dimensions      [0 1 -1 0 0 0 0];

internalField   nonuniform List<vector> 
10571
(
(-0.135668 0.205598 1.95241)
(-0.0123334 0.179756 0.976019)
(0.116153 0.356069 2.70385)
(-0.54781 0.827943 1.52277)
(-0.186386 0.440095 1.13784)
(0.0802455 0.644547 1.89628)
(0.692611 0.493034 2.03475)
(-0.622717 1.68802 5.27547)
(-0.645818 1.44657 2.02024)
(-0.324267 0.666794 1.74468)
(0.320041 -0.357981 1.18762)
(0.78518 -0.197983 1.53577)
(0.68455 2.54891 4.5237)
(-0.135791 0.591757 1.43608)
(-1.54523 0.465429 3.34369)
(-0.464089 0.170306 1.45029)
(0.776702 0.550566 1.7242)
(1.39234 1.76314 3.9751)
(0.481933 2.18253 4.01926)
(-0.888303 1.67674 2.30398)
(-0.419657 0.334136 0.875706)
(0.41505 -0.000535149 1.48748)
(0.0214923 0.114034 1.75127)
(-0.690634 0.829101 4.31636)
(-0.0942782 0.0514408 0.720114)
(-0.164257 0.236862 0.533352)
(-0.606665 0.323931 2.51006)
(-0.129617 0.75558 1.79594)
(-0.0034967 0.359338 0.396293)
(-0.606225 -0.0282638 2.17975)
(-0.396668 0.305011 1.47232)
(0.117452 0.360796 2.95536)
(0.0939731 -0.38302 2.6051)
(-0.247506 -0.124808 1.12503)
(0.0304046 -0.000152422 0.296882)
(-0.0917526 0.172228 1.64042)
(-0.0634201 0.486051 1.97812)
(-0.266883 0.610854 1.30854)
(-0.092881 0.53473 1.61528)
(-0.0490273 0.131428 0.78586)
(0.0326077 0.248629 1.57788)
(0.553664 1.39078 4.08705)
(-0.376981 2.18786 5.81059)
(-0.275987 1.18873 1.4704)
(-0.216145 0.365971 0.593083)
(-0.305431 0.018927 2.48469)
(-0.548197 0.349217 3.7336)
(-0.941802 0.38909 3.25075)
(-0.164195 0.0133853 0.0458516)
(0.18337 -0.0532546 0.148353)
(-0.755885 0.6469 4.42919)
(-0.830139 -0.371402 2.42835)
(-0.0962868 0.145556 0.0649108)
(1.00734 -1.36382 3.42786)
(-0.410455 0.434874 2.62291)
(-0.0346946 0.620051 2.36899)
(-0.089697 0.503442 3.32634)
(-0.239584 0.178598 0.724144)
(0.124124 0.260109 -0.0174388)
(0.158745 1.27711 1.85966)
(0.14203 0.243819 3.17935)
(-0.0509462 0.437354 1.38327)
(-0.0820123 0.333158 1.521)
(-0.136711 0.351946 0.973851)
(0.15779 -0.184138 1.55335)
(0.190756 -0.016596 4.3721)
(-0.276567 1.31686 5.40696)
(-0.00244226 0.38421 1.0968)
(-0.251644 0.738676 1.22646)
(-0.690346 -0.338711 1.90869)
(-0.622124 -0.040942 4.57777)
(0.0942191 -0.403619 2.49084)
(-0.0102964 0.00328754 -0.157016)
(-0.115436 0.156771 0.646973)
(-1.30156 0.645561 3.61647)
(0.090774 -0.0114532 0.233177)
(-0.0557323 -0.149732 -0.0413913)
(0.993676 -0.348572 3.38179)
(-0.0456358 0.629068 2.16829)
(0.0150629 0.726091 2.8716)
(-0.272153 0.853008 2.81768)
(-0.0916411 0.167446 0.144592)
(0.0132239 0.0383782 -0.305384)
(0.2481 0.350865 1.87612)
(0.475041 0.243019 2.80435)
(0.237421 -0.0538454 1.53885)
(-0.745731 0.273986 2.28489)
(-0.262309 0.289093 0.340779)
(-0.146575 -0.43014 1.56566)
(-0.0564613 -0.452622 3.74258)
(-0.0587596 0.629408 5.15676)
(-0.108345 -0.396502 1.89845)
(-0.0200838 0.114706 0.300642)
(-0.44656 -0.299561 1.39581)
(-0.503164 -0.479533 4.83557)
(0.518888 -0.281471 1.9179)
(0.0508745 0.0241508 -0.304363)
(-0.0418498 0.197315 0.788689)
(-0.926853 0.718831 3.60968)
(0.0690057 0.0968478 0.276567)
(-0.0649117 -0.123074 -0.00808074)
(0.298113 0.297868 2.62925)
(0.219281 0.290918 1.79373)
(-0.0748587 0.51166 2.15909)
(-0.172776 0.501019 2.6951)
(0.0794772 0.0991584 -0.0303098)
(0.0107743 0.00464243 -0.294489)
(-0.117187 0.0252119 2.01053)
(0.67954 0.0131735 2.68766)
(-0.09406 -0.193959 1.63896)
(-0.529396 0.139471 2.27259)
(-0.00171308 0.172603 0.158054)
(-0.147244 -0.435373 1.83287)
(-0.143225 -0.433511 3.80333)
(-0.0117349 0.223941 5.27594)
(0.179975 -0.813164 2.76585)
(0.148882 -0.285153 -0.117846)
(-0.320272 -0.0995183 1.17698)
(-0.524151 -0.428524 4.6555)
(0.315344 -0.124381 1.00337)
(0.00958911 -0.00671864 -0.37352)
(-0.038654 0.120678 0.53089)
(-0.100062 0.417903 2.73821)
(0.0409712 -0.0432131 0.537917)
(-0.017907 0.283695 0.116093)
(0.235953 0.314247 1.98925)
(0.213455 0.182713 2.10264)
(-0.131355 0.361198 2.21408)
(0.119197 0.0157741 1.72875)
(0.133072 0.113642 -0.0511244)
(0.00269233 0.00408947 -0.000298103)
(0.00436284 0.0321037 -0.239995)
(-0.105883 -0.0684919 2.47091)
(0.768789 -0.0666123 3.11413)
(-0.0750599 -0.450159 2.23184)
(-0.0273889 -0.0276253 1.62788)
(0.326364 -0.136503 0.697658)
(0.00555685 0.000398587 -5.50091e-05)
(-0.469338 -0.187159 1.96518)
(-0.171704 -0.265441 3.5525)
(-0.0636804 0.156418 5.31242)
(0.1286 -0.544103 3.43947)
(0.2009 -0.146634 0.201204)
(-0.381285 0.106122 1.39022)
(-0.41692 -0.26897 4.1838)
(-0.151259 0.191216 0.691393)
(-0.00408432 0.00852103 -0.37465)
(-0.0575759 -0.0467076 0.287067)
(0.366031 0.0954068 1.9138)
(0.288552 -0.0294552 0.819463)
(0.165866 0.111566 0.0881143)
(0.222006 0.302605 1.62252)
(0.422302 0.13116 2.23781)
(0.118417 0.183793 2.32843)
(0.292717 0.116547 2.0743)
(0.146773 0.180151 0.229668)
(0.178578 0.109183 0.0333348)
(0.00857467 0.0924238 -0.176749)
(-0.327346 -0.050393 2.78478)
(0.632544 -0.00642429 2.81907)
(0.362045 -0.349171 2.47229)
(0.172978 0.00189315 2.13427)
(0.578229 -0.0430909 1.06644)
(0.128345 0.110419 0.0767063)
(-0.432081 0.202191 1.93927)
(-0.218435 0.128031 2.98746)
(0.016638 0.212445 4.58628)
(0.279205 -0.167551 3.08267)
(-0.218597 -0.0558707 0.538383)
(-0.0644381 0.0523763 0.0487689)
(-0.155383 0.351831 2.13033)
(-0.301027 0.0649446 3.44893)
(0.194419 0.128159 1.2294)
(0.00776796 0.00105893 -0.392745)
(-0.0206058 -0.118541 0.0728868)
(0.617438 -0.111145 1.44953)
(0.522876 -0.0751787 1.07467)
(0.296842 -0.00594885 0.0248465)
(-0.0678018 0.355306 1.39095)
(0.368445 0.177803 2.11506)
(0.219767 0.165365 2.25426)
(0.420719 0.139555 2.01337)
(0.316636 0.162757 0.65945)
(-0.0765762 0.0905174 0.0723096)
(0.0204053 0.18635 -0.0511538)
(-0.373083 0.249029 2.58455)
(0.421677 0.291929 2.72937)
(0.369368 -0.156634 2.42491)
(0.218175 0.0295009 2.08377)
(0.35512 0.0104816 1.08802)
(0.106876 0.129354 0.23258)
(-0.150402 0.122631 2.22323)
(-0.12836 0.126736 3.15171)
(-0.0413866 0.268415 4.41356)
(0.266263 -0.0619031 3.00192)
(-0.156515 0.0474169 0.497536)
(0.0675069 0.0966556 0.131767)
(-0.0143123 0.380852 2.44876)
(-0.135819 0.147681 3.40451)
(0.102997 0.0708825 1.3552)
(-0.00818199 -0.00575621 -0.324091)
(-0.0591341 -0.00458057 -0.0392101)
(0.409869 -0.0163344 1.12744)
(0.475172 -0.229721 1.29471)
(0.367762 -0.105889 0.32474)
(-0.00466004 0.418196 1.17894)
(0.224254 0.344811 2.06731)
(0.121981 0.20895 1.92886)
(0.357365 0.107068 1.78078)
(0.280832 0.157641 0.925471)
(-0.161601 -0.222297 -0.101133)
(-0.0493449 0.167792 0.000379784)
(-0.236836 0.336751 2.58284)
(0.379295 0.334017 2.83408)
(0.197689 0.0874153 2.42718)
(0.179265 0.0547397 2.09424)
(0.23706 0.0269763 1.28895)
(-0.0267313 0.0296309 0.241477)
(-0.125443 0.109276 2.39446)
(-0.0588948 0.0920465 3.11625)
(-0.12405 0.230907 4.32757)
(0.168231 -0.046754 3.04256)
(-0.0930707 0.162285 0.797464)
(0.00669251 0.222879 2.72858)
(-0.0894997 0.0991218 3.42133)
(0.0913346 0.06863 1.69622)
(0.0236209 -0.0125511 -0.193697)
(-0.0381061 0.00465367 -0.0464398)
(0.00412906 -0.0236875 0.626389)
(0.261027 -0.0624407 1.0288)
(0.136767 -0.0580661 0.500765)
(-0.164276 0.278555 0.561988)
(0.210623 0.317354 2.07332)
(0.0634166 0.13723 2.00929)
(0.308715 0.0300151 1.87696)
(-0.180363 -0.0559534 1.21519)
(-0.09296 -0.00895196 0.577247)
(-0.218684 0.339057 2.46548)
(0.375157 0.304446 2.80648)
(0.158183 0.0896617 2.55397)
(0.138204 0.0621555 2.15729)
(-0.0699506 0.212821 1.39495)
(-0.163064 0.0484451 2.56749)
(-0.0157186 0.0559939 3.10326)
(-0.161627 0.190786 4.17404)
(0.0743347 -0.0227212 3.03757)
(-0.124688 0.222053 1.02565)
(0.0159866 0.169226 2.89845)
(-0.0667058 0.0495413 3.49136)
(0.0899183 0.0581939 1.98601)
(-0.107566 0.0046047 -0.110995)
(-0.0839978 0.0840081 0.0888123)
(-0.133483 0.0545729 0.449242)
(0.124579 -0.0266311 0.862886)
(-0.0863002 -0.0478358 0.403855)
(-0.119129 0.137701 0.435558)
(0.190225 0.252178 2.0113)
(0.052303 0.125449 1.96067)
(0.243008 0.00520653 1.86872)
(-0.17481 -0.061538 1.21348)
(-0.112909 -0.0834716 0.958287)
(-0.182232 0.303807 2.32989)
(0.362326 0.252628 2.77713)
(0.169208 0.0552554 2.60669)
(0.121045 0.01959 2.26997)
(0.162648 0.171466 1.47689)
(-0.195716 0.00595979 2.69696)
(-0.0196672 0.047479 3.12622)
(-0.149286 0.166119 4.05867)
(0.0275463 -0.0326339 3.01039)
(-0.12677 0.149601 1.15527)
(-0.000363713 0.159745 3.05109)
(-0.0462484 0.0341476 3.55755)
(0.112498 0.042132 2.17404)
(-0.183485 -0.0275706 -0.189138)
(-0.153054 0.116123 0.158151)
(-0.20834 0.02452 0.226508)
(0.0329443 -0.0466196 0.750495)
(-0.0944736 -0.0918142 0.398332)
(-0.0138542 -0.0496254 0.269731)
(0.107761 0.217313 1.87464)
(0.00265 0.0835299 1.88809)
(0.244227 0.00179222 1.84267)
(-0.181705 -0.059212 1.21952)
(-0.127434 -0.0873576 1.25381)
(-0.161266 0.284552 2.1584)
(0.329895 0.21715 2.75989)
(0.182897 0.0315142 2.65736)
(0.098434 -0.0204027 2.34004)
(0.140163 0.163389 1.49381)
(-0.219252 -0.0166642 2.78754)
(-0.0319944 0.0208466 3.16765)
(-0.12362 0.135708 3.99197)
(0.00665796 -0.04369 2.95361)
(-0.122995 0.141493 1.28039)
(-0.0220199 0.160993 3.17678)
(-0.0302996 0.0406499 3.61849)
(0.144401 0.011082 2.33845)
(-0.199048 -0.0381507 -0.111273)
(-0.128332 0.0936836 0.292086)
(-0.307531 0.0465354 0.176247)
(-0.192292 -0.144539 0.624905)
(-0.0648136 -0.0476057 0.400293)
(0.086325 -0.0321942 0.226717)
(0.0049624 0.183873 1.75612)
(-0.0254521 0.0829525 1.76901)
(0.236808 0.00870415 1.79832)
(-0.15692 -0.0658874 1.25217)
(-0.130964 -0.0882116 1.48572)
(-0.131707 0.240132 1.98779)
(0.282029 0.22431 2.74281)
(0.195535 0.0402745 2.69924)
(0.102363 -0.0165219 2.38558)
(0.118471 0.144312 1.53464)
(-0.212093 -0.0300677 2.88548)
(-0.0223247 0.00460299 3.18725)
(-0.111934 0.114876 3.96195)
(-0.0037734 -0.0229551 2.85409)
(-0.124588 0.162265 1.39809)
(-0.03714 0.160306 3.27296)
(-0.0176748 0.0363611 3.67028)
(0.155509 -0.0152931 2.50714)
(-0.0902771 -0.0167284 -0.085639)
(-0.0463457 0.0343401 0.400347)
(-0.248891 0.0740826 0.198329)
(-0.348702 0.000698601 0.40067)
(-0.101772 -0.00312912 0.396471)
(0.0451526 0.0240229 0.309698)
(-0.054004 0.133411 1.69592)
(-0.0537192 0.0890969 1.71094)
(0.213064 0.0341815 1.75221)
(-0.137102 -0.0792114 1.30129)
(-0.108574 -0.0680543 1.67871)
(-0.100314 0.165873 1.85192)
(0.254421 0.237786 2.73146)
(0.195807 0.0570309 2.73978)
(0.108143 -0.0023137 2.4336)
(0.0920645 0.132089 1.57314)
(-0.18819 -0.0392147 2.97131)
(0.00366837 0.00326026 3.19087)
(-0.111344 0.0956368 3.9532)
(-0.00667414 0.016687 2.72406)
(-0.123851 0.200357 1.50183)
(-0.0415554 0.15851 3.35257)
(0.000631938 0.0192442 3.7059)
(0.148539 -0.0229315 2.67714)
(0.0286384 -0.00323799 -0.0856435)
(-0.0789247 0.0570253 0.48964)
(0.0413748 0.0393373 0.303265)
(-0.182341 0.0386812 0.339209)
(-0.119618 0.0297308 0.346876)
(-0.0822484 0.0295358 0.4693)
(-0.148663 0.107125 1.52138)
(-0.116638 0.0927368 1.63063)
(0.243588 0.0400587 1.71635)
(-0.129023 -0.0914953 1.34541)
(-0.102542 -0.0333916 1.81575)
(-0.048335 0.117476 1.70205)
(0.222436 0.250894 2.70671)
(0.171261 0.0686229 2.79244)
(0.0941201 0.0112393 2.49151)
(0.0678335 0.134775 1.61186)
(-0.164907 -0.0389488 3.0343)
(0.0309845 0.00588981 3.18566)
(-0.111578 0.0761797 3.94539)
(-0.00432015 0.0593039 2.62374)
(-0.127429 0.2245 1.5645)
(-0.0358667 0.159682 3.4133)
(0.0263637 -0.00703222 3.73097)
(0.147692 -0.0209045 2.85315)
(0.126196 0.00301455 -0.0858917)
(-0.118449 0.0760082 0.440431)
(0.0762557 -0.0192979 0.335545)
(0.0749471 0.0234534 0.324763)
(0.0472755 0.103505 0.342185)
(-0.170675 -0.0271323 0.650979)
(-0.275514 0.065154 1.27371)
(-0.138862 0.148511 1.44292)
(0.296107 0.0440843 1.60446)
(-0.0843377 -0.102931 1.40228)
(-0.094274 0.0104595 1.9228)
(-0.0271214 0.111926 1.57716)
(0.162818 0.294826 2.6565)
(0.148241 0.0859766 2.83871)
(0.098142 0.0643146 2.52598)
(0.0511578 0.149398 1.65953)
(-0.143002 -0.0239835 3.08256)
(0.0520517 0.0207943 3.1695)
(-0.100017 0.0610557 3.94451)
(0.0085597 0.0854241 2.59408)
(-0.126818 0.232132 1.58887)
(-0.0281382 0.165536 3.45865)
(0.0618049 -0.0346302 3.74928)
(0.156224 -0.0202476 3.02016)
(0.187206 0.0121431 -0.108225)
(-0.0360083 -0.0470351 0.470019)
(0.134395 -0.0725577 0.219584)
(0.212311 0.0453895 0.254089)
(0.162022 0.0835668 0.400344)
(-0.129671 -0.0392908 0.804625)
(-0.221795 0.0212685 1.1)
(-0.104089 0.187564 1.29434)
(0.24521 0.0478394 1.50261)
(-0.000444499 -0.0999848 1.51273)
(-0.0845029 0.0396604 2.02112)
(-0.0603327 0.117704 1.53009)
(0.109606 0.330988 2.6045)
(0.126973 0.100129 2.87629)
(0.125098 0.160383 2.55186)
(0.0572455 0.144252 1.7268)
(-0.1264 -0.0158005 3.13891)
(0.0536098 0.0404477 3.15967)
(-0.0703613 0.0445806 3.95348)
(0.0349052 0.107152 2.62489)
(-0.12038 0.220367 1.60336)
(-0.0227213 0.176709 3.49527)
(0.100956 -0.0536372 3.7663)
(0.176492 -0.0309159 3.17324)
(0.167291 0.0178966 -0.187594)
(0.0726194 -0.00024293 0.236824)
(0.144162 -0.043568 0.0894871)
(0.248096 0.0867045 0.246374)
(0.0774393 -0.0123869 0.47319)
(0.0133797 0.0306682 0.908469)
(-0.0146379 -0.020764 0.971754)
(-0.0686786 0.13871 1.22841)
(0.0931566 0.0101402 1.45709)
(-0.0251711 -0.103376 1.58314)
(-0.0786449 0.0447144 2.1102)
(-0.0998893 0.113698 1.54373)
(0.0832974 0.342254 2.55558)
(0.0892685 0.0962072 2.91508)
(0.129662 0.220843 2.59096)
(0.0847655 0.14811 1.7988)
(-0.12008 -0.0218904 3.19979)
(0.0511983 0.0495371 3.14754)
(-0.0321482 0.0232503 3.96286)
(0.0851116 0.128976 2.72421)
(-0.0395288 0.0962351 1.69458)
(-0.0202413 0.189469 3.53073)
(0.13774 -0.0587029 3.79147)
(0.201622 -0.0436184 3.30756)
(0.0281492 0.0136765 -0.290901)
(-0.0207288 0.0836873 -0.0191644)
(0.0700192 0.0317723 -0.0314459)
(0.196493 0.00898557 0.359714)
(-0.0462924 -0.146696 0.576344)
(0.0845028 0.192016 0.821525)
(0.229732 -0.0325735 0.899825)
(0.0357942 0.0502513 1.20241)
(-0.0404662 -0.0128778 1.40297)
(-0.0741528 -0.108498 1.54851)
(-0.0697307 0.0368073 2.18845)
(-0.107042 0.101965 1.57116)
(0.0747787 0.358426 2.47212)
(0.0792662 0.0783164 2.96645)
(0.121382 0.226188 2.60343)
(0.0912495 0.116145 1.85996)
(-0.121 -0.0352869 3.26105)
(0.0577623 0.0575731 3.12036)
(0.00554453 -0.0059068 3.9636)
(0.14404 0.133499 2.87339)
(0.0659835 -0.0528123 1.84615)
(-0.0175656 0.198414 3.55872)
(0.167048 -0.0523447 3.82006)
(0.220376 -0.0519908 3.41456)
(-0.180427 -0.0150396 -0.2605)
(-0.0442131 0.065883 -0.104816)
(-0.0224944 0.103083 -0.0961053)
(0.0838668 -0.147342 0.507478)
(-0.0248632 -0.229481 0.667155)
(0.209872 0.290199 0.640231)
(0.407542 0.00319077 0.803988)
(0.244521 -0.0339186 1.22223)
(-0.0878028 -0.00132381 1.36139)
(-0.147282 -0.0529368 1.45351)
(-0.0649965 0.0172707 2.25757)
(-0.0863948 0.0711372 1.62195)
(0.0941936 0.372033 2.34857)
(0.100624 0.0699837 2.99012)
(0.1231 0.218606 2.59908)
(0.08619 0.00860631 1.94646)
(-0.118781 -0.0441015 3.31226)
(0.0649658 0.0894792 3.0625)
(0.0395775 -0.032853 3.94258)
(0.181223 0.120229 3.02481)
(0.137512 -0.142755 1.99723)
(-0.0161309 0.20397 3.57769)
(0.189388 -0.0414273 3.84335)
(0.228348 -0.0549474 3.49309)
(-0.331752 -0.0475401 -0.13676)
(-0.0945424 0.100164 -0.119562)
(-0.14431 0.156967 -0.0976652)
(-0.0181594 -0.284259 0.588513)
(0.0486774 -0.265284 0.731905)
(0.279549 0.378349 0.52474)
(0.487282 0.0383785 0.688916)
(0.385179 -0.0734077 1.2321)
(-0.0821693 0.0132584 1.34555)
(-0.139256 -0.00408181 1.41183)
(-0.0592654 0.00949245 2.30682)
(-0.0477827 0.0691353 1.63948)
(0.143764 0.341077 2.22201)
(0.123352 0.0653219 2.97859)
(0.128047 0.188619 2.60016)
(0.0925412 -0.0889168 2.06113)
(-0.115372 -0.0449598 3.35931)
(0.0669505 0.113946 3.02597)
(0.0667918 -0.0478631 3.9064)
(0.20119 0.0976733 3.16075)
(0.180399 -0.19997 2.15202)
(-0.0154113 0.209758 3.60341)
(0.203539 -0.0285083 3.86644)
(0.22879 -0.0556255 3.55675)
(-0.418829 -0.0579195 -0.0100776)
(-0.14256 0.124446 -0.136725)
(-0.255134 0.185123 -0.0672228)
(-0.08282 -0.374706 0.604361)
(0.0733687 -0.236124 0.821841)
(0.455438 0.281104 0.363849)
(0.511643 0.0264269 0.624131)
(0.419761 -0.0888143 1.2102)
(-0.0651972 0.00815007 1.34358)
(-0.0888007 0.0519764 1.44765)
(-0.0533731 0.00913752 2.35145)
(0.0478444 0.0705871 1.67099)
(0.16173 0.266311 2.11956)
(0.12889 0.0557838 2.97884)
(0.112922 0.129918 2.62046)
(0.0991284 -0.152344 2.17574)
(-0.110352 -0.038385 3.40885)
(0.0780893 0.112454 2.99845)
(0.0803414 -0.0568328 3.868)
(0.207604 0.0682463 3.27492)
(0.202094 -0.237376 2.30169)
(-0.011903 0.210011 3.6308)
(0.20689 -0.0147951 3.89339)
(0.225377 -0.0569325 3.61531)
(-0.461171 -0.058467 0.084166)
(-0.174892 0.140793 -0.130348)
(-0.346962 0.202264 -0.0274226)
(-0.123865 -0.369934 0.603466)
(0.0139958 -0.185065 0.928649)
(0.413847 0.130379 0.213942)
(0.563796 -0.00902709 0.615323)
(0.416933 -0.143539 1.16711)
(0.00307655 -0.0537233 1.36149)
(-0.093878 -0.0132417 1.52661)
(-0.051867 -0.000354955 2.34927)
(0.173627 0.0762505 1.7368)
(0.179116 0.182483 2.01912)
(0.137826 0.032837 2.9882)
(0.100998 0.0838246 2.64849)
(0.0851202 -0.191919 2.26923)
(-0.0980393 -0.0302026 3.44867)
(0.0875427 0.106424 2.94302)
(0.0717959 -0.0663813 3.81899)
(0.202528 0.0341956 3.34598)
(0.226631 -0.260863 2.43471)
(-0.0083068 0.201399 3.64672)
(0.204641 -0.0041662 3.91755)
(0.222003 -0.0591624 3.66506)
(-0.473654 -0.0533256 0.110842)
(-0.208138 0.168219 -0.099691)
(-0.414224 0.203953 0.0169412)
(-0.167324 -0.309387 0.638752)
(-0.121524 -0.179381 1.02868)
(0.271792 0.190586 0.188698)
(0.574846 -0.0607532 0.607422)
(0.3992 -0.250104 1.12584)
(0.100112 -0.175706 1.4028)
(-0.0666154 -0.182765 1.61363)
(-0.0612291 0.0197628 2.29187)
(0.287551 0.131026 1.76594)
(0.226424 0.10893 1.93784)
(0.161461 0.0192613 2.97643)
(0.106175 0.0557715 2.6664)
(0.0543985 -0.222858 2.32607)
(-0.0791391 -0.019272 3.47783)
(0.0866168 0.0975719 2.87741)
(0.0620812 -0.0785149 3.7516)
(0.195475 -0.00426172 3.37192)
(0.246807 -0.285908 2.55607)
(-0.00591756 0.189382 3.65574)
(0.201225 0.0044644 3.93775)
(0.220279 -0.0625431 3.70579)
(-0.451165 -0.0561233 0.0798041)
(-0.234102 0.185555 -0.058747)
(-0.460599 0.186605 0.0608376)
(-0.230401 -0.206544 0.720832)
(-0.23344 -0.22896 1.12162)
(0.143852 0.285864 0.26053)
(0.499819 -0.117022 0.619068)
(0.32843 -0.356978 1.09702)
(0.127086 -0.270131 1.44639)
(-0.0235811 -0.23834 1.69229)
(-0.0424339 0.0489136 2.24588)
(0.397784 0.170363 1.73426)
(0.254959 0.0398983 1.88338)
(0.183917 0.0141464 2.94153)
(0.0998573 0.0254029 2.68371)
(0.033268 -0.261472 2.39036)
(-0.0513498 -0.00707345 3.50444)
(0.0887339 0.0705502 2.81407)
(0.055142 -0.0946331 3.68059)
(0.188747 -0.0373417 3.3729)
(0.253278 -0.299552 2.63952)
(-0.00356434 0.180128 3.66152)
(0.195326 0.0106557 3.95423)
(0.218659 -0.0660711 3.73853)
(-0.389946 -0.0555429 0.0721347)
(-0.24718 0.186625 -0.010098)
(-0.483006 0.145561 0.103389)
(-0.338539 -0.0261406 0.83743)
(-0.303576 -0.251065 1.21787)
(0.0189151 0.344607 0.352351)
(0.340021 -0.183601 0.660509)
(0.215595 -0.442165 1.04608)
(0.117569 -0.335799 1.48629)
(-0.0314051 -0.259424 1.76097)
(-0.0602436 0.0205488 2.09894)
(0.474174 0.153671 1.55185)
(0.224591 -0.00969988 1.82988)
(0.166964 -0.00731809 2.91816)
(0.0667553 -0.0138296 2.67761)
(0.0313264 -0.307346 2.43574)
(-0.0212859 0.0024268 3.53248)
(0.103038 0.0574553 2.73524)
(0.0336148 -0.108874 3.61765)
(0.180952 -0.0660966 3.35909)
(0.255587 -0.303837 2.71103)
(-0.00271909 0.175071 3.65694)
(0.189309 0.0149932 3.96404)
(0.217079 -0.0691243 3.76049)
(-0.317775 -0.0450826 0.0866824)
(-0.246237 0.176243 0.0506156)
(-0.478425 0.0879049 0.142968)
(-0.458245 0.149125 0.885653)
(-0.349857 -0.271896 1.31704)
(-0.0683365 0.350803 0.431048)
(0.19997 -0.227397 0.739688)
(0.116751 -0.468253 0.980804)
(0.108092 -0.373225 1.51743)
(-0.0725252 -0.294933 1.82838)
(-0.0453596 0.0358079 2.03061)
(0.495372 0.114894 1.42381)
(0.107783 -0.0147339 1.77802)
(0.162284 -0.0408912 2.86388)
(0.0432899 -0.0487637 2.62707)
(0.0398997 -0.338659 2.43377)
(0.0125362 0.0138563 3.54791)
(0.11089 0.0680349 2.65065)
(0.0145346 -0.127091 3.53666)
(0.172096 -0.0914806 3.33181)
(0.254526 -0.315354 2.76806)
(-0.00325537 0.172547 3.64888)
(0.183259 0.0197968 3.96963)
(0.21864 -0.0699987 3.77495)
(-0.26016 -0.0398462 0.12118)
(-0.229232 0.164049 0.12297)
(-0.436972 0.0385116 0.189821)
(-0.512084 0.174744 0.811187)
(-0.353548 -0.316367 1.38892)
(-0.109274 0.330423 0.511358)
(0.077221 -0.238734 0.840704)
(0.0493293 -0.446912 0.944434)
(0.112859 -0.394736 1.55016)
(-0.13757 -0.348569 1.88722)
(-0.052001 0.0555133 1.95608)
(0.395466 0.0550258 1.28212)
(-0.0665249 0.0298057 1.72493)
(0.200317 -0.0117259 2.79236)
(0.071411 -0.0528306 2.58402)
(0.0458551 -0.355015 2.39962)
(0.0338072 0.0142695 3.56842)
(0.0801673 0.0542618 2.58481)
(-0.00213233 -0.162414 3.44341)
(0.164405 -0.114205 3.29448)
(0.244011 -0.307172 2.79537)
(-0.0019938 0.173857 3.64985)
(0.174817 0.0283792 3.97028)
(0.213841 -0.0674726 3.78023)
(-0.215616 -0.036096 0.174089)
(-0.199613 0.152092 0.211751)
(-0.37641 0.0163185 0.244558)
(-0.512469 0.107878 0.649702)
(-0.3398 -0.279708 1.51433)
(-0.150129 0.295514 0.58128)
(-0.0571244 -0.202244 0.926883)
(-0.00233015 -0.373296 0.940482)
(0.117189 -0.407557 1.58264)
(-0.179134 -0.420665 1.944)
(-0.0239394 0.0998227 1.76582)
(0.353716 0.0174832 1.13996)
(-0.206088 0.0827147 1.71291)
(0.193494 0.0722831 2.62051)
(0.18587 -0.0667576 2.55558)
(0.0850461 -0.376823 2.34325)
(0.0501051 0.0180179 3.58766)
(0.0108004 0.0297514 2.55141)
(-0.03368 -0.16582 3.35352)
(0.157183 -0.120952 3.25013)
(0.22216 -0.297793 2.82853)
(-0.000642683 0.17417 3.65068)
(0.163636 0.037161 3.96221)
(0.20912 -0.0694233 3.77549)
(-0.183495 -0.0315688 0.23086)
(-0.169818 0.139279 0.314571)
(-0.320288 0.0191194 0.294654)
(-0.453609 0.0375877 0.52775)
(-0.325305 -0.145113 1.64582)
(-0.242815 0.257953 0.666681)
(-0.187515 -0.117076 0.973937)
(-0.0449782 -0.235977 0.953443)
(0.10153 -0.401479 1.60646)
(-0.157893 -0.471133 2.02615)
(0.0628702 0.00451441 1.46617)
(0.366912 -0.119363 1.10635)
(-0.262486 0.106441 1.75019)
(0.0831628 0.0717692 2.35756)
(0.356523 -0.129798 2.47444)
(0.202899 -0.349482 2.31808)
(0.0587763 0.00887606 3.60991)
(-0.0456609 0.0409038 2.5551)
(-0.0510713 -0.0778175 3.26034)
(0.145679 -0.105443 3.21764)
(0.176676 -0.237873 2.86642)
(-0.00240016 0.171007 3.65163)
(0.139753 0.0460889 3.94886)
(0.219375 -0.0736289 3.77193)
(-0.164253 -0.0261159 0.279877)
(-0.139902 0.119432 0.421507)
(-0.28174 0.0320303 0.342909)
(-0.367926 -0.00375544 0.484586)
(-0.320454 -0.0397814 1.64451)
(-0.369906 0.234281 0.790645)
(-0.268146 -0.0297936 0.979925)
(-0.0744624 -0.091299 0.964634)
(0.0361312 -0.349402 1.63907)
(-0.100612 -0.485612 2.13672)
(0.0950864 0.0463074 1.12088)
(0.349488 -0.244172 1.12281)
(-0.233439 0.106565 1.80698)
(-0.00531977 0.000212963 2.06806)
(0.451947 -0.162907 2.31414)
(0.297737 -0.309545 2.33003)
(0.0834986 0.00544582 3.62524)
(-0.0561776 0.0474574 2.58133)
(-0.0516653 0.0416781 3.17332)
(0.135464 -0.0700091 3.18522)
(0.13902 -0.15281 2.92184)
(-0.00723815 0.165458 3.66694)
(0.103485 0.0487106 3.95138)
(0.236375 -0.0779495 3.77262)
(-0.159697 -0.0259521 0.319816)
(-0.114428 0.08477 0.524887)
(-0.237988 0.0546148 0.392884)
(-0.296791 -0.0312747 0.483697)
(-0.350708 -0.0262194 1.27466)
(-0.423572 0.219242 0.900206)
(-0.285987 0.020551 0.964462)
(-0.109182 0.0154417 0.984947)
(-0.126041 -0.214398 1.7006)
(-0.0539833 -0.470609 2.24288)
(0.0364567 0.296278 0.913616)
(0.348809 -0.277077 1.17189)
(-0.0738047 0.10459 1.95725)
(-0.00345264 -0.0455213 1.81473)
(0.470332 -0.15453 2.15312)
(0.318131 -0.283917 2.35009)
(0.110423 0.0333676 3.63429)
(-0.0613862 0.0326659 2.61084)
(-0.0755292 0.0967371 3.07956)
(0.13797 -0.0196279 3.15585)
(0.126223 -0.10472 2.99004)
(-0.0113927 0.157432 3.69882)
(0.0657187 0.046617 3.9647)
(0.243117 -0.0784967 3.77844)
(-0.162771 -0.0252866 0.359313)
(-0.0886279 0.05028 0.612248)
(-0.20319 0.073289 0.447278)
(-0.260012 -0.0524468 0.498175)
(-0.336083 -0.0895493 0.909282)
(-0.436274 0.194106 0.963839)
(-0.283071 0.0234204 0.945537)
(-0.15536 0.0709042 1.02004)
(-0.255162 -0.109798 1.73423)
(-0.039729 -0.408859 2.30638)
(0.01049 0.494879 0.972525)
(0.299805 -0.240156 1.22049)
(0.114633 0.117821 2.10317)
(0.0450071 -0.0485133 1.65993)
(0.392782 -0.178896 2.05523)
(0.296365 -0.273379 2.37954)
(0.133139 0.0740687 3.64828)
(-0.0871697 0.0228412 2.66004)
(-0.0951041 0.122165 2.93981)
(0.164132 0.0118687 3.12809)
(0.13201 -0.0958739 3.07548)
(-0.0128258 0.146192 3.73844)
(0.0276664 0.0489919 3.9738)
(0.242045 -0.0772777 3.78346)
(-0.179983 -0.0256385 0.394871)
(-0.0711623 0.0171576 0.68794)
(-0.199307 0.0872738 0.49883)
(-0.256802 -0.0721379 0.519676)
(-0.290705 -0.140789 0.706212)
(-0.415791 0.11844 1.00795)
(-0.274546 0.0105691 0.926591)
(-0.22609 0.0570919 1.04933)
(-0.326046 -0.0634675 1.75568)
(-0.0323576 -0.349293 2.31562)
(0.0256082 0.557889 1.1018)
(0.290624 -0.142443 1.22891)
(0.251264 0.126571 2.20898)
(0.0809241 -0.0363492 1.61587)
(0.20985 -0.254197 1.97287)
(0.231685 -0.258706 2.41967)
(0.180679 0.093263 3.64252)
(-0.0754224 0.00443881 2.73115)
(-0.0612214 0.16144 2.79277)
(0.194175 0.0216082 3.08531)
(0.13698 -0.106112 3.14404)
(-0.0166982 0.135618 3.79044)
(-0.0110905 0.0548855 3.98526)
(0.235503 -0.0698703 3.78418)
(-0.207457 -0.0285608 0.433424)
(-0.07 0.00890207 0.77279)
(-0.221267 0.0945733 0.550506)
(-0.276456 -0.0930965 0.547467)
(-0.264269 -0.168209 0.601686)
(-0.387267 0.0431168 1.02118)
(-0.283071 0.00149159 0.928027)
(-0.325058 -0.0153713 1.06375)
(-0.350266 -0.0622574 1.7604)
(-0.0595874 -0.283812 2.28874)
(0.0169016 0.613139 1.19879)
(0.166377 0.0377199 1.33967)
(0.342959 0.115933 2.32483)
(0.0922756 -0.0348947 1.63079)
(0.071344 -0.282997 1.88409)
(0.160206 -0.233818 2.41345)
(0.228068 0.0868297 3.50446)
(0.0169855 -0.0297994 2.8075)
(-0.0298296 0.133378 2.67765)
(0.20877 0.0284555 3.023)
(0.141042 -0.135548 3.17924)
(-0.0134409 0.124257 3.84076)
(-0.0441849 0.0613569 3.99688)
(0.222628 -0.0565433 3.78484)
(-0.237465 -0.0333308 0.470002)
(-0.102039 0.0464365 0.848603)
(-0.268492 0.0887204 0.602334)
(-0.310247 -0.113716 0.579047)
(-0.265364 -0.190573 0.551662)
(-0.390459 0.0631308 1.0161)
(-0.320605 -0.0210959 0.937552)
(-0.429425 -0.10575 1.06395)
(-0.370758 -0.08389 1.72707)
(-0.119405 -0.200815 2.28775)
(0.0217054 0.690701 1.3544)
(-0.0520536 0.248392 1.4788)
(0.38992 0.0832298 2.44161)
(0.137766 -0.0445952 1.70007)
(0.045929 -0.224448 1.81695)
(0.120481 -0.241715 2.434)
(0.472988 0.0648286 3.22045)
(0.104109 -0.0438506 2.87899)
(-0.0794431 0.034215 2.56644)
(0.203358 0.0337185 2.94276)
(0.153978 -0.163918 3.21062)
(-0.000511057 0.105438 3.88554)
(-0.0547811 0.0616755 3.99041)
(0.193747 -0.0443005 3.78335)
(-0.260534 -0.038086 0.498948)
(-0.16402 0.119599 0.924623)
(-0.320447 0.0567835 0.654066)
(-0.339724 -0.135293 0.619082)
(-0.265253 -0.205476 0.54157)
(-0.384798 0.198313 1.04073)
(-0.370026 -0.066657 0.96891)
(-0.514939 -0.178969 1.04983)
(-0.464827 -0.128922 1.58847)
(-0.112237 -0.163211 2.2425)
(0.0279038 0.752739 1.50821)
(-0.11638 0.387569 1.62245)
(0.377151 0.0255625 2.5134)
(0.209507 -0.0189539 1.74831)
(0.0487081 -0.129826 1.7966)
(0.0954488 -0.244178 2.4797)
(0.476279 0.0412242 2.47155)
(0.140312 -0.0641231 3.00556)
(-0.153541 -0.0126163 2.44737)
(0.186591 0.0381028 2.84544)
(0.170121 -0.186854 3.23756)
(0.0143274 0.0943104 3.9346)
(-0.0613344 0.0623747 3.96957)
(0.171811 -0.0428145 3.77222)
(-0.266019 -0.0408616 0.519736)
(-0.215206 0.166836 0.989239)
(-0.346849 0.0346449 0.715034)
(-0.346617 -0.154091 0.676757)
(-0.247433 -0.207491 0.554241)
(-0.369499 0.286393 1.11031)
(-0.384173 -0.127606 1.02464)
(-0.556906 -0.223148 1.03415)
(-0.599042 -0.183794 1.35306)
(-0.192201 -0.188188 2.06984)
(0.036915 0.76637 1.65973)
(-0.152034 0.480403 1.77616)
(0.280756 -0.0354628 2.55902)
(0.266954 0.0574679 1.75713)
(-0.0259531 -0.0609527 1.81155)
(0.0420599 -0.254475 2.50967)
(0.407036 0.0112144 1.89763)
(0.144178 -0.119785 3.15191)
(-0.149266 0.0194096 2.35523)
(0.164298 0.0336195 2.74352)
(0.179948 -0.205181 3.2458)
(0.0279293 0.0927779 3.99043)
(-0.0772411 0.064732 3.93702)
(0.16746 -0.0455703 3.75136)
(-0.247922 -0.0426407 0.534052)
(-0.241487 0.198484 1.04354)
(-0.35523 -0.000874482 0.792491)
(-0.324395 -0.176 0.749106)
(-0.218436 -0.192447 0.565503)
(-0.359427 0.328005 1.2095)
(-0.356018 -0.199788 1.08591)
(-0.551296 -0.243149 1.03479)
(-0.626285 -0.226976 1.13409)
(-0.333395 -0.36812 1.55422)
(0.0429112 0.749479 1.77572)
(-0.214448 0.487744 1.85165)
(-0.00482355 -0.07883 2.58639)
(0.267307 0.140391 1.74337)
(-0.285256 0.0110151 1.84059)
(-0.004599 -0.205853 2.46667)
(0.35962 0.102762 1.71537)
(0.124223 -0.159123 3.24769)
(-0.0818154 0.0346183 2.32493)
(0.137031 0.00467532 2.66299)
(0.17318 -0.237865 3.24311)
(0.0291143 0.0908016 4.04691)
(-0.0962364 0.0629771 3.90949)
(0.155406 -0.0411731 3.73164)
(-0.198893 -0.0460355 0.547874)
(-0.232237 0.196272 1.08075)
(-0.323444 -0.0268239 0.859607)
(-0.266719 -0.209185 0.824548)
(-0.182444 -0.158689 0.569336)
(-0.343237 0.329709 1.33599)
(-0.309413 -0.24375 1.13856)
(-0.486918 -0.26272 1.03581)
(-0.516304 -0.243759 0.970597)
(-0.300466 -0.330236 1.07746)
(0.0619411 0.645575 1.84416)
(-0.343028 0.407724 1.97277)
(-0.308982 -0.0652537 2.49052)
(0.184857 0.175311 1.74802)
(-0.511702 0.0514275 1.84328)
(-0.19107 -0.0469336 2.40786)
(0.368222 0.190333 1.77376)
(0.0697349 -0.13321 3.29186)
(-0.0186235 -0.00109882 2.33942)
(0.083105 -0.00605682 2.61964)
(0.159563 -0.219802 3.20988)
(0.0125742 0.0880512 4.09474)
(-0.0991005 0.0438643 3.88815)
(0.134816 -0.0386314 3.70408)
(-0.145525 -0.0480891 0.567527)
(-0.190654 0.170013 1.12442)
(-0.234083 0.00603539 0.890739)
(-0.201446 -0.24111 0.881859)