/*--------------------------------*- C++ -*----------------------------------*\
| =========                 |                                                 |
| \\      /  F ield         | OpenFOAM: The Open Source CFD Toolbox           |
|  \\    /   O peration     | Version:  5.x                                   |
|   \\  /    A nd           | Web:      www.OpenFOAM.org                      |
|    \\/     M anipulation  |                                                 |
\*---------------------------------------------------------------------------*/
FoamFile
{
    version     2.0;
    format      ascii;
    class       volVectorField;
    location    "9";
    object      Us;
}
// * * * * * * * * * * * * * * * * * * * * * * * * * * * * * * * * * * * * * //

dimensions      [0 1 -1 0 0 0 0];

internalField   nonuniform List<vector> 
10571
(
(-0.0845266 0.00528755 0.0948986)
(-0.0887176 0.152262 -0.182796)
(0.0443475 0.119227 0.0991346)
(-0.26531 0.151921 0.0400825)
(-0.0626182 0.118284 -0.18158)
(0.0939399 0.232198 0.185605)
(0.0726184 0.147216 0.170701)
(-0.280621 0.208514 0.132063)
(-0.116063 0.264825 -0.00666507)
(-0.0266251 0.137019 -0.0108187)
(0.0184156 -0.0523788 -0.148583)
(0.187083 -0.0725259 -0.0530885)
(0.372982 -0.0551296 0.148382)
(0.0813654 0.144568 0.0760897)
(-0.159305 0.2746 0.144276)
(-0.0704824 0.124784 0.0334775)
(0.176637 0.096784 -0.0422981)
(0.25875 -0.0211684 0.185746)
(0.0828221 -0.126034 0.17827)
(-0.0339226 0.0966597 0.164652)
(-0.123227 0.209018 -0.0118132)
(0.0379907 -0.0500505 -0.03769)
(-0.060222 -0.0382946 0.0352652)
(-0.100688 0.0434668 -0.1748)
(-0.0332073 0.016171 -0.0707688)
(-0.0911682 0.143442 -0.377584)
(-0.12367 0.149788 -0.0262042)
(-0.0291627 0.224911 -0.0384152)
(-0.0305536 0.0835414 -0.374392)
(-0.187229 0.194541 0.242175)
(-0.117275 0.161213 0.241649)
(0.00728451 0.235057 0.0681316)
(0.0255581 0.174281 0.132526)
(-0.0700295 0.00608155 -0.156452)
(0.0102231 0.043548 -0.321338)
(0.0393174 0.036742 -0.231704)
(0.0804552 0.00479395 0.252295)
(0.0208076 0.223399 0.193152)
(-0.0217973 0.23614 0.23533)
(-0.07959 0.0578193 -0.081664)
(0.0273318 0.011822 -0.0921187)
(0.106991 0.0213313 0.272388)
(0.073524 0.105291 0.340493)
(-0.0369994 0.266266 0.2054)
(-0.0775162 0.127424 -0.139153)
(-0.121595 -0.0149035 -0.2273)
(-0.12766 0.110025 -0.0266274)
(-0.158549 0.0966444 -0.22725)
(-0.0566175 0.011128 -0.332843)
(-0.0729212 0.0708644 -0.569654)
(-0.206794 0.115385 -0.0925084)
(-0.0258887 0.0393994 -0.295148)
(-0.0324537 0.0268379 -0.510935)
(0.0265709 -0.000177734 0.122671)
(-0.0301157 0.108329 0.220289)
(0.0492505 0.198709 -0.00479491)
(0.0242289 0.0885267 0.16232)
(-0.0100355 0.048944 -0.45697)
(0.00957152 0.0641894 -0.37145)
(0.0352475 0.105966 -0.151975)
(0.0228691 -0.0680666 0.283347)
(0.0479104 0.200402 0.152846)
(0.0375693 0.223889 0.23125)
(0.00011083 0.104167 -0.232991)
(-0.101726 -0.0239647 -0.263781)
(-0.0927568 0.0394899 0.149409)
(-0.0602579 0.167453 0.263315)
(0.0260779 0.336077 0.225117)
(-0.036011 0.0368681 -0.448785)
(-0.15039 -0.0144939 -0.208806)
(-0.224954 0.0815435 -0.0652591)
(-0.103508 0.0579745 -0.273296)
(-0.0127853 -0.0100691 -0.450933)
(-0.0735947 0.0707817 -0.503894)
(-0.111669 0.0531447 -0.115137)
(0.018088 -0.00375212 -0.261444)
(-0.0209913 -0.0343935 -0.525597)
(0.00161797 -0.0061074 0.099079)
(0.0752722 0.0778474 0.0514779)
(0.0494041 0.090488 -0.0856706)
(0.0536864 0.0378471 -0.0511473)
(0.0138579 0.0639937 -0.531326)
(0.00601809 0.0172112 -0.362415)
(-0.118766 -0.0289367 -0.0670515)
(0.00730667 0.055701 0.133662)
(-0.00237994 0.0506745 0.00760665)
(0.00644411 0.0682448 0.00417596)
(-0.0246443 0.0883679 -0.457928)
(-0.0697277 -0.0129793 -0.232267)
(-0.172065 0.0517019 0.0927107)
(-0.20372 0.0697632 0.176186)
(-0.0910164 0.0377996 -0.0556391)
(-0.019098 -0.000697203 -0.421515)
(-0.148174 0.00704436 -0.164948)
(-0.182878 0.0389997 -0.043232)
(-0.0801672 0.0394384 -0.308557)
(0.0128769 -0.000455434 -0.41424)
(-0.0651818 0.064267 -0.452337)
(-0.0312405 0.00365355 -0.111905)
(-0.0461588 -0.0328991 -0.289114)
(-0.00586168 -0.0575485 -0.472778)
(-0.0588186 0.0179864 0.0804972)
(0.0536532 -0.0155633 0.0697694)
(0.00933051 -0.00131562 -0.034646)
(0.0059903 -0.0117351 -0.133031)
(0.0264409 0.0499775 -0.474882)
(0.00636722 0.00571426 -0.325628)
(-0.120259 -0.00874042 0.0347303)
(-0.0116174 -0.000267085 0.140306)
(-0.0623522 -0.0109912 0.0666716)
(-0.0831859 0.012491 -0.0678214)
(-0.0320724 0.0989218 -0.379525)
(-0.0527432 -0.0207684 -0.186254)
(-0.221848 0.0747287 0.127645)
(-0.199796 0.0728881 0.219596)
(-0.0583717 0.0509857 0.0795309)
(-0.0108886 -0.00328019 -0.334922)
(-0.132764 0.0285082 -0.0983777)
(-0.162162 0.0108259 -0.0350686)
(-0.0905711 0.0414367 -0.247472)
(0.0021939 -0.0100373 -0.409129)
(-0.0483278 0.0523359 -0.435089)
(0.0471912 -0.0763571 -0.0289451)
(-0.040838 -0.0933907 -0.202802)
(0.011627 0.00525077 -0.509577)
(-0.0494357 0.00427396 -0.0352811)
(-0.0355116 -0.0421212 0.0494991)
(-0.0565344 -0.0484962 -0.00193768)
(0.0140603 -0.0435591 -0.202664)
(0.0378498 0.0302258 -0.34357)
(-0.00230513 0.0030625 -0.00247415)
(0.000825706 0.037042 -0.258013)
(-0.142012 -0.0128623 0.15202)
(-0.103161 0.0189388 0.143792)
(-0.118661 -0.0254542 0.0537216)
(0.0189533 0.0347343 -0.114562)
(0.0322053 0.0570522 -0.249264)
(-0.00125406 -0.000512635 -0.00114744)
(-0.194505 0.0739704 -0.0496484)
(-0.151895 0.133026 0.031841)
(-0.104294 0.113283 0.143842)
(-0.0236615 0.0644782 -0.0368597)
(0.00951174 0.0222153 -0.20546)
(-0.109616 0.12698 -0.0692142)
(-0.126447 0.0679408 0.00362448)
(-0.0851338 0.0529528 -0.141336)
(-0.00120526 -0.00176719 -0.388681)
(-0.0373123 0.0398719 -0.356162)
(0.0368448 -0.111609 -0.00996358)
(-0.0262562 -0.137713 -0.0827534)
(0.02012 0.00920064 -0.463677)
(-0.0962315 -0.0273836 -0.0290921)
(-0.0839167 -0.0643221 0.0418453)
(-0.0525207 -0.0429141 -0.0825634)
(0.0910549 -0.0165643 -0.223999)
(0.118249 0.0245776 -0.37079)
(0.0412155 0.00994227 -0.0210759)
(-0.0123497 0.0837618 -0.235008)
(-0.224096 0.0286968 0.0277939)
(-0.0758731 0.0832369 0.0322514)
(-0.0484397 0.0247419 0.0673868)
(0.081969 0.0989412 -0.152435)
(0.153999 0.0984253 -0.274111)
(0 0 0)
(-0.0923761 0.135385 -0.104608)
(-0.0880435 0.165664 0.0251266)
(-0.0740091 0.139533 0.155626)
(0.0347511 0.127962 -0.001158)
(0.00532829 0.0604992 -0.177927)
(0 0 0)
(0.00857024 0.121903 -0.0688148)
(-0.0806988 0.174277 0.104011)
(-0.0919368 0.0623571 0.0124838)
(0.00419327 0.0035372 -0.39457)
(-0.0218178 0.017931 -0.272306)
(-0.0500039 -0.151029 0.0237997)
(-0.0149932 -0.122418 -0.0519957)
(0.0295615 0.00835973 -0.403676)
(-0.204567 -0.0576866 -0.0418696)
(-0.0719715 -0.0173955 -0.0461307)
(0.00198459 -0.00291389 -0.104478)
(0.107767 0.0217388 -0.206339)
(0.161169 0.0345138 -0.345336)
(0 0 0)
(0.00314361 0.0951154 -0.259581)
(-0.167595 0.0925215 -0.0550275)
(-0.0295203 0.137878 -0.0659791)
(0.0268527 0.0962098 -0.03494)
(0.0997763 0.103012 -0.189915)
(0.16133 0.105757 -0.291701)
(0 0 0)
(0.0644361 0.125343 -0.158764)
(-0.0102686 0.231313 -0.0663138)
(0.0188877 0.198245 0.0753615)
(0.0753884 0.178462 -0.0118149)
(0 0 0)
(0 0 0)
(0 0 0)
(0 0 0)
(0.0503122 0.269004 -0.13992)
(-0.00579478 -0.00455457 -0.34)
(-0.0776029 -0.0216229 -0.147359)
(-0.0975946 -0.135335 -0.0530604)
(-0.000681732 -0.123553 -0.103348)
(0.0611804 -0.0209319 -0.303597)
(-0.136458 0.0197487 -0.132846)
(-0.0334811 0.0476892 -0.131032)
(0.0288559 0.0320651 -0.14577)
(0.0997905 0.0390409 -0.195652)
(0.15712 0.0305424 -0.25927)
(0 0 0)
(-0.00195462 0.111642 -0.208101)
(-0.0652462 0.134586 -0.165304)
(-0.0248303 0.153021 -0.131281)
(0.0337773 0.136923 -0.0991244)
(0.0887701 0.133277 -0.16882)
(0.152888 0.12359 -0.241177)
(0 0 0)
(0.191676 -0.0353089 -0.07671)
(-0.0438599 0.239324 -0.0338641)
(0.00994268 0.208288 0.0257404)
(0.092797 0.191394 -0.0718249)
(0 0 0)
(0 0 0)
(0 0 0)
(-0.131375 -0.174099 0.0177377)
(0.019541 -0.0157205 -0.214994)
(-0.0470691 0.000354854 -0.170428)
(-0.0499045 -0.0776886 -0.180116)
(0.0300256 -0.0608733 -0.225042)
(0.058951 -0.0177503 -0.23632)
(-0.104757 0.0252968 -0.193153)
(-0.0269794 0.0579521 -0.131562)
(0.0375019 0.045353 -0.14864)
(0.0810993 0.0385961 -0.172615)
(0 0 0)
(0.000201591 0.12267 -0.173645)
(-0.114392 0.141115 -0.158357)
(0 0 0)
(0.0110341 0.172537 -0.0466656)
(0 0 0)
(0 0 0)
(-0.108167 0.200632 -0.0875047)
(-0.037756 0.240261 0.0278861)
(0.0111722 0.230025 0.0580784)
(0 0 0)
(0 0 0)
(0 0 0)
(-0.0311494 0.272509 0.0965055)
(0 0 0)
(0 0 0)
(-0.0585713 0.0557042 -0.183831)
(0 0 0)
(0 0 0)
(0 0 0)
(0 0 0)
(0 0 0)
(0 0 0)
(0 0 0)
(0 0 0)
(0 0 0)
(0 0 0)
(0 0 0)
(0 0 0)
(0 0 0)
(0 0 0)
(0 0 0)
(0.22291 0.0291147 0.083598)
(0 0 0)
(0 0 0)
(0 0 0)
(0 0 0)
(0 0 0)
(0 0 0)
(0 0 0)
(0 0 0)
(0 0 0)
(0 0 0)
(0 0 0)
(0 0 0)
(0 0 0)
(0 0 0)
(0 0 0)
(0 0 0)
(0 0 0)
(0 0 0)
(0 0 0)
(0 0 0)
(0 0 0)
(0 0 0)
(0 0 0)
(0 0 0)
(0 0 0)
(0 0 0)
(0 0 0)
(0 0 0)
(0 0 0)
(0 0 0)
(0 0 0)
(0 0 0)
(0 0 0)
(0 0 0)
(0 0 0)
(0 0 0)
(0 0 0)
(0 0 0)
(0 0 0)
(0 0 0)
(0 0 0)
(0 0 0)
(0 0 0)
(0 0 0)
(0 0 0)
(0 0 0)
(0 0 0)
(0 0 0)
(0 0 0)
(0 0 0)
(0 0 0)
(0 0 0)
(0 0 0)
(0 0 0)
(0 0 0)
(0 0 0)
(0 0 0)
(0 0 0)
(0 0 0)
(0 0 0)
(0 0 0)
(0 0 0)
(0 0 0)
(0 0 0)
(0 0 0)
(0 0 0)
(0 0 0)
(0 0 0)
(0 0 0)
(0 0 0)
(0 0 0)
(0 0 0)
(0 0 0)
(0 0 0)
(0 0 0)
(0 0 0)
(0 0 0)
(0 0 0)
(0 0 0)
(0 0 0)
(0 0 0)
(0 0 0)
(0 0 0)
(0 0 0)
(0 0 0)
(0 0 0)
(0 0 0)
(0 0 0)
(0 0 0)
(0 0 0)
(0 0 0)
(0 0 0)
(0 0 0)
(0 0 0)
(0 0 0)
(0 0 0)
(0 0 0)
(0 0 0)
(0 0 0)
(0 0 0)
(0 0 0)
(0 0 0)
(0 0 0)
(0 0 0)
(0 0 0)
(0 0 0)
(0 0 0)
(0 0 0)
(0 0 0)
(0 0 0)
(0 0 0)
(0 0 0)
(0 0 0)
(0 0 0)
(0 0 0)
(0 0 0)
(0 0 0)
(0 0 0)
(0 0 0)
(0 0 0)
(0 0 0)
(0 0 0)
(0 0 0)
(0 0 0)
(0 0 0)
(0 0 0)
(0 0 0)
(0 0 0)
(0 0 0)
(0 0 0)
(0 0 0)
(0 0 0)
(0 0 0)
(0 0 0)
(0 0 0)
(0 0 0)
(0 0 0)
(0 0 0)
(0 0 0)
(0 0 0)
(0 0 0)
(0 0 0)
(0 0 0)
(0 0 0)
(0 0 0)
(0 0 0)
(0 0 0)
(0 0 0)
(0 0 0)
(0 0 0)
(0 0 0)
(0 0 0)
(0 0 0)
(0 0 0)
(0 0 0)
(0 0 0)
(0 0 0)
(0 0 0)
(0 0 0)
(0 0 0)
(0 0 0)
(0 0 0)
(0 0 0)
(0 0 0)
(0 0 0)
(0 0 0)
(0 0 0)
(0 0 0)
(0 0 0)
(0 0 0)
(0 0 0)
(0 0 0)
(0 0 0)
(0 0 0)
(0 0 0)
(0 0 0)
(0 0 0)
(0 0 0)
(0 0 0)
(0 0 0)
(0 0 0)
(0 0 0)
(0 0 0)
(0 0 0)
(0 0 0)
(0 0 0)
(0 0 0)
(0 0 0)
(0 0 0)
(0 0 0)
(0 0 0)
(0 0 0)
(0 0 0)
(0 0 0)
(0 0 0)
(0 0 0)
(0 0 0)
(0 0 0)
(0 0 0)
(0 0 0)
(0 0 0)
(0 0 0)
(0 0 0)
(0 0 0)
(0 0 0)
(0 0 0)
(0 0 0)
(0 0 0)
(0 0 0)
(0 0 0)
(0 0 0)
(0 0 0)
(0 0 0)
(0 0 0)
(0 0 0)
(0 0 0)
(0 0 0)
(0 0 0)
(0 0 0)
(0 0 0)
(0 0 0)
(0 0 0)
(0 0 0)
(0 0 0)
(0 0 0)
(0 0 0)
(0 0 0)
(0 0 0)
(0 0 0)
(0 0 0)
(0 0 0)
(0 0 0)
(0 0 0)
(0 0 0)
(0 0 0)
(0 0 0)
(0 0 0)
(0 0 0)
(0 0 0)
(0 0 0)
(0 0 0)
(0 0 0)
(0 0 0)
(0 0 0)
(0 0 0)
(0 0 0)
(0 0 0)
(0 0 0)
(0 0 0)
(0 0 0)
(0 0 0)
(0 0 0)
(0 0 0)
(0 0 0)
(0 0 0)
(0 0 0)
(0 0 0)
(0 0 0)
(0 0 0)
(0 0 0)
(0 0 0)
(0 0 0)
(0 0 0)
(0 0 0)
(0 0 0)
(0 0 0)
(0 0 0)
(0 0 0)
(0 0 0)
(0 0 0)
(0 0 0)
(0 0 0)
(0 0 0)
(0 0 0)
(0 0 0)
(0 0 0)
(0 0 0)
(0 0 0)
(0 0 0)
(0 0 0)
(0 0 0)
(0 0 0)
(0 0 0)
(0 0 0)
(0 0 0)
(0 0 0)
(0 0 0)
(0 0 0)
(0 0 0)
(0 0 0)
(0 0 0)
(0 0 0)
(0 0 0)
(0 0 0)
(0 0 0)
(0 0 0)
(0 0 0)
(0 0 0)
(0 0 0)
(0 0 0)
(0 0 0)
(0 0 0)
(0 0 0)
(0 0 0)
(0 0 0)
(0 0 0)
(0 0 0)
(0 0 0)
(0 0 0)
(0 0 0)
(0 0 0)
(0 0 0)
(0 0 0)
(0 0 0)
(0 0 0)
(0 0 0)
(0 0 0)
(0 0 0)
(0 0 0)
(0 0 0)
(0 0 0)
(0 0 0)
(0 0 0)
(0 0 0)
(0 0 0)
(0 0 0)
(0 0 0)
(0 0 0)
(0 0 0)
(0 0 0)
(0 0 0)
(0 0 0)
(0 0 0)
(0 0 0)
(0 0 0)
(0 0 0)
(0 0 0)
(0 0 0)
(0 0 0)
(0 0 0)
(0 0 0)
(0 0 0)
(0 0 0)
(0 0 0)
(0 0 0)
(0 0 0)
(0 0 0)
(0 0 0)
(0 0 0)
(0 0 0)
(0 0 0)
(0 0 0)
(0 0 0)
(0 0 0)
(0 0 0)
(0 0 0)
(0 0 0)
(0 0 0)
(0 0 0)
(0 0 0)
(0 0 0)
(0 0 0)
(0 0 0)
(0 0 0)
(0 0 0)
(0 0 0)
(0 0 0)
(0 0 0)
(0 0 0)
(0 0 0)
(0 0 0)
(0 0 0)
(0 0 0)
(0 0 0)
(0 0 0)
(0 0 0)
(0 0 0)
(0 0 0)
(0 0 0)
(0 0 0)
(0 0 0)
(0 0 0)
(0 0 0)
(0 0 0)
(0 0 0)
(0 0 0)
(0 0 0)
(0 0 0)
(0 0 0)
(0 0 0)
(0 0 0)
(0 0 0)
(0 0 0)
(0 0 0)
(0 0 0)
(0 0 0)
(0 0 0)
(0 0 0)
(0 0 0)
(0 0 0)
(0 0 0)
(0 0 0)
(0 0 0)
(0 0 0)
(0 0 0)
(0 0 0)
(0 0 0)
(0 0 0)
(0 0 0)
(0 0 0)
(0 0 0)
(0 0 0)
(0 0 0)
(0 0 0)
(0 0 0)
(0 0 0)
(0 0 0)
(0 0 0)
(0 0 0)
(0 0 0)
(0 0 0)
(0 0 0)
(0 0 0)
(0 0 0)
(0 0 0)
(0 0 0)
(0 0 0)
(0 0 0)
(0 0 0)
(0 0 0)
(0 0 0)
(0 0 0)
(0 0 0)
(0 0 0)
(0 0 0)
(0 0 0)
(0 0 0)
(0 0 0)
(0 0 0)
(0 0 0)
(0 0 0)
(0 0 0)
(0 0 0)
(0 0 0)
(0 0 0)
(0 0 0)
(0 0 0)
(0 0 0)
(0 0 0)
(0 0 0)
(0 0 0)
(0 0 0)
(0 0 0)
(0 0 0)
(0 0 0)
(0 0 0)
(0 0 0)
(0 0 0)
(0 0 0)
(0 0 0)
(0 0 0)
(0 0 0)
(0 0 0)
(0 0 0)
(0 0 0)
(0 0 0)
(0 0 0)
(0 0 0)
(0 0 0)
(0 0 0)
(0 0 0)
(0 0 0)
(0 0 0)
(0 0 0)
(0 0 0)
(0 0 0)
(0 0 0)
(0 0 0)
(0 0 0)
(0 0 0)
(0 0 0)
(0 0 0)
(0 0 0)
(0 0 0)
(0 0 0)
(0 0 0)
(0 0 0)
(0 0 0)
(0 0 0)
(0 0 0)
(0 0 0)
(0 0 0)
(0 0 0)
(0 0 0)
(0 0 0)
(0 0 0)
(0 0 0)
(0 0 0)
(0 0 0)
(0 0 0)
(0 0 0)
(0 0 0)
(0 0 0)
(0 0 0)
(0 0 0)
(0 0 0)
(0 0 0)
(0 0 0)
(0 0 0)
(0 0 0)
(0 0 0)
(0 0 0)
(0 0 0)
(0 0 0)
(0 0 0)
(0 0 0)
(0 0 0)
(0 0 0)
(0 0 0)
(0 0 0)
(0 0 0)
(0 0 0)
(0 0 0)
(0 0 0)
(0 0 0)
(0 0 0)
(0 0 0)
(0 0 0)
(0 0 0)
(0 0 0)
(0 0 0)
(0 0 0)
(0 0 0)
(0 0 0)
(0 0 0)
(0 0 0)
(0 0 0)
(0 0 0)
(0 0 0)
(0 0 0)
(0 0 0)
(0 0 0)
(0 0 0)
(0 0 0)
(0 0 0)
(0 0 0)
(0 0 0)
(0 0 0)
(0 0 0)
(0 0 0)
(0 0 0)
(0 0 0)
(0 0 0)
(0 0 0)
(0 0 0)
(0 0 0)
(0 0 0)
(0 0 0)
(0 0 0)
(0 0 0)
(0 0 0)
(0 0 0)
(0 0 0)
(0 0 0)
(0 0 0)
(0 0 0)
(0 0 0)
(0 0 0)
(0 0 0)
(0 0 0)
(0 0 0)
(0 0 0)
(0 0 0)
(0 0 0)
(0 0 0)
(0 0 0)
(0 0 0)
(0 0 0)
(0 0 0)
(0 0 0)
(0 0 0)
(0 0 0)
(0 0 0)
(0 0 0)
(0 0 0)
(0 0 0)
(0 0 0)
(0 0 0)
(0 0 0)
(0 0 0)
(0 0 0)
(0 0 0)
(0 0 0)
(0 0 0)
(0 0 0)
(0 0 0)
(0 0 0)
(0 0 0)
(0 0 0)
(0 0 0)
(0 0 0)
(0 0 0)
(0 0 0)
(0 0 0)
(0 0 0)
(0 0 0)
(0 0 0)
(0 0 0)
(0 0 0)
(0 0 0)
(0 0 0)
(0 0 0)
(0 0 0)
(0 0 0)
(0 0 0)
(0 0 0)
(0 0 0)
(0 0 0)
(0 0 0)
(0 0 0)
(0 0 0)
(0 0 0)
(0 0 0)
(0 0 0)
(0 0 0)
(0 0 0)
(0 0 0)
(0 0 0)
(0 0 0)
(0 0 0)
(0 0 0)
(0 0 0)
(0 0 0)
(0 0 0)
(0 0 0)
(0 0 0)
(0 0 0)
(0 0 0)
(0 0 0)
(0 0 0)
(0 0 0)
(0 0 0)
(0 0 0)
(0 0 0)
(0 0 0)
(0 0 0)
(0 0 0)
(0 0 0)
(0 0 0)
(0 0 0)
(0 0 0)
(0 0 0)
(0 0 0)
(0 0 0)
(0 0 0)
(0 0 0)
(0 0 0)
(0 0 0)
(0 0 0)
(0 0 0)
(0 0 0)
(0 0 0)
(0 0 0)
(0 0 0)
(0 0 0)
(0 0 0)
(0 0 0)
(0 0 0)
(0 0 0)
(0 0 0)
(0 0 0)
(0 0 0)
(0 0 0)
(0 0 0)
(0 0 0)
(0 0 0)
(0 0 0)
(0 0 0)
(0 0 0)
(0 0 0)
(0 0 0)
(0 0 0)
(0 0 0)
(0 0 0)
(0 0 0)
(0 0 0)
(0 0 0)
(0 0 0)
(0 0 0)
(0 0 0)
(0 0 0)
(0 0 0)
(0 0 0)
(0 0 0)
(0 0 0)
(0 0 0)
(0 0 0)
(0 0 0)
(0 0 0)
(0 0 0)
(0 0 0)
(0 0 0)
(0 0 0)
(0 0 0)
(0 0 0)
(0 0 0)
(0 0 0)
(0 0 0)
(0 0 0)
(0 0 0)
(0 0 0)
(0 0 0)
(0 0 0)
(0 0 0)
(0 0 0)
(0 0 0)
(0 0 0)
(0 0 0)
(0 0 0)
(0 0 0)
(0 0 0)
(0 0 0)
(0 0 0)
(0 0 0)
(0 0 0)
(0 0 0)
(0 0 0)
(0 0 0)
(0 0 0)
(0 0 0)
(0 0 0)
(0 0 0)
(0 0 0)
(0 0 0)
(0 0 0)
(0 0 0)
(0 0 0)
(0 0 0)
(0 0 0)
(0 0 0)
(0 0 0)
(0 0 0)
(0 0 0)
(0 0 0)
(0 0 0)
(0 0 0)
(0 0 0)
(0 0 0)
(0 0 0)
(0 0 0)
(0 0 0)
(0 0 0)
(0 0 0)
(0 0 0)
(0 0 0)
(0 0 0)
(0 0 0)
(0 0 0)
(0 0 0)
(0 0 0)
(0 0 0)
(0 0 0)
(0 0 0)
(0 0 0)
(0 0 0)
(0 0 0)
(0 0 0)
(0 0 0)
(0 0 0)
(0 0 0)
(0 0 0)
(0 0 0)
(0 0 0)
(0 0 0)
(0 0 0)
(0 0 0)
(0 0 0)
(0 0 0)
(0 0 0)
(0 0 0)
(0 0 0)
(0 0 0)
(0 0 0)
(0 0 0)
(0 0 0)
(0 0 0)
(0 0 0)
(0 0 0)
(0 0 0)
(0 0 0)
(0 0 0)
(0 0 0)
(0 0 0)
(0 0 0)
(0 0 0)
(0 0 0)
(0 0 0)
(0 0 0)
(0 0 0)
(0 0 0)
(0 0 0)
(0 0 0)
(0 0 0)
(0 0 0)
(0 0 0)
(0 0 0)
(0 0 0)
(0 0 0)
(0 0 0)
(0 0 0)
(0 0 0)
(0 0 0)
(0 0 0)
(0 0 0)
(0 0 0)
(0 0 0)
(0 0 0)
(0 0 0)
(0 0 0)
(0 0 0)
(0 0 0)
(0 0 0)
(0 0 0)
(0 0 0)
(0 0 0)
(0 0 0)
(0 0 0)
(0 0 0)
(0 0 0)
(0 0 0)
(0 0 0)
(0 0 0)
(0 0 0)
(0 0 0)
(0 0 0)
(0 0 0)
(0 0 0)
(0 0 0)
(0 0 0)
(0 0 0)
(0 0 0)
(0 0 0)
(0 0 0)
(0 0 0)
(0 0 0)
(0 0 0)
(0 0 0)
(0 0 0)
(0 0 0)
(0 0 0)
(0 0 0)
(0 0 0)
(0 0 0)
(0 0 0)
(0 0 0)
(0 0 0)
(0 0 0)
(0 0 0)
(0 0 0)
(0 0 0)
(0 0 0)
(0 0 0)
(0 0 0)
(0 0 0)
(0 0 0)
(0 0 0)
(0 0 0)
(0 0 0)
(0 0 0)
(0 0 0)
(0 0 0)
(0 0 0)
(0 0 0)
(0 0 0)
(0 0 0)
(0 0 0)
(0 0 0)
(0 0 0)
(0 0 0)
(0 0 0)
(0 0 0)
(0 0 0)
(0 0 0)
(0 0 0)
(0 0 0)
(0 0 0)
(0 0 0)
(0 0 0)
(0 0 0)
(0 0 0)
(0 0 0)
(0 0 0)
(0 0 0)
(0 0 0)
(0 0 0)
(0 0 0)
(0 0 0)
(0 0 0)
(0 0 0)
(0 0 0)
(0 0 0)
(0 0 0)
(0 0 0)
(0 0 0)
(0 0 0)
(0 0 0)
(0 0 0)
(0 0 0)
(0 0 0)
(0 0 0)
(0 0 0)
(0 0 0)
(0 0 0)
(0 0 0)
(0 0 0)
(0 0 0)
(0 0 0)
(0 0 0)
(0 0 0)
(0 0 0)
(0 0 0)
(0 0 0)
(0 0 0)
(0 0 0)
(0 0 0)
(0 0 0)
(0 0 0)
(0 0 0)
(0 0 0)
(0 0 0)
(0 0 0)
(0 0 0)
(0 0 0)
(0 0 0)
(0 0 0)
(0 0 0)
(0 0 0)
(0 0 0)
(0 0 0)
(0 0 0)
(0 0 0)
(0 0 0)
(0 0 0)
(0 0 0)
(0 0 0)
(0 0 0)
(0 0 0)
(0 0 0)
(0 0 0)
(0 0 0)
(0 0 0)
(0 0 0)
(0 0 0)
(0 0 0)
(0 0 0)
(0 0 0)
(0 0 0)
(0 0 0)
(0 0 0)
(0 0 0)
(0 0 0)
(0 0 0)
(0 0 0)
(0 0 0)
(0 0 0)
(0 0 0)
(0 0 0)
(0 0 0)
(0 0 0)
(0 0 0)
(0 0 0)
(0 0 0)
(0 0 0)
(0 0 0)
(0 0 0)
(0 0 0)
(0 0 0)
(0 0 0)
(0 0 0)
(0 0 0)
(0 0 0)
(0 0 0)
(0 0 0)
(0 0 0)
(0 0 0)
(0 0 0)
(0 0 0)
(0 0 0)
(0 0 0)
(0 0 0)
(0 0 0)
(0 0 0)
(0 0 0)
(0 0 0)
(0 0 0)
(0 0 0)
(0 0 0)
(0 0 0)
(0 0 0)
(0 0 0)
(0 0 0)
(0 0 0)
(0 0 0)
(0 0 0)
(0 0 0)
(0 0 0)
(0 0 0)
(0 0 0)
(0 0 0)
(0 0 0)
(0 0 0)
(0 0 0)
(0 0 0)
(0 0 0)
(0 0 0)
(0 0 0)
(0 0 0)
(0 0 0)
(0 0 0)
(0 0 0)
(0 0 0)
(0 0 0)
(0 0 0)
(0 0 0)
(0 0 0)
(0 0 0)
(0 0 0)
(0 0 0)
(0 0 0)
(0 0 0)
(0 0 0)
(0 0 0)
(0 0 0)
(0 0 0)
(0 0 0)
(0 0 0)
(0 0 0)
(0 0 0)
(0 0 0)
(0 0 0)
(0 0 0)
(0 0 0)
(0 0 0)
(0 0 0)
(0 0 0)
(0 0 0)
(0 0 0)
(0 0 0)
(0 0 0)
(0 0 0)
(0 0 0)
(0 0 0)
(0 0 0)
(0 0 0)
(0 0 0)
(0 0 0)
(0 0 0)
(0 0 0)
(0 0 0)
(0 0 0)
(0 0 0)
(0 0 0)
(0 0 0)
(0 0 0)
(0 0 0)
(0 0 0)
(0 0 0)
(0 0 0)
(0 0 0)
(0 0 0)
(0 0 0)
(0 0 0)
(0 0 0)
(0 0 0)
(0 0 0)
(0 0 0)
(0 0 0)
(0 0 0)
(0 0 0)
(0 0 0)
(0 0 0)
(0 0 0)
(0 0 0)
(0 0 0)
(0 0 0)
(0 0 0)
(0 0 0)
(0 0 0)
(0 0 0)
(0 0 0)
(0 0 0)
(0 0 0)
(0 0 0)
(0 0 0)
(0 0 0)
(0 0 0)
(0 0 0)
(0 0 0)
(0 0 0)
(0 0 0)
(0 0 0)
(0 0 0)
(0 0 0)
(0 0 0)
(0 0 0)
(0 0 0)
(0 0 0)
(0 0 0)
(0 0 0)
(0 0 0)
(0 0 0)
(0 0 0)
(0 0 0)
(0 0 0)
(0 0 0)
(0 0 0)
(0 0 0)
(0 0 0)
(0 0 0)
(0 0 0)
(0 0 0)
(0 0 0)
(0 0 0)
(0 0 0)
(0 0 0)
(0 0 0)
(0 0 0)
(0 0 0)
(0 0 0)
(0 0 0)
(0 0 0)
(0 0 0)
(0 0 0)
(0 0 0)
(0 0 0)
(0 0 0)
(0 0 0)
(0 0 0)
(0 0 0)
(0 0 0)
(0 0 0)
(0 0 0)
(0 0 0)
(0 0 0)
(0 0 0)
(0 0 0)
(0 0 0)
(0 0 0)
(0 0 0)
(0 0 0)
(0 0 0)
(0 0 0)
(0 0 0)
(0 0 0)
(0 0 0)
(0 0 0)
(0 0 0)
(0 0 0)
(0 0 0)
(0 0 0)
(0 0 0)
(0 0 0)
(0 0 0)
(0 0 0)
(0 0 0)
(0 0 0)
(0 0 0)
(0 0 0)
(0 0 0)
(0 0 0)
(0 0 0)
(0 0 0)
(0 0 0)
(0 0 0)
(0 0 0)
(0 0 0)
(0 0 0)
(0 0 0)
(0 0 0)
(0 0 0)
(0 0 0)
(0 0 0)
(0 0 0)
(0 0 0)
(0 0 0)
(0 0 0)
(0 0 0)
(0 0 0)
(0 0 0)
(0 0 0)
(0 0 0)
(0 0 0)
(0 0 0)
(0 0 0)
(0 0 0)
(0 0 0)
(0 0 0)
(0 0 0)
(0 0 0)
(0 0 0)
(0 0 0)
(0 0 0)
(0 0 0)
(0 0 0)
(0 0 0)
(0 0 0)
(0 0 0)
(0 0 0)
(0 0 0)
(0 0 0)
(0 0 0)
(0 0 0)
(0 0 0)
(0 0 0)
(0 0 0)
(0 0 0)
(0 0 0)
(0 0 0)
(0 0 0)
(0 0 0)
(0 0 0)
(0 0 0)
(0 0 0)
(0 0 0)
(0 0 0)
(0 0 0)
(0 0 0)
(0 0 0)
(0 0 0)
(0 0 0)
(0 0 0)
(0 0 0)
(0 0 0)
(0 0 0)
(0 0 0)
(0 0 0)
(0 0 0)
(0 0 0)
(0 0 0)
(0 0 0)
(0 0 0)
(0 0 0)
(0 0 0)
(0 0 0)
(0 0 0)
(0 0 0)
(0 0 0)
(0 0 0)
(0 0 0)
(0 0 0)
(0 0 0)
(0 0 0)
(0 0 0)
(0 0 0)
(0 0 0)
(0 0 0)
(0 0 0)
(0 0 0)
(0 0 0)
(0 0 0)
(0 0 0)
(0 0 0)
(0 0 0)
(0 0 0)
(0 0 0)
(0 0 0)
(0 0 0)
(0 0 0)
(0 0 0)
(0 0 0)
(0 0 0)
(0 0 0)
(0 0 0)
(0 0 0)
(0 0 0)
(0 0 0)
(0 0 0)
(0 0 0)
(0 0 0)
(0 0 0)
(0 0 0)
(0 0 0)
(0 0 0)
(0 0 0)
(0 0 0)
(0 0 0)
(0 0 0)
(0 0 0)
(0 0 0)
(0 0 0)
(0 0 0)
(0 0 0)
(0 0 0)
(0 0 0)
(0 0 0)
(0 0 0)
(0 0 0)
(0 0 0)
(0 0 0)
(0 0 0)
(0 0 0)
(0 0 0)
(0 0 0)
(0 0 0)
(0 0 0)
(0 0 0)
(0 0 0)
(0 0 0)
(0 0 0)
(0 0 0)
(0 0 0)
(0 0 0)
(0 0 0)
(0 0 0)
(0 0 0)
(0 0 0)
(0 0 0)
(0 0 0)
(0 0 0)
(0 0 0)
(0 0 0)
(0 0 0)
(0 0 0)
(0 0 0)
(0 0 0)
(0 0 0)
(0 0 0)
(0 0 0)
(0 0 0)
(0 0 0)
(0 0 0)
(0 0 0)
(0 0 0)
(0 0 0)
(0 0 0)
(0 0 0)
(0 0 0)
(0 0 0)
(0 0 0)
(0 0 0)
(0 0 0)
(0 0 0)
(0 0 0)
(0 0 0)
(0 0 0)
(0 0 0)
(0 0 0)
(0 0 0)
(0 0 0)
(0 0 0)
(0 0 0)
(0 0 0)
(0 0 0)
(0 0 0)
(0 0 0)
(0 0 0)
(0 0 0)
(0 0 0)
(0 0 0)
(0 0 0)
(0 0 0)
(0 0 0)
(0 0 0)
(0 0 0)
(0 0 0)
(0 0 0)
(0 0 0)
(0 0 0)
(0 0 0)
(0 0 0)
(0 0 0)
(0 0 0)
(0 0 0)
(0 0 0)
(0 0 0)
(0 0 0)
(0 0 0)
(0 0 0)
(0 0 0)
(0 0 0)
(0 0 0)
(0 0 0)
(0 0 0)
(0 0 0)
(0 0 0)
(0 0 0)
(0 0 0)
(0 0 0)
(0 0 0)
(0 0 0)
(0 0 0)
(0 0 0)
(0 0 0)
(0 0 0)
(0 0 0)
(0 0 0)
(0 0 0)
(0 0 0)
(0 0 0)
(0 0 0)
(0 0 0)
(0 0 0)
(0 0 0)
(0 0 0)
(0 0 0)
(0 0 0)
(0 0 0)
(0 0 0)
(0 0 0)
(0 0 0)
(0 0 0)
(0 0 0)
(0 0 0)
(0 0 0)
(0 0 0)
(0 0 0)
(0 0 0)
(0 0 0)
(0 0 0)
(0 0 0)
(0 0 0)
(0 0 0)
(0 0 0)
(0 0 0)
(0 0 0)
(0 0 0)
(0 0 0)
(0 0 0)
(0 0 0)
(0 0 0)
(0 0 0)
(0 0 0)
(0 0 0)
(0 0 0)
(0 0 0)
(0 0 0)
(0 0 0)
(0 0 0)
(0 0 0)
(0 0 0)
(0 0 0)
(0 0 0)
(0 0 0)
(0 0 0)
(0 0 0)
(0 0 0)
(0 0 0)
(0 0 0)
(0 0 0)
(0 0 0)
(0 0 0)
(0 0 0)
(0 0 0)
(0 0 0)
(0 0 0)
(0 0 0)
(0 0 0)
(0 0 0)
(0 0 0)
(0 0 0)
(0 0 0)
(0 0 0)
(0 0 0)
(0 0 0)
(0 0 0)
(0 0 0)
(0 0 0)
(0 0 0)
(0 0 0)
(0 0 0)
(0 0 0)
(0 0 0)
(0 0 0)
(0 0 0)
(0 0 0)
(0 0 0)
(0 0 0)
(0 0 0)
(0 0 0)
(0 0 0)
(0 0 0)
(0 0 0)
(0 0 0)
(0 0 0)
(0 0 0)
(0 0 0)
(0 0 0)
(0 0 0)
(0 0 0)
(0 0 0)
(0 0 0)
(0 0 0)
(0 0 0)
(0 0 0)
(0 0 0)
(0 0 0)
(0 0 0)
(0 0 0)
(0 0 0)
(0 0 0)
(0 0 0)
(0 0 0)
(0 0 0)
(0 0 0)
(0 0 0)
(0 0 0)
(0 0 0)
(0 0 0)
(0 0 0)
(0 0 0)
(0 0 0)
(0 0 0)
(0 0 0)
(0 0 0)
(0 0 0)
(0 0 0)
(0 0 0)
(0 0 0)
(0 0 0)
(0 0 0)
(0 0 0)
(0 0 0)
(0 0 0)
(0 0 0)
(0 0 0)
(0 0 0)
(0 0 0)
(0 0 0)
(0 0 0)
(0 0 0)
(0 0 0)
(0 0 0)
(0 0 0)
(0 0 0)
(0 0 0)
(0 0 0)
(0 0 0)
(0 0 0)
(0 0 0)
(0 0 0)
(0 0 0)
(0 0 0)
(0 0 0)
(0 0 0)
(0 0 0)
(0 0 0)
(0 0 0)
(0 0 0)
(0 0 0)
(0 0 0)
(0 0 0)
(0.0623134 0.038783 -0.0496874)
(-0.0343216 0.0170472 -0.00805433)
(0.0594216 0.0846949 0.0310905)
(-0.155418 0.0653403 0.0393944)
(-0.0952433 -0.00327593 -0.0127986)
(-0.299487 0.0528311 0.0145501)
(-0.207528 0.0460066 -0.0677825)
(-0.0866688 0.0263848 -0.0677335)
(-0.00153186 0.118351 -0.0108947)
(0.00411943 0.114148 -0.0598493)
(0.0954907 0.12379 -0.0410449)
(0.0322583 0.190709 0.00578845)
(0.165239 0.165188 0.0652538)
(0.107537 0.19431 0.0706529)
(-0.252701 0.201976 0.070867)
(0.155518 0.219427 0.0948331)
(-0.245748 0.290829 0.0701947)
(-0.38065 0.190317 0.0461072)
(-0.264623 0.175869 -0.0453794)
(-0.367486 0.276188 0.0630468)
(-0.262603 0.287876 0.000979939)
(-0.0858251 0.13562 -0.0637191)
(0.0144851 0.103606 -0.0444615)
(-0.13777 0.287619 -0.0462391)
(-0.00144505 0.232527 -0.0393091)
(0.0325642 0.132458 -0.0395609)
(0.0741025 0.112102 0.033229)
(0.0721827 -0.0374577 -0.0349242)
(0.159743 0.0155275 0.0401075)
(0.17447 0.140461 0.140577)
(0.163631 0.0902817 0.100749)
(0.326921 -0.00349273 0.126605)
(0.327783 0.0143557 0.0949501)
(0.0798345 0.117003 0.0305445)
(-0.0570096 0.167463 0.0214174)
(0.0142066 0.148469 0.00138498)
(-0.0408841 0.0829811 -0.00516728)
(-0.324045 0.31491 0.0307354)
(-0.280186 0.40574 0.0167406)
(-0.0567557 0.0902272 -0.00861742)
(-0.0635024 0.159181 -0.00446548)
(-0.176537 0.410221 0.0156168)
(-0.0577462 0.351267 0.0113965)
(-0.101374 0.286725 0.00985999)
(-0.121536 0.364123 0.0160925)
(-0.00978949 0.177092 -0.0148656)
(-0.0586789 0.173527 0.00198166)
(-0.0225231 0.0315673 -0.0198648)
(0.0575479 -0.0579455 -0.0792649)
(0.158652 -0.0332918 -0.048479)
(0.142313 0.0985042 -0.0665079)
(0.327523 -0.0696855 0.0145245)
(0.412471 -0.0776077 0.0553287)
(0.267612 0.0787035 -0.014411)
(0.400549 0.0302516 0.0250572)
(0.219347 0.065501 0.0279306)
(0.0465779 0.137483 -0.0136879)
(0.474475 -0.0222739 0.039356)
(0.418822 -0.0148273 0.0221382)
(0.053601 0.133255 -0.00776189)
(-0.00569663 0.165578 -0.0198309)
(0.0974255 0.209454 0.00946091)
(-0.0789376 0.264877 -0.00129769)
(-0.0718786 0.155435 -0.0128551)
(-0.140544 0.234227 0.0336692)
(-0.151652 0.158857 0.032497)
(-0.140531 0.109908 0.0631457)
(-0.0647608 0.0601291 0.0226541)
(-0.0218172 0.0504832 -0.0358778)
(-0.0811377 0.10343 0.0169837)
(0.128612 0.124878 -0.0501785)
(0.227327 0.138717 -0.00308711)
(0.32026 0.0704471 0.0190979)
(0.0990972 0.0554903 0.00604888)
(0.119728 -0.0411671 0.0336001)
(0.244993 -0.110997 0.0299339)
(0.194559 -0.181326 0.0503485)
(0.116909 -0.169402 0.0586817)
(0.0804124 -0.217422 0.0659915)
(0.0379698 -0.164955 0.108039)
(-0.0830111 0.0836602 0.0399451)
(0.0293587 -0.220439 0.0882589)
(0.0845112 -0.158731 0.0377941)
(-0.0648621 0.0203233 0.0428436)
(-0.10993 0.113829 0.0525904)
(0.0107931 -0.0358156 0.0127442)
(-0.0411788 0.0459352 0.0227509)
(-0.0782249 0.0875963 0.0084811)
(0.0261322 -0.0481066 -0.0198571)
(0.0437431 -0.101828 0.00294556)
(0.0419498 -0.142237 0.0177641)
(0.00731111 -0.0619362 -0.0653301)
(0.0239638 -0.122038 0.0347276)
(0.00346833 -0.0688708 -0.025315)
(0.00484784 -0.0633747 -0.0263971)
(0.0210267 -0.0435902 -0.0204985)
(-0.00274536 0.0323491 -0.135085)
(-0.112372 0.100881 -0.350172)
(0.0185092 0.0151977 0.115895)
(-0.0217277 0.0332358 -0.00155713)
(-0.0977811 0.0700366 0.138161)
(-0.0286293 0.0221308 0.0510944)
(-0.107365 0.0691278 -0.109693)
(-0.0787883 0.0768029 0.115435)
(-0.214049 0.0668288 0.026837)
(-0.124496 0.0498821 -0.216463)
(-0.0136215 0.0155756 0.0457365)
(-0.062328 0.10483 0.0132318)
(-0.0490909 0.0398141 -0.339748)
(-0.0398836 0.0247112 -0.186816)
(-0.0160774 0.0247028 -0.305737)
(-0.0698948 0.186522 -0.0495051)
(-0.0796408 0.192994 -0.0878102)
(-0.0157072 0.146904 -0.153236)
(-0.0605861 0.255769 -0.0431504)
(0.075334 0.216693 0.0766833)
(-0.114411 0.163227 -0.283277)
(-0.11812 0.178645 -0.27822)
(-0.144615 0.25664 -0.10929)
(-0.11009 0.240899 0.0466722)
(0.0154899 0.0788541 -0.14245)
(-0.0971539 0.209471 -0.12414)
(-0.0333248 0.15569 -0.112684)
(-0.037615 0.103583 -0.295927)
(-0.000490895 0.0623148 -0.249324)
(-0.044978 0.166956 -0.167164)
(-0.0607952 0.105488 -0.167101)
(0.0117133 0.0822308 -0.105402)
(-0.0243585 0.0235971 -0.176623)
(0.0208288 0.173433 0.00815589)
(0.0274861 -0.0174492 -0.061929)
(0.103606 0.0395385 0.045348)
(0.00473777 0.133888 -0.0289788)
(0.00570404 0.0180505 -0.135223)
(0.0418817 0.0525648 0.022007)
(-0.0702543 0.158984 0.0880987)
(-0.0171244 0.0666137 -0.00214059)
(-0.0562793 0.0439416 -0.0730513)
(-0.0735786 0.0810257 0.0562181)
(-0.00744743 0.0203021 -0.0313834)
(0.0861651 -0.052241 -0.125233)
(0.0927611 0.0483975 -0.163072)
(0.0103287 -0.00252669 -0.229386)
(0.0438202 -0.013286 -0.223637)
(0.0631868 0.0431324 -0.244761)
(-0.024879 0.0805415 -0.0132151)
(-0.0799751 0.172649 -0.0182805)
(-0.0621922 0.0945162 -0.0113808)
(-0.0130226 0.0401321 -0.0507342)
(-0.0575211 0.12633 -0.0839786)
(0.090535 0.0948402 -0.145266)
(0.06064 0.0595506 -0.207232)
(0.273792 0.0925335 0.100041)
(0.127765 0.0747395 0.0230894)
(0.163891 0.020716 0.10423)
(0.117358 0.0385644 -0.0693347)
(0.225138 0.0595116 0.1578)
(0.0664941 0.0317209 -0.0309638)
(0.144291 0.0660788 0.0921933)
(-0.161319 0.240737 0.0762951)
(0.0212834 0.0699474 0.102511)
(-0.14577 0.20899 0.0898997)
(-0.061578 0.208043 0.19819)
(-0.146592 0.239655 0.0500962)
(-0.233584 0.310648 0.0593102)
(-0.204933 0.256524 0.074658)
(-0.0938307 0.155634 -0.071955)
(0.0662507 0.0109145 -0.0507771)
(0.0427344 0.0276534 -0.0707857)
(0.0134907 -0.0853753 -0.0129457)
(-0.0258153 -0.0268945 -0.164447)
(-0.0622126 -0.0270874 -0.152838)
(-0.0703204 -0.00543597 -0.163944)
(-0.0577917 -0.0130655 -0.304073)
(-0.100901 0.015417 -0.0578797)
(-0.0687826 -0.011105 -0.0568052)
(-0.108978 0.0697774 -0.028372)
(-0.192483 0.116039 -0.219582)
(-0.144956 0.0295581 -0.263008)
(-0.191511 0.117533 -0.247036)
(-0.123021 0.0975659 -0.425917)
(-0.105595 0.0813769 -0.511438)
(-0.0986902 0.023927 -0.0684754)
(-0.143976 0.121985 -0.297458)
(-0.137232 0.105406 -0.0155123)
(-0.13365 0.0399476 -0.234169)
(-0.122492 0.0815489 -0.374647)
(-0.16274 0.101921 -0.156434)
(-0.0246515 0.103609 -0.129295)
(-0.0144917 0.0437004 -0.394731)
(-0.0477249 0.0217742 -0.200828)
(-0.0472666 0.0861202 -0.269074)
(-0.0135213 0.0342802 -0.433607)
(-0.0164403 0.0180564 -0.391926)
(-0.0130808 0.00748275 -0.454142)
(-0.0723144 0.131932 -0.329172)
(-0.0432917 0.101661 -0.412978)
(-0.137794 0.168637 -0.337488)
(-0.192829 0.183661 -0.19253)
(-0.228073 0.189834 0.000302309)
(-0.0801819 0.0879601 -0.554852)
(-0.100548 0.110497 -0.494394)
(-0.0909994 0.093637 -0.360004)
(-0.230402 0.145341 -0.0171946)
(-0.012529 0.0390803 -0.342254)
(0.0522321 0.145935 -0.185515)
(-0.0787423 0.0744078 -0.227406)
(-0.0369353 0.0583781 -0.448897)
(-0.0160479 0.0338919 -0.44199)
(0.0818947 0.0872896 -0.254437)
(-0.0232581 0.0270397 -0.398234)
(-0.0399216 0.00623943 -0.270318)
(-0.0199619 0.00967787 -0.433003)
(-0.00307985 0.0356753 -0.249692)
(-0.00219608 0.0756274 -0.316369)
(-0.0459004 0.00130188 -0.131592)
(-0.0104757 0.0421548 -0.295943)
(-0.00425039 0.0983876 -0.347081)
(-0.0106214 0.0228794 -0.137757)
(-0.0893235 0.0200073 -0.0130769)
(-0.00649827 0.0166975 -0.102145)
(-0.0411008 0.0125581 -0.333854)
(-0.0570475 0.0343894 -0.101342)
(-0.00441991 0.0544257 -0.210371)
(0.033303 0.0268899 -0.302685)
(0.0425419 0.0416077 -0.28518)
(0.00557996 0.0644286 -0.358081)
(0.0226766 0.0507673 -0.334811)
(0.0289869 0.0436802 -0.314662)
(-0.018838 0.0450018 -0.128667)
(-0.0523234 0.0957767 -0.155414)
(-0.0674742 0.0661156 -0.147232)
(-0.0282624 0.0634172 -0.228648)
(-0.0725916 0.0827249 -0.234881)
(0.0342375 0.0406414 -0.238951)
(0.0255184 0.0359867 -0.270635)
(0.128835 -0.00772626 0.166542)
(0.00215383 0.040512 -0.112432)
(0.0164641 0.0567372 0.0309)
(-0.0840331 0.0105298 -0.130702)
(0.00115061 -0.0234802 0.103479)
(-0.0407904 -0.0144113 -0.289255)
(-0.10221 0.0148774 -0.0770756)
(-0.116699 0.230075 0.00533447)
(-0.185418 0.23499 -0.0498851)
(-0.151315 0.215558 -0.044181)
(0.015201 0.324414 0.20189)
(-0.0349946 0.254217 0.0576515)
(-0.123079 0.152512 -0.126532)
(-0.0357611 0.0439733 -0.328772)
(-0.0730513 0.102284 -0.231927)
(-0.0985242 -0.0135049 -0.178421)
(-0.148508 -0.0300962 -0.220564)
(-0.0946375 0.00767416 -0.178015)
(-0.0865657 -0.0154766 -0.357819)
(-0.136869 -0.0113565 -0.208743)
(-0.113501 0.00676022 -0.158095)
(-0.106177 -0.0125066 -0.321259)
(-0.217106 0.104659 -0.220105)
(-0.160667 0.0243427 -0.274614)
(-0.184333 0.111857 -0.0272914)
(-0.19145 0.0858234 -0.187958)
(-0.17559 0.0260496 -0.207023)
(-0.12793 0.0693078 -0.255787)
(-0.0907583 0.0475238 -0.608256)
(-0.0834314 0.0458901 -0.597295)
(-0.112276 0.0247288 -0.390246)
(-0.0972498 0.035641 -0.51505)
(-0.106812 0.0403929 -0.413477)
(-0.0593811 0.00233784 -0.512131)
(-0.0916097 0.0276765 -0.548184)
(-0.0664864 0.00399336 -0.445276)
(-0.049532 0.0307647 -0.39028)
(-0.0233079 0.0142754 -0.475426)
(-0.0362656 -0.0102162 -0.462035)
(-0.0259682 -0.0159419 -0.45415)
(-0.0136178 0.00185941 -0.516275)
(-0.020965 0.0127706 -0.491474)
(-0.00742696 0.00705134 -0.537548)