/*--------------------------------*- C++ -*----------------------------------*\
| =========                 |                                                 |
| \\      /  F ield         | OpenFOAM: The Open Source CFD Toolbox           |
|  \\    /   O peration     | Version:  5.x                                   |
|   \\  /    A nd           | Web:      www.OpenFOAM.org                      |
|    \\/     M anipulation  |                                                 |
\*---------------------------------------------------------------------------*/
FoamFile
{
    version     2.0;
    format      ascii;
    class       volScalarField;
    location    "5";
    object      p;
}
// * * * * * * * * * * * * * * * * * * * * * * * * * * * * * * * * * * * * * //

dimensions      [0 2 -2 0 0 0 0];

internalField   nonuniform List<scalar> 
10571
(
143.303
144.914
146.479
144.316
140.715
143.482
140.348
134.014
133.128
131.513
136.134
138.066
129.841
128.337
126.539
126.697
129.392
120.182
120.207
119.593
121.147
114.933
113.428
113.62
99.9884
100.684
104.403
105.523
92.3598
104.761
64.5583
65.1978
58.8502
79.2259
104.667
103.538
74.974
69.9964
79.7785
87.5323
93.8564
89.6566
93.0266
99.1315
90.4322
92.7466
94.4323
94.3282
3.83242
3.1779
4.9599
6.42212
3.16171
4.63547
2.83433
2.90384
2.5769
3.33209
3.52484
5.4223
2.94339
2.82766
3.20242
5.67186
5.43762
3.35864
3.44315
16.5931
10.1679
14.182
27.0529
23.8095
2.63921
2.66404
2.60854
2.55752
2.61845
2.63024
2.17412
2.10959
2.21113
2.61175
2.6747
2.60354
2.10447
2.14469
2.04473
2.35932
2.61098
1.93359
1.92108
2.19485
2.35003
2.35422
2.18941
2.22385
2.48544
2.51023
2.49673
2.48924
2.49666
2.48452
2.62124
2.67271
2.53842
2.43185
2.48703
2.48617
2.70852
2.76758
2.65477
2.4247
2.47865
2.67769
2.67667
2.35804
2.43411
2.44544
2.48615
2.45547
2.47379
2.48258
2.46613
2.46945
2.46779
2.46183
2.4846
2.50813
2.47416
2.47029
2.51721
2.47194
2.47842
2.53477
2.56379
2.53244
2.47602
2.50934
2.47423
2.49609
2.50624
2.44595
2.46879
2.49135
2.50981
2.48729
2.47495
2.47918
2.45579
2.47775
2.48402
2.48471
2.47566
2.48737
2.497
2.50898
2.52169
2.49263
2.49146
2.52059
2.53028
2.52959
2.49599
2.52163
2.47748
2.53222
2.51791
2.48347
2.50015
2.5216
2.51069
2.51251
2.50343
2.48386
2.4896
2.4722
2.49202
2.50122
2.50775
2.5089
2.51239
2.52522
2.51872
2.52122
2.50555
2.5077
2.54359
2.54031
2.53941
2.51142
2.52233
2.49251
2.55776
2.53826
2.51691
2.50638
2.51951
2.52743
2.52121
2.5195
2.4984
2.49979
2.5035
2.51061
2.51525
2.50489
2.52839
2.52188
2.54006
2.51826
2.52635
2.52209
2.5249
2.54174
2.53534
2.53839
2.51537
2.54263
2.50899
2.55274
2.54439
2.53207
2.49781
2.53408
2.52636
2.53009
2.50473
2.51228
2.53118
2.52147
2.52689
2.49388
2.51935
2.52185
2.53258
2.50185
2.52561
2.5197
2.52947
2.52692
2.52775
2.5199
2.51402
2.53604
2.54361
2.52988
2.50872
2.53247
2.5295
2.53043
2.52677
2.52273
2.5495
2.52397
2.53272
2.48323
2.50445
2.52309
2.5253
2.51214
2.50925
2.49985
2.50586
2.51746
2.5144
2.51516
2.51083
2.51515
2.53238
2.52638
2.51849
2.52541
2.5247
2.52552
2.53947
2.52835
2.55009
2.53038
2.53002
2.49061
2.49543
2.51979
2.52
2.51491
2.49726
2.4882
2.46636
2.5098
2.50178
2.51155
2.50426
2.49268
2.51762
2.51514
2.51226
2.51238
2.51465
2.515
2.53249
2.52354
2.54743
2.5254
2.52528
2.50037
2.50134
2.50669
2.50637
2.50698
2.49389
2.49359
2.43976
2.50084
2.48592
2.4991
2.49952
2.46943
2.50186
2.49925
2.49796
2.49756
2.50328
2.50169
2.52639
2.51629
2.53113
2.51977
2.52184
2.49348
2.50729
2.48506
2.48504
2.49591
2.49509
2.49186
2.45074
2.47887
2.48004
2.48646
2.49643
2.46302
2.48545
2.48911
2.48721
2.4883
2.49352
2.49163
2.52005
2.51235
2.5209
2.5122
2.5168
2.49048
2.50827
2.47871
2.47239
2.49065
2.49536
2.49087
2.47305
2.46131
2.48101
2.47866
2.49537
2.47495
2.47515
2.48763
2.4855
2.49045
2.49035
2.49042
2.5147
2.50986
2.5146
2.5113
2.51564
2.49144
2.5075
2.49164
2.45992
2.49122
2.49777
2.49163
2.49546
2.47116
2.48688
2.47967
2.49815
2.49592
2.47923
2.49431
2.49209
2.50353
2.49505
2.49747
2.51309
2.50888
2.51333
2.51299
2.51472
2.49735
2.51104
2.50853
2.45789
2.49261
2.50281
2.49668
2.50674
2.49316
2.49388
2.48623
2.50552
2.51463
2.49401
2.5034
2.50133
2.51893
2.50487
2.50837
2.51158
2.50801
2.51261
2.51304
2.50892
2.5043
2.50298
2.51041
2.4711
2.49592
2.508
2.5057
2.5068
2.50396
2.5018
2.49504
2.51513
2.527
2.50898
2.51035
2.50964
2.52841
2.51562
2.51954
2.53214
2.50959
2.51136
2.51239
2.50359
2.50884
2.49341
2.50019
2.48624
2.50071
2.51468
2.51328
2.50769
2.50551
2.50776
2.50414
2.5233
2.53111
2.52062
2.51758
2.51679
2.53142
2.52441
2.52787
2.51822
2.51144
2.51039
2.50843
2.50156
2.51305
2.49781
2.49182
2.50205
2.50637
2.52182
2.51934
2.51036
2.50649
2.51132
2.51055
2.52756
2.52822
2.52853
2.5235
2.52169
2.53136
2.52921
2.53196
2.51013
2.51317
2.51051
2.50425
2.50451
2.51582
2.50859
2.49329
2.516
2.51245
2.52654
2.52747
2.51803
2.50974
2.52154
2.51664
2.52962
2.52741
2.53105
2.52564
2.52577
2.5308
2.53071
2.53315
2.50866
2.51556
2.51206
2.50302
2.50879
2.51727
2.51794
2.50344
2.51904
2.51708
2.52696
2.53041
2.52535
2.51659
2.52847
2.5219
2.52703
2.52643
2.53095
2.52992
2.52857
2.52999
2.53164
2.53402
2.51186
2.51777
2.51385
2.50702
2.51182
2.51895
2.52289
2.51291
2.51359
2.51932
2.52566
2.52706
2.52719
2.52278
2.52596
2.52477
2.51927
2.52339
2.52854
2.52538
2.52745
2.52789
2.53119
2.53233
2.51693
2.52038
2.51574
2.51289
2.51476
2.52054
2.52482
2.52063
2.51022
2.5212
2.52494
2.52448
2.52503
2.5273
2.52644
2.5291
2.51256
2.52249
2.52852
2.52197
2.52684
2.52695
2.5306
2.53157
2.52179
2.52242
2.51763
2.51816
2.51912
2.52156
2.52491
2.52669
2.51677
2.52396
2.5256
2.52461
2.5223
2.53127
2.52836
2.53431
2.51254
2.52186
2.53076
2.52354
2.53293
2.52663
2.53138
2.53287
2.52605
2.52403
2.51968
2.52237
2.52523
2.52324
2.52463
2.52958
2.52481
2.52661
2.52686
2.52597
2.51992
2.53362
2.52963
2.53719
2.51969
2.52285
2.53329
2.52669
2.542
2.5296
2.53343
2.53489
2.52986
2.52645
2.52217
2.52642
2.53134
2.52463
2.52286
2.53001
2.53032
2.52843
2.52799
2.52662
2.51847
2.53372
2.52885
2.53676
2.52846
2.52892
2.53454
2.52825
2.53942
2.53466
2.53597
2.53658
2.53226
2.52981
2.52504
2.52939
2.53585
2.52576
2.51934
2.52938
2.5334
2.53013
2.52911
2.52792
2.52145
2.53093
2.52817
2.53567
2.53467
2.53282
2.53582
2.53445
2.53971
2.53823
2.5382
2.54089
2.53319
2.53268
2.52791
2.53063
2.53819
2.52808
2.51909
2.52931
2.53531
2.53231
2.5309
2.53018
2.52808
2.53117
2.53163
2.53539
2.53861
2.53782
2.53871
2.543
2.54176
2.54585
2.54298
2.54938
2.53433
2.53495
2.53187
2.53201
2.53834
2.53246
2.5237
2.53152
2.5352
2.53429
2.53308
2.5331
2.53326
2.53408
2.53017
2.53524
2.53902
2.54123
2.53948
2.54185
2.54023
2.55526
2.54314
2.55172
2.53691
2.53621
2.53504
2.53482
2.53759
2.53572
2.52825
2.53441
2.53393
2.53522
2.53534
2.53458
2.53668
2.53605
2.52972
2.53547
2.53591
2.54065
2.53936
2.53721
2.53815
2.55147
2.54955
2.5453
2.54125
2.53734
2.53696
2.53873
2.53824
2.53713
2.53349
2.53676
2.53314
2.53566
2.53781
2.53648
2.53821
2.53744
2.53113
2.53608
2.53487
2.53601
2.5392
2.53501
2.53696
2.54426
2.54671
2.54123
2.54626
2.54025
2.54088
2.54319
2.54159
2.53966
2.53883
2.53969
2.53308
2.53666
2.54092
2.54008
2.5376
2.53631
2.53222
2.53681
2.53831
2.53328
2.54045
2.53523
2.53702
2.5361
2.54082
2.53827
2.55207
2.5447
2.54534
2.54904
2.548
2.54352
2.54652
2.54407
2.5352
2.53954
2.54331
2.54233
2.5369
2.53571
2.5342
2.53802
2.54129
2.5337
2.53893
2.53492
2.53755
2.53359
2.53787
2.53743
2.55624
2.54953
2.55006
2.55609
2.55311
2.54759
2.55878
2.54812
2.54165
2.54298
2.54456
2.5434
2.54255
2.54038
2.53659
2.54028
2.54359
2.53376
2.53737
2.53477
2.53914
2.53621
2.53831
2.53845
2.55675
2.55222
2.55448
2.55941
2.55313
2.54891
2.56136
2.55268
2.54658
2.54517
2.54443
2.54253
2.54859
2.5442
2.54122
2.54406
2.54579
2.5396
2.53692
2.53732
2.54273
2.54132
2.54071
2.54143
2.55522
2.55192
2.55459
2.55396
2.55039
2.54772
2.55456
2.55211
2.54684
2.54559
2.54386
2.54141
2.54687
2.54498
2.54453
2.54685
2.54674
2.54547
2.53859
2.54101
2.54634
2.54681
2.54392
2.54535
2.55126
2.54993
2.55127
2.5487
2.54894
2.54593
2.54697
2.54785
2.54625
2.54546
2.54401
2.54132
2.5438
2.5459
2.54555
2.54799
2.54616
2.54887
2.53995
2.54433
2.54787
2.5509
2.54681
2.54882
2.54818
2.54775
2.54713
2.54598
2.54802
2.54528
2.54158
2.54587
2.54643
2.54686
2.54545
2.54312
2.54124
2.5463
2.54521
2.54807
2.54682
2.55074
2.54277
2.54695
2.54753
2.552
2.54883
2.55072
2.54676
2.54619
2.5441
2.54564
2.54725
2.54523
2.53889
2.54685
2.54603
2.54911
2.54714
2.54557
2.54309
2.54624
2.54418
2.54772
2.5481
2.55177
2.54691
2.54838
2.54721
2.55055
2.54939
2.55098
2.54674
2.54581
2.54372
2.54634
2.54709
2.54533
2.54112
2.54798
2.54502
2.54906
2.54833
2.54738
2.54642
2.54661
2.54497
2.54745
2.55084
2.55133
2.54829
2.54819
2.5474
2.54852
2.54853
2.55029
2.5473
2.54661
2.54551
2.54736
2.54745
2.54571
2.54401
2.54879
2.54489
2.54871
2.54867
2.54824
2.54826
2.54744
2.546
2.54805
2.54929
2.54895
2.54753
2.54731
2.54776
2.54538
2.54685
2.54963
2.54777
2.54737
2.54696
2.54774
2.54796
2.54628
2.54536
2.54949
2.54499
2.54825
2.54846
2.54788
2.54837
2.54814
2.54645
2.54983
2.54831
2.54464
2.54624
2.54636
2.54852
2.54364
2.54568
2.54872
2.54783
2.54738
2.54657
2.54709
2.54849
2.54671
2.54525
2.54928
2.54709
2.54798
2.54818
2.5476
2.54743
2.54762
2.54639
2.54993
2.54748
2.54254
2.54532
2.54632
2.54886
2.54396
2.54525
2.54768
2.54749
2.54742
2.5456
2.54602
2.54917
2.54664
2.54516
2.54848
2.55043
2.54857
2.54775
2.54687
2.54644
2.54607
2.54625
2.54867
2.54682
2.54297
2.54504
2.54643
2.54886
2.54521
2.54557
2.54679
2.54704
2.5475
2.54513
2.54499
2.54955
2.54667
2.54594
2.54807
2.55184
2.54887
2.54672
2.54629
2.54574
2.54466
2.54647
2.54648
2.54573
2.54377
2.54536
2.54698
2.54783
2.54634
2.54554
2.54689
2.5468
2.54824
2.54552
2.5445
2.5495
2.54731
2.54571
2.54816
2.55057
2.54843
2.54608
2.54663
2.54505
2.54443
2.54753
2.54634
2.54515
2.54344
2.54558
2.54731
2.54734
2.54674
2.54525
2.54672
2.54681
2.54893
2.54582
2.54467
2.54899
2.54852
2.5457
2.54707
2.54763
2.54841
2.54625
2.54643
2.54494
2.54496
2.54853
2.54569
2.54508
2.54259
2.54578
2.54733
2.54812
2.54693
2.54507
2.54733
2.54723
2.54961
2.54673
2.54544
2.54833
2.54958
2.54584
2.54425
2.54514
2.54891
2.54721
2.54621
2.54403
2.54555
2.54838
2.55028
2.54563
2.54313
2.54698
2.548
2.54927
2.54815
2.54617
2.54842
2.54774
2.5501
2.54812
2.54652
2.54795
2.55017
2.5461
2.54275
2.54475
2.54876
2.54853
2.54666
2.54511
2.54686
2.54984
2.5519
2.5471
2.54525
2.54806
2.54821
2.55086
2.54965
2.5482
2.54981
2.54806
2.54996
2.54869
2.5474
2.54761
2.54998
2.54762
2.54419
2.5452
2.54749
2.55016
2.54809
2.54811
2.54824
2.54915
2.55027
2.54938
2.54802
2.5491
2.54924
2.55106
2.55139
2.55046
2.5508
2.54845
2.54979
2.54852
2.54795
2.54757
2.55014
2.54858
2.54548
2.54565
2.5466
2.55224
2.55126
2.55107
2.54876
2.54766
2.54781
2.55205
2.54991
2.54958
2.5484
2.54842
2.5523
2.55212
2.55015
2.54911
2.55021
2.54914
2.54867
2.54758
2.55054
2.54882
2.54643
2.54639
2.54591
2.5541
2.55397
2.55395
2.54903
2.54709
2.54592
2.55555
2.551
2.54891
2.54697
2.54616
2.5523
2.55188
2.54952
2.55007
2.55168
2.5512
2.54947
2.54756
2.55136
2.54963
2.54692
2.54614
2.54471
2.5558
2.55569
2.5567
2.54915
2.54552
2.54364
2.55866
2.55238
2.54788
2.54519
2.54446
2.55206
2.55088
2.54807
2.55122
2.554
2.55373
2.55025
2.54705
2.55281
2.55061
2.54592
2.54416
2.54254
2.55804
2.55746
2.55916
2.54918
2.54189
2.54021
2.5609
2.55467
2.54698
2.54263
2.54152
2.55283
2.54928
2.54614
2.55152
2.55637
2.55648
2.55022
2.54562
2.55549
2.55048
2.54421
2.54042
2.53903
2.56026
2.55934
2.56038
2.54903
2.53808
2.53637
2.56206
2.55716
2.54635
2.54077
2.53835
2.55517
2.54775
2.54412
2.55155
2.55912
2.55743
2.54826
2.5429
2.5586
2.55259
2.54272
2.53483
2.53391
2.56242
2.56118
2.55848
2.54784
2.53332
2.53115
2.56339
2.55921
2.54527
2.5375
2.53367
2.55679
2.54709
2.54248
2.54897
2.56063
2.5562
2.54549
2.53959
2.56163
2.55382
2.5398
2.52686
2.52537
2.56518
2.56343
2.55635
2.54435
2.52409
2.5223
2.56539
2.55995
2.54322
2.53242
2.5268
2.55673
2.54597
2.53902
2.54916
2.56322
2.5571
2.54635
2.53702
2.56533
2.55516
2.53657
2.51475
2.51126
2.56947
2.5671
2.55607
2.53874
2.50857
2.50387
2.56906
2.56031
2.53998
2.5236
2.51346
2.55736
2.54372
2.53385
2.55102
2.56787
2.5596
2.5505
2.53608
2.5708
2.55722
2.53146
2.49424
2.48345
2.57698
2.57341
2.557
2.53116
2.48395
2.46336
2.57488
2.56047
2.53468
2.51031
2.48775
2.55865
2.54099
2.52568
2.55401
2.57432
2.56315
2.55078
2.53159
2.57846
2.56027
2.52315
2.45945
2.42617
2.58751
2.58261
2.55846
2.51918
2.44541
2.37018
2.58185
2.55964
2.52755
2.48945
2.43848
2.56046
2.53745
2.51523
2.55854
2.58172
2.56603
2.5478
2.52557
2.58669
2.56224
2.51056
2.41165
2.28149
2.59789
2.59232
2.55861
2.50269
2.39247
2.17021
2.58732
2.55691
2.51902
2.46347
2.34692
2.56065
2.53344
2.50471
2.56427
2.58669
2.56683
2.54421
2.51615
2.59209
2.56449
2.49475
2.36555
1.91316
2.60205
2.59716
2.55509
2.48581
2.34261
1.8823
-2.08058
2.5866
2.55102
2.5117
2.43641
2.15664
2.55673
2.53023
2.49817
2.5699
2.58572
2.5661
2.54444
2.50846
2.59115
2.56139
2.50268
2.34912
1.64084
0.0200304
2.59576
2.59045
2.54461
2.48961
2.33501
1.85338
0.0129166
2.56979
2.53856
2.50971
2.4329
1.96442
2.54841
2.53057
2.50332
2.57651
2.57468
2.56474
2.55305
2.52299
2.57619
2.5486
2.51763
2.39752
1.80665
0.409086
2.58045
2.5688
2.52753
2.49768
2.39318
1.88955
0.457647
2.53568
2.52631
2.51308
2.47118
2.18496
0.767369
2.54845
2.53868
2.52372
2.58531
2.55993
2.55897
2.5681
2.56311
2.55999
2.5417
2.53717
2.48126
2.0519
0.526803
2.56634
2.55642
2.51712
2.50443
2.45365
2.06231
0.426631
2.54411
2.53938
2.53739
2.49394
2.34015
2.56869
2.55894
2.54884
2.58823
2.548
2.55081
2.57552
2.59735
2.5459
2.54118
2.56103
2.54746
2.33322
2.55721
2.54934
2.52939
2.52786
2.51363
2.25418
-0.608293
2.56933
2.57413
2.57514
2.53612
2.53129
2.60437
2.58602
2.57529
2.58352
2.54431
2.55155
2.57591
2.60007
2.53915
2.5383
2.56691
2.57087
2.57568
2.55281
2.5456
2.54225
2.54632
2.55487
2.54483
2.57213
2.58613
2.5915
2.57682
2.59704
2.61371
2.61023
2.60579
2.57553
2.54505
2.55038
2.56953
2.5851
2.54063
2.53388
2.55867
2.57338
2.60784
2.55337
2.54692
2.54209
2.5512
2.5618
2.59307
2.56925
2.57626
2.58601
2.58635
2.60876
2.60391
2.61023
2.61248
2.56854
2.54971
2.55284
2.56195
2.57157
2.54943
2.542
2.55475
2.57137
2.60153
2.55908
2.55273
2.54344
2.54968
2.56209
2.59543
2.56846
2.56871
2.57348
2.5791
2.59965
2.59061
2.59572
2.60111
2.56445
2.55611
2.55444
2.55776
2.56737
2.56053
2.55299
2.55717
2.56927
2.59524
2.56942
2.56311
2.55278
2.55243
2.56091
2.5892
2.57313
2.56689
2.56535
2.56993
2.58936
2.58365
2.58336
2.58684
2.56937
2.56065
2.5559
2.56101
2.57693
2.57086
2.56022
2.56114
2.57302
2.59051
2.58219
2.57528
2.56358
2.55923
2.56313
2.58405
2.58141
2.57174
2.56491
2.56476
2.58113
2.58284
2.57788
2.57961
2.58613
2.56823
2.56275
2.57533
2.59657
2.58175
2.57095
2.57192
2.58616
2.59119
2.59597
2.58712
2.5716
2.56812
2.5657
2.58263
2.58962
2.57527
2.56714
2.56324
2.57764
2.58358
2.57609
2.57681
2.61069
2.58587
2.57899
2.59611
2.61106
2.59268
2.57707
2.57765
2.58555
2.5915
2.60921
2.59676
2.5794
2.57205
2.57395
2.5836
2.59421
2.58084
2.56737
2.56508
2.5793
2.58216
2.57308
2.57316
2.62861
2.60119
2.59084
2.60818
2.61994
2.59992
2.58413
2.58511
2.5912
2.59702
2.62199
2.60281
2.58454
2.57858
2.57984
2.58416
2.5975
2.58137
2.57068
2.57168
2.58244
2.57896
2.57167
2.57677
161.748
160.752
161.346
160.57
158.914
159.342
158.926
159.171
155.895
160.761
159.893
157.688
156.316
158.481
159.028
156.665
157.457
156.787
157.252
154.762
151.237
156.754
158.008
149.811
153.882
153.252
153.227
147.729
152.521
154.444
155.198
152.396
154.091
153.577
149.403
148.18
142.387
146.968
145.872
140.183
139.214
143.994
144.915
138.706
140.463
147.432
143.368
142.248
147.231
152.058
151.782
151.805
149.514
150.217
143.611
141.022
137.72
134.299
132.483
136.133
134.698
131.611
131.184
135.027
138.421
132.109
135.663
140.535
140.187
138.622
151.681
151.105
141.045
149.42
142.56
131.095
128.571
131.049
127.284
128.341
129.694
126.402
128.028
132.583
137.012
134.098
138.078
140.729
144.415
132.926
130.002
128.718
129.073
127.348
127.336
134.592
145.864
134.912
144.487
146.601
146.944
135.013
137.196
137.776
145.65
144.167
135.723
136.707
134.841
141.869
129.719
142.709
133.944
146.177
144.505
145.472
133.384
137.432
136.952
139.193
138.612
137.901
136.607
130.451
123.544
130.704
125.628
134.053
118.612
141.956
138.066
140.83
136.11
134.184
133.977
130.064
126.314
119.068
120.015
115.114
138.611
135.388
131.1
129.432
123.547
123.903
123.283
117.083
113.36
113.583
131.396
116.216
124.001
124.805
121.129
112.794
112.32
106.283
106.444
120.032
115.648
116.635
112.347
108.713
106.083
102.348
108.342
118.316
102.624
114.27
110.287
103.608
103.358
100.155
111.969
109.45
103.2
103.999
100.171
101.822
100.644
54.8515
100.428
100.824
102.554
56.2177
56.0745
58.2685
101.067
97.4262
54.9401
57.1539
52.7999
92.5559
45.9766
102.911
56.9711
102.203
102.589
104.857
55.42
57.8254
58.9706
59.4304
85.4533
96.7657
86.0157
46.3071
32.9562
50.1211
40.7781
81.2014
36.9221
104.564
105.892
104.706
59.4714
61.9689
61.71
82.9167
78.5761
38.0664
42.3488
41.9409
102.822
98.3608
63.5482
61.9658
61.7088
82.223
88.8906
49.6984
46.5415
57.356
95.3782
63.5397
97.5306
91.1812
92.8821
67.063
72.6537
68.6958
71.7569
94.0652
95.3117
92.8671
74.1639
72.5557
78.522
77.7466
63.1376
91.362
71.7312
93.7632
93.3427
75.9565
79.9517
83.0378
95.1806
93.824
82.3701
81.257
84.648
81.1883
3.42361
2.08945
4.00163
4.4044
4.63082
1.95412
1.97052
2.02834
5.02432
4.19202
1.94694
2.02476
2.00351
3.02599
2.03807
3.15498
1.99048
3.98792
3.8518
4.39567
2.0713
2.0822
2.03481
2.00954
2.74434
3.55892
3.06636
2.04009
2.0567
1.90267
1.98809
2.86237
1.91971
3.73975
3.19006
4.26155
1.89777
1.88727
1.94188
3.39634
5.0385
1.73584
1.84164
1.71544
4.63606
4.51194
1.89177
1.92178
1.85591
5.66316
10.5349
1.85392
1.6118
1.9844
3.77604
2.00306
8.57995
4.10853
7.4766
1.90677
1.77932
1.87917
1.81534
13.671
19.5758
16.0233
2.28128
2.23621
2.33844
2.08484
1.98605
7.41559
2.07828
20.5349
24.8577
2.00483
2.28793
2.06873
27.9105
31.1331
2.4212
2.38924
2.20201
2.36627
2.65912
2.40197
2.64134
2.65782
2.6232
2.4277
2.42601
2.39995
2.61299
2.63801
2.42733
2.39887
2.41781
2.63186
2.40596
2.682
2.37809
2.65756
2.66854
2.64111
2.39778
2.40677
2.3848
2.3815
2.60312
2.56944
2.57651
2.40613
2.38712
2.34663
2.34062
2.59695
2.34167
2.69043
2.68759
2.66761
2.38764
2.38484
2.35914
2.51667
2.54919
2.36168
2.29132
2.37152
2.66037
2.66696
2.37395
2.36016
2.37014
2.42708
2.32315
2.24649
2.33887
2.34208
2.62939
2.32787
2.51507
2.61434
2.55319
2.35933
2.36139
2.36524
2.37386
2.30579
2.22361
2.28647
2.39148
2.40448
2.46343
2.45043
2.42225
2.49507
2.38545
2.29683
2.25509
2.40571
2.43588
2.47384
2.18378
2.16666
2.49762
2.51175
2.5205
2.52398
2.51724
2.46382
2.48731
2.50381
2.4966
2.48344
2.48046
2.48153
2.49573
2.49003
2.47999
2.47206
2.45484
2.50546
2.43909
2.49977
2.45692
2.51166
2.4998
2.49055
2.45866
2.46183
2.45348
2.45076
2.47319
2.44502
2.43904
2.43059
2.4148
2.40835
2.3916
2.44082
2.41329
2.48554
2.48544
2.48923
2.46479
2.4595
2.45251
2.43494
2.43312
2.44751
2.42791
2.27139
2.48696
2.48552
2.46638
2.46593
2.46981
2.43829
2.41059
2.42822
2.2862
2.44027
2.51283
2.45619
2.44382
2.47115
2.44808
2.46356
2.42319
2.45704
2.42335
2.44509
2.44193
2.48216
2.39393
2.46348
2.45404
2.49032
2.44943
2.46901
2.45112
2.47228
2.50437
2.47237
2.48815
2.51428
2.4642
2.52082
2.50614
2.4984
2.52787
2.48013
2.47903
2.46276
2.48074
2.4774
2.47418
2.4774
2.46436
2.46897
2.46152
2.45963
2.47293
2.46543
2.4567
2.46622
2.45671
2.47349
2.47119
2.4786
2.47091
2.44984
2.46576
2.46007
2.46264
2.44156
2.46322
2.42543
2.44145
2.45739
2.46232
2.44301
2.46049
2.45799
2.4614
2.47103
2.46779
2.46288
2.47737
2.47919
2.47572
2.51065
2.46644
2.57648
2.48658
2.52142
2.46937
2.50149
2.52654
2.51269
2.52526
2.51826
2.52719
2.52279
2.52551
2.46869
2.4737
2.48323
2.48076
2.48122
2.60768
2.47236
2.51983
2.48061
2.52402
2.4878
2.53293
2.52998
2.51706
2.52895
2.52726
2.53172
2.52021
2.52899
2.4764
2.47747
2.43512
2.47836
2.45404
2.47336
2.44932
2.47514
2.46415
2.48559
2.47317
2.49373
2.46554
2.48973
2.48449
2.49696
2.48229
2.47024
2.48017
2.4983
2.50657
2.50054
2.49954
2.50729
2.50609
2.51506
2.50915
2.50972
2.51206
2.49514
2.47116
2.47299
2.4779
2.46386
2.46813
2.48403
2.46859
2.47125
2.47291
2.46894
2.47764
2.47997
2.48653
2.47895
2.48974
2.48356
2.4907
2.47041
2.47799
2.45005
2.47991
2.47113
2.48531
2.46251
2.48777
2.46346
2.48554
2.49147
2.49623
2.47988
2.49828
2.48249
2.52689
2.49167
2.52517
2.52098
2.52907
2.5188
2.52962
2.48932
2.49163
2.49006
2.49982
2.5032
2.50395
2.53721
2.47978
2.51879
2.51315
2.52634
2.49247
2.52318
2.52759
2.516
2.52294
2.52029
2.5265
2.51544
2.52538
2.49143
2.487
2.50048
2.50006
2.48974
2.53302
2.50008
2.53503
2.50633
2.53317
2.5003
2.52872
2.52919
2.52059
2.52757
2.5206
2.52895
2.51194
2.52736
2.48399
2.49107
2.46561
2.48277
2.47625
2.48322
2.48336
2.48979
2.48785
2.504
2.49575
2.50474
2.50015
2.51067
2.5057
2.50944
2.52819
2.50201
2.53142
2.52916
2.51798
2.52975
2.49161
2.50168
2.50713
2.51539
2.51952
2.51658
2.52143
2.51411
2.51417
2.51705
2.51807
2.51798
2.5115
2.4825
2.49208
2.49149
2.47935
2.47662
2.50179
2.49274
2.48475
2.48729
2.50015
2.49189
2.49472
2.50982
2.50111
2.50957
2.49746
2.50182
2.48003
2.4951
2.4775
2.49418
2.48988
2.50158
2.48779
2.50688
2.49472
2.50955
2.50914
2.51627
2.50672
2.51937
2.49932
2.52453
2.49988
2.52445
2.51895
2.53097
2.52437
2.53605
2.50708
2.51051
2.51309
2.50955
2.51629
2.51833
2.53261
2.50546
2.52806
2.51763
2.53176
2.51229
2.53411
2.52954
2.51892
2.52894
2.52513
2.53363
2.5271
2.53684
2.50813
2.49582
2.51434
2.51512
2.50556
2.53134
2.50702
2.53065
2.51276
2.53481
2.50685
2.5307
2.5303
2.51697
2.53056
2.53034
2.53546
2.52523
2.53431
2.49703
2.50506
2.50298
2.49873
2.49986
2.50183
2.51363
2.50785
2.51025
2.51793
2.51688
2.51493
2.53091
2.52152
2.52665
2.51986
2.52935
2.49818
2.5274
2.53093
2.52627
2.53491
2.51034
2.51671
2.5235
2.52574
2.53295
2.52856
2.52975
2.52378
2.52224
2.52408
2.52889
2.52639
2.52653
2.50156
2.51066
2.51238
2.50541
2.4933
2.51886
2.51568
2.50196
2.50009
2.51597
2.50277
2.50331
2.518
2.51437
2.51799
2.50513
2.50732
2.50012
2.50229
2.49362
2.50631
2.50968
2.50058
2.50137
2.52219
2.51578
2.5221
2.52102
2.52736
2.52224
2.52664
2.50818
2.51167
2.50788
2.52563
2.5219
2.50616
2.52811
2.52039
2.54277
2.52231
2.54938
2.51067
2.53309
2.52337
2.54711
2.53783
2.54004
2.54202
2.54233
2.54055
2.56229
2.54802
2.52072
2.51261
2.52737
2.52295
2.51585
2.55151
2.50853
2.54267
2.51688
2.54832
2.49765
2.52475
2.54011
2.53146
2.53844
2.55917
2.54522
2.54555
2.53975
2.51067
2.51399
2.51552
2.51377
2.51577
2.51327
2.516
2.51814
2.5195
2.52045
2.53113
2.5225
2.53182
2.52374
2.53235
2.52665
2.5023
2.52131
2.524
2.53215
2.53186
2.5339
2.53477
2.53354
2.53229
2.53023
2.52883
2.53432
2.53248
2.53122
2.51969
2.5281
2.5188
2.52322
2.51264
2.51881
2.5312
2.52311
2.50715
2.51755
2.50921
2.51155
2.51837
2.52033
2.52403
2.50897
2.51033
2.51777
2.49974
2.50922
2.51765
2.52503
2.49986
2.51378
2.52928
2.52601
2.5288
2.53113
2.53065
2.52792
2.53114
2.5164
2.52105
2.50541
2.52054
2.51162
2.50505
2.5124
2.50413
2.52789
2.58604
2.50777
2.52718
2.46419
2.51958
2.51611
2.51738
2.51203
2.51347
2.57384
2.48402
2.50783
2.44537
2.49892
2.51493
2.51416
2.51468
2.51859
2.51984
2.51323
2.51236
2.51783
2.51873
2.52452
2.53115
2.52768
2.52859
2.52492
2.52982
2.52779
2.51556
2.52502
2.52421
2.5349
2.53247
2.52981
2.53294
2.53021
2.53366
2.53339
2.52796
2.53127
2.53215
2.52862
2.53501
2.53966
2.52279
2.54014
2.53347
2.53399
2.54681
2.5383
2.53003
2.52316
2.53877
2.54445
2.5297
2.52781
2.52963
2.51264
2.51639
2.53275
2.50146
2.52241
2.52645
2.53896
2.50713
2.53996
2.53066
2.5268
2.53142
2.53206
2.52864
2.52158
2.5272
2.52182
2.52118
2.50475
2.50685
2.50009
2.50501
2.50169
2.49835
2.52803
2.52025
2.51516
2.5245
2.52125
2.50438
2.50946
2.50221
2.49926
2.50555
2.50873
2.51098
2.51727
2.51707
2.51497
2.51154
2.50813
2.50764
2.51483
2.51481
2.50782
2.5025
2.51158
2.51105
2.52368
2.52681
2.5254
2.52285
2.52008
2.52271
2.52117
2.51732
2.52167
2.51786
2.52822
2.52505
2.51984
2.5224
2.51946
2.52689
2.5278
2.52013
2.52167
2.5225
2.52116
2.54079
2.53997
2.53735
2.55125
2.53903
2.53497
2.55311
2.5365
2.54145
2.53002
2.53618
2.53718
2.52866
2.52799
2.52491
2.51447
2.5117
2.5406
2.51462
2.55068
2.5274
2.53905
2.51774
2.54416
2.52544
2.5109
2.51874
2.52784
2.52087
2.49545
2.50699
2.51854
2.5128
2.50433
2.49811
2.49755
2.50408
2.49664
2.49744
2.51822
2.51488
2.51259
2.51305
2.51118
2.49619
2.50265
2.49467
2.49445
2.49989
2.5119
2.51167
2.50592
2.50669
2.50721
2.50494
2.50236
2.4977
2.50768
2.50715
2.50176
2.4974
2.50435
2.50552
2.51161
2.51632
2.51473
2.50658
2.50326
2.50756
2.50711
2.5052
2.5136
2.50952
2.51454
2.51227
2.50507
2.50713
2.50506
2.5158
2.51627
2.50918
2.51048
2.51037
2.50821
2.53804
2.53471
2.53167
2.55195
2.53236
2.52927
2.54613
2.52917
2.53456
2.52645
2.52969
2.53317
2.52384
2.52134
2.51892
2.51044
2.51057
2.53531
2.51686
2.53172
2.51916
2.5308
2.51606
2.53444
2.51593
2.47982
2.49589
2.52304
2.51292
2.4699
2.4912
2.50636
2.50204
2.50264
2.49602
2.49753
2.5014
2.49581
2.49714
2.50798
2.5061
2.50123
2.50328
2.50054
2.49438
2.49853
2.49449
2.49475
2.49775
2.5002
2.50117
2.49266
2.49342
2.49515
2.5005
2.49893
2.49777
2.50108
2.50457
2.49772
2.49917
2.49891
2.50421
2.49489
2.49985
2.49902
2.49353
2.48828
2.49288
2.4925
2.49149
2.50573
2.50252
2.49985
2.49821
2.49162
2.49348
2.49262
2.50479
2.50397
2.49807
2.49935
2.49847
2.49563
2.5302
2.52587
2.52747
2.53776
2.52652
2.52699
2.53025
2.52594
2.52912
2.52103
2.52352
2.52317
2.51825
2.51757
2.51717
2.51038
2.50958
2.52541
2.514
2.53165
2.51424
2.52048
2.51132
2.52464
2.51162
2.47031
2.49424
2.51991
2.5111
2.48079
2.50029
2.50231
2.50522
2.49947
2.49622
2.49671
2.49813
2.49648
2.49629
2.49819
2.49449
2.49252
2.49419
2.48996
2.49473
2.49678
2.49511
2.49423
2.49629
2.48778
2.48906
2.48128
2.48342
2.48419
2.49807
2.49784
2.49964
2.49722
2.50221
2.49541
2.49973
2.49581
2.49843
2.48437
2.48789
2.489
2.48641
2.48341
2.48611
2.48816
2.48461
2.49911
2.49636
2.49023
2.48944
2.48537
2.48825
2.48848
2.49436
2.49364
2.491
2.49114
2.49094
2.48968
2.52193
2.5183
2.52683
2.52454
2.52658
2.52601
2.51937
2.52728
2.51843
2.5199
2.5171
2.51545
2.52229
2.51796
2.52007
2.50858
2.50771
2.51625
2.50917
2.51714
2.51087
2.51263
2.50791
2.51221
2.5105
2.49367
2.50267
2.51536
2.51041
2.52439
2.50687
2.50836
2.51247
2.49734
2.49667
2.49569
2.49733
2.49712
2.49505
2.49141
2.48667
2.48988
2.4893
2.48489
2.49395
2.49616
2.49623
2.49406
2.49652
2.48151
2.48165
2.47791
2.48075
2.4813
2.49798
2.4984
2.49886
2.495
2.49395
2.49595
2.49837
2.4949
2.49115
2.48603
2.48761
2.49044
2.49
2.48916
2.49126
2.4938
2.48786
2.49485
2.49508
2.4918
2.4922
2.49467
2.49508
2.496
2.48989
2.49028
2.49143
2.49043
2.49134
2.49325
2.51475
2.51163
2.52268
2.51497
2.52637
2.51763
2.51199
2.52206
2.51385
2.52538
2.51336
2.51391
2.52984
2.52297
2.52336
2.50691
2.50634
2.51019
2.50718
2.5086
2.50929
2.50878
2.50704
2.5066
2.5109
2.55882
2.51526
2.51612
2.5114
2.56215
2.52423
2.51847
2.52041
2.49785
2.49789
2.49505
2.49888
2.49918
2.49614
2.48857
2.48438
2.49141
2.48786
2.48469
2.49473
2.49755
2.50008
2.49618
2.49926
2.48314
2.48377
2.48219
2.48575
2.48662
2.49931
2.50124
2.49883
2.49734
2.49207
2.50126
2.50068
2.50033
2.49526
2.49442
2.49606
2.49851
2.49865
2.49934
2.50154
2.50322
2.4966
2.49898
2.50402
2.50237
2.50322
2.51101
2.50918
2.50999
2.4944
2.495
2.49893
2.49882
2.49915
2.5026
2.50947
2.50818
2.51195
2.51008
2.51619
2.50506
2.50889
2.50985
2.51447
2.52672
2.51071
2.51526
2.52342
2.52096
2.51722
2.50602
2.5062
2.50789
2.5069
2.50401
2.50837
2.50744
2.50653
2.50165
2.5122
2.54451
2.52468
2.51171
2.51046
2.5264
2.51507
2.51536
2.50768
2.50065
2.50128
2.49859
2.50284
2.50421
2.50182
2.48805
2.48627
2.49353
2.48918
2.48842
2.49849
2.5021
2.50532
2.50229
2.50574
2.49007
2.49091
2.49015
2.49396
2.49458
2.50472
2.50877
2.50562
2.50531
2.50194
2.50997
2.51106
2.51075
2.50867
2.50458
2.50754
2.50823
2.50697
2.50858
2.51312
2.51267
2.50559
2.51057
2.51666
2.51641
2.51695
2.52467
2.52201
2.52207
2.50633
2.50548
2.50999
2.51255
2.51115
2.51409
2.50815
2.50927
2.50629
2.50861
2.5051
2.51884
2.50929
2.50896
2.51399
2.51985
2.52509
2.51753
2.51724
2.51286
2.50982
2.50699
2.50825
2.50721
2.50651
2.5008
2.50837
2.50765
2.5069
2.50166
2.50775
2.51053
2.50335
2.50595
2.50424
2.49943
2.49402
2.5018
2.49798
2.50561
2.50732
2.50514
2.50818
2.51026
2.50904
2.49201
2.49194
2.49802
2.49484
2.49533
2.50641
2.50968
2.51125
2.51069
2.5134
2.49853
2.49904
2.49967
2.50259
2.5031
2.51319
2.51745
2.51651
2.51672
2.51576
2.51969
2.52166
2.52188
2.52208
2.51217
2.51836
2.51686
2.51431
2.51631
2.52283
2.52058
2.51356
2.52207
2.5265
2.52539
2.52577
2.53113
2.52817
2.52783
2.51982
2.51741
2.52031
2.52558
2.52224
2.5243
2.51076
2.51209
2.52588
2.51046
2.5147
2.52117
2.51068
2.51496
2.52157
2.51457
2.52559
2.51925
2.51149
2.50791
2.5065
2.50932
2.51035
2.50912
2.50757
2.50383
2.5105
2.51096
2.50866
2.50643
2.50223
2.49405
2.49055
2.50173
2.50117
2.49197
2.48963
2.4976
2.49878
2.51058
2.51389
2.5136
2.51277
2.51732
2.51766
2.49792
2.49911
2.50349
2.50108
2.50248
2.51453
2.51661
2.51825
2.51843
2.51946
2.5065
2.5069
2.50784
2.50972
2.51026
2.52094
2.52388
2.52636
2.52621
2.52773
2.52601
2.53047
2.5295
2.53217
2.51927
2.52658
2.52359
2.521
2.522
2.529
2.52589
2.51949
2.52971
2.53203
2.52871
2.52882
2.53192
2.52936
2.52948
2.52982
2.52615
2.52733
2.53235
2.52896
2.53047
2.51333
2.5145
2.51712
2.51081
2.51386
2.51493
2.51122
2.5131
2.51508
2.5085
2.51322
2.51147
2.50641
2.50616
2.50676
2.51177
2.51372
2.51297
2.50963
2.50905
2.51225
2.5147
2.51051
2.51164
2.50274
2.49672
2.49466
2.50254
2.50458
2.50142
2.49945
2.50205
2.50534
2.51429
2.51983
2.51999
2.51535
2.52144
2.52121
2.50415
2.506
2.50933
2.50728
2.50927
2.52269
2.52254
2.52494
2.52586
2.52546
2.51259
2.51296
2.51356
2.51551
2.51566
2.52632
2.52832
2.53326
2.53184
2.53527
2.52877
2.53399
2.53302
2.5369
2.52401
2.5306
2.52785
2.52483
2.52586
2.53162
2.52942
2.5237
2.53349
2.53421
2.52921
2.52971
2.53123
2.52934
2.52985
2.53324
2.53091
2.53038
2.53326
2.53205
2.53282
2.51552