/*--------------------------------*- C++ -*----------------------------------*\
| =========                 |                                                 |
| \\      /  F ield         | OpenFOAM: The Open Source CFD Toolbox           |
|  \\    /   O peration     | Version:  5.x                                   |
|   \\  /    A nd           | Web:      www.OpenFOAM.org                      |
|    \\/     M anipulation  |                                                 |
\*---------------------------------------------------------------------------*/
FoamFile
{
    version     2.0;
    format      ascii;
    class       surfaceScalarField;
    location    "5";
    object      phi;
}
// * * * * * * * * * * * * * * * * * * * * * * * * * * * * * * * * * * * * * //

dimensions      [0 3 -1 0 0 0 0];

internalField   nonuniform List<scalar> 
29271
(
-3.06622e-06
-3.5289e-07
1.09927e-06
2.33354e-06
-4.06308e-06
1.83773e-07
9.0264e-07
3.00924e-06
-1.02423e-05
-1.8115e-06
-9.76185e-07
1.42956e-06
2.58984e-06
9.01061e-06
-1.03701e-05
-2.50545e-06
-1.41488e-06
8.21192e-07
3.64367e-06
9.8256e-06
-1.05138e-05
-1.65338e-06
6.4112e-07
3.67197e-06
8.52457e-06
-6.70477e-07
-9.97502e-06
-1.7706e-06
-8.10166e-07
1.47164e-06
2.39019e-06
8.69396e-06
-9.31409e-06
-3.09626e-06
-2.87158e-06
2.68667e-06
2.32899e-06
1.02663e-05
-9.67134e-06
-3.41313e-06
-1.0441e-06
1.41394e-07
1.70375e-06
1.22834e-05
-1.0406e-05
-4.62252e-06
1.38253e-07
-6.47477e-07
3.34593e-06
1.21918e-05
-9.05509e-06
-1.40841e-06
1.99217e-06
7.80767e-06
6.65742e-07
-3.59202e-06
-1.34844e-06
1.33461e-06
3.63664e-06
-9.82404e-06
-1.92448e-06
-2.19831e-06
2.54548e-06
1.83125e-06
9.5701e-06
-1.09294e-05
-2.46481e-06
-2.85922e-06
1.369e-06
4.05864e-06
1.08258e-05
-1.02518e-05
-2.1699e-06
-8.85204e-07
9.02963e-07
3.51206e-06
8.89187e-06
-1.09576e-05
-2.79728e-06
-1.37543e-07
-8.8837e-07
3.57596e-06
1.12048e-05
-1.03321e-05
-1.81492e-06
-8.45025e-07
2.53648e-06
9.3366e-06
1.11892e-06
-9.87049e-06
-1.51859e-06
3.44158e-06
9.13193e-07
8.25132e-06
-1.21702e-06
-1.17064e-05
-3.63245e-06
-2.61782e-06
1.16573e-06
1.59602e-06
1.51949e-05
-1.13641e-05
-3.04633e-06
-4.80179e-07
2.05756e-07
3.97651e-06
1.07083e-05
-1.0353e-05
-1.48799e-06
1.44342e-06
1.1307e-05
-1.66505e-06
7.55605e-07
-3.34606e-06
-6.24135e-07
1.12947e-06
2.80177e-06
-9.31266e-06
-1.31772e-06
1.5225e-06
9.21839e-06
-1.13408e-07
-1.01791e-05
-6.15423e-07
3.60111e-08
2.70392e-07
1.19726e-05
-1.48454e-06
-3.37502e-06
-3.27705e-07
7.32575e-07
2.93842e-06
-2.33768e-06
-4.36072e-08
-7.70483e-09
2.39111e-06
-3.49278e-06
6.26549e-08
-1.4107e-07
3.59558e-06
7.08324e-08
-1.2224e-07
-8.28231e-06
1.2155e-07
4.01116e-07
7.81105e-06
9.35041e-08
-8.53656e-06
-1.34961e-07
2.55429e-07
3.68654e-07
7.95394e-06
-7.90119e-06
-1.00771e-07
4.13813e-07
1.71764e-07
7.85277e-06
-4.3639e-07
8.93427e-08
-3.02393e-07
-7.90975e-06
7.37643e-07
-2.94068e-08
7.41457e-06
6.93124e-07
-1.4695e-06
5.85522e-05
-1.04595e-05
-1.61966e-05
-1.20887e-05
-1.15448e-05
-1.11787e-06
-1.31074e-06
-5.09916e-07
-5.05863e-07
-1.25051e-06
-1.35517e-06
-7.18364e-07
-7.17852e-07
2.52937e-08
-9.93638e-07
5.79999e-05
-1.56103e-05
-1.31589e-05
-1.16603e-05
-1.22149e-05
-1.38254e-06
-1.31536e-06
-5.37949e-07
-4.58135e-07
-4.4912e-07
-2.40587e-06
5.20337e-05
-9.90516e-07
-5.18677e-07
-1.9597e-07
-5.23289e-09
-4.21427e-07
3.34664e-08
-8.96455e-08
-1.29284e-05
-9.20738e-06
-1.3133e-05
-1.16966e-05
-7.88757e-06
-1.48675e-07
-4.74999e-07
8.08534e-06
-3.02917e-06
-3.31821e-08
5.76886e-07
2.52675e-06
-3.56785e-07
-8.07556e-06
-2.45995e-08
8.07504e-07
3.22208e-07
7.32724e-06
1.07498e-06
-3.12609e-06
5.76842e-05
-1.16603e-05
-9.23332e-06
-1.9381e-05
-1.27761e-05
-1.16451e-06
-1.81436e-06
-5.37288e-07
-5.35606e-07
-1.15078e-06
-4.19856e-06
5.26678e-05
-8.88125e-06
-1.05482e-05
-1.24446e-05
-1.53631e-05
7.5708e-08
-1.60261e-06
4.622e-05
-4.8762e-08
3.03185e-07
3.38628e-07
-1.33492e-06
-5.98574e-07
-7.28744e-07
-1.03681e-05
-9.10387e-06
-1.53004e-05
-1.14083e-05
-8.30349e-06
3.2995e-07
1.38314e-06
-4.25204e-07
7.09131e-06
-8.56979e-06
-3.43161e-07
2.60594e-07
5.39446e-07
8.51343e-06
-4.00524e-07
1.53721e-07
-5.59243e-07
5.03241e-05
-6.68185e-07
-1.97153e-07
-1.21643e-07
-7.4543e-08
-6.27983e-07
-4.19967e-07
-6.38645e-07
-1.46749e-05
-1.04608e-05
-1.14276e-05
-1.37333e-05
-1.60006e-07
-1.91613e-07
4.02716e-05
3.25018e-07
1.28098e-07
7.12932e-08
-4.74394e-07
-6.28996e-07
-4.72199e-07
-8.53985e-06
-9.28612e-06
-1.29997e-05
-1.20879e-05
-9.75236e-06
8.99405e-07
-2.69877e-07
7.36021e-06
-3.51733e-06
5.44839e-07
-1.17174e-06
4.14656e-06
-1.04877e-05
3.43548e-07
-7.48987e-07
1.041e-05
-1.41176e-05
2.51906e-07
-2.50746e-09
1.06397e-06
1.26126e-05
-5.06503e-06
-3.66657e-07
-5.35658e-07
5.97477e-06
-2.5948e-06
-2.44206e-08
-1.44603e-07
2.74346e-06
-3.80347e-06
-4.70075e-09
-1.05671e-07
3.88885e-06
4.17944e-08
9.78527e-09
-7.48158e-06
-9.20719e-10
4.73637e-08
7.38356e-06
6.24224e-08
-7.60203e-06
-2.92997e-08
1.22368e-07
1.14913e-07
7.33162e-06
-7.71807e-06
2.39627e-08
1.21339e-07
-2.99638e-08
7.7769e-06
-1.74167e-07
8.83881e-08
-4.16406e-08
-7.10446e-06
1.47532e-07
-7.76967e-08
6.98788e-06
8.25035e-07
-5.6421e-07
5.63956e-05
3.08733e-07
1.52154e-07
4.09883e-07
2.84715e-07
1.22806e-07
-2.33535e-08
2.27761e-07
4.13045e-07
-3.82252e-07
-5.91202e-07
5.87075e-05
1.12922e-07
1.70617e-07
2.95195e-07
5.12109e-07
3.77005e-07
-1.34003e-06
4.82467e-05
3.45907e-07
4.45965e-07
5.19132e-07
1.33775e-07
2.99754e-07
1.24715e-06
1.37614e-06
-8.29837e-06
1.34341e-07
-1.83796e-07
8.71183e-06
-2.28854e-06
5.2078e-08
-1.19266e-07
2.35644e-06
-4.17896e-08
-7.2618e-06
1.09985e-07
1.79602e-07
-1.37581e-07
7.15158e-06
7.51506e-07
-2.21447e-06
5.82634e-05
-6.1709e-08
1.99922e-08
2.17886e-07
1.43365e-07
-6.08261e-07
-2.22601e-06
5.56624e-05
2.54536e-07
-4.85136e-07
4.53515e-05
2.13607e-07
6.98609e-07
4.80177e-08
-2.94209e-07
-7.34708e-07
-7.80498e-07
-7.16478e-06
2.37558e-07
1.05206e-07
-5.83405e-07
7.65996e-06
-8.45844e-06
1.16597e-07
-7.9631e-08
-7.34434e-09
8.36293e-06
6.58854e-08
8.51104e-08
-2.39035e-07
4.91541e-05
1.23947e-07
2.9581e-07
2.32869e-07
3.29307e-07
-4.3794e-07
-5.51717e-07
-8.82797e-07
-1.27032e-07
-6.95957e-07
4.18046e-05
2.26485e-08
-1.65451e-07
-1.93086e-07
-6.70163e-07
-9.29924e-07
-9.14952e-07
-7.24216e-06
1.42395e-07
-4.05446e-07
6.89304e-06
-4.57962e-06
1.64796e-07
-4.02527e-07
4.82397e-06
-1.01226e-05
3.03232e-07
-5.14166e-07
1.01343e-05
-1.27043e-05
2.21145e-07
1.76021e-07
-5.78218e-07
1.21894e-05
-5.53586e-06
4.99401e-07
-2.18718e-07
5.29699e-06
-3.69531e-06
-5.20749e-08
1.33132e-07
3.61425e-06
-3.40087e-06
1.22928e-07
8.0423e-07
2.47371e-06
-7.15786e-07
-7.07755e-07
-7.78071e-06
5.52114e-07
1.4305e-06
7.22164e-06
-9.446e-07
-7.12491e-06
-7.91341e-08
-4.60395e-07
1.62696e-06
6.98207e-06
-8.2721e-06
-7.15295e-07
3.09725e-07
2.06007e-06
5.89123e-06
7.26372e-07
-1.0753e-06
-5.71696e-07
-7.25528e-06
1.32825e-06
7.31303e-07
6.84273e-06
4.66636e-06
7.08654e-06
6.79308e-05
-2.74111e-06
-3.06184e-06
-3.1366e-06
-3.22419e-06
-2.72278e-06
-2.88143e-06
-2.74894e-06
-2.77116e-06
-3.73856e-06
7.05199e-06
7.33773e-05
-3.15322e-06
-3.14796e-06
-3.45762e-06
-3.55799e-06
-7.85767e-07
5.76964e-07
6.14922e-05
-3.16452e-06
-3.24128e-06
-3.22506e-06
-2.57932e-06
-1.09269e-06
-1.37122e-06
-2.1012e-06
-1.06096e-05
-1.20494e-06
1.74859e-06
9.28022e-06
-2.72272e-06
-2.68893e-07
6.15781e-07
2.37583e-06
-1.11962e-06
-7.4124e-06
-4.49362e-07
1.73519e-06
1.08995e-07
7.1372e-06
5.57721e-06
-4.94516e-06
7.76138e-05
-3.27682e-06
-3.22855e-06
-3.26688e-06
-3.12367e-06
-4.84295e-06
-4.98348e-06
7.8118e-05
-2.46658e-06
-2.26155e-06
6.28066e-05
-1.80573e-06
-3.85632e-06
-2.37616e-06
-1.95074e-06
-3.66499e-06
-3.33897e-06
-6.44475e-06
-1.29397e-06
5.31132e-07
3.96916e-07
4.34409e-06
-9.08775e-06
-9.18943e-07
1.98181e-06
2.89319e-07
7.74187e-06
-6.30701e-09
1.67638e-06
-2.12227e-06
7.32596e-05
-3.98991e-06
-3.38964e-06
-4.4537e-06
-4.10891e-06
-2.09472e-06
-4.96699e-06
-5.60089e-06
-3.47733e-06
-2.26687e-06
7.06286e-05
-2.55336e-06
-5.11037e-06
-4.54728e-06
-2.12604e-06
-5.98933e-06
-6.06057e-06
-6.157e-06
-2.16183e-06
-1.212e-06
3.79194e-06
-5.21426e-06
4.57702e-07
7.25856e-07
4.0307e-06
-9.88061e-06
-1.72467e-06
1.76607e-06
7.71694e-06
-1.09846e-05
-1.06684e-06
5.0812e-07
1.12737e-08
9.2652e-06
-5.17612e-06
4.87152e-07
1.83929e-07
4.50504e-06
-3.11256e-06
-6.36524e-08
-8.56054e-08
3.26182e-06
-1.67434e-06
1.02211e-06
1.63681e-07
4.88553e-07
-3.8731e-07
-1.68102e-06
-5.86258e-06
1.19478e-06
1.41397e-06
5.32216e-06
-8.32525e-07
-6.39272e-06
5.61864e-08
-1.22371e-06
1.6349e-06
6.75787e-06
-2.43514e-06
-9.95021e-08
-5.32049e-07
2.02491e-06
-3.4931e-07
1.3911e-06
-8.05445e-07
-7.21872e-07
-5.90169e-06
1.33521e-06
6.00169e-07
5.49362e-06
1.48444e-06
1.35659e-06
7.17948e-05
-1.2588e-06
-1.42459e-06
-5.77695e-07
-6.87413e-07
-1.07882e-06
-1.0036e-06
-6.23024e-07
-5.10774e-08
1.68242e-06
7.73641e-07
7.51778e-05
-1.17705e-06
-1.39814e-06
-1.2127e-07
-7.56565e-08
-4.01898e-08
-6.67816e-07
6.34268e-05
-2.15181e-06
-6.11751e-07
-6.23258e-07
1.10287e-06
-5.3582e-07
1.54554e-06
1.73008e-06
-6.97566e-06
-2.17372e-07
7.50917e-07
6.40193e-06
-2.01469e-06
-1.93115e-07
2.58875e-07
1.94893e-06
-4.275e-07
-6.25226e-06
-5.03512e-09
8.9464e-07
-4.65213e-07
6.25536e-06
1.46617e-06
-2.10466e-06
7.82661e-05
-6.62152e-07
-6.20757e-07
1.28781e-06
1.33786e-06
1.72897e-06
-9.79937e-07
7.96088e-05
-6.86134e-07
-2.6117e-07
5.85292e-05
1.39563e-07
2.62642e-06
1.99678e-06
2.01042e-07
6.77169e-07
6.4484e-07
-3.3648e-06
3.39309e-07
-3.82473e-07
-1.30581e-06
4.02764e-06
-4.77509e-06
-1.11405e-07
1.4745e-06
-3.19108e-07
3.28338e-06
4.47719e-07
1.848e-06
-9.77483e-07
7.14248e-05
-1.72343e-06
-1.1773e-06
4.36963e-07
9.08071e-07
-1.44802e-06
1.27888e-06
5.84458e-07
-3.02094e-07
-1.55408e-06
7.02091e-05
-4.9485e-07
1.67491e-06
1.30061e-06
-1.2724e-06
4.97293e-07
1.43825e-06
-1.03825e-06
-6.46499e-07
-1.2002e-06
2.32168e-06
-1.87576e-06
1.25498e-06
-1.00189e-07
7.20973e-07
-3.95219e-06
-8.22648e-08
-2.24523e-07
3.2815e-06
-3.57816e-06
8.07087e-08
4.03462e-07
-1.36038e-06
2.90029e-06
-2.39495e-06
1.3707e-06
-2.52523e-07
1.27677e-06
-3.47814e-06
-6.6183e-07
4.30027e-07
3.70994e-06
-2.19743e-07
1.75882e-06
-1.29896e-06
-2.40117e-07
1.28196e-07
-1.81018e-06
-4.87241e-06
1.12358e-06
4.15909e-07
5.0149e-06
-7.68229e-07
-7.30626e-06
-1.35298e-07
-5.31106e-07
7.54837e-07
7.98605e-06
9.82211e-07
5.60417e-07
-1.54966e-06
-3.51235e-07
-8.42583e-07
1.20085e-06
1.14004e-06
-9.49151e-07
-4.90181e-06
9.95552e-07
-1.15863e-06
4.87399e-06
2.04763e-07
-1.77917e-06
7.09251e-05
2.24418e-07
-4.93163e-07
7.88875e-07
3.44172e-07
-1.78756e-07
4.3656e-07
3.65062e-07
9.56939e-07
2.09903e-06
-2.47037e-06
7.20173e-05
1.40946e-07
6.48896e-07
1.24055e-06
1.70619e-06
1.28159e-06
-2.63365e-06
6.12696e-05
2.90364e-07
1.73985e-06
7.94569e-07
1.48614e-06
6.21307e-07
3.50868e-07
3.25196e-07
-6.22087e-06
8.76132e-07
1.44096e-06
-9.46502e-07
6.13187e-06
1.75761e-07
-3.65468e-07
5.90525e-07
-4.00817e-07
-2.0621e-06
2.5044e-07
-5.65488e-07
2.37715e-06
3.51444e-07
-7.01781e-06
1.43529e-06
-7.08556e-07
-1.45723e-06
7.39686e-06
-4.51554e-07
-1.56103e-06
7.24047e-05
1.3155e-06
1.31268e-06
1.6663e-06
1.80039e-06
3.22252e-06
-5.70601e-07
7.4035e-05
9.16369e-07
1.04598e-08
5.56619e-05
1.51189e-06
5.88303e-07
9.54724e-07
3.57547e-08
1.10034e-08
-5.72271e-07
-5.65969e-06
1.02371e-06
1.92922e-06
-1.45133e-06
5.07447e-06
-1.98976e-08
-1.97742e-06
-4.95762e-07
-4.05437e-07
2.89852e-06
-3.51185e-06
9.87939e-07
-9.98636e-07
-1.51588e-06
3.80344e-06
1.23499e-06
7.20926e-07
7.2726e-07
6.36497e-05
8.5494e-07
1.03915e-06
1.26674e-06
7.45348e-07
3.66906e-07
3.3084e-07
1.61985e-07
1.11848e-06
1.45669e-07
6.53013e-05
9.68817e-07
1.10816e-06
7.27155e-07
7.63349e-07
-7.00601e-08
2.96464e-07
-4.22549e-06
1.03666e-06
-6.63103e-07
4.98087e-06
-7.54564e-07
1.06625e-06
-1.2124e-06
9.00713e-07
-3.60317e-06
5.77235e-07
3.52367e-07
3.40083e-06
-4.02378e-06
-1.51894e-07
1.49159e-07
-2.61632e-07
4.43382e-06
-9.26211e-07
9.71722e-07
-7.6759e-07
7.22079e-07
-3.77787e-06
-1.15239e-06
1.14841e-06
3.78185e-06
1.80842e-07
1.20971e-06
-1.19301e-06
-1.97537e-07
8.04035e-07
-1.11986e-06
-5.53759e-06
3.34502e-07
-1.03593e-06
6.55484e-06
-5.23923e-07
-8.93871e-06
1.65375e-07
-2.9796e-08
-3.79664e-07
9.70672e-06
-4.18908e-08
4.38644e-07
-1.36293e-06
-8.04384e-07
1.28073e-06
4.89822e-07
1.96649e-06
-3.99803e-07
-4.95099e-06
9.05199e-08
-1.78615e-06
5.07993e-06
-6.45519e-07
-3.61019e-06
6.681e-05
1.41498e-06
8.09082e-07
1.59496e-06
1.44354e-06
5.90395e-07
8.24875e-07
5.69219e-07
1.12367e-06
1.23172e-06
-3.73877e-06
6.75362e-05
1.19958e-06
1.47633e-06
1.7692e-06
1.89752e-06
-9.63638e-08
-3.04771e-06
5.99653e-05
7.47185e-07
1.61479e-06
1.08746e-06
1.46366e-06
3.61158e-07
-1.4062e-07
5.4647e-07
-6.06259e-06
1.66834e-06
6.11209e-07
-1.50674e-07
3.83735e-06
2.19213e-07
-3.14675e-07
-5.7351e-07
-3.34199e-07
9.49745e-08
9.08196e-07
-2.71388e-06
4.08812e-07
-7.09214e-07
3.01428e-06
7.08525e-07
-7.72587e-06
1.49184e-06
-1.15557e-06
-1.36895e-06
8.05002e-06
-7.52121e-07
-1.97074e-06
6.48346e-05
1.35288e-06
1.62221e-06
1.63103e-06
2.0766e-06
2.77895e-06
-9.29052e-07
6.76942e-05
4.80934e-07
-3.8333e-07
5.44557e-05
8.69246e-07
6.6029e-07
5.53357e-07
-5.50387e-07
-2.5711e-07
-4.3563e-07
-5.88969e-06
7.47392e-07
2.08315e-07
-1.49257e-06
6.90749e-06
-3.25185e-06
1.91971e-07
-1.45491e-07
-2.14223e-07
-1.64458e-07
3.58405e-06
-4.05136e-06
1.14349e-06
-1.59412e-06
-7.05954e-07
4.1985e-06
1.00946e-06
-5.34146e-08
5.02081e-07
5.51977e-05
1.50932e-06
8.1408e-07
1.95639e-06
6.81542e-07
2.88401e-07
4.95688e-07
2.871e-07
8.71137e-07
-2.20628e-07
6.11206e-05
7.42958e-07
1.06733e-06
6.6573e-07
1.69591e-07
-2.70129e-07
1.72261e-07
-5.60992e-06
1.13277e-06
-7.09149e-07
5.6741e-06
-1.26373e-06
9.20633e-07
-1.75132e-06
9.87281e-08
1.99569e-06
4.87707e-07
3.99102e-07
-3.6143e-07
-5.25379e-07
-2.72167e-06
6.64804e-07
2.60536e-07
2.29841e-06
-4.70483e-06
-5.68714e-07
4.547e-07
-3.51631e-07
4.94985e-06
-5.29239e-07
6.25486e-07
-4.69627e-07
3.7338e-07
-3.82616e-06
-8.70187e-07
7.57324e-07
3.93902e-06
-1.35311e-08
-1.32084e-07
-1.20398e-07
2.66013e-07
1.57485e-06
-2.49825e-07
-7.52566e-06
-2.46744e-08
-2.1717e-06
8.39701e-06
3.90903e-08
-1.03345e-05
3.80335e-07
-1.3103e-08
-7.9828e-07
1.07265e-05
-2.65892e-06
1.62124e-07
-7.6768e-07
-7.79986e-07
3.98651e-06
5.79454e-08
1.51266e-06
-4.76957e-07
-5.01786e-06
3.57958e-07
-1.39184e-06
5.01603e-06
-7.69717e-07
-7.31676e-06
6.39093e-05
2.19051e-06
1.72915e-06
2.52477e-06
2.37206e-06
5.05965e-07
7.63413e-07
3.42677e-07
5.58639e-07
9.7703e-07
-4.04721e-06
6.38714e-05
1.33814e-06
1.29102e-06
1.75362e-06
1.58247e-06
1.10917e-07
-1.80804e-06
5.70066e-05
6.89099e-07
1.22402e-06
1.08568e-06
1.17774e-06
7.62375e-07
-1.6687e-07
8.60774e-07
-3.23525e-06
4.76599e-07
-1.94031e-07
1.37115e-07
2.92648e-06
-1.21343e-06
6.61717e-07
1.15911e-07
-1.6086e-07
-2.98564e-07
8.95224e-07
-3.14107e-06
2.41991e-07
-1.83802e-07
3.08288e-06
8.83632e-08
-8.70842e-06
2.96033e-07
-8.82929e-07
-1.92087e-07
9.39904e-06
-1.21932e-06
-4.71044e-06
5.70117e-05
1.28393e-06
1.75719e-06
1.41994e-06
1.97486e-06
2.02587e-06
-1.81257e-06
6.22143e-05
6.31229e-07
-4.75119e-07
5.4029e-05
1.73972e-07
7.41365e-07
-1.8978e-07
-1.69854e-07
-1.564e-07
8.91367e-08
-8.1752e-06
1.1935e-07
5.7791e-07
-1.14089e-06
9.25006e-06
-3.95697e-06
-3.04087e-07
-8.33149e-07
2.28675e-07
7.62601e-07
4.10293e-06
-4.48023e-06
5.23985e-07
-1.72732e-06
6.14211e-07
5.09886e-06
-2.94934e-08
-1.37557e-08
3.80204e-07
4.40657e-05
2.01459e-06
6.73947e-07
2.14964e-06
6.49203e-07
7.09209e-08
4.14284e-07
8.25691e-08
1.05617e-06
-2.06014e-07
5.50578e-05
7.08049e-07
1.20593e-06
4.71959e-07
3.57746e-07
9.92732e-08
5.43398e-07
-5.8734e-06
9.88709e-07
-3.04478e-07
5.77022e-06
-2.60434e-06
7.53278e-07
3.27801e-07
-1.1477e-06
2.67096e-06
7.87421e-07
-8.53063e-07
7.84706e-07
-8.40406e-08
-6.35023e-07
-2.10668e-06
1.42612e-07
1.59398e-07
2.18487e-06
-5.18526e-06
-2.31946e-07
1.16969e-07
-3.70922e-07
5.46515e-06
-3.44824e-07
-8.18584e-08
-7.65645e-08
5.03247e-07
-4.17393e-06
-6.51139e-07
2.38337e-07
4.58673e-06
-4.95989e-07
-1.31685e-06
1.19492e-06
6.17921e-07
1.65737e-06
4.81279e-07
-8.99937e-06
7.8089e-09
-2.39083e-06
9.24374e-06
6.10081e-07
-1.10105e-05
8.20763e-08
1.57462e-07
-7.86502e-07
1.09474e-05
-5.25454e-06
8.53914e-08
-1.98577e-07
-7.17639e-07
6.14999e-06
-6.46242e-08
-1.14183e-07
-3.34698e-07
-5.12856e-06
8.25937e-07
-4.19916e-07
5.17142e-06
-1.75757e-06
-9.84908e-06
6.58415e-05
2.69031e-06
2.21245e-06
2.64039e-06
2.6191e-06
8.93581e-08
-4.33662e-07
2.46531e-07
-3.89974e-07
-1.18204e-06
-4.28964e-06
6.34938e-05
9.85546e-07
7.79835e-07
1.27154e-06
1.05477e-06
-5.12309e-07
-1.15343e-06
5.4297e-05
7.4969e-07
1.14606e-06
1.22035e-06
8.96533e-07
6.07391e-07
-1.45235e-06
2.56049e-08
-3.76137e-06
9.33337e-07
-1.1491e-06
-2.4209e-07
3.70692e-06
6.68147e-07
7.36137e-07
2.31252e-07
-1.09788e-06
-5.37661e-07
-2.95253e-06
2.11149e-07
8.5611e-08
2.65577e-06
-5.86879e-07
-9.66828e-06
-3.33483e-08
3.80417e-07
6.82771e-07
9.22532e-06
-1.54582e-06
-6.63266e-06
5.32688e-05
2.79879e-07
1.20449e-06
-1.15384e-07
7.0333e-07
6.487e-07
-3.45173e-06
5.91819e-05
2.35995e-07
-1.54976e-07
5.41445e-05
-2.25494e-07
-1.78695e-07
-1.33941e-06
3.52342e-07
2.41442e-07
4.48635e-07
-9.86684e-06
5.05317e-08
3.74497e-07
3.17337e-07
9.36047e-06
-3.68979e-06
-4.00485e-07
-8.71316e-07
1.14163e-06
1.28664e-06
2.53332e-06
-6.05292e-06
-5.25288e-07
-4.25241e-07
1.38329e-06
6.74749e-06
-1.12733e-06
7.71403e-08
6.78541e-08
3.59474e-05
1.09371e-06
-2.70727e-08
7.2125e-07
-1.12049e-07
-2.05574e-07
7.49073e-08
-2.04555e-07
4.27675e-07
2.54507e-07
4.89114e-05
5.2532e-08
4.06929e-07
2.23505e-08
5.58087e-07
4.1916e-07
6.30531e-07
-6.30418e-06
9.85626e-08
1.07299e-07
6.37102e-06
-2.34973e-06
-1.52251e-06
1.04134e-06
2.8309e-06
-2.5133e-06
-4.55447e-07
2.12447e-07
2.82415e-06
-5.98033e-06
1.99579e-07
-4.64784e-07
9.63234e-08
6.40372e-06
-8.73838e-07
-4.76767e-07
1.47783e-07
1.20282e-06
-5.09677e-06
-3.53356e-07
2.34164e-08
5.42671e-06
-6.40243e-07
-1.8774e-06
1.97668e-06
5.40964e-07
6.57288e-07
9.86021e-07
-9.2561e-06
-1.07153e-07
-1.37198e-06
9.09193e-06
3.91416e-07
-1.0708e-05
-2.12011e-07
3.88935e-07
-1.30058e-07
1.02697e-05
-6.96307e-06
-1.81481e-07
4.66004e-07
-5.47601e-07
7.53808e-06
-3.11928e-07
-1.55671e-06
8.40813e-07
-5.23622e-06
-3.20924e-07
1.2335e-06
5.03955e-06
-2.86112e-06
-1.09148e-05
7.07487e-05
2.38091e-06
2.07246e-06
2.37119e-06
2.3939e-06
2.82131e-07
-7.13411e-07
2.87795e-07
-2.06281e-07
-3.17627e-06
-4.83997e-06
6.71531e-05
3.96146e-07
2.06938e-07
4.22847e-07
4.69885e-07
-1.48266e-06
-1.25819e-06
5.24671e-05
8.98378e-07
6.75158e-07
1.34999e-06
6.04516e-07
-1.19896e-06
-4.62066e-07
-4.72546e-07
-4.20909e-06
-3.65439e-07
-6.02667e-07
3.69453e-06
-2.24893e-06
-7.44549e-07
1.11447e-06
1.87901e-06
-1.4773e-06
-8.54661e-06
-7.77679e-07
1.99369e-06
1.11881e-06
7.6891e-06
-1.87671e-06
-6.86272e-06
5.41379e-05
-1.0618e-06
-5.30375e-07
-8.59642e-07
-5.92604e-07
-9.86848e-07
-4.90698e-06
5.83591e-05
-1.33451e-06
8.10462e-08
5.50113e-05
-1.70708e-06
-7.98837e-07
-1.21016e-06
5.63864e-07
4.83917e-07
8.0985e-07
-1.1266e-05
-5.40397e-07
-2.17437e-06
2.0437e-06
1.06026e-05
-7.21474e-06
-1.10835e-06
8.33566e-07
1.60411e-06
7.26613e-06
-1.38071e-06
6.35727e-07
-2.48484e-07
3.29082e-05
-5.23725e-07
-8.33055e-07
-6.17746e-07
-9.01204e-07
-5.12874e-07
-2.89663e-07
-5.3248e-07
-4.06885e-07
3.08265e-07
4.46131e-05
-4.81089e-07
-2.01808e-07
-5.13634e-07
5.16872e-07
3.21087e-07
4.84237e-07
-7.03027e-06
-5.46325e-07
2.56958e-07
6.9938e-06
-3.18138e-06
-9.89753e-07
1.42405e-06
2.74708e-06
-3.27048e-06
-9.71368e-07
3.55754e-07
3.63761e-06
-6.79912e-06
3.14665e-07
-5.96801e-07
4.0106e-07
6.98846e-06
-1.46924e-06
-4.42286e-07
2.50732e-07
1.66079e-06
-5.43912e-06
2.25063e-07
1.06115e-07
5.10794e-06
-3.82415e-07
-1.77744e-06
1.90478e-06
2.55077e-07
-1.49634e-07
8.94997e-07
-8.9486e-06
2.09771e-07
-6.01837e-07
8.5953e-06
-9.42418e-07
-9.88752e-06
-7.95784e-07
8.49945e-07
1.13156e-06
9.64421e-06
-8.07924e-06
-6.07923e-07
1.02781e-06
-1.17768e-07
8.38555e-06
-6.08429e-07
-2.27084e-06
1.61182e-06
-4.53635e-06
-1.0327e-06
2.44666e-06
3.7814e-06
-4.22278e-06
-1.09037e-05
7.8206e-05
1.92975e-06
1.54427e-06
1.33903e-06
1.6901e-06
2.63346e-07
-3.54353e-07
8.77577e-07
3.79395e-07
-4.07879e-06
-5.11999e-06
7.28966e-05
-5.69849e-07
-2.36541e-07
-3.12291e-07
3.51251e-07
-1.56388e-07
-2.06649e-06
4.90481e-05
9.17891e-07
1.62367e-07
1.32496e-06
-1.18365e-07
-3.29904e-07
-6.40117e-08
-3.29783e-07
-3.57374e-06
-1.21562e-06
1.15868e-06
3.4743e-06
-1.76081e-06
-1.09631e-06
1.04002e-06
1.81709e-06
-9.597e-07
-6.9717e-06
-1.86169e-06
1.77823e-06
1.70255e-06
6.31232e-06
-2.31118e-06
-7.08878e-06
5.68966e-05
-1.30759e-06
-1.26416e-06
-7.40176e-07
-9.50478e-07
-2.47345e-06
-5.66248e-06
5.90638e-05
-6.81785e-07
5.33442e-08
5.25726e-05
-1.15026e-06
-6.37416e-07
-1.03073e-06
5.92203e-07
2.77391e-07
4.76063e-07
-9.61939e-06
-1.0118e-06
-7.83586e-07
1.86275e-06
8.87025e-06
-7.21964e-06
-1.23785e-06
1.29371e-06
1.73672e-06
7.01054e-06
-1.58349e-06
1.8194e-06
-6.05432e-07
3.23673e-05
-1.36593e-06
-1.39912e-06
-1.25646e-06
-1.4311e-06
-8.2606e-07
-6.68289e-07
-8.14844e-07
-6.97873e-07
8.10139e-08
4.26597e-05
-7.2462e-07
-4.18752e-07
-6.29916e-07
2.5605e-07
4.68283e-08
1.97567e-07
-7.58501e-06
-9.21442e-07
2.95698e-07
7.56623e-06
-2.55576e-06
-1.13529e-06
1.47499e-06
2.21606e-06
-4.03984e-06
-1.21867e-06
4.13806e-07
4.23927e-06
-7.20254e-06
2.38368e-07
-4.7455e-07
2.80597e-07
7.23914e-06
-1.83014e-06
-3.74776e-07
2.59083e-07
1.94584e-06
-4.61795e-06
3.62273e-07
6.36553e-08
4.19202e-06
-2.09063e-07
-1.14099e-06
1.12843e-06
2.21627e-07
4.95547e-08
4.73937e-07
-7.94065e-06
8.12437e-07
-3.37458e-07
6.94218e-06
-9.21061e-07
-9.62098e-06
-1.19894e-06
1.07053e-06
1.13687e-06
9.53358e-06
-8.51456e-06
-6.39827e-07
1.33306e-06
3.11784e-07
8.18573e-06
-6.76189e-07
-1.98094e-06
1.66541e-06
-3.26613e-06
-2.38853e-06
2.68199e-06
3.2882e-06
-5.71115e-06
-7.76348e-06
8.53644e-05
4.25894e-07
2.70432e-07
4.55263e-07
2.943e-07
1.45025e-06
5.3955e-07
1.67767e-06
1.20285e-06
-5.58575e-06
-4.62637e-06
7.86025e-05
-9.99025e-07
-2.60981e-07
-3.51284e-07
4.06318e-07
-2.9834e-07
-1.7672e-06
4.74975e-05
5.69943e-07
-4.98909e-07
6.34935e-07
-5.90267e-07
-6.78884e-07
-5.56388e-07
-8.50034e-07
-3.36681e-06
-1.74516e-06
1.66018e-06
3.15344e-06
-1.91007e-06
-7.35712e-07
6.67913e-07
1.97787e-06
-9.51179e-08
-5.91019e-06
-2.43491e-06
4.62253e-07
2.08922e-06
5.88875e-06
-2.05644e-06
-6.34995e-06
6.04097e-05
-7.69634e-07
-1.33638e-06
7.27588e-08
-8.36927e-07
-3.50187e-06
-5.9901e-06
6.1873e-05
-8.42052e-07
-1.85084e-07
5.03259e-05
-9.32782e-07
-7.12221e-07
-6.3473e-07
1.9198e-07
-5.54026e-09
9.80342e-08
-8.42913e-06
-8.99831e-07
-7.04731e-07
1.25774e-06
7.9339e-06
-6.90592e-06
-1.10025e-06
1.22681e-06
1.5298e-06
6.93129e-06
-1.68171e-06
3.38583e-06
-8.06101e-07
3.24642e-05
-1.68885e-06
-1.6962e-06
-1.43559e-06
-1.64726e-06
-8.96668e-07
-8.30103e-07
-8.31992e-07
-4.9986e-07
-1.87324e-07
4.19103e-05
-4.93579e-07
1.768e-08
-3.81267e-07
-2.29904e-08
-2.02742e-07
-8.47683e-08
-8.21208e-06
-7.89094e-07
-8.04724e-08
8.3967e-06
-1.84057e-06
-7.55032e-07
1.02146e-06
1.57414e-06
-4.40082e-06
-1.16024e-06
3.54743e-07
4.40021e-06
-7.23921e-06
1.31513e-07
-2.01968e-07
1.00024e-07
7.02232e-06
-1.97129e-06
1.99781e-08
5.15962e-08
1.89972e-06
-3.91848e-06
1.57458e-07
-3.09954e-08
3.79202e-06
-2.53813e-07
-2.13018e-07
1.70971e-07
2.9586e-07
4.41984e-07
2.92235e-07
-5.83726e-06
8.03628e-07
-3.40072e-07
4.63949e-06
-1.1215e-07
-9.61484e-06
-1.07619e-06
8.10451e-07
2.25267e-07
9.76746e-06
-7.56516e-06
-4.67201e-07
1.18665e-06
8.22747e-07
6.71675e-06
-6.93794e-07
-8.73922e-07
2.76867e-07
-3.69918e-06
-1.42885e-06
1.60635e-06
4.11873e-06
-4.80132e-06
1.43601e-06
8.81651e-05
-6.52399e-07
-1.13046e-06
-8.61677e-07
-1.64208e-07
1.09062e-06
7.21367e-07
5.35084e-07
1.02633e-06
-6.088e-06
-4.46147e-06
8.53839e-05
-8.74028e-07
-3.42291e-07
-1.70117e-07
3.53231e-07
-9.33641e-07
6.92254e-07
4.76331e-05
-5.05869e-07
-1.04767e-06
-2.9065e-07
-1.00695e-06
-1.03208e-06
-1.13475e-06
-9.64322e-07
-3.02285e-06
-1.46729e-06
7.09862e-07
2.84663e-06
-1.97427e-06
-1.3327e-07
1.5285e-07
1.95469e-06
2.66444e-07
-6.22951e-06
-1.93767e-06
-3.44759e-07
1.69133e-06
6.55416e-06
1.26121e-07
-1.73134e-06
6.55912e-05
-3.75178e-07
-1.1596e-06
4.0736e-08
-6.462e-07
-3.25817e-06
-5.61493e-06
6.64107e-05
-5.82552e-07
-2.46436e-07
4.8939e-05
-3.70897e-07
-3.70553e-07
-2.13913e-07
2.00012e-07
1.40112e-07
2.65217e-07
-7.49805e-06
-3.76704e-07
-3.24298e-07
6.17006e-07
6.9995e-06
-7.07013e-06
-4.96904e-07
7.09888e-07
7.93683e-07
7.12845e-06
-1.06499e-06
5.07717e-06
-6.08388e-07
3.40434e-05
-1.60687e-06
-1.69242e-06
-1.26132e-06
-1.60394e-06
-5.8558e-07
-5.5885e-07
-4.70279e-07
1.10778e-07
-3.02103e-07
4.21821e-05
-1.73868e-07
4.69953e-07
-1.72219e-07
-2.03016e-07
-2.90738e-07
-2.48352e-07
-9.0905e-06
-1.91312e-07
-1.6745e-07
9.3136e-06
-1.45897e-06
-4.67603e-07
4.25939e-07
1.50064e-06
-4.31064e-06
-8.38881e-07
3.08751e-07
4.23238e-06
-6.78532e-06
1.17314e-08
8.17043e-09
-2.63785e-08
6.4897e-06
-1.77874e-06
1.37023e-07
-4.4346e-08
1.68607e-06
-3.75637e-06
9.73146e-08
-1.1161e-07
3.77067e-06
-3.79022e-07
5.79663e-07
-6.93601e-07
4.92959e-07
2.33559e-07
-8.93048e-09
-3.54036e-06
2.42256e-07
1.80133e-07
2.89334e-06
-2.14792e-07
-9.95483e-06
-2.3274e-07
9.48727e-08
4.77759e-07
9.82973e-06
-6.03911e-06
-2.84482e-07
9.00363e-07
6.52858e-07
5.38493e-06
-6.14551e-07
3.10118e-07
-8.31743e-07
-4.26288e-06
4.27826e-07
3.07008e-08
4.32598e-06
-1.73379e-06
9.26972e-06
8.46966e-05
-1.33297e-06
-1.10928e-06
-1.13304e-06
-1.16976e-06
-1.46862e-07
4.12353e-07
-3.67586e-07
7.79656e-07
-4.04019e-06
-3.68327e-06
9.31805e-05
-1.00749e-06
-2.69675e-07
-6.21102e-07
9.13134e-08
-1.15177e-06
5.38087e-06
4.79028e-05
-1.44892e-06
-1.54941e-06
-1.31399e-06
-1.47827e-06
-8.19417e-07
-1.21845e-06
-7.10486e-07
-2.6284e-06
-1.15626e-06
1.7413e-07
2.45875e-06
-1.92811e-06
2.87463e-07
-1.64058e-07
1.8047e-06
-6.06629e-08
-6.73472e-06
-5.73997e-07
-1.64789e-07
6.49183e-07
6.88498e-06
2.93257e-06
5.24983e-06
6.86651e-05
-4.65866e-07
-9.23288e-07
-9.38949e-08
-5.03576e-07
-1.91856e-06
-4.0985e-06
7.16771e-05
-1.23706e-07
3.02127e-07
4.96603e-05
4.74363e-08
-2.75383e-09
8.03557e-08
7.43501e-07
8.72225e-07
8.21762e-07
-6.59683e-06
-1.18435e-07
3.09138e-08
2.09937e-07
6.35071e-06
-7.03151e-06
5.26067e-08
5.77192e-08
3.43049e-07
6.87192e-06
-2.9379e-07
5.33558e-06
6.12223e-08
3.82525e-05
-1.16157e-06
-1.447e-06
-8.41976e-07
-1.34343e-06
1.19959e-07
1.11189e-07
2.06765e-07
1.79567e-07
-2.39343e-07
4.40234e-05
-1.13421e-07
3.85492e-07
-1.81585e-07
-2.07059e-07
-2.11645e-07
-2.16151e-07
-9.97053e-06
1.3115e-07
2.3885e-07
1.00822e-05
-1.60092e-06
-1.72598e-07
-6.85119e-08
1.84202e-06
-4.04771e-06
-2.71303e-07
2.02638e-07
4.1776e-06
-6.27229e-06
-8.2085e-08
3.82472e-08
-7.96e-08
6.15639e-06
-1.62829e-06
-9.13432e-08
5.42022e-08
1.66543e-06
-3.8308e-06
3.77202e-08
-1.50538e-07
3.94362e-06
-6.04153e-07
1.0187e-06
-1.12653e-06
7.11986e-07
2.00411e-07
-3.75927e-07
-2.60055e-06
2.05222e-07
7.03052e-08
2.50054e-06
1.39335e-07
-9.43061e-06
5.80489e-08
-1.45294e-07
5.74887e-07
8.80363e-06
-4.89074e-06
-2.13984e-07
5.56351e-07
6.15896e-07
4.55116e-06
-6.18685e-07
9.32728e-07
-1.10837e-06
-4.3515e-06
1.0954e-06
-9.43445e-07
4.37519e-06
-1.07885e-06
1.26529e-05
7.87132e-05
-1.09902e-06
-1.96795e-06
-9.10324e-07
-1.76651e-06
-4.92129e-07
4.48249e-07
-4.98443e-07
6.95527e-07
-1.92609e-06
1.58319e-06
9.62704e-05
-1.32054e-06
-1.30755e-06
-4.35507e-07
-7.6228e-07
-1.02278e-06
9.35845e-06
4.75472e-05
-2.48407e-06
-1.77476e-06
-2.11372e-06
-1.6611e-06
-4.57389e-07
-1.03489e-06
-3.80267e-07
-2.23881e-06
-8.62673e-07
-1.05061e-07
2.18377e-06
-1.57418e-06
5.75988e-07
-3.60842e-07
1.35903e-06
-1.86451e-07
-7.0476e-06
4.22281e-07
-9.86777e-08
-2.63877e-07
7.17433e-06
3.22589e-06
1.05296e-05
6.83215e-05
-2.15427e-07
-4.48888e-07
-3.57427e-08
-5.89177e-08
-4.07404e-07
3.11688e-07
7.65819e-05
3.10403e-07
1.13321e-06
5.17379e-05
4.10404e-07
3.74974e-07
3.95951e-07
1.24888e-06
1.72491e-06
1.27474e-06
-6.23288e-06
7.46525e-08
3.06791e-07
-2.2881e-07
6.39065e-06
-6.58262e-06
1.16015e-07
-2.77692e-07
2.97143e-07
6.26587e-06
1.8128e-07
4.15506e-06
7.45584e-07
4.35517e-05
-5.59185e-07
-7.71555e-07
-2.29045e-07
-5.5147e-07
8.15474e-07
7.47807e-07
8.77686e-07
5.48587e-08
3.45557e-08
4.83058e-05
-1.53249e-07
3.47736e-07
-1.88942e-07
2.54122e-08
4.55526e-08
1.84064e-08
-1.06548e-05
2.49563e-07
8.19092e-07
1.07742e-05
-2.05115e-06
1.18714e-07
-4.04909e-07
2.33735e-06
-4.17545e-06
2.74872e-07
4.98287e-08
4.59633e-06
-6.16028e-06
-1.14376e-07
-4.75403e-08
-4.26968e-08
6.39945e-06
-1.7696e-06
-3.93994e-07
2.10257e-07
1.95334e-06
-4.14851e-06
-2.3449e-07
-7.41897e-08
4.45719e-06
-8.2801e-07
1.08782e-06
-1.22634e-06
9.66527e-07
3.29483e-07
-6.13501e-07
-2.57955e-06
2.52926e-07
-2.07427e-07
2.81807e-06
1.58206e-07
-8.35623e-06
8.11227e-08
9.49537e-09
8.69587e-08
8.02045e-06
-4.52798e-06
-1.77338e-07
1.2861e-07
4.29303e-07
4.64426e-06
-4.96855e-07
1.23513e-06
-1.03826e-06
-4.4033e-06
1.16078e-06
-1.3565e-06
4.40214e-06
-2.45095e-06
1.44331e-05
7.17771e-05
-9.47551e-07
-2.31717e-06
-7.83313e-07
-2.04591e-06
-2.60963e-07
6.59061e-07
-3.04375e-07
9.54157e-07
-3.41813e-07
8.76019e-06
9.06748e-05
-1.34873e-06
-1.70207e-06
-1.30788e-06
-9.15038e-07
-8.01997e-07
1.06634e-05
4.64606e-05
-2.52524e-06
-1.68365e-06
-2.18271e-06
-1.49791e-06
-2.45087e-07
-7.6761e-07
-2.14293e-07
-2.09306e-06
-3.10001e-07
-5.22626e-07
2.12369e-06
-1.24572e-06
7.85255e-07
-7.60199e-07
1.22067e-06
9.55698e-08
-7.07427e-06
9.18518e-07
-8.56519e-08
-7.36875e-07
6.88271e-06
1.21122e-06
1.26929e-05
6.71936e-05
1.30263e-07
2.52928e-07
5.30498e-07
7.4318e-07
1.24096e-06
6.00432e-06
7.9308e-05
7.04259e-07
1.52067e-06
5.47154e-05
6.85409e-07
7.08828e-07
6.37302e-07
1.33972e-06
2.01795e-06
1.31265e-06
-6.58764e-06
3.41927e-07
6.17931e-07
-6.54172e-07
6.98621e-06
-5.82343e-06
5.96431e-07
-4.56626e-07
-7.1018e-08
5.35169e-06
4.02948e-07
2.36543e-06
1.06904e-06
4.85583e-05
6.00683e-08
1.29238e-07
3.40501e-07
2.65976e-07
1.18696e-06
1.04058e-06