/*--------------------------------*- C++ -*----------------------------------*\
| =========                 |                                                 |
| \\      /  F ield         | OpenFOAM: The Open Source CFD Toolbox           |
|  \\    /   O peration     | Version:  5.x                                   |
|   \\  /    A nd           | Web:      www.OpenFOAM.org                      |
|    \\/     M anipulation  |                                                 |
\*---------------------------------------------------------------------------*/
FoamFile
{
    version     2.0;
    format      ascii;
    class       volVectorField;
    location    "5";
    object      U;
}
// * * * * * * * * * * * * * * * * * * * * * * * * * * * * * * * * * * * * * //

dimensions      [0 1 -1 0 0 0 0];

internalField   nonuniform List<vector> 
10571
(
(0.0823901 0.204559 1.08097)
(0.00166737 0.0339412 0.662539)
(0.035489 0.0600194 1.12375)
(0.128243 0.175215 1.203)
(0.11777 0.136739 1.01496)
(-0.0403607 0.101885 1.04967)
(0.22766 0.205722 1.05064)
(0.066982 0.177241 0.963562)
(0.0553933 0.275288 1.17629)
(-0.0241797 0.122019 1.10258)
(0.193118 0.17003 1.41159)
(0.126146 0.205801 1.03721)
(0.193053 0.343016 0.952349)
(0.0976259 0.2933 0.921944)
(0.0487916 0.33461 1.08)
(0.0797318 0.146502 0.998473)
(0.143632 0.143719 0.796473)
(0.164929 0.290794 1.13073)
(0.062611 0.420878 0.986912)
(0.0120541 0.240867 1.01909)
(-0.0704465 0.0349624 0.704885)
(0.116643 -0.00620155 1.07587)
(0.0239902 0.19264 0.98369)
(-0.0402294 -0.0169095 0.677242)
(0.00895018 0.00153633 0.795973)
(0.00849507 -0.0133402 0.639434)
(0.00442618 -0.00901927 0.795253)
(0.0344067 -0.0287517 0.793905)
(0.0732093 -0.00205396 0.709432)
(0.0525352 -0.0221808 0.731822)
(0.0727518 0.0159536 0.496237)
(0.0226922 0.0286544 0.497538)
(-0.00628968 -0.0267292 0.488497)
(-0.120328 -0.0264408 0.822142)
(0.0501747 0.0137848 0.87771)
(0.0489425 0.0225436 0.696824)
(0.0624005 -0.0847397 0.445399)
(0.00229858 -0.0913987 0.447068)
(-0.00174754 -0.0927198 0.455326)
(0.011403 -0.0652493 0.629928)
(0.00312896 0.0689585 0.818846)
(-0.0038346 -0.0660442 0.476558)
(0.0267424 -0.0894212 0.490641)
(0.0162071 -0.157037 0.760295)
(0.0743625 -0.074579 0.831671)
(-0.069036 -0.109558 1.20011)
(-0.0352532 -0.0342546 1.14191)
(0.0645199 0.0307422 1.20299)
(0.00521455 -0.0144787 0.567736)
(0.00104482 -0.012774 0.446005)
(-0.00331116 -0.00256429 0.48627)
(0.0139269 -0.00149793 0.518692)
(0.0252795 -0.00747636 0.462382)
(0.0129289 -0.0157621 0.444595)
(0.0375717 0.00999981 1.10008)
(0.00560977 0.0116324 1.08355)
(-0.0116981 -0.0179189 1.01335)
(-0.00658382 -0.0240522 0.560212)
(-0.0091407 -0.0181439 0.487738)
(0.0165522 -0.0236251 0.459702)
(0.0440329 -0.0391374 1.06318)
(-0.00416693 -0.0457016 0.975466)
(-0.0278928 -0.0892894 0.843498)
(-0.00108943 -0.0656113 0.407332)
(-0.0203121 -0.0054749 0.429452)
(0.0193789 -0.102848 0.854763)
(-0.0292219 -0.118014 0.640032)
(-0.0162557 -0.0881112 0.500421)
(0.0454912 -0.031536 0.585936)
(-0.0737081 -0.0561846 0.60048)
(-0.00641874 -0.126825 0.64828)
(0.049227 -0.0500682 0.609918)
(0.00673651 -0.00635806 0.385719)
(-0.00565497 0.0380201 -0.0480983)
(0.0517144 0.0731536 0.162763)
(-0.0150071 0.0756364 0.171804)
(-0.0380307 0.100086 0.0978952)
(0.0597977 0.0691567 0.117508)
(0.178629 0.186975 0.866614)
(-0.0174825 0.185964 0.957925)
(-0.125791 0.156147 0.772341)
(-0.00975367 0.0943757 0.33259)
(0.0140522 0.0437595 0.14872)
(0.0887104 0.0200266 0.141287)
(0.210082 0.0725058 1.01458)
(-0.000855053 0.0849481 1.02094)
(-0.1915 -0.141039 0.933894)
(-0.127034 0.0767486 0.0141874)
(0.0951136 0.00719604 0.137906)
(0.306654 -0.261729 1.06794)
(-0.245561 -0.27437 1.03466)
(-0.203504 -0.129059 0.332972)
(-0.0111577 -0.0220158 0.406148)
(0.123344 -0.0745581 0.430991)
(0.0459301 -0.0638446 0.669089)
(-0.017811 -0.02447 0.699124)
(-0.0118427 -0.00614226 0.442032)
(0.0409743 -0.00570598 -0.0317878)
(0.125837 0.0653651 0.204224)
(-0.0620898 0.0786946 0.26366)
(-0.0622855 0.04435 -0.0437106)
(0.0781822 0.0673952 0.208173)
(0.0271265 0.0131323 0.619869)
(0.0198528 -0.0299444 0.669514)
(0.00924583 0.0261399 0.625461)
(-0.0464676 0.0996767 0.301962)
(0.00733582 0.0283357 0.241873)
(0.0496962 -0.023878 0.23719)
(0.0173684 0.034671 0.709995)
(0.0206575 0.0553165 0.727268)
(0.0201762 -0.0445294 0.55753)
(-0.116345 -0.0699936 0.0564116)
(0.0645773 -0.0191503 0.0747133)
(0.137781 -0.0982189 0.666977)
(-0.0714083 -0.0855355 0.646139)
(-0.00523331 -0.0100183 0.0140732)
(0.035901 -0.0915263 0.0583764)
(0.0284067 -0.0682707 0.136291)
(0.0170107 -0.13098 0.0860539)
(0.0555058 -0.056636 0.156828)
(0.0256258 0.0121926 0.521808)
(0.0925591 -0.0581716 -0.0462841)
(0.124606 0.0515683 0.208981)
(-0.024879 0.0694082 0.337583)
(-0.110318 -0.0505103 -0.0676051)
(0.0980922 -0.0701247 0.207161)
(-0.017229 -0.0580636 0.733226)
(0.0198023 -0.106825 0.759973)
(0.0328689 -0.0624953 0.69828)
(0.0756349 -0.000670036 0.290052)
(-0.0575787 0.0566846 -0.0171959)
(-0.0142818 -0.0420459 0.323974)
(0.00269023 -0.118904 0.325967)
(-0.0482653 0.00200245 0.770439)
(0.0260514 0.0243313 0.795761)
(0.0616921 -0.0291133 0.638068)
(0.0315948 -0.135536 0.203177)
(0.153705 -0.00424341 0.120617)
(-0.0376018 -0.0862947 0.131868)
(0.0426159 -0.0586408 0.729451)
(-0.0177373 -0.0456427 0.730789)
(0.118255 0.0248621 0.183627)
(0.07707 -0.0419049 0.0534791)
(0.000973023 0.104521 0.184028)
(0.0154259 0.0389695 0.162738)
(0.0839009 -0.0136277 0.0707478)
(0.158397 0.0192095 0.540268)
(0.0605498 -0.0362109 -0.0267456)
(0.0679758 -0.0439467 0.266619)
(-0.00904175 0.02048 0.414079)
(-0.0747219 -0.0718092 0.0135836)
(0.0448818 -0.156785 0.225617)
(-0.0336167 -0.0932172 0.719284)
(0.0130557 -0.127802 0.735671)
(0.0296531 -0.0768774 0.674444)
(-0.0151121 -0.0436424 0.207209)
(0.0187386 0.00243026 0.0194948)
(-0.0153074 -0.0714785 0.412455)
(-0.0498197 -0.12187 0.345573)
(-0.0598107 -0.0247293 0.726628)
(0.0304109 0.00532384 0.756873)
(0.0614973 -0.0272049 0.615232)
(0.0276359 -0.129103 0.296793)
(0.0225069 -0.0344474 0.133284)
(-0.0823682 -0.0689164 0.160324)
(-0.0205469 -0.0388532 0.660821)
(0.016254 -0.0411636 0.695703)
(0.0845313 -0.0209602 0.244046)
(0.0838449 -0.0830739 0.10047)
(-0.0560735 -0.0316363 -0.0442475)
(-0.0364484 0.0704754 0.121833)
(0.0425202 0.00279162 0.189412)
(0.0442904 -0.00675658 0.0361011)
(0.185221 -0.00365795 0.553684)
(-0.0245056 0.0227819 0.00793344)
(0.0260738 -0.139236 0.354944)
(-0.0292407 -0.0160901 0.467138)
(-0.0389585 -0.0591607 0.125589)
(0.0703254 -0.162111 0.215929)
(-0.0297588 -0.144297 0.644264)
(0.00471315 -0.120918 0.662453)
(0.0347463 -0.0535572 0.648973)
(-0.0080927 -0.042741 0.15906)
(-0.00271524 -0.0613976 0.0497985)
(-0.0106666 -0.0249523 0.4499)
(-0.0222384 -0.0103916 0.404287)
(-0.0668742 -0.105934 0.605488)
(0.0211895 -0.0162057 0.658948)
(0.0513947 -0.0119861 0.592679)
(0.0292608 -0.0788594 0.407658)
(0.0393198 0.0167474 0.165939)
(-0.0678904 0.0215737 0.185277)
(-0.0739243 -0.0463586 0.5158)
(0.0724144 -0.0410712 0.619077)
(0.0857492 -0.0325831 0.251545)
(-0.0822067 -0.0124771 0.170817)
(-0.029501 0.0363747 -0.058852)
(-0.0119712 0.0601061 0.10279)
(0.0217021 0.0036332 0.203605)
(-0.000769595 0.01487 0.0304931)
(0.177069 -0.0181935 0.618731)
(-0.0843181 0.075518 0.0432372)
(0.0105968 -0.147394 0.402633)
(-0.00256812 -0.0344225 0.485877)
(-0.0215715 -0.0380845 0.220515)
(0.091171 -0.0427847 0.223634)
(-0.032864 -0.177069 0.636665)
(-0.0248455 -0.0808396 0.632867)
(0.00370884 -0.0414942 0.615623)
(-0.0666872 -0.053832 0.16012)
(-0.0266813 -0.114863 -0.0423638)
(0.00589775 -0.0369274 0.407189)
(0.0544487 0.0202865 0.422983)
(-0.0563797 -0.165564 0.539804)
(0.00136012 -0.067433 0.61145)
(0.0345964 -0.00315662 0.603859)
(-0.00645717 -0.0348879 0.48372)
(0.0302669 0.055129 0.125887)
(0.0388888 0.0883123 0.252973)
(-0.0348584 -0.0537975 0.402698)
(0.0369336 -0.0458324 0.54685)
(0.045213 -0.00208427 0.266495)
(-0.0784596 0.06125 0.18747)
(0.0297596 0.0309634 0.131069)
(-0.0185834 0.0479216 0.243542)
(-0.0198003 0.0294796 0.0949057)
(0.168189 -0.0210221 0.763792)
(-0.112292 0.109951 0.0444968)
(-0.0204996 -0.0523006 0.401214)
(0.0270195 0.00948727 0.459947)
(0.00883496 0.0122169 0.281616)
(-0.0477544 0.10962 0.227945)
(-0.0474478 -0.197707 0.666478)
(-0.0473013 -0.0632643 0.64739)
(-0.0330687 -0.0499367 0.563112)
(-0.0930898 -0.0446216 0.189579)
(0.0305657 0.0828005 0.282903)
(0.137751 0.0596573 0.354086)
(-0.0390203 -0.173967 0.534885)
(-0.024674 -0.10629 0.592724)
(0.0103091 0.00130549 0.587235)
(-0.105959 0.0845167 0.400698)
(0.0837388 0.104361 0.284989)
(0.0465516 -0.0577786 0.350745)
(-0.0204759 -0.054863 0.482642)
(-0.0130106 0.0279877 0.297712)
(-0.0717438 0.103207 0.235905)
(0.065676 -0.00168106 0.173707)
(-0.0293118 0.0550231 0.269695)
(-0.0314084 0.0289633 0.143665)
(0.0437494 -0.0145941 0.766287)
(-0.100116 0.0906089 0.022018)
(-0.00941336 0.00485407 0.384352)
(0.0771049 0.0845365 0.428331)
(0.035275 0.0688408 0.3217)
(-0.138189 0.18859 0.180861)
(-0.0661641 -0.206402 0.74074)
(-0.0703348 -0.0568658 0.704386)
(-0.0592282 -0.0553266 0.537498)
(0.0148886 0.0812337 0.181179)
(0.012271 0.15695 0.253482)
(0.0928389 0.127041 0.289759)
(-0.0199641 -0.167408 0.550381)
(-0.0561027 -0.125197 0.588473)
(-0.0272492 -0.0248377 0.567981)
(-0.0327319 0.0893256 0.36334)
(0.0877625 0.114301 0.277988)
(0.102385 -0.071958 0.339848)
(-0.0312021 -0.0627268 0.452527)
(-0.0415405 0.0340775 0.325279)
(-0.0781893 0.0995482 0.221358)
(0.074227 -0.0306543 0.210376)
(-0.0243507 0.0377151 0.284259)
(-0.0322941 0.0237753 0.174271)
(-0.0268587 -0.0139293 0.623774)
(-0.0508567 0.0419039 0.0147278)
(0.0249685 -0.0551303 0.329963)
(0.0959542 0.050123 0.419436)
(0.0475758 0.0972976 0.330237)
(-0.175549 0.177556 0.141107)
(-0.0644508 -0.134257 0.820059)
(-0.119621 -0.0262596 0.755652)
(-0.0705168 -0.0354287 0.502307)
(-0.00280446 0.13242 0.165466)
(0.00379582 0.1274 0.281856)
(-0.00616794 0.169198 0.255001)
(0.0123935 -0.136964 0.577034)
(-0.07651 -0.138005 0.609236)
(-0.0516672 -0.034314 0.539207)
(-0.0509321 0.0616978 0.322637)
(0.0717287 0.107567 0.269091)
(0.140858 -0.0736284 0.336455)
(-0.00941971 -0.0625156 0.44235)
(-0.032886 0.0143235 0.356154)
(-0.0419656 0.0618426 0.153646)
(0.0650824 -0.0506584 0.223559)
(-0.0137932 0.0117381 0.281377)
(-0.00687591 0.00855977 0.177089)
(-0.0130203 -0.0136725 0.547449)
(0.00404842 -0.0128654 0.0187386)
(-0.000440302 -0.0641015 0.226942)
(0.0627535 -0.0303035 0.424477)
(0.0581336 0.08015 0.277894)
(-0.0596617 0.0768786 0.171763)
(-0.0195649 0.0609141 0.89367)
(-0.139766 -0.00487192 0.80881)
(-0.0661768 0.036335 0.493008)
(-0.069742 0.0865087 0.151061)
(-0.00189323 0.0538742 0.281719)
(-0.0326681 0.146264 0.280447)
(0.0687175 -0.0165332 0.640927)
(-0.0615547 -0.145301 0.640955)
(-0.0596937 -0.0142598 0.520115)
(-0.0226402 0.0364238 0.285577)
(0.0295694 0.0541704 0.278958)
(0.166287 -0.041033 0.342973)
(0.0309789 -0.0451014 0.436226)
(0.0129857 0.000767766 0.39918)
(-0.0101508 0.0388652 0.134508)
(0.046892 -0.0451956 0.216688)
(-0.00618639 -0.0052977 0.260399)
(0.00187393 -0.00108509 0.156654)
(-0.0119613 -0.0106704 0.536706)
(0.0472848 -0.0481904 0.03214)
(-0.0153527 -0.0184462 0.137072)
(-0.0131082 0.000365618 0.437875)
(0.0712707 0.00880911 0.221882)
(0.0734888 -0.0261015 0.189718)
(0.0419319 0.163901 0.869032)
(-0.105217 -0.00743002 0.898499)
(-0.0332427 0.149887 0.505509)
(-0.10571 0.0605799 0.129554)
(-0.00202454 -0.0207213 0.271484)
(0.0114452 0.057915 0.298029)
(0.126386 0.141148 0.69278)
(-0.0170573 -0.116708 0.689898)
(-0.0502007 0.0506303 0.518204)
(0.0180372 0.0326905 0.253762)
(-0.0171821 0.00674419 0.272657)
(0.164433 0.0398369 0.378288)
(0.041211 -0.0208747 0.447596)
(0.0187858 0.0290011 0.436095)
(0.0125519 0.0165312 0.157591)
(0.0185981 -0.0145371 0.206697)
(0.00120572 -0.00931636 0.243155)
(-0.00905467 0.00407665 0.148258)
(-0.0122405 0.000611399 0.553534)
(0.06613 -0.0642831 0.0480836)
(0.00549652 -0.00860656 0.110233)
(-0.0381768 -0.00420095 0.402248)
(0.0675405 -0.0424738 0.18215)
(0.111894 -0.0795772 0.191608)
(0.0416236 0.190867 0.81269)
(-0.0830981 0.0611518 0.981505)
(0.00879347 0.229555 0.503345)
(-0.11174 0.0426558 0.111642)
(-0.00393849 -0.0680558 0.20707)
(0.0267954 -0.0140508 0.31324)
(0.0999092 0.23014 0.695413)
(0.00815973 -0.00856026 0.760897)
(-0.0161189 0.126771 0.534453)
(0.0444452 0.0191869 0.247111)
(-0.0244532 0.00084282 0.251598)
(0.114471 0.127237 0.435279)
(0.0372136 0.0209662 0.482573)
(0.0103273 0.0821932 0.466506)
(0.0290154 -0.00286827 0.20065)
(-0.0113089 0.0190767 0.220307)
(0.00386069 -0.00308813 0.245119)
(-0.02435 0.0164455 0.168024)
(0.0227953 -0.00440488 0.61319)
(0.0634825 -0.0638243 0.0650369)
(0.0280816 -0.0149958 0.117758)
(-0.0265259 -0.00768692 0.360651)
(0.0408882 -0.0382024 0.179607)
(0.104465 -0.10628 0.194217)
(-0.0357194 0.223563 0.757342)
(-0.0536511 0.183493 0.960788)
(0.0306224 0.25782 0.492188)
(-0.0972648 0.00775425 0.106721)
(-0.0148136 -0.100068 0.174825)
(0.0206668 -0.0607991 0.306235)
(0.0101974 0.266218 0.679264)
(0.0287762 0.125383 0.80512)
(0.0245725 0.152819 0.560021)
(0.0619175 -0.00879695 0.268043)
(-0.0252357 -0.0115052 0.219747)
(0.0399157 0.165912 0.489297)
(0.0431255 0.0791858 0.542074)
(0.0175913 0.110328 0.502299)
(0.0382121 -0.016882 0.25129)
(-0.037247 0.0368514 0.262713)
(-0.00153156 0.0106793 0.27714)
(-0.0295886 0.0244762 0.208701)
(0.0240177 -0.0116503 0.69573)
(0.0433593 -0.0484617 0.0891737)
(0.0432461 -0.00875259 0.148587)
(-0.00648703 0.0985872 0.326515)
(-0.00363215 0.00586169 0.183071)
(0.0818212 -0.115127 0.188265)
(-0.110844 0.239329 0.672672)
(0.0313086 0.232835 0.861846)
(0.0362391 0.247871 0.490604)
(-0.0649957 -0.0412853 0.106846)
(-0.0177404 -0.101063 0.179201)
(-0.00914107 -0.0893697 0.292235)
(-0.0404461 0.255532 0.665188)
(0.0568646 0.190574 0.806272)
(0.0537127 0.131026 0.595947)
(0.0621545 -0.0327835 0.295815)
(-0.0449056 -0.0532 0.183128)
(-0.017959 0.139212 0.534231)
(0.063324 0.1227 0.609296)
(0.0328927 0.101846 0.54699)
(0.040846 -0.0286304 0.301683)
(-0.0509136 0.0361389 0.31547)
(-0.00947756 0.0246343 0.332112)
(-0.0255365 0.0260181 0.257746)
(0.0205753 0.00480469 0.686086)
(-0.000507582 -0.00577866 0.122933)
(0.0476006 -0.000119609 0.17697)
(0.0280325 0.127734 0.286157)
(-0.0384124 0.00678994 0.17884)
(0.0596236 -0.108845 0.161494)
(-0.0939449 0.197312 0.587413)
(0.0824868 0.22007 0.768892)
(0.0351002 0.192068 0.49529)
(-0.0352714 -0.0727434 0.111285)
(-0.00554636 -0.0611788 0.200145)
(-0.0442356 -0.0934217 0.300503)
(-0.0429236 0.213789 0.666809)
(0.0652745 0.194671 0.805874)
(0.0592814 0.0708762 0.650231)
(0.0509756 -0.0478578 0.318777)
(-0.0459116 -0.0603272 0.175996)
(-0.0481233 0.0725755 0.561302)
(0.0799537 0.130068 0.658375)
(0.0486636 0.0753137 0.592044)
(0.0398893 -0.0373376 0.344159)
(-0.0535139 0.0254017 0.36299)
(-0.021155 0.034321 0.392275)
(-0.019051 0.0253454 0.311461)
(0.0107025 0.0332734 0.419188)
(-0.0333766 0.0263572 0.16123)
(0.0337304 0.00444053 0.200563)
(0.0366833 0.11196 0.266463)
(-0.0627708 -0.0267795 0.181157)
(0.047311 -0.10134 0.140675)
(-0.0400629 0.113015 0.525045)
(0.0605942 0.188026 0.702543)
(0.0157059 0.0448231 0.505086)
(-0.0158348 -0.079421 0.120018)
(-0.00105997 -0.00916569 0.18452)
(-0.0614431 -0.0917449 0.323055)
(-0.0309141 0.0999564 0.677387)
(0.0662513 0.183004 0.807015)
(0.0465168 0.0333201 0.67771)
(0.0375394 -0.0558986 0.32961)
(-0.0237163 -0.0467085 0.196468)
(-0.0564924 0.0229529 0.566887)
(0.0733009 0.110265 0.691743)
(0.0584134 0.0489363 0.624341)
(0.0393337 -0.0427085 0.376669)
(-0.0446074 0.006876 0.397747)
(-0.0362478 0.0388391 0.441756)
(-0.0173026 0.0259899 0.365999)
(-0.0324951 0.0114421 0.256044)
(-0.060165 0.0469508 0.201071)
(0.00475534 0.0137824 0.230062)
(0.0305315 0.0989506 0.256505)
(-0.0774239 -0.0635996 0.189937)
(0.0334321 -0.0954315 0.141835)
(-0.0121627 0.0323111 0.495935)
(0.0150715 0.120882 0.661659)
(0.00256203 -0.0412759 0.487858)
(-0.00656879 -0.0748239 0.13134)
(-0.00673304 -0.0127336 0.178248)
(-0.0681395 -0.0364806 0.353786)
(-0.0142628 0.00756863 0.665403)
(0.0575896 0.145195 0.812391)
(0.0368522 0.0266042 0.675683)
(0.0323307 -0.0581137 0.328775)
(0.000148713 -0.0136703 0.215809)
(-0.0480978 0.00788269 0.553395)
(0.0400505 0.0788041 0.709321)
(0.0541521 0.0291575 0.638902)
(0.0389925 -0.0394431 0.40474)
(-0.0308071 -0.00991074 0.426531)
(-0.0436299 0.0388193 0.476706)
(-0.0202765 0.0276223 0.41415)
(-0.0590568 0.00215866 0.200077)
(-0.0769662 0.0645588 0.231571)
(-0.0163666 0.0301969 0.257519)
(0.0296617 0.0786563 0.258692)
(-0.0766758 -0.0795326 0.204407)
(0.00227398 -0.0483842 0.172397)
(-0.00829434 -0.0201755 0.493686)
(-0.0187517 0.0315297 0.638822)
(-0.00599566 -0.047721 0.454102)
(-0.011511 -0.0668105 0.146217)
(-0.00253145 -0.0160884 0.186892)
(-0.000721413 0.0213002 0.331983)
(-0.00423013 -0.0207017 0.640505)
(0.0159735 0.0737387 0.806441)
(0.0309102 0.0420985 0.651501)
(0.0319628 -0.0612034 0.321116)
(0.02168 0.0386193 0.229593)
(-0.0163115 0.0147458 0.537637)
(0.00334691 0.05767 0.707979)
(0.0472553 0.0326845 0.631656)
(0.039722 -0.0293878 0.44217)
(-0.0240404 -0.0163733 0.462256)
(-0.0408604 0.0400604 0.502604)
(-0.0185869 0.0256337 0.46047)
(-0.0735663 -0.00582547 0.184263)
(-0.0773124 0.0702309 0.246046)
(-0.0287957 0.0391718 0.272548)
(0.0215341 0.0203303 0.279836)
(-0.0621842 -0.0751456 0.222445)
(-0.0232511 0.00959112 0.204884)
(-0.0132557 -0.042649 0.50304)
(-0.0284379 -0.0267049 0.62769)
(-0.0268696 -0.0283673 0.399136)
(-0.0220691 -0.0597445 0.157062)
(0.00372675 -0.000644303 0.180654)
(0.0189619 0.00752958 0.26527)
(0.0109357 -0.00972433 0.619138)
(-0.0115555 0.0225985 0.778969)
(0.0260611 0.0686117 0.589124)
(0.0172468 -0.0815677 0.305017)
(0.0352628 0.0598074 0.2261)
(0.0186771 0.0385183 0.547379)
(-0.016038 0.0531848 0.697137)
(0.0275162 0.0715098 0.611303)
(0.0401874 -0.0252574 0.489995)
(-0.0295899 -0.000201854 0.50631)
(-0.032815 0.0442751 0.527951)
(-0.00934546 0.0115172 0.506023)
(-0.0801926 -0.0104633 0.191878)
(-0.0752217 0.0709385 0.245478)
(-0.0418466 0.0381681 0.280195)
(-0.0147217 -0.0342528 0.310684)
(-0.043695 -0.065729 0.237813)
(-0.0281358 0.0475867 0.22497)
(-0.0169499 -0.048566 0.515024)
(-0.0197841 -0.0416886 0.622766)
(-0.0384976 -0.0353749 0.36534)
(-0.0241664 -0.0549046 0.156845)
(0.00516036 0.0149867 0.165964)
(0.0175296 0.0200704 0.208338)
(0.0211011 0.0219275 0.610687)
(-0.0111109 0.0136748 0.748865)
(0.0239682 0.0469664 0.558768)
(-0.00497957 -0.101768 0.284036)
(0.0208207 0.026198 0.229228)
(0.0248488 0.0531579 0.568782)
(-0.0174354 0.0543953 0.689412)
(0.022348 0.0758446 0.609486)
(0.0419326 -0.0264855 0.528211)
(-0.0226335 0.0204313 0.551812)
(-0.0214378 0.0416637 0.560862)
(0.0151959 -0.0093548 0.529435)
(-0.0826394 -0.0121534 0.209382)
(-0.0709424 0.0691553 0.233699)
(-0.0578538 0.0359843 0.28839)
(-0.0444286 -0.0572485 0.338781)
(-0.0319997 -0.0642844 0.247942)
(-0.0266387 0.0592585 0.231909)
(-0.0110805 -0.0540347 0.522779)
(0.00515628 -0.0425045 0.608925)
(-0.0361448 -0.064205 0.358851)
(-0.00978962 -0.0453427 0.158442)
(0.0047838 0.0236604 0.157412)
(0.0151142 0.0181166 0.180907)
(0.0212298 0.0508282 0.604951)
(-0.00523146 0.0363799 0.720275)
(0.0079177 -0.0273146 0.527312)
(-0.0253259 -0.0974427 0.269055)
(-0.00875972 -0.0266273 0.250675)
(0.0136269 0.0505945 0.58088)
(-0.00898516 0.0623265 0.680637)
(0.0275055 0.0658925 0.610722)
(0.046643 -0.0340708 0.550764)
(-0.0202133 0.0352374 0.585395)
(-0.0194798 0.0441466 0.592639)
(0.0350063 -0.00829785 0.547899)
(-0.0806015 -0.0135025 0.229477)
(-0.0615464 0.0638342 0.216642)
(-0.0727316 0.0365184 0.30044)
(-0.0608373 -0.064194 0.360498)
(-0.0280058 -0.0735216 0.261552)
(-0.0280286 0.0569729 0.23077)
(0.0131282 -0.0632834 0.519905)
(0.0435367 -0.0483869 0.578213)
(-0.0295049 -0.09578 0.373252)
(0.011658 -0.0272621 0.173479)
(0.00420845 0.0300318 0.161995)
(0.0243057 0.000856999 0.178074)
(0.0176886 0.0703417 0.600691)
(-0.00510081 0.0647072 0.690684)
(-0.0158 -0.0918057 0.491322)
(-0.0369866 -0.0704784 0.265546)
(-0.0199015 -0.0804348 0.259883)
(-0.00607694 0.028306 0.598085)
(-0.00291876 0.075492 0.664906)
(0.0389203 0.0469816 0.600316)
(0.0399791 -0.0787225 0.525791)
(-0.064313 0.0247942 0.617689)
(-0.0255578 0.0563768 0.619105)
(0.0464786 -0.00596501 0.575501)
(-0.0774197 -0.0140204 0.251544)
(-0.0453102 0.0505658 0.202544)
(-0.0868397 0.0400551 0.314603)
(-0.0749237 -0.0634311 0.376106)
(-0.0275612 -0.0813353 0.278559)
(-0.0311618 0.0565826 0.218236)
(0.0612422 -0.0674438 0.498187)
(0.0599042 -0.048193 0.555222)
(-0.0261406 -0.111984 0.392859)
(0.0270581 -0.00249106 0.198041)
(0.00453243 0.0343563 0.176924)
(0.049643 -0.013632 0.19051)
(0.0101608 0.0763974 0.608571)
(-0.0118055 0.082608 0.660399)
(-0.0269345 -0.119709 0.4595)
(-0.0354417 -0.0345473 0.258845)
(-0.0269372 -0.116817 0.259101)
(-0.0172989 0.00860151 0.61722)
(-0.000684024 0.0787273 0.652498)
(0.022153 0.0381457 0.591008)
(0.0394564 -0.105227 0.387949)
(-0.0710699 -0.0203872 0.63191)
(-0.0260029 0.0639813 0.630918)
(0.0576901 -0.00835959 0.599757)
(-0.0590893 -0.00777113 0.270437)
(-0.03515 0.0369015 0.190032)
(-0.0982942 0.0357587 0.330361)
(-0.0938499 -0.0591484 0.382659)
(-0.0233065 -0.0720028 0.294348)
(-0.0381058 0.0609355 0.200961)
(0.0872353 -0.0593093 0.480506)
(0.0553362 -0.0367293 0.541326)
(-0.0274656 -0.11667 0.411321)
(0.0362269 0.0244948 0.220413)
(0.00463558 0.0352135 0.196347)
(0.0640688 -0.0232179 0.210319)
(0.00303274 0.0700857 0.624806)
(-0.0203814 0.0815892 0.629466)
(-0.0265044 -0.127797 0.438462)
(-0.025652 -0.00151764 0.242315)
(-0.0262989 -0.123142 0.256648)
(-0.027921 -0.00411737 0.630099)
(-0.00265134 0.0724822 0.647131)
(-0.00392504 0.0212253 0.592436)
(0.0301485 -0.0670579 0.310017)
(-0.0409663 -0.0364985 0.620958)
(-0.0211094 0.065847 0.633886)
(0.0552483 0.00154825 0.625332)
(-0.014659 -0.00185208 0.278328)
(-0.0303795 0.0230217 0.181223)
(-0.102544 0.0214065 0.344275)
(-0.103595 -0.0478271 0.386299)
(-0.0107451 -0.0403901 0.304167)
(-0.0468421 0.0623234 0.184664)
(0.0950232 -0.0503094 0.473551)
(0.0301483 -0.0262041 0.534098)
(-0.0288987 -0.11346 0.426658)
(0.0420087 0.0489541 0.237794)
(0.00428201 0.0346266 0.215053)
(0.0514764 -0.0297139 0.241765)
(0.00187211 0.0518702 0.627689)
(-0.024682 0.0514528 0.608548)
(-0.0245123 -0.129703 0.433763)
(-0.0170705 0.0236703 0.23411)
(-0.00745528 -0.102711 0.265879)
(-0.0380542 -0.0310109 0.632348)
(-0.0189041 0.0433978 0.643578)
(-0.0122562 -0.0707066 0.572326)
(0.00938129 -0.0333307 0.295692)
(-0.043868 -0.0133201 0.591892)
(-0.0160137 0.0439326 0.644147)
(0.0477139 -0.00923115 0.63306)
(0.0318616 -0.00146661 0.282293)
(-0.0272246 0.0121596 0.18394)
(-0.075457 0.00273033 0.35497)
(-0.0950218 -0.042068 0.39262)
(0.0114213 -0.000928529 0.30745)
(-0.0484457 0.0582224 0.179745)
(0.093269 -0.0466814 0.475737)
(-0.00852614 -0.0365514 0.542817)
(-0.0250351 -0.100518 0.435585)
(0.0451378 0.0667626 0.252191)
(0.00281467 0.0358635 0.235796)
(0.0140273 -0.0230495 0.280142)
(0.00704097 -0.00341154 0.626425)
(-0.0214617 -0.00749391 0.60529)
(-0.0197304 -0.118961 0.439113)
(-0.0148044 0.0427677 0.236942)
(0.0151387 -0.0618 0.285891)
(-0.0337781 -0.0798549 0.631925)
(-0.0431352 -0.0361062 0.640403)
(-0.0268997 -0.16348 0.489217)
(-0.00955436 -0.00515186 0.299206)
(-0.0818682 -0.0428347 0.537985)
(-0.0756001 0.0171348 0.645433)
(0.0347571 -0.0224094 0.588232)
(0.0624306 0.000530878 0.288672)
(-0.0234929 0.0106501 0.199286)
(-0.0166419 -0.0248198 0.353315)
(-0.0596758 -0.035061 0.405751)
(0.0327451 0.0258728 0.310569)
(-0.0325011 0.0444119 0.183688)
(0.0822983 -0.0473483 0.489924)
(-0.0349886 -0.0615122 0.564165)
(-0.0180303 -0.0876061 0.434764)
(0.0456915 0.0771705 0.263902)
(0.000680341 0.0357329 0.260932)
(-0.02193 0.00419161 0.309622)
(0.0160903 -0.0590033 0.639103)
(-0.0117177 -0.0535426 0.617083)
(-0.00551776 -0.0866243 0.449031)
(-0.0153041 0.056452 0.247517)
(0.0340815 -0.0173999 0.301671)
(-0.0268214 -0.121651 0.626458)
(-0.035556 -0.09759 0.629916)
(-0.019441 -0.107048 0.434133)
(-0.020384 0.0162291 0.297392)
(-0.0700166 -0.0460265 0.448546)
(-0.0713231 -0.0329835 0.605087)
(0.0243558 -0.0340552 0.417504)
(0.073463 0.00343155 0.299097)
(-0.0244306 0.0177985 0.215886)
(0.00419754 -0.0339291 0.344413)
(-0.032316 -0.0469184 0.41637)
(0.0492574 0.035274 0.315575)
(-0.00453035 0.0317613 0.185627)
(0.0613803 -0.0564944 0.519799)
(-0.0436568 -0.0737149 0.58567)
(-0.0112219 -0.0796487 0.430178)
(0.0461671 0.0835944 0.272877)
(-0.00116559 0.0294903 0.282009)
(-0.042757 0.0335053 0.328969)
(0.00895254 -0.0800751 0.656233)
(0.00443261 -0.071853 0.635896)
(0.00416563 -0.0713981 0.45351)
(-0.0147215 0.0655084 0.263904)
(0.0356765 0.0158972 0.311021)
(-0.0411085 -0.143722 0.610985)
(-0.018065 -0.125744 0.598986)
(0.0068992 -0.0750905 0.418425)
(-0.0257368 0.0330649 0.300464)
(-0.047318 -0.0140005 0.362073)
(0.0274582 -0.0636257 0.483471)
(0.0535057 -0.0339023 0.330639)
(0.0582106 0.00447602 0.308556)
(-0.0310308 0.0279778 0.224683)
(-0.0147439 -0.0459235 0.335123)
(-0.000152451 -0.0578518 0.428284)
(0.0648916 0.0364598 0.321573)
(0.0111846 0.0286372 0.184947)
(0.0447431 -0.0611593 0.543575)
(-0.0375006 -0.0695405 0.603829)
(-0.000454731 -0.0680262 0.429816)
(0.0484096 0.0900435 0.280255)
(-0.00282846 0.0181915 0.299449)
(-0.0495341 0.0491762 0.347787)
(0.000814783 -0.0823054 0.660131)
(0.0187366 -0.0729709 0.64933)
(0.00572778 -0.0665314 0.457495)
(-0.0138523 0.0713267 0.28502)
(0.0207072 0.0399006 0.325897)
(-0.0682349 -0.135604 0.586346)
(-0.00263173 -0.10362 0.54986)
(0.0360062 -0.0603122 0.419486)
(-0.0287072 0.0457961 0.311492)
(-0.00475662 0.0107793 0.317542)
(0.025086 -0.0275693 0.377533)
(0.0381013 -0.0262922 0.294913)
(0.0121247 0.000145282 0.32406)
(-0.0419421 0.04022 0.231346)
(-0.0409862 -0.0715378 0.330843)
(0.0298408 -0.0613275 0.442132)
(0.0740438 0.035229 0.323688)
(0.00418456 0.0373049 0.193131)
(0.0305654 -0.0614686 0.546164)
(-0.0203598 -0.070625 0.614327)
(0.0248393 -0.0408406 0.435156)
(0.0521345 0.100194 0.289372)
(-0.00417634 0.00684304 0.321968)
(-0.0493681 0.0652495 0.350788)
(0.00300382 -0.0803641 0.657868)
(0.0237121 -0.0683983 0.651275)
(0.00355226 -0.0611528 0.460949)
(-0.0118772 0.0742608 0.309302)
(0.00904858 0.0560127 0.351684)
(-0.0748137 -0.089448 0.547283)
(0.00452637 -0.0531093 0.477155)
(0.0507671 -0.0369637 0.418931)
(-0.0285197 0.0543096 0.326559)
(0.0336661 0.0238614 0.302175)
(0.0211857 0.00263373 0.315527)
(0.0103516 -0.0142789 0.282909)
(-0.0220502 -0.00640763 0.353018)
(-0.0533594 0.0529648 0.239418)
(-0.0607121 -0.059649 0.337924)
(0.0248826 -0.0736483 0.449652)
(0.0782298 0.032224 0.325979)
(-0.0196085 0.0540153 0.213534)
(0.00665786 -0.0538245 0.527324)
(0.00731225 -0.0782008 0.606325)
(0.0613047 -0.00122061 0.445625)
(0.0500134 0.107129 0.308946)
(-0.00396707 -0.00195687 0.345916)
(-0.0390828 0.0795799 0.351874)
(0.0120411 -0.0706663 0.641137)
(0.0236651 -0.0663629 0.645666)
(0.00794685 -0.0493768 0.464617)
(-0.00754806 0.0736985 0.335633)
(-0.000399706 0.0555243 0.380281)
(-0.0393389 -0.0199305 0.51267)
(-0.00111139 -0.0230979 0.431056)
(0.0400021 -0.0175265 0.421969)
(-0.0277696 0.0604582 0.339475)
(0.0495631 0.0258229 0.307273)
(0.031119 0.00948261 0.297992)
(-0.0111809 -0.00288428 0.287708)
(-0.0225989 -0.00630919 0.368358)
(-0.0553922 0.057211 0.2485)
(-0.069827 0.0112364 0.357999)
(-0.00936648 -0.0479651 0.426348)
(0.0634234 0.0259555 0.330803)
(-0.031297 0.0650762 0.241424)
(-0.036051 0.00752608 0.485894)
(0.0415179 -0.0592471 0.575662)
(0.0878021 0.0354919 0.465382)
(0.0403412 0.0917112 0.347685)
(-0.00236264 -0.00771355 0.368929)
(-0.0154572 0.0721689 0.373869)
(0.00640718 -0.0170398 0.605324)
(0.028133 -0.0649487 0.623332)
(0.0302615 -0.0109259 0.473378)
(0.00247145 0.0700053 0.365264)
(-0.0102399 0.04219 0.40736)
(-0.0039141 0.0398976 0.497306)
(-0.00496632 -0.0128329 0.410615)
(0.0186741 0.0144902 0.426043)
(-0.0260595 0.062973 0.352448)
(0.050126 0.0297719 0.331499)
(0.0460417 0.00599417 0.303501)
(-0.0270612 0.00693979 0.303177)
(-0.0091491 -0.000636365 0.340142)
(-0.0415967 0.0437949 0.259798)
(-0.0547119 0.0659144 0.348318)
(-0.0143843 0.0135942 0.381659)
(0.0245396 0.0131886 0.323132)
(-0.0228393 0.0620033 0.263592)
(-0.0384169 0.0753427 0.448548)
(0.0714959 -0.00925371 0.555241)
(0.0952843 0.0647693 0.486987)
(0.0392693 0.0583887 0.394468)
(-0.000900869 -0.0123687 0.383993)
(0.0119164 0.0332408 0.407223)
(-0.0143517 0.0615697 0.568911)
(0.0351409 -0.0444448 0.59677)
(0.0519599 0.0424726 0.486354)
(0.0150515 0.0661666 0.402508)
(-0.0211738 0.0166131 0.429462)
(0.00955802 0.0710271 0.498726)
(-0.00456829 -0.0117226 0.407949)
(0.0170624 0.0465702 0.440113)
(-0.023124 0.0598287 0.376033)
(0.0405776 0.0402765 0.364874)
(0.0584283 -0.000509954 0.320055)
(-0.040249 0.0155638 0.329591)
(-0.0158767 0.00119089 0.291332)
(-0.0205191 0.023872 0.266691)
(-0.040208 0.0635392 0.321602)
(-0.0251373 0.0393318 0.336197)
(-0.00759756 -0.00286144 0.304575)
(-0.00444759 0.040288 0.271939)
(-0.0055129 0.0871871 0.421721)
(0.082408 0.0353706 0.555446)
(0.0856853 0.0832137 0.491077)
(0.0376105 0.0253483 0.4278)
(-0.00105237 -0.0185781 0.388049)
(0.0267877 -0.00933462 0.434699)
(-0.0240727 0.0847777 0.556895)
(0.0339658 -0.00827415 0.583753)
(0.0499524 0.079316 0.501179)
(0.0194661 0.0613365 0.443186)
(-0.0348336 -0.0133338 0.440625)
(0.0110739 0.0747431 0.506329)
(-0.00444759 -0.0104939 0.414404)
(0.0175403 0.0737649 0.462836)
(-0.0166593 0.0465374 0.416256)
(0.0274736 0.0428133 0.393667)
(0.0622072 -0.0077092 0.34385)
(-0.0497453 0.0220178 0.364967)
(-0.0229272 -0.000423845 0.263341)
(-0.00134513 0.00680155 0.265621)
(-0.02518 0.05217 0.289993)
(-0.0384594 0.0338098 0.306343)
(-0.0211591 -0.0122247 0.290349)
(0.0159773 0.00958316 0.274749)
(0.0243229 0.0530442 0.411393)
(0.0682586 0.0605035 0.542508)
(0.0654646 0.0833654 0.480524)
(0.0157508 -0.0133408 0.440874)
(-0.0035573 -0.0258867 0.384205)
(0.0266788 -0.036369 0.445683)
(-0.0257008 0.0834889 0.552992)
(0.0271667 0.0272981 0.581031)
(0.0304602 0.0943117 0.517736)
(0.0128127 0.037762 0.473999)
(-0.0446448 -0.0318211 0.443721)
(0.00817925 0.0643759 0.513657)