/*--------------------------------*- C++ -*----------------------------------*\
| =========                 |                                                 |
| \\      /  F ield         | OpenFOAM: The Open Source CFD Toolbox           |
|  \\    /   O peration     | Version:  5.x                                   |
|   \\  /    A nd           | Web:      www.OpenFOAM.org                      |
|    \\/     M anipulation  |                                                 |
\*---------------------------------------------------------------------------*/
FoamFile
{
    version     2.0;
    format      ascii;
    class       volVectorField;
    location    "1.1";
    object      Us;
}
// * * * * * * * * * * * * * * * * * * * * * * * * * * * * * * * * * * * * * //

dimensions      [0 1 -1 0 0 0 0];

internalField   nonuniform List<vector> 
10571
(
(-0.144085 -0.0256569 0.0739313)
(0.0455796 0.0111546 0.00383856)
(-0.0704931 0.142321 0.0558058)
(-0.24899 0.125437 0.151001)
(-0.209447 -0.0290838 0.0312143)
(0.128089 -0.00369385 0.106784)
(-0.0606772 0.0496167 0.165553)
(-0.228535 0.00360929 0.179902)
(-0.384492 -0.05372 0.176478)
(-0.104692 -0.125165 -0.0575145)
(-0.00428899 -0.134231 0.0214685)
(-0.0286771 -0.384351 0.093305)
(0.029753 -0.471006 0.0723681)
(-0.122262 -0.439116 0.145208)
(-0.302361 -0.130761 0.10745)
(-0.0728974 -0.0459193 -0.0559408)
(-0.140456 -0.223522 -0.0779919)
(-0.0121441 -0.275512 -0.0999959)
(0.0548364 -0.339677 -0.0165359)
(-0.091024 -0.186423 0.0300076)
(-0.00245693 -0.0570782 -0.0814996)
(-0.0522288 -0.0864851 -0.132798)
(0.0157729 -0.0887305 -0.104087)
(-0.000491254 -0.0405833 -0.0960999)
(0.0419376 0.0360646 0.10108)
(0.0426498 -0.0221024 0.054552)
(0.00962858 0.130963 0.20649)
(-0.00233595 0.129076 0.228887)
(-0.141717 -0.124285 0.0342809)
(0.0798669 -0.127435 0.23397)
(0.0117078 -0.0940917 0.406173)
(-0.0572296 -0.368533 0.367953)
(-0.0925375 -0.198129 -0.0840713)
(-0.0571016 -0.0929971 -0.198485)
(0.00169777 -0.0244015 0.0503727)
(-0.127788 -0.231312 0.286552)
(-0.155439 -0.247356 0.132674)
(-0.0354589 -0.262197 0.0540294)
(0.00375777 -0.111396 -0.10496)
(0.00254197 -0.02348 -0.202491)
(-0.162526 -0.152034 -0.0396284)
(-0.0933313 -0.0408157 -0.1798)
(-0.0258521 -0.0295653 -0.123886)
(0.101438 -0.0903153 0.000136377)
(0.0313057 -0.0335877 -0.129659)
(-0.0533637 -0.0178141 -0.12479)
(-0.0227601 0.0115128 -0.0801383)
(-0.00637965 0.0224432 -0.11229)
(0.0146248 0.0091085 0.0101812)
(0.0468054 -0.0408841 0.0451268)
(-0.0628266 0.0353623 0.266089)
(0.0551791 -0.212014 0.415182)
(-0.047163 -0.233788 -0.111013)
(0.0261275 -0.210498 0.375258)
(-0.0693367 -0.403932 0.410617)
(-0.0245501 -0.409436 0.27723)
(-0.0537674 -0.0440375 -0.186974)
(-0.0416059 0.0209256 -0.32646)
(0.000132299 0.0107587 -0.00488918)
(-0.142329 -0.0701596 0.491657)
(-0.0921659 -0.109241 0.0680044)
(-0.0266892 -0.0807671 -0.0704832)
(-0.0151139 -0.0263932 -0.128961)
(-0.0359008 0.0338241 -0.253992)
(0.0488946 0.13381 -0.0860358)
(-0.0403784 -0.0122419 -0.235416)
(-0.00480526 -0.00602259 -0.173681)
(-0.00629164 -0.0162749 -0.00674644)
(-0.0188317 -0.00651901 -0.159107)
(0.0167915 -0.0132938 -0.15191)
(-0.0087262 -0.0065398 -0.098765)
(-0.0266171 0.00556352 -0.104413)
(0.00742851 0.00978775 -0.0542042)
(0.00474448 -0.0890901 0.0611865)
(-0.065785 -0.500373 0.606751)
(0.0237948 -0.546594 0.638364)
(0.0167827 -0.00142102 -0.147908)
(-0.129144 -0.297454 0.398914)
(-0.135418 -0.27192 0.280727)
(-0.0755043 -0.233025 0.157076)
(0.0448956 -0.0384123 -0.182709)
(0.0342923 0.151855 -0.47531)
(0.00737196 0.0688318 -0.0565568)
(-0.173622 0.00154732 0.243544)
(-0.0214674 -0.0311993 0.0170014)
(0.120078 0.0322061 -0.18359)
(0.163782 0.0673492 -0.283091)
(-0.0481774 0.0470706 -0.449513)
(0.122793 0.105869 -0.099669)
(0.092404 0.093213 -0.315126)
(0.118535 0.149384 -0.418714)
(0.151375 0.135014 -0.385035)
(-0.0392862 0.00822026 -0.364028)
(0.0746329 0.0723513 -0.379838)
(0.0835969 0.154527 -0.508707)
(-0.0464383 0.076336 -0.426167)
(-0.000215784 -0.00441183 -0.0846233)
(-0.0064843 -0.00608896 -0.0352711)
(-0.261965 -0.358795 0.495139)
(-0.212505 -0.401923 0.516529)
(0.0296066 -0.0137903 -0.0818063)
(-0.239506 -0.0976804 0.0476324)
(-0.0983927 -0.112253 0.132235)
(0.00397215 -0.157258 0.16726)
(0.14417 -0.0468963 -0.0560664)
(0.0542403 0.145668 -0.380709)
(-0.00320642 0.121597 -0.212527)
(0.00729636 0.0681089 0.00250621)
(0.142288 0.0275383 -0.027959)
(0.186434 0.0802255 -0.25065)
(0.219621 0.101707 -0.309111)
(-0.0636318 0.04765 -0.331333)
(0.144245 0.0843588 -0.171106)
(0.140048 0.132669 -0.215661)
(0.131624 0.181396 -0.372624)
(0.185888 0.165078 -0.391155)
(-0.0167266 0.0213545 -0.368459)
(0.0871057 0.105788 -0.30713)
(0.0613903 0.0448567 -0.3716)
(-0.131965 0.0448996 -0.464331)
(-0.0141088 -0.0187265 -0.00654431)
(-0.0734198 -0.0356701 0.113684)
(-0.231744 -0.260908 0.343761)
(-0.125732 -0.332617 0.459279)
(0.0498469 -0.0195274 0.00236797)
(-0.116276 0.00740075 0.00348356)
(0.0115506 -0.0194262 0.0975848)
(0.127497 -0.0353961 0.124402)
(0.233631 -0.0303502 0.0673083)
(0.0921417 0.134306 -0.294948)
(-0.00280347 0.00265413 -0.00138025)
(-0.0421501 0.115604 -0.340672)
(-0.0797219 0.103967 -0.207724)
(0.148276 0.0569661 0.00337881)
(0.19996 0.0721654 -0.113249)
(0.225109 0.0714041 -0.094205)
(-0.0627058 0.0341248 -0.180568)
(-0.00642668 -0.00131489 -0.00100358)
(0.132237 0.0826035 -0.132508)
(0.1318 0.180086 -0.164453)
(0.140405 0.211942 -0.315166)
(0.0680282 0.0925529 -0.345974)
(-0.0888874 -0.0126649 -0.295217)
(0.077445 0.170879 -0.282395)
(0.105339 0.251973 -0.374559)
(-0.0243494 0.0191396 -0.353844)
(-0.0184038 -0.005119 0.129245)
(-0.0770902 0.028418 0.335955)
(-0.104948 -0.199905 0.280453)
(-0.0154479 -0.220833 0.343235)
(0.114797 -0.0650181 0.138007)
(1.03656e-14 -4.00385e-15 4.62345e-14)
(0.089255 0.00298129 0.120809)
(0.176814 -0.0283925 0.165305)
(0.234362 -0.0204682 0.115344)
(0.126609 0.166429 -0.362608)
(-0.0357669 0.0299666 -0.10733)
(0.00901018 0.0943241 -0.242361)
(-0.113069 0.152289 -0.343558)
(0.0863727 0.104156 -0.0662428)
(0.199118 0.0710195 -0.00965649)
(0.225246 0.0753627 -0.0213824)
(0.206284 0.104436 -0.142603)
(-0.0089417 0.105128 -0.176217)
(-0.0460644 0.193362 -0.138999)
(0.0739872 0.216143 -0.194733)
(0.0890811 0.241872 -0.31787)
(0.11985 0.190833 -0.317861)
(-0.0501653 0.034721 -0.314085)
(0.1715 -0.0669458 -0.189738)
(0.104872 0.162846 -0.214719)
(0.059373 0.289507 -0.359971)
(-0.0525812 -0.0353994 -0.285899)
(-0.0556228 0.0076999 0.20589)
(0 0 0)
(0 0 0)
(0.0695426 -0.0516159 0.166045)
(0.126535 0.0758571 -0.143962)
(0 0 0)
(0.0521962 0.0326647 0.0587338)
(0.158798 -0.0160006 0.147752)
(0.134861 0.0582542 0.0423902)
(0.061302 0.181539 -0.32929)
(0.181557 0.0558493 -0.359692)
(0.131587 0.0998011 -0.379048)
(-0.125878 0.163643 -0.26829)
(0.0404599 0.11881 -0.0993014)
(0.179886 0.0863836 -0.0883999)
(0.180705 0.204102 -0.248129)
(0.0262158 0.229268 -0.334065)
(0.146213 0.181999 -0.339833)
(-0.0612294 0.159004 -0.0385747)
(0.0400775 0.231387 -0.213554)
(0.075714 0.258981 -0.28896)
(0 0 0)
(-0.0233232 0.0679919 -0.239003)
(0.255491 0.194218 -0.32387)
(0.117856 0.117056 -0.0563999)
(0.0657273 0.288535 -0.282948)
(0.086388 0.114105 -0.393973)
(0 0 0)
(0 0 0)
(-0.037623 0.0366885 0.116157)
(0 0 0)
(0.120859 0.111367 -0.161677)
(-0.0916554 0.14424 -0.188591)
(0.0257341 0.117184 0.00369633)
(0 0 0)
(0.0510938 0.115333 -0.0340632)
(0.0487424 0.172795 -0.246435)
(0 0 0)
(0 0 0)
(-0.0777398 0.110151 -0.600728)
(0.00514606 0.19969 -0.152995)
(0.0616909 0.207163 -0.181372)
(0.110276 0.199226 -0.193569)
(-0.0253948 0.203181 -0.221045)
(0.200465 0.176761 -0.244318)
(0.0193575 0.0586404 0.00987299)
(0.0229342 0.216126 -0.227919)
(0.0648325 0.237917 -0.218635)
(0.131307 0.251934 -0.237204)
(-0.0143999 0.136921 -0.218047)
(0.137556 -0.0302692 0.0238833)
(0 0 0)
(-0.112495 -0.251494 -0.150782)
(0 0 0)
(-0.0877043 0.0361284 -0.0518744)
(0 0 0)
(0.0416 -0.0152534 0.214151)
(0.102368 0.0966169 -0.172285)
(-0.102965 0.181634 -0.152552)
(-0.0126415 0.159707 0.0631893)
(0.0332431 0.182372 0.0840772)
(0.152549 0.107354 0.098632)
(-0.00426341 0.163063 -0.153272)
(-0.132386 0.242744 -0.354984)
(-0.114617 0.224193 -0.144206)
(0.00151 0.179986 -0.0624144)
(0.0601994 0.199126 -0.0886508)
(0.164857 0.202841 -0.131007)
(-0.0148269 0.147969 -0.144552)
(-0.00884644 0.0638238 -0.45171)
(0 0 0)
(0.085502 0.232494 -0.228826)
(0.149842 0.244213 -0.162874)
(0.151695 0.227676 -0.179162)
(0 0 0)
(-2.22554e-15 4.13007e-15 1.32392e-13)
(0 0 0)
(0 0 0)
(-0.112887 0.100904 0.0409261)
(-0.0371123 0.0584213 0.192376)
(0.0500891 0.108098 0.0555305)
(0.154076 0.0650414 -0.0744091)
(-0.0934756 0.168163 -0.0578647)
(-0.0117756 0.142739 0.0819232)
(0.0516689 0.133612 0.123746)
(0.177669 0.124855 0.0335242)
(-0.00386401 0.156002 -0.0532179)
(0 0 0)
(0 0 0)
(-0.0156885 0.181618 0.0480403)
(0.0768392 0.176984 0.039429)
(0.160785 0.193154 -0.0177564)
(0.151901 0.172296 -0.070447)
(0.00666372 0.0177626 -0.998219)
(0.0143127 -0.0174365 -1.1457)
(0.0427125 0.00186726 -1.13323)
(0.145867 0.24504 -0.0945173)
(0 0 0)
(0 0 0)
(-3.60317e-15 -2.0369e-15 1.31552e-13)
(0.0402571 -0.0208554 -1.25897)
(0.0566048 0.0141441 0.121989)
(-0.078289 0.118858 0.0392289)
(0.0944721 0.0744586 0.0585941)
(0.0453305 0.0819738 0.127598)
(0.147087 0.0360338 0.0844715)
(-0.14029 0.178055 0.0226336)
(-0.0222812 0.130318 0.14347)
(0.0615372 0.112394 0.145575)
(0.15361 0.113456 0.0902099)
(0.233737 0.102534 0.0287637)
(0 0 0)
(-6.07401e-16 3.62846e-15 1.12956e-13)
(0 0 0)
(0.0905939 0.164338 0.11544)
(0.143264 0.179008 0.0549016)
(0.208995 0.168476 0.00186348)
(0 0 0)
(0 0 0)
(-4.82438e-15 -2.61416e-16 1.26271e-13)
(0 0 0)
(0 0 0)
(0 0 0)
(0 0 0)
(0 0 0)
(0.0742952 -0.000699853 0.154121)
(-0.0985581 0.0799865 0.153958)
(0.0535872 0.243305 -0.0749679)
(0.0531823 0.0441901 0.212383)
(0 0 0)
(-0.13135 0.158016 0.10072)
(-0.0169093 0.133518 0.176396)
(0.0122857 0.11783 0.195113)
(0 0 0)
(0 0 0)
(0 0 0)
(0 0 0)
(0 0 0)
(0 0 0)
(0 0 0)
(0 0 0)
(0 0 0)
(0 0 0)
(0.0276542 -0.0275656 -1.14302)
(0 0 0)
(0 0 0)
(0.0220673 0.00670579 -1.07434)
(0.0163146 0.00924059 -1.17617)
(0 0 0)
(0.0448578 0.0200096 0.201518)
(-0.117744 0.0886477 0.204847)
(-0.0475696 0.0800197 0.281505)
(0.053461 0.0416543 0.262531)
(0 0 0)
(0 0 0)
(-0.00660917 0.160126 0.226888)
(0 0 0)
(0 0 0)
(0 0 0)
(0 0 0)
(0 0 0)
(0.00137145 -0.0175544 -1.11983)
(0 0 0)
(0 0 0)
(0 0 0)
(0 0 0)
(0 0 0)
(0.03308 -0.00906067 -1.14257)
(0 0 0)
(0 0 0)
(0 0 0)
(0.0285286 -0.0288705 -1.12926)
(0 0 0)
(0 0 0)
(0 0 0)
(-0.0452416 0.0887486 0.375334)
(0.028545 0.03707 0.358309)
(0 0 0)
(0 0 0)
(0 0 0)
(0 0 0)
(0 0 0)
(0 0 0)
(0 0 0)
(0 0 0)
(0 0 0)
(0 0 0)
(0 0 0)
(0 0 0)
(0 0 0)
(0.0275919 -0.0180273 -1.14241)
(-3.74068e-15 9.65248e-16 1.27271e-13)
(0 0 0)
(0 0 0)
(0 0 0)
(0.0305999 0.00513853 -1.1701)
(0 0 0)
(0 0 0)
(0 0 0)
(0 0 0)
(0 0 0)
(0 0 0)
(0 0 0)
(0 0 0)
(0 0 0)
(0 0 0)
(0 0 0)
(0 0 0)
(0 0 0)
(0 0 0)
(0 0 0)
(0 0 0)
(0 0 0)
(0 0 0)
(0.0132711 -0.0140167 -1.13051)
(0 0 0)
(0 0 0)
(0 0 0)
(0 0 0)
(0 0 0)
(0 0 0)
(0 0 0)
(0 0 0)
(0 0 0)
(0 0 0)
(0 0 0)
(0 0 0)
(0 0 0)
(0 0 0)
(0 0 0)
(0 0 0)
(0 0 0)
(0 0 0)
(0 0 0)
(0 0 0)
(0 0 0)
(0 0 0)
(0 0 0)
(0.00810072 -0.0194472 -1.09792)
(0 0 0)
(0 0 0)
(0 0 0)
(0 0 0)
(0 0 0)
(0 0 0)
(0 0 0)
(0 0 0)
(0 0 0)
(0 0 0)
(0 0 0)
(0 0 0)
(0 0 0)
(0 0 0)
(0 0 0)
(0 0 0)
(0 0 0)
(0 0 0)
(0 0 0)
(0 0 0)
(0 0 0)
(0 0 0)
(0 0 0)
(0 0 0)
(0 0 0)
(0 0 0)
(0 0 0)
(0 0 0)
(0 0 0)
(0 0 0)
(0 0 0)
(0 0 0)
(0 0 0)
(0 0 0)
(0 0 0)
(0 0 0)
(0 0 0)
(0 0 0)
(0 0 0)
(0 0 0)
(0 0 0)
(0 0 0)
(0 0 0)
(0 0 0)
(0 0 0)
(0 0 0)
(-0.000295518 0.00306068 -0.947224)
(0.0215493 -0.0434181 -1.03811)
(0 0 0)
(0 0 0)
(0 0 0)
(0 0 0)
(0 0 0)
(0 0 0)
(0 0 0)
(0 0 0)
(0 0 0)
(0 0 0)
(0 0 0)
(0 0 0)
(0 0 0)
(0 0 0)
(0 0 0)
(0 0 0)
(0 0 0)
(0 0 0)
(0 0 0)
(0 0 0)
(0 0 0)
(0 0 0)
(0 0 0)
(0 0 0)
(0 0 0)
(0 0 0)
(0 0 0)
(0 0 0)
(0 0 0)
(0 0 0)
(0 0 0)
(0 0 0)
(0 0 0)
(0 0 0)
(0 0 0)
(0 0 0)
(0 0 0)
(0 0 0)
(0 0 0)
(0 0 0)
(0 0 0)
(0 0 0)
(0 0 0)
(0 0 0)
(0 0 0)
(0 0 0)
(0 0 0)
(0 0 0)
(0 0 0)
(0 0 0)
(0 0 0)
(0 0 0)
(0 0 0)
(0 0 0)
(0 0 0)
(0 0 0)
(0 0 0)
(0 0 0)
(0 0 0)
(0 0 0)
(0 0 0)
(0 0 0)
(0 0 0)
(0 0 0)
(0 0 0)
(0 0 0)
(0 0 0)
(0 0 0)
(0 0 0)
(0 0 0)
(0 0 0)
(0 0 0)
(0 0 0)
(0 0 0)
(0 0 0)
(0 0 0)
(0 0 0)
(0 0 0)
(0 0 0)
(0 0 0)
(0 0 0)
(0 0 0)
(0 0 0)
(0 0 0)
(0 0 0)
(0 0 0)
(0 0 0)
(0 0 0)
(0 0 0)
(0 0 0)
(0 0 0)
(0 0 0)
(0 0 0)
(0 0 0)
(0 0 0)
(0 0 0)
(0 0 0)
(0 0 0)
(0 0 0)
(0 0 0)
(0 0 0)
(0 0 0)
(0 0 0)
(0 0 0)
(0 0 0)
(0 0 0)
(0 0 0)
(0 0 0)
(0 0 0)
(0 0 0)
(0 0 0)
(0 0 0)
(0 0 0)
(0 0 0)
(0 0 0)
(0 0 0)
(0 0 0)
(0 0 0)
(0 0 0)
(0 0 0)
(0 0 0)
(0 0 0)
(0 0 0)
(0 0 0)
(0 0 0)
(0 0 0)
(0 0 0)
(0 0 0)
(0 0 0)
(0 0 0)
(0 0 0)
(0 0 0)
(0 0 0)
(0 0 0)
(0 0 0)
(0 0 0)
(0 0 0)
(1.9795e-16 2.72804e-15 1.02648e-13)
(0 0 0)
(0 0 0)
(0 0 0)
(0 0 0)
(0 0 0)
(0 0 0)
(0 0 0)
(0 0 0)
(0 0 0)
(0 0 0)
(0 0 0)
(0 0 0)
(0 0 0)
(0 0 0)
(0 0 0)
(0 0 0)
(0 0 0)
(0 0 0)
(0 0 0)
(0 0 0)
(0 0 0)
(0 0 0)
(0 0 0)
(0 0 0)
(0 0 0)
(0 0 0)
(0 0 0)
(0 0 0)
(0 0 0)
(0 0 0)
(0 0 0)
(0 0 0)
(0 0 0)
(0 0 0)
(0 0 0)
(0 0 0)
(0 0 0)
(0 0 0)
(0 0 0)
(0 0 0)
(0 0 0)
(0 0 0)
(0 0 0)
(0 0 0)
(0 0 0)
(0 0 0)
(0 0 0)
(0 0 0)
(0 0 0)
(0 0 0)
(0 0 0)
(0 0 0)
(0 0 0)
(0 0 0)
(0 0 0)
(0 0 0)
(0 0 0)
(0 0 0)
(0 0 0)
(0 0 0)
(0 0 0)
(0 0 0)
(0 0 0)
(0 0 0)
(0 0 0)
(0 0 0)
(0 0 0)
(0 0 0)
(0 0 0)
(0 0 0)
(0 0 0)
(0 0 0)
(0 0 0)
(0 0 0)
(0 0 0)
(0 0 0)
(0 0 0)
(0 0 0)
(0 0 0)
(0 0 0)
(0 0 0)
(0 0 0)
(0 0 0)
(0 0 0)
(0 0 0)
(0 0 0)
(0 0 0)
(0 0 0)
(0 0 0)
(0 0 0)
(0 0 0)
(0 0 0)
(0 0 0)
(0 0 0)
(0 0 0)
(0 0 0)
(0 0 0)
(0 0 0)
(0 0 0)
(0 0 0)
(0 0 0)
(0 0 0)
(0 0 0)
(0 0 0)
(0 0 0)
(0 0 0)
(0 0 0)
(0 0 0)
(0 0 0)
(0 0 0)
(0 0 0)
(0 0 0)
(0 0 0)
(0 0 0)
(0 0 0)
(0 0 0)
(0 0 0)
(0 0 0)
(0 0 0)
(0 0 0)
(0 0 0)
(0 0 0)
(0 0 0)
(0 0 0)
(0 0 0)
(0 0 0)
(0 0 0)
(0 0 0)
(0 0 0)
(0 0 0)
(0 0 0)
(0 0 0)
(0 0 0)
(0 0 0)
(0 0 0)
(0 0 0)
(0 0 0)
(0 0 0)
(0 0 0)
(0 0 0)
(0 0 0)
(0 0 0)
(0 0 0)
(0 0 0)
(0 0 0)
(0 0 0)
(0 0 0)
(0 0 0)
(0 0 0)
(0 0 0)
(0 0 0)
(0 0 0)
(0 0 0)
(0 0 0)
(0 0 0)
(0 0 0)
(0 0 0)
(0 0 0)
(0 0 0)
(0 0 0)
(0 0 0)
(0 0 0)
(0 0 0)
(0 0 0)
(0 0 0)
(0 0 0)
(0 0 0)
(0 0 0)
(0 0 0)
(0 0 0)
(0 0 0)
(0 0 0)
(0 0 0)
(0 0 0)
(0 0 0)
(0 0 0)
(0 0 0)
(0 0 0)
(0 0 0)
(0 0 0)
(0 0 0)
(0 0 0)
(0 0 0)
(0 0 0)
(0 0 0)
(0 0 0)
(0 0 0)
(0 0 0)
(0 0 0)
(0 0 0)
(0 0 0)
(0 0 0)
(0 0 0)
(0 0 0)
(0 0 0)
(0 0 0)
(0 0 0)
(0 0 0)
(0 0 0)
(0 0 0)
(0 0 0)
(0 0 0)
(0 0 0)
(0 0 0)
(0 0 0)
(0 0 0)
(0 0 0)
(0 0 0)
(0 0 0)
(0 0 0)
(0 0 0)
(0 0 0)
(0 0 0)
(0 0 0)
(0 0 0)
(0 0 0)
(0 0 0)
(0 0 0)
(0 0 0)
(0 0 0)
(0 0 0)
(0 0 0)
(0 0 0)
(0 0 0)
(0 0 0)
(0 0 0)
(0 0 0)
(0 0 0)
(0 0 0)
(0 0 0)
(0 0 0)
(0 0 0)
(0 0 0)
(0 0 0)
(0 0 0)
(0 0 0)
(0 0 0)
(0 0 0)
(0 0 0)
(0 0 0)
(0 0 0)
(0 0 0)
(0 0 0)
(0 0 0)
(0 0 0)
(0 0 0)
(0 0 0)
(0 0 0)
(0 0 0)
(0 0 0)
(0 0 0)
(0 0 0)
(0 0 0)
(0 0 0)
(0 0 0)
(0 0 0)
(0 0 0)
(0 0 0)
(0 0 0)
(0 0 0)
(0 0 0)
(0 0 0)
(0 0 0)
(0 0 0)
(0 0 0)
(0 0 0)
(0 0 0)
(0 0 0)
(0 0 0)
(0 0 0)
(0 0 0)
(0 0 0)
(0 0 0)
(0 0 0)
(0 0 0)
(0 0 0)
(0 0 0)
(0 0 0)
(0 0 0)
(0 0 0)
(0 0 0)
(0 0 0)
(0 0 0)
(0 0 0)
(0 0 0)
(0 0 0)
(0 0 0)
(0 0 0)
(0 0 0)
(0 0 0)
(0 0 0)
(0 0 0)
(0 0 0)
(0 0 0)
(0 0 0)
(0 0 0)
(0 0 0)
(0 0 0)
(0 0 0)
(0 0 0)
(0 0 0)
(0 0 0)
(0 0 0)
(0 0 0)
(0 0 0)
(0 0 0)
(0 0 0)
(0 0 0)
(0 0 0)
(0 0 0)
(0 0 0)
(0 0 0)
(0 0 0)
(0 0 0)
(0 0 0)
(0 0 0)
(0 0 0)
(0 0 0)
(0 0 0)
(0 0 0)
(0 0 0)
(0 0 0)
(0 0 0)
(0 0 0)
(0 0 0)
(0 0 0)
(0 0 0)
(0 0 0)
(0 0 0)
(0 0 0)
(0 0 0)
(0 0 0)
(0 0 0)
(0 0 0)
(0 0 0)
(0 0 0)
(0 0 0)
(0 0 0)
(0 0 0)
(0 0 0)
(0 0 0)
(0 0 0)
(0 0 0)
(0 0 0)
(0 0 0)
(0 0 0)
(0 0 0)
(0 0 0)
(0 0 0)
(0 0 0)
(0 0 0)
(0 0 0)
(0 0 0)
(0 0 0)
(0 0 0)
(0 0 0)
(0 0 0)
(0 0 0)
(0 0 0)
(0 0 0)
(0 0 0)
(0 0 0)
(0 0 0)
(0 0 0)
(0 0 0)
(0 0 0)
(0 0 0)
(0 0 0)
(0 0 0)
(0 0 0)
(0 0 0)
(0 0 0)
(0 0 0)
(0 0 0)
(0 0 0)
(0 0 0)
(0 0 0)
(0 0 0)
(0 0 0)
(0 0 0)
(0 0 0)
(0 0 0)
(0 0 0)
(0 0 0)
(0 0 0)
(0 0 0)
(0 0 0)
(0 0 0)
(0 0 0)
(0 0 0)
(0 0 0)
(0 0 0)
(0 0 0)
(0 0 0)
(0 0 0)
(0 0 0)
(0 0 0)
(0 0 0)
(0 0 0)
(0 0 0)
(0 0 0)
(0 0 0)
(0 0 0)
(0 0 0)
(0 0 0)
(0 0 0)
(0 0 0)
(0 0 0)
(0 0 0)
(0 0 0)
(0 0 0)
(0 0 0)
(0 0 0)
(0 0 0)
(0 0 0)
(0 0 0)
(0 0 0)
(0 0 0)
(0 0 0)
(0 0 0)
(0 0 0)
(0 0 0)
(0 0 0)
(0 0 0)
(0 0 0)
(0 0 0)
(0 0 0)
(0 0 0)
(0 0 0)
(0 0 0)
(0 0 0)
(0 0 0)
(0 0 0)
(0 0 0)
(0 0 0)
(0 0 0)
(0 0 0)
(0 0 0)
(0 0 0)
(0 0 0)
(0 0 0)
(0 0 0)
(0 0 0)
(0 0 0)
(0 0 0)
(0 0 0)
(0 0 0)
(0 0 0)
(0 0 0)
(0 0 0)
(0 0 0)
(0 0 0)
(0 0 0)
(0 0 0)
(0 0 0)
(0 0 0)
(0 0 0)
(0 0 0)
(0 0 0)
(0 0 0)
(0 0 0)
(0 0 0)
(0 0 0)
(0 0 0)
(0 0 0)
(0 0 0)
(0 0 0)
(0 0 0)
(0 0 0)
(0 0 0)
(0 0 0)
(0 0 0)
(0 0 0)
(0 0 0)
(0 0 0)
(0 0 0)
(0 0 0)
(0 0 0)
(0 0 0)
(0 0 0)
(0 0 0)
(0 0 0)
(0 0 0)
(0 0 0)
(0 0 0)
(0 0 0)
(0 0 0)
(0 0 0)
(0 0 0)
(0 0 0)
(0 0 0)
(0 0 0)
(0 0 0)
(0 0 0)
(0 0 0)
(0 0 0)
(0 0 0)
(0 0 0)
(0 0 0)
(0 0 0)
(0 0 0)
(0 0 0)
(0 0 0)
(0 0 0)
(0 0 0)
(0 0 0)
(0 0 0)
(0 0 0)
(0 0 0)
(0 0 0)
(0 0 0)
(0 0 0)
(0 0 0)
(0 0 0)
(0 0 0)
(0 0 0)
(0 0 0)
(0 0 0)
(0 0 0)
(0 0 0)
(0 0 0)
(0 0 0)
(0 0 0)
(0 0 0)
(0 0 0)
(0 0 0)
(0 0 0)
(0 0 0)
(0 0 0)
(0 0 0)
(0 0 0)
(0 0 0)
(0 0 0)
(0 0 0)
(0 0 0)
(0 0 0)
(0 0 0)
(0 0 0)
(0 0 0)
(0 0 0)
(0 0 0)
(0 0 0)
(0 0 0)
(0 0 0)
(0 0 0)
(0 0 0)
(0 0 0)
(0 0 0)
(0 0 0)
(0 0 0)
(0 0 0)
(0 0 0)
(0 0 0)
(0 0 0)
(0 0 0)
(0 0 0)
(0 0 0)
(0 0 0)
(0 0 0)
(0 0 0)
(0 0 0)
(0 0 0)
(0 0 0)
(0 0 0)
(0 0 0)
(0 0 0)
(0 0 0)
(0 0 0)
(0 0 0)
(0 0 0)
(0 0 0)
(0 0 0)
(0 0 0)
(0 0 0)
(0 0 0)
(0 0 0)
(0 0 0)
(0 0 0)
(0 0 0)
(0 0 0)
(0 0 0)
(0 0 0)
(0 0 0)
(0 0 0)
(0 0 0)
(0 0 0)
(0 0 0)
(0 0 0)
(0 0 0)
(0 0 0)
(0 0 0)
(0 0 0)
(0 0 0)
(0 0 0)
(0 0 0)
(0 0 0)
(0 0 0)
(0 0 0)
(0 0 0)
(0 0 0)
(0 0 0)
(0 0 0)
(0 0 0)
(0 0 0)
(0 0 0)
(0 0 0)
(0 0 0)
(0 0 0)
(0 0 0)
(0 0 0)
(0 0 0)
(0 0 0)
(0 0 0)
(0 0 0)
(0 0 0)
(0 0 0)
(0 0 0)
(0 0 0)
(0 0 0)
(0 0 0)
(0 0 0)
(0 0 0)
(0 0 0)
(0 0 0)
(0 0 0)
(0 0 0)
(0 0 0)
(0 0 0)
(0 0 0)
(0 0 0)
(0 0 0)
(0 0 0)
(0 0 0)
(0 0 0)
(0 0 0)
(0 0 0)
(0 0 0)
(0 0 0)
(0 0 0)
(0 0 0)
(0 0 0)
(0 0 0)
(0 0 0)
(0 0 0)
(0 0 0)
(0 0 0)
(0 0 0)
(0 0 0)
(0 0 0)
(0 0 0)
(0 0 0)
(0 0 0)
(0 0 0)
(0 0 0)
(0 0 0)
(0 0 0)
(0 0 0)
(0 0 0)
(0 0 0)
(0 0 0)
(0 0 0)
(0 0 0)
(0 0 0)
(0 0 0)
(0 0 0)
(0 0 0)
(0 0 0)
(0 0 0)
(0 0 0)
(0 0 0)
(0 0 0)
(0 0 0)
(0 0 0)
(0 0 0)
(0 0 0)
(0 0 0)
(0 0 0)
(0 0 0)
(0 0 0)
(0 0 0)
(0 0 0)
(0 0 0)
(0 0 0)
(0 0 0)
(0 0 0)
(0 0 0)
(0 0 0)
(0 0 0)
(0 0 0)
(0 0 0)
(0 0 0)
(0 0 0)
(0 0 0)
(0 0 0)
(0 0 0)
(0 0 0)
(0 0 0)
(0 0 0)
(0 0 0)
(0 0 0)
(0 0 0)
(0 0 0)
(0 0 0)
(0 0 0)
(0 0 0)
(0 0 0)
(0 0 0)
(0 0 0)
(0 0 0)
(0 0 0)
(0 0 0)
(0 0 0)
(0 0 0)
(0 0 0)
(0 0 0)
(0 0 0)
(0 0 0)
(0 0 0)
(0 0 0)
(0 0 0)
(0 0 0)
(0 0 0)
(0 0 0)
(0 0 0)
(0 0 0)
(0 0 0)
(0 0 0)
(0 0 0)
(0 0 0)
(0 0 0)
(0 0 0)
(0 0 0)
(0 0 0)
(0 0 0)
(0 0 0)
(0 0 0)
(0 0 0)
(0 0 0)
(0 0 0)
(0 0 0)
(0 0 0)
(0 0 0)
(0 0 0)
(0 0 0)
(0 0 0)
(0 0 0)
(0 0 0)
(0 0 0)
(0 0 0)
(0 0 0)
(0 0 0)
(0 0 0)
(0 0 0)
(0 0 0)
(0 0 0)
(0 0 0)
(0 0 0)
(0 0 0)
(0 0 0)
(0 0 0)
(0 0 0)
(0 0 0)
(0 0 0)
(0 0 0)
(0 0 0)
(0 0 0)
(0 0 0)
(0 0 0)
(0 0 0)
(0 0 0)
(0 0 0)
(0 0 0)
(0 0 0)
(0 0 0)
(0 0 0)
(0 0 0)
(0 0 0)
(0 0 0)
(0 0 0)
(0 0 0)
(0 0 0)
(0 0 0)
(0 0 0)
(0 0 0)
(0 0 0)
(0 0 0)
(0 0 0)
(0 0 0)
(0 0 0)
(0 0 0)
(0 0 0)
(0 0 0)
(0 0 0)
(0 0 0)
(0 0 0)
(0 0 0)
(0 0 0)
(0 0 0)
(0 0 0)
(0 0 0)
(0 0 0)
(0 0 0)
(0 0 0)
(0 0 0)
(0 0 0)
(0 0 0)
(0 0 0)
(0 0 0)
(0 0 0)
(0 0 0)
(0 0 0)
(0 0 0)
(0 0 0)
(0 0 0)
(0 0 0)
(0 0 0)
(0 0 0)
(0 0 0)
(0 0 0)
(0 0 0)
(0 0 0)
(0 0 0)
(0 0 0)
(0 0 0)
(0 0 0)
(0 0 0)
(0 0 0)
(0 0 0)
(0 0 0)
(0 0 0)
(0 0 0)
(0 0 0)
(0 0 0)
(0 0 0)
(0 0 0)
(0 0 0)
(0 0 0)
(0 0 0)
(0 0 0)
(0 0 0)
(0 0 0)
(0 0 0)
(0 0 0)
(0 0 0)
(0 0 0)
(0 0 0)
(0 0 0)
(0 0 0)
(0 0 0)
(0 0 0)
(0 0 0)
(0 0 0)
(0 0 0)
(0 0 0)
(0 0 0)
(0 0 0)
(0 0 0)
(0 0 0)
(0 0 0)
(0 0 0)
(0 0 0)
(0 0 0)
(0 0 0)
(0 0 0)
(0 0 0)
(0 0 0)
(0 0 0)
(0 0 0)
(0 0 0)
(0 0 0)
(0 0 0)
(0 0 0)
(0 0 0)
(0 0 0)
(0 0 0)
(0 0 0)
(0 0 0)
(0 0 0)
(0 0 0)
(0 0 0)
(0 0 0)
(0 0 0)
(0 0 0)
(0 0 0)
(0 0 0)
(0 0 0)
(0 0 0)
(0 0 0)
(0 0 0)
(0 0 0)
(0 0 0)
(0 0 0)
(0 0 0)
(0 0 0)
(0 0 0)
(0 0 0)
(0 0 0)
(0 0 0)
(0 0 0)
(0 0 0)
(0 0 0)
(0 0 0)
(0 0 0)
(0 0 0)
(0 0 0)
(0 0 0)
(0 0 0)
(0 0 0)
(0 0 0)
(0 0 0)
(0 0 0)
(0 0 0)
(0 0 0)
(0 0 0)
(0 0 0)
(0 0 0)
(0 0 0)
(0 0 0)
(0 0 0)
(0 0 0)
(0 0 0)
(0 0 0)
(0 0 0)
(0 0 0)
(0 0 0)
(0 0 0)
(0 0 0)
(0 0 0)
(0 0 0)
(0 0 0)
(0 0 0)
(0 0 0)
(0 0 0)
(0 0 0)
(0 0 0)
(0 0 0)
(0 0 0)
(0 0 0)
(0 0 0)
(0 0 0)
(0 0 0)
(0 0 0)
(0 0 0)
(0 0 0)
(0 0 0)
(0 0 0)
(0 0 0)
(0 0 0)
(0 0 0)
(0 0 0)
(0 0 0)
(0 0 0)
(0 0 0)
(0 0 0)
(0 0 0)
(0 0 0)
(0 0 0)
(0 0 0)
(0 0 0)
(0 0 0)
(0 0 0)
(0 0 0)
(0 0 0)
(0 0 0)
(0 0 0)
(0 0 0)
(0 0 0)
(0 0 0)
(0 0 0)
(0 0 0)
(0 0 0)
(0 0 0)
(0 0 0)
(0 0 0)
(0 0 0)
(0 0 0)
(0 0 0)
(0 0 0)
(0 0 0)
(0 0 0)
(0 0 0)
(0 0 0)
(0 0 0)
(0 0 0)
(0 0 0)
(0 0 0)
(0 0 0)
(0 0 0)
(0 0 0)
(0 0 0)
(0 0 0)
(0 0 0)
(0 0 0)
(0 0 0)
(0 0 0)
(0 0 0)
(0 0 0)
(0 0 0)
(0 0 0)
(0 0 0)
(0 0 0)
(0 0 0)
(0 0 0)
(0 0 0)
(0 0 0)
(0 0 0)
(0 0 0)
(0 0 0)
(0 0 0)
(0 0 0)
(0 0 0)
(0 0 0)
(0 0 0)
(0 0 0)
(0 0 0)
(0 0 0)
(0 0 0)
(0 0 0)
(0 0 0)
(0 0 0)
(0 0 0)
(0 0 0)
(0 0 0)
(0 0 0)
(0 0 0)
(0 0 0)
(0 0 0)
(0 0 0)
(0 0 0)
(0 0 0)
(0 0 0)
(0 0 0)
(0 0 0)
(0 0 0)
(0 0 0)
(0 0 0)
(0 0 0)
(0 0 0)
(0 0 0)
(0 0 0)
(0 0 0)
(0 0 0)
(0 0 0)
(0 0 0)
(0 0 0)
(0 0 0)
(0 0 0)
(0 0 0)
(0 0 0)
(0 0 0)
(0 0 0)
(0 0 0)
(0 0 0)
(0 0 0)
(0 0 0)
(0 0 0)
(0 0 0)
(0 0 0)
(0 0 0)
(0 0 0)
(0 0 0)
(0 0 0)
(0 0 0)
(0 0 0)
(0 0 0)
(0 0 0)
(0 0 0)
(0 0 0)
(0 0 0)
(0 0 0)
(0 0 0)
(0 0 0)
(0 0 0)
(0 0 0)
(0 0 0)
(0 0 0)
(0 0 0)
(0 0 0)
(0 0 0)
(0 0 0)
(0 0 0)
(0 0 0)
(0 0 0)
(0 0 0)
(0 0 0)
(0 0 0)
(0 0 0)
(0 0 0)
(0 0 0)
(0 0 0)
(0 0 0)
(0 0 0)
(0 0 0)
(0 0 0)
(0 0 0)
(0 0 0)
(0 0 0)
(0 0 0)
(0 0 0)
(0 0 0)
(0 0 0)
(0 0 0)
(0 0 0)
(0 0 0)
(0 0 0)
(0 0 0)
(0 0 0)
(0 0 0)
(0 0 0)
(0 0 0)
(0 0 0)
(0 0 0)
(0 0 0)
(0 0 0)
(0 0 0)
(0 0 0)
(0 0 0)
(0 0 0)
(0 0 0)
(0 0 0)
(0 0 0)
(0 0 0)
(0 0 0)
(0 0 0)
(0 0 0)
(0 0 0)
(0 0 0)
(0 0 0)
(0 0 0)
(0 0 0)
(0 0 0)
(0 0 0)
(0 0 0)
(0 0 0)
(0 0 0)
(0 0 0)
(0 0 0)
(0 0 0)
(0 0 0)
(0 0 0)
(0 0 0)
(0 0 0)
(0 0 0)
(0 0 0)
(0 0 0)
(0 0 0)
(0 0 0)
(0 0 0)
(0 0 0)
(0 0 0)
(0 0 0)
(0 0 0)
(0 0 0)
(0 0 0)
(0 0 0)
(0 0 0)
(0 0 0)
(0 0 0)
(0 0 0)
(0 0 0)
(0 0 0)
(0 0 0)
(0 0 0)
(0 0 0)
(0 0 0)
(0 0 0)
(0 0 0)
(0 0 0)
(0 0 0)
(0 0 0)
(0 0 0)
(0 0 0)
(0 0 0)
(0 0 0)
(0 0 0)
(0 0 0)
(0 0 0)
(0 0 0)
(0 0 0)
(0 0 0)
(0 0 0)
(0 0 0)
(0 0 0)
(0 0 0)
(0 0 0)
(0 0 0)
(0 0 0)
(0 0 0)
(0 0 0)
(0 0 0)
(0 0 0)
(0 0 0)
(0 0 0)
(0 0 0)
(0 0 0)
(0 0 0)
(0 0 0)
(0 0 0)
(0 0 0)
(0 0 0)
(0 0 0)
(0 0 0)
(0 0 0)
(0 0 0)
(0 0 0)
(0 0 0)
(0 0 0)
(0 0 0)
(0 0 0)
(0 0 0)
(0 0 0)
(0 0 0)
(0 0 0)
(0 0 0)
(0 0 0)
(0 0 0)
(0 0 0)
(0 0 0)
(0 0 0)
(0 0 0)
(0 0 0)
(0.0196738 0.0363262 -0.0378196)
(-0.0748157 0.00400683 -0.00263507)
(-0.0379653 0.0375226 -0.0108577)
(-0.131381 0.0019921 -0.0081232)
(-0.0782565 0.010216 -0.00684436)
(-0.143345 0.0171612 -0.0137968)
(-0.097659 0.0185813 -0.0183723)
(-0.085719 -0.0303555 -0.0047868)
(0.0269205 -0.0128075 -0.0228228)
(0.0244237 0.0280601 -0.0132017)
(0.0388323 0.0936468 -0.0176431)
(0.0516781 0.0215583 -0.0102748)
(0.0251716 0.0792923 0.0193348)
(-0.0634129 0.0836892 0.00546848)
(-0.181465 0.115894 0.00399282)
(-0.0788498 0.0409863 0.0241573)
(-0.126942 0.0460995 0.015993)
(-0.276186 0.177561 0.0604731)
(-0.284951 0.066875 0.0288305)
(-0.206389 0.0567708 0.075499)
(-0.377426 0.0397248 0.112649)
(-0.224359 -0.0402666 0.00385397)
(-0.156065 -0.0787686 -0.00711483)
(-0.370014 -0.0254539 0.0638042)
(-0.234375 -0.103222 0.00650627)
(-0.119394 -0.103059 -0.0148305)
(0.0683617 -0.0302311 -0.0238521)
(0.0303422 0.00648866 -0.0254735)
(0.082015 -0.0257694 -0.00509284)
(0.0515736 0.0278729 -0.00970107)
(0.0142562 0.0420614 0.00357848)
(0.110072 -0.0232688 -0.0087338)
(0.0272649 0.0287172 -0.00702542)
(-0.0415318 0.0362989 0.0153525)
(-0.0962016 0.0446263 0.0447408)
(-0.00992482 0.0211067 -0.00925972)
(-0.0250051 0.0502287 0.00718925)
(-0.131629 -0.0350521 0.0409296)
(-0.263423 -0.0309613 0.0786957)
(-0.140732 0.00694998 0.0410813)
(-0.286261 0.0318589 0.0655584)
(-0.393243 -0.00132495 0.131605)
(-0.281656 -0.0782214 0.040489)
(-0.329436 0.0443896 0.104967)
(-0.285674 -0.00752489 0.0638749)
(-0.146847 -0.102481 -0.0151912)
(-0.135346 -0.0451446 -0.016425)
(-0.0437186 -0.0280432 -0.032537)
(0.0230481 -0.0587808 -0.0255195)
(0.0347557 -0.141877 0.00540718)
(-0.0316293 -0.185963 -0.0110378)
(0.0336292 -0.362841 -0.0137055)
(0.0559241 -0.352476 -0.0180533)
(-0.0179527 -0.304985 -0.0197425)
(0.034563 -0.314557 -0.0124132)
(0.0625764 -0.332383 -0.0363162)
(0.0238827 -0.133834 -0.0322143)
(0.0672592 -0.383107 -0.0301798)
(0.0516958 -0.399281 -0.0240868)
(-0.0550084 -0.253615 -0.012758)
(-0.396986 -0.00557688 0.0566726)
(0.0220315 -0.368037 0.00734161)
(-0.173995 -0.377775 0.0201149)
(-0.42964 -0.0216142 0.085669)
(-0.30629 -0.0111062 0.0517421)
(-0.300229 -0.230332 0.0689368)
(-0.234134 -0.124446 0.0439132)
(-0.14627 -0.0155628 -0.00899378)
(-0.049587 -0.00580425 -0.0285351)
(-0.110912 -0.0499927 -0.00690012)
(-0.0566338 -0.166428 -0.0299898)
(-0.0491155 -0.20077 -0.0357478)
(0.00291657 -0.24608 -0.0219382)
(-0.0490472 -0.115151 -0.0434848)
(-0.0339748 -0.152762 -0.0465515)
(0.0200364 -0.307481 -0.0603314)
(0.0375367 -0.335633 -0.044253)
(-0.0197547 -0.207047 -0.0925291)
(-0.00255755 -0.222606 -0.0667064)
(-0.010201 -0.347969 -0.00756933)
(-0.142368 -0.312568 0.0253348)
(-0.0423185 -0.239266 -0.0350049)
(-0.104072 -0.218201 -0.00113593)
(-0.180335 -0.234777 0.0505873)
(-0.122374 -0.127613 -0.000138228)
(-0.0790891 -0.14643 0.00127378)
(-0.0331174 -0.0583379 -0.0273311)
(-0.0393485 -0.0425329 -0.0294962)
(-0.0256641 -0.0681875 -0.0464107)
(-0.0435134 -0.100841 -0.0761236)
(-0.0285104 -0.106064 -0.0717272)
(-0.00786288 -0.0365375 -0.0680475)
(-0.0487887 -0.105092 -0.0568701)
(-0.0613111 -0.093329 -0.0346567)
(0.012029 -0.0204765 -0.04887)
(-0.0232622 -0.0556614 -0.0375465)
(0.0132758 0.0413838 -0.0645846)
(0.00304601 0.0314478 -0.0167237)
(-0.154617 -0.0375857 0.10816)
(-0.00264508 0.0999583 -0.0321275)
(-0.13013 0.00538556 0.0536417)
(-0.0331713 0.00878487 0.156714)
(-0.011358 0.0665109 -0.00268578)
(-0.00646818 0.101207 0.0941114)
(-0.169393 -0.0185311 0.0495918)
(-0.142067 0.000680811 0.0478766)
(-0.0241022 0.0180518 0.108263)
(-0.0392257 0.0535524 0.106567)
(-0.0711626 0.0216292 0.065366)
(-0.118631 -0.0294997 0.0355717)
(-0.0797004 -0.0269815 0.0153111)
(0.0845773 -0.0914586 0.00484103)
(0.055664 -0.0758521 0.0109136)
(0.0561274 0.086359 0.0180929)
(0.102695 -0.0118818 0.0802809)
(0.0315168 0.173152 0.100943)
(0.0552877 -0.0329026 0.0448689)
(0.0404641 0.0506805 0.0732239)
(0.0947147 -0.0451295 0.0929489)
(0.0805735 0.114967 0.166905)
(-0.148673 -0.105148 -0.0134738)
(-0.345455 -0.0293075 0.0854348)
(-0.226475 -0.112573 -0.0194882)
(-0.18312 -0.0520066 0.0190153)
(-0.120778 -0.1013 -0.0482084)
(-0.310563 -0.144915 0.0901675)
(-0.178281 -0.139805 -0.0881422)
(-0.101812 -0.129851 -0.0457381)
(-0.078804 -0.111953 -0.116137)
(0.0927764 -0.0506617 0.026884)
(0.0170245 -0.0830512 0.0160484)
(0.0606945 -0.0960808 0.0560728)
(0.0517096 -0.0621279 0.0170262)
(0.00836488 -0.0533489 0.0243653)
(0.038527 -0.0935149 0.0734375)
(-0.0813635 -0.0922779 -0.0650596)
(-0.0161803 -0.0723401 -0.0393205)
(-0.073014 -0.118285 -0.133387)
(-0.046466 -0.0980967 -0.136085)
(-0.00918061 -0.0712372 -0.0741831)
(-0.00936035 -0.214929 0.0409771)
(-0.0792078 -0.235386 -0.0151569)
(-0.00566674 -0.0757407 0.0513039)
(-0.0180266 -0.161678 0.0853468)
(-0.0944881 -0.179265 0.0368164)
(-0.00948725 -0.0459217 -0.0413431)
(-0.0593076 -0.0613626 -0.0455315)
(-0.00788124 -0.0558557 -0.138574)
(0.0123759 -0.0502943 -0.0889823)
(-0.00829546 -0.0565249 -0.115723)
(-0.106683 -0.199889 -0.0535021)
(-0.103188 -0.16528 -0.0133257)
(-0.097438 -0.252238 -0.0693941)
(-0.137793 -0.158727 -0.0982965)
(-0.108348 -0.159279 -0.107118)
(-0.168478 -0.200567 -0.0610539)
(-0.176779 -0.183489 -0.0925201)
(-0.152801 -0.157231 -0.103602)
(-0.148938 -0.129367 -0.126533)
(-0.046597 -0.106608 -0.0582019)
(-0.031071 -0.103936 -0.0541698)
(-0.00605529 -0.0500661 -0.079825)
(0.0600108 -0.144569 0.0358516)
(0.0581872 -0.0506082 -0.125946)
(0.0219158 -0.00927114 -0.109735)
(0.0192257 -0.0197055 -0.13526)
(0.0344846 -0.05324 -0.130739)
(-0.0894266 -0.0799867 -0.114298)
(-0.101822 -0.0688785 -0.111434)
(0.00737009 -0.0924156 -0.125494)
(-0.0113261 -0.0367017 -0.112903)
(-0.0572351 -0.0462399 -0.126215)
(0.000240669 -0.0476976 -0.121957)
(-0.0108298 -0.0155379 -0.10013)
(0.000456389 -0.0626435 -0.0893305)
(0.0010373 -0.04378 -0.0770593)
(0.0257612 -0.037068 -0.104237)
(0.0110292 -0.00857675 -0.118447)
(-0.00109589 -0.0215484 -0.0854542)
(-0.000382801 -0.000106347 -0.143843)
(-0.000432562 0.0220624 0.00870448)
(0.00232886 0.0151371 -0.00640543)
(0.0761469 0.054211 0.140406)
(-0.0113307 0.0456889 0.0283234)
(0.0324903 0.13846 0.122024)
(0.0392305 0.0341016 0.0729346)
(-0.00786718 0.0397521 0.0147537)
(0.0122162 0.10725 0.0898294)
(0.00940173 0.093945 0.120245)
(-0.0281203 0.0274163 0.0643265)
(0.0336813 0.0252492 0.0560255)
(0.0158155 0.080289 0.0919825)
(-0.00259704 0.0200153 0.0594037)
(-0.045198 -0.0203486 0.0139807)
(-0.0117534 -0.0208111 0.0068908)
(0.0390269 -0.0547511 0.00644927)
(0.0301572 -0.0437701 -0.00728033)
(0.0338878 0.0433814 0.108266)
(0.0645692 -0.0543022 0.12629)
(0.0555619 0.0537059 0.246843)
(0.0444845 -0.0274294 0.0480521)
(0.0456978 0.0234054 0.116413)
(0.0532832 -0.0722115 0.170309)
(0.029304 -0.0367549 0.325285)
(-0.0954719 -0.113173 -0.0604359)
(-0.225813 -0.300346 0.0332896)
(-0.127719 -0.143503 -0.133434)
(-0.0916303 -0.241416 -0.0217648)
(-0.0455962 -0.110898 -0.149881)
(-0.11764 -0.295026 -0.0315741)
(-0.0788693 -0.104004 -0.184787)
(-0.0659785 -0.0899069 -0.174901)
(-0.0387835 -0.0448985 -0.23334)
(0.0384369 -0.0681685 8.75265e-06)
(0.0043487 -0.0282698 0.0107749)
(0.0254187 -0.0651197 0.0608224)
(0.0401251 -0.0657643 -0.0264035)
(0.00224482 -0.0194344 -0.0102857)
(0.0155453 -0.0541178 0.0344903)
(-0.0466302 -0.0729749 -0.207422)
(-0.00461278 -0.0481682 -0.124809)
(-0.0410535 -0.0383032 -0.266097)
(-0.0487332 -0.0189353 -0.272422)
(-0.0196689 -0.000115372 -0.20371)
(-0.0118851 -0.0759544 0.133026)
(-0.0760216 -0.0724788 0.120869)