/*--------------------------------*- C++ -*----------------------------------*\
| =========                 |                                                 |
| \\      /  F ield         | OpenFOAM: The Open Source CFD Toolbox           |
|  \\    /   O peration     | Version:  5.x                                   |
|   \\  /    A nd           | Web:      www.OpenFOAM.org                      |
|    \\/     M anipulation  |                                                 |
\*---------------------------------------------------------------------------*/
FoamFile
{
    version     2.0;
    format      ascii;
    class       volScalarField;
    location    "10";
    object      p;
}
// * * * * * * * * * * * * * * * * * * * * * * * * * * * * * * * * * * * * * //

dimensions      [0 2 -2 0 0 0 0];

internalField   nonuniform List<scalar> 
10571
(
117.207
111.425
115.551
114.243
121.247
108.433
107.058
109.757
115.349
121.441
92.8337
102.332
102.208
111.663
117.206
120.615
101.705
97.8673
108.239
113.449
116.127
103.341
107.18
111.05
85.5287
86.1255
86.9205
88.8611
81.6949
85.9849
75.4699
62.2206
41.4509
65.5783
86.6774
87.1854
87.1609
55.6269
55.5289
75.6025
86.8257
89.4612
88.0712
91.5129
83.3088
87.8056
90.0667
89.154
10.0152
3.63498
10.5368
16.5393
3.86259
17.2779
3.39256
2.83086
2.15792
2.79791
58.1451
63.4181
4.62192
2.70096
2.65348
3.04814
70.7502
9.2215
4.59061
16.7961
4.82251
60.7251
56.9512
28.4269
2.42393
2.50632
2.42743
2.37875
2.52913
2.22314
1.81913
2.06733
2.26287
2.49972
1.63842
1.75264
1.68085
2.19868
2.10592
2.43485
1.53094
1.58301
1.86526
2.21791
2.41168
1.72035
1.94382
2.09996
2.43891
2.446
2.43193
2.44332
2.44283
2.43029
2.65057
2.62219
2.43458
2.40384
2.49443
2.48813
2.96073
2.70826
2.49762
2.42133
2.508
2.78131
2.58383
2.34186
2.3973
2.46059
2.45174
2.43571
2.44577
2.45154
2.44601
2.45217
2.44483
2.46342
2.42779
2.45992
2.41752
2.43611
2.46094
2.53398
2.53198
2.5455
2.53299
2.4394
2.43619
2.46208
2.55706
2.56085
2.47734
2.41506
2.43197
2.52254
2.50736
2.4676
2.45551
2.45319
2.44305
2.45587
2.44833
2.47018
2.43365
2.45757
2.43922
2.44552
2.45874
2.5167
2.51189
2.48193
2.48466
2.45806
2.4437
2.45892
2.5278
2.49773
2.48177
2.43734
2.44919
2.45642
2.51939
2.50171
2.4812
2.46272
2.44945
2.44588
2.46315
2.45732
2.47167
2.45328
2.4785
2.46541
2.4561
2.45048
2.50389
2.49566
2.50117
2.50272
2.48019
2.46424
2.45979
2.50571
2.48924
2.50912
2.46931
2.47355
2.46153
2.49278
2.49521
2.49174
2.4706
2.4489
2.45159
2.47229
2.46946
2.46864
2.46373
2.48561
2.48574
2.4727
2.46593
2.49251
2.48606
2.50538
2.51059
2.49833
2.48211
2.47511
2.49356
2.49975
2.51823
2.49136
2.49616
2.49195
2.50235
2.50157
2.48224
2.46071
2.46252
2.48404
2.48234
2.47204
2.47588
2.49092
2.49718
2.47476
2.49587
2.49796
2.51184
2.51182
2.50883
2.49721
2.49929
2.51395
2.52349
2.5114
2.50569
2.50214
2.50945
2.51267
2.49764
2.47989
2.48037
2.49763
2.49289
2.48195
2.49363
2.50185
2.50441
2.49449
2.50481
2.50776
2.52243
2.5135
2.5118
2.49975
2.50917
2.52312
2.53142
2.52907
2.51649
2.51259
2.51785
2.52258
2.51043
2.50014
2.50069
2.50487
2.50181
2.49474
2.50792
2.51255
2.51099
2.50731
2.51316
2.51263
2.53074
2.52217
2.52165
2.511
2.51622
2.52879
2.53518
2.53225
2.52139
2.5215
2.52434
2.52804
2.51702
2.51299
2.51936
2.50569
2.51114
2.50667
2.52239
2.51955
2.51643
2.515
2.51913
2.51878
2.53754
2.52719
2.52665
2.51763
2.52219
2.53082
2.532
2.52836
2.52433
2.52724
2.52609
2.52893
2.52816
2.51828
2.54023
2.51136
2.52169
2.51142
2.53177
2.52391
2.52054
2.5196
2.52285
2.52212
2.54463
2.52878
2.5279
2.52107
2.52596
2.53176
2.52886
2.52579
2.52628
2.53033
2.52448
2.52678
2.53996
2.52176
2.55191
2.55139
2.52865
2.50991
2.53073
2.53335
2.52132
2.52137
2.52397
2.52139
2.53893
2.5276
2.52886
2.52291
2.52705
2.53166
2.52624
2.52408
2.52634
2.53406
2.5288
2.52693
2.5314
2.52225
2.53604
2.5409
2.53146
2.50927
2.52021
2.53195
2.5147
2.52376
2.52454
2.52028
2.53238
2.52593
2.52603
2.52366
2.52656
2.53148
2.52317
2.52405
2.52683
2.54264
2.53471
2.52816
2.52722
2.51997
2.52384
2.52642
2.52875
2.51031
2.5082
2.52152
2.50392
2.5216
2.52573
2.51957
2.52765
2.52048
2.52242
2.52545
2.52379
2.53276
2.52213
2.52473
2.52641
2.53996
2.53493
2.52535
2.53716
2.51656
2.51567
2.52205
2.52134
2.51047
2.50029
2.50744
2.49404
2.51744
2.52663
2.51989
2.52405
2.51346
2.52045
2.52583
2.51951
2.53302
2.52227
2.52213
2.52387
2.53727
2.51919
2.51918
2.53262
2.51398
2.50901
2.51285
2.51042
2.51084
2.5012
2.49551
2.49319
2.51182
2.52562
2.52134
2.51933
2.51265
2.51599
2.51991
2.51251
2.52634
2.52213
2.51824
2.51977
2.5352
2.50294
2.51125
2.51422
2.51518
2.50693
2.50373
2.50701
2.51237
2.50448
2.49405
2.50204
2.5083
2.52489
2.51989
2.51046
2.51652
2.5113
2.515
2.50648
2.51726
2.51777
2.51663
2.51593
2.52026
2.50625
2.51142
2.51057
2.51827
2.51002
2.50505
2.51291
2.51642
2.50989
2.49981
2.52261
2.51263
2.51938
2.5169
2.50531
2.51856
2.51007
2.51378
2.50994
2.51055
2.5121
2.51339
2.51345
2.51263
2.5106
2.5186
2.51385
2.52307
2.51646
2.51131
2.51546
2.52036
2.51693
2.50915
2.54483
2.52116
2.51838
2.51647
2.50804
2.5174
2.51994
2.51799
2.51153
2.51165
2.5122
2.50934
2.5149
2.51553
2.51223
2.5241
2.5207
2.52863
2.52392
2.51925
2.51329
2.5267
2.52321
2.51847
2.54669
2.52584
2.52282
2.52074
2.51296
2.51985
2.53112
2.52288
2.51387
2.51112
2.51592
2.51523
2.52212
2.51661
2.51908
2.52627
2.52689
2.53256
2.52949
2.52686
2.5137
2.5353
2.52782
2.52186
2.53387
2.52596
2.52769
2.52505
2.51703
2.5235
2.53222
2.52471
2.51813
2.50999
2.52271
2.52674
2.52871
2.51874
2.52949
2.52926
2.52988
2.53345
2.53104
2.5295
2.51972
2.54101
2.52971
2.52198
2.52334
2.5254
2.531
2.52902
2.52234
2.52376
2.52836
2.52542
2.52288
2.51186
2.52724
2.53136
2.52994
2.52224
2.53341
2.52992
2.53099
2.52991
2.52976
2.53029
2.52679
2.53448
2.53183
2.5242
2.52108
2.52503
2.53043
2.52664
2.52947
2.52568
2.52449
2.52608
2.52651
2.51602
2.52968
2.52923
2.52899
2.52524
2.52023
2.52816
2.53208
2.52712
2.52845
2.53263
2.53132
2.53055
2.52824
2.52821
2.52101
2.5241
2.53082
2.52579
2.53221
2.52798
2.52254
2.52591
2.52884
2.52112
2.53173
2.52739
2.52827
2.53365
2.51757
2.52908
2.53192
2.52822
2.52976
2.53295
2.53116
2.52982
2.52018
2.52973
2.52065
2.52265
2.53509
2.53302
2.53251
2.52761
2.52145
2.52441
2.5333
2.52251
2.52851
2.5258
2.52727
2.53374
2.53726
2.52995
2.53035
2.52801
2.53131
2.53022
2.52831
2.52821
2.51503
2.52947
2.51975
2.5212
2.54214
2.53263
2.51921
2.52299
2.51896
2.52223
2.53329
2.51203
2.52181
2.52289
2.52539
2.51885
2.52678
2.52642
2.52724
2.52463
2.52712
2.52693
2.52502
2.52368
2.51413
2.5269
2.51792
2.52204
2.5299
2.52416
2.51157
2.51781
2.51708
2.52057
2.52347
2.50344
2.51572
2.52072
2.52397
2.50428
2.51897
2.5222
2.52286
2.52056
2.52021
2.52151
2.5215
2.5186
2.51639
2.52101
2.51488
2.52258
2.52164
2.51833
2.50963
2.51317
2.51622
2.52087
2.51778
2.50302
2.51288
2.51942
2.52297
2.50502
2.51358
2.52018
2.51898
2.51791
2.51649
2.51749
2.51843
2.51574
2.5144
2.51559
2.51324
2.52108
2.51814
2.51528
2.51013
2.51071
2.51532
2.52092
2.51568
2.50446
2.51233
2.51834
2.5213
2.51127
2.51232
2.51932
2.51628
2.5175
2.51497
2.51517
2.51578
2.51563
2.51815
2.5122
2.50904
2.517
2.51601
2.51324
2.51164
2.51009
2.51631
2.51813
2.51459
2.50717
2.51393
2.51677
2.51881
2.51485
2.51365
2.51891
2.5156
2.51814
2.51622
2.51437
2.51408
2.51508
2.52671
2.51189
2.50624
2.51435
2.51348
2.51108
2.51234
2.51044
2.5156
2.51365
2.51375
2.51006
2.51588
2.51687
2.51701
2.51642
2.51572
2.5194
2.51653
2.51848
2.51802
2.51511
2.51454
2.5141
2.5248
2.51616
2.51052
2.51571
2.51029
2.50782
2.51183
2.51214
2.51591
2.51447
2.51332
2.51244
2.51799
2.5187
2.51815
2.51784
2.51778
2.52062
2.51826
2.51864
2.51876
2.51725
2.5169
2.51419
2.52002
2.51807
2.51506
2.51824
2.50955
2.5055
2.51065
2.51371
2.51891
2.51909
2.51343
2.5148
2.5198
2.52057
2.52064
2.51907
2.5199
2.52155
2.5196
2.51878
2.51911
2.5184
2.51979
2.51478
2.51593
2.5179
2.51703
2.51981
2.51195
2.50601
2.5094
2.51505
2.52122
2.52253
2.51478
2.51708
2.52111
2.52272
2.52314
2.52065
2.52084
2.52247
2.52083
2.51899
2.51941
2.51944
2.52245
2.5161
2.51471
2.51801
2.51867
2.52001
2.51543
2.50857
2.50914
2.51455
2.52417
2.52521
2.51714
2.51917
2.52311
2.52428
2.52667
2.52319
2.52351
2.52483
2.52218
2.51931
2.51996
2.52074
2.52475
2.51808
2.5151
2.51682
2.52216
2.51975
2.51874
2.51205
2.51103
2.51603
2.52708
2.52647
2.51983
2.52029
2.52605
2.52711
2.53136
2.52547
2.52662
2.52836
2.52393
2.52042
2.52095
2.52257
2.52594
2.52039
2.51714
2.51835
2.5232
2.5199
2.52151
2.51557
2.51565
2.51997
2.52829
2.52631
2.52248
2.52129
2.53076
2.53078
2.53078
2.5273
2.53087
2.53183
2.52636
2.52246
2.52225
2.52461
2.52559
2.52284
2.52
2.52206
2.52316
2.52147
2.5236
2.51831
2.52136
2.52414
2.52767
2.52632
2.5246
2.5236
2.52904
2.52974
2.52877
2.52992
2.53289
2.53162
2.52879
2.52486
2.52381
2.52633
2.52524
2.52538
2.52208
2.52508
2.52242
2.52247
2.52555
2.52024
2.52523
2.52688
2.52675
2.52628
2.52584
2.5238
2.52842
2.52776
2.5277
2.5297
2.53013
2.52937
2.53039
2.52693
2.52532
2.52715
2.52502
2.52739
2.52346
2.52642
2.52155
2.52335
2.52706
2.522
2.52732
2.52898
2.52649
2.5265
2.52629
2.52184
2.52953
2.52585
2.52743
2.52882
2.52824
2.5281
2.53069
2.52804
2.52759
2.52749
2.52438
2.5284
2.5243
2.52641
2.52055
2.52454
2.52979
2.52368
2.52641
2.52937
2.52604
2.52656
2.52549
2.52025
2.5266
2.5245
2.52714
2.52617
2.52682
2.52665
2.53013
2.52849
2.52822
2.52766
2.52439
2.52902
2.52538
2.52582
2.52082
2.52594
2.53284
2.52629
2.5244
2.52817
2.52536
2.52658
2.52515
2.52088
2.52321
2.52431
2.52681
2.52426
2.52444
2.5256
2.52907
2.52913
2.52901
2.52675
2.52523
2.52959
2.52657
2.5258
2.52313
2.52747
2.53498
2.53016
2.526
2.52776
2.52554
2.5268
2.52598
2.52147
2.52307
2.52453
2.52664
2.5229
2.52309
2.52495
2.52783
2.5296
2.52791
2.52682
2.52597
2.52996
2.52688
2.52576
2.52522
2.52746
2.53414
2.53087
2.52716
2.52776
2.52587
2.52663
2.52842
2.52148
2.52416
2.52501
2.52661
2.52245
2.52267
2.52519
2.52721
2.52987
2.52747
2.5264
2.52701
2.53016
2.52548
2.52567
2.52581
2.52704
2.53306
2.53061
2.52653
2.52723
2.52576
2.52652
2.53224
2.52362
2.52553
2.52583
2.52702
2.5221
2.52336
2.52626
2.5261
2.52941
2.52638
2.52472
2.52663
2.52925
2.52648
2.52529
2.52541
2.52638
2.53135
2.52994
2.52633
2.5264
2.52558
2.52625
2.53568
2.52663
2.52634
2.52675
2.52736
2.52317
2.52508
2.52799
2.52486
2.5277
2.52472
2.52367
2.52655
2.53088
2.5282
2.52507
2.52414
2.52471
2.52908
2.52784
2.52539
2.52529
2.52517
2.52551
2.53175
2.52715
2.52623
2.52666
2.52708
2.52686
2.52617
2.5289
2.52226
2.52495
2.52201
2.52237
2.52337
2.52863
2.52628
2.52338
2.52106
2.52227
2.5276
2.52672
2.52562
2.52415
2.5241
2.52377
2.52748
2.52505
2.52535
2.52516
2.52587
2.5272
2.52586
2.52737
2.51916
2.52206
2.51848
2.51842
2.51979
2.52542
2.52274
2.52139
2.51719
2.51965
2.52644
2.52567
2.52371
2.5226
2.52206
2.52124
2.52524
2.52204
2.52357
2.52288
2.52375
2.52411
2.52398
2.52509
2.51774
2.52029
2.51682
2.51711
2.5176
2.52341
2.51983
2.51939
2.51358
2.51725
2.52573
2.52447
2.52168
2.52043
2.51891
2.5184
2.52314
2.5195
2.52144
2.5199
2.52095
2.52133
2.52184
2.52264
2.5183
2.52003
2.5177
2.51671
2.5172
2.52176
2.51851
2.51782
2.51107
2.51463
2.52376
2.52201
2.51979
2.51745
2.51505
2.51522
2.51986
2.51716
2.5187
2.51684
2.51772
2.51896
2.51949
2.51986
2.52238
2.5209
2.51895
2.51864
2.51715
2.52071
2.51795
2.51713
2.5089
2.51215
2.52106
2.51948
2.51808
2.51384
2.51077
2.51148
2.51637
2.51536
2.51536
2.51371
2.51395
2.51704
2.51669
2.51685
2.52143
2.52224
2.5204
2.51897
2.51577
2.52071
2.51808
2.51607
2.50647
2.50919
2.51994
2.51834
2.51685
2.51025
2.50516
2.50674
2.51494
2.51435
2.51209
2.51012
2.5091
2.51532
2.51378
2.51297
2.52068
2.52377
2.52208
2.51872
2.51402
2.52184
2.51879
2.51488
2.50407
2.50476
2.52078
2.51892
2.51597
2.50763
2.49907
2.5005
2.51619
2.51406
2.50924
2.50534
2.50285
2.51454
2.51144
2.50871
2.52153
2.52587
2.52421
2.51935
2.51243
2.52392
2.52015
2.5138
2.50116
2.4985
2.52269
2.52097
2.51593
2.50567
2.4913
2.49091
2.51926
2.51507
2.50547
2.49853
2.49423
2.51479
2.50978
2.50505
2.5243
2.52884
2.52727
2.52122
2.51107
2.52685
2.52256
2.51286
2.4941
2.48611
2.52534
2.52393
2.51702
2.50317
2.48085
2.47391
2.52344
2.51688
2.50455
2.49226
2.48145
2.51723
2.51045
2.50014
2.5292
2.53277
2.53161
2.52495
2.5101
2.53028
2.52527
2.51195
2.48242
2.46148
2.52864
2.52758
2.51875
2.50024
2.46346
2.43749
2.52728
2.51931
2.5049
2.4826
2.45948
2.52073
2.51241
2.50041
2.53618
2.5377
2.53726
2.53058
2.51042
2.53414
2.52867
2.50794
2.45815
2.40362
2.53261
2.53159
2.5227
2.49566
2.43297
2.35679
2.53155
2.52409
2.50421
2.46831
2.42079
2.52697
2.51659
2.49733
2.54459
2.54367
2.54377
2.5385
2.51423
2.53907
2.53267
2.50003
2.42526
2.26439
2.53736
2.53602
2.52803
2.48832
2.38949
2.17602
2.53575
2.52971
2.50616
2.45083
2.3496
2.53336
2.52326
2.4989
2.55364
2.54988
2.55108
2.54661
2.52313
2.54383
2.53804
2.4882
2.39584
1.89603
2.54216
2.54022
2.53431
2.48185
2.34948
1.88803
-2.02162
2.5416
2.53655
2.51085
2.4329
2.19405
2.54045
2.52791
2.50356
2.56018
2.5545
2.55757
2.55213
2.5277
2.5461
2.53821
2.49671
2.38638
1.70636
0.0922913
2.54735
2.544
2.53554
2.49426
2.35047
1.88778
0.0433048
2.5504
2.54637
2.5222
2.44091
2.02927
2.54958
2.53553
2.51559
2.56217
2.55679
2.56029
2.55649
2.53089
2.55074
2.53421
2.50791
2.40953
1.92309
0.499329
2.55578
2.55127
2.5402
2.50783
2.40846
1.92717
0.463306
2.56142
2.55727
2.54028
2.48867
2.22389
0.715564
2.56003
2.54743
2.53795
2.56018
2.55312
2.55534
2.5545
2.5315
2.55668
2.5318
2.50483
2.44387
2.0189
0.485268
2.56407
2.56151
2.55067
2.5241
2.47198
2.06896
0.377809
2.57188
2.57008
2.56163
2.51791
2.30002
2.56732
2.5602
2.56037
2.55857
2.54236
2.55323
2.55393
2.54024
2.5586
2.54875
2.53125
2.50258
2.1937
2.57096
2.56949
2.56341
2.54684
2.53655
2.20456
-0.839219
2.57795
2.58031
2.57591
2.56126
2.51337
2.57401
2.57052
2.57532
2.56186
2.55443
2.561
2.56047
2.55286
2.56747
2.56672
2.56232
2.54327
2.48096
2.57673
2.57475
2.57261
2.57011
2.56906
2.49581
2.5785
2.58112
2.58075
2.5784
2.57901
2.57914
2.57619
2.58224
2.5671
2.57627
2.5725
2.56724
2.56128
2.58015
2.57674
2.56986
2.55585
2.55449
2.58239
2.5805
2.57729
2.57603
2.57324
2.56081
2.5799
2.58136
2.58134
2.57986
2.58423
2.5832
2.58027
2.58371
2.57196
2.58386
2.57905
2.5713
2.56676
2.58714
2.58341
2.57228
2.56442
2.57573
2.58667
2.58524
2.58147
2.5789
2.58003
2.57833
2.58365
2.58105
2.58152
2.58056
2.58637
2.58349
2.58226
2.58368
2.57616
2.58446
2.58089
2.57402
2.57195
2.58587
2.58056
2.5733
2.56801
2.58221
2.5858
2.58424
2.58005
2.5783
2.57937
2.58174
2.58269
2.5792
2.58046
2.58068
2.58576
2.58121
2.582
2.58369
2.57955
2.58454
2.58156
2.57668
2.57675
2.5839
2.57987
2.57458
2.57324
2.58471
2.58387
2.58245
2.57942
2.5776
2.57945
2.58366
2.58156
2.57823
2.58018
2.58175
2.58623
2.57805
2.58131
2.58379
2.58318
2.58519
2.58246
2.57934
2.58073
2.58286
2.5775
2.57474
2.57436
2.58591
2.58316
2.58177
2.57885
2.57739
2.57982
2.58472
2.58146
2.57866
2.58081
2.58257
2.58714
2.57986
2.58137
2.5847
2.58815
2.58637
2.58405
2.582
2.58394
2.58244
2.57858
2.57668
2.57872
2.58707
2.58312
2.58162
2.57846
2.57682
2.57923
2.58731
2.58161
2.58033
2.58111
2.5844
2.59007
2.5801
2.58264
2.58762
2.5917
2.58664
2.58531
2.58369
2.58577
2.58176
2.57886
2.57761
2.58033
2.58904
2.58341
2.58159
2.57878
2.57754
2.58092
2.5905
2.58182
2.58074
2.58226
2.58707
2.59486
2.58104
2.58456
2.59285
144.536
136.612
147.09
145.287
140.952
150.108
148.476
149.486
147.595
148.42
150.821
150.06
139.78
142.408
143.035
135.694
135.932
142.828
144.573
131.024
134.83
151.479
150.485
138.291
148.218
150.442
143.121
139.301
138.025
139.553
131.578
135.157
128.154
123.081
115.97
112.406
115.889
115.249
120.187
118.765
122.572
127.509
136.755
125.165
133.477
143.452
140.337
141.2
129.754
149.043
155.002
144.031
123.679
152.759
123.617
108.481
123.77
106.184
121.034
120.218
123.223
115.885
119.647
125.524
133.417
125.173
132.095
141.098
139.068
135.824
153.311
159.751
127.765
154.807
152.993
106.321
115.539
122.04
117.547
115.403
122.426
118.982
127.038
129.413
141.902
149.055
151.653
144.465
151.732
153.574
145.186
152.38
140.42
148.419
148.889
156.375
114.62
99.4868
115.799
118.27
119.963
102.274
99.9389
100.896
121.616
121.795
100.994
99.6767
101.876
121.047
102.181
107.263
94.1862
114.516
110.174
111.771
97.066
98.1698
96.0078
97.6035
121.724
117.516
121.927
101.824
102.499
104.66
103.983
121.555
101.008
106.124
97.643
103.549
92.4214
88.8103
90.6619
122.362
118.282
103.522
108.553
103.07
100.708
99.8062
87.8813
88.6378
87.9571
116.68
117.187
107.551
104.348
106.354
100.986
88.7055
97.3915
103.767
101.855
89.6579
91.8224
90.2777
91.2998
115.422
111.234
113.372
106.207
102.211
98.6902
97.1706
101.998
105.24
91.8222
105.002
104.331
92.9608
94.4385
92.7695
109.492
106.353
95.8211
95.7333
93.2567
95.9577
86.305
57.8996
86.6119
85.0121
86.5306
67.2323
61.8697
66.9334
85.4974
84.3289
67.031
66.0697
60.8642
82.2696
52.6141
85.5066
61.5493
86.0173
86.0144
87.149
56.296
60.0197
61.3822
66.6048
76.8287
84.4508
75.2052
51.7766
35.6286
51.7252
33.3737
68.7311
26.9267
85.3705
85.886
86.088
68.7905
78.3162
76.6008
69.8572
66.8835
28.0143
31.5943
32.5457
86.5157
86.3003
83.1039
82.6819
84.3285
70.6909
81.1411
39.1065
36.0503
47.5522
86.3079
84.3302
88.2566
86.392
87.1495
85.1959
86.8408
84.1703
85.2105
86.9454
89.922
87.0032
66.5365
61.8514
74.4684
68.7602
53.3611
86.9754
83.0491
89.3249
88.9552
81.6654
82.953
83.5467
89.7017
89.4925
83.9693
81.3047
84.7212
76.5715
4.0604
2.14345
9.10265
7.24727
11.3867
2.04918
1.96215
2.19363
12.7584
8.44731
2.13566
2.27912
2.07101
4.15149
2.10961
4.90185
2.03834
5.82311
5.9615
8.93701
2.02411
1.96958
1.97327
1.98614
2.55979
3.6681
2.64675
2.01879
2.10884
1.86799
2.08791
2.51594
2.05857
14.1117
38.3284
37.1139
2.21819
2.6593
2.84202
2.6447
3.48172
1.87712
1.91232
1.85256
62.5912
68.4803
3.08491
3.40677
4.36399
3.63372
4.88593
1.87786
1.82072
1.7119
69.8186
3.76779
74.7749
68.0615
70.4551
6.87455
11.8946
3.65185
5.03741
8.76258
23.0684
10.5576
2.36522
2.04713
2.47935
1.95501
1.78059
65.0853
3.53942
59.1133
60.77
5.0642
4.77257
3.82699
44.9057
60.3737
3.75395
2.91705
3.61551
2.57004
2.5056
2.34575
2.42976
2.49263
2.41807
2.43152
2.39461
2.42348
2.41556
2.47623
2.44148
2.43888
2.40329
2.51636
2.3758
2.43751
2.43307
2.50867
2.47076
2.4383
2.37723
2.38822
2.40816
2.43298
2.48934
2.53732
2.49591
2.38769
2.3435
2.36503
2.32014
2.48171
2.2791
2.27507
1.90424
1.98045
2.46114
2.63939
2.60648
2.49813
2.52618
2.299
2.28177
2.3321
1.68721
1.53839
2.79489
2.78891
2.86737
2.47994
2.49532
2.23423
2.30764
2.29607
1.4785
2.85701
1.81076
1.53874
1.66657
2.79781
2.73885
2.77098
2.75869
2.32071
2.17388
2.25853
2.37708
2.32786
2.42274
2.38138
2.346
1.66062
2.75098
1.91653
1.77491
2.6137
2.55608
2.60794
1.96051
1.81223
2.54433
2.56019
2.57745
2.50201
2.48518
2.44341
2.43692
2.43115
2.43763
2.44544
2.43629
2.44328
2.43896
2.43317
2.44266
2.44059
2.43174
2.45716
2.42313
2.44229
2.44837
2.44459
2.43739
2.44258
2.44027
2.44359
2.44532
2.45084
2.44753
2.42917
2.43143
2.41186
2.40488
2.39412
2.36743
2.43656
2.37584
2.42793
2.44193
2.41613
2.45426
2.48106
2.4789
2.41522
2.40179
2.39267
2.38981
2.26856
2.46058
2.49922
2.52041
2.51624
2.52875
2.42116
2.40326
2.37292
2.26729
2.40055
2.51467
2.54406
2.59436
2.51538
2.49707
2.57131
2.58217
2.59497
2.59919
2.40472
2.40851
2.43186
2.37721
2.41872
2.41704
2.43833
2.41951
2.49649
2.58403
2.47842
2.56898
2.56144
2.58661
2.61006
2.46184
2.51322
2.5448
2.52095
2.5583
2.47374
2.45029
2.45219
2.44846
2.44012
2.44716
2.45192
2.44383
2.44993
2.44389
2.43862
2.45013
2.44818
2.43925
2.43975
2.42726
2.4582
2.46358
2.45033
2.45124
2.45113
2.45287
2.45095
2.45457
2.44838
2.45128
2.41238
2.44456
2.42111
2.42223
2.40354
2.4032
2.43519
2.4037
2.46822
2.49724
2.48607
2.47442
2.4957
2.48813
2.44916
2.41925
2.48433
2.42574
2.45359
2.41326
2.44452
2.47062
2.46399
2.46755
2.46049
2.46876
2.46549
2.46509
2.52653
2.54707
2.52218
2.51762
2.53591
2.51051
2.42967
2.45471
2.42251
2.45768
2.43779
2.46138
2.47005
2.46248
2.47183
2.46868
2.46834
2.46376
2.4703
2.55871
2.54958
2.557
2.54812
2.54305
2.54146
2.53568
2.54137
2.54326
2.44621
2.43857
2.45349
2.42203
2.44179
2.44138
2.4515
2.4345
2.54455
2.53894
2.55086
2.56388
2.53009
2.5417
2.55216
2.50074
2.51987
2.50764
2.50135
2.5145
2.47303
2.45053
2.44922
2.45497
2.44625
2.45051
2.4566
2.44864
2.45027
2.45365
2.44471
2.45927
2.45764
2.45089
2.44435
2.44186
2.46648
2.46716
2.44952
2.45643
2.44544
2.45142
2.44693
2.45584
2.44272
2.44884
2.42356
2.45246
2.43748
2.43941
2.43072
2.43461
2.43771
2.45848
2.4292
2.45576
2.45839
2.46989
2.45379
2.4691
2.47875
2.4959
2.49111
2.4802
2.49486
2.49153
2.46236
2.43627
2.45916
2.44424
2.45518
2.43989
2.45958
2.46647
2.45877
2.46418
2.44776
2.46285
2.45268
2.46253
2.51603
2.5272
2.51147
2.51135
2.52066
2.46975
2.45147
2.46758
2.45425
2.47135
2.45651
2.46745
2.46469
2.45998
2.46775
2.45655
2.46403
2.45713
2.46694
2.53478
2.52078
2.51386
2.52542
2.52146
2.51586
2.49462
2.51354
2.50651
2.45981
2.45923
2.46754
2.45391
2.46838
2.46933
2.47329
2.46872
2.46246
2.47554
2.46882
2.45559
2.47029
2.52035
2.50867
2.52802
2.53372
2.50491
2.51305
2.51596
2.50309
2.50936
2.49651
2.50266
2.50316
2.48584
2.44778
2.4466
2.45779
2.45178
2.45041
2.45938
2.45483
2.45208
2.4618
2.45838
2.46651
2.46579
2.4646
2.45368
2.45959
2.46531
2.46348
2.44307
2.45568
2.44102
2.44777
2.44108
2.45537
2.44132
2.4578
2.44455
2.45946
2.46021
2.45987
2.45633
2.45981
2.44649
2.45809
2.44337
2.4645
2.45416
2.47012
2.46176
2.47604
2.47891
2.49069
2.48814
2.47613
2.48724
2.48497
2.46254
2.44878
2.46317
2.45987
2.4691
2.45649
2.4694
2.46625
2.45312
2.46445
2.46099
2.47318
2.46281
2.47146
2.50308
2.50755
2.49634
2.49496
2.49703
2.4763
2.46737
2.47629
2.47267
2.4835
2.47602
2.48371
2.46615
2.4599
2.46895
2.46659
2.47638
2.46736
2.47487
2.5076
2.49825
2.47872
2.50395
2.4924
2.49744
2.4708
2.4968
2.48416
2.47883
2.47961
2.48557
2.48086
2.48904
2.48843
2.49447
2.48077
2.48352
2.48896
2.47226
2.46794
2.47871
2.49604
2.48971
2.50252
2.50602
2.48879
2.49788
2.50124
2.50406
2.50203
2.49794
2.50504
2.50276
2.49665
2.44848
2.45349
2.46348
2.45825
2.45744
2.47119
2.46117
2.46641
2.47011
2.46982
2.47577
2.47498
2.47539
2.46633
2.47283
2.46438
2.46755
2.44145
2.45617
2.44428
2.45342
2.44668
2.4586
2.45
2.47107
2.46708
2.46778
2.47675
2.47795
2.47593
2.4779
2.46465
2.47199
2.47464
2.4863
2.48304
2.47598
2.48697
2.48323
2.48405
2.46842
2.48503
2.47119
2.48755
2.47771
2.49157
2.4798
2.47399
2.47838
2.48187
2.48233
2.49385
2.48316
2.49009
2.49094
2.49253
2.48897
2.49196
2.49369
2.48699
2.49554
2.48981
2.49758
2.4892
2.50064
2.48208
2.46659
2.47949
2.49816
2.4906
2.48032
2.4805
2.49411
2.49441
2.47208
2.49592
2.4845
2.4941
2.47919
2.49702
2.48671
2.49831
2.4949
2.5029
2.50223
2.50507
2.50153
2.50949
2.49982
2.48979
2.49276
2.4989
2.50176
2.49611
2.50162
2.50407
2.5081
2.50638
2.50629
2.5119
2.51006
2.50695
2.46093
2.47054
2.48038
2.46656
2.47698
2.48946
2.47472
2.48653
2.48075
2.48223
2.48961
2.48757
2.4882
2.47971
2.48596
2.47304
2.48027
2.45436
2.46402
2.4582
2.4696
2.46414
2.47143
2.46622
2.48484
2.48421
2.48401
2.48704
2.4916
2.49418
2.4929
2.48305
2.49296
2.48005
2.49014
2.48582
2.48568
2.49448
2.49048
2.48918
2.51736
2.48556
2.48951
2.45957
2.49271
2.49732
2.50033
2.49833
2.50312
2.52817
2.49124
2.49405
2.46341
2.49785
2.49834
2.50308
2.48902
2.50129
2.49306
2.50477
2.49806
2.50567
2.49881
2.50964
2.50818
2.51452
2.52185
2.51454
2.51434
2.518
2.5128
2.4981
2.50411
2.5062
2.50796
2.5077
2.51041
2.5118
2.51593
2.51378
2.51357
2.52064
2.51778
2.51806
2.48143
2.49218
2.49755
2.48494
2.49512
2.50399
2.49557
2.50427
2.49517
2.49467
2.50477
2.50317
2.50323
2.49236
2.49899
2.48867
2.49763
2.4755
2.48002
2.47436
2.49049
2.48677
2.48846
2.4826
2.49777
2.50174
2.50145
2.49804
2.50314
2.50638
2.50826
2.50111
2.50703
2.49218
2.49965
2.49641
2.49859
2.50539
2.50267
2.49773
2.49893
2.50123
2.50385
2.50563
2.50359
2.50774
2.50907
2.5084
2.51129
2.50183
2.50537
2.50591
2.51102
2.51155
2.50726
2.51084
2.50487
2.51012
2.50604
2.5127
2.50924
2.51413
2.51122
2.51855
2.52077
2.521
2.5331
2.52145
2.52465
2.52328
2.51922
2.50918
2.51365
2.51398
2.51554
2.51753
2.51762
2.51912
2.52469
2.52226
2.52188
2.52795
2.52634
2.52592
2.50277
2.5125
2.50966
2.50613
2.51073
2.5141
2.51717
2.51529
2.50992
2.51069
2.51395
2.51382
2.52024
2.50498
2.51145
2.50453
2.50815
2.4969
2.49632
2.49086
2.50782
2.50564
2.50346
2.49894
2.50835
2.50611
2.51332
2.50496
2.51346
2.50906
2.51888
2.51147
2.51534
2.50418
2.51105
2.50859
2.50793
2.51541
2.51315
2.50866
2.51043
2.51143
2.5125
2.5146
2.513
2.51457
2.51664
2.51697
2.51745
2.51586
2.51644
2.51474
2.52124
2.52005
2.51442
2.51775
2.51264
2.51765
2.51478
2.51938
2.51629
2.5204
2.51747
2.52297
2.52735
2.5253
2.53043
2.52403
2.52893
2.52633
2.52293
2.51721
2.52042
2.52138
2.52281
2.52482
2.52489
2.52614
2.52982
2.53077
2.52562
2.53101
2.53176
2.52896
2.52115
2.5288
2.5194
2.52591
2.52086
2.52575
2.53462
2.5251
2.51629
2.52711
2.52169
2.51949
2.52792
2.51865
2.52304
2.51083
2.51374
2.51273
2.50931
2.50709
2.51642
2.51972
2.51271
2.51564
2.51812
2.51491
2.52349
2.5173
2.52089
2.52246
2.52673
2.51897
2.52193
2.51019
2.51807
2.51613
2.51144
2.51964
2.51797
2.51607
2.51813
2.51753
2.51885
2.52085
2.51998
2.51953
2.52141
2.52191
2.52114
2.52406
2.52313
2.51956
2.52636
2.52543
2.52062
2.52304
2.51931
2.52228
2.51898
2.52437
2.5218
2.52361
2.52048
2.52469
2.5287
2.52628
2.52722
2.52511
2.52779
2.52599
2.52563
2.52298
2.52536
2.52789
2.52859
2.52863
2.52978
2.53014
2.53318
2.5298
2.5249
2.53436
2.52775
2.52809
2.533
2.53581
2.53229
2.54323
2.53023
2.53806
2.55628
2.53694
2.52411
2.5261
2.53603
2.52887
2.52358
2.52451
2.52504
2.51595
2.51633
2.52533
2.51359
2.5206
2.52046
2.52735
2.5136
2.5203
2.52289
2.52616
2.52751
2.52528
2.52458
2.52883
2.52814
2.52372
2.52495
2.51307
2.52053
2.5191
2.51428
2.52117
2.51991
2.52087
2.52286
2.52092
2.52181
2.52408
2.52282
2.52266
2.52364
2.52284
2.52405
2.52709
2.52679
2.52222
2.52781
2.52726
2.52484
2.52592
2.52441
2.52483
2.52204
2.5267
2.5261
2.52601
2.52398
2.5258
2.52614
2.52498
2.52461
2.52692
2.52528
2.52372
2.52658
2.52754
2.52982
2.53153
2.53146
2.53208
2.53264
2.53256
2.53362
2.52753
2.52628
2.53264
2.5286
2.52658
2.5366
2.53363
2.54152
2.56296
2.54147
2.54146
2.5521
2.54222
2.53113
2.52095
2.53799
2.5298
2.5216
2.52609
2.52798
2.51646
2.5166
2.52682
2.51404
2.5174
2.52236
2.52533
2.51341
2.51427
2.52656
2.53007
2.52839
2.531
2.52826
2.53188
2.52841
2.52579
2.5261
2.51501
2.52131
2.52012
2.51534
2.52107
2.51993
2.5223
2.52456
2.52267
2.52243
2.52415
2.52231
2.5251
2.52418
2.52185
2.52589
2.52754
2.52696
2.52326
2.52759
2.52706
2.52659
2.52695
2.52657
2.52701
2.52587
2.52697
2.5271
2.52765
2.52702
2.52793
2.52553
2.52787
2.52427
2.52718
2.52799
2.53205
2.52654
2.5316
2.53335
2.53393
2.53359
2.53867
2.53495
2.53476
2.53137
2.53
2.53171
2.53026
2.53176
2.52796
2.52969
2.52636
2.54059
2.53896
2.54727
2.54092
2.53179
2.55137
2.52745
2.52669
2.5285
2.52465
2.53236
2.53031
2.53185
2.51677
2.51685
2.52361
2.51286
2.51178
2.52134
2.52187
2.51257
2.51008
2.5288
2.53095
2.52748
2.53084
2.52817
2.52814
2.52565
2.52594
2.52478
2.51558
2.52069
2.51935
2.51594
2.52065
2.51901
2.52218
2.52356
2.52327
2.52318
2.524
2.52174
2.52635
2.52508
2.52203
2.52639
2.52773
2.52708
2.52423
2.52692
2.52762
2.52704
2.52707
2.52675
2.52751
2.52627
2.52536
2.52631
2.52624
2.52447
2.52716
2.52824
2.53133
2.52486
2.52837
2.52689
2.52929
2.52681
2.53246
2.52975
2.53517
2.53563
2.54288
2.53159
2.53408
2.52927
2.53422
2.53732
2.52796
2.53538
2.52731
2.52303
2.52004
2.53222
2.52842
2.54226
2.53064
2.5254
2.52916
2.5252
2.53559
2.52615
2.5269
2.53564
2.53155
2.52963
2.5163
2.51557
2.51985
2.51225
2.50826
2.51835
2.51719
2.51169
2.50625
2.52597
2.52238
2.52168
2.52556
2.52238
2.51539
2.51591
2.52197
2.51818
2.5164
2.52084
2.51924
2.51679
2.52125
2.52002
2.5234
2.5233
2.52
2.52188
2.52203
2.5227
2.52594
2.52624
2.52342
2.52523
2.52817
2.52702
2.52684
2.52933
2.52609
2.52696
2.52644
2.5251
2.52378
2.52195
2.52188
2.52291
2.52045
2.5191
2.52873
2.52468
2.52724
2.52424
2.52814
2.52232
2.52548
2.52556
2.52644
2.52317
2.5248
2.52981
2.53738
2.5184
2.5241
2.52425
2.53419
2.52781
2.51922
2.52885
2.52242
2.51732
2.51525
2.5396
2.52277
2.5271
2.53997
2.52003
2.52666
2.53011
2.53315
2.54244
2.53045
2.52815
2.52651
2.52213
2.51476
2.51379
2.51424
2.51068
2.50499
2.51493
2.51185
2.50954
2.50418
2.51776
2.50749
2.50988
2.51583
2.51303
2.49857
2.50413
2.51355
2.50901
2.51712
2.52138
2.52095
2.51735
2.52131
2.52174
2.51929
2.51953
2.51469
2.51657
2.51632
2.52395
2.52422
2.52637
2.52406
2.52293
2.52735
2.52389
2.52325
2.52359
2.52117
2.52464
2.5214
2.52047
2.51733
2.51635
2.51655
2.51586
2.51346
2.51206
2.52604
2.52065
2.52373
2.52074
2.52381
2.51871
2.52182
2.52196
2.51956
2.51678
2.51302
2.51816
2.53908
2.5118
2.51526
2.51433
2.5214
2.50898
2.50783
2.51351
2.51525
2.51363
2.51289
2.52871
2.5164
2.52073
2.51865
2.51335
2.51548
2.52378
2.52189
2.52106
2.51662
2.51629
2.51722
2.51331
2.51336
2.51332
2.51034
2.50903
2.50392
2.51424
2.51016
2.50972
2.5044
2.50985
2.49245
2.50163
2.50689
2.50725
2.49107
2.50041
2.50653
2.50537
2.51733
2.52099
2.52169
2.51695
2.52063
2.52039
2.51361
2.51371
2.50935
2.51124
2.51154
2.52429
2.52165
2.52575
2.52492
2.52035
2.51982
2.51788
2.51709
2.5167
2.51532
2.51798
2.51559
2.51166
2.50978
2.50837
2.50778
2.50741
2.50707
2.50532
2.52136
2.51677
2.51993
2.51748
2.51926
2.51534
2.51828
2.51764
2.51433
2.51351
2.5172
2.51842
2.52845
2.52815
2.5238
2.50325
2.50691
2.50229
2.50235
2.50413
2.51028
2.51331
2.51464
2.51384
2.51176
2.51171
2.51215
2.5117
2.50986
2.51162
2.51236
2.5112
2.50909
2.5106
2.51224
2.51342
2.51368
2.51491
2.51144
2.51157
2.50593
2.51652
2.51362
2.51416
2.50839
2.50697
2.49633
2.50158
2.50955
2.50803
2.50493
2.50441
2.50593
2.50803
2.51605
2.51878
2.51829
2.51515
2.51661
2.51644
2.50957
2.51115
2.50931
2.50893
2.51146
2.52442
2.5188
2.52192
2.52228
2.51727
2.51456
2.51351
2.51389
2.51349
2.51267
2.5135
2.51289
2.50177
2.50695
2.50445
2.50806
2.49912
2.50904
2.50699
2.51705
2.5145
2.51677
2.51551
2.51495
2.51474
2.5156
2.51453
2.51245
2.51258
2.53287
2.52911
2.51373
2.53412
2.53069
2.50448
2.50821
2.51042
2.50985
2.51196
2.51426
2.51654
2.51883
2.5125