/*--------------------------------*- C++ -*----------------------------------*\
| =========                 |                                                 |
| \\      /  F ield         | OpenFOAM: The Open Source CFD Toolbox           |
|  \\    /   O peration     | Version:  5.x                                   |
|   \\  /    A nd           | Web:      www.OpenFOAM.org                      |
|    \\/     M anipulation  |                                                 |
\*---------------------------------------------------------------------------*/
FoamFile
{
    version     2.0;
    format      ascii;
    class       volVectorField;
    location    "10";
    object      U;
}
// * * * * * * * * * * * * * * * * * * * * * * * * * * * * * * * * * * * * * //

dimensions      [0 1 -1 0 0 0 0];

internalField   nonuniform List<vector> 
10571
(
(-0.0208612 0.192884 1.18496)
(-0.0134341 0.0453455 0.461594)
(0.00748948 0.128623 0.904295)
(-0.0304978 0.155494 1.05675)
(-0.0523984 0.0501865 0.686036)
(-0.0217228 0.103669 0.849997)
(-0.0336705 0.211158 1.20171)
(-0.33225 -0.0940635 1.54925)
(-0.312867 -7.56769e-05 1.23306)
(-0.0862653 -0.00210703 0.950842)
(0.169751 0.19958 1.41183)
(-0.0151198 0.0669646 0.82829)
(-0.672133 0.757404 1.50857)
(-0.56442 0.177653 1.2173)
(-0.38723 0.196411 1.12164)
(0.0559831 0.0844241 0.878598)
(0.0346434 -0.0204434 0.524099)
(-0.521911 0.0310166 1.46626)
(-0.718629 0.462258 1.3631)
(-0.147252 0.179749 1.11382)
(-0.0713324 0.0176794 0.643275)
(0.00148481 -0.0879924 0.552127)
(-0.0648753 -0.0406983 0.860894)
(-0.0301404 -0.038619 0.409909)
(0.0398326 0.0190217 0.905595)
(-0.00117587 0.0115542 0.402463)
(-0.0416851 -0.0271964 0.890898)
(0.045337 -0.0931279 1.1626)
(0.100325 0.0123824 0.639235)
(-0.019235 -0.0072182 0.827298)
(0.0906791 0.0125586 0.429484)
(0.0930584 0.097056 0.410937)
(0.0171685 0.0415219 0.394619)
(-0.127092 -0.00449879 0.710111)
(0.055824 -0.0819161 1.21037)
(-0.1409 0.0235284 0.878955)
(0.155148 -0.0445746 0.548675)
(0.0951674 -0.0598999 0.410013)
(-0.01687 -0.0943274 0.410619)
(-0.0272164 -0.0621472 0.535919)
(-0.229399 0.0374318 0.700752)
(0.00762079 0.0151224 0.79871)
(0.0602066 -0.124925 0.568364)
(0.037251 -0.25978 0.689403)
(0.0508152 -0.0508617 0.694471)
(-0.095711 0.0336191 0.67303)
(-0.00491845 -0.0211743 0.902229)
(0.0257484 0.0220109 0.716944)
(-0.00718539 -0.0181451 0.415825)
(-0.00959959 -0.0143209 0.327182)
(-0.0444507 -0.0061375 0.467158)
(0.0324867 0.00560621 0.538109)
(0.0567203 0.0176885 0.344125)
(0.000706558 -0.157176 0.463005)
(0.172638 0.0665264 0.939817)
(0.0208165 0.108412 1.00662)
(-0.00243427 0.0138256 0.958257)
(-0.00491483 -0.000373835 0.491356)
(-0.036736 -0.169206 0.614696)
(0.00115506 -0.162237 0.745932)
(0.233088 -0.0238145 0.504765)
(0.035295 -0.0307139 0.700132)
(-0.00500059 -0.0761433 0.714691)
(-0.00215422 -0.0214955 0.293651)
(-0.0287342 0.034783 0.941191)
(0.154801 -0.119149 0.390706)
(0.0110231 -0.112835 0.359834)
(0.0127716 -0.0791355 0.419489)
(0.0431251 -0.0195688 0.472279)
(0.0514169 -0.242751 0.808214)
(0.109905 -0.205337 0.634349)
(0.115434 -0.0401537 0.453566)
(0.00336512 0.00464608 0.319607)
(0.0176813 0.0530318 -0.0360139)
(0.075532 0.0961781 0.272534)
(-0.0399394 0.0716216 0.3821)
(-0.0414625 0.0756436 0.125384)
(0.0402283 0.265353 0.448501)
(0.285277 0.493002 1.10317)
(-0.140886 0.244171 0.987555)
(-0.207087 0.202881 0.629173)
(0.00804364 0.129528 0.288628)
(-0.0197506 0.299166 1.21041)
(0.0155733 0.189502 1.042)
(0.303618 0.131089 1.23471)
(-0.259576 0.149249 0.842096)
(-0.197543 -0.121168 0.670348)
(-0.0704182 0.0462517 -0.0398203)
(-0.0462903 0.0248783 1.21366)
(0.166721 -0.202528 1.39369)
(-0.305687 -0.185787 0.993787)
(-0.280271 -0.0582201 0.29656)
(0.00181947 0.0381023 0.319897)
(-0.0652128 -0.0436924 1.03208)
(-0.0490255 0.0244529 0.792668)
(-0.147855 0.0658819 0.675659)
(-0.00949192 0.00340239 0.24854)
(0.0338976 -0.022671 0.0570931)
(0.0614021 0.0652489 0.171148)
(-0.0272694 0.0587341 0.209269)
(-0.0982983 0.0509943 -0.0567698)
(0.068908 0.0208861 0.154076)
(0.146906 0.195823 0.675855)
(-0.0443954 0.0873191 0.705237)
(-0.062704 0.122204 0.466231)
(-0.0480088 0.104273 0.249401)
(0.0219434 0.0518697 0.647048)
(0.0672661 0.0257109 0.422342)
(0.193911 0.095397 0.719609)
(-0.0301993 0.130921 0.652618)
(0.0173848 -0.0188045 0.387526)
(-0.0917454 -0.0149611 -0.0623849)
(0.0618476 0.0134421 0.48324)
(0.176881 -0.0728286 0.788072)
(-0.114803 -0.0519194 0.574978)
(-0.00992639 0.0202545 -0.0640338)
(-0.0270577 0.0101137 0.219449)
(0.266361 -0.0314705 0.247589)
(0.0729164 -0.05135 0.0981125)
(0.0391205 -0.0615185 0.180282)
(-0.0179446 -0.00169611 0.253351)
(0.0638158 -0.0535182 0.0790518)
(0.0852843 0.0494113 0.190287)
(-0.0249089 0.0487089 0.267043)
(-0.0974846 -0.00498723 -0.0363155)
(0.0827003 -0.0735133 0.197241)
(0.113167 0.122072 0.797134)
(-0.0327246 0.0260366 0.78904)
(0.00922639 0.0551199 0.529624)
(-0.0561751 0.0205033 0.1197)
(-0.130556 0.0261137 0.00436831)
(0.0246537 -0.0617806 0.401699)
(0.0902629 -0.0966134 0.329446)
(0.182566 0.0755919 0.95383)
(0.0123837 0.11514 0.810815)
(0.0830686 0.011058 0.498406)
(-0.0308825 -0.0391388 0.0821209)
(0.103591 0.0147079 0.0969951)
(0.0818599 -0.0211466 0.336428)
(0.20109 -0.0994078 0.899419)
(-0.0724798 -0.0277665 0.69118)
(0.121928 0.0508526 0.178257)
(0.056846 0.0267794 0.0351636)
(0.145819 0.159099 0.25766)
(0.105133 0.0521569 0.204167)
(0.102055 0.000443456 0.0238582)
(0.00637768 -0.0038882 0.320861)
(0.0827918 -0.0771645 0.0764018)
(0.114155 -0.0535097 0.222424)
(-0.00901592 0.0113785 0.350319)
(-0.0576609 -0.0236737 -0.000269235)
(0.1072 -0.0961481 0.207983)
(0.0884242 0.070156 0.770266)
(-0.0206555 -0.0237214 0.764985)
(0.0325335 0.00717607 0.522321)
(-0.0788348 -0.00450704 0.0668158)
(-0.0893999 0.0188262 -0.00669319)
(0.00883779 -0.0541129 0.26174)
(0.115626 -0.109672 0.350217)
(0.143218 0.0608814 0.995141)
(0.0525914 0.0711403 0.840622)
(0.104125 0.0434237 0.516163)
(-0.00452208 -0.0126797 0.201281)
(0.00753875 -0.0321482 0.113715)
(0.14406 0.0563003 0.240777)
(0.196049 -0.114774 0.886075)
(-0.00586269 -0.00595987 0.726938)
(0.104013 0.0555401 0.303598)
(0.0538171 0.0237236 0.113537)
(-0.0172791 -0.0320609 -0.0468975)
(0.0707874 0.0841641 0.228694)
(0.0734878 0.0312232 0.27822)
(0.071489 -0.00345541 0.0432245)
(0.01569 -0.00232654 0.427732)
(0.00664319 -0.0095865 0.0712609)
(0.0761875 -0.130871 0.260569)
(-0.0180691 -0.0191528 0.426851)
(-0.0223231 -0.0240985 0.0476799)
(0.115536 -0.0977702 0.130206)
(0.0056628 0.0037853 0.72067)
(-0.0312453 -0.0635731 0.686876)
(0.0256972 -0.051597 0.473863)
(-0.0230526 0.013007 0.100332)
(-0.0360282 -0.0641599 -0.00170135)
(0.011601 0.0111267 0.143356)
(0.129259 -0.054529 0.338553)
(0.0857708 0.0550526 0.974059)
(0.0655902 0.0625675 0.813874)
(0.104288 0.0559663 0.50982)
(0.0342856 -0.0393551 0.279608)
(0.0801808 -0.0446125 0.156403)
(0.116447 0.0550456 0.160062)
(0.164954 -0.0853876 0.859756)
(0.0144917 0.00918115 0.716772)
(0.0878514 0.0446157 0.354304)
(0.0513824 -0.000172753 0.155682)
(0.0734849 -0.0280002 -0.0404274)
(0.0469693 0.0638274 0.203712)
(0.0205741 0.0508306 0.353787)
(0.0324882 0.0063303 0.0841485)
(-0.0346377 -0.000889051 0.501106)
(-0.0527833 0.0444299 0.0549734)
(0.00592284 -0.149052 0.30874)
(-0.0365083 -0.0419555 0.494833)
(-0.00383898 -0.0139868 0.118982)
(0.0385033 -0.0226775 0.0825656)
(-0.0196106 -0.0608323 0.688902)
(-0.0477246 -0.0946561 0.618651)
(0.0010014 -0.0904221 0.409066)
(-0.0474984 -0.0370428 0.108201)
(0.0196655 -0.12602 -0.0688313)
(0.0133366 0.0465422 0.0975072)
(0.0982589 0.0279358 0.315403)
(0.0243585 0.0377709 0.944054)
(0.0501049 0.0333526 0.754692)
(0.0913279 0.042216 0.486205)
(0.0498427 -0.076494 0.327226)
(0.106951 -0.0534797 0.133356)
(0.0567787 0.0586698 0.124106)
(0.101542 -0.0460127 0.80718)
(0.0310606 -0.00965583 0.708612)
(0.0882368 0.0389446 0.363909)
(0.0355948 -0.0319452 0.210395)
(0.0377976 0.073102 0.215926)
(-0.00566102 0.0662833 0.41083)
(0.0183171 0.0140026 0.144165)
(-0.0482787 -0.0028436 0.51459)
(-0.0916158 0.0803834 0.0493407)
(-0.0614423 -0.116618 0.357948)
(-0.0212054 -0.0588059 0.549201)
(0.0115494 0.00590468 0.178975)
(-0.0391491 0.0511301 0.0880541)
(0.0168607 -0.126191 0.664645)
(-0.0383178 -0.112249 0.589616)
(-0.00116318 -0.0770184 0.374609)
(-0.115521 -0.0848401 0.146178)
(0.00891391 0.0609998 0.124103)
(0.0270907 -0.0197822 0.271249)
(0.00559334 0.0210952 0.888376)
(0.0490525 -0.0242651 0.71489)
(0.083328 -0.00324316 0.444368)
(0.00182741 -0.0539398 0.337548)
(0.0201535 0.0542596 0.144983)
(0.0397836 -0.0493444 0.752695)
(0.0789576 -0.0246985 0.670485)
(0.0869869 0.0374529 0.346574)
(0.0300575 -0.0330248 0.293332)
(0.0226351 0.0747461 0.266105)
(-0.00553908 0.0699625 0.442054)
(0.0233777 0.0207792 0.220228)
(-0.0420252 -0.00336616 0.509617)
(-0.114215 0.101269 0.0613362)
(-0.0776909 -0.0326414 0.416274)
(-0.0169027 -0.0875147 0.605705)
(0.035503 0.0423841 0.199722)
(-0.0853423 0.103416 0.108257)
(0.0478456 -0.170871 0.602194)
(-0.0144837 -0.113675 0.583187)
(0.0155124 -0.0485537 0.393348)
(-0.0582006 -0.0688014 0.17435)
(0.00469592 0.0721639 0.180736)
(0.011196 0.0256491 0.227192)
(0.0171675 -0.0155362 0.833011)
(0.0665431 -0.075967 0.670758)
(0.0955745 -0.0247299 0.437579)
(0.0580441 -0.0616185 0.359385)
(0.0120976 0.0295143 0.176201)
(0.00354704 -0.0500814 0.693745)
(0.0864082 -0.0119574 0.603632)
(0.0575801 0.0310876 0.329228)
(0.0127133 -0.03153 0.329522)
(0.00423382 0.0700968 0.326688)
(-0.0108122 0.0748571 0.451054)
(0.0257582 0.0303657 0.303679)
(-0.0436885 0.000839533 0.491195)
(-0.114751 0.101944 0.0898462)
(-0.0858861 0.0455745 0.465815)
(-0.0109671 -0.0920738 0.693423)
(0.0365758 0.0771762 0.176976)
(-0.111999 0.138344 0.147756)
(0.0447846 -0.155854 0.526114)
(-0.00657173 -0.0968665 0.586391)
(0.0390691 0.0189256 0.424185)
(-0.0372214 -0.0680367 0.230153)
(0.000541647 0.0678861 0.24647)
(-0.00751489 0.0930251 0.22328)
(0.0517358 -0.0690675 0.75796)
(0.0732568 -0.0913315 0.617365)
(0.105634 -0.0225976 0.443744)
(0.0662367 -0.0482503 0.371393)
(0.000784116 0.0169114 0.207354)
(-0.00544037 -0.0197171 0.62367)
(0.0270785 -0.0137078 0.513769)
(0.0188029 -0.0154263 0.334613)
(-0.0056337 -0.0108513 0.34363)
(-0.00804225 0.0689235 0.384579)
(-0.0253987 0.069781 0.449448)
(0.0360331 0.0115709 0.353194)
(-0.0497496 -0.00433315 0.457979)
(-0.0903934 0.0787086 0.130802)
(-0.117878 0.0273313 0.462467)
(-0.0542355 -0.0358704 0.792892)
(0.00505908 0.0663633 0.169682)
(-0.11361 0.151822 0.204151)
(-0.00481171 -0.0241421 0.473546)
(0.00215074 -0.0194263 0.602412)
(0.0434659 0.0641817 0.441093)
(-0.0426644 -0.0667432 0.279545)
(-0.00151525 0.0212444 0.315241)
(-0.0304108 0.111972 0.265284)
(0.0559259 -0.0562265 0.667645)
(0.074757 -0.0644624 0.585323)
(0.111532 -0.00982659 0.472237)
(0.0658826 -0.0400268 0.398264)
(-0.0180669 -0.0048127 0.242851)
(-0.00985686 0.0177526 0.560432)
(-0.0279202 -0.0368185 0.45065)
(-0.00863528 -0.0283918 0.339164)
(-0.00773315 -0.00950349 0.330543)
(-0.0197709 0.0765217 0.433951)
(-0.0348566 0.0512519 0.47758)
(0.046681 -0.00764416 0.303452)
(-0.0649848 -0.0257523 0.468544)
(-0.00327174 0.00789529 0.191402)
(-0.102519 0.0584301 0.336477)
(-0.062519 -0.0273683 0.781382)
(-0.00496588 0.0471969 0.178248)
(-0.059619 0.0896993 0.267747)
(-0.0645353 0.146673 0.436216)
(0.0228056 0.0819798 0.597478)
(0.0411244 0.085967 0.4582)
(-0.0475425 -0.0573244 0.31838)
(-0.00313618 -0.0323714 0.339279)
(-0.0282105 0.0683254 0.343139)
(0.0174094 0.0192976 0.610504)
(0.0705631 -0.0125413 0.592886)
(0.108047 0.0082993 0.515334)
(0.0581513 -0.0357572 0.431022)
(-0.0328034 -0.0236111 0.270884)
(-0.0111468 0.0298621 0.528604)
(-0.0562448 -0.0573918 0.428668)
(-0.0262355 -0.00946904 0.335489)
(-0.00447362 -0.014638 0.305381)
(-0.0314432 0.0778097 0.476808)
(-0.0250425 0.0344376 0.516735)
(0.00317926 0.00238905 0.233773)
(-0.0506027 -0.0232849 0.560824)
(0.0652777 -0.0537925 0.249168)
(-0.0471123 0.116574 0.241307)
(0.0528322 -0.0498708 0.571139)
(0.00610357 0.0552554 0.170774)
(-0.000721538 0.000671198 0.322596)
(-0.0866713 0.193962 0.411853)
(0.0273827 0.125785 0.563005)
(0.0164327 0.0997813 0.476171)
(-0.056182 -0.0559712 0.327931)
(-0.00678471 -0.0578979 0.329191)
(-0.0384041 0.0191962 0.41267)
(-0.00571453 0.0537279 0.607294)
(0.0537103 0.03544 0.618767)
(0.0988621 0.0218166 0.55978)
(0.0511959 -0.0357459 0.465675)
(-0.0457818 -0.0393909 0.301018)
(-0.00722571 0.0213904 0.521894)
(-0.0655633 -0.0666969 0.432881)
(-0.0319272 -0.00567784 0.320876)
(-0.0105367 0.00231116 0.278586)
(-0.0281937 0.05965 0.490114)
(-0.0203799 0.0315611 0.52134)
(-0.0464924 0.0178054 0.223164)
(0.0196357 -0.00776696 0.618051)
(0.0872181 -0.0749064 0.256057)
(0.0237071 0.0733262 0.199931)
(0.078512 0.0426189 0.412646)
(0.00438433 0.0719274 0.158046)
(0.0315944 -0.06045 0.362787)
(-0.087135 0.191294 0.409547)
(0.0112096 0.143193 0.539812)
(-0.0239677 0.091728 0.497718)
(-0.0766011 -0.0714768 0.281924)
(-0.0133504 -0.078216 0.3275)
(-0.0663473 -0.0159748 0.45808)
(-0.00822404 0.0538896 0.610207)
(0.0429987 0.0754962 0.648509)
(0.085704 0.0175809 0.602123)
(0.0479814 -0.0319476 0.494627)
(-0.0587312 -0.0506009 0.33376)
(-0.0144577 -0.00389025 0.520734)
(-0.0596559 -0.062774 0.448721)
(-0.0395839 -0.00244689 0.304047)
(-0.0126131 0.0281944 0.271207)
(0.0133472 0.0193963 0.436414)
(-0.0215333 0.00920664 0.518785)
(-0.0500955 0.0224188 0.233197)
(0.0667356 -0.00073047 0.662028)
(0.0852056 -0.0708457 0.242995)
(0.0684078 0.0482289 0.200645)
(0.0431892 0.134117 0.300769)
(-0.00970421 0.0672968 0.147187)
(0.0546947 -0.0942591 0.393467)
(-0.0737816 0.170364 0.415215)
(-0.00468602 0.150568 0.544541)
(-0.0507316 0.0466153 0.53238)
(-0.0682354 -0.0777047 0.221326)
(-0.0198067 -0.087068 0.357834)
(-0.0857289 -0.0508878 0.49358)
(-0.00771707 0.0326747 0.615888)
(0.0499439 0.0867855 0.682906)
(0.0633366 -0.00980399 0.640339)
(0.015858 -0.0118527 0.491854)
(-0.0735212 -0.0507943 0.365319)
(-0.0652926 -0.0495242 0.50676)
(-0.0294985 -0.0240834 0.472019)
(-0.0428267 0.00308527 0.297008)
(-0.00851059 0.0358176 0.276258)
(0.0194482 0.0190256 0.331942)
(-0.0715805 -0.00704054 0.496827)
(-0.029335 0.0176152 0.230138)
(0.082059 0.0349986 0.559125)
(0.0727396 -0.050878 0.223801)
(0.0886453 0.0193425 0.21007)
(0.0167 0.165965 0.248494)
(-0.027465 0.0444556 0.137646)
(0.0609411 -0.117017 0.415292)
(-0.0508466 0.107936 0.450736)
(-0.020619 0.137769 0.567231)
(-0.0622885 -0.0113512 0.575773)
(-0.0284793 -0.0608438 0.181222)
(-0.0121659 -0.0779767 0.408164)
(-0.0879319 -0.06986 0.524416)
(-0.0314375 -0.0465249 0.622324)
(0.0555458 0.0619363 0.716664)
(0.0399466 -0.0456937 0.669237)
(-0.0295636 -0.0314558 0.424263)
(-0.0794526 -0.0415279 0.392224)
(-0.107146 -0.0978978 0.45935)
(-0.00619695 0.00378363 0.452617)
(-0.0281553 -0.000310557 0.293836)
(-0.00871026 0.030581 0.281782)
(-0.0193072 0.00817495 0.252476)
(-0.0758421 0.0314003 0.491556)
(-0.0195014 0.0157076 0.208423)
(0.0574512 0.0302814 0.245665)
(0.0534899 -0.0412193 0.197702)
(0.0927754 -0.0104022 0.20581)
(-0.00801962 0.126972 0.236011)
(-0.0465223 0.00426989 0.137436)
(0.0586752 -0.123236 0.434943)
(-0.0343058 0.0293882 0.506685)
(-0.0204304 0.0809749 0.603809)
(-0.0754844 -0.0544651 0.592565)
(0.0190313 -0.0318448 0.162847)
(-0.0027502 -0.0741587 0.413079)
(-0.082454 -0.0730058 0.542922)
(-0.0526068 -0.0940563 0.614734)
(0.0441692 0.028058 0.730147)
(0.032884 -0.0679469 0.678665)
(-0.0208653 -0.0249796 0.366902)
(-0.0522559 -0.0171469 0.421218)
(-0.0834204 -0.116323 0.396171)
(0.0126681 -0.00702226 0.394542)
(0.00934898 -0.0149789 0.294087)
(-0.00829225 0.0234945 0.277023)
(-0.0365625 -0.00297102 0.18736)
(0.00978004 0.0655889 0.539205)
(0.00378657 0.00663651 0.192449)
(0.0673601 0.0120993 0.171288)
(0.0362058 -0.0444141 0.177346)
(0.0813621 -0.0359626 0.210981)
(-0.0382672 0.0714591 0.255029)
(-0.0524843 -0.0456483 0.158428)
(0.0471838 -0.101937 0.45775)
(-0.0220068 -0.0181016 0.540367)
(0.00136932 0.0106504 0.630915)
(-0.0863655 -0.0724048 0.572271)
(0.0570573 -0.0104714 0.161051)
(0.00299331 -0.0237056 0.338502)
(-0.0447397 -0.0585823 0.565629)
(-0.054667 -0.0976751 0.605425)
(0.0328103 -0.00450472 0.713944)
(0.034219 -0.0704225 0.67583)
(-0.000671517 -0.00702307 0.34458)
(0.0379549 0.0601384 0.455756)
(-0.0156634 -0.0936126 0.335035)
(0.0286526 -0.0333012 0.343439)
(0.0339658 -0.024041 0.303015)
(-0.00798856 0.0227939 0.273564)
(-0.0150399 -0.00758721 0.138853)
(0.105391 0.0790907 0.609207)
(0.0434411 -0.0150085 0.2073)
(0.0677785 0.00901981 0.172684)
(0.0310397 -0.0496135 0.174985)
(0.0585439 -0.055429 0.23423)
(-0.0555207 0.0114946 0.310944)
(-0.0331304 -0.0553578 0.202789)
(-0.000392463 -0.0753513 0.469519)
(-0.0212012 -0.0412562 0.552512)
(-0.0122066 -0.0275069 0.642712)
(-0.0774813 -0.0758166 0.528454)
(0.0838382 -0.00335205 0.164327)
(0.00311045 0.0467041 0.30266)
(-0.016028 -0.0450361 0.566726)
(-0.0442392 -0.0882407 0.59159)
(0.0274582 -0.0358081 0.69401)
(0.0367415 -0.0604373 0.667172)
(0.0198958 0.00429136 0.350935)
(0.0831221 0.0852401 0.441641)
(0.0300398 -0.0509602 0.307531)
(0.040063 -0.0432374 0.314724)
(0.0425366 -0.0213443 0.321302)
(-0.00751358 0.0276291 0.27613)
(0.00857868 -0.0139987 0.116452)
(0.152094 0.0625538 0.653596)
(0.0752423 -0.0310911 0.233688)
(0.0586171 0.00653238 0.203599)
(0.0333122 -0.0505062 0.187557)
(0.0334958 -0.0649111 0.266623)
(-0.0360561 -0.0388964 0.381024)
(0.00512997 -0.00344806 0.257852)
(-0.022607 -0.0484436 0.473959)
(-0.0419854 -0.0541745 0.555499)
(-0.0574586 -0.0584195 0.644103)
(-0.0404712 -0.0517393 0.440188)
(0.0833496 -0.00824195 0.181631)
(0.00619584 0.0770461 0.309131)
(-0.0269414 -0.0256057 0.549571)
(-0.0501536 -0.0705408 0.569133)
(0.0104599 -0.0494601 0.672338)
(0.0370382 -0.0139604 0.644248)
(0.0400407 0.0143206 0.374293)
(0.0770303 0.0741451 0.415703)
(0.0502505 -0.0124992 0.30126)
(0.044796 -0.0353701 0.306017)
(0.0400932 0.0103636 0.358926)
(-0.00142239 0.031396 0.290422)
(0.0402485 -0.0135896 0.128008)
(0.129409 0.0257548 0.680986)
(0.0676782 -0.0204281 0.251683)
(0.0436349 0.00302988 0.247536)
(0.0303732 -0.0421154 0.210271)
(0.0202171 -0.0656353 0.295887)
(-0.00707747 -0.0806319 0.443963)
(0.0470828 0.045103 0.299062)
(-0.0422646 0.0109381 0.463561)
(-0.0696789 -0.0511387 0.558801)
(-0.0915 -0.0860759 0.614539)
(-0.0120925 -0.00327414 0.353371)
(0.0434474 -0.0146719 0.211003)
(0.00667267 0.0731806 0.337771)
(-0.0486443 -0.00585093 0.527936)
(-0.0701762 -0.0492038 0.535042)
(-0.0272401 -0.0426377 0.627691)
(0.0238003 0.0646758 0.586653)
(0.0517041 0.0129466 0.40146)
(0.0665262 0.07844 0.411282)
(0.0574517 0.004926 0.301445)
(0.0425216 -0.0186651 0.315543)
(0.0201581 0.061933 0.40553)
(0.0145442 0.0223554 0.334154)
(0.0615881 -0.013609 0.142062)
(0.0355651 -0.026321 0.704879)
(0.0158833 0.00449231 0.281953)
(0.0302419 -0.000450308 0.2926)
(0.0154568 -0.0313928 0.243169)
(0.0233436 -0.0576457 0.320495)
(0.0203911 -0.0907709 0.484844)
(0.0741863 0.0489457 0.323276)
(-0.054558 0.0141429 0.428877)
(-0.0763142 -0.0304719 0.565813)
(-0.103335 -0.0799338 0.571024)
(-0.00187636 0.0446338 0.29298)
(-0.000515463 -0.0183411 0.235621)
(0.00778214 0.0827177 0.373564)
(-0.0501072 0.00809778 0.517371)
(-0.0816021 -0.0155744 0.51418)
(-0.0632372 -0.0351606 0.572217)
(0.0031091 0.0807655 0.536909)
(0.0474663 -0.00554807 0.419892)
(0.0592392 0.0854925 0.426212)
(0.0568099 0.0135505 0.30751)
(0.0432652 -0.00301344 0.338877)
(0.00404987 0.0821654 0.445431)
(0.0284765 0.00294124 0.397527)
(0.0707978 -0.0116623 0.158744)
(-0.0165371 -0.0742987 0.683425)
(-0.0220831 0.01427 0.33295)
(0.0232602 -0.00115518 0.321718)
(-0.00374915 -0.016626 0.275613)
(0.0343462 -0.047191 0.339792)
(0.0343959 -0.0563406 0.508793)
(0.0784936 0.0332051 0.338097)
(-0.0191312 -0.0405468 0.348379)
(-0.0539342 -0.00355981 0.569225)
(-0.0901541 -0.0340867 0.543414)
(0.00534133 0.0714599 0.262274)
(-0.0238542 -0.0184721 0.257777)
(0.00258318 0.0699432 0.414244)
(-0.0671302 0.0734904 0.515637)
(-0.065066 0.0346527 0.516274)
(-0.0708896 -0.0278523 0.533923)
(-0.00799478 0.0479697 0.501661)
(0.0321011 -0.0336 0.426618)
(0.0409189 0.0829631 0.460551)
(0.0630055 0.0301027 0.32263)
(0.0583088 0.011034 0.362545)
(0.00968687 0.0582038 0.46949)
(0.039943 -0.0322513 0.447777)
(0.0871709 0.00497407 0.185121)
(0.00261409 -0.0726603 0.625976)
(-0.015661 0.00716722 0.374808)
(0.0224684 -0.000238893 0.339868)
(-0.0237434 0.00330705 0.277039)
(0.0148066 -0.0302135 0.373293)
(0.0134731 -0.0341267 0.512098)
(0.0584885 0.0318588 0.339578)
(0.0187049 -0.0167806 0.275622)
(-0.00643668 -0.0107625 0.556785)
(-0.0430649 0.0216634 0.527156)
(0.0107091 0.074427 0.261069)
(-0.025492 -0.0198376 0.281032)
(-0.00830347 0.0163353 0.467989)
(-0.0536032 0.0871388 0.521394)
(-0.00518206 0.0598314 0.511525)
(-0.051915 -0.0136622 0.517703)
(9.94747e-05 0.00666969 0.491528)
(0.0134831 -0.0546968 0.432965)
(0.0102499 0.0788387 0.494803)
(0.0964072 0.0506109 0.340235)
(0.0843553 0.0237213 0.39489)
(0.0345403 0.010584 0.48901)
(0.0489908 -0.065504 0.47213)
(0.104331 0.0291048 0.223046)
(0.0541321 -0.0884082 0.551302)
(0.0196132 -0.0110111 0.40023)
(0.0162151 -0.000649553 0.35874)
(-0.0445696 0.0379303 0.259291)
(-0.013683 -0.00202407 0.4105)
(0.0117387 -0.037681 0.494102)
(0.032638 0.0464966 0.319905)
(0.0509514 0.018795 0.246833)
(0.051623 -0.0324873 0.552018)
(-0.00289305 0.0443453 0.530169)
(0.0142869 0.0582548 0.279293)
(-0.0172966 -0.0238519 0.304424)
(-0.00132299 -1.58588e-05 0.495643)
(-0.043116 0.0590588 0.49938)
(0.0870289 0.0499523 0.48019)
(0.00132658 0.00980755 0.528279)
(0.0179779 -0.0111928 0.506383)
(0.00483595 -0.0601369 0.449176)
(0.00877579 0.0705768 0.501954)
(0.134276 0.0638009 0.356842)
(0.104559 0.0297449 0.447469)
(0.055773 -0.0228679 0.509548)
(0.0502319 -0.0796408 0.479875)
(0.120277 0.0561096 0.291358)
(0.0996642 -0.104318 0.493798)
(0.0496293 -0.027492 0.431428)
(-0.00333513 0.000219994 0.359008)
(-0.0518682 0.0531657 0.250534)
(-0.0167067 0.00602645 0.418649)
(0.0263961 -0.0129309 0.459786)
(0.0230583 0.0395975 0.300031)
(0.0604313 0.0472671 0.251609)
(0.0730873 -0.0280367 0.559891)
(0.01378 0.0531486 0.549447)
(0.00575673 0.027864 0.298301)
(-0.0118976 -0.0306781 0.324222)
(0.00451572 -0.0152328 0.475917)
(0.0856064 -0.00206513 0.389284)
(0.141967 0.0426282 0.463254)
(0.0565952 0.0364332 0.562738)
(0.0411468 -0.00270523 0.539214)
(0.0125238 -0.0562637 0.473883)
(0.0787466 0.0936155 0.416685)
(0.142887 0.0604966 0.376268)
(0.100696 0.0363682 0.507741)
(0.0651405 -0.026403 0.537984)
(0.0437929 -0.0781816 0.479681)
(0.143536 0.0732403 0.375827)
(0.0900934 -0.0542565 0.505911)
(0.0512995 -0.0286615 0.465087)
(-0.0117791 0.000607727 0.34065)
(-0.0365297 0.0415642 0.248922)
(-0.0258689 0.00282079 0.397935)
(0.0354621 0.0193371 0.424753)
(0.0226147 0.0285629 0.292993)
(0.0466599 0.0606078 0.267578)
(0.0717476 -0.000350348 0.563742)
(0.0136752 0.0579816 0.562575)
(-0.0169848 0.000826346 0.307992)
(-0.021511 -0.0433011 0.32955)
(0.0106287 -0.014128 0.322749)
(0.117407 0.0265036 0.288839)
(0.146715 0.0421574 0.465321)
(0.0810114 0.061292 0.595989)
(0.0638649 0.0155966 0.575706)
(0.024023 -0.0522059 0.500729)
(0.100533 0.0936593 0.29872)
(0.110671 0.0264499 0.403135)
(0.0804491 0.0459901 0.562074)
(0.064147 -0.0116736 0.567092)
(0.0303481 -0.0573316 0.484607)
(0.135673 0.0506974 0.438813)
(0.0495371 -0.00643386 0.5478)
(0.0283126 -0.0137285 0.489748)
(-0.0121322 0.00064804 0.305546)
(-0.0138975 0.0171817 0.243262)
(-0.0432926 0.0335437 0.333925)
(0.0232657 0.0354026 0.407546)
(0.01931 0.014249 0.296277)
(0.0271583 0.0508892 0.275738)
(0.0539997 0.0351313 0.574827)
(0.00410531 0.0545265 0.567153)
(-0.0465769 -0.021703 0.314199)
(-0.0493881 -0.0622195 0.302976)
(0.00837917 0.046719 0.232934)
(0.0658308 0.0455858 0.240888)
(0.133122 0.0334315 0.467458)
(0.0859982 0.0800091 0.618233)
(0.0750431 0.0352417 0.605902)
(0.0212181 -0.0496102 0.525839)
(0.0419729 0.0652822 0.260128)
(0.0373923 -0.0371895 0.434297)
(0.0635963 0.0564836 0.6011)
(0.0589762 0.0106774 0.591319)
(0.0204567 -0.0362749 0.498708)
(0.0552398 -4.98175e-05 0.467774)
(0.00236874 0.0062446 0.571493)
(0.00240873 0.00861923 0.517152)
(-0.0159085 -0.00131289 0.263069)
(-0.0067774 0.00564083 0.237301)
(-0.0351935 0.0401753 0.289395)
(-0.0168892 0.0240189 0.39543)
(0.0038292 -0.00319187 0.298434)
(-0.00750983 0.0246301 0.274618)
(0.038814 0.0491631 0.581042)
(-0.00765406 0.0461547 0.577287)
(-0.0678259 -0.03573 0.317504)
(-0.0694869 -0.0736006 0.248496)
(0.00794587 0.0663838 0.201129)
(0.0363861 0.0535339 0.224851)
(0.096129 0.0173894 0.467888)
(0.0750302 0.0877641 0.627429)
(0.0593211 0.0515606 0.624636)
(0.0190629 -0.0426004 0.535005)
(-0.00207908 0.0506315 0.264377)
(-0.00720412 -0.0725901 0.447854)
(0.0489749 0.0579761 0.62349)
(0.0509194 0.0268599 0.612728)
(0.0101515 -0.0163771 0.519977)
(-0.0350576 -0.0406067 0.457519)
(-0.0389354 0.0072984 0.567884)
(-0.0214256 0.023113 0.542613)
(-0.0152625 -0.00142044 0.234883)
(-0.0114226 0.00691037 0.237627)
(-0.0397673 0.0372938 0.276273)
(-0.0221477 0.0243276 0.360719)
(-0.0135406 -0.0153741 0.29416)
(-0.04556 0.000597779 0.269631)
(0.0356344 0.0541032 0.570193)
(-0.00826135 0.0429194 0.586059)
(-0.071714 -0.0403208 0.320335)
(-0.0628724 -0.0629109 0.206066)
(0.00786178 0.0645975 0.193854)
(0.0322651 0.0629372 0.230678)
(0.0679064 0.032857 0.474736)
(0.0519258 0.0872341 0.636199)
(0.0223591 0.0499875 0.634676)
(0.00962722 -0.0148861 0.531034)
(-0.0258851 0.0361326 0.297717)
(-0.0282045 -0.081751 0.457267)
(0.0290268 0.0496085 0.637233)
(0.0357065 0.0297876 0.632532)
(0.000503051 -6.78222e-05 0.533532)
(-0.0720535 -0.0511128 0.4387)
(-0.0656761 0.0164394 0.556906)
(-0.0457911 0.0317468 0.549212)
(-0.0107156 -0.00178963 0.219839)
(-0.0244945 0.0148206 0.248869)
(-0.0536255 0.0273706 0.276955)
(-0.0202735 0.0167306 0.334825)
(-0.0186443 -0.0209573 0.281332)
(-0.0581284 -0.00159419 0.26903)
(0.0138527 0.0543452 0.526238)
(0.00195439 0.0426829 0.589848)
(-0.0620489 -0.0391921 0.328061)
(-0.0479016 -0.0469378 0.180308)
(0.00564699 0.0540431 0.195612)
(0.0378791 0.063229 0.248721)
(0.0383549 0.0689414 0.495339)
(0.0288762 0.081071 0.654112)
(-0.00299557 0.0260554 0.637352)
(-0.0339154 -0.00482707 0.495277)
(-0.0387355 0.0192324 0.342162)
(-0.035305 -0.0734863 0.47177)
(0.00401071 0.0361679 0.646354)
(0.0175364 0.0212217 0.650222)
(0.00115486 0.00343406 0.535865)
(-0.0820668 -0.0474208 0.430901)
(-0.0815487 0.0228575 0.547076)
(-0.0617238 0.0359526 0.534017)
(-0.0083995 -0.00320486 0.218551)
(-0.0370227 0.0232836 0.26432)
(-0.0682704 0.0122064 0.285199)
(-0.0244541 -0.00468093 0.317411)
(-0.016175 -0.0281152 0.266903)
(-0.0408402 0.0225874 0.276174)
(-0.0287251 0.041736 0.446998)
(0.0356033 0.0435662 0.581789)
(-0.036523 -0.0377784 0.346938)
(-0.0367939 -0.0451238 0.166244)
(0.00258381 0.0398815 0.210303)
(0.0432641 0.0495906 0.272277)
(0.00732357 0.0911936 0.522322)
(0.0176387 0.0728083 0.670461)
(-0.00593635 0.00770381 0.631231)
(-0.0225328 -0.027026 0.450036)
(-0.0502917 -0.000240905 0.385915)
(-0.0363091 -0.0430471 0.500595)
(-0.017946 0.0254245 0.65303)
(-0.00317109 0.0163975 0.650046)
(0.00378257 -0.00253049 0.531677)
(-0.0842583 -0.0429794 0.432448)
(-0.0862843 0.0232661 0.538603)
(-0.0674441 0.0410807 0.514796)
(-0.00362408 -0.00538734 0.232355)
(-0.0451858 0.0310615 0.276557)
(-0.0711493 -0.000669589 0.295999)
(-0.0415468 -0.0196841 0.303742)
(-0.0138938 -0.0406266 0.263652)
(-0.0183822 0.0467827 0.282796)
(-0.0347135 0.0252338 0.38633)
(0.0867662 0.0456116 0.537928)
(-0.0242413 -0.0470777 0.366927)
(-0.0275097 -0.0495764 0.170339)
(-0.00214841 0.00487373 0.251403)
(0.0434083 0.0227091 0.30145)
(-0.0137078 0.0914978 0.536054)
(0.0134087 0.0663536 0.676937)
(-0.00202446 0.00850886 0.623621)
(-0.00306253 -0.05464 0.403671)
(-0.060676 -0.0201985 0.425064)
(-0.0380818 -0.00484959 0.531128)
(-0.0298505 0.0213456 0.657954)
(-0.0144088 0.0090749 0.629803)
(0.015109 -0.0225029 0.512148)
(-0.0793015 -0.0292064 0.445645)
(-0.0823854 0.0227716 0.533625)
(-0.0662541 0.0379294 0.495384)
(0.00541849 -0.00602591 0.253756)
(-0.0492594 0.0352182 0.285717)
(-0.0604053 -0.00978268 0.303794)
(-0.0633583 -0.0163109 0.300355)
(-0.0151989 -0.053339 0.272961)
(0.00645312 0.0522939 0.280929)
(-0.0167326 0.00801136 0.339599)
(0.0923058 0.0429659 0.499961)
(-0.0316484 -0.0694958 0.384036)
(-0.0195188 -0.0502805 0.192481)
(-0.00477634 -0.0416223 0.310292)
(0.0381444 -0.0138358 0.332806)
(-0.0235552 0.0909711 0.533739)
(0.00907723 0.061216 0.679804)
(-0.00538745 0.0205002 0.600166)
(-0.00139326 -0.0802051 0.349234)
(-0.0670928 -0.0438852 0.454166)
(-0.0454006 0.022734 0.554021)
(-0.0326389 0.0219112 0.660773)
(-0.0141814 0.0184849 0.600739)
(0.0228163 -0.0210982 0.504614)
(-0.0684983 -0.0121835 0.463306)
(-0.0664395 0.0187887 0.537096)
(-0.0433056 0.0237893 0.471868)
(0.0177788 -0.00586882 0.276448)
(-0.0531821 0.0382583 0.295932)
(-0.0479271 -0.0202436 0.310129)
(-0.074601 -0.00624816 0.305643)
(-0.0212134 -0.0616928 0.289542)
(0.0309134 0.045321 0.275496)
(0.00171555 -0.00891502 0.309165)
(0.0569666 0.024686 0.471785)
(-0.0401855 -0.0984893 0.390125)
(-0.00974857 -0.0408077 0.219234)
(-0.00556493 -0.0797324 0.364101)
(0.0336761 -0.045981 0.360248)
(-0.037493 0.0941339 0.521607)
(0.00305141 0.0601412 0.681118)
(-0.0239354 0.00934547 0.572296)
(0.0010218 -0.0846214 0.30408)
(-0.0730525 -0.0643427 0.473122)
(-0.0561148 0.0359231 0.56989)
(-0.0311415 0.0240476 0.66075)
(-0.0146653 0.0184295 0.570308)
(0.0293872 -0.0205674 0.511391)
(-0.0672224 0.00345313 0.482079)
(-0.0411243 0.0222583 0.548039)
(-0.0168085 0.0110143 0.458401)
(0.0305899 -0.00513093 0.299145)
(-0.0581824 0.041685 0.309488)
(-0.0424943 -0.0312809 0.315543)
(-0.0705364 -0.00270896 0.318896)
(-0.0285932 -0.0644469 0.312002)
(0.046383 0.0380654 0.271798)
(0.0155268 -0.0246144 0.296104)
(0.00553815 -0.00855419 0.449058)
(-0.0381407 -0.120388 0.383122)
(0.00648611 -0.0256585 0.248544)
(-0.00525617 -0.100723 0.403692)
(0.0298945 -0.0649212 0.383061)
(-0.0616155 0.0853244 0.505459)
(-0.0057839 0.0605266 0.674793)
(-0.0428805 -0.055473 0.52576)
(0.00681415 -0.0701872 0.280089)
(-0.0789636 -0.0733339 0.489449)