/*--------------------------------*- C++ -*----------------------------------*\
| =========                 |                                                 |
| \\      /  F ield         | OpenFOAM: The Open Source CFD Toolbox           |
|  \\    /   O peration     | Version:  5.x                                   |
|   \\  /    A nd           | Web:      www.OpenFOAM.org                      |
|    \\/     M anipulation  |                                                 |
\*---------------------------------------------------------------------------*/
FoamFile
{
    version     2.0;
    format      ascii;
    class       volVectorField;
    location    "10";
    object      Us;
}
// * * * * * * * * * * * * * * * * * * * * * * * * * * * * * * * * * * * * * //

dimensions      [0 1 -1 0 0 0 0];

internalField   nonuniform List<vector> 
10571
(
(0.00905396 0.0113642 -0.0381739)
(-0.00178208 0.0143237 -0.0428845)
(0.0236697 0.0213387 -0.0561685)
(-0.00128739 -0.0149524 -0.041871)
(-0.00921216 0.00852028 -0.0424601)
(0.000190615 0.0400829 -0.0789085)
(-0.0057453 0.0212505 -0.0453658)
(-0.0220987 -0.0160213 -0.0625221)
(-0.0159128 -0.0123134 -0.0760329)
(-0.00331415 0.0151296 -0.0400357)
(-0.0408072 0.0423895 -0.0453754)
(-0.00559143 0.0255847 -0.0501361)
(-0.0494965 0.0461739 -0.042806)
(-0.0111251 0.0379867 -0.0658977)
(-0.00157291 0.0385863 -0.109695)
(0.0215093 0.0300869 -0.0658569)
(0.0125623 0.000150357 -0.00995702)
(-0.039426 0.0282925 -0.00794121)
(-0.0291041 0.0464399 -0.0346954)
(-0.00605143 0.0615521 -0.087841)
(-0.00661988 0.011748 -0.0469237)
(0.00570837 -0.0146716 -0.0202995)
(0.000582684 -0.000239089 -0.0420345)
(-0.0121031 -0.00343633 -0.0233312)
(0.00962955 0.00142646 0.0281284)
(-0.00580037 0.00642604 -0.0269801)
(-0.00602345 0.00169751 0.0064426)
(0.0130418 -0.0205169 0.0377773)
(0.0218259 0.0132787 -0.00252468)
(0.00505196 0.000472274 -0.0107403)
(0.0357797 0.0223867 -0.019866)
(0.0192277 0.0281376 -0.0273033)
(0.0060841 0.0120427 -0.0220882)
(-0.000142539 0.00941834 -0.0168952)
(0.0157387 -0.0132761 -0.0301206)
(-0.0059728 0.000489942 -0.0438631)
(0.0525131 0.00423221 -0.0144468)
(0.0287933 0.00177154 -0.0292287)
(0.00861778 -0.00606805 -0.0133425)
(0.00142205 -0.00235124 -0.00597762)
(-0.0180747 0.0334485 -0.0813641)
(0.0263425 0.00727622 0.0152653)
(0.025548 -0.0162713 0.00322604)
(0.018726 -0.0205509 -0.00565871)
(0.00857719 -0.0111849 0.00531202)
(0.00668859 0.00497716 -0.0522906)
(0.0148726 -0.0116563 -0.0284569)
(0.012798 -0.00131362 -0.0200861)
(0.00393663 0.00119307 0.0255244)
(-1.06481e-05 -0.00393906 -0.000342634)
(-0.00591426 0.00720267 0.0186063)
(0.0134503 0.0148588 0.0598172)
(0.0251065 0.0125347 0.00101097)
(0.0058399 -0.0192008 0.0359808)
(0.0320929 0.0288317 0.00404747)
(0.0105407 0.0299761 -0.00638546)
(0.00445057 0.00580251 -0.0110008)
(0.000907023 0.00154915 -0.0101624)
(-0.000163739 -0.0248218 0.0572319)
(0.0120594 -0.0297607 0.0852065)
(0.0625132 -0.00207198 0.0231002)
(0.0203151 -0.007985 -0.00631867)
(0.00788146 -0.0143566 0.000681873)
(0.00346411 -0.0105184 0.00210546)
(0.00193918 0.0174631 0.0841539)
(0.0427216 -0.022465 0.0306307)
(0.0185047 -0.0266611 0.0165577)
(0.0150797 -0.0177795 0.0194241)
(0.00869422 -0.0143581 0.0161971)
(0.0218954 -0.0198115 0.0681023)
(0.0287151 -0.023728 0.0618709)
(0.0235736 -0.0152915 0.038189)
(0 0 0)
(0 0 0)
(0 0 0)
(0 0 0)
(0 0 0)
(0 0 0)
(0 0 0)
(0 0 0)
(0 0 0)
(0 0 0)
(0 0 0)
(0.0085045 -0.012642 0.0645854)
(0.0692203 -0.0105114 0.0430399)
(0.0543365 -0.0321083 0.0420002)
(0 0 0)
(0 0 0)
(0.00273614 0.013345 0.074446)
(0.0419254 -0.0259642 0.0362475)
(0.0225295 -0.0347169 0.0247444)
(0 0 0)
(0 0 0)
(0.013674 -0.00380573 0.0550536)
(0.0219334 -0.0110412 0.0452142)
(0 0 0)
(0 0 0)
(0 0 0)
(0 0 0)
(0 0 0)
(0 0 0)
(0 0 0)
(0 0 0)
(0 0 0)
(0 0 0)
(0 0 0)
(0 0 0)
(0 0 0)
(0 0 0)
(0 0 0)
(0 0 0)
(0 0 0)
(0 0 0)
(0 0 0)
(0 0 0)
(0 0 0)
(0 0 0)
(0 0 0)
(0 0 0)
(0 0 0)
(0 0 0)
(0 0 0)
(0 0 0)
(0 0 0)
(0 0 0)
(0 0 0)
(0 0 0)
(0 0 0)
(0 0 0)
(0 0 0)
(0 0 0)
(0 0 0)
(0 0 0)
(0 0 0)
(0 0 0)
(0 0 0)
(0 0 0)
(0 0 0)
(0 0 0)
(0 0 0)
(0 0 0)
(0 0 0)
(0 0 0)
(0 0 0)
(0 0 0)
(0 0 0)
(0 0 0)
(0 0 0)
(0 0 0)
(0 0 0)
(0 0 0)
(0 0 0)
(0 0 0)
(0 0 0)
(0 0 0)
(0 0 0)
(0 0 0)
(0 0 0)
(0 0 0)
(0 0 0)
(0 0 0)
(0 0 0)
(0 0 0)
(0 0 0)
(0 0 0)
(0 0 0)
(0 0 0)
(0 0 0)
(0 0 0)
(0 0 0)
(0 0 0)
(0 0 0)
(0 0 0)
(0 0 0)
(0 0 0)
(0 0 0)
(0 0 0)
(0 0 0)
(0 0 0)
(0 0 0)
(0 0 0)
(0 0 0)
(0 0 0)
(0 0 0)
(0 0 0)
(0 0 0)
(0 0 0)
(0 0 0)
(0 0 0)
(0 0 0)
(0 0 0)
(0 0 0)
(0 0 0)
(0 0 0)
(0 0 0)
(0 0 0)
(0 0 0)
(0 0 0)
(0 0 0)
(0 0 0)
(0 0 0)
(0 0 0)
(0 0 0)
(0 0 0)
(0 0 0)
(0 0 0)
(0 0 0)
(0 0 0)
(0 0 0)
(0 0 0)
(0 0 0)
(0 0 0)
(0 0 0)
(0 0 0)
(0 0 0)
(0 0 0)
(0 0 0)
(0 0 0)
(0 0 0)
(0 0 0)
(0 0 0)
(0 0 0)
(0 0 0)
(0 0 0)
(0 0 0)
(0 0 0)
(0 0 0)
(0 0 0)
(0 0 0)
(0 0 0)
(0 0 0)
(0 0 0)
(0 0 0)
(0 0 0)
(0 0 0)
(0 0 0)
(0 0 0)
(0 0 0)
(0 0 0)
(0 0 0)
(0 0 0)
(0 0 0)
(0 0 0)
(0 0 0)
(0 0 0)
(0 0 0)
(0 0 0)
(0 0 0)
(0 0 0)
(0 0 0)
(0 0 0)
(0 0 0)
(0 0 0)
(0 0 0)
(0 0 0)
(0 0 0)
(0 0 0)
(0 0 0)
(0 0 0)
(0 0 0)
(0 0 0)
(0 0 0)
(0 0 0)
(0 0 0)
(0 0 0)
(0 0 0)
(0 0 0)
(0 0 0)
(0 0 0)
(0 0 0)
(0 0 0)
(0 0 0)
(0 0 0)
(0 0 0)
(0 0 0)
(0 0 0)
(0 0 0)
(0 0 0)
(0 0 0)
(0 0 0)
(0 0 0)
(0 0 0)
(0 0 0)
(0 0 0)
(0 0 0)
(0 0 0)
(0 0 0)
(0 0 0)
(0 0 0)
(0 0 0)
(0 0 0)
(0 0 0)
(0 0 0)
(0 0 0)
(0 0 0)
(0 0 0)
(0 0 0)
(0 0 0)
(0 0 0)
(0 0 0)
(0 0 0)
(0 0 0)
(0 0 0)
(0 0 0)
(0 0 0)
(0 0 0)
(0 0 0)
(0 0 0)
(0 0 0)
(0 0 0)
(0 0 0)
(0 0 0)
(0 0 0)
(0 0 0)
(0 0 0)
(0 0 0)
(0 0 0)
(0 0 0)
(0 0 0)
(0 0 0)
(0 0 0)
(0 0 0)
(0 0 0)
(0 0 0)
(0 0 0)
(0 0 0)
(0 0 0)
(0 0 0)
(0 0 0)
(0 0 0)
(0 0 0)
(0 0 0)
(0 0 0)
(0 0 0)
(0 0 0)
(0 0 0)
(0 0 0)
(0 0 0)
(0 0 0)
(0 0 0)
(0 0 0)
(0 0 0)
(0 0 0)
(0 0 0)
(0 0 0)
(0 0 0)
(0 0 0)
(0 0 0)
(0 0 0)
(0 0 0)
(0 0 0)
(0 0 0)
(0 0 0)
(0 0 0)
(0 0 0)
(0 0 0)
(0 0 0)
(0 0 0)
(0 0 0)
(0 0 0)
(0 0 0)
(0 0 0)
(0 0 0)
(0 0 0)
(0 0 0)
(0 0 0)
(0 0 0)
(0 0 0)
(0 0 0)
(0 0 0)
(0 0 0)
(0 0 0)
(0 0 0)
(0 0 0)
(0 0 0)
(0 0 0)
(0 0 0)
(0 0 0)
(0 0 0)
(0 0 0)
(0 0 0)
(0 0 0)
(0 0 0)
(0 0 0)
(0 0 0)
(0 0 0)
(0 0 0)
(0 0 0)
(0 0 0)
(0 0 0)
(0 0 0)
(0 0 0)
(0 0 0)
(0 0 0)
(0 0 0)
(0 0 0)
(0 0 0)
(0 0 0)
(0 0 0)
(0 0 0)
(0 0 0)
(0 0 0)
(0 0 0)
(0 0 0)
(0 0 0)
(0 0 0)
(0 0 0)
(0 0 0)
(0 0 0)
(0 0 0)
(0 0 0)
(0 0 0)
(0 0 0)
(0 0 0)
(0 0 0)
(0 0 0)
(0 0 0)
(0 0 0)
(0 0 0)
(0 0 0)
(0 0 0)
(0 0 0)
(0 0 0)
(0 0 0)
(0 0 0)
(0 0 0)
(0 0 0)
(0 0 0)
(0 0 0)
(0 0 0)
(0 0 0)
(0 0 0)
(0 0 0)
(0 0 0)
(0 0 0)
(0 0 0)
(0 0 0)
(0 0 0)
(0 0 0)
(0 0 0)
(0 0 0)
(0 0 0)
(0 0 0)
(0 0 0)
(0 0 0)
(0 0 0)
(0 0 0)
(0 0 0)
(0 0 0)
(0 0 0)
(0 0 0)
(0 0 0)
(0 0 0)
(0 0 0)
(0 0 0)
(0 0 0)
(0 0 0)
(0 0 0)
(0 0 0)
(0 0 0)
(0 0 0)
(0 0 0)
(0 0 0)
(0 0 0)
(0 0 0)
(0 0 0)
(0 0 0)
(0 0 0)
(0 0 0)
(0 0 0)
(0 0 0)
(0 0 0)
(0 0 0)
(0 0 0)
(0 0 0)
(0 0 0)
(0 0 0)
(0 0 0)
(0 0 0)
(0 0 0)
(0 0 0)
(0 0 0)
(0 0 0)
(0 0 0)
(0 0 0)
(0 0 0)
(0 0 0)
(0 0 0)
(0 0 0)
(0 0 0)
(0 0 0)
(0 0 0)
(0 0 0)
(0 0 0)
(0 0 0)
(0 0 0)
(0 0 0)
(0 0 0)
(0 0 0)
(0 0 0)
(0 0 0)
(0 0 0)
(0 0 0)
(0 0 0)
(0 0 0)
(0 0 0)
(0 0 0)
(0 0 0)
(0 0 0)
(0 0 0)
(0 0 0)
(0 0 0)
(0 0 0)
(0 0 0)
(0 0 0)
(0 0 0)
(0 0 0)
(0 0 0)
(0 0 0)
(0 0 0)
(0 0 0)
(0 0 0)
(0 0 0)
(0 0 0)
(0 0 0)
(0 0 0)
(0 0 0)
(0 0 0)
(0 0 0)
(0 0 0)
(0 0 0)
(0 0 0)
(0 0 0)
(0 0 0)
(0 0 0)
(0 0 0)
(0 0 0)
(0 0 0)
(0 0 0)
(0 0 0)
(0 0 0)
(0 0 0)
(0 0 0)
(0 0 0)
(0 0 0)
(0 0 0)
(0 0 0)
(0 0 0)
(0 0 0)
(0 0 0)
(0 0 0)
(0 0 0)
(0 0 0)
(0 0 0)
(0 0 0)
(0 0 0)
(0 0 0)
(0 0 0)
(0 0 0)
(0 0 0)
(0 0 0)
(0 0 0)
(0 0 0)
(0 0 0)
(0 0 0)
(0 0 0)
(0 0 0)
(0 0 0)
(0 0 0)
(0 0 0)
(0 0 0)
(0 0 0)
(0 0 0)
(0 0 0)
(0 0 0)
(0 0 0)
(0 0 0)
(0 0 0)
(0 0 0)
(0 0 0)
(0 0 0)
(0 0 0)
(0 0 0)
(0 0 0)
(0 0 0)
(0 0 0)
(0 0 0)
(0 0 0)
(0 0 0)
(0 0 0)
(0 0 0)
(0 0 0)
(0 0 0)
(0 0 0)
(0 0 0)
(0 0 0)
(0 0 0)
(0 0 0)
(0 0 0)
(0 0 0)
(0 0 0)
(0 0 0)
(0 0 0)
(0 0 0)
(0 0 0)
(0 0 0)
(0 0 0)
(0 0 0)
(0 0 0)
(0 0 0)
(0 0 0)
(0 0 0)
(0 0 0)
(0 0 0)
(0 0 0)
(0 0 0)
(0 0 0)
(0 0 0)
(0 0 0)
(0 0 0)
(0 0 0)
(0 0 0)
(0 0 0)
(0 0 0)
(0 0 0)
(0 0 0)
(0 0 0)
(0 0 0)
(0 0 0)
(0 0 0)
(0 0 0)
(0 0 0)
(0 0 0)
(0 0 0)
(0 0 0)
(0 0 0)
(0 0 0)
(0 0 0)
(0 0 0)
(0 0 0)
(0 0 0)
(0 0 0)
(0 0 0)
(0 0 0)
(0 0 0)
(0 0 0)
(0 0 0)
(0 0 0)
(0 0 0)
(0 0 0)
(0 0 0)
(0 0 0)
(0 0 0)
(0 0 0)
(0 0 0)
(0 0 0)
(0 0 0)
(0 0 0)
(0 0 0)
(0 0 0)
(0 0 0)
(0 0 0)
(0 0 0)
(0 0 0)
(0 0 0)
(0 0 0)
(0 0 0)
(0 0 0)
(0 0 0)
(0 0 0)
(0 0 0)
(0 0 0)
(0 0 0)
(0 0 0)
(0 0 0)
(0 0 0)
(0 0 0)
(0 0 0)
(0 0 0)
(0 0 0)
(0 0 0)
(0 0 0)
(0 0 0)
(0 0 0)
(0 0 0)
(0 0 0)
(0 0 0)
(0 0 0)
(0 0 0)
(0 0 0)
(0 0 0)
(0 0 0)
(0 0 0)
(0 0 0)
(0 0 0)
(0 0 0)
(0 0 0)
(0 0 0)
(0 0 0)
(0 0 0)
(0 0 0)
(0 0 0)
(0 0 0)
(0 0 0)
(0 0 0)
(0 0 0)
(0 0 0)
(0 0 0)
(0 0 0)
(0 0 0)
(0 0 0)
(0 0 0)
(0 0 0)
(0 0 0)
(0 0 0)
(0 0 0)
(0 0 0)
(0 0 0)
(0 0 0)
(0 0 0)
(0 0 0)
(0 0 0)
(0 0 0)
(0 0 0)
(0 0 0)
(0 0 0)
(0 0 0)
(0 0 0)
(0 0 0)
(0 0 0)
(0 0 0)
(0 0 0)
(0 0 0)
(0 0 0)
(0 0 0)
(0 0 0)
(0 0 0)
(0 0 0)
(0 0 0)
(0 0 0)
(0 0 0)
(0 0 0)
(0 0 0)
(0 0 0)
(0 0 0)
(0 0 0)
(0 0 0)
(0 0 0)
(0 0 0)
(0 0 0)
(0 0 0)
(0 0 0)
(0 0 0)
(0 0 0)
(0 0 0)
(0 0 0)
(0 0 0)
(0 0 0)
(0 0 0)
(0 0 0)
(0 0 0)
(0 0 0)
(0 0 0)
(0 0 0)
(0 0 0)
(0 0 0)
(0 0 0)
(0 0 0)
(0 0 0)
(0 0 0)
(0 0 0)
(0 0 0)
(0 0 0)
(0 0 0)
(0 0 0)
(0 0 0)
(0 0 0)
(0 0 0)
(0 0 0)
(0 0 0)
(0 0 0)
(0 0 0)
(0 0 0)
(0 0 0)
(0 0 0)
(0 0 0)
(0 0 0)
(0 0 0)
(0 0 0)
(0 0 0)
(0 0 0)
(0 0 0)
(0 0 0)
(0 0 0)
(0 0 0)
(0 0 0)
(0 0 0)
(0 0 0)
(0 0 0)
(0 0 0)
(0 0 0)
(0 0 0)
(0 0 0)
(0 0 0)
(0 0 0)
(0 0 0)
(0 0 0)
(0 0 0)
(0 0 0)
(0 0 0)
(0 0 0)
(0 0 0)
(0 0 0)
(0 0 0)
(0 0 0)
(0 0 0)
(0 0 0)
(0 0 0)
(0 0 0)
(0 0 0)
(0 0 0)
(0 0 0)
(0 0 0)
(0 0 0)
(0 0 0)
(0 0 0)
(0 0 0)
(0 0 0)
(0 0 0)
(0 0 0)
(0 0 0)
(0 0 0)
(0 0 0)
(0 0 0)
(0 0 0)
(0 0 0)
(0 0 0)
(0 0 0)
(0 0 0)
(0 0 0)
(0 0 0)
(0 0 0)
(0 0 0)
(0 0 0)
(0 0 0)
(0 0 0)
(0 0 0)
(0 0 0)
(0 0 0)
(0 0 0)
(0 0 0)
(0 0 0)
(0 0 0)
(0 0 0)
(0 0 0)
(0 0 0)
(0 0 0)
(0 0 0)
(0 0 0)
(0 0 0)
(0 0 0)
(0 0 0)
(0 0 0)
(0 0 0)
(0 0 0)
(0 0 0)
(0 0 0)
(0 0 0)
(0 0 0)
(0 0 0)
(0 0 0)
(0 0 0)
(0 0 0)
(0 0 0)
(0 0 0)
(0 0 0)
(0 0 0)
(0 0 0)
(0 0 0)
(0 0 0)
(0 0 0)
(0 0 0)
(0 0 0)
(0 0 0)
(0 0 0)
(0 0 0)
(0 0 0)
(0 0 0)
(0 0 0)
(0 0 0)
(0 0 0)
(0 0 0)
(0 0 0)
(0 0 0)
(0 0 0)
(0 0 0)
(0 0 0)
(0 0 0)
(0 0 0)
(0 0 0)
(0 0 0)
(0 0 0)
(0 0 0)
(0 0 0)
(0 0 0)
(0 0 0)
(0 0 0)
(0 0 0)
(0 0 0)
(0 0 0)
(0 0 0)
(0 0 0)
(0 0 0)
(0 0 0)
(0 0 0)
(0 0 0)
(0 0 0)
(0 0 0)
(0 0 0)
(0 0 0)
(0 0 0)
(0 0 0)
(0 0 0)
(0 0 0)
(0 0 0)
(0 0 0)
(0 0 0)
(0 0 0)
(0 0 0)
(0 0 0)
(0 0 0)
(0 0 0)
(0 0 0)
(0 0 0)
(0 0 0)
(0 0 0)
(0 0 0)
(0 0 0)
(0 0 0)
(0 0 0)
(0 0 0)
(0 0 0)
(0 0 0)
(0 0 0)
(0 0 0)
(0 0 0)
(0 0 0)
(0 0 0)
(0 0 0)
(0 0 0)
(0 0 0)
(0 0 0)
(0 0 0)
(0 0 0)
(0 0 0)
(0 0 0)
(0 0 0)
(0 0 0)
(0 0 0)
(0 0 0)
(0 0 0)
(0 0 0)
(0 0 0)
(0 0 0)
(0 0 0)
(0 0 0)
(0 0 0)
(0 0 0)
(0 0 0)
(0 0 0)
(0 0 0)
(0 0 0)
(0 0 0)
(0 0 0)
(0 0 0)
(0 0 0)
(0 0 0)
(0 0 0)
(0 0 0)
(0 0 0)
(0 0 0)
(0 0 0)
(0 0 0)
(0 0 0)
(0 0 0)
(0 0 0)
(0 0 0)
(0 0 0)
(0 0 0)
(0 0 0)
(0 0 0)
(0 0 0)
(0 0 0)
(0 0 0)
(0 0 0)
(0 0 0)
(0 0 0)
(0 0 0)
(0 0 0)
(0 0 0)
(0 0 0)
(0 0 0)
(0 0 0)
(0 0 0)
(0 0 0)
(0 0 0)
(0 0 0)
(0 0 0)
(0 0 0)
(0 0 0)
(0 0 0)
(0 0 0)
(0 0 0)
(0 0 0)
(0 0 0)
(0 0 0)
(0 0 0)
(0 0 0)
(0 0 0)
(0 0 0)
(0 0 0)
(0 0 0)
(0 0 0)
(0 0 0)
(0 0 0)
(0 0 0)
(0 0 0)
(0 0 0)
(0 0 0)
(0 0 0)
(0 0 0)
(0 0 0)
(0 0 0)
(0 0 0)
(0 0 0)
(0 0 0)
(0 0 0)
(0 0 0)
(0 0 0)
(0 0 0)
(0 0 0)
(0 0 0)
(0 0 0)
(0 0 0)
(0 0 0)
(0 0 0)
(0 0 0)
(0 0 0)
(0 0 0)
(0 0 0)
(0 0 0)
(0 0 0)
(0 0 0)
(0 0 0)
(0 0 0)
(0 0 0)
(0 0 0)
(0 0 0)
(0 0 0)
(0 0 0)
(0 0 0)
(0 0 0)
(0 0 0)
(0 0 0)
(0 0 0)
(0 0 0)
(0 0 0)
(0 0 0)
(0 0 0)
(0 0 0)
(0 0 0)
(0 0 0)
(0 0 0)
(0 0 0)
(0 0 0)
(0 0 0)
(0 0 0)
(0 0 0)
(0 0 0)
(0 0 0)
(0 0 0)
(0 0 0)
(0 0 0)
(0 0 0)
(0 0 0)
(0 0 0)
(0 0 0)
(0 0 0)
(0 0 0)
(0 0 0)
(0 0 0)
(0 0 0)
(0 0 0)
(0 0 0)
(0 0 0)
(0 0 0)
(0 0 0)
(0 0 0)
(0 0 0)
(0 0 0)
(0 0 0)
(0 0 0)
(0 0 0)
(0 0 0)
(0 0 0)
(0 0 0)
(0 0 0)
(0 0 0)
(0 0 0)
(0 0 0)
(0 0 0)
(0 0 0)
(0 0 0)
(0 0 0)
(0 0 0)
(0 0 0)
(0 0 0)
(0 0 0)
(0 0 0)
(0 0 0)
(0 0 0)
(0 0 0)
(0 0 0)
(0 0 0)
(0 0 0)
(0 0 0)
(0 0 0)
(0 0 0)
(0 0 0)
(0 0 0)
(0 0 0)
(0 0 0)
(0 0 0)
(0 0 0)
(0 0 0)
(0 0 0)
(0 0 0)
(0 0 0)
(0 0 0)
(0 0 0)
(0 0 0)
(0 0 0)
(0 0 0)
(0 0 0)
(0 0 0)
(0 0 0)
(0 0 0)
(0 0 0)
(0 0 0)
(0 0 0)
(0 0 0)
(0 0 0)
(0 0 0)
(0 0 0)
(0 0 0)
(0 0 0)
(0 0 0)
(0 0 0)
(0 0 0)
(0 0 0)
(0 0 0)
(0 0 0)
(0 0 0)
(0 0 0)
(0 0 0)
(0 0 0)
(0 0 0)
(0 0 0)
(0 0 0)
(0 0 0)
(0 0 0)
(0 0 0)
(0 0 0)
(0 0 0)
(0 0 0)
(0 0 0)
(0 0 0)
(0 0 0)
(0 0 0)
(0 0 0)
(0 0 0)
(0 0 0)
(0 0 0)
(0 0 0)
(0 0 0)
(0 0 0)
(0 0 0)
(0 0 0)
(0 0 0)
(0 0 0)
(0 0 0)
(0 0 0)
(0 0 0)
(0 0 0)
(0 0 0)
(0 0 0)
(0 0 0)
(0 0 0)
(0 0 0)
(0 0 0)
(0 0 0)
(0 0 0)
(0 0 0)
(0 0 0)
(0 0 0)
(0 0 0)
(0 0 0)
(0 0 0)
(0 0 0)
(0 0 0)
(0 0 0)
(0 0 0)
(0 0 0)
(0 0 0)
(0 0 0)
(0 0 0)
(0 0 0)
(0 0 0)
(0 0 0)
(0 0 0)
(0 0 0)
(0 0 0)
(0 0 0)
(0 0 0)
(0 0 0)
(0 0 0)
(0 0 0)
(0 0 0)
(0 0 0)
(0 0 0)
(0 0 0)
(0 0 0)
(0 0 0)
(0 0 0)
(0 0 0)
(0 0 0)
(0 0 0)
(0 0 0)
(0 0 0)
(0 0 0)
(0 0 0)
(0 0 0)
(0 0 0)
(0 0 0)
(0 0 0)
(0 0 0)
(0 0 0)
(0 0 0)
(0 0 0)
(0 0 0)
(0 0 0)
(0 0 0)
(0 0 0)
(0 0 0)
(0 0 0)
(0 0 0)
(0 0 0)
(0 0 0)
(0 0 0)
(0 0 0)
(0 0 0)
(0 0 0)
(0 0 0)
(0 0 0)
(0 0 0)
(0 0 0)
(0 0 0)
(0 0 0)
(0 0 0)
(0 0 0)
(0 0 0)
(0 0 0)
(0 0 0)
(0 0 0)
(0 0 0)
(0 0 0)
(0 0 0)
(0 0 0)
(0 0 0)
(0 0 0)
(0 0 0)
(0 0 0)
(0 0 0)
(0 0 0)
(0 0 0)
(0 0 0)
(0 0 0)
(0 0 0)
(0 0 0)
(0 0 0)
(0 0 0)
(0 0 0)
(0 0 0)
(0 0 0)
(0 0 0)
(0 0 0)
(0 0 0)
(0 0 0)
(0 0 0)
(0 0 0)
(0 0 0)
(0 0 0)
(0 0 0)
(0 0 0)
(0 0 0)
(0 0 0)
(0 0 0)
(0 0 0)
(0 0 0)
(0 0 0)
(0 0 0)
(0 0 0)
(0 0 0)
(0 0 0)
(0 0 0)
(0 0 0)
(0 0 0)
(0 0 0)
(0 0 0)
(0 0 0)
(0 0 0)
(0 0 0)
(0 0 0)
(0 0 0)
(0 0 0)
(0 0 0)
(0 0 0)
(0 0 0)
(0 0 0)
(0 0 0)
(0 0 0)
(0 0 0)
(0 0 0)
(0 0 0)
(0 0 0)
(0 0 0)
(0 0 0)
(0 0 0)
(0 0 0)
(0 0 0)
(0 0 0)
(0 0 0)
(0 0 0)
(0 0 0)
(0 0 0)
(0 0 0)
(0 0 0)
(0 0 0)
(0 0 0)
(0 0 0)
(0 0 0)
(0 0 0)
(0 0 0)
(0 0 0)
(0 0 0)
(0 0 0)
(0 0 0)
(0 0 0)
(0 0 0)
(0 0 0)
(0 0 0)
(0 0 0)
(0 0 0)
(0 0 0)
(0 0 0)
(0 0 0)
(0 0 0)
(0 0 0)
(0 0 0)
(0 0 0)
(0 0 0)
(0 0 0)
(0 0 0)
(0 0 0)
(0 0 0)
(0 0 0)
(0 0 0)
(0 0 0)
(0 0 0)
(0 0 0)
(0 0 0)
(0 0 0)
(0 0 0)
(0 0 0)
(0 0 0)
(0 0 0)
(0 0 0)
(0 0 0)
(0 0 0)
(0 0 0)
(0 0 0)
(0 0 0)
(0 0 0)
(0 0 0)
(0 0 0)
(0 0 0)
(0 0 0)
(0 0 0)
(0 0 0)
(0 0 0)
(0 0 0)
(0 0 0)
(0 0 0)
(0 0 0)
(0 0 0)
(0 0 0)
(0 0 0)
(0 0 0)
(0 0 0)
(0 0 0)
(0 0 0)
(0 0 0)
(0 0 0)
(0 0 0)
(0 0 0)
(0 0 0)
(0 0 0)
(0 0 0)
(0 0 0)
(0 0 0)
(0 0 0)
(0 0 0)
(0 0 0)
(0 0 0)
(0 0 0)
(0 0 0)
(0 0 0)
(0 0 0)
(0 0 0)
(0 0 0)
(0 0 0)
(0 0 0)
(0 0 0)
(0 0 0)
(0 0 0)
(0 0 0)
(0 0 0)
(0 0 0)
(0 0 0)
(0 0 0)
(0 0 0)
(0 0 0)
(0 0 0)
(0 0 0)
(0 0 0)
(0 0 0)
(0 0 0)
(0 0 0)
(0 0 0)
(0 0 0)
(0 0 0)
(0 0 0)
(0 0 0)
(0 0 0)
(0 0 0)
(0 0 0)
(0 0 0)
(0 0 0)
(0 0 0)
(0 0 0)
(0 0 0)
(0 0 0)
(0 0 0)
(0 0 0)
(0 0 0)
(0 0 0)
(0 0 0)
(0 0 0)
(0 0 0)
(0 0 0)
(0 0 0)
(0 0 0)
(0 0 0)
(0 0 0)
(0 0 0)
(0 0 0)
(0 0 0)
(0 0 0)
(0 0 0)
(0 0 0)
(0 0 0)
(0 0 0)
(0 0 0)
(0 0 0)
(0 0 0)
(0 0 0)
(0 0 0)
(0 0 0)
(0 0 0)
(0 0 0)
(0 0 0)
(0 0 0)
(0 0 0)
(0 0 0)
(0 0 0)
(0 0 0)
(0 0 0)
(0 0 0)
(0 0 0)
(0 0 0)
(0 0 0)
(0 0 0)
(0 0 0)
(0 0 0)
(0 0 0)
(0 0 0)
(0 0 0)
(0 0 0)
(0 0 0)
(0 0 0)
(0 0 0)
(0 0 0)
(0 0 0)
(0 0 0)
(0 0 0)
(0 0 0)
(0 0 0)
(0 0 0)
(0 0 0)
(0 0 0)
(0 0 0)
(0 0 0)
(0 0 0)
(0 0 0)
(0 0 0)
(0 0 0)
(0 0 0)
(0 0 0)
(0 0 0)
(0 0 0)
(0 0 0)
(0 0 0)
(0 0 0)
(0 0 0)
(0 0 0)
(0 0 0)
(0 0 0)
(0 0 0)
(0 0 0)
(0 0 0)
(0 0 0)
(0 0 0)
(0 0 0)
(0 0 0)
(0 0 0)
(0 0 0)
(0 0 0)
(0 0 0)
(0 0 0)
(0 0 0)
(0 0 0)
(0 0 0)
(0 0 0)
(0 0 0)
(0 0 0)
(0 0 0)
(0 0 0)
(0 0 0)
(0 0 0)
(0 0 0)
(0 0 0)
(0 0 0)
(0 0 0)
(0 0 0)
(0 0 0)
(0 0 0)
(0 0 0)
(0 0 0)
(0 0 0)
(0 0 0)
(0 0 0)
(0 0 0)
(0 0 0)
(0 0 0)
(0 0 0)
(0 0 0)
(0 0 0)
(0 0 0)
(0 0 0)
(0 0 0)
(0 0 0)
(0 0 0)
(0 0 0)
(0 0 0)
(0 0 0)
(0 0 0)
(0 0 0)
(0 0 0)
(0 0 0)
(0 0 0)
(0 0 0)
(0 0 0)
(0 0 0)
(0 0 0)
(0 0 0)
(0 0 0)
(0 0 0)
(0 0 0)
(0 0 0)
(0 0 0)
(0 0 0)
(0 0 0)
(0 0 0)
(0 0 0)
(0 0 0)
(0 0 0)
(0 0 0)
(0 0 0)
(0 0 0)
(0 0 0)
(0 0 0)
(0 0 0)
(0 0 0)
(0 0 0)
(0 0 0)
(0 0 0)
(0 0 0)
(0 0 0)
(0 0 0)
(0 0 0)
(0 0 0)
(0 0 0)
(0 0 0)
(0 0 0)
(0 0 0)
(0 0 0)
(0 0 0)
(0 0 0)
(0 0 0)
(0 0 0)
(0 0 0)
(0 0 0)
(0 0 0)
(0 0 0)
(0 0 0)
(0 0 0)
(0 0 0)
(0 0 0)
(0 0 0)
(0 0 0)
(0 0 0)
(0 0 0)
(0 0 0)
(0 0 0)
(0 0 0)
(0 0 0)
(0 0 0)
(0 0 0)
(0 0 0)
(0 0 0)
(0 0 0)
(0 0 0)
(0 0 0)
(0 0 0)
(0 0 0)
(0 0 0)
(0 0 0)
(0 0 0)
(0 0 0)
(0 0 0)
(0 0 0)
(0 0 0)
(0 0 0)
(0 0 0)
(0 0 0)
(0 0 0)
(0 0 0)
(0 0 0)
(0 0 0)
(0 0 0)
(0 0 0)
(0 0 0)
(0 0 0)
(0 0 0)
(0 0 0)
(0 0 0)
(0 0 0)
(0 0 0)
(0 0 0)
(0 0 0)
(0 0 0)
(0 0 0)
(0 0 0)
(0 0 0)
(0 0 0)
(0 0 0)
(0 0 0)
(0 0 0)
(0 0 0)
(0 0 0)
(0 0 0)
(0 0 0)
(0 0 0)
(0 0 0)
(0 0 0)
(0 0 0)
(0 0 0)
(0 0 0)
(0 0 0)
(0 0 0)
(0 0 0)
(0 0 0)
(0 0 0)
(0 0 0)
(0 0 0)
(0 0 0)
(0 0 0)
(0 0 0)
(0 0 0)
(0 0 0)
(0 0 0)
(0 0 0)
(0 0 0)
(0 0 0)
(0 0 0)
(0 0 0)
(0 0 0)
(0 0 0)
(0 0 0)
(0 0 0)
(0 0 0)
(0 0 0)
(0 0 0)
(0 0 0)
(0 0 0)
(0 0 0)
(0 0 0)
(0 0 0)
(0 0 0)
(0 0 0)
(0 0 0)
(0 0 0)
(0 0 0)
(0 0 0)
(0 0 0)
(0 0 0)
(0 0 0)
(0 0 0)
(0 0 0)
(0 0 0)
(0 0 0)
(0 0 0)
(0 0 0)
(0 0 0)
(0 0 0)
(0 0 0)
(0 0 0)
(0 0 0)
(0 0 0)
(0 0 0)
(0 0 0)
(0 0 0)
(0 0 0)
(0 0 0)
(0 0 0)
(0 0 0)
(0 0 0)
(0 0 0)
(0 0 0)
(0 0 0)
(0 0 0)
(0 0 0)
(0 0 0)
(0 0 0)
(0 0 0)
(0 0 0)
(0 0 0)
(0 0 0)
(0 0 0)
(0 0 0)
(0 0 0)
(0 0 0)
(0 0 0)
(0 0 0)
(0 0 0)
(0 0 0)
(0 0 0)
(0 0 0)
(0 0 0)
(0 0 0)
(0 0 0)
(0 0 0)
(0 0 0)
(0 0 0)
(0 0 0)
(0 0 0)
(0 0 0)
(0 0 0)
(0 0 0)
(0 0 0)
(0 0 0)
(0 0 0)
(0 0 0)
(0 0 0)
(0 0 0)
(0 0 0)
(0 0 0)
(0 0 0)
(0 0 0)
(0 0 0)
(0 0 0)
(0 0 0)
(0 0 0)
(0 0 0)
(0 0 0)
(0 0 0)
(0 0 0)
(0 0 0)
(0 0 0)
(0 0 0)
(0 0 0)
(0 0 0)
(0 0 0)
(0 0 0)
(0 0 0)
(0 0 0)
(0 0 0)
(0 0 0)
(0 0 0)
(0.00338144 0.00184826 -0.00272831)
(-3.54694e-05 -0.000387865 -0.000468276)
(0.00221229 0.0023827 -0.000773092)
(-0.000555089 0.000105107 -0.000707197)
(-0.000230652 -0.000714173 -0.000154027)
(-0.000451338 0.0007889 -0.00148101)
(-0.0014716 0.00172351 -0.00050125)
(-0.00211229 0.00245043 -0.00234347)
(0.00100502 0.00374265 -0.00114669)
(0.00157961 0.00348506 -0.00182884)
(0.00356094 0.00669311 -0.00038128)
(0.00382815 0.00319954 2.77842e-05)
(7.6516e-05 0.00261336 -0.000511141)
(0.00111321 0.00368366 -0.000795402)
(-0.00122557 0.000509534 -0.00109014)
(-0.00200773 0.000890334 -0.00111122)
(-0.00250085 0.00035094 -0.00223055)
(0.0003368 -0.000823348 -0.00143096)
(-0.000350145 0.00308338 -0.000836002)
(-0.00118543 -7.13501e-05 -0.0039839)
(0.000845173 0.000232004 -0.00308627)
(-0.00308096 0.00472041 -0.00133811)
(-0.00222161 0.00500334 -0.0025529)
(-0.00278749 0.00839587 -0.00248425)
(-0.00520976 0.00922898 -0.000746293)
(-0.00238898 0.00487938 -0.00242104)
(-0.00134563 0.00358796 -0.00041676)
(-0.000517225 0.00114268 -0.0014109)
(0.00294798 -0.00159423 -0.000859865)
(0.00313815 0.00163929 -0.0005568)
(-0.00120995 0.00132862 -0.00207049)
(0.000577614 -0.000511668 -0.000462233)
(-0.00128503 0.00333303 -0.000319336)
(-0.00186959 0.00267927 -0.00304837)
(-0.0021415 0.00246926 -0.00519899)
(-0.00157308 0.00509807 -0.00181624)
(-0.00567493 0.00255742 -0.00170441)
(-0.00416245 0.000408759 -0.00704322)
(-0.00262703 -0.00134638 -0.00653876)
(-0.00695894 0.00213676 -0.00251552)
(-0.00260721 0.00122054 -0.00686193)
(-0.00189409 0.00356946 -0.00162723)
(-0.00402137 0.0050658 0.000210017)
(0.00104792 0.000120895 -0.0130824)
(-0.00238224 0.00228324 -0.00274629)
(-0.0013334 0.00259614 1.61205e-05)
(-0.00229982 0.000853029 -0.00121243)
(-0.000494866 0.000403145 -0.000465463)
(-0.00100191 0.00133149 0.000658096)
(0.00097749 -9.09914e-05 -0.00206462)
(0.0018976 0.00175597 -0.00203824)
(0.00328301 -0.000675562 -0.00169559)
(0.000342267 0.00396286 0.000608665)
(0.00527015 0.0013899 -0.00115766)
(0.00171198 0.00316653 0.000632562)
(-0.00518011 0.00666841 -0.00280577)
(-0.00894386 0.00580127 -0.00131717)
(-0.00392096 0.00758853 -0.000746446)
(-0.00834999 0.00642286 -0.000704115)
(-0.00847529 0.0051524 -0.00421136)
(-0.00288157 0.00546893 -0.0104058)
(-0.0077874 0.00675931 -0.00277903)
(-0.00288325 0.00865653 -0.00979316)
(9.69874e-05 0.00434701 -0.0126595)
(-0.000285413 0.000980325 -0.00253715)
(0.000825612 0.00471673 -0.00722919)
(-0.000784614 -0.00155325 -0.000806726)
(-0.000756733 -0.000212355 -0.0010084)
(0.000340891 2.47723e-06 -0.000288425)
(-0.000708759 -0.000829626 -0.000157906)
(0.00184019 0.00279862 0.000155859)
(0.0049146 0.000494123 -0.000194101)
(0.00618599 -0.000557824 0.000934911)
(0.001494 3.78838e-05 0.000596208)
(0.00507381 -0.00277855 -0.000291476)
(-0.000307867 0.000134012 0.000727027)
(-0.00600346 0.00249726 0.000506396)
(0.00330793 -0.00633934 0.000113324)
(-0.00340769 -0.00212405 -9.65909e-05)
(-0.00659287 0.00626716 -0.00127167)
(-0.00312577 0.00777271 -0.00614109)
(-0.00440202 0.0018732 -0.000804877)
(-0.00334657 0.00273525 -0.00284627)
(-0.000840442 -0.000668682 -0.00173129)
(-0.00250482 -0.0047073 -0.00125013)
(-0.00171117 0.000244582 -0.000447486)
(-0.000508392 -0.000411434 -0.00113837)
(-0.00151099 -0.00237821 -0.00186214)
(0.000295049 -0.00148927 -0.000241249)
(-0.000306362 -0.00452298 -0.00104534)
(-0.00167755 -0.00471141 -0.00148003)
(-0.00095552 -0.00254623 -0.000482943)
(-0.000116837 -0.00380457 -0.0023088)
(-0.00100857 0.000919026 -0.00192175)
(0.000161877 -0.00242102 -0.00150194)
(-0.00048843 -0.000292915 -0.000774003)
(0.00200521 0.00735019 -0.0453515)
(-0.0001068 0.00245327 -0.0906275)
(0.0103305 0.0110604 -0.0367559)
(0.00910642 0.0200533 -0.0465035)
(0.0190439 0.00393034 -0.0397499)
(0.0103608 0.00331632 -0.0476179)
(0.000108066 0.00357423 -0.0605758)
(0.00950653 -0.00175756 -0.0393746)
(0.00844406 -0.00116125 -0.0332001)
(0.0030845 0.0151382 -0.0322652)
(0.0134778 0.000739289 -0.0447887)
(0.0108341 -0.00999829 -0.0272373)
(0.00895734 -0.00164571 -0.031901)
(0.000602909 0.0103459 -0.0399132)
(0.0104477 0.00409264 -0.0559843)
(-0.0101683 0.0200569 -0.052327)
(-0.00778442 0.014985 -0.0957787)
(0.00447331 0.0169182 -0.0579719)
(0.00180625 0.024061 -0.0652073)
(0.00791491 0.0256544 -0.073032)
(-0.00756513 0.00545741 -0.0956792)
(-0.00567163 0.00290602 -0.0838448)
(-0.00762337 0.00945376 -0.0928284)
(0.00529538 0.0055156 -0.0915557)
(0.000265323 0.00929731 -0.0335597)
(-0.0190981 -0.00117469 -0.0650613)
(0.00491065 0.0110144 -0.0487965)
(0.0155111 0.00196927 -0.0475086)
(0.0111975 0.00767314 -0.0546673)
(0.00435351 0.00239064 -0.0458146)
(0.0166424 0.00940985 -0.0463552)
(0.00436162 0.0170289 -0.0429629)
(0.00963558 0.0118049 -0.0421087)
(0.00196673 0.0353748 -0.0745249)
(-0.0130208 0.0215191 -0.0534447)
(-0.000268087 0.0280937 -0.0701389)
(0.0014792 0.0125623 -0.111775)
(-0.0088424 0.0205464 -0.107822)
(-0.00442746 0.0243316 -0.1224)
(0.0215027 0.0282188 -0.0593851)
(0.00478753 0.0238664 -0.0306781)
(0.00358616 0.00882049 -0.0226423)
(0.0094227 0.0116566 -0.0265324)
(0.00321733 0.00688215 -0.0101881)
(-0.00372172 0.021333 -0.0362896)
(-0.000600446 0.00459882 -0.0291306)
(0.00386846 0.0187478 -0.109861)
(0.0113353 0.0309577 -0.11327)
(-0.00133509 0.00861187 -0.0872591)
(0.00191148 0.022253 -0.0277564)
(-0.00637012 0.0403288 -0.0574849)
(0.00928138 0.0114843 -0.0334354)
(0.00109515 0.00690485 -0.0153163)
(-0.00660016 0.0224329 -0.0376698)
(0.00406249 0.00319615 -0.00579598)
(0.00134787 0.00341151 -0.0365057)
(0.0108728 0.0048322 -0.0147841)
(0.00485242 0.000943269 -0.00217965)
(0.0135353 -0.00750259 -0.0122252)
(0.00813595 0.00596343 -0.0416642)
(-0.0361389 0.0306739 -0.118312)
(0.00684315 0.00344041 -0.0299927)
(0.00377514 0.00575541 -0.0546602)
(-0.00810259 0.0252159 -0.055121)
(-0.0199666 0.0128967 -0.0433373)
(-0.00503433 -0.00132295 -0.0186369)
(0.00470803 0.0384554 -0.0819161)
(0.00643025 0.03051 -0.0689078)
(0.00101526 0.0253013 -0.0790513)
(0.00054933 0.0137018 -0.0686659)
(-0.00388577 0.0175439 -0.0620491)
(0.00205362 -0.00436631 -0.0054007)
(0.00684708 0.00343326 -0.0415514)
(-0.00267956 -0.0121698 -0.0278317)
(-0.00319203 -0.0043591 -0.0212842)
(0.00740039 -0.00270766 -0.0689137)
(-0.0069137 0.0158409 -0.0881748)
(-0.00277884 0.000235513 -0.0538645)
(-0.0192395 0.00769676 -0.0403316)
(0.00722019 -0.00372523 -0.0263718)
(-0.0051082 0.0314105 -0.0911236)
(-0.000922095 0.0207954 -0.0915482)
(0.000992168 0.00500458 -0.0722541)
(-0.0109077 0.00793562 -0.0610375)
(-0.00167296 0.00444663 -0.025211)
(-0.00114166 0.000712658 -0.00322151)
(0.00837324 0.00123421 0.0260293)
(-0.000401734 0.00181203 0.00338286)
(0.00522115 -0.00327881 0.0257591)
(0.0035269 0.00207489 0.0289844)
(0.000447706 0.00313436 0.0117659)
(0.00521489 0.00638743 0.0360236)
(0.0137602 -0.0107437 0.035413)
(0.0135768 -0.00132049 0.026177)
(0.00757315 0.00314627 0.0364987)
(0.0125894 0.00804527 0.0505237)
(0.0155732 0.00732696 0.0316575)
(0.014848 0.00862224 -0.00415319)
(0.0160406 0.0095152 0.00333802)
(-0.00236143 0.00352698 -0.02282)
(0.0021207 -0.00393214 0.0103449)
(-0.00663473 0.00662356 -0.0134086)
(-0.00654997 0.0076874 -0.0148014)
(-0.00273395 0.00959166 -0.00277634)
(-0.000595072 -0.000475057 -0.00359091)
(-0.00172952 0.00313926 0.000880853)
(0.000834289 -0.00208148 0.00932125)
(0.00161081 0.00502227 0.0189126)
(0.0136114 0.0161749 -0.0155221)
(0.0139989 0.0340827 -0.00697645)
(0.0124704 0.0251722 -0.0212381)
(0.0186474 0.0146853 -0.00034536)
(0.013166 0.0131305 -0.0148306)
(0.0135233 0.0171925 0.00396793)
(0.0100501 0.0125293 -0.0166073)
(0.00797741 0.0142639 -0.0188683)
(0.00441015 0.00833333 -0.0150511)
(0.00275895 -0.00240432 -0.0153698)
(0.00767531 -0.0121443 -0.0273272)
(0.00806562 -0.00658873 -0.0307265)
(0.00442305 -0.00961869 0.0309676)
(0.00861873 -0.0163657 0.0489775)
(0.0120852 -0.0144292 0.0436103)
(0.00120067 0.00370722 -0.0128731)
(0.000832718 0.000252225 -0.00382031)
(0.00239751 0.00416592 -0.0135681)
(0.00257314 -0.00130648 -0.00859587)
(0.00098045 -0.00121046 -0.00204341)
(0.0100153 0.00089693 -0.0519731)
(0.00105349 0.018169 -0.0665999)
(0.00855937 -0.0159335 0.0570769)
(0.0135304 -0.0117437 0.0501189)
(0.00423502 0.00135052 0.0447881)
(0.000966703 -0.000633596 -0.00145643)
(-0.00483865 -0.00687859 0.00293652)
(0.00375523 -0.00640264 -0.00156493)
(0.00155859 -0.00331344 0.000820269)
(0.00384066 -0.0102131 0.00667811)
(0.00312197 0.0184883 -0.091633)
(0.00373156 0.010826 0.037479)
(0.00451248 0.0385894 -0.0628319)
(0.00722392 0.0217875 -0.096093)
(0.0204743 0.0465114 -0.0687829)
(-0.000285933 0.0268913 0.0294618)
(0.0186968 0.0274193 0.0394588)
(0.0142973 0.0222764 0.0320961)
(0.0178429 0.0320267 0.0378694)
(0.0145671 -0.0224523 0.00278353)
(0.0111951 0.00166918 -0.00527535)
(0.0115375 -0.00682035 -0.000609213)
(0.0212765 -0.0107302 0.0164059)
(0.0137788 -0.0138088 0.0180433)
(0.0225398 -0.0131073 0.0316494)
(0.0164498 -0.0141177 0.0254559)
(0.00781976 -0.0117199 0.013435)
(0.0239714 0.0224989 -0.0862074)
(0.0250755 0.0184686 0.0314765)
(0.00538063 0.0101972 -0.043471)
(0.0074236 0.00749148 -0.043384)
(0.0192811 0.0113424 0.0381591)
(0.0144357 0.00353763 0.0399761)
(0.0145539 -0.00258992 0.0469835)
(0.0227924 -0.0195397 -0.0132259)
(0.00427588 0.00450958 -0.0302992)
(0.0209234 -0.012006 0.0455409)
(0.0213035 -0.0081554 0.0474568)
(0.0139415 -0.00699042 0.055067)
(0.0178044 -0.0109302 0.0389995)
(-0.00326431 0.000724606 -0.00402935)
(-0.00695294 -0.00170644 -0.00154966)
(-0.00420916 0.00061607 0.0194873)
(-0.00596979 0.00276691 0.00746307)
(-0.00517002 0.00312482 0.0292894)
(-0.00881039 -0.00334615 0.0170896)
(-0.0141767 0.00174355 0.00844273)
(-0.0133501 -0.00258841 0.0243243)
(0.0111774 0.00303205 0.04109)
(0.0229865 0.00845275 0.0251279)
(0.000253054 -0.00255476 0.0199122)
(0.0104504 -0.0024018 0.0294349)
(0.0298536 0.00532488 0.021154)
(0.0235614 0.0111794 0.00158735)
(0.0358032 0.00675646 0.00210714)
(0.00316262 -0.0135555 0.0160652)
(0.00066315 -0.0252714 0.0234435)
(-0.00373586 -0.00191179 0.000798229)
(0.00104715 -0.0122826 0.0142295)
(0.00101069 -0.0049348 0.0184022)
(-0.00300666 -0.0118352 0.00478291)
(-0.00655807 -0.00561007 0.00391053)
(0.000518595 -0.0202648 0.0201757)
(0.00214767 -0.00861151 0.0189769)
(0.0144635 0.0118889 -0.00861022)
(0.0200313 0.0175572 0.00624221)
(0.0118366 0.0108921 -0.0112798)
(0.0382059 0.013223 0.00615618)
(0.0216242 0.01645 -0.00265616)
(0.0297117 0.0236034 0.0101867)
(0.0166494 0.0118323 -0.00655438)
(0.00348077 0.0050702 -0.0108304)
(0 0 0)
(0.00574666 -0.0197556 0.0323793)
(0.00292707 -0.0247156 0.045527)
(0.00576241 -0.024667 0.0462676)
(0.00389074 -0.0269717 0.035151)
(0.000633751 -0.0258694 0.0471543)
(0.00167174 -0.0270162 0.0463422)
(0.00111758 -0.0050334 -0.00523405)
(0.000123672 -0.00456493 1.96592e-05)
(0.0051489 0.00216021 -0.00973391)
(0.00180944 -0.0108681 -0.0013188)
(-0.00102801 -0.00955099 0.00281341)
(0.000365137 -0.0259778 0.0712065)
(-0.00195411 -0.0119302 0.0813091)
(-0.00225323 -0.0197518 0.0582935)
(-0.00307635 -0.0181224 0.0677153)
(-0.003447 -0.0021237 0.0787202)
(0.00135159 -0.00656301 0.00294063)
(0.00576328 -0.0146265 0.00968179)
(0.00442967 -0.0138281 0.00246746)
(0.00392119 -0.0018419 0.00397026)
(0.00902415 -0.0189879 0.0103241)
(-0.000558928 0.000223111 0.0705967)
(-0.00076174 0.00621369 0.0761426)
(0.0442138 0.0156702 0.104132)
(0.0154308 0.0191152 0.0669699)
(0.035604 0.0198729 0.0827738)
(0.00209183 0.0147273 0.0805361)
(0.0282933 0.0132418 0.094913)
(0.0130808 0.0177976 0.0739223)
(0.0199862 0.0174684 0.0853121)
(0.0137664 -0.0180734 0.0221276)
(0.0186384 -0.0181878 0.0332604)
(0.0177349 -0.0171356 0.0283636)
(0.0126915 -0.0234154 0.0180782)
(0.0165398 -0.0214047 0.0206217)
(0.0186477 -0.0204788 0.0290952)
(0.0226597 -0.0171264 0.0269662)
(0.0146832 -0.0161695 0.0167413)
(0.0223386 0.0122195 0.0615883)
(0.0157883 0.0108841 0.0712411)
(0.0223147 -0.0196131 0.0659856)
(0.0182091 -0.00298213 0.0686081)
(0.0166201 -0.00655012 0.0617274)
(0.0179642 -0.00936287 0.0566055)
(0.0131712 0.000496251 0.0568797)
(0.0285741 -0.0201782 0.0533144)
(0.0217339 -0.00990499 0.0696406)
(0.0235375 -0.0155395 0.0537102)
(0.0267298 -0.0162601 0.0464445)
(0.0180414 -0.00310371 0.0555278)
(0.0262198 -0.0140209 0.0375799)
(0 0 0)
(0 0 0)
(0 0 0)
(0 0 0)
(0 0 0)
(0 0 0)
(0 0 0)
(0 0 0)
(0 0 0)
(0 0 0)
(0 0 0)
(0 0 0)
(0 0 0)
(0 0 0)
(0 0 0)
(0 0 0)
(0 0 0)
(0 0 0)
(0 0 0)
(0 0 0)
(0 0 0)
(0 0 0)
(0 0 0)
(0 0 0)
(0 0 0)
(0 0 0)
(0 0 0)
(0 0 0)
(0 0 0)
(0 0 0)
(0 0 0)
(0 0 0)
(0 0 0)
(0 0 0)
(0 0 0)