/*--------------------------------*- C++ -*----------------------------------*\
| =========                 |                                                 |
| \\      /  F ield         | OpenFOAM: The Open Source CFD Toolbox           |
|  \\    /   O peration     | Version:  5.x                                   |
|   \\  /    A nd           | Web:      www.OpenFOAM.org                      |
|    \\/     M anipulation  |                                                 |
\*---------------------------------------------------------------------------*/
FoamFile
{
    version     2.0;
    format      ascii;
    class       volScalarField;
    location    "0.75";
    object      voidfraction;
}
// * * * * * * * * * * * * * * * * * * * * * * * * * * * * * * * * * * * * * //

dimensions      [0 0 0 0 0 0 0];

internalField   nonuniform List<scalar> 
10571
(
0.994676
0.655786
0.962478
0.913401
0.563634
0.925255
0.992677
0.960735
0.929233
0.901176
0.922799
0.87793
0.987413
0.870775
0.753523
0.696413
0.551576
0.913337
0.857225
0.582499
0.446543
0.483268
0.69636
0.691586
0.993783
0.939768
0.969385
0.945631
0.806499
0.996456
0.942511
0.957824
0.965592
0.928634
0.999893
0.899466
0.87566
0.961301
0.836943
0.808809
0.944594
0.798521
0.961506
0.859268
0.461834
0.457027
0.820019
0.704881
1
0.987751
0.993886
0.9602
0.780997
0.90914
0.961299
0.98589
0.97052
0.782866
0.627151
0.982224
0.909845
0.987564
0.815278
0.542419
0.999171
0.789728
0.952015
0.783324
0.624133
0.455654
0.552934
0.529415
0.997692
0.967943
0.998253
0.975517
0.812144
0.869771
0.974172
0.993033
0.960671
0.585285
0.814822
0.997376
0.943984
0.988542
0.857968
0.554693
0.808531
0.796194
0.756737
0.730816
0.536686
0.521207
0.465752
0.483318
0.795088
0.493871
0.963865
0.990098
0.893997
0.977146
0.972255
0.995359
0.960154
0.54977
0.897194
0.999966
0.977209
0.997284
0.900906
0.483422
0.982595
0.906283
0.727105
0.576985
0.482892
0.903906
0.461942
0.457886
0.524822
0.897839
0.78095
0.98754
0.907218
0.97885
0.969937
0.994715
0.954323
0.597986
0.507169
0.920717
0.997734
0.976128
0.998346
0.954564
0.752639
0.42117
0.980784
0.965036
0.942958
0.715507
0.457447
0.986254
0.958201
0.67217
0.759692
0.987957
0.973268
0.905986
0.962563
0.988273
0.915652
0.938463
0.926721
0.972164
0.990713
0.991752
0.984134
0.927989
0.981774
0.946603
0.961683
0.993302
0.988692
0.964182
0.970896
0.978913
0.776735
0.955821
0.995199
0.988433
0.983565
0.998131
0.996695
0.993519
0.984528
0.990686
0.993545
0.987456
0.973146
0.986687
0.995616
0.998627
0.993622
0.983287
0.976089
0.925973
0.938526
0.993805
1
0.992451
0.98879
0.972676
0.956549
0.976306
0.998534
0.994269
0.996558
0.996788
0.998791
0.996751
0.997098
0.999018
0.993309
0.995843
0.99622
0.996565
0.995516
0.996271
0.998862
0.996811
0.992117
0.996051
0.993592
0.993644
0.995895
1
0.999128
0.995738
0.996915
0.994156
0.990252
0.994424
0.997735
0.989641
0.996812
0.998376
0.998043
0.999932
0.995936
0.99804
0.998035
0.996658
0.99577
0.998525
1
0.998579
0.997903
0.996918
0.994445
0.996553
0.996512
0.997059
0.995474
0.998252
0.991561
0.993263
0.995259
0.990752
0.994833
0.99664
0.997066
0.995538
0.991377
0.998379
0.999144
0.997356
0.996614
0.989333
0.994502
0.996247
0.996879
0.996548
0.995561
0.994451
0.996331
0.994541
0.995206
0.993752
0.996233
0.994851
0.996467
0.99993
0.994723
0.996304
0.998887
0.99277
0.996966
1
0.998591
0.996506
0.995575
0.99725
0.991533
0.99716
0.997267
0.996854
0.995807
0.99725
0.995911
0.996191
0.995452
0.990989
1
0.994812
0.994625
0.99538
1
1
0.999461
0.997905
0.994683
0.999021
0.998439
0.995924
0.996653
0.997713
0.995602
0.996958
0.997338
0.996445
0.99568
0.994559
0.998827
0.99662
0.994607
0.994625
0.99797
0.998877
0.996437
0.991949
0.996482
0.99888
0.998651
0.997264
0.997927
0.999156
0.997123
0.995798
0.996099
0.996395
0.990434
0.99902
0.997669
0.997162
0.996101
0.996705
0.993897
0.99593
0.996414
0.994625
0.994259
0.997755
0.996497
0.99958
0.994832
0.99888
0.999022
0.999122
0.995884
0.998007
0.997612
0.997598
0.99536
0.995503
0.996921
0.997431
0.998219
0.995903
0.99666
0.99353
0.999128
0.997085
0.996422
0.994558
0.995939
0.996632
0.997977
0.996639
0.99912
0.997816
0.999022
0.995439
0.996365
0.998379
0.997783
0.997371
0.995541
0.998837
0.996811
0.997397
0.997738
0.9965
0.99632
0.99994
0.996482
0.998292
0.996434
0.994157
0.995939
0.998839
0.998249
0.993209
0.992852
0.997816
0.995146
0.996285
0.996905
1
0.997322
0.997179
0.99582
0.9962
1
0.99902
0.997577
0.997626
0.996575
0.995162
0.997625
0.998203
0.997534
0.997396
0.99993
0.998916
0.994745
0.993978
0.998901
0.997312
0.996461
0.995812
0.994082
0.997029
0.997112
0.99769
0.995598
0.998682
0.995162
0.999527
0.999327
0.997352
0.997933
0.998246
1
0.998187
0.997016
0.995894
0.99727
0.99791
0.997313
0.99678
1
0.996752
0.999966
0.996622
0.998528
1
0.99781
0.996577
0.995961
0.997713
0.997581
0.999054
0.997792
0.998649
0.99773
0.999093
1
0.997868
0.998363
0.999032
0.99944
0.997368
0.999124
0.99958
0.99934
0.998936
0.995854
0.999358
0.998108
0.997062
0.99802
0.996845
0.997314
0.998643
1
0.997229
0.998842
0.997654
0.998152
0.996917
0.997956
0.999318
0.997663
0.996128
1
0.997213
1
0.99923
0.987357
0.998264
0.999596
0.998885
0.998528
0.997704
0.998779
0.997617
0.997512
0.996744
1
1
0.998546
0.99789
0.999027
0.99867
1
0.998712
0.999224
0.998064
0.99699
0.998684
0.998792
0.9993
0.996922
1
0.999056
0.998176
0.996846
0.996083
0.997715
0.996657
0.996684
0.994379
0.992634
0.99902
0.999419
0.99861
0.998277
0.998247
0.998377
0.999164
0.998892
0.999967
0.99664
0.998877
0.997404
1
0.990985
0.998376
1
0.997365
0.99982
0.998042
0.998592
0.998192
0.99849
0.997752
1
0.998986
0.999027
0.997719
0.99865
0.998247
0.996483
0.999592
0.99939
1
1
0.998335
0.999124
1
0.9989
0.99748
0.998247
0.997973
0.996545
0.997366
0.998855
0.997713
0.997452
1
0.996812
1
0.999273
0.997313
0.997977
0.999123
0.999188
0.999087
0.999272
0.998398
1
0.998219
1
1
0.993622
0.999776
0.997539
0.995744
0.99994
0.997434
0.998562
0.99744
0.998094
1
0.996812
1
0.999108
0.998467
0.999116
1
0.999128
0.999059
0.998961
0.999032
1
0.998877
1
1
0.990543
0.99832
0.994068
0.998041
0.998197
0.996724
0.999149
0.998588
0.998562
0.997752
1
0.998243
0.999365
0.999175
0.998245
0.999123
0.99988
0.999689
0.999628
1
1
1
0.999124
0.99811
0.997471
0.99832
0.998685
0.99669
0.998258
0.993483
0.998707
0.998035
0.998251
0.998876
1
0.99902
0.999481
0.999369
0.99876
0.999002
1
0.999487
0.999183
1
1
0.998877
0.998792
1
0.99945
0.993561
0.993933
0.99902
0.996486
0.999021
0.998772
0.99873
0.998849
0.999108
0.999121
0.996654
0.999442
0.998432
0.999376
1
0.998286
0.999184
0.999648
0.999065
1
0.998877
1
1
1
0.99664
0.998247
0.996926
0.99964
1
0.998787
0.99848
0.998833
0.997752
0.995712
0.998986
0.999069
0.999098
0.998962
0.99737
1
0.999883
0.999539
1
1
1
1
1
0.993734
0.993729
0.99636
0.997061
0.996576
0.999021
0.998443
0.999328
0.999527
0.999612
1
0.999088
0.999777
0.999326
0.999534
1
0.999128
0.999649
0.999648
1
1
1
0.999124
1
0.993623
0.995016
0.996157
0.999223
0.998708
0.997704
0.998134
0.999332
0.999071
1
0.99989
0.998851
0.999354
0.999439
0.999177
1
1
0.999883
0.999297
1
1
0.998877
1
1
0.99912
0.996416
0.997202
1
0.998978
0.996691
0.999443
0.999021
0.999362
1
1
0.999966
0.9989
0.999326
0.999437
1
1
0.99931
0.999648
0.999032
1
1
1
1
0.99978
1
0.999022
0.99902
0.998918
0.997299
0.999008
0.99881
0.999572
1
0.99956
0.99902
0.999388
0.999439
0.99927
1
1
0.999729
0.999883
1
1
1
1
1
1
0.996639
0.999056
0.999223
0.999129
0.999662
0.998989
0.999328
0.999923
0.998876
0.996811
1
0.999442
0.999775
0.999959
1
1
0.999572
0.999883
1
1
1
0.999124
1
0.9989
0.998376
0.998079
0.998075
0.999129
0.997974
0.999264
0.999263
0.999919
1
1
0.997364
0.999665
0.999775
0.999327
1
0.999429
0.999843
0.999414
0.999032
1
1
1
1
1
1
0.999022
0.999324
1
0.999021
0.999813
0.999777
1
1
0.996812
0.99902
0.999665
0.999775
0.999882
1
0.99982
1
1
1
1
0.998877
1
1
1
0.999048
0.999022
1
1
1
0.999592
0.999889
0.999883
1
1
0.998851
0.999592
0.999926
0.999882
0.999123
1
0.999883
0.999842
1
1
1
1
1
1
1
1
1
1
0.999021
0.99934
0.999816
0.999883
1
0.996812
1
0.999519
0.999551
0.999765
1
0.999128
0.999883
1
1
1
1
1
1
1
1
1
1
1
1
0.999779
0.999889
1
1
0.997911
0.998749
0.999773
0.999775
0.999996
1
1
1
0.999766
1
1
1
1
1
1
1
0.998247
1
1
1
0.999889
1
1
1
1
1
0.999665
0.999888
0.999769
1
1
1
1
1
1
1
1
1
1
1
1
1
1
1
0.999779
0.999889
1
1
1
0.999054
0.999888
1
1
1
1
0.999883
1
1
1
1
1
1
1
1
1
1
1
1
1
1
1
1
1
1
1
1
1
1
1
1
1
1
1
1
1
1
1
1
1
1
1
0.998413
1
0.999927
1
1
1
1
1
1
1
1
1
1
1
1
0.9993
1
1
1
1
1
1
1
1
1
1
1
1
1
1
1
1
1
0.999882
1
1
1
1
1
1
1
1
1
1
1
1
1
1
1
1
1
1
1
1
1
1
1
1
1
1
1
1
1
1
1
1
1
1
1
1
1
1
1
1
1
1
1
1
1
1
1
1
1
1
1
1
1
1
1
1
1
1
1
1
1
1
1
0.999889
1
1
1
1
1
1
1
1
1
1
1
1
1
1
1
1
1
1
1
1
1
1
1
1
1
1
1
1
1
1
1
1
1
1
1
1
1
1
1
1
1
1
1
1
1
1
1
1
1
1
1
1
1
1
1
1
1
1
1
1
1
1
1
1
1
1
1
1
1
1
1
1
1
1
1
1
1
1
1
1
1
1
1
1
1
1
1
1
1
1
1
1
1
1
1
1
1
1
1
1
1
1
1
1
1
1
1
1
1
1
1
1
1
1
1
1
1
1
1
1
1
1
1
1
1
1
1
1
1
1
1
1
1
1
1
1
1
1
1
1
1
1
1
1
1
1
1
1
1
1
1
1
1
1
1
1
1
1
1
1
1
1
1
1
1
1
1
1
1
1
1
1
1
1
1
1
1
1
1
1
1
1
1
1
1
1
1
1
1
1
1
1
1
1
1
1
1
1
1
1
1
1
1
1
1
1
1
1
1
1
1
1
1
1
1
1
1
1
1
1
1
1
1
1
1
1
1
1
1
1
1
1
1
1
1
1
1
1
1
1
1
1
1
1
1
1
1
1
1
1
1
1
1
1
1
1
1
1
1
1
1
1
1
1
1
1
1
1
1
1
1
1
1
1
1
1
1
1
1
1
1
1
1
1
1
1
1
1
1
1
1
1
1
1
1
1
1
1
1
1
1
1
1
1
1
1
1
1
1
1
1
1
1
1
1
1
1
1
1
1
1
1
1
1
1
1
1
1
1
1
1
1
1
1
1
1
1
1
1
1
1
1
1
1
1
1
1
1
1
1
1
1
1
1
1
1
1
1
1
1
1
1
1
1
1
1
1
1
1
1
1
1
1
1
1
1
1
1
1
1
1
1
1
1
1
1
1
1
1
1
1
1
1
1
1
1
1
1
1
1
1
1
1
1
1
1
1
1
1
1
1
1
1
1
1
1
1
1
1
1
1
1
1
1
1
1
1
1
1
1
1
1
1
1
1
1
1
1
1
1
1
1
1
1
1
1
1
1
1
1
1
1
1
1
1
1
1
1
1
1
1
1
1
1
1
1
1
1
1
1
1
1
1
1
1
1
1
1
1
1
1
1
1
1
1
1
1
1
1
1
1
1
1
1
1
1
1
1
1
1
1
1
1
1
1
1
1
1
1
1
1
1
1
1
1
1
1
1
1
1
1
1
1
1
1
1
1
1
1
1
1
1
1
1
1
1
1
1
1
1
1
1
1
1
1
1
1
1
1
1
1
1
1
1
1
1
1
1
1
1
1
1
1
1
1
1
1
1
1
1
1
1
1
1
1
1
1
1
1
1
1
1
1
1
1
1
1
1
1
1
1
1
1
1
1
1
1
1
1
1
1
1
1
1
1
1
1
1
1
1
1
1
1
1
1
1
1
1
1
1
1
1
1
1
1
1
1
1
1
1
1
1
1
1
1
1
1
1
1
1
1
1
1
1
1
1
1
1
1
1
1
1
1
1
1
1
1
1
1
1
1
1
1
1
1
1
1
1
1
1
1
1
1
1
1
1
1
1
1
1
1
1
1
1
1
1
1
1
1
1
1
1
1
1
1
1
1
1
0.72764
0.833586
0.879744
0.837298
0.771305
0.74111
0.576269
0.516353
0.517087
0.552375
0.758383
0.594117
0.839526
0.918949
0.910003
0.920511
0.87971
0.853415
0.732138
0.886095
0.832416
0.567101
0.505422
0.727083
0.569249
0.540457
0.647774
0.610497
0.681568
0.694587
0.855539
0.755054
0.879868
0.859115
0.817945
0.853622
0.821726
0.77328
0.720906
0.777675
0.690205
0.753668
0.628629
0.692983
0.641872
0.587075
0.556969
0.56429
0.562815
0.610754
0.567091
0.670837
0.689089
0.597414
0.624919
0.759974
0.717503
0.591124
0.607002
0.716138
0.773089
0.756374
0.900972
0.875137
0.870986
0.780097
0.631829
0.739999
0.814642
0.568625
0.546208
0.605285
0.776137
0.604252
0.714218
0.537094
0.502287
0.652191
0.63322
0.619928
0.806908
0.518871
0.612854
0.659251
0.520112
0.608666
0.526446
0.517842
0.589529
0.696272
0.733962
0.74538
0.579374
0.546291
0.72402
0.577093
0.90625
0.980203
0.973592
0.922611
0.914894
0.985257
0.982957
0.967182
0.92427
0.806755
0.995651
0.969203
0.918223
0.436217
0.5766
0.570426
0.969788
0.937528
0.77123
0.974459
0.797144
0.937065
0.882758
0.919464
0.448485
0.803396
0.598325
0.772926
0.508884
0.846618
0.781509
0.639591
0.817536
0.81856
0.875211
0.873259
0.971773
0.989499
0.963543
0.709695
0.802498
0.734958
0.722515
0.830645
0.919012
0.759776
0.988757
0.992943
0.885936
0.906496
0.484283
0.839737
0.932638
0.4783
0.611467
0.943047
0.60759
0.442248
0.464195
0.915776
0.659231
0.677878
0.482035
0.44828
0.624747
0.44752
0.794481
0.422796
0.758163
0.430244
0.454136
0.46747
0.416698
0.603601
0.52966
0.470538
0.607851
0.486254
0.713655
0.576225
0.681898
0.658316
0.47449
0.798168
0.975052
0.989246
0.996891
0.995876
0.992603
1
0.990361
0.999143
0.969917
0.924319
1
0.970826
0.924864
0.691996
0.686334
0.999339
0.998027
0.968231
0.972969
0.909807
0.975497
0.981692
0.993404
0.958342
0.518601
0.894853
0.758684
0.786312
0.527774
0.96915
0.718733
0.73454
0.610117
0.996465
0.997534
0.994215
0.989453
0.907031
0.780571
0.98681
0.990776
0.98642
0.985293
0.88911
0.983705
0.950788
0.94624
0.737828
0.839445
0.954324
0.487609
0.643053
0.74997
0.506687
0.999139
0.733651
0.856691
0.944627
0.664354
0.990611
0.935438
0.936715
0.796869
0.435704
0.79572
0.449279
0.838458
0.479684
0.755445
0.498882
0.519093
0.430289
0.470051
0.584319
0.460733
0.457707
0.492848
0.456889
0.837659
0.541176
0.699674
0.751247
0.508874
0.608437
0.975145
0.976239
1
0.997395
0.999132
1
0.993601
0.999066
0.989186
0.946764
1
0.990804
0.927688
0.691705
0.651197
0.981645
0.9064
0.985508
0.98315
0.965436
0.990401
0.991841
0.956108
0.965189
0.542944
0.975571
0.716504
0.800934
0.557671
0.973628
0.788652
0.529541
0.498899
0.715572
0.607458
0.523183
0.530724
0.634375
0.72863
0.789621
0.653752
0.617968
0.635635
0.589318
0.607548
0.756416
0.651827
0.893943
0.91656
0.635266
0.529703
0.534655
0.616001
0.527094
0.78482
0.842917
0.97823
0.810488
0.75542
0.969927
0.981287
0.728783
0.840699
0.500715
0.677072
0.517175
0.738129
0.482335
0.585516
0.509477
0.598361
0.465468
0.529631
0.456757
0.4486
0.472385
0.453273
0.449268
0.600574
0.48074
0.504875
0.522835
0.465627
0.529275
0.969918
0.959376
0.987362
0.963519
0.989149
0.899628
0.959849
0.968559
0.990627
0.916644
0.888319
0.978112
0.893567
0.589447
0.548969
0.694414
0.582592
0.982575
0.843484
0.949531
0.725773
0.944206
0.558927
0.834009
0.591041
0.969542
0.825325
0.847559
0.68387
0.981697
0.829695
0.514468
0.503166
0.690705
0.864496
0.94459
0.920927
0.930408
0.976031
0.608675
0.574968
0.593582
0.595896
0.561516
0.962594
0.953091
0.879397
0.977899
0.952778
0.638468
0.511748
0.527266
0.623715
0.496421
0.869534
0.922101
0.971704
0.700304
0.916245
0.959829
0.988639
0.925599
0.960064
0.461278
0.505233
0.467159
0.64758
0.456464
0.462004
0.468173
0.497671
0.714871
0.82413
0.443701
0.445891
0.695646
0.48492
0.461263
0.482885
0.458884
0.441606
0.46004
0.453975
0.465066
0.864443
0.492641
0.830349
0.917657
0.963123
0.712578
0.646767
0.895883
0.969466
0.869377
0.694147
0.931605
0.722038
0.566267
0.575602
0.749809
0.878307
0.694897
0.675707
0.754918
0.643577
0.60705
0.905726
0.883504
0.753603
0.970204
0.797448
0.9002
0.829043
0.9509
0.814218
0.486682
0.469716
0.953136
0.940405
0.97829
0.939003
0.892789
0.952603
0.565547
0.524858
0.473237
0.536972
0.682879
0.969196
0.93139
0.910053
0.966311
0.924837
0.563079
0.474464
0.53249
0.694901
0.480063
0.94057
0.941891
0.985268
0.971652
0.954874
0.982289
0.989542
0.9811
0.967335
0.454883
0.438333
0.476081
0.567684
0.451704
0.434059
0.454455
0.456089
0.876655
0.961308
0.767045
0.722553
0.961048
0.957155
0.916256
0.454308
0.484681
0.7289
0.481475
0.780623
0.439437
0.573053
0.859188
0.525423
0.55449
0.677551
0.490907
0.759497
0.701978
0.814047
0.706418
0.482284
0.728649
0.792818
0.665799
0.87778
0.950471
0.98349
0.84883
0.956193
0.953663
0.964432
0.95451
0.989479
0.971924
0.890193
0.966001
0.89042
0.922258
0.923107
0.929575
0.871906
0.62274
0.904248
0.96528
0.898943
0.942784
0.983394
0.96646
0.946778
0.681933
0.732374
0.571497
0.853869
0.927422
0.958832
0.954101
0.437186
0.430406
0.390004
0.901374
0.913873
0.847698
0.828873
0.96561
0.895439
0.951065
0.954607
0.954184
0.526613
0.489246
0.610808
0.954351
0.886355
0.585151
0.538865
0.388753
0.453614
0.426755
0.78992
0.774552
0.660877
0.818174
0.960236
0.983466
0.98687
0.982562
0.975992
0.992481
0.991781
0.98048
0.979835
0.459971
0.674933
0.477513
0.959735
0.649412
0.942179
0.773937
0.504503
0.984187
0.984187
0.986889
0.984196
0.991133
0.992445
0.990342
0.848558
0.967187
0.991843
0.975506
0.993635
0.95257
0.966121
0.987313
0.791209
0.936128
0.911286
0.988785
0.983741
0.977769
0.913351
0.932483
0.967132
0.986879
0.981764
0.971652
0.992209
0.989132
0.992337
0.975965
0.988525
0.980683
0.994119
0.992178
0.985484
0.978922
0.961212
0.859872
0.914936
0.985451
0.988038
0.954713
0.971528
0.979797
0.978929
0.993384
0.997397
0.988414
0.990678
0.998288
0.997938
0.991407
0.989333
0.968496
0.990864
0.996811
0.990973
0.989803
0.987086
0.993207
0.986181
0.997931
0.98783
0.997265
0.993704
0.99237
0.990494
0.998639
0.999148
0.998397
0.998262
0.969121
0.987452
0.996811
0.995939
0.989039
0.978735
0.693889
0.864105
0.975481
0.997393
0.888332
0.98844
0.991897
0.961275
0.978742
0.998398
0.995756
0.990375
0.989197
0.983605
0.990163
0.988681
0.985599
0.98253
0.984841
0.952999
0.999944
0.982227
0.926647
0.975597
0.950351
0.968386
0.943022
0.986278
0.981396
0.877748
0.934614
0.972631
0.981019
0.987475
0.999499
0.989435
0.99944
0.995438
0.993744
0.994347
0.996495
1
0.982653
0.99989
0.997614
0.994569
0.990124
0.996019
0.994702
0.999582
0.982958
0.995781
0.993337
0.994722
0.99849
0.997062
0.991213
0.992606
0.996153
0.995121
0.994385
0.992698
0.995267
0.997004
0.997422
0.996194
0.994546
0.991041
0.995127
0.998292
0.997943
0.993387
0.985245
0.986629
0.98891
0.994767
0.99363
0.993941
0.992594
0.997428
0.997438
0.995864
0.99777
0.998528
1
1
0.999509
0.997252
0.993622
0.996486
1
1
0.99382
0.998956
0.988465
0.998159
0.997294
1
0.992171
0.997173
1
0.999221
0.999967
0.999013
0.999358
1
1
0.997364
0.996863
0.998131
0.995818
0.996631
0.99724
0.974053
0.998612
0.997393
1
0.991806
1
1
0.999172
0.997268
1
1
0.999267
0.999897
0.997977
0.997907
0.983234
0.995612
0.993793
0.99606
0.997096
0.996681
0.998123
0.965628
0.991211
0.993136
0.980807
0.98667
0.998233
0.992844
0.991407
0.99491
1
0.997644
1
0.999266
1
0.997621
0.998943
0.988147
0.996322
0.996435
0.993635
0.995113
0.99583
0.994745
0.995267
0.998903
0.990425
0.997978
0.995957
1
0.997019
0.998213
1
0.996787
0.998455
0.996212
0.995817
0.996812
0.997303
0.994461
0.995819
0.99177
0.999303
0.994148
0.996524
0.998838
0.998436
1
0.999131
0.998838
0.99645
0.995227
0.993777
0.9956
0.994785
0.994429
0.995764
0.99431
0.991592
0.993614
0.997755
0.996811
0.997516
1
0.993622
0.999303
0.99894
0.996482
0.997275
0.992789
0.996228
0.994387
0.999628
1
1
1
1
1
1
1
0.997455
0.994462
0.997691
0.995576
1
0.997884
0.992841
0.999872
0.992906
0.998988
0.994116
0.998374
1
1
1
0.997766
1
1
1
0.994
0.995256
0.994191
1
0.995913
0.993053
0.993334
0.9919
0.995761
0.99603
0.996151
0.9957
0.992577
0.996636
0.995723
0.991996
0.997997
0.996012
0.995242
0.998006
0.996817
0.999961
0.995227
0.990671
0.997905
0.994733
0.995078
0.995267
0.996598
0.988932
0.997979
0.997979
1
0.996633
0.99682
0.993623
0.998839
0.997093
0.998333
0.99663
1
0.997425
0.999961
0.997977
0.996025
0.995263
1
0.999131
0.999136
0.999967
1
1
0.998957
1
0.995961
0.997343
0.99563
0.995339
0.996124
0.998677
0.992231
0.99788
0.997931
0.995007
0.990433
0.998273
0.996594
1
0.996517
0.993107
0.993221
0.993339
0.993767
0.987262
0.995606
0.997754
1
0.998303
0.997948
0.985343
0.995848
0.992081
1
0.997265
0.996582
0.996024
0.996139
0.996681
0.996882
0.997354
0.999373
0.989875
0.991402
0.993395
0.993018
0.989231
0.993773
0.995594
0.996165
0.999944
0.993715
0.994613
0.994543
0.991088
0.996817
0.992876
0.999094
0.98661
0.989763
0.99572
0.99535
0.996318
0.989795
0.993907
0.997979
1
0.9989
0.997794
0.999122
1
0.998839
0.9957
0.997334
0.9976
0.993513
1
0.994117
0.995957
0.993935
0.99596
0.99798
0.996585
0.998868
0.996224
0.99832
0.999131
0.99854
0.999967
0.995001
0.995844
0.994402
0.998799
0.993485
0.999967
0.994922
0.996237
0.995743
0.996052
0.996811
0.999152
0.997368
0.996811
0.997183
0.99654
0.992042
0.989577
0.998336
0.993517
0.997667
0.998877
1
0.998243
0.998877
1
0.996928
0.995497
0.992315
1
0.995954
0.997001
0.996503
0.998313
0.994188
0.997835
0.998417
0.998425
0.995157
0.997681
0.993158
0.991755
0.998131
0.997684
0.992461
0.992884
0.993924
0.997201
0.990835
0.993838
0.99539
0.989895
0.993959
0.989903
0.993685
0.994074
0.990428
0.996901
0.99583
0.99594
0.997979
1
0.9989
0.997756
0.998547
1
0.998878
0.999697
0.998062
0.994659
1
0.9937
0.997794
0.994632
0.99519
0.99798
0.99596
0.999401
0.997974
0.998568
0.99944
0.999431
0.998272
0.99808
0.993934
0.991172
0.998126
0.997657
0.99455
0.996508
0.995615
0.993503
0.990491
0.997755
0.9989
0.993852
0.996633
0.996921
0.998243
0.99253
0.99626
0.995079
0.997247
0.993509
0.997334
0.995779
0.99989
0.998818
0.994153
0.989011
0.993655
0.992535
0.997692
0.992841
0.99721
0.994838
0.995548
0.991901
0.99222
0.994408
0.997461
0.9973
0.997366
0.993202
0.992765
0.995199
0.99723
0.991218
0.995075
0.995875
0.992373
0.995662
0.997551
0.990305
0.996049
0.998877
0.99707
0.986939
0.993609
0.990013
0.993297
0.990859
1
0.991879
0.997979
0.997909
1
0.997021
0.999606
1
0.998491
0.999122
0.995002
0.998955
0.998131
0.995517
0.99849
1
0.993237
1
0.99798
0.998832
0.99857
0.999089
1
0.998652
0.999702
0.997299
0.996235
0.995684
0.999123
0.996635
0.999382
0.998583
0.998245
0.995943
0.995943
0.998065
0.993622
0.999182
0.998878
1
0.998516
0.993222
0.996809
0.996666
0.992949
0.996809
0.997698
0.996089
1
0.997092
0.999264
0.997362
0.996013
0.992442
0.997912
0.99458
1
0.997907
0.997758
0.99775
0.996489
0.998076
0.998714
0.995725
0.994461
0.993046
0.997841
0.990732
0.996828
0.995729
0.994102
0.996213
0.994049
0.996362
0.989156
0.998218
0.997805
0.994425
0.997372
0.99572
0.997715
0.999122
0.996799
0.997753
1
0.99825
0.9977
0.992682
1
0.999265
1
1
0.996672
0.998214
0.997516
0.995819
1
0.998486
0.996168
0.996584
0.991773
1
0.99993
0.995597
0.998123
0.999675
0.997872
0.997933
0.997438
1
0.998932
0.996573
0.996369
0.996785
0.99764
0.994695
0.994614
0.996222
0.994893
0.997755
0.993733
0.995912
0.99822
1
0.997335
0.999122
1
0.995852
0.995642
1
0.998273
0.998064
0.996701
0.997304
0.998103
0.993735
0.994618
0.9974
0.996813
0.996399
0.995536
0.994559
0.998153
0.996682
0.998214
0.996242
0.996505
0.996738
0.995641
0.995089
0.99547
0.996326
0.995459
0.993533
0.994314
0.997796
0.997269
0.997971
0.997971
0.998792
0.993634
0.995974
0.996436
0.997915
0.992408
1
0.997373
0.996979
0.996817
0.995239
0.997979
0.997979
1
0.996285
0.997033
0.991533
0.998878
0.998547
0.995275
0.997755
0.990434
0.998637
0.997755
0.998048
0.995817
0.99798
0.99603
0.999131
0.997438
0.997169
0.998376
0.998562
0.997795
0.998731
0.988929
0.998089
0.995552
0.994292
0.993481
0.998122
0.998215
0.9993
0.998671
0.997755
1
0.997396
0.997755
1
0.998244
0.999092
0.99659
0.996162
0.996853
1
0.996274
0.99516
1
0.996486
0.999264
0.995164
0.997754
0.995586
0.997912
0.996244
0.994071
0.997977
0.996702
0.998369
0.995914
0.998256
0.996801
0.996682
0.996519
0.996461
0.995014
1
0.996728
0.994051
0.998206
0.998305
0.99923
0.996012
0.997901
0.998218
0.993634
0.997793
0.997403
1
0.99481
0.99989
0.99381
0.995352
0.998134
0.996639
1
1
1
0.998723
0.996609
0.997911
0.999807
0.998062
0.995002
0.998142
0.996702
0.9927
0.998723
0.991913
0.99742
1
0.99798
0.997065
0.997736
0.999414
0.99832
0.999371
0.998987
0.998145
0.996853
0.999934
0.996672
0.997987
0.996741
0.998089
0.998336
0.99993
0.997761
0.997755
1
0.99894
0.99969
0.99989
0.994912
0.998094
1
0.994108
0.992828
0.993729
0.997364
0.998877
0.996921
0.997364
0.998877
0.998901
0.994076
0.997672
0.99989
0.994812
0.998675
0.99993
0.995812
0.998313
0.997397
0.995731
0.994559
0.998369
0.999001
0.997193
0.996139
0.99514
0.994458
0.999939
0.996595
0.99514
0.99797
0.995942
0.99958
0.996497
0.99572
0.997251
1
0.997915
0.995004
0.993635
0.996829
0.997366
0.996817
1
0.998676
0.999303
0.994391
0.998568
0.998244
0.998241
0.996634
0.994156
0.994851
0.99849
0.995383
0.997365
0.997755
0.996374
0.993936
0.996309
0.997632
0.997964
0.997974
0.998438
0.995688
0.999131
0.99997
0.999056
0.999213
0.993179
0.997852
0.995824
0.994831
0.997232
0.999002
0.990764
0.993915
0.998607
0.996811
0.998758
0.995123
1
0.998243
0.996459
0.99989
0.99907
0.99531
1
1
0.998877
1
0.997303
0.998141
1
0.997406
0.995314
0.996813
1
0.996024
0.99993
0.998286
0.996738
0.99997
0.997204
0.996867
0.998875
0.995611
0.996797
0.994892
0.996213
0.996594
0.999756
0.998541
0.996779
0.99678
0.995942
1
0.999517
1
0.998877
0.998701
1
0.996862
1
0.994052
0.999768
1
0.99797
0.993519
0.999303
1
0.997717
0.99561
0.996811
0.998878
0.997941
0.996517
0.996672
0.991532
0.995183
0.998916
0.993865
0.998606
0.998677
0.995263
0.997275
0.996783
0.999122
0.998376
1
0.999136
1
0.992693
0.997364
0.998154
0.993931
0.999607
0.995485
0.999274
0.997971
1
0.998878
0.996812
0.997366
0.998142
0.99956
0.996486
0.995309
1
0.995543
0.995794
0.99681
0.998728
0.999613
0.998241
0.996485
1
1
0.999264
0.9974
0.996813
0.9976
0.994002
0.997977
0.998022
0.999438
0.999122
1
0.996867
1
0.998244
0.999268
0.997872
0.997062
0.99646
0.997803
0.995895
0.995534
0.99986
0.998811
0.998951
0.999698
1
0.997909
0.997372
1
0.997638
0.999561
0.996195
0.998605
1
0.995939
0.99777
0.996445
1
0.999613
0.997941
0.996811
0.995782
0.995881
0.998546
0.999265
1
0.997274
0.998026
0.999303
0.997908
1
0.99596
0.998143
1
0.998731
1
0.998382
0.999434
0.999024
0.997303
0.998847
0.996491
0.99384
0.999438
0.994397
0.996127
0.998391
0.998321
0.999613
0.996152
0.998244
0.997755
1
1
0.995462
0.99681
0.996123
0.999122
0.996809
0.997213
0.999923
0.997911
0.997485
0.997754
1
0.997832
0.999123
1
0.998916
1
0.997977
0.996044
0.995106
0.999122
0.996813
1
0.995107
0.997942
0.99698
0.99845
0.996158
0.998397
0.999146
0.999331
0.998304
0.997899
0.996292
0.996642
0.998551
1
0.99849
0.99562
0.996817
0.99849
1
0.999094
0.997056
1
1
0.995958
1
0.994283
0.998452
0.992643
1
0.997369
0.997638
0.997426
0.998104
0.995381
0.995607
0.995548
0.997909
0.991075
0.998259
0.997423
0.995867
0.997557
0.999382
0.997816
0.996825
0.999136
0.998405
0.991909
0.996376
0.997398
0.996575
0.998314
0.995419
0.998184
1
0.996432
0.998878
1
0.998244
0.99822
0.997471
0.997395
0.996732
1
0.996588
0.994461
0.996809
0.999122
0.998877
0.9989
0.997485
0.997754
0.996813
0.998568
0.99749
1
1
1
1
1
0.999944
0.998245
0.999128
0.998087
1
0.998819
0.999115
0.997507
1
0.999032
0.998413
0.999118
0.996722
0.99993
0.998041
0.99881
0.997222
1
0.999845
0.999154
1
0.998877
0.996817
0.998128
0.999535
0.996817
1
0.995958
1
1
0.995551
0.998244
1
0.998568
0.996548
0.996063
0.998723
1
0.995608
0.996632
0.993934
0.994632
1
0.99791
0.993891
0.99717
0.996226
0.998376
0.998382
0.998838
0.998731
0.995167
0.996178
0.999123
0.994862
0.999888
0.995847
0.997367
0.99958
1
0.99644
0.996812
0.997396
0.996904
1
0.999091
0.997337
1
0.99779
0.996459
1
0.996486
1
1
0.99803
1
1
0.997329
0.996795
1
0.998877
1
1
0.999374
0.999775
0.997791
0.999128
0.997098
0.999438
0.998244
0.997987
0.998541
1
0.999032
0.999512
0.998996
0.998191
1
0.993634
0.995942
0.998248
0.995719
1
0.998429
0.997915
0.995391
1
0.999154
1
1
0.997969
0.997909
0.998048
0.996812
0.99795
0.996488
1
0.994582
0.997244
0.997093
0.997755
0.99934
0.995578
0.994774
1
0.99526
1
0.997353
0.999131
0.998272
0.999252
0.998376
0.997604
0.998212
0.997201
0.99837
0.998089
0.999153
0.996154
0.99674
0.995485
0.997034
0.994264
0.99965
0.993422
0.998901
0.998971
0.997755
0.993622
0.999152
0.998366
1
0.99779
0.997791
0.996809
0.997001
0.99849
0.9989
0.997061
0.998141
1
0.99849
0.998276
1
1
0.997977
1
0.999637
0.997075
0.997367
0.99997
0.999373
0.999944
0.998244
0.999054
0.999118
0.999548
1
0.996156
1
1
0.993208
1
1
0.999819
0.994732
1
0.999124
0.998903
0.998877
1
0.998339
1
0.999561
0.997969
0.999582
0.9977
0.996922
0.99822
0.997699
0.996811
0.998839
0.997123
0.999394
0.998877
1
0.995729
0.999845
0.995956
0.996654
0.995124
0.992408
0.998533
0.997825
0.99782
0.996192
0.997723
0.997497
0.998503
0.99837
0.998089
0.999697
0.996755
0.996741
0.998418
0.99767
0.997971
0.99993
0.997794
0.996811
0.997396
0.996439
0.990434
0.999091
0.998003
0.99681
0.998798
0.999183
1
0.999122
0.998877
0.996811
0.997364
0.998877
1
0.998877
1
1
0.99849
1
1
0.999967
0.998425
0.997367
0.999158
0.999406
0.999944
0.997972
0.99942
0.999118
0.998361
1
0.998078
0.997658
0.9987
0.997969
0.99972
1
0.999668
1
0.999613
0.999275
1
1
0.996817
1
0.999341
1
1
0.995958
0.997979
0.988344
0.998143
0.998213
0.996372
0.996208
0.996972
0.997759
0.996168
0.997251
0.999091
0.997561
0.996653
0.999303
1
1
0.998263
0.999017
0.997202
0.992608
0.998232
0.998689
0.997559
1
0.997793
0.997368
0.999129
0.998314
0.996506
0.997428
0.996083
0.997901
0.999033
0.996811
0.997547
0.998258
0.996811
0.99473
0.999123
0.99362
1
0.999122
1
0.997334
0.99818
1
0.996182
1
1
0.998877
0.998246
1
0.998916
1
1
0.998088
0.999888
1
0.999128
1
0.998369
0.999879
1
0.999118
0.999435
1
0.999512
1
1
0.99867
1
0.998251
0.998732
1
1
1
1
1
1
0.999124
1
1
1
0.993937
0.99993
0.990432
0.994544
0.994125
0.996812
0.994313
0.998274
0.999091
0.997639
1
0.992095
0.999613
0.99993
0.995956
0.994359
0.999303
0.999641
0.998749
0.996584
0.992999
0.996645
0.996246
0.997852
0.996629
0.999077
0.997429
0.998077
0.99837
0.995715
0.997942
1
1
0.999613
0.998901
0.996487
0.997949
0.998021
0.996517
0.99997
0.99362
0.997752
0.998245
1
0.999697
0.998877
0.99989
0.997667
1
1
0.997755
0.998246
1
0.997793
0.997978
1
0.998714
1
1
0.999188
0.999307
1
0.997972
0.998414
1
1
0.998063
0.999115
0.998419
0.998587
1
1
1
0.998248
1
1
0.999124
0.993635
1
1
1
0.998683
0.996817
0.998389
0.996028
0.995052
0.996811
0.994042
0.996518
0.993623
0.994157
0.990431
0.997335
0.997793
0.992745
0.995669
0.994813
0.997838
0.997909
0.99798
0.99805
0.997395
0.995681
0.998731
0.998376
0.993948
0.994846
0.998243
0.996853
0.998715
0.999123
0.997957
0.99837
0.99967
0.999122
0.995943
0.997971
0.999574
1
0.999091
0.999226
1
1
0.999123
0.99362
1
0.999122
1
0.999152
0.998838
1
0.998546
0.999613
1
0.998877
0.999123
1
0.999961
0.998256
1
0.999044
1
0.999425
0.999128
1
1
0.999122
0.998749
0.998814
0.999039
0.999032
0.999115
0.999118
1
0.998039
1
1
1
1
1
0.999124
1
0.999923
1
0.998883
0.998489
1
1
0.997979
0.997979
0.993621
0.995976
0.993399
0.987247
0.997524
0.994308
0.993458
0.997368
0.99934
0.996396
0.9976
0.996514
0.996584
0.995961
0.995959
0.999161
0.997885
0.997658
0.996752
0.996525
0.994219
0.997494
0.999213
0.997134
0.998003
0.996004
0.999775
0.997693
0.998184
1
0.997971
0.998104
1
0.999152
0.99849
1
0.999122
0.999092
1
0.999767
0.999122
1
0.998819
0.999264
1
1
1
0.994066
1
0.998488
1
0.99969
1
1
1
1
0.998547
0.999098
1
0.996794
0.999697
1
0.999118
1
0.999032
1
1
0.998361
1
0.998321
0.99965
0.999426
1
0.998877
1
1
1
1
1
0.999961
1
1
0.996725
0.997142
0.990432
0.992377
0.995125
0.991535
0.995898
0.996367
0.997244
0.994581
0.999121
0.997789
0.995935
0.996863
0.994352
1
0.99596
0.996227
0.998093
0.996844
0.996752
0.992241
0.998212
0.996258
0.994606