/*--------------------------------*- C++ -*----------------------------------*\
| =========                 |                                                 |
| \\      /  F ield         | OpenFOAM: The Open Source CFD Toolbox           |
|  \\    /   O peration     | Version:  5.x                                   |
|   \\  /    A nd           | Web:      www.OpenFOAM.org                      |
|    \\/     M anipulation  |                                                 |
\*---------------------------------------------------------------------------*/
FoamFile
{
    version     2.0;
    format      ascii;
    class       volVectorField;
    location    "7.55";
    object      U;
}
// * * * * * * * * * * * * * * * * * * * * * * * * * * * * * * * * * * * * * //

dimensions      [0 1 -1 0 0 0 0];

internalField   nonuniform List<vector> 
10571
(
(-0.0219958 0.167013 0.766658)
(-0.00365123 0.0734498 0.602144)
(0.0360522 0.0421774 0.83518)
(-0.0636967 -0.0379722 0.863159)
(-0.226282 -0.137125 0.866447)
(-0.0372892 0.133254 0.73759)
(-0.359929 -0.162981 0.874698)
(-0.121825 -0.367827 0.968994)
(-0.0670232 -0.283192 0.963173)
(-0.0214583 -0.0892382 0.879597)
(0.180595 0.0489601 0.674352)
(-0.0432933 0.0122144 0.726952)
(-0.51029 0.109593 0.938754)
(-0.163701 0.074208 0.937468)
(0.0329528 0.118251 0.973231)
(0.0649787 0.12248 0.854465)
(0.0241936 -0.0148943 0.661858)
(-0.419682 0.188867 1.12604)
(-0.129791 0.466418 0.973724)
(0.116163 0.352782 0.901848)
(-0.141315 0.195065 0.86045)
(0.0593935 0.0754165 0.741477)
(-0.0521118 0.146679 0.742122)
(-0.146059 0.058026 0.705233)
(-0.369051 -0.105641 0.804907)
(-0.15763 0.22723 0.607868)
(-0.605397 0.368866 0.913595)
(-0.571415 -0.0669244 1.27332)
(-0.241179 -0.271791 1.00539)
(-0.490734 1.00371 0.846699)
(0.0268446 0.0838843 0.367802)
(0.0246207 0.0711956 0.388386)
(-0.041024 0.0583074 0.438399)
(-0.171921 -0.0130154 0.831311)
(-0.100816 0.792941 0.600698)
(0.0575494 1.00311 0.968206)
(0.0534509 0.05692 0.42981)
(0.0112077 0.0367508 0.368715)
(-0.0594347 0.00613908 0.409319)
(-0.112907 0.0775404 0.585355)
(0.651477 0.753433 0.86202)
(0.125055 0.0906788 0.485321)
(-0.0149262 0.0418322 0.463076)
(-0.045407 0.120266 0.878868)
(-0.222387 0.555838 0.913293)
(1.40792 0.594694 1.26894)
(-0.0331648 0.404035 1.59071)
(-0.619652 0.845132 1.17166)
(-0.0414493 -0.00780191 0.352727)
(-0.0169236 -0.00663059 0.230691)
(-0.157716 0.0233614 0.324336)
(0.0175914 0.140173 0.971943)
(0.167193 0.0674197 0.308175)
(0.0077592 -0.0944929 0.221177)
(0.153612 0.163951 0.71828)
(0.0294778 0.263323 0.773398)
(-0.0132974 0.0576603 0.826258)
(-0.010759 0.00220585 0.529441)
(0.186729 0.0321537 0.807145)
(0.0202033 0.00607825 0.360513)
(0.31138 -0.0472397 0.643628)
(0.0267135 -0.0545575 0.691369)
(-0.0182178 -0.0641553 0.617034)
(-0.0113453 -0.0114795 0.226908)
(-0.124055 0.0564247 0.19827)
(0.21225 -0.281352 0.520699)
(-0.0332798 -0.260751 0.329122)
(-0.0130036 -0.122085 0.0761758)
(0.0518857 -0.0463549 0.221669)
(0.261276 -0.504975 1.71508)
(0.11775 -0.854179 2.67749)
(-0.130081 0.0307236 1.40632)
(0.121564 -0.0127601 0.725412)
(0.0162444 0.00376467 0.0200176)
(0.434467 -0.0209448 0.359225)
(-0.0302463 -0.0528841 1.18941)
(-0.344045 -0.167834 0.245928)
(0.0374731 0.294034 0.126734)
(0.283084 0.448938 0.772864)
(-0.170529 0.315784 0.73459)
(-0.240793 0.215246 0.418421)
(0.0492729 0.0476966 0.306299)
(-0.102095 -0.0258536 1.2266)
(0.148742 0.0627253 0.716265)
(0.184015 0.246261 0.987901)
(-0.159618 0.223573 0.608187)
(-0.242849 -0.00167277 0.422753)
(-0.231216 0.0417083 -0.18239)
(0.480534 -0.102018 0.236289)
(0.352953 -0.0364191 1.12752)
(-0.274059 0.224445 1.00546)
(-0.295716 0.293236 0.0920954)
(-0.0977543 0.195564 0.0970987)
(0.38616 0.0908533 1.58058)
(0.0330052 -0.104801 2.13357)
(-0.302723 0.30863 1.50105)
(-0.0281923 -0.0103187 0.505132)
(0.00151714 0.0596874 -0.0148973)
(-0.0269671 0.0510282 0.106362)
(0.0226785 0.0465999 0.623714)
(0.0525078 0.160105 0.0302435)
(-0.0246846 0.0701505 0.0159544)
(0.135357 0.216109 0.420688)
(-0.0915192 0.189035 0.507453)
(-0.0868982 0.193872 0.292017)
(-0.0306696 0.0582554 0.320147)
(0.0142747 0.0205854 1.02888)
(0.0349127 0.0937013 0.490274)
(0.0901915 0.183868 0.701573)
(0.0181267 0.154259 0.531691)
(-0.0872432 0.0822866 0.305694)
(0.0577852 -0.0657137 -0.219053)
(-0.0373224 0.0644713 -0.00427214)
(0.20166 0.0254994 0.809686)
(-0.0429064 0.141019 0.735901)
(0.264004 0.0707875 0.0372264)
(-0.0552545 0.03504 -0.147551)
(0.0786788 -0.0950981 0.779541)
(-0.0550719 -0.0346614 1.41872)
(-0.200667 0.151336 1.08352)
(-0.0346123 -0.00334679 0.491762)
(0.0118133 0.00825075 0.0220792)
(-0.0924412 0.116522 0.127573)
(0.00907778 0.10782 0.384239)
(0.109492 0.116738 -0.0125568)
(-0.0466769 -0.0911595 0.108602)
(0.114317 0.134869 0.487632)
(-0.0779262 0.148777 0.597482)
(-0.0390356 0.159504 0.312622)
(0.025206 0.0352448 0.165594)
(-0.142156 0.0351439 0.00384053)
(0.0138924 -0.0285512 0.973781)
(0.0866381 0.0312397 0.431749)
(0.0752297 0.148947 0.822971)
(0.0438211 0.131136 0.641625)
(-0.00869047 0.0400557 0.333312)
(0.002995 -0.0610033 -0.0558042)
(0.082783 -0.0301522 0.107594)
(-0.118062 0.017594 0.0611465)
(0.178925 -0.00409712 0.943025)
(0.036416 0.108084 0.87312)
(0.313011 0.112598 0.271802)
(0.0984635 -0.0966368 -0.139137)
(-0.14209 -0.014904 0.699456)
(-0.0775522 0.00147291 1.5502)
(0.0854135 0.0406415 1.2559)
(-0.000188762 0.0224437 0.475347)
(0.0878701 -0.0963988 0.0138852)
(0.0459297 0.0583742 0.0762243)
(-0.0193698 0.12088 0.288618)
(0.0099341 0.031954 0.00925313)
(0.058859 -0.148539 0.160666)
(0.117686 0.0865052 0.444881)
(-0.0343159 0.102164 0.586071)
(-0.0236862 0.0664788 0.314847)
(-0.0925012 -0.078417 0.100894)
(-0.0221011 -0.0105179 0.0207405)
(0.0137951 -0.134628 0.826276)
(0.10649 -0.10254 0.355318)
(0.121044 0.0919382 0.836772)
(0.0503549 0.0885848 0.713638)
(0.060731 -0.104651 0.426747)
(0.0299418 -0.153044 0.03708)
(0.0539632 -0.0341726 0.127424)
(-0.0910545 -0.0480477 0.148297)
(0.170607 -0.119462 0.94696)
(0.0325756 -0.0522625 0.897289)
(0.232683 -0.107704 0.443555)
(0.0792422 -0.135263 -0.0808685)
(-0.0475277 -0.0402929 -0.0812269)
(-0.138063 -0.0263253 0.598292)
(-0.0822078 0.0107044 1.47901)
(0.288229 -0.123421 1.16954)
(0.0487051 0.0264451 0.359938)
(0.100595 -0.105736 0.0146214)
(0.130803 -0.0162459 0.0859918)
(0.0148489 0.121376 0.252066)
(-0.0486067 -0.0355671 0.0690311)
(0.120451 -0.167745 0.186518)
(0.140076 0.0493651 0.460224)
(-0.00679904 0.0508161 0.613175)
(-0.00363786 -0.0112209 0.383068)
(-0.0812567 -0.0998642 0.126036)
(0.0455108 -0.0323208 0.0448178)
(0.0192185 -0.100725 0.713477)
(0.0718057 -0.121556 0.315318)
(0.14171 0.00163586 0.819098)
(0.0645834 0.00809111 0.761007)
(0.0951026 -0.177876 0.504404)
(0.0303785 -0.16676 0.109828)
(0.0113539 -0.0117494 0.136098)
(0.00851818 -0.030741 0.12255)
(0.132786 -0.175984 0.897982)
(-0.00396479 -0.145883 0.871847)
(0.163255 -0.283042 0.515321)
(0.114792 -0.133985 -0.00572397)
(-0.00569781 0.00511597 -0.0851688)
(-0.04125 0.011088 0.527949)
(-0.125842 -0.071504 1.22441)
(0.247424 -0.159482 0.88567)
(0.0385432 0.0120578 0.328992)
(0.0349716 -0.0213685 0.0243404)
(0.113029 -0.0400773 0.150513)
(0.0140479 0.125185 0.249502)
(-0.0637105 -0.0592349 0.114189)
(0.164376 -0.178975 0.170874)
(0.161568 -0.00347628 0.49975)
(0.00621604 -0.0146587 0.682565)
(0.0270539 -0.0769011 0.478465)
(-0.0717915 -0.12772 0.140867)
(0.101857 -0.0585928 -0.0268836)
(0.0431511 -0.060648 0.390986)
(0.105279 -0.112333 0.288594)
(0.126634 -0.0833298 0.831632)
(0.072554 -0.0627751 0.812801)
(0.110708 -0.179792 0.584239)
(0.0452384 -0.157133 0.176837)
(0.0517373 0.000859997 0.0834132)
(0.0485974 -0.00372891 0.0920303)
(0.0855785 -0.182316 0.865246)
(-0.00937491 -0.160644 0.841094)
(0.123864 -0.247172 0.51138)
(0.0718439 -0.101991 0.0478263)
(-0.028886 0.00283198 0.467983)
(-0.160199 -0.0828211 0.923612)
(0.11073 -0.0757908 0.489284)
(-0.0206687 -0.00271053 0.325955)
(-0.0399621 0.0408897 0.0249342)
(0.0560675 -0.0584248 0.209694)
(-0.0228884 0.115382 0.237738)
(-0.063872 -0.0842989 0.157022)
(0.161737 -0.105234 0.1213)
(0.146478 -0.0635572 0.557123)
(-0.000368417 -0.0829891 0.749987)
(0.0457544 -0.119695 0.508137)
(-0.0632538 -0.110032 0.153193)
(0.0270758 0.015196 0.167257)
(0.137983 -0.0722453 0.239317)
(0.101665 -0.124461 0.839101)
(0.0663191 -0.0946377 0.853267)
(0.116305 -0.141083 0.604691)
(-0.00894159 -0.0677311 0.18415)
(0.0506743 0.0111689 0.0943917)
(0.0649997 -0.211303 0.824429)
(-0.0161015 -0.178993 0.80241)
(0.0951041 -0.154888 0.456163)
(0.0350789 -0.0995321 0.10662)
(-0.0748108 -0.0222416 0.366348)
(-0.0264447 -0.167078 0.652483)
(0.0634214 -0.0314283 0.278174)
(-0.0677497 0.000164047 0.305068)
(-0.0861698 0.0697504 0.0215022)
(-0.0162197 -0.0717138 0.258769)
(-0.0390854 0.0491448 0.250817)
(-0.0516047 -0.0992226 0.212189)
(0.111309 -0.0623979 0.0793062)
(0.0685983 -0.0891727 0.622914)
(-0.022816 -0.123248 0.7703)
(0.0512398 -0.127061 0.521434)
(-0.0350207 -0.0612965 0.171288)
(0.017466 0.0556332 0.0519477)
(0.142394 -0.0630008 0.19577)
(0.0864305 -0.123218 0.839316)
(0.0442139 -0.0934261 0.870247)
(0.117544 -0.0809174 0.614296)
(0.0465068 -0.0521606 0.215915)
(0.0473737 0.0135752 0.11046)
(0.0727237 -0.228627 0.788363)
(-0.0399852 -0.177966 0.784426)
(0.0705639 -0.0812064 0.424373)
(0.00204188 -0.0537194 0.116796)
(-0.0998616 -0.00698153 0.320665)
(0.0810835 -0.211718 0.42359)
(0.039599 -0.00997909 0.182145)
(-0.0823927 -0.00368977 0.299037)
(-0.114836 0.0807502 0.0431591)
(-0.0587711 -0.0858292 0.298132)
(-0.0356802 -0.00671601 0.293541)
(-0.0454773 -0.089846 0.267293)
(0.00617952 -0.0173994 0.095992)
(-0.0290531 -0.102648 0.644423)
(-0.0349255 -0.131731 0.753456)
(0.0522829 -0.122714 0.517563)
(-0.0426175 -0.0375917 0.1861)
(0.0111589 0.0762337 0.027703)
(0.08801 -0.0619453 0.163134)
(0.0463176 -0.0847268 0.84102)
(0.0253919 -0.0737516 0.863972)
(0.116635 -0.0429933 0.600171)
(0.0549887 -0.0184119 0.249066)
(0.0282433 0.0143452 0.125514)
(0.0592872 -0.201006 0.759503)
(-0.0413057 -0.146781 0.76743)
(0.0562463 -0.0582956 0.405117)
(-0.0223075 0.00152617 0.132696)
(-0.063502 0.0575841 0.309383)
(0.020414 -0.0374445 0.390697)
(0.0129143 -0.00629037 0.138933)
(-0.0737172 -0.0100265 0.328336)
(-0.11444 0.0742728 0.0930148)
(-0.0684349 -0.104341 0.345479)
(-0.0305561 -0.0295216 0.344149)
(-0.0402382 -0.0903958 0.320394)
(-0.0635713 0.0132074 0.137974)
(-0.0943245 -0.139276 0.613077)
(-0.0362058 -0.137999 0.691795)
(0.0527718 -0.124841 0.505894)
(-0.0172136 0.00115927 0.205234)
(0.00495833 0.0555044 0.0724117)
(0.00046814 -0.00675316 0.178597)
(-0.0327401 -0.0774608 0.801759)
(0.025846 -0.0546651 0.831965)
(0.118005 -0.0419257 0.573684)
(0.0435989 0.0108102 0.274072)
(-0.00212065 0.0302731 0.153052)
(-0.0274076 -0.0589453 0.664946)
(0.0366702 -0.102923 0.709453)
(0.0702732 -0.0471635 0.366927)
(-0.035114 0.063044 0.175959)
(-0.0480284 0.0831683 0.301503)
(-0.0188914 0.0374064 0.37612)
(-0.0323643 0.0121889 0.141081)
(-0.0234054 -0.0072957 0.405959)
(-0.104402 0.067962 0.13302)
(-0.066938 -0.126243 0.409282)
(-0.0138997 -0.0341778 0.386075)
(-0.045564 -0.0735372 0.34161)
(-0.0902935 0.0604378 0.171676)
(-0.116912 -0.185436 0.581985)
(-0.028615 -0.143038 0.627536)
(0.0381547 -0.130088 0.482949)
(0.0179742 0.0648448 0.22159)
(0.00303515 0.0212093 0.121058)
(-0.010321 0.0703813 0.198662)
(-0.111808 -0.113068 0.685737)
(0.0363505 -0.0600534 0.749632)
(0.0905573 -0.0566118 0.536701)
(0.0137318 0.0547437 0.288554)
(-0.0159356 0.0574995 0.197237)
(-0.0659812 0.0322727 0.561221)
(0.0737031 -0.0669162 0.637159)
(0.0611869 -0.0219987 0.343564)
(-0.0415039 0.0885228 0.239368)
(-0.0532407 0.0722396 0.351069)
(-0.0460874 0.0374365 0.385135)
(-0.0588206 0.0313981 0.183535)
(0.02198 0.00208114 0.469171)
(-0.0946841 0.0655062 0.142825)
(-0.0569556 -0.137734 0.481104)
(0.0164958 -0.00976834 0.419175)
(-0.0615524 -0.0243112 0.344975)
(-0.0944341 0.112338 0.181991)
(-0.115037 -0.203476 0.583574)
(-0.0382677 -0.124075 0.591047)
(0.0202569 -0.107146 0.46714)
(0.00845525 0.101246 0.192675)
(0.00177484 0.0108478 0.132885)
(0.0202512 0.117486 0.21807)
(-0.107804 -0.1399 0.588421)
(0.0256893 -0.0907626 0.665952)
(0.0418645 -0.0658081 0.508051)
(-0.0163626 0.0618844 0.314644)
(-0.0158746 0.0539981 0.235504)
(-0.0359858 0.00728203 0.508499)
(0.0381101 -0.0243269 0.580994)
(0.00114349 0.00181595 0.349805)
(-0.0443856 0.0769572 0.258955)
(-0.0616637 0.0417027 0.420214)
(-0.0721221 0.0322929 0.390271)
(-0.049733 0.0355485 0.209607)
(0.0545834 -0.000435314 0.50557)
(-0.0795512 0.0634608 0.134112)
(-0.0329879 -0.111046 0.537443)
(0.0555062 0.0245412 0.452234)
(-0.0535356 0.0400247 0.350156)
(-0.0938971 0.144558 0.197094)
(-0.104945 -0.19786 0.60309)
(-0.0729371 -0.0852943 0.582141)
(-0.010297 -0.0422442 0.451801)
(-0.0226771 0.0736773 0.1865)
(-0.000825132 0.00548148 0.146639)
(0.0281464 0.123858 0.228324)
(-0.037972 -0.14735 0.536505)
(-0.00348942 -0.111988 0.608687)
(0.00942835 -0.0513418 0.499582)
(-0.0274079 0.0206576 0.324161)
(-0.0127008 0.003 0.267612)
(0.0195535 -0.0645118 0.454985)
(0.011841 0.0142728 0.526696)
(-0.000127531 -0.00514825 0.366275)
(-0.0272997 0.055259 0.231772)
(-0.0482107 0.00679922 0.466406)
(-0.0722572 0.0493501 0.384323)
(-0.0131766 0.0188566 0.203769)
(0.0650318 -0.00958966 0.575684)
(-0.0458797 0.0470438 0.131246)
(0.0163669 -0.0812017 0.550577)
(0.0774282 0.0528239 0.463315)
(0.00957456 0.0717381 0.356959)
(-0.0856085 0.152994 0.228892)
(-0.0709406 -0.155195 0.627998)
(-0.0917603 -0.0697141 0.599739)
(-0.028891 0.0205297 0.45117)
(-0.06475 0.0400546 0.18879)
(-0.00174286 0.00678695 0.175077)
(0.013035 0.102623 0.264099)
(0.048768 -0.115442 0.516833)
(-0.018964 -0.112374 0.584668)
(-0.00848151 -0.0166762 0.498297)
(-0.00806879 0.0191505 0.302729)
(-0.0106029 -0.0294266 0.276424)
(0.0507583 -0.100402 0.41469)
(0.00606329 0.0225746 0.474379)
(0.0235082 -0.00545856 0.386959)
(-0.00482624 0.0340331 0.229155)
(-0.029854 -0.0525495 0.432837)
(-0.0370778 0.0660333 0.386453)
(0.013127 -0.00149849 0.195641)
(0.00406731 0.0226416 0.583611)
(-0.0112108 0.0183029 0.131539)
(-0.00466719 -0.0263552 0.495531)
(0.0676606 0.0721913 0.478655)
(0.0711995 0.0581929 0.346907)
(-0.0393647 0.119034 0.273462)
(0.0178746 -0.0417711 0.6539)
(-0.0858577 -0.0837777 0.62506)
(-0.0259758 0.0753754 0.458626)
(-0.0833871 0.0352821 0.175993)
(0.00154532 0.0211394 0.199859)
(0.0119132 0.0395648 0.312336)
(0.125129 -0.0405173 0.531469)
(-0.0155229 -0.10857 0.585959)
(-0.0174394 0.0303551 0.497103)
(0.0135446 0.0208162 0.280683)
(-0.0120963 -0.0322182 0.264515)
(0.0615504 -0.0973363 0.400777)
(0.00603411 0.000246919 0.442612)
(0.0216108 0.00651546 0.408857)
(0.0153919 0.0114492 0.254245)
(-0.0412395 -0.0559969 0.312788)
(0.0200628 0.0124593 0.37389)
(0.0265767 -0.0193599 0.199139)
(-0.0378551 0.02531 0.424566)
(0.00773888 -0.00210399 0.138308)
(-0.0454324 0.0223461 0.378101)
(-0.0106806 -0.00230559 0.50985)
(0.118299 0.0411733 0.318792)
(0.0323199 0.0318304 0.315893)
(0.0613008 0.0429246 0.671951)
(-0.0760767 -0.10259 0.695742)
(-0.00134352 0.130017 0.462565)
(-0.0859469 0.0317615 0.160705)
(0.00588203 0.0361239 0.216986)
(0.0248703 -0.0063458 0.324105)
(0.15062 0.0548192 0.56797)
(-0.0146027 -0.103747 0.604299)
(-0.0193499 0.0774293 0.499511)
(0.0245894 0.00795008 0.273177)
(-0.0104835 -0.0304101 0.241319)
(0.0747398 -0.0535228 0.42053)
(-0.00483844 -0.0273585 0.44366)
(-0.00164138 0.0402555 0.440428)
(0.0273443 -0.00399756 0.286748)
(-0.0149568 -0.00996791 0.247374)
(0.0588434 -0.0610664 0.312442)
(0.0286073 -0.025505 0.212833)
(-0.037551 -0.0117792 0.430309)
(0.0139115 -0.00670115 0.149181)
(-0.04032 0.0415602 0.29813)
(-0.0358898 -0.0783286 0.409003)
(0.105576 0.0358053 0.293024)
(0.0751208 -0.0239829 0.344527)
(0.0117589 0.0988132 0.682314)
(-0.0754153 -0.0523202 0.768168)
(0.0251749 0.180156 0.459624)
(-0.0793747 0.0250571 0.155259)
(0.00718177 0.0501939 0.209509)
(0.0294314 -0.0189312 0.307324)
(0.0979524 0.149042 0.601058)
(-0.0336877 -0.0836367 0.636087)
(-0.0155787 0.107556 0.508446)
(0.0269995 -0.00590752 0.274714)
(0.0100443 -0.0233927 0.229398)
(0.0711966 0.0676398 0.475467)
(-0.0186131 -0.0342215 0.461853)
(-0.0255633 0.0687426 0.471207)
(0.0349751 -0.0187119 0.319098)
(0.0122638 0.02871 0.242018)
(0.0713043 -0.040542 0.271964)
(0.0268851 -0.0243441 0.233494)
(-0.0164113 -0.0323546 0.512134)
(0.00628033 0.000767237 0.158656)
(-0.0209905 0.044512 0.268111)
(-0.0126064 -0.011137 0.321778)
(0.0289914 0.0139834 0.277812)
(0.0820656 -0.0456635 0.345527)
(-0.0546997 0.171898 0.668796)
(-0.0474356 0.0726892 0.790284)
(0.0247261 0.203303 0.457764)
(-0.0596694 0.0163312 0.162619)
(0.00448718 0.0506659 0.183749)
(0.0129249 -0.0308304 0.295707)
(0.0222554 0.201842 0.618288)
(-0.0328383 -0.00621237 0.676865)
(-0.0098661 0.110679 0.52166)
(0.0223901 -0.0173633 0.282768)
(0.0160321 -0.0185974 0.241146)
(0.0448442 0.137512 0.515341)
(-0.0190528 -0.0147221 0.481425)
(-0.0419809 0.0696071 0.49487)
(0.0400028 -0.0396818 0.343319)
(0.0157352 0.0467423 0.268456)
(0.0791673 -0.0102682 0.271189)
(0.0364151 -0.0246939 0.250623)
(0.0106314 -0.00486765 0.521906)
(-0.00759233 0.00885529 0.170277)
(-0.000121474 0.0577565 0.274001)
(0.00393274 0.082877 0.291144)
(-0.00600058 -0.0162855 0.222427)
(0.0653469 -0.0570852 0.334651)
(-0.0621147 0.202733 0.626482)
(-0.00926837 0.148462 0.778011)
(0.0082614 0.196939 0.455656)
(-0.0244162 0.00273561 0.176943)
(-0.000778612 0.0233952 0.169438)
(-0.0260512 -0.0121127 0.306501)
(-0.00578529 0.204759 0.622677)
(-0.0081541 0.0955521 0.710796)
(-0.000172416 0.0830917 0.550147)
(0.0124271 -0.0229417 0.29569)
(-0.00175825 -0.0202126 0.27337)
(0.0218843 0.142598 0.551923)
(0.00280997 0.0470026 0.531645)
(-0.0407744 0.0504295 0.515754)
(0.0395333 -0.0583357 0.35046)
(0.00841976 0.0412845 0.30117)
(0.0757947 0.00101876 0.292214)
(0.0567898 -0.0279542 0.269886)
(-0.00139088 0.0228364 0.38131)
(-0.0190528 0.0145713 0.178976)
(0.0269072 0.042168 0.292581)
(0.00925509 0.0837045 0.274819)
(-0.000389251 -0.0366627 0.174809)
(0.0304802 -0.0407083 0.29199)
(-0.0319946 0.179369 0.580284)
(0.0106073 0.184205 0.738212)
(-0.0328095 0.121934 0.436555)
(0.0105048 -0.00689825 0.194481)
(-0.00436044 -0.0100777 0.180528)
(-0.0277794 0.00986236 0.328471)
(-0.00400077 0.191052 0.628058)
(0.0125485 0.143417 0.722756)
(0.0182361 0.0311068 0.606664)
(0.00589505 -0.0249006 0.30644)
(-0.0223905 -0.0199908 0.309859)
(-0.00659718 0.0919545 0.58014)
(0.0322158 0.0912006 0.590608)
(-0.0175962 0.0259154 0.535515)
(0.029975 -0.0520833 0.355057)
(0.0104468 0.0301594 0.328149)
(0.0640691 0.00902688 0.328154)
(0.0710576 -0.0308597 0.298837)
(-0.0146549 0.0069519 0.301803)
(-0.0200906 0.0159693 0.182437)
(0.0429792 0.0164003 0.298339)
(0.00372636 0.040948 0.284838)
(-0.00860653 -0.0289015 0.150207)
(-0.000889141 -0.0161369 0.25357)
(0.00469378 0.102117 0.540759)
(0.00461217 0.18539 0.687096)
(-0.0528054 0.0114696 0.409826)
(0.0293947 -0.0132082 0.208817)
(-0.00313156 -0.0165956 0.1889)
(-0.00397865 -0.0200432 0.339268)
(0.00586399 0.127202 0.64286)
(0.0244487 0.152398 0.741126)
(0.024868 0.0171287 0.633487)
(0.00656902 -0.0285676 0.313195)
(-0.0253363 -0.00423704 0.330357)
(-0.050419 0.0158896 0.592193)
(0.0482006 0.0859164 0.632822)
(0.0313828 0.00451656 0.555854)
(0.0200112 -0.0340691 0.366373)
(0.031476 0.0304813 0.345755)
(0.0524981 0.0127738 0.363509)
(0.0634914 -0.0265332 0.336108)
(-0.00546397 0.00270459 0.285786)
(-0.0172416 0.0129498 0.183468)
(0.0417238 0.00194902 0.29891)
(0.00217915 0.019445 0.301333)
(-0.0220897 -0.0209621 0.13888)
(-0.0197788 -0.000489128 0.237231)
(-0.00869974 0.0420204 0.540291)
(-0.0216508 0.140467 0.661104)
(-0.0319025 -0.0311826 0.377967)
(0.0291563 -0.0218696 0.223805)
(-0.000871469 0.00279663 0.187611)
(0.00793901 -0.0400629 0.334125)
(0.00408614 0.03009 0.648358)
(0.0313495 0.135852 0.765595)
(0.0224006 0.0188612 0.637835)
(0.0135894 -0.034385 0.319344)
(-0.0139044 0.0207812 0.325838)
(-0.0756149 -0.0126729 0.573872)
(0.0389138 0.0445388 0.654225)
(0.0548446 -0.00835787 0.576776)
(0.0186292 -0.0198457 0.387895)
(0.0546409 0.0344631 0.357007)
(0.0443822 0.0115935 0.390486)
(0.0335174 -0.0154358 0.370401)
(0.0120458 0.00217055 0.282736)
(-0.01952 0.0110162 0.185842)
(0.033425 -0.0204315 0.303355)
(0.0087898 0.000643222 0.317109)
(-0.0186521 -0.0103986 0.149553)
(-0.0402825 0.00859648 0.240053)
(-0.0424202 0.00421028 0.552266)
(-0.0656547 0.060974 0.621322)
(-0.0078604 -0.0288415 0.334545)
(0.0163974 -0.0311812 0.245329)
(-0.00104962 0.0175437 0.190816)
(-0.00707084 -0.0137665 0.324801)
(-0.0196772 -0.0157993 0.645342)
(0.0230978 0.0896845 0.791057)
(0.014285 0.0280627 0.631316)
(0.0226141 -0.042859 0.330116)
(-0.0122401 0.0353882 0.311365)
(-0.0773172 -0.00644562 0.555462)
(0.00521401 0.00966524 0.657741)
(0.0516161 -0.00431421 0.583281)
(0.0236391 -0.0147785 0.40824)
(0.0527947 0.0315981 0.374457)
(0.0345434 0.00812169 0.4141)
(0.00326578 -0.006078 0.391547)
(0.0350987 0.00245118 0.284594)
(-0.0245611 0.0136619 0.193402)
(0.0265224 -0.05032 0.302402)
(0.0165832 -0.00881056 0.334163)
(0.00181736 0.00932981 0.177828)
(-0.0667759 0.0205381 0.245919)
(-0.0532442 -0.0125489 0.567599)
(-0.0869639 0.0154583 0.577167)
(-0.00135325 -0.0115125 0.286596)
(-0.00176274 -0.0383517 0.266246)
(-0.00376243 0.0138017 0.20918)
(-0.0345367 0.0572521 0.303189)
(-0.0450065 -0.0221062 0.646853)
(-0.00232026 0.0497471 0.787574)
(0.00436194 0.0468266 0.598035)
(0.0260985 -0.049941 0.346149)
(-0.0151197 0.0386562 0.308846)
(-0.0658709 0.0100733 0.553737)
(-0.031155 0.0127424 0.651246)
(0.0198924 0.0447253 0.572957)
(0.031025 -0.0277081 0.410921)
(0.0240878 0.0244328 0.397171)
(0.0179415 0.0113156 0.442425)
(-0.0118045 0.00260198 0.411443)
(0.0491354 0.00246966 0.286045)
(-0.0241007 0.0182965 0.201647)
(0.0210089 -0.0489916 0.290684)
(0.02028 -0.00961091 0.350503)
(0.0206591 0.0249922 0.204768)
(-0.0805478 0.0293256 0.259968)
(-0.0425775 -0.0174931 0.575959)
(-0.0672517 0.00754145 0.548861)
(-0.00650927 0.00163682 0.250354)
(-0.0188603 -0.0411871 0.279184)
(-0.00518573 -0.00105196 0.233217)
(-0.0353713 0.0809485 0.291745)
(-0.052574 -0.0163337 0.645316)
(-0.0225079 0.0302641 0.765261)
(0.00259984 0.0539365 0.56124)
(0.0236225 -0.0541881 0.359659)
(-0.0322291 0.00665312 0.337881)
(-0.0348094 0.0304255 0.564001)
(-0.0464435 0.0351977 0.645422)
(-0.0119047 0.0720478 0.557263)
(0.0387116 -0.0502894 0.392957)
(-0.00419929 0.0158543 0.416715)
(0.00123464 0.0248775 0.476325)
(-0.00242489 -0.000154023 0.434769)
(0.0497636 0.00271184 0.293087)
(-0.00508337 0.00377347 0.215417)
(0.0053441 0.0149641 0.251406)
(0.0472175 -0.00809197 0.359244)
(0.0326291 0.0311756 0.226033)
(-0.0490732 0.0179297 0.275547)
(-0.0198236 -0.00574423 0.573935)
(-0.0174538 0.00937624 0.523939)
(-0.0129626 0.00610758 0.239305)
(-0.0322438 -0.0420758 0.280141)
(-0.00605823 -0.0262357 0.258657)
(-0.0292486 0.0738496 0.300103)
(-0.0465592 -0.00641062 0.637793)
(-0.0243588 0.0357201 0.737361)
(0.00545544 0.0527643 0.534495)
(0.0188877 -0.0539577 0.367347)
(-0.0535244 -0.0278533 0.377544)
(-0.00469379 0.0442754 0.571977)
(-0.0400626 0.0558247 0.642736)
(-0.0224241 0.0653349 0.545159)
(0.0386164 -0.061901 0.372124)
(-0.0231129 0.00705101 0.437785)
(-0.00993597 0.039786 0.509908)
(0.0210274 -0.00659754 0.453174)
(0.0351637 0.00213951 0.293746)
(0.0208652 -0.0165611 0.228122)
(-0.00698232 0.0508777 0.212678)
(0.0559536 -0.00371114 0.363649)
(0.036714 0.0279258 0.24126)
(0.00677174 -0.00503298 0.279528)
(-0.000608763 0.019439 0.56809)
(0.00448767 0.00490795 0.505866)
(-0.0177435 0.00588478 0.242693)
(-0.0425589 -0.0422565 0.270155)
(-0.00566544 -0.0525956 0.281301)
(-0.00195966 0.021495 0.327309)
(-0.0223199 0.0306088 0.621768)
(-0.01249 0.0574986 0.709514)
(0.0121848 0.0453773 0.522344)
(0.0163614 -0.0503335 0.373509)
(-0.0682786 -0.0575682 0.401983)
(0.017053 0.050474 0.581962)
(-0.0256175 0.0677387 0.641685)
(-0.0141429 0.0536283 0.541581)
(0.0346603 -0.0646727 0.357699)
(-0.0380162 0.0035833 0.459501)
(-0.0154381 0.0518949 0.539622)
(0.0377114 -0.00639702 0.469539)
(0.0127527 -0.000476508 0.287479)
(0.0342415 -0.0275978 0.231168)
(-0.00773912 0.0483528 0.195663)
(0.044875 -0.0018199 0.361246)
(0.0417484 0.020413 0.250233)
(0.0347331 -0.0117454 0.284686)
(0.00204759 0.0325491 0.558413)
(0.00110317 0.00131218 0.488716)
(-0.0217472 0.00472873 0.255661)
(-0.0487165 -0.038637 0.255402)
(-0.00372585 -0.0588247 0.292676)
(0.0317831 -0.0466036 0.349118)
(0.00244025 0.0595226 0.619725)
(0.0071108 0.0763318 0.682793)
(0.021747 0.0316165 0.525169)
(0.0186226 -0.0430324 0.380743)
(-0.0771324 -0.0977794 0.401518)
(0.0291217 0.0407272 0.595149)
(-0.0129065 0.0712758 0.641391)
(0.00335975 0.0189678 0.548019)
(0.0307795 -0.0622571 0.351601)
(-0.0609469 -0.00449904 0.471675)
(-0.0160569 0.0595254 0.567251)
(0.0530935 -0.0104114 0.479287)
(0.00273044 -0.00142001 0.290123)
(0.0391725 -0.0350958 0.230817)
(-0.0015471 0.0309989 0.199215)
(0.038361 -0.0048141 0.332444)
(0.0450663 0.00909744 0.261377)
(0.0360883 -0.0151245 0.297668)
(0.00673154 0.0315946 0.542776)
(-0.00300104 0.00485065 0.47579)
(-0.0170571 0.00713989 0.272954)
(-0.0471167 -0.0320711 0.243539)
(-0.00428086 -0.0413009 0.298727)
(0.0428591 -0.0880298 0.356668)
(0.0246727 0.0585416 0.622178)
(0.0253763 0.0750937 0.657472)
(0.0310221 0.0133033 0.540405)
(0.0208704 -0.0359981 0.388539)
(-0.0754737 -0.116227 0.3906)
(0.0255889 0.0143046 0.60231)
(-0.00694239 0.0699134 0.647468)
(0.0137092 -0.0132075 0.559319)
(0.0218858 -0.0473585 0.357132)
(-0.095146 -0.0242844 0.460298)
(-0.0301132 0.048201 0.586606)
(0.0824653 -0.034975 0.463056)
(0.0043368 0.000113199 0.296982)
(0.0422107 -0.0427635 0.233275)
(0.0124188 0.00743597 0.209064)
(0.0310881 0.0014269 0.297249)
(0.0392287 0.00554669 0.27162)
(0.00368684 -0.0280804 0.322726)
(0.0234542 0.014799 0.524732)
(0.00217706 0.00733783 0.470355)
(-0.0062418 0.0109017 0.295171)
(-0.0381672 -0.0261518 0.240961)
(-0.0043547 -0.0127607 0.31205)
(0.0326577 -0.116535 0.373673)
(0.0412357 0.0291509 0.613438)
(0.0336825 0.0571269 0.636954)
(0.0372026 -0.00308355 0.56159)
(0.0197705 -0.0320505 0.397655)
(-0.0721969 -0.0987947 0.382576)
(-0.00913216 -0.0478502 0.594145)
(6.95538e-05 0.0614025 0.665696)
(0.0196063 -0.0224193 0.574488)
(0.0107826 -0.0234875 0.372033)
(-0.108456 -0.0346273 0.43053)
(-0.0452548 -0.00826661 0.555409)
(0.075262 -0.0350683 0.430176)
(0.0159988 0.00314376 0.305166)
(0.0453036 -0.0484728 0.242242)
(0.0284854 -0.0108141 0.215905)
(0.0257573 -0.00596521 0.28996)
(0.0268048 0.0199345 0.274004)
(-0.0429545 -0.0284271 0.340543)
(0.0374153 0.00317455 0.507757)
(0.0223991 0.0107026 0.463328)
(0.00366813 0.0104609 0.323795)
(-0.0237618 -0.0263938 0.247854)
(-0.00157651 0.0244952 0.323288)
(0.0358592 -0.106732 0.406213)
(0.0452967 -0.0150579 0.605534)
(0.0380744 0.041655 0.626985)
(0.044255 -0.0218726 0.58253)
(0.0180793 -0.0294397 0.409123)
(-0.0411058 -0.0641784 0.37696)
(-0.0417986 -0.0947222 0.566)
(0.0249601 0.0300527 0.685596)
(0.0248668 -0.0204535 0.601187)
(0.00253893 -0.00469221 0.388026)
(-0.0910247 -0.0349984 0.397865)
(-0.0501494 -0.0323467 0.480359)
(0.020621 0.0018521 0.39432)
(0.0314615 0.0038823 0.308813)
(0.0502624 -0.0525031 0.253467)
(0.0377355 -0.018637 0.225237)
(0.00846778 -0.0106684 0.307087)
(0.0100276 0.0299711 0.26599)
(-0.0835709 -0.0155699 0.340843)
(0.0355182 0.00644846 0.490703)
(0.0396933 0.0222058 0.455444)
(0.00172368 0.00257019 0.354407)
(-0.00905459 -0.0349684 0.26106)
(0.000246218 0.0599927 0.336242)
(0.0219829 -0.0604924 0.438455)
(0.0382055 -0.0278136 0.610981)
(0.0429704 0.0357746 0.628828)
(0.0497901 -0.0439257 0.605307)
(0.0145152 -0.0289064 0.421555)
(0.00596865 -0.041144 0.364678)
(-0.0498904 -0.0976298 0.539845)
(0.0444155 -0.0167826 0.685619)
(0.0388089 -0.0336772 0.62289)
(0.00138505 -0.00230561 0.400067)
(-0.0590875 -0.0317919 0.367408)
(-0.0512542 -0.00964007 0.419321)
(-0.0181716 0.0169591 0.3661)
(0.0437131 0.00336331 0.315042)
(0.0567072 -0.058116 0.261485)
(0.0388345 -0.019339 0.23771)
(-0.013022 0.00321435 0.315733)
(-0.00565161 0.0203457 0.255133)
(-0.0864901 -0.00737413 0.333122)
(0.00342349 0.0303125 0.458835)
(0.0363782 0.0369416 0.452504)
(-0.0164664 -0.0141835 0.379418)
(-0.00304731 -0.0494495 0.274218)
(-0.00228482 0.0668823 0.362828)
(-0.0337219 0.0050555 0.453406)
(0.0348309 -0.0220226 0.6199)
(0.0436308 0.0373585 0.639244)
(0.0408547 -0.0504352 0.634222)
(0.0108469 -0.0321789 0.429417)
(0.0269583 -0.0243246 0.349679)
(-0.0475743 -0.0802894 0.53093)
(0.0308368 -0.0533302 0.669463)
(0.0452912 -0.0563005 0.620691)
(0.00457039 -0.00974529 0.400664)
(-0.0393242 -0.02487 0.335509)
(-0.0337636 0.0084192 0.383132)
(-0.0320183 0.0132685 0.341971)
(0.0323111 0.000580595 0.335819)
(0.0610922 -0.0622049 0.263981)
(0.0323478 -0.0140815 0.249918)
(-0.0320482 0.0167148 0.311742)
(-0.0189361 0.00336342 0.246796)
(-0.0318375 -0.00411757 0.321479)
(-0.0312177 0.048507 0.425505)
(0.0154544 0.0462905 0.446992)
(-0.0390247 -0.0369508 0.390868)
(-0.00913851 -0.0662122 0.279948)
(-0.00739375 0.0413216 0.394153)
(-0.0548764 0.0593939 0.453945)
(0.0346934 0.00729744 0.651344)
(0.0318341 0.0457661 0.670928)
(0.0176827 -0.0331044 0.65459)
(0.011289 -0.0374536 0.427873)
(0.0235312 -0.020126 0.35019)
(-0.0461828 -0.0513947 0.534013)
(0.0111922 -0.0629659 0.646106)
(0.0369103 -0.067584 0.594669)
(0.0122895 -0.0187637 0.38569)
(-0.0385883 -0.00658453 0.312975)
(-0.0199064 0.0215686 0.362576)
(-0.028029 0.00446206 0.319289)
(-0.0079999 -0.00379945 0.368251)
(0.0605173 -0.0619926 0.265031)
(0.0187489 -0.00580778 0.257581)
(-0.0384604 0.0271318 0.299084)
(-0.029306 -0.0130454 0.245412)
(0.00536361 -0.0103045 0.317257)
(-0.0394517 0.0419372 0.413446)
(-0.00624542 0.0351422 0.443871)
(-0.0493657 -0.0602025 0.388496)
(-0.0215127 -0.0802718 0.277849)
(-0.0107351 0.00769043 0.396168)
(-0.0241818 0.0669277 0.469673)
(0.0384688 0.0227809 0.680968)
(0.00921399 0.0331694 0.718689)
(0.00201017 -0.0148221 0.647587)
(0.0143844 -0.048629 0.410772)
(-0.0129654 -0.0226455 0.364572)
(-0.0502033 -0.0268799 0.529832)
(0.015301 -0.0507667 0.627561)
(0.0226014 -0.0339612 0.561427)
(0.0210083 -0.0316412 0.363833)