/*--------------------------------*- C++ -*----------------------------------*\
| =========                 |                                                 |
| \\      /  F ield         | OpenFOAM: The Open Source CFD Toolbox           |
|  \\    /   O peration     | Version:  5.x                                   |
|   \\  /    A nd           | Web:      www.OpenFOAM.org                      |
|    \\/     M anipulation  |                                                 |
\*---------------------------------------------------------------------------*/
FoamFile
{
    version     2.0;
    format      ascii;
    class       volScalarField;
    location    "0.6";
    object      Ksl;
}
// * * * * * * * * * * * * * * * * * * * * * * * * * * * * * * * * * * * * * //

dimensions      [1 -3 -1 0 0 0 0];

internalField   nonuniform List<scalar> 
10571
(
188.954
1487.47
1936.24
7463.74
4435.07
1193.13
874.947
5333.99
1972.79
4023.27
632.52
1350.22
1742.18
811.46
249.539
675.522
566.222
1616.4
777.619
1020.35
1723.22
1229.03
1192.21
3276.96
13979.2
12192.4
8064.61
780.991
3131.04
4585.83
3838.14
1180.39
209.219
266.394
5722.64
3892
1672.43
335.804
317.214
250.858
9840.36
1326.6
896.395
192.992
122.957
8991.93
6946.33
661.891
1191.63
3239.92
499.063
411.244
100.073
3950.94
1458.39
139.783
118.351
253.748
705.058
7427.54
711.601
172.893
381.286
289.647
7212.29
1593.72
318.068
181.985
265.312
7573.47
865.553
173.152
320.61
68.3595
106.754
281.439
77.4317
451.371
200.624
96.6129
104.911
184.053
337.191
243.352
114.534
91.2643
189.262
309.823
55.4443
44.9845
64.5599
183.982
455.456
32.512
72.2777
144.13
328.495
284.61
674.86
154.74
36.4578
1374.47
354.801
136
100.645
184.929
190.677
105.874
100.905
86.3085
174.427
327.177
60.6672
24.8154
62.8351
208.396
391.98
12.2644
66.1289
109.685
359.14
700.438
300.947
68.534
96.8778
82.051
148.299
137.443
102.302
114.527
1517.08
148.725
75.187
71.6624
108.103
150.946
309.042
5806.6
171.137
40.1129
170.732
515.252
196.944
2.9404
71.0703
112.382
224.89
573.961
203.65
100.421
40.6841
69.1964
83.4965
95.8926
90.811
208.496
7.49875
51.0918
62.1263
66.9736
128.273
94.564
192.256
15.8543
99.1578
36.1768
144.258
165.88
211.016
1.23696
7.76253
120.237
239.751
349.875
68.3113
79.5003
128.189
88.1099
38.2841
60.3181
102.056
93.1519
116.288
6.77664
2.27048
51.757
65.4118
127.372
114.951
229.953
4.6907
99.8951
44.0518
130.08
131.047
161.027
18.3205
43.3452
111.881
401.348
532.746
30.2503
108.584
321.558
31.6162
32.2601
59.5584
79.9745
198.594
328.939
0
34.9369
38.7017
57.6679
101.286
130.109
362.708
0
69.4043
32.5141
97.0444
134.043
145.735
18.6168
40.1731
73.4175
999.724
66.3008
94.3193
339.822
29.1727
24.4701
44.0346
61.3535
303.159
503.329
53.9865
50.9769
58.4375
99.9169
108.657
109.879
89.9353
41.558
95.2814
101.907
174.719
15.6643
23.1091
44.1236
1115.47
20.6441
103.267
203.22
619.373
13.1331
40.5384
95.3372
334.273
192.652
27.2032
9.38651
53.96
82.0608
105.374
51.5852
37.9277
45.7297
81.5091
105.277
209.643
37.3568
57.5597
123.234
780.667
35.8568
124.235
227.982
532.246
15.6997
35.1687
151.806
226.304
38.7011
42.094
23.8442
53.2191
83.2396
111.125
65.5128
61.5771
35.8329
77.0383
107.327
158.21
45.4265
47.3493
159.187
534.027
20.1096
96.676
143.032
334.452
4.60526
37.837
115.099
102.154
0.212055
25.3088
32.8564
38.5342
76.8735
122.009
72.9023
62.096
49.6952
69.1056
92.5122
268.869
30.6968
34.5174
113.651
199.018
34.4767
68.542
134.125
321.013
26.0961
68.2072
100.427
61.4785
13.1734
23.8954
23.165
40.8643
78.9502
126.619
59.9903
16.3993
44.6255
73.2959
98.6798
271.89
57.6882
38.9235
240.808
150.706
-1.65819e-15
66.5849
162.586
259.654
15.6192
49.3214
79.7818
53.2308
71.5366
24.1525
30.8085
38.7437
78.9915
92.1993
76.4052
39.6776
45.4651
91.4735
154.997
78.5353
55.6535
23.7432
213.576
179.806
12.3752
64.3582
117.165
271.455
7.23088
43.3754
87.7752
58.77
334.048
25.3194
25.4973
47.7999
74.1125
73.0706
51.0723
27.0789
65.7186
85.6454
120.803
147.915
81.7546
90.723
255.489
97.8331
4.46788
49.4242
95.79
457.012
1.66226
49.6021
76.9715
60.4669
350.166
-1.40588e-15
16.5183
52.8308
77.3952
76.9468
56.3326
53.7058
52.3147
84.4253
80.629
107.593
90.6624
93.3193
192.433
50.7731
0
38.6766
93.2795
210.067
7.36161
55.8187
89.5144
52.6027
201.757
0
18.3241
55.1748
73.9425
75.5464
93.5111
33.008
40.6115
91.7128
116.393
194.869
31.7901
108.833
215.586
98.325
29.2419
51.6898
92.6957
156.413
22.6864
47.5738
110.463
51.4461
75.5693
23.9896
10.6513
45.9007
67.8572
69.2084
136.238
32.6455
60.7169
84.103
56.7407
116.397
35.6596
82.7143
233.007
112.027
-8.92956e-15
39.894
64.7299
83.0008
14.8562
67.7993
77.1483
27.9087
46.8675
0
22.1676
37.4998
86.9014
68.1813
104.903
103.518
59.6648
106.055
73.226
313.738
30.3617
84.6445
203.803
166.663
20.3444
26.6183
55.4802
133.269
18.9162
65.7218
47.0393
26.5265
99.8921
9.46169
5.26257
37.688
69.7633
59.7658
45.7601
60.2612
73.3209
65.1903
75.9009
171.469
39.6718
108.903
161.423
110.283
0
12.6666
59.4451
96.2507
30.7588
53.1837
27.0022
27.3694
122.413
51.4022
8.61541
41.1222
73.5376
61.9119
39.2292
53.9226
51.3354
63.4201
56.8808
74.1897
34.4474
24.147
113.43
122.951
11.2019
7.72086
30.8792
76.3067
15.1657
36.764
21.9586
19.0571
81.9696
8.32449
-2.63696e-16
33.2557
60.0745
46.1935
36.4674
44.8371
42.1615
53.6935
68.5357
89.8412
37.309
52.6
66.3308
42.4225
12.0951
16.7126
51.1118
101.482
16.2346
31.853
18.1903
28.8717
42.5817
9.49531
33.9257
42.2627
67.6609
49.3406
30.3208
38.921
54.311
71.2919
79.1913
64.6592
67.8992
63.8038
74.9566
83.6253
-1.07497e-14
34.4031
48.1767
152.197
13.4431
21.6852
25.5592
18.5386
54.2854
25.6871
8.41904
54.9702
56.2173
46.536
22.5953
21.9153
47.4499
71.619
90.9691
50.0897
41.3468
93.9716
72.961
28.5944
13.4362
25.2034
47.3479
122.888
30.0366
26.2603
14.8206
20.6212
50.8574
0
26.7443
39.1323
35.125
49.5924
30.3054
38.7086
53.4
67.5533
66.7826
55.2458
32.9055
75.7579
59.3222
72.0198
-1.79028e-15
19.2065
16.184
82.0988
7.88616
21.7763
22.2348
15.9325
29.1543
25.894
36.4297
39.6016
37.6764
39.0269
28.0281
77.9246
46.0437
55.2115
67.1819
49.614
17.5789
57.6219
101.405
5.32954
0.470484
27.4988
49.797
86.498
12.0569
17.4197
16.611
26.7182
61.5447
31.0576
41.3637
33.8119
33.4604
32.4866
41.1186
21.4817
44.1076
48.5605
36.3869
59.0144
71.5733
71.4745
36.0132
13.5066
40.436
28.975
16.6309
83.9019
15.008
17.9971
21.6875
24.424
51.7319
68.8438
35.589
34.2393
23.7409
29.7199
28.3631
85.5637
42.4012
34.5877
48.2894
76.1601
83.0145
43.9662
47.2692
36.3785
31.68
49.3824
35.2267
65.9913
19.4649
14.3718
15.7544
24.7684
34.3882
25.6066
39.3564
27.3124
34.6644
22.4728
56.0617
64.2162
51.9502
47.6702
26.821
46.0896
24.9738
29.8381
40.8385
26.6896
28.0672
48.3386
26.425
42.1809
-6.56642e-15
24.232
18.7475
24.0348
35.4237
76.7855
19.3605
44.906
18.6004
26.2035
37.6378
108.866
45.3316
31.8949
15.4987
29.5841
28.4208
46.8104
8.645
17.9262
46.6073
29.0311
45.9414
74.8266
15.4222
12.1574
18.3439
25.0502
23.5232
83.1285
46.5384
38.6357
16.6389
31.7064
26.3577
133.413
32.9143
16.4368
17.227
43.5976
29.346
21.2708
31.5896
58.5119
59.4124
24.8867
46.7445
58.2557
24.7659
24.4842
11.3933
17.8322
45.5542
55.3078
31.5979
15.3355
12.0291
14.6948
15.6202
97.2951
29.463
15.2435
29.1382
9.08653
21.6373
16.9279
8.00265
58.3633
30.9613
17.2387
30.3206
44.4411
0
16.2039
11.2462
22.2424
64.3698
15.1991
45.0015
19.7917
13.0554
24.0952
27.2213
100.819
26.8627
16.7524
26.747
9.61651
16.5151
12.2103
16.7201
100.752
55.6206
59.3701
19.4328
50.4832
16.5562
12.192
12.8667
36.0924
41.7934
1.12121
37.2409
20.6668
20.9636
37.1709
70.8072
98.7949
19.2308
24.8815
36.8007
78.4942
0
25.0466
24.375
116.488
29.0024
53.6271
31.5834
71.1288
41.4458
13.5432
10.0907
31.4496
52.1947
39.4187
29.5929
25.2706
18.4297
40.0394
70.4753
29.8256
27.3652
20.8229
31.0089
86.8291
34.3484
19.3425
5.69697
15.0779
40.0209
37.4487
21.4762
65.2329
15.0793
8.15409
10.4663
15.5262
52.0303
15.7306
30.4741
22.6516
13.6193
41.226
43.3106
50.7335
37.6401
37.6116
65.927
72.7285
0
27.7034
44.0739
35.1568
38.682
52.9802
22.4282
52.4892
48.2262
15.3833
17.4438
15.474
59.9465
-1.83856e-14
35.4223
24.6042
15.5412
25.705
33.1257
1.43088
33.187
30.5067
55.2833
50.9612
29.0222
34.7855
24.2219
23.93
48.216
24.1559
33.2453
15.3407
19.9986
14.6669
11.154
18.7239
32.4821
42.2543
8.80889
21.6042
15.0567
16.4899
29.8095
1.74602
37.1928
38.6316
20.5952
20.1874
23.2555
30.8347
20.8463
9.85047
45.5865
34.4836
54.8086
41.4713
45.7279
24.8626
9.3355
26.4702
36.9747
77.1231
23.4045
23.7243
26.3514
22.5097
16.7581
0
19.593
44.2102
18.491
9.22675
31.7272
52.4755
51.4929
26.0342
57.7357
28.9397
41.0133
20.8982
58.6308
17.9354
18.3077
30.1821
14.436
35.9479
20.9213
18.1762
24.7015
21.4312
11.8575
2.96918
14.0859
20.7247
39.0998
10.6524
53.3596
36.5163
35.016
13.0264
21.828
23.5283
10.2447
14.8395
22.6855
26.7555
30.7407
26.5119
52.9666
21.6575
9.78809
19.3539
26.1711
15.8872
22.3461
5.08059
9.75875
18.3177
7.70789
0
26.8869
19.957
-6.61705e-15
6.50956
9.0957
29.3995
14.5441
12.2784
26.5996
31.2345
39.0579
24.1074
-7.55952e-15
0
15.7276
13.7028
23.2452
20.4771
4.11938
4.66938
4.55219
11.6481
16.678
-3.09798e-16
0
3.34512
10.8258
14.8772
-1.57534e-15
15.1973
32.0004
12.0009
13.5772
19.7306
23.3872
19.897
0
0
20.4658
20.1114
19.8865
20.8843
17.1415
0
6.502
5.52736
23.6082
8.6127
4.70232
11.9099
10.2958
0
9.24511
9.99818
17.4657
0
5.03633
16.5872
21.8118
10.838
1.7629
23.2223
29.2696
6.65439
14.4427
18.6179
21.3706
8.41141
6.8867
7.42788
10.871
0
7.31883
-3.68391e-16
0.33366
0
-8.16025e-15
5.316
5.21806
0
9.29455
17.2722
9.34746
6.65749
0
14.9673
21.3081
12.0795
13.8401
7.24227
15.9278
0
4.66279
2.14654
12.805
10.2579
0
7.44122
0
0
0
4.97759
0
0
0
10.8381
7.34687
4.21093
1.13796
0
5.0708
10.4109
10.8914
3.68699
11.5152
0
1.53856
1.43413
0
0
0
0
0.416091
0
0
0
0
0
-1.28156e-16
2.0738
4.5076
2.03351
3.2215
0
6.89114
6.68594
5.4795
7.29584
0.485189
0
1.47324
1.42332
5.57418
10.3512
0
0
0
0
0
3.46856
0
0
-2.12141e-15
2.25575
0
0.715822
0
0
0
1.55439
3.9019
1.43841
3.68654
1.0743
0.728599
0
0
0
0
0
0
0
0
5.28236
0
0
0
0
0.645119
0
0
0
0
0.0382933
0.950099
0
1.24083
0
0.674555
0
0
0
0
0
0
0
0
0
0
0
6.88744
0
1.21116
0
0
0
0
0
1.1488
0
0
0
0.24178
0
0
-1.63229e-15
0
0
0
0
0
0
0
0
0
0
0
0
0
0
0
0
0
1.38269
0
0
0.462142
0
0
-1.00245e-14
0
0
11.0714
0
0
0
0
0
0
0
0
0.642133
0
0
0
0
0
0
0
0
0
0
0
0
0
0
0
0
0
0
0
0
0
0
0
0
0
0
0
0
0.692132
0.700276
0
0
0
0
0
0
0
0
0
0
0
0
0
0
0
0
0
0
0
0
0
0
0
0
0
0
0
0
0
7.16542
0
0
0
0
0
0
0
4.12535
0
0
0
0
0
0
0
0
0
0
0
0
0
0
0
10.9828
0
0
0
0
0
0
0
0
0
0
0
0
0
0
0
0
0
0
0
0
0
0
0
0
0
0
0
0
0
0
0
0
0
0
0
0
0
0
0
0
0
0
0
0
0
0
0
0
0
0
0
0
0
0
0
0
0
0
0
0
0
0
0
0
0
0
0
0
0
0
0
0
0
0
0
0
0
0
0
0
0
0
0
0
0
0
0
0
0
0
0
0
0
0
0
0
0
0
0
0
0
0
0
0
0
0
0
0
0
0
0
0
0
0
0
0
0
0
0
0
0
0
0
0
0
0
0
0
0
0
0
0
0
0
0
0
0
0
0
0
0
0
0
0
0
0
0
0
0
0
0
0
0
0
0
0
0
0
0
0
0
0
0
0
0
0
0
0
0
0
0
0
0
0
0
0
0
0
0
0
0
0
0
0
0
0
0
0
0
0
0
0
0
0
0
0
0
0
0
0
0
0
0
0
0
0
0
0
0
0
0
0
0
0
0
0
0
0
0
0
0
0
0
0
0
0
0
0
0
0
0
0
0
0
0
0
0
0
0
0
0
0
0
0
0
0
0
0
0
0
0
0
0
0
0
0
0
0
0
0
0
0
0
0
0
0
0
0
0
0
0
0
0
0
0
0
0
0
0
0
0
0
0
0
0
0
0
0
0
0
0
0
0
0
0
0
0
0
0
0
0
0
0
0
0
0
0
0
0
0
0
0
0
0
0
0
0
0
0
0
0
0
0
0
0
0
0
0
0
0
0
0
0
0
0
0
0
0
0
0
0
0
0
0
0
0
0
0
0
0
0
0
0
0
0
0
0
0
0
0
0
0
0
0
0
0
0
0
0
0
0
0
0
0
0
0
0
0
0
0
0
0
0
0
0
0
0
0
0
0
0
0
0
0
0
0
0
0
0
0
0
0
0
0
0
0
0
0
0
0
0
0
0
0
0
0
0
0
0
0
0
0
0
0
0
0
0
0
0
0
0
0
0
0
0
0
0
0
0
0
0
0
0
0
0
0
0
0
0
0
0
0
0
0
0
0
0
0
0
0
0
0
0
0
0
0
0
0
4522.39
1416.53
3451.13
1581.87
1083.08
647.747
522.946
691.045
8958.88
5265.24
5567.75
8616.8
6557.96
3549.96
5157.27
2643.4
5916.59
5415.09
1212.22
8065.31
5028.74
645.083
3022.65
3539.21
5525.06
8852.62
10582.1
5417.14
11048.9
9261.43
5820.15
9469.47
5317.57
3283.98
4142.33
3019.87
1646.82
5384.21
4384.69
3544.16
3117.32
5537.53
6159.65
3661.37
4452.14
8210.1
6757.21
9471.16
4588.8
11225.3
10018.9
9036.96
4621.78
9146.9
4029.27
646.069
1955.65
570.374
3111.82
3324.99
2627.35
3977.48
3656.82
1541.68
3381.99
2206.64
3124.39
5869.81
7954.49
6568.81
8905.57
9892.62
5875.87
8434.3
8207.91
2168.97
1732.27
4543.31
1837.99
3952.05
4877.27
1076.29
2577.71
5520.3
6197.65
5532.12
8822.79
7666.42
8834.63
5854.46
3957.62
3204.69
2505.91
3884.93
2156.93
5126.24
893.865
9337.14
806.677
925.739
2131.88
7325.87
6337.36
8970.48
1878.58
907.184
5948.93
9175.85
10689.2
918.181
12450.6
1415.94
12001.6
1143.25
1612.63
1470.93
12316.5
4931.96
7893.6
1584.5
6601.85
5893.71
6892.42
12251.5
12915.7
7309.41
5015.98
8391.53
2864.95
451.265
663.379
46.7452
10231.4
12599.4
6295.28
943.703
652.309
629.02
191.858
41.1291
28.1501
58.4504
13192.5
5293.4
8019.05
469.669
993.714
360.865
150.17
404.286
711.045
13528.9
3045.1
980.982
1382.54
7860.35
3518.5
11549.4
5047.98
1548.53
1334.2
4919.24
218.789
280.296
500.493
408.063
215.644
1386.05
8587.98
1571.54
1120.89
5163.81
2528.61
5272.18
1771.98
568.496
1594.56
4599.02
2544.94
2702.26
12029.7
12347
13176.3
12208.3
10772.2
11938.3
10900.9
8491.45
8721.07
8206.02
9496.79
2210.32
635.965
7130.06
180.579
11120.9
6629.53
11008.9
9062.63
5707.34
11714.7
12556.4
11548.8
11263.3
1654.13
409.746
341.46
156.055
169.509
49.4844
103.538
297.856
149.855
8167.64
6724.24
7069.08
4304.47
864.056
4038.88
175.769
79.1367
271.423
197.165
166.619
6296.39
6190.31
1356
4127.84
4046.51
133.725
404.756
326.177
161.699
443.176
7092.1
2720.64
3269.79
11353.7
8512.64
10722.5
5621.67
11083.2
10710.2
91.1203
215.537
125.322
143.66
112.732
139.636
134.558
151.033
10688.4
11533.6
5592.47
11120.3
11031.6
11462.4
11137.6
4534.49
10527.3
6546.47
1166.76
10594.9
304.865
4164.48
118.233
2636.45
2335.15
1708.06
761.95
147.827
670.451
321.988
42.9507
440.348
375.345
114.946
62.9863
134.779
525.778
94.3469
4674.82
2978.94
3108.24
103.05
161.879
134.097
100.554
160.578
84.8586
129.708
54.1332
137.543
26.3253
65.155
173.939
140.534
434.781
498.192
1130
216.311
430.003
1129.67
180.701
27.3928
278.2
182.979
138.755
1299.37
770.48
546.647
1110.94
368.684
115.805
495.343
242.797
77.5341
603.643
945.002
201.94
9264.28
8567.07
11534.2
726.292
2746.01
808.265
1830.03
181.972
99.1012
160.163
150.607
425.946
81.4241
185.558
338.174
10204.2
833.16
3833.4
3094.98
460.04
99.6321
216.726
251.36
1531.36
85.6899
105.049
85.8004
70.6988
116.141
144.241
510.934
168.513
501.008
360.908
208.9
438.321
432.511
111.536
298.062
310.399
141.54
49.3889
90.3514
65.6202
207.329
44.5205
111.054
84.9461
176.595
105.639
358.476
685.093
141.432
30.2716
130.748
37.3251
95.9707
78.7957
97.4523
174.765
189.322
301.89
348.941
899.208
702.467
257.357
605.705
191.056
100.836
244.807
167.651
171.801
454.713
201.22
287.192
289.105
261.363
102.966
533.759
366.71
181.458
384.021
137.157
130.932
106.291
10.7536
26.575
38.1577
27.104
27.8289
21.7625
634.405
35.4797
148.512
150.831
428.021
74.1766
153.654
652.839
37.5573
0
50.4103
60.1393
20.1141
54.4094
26.069
113.446
104.13
70.5194
114.997
100.931
116.766
99.9226
205.631
415.449
300.813
270.506
265.938
415.648
315.045
276.483
147.682
256.274
320.107
153.911
31.325
86.5406
744.329
955.671
373.937
1144.77
1319.22
514.469
529.846
1013.77
535.774
51.3495
42.5603
90.3732
46.3024
107.806
39.8968
73.1697
197.647
131.813
743.386
342.186
238.862
516.984
344.541
162.416
204.006
197.357
121.702
248.175
164.69
151.339
227.937
266.903
70.551
131.808
189.256
269.843
436.805
296.355
170.168
188.932
227.191
38.3581
41.1308
47.3387
150.685
73.9261
99.7601
37.8542
409.151
167.17
206.782
231.636
354.007
215.554
235.786
280.379
0
24.5171
13.6471
140.931
13.9234
25.024
46.6799
98.8606
78.6711
67.1928
111.08
35.9941
126.109
309.27
377.375
253.111
532.023
326.058
255.367
407.241
260.564
304.647
231.466
274.871
277.875
245.89
33.8773
104.371
593.894
265.391
544.727
493.886
386.235
695.952
486.313
239.89
179.191
76.2022
42.2355
64.8353
97.6388
38.817
89.137
108.034
126.469
115.972
322.024
91.2339
122.754
59.6956
16.949
49.1442
148.783
255.072
664.687
228.831
127.225
280.099
252.143
8084.48
6491.85
14435
33.2961
93.1874
84.6624
228.131
54.4204
151.001
85.6721
89.932
92.9057
563.967
246.763
115.763
177.022
193.888
170.813
39.0093
8354.74
1675.96
5944.24
95.4521
246.914
27.9845
92.4781
195.94
143.698
94.2685
59.9718
39.8947
112.494
63.1163
129.483
46.404
220.621
366.025
374.659
285.449
151.968
553.136
317.276
119.385
-7.41425e-15
27.7873
22.3879
-3.4904e-14
1.60472
33.0038
37.5934
92.9289
22.8469
81.7323
116.727
46.8069
181.147
622.431
637.632
199.07
315.775
190.484
148.402
162.047
142.507
279.397
120.161
296.23
351.922
136.856
36.5424
106.116
95.8512
54.1197
367.793
140.663
112.947
263.034
237.869
44.7262
62.3911
104.363
80.5759
68.7826
90.6959
74.2769
107.482
134.414
108.563
26.4974
92.4116
8.23222
6.22419
9.38434
5.95868
3.18151
50.9815
57.6637
37.5832
29.1188
40.7775
50.1091
70.2722
268.306
86.5818
111.649
49.1678
177.869
129.244
14.1567
6.44531
19.4137
14.5516
3.33806
2.20738
12.3249
24.7595
82.3095
95.6069
71.9419
160.656
94.1279
144.968
63.0862
243.111
189.434
236.347
68.8622
6.34646
7.14441
23.8192
26.2373
8.98565
5.95805
2.38224
144.768
120.097
23.3422
78.2624
24.2592
73.1446
22.8567
64.3595
65.7582
164.032
253.338
260.422
142.145
95.0141
292.669
218.356
58.0028
153.672
13.2161
7.89577
4.07656
11.0955
23.6241
-1.43208e-15
36.9951
37.1334
0
21.2911
2.03815
115.653
58.7028
110.084
277.63
107.169
209.393
169.401
51.2154
240.114
76.6562
135.564
183.855
54.4921
110.162
350.068
188.444
426.319
462.388
221.844
5.0991
57.5613
27.3461
32.8883
151.425
57.7048
52.2113
26.9045
87.6597
13.2659
63.8821
28.4484
84.5051
109.116
38.0495
51.9877
60.7896
99.4133
125.32
9.58736
157.915
6.80026
0
0.929927
0
7.50268
48.0284
42.9489
58.711
38.5142
43.5702
46.9958
35.6671
126.092
53.9263
180.865
18.4697
357.524
196.76
8.13039
0.0450908
7.26816
0
9.6902
0
8.60752
31.1187
63.2954
68.2375
12.8782
43.6524
238.658
289.116
143.505
382.079
315.284
175.876
66.3968
8.84488
6.29336
5.08892
-2.95828e-15
4.68737
13.1708
2.98254
147.762
80.3743
27.1877
86.0813
31.4326
70.0285
29.364
59.8046
31.7378
91.6732
170.29
140.328
131.396
141.073
209.567
214.846
17.3774
122.305
0
0
-3.16089e-15
10.8952
20.6654
48.0625
28.3494
25.3432
18.1493
46.977
52.1771
217.426
50.39
43.5116
106.768
39.2908
261.897
143.165
114.444
108.754
74.2871
132.128
191.149
125.557
109.777
670.496
369.394
797.018
812.641
531.701
92.3151
122.202
0.51247
39.0741
99.6899
19.1827
42.5121
12.7987
74.5289
8.99303
55.4679
68.5846
56.8464
61.7173
50.2369
74.6351
38.5982
105.348
60.7776
226.246
18.489
21.6798
42.3865
31.3317
6.93476
6.41972
82.935
996.995
244.668
846.034
127.553
372.653
203.636
2.83343
0
0.676059
0
0
0.358571
12.7075
49.2561
10.162
14.5869
50.8422
63.1284
178.569
149.949
60.8622
118.592
62.2555
207.088
33.6901
3.20297
5.2814
9.68196
11.4124
0
3.03671
0
49.297
51.3196
26.365
115.432
45.8555
38.7268
64.5251
46.0948
55.8958
133.594
154.922
113.2
102.968
127.103
157.705
141.781
181.788
33.2454
16.2128
53.3375
-5.46617e-15
3.02624
26.9023
23.1677
103.707
90.6189
61.9741
80.253
50.5911
109.191
87.0534
100.903
279.161
152.263
174.913
246.658
126.791
209.415
824.655
503.981
1103.46
729.866
770.512
170.389
276.867
20.6879
3.87755
84.1531
21.5257
74.2992
64.5042
101.273
26.2559
54.1918
61.9703
60.8397
101.359
207.37
85.0884
146.618
377.501
422.394
391.601
23.347
33.9912
17.0364
2.78105
0
23.4744
148.859
162.198
256.734
91.8184
105.035
54.5603
72.9387
37.0946
37.1642
15.3762
90.5947
148.566
99.7497
138.001
132.782
88.2281
79.5525
34.5107
28.625
64.6489
44.4023
37.6175
18.5975
52.9852
154.929
143.79
222.507
96.4326
144.676
171.513
196.994
208.68
68.6961
4.06373
51.6005
91.9341
37.5742
83.461
22.038
98.2007
22.4314
59.1182
150.588
61.7071
133.815
98.8249
111.947
387.476
116.482
137.494
246.314
69.2385
149.345
579.396
1026.87
906.276
615.662
896.139
1003.46
1335.32
52.3195
52.7676
80.974
22.6429
29.3003
45.0797
57.169
23.7014
68.8934
287.695
839.356
916.531
761.585
453.352
251.309
351.277
472.623
331.399
8.94764
-2.45624e-14
34.4976
20.4028
21.2203
5.84927
62.4586
72.0505
73.7408
35.4219
25.6288
43.1366
27.4411
7.57956
21.1873
53.6854
25.3212
139.792
65.9557
119.392
157.712
64.128
34.526
44.6206
62.863
64.7582
66.0728
33.7146
57.339
45.1825
227.783
200.569
180.113
117.659
173.024
157.448
136.801
202.472
55.273
45.5534
17.0003
36.7236
13.8568
52.7206
70.3548
84.0149
-1.31979e-14
83.3742
114.579
73.9827
117.415
96.7411
50.2076
258.559
154.341
177.565
269.887
101.855
140.969
528.598
556.563
677.967
435.992
629.124
735.503
799.42
28.5537
9.51625
88.859
13.4163
30.0289
21.9922
62.5778
36.0067
59.2402
504.088
114.696
71.5819
535.054
747.222
95.581
110.138
91.4483
8.19737
28.8469
49.5141
17.3949
24.8248
22.716
13.9075
14.9373
49.9113
17.7619
36.7835
21.5417
26.4156
31.3969
-7.52677e-15
19.7632
65.3641
73.8636
85.3601
40.3988
39.4741
98.6154
44.2893
75.446
48.8356
36.2562
50.3375
43.8535
37.2527
77.7844
51.1479
158.067
144.94
179.6
95.2036
138.641
102.736
188.129
136.033
109.594
79.6346
9.75577
29.0907
48.1361
28.1769
48.9259
82.7243
0.860897
14.6378
111.635
87.2051
200.463
88.2963
38.8501
155.032
84.8374
112.689
150.222
86.0704
134.484
366.37
592.729
426.104
291.046
598.879
484.794
517.86
4.51885
13.9357
68.8645
10.7379
41.3614
7.69469
35.2656
29.7336
35.9933
600.978
104.357
117.582
299.346
606.03
79.9343
187.346
47.6387
63.5306
22.7189
31.1011
23.1213
9.90723
1.0576
14.8843
12.4173
119.064
24.9596
30.9791
40.486
36.9271
20.9427
0
18.3992
63.5434
57.2947
127.172
60.5041
57.1169
147.486
112.889
58.309
15.4986
140.412
48.1867
40.3409
34.4217
63.7672
23.9071
134.355
142.141
163.75
96.6658
181.589
181.112
173.557
229.108
139.612
96.0229
31.2281
28.3703
48.2564
37.3949
56.3993
81.6104
55.9711
59.1627
101.3
27.2104
114.802
47.3436
52.3351
207.189
93.1396
127.288
168.185
80.2112
128.525
248.655
569.065
309.6
251.901
477.69
666.724
523.026
8.28194
14.1432
21.3966
12.0487
49.3803
7.20682
10.1917
23.6476
38.173
693.38
93.9344
254.349
281.651
487.374
79.4882
368.828
145.954
272.463
25.3028
72.0568
24.4439
8.08883
-3.81972e-14
6.35256
30.1096
39.3318
22.3823
33.249
62.8923
23.958
35.3933
0
22.199
40.6292
44.75
88.2373
107.982
75.3885
95.4238
47.3345
30.1232
41.1165
53.1388
42.8302
20.129
51.4461
14.3429
74.8447
281.165
200.172
234.281
127.082
185.207
182.347
180.76
55.789
33.7403
89.2413
34.8537
86.6061
23.8478
37.5573
45.5447
52.2501
43.2332
92.7925
117.981
53.4787
185.241
28.3779
8.08405
123.474
104.344
119.365
176.028
85.8182
160.986
155.359
413.585
136.315
134.157
366.234
416.009
330.134
-2.56647e-15
0
66.9077
11.2822
55.1777
37.7971
29.6493
46.8644
0.572899
420.496
58.7466
435.74
281.6
499.973
62.5866
393.23
489.031
682.314
-7.28118e-15
22.5429
9.26645
13.4103
57.9724
41.6464
29.2381
20.6648
150.244
2.10651
6.7263
21.2101
32.2735
26.0797
17.4985
9.50822
62.3174
103.647
75.0914
39.1484
82.7295
90.2957
42.5205
17.1197
27.0463
69.8707
50.1354
43.1215
90.6025
45.9151
144.304
173.268
142.926
121.278
102.105
217.507
227.375
98.1523
49.9481
0
51.379
26.7759
31.8503
76.1481
27.8911
121.983
62.9667
43.4862
176.525
73.7241
216.62
40.3607
18.4445
72.868
75.0697
142.155
177.775
73.5159
157.281
180.207
262.837
165.077
91.9136
256.835
288.321
323.659
0.400851
46.0201
16.4197
23.9131
0
23.4992
35.1228
19.8611
24.9489
276.117
56.5337
255.994
474.905
237.536
59.3496
247.918
593.44
430.307
-7.98181e-15
-4.11066e-14
12.1995
17.15
45.4949
13.6063
33.4206
0
310.908
63.3889
35.8402
32.7075
25.2269
6.35304
29.0237
20.1029
55.9826
110.178
44.9123
28.3572
101.996
7.37586
20.2907
13.9535
41.1368
72.5783
69.8837
18.6777
8.08
37.0963
147.068
221.591
225.249
73.0559
126.611
193.655
176.445
187.176
51.9878
77.9729
77.1784
27.5219
54.9155
91.8549
0
142.934
88.6267
58.866
146.115
27.4009
230.137
37.5619
28.8464
81.5543
64.8872
122.886
67.5291
39.5361
130.158
103.875
86.1714
127.206
124.158
123.058
383.155
293.522
-1.32914e-14
28.3917
15.4694
28.3817
33.4299
-4.70138e-15
29.7915
6.50053
30.6464
288.849
44.0447
179.727
313.808
229.243
67.8563
99.8444
320.289
169.905
-2.36267e-16
-2.81378e-14
-6.0726e-15
0
0
7.21035
81.6207
21.9874
324.93
165.284
68.2738
20.4718
39.1365
19.8343
22.0493
42.6981
196.531
71.0206
43.2726
59.2237
53.1495
34.0336
17.3563
55.0608
48.7748
42.2453
36.9585
28.4452
49.0837
64.2437
133.768
176.927
145.973
127.466
168.639
231.755
202.374
148.505
52.5326
18.8947
46.776
65.222
29.6192
95.2862
136.877
114.297
50.6481
78.6603
92.1171
0.69539
205.439
47.7707
14.1701
107.712
46.2353
78.3628
191.205
41.2775
119.097
75.037
62.7119
141.83
77.9638
65.2911
74.5956
149.565
3.20251
0.754001
34.7695
4.27682
26.6793
0
13.0785
6.20387
24.1536
223.646
52.3496
132
195.51
204.565
22.3321
85.6711
156.447
121.59
8.73669
0
13.598
16.9538
0
13.4298
179.724
144.267
105.863
139.514
135.237
6.96106
8.99647
55.025
10.3673
21.1348
61.3783
95.7669
80.3196
91.7291
169.62
41.3895
45.8104
32.4431
66.5935
78.4171
31.9321
27.9392
41.0444
53.0311
147.607
170.757
207.083
141.867
170.733
163.543
213.145
211.713
88.1184
73.3532
46.7205
127.212
103.624
80.5637
53.3424
81.8061
27.0623
64.2169
176.897
108.979
139.048
27.2799
-1.21111e-14
89.8138
43.1456
60.9797
111.927
34.1132
50.5363
101.914
30.0328
101.205
107.727
79.8164
104.437
144.375
6.08249
22.2335
23.0012
10.4845
14.3352
27.6816
3.06902
9.19887
7.14836
186.955
69.2487
111.994
132.734
228.438
42.4853
124.684
89.0401
76.4933
19.2179
41.1388
26.6098
7.09838
25.1528
5.83139
142.744
158.247
78.2841
131.216
216.303
56.9593
23.3935
24.8732
9.22258
22.1793
121.041
92.4467
81.9391
172.081
167.701
43.2179
40.9024
48.7818
59.3572
62.693
13.5719
77.9453
41.344
30.8653
181.869
195.969
337.572
51.5637
157.771
148.59
296.91
212.203
91.4559
31.6519
20.6732
73.376
46.3414
41.1122
48.5987
134.595
152.829
88.5911
115.517
114.456
157.422
26.4516
13.6751
84.8684
0.482756
87.9118
100.942
35.1963
19.5353
82.1571
87.5638
142.484
92.2688
61.8766
60.7207
97.2501
-1.24516e-14
0.468111
36.6577
14.5998
2.58805
0
44.8908
14.4719
13.7504
274.841
20.6732
96.0767
104.568
174.526
72.2673
105.715
104.735
152.174
14.1951
-1.48673e-14
20.8546
20.1308
0
20.7578
76.6634
124.308
98.0405
45.5183
23.8134
21.0122
30.623
38.8207
15.7444
21.2285
165.217
137.019
47.8622
107.576
109.028
26.3788
49.5577
58.1145
49.1079
78.3087
51.3447
48.3842
126.6
107.158
192.153
214.16
337.163
71.0943
173.989
166.011
297.76
193.316
42.0372
159.831
65.3319
55.1835
50.5657
48.8956
127.6
180.958
67.4446
68.5062
80.418
4.17401
177.689
-3.64939e-15
22.2014
120.7
34.443
104.622
139.141
24.7639
70.6888
87.8974
80.2822
162.216
104.551
86.6981
68.065
124.708
0
14.3452
34.6202
8.81544
12.4943
11.5039
15.8729
6.45581
6.39668
108.986
32.3165
127.987
104.247
144.501
14.8354
145.717
123.192
198.291
8.10798
24.9546
6.60711
0.354942
50.1251
14.1521
53.7103
50.9571
71.5833
52.9334
70.9194
20.8334
18.284
0
14.8568
54.8021
71.6376
60.9776
56.3742
47.3369
71.818
59.4098
0.596009
41.9488
65.1763
69.0496
60.8201
88.3764
83.5374
63.8404
124.985
91.3656
220.295
79.6954
144.047
165.545
135.7
124.288
80.5602
160.473
77.3746
32.4664
99.1034
96.9711
44.1776
113.709
74.087
107.287
40.8321
109.427
106.409
36.2374
-2.52738e-14
55.61
59.9057
73.2455
72.7226
24.1774
59.6226
89.7965
82.1893
90.9917
56.8555
74.9366
133.962
64.7343
0
15.8593
22.2488
19.7946
7.2817
11.699
18.6296
10.4946
21.3547
169.361
27.4713
145.694
80.9174
165.138
39.44
102.664
116.18
115.659
11.6268
-2.22241e-14
11.4467
0.299114
23.8216
-5.08778e-15
35.9111
141.093
70.7414
51.1073
33.3768
28.4769
18.8559
0
20.9377
8.6928
73.6768
86.5591
38.5843
39.7601
40.8066
10.3632
44.9662
54.2338
52.3485
60.8324
50.7814
32.5485
59.1465
54.2134
118.717
109.769
98.2209
41.2138
78.931
81.9187
120.896
51.341
35.5877
71.5609
58.8068
67.8033
60.368
66.762
127.368
78.5079
173.051
50.0159
51.7111
28.8378
64.348
0
22.0391
121.343
49.9054
77.4321
66.5825
42.2074
83.5352
89.1721
99.4647
97.3614
53.3885
85.582
113.946
59.3694
15.5965
-9.06223e-15
13.8622
1.35754
35.6033
16.2607
16.6738
12.9404
42.6794
243.021
40.0694
131.029
120.451
234.55
32.4894
108.244
116.218
98.6155
0
5.25227
6.78296
0
0
14.7629
46.1399
85.8129
46.3584
56.3893
51.2773
8.77347
27.0094
14.081
6.69429
26.1943
0.778194
44.0679
33.9034
12.66
76.3949
36.0248
63.5152
44.592
45.8356
69.6353
22.2917
55.3374
96.4003
54.2942
92.5761
92.5507
107.286
65.7164
68.8426
68.0363
108.598
36.8885
33.7389
67.1209
22.1028
25.6155
45.6889
42.1783
38.7701
77.6721
15.2193
58.285
50.9189
96.5706
31.5548
0
37.7668
37.9547
54.5639
74.8737
13.0629
43.7799
68.1238
91.0193
104.649
127.681
58.5784
109.538
148.981
152.346
20.507
28.1448
7.48907
15.5919
4.58057
16.0336
45.7143
33.2396
7.17993
158.935
50.0398
126.445
145.165
144.345
48.4373
62.9005
122.986
117.262
0
0
1.39808
20.2661
0
31.8847
21.8126
65.0366
46.3485
9.70251
-5.61111e-14
9.05734
27.9661
16.9761
4.54292
21.0925
7.11378
70.1217
38.4198
39.4298
27.5494
75.5488
30.9418
53.6419
75.3485
37.2494
48.507
49.4237
55.7372
60.1064
73.8768
51.0828
61.7215
71.7552
49.5131
83.1281
62.2862
84.34
68.8929
73.5053
43.7636
82.8205
48.7445
67.0139
47.911
101.668
24.6779
48.5311
92.3424
47.8898
82.0134
10.2991
13.0419
130.517
78.1587
74.4763
95.3572
61.5432
99.8791
56.259
99.2522
49.1427
48.3703
57.3275
99.047
114.811
-1.59019e-14
0
18.8109
33.1007
9.06658
11.5284
21.3741
1.18401
21.1971
245.523
36.1223
107.768
164.292
138.798
57.3402
95.5943
70.3357
115.598
6.7019
0
15.5258
19.629
0
19.3017
38.8075
46.2901
56.2776
47.6579
53.5078
0
38.4874
25.3007
24.3482
17.5883
30.3756
13.0157
19.5436
-3.02801e-14
51.5447
5.42741
31.173
30.3986
59.4157
20.4352
14.2002
31.3303
88.9416
75.1589
35.5081
89.288
48.6941
100.932
32.6008
94.4259
45.5227
48.0819
110.253
67.4743
79.8156
56.2938
70.8552
59.2141
104.938
95.9935
45.1959
73.3607
70.9136
22.4187
66.511
13.5975
53.8157
153.73
49.6542
64.8361
79.4852
107.701
54.3924
48.605
63.498
37.0085
74.316
60.1082
42.6502
116.1
0
3.75414
16.3419
7.84183
-5.17835e-15
0.691264
46.6732
17.4903
8.02741
162.005
37.1106
94.7048
119.171
164.331
48.5176
54.6812
67.0093
69.2342
38.2146
0
6.84421
8.93794
0
0.273692
49.4207
16.7487
45.4968
35.8807
53.5346
13.9481
8.8026
0
0
2.06662
6.3405
27.9995
27.1411
27.5409
30.2524
46.179
92.8062
69.1266
76.1476
7.15317
42.4857
24.6314
64.771
49.7595
33.9839
39.2087
89.0451
59.5379
61.8329
59.1499
70.1315
23.3953
62.6056
30.2357
55.2201
46.366
20.641
71.352
102.954
57.1509
67.6326
45.1985
107.767
25.7574
46.6671
52.048
58.3909