/*--------------------------------*- C++ -*----------------------------------*\
| =========                 |                                                 |
| \\      /  F ield         | OpenFOAM: The Open Source CFD Toolbox           |
|  \\    /   O peration     | Version:  5.x                                   |
|   \\  /    A nd           | Web:      www.OpenFOAM.org                      |
|    \\/     M anipulation  |                                                 |
\*---------------------------------------------------------------------------*/
FoamFile
{
    version     2.0;
    format      ascii;
    class       volScalarField;
    location    "0.6";
    object      voidfraction;
}
// * * * * * * * * * * * * * * * * * * * * * * * * * * * * * * * * * * * * * //

dimensions      [0 0 0 0 0 0 0];

internalField   nonuniform List<scalar> 
10571
(
0.975404
0.8233
0.817473
0.607848
0.745331
0.882612
0.914701
0.680464
0.838364
0.764518
0.920669
0.865353
0.840004
0.915602
0.970569
0.930445
0.928952
0.847413
0.912372
0.88729
0.81141
0.866056
0.864199
0.736164
0.410315
0.429812
0.557779
0.928796
0.777813
0.698239
0.717596
0.868231
0.977591
0.968012
0.639185
0.72824
0.836981
0.965711
0.96578
0.965741
0.474528
0.867171
0.906165
0.975675
0.981491
0.477029
0.535117
0.901207
0.854278
0.64489
0.920945
0.945469
0.986736
0.668534
0.829674
0.983393
0.986819
0.97026
0.934358
0.525204
0.910042
0.982573
0.959329
0.961507
0.478838
0.804681
0.964679
0.981411
0.966045
0.508041
0.855733
0.979172
0.947586
0.988251
0.98371
0.954228
0.990433
0.934768
0.974826
0.987891
0.988345
0.978232
0.964723
0.966024
0.985059
0.991019
0.978522
0.955808
0.9904
0.993955
0.992956
0.981771
0.943591
0.994197
0.989386
0.984042
0.943495
0.959288
0.907675
0.974789
0.995695
0.871216
0.953402
0.982448
0.988757
0.977395
0.978339
0.982771
0.987131
0.991445
0.979791
0.95065
0.991192
0.996564
0.992991
0.978211
0.950282
0.997871
0.991093
0.988436
0.936782
0.906352
0.952256
0.988996
0.988916
0.986047
0.978908
0.982261
0.988417
0.985975
0.733878
0.981306
0.987995
0.990996
0.98899
0.981575
0.951011
0.524557
0.977657
0.994678
0.981206
0.945941
0.970007
0.999574
0.99097
0.988219
0.958446
0.907018
0.966923
0.984624
0.995181
0.987935
0.987869
0.987358
0.989382
0.972684
0.998567
0.993292
0.990156
0.991987
0.986611
0.987552
0.964896
0.995394
0.987248
0.995463
0.983648
0.979696
0.967551
0.999097
0.998877
0.985866
0.974473
0.933057
0.987453
0.986735
0.980668
0.989514
0.993376
0.991415
0.986688
0.988601
0.981854
0.99834
0.99956
0.992253
0.992311
0.986213
0.984082
0.956565
0.999138
0.987278
0.994621
0.98483
0.983366
0.974009
0.995753
0.994424
0.987106
0.954687
0.888418
0.994231
0.982416
0.950429
0.995931
0.994559
0.991784
0.989617
0.975782
0.951345
1
0.995381
0.994621
0.993205
0.988505
0.981314
0.938285
1
0.991038
0.996058
0.988266
0.981346
0.978008
0.997754
0.995288
0.990201
0.80563
0.988238
0.984649
0.948572
0.996297
0.995743
0.993967
0.992049
0.960859
0.926099
0.992523
0.9931
0.993199
0.988353
0.984298
0.982669
0.989114
0.995118
0.98813
0.985882
0.97268
0.998141
0.997312
0.994465
0.808925
0.996584
0.983205
0.967652
0.924253
0.998007
0.994653
0.987918
0.953858
0.967805
0.996151
0.998749
0.993692
0.990164
0.984639
0.991449
0.995279
0.994605
0.989719
0.985066
0.966518
0.99578
0.993116
0.982147
0.840359
0.994232
0.980242
0.962531
0.925482
0.997703
0.995434
0.980847
0.965015
0.993376
0.994722
0.996991
0.993792
0.989742
0.983701
0.989303
0.992664
0.995844
0.990111
0.984982
0.973431
0.994773
0.994384
0.976969
0.883123
0.9972
0.984795
0.975304
0.938656
0.999358
0.995226
0.98441
0.983449
0.999961
0.996811
0.995944
0.99553
0.990525
0.981768
0.988301
0.992453
0.99429
0.990876
0.98638
0.95492
0.996477
0.995652
0.982357
0.950193
0.997312
0.988908
0.976048
0.9294
0.99642
0.991496
0.985904
0.98988
0.997907
0.996811
0.997025
0.995192
0.990092
0.980744
0.990356
0.998016
0.994892
0.990302
0.984742
0.951901
0.993651
0.995078
0.961563
0.965256
1
0.989279
0.9699
0.938653
0.997974
0.993629
0.988575
0.99122
0.988642
0.996811
0.996417
0.995484
0.989879
0.985465
0.988028
0.9954
0.994799
0.987702
0.975394
0.984878
0.993651
0.996769
0.963594
0.9569
0.998376
0.98965
0.977501
0.935408
0.999054
0.994483
0.987213
0.990457
0.948984
0.996811
0.996992
0.994446
0.990212
0.988258
0.991807
0.996843
0.992506
0.988034
0.980201
0.972625
0.990631
0.988284
0.952672
0.979106
0.99944
0.99191
0.981591
0.890966
0.999797
0.993621
0.988479
0.990186
0.93587
1
0.99804
0.993761
0.989627
0.987593
0.991141
0.993627
0.993903
0.988013
0.985778
0.979203
0.989857
0.987921
0.961977
0.988457
1
0.993663
0.981321
0.946044
0.999021
0.993022
0.986721
0.991394
0.958901
1
0.997972
0.993446
0.989929
0.987926
0.985396
0.996062
0.995244
0.986881
0.980405
0.96157
0.996284
0.985659
0.95639
0.979993
0.996024
0.991809
0.981794
0.959029
0.997062
0.993999
0.983244
0.991677
0.983876
0.996922
0.99902
0.994473
0.990827
0.988971
0.979203
0.996152
0.992898
0.987597
0.989385
0.97368
0.995936
0.988316
0.95436
0.976915
1
0.993798
0.986658
0.978704
0.998042
0.991324
0.987892
0.995416
0.990388
1
0.997364
0.995523
0.988067
0.989016
0.983375
0.988036
0.992938
0.984221
0.987015
0.9314
0.996516
0.988497
0.95821
0.967127
0.997313
0.995618
0.989158
0.967647
0.997434
0.991549
0.992616
0.995784
0.979609
0.998791
0.999324
0.995442
0.990076
0.990122
0.992564
0.992875
0.991242
0.990132
0.986213
0.95877
0.995393
0.984571
0.96591
0.975483
1
0.998045
0.988718
0.97753
0.995948
0.992938
0.995755
0.995731
0.975074
0.993733
0.99902
0.995107
0.989484
0.989701
0.993743
0.993477
0.993802
0.990427
0.990086
0.98341
0.995896
0.996437
0.97424
0.973394
0.998936
0.998854
0.99392
0.982727
0.998042
0.995063
0.996581
0.996963
0.981586
0.99901
1
0.99595
0.991125
0.992226
0.994166
0.994559
0.994864
0.991801
0.987549
0.97823
0.995548
0.992181
0.9867
0.989664
0.998376
0.997101
0.990272
0.974917
0.99794
0.995815
0.997149
0.995481
0.990503
0.998901
0.99608
0.994707
0.989983
0.991687
0.995012
0.99519
0.993285
0.989137
0.985913
0.98481
0.991792
0.99058
0.98383
0.981525
1
0.994775
0.991083
0.965337
0.998109
0.997066
0.996001
0.997056
0.987905
0.996812
0.998986
0.993134
0.991366
0.992161
0.99598
0.997234
0.994052
0.988976
0.983376
0.98789
0.994812
0.986354
0.98355
0.993402
0.99832
0.995989
0.991387
0.970318
0.995948
0.996524
0.997751
0.996705
0.988913
1
0.996857
0.995069
0.994436
0.991586
0.994982
0.99516
0.993297
0.989521
0.987382
0.98824
0.995702
0.988588
0.98705
0.983395
1
0.996966
0.996994
0.979575
0.998987
0.997032
0.996542
0.997573
0.993604
0.996812
0.995742
0.994911
0.994149
0.993357
0.994922
0.99026
0.994113
0.991324
0.987782
0.98992
0.997716
0.991305
0.9797
0.99868
0.999944
0.995753
0.990982
0.978313
0.998379
0.997619
0.997452
0.995836
0.985619
0.996152
0.995133
0.995615
0.994765
0.994544
0.992836
0.997174
0.994319
0.992396
0.99289
0.98796
0.990864
0.98901
0.99258
0.996812
0.994624
0.995416
0.996926
0.979424
0.998042
0.997604
0.99663
0.99605
0.988255
0.991314
0.995742
0.995484
0.996182
0.994905
0.995012
0.989328
0.994505
0.994498
0.991154
0.98439
0.988851
0.993085
0.99048
0.992195
0.996753
0.99191
0.993481
0.984801
0.997265
0.998047
0.997594
0.996026
0.992517
0.996812
0.995235
0.996411
0.994548
0.996206
0.990569
0.991793
0.993241
0.992602
0.994559
0.98978
0.996709
0.99535
0.99188
0.994722
0.996136
0.991876
0.995237
0.990505
1
0.996753
0.997068
0.996176
0.992129
0.990436
0.997668
0.994115
0.997053
0.995554
0.993047
0.98632
0.993875
0.995003
0.997029
0.99391
0.996051
0.992663
0.99811
0.996701
0.99356
0.995348
0.991825
0.982602
0.997839
0.998394
0.997118
0.995966
0.995076
0.989774
0.994288
0.994877
0.997402
0.994544
0.995496
0.982261
0.995559
0.997421
0.996795
0.99104
0.995897
0.99683
0.99363
0.986914
0.991602
0.996056
0.991318
0.986749
0.996725
0.996757
0.9982
0.997125
0.989299
0.993184
0.996384
0.997927
0.998157
0.997503
0.996887
0.9862
0.995942
0.9977
0.994759
0.99797
0.997019
0.997403
0.99853
0.986914
0.995463
0.997067
0.994122
0.989574
1
0.997802
0.998177
0.996329
0.986468
0.99813
0.994288
0.9974
0.998018
0.995947
0.994922
0.984876
0.996314
0.997409
0.995193
0.9979
0.997716
0.998098
0.99678
0.978229
0.991769
0.990426
0.996082
0.988822
0.997839
0.99834
0.998016
0.994209
0.990772
0.99989
0.99537
0.997281
0.996802
0.993884
0.986821
0.984067
0.997319
0.996208
0.993557
0.98474
1
0.996195
0.995309
0.972844
0.995576
0.991337
0.993785
0.983985
0.994395
0.998138
0.998446
0.994835
0.989182
0.994942
0.996316
0.996588
0.997282
0.993272
0.986729
0.994979
0.996156
0.996883
0.994592
0.98236
0.995161
0.997101
0.99895
0.996591
0.994007
0.993764
0.995981
0.985428
0.998008
0.998894
0.998331
0.997448
0.989221
0.998021
0.996012
0.996961
0.997971
0.993045
0.991715
0.991401
0.994836
0.9943
0.98855
0.984808
1
0.995863
0.99223
0.990433
0.99384
0.991134
0.995946
0.987892
0.993516
0.997894
0.997344
0.997448
0.988097
1
0.99537
0.996692
0.997688
0.995574
0.993499
0.999669
0.995345
0.995355
0.989785
0.989919
0.995935
0.994806
0.99503
0.992852
0.991993
0.995988
0.993379
0.996185
0.997231
0.998016
0.998219
0.996894
0.993486
0.994171
0.998986
0.9971
0.997793
0.997114
0.994256
0.999699
0.994779
0.994195
0.996361
0.99594
0.996631
0.995501
0.99622
0.997691
0.992215
0.993864
0.989766
0.990388
0.993686
0.996555
0.998553
0.99557
0.992441
0.989663
0.996924
0.996742
0.996163
0.996194
0.996766
1
0.997161
0.993293
0.996562
0.99797
0.995509
0.99233
0.991039
0.994393
0.990201
0.99491
0.991725
0.995464
0.991828
0.997558
0.997133
0.994972
0.996783
0.995051
0.997262
0.997492
0.996353
0.996271
0.997914
0.999429
0.997917
0.99677
0.992823
0.9979
0.992257
0.994354
0.99342
0.996922
0.996192
0.995685
0.997973
0.996546
0.996657
0.996284
0.995157
0.995412
0.989069
0.996811
0.998682
0.997315
0.996078
0.997207
0.995617
0.999128
0.99853
0.997089
0.998631
1
0.995741
0.997041
1
0.99934
0.998376
0.994708
0.996994
0.997687
0.996252
0.995597
0.99371
0.995824
1
1
0.997837
0.998115
0.996488
0.996429
0.999093
0.999128
0.999318
0.998152
0.997096
1
1
0.999456
0.99804
0.996812
1
0.997101
0.993853
0.997417
0.998109
0.997238
0.996174
0.996543
1
1
0.997127
0.997154
0.996972
0.996344
0.996494
1
0.999019
0.999082
0.995827
0.99797
0.999264
0.998248
0.99804
1
0.99832
0.99818
0.996724
1
0.999291
0.997619
0.996393
0.99813
0.999612
0.996811
0.996079
0.999058
0.997774
0.99668
0.995828
0.998557
0.998942
0.998811
0.99803
1
0.998877
1
0.99993
1
1
0.999023
0.998987
1
0.998683
0.997554
0.998442
0.998829
1
0.998021
0.99706
0.9983
0.997859
0.998711
0.996825
1
0.999293
0.999664
0.998064
0.99797
1
0.998822
1
1
1
0.999022
1
1
1
0.998417
0.998745
0.999257
0.999767
1
0.999358
0.998519
0.998316
0.999331
0.997732
1
0.999758
0.999766
1
1
1
1
0.99993
1
1
1
1
1
1
0.999695
0.999221
0.999649
0.999263
1
0.99902
0.999035
0.999117
0.998695
0.999879
1
0.999766
0.999766
0.999032
0.99797
1
1
1
1
1
0.999359
1
1
1
0.999668
1
0.999883
1
1
1
0.999777
0.99938
0.999745
0.999123
0.99982
0.999883
1
1
1
1
1
1
1
1
0.999022
1
1
1
1
0.999889
1
1
1
1
0.999992
0.999849
1
0.999819
1
0.999891
1
1
1
1
1
1
1
1
1
1
1
0.999021
1
0.999777
1
1
1
1
1
0.999814
1
1
1
0.99996
1
1
1
1
1
1
1
1
1
1
1
1
1
1
1
1
1
1
1
1
0.999765
1
1
0.999923
1
1
1
1
1
0.99797
1
1
1
1
1
1
1
1
0.999883
1
1
1
1
1
1
1
1
1
1
1
1
1
1
1
1
1
1
1
1
1
1
1
1
1
1
1
1
0.999888
0.999882
1
1
1
1
1
1
1
1
1
1
1
1
1
1
1
1
1
1
1
1
1
1
1
1
1
1
1
1
1
0.99867
1
1
1
1
1
1
1
0.999129
1
1
1
1
1
1
1
1
1
1
1
1
1
1
1
0.99797
1
1
1
1
1
1
1
1
1
1
1
1
1
1
1
1
1
1
1
1
1
1
1
1
1
1
1
1
1
1
1
1
1
1
1
1
1
1
1
1
1
1
1
1
1
1
1
1
1
1
1
1
1
1
1
1
1
1
1
1
1
1
1
1
1
1
1
1
1
1
1
1
1
1
1
1
1
1
1
1
1
1
1
1
1
1
1
1
1
1
1
1
1
1
1
1
1
1
1
1
1
1
1
1
1
1
1
1
1
1
1
1
1
1
1
1
1
1
1
1
1
1
1
1
1
1
1
1
1
1
1
1
1
1
1
1
1
1
1
1
1
1
1
1
1
1
1
1
1
1
1
1
1
1
1
1
1
1
1
1
1
1
1
1
1
1
1
1
1
1
1
1
1
1
1
1
1
1
1
1
1
1
1
1
1
1
1
1
1
1
1
1
1
1
1
1
1
1
1
1
1
1
1
1
1
1
1
1
1
1
1
1
1
1
1
1
1
1
1
1
1
1
1
1
1
1
1
1
1
1
1
1
1
1
1
1
1
1
1
1
1
1
1
1
1
1
1
1
1
1
1
1
1
1
1
1
1
1
1
1
1
1
1
1
1
1
1
1
1
1
1
1
1
1
1
1
1
1
1
1
1
1
1
1
1
1
1
1
1
1
1
1
1
1
1
1
1
1
1
1
1
1
1
1
1
1
1
1
1
1
1
1
1
1
1
1
1
1
1
1
1
1
1
1
1
1
1
1
1
1
1
1
1
1
1
1
1
1
1
1
1
1
1
1
1
1
1
1
1
1
1
1
1
1
1
1
1
1
1
1
1
1
1
1
1
1
1
1
1
1
1
1
1
1
1
1
1
1
1
1
1
1
1
1
1
1
1
1
1
1
1
1
1
1
1
1
1
1
1
1
1
1
1
1
1
1
1
1
1
1
1
1
1
1
1
1
1
1
1
1
1
1
1
1
1
1
1
1
1
1
1
1
1
1
1
1
1
1
1
1
1
1
1
1
1
1
1
1
1
1
1
1
1
1
1
1
1
1
1
1
1
1
1
1
1
1
1
1
0.617079
0.812575
0.683492
0.804119
0.846424
0.911
0.919895
0.887213
0.478105
0.594369
0.585166
0.497445
0.565208
0.710789
0.68771
0.793705
0.604839
0.585209
0.864599
0.493823
0.679613
0.920095
0.743206
0.774336
0.651728
0.508753
0.443316
0.583093
0.429877
0.481165
0.607879
0.48084
0.632796
0.743856
0.716477
0.770224
0.84145
0.721821
0.725686
0.756632
0.760634
0.645517
0.608817
0.710914
0.658324
0.529426
0.553913
0.475199
0.619029
0.424698
0.446136
0.486484
0.660404
0.479472
0.685972
0.927359
0.805826
0.935865
0.772252
0.742737
0.772837
0.691133
0.696719
0.811342
0.710003
0.795749
0.723167
0.580149
0.497085
0.563934
0.47063
0.457066
0.594757
0.485409
0.504727
0.791756
0.816095
0.665631
0.805012
0.674265
0.616808
0.86095
0.762083
0.596443
0.581637
0.597088
0.499817
0.510397
0.480807
0.582124
0.673001
0.704474
0.764563
0.675229
0.797327
0.606712
0.88368
0.483694
0.898946
0.886448
0.783374
0.550487
0.583075
0.516146
0.818973
0.899914
0.645422
0.530251
0.477219
0.898732
0.435194
0.842238
0.429053
0.874606
0.839241
0.857885
0.423028
0.639612
0.52457
0.850705
0.617743
0.693311
0.62584
0.441964
0.41762
0.576149
0.653454
0.53623
0.779285
0.941513
0.916843
0.991802
0.472205
0.424692
0.59826
0.90344
0.925324
0.93289
0.97822
0.994801
0.993351
0.988704
0.416739
0.643071
0.531715
0.943131
0.900937
0.955077
0.980057
0.943575
0.91205
0.40853
0.804366
0.880292
0.861312
0.518588
0.742873
0.435263
0.631604
0.836627
0.857743
0.636603
0.972555
0.95942
0.939456
0.937188
0.966555
0.846934
0.500511
0.832278
0.858834
0.60498
0.762072
0.578274
0.814428
0.925805
0.817275
0.638584
0.745779
0.7435
0.429712
0.417839
0.418146
0.431904
0.48599
0.438601
0.452587
0.565969
0.538859
0.543373
0.483239
0.798385
0.913368
0.579134
0.969968
0.452349
0.537171
0.451692
0.504209
0.653391
0.42819
0.41769
0.427253
0.44821
0.815711
0.949343
0.953009
0.982045
0.974754
0.993905
0.986112
0.959135
0.978549
0.538458
0.585682
0.583332
0.707205
0.902143
0.69871
0.98013
0.990668
0.968477
0.97868
0.980214
0.622718
0.629403
0.858159
0.698482
0.697083
0.984024
0.941159
0.955982
0.978268
0.939033
0.570086
0.732833
0.728057
0.432904
0.497745
0.436336
0.595275
0.438486
0.445332
0.987272
0.972768
0.982185
0.983266
0.986698
0.984074
0.98216
0.979195
0.440162
0.4261
0.5781
0.424418
0.439311
0.428169
0.42194
0.625741
0.444333
0.547245
0.846118
0.43355
0.961412
0.616956
0.978463
0.760182
0.745504
0.81633
0.898798
0.975676
0.891493
0.954226
0.993446
0.938317
0.943798
0.984265
0.991365
0.982205
0.918782
0.985627
0.601662
0.681031
0.71808
0.980133
0.96918
0.975566
0.981258
0.976076
0.988832
0.981802
0.993009
0.980449
0.996638
0.991571
0.977472
0.982358
0.941375
0.950331
0.878849
0.973666
0.955655
0.874082
0.979905
0.996824
0.967871
0.979746
0.984716
0.86353
0.894731
0.94402
0.882002
0.958107
0.984789
0.931569
0.967449
0.990002
0.916498
0.876724
0.974411
0.468364
0.461083
0.42999
0.845602
0.673916
0.819936
0.722473
0.979418
0.989084
0.981137
0.984833
0.95448
0.991071
0.979371
0.959207
0.441956
0.836232
0.641866
0.661097
0.909515
0.981292
0.960873
0.964646
0.77888
0.987169
0.985895
0.98652
0.991688
0.980224
0.977284
0.912085
0.971325
0.906997
0.932829
0.964491
0.916783
0.93085
0.98585
0.951854
0.948959
0.981577
0.993869
0.989261
0.991301
0.972563
0.99208
0.982015
0.985455
0.971894
0.983418
0.948944
0.910995
0.980678
0.996455
0.983409
0.995582
0.987344
0.990964
0.988175
0.977991
0.976298
0.961348
0.961096
0.888365
0.916865
0.968777
0.916047
0.978359
0.987447
0.970928
0.980492
0.980089
0.945901
0.975482
0.966908
0.961066
0.966828
0.986247
0.929513
0.948691
0.976496
0.943778
0.983413
0.985145
0.979287
0.997415
0.99293
0.994291
0.995357
0.995107
0.996127
0.933917
0.996234
0.983557
0.984625
0.952114
0.992331
0.983197
0.924146
0.987764
1
0.991918
0.991443
0.996864
0.991181
0.99561
0.986101
0.982778
0.990066
0.986206
0.984308
0.987602
0.986828
0.970656
0.926114
0.951748
0.947016
0.95228
0.936258
0.943914
0.951715
0.981528
0.956684
0.944393
0.980395
0.996302
0.989877
0.910427
0.886039
0.948725
0.853268
0.846055
0.93016
0.930883
0.867051
0.923345
0.993356
0.9952
0.989101
0.994722
0.986326
0.995506
0.990956
0.975259
0.982908
0.907046
0.958987
0.960698
0.932075
0.956346
0.9735
0.976148
0.977678
0.985275
0.97006
0.976971
0.978404
0.969528
0.968662
0.989851
0.982071
0.972654
0.960151
0.935083
0.958108
0.971863
0.977051
0.973771
0.994199
0.993475
0.991859
0.979011
0.98908
0.984812
0.994127
0.950575
0.982807
0.977125
0.975309
0.954306
0.977789
0.973531
0.961337
1
0.995942
0.998037
0.988367
0.997754
0.996284
0.992427
0.988446
0.987271
0.991361
0.987198
0.993854
0.986536
0.957898
0.948485
0.955577
0.922549
0.94427
0.954808
0.937445
0.956443
0.948806
0.970971
0.952615
0.953653
0.968996
0.99616
0.987583
0.9178
0.957505
0.925808
0.923592
0.941778
0.89929
0.928079
0.957172
0.969807
0.990556
0.995119
0.992147
0.988885
0.994991
0.989915
0.987112
0.983861
0.984574
0.953707
0.986145
0.980585
0.989123
0.996811
0.992033
0.97592
0.967603
0.906416
0.971158
0.982626
0.963302
0.964091
0.472706
0.528309
0.393609
0.9889
0.967417
0.975449
0.914489
0.992395
0.978042
0.987684
0.986788
0.987374
0.900762
0.961293
0.975935
0.969447
0.967795
0.972009
0.992089
0.3823
0.714481
0.47908
0.968708
0.901129
0.992581
0.95858
0.976909
0.982001
0.98687
0.991281
0.994187
0.985203
0.99089
0.98228
0.993369
0.969419
0.96198
0.956539
0.968013
0.978342
0.942026
0.961844
0.982001
1
0.996012
0.996768
1
0.999729
0.995346
0.996707
0.98956
0.996817
0.990333
0.986918
0.993635
0.980804
0.91335
0.909725
0.965476
0.949018
0.968288
0.973833
0.974102
0.975467
0.951599
0.984079
0.946357
0.936455
0.980254
0.995821
0.988035
0.982445
0.989759
0.94195
0.974308
0.979152
0.954797
0.960619
0.992012
0.989184
0.986638
0.990665
0.991541
0.989148
0.990625
0.987735
0.983355
0.985003
0.996142
0.986679
0.998772
0.998028
0.996578
0.998288
0.998829
0.992103
0.990323
0.993942
0.994735
0.993512
0.991791
0.989774
0.961568
0.986572
0.983985
0.992481
0.971776
0.97947
0.997252
0.99743
0.994982
0.997533
0.998972
0.999198
0.995755
0.996152
0.988033
0.986804
0.989545
0.977614
0.982332
0.973459
0.989362
0.952473
0.963187
0.958772
0.986651
0.998068
0.997855
0.993555
0.999668
0.997093
0.997594
0.999149
0.981024
0.984791
0.996733
0.989481
0.996518
0.990285
0.997029
0.991449
0.99125
0.976034
0.970503
0.96681
0.981765
0.985938
0.963944
0.971067
0.992127
0.975446
0.997744
0.997524
0.998089
0.996329
0.996781
1
0.994894
0.994622
1
0.997341
0.999781
0.987116
0.992318
0.987346
0.969353
0.986832
0.976813
0.973231
0.99052
0.956901
0.986025
0.977013
0.966796
0.990477
0.981222
0.93549
0.972747
0.917554
0.914245
0.967435
0.999305
0.993319
0.994636
0.993939
0.973746
0.989032
0.990878
0.994511
0.984416
0.997616
0.988957
0.996338
0.990266
0.986195
0.995248
0.993144
0.992527
0.986958
0.980279
0.998079
0.976753
0.998587
1
0.99955
1
0.996439
0.992142
0.993732
0.990458
0.993264
0.996811
0.992336
0.993911
0.977968
0.990762
0.972101
0.997245
0.941102
0.967478
0.998294
0.999972
0.998393
1
0.997508
1
0.997477
0.995121
0.99086
0.990433
0.998091
0.993803
0.955911
0.948866
0.976368
0.933416
0.943888
0.97039
0.989419
0.997088
0.998087
0.998355
1
0.998412
0.997801
0.998794
0.980047
0.989396
0.996502
0.988524
0.995822
0.990737
0.996172
0.992237
0.995913
0.985478
0.977313
0.98022
0.9822
0.978524
0.971914
0.968829
0.996121
0.980878
1
1
1
0.996332
0.997271
0.993843
0.996465
0.996817
0.997754
0.994109
0.993635
0.975563
0.993636
0.994927
0.98747
0.995501
0.969458
0.975114
0.979925
0.979439
0.987497
0.976376
0.963825
0.979292
0.980737
0.874721
0.941007
0.846965
0.85439
0.91319
0.989059
0.985423
0.99993
0.998328
0.98127
0.996364
0.992704
0.997816
0.987294
0.99842
0.991076
0.991112
0.993172
0.991743
0.99373
0.990028
0.99523
0.9857
0.991
0.966072
0.997058
0.996811
0.993063
0.994774
0.9989
0.999091
0.987063
0.84842
0.96106
0.887518
0.981853
0.942093
0.971081
0.999275
1
0.999842
1
1
0.999923
0.997934
0.992576
0.998451
0.997691
0.99294
0.991441
0.969555
0.975764
0.989724
0.980142
0.990756
0.970188
0.995318
0.998999
0.998855
0.996292
0.998036
1
0.99942
1
0.993512
0.993024
0.996633
0.985093
0.994156
0.995068
0.99208
0.994262
0.993097
0.980057
0.978342
0.983461
0.985896
0.981152
0.977151
0.978898
0.972848
0.995942
0.997971
0.993655
1
0.999613
0.996647
0.996817
0.987468
0.989355
0.992813
0.990147
0.994074
0.985359
0.985153
0.982924
0.94887
0.975075
0.968927
0.952389
0.979063
0.962903
0.847619
0.912277
0.787821
0.864339
0.869946
0.979004
0.9659
0.996308
0.999303
0.985708
0.996335
0.987985
0.989135
0.983192
0.99553
0.991698
0.991753
0.992361
0.986224
0.973508
0.98899
0.981745
0.950045
0.937984
0.941654
0.995665
0.994832
0.997244
0.999613
1
0.996486
0.974245
0.978351
0.958133
0.983789
0.985104
0.992485
0.989931
0.995052
0.994607
0.997676
0.987094
0.978644
0.983978
0.979876
0.979228
0.988071
0.989187
0.995611
0.996512
0.992219
0.994407
0.995514
0.99775
0.993703
0.976578
0.97951
0.967299
0.986542
0.97837
0.974585
0.970069
0.967471
0.991814
0.99958
0.993867
0.989354
0.995625
0.990334
0.997476
0.987786
0.997366
0.993085
0.980893
0.992648
0.981441
0.984039
0.981321
0.925999
0.980148
0.974018
0.949861
0.98812
0.972627
0.889256
0.842221
0.818702
0.879328
0.856129
0.877093
0.839742
0.996099
0.992616
0.986938
0.996484
0.99541
0.992944
0.990744
0.996276
0.989781
0.96366
0.902437
0.886159
0.908542
0.94339
0.970154
0.952661
0.930804
0.948292
0.998645
1
0.99473
0.996865
0.996921
0.999122
0.988893
0.987354
0.987175
0.99392
0.995714
0.994031
0.996282
0.99879
0.997364
0.993185
0.995752
0.977715
0.988424
0.980898
0.973877
0.99142
0.995326
0.99459
0.992238
0.992311
0.992002
0.996141
0.993419
0.994793
0.965343
0.97029
0.972779
0.983079
0.973759
0.976046
0.978144
0.967454
0.993423
0.994963
0.997946
0.99572
0.998413
0.993778
0.991549
0.989153
1
0.989764
0.98501
0.99144
0.98383
0.984806
0.992055
0.947771
0.974732
0.966692
0.946671
0.982936
0.973899
0.894142
0.895803
0.853106
0.907136
0.872812
0.886025
0.852214
0.995263
0.998677
0.985862
0.997855
0.995412
0.996304
0.990205
0.994756
0.991214
0.937202
0.983761
0.988814
0.918327
0.90095
0.98623
0.983457
0.985259
0.998741
0.997755
0.993622
0.997365
0.996323
0.996811
0.998031
0.997338
0.99142
0.997055
0.99401
0.996699
0.996395
0.995702
1
0.997183
0.991442
0.987363
0.986073
0.993381
0.993625
0.983475
0.994001
0.989816
0.994327
0.995613
0.994158
0.994678
0.995746
0.990888
0.994067
0.975675
0.977141
0.971699
0.985982
0.977739
0.983645
0.969489
0.977189
0.987057
0.991115
0.998792
0.996817
0.994347
0.996376
0.994622
0.988923
0.99989
0.998188
0.984934
0.989464
0.970178
0.98627
0.994006
0.967013
0.986031
0.977109
0.968553
0.985838
0.974808
0.920553
0.877567
0.899066
0.933759
0.867656
0.902606
0.886571
0.999303
0.99798
0.989157
0.998302
0.993915
0.99888
0.994369
0.995829
0.994599
0.90599
0.98491
0.981637
0.936552
0.877829
0.987776
0.969261
0.992026
0.989786
0.996981
0.996921
0.997002
0.998491
0.99989
0.997941
0.997882
0.980966
0.99593
0.995219
0.993619
0.994941
0.997367
1
0.997667
0.991791
0.990328
0.978284
0.990235
0.990548
0.975997
0.98584
0.992606
0.998219
0.983689
0.99434
0.995129
0.996043
0.992407
0.997306
0.977612
0.976681
0.972422
0.98521
0.970655
0.970721
0.970838
0.960373
0.983909
0.989156
0.996195
0.996817
0.994425
0.99556
0.993634
0.988845
0.993525
0.992632
0.985746
0.996817
0.982287
0.992543
0.991846
0.960526
0.984484
0.975868
0.965254
0.987154
0.976473
0.94221
0.872262
0.926004
0.939393
0.886314
0.852618
0.883783
0.998816
0.99805
0.996825
0.998302
0.992939
0.998768
0.998442
0.996663
0.994729
0.851021
0.98593
0.957219
0.936489
0.89154
0.986687
0.931075
0.976144
0.954665
0.996555
0.990434
0.996517
0.998878
1
0.999091
0.995309
0.993619
0.996317
0.994916
0.990428
0.996758
0.995508
1
0.997092
0.994773
0.992746
0.985249
0.983129
0.98824
0.9837
0.993373
0.996024
0.995383
0.993476
0.995096
0.997595
0.994229
0.998313
0.991555
0.953662
0.965825
0.959308
0.980735
0.967877
0.969504
0.968068
0.990198
0.996012
0.989856
0.995893
0.990232
0.99729
0.995621
0.993744
0.992718
0.994952
0.988677
0.98319
0.993854
0.969125
0.995749
0.998885
0.97625
0.983052
0.976443
0.965474
0.986225
0.970205
0.96429
0.89932
0.967675
0.966774
0.910739
0.895914
0.91885
1
1
0.989966
0.998421
0.992874
0.994568
0.995627
0.993624
0.99987
0.897947
0.990016
0.914437
0.933606
0.888224
0.989192
0.921849
0.910874
0.874495
1
0.996811
0.999001
0.998839
0.993733
0.9947
0.995552
0.99681
0.977167
0.999697
0.9989
0.997364
0.995857
0.996591
0.99791
0.998722
0.990329
0.982577
0.988028
0.993516
0.98552
0.988421
0.99428
0.998054
0.996794
0.992069
0.994227
0.995219
0.989426
0.994763
0.973887
0.968836
0.974003
0.980435
0.980995
0.961113
0.958178
0.981657
0.993913
1
0.994171
0.996707
0.996477
0.991302
0.996817
0.981912
0.992537
0.994504
0.974398
0.991549
0.961493
0.993937
0.997282
0.985266
0.987695
0.972961
0.966134
0.987773
0.970024
0.959959
0.935667
0.963607
0.979464
0.936209
0.925055
0.91648
0.99993
0.99394
0.997484
0.996604
1
0.996752
0.994788
0.997378
0.996649
0.934193
0.989818
0.943724
0.885898
0.942117
0.989488
0.944964
0.885339
0.905697
1
1
0.998425
0.997755
0.994282
0.998244
0.995189
1
0.949178
0.991194
0.99692
0.99585
0.996864
0.99934
0.996304
0.997483
0.991538
0.98099
0.993046
0.995714
0.982461
0.999302
0.997559
0.998417
0.995107
0.991676
0.992003
0.99789
0.999044
0.995641
0.972392
0.958224
0.95637
0.98768
0.976755
0.962967
0.964791
0.966254
0.994053
0.990975
0.990607
0.996817
0.993767
0.989369
1
0.977342
0.989354
0.992028
0.97738
0.996708
0.957293
0.994216
0.9954
0.983614
0.989321
0.976473
0.987247
0.993112
0.974021
0.976678
0.978283
0.971198
0.973346
0.969384
0.902729
0.925904
1
0.996378
0.997694
0.996157
0.995315
1
0.995536
0.999136
0.995607
0.927495
0.992389
0.962661
0.916129
0.945893
0.988663
0.977734
0.926462
0.959921
1
1
1
1
1
0.999091
0.988288
0.996699
0.93938
0.977125
0.990429
0.997365
0.995121
0.997471
0.997212
0.994733
0.970654
0.987105
0.993198
0.990439
0.990168
0.995675
0.997908
0.993802
0.994319
0.995188
0.99561
0.996801
0.994095
0.992674
0.974495
0.96342
0.970155
0.97853
0.96788
0.952908
0.957507
0.97095
0.993913
0.997901
0.994413
0.992535
0.996632
0.989007
0.984198
0.98218
0.993853
0.989432
0.985788
0.99989
0.95933
0.992683
0.997979
0.979772
0.992417
0.984439
0.964148
0.992995
0.976923
0.984222
0.984016
0.970858
0.983763
0.984398
0.977274
0.957819
0.999582
0.99993
0.994938
0.999434
0.996194
1
0.998053
0.999136
0.99655
0.941828
0.991499
0.970347
0.946044
0.946736
0.995683
0.981183
0.961447
0.970413
0.998878
1
0.998274
0.997832
1
0.998243
0.974942
0.980856
0.978411
0.979878
0.980859
0.999122
0.998877
0.993182
0.998818
0.997367
0.989998
0.982926
0.987515
0.985274
0.969724
0.994699
0.99435
0.996274
0.992126
0.991041
0.996271
0.996867
0.994938
0.993885
0.97255
0.963703
0.955473
0.975556
0.965828
0.967553
0.95184
0.958126
0.989856
0.991604
0.994293
0.984088
0.988345
0.990213
0.993633
0.986446
0.996818
0.991272
0.971604
0.987267
0.97108
0.995958
1
0.98274
0.992882
0.988012
0.977565
0.994427
0.989673
0.978408
0.992569
0.979106
0.978128
0.982307
0.973582
0.960325
0.999164
0.997283
0.996616
0.9986
0.998081
0.996304
0.99967
0.998719
0.999056
0.950444
0.988172
0.974468
0.965746
0.940479
0.993013
0.973582
0.978736
0.982018
0.997601
0.994723
0.996669
0.99911
0.996811
0.999243
0.978246
0.977671
0.984491
0.980357
0.96798
0.993003
0.997057
0.996921
0.998788
0.99725
0.98088
0.983238
0.987028
0.973399
0.969912
0.994629
0.994908
0.994494
0.992857
0.992615
0.998406
0.991128
0.995051
0.996428
0.963033
0.959113
0.924903
0.991218
0.967781
0.968131
0.930078
0.955395
0.989367
0.996222
0.997282
0.991111
0.994618
0.994986
0.993633
0.978159
0.980907
0.98795
0.981289
0.98573
0.967789
0.995958
0.997979
0.984057
0.999884
0.982803
0.978118
0.994234
0.996185
0.983223
0.980378
0.968879
0.980885
0.986024
0.985711
0.977896
1
0.99993
0.994729
0.998123
0.999675
1
0.99326
0.998004
0.998015
0.92634
0.996607
0.978461
0.973768
0.954923
0.987146
0.977304
0.975099
0.965785
0.998142
1
0.997396
0.997368
1
0.997335
0.987867
0.980421
0.980304
0.992464
0.996149
0.997395
0.996244
0.995161
0.998091
0.997367
0.973848
0.974335
0.992168
0.982962
0.978896
0.996652
0.993931
0.993373
0.994039
0.990981
0.993896
0.994492
0.984755
0.987587
0.959739
0.954036
0.918688
0.988146
0.962258
0.964725
0.924256
0.956095
0.994964
0.981037
0.991816
0.992975
0.994076
0.993869
0.984087
0.970646
0.99166
0.990487
0.98617
0.999341
0.962817
1
0.996724
0.974934
0.994313
0.980685
0.970087
0.99582
0.986251
0.981859
0.983239
0.962505
0.978372
0.981459
0.984522
0.973091
1
0.99805
0.995059
0.998838
0.998373
0.998376
0.997603
0.999136
0.999056
0.966453
0.994465
0.972805
0.972629
0.962291
0.997133
0.967137
0.972928
0.951796
0.998878
0.996922
0.999122
0.999961
0.993622
0.998243
0.990862
0.991089
0.985152
0.991254
0.987238
0.997395
0.997754
1
0.998243
0.9933
0.987583
0.988348
0.990777
0.991646
0.986098
0.992676
0.99993
0.995285
0.992014
0.99201
0.992724
0.989875
0.989707
0.992371
0.971147
0.980392
0.942081
0.986075
0.968055
0.963265
0.965293
0.97101
0.990346
0.98076
0.989974
0.995719
0.988463
0.987767
0.994293
0.980016
0.990232
0.98475
0.993376
0.985624
0.975982
0.994634
1
0.987907
0.990328
0.985862
0.982734
0.996014
0.988613
0.981768
0.983433
0.979218
0.987732
0.984362
0.969044
0.986406
1
0.99798
0.996855
0.997528
0.999057
0.998376
0.997214
0.998629
0.997136
0.955552
0.99519
0.968328
0.981492
0.955659
0.992881
0.975489
0.974327
0.971805
0.99853
1
0.998547
0.999961
0.997471
1
0.993918
0.974478
0.984726
0.991103
0.993509
0.996456
0.997715
1
0.997394
0.998916
0.987363
0.983277
0.993741
0.993735
0.991713
0.998675
0.99435
0.993703
0.993364
0.992615
0.993896
0.996273
0.992632
0.99331
0.972672
0.975681
0.976267
0.992921
0.981358
0.981602
0.969137
0.987606
0.995592
0.991185
0.992239
0.99089
0.992915
0.991211
0.983209
0.985943
0.978381
0.99248
0.990741
0.995939
0.985505
1
0.996794
0.973725
0.991488
0.985075
0.984164
0.993112
0.983889