/*--------------------------------*- C++ -*----------------------------------*\
| =========                 |                                                 |
| \\      /  F ield         | OpenFOAM: The Open Source CFD Toolbox           |
|  \\    /   O peration     | Version:  5.x                                   |
|   \\  /    A nd           | Web:      www.OpenFOAM.org                      |
|    \\/     M anipulation  |                                                 |
\*---------------------------------------------------------------------------*/
FoamFile
{
    version     2.0;
    format      ascii;
    class       volScalarField;
    location    "1";
    object      p;
}
// * * * * * * * * * * * * * * * * * * * * * * * * * * * * * * * * * * * * * //

dimensions      [0 2 -2 0 0 0 0];

internalField   nonuniform List<scalar> 
10571
(
96.8203
94.5329
79.8936
86.2967
120.104
77.1388
101.231
125.516
141.264
137.804
54.2132
71.541
116.982
167.296
161.514
126.63
82.571
126.61
154.252
127.51
113.477
94.6077
100.027
115.156
53.7588
52.5934
53.2369
53.8039
54.4863
51.3762
48.427
50.7712
48.2134
59.9548
49.5269
49.7745
41.2898
29.823
47.68
57.3067
49.6626
44.071
46.752
56.366
55.8124
50.4511
51.5364
53.0612
35.5055
8.83609
35.5348
38.2301
16.4147
28.9854
3.5885
3.16695
2.49072
4.10363
40.8428
34.4762
2.83406
2.08002
2.34069
5.939
15.6128
2.35842
2.40276
5.17009
7.10955
4.23911
7.49757
5.49309
1.76538
2.08539
1.78542
1.46696
2.06121
1.84137
1.65293
1.84494
2.03315
2.42362
0.991926
1.56284
1.90693
2.3723
2.11808
2.43113
2.00273
2.04525
2.07904
2.46473
2.41348
2.43664
2.42626
2.4248
2.20309
2.161
2.18839
2.30706
2.21366
2.16276
2.60366
2.64531
2.33692
2.24411
2.68787
2.30312
2.61814
2.46963
2.36149
2.26056
2.17689
2.34275
2.34154
2.30192
2.25104
2.29527
2.2616
2.27754
2.31435
2.23954
2.29538
2.3453
2.28195
2.26248
2.33878
2.36442
2.27856
2.25693
2.29145
2.28682
2.32627
2.36612
2.35331
2.28686
2.27267
2.27564
2.24082
2.30974
2.2821
2.28382
2.2556
2.28784
2.2719
2.26865
2.31833
2.28116
2.32407
2.33079
2.30875
2.29157
2.35172
2.3298
2.29483
2.27345
2.29014
2.32196
2.30914
2.32834
2.32301
2.2913
2.27836
2.29326
2.29461
2.30736
2.29432
2.25201
2.25411
2.29078
2.28813
2.28606
2.274
2.31882
2.30316
2.31768
2.32012
2.30787
2.30321
2.34889
2.33502
2.29938
2.28629
2.29064
2.32325
2.31793
2.34047
2.32351
2.31011
2.29235
2.29896
2.31103
2.29765
2.30125
2.25496
2.27535
2.29563
2.29787
2.29095
2.28382
2.31026
2.3128
2.30541
2.3077
2.30274
2.32163
2.32164
2.32603
2.29338
2.29297
2.29741
2.41593
2.33345
2.33166
2.3188
2.32056
2.30648
2.30581
2.31141
2.286
2.30641
2.27003
2.29505
2.30173
2.29756
2.29431
2.30251
2.31515
2.29807
2.29788
2.29561
2.31821
2.29088
2.30832
2.28903
2.29659
2.3844
2.33107
2.31233
2.3156
2.31854
2.31137
2.31332
2.2864
2.31513
2.29262
2.30905
2.30425
2.30984
2.30787
2.30391
2.31836
2.30152
2.29624
2.2973
2.31869
2.2832
2.30471
2.30087
2.30909
2.33982
2.31433
2.31056
2.32251
2.32659
2.32015
2.31678
2.307
2.32544
2.31302
2.32555
2.31354
2.32392
2.32276
2.3191
2.32733
2.31696
2.31128
2.31831
2.33078
2.30919
2.32682
2.32643
2.32918
2.33885
2.3213
2.33249
2.34126
2.3515
2.34239
2.32991
2.32949
2.34612
2.33987
2.34574
2.32904
2.33963
2.33937
2.34607
2.34175
2.33536
2.34024
2.34788
2.34711
2.34365
2.35752
2.35098
2.35184
2.3598
2.3526
2.36524
2.36983
2.37415
2.36065
2.3521
2.34811
2.36598
2.36169
2.36114
2.34825
2.35752
2.35542
2.36882
2.35677
2.35276
2.36519
2.37161
2.36097
2.36943
2.37463
2.37141
2.36925
2.37647
2.37262
2.38538
2.38799
2.38369
2.37445
2.3697
2.36306
2.37736
2.37251
2.37127
2.36304
2.3723
2.36857
2.38126
2.3709
2.36805
2.37929
2.38178
2.3735
2.38375
2.38398
2.38801
2.3807
2.38363
2.3803
2.39242
2.39102
2.3903
2.38418
2.37834
2.36906
2.38636
2.37728
2.37978
2.36839
2.37917
2.37748
2.38727
2.38171
2.38083
2.38436
2.38181
2.38506
2.38603
2.38935
2.39739
2.38776
2.38618
2.38366
2.39261
2.39269
2.39374
2.39006
2.38043
2.3732
2.39131
2.37717
2.38601
2.3713
2.38088
2.38224
2.3891
2.38788
2.38835
2.38572
2.38027
2.38916
2.38333
2.38874
2.39826
2.39162
2.38659
2.38356
2.39216
2.39156
2.39333
2.39231
2.3839
2.37508
2.39016
2.38067
2.3888
2.37779
2.37951
2.38611
2.39051
2.39164
2.39452
2.39112
2.38595
2.38989
2.38665
2.38734
2.3937
2.39455
2.3872
2.38048
2.39009
2.38859
2.39172
2.39581
2.38498
2.38197
2.38893
2.38703
2.39021
2.39617
2.38109
2.3879
2.39314
2.39331
2.39923
2.3957
2.38833
2.39012
2.39406
2.3882
2.38608
2.39482
2.38601
2.37532
2.39002
2.38706
2.38778
2.39393
2.38328
2.38679
2.38685
2.39124
2.39249
2.4059
2.38391
2.3913
2.39634
2.39307
2.40039
2.39302
2.38709
2.38955
2.39593
2.38851
2.37832
2.39284
2.38459
2.36942
2.39054
2.38404
2.37858
2.38953
2.3828
2.38789
2.37729
2.39065
2.39116
2.40225
2.39197
2.39087
2.39667
2.39144
2.39633
2.39715
2.38491
2.38607
2.39244
2.39179
2.37481
2.39073
2.384
2.36596
2.39121
2.38417
2.37317
2.38625
2.38422
2.39488
2.37585
2.38545
2.38636
2.39965
2.38841
2.38629
2.38588
2.38938
2.38799
2.39008
2.38317
2.38233
2.38535
2.39083
2.37195
2.3891
2.38787
2.37083
2.3902
2.38729
2.37673
2.38581
2.38784
2.40372
2.38573
2.38281
2.38525
2.40266
2.38982
2.38624
2.37499
2.3897
2.38408
2.37105
2.38583
2.38477
2.37614
2.3843
2.37102
2.38891
2.39571
2.3824
2.3833
2.3922
2.38395
2.38951
2.39253
2.41716
2.39809
2.38814
2.39016
2.40387
2.39586
2.39203
2.38209
2.39315
2.38747
2.37952
2.39129
2.39318
2.3747
2.37577
2.37658
2.39055
2.39811
2.39131
2.37776
2.38998
2.39176
2.39576
2.39087
2.42452
2.4118
2.39946
2.40002
2.40417
2.40115
2.4
2.42648
2.39821
2.39516
2.39525
2.39587
2.40004
2.38418
2.37394
2.38557
2.39339
2.39752
2.3916
2.38538
2.38582
2.39657
2.40028
2.39153
2.4198
2.41759
2.4082
2.40759
2.40503
2.40426
2.40512
2.41995
2.4037
2.40134
2.39832
2.39919
2.4065
2.39916
2.38084
2.3937
2.39728
2.40189
2.39551
2.3947
2.39083
2.3988
2.40305
2.39473
2.40984
2.41587
2.40872
2.40967
2.40632
2.40643
2.40803
2.41126
2.40862
2.40537
2.40281
2.40566
2.41167
2.41173
2.39628
2.39981
2.40237
2.40917
2.40592
2.40297
2.40142
2.4003
2.40464
2.40205
2.40132
2.41249
2.40734
2.40834
2.4073
2.40845
2.40896
2.41509
2.41265
2.41229
2.4108
2.41294
2.4129
2.41907
2.4103
2.40574
2.40786
2.41407
2.41207
2.41415
2.41159
2.40299
2.40706
2.40795
2.39916
2.40932
2.40642
2.40752
2.40868
2.41047
2.40954
2.41845
2.41528
2.41675
2.41873
2.41803
2.4135
2.42292
2.4166
2.41212
2.41318
2.41693
2.41498
2.42276
2.41829
2.40778
2.41135
2.412
2.40602
2.40966
2.40706
2.40918
2.41132
2.41286
2.41064
2.41945
2.41723
2.41812
2.42068
2.41953
2.4148
2.42546
2.41965
2.41686
2.41829
2.42241
2.41819
2.42273
2.4188
2.41315
2.41645
2.41579
2.41175
2.41205
2.40876
2.41307
2.41452
2.41487
2.41237
2.41948
2.41936
2.41875
2.42028
2.421
2.41697
2.42394
2.42169
2.41858
2.4221
2.42942
2.42614
2.4231
2.41665
2.41731
2.42055
2.41632
2.41312
2.41298
2.41121
2.41733
2.41671
2.41598
2.41435
2.41897
2.42125
2.41951
2.41831
2.42
2.41867
2.42101
2.42186
2.42145
2.42452
2.43206
2.42794
2.42037
2.41544
2.42066
2.42302
2.41542
2.41315
2.41424
2.41548
2.42075
2.41792
2.41708
2.4174
2.41894
2.42451
2.42069
2.41569
2.42035
2.41829
2.41927
2.42369
2.42488
2.42613
2.42976
2.42154
2.41846
2.41715
2.42335
2.42404
2.41488
2.41394
2.41754
2.41973
2.42312
2.41936
2.41916
2.42166
2.42197
2.42851
2.4233
2.4188
2.4263
2.41896
2.41822
2.42414
2.42611
2.42686
2.42279
2.41758
2.41847
2.42022
2.42484
2.42467
2.41624
2.41632
2.4214
2.42329
2.42493
2.42141
2.42207
2.42623
2.4258
2.43108
2.42583
2.4235
2.42836
2.42217
2.42057
2.42454
2.42745
2.42731
2.4213
2.41504
2.41898
2.42348
2.42518
2.42536
2.41983
2.41943
2.42481
2.42643
2.42626
2.42396
2.42525
2.42988
2.42812
2.43229
2.42809
2.42838
2.42795
2.4302
2.42414
2.42388
2.42834
2.42726
2.42223
2.42224
2.42051
2.42608
2.42442
2.42591
2.4246
2.42221
2.42745
2.42893
2.42767
2.42679
2.42828
2.43205
2.42873
2.4307
2.42943
2.42959
2.42735
2.43177
2.42562
2.42566
2.42839
2.42714
2.42886
2.43038
2.42189
2.42722
2.42527
2.42679
2.42818
2.4244
2.42934
2.43013
2.42905
2.42993
2.43083
2.43293
2.42897
2.42913
2.4293
2.42988
2.42746
2.42837
2.42668
2.42736
2.42745
2.42731
2.43149
2.43264
2.42274
2.42686
2.42735
2.4273
2.42997
2.4269
2.43092
2.43094
2.43024
2.43284
2.43255
2.43387
2.43035
2.42912
2.43017
2.43064
2.42887
2.42893
2.42798
2.42828
2.42661
2.42711
2.43088
2.43103
2.42353
2.42637
2.42877
2.42784
2.43129
2.42925
2.43302
2.43232
2.43145
2.43528
2.43473
2.43538
2.43239
2.42999
2.43098
2.43186
2.43125
2.4297
2.42801
2.42971
2.42614
2.42785
2.43101
2.43058
2.42547
2.42778
2.4306
2.42942
2.43312
2.43176
2.43518
2.43436
2.43319
2.43737
2.43622
2.43621
2.43338
2.4311
2.43168
2.4333
2.43349
2.43051
2.42796
2.43196
2.42661
2.43019
2.43227
2.43062
2.42838
2.43067
2.43282
2.4321
2.43466
2.43319
2.43742
2.43548
2.43499
2.43686
2.43688
2.43655
2.43472
2.43265
2.43245
2.43457
2.43519
2.43184
2.42845
2.43421
2.42927
2.43433
2.43371
2.43142
2.4315
2.4338
2.43471
2.43535
2.43582
2.43532
2.43766
2.43722
2.43738
2.43678
2.43712
2.43704
2.43632
2.43497
2.43393
2.43615
2.43649
2.4339
2.4293
2.43649
2.43291
2.43924
2.43865
2.43423
2.43443
2.43683
2.43675
2.43927
2.43734
2.43887
2.43849
2.43806
2.44022
2.43795
2.43866
2.43876
2.438
2.43763
2.43607
2.43766
2.43762
2.43662
2.43104
2.43873
2.43477
2.44154
2.44497
2.43791
2.43801
2.43927
2.43841
2.44088
2.43894
2.44348
2.44143
2.44006
2.44406
2.43968
2.44056
2.4405
2.43973
2.43973
2.43831
2.43913
2.43884
2.43856
2.43394
2.44064
2.43566
2.44137
2.44412
2.43871
2.44058
2.44132
2.44017
2.44158
2.44072
2.44567
2.44308
2.44014
2.44218
2.44099
2.44149
2.4413
2.44159
2.44061
2.44055
2.44088
2.44066
2.43706
2.43731
2.44199
2.43696
2.44109
2.43351
2.43649
2.44224
2.44279
2.44114
2.44221
2.43991
2.44562
2.44465
2.44205
2.44249
2.44212
2.44325
2.44276
2.44348
2.44135
2.44271
2.44287
2.44321
2.43248
2.44045
2.44334
2.43928
2.4415
2.41957
2.43345
2.44393
2.44387
2.44167
2.44306
2.43944
2.44432
2.44587
2.44521
2.44358
2.44324
2.44461
2.44502
2.44535
2.44378
2.44497
2.44484
2.44574
2.438
2.44388
2.44466
2.44313
2.44331
2.4255
2.43653
2.44555
2.44462
2.44203
2.44362
2.44116
2.44349
2.44707
2.44586
2.44409
2.44438
2.44549
2.44575
2.44709
2.44755
2.44715
2.44665
2.44776
2.4489
2.44768
2.44659
2.44755
2.44679
2.44873
2.44554
2.44645
2.44565
2.44283
2.44431
2.44472
2.44295
2.44805
2.44507
2.4446
2.44546
2.44635
2.4458
2.44877
2.45051
2.44913
2.44823
2.44931
2.45284
2.44994
2.44853
2.45205
2.44993
2.46124
2.45062
2.44641
2.44763
2.44465
2.44594
2.44808
2.44348
2.44836
2.44432
2.44533
2.44639
2.44735
2.44608
2.45056
2.45241
2.45097
2.4497
2.45079
2.45367
2.45106
2.45016
2.45508
2.45148
2.45684
2.4521
2.447
2.44894
2.44773
2.44812
2.45046
2.44544
2.44788
2.44391
2.4466
2.44749
2.44833
2.44693
2.45238
2.4539
2.45269
2.45106
2.45191
2.45423
2.45311
2.45141
2.455
2.45186
2.4556
2.45347
2.44886
2.44942
2.44956
2.44964
2.45251
2.44803
2.44723
2.44657
2.44832
2.4491
2.44938
2.44892
2.45388
2.45544
2.45426
2.45243
2.45197
2.45542
2.45451
2.45186
2.45281
2.45165
2.45608
2.45446
2.45154
2.45037
2.44951
2.45022
2.45435
2.45117
2.44802
2.44976
2.4496
2.45129
2.45078
2.4509
2.45549
2.4574
2.45591
2.45443
2.45203
2.4572
2.45526
2.45235
2.45062
2.45118
2.45773
2.45567
2.45338
2.45175
2.44918
2.45015
2.45662
2.4546
2.45004
2.45228
2.45131
2.45397
2.45248
2.45264
2.45731
2.46004
2.45858
2.45652
2.45298
2.45987
2.45867
2.45391
2.44903
2.45093
2.46102
2.45878
2.45682
2.45383
2.44932
2.44988
2.45983
2.45814
2.45209
2.45365
2.45202
2.45728
2.45461
2.4539
2.45909
2.46304
2.46191
2.45844
2.45441
2.46293
2.46393
2.45508
2.44873
2.45041
2.46488
2.46324
2.4639
2.45592
2.45021
2.44959
2.46354
2.4618
2.45457
2.45453
2.45207
2.46106
2.45724
2.45553
2.46113
2.46568
2.46456
2.46027
2.45529
2.46617
2.46708
2.45788
2.44935
2.4498
2.46805
2.46709
2.47
2.45927
2.45091
2.44899
2.4672
2.46517
2.45818
2.4549
2.45184
2.46496
2.46047
2.45771
2.46366
2.46758
2.46687
2.46237
2.45676
2.46987
2.46926
2.46327
2.44786
2.44718
2.47122
2.47082
2.47232
2.46476
2.4494
2.44564
2.47077
2.4684
2.46206
2.45493
2.45025
2.46854
2.46394
2.46001
2.46864
2.47125
2.47045
2.46632
2.45848
2.47341
2.47067
2.46445
2.44182
2.43902
2.47603
2.47514
2.47495
2.46923
2.44343
2.43611
2.47487
2.47227
2.46557
2.45317
2.44533
2.47263
2.46748
2.46163
2.47764
2.47798
2.47767
2.4738
2.46036
2.4791
2.47364
2.46561
2.43113
2.42002
2.48223
2.48067
2.47871
2.46761
2.4314
2.41068
2.47994
2.47699
2.46891
2.44986
2.43337
2.47702
2.47101
2.46246
2.49043
2.48866
2.48828
2.48346
2.46329
2.48732
2.48186
2.46622
2.41338
2.37255
2.48904
2.48723
2.48447
2.46563
2.41077
2.34614
2.48611
2.48342
2.47305
2.44327
2.40711
2.48266
2.47517
2.46335
2.51019
2.50015
2.50146
2.49999
2.46985
2.49648
2.49242
2.46867
2.38995
2.24375
2.49624
2.49448
2.49087
2.46572
2.38222
2.19271
2.49338
2.49094
2.4801
2.43635
2.35356
2.48931
2.48156
2.46602
2.52881
2.50764
2.50938
2.51539
2.48266
2.50572
2.5021
2.46961
2.36754
1.88154
2.50411
2.50197
2.4991
2.46407
2.35806
1.93872
-1.94344
2.5032
2.50134
2.48799
2.42914
2.22381
2.49858
2.48956
2.47113
2.53947
2.51549
2.51251
2.5255
2.49737
2.51426
2.50929
2.48835
2.3668
1.69571
0.0688638
2.51324
2.51033
2.51028
2.48277
2.36748
1.91876
0.10454
2.5179
2.51496
2.49919
2.43859
2.06558
2.51382
2.50402
2.48387
2.54258
2.52605
2.51531
2.52842
2.50969
2.52363
2.51763
2.50105
2.40772
1.9239
0.460391
2.5245
2.52104
2.52386
2.50155
2.41406
1.93975
0.533245
2.53823
2.53214
2.51489
2.46905
2.20705
0.728115
2.53261
2.52421
2.50838
2.54448
2.5409
2.5305
2.53313
2.52359
2.53701
2.53276
2.5094
2.4465
2.03492
0.455657
2.53661
2.53216
2.53521
2.519
2.46203
2.10018
0.348881
2.54805
2.54396
2.53599
2.49357
2.24904
2.54706
2.54228
2.53538
2.55449
2.5577
2.55278
2.54822
2.54191
2.55329
2.5487
2.53361
2.49601
2.21862
2.55191
2.54195
2.5469
2.53734
2.51203
2.21086
-1.13576
2.54884
2.55438
2.55106
2.52686
2.44117
2.55636
2.55486
2.55636
2.56331
2.57143
2.56643
2.5611
2.55318
2.569
2.56381
2.55571
2.53569
2.47745
2.57232
2.56321
2.56219
2.55654
2.5454
2.45828
2.56075
2.56306
2.56186
2.55207
2.53208
2.56338
2.56317
2.56363
2.56875
2.5815
2.57451
2.56748
2.56241
2.5831
2.57326
2.56628
2.55936
2.5423
2.58489
2.58106
2.57013
2.56506
2.55945
2.5393
2.57176
2.56871
2.56832
2.56265
2.55781
2.56894
2.5685
2.568
2.57198
2.5826
2.5766
2.5713
2.56805
2.58501
2.57523
2.57098
2.56635
2.56186
2.58379
2.58161
2.57337
2.5697
2.56687
2.56152
2.57575
2.57229
2.57081
2.56837
2.56663
2.57215
2.57116
2.57057
2.57374
2.58096
2.57704
2.57334
2.57112
2.58232
2.57611
2.57272
2.57046
2.5685
2.58155
2.58022
2.57493
2.57226
2.57051
2.56865
2.57693
2.5738
2.57258
2.57108
2.57033
2.57365
2.57272
2.57212
2.57465
2.57935
2.5769
2.57438
2.57277
2.58007
2.57614
2.57386
2.57221
2.57136
2.57973
2.5789
2.5754
2.57343
2.57228
2.57144
2.57706
2.57466
2.57346
2.57254
2.57209
2.57443
2.57358
2.57306
2.57506
2.5782
2.57664
2.57488
2.57369
2.57859
2.57607
2.57436
2.57325
2.57275
2.57849
2.57793
2.57562
2.57413
2.57322
2.57276
2.57687
2.57507
2.57402
2.57334
2.57303
2.57488
2.5741
2.57364
2.57525
2.57751
2.57643
2.57512
2.57417
2.57771
2.57623
2.57482
2.57385
2.57346
2.57775
2.57731
2.57588
2.57458
2.57376
2.57342
2.57664
2.57546
2.57445
2.5738
2.57355
2.57514
2.57441
2.57398
2.57534
2.57725
2.5763
2.57521
2.57435
2.57733
2.57614
2.57496
2.57411
2.57371
2.5775
2.57704
2.57586
2.57475
2.574
2.57367
2.57651
2.57549
2.5746
2.574
2.57372
2.57521
2.57454
2.57411
154.39
156.152
164.411
168.195
164.358
176.107
178.345
175.935
143.606
150.707
162.506
160.005
163.768
164.452
168.996
167.998
178.254
176.378
184.231
186.244
193.415
190.025
182.843
201.74
202.35
192.08
152.778
134.732
149.835
161.677
162.509
160.969
168.543
180.62
190.612
189.221
202.968
194.876
201.826
215.359
218.229
211.319
221.96
208.847
222.933
207.951
213.759
194.125
131.748
148.536
147.557
161.67
165.431
160.791
165.514
190.194
214.961
188.558
215.944
235.671
239.837
235.914
239.141
225.62
227.442
230.46
222.452
208.71
187.707
198.308
141.494
157.317
171.929
153.092
171.857
198.27
209.906
200.601
209.502
218.073
220.36
209.572
209.695
215.422
192.647
194.213
176.916
181.261
162.032
180.506
183.97
169.416
186.494
185.906
170.107
180.466
90.8486
53.7505
91.086
88.2735
89.392
55.2159
54.5001
55.2934
103.021
110.521
55.582
56.2572
57.0794
117.047
57.0047
78.9836
51.0323
92.7376
87.5627
80.6891
53.2097
53.8648
52.573
52.5326
126.21
119.79
133.846
58.9149
61.0535
61.0024
68.3321
133.679
73.4264
69.1241
54.562
64.7508
49.4336
47.6166
48.2052
136.775
113.53
82.0164
75.2976
71.9807
64.5218
68.7697
47.4801
48.0358
48.4622
104.709
117.063
65.4746
66.1154
62.1348
74.706
48.8712
78.7578
91.0564
94.1741
50.1269
49.6187
50.5379
51.3879
110.791
120.306
113.499
67.8861
59.3474
58.8631
55.9562
57.8846
96.7324
51.6888
92.8853
84.603
52.3156
53.2831
52.2408
106.013
91.9562
54.5019
54.4457
52.5575
54.8353
53.1949
53.5697
53.6543
53.3883
53.6182
54.3716
53.9314
54.1695
53.7841
54.0909
54.6515
54.5688
54.7404
54.3843
54.9629
51.7091
50.7164
52.9608
52.1031
52.5313
52.1528
53.1553
51.7953
52.1373
55.1219
55.0801
56.3539
55.4509
53.3968
56.7307
51.2865
57.7015
46.3335
51.0252
49.7825
50.038
49.1727
47.7677
47.8323
59.2623
58.908
40.9618
48.9379
46.0838
49.5541
49.623
47.663
47.8389
48.4782
57.3469
56.5459
55.2981
48.8017
54.1548
49.6984
48.7829
50.1908
49.5797
50.1446
49.8425
49.5747
49.9718
50.4299
55.3489
53.7004
53.7291
57.1466
57.8273
55.0765
55.1688
55.0406
50.2837
50.3581
50.8783
50.6314
51.0873
52.5883
51.3488
51.8372
51.0494
53.6937
53.1666
52.4676
53.6147
14.1162
2.07767
34.3547
28.6138
37.4786
2.41434
2.3998
2.83879
38.6094
30.309
2.45559
2.9283
2.50777
14.9737
2.12759
12.147
2.15912
17.7702
14.8266
26.3738
2.09891
2.24563
2.20926
2.5006
5.66976
17.8074
5.54262
2.13288
1.80329
2.23707
1.82059
3.65111
1.74861
26.6615
40.9984
37.3402
2.59064
8.80482
3.99865
5.06392
9.02873
1.56141
1.65822
1.65123
38.3398
31.4757
11.8285
4.55174
2.65794
8.50132
7.62405
1.56536
1.48598
1.47243
18.0535
1.82614
16.9904
4.92027
5.16973
1.83177
1.76698
1.7275
1.73352
7.49252
5.69542
6.32859
1.50802
1.59547
1.56026
1.51646
1.53982
3.62723
1.69212
5.82168
9.61647
1.44447
1.28759
1.13154
7.18312
8.6335
1.30062
1.30374
1.21023
1.50518
1.96037
2.3334
1.78362
1.83852
1.79866
2.4704
2.41355
2.47111
1.77793
1.84183
2.48808
2.48602
2.42575
2.01064
2.27871
1.98801
2.28939
1.9607
2.00013
1.85425
2.27741
2.3119
2.29353
2.385
2.23377
2.06969
2.32326
2.22645
2.23491
2.22891
2.1991
2.3937
2.23776
1.7524
1.04513
1.44081
2.3575
2.71857
2.57676
2.3945
2.35676
2.22932
2.17131
2.1784
1.35128
1.53461
2.89663
2.79285
2.45826
2.36848
2.40325
2.16976
2.19221
2.17454
1.87653
2.25032
2.00086
2.19946
2.30964
2.15346
2.17816
2.10913
2.08917
2.40274
2.42388
2.39629
2.12406
2.15018
2.1269
2.13658
2.15288
2.33577
2.09946
2.41871
2.42098
2.12541
2.13938
2.17712
2.42117
2.41811
2.13963
2.12815
2.14827
2.08955
2.13736
2.32801
2.18196
2.17151
2.16775
2.32684
2.32416
2.33855
2.18749
2.21222
2.32861
2.33724
2.30847
2.2061
2.28241
2.1318
2.3263
2.14138
2.12768
2.1697
2.31582
2.32697
2.33042
2.32415
2.25482
2.20823
2.26752
2.27542
2.27747
2.26662
2.2651
2.27588
2.25906
2.11638
2.51192
2.24516
2.30514
2.29211
2.26664
2.28005
2.29152
2.22618
2.23732
2.2442
2.42508
2.25512
2.33199
2.29279
2.26383
2.27122
2.24332
2.24493
2.20836
2.24102
2.18599
2.22859
2.1912
2.21894
2.23222
2.21411
2.21976
2.21338
2.21254
2.30716
2.31842
2.3135
2.18818
2.21912
2.2146
2.23932
2.23979
2.26494
2.21164
2.29184
2.27668
2.19687
2.24852
2.28885
2.258
2.25551
2.26087
2.24831
2.2793
2.22881
2.25337
2.32013
2.3066
2.28924
2.29702
2.31307
2.32026
2.31512
2.30995
2.30249
2.31142
2.31305
2.31196
2.2817
2.306
2.22389
2.29417
2.24316
2.21829
2.2709
2.31692
2.32344
2.31171
2.30655
2.28495
2.26712
2.27811
2.30675
2.29929
2.29794
2.29264
2.26507
2.27292
2.24116
2.27181
2.27373
2.26633
2.29279
2.27205
2.28555
2.28145
2.3053
2.26391
2.28867
2.26464
2.27969
2.29563
2.28486
2.29139
2.29075
2.29503
2.2908
2.29141
2.30431
2.2931
2.3196
2.30758
2.30585
2.31883
2.24653
2.27044
2.27262
2.28345
2.24685
2.28688
2.29369
2.27879
2.29277
2.29217
2.29564
2.28882
2.29443
2.25913
2.28164
2.25112
2.25384
2.26934
2.27075
2.27976
2.27998
2.28535
2.28011
2.2823
2.28779
2.24427
2.25812
2.25653
2.26521
2.25591
2.2696
2.27671
2.28435
2.29178
2.27773
2.28798
2.29494
2.26381
2.27781
2.27995
2.27574
2.28279
2.2611
2.29831
2.31486
2.32044
2.32003
2.31958
2.32373
2.31881
2.32126
2.3168
2.31676
2.32029
2.31702
2.31741
2.30767
2.31229
2.27089
2.28856
2.29034
2.2717
2.29482
2.30656
2.31462
2.29537
2.29768
2.30039
2.30858
2.30046
2.31307
2.30471
2.31056
2.30135
2.2719
2.29013
2.27733
2.29053
2.29331
2.30074
2.29281
2.3018
2.27097
2.29138
2.27308
2.27885
2.29421
2.28171
2.28887
2.27426
2.28994
2.27786
2.28153
2.28008
2.29437
2.29482
2.29055
2.29271
2.28672
2.29479
2.28971
2.29389
2.30534
2.30933
2.3173
2.30781
2.31277
2.2899
2.26348
2.29377
2.28347
2.29646
2.26989
2.29244
2.29794
2.28785
2.29496
2.2952
2.29963
2.29252
2.29749
2.30271
2.31512
2.29819
2.29705
2.29881
2.30874
2.30768
2.3051
2.30467
2.27459
2.27396
2.28208
2.25474
2.26936
2.27135
2.27798
2.28902
2.26051
2.29375
2.29521
2.29247
2.29744
2.28912
2.29706
2.29297
2.29696
2.29414
2.29672
2.29838
2.28446
2.29
2.28871
2.28897
2.29358
2.27778
2.30866
2.31105
2.32328
2.31273
2.31957
2.31864
2.30878
2.31612
2.31453
2.31444
2.31468
2.31195
2.31204
2.30735
2.30566
2.29662
2.31428
2.30687
2.29564
2.29651
2.31042
2.31089
2.30761
2.30247
2.30327
2.30666
2.29797
2.30544
2.30157
2.30019
2.29341
2.28063
2.29111
2.28289
2.29531
2.29316
2.302
2.2958
2.30449
2.2964
2.31402
2.29767
2.32162
2.36968
2.33292
2.2909
2.28714
2.29783
2.28925
2.29615
2.29079
2.30048
2.29928
2.29023
2.29712
2.29415
2.3027
2.29418
2.30056
2.31074
2.31683
2.37194
2.33293
2.32488
2.30518
2.28927
2.30374
2.29927
2.31077
2.29786
2.30854
2.30184
2.29797
2.30042
2.30252
2.30528
2.30024
2.30461
2.31688
2.31598
2.30763
2.30685
2.3047
2.31082
2.30327
2.30756
2.30339
2.2769
2.28042
2.28544
2.25884
2.28265
2.28382
2.28976
2.30067
2.2777
2.30567
2.30035
2.29698
2.30346
2.30118
2.30289
2.29857
2.29878
2.30053
2.29989
2.2995
2.29259
2.29586
2.29382
2.29574
2.29807
2.28812
2.30964
2.30842
2.31224
2.30532
2.31152
2.30634
2.30219
2.30619
2.30864
2.31052
2.30572
2.30395
2.30953
2.30328
2.3004
2.3275
2.33259
2.31066
2.31454
2.30958
2.31431
2.31074
2.31739
2.31447
2.30002
2.29044
2.28854
2.29852
2.29658
2.2805
2.27873
2.29049
2.28682
2.34197
2.42124
2.37293
2.34802
2.42115
2.38275
2.30042
2.29507
2.3052
2.29331
2.29912
2.29637
2.3049
2.30632
2.29982
2.30454
2.30332
2.30756
2.3069
2.30605
2.36451
2.33393
2.41145
2.37151
2.33617
2.31554
2.30635
2.31588
2.30668
2.31241
2.30962
2.31656
2.3083
2.30182
2.30691
2.31087
2.31161
2.30495
2.30781
2.31849
2.31949
2.29646
2.30781
2.29949
2.31121
2.29002
2.30646
2.29433
2.29103
2.29209
2.29818
2.2834
2.30214
2.30012
2.30628
2.30358
2.30263
2.30073
2.30081
2.30014
2.30243
2.30205
2.30166
2.29922
2.30133
2.30272
2.30387
2.30597
2.30065
2.30726
2.3072
2.30252
2.30077
2.30143
2.30191
2.30163
2.29941
2.3009
2.30891
2.30185
2.30062
2.30717
2.29861
2.2976
2.33119
2.32799
2.31055
2.31853
2.31616
2.31621
2.31091
2.31941
2.31357
2.29423
2.27156
2.27433
2.29362
2.29201
2.26602
2.2695
2.28876
2.28709
2.34341
2.3884
2.36666
2.33427
2.35801
2.34731
2.30263
2.31254
2.3001
2.30208
2.29399
2.36024
2.33332
2.35788
2.34493
2.32967
2.32923
2.3112
2.3102
2.29971
2.31446
2.31878
2.31713
2.28496
2.30825
2.29223
2.31356
2.28036
2.3074
2.28912
2.30965
2.30748
2.31386
2.30371
2.31652
2.31522
2.31947
2.31628
2.30099
2.30057
2.30369
2.30449
2.30723
2.30763
2.30893
2.31028
2.31171
2.31679
2.31647
2.31776
2.31516
2.30911
2.3135
2.30492
2.30605
2.30149
2.31197
2.31314
2.30845
2.30299
2.30758
2.31
2.30952
2.31221
2.30101
2.30944
2.32716
2.3292
2.31284
2.32096
2.31164
2.32187
2.3168
2.32349
2.3139
2.2973
2.27089
2.27859
2.30522
2.30642
2.28385
2.29304
2.29479
2.30527
2.32959
2.33945
2.33379
2.33221
2.33438
2.32981
2.31305
2.31654
2.31615
2.31862
2.3212
2.33352
2.32686
2.3338
2.33009
2.32755
2.32434
2.32194
2.33115
2.33383
2.33123
2.31803
2.32251
2.28311
2.3141
2.29898
2.321
2.29215
2.31902
2.30798
2.32406
2.32239
2.327
2.32731
2.33256
2.33047
2.33395
2.33582
2.30711
2.31517
2.31427
2.31623
2.31967
2.32126
2.32327
2.32327
2.32469
2.33135
2.33095
2.33169
2.33083
2.32081
2.32956
2.32275
2.32214
2.31922
2.33558
2.33174
2.33165
2.31993
2.32136
2.33195
2.33257
2.33323
2.32193
2.33619
2.33384
2.34047
2.32328
2.32815
2.3233
2.33418
2.33124
2.33472
2.33493
2.32074
2.30493
2.31315
2.33307
2.33478
2.3272
2.33298
2.32119
2.33691
2.33801
2.33789
2.33397
2.34487
2.34572
2.34223
2.32819
2.33229
2.3403
2.33795
2.34176
2.33637
2.33505
2.34882
2.3475
2.34721
2.34503
2.3411
2.35168
2.35433
2.34964
2.33168
2.34329
2.30823
2.33099
2.3232
2.34078
2.32715
2.34182
2.33793
2.34127
2.33967
2.34283
2.35259
2.34978
2.34871
2.35054
2.35412
2.32843
2.34142
2.3313
2.33345
2.33788
2.34019
2.3428
2.33941
2.34037
2.34822
2.34809
2.34891
2.3476
2.33885
2.348
2.34818
2.3416
2.34388
2.35946
2.35105
2.35454
2.34581
2.34584
2.35868
2.35791
2.3575
2.35037
2.36301
2.34757
2.3546
2.33967
2.34226
2.3463
2.34936
2.34754
2.34985
2.35542
2.34941
2.34871
2.35081
2.36101
2.36138
2.37071
2.36656
2.35185
2.36481
2.3522
2.35524
2.35201
2.35876
2.36374
2.36091
2.34954
2.3525
2.36124
2.35975
2.36144
2.35933
2.36015
2.36955
2.36984
2.37115
2.36299
2.35791
2.36804
2.36962
2.36472
2.35502
2.36503
2.34434
2.35312
2.35124
2.36187
2.35892
2.36177
2.36163
2.35757
2.35676
2.35814
2.36806
2.36344
2.36363
2.36411
2.36642
2.35387
2.36329
2.35092
2.35338
2.35609
2.35951
2.36279
2.35703
2.35826
2.36558
2.36429
2.36625
2.36239
2.35665
2.36447
2.36889
2.35954
2.3638
2.37598
2.36624
2.37175
2.36763
2.36606
2.37608
2.3745
2.37174
2.37121
2.37577
2.36172
2.36881
2.35465
2.35728
2.36173
2.364
2.36166
2.36477
2.36562
2.37068
2.38873
2.37686
2.37834
2.37718
2.40072
2.38395
2.37454
2.38144
2.36529
2.37
2.36797
2.37261
2.37444
2.37386
2.36839
2.36985
2.37581
2.37527
2.37644
2.37792
2.37865
2.38082
2.38302
2.3819
2.37547
2.37156
2.38002
2.38034
2.37813
2.37219
2.3763
2.36853
2.36777
2.36747
2.37513
2.3749
2.37099
2.37095
2.36826
2.36989
2.36949
2.37628
2.37193
2.3753
2.37395
2.37575
2.36902
2.37109
2.36807
2.37076
2.36663
2.37368
2.37606
2.37105
2.37312
2.37683
2.37717
2.378
2.37368
2.37116
2.37714
2.38063
2.3715
2.378
2.3836
2.37632
2.38213
2.37868
2.37578
2.385
2.38126
2.3797
2.37832
2.38014
2.37492
2.37987
2.36866
2.37153
2.36803
2.3769
2.37509
2.37719
2.37032
2.38154
2.40308
2.38659
2.38254
2.3842
2.40051
2.38843
2.38491
2.38704
2.37888
2.37797
2.37761
2.38371
2.38097
2.3802
2.38074
2.38201
2.38466
2.38505
2.38634
2.385
2.38208
2.38528
2.38557
2.38171
2.38443
2.38348
2.38761
2.38792
2.38833
2.3788
2.38031
2.3776
2.37279
2.37095
2.37957
2.379
2.37387
2.36966
2.37523
2.37957
2.37796
2.37808
2.37828
2.38223
2.38102
2.38324
2.371
2.37025
2.37563
2.37764
2.36917
2.37524
2.3778
2.38222
2.38058
2.37988
2.3867
2.38275
2.37976
2.38242
2.38702
2.38576
2.38107
2.38486
2.38769
2.38585
2.38695
2.38292
2.38375
2.38854
2.38417
2.38757
2.38155
2.3833
2.38325
2.38565
2.38075
2.38157
2.3731
2.38524
2.38554
2.38472
2.37738
2.38573
2.39508
2.38917
2.38021
2.38676
2.38902
2.3896
2.38831
2.38908
2.38646
2.38327
2.38263
2.38776
2.38492
2.38478
2.38808
2.38952
2.3901
2.38974
2.39127
2.38556
2.38184
2.38634
2.3855
2.38223
2.39065
2.39179
2.39151
2.39247
2.39461
2.38146
2.38272
2.38029
2.37502
2.36851
2.38201
2.38188
2.37645
2.36936
2.38099
2.38369
2.38347
2.37864
2.38327
2.38556
2.38567
2.38782
2.37073
2.3734
2.37578
2.37825
2.37409
2.37727
2.37901
2.39018
2.38477
2.38192
2.39061
2.38439
2.38521
2.39067
2.39307
2.38926
2.39033
2.38871
2.38998
2.39445
2.38952
2.38593
2.38819
2.3897
2.38859
2.38769
2.38529
2.3866
2.38744
2.38878
2.38908
2.38724
2.38194
2.38994
2.39131
2.38941
2.38518
2.38769
2.38274
2.38934
2.3831
2.38903
2.37744
2.38937
2.3895
2.38996
2.38821
2.38672
2.38633
2.38849
2.38808
2.38715
2.39062
2.39199
2.39334
2.39134
2.3925
2.38559
2.38283
2.38711
2.38567
2.38309
2.39375
2.39576
2.39447
2.39495
2.39617
2.38386
2.3848
2.38367
2.37841
2.37289
2.3851
2.38485
2.38071
2.37823
2.38526
2.38675
2.38813
2.38362
2.38731
2.38873
2.39097
2.38954
2.37889
2.38733
2.37816
2.3797
2.38615
2.38112
2.38182
2.38523
2.38132
2.38038
2.37961
2.38087
2.38675
2.39457
2.39555
2.39047
2.39805
2.39017
2.39238
2.40129
2.39259
2.3916
2.38798
2.39246
2.39366
2.39013
2.38758
2.38903
2.38969
2.39031
2.39243
2.39111
2.38654
2.39278
2.39287
2.3921
2.38645
2.39025
2.37277
2.38977
2.38784
2.39028
2.37322
2.39038
2.39045
2.39113
2.3888
2.3888
2.38752
2.38908
2.38911
2.38766
2.3912
2.39216
2.39544
2.39154
2.39208
2.38541
2.383
2.3867
2.38457
2.38249
2.39557
2.39514
2.39573
2.39481
2.39367
2.38526
2.3851
2.38432
2.38319
2.38336
2.3841
2.38318
2.38531
2.38535
2.39015
2.39073
2.39353
2.38953
2.39261
2.39263
2.39524
2.39126
2.39323
2.39346
2.38301
2.38463
2.40464
2.39213
2.39072
2.38036
2.37729
2.38013
2.38327
2.37727
2.3894
2.39607
2.39629
2.39415
2.4033
2.39441
2.39564
2.40402
2.39428
2.39551
2.3917
2.39456
2.39376
2.39114
2.38992
2.38954
2.39077
2.39123
2.39296
2.39243
2.38572
2.39335
2.39283
2.39237
2.38576
2.38964
2.37754
2.39114
2.38778
2.38885
2.38544
2.39232
2.39181
2.3924
2.38933
2.38925
2.3877
2.38946
2.3892
2.38769
2.39158
2.39211
2.39427
2.39173
2.39206
2.38344
2.38151
2.38526
2.38201
2.38054
2.39248
2.39224
2.39195
2.39032
2.39091
2.38475
2.38507
2.38243
2.38593
2.38476
2.38293
2.38261
2.38631
2.3841
2.39498
2.39356
2.39582
2.39164
2.39673
2.39249
2.39436
2.39287
2.39343
2.39365
2.39936
2.39648
2.40385
2.40196
2.40615
2.38582
2.39107
2.39111
2.3882
2.3998
2.39206
2.39678
2.39736
2.39752
2.40546
2.39654
2.39858
2.40864
2.39826
2.39087
2.38812
2.3976
2.39187
2.38463
2.38834
2.38689
2.39171
2.3919
2.393
2.3921
2.38805
2.39246
2.39306
2.39174
2.39162
2.38747
2.39148
2.39164
2.38607
2.38605
2.39357
2.38968
2.39243
2.39202
2.38939
2.38891
2.38773
2.3889
2.38835
2.38786
2.39111
2.39071
2.39196
2.39075
2.38938
2.38054
2.38013
2.384
2.3796
2.38038
2.38786
2.38838
2.38772
2.38584
2.38606
2.38614
2.38844
2.38456
2.38762
2.38542
2.38329
2.38808
2.38942
2.38904
2.39477
2.38912
2.39089
2.38872
2.39118
2.38488
2.38636
2.38864
2.39446
2.39534
2.4016
2.41029
2.39997
2.39827
2.40429
2.38826
2.39822
2.38998
2.38767
2.39295
2.3885
2.39721
2.3952
2.39946
2.40887
2.39752
2.39965
2.40238