/*--------------------------------*- C++ -*----------------------------------*\
| =========                 |                                                 |
| \\      /  F ield         | OpenFOAM: The Open Source CFD Toolbox           |
|  \\    /   O peration     | Version:  5.x                                   |
|   \\  /    A nd           | Web:      www.OpenFOAM.org                      |
|    \\/     M anipulation  |                                                 |
\*---------------------------------------------------------------------------*/
FoamFile
{
    version     2.0;
    format      ascii;
    class       surfaceScalarField;
    location    "1";
    object      phi;
}
// * * * * * * * * * * * * * * * * * * * * * * * * * * * * * * * * * * * * * //

dimensions      [0 3 -1 0 0 0 0];

internalField   nonuniform List<scalar> 
29271
(
-2.55546e-06
1.74065e-07
1.60105e-07
2.23196e-06
-4.23377e-06
4.09602e-07
7.75862e-07
3.08981e-06
-1.09284e-05
-1.20856e-06
-1.06817e-06
3.20522e-07
7.31513e-07
1.21531e-05
-1.11483e-05
-1.41238e-06
4.77322e-07
-1.05904e-06
2.49303e-07
1.28931e-05
-1.01622e-05
-2.51559e-07
-8.21444e-07
5.07087e-07
9.24145e-06
1.48671e-06
-1.02575e-05
-1.01752e-06
-2.31115e-07
5.06181e-07
5.39098e-07
1.04608e-05
-9.98841e-06
9.12506e-07
1.07578e-06
-1.05253e-06
-6.66895e-07
9.71955e-06
-1.08844e-05
1.85617e-06
5.5759e-07
-8.99796e-07
-2.13187e-06
1.15023e-05
-1.02259e-05
7.84457e-07
1.51198e-06
-1.38292e-06
-9.21787e-07
1.02341e-05
-8.50042e-06
-4.32702e-08
4.28635e-07
7.89939e-06
2.16821e-07
-3.12687e-06
-1.77895e-08
-3.20637e-07
3.42283e-06
-1.04574e-05
-1.85875e-07
-7.13642e-08
4.37337e-07
-3.19102e-07
1.05964e-05
-1.02439e-05
1.92775e-07
2.78025e-06
-2.51036e-06
-4.09166e-07
1.01904e-05
-8.42076e-06
1.2614e-06
1.20942e-06
-3.22851e-07
-1.80178e-07
6.45296e-06
-1.04836e-05
1.05453e-06
-4.10004e-07
2.16577e-07
8.02166e-08
9.54229e-06
-1.07825e-05
-4.67178e-07
1.39009e-06
2.6988e-07
1.0169e-05
-5.79263e-07
-1.08136e-05
1.28451e-07
3.67193e-07
-7.9655e-07
1.02854e-05
8.29159e-07
-9.69648e-06
2.29083e-06
1.43274e-06
-1.64871e-06
-7.24691e-07
8.34631e-06
-1.05542e-05
-8.58405e-07
5.46956e-07
-3.89276e-08
1.24451e-06
9.66006e-06
-1.01203e-05
3.12369e-08
-3.30623e-07
1.21877e-05
-9.61926e-07
-8.06104e-07
-3.97136e-06
2.32364e-08
6.469e-07
3.30189e-06
-8.53903e-06
-2.96175e-07
4.66397e-07
9.06924e-06
-7.2085e-07
-1.15298e-05
2.55817e-07
-7.13343e-07
2.69016e-08
1.31391e-05
-1.17862e-06
-3.71665e-06
1.16441e-07
6.69027e-07
2.94873e-06
-2.02421e-06
6.35601e-07
-4.42946e-07
1.83077e-06
-2.76623e-06
-5.68153e-06
6.27109e-06
2.17716e-06
-1.30043e-06
4.09191e-06
-1.28049e-05
-2.71756e-06
4.03436e-06
8.69658e-06
-5.12744e-07
-1.49898e-05
2.03956e-06
-2.26719e-06
2.77102e-06
1.29591e-05
-9.17618e-06
7.81727e-07
-1.83794e-06
2.05668e-06
6.23007e-06
1.94564e-06
-7.041e-06
4.89215e-06
-1.07716e-05
-1.97508e-06
6.99057e-06
7.905e-06
4.47882e-07
2.14572e-06
3.91038e-05
-6.18665e-06
-5.64907e-06
-5.33709e-06
-4.91453e-06
-4.51274e-06
-4.906e-06
-2.48385e-06
-2.88174e-06
-1.11999e-06
-7.23693e-07
-1.5308e-06
-1.45122e-06
-1.01253e-08
2.99815e-06
3.71516e-05
-8.45968e-06
-9.24869e-06
-6.04073e-06
-6.22778e-06
-2.4079e-06
-2.75398e-06
-2.37246e-06
-2.18048e-06
-4.95847e-07
-7.17626e-08
3.97425e-05
-4.81341e-06
-7.98878e-07
-1.0135e-06
-6.29133e-07
-1.19187e-06
-2.98284e-07
-4.51764e-07
-8.22144e-06
-4.92494e-06
-9.28213e-06
-7.55968e-06
-7.12586e-06
3.75661e-07
1.73148e-08
6.209e-06
-5.02373e-06
-3.62966e-06
-2.04437e-06
1.06978e-05
2.99011e-06
-1.41646e-05
-6.5175e-06
1.39964e-06
4.28539e-06
1.2007e-05
2.64986e-06
-1.56731e-06
4.30709e-05
-5.28359e-06
-5.2347e-06
-5.91754e-06
-5.27531e-06
-6.20455e-06
-4.34205e-06
-4.13155e-06
-5.61843e-06
-2.65707e-06
-3.27293e-06
3.54788e-05
-5.75031e-06
-5.73895e-06
-5.59559e-06
-6.81591e-06
-4.21401e-06
-3.11022e-06
4.35e-05
-4.66177e-06
-8.06721e-07
-1.06132e-06
-4.00982e-06
-9.0176e-07
-8.99376e-07
-7.3098e-06
-7.13899e-06
-6.66547e-06
-5.44961e-06
-1.44647e-05
-1.59914e-06
-2.15302e-06
3.92203e-06
1.00809e-05
-1.15015e-05
-1.04953e-06
3.12841e-06
8.02962e-07
1.05596e-05
-1.93989e-06
-1.22859e-07
-9.82751e-06
5.39139e-05
-7.22845e-06
-7.46986e-06
-1.89968e-06
-7.59714e-07
-7.45253e-06
-1.06626e-06
-1.34997e-06
-4.52118e-06
-5.42676e-06
-3.58004e-06
-4.7764e-06
-4.11298e-06
-3.20837e-06
4.56829e-05
-4.58891e-06
-8.66394e-07
-7.9169e-07
-4.4502e-06
-1.30369e-06
-1.25937e-06
-6.75021e-06
-6.63053e-06
-8.19833e-06
-6.91803e-06
-1.67476e-05
-1.65964e-06
2.98523e-06
8.19876e-06
-3.72869e-06
-1.90425e-06
2.2027e-06
3.43309e-06
-1.02111e-05
1.1999e-06
-7.56786e-06
6.75154e-06
-1.76779e-05
5.5506e-06
-5.99186e-06
2.78636e-06
1.21245e-05
-3.11342e-06
-7.23443e-06
7.6438e-06
2.70571e-06
-1.65693e-06
2.10732e-08
-2.93686e-07
1.92622e-06
-2.21558e-06
-5.09339e-07
-3.81814e-07
3.08623e-06
3.95024e-07
1.07183e-06
-7.62975e-06
-3.73499e-07
6.11608e-07
5.92479e-06
-1.83325e-07
-1.28105e-05
-5.4761e-08
5.16165e-07
1.70252e-06
1.08299e-05
-5.85847e-06
1.31953e-08
8.33915e-07
1.83961e-07
6.28086e-06
-1.45346e-06
8.41411e-07
-9.7643e-09
-6.97202e-06
4.40272e-07
-5.47215e-07
6.24731e-06
3.02347e-06
3.15358e-06
5.11769e-05
-3.24463e-06
-5.439e-06
-1.0143e-06
-1.14451e-06
-2.29247e-06
-2.74477e-06
-1.06832e-06
-1.30213e-06
2.45563e-07
3.70308e-06
4.93641e-05
-6.29496e-06
-4.22335e-06
-1.32445e-06
-1.29491e-06
2.48034e-07
3.73273e-07
4.01612e-05
-4.83626e-07
-1.19751e-07
-7.9238e-07
-3.79259e-07
1.0286e-07
8.234e-07
5.43279e-08
-6.76857e-06
4.85808e-10
-1.57799e-07
7.20637e-06
-1.51989e-05
-4.58812e-07
4.02728e-06
1.16805e-05
-1.24138e-06
-1.04144e-05
5.89728e-08
1.26869e-06
4.8386e-07
9.84428e-06
5.42241e-06
-7.5076e-07
5.4038e-05
-4.11491e-06
-4.43817e-06
-1.8771e-06
-2.05501e-06
-1.0531e-06
-1.9196e-06
4.7577e-05
1.85026e-08
-8.61801e-08
4.30114e-05
4.73136e-08
-4.03729e-08
-8.34582e-08
-1.54602e-09
2.02497e-07
-2.47947e-07
-7.29305e-06
1.01009e-07
-7.47942e-07
-1.94486e-07
8.15297e-06
-9.94994e-06
-2.19809e-07
2.68251e-07
7.64116e-07
1.04827e-05
-1.34535e-06
1.39665e-06
2.09927e-07
5.28536e-05
-7.49237e-07
-2.18243e-07
-1.01635e-06
-5.2043e-07
-2.98903e-09
7.51714e-07
4.58508e-07
8.51022e-08
-1.62863e-07
4.45826e-05
1.85406e-07
3.89342e-07
1.91281e-07
-8.70597e-08
-4.5035e-08
2.11771e-08
-6.46528e-06
-1.81322e-07
-1.93202e-07
6.83873e-06
-3.60751e-06
7.0085e-08
-5.12768e-08
3.59932e-06
-5.94051e-06
-1.44552e-08
-1.56006e-07
6.35653e-06
-1.02898e-05
6.87561e-08
1.18866e-07
-2.20494e-07
1.01598e-05
-2.73875e-06
6.68831e-08
-9.50365e-08
2.79458e-06
-2.02558e-06
-1.12144e-07
-1.13186e-07
2.25091e-06
-3.44292e-06
2.55105e-06
2.15336e-06
-1.26149e-06
-7.50505e-07
-3.46848e-06
-5.81095e-06
2.2006e-06
1.79289e-06
6.03644e-06
-1.75353e-06
-1.03254e-05
-1.97785e-07
-2.63843e-06
1.23108e-06
1.36841e-05
-5.69844e-06
1.817e-06
-3.71182e-06
-4.77337e-08
2.60385e-06
5.03715e-06
-4.16227e-06
6.36667e-07
-6.18662e-06
1.02195e-06
3.76398e-06
4.92629e-06
6.02081e-06
3.75257e-06
7.52996e-05
-2.60545e-06
-2.00252e-06
-6.25957e-06
-5.36997e-06
-2.89827e-06
-2.1701e-06
-6.01202e-06
-6.57822e-06
-1.47995e-05
2.41299e-06
7.78257e-05
-1.16891e-06
-1.57476e-06
-3.41103e-06
-3.89962e-06
-2.38916e-06
4.42604e-07
5.26305e-05
-2.54125e-06
-2.56059e-06
-4.64726e-06
-5.00121e-06
-2.70976e-06
-3.24336e-06
-4.6189e-06
-8.40416e-06
-9.66954e-08
3.09967e-07
5.80174e-06
-9.65177e-06
-2.70603e-07
-2.90008e-06
1.28239e-05
2.93754e-06
-9.71095e-06
-1.24165e-06
-1.71481e-06
-2.27685e-06
1.20067e-05
2.66124e-06
-1.66798e-05
7.6709e-05
-9.52252e-08
-3.69509e-07
-2.82745e-06
-1.60773e-06
-6.02282e-06
-8.1868e-06
6.68608e-05
-1.32568e-06
-2.85201e-06
5.76907e-05
-1.45523e-06
-2.81127e-06
-2.55612e-06
-2.1975e-06
-3.78169e-06
-3.28003e-06
-8.08372e-06
-3.29442e-07
5.19667e-07
4.79488e-07
6.08832e-06
-1.0244e-05
2.62999e-06
-7.18856e-07
-4.28503e-06
7.62216e-06
4.99576e-06
-1.04708e-06
-2.27211e-06
5.93718e-05
-1.49646e-06
-1.2272e-06
-2.20802e-06
-3.438e-06
-2.43513e-06
-5.32925e-06
-3.74478e-06
-2.52528e-06
-1.77474e-06
5.73199e-05
-2.10651e-06
-3.91053e-06
-3.31526e-06
-1.78775e-06
-2.90465e-06
-3.64646e-06
-6.97955e-06
-3.71618e-07
-7.96101e-07
2.76999e-06
-3.53491e-06
-8.90715e-08
-3.0654e-08
3.65463e-06
-7.00004e-06
6.0909e-07
7.62424e-07
3.35641e-06
-1.00833e-05
-3.5929e-07
3.74283e-08
2.46334e-08
8.60583e-06
-2.46101e-06
1.54834e-07
1.71735e-07
2.13444e-06
-2.49649e-06
2.18952e-07
-3.5829e-07
2.63582e-06
7.45477e-07
-1.1623e-06
7.64629e-07
-3.47802e-07
2.9372e-08
1.11208e-06
-4.03216e-06
-1.22697e-06
5.69579e-07
3.5481e-06
1.08395e-06
-1.24594e-05
3.84876e-07
7.18795e-07
2.36259e-07
1.00355e-05
1.93361e-07
-7.4827e-07
4.52879e-07
1.93263e-06
-1.19136e-06
-6.39238e-07
-1.12786e-07
7.71298e-07
-2.73384e-06
-4.37489e-07
-6.28423e-07
3.14123e-06
4.37604e-06
3.02117e-06
7.27882e-05
-1.41969e-06
-2.24353e-06
1.6454e-08
-3.66025e-07
-7.09265e-07
-1.33125e-06
7.60327e-07
4.07184e-07
-3.05109e-06
5.1576e-06
8.30184e-05
-1.7377e-06
-1.78909e-06
-1.01142e-07
7.04806e-07
-9.26601e-07
1.30729e-06
5.14481e-05
-2.3001e-06
-8.51279e-07
-5.94851e-07
-2.29897e-07
-1.10789e-06
1.58494e-06
1.24974e-06
-3.88924e-06
-1.91666e-06
1.74392e-06
3.13538e-06
-1.44122e-05
1.40704e-07
1.80344e-07
1.40912e-05
-6.06534e-07
-1.12821e-05
1.11687e-06
5.00953e-07
-8.358e-07
1.11066e-05
4.43694e-06
-7.83526e-06
8.27746e-05
-8.05214e-07
-6.67118e-07
6.96013e-07
1.13025e-06
5.99975e-07
-2.77742e-06
7.86328e-05
-9.41536e-07
-4.03092e-07
5.91e-05
-1.12775e-06
1.76116e-06
1.30451e-06
-9.22437e-07
1.3918e-07
6.8791e-07
-3.91284e-06
-6.46476e-07
-3.9168e-07
6.0156e-07
3.4079e-06
-5.78884e-06
-1.90675e-07
6.3218e-07
-9.22162e-08
5.20174e-06
2.37812e-07
4.51653e-07
-1.05469e-07
5.34387e-05
-1.52445e-06
-1.93686e-07
-4.61494e-07
7.89701e-07
-2.24601e-06
1.50175e-06
-1.141e-07
4.45983e-07
-1.99284e-06
5.65631e-05
-4.70704e-07
1.23601e-06
5.51923e-07
-2.42966e-06
5.41042e-08
1.03622e-06
5.10436e-07
3.23035e-07
-8.60434e-07
6.98548e-08
-3.49998e-06
2.43915e-07
-3.94655e-07
3.65072e-06
-9.24714e-08
-8.81233e-07
6.58744e-07
2.09492e-07
-5.29335e-06
-4.86912e-07
1.41541e-06
-4.92584e-07
2.8646e-06
-2.18001e-06
9.8365e-07
-3.46821e-07
1.54318e-06
-3.0169e-06
1.12103e-07
-2.58825e-07
3.16363e-06
5.53424e-07
-7.74107e-07
3.55407e-07
-1.34725e-07
-1.98051e-07
8.59991e-07
-3.84618e-06
-6.33788e-07
-1.77967e-07
3.99599e-06
3.2768e-07
-9.08053e-06
5.00689e-08
9.41313e-07
-4.31013e-07
8.19248e-06
1.38421e-06
-6.78126e-07
5.20164e-07
6.95798e-07
-5.41924e-07
-1.38012e-06
4.80763e-07
5.49094e-07
-4.38515e-06
-1.15595e-06
-1.03154e-06
5.54278e-06
3.91071e-06
2.10367e-06
6.74978e-05
-9.67711e-08
-2.92474e-07
-8.62396e-07
-4.41835e-07
6.47897e-07
1.19539e-07
2.07533e-07
-5.45473e-09
-1.00054e-06
4.67477e-06
8.22114e-05
-1.35129e-07
3.46972e-07
2.82033e-07
5.49567e-07
1.25942e-06
1.82552e-06
5.06028e-05
-9.60961e-07
-6.30609e-07
-1.22532e-06
-9.93223e-07
7.11181e-07
-4.81675e-07
3.40378e-07
-3.00084e-06
-3.33292e-07
1.17998e-06
1.82522e-06
1.58835e-06
2.77064e-07
-4.38429e-07
7.47782e-07
-5.86413e-07
-1.34862e-05
1.99962e-07
1.23761e-07
1.31625e-05
-4.41847e-07
-1.17547e-05
8.62912e-07
-4.08602e-07
3.75408e-08
1.17047e-05
4.10457e-06
-5.51901e-06
8.38369e-05
2.91028e-07
6.27578e-07
6.34483e-07
9.02756e-07
3.5464e-06
-5.48629e-07
8.44144e-05
1.41029e-06
-5.72406e-07
6.03089e-05
1.68576e-06
1.16918e-06
1.2265e-06
1.13438e-07
-6.09888e-07
-2.59816e-07
-5.1264e-06
-1.74027e-07
2.62923e-06
-1.22454e-06
5.30602e-06
-5.61873e-07
-1.8992e-06
-5.88328e-07
-8.31982e-08
3.1326e-06
-5.516e-06
-8.90945e-07
2.59948e-07
1.44505e-06
5.93634e-06
-1.2344e-06
1.90355e-06
1.00292e-06
4.90642e-05
-8.93688e-07
-1.18039e-06
-1.19702e-06
-1.7659e-06
2.77679e-07
7.02873e-07
5.46444e-09
1.97079e-07
3.26096e-07
5.53972e-05
-2.16274e-08
1.12972e-07
-4.23733e-07
1.26023e-06
1.09105e-07
9.607e-07
-2.06911e-06
-2.25694e-07
-9.57166e-07
2.87664e-06
-2.76404e-06
1.73654e-06
8.06554e-08
9.46838e-07
-1.66817e-06
-2.85748e-07
8.83438e-07
2.07341e-06
-3.3407e-06
-2.34461e-07
-1.17207e-07
-6.03655e-07
4.62211e-06
-5.856e-07
1.87712e-07
-2.19307e-07
6.17195e-07
-3.1458e-06
-5.48671e-08
1.42216e-07
3.05845e-06
1.00621e-06
2.47188e-07
-1.80273e-07
-1.07313e-06
-3.37196e-07
-2.71259e-07
-3.89214e-06
4.53116e-07
9.42838e-07
3.10464e-06
-3.78484e-07
-7.93866e-06
-2.26231e-07
3.18434e-07
1.72782e-07
8.05216e-06
3.73124e-07
1.83709e-07
-7.32478e-07
4.62387e-09
5.80991e-07
-4.0997e-07
4.88231e-07
-2.53081e-07
-6.83461e-06
1.30459e-07
-9.11769e-07
7.38077e-06
5.39542e-06
3.38469e-06
6.52922e-05
-1.08122e-06
-1.14348e-06
-9.50693e-07
-1.10846e-06
-3.76336e-07
-5.65985e-07
-6.82361e-07
-6.66045e-07
9.22791e-07
4.48144e-06
8.26992e-05
-1.95154e-07
-8.65337e-08
-1.35627e-07
-7.92637e-08
-8.50383e-07
2.50757e-06
5.33984e-05
-9.84379e-07
-7.54996e-07
-7.77637e-07
-6.70606e-07
3.26753e-07
-6.63774e-07
-5.33028e-09
-9.98259e-07
5.36571e-07
-1.68123e-06
-1.15226e-08
1.30406e-06
1.07741e-06
-7.70063e-07
1.78379e-06
-1.39218e-06
1.46762e-07
-8.45714e-07
-1.27613e-05
2.59413e-07
5.6339e-07
1.19385e-05
-1.02189e-06
-1.13258e-05
9.54411e-07
2.34898e-07
2.57343e-07
1.0901e-05
5.36471e-06
-3.65382e-06
8.54495e-05
2.34816e-09
5.4489e-08
4.52444e-08
-4.08904e-08
5.1413e-06
-1.73607e-07
8.92928e-05
1.31393e-06
-6.29985e-07
6.38482e-05
1.47885e-06
1.26811e-06
1.11114e-06
-1.81524e-08
-3.93674e-07
-2.06417e-08
-6.5761e-06
2.5725e-07
1.11344e-06
-7.22612e-07
7.24195e-06
-3.48732e-06
-3.64932e-07
-9.49353e-07
3.40187e-07
8.70598e-07
3.59082e-06
-6.15996e-06
-1.30069e-06
1.66226e-06
1.42792e-06
5.55281e-06
-1.18235e-06
4.19466e-06
4.68715e-07
4.88356e-05
-2.14615e-06
-1.82155e-06
-2.11213e-06
-1.57024e-06
-1.81477e-07
1.1205e-07
-3.69098e-07
1.41894e-07
1.47621e-07
5.76247e-05
-2.90052e-07
2.8064e-07
-3.43501e-07
9.59414e-07
1.05182e-07
7.92423e-07
-3.84106e-06
-1.14839e-07
-1.12809e-06
4.5959e-06
-6.26057e-08
-5.02488e-07
7.40011e-07
-3.65941e-07
1.91025e-07
-1.16709e-06
2.62325e-07
7.24202e-08
8.32344e-07
-2.58844e-06
-9.62298e-08
3.28316e-07
2.82507e-06
-5.41854e-06
1.10593e-07
-8.73781e-08
-4.03892e-07
5.94684e-06
-6.34361e-07
3.80136e-07
-4.40345e-07
6.94571e-07
-2.97357e-06
-6.24871e-07
7.30315e-07
2.86813e-06
1.31285e-06
8.86055e-07
-7.72452e-07
-1.42645e-06
-1.05874e-07
-9.32485e-07
-2.57294e-06
8.60478e-07
5.12405e-07
2.23842e-06
-8.75511e-07
-8.41777e-06
-4.17985e-07
-2.37644e-09
9.45936e-07
8.7677e-06
-1.0293e-06
4.02709e-09
-3.31872e-07
6.98409e-09
1.22785e-06
1.22306e-07
9.74423e-07
-1.33215e-06
-7.69201e-06
1.58432e-06
-1.15732e-06
7.62273e-06
5.40149e-06
3.42645e-06
6.53932e-05
-6.36169e-07
-1.35004e-06
-1.68098e-07
-1.10337e-06
-1.26174e-06
-1.39182e-06
-1.64103e-06
-1.37658e-06
1.47151e-06
4.34761e-06
8.38533e-05
-7.36831e-07
-2.62165e-07
-6.46288e-07
7.35308e-08
-5.79189e-07
3.48733e-06
5.53609e-05
-5.74441e-07
-3.70329e-07
-4.68459e-07
-4.70073e-07
-3.7855e-07
-6.53174e-07
-4.84126e-07
-1.63501e-06
7.44038e-07
-8.14463e-07
-5.44082e-07
1.67033e-06
9.31539e-07
9.52401e-07
6.15714e-07
-4.08887e-07
-1.01844e-06
-1.07233e-06
-1.10616e-05
4.70073e-07
7.59001e-07
9.83257e-06
-2.05561e-06
-1.06062e-05
8.5071e-07
1.47998e-06
1.68448e-08
1.03143e-05
5.96777e-06
-2.02233e-06
8.75966e-05
-7.9986e-07
-7.00385e-07
-7.12573e-07
-4.53318e-07
5.25396e-06
5.10243e-07
9.3844e-05
1.19279e-06
-6.9482e-08
6.72801e-05
1.23498e-06
1.00336e-06
7.96248e-07
3.91125e-07
3.98591e-07
3.6184e-07
-7.10904e-06
6.29642e-07
7.99019e-07
-7.39742e-08
6.94714e-06
-3.52041e-06
4.81714e-07
-8.69869e-07
4.70276e-07
1.87865e-07
3.25043e-06
-4.44279e-06
-1.02533e-06
1.59152e-06
1.08112e-06
3.34588e-06
-5.50407e-07
4.8945e-06
-1.55803e-07
4.97484e-05
-2.03348e-06
-1.32483e-06
-1.6034e-06
-1.31182e-06
-5.8799e-07
-1.88994e-07
-6.23281e-07
2.61236e-07
1.83221e-07
6.05162e-05
-6.52132e-08
4.83989e-07
-2.71869e-08
7.88873e-07
2.04648e-07
6.83638e-07
-5.67515e-06
-2.44201e-07
-4.93552e-07
6.60466e-06
-3.31537e-07
-6.95732e-07
1.42043e-06
-8.9315e-07
4.99993e-07
-8.42817e-07
-2.23997e-07
1.53807e-07
3.40237e-07
5.7277e-07
-2.8449e-06
2.97761e-07
-3.86678e-07
2.77801e-06
-6.1222e-06
3.87573e-07
-3.24695e-07
4.93355e-08
6.19321e-06
-6.70742e-07
4.08857e-07
-3.8685e-07
6.48735e-07
-2.64684e-06
-5.54868e-07
8.60443e-07
2.34126e-06
1.48539e-06
8.63218e-07
-8.35503e-07
-1.51311e-06
4.52488e-07
-1.20515e-06
-2.33075e-06
1.03749e-06
-4.13372e-07
2.45929e-06
-1.12759e-06
-9.09056e-06
-3.85819e-07
-1.25257e-07
1.48787e-06
9.24136e-06
-9.91313e-07
-3.35347e-07
3.31543e-08
3.35122e-07
7.72949e-07
1.85435e-07
1.18366e-06
-2.1118e-06
-7.4893e-06
2.49285e-06
-1.36535e-06
7.28994e-06
4.98669e-06
3.4267e-06
6.78915e-05
-1.00086e-07
-1.57549e-06
4.9061e-08
-1.3728e-06
-1.98571e-06
-2.07494e-06
-1.91e-06
-1.9418e-06
5.7859e-07
4.2133e-06
8.61073e-05
-1.14453e-06
-1.75674e-07
-8.60926e-07
1.21947e-07
-7.67549e-07
2.93269e-06
5.75558e-05
-4.28525e-07
-8.39132e-08
-3.95745e-07
-2.03379e-07
-7.58106e-07
-1.12871e-06
-7.83033e-07
-1.78752e-06
1.59615e-06
-1.16006e-06
-8.6765e-07
1.45152e-06
1.77345e-06
4.33145e-07
1.63274e-07
-1.47916e-06
-8.90703e-07
-7.72739e-06
3.03639e-07
2.09021e-06
5.33354e-06
-2.5033e-06
-1.00899e-05
8.03425e-07
2.13399e-06
3.76311e-08
9.61817e-06
5.33427e-06
-1.58192e-06
9.01985e-05
-1.26656e-06
-7.32301e-07
-8.33791e-07
-9.48829e-08
4.60035e-06
1.87857e-06
9.69127e-05
9.08411e-07
4.56707e-07
7.01312e-05
8.1955e-07
6.00953e-07
1.25277e-07
6.382e-07
7.61646e-07
3.71132e-07
-6.98974e-06
6.43491e-07
3.98423e-07
-2.29138e-08
6.87916e-06
-2.63842e-06
1.36082e-06
-7.54313e-07
9.60551e-07
-4.18583e-07
1.48994e-06
-2.49971e-06
-1.05749e-06
1.10568e-06
1.1219e-06
2.07422e-06
-7.44603e-07
3.73348e-06
-1.8116e-07
5.03595e-05
-1.24559e-06
-1.02013e-06
-1.01638e-06
-1.06481e-06
-6.83539e-07
-1.14998e-07
-5.99961e-07
1.05589e-07
3.8375e-07
6.32436e-05
3.94977e-08
3.89302e-07
2.09464e-08
8.25833e-07
3.79228e-07
7.405e-07
-7.76342e-06
4.64009e-08
1.29522e-07
8.1498e-06
-5.49956e-07
-8.12266e-07
5.4802e-07
8.14202e-07
-2.66945e-06
3.56049e-07
-4.92596e-07
2.62484e-06
-6.23937e-06
5.10967e-07
-4.79041e-07
2.08021e-07
6.38318e-06
-6.11649e-07
1.90408e-07
-2.45327e-07
6.66568e-07
-2.02516e-06
-2.6693e-07
5.15465e-07
1.77663e-06
1.5222e-06
6.85352e-07
-7.31777e-07
-1.47578e-06
8.53959e-07
-1.01207e-06
-2.73543e-06
5.46324e-07
-7.62304e-07
3.10952e-06
-1.15331e-06
-9.15574e-06
3.44658e-07
-3.74633e-07
1.6119e-06
8.72713e-06
-6.46326e-07
-1.9992e-07
-1.59817e-07
7.19454e-08
7.06712e-07
2.27406e-07
1.02762e-06
-1.09272e-06
-6.9707e-06
1.8177e-06
-1.36863e-06
6.58673e-06
3.76363e-06
2.71354e-06
7.02297e-05
7.3258e-08
-1.46849e-06
1.18544e-07
-9.44002e-07
-1.57082e-06
-2.24674e-06
-1.026e-06
-1.75105e-06
-6.02899e-07
3.20435e-06
8.87812e-05
-1.12215e-06
-1.85961e-07
-5.49372e-07
3.45808e-07
-1.07265e-06
-2.388e-07
5.96289e-05
7.43676e-08
3.344e-07
3.82959e-07
2.83327e-07
-1.05414e-06
-6.73972e-07
-7.11477e-07
-1.23725e-06
1.26097e-06
-1.63627e-06
5.39904e-07
-3.50063e-06
1.67344e-07
1.07364e-06
2.25965e-06
-1.76042e-06
-8.97959e-06
8.43447e-07
1.56221e-06
-3.29932e-08
8.36735e-06
3.62707e-06
-1.5464e-06
9.21485e-05
-9.47919e-07
-3.24807e-07
-2.63083e-07
2.1864e-07
3.64204e-06
2.11132e-06
9.79907e-05
2.1193e-07
3.36089e-07
7.12656e-05
-1.30898e-07
4.83854e-07
1.5183e-07
2.83634e-07
6.60376e-07
2.72012e-07
-8.46104e-06
8.0116e-07
1.01115e-08
-1.99071e-07
8.06077e-06
-1.84582e-06
-1.2158e-06
7.93298e-07
9.67198e-07
1.95938e-06
-6.58244e-07
3.57346e-07
1.61184e-07
4.99043e-05
-3.28321e-07
-2.6883e-07
-1.07392e-07
-3.16579e-07
-4.24348e-07
1.51e-07
-3.15217e-07
-5.72567e-09
4.88706e-07
6.27614e-05
4.77045e-08
4.1248e-07
-8.49562e-09
8.50724e-07
4.41246e-07
7.24255e-07
-8.86557e-06
2.48802e-07
3.65982e-07
8.58115e-06
-1.09617e-06
-3.27595e-08
5.46515e-08
1.07428e-06
-2.56655e-06
1.89502e-07
-1.60865e-07
2.6991e-06
-6.52744e-06
4.95748e-07
-5.39028e-07
2.77267e-07
6.78216e-06
-8.13031e-07
-1.39167e-07
-7.45923e-08
1.02679e-06
-1.62703e-06
-1.92153e-07
2.33991e-07
1.5852e-06
1.39937e-06
5.07094e-07
-6.22012e-07
-1.28446e-06
1.18919e-06
-6.49653e-07
-3.48187e-06
9.60935e-08
-1.09512e-06
3.94136e-06
-7.23535e-07
-8.2019e-06
7.69714e-07
-4.57833e-07
7.08208e-07
7.90534e-06
-8.09229e-07
2.44673e-07
-3.0407e-07
-5.25658e-07
1.15665e-06
2.3763e-07
7.78811e-07
5.04931e-07
-6.20387e-06
1.61552e-07
-1.06006e-06
5.81864e-06
6.88981e-07
4.98984e-07
6.91685e-05
5.90473e-07
-3.78028e-07
7.24357e-07
3.11771e-07
-3.45564e-07
-8.80473e-07
-3.23037e-07
1.73682e-07
-5.537e-07
1.7084e-07
8.71489e-05
-9.13022e-08
5.48333e-07
9.18329e-07
1.32875e-06
-1.09351e-08
-2.90609e-06
5.82831e-05
9.23598e-07
9.68704e-07
1.37197e-06
8.97315e-07
-2.5589e-07
-7.66789e-08
-1.1988e-07
-5.83827e-07
5.01452e-07
-1.0629e-06
1.13434e-06
-1.48664e-06
-5.55421e-08
4.43293e-07
1.09889e-06
-5.19554e-07
-7.97166e-06
1.05507e-06
1.2031e-08
-3.61379e-07
7.78549e-06
7.05428e-07
-7.17303e-07
9.00129e-05
-1.79321e-08
3.50989e-07
9.81267e-07
1.33214e-06
3.19614e-06
1.44195e-06
9.42289e-05
8.42159e-07
1.98626e-07
6.74479e-05
5.23675e-07
9.66593e-07
5.4487e-07
2.98164e-07
4.94849e-07
2.38883e-07
-7.50325e-06
7.45272e-07
6.79329e-07
-5.1847e-07
7.43927e-06
-2.06348e-06
-9.93673e-07
3.28309e-07
6.46956e-07
2.45538e-06
-3.73493e-07
-2.63832e-06
5.05643e-07
4.81427e-05
6.45491e-07
4.99714e-07
9.52595e-07
4.27485e-07
1.09717e-07
4.14902e-07
1.27063e-07
1.39736e-07
4.72394e-07
5.85231e-05
2.31236e-08
5.31762e-07
-2.96114e-08
7.70668e-07
4.42082e-07
6.91711e-07
-8.79319e-06
6.18684e-07
3.91852e-07
8.12101e-06
-1.26375e-06
1.78715e-07
-4.37838e-07
1.52288e-06
-2.76625e-06
-5.01288e-08
2.21033e-07
3.10099e-06
-7.09239e-06
2.72064e-07
-4.63562e-07
2.11438e-07
7.54485e-06
-1.28507e-06
-3.16713e-07
3.62023e-08
1.56558e-06
-1.66113e-06
-1.89027e-07
-2.64748e-08
1.87663e-06
1.15523e-06
4.63048e-07
-6.29485e-07
-9.88796e-07
1.25384e-06
-4.52468e-07
-4.40525e-06
2.98026e-08
-1.45795e-06
5.03202e-06
3.31404e-07
-7.97583e-06
6.47935e-07
-4.07484e-07
-9.2823e-07
8.33221e-06
-1.62847e-06
6.72028e-07
-4.16756e-07
-1.145e-06
2.2429e-06
2.75298e-07
6.50965e-07
1.17564e-06
-5.24867e-06
-8.10816e-07
-5.24119e-07
4.757e-06
-1.86997e-06
-2.48289e-06
6.58715e-05
1.22109e-06
9.16799e-07
1.27019e-06
1.44338e-06
3.93907e-07
7.55727e-07
6.5251e-07
9.96238e-07
4.22151e-07
-2.57905e-06
8.01503e-05
1.40579e-06
1.56066e-06
2.14359e-06
2.17549e-06
3.18833e-07
-3.95202e-06
5.62674e-05
1.40766e-06
1.10013e-06
1.7249e-06
1.00077e-06
2.52445e-07
2.41031e-07
3.44047e-07
-1.62191e-06
2.34481e-07
-5.89957e-07
2.29622e-06
-9.94354e-07
-5.38195e-08
-4.47585e-08
1.09293e-06
9.17449e-07
-7.79702e-06
6.62574e-07
-1.70092e-06
-2.68596e-07
8.18651e-06
-1.58527e-06
3.94702e-07
8.11369e-05
1.4004e-06
1.73426e-06
2.04082e-06
2.40822e-06
3.10006e-06
1.59725e-06
8.53673e-05
1.02025e-06
6.54979e-08
6.25277e-05
6.54596e-07
1.01716e-06
5.60316e-07
2.50875e-07
2.84647e-07
2.14885e-07
-7.55059e-06
6.24396e-07
7.04489e-07
-5.90788e-07
7.83274e-06
-2.94627e-06
-5.70092e-07
-1.41739e-07
5.26994e-07
3.67128e-06
-5.40169e-07
-2.12558e-06
7.88147e-07
4.51845e-05
9.34127e-07
5.3373e-07
9.91948e-07
4.08238e-07
5.46968e-07
7.08892e-07
5.66418e-07
3.62801e-07
6.07533e-07
5.38307e-05
9.3337e-08
6.34515e-07
6.08926e-08
8.65023e-07
6.70685e-07
8.69375e-07
-7.97417e-06
8.65791e-07
3.44341e-07
7.19234e-06
-1.79426e-06
2.88783e-07
-5.25373e-07
2.03085e-06
-3.38114e-06
-3.36194e-07
5.02623e-07
4.00286e-06
-8.06519e-06
2.22169e-08
-2.85307e-07
1.31503e-07
8.80431e-06
-1.85957e-06
-3.6051e-07
4.19212e-08
2.17816e-06
-2.20168e-06
-1.13759e-07
-2.54204e-07
2.56964e-06
7.982e-07
4.57855e-07
-6.77579e-07
-5.78476e-07
9.55456e-07
-2.51733e-07
-5.73054e-06
-8.72706e-08
-1.48376e-06
6.59784e-06
1.04315e-06
-8.90156e-06
5.66803e-07
-4.04129e-07
-1.77634e-06
9.47208e-06
-2.89998e-06
8.57727e-07
-3.89865e-07
-1.40166e-06
3.5228e-06
3.10978e-07
7.08765e-07
9.92844e-07
-4.37163e-06
-1.30817e-06
-2.29792e-07
4.20798e-06
-1.84437e-06
-4.29122e-06
6.20827e-05
1.47565e-06
1.51555e-06
1.49748e-06
1.89057e-06
9.36103e-07
7.42828e-07
9.6601e-07
9.00224e-07
7.70425e-07
-3.14463e-06
7.25147e-05
1.84046e-06
1.78393e-06
2.29244e-06
2.24858e-06
4.15398e-07
-3.53681e-06
5.39381e-05
1.37457e-06
9.42212e-07
1.61427e-06
9.18293e-07
4.83864e-07
3.75156e-07
5.12794e-07
-2.83205e-06
1.19071e-07
-2.422e-07
3.37058e-06
-1.32151e-06
2.49756e-09
-2.9405e-07
1.61307e-06
1.37056e-06
-8.76644e-06
1.03375e-07
-2.1752e-06
2.41532e-07
9.22617e-06
-1.9225e-06
1.73849e-06
7.02062e-05
1.65823e-06
1.83113e-06
1.6619e-06
1.67221e-06
3.29999e-06
2.23267e-06
7.47675e-05
9.21359e-07
-1.79745e-07
5.88869e-05
5.85527e-07
9.00301e-07
6.59375e-07
2.27569e-07
5.81406e-08
2.31407e-07
-8.27058e-06
3.68015e-07
3.67884e-07
-3.44255e-07
8.80029e-06
-4.48517e-06
-2.89701e-07
-5.2629e-08
5.25537e-07
5.3174e-06
-1.01544e-06
-1.60739e-09
1.01501e-06
4.26997e-05
2.30738e-07
5.54665e-08
5.85214e-08
-3.88198e-08
9.21057e-07
9.87108e-07
9.95858e-07
2.99566e-07
7.30637e-07
5.15128e-05
1.11311e-07
5.46957e-07
1.46895e-07
9.7355e-07
7.78871e-07
9.61167e-07
-6.99642e-06
7.39964e-07
3.36882e-08
6.34259e-06
-2.16304e-06
2.14244e-07
-2.49893e-07
2.19869e-06
-4.59542e-06
-4.24455e-07
5.59132e-07
5.47575e-06
-9.6158e-06
-2.04754e-08
-3.037e-07
1.79441e-07
1.04912e-05
-2.47741e-06
-1.97611e-07
-2.96059e-08
2.70462e-06
-2.96299e-06
-3.86489e-08
-3.55923e-07
3.35756e-06
3.42478e-07
3.94839e-07
-6.65283e-07
-7.20331e-08
6.31206e-07
7.60026e-08
-7.47147e-06
-3.33145e-07
-1.18215e-06
8.27956e-06
1.27256e-06
-1.01636e-05
6.75876e-07
-7.42001e-07
-1.87314e-06
1.08303e-05
-4.1099e-06
6.47622e-07
-3.5235e-07
-1.32557e-06
4.62835e-06
5.11849e-07
7.07206e-07
3.15273e-07
-4.15774e-06
-8.21222e-07
-2.33579e-07
4.19007e-06
-2.04396e-07
-4.5776e-06
5.76205e-05
1.61368e-06
1.7784e-06
1.58657e-06
2.16846e-06
6.04873e-07
4.4733e-07
4.93183e-07
5.51718e-07
3.80953e-07
-2.12714e-06
6.70721e-05
1.62986e-06
1.54635e-06
1.92354e-06
1.88468e-06
4.46922e-07
-2.0486e-06
5.08032e-05
1.0852e-06
6.93243e-07
1.14926e-06
6.91628e-07
4.99172e-07
4.55707e-07
5.43368e-07
-3.80338e-06
1.79999e-07
-9.55483e-08
4.16585e-06
-1.91073e-06
9.80269e-08
-3.34172e-07
2.14688e-06
8.57981e-07
-9.3544e-06
-2.61733e-07
-1.29435e-06
8.1706e-07
9.23544e-06
-9.26741e-07
2.62027e-06
6.10746e-05
8.04637e-07
6.07786e-07
9.45749e-07
5.02286e-07
2.61216e-06
2.40815e-06
6.66933e-05
7.21988e-07
-3.16175e-07
5.63584e-05
6.75231e-07
7.48868e-07
7.3403e-07
2.53969e-07
-5.55594e-08
3.29697e-07
-9.38178e-06
5.56673e-08
2.05521e-07
-3.09135e-08
9.8735e-06
-5.96599e-06
1.14768e-07
2.96743e-07
3.32706e-07
6.33305e-06
-1.11129e-06
1.09194e-06
1.07609e-06
4.15457e-05
-6.21388e-07
-2.89941e-07
-6.108e-07
-1.96746e-07
1.07051e-06
1.09645e-06
1.1581e-06
1.80714e-07
7.35232e-07
5.10063e-05
1.24601e-07
4.41229e-07
1.3877e-07
8.30835e-07
8.21637e-07
7.33559e-07
-6.40135e-06
4.30823e-07
-2.76157e-07
6.11122e-06
-2.23803e-06
-1.76641e-07
8.31142e-08
2.33156e-06
-6.2924e-06
-2.44043e-07
4.92028e-07
7.1205e-06
-1.14295e-05
-1.67927e-08
-4.87651e-07
2.84908e-07
1.23842e-05
-2.86108e-06
6.77754e-08
-1.00901e-07
2.89421e-06
-3.72251e-06
4.2602e-08
-3.74231e-07
4.05414e-06
-2.29832e-07
2.2666e-07
-5.41853e-07
5.45024e-07
3.77026e-07
4.68046e-07
-8.84442e-06
-5.13901e-07
-6.32976e-07
9.14623e-06
1.3161e-06
-1.15821e-05
5.71214e-07
-9.34136e-07
-1.60681e-06
1.22358e-05
-5.0512e-06
2.66561e-08
-2.89689e-07
-5.79429e-07
5.29681e-06
5.96845e-07
6.68879e-07
-4.34311e-07
-4.31434e-06
5.35768e-08
-4.96022e-07
4.52222e-06
1.46436e-06
-3.47703e-06
5.3232e-05
1.42802e-06
1.83226e-06
1.35596e-06
2.14405e-06
-1.13739e-08
-1.21264e-07
-7.81002e-08
-1.48362e-07
-1.30498e-07
-1.56628e-06
6.4756e-05
1.22195e-06
1.17697e-06
1.52609e-06
1.55217e-06
4.47897e-07
2.98955e-07
4.67944e-05
3.95366e-07
3.8424e-07
4.04564e-07
3.84756e-07
5.30395e-07
4.2095e-07
6.11185e-07
-4.48672e-06
4.1768e-07
-2.05357e-07
4.72229e-06
-2.24719e-06
3.61778e-07
-3.35687e-07
2.2211e-06
8.30063e-09
-9.06334e-06
-6.43159e-08
-2.51217e-07
5.99431e-07
8.77114e-06
-2.47665e-07
3.00376e-06
5.46814e-05
1.9886e-07
-2.73222e-07
2.65834e-07
-3.13749e-08
1.01386e-06
1.22722e-06
6.26383e-05
6.00607e-07
-2.55796e-07
5.4295e-05
6.40466e-07
6.66724e-07
6.25479e-07
4.49008e-07
1.14338e-07
5.35445e-07
-1.03533e-05
5.29445e-09
2.48463e-07
7.86958e-08
1.06214e-05
-6.38276e-06
5.44733e-07
2.13764e-07
-2.05381e-07
6.27884e-06
-4.49198e-07
3.48373e-07
1.07638e-06
4.1038e-05
-7.8526e-07
-6.89024e-08
-4.24877e-07
1.28228e-07
1.07705e-06
1.06051e-06
1.09996e-06
-7.8912e-08
6.31953e-07
5.03766e-05
-9.8197e-08
1.94271e-07
-1.36837e-07
5.23666e-07
6.5817e-07
5.11124e-07
-6.55802e-06
4.40216e-08
-4.30044e-07
6.60934e-06
-2.44902e-06
-4.95481e-07
4.11629e-07
2.53287e-06
-7.76021e-06
1.2077e-07
4.30735e-07
8.28508e-06
-1.35358e-05
-7.56033e-08
-5.28971e-07
2.66546e-07
1.45058e-05
-2.86398e-06
2.78327e-07
-1.73467e-07
2.75912e-06
-4.36111e-06
1.44667e-07
-4.29791e-07
4.64624e-06
-8.47151e-07
8.32582e-08
-3.38286e-07
1.10218e-06
2.26128e-07
6.15031e-07
-9.18438e-06
-4.82591e-07
-1.60394e-07
8.98621e-06
1.28775e-06
-1.29179e-05
3.18283e-07
-8.13282e-07
-1.43104e-06
1.35562e-05
-5.41162e-06
-5.06804e-07
-1.17249e-07
2.16046e-07
5.34799e-06
4.71642e-07
4.00737e-07
-6.0064e-07
-4.827e-06
3.91785e-07
-4.49875e-07
5.08499e-06
1.87385e-06
-1.86278e-06
5.05338e-05
8.7375e-07
1.52665e-06
5.80053e-07
1.69982e-06
-3.74142e-07
-7.20484e-07
-3.02064e-07
-5.96468e-07
-9.78756e-07
-1.91556e-06
6.45951e-05
1.00084e-06
1.01085e-06
1.44993e-06
1.46748e-06
2.37157e-07
2.49095e-06
4.20684e-05
-2.55286e-07
1.3901e-07
-1.99466e-07
1.05724e-07
5.34485e-07
1.12823e-07
5.81779e-07
-4.9132e-06
6.71736e-07
-4.42214e-07
4.92084e-06
-2.15062e-06
4.21872e-07
-3.54106e-07
2.08286e-06
-2.86375e-07
-8.47749e-06
1.17968e-07
3.80535e-07
6.79082e-08
8.19745e-06
4.27181e-07
1.94458e-06
5.14356e-05
-4.32069e-07
-3.39023e-07
-2.84574e-07
6.69003e-08
-9.56292e-08
-3.06073e-07
6.15516e-05
5.21998e-07
4.53954e-08
5.26537e-05
4.71133e-07
5.68711e-07
4.02485e-07
7.14577e-07
5.33379e-07
7.78944e-07
-1.08306e-05
1.34313e-07
3.00042e-07
8.41676e-08
1.08341e-05
-6.16913e-06
7.83109e-07
-2.89132e-07
-7.52152e-07
6.17106e-06
2.56248e-07
-1.01676e-06
7.58775e-07
4.08317e-05
-2.75116e-07
3.50284e-07
8.46687e-08
4.82822e-07
6.60595e-07
6.063e-07
4.9934e-07
-3.15573e-07
4.56967e-07
4.87392e-05
-4.19755e-07
2.07418e-08
-4.81194e-07
2.82664e-07