/*--------------------------------*- C++ -*----------------------------------*\
| =========                 |                                                 |
| \\      /  F ield         | OpenFOAM: The Open Source CFD Toolbox           |
|  \\    /   O peration     | Version:  5.x                                   |
|   \\  /    A nd           | Web:      www.OpenFOAM.org                      |
|    \\/     M anipulation  |                                                 |
\*---------------------------------------------------------------------------*/
FoamFile
{
    version     2.0;
    format      ascii;
    class       volVectorField;
    location    "1";
    object      U;
}
// * * * * * * * * * * * * * * * * * * * * * * * * * * * * * * * * * * * * * //

dimensions      [0 1 -1 0 0 0 0];

internalField   nonuniform List<vector> 
10571
(
(-0.0204595 0.155011 0.666869)
(0.0239069 0.0574178 0.538944)
(0.0623989 0.0652002 0.750902)
(-0.101778 0.0582488 0.816237)
(-0.122485 0.0039681 0.802595)
(-0.0142566 0.0738083 0.686239)
(-0.221639 -0.189228 0.884886)
(-0.0824014 -0.403221 1.13529)
(-0.131278 -0.180938 1.03902)
(0.00890477 -0.00796816 0.843079)
(0.147793 0.0166658 0.64598)
(-0.000198601 -0.00589031 0.700125)
(-0.508452 -0.0124155 1.09588)
(-0.0930256 -0.0878714 0.864564)
(0.148479 -0.0250305 1.14161)
(0.172733 0.031524 0.858243)
(-0.0186167 -0.0875559 0.666374)
(-0.367682 -0.0698163 0.98207)
(-0.0127694 0.277388 1.17503)
(0.139918 0.129125 0.849546)
(-0.0719168 0.0133857 0.752338)
(0.0234902 0.08799 0.825467)
(-0.0749384 0.127956 0.781144)
(-0.0721152 -0.0228843 0.689892)
(-0.0800378 0.00337365 0.668333)
(-0.310424 0.306375 0.567301)
(-0.230272 0.0856747 0.838697)
(-0.155478 0.0833302 1.12341)
(-0.148964 -0.101325 0.863889)
(-0.309701 0.485311 0.787638)
(0.0370549 0.0812899 0.453463)
(0.0142366 0.106189 0.442725)
(-0.01287 0.0309747 0.364018)
(-0.117826 -0.0187311 0.857012)
(-0.19134 0.374399 0.806947)
(-0.270374 0.411074 0.98089)
(0.128314 0.0151548 0.444613)
(-0.00201629 0.00166457 0.316859)
(-0.0966608 -0.0422759 0.370095)
(-0.51251 0.232147 1.41692)
(-0.166694 0.11044 0.914013)
(0.0359978 -0.0789508 0.392228)
(-0.0407453 -0.113457 0.401724)
(-0.333964 -0.188734 1.44877)
(-0.180814 0.262953 0.947467)
(-0.241938 -1.16429 1.07117)
(-0.4384 -0.362658 1.3837)
(-0.574053 0.397983 0.784607)
(-0.0112233 -0.0252359 0.314352)
(-0.0453504 -0.0307089 0.242299)
(-0.133391 -0.0398638 0.486721)
(0.0385269 0.0237355 1.02005)
(0.157988 0.00847441 0.308246)
(0.000836919 -0.125239 0.376395)
(0.209204 0.238457 0.530518)
(0.0317555 0.280233 0.578504)
(-0.0208628 0.0906927 0.735963)
(-0.0221147 -0.0100387 0.407689)
(0.239227 0.130723 3.18562)
(0.106138 0.0283915 0.64295)
(0.350797 0.0183672 0.703746)
(0.0208916 0.00736736 0.810778)
(-0.0694823 -0.0550793 0.810838)
(-0.0530528 -0.021685 0.365165)
(0.033524 0.154196 0.295227)
(0.124805 -0.0548124 0.968316)
(-0.0271197 -0.0924058 0.806479)
(-0.0329042 -0.0440455 0.335702)
(0.00723288 -0.0103653 0.410445)
(-0.00821754 -0.0205532 0.339259)
(0.00356427 -0.0526755 0.376248)
(0.01404 -0.00760474 0.26736)
(-0.00182882 -0.0349081 0.667363)
(0.0740465 0.0473389 0.19536)
(0.230718 0.109187 0.69225)
(-0.0466845 0.121139 1.16335)
(-0.396497 -0.0847669 0.324878)
(0.00501034 0.322922 0.620575)
(0.376341 0.365156 1.12634)
(-0.153495 0.221555 1.07021)
(-0.378331 0.299356 0.716722)
(-0.0398363 0.00264175 0.193962)
(-0.085653 -0.0164527 2.64174)
(-0.147975 -0.0260948 1.00574)
(0.207742 -0.214786 1.02405)
(-0.0979995 -0.113155 0.691241)
(-0.157147 -0.279318 0.731274)
(-0.0321904 0.012187 0.0684131)
(-0.11923 -0.346736 0.44665)
(0.219502 -0.372637 0.826296)
(-0.26726 -0.208514 0.770568)
(-0.0868069 -0.113875 0.0197151)
(-0.0107938 0.00179725 0.149858)
(0.0310839 -0.0242509 0.0873374)
(-0.000602963 -0.0424667 0.1717)
(-0.00964697 -0.00774985 -0.0267069)
(-0.0311031 -0.00461451 0.45017)
(-0.0869055 0.0438367 0.19862)
(-0.0912968 -0.00790322 0.282463)
(0.0272786 -0.0789691 0.532115)
(0.0197952 0.119509 0.0597195)
(-0.0780102 -0.000403419 0.246938)
(0.157988 0.187975 0.597013)
(-0.0219871 0.142538 0.693248)
(-0.121346 0.254657 0.494704)
(-0.0766918 0.186984 0.144836)
(-0.00857756 -0.0426111 1.93674)
(0.0266487 -0.0571232 0.541409)
(0.105643 -0.0896894 0.698574)
(0.0189491 0.0143672 0.704304)
(-0.0217194 -0.200918 0.576434)
(-0.119047 0.0266211 0.0524277)
(0.000564694 0.0286398 0.227747)
(0.185193 -0.200451 0.522982)
(-0.175601 -0.106326 0.532043)
(0.126289 0.0521159 -0.156768)
(0.0619875 -0.044894 0.308192)
(0.0625118 0.0812242 -0.128453)
(0.0605325 -0.153215 0.108434)
(0.0252043 -0.00539902 0.158985)
(-0.0187787 -0.00612384 0.44013)
(-0.0396312 0.0270331 0.125727)
(-0.0526824 0.0389785 0.211072)
(0.0327041 -0.00596365 0.363333)
(0.0866025 0.105689 0.0180672)
(-0.0403493 -0.0607973 0.256497)
(0.132253 0.15323 0.733133)
(0.000291725 0.122337 0.860194)
(-0.0588852 0.250775 0.568765)
(0.127629 0.128668 0.100306)
(-0.0941419 0.0500521 -0.021004)
(0.0038681 -0.0498532 1.94585)
(0.0116583 -0.033928 0.508924)
(0.0775973 -0.0751703 0.85194)
(0.0541388 0.043525 0.839987)
(0.0376444 -0.179907 0.655931)
(0.101276 -0.0982612 0.197222)
(0.134002 0.0107266 0.124701)
(0.0419901 0.132392 0.224608)
(0.206525 -0.125097 0.54494)
(-0.143903 -0.064994 0.603464)
(0.0922196 0.0306088 0.0559342)
(0.0608542 -0.108336 0.123691)
(0.063496 0.16064 0.059987)
(0.0420055 0.0634365 0.161615)
(0.0245107 0.0798293 0.0375688)
(0.00659696 0.0104696 0.449141)
(0.0138259 0.0085061 -0.0310879)
(0.0216337 0.0821253 0.157878)
(-0.00845006 0.0655566 0.350113)
(-0.00219654 0.00763397 0.0233347)
(0.0367538 -0.0316066 0.318049)
(0.130101 0.146297 0.673706)
(0.0433304 0.111794 0.865909)
(-0.0204941 0.224779 0.574153)
(-0.0780435 -0.0469201 0.0523772)
(-0.087734 0.00773015 -0.037093)
(0.0324911 -0.0448525 1.75653)
(0.0854979 -0.0452712 0.493946)
(0.0934212 -0.0356824 0.889614)
(0.0878441 0.0480628 0.919947)
(0.0748773 -0.127724 0.698139)
(0.108001 -0.0815961 0.324325)
(0.0812983 0.0298476 0.135286)
(0.122592 0.0861108 0.236362)
(0.217913 -0.0951876 0.511597)
(-0.0608214 -0.0552992 0.603126)
(0.0467357 -0.00249391 0.178322)
(-0.0157796 0.0534078 0.00948551)
(0.0210942 0.0404483 0.0695765)
(0.0448716 0.0855933 0.140361)
(0.00847108 0.0418257 0.228342)
(0.0412384 0.0517314 0.0576529)
(0.0613347 0.0263468 0.418464)
(0.0424429 -0.0201455 -0.0918806)
(0.0645786 0.0487447 0.0995171)
(-0.00725513 0.0950897 0.378216)
(-0.026199 0.0412685 0.0513787)
(0.128411 -0.0604746 0.342235)
(0.1174 0.103324 0.6436)
(0.0616511 0.080865 0.846833)
(-0.0150323 0.193306 0.588767)
(-0.0546102 -0.0698878 0.0953365)
(-0.0246802 -0.0702075 -0.0423802)
(0.0320727 -0.0806781 1.53507)
(0.162602 -0.0253796 0.46068)
(0.0944243 0.0116991 0.871437)
(0.105334 0.0644319 0.946425)
(0.0795159 -0.0597671 0.719861)
(0.0730076 -0.0699684 0.324324)
(0.0646129 -0.00409933 0.139434)
(0.117616 0.0596761 0.144738)
(0.210552 -0.0880999 0.514463)
(-0.022711 -0.0417949 0.621347)
(0.0476181 0.0351764 0.25657)
(-0.0700799 0.0576208 0.0299745)
(0.0621357 0.0113934 0.0496866)
(-0.0105718 0.0235732 0.144158)
(-0.0254588 0.0374303 0.243428)
(0.0409326 0.0199175 0.0596307)
(0.107659 0.0221977 0.357223)
(0.0402931 -0.0308689 -0.109998)
(0.0990383 -0.0229074 0.104615)
(-0.00445872 0.122475 0.404608)
(-0.0154505 0.0731243 0.0322634)
(0.192807 -0.0985046 0.323434)
(0.123079 0.0923085 0.654876)
(0.0581491 0.0701636 0.853379)
(-0.0254676 0.139323 0.62463)
(-0.0708193 -0.117985 0.0744116)
(0.0062013 -0.0981881 -0.0634375)
(0.105689 -0.0230964 0.905515)
(0.202671 -0.0262198 0.436606)
(0.0878207 0.0299235 0.887314)
(0.095365 0.0732876 0.974294)
(0.0881059 -0.0223717 0.766483)
(0.037925 -0.0692301 0.343875)
(0.080402 -0.0635504 0.0867677)
(0.109835 0.0854905 0.0835823)
(0.178303 -0.0911747 0.527928)
(-0.0325829 -0.00764545 0.661193)
(0.0497068 0.0725801 0.347167)
(-0.0232089 0.0288031 0.0459513)
(-0.0206047 0.0242216 0.134113)
(-0.0379478 0.039221 0.248702)
(0.0302685 0.012614 0.0568842)
(0.0701335 0.0106329 0.269226)
(0.0391319 -0.0307733 -0.110181)
(0.0956079 -0.059495 0.130867)
(-0.0387865 0.136206 0.396236)
(-0.0190802 0.0407557 0.0243124)
(0.15385 -0.0939424 0.297823)
(0.114684 0.0724995 0.693846)
(0.0282579 0.0566624 0.88176)
(-0.0256719 0.0163344 0.634107)
(-0.0518539 -0.13209 0.028318)
(0.0512744 -0.0267714 0.391838)
(0.145642 -0.0247546 0.374451)
(0.0672207 0.0260563 0.920002)
(0.0645748 0.0544504 0.999219)
(0.0893626 -0.0224152 0.765112)
(0.0195887 -0.0578727 0.304753)
(0.102425 0.0837011 0.0713008)
(0.0557308 -0.0824794 0.540191)
(-0.0378399 0.0186698 0.671986)
(0.0473877 0.0706256 0.374243)
(0.00381097 0.00736896 0.0846872)
(0.0030443 0.0566236 0.133343)
(-0.0387924 0.0387704 0.262483)
(0.0140383 0.0227849 0.0828081)
(0.0557661 0.000134568 0.22695)
(0.0406233 -0.0285463 -0.0977029)
(0.0748313 -0.0904922 0.166198)
(-0.0540875 0.0879576 0.350256)
(-0.0226407 -0.0118219 0.0356399)
(0.00677131 -0.0615313 0.265659)
(0.0401619 0.00543943 0.716732)
(-0.00916056 -0.0185174 0.909978)
(0.000711002 -0.0769403 0.633583)
(0.00897461 -0.0723046 0.0470154)
(0.00894953 0.012066 0.173986)
(0.0174556 -0.0579157 0.343599)
(-0.00283704 0.0136704 0.940951)
(0.0317331 0.024371 0.987544)
(0.0889317 -0.0267609 0.747594)
(0.0504753 -0.0538815 0.292977)
(0.0819323 0.0595095 0.0854615)
(-0.0640869 -0.0375872 0.52277)
(-0.0283771 0.023392 0.652397)
(0.0502306 0.0539884 0.3602)
(0.0167058 -0.0211201 0.127113)
(0.0251543 0.0730276 0.147733)
(-0.0191285 0.0372762 0.287565)
(0.00582964 0.0279626 0.129679)
(0.0580878 -0.00957927 0.248847)
(0.0448451 -0.0316656 -0.0780869)
(0.0608587 -0.111682 0.20742)
(-0.0434611 -0.0265623 0.357219)
(-0.0271862 -0.0592621 0.0743615)
(-0.0912535 -0.0428204 0.217012)
(-0.0450888 -0.0714563 0.679094)
(-0.0120993 -0.0983053 0.854051)
(0.029783 -0.110552 0.603872)
(0.025076 -0.0346796 0.105147)
(-0.00402111 0.0113225 0.144903)
(-0.112578 -0.0621471 0.348916)
(-0.075189 -0.0081292 0.884115)
(0.0206882 0.00999421 0.932925)
(0.0877253 -0.029434 0.685492)
(0.0562062 -0.0455563 0.302248)
(0.0459316 0.0601966 0.12864)
(-0.0729189 0.0216239 0.494402)
(-0.00162088 0.0423745 0.58683)
(0.0561626 0.0401153 0.31868)
(0.0136946 -0.0265212 0.175847)
(0.0463577 0.073397 0.184458)
(0.00700111 0.0434539 0.331045)
(0.00373156 0.0289894 0.183561)
(0.0490388 -0.0153281 0.340464)
(0.0498156 -0.0366632 -0.0506115)
(0.0375942 -0.101187 0.27004)
(-0.0380628 -0.0960149 0.402837)
(-0.0254076 -0.0770841 0.124979)
(-0.0980453 -0.0531409 0.18598)
(-0.0476471 -0.111391 0.638073)
(-0.00986348 -0.122558 0.758192)
(0.0366634 -0.101027 0.581532)
(0.0301943 -0.0158606 0.161022)
(-0.0124039 0.0123031 0.209079)
(-0.14331 -0.0322004 0.397094)
(-0.0963587 -0.0284619 0.754444)
(0.0317277 0.016819 0.802645)
(0.081203 -0.0228552 0.631356)
(0.0488517 -0.0281341 0.336753)
(0.0236174 0.0740584 0.192253)
(-0.0037082 0.0816359 0.457465)
(0.00446236 0.0553758 0.545234)
(0.0449749 0.00884431 0.277977)
(-0.00853917 -0.0243567 0.19956)
(0.0485494 0.0674305 0.252019)
(0.00593933 0.0497998 0.395415)
(0.0141184 0.0224976 0.237322)
(0.0455914 -0.0170515 0.451939)
(0.0493452 -0.0368202 -0.0160698)
(2.35645e-05 -0.0636286 0.347943)
(-0.0541121 -0.108746 0.459816)
(-0.0149989 -0.0676763 0.169894)
(-0.035685 -0.0591929 0.1824)
(0.0121144 -0.135259 0.599426)
(-0.0170571 -0.0968578 0.689655)
(0.0303542 -0.0544175 0.55623)
(0.0330498 -0.0145149 0.202763)
(-0.0139597 -0.00551618 0.293082)
(-0.0930576 0.0205119 0.408435)
(-0.0541092 -0.0157783 0.6508)
(0.023156 0.0263306 0.701696)
(0.0648083 -0.0166758 0.607569)
(0.0401442 0.000711942 0.378832)
(0.0120996 0.056747 0.243055)
(0.0488203 0.0959221 0.437716)
(-0.00517551 0.051183 0.537768)
(0.0352706 -0.00975597 0.264545)
(-0.0169883 0.0212446 0.207185)
(0.0336829 0.0662249 0.33774)
(-0.00395751 0.0504666 0.466469)
(0.0383633 0.013417 0.263973)
(0.0491461 -0.0165709 0.557573)
(0.0393648 -0.0313954 0.0282752)
(-0.0470095 -0.00699411 0.398859)
(-0.0569476 -0.0996626 0.523255)
(0.00392016 -0.0124187 0.202331)
(0.0446038 -0.0644323 0.194138)
(0.0786388 -0.124378 0.545763)
(-0.0286048 -0.0706997 0.653672)
(0.024441 0.0101132 0.516028)
(0.0338843 -0.0308145 0.233161)
(-0.00898055 -0.0445916 0.322579)
(0.00342168 0.0232014 0.393089)
(0.00450344 0.0084435 0.572078)
(-0.0133835 0.0181918 0.644611)
(0.0473425 0.00238961 0.585024)
(0.0379213 0.003607 0.413243)
(-0.0115704 0.000574309 0.246402)
(0.0583038 0.0844957 0.43356)
(-0.0434623 0.0204301 0.536497)
(0.0259646 -0.0129376 0.277849)
(-0.0179904 0.0575756 0.2275)
(0.018881 0.0716294 0.404753)
(-0.00242892 0.0528826 0.552337)
(0.0563284 0.00351658 0.256295)
(0.0286604 -0.0143807 0.64531)
(0.0273934 -0.0246965 0.0716277)
(-0.0626339 0.0246569 0.400679)
(-0.0359614 -0.0960782 0.58101)
(0.0255578 0.0430682 0.210387)
(0.0711736 -0.0444257 0.217407)
(0.112841 -0.0854943 0.507247)
(-0.0485456 -0.0634018 0.642592)
(0.0161978 0.0504579 0.467286)
(0.0165723 -0.0522625 0.250189)
(-0.00606513 -0.0547264 0.302439)
(0.045412 0.00746689 0.365524)
(0.0509706 0.0233778 0.523502)
(-0.0366163 -0.00209894 0.621716)
(0.0327452 0.0402517 0.560179)
(0.037649 -0.0125131 0.426181)
(-0.0348724 -0.0408971 0.239903)
(0.0444394 0.0365402 0.429913)
(-0.0787867 -0.0105651 0.522589)
(0.0171322 0.00215931 0.318816)
(-0.0185273 0.0688808 0.236931)
(-0.0401563 0.0636562 0.458127)
(-0.0806286 0.0444711 0.603139)
(0.0468778 -0.00606996 0.240998)
(0.0332654 -0.0112699 0.722781)
(0.0228241 -0.0211113 0.100253)
(-0.0501845 0.0455214 0.369755)
(-0.0227289 -0.0871525 0.631452)
(0.0402975 0.0623202 0.206814)
(0.0712055 -0.0184625 0.238015)
(0.102757 -0.048843 0.496543)
(-0.071528 -0.0636472 0.648835)
(-0.000709314 0.0761719 0.414391)
(-0.0224271 -0.0691967 0.240528)
(0.00208979 -0.0493803 0.282454)
(0.0552903 0.00167467 0.348997)
(0.0709832 0.0368494 0.50991)
(-0.031361 -0.0231394 0.619944)
(0.0169131 0.07571 0.549017)
(0.0358888 -0.0109268 0.42323)
(-0.0486862 -0.0671998 0.24767)
(0.0230148 -0.0369011 0.429715)
(-0.0739868 -0.0261585 0.501416)
(0.0181647 0.0222357 0.371642)
(-0.00513594 0.0540044 0.251458)
(-0.0859228 0.0278256 0.521069)
(-0.102481 0.0440294 0.55444)
(0.019158 -0.0113139 0.234985)
(0.0388839 -0.0157469 0.780922)
(0.0205954 -0.0168898 0.111711)
(-0.0283619 0.0800192 0.321321)
(-0.0364901 -0.0325825 0.622379)
(0.0315047 0.0376988 0.213225)
(0.069341 -0.00125484 0.248467)
(0.0460778 -0.000807091 0.523382)
(-0.076927 -0.0588209 0.668442)
(-0.0242033 0.0969774 0.369661)
(-0.0575571 -0.0706803 0.210647)
(0.00256573 -0.0836044 0.268453)
(0.0614011 -0.00955065 0.355958)
(0.0670319 0.0501442 0.51285)
(-0.0216115 -0.0348701 0.636015)
(-0.00141169 0.0868807 0.55374)
(0.0163281 -0.00765641 0.387667)
(-0.0579426 -0.0729365 0.264)
(0.0142112 -0.0631263 0.439307)
(-0.0497969 -0.0476074 0.492032)
(0.00989199 0.0350536 0.417578)
(0.0184596 0.011702 0.288176)
(-0.0780165 -0.0612184 0.486313)
(0.0273606 -0.0383137 0.444181)
(0.0242413 -0.0169888 0.241582)
(-0.00260677 -0.0163639 0.822498)
(0.0134424 -0.0133669 0.110803)
(-0.0121624 0.0933965 0.274466)
(-0.0476924 0.0305857 0.587553)
(0.0141567 -0.000327533 0.219967)
(0.0712377 0.00598073 0.25413)
(-0.0311121 0.0732323 0.552907)
(-0.063517 -0.0318221 0.703486)
(-0.0528383 0.100017 0.340362)
(-0.067723 -0.0558085 0.171755)
(-0.00136889 -0.111686 0.26836)
(0.0578576 -0.0275062 0.386623)
(0.0308713 0.0981032 0.532467)
(-0.0174401 -0.0241148 0.657417)
(-0.0173221 0.0748696 0.563878)
(-0.00539837 -0.0428409 0.35654)
(-0.0770871 -0.0718801 0.265323)
(0.0133121 -0.0479729 0.463724)
(-0.0424186 -0.0603363 0.506874)
(-0.018516 0.0328811 0.449496)
(0.0377193 -0.0422217 0.292357)
(-0.0611607 -0.0452165 0.353461)
(0.0969037 -0.0880456 0.325782)
(0.0483282 -0.0342163 0.269105)
(-0.0290248 0.00669098 0.784761)
(0.00686814 -0.0134626 0.105166)
(-0.00215543 0.0506632 0.246037)
(-0.0185987 -0.0390387 0.565656)
(0.0200963 -0.00487314 0.217767)
(0.0732784 0.00743499 0.262225)
(-0.0707717 0.143656 0.536686)
(-0.0164157 0.0499476 0.717478)
(-0.0784107 0.0644352 0.329113)
(-0.061793 -0.0337123 0.141575)
(-0.00379848 -0.123564 0.279977)
(0.0478741 -0.0379802 0.425193)
(-0.0265628 0.158749 0.564975)
(0.00441245 0.0335212 0.683462)
(-0.0140278 0.0502601 0.594094)
(-0.0197768 -0.0490036 0.342099)
(-0.098337 -0.0800679 0.255775)
(0.0172687 -0.0192885 0.517113)
(-0.0408874 -0.0472911 0.535199)
(-0.0447264 0.0162819 0.472159)
(0.0435959 -0.0692019 0.254436)
(-0.0210531 0.0188321 0.282475)
(0.101466 -0.0481157 0.281943)
(0.0679876 -0.0426174 0.281382)
(-0.0236499 0.00695141 0.774488)
(0.00712025 -0.0156094 0.0992055)
(0.0211049 -0.0100279 0.227113)
(0.0606808 -0.114653 0.498366)
(0.0476888 0.0334969 0.211588)
(0.0664045 -0.010995 0.279935)
(-0.0675069 0.179242 0.507091)
(0.015486 0.127092 0.681798)
(-0.0942511 -0.00354217 0.343997)
(-0.0497415 -0.00883587 0.132695)
(-0.00468744 -0.117369 0.297605)
(0.00405882 -0.0499028 0.446725)
(-0.0637501 0.178503 0.597266)
(0.0399365 0.104893 0.706189)
(0.00770396 0.030574 0.632252)
(-0.0184511 -0.042622 0.325041)
(-0.121151 -0.0893658 0.242901)
(0.0203243 -0.0280839 0.529398)
(-0.0178012 -0.0038616 0.581724)
(-0.0343137 0.0105289 0.482491)
(0.0323083 -0.0638615 0.221515)
(-0.00088653 0.0500066 0.238605)
(0.0794345 -0.0131627 0.274555)
(0.0731682 -0.0392041 0.266915)
(0.000624934 0.00482919 0.829143)
(0.0121405 -0.0171889 0.098709)
(0.0420206 -0.0377324 0.214752)
(0.068092 -0.0157435 0.415764)
(0.0672451 0.0687942 0.209526)
(0.0481118 -0.0345351 0.31098)
(-0.0414583 0.177044 0.484423)
(-0.00537863 0.147282 0.646476)
(-0.0916533 -0.0595808 0.373087)
(-0.0365569 0.0113693 0.138679)
(-0.00950826 -0.111113 0.31022)
(-0.0538182 -0.0813033 0.46398)
(-0.0678467 0.168163 0.633204)
(0.0465997 0.125621 0.720135)
(0.0196068 0.015656 0.647934)
(-0.00506906 -0.0410321 0.310199)
(-0.148898 -0.0712656 0.23862)
(-0.00131194 -0.070535 0.51844)
(0.0229754 0.0103373 0.616886)
(0.00136162 0.0105747 0.49197)
(0.0324875 -0.0642475 0.209903)
(0.00549892 0.0674567 0.210616)
(0.0389967 0.0134866 0.298542)
(0.0650309 -0.0290223 0.240366)
(0.0354832 0.0126073 0.892062)
(0.016195 -0.0152642 0.109611)
(0.0377792 -0.0345975 0.214785)
(0.0486569 0.0828362 0.333402)
(0.0765346 0.0778127 0.221407)
(0.0198855 -0.053837 0.33858)
(-0.0145596 0.146156 0.475969)
(-0.0425362 0.13888 0.625692)
(-0.0769341 -0.103937 0.398308)
(-0.019913 0.0256201 0.15464)
(-0.00651993 -0.073245 0.326617)
(-0.0746648 -0.12347 0.480542)
(-0.0414061 0.119213 0.676623)
(0.0389873 0.121436 0.731803)
(0.0224864 -0.00850922 0.645414)
(0.00413375 -0.0427389 0.305533)
(-0.090732 -0.025257 0.284175)
(-0.0726519 -0.0929549 0.455878)
(0.0707308 -0.0136472 0.619354)
(0.0468574 0.0042736 0.505743)
(0.0402163 -0.0749197 0.225613)
(0.00502643 0.0678705 0.198687)
(0.00211622 0.0318015 0.319941)
(0.0463983 -0.00910957 0.225889)
(0.0184883 -0.0163637 0.878188)
(0.00605995 -0.00521955 0.133154)
(0.0128179 -0.0295177 0.227079)
(0.0506931 0.121313 0.306018)
(0.071748 0.0617893 0.2524)
(-0.0188461 -0.0416351 0.340446)
(0.00481706 0.0666144 0.498044)
(-0.0658232 0.116056 0.616146)
(-0.0558997 -0.131953 0.414238)
(0.00206497 0.0393462 0.180397)
(-0.00111309 -2.20489e-05 0.334484)
(-0.0441282 -0.128882 0.507613)
(-0.019304 0.0285379 0.714964)
(0.0286092 0.0882376 0.763156)
(0.0194394 -0.0534157 0.625696)
(0.00653963 -0.0401009 0.311984)
(0.0217412 0.0212058 0.335102)
(-0.0790924 -0.0513922 0.401366)
(0.10366 -0.0449522 0.566499)
(0.102566 -0.0277805 0.502482)
(0.0449968 -0.0841859 0.267473)
(-0.00112523 0.0386183 0.203045)
(-0.0187665 0.0362281 0.325536)
(0.0250316 0.010262 0.237464)
(0.0256549 0.0533063 0.6314)
(-0.00887165 0.00672654 0.164605)
(-0.0115799 -0.0331863 0.241547)
(0.0655644 0.0609677 0.338435)
(0.0685565 0.0349046 0.291993)
(-0.045453 -0.0158664 0.320011)
(0.00760203 -0.0213513 0.529472)
(-0.0662704 0.0710241 0.62097)
(-0.0329763 -0.130964 0.423255)
(0.0182548 0.0524477 0.212734)
(0.00093112 0.0502528 0.343137)
(-0.0474731 -0.070689 0.525632)
(-0.0279199 -0.057583 0.713279)
(0.0181234 0.013801 0.809924)
(0.0174228 -0.0865205 0.60743)
(-0.00123072 -0.0232494 0.326858)
(0.0684623 0.0388588 0.332732)
(-0.0227917 -0.00154609 0.360735)
(0.0996524 -0.0405408 0.505919)
(0.123844 -0.0454643 0.479933)
(0.0273829 -0.0660648 0.322732)
(-0.00952319 -0.00265904 0.220295)
(-0.0197134 0.0266713 0.322339)
(0.00600963 0.0184569 0.262083)
(-0.0126731 0.0155211 0.292468)
(-0.0175804 0.0143547 0.194312)
(-0.0210438 -0.0221575 0.249835)
(0.0872697 -0.0222942 0.376505)
(0.0811618 0.0169315 0.330605)
(-0.0504198 -0.00416577 0.310583)
(0.00536295 -0.0603456 0.540501)
(-0.0490468 -0.0040263 0.62633)
(-0.00711878 -0.103823 0.436924)
(0.0245986 0.0630216 0.245591)
(0.00154278 0.0678964 0.37592)
(-0.0825559 -0.0400633 0.51793)
(-0.0514264 -0.102024 0.667758)
(0.00125484 -0.0395132 0.815021)
(0.0265552 -0.0966804 0.593964)
(-0.0105187 -0.005581 0.337469)
(0.0816081 0.0535405 0.298218)
(0.0334337 0.028984 0.334334)
(0.0735441 -0.0133906 0.463507)
(0.103626 -0.0388788 0.452649)
(-0.00412528 -0.021689 0.356791)
(-0.0109299 -0.0330552 0.241219)
(-0.0154753 0.0120842 0.316212)
(-0.00855133 0.0187193 0.283579)
(-0.0436145 -0.00787703 0.257203)
(-0.0196329 0.0174928 0.213939)
(-0.0218237 -0.0114126 0.257899)
(0.0766746 -0.0559504 0.40926)
(0.0923803 0.0422694 0.348287)
(-0.0444574 -0.00401842 0.317595)
(0.00786605 -0.0597498 0.545253)
(-0.0247233 -0.0657428 0.616805)
(0.0179293 -0.0756328 0.456708)
(0.0218749 0.0635187 0.278448)
(0.000491517 0.0573188 0.432733)
(-0.097588 -0.0106126 0.505188)
(-0.063886 -0.0842287 0.614738)
(-0.00995382 -0.0738945 0.768884)
(0.0415422 -0.0964959 0.57934)
(-0.0104719 0.00651812 0.347283)
(0.0705344 0.0689717 0.26444)
(0.0640944 0.0534665 0.326785)
(0.0552832 0.00808643 0.4403)
(0.0770706 -0.0285618 0.436022)
(-0.0209815 0.0222977 0.366036)
(-0.00921893 -0.0439414 0.258241)
(-0.0140311 0.00288482 0.313784)
(-0.01853 0.0172754 0.29951)
(-0.0460928 -0.00843934 0.270205)
(-0.0179273 0.0215044 0.223695)
(-0.0212976 -0.0083362 0.278956)
(0.0138534 -0.032555 0.410819)
(0.0606014 0.0465454 0.348003)
(-0.0264283 -0.0100989 0.331509)
(0.0199962 -0.0273451 0.542444)
(0.00918772 -0.0796099 0.608557)
(0.0381249 -0.0580257 0.483886)
(0.0203613 0.0531813 0.310323)
(-0.00308457 0.0472771 0.481735)
(-0.0643361 0.0108979 0.522349)
(-0.0378941 -0.00635865 0.570185)
(0.00630126 -0.0783506 0.701608)
(0.0562814 -0.0853631 0.565995)
(-0.00445422 0.0162592 0.360011)
(0.0628229 0.0755295 0.235418)
(0.0739182 0.0732519 0.343842)
(0.0542456 0.0145387 0.431188)
(0.0625331 -0.0259283 0.432915)
(-0.0254888 0.0503922 0.363937)
(-0.00933097 -0.0334116 0.275622)
(-0.0129725 -0.00187211 0.317081)
(-0.028068 0.0194738 0.312077)
(-0.0328968 -0.00394907 0.276705)
(-0.0176164 0.0301566 0.223067)
(-0.0164691 -0.0110259 0.297401)
(-0.0157308 0.0133402 0.393065)
(0.0232222 0.0046519 0.339484)
(-0.0173184 -0.0232472 0.358003)
(0.0239047 -0.0033523 0.49785)
(0.0419111 -0.0669285 0.609051)
(0.0500322 -0.0513042 0.516687)
(0.0239133 0.0445109 0.341428)
(-0.000578232 0.0453133 0.52288)
(-0.0396139 0.00486233 0.54007)
(0.0194729 0.067638 0.528296)
(0.0487721 -0.0418684 0.646491)
(0.0704566 -0.057579 0.56171)
(0.00174495 0.0247773 0.377857)
(0.0604046 0.0688398 0.223717)
(0.0849188 0.0801044 0.368803)
(0.0603571 0.012196 0.432634)
(0.0503341 -0.017628 0.442432)
(-0.0283696 0.0659141 0.363959)
(-0.0160581 -0.0181622 0.297744)
(-0.0152525 0.000680998 0.328576)
(-0.0384388 0.0258319 0.325124)
(-0.0229071 -0.000390695 0.277849)
(-0.0167118 0.0383167 0.211373)
(-0.0177852 -0.00762235 0.305843)
(-0.0382194 0.0235299 0.38202)
(0.01175 -0.028601 0.32386)
(-0.0201232 -0.050613 0.39281)
(0.0207753 -0.00890741 0.423325)
(0.0600331 -0.0569002 0.605275)
(0.0533197 -0.0539493 0.550162)
(0.0226672 0.0419496 0.370429)
(0.00274095 0.0316624 0.538884)
(-0.0310346 -0.0347177 0.536915)
(0.072235 0.10072 0.476303)
(0.0906081 0.00603323 0.617589)
(0.075277 -0.0244923 0.56933)
(0.00478592 0.0313361 0.399047)
(0.0479457 0.0406719 0.243517)
(0.0914935 0.0698792 0.395292)
(0.0663944 0.00683435 0.450773)
(0.037636 -0.000299302 0.466688)
(-0.0290134 0.0708599 0.372127)
(-0.0303652 -0.014529 0.31986)
(-0.0221832 0.00541616 0.346382)
(-0.0498751 0.0333823 0.340327)
(-0.0147199 0.00108278 0.277134)
(-0.0122426 0.0355914 0.198873)
(-0.0208268 -0.00386601 0.314857)
(-0.0640026 0.0285565 0.3685)
(-0.0161598 -0.0423446 0.31188)
(-0.00135229 -0.0806839 0.427193)
(0.0221653 -0.00717399 0.366907)
(0.0617177 -0.0543052 0.594725)
(0.0520473 -0.0501512 0.582214)
(0.0158227 0.0426918 0.393656)
(-0.00668272 -0.0227513 0.534413)
(0.0900918 -0.0242805 0.440047)
(0.0874867 0.103123 0.438369)
(0.103622 0.0370019 0.608526)
(0.0619477 0.00745678 0.580898)
(0.00356437 0.0366497 0.418532)
(0.0137088 -0.00340435 0.287037)
(0.0750881 0.055531 0.418201)
(0.0504127 0.0076198 0.48611)
(0.0288929 0.0219075 0.499885)
(-0.0259304 0.0646761 0.387103)
(-0.0448946 -0.014864 0.336835)
(-0.0321362 0.00940599 0.364512)
(-0.0606127 0.0391088 0.355723)
(-0.00629931 0.0010856 0.268243)
(-0.000547812 0.0159296 0.20221)
(-0.0160183 -0.00362443 0.31632)
(-0.0604989 0.0299298 0.359067)
(-0.0418046 -0.0502954 0.300951)
(0.0128031 -0.0812733 0.461329)
(0.0249124 0.0113587 0.327614)
(0.0536237 -0.0543356 0.591432)
(0.0502733 -0.0170627 0.606535)
(0.0111684 0.0428128 0.408245)
(-0.0132108 -0.0705797 0.505225)
(0.077038 -0.00550113 0.337274)
(0.0690948 0.0829418 0.402697)
(0.087159 0.0501506 0.604038)
(0.0365597 0.0423377 0.587399)
(0.00305701 0.0422345 0.434819)
(-0.0168483 -0.0317779 0.31965)
(0.0344721 0.0468186 0.438547)
(0.0195239 0.0195267 0.515796)
(0.014199 0.0529976 0.529269)
(-0.0191776 0.0507782 0.403633)
(-0.05586 -0.0126383 0.350211)
(-0.0432042 0.014518 0.382538)
(-0.0681633 0.0425198 0.372816)
(-0.00526557 -0.00329754 0.259429)
(0.0167988 -0.0101979 0.220542)
(-0.0139713 -0.00415066 0.314235)
(-0.0508862 -0.00643981 0.36183)
(-0.0412502 -0.052501 0.289866)
(0.0206134 -0.0708702 0.49719)
(0.0354042 0.035035 0.310278)
(0.0395557 -0.0443296 0.585743)
(0.0401647 0.0469943 0.59994)
(0.0109457 0.0355066 0.413348)
(0.0145587 -0.0540667 0.321359)
(0.016778 -0.0291934 0.30448)
(0.0468312 0.0540082 0.368338)
(0.0538803 0.0641517 0.592402)
(0.0128281 0.074973 0.589391)
(0.00678242 0.0451345 0.452994)
(-0.0343461 -0.0508456 0.333367)
(-0.00551857 0.0478915 0.454896)
(-0.00474413 0.0390814 0.533895)
(0.000746343 0.0791432 0.549231)
(-0.0114328 0.0355656 0.420728)
(-0.063316 -0.0119671 0.363438)
(-0.0510532 0.0209474 0.403451)
(-0.0690165 0.041033 0.392072)
(-0.0082326 -0.00773486 0.26761)
(0.0232743 -0.0253147 0.235636)
(-0.0158548 0.00177062 0.320323)
(-0.0605343 -0.0376418 0.383285)
(-0.0229437 -0.0412662 0.281739)
(0.0340152 -0.0399796 0.524739)
(0.0507365 0.0511253 0.310226)
(0.0376705 -0.0155822 0.563849)
(0.0143207 0.079201 0.566442)
(0.0138615 0.0140343 0.405537)
(-0.0113097 -0.0373759 0.249898)
(-0.00678232 -0.0450495 0.280927)
(0.0366075 0.0340768 0.352416)
(0.0375109 0.0732566 0.579238)
(0.000412282 0.0887184 0.59663)
(0.0142534 0.0392484 0.475218)
(-0.0460019 -0.0660864 0.333408)
(-0.0275199 0.0497329 0.463381)
(-0.0144578 0.0564105 0.547444)
(-0.00643882 0.0889547 0.565879)
(-0.000880177 0.0222097 0.441956)
(-0.0670908 -0.0135191 0.378509)
(-0.0545112 0.0265009 0.42916)
(-0.0622672 0.0352546 0.409514)
(-0.0089971 -0.00837861 0.28724)
(0.0113267 -0.0177311 0.245504)
(-0.0134225 0.00634693 0.328925)
(-0.0485101 -0.0245588 0.394564)
(-0.0155164 -0.0264463 0.276075)
(0.0465484 0.0379777 0.543243)
(0.0577736 0.0558701 0.322167)
(0.0361209 0.0209619 0.547912)
(-0.0106553 0.0549082 0.535477)
(0.0170198 -0.0018038 0.395016)
(-0.0174087 -0.0198856 0.266826)
(-0.0151242 -0.0283955 0.262688)
(0.0361692 0.0270845 0.349817)
(0.0344066 0.0743614 0.573744)
(-0.0014446 0.0871791 0.603583)
(0.0161665 0.0277271 0.498424)
(-0.0489531 -0.0793116 0.318189)
(-0.0338627 0.0468512 0.467561)
(-0.0138112 0.0635903 0.562412)
(-0.0102384 0.0852643 0.582061)
(0.0100376 0.00936483 0.468726)
(-0.0716547 -0.0159428 0.393499)
(-0.0570437 0.0273879 0.454581)
(-0.0485794 0.0273417 0.422471)
(-0.00684184 -0.00878048 0.311338)
(-0.00728602 0.00603105 0.254993)
(-0.00402816 0.00167731 0.32363)
(-0.0160166 -0.0154544 0.37212)
(-0.018556 -0.0204367 0.267593)
(0.0942046 0.0934328 0.465201)
(0.0461021 0.0610878 0.340853)
(0.0150413 0.0406765 0.550037)
(-0.0126741 0.010206 0.506408)
(0.0182126 -0.00503813 0.395486)
(-0.0146082 0.00847531 0.309028)
(-0.0103894 -0.0111697 0.282537)
(0.0368152 0.0265673 0.352157)
(0.0350487 0.0728993 0.573993)
(0.00607304 0.0789626 0.609529)
(0.0108675 0.0132945 0.512406)
(-0.0469549 -0.0865849 0.2935)
(-0.0340091 0.0373596 0.471705)
(-0.0116988 0.0561383 0.579758)
(-0.00809356 0.064882 0.599798)
(0.0155209 -0.00520412 0.493044)
(-0.0772102 -0.020866 0.407314)
(-0.0587975 0.0223342 0.471438)
(-0.0353695 0.0213694 0.427286)
(-0.00366297 -0.00689324 0.34854)
(-0.0170824 0.0159598 0.252153)
(-0.00787829 0.0133411 0.295708)
(0.00607623 -0.0327613 0.323955)
(-0.0238582 -0.0160818 0.261178)
(0.045039 0.0289016 0.399082)
(0.0190095 0.0760481 0.356664)
(-0.00979466 0.047133 0.542808)
(0.00690123 -0.00585913 0.477419)
(0.0170554 -0.0150279 0.407662)
(-0.0122546 0.0108555 0.381869)
(-0.00802088 -0.031525 0.314412)
(0.0355401 0.0296034 0.360236)
(0.0360213 0.0717262 0.579049)
(0.00959064 0.0704456 0.616441)
(0.00935125 0.00365661 0.518195)
(-0.0430818 -0.082693 0.277875)
(-0.036934 0.00955531 0.482328)
(-0.0130303 0.0365032 0.596294)
(-0.00288625 0.0346969 0.615701)
(0.0189668 -0.0174813 0.510945)
(-0.0768695 -0.0309725 0.414366)
(-0.0598633 0.0146836 0.474984)
(-0.0288082 0.0181119 0.422364)
(0.00232375 -0.00502343 0.364598)
(-0.0131116 0.0109088 0.251872)
(-0.0168619 0.0417307 0.25557)
(0.0103906 -0.0108432 0.299284)
(-0.0317419 -0.0123929 0.258778)
(-0.0124061 -0.0188945 0.380264)
(-0.00469283 0.0870818 0.36144)
(-0.0173846 0.0445855 0.518575)
(0.016838 0.000456514 0.446603)
(0.0141152 -0.0225272 0.424118)
(-0.0086336 0.0130832 0.463073)
(-0.00546194 -0.0434449 0.342197)
(0.0292838 0.0290318 0.378983)
(0.0319459 0.0694913 0.593284)
(0.000427119 0.0569102 0.6258)
(0.0138193 0.000897316 0.52176)
(-0.0362293 -0.071632 0.27166)
(-0.0437126 -0.0298229 0.494253)