/*--------------------------------*- C++ -*----------------------------------*\
| =========                 |                                                 |
| \\      /  F ield         | OpenFOAM: The Open Source CFD Toolbox           |
|  \\    /   O peration     | Version:  5.x                                   |
|   \\  /    A nd           | Web:      www.OpenFOAM.org                      |
|    \\/     M anipulation  |                                                 |
\*---------------------------------------------------------------------------*/
FoamFile
{
    version     2.0;
    format      ascii;
    class       volVectorField;
    location    "1";
    object      Us;
}
// * * * * * * * * * * * * * * * * * * * * * * * * * * * * * * * * * * * * * //

dimensions      [0 1 -1 0 0 0 0];

internalField   nonuniform List<vector> 
10571
(
(-0.00696353 0.00124431 -0.012139)
(0.00269705 0.00614699 -0.0108747)
(0.0129329 0.0189057 0.00795234)
(-0.014382 0.00997325 0.0073244)
(-0.0141816 0.00758136 -0.00449869)
(0.0110847 0.0222218 -0.0051348)
(-0.0114688 -0.00998161 0.0109614)
(-0.00482164 -0.0209275 9.78772e-05)
(-0.018668 0.00319584 -0.00330067)
(0.00127017 0.00504379 -0.00908436)
(-0.00853803 -0.0022189 0.00565194)
(0.00686227 -0.00290155 0.00326805)
(-0.0218231 0.00260626 -0.0183263)
(0.00377455 -0.00797645 -0.0445798)
(0.0227011 0.000946101 -0.00731653)
(0.00293394 0.00804687 0.000554473)
(0.000940412 -0.00694393 -0.00131125)
(-0.00547819 -0.016523 -0.0196937)
(0.00336188 0.035606 -0.00816117)
(0.000376875 0.00728777 -0.00574519)
(-0.00108117 0.00168098 -0.00364899)
(0.00180051 0.00654833 -0.00219941)
(-0.00257611 0.00608623 0.00157338)
(-0.00704712 0.000932608 -0.0035895)
(0.00544609 -0.00204182 -0.121763)
(0.00170887 -0.000146794 -0.079963)
(-0.0183345 -0.00677322 -0.127033)
(0.0200681 -0.00420394 -0.129599)
(0.00631938 0.0127766 -0.0650188)
(0.0107775 -0.0146229 -0.128935)
(0.029987 0.0209061 -0.13488)
(0.0184873 0.021736 -0.132913)
(0.00695339 0.00406331 -0.120347)
(0.012815 0.00711877 -0.0685352)
(0.0214149 0.00740487 -0.113433)
(0.0212247 0.0120476 -0.142283)
(0.0372759 0.000901139 -0.138755)
(0.0155378 -0.00305626 -0.141535)
(-0.0058252 -0.0123607 -0.128991)
(0.00186659 -0.00336725 -0.0890991)
(0.00763124 0.0314459 -0.0585875)
(0.0151086 -0.0192441 -0.139652)
(0.00607422 -0.0226525 -0.141362)
(0.020223 -0.00855563 -0.117588)
(0.00259853 -0.0123824 -0.0324511)
(0.0117707 0.00407491 -0.0670061)
(0.00989254 0.00654223 -0.0761099)
(-0.0133131 0.00340335 -0.034251)
(0.00319161 -0.000267081 -0.0252699)
(-0.00102787 -0.00402577 -0.0514197)
(-0.0158101 -0.00206334 -0.0290991)
(0.0162748 0.00414522 0.00160495)
(0.0353954 0.0157098 -0.0478914)
(0.0156502 -0.0282269 -0.0415385)
(0.063831 0.0495262 -0.0857684)
(0.0225601 0.0634529 -0.0911516)
(-0.00759561 0.019256 -0.0974017)
(-0.0102763 0.00169363 -0.0603403)
(0.0258979 0.000271447 0.0707433)
(0.0430763 0.00339123 -0.0106939)
(0.0781879 0.00194532 -0.101054)
(0.0174062 -0.000946316 -0.122995)
(-0.0189643 -0.0266168 -0.107564)
(-0.0202721 -0.0145818 -0.0627344)
(0.0190273 0.0363479 -0.0475373)
(0.0331439 -0.0260839 -0.110922)
(-0.00412078 -0.037908 -0.118397)
(-0.010518 -0.0295802 -0.0796682)
(0.00531782 -0.0130143 -0.0471325)
(0.00413327 -0.0101985 -0.0603971)
(0.00542637 -0.0235583 -0.0550126)
(0.00480858 -0.00831955 -0.0547916)
(0 0 0)
(0 0 0)
(-0.0133035 -0.00177628 -0.0330326)
(0.0145433 0.00227724 -0.035571)
(0 0 0)
(0 0 0)
(0.0141683 0.0496563 -0.0250349)
(0.018682 0.0553821 -0.0254652)
(0 0 0)
(0 0 0)
(0.00741563 -0.00234527 0.0160399)
(0.0221574 -0.0091512 -0.0235411)
(0 0 0)
(0 0 0)
(0 0 0)
(0 0 0)
(0 0 0)
(0 0 0)
(0 0 0)
(0 0 0)
(0 0 0)
(0 0 0)
(0 0 0)
(0 0 0)
(0 0 0)
(0 0 0)
(0 0 0)
(0 0 0)
(0 0 0)
(0 0 0)
(0 0 0)
(0 0 0)
(0 0 0)
(0 0 0)
(0 0 0)
(0 0 0)
(0 0 0)
(0 0 0)
(0 0 0)
(0 0 0)
(0 0 0)
(0 0 0)
(0 0 0)
(0 0 0)
(0 0 0)
(0 0 0)
(0 0 0)
(0 0 0)
(0 0 0)
(0 0 0)
(0 0 0)
(0 0 0)
(0 0 0)
(0 0 0)
(0 0 0)
(0 0 0)
(0 0 0)
(0 0 0)
(0 0 0)
(0 0 0)
(0 0 0)
(0 0 0)
(0 0 0)
(0 0 0)
(0 0 0)
(0 0 0)
(0 0 0)
(0 0 0)
(0 0 0)
(0 0 0)
(0 0 0)
(0 0 0)
(0 0 0)
(0 0 0)
(0 0 0)
(0 0 0)
(0 0 0)
(0 0 0)
(0 0 0)
(0 0 0)
(0 0 0)
(0 0 0)
(0 0 0)
(0 0 0)
(0 0 0)
(0 0 0)
(0 0 0)
(0 0 0)
(0 0 0)
(0 0 0)
(0 0 0)
(0 0 0)
(0 0 0)
(0 0 0)
(0 0 0)
(0 0 0)
(0 0 0)
(0 0 0)
(0 0 0)
(0 0 0)
(0 0 0)
(0 0 0)
(0 0 0)
(0 0 0)
(0 0 0)
(0 0 0)
(0 0 0)
(0 0 0)
(0 0 0)
(0 0 0)
(0 0 0)
(0 0 0)
(0 0 0)
(0 0 0)
(0 0 0)
(0 0 0)
(0 0 0)
(0 0 0)
(0 0 0)
(0 0 0)
(0 0 0)
(0 0 0)
(0 0 0)
(0 0 0)
(0 0 0)
(0 0 0)
(0 0 0)
(0 0 0)
(0 0 0)
(0 0 0)
(0 0 0)
(0 0 0)
(0 0 0)
(0 0 0)
(0 0 0)
(0 0 0)
(0 0 0)
(0 0 0)
(0 0 0)
(0 0 0)
(0 0 0)
(0 0 0)
(0 0 0)
(0 0 0)
(0 0 0)
(0 0 0)
(0 0 0)
(0 0 0)
(0 0 0)
(0 0 0)
(0 0 0)
(0 0 0)
(0 0 0)
(0 0 0)
(0 0 0)
(0 0 0)
(0 0 0)
(0 0 0)
(0 0 0)
(0 0 0)
(0 0 0)
(0 0 0)
(0 0 0)
(0 0 0)
(0 0 0)
(0 0 0)
(0 0 0)
(0 0 0)
(0 0 0)
(0 0 0)
(0 0 0)
(0 0 0)
(0 0 0)
(0 0 0)
(0 0 0)
(0 0 0)
(0 0 0)
(0 0 0)
(0 0 0)
(0 0 0)
(0 0 0)
(0 0 0)
(0 0 0)
(0 0 0)
(0 0 0)
(0 0 0)
(0 0 0)
(0 0 0)
(0 0 0)
(0 0 0)
(0 0 0)
(0 0 0)
(0 0 0)
(0 0 0)
(0 0 0)
(0 0 0)
(0 0 0)
(0 0 0)
(0 0 0)
(0 0 0)
(0 0 0)
(0 0 0)
(0 0 0)
(0 0 0)
(0 0 0)
(0 0 0)
(0 0 0)
(0 0 0)
(0 0 0)
(0 0 0)
(0 0 0)
(0 0 0)
(0 0 0)
(0 0 0)
(0 0 0)
(0 0 0)
(0 0 0)
(0 0 0)
(0 0 0)
(0 0 0)
(0 0 0)
(0 0 0)
(0 0 0)
(0 0 0)
(0 0 0)
(0 0 0)
(0 0 0)
(0 0 0)
(0 0 0)
(0 0 0)
(0 0 0)
(0 0 0)
(0 0 0)
(0 0 0)
(0 0 0)
(0 0 0)
(0 0 0)
(0 0 0)
(0 0 0)
(0 0 0)
(0 0 0)
(0 0 0)
(0 0 0)
(0 0 0)
(0 0 0)
(0 0 0)
(0 0 0)
(0 0 0)
(0 0 0)
(0 0 0)
(0 0 0)
(0 0 0)
(0 0 0)
(0 0 0)
(0 0 0)
(0 0 0)
(0 0 0)
(0 0 0)
(0 0 0)
(0 0 0)
(0 0 0)
(0 0 0)
(0 0 0)
(0 0 0)
(0 0 0)
(0 0 0)
(0 0 0)
(0 0 0)
(0 0 0)
(0 0 0)
(0 0 0)
(0 0 0)
(0 0 0)
(0 0 0)
(0 0 0)
(0 0 0)
(0 0 0)
(0 0 0)
(0 0 0)
(0 0 0)
(0 0 0)
(0 0 0)
(0 0 0)
(0 0 0)
(0 0 0)
(0 0 0)
(0 0 0)
(0 0 0)
(0 0 0)
(0 0 0)
(0 0 0)
(0 0 0)
(0 0 0)
(0 0 0)
(0 0 0)
(0 0 0)
(0 0 0)
(0 0 0)
(0 0 0)
(0 0 0)
(0 0 0)
(0 0 0)
(0 0 0)
(0 0 0)
(0 0 0)
(0 0 0)
(0 0 0)
(0 0 0)
(0 0 0)
(0 0 0)
(0 0 0)
(0 0 0)
(0 0 0)
(0 0 0)
(0 0 0)
(0 0 0)
(0 0 0)
(0 0 0)
(0 0 0)
(0 0 0)
(0 0 0)
(0 0 0)
(0 0 0)
(0 0 0)
(0 0 0)
(0 0 0)
(0 0 0)
(0 0 0)
(0 0 0)
(0 0 0)
(0 0 0)
(0 0 0)
(0 0 0)
(0 0 0)
(0 0 0)
(0 0 0)
(0 0 0)
(0 0 0)
(0 0 0)
(0 0 0)
(0 0 0)
(0 0 0)
(0 0 0)
(0 0 0)
(0 0 0)
(0 0 0)
(0 0 0)
(0 0 0)
(0 0 0)
(0 0 0)
(0 0 0)
(0 0 0)
(0 0 0)
(0 0 0)
(0 0 0)
(0 0 0)
(0 0 0)
(0 0 0)
(0 0 0)
(0 0 0)
(0 0 0)
(0 0 0)
(0 0 0)
(0 0 0)
(0 0 0)
(0 0 0)
(0 0 0)
(0 0 0)
(0 0 0)
(0 0 0)
(0 0 0)
(0 0 0)
(0 0 0)
(0 0 0)
(0 0 0)
(0 0 0)
(0 0 0)
(0 0 0)
(0 0 0)
(0 0 0)
(0 0 0)
(0 0 0)
(0 0 0)
(0 0 0)
(0 0 0)
(0 0 0)
(0 0 0)
(0 0 0)
(0 0 0)
(0 0 0)
(0 0 0)
(0 0 0)
(0 0 0)
(0 0 0)
(0 0 0)
(0 0 0)
(0 0 0)
(0 0 0)
(0 0 0)
(0 0 0)
(0 0 0)
(0 0 0)
(0 0 0)
(0 0 0)
(0 0 0)
(0 0 0)
(0 0 0)
(0 0 0)
(0 0 0)
(0 0 0)
(0 0 0)
(0 0 0)
(0 0 0)
(0 0 0)
(0 0 0)
(0 0 0)
(0 0 0)
(0 0 0)
(0 0 0)
(0 0 0)
(0 0 0)
(0 0 0)
(0 0 0)
(0 0 0)
(0 0 0)
(0 0 0)
(0 0 0)
(0 0 0)
(0 0 0)
(0 0 0)
(0 0 0)
(0 0 0)
(0 0 0)
(0 0 0)
(0 0 0)
(0 0 0)
(0 0 0)
(0 0 0)
(0 0 0)
(0 0 0)
(0 0 0)
(0 0 0)
(0 0 0)
(0 0 0)
(0 0 0)
(0 0 0)
(0 0 0)
(0 0 0)
(0 0 0)
(0 0 0)
(0 0 0)
(0 0 0)
(0 0 0)
(0 0 0)
(0 0 0)
(0 0 0)
(0 0 0)
(0 0 0)
(0 0 0)
(0 0 0)
(0 0 0)
(0 0 0)
(0 0 0)
(0 0 0)
(0 0 0)
(0 0 0)
(0 0 0)
(0 0 0)
(0 0 0)
(0 0 0)
(0 0 0)
(0 0 0)
(0 0 0)
(0 0 0)
(0 0 0)
(0 0 0)
(0 0 0)
(0 0 0)
(0 0 0)
(0 0 0)
(0 0 0)
(0 0 0)
(0 0 0)
(0 0 0)
(0 0 0)
(0 0 0)
(0 0 0)
(0 0 0)
(0 0 0)
(0 0 0)
(0 0 0)
(0 0 0)
(0 0 0)
(0 0 0)
(0 0 0)
(0 0 0)
(0 0 0)
(0 0 0)
(0 0 0)
(0 0 0)
(0 0 0)
(0 0 0)
(0 0 0)
(0 0 0)
(0 0 0)
(0 0 0)
(0 0 0)
(0 0 0)
(0 0 0)
(0 0 0)
(0 0 0)
(0 0 0)
(0 0 0)
(0 0 0)
(0 0 0)
(0 0 0)
(0 0 0)
(0 0 0)
(0 0 0)
(0 0 0)
(0 0 0)
(0 0 0)
(0 0 0)
(0 0 0)
(0 0 0)
(0 0 0)
(0 0 0)
(0 0 0)
(0 0 0)
(0 0 0)
(0 0 0)
(0 0 0)
(0 0 0)
(0 0 0)
(0 0 0)
(0 0 0)
(0 0 0)
(0 0 0)
(0 0 0)
(0 0 0)
(0 0 0)
(0 0 0)
(0 0 0)
(0 0 0)
(0 0 0)
(0 0 0)
(0 0 0)
(0 0 0)
(0 0 0)
(0 0 0)
(0 0 0)
(0 0 0)
(0 0 0)
(0 0 0)
(0 0 0)
(0 0 0)
(0 0 0)
(0 0 0)
(0 0 0)
(0 0 0)
(0 0 0)
(0 0 0)
(0 0 0)
(0 0 0)
(0 0 0)
(0 0 0)
(0 0 0)
(0 0 0)
(0 0 0)
(0 0 0)
(0 0 0)
(0 0 0)
(0 0 0)
(0 0 0)
(0 0 0)
(0 0 0)
(0 0 0)
(0 0 0)
(0 0 0)
(0 0 0)
(0 0 0)
(0 0 0)
(0 0 0)
(0 0 0)
(0 0 0)
(0 0 0)
(0 0 0)
(0 0 0)
(0 0 0)
(0 0 0)
(0 0 0)
(0 0 0)
(0 0 0)
(0 0 0)
(0 0 0)
(0 0 0)
(0 0 0)
(0 0 0)
(0 0 0)
(0 0 0)
(0 0 0)
(0 0 0)
(0 0 0)
(0 0 0)
(0 0 0)
(0 0 0)
(0 0 0)
(0 0 0)
(0 0 0)
(0 0 0)
(0 0 0)
(0 0 0)
(0 0 0)
(0 0 0)
(0 0 0)
(0 0 0)
(0 0 0)
(0 0 0)
(0 0 0)
(0 0 0)
(0 0 0)
(0 0 0)
(0 0 0)
(0 0 0)
(0 0 0)
(0 0 0)
(0 0 0)
(0 0 0)
(0 0 0)
(0 0 0)
(0 0 0)
(0 0 0)
(0 0 0)
(0 0 0)
(0 0 0)
(0 0 0)
(0 0 0)
(0 0 0)
(0 0 0)
(0 0 0)
(0 0 0)
(0 0 0)
(0 0 0)
(0 0 0)
(0 0 0)
(0 0 0)
(0 0 0)
(0 0 0)
(0 0 0)
(0 0 0)
(0 0 0)
(0 0 0)
(0 0 0)
(0 0 0)
(0 0 0)
(0 0 0)
(0 0 0)
(0 0 0)
(0 0 0)
(0 0 0)
(0 0 0)
(0 0 0)
(0 0 0)
(0 0 0)
(0 0 0)
(0 0 0)
(0 0 0)
(0 0 0)
(0 0 0)
(0 0 0)
(0 0 0)
(0 0 0)
(0 0 0)
(0 0 0)
(0 0 0)
(0 0 0)
(0 0 0)
(0 0 0)
(0 0 0)
(0 0 0)
(0 0 0)
(0 0 0)
(0 0 0)
(0 0 0)
(0 0 0)
(0 0 0)
(0 0 0)
(0 0 0)
(0 0 0)
(0 0 0)
(0 0 0)
(0 0 0)
(0 0 0)
(0 0 0)
(0 0 0)
(0 0 0)
(0 0 0)
(0 0 0)
(0 0 0)
(0 0 0)
(0 0 0)
(0 0 0)
(0 0 0)
(0 0 0)
(0 0 0)
(0 0 0)
(0 0 0)
(0 0 0)
(0 0 0)
(0 0 0)
(0 0 0)
(0 0 0)
(0 0 0)
(0 0 0)
(0 0 0)
(0 0 0)
(0 0 0)
(0 0 0)
(0 0 0)
(0 0 0)
(0 0 0)
(0 0 0)
(0 0 0)
(0 0 0)
(0 0 0)
(0 0 0)
(0 0 0)
(0 0 0)
(0 0 0)
(0 0 0)
(0 0 0)
(0 0 0)
(0 0 0)
(0 0 0)
(0 0 0)
(0 0 0)
(0 0 0)
(0 0 0)
(0 0 0)
(0 0 0)
(0 0 0)
(0 0 0)
(0 0 0)
(0 0 0)
(0 0 0)
(0 0 0)
(0 0 0)
(0 0 0)
(0 0 0)
(0 0 0)
(0 0 0)
(0 0 0)
(0 0 0)
(0 0 0)
(0 0 0)
(0 0 0)
(0 0 0)
(0 0 0)
(0 0 0)
(0 0 0)
(0 0 0)
(0 0 0)
(0 0 0)
(0 0 0)
(0 0 0)
(0 0 0)
(0 0 0)
(0 0 0)
(0 0 0)
(0 0 0)
(0 0 0)
(0 0 0)
(0 0 0)
(0 0 0)
(0 0 0)
(0 0 0)
(0 0 0)
(0 0 0)
(0 0 0)
(0 0 0)
(0 0 0)
(0 0 0)
(0 0 0)
(0 0 0)
(0 0 0)
(0 0 0)
(0 0 0)
(0 0 0)
(0 0 0)
(0 0 0)
(0 0 0)
(0 0 0)
(0 0 0)
(0 0 0)
(0 0 0)
(0 0 0)
(0 0 0)
(0 0 0)
(0 0 0)
(0 0 0)
(0 0 0)
(0 0 0)
(0 0 0)
(0 0 0)
(0 0 0)
(0 0 0)
(0 0 0)
(0 0 0)
(0 0 0)
(0 0 0)
(0 0 0)
(0 0 0)
(0 0 0)
(0 0 0)
(0 0 0)
(0 0 0)
(0 0 0)
(0 0 0)
(0 0 0)
(0 0 0)
(0 0 0)
(0 0 0)
(0 0 0)
(0 0 0)
(0 0 0)
(0 0 0)
(0 0 0)
(0 0 0)
(0 0 0)
(0 0 0)
(0 0 0)
(0 0 0)
(0 0 0)
(0 0 0)
(0 0 0)
(0 0 0)
(0 0 0)
(0 0 0)
(0 0 0)
(0 0 0)
(0 0 0)
(0 0 0)
(0 0 0)
(0 0 0)
(0 0 0)
(0 0 0)
(0 0 0)
(0 0 0)
(0 0 0)
(0 0 0)
(0 0 0)
(0 0 0)
(0 0 0)
(0 0 0)
(0 0 0)
(0 0 0)
(0 0 0)
(0 0 0)
(0 0 0)
(0 0 0)
(0 0 0)
(0 0 0)
(0 0 0)
(0 0 0)
(0 0 0)
(0 0 0)
(0 0 0)
(0 0 0)
(0 0 0)
(0 0 0)
(0 0 0)
(0 0 0)
(0 0 0)
(0 0 0)
(0 0 0)
(0 0 0)
(0 0 0)
(0 0 0)
(0 0 0)
(0 0 0)
(0 0 0)
(0 0 0)
(0 0 0)
(0 0 0)
(0 0 0)
(0 0 0)
(0 0 0)
(0 0 0)
(0 0 0)
(0 0 0)
(0 0 0)
(0 0 0)
(0 0 0)
(0 0 0)
(0 0 0)
(0 0 0)
(0 0 0)
(0 0 0)
(0 0 0)
(0 0 0)
(0 0 0)
(0 0 0)
(0 0 0)
(0 0 0)
(0 0 0)
(0 0 0)
(0 0 0)
(0 0 0)
(0 0 0)
(0 0 0)
(0 0 0)
(0 0 0)
(0 0 0)
(0 0 0)
(0 0 0)
(0 0 0)
(0 0 0)
(0 0 0)
(0 0 0)
(0 0 0)
(0 0 0)
(0 0 0)
(0 0 0)
(0 0 0)
(0 0 0)
(0 0 0)
(0 0 0)
(0 0 0)
(0 0 0)
(0 0 0)
(0 0 0)
(0 0 0)
(0 0 0)
(0 0 0)
(0 0 0)
(0 0 0)
(0 0 0)
(0 0 0)
(0 0 0)
(0 0 0)
(0 0 0)
(0 0 0)
(0 0 0)
(0 0 0)
(0 0 0)
(0 0 0)
(0 0 0)
(0 0 0)
(0 0 0)
(0 0 0)
(0 0 0)
(0 0 0)
(0 0 0)
(0 0 0)
(0 0 0)
(0 0 0)
(0 0 0)
(0 0 0)
(0 0 0)
(0 0 0)
(0 0 0)
(0 0 0)
(0 0 0)
(0 0 0)
(0 0 0)
(0 0 0)
(0 0 0)
(0 0 0)
(0 0 0)
(0 0 0)
(0 0 0)
(0 0 0)
(0 0 0)
(0 0 0)
(0 0 0)
(0 0 0)
(0 0 0)
(0 0 0)
(0 0 0)
(0 0 0)
(0 0 0)
(0 0 0)
(0 0 0)
(0 0 0)
(0 0 0)
(0 0 0)
(0 0 0)
(0 0 0)
(0 0 0)
(0 0 0)
(0 0 0)
(0 0 0)
(0 0 0)
(0 0 0)
(0 0 0)
(0 0 0)
(0 0 0)
(0 0 0)
(0 0 0)
(0 0 0)
(0 0 0)
(0 0 0)
(0 0 0)
(0 0 0)
(0 0 0)
(0 0 0)
(0 0 0)
(0 0 0)
(0 0 0)
(0 0 0)
(0 0 0)
(0 0 0)
(0 0 0)
(0 0 0)
(0 0 0)
(0 0 0)
(0 0 0)
(0 0 0)
(0 0 0)
(0 0 0)
(0 0 0)
(0 0 0)
(0 0 0)
(0 0 0)
(0 0 0)
(0 0 0)
(0 0 0)
(0 0 0)
(0 0 0)
(0 0 0)
(0 0 0)
(0 0 0)
(0 0 0)
(0 0 0)
(0 0 0)
(0 0 0)
(0 0 0)
(0 0 0)
(0 0 0)
(0 0 0)
(0 0 0)
(0 0 0)
(0 0 0)
(0 0 0)
(0 0 0)
(0 0 0)
(0 0 0)
(0 0 0)
(0 0 0)
(0 0 0)
(0 0 0)
(0 0 0)
(0 0 0)
(0 0 0)
(0 0 0)
(0 0 0)
(0 0 0)
(0 0 0)
(0 0 0)
(0 0 0)
(0 0 0)
(0 0 0)
(0 0 0)
(0 0 0)
(0 0 0)
(0 0 0)
(0 0 0)
(0 0 0)
(0 0 0)
(0 0 0)
(0 0 0)
(0 0 0)
(0 0 0)
(0 0 0)
(0 0 0)
(0 0 0)
(0 0 0)
(0 0 0)
(0 0 0)
(0 0 0)
(0 0 0)
(0 0 0)
(0 0 0)
(0 0 0)
(0 0 0)
(0 0 0)
(0 0 0)
(0 0 0)
(0 0 0)
(0 0 0)
(0 0 0)
(0 0 0)
(0 0 0)
(0 0 0)
(0 0 0)
(0 0 0)
(0 0 0)
(0 0 0)
(0 0 0)
(0 0 0)
(0 0 0)
(0 0 0)
(0 0 0)
(0 0 0)
(0 0 0)
(0 0 0)
(0 0 0)
(0 0 0)
(0 0 0)
(0 0 0)
(0 0 0)
(0 0 0)
(0 0 0)
(0 0 0)
(0 0 0)
(0 0 0)
(0 0 0)
(0 0 0)
(0 0 0)
(0 0 0)
(0 0 0)
(0 0 0)
(0 0 0)
(0 0 0)
(0 0 0)
(0 0 0)
(0 0 0)
(0 0 0)
(0 0 0)
(0 0 0)
(0 0 0)
(0 0 0)
(0 0 0)
(0 0 0)
(0 0 0)
(0 0 0)
(0 0 0)
(0 0 0)
(0 0 0)
(0 0 0)
(0 0 0)
(0 0 0)
(0 0 0)
(0 0 0)
(0 0 0)
(0 0 0)
(0 0 0)
(0 0 0)
(0 0 0)
(0 0 0)
(0 0 0)
(0 0 0)
(0 0 0)
(0 0 0)
(0 0 0)
(0 0 0)
(0 0 0)
(0 0 0)
(0 0 0)
(0 0 0)
(0 0 0)
(0 0 0)
(0 0 0)
(0 0 0)
(0 0 0)
(0 0 0)
(0 0 0)
(0 0 0)
(0 0 0)
(0 0 0)
(0 0 0)
(0 0 0)
(0 0 0)
(0 0 0)
(0 0 0)
(0 0 0)
(0 0 0)
(0 0 0)
(0 0 0)
(0 0 0)
(0 0 0)
(0 0 0)
(0 0 0)
(0 0 0)
(0 0 0)
(0 0 0)
(0 0 0)
(0 0 0)
(0 0 0)
(0 0 0)
(0 0 0)
(0 0 0)
(0 0 0)
(0 0 0)
(0 0 0)
(0 0 0)
(0 0 0)
(0 0 0)
(0 0 0)
(0 0 0)
(0 0 0)
(0 0 0)
(0 0 0)
(0 0 0)
(0 0 0)
(0 0 0)
(0 0 0)
(0 0 0)
(0 0 0)
(0 0 0)
(0 0 0)
(0 0 0)
(0 0 0)
(0 0 0)
(0 0 0)
(0 0 0)
(0 0 0)
(0 0 0)
(0 0 0)
(0 0 0)
(0 0 0)
(0 0 0)
(0 0 0)
(0 0 0)
(0 0 0)
(0 0 0)
(0 0 0)
(0 0 0)
(0 0 0)
(0 0 0)
(0 0 0)
(0 0 0)
(0 0 0)
(0 0 0)
(0 0 0)
(0 0 0)
(0 0 0)
(0 0 0)
(0 0 0)
(0 0 0)
(0 0 0)
(0 0 0)
(0 0 0)
(0 0 0)
(0 0 0)
(0 0 0)
(0 0 0)
(0 0 0)
(0 0 0)
(0 0 0)
(0 0 0)
(0 0 0)
(0 0 0)
(0 0 0)
(0 0 0)
(0 0 0)
(0 0 0)
(0 0 0)
(0 0 0)
(0 0 0)
(0 0 0)
(0 0 0)
(0 0 0)
(0 0 0)
(0 0 0)
(0 0 0)
(0 0 0)
(0 0 0)
(0 0 0)
(0 0 0)
(0 0 0)
(0 0 0)
(0 0 0)
(0 0 0)
(0 0 0)
(0 0 0)
(0 0 0)
(0 0 0)
(0 0 0)
(0 0 0)
(0 0 0)
(0 0 0)
(0 0 0)
(0 0 0)
(0 0 0)
(0 0 0)
(0 0 0)
(0 0 0)
(0 0 0)
(0 0 0)
(0 0 0)
(0 0 0)
(0 0 0)
(0 0 0)
(0 0 0)
(0 0 0)
(0 0 0)
(0 0 0)
(0 0 0)
(0 0 0)
(0 0 0)
(0 0 0)
(0 0 0)
(0 0 0)
(0 0 0)
(0 0 0)
(0 0 0)
(0 0 0)
(0 0 0)
(0 0 0)
(0 0 0)
(0 0 0)
(0 0 0)
(0 0 0)
(0 0 0)
(0 0 0)
(0 0 0)
(0 0 0)
(0 0 0)
(0 0 0)
(0 0 0)
(0 0 0)
(0 0 0)
(0 0 0)
(0 0 0)
(0 0 0)
(0 0 0)
(0 0 0)
(0 0 0)
(0 0 0)
(0 0 0)
(0 0 0)
(0 0 0)
(0 0 0)
(0 0 0)
(0 0 0)
(0 0 0)
(0 0 0)
(0 0 0)
(0 0 0)
(0 0 0)
(0 0 0)
(0 0 0)
(0 0 0)
(0 0 0)
(0 0 0)
(0 0 0)
(0 0 0)
(0 0 0)
(0 0 0)
(0 0 0)
(0 0 0)
(0 0 0)
(0 0 0)
(0 0 0)
(0 0 0)
(0 0 0)
(0 0 0)
(0 0 0)
(0 0 0)
(0 0 0)
(0 0 0)
(0 0 0)
(0 0 0)
(0 0 0)
(0 0 0)
(0 0 0)
(0 0 0)
(0 0 0)
(0 0 0)
(0 0 0)
(0 0 0)
(0 0 0)
(0 0 0)
(0 0 0)
(0 0 0)
(0 0 0)
(0 0 0)
(0 0 0)
(0 0 0)
(0 0 0)
(0 0 0)
(0 0 0)
(0 0 0)
(0 0 0)
(0 0 0)
(0 0 0)
(0 0 0)
(0 0 0)
(0 0 0)
(0 0 0)
(0 0 0)
(0 0 0)
(0 0 0)
(0 0 0)
(0 0 0)
(0 0 0)
(0 0 0)
(0 0 0)
(0 0 0)
(0 0 0)
(0 0 0)
(0 0 0)
(0 0 0)
(0 0 0)
(0 0 0)
(0 0 0)
(0 0 0)
(0 0 0)
(0 0 0)
(0 0 0)
(0 0 0)
(0 0 0)
(0 0 0)
(0 0 0)
(0 0 0)
(0 0 0)
(0 0 0)
(0 0 0)
(0 0 0)
(0 0 0)
(0 0 0)
(0 0 0)
(0 0 0)
(0 0 0)
(0 0 0)
(0 0 0)
(0 0 0)
(0 0 0)
(0 0 0)
(0 0 0)
(0 0 0)
(0 0 0)
(0 0 0)
(0 0 0)
(0 0 0)
(0 0 0)
(0 0 0)
(0 0 0)
(0 0 0)
(0 0 0)
(0 0 0)
(0 0 0)
(0 0 0)
(0 0 0)
(0 0 0)
(0 0 0)
(0 0 0)
(0 0 0)
(0 0 0)
(0 0 0)
(0 0 0)
(0 0 0)
(0 0 0)
(0 0 0)
(0 0 0)
(0 0 0)
(0 0 0)
(0 0 0)
(0 0 0)
(0 0 0)
(0 0 0)
(0 0 0)
(0 0 0)
(0 0 0)
(0 0 0)
(0 0 0)
(0 0 0)
(0 0 0)
(0 0 0)
(0 0 0)
(0 0 0)
(0 0 0)
(0 0 0)
(0 0 0)
(0 0 0)
(0 0 0)
(0 0 0)
(0 0 0)
(0 0 0)
(0 0 0)
(0 0 0)
(0 0 0)
(0 0 0)
(0 0 0)
(0 0 0)
(0 0 0)
(0 0 0)
(0 0 0)
(0 0 0)
(0 0 0)
(0 0 0)
(0 0 0)
(0 0 0)
(0 0 0)
(0 0 0)
(0 0 0)
(0 0 0)
(0 0 0)
(0 0 0)
(0 0 0)
(0 0 0)
(0 0 0)
(0 0 0)
(0 0 0)
(0 0 0)
(0 0 0)
(0 0 0)
(0 0 0)
(0 0 0)
(0 0 0)
(0 0 0)
(0 0 0)
(0 0 0)
(0 0 0)
(0 0 0)
(0 0 0)
(0 0 0)
(0 0 0)
(0 0 0)
(0 0 0)
(0 0 0)
(0 0 0)
(0 0 0)
(0 0 0)
(0 0 0)
(0 0 0)
(0 0 0)
(0 0 0)
(0 0 0)
(0 0 0)
(0 0 0)
(0 0 0)
(0 0 0)
(0 0 0)
(0 0 0)
(0 0 0)
(0 0 0)
(0 0 0)
(0 0 0)
(0 0 0)
(0 0 0)
(0 0 0)
(0 0 0)
(0 0 0)
(0 0 0)
(0 0 0)
(0 0 0)
(0 0 0)
(0 0 0)
(0 0 0)
(0 0 0)
(0 0 0)
(0 0 0)
(0 0 0)
(0 0 0)
(0 0 0)
(0 0 0)
(0 0 0)
(0 0 0)
(0 0 0)
(0 0 0)
(0 0 0)
(0 0 0)
(0 0 0)
(0 0 0)
(0 0 0)
(0 0 0)
(0 0 0)
(0 0 0)
(0 0 0)
(0 0 0)
(0 0 0)
(0 0 0)
(0 0 0)
(0 0 0)
(0 0 0)
(0 0 0)
(0 0 0)
(0 0 0)
(0 0 0)
(0 0 0)
(0 0 0)
(0 0 0)
(0 0 0)
(0 0 0)
(0 0 0)
(0 0 0)
(0 0 0)
(0 0 0)
(0 0 0)
(0 0 0)
(0 0 0)
(0 0 0)
(0 0 0)
(0 0 0)
(0 0 0)
(0 0 0)
(0 0 0)
(0 0 0)
(0 0 0)
(0 0 0)
(0 0 0)
(0 0 0)
(0 0 0)
(0 0 0)
(0 0 0)
(0 0 0)
(0 0 0)
(0 0 0)
(0 0 0)
(0 0 0)
(0 0 0)
(0 0 0)
(0 0 0)
(0 0 0)
(0 0 0)
(0 0 0)
(0 0 0)
(0 0 0)
(0 0 0)
(0 0 0)
(0 0 0)
(0 0 0)
(0 0 0)
(0 0 0)
(0 0 0)
(0 0 0)
(0 0 0)
(0 0 0)
(0 0 0)
(0 0 0)
(0 0 0)
(0 0 0)
(0 0 0)
(0 0 0)
(0 0 0)
(0 0 0)
(0 0 0)
(0 0 0)
(0 0 0)
(0 0 0)
(0 0 0)
(0 0 0)
(0 0 0)
(0 0 0)
(0 0 0)
(0 0 0)
(0 0 0)
(0 0 0)
(0 0 0)
(0 0 0)
(0 0 0)
(0 0 0)
(0 0 0)
(0 0 0)
(0 0 0)
(0 0 0)
(0 0 0)
(0 0 0)
(0 0 0)
(0 0 0)
(0 0 0)
(0 0 0)
(0 0 0)
(0 0 0)
(0 0 0)
(0 0 0)
(0 0 0)
(0 0 0)
(0 0 0)
(0 0 0)
(0 0 0)
(0 0 0)
(0 0 0)
(0 0 0)
(0 0 0)
(0 0 0)
(0 0 0)
(0 0 0)
(0 0 0)
(0 0 0)
(0 0 0)
(0 0 0)
(0 0 0)
(0 0 0)
(0 0 0)
(0 0 0)
(0 0 0)
(0 0 0)
(0 0 0)
(0 0 0)
(0 0 0)
(0 0 0)
(0 0 0)
(0 0 0)
(0 0 0)
(0 0 0)
(0 0 0)
(0 0 0)
(0 0 0)
(0 0 0)
(0 0 0)
(0 0 0)
(0 0 0)
(0 0 0)
(0 0 0)
(0 0 0)
(0 0 0)
(0 0 0)
(0 0 0)
(0 0 0)
(0 0 0)
(0 0 0)
(0 0 0)
(0 0 0)
(0 0 0)
(0 0 0)
(0 0 0)
(0 0 0)
(0 0 0)
(0 0 0)
(0 0 0)
(0 0 0)
(0 0 0)
(0 0 0)
(0 0 0)
(0 0 0)
(0 0 0)
(0 0 0)
(0 0 0)
(0 0 0)
(0 0 0)
(0 0 0)
(0 0 0)
(0 0 0)
(0 0 0)
(0 0 0)
(0 0 0)
(0 0 0)
(0 0 0)
(0 0 0)
(0 0 0)
(0 0 0)
(0 0 0)
(0 0 0)
(0 0 0)
(0.00238138 0.00219687 -0.00175634)
(-0.00307392 7.84976e-05 -0.00187397)
(0.00291343 0.0031524 -0.00134208)
(-0.00281198 0.00377394 -0.00118009)
(-0.00365836 -6.82459e-05 -0.00154923)
(-0.00662139 0.00368363 -0.00130202)
(-0.00671181 0.00309419 -0.00215311)
(-0.00330137 0.00152206 -0.000814722)
(9.89369e-05 0.00444802 -0.00125622)
(0.00231896 0.00261324 -0.00161024)
(0.0067544 0.00764292 -0.000959344)
(0.00358906 0.00878699 -0.00184966)
(0.00481781 0.0119572 0.000816768)
(0.00234565 0.00876001 0.000909262)
(-0.00405908 0.00443432 0.00172663)
(-0.00414503 0.00237087 0.00554605)
(-0.00962827 -0.00285579 0.00548968)
(-0.00933339 0.00385468 0.00230738)
(-0.0120365 0.00630169 0.00120841)
(-0.0096865 -0.00364856 0.00550214)
(-0.0104603 -0.00139534 0.00529641)
(-0.0073717 0.00171511 -0.000332401)
(-0.00160115 -0.00114947 -0.000285269)
(-0.0119916 -0.00115015 -2.99898e-05)
(-0.004271 -0.00310718 -0.00166781)
(-0.00123025 -0.00147393 -0.0015829)
(-0.00135731 0.00522778 -0.00103108)
(-0.000703623 0.00108991 -0.000331049)
(0.000964029 0.00206429 -0.00183287)
(0.00341436 0.0133564 -0.00212915)
(-0.00397839 0.00660517 0.00402249)
(-0.000350389 0.00570068 -0.000779581)
(-0.0104519 0.00184881 0.00399703)
(-0.0102505 -0.00381864 0.00292389)
(-0.00865183 -0.00411578 -0.00038735)
(-0.011157 -0.00417168 -0.000512767)
(-0.00960392 -0.00747514 0.000374528)
(-0.00667448 -0.00804515 0.000552977)
(-0.0073357 -0.00492575 0.00152966)
(-0.00548164 -0.0126582 -0.000244139)
(-4.21251e-05 -0.00756115 -0.000385451)
(-0.00924335 0.000332251 0.00043997)
(-0.00517715 0.00366893 -0.00136501)
(-0.000638621 -0.00157939 -0.000480325)
(-0.00169983 0.00613836 0.000602794)
(-0.00111672 0.00334991 -0.00151211)
(0.000873075 0.00756508 -0.00132922)
(0.00372002 0.00429367 0.00154183)
(-0.000217974 0.000512444 0.000371852)
(0.00166016 -0.000583554 -9.91607e-05)
(0.00106698 -0.00019459 -6.11811e-05)
(0.000860876 -0.00255764 0.000460817)
(-0.0122306 -0.000619811 0.00551782)
(0.00153996 -0.00586674 0.00128892)
(-0.0101102 -0.00688549 0.00464655)
(-0.015543 -0.00305942 -0.00146752)
(-0.0158976 -0.00558203 -0.00163777)
(-0.0129656 -0.00408081 -0.000431101)
(-0.0144275 0.00364725 -0.00085445)
(-0.00553766 -0.00555548 -0.00692112)
(0.00642445 -0.00314011 -0.00402698)
(-0.00457382 0.0104082 -0.00439204)
(0.00390634 0.00903821 -0.0041764)
(0.0056998 -0.00197168 1.48852e-06)
(0.00474178 0.00373013 0.00246705)
(0.00819814 0.00138996 -0.00130051)
(0.00516024 0.00442594 0.000571527)
(0.00165736 0.00599744 0.000647797)
(0.00218854 0.00370395 0.000824728)
(0.0010457 0.00224523 0.000540012)
(0.000194879 0.000391185 0.000338496)
(-8.2539e-05 -0.00425918 9.04157e-05)
(-0.00922374 -0.00987422 0.00173476)
(-0.00237068 -0.000874839 0.000312889)
(-0.00742673 -0.00301797 -0.000855355)
(-0.00642694 -0.0050963 -0.001516)
(-0.00304738 0.00351142 0.00137555)
(0.000339245 0.000461952 -0.00309112)
(0.00432685 0.00126539 0.000397925)
(-0.00256373 0.0127553 0.000742995)
(-0.00105671 0.0129982 0.00127282)
(0.000601002 0.0047446 0.00280039)
(-0.00267266 0.00524368 0.00253621)
(0.000698921 0.00873223 -0.000804863)
(0.00185367 0.00567941 0.000538224)
(0.000490665 0.00378309 -5.60555e-05)
(0.000411357 0.00142272 0.000482125)
(0.00083953 0.0015969 -0.000209508)
(-0.00263646 0.000431778 0.000112967)
(-0.00032244 0.00310095 -0.00018486)
(0.00157118 0.00497965 -1.96559e-05)
(0.000737913 0.00315969 0.00197533)
(-0.000310473 0.00419928 0.000516716)
(-0.00245968 0.00196558 0.000111512)
(-0.000200994 0.0027177 0.00203097)
(-0.00102129 0.000787789 -0.000351014)
(0.00438442 0.00344529 -0.0145537)
(0.00352031 -0.00165597 -0.0397486)
(-0.00753345 0.00151067 -0.0168319)
(0.00806537 0.00955954 -0.00660806)
(-0.00671474 0.0125321 -0.00267617)
(-0.00235733 -0.00318959 -0.0704394)
(0.0106258 0.00197617 -0.101513)
(-0.00501777 0.0088612 -0.0855916)
(-0.0126319 0.00877427 -0.00733903)
(-0.010639 0.00702964 -0.0110467)
(-0.00763856 -0.00917086 -0.0720826)
(-0.00461871 0.00794641 -0.0545788)
(-0.00763433 0.00513721 -0.0467706)
(-0.00381717 0.00329297 -0.00960785)
(0.000654339 0.00104119 -0.0222888)
(-0.00238996 0.00796457 -0.0103812)
(-0.0102549 0.0155562 -0.0310794)
(0.0136678 0.0175373 -0.0104957)
(0.00922571 0.0164471 -0.0143047)
(0.0185621 0.0237801 0.00449845)
(0.000204956 0.00696408 -0.0273491)
(0.0092605 0.0143992 -0.0621137)
(0.00483783 0.0166633 -0.0482739)
(0.0146617 0.0166259 -0.105401)
(-0.0052338 0.00080275 -0.00532852)
(-0.022628 0.00246146 -0.0034995)
(-0.0100208 0.000690741 -0.0112034)
(-0.00698063 0.0123318 -0.0256708)
(0.000181437 0.0027142 -0.0160691)
(-0.0136662 0.0019965 -0.0469187)
(-0.00501849 -0.00426052 -0.0292105)
(0.000808162 -0.000549331 -0.00690017)
(0.00032464 -0.00237601 -0.0155717)
(-0.00127704 0.0146559 -0.0123437)
(-0.0102423 0.00714049 0.00411317)
(-0.00485066 0.00791599 -0.00567328)
(-0.00889507 0.0207348 -0.0792008)
(-0.0209742 0.010074 -0.0825455)
(-0.00873755 0.0125475 -0.0557541)
(0.00248725 0.0108642 -0.00947758)
(0.00529938 0.00703939 -0.000129944)
(0.0121517 0.0031089 -0.0326079)
(0.0114196 0.0128793 -0.0358942)
(0.00912618 0.0129624 -0.00349836)
(-0.00274867 -0.00362784 -0.00369674)
(0.00126171 -0.00405168 -0.00374159)
(-0.0195958 -0.000105779 -0.0554911)
(-0.00905509 -0.000546176 -0.0364025)
(-0.00323145 -0.00412962 -0.0266417)
(0.00300768 0.0054828 0.00377155)
(0.00116924 -0.0014286 -0.000823835)
(-0.000663992 0.00962453 -0.0405606)
(0.00936954 0.00639528 0.00763431)
(0.00423403 -0.00664184 -0.0267768)
(-0.000446716 -0.000572202 -0.00190694)
(-0.00196163 -0.00129211 -0.00879425)
(-0.0111599 -0.0207051 0.00678699)
(-0.00162594 -0.00296602 -0.00128593)
(-0.00731713 -0.00730506 -0.00550163)
(0.0068303 -0.00478831 -0.0152644)
(-0.00564376 -0.0214722 -0.0349763)
(0.00670566 5.04637e-05 -0.00896804)
(-0.00425635 -0.0063513 -0.0212523)
(-0.000580876 0.00402643 0.00113846)
(-0.00570116 -0.00229372 -0.00156409)
(-0.000484448 -0.00142713 -0.000272133)
(0.0150697 0.00389175 -0.0738442)
(-0.00107308 0.00400322 -0.0153766)
(0.00123603 -0.00739995 -0.024065)
(-0.00297747 -0.00443742 -0.00751018)
(0.000730305 3.93024e-05 -0.01312)
(-0.000768385 0.000479924 -0.00216069)
(0.0039012 0.00139558 -0.00960456)
(0.00412166 0.011482 0.00052708)
(0.00136915 0.00532026 0.0109132)
(0.0135177 0.0120896 -0.0265031)
(0.00964457 0.0115753 -0.024206)
(-0.00482701 0.00195391 -0.0399284)
(-0.00871518 0.00234774 -0.00125195)
(-0.0022544 0.00508703 0.00700757)
(0.00224736 0.00319642 -0.0360246)
(-0.00655819 0.0015397 -0.0302853)
(-0.00113282 0.0045524 -0.0409044)
(-0.00761099 0.00165835 -0.0190355)
(-0.00323569 0.000545237 -0.0745594)
(-0.000679933 0.000413392 -0.0600408)
(0.00719188 -0.00484294 -0.126481)
(-0.0112797 -0.00564223 -0.104108)
(0.00211033 -0.0110499 -0.132158)
(0.00540033 -0.000507234 -0.0808646)
(-0.00399933 -0.00221141 -0.0667799)
(0.00146056 -0.0027284 -0.0853955)
(0.016503 -0.00766555 -0.128323)
(0.00968013 -0.00454435 -0.101165)
(0.00440327 0.0019178 -0.0804812)
(0.0140785 0.000629765 -0.0882714)
(0.0180668 0.00113617 -0.0701853)
(0.00281171 0.00207636 -0.0521566)
(0.0135827 0.00709541 -0.0591865)
(0.00416487 -0.00686542 -0.0814313)
(0.00484905 -0.00785479 -0.070855)
(-0.00926713 -0.00311157 -0.0950615)
(0.0022224 -0.00782394 -0.0954629)
(-0.00844965 -0.00571945 -0.112133)
(0.0021029 -0.00200442 -0.0698128)
(-0.00201427 -0.00163644 -0.0703551)
(0.00415611 -0.00695265 -0.0756859)
(0.000897074 -0.00437239 -0.0686501)
(0.00407753 0.010007 -0.0555494)
(0.00662587 0.00065243 -0.0974959)
(0.0027003 -0.00108232 -0.0747635)
(0.0203732 0.0101454 -0.0609014)
(0.0105826 0.0126947 -0.0581746)
(0.0205432 0.0110211 -0.0567113)
(0.0146291 0.0121622 -0.0693043)
(0.00355504 0.00463935 -0.0575756)
(0.00562113 0.0085842 -0.0584003)
(0.0112571 -0.0137937 -0.112819)
(0.0214149 0.00740487 -0.113433)
(0.0239022 -0.00914667 -0.143072)
(0.00896773 -0.0151681 -0.0759938)
(0.0207767 0.00123365 -0.0151515)
(0.027173 -0.0134824 -0.089156)
(0.0121529 -0.00194261 -0.0833518)
(0.00271785 -0.00111652 -0.0811201)
(0.000553486 -0.000205449 -0.0632535)
(-0.003129 -0.00982497 -0.0674202)
(-0.00235309 -0.00550604 -0.0304894)
(0.0299205 0.0167762 -0.135313)
(0.0115514 0.025138 -0.107501)
(0.0275918 0.0128898 -0.0188342)
(0.0320257 0.00872846 -0.0835869)
(0.00965926 0.0173675 -0.0552351)
(0.00354401 -0.00621616 -0.0790165)
(-0.00319706 -0.0238613 -0.0779967)
(0.00159333 -0.0151024 -0.0584611)
(0.0019754 -0.0105062 -0.026714)
(-0.000330077 -0.0147199 -0.0490307)
(0.00712935 0.0306971 -0.0629362)
(0.0099233 0.0157898 -0.0474435)
(0.000238254 0.00352641 -0.107047)
(0.00871084 0.00279215 -0.0601342)
(0.00996687 0.00448784 -0.0804922)
(0.0140302 0.0183545 -0.0534159)
(0.0229748 0.0164183 -0.0422504)
(0.0119401 0.0124122 -0.0606721)
(0.0157577 0.0091978 -0.0669465)
(0.00815893 -0.000514732 -0.0564362)
(0.0104642 -0.0109837 -0.087059)
(-0.00899104 -0.0113394 -0.0264007)
(0.00661027 -0.014562 -0.0722162)
(0.010639 -0.0114786 -0.0509672)
(0.00460512 -0.00619184 -0.0610695)
(0.00586778 -0.00486311 -0.0438095)
(0.00730769 -0.0132142 -0.0442045)
(0.00746573 0.00455074 -0.0767053)
(0.00961735 0.00456158 -0.0658016)
(-0.000274296 -0.00565874 -0.0804184)
(-0.0081786 0.00152189 -0.195025)
(0.00604316 -0.0044218 -0.0586208)
(0.000914691 -0.014453 -0.0487673)
(0.00137217 -0.00418599 -0.0256292)
(-0.0280611 -0.000847595 -0.0601203)
(0.0144769 0.00997402 -0.018958)
(0.00496074 -0.00524886 -0.0429459)
(0.00504817 -0.00519014 -0.0434131)
(0.00109817 -0.00113705 -0.0280697)
(0.00408062 -0.00227337 -0.0514201)
(-0.00650406 0.0012596 -0.042857)
(-0.0057729 -0.00199442 -0.0343412)
(0.00138863 -0.000823142 -0.026775)
(-0.0112139 -0.00141434 -0.036709)
(-0.00330262 -0.00320629 -0.0263092)
(0.00138714 -0.00238233 -0.0264761)
(-0.00664421 -0.00359794 -0.0318018)
(-0.00124739 -0.00622964 -0.0291349)
(0.0147903 -0.00201852 -0.0238534)
(0.0297854 0.00510255 -0.0348186)
(0.00599398 -0.00176023 -0.0250953)
(0.0127852 -0.00719533 -0.0289621)
(0.0240709 0.0027838 -0.0357956)
(0.0261541 0.012952 -0.0432589)
(0.0281877 0.0108609 -0.0401115)
(0.00608834 -0.017929 -0.0503237)
(0.00508067 -0.0148505 -0.0412171)
(-0.0103811 -0.00784428 -0.0509227)
(-0.0011862 -0.0162274 -0.0585307)
(-0.00677332 -0.012339 -0.0449538)
(-0.00301092 -0.00459745 -0.0398214)
(-0.00809921 -0.00542992 -0.0425329)
(0.00069357 -0.0145186 -0.048472)
(-0.00260774 -0.00922736 -0.0416332)
(0.0223505 0.0179833 -0.0420914)
(0.0417038 0.029516 -0.0467209)
(0.0221202 0.0211073 -0.0584439)
(0.0332781 0.0142136 -0.0470375)
(0.0240399 0.0205146 -0.0379609)
(0.0387088 0.0256748 -0.0487111)
(0.0250213 0.0249935 -0.0542566)
(0.00580126 0.0101986 -0.0478761)
(0.00597328 0.0138885 -0.0427521)
(0.0107939 -0.0287834 -0.041887)
(0.0260511 -0.0134621 0.0551111)
(0.0382309 -0.031712 -0.00637111)
(0.00994383 -0.0238201 -0.0338596)
(0.011683 -0.0174668 0.0249151)
(0.0257997 -0.0218692 -0.0119156)
(-0.024105 -0.00999458 -0.0673999)
(-0.00770513 -0.010063 -0.0363236)
(-0.0102418 0.00391067 -0.0573844)
(-0.0271509 -0.0105125 -0.0705313)
(-0.00801181 -0.0095848 -0.0472983)
(0.0429644 0.0165796 0.00679643)
(0.0137204 0.0372978 -0.0206195)
(0.011542 -0.00455247 0.0306953)
(0.0275099 0.00615463 -0.00596848)
(0.00868772 0.022859 -0.0205678)
(-0.00488733 -0.00703706 -0.0316065)
(-0.0101989 -0.0172726 -0.0562179)
(-0.0227353 -0.0135857 -0.0694907)
(-0.00525031 -0.00478862 -0.0454983)
(-0.0107012 -0.0180622 -0.0634388)
(0.0151296 0.0306445 -0.0398841)
(0.0112364 0.0265935 -0.0333626)
(0.0414101 0.0382382 -0.0394159)
(0.0191381 0.0228355 -0.0498628)
(0.0247001 0.0198035 -0.0601869)
(0.0171489 0.0289058 -0.0464158)
(0.031066 0.0248162 -0.0460007)
(0.020376 0.0224059 -0.0450463)
(0.0288546 0.0211929 -0.0567243)
(0.00130891 -0.0208379 -0.0569766)
(-0.00594687 -0.0146385 -0.0680518)
(0.00286978 -0.0069557 -0.0496012)
(-0.0121752 -0.0270082 -0.08872)
(-0.00104248 -0.0210263 -0.0667473)
(-0.00840706 -0.0153081 -0.0735374)
(-0.000194913 -0.00821833 -0.0577083)
(0.00436784 -0.0154172 -0.0527214)
(0.0133256 0.00701046 -0.0535149)
(0.0179828 0.00718865 -0.0495437)
(-0.00361377 -0.0275548 -0.0583466)
(-0.00234785 -0.00568412 -0.0453376)
(0.00680747 -0.00927239 -0.0597915)
(-0.0029134 -0.0227338 -0.0686046)
(-0.00439605 -0.00595902 -0.0537367)
(0.00764157 -0.0191585 -0.0531412)
(0.00414027 -0.00472939 -0.044207)
(0.00496752 -0.0197431 -0.06786)
(0.00890456 -0.0185923 -0.0634063)
(0.000901905 -0.00643042 -0.0544732)
(0.00346534 -0.0112761 -0.0612099)
(0 0 0)
(0 0 0)
(0.00644263 -0.00580108 -0.0340821)
(-0.011496 -0.00796243 -0.0334596)
(-0.000519523 -0.0099269 -0.031617)
(0 0 0)
(0 0 0)
(0 0 0)