/*--------------------------------*- C++ -*----------------------------------*\
| =========                 |                                                 |
| \\      /  F ield         | OpenFOAM: The Open Source CFD Toolbox           |
|  \\    /   O peration     | Version:  5.x                                   |
|   \\  /    A nd           | Web:      www.OpenFOAM.org                      |
|    \\/     M anipulation  |                                                 |
\*---------------------------------------------------------------------------*/
FoamFile
{
    version     2.0;
    format      ascii;
    class       volScalarField;
    location    "0.35";
    object      Ksl;
}
// * * * * * * * * * * * * * * * * * * * * * * * * * * * * * * * * * * * * * //

dimensions      [1 -3 -1 0 0 0 0];

internalField   nonuniform List<scalar> 
10571
(
1109.55
1286.45
1785.32
1500.58
1869.1
1129.67
1226.16
724.108
3016.45
4569.38
506.591
982.324
1668.54
660.852
1240.46
2100.84
1413.72
1369.53
3191.94
3516.93
4249.52
755.619
1930.14
3007.8
0
115.053
24.1583
5.0093
14.6331
33.0097
26.955
58.1816
52.2418
12.8084
0
25.6699
45.7444
94.7537
138.816
396.83
32.6352
23.5636
30.1133
131.914
40.9283
158.586
19.162
32.0942
0
83.9416
10.1034
-1.55269e-16
10.4522
28.0911
5.09148
31.131
42.9925
49.8094
0
5.19455
11.9987
9.76258
62.514
367.191
33.3506
29.4964
35.3279
48.8389
112.701
123.457
5.11177
41.8931
22.6286
55.0154
7.04563
0.377973
30.6392
-4.06592e-15
73.2312
24.7802
46.5526
43.3092
40.5041
0.312588
8.83388
10.3154
64.7793
337.536
19.5778
33.4753
21.5863
47.1549
16.1044
143.56
10.8041
74.0216
16.3521
17.1149
4.40367
12.8663
14.1198
1.33064
21.3731
17.2409
37.8583
48.8763
20.384
4.04089
6.83728
6.69583
62.5878
367.734
44.3762
31.6583
20.5333
27.2775
18.0024
103.083
1.48219
55.914
4.22772
35.0054
60.1167
5.80424
21.0202
7.97729
10.4474
15
35.2586
52.9459
1698.02
0.825401
5.96599
3.53336
4.61453
65.7326
454.678
7156.3
42.9215
15.0994
15.2086
34.0767
43.3096
103.207
12.9828
51.5379
24.4759
48.3344
15.014
20.4863
12.6111
1.182
17.3389
14.4852
38.3673
19.6376
0
0
14.1858
2.22693
2.29378
50.0218
380.548
0
41.4285
14.9505
14.8296
22.5799
31.2651
0
94.0921
8.39434
75.5176
24.0598
51.1922
19.2769
4.6856
41.9187
6.25715
13.3887
4.53412
24.9843
58.1147
0
23.0919
8.39284
39.1757
2.32069
68.5182
389.826
0
26.7414
7.49819
9.7671
25.1224
18.4194
0
78.0217
5.96524
61.281
9.41282
94.062
117.79
8.46053
45.8384
5.93582
7.89929
2.9369
37.3013
39.2985
0
0
0
28.1774
2.45896
68.0581
391.21
0
33.7996
16.6997
8.55051
9.61727
47.5702
112.118
5.97562
79.4262
0.737289
39.7118
40.9893
-3.70783e-15
18.976
7.87139
28.5369
2.40352
32.8728
36.1194
31.9313
12.925
15.7395
1.23213
90.9166
439.805
10.1016
21.0766
8.39867
27.7754
111.324
62.5672
0.301881
102.261
21.8677
76.6052
34.5101
0
31.5806
0
36.4813
3.99545
34.9269
45.8283
-1.13255e-15
0
15.7299
1.75781
98.7577
367.704
9.25338
12.5711
6.94203
38.8576
108.029
56.8109
0.169517
146.184
9.25717
55.3745
27.7413
4.82487
12.2001
12.8996
5.7693
6.00746
41.451
30.0713
59.488
8.53851
31.2199
2.80647
115.019
398.564
15.6633
11.4833
7.78299
31.0561
78.8183
55.7076
17.7335
71.1017
47.3342
63.1913
30.8357
18.1354
20.8169
0.986493
4.053
3.94061
34.6241
31.1753
7.66151
0
5.81218
1.72274
108.518
467.984
17.9456
26.2844
7.93765
27.0621
64.1489
54.0678
10.2962
154.275
0
80.5357
17.4747
6.80732
82.7979
55.2374
8.24111
4.20466
47.7505
23.6047
7.71079
2.15697
57.0958
2.30662
119.144
674.734
33.6752
21.5165
11.217
50.6069
100.4
46.4566
20.6511
165.683
0.790767
25.5548
18.8291
6.73094
65.5312
25.7754
4.21658
4.45304
35.1862
9.28629
-1.917e-14
6.7423
18.0977
1.56838
120.44
577.456
47.4809
4.27589
17.0122
48.5428
124.829
24.7909
5.71315
141.462
0
62.2249
33.2247
66.9203
67.1149
25.7608
16.704
6.07089
41.3902
25.0507
21.545
36.8291
1.53527
3.84303
104.201
653.325
70.6367
18.6677
50.6106
22.1804
164.531
36.0081
57.3423
80.3482
22.3494
47.8668
79.645
8.55601
31.4926
59.8849
8.8134
17.6192
44.001
15.9266
25.761
62.5399
0.901293
11.025
80.9444
585.563
44.4203
16.7079
44.5212
25.3178
494.945
30.4054
77.1391
101.682
0
47.7071
76.2716
27.0777
35.8671
22.7833
6.05395
80.8358
58.255
37.834
0
69.2154
4.77793
56.1457
51.558
596.158
15.7222
18.1799
32.0658
39.4979
2410.38
34.2219
35.3791
72.9874
0
49.0131
66.4535
8.79658
38.5241
19.394
6.76517
46.5991
46.0915
18.2258
0
107.022
6.65977
84.9207
63.745
811.297
11.4457
14.7397
57.7543
18.4174
2352.6
56.0901
26.7611
144.2
21.9801
3.35319
19.5268
20.314
18.2812
26.0825
5.1239
24.8596
30.356
24.2933
2.38289
39.7666
7.94418
6.15355
67.7125
1616.81
18.1216
49.8535
162.829
79.6723
1618.07
41.893
24.1981
342.068
-8.76965e-15
17.0082
32.2274
19.0584
21.9208
7.97612
9.6048
63.516
24.6895
44.3855
23.2811
88.9488
5.97961
20.1149
144.448
4039.07
28.035
44.7703
102.261
16.8996
3657.63
62.2056
60.4145
932.276
0
25.2328
27.2125
2.42521
46.8708
-1.93092e-15
17.21
22.2316
15.0907
39.1243
55.3717
72.4684
9.39167
6.68639
388.867
8268.91
6.75735
96.5167
264.209
13.2026
2596.57
36.2609
75.4115
2593.71
0
28.3003
21.6796
44.793
69.4424
13.1997
44.0084
41.3799
12.1749
21.3847
50.5425
95.3327
11.0743
3.70789
571.901
7306.07
30.6375
78.4055
241.348
284.776
3662.84
29.1131
279.397
3624.26
3.5353
15.9998
9.24346
23.3685
50.448
21.5703
55.5508
18.8388
7.0781
48.8093
20.8948
45.7592
13.539
0
568.42
6217.96
24.1847
68.0374
161.339
1936.42
3470.78
43.3802
175.367
3517.89
0
18.5793
12.5855
97.4625
106.178
17.9092
71.7393
43.3665
5.36243
29.2156
0
32.633
26.9948
5.87689
495.483
6518.53
16.7132
54.8853
129.679
2342.72
3351.93
25.112
106.083
4302.83
22.6097
0.693349
18.2844
96.47
44.6017
14.0833
51.4048
83.3184
6.8675
74.3475
16.7411
10.7688
56.4173
163.983
424.203
5324.79
6.71317
68.1414
73.011
1488.55
5003.83
10.5997
32.0664
3332.36
0
38.7809
26.5243
27.9166
41.4922
0
18.2711
11.5132
9.62916
135.821
61.1268
1.54262
31.718
52.2319
319.293
4386.3
5.34702
62.8294
89.1619
1906.11
3757.76
11.221
18.9533
3671.71
7.63096
7.61376
25.8344
7.00736
0.963535
13.6312
11.8257
8.84074
18.0622
26.7153
17.5604
6.19638
25.7333
26.0312
296.356
3159.78
5.28237
50.3339
101.473
1756.48
3665.53
61.8627
6.49723
1881.69
0
19.8318
12.5492
6.46518
11.6923
6.95304
6.93383
26.5873
9.55621
27.3399
9.26901
0
30.9256
25.947
280.428
1610.25
6.09912
11.1976
86.4484
1468.81
5001.63
78.7409
3.33668
850.406
0
16.5271
22.5694
0
4.62779
0
0.990202
85.1846
11.9671
0
0
0
13.8025
25.8147
265.936
477.858
0
6.04454
57.6845
2108.76
4643.74
11.1377
0.696171
401.093
0
0
8.53771
13.9192
14.0405
0
0.731644
12.0261
7.95637
1.47072
0
0
0
6.88537
246.252
309.363
1.08614
2.90306
38.2188
2187.67
6519.31
10.6673
0
108.796
14.8298
37.5697
0.241795
0
9.40626
0
2.14013
0
8.04223
5.46003
20.5297
0
0
1.24017
253.654
78.2959
12.3363
1.46195
20.4638
2226.57
7889.27
12.0805
3.48523
44.1882
14.6474
19.3345
11.1016
6.36313
0
0
6.82338
0
1.99058
5.19194
0
0
1.40825
1.2003
237.057
13.1574
-9.55442e-16
1.13083
6.09942
2270.95
4401.4
24.9541
3.3464
15.6852
0
10.9436
8.26307
12.7815
0
0
17.7869
0.658224
0.582235
-4.28091e-16
0
0
0
2.50501
228.851
12.8771
-1.59847e-15
0.562089
1.99855
2312.43
2563.28
7.61431
6.8412
0.0731636
0
0
2.1343
13.5087
0
14.7754
12.4706
1.07451
0.802387
21.0947
0
0
0
2.43176
195.234
3.57649
0
0.563939
2.52025
4599.05
1230.86
5.90364
3.4779
4.31681
0
0.32702
9.95341
19.0084
0
0
17.207
0.906795
1.31171
5.27896
0.699866
0
0.685968
4.55694
188.103
8.30391
0
0
3.03367
4141.5
1082.61
15.9406
0.120632
27.0703
0
0
35.5157
0
-3.32498e-15
177.762
26.3964
2.60335
1.74927
0
0
0
5.42166
15.1692
191.452
2.0112
0
1.72424
8.20204
4484.98
404.292
0
2.79908
63.689
21.4956
9.58065
15.8639
14.7175
9.61567
50.5838
37.4984
11.2863
1.3082
0
0
6.49106
14.8283
54.1385
148.637
14.365
0
-9.02474e-17
22.0625
1051.04
345.353
6.20401
7.7302
45.7512
22.2756
23.456
29.7459
6.22906
0
17.7579
24.5113
10.8138
0
0
0
10.6897
13.4249
92.5613
116.137
25.4554
0
1.45872
28.2965
3827.04
265.834
24.1841
32.3513
73.5847
20.5724
0
11.3793
19.2063
0
14.2903
20.9167
9.21425
1.34474
1.11747
0
26.0902
14.5996
104.26
92.3273
20.1416
0
6.36293
42.5381
4176.96
268.437
7.34026
24.7975
101.998
20.4694
9.3109
11.3755
10.6217
5.07178
0
13.2044
18.5934
1.0679
0.191987
20.4279
31.7192
15.2014
109.021
45.1606
40.327
0
8.39104
54.6918
2753.2
421.841
0.793646
16.6119
153.43
5.20124
5.9924
16.7402
18.5256
4.43883
30.0212
20.0033
9.44391
1.61574
5.48652
21.0154
10.0633
8.55416
101.259
26.9801
21.9787
8.71879
5.28865
50.4496
3004.38
458.307
6.08918
16.3797
186.384
0
21.8254
14.4011
12.6794
9.98258
11.9854
20.4021
22.2866
5.3217
32.0172
16.4543
34.9323
7.93535
92.6146
26.2846
57.3869
0
2.70638
33.0532
1092.48
540.128
0
45.5935
309.113
0
17.6599
21.1615
6.14217
10.5782
28.3874
14.4368
12.012
4.48648
16.9093
0
16.6487
7.45283
85.9925
23.9431
89.8787
10.8442
3.16351
24.2769
578.416
701.574
5.91189
40.1505
408.706
14.2766
10.453
36.4145
28.5455
20.4975
11.4468
20.0717
10.075
16.418
60.3815
0
5.9557
3.89509
64.0318
17.3857
164.039
10.7203
4.97838
32.3722
363.336
967.232
4.77947
99.1164
576.892
41.264
63.4348
46.7605
8.8896
12.2659
38.5548
19.652
10.1323
11.5583
100.937
20.0686
20.2876
11.4134
55.6687
20.4323
205.48
16.168
6.8419
29.0036
282.487
749.827
10.5395
106.487
626.731
11.0577
95.3531
359.13
35.5558
16.9719
44.9966
18.3025
12.403
24.4531
284.737
33.986
21.9341
8.72943
50.2922
33.3403
202.811
20.8878
8.50137
18.4622
255.116
597.138
15.4958
192.834
630.037
17.584
179.082
863.499
98.6756
171.406
653.245
12.6296
14.6682
31.9849
936.319
42.7173
84.0453
9.77273
34.6382
41.3072
105.925
19.408
21.4259
28.6512
244.362
380.349
86.0353
347.306
606.85
2549.22
1594.35
431.953
342.238
1263.15
986.482
45.1889
10.7638
27.9096
1308.2
48.7239
494.227
20.8368
38.5017
60.3771
154.388
434.89
71.2679
32.0329
260.133
96.5948
1774.28
249.768
285.441
44.2224
36.288
-9.66903e-16
-9.45802e-16
169.585
119.323
57.0439
14.7829
20.7033
134.126
270.265
649.479
28.9831
33.5031
92.3659
77.6592
537.803
90.3631
41.3764
196.283
61.9374
641.681
97.1129
62.5466
0
21.89
9.54184
0
0.0693403
7.26251
21.9648
4.9879
21.8581
41.6924
75.2746
0
27.9714
35.1274
87.7708
60.8161
3.01337
57.8999
43.9152
158.87
82.0808
77.4897
105.991
30.1032
11.9064
22.3605
8.79031
5.4997
0
0
10.671
12.5112
27.393
46.0871
0
0
26.5898
37.6148
104.049
54.2789
0
32.0101
51.7178
76.9074
90.7741
58.955
49.2232
73.5643
28.3716
24.569
14.2139
0
0
11.4731
3.34174
9.93008
29.8247
14.3503
1.82537
0
6.82087
34.5182
81.8454
41.9047
0
15.7797
57.1771
85.9416
129.948
12.2017
38.9921
48.8223
9.09539
0
109.11
0
0
13.0686
1.39873
8.42298
26.9108
12.2549
0
6.17537
4.69958
31.1403
78.9687
30.5814
5.6676
14.2766
57.3158
75.8158
92.1412
22.9422
39.9255
41.8098
0
0
154.335
3.77211
0.114068
1.56754
2.82198
4.17471
20.1762
12.2222
0
6.39394
6.91567
30.7325
53.686
25.3962
5.67716
11.374
57.7727
41.5365
94.9134
18.7489
53.6493
36.5707
0
0
0
14.4694
7.71894
0
0.718128
4.72913
21.778
23.337
0
8.08468
10.4764
22.9113
45.0053
27.9713
2.75372
9.47589
32.5409
48.8668
101.911
13.9472
48.8854
42.4172
0
0
0
15.4224
6.14055
0
2.13651
1.54198
20.3177
16.4152
0
0
6.66429
9.32232
31.3422
35.754
0
2.58872
29.553
31.3722
137.692
20.2151
58.592
48.7442
0
0
0
6.83955
10.3678
0
26.6472
0.748423
6.55387
0
0
0
2.65727
4.69097
26.7732
25.7631
0
0.632938
17.8739
24.4313
152.72
15.5144
67.708
42.9401
0
0
0
3.55302
0
0
159.32
31.8434
1.00394
10.6618
0
0
2.43649
0.712843
11.4577
42.1751
0
0.611918
10.5901
20.7486
221.389
2.57945
19.3241
25.8807
0
0
0
0
0
0
0
41.6348
0.0402911
36.9589
0
0
7.77347
11.0358
2.79063
45.0039
0
14.8032
2.47962
18.8103
282.806
21.0691
29.2154
28.3893
0
0
0
0
0
0
0
45.0112
61.4792
94.2775
0
0
19.5536
41.385
98.5377
44.3802
0
71.869
34.2107
-8.99722e-17
496.112
0
36.1715
102.333
0
0
0
0
0
0
0
0
8.38623
4.39871
0
0
0
4.88919
39.5771
122.066
0
0
26.3365
102.239
35.2186
0
2.78694
84.2203
0
0
0
0
0
0
0
0
0
0
0
0
0
0
0
0
0
0
0
0
0
0
0
0
0
0
0
0
0
0
0
0
0
0
0
0
0
0
0
0
0
0
0
0
0
0
0
0
0
0
0
0
0
0
0
0
0
0
0
0
0
0
0
0
0
0
0
0
0
0
0
0
0
0
0
0
0
0
0
0
0
0
0
0
0
0
0
0
0
0
0
0
0
0
0
0
0
0
0
0
0
0
0
0
0
0
0
0
0
0
0
0
0
0
0
0
0
0
0
0
0
0
0
0
0
0
0
0
0
0
0
0
0
0
0
0
0
0
0
0
0
0
0
0
0
0
0
0
0
0
0
0
0
0
0
0
0
0
0
0
0
0
0
0
0
0
0
0
0
0
0
0
0
0
0
0
0
0
0
0
0
0
0
0
0
0
0
0
0
0
0
0
0
0
0
0
0
0
0
0
0
0
0
0
0
0
0
0
0
0
0
0
0
0
0
0
0
0
0
0
0
0
0
0
0
0
0
0
0
0
0
0
0
0
0
0
0
0
0
0
0
0
0
0
0
0
0
0
0
0
0
0
0
0
0
0
0
0
0
0
0
0
0
0
0
0
0
0
0
0
0
0
0
0
0
0
0
0
0
0
0
0
0
0
0
0
0
0
0
0
0
0
0
0
0
0
0
0
0
0
0
0
0
0
0
0
0
0
0
0
0
0
0
0
0
0
0
0
0
0
0
12670.4
12006.6
11656.1
11777.4
10302.6
12045.7
11026.8
11731.9
11549.3
11715.3
12175.5
12127.3
10761.2
10894.4
10501.7
9592.2
5812.36
11127.4
11192.9
9197.41
10857.1
11798.5
11777.1
9451.94
9547.76
10730.3
10283.2
9206.22
11264.9
11447.3
11156.6
11116.8
9729.85
5927.46
4616.08
5093.81
7593.66
7577.26
7687.54
8167.08
6882.72
7089.4
8659.14
9674.51
9091.47
9966.53
9744.75
10554
9008.28
11285.3
10952.4
11148.6
8331.68
11390
10699.7
6318.05
9710.66
10499.4
10428.8
10498.2
9576.95
11480.7
9737.16
8422.62
7433.05
8527.96
9716.41
8565.19
11416.9
10766.2
11620.3
11591.2
11249.9
12394.5
11048.4
11577.8
10643.6
9937.99
9874.42
11142.1
10716
11405
10996.6
8371.92
10574.6
11382.1
12089
11206.3
10562.2
9371.27
11553
10455.2
11813.6
11845.2
11788.2
11292
1761.46
41.7406
842.652
1535.93
1097.23
26.7534
115.606
277.51
1333.85
1154.78
178.373
272.682
238.539
2762.42
187.542
1095.43
37.1516
1514.68
1527.8
1987.15
39.1724
105.192
137.136
335.246
3465.75
1492.79
3307.92
456.846
176.424
4261.31
512.731
3986.79
105.75
695.571
534.457
748.257
111.301
6.48782
222.045
3100.77
3222.98
297.503
168.47
99.0069
750.861
733.371
36.9624
187.514
111.12
1796.49
3409.59
625.186
206.249
76.5943
941.251
47.1279
1533.69
1427.77
1205.33
208.805
1288.9
124.996
139.65
3688.57
3256.56
3304.92
3602.56
192.974
501.268
55.4113
125.075
1113.16
141.232
1551.11
1386.52
149.594
337.598
89.0716
1904.55
1950.22
1056.72
1464.74
737.036
272.068
47.1803
59.6712
39.2533
42.3133
19.2614
38.32
39.0717
17.0118
17.0484
5.48597
0
23.133
14.1354
45.0301
-2.05924e-14
32.2472
9.63264
91.6212
50.7715
75.0646
97.3546
92.1693
59.0224
56.7767
2.01323
192.183
63.7787
20.9512
17.6242
1.05779
27.3447
73.6707
50.2412
19.0786
0
13.4826
18.7099
0
5.75405
78.9304
63.9707
36.3765
74.0398
37.0891
17.8825
31.0197
0
7.76129
14.2863
97.9797
63.1531
422.173
167.377
64.0655
21.6517
0
66.4148
41.0418
89.7911
32.7941
29.7335
-7.74241e-15
101.758
35.2019
34.8412
32.9659
20.984
45.1649
75.6989
74.469
28.9465
107.665
140.247
37.5597
16.3038
104.856
41.6998
53.9863
14.1758
0
18.2273
24.7505
15.3742
49.5153
13.7963
10.8906
0
26.9622
20.4527
47.4918
32.3495
1.99602
0
11.6363
18.7041
16.9902
26.5093
19.9469
24.0286
13.336
33.5694
60.9005
37.3866
34.3166
38.2124
53.9407
40.8846
17.382
17.9706
5.67409
22.1938
42.9611
58.5754
10.5839
30.3584
25.1876
96.9786
16.2869
0
11.3108
39.5064
28.5884
11.1336
97.145
55.6313
66.6093
86.5812
30.7536
8.85739
1.40741
0
3.61145
49.9838
45.4452
71.2513
353.299
107.123
58.1247
11.839
23.9799
13.6363
52.9461
58.2688
20.4326
7.27172
71.6469
36.3531
69.3828
42.9769
76.4146
37.3252
23.9126
48.3081
56.1622
44.0714
102.594
81.7108
50.2262
-1.5949e-14
96.2093
23.5848
38.8046
5.31994
0
18.0093
11.6175
0
25.6855
-9.26229e-15
52.0426
53.7616
6.61368
67.4359
29.5425
19.6632
23.5054
11.54
21.8295
4.05157
23.2583
6.70293
24.0432
36.9493
6.67456
23.2397
31.5302
33.8984
3.67979
61.7166
44.2185
40.4749
12.8576
28.1506
0.329024
44.2776
16.1327
28.4336
8.88629
24.8788
20.1567
33.8628
18.3034
0.617265
11.4264
8.77654
27.5423
21.4278
85.98
0.321795
31.3847
105.173
53.3774
11.2287
33.7111
-6.36964e-15
12.1266
33.4245
54.9845
60.5596
341.393
141.531
46.4492
22.9862
7.74058
24.9357
80.5559
60.1133
34.4624
47.9357
37.7806
50.3944
49.0423
49.2779
97.1345
46.3433
35.4157
72.9375
91.675
40.4601
80.0511
139.034
26.5901
0
110.338
43.3377
0
12.9597
0
11.3364
26.6369
0
22.8065
58.3341
29.9177
19.0074
15.8404
28.8128
0
45.6378
18.0628
12.6411
7.2368
0
26.5085
30.2898
19.9363
27.5165
13.3363
17.9341
50.4069
25.6086
19.6286
48.9494
69.3728
28.5883
38.6336
34.6432
7.93775
18.6429
1.98708
24.9818
15.4553
49.8871
39.4124
84.0497
53.2906
63.1368
33.5089
5.52049
0
31.5633
92.688
22.568
15.9253
107.777
168.482
0.471911
43.1323
-1.13244e-14
5.75545
34.0354
127.144
56.5172
378.039
224.222
104.158
9.77181
21.6837
18.3518
37.3497
66.7079
47.2245
12.1219
23.022
59.6513
52.9526
110.444
94.9931
22.2865
18.935
71.595
77.5747
32.5619
109.093
86.8283
34.3132
20.667
89.8121
50.7441
61.8641
11.0138
0
4.47335
12.5471
0
48.3526
63.1395
70.3304
22.9477
38.7367
16.8845
62.9163
16.9705
32.0472
5.56663
16.4603
20.005
11.7879
12.8858
46.2358
27.6665
51.8731
36.4589
82.6658
24.9067
38.6298
72.4826
52.8522
38.4206
54.9255
33.072
6.24815
25.0988
18.058
72.7634
12.665
45.8272
20.5848
36.3592
30.6239
0
14.3275
50.3217
0
20.7639
82.6267
92.9246
663.527
24.2928
-3.67642e-15
67.6168
51.5325
8819.98
6080.45
10862.7
2.63987
105.708
12.6003
204.813
11.3535
15.9581
20.3562
11.7975
13.2844
2131.12
136.463
178.898
400.786
104.165
77.2553
32.3101
11217.1
2405.03
10486
26.8167
193.294
3.10874
117.257
-6.282e-15
18.2508
17.5918
40.2469
67.9171
36.8272
15.6747
46.1862
55.375
36.9576
90.9467
133.88
15.1739
22.0568
145.026
61.7947
27.1621
102.423
105.882
40.1244
-6.47061e-16
90.6284
20.8922
0
35.2528
26.02
11.6364
14.6265
-1.78281e-14
148.459
26.1439
19.8563
19.2077
23.3246
17.6877
49.5122
68.8642
14.5444
12.3168
0
17.3374
5.74329
21.3971
34.4602
35.0534
18.8736
24.1327
53.3995
12.9834
31.9067
47.5934
50.884
29.3205
5.22137
52.8043
5.73017
56.3477
12.0957
59.5906
12.1175
28.0695
32.6295
0
35.1153
0
0
0
0
0
20.0367
19.5618
19.0112
40.3791
48.4761
15.7596
9.5068
78.8799
19.5301
30.129
5.10575
125.89
22.3465
0
0.281318
0
0
0
0
0
6.82109
9.9795
6.36824
24.3366
34.613
78.8547
71.5428
27.5547
380.071
57.552
79.7087
14.731
0
0
0
0
0
0
5.05459
22.7263
2.07973
6.27122
66.7288
35.6223
23.3851
0.748949
51.9506
25.4243
29.2563
85.8724
100.981
21.3861
28.9026
75.1232
93.3306
6.33802
50.7513
-6.41615e-15
0
5.01812
0
128.892
78.3882
11.6394
20.6722
123.496
19.9237
23.7189
29.2979
0
15.2258
25.8116
0
45.7777
41.1369
16.7357
116.603
23.4687
42.7017
19.23
63.3135
18.9973
24.8976
19.802
0
10.2684
34.4346
23.5827
38.9543
65.7302
62.2863
52.3892
33.5024
43.4129
36.0917
59.1582
20.3846
21.1356
42.1157
13.3594
31.6927
48.6179
28.133
5.95255
59.4318
15.4878
0
18.2921
0
0
0
0
0
64.4552
-1.874e-14
32.2232
77.8096
21.2257
42.2521
12.2269
99.0841
22.4324
35.8592
10.1883
84.6071
37.7148
0
0
0
0
0
0
0
8.45271
47.4233
0
15.5636
82.217
57.3604
72.8691
29.4767
356.185
77.5277
85.3281
36.8696
0
0
0
0
0
0
2.11795
8.84698
28.7928
6.9017
34.104
42.8132
27.479
23.1422
32.7513
47.4443
24.9265
107.398
70.8898
4.87521
31.9617
101.409
84.714
0
45.5064
0
0
0
0
156.367
112.023
31.7997
37.9866
91.6974
33.5223
26.9806
27.873
20.6414
17.9834
5.2724
13.6225
91.976
26.8731
21.6566
19.2255
26.404
57.1778
39.5633
56.1974
103.219
18.5542
17.6669
42.8961
9.31922
17.7691
5.14497
40.0147
44.1826
52.5373
41.6717
35.0014
31.6843
108.497
35.6388
20.1558
57.3515
67.8391
6.18418
50.2182
26.449
52.9356
0.927262
38.0746
8.70777
31.9182
20.6116
20.7317
47.6162
34.3091
0
17.1243
9.1452
92.4969
38.766
43.3263
0
114.857
43.5405
0
0
0
0
0
0
0
22.7467
36.0906
0
26.4426
28.5462
111.429
66.1997
26.4971
363.068
75.5978
119.745
21.5129
0
0
0
0
0
0
0
12.5974
12.5927
4.08807
74.4533
32.145
13.0919
5.77612
23.7707
55.7081
25.8554
98.0359
73.5716
22.2642
12.4803
67.1488
51.0965
43.768
60.7342
73.5263
36.686
13.1639
73.3597
31.9908
0
0.334632
0
18.3618
31.4654
0
79.5421
30.0205
22.1783
58.8066
51.0733
85.894
16.5636
53.8339
41.7157
5.73283
16.2205
0
11.5378
14.4436
44.3905
34.2205
39.199
10.6859
53.3913
8.86708
17.1305
54.8339
30.8006
30.8
29.9005
67.771
12.3525
33.8019
29.8663
43.954
56.9276
28.2639
88.3055
87.2677
22.7267
0
22.3083
20.5353
5.12923
16.8818
134.176
37.19
69.1653
150.589
87.1706
50.0739
34.5292
3.24473
43.9308
79.6648
62.2767
72.1694
403.05
73.4686
72.0298
0.520436
16.6787
5.85362
15.1657
30.7185
27.9146
0
27.7342
58.8061
50.8238
59.7921
90.6801
20.8445
79.1472
99.8098
78.0797
61.7698
126.627
84.3574
20.3907
0
108.884
21.6138
29.1475
63.9415
0
0.985408
26.5942
0
122.879
32.5043
15.6652
-1.29627e-14
34.7643
29.1633
0
26.1955
24.9844
11.782
37.8299
0
23.1947
43.6895
40.3701
19.6454
49.2046
33.083
39.4095
21.0056
34.4209
123.014
50.7103
14.2817
20.7802
58.5476
81.4368
64.3282
5.48342
36.3732
57.9176
24.9795
97.6271
50.9729
22.6421
16.5087
0.807987
20.7734
0
11.9372
179.609
65.2158
48.2111
108.58
96.8138
19.2937
64.7831
22.3051
31.4739
11.4535
105.385
97.3259
396.558
39.5165
113.341
0.440006
27.3197
5.60063
47.0039
33.2712
29.6355
10.4016
53.7652
61.6317
36.6921
125.67
57.4064
11.5609
48.8067
80.884
52.1163
25.1171
138.035
144.09
9.30144
16.5667
78.2615
22.7341
4.31633
66.3489
0
16.5945
132.331
33.9479
135.506
40.1556
31.8145
19.4781
33.6109
34.5788
0
23.6671
9.3514
30.0606
37.413
30.2971
30.8325
28.9713
43.0783
34.9917
22.3903
27.1298
55.8379
24.904
16.0487
38.2612
19.5479
24.075
22.4178
20.0851
67.0792
52.0168
15.0648
58.6745
51.9722
69.2143
98.7839
97.3226
29.86
0
45.0945
78.1853
22.2667
16.6087
68.2134
25.7323
58.9273
73.6348
90.2548
25.3625
22.3475
43.0301
8.07093
23.9489
88.7572
135.717
438.296
106.221
184.128
0
88.7907
1.19639
18.254
79.5929
17.3185
24.132
23.1888
78.2588
59.3697
92.2075
52.5513
31.4101
97.5552
90.7079
31.254
153.843
121.252
69.8805
17.4078
0
76.8549
3.74525
0
60.2193
7.35599
7.41596
137.983
0
166.264
31.402
41.1722
0
28.7339
25.9116
0
30.3448
24.9353
39.6309
14.7514
0
51.2856
48.0703
38.5548
31.4662
53.8128
35.3177
40.885
23.5145
21.3907
92.5261
31.5326
14.3054
38.2786
73.0109
90.1021
74.1706
68.9275
98.1285
56.9059
80.1255
97.8097
40.6676
13.3553
22.2931
28.0721
12.612
0
18.6772
81.1533
112.837
46.0107
106.79
134.147
17.2547
14.8193
6.46622
17.1187
29.987
131.382
142.776
553.793
210.282
138.713
8.79951
36.7954
5.88239
29.614
84.4617
8.09968
-1.78841e-15
34.1857
107.431
142.892
116.692
94.0142
36.9371
118.32
69.169
129.573
38.6298
89.2192
119.053
8.75556
20.2062
83.4991
4.73622
0
125.845
0
2.56774
66.6158
0
74.2543
41.3489
31.8924
0
36.9189
40.1187
0
54.3352
40.7023
22.359
-6.16964e-15
0.634724
38.8612
25.5068
22.9045
26.8211
10.758
28.7635
52.683
27.2841
40.8854
26.3358
35.8917
21.8749
36.4054
75.8287
68.7102
57.3043
149.443
48.0874
59.8153
68.6025
36.4025
34.9846
15.1844
0
28.9308
2.5974
0
18.5828
79.1314
69.0658
27.7401
127.774
101.283
25.0296
32.485
34.6956
21.1474
31.1957
171.405
130.255
748.901
148.741
186.335
17.9769
25.3557
28.7534
50.5696
53.5646
24.3106
31.4783
47.6437
28.5104
128.544
98.642
127.601
48.9378
154.695
139.766
108.6
68.7509
117.128
144.202
0.812057
0
48.3405
10.4374
0
123.436
0
8.60412
69.3855
0
139.768
10.1982
32.1928
33.7925
72.1388
52.6103
49.3045
19.9378
23.8908
26.3341
81.5631
-5.45061e-16
31.2597
9.29875
29.4941
10.5169
47.1407
32.5651
17.869
17.9924
34.1571
56.8757
23.5972
4.06641
16.3793
69.2569
33.1653
24.2187
43.3695
10.5418
27.8899
14.4021
15.9914
20.9277
17.4822
0
0
27.9589
0
11.294
78.4175
105.168
24.6717
81.0927
85.7229
13.2234
10.7345
44.7838
43.1202
3.61366
128.049
176.633
620.888
184.862
232.006
13.0744
11.2284
23.0303
38.4649
87.8489
33.2045
33.7242
50.4658
94.6409
192.94
104.318
127.652
48.5192
205.633
119.972
80.1984
124.338
97.1508
104.5
6.49025
0
54.2482
17.9891
20.9714
84.5098
0
25.4214
122.251
21.7849
182.865
28.9255
17.3014
0
24.7645
15.5437
20.8162
30.5154
15.3836
18.8338
26.5715
0
35.1538
39.0121
82.4893
77.7376
14.5828
20.156
27.0558
22.6553
31.7881
48.0982
53.5084
24.011
21.7982
27.1841
14.5862
12.4958
84.8839
17.9206
33.4395
8.24145
30.4972
-1.80381e-14
19.3301
0
11.8917
3.99847
0
28.3698
75.0261
30.7627
26.8006
68.7801
35.5473
30.3233
6.50493
23.7125
41.9001
13.7519
128.532
437.648
671.174
256.392
626.832
54.1906
32.9636
26.4416
47.061
90.1981
82.1336
38.7291
33.1956
105.025
238.658
167.542
158.553
25.1027
331.816
161.606
245.188
325.038
89.2428
91.3763
7.25623
0
38.6509
10.7988
20.8687
98.0308
30.359
30.0581
129.101
14.032
58.2659
41.9989
15.0083
0
32.5123
20.5996
0
-9.92766e-15
33.2525
24.4311
8.15457
20.9688
16.4544
15.3079
21.8631
0
12.2763
21.3864
34.8485
5.17219
46.0598
55.4009
24.5269
13.6164
25.1427
53.7076
34.0732
26.0688
32.128
41.2684
22.4443
28.9333
0
21.4173
44.0648
0
50.9336
10.6746
0
30.0032
65.5921
143.865
10.7544
76.9108
49.5436
30.4409
40.3301
21.226
49.1584
33.5433
277.486
732.449
529.12
278.309
1196.79
38.263
69.1121
19.356
39.096
100.431
32.01
29.209
62.1441
88.7532
263.803
168.551
241.631
15.0719
314.172
124.763
345.818
932.897
96.2169
110.415
19.3089
32.7163
24.8321
-6.23102e-15
19.8553
69.145
49.2009
25.0551
34.3787
22.2245
30.3339
23.34
44.2764
16.8135
6.05802
44.6574
29.9219
0.185265
26.2717
5.44036
12.011
0
18.7843
20.5643
0
33.9246
32.7819
11.1488
62.8561
5.69643
47.917
48.7501
27.7519
29.2178
46.8727
69.7067
14.0501
34.3414
43.6979
63.4
21.32
0.157794
8.05788
12.921
58.8285
0
12.0017
47.5501
0
31.2347
48.5783
34.2089
23.4013
99.5358
115.697
22.6211
-6.84838e-15
0
24.0933
24.2173
505.133
1566.48
620.202
752.972
2332.82
15.4878
19.7379
10.5865
50.082
93.0677
6.20004
31.4751
44.0844
83.393
429.739
162.758
488.29
28.5856
425.159
198.997
631.39
5200.26
128.837
179.237
5.44688
0
48.4077
3.58574
20.6613
60.1004
0
25.4176
106.109
44.2649
122.106
33.5495
18.6369
20.4685
12.0898
0.350737
21.2136
20.285
21.9632
20.4979
-4.82467e-15
0
5.37159
21.1289
33.0344
22.6139
29.7704
19.4757
26.9652
16.0023
43.9475
31.7992
18.7435
10.8728
28.2901
20.273
28.424
41.3968
29.7448
11.0434
10.7912
18.8203
11.0091
32.918
1.21664
0
31.2169
15.8864
0
21.8723
156.658
119.314
22.0797
173.165
105.598
32.2871
13.1407
21.5722
11.9521
7.1258
1072.18
2060.78
1209.25
1012.66
2660.8
19.5363
39.1709
20.3543
21.0376
81.3222
27.4234
56.675
34.2963
90.7812
411.503
243.647
1410.63
19.5852
601.346
299.865
1834.61
1506.64
99.4409
86.3969
5.46461
0
33.0199
32.5464
16.4134
43.8948
0
19.1028
75.7449
102.687
192.062
0.393945
11.0946
0
15.1791
59.2354
0
46.6831
53.3992
5.68104
20.3387
12.8746
19.8496
34.8134
40.9555
1.48275
12.4282
23.6154
45.597
19.8351
18.265
33.6596
24.3727
13.2451
44.548
17.1197
10.5665
4.73459
24.3362
6.11866
2.38928
6.09204
11.1975
43.3797
24.9874
0
5.75122
22.6058
0
15.2935
147.919
166.864
31.2361
106.643
242.062
28.7968
8.15143
21.964
14.552
5.76681
1411.35
3705.97
2444.45
2137.18
4511.62
23.2318
16.3245
67.6168
33.7036
85.7799
28.2765
80.1437
54.0196
175.029
808.014
338.282
2642.86
64.4438
1245.4
607.541
2932.85
2484.57
82.3531
117.852
15.3954
88.3048
43.7791
16.6066
35.7206
115.057
30.8298
23.0492
102.334
25.8362
700.793
33.873
36.3316
0
23.9363
19.0392
21.6746
6.83096
5.26037
19.366
20.6788
0
17.1842
20.6862
38.9564
78.4026
23.3487
23.4104
22.1471
6.92263
52.1186
11.6332
31.886
0.24781
25.435
33.0544
13.4487
26.7116
58.0272
16.9737
0
13.3268
4.30624
17.6631
6.76307
0
1.96985
26.5969
0
19.4225
158.559
239.257
16.2722
155.103
411.805
33.647
38.0807
36.9237
21.2584
11.579
3574.07
7653.56
4972.73
3137.16
7242.27
50.8976
50.6799
59.3755
91.7912
108.21
29.0998
51.2033
74.8482
116.971
1970.2
792.281
3142.94
19.6447
2830.88
1334.78
3430.88
3117
86.0885
58.9627
28.1128
27.6218
48.6653
23.1212
69.526
148.421
0
19.695
176.988
67.1514
1437.59
29.5738
3.54719
21.4472
13.1995
0
0
36.9493
29.6945
7.44337
25.0659
17.1572
24.8604
29.9804
-1.33307e-15
15.2783
0.555395
21.3674
19.3051
26.3954
19.8827
15.7912
8.87464
12.8553
21.6322
17.1168
0
21.8576
40.7102
63.9689
0
16.8963
23.1642
0
10.1621
19.7574
15.9883
50.4814
22.558
16.6256
182.94
486.443
45.6524
231.595
536.864
56.831
6.98389
22.3657
28.094
0
3576.4
7139.99
11523.7
2999.42
8742.57
15.2344
30.8249
90.638
63.1116
118.43
20.155
81.8929
108.668
195.145
3427.3
2169.51
3767.41
62.1611
4585.25
3215.36
4230.12
2753.79
60.0245
117.064
25.8446
0
30.0456
86.8867
77.6955
398.4
37.5273
166.71
684.65
123.144
4130.38
-3.8398e-15
0
16.5056
26.2289
31.4545
7.58851
15.1259
9.83223
50.9069
34.176
0
29.9796
28.7929
50.4836
103.012
29.3689
12.1592
21.8085
19.6428
21.0226
15.4265
14.9138
10.5288
-3.68087e-15
83.8216
12.2493
21.2928
109.512
86.2814
15.2308
38.0809
23.4127
-1.08141e-14
26.1545
23.1007
35.4106
16.4636
5.08753
35.256
225.329
776.895
34.2957
199.265
1079.94
36.8124
6.58043
113.913
21.9476
28.0013
2145.07
7549.84
5159.38
4275.65
9318.21
3.93
28.4448
84.836
53.9878
126.637
31.3727
78.4548
36.7514
99.8404
7010.81
4927.21
5002.74
907.063
10290
5651.55
5355.06
3754.44
103.444
50.9674
251.949
133.527
15.8217
163.631
201.843
1072.52
136.455
184.749
1206.71
164.622
3509.64
0
23.6032
0
13.6688
9.99763
0
40.3756
9.08509
21.7013
19.3216
0
17.1255
7.41217
114.426
60.572
24.3927
2.08078
17.1174
6.31737
4.03583
38.1271
15.5188
5.81328
11.6895
61.6388
0.172969
38.1884
51.0884
76.6058
1.68972
28.8054
34.2089
11.7855
6.14099
18.289
24.5339
7.7439
23.5277
31.7056
134.168
901.061
70.6191
173.67
668.166
22.9912
13.1275
0
5.63079
21.4155
3122.3
3368.14
7707.17
3091.31
3182.01
23.8452
32.6384
88.9683
49.0147
111.804
29.8194
42.9725
44.426
119.105
12299.7
7476.47
5404.67
2447.15
3755.87
12942.5
6463.21
3538.96
122.698
61.0709
74.9178
173.269
39.0662
39.0604
70.4875
1174.05
132.001
108.822
915.701
58.1766
5443.42
11.9165
31.7392
0
-1.19926e-14
1.86005
0
15.6696
17.0371
17.1565
27.6386
0
24.7442
10.0705
75.9768
111.545
0
33.6185
5.31237
0.136771
0.255101
21.3076
18.6378
18.2769
15.1396
100.846
5.84619
42.5306
70.6269
110.421
11.7178
31.59
48.2655
40.1742
0
-1.37087e-14
51.5177
11.9718
0
34.7272
158.035
803.883
104.815
139.874
790.994
16.9835
21.7891
0
21.5397
7.62874
2620.24
6124.76
4680.42
2455.55
4985.37
44.8461
48.514
71.4363
23.9913
113.871
16.4292
18.7838
25.6998
47.7905
14904.8
11596.8
5050.09
1922.26
9566.38
19067.4
5180.31
5337.7
60.8001
60.7391
23.3208
44.0134
18.6412
20.4887
96.6347
864.4
102.048
38.6346
741.974
18.6442
3861.58
-1.06757e-14
0
0
27.6358
5.57563
0
20.572
5.68792
11.5873
29.8284
0
13.0789
33.0243
40.0813
69.4828
28.0253
25.0623
5.68617
-1.84688e-15
14.5108
19.2606
0.229754
23.0261
24.821
64.6237
11.3047
40.2239
33.6203
256.434
17.7543
106.991
60.8033
133.801
30.845
0
-1.70755e-15
0
0
0.228708
164.406
333.466
80.1552
147.412
230.311
19.3419
8.53385
0
24.5124
28.7951
2337.84
6461.26
4757.01
1823.74
8352.34
19.7157
8.19339
21.3038
44.5219
67.1074
18.9152
11.1105
33.0432
57.5722
26077.1
5140.67
4672.44
1804.65
5965.28