/*--------------------------------*- C++ -*----------------------------------*\
| =========                 |                                                 |
| \\      /  F ield         | OpenFOAM: The Open Source CFD Toolbox           |
|  \\    /   O peration     | Version:  5.x                                   |
|   \\  /    A nd           | Web:      www.OpenFOAM.org                      |
|    \\/     M anipulation  |                                                 |
\*---------------------------------------------------------------------------*/
FoamFile
{
    version     2.0;
    format      ascii;
    class       volScalarField;
    location    "0.35";
    object      voidfraction;
}
// * * * * * * * * * * * * * * * * * * * * * * * * * * * * * * * * * * * * * //

dimensions      [0 0 0 0 0 0 0];

internalField   nonuniform List<scalar> 
10571
(
0.873509
0.852363
0.822813
0.845254
0.81302
0.874015
0.866216
0.916532
0.791281
0.700776
0.932808
0.888779
0.829817
0.919177
0.873689
0.807931
0.845367
0.857941
0.798872
0.767718
0.699135
0.911579
0.810519
0.781122
1
0.979782
0.996146
0.999376
0.996893
0.994124
0.995681
0.991198
0.992104
0.997794
1
0.99526
0.993143
0.985618
0.978825
0.924401
0.994121
0.996526
0.995441
0.974316
0.993366
0.977056
0.996962
0.994895
1
0.983594
0.998381
1
0.998253
0.9952
0.99912
0.995285
0.993296
0.9922
1
0.999042
0.998074
0.99856
0.989779
0.908556
0.994579
0.995116
0.994044
0.990966
0.982293
0.979875
0.999103
0.993335
0.997473
0.9873
0.998892
0.999933
0.994992
1
0.988101
0.99626
0.992607
0.992589
0.993736
0.999966
0.998598
0.998463
0.988707
0.90838
0.99637
0.994494
0.996456
0.991717
0.997271
0.971449
0.998251
0.987821
0.997472
0.996192
0.999326
0.997702
0.997652
0.999797
0.996581
0.997478
0.993896
0.99095
0.996811
0.999291
0.998967
0.999005
0.988229
0.916794
0.992485
0.994924
0.996727
0.995039
0.996736
0.97708
0.999698
0.990398
0.99934
0.992215
0.990046
0.999018
0.996587
0.998682
0.998332
0.997785
0.994117
0.990563
0.703424
0.99989
0.999019
0.99947
0.999349
0.987253
0.886624
0.485524
0.992693
0.997588
0.997589
0.994219
0.992195
0.975374
0.998127
0.990884
0.997252
0.988909
0.997604
0.996715
0.997892
0.999831
0.99724
0.997859
0.993431
0.996329
1
1
0.9977
0.999664
0.999659
0.989115
0.890163
1
0.992842
0.99756
0.997644
0.996089
0.994161
1
0.976342
0.998792
0.985943
0.996373
0.988293
0.99676
0.999323
0.99312
0.999054
0.997865
0.999285
0.995514
0.988945
1
0.996371
0.998681
0.994171
0.999651
0.98447
0.887381
1
0.995278
0.998798
0.99841
0.995655
0.996261
1
0.981608
0.999094
0.986734
0.998571
0.979891
0.98137
0.998679
0.992435
0.999054
0.998737
0.999541
0.993122
0.992332
1
1
1
0.995765
0.999635
0.984114
0.894124
1
0.994105
0.997325
0.998641
0.997995
0.990906
0.972624
0.999094
0.980542
0.99989
0.990927
0.992645
1
0.996809
0.99875
0.995607
0.99964
0.993861
0.993104
0.995162
0.998038
0.997636
0.999813
0.978348
0.884617
0.998256
0.996679
0.998698
0.994958
0.977901
0.984241
0.99994
0.973028
0.996812
0.981743
0.994503
1
0.994772
1
0.994317
0.999411
0.993316
0.991085
1
1
0.997642
0.999736
0.974741
0.892598
0.998497
0.99804
0.99892
0.993251
0.978027
0.986139
0.99997
0.960584
0.998571
0.987512
0.995415
0.999223
0.997928
0.998041
0.999111
0.999113
0.99216
0.994035
0.991533
0.99902
0.995305
0.999574
0.96997
0.880736
0.997384
0.998174
0.998735
0.994093
0.98287
0.986333
0.997524
0.983269
0.992963
0.985328
0.994808
0.997365
0.996545
0.999662
0.999382
0.999436
0.993341
0.993644
0.9989
1
0.999119
0.999752
0.971186
0.869043
0.997174
0.995865
0.998763
0.995226
0.98523
0.987805
0.998581
0.961283
1
0.980904
0.99673
0.998987
0.98585
0.991557
0.998699
0.999371
0.990821
0.995115
0.998681
0.999662
0.991507
0.999663
0.968605
0.820869
0.994498
0.996624
0.998209
0.990785
0.976405
0.991405
0.996829
0.955961
0.99989
0.994288
0.996764
0.999054
0.988494
0.996082
0.999359
0.999325
0.993126
0.997752
1
0.99902
0.997284
0.999775
0.968617
0.842788
0.991972
0.999338
0.997352
0.990451
0.969615
0.995238
0.999124
0.960093
1
0.98712
0.994404
0.990473
0.988013
0.996049
0.997448
0.999125
0.991919
0.995115
0.996811
0.994727
0.999777
0.999439
0.972937
0.825616
0.988094
0.997137
0.992117
0.995393
0.956943
0.992102
0.991907
0.978436
0.996811
0.989809
0.986719
0.998683
0.994111
0.990883
0.998691
0.997375
0.991354
0.997053
0.996812
0.991247
0.999865
0.998277
0.978725
0.833764
0.992334
0.997392
0.992885
0.994892
0.862053
0.993844
0.988887
0.973181
1
0.989753
0.987225
0.996048
0.993301
0.996488
0.999119
0.988095
0.988555
0.992827
1
0.990132
0.9993
0.991687
0.987058
0.831043
0.997264
0.997129
0.994797
0.992489
0.65763
0.993071
0.994717
0.98215
1
0.990089
0.98854
0.998716
0.992791
0.997029
0.998985
0.992927
0.990707
0.996395
1
0.984555
0.999027
0.987044
0.983921
0.786954
0.998046
0.997694
0.990407
0.995761
0.69942
0.988078
0.995864
0.96136
0.996812
0.999664
0.995888
0.997129
0.996576
0.996083
0.999233
0.996201
0.993845
0.99531
0.99956
0.993883
0.998854
0.999051
0.982251
0.718458
0.996844
0.992292
0.972534
0.982842
0.71139
0.991483
0.996196
0.90711
1
0.996809
0.994304
0.997298
0.995975
0.999021
0.998627
0.990225
0.995117
0.991627
0.996592
0.986448
0.99915
0.996937
0.964336
0.618857
0.99528
0.992894
0.981302
0.99536
0.63684
0.988192
0.990761
0.784679
1
0.995464
0.995315
0.999527
0.991589
1
0.99757
0.996561
0.997003
0.992557
0.992194
0.988577
0.998627
0.998958
0.908427
0.520224
0.998617
0.984786
0.950182
0.996261
0.65889
0.993264
0.988105
0.637329
1
0.995072
0.996427
0.993751
0.987503
0.998008
0.993827
0.993687
0.997706
0.995852
0.992524
0.984724
0.998419
0.999439
0.86152
0.532587
0.99489
0.987257
0.949866
0.927595
0.60856
0.995083
0.954291
0.608699
0.99934
0.9972
0.998382
0.99669
0.990718
0.996826
0.99208
0.997102
0.998659
0.991395
0.996812
0.992633
0.998096
1
0.849721
0.527206
0.995972
0.988618
0.963134
0.696462
0.62242
0.992876
0.968028
0.604639
1
0.996865
0.997944
0.985746
0.980446
0.997366
0.9896
0.993426
0.999039
0.994612
1
0.994728
0.996192
0.999102
0.858362
0.534703
0.997204
0.990552
0.966975
0.673195
0.59666
0.995896
0.977749
0.617309
0.996811
0.999888
0.997101
0.985847
0.991558
0.997906
0.992438
0.987247
0.998776
0.986238
0.997471
0.99831
0.991996
0.975154
0.872103
0.549907
0.998828
0.987891
0.980401
0.72754
0.54416
0.998219
0.992694
0.595819
1
0.993785
0.99582
0.995778
0.99198
1
0.997261
0.998219
0.998324
0.974686
0.990765
0.999797
0.995442
0.991377
0.893836
0.580921
0.999128
0.988404
0.975441
0.703038
0.59659
0.998142
0.995622
0.636909
0.9989
0.998936
0.995955
0.998953
0.99976
0.998041
0.998211
0.998626
0.996806
0.994651
0.997252
0.99902
0.996215
0.995621
0.901837
0.654374
0.999128
0.990362
0.970953
0.70651
0.6143
0.989819
0.99843
0.705999
1
0.996752
0.998045
0.998987
0.997807
0.998987
0.998939
0.995798
0.99836
0.994496
0.998571
1
0.995396
0.995574
0.903644
0.738257
0.998858
0.997795
0.973702
0.723968
0.53184
0.986722
0.999245
0.792519
1
0.997313
0.996427
1
0.999129
1
0.999847
0.986361
0.997944
1
1
1
0.997885
0.995501
0.907248
0.852518
1
0.998752
0.981197
0.676266
0.59008
0.998103
0.999819
0.87694
1
1
0.998618
0.997872
0.997386
1
0.999886
0.99802
0.998611
0.99969
1
1
1
0.998769
0.912002
0.896762
0.99982
0.999406
0.987358
0.673863
0.558432
0.998142
1
0.95751
0.997911
0.99384
0.999966
1
0.998257
1
0.999668
1
0.998615
0.998876
0.996811
1
1
0.999775
0.909842
0.969258
0.997956
0.999693
0.992909
0.701334
0.549683
0.997677
0.999124
0.98173
0.997911
0.996753
0.998247
0.99902
1
1
0.998932
1
0.999645
0.998914
1
1
0.999777
0.999775
0.914572
0.994771
1
0.999766
0.997659
0.690018
0.610024
0.995509
0.999124
0.99314
1
0.998208
0.998685
0.998041
1
1
0.997158
0.999889
0.999899
1
1
1
1
0.999547
0.915925
0.995496
1
0.999883
0.999256
0.625725
0.637044
0.998645
0.998249
0.99993
1
1
0.999663
0.997906
1
0.997839
0.99797
0.999816
0.999887
0.995502
1
1
1
0.999555
0.926054
0.99861
1
0.999883
0.999094
0.604594
0.751076
0.998877
0.999124
0.99825
1
0.999944
0.998382
0.997061
1
1
0.997161
0.999846
0.999762
0.998876
0.99989
1
0.999888
0.999071
0.931392
0.997007
1
1
0.998997
0.603626
0.798327
0.997058
0.99997
0.98705
1
1
0.994168
1
1
0.973897
0.995548
0.999555
0.999689
1
1
1
0.9991
0.997224
0.938206
0.999426
1
0.999649
0.997849
0.615577
0.875944
1
0.999336
0.97424
0.996811
0.998376
0.997303
0.997669
0.998287
0.992368
0.993556
0.998073
0.999766
1
1
0.99902
0.997492
0.989453
0.952238
0.9961
1
1
0.994041
0.612639
0.880775
0.998839
0.998067
0.9825
0.996701
0.996024
0.994977
0.999054
1
0.997231
0.995719
0.998139
1
1
1
0.998411
0.997696
0.982092
0.965824
0.99344
1
0.999713
0.99301
0.638176
0.905009
0.995508
0.991968
0.97571
0.996921
1
0.998045
0.997061
1
0.997771
0.996299
0.998411
0.999758
0.999767
1
0.996045
0.997465
0.978789
0.973804
0.995224
1
0.998748
0.989744
0.665916
0.900529
0.998916
0.9939
0.968426
0.996812
0.998376
0.998045
0.998379
0.999129
1
0.997635
0.99678
0.99981
0.999961
0.996921
0.995234
0.997331
0.976702
0.987273
0.990025
1
0.998397
0.987047
0.707543
0.868328
0.999845
0.996105
0.95492
0.998901
0.998936
0.997067
0.997028
0.999249
0.995205
0.996376
0.998354
0.999713
0.998876
0.996811
0.998445
0.998496
0.977705
0.992291
0.994468
0.998587
0.998987
0.988054
0.719728
0.855518
0.998877
0.996317
0.94204
1
0.996192
0.997438
0.998007
0.998348
0.998042
0.996292
0.996132
0.999063
0.99376
0.997471
0.994558
0.998611
0.979111
0.993337
0.985249
1
0.999475
0.992145
0.781918
0.841938
1
0.989643
0.906969
1
0.996752
0.996191
0.99902
0.998258
0.995307
0.997387
0.997912
0.999221
0.996705
1
0.997432
0.998681
0.980671
0.994346
0.978659
0.998256
0.999415
0.994433
0.854589
0.810298
0.998916
0.990638
0.880426
0.997691
0.998264
0.993259
0.995305
0.996636
0.998041
0.996398
0.998254
0.997165
0.988409
1
0.999054
0.999335
0.986111
0.996105
0.96115
0.998286
0.999083
0.992974
0.900656
0.793264
0.999109
0.976866
0.848712
0.993294
0.98757
0.991
0.998548
0.997867
0.993179
0.996551
0.998292
0.99807
0.979644
0.996812
0.996756
0.998069
0.988601
0.995769
0.950111
0.997354
0.998785
0.994122
0.922053
0.818958
0.997986
0.974454
0.839489
0.998131
0.980061
0.93217
0.993954
0.997116
0.991625
0.996921
0.998001
0.996058
0.938351
0.994501
0.996418
0.998588
0.990425
0.993746
0.951532
0.996513
0.99853
0.996434
0.93564
0.847591
0.997018
0.955219
0.837669
0.996811
0.963426
0.853662
0.983918
0.971004
0.893166
0.997974
0.997747
0.995218
0.823468
0.992304
0.986347
0.998488
0.993894
0.992696
0.974662
0.996723
0.996633
0.994939
0.943852
0.905128
0.983311
0.926497
0.856919
0.732337
0.77731
0.912737
0.944925
0.798381
0.834994
0.993247
0.998427
0.995824
0.781361
0.992963
0.917937
0.997008
0.993755
0.989818
0.969129
0.924097
0.989611
0.994716
0.944753
0.975777
0.764686
0.946997
0.931952
0.987244
0.989136
1
1
0.948739
0.971671
0.991416
0.997901
0.99702
0.969098
0.962059
0.874854
0.995942
0.994804
0.984833
0.985218
0.899538
0.986688
0.993479
0.961511
0.98614
0.860391
0.979433
0.985368
1
0.993336
0.997775
1
0.99997
0.998042
0.996677
0.999294
0.996818
0.990501
0.986363
1
0.996138
0.994699
0.985518
0.988332
0.999128
0.990871
0.993111
0.968087
0.98215
0.97716
0.97968
0.99363
0.996372
0.993504
0.998045
0.998615
1
1
0.998375
0.998258
0.996042
0.990152
1
1
0.9962
0.994328
0.982535
0.989602
1
0.994759
0.991955
0.98421
0.98012
0.984437
0.990792
0.9853
0.990765
0.992945
0.996966
1
1
0.996894
0.999485
0.998595
0.995622
0.997209
0.998681
1
0.999008
0.994719
0.985798
0.991929
1
0.997367
0.990872
0.982107
0.97116
0.996709
0.992754
0.989989
0.996701
1
0.977012
1
1
0.996387
0.999786
0.998803
0.995986
0.997481
1
0.999358
0.999331
0.995168
0.985806
0.993894
0.998256
0.997589
0.990653
0.984478
0.97795
0.994038
0.992663
0.991249
1
1
0.966967
0.999392
0.99997
0.999561
0.999557
0.999405
0.996979
0.998062
1
0.99804
0.998973
0.99521
0.990082
0.994831
0.998256
0.997977
0.990374
0.991454
0.97697
0.995238
0.989886
0.99223
1
1
1
0.996116
0.998258
1
0.999889
0.999332
0.996717
0.995504
1
0.997533
0.998431
0.996434
0.99148
0.993803
0.999128
0.998288
0.994445
0.989785
0.97452
0.996439
0.990369
0.99041
1
1
1
0.995845
0.998558
1
0.999657
0.999777
0.996858
0.996627
1
1
0.999
0.998521
0.994026
0.992291
1
0.999536
0.994898
0.99339
0.964148
0.994736
0.988075
0.98915
1
1
1
0.998075
0.997386
1
0.995643
0.999893
0.998995
1
1
1
0.999592
0.999249
0.994934
0.994438
1
0.999883
0.996883
0.995193
0.9575
0.995897
0.984995
0.990267
1
1
1
0.99902
1
1
0.973629
0.995476
0.999843
0.997946
1
1
0.999627
0.999888
0.997845
0.991145
1
0.999887
0.998128
0.995894
0.938673
0.999303
0.99538
0.993908
1
1
1
1
1
1
1
0.993917
0.999984
0.993148
1
1
0.998773
0.998296
0.99953
0.991127
1
0.99723
0.99958
0.996463
0.921728
0.994385
0.992571
0.993559
1
1
1
1
1
1
1
0.993227
0.990685
0.983421
1
1
0.996765
0.993536
0.983485
0.992294
1
0.985787
0.993836
1
0.885091
1
0.990518
0.973541
1
1
1
1
1
1
1
1
0.998771
0.999296
1
1
1
0.999248
0.993635
0.982348
1
1
0.995275
0.981947
0.992646
1
0.999366
0.977947
1
1
1
1
1
1
1
1
1
1
1
1
1
1
1
1
1
1
1
1
1
1
1
1
1
1
1
1
1
1
1
1
1
1
1
1
1
1
1
1
1
1
1
1
1
1
1
1
1
1
1
1
1
1
1
1
1
1
1
1
1
1
1
1
1
1
1
1
1
1
1
1
1
1
1
1
1
1
1
1
1
1
1
1
1
1
1
1
1
1
1
1
1
1
1
1
1
1
1
1
1
1
1
1
1
1
1
1
1
1
1
1
1
1
1
1
1
1
1
1
1
1
1
1
1
1
1
1
1
1
1
1
1
1
1
1
1
1
1
1
1
1
1
1
1
1
1
1
1
1
1
1
1
1
1
1
1
1
1
1
1
1
1
1
1
1
1
1
1
1
1
1
1
1
1
1
1
1
1
1
1
1
1
1
1
1
1
1
1
1
1
1
1
1
1
1
1
1
1
1
1
1
1
1
1
1
1
1
1
1
1
1
1
1
1
1
1
1
1
1
1
1
1
1
1
1
1
1
1
1
1
1
1
1
1
1
1
1
1
1
1
1
1
1
1
1
1
1
1
1
1
1
1
1
1
1
1
1
1
1
1
1
1
1
1
1
1
1
1
1
1
1
1
1
1
1
1
1
1
1
1
1
1
1
1
1
1
1
1
1
1
1
1
1
1
1
1
1
1
1
1
1
1
1
1
1
1
1
1
1
1
1
1
1
1
1
1
1
1
1
1
0.412849
0.41282
0.42136
0.419062
0.440783
0.411722
0.430131
0.422537
0.424074
0.424407
0.416711
0.417551
0.439555
0.437748
0.444755
0.462651
0.5703
0.428516
0.426016
0.464356
0.434482
0.421397
0.423688
0.467314
0.474129
0.448708
0.442337
0.460399
0.421135
0.422532
0.436278
0.426119
0.462028
0.568165
0.633835
0.62024
0.508392
0.503153
0.50902
0.490867
0.540827
0.544903
0.504322
0.471159
0.482022
0.47292
0.468994
0.448751
0.462076
0.423189
0.431409
0.425548
0.49267
0.423238
0.438115
0.556058
0.45804
0.446394
0.445404
0.439223
0.469309
0.422779
0.464933
0.496333
0.525216
0.504758
0.473908
0.487898
0.436691
0.449594
0.425234
0.420606
0.429843
0.4134
0.433089
0.423365
0.441178
0.45492
0.456187
0.433362
0.441788
0.425034
0.435233
0.504497
0.452798
0.432896
0.425495
0.440031
0.442458
0.464958
0.42266
0.448184
0.417114
0.416088
0.417993
0.42884
0.814399
0.993338
0.904483
0.83997
0.877003
0.993848
0.982396
0.958348
0.856488
0.874259
0.972317
0.958208
0.960514
0.786019
0.975553
0.867565
0.991772
0.840918
0.836424
0.807317
0.992263
0.983534
0.977286
0.950321
0.740511
0.84587
0.769812
0.929843
0.969895
0.628648
0.921764
0.717953
0.985742
0.914784
0.933453
0.908175
0.981661
0.995863
0.962804
0.787408
0.779595
0.957105
0.975104
0.982067
0.908214
0.910612
0.991303
0.968736
0.981656
0.825133
0.7754
0.913652
0.973267
0.987804
0.883348
0.988559
0.840248
0.838772
0.864912
0.963799
0.827286
0.977526
0.978618
0.753364
0.781996
0.76253
0.676939
0.969709
0.928365
0.991355
0.978751
0.866569
0.980649
0.837327
0.853511
0.979147
0.948584
0.983568
0.816262
0.808391
0.85282
0.812563
0.895788
0.954255
0.991199
0.989926
0.993783
0.993262
0.997035
0.993701
0.993801
0.9974
0.997294
0.999153
1
0.996423
0.997807
0.992321
1
0.993983
0.997959
0.985415
0.991286
0.988811
0.981882
0.984937
0.990178
0.991067
0.999788
0.962995
0.989341
0.996659
0.996824
0.999937
0.995439
0.987879
0.99146
0.996649
1
0.997812
0.997089
1
0.999143
0.987413
0.987022
0.99412
0.987072
0.993586
0.997092
0.995064
1
0.999143
0.997806
0.982201
0.989372
0.907221
0.970879
0.989225
0.996093
1
0.989098
0.992787
0.985765
0.994623
0.994751
1
0.983562
0.994594
0.994319
0.994363
0.996303
0.992862
0.987483
0.987116
0.995346
0.981646
0.974299
0.994469
0.996893
0.984069
0.993778
0.990557
0.997609
1
0.997126
0.99575
0.996852
0.991995
0.997514
0.997985
1
0.995479
0.996796
0.992536
0.994719
0.999668
1
0.998122
0.996817
0.997377
0.995912
0.996615
0.996038
0.99793
0.994098
0.989611
0.993894
0.994467
0.991741
0.989995
0.992833
0.997198
0.996773
0.999002
0.996301
0.993039
0.989917
0.998172
0.995003
0.995841
0.983822
0.997394
1
0.998263
0.993754
0.996817
0.998252
0.981253
0.990364
0.989368
0.981466
0.993733
0.998652
0.999847
1
0.999427
0.992169
0.989823
0.987551
0.914141
0.972422
0.988557
0.997996
0.995897
0.99752
0.990536
0.989733
0.996562
0.998726
0.986434
0.993224
0.988987
0.992623
0.987294
0.993211
0.996174
0.991253
0.99008
0.992596
0.977737
0.982556
0.992463
1
0.981888
0.996204
0.993643
0.999039
1
0.997078
0.997913
1
0.995879
1
0.990036
0.991538
0.998879
0.989663
0.996812
0.996635
0.996459
0.998246
0.996636
0.99934
0.996458
0.998878
0.995959
0.993933
0.999165
0.995961
0.993813
0.993817
0.999385
0.986115
0.990751
0.992587
0.997791
0.995057
0.999967
0.992626
0.997385
0.995106
0.999044
0.996028
0.996506
0.994267
0.997101
0.99989
0.998247
0.998607
0.995712
0.996731
0.980992
0.99978
0.99449
0.975774
0.987419
0.998246
0.994663
1
0.998062
0.994697
0.984267
0.988052
0.921865
0.966985
0.991287
0.996097
0.998675
0.995569
0.984827
0.988367
0.993991
0.99157
0.992745
0.990651
0.991892
0.991405
0.982992
0.992145
0.994129
0.986914
0.983479
0.992786
0.981541
0.96859
0.995567
1
0.977082
0.993084
1
0.997832
1
0.998249
0.995505
1
0.996288
0.988709
0.994006
0.996811
0.997369
0.995459
1
0.992143
0.997062
0.998061
0.998877
1
0.99597
0.995273
0.99672
0.995253
0.997701
0.996935
0.989338
0.995383
0.996552
0.988911
0.985619
0.994845
0.993197
0.994313
0.998709
0.996834
0.999698
0.995723
0.997437
0.991687
0.993001
0.984793
0.99168
0.990324
0.994853
0.999071
1
0.995063
0.979106
0.992491
0.997279
0.972755
0.951482
0.999909
0.993263
1
0.999121
0.994656
0.966691
0.988871
0.901774
0.962431
0.979719
0.998396
0.996442
0.996836
0.992632
0.98632
0.992242
0.997757
0.995387
0.987891
0.991282
0.980155
0.98273
0.995958
0.996747
0.986557
0.985069
0.994146
0.974114
0.97817
0.994504
0.996708
0.981453
0.991661
0.990561
0.998139
1
0.999456
0.99806
1
0.991725
0.987383
0.986616
0.996371
0.993536
0.997365
0.990214
0.997019
0.99473
0.999121
0.99752
0.997032
0.998212
0.997985
0.99246
0.995535
0.991362
0.993661
0.982141
0.99547
0.993129
0.98342
0.988762
0.992877
0.990066
0.994468
0.998997
0.995802
0.99698
0.987175
0.998077
0.992176
0.996271
0.993371
0.995162
1
0.997728
0.992026
1
0.996668
0.975543
0.977705
0.845086
0.99588
1
0.982588
0.988808
0.436975
0.518563
0.40014
0.998575
0.944923
0.992233
0.902932
0.998273
0.997483
0.996811
0.998212
0.997754
0.832122
0.972631
0.954069
0.891948
0.973529
0.981293
0.992633
0.391607
0.655674
0.401757
0.98631
0.90451
0.998155
0.937888
1
0.997628
0.9968
0.9919
0.986013
0.993624
0.997293
0.990831
0.987889
0.993738
0.98298
0.973553
0.997377
0.996156
0.971656
0.986839
0.995334
0.974602
0.972852
0.993324
1
0.97758
0.996192
1
0.994062
0.996817
0.998157
0.997826
1
0.973168
0.99519
0.995887
0.996921
0.996129
0.997062
0.992194
0.988193
0.997668
0.998121
1
0.997472
0.999121
0.99667
0.994358
0.994226
0.996656
0.996029
0.988102
0.997616
0.994299
0.989133
0.988911
0.994814
0.999055
0.991128
0.999023
0.990417
0.998016
0.989277
0.998046
0.995065
0.993791
1
0.993249
1
1
1
1
1
0.99671
0.997801
0.997092
0.993497
0.992632
0.997546
0.998178
0.978949
0.995229
0.994283
0.999
0.966585
0.994844
1
0.999841
1
1
1
1
1
0.99897
0.99849
0.99923
0.996242
0.994578
0.978988
0.983587
0.993816
0.89351
0.984483
0.980538
0.996388
1
1
1
1
1
1
0.998297
0.996302
0.999581
0.998878
0.986499
0.99231
0.99591
0.99967
0.989649
0.994308
0.994773
0.982155
0.978109
0.996265
0.994727
0.983417
0.978097
0.999554
0.990511
1
1
0.998541
1
0.966135
0.97824
0.998218
0.996817
0.970688
0.996495
0.996378
0.995149
1
0.997675
0.995849
1
0.990502
0.991914
0.996654
0.981529
0.996013
0.993367
0.996811
0.989006
0.996971
0.996152
0.997019
1
0.998424
0.994618
0.996036
0.993458
0.988645
0.989411
0.988761
0.993771
0.992116
0.991654
0.987413
0.996274
0.996156
0.992515
0.997878
0.994396
0.99233
0.994925
0.999024
0.989643
0.996931
1
0.996672
1
1
1
1
1
0.989626
1
0.995123
0.987497
0.996811
0.993457
0.997634
0.973569
0.994921
0.993344
0.997993
0.97831
0.991845
1
1
1
1
1
1
1
0.998667
0.992564
1
0.997636
0.986948
0.985409
0.981053
0.993094
0.900934
0.981404
0.979174
0.992109
1
1
1
1
1
1
0.999256
0.999023
0.995465
0.998845
0.992968
0.990644
0.995368
0.996172
0.992856
0.989676
0.995257
0.975367
0.983624
0.999151
0.994046
0.976179
0.980159
1
0.991343
1
1
1
1
0.958649
0.968374
0.994501
0.994074
0.980291
0.994471
0.99572
0.995501
0.996818
0.997312
0.999185
0.998025
0.98127
0.994632
0.995887
0.996811
0.995316
0.990823
0.993513
0.990052
0.983645
0.997182
0.997327
0.993733
0.998606
0.997327
0.999164
0.993305
0.992267
0.990944
0.991129
0.993652
0.994137
0.975523
0.992898
0.996126
0.989513
0.9876
0.998991
0.990748
0.99578
0.990084
0.999733
0.992925
0.998283
0.993781
0.996555
0.996811
0.992699
0.994232
1
0.997334
0.998346
0.977241
0.991861
0.991458
1
0.974105
0.990969
1
1
1
1
1
1
1
0.996455
0.994152
1
0.996
0.995275
0.973894
0.98397
0.994158
0.903739
0.98357
0.971684
0.995448
1
1
1
1
1
1
1
0.997977
0.997977
0.99934
0.984811
0.993006
0.997865
0.999043
0.995556
0.988162
0.995151
0.976723
0.983296
0.995951
0.997636
0.983841
0.988246
0.991098
0.983348
0.97859
0.993232
0.997915
0.982266
0.994743
1
0.999612
1
0.997252
0.995035
1
0.980175
0.993796
0.995679
0.990434
0.990943
0.98622
0.996811
0.990441
0.993095
0.999152
0.997483
1
0.998243
0.997793
0.992606
0.994282
0.993034
0.99805
0.989034
0.998391
0.996809
0.987399
0.993469
0.994428
0.9944
0.987153
0.99804
0.993628
0.995068
0.991911
0.990839
0.99478
0.983345
0.982689
0.996052
1
0.996486
0.996516
0.99934
0.997365
0.969809
0.992856
0.986718
0.964415
0.982125
0.992516
0.994423
0.99956
0.993395
0.986911
0.986364
0.983075
0.897302
0.981416
0.981448
0.99993
0.997279
0.998812
0.99685
0.99337
0.995339
1
0.994094
0.987437
0.990246
0.985639
0.979365
0.996317
0.984917
0.975346
0.982324
0.987223
0.965088
0.975863
0.996526
1
0.975918
0.996345
0.996817
0.989492
1
0.999819
0.995737
1
0.967645
0.993658
0.997142
1
0.993808
0.995125
1
0.99524
0.995761
0.998243
0.994039
1
0.996547
0.993265
0.993168
0.996515
0.991223
0.99394
0.991971
0.996246
0.993327
0.972783
0.990055
0.997378
0.996094
0.989216
0.987038
0.988592
0.999069
0.992755
0.990578
0.995314
0.981603
0.990091
0.996091
0.997471
0.999818
0.9964
1
0.998122
0.956785
0.985065
0.990662
0.971232
0.978133
0.997
0.98908
0.996811
0.995152
0.997986
0.974622
0.975343
0.890501
0.989461
0.971865
0.99993
0.995605
0.999076
0.990607
0.992644
0.995069
0.998285
0.989032
0.987952
0.992617
0.96883
0.985768
0.998064
0.990156
0.978569
0.987632
0.994622
0.96103
0.964109
0.998369
0.997476
0.981803
0.996074
0.999341
0.98892
1
0.997584
0.978115
0.994952
0.963949
0.992473
0.994006
0.996811
0.993925
0.994247
1
0.995473
0.998425
0.995487
0.99431
0.995492
0.995366
0.995471
0.992959
0.993935
0.99589
0.995194
0.988767
0.995352
0.997006
0.9916
0.995956
0.99562
0.995867
0.996012
0.988735
0.990386
0.997477
0.988202
0.991336
0.986904
0.980228
0.979793
0.994775
1
0.993004
0.986764
0.996811
0.997456
0.983547
0.99362
0.988337
0.979852
0.977556
0.996243
0.99636
0.993622
0.998728
0.995895
0.976374
0.965878
0.881584
0.971095
0.953212
1
0.986189
0.999802
0.996175
0.982503
0.997234
0.996109
0.995107
0.982352
0.987929
0.976867
0.98746
0.994393
0.980179
0.975863
0.992711
0.966483
0.969636
0.983699
0.996949
1
0.983894
0.999366
1
0.989659
0.998903
0.998762
0.975173
1
0.956386
0.994006
0.991916
1
0.995047
0.995488
1
0.994351
0.995822
0.994124
0.997678
1
0.992246
0.992413
0.993238
0.994353
0.990039
0.993592
0.992062
0.995799
0.99564
0.978608
0.99374
0.997408
0.993004
0.985446
0.984613
0.986054
0.988254
0.979882
0.990181
0.9846
0.979716
0.991955
0.997562
0.996811
0.995609
0.997755
1
0.997062
0.978426
0.970843
0.991007
0.972432
0.965672
0.997364
0.997367
0.99912
0.997243
0.994811
0.96142
0.96191
0.84935
0.940757
0.961982
0.998605
0.994001
0.999044
0.993982
0.981263
0.998527
1
0.992744
0.97639
0.970841
0.968928
0.978469
0.993189
0.974315
0.98194
0.969934
0.990968
0.976703
0.968797
0.99855
0.996817
0.981649
0.999124
1
0.976528
1
0.999517
0.986482
1
0.979556
0.992055
0.994006
1
0.99319
0.993096
1
0.990056
0.993127
0.996517
1
0.99989
0.993942
0.996052
0.995887
0.99512
0.99798
0.994497
0.989367
0.995084
0.992224
0.994568
0.992781
0.995978
0.993265
0.984152
0.987578
0.988836
0.974614
0.990503
0.989719
0.986748
0.992444
0.992794
0.997252
1
0.995276
0.999536
1
0.997062
0.97912
0.981627
0.994805
0.967741
0.972386
0.996153
0.994424
0.994832
0.996668
0.994618
0.947465
0.962212
0.820259
0.954719
0.94804
0.99714
0.995815
0.995186
0.99027
0.988467
0.995851
0.995087
0.990157
0.994128
0.971325
0.974217
0.969594
0.991052
0.96324
0.963119
0.973607
0.983827
0.970406
0.962291
0.999668
1
0.989276
0.998188
1
0.975095
1
0.998822
0.985475
1
0.961984
0.998049
0.993867
0.994832
0.986651
0.991159
0.992523
0.996247
0.995943
0.996002
0.987033
1
0.995033
0.99849
0.994702
0.998466
0.990736
0.99394
0.996466
0.996842
0.993655
0.987232
0.995237
0.999136
0.996974
0.985951
0.994233
0.99522
0.992309
0.997808
0.994925
0.997216
0.996712
0.997901
0.997059
1
1
0.995124
1
0.998244
0.978817
0.971506
0.995154
0.978999
0.977447
0.99794
0.998141
0.993403
0.993335
0.999419
0.959996
0.949165
0.835744
0.942521
0.931742
0.997768
0.998117
0.996142
0.992238
0.980295
0.994408
0.994592
0.98982
0.978963
0.951984
0.972727
0.966204
0.990351
0.946371
0.967832
0.979259
0.968705
0.973415
0.971736
0.998943
1
0.989121
0.99704
0.996707
0.980866
1
0.996376
0.973972
0.996927
0.951482
0.994494
0.996655
1
0.995202
0.997366
0.996811
0.994389
0.997366
0.997092
0.995587
1
0.994518
0.993729
0.985708
0.986336
0.997492
0.99596
0.994519
0.996187
0.993948
0.989528
0.989756
0.995889
0.996063
0.994717
0.997364
0.99767
0.984859
0.996628
0.993937
0.999092
0.993844
1
0.996826
1
0.998122
0.999381
1
0.995609
0.979483
0.991089
0.994767
0.982207
0.990429
0.995304
0.998877
0.996481
0.993456
0.997715
0.9556
0.877848
0.829879
0.920211
0.838163
0.991002
0.99449
0.995746
0.990495
0.980355
0.98611
0.994032
0.993532
0.976359
0.933803
0.956278
0.956087
0.995726
0.90827
0.95789
0.93399
0.912555
0.977962
0.978102
0.998822
1
0.992644
0.998218
0.996707
0.978736
0.99572
0.99544
0.973391
0.998025
0.983827
0.991986
0.997212
1
0.993925
0.996488
1
1
0.994308
0.996184
0.998645
0.996812
0.997365
0.997484
0.995956
1
0.997841
0.99596
0.993322
0.999136
0.991802
0.988688
0.995596
0.997736
0.995574
0.989433
0.993904
0.995068
0.993962
0.992303
0.995947
0.994494
1
0.995943
0.992454
1
0.992157
0.998258
1
0.995366
0.982719
0.961383
0.997752
0.979878
0.987349
0.995214
0.993302
0.996811
0.992273
0.994385
0.91647
0.80766
0.845523
0.912523
0.755234
0.993582
0.988352
0.996934
0.992407
0.978117
0.994347
0.995251
0.988021
0.98105
0.923912
0.957278
0.931548
0.996962
0.900347
0.965342
0.898628
0.76676
0.975372
0.972367
0.996889
0.994841
0.994967
1
0.996818
0.986713
0.992646
0.996075
0.992797
0.996818
0.99174
0.99561
0.991845
0.997911
0.998878
0.992432
0.995601
0.999961
0.995457
0.999122
0.997949
1
0.997062
0.996632
1
0.993934
0.993941
0.99798
0.988439
0.998987
0.991216
0.9902
0.994698
0.995203
0.991897
0.986342
0.997463
0.993555
0.991828
0.987695
0.996177
0.99997
0.998391
0.997482
0.990171
1
0.997941
0.992027
1
0.995214
0.986866
0.990538
0.995504
0.974402
0.970408
0.996486
1
1
0.996122
0.995973
0.847117
0.723481
0.824513
0.806803
0.688563
0.99735
0.996582
0.998352
0.990327
0.980054
0.999038
0.994987
0.990832
0.980989
0.872691
0.956012
0.858
0.994524
0.873411
0.944867
0.818441
0.641058
0.96824
0.953054
0.999124
1
0.990707
0.999426
0.996817
0.986794
1
0.995923
0.976912
0.993634
0.967649
0.993798
0.996515
0.996922
0.997872
0.999939
0.996811
0.996478
0.996336
0.99679
1
1
0.999152
0.996593
0.993936
0.995956
0.994637
0.996517
0.994909
0.99714
0.99216
0.994008
0.996465
0.998034
0.994826
0.996179
0.994926
0.992407
0.994591
0.99792
0.998088
0.99652
0.997972
0.993983
0.999845
1
0.995125
0.99729
1
0.996638
0.960879
0.968761
0.996123
0.957113
0.970511
0.994881
0.997754
0.996811
0.998121
0.998877
0.770344
0.688923
0.746363
0.775981
0.647576
0.996652
0.993234
0.996769
0.995669
0.9819
0.995279
0.991029
0.993139
0.980989
0.866835
0.932817
0.736003
0.995959
0.829109
0.917407
0.710929
0.726067
0.976355
0.976842
0.999124
1
0.993495
0.994895
0.997475
0.990241
1
0.996768
0.983187
0.985401
0.946082
0.99993
0.997979
1
0.997369
0.9901
1
0.992028
0.991097
0.999122
0.996633
0.998131
0.997001
0.994386
0.992611
0.999721
0.99805
0.99596
0.991644
0.996694
0.996487
0.99356
0.995507
0.997795
0.992352
0.996741
0.998089
0.999123
0.995583
0.998707
0.999572
0.998911
0.997972
0.992233
0.995898
1
0.999122
0.996246
1
0.997668
0.961545
0.956332
0.994262
0.972821
0.936951
0.995426
0.998645
0.996811
0.997697
0.999071
0.727159
0.620173
0.66348
0.675953
0.595377
0.995955
0.997977
0.989318
0.993139
0.981115
0.995129
0.987236
0.989312
0.963943
0.794946
0.90944
0.66927
0.986075
0.737546
0.84339
0.647508
0.652121
0.979365
0.972711
0.997554
0.986609
0.991443
0.997372
0.994513
0.974015
0.995501
0.996104
0.977338
0.995939
0.8248
0.993798
0.993308
1
0.99586
0.996791
0.996811
0.998839
0.999122
0.997062
0.996632
1
0.997365
0.996594
0.993098
0.986127
0.99596
0.99596
0.995927
0.998898
0.991216
0.997816
0.994338
0.99997
0.995639
0.993819
0.997628
0.99522
0.989574
0.996853
1
0.997579
0.999231
0.996852
0.998878
1
0.999697
0.995742
1
0.997092
0.959423
0.933555
0.996937
0.959659
0.886789
0.99476
0.993844
0.994501
0.996697
0.998141
0.642219
0.571127
0.580718
0.651771
0.560564
0.991141
0.991351
0.990406
0.981722
0.976848
0.995069
0.991722
0.984869
0.976022
0.683253
0.804654
0.643559
0.994791
0.639667
0.731817
0.618793
0.638397
0.980202
0.985867
0.995621
0.995719
0.991405
0.996345
0.989464
0.964563
1
0.996074
0.955764
0.990452
0.719274
0.994634
0.999582
0.996812
0.997756
1
1
0.993731
0.995124
0.998849
0.995897
0.997581
0.996305
0.995084
1
0.997212
0.99993
0.996447
0.996526
0.99583
0.996487
0.997144
0.998412
0.997914
0.99642
0.996797
1
0.996098
0.992609
0.988142
1
0.996944
0.995943
1
0.998375
0.997362
0.997547
0.992026
0.996921
0.997456
0.952373
0.86249
0.991123
0.939625
0.850592
0.991155
0.998877
0.996701
0.995607
1
0.625957
0.541514
0.532609
0.671007
0.516613
0.99735
0.994698
0.985164
0.987065
0.975514