/*--------------------------------*- C++ -*----------------------------------*\
| =========                 |                                                 |
| \\      /  F ield         | OpenFOAM: The Open Source CFD Toolbox           |
|  \\    /   O peration     | Version:  5.x                                   |
|   \\  /    A nd           | Web:      www.OpenFOAM.org                      |
|    \\/     M anipulation  |                                                 |
\*---------------------------------------------------------------------------*/
FoamFile
{
    version     2.0;
    format      ascii;
    class       volScalarField;
    location    "0.1";
    object      voidfraction;
}
// * * * * * * * * * * * * * * * * * * * * * * * * * * * * * * * * * * * * * //

dimensions      [0 0 0 0 0 0 0];

internalField   nonuniform List<scalar> 
10571
(
0.961563
0.87722
0.999172
1
0.976047
0.998629
1
1
1
0.976211
0.966031
1
1
1
1
0.985729
0.980804
1
1
0.998685
0.926289
0.992756
0.993527
0.963231
0.943293
0.873503
1
1
0.975763
1
1
1
0.997471
0.97099
0.93086
1
1
1
0.99758
0.985006
0.970547
0.999627
0.999566
0.997404
0.892592
0.98202
0.989625
0.934691
0.921231
0.865926
0.999009
1
0.981288
1
1
1
0.999032
0.959655
0.886986
1
1
1
0.997898
0.981232
0.980271
0.999841
0.999813
0.998696
0.91355
0.97227
0.985167
0.927656
0.911434
0.858063
0.999026
1
0.976668
0.999024
1
1
0.999184
0.952894
0.904279
1
1
1
0.998913
0.960738
0.971079
0.999928
0.999419
0.999368
0.929103
0.966033
0.977808
0.928888
0.924147
0.874728
0.998753
1
0.979408
0.999055
1
1
0.999875
0.943866
0.922703
1
1
1
0.999203
0.974493
0.977515
0.999681
0.999882
0.999028
0.921882
0.967711
0.979469
0.948978
0.950305
0.921027
0.999021
0.99509
0.961099
0.978479
0.983764
0.997264
0.998734
0.959616
0.993103
0.927534
0.996517
0.999977
1
0.999673
0.975093
0.977065
0.977356
0.994273
0.999536
0.998005
0.909128
0.954349
0.976503
0.932821
0.948992
0.907018
0.999764
0.993633
0.975243
0.996789
0.978382
0.985261
0.983598
0.970359
0.997604
0.970969
0.994181
0.989148
0.995089
0.987935
0.978544
0.996929
0.972692
0.98367
0.98938
0.987824
0.941563
0.997619
0.957872
0.97738
0.917126
0.988018
0.946787
0.999359
0.995192
0.989424
0.998479
0.985521
0.987695
0.987638
0.973467
0.999199
0.96492
0.995094
0.98541
0.985479
0.986728
0.986433
0.995049
0.98009
0.992404
0.988453
0.983944
0.963694
0.996309
0.978743
0.98161
0.928155
0.949871
0.950317
0.997064
0.992991
0.977032
0.98557
0.994413
0.983979
0.98635
0.976091
0.979276
0.959313
0.986366
0.986708
0.989368
0.986573
0.990911
0.940297
0.991128
0.984592
0.987598
0.997893
0.966775
0.965422
0.985684
0.957725
0.988786
0.953065
1
1
0.985097
0.999324
0.985748
0.995016
0.992284
0.981545
0.992962
1
0.99676
0.999617
0.996157
0.965625
0.988151
0.994928
0.999384
0.998219
0.966366
0.961668
0.98481
0.968614
0.978892
0.971214
0.998246
0.994085
0.987681
0.995744
0.992203
0.985566
0.985061
0.96216
0.960525
0.993001
0.989776
0.991496
0.984561
0.977956
0.989055
0.989045
0.990998
0.996659
0.948033
0.978318
0.996195
0.980957
0.968446
0.943663
0.998955
1
0.992912
0.999662
1
0.997109
0.995386
0.981446
0.970641
1
0.998307
0.993178
0.990098
0.981931
0.989326
0.999233
0.993701
0.99436
0.966928
0.977777
0.985899
0.986349
0.996811
0.961584
0.9941
0.992905
0.988524
0.991523
0.991769
0.995797
0.992033
0.968954
1
0.98925
0.998242
0.998776
0.995015
0.982527
0.985538
0.995078
0.99958
0.998064
0.96556
0.977429
0.992421
0.971295
1
0.946576
0.997067
0.998041
0.989695
0.998683
0.991892
0.994389
0.993526
0.971778
1
0.997769
0.99715
0.996391
0.992388
0.982314
0.987372
0.9936
0.996341
0.997496
0.961843
0.969763
0.991666
0.968914
1
0.88789
0.998483
0.993953
0.981884
0.994799
0.99525
0.987907
0.993789
0.959102
0.993403
0.99831
0.994527
0.995621
0.993041
0.973032
0.980998
0.995268
0.99337
0.997229
0.976896
0.968292
0.998943
0.968495
1
0.961193
0.991167
0.99277
0.981344
0.993887
0.999302
0.993641
0.993308
0.960265
0.996811
0.998411
0.996511
0.987277
0.989883
0.973486
0.970265
0.99616
0.989598
0.996194
0.951552
0.980836
0.995712
0.960303
1
0.968026
0.99036
0.977944
0.985819
0.990174
0.996299
0.996358
0.993373
0.971386
1
0.978236
0.998842
0.99844
0.996506
0.96792
0.972492
0.996342
0.991943
1
0.956515
0.971544
0.994594
0.961207
1
0.948428
0.99882
0.996622
0.987863
0.998649
0.999332
0.997302
0.992896
0.975263
1
1
0.998919
0.99775
0.994674
0.96284
0.99498
0.993257
0.993018
0.997096
0.95779
0.976542
0.99049
0.97634
1
0.883808
1
0.99902
0.994713
0.999021
0.99467
0.997885
0.995408
0.97814
1
0.999797
0.999331
0.999319
0.995546
0.957439
0.986802
0.995409
0.993148
0.999366
0.96808
0.968065
0.99532
0.96619
0.997911
0.944508
0.99727
0.967034
0.974198
0.993956
0.992892
0.992171
0.989371
0.959031
1
0.967624
0.993619
0.999551
0.993653
0.946285
0.96038
0.992227
0.997085
1
0.97837
0.980567
1
0.99349
1
0.989194
0.99936
0.991927
0.979212
1
0.984423
0.995103
0.991555
0.96608
1
0.995235
0.996546
0.999245
0.994678
0.94027
0.983375
0.990027
0.986445
0.998665
0.97137
0.962562
0.996196
0.98614
1
0.994512
0.99909
0.994731
0.989726
0.998379
0.996269
0.992597
0.990287
0.980656
1
1
0.994442
0.999888
0.993211
0.93501
0.990441
0.985113
0.98938
0.99773
0.96892
0.983081
0.993328
0.99006
1
0.988969
0.998416
0.998277
0.99231
0.997197
0.99219
0.990801
0.991959
0.975229
1
0.99733
0.991034
0.99329
0.988996
0.913095
0.993086
0.992316
0.987884
0.996528
0.95219
0.979636
0.991607
0.99391
0.99956
0.987233
0.996123
0.994832
0.987894
0.994024
0.986307
0.992482
0.995497
0.98182
1
0.989659
0.99153
0.99758
0.995991
0.899855
0.982775
0.993314
0.994668
0.996962
0.96801
0.970306
0.992694
0.99216
1
0.990986
0.985977
0.995339
0.982248
0.969037
0.982614
0.991469
0.99292
0.979067
1
0.97195
0.990646
0.9982
0.996449
0.885981
0.98518
0.993503
0.995331
0.996762
0.97263
0.978281
0.992573
0.98229
1
0.990482
0.998045
0.970378
0.986421
0.992942
0.994575
0.992313
0.995295
0.967592
0.996811
0.995742
0.994088
0.992124
0.995797
0.862977
0.971262
0.993067
0.996418
0.99329
0.95786
0.969064
0.993901
0.96864
0.99879
0.990874
0.995955
0.999662
0.980085
0.983556
0.988261
0.99239
0.993195
0.965305
1
0.994931
0.987426
0.992798
0.995955
0.83819
0.993566
0.986203
0.994793
0.986047
0.94344
0.941158
0.992603
0.94708
0.995711
0.987178
0.989079
0.988246
0.986543
0.992875
0.981649
0.986418
0.995917
0.939918
1
0.995539
0.982961
0.995063
0.995408
0.811711
0.987431
0.993406
0.978444
0.984478
0.93476
0.958733
0.977928
0.92916
1
0.996024
0.994101
1
0.987054
0.996286
0.998585
0.983455
0.992549
0.936933
1
0.99706
0.983053
0.973969
0.991634
0.79974
0.988095
0.985848
0.992145
0.987015
0.85566
0.941854
0.942899
0.94659
0.990326
0.988018
0.999663
1
0.987835
0.995644
0.997425
0.995901
0.995461
0.940911
1
0.997432
0.998088
0.984621
0.981753
0.729672
0.989869
0.97986
0.972473
0.980171
0.77306
0.956875
0.909359
0.84026
0.998351
0.990648
0.997
0.995203
0.984135
0.996927
0.977971
0.994616
0.989314
0.921989
0.998571
1
0.996223
0.982429
0.798112
0.558512
0.993085
0.985525
0.838514
0.746334
0.696475
0.951997
0.851509
0.707189
0.985706
0.990536
0.995989
1
0.97452
0.997805
0.978146
0.982638
0.896634
0.90082
1
1
0.982891
0.801442
0.474674
0.456502
0.991732
0.95523
0.532686
0.444028
0.581674
0.951494
0.53635
0.601209
0.988453
0.98813
0.996225
0.998987
0.986989
0.997333
0.992389
0.951537
0.766606
0.755965
1
1
0.982857
0.55452
0.426997
0.427997
0.985148
0.893279
0.435322
0.409545
0.525603
0.941003
0.444966
0.549969
0.977786
0.985942
0.99528
1
0.971755
0.99794
0.994434
0.87548
0.633528
0.534884
0.99978
0.99804
0.963106
0.454724
0.427139
0.438184
0.983853
0.818158
0.420404
0.41305
0.520353
0.824658
0.424342
0.513919
0.968882
0.992833
0.992786
0.998379
0.94928
0.994732
0.99913
0.796964
0.498981
0.480524
0.992084
0.999358
0.902564
0.519866
0.804913
0.659513
0.987704
0.650924
0.735138
0.972994
0.99615
0.514119
0.686202
1
0.847728
0.919814
0.997168
0.978349
0.438381
0.9974
0.955828
0.717238
0.851689
0.942306
0.959649
0.999966
0.745714
0.826687
0.997041
0.994468
0.792624
0.749799
0.987803
1
0.99804
0.61044
1
1
0.660456
0.56022
0.44089
0.440246
0.912178
0.4256
0.698736
0.903876
0.999532
1
0.656854
0.419659
0.861832
0.990936
0.998906
0.998186
0.562484
0.991622
1
1
1
1
1
1
1
1
1
1
1
1
0.999977
1
0.999418
1
1
1
1
1
0.998865
0.995102
1
1
1
0.999399
0.99804
1
1
1
1
1
1
1
1
1
1
1
0.999766
1
1
1
1
1
0.998423
0.990417
1
1
1
1
0.99839
1
1
1
1
1
1
1
1
1
1
1
1
1
1
1
1
1
0.999899
0.980594
1
1
1
1
1
1
1
1
1
1
1
1
1
1
1
1
1
1
1
1
1
1
1
1
1
1
1
1
1
1
1
1
1
1
1
1
1
1
1
1
1
1
1
1
1
1
1
1
1
1
1
1
1
1
1
1
1
1
1
1
1
1
1
1
1
1
1
1
1
1
1
1
1
1
1
1
1
1
1
1
1
1
1
1
1
1
1
1
1
1
1
1
1
1
1
1
1
1
1
1
1
1
1
1
1
1
1
1
1
1
1
1
1
1
1
1
1
1
1
1
1
1
1
1
1
1
1
1
1
1
1
1
1
1
1
1
1
1
1
1
1
1
1
1
1
1
1
1
1
1
1
1
1
1
1
1
1
1
1
1
1
1
1
1
1
1
1
1
1
1
1
1
1
1
1
1
1
1
1
1
1
1
1
1
1
1
1
1
1
1
1
1
1
1
1
1
1
1
1
1
1
1
1
1
1
1
1
1
1
1
1
1
1
1
1
1
1
1
1
1
1
1
1
1
1
1
1
1
1
1
1
1
1
1
1
1
1
1
1
1
1
1
1
1
1
1
1
1
1
1
1
1
1
1
1
1
1
1
1
1
1
1
1
1
1
1
1
1
1
1
1
1
1
1
1
1
1
1
1
1
1
1
1
1
1
1
1
1
1
1
1
1
1
1
1
1
1
1
1
1
1
1
1
1
1
1
1
1
1
1
1
1
1
1
1
1
1
1
1
1
1
1
1
1
1
1
1
1
1
1
1
1
1
1
1
1
1
1
1
1
1
1
1
1
1
1
1
1
1
1
1
1
1
1
1
1
1
1
1
1
1
1
1
1
1
1
1
1
1
1
1
1
1
1
1
1
1
1
1
1
1
1
1
1
1
1
1
1
1
1
1
1
1
1
1
1
1
1
1
1
1
1
1
1
1
1
1
1
1
1
1
1
1
1
1
1
1
1
1
1
1
1
1
1
1
1
1
1
1
1
1
1
1
1
1
1
1
1
1
1
1
1
1
1
1
1
1
1
1
1
1
1
1
1
1
1
1
1
1
1
1
1
1
1
1
1
1
1
1
1
1
1
1
1
1
1
1
1
1
1
1
1
1
1
1
1
1
1
1
1
1
1
1
1
1
1
1
1
1
1
1
1
1
1
1
1
1
1
1
1
1
1
1
1
1
1
1
1
1
1
1
1
1
1
1
1
1
1
1
1
1
1
1
1
1
1
1
1
1
1
1
1
1
1
1
1
1
1
1
1
1
1
1
1
1
1
1
1
1
1
1
1
1
1
1
1
1
1
1
1
1
1
1
1
1
1
1
1
1
1
1
1
1
1
1
1
1
1
1
1
1
1
1
1
1
1
1
1
1
1
1
1
1
1
1
1
1
1
1
1
1
1
1
1
1
1
1
1
1
1
1
1
1
1
1
1
1
1
1
1
1
1
1
1
1
1
1
1
1
1
1
1
1
1
1
1
1
1
1
1
1
1
1
1
1
1
1
1
1
1
1
1
1
1
1
1
1
1
1
1
1
1
1
1
1
1
1
1
1
1
1
1
1
1
1
1
1
1
1
1
1
1
1
1
1
1
1
1
1
1
1
1
1
1
1
1
1
1
1
1
1
1
1
1
1
1
1
1
1
1
1
1
1
1
1
1
1
1
1
1
1
1
1
1
1
1
1
1
1
1
1
1
1
1
1
1
1
1
1
1
1
1
1
1
1
1
1
1
1
1
1
1
1
1
1
1
1
1
1
1
1
1
1
1
1
1
1
1
1
1
1
1
1
1
1
1
1
1
1
1
1
1
1
1
1
1
1
1
1
1
1
1
1
1
1
1
1
1
1
1
1
1
1
1
1
1
1
1
1
1
1
1
1
1
1
1
1
1
1
1
1
1
1
1
1
1
1
1
1
1
1
1
1
1
1
1
1
1
1
1
1
1
1
1
1
1
1
0.731163
0.911784
0.889697
0.947194
0.873272
0.951024
0.905294
0.800041
0.763626
0.61424
0.853015
0.853838
0.997533
0.987546
1
0.999591
1
1
0.995998
1
1
0.884375
0.667764
0.996278
0.845998
0.704739
0.894569
0.85811
0.939298
0.994733
1
1
1
1
1
1
1
1
1
1
1
1
0.983742
1
0.997888
0.84015
0.943528
0.888915
0.881868
0.951055
0.906051
1
1
0.993425
1
1
1
1
1
1
1
1
1
1
1
1
0.980147
0.940513
0.881299
0.856127
0.794721
0.860611
0.993446
0.65334
0.839905
1
1
0.989583
1
1
1
0.999838
0.989746
0.991299
0.82803
0.856548
0.669989
0.709168
0.718427
0.877571
0.943955
0.888969
0.95523
0.90659
0.888439
0.765772
0.927463
0.902898
0.98243
0.99633
0.996126
0.968604
0.994073
0.989197
0.991227
0.992756
0.957468
0.990263
0.98194
0.972174
0.955756
0.934813
0.935619
0.980242
0.976612
0.999172
0.860936
0.968297
0.967674
0.99943
0.914963
0.996887
0.966517
0.976911
0.909136
1
0.95443
0.932647
0.904403
0.998165
0.971252
0.993902
0.992216
0.965528
0.993983
0.990826
0.980612
0.98055
0.986527
0.970819
0.992901
0.993703
0.948982
0.986132
0.993581
0.978701
0.988961
0.986419
0.964993
0.989696
0.962671
0.943173
1
0.887505
0.97518
0.976171
1
0.877094
0.964016
0.971179
0.976196
0.899705
0.998396
0.964735
0.973277
0.896413
0.902181
0.920267
0.898657
0.995177
0.985841
0.988539
0.99123
0.961517
0.994054
0.971791
0.984481
0.990467
0.967454
0.960853
0.903518
0.890619
0.947475
0.992305
0.992776
0.939939
0.984162
0.991756
0.988399
0.986926
0.925929
0.988857
0.978862
0.938439
0.942388
0.903787
0.895721
0.959626
0.959454
1
0.880104
0.96211
0.962468
1
0.882301
1
0.949075
0.978588
0.879739
0.999089
0.951348
0.879126
0.910232
0.991053
0.955406
0.988372
0.984009
0.927558
0.989361
0.991599
0.984662
0.970639
0.991223
0.960971
0.990701
0.988323
0.91735
0.991014
0.981089
0.941779
0.988122
0.984675
0.933282
0.978034
0.923327
0.92752
1
0.881669
0.96056
0.972735
0.999277
0.869155
0.962123
0.94526
0.967423
0.9013
0.998151
0.946379
0.960715
0.902375
0.921571
0.871189
0.861857
0.991546
0.971398
0.978683
0.993393
0.933576
0.992902
0.945151
0.986787
0.98945
0.916753
0.952449
0.91715
0.888353
0.926042
0.976669
0.988889
0.913946
0.978451
0.982187
0.981007
0.965698
0.959719
0.978171
0.96745
0.934721
0.930837
0.905465
0.901678
0.971105
0.974285
1
0.864725
0.960128
0.967214
1
0.900299
1
0.967363
0.979863
0.876925
1
0.973992
0.901777
0.883546
0.979998
0.920791
0.979424
0.973627
0.9393
0.980978
0.990237
0.949848
0.964352
0.983308
0.942933
0.982233
0.981752
0.921518
0.978167
0.957837
0.947911
0.968685
0.979878
0.932979
0.955698
0.924611
0.921911
1
0.878855
0.95759
0.981048
1
0.851946
0.964677
0.949509
0.962513
0.913186
0.999735
0.959855
0.972426
0.8999
0.932525
0.897491
0.8714
0.983789
0.935978
0.972271
0.984997
0.91276
0.977404
0.896869
0.9775
0.965183
0.922299
0.954108
0.894088
0.880219
0.900326
0.97434
0.986701
0.870056
0.974239
0.985445
0.982342
0.962614
0.896783
0.976538
0.945777
0.936951
0.931662
0.917949
0.907173
0.969304
0.961919
1
0.86311
0.959651
0.962162
1
0.890416
1
0.972016
0.977188
0.887498
1
0.968316
0.885692
0.905122
0.979012
0.898344
0.98286
0.967465
0.87346
0.983385
0.971851
0.946926
0.942638
0.974253
0.947815
0.981886
0.964654
0.912708
0.974054
0.952197
0.935197
0.947241
0.96475
0.953429
0.959953
0.927658
0.952647
0.999967
0.855406
0.969453
0.981342
1
0.881341
0.964572
0.970311
0.97716
0.89055
1
0.956884
0.96978
0.903083
0.921415
0.893933
0.879465
0.979794
0.936043
0.956681
0.983329
0.928776
0.962601
0.930455
0.975392
0.966444
0.9098
0.927644
0.909257
0.895169
0.841674
0.964362
0.981108
0.887076
0.980649
0.977681
0.976797
0.945086
0.933596
0.978878
0.945368
0.940759
0.948966
0.916626
0.909862
0.966516
0.953055
1
0.880931
0.946193
0.940528
0.996843
0.861937
1
0.968154
0.979099
0.845475
1
0.969184
0.906997
0.891668
0.963739
0.878171
0.9739
0.967528
0.893119
0.976711
0.981757
0.912152
0.954226
0.978435
0.963257
0.975556
0.944632
0.950738
0.974854
0.947026
0.92485
0.945711
0.975099
0.947374
0.960279
0.932758
0.948239
1
0.846674
0.968736
0.974772
1
0.839346
0.971301
0.965986
0.972991
0.9038
0.999798
0.978212
0.976292
0.906625
0.896084
0.875675
0.883295
0.985202
0.900567
0.964107
0.979393
0.910658
0.964176
0.913638
0.982813
0.9588
0.926033
0.93703
0.885962
0.92339
0.910055
0.969616
0.973649
0.907857
0.976465
0.963622
0.977964
0.966204
0.928648
0.984874
0.955316
0.955598
0.952424
0.926786
0.934725
0.950589
0.952349
0.99746
0.906908
0.967006
0.97264
0.974367
0.895669
0.999933
0.969403
0.972395
0.895146
0.993322
0.967309
0.893483
0.925037
0.977782
0.903671
0.979615
0.97422
0.930941
0.97089
0.967873
0.983507
0.957689
0.957994
0.966003
0.993655
0.944832
0.939321
0.970506
0.901701
0.996587
0.960394
0.989544
0.923111
0.983396
0.955542
0.947107
0.980364
0.958521
0.95949
0.958686
0.985485
0.989047
0.960516
0.96115
0.962329
0.929487
0.993366
0.930939
0.9887
0.920001
0.996385
0.970537
0.957585
0.965397
0.998251
0.873097
0.964155
0.981293
0.994719
0.900543
0.963879
0.97556
0.973398
0.903813
0.999864
0.96858
0.979767
0.911079
0.911518
0.865313
0.896446
0.978975
0.88542
0.959923
0.949324
0.920868
0.962974
0.916705
0.978611
0.943093
0.93108
0.924827
0.927711
0.92534
0.946565
0.982387
0.986976
0.945686
0.985948
0.961505
0.983664
0.964091
0.958228
0.990091
0.959114
0.973184
0.968696
0.928315
0.964819
0.95208
0.950881
0.986774
0.960342
0.966463
0.965753
0.975208
0.911335
0.993968
0.959568
0.968197
0.937874
0.989554
0.947846
0.932751
0.988055
0.94802
0.968371
0.997617
0.963422
0.99708
0.984727
0.986955
0.961401
0.982188
0.977316
0.952383
0.976856
0.964825
0.97431
0.953681
0.983417
0.959405
0.991062
0.949729
0.954727
0.997006
0.892255
0.999149
0.943059
0.988804
0.898324
0.989909
0.971611
0.977017
0.986666
0.967235
0.966841
0.958388
0.964422
0.987122
0.97594
0.974983
0.961605
0.899995
0.997634
0.965203
0.995635
0.896015
0.996631
0.949273
0.964699
0.978373
0.994027
0.888955
0.973115
0.975277
0.992772
0.925349
0.960063
0.946603
0.971692
0.908091
1
0.967366
0.980922
0.909091
0.987894
0.948554
0.993231
0.967578
0.998592
0.97814
0.880633
0.921634
0.973928
0.924273
0.960969
0.944861
0.903203
0.92615
0.935363
0.987075
0.966017
0.95051
0.939589
0.93977
0.953295
0.932603
0.983625
0.990793
0.948104
0.978671
0.968139
0.984698
0.971043
0.965702
0.990273
0.974328
0.986787
0.979051
0.946149
0.953115
0.967033
0.969092
0.999902
0.953341
0.96125
0.962803
0.974981
0.924827
0.998653
0.98103
0.982164
0.94164
0.997711
0.97374
0.957851
0.965024
0.95921
0.939857
0.996295
0.983445
0.996975
0.968567
0.986645
0.955133
0.981067
0.98769
0.949304
0.97825
0.975296
0.978176
0.95073
0.989923
0.972715
0.980603
0.968323
0.932321
0.991427
0.889469
0.99466
0.948852
0.980567
0.886767
0.979787
0.97227
0.962611
0.985697
0.984005
0.956419
0.981966
0.948952
0.985591
0.973875
0.964741
0.972411
0.898114
0.996517
0.930287
0.987694
0.894612
0.990726
0.956505
0.977117
0.965954
0.999538
0.92203
0.979048
0.98403
0.998086
0.930863
0.966696
0.948413
0.982483
0.929904
0.996807
0.976628
0.980048
0.942212
0.977215
0.959615
0.945184
0.985191
1
0.988751
0.922965
0.908902
0.967976
0.957638
0.969101
0.987613
0.938982
0.921454
0.970044
0.987105
0.970245
0.973664
0.954013
0.972117
0.963753
0.930402
0.986452
0.987643
0.923801
0.996594
0.990762
0.986818
0.969167
0.966249
0.989575
0.97606
0.981671
0.977682
0.979867
0.94838
0.974707
0.98024
0.993518
0.934523
0.983668
0.976456
0.99899
0.965764
0.983854
0.956393
0.989058
0.969807
0.999033
0.987657
0.959797
0.969626
0.977742
0.946996
0.985581
0.988968
0.956454
0.989943
0.953597
0.993586
0.928934
0.975704
0.966438
0.961544
0.915915
0.974141
0.915853
0.913606
0.969664
0.986392
0.939722
0.982614
0.989788
0.966848
0.984935
0.991243
0.980094
0.93513
0.974017
0.917707
0.971356
0.922976
0.966027
0.972883
0.911725
0.981758
0.977598
0.952393
0.978333
0.974783
0.983873
0.989605
0.984024
0.989207
0.951453
0.976716
0.981384
0.998977
0.956179
0.980895
0.955053
0.974004
0.946083
0.985862
0.967183
0.97654
0.970558
0.975796
0.929472
0.917509
0.934828
0.910445
0.972199
0.988732
0.948747
0.977187
0.940632
0.978196
0.917375
0.953252
0.952715
0.938034
0.943753
0.978119
0.98626
0.994427
0.99989
0.992415
0.996033
0.995364
0.981216
0.996812
0.994668
0.998219
0.975935
0.981939
0.957924
0.969281
0.958711
0.966921
0.989613
0.949651
0.957966
0.956255
0.990201
0.924767
1
0.986466
0.979883
0.928381
0.993948
0.970895
0.969113
0.933309
0.9928
0.995711
0.993821
0.994194
0.993732
0.996911
0.975043
0.978278
0.967014
0.96423
0.950177
0.995728
0.98997
0.997251
0.994576
0.995159
0.971635
0.976249
0.964212
0.96622
0.980219
0.981444
0.971608
1
0.927548
0.983439
0.975913
0.994392
0.920182
0.971059
0.984558
0.984541
0.960477
0.998996
0.977636
0.982681
0.946633
0.97569
0.928776
0.959072
0.989788
0.957087
0.969916
0.986317
0.980903
0.975533
0.977394
0.996829
0.988722
0.991441
0.973528
0.960621
0.978045
0.97581
0.987694
0.992006
0.958767
0.98456
0.988463
0.99164
0.984245
0.971305
0.992428
0.984711
0.990658
0.973511
0.985442
0.974576
0.979389
0.984625
0.998731
0.959566
0.98664
0.986741
0.999056
0.975736
0.995745
0.971706
0.9912
0.983882
0.997859
0.982769
0.954566
0.975228
0.990285
0.977458
0.986885
0.992491
0.960744
0.98946
0.973203
0.96457
0.970553
0.978643
0.975056
0.98882
0.990512
0.958876
0.988426
0.986059
0.970156
0.976549
0.966634
0.969152
0.972484
0.980538
0.98005
0.99967
0.962145
0.975933
0.994287
0.999044
0.966421
0.979173
0.970194
0.980933
0.95962
0.996529
0.959282
0.989695
0.96154
0.967524
0.966068
0.940042
0.988461
0.970477
0.976383
0.971881
0.987049
0.981753
0.995611
0.99076
0.978076
0.994184
0.973889
0.964316
0.960274
0.936006
0.989436
0.986495
0.930947
0.98607
0.98916
0.990005
0.975654
0.980209
0.992943
0.976621
0.977414
0.979993
0.95556
0.967959
0.989456
0.981826
0.999675
0.948872
0.974479
0.973305
0.999382
0.963995
0.999638
0.986425
0.990268
0.966459
1
0.98642
0.983163
0.977276
0.987963
0.954917
0.985493
0.984403
0.959975
0.987765
0.978163
0.98933
0.971713
0.977705
0.988338
0.990366
0.97847
0.970311
0.987942
0.981374
0.977253
0.965452
0.980627
0.967688
0.971207
0.9857
0.976353
0.99878
0.95371
0.986984
0.985839
1
0.94623
0.987831
0.975126
0.988388
0.95142
0.999032
0.987924
0.990333
0.954007
0.965433
0.935915
0.942212
0.983207
0.956429
0.983546
0.989731
0.949513
0.954723
0.977722
0.986412
0.977458
0.977721
0.969407
0.973029
0.976792
0.991863
0.989669
0.992672
0.994282
0.985838
0.99561
0.993882
0.983898
1
0.997971
0.99431
0.974135
0.989194
0.978964
0.974716
0.957017
0.968509
0.994631
0.964832
0.991613
0.985521
0.997625
0.948303
1
0.977583
0.983687
0.962124
0.996343
0.980244
0.959082
0.963203
0.990208
1
0.994488
0.990324
0.996811
0.997335
0.979092
0.973264
0.981005
0.985747
0.981516
0.994607
0.994889
1
0.996607
0.997018
0.977028
0.972632
0.98186
0.975599
0.973132
0.983608
0.982631
0.997593
0.934475
0.971244
0.991371
0.997659
0.974127
0.983412
0.987769
0.985467
0.955525
0.999933
0.987524
0.987474
0.949079
0.970525
0.949418
0.931368
0.986922
0.937001
0.983507
0.988221
0.966415
0.973391
0.969819
0.989975
0.975792
0.98277
0.958972
0.964735
0.959369
1
0.986728
0.99461
1
0.978525
0.983952
0.997365
0.997755
1
0.995154
0.993033
0.981455
0.988985
0.963711
0.971651
0.98104
0.988858
1
0.917513
0.97478
0.977596
1
0.978701
0.998715
0.987958
0.988013
0.978196
1
0.988351
0.946691
0.952356
0.991369
1
0.997365
0.98808
0.996811
0.986402
0.976729
0.978986
0.967901
0.97924
0.958303
0.997455
0.994734
0.9989
0.991941
0.992139
0.970985
0.976189
0.971247
0.955488
0.959733
0.986398
0.990793
1
0.972609
0.981566
0.980998
1
0.960629
0.983836
0.978097
0.979811
0.952469
0.998698
0.983984
0.986227
0.965581
0.952881
0.940883
0.949418
0.975506
0.986061
0.994735
0.994684
1
0.987567
0.998573
0.993447
0.968084
1
0.977176
0.948497
0.944943
1
0.967304
0.969509
1
0.941766
0.959699
0.987339
0.986529
1
0.975042
0.966827
0.979713
0.972044
0.952984
0.969771
0.964476
0.972651
1
0.915609
0.958545
0.957427
0.998113
0.956953
0.999802
0.989774
0.985189
0.930484
1
0.981453
0.944943
0.926474
0.978907
0.996811
0.964355
0.963272
1
0.955361
0.974429
0.970846
0.964878
0.966773
0.969196
0.973068
0.98544
1
0.968402
0.97727
0.972744
0.963529
0.979925
0.973514
0.960547
0.969518
0.975865
1
0.940325
0.980597
0.963651
0.999077
0.918333
0.973151
0.975779
0.988112
0.972533
0.997596
0.988011
0.9827
0.962587
0.969195
0.921014
0.916187
0.995862
0.996817
0.987688
0.985382
0.996817
0.993377
1
0.994625
0.995623
1
0.965484
0.964944
0.965293
1
0.954225
0.969327
1
0.96475
0.961909
0.973891
0.972827
1
0.975678
0.972982
0.949735
0.957264
0.961969
0.96782
0.969448
0.978252
0.990141
0.943105
0.975648
0.977566
0.983569
0.928967
0.995486
0.97634
0.979871
0.963809
0.995222
0.985265
0.9164
0.927454
0.96242
1
0.955755
0.976198
1
0.955028
0.970465
0.966996
0.957861
0.970465
0.934541
0.969584
0.969952
1
0.968281
0.974405
0.972524
0.959386
0.972428
0.951533
0.96682
0.96338
0.976354
0.990371
0.929189
0.969609
0.975286
0.995548
0.954948
0.977933
0.972301
0.989024
0.950662
1
0.974772
0.985406
0.917261
0.971785
0.858119
0.890441
0.980731
0.993634
0.968176
0.979433
1
0.980905
1
0.991545
0.980285
1
0.960723
0.988501
0.985642
1
0.96239
0.988433
1
0.996982
0.996488
0.977859
0.970773
1
0.995366
0.993768
0.958093
0.974906
0.984956
0.982655
0.980594
0.982216
0.987052
0.969647
0.99314
0.994101
0.997299
0.972853
0.988039
0.989016
0.984229
0.975615
0.992387
0.994161
0.957528
0.941525
0.981966
1
0.979257
0.996207
1
0.997668
0.964864
0.959402
0.975504
0.972072
0.970188
0.976343
0.981144
1
0.996485
0.989118
0.956147
0.963484
0.961396
0.952965
0.968257
0.981584
0.984376
0.976954
0.960852
0.961046
0.990078
0.995218
0.976323
0.973875
0.970712
0.979262
0.901476
1
0.975659
0.977624
0.943776
0.94575
0.891904
0.936549
0.976261
1
0.970537
0.978164
0.996818
0.984969
1
0.994686
0.993378
1
0.96731
0.960347
0.954558
1
0.992843
0.997063
1
0.992105
0.99576
0.997063
0.995046
1
0.998243
0.995161
0.986406
0.99261
0.971931
0.974018
0.990056
0.983945
1
0.933133
0.97966
0.984088
0.99655
0.983757
0.997891
0.993525
0.995103
0.98202
1
0.995371
0.95326
0.969853
0.991564
1
0.997457
0.987343
1
0.993972
0.973035
0.965563
0.974768
0.970771
0.970958
0.999122
0.994114
1
0.996243
0.994385
0.942298
0.95652
0.954503
0.935271
0.981881
0.99721
0.993931
0.999044
0.982003
0.987833
0.989596
1
0.974689
0.989375
0.983286
0.978933
0.966266
1
0.970099
0.97257
0.94551
0.965408
0.948372
0.944658
0.964609
1
0.972469
0.983567
1
0.9775
1
0.993295
0.9742
1
0.963167
0.903631
0.921024
1
0.971526
0.979323
1
0.944155
0.940643
0.998546
0.994001
0.997581
0.987125
0.971506
0.992123
0.987728
0.934878
0.929089
0.964033
0.957013
0.989102
0.920981
0.949371
0.954086
0.974714
0.969547
0.998913
0.993194
0.994832
0.960151
0.999605
0.993161
0.969364
0.968514
0.979801
0.996812
0.965361
0.951537
1
0.929032
0.980394
0.978881
0.978132
0.968069
0.954226
0.987975
0.991482
1
0.958488
0.961545
0.919236
0.983122
0.954794
0.955262
0.972158
0.984863
0.961568
0.999341
0.962708
0.99322
0.963076
0.996141
0.947358
0.992281
0.977003
0.974495
0.956095
0.999132
0.976873
0.976372
0.977729
0.963798
0.954318
0.969425
0.994081
1
0.994269
0.994502
1
0.984626
1
0.998248
0.993027
1
0.992157
0.93275
0.973655
1
0.932214
0.966302
1
0.967572
0.9742
0.975077
0.938348
1
0.983702
0.969647
0.945979
0.96402
0.939544
0.973879
0.972565
0.976349
0.988711
0.990088
0.989006
0.988409
0.987504
0.933757
0.975916
0.979551
0.972296
0.944582
0.987311
0.982237
0.920611
0.911838
0.947989
1
0.958003
0.976235
1
0.971376
0.975614
0.956002
0.955993
0.971943
0.944983
0.959351
0.97584
1
0.970639
0.978894
0.889347
0.971354
0.950016
0.898983
0.977424
0.928716
0.950472
0.975702
0.880276
0.952182
0.980153
0.991425
0.93694
0.956586
0.986946
0.994771
0.993841
1
0.989291
0.992002
0.988978
0.979763
0.922567
0.890353
0.997312
1
0.967476
0.9926
1
0.994152
1
0.999003
0.989734
1
0.977452
0.990175
0.988011
1
0.990212
0.987739
1
0.984984
0.994912
0.984887
0.985872
1
0.996517
0.987187
0.947919
0.971139
0.987811
0.98983
0.997514
0.999047
0.997983
0.987398
0.989455
0.993445
0.998113
0.961677
0.992982
0.992589
0.98693
0.984939
0.986355
0.991376
0.942288
0.941302
0.991138
0.996812
0.990613
0.985718
1
0.997547
0.969136
0.958197
0.986897
0.956088
0.940039
0.986157
0.984667
1
0.995516
0.99605
0.919346
0.980413
0.943394
0.903929
0.970802
0.981235
0.986748
0.994263
0.97801
0.976515
0.993024
0.9938
0.981551
0.977597
0.97014
0.980514
0.972029
1
0.946484
0.968556
0.956249
0.957425
0.914513
0.946687
0.992269
1
0.969686
0.986922
0.997476
0.991596
1
0.990035
0.991633
0.996817
0.985925
0.985226
0.992612
1
0.982978
0.994066
1
0.988467
0.997002
0.996729
0.990246
1
0.998243
0.997794
0.990309
0.979156
0.991225
0.971646
0.992243
0.991719
0.997105
0.987063
0.989486
0.988737
0.994533
0.988368
0.998847
0.990743
0.990506
0.988648
1
0.995067
0.966912
0.973974
0.985296
1
0.997154
0.988
1
0.989914
0.969015
0.944446
0.974065
0.957419
0.932777
0.99794
0.995315
1
0.996788
0.992836
0.869788
0.96547
0.919355
0.838196
0.966891
0.984167
0.982072
0.999901
0.99117
0.981961
0.992302
0.999044
0.985826
0.985318
0.956201
0.968993
0.972482
0.996594
0.969184
0.966397
0.970211
0.965548
0.971035
0.971528
0.986924
0.994073
0.979752
0.989036
1
0.988034
0.993306
0.994745
0.994848
1
0.989216
0.967664
0.968009
1
0.981081
0.981654
1
0.987307
0.982617
0.994518
0.993187
0.99912
0.989792
0.982117
0.984731
0.987103
0.979381
0.990876
0.985924
0.981501
0.984775
0.985103
0.980947
0.978905
0.992092
0.988648
0.996639
0.996067
0.988733
0.995448
0.999835
0.994342
0.989716
0.988737
0.984597
1
0.97956
0.985719
1
0.980677
0.9649
0.949836
0.97988
0.96323
0.962153
0.989974
0.989934
0.996921
0.984123
0.97777
0.836603
0.959741
0.913549
0.856663
0.963251
0.992119
0.974257
0.998714
0.987685
0.983203
0.973508
0.987764
0.982955
0.985983
0.974654
0.968962
0.980562
0.995859
0.969215
0.977649
0.979707
0.978993
0.974186
0.982789
0.988856
0.994732
0.969802
0.992449
0.998244
0.99636
1
0.997342
0.995894
0.997476
0.995448
0.973658
0.948633
0.996811
0.983825
0.988281
0.993843
0.99025
0.991583
0.994215
0.988813
0.993403
0.99576
0.992684
0.984173
0.988219
0.979662
0.984884
0.990177
0.976436
0.992908
0.970487
0.979748
0.976403
0.995346
0.991908
0.990445
0.996582
0.989665
0.987524
0.9971
0.994311
0.983073
0.984327
0.98394
0.996811
0.992218
0.980609
1
0.992943
0.949347
0.937735
0.982011
0.949339
0.950931
0.9927
0.987146
1
0.987213
0.990705
0.820231
0.964232
0.894771
0.775212
0.952409
0.988981
0.985838
0.995186
0.976941
0.984503
0.972515
0.991524
0.986951
0.982291
0.981669
0.955161
0.98367
0.999065
0.984012
0.979565
0.98389
0.965618
0.97971
0.978103
0.966781
0.996817
0.978513
0.988432
1
0.990628
1
0.996768
0.979081
1
0.985785
0.981741
0.954488
1
0.981387
0.990734
0.993734
0.976941
0.99455
0.993942
0.986491
1
0.99158
0.979833
0.978877
0.975877
0.990389
0.989899
0.979995
0.982426
0.971567
0.98891
0.98553
0.976579
1
0.992359
0.988271
0.994222
0.983684
0.984993
0.998253
0.98962
0.975936
0.976143
0.981695
0.996811
0.996487
0.988427
0.996701
0.98728
0.947048
0.931245
0.983602
0.942742
0.889869
0.996123
0.998568
0.996921
0.997182
0.992332
0.763421
0.953586
0.870278
0.725528
0.954655
0.99456
0.990093
0.998846
0.98313
0.982205
0.974259
0.997164
0.97553
0.977809
0.975966
0.972945
0.982031
0.99419
0.965248
0.974182
0.969929
0.980743
0.985099
0.986287
0.996255
1
0.972318
0.990999
0.998903
0.970452
1
0.997765
0.97726
0.997695
0.988586
0.96634
0.977697
0.996701
0.99056
0.994036
0.996372
0.991525
0.991218
0.992912
0.995432
0.995933
0.992519
0.992027
0.993376
0.98822
0.979033
0.982866
0.984068
0.984748
0.998731
0.985102
0.986369
0.990138
0.98503
0.984435
0.999407
0.98914
0.984889
0.991795
0.995518
0.993918
0.980273
0.974254
0.993033
1
0.986099
0.991138
1
0.991884
0.935277
0.87338
0.965769
0.932846
0.823417
0.988245
0.98548
1
0.990003
0.992177
0.708369
0.945612
0.852528
0.684746
0.940095
0.98926
0.987024
0.992945
0.984985
0.983444
0.981416
1
0.994262
0.982351
0.975203
0.965618
0.979319
0.990082
0.962289
0.955389
0.969081
0.944751
0.98111
0.987688
0.988464
0.99989
0.958268
0.984173
1
0.988305
0.996817
0.993869
0.989928
0.996817
0.964778
0.985783
0.981739
0.99791
0.984173
0.980832
0.993624
0.985027
0.998274
0.994215