/*--------------------------------*- C++ -*----------------------------------*\
| =========                 |                                                 |
| \\      /  F ield         | OpenFOAM: The Open Source CFD Toolbox           |
|  \\    /   O peration     | Version:  5.x                                   |
|   \\  /    A nd           | Web:      www.OpenFOAM.org                      |
|    \\/     M anipulation  |                                                 |
\*---------------------------------------------------------------------------*/
FoamFile
{
    version     2.0;
    format      ascii;
    class       volScalarField;
    location    "3.2";
    object      p;
}
// * * * * * * * * * * * * * * * * * * * * * * * * * * * * * * * * * * * * * //

dimensions      [0 2 -2 0 0 0 0];

internalField   nonuniform List<scalar> 
10571
(
225.895
227.65
227.596
224.519
227.975
222.498
221.466
231.578
239.574
246.308
238.439
234.903
234.393
241.603
269.005
305.874
248.806
248.064
272.374
327.259
333.134
314.985
348.677
346.221
222.535
197.687
189.561
206.106
180.092
192.935
178.243
175.628
93.2729
107.876
127.401
137.104
157.718
147.042
85.8975
124.318
92.8581
105.571
96.6058
89.172
93.6017
117.25
96.0967
80.4659
177.163
158.07
172.333
182.266
111.628
150.15
132.574
102.675
71.0719
81.1516
76.8785
81.0148
93.8132
86.7135
72.5975
75.7561
77.9086
69.4125
68.4977
71.9571
71.8285
70.2262
69.6907
70.7016
104.638
105.857
150.985
85.65
64.1114
76.0718
79.9408
66.3712
69.7636
76.6244
70.1273
68.7213
65.1164
67.3243
68.5434
70.3906
68.3981
65.2947
66.1996
66.9732
69.188
67.0897
67.2377
67.7622
64.7688
63.4706
61.7737
63.4757
64.6599
64.0918
60.3057
64.0517
67.5569
72.5903
66.3015
66.2972
63.292
64.6563
65.3893
67.6812
65.8571
65.52
65.5107
65.7446
66.6721
66.0034
66.1229
66.3637
64.1597
64.1235
64.2175
64.1962
64.1779
63.6965
64.8809
65.2453
65.7515
67.7907
65.2156
64.1229
63.6878
64.8862
65.0013
64.7753
65.271
64.8816
65.3328
65.2928
65.481
65.5295
65.2046
65.6472
65.7013
65.7826
64.081
63.8053
64.0016
64.2537
64.158
63.7732
65.0705
64.8776
65.3778
64.9759
64.8761
64.072
63.725
64.663
64.8985
64.9902
64.9642
64.8966
65.0952
64.8816
65.2634
65.304
64.9264
64.9059
65.3113
65.4089
65.4996
64.1008
63.9987
64.0295
64.121
64.3518
64.1111
64.0996
63.9569
65.0375
64.8544
64.8903
64.2948
64.1532
64.3492
64.6108
64.9831
64.9523
64.8751
64.7804
64.6564
64.9907
65.1392
65.1713
64.9718
64.9404
65.2003
65.3003
63.9942
64.052
64.0205
63.9521
64.2108
64.1242
64.0045
63.8925
64.2821
64.4421
64.9501
64.3296
64.1656
64.2414
64.4823
64.7891
64.8731
64.8855
64.7975
64.543
64.7357
64.9812
65.0237
64.7432
64.9665
65.0259
63.9072
64.081
63.9962
63.925
64.0319
64.1426
64.1631
64.1444
63.8998
63.7181
64.3193
64.167
64.2525
64.4601
64.565
64.5301
64.9595
64.5224
64.5527
64.7056
64.6337
64.8394
64.7923
64.8296
63.9661
64.1603
64.0722
63.9638
64.0252
64.2124
64.2426
64.2958
63.9759
63.9473
64.4032
64.2547
64.2906
64.4426
64.3793
64.2326
65.0373
64.5352
64.4525
64.4702
64.4664
64.8743
64.648
64.6099
64.0916
64.25
64.1851
64.0963
64.0604
64.2689
64.2539
64.3494
64.0519
64.0667
64.4187
64.3402
64.3588
64.4117
64.2707
64.1488
64.7298
64.4434
64.4215
64.3227
64.3547
64.6964
64.5305
64.4455
64.173
64.325
64.2566
64.1682
64.0882
64.2913
64.2496
64.3387
64.0793
64.0867
64.3791
64.3289
64.4028
64.38
64.2761
64.1211
64.3902
64.2392
64.4161
64.3213
64.3335
64.4774
64.4333
64.3866
64.2307
64.3538
64.2829
64.2042
64.1273
64.3104
64.2558
64.3055
64.117
64.1426
64.3243
64.2556
64.4342
64.3368
64.3945
64.189
64.2566
64.1691
64.4059
64.4098
64.3899
64.3179
64.3697
64.3876
64.2682
64.3519
64.293
64.2351
64.1639
64.2983
64.2596
64.2859
64.1746
64.2135
64.2277
64.1798
64.4097
64.2904
64.5626
64.2989
64.1337
64.2167
64.3961
64.456
64.4343
64.2466
64.3354
64.3915
64.269
64.3397
64.2916
64.2402
64.2105
64.2628
64.234
64.2455
64.2292
64.2426
64.1171
64.1587
64.3149
64.2274
64.584
64.3565
64.0686
64.2709
64.3604
64.4235
64.4157
64.2339
64.2996
64.3752
64.2436
64.307
64.2611
64.2135
64.2163
64.2224
64.1699
64.1581
64.2024
64.239
64.1046
64.1511
64.211
64.1582
64.4141
64.3239
64.0962
64.2682
64.2613
64.3367
64.3417
64.2156
64.2449
64.3051
64.2034
64.2392
64.2014
64.165
64.189
64.1594
64.0972
64.0404
64.1056
64.1704
64.0861
64.1044
64.1211
64.0904
64.2291
64.1845
64.1171
64.1988
64.1475
64.2141
64.2295
64.149
64.1679
64.2043
64.1422
64.1593
64.1413
64.1024
64.1225
64.087
64.0347
63.9297
63.9919
64.0714
64.0546
64.0495
64.0327
64.0256
64.061
64.0519
64.0915
64.1191
64.0597
64.0937
64.0949
64.0802
64.0904
64.0968
64.0649
64.0929
64.0732
64.0175
64.038
64.0199
63.9817
63.8396
63.9177
63.9782
63.992
63.9855
63.9416
63.9494
63.9441
63.9884
64.0274
64.0835
63.9952
63.9911
63.9902
64.0278
64.0158
64.0036
63.9837
64.0141
63.9959
63.9316
63.9514
63.9446
63.9307
63.7789
63.8489
63.8816
63.903
63.8984
63.8635
63.8432
63.8349
63.9046
63.9226
64.0433
63.9196
63.9173
63.9065
63.9717
63.9379
63.9212
63.894
63.9357
63.9215
63.8538
63.8703
63.8492
63.8481
63.7359
63.7635
63.7959
63.8046
63.7982
63.7975
63.7275
63.7296
63.7909
63.8057
63.9382
63.8278
63.8304
63.8166
63.8873
63.8495
63.8243
63.81
63.8506
63.8406
63.7776
63.793
63.7354
63.7394
63.6852
63.6776
63.7159
63.7079
63.6901
63.7163
63.6231
63.6354
63.677
63.6925
63.7851
63.7237
63.7303
63.7232
63.7812
63.7504
63.7282
63.7314
63.762
63.7393
63.7039
63.7303
63.6202
63.6298
63.6254
63.6143
63.6739
63.6384
63.6004
63.6129
63.5448
63.5289
63.6027
63.598
63.6422
63.6159
63.6247
63.6298
63.6756
63.6513
63.6273
63.6542
63.6778
63.6378
63.6304
63.6603
63.5417
63.5207
63.5668
63.5547
63.6304
63.5811
63.5285
63.5084
63.4872
63.4374
63.5549
63.5313
63.5372
63.5245
63.5341
63.5492
63.5712
63.5631
63.5347
63.573
63.5971
63.5525
63.5542
63.5542
63.4913
63.4155
63.5052
63.4755
63.5565
63.5405
63.4948
63.4369
63.4483
63.3902
63.4915
63.496
63.4712
63.4468
63.4692
63.4787
63.4708
63.4891
63.4702
63.4933
63.5336
63.4824
63.4741
63.4326
63.4636
63.322
63.4366
63.3789
63.4668
63.5103
63.4864
63.4045
63.4083
63.3671
63.4144
63.474
63.4188
63.3798
63.4014
63.4098
63.4097
63.4325
63.4192
63.4277
63.4841
63.4273
63.4044
63.3476
63.4486
63.2808
63.3623
63.2996
63.3796
63.4826
63.4625
63.3809
63.3681
63.3459
63.3543
63.4643
63.377
63.3261
63.3337
63.3533
63.3848
63.3896
63.3691
63.3768
63.4482
63.384
63.35
63.2959
63.4341
63.2733
63.3004
63.2458
63.3206
63.465
63.4577
63.3654
63.3332
63.3373
63.3161
63.441
63.3382
63.2805
63.278
63.3178
63.3745
63.3517
63.3216
63.3368
63.4192
63.3489
63.3066
63.2608
63.4208
63.2643
63.2507
63.2172
63.2706
63.4466
63.4861
63.341
63.3159
63.3276
63.2969
63.4123
63.2981
63.2357
63.2378
63.2936
63.3638
63.3142
63.283
63.308
63.3887
63.3181
63.2748
63.2309
63.3896
63.2183
63.221
63.1809
63.2103
63.3943
63.4299
63.2699
63.3167
63.2811
63.2653
63.3637
63.2445
63.1923
63.2012
63.2631
63.3106
63.2747
63.2471
63.2908
63.3566
63.293
63.2576
63.2115
63.3208
63.1588
63.2042
63.1494
63.1337
63.3049
63.2816
63.1478
63.3019
63.219
63.2023
63.2999
63.1859
63.1673
63.1654
63.2226
63.2836
63.2414
63.2169
63.2902
63.3249
63.2752
63.2559
63.2168
63.2335
63.1093
63.1903
63.1469
63.1158
63.2227
63.1745
63.0416
63.284
63.172
63.1507
63.2474
63.1349
63.1547
63.1368
63.1855
63.2379
63.2198
63.2016
63.3002
63.2961
63.2629
63.2607
63.2443
63.1679
63.092
63.2035
63.1812
63.1623
63.1741
63.1165
63.0171
63.2537
63.1362
63.1353
63.2089
63.1104
63.1592
63.1367
63.1735
63.1951
63.2119
63.2049
63.311
63.2773
63.2517
63.2685
63.2963
63.1185
63.0949
63.236
63.2278
63.2049
63.1428
63.0577
63.0496
63.2433
63.111
63.1675
63.1815
63.1005
63.1846
63.1638
63.2042
63.1684
63.2179
63.2293
63.3217
63.269
63.2451
63.2847
63.3533
63.0878
63.1039
63.2456
63.2867
63.2713
63.1407
63.0233
63.0592
63.2481
63.141
63.2275
63.1651
63.1126
63.2239
63.2101
63.2689
63.1593
63.2312
63.2634
63.3304
63.2827
63.252
63.2987
63.3852
63.0704
63.1544
63.3004
63.4029
63.3698
63.1313
63.0022
63.0442
63.2583
63.2247
63.2856
63.1568
63.1244
63.2644
63.2635
63.3332
63.1738
63.2507
63.2964
63.3528
63.3272
63.2861
63.3306
63.3966
63.0681
63.2161
63.4304
63.5053
63.4556
63.0958
62.9715
63.0068
63.258
63.3291
63.3811
63.1614
63.1338
63.304
63.3166
63.3824
63.2152
63.2774
63.339
63.4006
63.4032
63.3398
63.3803
63.423
63.1076
63.2731
63.5496
63.5497
63.5049
63.0691
62.9292
63.003
63.2911
63.4163
63.4692
63.1996
63.1601
63.3396
63.3652
63.4283
63.2874
63.3081
63.3759
63.4811
63.4702
63.4351
63.4754
63.4877
63.1912
63.4302
63.6323
63.5778
63.521
63.0868
62.9253
63.1668
63.3759
63.4644
63.4923
63.2802
63.2299
63.3728
63.4022
63.455
63.4078
63.3138
63.3829
63.5768
63.5243
63.5428
63.5884
63.5448
63.3143
63.665
63.6874
63.5794
63.4995
63.1578
63.0228
63.461
63.4599
63.4906
63.4862
63.4039
63.3247
63.366
63.4165
63.4643
63.5361
63.2816
63.3653
63.6584
63.6056
63.5866
63.6686
63.5894
63.421
63.9721
63.6855
63.5801
63.5097
63.2757
63.1964
63.5721
63.4924
63.4978
63.4962
63.536
63.3662
63.2985
63.4118
63.4723
63.5934
63.2147
63.3392
63.7078
63.6557
63.5757
63.6827
63.6249
63.5589
64.2347
63.5847
63.5963
63.5721
63.4181
63.3782
63.4311
63.4593
63.4934
63.5209
63.6353
63.3636
63.1616
63.3916
63.4782
63.5914
63.1287
63.2892
63.737
63.7125
63.546
63.6504
63.6764
63.6689
64.1558
63.5186
63.6432
63.63
63.559
63.5154
63.349
63.4201
63.4847
63.5362
63.6809
63.3385
62.9951
63.3758
63.4776
63.5638
63.0515
63.2612
63.7393
63.8322
63.8104
63.607
63.7586
63.7729
63.8335
63.5441
63.6761
63.6761
63.6827
63.6262
63.3065
63.3817
63.4898
63.5481
63.7016
63.3006
62.8664
63.3633
63.4757
63.5359
63.0071
63.264
63.7448
63.8958
63.7179
63.6519
63.847
63.8241
63.5646
63.5617
63.6922
63.7157
63.814
63.6934
63.2229
63.3572
63.5181
63.5705
63.726
63.2564
62.7916
63.3655
63.4886
63.5272
62.9858
63.2926
63.788
63.8165
63.5237
63.7767
64.0024
63.7447
63.3716
63.5647
63.728
63.75
63.885
63.6748
63.1481
63.3469
63.5652
63.6075
63.7556
63.2261
62.7574
63.404
63.5244
63.5641
62.9831
63.372
63.8879
63.7257
63.5273
63.9286
64.0205
63.6715
63.2739
63.5731
63.7687
63.7966
63.876
63.6042
63.0758
63.337
63.6209
63.652
63.7721
63.2039
62.7597
63.4881
63.5826
63.612
62.9964
63.4983
64.0268
63.6531
63.5758
63.9701
64.0738
63.634
63.2604
63.5853
63.8109
63.8292
63.833
63.5844
63.058
63.334
63.6842
63.7044
63.7488
63.1466
62.8268
63.5881
63.6612
63.6506
63.0493
63.6359
64.1182
63.6403
63.6292
63.9484
64.0677
63.6075
63.1989
63.6183
63.8516
63.8751
63.7654
63.5591
63.0183
63.3325
63.7533
63.7669
63.7081
63.0196
62.982
63.7084
63.7655
63.6814
63.2142
63.804
64.2337
63.6733
63.6963
63.9373
64.0903
63.5885
63.1486
63.6159
63.9192
63.9375
63.7046
63.5175
62.9612
63.3394
63.8342
63.8497
63.6697
63.0075
63.2658
63.8689
63.8921
63.7486
63.5582
64.0311
64.2714
63.775
63.8227
63.9456
64.1558
63.6394
63.1725
63.634
63.997
64.0172
63.707
63.5481
63.067
63.4767
63.9326
63.9504
63.7644
63.3496
63.6712
64.0772
64.0454
63.926
64.0256
64.2973
64.1438
63.8898
63.9096
63.9214
64.2559
63.7121
63.3188
63.7326
64.0754
64.1152
63.7662
63.6189
63.4088
63.7551
64.0518
64.058
64.0033
63.9706
64.14
64.2867
64.2017
64.2725
64.5054
64.5613
64.1825
64.0003
63.936
64.016
64.4031
63.8299
63.5467
63.8784
64.1333
64.2122
63.9418
63.7396
63.8476
64.0851
64.1718
64.1629
64.4288
64.5537
64.5333
64.4742
64.3476
64.7836
64.7712
64.7739
64.2919
64.1286
63.9111
64.1767
64.5666
63.9917
63.7663
63.99
64.1675
64.3085
64.1947
64.0102
64.1468
64.3323
64.2729
64.2369
64.9514
64.8734
64.7577
64.62
64.4628
65.2886
65.0777
64.908
64.4328
64.3019
64.0199
64.3609
64.6866
63.9874
63.8598
64.0417
64.1972
64.3908
64.5579
64.3404
64.5411
64.4454
64.3406
64.2867
65.8972
65.2911
64.8649
64.7118
64.5525
65.8144
65.2466
64.9599
64.539
64.1749
64.2884
64.5092
64.6907
63.7679
64.0311
64.0578
64.2076
64.4212
64.9214
64.8121
64.8297
64.4844
64.372
64.3232
65.9033
65.3186
64.8702
64.7724
64.6172
65.7078
65.2297
64.973
64.5588
64.4718
64.5961
64.5495
64.5203
64.1704
64.1797
64.0003
64.1443
64.3472
65.2205
65.1467
64.9266
64.4742
64.3548
64.3514
65.6369
65.2295
64.8543
64.7806
64.6642
65.4876
65.1749
65.0081
64.4544
64.8962
64.7796
64.4508
64.1924
64.78
64.1513
63.9289
63.8964
64.0164
65.6272
65.4319
64.8059
64.4082
64.2615
64.3186
65.5479
65.1523
64.8394
64.8323
64.7346
65.348
65.1742
65.1415
64.2941
65.0398
64.7702
64.2707
63.7749
64.9296
64.0127
63.8131
63.2936
63.2789
65.5332
65.3384
64.724
64.2746
63.9564
64.0742
65.4567
65.1139
64.7798
64.8148
64.8805
65.3217
65.2604
65.3585
64.1279
64.9484
64.5894
64.0345
63.281
64.8327
63.8769
63.587
62.2125
61.6993
65.2937
65.1297
64.6564
64.1473
63.0499
63.0774
65.3524
65.1232
64.6222
64.1367
64.9102
65.4286
65.3008
64.9796
64.0491
64.8162
64.4301
63.8549
62.8028
64.6367
63.8557
63.3286
60.5569
57.6968
65.0822
64.9286
64.5513
63.7136
60.9868
58.2915
65.2972
65.1932
64.5622
63.1015
63.6468
65.7527
65.014
65.1776
64.1695
64.7351
64.3925
63.9003
62.4403
64.4532
64.0045
63.1086
58.6992
47.3369
64.8658
64.7278
64.365
63.1564
58.8327
47.4209
-34.0418
65.4139
65.457
64.8565
62.5327
61.1897
66.0055
65.0595
65.2544
64.4676
64.7022
64.4066
64.1767
62.6105
64.4733
64.2222
63.4193
58.4035
40.9519
2.76449
64.6217
64.4553
64.1276
62.8585
57.9807
43.3266
6.21425
65.7173
65.8385
64.8688
62.0077
53.9349
66.3338
65.4267
64.8794
65.0483
64.8253
64.8717
64.8069
63.5647
64.6461
64.6597
63.9795
60.2522
48.544
14.4234
64.2976
63.8775
63.4742
62.5924
57.9462
44.89
10.1476
64.8044
64.7596
64.0393
61.8538
49.129
14.9641
65.74
65.058
64.3111
65.8009
65.4972
65.8182
65.6968
64.8955
65.0289
65.2009
64.3972
62.0508
52.2908
16.2682
64.1255
63.5367
63.0956
62.1431
59.5662
46.7197
6.8237
62.7963
63.6599
63.3741
61.6277
49.8143
65.0298
64.6887
64.1603
66.5237
66.4402
66.9088
66.4109
65.8252
65.5392
65.6441
65.1359
63.7866
59.9546
64.6913
63.9719
63.8262
63.7614
62.8659
54.304
-23.1974
62.8646
63.7084
64.1594
63.5485
59.6834
65.023
65.0608
64.9884
66.9788
67.3125
67.8326
66.7316
66.3112
66.1677
66.206
66.275
66.0094
65.9184
65.8681
65.2104
65.1023
65.6166
65.3454
63.0834
64.4027
65.0301
65.7786
65.6302
65.416
65.801
66.0666
66.295
67.2426
67.294
67.8066
66.5471
66.6465
66.5817
66.3608
66.4753
66.6389
67.3738
66.3859
66.1817
66.3606
66.5358
66.7592
66.9241
66.1567
66.4064
66.8313
66.9449
67.9439
66.7392
66.8805
67.3276
67.3425
65.9589
67.4876
66.7398
67.0922
67.3503
66.5461
66.8914
67.172
67.7992
67.9794
67.846
66.7274
66.9442
67.4138
68.011
67.793
67.1064
67.0973
67.5079
68.5632
67.2756
67.1088
67.6881
67.9707
67.465
67.5197
66.9423
67.4509
68.7018
67.0868
67.0037
67.3175
67.8228
69.442
69.2068
67.1034
67.071
67.2534
67.9631
68.3319
67.2488
66.9611
67.4414
68.3338
67.2549
66.8944
67.6811
67.0573
68.3242
67.3397
66.5162
66.7992
68.7542
66.6535
66.589
67.0298
67.6908
68.9966
68.4897
66.948
66.9381
67.0519
67.7246
68.1885
66.9698
66.8194
67.2961
67.9391
66.9142
66.5737
67.3508
66.9184
68.3289
67.2558
66.3983
66.6235
68.3291
66.511
66.7806
66.8935
67.434
68.4423
67.9657
66.9314
67.1562
67.1729
67.6714
68.0067
66.8638
66.9488
67.3732
67.9655
67.1145
66.6371
67.2087
67.6022
68.6395
67.7336
66.9019
66.9307
68.3162
67.0181
66.8636
67.1505
67.9372
68.4959
67.7684
66.9854
67.2205
67.622
68.3318
67.9551
67.0723
67.1573
67.8048
68.6173
67.5218
66.74
67.357
68.1081
69.0098
68.1304
67.3029
67.2813
68.6301
67.3953
67.1246
67.4319
68.7918
69.1633
68.074
67.3368
67.5246
67.9255
69.2796
68.3926
67.438
67.644
68.3721
69.3987
68.1807
67.4953
68.0153
251.338
252.89
269.3
267.871
245.976
251.972
257.718
257.999
235.379
237.266
240.742
235.133
233.898
248.118
270.855
234.957
254.006
244.189
252.547
233.936
235.097
262.989
255.468
233.759
239.589
245.471
234.554
237.568
237.841
228.978
227.125
233.046
230.142
229.747
244.932
233.522
246.188
237.827
244.837
242.428
251.134
253.172
260.649
271.873
286.413
264.523
294.614
295.321
243.606
247.645
256.418
241.116
238.388
257.131
253.234
242.343
250.095
252.652
256.156
250.895
261.259
262.323
281.322
291.218
316.669
322.47
361.094
324.652
313.163
356.222
264.485
280.301
274.942
297.133
320.073
267.551
271.059
308.568
309.227
285.696
313.634
327.764
362.57
360.172
399.119
402.188
398.834
377.579
343.032
353.914
352.241
350.155
366.869
381.866
358.329
396.582
229.179
211.43
225.746
229.143
232.653
227.988
208.579
225.57
229.668
224.61
230.264
228.368
221.908
228.463
223.278
228.758
215.611
225.696
224.833
222.787
215.048
213.688
214.309
206.507
233.801
224.989
230.684
208.749
209.165
207.469
206.903
233.976
205.158
229.116
232.599
231.729
217.702
221.679
219.262
273.998
279.57
204.171
200.695
201.814
239.449
242.53
220.411
216.476
182.165
296.936
320.336
219.028
212.427
221.971
244.029
149.406
248.511
263.928
270.076
126.813
132.785
153.362
150.262
345.859
351.93
346.34
217.215
218.117
230.862
222.197
215.13
291.087
178.152
333.881
335.034
205.93
227.599
236.832
350.934
340.902
239.375
239.941
243.547
229.338
197.848
187.431
221.368
199.553
212.478
201.014
192.026
195.57
215.4
209.815
201.706
200.473
192.294
193.996
164.992
194.411
162.444
196.309
198.716
192.764
177.804
179.117
174.842
182.449
148.418
171.035
129.704
147.084
105.561
125.354
90.6723
113.346
85.9514
190.589
157.884
177.526
153.646
104.132
124.576
95.1679
101.143
80.5473
81.2826
82.1411
124.383
97.8631
87.6087
85.5559
83.2305
124.24
127.135
86.1097
86.6282
78.1377
97.4152
85.7126
95.4553
96.8864
98.4991
87.03
92.3496
80.2226
80.8656
84.082
80.5208
77.9231
71.8406
70.2596
68.4854
70.4551
71.0142
102.004
78.3096
114.043
118.807
78.4575
76.9381
78.9099
92.8642
110.306
70.7109
68.9442
73.8585
68.2777
173.928
151.698
176.249
181.953
175.89
147.555
159.859
150.804
180.515
168.372
143.015
143.515
128.856
131.433
89.5445
129.099
98.5331
163.438
147.409
168.21
138.833
152.501
116.303
144.596
85.5847
90.2272
80.8775
74.5189
75.9552
70.0786
77.4884
84.0327
81.3153
110.527
80.8932
83.2972
79.9657
73.6354
71.0476
83.3145
82.6647
79.6177
80.2165
77.8031
74.7764
80.1522
73.2119
72.9102
76.0851
77.1183
71.4202
72.0416
72.3463
70.9996
77.3616
72.8757
80.0548
73.7362
72.2503
71.7621
69.3118
70.5269
68.9755
71.6844
70.6226
71.9157
69.165
69.6498
68.8844
70.0577
70.9539
71.3755
68.9944
70.1668
70.6367
68.3904
68.1728
68.3884
69.9548
70.0394
68.3451
68.9237
68.2991
69.3438
124.932
83.332
115.025
131.545
118.163
81.5948
85.1006
77.9333
98.515
81.7554
73.1811
68.2318
65.7198
67.3165
65.0384
75.7647
67.9697
134.842
85.1648
111.367
71.665
86.2226
69.2372
75.801
70.4202
66.0343
74.3832
64.9003
67.2322
65.7474
70.9938
77.4243
73.7074
69.4384
69.8705
69.4038
66.8427
67.6307
67.9654
75.8398
73.5186
74.2786
72.8262
71.3972
70.6961
71.494
67.9286
68.0863
68.0514
70.5441
69.8738
69.0984
69.5342
68.5235
69.9534
67.7416
66.1358
68.5387
67.631
66.6366
65.5043
67.4449
66.8115
67.9551
67.6432
68.1281
66.0505
66.9856
66.9178
67.3213
67.842
67.6402
66.8675
67.0966
66.9929
66.2951
66.507
66.427
67.6179
67.0097
66.5574
66.7641
66.4937
66.9216
65.5046
63.6269
65.4957
65.5163
64.6367
64.041
63.7226
63.9421
64.267
64.2862
64.1964
64.1665
64.1877
64.7052
64.3683
65.9623
64.6151
63.1016
65.0176
63.0159
63.8702
63.416
63.8724
63.5881
65.9611
65.3626
68.9052
64.2529
65.4399
64.7333
68.0098
71.6895
70.789
65.4237
65.9618
65.9234
64.4377
64.6769
64.4797
69.9392
69.3179
70.5386
67.3346
67.0287
66.0279
65.8822
64.9648
64.6132
64.836
68.2529
67.0903
66.3472
66.6903
65.9843
66.3958
65.767
65.4137
66.7334
66.2924
65.5088
65.3496
66.1959
65.9607
66.3344
66.3968
66.6304
65.6214
65.8897
66.0497
66.105
65.8241
66.41
66.0814
66.1853
66.1178
65.8184
65.9898
65.8932
66.1673
66.1542
65.9014
65.9056
65.895
65.9987
64.1655
64.0775
64.1685
64.1633
64.1408
64.0301
64.082
64.0263
64.1321
64.0289
64.0934
64.0871
63.9755
64.2077
64.133
63.7674
63.537
64.2257
63.7534
64.117
63.9045
64.0368
63.72
63.9657
65.229
64.2667
67.0437
64.1698
65.0251
64.3957
65.9743
68.3318
65.5709
63.8086
63.8607
63.831
63.5906
63.6904
63.6755
65.7746
65.6921
66.5556
65.527
64.3162
64.9956
64.6547
64.9558
65.0095
64.8784
64.9077
64.9211
64.8733
64.8407
63.984
64.66
63.9667
63.9261
64.7041
66.2024
65.1404
64.9941
64.9047
64.737
64.7613
64.5296
64.7966
64.8922
64.8361
64.8692
64.8506
64.9114
64.8696
65.4543
65.2507
65.238
65.7834
65.6814
65.2281
65.0873
65.481
65.4396
65.61
65.7897
65.7496
65.4136
65.4348
65.5929
65.5502
64.9955
65.8408
65.6263
65.7418
65.6477
65.4871
65.5064
65.4613
65.7416
65.6661
65.5263
65.5898
65.5007
65.6301
63.9517
63.938
64.0153
64.0243
63.9978
64.0269
64.0034
64.0097
64.0819
64.0028
64.0975
64.1039
64.0369
64.1216
64.1723
63.7193
63.9236
63.8946
63.7775
63.8778
63.8903
63.9267
63.9124
63.9142
64.5641
64.7153
65.1913
64.2563
64.3302
64.8962
64.8792
64.8253
64.7871
64.5111
64.775
64.8398
64.8636
64.819
64.8554
63.708
63.8577
63.8096
63.9273
64.023
64.0227
64.8168
64.9314
64.872
64.8116
64.656
64.9206
64.8277
64.8702
64.8709
64.8807
64.8614
64.8607
64.8715
64.8646
64.0246
64.7027
64.2042
64.1664
64.6378
64.9477
64.7325
64.593
64.9453
64.8403
64.7753
64.6717
64.8801
64.8873
64.8642
64.8726
64.852
64.8747
64.8667
65.0731
64.8901
64.9322
65.2312
65.2347
64.9256
64.7749
65.015
65.0514
65.3035
65.4421
65.3789
65.221
65.2028
65.3437
65.2807
64.5629
65.0306
64.7883
64.8945
64.9123
64.9036
65.3915
65.1317
65.2853
65.2857
65.1175
65.1166
65.1416
65.4492
65.3881
65.318
65.3482
65.308
65.4082
63.972
63.9698
64.0075
63.9929
63.9913
63.9809
63.976
63.9612
64.1031
64.0577
64.0597
64.0671
64.0394
64.2437
64.2392
64.0373
64.079
63.9911
64.002
63.965
64.0525
64.0177
64.0247
63.9976
64.3949
64.7208
64.8632
64.3178
64.4795
64.304
64.6733
64.3624
64.8311
64.1781
64.782
64.8353
64.8721
64.8486
64.8882
64.0951
64.164
64.1738
64.1616
64.2316
64.2173
64.7994
64.8614
64.8672
64.6102
64.8435
64.7244
64.8661
64.8843
64.8881
64.8791
64.9043
64.8898
64.9059
64.89
64.2821
64.5718
64.3434
64.3221
64.5222
64.8942
64.8112
64.8348
64.9156
64.8412
64.9021
64.9012
64.8678
64.9031
64.8822
64.8668
64.8681
64.9066
64.8972
64.7336
64.6461
64.63
64.8926
64.9217
64.7347
64.5315
64.8775
64.851
65.1434
65.2584
65.2078
65.0732
65.0749
65.1449
65.1041
65.0076
65.1899
65.0716
64.9193
64.9967
64.9325
64.9137
64.8233
64.9961
65.0086
64.8096
64.9189
64.9299
65.2389
65.186
65.0823
65.0897
65.0747
65.1621
63.9535
63.9541
63.9372
63.933
63.9191
63.9159
63.9087
63.9011
64.0035
63.9986
63.9381
63.9474
63.9589
64.1764
64.0917
64.1038
64.1254
64.0015
64.0452
64.0059
64.0494
63.9824
64.0812
64.0094
64.3093
63.9478
64.2519
64.1062
64.1266
63.7726
64.0768
64.094
63.9886
64.1776
64.2193
64.1941
64.1864
64.2023
64.1834
64.9236
64.6599
64.8815
64.1165
64.7044
64.5447
64.7811
64.9121
64.9367
64.9139
64.9355
64.9184
64.9515
64.9258
64.3076
64.4915
64.3072
64.292
64.4936
64.8345
64.9399
64.955
64.7269
64.7323
64.7527
64.8296
64.8851
64.9205
64.9133
64.9249
64.8905
64.9126
64.9164
64.6661
64.7365
64.5225
64.9339
64.8642
64.8921
64.5793
65.0042
64.9711
64.973
65.0448
65.0211
64.8445
64.8508
64.9623
64.977
64.7778
64.8298
64.9113
64.8767
64.8766
64.7607
64.8546
64.8441
64.954
64.9564
64.8725
64.8628
64.8656
64.9237
63.9691
64.0019
63.91
63.9109
63.9017
63.9411
63.9435
63.9256
63.8888
63.9129
63.9183
63.8707
63.9048
64.0069
63.9627
64.1496
64.1852
63.992
64.1138
64.0424
64.128
64.027
64.1455
64.0939
64.0407
63.782
64.0214
64.0152
64.0203
63.8527
64.0156
63.9316
63.9557
64.2071
64.2247
64.2081
64.2414
64.2718
64.2538
64.3559
64.6424
63.791
64.115
63.706
64.3082
64.5263
64.3631
64.3512
64.5689
64.7573
64.4712
64.3166
64.0484
64.3895
64.8007
64.8662
64.6636
65.0434
65.0064
65.0165
64.7421
65.0097
64.9075
64.7329
64.8466
64.8702
64.5899
64.618
64.7006
64.7069
64.5522
65.0571
65.1122
64.8472
64.8219
64.8983
64.8265
64.7937
64.7771
64.7889
64.7191
64.6958
64.7195
64.7159
64.0564
64.1218
63.9919
64.0045
63.9844
64.0595
64.0816
64.052
63.9377
63.9473
64.0326
64.0246
64.0055
63.9922
64.0267
64.229
64.2679
64.0817
64.1886
64.147
64.2006
64.1356
64.2271
64.1904
64.0219
63.9311
64.0221
64.0431
64.0307
64.0056
64.018
64.0099
64.052
64.277
64.3089
64.2847
64.3088
64.3302
64.3038
64.1117
64.052
64.0397
64.1247
64.153
64.3944
64.5672
64.4208
64.4141
64.4714
64.1796
64.3384
64.1914
64.2276
64.2624
64.8974
64.8148
64.7698
64.9079
64.814
64.9359
64.7139
64.7815
64.9549
64.5008
64.5762
64.5662
64.3682
64.4022
64.4775
64.465
64.4021
65.0461
64.9839
64.7735
64.7448
64.7978
64.7083
64.685
64.6176
64.6546
64.5873
64.5461
64.5902
64.5144
64.1852
64.2327
64.13
64.1591
64.1156
64.1883
64.2164
64.1679
64.0839
64.0619
64.1372
64.126
64.1043
64.0629
64.0922
64.2961
64.3149
64.1849
64.2564
64.2232
64.2936
64.228
64.2779
64.25
64.0468
64.0481
64.0121
64.0742
64.0644
64.0797
64.0189
64.0774
64.0969
64.3323
64.3387
64.3112
64.3468
64.3362
64.3074
64.1062
64.1338
64.0736
64.0883
64.1201
64.4107
64.3476
64.4066
64.3937
64.2972
64.1981
64.2055
64.1279
64.1729
64.1958
64.6347
64.4603
64.5952
64.7317
65.0292
64.5328
64.4797
64.6324
64.8198
64.3353
64.4098
64.3969
64.3112
64.3072
64.3756
64.3642
64.3231
64.8743
64.7056
64.6307
64.6075
64.5865
64.5413
64.5279
64.4886
64.5404
64.478
64.4368
64.4922
64.4068
64.2621
64.2835
64.2303
64.2517
64.2067
64.2646
64.2769
64.2353
64.1619
64.1385
64.2043
64.1903
64.1657
64.1126
64.1343
64.3285
64.3414
64.2597
64.2947
64.2693
64.3444
64.2806
64.3085
64.2814
64.0794
64.0867
64.0302
64.1049
64.0895
64.0861
64.0386
64.1132
64.1309
64.354
64.333
64.3043
64.3602
64.3385
64.3177
64.0771
64.1144
64.1072
64.0848
64.1244
64.3602
64.3626
64.3445
64.3117
64.5097
64.1834
64.2085
64.1435
64.2135
64.2232
64.36
64.3297
64.384
64.4977
64.5777
64.3049
64.2833
64.3878
64.3926
64.3152
64.3618
64.3633
64.3578
64.3524
64.365
64.3806
64.3576
64.5595
64.423
64.4476
64.4459
64.3906
64.3715
64.3784
64.3944
64.4489
64.3962
64.3673
64.4136
64.3818
64.3002
64.314
64.2934
64.2973
64.2612
64.3147
64.3126
64.283
64.2173
64.1928
64.2526
64.2402
64.2198
64.1582
64.1831
64.3479
64.3433
64.2958
64.3158
64.2878
64.3553
64.3041
64.3161
64.2906
64.1067
64.0959
64.0518
64.1476
64.1297
64.1154
64.0759
64.155
64.1849
64.3605
64.3488
64.3366
64.3479
64.3382
64.3305
64.1128
64.1517
64.1768
64.1517
64.1905
64.2952
64.5708
64.2882
64.2696
64.4908
64.2664
64.2492
64.2434
64.3276
64.3145
64.3198
64.2889
64.1853
64.3018
64.2515
64.2026
64.1067
64.2305
64.1501
64.4003
64.387
64.4091
64.4476
64.4342
64.4071
64.4297
64.4179
64.3176
64.2415
64.3105
64.325
64.2682
64.273
64.2917
64.3516
64.3839
64.35
64.3409
64.3611
64.3952
64.3222
64.325
64.3338
64.3261
64.3013
64.3398
64.3292
64.3083
64.2558
64.2328
64.2726
64.2621
64.2386
64.2012
64.2125
64.3287
64.3059
64.3067
64.3093
64.2891
64.3469
64.3074
64.2975
64.2838
64.1496
64.1402
64.0994
64.1861
64.1764
64.1629
64.1319
64.208
64.2233
64.3245
64.301
64.2973
64.2901
64.2567
64.2485
64.1936
64.2307
64.2347
64.2264
64.2635
64.2056
64.3157
64.1711
64.139
64.148
64.3869
64.3985
64.3345
64.4322
64.4461
64.2228
64.1464
64.0667
64.174
64.0957
64.0809
64.0848
64.1376
64.0804
64.4478
64.4136
64.4401
64.4506
64.4407
64.4159
64.4351
64.4332
64.1956
64.1738
64.2579
64.2741
64.2342
64.2468
64.262
64.3321
64.3415
64.319
64.3246
64.3208
64.3872
64.3245
64.3148
64.3377
64.3219
64.3046
64.3234
64.3081
64.2915
64.2559
64.2416
64.2592
64.2455
64.2358
64.2281
64.2364
64.2791
64.2532
64.3067
64.281
64.2733
64.3271
64.2998
64.26
64.2543
64.2049
64.1821
64.1687
64.2226
64.2226
64.1881
64.1754
64.2332
64.2342
64.2516
64.2065
64.1998
64.2197
64.1724
64.1694
64.2403
64.2781
64.2477
64.2294
64.2692
64.0769
64.0454
64.0986
64.0641
64.0181
64.4565
64.4592
64.3523
64.4408
64.428
64.1016
64.0896
64.1316
64.1265
64.0982
64.0791
64.1692
64.1298
64.1264
64.4152
64.4075
64.4155
64.3923
64.382
64.383
64.3817
64.3847
64.1719
64.1761
64.2412
64.2523
64.2297
64.23
64.2395
64.3078
64.299
64.2738
64.2827
64.2762
64.3474
64.2945
64.2656
64.3049
64.2864
64.2724
64.2829
64.2586
64.2523
64.2325
64.2215
64.2251
64.216
64.2065
64.2312
64.2217
64.2303
64.2067
64.2837
64.2349
64.2262
64.2777
64.2565
64.2067
64.1923
64.23
64.1837
64.1763
64.2075
64.2276
64.1698
64.1723
64.2204
64.1973
64.1973
64.1528
64.1506
64.1748
64.1314
64.1309
64.1992
64.2426
64.2121
64.1644
64.2094
64.0851
64.0294
64.0955
64.0802
64.0495
64.3721
64.3653
64.266
64.2929
64.3002
64.0928
64.1078
64.19
64.135
64.1513
64.1109
64.1896
64.1361
64.1545
64.3404
64.3423
64.3429
64.2788
64.2911
64.2896
64.298
64.2885
64.1777
64.1698
64.2116
64.2204
64.1882
64.1868
64.1954
64.2499
64.2425
64.2096
64.2104
64.2076
64.2598
64.2331
64.2021
64.2581
64.2273
64.2221
64.2371
64.1981
64.199
64.1948
64.1863
64.1761
64.1694
64.1565
64.2003
64.1703
64.1782
64.1462
64.221
64.1743
64.1552
64.1975
64.185
64.1393
64.119
64.2073
64.1503
64.1475
64.1609
64.1767
64.1227
64.1075
64.1582
64.1145
64.1476
64.1108
64.1133
64.1188
64.0897
64.0926
64.1185
64.1569
64.1215
64.0695
64.1006
64.0766
64.062
64.0756
64.0686
64.0531
64.2012
64.2266
64.1111
64.126
64.1581
64.117
64.1125
64.1785
64.1283
64.1415
64.1094
64.1685
64.1115
64.1173
64.2255
64.222
64.2349
64.1528
64.1573
64.1583
64.1705
64.1628
64.1514
64.1273
64.1511
64.1617
64.1136
64.1181
64.1273
64.1711
64.1677
64.1288
64.1319
64.1282
64.1494
64.1719
64.137
64.1861
64.1684
64.1711
64.1387
64.1317
64.1282
64.1372
64.1228
64.1037
64.0991
64.0876
64.1343
64.0941
64.1134
64.0805
64.1546
64.1052
64.0866
64.1259
64.1268
64.0729
64.0573
64.1317
64.0841
64.0635
64.081
64.0847
64.0455
64.0213
64.0704
64.0295
64.0878
64.0624
64.0659
64.0556
64.0287
64.0331
64.0232
64.0459
64.0251
63.9789
64.0013
64.0496
64.0312
64.0257
64.0241
64.0032
64.0669
64.0839
64.0176
64.023
64.0312
64.0891
64.0513
64.1512
64.087
64.0884
64.0658
64.1128
64.058
64.0565
64.0866
64.0968
64.1053
64.036
64.0237
64.0423
64.0483
64.0404
64.1016
64.0699
64.0831
64.0924
64.0523
64.0501
64.0612
64.0906
64.0887
64.0526
64.05
64.0524
64.0484
64.1
64.063
64.1046
64.0902
64.09
64.0697
64.0496
64.055
64.06
64.0508
64.0259
64.0207
64.0147
64.0545
64.0148
64.0457
64.0076
64.0951
64.0399
64.0263
64.0551
64.0584
64.0031
63.9907
64.0374
64.0067
63.9851
63.9946
63.9947
63.9706
63.9508
63.9857
63.9326
64.0218
63.9917
63.9969
63.9855
63.9528
63.9586
63.9386
63.9604
63.9286
63.9008
63.9176
63.9913
63.9673
63.9504
63.9495
63.9229
63.9856
63.9872
63.9529
63.9474
63.9381
64.0074
63.9577
64.0576
64.0214
64.0205
63.9769
63.9956
63.9806
63.9785
63.9736
63.9975
63.9993
63.9533
63.9302
63.9549
63.9574
63.9489
64.0362
63.9985
64.0222
64.0307
63.9999
63.992
64.0001
64.0109
64.0149
63.9779
63.9703
63.978
63.9611