/*--------------------------------*- C++ -*----------------------------------*\
| =========                 |                                                 |
| \\      /  F ield         | OpenFOAM: The Open Source CFD Toolbox           |
|  \\    /   O peration     | Version:  5.x                                   |
|   \\  /    A nd           | Web:      www.OpenFOAM.org                      |
|    \\/     M anipulation  |                                                 |
\*---------------------------------------------------------------------------*/
FoamFile
{
    version     2.0;
    format      ascii;
    class       volScalarField;
    location    "0.65";
    object      Ksl;
}
// * * * * * * * * * * * * * * * * * * * * * * * * * * * * * * * * * * * * * //

dimensions      [1 -3 -1 0 0 0 0];

internalField   nonuniform List<scalar> 
10571
(
505.622
392.965
1564.2
4150.25
8329.58
892.204
3207.74
9717.68
14057.8
2250.83
35.2799
1445.57
7284.59
14644.1
12909.6
2290.05
5302.15
14568.8
10153
5996
4814.22
14573.5
1806.55
690.761
13294.4
8460.1
11176.6
15475.1
276.835
8922.32
14338.1
9560.02
397.141
36.6682
1569.73
11120
12832
5867.21
815.065
366.595
14917.4
4719.43
388.986
303.638
220.107
3438.89
180.928
803.795
5445.85
13952.9
13825
3960.16
1.09478
13130.5
12693.5
1731.59
161.441
10.9752
14212.7
14176.5
5128.47
1328.71
428.586
192.23
11194.2
67.276
200.16
511.551
230.11
30.4925
182.63
443.175
48.7227
13380.4
11398.2
36.7001
9.55689
12450.4
5340.57
69.6615
89.9803
60.5734
13579.3
12103.9
559.72
169.251
301.102
111.065
16.869
15.8023
175.701
388.266
95.5534
30.1071
73.3332
147.085
32.2924
12477.6
353.472
3.21727
3.37445
11607.7
413.101
22.7641
35.9982
21.5003
1205.29
441.56
30.7045
49.9649
148.891
54.8054
9.19159
16.5335
123.635
150.27
123.729
3.53937
91.6549
65.5502
64.4247
2415.53
14.3585
45.033
84.6683
6704.76
18.868
18.5586
23.3471
36.3055
1379.97
13.7041
27.7819
12.7037
19.3348
60.7694
56.6299
5206.75
5.54213
12.2773
85.1103
158.85
82.9315
22.1507
36.1354
176.669
166.587
1086.37
11.9064
105.526
128.832
76.0315
10.9041
10.0646
18.6102
30.6117
2.4288
14.4626
5.00075
10.5706
52.5388
39.1492
50.3431
22.3729
10.867
23.1054
79.9146
74.4931
61.2497
5.06129
10.1196
48.1609
69.4366
128.674
12.5578
7.05239
48.7646
126.233
29.5362
9.83782
14.3031
16.5469
24.6105
3.51545
0
21.8817
7.41515
26.5137
30.5592
39.6014
11.0682
9.67978
15.3864
45.4123
33.4104
36.6563
0.293055
14.8897
80.2771
43.7591
143.495
12.547
48.6104
46.6793
102.246
17.2863
15.4057
20.0257
20.6982
31.7631
21.6398
0
6.33416
5.50488
16.479
23.6842
48.8953
2.87813
6.55045
9.60561
28.6819
35.3742
32.4348
10.6433
54.9108
70.4751
58.1459
-2.93787e-15
26.8197
75.8728
67.8721
1.45864
14.8871
8.33501
18.347
62.7751
18.666
3.21222
5.96156
11.1501
31.5781
93.8002
0
4.64197
21.414
20.3911
111.403
10.9739
17.2694
28.9504
74.201
47.7236
35.2938
41.3822
93.0175
17.8753
10.9668
15.6095
15.4119
71.1081
35.1619
9.76034
2.24147
11.7045
31.1232
47.627
-3.33399e-15
1.8618
11.8086
8.18133
319.287
0.74941
42.6634
27.2579
32.988
14.1527
37.9604
12.4867
49.9411
0.255784
13.8815
17.2709
29.3504
66.832
0
7.2486
7.00959
10.472
41.9099
83.6901
0
22.0186
12.4949
43.8635
138.268
11.9629
34.1117
48.0496
58.0585
16.3431
61.8638
63.581
38.5973
39.5571
12.8164
20.0809
30.4021
107.556
50.932
0
6.76011
15.8356
45.4729
72.3786
0
19.4686
29.8613
77.2452
130.677
46.4803
19.6499
42.0463
22.2924
43.4291
15.3193
36.0688
59.9988
13.5129
13.0058
20.9472
23.2242
123.693
15.8826
13.2388
10.0362
15.7745
39.6299
63.7873
14.9487
6.86314
54.6277
86.2715
49.0875
-9.64e-15
16.1012
50.643
43.0165
36.0726
14.2219
12.6478
101.857
33.102
11.9741
18.0214
26.9698
88.6889
0
-8.22894e-16
3.47236
25.2915
31.2212
72.674
-2.42113e-15
21.8218
59.568
45.9271
57.9547
22.1386
28.2186
67.4123
46.1799
22.0345
19.4885
56.5456
18.8208
19.6998
11.3197
10.6357
24.8507
67.062
53.1536
13.5229
12.314
21.5087
35.4677
66.0362
0.36305
13.6728
42.4138
12.0231
63.2492
26.5972
15.9532
5.09464
15.764
19.5225
5.86149
-1.30052e-16
14.6926
33.9853
10.3732
12.7664
22.1121
34.3107
27.5344
10.5905
23.161
24.84
33.9646
66.5328
26.2252
44.1995
41.6069
36.0137
21.9836
50.0286
27.2741
6.67251
20.641
21.3273
25.844
24.6463
29.779
38.1651
10.0938
18.648
24.3936
35.4648
26.4219
36.8671
7.68687
19.1655
47.6469
101.213
16.5431
8.91075
22.0742
30.3162
29.7187
16.4445
14.9812
37.0379
35.3919
23.8618
33.5013
6.70773
23.0013
15.1492
11.2746
14.4122
19.7018
47.8984
4.0618
13.3806
9.77392
14.8388
38.8957
61.6017
16.633
18.7024
12.5732
17.7169
36.2552
19.7158
9.31062
-8.57464e-15
25.9059
40.8262
0.894015
17.1082
15.8708
14.4468
10.399
20.6303
28.9269
18.5789
28.5216
15.0922
15.1114
16.6435
37.2776
76.8523
3.44909
27.018
13.2511
27.9618
57.4156
28.1296
1.2756
195.297
65.6831
29.998
25.0421
0
14.2085
5.78447
12.1482
6.86716
23.0007
29.4638
104.787
29.5915
7.78305
8.72769
21.1579
47.7355
16.4928
13.8363
7.90897
7.10491
23.4481
48.2784
26.4462
9.74042
23.781
0
11.9164
0.94368
6.11355
8.50685
13.6772
15.0775
23.809
15.2673
28.8767
5.19727
9.94278
21.0229
27.0494
28.3554
0
9.79295
10.8973
19.8039
-1.24811e-14
14.797
-4.82262e-15
9.68485
43.6136
6.48839
13.6685
8.79997
12.5632
21.2963
12.0868
13.9182
14.9807
22.3638
0
31.78
7.5671
16.42
13.3954
2.31045
6.86786
6.76005
5.31711
9.61359
6.89316
17.5448
14.8849
62.5993
26.1298
10.6899
7.24434
6.16411
11.2498
22.8195
9.13974
5.91775
15.0913
5.18821
0
3.85891
4.31484
10.2384
14.859
29.5287
14.6069
9.09865
10.3034
18.2661
15.8069
5.63253
6.73843
6.62327
12.3808
9.41403
6.97751
2.01728
7.30803
7.13081
7.73375
10.9143
14.7212
9.35565
31.2561
16.4455
6.3648
8.71399
13.8695
18.1434
22.205
9.81839
6.63431
3.43957
8.72636
5.36668
4.40353
15.8496
2.5107
0
6.28876
0
6.81377
16.0968
11.2357
6.82733
19.5792
17.4516
60.4301
13.9703
10.3229
14.1468
16.8203
27.2264
0
8.27326
9.87217
9.80136
8.43219
8.40962
7.15255
0
28.5921
20.4121
0.120214
-4.93411e-17
17.5706
0
10.5463
8.6828
21.7405
29.3458
27.6394
5.49812
20.9473
40.4247
34.8031
50.5951
15.6097
10.2409
9.91487
9.78243
29.0787
7.55169
4.6495
0
0
0.351149
0
2.02133
12.2851
4.70062
22.2697
15.7121
26.0601
25.1471
40.5116
32.9204
14.9365
16.2947
19.9093
41.1948
47.2112
9.29163
7.35939
6.27561
19.5438
0.336581
10.2106
8.35776
7.45781
0
6.11485
8.7371
-5.60096e-15
12.7098
24.4454
9.92329
23.544
60.0332
105.011
24.3025
20.6253
13.8627
23.7504
35.4158
27.5819
8.29816
5.80691
4.71631
7.51236
0
7.04927
7.83591
-7.52757e-15
0
9.91497
-3.6645e-16
16.5791
3.2123
28.3108
22.9605
24.2057
63.2566
55.2539
61.024
19.9059
19.8532
23.0284
32.326
7.48255
8.24025
3.50371
2.84308
17.6906
0
26.206
11.5958
11.4771
40.8709
8.29089
16.8853
22.7335
6.34436
14.0015
15.2084
40.2781
37.3054
0
15.8166
14.2482
14.333
16.7039
63.4555
13.0911
7.81309
5.8066
13.1344
25.8863
7.86898
9.26686
44.2522
0
18.2041
17.8098
29.1273
32.7174
24.6582
17.278
20.3268
33.1379
73.2034
0
16.1279
10.1762
10.4514
21.6705
60.1615
-6.93424e-15
6.27729
1.92579
12.8877
54.6188
9.22242
4.6217
7.90238
0
40.9436
19.669
21.324
14.0468
10.2915
13.6892
17.3495
29.1466
33.7888
25.6139
45.3104
8.98079
8.64405
19.6689
34.8679
0
4.42321
6.96561
14.3414
64.2359
0
4.53082
0
0
19.9638
23.5813
11.0175
10.0832
5.94937
13.783
17.5458
26.1177
25.8159
0
6.20484
4.52363
11.3131
24.2804
22.7132
7.32395
2.62865
4.39492
12.6176
39.7001
0
4.13255
0
0
67.1636
5.4056
-2.99752e-15
9.33815
20.3891
10.3807
17.6509
13.9924
6.8984
3.99444
9.90178
11.4896
13.3541
12.8458
3.22429
0
5.59018
3.80523
4.91584
0
-7.31126e-15
11.4103
15.4793
0
31.5198
2.80695
0
0.220248
15.3393
5.71191
14.954
6.98664
0
0
7.40797
3.67272
11.3698
6.05777
0
0
2.55114
3.6766
4.56291
0.790752
0
0
0
10.6579
18.0056
8.94807
-4.67187e-15
0
14.1817
8.76221
3.96729
2.56228
0
0
0.410048
2.99172
4.48215
1.38205
0
7.10681
0.892184
1.24435
4.54129
0
7.84526
0
0
0
0
1.43248
0
-4.14757e-15
7.12402
3.60057
8.19569
1.47017
0
0
0
1.07117
5.79548
3.61829
0
0
0.829127
1.97969
0
0
0
0
0
0
0
0
0.199455
0
-2.09177e-15
4.35262
1.52688
0.670527
0
0
0
0.807492
0.761279
0.634466
0
-2.1557e-16
1.93081
-5.6722e-16
0
0
0
0
0
0
0
6.76283
0
0
0
0.394908
1.08584
0.433605
0
0
0
0.774459
1.32575
0
0
0
1.4134
0.84467
0
0
0
0
6.16358
0
0
6.20167
0
0
0
1.18337
0.709815
0.67642
0
0
0
1.54558
0
1.21553
0
0
0
0.64612
0
0
0
0
0
0
-6.65784e-15
-1.30307e-15
0
0
0
0.726536
0
0.684906
0
0
0
0.783319
0
-5.57446e-16
0
0
0
-3.82933e-16
4.72841
0
0
0
-7.66505e-15
0
0
0
0
0
0
1.35564
0.0950249
0.565646
0
0
0
0.292134
1.38508
0
0
0
0.493116
0.686282
0
0
0
0
0
0
0
6.89373
0
0
0
0
0.033069
0.181376
0
0
0
1.18811
0.758929
1.17539
0
0
0
0
0
0
-4.28011e-15
0
0
0
0
0
0
0
0
0
0
0.0806765
0
0
0
1.49658
0
-5.54885e-16
0
0
0.747414
0
0
0
0
0
0
0
0
0
0
0
0
0
0
0
0
0
0
0.745126
0
0.622771
0
0
0
0
0
0
0
0
0
0
0
0
0
0
0
0
0
0.013177
0
0
0
0
0
0
0
0
0
0
0
0
0
0
0
0
0
0
0
0
0
0
0
0
0
0
0
0
0
0
0
0
0
0
0
0
0
0
0
0
0
0
0
0
0
0
0
0
0
0
0
0
0
0
0.472363
0
0
0
0
0
0
0
0
0
0
0
0
0
0
0
0
0
0
0
0
0
0
0
0
0
0
0
0
0
0
0
0
0
0
0
0
0
0
0
0
0
0
0
0
0
0
0
0
0
0
0
0
0
0
0
0
0
0
0
0
0
0
0
0
0
0
0
0
0
0
0
0
0
0
0
0
0
0
0
0
0
0
0
0
0
0
0.777383
0
0
0
0
0
0
0
0
0
0
0
0
0
0
0
0
0
0
0
0
0
0
0
0
0
0.623135
0
0
0
0
0
0
0
0
0
0
0
0
0
0
0
0
0
0
0
0
0
0
0
0
0
0
0
0
0
0
0
0
0
0
0
0
0
0
0
0
0
0
2.40405
0
0
0
0
0
0
0
0
0
0
0
0
0
0
0
0
0
0
0
0
0
0
0
0
0
0
0
0
0
0
0
0
0
0
0
0
0
0
0
0
0
0
0
0
0
0
0
0
0
0
0
0
0
0
0
0
0
0
0
0
0
0
0
0
0
0
0
0
0
0
0
0
0
0
0
0
0
0
0
0
0
0
0
0
0
0
0
0
0
0
0
0
0
0
0
0
0
0
0
0
0
0
0
0
0
0
0
0
0
0
0
0
0
0
0
0
0
0
0
0
0
0
0
0
0
0
0
0
0
0
0
0
0
0
0
0
0
0
0
0
0
0
0
0
0
0
0
0
0
0
0
0
0
0
0
0
0
0
0
0
0
0
0
0
0
0
0
0
0
0
0
0
0
0
0
0
0
0
0
0
0
0
0
0
0
0
0
0
0
0
0
0
0
0
0
0
0
0
0
0
0
0
0
0
0
0
0
0
0
0
0
0
0
0
0
0
0
0
0
0
0
0
0
0
0
0
0
0
0
0
0
0
0
0
0
0
0
0
0
0
0
0
0
0
0
0
0
0
0
0
0
0
0
0
0
0
0
0
0
0
0
0
0
0
0
0
0
0
0
0
0
0
0
0
0
0
0
0
0
0
0
0
0
0
0
0
0
0
0
0
0
0
0
0
0
0
0
0
0
0
0
0
0
0
0
0
0
0
0
0
0
0
0
0
0
0
0
0
0
0
0
0
0
0
0
0
0
0
0
0
0
0
0
0
0
0
0
0
0
0
0
0
0
0
0
0
0
0
0
0
0
0
0
0
0
0
0
0
0
0
0
0
0
0
0
0
0
0
0
0
0
0
0
0
0
0
0
0
0
0
0
0
0
0
0
0
0
0
0
0
0
0
0
0
0
0
0
0
0
0
0
0
0
0
0
0
0
0
0
0
0
0
0
0
0
0
0
0
0
0
0
0
0
0
0
0
0
0
0
0
0
0
0
0
0
0
0
0
0
0
0
0
0
0
0
0
0
0
0
0
0
0
0
0
0
0
0
0
0
0
0
0
0
0
0
0
0
0
0
0
0
0
0
0
0
0
0
0
0
0
0
0
0
0
0
2074.45
1057.21
325.217
337.294
1645.39
710.898
4477.29
11104.9
1372.78
1848.66
757.219
678.294
694.139
637.903
455.1
761.252
777.736
436.397
5246.63
780.786
5917.73
10699.3
13138
12622.7
11851.5
10915.3
212.406
1093.82
264.96
227.361
430.5
409.661
566.745
797.367
1358.72
718.261
1371.08
3100.29
7559.46
4120.06
9372.15
12668.3
12576.3
13567.7
11296.8
10347.6
10431.8
13410.8
1262.17
355.811
262.863
1080.96
821.453
1036.54
2454.87
2418.37
3176.42
5036.34
6803.5
6804.49
12139.1
11800.9
13550.1
13473
10486.7
12303.6
9702.67
10195.6
12812.3
10646.4
498.571
2132.45
4704.96
3111.46
8235.88
8263.46
10706.1
10847.6
10286.2
12829.5
8405.63
6032.95
3855.38
10701.9
10696.6
6046.45
10787.6
10493
9380.65
9618.45
10220.3
6631.97
7854.41
6394.35
6889.2
6665.8
497.352
3582.19
611.951
478.368
993.59
2686.17
2863.38
4372.36
1729.3
6541.29
1524.76
7343.99
13211.9
11636.3
9612.2
313.545
2741.26
711.194
478.103
921.742
3804.93
4132.05
3589.43
5066.1
7774.45
10416.1
5029.7
1394.79
403.576
2281.08
167.784
4606.42
98.0614
264.345
35.2387
405.474
2229.91
1084.6
3146.79
2177.1
3501.43
127.235
209.879
256.572
321.688
351.208
176.777
2122.03
3628.1
3628.75
3853.81
461.25
116.14
417.702
1300.37
7745.23
10295.5
9567.65
13708.8
11713.9
14943
15223.5
15847.6
3677.75
972.807
4239.59
354.525
380.729
557.401
799.215
378.252
15495.7
16258.4
9446.23
11491.1
13519.1
4390.5
3483.68
886.939
6141.21
352.829
273.538
588.173
507.456
9402.66
13915.2
12020.7
9546.1
12875.1
16447.7
13633.6
14957.9
15593.6
10532.1
14603.8
11975.1
1306.93
825.707
26.3145
6837.05
12681.6
10109.3
9168.2
10828
12979.7
13109.3
12608.3
12694.3
26.9723
367.647
46.6269
40.1028
37.6241
54.7521
19.0502
0
0
7056.94
6010.93
8254.36
11884.1
11844.3
12351.2
95.4293
117.19
18.7244
94.9665
50.608
6726.46
9333.79
10261.9
12538.1
13791.4
177.748
344.298
266.266
144.916
395.552
14020.7
16126.7
15644
16278.1
14411.5
14984.1
12880.3
14261.6
4719.75
237.723
727.307
417.987
354.684
305.628
553.123
303.666
378.076
12136.3
557.11
285.175
75.6323
10.5534
76.4222
51.155
313.73
53.3037
208.217
587.399
113.2
800.216
15476.8
14226.9
13409
14021.7
13453.1
3119.24
12904.5
6200.57
1886.61
33.5658
128.903
92.9099
6.8977
0
27.8381
14221.3
14353.4
13305.3
13174.8
13280.3
14016.5
13145
12760.9
13397.9
58.3057
57.5288
25.3257
16.7901
55.2144
89.2711
15.2817
60.4501
-2.0157e-14
13021
13899.7
13721.1
13004.1
14399.8
13113.1
53.4983
87.1144
12.4321
72.396
24.5414
14221.8
14818.4
13751.8
13782.6
13203.3
98.1749
367.489
136.135
73.7542
148.704
15048.3
7113.61
3778.99
2003.75
101.279
1141.11
67.6658
22.7555
15.5477
364.895
254.7
261.794
615.716
348.611
162.278
184.943
187.645
0
12.5611
42.3155
1.06986
15.346
34.5147
57.3141
401.393
109.879
140.362
122.057
198.062
133.513
14083.3
11574.2
112.531
8281.83
549.573
40.4967
1216.11
23.6691
24.2608
9.24882
-3.97013e-14
21.2436
0.275945
-2.56167e-14
0
13579.1
13312
12687.2
12387.3
12565.9
12493
11837.3
12057.6
12365
18.0434
-5.44808e-14
10.6291
15.9966
22.2656
23.1642
31.7482
70.3685
10.4904
12716.2
13880.2
12637.2
12055.2
13112.6
12141.4
107.138
60.058
16.3889
73.6539
30.9451
12588.8
5506.14
8735.71
5799.54
92.0377
1.26094
171.828
107.129
74.2527
30.1157
208.25
0
0
0.742424
4.47299
4.44039
13.9609
0
14.4163
185.813
165.121
152.942
240.477
179.963
185.356
199.193
196.39
6.41987
0
20.252
28.1327
0
32.6056
0
135.944
27.209
183.009
167.543
0.888687
94.1811
2693.9
81.5147
38.6885
62.7841
16.4683
38.8417
19.6401
9.43682
18.5503
27.6699
17.349
31.9968
28.3005
0
69.8246
12307.7
11367.3
8133.66
11718.6
11102.8
10247.5
959.064
11209.2
3579.28
-1.7599e-14
-9.14509e-15
10.4803
41.153
19.8278
10.7721
8.97192
28.3302
-1.6471e-14
11331.1
11066.6
10354.4
10493.7
1400.32
3208.1
57.9713
24.1494
20.7968
52.1277
119.206
587.955
0
62.5905
40.5214
5.144
94.6901
33.0948
53.7041
79.6484
98.3633
0.367271
0
0.291896
28.5444
5.02641
17.0288
23.0075
19.2096
0
228.748
207.306
109.135
162.603
121.923
153.437
176.812
27.7139
14.9439
0
67.3882
0
16.66
37.1072
32.7748
113.758
0
79.4001
111.953
33.4121
293.531
39.9193
20.2055
38.1665
4.24514
51.2062
12.8322
20.2082
74.0471
99.6445
142.713
125.544
198.525
304.145
165.744
319.266
11898.1
13264.5
61.6336
10487.9
266.962
690.335
56.8082
7496.67
114.121
38.9523
16.6134
9.99465
185.614
57.2107
12.1797
39.7936
36.0366
-1.3435e-14
6967.67
67.5682
212.753
955.4
55.7905
16.0087
48.0156
26.1011
178.786
38.6745
0
50.9898
46.6856
13263
4885.21
8332.41
30.3612
28.4405
178.121
152.411
11.889
6.26311
18.87
5.98298
23.9564
100.808
54.3296
19.2068
59.2781
28.2936
91.7286
8.06596
17436.2
1024.35
30119.8
135.92
180.193
41.1843
73.1322
13.2489
1.11714
-1.64034e-15
20.2884
0
4.88017
0
0
0.556568
99.65
119.897
76.8901
80.3165
79.9774
69.9732
39.1356
23.2219
0
17.5328
15.0607
96.6325
-9.88325e-15
9.92632
61.582
122.298
30.3033
5.13884
96.1959
32.3115
133.876
10.3552
23.7981
41.4884
29.0245
51.1685
49.7354
2.02258
13.03
193.434
241.74
153.003
131.875
177.286
336.798
203.577
5262.16
267.679
121.301
3127.04
145.843
189.921
29.6731
229.767
37.4941
188.142
25.1604
27.922
123.032
137.132
31.4582
33.0535
52.9189
36.1217
24.6613
-5.06888e-15
8.86217
11.2069
0
4.10593
75.2443
22.8716
30.6572
30.4988
30.6893
16.5064
13.8141
16.7328
73.2419
17.049
0.592975
26.2198
39.5412
12.7642
33.3614
20.5069
2.29564
5.11811
-9.43084e-16
19.3079
4.96938
9.94114
0
7.50503
10.9192
109.617
43.0787
12.631
54.521
39.0501
33.0567
39.665
3.89411
9.71952
3.55036
10.6701
6.16495
2.21349
12.4852
22.6894
0
0
0
0
5.7645
5.88399
25.343
0
71.2037
100.902
89.2963
65.8432
34.8159
68.5012
74.2296
5.62706
25.8268
4.74691
4.08075
4.0629
0
0
0
41.0207
0
0
41.9575
0
90.2459
0.679053
47.6008
74.2313
0
56.5436
17.9681
36.7581
32.2692
33.6858
32.9911
139.907
33.6388
96.6633
114.53
151.491
144.92
149.769
198.509
177.678
124.843
79.498
22.3767
24.4899
41.1942
24.7818
23.1244
25.1477
14.2953
45.7764
230.656
70.3295
102.208
119.827
128.224
39.0716
72.1076
24.0869
19.6228
102.141
0
0
7.1485
0
9.81448
60.1977
21.7299
4.96893
20.4797
15.8489
17.1999
-6.99688e-16
52.7554
17.7495
58.514
8.53407
40.4132
17.3034
7.73933
9.86474
9.17384
2.10681
0.446096
0
5.96351
4.52783
6.68547
12.8988
18.332
0
22.7548
65.0844
44.6618
53.1756
19.3214
50.8487
6.58031
5.16221
0
5.83388
2.36433
0
6.89691
3.99736
2.47058
0.578346
0
0
19.3097
7.75241
0.514016
0
7.83359
30.6437
54.7075
44.3619
29.302
44.7572
51.1803
34.5366
6.29129
22.6358
-1.48677e-15
0
7.22391
-6.95985e-15
11.5732
-2.97791e-15
53.7133
37.736
32.2368
15.8257
73.2504
63.9539
154.851
64.2288
52.7919
45.0873
34.1051
4.09315
32.6614
140.442
70.4621
88.4113
38.5241
32.751
110.589
82.7438
162.458
92.9973
107.041
81.5878
202.015
108.551
12.3541
39.0151
47.8164
18.118
18.5285
15.9892
20.1149
44.0574
12.7287
128.988
45.5059
81.9091
87.4912
116.037
39.1132
50.3774
45.3278
109.116
22.2804
0
25.8193
14.6338
0
14.7025
8.53973
36.0621
29.036
41.7086
-4.51866e-15
31.9188
22.0635
5.54348
0
0
9.71179
0
4.57844
0
5.32621
0
17.4148
5.58472
0
56.6798
76.6174
17.8637
79.4193
32.105
51.2737
9.54462
0
0
7.51454
4.68403
0
0.529111
4.26746
0
0
7.86689
27.879
8.24368
0
-5.26898e-15
0
8.0662
54.5653
31.972
8.54311
31.1521
31.7525
17.8868
54.7677
86.6962
7.59353
13.0493
8.54632
5.42431
0
-5.04979e-15
1.71022
5.05405
13.4397
51.5265
33.0838
72.6357
56.776
22.5367
19.1123
105.236
50.7902
60.4712
18.9594
79.8936
76.3934
46.7983
88.5379
57.3673
34.2149
24.8178
42.9636
48.0477
5.78852
19.3287
30.0781
7.69373
5.69934
16.3175
28.0733
26.5921
28.6766
119.7
16.1762
120.086
49.0232
131.473
67.6645
83.4057
135.244
130.541
10.179
0
14.3955
29.8227
29.0542
6.52346
54.5979
35.194
76.8622
88.7572
73.4529
0
2.03794
18.3751
3.26372
12.9105
37.8609
139.595
71.577
95.0906
124.036
0
29.0804
0
9.94728
7.5806
0.88127
0
32.889
0
45.2913
17.6776
36.2878
17.9545
67.2457
21.3401
46.2165
166.479
0.691386
18.5913
24.1872
32.9529
-2.08231e-15
17.9824
41.6328
30.5976
26.2359
38.6105
36.3526
21.33
32.8291
14.2879
23.8087
36.2219
36.4006
40.548
110.496
55.8304
56.0134
39.742
64.4644
118.218
66.738
36.8729
24.2636
25.5049
12.0843
0
24.2835
20.021
7.45264
8.40908
7.87547
4.7843
8.83029
48.3669
41.5342
98.9559
76.8356
33.3133
28.3602
46.1631
91.7262
87.1006
11.03
-1.8318e-14
8.70698
9.0235
28.6182
18.2089
64.057
77.5348
95.2306
41.2977
36.0785
26.4882
-2.33199e-16
20.9285
-5.76296e-15
16.1761
115.41
156.887
81.7956
82.9927
144.474
15.9968
0
0
13.8708
16.4
0
0
0
-7.42492e-15
88.1037
42.3251
48.7487
34.6244
112.47
54.3018
135.243
180.421
0
1.35505
50.3832
48.4446
32.1739
2.75879
0
29.5088
27.4682
9.94614
11.949
40.5145
75.8612
42.8178
35.4115
16.3709
34.081
29.8813
83.3038
15.5275
43.967
17.3675
35.1731
27.7126
37.4004
43.5001
40.4125
36.5764
39.259
4.4594
20.3169
27.8386
14.7656
30.0083
25.3897
5.25066
24.1372
76.1672
53.925
48.797
42.6004
47.1051
15.189
60.2459
109.952
55.2448
20.3491
38.2421
23.1243
22.7482
42.2516
25.8647
83.2843
17.1908
131.697
116.136
93.4304
5.68433
1.80404
22.6398
0
0
81.5632
119.566
71.5443
29.1942
132.142
0
0
15.0971
0
0.733224
7.56519
7.97844
0
16.7437
109.915
53.1285
163.089
50.4578
129.241
71.4568
94.7815
133.747
57.0636
0
125.062
36.8514
81.2676
216.513
96.0042
27.8314
98.9555
35.7171
21.9173
63.3036
37.5414
10.7825
35.1196
38.8204
27.3641
66.5646
21.7436
33.4923
82.3135
50.3183
44.7393
11.0925
80.9961
39.9119
22.8017
37.9348
35.6067
11.5523
27.4329
29.9566
23.212
53.9995
24.463
16.4946
59.1041
61.904
28.3254
61.5933
44.1314
57.7819
68.5089
88.7352
110.086
110.859
43.1471
21.8983
35.2512
21.8806
22.1413
33.7222
99.2935
82.5654
135.374
59.6987
106.598
13.6192
11.2854
32.2321
0
0
43.2736
108.156
90.32
78.3874
71.266
0
35.8513
0
15.2327
-2.4272e-16
15.184
10.4631
0
8.36913
137.144
84.2359
86.7788
54.8625
101.036
73.6415
82.0328
87.2936
0
0
61.3724
60.7309
43.7695
40.248
77.1324
68.8845
94.561
40.4668
44.0633
38.9742
27.6924
60.844
12.0316
60.0332
20.0522
39.9706
20.935
7.25062
38.8256
51.0728
37.5469
27.9855
43.5138
38.7053
34.4327
47.4588
86.0778
28.6386
30.4737
28.7138
23.7051
3.97652
5.87141
37.649
6.48362
94.2147
45.0996
66.1951
71.052
16.8123
18.997
64.999
128.389
29.1192
23.7827
45.2149
30.0861
43.7326
25.3054
8.03082
88.8162
40.9319
89.341
57.7117
43.3768
0
9.28825
0
0
0
56.1221
53.441
61.5803
89.6401
105.996
0
29.1084
0
15.7296
8.17571
8.52617
0
15.5242
8.39184
44.3229
46.8868
46.8109
62.822
71.7298
46.8126
44.0343
73.4447
0
18.5991
64.2007
77.6741
0
56.6514
115.578
47.3094
104.956
42.092
38.9855
4.80161
31.6301
24.9786
-1.10518e-14
26.5356
13.4542
25.4748
-9.88785e-15
25.8531
33.4592
39.8604
25.4555
49.3966
27.5737
21.3014
23.6925
26.467
41.198
47.4255
29.4351
47.4631
8.84966
19.8804
23.2393
20.5174
18.1034
39.6624
19.9994
52.7883
20.682
39.1179
40.709
32.7171
97.9286
39.7292
48.6135
-7.62626e-15
17.4155
29.0267
8.91529
26.7881
102.901
81.9358
67.8312
61.353
29.6388
14.1459
0.397203
27.7062
2.80428
9.74611
39.1997
60.1739
84.8669
86.1379
47.2347
6.30474
18.5773
0
14.8312
7.91597
15.6874
0
0
36.6391
49.6746
63.9979
35.2371
43.2503
58.9225
21.8438
46.9517
32.4295
0
82.6909
21.8047
95.4457
79.7516
20.2289
74.1865
15.9661
24.9211
26.2399
7.97355
14.0648
18.2491
0
36.0273
0.944493
34.2825
44.298
85.3608
71.5305
52.7519
27.7531
30.5466
-2.79925e-14
42.0737
34.5687
13.2167
53.0125
11.3366
24.9825
25.6113
42.243
35.0855
19.4781
36.0602
61.4707
37.1031
19.8521
23.3394
45.9543
22.1049
9.12443
35.763
14.3479
31.1705
40.0489
33.1241
43.8739
13.4304
44.8203
21.9074
7.02293
65.8063
115.862
44.1183
54.6056
61.9384
12.1948
12.3524
0
8.06945
0
90.8158
36.9612
66.3921
115.573
67.4219
18.1664
0.648576
13.3619
0
31.0908
35.8362
10.228
15.0168
4.76443
83.2277
31.4554
24.5479
34.5849
50.5435
25.4386
18.7699
78.4062
64.6645
1.3586
28.4641
21.1501
36.7267
20.4218
31.7415
40.548
0
14.9235
16.9739
35.043
7.0374
4.70236
34.9198
28.1283
41.4808
4.78085
-1.23575e-14
24.5473
18.8649
26.2486
15.5795
27.5345
10.1574
9.51338
17.3864
28.5035
72.396
41.7686
33.0147
16.5173
24.529
16.6823
27.7736
50.3124
21.218
259.813
13.8566
15.1816
22.171
3.97374
34.4537
26.3176
26.7903
34.5073
35.6547
9.23051
43.4139
71.34
0
48.1448
43.976
53.7056
25.2747
42.2344
92.5808
15.6727
20.0369
55.159
33.8094
23.0873
42.3371
65.1011
91.9997
92.786
79.0009
2.80489
33.402
23.7021
0
13.5186
16.3431
16.7183
30.5368
8.56691
46.2106
27.8539
26.779
36.5146
40.5457
29.3038
27.8049
59.8765
39.2437
0
34.2278
27.3958
20.9921
17.4662
53.5671
8.91359
0.732983
8.07907
13.2395
0
27.5582
58.782
51.8969
16.9498
48.146
24.8788
17.5197
35.1616
11.7233
25.8821
10.2463
30.8589
25.788
22.3304
-9.42815e-15
129.809
46.3611
44.4329
16.5561
26.0738
44.9478
8.65955
7.62244
10.7595
16.7179
16.6796
26.1902
20.747
8.23866
14.9678
25.6075
27.1088
11.2674
6.56108
37.6685
25.017
58.1057
36.2076
28.5819
49.81
51.4489
64.9276
45.0862
81.3486
115.142
5.24018
0
0
15.3719
10.9628
59.0405
64.1213
92.2106
114.413
67.7231
0
0
-2.57818e-16
46.7373
0
26.5659
15.0219
15.8855
13.9858
39.0466
24.0734
36.3784
21.9587
36.4977
24.0789
16.5888
44.9825
43.6056
44.8847
13.6254
53.0023
-5.74073e-15
19.9541
-2.32332e-14
0.821838
0
20.9897
-3.65305e-16
0
9.84225
62.4699
42.5666
4.67937
21.7727
25.4652
-3.91483e-14
12.0994
39.3443
20.1768
44.9713
6.28472
44.4846
11.1065
21.9475
49.4229
26.5949
-1.22222e-14
2.30066
10.7798
22.9036
27.8642
18.2474
12.6314
18.9326
18.0481
6.03724
14.9038
3.54016
7.90377
13.4274
18.0047
25.6364
22.8074
15.4202
106.977
43.0355
72.4087
26.5941
18.4926
88.0141
64.4162
24.6232
71.4149
65.9665
6.93581
19.2498
56.0404
29.6452
24.465
98.0931
53.2372
76.6773
92.6344
79.0757
19.3638
19.7187
0.359897
10.8763
16.5734
24.1798
-3.67755e-16
10.3163
29.9026
68.3461
22.1634
14.7647
33.274
48.6593
14.4672
38.9335
75.4723
64.0575
57.3495
13.5123
0
29.1544
6.40847
0
14.1325
0
-8.28315e-15
12.7348
0
0
-2.15393e-14
11.7061
18.0996
12.2246
10.5472
34.6577
9.30948
36.8217
47.4893
18.5155
53.6395
23.3427
19.5967
-2.6102e-14
9.65585
36.7697
14.5713
17.775
20.0322
10.8105
17.9293
12.4388
23.6488
18.6388
21.4314
1.20155
10.1372
4.36054
8.55656
13.6566
8.53987
6.41757
12.9288
21.0807
0
39.1746
25.6283
27.2711
29.471
42.8383
115.087
43.804
32.5817
139.224
31.3042
9.5118
6.13599
16.0972
11.4617
107.66
63.2794
46.841
68.4058
43.0123
29.2129
0
8.32604
-4.67816e-16
0.17036
-1.12695e-15
7.97078
4.55005
5.14293
25.6838
19.3365
11.5646
33.6635
30.4871
18.3612
13.75
14.9309
18.5863
36.7388
18.0606
0
0
13.0992
0
4.58242
67.5114
4.82201
33.4753
-3.88524e-14
11.8743
36.9004
12.3473
48.3543
4.59875
29.1201
48.2896
11.6427
16.1138
16.8259
16.745
5.07549
25.5255
11.1577
-8.31723e-15
10.6282
11.2745
3.21277
15.1934
17.6644
25.7313
-1.78597e-14
6.67563
18.4071
27.4274
-7.43904e-15
7.47186
8.00639
19.5471
14.8991
10.3662
13.6039
9.08116
9.21253
7.15219
33.0006
44.3144
39.0631
75.1094
38.3287
49.4861
78.2572
11.4047
48.7112
10.5831
16.0795
6.91356
35.4296
7.67816
21.3679
16.3098
12.2626
20.1058
-1.35937e-14
28.2368
37.2326
0
0
15.1667
15.6907
15.4589
8.33393
15.393
16.2097
26.5667
22.8469
19.8854
18.9525
18.9771
6.40336
30.5311
14.7933
-1.60249e-14
17.9637
5.97318
0
27.2863
10.469
0
16.7047
22.8611
7.28615
12.1372
-7.13147e-15
10.8482
0
0
46.5704
20.6097
21.081
-3.16057e-15
12.4618
32.4585
18.6969
5.08783
32.1298
19.315
-5.96931e-16
7.64224
8.84155
0
0
7.79488
7.91508
23.2525
4.90259
11.3126
5.2899
10.2659
15.6232
2.06912
7.36811
13.7059
-9.07058e-15
13.5566
22.9009
15.1512
11.5641
27.3484
78.0258
56.4957
7.71655
25.4486
36.622
34.4244
33.4432
16.6803
22.3185
23.4629
13.3059
6.52836
0
26.3385
11.2606
11.7215
8.60551
14.6835
10.1377
10.8067
6.25905
47.5119
0
0
18.5193
8.30564
16.2456
0
13.2813
26.2813
3.99498
8.91799
15.6152
11.3583
23.2646
5.46708
48.8471
0
54.3117
22.0959
34.1247
20.3679
10.4375
0
18.151
0
14.1646
18.5716
0
-8.70833e-15
12.9801
24.5671
102.972
26.8343
33.6148
23.78
4.37343
17.2176
14.722
15.6677
6.01285
19.6873
4.83886
0.387324
0
12.1833
0
8.65512
0.192044
14.5547
6.58095
8.23697
1.66087
20.8555
3.36874
5.18998
14.5319
8.47576
16.6591
14.216
22.6382
11.6427
0.31815
15.8233
25.4378
6.82067
9.21595
0
49.9146
4.03847
-1.56783e-14
10.8348
11.7602
20.2205
7.54918
30.08
0
1.81938
35.0271
24.6012
22.6825
8.65229
12.9559
11.2821
53.0374
6.6532
17.0113
0
52.7579
-2.4586e-15
0.202026
15.3792
58.3921
14.0877
8.95275
5.17563
9.80363
11.1548
1.22741
16.5028
19.9793
52.8856
35.3936
9.60571
0
11.4322
14.2396
0
5.62606
-5.02289e-16
-4.79005e-15
-3.41667e-15
0
-6.0302e-15
0.408458
11.5915
27.9472
10.4728
29.8271
-4.65904e-16
18.0958
37.0297
8.00224
0
27.4369
-2.95001e-15
23.019
10.3249
10.1503
20.7202
41.4131
0.308229
9.1059
8.92346
0.2968
5.48249
11.5265
12.2442
24.9386
4.97607
3.85763
7.21365
31.6868
13.3265
10.8415
0
7.87059
26.6557
77.23
21.3926
4.49758
0
8.55227
9.5384
15.17
10.8471
19.2084
10.8334
11.6543
36.3375
28.3682
20.5389
23.812
14.0271
16.5966
7.11327
15.3996
9.182
0
0
22.2597
16.4989
28.8119
9.76523
0
44.5886
29.1076
9.59378
17.6904
-7.08357e-15
19.8746
7.03421
9.33433
5.16329
23.7083
21.0813
-1.46768e-14
7.24263
0
15.25
9.14909
36.5339
34.4353
0
15.1482
13.3649
3.88797
3.09983
4.43998
0
49.7538
9.66265
16.2178
24.5826
7.19262
17.0514
10.9144
5.28115
47.5146
11.5283
9.66461
114.877
10.6915
12.5418
-8.38568e-15
5.26916
17.5985
5.76652
0
10.2756
6.68849
11.8254
6.79086
8.69409
9.91824
14.3178
13.9286
11.7423
3.72576
23.5057
23.8641
14.8432
0
6.89934
9.3518
0.924021
8.14923
27.8927
13.5935
6.99476
18.8176
8.56286
14.4306
2.0487
0
26.4232
0
-9.54569e-15
14.791
30.2927
6.09318
15.7043
23.8017
57.5592
22.7145
0.52688
2.97319
16.3967
30.7972
29.3688
18.7012
14.7848
5.30865
37.1935
2.22475
12.1674
3.34273
9.59937
3.48612
15.9736
32.4685
17.2802
50.8895
17.1246
11.0729
-1.67283e-14
6.40128
39.16
8.09107
4.50634
-1.7864e-14
7.86826
0
11.0567
48.5063
37.3926
10.8932
45.7721
7.07792
16.889
17.0771
9.00314
1.13477
5.15871
1.7117
18.7889
8.73695
0
12.0037
10.3936
5.58277
12.4416
10.0512
9.10426
0
0
13.1054
-8.97718e-15
12.1388
6.27388
13.5904
0
3.70664
-7.82621e-15
89.9944
9.07964
31.8798
21.2362
8.0464
0
0.275359
18.3824
73.8222
25.3876
31.5543
37.2185
28.4441
17.0756
-8.75476e-16
19.9153
0
28.3208
17.0768
17.4527
20.0168
24.5879
23.0103
0
15.9292
0
22.5059
18.6814
23.8531
25.5116
-4.3337e-15
10.1483
6.20866
3.63202
11.695
15.0215
2.67833
-3.50893e-15
20.7023
-8.08999e-15
0
6.35416
47.8407
18.0975
6.47098
31.5363
3.55689
17.5705
14.1178
10.3492
-9.28172e-15
0
22.2116
11.2531
25.8234
10.0142
11.1427
-1.65939e-14
9.69443
10.8566
4.84508
-1.14096e-15
-2.23231e-14
0.385412
10.7683
0
7.24935
11.6715
11.5372
1.85854
0
0
9.86352
16.9981
5.11713
0
13.3595
16.5545
17.4043
12.7727
9.58789
5.48506
19.4498
8.29881
9.23191
7.77886
0
33.9201
23.6714
24.5102
1.48909
43.5237
61.6121
26.8677
28.9198
54.2657
15.8695
0
0
-2.32717e-15
20.9767
66.6731
33.3568
35.1239
72.9435
24.1774
36.6181
-3.37191e-15
34.893
0.507349
6.84261
7.57181
21.1042
0
21.3618
21.5415
3.42895
6.43809
16.4946
11.2594
6.48614
12.989
19.6092
16.2183
44.0942
0.206036
19.975
7.46184
8.67846
45.491
-4.2035e-15
0
-3.30107e-15
5.15213
0
13.3905
20.9726
18.5999
11.082
6.71189
7.56151
0
28.7308
6.73325
7.49307
-4.66842e-15
24.9385
7.89421
5.22128
0
21.0111
12.2351
11.7237
1.6355
5.0732
0
0
0
20.9039
5.42261
15.2232
0
18.4449
19.8701
5.29229
13.1245
25.6156
8.9778
24.2375
23.6812
0
7.55582
25.7076
51.4247
22.9048
76.9252
46.7916
40.6533
48.0739
28.9138
49.4328
16.19
29.3644
23.9765
47.2976
48.0838
42.262
49.3074
45.4142
21.4279
0
0
15.4742
0.536193
22.7111
7.43268
23.7987
0
4.36477
8.92013
2.48879
-5.81931e-15
16.1963
5.11977
50.7685
13.4246
20.5788
11.9404
5.32056
5.17465
0
7.54445
17.4603
0
-3.51534e-15
0
10.4208
0
0
0
0
3.07784
49.3915
15.9861
19.0268
24.0857
27.1615
20.5892
7.22474
17.8745
13.9611
16.5356
17.9289
18.1455
7.80871
20.3739
0
10.3426
10.7142
0
0.447163
14.3209
9.83291
0
15.5589
3.91714
16.1634
15.1977
34.7789
6.71545
21.7227
43.7655
34.2274
16.8498
4.63004
35.0196
8.35271
6.31925
34.722
53.9362
72.8279
41.1828
61.7832
13.5779
57.6709
41.8613
95.8696
54.5072
21.3002
35.0523
18.0631
46.0454
63.8681
17.7041
42.225
-3.34003e-15
7.88982
14.77
11.4766
16.0357
16.4259
10.9888
21.6405
33.3178
3.66443
12.6915
0.14883
4.26447
7.64066
0.209877
25.5944
4.52542
-5.0953e-16
-1.1289e-14
0
8.26852
13.7458
0
7.89615
8.17519
4.78023