/*--------------------------------*- C++ -*----------------------------------*\
| =========                 |                                                 |
| \\      /  F ield         | OpenFOAM: The Open Source CFD Toolbox           |
|  \\    /   O peration     | Version:  5.x                                   |
|   \\  /    A nd           | Web:      www.OpenFOAM.org                      |
|    \\/     M anipulation  |                                                 |
\*---------------------------------------------------------------------------*/
FoamFile
{
    version     2.0;
    format      ascii;
    class       volVectorField;
    location    "0.65";
    object      Us;
}
// * * * * * * * * * * * * * * * * * * * * * * * * * * * * * * * * * * * * * //

dimensions      [0 1 -1 0 0 0 0];

internalField   nonuniform List<vector> 
10571
(
(0.198538 0.0350214 0.25648)
(0.0769163 -0.0434853 0.11088)
(0.164473 0.075744 0.185665)
(0.343892 0.21333 0.35639)
(0.317217 0.152623 0.00992758)
(0.136968 0.0672264 0.151641)
(0.336847 0.231557 0.222048)
(0.451908 0.44615 0.266652)
(0.13325 0.290413 0.228651)
(-0.100478 -0.141982 -0.0637716)
(-0.00585462 0.102065 0.16999)
(0.261756 0.152394 0.172329)
(0.580597 0.342757 0.164871)
(0.684667 0.642445 0.158321)
(0.262784 0.439414 0.28875)
(-0.110595 -0.126001 -0.592157)
(0.315106 0.221852 0.205528)
(0.620159 0.24236 0.0758316)
(0.939739 0.830611 0.266765)
(-0.307178 0.508984 0.142989)
(-0.104504 0.00447398 -0.560116)
(0.191978 0.0276482 0.0869913)
(-0.00760214 0.0383195 0.0307648)
(-0.168977 0.159746 -0.204771)
(0.332041 0.0751026 0.347994)
(0.0801636 -0.00661053 0.282446)
(0.233906 0.110304 0.310574)
(0.426184 0.222478 0.282205)
(0.76442 0.176785 -0.203191)
(0.186826 0.0924065 0.313723)
(0.378902 0.234267 0.108054)
(0.521718 0.241228 0.11529)
(0.394485 0.0701903 -0.379996)
(-0.00103307 -0.0559442 -2.08483)
(0.100451 0.0928702 0.40041)
(0.301415 0.181792 0.255354)
(0.429602 0.302501 0.0304227)
(0.487771 0.35506 0.00968914)
(0.324955 0.190737 -0.413739)
(-0.00287639 -0.048459 -2.22649)
(0.264572 0.216168 0.204077)
(0.372049 0.195145 0.0388657)
(0.223334 0.191279 -0.0321981)
(0.0620419 0.0505374 -0.406693)
(-0.0108401 -0.0462555 -1.9374)
(0.162808 0.0395287 0.0754662)
(-0.100415 0.176405 -0.239171)
(-0.204703 0.199585 -0.645058)
(0.361062 0.0106094 0.0825944)
(0.0654118 -0.0224245 0.148971)
(0.240133 0.036582 0.13253)
(0.473721 0.102734 0.0402549)
(-0.0472106 -0.0369835 -1.97014)
(0.118646 0.092475 0.166885)
(0.290191 0.161924 -0.0179325)
(0.386047 0.121002 -0.107998)
(-0.0111835 -0.148877 -1.69309)
(-0.461257 -0.67828 -1.73801)
(0.0364537 0.130946 0.180599)
(0.198653 0.226666 0.118771)
(0.282911 0.259967 -0.0719768)
(0.284956 0.203218 -0.144363)
(0.0905831 0.00983679 -1.13651)
(-0.0194517 -0.00658014 -2.24424)
(0.225503 0.241911 0.1142)
(0.0930288 0.221901 -0.277203)
(-0.0265095 0.160155 -0.221281)
(0.058686 0.103207 -0.540459)
(0.0243592 0.0306079 -2.3039)
(0.0198742 0.0879502 -0.227532)
(-0.323981 0.140383 -0.364343)
(-0.140163 -0.00763789 -1.21275)
(-0.115073 0.0485381 -2.00531)
(0.0461789 -0.0172676 0.00835997)
(0.203333 0.0103504 -0.0494629)
(0.173972 -0.0564023 -1.23146)
(-0.0493391 -0.115281 -1.95516)
(0.079909 0.0902773 -0.0140888)
(0.209514 0.121072 -0.140245)
(0.0772822 0.0101454 -0.844833)
(-0.0429297 -0.100059 -1.88439)
(0.0196593 0.0225437 -2.10566)
(0.0213685 0.154212 0.0175379)
(0.129016 0.224149 -0.0183506)
(0.181854 0.205649 -0.193905)
(0.0358583 0.101871 -0.389804)
(0.0355606 -0.0141474 -1.29596)
(-0.0708367 0.0629826 -2.17676)
(-0.0712677 -0.0684651 -0.27574)
(-0.144528 0.0993945 -0.418047)
(-0.0848029 0.14918 -0.342627)
(0.0489152 0.142534 -0.792745)
(-0.0497791 0.168733 -2.42695)
(-0.152381 0.109196 -0.105967)
(-0.262668 0.223612 -0.282227)
(-0.0215441 0.0308184 -2.00601)
(-0.0822051 0.0145326 -1.91338)
(0.0472919 -0.0144359 -0.115151)
(0.226217 -0.00850084 -0.273465)
(0.341175 0.0974577 -0.677276)
(-0.0581521 -0.114483 -1.93509)
(0.0521679 0.0822159 -0.150873)
(0.139818 0.103688 -0.269877)
(-0.0885178 -0.00115456 -1.48923)
(-0.0347758 -0.071743 -1.98805)
(0.0870648 0.142843 -2.00091)
(0.00142864 0.177668 -0.141919)
(0.0570053 0.213873 -0.169864)
(0.0986162 0.215312 -0.468792)
(-0.0312547 0.0314234 -0.575758)
(0.00074682 -0.029903 -1.82319)
(-0.175323 0.144966 -2.01944)
(0.00122949 0.320458 -0.703328)
(-0.223232 0.0804803 -0.44957)
(-0.0769029 0.0743297 -0.760967)
(-0.0571173 0.133355 -1.71728)
(0.0271432 0.0127401 -2.33102)
(-0.397068 0.299981 0.0947629)
(-0.271164 0.0873967 -1.07195)
(0.064604 -0.0219681 -1.9809)
(0.0237838 -0.034229 -2.09191)
(0.0544213 -0.020631 -0.252427)
(0.13783 0.0159689 -0.938145)
(0.0420937 0.00308172 -1.68846)
(0.10256 0.0565413 -1.94149)
(0.0366583 0.0511543 -0.243012)
(0.094368 0.142377 -0.675013)
(-0.0561509 0.0222057 -1.35661)
(0.00277002 -0.0859464 -1.92087)
(0.233036 0.0179338 -1.7527)
(-0.00298054 -0.0043004 -0.00444162)
(0.040343 0.515861 -0.580271)
(0.0160431 0.250623 -0.626907)
(0.112318 0.282781 -0.552335)
(-0.0718772 0.0226966 -0.709086)
(-0.00056226 -0.0264165 -1.99149)
(-0.0430462 0.0691361 -2.26664)
(-0.00217281 -0.00685418 -0.003793)
(-0.227095 0.642825 -0.716374)
(-0.195483 0.0192102 -0.661871)
(-0.0893945 -0.0351471 -1.23258)
(-0.00818372 -0.0249671 -2.04634)
(-0.0183504 0.00733531 -2.33134)
(-0.29404 -0.0740234 -0.743398)
(-0.165822 0.0639081 -1.14205)
(0.0222275 -0.0346285 -2.06031)
(0.0565595 0.0187228 -2.06471)
(0.0511193 -0.0286942 -0.384564)
(-0.109609 0.0774511 -1.78873)
(0.0175697 0.0920196 -2.0038)
(0.112099 0.103299 -1.93236)
(0.0695905 0.142539 -0.448562)
(0.00976342 0.0777503 -0.764345)
(-0.157714 -0.0708443 -1.54311)
(0.0398696 -0.030823 -1.86583)
(-0.0310468 0.106134 -2.02994)
(-0.0123211 0.337432 0.104586)
(0.239876 0.197806 -0.410004)
(-0.184918 0.152809 -0.919929)
(-0.00882357 0.0652186 -0.842974)
(-0.0909799 -0.127252 -1.34169)
(-0.0140442 -0.0197431 -2.06467)
(-0.0500932 0.0604435 -1.959)
(0.17633 0.038583 0.203273)
(0.236152 0.292195 -0.682963)
(-0.181657 -0.0508453 -1.0908)
(-0.0743603 -0.0376192 -1.45322)
(-0.0454671 -0.0186031 -2.04494)
(-0.0706848 0.163261 -2.29411)
(0.19158 0.165805 0.0546187)
(-0.720488 0.612224 -0.0165376)
(-0.151756 0.00530985 -1.58484)
(-0.050833 -0.0245782 -2.20384)
(0.0883993 -0.00679266 -2.08028)
(-0.0273706 0.0133727 -1.32191)
(-0.168471 0.0567272 -1.78985)
(0.025321 0.0622886 -1.94524)
(0.123547 0.0972508 -1.9665)
(-0.0696679 0.135025 -0.858229)
(-0.0100394 0.104143 -0.968758)
(-0.112777 -0.0350376 -1.53375)
(0.0207465 -0.00941524 -1.86389)
(-0.0126051 0.0148769 -2.06206)
(0.105581 -0.399059 0.419984)
(0 0 0)
(-0.00268191 0.139864 -0.648651)
(-0.0579085 0.0855204 -1.04163)
(-0.0620591 -0.0817609 -1.46158)
(-0.00983323 -0.0225277 -2.07192)
(-0.00426704 0.0431944 -2.19987)
(0.323928 -0.180364 0.868389)
(0.129577 -0.111041 -0.329716)
(-0.163947 -0.0133526 -0.746304)
(-0.0276028 -0.0484169 -1.54517)
(-0.0343402 0.0459401 -2.20234)
(-0.0168647 0.03134 -2.21442)
(0.121593 0.0324715 -0.00029983)
(-0.227583 -0.227148 -0.509015)
(-0.0700078 -0.0278682 -1.70406)
(0.00444907 0.00020401 -2.10962)
(0.111825 0.0109098 -2.12761)
(-0.0599309 0.0869808 -1.3716)
(-0.0602496 0.0522439 -1.63745)
(0.0246645 0.0754023 -1.87894)
(0.10695 0.0809265 -1.97161)
(-0.136858 0.15895 -1.17407)
(-0.0923823 0.0580528 -1.12059)
(-0.053431 0.0374917 -1.38068)
(0.0184272 0.0479626 -1.92978)
(0.048159 0.102753 -1.96704)
(0.398371 -1.06242 1.23899)
(0 0 0)
(-0.137848 0.278316 -1.2507)
(0.00454087 0.100091 -0.941143)
(-0.069701 -0.0726015 -1.36815)
(-0.0317598 -0.0232908 -2.08095)
(-0.153075 0.05966 -2.01109)
(-0.646757 -0.121001 0.782134)
(-0.133932 -0.145424 -0.609514)
(-0.219982 -0.0631577 -1.1057)
(-0.0641801 -0.0323714 -1.63004)
(-0.0226394 0.0235021 -2.03397)
(-0.00129901 0.0340666 -2.19886)
(-0.297039 -0.186993 -0.530169)
(-0.0275387 -0.0512807 -1.59585)
(-0.0130338 0.00450167 -2.1686)
(0.0544861 0.0366468 -2.01183)
(1.01543e-16 -2.64545e-16 1.35045e-15)
(-0.00950631 0.0682007 -1.7941)
(0.0424687 0.0441999 -1.89506)
(0.120094 0.0900191 -1.9291)
(-0.0132456 0.166421 -1.13456)
(-0.0720398 0.084318 -1.0803)
(-0.1015 -0.0401989 -1.40416)
(0.070592 0.0815279 -1.83325)
(0.0832978 0.18164 -1.87962)
(-0.0474354 -0.189242 -0.703866)
(-0.0182611 0.181128 -0.402296)
(-0.0693358 0.0166754 -1.02726)
(-0.0564683 -0.0645056 -1.46538)
(-0.0376283 -0.0133687 -2.06037)
(-0.0112862 0.0360402 -2.1311)
(0 0 0)
(-0.173263 -0.0538244 -0.865299)
(-0.0628024 -0.0654823 -1.63428)
(-0.0762189 -0.0150313 -2.1163)
(0.0443648 -0.0162641 -2.14989)
(-0.317022 -0.0584711 -0.871947)
(0.0230057 0.0390242 -1.78169)
(0.0995245 -0.0927039 -2.03884)
(0.0695278 0.0142428 -2.07861)
(0.0149776 0.0200531 -1.25801)
(-0.0214287 -0.00183789 -1.63095)
(0.0452881 0.020426 -1.83986)
(0.128025 0.045792 -1.90048)
(-0.0546167 0.149514 -1.26472)
(-0.049196 0.124361 -1.33539)
(-0.0723394 0.0133467 -1.406)
(0.0356967 0.0140021 -1.80237)
(0.106106 0.183681 -1.88148)
(-0.0339126 0.110331 -0.898699)
(0.0552159 0.161947 -0.698877)
(-0.00586241 0.0555865 -0.922589)
(-0.0895367 -0.0429572 -1.52271)
(-0.0267841 -0.0507064 -2.03016)
(-0.025043 0.0435385 -2.03648)
(1.22606e-16 1.4377e-16 4.60332e-16)
(-0.149808 -0.0439188 -0.764296)
(-0.0342808 -0.0332934 -1.62722)
(0.0348605 0.0295187 -1.80384)
(0.025992 -0.0709936 -2.02805)
(-0.557461 -0.171518 0.592377)
(-0.0677239 -0.000113625 -1.77758)
(-0.0255389 -0.00252026 -2.08378)
(0.0945398 0.0457708 -2.03688)
(-0.201563 0.017375 -1.14303)
(0.00165979 0.0515969 -1.72653)
(0.00270399 -0.0591934 -1.89737)
(0.0827098 0.0354209 -1.93974)
(0.0101977 0.0622409 -0.608829)
(-0.0426833 0.0926147 -1.21095)
(0.0278285 0.0493257 -1.38925)
(0.0304119 0.0858837 -1.81151)
(0.0247177 0.167435 -1.8348)
(0 0 0)
(-0.0586585 0.225978 -1.08064)
(-0.0573583 0.155371 -0.954782)
(-0.0719804 -0.0196705 -1.51071)
(0.0128049 -0.0295263 -1.94659)
(-0.0280822 0.118431 -1.99913)
(0 0 0)
(-0.0712245 -0.0391558 -1.02232)
(-0.00470049 -0.0393952 -1.57565)
(0.0280664 -0.0585076 -1.92462)
(0.0133679 -0.0551887 -2.02493)
(-0.23933 -0.0266614 -0.682264)
(0.0225232 -0.0377794 -1.66009)
(0.0250629 0.01357 -2.02733)
(0.0691404 -0.0108049 -2.02482)
(0.00508724 0.182037 -1.30945)
(0.00274988 0.00301545 -1.70046)
(0.00361047 -0.0213764 -1.89067)
(0.0669344 0.0352554 -1.94215)
(-0.0122043 0.0833151 -0.810841)
(-0.0556316 0.122171 -1.04922)
(0.013588 0.0770527 -1.34785)
(0.0409669 0.0740455 -1.76151)
(0.044654 0.127238 -1.8488)
(0.0071915 -0.168611 -0.533588)
(0 0 0)
(-0.0511313 -0.086699 -1.05136)
(-0.057012 -0.0471002 -1.4768)
(0.0119115 -0.0166791 -1.88899)
(0.00348358 0.124637 -1.97111)
(0 0 0)
(-0.0855387 -0.0841865 -1.0083)
(-0.0043397 -0.0458985 -1.58702)
(0.103754 -0.0515402 -1.85608)
(0.00567193 0.0131876 -1.97768)
(-0.114991 0.0136335 -1.01034)
(0.0541249 -0.0864009 -1.4919)
(0.00565355 0.042626 -1.94033)
(0.0229442 0.0344879 -1.94057)
(-0.0273231 0.108379 -1.18723)
(0.0482171 0.0239922 -1.60067)
(0.0381599 0.00788044 -1.8948)
(0.0608708 0.0367033 -1.87188)
(-0.00123107 0.0880586 -0.833659)
(0.0285055 0.133887 -1.14176)
(0.0195606 0.0479574 -1.30001)
(0.0572977 0.0883141 -1.71552)
(0.0240833 0.147529 -1.84394)
(-0.0685362 -0.166521 -0.437977)
(-0.00927706 0.122617 -0.796252)
(-0.0545665 -0.0441485 -1.01203)
(0.0165144 -0.0402212 -1.35986)
(0.00103319 -0.0050883 -1.83345)
(-0.0592784 0.0848894 -1.9416)
(-0.116011 -0.149826 -0.217302)
(-0.0326716 -0.0709117 -1.18019)
(0.0348992 -0.0358775 -1.50795)
(0.0630475 -0.0315822 -1.7633)
(-0.0658659 0.0821982 -1.96956)
(8.48143e-17 4.78784e-17 1.1535e-15)
(0.0374197 -0.0086305 -1.71931)
(-0.0238539 0.0401635 -1.93234)
(0.130546 0.0634486 -1.92501)
(-0.0514238 0.0194567 -1.17457)
(0.0709189 0.137626 -1.37207)
(0.0568731 0.00366362 -1.81199)
(0.035017 0.0550508 -1.87883)
(-0.0352819 0.103374 -0.895583)
(0.000713684 0.0828197 -1.13307)
(-0.00124476 0.0327293 -1.26464)
(0.016281 0.0723222 -1.69823)
(0.0332535 0.112007 -1.82778)
(0 0 0)
(2.25525e-17 -1.99962e-16 9.38729e-16)
(0.11213 0.21151 -0.941256)
(0.00782822 -0.101605 -1.43945)
(-0.00219496 -0.0192587 -1.80053)
(-0.0280471 0.0872267 -1.92476)
(7.18396e-17 1.09484e-16 3.73827e-16)
(-0.0472403 -0.0581057 -1.00049)
(0.0306497 -0.0326463 -1.4952)
(0.0635052 -0.0283184 -1.82897)
(-0.0266357 0.0517753 -1.95472)
(-0.134249 -0.0349312 -1.3423)
(0.000595559 0.0353488 -1.71433)
(-0.0464273 0.0435115 -1.93947)
(0.137485 -0.0103401 -1.93501)
(-0.0487317 -0.00591494 -1.27326)
(0.0930233 0.00446589 -1.57293)
(0.0738368 0.0150974 -1.79992)
(0.0672268 0.0774683 -1.82275)
(0.0481103 0.024515 -0.788322)
(0.0202545 0.0639512 -0.892356)
(0.0410819 0.0504108 -1.18019)
(0.00242059 0.0594837 -1.70636)
(0.00197218 0.0494847 -1.78039)
(-0.00555992 -0.124902 -0.300567)
(0.0435085 -0.0665778 -0.549011)
(0.0115539 0.113208 -0.882433)
(0.003559 -0.00791415 -1.22215)
(-0.0140672 -0.0393508 -1.78449)
(-0.0240681 0.00983337 -1.92437)
(-0.228391 -0.214604 -0.726763)
(0.00236487 -0.0482193 -1.0138)
(0.0283091 -0.0296222 -1.48643)
(0.0617963 -0.0730613 -1.84255)
(0.00875132 0.0810915 -1.94872)
(-0.0518139 -0.0318823 -0.972961)
(0.0644843 -0.0179639 -1.68307)
(-0.0156718 0.0818859 -1.85953)
(0.148882 0.0109484 -1.8918)
(0.0158444 0.0452061 -0.987996)
(0.124325 0.123192 -1.1439)
(-1.10655e-16 3.19718e-17 1.58511e-15)
(0.0697734 0.100733 -1.78327)
(-0.052761 0.0874519 -0.852851)
(0.00520076 0.0231195 -0.936027)
(0.0376047 0.0496651 -1.20009)
(0.0492307 0.00988347 -1.57276)
(0.0145599 0.094811 -1.73644)
(-0.073656 -0.162557 -0.378314)
(-0.0305729 0.0696618 -0.636614)
(0.0198324 -0.0122468 -0.928471)
(0.00580167 -0.0433409 -1.25735)
(-0.0179572 -0.0440323 -1.7463)
(-0.015489 0.00737603 -1.92153)
(-0.239204 -0.217008 -0.509764)
(0.0218248 -0.0361628 -0.974271)
(0.0493918 -0.023198 -1.44091)
(-0.0282853 -0.0205481 -1.80329)
(-0.0833628 0.0445454 -1.79925)
(-0.0309214 -0.0360648 -1.08103)
(-0.0212778 -0.0376001 -1.63172)
(0.00801978 -0.173946 -1.7488)
(0.159105 -0.0103852 -1.89669)
(-0.0553556 0.0243068 -1.26053)
(0.0583935 -0.0249045 -1.43873)
(0.0435614 0.0652901 -1.52252)
(0.0679892 0.0482422 -1.75776)
(0.0436701 0.0546655 -0.768984)
(0.0640325 0.0732459 -0.826662)
(0.0170766 0.0482416 -1.23817)
(-0.0108766 0.0309711 -1.64298)
(-0.0341002 0.0244533 -1.65067)
(-0.0392963 -0.129217 -0.235874)
(0.0516143 0.0667539 -0.509604)
(0.0293333 0.0776012 -0.820959)
(0.0245277 0.0260997 -1.13022)
(-0.0388113 -0.0409678 -1.75959)
(-0.00374901 -0.00912297 -1.88103)
(-0.149378 -0.185506 -0.593941)
(0.00838062 0.0154181 -1.09649)
(0.0489381 -0.00680282 -1.3765)
(-0.0591372 -0.0461631 -1.86525)
(0.00229628 0.0325291 -1.88243)
(-0.0111629 0.00220375 -1.03033)
(0.0438893 0.0397486 -1.5603)
(0.00555228 -0.0348549 -1.81433)
(0.137217 -0.0343253 -1.80539)
(-0.0688528 0.00773111 -1.06144)
(0.0575063 -0.0528458 -1.27859)
(0.136884 0.0955248 -1.71409)
(0.0453183 0.091613 -1.63101)
(-0.0401339 0.0219749 -0.674279)
(0.0655194 0.0453253 -0.78791)
(0.0252667 -0.00599915 -1.1787)
(-0.00290579 -0.014115 -1.59369)
(-0.0445368 0.0025548 -1.63981)
(0.160264 -0.0231467 -0.61106)
(0.0596344 0.0186633 -0.422517)
(0.011747 0.0577041 -0.841866)
(-0.0183778 -0.0592891 -1.28326)
(-0.0207411 -0.0437039 -1.72706)
(-0.00787119 0.012264 -1.81964)
(-0.117343 -0.166442 -0.604076)
(0.031339 -0.00224944 -1.05751)
(0.0137529 0.00572273 -1.39819)
(-0.0359893 -0.0101348 -1.75834)
(0.0134442 0.01473 -1.88784)
(0.0236494 0.0480737 -1.09426)
(0.0984674 0.0510692 -1.33813)
(-4.25259e-17 7.61012e-17 1.56171e-15)
(0.167258 0.00262675 -1.82401)
(-0.0213258 -0.0401956 -1.07744)
(0.0666384 -0.0275907 -1.43838)
(0.137806 -0.00352938 -1.65484)
(0.0824064 0.152918 -1.61624)
(0.0448762 -0.0625416 -0.515266)
(0.0603137 0.0786155 -0.72098)
(0.039533 0.015007 -1.16709)
(0.027193 0.0250591 -1.49914)
(0.0690747 -0.10481 -1.52567)
(-0.111134 0.0477576 -0.360285)
(0.0335687 0.0950003 -0.685565)
(0.0581342 0.00584205 -0.946425)
(-0.0484955 -0.0284854 -1.20095)
(-0.0296231 -0.0445733 -1.69959)
(-0.0259988 -0.0644739 -1.80043)
(-0.0833486 -0.127146 -0.0552655)
(0.0542172 0.0159862 -1.01156)
(-0.0172387 -0.023733 -1.46014)
(-0.0362712 -0.0485279 -1.79624)
(0.0411004 -0.00573883 -1.86448)
(0.00758171 0.0746405 -0.914519)
(-0.111934 0.0443877 -1.8415)
(-0.0590161 -0.103344 -1.7288)
(0.172092 -0.0159294 -1.79928)
(0.0144224 0.0286477 -1.14569)
(0.103213 -0.00623642 -1.3787)
(0 0 0)
(0.0831433 0.0669902 -1.56407)
(0.0373079 -0.0148036 -0.499119)
(0.0419963 0.00688883 -0.557522)
(0.0624946 0.0107205 -1.04256)
(0.0343564 -0.0112411 -1.40755)
(0.0611652 0.00346672 -1.50695)
(0.00679069 -0.0636407 -0.294223)
(0.0145976 -0.0302165 -0.455143)
(0.103248 -0.0236748 -0.679548)
(0.0547226 -0.0143084 -1.03863)
(0.000668229 -0.0296166 -1.66897)
(-0.00773848 -0.0485942 -1.79932)
(-0.091682 -0.100385 -0.294321)
(0.039767 -0.00788965 -0.99619)
(-0.00672498 0.0221426 -1.37292)
(-0.059798 -0.043896 -1.74408)
(-0.0291507 -0.0649872 -1.81545)
(-0.00498065 0.0394603 -1.1504)
(-0.0234531 0.0444499 -1.60531)
(-0.0861616 -0.00196442 -1.88081)
(0.164182 0.0173755 -1.77891)
(0 0 0)
(0.0999449 -0.104743 -1.09644)
(0.185846 0.0795354 -1.6783)
(0.107589 0.0979344 -1.66934)
(0.103865 0.0536231 -0.573298)
(0.0504778 -0.00245661 -0.533894)
(-0.00618639 -0.02059 -1.1142)
(0.0434568 -0.0250029 -1.41426)
(-0.116382 -0.00126656 -1.75658)
(0.0307638 0.118856 -0.455084)
(-0.0141266 -0.195489 -0.570871)
(0.00219136 0.0638649 -0.586984)
(-0.0156879 0.0503058 -1.03874)
(0.0203206 -0.0117611 -1.57717)
(0.0395058 -0.0465247 -1.64083)
(0 0 0)
(0.030323 0.0257114 -0.993438)
(-0.0355845 0.0308403 -1.38337)
(-0.0128975 -0.05013 -1.73402)
(-3.37191e-18 1.47056e-18 1.68213e-15)
(0.131961 0.27012 -0.660138)
(9.78818e-17 -8.27557e-17 1.60413e-15)
(-0.0968835 -0.0501234 -1.75177)
(0.152822 0.0267986 -1.67425)
(0.0159601 -0.0658325 -0.905931)
(0.0674106 -0.0260798 -1.32979)
(0.101272 -0.0184387 -1.28501)
(0.0556243 -0.0380044 -1.54586)
(-0.0188639 0.0148779 -0.710078)
(0.0683024 0.00779677 -0.594374)
(0.00919924 -0.058686 -1.03407)
(0.0137011 0.00290934 -1.4453)
(0.0158869 -0.0569598 -1.5429)
(0 0 0)
(0.0515674 -0.0431076 -0.42409)
(0.0376209 0.0757094 -0.503512)
(-0.041302 0.0133519 -1.11675)
(0.0184448 -0.0171508 -1.4591)
(-0.134258 -0.155293 -1.50223)
(-0.194238 0.0679853 -0.237319)
(0.0024957 0.00791331 -0.893223)
(-0.0548382 0.00652746 -1.57167)
(0.00976195 0.021088 -1.68821)
(-0.0117881 0.049611 -1.83415)
(0.084181 0.00265285 -0.989092)
(-0.0750341 -0.0302716 -1.53088)
(0.127281 0.0606287 -1.5585)
(0.0629517 -0.0600949 -1.61932)
(0.0103503 -0.0227759 -1.15486)
(0.106299 0.0125661 -1.35676)
(0.149967 -0.124564 -0.779073)
(-0.00612637 0.0851124 -1.43644)
(0.0149388 0.0430588 -0.678358)
(0.0518698 -0.0270345 -0.562249)
(0.0493712 -0.0223499 -0.907099)
(0.00322242 -0.0338744 -1.43267)
(-0.112538 -0.112737 -1.63444)
(0 0 0)
(0.0581134 -0.000845572 -0.374607)
(0.0528031 0.0177058 -0.472165)
(0.0137378 -0.0312643 -0.955105)
(0.0147406 0.00915937 -1.4722)
(-0.00324928 -0.0286164 -1.60424)
(-0.0817691 -0.110725 -0.500152)
(-0.0104121 0.0445273 -1.07404)
(-0.0301361 0.00223937 -1.44472)
(-0.0208043 0.0202796 -1.66083)
(0.0125533 -0.00411427 -1.7231)
(0.0651432 -0.0913659 -0.875891)
(-0.0643076 0.0817474 -1.65004)
(-0.0477464 -0.108999 -1.45014)
(0.13826 -0.108008 -1.58076)
(0.100265 -0.012772 -0.779672)
(-0.157731 -0.0655339 -1.4382)
(0.119218 -0.0434986 -1.26475)
(-0.0511506 0.0131431 -1.49643)
(0.0176688 0.00759823 -0.776985)
(0.0761358 0.00196198 -0.438664)
(-0.0218508 -0.00156479 -1.02961)
(-0.0118476 0.0190818 -1.44056)
(-0.00196157 -0.0635781 -1.59663)
(-0.0532862 -0.0968428 -0.0270565)
(0.00387757 -0.0829212 -0.1601)
(-0.0114605 -0.0246267 -0.501755)
(0.0164669 0.00133062 -0.931931)
(0.00383004 0.0275942 -1.4374)
(0.0351335 0.0546212 -1.52808)
(-0.0969575 -0.112875 -0.411268)
(-0.00726012 0.0553556 -0.859631)
(-0.0116778 0.000601573 -1.3796)
(0.189038 0.0358492 -1.218)
(-0.0286678 0.195479 -1.85196)
(0.0889341 0.0517175 -1.04632)
(-0.0937908 0.196432 -1.3842)
(-0.0287571 0.0357894 -1.684)
(0.160071 0.0805434 -1.4997)
(0 0 0)
(0.0806079 -0.0635618 -1.23458)
(0 0 0)
(0.0319859 -0.0542085 -1.51694)
(0.035445 -0.0126891 -0.437064)
(0.0421144 0.0251803 -0.53852)
(0.0217095 -0.0734019 -0.913341)
(-0.0395402 0.01179 -1.3972)
(-0.0615975 -0.0423926 -1.62184)
(-0.0118422 -0.102894 -0.452078)
(-0.0185894 0.0336594 -0.429816)
(0.0530831 0.0296443 -0.638841)
(0.0558915 -0.00244647 -0.944134)
(0.0506245 0.0434669 -1.35653)
(-0.0381017 0.0321725 -1.60631)
(0 0 0)
(0.0604901 0.0620142 -0.760522)
(0.0335414 0.0418848 -1.15747)
(-0.155655 0.0396918 -1.31021)
(-0.0331163 0.146031 -1.76455)
(0.0179894 0.183385 -1.09747)
(-0.135899 -0.0818515 -1.58859)
(0 0 0)
(0.146543 -0.00398891 -1.46012)
(-0.000779408 -0.100225 -0.747855)
(0.0685012 -0.0767912 -1.18144)
(-1.30939e-16 -9.85663e-17 1.24739e-15)
(0.0575761 -0.00363212 -1.27462)
(0 0 0)
(0.0524599 -0.0298824 -0.581756)
(0.0461018 -0.0252114 -0.893432)
(-0.0222581 0.0113354 -1.35022)
(0.0125944 -0.0531286 -1.43673)
(0.00537076 -0.14512 -0.138295)
(-0.0574092 0.131216 -0.320117)
(0.0739347 0.00273124 -0.689657)
(0.108942 -0.0129274 -0.838597)
(0.104739 0.000540856 -1.17393)
(0.0275329 0.0583584 -1.56947)
(-0.0280502 -0.0986903 -0.442031)
(0.0354906 0.0246033 -0.870617)
(-0.0254582 0.0234087 -1.19629)
(-0.00805771 -0.0143793 -1.24093)
(0.0323859 0.123908 -1.54587)
(0.0173701 0.134726 -0.851426)
(-0.0297997 0.114353 -1.41786)
(0 0 0)
(0 0 0)
(0.0557914 0.0144536 -0.969074)
(0 0 0)
(0.0373251 -0.135291 -0.911031)
(-0.0583621 -0.0533742 -1.39356)
(0.0175754 -0.0378714 -0.297751)
(0.0492771 -0.0465851 -0.506461)
(0.073798 -0.0314371 -0.819071)
(-0.022866 -0.00453839 -1.29029)
(-0.0537688 -0.0143341 -1.50518)
(-0.0469063 -0.0991375 -0.17082)
(0.00305665 -0.0852804 -0.549705)
(0.0328421 -0.00383283 -0.562279)
(0.0606379 0.000417647 -0.885802)
(0.0376604 0.0208538 -1.27817)
(-0.0314487 0.0450562 -1.55556)
(-0.00852339 -0.0473456 -0.466081)
(0.0847954 0.059248 -0.692255)
(-0.0230409 0.0171077 -1.12187)
(-0.022817 0.123764 -1.24791)
(-0.0647415 -0.050117 -1.47119)
(0.0684173 0.0517419 -0.814542)
(0.0777387 0.135515 -1.06599)
(0.128866 0.0881796 -1.42224)
(0.114657 -0.116621 -1.34202)
(0 0 0)
(-0.01405 -0.0439216 -0.963282)
(0.0599554 -0.120478 -0.839257)
(5.65878e-17 1.2882e-17 1.18058e-15)
(0.0571715 -0.16176 -0.652655)
(0.043907 -0.0557924 -0.577132)
(0.109094 -0.0493895 -0.785412)
(-0.0544788 0.0367625 -1.32686)
(-0.00763302 0.0154321 -1.45777)
(-0.013766 -0.117466 -0.394661)
(-0.0410473 -0.0692056 -0.583745)
(0.0459304 0.0344034 -0.594789)
(0.0451495 -0.00410693 -0.92146)
(-0.0185851 0.036098 -1.29787)
(-0.0353044 0.0587359 -1.54488)
(0.00454181 -0.0362766 -0.413662)
(0.0715348 0.11561 -0.637958)
(-0.0171194 0.0392206 -1.05821)
(-0.160701 0.118406 -1.4879)
(-0.101441 0.17345 -1.4958)
(0 0 0)
(-0.139882 0.0811126 -1.44167)
(-0.0959784 -0.0708575 -1.25215)
(-1.03471e-16 1.22895e-16 1.14828e-15)
(0 0 0)
(0.0739378 -0.075416 -0.990121)
(-9.00327e-17 5.74285e-17 9.69698e-16)
(0.0819171 -0.0964189 -1.15343)
(0.0466298 -0.0325326 -0.350602)
(0.027845 -0.0310532 -0.503559)
(0.102649 -0.0455198 -0.766022)
(-0.0280218 0.0372893 -1.22907)
(-0.0263594 0.0208304 -1.38471)
(-7.66402e-05 -0.125466 -0.49746)
(0.0146547 -0.047313 -0.597659)
(0.0549067 0.0176954 -0.633834)
(0.0874018 0.0168717 -0.830631)
(-0.0498894 0.0108463 -1.27443)
(-0.0305281 0.0532656 -1.45177)
(-0.063023 0.104465 -0.346035)
(0.0437195 0.0470649 -0.6355)
(-0.00595682 0.0257459 -1.23619)
(0.166738 0.0291254 -1.08059)
(0.0257824 0.0701975 -1.43459)
(0 0 0)
(-0.115948 0.0832865 -1.43667)
(-0.00652321 0.0227607 -1.34415)
(0.146295 0.156403 -1.01145)
(0.116926 -0.150309 -0.610701)
(0.107136 -0.0837632 -0.894451)
(0.118528 -0.120309 -0.99309)
(0.00684626 0.0024372 -1.20319)
(0.107535 -0.115023 -0.576894)
(0.0650259 -0.0392713 -0.578095)
(0.0853931 -0.0345212 -0.777702)
(0.0188294 -0.00545698 -1.12913)
(0.0168793 0.0190817 -1.33222)
(0 0 0)
(-0.100092 0.0995014 -0.323218)
(0.0470495 0.01861 -0.553607)
(0.0145351 0.00951918 -0.871671)
(0.00184696 -0.00743651 -1.22039)
(0.00718711 0.000958776 -1.39978)
(-0.0747841 -0.0405835 -0.720414)
(0.0220947 0.0603502 -0.643655)
(0.0105715 0.0522254 -0.981533)
(-0.0577674 0.0552122 -1.37313)
(-0.0425724 0.0175051 -1.43738)
(-0.150229 -0.11951 -1.17888)
(-0.121307 0.0707721 -1.54282)
(-0.177678 0.0803305 -1.33116)
(0 0 0)
(0.126768 -0.0810854 -0.650816)
(0.146012 -0.061097 -0.865809)
(0.137841 -0.0894612 -0.86711)
(-0.0403929 -0.0787224 -1.19931)
(0.0542585 -0.041095 -0.332431)
(0.0767609 -0.0318447 -0.57969)
(-0.00733447 -0.0435761 -0.900386)
(-0.00562765 -0.0191535 -1.13862)
(-0.0400766 -0.00799742 -1.29461)
(0 0 0)
(0.0316791 -0.0294519 -0.571905)
(0.0318978 0.0350767 -0.519372)
(-5.88164e-06 0.0172073 -0.841955)
(-0.02963 -0.0031281 -1.23044)
(-0.0186806 -0.0279618 -1.35153)
(1.8182e-16 2.46655e-17 8.25253e-16)
(-0.0171454 0.0241982 -0.826358)
(0.112259 0.0851885 -0.874236)
(-0.0665889 0.0584093 -1.39063)
(-0.0439313 0.0371076 -1.29552)
(-0.115258 -0.110066 -1.16793)
(-0.153099 -0.0257885 -1.44412)
(-0.186085 0.0722798 -1.39822)
(0 0 0)
(0.0926527 -0.123412 -0.583847)
(0.148615 -0.0934231 -0.684298)
(0.0838548 -0.0855329 -0.980043)
(0.0406482 -0.0642083 -1.16367)
(0.0694911 -0.0472154 -0.502563)
(0.0746294 -0.014354 -0.680195)
(-0.0263282 -0.0507062 -0.953408)
(0.0643289 -0.0173814 -1.05526)
(-0.0737848 0.0254691 -1.14369)
(-0.0909678 -0.102295 -0.03022)
(0.0253114 -0.0173695 -0.383425)
(0.0524231 0.0301715 -0.543584)
(-0.0421202 0.0184092 -1.0277)
(0.0123428 0.0257273 -1.16855)
(0.0295751 -0.0510384 -1.25891)
(0 0 0)
(-0.0171149 0.0565832 -0.868406)
(-0.104235 0.0456954 -1.19348)
(0.0726091 0.0338205 -1.18688)
(-0.0182883 -0.0234624 -1.2263)
(0 0 0)
(-0.125979 -0.169696 -1.21038)
(0 0 0)
(0 0 0)
(0.0647906 -0.10879 -0.770382)
(0.126126 -0.0524966 -0.818441)
(-0.00240402 -0.112394 -1.10236)
(-0.123639 -0.00989422 -1.04325)
(-0.00738881 -0.0766691 -0.131708)
(0.0458667 -0.0135769 -0.701843)
(0.043863 -0.0135751 -0.841134)
(0.0985441 -0.0103761 -0.965733)
(0.105765 -0.0490941 -1.16139)
(0 0 0)
(0.0156551 -0.100336 -0.37731)
(0.0395293 0.0480175 -0.635939)
(-0.0380336 0.0783276 -0.916511)
(0.0331249 0.0227032 -1.0936)
(0.028827 -0.0326486 -1.14863)
(0.0104161 -0.0100938 -0.470323)
(-0.0720731 0.0904124 -0.790524)
(0.00807554 0.07636 -1.02276)
(-0.0929685 0.0209281 -1.31644)
(0.00558894 0.00987147 -1.11662)
(0 0 0)
(-0.188864 0.0305509 -1.23407)
(0 0 0)
(0 0 0)
(0.0923218 -0.0808961 -0.728309)
(0.150504 -0.0711752 -0.81147)
(-9.26371e-17 7.60045e-17 8.81788e-16)
(0.030519 -0.0223053 -1.09661)
(0.0805773 -0.0679152 -0.321936)
(0.0638596 -0.0248022 -0.637301)
(0.0296695 -0.0406055 -0.889335)
(0.0869923 -0.0566948 -1.00304)
(0.103878 0.0160447 -0.963349)
(0.0418397 0.00301875 -0.463654)
(0.00137032 0.029733 -0.590484)
(0.0346893 0.0538072 -0.642076)
(0.00713372 0.0115245 -0.884028)
(0.061253 0.0404329 -1.02771)
(0.0626505 -0.00227768 -1.23627)
(0 0 0)
(-0.0328727 -0.000136692 -0.846507)
(-0.0932781 -0.044906 -1.07163)
(0.10486 0.0716246 -1.01826)
(0 0 0)
(1.23304e-16 1.1557e-16 1.03585e-15)
(-0.158392 -0.0481505 -1.40496)
(-0.0573576 -0.0113173 -1.27612)
(0 0 0)
(0.0922333 -0.0952912 -0.744792)
(0.14652 -0.0479975 -0.708022)
(0 0 0)
(0.158325 -0.0818587 -0.815263)
(0.0698722 -0.0387386 -0.55407)
(-0.014357 0.0112206 -0.779223)
(0.0204956 -0.0415896 -0.866387)
(0.0566883 -0.0348834 -0.987149)
(0 0 0)
(0 0 0)
(-0.00237255 0.0425597 -0.512327)
(-0.0322706 0.106032 -0.655149)
(0.00845125 0.0167744 -0.888229)
(0.0849479 0.0104811 -0.888866)
(0 0 0)
(0 0 0)
(0.0410684 0.104764 -0.667861)
(0.0529975 0.0689857 -0.855537)
(0.101628 0.055985 -1.01731)
(0.14627 0.0497665 -1.22452)
(0 0 0)
(0 0 0)
(0 0 0)
(-0.14186 -0.102647 -1.28675)
(0.106938 -0.095046 -0.721862)
(0.0235928 -0.0524134 -0.894001)
(9.11047e-17 1.26557e-16 9.79257e-16)
(0 0 0)
(0.0599386 -0.0444117 -0.541411)
(-0.0288601 -0.0092286 -0.726025)
(0.0100537 -0.0443512 -0.777059)
(0.0299379 -0.0465851 -1.08944)
(0 0 0)
(0 0 0)
(0.0846575 0.033838 -0.314044)
(-0.0222692 0.0273363 -0.704726)
(0.0593735 0.0398848 -0.732645)
(-0.024733 0.0128314 -1.19051)
(0 0 0)
(0.0602379 0.0162505 -0.424361)
(-0.0767133 -0.109096 -0.920852)
(0.043229 0.099555 -0.748619)
(0.111557 0.11728 -0.831943)
(0 0 0)
(-0.197225 -0.026858 -1.17003)
(0 0 0)
(0 0 0)
(0 0 0)
(0 0 0)
(0.0959018 -0.0976631 -0.618495)
(0 0 0)
(1.33497e-16 8.35311e-17 1.1213e-15)
(-0.186813 -0.0385655 -0.764584)
(-0.0973242 -0.0189847 -0.785631)
(0.031227 -0.0306602 -0.790296)
(0.0206195 -0.0539908 -1.14392)
(0 0 0)
(0 0 0)
(0 0 0)
(-0.184459 0.0192634 -0.85504)
(0.007108 0.0380053 -0.75854)
(-0.0655426 -0.0112268 -1.11562)
(0 0 0)
(0 0 0)
(0.101265 0.0793764 -0.56095)
(-0.0396625 0.0428539 -0.965358)
(0 0 0)
(0 0 0)
(0 0 0)
(0 0 0)
(0 0 0)
(0 0 0)
(0 0 0)
(0 0 0)
(-0.111406 -0.13531 -1.02098)
(0 0 0)
(-3.87407e-18 4.84871e-17 4.27946e-16)
(-0.122401 -0.0278591 -0.852528)
(-0.105572 0.0196321 -0.982734)
(-0.0397233 -0.0335866 -1.21143)
(0 0 0)
(0 0 0)
(0 0 0)
(-0.203607 -0.00594221 -0.831235)
(-0.111427 0.00241933 -0.922072)
(-0.0390271 -0.030697 -1.09192)
(0 0 0)
(2.19919e-17 -7.27898e-17 3.10979e-16)
(0.0200121 0.0603977 -0.579257)
(7.0373e-17 -2.55287e-17 1.06077e-15)
(0 0 0)
(0 0 0)
(0 0 0)
(0 0 0)
(0 0 0)
(0 0 0)
(0 0 0)
(-0.124181 -0.112154 -0.924896)
(0 0 0)
(0 0 0)
(0 0 0)
(-0.118751 -0.0638677 -0.767193)
(0.130731 0.0257652 -0.49641)
(0.16745 0.023716 -0.476169)
(0 0 0)
(0 0 0)
(0 0 0)
(0.102711 0.0374337 -0.556558)
(-0.0460157 0.00955222 -0.808703)
(0 0 0)
(0 0 0)
(0 0 0)
(-0.137832 -0.136163 -1.0117)
(0.0929862 -0.172354 -0.716213)
(0 0 0)
(0 0 0)
(0 0 0)
(0 0 0)
(-0.115161 -0.0192068 -1.28078)
(0 0 0)
(0 0 0)
(0.124855 -0.131186 -0.370206)
(0 0 0)
(0 0 0)
(0 0 0)
(-0.168373 -0.0606801 -0.810383)
(-0.137062 -0.0789848 -0.927673)
(-0.0201497 -0.0491544 -1.10129)
(0 0 0)
(0 0 0)
(0 0 0)
(0.00834389 0.0584454 -0.559418)
(0 0 0)
(-0.0120483 0.0377906 -1.10261)
(0 0 0)
(0 0 0)
(0 0 0)
(-0.0339017 0.083609 -1.07046)
(0 0 0)
(0 0 0)
(0 0 0)
(0 0 0)
(0 0 0)
(0 0 0)
(-4.91134e-17 -1.46458e-16 5.73394e-16)
(1.22282e-16 9.95134e-17 7.39339e-16)
(0 0 0)
(0 0 0)
(0 0 0)
(-0.176418 -0.0858751 -0.71527)
(0 0 0)