/*--------------------------------*- C++ -*----------------------------------*\
| =========                 |                                                 |
| \\      /  F ield         | OpenFOAM: The Open Source CFD Toolbox           |
|  \\    /   O peration     | Version:  5.x                                   |
|   \\  /    A nd           | Web:      www.OpenFOAM.org                      |
|    \\/     M anipulation  |                                                 |
\*---------------------------------------------------------------------------*/
FoamFile
{
    version     2.0;
    format      ascii;
    class       volScalarField;
    location    "0.65";
    object      voidfraction;
}
// * * * * * * * * * * * * * * * * * * * * * * * * * * * * * * * * * * * * * //

dimensions      [0 0 0 0 0 0 0];

internalField   nonuniform List<scalar> 
10571
(
0.955707
0.945307
0.841717
0.817499
0.695766
0.883441
0.771821
0.556429
0.474414
0.80754
0.993824
0.832442
0.61203
0.461124
0.487788
0.80918
0.672747
0.465946
0.536088
0.721942
0.69702
0.446761
0.846905
0.918816
0.528016
0.539107
0.486447
0.435699
0.975092
0.530943
0.427993
0.515871
0.952163
0.996139
0.867079
0.493681
0.448536
0.601121
0.892399
0.957542
0.442303
0.765861
0.959716
0.9649
0.969018
0.731032
0.980454
0.907771
0.70582
0.419974
0.431115
0.72586
0.999911
0.435707
0.425314
0.791698
0.982484
0.998886
0.441602
0.432161
0.620271
0.803635
0.946352
0.975994
0.462871
0.991386
0.977692
0.943809
0.971531
0.994815
0.98089
0.948831
0.996374
0.411049
0.434978
0.993711
0.99913
0.428891
0.577343
0.987922
0.990631
0.994374
0.418641
0.429576
0.892063
0.971213
0.960586
0.984785
0.99643
0.997469
0.980847
0.954692
0.988382
0.995899
0.991979
0.981802
0.996592
0.405054
0.92436
0.999054
0.999699
0.421398
0.910666
0.996681
0.996265
0.998007
0.810771
0.909871
0.992993
0.99157
0.979632
0.991467
0.998256
0.997502
0.986397
0.981496
0.984585
0.999613
0.990369
0.991239
0.991534
0.695365
0.996795
0.993871
0.992389
0.526126
0.995612
0.997389
0.997404
0.996258
0.743463
0.995492
0.992459
0.997344
0.996892
0.991066
0.991109
0.559176
0.999128
0.998365
0.9909
0.98073
0.98846
0.997754
0.996527
0.975527
0.978344
0.776787
0.998009
0.987774
0.988555
0.97124
0.997865
0.998609
0.997791
0.99691
0.999284
0.995711
0.998681
0.99812
0.992357
0.993431
0.990775
0.989543
0.998256
0.997155
0.991284
0.989253
0.992007
0.998522
0.998877
0.994836
0.987411
0.981203
0.998376
0.999021
0.994448
0.988042
0.993646
0.99838
0.998079
0.997961
0.997408
0.99917
1
0.995365
0.998758
0.995999
0.994276
0.992905
0.998665
0.998647
0.998049
0.994807
0.994637
0.993063
0.999949
0.99849
0.990488
0.991203
0.977024
0.997759
0.992406
0.994616
0.98942
0.996688
0.997736
0.997253
0.997376
0.99648
0.998862
1
0.999019
0.999107
0.997419
0.995771
0.990838
0.999174
0.999128
0.998826
0.996662
0.993204
0.9937
0.998877
0.99254
0.985092
0.989446
1
0.995951
0.990526
0.992202
0.999763
0.997867
0.998916
0.997597
0.991749
0.996811
0.999222
0.999104
0.998336
0.994321
0.98369
1
0.999414
0.997417
0.996101
0.978205
0.998877
0.997554
0.994886
0.987247
0.991935
0.994334
0.993983
0.988041
0.996994
0.998552
0.998025
0.997975
0.989606
0.994832
0.998276
0.999669
0.998334
0.994147
0.990297
1
0.999762
0.998527
0.998062
0.927734
0.999845
0.993719
0.995309
0.993733
0.997704
0.994066
0.997939
0.992431
0.999966
0.998191
0.99785
0.996032
0.98896
1
0.998817
0.999053
0.998512
0.991893
0.983653
1
0.997342
0.998399
0.990722
0.964271
0.998722
0.994746
0.990479
0.988785
0.997368
0.990762
0.98946
0.993421
0.993381
0.998306
0.997459
0.995639
0.981434
0.993183
1
0.999092
0.997804
0.990991
0.986276
1
0.997622
0.996147
0.983509
0.96598
0.995199
0.996769
0.991248
0.995712
0.992776
0.997674
0.993818
0.988524
0.997737
0.998325
0.997287
0.996337
0.977438
0.997911
0.998039
0.998661
0.997758
0.99191
0.988058
0.998286
0.99918
0.992735
0.980636
0.987258
1
0.997343
0.990058
0.991424
0.994064
0.997741
0.997635
0.980592
0.994934
0.99847
0.997555
0.995618
0.982517
1
1
0.999531
0.99655
0.993718
0.985851
1
0.997323
0.991927
0.98955
0.986488
0.997755
0.995501
0.986628
0.990654
0.996528
0.997269
0.997128
0.996305
0.996893
0.99847
0.998519
0.995796
0.986005
0.993623
0.99804
0.998365
0.99693
0.992708
0.986909
0.99994
0.998357
0.994077
0.997429
0.985718
0.997135
0.997373
0.99881
0.996811
0.996808
0.999022
1
0.997146
0.994834
0.998661
0.998208
0.996054
0.992129
0.996812
0.998513
0.996938
0.996573
0.992927
0.985457
0.997204
0.994497
0.994158
0.993089
0.994398
0.994541
0.995863
0.9986
0.995933
0.996752
0.99609
0.995406
0.993871
0.994159
0.998649
0.997421
0.995699
0.991509
0.996921
0.994931
0.998988
0.997204
0.990281
0.976809
0.998256
0.998922
0.996685
0.994559
0.99244
0.998142
0.997675
0.99251
0.992964
0.996192
0.99491
0.998852
0.995194
0.99767
0.998451
0.997943
0.996373
0.988954
0.99956
0.998209
0.998715
0.997959
0.991938
0.984191
0.998256
0.99765
0.99812
0.996061
0.99139
0.997755
0.998279
1
0.994833
0.993896
0.999865
0.997163
0.996456
0.99767
0.998577
0.997014
0.994669
0.995543
0.996812
0.998107
0.998038
0.997619
0.992437
0.980201
0.999639
0.99656
0.997946
0.993991
0.98593
0.996632
0.999879
0.99573
0.986917
0.995129
0.996191
1
0.997206
0.999021
0.998268
0.99896
0.99557
0.992131
0.988347
0.996316
0.998946
0.998699
0.995716
0.987758
0.998256
0.998203
0.998731
0.998398
0.99426
0.994386
0.995803
0.99797
0.994723
1
0.998045
0.999662
0.998768
0.998649
0.99807
0.997893
0.995505
0.997209
0.996812
0.999358
0.998665
0.996995
0.994415
0.991204
1
0.998728
0.998237
0.99556
1
0.997987
1
0.99797
0.990325
0.998936
0.99791
0.998379
0.997447
0.996725
0.998272
0.997985
0.997177
0.994767
1
0.996147
0.998946
0.9977
0.997138
0.999275
0.999248
0.999096
0.999179
0.997864
0.99804
0.997793
0.997373
0.99825
0.993623
0.998432
0.99882
0.998683
0.997627
0.996522
0.998707
0.999144
0.99725
0.998876
1
0.999594
0.999415
0.998502
0.996964
0.993078
0.998437
0.998845
0.998355
0.996161
0.99594
0.999264
0.998823
0.99853
0.996921
0.998432
0.999022
0.999662
0.998558
0.998953
0.998855
0.998473
0.997274
0.99779
0.996372
0.998006
0.999131
0.998734
0.997256
0.99465
0.997595
0.998651
0.998904
0.999032
0.99797
0.999303
0.999124
0.99664
0.99956
1
0.999022
1
0.998588
0.997434
0.998375
0.999025
0.996369
0.996976
0.993402
0.998378
0.998619
0.998006
0.996599
0.992473
1
0.998861
0.998274
0.997897
0.99797
0.998877
0.998974
1
0.991532
0.996753
0.999966
1
0.996546
1
0.998489
0.998753
0.996046
0.993177
0.996812
0.999358
0.997181
0.994242
0.992793
0.987214
0.998256
0.998635
0.998258
0.997763
0.99244
0.998877
0.999124
1
1
0.999944
1
0.999628
0.997507
0.999223
0.996715
0.997774
0.99534
0.99469
0.995383
0.996147
0.997935
0.997704
0.996154
0.989511
0.994708
0.998716
0.998743
0.998398
0.99461
0.999961
0.998279
0.99797
0.998681
1
0.998955
0.998379
1
0.998042
0.996463
0.998538
0.995828
0.986084
0.988126
0.997229
0.997127
0.998076
0.99529
0.991204
0.996843
0.998857
0.999018
0.998999
0.99797
1
0.998702
0.99797
1
1
0.998382
1
0.996666
0.999325
0.995773
0.996711
0.995614
0.98546
0.993624
0.992802
0.997265
0.997173
0.995432
0.991627
0.999128
0.998873
0.99941
0.999332
0.99517
1
0.99837
0.99706
0.996811
0.992888
0.998685
0.996757
0.995252
0.999021
0.997936
0.997774
0.992815
0.991199
1
0.99804
0.997965
0.997948
0.996628
0.983343
0.998587
0.998946
0.998977
0.997096
0.99314
0.998877
0.998279
0.99867
1
0.996864
0.997067
0.994561
0.9936
0.996083
0.997455
0.997137
0.994059
0.982087
1
0.99804
0.998546
0.998463
0.995716
0.983556
1
0.999188
0.999648
0.997363
0.98495
0.998877
0.999124
0.99811
1
0.993057
0.99673
0.996216
0.997085
0.998481
0.998024
0.997494
0.99471
0.99085
0.996812
0.994221
0.998719
0.998738
0.996028
0.989571
1
0.999415
0.998836
0.997062
0.98117
1
0.999124
1
1
0.996752
0.996157
0.998041
0.997897
0.999021
0.997974
0.997379
0.995162
0.993098
1
0.999223
0.999354
0.9983
0.994982
0.992685
0.999128
0.999649
0.99922
0.99773
0.98789
1
0.999155
1
1
0.989641
0.99936
1
0.999129
0.997062
0.998436
0.997348
0.9975
0.997906
0.99956
0.998682
0.998396
0.997952
0.997369
0.999154
1
0.999257
0.999333
0.998999
1
1
0.999124
0.9965
1
0.995128
0.999595
1
0.99997
0.997805
0.999153
0.997743
0.998784
1
1
0.998986
0.999481
0.998254
0.998715
1
1
0.999649
0.999301
0.999065
0.99986
1
1
1
0.997911
0.997312
0.998719
1
1
0.997974
0.998672
0.999371
0.999532
1
1
0.999966
0.999588
0.999291
0.999724
1
0.999128
0.999883
0.999766
0.999032
1
0.998877
1
1
1
1
0.999798
1
1
0.999021
0.999447
0.998711
0.999762
1
1
1
0.999854
0.999106
0.999315
1
1
0.999883
0.999656
1
1
1
1
1
1
1
1
0.999966
1
1
0.999336
0.999774
0.999887
1
1
1
0.999888
0.999888
0.999882
1
1
0.999725
1
1
1
1
1
1
1
1
0.999022
1
1
1
0.999954
0.999816
0.99996
1
1
1
0.999888
0.999799
1
1
1
0.999806
0.999859
1
1
1
1
0.99867
1
1
0.999022
1
1
1
0.999817
0.999889
0.999883
1
1
1
0.999777
1
0.999882
1
1
1
0.999883
1
1
1
1
1
1
1
1
1
1
1
0.999886
1
0.999883
1
1
1
0.999888
1
1
1
1
1
1
0.999099
1
1
1
1
1
1
1
1
1
1
0.999786
0.999985
0.999939
1
1
1
0.999962
0.999775
1
1
1
0.999923
0.999883
1
1
1
1
1
1
1
0.999023
1
1
1
1
0.999992
0.999968
1
1
1
0.999815
0.999888
0.999882
1
1
1
1
1
1
1
1
1
1
1
1
1
1
1
1
1
0.999976
1
1
1
0.999777
1
1
1
1
0.999883
1
1
1
1
1
1
1
1
1
1
1
1
1
1
1
1
1
1
0.999888
1
0.999882
1
1
1
1
1
1
1
1
1
1
1
1
1
1
1
1
1
0.999996
1
1
1
1
1
1
1
1
1
1
1
1
1
1
1
1
1
1
1
1
1
1
1
1
1
1
1
1
1
1
1
1
1
1
1
1
1
1
1
1
1
1
1
1
1
1
1
1
1
1
1
1
1
1
0.999879
1
1
1
1
1
1
1
1
1
1
1
1
1
1
1
1
1
1
1
1
1
1
1
1
1
1
1
1
1
1
1
1
1
1
1
1
1
1
1
1
1
1
1
1
1
1
1
1
1
1
1
1
1
1
1
1
1
1
1
1
1
1
1
1
1
1
1
1
1
1
1
1
1
1
1
1
1
1
1
1
1
1
1
1
1
1
0.999889
1
1
1
1
1
1
1
1
1
1
1
1
1
1
1
1
1
1
1
1
1
1
1
1
1
0.999883
1
1
1
1
1
1
1
1
1
1
1
1
1
1
1
1
1
1
1
1
1
1
1
1
1
1
1
1
1
1
1
1
1
1
1
1
1
1
1
1
1
1
0.999662
1
1
1
1
1
1
1
1
1
1
1
1
1
1
1
1
1
1
1
1
1
1
1
1
1
1
1
1
1
1
1
1
1
1
1
1
1
1
1
1
1
1
1
1
1
1
1
1
1
1
1
1
1
1
1
1
1
1
1
1
1
1
1
1
1
1
1
1
1
1
1
1
1
1
1
1
1
1
1
1
1
1
1
1
1
1
1
1
1
1
1
1
1
1
1
1
1
1
1
1
1
1
1
1
1
1
1
1
1
1
1
1
1
1
1
1
1
1
1
1
1
1
1
1
1
1
1
1
1
1
1
1
1
1
1
1
1
1
1
1
1
1
1
1
1
1
1
1
1
1
1
1
1
1
1
1
1
1
1
1
1
1
1
1
1
1
1
1
1
1
1
1
1
1
1
1
1
1
1
1
1
1
1
1
1
1
1
1
1
1
1
1
1
1
1
1
1
1
1
1
1
1
1
1
1
1
1
1
1
1
1
1
1
1
1
1
1
1
1
1
1
1
1
1
1
1
1
1
1
1
1
1
1
1
1
1
1
1
1
1
1
1
1
1
1
1
1
1
1
1
1
1
1
1
1
1
1
1
1
1
1
1
1
1
1
1
1
1
1
1
1
1
1
1
1
1
1
1
1
1
1
1
1
1
1
1
1
1
1
1
1
1
1
1
1
1
1
1
1
1
1
1
1
1
1
1
1
1
1
1
1
1
1
1
1
1
1
1
1
1
1
1
1
1
1
1
1
1
1
1
1
1
1
1
1
1
1
1
1
1
1
1
1
1
1
1
1
1
1
1
1
1
1
1
1
1
1
1
1
1
1
1
1
1
1
1
1
1
1
1
1
1
1
1
1
1
1
1
1
1
1
1
1
1
1
1
1
1
1
1
1
1
1
1
1
1
1
1
1
1
1
1
1
1
1
1
1
1
1
1
1
1
1
1
1
1
1
1
1
1
1
1
1
1
1
1
1
1
1
1
1
1
1
1
1
1
1
1
1
1
1
1
1
1
1
1
1
1
1
1
1
1
1
1
1
1
1
1
1
1
1
1
1
1
1
1
1
1
1
1
1
1
1
1
1
1
1
1
1
1
1
1
1
1
1
0.769911
0.864615
0.95472
0.95871
0.809421
0.931398
0.760665
0.512751
0.796445
0.772942
0.895806
0.894353
0.905163
0.922134
0.947877
0.906963
0.915529
0.961314
0.759863
0.924806
0.715644
0.527057
0.433292
0.484467
0.454526
0.451751
0.962355
0.827645
0.955167
0.964804
0.939702
0.939677
0.92514
0.903391
0.849769
0.91287
0.851608
0.794878
0.627183
0.741517
0.573733
0.5007
0.456036
0.483926
0.478163
0.453622
0.454631
0.419796
0.813967
0.942136
0.957125
0.858031
0.900201
0.870338
0.79952
0.807199
0.78402
0.683357
0.668997
0.647989
0.506966
0.532186
0.486727
0.478483
0.492841
0.481157
0.488041
0.47034
0.416791
0.462566
0.923461
0.797733
0.689432
0.747342
0.570575
0.611166
0.580997
0.548714
0.593613
0.513608
0.587631
0.693668
0.704401
0.471191
0.468518
0.551725
0.454575
0.459083
0.538611
0.57217
0.550025
0.624053
0.557287
0.552083
0.611903
0.52466
0.94146
0.73949
0.944308
0.949567
0.904097
0.862113
0.816243
0.744262
0.876708
0.778633
0.898283
0.719135
0.535746
0.566993
0.733277
0.951137
0.763456
0.918765
0.93599
0.890902
0.703103
0.69996
0.712585
0.654697
0.605208
0.597394
0.737442
0.902204
0.962706
0.834444
0.98149
0.708408
0.987501
0.959543
0.994676
0.938217
0.807705
0.874947
0.737279
0.812229
0.781832
0.985457
0.977728
0.975594
0.953607
0.955512
0.980484
0.829454
0.761947
0.773909
0.78084
0.954585
0.986634
0.952267
0.861048
0.590768
0.53717
0.538341
0.466658
0.496511
0.440666
0.424425
0.427772
0.769125
0.897867
0.7457
0.962443
0.950859
0.939091
0.910804
0.950965
0.419141
0.401933
0.594079
0.461633
0.431601
0.734752
0.793908
0.906882
0.638498
0.962406
0.969123
0.928441
0.939614
0.520635
0.429478
0.500472
0.53986
0.471139
0.400262
0.452322
0.439022
0.463149
0.55409
0.45739
0.494471
0.865004
0.93685
0.99714
0.593328
0.44466
0.496313
0.516614
0.482884
0.438722
0.440777
0.445199
0.44914
0.997455
0.963474
0.995368
0.99602
0.996769
0.994754
0.998275
1
1
0.58695
0.637137
0.545885
0.458867
0.470856
0.455402
0.989764
0.986378
0.998027
0.989918
0.994347
0.629886
0.560042
0.538963
0.472669
0.45767
0.978342
0.951971
0.967601
0.982505
0.946772
0.446932
0.408514
0.423619
0.408983
0.427853
0.430987
0.438867
0.410268
0.662911
0.966857
0.921747
0.945757
0.959455
0.960566
0.939118
0.960245
0.950999
0.433734
0.91695
0.966614
0.990252
0.998141
0.9904
0.993488
0.966458
0.993037
0.97858
0.93951
0.988061
0.912218
0.399267
0.409318
0.427697
0.437374
0.434047
0.708908
0.431748
0.581555
0.81205
0.995133
0.984634
0.985105
0.99865
1
0.997984
0.415882
0.401877
0.437055
0.432984
0.435397
0.408451
0.430411
0.43387
0.422677
0.99516
0.99411
0.997703
0.998417
0.995574
0.991481
0.998766
0.994108
1
0.440111
0.427488
0.432013
0.43171
0.410455
0.435706
0.99425
0.990364
0.998879
0.992574
0.997251
0.438211
0.431024
0.434603
0.436184
0.433513
0.988729
0.952394
0.982744
0.99165
0.97982
0.406699
0.552602
0.71399
0.772352
0.983824
0.850923
0.989354
0.995515
0.99735
0.953571
0.97082
0.96664
0.931221
0.958731
0.98187
0.976497
0.975902
1
0.997837
0.994646
0.999891
0.997721
0.996084
0.993643
0.955346
0.98831
0.98503
0.985316
0.979725
0.984493
0.398507
0.422487
0.986923
0.499042
0.906997
0.991535
0.813829
0.994281
0.998065
0.99884
1
0.996307
0.999923
1
1
0.411864
0.404528
0.425302
0.432055
0.426053
0.420809
0.42602
0.426837
0.418219
0.99854
1
0.999124
0.998557
0.9982
0.997889
0.997362
0.993921
0.998672
0.42988
0.408308
0.434478
0.428458
0.406876
0.427099
0.989255
0.993614
0.998476
0.992209
0.996827
0.433249
0.603535
0.487135
0.573723
0.983627
0.99989
0.977112
0.985644
0.994534
0.995898
0.968777
1
1
0.999775
0.999214
0.999099
0.997135
1
0.99767
0.978663
0.981291
0.980506
0.974063
0.978534
0.978636
0.973748
0.975346
0.999301
1
0.997678
0.996819
1
0.996497
1
0.985017
0.996819
0.981793
0.980858
0.99989
0.988443
0.690624
0.974071
0.993623
0.982587
0.996821
0.993623
0.996672
0.998486
0.997395
0.997948
0.997801
0.995758
0.996668
1
0.995043
0.413527
0.414245
0.489469
0.422039
0.425724
0.437531
0.816288
0.421635
0.635278
1
1
0.999117
0.99632
0.998368
0.999001
0.999239
0.997713
1
0.426526
0.426151
0.441815
0.435661
0.764905
0.651082
0.993713
0.996811
0.998079
0.993935
0.986585
0.894017
1
0.989334
0.991275
0.998877
0.988897
0.995173
0.99278
0.988372
0.985651
0.99993
1
0.999934
0.995163
0.999122
0.996813
0.996173
0.996681
1
0.971358
0.975918
0.985222
0.979957
0.983521
0.980783
0.974436
0.996463
0.997971
1
0.993266
1
0.998141
0.996223
0.996817
0.9874
1
0.991391
0.986965
0.996817
0.964167
0.990729
0.995748
0.993622
0.998878
0.992186
0.997911
0.996245
0.989187
0.98733
0.98473
0.983179
0.976417
0.96857
0.98499
0.971189
0.413524
0.41796
0.98289
0.436297
0.925041
0.797516
0.984897
0.563673
0.969611
0.996759
0.998362
0.999124
0.98363
0.995211
0.998651
0.996482
0.996772
1
0.512221
0.987024
0.953052
0.818301
0.987354
0.994608
0.992455
0.996819
0.968098
0.996194
1
0.99297
0.991143
0.482854
0.562876
0.386603
0.992425
0.986061
0.943919
0.937524
0.996213
0.998645
0.994722
0.998182
0.994927
0.980499
0.991692
0.995162
0.990092
0.993339
0.985111
0.998661
0.380738
0.775529
0.492426
0.950862
0.923356
0.987648
0.971289
0.997977
0.99986
1
0.996737
1
0.999188
1
1
0.999939
0.985439
0.983561
0.988545
0.98927
0.987493
0.98947
0.993198
0.996546
1
0.997971
0.998429
0.990452
1
0.998942
0.993634
0.984708
0.996817
0.999094
0.987617
0.996817
0.978212
0.99763
0.997978
0.993623
0.995432
0.992701
0.992524
0.99969
0.998092
0.977633
0.974705
0.979444
0.984455
0.980602
0.969841
0.980801
0.629245
0.92267
0.973358
0.657869
0.960519
0.946563
0.993496
0.928764
0.990683
0.983987
0.997641
0.997486
0.988728
0.987877
0.996967
0.9967
0.996179
0.995697
0.99766
1
0.997453
0.996814
1
0.999108
0.975923
0.990433
0.992094
0.985639
0.993622
0.995608
0.997443
0.997403
0.992575
0.998183
0.999724
0.996012
0.991103
0.996152
0.987389
0.995699
0.999404
0.998648
1
0.994719
0.998545
0.999109
1
0.998242
0.997521
0.995236
0.991427
0.997421
0.989629
0.992776
0.993387
0.993635
0.998629
0.996302
0.998151
0.996519
0.998196
0.998641
0.996595
0.995954
1
1
1
1
0.999128
0.999043
0.996737
1
0.987705
0.984199
0.984247
0.989507
0.993497
0.988347
0.986426
0.997846
0.995368
0.999068
0.998821
0.998592
1
1
1
0.996375
1
1
0.99577
1
0.986728
0.99989
0.994081
0.989177
1
0.989594
0.995887
0.994702
0.994723
0.994658
0.995124
0.97845
0.99489
0.985796
0.986486
0.983199
0.978234
0.981849
0.977348
0.982266
0.987055
0.980772
0.994218
0.995654
0.988346
0.995146
0.995687
0.996284
0.99699
0.991074
0.978191
0.993196
0.990427
0.98824
0.987421
0.996162
0.992801
0.997383
0.997635
0.989731
1
1
0.998142
1
0.996439
0.993342
0.993622
0.998546
0.994077
0.996811
0.996486
1
0.991652
0.997238
0.993437
0.999101
0.99344
0.997206
0.999382
0.997578
0.997556
0.999266
0.999923
1
0.998193
0.999091
0.998877
0.997031
0.996454
1
0.995972
0.987635
0.992331
0.990065
0.996235
0.990906
0.998834
0.997925
1
0.998296
0.999216
1
0.998509
0.998717
0.999791
0.99993
1
1
0.997881
0.998917
0.999934
1
0.999122
0.993764
0.98963
0.991245
0.994259
0.990906
0.989521
0.992519
0.998871
0.995909
1
1
0.997655
1
0.998811
1
0.994411
0.996378
0.996515
0.998338
0.993415
0.98976
0.985845
0.991514
0.991388
0.99594
0.992522
0.999233
0.994633
0.97713
0.988658
0.986371
0.993513
0.994929
0.98207
0.989212
0.980555
0.984389
0.984363
0.98958
0.97742
0.987376
0.995959
0.99798
0.992658
0.996453
0.997492
0.997367
0.996524
0.992013
0.997785
0.986339
0.995224
0.991381
0.990535
0.987076
0.99593
0.994641
0.995382
0.987895
0.994542
1
0.995032
0.996245
1
0.99688
0.99877
0.994356
0.996916
0.994446
1
0.99507
0.996482
0.999008
1
1
0.997198
1
0.998879
1
0.999121
1
0.996811
0.999121
1
0.992039
0.986101
0.997143
0.986613
0.994906
0.990735
0.998504
1
1
0.997668
0.998922
1
0.999903
0.998831
1
1
0.999043
0.996794
0.999092
1
1
1
0.999122
0.988786
0.993555
0.998401
0.994196
0.993849
0.996182
0.988134
0.983475
0.9993
0.998671
0.999124
0.999122
1
1
0.999781
0.999263
0.997915
0.992964
0.994104
0.993196
0.987041
0.996724
0.997282
0.982077
0.991601
0.989733
0.996811
0.986919
0.987069
0.992698
0.987684
0.989996
0.994365
0.996089
0.994559
0.993585
0.99798
0.996796
0.994936
0.99845
0.998958
0.997256
0.995895
0.995411
0.995507
0.986199
0.998207
0.987134
0.993986
0.983485
0.992559
0.990228
0.983164
0.982344
0.998142
1
0.997244
0.994697
0.996811
0.998788
0.991639
0.99446
0.989256
0.985723
0.98757
1
0.999768
0.996811
0.999758
0.998373
0.993583
0.973414
0.986372
0.981005
0.97352
1
0.996233
1
0.998931
0.999122
0.99988
1
0.996175
1
0.990552
0.996067
0.992332
0.99615
0.986018
0.995495
0.990117
0.964294
0.99993
0.998041
0.997372
0.996817
1
0.998248
0.99572
0.995231
0.996818
0.994625
0.994458
0.997696
0.992717
0.997979
0.996236
0.993623
0.993615
0.993187
0.980868
0.9911
0.990583
0.993124
0.989587
0.978561
0.98852
0.993691
0.996026
0.996166
0.997771
1
0.996195
0.995799
0.998861
0.998768
0.998712
0.998838
0.998601
0.993485
0.99525
0.988017
0.989367
0.994889
0.996508
0.993924
0.986899
0.986602
0.998258
1
0.998546
0.998374
0.995712
0.997062
0.9895
0.985065
0.985121
0.993194
0.992418
0.996152
1
0.996811
1
0.997986
0.977563
0.965076
0.984163
0.982984
0.967917
0.997977
1
1
0.998369
0.998244
1
1
1
1
0.98081
0.99112
0.988931
0.993425
0.974399
0.989482
0.969898
0.95621
1
0.99986
0.994291
0.994732
0.996709
0.999698
1
0.995196
0.996159
0.998309
0.998179
0.995501
0.98432
0.993867
0.994215
0.996811
0.994389
0.994913
0.983726
0.997214
0.992188
0.996941
0.994001
0.994502
0.993003
0.99191
0.993238
0.993308
0.993243
0.999303
0.997035
0.995471
0.997787
0.995128
0.996226
0.999106
0.996551
0.987081
0.993149
0.993016
0.992971
0.992247
0.997958
0.990836
0.982744
0.989932
0.996633
0.994722
0.996487
0.996439
0.993622
0.996426
0.986087
0.99681
0.977642
0.981062
0.982947
0.999121
0.999768
0.996811
1
1
0.983077
0.973035
0.98649
0.993735
0.969079
1
1
0.998087
1
0.999939
0.999128
0.999044
1
0.998244
0.975248
0.988631
0.963339
0.988618
0.968988
0.984618
0.977682
0.963824
0.994123
1
0.986167
0.996817
0.991637
0.976382
0.989354
0.995507
0.98727
0.994625
0.996514
0.99111
0.992509
0.998397
0.994146
0.992633
0.995744
0.988494
0.995602
0.994583
0.985224
0.99055
0.991678
0.997691
0.984826
0.99222
0.995956
0.99268
0.99394
0.99798
0.995477
0.995174
0.996551
0.991376
0.995956
0.99714
0.991508
0.989267
0.995849
0.990561
0.991799
0.988986
0.990016
0.985417
0.981674
0.980972
0.993537
0.996811
0.995033
0.996401
0.996811
0.995427
0.983237
0.984486
0.97616
0.98953
0.981516
0.998364
0.99849
0.995712
1
1
0.990987
0.976232
0.982858
0.984392
0.983004
1
0.995954
1
0.998369
1
0.998256
0.998714
1
0.999122
0.966693
0.98194
0.978921
0.987047
0.975383
0.983643
0.979485
0.979066
1
1
0.992933
0.993634
0.995509
0.995047
0.991549
0.989349
0.987269
0.993659
0.992408
0.99572
0.994329
0.990173
0.997979
0.988345
0.996672
0.993006
0.995712
0.998646
0.993036
0.990126
0.993032
0.994722
0.991247
0.992568
0.993447
0.990867
0.986557
0.995194
0.995357
0.995442
0.996519
0.999384
0.999131
0.993773
0.999056
0.982185
0.993245
0.988836
0.986541
0.996965
0.996869
0.988502
0.976284
0.994683
0.996594
0.993623
0.99579
0.993266
0.996811
0.99894
0.983477
0.992519
0.9824
0.989015
0.991529
1
0.998877
1
1
1
0.989229
0.988462
0.987513
0.981976
0.97704
1
0.996791
1
0.998313
0.999122
0.999068
1
0.998369
0.999092
0.988438
0.988629
0.988866
0.986344
0.982337
0.990423
0.989205
0.982006
1
0.998041
0.992299
0.991549
1
0.993144
0.987488
0.991827
0.986172
0.993357
0.99357
0.999561
0.993699
0.995958
1
0.994722
0.997988
0.995579
1
0.99586
0.994035
0.991822
0.995045
0.990434
0.9947
0.995819
0.995538
0.99498
0.993383
0.992338
0.995687
0.992343
0.998894
0.996752
0.996226
0.996902
0.997364
0.992189
0.996573
0.990197
0.996215
0.991795
0.993311
0.993888
0.980971
0.991745
0.992917
1
0.997547
0.995549
0.9989
0.996487
0.979907
0.985038
0.985889
0.98723
0.994059
0.998273
0.999961
0.996811
0.999667
0.998916
0.992417
0.987069
0.982404
0.981866
0.989856
0.999302
0.997977
1
0.998369
0.999122
0.998256
1
1
0.996186
0.987554
0.985588
0.99124
0.990418
0.985998
0.995135
0.988527
0.991809
1
0.991815
0.997342
0.989464
0.991173
0.997433
0.991878
0.996901
0.997805
0.995652
0.998489
0.997915
0.995659
1
0.994634
0.99978
0.994699
0.992733
0.996811
0.989088
0.990916
0.994427
0.994
1
0.991519
0.993149
0.997281
0.990031
0.99798
0.995821
0.996196
0.993386
0.995054
0.996752
0.994519
0.990735
0.994696
0.996066
0.995848
0.990742
0.995464
0.998202
0.993739
0.997368
0.993704
0.991465
0.99524
0.994722
0.998274
0.993421
0.997911
0.999091
0.986171
0.976237
0.990153
0.987714
0.988228
0.998546
0.99849
1
0.999121
1
0.981097
0.991676
0.985397
0.973294
0.98521
0.997977
0.99993
0.998417
1
0.996701
0.996152
0.999044
0.998369
0.999516
0.980507
0.992368
0.994348
0.992321
0.987676
0.994618
0.995535
0.981097
0.993424
0.99986
0.996497
0.997476
0.995974
0.997372
0.99572
0.993299
1
0.997645
0.996785
0.994842
0.99853
0.999303
0.995052
0.993621
0.993654
0.999182
1
0.996092
0.996851
0.99473
0.996942
0.994503
0.997698
0.998181
0.996514
0.993866
0.988229
0.993243
0.995328
0.997289
0.996389
0.997312
0.996046
0.991955
0.996974
0.993761
0.997298
0.996944
0.995404
0.999213
0.993574
0.994494
0.993913
0.992026
0.994969
0.9989
0.994701
0.990091
1
0.994124
0.990497
0.987128
0.993876
0.990227
0.977338
0.998183
0.997754
0.993622
0.996212
0.997444
0.989449
0.98513
0.978053
0.978021
0.981187
0.999721
0.996513
0.997132
1
0.998608
0.998256
0.998087
0.996738
0.999122
0.989261
0.993767
0.993443
0.991986
0.990361
0.993403
0.993897
0.98663
0.995942
1
0.995621
0.996817
0.997677
0.997946
0.993635
0.998489
0.99989
0.998521
0.997754
1
0.99454
0.991219
0.991915
0.996812
0.992417
0.99558
0.996591
0.99435
0.997941
0.994973
0.997755
0.993842
0.995032
0.99547
1
0.996305
0.992617
0.993243
0.997394
0.9958
0.993689
0.998432
0.998952
0.998242
0.997722
0.99674
0.995222
0.995734
0.998228
0.996854
0.995189
0.994161
0.997831
0.998111
0.994814
0.996922
0.992975
0.995123
0.996701
0.993851
0.988167
0.985147
0.989574
0.980332
0.971728
0.999394
1
1
0.998243
0.9988
0.984283
0.985752
0.977146
0.971537
0.983662
1
1
1
0.995163
1
0.997083
0.998153
0.998369
0.998517
0.990575
0.994346
0.99175
0.994924
0.991518
0.99477
0.996043
0.989286
0.995243
0.995242
0.998218
0.993635
1
0.997372
1
0.999923
1
0.996466
1
1
0.997899
0.990523
0.993448
0.998901
0.996557
0.99561
1
0.998181
0.993852
0.995851
0.990982
0.99879
0.990882
0.997716
0.99533
0.989889
0.995891
1
0.999671
0.998302
0.996552
0.995408
0.997334
0.998272
0.997169
0.996292
0.998715
0.996854
0.999129
0.998258
0.997462
0.996217
0.994614
0.994542
0.997756
0.987247
0.994762
0.989974
0.996811
0.997819
0.980001
0.982621
0.994223
0.983596
0.982945
0.999243
0.997832
0.993622
0.996667
0.997289
0.974067
0.987071
0.979801
0.973179
0.980948
0.997977
0.997908
0.999934
0.998931
0.998245
0.997414
1
0.998875
0.996791
0.983987
0.995045
0.99644
0.993021
0.989047
0.996777
0.99056
0.982004
0.993914
0.993913
0.998249
1
0.996631
0.999124
1
0.997754
1
1
0.997753
1
1
1
0.997979
0.996702
0.998065
0.998244
0.993622
0.998491
0.993853
0.99034
0.996207
0.988783
0.995365
0.995896
1
0.997978
0.993941
0.99798
0.997334
0.996723
0.998471
0.996976
0.998113
0.996365
0.997136
0.995561
0.999671
0.997882
0.999099
0.998314
0.999077
0.998063
0.998671
0.997271
0.997214
1
0.995428
0.996323
0.996811
0.996426
0.988836
0.968211
0.991005
0.991949
0.960278
0.996486
0.998993
0.99934
0.998212
0.998722
0.97132
0.983122
0.987935
0.982193
0.988925
0.996861
1
0.999044
1
0.99997
1
0.999044
0.999437
0.999425
0.993747
0.995683
0.997344
0.992887
0.992555
0.995408
0.996778
0.996009
0.997971
0.995942
0.997403
1
1
0.998248
1
0.999225
0.990891
0.999094
0.994112
1
0.997899
0.994007
0.997979
0.990655
0.999226
0.995065
0.990432
0.998142
0.997335
0.996366
0.996632
0.9989
0.994548
0.997484
1
0.997839
0.99798
0.999721
0.997395
0.997468
0.996291
1
0.999101
0.99705
0.995932
1
0.998616
0.998245
0.996004
0.996797
0.998088
0.997155
0.997971
0.997971
0.998878
0.995822
0.994731
0.994542
0.991422
0.995335
0.987715
0.978218
0.997713
0.987592
0.996809
0.998183
0.999226
0.996261
0.999121
0.997793
0.994835
0.997213
0.994376
1
0.992952
0.995954
1
1
0.998369
0.998275
0.998316
0.999044
0.998256
0.998214
0.994083
0.995562
0.995084
0.99636
0.995576
0.99851
0.993217
0.996639
1
0.997971
0.999124
1
0.996632
0.99855
1
0.997134
0.996817
0.998822
0.997908
1
0.997969
1
1
0.990435
0.996634
0.996488
1
0.997755
0.994458
0.996093
0.998877
0.992523
0.996153
1
0.998396
0.998048
1
1
0.998832
0.998838
0.996552
0.99944
0.998263
0.999136
0.998113
0.996741
0.999638
0.998548
0.996965
1
0.997297
0.99531
0.996013
0.997831
0.995898
0.990436
0.993248
0.998877
0.996811
0.995608
0.992012
0.990429
0.996278
0.994734
0.993619
0.998576
0.999226
1
0.997001
0.998761
0.996813
0.997523
0.995646
0.996812
0.997599
0.999303
0.994908
1
1
0.997942
0.999098
0.998153
1
0.998517
0.9939
0.999027
0.99774
0.99646
0.997162
0.995286
0.998304
0.993068
1
0.993914
0.997071
0.996817
0.997367
0.998369
1
0.996631
1
0.999124
0.996668
1
1
0.998815
0.995958
0.993624
0.995512
0.994127
0.994721
0.999342
0.997032
0.99682
0.996632
0.9989
0.995608
0.998877
0.99993
1
0.99805
1
0.998592
0.99997
0.99782
0.998936
0.998742
0.999702
0.996681
0.999382
0.999077
0.996763
0.998257
0.999438
0.997166
0.995613
0.997341
0.99993
0.997755
0.996811
0.999122
0.998645
1
0.993852
0.999092
1
0.997752
0.996762
0.994719
0.999152
0.996632
1
0.999818
0.996166
0.993627
0.993613
0.99749
0.995713
0.996786
0.994351
0.999302
0.998088
1
0.994068
1
0.999967
0.998369
0.99343
0.99637
0.998298
0.99887
0.997462
0.997162
0.999665
0.996156
0.993908
0.993914
0.995732
0.998581
1
0.998529
0.997916
1
0.998877
1
1
1
1
1
0.99993
0.998048
0.993622
0.997988
0.994398
1
0.996557
0.992673
0.998243
1
0.993513
1
0.998877
0.998048
0.997909
0.996657
0.993243
0.99997
0.998391
0.998569
0.999944
0.999161
0.998153
0.998113
0.994662
0.998913
0.999123
0.998558
0.992919
0.997627
0.99767
1
0.997971
0.99613
0.990433
0.997365
0.999303
1
0.998789
0.997942
0.99681
0.997751
0.995703
0.995489
0.998758
0.995974
0.996811
0.997637
0.997289
0.996703
0.995277
0.998246
0.994944
0.997754
1
1
0.997461
0.998369
0.996671
0.998948
1
0.995163
0.996549
0.997926
0.9962
1
0.994457
0.997986
0.997963
0.997965
0.993908
0.997551
1
0.998822
1
0.99849
0.99855
0.996817
0.998141
1
0.997161
0.997404
0.998683
0.9993
0.999442
1
0.987243
0.99822
0.99679
0.994173
0.998491
0.996488
0.997244
0.998877
0.992745
0.997425
0.997755
0.997978
0.99756
0.997911
1
0.999161
0.99717
0.999057
1
0.998382
0.998838
0.998145
0.998371
0.998386
0.997943
0.997085
0.996965
0.997693
0.999183
0.9993
0.994683
0.997833
1
0.999122
0.998645
0.99989
0.999122
0.993192
0.99681
0.997635
0.995582
0.996809
0.998395
0.999768
1
0.99697
1
1
0.995432
0.992652
0.998681
0.995508
0.99742
0.993861
0.997362
0.999944
0.999697
0.998166
0.996372
0.996737
0.997699
0.996462
0.998541
0.990507
0.999933
0.996796
0.999118
0.996722
0.998529
0.997971
0.995872
0.997342
0.993634
0.997754
0.998429
1
0.998838
0.996817
0.99855
0.999225
1
0.997969
1
0.997979
0.986695
0.992997
0.997487
0.987466
0.998491
0.996306
0.995729
0.998181
0.99978
0.998728
0.999574
0.995816
0.998118
1
0.99798
0.998323
0.999136
0.998113
0.998376
0.998562
1
1
0.997078
1
0.997368
0.998678
0.99674
1
0.999122
1
0.997971
0.998607
0.996261
0.997426
0.998762
1
0.999939
0.995613
0.987239
0.994456
0.993191
0.990428
0.996819
0.998064
1
0.997698
1
0.993407
0.99551
0.995585
0.994724
0.992914
0.99742
1
0.998121
1
0.997367
0.997895
0.997197
0.997356
1
0.997072
0.998754
0.998983
0.997128
0.996674
0.999118
1
0.993908
1
1
0.998913
0.993853
0.997716
0.999154
0.996817
0.999303
0.997037
0.997372
0.997753
1
1
0.995958
0.997979
0.993621
0.997794
0.997365
1
0.997988