/*--------------------------------*- C++ -*----------------------------------*\
| =========                 |                                                 |
| \\      /  F ield         | OpenFOAM: The Open Source CFD Toolbox           |
|  \\    /   O peration     | Version:  5.x                                   |
|   \\  /    A nd           | Web:      www.OpenFOAM.org                      |
|    \\/     M anipulation  |                                                 |
\*---------------------------------------------------------------------------*/
FoamFile
{
    version     2.0;
    format      ascii;
    class       volScalarField;
    location    "8";
    object      p;
}
// * * * * * * * * * * * * * * * * * * * * * * * * * * * * * * * * * * * * * //

dimensions      [0 2 -2 0 0 0 0];

internalField   nonuniform List<scalar> 
10571
(
230.137
249.13
240.361
227.054
224.185
226.425
209.179
205.198
211.006
178.641
236.808
234.777
219.015
214.326
164.116
126.521
253.714
247.214
202.144
130.668
113.47
250.585
197.536
121.477
154.065
149.032
163.866
154.162
125.571
168.829
150.687
56.2037
50.7001
98.5322
142.436
147.304
30.2956
33.1114
73.7565
104.468
110.715
33.4099
58.5286
81.313
92.2351
117.072
86.9388
70.4664
61.517
32.381
77.8897
65.5753
19.7245
19.9019
34.2163
15.7006
17.4717
39.7247
20.123
15.3098
13.7213
16.182
27.8501
73.565
15.7932
16.0687
20.7552
50.5184
69.5187
29.2678
28.232
44.4594
17.9319
15.5965
16.1194
15.0728
14.4143
14.9109
13.288
15.5634
14.1982
13.1843
15.2322
14.9944
16.3769
16.6429
13.1392
14.4897
15.5969
17.5515
14.9056
24.681
28.4344
15.3609
19.7277
38.8927
13.7253
13.67
13.1777
13.3884
13.6477
13.8717
12.8573
14.2307
13.8946
13.3339
14.2614
14.2429
14.5671
14.825
13.0715
13.6506
14.7374
15.7679
13.4069
12.8654
13.1198
13.1858
13.6676
35.0219
13.2468
13.2851
13.1483
13.2221
13.3442
13.3794
13.1878
13.5781
13.7309
13.3653
13.6154
13.758
13.8015
13.7011
14.0105
13.3429
13.2875
13.5262
13.8411
14.3492
13.4843
13.1029
13.2109
13.5427
13.4514
12.9943
13.1551
13.1608
13.0879
13.1948
13.389
13.2173
13.3395
13.5454
13.5683
13.5368
13.6273
13.3843
13.5123
13.7259
13.7643
13.3526
13.4376
13.5529
13.4228
13.6714
13.4379
13.1859
13.3816
13.5146
13.4911
13.4457
13.4123
13.3467
13.1982
13.2349
13.3228
13.4123
13.2368
13.4164
13.4593
13.4468
13.5983
13.6297
13.286
13.3652
13.6831
13.4795
13.347
13.533
13.5522
13.4033
13.4814
13.3715
13.2844
13.5525
13.5313
13.5022
13.4531
13.3881
13.4334
13.3038
13.3773
13.3527
13.3249
13.2476
13.3245
13.2846
13.3332
13.416
13.749
13.3338
13.3095
13.5194
13.281
13.2703
13.4583
13.5732
13.3826
13.3651
13.2695
13.2177
13.3404
13.4364
13.3699
13.3248
13.3756
13.3185
13.3992
13.3086
13.1779
13.3113
13.1259
13.1608
13.2374
12.9822
13.4123
13.3077
13.413
13.1958
13.1631
13.2067
13.4036
13.2949
13.1642
13.1266
13.0874
13.3419
13.2503
13.236
13.2679
13.292
13.2322
13.0677
13.1847
13.2418
13.1098
13.1156
13.1836
12.9707
13.3789
13.3428
13.3412
13.1565
13.104
13.0549
13.3368
13.25
13.1043
13.1215
13.1471
13.2597
13.1551
13.1735
13.2383
13.2661
13.1517
13.1329
13.1891
13.2442
13.2061
13.1297
13.1715
13.121
13.2724
13.2602
13.2714
13.1379
13.1458
13.1427
13.2539
13.2198
13.0936
13.117
13.1548
13.181
13.0741
13.12
13.2587
13.2369
13.219
13.2137
13.1915
13.2318
13.2595
13.1636
13.1901
13.1724
13.1947
13.1743
13.2232
13.1422
13.209
13.2044
13.1365
13.2104
13.1275
13.109
13.1917
13.1251
13.0243
13.0957
13.2609
13.2287
13.2342
13.2433
13.2013
13.2143
13.2527
13.1955
13.2047
13.2014
13.1528
13.0689
13.1936
13.1526
13.2055
13.2116
13.0716
13.2302
13.179
13.1215
13.2125
13.1296
13.0339
13.0958
13.2525
13.2438
13.223
13.2477
13.1991
13.2077
13.1863
13.2162
13.1938
13.2575
13.1684
13.0503
13.1745
13.1861
13.2176
13.2409
13.1358
13.2301
13.2123
13.1816
13.2281
13.1603
13.0934
13.1515
13.2306
13.2633
13.1966
13.2115
13.1831
13.2521
13.1044
13.2072
13.1566
13.228
13.2185
13.1459
13.1543
13.2079
13.2278
13.2265
13.2011
13.2104
13.2742
13.2427
13.2065
13.1851
13.1436
13.2311
13.2054
13.2163
13.1445
13.1665
13.1593
13.2494
13.0792
13.1804
13.1426
13.1763
13.2731
13.244
13.1574
13.216
13.23
13.2061
13.2536
13.1995
13.336
13.3074
13.2524
13.2124
13.1977
13.3054
13.1589
13.1691
13.0986
13.1185
13.1505
13.1328
13.0861
13.1451
13.1522
13.1268
13.2511
13.2375
13.1843
13.2142
13.2161
13.2
13.2605
13.189
13.3015
13.3238
13.2835
13.2442
13.2674
13.3163
13.1351
13.1843
13.0783
13.0891
13.1602
13.0663
13.086
13.1398
13.1679
13.1107
13.1949
13.2079
13.1997
13.2049
13.1981
13.1884
13.239
13.1862
13.2592
13.2586
13.2814
13.2636
13.3751
13.2681
13.1274
13.0823
13.1018
13.0792
13.1567
13.023
13.0944
13.1507
13.1624
13.0829
13.1573
13.1391
13.1923
13.1752
13.1558
13.1691
13.2266
13.1825
13.2116
13.2016
13.2469
13.2623
13.4236
13.2376
13.1598
13.0229
13.1346
13.1101
13.1605
13.0016
13.0702
13.1702
13.1373
13.1321
13.1444
13.1239
13.1715
13.1335
13.1072
13.1308
13.226
13.1646
13.1821
13.1285
13.1774
13.2358
13.2441
13.178
13.2086
13.0904
13.1707
13.1679
13.1759
13.018
13.0682
13.2046
13.1302
13.2097
13.1471
13.1055
13.1554
13.1201
13.078
13.1094
13.2336
13.1642
13.1803
13.0767
13.1209
13.2324
13.2034
13.1921
13.2479
13.1756
13.2022
13.2157
13.2167
13.0189
13.1379
13.2163
13.1988
13.3938
13.1832
13.1167
13.161
13.1478
13.0821
13.1283
13.2545
13.1793
13.1384
13.0164
13.111
13.241
13.2434
13.2614
13.2628
13.2165
13.2438
13.259
13.2587
13.0994
13.2207
13.2571
13.2457
13.3495
13.2533
13.1858
13.2045
13.1979
13.1721
13.2324
13.2878
13.2071
13.1467
12.9906
13.1872
13.2598
13.2422
13.21
13.2858
13.319
13.2693
13.2578
13.2934
13.2422
13.3156
13.3228
13.2855
13.3195
13.337
13.2815
13.2735
13.2674
13.3156
13.3468
13.3285
13.2476
13.1945
13.0874
13.3049
13.2956
13.2651
13.2742
13.32
13.4142
13.2692
13.2798
13.334
13.408
13.4015
13.3693
13.3274
13.3282
13.4106
13.3698
13.3553
13.3446
13.373
13.3658
13.369
13.2997
13.236
13.1453
13.4494
13.3434
13.293
13.2162
13.3639
13.4601
13.2608
13.3317
13.3691
13.4851
13.3285
13.3552
13.3436
13.3583
13.4602
13.4335
13.4153
13.3966
13.3538
13.3532
13.4042
13.3581
13.2935
13.3033
13.3561
13.399
13.3406
13.227
13.4042
13.5344
13.4921
13.384
13.4106
13.5036
13.3206
13.37
13.3707
13.3808
13.4875
13.4709
13.4523
13.4224
13.3893
13.3777
13.4308
13.4155
13.3798
13.4462
13.4016
13.4556
13.412
13.3602
13.4284
13.5346
13.5718
13.385
13.4463
13.5009
13.4153
13.3968
13.4003
13.4124
13.5021
13.4872
13.4727
13.4416
13.4227
13.4107
13.4484
13.4545
13.4414
13.4839
13.4629
13.4969
13.4718
13.4574
13.4566
13.515
13.5014
13.4152
13.4768
13.4949
13.4403
13.4058
13.4213
13.4489
13.5091
13.4921
13.472
13.4553
13.4389
13.4504
13.4579
13.4674
13.4558
13.4681
13.4718
13.5141
13.4949
13.4775
13.5333
13.5098
13.483
13.4887
13.52
13.4871
13.4449
13.4349
13.4494
13.4754
13.5105
13.4906
13.4654
13.4599
13.4475
13.4598
13.4603
13.461
13.4555
13.4621
13.4736
13.5108
13.4955
13.4847
13.5373
13.5067
13.481
13.5018
13.5404
13.4767
13.4365
13.4423
13.4499
13.4732
13.5041
13.4802
13.4526
13.4577
13.4479
13.4553
13.4571
13.4457
13.4432
13.4545
13.4629
13.4919
13.4783
13.4799
13.504
13.4969
13.466
13.4852
13.5246
13.4569
13.4114
13.4282
13.4197
13.4383
13.4846
13.4548
13.4264
13.4497
13.432
13.4387
13.4462
13.4268
13.4233
13.4356
13.447
13.4636
13.4502
13.4609
13.455
13.4809
13.4389
13.448
13.4678
13.4231
13.3808
13.4045
13.3704
13.3614
13.4498
13.4124
13.3964
13.4295
13.4119
13.4122
13.4279
13.4101
13.4041
13.4117
13.426
13.4349
13.4245
13.4341
13.3952
13.4493
13.3994
13.3965
13.4022
13.3796
13.3521
13.377
13.3398
13.3351
13.4053
13.3673
13.3771
13.4015
13.3945
13.3899
13.4082
13.3981
13.3917
13.3884
13.4046
13.414
13.4049
13.4089
13.344
13.3895
13.3385
13.3444
13.3662
13.3283
13.3278
13.3552
13.3374
13.3506
13.3661
13.3356
13.367
13.3761
13.3792
13.377
13.3891
13.388
13.3787
13.365
13.3852
13.3999
13.3869
13.385
13.3059
13.3268
13.2755
13.3015
13.3564
13.2797
13.3104
13.3409
13.3506
13.3645
13.3444
13.3283
13.3768
13.3593
13.3605
13.3674
13.3738
13.3791
13.3778
13.3435
13.3658
13.3876
13.3681
13.3586
13.2895
13.2877
13.232
13.2774
13.3561
13.2612
13.3011
13.337
13.365
13.3737
13.3357
13.335
13.397
13.3545
13.3446
13.3592
13.3628
13.3609
13.3771
13.3338
13.3449
13.375
13.354
13.3513
13.2999
13.2736
13.2169
13.2814
13.3627
13.2732
13.2914
13.3406
13.3748
13.3875
13.3361
13.346
13.3879
13.3519
13.3408
13.3581
13.3571
13.3353
13.3728
13.3431
13.3337
13.3655
13.3659
13.3641
13.3293
13.293
13.2463
13.3054
13.3723
13.3007
13.2836
13.351
13.3805
13.4093
13.3435
13.352
13.3623
13.3543
13.3626
13.3668
13.3603
13.3481
13.3749
13.3781
13.3546
13.3716
13.3928
13.3846
13.367
13.3367
13.303
13.3449
13.3856
13.3349
13.2841
13.3696
13.3868
13.4192
13.3605
13.3586
13.3588
13.36
13.3974
13.3847
13.3716
13.3796
13.3773
13.4111
13.3977
13.3918
13.4207
13.4027
13.405
13.3991
13.3776
13.3916
13.4023
13.3766
13.3003
13.3937
13.3872
13.4165
13.3848
13.3771
13.36
13.3743
13.4146
13.3991
13.3863
13.3911
13.397
13.4319
13.4269
13.4147
13.4356
13.4519
13.436
13.4668
13.4476
13.4258
13.4157
13.427
13.3437
13.4124
13.3728
13.4
13.4155
13.4016
13.3559
13.39
13.4008
13.4025
13.3995
13.3819
13.4012
13.4299
13.4286
13.4286
13.4531
13.4527
13.4551
13.5041
13.479
13.4429
13.4233
13.4693
13.3909
13.4229
13.3512
13.3824
13.4532
13.4328
13.3529
13.4025
13.3823
13.3943
13.412
13.3855
13.4146
13.4184
13.4222
13.429
13.4517
13.4533
13.4648
13.5133
13.4913
13.4516
13.4224
13.5148
13.4342
13.4265
13.3306
13.3671
13.4913
13.4641
13.342
13.4056
13.3595
13.3843
13.4214
13.3861
13.4269
13.4083
13.4135
13.4245
13.4435
13.4528
13.4669
13.52
13.4918
13.4529
13.4141
13.5379
13.4641
13.4129
13.3175
13.3556
13.5255
13.5003
13.3581
13.394
13.3327
13.3705
13.4365
13.3722
13.4221
13.3915
13.4039
13.4168
13.4371
13.4462
13.453
13.5163
13.4792
13.4441
13.4072
13.5349
13.4608
13.3947
13.311
13.3481
13.5513
13.543
13.3904
13.372
13.3079
13.3585
13.4429
13.3601
13.4064
13.3739
13.3899
13.4071
13.4256
13.4282
13.4374
13.4957
13.4582
13.4288
13.4006
13.5074
13.4292
13.3773
13.3165
13.3597
13.5442
13.5394
13.3874
13.3433
13.2882
13.3532
13.4388
13.3602
13.3792
13.3535
13.3727
13.3959
13.4033
13.4027
13.4185
13.4607
13.4282
13.4088
13.3971
13.447
13.3845
13.3609
13.339
13.381
13.5044
13.4641
13.3475
13.3191
13.2843
13.3658
13.4165
13.3472
13.3479
13.3363
13.3609
13.3764
13.3771
13.3774
13.399
13.4157
13.3995
13.3909
13.3943
13.3671
13.3487
13.3477
13.3643
13.421
13.3661
13.3191
13.3098
13.3077
13.2907
13.3841
13.3667
13.3252
13.3281
13.3297
13.3577
13.3561
13.3619
13.3616
13.3821
13.3749
13.3768
13.375
13.3873
13.3014
13.3299
13.3438
13.383
13.4335
13.1927
13.112
13.2959
13.3148
13.299
13.4039
13.3185
13.3115
13.3256
13.3326
13.3633
13.3429
13.3587
13.3601
13.3674
13.3526
13.3609
13.3619
13.3738
13.3006
13.3302
13.3436
13.3852
13.4221
13.21
13.1289
13.3219
13.3425
13.3302
13.4322
13.3162
13.3101
13.3292
13.3391
13.3726
13.3404
13.3583
13.364
13.3532
13.3511
13.3474
13.3484
13.3572
13.3394
13.337
13.3335
13.3544
13.3886
13.3978
13.3524
13.3743
13.3627
13.3478
13.5271
13.365
13.3125
13.3296
13.3257
13.3725
13.3464
13.3592
13.3678
13.3405
13.357
13.3387
13.3346
13.3355
13.3691
13.3447
13.3154
13.3141
13.345
13.4768
13.4665
13.4139
13.3528
13.3048
13.4344
13.407
13.3226
13.3271
13.3015
13.3396
13.3531
13.3613
13.3655
13.3312
13.3627
13.3381
13.3224
13.312
13.3736
13.3441
13.2947
13.2733
13.298
13.437
13.4279
13.4188
13.3147
13.2429
13.3055
13.4312
13.351
13.3168
13.2795
13.3067
13.3749
13.3628
13.3666
13.327
13.3676
13.3412
13.3134
13.2923
13.3756
13.3309
13.2737
13.2359
13.2539
13.4207
13.4136
13.3814
13.2617
13.1777
13.21
13.4512
13.3858
13.3168
13.267
13.2868
13.4049
13.3714
13.3681
13.3301
13.3746
13.3427
13.311
13.281
13.3781
13.3166
13.2537
13.201
13.2159
13.4216
13.4177
13.3524
13.2087
13.1375
13.1787
13.4698
13.4187
13.3478
13.2654
13.2653
13.4613
13.3965
13.3736
13.343
13.3889
13.3511
13.3198
13.2829
13.3942
13.3114
13.2431
13.1692
13.1844
13.4515
13.4341
13.3501
13.2012
13.0976
13.126
13.5032
13.4667
13.3987
13.2874
13.2287
13.5363
13.4571
13.4035
13.3709
13.4126
13.3761
13.3434
13.2988
13.4178
13.3273
13.2483
13.1411
13.1531
13.4941
13.4706
13.3846
13.2263
13.0905
13.0679
13.5548
13.5421
13.4618
13.3138
13.1951
13.6333
13.5483
13.4698
13.4131
13.4486
13.4187
13.3819
13.3257
13.4484
13.3494
13.2506
13.1086
13.0988
13.5302
13.5031
13.4298
13.2679
13.0816
12.9855
13.6155
13.6282
13.5447
13.3483
13.1752
13.7874
13.6648
13.5811
13.4719
13.5047
13.4766
13.434
13.3617
13.4941
13.3869
13.256
13.0401
12.9566
13.5709
13.5359
13.4833
13.3164
13.0338
12.7179
13.678
13.6905
13.6452
13.3957
13.1266
13.8738
13.8183
13.7558
13.5482
13.585
13.5551
13.5017
13.4078
13.5621
13.429
13.2751
12.9103
12.4702
13.6265
13.579
13.5463
13.3478
12.9636
11.8585
13.7313
13.8101
13.8168
13.5249
12.9996
14.0405
14.0782
14.0522
13.6452
13.691
13.6589
13.595
13.4768
13.6581
13.5474
13.3407
12.7888
11.0536
13.703
13.6651
13.6915
13.4298
12.8988
10.3811
-7.05169
13.7786
14.0648
14.1405
13.7973
12.5696
14.3858
14.5269
14.5454
13.7593
13.7974
13.7671
13.7189
13.5776
13.7592
13.6651
13.5118
12.7478
10.1257
0.995504
13.7836
13.7494
13.67
13.5152
12.876
10.2679
1.42492
13.7991
13.9599
14.2179
14.0406
11.4748
14.2776
14.686
14.6441
13.8658
13.8843
13.8567
13.8214
13.6851
13.8595
13.7069
13.5011
12.7276
10.6374
2.85519
13.8637
13.7924
13.5318
13.4132
12.6948
9.64385
2.00469
13.5583
13.7826
13.9756
13.8821
10.9174
2.98521
14.0187
14.2678
14.2625
13.9667
13.991
13.9441
13.9062
13.8031
13.9683
13.7214
13.5378
13.0648
11.0034
2.74076
13.9382
13.8238
13.6383
13.6232
12.9017
9.89595
0.900559
13.3503
13.6876
13.8916
13.5662
11.2655
13.9489
14.1004
14.1362
14.0964
14.1476
14.0716
14.0286
14.0013
14.1085
13.7955
13.7738
13.6116
12.5151
14.0726
13.9544
13.808
13.8308
13.435
11.5185
-6.47081
13.9338
13.8452
13.9902
13.748
12.9958
14.0552
14.1022
14.1657
14.2403
14.3284
14.2277
14.1714
14.2025
14.3002
13.9811
13.995
14.0711
13.9923
14.279
14.1309
13.9762
14.009
13.9162
13.4373
14.1052
14.0154
14.1288
14.0335
13.8947
14.2147
14.17
14.2015
14.3616
14.4806
14.3684
14.2892
14.337
14.5055
14.2431
14.1983
14.2669
14.3193
14.4892
14.324
14.1299
14.1608
14.2172
14.1505
14.2827
14.1407
14.2473
14.2361
14.2545
14.2813
14.2741
14.2958
14.3852
14.4985
14.4336
14.3465
14.3945
14.4968
14.3402
14.2661
14.3254
14.3686
14.5414
14.3922
14.2167
14.2648
14.3311
14.3332
14.3626
14.2139
14.3142
14.3342
14.3838
14.3137
14.352
14.367
14.3966
14.4976
14.4129
14.3702
14.3876
14.4678
14.3442
14.3292
14.3376
14.3888
14.5054
14.3857
14.2521
14.2938
14.3452
14.3719
14.338
14.2706
14.3365
14.3517
14.4017
14.3678
14.3759
14.3988
14.4295
14.4989
14.4226
14.3852
14.3857
14.4362
14.3267
14.3191
14.336
14.4028
14.4471
14.3364
14.2443
14.2875
14.3414
14.3843
14.2844
14.2742
14.3306
14.3556
14.4057
14.3606
14.3641
14.4121
14.4687
14.505
14.4414
14.4034
14.4132
14.4186
14.3146
14.2997
14.3526
14.4202
14.3826
14.2759
14.2208
14.26
14.3344
14.3975
14.2713
14.258
14.315
14.3484
14.4077
14.3194
14.3525
14.4128
14.5062
14.5178
14.4653
14.43
14.45
14.4322
14.3576
14.3432
14.3796
14.4463
14.3409
14.2585
14.2509
14.253
14.3361
14.4233
14.2735
14.2393
14.2844
14.361
14.434
14.3081
14.3566
14.4225
14.5274
14.5248
14.4816
14.4446
14.4652
14.4598
14.3886
14.3595
14.3972
14.4665
14.3757
14.3047
14.2743
14.2806
14.3593
14.4549
14.286
14.2616
14.3098
14.3939
14.4794
14.3277
14.4032
14.4744
268.274
244.82
257.552
248.852
238.91
239.238
236.306
233.308
265.674
279.319
284.239
273.853
264.593
257.085
239.165
258.777
233.128
232.652
233.282
223.664
228.218
231.367
228.639
227.022
225.587
222.495
243.208
243.22
243.492
234.926
224.905
236.75
228.567
221.767
213.714
223.694
219.66
211.398
219.46
221.02
220.552
221.23
210.209
210.575
185.37
213.441
181.6
186.378
247.41
251.141
260.873
244.188
236.855
259.174
256.283
233.004
231.731
253.099
250.288
226.24
218.501
232.709
205.269
193.189
159.563
169.679
137.313
142.638
159.04
137.547
265.43
272.555
276.882
277.901
295.104
275.959
264.442
290.877
270.242
234.637
194.203
236.916
191.767
160.884
124.753
134.282
112.184
133.153
291.149
286.812
270.139
259.584
236.649
205.855
239.746
159.648
248.916
219.855
234.353
246.364
237.106
215.576
219.334
213.908
230.064
228.151
210.344
207.82
205.117
224.112
201.532
237.198
209.873
248.236
237.732
227.517
213.634
210.762
208.166
208.902
217.961
220.918
214.237
202.154
191.221
197
183.242
201.791
163.687
231.365
233.069
233.932
222.306
217.724
217.973
154.316
150.041
139.239
128.732
123.029
239.399
242.953
210.16
208.829
198.458
128.02
122.799
116.992
114.933
111.982
249.38
195.49
253.52
252.825
255.44
197.37
191.322
191.575
188.375
107.114
107.537
105.121
103.29
97.9689
92.9907
96.33
102.684
254.475
185.957
237.786
230.415
185.403
177.126
169.839
156.206
200.16
147.395
117.083
152.553
95.7221
162.278
105.641
162.591
165.129
161.526
113.652
113.474
112.87
149.761
140.606
99.5996
90.6616
72.0832
132.662
56.8698
144.818
62.894
157.235
145.411
167.579
81.5442
101.855
64.8626
112.15
117.231
124.836
112.788
40.5036
37.4169
43.5999
48.0087
106.718
62.0209
157.042
156.471
159.667
67.946
68.5156
62.1772
101.63
98.6813
67.2673
80.5021
81.9044
137.942
118.396
54.4834
39.6054
30.7053
100.35
100.46
92.3823
89.1602
89.0544
112.987
36.7585
90.4909
116.301
111.967
27.6346
18.9599
52.0885
46.3571
85.5625
76.9211
81.7641
66.2255
75.6098
62.9053
69.9799
81.3168
117.002
62.498
109.169
107.429
64.1468
58.2604
60.8643
77.6894
95.2502
42.674
51.7714
47.8584
54.3655
55.3411
26.7906
73.1225
69.4219
73.4734
39.4601
34.1848
42.1136
58.0259
42.8787
34.3315
36.9585
25.3916
27.4536
17.402
24.6391
16.8404
52.2156
22.9771
56.6992
18.1359
23.0553
15.3424
21.4095
19.0353
17.1979
21.9214
15.1822
15.8084
13.9302
14.889
32.0321
15.9094
23.3761
23.4167
19.3431
16.4325
15.7187
15.2448
54.5396
61.3372
19.2993
26.8025
34.1811
16.8754
16.219
15.9735
15.7913
16.6957
70.5703
71.9263
37.3356
38.4604
42.7151
17.4792
16.842
14.5705
20.4562
19.4029
16.7878
16.2063
16.765
16.5626
67.9017
48.4556
59.6155
35.0893
58.756
40.0044
50.9306
52.2445
29.1022
18.8068
31.1608
33.7273
17.6618
22.2133
23.9483
37.9263
28.7951
24.0854
32.5814
24.0271
39.5453
17.1471
14.3454
19.8062
17.5827
18.4101
14.8312
14.7107
14.1499
16.3633
15.411
14.2015
13.767
13.7257
14.607
14.0383
15.9407
14.6338
15.0858
15.1915
13.6196
14.1426
13.7003
14.4555
13.3878
14.7483
14.2975
13.8122
14.0403
14.0941
13.9308
13.6346
13.4677
13.3217
15.91
15.3267
15.4615
14.8741
14.6574
14.7146
13.8342
15.1774
12.9262
12.9493
13.0864
15.2837
15.3346
14.6673
14.7013
14.7492
15.6143
16.3392
13.2873
13.0557
12.7505
15.5669
14.9995
15.3586
15.7181
15.4788
15.2852
14.7164
15.019
14.7193
39.2235
38.7873
46.8691
17.4716
23.5723
38.6632
47.1108
15.7135
16.1415
14.6354
19.0361
19.4482
13.8031
16.7447
16.5487
32.2204
19.6791
15.696
30.3028
16.2174
40.6799
13.8633
13.4698
13.7742
13.9331
13.5323
13.4178
13.498
13.423
13.6008
13.7221
13.4295
13.4365
13.4208
13.6309
13.3765
13.9328
13.5476
13.5845
13.8635
13.3708
13.434
13.4249
13.4875
13.2903
13.6831
13.5813
13.4555
13.423
13.4568
13.3883
13.3112
13.4309
13.394
14.1619
14.1899
14.1953
13.7367
13.8369
13.8035
13.4097
13.6156
13.3522
13.2783
13.4682
14.2724
14.2784
13.9869
13.9817
13.9374
13.7492
13.4868
13.3789
13.4115
13.4585
14.4834
14.1125
14.2744
14.4477
14.1018
14.3465
14.057
14.101
13.7989
13.3192
26.0698
32.4152
12.4154
12.6196
12.6814
13.1906
13.0433
13.9474
13.7433
15.2575
14.8222
13.2267
14.1223
13.9676
14.8259
14.2
13.3064
12.5612
13.478
13.9829
13.2597
13.1749
13.2558
13.2387
13.2515
13.1581
13.128
13.1492
13.2302
13.2368
13.1522
13.1341
13.178
13.2992
13.3115
13.3194
13.1902
13.2649
13.2366
13.1757
13.1996
13.1789
13.0944
13.1223
13.399
13.3505
13.3369
13.3633
13.4249
13.4041
13.4306
13.3768
13.3834
13.4298
13.5622
13.5054
13.2772
13.3841
13.3395
13.3812
13.3056
13.5103
13.4258
13.4764
13.427
13.5607
13.6161
13.5546
13.6128
13.5798
13.6072
13.5728
13.6318
13.7294
13.6714
13.5457
13.5363
13.4404
13.4611
13.4277
13.3142
13.3561
13.4835
13.3802
13.4455
13.6102
13.5183
13.5963
13.5384
13.6328
13.5216
13.5959
13.7815
13.5727
13.8817
13.8594
13.5231
13.5274
13.7862
13.5924
13.4355
13.1579
12.9069
13.0051
13.1341
13.2444
13.2666
13.4341
13.2622
13.7919
13.5516
13.7107
13.6867
13.4853
13.5737
13.6118
13.2859
13.421
13.4634
13.4174
13.4163
13.4175
13.1497
13.1658
13.1331
13.0987
13.1148
13.1582
13.1334
13.1358
13.1362
13.1861
13.2265
13.2013
13.242
13.3338
13.3612
13.1432
13.155
13.1527
13.0559
13.1473
13.1691
13.1439
13.1116
13.2056
13.4485
13.4328
13.4763
13.4096
13.4815
13.4252
13.5167
13.5563
13.5944
13.6717
13.7955
13.6354
13.6331
13.6379
13.6343
13.2032
13.2901
13.2657
13.185
13.259
13.2335
13.5945
13.5132
13.6292
13.5956
13.6797
13.5881
13.677
13.6229
13.5862
13.6154
13.6307
13.6312
13.5917
13.6231
13.3887
13.2564
13.2921
13.291
13.2203
13.523
13.4382
13.4433
13.5081
13.5509
13.4958
13.486
13.6071
13.5285
13.5985
13.5593
13.602
13.5604
13.5985
13.4253
13.3746
13.6465
13.4438
13.4319
13.4238
13.4393
13.4546
13.4588
13.2934
13.3018
13.3544
13.2408
13.3617
13.3259
13.3776
13.4472
13.4823
13.5767
13.5737
13.5221
13.573
13.4787
13.4821
13.5375
13.547
13.5097
13.5152
13.5329
13.4272
13.4392
13.4504
13.438
13.4697
13.3886
13.2172
13.2986
13.2335
13.2199
13.2051
13.3137
13.3118
13.2916
13.3041
13.3075
13.4188
13.3792
13.3355
13.3749
13.3518
13.1899
13.2338
13.1704
13.1762
13.2619
13.2502
13.238
13.2349
13.3247
13.4899
13.3967
13.5366
13.384
13.4633
13.4018
13.5014
13.6902
13.9296
13.4863
14.0365
13.6824
13.6614
13.7751
13.7173
13.1998
13.2492
13.2399
13.2319
13.2708
13.2624
13.7658
13.6164
13.7118
13.4977
13.843
13.5756
13.7132
13.6309
13.5775
13.6263
13.664
13.701
13.5987
13.6528
13.2702
13.2479
13.2932
13.2687
13.289
13.5909
13.5184
13.5653
13.5114
13.6106
13.4688
13.6332
13.6059
13.5529
13.6155
13.5795
13.6472
13.6169
13.6808
13.364
13.363
13.3024
13.4429
13.4544
13.389
13.2938
13.4313
13.4445
13.3874
13.3428
13.3895
13.2714
13.3681
13.3256
13.3729
13.6452
13.4678
13.6941
13.5984
13.6183
13.6586
13.4671
13.454
13.5071
13.5196
13.4893
13.4923
13.5091
13.4343
13.4783
13.4237
13.4048
13.455
13.3726
13.3717
13.4095
13.3607
13.3877
13.3499
13.3843
13.4106
13.3769
13.4035
13.3479
13.4085
13.3565
13.3126
13.3045
13.2694
13.2766
13.3115
13.3051
13.2699
13.3673
13.324
13.3337
13.2839
13.3852
13.3743
13.3868
13.3448
13.2367
13.2561
13.2435
13.2414
13.3188
13.1342
13.2728
13.2963
13.285
13.3081
13.3234
13.3106
13.9865
13.4878
13.6705
13.2341
13.9067
13.3482
13.4926
13.7388
13.5803
13.6909
13.7742
13.7643
13.6062
13.7253
13.2931
13.3632
13.3791
13.343
13.4595
13.6144
13.4169
13.8271
13.3544
13.4837
13.2435
13.711
13.6657
13.6613
13.7108
13.6105
13.6706
13.6737
13.7105
13.3762
13.4129
13.314
13.4198
13.4189
13.3981
13.3577
13.4198
13.4103
13.3106
13.2847
13.3331
13.1643
13.2371
13.2462
13.2819
13.1444
13.4323
13.418
13.4566
13.4663
13.3976
13.4152
13.4297
13.3503
13.3945
13.3141
13.3059
13.3363
13.2762
13.4101
13.3739
13.3689
13.4089
13.3584
13.3279
13.3771
13.3169
13.3045
13.2286
13.32
13.2664
13.2059
13.2423
13.2251
13.3442
13.3525
13.3083
13.2992
13.4101
13.301
13.2563
13.2977
13.2466
13.2077
13.1314
13.1908
13.1741
13.2004
13.1294
13.178
13.087
13.1388
13.3472
13.3511
13.3358
13.3766
13.3541
13.3436
13.185
13.3832
12.9139
13.046
12.5379
13.3808
13.4756
13.4122
13.3898
13.4108
13.3695
13.0172
13.0511
12.6594
12.9697
13.4184
13.3765
13.3739
13.3901
13.3762
13.3713
13.3575
13.3604
13.3365
13.1831
13.21
13.2416
13.1204
13.1683
13.1848
13.2134
13.1318
13.3798
13.3362
13.3587
13.3721
13.298
13.3124
13.3292
13.2656
13.2712
13.199
13.2283
13.2135
13.2038
13.3297
13.3012
13.2922
13.3187
13.286
13.2689
13.2889
13.2672
13.224
13.2133
13.2417
13.2107
13.2251
13.2127
13.2088
13.327
13.2915
13.2391
13.2781
13.0629
13.2812
13.2421
13.2652
13.0918
13.1952
13.15
13.1788
13.1886
13.1889
13.1718
13.1831
13.1701
13.1851
13.3699
13.328
13.3206
13.3288
13.2872
13.2817
13.0753
12.9469
13.0572
13.1276
13.1288
13.3667
13.3457
13.3273
13.3236
13.292
12.9813
13.0162
13.1041
13.1117
13.0794
13.3378
13.294
13.3339
13.3291
13.3038
13.2975
13.3076
13.2941
13.2736
13.1608
13.164
13.1903
13.122
13.1596
13.1471
13.1799
13.1471
13.299
13.2574
13.2572
13.2776
13.2222
13.1947
13.2105
13.1895
13.1647
13.111
13.1466
13.1146
13.1459
13.2915
13.2875
13.2564
13.2817
13.2618
13.252
13.2832
13.2592
13.2198
13.2338
13.2467
13.2303
13.2362
13.2119
13.2151
13.265
13.2466
13.2468
13.2536
13.1635
13.2499
13.2446
13.2429
13.1904
13.1877
13.185
13.1797
13.1894
13.1899
13.1891
13.1805
13.191
13.1973
13.2926
13.2531
13.2469
13.264
13.2303
13.2228
13.132
13.133
13.1558
13.1357
13.1397
13.2751
13.2531
13.229
13.2317
13.2101
13.139
13.1219
13.1775
13.1669
13.1472
13.2497
13.1982
13.277
13.2576
13.2438
13.1982
13.2462
13.2168
13.2139
13.1599
13.1351
13.1769
13.1094
13.1711
13.13
13.1647
13.1733
13.2192
13.182
13.1267
13.1347
13.1487
13.0655
13.0653
13.0954
13.0685
13.0413
13.043
13.036
13.1009
13.2808
13.2731
13.2516
13.2829
13.2558
13.2514
13.2781
13.2502
13.2352
13.2343
13.2637
13.234
13.2318
13.2167
13.2185
13.2326
13.2213
13.2339
13.2275
13.1882
13.2296
13.2233
13.2109
13.1804
13.1934
13.1847
13.183
13.1964
13.196
13.1811
13.1843
13.2051
13.2069
13.2444
13.2163
13.2036
13.2327
13.2102
13.1934
13.1675
13.1619
13.1837
13.2218
13.2039
13.194
13.155
13.167
13.1575
13.1047
13.1957
13.1815
13.2189
13.2193
13.215
13.1409
13.0963
13.2122
13.1779
13.1912
13.0862
13.1685
13.1446
13.1781
13.1741
13.1451
13.155
13.1103
13.1636
13.1595
13.152
13.2051
13.1557
13.1442
13.0215
13.0195
13.1233
13.0008
13.0051
13.0092
13.0228
13.0193
12.9997
13.0238
13.0917
13.2686
13.2659
13.2492
13.2719
13.2445
13.2437
13.2674
13.2361
13.2313
13.2302
13.2569
13.2323
13.2266
13.2203
13.2185
13.2179
13.2252
13.2195
13.2003
13.1715
13.2352
13.2215
13.2047
13.1691
13.1975
13.183
13.1828
13.2008
13.197
13.1866
13.1803
13.2035
13.2025
13.2253
13.2084
13.1894
13.2251
13.2088
13.1909
13.2772
13.251
13.2346
13.312
13.2767
13.1331
13.0858
13.1526
13.1293
13.0888
13.2291
13.2155
13.2247
13.2362
13.2634
13.0861
13.1131
13.1339
13.1347
13.1731
13.0993
13.1223
13.1508
13.1781
13.156
13.1363
13.1438
13.152
13.1552
13.1383
13.1371
13.2309
13.1463
13.1611
13.0135
13.0079
13.1442
13.0562
13.0728
13.0171
13.0497
13.0593
13.0514
13.0811
13.1186
13.2599
13.2509
13.2357
13.2616
13.2257
13.2278
13.2511
13.2184
13.2339
13.2212
13.2474
13.2311
13.2124
13.2146
13.2084
13.2413
13.263
13.2223
13.2225
13.177
13.2543
13.2197
13.2533
13.1806
13.1931
13.1904
13.1733
13.1935
13.1853
13.1841
13.1627
13.1991
13.1889
13.2311
13.2144
13.2006
13.238
13.2245
13.21
13.308
13.2827
13.2472
13.2817
13.262
13.1413
13.1136
13.1929
13.1603
13.1548
13.246
13.2955
13.2385
13.245
13.2706
13.1599
13.2051
13.1299
13.1756
13.1906
13.1706
13.1543
13.2055
13.21
13.1293
13.1795
13.1402
13.2072
13.1241
13.2117
13.1739
13.2062
13.1782
13.1956
13.1026
13.1233
13.1735
13.1259
13.1348
13.0903
13.1091
13.1294
13.1352
13.1275
13.1795
13.2401
13.2245
13.2182
13.2369
13.2135
13.2083
13.2203
13.2047
13.2237
13.1991
13.2155
13.2107
13.1834
13.1984
13.1845
13.2728
13.2459
13.2135
13.2917
13.1705
13.2517
13.1991
13.303
13.1534
13.1742
13.1769
13.1551
13.1717
13.1626
13.1675
13.1454
13.1739
13.1649
13.2235
13.2262
13.1963
13.1874
13.2237
13.1852
13.245
13.238
13.2082
13.2071
13.209
13.1889
13.2078
13.2536
13.2323
13.2449
13.2373
13.2359
13.2131
13.2264
13.22
13.2311
13.2474
13.1783
13.2282
13.224
13.2314
13.2135
13.2501
13.2415
13.1939
13.2805
13.2456
13.2724
13.2784
13.3582
13.343
13.229
13.2106
13.2252
13.1395
13.1388
13.1969
13.1556
13.1519
13.1769
13.1293
13.1597
13.2168
13.1452
13.2806
13.204
13.1837
13.1995
13.2023
13.1907
13.1869
13.1835
13.1735
13.1956
13.1666
13.1865
13.1736
13.1515
13.17
13.1613
13.2209
13.1925
13.1768
13.267
13.1342
13.1856
13.1559
13.2075
13.1115
13.1517
13.1586
13.1374
13.1516
13.1432
13.149
13.127
13.1536
13.1397
13.1676
13.2272
13.2119
13.1691
13.2372
13.2284
13.165
13.1754
13.1431
13.1281
13.1424
13.2652
13.2626
13.2722
13.2662
13.2671
13.2144
13.2235
13.2003
13.1999
13.2295
13.2629
13.2683
13.2326
13.2601
13.247
13.2657
13.2426
13.2618
13.249
13.2946
13.3847
13.4026
13.3315
13.3037
13.3627
13.3677
13.2714
13.2371
13.245
13.1751
13.1721
13.2292
13.1958
13.1983
13.2478
13.1994
13.2402
13.2762
13.2749
13.3099
13.1652
13.1504
13.1747
13.1644
13.1569
13.1659
13.1443
13.1479
13.1495
13.1477
13.1407
13.1326
13.1382
13.1537
13.1554
13.1601
13.1303
13.1444
13.1583
13.09
13.1824
13.1393
13.1328
13.0786
13.1393
13.1415
13.1208
13.155
13.1398
13.1367
13.1204
13.1296
13.1257
13.1558
13.2283
13.2093
13.1238
13.1852
13.1678
13.1164
13.1285
13.1172
13.1152
13.1293
13.2411
13.2571
13.2215
13.2108
13.2381
13.1881
13.2353
13.1941
13.1831
13.2375
13.261
13.2483
13.2456
13.2532
13.2439
13.2499
13.2431
13.2437
13.2351
13.303
13.3263
13.3347
13.2954
13.2914
13.2868
13.3182
13.2865
13.2488
13.2483
13.2152
13.226
13.2556
13.2348
13.2584
13.2868
13.3288
13.3061
13.2779
13.3712
13.2944
13.1449
13.1412
13.1564
13.1317
13.1417
13.145
13.132
13.1365
13.1319
13.1465
13.1302
13.1353
13.1531
13.1602
13.1563
13.1084
13.0884
13.1343
13.1308
13.0643
13.1455
13.124
13.1137
13.0381
13.144
13.1302
13.1197
13.1599
13.1504
13.1288
13.1292
13.122
13.1173
13.0912
13.1427
13.1252
13.0699
13.1099
13.0949
13.1185
13.1375
13.0912
13.1199
13.1413
13.1892
13.2177
13.173
13.1724
13.2018
13.1806
13.2319
13.1792
13.1789
13.2119
13.2345
13.2237
13.2311
13.2356
13.2241
13.2312
13.2178
13.2308
13.2153
13.2732
13.2401
13.2959
13.2194
13.2409
13.17
13.25
13.2692
13.2454
13.241
13.2614
13.2934
13.2665
13.2939
13.3242
13.2955
13.4077
13.4387
13.3427
13.4325
13.2508
13.1306
13.1236
13.1369
13.1429
13.1322
13.1436
13.1636
13.1428
13.1289
13.1539
13.1383
13.1378
13.1535
13.1533
13.159
13.0704
13.0604
13.1067
13.0749
13.0299
13.0288
13.0899
13.0412
13.0588
13.1619
13.1289
13.1633
13.1566
13.1733
13.1409
13.1956
13.128
13.1478
13.0612
13.0918
13.0798
13.0611
13.0827
13.072
13.1226
13.1384
13.0939
13.1257
13.1349
13.1593
13.192
13.1487
13.1519
13.1873
13.1714
13.1831
13.1511
13.1543
13.1505
13.2175
13.2155
13.2082
13.2278
13.2096
13.2253
13.2027
13.2261
13.2067
13.2048
13.1249
13.1988
13.1644
13.1676
13.1094
13.1622
13.2149
13.2358
13.2292
13.307
13.3287
13.2488
13.2961
13.3064
13.352
13.4137
13.3421
13.3267
13.351
13.2242
13.1253
13.1421
13.1521
13.1894
13.153