/*--------------------------------*- C++ -*----------------------------------*\
| =========                 |                                                 |
| \\      /  F ield         | OpenFOAM: The Open Source CFD Toolbox           |
|  \\    /   O peration     | Version:  5.x                                   |
|   \\  /    A nd           | Web:      www.OpenFOAM.org                      |
|    \\/     M anipulation  |                                                 |
\*---------------------------------------------------------------------------*/
FoamFile
{
    version     2.0;
    format      ascii;
    class       surfaceScalarField;
    location    "8";
    object      phi;
}
// * * * * * * * * * * * * * * * * * * * * * * * * * * * * * * * * * * * * * //

dimensions      [0 3 -1 0 0 0 0];

internalField   nonuniform List<scalar> 
29271
(
-5.15294e-06
-1.12843e-06
2.89027e-06
3.49318e-06
-8.47185e-06
1.02291e-06
2.44963e-06
5.00742e-06
-1.82244e-05
-3.4672e-06
-2.23893e-06
5.27663e-06
5.86347e-06
1.27904e-05
-2.93712e-05
-8.01375e-06
-5.68578e-06
1.24421e-06
1.85589e-05
2.32676e-05
-2.14644e-05
-2.48615e-06
3.72511e-06
5.43369e-06
1.67839e-05
-1.99213e-06
-3.07128e-05
-6.63252e-06
-1.31243e-05
2.70781e-05
-2.13779e-06
2.55293e-05
-2.90084e-05
-8.36078e-06
-3.05828e-05
1.5334e-05
-8.59276e-06
6.12107e-05
-4.88306e-05
-1.72407e-05
5.60651e-06
-9.63904e-06
-1.04255e-06
7.11463e-05
-1.84347e-05
-5.25199e-06
1.09301e-06
4.37838e-06
3.33055e-06
1.48848e-05
-1.31594e-05
-4.57541e-06
1.07335e-05
1.04638e-05
-3.72021e-06
-4.597e-06
2.11163e-06
-1.17378e-06
3.6718e-06
-2.37504e-05
-3.28915e-06
8.29171e-06
7.18585e-06
-7.0126e-06
1.85746e-05
-3.09811e-05
1.28343e-05
-6.82642e-06
4.00922e-06
-8.35405e-06
2.9318e-05
-1.74677e-05
2.62854e-06
-1.29928e-06
2.77116e-06
-4.2208e-07
1.37894e-05
-1.58599e-05
-3.65689e-06
-5.34707e-06
1.00276e-05
4.13657e-06
1.06997e-05
-4.61846e-05
-2.42066e-05
-3.5806e-06
2.21778e-05
5.95988e-05
-7.80483e-06
-2.11512e-05
8.29943e-07
7.62259e-07
-1.35837e-06
1.58448e-05
5.07258e-06
-1.51607e-05
-1.64337e-06
4.78145e-06
2.40368e-06
-2.20168e-06
1.18207e-05
-1.28914e-05
5.83598e-07
-4.70703e-06
6.98512e-06
-7.16272e-07
1.0746e-05
-3.66981e-05
2.08692e-05
4.34459e-06
3.0771e-05
-3.66563e-06
-1.56211e-05
-8.7911e-06
-1.05951e-05
4.45894e-07
1.87061e-05
-1.38751e-05
-1.18763e-06
3.96302e-06
1.0219e-05
9.73079e-07
-2.97186e-05
-8.80913e-06
1.83774e-05
-4.4539e-06
2.12299e-05
3.37425e-06
-9.21903e-06
1.03601e-05
-1.16302e-05
1.01981e-05
-2.79932e-06
-4.10349e-07
1.13784e-06
2.15683e-06
-4.27927e-06
-1.07896e-07
4.74558e-08
4.42914e-06
-2.22544e-07
-1.82035e-07
-1.19585e-05
5.76902e-07
-1.38656e-07
1.19249e-05
-7.55018e-07
-1.85174e-05
-6.16196e-07
8.00465e-07
2.10868e-06
1.69795e-05
-1.49253e-05
-1.22577e-06
7.81656e-07
1.21854e-06
1.51362e-05
-9.85399e-07
1.79296e-06
-2.24884e-07
-1.82492e-05
1.58629e-06
-1.27686e-06
1.63717e-05
3.86279e-05
2.63823e-05
0.000206042
-6.88253e-05
-9.73787e-05
-4.99376e-05
-3.25805e-05
-2.85422e-07
-4.31041e-06
7.56816e-07
8.77569e-07
-6.87601e-06
-6.99495e-06
-2.62886e-06
-2.86861e-06
3.1668e-06
4.64858e-06
0.000211853
-8.29306e-05
-2.3842e-05
-2.87736e-05
-1.90997e-05
-1.05625e-05
-5.96988e-06
-5.80389e-06
-4.05799e-06
-2.28288e-06
-9.71067e-06
9.3455e-05
-3.00627e-06
-2.1738e-06
-9.32763e-07
-6.13566e-07
-3.68078e-06
-2.63851e-06
-3.18182e-06
-1.55132e-05
-1.51603e-05
-1.27532e-05
-1.86404e-05
-1.12368e-05
-8.33311e-07
-1.11389e-06
1.08226e-05
-3.31337e-06
-3.00824e-07
7.23006e-07
2.97609e-06
-6.09113e-07
-1.65276e-05
-9.44471e-07
1.95888e-06
8.20002e-07
1.53023e-05
5.33949e-07
-4.72392e-06
0.000130268
-3.33968e-05
-1.92035e-05
-1.73043e-05
-1.59387e-05
-5.90861e-06
-3.3416e-06
-2.3837e-06
-2.21912e-06
-2.25772e-05
-1.24006e-05
9.45547e-05
-1.49951e-05
-1.24379e-05
-1.34168e-05
-1.35445e-05
-9.09987e-06
-2.42106e-06
0.000111397
-1.18907e-05
-5.18651e-06
-6.45649e-06
5.48383e-06
-8.97882e-07
5.08519e-06
-1.03875e-05
-2.71071e-05
-1.51765e-05
-6.563e-05
-5.09674e-05
-3.34068e-08
1.70889e-06
9.19863e-06
3.09934e-05
-1.38515e-05
-3.68995e-07
1.66958e-06
-1.08486e-06
1.26462e-05
9.89577e-07
-1.35087e-06
-3.20165e-06
6.19375e-05
-1.83788e-06
-2.14088e-06
-1.30855e-06
-1.4025e-06
-3.13015e-06
-2.62794e-06
-2.60979e-06
-1.20425e-05
-1.15575e-05
-1.15563e-05
-1.18949e-05
-2.39287e-06
-1.72185e-06
6.19087e-05
-2.23572e-06
-2.12279e-06
-3.98088e-06
-1.91556e-06
-8.7153e-07
-5.59089e-07
-9.49191e-06
-1.22086e-05
-1.11266e-05
-2.70327e-05
-2.64814e-05
-1.36384e-06
3.71716e-06
1.93141e-05
-2.72905e-05
-1.11381e-05
1.19727e-05
2.63862e-05
-7.78004e-06
-4.14286e-07
7.58594e-07
4.44609e-06
-1.59093e-05
-2.30825e-06
4.47618e-06
-2.29388e-06
1.43134e-05
-1.54318e-05
-5.44527e-06
-4.82658e-06
2.54091e-05
-1.13323e-06
-6.23333e-07
1.22101e-06
5.98733e-07
-4.64909e-06
-1.92998e-06
1.8688e-06
4.95483e-06
1.08651e-06
1.54721e-06
-1.21659e-05
-1.28614e-07
-1.37279e-06
1.10336e-05
2.75761e-07
-1.59191e-05
-2.44197e-06
5.93729e-06
6.63175e-07
1.14848e-05
-1.80785e-05
-4.89439e-06
2.80863e-06
2.7273e-06
2.59532e-05
-8.51628e-06
-5.09413e-07
-2.63257e-07
-1.82072e-05
-4.02718e-06
-1.51904e-07
2.3159e-05
4.51559e-05
5.44803e-05
0.000119041
-1.68946e-06
-5.84221e-06
-8.24209e-07
-1.9472e-06
-1.33203e-06
-1.10378e-06
-4.73363e-07
5.76656e-07
8.27138e-06
1.19252e-05
0.000259738
-7.15682e-06
-4.96351e-06
-5.95417e-06
-4.85115e-06
-4.3174e-06
-2.03466e-05
0.000129959
1.17126e-06
2.27806e-06
1.89559e-06
2.35629e-06
-4.5718e-06
-3.16468e-06
-3.53358e-06
-1.04841e-05
1.2205e-06
-3.07177e-06
8.01402e-06
-1.66033e-06
-2.50326e-07
2.47004e-06
-3.96608e-07
-2.89855e-06
-1.69053e-05
-1.06803e-06
1.1318e-06
-2.4759e-07
1.99877e-05
-2.39348e-05
3.87177e-06
0.00022364
-1.55435e-06
-5.01161e-06
-5.58261e-06
-6.6793e-06
-3.54183e-05
-2.43558e-05
0.000142319
-3.75278e-06
-6.61439e-06
0.000101147
-4.65212e-06
-2.39928e-06
-2.44782e-06
-1.05084e-05
-5.99567e-06
-9.14487e-06
-1.7963e-05
2.07658e-06
2.02598e-06
-9.67306e-07
1.1075e-05
-1.3688e-05
-2.73087e-06
3.37709e-06
-4.03483e-06
1.1738e-05
5.33865e-06
-1.6349e-05
-3.86206e-06
9.94555e-05
1.39188e-07
1.00298e-06
3.45995e-07
4.22586e-07
-5.24793e-06
-4.5105e-06
-5.58753e-06
-7.61488e-06
-3.49737e-06
7.39537e-05
-1.00182e-05
-6.28881e-06
-1.50705e-05
-2.83441e-06
-3.11592e-06
-4.30965e-06
-2.1786e-05
-1.58091e-05
1.06755e-06
2.22982e-05
-1.92813e-05
1.87329e-07
7.44038e-06
1.17242e-05
-1.46691e-06
-3.52927e-07
2.72235e-07
-2.1541e-06
-1.70775e-05
-8.18762e-08
-3.62045e-06
-1.58744e-06
1.88699e-05
-4.12193e-05
-1.40899e-05
6.26318e-06
4.90247e-05
-1.22938e-06
-7.5798e-07
7.85132e-07
1.05853e-06
-2.80753e-06
3.58091e-07
3.49671e-06
-1.04946e-06
1.40953e-06
4.12203e-07
-9.20759e-06
2.18922e-07
-1.61685e-06
8.78378e-06
1.13287e-06
-8.65633e-06
-1.32228e-06
2.40304e-06
-1.33223e-06
7.77493e-06
-2.84893e-05
-4.28126e-06
3.38174e-06
4.48319e-06
2.808e-05
-3.17436e-06
-5.22986e-06
-1.5236e-06
-3.33769e-05
-2.65757e-07
4.12218e-07
3.99839e-05
1.93464e-05
1.5172e-05
9.09224e-05
1.26069e-06
8.63323e-07
1.18994e-06
1.25717e-06
-2.53107e-07
-1.28712e-06
-4.26961e-06
-5.16102e-06
2.05317e-05
1.02852e-07
0.000253055
-5.606e-07
-1.99611e-07
1.8482e-06
4.30685e-06
-6.52953e-07
-2.12991e-05
0.000169531
-6.2441e-07
-5.62237e-07
3.96389e-07
-7.00364e-07
-7.2216e-07
3.34633e-06
1.77851e-06
-5.70765e-06
1.12818e-06
-1.76897e-06
5.69467e-06
2.37929e-06
-5.21365e-08
4.13801e-07
-2.74094e-06
-4.5458e-06
-2.29309e-05
2.86308e-06
6.02077e-06
-5.04563e-06
2.36385e-05
-1.0284e-05
-4.8749e-06
0.000257015
-3.26248e-06
-3.29206e-06
1.1922e-06
2.31785e-06
-1.89359e-06
-3.36568e-05
0.000167688
5.49569e-07
-8.6273e-06
0.000106317
9.76617e-07
-1.37398e-06
1.17693e-06
-6.90534e-06
-8.39651e-06
-5.7626e-06
-8.74083e-06
9.55903e-07
1.13775e-07
-1.60127e-06
9.822e-06
-4.71557e-06
-6.07916e-07
-9.56387e-08
-4.71063e-07
7.19545e-07
5.17065e-06
-2.89557e-05
-1.93758e-06
0.000114334
4.27617e-06
2.79142e-06
8.56618e-06
2.67929e-06
-2.72778e-06
-1.69471e-06
-2.75089e-06
-7.53835e-06
-5.99484e-06
9.28246e-05
-2.81195e-05
-5.57981e-06
-1.63215e-05
-7.95048e-06
-4.54027e-06
-5.43863e-06
-2.03761e-05
-3.60803e-06
-1.08447e-05
1.86632e-05
-9.51688e-06
3.22967e-06
-3.77626e-06
1.01087e-05
5.73144e-06
-3.56929e-07
-5.62471e-07
-6.7573e-06
-2.25015e-05
3.54717e-06
-1.43242e-05
2.20839e-07
2.70629e-05
-4.85819e-05
-7.39236e-06
1.90858e-05
3.68922e-05
2.37045e-07
-5.7607e-07
1.58371e-06
-1.24097e-06
3.27155e-06
1.72255e-06
-1.27775e-06
-3.71441e-06
-4.92168e-06
-4.26581e-06
-1.11043e-05
2.42239e-06
3.4783e-06
1.43911e-05
-4.27976e-06
-1.10286e-05
9.30302e-07
-2.03629e-06
-2.58659e-07
1.6673e-05
-2.47286e-05
-1.55496e-06
1.19908e-07
2.99565e-06
2.14477e-05
1.7203e-06
-1.1896e-06
-4.22741e-06
-3.96196e-05
8.17983e-06
-2.85315e-07
3.71422e-05
1.07113e-05
-1.10736e-05
0.000113677
3.7747e-07
1.21055e-06
-2.47624e-07
8.77019e-07
-6.60903e-06
-6.37206e-06
-6.38874e-06
-5.24027e-06
2.58451e-05
-3.30286e-07
0.000217241
4.74662e-06
4.25487e-06
6.18332e-06
5.82509e-06
6.06445e-06
-2.11813e-05
0.000187253
-3.69377e-07
-2.70102e-07
2.49404e-06
2.33427e-06
4.38476e-06
8.81026e-06
5.85584e-06
-9.91523e-06
-1.31911e-06
5.51469e-07
1.67484e-05
2.67629e-06
1.80644e-07
-2.43283e-07
-2.61045e-06
-2.24426e-06
-2.4652e-05
2.87466e-06
3.18492e-06
-4.19385e-06
2.50306e-05
1.54872e-06
-9.11403e-06
0.000243953
2.35819e-07
1.46753e-06
3.2693e-06
4.58103e-06
2.01029e-05
-1.15446e-05
0.000160349
-1.72932e-06
-9.1302e-06
0.000132658
8.73182e-07
-7.14837e-07
1.28839e-06
-4.85101e-06
-8.5227e-06
-4.63251e-06
-1.09228e-05
3.40319e-08
-2.15062e-06
-6.48097e-07
1.19581e-05
1.4232e-06
1.26911e-07
-2.19012e-06
4.87916e-07
-3.61857e-06
3.77066e-06
-9.40708e-06
-2.29492e-07
9.98063e-05
5.59504e-06
1.22119e-06
6.60541e-06
1.2253e-06
-3.05046e-07
-1.69941e-07
8.78422e-07
-5.22459e-07
-1.99139e-06
8.06719e-05
-1.1463e-06
1.6846e-06
-4.42078e-07
-1.04124e-06
-3.85853e-06
-1.48158e-06
-1.91848e-05
1.51628e-06
-8.66747e-06
1.66834e-05
-1.15827e-05
2.76794e-06
-4.58933e-06
1.33828e-05
7.50341e-06
-4.5787e-07
9.10943e-08
-7.41038e-06
-2.9243e-05
3.05264e-06
-3.5489e-06
-3.82445e-06
3.15723e-05
-1.91214e-05
4.16912e-06
3.71446e-06
1.14119e-05
1.24318e-06
-1.92737e-07
4.96855e-07
-1.54503e-06
3.63473e-06
9.08286e-07
-8.01205e-07
-3.74155e-06
-2.12804e-06
-2.56024e-06
-1.55587e-05
1.46561e-06
2.46451e-06
1.63168e-05
-1.31683e-06
-2.13395e-05
1.1392e-06
-1.9652e-06
-2.13415e-06
2.56165e-05
-1.98927e-05
1.80347e-06
-8.77597e-07
-2.44455e-06
1.93899e-05
2.02147e-06
1.21833e-06
-2.72914e-06
-3.44016e-05
6.08269e-06
-1.66783e-06
3.14976e-05
5.90518e-06
-2.11106e-05
0.000139966
5.96207e-07
7.75883e-07
1.86276e-06
2.55219e-06
-5.34517e-06
-4.56339e-06
-4.03177e-06
-2.9299e-06
1.97019e-05
-5.21522e-06
0.000181759
6.24465e-06
6.01504e-06
7.45009e-06
7.19106e-06
9.33483e-06
-1.25937e-05
0.000174306
3.38984e-06
4.00537e-06
5.03746e-06
3.11474e-06
6.7765e-06
7.53767e-06
6.04664e-06
-2.36855e-05
-8.87276e-07
8.09761e-06
-3.38587e-06
2.91959e-05
-3.50614e-07
-6.20758e-09
2.60818e-08
3.30684e-07
2.57386e-06
3.34442e-07
-2.59158e-07
-2.64822e-06
-9.87672e-07
-2.63775e-05
3.33992e-06
8.61272e-07
-3.63679e-06
2.68008e-05
1.81816e-06
-5.96492e-06
0.000215993
1.52967e-06
2.61975e-06
2.76156e-06
4.08527e-06
2.61757e-05
5.48446e-06
0.000125291
1.45158e-06
-4.34165e-06
0.000147101
2.8819e-06
2.72849e-06
2.59647e-06
-1.87126e-06
-2.12968e-06
-2.17745e-06
-1.45514e-05
-3.90818e-07
-1.1703e-06
2.50991e-06
1.50542e-05
4.80949e-10
4.11106e-07
-9.55427e-09
-1.97521e-08
-3.8949e-07
5.09231e-06
3.75569e-08
-1.7212e-06
3.85255e-07
-6.30012e-06
2.50619e-06
1.00452e-05
1.35669e-06
6.47659e-05
2.89018e-06
4.08924e-07
3.52272e-06
1.19273e-06
3.29978e-06
2.40835e-06
3.95096e-06
5.56927e-06
-1.61847e-06
7.58064e-05
3.95388e-06
7.03303e-06
4.7058e-06
6.31538e-08
2.56065e-07
4.32407e-07
-1.392e-05
2.78743e-06
-2.74253e-06
1.51027e-05
-1.4113e-05
2.03628e-06
7.58436e-07
1.13171e-05
7.90988e-06
-4.92359e-07
1.5064e-06
-7.60786e-06
-2.98019e-05
-3.31943e-06
6.61596e-06
-9.15536e-07
2.58024e-05
-9.50261e-06
1.40791e-06
-4.33355e-06
1.24289e-05
1.4528e-06
7.45987e-07
-1.32267e-06
-8.70821e-07
4.02685e-06
1.03198e-06
-1.09706e-06
-3.9591e-06
3.09463e-07
-1.68099e-06
-1.81224e-05
-2.94162e-07
-1.4682e-06
2.12563e-05
4.13597e-06
-2.90906e-05
1.99082e-06
-2.06979e-06
-6.84073e-06
3.18743e-05
-1.92932e-05
2.71802e-06
-7.5967e-07
-4.19927e-06
1.95324e-05
2.00174e-06
2.59384e-06
-8.64428e-07
-2.88265e-05
3.03068e-06
-2.72821e-06
2.67946e-05
-1.85985e-06
-2.66249e-05
0.000155513
3.71908e-06
3.58907e-06
5.23829e-06
5.99873e-06
-2.15633e-06
-2.1522e-06
-7.18759e-07
-5.7962e-07
1.64835e-05
-4.56648e-06
0.000136481
7.69481e-06
6.48362e-06
9.3301e-06
7.99295e-06
7.01695e-06
-5.51774e-06
0.000155866
4.03558e-06
3.62298e-06
5.00849e-06
3.63661e-06
5.13045e-06
6.89727e-06
5.09251e-06
-3.64892e-05
5.85031e-06
9.97362e-06
-1.09847e-06
2.87807e-05
-1.09417e-06
1.07256e-06
-1.99744e-06
-8.2511e-07
-6.55264e-07
3.49942e-06
2.60191e-06
4.22919e-08
-2.74214e-07
-2.37701e-06
1.39927e-07
-2.64676e-05
2.67287e-06
-5.67906e-07
-1.1551e-06
2.53778e-05
7.81004e-07
-2.12771e-07
0.000175872
1.67802e-06
3.26968e-06
3.24395e-06
4.73652e-06
2.38796e-05
1.10912e-05
8.6535e-05
2.35592e-06
-9.64162e-07
0.000151093
3.61728e-06
3.15389e-06
4.39421e-06
5.15031e-08
7.9188e-07
9.69827e-07
-1.94843e-05
-1.25079e-06
-5.88719e-07
1.53971e-06
2.214e-05
7.08293e-07
8.15503e-07
2.04196e-06
-2.65435e-06
-4.49726e-07
-4.61686e-07
5.39654e-06
4.42208e-07
-2.52273e-06
2.99495e-07
-3.9136e-06
2.98085e-07
8.56847e-06
2.64957e-06
3.79386e-05
1.45105e-06
7.63591e-07
1.62448e-06
1.30511e-06
3.47757e-06
3.10874e-06
3.66592e-06
6.21273e-06
1.3506e-06
6.80472e-05
4.2441e-06
6.61002e-06
4.49362e-06
7.86729e-07
2.07771e-06
1.64331e-06
-1.79468e-05
4.92905e-06
-2.10915e-06
2.03755e-05
-9.06061e-06
-4.56822e-06
-1.76664e-06
1.73233e-06
1.36635e-05
-8.8838e-07
6.33377e-07
-9.43538e-07
1.19854e-06
6.47057e-06
-3.43391e-07
1.12091e-06
-4.59846e-06
-2.29604e-05
-2.45864e-06
5.09899e-06
4.33808e-07
2.12368e-05
-1.32897e-05
3.46345e-06
-3.42748e-06
1.32537e-05
9.39395e-09
1.36656e-06
-2.69659e-06
1.31598e-06
3.16541e-06
3.05324e-07
-1.38142e-06
-2.08946e-06
2.1314e-06
1.23488e-07
-2.50124e-05
-1.70882e-06
-4.45038e-06
2.89167e-05
6.78996e-06
-3.40062e-05
2.76649e-06
-2.49159e-06
-8.44739e-06
3.53887e-05
-2.01067e-05
1.475e-06
-6.96523e-07
-3.57261e-06
2.10234e-05
1.87739e-06
2.94427e-06
3.73255e-07
-2.49926e-05
7.99231e-07
-2.30307e-06
2.31789e-05
-6.85249e-06
-2.28439e-05
0.000159074
5.95945e-06
5.66591e-06
6.73541e-06
7.34866e-06
-2.79772e-07
-9.9389e-07
8.02441e-07
8.96722e-07
1.03001e-05
1.1097e-06
9.19013e-05
7.08969e-06
5.60349e-06
7.52495e-06
6.09884e-06
5.94839e-06
-3.77805e-07
0.000136702
3.43377e-06
2.64169e-06
3.80634e-06
2.19514e-06
3.83995e-06
4.59941e-06
3.37695e-06
-3.01685e-05
1.24231e-06
4.51687e-06
-8.92078e-07
3.12498e-05
-5.55301e-06
1.51449e-06
-2.45728e-06
1.37617e-06
-1.79535e-06
6.91497e-06
2.07481e-06
3.01514e-07
-4.56054e-07
-1.92027e-06
1.92218e-06
-2.45938e-05
1.91168e-06
-2.57356e-06
-1.21039e-06
2.45439e-05
-1.11466e-06
7.80204e-06
0.000131072
2.34821e-06
3.94209e-06
3.90447e-06
5.07372e-06
1.56982e-05
6.60041e-06
6.42315e-05
2.16872e-06
7.03631e-07
0.000148117
3.62481e-06
2.54725e-06
3.58961e-06
1.62264e-06
2.10279e-06
1.93701e-06
-2.49983e-05
-1.36118e-06
1.4267e-07
1.86222e-06
2.65233e-05
1.3251e-06
2.55191e-06
1.11305e-06
-1.31185e-06
-2.80721e-06
-8.71013e-07
2.67538e-06
1.10617e-06
-1.41519e-06
1.24348e-07
-2.26244e-06
-2.28263e-07
5.83815e-06
3.06209e-06
2.37503e-05
8.49696e-07
3.25681e-07
1.21169e-06
4.32671e-07
3.62374e-06
3.06674e-06
3.57991e-06
4.14829e-06
1.09624e-06
6.17127e-05
3.03442e-06
4.14636e-06
2.87088e-06
1.21088e-06
8.4193e-07
1.42406e-06
-2.37898e-05
3.89038e-06
-7.54442e-07
2.55058e-05
-1.66849e-05
-1.29547e-06
-1.07072e-06
7.98124e-07
1.82535e-05
-2.50042e-06
-6.15376e-07
-1.45826e-06
1.68489e-06
2.88916e-06
2.71644e-06
-7.24917e-08
1.571e-06
-1.15286e-06
-2.04719e-05
-1.8343e-06
3.63841e-06
3.2223e-07
1.94418e-05
-1.38331e-05
2.71445e-06
-3.43935e-06
1.4558e-05
-2.87754e-06
1.65379e-06
-3.17033e-06
4.39443e-06
5.81896e-07
-1.34714e-06
-4.29707e-07
1.19306e-06
2.8849e-06
1.30434e-06
-3.25426e-05
-2.06073e-06
-4.96541e-06
3.53795e-05
5.71276e-06
-3.71243e-05
2.65108e-06
-2.79632e-06
-7.04521e-06
3.8602e-05
-2.23203e-05
1.42675e-06
-6.70097e-07
-3.02867e-06
2.26844e-05
1.90793e-06
1.91858e-06
1.04538e-06
-2.22226e-05
-1.24354e-06
-1.66359e-06
2.21658e-05
-5.11691e-06
-1.45216e-05
0.000150057
5.94279e-06
5.60901e-06
6.01701e-06
6.55206e-06
7.7885e-07
4.81244e-07
1.46959e-06
1.80487e-06
2.13139e-06
5.87526e-06
6.61014e-05
4.15827e-06
2.64198e-06
3.74994e-06
2.12615e-06
2.09346e-06
1.46766e-07
0.00013034
2.5893e-06
2.28334e-06
2.87375e-06
1.32694e-06
7.07797e-07
-2.22066e-06
-1.30714e-06
-4.11523e-05
4.18424e-06
2.91223e-06
-1.68314e-06
3.78324e-05
-9.96722e-06
-3.26795e-06
3.57204e-06
3.11043e-06
6.5527e-06
1.72382e-06
1.42487e-06
-2.11812e-06
-1.03056e-06
4.03989e-06
-2.54834e-05
2.35216e-06
-4.77077e-06
-2.13317e-06
2.59953e-05
-8.1029e-07
1.00816e-05
9.5353e-05
2.15755e-06
3.29658e-06
2.84425e-06
3.62775e-06
2.38738e-06
3.2843e-06
6.36247e-05
4.64417e-07
1.3495e-06
0.000143599
1.76672e-06
-1.09062e-06
-1.85538e-06
2.31946e-06
2.60647e-06
1.49146e-06
-2.91204e-05
-6.1461e-07
-7.84336e-07
2.17815e-06
2.88056e-05
1.2634e-06
5.45145e-07
1.5229e-06
-1.01229e-06
-1.83204e-06
-4.87111e-07
1.85423e-06
1.22386e-06
-1.50347e-06
3.00456e-07
-1.53608e-06
-3.38995e-07
5.52e-06
2.1718e-06
1.84108e-05
3.68459e-07
-3.78125e-07
4.38364e-07
-5.48993e-07
2.66091e-06
2.40926e-06
2.77936e-06
1.72853e-06
3.76768e-08
6.2696e-05
1.45862e-06
1.92981e-06
1.091e-06
9.03376e-07
-9.68669e-08
7.68858e-07
-2.88907e-05
1.2587e-06
-1.5906e-08
3.07259e-05
-1.62461e-05
-4.81933e-06
1.0318e-06
2.00343e-05
-3.94418e-08
-8.8837e-07
2.48909e-06
6.10516e-07
-1.9324e-05
-2.31685e-06
3.06744e-06
-4.70354e-07
1.90814e-05
-1.53755e-05
1.91612e-06
-2.68124e-06
1.61409e-05
-5.92154e-06
1.58494e-06
-2.58823e-06
6.92483e-06
-2.88663e-06
-1.80673e-06
3.15926e-09
4.68725e-06
3.16505e-06
1.53655e-06
-3.77163e-05
-1.70942e-06
-4.82024e-06
3.95443e-05
4.54774e-06
-3.93616e-05
2.22311e-06
-1.4579e-06
-4.13696e-06
3.81856e-05
-2.24081e-05
1.05994e-06
1.67197e-07
-2.10191e-06
2.2817e-05
4.65825e-07
2.29871e-06
2.38502e-06
-2.30566e-05
-3.04584e-06
-2.6985e-06
2.41172e-05
-1.2719e-06
-8.6125e-06
0.000137704
4.93903e-06
4.52698e-06
4.51799e-06
5.07347e-06
7.10294e-07
7.02827e-07
4.97847e-07
1.26901e-06
-3.24998e-06
5.79645e-06
5.86917e-05
1.60089e-06
2.15548e-07
1.02368e-06
7.51202e-07
-4.2445e-06
-3.59791e-07
0.000135362
2.12629e-06
8.60342e-07
2.98583e-06
1.13323e-06
-4.31422e-06
-2.6422e-06
-3.81629e-06
-3.86224e-05
-2.46714e-06
-1.46679e-06
3.83118e-05
7.85443e-08
1.55788e-06
-2.45763e-06
8.21211e-07
4.51551e-06
-2.53128e-05
3.47453e-06
-4.06125e-06
-2.02281e-06
2.34068e-05
-3.92572e-06
8.65343e-06
7.34708e-05
2.44195e-06
1.73914e-06
2.85803e-06
1.50284e-06
-4.89566e-06
4.61886e-06
6.57723e-05
-3.29297e-06
1.62903e-06
0.000141526
-3.49908e-06
-2.69246e-06
-1.91614e-06
1.284e-06
3.26551e-06
2.03966e-06
-3.88699e-05
-1.78729e-08
-4.99967e-06
1.74964e-06
3.88449e-05
1.10983e-06
1.40749e-06
-1.07394e-06
2.30518e-07
-1.05939e-06
-6.14505e-07
1.8654e-06
1.6241e-06
1.94875e-05
-3.13721e-07
-7.89754e-07
-5.04351e-07
-1.84391e-07
1.92768e-06
1.78245e-06
2.16934e-06
-1.75248e-07
-8.63032e-09
6.77445e-05
-2.4852e-08
6.01969e-07
-3.10337e-07
7.42811e-07
2.75148e-08
5.82526e-07
-3.41979e-05
7.97673e-08
8.36954e-07
3.4735e-05
-2.06368e-05
1.07946e-06
1.86865e-06
1.76887e-05
-1.08531e-06
-1.33451e-06
3.27847e-06
7.65464e-07
-1.94395e-05
-2.87876e-06
2.81508e-06
-8.64981e-07
2.03595e-05
-1.71782e-05
9.70709e-07
-2.07342e-06
1.82809e-05
-7.50351e-06
9.16063e-07
-1.39745e-06
7.98491e-06
-6.6524e-06
-1.85852e-06
2.16262e-07
8.29466e-06
3.17392e-06
1.32751e-06
-4.07693e-05
-1.12015e-06
-4.0149e-06
4.14029e-05
2.81443e-06
-3.69201e-05
6.65396e-07
-7.46019e-07
-2.31379e-06
3.65001e-05
-2.36184e-05
1.55308e-08
-7.25615e-08
-1.63471e-06
2.44647e-05
8.45442e-07
2.18946e-06
1.64969e-06
-2.44175e-05
-8.34576e-07
-3.29578e-06
2.47087e-05
-2.12651e-06
-5.65759e-06
0.000128779
3.82729e-06
3.21066e-06
3.89293e-06
3.9003e-06
3.61305e-07
5.66881e-07
2.88976e-08
9.20385e-07
-5.72344e-06
2.86842e-06
5.59727e-05
6.77468e-07
5.95472e-07
1.20559e-06
9.68961e-07
-1.84773e-06
8.87397e-07
0.00013186
1.46595e-06
4.69124e-07
2.13375e-06
3.8809e-07
-2.45827e-06
-1.30243e-06
-1.9582e-06
-3.75787e-05
-1.36515e-06
-2.96164e-07
3.73923e-05
-1.59464e-06
3.85261e-07
-9.23987e-07
2.13337e-06
2.60126e-06
-2.16927e-05
4.43876e-06
-2.54381e-06
-2.94532e-06
2.01418e-05
-6.24503e-06
8.50221e-06
5.88063e-05
1.74352e-06
8.25081e-07
2.36999e-06
1.81117e-06
-5.74811e-06
6.62812e-06
6.15157e-05
-1.1742e-06
1.79229e-06
0.000131353
-1.02778e-06
-5.5882e-07
-4.76078e-07
1.8616e-06
2.873e-06
2.02184e-06
-3.7129e-05
3.25469e-07
-8.04145e-07
3.72258e-07
3.60612e-05
1.00426e-06
7.44879e-07
-8.68241e-07
-1.11109e-06
-7.83099e-07
1.0133e-06
-1.97793e-06
2.11668e-06
1.90634e-05
-2.83555e-08
6.29527e-07
1.43574e-07
7.84505e-07
2.55533e-06
2.03906e-06
2.66396e-06
-1.4171e-06
6.15929e-07
7.36408e-05
-1.06436e-06
-4.67154e-07
-1.15852e-06
8.1149e-07
7.72816e-07
6.60777e-07
-3.68046e-05
7.02532e-08
1.45249e-06
3.5657e-05
-1.75148e-05
-9.37317e-08
8.24539e-08
1.7526e-05
-4.182e-07
-8.33731e-07
3.15503e-06
2.13575e-07
-2.16347e-05
-2.62145e-06
2.20813e-06
-8.07005e-07
2.34709e-05
-1.93711e-05
2.88002e-07
-1.40732e-06
2.04904e-05
-8.37246e-06
6.11517e-07
-1.00298e-06
8.76392e-06
-9.41354e-06
-1.55796e-06
5.97975e-07
1.03735e-05
2.52685e-06
8.68316e-07
-4.19903e-05
-5.73948e-07
-3.4466e-06
4.26157e-05
1.96079e-06
-3.67612e-05
3.12878e-07
-5.76107e-07
-1.83274e-06
3.68964e-05
-2.53836e-05
-2.59872e-07
5.94603e-07
-1.50306e-06
2.61186e-05
4.3332e-07
2.20454e-06
7.4825e-07
-2.54573e-05
7.81203e-08
-3.73187e-06
2.61582e-05
-2.04376e-06
-5.85382e-06
0.000120011
4.02345e-06
2.98491e-06
4.23148e-06
4.06772e-06
-1.48652e-07
2.53939e-07
-2.18891e-08
1.2752e-06
-8.24262e-06
7.86219e-08
5.85654e-05
8.49921e-07
5.00996e-07
1.40249e-06
7.74126e-07
-1.34151e-06
3.2613e-07
0.000128125
8.58645e-07
-1.21169e-08
1.34608e-06
-2.74976e-08
-2.29293e-06
-1.18077e-06
-2.1828e-06
-3.78021e-05
-2.11883e-06
4.49191e-07
3.81303e-05
-2.43011e-06
-5.20051e-07
1.7894e-07
2.77122e-06
1.12261e-06
-1.90543e-05
4.25538e-06
-2.05616e-06
-2.59923e-06
1.83317e-05
-4.86256e-06
5.50321e-06
4.54394e-05
1.50816e-06
1.26028e-06
2.12796e-06
1.97606e-06
-7.96692e-06
6.35119e-06
5.83475e-05
-1.0253e-06
1.47233e-06
0.000119637
-5.58561e-07
-9.7576e-07
-7.29616e-07
1.73154e-06
2.45129e-06
1.7092e-06
-3.55093e-05
5.72218e-07
-1.13944e-07
7.29136e-08
3.39528e-05
1.31014e-07
1.62907e-07
-1.10175e-06
-1.95532e-06
1.10394e-06
1.65921e-06
-5.21479e-06
2.03524e-06
1.62535e-05
8.86699e-07
1.36658e-06
9.79329e-07
1.48976e-06
2.62501e-06
1.85069e-06
2.29453e-06
-2.20576e-06
1.21958e-06
7.75042e-05
-1.72307e-06
-1.35381e-06
-1.92785e-06
9.8959e-07
1.24753e-06
1.02685e-06
-3.62388e-05
-3.30906e-07
1.59715e-06
3.42392e-05
-1.75139e-05
-1.77794e-07
2.83709e-07
1.7408e-05
1.13817e-07
-3.86565e-07
2.50987e-06
-2.01887e-07
-2.54694e-05
-1.64984e-06
1.23083e-06
-4.46138e-07
2.75542e-05
-2.15746e-05
-3.25085e-07
-6.77515e-07
2.25772e-05
-9.26944e-06
7.51836e-07
-1.29181e-06
9.80941e-06
-1.14425e-05
-1.88281e-06
7.78905e-07
1.25464e-05
2.1574e-06
1.04183e-06
-4.33454e-05
-3.6134e-07
-3.36486e-06
4.38724e-05
2.14038e-06
-3.67011e-05
2.19352e-07
1.94799e-07
-1.63893e-06
3.57855e-05
-2.68042e-05
-7.399e-07
1.30788e-06
-5.13638e-07
2.74147e-05
-6.64891e-07
1.35216e-06
1.08362e-06
-2.67216e-05
-9.31987e-08
-2.81952e-06
2.71985e-05
-7.13837e-07
-8.10248e-06
0.000111455
3.80372e-06
2.77628e-06
4.05194e-06
3.81563e-06
-2.24313e-07
7.89753e-07
3.64105e-07
1.99492e-06
-9.67971e-06
-3.16454e-06
6.62042e-05
9.95045e-07
4.83105e-07
1.75001e-06
1.26345e-06
-1.26913e-06
-1.90287e-06
0.000126556
3.10713e-07
-1.31624e-07
1.04913e-06
-8.20895e-08
-2.61115e-06
-1.16198e-06
-2.31231e-06
-3.84159e-05
-2.55267e-06
1.14712e-06
3.85523e-05
-3.18684e-06
-1.21153e-06
8.15271e-07
3.5831e-06
1.48431e-06
-1.82952e-05
3.19669e-06
-2.91451e-06
-2.39738e-06
1.89261e-05
-5.60704e-06
-1.73334e-06
3.64787e-05
1.99574e-06
1.96418e-06
2.43286e-06
1.80578e-06
-1.11776e-05
2.59067e-06
5.81627e-05
-1.15391e-06
1.11429e-06
0.000104102
-1.00652e-06
-8.34881e-07
-4.90632e-07
1.30044e-06
2.07873e-06
1.44739e-06
-3.19883e-05
7.66354e-07
-1.90237e-07
4.89702e-07
2.97686e-05
-2.51254e-06
-9.47063e-07
-4.67379e-07
-1.37509e-06
3.61203e-06
1.69004e-06
-7.7429e-06
1.41743e-06
1.30439e-05
1.12974e-06
1.84291e-06
4.18175e-07
1.59146e-06
1.31043e-06
9.16246e-07
5.92815e-07
-2.91606e-06
1.13541e-06
7.67737e-05
-2.29319e-06
-2.2704e-06
-2.09507e-06
1.18701e-06
1.31236e-06
1.5182e-06
-3.42415e-05
-1.67702e-06
1.64509e-06
3.24717e-05
-1.70336e-05
-8.78412e-07
1.58578e-06
1.63262e-05
7.83791e-09
5.81214e-07
4.24693e-07
4.03687e-07
-2.94234e-05
-1.91059e-07
-2.93201e-07
-7.07575e-08
3.11138e-05
-2.35468e-05
-1.11994e-06
3.01976e-07
2.43647e-05
-1.03071e-05
7.81308e-07
-1.20857e-06
1.07344e-05
-1.3624e-05
-2.48289e-06
1.50836e-06
1.45985e-05
2.07393e-06
1.65832e-06
-4.43006e-05
-5.84228e-07
-3.33824e-06
4.44908e-05
2.44242e-06
-3.47824e-05
7.66096e-08
6.77851e-07
-2.10813e-06
3.36936e-05
-2.81809e-05
-9.96725e-07
1.58198e-06
-1.57209e-07
2.89483e-05
-1.19543e-06
-5.6504e-08
1.06745e-06
-2.77487e-05
-4.87803e-07
-9.39698e-07
2.81652e-05
-1.53665e-06
-9.60562e-06
0.000103416
3.5978e-06
2.41884e-06
3.95872e-06
3.40384e-06
6.2239e-07
1.65814e-06
1.05614e-06
2.46596e-06
-1.08024e-05
-7.26868e-06
7.49942e-05
1.61156e-06
1.27962e-06
2.6248e-06
2.22851e-06
-1.50225e-06
-5.64964e-06
0.000127441
5.81099e-07
1.54985e-07
1.6544e-06
2.75166e-07
-2.71514e-06
-1.55755e-06
-2.92843e-06
-3.88636e-05
-2.15724e-06
5.4791e-07
3.89707e-05
-3.95302e-06
-1.84635e-06
1.49955e-06
4.29982e-06
1.42993e-06
-2.02808e-05
8.90462e-07
-2.98317e-06
-9.10404e-07
2.1854e-05
-6.4977e-06
-8.55061e-06
3.48719e-05
2.60215e-06
1.28842e-06
2.96059e-06
1.98335e-07
-1.05882e-05
-3.36915e-06
5.83537e-05
-1.484e-06
3.13995e-07
9.16718e-05
-9.44365e-07
-2.04966e-06
-2.03832e-06
9.84975e-07
7.65797e-07
6.44003e-07
-2.81761e-05
9.95671e-07
-7.76916e-07
3.58032e-07
2.61153e-05
-4.19723e-06
-3.75209e-06
1.90548e-06
1.13778e-06
4.52737e-06
3.78675e-07
-6.62156e-06
2.64257e-07
1.33819e-05
-6.90765e-07
8.60363e-07
-1.5975e-06
3.56836e-07
-5.36818e-07
-7.53992e-08
-8.47996e-07
-3.4733e-06
8.94618e-07
7.19345e-05
-1.97613e-06
-2.9171e-06
-1.42274e-06
1.44479e-06
7.29043e-07
1.56932e-06
-3.28568e-05
-2.73453e-06
1.30847e-06
3.11235e-05
-1.55006e-05
-1.67491e-06
2.91934e-06
1.42561e-05
-1.02502e-06
1.37517e-06
-1.7243e-06
1.6384e-06
-3.31798e-05
1.1792e-06
-1.89265e-06
-9.61895e-09
3.47975e-05
-2.50302e-05
-2.01276e-06
1.59886e-06
2.54441e-05
-1.10958e-05
6.04917e-07
-8.74282e-07
1.13652e-05
-1.55106e-05
-2.48932e-06
1.55119e-06
1.64488e-05
2.10372e-06
2.03704e-06
-4.47925e-05
-1.05538e-06
-3.58178e-06
4.52889e-05
2.44197e-06
-3.29292e-05
2.07756e-08
8.5538e-07
-2.78508e-06
3.23961e-05
-2.98778e-05
-7.36326e-07
1.66467e-06
-7.23798e-07
3.07693e-05
-1.09605e-06
-8.95829e-07
9.35801e-07
-2.83926e-05
-5.38661e-07
6.05791e-07
2.82855e-05
-2.23857e-06
-9.78636e-06
9.64619e-05
3.61432e-06
2.46483e-06
3.80663e-06
3.7994e-06
9.43259e-07
1.60508e-06
8.31723e-07
1.91342e-06
-1.04999e-05
-1.13752e-05
8.29626e-05
2.74877e-06
2.09522e-06
3.7517e-06
3.07248e-06
-1.76843e-06
-8.8018e-06
0.000130383
1.39492e-06
4.83614e-07
2.36214e-06
5.76375e-07
-3.14318e-06
-1.86615e-06
-2.67922e-06
-3.92685e-05
-1.07973e-06
-9.65246e-07
3.95451e-05
-4.57576e-06
-2.23215e-06
1.94618e-06
4.86174e-06
2.03841e-07
-2.28252e-05
-1.08164e-06
-1.53764e-06
1.9603e-06
2.32803e-05
-4.10032e-06
-9.79882e-06
3.77958e-05
2.25049e-06
-1.22047e-06
1.98741e-06
-1.82856e-06
-6.70064e-06
-7.94295e-06
5.75218e-05
-1.91247e-06
-9.09349e-07
8.637e-05
-2.52889e-06
-1.32188e-06
-1.73202e-06
-3.37099e-07
-4.94412e-07
-9.6446e-07
-2.31479e-05
2.38454e-06
-2.65363e-08
-9.38739e-07
1.98162e-05
-4.73163e-06
-4.62314e-06
3.959e-06
2.97267e-06
4.44894e-06
-2.02584e-06
-2.71548e-06
-3.45505e-07
1.63393e-05
-2.71859e-06
-6.87895e-07
-3.39117e-06
-9.51442e-07
-8.99295e-07
-5.76977e-07
-4.69909e-07
-3.89767e-06
1.51078e-07
6.65148e-05
-6.75805e-07
-3.02271e-06
-5.64049e-07
1.31826e-06
9.00354e-08
1.36206e-06
-3.08598e-05
-3.31519e-06
3.86956e-07
2.8981e-05
-1.21546e-05
-9.34743e-07
3.33879e-06
9.7505e-06
-2.34081e-06
1.55262e-06
-2.62163e-06
3.06432e-06
-3.60372e-05
1.96876e-06
-3.31261e-06
7.46363e-07
3.67858e-05
-2.55481e-05
-2.13782e-06
2.35941e-06
2.53265e-05
-1.1454e-05
3.61247e-07
-1.80539e-07
1.12733e-05
-1.76052e-05
-1.88084e-06
5.30107e-07
1.8956e-05
1.95984e-06
2.20023e-06
-4.60116e-05
-1.38648e-06
-3.69172e-06
4.69297e-05
2.29031e-06
-3.2382e-05
-9.27649e-08
9.55696e-07
-3.43566e-06
3.26645e-05
-3.17349e-05
-6.66463e-07
1.58853e-06
-7.91812e-07
3.24188e-05
-8.1414e-07
-2.28531e-06
2.11663e-07
-2.74646e-05
1.46196e-06
3.38735e-06
2.46889e-05
-1.15593e-06
-7.03302e-06
9.43357e-05
3.38412e-06
3.09189e-06
3.24458e-06
3.84978e-06
-5.66028e-07
-1.71859e-07
-1.91307e-06
-6.04269e-07
-9.14486e-06
-1.25083e-05
8.99316e-05
3.41203e-06
2.59476e-06
4.16026e-06
3.36125e-06
-1.89644e-06
-8.99734e-06
0.000132474
1.51432e-06
5.55966e-07
2.02797e-06
6.3402e-07
-1.82349e-06
-2.05345e-06
-1.19733e-06
-3.96895e-05
3.55936e-08
-1.89167e-06
3.96491e-05
-4.9943e-06
-2.02711e-06
2.11768e-06
4.90373e-06
-1.18255e-06
-2.32587e-05
-3.76611e-06
1.09805e-06
4.23398e-06
2.28753e-05
1.05331e-06
-7.09083e-06
4.40365e-05
-6.27061e-08
-3.30334e-06
-5.1548e-07
-3.35467e-06
-6.42575e-07
-9.27084e-06
5.59801e-05
1.6623e-08
-1.56766e-06
8.09371e-05
-7.59328e-09
3.82163e-07
5.64556e-07
-1.51053e-06
-7.61727e-07
-1.32286e-06
-1.67868e-05
2.01125e-06
4.52513e-07
-7.47213e-07
1.50868e-05
-4.1873e-06
-3.9163e-06
4.3072e-06
3.04833e-06
4.14367e-06
-3.3956e-06
1.09363e-06
-6.05162e-07
2.13229e-05
-4.11215e-06
-1.64884e-06
-4.14923e-06
-1.45763e-06
-1.868e-07
-8.85269e-07
-1.2292e-07
-3.39278e-06
-1.86521e-07
6.40964e-05
-1.43766e-06