/*--------------------------------*- C++ -*----------------------------------*\
| =========                 |                                                 |
| \\      /  F ield         | OpenFOAM: The Open Source CFD Toolbox           |
|  \\    /   O peration     | Version:  5.x                                   |
|   \\  /    A nd           | Web:      www.OpenFOAM.org                      |
|    \\/     M anipulation  |                                                 |
\*---------------------------------------------------------------------------*/
FoamFile
{
    version     2.0;
    format      ascii;
    class       volVectorField;
    location    "8";
    object      U;
}
// * * * * * * * * * * * * * * * * * * * * * * * * * * * * * * * * * * * * * //

dimensions      [0 1 -1 0 0 0 0];

internalField   nonuniform List<vector> 
10571
(
(0.216992 0.255347 1.14999)
(0.0546236 0.14581 1.01795)
(0.232232 0.39464 1.11174)
(0.29847 0.929663 1.83823)
(0.34389 0.238765 1.34046)
(0.985571 0.480154 2.31891)
(1.58857 0.555031 3.08423)
(-0.971537 0.432649 4.28574)
(0.317897 0.364325 1.18211)
(0.208192 0.485822 1.03778)
(0.076016 -0.29922 1.09875)
(0.380444 -0.688904 1.3366)
(0.424287 -0.897935 2.2833)
(0.263086 -0.090497 1.08494)
(0.758625 0.455011 0.938422)
(0.508152 2.25144 3.24155)
(-0.0644755 -0.235285 1.08222)
(0.205289 -0.332422 0.996752)
(0.703105 0.00815289 0.964696)
(1.82579 0.834212 1.87763)
(-0.368805 0.517242 1.64398)
(0.240222 -0.019669 0.99482)
(1.30326 -0.225607 1.72019)
(1.01222 -0.452895 1.53376)
(0.126641 0.0809254 0.778219)
(-0.00603714 0.0207213 0.770652)
(0.0495676 -0.0113535 1.08181)
(0.101045 0.0332074 1.33712)
(0.144743 0.166156 1.2238)
(0.0087425 -0.281809 1.41035)
(0.767436 0.466491 2.36079)
(0.569935 0.511543 1.88536)
(-0.163817 0.055943 1.15601)
(-0.263964 0.0178416 1.11286)
(0.0663489 0.0714066 0.950611)
(0.0833969 0.142296 1.28921)
(0.271556 0.250972 1.14951)
(-0.199754 -0.164836 1.09935)
(-0.609349 -0.29641 1.52768)
(-0.443485 0.188311 2.06935)
(0.154677 -0.161601 1.0286)
(0.102433 -0.353246 0.624507)
(-0.0611242 -0.242558 0.791482)
(-0.237218 -0.0539969 1.43429)
(-0.862108 1.23838 2.89239)
(0.0837026 -0.370569 0.666663)
(0.44593 -0.313508 1.03888)
(0.575116 0.155708 2.05101)
(0.207355 0.0614552 0.260256)
(-0.190279 0.160397 0.609424)
(-0.143314 -0.209152 1.15754)
(0.474663 -0.0698849 1.269)
(0.739361 0.488902 1.51174)
(-0.363313 -0.0439168 1.34489)
(0.3107 0.469979 2.48401)
(1.12363 1.31175 4.09088)
(-0.776031 -0.440789 1.9036)
(-0.193569 -0.348572 0.960805)
(0.101915 0.0927821 0.328531)
(0.104502 0.17891 1.54715)
(0.129414 1.54353 3.235)
(-1.07992 -0.684893 2.24047)
(-0.590563 -0.669851 1.42777)
(-0.123039 -0.282389 0.90022)
(0.33264 -0.699788 1.38095)
(-0.341646 -1.2014 1.79511)
(-0.554036 -0.386926 1.1111)
(-0.668883 -0.353246 1.46753)
(-0.0604603 0.112205 1.90795)
(0.0486017 -0.0901746 -0.0370796)
(-0.212936 -0.215677 1.30316)
(-0.852176 1.1382 4.56612)
(0.1992 0.0469525 0.39232)
(0.0739597 0.0362906 0.0083353)
(0.001626 -0.252883 0.751941)
(0.248354 -0.20642 0.632624)
(0.402302 0.517476 1.25504)
(-0.11217 0.276585 1.55081)
(0.0487194 -0.0379639 1.49074)
(0.792446 0.578738 2.65008)
(-0.176458 -0.178894 1.84878)
(-0.0482827 -0.198001 0.496377)
(-0.0122712 0.00452058 -0.479857)
(0.409066 -0.237584 0.958549)
(-0.115808 0.718347 2.23636)
(-0.196351 -0.564562 1.40378)
(0.00133334 -0.960606 1.54894)
(-0.0024293 -0.166345 0.614344)
(0.161789 -0.160962 0.158453)
(-0.363786 -0.815894 0.975225)
(-1.14113 -0.9786 1.16652)
(-0.545753 -0.783822 1.25191)
(0.330332 -0.493394 1.28325)
(-0.0127733 0.0410638 -0.518783)
(-1.06561 -0.100731 1.11152)
(-2.47994 0.633107 4.49845)
(0.0996131 0.0289968 -0.220265)
(0.0613442 -0.0800944 -0.277666)
(0.312239 0.449707 0.67587)
(-0.161954 0.423165 0.659183)
(-0.0859497 0.325432 0.941763)
(0.511154 0.16923 1.69784)
(-0.0684305 -0.380904 1.10052)
(0.503798 0.0882126 2.34176)
(0.253 -0.133832 2.0748)
(0.385418 0.0271555 0.6312)
(0.00307607 -0.0278353 -0.43507)
(0.359949 -0.20709 1.08902)
(-0.234471 0.0654718 2.54116)
(0.283416 -0.0887659 1.77941)
(0.203932 -0.755467 1.38312)
(-0.322578 0.0931145 0.334075)
(0.0356298 0.00707968 -0.083983)
(-0.145486 -0.289343 1.24779)
(-0.349226 -0.391643 1.11309)
(0.110276 -1.06832 1.03925)
(0.395896 -0.384044 1.49018)
(0.0290472 0.0721673 -0.624267)
(-0.76916 -0.108785 1.39663)
(-0.488284 -0.361912 1.2066)
(0.0126205 0.0404812 -0.207676)
(0.0542384 0.0403825 -0.279599)
(0.256862 0.287401 0.69659)
(-0.161128 0.21493 1.06515)
(-0.149658 -0.11954 0.820773)
(0.383109 0.0143837 1.5122)
(-0.0846462 -0.418074 1.24574)
(0.304365 -0.215452 2.1649)
(0.365872 -0.215606 2.01638)
(0.593446 0.0307587 1.30335)
(-0.00661202 0.00338426 0.00278197)
(0.00900101 -0.0376445 -0.445207)
(0.224573 -0.216144 1.14743)
(-0.236232 -0.288305 2.45589)
(0.300512 0.0580793 1.63045)
(0.454839 -0.305057 1.48603)
(-0.153071 0.0969923 0.622728)
(-0.00339158 -0.00133766 -0.00166661)
(-0.0228466 0.0255465 -0.293635)
(-0.065563 0.123316 0.846622)
(0.377892 0.110728 0.801336)
(0.38239 -0.295412 0.522367)
(-0.138691 -0.0795597 0.97418)
(0.0741064 0.075532 -0.585499)
(0.390958 -0.173744 1.07575)
(0.265215 -0.0444777 1.31776)
(-0.10033 -0.00109617 -0.171842)
(0.0443851 0.0229074 -0.309541)
(0.137732 0.0127351 0.882123)
(-0.135421 -0.315984 1.36087)
(-0.11809 -0.244134 0.77595)
(0.136429 -0.122126 1.23629)
(-0.245105 -0.499682 1.537)
(0.194136 -0.286804 1.70158)
(0.359937 -0.195216 1.87061)
(0.551975 -0.0446769 1.41717)
(-0.102252 -0.0419499 0.0420335)
(-0.00670864 -9.18152e-05 -0.448879)
(0.0482128 -0.0877621 1.13922)
(-0.243811 -0.361104 2.10436)
(0.269146 0.146636 1.05569)
(0.465407 -0.0235397 1.66914)
(0.0683826 0.184473 0.970798)
(-0.185124 -0.0631679 -0.0149313)
(-0.146369 0.0803953 -0.176915)
(0.00213317 0.336829 0.532529)
(0.297574 0.20397 0.7685)
(0.483165 -0.0657665 0.876364)
(0.0321335 0.0579397 0.807177)
(-0.248561 0.0264345 0.0904076)
(0.0590274 0.0923579 -0.283349)
(0.335414 0.0682523 0.864317)
(0.26509 -0.152978 1.18856)
(-0.120396 -0.0606642 0.0762574)
(-0.000224172 -0.0211687 -0.211407)
(-0.027697 -0.189973 1.17633)
(-0.169198 -0.529732 1.53782)
(-0.0945927 -0.205931 0.820218)
(-0.0336681 -0.202046 1.05397)
(-0.260067 -0.508108 1.64074)
(0.0287187 -0.0996678 1.11361)
(0.304089 -0.140274 1.57641)
(0.413804 -0.0643415 1.57342)
(-0.00333142 -0.0400327 0.214429)
(0.00689137 -0.0245314 -0.279306)
(-0.145665 -0.138048 1.04315)
(-0.229296 -0.233923 1.5049)
(0.178489 0.132449 0.692292)
(0.346054 0.121506 1.69722)
(0.0527921 0.19859 1.19592)
(-0.0931057 -0.137572 -0.100452)
(-0.114992 0.101225 -0.103042)
(0.0674448 0.454433 0.326475)
(0.137834 0.0876276 0.675713)
(0.378138 0.065394 1.10907)
(0.0278426 0.111938 1.07504)
(0.130803 0.180328 0.177453)
(0.066473 0.113945 -0.0891018)
(0.202109 0.091284 0.790965)
(0.292278 -0.116372 1.27926)
(-0.147493 -0.10281 0.506615)
(-0.144891 0.0142425 0.0109319)
(-0.124488 -0.259277 1.49784)
(-0.182616 -0.466648 1.6527)
(-0.0816281 -0.165002 0.912515)
(-0.157502 -0.140502 0.974192)
(-0.209901 -0.45285 1.56167)
(0.0424317 0.122528 0.7249)
(0.0585633 -0.136182 1.42784)
(0.130381 -0.108286 1.70027)
(0.360721 0.277453 0.412563)
(-0.0169769 -0.195797 -0.201561)
(-0.317646 -0.243107 1.18257)
(-0.0240635 -0.016659 1.09917)
(-0.00710812 0.0910746 0.648813)
(0.121971 0.140869 1.62422)
(-0.0429037 0.165295 1.44688)
(-0.129721 -0.136948 -0.151786)
(-0.107998 0.0972605 -0.0792777)
(0.178805 0.315819 0.183533)
(0.0185806 0.0158184 0.633675)
(0.217696 0.119531 1.33945)
(-0.0986218 0.0989003 1.32484)
(0.148882 0.0781584 0.0212392)
(0.212558 0.0130933 0.755553)
(0.250023 -0.0854186 1.41573)
(-0.118862 -0.0925244 0.925039)
(-0.178004 0.0380856 0.253934)
(-0.12487 -0.27102 1.72344)
(-0.159817 -0.342163 1.75472)
(0.00848897 -0.106335 0.893477)
(-0.309663 -0.206613 1.08494)
(-0.06075 -0.375677 1.39867)
(0.0346247 0.133363 0.623592)
(-0.0889365 -0.128058 1.43992)
(-0.160802 -0.0607548 1.86246)
(-0.0279814 -0.217827 0.0726661)
(-0.342421 -0.324506 1.0861)
(-0.0160147 0.113117 0.847988)
(-0.129827 0.0788668 0.677391)
(0.0197479 0.112649 1.50113)
(-0.233159 0.0338198 1.43972)
(-0.0976735 0.0076431 -0.048164)
(0.156643 0.147915 0.209098)
(-0.0905694 0.0614708 0.683022)
(0.102779 0.186339 1.53414)
(-0.0318591 0.110295 1.56426)
(0.209925 0.0837814 0.0576453)
(0.255278 -0.0144598 0.778252)
(0.19291 -0.0476178 1.62185)
(-0.024244 -0.0353232 1.12014)
(-0.162621 0.0645395 0.565282)
(-0.084637 -0.255718 1.79261)
(-0.0444912 -0.226063 1.62426)
(-0.0543987 -0.0683951 0.942394)
(-0.168776 -0.214174 1.08554)
(-0.0816192 -0.304434 1.35695)
(0.00787474 0.0362218 0.57217)
(-0.164053 -0.0519706 1.41243)
(-0.0954634 0.0243809 1.91409)
(-0.0208443 0.00581137 0.280824)
(-0.204587 -0.377123 0.904021)
(-0.0637479 0.133065 0.654244)
(-0.166939 0.0690153 0.653286)
(-0.000423886 0.0790397 1.45722)
(-0.0594367 -0.0578369 1.46233)
(-0.0690765 -0.103864 -0.0373271)
(0.0891378 0.130926 0.203673)
(-0.170011 0.129044 0.754881)
(0.00730717 0.212463 1.59333)
(-0.0039967 -0.0114504 1.57052)
(0.203763 0.138428 0.0210852)
(0.252191 0.0103758 0.888676)
(0.1469 -0.0180768 1.81815)
(0.0270412 -0.0335175 1.23029)
(-0.1215 0.0833523 0.71548)
(-0.0628213 -0.220489 1.88596)
(-0.0347652 -0.148836 1.63908)
(-0.01317 -0.0834144 0.999702)
(-0.0364275 -0.242684 1.14282)
(-0.0351541 -0.27902 1.27062)
(-0.0401974 -0.043018 0.568519)
(-0.211031 -0.0179818 1.37216)
(-0.0475051 0.100499 1.9049)
(-0.024305 0.200435 0.370281)
(-0.108314 -0.302941 0.817485)
(0.021124 0.0788922 0.524178)
(-0.201747 0.045 0.60268)
(-0.0517882 0.0295284 1.36492)
(-0.064954 -0.069693 1.36942)
(-0.0298315 -0.136092 0.0161636)
(0.0341872 0.107226 0.193089)
(-0.241165 0.152856 0.806563)
(-0.0559722 0.194506 1.55687)
(-0.0348934 0.000664467 1.59717)
(0.157606 0.139342 -0.0141259)
(0.18721 0.0489369 1.04802)
(0.103781 0.00955014 2.01238)
(-0.00623445 -0.0536033 1.36141)
(-0.13581 0.074403 0.874308)
(-0.0453833 -0.199558 1.91303)
(-0.0159971 -0.147846 1.58857)
(0.0642154 -0.0227941 1.05924)
(-0.040241 -0.15715 1.1816)
(0.0262439 -0.220497 1.13894)
(-0.0546775 -0.0937735 0.617991)
(-0.24801 -0.0340089 1.344)
(-0.0242589 0.188519 1.93587)
(-0.0169412 0.312348 0.482692)
(-0.168055 -0.193501 0.803445)
(0.000123381 -0.0719031 0.393443)
(-0.208926 -0.0174029 0.577099)
(-0.151161 -0.029286 1.18159)
(-0.0425466 -0.084985 1.21046)
(0.0616082 -0.0535755 0.122327)
(-0.0122003 0.020062 0.153422)
(-0.289646 0.0958598 0.833552)
(-0.125778 0.1717 1.45897)
(-0.0828531 0.0635918 1.52327)
(0.0487245 0.122252 0.00454491)
(0.0934116 0.0572213 1.19458)
(0.0355733 0.0495094 2.18526)
(-0.0151779 -0.0478098 1.50875)
(-0.165743 0.0905732 1.03155)
(-0.0707969 -0.194049 1.94117)
(0.0151144 -0.184244 1.50932)
(0.107243 0.0148366 1.11573)
(-0.0254426 -0.0399728 1.22754)
(0.009226 -0.154572 1.05907)
(-0.0682295 -0.149364 0.709966)
(-0.292489 -0.109309 1.32671)
(-0.0141806 0.174398 1.97501)
(0.00476745 0.386539 0.595726)
(-0.179238 -0.0244227 0.928621)
(-0.0980609 -0.19151 0.345336)
(-0.145034 -0.113139 0.599718)
(-0.204521 -0.091916 1.00059)
(-0.0580641 -0.0792013 1.08697)
(0.205459 0.0905196 0.18088)
(0.00700576 -0.0758674 0.131968)
(-0.265436 -0.000633742 0.790275)
(-0.191495 0.119672 1.4161)
(-0.128834 0.184266 1.37976)
(-0.0786044 0.0602494 0.0660486)
(0.00873283 0.0762351 1.34889)
(-0.0757137 0.124084 2.30935)
(0.0225083 -0.034433 1.61237)
(-0.146962 0.0919833 1.16581)
(-0.101345 -0.203834 1.97242)
(0.0575243 -0.194317 1.42991)
(0.105756 -0.00955708 1.18274)
(-0.00406238 0.0609776 1.24969)
(0.0010863 -0.108467 0.96819)
(-0.0739784 -0.207905 0.789966)
(-0.285734 -0.190975 1.34623)
(-0.032926 0.0975446 1.97518)
(0.00855413 0.390447 0.680516)
(-0.0616405 0.125593 1.03369)
(-0.0849203 -0.2256 0.349442)
(-0.0711538 -0.198766 0.592568)
(-0.161219 -0.123673 0.933748)
(-0.118776 -0.205606 0.842855)
(0.289032 0.198671 0.185502)
(0.0885687 -0.0887877 0.144634)
(-0.195795 -0.0619489 0.732712)
(-0.256277 0.00220303 1.3063)
(-0.15253 0.139039 0.977129)
(-0.129495 0.00377814 0.13297)
(-0.0937021 0.0365992 1.43464)
(-0.13521 0.148875 2.32567)
(0.0692077 0.00220995 1.63431)
(-0.0867231 0.0165574 1.32638)
(-0.133329 -0.20398 2.03622)
(0.084057 -0.210639 1.42477)
(0.0756261 -0.0114685 1.25554)
(0.145765 0.248585 1.17843)
(0.0704053 -0.055135 0.945316)
(-0.101153 -0.233053 0.862116)
(-0.216693 -0.222003 1.38944)
(-0.0739783 -0.0236663 2.00689)
(0.0409024 0.323088 0.722899)
(0.140549 0.327177 1.02316)
(0.0504219 -0.173207 0.401009)
(-0.0149669 -0.214683 0.570675)
(-0.01545 -0.100138 0.889569)
(0.00179053 -0.105763 0.620954)
(0.250515 0.260361 0.162516)
(0.161502 -0.0610391 0.192396)
(-0.116096 -0.0823357 0.693123)
(-0.260362 -0.0802354 1.24111)
(-0.000284727 0.0503639 0.688092)
(-0.143739 -0.0359484 0.196875)
(-0.183447 0.00944125 1.51823)
(-0.192276 0.182342 2.23925)
(0.0636725 0.0459822 1.4675)
(-0.0538703 -0.0569258 1.51787)
(-0.139733 -0.161934 2.12613)
(0.101377 -0.215861 1.49116)
(0.0895331 0.0442724 1.28922)
(0.191974 0.239612 0.835192)
(0.17231 -0.0254338 0.959887)
(-0.165526 -0.211092 0.930605)
(-0.0831556 -0.167423 1.41354)
(-0.0818761 -0.110637 1.98055)
(0.0284002 0.153223 0.59262)
(0.228753 0.326724 0.944966)
(0.222367 -0.044261 0.494063)
(0.0769647 -0.131779 0.56322)
(0.117725 -0.0394725 0.823764)
(0.0671524 -0.071087 0.536006)
(0.167923 0.215237 0.182529)
(0.2127 -0.0218252 0.260689)
(-0.000711924 -0.0978171 0.641717)
(-0.102412 -0.0508656 1.2029)
(-0.00355986 0.0623272 0.679565)
(-0.190847 -0.0724663 0.274854)
(-0.22434 0.112183 1.5806)
(-0.277058 0.233245 2.14739)
(0.116351 0.0134818 1.27707)
(-0.0448044 -0.0172169 1.64174)
(-0.138651 -0.0987747 2.19786)
(0.0493495 -0.196941 1.57536)
(0.124962 0.134627 1.26623)
(0.177816 0.130164 0.683293)
(0.217877 -0.0241762 0.998866)
(-0.213653 -0.157281 0.976176)
(0.00701092 -0.0368102 1.36183)
(-0.0610952 -0.108461 2.00055)
(0.0448549 0.107224 0.327796)
(0.250171 0.0774003 0.816822)
(0.301833 0.0440539 0.530296)
(0.208707 0.0149372 0.569809)
(0.186807 0.0258843 0.820437)
(0.0667058 -0.0351492 0.541035)
(0.116028 0.0820575 0.1949)
(0.252324 0.017296 0.340124)
(0.120945 -0.0788034 0.599527)
(0.165978 0.0206407 1.09366)
(-0.027393 0.0817881 0.811666)
(-0.232035 -0.101133 0.382036)
(-0.204612 0.12847 1.53618)
(-0.264639 0.223119 2.14815)
(0.152547 -0.029362 1.24694)
(0.0579589 0.129112 1.50338)
(-0.1146 -0.000395604 2.29557)
(-0.0104624 -0.116016 1.66111)
(0.134756 0.176614 1.23785)
(0.0793841 -0.181861 0.730566)
(0.238571 -0.0139532 1.04293)
(-0.190149 -0.105592 1.00462)
(-0.0180686 0.080664 1.27745)
(-0.00989886 -0.0974393 2.00873)
(0.0227067 0.0453987 0.165434)
(0.0263518 0.0344224 0.46671)
(0.348139 0.0986514 0.490796)
(0.287142 0.125018 0.57886)
(0.220618 0.068275 0.870878)
(0.0323811 0.00800662 0.634002)
(0.0856746 -0.0369151 0.192316)
(0.273076 0.0509726 0.395361)
(0.204887 -0.027552 0.586775)
(0.29023 0.0713199 1.0144)
(-0.00592485 0.0751168 1.00287)
(-0.244181 -0.0965026 0.499083)
(-0.28529 0.0580295 1.4057)
(-0.247582 0.199417 2.22408)
(0.180902 -0.0327435 1.22137)
(0.0364496 0.128879 1.43071)
(-0.105416 0.0737619 2.3293)
(-0.0639903 -0.0544344 1.78326)
(0.10523 0.175224 1.24534)
(-0.152437 -0.23447 0.702538)
(0.263265 -0.0374784 1.08201)
(-0.164295 -0.0609047 1.05445)
(-0.0942223 0.137518 1.20897)
(0.0372878 -0.0371702 2.04428)
(0.00938694 0.12491 0.0568795)
(-0.0429757 -0.0266263 0.263291)
(0.35825 0.09304 0.397235)
(0.291552 0.181347 0.582064)
(0.21047 0.0648886 0.946103)
(0.0363746 -0.00472351 0.821856)
(0.0740698 -0.100367 0.180378)
(0.268679 0.0581746 0.398582)
(0.217636 0.0402189 0.616371)
(0.377335 0.075288 1.04771)
(0.0432731 0.0457489 1.2555)
(-0.236539 -0.0816013 0.59137)
(-0.333468 0.00910196 1.10711)
(-0.0792883 0.0773746 2.38674)
(0.230842 -0.0431838 1.21489)
(-0.0635142 0.133436 1.52479)
(-0.0847689 0.141081 2.2969)
(-0.124755 0.0884121 1.83507)
(0.100118 0.156606 1.30399)
(-0.270675 -0.196898 0.686024)
(0.252718 -0.0566485 1.08926)
(-0.187222 -0.0219402 1.13455)
(-0.18019 0.132725 1.16258)
(0.052577 0.0163604 2.02385)
(0.0110888 0.211431 0.0181477)
(-0.0232722 0.0216567 0.210619)
(0.300475 0.0462796 0.298657)
(0.231574 0.214217 0.60296)
(0.124507 0.0309911 1.03667)
(0.0713326 -0.0716099 1.05268)
(0.079371 -0.11418 0.187083)
(0.202045 0.054051 0.39602)
(0.194132 0.0937519 0.657361)
(0.448163 -0.0667779 1.14512)
(0.0808717 -0.0278503 1.53466)
(-0.219257 -0.095758 0.602689)
(-0.255638 0.0443071 0.864367)
(0.0563289 -0.0197902 2.58045)
(0.314512 0.00300014 1.1508)
(-0.202105 0.206478 1.59837)
(-0.13349 0.188263 2.20734)
(0.0262925 0.161528 1.80239)
(0.121602 0.0968228 1.32741)
(-0.234155 -0.164657 0.776747)
(0.0966812 -0.0506231 1.09385)
(-0.194898 -0.00971709 1.20845)
(-0.258389 0.0781691 1.12993)
(0.0131221 0.115436 1.98881)
(0.014377 0.286229 0.00905864)
(0.0271716 0.0825749 0.163458)
(0.223974 0.0445131 0.25944)
(0.125769 0.259739 0.641996)
(-0.0153599 0.0146275 1.09713)
(0.0917616 -0.142726 1.2419)
(0.0829836 -0.111938 0.215358)
(0.113994 0.0674522 0.391082)
(0.169131 0.147297 0.68405)
(0.421613 -0.156742 1.22121)
(0.150658 -0.173553 1.77465)
(-0.199721 -0.124364 0.559015)
(-0.133853 0.0723239 0.797793)
(0.321372 -0.104356 2.61995)
(0.19497 0.0203305 1.09999)
(-0.294782 0.242071 1.61857)
(-0.0490003 0.252197 2.13319)
(0.0614455 0.144128 1.67864)
(0.11918 0.00946485 1.28776)
(-0.127535 0.0635863 0.913982)
(-0.162458 0.0355367 1.1265)
(-0.169673 -0.0282331 1.23031)
(-0.273016 -0.00732495 1.10406)
(-0.148277 0.0897376 1.71357)
(0.0142844 0.343382 0.048574)
(0.0515094 0.158154 0.149933)
(0.162993 0.0858442 0.274968)
(0.040857 0.290186 0.666319)
(-0.15531 0.00798924 1.12368)
(0.072226 -0.253924 1.34148)
(0.0749782 -0.103562 0.263016)
(0.0540323 0.109067 0.400442)
(0.127676 0.188036 0.719546)
(0.260683 -0.22281 1.31965)
(0.207249 -0.348285 1.9882)
(-0.181387 -0.126253 0.511602)
(-0.0140238 0.0723256 0.837125)
(0.350877 -0.186983 2.303)
(-0.0323456 0.0149768 1.05469)
(-0.313396 0.29122 1.51289)
(0.00769487 0.270835 2.04407)
(0.0846341 0.150758 1.44983)
(0.0372867 -0.0728592 1.29869)
(-0.0433229 0.263523 1.0216)
(-0.213554 0.136009 1.12534)
(-0.0939849 -0.0459156 1.21854)
(-0.198092 -0.058838 1.0894)
(-0.0949459 -0.134388 1.51692)
(0.0150497 0.383346 0.146037)
(0.05545 0.2158 0.20026)
(0.126083 0.137541 0.325419)
(-0.0126297 0.286444 0.692549)
(-0.250808 0.00746294 1.15392)
(0.0347526 -0.410664 1.2834)
(0.0464804 -0.0986077 0.334136)
(-6.33927e-06 0.155709 0.435099)
(0.0543103 0.197971 0.79364)
(-0.00860855 -0.340607 1.35489)
(0.242013 -0.453508 2.04156)
(-0.158004 -0.0994181 0.486542)
(0.0109266 0.044989 0.854156)
(0.260199 -0.193956 1.98916)
(-0.129622 -0.00670159 0.964957)
(-0.118013 0.272056 1.32241)
(-0.16657 0.273147 1.90552)
(0.134243 0.124204 1.30804)
(-0.0513916 -0.0949519 1.31418)
(-0.0154718 0.34936 1.03743)
(-0.111994 0.238189 1.08581)
(0.0604514 0.00968605 1.1416)
(-0.0451014 -0.0782424 1.10496)
(-0.078555 -0.12171 1.55422)
(0.0146393 0.397944 0.291373)
(0.054825 0.224684 0.29944)
(0.108401 0.177271 0.402516)
(-0.0381257 0.2357 0.742163)
(-0.274016 0.0260596 1.18634)
(0.0364978 -0.436688 1.17298)
(-0.00368356 -0.0933114 0.42614)
(-0.0593652 0.183214 0.49534)
(-0.0364591 0.197324 0.892865)
(-0.142048 -0.312851 1.41065)
(0.189873 -0.37459 2.10462)
(-0.138672 -0.0529914 0.500663)
(-0.0108712 0.00774986 0.854173)
(0.195769 -0.128837 1.41726)
(-0.141728 -0.0435006 0.946038)
(-0.0346258 0.137717 0.976824)
(-0.231693 0.219468 1.79569)
(0.00412799 -0.0499361 1.29467)
(-0.0861927 -0.0667454 1.26228)
(-0.133545 0.408367 0.845659)
(0.10429 0.339554 0.952172)
(0.119754 0.082066 1.05651)
(0.0332537 -0.0722213 1.16527)
(-0.0956929 0.0360184 1.59782)
(0.0125116 0.364856 0.4562)
(0.071142 0.185604 0.427809)
(0.0972287 0.189492 0.496585)
(-0.0463195 0.162461 0.799024)
(-0.252391 0.0105355 1.18901)
(0.0931579 -0.199288 1.16735)
(-0.0651082 -0.092451 0.530271)
(-0.134117 0.187302 0.572158)
(-0.159887 0.19622 0.949112)
(-0.238238 -0.127147 1.57658)
(-0.157455 -0.128163 1.57524)
(-0.141167 -0.0197705 0.548695)
(-0.0265474 0.0163037 0.839345)
(0.270517 -0.154446 1.01379)
(-0.0441655 -0.0602957 1.03721)
(-0.20015 0.0944471 0.742006)
(-0.132908 0.131449 1.86823)
(0.00544719 -0.115301 1.30343)
(0.0208409 -0.0400356 1.22467)
(-0.165473 0.41757 0.631332)
(0.199738 0.383266 0.816013)
(0.091675 0.110703 1.01301)
(0.0202822 -0.0372092 1.23722)
(-0.0331334 0.109872 1.5167)
(0.00660511 0.303486 0.598499)
(0.0952371 0.124109 0.57045)
(0.0745795 0.198781 0.603031)
(-0.0614663 0.117347 0.852769)
(-0.2168 -0.0408936 1.09121)
(0.0708717 0.0586445 1.24093)
(-0.121771 -0.0984107 0.646109)
(-0.209505 0.176682 0.664961)
(-0.280548 0.174986 0.952267)
(-0.204411 0.16266 1.62636)
(0.0460898 -0.0460017 0.920522)
(-0.165987 -0.00783054 0.631037)
(-0.11047 0.0679465 0.844211)
(0.154433 -0.063044 0.922869)
(0.021148 -0.0424394 1.19835)
(-0.168695 0.138709 0.642791)
(0.189014 -0.135016 1.66036)
(0.304093 -0.0737232 1.29546)
(0.11987 -0.0533396 1.28047)
(-0.0995054 0.342235 0.570723)
(0.158631 0.370542 0.74798)
(0.0566593 0.118578 1.02429)
(-0.0680409 0.0628555 1.3034)
(-0.0157785 0.135024 1.43611)
(0.00417988 0.239655 0.720388)
(0.11334 0.080935 0.700802)
(0.0318627 0.226946 0.713984)
(-0.0736404 0.138339 0.902593)
(-0.199848 -0.00342648 1.00991)
(0.0236781 0.136983 1.29634)
(-0.160302 -0.109944 0.769582)
(-0.243645 0.166469 0.77551)
(-0.316609 0.145049 0.944043)
(-0.269549 0.111757 1.38507)
(0.098357 -0.0722013 0.839879)
(-0.195835 -0.013193 0.755824)
(-0.233456 0.10664 0.916304)
(-0.255922 0.199608 1.14262)
(-0.0277975 -0.0164249 1.2716)
(-0.146842 0.161647 0.560365)
(0.0612773 0.0523715 1.05718)
(0.243359 0.0152615 1.27943)
(0.0356467 -0.020611 1.37529)
(-0.0707271 0.282592 0.561705)
(0.0548805 0.290494 0.754953)
(-0.0160638 0.150566 1.05838)
(-0.141379 0.158308 1.28276)
(0.0449065 0.183195 1.36208)
(0.00236368 0.192125 0.816909)
(0.129292 0.0609329 0.811565)
(-0.00991013 0.230659 0.809662)
(-0.0607894 0.195003 0.952942)
(-0.168813 0.126858 1.00829)
(-0.0127757 0.168713 1.2703)
(-0.175032 -0.118361 0.892495)
(-0.226909 0.168744 0.892001)
(-0.282021 0.141141 0.955672)
(-0.230908 0.0748337 1.09005)
(-0.0309516 0.0973096 0.939917)
(-0.212637 -0.0266467 0.907374)
(-0.280831 0.113475 1.03573)
(-0.329502 0.194548 1.20342)
(-0.0380312 -0.00671501 1.24754)
(-0.175778 0.174997 0.516109)
(-0.184104 0.20359 0.708613)
(-0.0720498 0.133527 1.24142)
(-0.0108408 0.0410208 1.29575)
(-0.0878506 0.250315 0.577006)
(-0.0281814 0.230613 0.802869)
(-0.0681997 0.20039 1.0742)
(-0.11822 0.198317 1.22306)
(0.0542269 0.209697 1.30847)
(0.00377467 0.164089 0.905851)
(0.137985 0.0560259 0.904777)
(-0.0266931 0.233386 0.885246)
(-0.0446515 0.24017 0.984313)
(-0.105377 0.20206 1.03108)
(-0.0449252 0.247645 1.16548)
(-0.169782 -0.11963 1.00799)
(-0.184759 0.183592 0.992154)
(-0.18111 0.180978 0.998712)
(-0.150365 0.154823 1.01702)
(-0.0939382 0.174795 0.989855)
(-0.217265 -0.0404522 1.0582)
(-0.256026 0.112584 1.13927)
(-0.260554 0.154019 1.18253)
(-0.181365 -0.00639176 0.950456)
(-0.188795 0.171373 0.532278)
(-0.278915 0.190825 0.591372)
(-0.177342 0.279676 1.03132)
(0.044836 0.119544 1.08522)
(-0.113264 0.22016 0.624443)
(-0.110685 0.206909 0.82553)
(-0.101374 0.234969 1.08026)
(-0.043211 0.236274 1.15351)
(-0.0082268 0.188852 1.18869)
(0.00804134 0.152855 0.984893)
(0.136837 0.0654376 0.986795)
(-0.0220791 0.244941 0.951598)
(-0.0480554 0.260596 0.992552)
(-0.0426879 0.23084 1.05795)
(-0.0427596 0.223987 1.10556)
(-0.151613 -0.116294 1.11175)
(-0.145478 0.196617 1.07822)
(-0.110679 0.220853 1.04575)
(-0.0797732 0.196928 1.04567)
(-0.0847871 0.14145 1.03109)
(-0.214251 -0.0465039 1.19482)
(-0.206581 0.11486 1.22058)
(-0.180584 0.119734 1.19569)
(-0.234519 -0.0251239 0.696252)
(-0.185664 0.143475 0.5886)
(-0.271915 0.130864 0.561297)
(-0.215663 0.127512 0.787554)
(-0.0252952 0.0738074 0.879441)
(-0.161382 0.181447 0.703356)
(-0.195827 0.187306 0.83075)
(-0.124473 0.26477 1.04758)
(-0.0247566 0.27611 1.08621)
(-0.0302578 0.164519 1.07955)
(0.0126011 0.169326 1.0586)
(0.122125 0.0917425 1.06935)
(-0.0303673 0.238045 1.01044)
(-0.0605403 0.261226 0.98856)
(-0.000247284 0.239641 1.07868)
(-0.03394 0.146784 1.0957)
(-0.124203 -0.110478 1.20885)
(-0.112615 0.189004 1.16632)
(-0.0720658 0.223962 1.09117)
(-0.0293784 0.212091 1.09588)
(-0.0593 0.102833 1.05455)
(-0.200891 -0.0468073 1.31527)
(-0.172691 0.12183 1.30752)
(-0.153758 0.110484 1.25631)
(-0.267117 -0.0275154 0.554899)
(-0.154652 0.0965307 0.692829)
(-0.260371 0.0634234 0.549276)
(-0.228252 -0.00555608 0.586215)
(-0.0200902 0.041685 0.663967)
(-0.217691 0.155953 0.784321)
(-0.268075 0.125809 0.807803)
(-0.117542 0.262702 0.965103)
(-0.0240247 0.269809 1.03207)
(-0.0352204 0.216161 1.03222)
(0.0156194 0.213526 1.14271)
(0.101969 0.119419 1.16059)
(-0.057867 0.198805 1.08259)
(-0.0873379 0.228196 0.973212)
(0.0323595 0.206329 1.10311)
(-0.0253779 0.0921432 1.11547)
(-0.09401 -0.101196 1.30329)
(-0.0752423 0.15457 1.24152)
(-0.0387098 0.186108 1.13928)
(0.00480751 0.204761 1.14681)
(-0.0471982 0.0902336 1.07709)
(-0.179234 -0.0419027 1.41744)
(-0.149757 0.113642 1.40649)
(-0.149108 0.109196 1.34514)
(-0.215596 -0.0144571 0.494471)
(-0.132696 0.0685152 0.826011)
(-0.256411 -0.0281244 0.560144)
(-0.232188 -0.0190004 0.445269)
(-0.0189209 0.020228 0.430068)
(-0.27283 0.125388 0.863548)
(-0.309365 0.0264449 0.751666)
(-0.127645 0.181101 0.840495)
(-0.0284921 0.213674 1.02262)
(-0.0424275 0.174207 1.00814)
(0.0190276 0.258433 1.23457)
(0.102566 0.116674 1.27202)
(-0.0799429 0.145059 1.15218)
(-0.0801307 0.165999 0.946982)
(0.0551626 0.132622 1.11443)
(-0.0108241 0.0326833 1.14434)
(-0.0632756 -0.095052 1.38432)
(-0.0529137 0.107277 1.29055)
(-0.00426346 0.139553 1.17222)
(0.0387586 0.173567 1.19226)
(-0.0500248 0.0911286 1.09596)
(-0.155264 -0.0382139 1.49461)
(-0.1275 0.0853272 1.4959)
(-0.132882 0.0972307 1.43865)
(-0.118319 -0.00091638 0.413589)
(-0.142615 0.080448 0.984134)
(-0.256553 -0.0989374 0.571751)
(-0.206518 -7.30659e-05 0.377107)
(-0.083476 -0.0149325 0.253436)
(-0.298158 0.0757417 0.94233)
(-0.308545 -0.0649712 0.682041)
(-0.183796 0.0700348 0.711412)
(-0.0319939 0.0694675 0.992569)
(-0.0465099 -0.0319585 0.968999)
(0.0147684 0.283757 1.3299)
(0.112365 0.0908661 1.36621)
(-0.092744 0.106298 1.18492)
(-0.0137266 0.115831 0.898169)
(0.0677116 0.0652309 1.09367)
(0.0318372 -0.0228135 1.13899)
(-0.0470074 -0.0953513 1.44899)
(-0.0632379 0.0741951 1.31207)
(0.0134058 0.111439 1.17479)
(0.0776494 0.133322 1.22586)
(-0.0570266 0.0947405 1.09871)
(-0.132579 -0.0254321 1.54178)
(-0.102839 0.051668 1.56534)
(-0.112429 0.0986191 1.52842)
(-0.0402162 0.00227737 0.337908)
(-0.151345 0.107141 1.10868)
(-0.221026 -0.130245 0.604983)
(-0.178419 0.00872402 0.342441)
(-0.113753 -0.0306318 0.185862)
(-0.269877 0.0341949 1.02482)
(-0.279964 -0.123376 0.622717)
(-0.249708 -0.00350492 0.600091)
(-0.0488752 -0.0665668 0.927588)
(-0.0389311 -0.119644 0.944209)
(0.012487 0.248794 1.43216)
(0.124904 0.0218017 1.43572)
(-0.0991054 0.097945 1.18036)
(0.0609926 0.0826589 0.821023)
(0.0733309 0.040459 1.04717)
(0.0642541 -0.050759 1.11138)
(-0.0500296 -0.100849 1.50477)
(-0.0915964 0.0654062 1.31855)
(0.00436701 0.0968541 1.15986)
(0.108636 0.106099 1.23662)
(-0.0581742 0.0950227 1.09542)
(-0.120067 -0.0063663 1.56926)
(-0.0823234 0.0406981 1.61584)
(-0.0861244 0.0822242 1.66379)
(0.0305941 0.00509386 0.296482)
(-0.139673 0.0900811 1.19872)
(-0.127804 -0.125688 0.690844)
(-0.131824 0.0122929 0.328577)
(-0.0965068 -0.0170639 0.195055)
(-0.153751 -0.0290489 1.12053)
(-0.235738 -0.149147 0.5891)
(-0.295022 -0.0214815 0.52186)
(-0.094558 -0.131046 0.839589)
(-0.0257743 -0.130798 0.926349)
(0.0102645 0.165735 1.48431)
(0.112456 -0.0594464 1.4706)
(-0.12717 0.0970926 1.13735)
(0.0882312 0.0710099 0.73797)
(0.0685004 0.0396481 0.990958)
(0.0716891 -0.0601915 1.07777)
(-0.0566364 -0.10697 1.54903)
(-0.11058 0.0636878 1.32338)
(-0.0452639 0.037741 1.11734)
(0.120641 0.0968249 1.23406)
(-0.0510713 0.0819121 1.10951)
(-0.103504 0.0168596 1.59515)
(-0.0708967 0.0504741 1.63889)
(-0.00983992 0.00246894 1.80606)
(0.0979713 0.00702797 0.273548)
(-0.0958021 0.0695318 1.25255)
(-0.00526221 -0.113579 0.807362)
(-0.0421271 0.0195397 0.344285)
(-0.0344526 0.0300479 0.245908)
(-0.0081651 -0.10254 1.21518)
(-0.175675 -0.133613 0.597041)
(-0.311598 -0.0034378 0.480481)
(-0.149028 -0.106912 0.731818)
(-0.0125725 -0.136752 0.915011)
(0.00152141 0.0654935 1.52909)
(0.103585 -0.12938 1.48974)
(-0.190756 0.0424461 1.05145)
(0.0579507 0.0869115 0.675578)
(0.0483707 0.0282036 0.940713)
(0.0620446 -0.0823878 1.04346)
(-0.0651779 -0.105205 1.57871)
(-0.108735 0.0566331 1.32782)
(-0.0912889 -0.069761 1.02249)
(0.134664 0.0578979 1.22856)
(-0.0233963 0.0412781 1.15094)
(-0.0799483 0.0460047 1.62243)
(-0.0562214 0.0526827 1.64271)
(0.0657375 -0.044351 1.8434)
(0.157542 0.00802585 0.279494)
(-0.0786636 0.0874554 1.2237)
(0.101847 -0.104332 0.906469)
(0.066564 0.0310375 0.380847)
(0.0401973 0.0715693 0.303557)
(0.0908986 -0.190665 1.30839)
(-0.0826125 -0.0705596 0.639708)
(-0.302104 0.0315622 0.470222)
(-0.177578 -0.039234 0.63945)
(-0.0112341 -0.137705 0.911227)
(0.000696692 -0.0374664 1.53559)
(0.0417023 -0.180456 1.49685)
(-0.195846 -0.0331565 0.991595)
(0.007115 0.120401 0.646573)
(0.0176256 0.000931164 0.911738)
(0.0600082 -0.124976 1.01242)
(-0.0697891 -0.0968722 1.59512)
(-0.0991727 0.0167186 1.32369)
(-0.0728819 -0.10688 0.929599)
(0.133008 -0.0196416 1.23226)
(0.0371372 -0.0512934 1.19277)
(-0.0581243 0.0527529 1.65537)
(-0.0310747 0.0341228 1.62365)
(0.0925827 -0.0420885 1.7949)
(0.199565 0.00714921 0.317132)
(0.0297579 -0.00445183 1.15217)
(0.189889 -0.0834334 0.956658)
(0.150494 0.0312597 0.413207)
(0.098617 0.0962052 0.351364)
(0.115563 -0.261892 1.3715)
(0.0352789 0.0163765 0.695077)
(-0.259291 0.0707722 0.488849)
(-0.166587 0.0216838 0.583329)
(-0.0324609 -0.132188 0.929152)
(-0.00780549 -0.118783 1.50666)
(0.00509113 -0.194042 1.49476)
(-0.135581 -0.0725677 0.960559)
(-0.0186982 0.154287 0.649469)
(-0.0145562 -0.0138671 0.909038)
(0.0744438 -0.1789 1.00334)
(-0.0802534 -0.103253 1.60299)
(-0.141651 -0.0432292 1.28926)
(-0.0340868 -0.0719747 0.862986)