/*--------------------------------*- C++ -*----------------------------------*\
| =========                 |                                                 |
| \\      /  F ield         | OpenFOAM: The Open Source CFD Toolbox           |
|  \\    /   O peration     | Version:  5.x                                   |
|   \\  /    A nd           | Web:      www.OpenFOAM.org                      |
|    \\/     M anipulation  |                                                 |
\*---------------------------------------------------------------------------*/
FoamFile
{
    version     2.0;
    format      ascii;
    class       volVectorField;
    location    "8";
    object      Us;
}
// * * * * * * * * * * * * * * * * * * * * * * * * * * * * * * * * * * * * * //

dimensions      [0 1 -1 0 0 0 0];

internalField   nonuniform List<vector> 
10571
(
(-0.00581892 0.0291765 -0.00213354)
(0.0388255 -0.0370436 0.0523342)
(-0.00192714 0.0550017 0.104592)
(-0.0502318 0.120128 0.109929)
(0.0630974 0.0777465 0.0917229)
(0.0977245 -0.265945 0.0623191)
(-0.0240059 -0.256027 0.102189)
(-0.0251041 -0.166852 0.137783)
(0.109304 -0.065562 0.0319547)
(0.0935702 0.0483038 0.0929617)
(-0.0201101 -0.19415 0.0286397)
(0.0106498 -0.265982 0.00768528)
(0.077157 -0.280907 0.0783018)
(0.0715664 -0.133017 -0.0322331)
(0.184262 -0.0461234 -0.107909)
(0.134651 0.0738607 0.0881763)
(-0.0256385 -0.112302 -0.0472252)
(0.0687051 -0.151808 -0.135336)
(0.213493 -0.0533593 -0.102028)
(0.307665 0.1253 0.0304479)
(0.0490429 0.0377222 0.0461068)
(0.101138 0.00522844 -0.105056)
(0.334028 0.0179068 0.0292619)
(0.217436 -0.0651433 0.106849)
(0.0479911 0.0216186 -0.0717573)
(0.0314434 -0.0105683 0.0314587)
(0.0670368 -0.0312461 0.269358)
(-0.0159773 0.0760639 0.25024)
(0.0401814 0.0989778 0.0873298)
(0.144754 -0.113635 0.168036)
(0.0618035 -0.236319 0.307421)
(0.0653716 -0.0983929 0.212279)
(0.0409125 -0.0353946 0.0622575)
(0.0204578 -0.0137953 0.263137)
(0.0124779 -0.0275258 -0.0172167)
(0.100786 -0.138221 0.087326)
(0.0362397 -0.141084 0.0137594)
(0.0276715 -0.148908 -0.173785)
(0.0851651 -0.125496 -0.0226917)
(0.0914557 -0.0881126 0.241906)
(0.0414022 -0.122501 -0.170256)
(0.0472838 -0.113194 -0.257983)
(0.110553 -0.0698141 -0.139538)
(0.154785 -0.0482547 0.0849689)
(0.0775117 -0.053142 0.183592)
(0.0497367 -0.048846 -0.303633)
(0.223421 -0.0608527 -0.0785398)
(0.228943 -0.0479978 0.236812)
(0.11482 0.0258734 -0.217776)
(0.0140668 0.0461046 -0.0791631)
(0.0417945 -0.139859 0.455059)
(0.1077 -0.0566231 0.427221)
(0.0770881 0.0430516 0.0349158)
(0.0617856 -0.0972579 0.195922)
(0.0716964 -0.212016 0.416336)
(0.117475 -0.0110605 0.208638)
(-0.0558956 -0.135337 0.19427)
(-0.0475846 -0.151687 0.361684)
(0.0367468 0.0277733 -0.241229)
(0.0641075 0.0244395 0.0483198)
(0.036218 -0.0376452 -0.0914089)
(0.0713463 -0.0038076 -0.502558)
(0.0309992 -0.207992 0.256831)
(0.0297692 -0.207136 0.341767)
(0.0437407 -0.0655314 -0.436077)
(0.0398251 0.00571763 -0.480691)
(0.0575815 -0.0511727 -0.21991)
(0.0986021 -0.132633 0.244563)
(0.0666586 -0.155894 0.324834)
(0.0636953 -0.0311461 -0.461571)
(0.114246 -0.0527936 -0.0393716)
(0.0720894 0.00812596 0.438598)
(0.118353 -0.0256888 -0.307986)
(0.0212821 -0.0233518 -0.654524)
(0.0342841 -0.252486 0.486096)
(0.200656 -0.220597 0.364867)
(0.088616 0.0325379 -0.346321)
(-0.0977512 -0.0248824 -0.138036)
(0.0611099 -0.159775 0.35961)
(0.11296 -0.0650478 -0.185751)
(-0.0938482 -0.175395 0.14313)
(-0.0598301 -0.186938 0.291331)
(-0.000766933 -0.00650358 -0.705583)
(0.0184322 0.0786147 -0.484367)
(0.00272976 0.045839 -0.468783)
(0.0776619 0.0187329 -0.530715)
(0.0068434 -0.235769 0.338207)
(0.0156867 -0.150038 0.322409)
(0.01943 0.0365678 -0.667699)
(0.0542973 0.0740509 -0.649263)
(0.0688472 -0.124503 0.144166)
(0.0835209 -0.241183 0.372413)
(0.0788207 -0.156759 0.319321)
(0.0614094 0.0234468 -0.658622)
(0.0317436 -0.0178909 -0.00014311)
(-0.039274 0.00659344 0.707172)
(0.0782326 0.0199699 -0.535809)
(0.0254982 -0.0204726 -0.614841)
(-0.0544841 -0.0753017 -0.0414567)
(-0.0111 -0.065136 -0.125942)
(0.040915 0.0546516 -0.443357)
(-0.0175829 0.0349285 -0.367749)
(0.0166428 -0.0199584 -0.231075)
(0.0251367 -0.0940304 -0.466202)
(0.0428266 -0.097744 -0.461571)
(-0.0527127 0.0593805 -0.297603)
(0.00449207 0.000885019 -0.65296)
(-0.00299079 0.0716287 -0.439563)
(0.00909726 0.0238455 -0.393123)
(0.0532957 0.0148998 -0.522545)
(0.0626894 -0.255046 0.169584)
(-0.104278 -0.0252564 -0.309948)
(0.0192866 0.0346959 -0.643965)
(0.0447929 0.0762404 -0.596169)
(0.107462 -0.11343 0.251009)
(0.129595 -0.274692 0.422015)
(0.169943 -0.227265 0.324558)
(0.0605504 0.0409106 -0.645237)
(0.0795025 -0.0396175 0.193008)
(0.127327 -0.113691 0.400577)
(0.0659632 0.0193161 -0.45708)
(0.0156036 -0.0136938 -0.52486)
(-0.0639777 -0.0360252 -0.0942342)
(0.0286447 -0.0934918 -0.102635)
(0.0650637 0.0555616 -0.383643)
(-0.0657211 0.0230256 -0.234388)
(0.0508112 0.0252185 -0.308657)
(0.00186771 -0.11814 -0.468941)
(0.011374 -0.125955 -0.434641)
(0.0156593 0.0207981 -0.220908)
(-0.00243618 0.0014919 -0.000923069)
(0.00255845 0.0118799 -0.586659)
(-0.0312478 0.054257 -0.327992)
(0.0605699 0.0610862 -0.454691)
(0.0741702 0.0225528 -0.500483)
(0.0731445 -0.0631749 -0.348022)
(-0.0998758 -0.0558342 -0.160884)
(-0.00200325 -0.00154152 -0.00173002)
(0.0121885 0.0426289 -0.611021)
(0.0471457 0.0976425 -0.550532)
(0.0893127 0.0701084 -0.505168)
(0 0 0)
(0.0893461 -0.138618 -0.26518)
(0.0697183 0.0507133 -0.580336)
(0 0 0)
(0.118185 -0.101863 0.467075)
(0.0441242 0.0703365 -0.356045)
(0.0256898 0.00546911 -0.48083)
(-0.0642541 -0.07107 -0.00668297)
(0.00917926 -0.0592972 -0.0169495)
(0.058618 0.113929 -0.32801)
(-0.0449004 0.0354901 -0.320462)
(0.0609697 0.0354998 -0.25364)
(0.0487663 -0.0614861 -0.41519)
(0.0339106 -0.113898 -0.40732)
(0.216697 0.00875769 -0.274156)
(0 0 0)
(-0.00510132 0.0192475 -0.512022)
(-0.0638032 0.042422 -0.194343)
(0.0770871 0.0672041 -0.434688)
(0.0636059 0.00951124 -0.452227)
(0.0493712 -0.0851759 -0.334774)
(0.0435607 -0.124243 -0.360285)
(0 0 0)
(-0.001326 0.0588781 -0.493939)
(0.0231605 0.0834463 -0.486101)
(-0.0286306 -0.0192651 -0.406214)
(0 0 0)
(0.0534756 -0.131463 -0.194048)
(0 0 0)
(0.0812183 0.022032 -0.531976)
(0 0 0)
(0 0 0)
(0.0598851 -0.0203513 -0.269894)
(0.00109102 -0.00366445 -0.370287)
(-0.0469538 -0.0806046 0.0521253)
(0.0602112 -0.0819586 -0.0981858)
(0.0415548 0.0998844 -0.249899)
(-0.0540151 0.0435672 -0.201572)
(0.0855531 0.0193301 -0.249812)
(0.131802 0.0112518 -0.36172)
(0.0297385 -0.116788 -0.354953)
(0.232271 0.0207225 -0.283526)
(0 0 0)
(1.69381e-14 -1.29949e-14 -2.4464e-13)
(-0.0577128 0.0319954 -0.284291)
(0.0702993 0.0682597 -0.384011)
(0.0628424 -0.0104652 -0.395696)
(0.00837976 -0.124226 -0.339849)
(0.0440532 -0.122498 -0.331102)
(0 0 0)
(-0.0464798 0.110179 -0.297936)
(-0.0399951 0.0331331 -0.426833)
(-0.0606303 -0.0513417 -0.334697)
(0 0 0)
(0.0339705 -0.0852939 -0.26099)
(0 0 0)
(0 0 0)
(-0.0656999 -0.0242003 -0.406087)
(0 0 0)
(0.055526 0.0183358 -0.170722)
(-0.0320481 -0.0679797 -0.317564)
(-0.036475 -0.10457 0.0710913)
(0 0 0)
(0.123748 0.0231928 -0.188766)
(-0.0725411 0.00845992 -0.221527)
(0.0823396 0.00887113 -0.254651)
(0.139209 0.0211146 -0.294937)
(0.182419 0.0270307 -0.204624)
(0 0 0)
(0 0 0)
(0 0 0)
(-0.0507687 0.0554179 -0.186876)
(0.0533029 0.0539235 -0.303544)
(-0.0182064 -0.0890613 -0.356979)
(0.00502282 -0.120469 -0.294727)
(0 0 0)
(0 0 0)
(-0.0448187 0.144579 -0.31681)
(-0.0920791 -0.018801 -0.393751)
(-0.0875198 -0.0388485 -0.370018)
(0 0 0)
(0.0386099 -0.0835507 -0.204742)
(0 0 0)
(-0.0692547 -0.0166621 -0.367426)
(0.0585612 -0.0531307 -0.00125426)
(0 0 0)
(-0.035599 -0.0734691 -0.212345)
(-0.00524192 -0.0617884 -0.0745019)
(0.0882011 -0.0505575 -0.0549666)
(0.179125 -0.0504607 -0.129186)
(-0.0384748 -0.014261 -0.225301)
(0.0495259 -9.58476e-05 -0.210095)
(0.134492 0.0350332 -0.20337)
(0 0 0)
(0 0 0)
(0 0 0)
(-0.0599416 0.078422 -0.164041)
(0.017661 0.0440459 -0.228091)
(-0.0146897 -0.0964386 -0.279882)
(0.00860341 -0.0980665 -0.232472)
(0 0 0)
(0 0 0)
(-0.109839 -0.0318484 -0.360773)
(-0.0710396 -0.0412039 -0.31881)
(0 0 0)
(0 0 0)
(0 0 0)
(-0.0627904 -0.027028 -0.321471)
(0 0 0)
(0 0 0)
(0 0 0)
(0.00837779 -0.0852222 0.0052665)
(0.0918248 -0.0720488 -0.0158022)
(0 0 0)
(0 0 0)
(0.0287433 0.0347543 -0.0442612)
(0 0 0)
(0 0 0)
(0 0 0)
(0 0 0)
(0 0 0)
(0 0 0)
(0 0 0)
(-0.000929112 -0.0909099 -0.168229)
(0 0 0)
(0 0 0)
(0 0 0)
(-0.0557307 -0.0301868 -0.258893)
(0 0 0)
(0 0 0)
(0 0 0)
(-0.0424157 -0.0212293 -0.160203)
(0 0 0)
(0 0 0)
(0 0 0)
(0 0 0)
(0 0 0)
(0 0 0)
(0 0 0)
(0 0 0)
(0 0 0)
(0 0 0)
(0 0 0)
(0 0 0)
(0 0 0)
(0 0 0)
(0 0 0)
(0 0 0)
(0 0 0)
(0 0 0)
(0 0 0)
(-0.0342787 -0.035221 -0.195343)
(-0.00173023 -0.0743369 -0.10124)
(0 0 0)
(0 0 0)
(0 0 0)
(0 0 0)
(0 0 0)
(0 0 0)
(0 0 0)
(0 0 0)
(0 0 0)
(0 0 0)
(0 0 0)
(0 0 0)
(0 0 0)
(0 0 0)
(0 0 0)
(0 0 0)
(0 0 0)
(0 0 0)
(0 0 0)
(0 0 0)
(0 0 0)
(0 0 0)
(0 0 0)
(0.0130443 -0.0630448 0.0103574)
(0 0 0)
(0 0 0)
(0 0 0)
(0 0 0)
(0 0 0)
(0 0 0)
(0 0 0)
(0 0 0)
(0 0 0)
(0 0 0)
(0 0 0)
(0 0 0)
(0 0 0)
(0 0 0)
(0 0 0)
(0 0 0)
(0 0 0)
(0 0 0)
(0 0 0)
(0 0 0)
(0 0 0)
(0 0 0)
(0 0 0)
(0 0 0)
(0 0 0)
(0 0 0)
(0 0 0)
(0 0 0)
(0 0 0)
(0 0 0)
(0 0 0)
(0 0 0)
(0 0 0)
(0 0 0)
(0 0 0)
(0 0 0)
(0 0 0)
(0 0 0)
(0 0 0)
(0 0 0)
(0 0 0)
(0 0 0)
(0 0 0)
(0 0 0)
(0 0 0)
(0 0 0)
(0 0 0)
(0 0 0)
(0 0 0)
(0 0 0)
(0 0 0)
(0 0 0)
(0 0 0)
(0 0 0)
(0 0 0)
(0 0 0)
(0 0 0)
(0 0 0)
(0 0 0)
(0 0 0)
(0 0 0)
(0 0 0)
(0 0 0)
(0 0 0)
(0 0 0)
(0 0 0)
(0 0 0)
(0 0 0)
(0 0 0)
(0 0 0)
(0 0 0)
(0 0 0)
(0 0 0)
(0 0 0)
(0 0 0)
(0 0 0)
(0 0 0)
(0 0 0)
(0 0 0)
(0 0 0)
(0 0 0)
(0 0 0)
(0 0 0)
(0 0 0)
(0 0 0)
(0 0 0)
(0 0 0)
(0 0 0)
(0 0 0)
(0 0 0)
(0 0 0)
(0 0 0)
(0 0 0)
(0 0 0)
(0 0 0)
(0 0 0)
(0 0 0)
(0 0 0)
(0 0 0)
(0 0 0)
(0 0 0)
(0 0 0)
(0 0 0)
(0 0 0)
(0 0 0)
(0 0 0)
(0 0 0)
(0 0 0)
(0 0 0)
(0 0 0)
(0 0 0)
(0 0 0)
(0 0 0)
(0 0 0)
(0 0 0)
(0 0 0)
(0 0 0)
(0 0 0)
(0 0 0)
(0 0 0)
(0 0 0)
(0 0 0)
(0 0 0)
(0 0 0)
(0 0 0)
(0 0 0)
(0 0 0)
(0 0 0)
(0 0 0)
(0 0 0)
(0 0 0)
(0 0 0)
(0 0 0)
(0 0 0)
(0 0 0)
(0 0 0)
(0 0 0)
(0 0 0)
(0 0 0)
(0 0 0)
(0 0 0)
(0 0 0)
(0 0 0)
(0 0 0)
(0 0 0)
(0 0 0)
(0 0 0)
(0 0 0)
(0 0 0)
(0 0 0)
(0 0 0)
(0 0 0)
(0 0 0)
(0 0 0)
(0 0 0)
(0 0 0)
(0 0 0)
(0 0 0)
(0 0 0)
(0 0 0)
(0 0 0)
(0 0 0)
(0 0 0)
(0 0 0)
(0 0 0)
(0 0 0)
(0 0 0)
(0 0 0)
(0 0 0)
(0 0 0)
(0 0 0)
(0 0 0)
(0 0 0)
(0 0 0)
(0 0 0)
(0 0 0)
(0 0 0)
(0 0 0)
(0 0 0)
(0 0 0)
(0 0 0)
(0 0 0)
(0 0 0)
(0 0 0)
(0 0 0)
(0 0 0)
(0 0 0)
(0 0 0)
(0 0 0)
(0 0 0)
(0 0 0)
(0 0 0)
(0 0 0)
(0 0 0)
(0 0 0)
(0 0 0)
(0 0 0)
(0 0 0)
(0 0 0)
(0 0 0)
(0 0 0)
(0 0 0)
(0 0 0)
(0 0 0)
(0 0 0)
(0 0 0)
(0 0 0)
(0 0 0)
(0 0 0)
(0 0 0)
(0 0 0)
(0 0 0)
(0 0 0)
(0 0 0)
(0 0 0)
(0 0 0)
(0 0 0)
(0 0 0)
(0 0 0)
(0 0 0)
(0 0 0)
(0 0 0)
(0 0 0)
(0 0 0)
(0 0 0)
(0 0 0)
(0 0 0)
(0 0 0)
(0 0 0)
(0 0 0)
(0 0 0)
(0 0 0)
(0 0 0)
(0 0 0)
(0 0 0)
(0 0 0)
(0 0 0)
(0 0 0)
(0 0 0)
(0 0 0)
(0 0 0)
(0 0 0)
(0 0 0)
(0 0 0)
(0 0 0)
(0 0 0)
(0 0 0)
(0 0 0)
(0 0 0)
(0 0 0)
(0 0 0)
(0 0 0)
(0 0 0)
(0 0 0)
(0 0 0)
(0 0 0)
(0 0 0)
(0 0 0)
(0 0 0)
(0 0 0)
(0 0 0)
(0 0 0)
(0 0 0)
(0 0 0)
(0 0 0)
(0 0 0)
(0 0 0)
(0 0 0)
(0 0 0)
(0 0 0)
(0 0 0)
(0 0 0)
(0 0 0)
(0 0 0)
(0 0 0)
(0 0 0)
(0 0 0)
(0 0 0)
(0 0 0)
(0 0 0)
(0 0 0)
(0 0 0)
(0 0 0)
(0 0 0)
(0 0 0)
(0 0 0)
(0 0 0)
(0 0 0)
(0 0 0)
(0 0 0)
(0 0 0)
(0 0 0)
(0 0 0)
(0 0 0)
(0 0 0)
(0 0 0)
(0 0 0)
(0 0 0)
(0 0 0)
(0 0 0)
(0 0 0)
(0 0 0)
(0 0 0)
(0 0 0)
(0 0 0)
(0 0 0)
(0 0 0)
(0 0 0)
(0 0 0)
(0 0 0)
(0 0 0)
(0 0 0)
(0 0 0)
(0 0 0)
(0 0 0)
(0 0 0)
(0 0 0)
(0 0 0)
(0 0 0)
(0 0 0)
(0 0 0)
(0 0 0)
(0 0 0)
(0 0 0)
(0 0 0)
(0 0 0)
(0 0 0)
(0 0 0)
(0 0 0)
(0 0 0)
(0 0 0)
(0 0 0)
(0 0 0)
(0 0 0)
(0 0 0)
(0 0 0)
(0 0 0)
(0 0 0)
(0 0 0)
(0 0 0)
(0 0 0)
(0 0 0)
(0 0 0)
(0 0 0)
(0 0 0)
(0 0 0)
(0 0 0)
(0 0 0)
(0 0 0)
(0 0 0)
(0 0 0)
(0 0 0)
(0 0 0)
(0 0 0)
(0 0 0)
(0 0 0)
(0 0 0)
(0 0 0)
(0 0 0)
(0 0 0)
(0 0 0)
(0 0 0)
(0 0 0)
(0 0 0)
(0 0 0)
(0 0 0)
(0 0 0)
(0 0 0)
(0 0 0)
(0 0 0)
(0 0 0)
(0 0 0)
(0 0 0)
(0 0 0)
(0 0 0)
(0 0 0)
(0 0 0)
(0 0 0)
(0 0 0)
(0 0 0)
(0 0 0)
(0 0 0)
(0 0 0)
(0 0 0)
(0 0 0)
(0 0 0)
(0 0 0)
(0 0 0)
(0 0 0)
(0 0 0)
(0 0 0)
(0 0 0)
(0 0 0)
(0 0 0)
(0 0 0)
(0 0 0)
(0 0 0)
(0 0 0)
(0 0 0)
(0 0 0)
(0 0 0)
(0 0 0)
(0 0 0)
(0 0 0)
(0 0 0)
(0 0 0)
(0 0 0)
(0 0 0)
(0 0 0)
(0 0 0)
(0 0 0)
(0 0 0)
(0 0 0)
(0 0 0)
(0 0 0)
(0 0 0)
(0 0 0)
(0 0 0)
(0 0 0)
(0 0 0)
(0 0 0)
(0 0 0)
(0 0 0)
(0 0 0)
(0 0 0)
(0 0 0)
(0 0 0)
(0 0 0)
(0 0 0)
(0 0 0)
(0 0 0)
(0 0 0)
(0 0 0)
(0 0 0)
(0 0 0)
(0 0 0)
(0 0 0)
(0 0 0)
(0 0 0)
(0 0 0)
(0 0 0)
(0 0 0)
(0 0 0)
(0 0 0)
(0 0 0)
(0 0 0)
(0 0 0)
(0 0 0)
(0 0 0)
(0 0 0)
(0 0 0)
(0 0 0)
(0 0 0)
(0 0 0)
(0 0 0)
(0 0 0)
(0 0 0)
(0 0 0)
(0 0 0)
(0 0 0)
(0 0 0)
(0 0 0)
(0 0 0)
(0 0 0)
(0 0 0)
(0 0 0)
(0 0 0)
(0 0 0)
(0 0 0)
(0 0 0)
(0 0 0)
(0 0 0)
(0 0 0)
(0 0 0)
(0 0 0)
(0 0 0)
(0 0 0)
(0 0 0)
(0 0 0)
(0 0 0)
(0 0 0)
(0 0 0)
(0 0 0)
(0 0 0)
(0 0 0)
(0 0 0)
(0 0 0)
(0 0 0)
(0 0 0)
(0 0 0)
(0 0 0)
(0 0 0)
(0 0 0)
(0 0 0)
(0 0 0)
(0 0 0)
(0 0 0)
(0 0 0)
(0 0 0)
(0 0 0)
(0 0 0)
(0 0 0)
(0 0 0)
(0 0 0)
(0 0 0)
(0 0 0)
(0 0 0)
(0 0 0)
(0 0 0)
(0 0 0)
(0 0 0)
(0 0 0)
(0 0 0)
(0 0 0)
(0 0 0)
(0 0 0)
(0 0 0)
(0 0 0)
(0 0 0)
(0 0 0)
(0 0 0)
(0 0 0)
(0 0 0)
(0 0 0)
(0 0 0)
(0 0 0)
(0 0 0)
(0 0 0)
(0 0 0)
(0 0 0)
(0 0 0)
(0 0 0)
(0 0 0)
(0 0 0)
(0 0 0)
(0 0 0)
(0 0 0)
(0 0 0)
(0 0 0)
(0 0 0)
(0 0 0)
(0 0 0)
(0 0 0)
(0 0 0)
(0 0 0)
(0 0 0)
(0 0 0)
(0 0 0)
(0 0 0)
(0 0 0)
(0 0 0)
(0 0 0)
(0 0 0)
(0 0 0)
(0 0 0)
(0 0 0)
(0 0 0)
(0 0 0)
(0 0 0)
(0 0 0)
(0 0 0)
(0 0 0)
(0 0 0)
(0 0 0)
(0 0 0)
(0 0 0)
(0 0 0)
(0 0 0)
(0 0 0)
(0 0 0)
(0 0 0)
(0 0 0)
(0 0 0)
(0 0 0)
(0 0 0)
(0 0 0)
(0 0 0)
(0 0 0)
(0 0 0)
(0 0 0)
(0 0 0)
(0 0 0)
(0 0 0)
(0 0 0)
(0 0 0)
(0 0 0)
(0 0 0)
(0 0 0)
(0 0 0)
(0 0 0)
(0 0 0)
(0 0 0)
(0 0 0)
(0 0 0)
(0 0 0)
(0 0 0)
(0 0 0)
(0 0 0)
(0 0 0)
(0 0 0)
(0 0 0)
(0 0 0)
(0 0 0)
(0 0 0)
(0 0 0)
(0 0 0)
(0 0 0)
(0 0 0)
(0 0 0)
(0 0 0)
(0 0 0)
(0 0 0)
(0 0 0)
(0 0 0)
(0 0 0)
(0 0 0)
(0 0 0)
(0 0 0)
(0 0 0)
(0 0 0)
(0 0 0)
(0 0 0)
(0 0 0)
(0 0 0)
(0 0 0)
(0 0 0)
(0 0 0)
(0 0 0)
(0 0 0)
(0 0 0)
(0 0 0)
(0 0 0)
(0 0 0)
(0 0 0)
(0 0 0)
(0 0 0)
(0 0 0)
(0 0 0)
(0 0 0)
(0 0 0)
(0 0 0)
(0 0 0)
(0 0 0)
(0 0 0)
(0 0 0)
(0 0 0)
(0 0 0)
(0 0 0)
(0 0 0)
(0 0 0)
(0 0 0)
(0 0 0)
(0 0 0)
(0 0 0)
(0 0 0)
(0 0 0)
(0 0 0)
(0 0 0)
(0 0 0)
(0 0 0)
(0 0 0)
(0 0 0)
(0 0 0)
(0 0 0)
(0 0 0)
(0 0 0)
(0 0 0)
(0 0 0)
(0 0 0)
(0 0 0)
(0 0 0)
(0 0 0)
(0 0 0)
(0 0 0)
(0 0 0)
(0 0 0)
(0 0 0)
(0 0 0)
(0 0 0)
(0 0 0)
(0 0 0)
(0 0 0)
(0 0 0)
(0 0 0)
(0 0 0)
(0 0 0)
(0 0 0)
(0 0 0)
(0 0 0)
(0 0 0)
(0 0 0)
(0 0 0)
(0 0 0)
(0 0 0)
(0 0 0)
(0 0 0)
(0 0 0)
(0 0 0)
(0 0 0)
(0 0 0)
(0 0 0)
(0 0 0)
(0 0 0)
(0 0 0)
(0 0 0)
(0 0 0)
(0 0 0)
(0 0 0)
(0 0 0)
(0 0 0)
(0 0 0)
(0 0 0)
(0 0 0)
(0 0 0)
(0 0 0)
(0 0 0)
(0 0 0)
(0 0 0)
(0 0 0)
(0 0 0)
(0 0 0)
(0 0 0)
(0 0 0)
(0 0 0)
(0 0 0)
(0 0 0)
(0 0 0)
(0 0 0)
(0 0 0)
(0 0 0)
(0 0 0)
(0 0 0)
(0 0 0)
(0 0 0)
(0 0 0)
(0 0 0)
(0 0 0)
(0 0 0)
(0 0 0)
(0 0 0)
(0 0 0)
(0 0 0)
(0 0 0)
(0 0 0)
(0 0 0)
(0 0 0)
(0 0 0)
(0 0 0)
(0 0 0)
(0 0 0)
(0 0 0)
(0 0 0)
(0 0 0)
(0 0 0)
(0 0 0)
(0 0 0)
(0 0 0)
(0 0 0)
(0 0 0)
(0 0 0)
(0 0 0)
(0 0 0)
(0 0 0)
(0 0 0)
(0 0 0)
(0 0 0)
(0 0 0)
(0 0 0)
(0 0 0)
(0 0 0)
(0 0 0)
(0 0 0)
(0 0 0)
(0 0 0)
(0 0 0)
(0 0 0)
(0 0 0)
(0 0 0)
(0 0 0)
(0 0 0)
(0 0 0)
(0 0 0)
(0 0 0)
(0 0 0)
(0 0 0)
(0 0 0)
(0 0 0)
(0 0 0)
(0 0 0)
(0 0 0)
(0 0 0)
(0 0 0)
(0 0 0)
(0 0 0)
(0 0 0)
(0 0 0)
(0 0 0)
(0 0 0)
(0 0 0)
(0 0 0)
(0 0 0)
(0 0 0)
(0 0 0)
(0 0 0)
(0 0 0)
(0 0 0)
(0 0 0)
(0 0 0)
(0 0 0)
(0 0 0)
(0 0 0)
(0 0 0)
(0 0 0)
(0 0 0)
(0 0 0)
(0 0 0)
(0 0 0)
(0 0 0)
(0 0 0)
(0 0 0)
(0 0 0)
(0 0 0)
(0 0 0)
(0 0 0)
(0 0 0)
(0 0 0)
(0 0 0)
(0 0 0)
(0 0 0)
(0 0 0)
(0 0 0)
(0 0 0)
(0 0 0)
(0 0 0)
(0 0 0)
(0 0 0)
(0 0 0)
(0 0 0)
(0 0 0)
(0 0 0)
(0 0 0)
(0 0 0)
(0 0 0)
(0 0 0)
(0 0 0)
(0 0 0)
(0 0 0)
(0 0 0)
(0 0 0)
(0 0 0)
(0 0 0)
(0 0 0)
(0 0 0)
(0 0 0)
(0 0 0)
(0 0 0)
(0 0 0)
(0 0 0)
(0 0 0)
(0 0 0)
(0 0 0)
(0 0 0)
(0 0 0)
(0 0 0)
(0 0 0)
(0 0 0)
(0 0 0)
(0 0 0)
(0 0 0)
(0 0 0)
(0 0 0)
(0 0 0)
(0 0 0)
(0 0 0)
(0 0 0)
(0 0 0)
(0 0 0)
(0 0 0)
(0 0 0)
(0 0 0)
(0 0 0)
(0 0 0)
(0 0 0)
(0 0 0)
(0 0 0)
(0 0 0)
(0 0 0)
(0 0 0)
(0 0 0)
(0 0 0)
(0 0 0)
(0 0 0)
(0 0 0)
(0 0 0)
(0 0 0)
(0 0 0)
(0 0 0)
(0 0 0)
(0 0 0)
(0 0 0)
(0 0 0)
(0 0 0)
(0 0 0)
(0 0 0)
(0 0 0)
(0 0 0)
(0 0 0)
(0 0 0)
(0 0 0)
(0 0 0)
(0 0 0)
(0 0 0)
(0 0 0)
(0 0 0)
(0 0 0)
(0 0 0)
(0 0 0)
(0 0 0)
(0 0 0)
(0 0 0)
(0 0 0)
(0 0 0)
(0 0 0)
(0 0 0)
(0 0 0)
(0 0 0)
(0 0 0)
(0 0 0)
(0 0 0)
(0 0 0)
(0 0 0)
(0 0 0)
(0 0 0)
(0 0 0)
(0 0 0)
(0 0 0)
(0 0 0)
(0 0 0)
(0 0 0)
(0 0 0)
(0 0 0)
(0 0 0)
(0 0 0)
(0 0 0)
(0 0 0)
(0 0 0)
(0 0 0)
(0 0 0)
(0 0 0)
(0 0 0)
(0 0 0)
(0 0 0)
(0 0 0)
(0 0 0)
(0 0 0)
(0 0 0)
(0 0 0)
(0 0 0)
(0 0 0)
(0 0 0)
(0 0 0)
(0 0 0)
(0 0 0)
(0 0 0)
(0 0 0)
(0 0 0)
(0 0 0)
(0 0 0)
(0 0 0)
(0 0 0)
(0 0 0)
(0 0 0)
(0 0 0)
(0 0 0)
(0 0 0)
(0 0 0)
(0 0 0)
(0 0 0)
(0 0 0)
(0 0 0)
(0 0 0)
(0 0 0)
(0 0 0)
(0 0 0)
(0 0 0)
(0 0 0)
(0 0 0)
(0 0 0)
(0 0 0)
(0 0 0)
(0 0 0)
(0 0 0)
(0 0 0)
(0 0 0)
(0 0 0)
(0 0 0)
(0 0 0)
(0 0 0)
(0 0 0)
(0 0 0)
(0 0 0)
(0 0 0)
(0 0 0)
(0 0 0)
(0 0 0)
(0 0 0)
(0 0 0)
(0 0 0)
(0 0 0)
(0 0 0)
(0 0 0)
(0 0 0)
(0 0 0)
(0 0 0)
(0 0 0)
(0 0 0)
(0 0 0)
(0 0 0)
(0 0 0)
(0 0 0)
(0 0 0)
(0 0 0)
(0 0 0)
(0 0 0)
(0 0 0)
(0 0 0)
(0 0 0)
(0 0 0)
(0 0 0)
(0 0 0)
(0 0 0)
(0 0 0)
(0 0 0)
(0 0 0)
(0 0 0)
(0 0 0)
(0 0 0)
(0 0 0)
(0 0 0)
(0 0 0)
(0 0 0)
(0 0 0)
(0 0 0)
(0 0 0)
(0 0 0)
(0 0 0)
(0 0 0)
(0 0 0)
(0 0 0)
(0 0 0)
(0 0 0)
(0 0 0)
(0 0 0)
(0 0 0)
(0 0 0)
(0 0 0)
(0 0 0)
(0 0 0)
(0 0 0)
(0 0 0)
(0 0 0)
(0 0 0)
(0 0 0)
(0 0 0)
(0 0 0)
(0 0 0)
(0 0 0)
(0 0 0)
(0 0 0)
(0 0 0)
(0 0 0)
(0 0 0)
(0 0 0)
(0 0 0)
(0 0 0)
(0 0 0)
(0 0 0)
(0 0 0)
(0 0 0)
(0 0 0)
(0 0 0)
(0 0 0)
(0 0 0)
(0 0 0)
(0 0 0)
(0 0 0)
(0 0 0)
(0 0 0)
(0 0 0)
(0 0 0)
(0 0 0)
(0 0 0)
(0 0 0)
(0 0 0)
(0 0 0)
(0 0 0)
(0 0 0)
(0 0 0)
(0 0 0)
(0 0 0)
(0 0 0)
(0 0 0)
(0 0 0)
(0 0 0)
(0 0 0)
(0 0 0)
(0 0 0)
(0 0 0)
(0 0 0)
(0 0 0)
(0 0 0)
(0 0 0)
(0 0 0)
(0 0 0)
(0 0 0)
(0 0 0)
(0 0 0)
(0 0 0)
(0 0 0)
(0 0 0)
(0 0 0)
(0 0 0)
(0 0 0)
(0 0 0)
(0 0 0)
(0 0 0)
(0 0 0)
(0 0 0)
(0 0 0)
(0 0 0)
(0 0 0)
(0 0 0)
(0 0 0)
(0 0 0)
(0 0 0)
(0 0 0)
(0 0 0)
(0 0 0)
(0 0 0)
(0 0 0)
(0 0 0)
(0 0 0)
(0 0 0)
(0 0 0)
(0 0 0)
(0 0 0)
(0 0 0)
(0 0 0)
(0 0 0)
(0 0 0)
(0 0 0)
(0 0 0)
(0 0 0)
(0 0 0)
(0 0 0)
(0 0 0)
(0 0 0)
(0 0 0)
(0 0 0)
(0 0 0)
(0 0 0)
(0 0 0)
(0 0 0)
(0 0 0)
(0 0 0)
(0 0 0)
(0 0 0)
(0 0 0)
(0 0 0)
(0 0 0)
(0 0 0)
(0 0 0)
(0 0 0)
(0 0 0)
(0 0 0)
(0 0 0)
(0 0 0)
(0 0 0)
(0 0 0)
(0 0 0)
(0 0 0)
(0 0 0)
(0 0 0)
(0 0 0)
(0 0 0)
(0 0 0)
(0 0 0)
(0 0 0)
(0 0 0)
(0 0 0)
(0 0 0)
(0 0 0)
(0 0 0)
(0 0 0)
(0 0 0)
(0 0 0)
(0 0 0)
(0 0 0)
(0 0 0)
(0 0 0)
(0 0 0)
(0 0 0)
(0 0 0)
(0 0 0)
(0 0 0)
(0 0 0)
(0 0 0)
(0 0 0)
(0 0 0)
(0 0 0)
(0 0 0)
(0 0 0)
(0 0 0)
(0 0 0)
(0 0 0)
(0 0 0)
(0 0 0)
(0 0 0)
(0 0 0)
(0 0 0)
(0 0 0)
(0 0 0)
(0 0 0)
(0 0 0)
(0 0 0)
(0 0 0)
(0 0 0)
(0 0 0)
(0 0 0)
(0 0 0)
(0 0 0)
(0 0 0)
(0 0 0)
(0 0 0)
(0 0 0)
(0 0 0)
(0 0 0)
(0 0 0)
(0 0 0)
(0 0 0)
(0 0 0)
(0 0 0)
(0 0 0)
(0 0 0)
(0 0 0)
(0 0 0)
(0 0 0)
(0 0 0)
(0 0 0)
(0 0 0)
(0 0 0)
(0 0 0)
(0 0 0)
(0 0 0)
(0 0 0)
(0 0 0)
(0 0 0)
(0 0 0)
(0 0 0)
(0 0 0)
(0 0 0)
(0 0 0)
(0 0 0)
(0 0 0)
(0 0 0)
(0 0 0)
(0 0 0)
(0 0 0)
(0 0 0)
(0 0 0)
(0 0 0)
(0 0 0)
(0 0 0)
(0 0 0)
(0 0 0)
(0 0 0)
(0 0 0)
(0 0 0)
(0 0 0)
(0 0 0)
(0 0 0)
(0 0 0)
(0 0 0)
(0 0 0)
(0 0 0)
(0 0 0)
(0 0 0)
(0 0 0)
(0 0 0)
(0 0 0)
(0 0 0)
(0 0 0)
(0 0 0)
(0 0 0)
(0 0 0)
(0 0 0)
(0 0 0)
(0 0 0)
(0 0 0)
(0 0 0)
(0 0 0)
(0 0 0)
(0 0 0)
(0 0 0)
(0 0 0)
(0 0 0)
(0 0 0)
(0 0 0)
(0 0 0)
(0 0 0)
(0 0 0)
(0 0 0)
(0 0 0)
(0 0 0)
(0 0 0)
(0 0 0)
(0 0 0)
(0 0 0)
(0 0 0)
(0 0 0)
(0 0 0)
(0 0 0)
(0 0 0)
(0 0 0)
(0 0 0)
(0 0 0)
(0 0 0)
(0 0 0)
(0 0 0)
(0 0 0)
(0 0 0)
(0 0 0)
(0 0 0)
(0 0 0)
(0 0 0)
(0 0 0)
(0 0 0)
(0 0 0)
(0 0 0)
(0 0 0)
(0 0 0)
(0 0 0)
(0 0 0)
(0 0 0)
(0 0 0)
(0 0 0)
(0 0 0)
(0 0 0)
(0 0 0)
(0 0 0)
(0 0 0)
(0 0 0)
(0 0 0)
(0 0 0)
(0 0 0)
(0 0 0)
(0 0 0)
(0 0 0)
(0 0 0)
(0 0 0)
(0 0 0)
(0 0 0)
(0 0 0)
(0 0 0)
(0 0 0)
(0 0 0)
(0 0 0)
(0 0 0)
(0 0 0)
(0 0 0)
(0 0 0)
(0 0 0)
(0 0 0)
(0 0 0)
(0 0 0)
(0 0 0)
(0 0 0)
(0 0 0)
(0 0 0)
(0 0 0)
(0 0 0)
(0 0 0)
(0 0 0)
(0 0 0)
(0 0 0)
(0 0 0)
(0 0 0)
(0 0 0)
(0 0 0)
(0 0 0)
(0 0 0)
(0 0 0)
(0 0 0)
(0 0 0)
(0 0 0)
(0 0 0)
(0 0 0)
(0 0 0)
(0 0 0)
(0 0 0)
(0 0 0)
(0 0 0)
(0 0 0)
(0 0 0)
(0 0 0)
(0 0 0)
(0 0 0)
(0 0 0)
(0 0 0)
(0 0 0)
(0 0 0)
(0 0 0)
(0 0 0)
(0 0 0)
(0 0 0)
(0 0 0)
(0 0 0)
(0 0 0)
(0 0 0)
(0 0 0)
(0 0 0)
(0 0 0)
(0 0 0)
(0 0 0)
(0 0 0)
(0 0 0)
(0 0 0)
(0 0 0)
(0 0 0)
(0 0 0)
(0 0 0)
(0 0 0)
(0 0 0)
(0 0 0)
(0 0 0)
(0 0 0)
(0 0 0)
(0 0 0)
(0 0 0)
(0 0 0)
(0 0 0)
(0 0 0)
(0 0 0)
(0 0 0)
(0 0 0)
(0 0 0)
(0 0 0)
(0 0 0)
(0 0 0)
(0 0 0)
(0 0 0)
(0 0 0)
(0 0 0)
(0 0 0)
(0 0 0)
(0 0 0)
(0 0 0)
(0 0 0)
(0 0 0)
(0 0 0)
(0 0 0)
(0 0 0)
(0 0 0)
(0 0 0)
(0 0 0)
(0 0 0)
(0 0 0)
(0 0 0)
(0 0 0)
(0 0 0)
(0 0 0)
(0 0 0)
(0 0 0)
(0 0 0)
(0 0 0)
(0 0 0)
(0 0 0)
(0 0 0)
(0 0 0)
(0 0 0)
(0 0 0)
(0 0 0)
(0 0 0)
(0 0 0)
(0 0 0)
(0 0 0)
(0 0 0)
(0 0 0)
(0 0 0)
(0 0 0)
(0 0 0)
(0 0 0)
(0 0 0)
(0 0 0)
(0 0 0)
(0 0 0)
(0 0 0)
(0 0 0)
(0 0 0)
(0 0 0)
(0 0 0)
(-0.0150942 0.00814105 -0.0123991)
(-0.0298912 0.0295614 -0.038668)
(-0.0635449 0.0625886 -0.00723005)
(-0.0516774 0.0488966 -0.016655)
(-0.0173589 0.03685 -0.0343764)
(-0.0215814 0.0412864 -0.0171418)
(0.0426338 0.0517721 -0.0181873)
(0.0347161 0.0248607 -0.0244921)
(0.0198979 -0.067135 0.0117411)
(0.00707038 -0.0275723 0.00816918)
(0.0130625 -0.042896 0.0104455)
(0.0372177 -0.114218 0.0218597)
(0.0388319 -0.147135 0.0246529)
(0.00897881 0.015773 0.0142658)
(-0.0294408 0.140525 0.0276731)
(0.0415962 -0.0669018 0.0125287)
(-0.0140466 0.0727186 0.000803948)
(-0.0395009 0.128187 0.0222633)
(0.0114942 0.0834387 0.0175645)
(-0.0791943 0.0882396 0.000285053)
(-0.0298926 0.0376078 0.00819856)
(0.078538 0.0541381 -0.00420444)
(0.0449901 0.0431722 -0.0134052)
(0.0768951 0.0754949 0.0150907)
(0.096376 0.0861874 0.00953754)
(0.0384429 0.0433758 0.00174141)
(0.024026 -0.163289 0.0148855)
(0.00441197 -0.145674 0.00277567)
(0.00159934 -0.225043 0.00869579)
(0.058025 -0.22494 0.0139173)
(0.0117774 -0.220961 0.0180759)
(0.0347994 -0.311925 -0.0106394)
(0.0706064 -0.341006 -0.000122429)
(-0.00621447 -0.210524 0.00743351)
(-0.0845666 -0.146483 -0.0378826)
(0.0254572 -0.2791 0.00280087)
(-0.0123971 -0.216097 -0.00868697)
(-0.0877853 -0.104514 -0.0519505)
(0.00288716 -0.0440283 -0.0286567)
(-0.0113536 -0.136477 -0.0227729)
(0.0961864 -0.0600589 -0.0388175)
(0.110678 0.0236594 -0.0255904)
(0.174828 0.087835 -0.00866511)
(0.199527 -0.00268978 -0.0407671)
(0.284503 0.111686 -0.0329971)
(0.0740504 0.0709485 0.0170456)
(0.108082 0.110942 0.0143032)
(0.0101069 0.0323948 0.00634902)
(-0.0159517 -0.141614 -0.0188826)
(-0.0232246 -0.208675 -0.0131476)
(-0.0306904 -0.13815 -0.0178898)
(0.0117777 -0.260616 -0.0218033)
(0.0601478 -0.297506 -0.0156606)
(-0.0136972 -0.182715 -0.0269258)
(0.0356343 -0.222422 -0.0303914)
(0.080633 -0.283043 -0.00924071)
(0.0537506 -0.20304 -0.010553)
(0.0890188 -0.213081 -0.0410324)
(0.137106 -0.1595 -0.026006)
(0.0599537 -0.0803116 -0.0277549)
(0.144281 -0.0121504 -0.0450129)
(0.166779 -0.0505405 -0.0189459)
(0.216302 0.0533997 -0.0352799)
(0.233929 0.0358235 -0.0480905)
(0.329112 0.12092 -0.0288836)
(0.282218 0.1042 -0.0329368)
(0.302822 0.116106 -0.00666753)
(0.130676 0.0958303 0.00986433)
(0.0132597 0.0279279 0.0121298)
(0.0487059 0.0166617 0.00859465)
(-0.026917 -0.0772696 -0.0128208)
(-0.0270535 -0.0992911 -0.0239818)
(0.0279231 -0.139257 -0.045538)
(-0.0196808 -0.0340195 -0.0149329)
(0.0189403 -0.0191247 -0.0307029)
(0.103307 -0.128967 -0.0699137)
(0.204074 -0.0963512 -0.0639313)
(0.121394 -0.0157507 -0.0530116)
(0.235339 0.00188934 -0.0427013)
(0.264043 -0.0185283 -0.0329593)
(0.302934 0.0725795 -0.00868349)
(0.342829 0.0340302 -0.0171502)
(0.283476 0.0377341 0.0441169)
(0.236055 0.101611 0.0374364)
(0.0869499 0.016688 0.0318046)
(0.111403 0.00181339 0.0383859)
(0.0274048 -0.0052343 0.0108025)
(0.0210616 0.00405336 0.0121216)
(0.0553231 0.0141462 -0.0223413)
(0.136145 0.0290061 -0.0298913)
(0.246602 0.0536825 -0.0255144)
(0.195727 0.0295006 -0.00262832)
(0.27789 0.00597511 0.0274021)
(0.158979 -0.0156355 0.0487518)
(0.171266 -0.0104791 0.0215588)
(0.0682491 -0.0173486 0.0282043)
(0.0110351 0.00852605 0.0512669)
(0.0348441 -0.0104763 0.0633141)
(-0.0272387 0.0286316 0.00801874)
(-0.0187606 0.0537738 0.0596416)
(-0.0357407 0.0724987 0.0549063)
(0.00894051 0.0170188 -0.00195887)
(0.0291024 0.0227254 0.0875159)
(-0.00267387 0.0650628 0.07914)
(-0.0184243 0.0674353 0.0489732)
(0.0260572 0.0556213 0.0526034)
(0.0136552 0.0193113 -0.0216662)
(-0.00179772 0.075424 0.0377828)
(0.0283323 0.0619392 0.0247884)
(0.0409118 0.0460391 0.0385445)
(0.0475628 0.0543658 0.0165671)
(0.0519287 -0.0826714 0.0112656)
(0.0392012 -0.0536011 0.00225219)
(0.02617 -0.0330153 0.0895468)
(0.0848753 -0.0933153 0.0711814)
(0.054727 -0.144823 0.110887)
(0.0381456 -0.0275975 0.0485909)
(0.0566535 -0.0436177 0.132718)
(0.0889927 -0.0619539 0.0850753)
(0.0923322 -0.131251 0.176119)
(0.0626043 0.0712418 0.0755908)
(0.0784077 0.0359593 0.108515)
(0.109046 0.0773765 0.112333)
(0.0493052 0.0935939 0.106199)
(0.0536147 0.0694427 0.0898038)
(0.059939 0.0447001 0.168516)
(0.0807465 0.06438 0.166086)
(0.0600018 0.0572821 0.0926218)
(0.0387194 0.0453724 0.159575)
(0.0450871 -0.195254 0.0345574)
(0.00141539 -0.230137 0.052015)
(-0.00901172 -0.272446 0.0528704)
(0.0600572 -0.106352 0.0542841)
(0.0218809 -0.0952593 0.0405008)
(0.0528357 -0.144408 0.0809772)
(0.111508 0.0701412 0.0903428)
(0.025525 0.0312402 0.0650025)
(0.0584001 0.0215176 0.177479)
(0.100501 0.010706 0.170724)
(0.013052 -0.00610168 0.132699)
(-0.0326733 -0.222099 0.0172129)
(-0.0401913 -0.161467 -0.013173)
(0.00725366 -0.0896654 0.0291807)
(0.0270015 -0.132314 0.0364535)
(-0.00564531 -0.115363 -0.0265547)
(0.0226022 0.0194516 0.0512357)
(0.0451103 0.027167 0.0609456)
(0.158671 0.00964904 0.159617)
(0.019174 -0.0334639 0.116328)
(0.042165 0.0103166 0.130449)
(-0.0474681 -0.10613 -0.0234385)
(-0.0273728 -0.0863536 -0.0725313)
(0.0214077 -0.147428 -0.0930744)
(-0.0168751 -0.0379875 -0.0503023)
(0.0193981 -0.0462033 -0.0952522)
(0.00488487 -0.122586 -0.105096)
(0.0379009 -0.167612 -0.130471)
(-0.0111987 -0.0549251 -0.126242)
(0.0267362 -0.0876126 -0.17779)
(0.213368 0.104417 0.0747428)
(0.241598 0.054952 0.117994)
(0.118594 0.0461265 0.0616638)
(0.221564 0.0235025 0.0415923)
(0.245814 0.119242 0.126549)
(0.299757 0.141573 0.13729)
(0.236843 0.112925 0.133699)
(0.0512236 0.0268129 0.114554)
(0.0379453 0.00784589 -0.0910059)
(0.0150017 -0.0166455 -0.160033)
(0.202588 0.0156926 -0.0876025)
(0.211648 0.0215532 -0.0251453)
(0.0576194 -0.0330099 -0.205434)
(0.13931 -0.0380324 -0.198349)
(0.132285 0.00410059 -0.105238)
(0.34055 -0.0138719 0.125136)
(0.281562 -0.00968003 0.0418389)
(0.263668 -0.034728 -0.025043)
(0.319687 -0.0204389 0.128652)
(0.220367 -0.020265 0.00106267)
(0.299013 -0.0691174 0.175179)
(0.0314257 -0.00563756 0.0554025)
(0.031002 -0.00608671 0.0268049)
(0.037551 0.0102118 -0.0346545)
(0.0488604 0.00751123 0.0895209)
(0.0350407 0.0452147 0.0787463)
(0.0679987 0.00809659 -0.0813462)
(0.0592347 -0.00120103 0.0850409)
(0.070275 0.0273777 0.084092)
(0.0341653 0.0846798 0.00258185)
(0.0473115 0.0760732 -0.0350125)
(0.0841521 0.0241792 -0.146149)
(0.0842624 0.0926926 -0.0358426)
(0.0671474 0.100669 -0.0943274)
(0.050021 0.0570982 -0.03617)
(0.0501537 0.06437 -0.0950809)
(0.0310836 -0.0267784 -0.00982971)
(0.0285052 -0.0139121 -0.0359427)
(0.055279 -0.0296574 0.155921)
(0.0813647 -0.0338721 0.0911765)
(0.107782 -0.138852 0.277023)
(0.0244334 0.0133989 0.00458281)
(0.0506842 -0.013721 0.184356)
(0.0770288 -0.0136521 0.0872212)
(0.0913529 -0.133354 0.376125)
(0.0463598 0.063045 0.0784695)
(0.0331347 0.0636711 0.203302)
(0.0515484 0.0615418 0.206458)
(0.0275395 0.089663 0.06642)
(0.0326572 0.0419647 0.0568706)
(0.0262007 0.060153 0.229489)
(0.0139398 0.0320772 0.233151)
(0.0240701 0.0252284 0.231016)
(-0.01047 -0.0199752 0.28034)
(0.062091 -0.0514605 0.0288922)
(0.0175124 -0.0233892 -0.0047811)
(0.0769617 -0.0678664 0.0592737)
(0.0691626 -0.0396281 -0.0263927)
(0.0177815 -0.0147309 -0.0530961)
(0.0923929 -0.0436444 0.00444329)
(0.0504424 -0.0685997 0.256831)
(-0.00593095 -0.0687111 0.210714)
(-0.0225121 -0.082582 0.3301)
(0.00689041 -0.145399 0.326172)
(-0.00951252 -0.141463 0.295201)
(0.0634543 -0.0737628 0.0132131)
(0.0307026 -0.0771476 -0.073904)
(0.0229309 -0.000393732 -0.0704419)
(0.0866574 -0.0176109 -0.0262114)
(0.0624756 -0.0228853 -0.125676)
(0.0309176 -0.095576 0.200388)
(0.0399853 -0.046458 0.226026)
(0.0885255 -0.167803 0.325082)
(0.0425938 -0.148426 0.313029)
(0.0680099 -0.122016 0.308001)
(0.00136907 -0.0646336 -0.142434)
(0.0240431 -0.0340812 -0.229301)
(0.060667 -0.15909 -0.148264)
(0.00656144 -0.061446 -0.224443)
(0.0433268 -0.103651 -0.256162)
(0.0566346 -0.0929095 -0.218952)
(0.0644039 -0.120528 -0.159622)
(0.01674 -0.0497814 -0.323895)
(0.0534134 -0.0928046 -0.325741)
(0.175766 0.0255318 0.228242)
(0.172309 0.0711503 0.2146)
(0.183012 0.0700578 0.22633)
(0.134827 -0.0816334 0.151715)
(0.106725 -0.0856683 0.326667)
(0.0958956 0.0145661 0.268187)
(0.097523 0.0494984 0.383659)
(0.0905502 -0.117494 0.274474)
(0.0147812 -0.0270531 -0.249675)
(0.026839 -0.0274465 -0.351848)
(0.116928 -0.0594277 -0.310372)
(0.108669 -0.0118294 -0.209549)
(0.0561345 -0.0386021 -0.388509)
(0.11137 -0.044892 -0.393666)
(0.113696 -0.0130816 -0.312335)
(0.240448 -0.0376346 0.165886)
(0.187623 -0.0297129 -0.0626735)
(0.185608 -0.0613967 -0.10466)
(0.180186 -0.0377231 0.20634)
(0.184989 -0.032289 -0.154789)
(0.154914 -0.0226088 0.325823)
(0.0377685 0.00724213 -0.0260841)
(0.0134299 -0.0191132 -0.135229)
(0.0849373 0.00132174 -0.140176)
(0.0574671 -0.00861856 0.0886824)
(0.0856544 -0.0175965 0.132195)
(0.0817892 -0.00407272 -0.19058)
(0.0243631 -0.0701343 0.149653)
(0.0859482 -0.0885122 0.219574)
(0.129604 0.0310014 -0.00783907)
(0.124882 0.082626 -0.173223)
(0.117479 0.0110149 -0.261987)
(0.154865 -0.0830529 0.163961)
(0.196201 -0.0484007 0.000407531)
(0.0954096 0.0795266 -0.217779)
(0.170109 0.0121588 -0.319265)
(0.0514173 -0.00644616 -0.173144)
(0.0171508 -0.0211843 -0.671939)