/*--------------------------------*- C++ -*----------------------------------*\
| =========                 |                                                 |
| \\      /  F ield         | OpenFOAM: The Open Source CFD Toolbox           |
|  \\    /   O peration     | Version:  5.x                                   |
|   \\  /    A nd           | Web:      www.OpenFOAM.org                      |
|    \\/     M anipulation  |                                                 |
\*---------------------------------------------------------------------------*/
FoamFile
{
    version     2.0;
    format      ascii;
    class       volScalarField;
    location    "3.85";
    object      p;
}
// * * * * * * * * * * * * * * * * * * * * * * * * * * * * * * * * * * * * * //

dimensions      [0 2 -2 0 0 0 0];

internalField   nonuniform List<scalar> 
10571
(
139.059
227.403
240.482
182.283
158.985
204.773
181.582
207.974
182.74
170.074
220.612
180.442
120.689
157.178
170.908
123.244
98.0441
134.055
155.133
173.361
136.984
91.0502
86.7995
102.651
54.3635
66.1361
54.2477
53.3186
52.3025
55.4493
54.6256
55.454
78.8228
94.85
70.9019
60.2938
62.2206
62.3151
60.0365
107.709
70.6089
65.4457
59.3626
63.5116
70.0037
71.7448
70.6148
65.5407
51.7769
54.8676
49.4345
50.5369
51.3544
57.042
56.6019
47.7778
56.0766
61.7306
59.0594
60.0941
64.7922
61.103
54.705
64.3338
63.1597
65.6747
60.6568
59.1501
59.8247
65.8518
65.1705
65.481
46.4947
51.4848
47.6991
45.7988
44.6682
55.0108
53.5221
46.7886
43.4097
47.5684
46.345
55.1097
55.4524
49.7115
47.944
44.942
50.4214
54.7584
51.9831
49.4195
41.8214
48.2045
37.2371
43.7184
39.6883
42.1948
41.9942
39.59
38.5686
54.2296
42.8735
40.6515
36.6142
38.7421
34.2066
50.5534
26.4415
30.4847
39.4314
39.3845
24.5453
23.9375
32.4819
33.3842
33.4244
24.0506
25.9274
28.7744
34.6334
23.2534
29.9049
33.8927
32.7114
23.0731
22.9326
28.8359
29.7685
30.5649
23.7347
22.9258
23.0901
22.3869
22.8557
26.3349
29.8661
23.836
22.9067
22.9087
22.7525
25.1347
25.9148
23.4043
23.7197
26.2441
24.5346
23.376
22.9091
26.8979
29.2844
23.5682
23.6743
23.1746
23.4581
22.9867
23.5149
23.4353
23.4747
23.6929
23.3683
22.4979
23.098
23.5579
23.2597
23.5144
23.3579
22.8538
23.3867
23.5587
23.5029
23.5739
24.0831
22.9466
23.4038
23.5955
22.0137
24.3124
23.4703
23.7469
22.8859
23.1879
23.2227
23.3696
23.4003
23.4565
23.4381
23.3483
23.8065
23.4708
23.4456
23.5209
23.2361
23.2824
23.3143
23.6231
23.5122
23.4346
23.4652
23.613
23.1863
23.4203
23.3371
23.1762
22.2663
23.4144
23.5178
23.2035
23.4852
23.3361
23.5093
23.2827
23.3588
23.4168
23.264
23.5012
23.3613
23.2853
23.3669
23.2381
23.1036
23.159
23.1987
23.3564
23.3169
23.4386
23.2949
23.3629
23.3122
23.2984
23.1643
23.3064
23.3638
23.1683
23.3116
23.0303
23.2652
23.2797
23.367
23.2196
23.3039
23.2007
23.3413
23.2404
23.0003
23.0825
23.0493
23.3802
23.2809
23.2812
23.3027
23.3073
23.2325
23.159
23.1704
23.24
23.2265
23.1219
23.0686
23.0226
23.2381
23.2487
23.3005
23.2061
23.2166
23.0899
23.3232
23.3397
22.9954
23.0822
23.1685
23.4883
23.3818
23.233
23.3138
23.2979
23.1744
23.1116
23.2819
23.2072
23.1426
23.119
22.9591
23.051
23.2315
23.2253
23.2584
23.2243
23.2106
23.1861
23.2806
23.3521
23.0742
23.1151
23.1913
23.4743
23.4379
23.2656
23.3721
23.3116
23.1752
23.1999
23.3609
23.2143
23.1163
23.2126
22.984
23.1133
22.9502
23.1237
23.2457
23.2698
23.2515
23.1557
23.2371
23.2535
23.1715
23.1323
23.1848
23.3002
23.3075
23.236
23.49
23.3637
23.2541
23.565
23.4926
23.3057
23.1792
23.3021
23.0687
23.1653
23.2811
23.1442
23.2627
23.3024
23.2837
23.1636
23.2327
23.1466
23.2382
23.1841
23.2457
23.1278
23.1678
23.2164
23.6389
23.4268
23.4778
23.6778
23.5006
23.3223
23.251
23.2845
23.0932
23.1917
23.3463
23.1637
23.2855
23.3511
23.3579
23.3541
23.2572
23.1268
23.2796
23.2455
23.3296
23.1116
23.1668
23.2557
23.713
23.4424
23.5994
23.5692
23.3144
23.2003
23.2246
23.2365
23.1019
23.1567
23.122
23.0367
23.296
23.4132
23.4062
23.4955
23.2968
23.204
23.3806
23.3389
23.393
23.258
23.3027
23.3443
23.6988
23.3765
23.5428
23.5464
23.1768
22.95
23.129
23.2376
23.176
23.1227
23.0845
22.9314
23.3109
23.4768
23.445
23.5702
23.3714
23.3436
23.4918
23.456
23.4743
23.4603
23.5087
23.4911
23.5612
23.1885
23.2539
23.3753
22.9617
22.7763
23.0765
23.2911
23.3175
23.3145
23.2034
22.9817
23.3427
23.5322
23.5228
23.5926
23.499
23.4932
23.572
23.5636
23.5559
23.6322
23.6754
23.621
23.2537
23.076
22.9328
23.078
22.7745
22.8595
23.1219
23.2977
23.4518
23.6098
23.3735
23.186
23.426
23.5785
23.5856
23.6488
23.6603
23.6238
23.6385
23.6393
23.6068
23.7498
23.7654
23.7074
23.0946
23.2535
22.7705
22.8685
22.9616
23.2789
23.2335
23.3009
23.523
23.8693
23.6253
23.472
23.5585
23.6267
23.6409
23.7649
23.8191
23.723
23.7071
23.6995
23.6707
23.8389
23.8333
23.7757
23.1038
23.5849
22.4986
22.9986
23.2305
23.6741
23.3575
23.3005
23.5075
24.0203
23.8855
23.762
23.6987
23.6846
23.6808
23.7714
23.9223
23.8
23.7888
23.7733
23.7772
23.8966
23.8931
23.8469
23.3252
24.0339
22.7758
23.2988
23.3893
23.9066
23.4796
23.3899
23.4617
23.7509
23.9864
23.8917
23.7976
23.7418
23.7194
23.7567
23.9413
23.8518
23.8699
23.8472
23.8427
23.9334
23.9366
23.9161
23.3905
24.0005
23.4215
23.5762
23.5105
23.753
23.4406
23.4516
23.5367
23.5609
23.9402
23.8697
23.8328
23.8014
23.7929
23.751
23.9131
23.8758
23.9256
23.9206
23.9085
23.9547
23.9589
23.9713
23.5605
23.7912
23.1574
23.5023
23.3171
23.5991
23.3887
23.3178
23.3691
23.4304
23.8543
23.8023
23.7995
23.8424
23.8691
23.802
23.8766
23.8771
23.9388
23.974
23.9978
23.9638
23.9635
24.0049
23.7981
23.663
23.0904
23.5126
23.0139
23.6344
23.5491
23.4798
23.3744
23.4133
23.7941
23.751
23.7675
23.8498
23.8877
23.8792
23.8448
23.8656
23.9339
23.9784
24.0499
23.9582
23.9674
24.0162
24.1387
23.9001
24.0911
23.9656
23.3318
23.7179
23.7505
23.7197
23.5814
23.6311
23.7834
23.7277
23.7463
23.8299
23.8651
23.8972
23.8216
23.8403
23.9117
23.9581
24.0337
23.9405
23.9496
23.9998
24.4299
24.0556
24.4768
24.2052
24.1295
23.7737
23.8141
23.8205
23.8132
23.8927
23.7842
23.708
23.7216
23.791
23.8119
23.8556
23.7965
23.8056
23.8707
23.9044
23.962
23.9134
23.9165
23.9514
24.4064
24.0316
24.277
24.2322
24.4065
23.7844
23.8016
23.8539
23.8647
23.9029
23.7808
23.6886
23.7017
23.7647
23.7579
23.8043
23.7691
23.7714
23.8314
23.8442
23.8767
23.8809
23.8757
23.8936
24.2247
23.9774
24.0978
24.125
24.202
23.7869
23.7587
23.8621
23.8481
23.8571
23.7689
23.6636
23.6802
23.7324
23.7441
23.7839
23.7352
23.7429
23.7947
23.8025
23.8226
23.8488
23.837
23.8449
24.0695
23.9211
23.9729
24.0076
24.0375
23.7869
23.7291
23.8363
23.8271
23.8532
23.7489
23.6228
23.6479
23.7099
23.7562
23.7905
23.696
23.7176
23.7628
23.7795
23.8011
23.8217
23.8071
23.8122
23.9603
23.8611
23.8877
23.9168
23.9368
23.754
23.7073
23.7926
23.8199
23.8531
23.7332
23.592
23.635
23.6998
23.7702
23.8104
23.664
23.6929
23.7363
23.7715
23.8004
23.8006
23.7846
23.7928
23.8892
23.8072
23.827
23.8524
23.8788
23.7065
23.6774
23.7523
23.8063
23.8527
23.6669
23.5779
23.6231
23.6914
23.7777
23.8375
23.6476
23.6724
23.716
23.7646
23.8138
23.781
23.7659
23.782
23.849
23.7808
23.793
23.8135
23.8449
23.685
23.6505
23.7196
23.7869
23.8393
23.6306
23.5761
23.6043
23.6779
23.7729
23.8423
23.6473
23.6553
23.707
23.7644
23.8205
23.7632
23.7529
23.7765
23.8344
23.7891
23.7877
23.7992
23.8272
23.7035
23.6433
23.6957
23.7702
23.8201
23.6941
23.6031
23.5889
23.6613
23.7516
23.8098
23.6724
23.6358
23.7051
23.7584
23.8089
23.7534
23.7456
23.7705
23.8393
23.8239
23.8085
23.8052
23.8222
23.7572
23.6642
23.6837
23.7576
23.8021
23.8201
23.6648
23.5889
23.6498
23.7231
23.7657
23.7184
23.6263
23.6971
23.7421
23.7792
23.7574
23.7425
23.7573
23.8573
23.8722
23.8491
23.8274
23.828
23.8281
23.7145
23.6871
23.7517
23.7879
23.9378
23.771
23.6157
23.648
23.6954
23.7312
23.7884
23.6283
23.6832
23.7192
23.7464
23.7769
23.7431
23.7403
23.8823
23.918
23.8923
23.8563
23.842
23.8929
23.7806
23.7045
23.7541
23.781
24.0024
23.9146
23.6942
23.6595
23.6827
23.7014
23.878
23.6538
23.6746
23.7056
23.7176
23.8074
23.7516
23.7358
23.9084
23.9527
23.9292
23.8882
23.8635
23.9439
23.8425
23.7458
23.7676
23.7931
24.0395
23.9718
23.7898
23.6975
23.6989
23.7032
24.0049
23.7766
23.6749
23.715
23.7176
23.8711
23.7791
23.755
23.9322
23.975
23.9546
23.9188
23.89
23.9799
23.8968
23.8171
23.8053
23.8241
24.0497
24.0059
23.8739
23.7431
23.7505
23.7421
24.1128
23.9102
23.7399
23.7461
23.7498
23.9721
23.8765
23.7992
23.9501
23.9856
23.9693
23.9406
23.9174
23.998
23.9442
23.8813
23.8609
23.8655
24.0435
24.0222
23.9331
23.8264
23.7958
23.7948
24.1164
24.008
23.8214
23.7811
23.7846
24.1531
23.9783
23.8314
23.9622
23.9857
23.9745
23.9539
23.9402
23.9983
23.9696
23.9204
23.9151
23.9061
24.0265
24.0148
23.9552
23.9006
23.8519
23.8472
24.0758
24.0166
23.9119
23.814
23.829
24.1937
24.0649
23.8415
23.9702
23.9807
23.9732
23.9637
23.9544
23.987
23.9586
23.9444
23.9502
23.9384
24.0044
23.9963
23.9435
23.9338
23.9107
23.9058
24.0303
23.9711
23.9181
23.889
23.9028
24.0631
23.9524
23.8906
23.9751
23.975
23.9703
23.9705
23.9596
23.9737
23.9471
23.9523
23.9733
23.9704
23.9848
23.9763
23.9373
23.9382
23.9487
23.9426
23.9962
23.9399
23.9154
23.9368
23.9568
23.9888
23.874
23.9784
23.9779
23.9723
23.9694
23.9743
23.9603
23.9639
23.9462
23.9594
23.9809
23.9866
23.9706
23.9627
23.9318
23.9456
23.9552
23.9617
23.9752
23.9449
23.9618
23.9704
23.9872
23.9761
23.9634
24.0094
23.9797
23.9771
23.9728
23.9759
23.9591
23.9636
23.956
23.9616
23.9787
23.988
23.9641
23.9554
23.9356
23.9529
23.9594
23.9712
23.9672
23.9545
23.9782
23.984
23.9802
23.9732
23.9953
24.0331
23.9825
23.9869
23.9824
23.9758
23.9602
23.9732
23.9686
23.9611
23.9767
23.9818
23.9709
23.9552
23.9491
23.9585
23.9643
23.9716
23.968
23.9662
23.978
23.99
23.9887
23.9754
23.9884
24.0103
23.9882
24.002
23.9952
23.9748
23.9634
23.9906
23.9794
23.9566
23.9701
23.9781
23.9877
23.971
23.9592
23.956
23.9692
23.9699
23.9783
23.9765
23.9836
23.9846
23.9873
23.9813
23.9825
23.9895
23.9982
24.0154
24.0104
23.9828
23.9706
24.0083
24.0096
23.9657
23.9549
23.9757
24.0092
23.994
23.9934
23.9618
23.9637
23.9685
23.9915
23.9862
23.9856
23.9776
23.9807
23.9896
23.9829
23.9829
24.0087
24.0238
24.0201
23.9979
23.9808
24.0183
24.0251
23.9901
23.9568
23.9772
24.0197
24.0111
24.0308
23.9773
23.9592
23.9705
24.002
23.9924
23.9779
23.9764
23.9759
23.9975
23.9829
23.9805
24.0137
24.0254
24.0197
24.007
23.9886
24.0178
24.0151
23.9917
23.9708
23.9827
24.0174
24.0135
24.0246
23.9845
23.9711
23.9765
24.0071
23.9937
23.9599
23.9735
23.9753
24.0046
23.9792
23.9758
24.0122
24.019
24.0138
24.0054
23.9905
24.013
24.001
23.9848
23.9721
23.9879
24.0141
24.0114
24.0066
23.9762
23.9743
23.9826
24.0093
23.9873
23.9456
23.959
23.9762
24.005
23.9723
23.9472
24.0075
24.0137
24.0074
23.9976
23.9861
24.0119
23.9883
23.9795
23.9631
23.9852
24.0153
24.0144
23.9902
23.972
23.9719
23.987
24.0106
23.9869
23.9514
23.944
23.9817
24.0062
23.9762
23.9275
24.0015
24.0114
24.0025
23.9897
23.979
24.0136
23.9791
23.9756
23.9632
23.9814
24.0178
24.0209
23.9832
23.9837
23.9723
23.9931
24.0098
23.9889
23.9565
23.9516
23.9968
24.005
23.9788
23.9637
23.9941
24.0081
23.9976
23.9804
23.9675
24.0115
23.9774
23.9706
23.9547
23.977
24.0193
24.0179
23.9859
23.9932
24.0091
24.0107
24.0075
23.9777
23.9735
24.0374
24.0543
23.9939
23.9667
24.0124
23.9865
24.0044
23.993
23.9726
23.9533
24.007
23.9762
23.9562
23.9482
23.9659
24.0136
24.0059
23.9845
23.9897
24.0193
24.019
24.001
23.9687
23.9584
24.0486
24.0523
23.9778
23.952
24.0074
23.98
24.0051
23.9898
23.9657
23.9344
24.0019
23.9759
23.9336
23.9227
23.9501
24.0043
23.9862
23.9709
23.9724
23.9848
23.9927
23.9915
23.9579
23.9331
23.9959
24.0071
23.9659
23.9442
23.9773
23.9739
24.0056
23.9891
23.9582
23.9104
23.9992
23.9773
23.9149
23.8729
23.9127
24.0013
23.9701
23.9607
23.9389
23.9237
23.9289
23.9936
23.968
23.9208
23.941
23.9445
23.9666
23.9356
23.9476
23.9692
24.0157
23.9958
23.9517
23.8791
24.0139
23.9902
23.8975
23.8112
23.8446
24.0203
23.9932
23.9628
23.9013
23.8531
23.8271
24.0195
23.9955
23.9272
23.9036
23.882
23.9888
23.9363
23.9337
23.9683
24.0374
24.0099
23.9486
23.8404
24.0459
24.0093
23.8814
23.7247
23.728
24.0623
24.0386
23.9796
23.8774
23.7875
23.7039
24.0672
24.0432
23.9485
23.8802
23.8266
24.0381
23.9534
23.9371
23.975
24.0668
24.0318
23.95
23.7932
24.0854
24.0283
23.8627
23.5774
23.4819
24.1164
24.0978
24.026
23.868
23.6954
23.5561
24.1365
24.1171
23.9974
23.8731
23.7684
24.1192
24.0243
23.9746
23.9952
24.1041
24.0643
23.9594
23.735
24.1219
24.0477
23.8454
23.3404
23.0143
24.1723
24.1631
24.0778
23.8599
23.5733
23.1298
24.218
24.2275
24.0793
23.8803
23.678
24.2425
24.1451
24.0566
24.0376
24.1479
24.1108
23.9865
23.6807
24.1627
24.0858
23.8477
23.0106
21.7276
24.2285
24.215
24.132
23.8505
23.322
21.8717
24.3096
24.3818
24.2157
23.8922
23.4304
24.4108
24.3322
24.2043
24.1087
24.2012
24.1705
24.042
23.6593
24.2036
24.1278
23.8727
22.6275
18.2166
24.2927
24.2692
24.1979
23.8584
23.0735
19.0996
-13.5522
24.4263
24.5846
24.4141
23.9102
22.6521
24.6533
24.6052
24.4633
24.2099
24.2692
24.244
24.1396
23.7234
24.2565
24.1951
24.0384
22.469
16.1756
0.580221
24.3596
24.3377
24.3555
23.9499
22.7167
18.4423
3.07127
24.5528
24.9134
24.7007
23.9559
20.8343
24.9322
24.9202
24.7405
24.3396
24.3468
24.3288
24.2662
23.9529
24.3492
24.2565
23.9707
22.5474
18.4105
5.10603
24.4134
24.3794
24.2581
23.731
22.2805
17.6317
4.68126
24.6421
24.9397
24.6235
23.9084
19.5984
6.10756
25.1133
25.0688
24.5937
24.4651
24.4363
24.4078
24.3862
24.2461
24.4399
24.2395
23.7902
22.7241
19.4012
5.4933
24.4363
24.3417
23.9876
23.4519
22.475
17.4264
1.4024
24.5507
24.547
24.162
23.552
19.4191
24.946
24.7186
24.3453
24.5722
24.527
24.4841
24.4961
24.4444
24.5069
24.3163
23.9613
23.3948
21.8772
24.4957
24.3722
24.0181
23.7267
23.2511
19.3491
-10.3544
24.0853
24.2555
24.0244
23.7859
21.985
24.6172
24.5157
24.3186
24.6992
24.624
24.5903
24.6146
24.6478
24.5833
24.443
24.3327
24.214
23.954
24.5775
24.4447
24.2513
24.1896
24.0649
23.0162
23.8005
24.2997
24.2847
24.1395
23.6852
24.5139
24.5516
24.4552
24.893
24.7296
24.7606
24.7963
24.9477
24.694
24.6601
24.7146
24.6935
24.939
24.7387
24.644
24.512
24.5355
24.5376
24.351
24.4376
24.5403
24.5808
24.4161
24.3433
24.6055
24.6937
24.6274
25.1486
24.821
24.9417
25.0304
25.1622
24.7865
24.7982
24.8401
24.9011
25.0433
24.8189
24.7535
24.7241
24.7563
24.6817
24.7474
24.7362
24.7264
24.8037
24.5987
24.6462
24.7513
24.8231
24.7993
25.1865
24.8885
24.9621
25.0295
25.1245
24.8631
24.8894
24.8347
24.9211
25.0281
24.859
24.8173
24.8335
24.8591
24.7763
24.8667
24.8407
24.8562
24.8988
24.7475
24.8057
24.8771
24.9062
24.9069
25.0586
24.9305
24.8129
24.9462
25.0423
24.9405
24.9166
24.8444
24.9249
25.0022
24.9195
24.9019
24.9324
24.8897
24.8516
24.9198
24.9166
24.9402
24.9343
24.852
24.9103
24.9657
24.9641
24.9817
24.9836
24.9735
24.7987
24.8944
24.9841
25.0323
24.9608
24.8815
24.9221
24.9953
24.9954
24.9822
24.9962
24.9249
24.8878
24.9637
24.9887
24.9807
24.9763
24.9277
24.9967
25.0257
25.0195
25.0491
25.0047
25.0518
24.8825
24.916
24.9681
25.1387
25.0522
24.9317
24.9257
24.9974
25.0797
25.0687
25.0558
24.9591
24.9123
24.9959
25.059
25.0262
24.9863
24.9948
25.0734
25.0792
25.0678
25.101
25.0997
25.1328
24.9687
24.9755
25.0008
25.2259
25.1275
25.0201
24.9706
25.0456
25.1272
25.1285
25.1031
25.0138
24.9723
25.0707
25.0842
25.0657
25.0297
25.0443
25.1198
25.0982
25.0857
25.1171
278.637
280.926
293.192
306.826
257.734
286.552
253.022
238.055
279.795
278.023
287.029
283.427
272.656
285.091
299.238
265.981
294.974
299.985
278.59
301.146
286.36
262.462
259.195
270.557
284.072
263.258
288.541
274.941
291.905
278.538
272.376
277.49
282.129
282.674
304.204
287.496
269.804
291.988
278.505
256.302
248.007
263.77
265.465
228.356
201.865
245.231
190.786
169.003
265.68
277.643
252.013
266.941
269.3
234.452
222.575
265.9
250.534
219.792
238.757
231.145
228.757
226.748
203.766
216.38
210.16
197.414
208.221
151.364
136.952
212.295
214.217
199.103
190.75
178.443
176.981
192.327
210.564
171.565
178.888
197.576
188.179
173.643
177.359
188.313
191.435
181.38
170.973
200.728
165.32
163.88
158.978
159.119
160.093
161.199
157.359
163.222
239.711
141.231
183.319
238.01
201.701
75.4329
127.417
75.975
151.122
134.622
65.7303
65.5455
60.526
126.25
61.5907
219.822
114.911
236.074
216.628
201.894
124.395
113.646
88.2232
66.8843
194.702
201.499
212.567
65.1787
97.3428
91.0214
122.074
199.751
132.035
228.838
226.853
230.046
119.158
127.614
113.143
137.641
124.197
124.822
117.665
114.631
214.637
182.53
121.224
100.591
89.6494
116.584
136.285
118.643
117.709
106.924
139.521
77.3451
114.639
104.921
93.0821
70.2391
69.3827
72.621
70.8588
118.131
135.782
108.511
88.9888
73.0135
70.9552
72.2309
87.2573
95.4338
72.5853
86.9861
93.9153
72.5779
72.2955
72.1668
97.1638
90.217
69.2326
67.9849
70.0171
66.9868
73.9649
57.0355
55.0304
63.6043
54.0724
53.9096
54.1249
53.6285
53.7228
53.2468
53.6401
53.5443
53.9621
54.0607
54.1913
62.675
56.8503
61.3307
56.6822
52.0839
56.6495
54.0195
56.3721
56.5348
57.0483
58.1254
73.5495
53.5814
52.5619
52.7223
57.0289
89.8387
67.6331
62.5973
72.6036
65.6353
56.874
61.2247
59.2955
100.014
102.565
73.1089
77.8657
83.0438
66.6785
67.2336
63.3734
62.6909
64.028
113.313
84.5325
85.7924
97.1545
68.8341
69.2933
66.1705
67.5351
69.9736
70.5157
67.951
65.936
67.0807
67.5046
66.9821
64.5452
66.5082
60.9256
66.8395
64.876
66.069
65.4988
71.518
67.7863
73.0579
71.9627
68.6113
70.2341
69.3718
67.1715
70.3018
68.8544
66.3027
68.0516
65.5587
53.9297
51.9748
52.0519
52.3314
52.0502
50.0751
50.9396
50.1435
51.7542
52.3501
49.3819
49.322
49.8977
51.8061
48.8402
55.9299
54.8217
52.5163
55.9235
55.6305
53.3371
51.2526
55.1351
54.0497
49.4962
49.6527
51.2321
47.8862
46.4875
47.2505
47.2835
56.7197
50.3854
55.6085
57.0404
56.3613
55.0534
54.3252
54.4278
62.4709
64.5644
54.007
54.0255
54.6972
58.9961
60.3841
54.5823
55.3318
56.3004
69.5042
59.0446
50.4648
53.2966
49.0381
61.7379
56.315
63.8
63.6685
64.2534
59.0965
61.7008
58.8045
60.3651
61.8245
64.4529
62.8688
55.1068
52.0595
58.1938
53.3593
50.9053
64.5391
59.883
66.8132
66.2832
60.0244
58.9057
58.1788
64.6973
65.2149
54.8106
59.7583
55.962
63.7769
50.0087
47.1759
47.4783
48.1611
47.4529
44.5756
45.1574
44.303
46.3516
46.7068
42.9672
42.9372
42.6041
45.5691
41.6479
53.5273
51.5815
49.8413
53.9682
52.8625
48.5972
47.9669
52.562
51.8811
42.639
44.6506
43.3561
41.644
38.9482
41.7351
39.2915
45.2245
41.0309
54.4276
52.0412
53.2142
53.664
48.8732
51.7868
47.7199
47.9447
42.2759
42.6866
42.8072
50.2438
45.2614
42.877
44.6032
33.176
45.9713
43.1586
42.1146
42.6984
38.9607
43.5834
28.2883
58.4785
48.623
53.6721
34.3979
51.41
27.7794
38.9632
41.5767
39.0152
37.6611
40.1588
33.8506
31.5298
32.7241
35.5898
50.1992
30.243
42.6849
42.1135
31.3526
30.2505
28.0284
43.1052
38.1167
29.6949
29.7371
28.5446
29.8936
41.4245
33.3926
41.7438
42.1843
41.2739
39.1762
39.2851
38.5657
39.6685
38.8937
37.0956
36.834
36.2215
38.15
35.528
44.7815
24.9368
43.4862
48.2145
50.088
26.6288
32.1519
27.7724
39.3705
36.8247
38.4887
35.7202
35.5546
34.6832
34.581
33.1118
37.7059
34.3562
49.5016
38.3777
46.0009
25.7902
24.4333
24.8784
38.3538
36.5243
35.4653
33.7536
29.3529
34.5357
26.395
25.5259
23.913
23.5565
37.6879
36.0837
36.1897
30.6024
33.7973
25.7438
24.2693
34.8372
23.5603
24.5482
22.8334
23.5506
23.3194
23.1007
31.4008
29.3097
30.7016
30.4221
29.497
27.7018
29.3452
31.0805
23.5122
23.3342
24.2111
24.1857
23.3878
23.3472
23.82
26.167
26.0411
24.3667
25.2504
25.7064
27.8393
23.8528
22.9188
36.0253
30.5486
35.8844
27.3081
23.0701
27.888
34.3048
34.0733
30.6404
30.9335
31.7909
33.1982
31.0811
23.0282
23.3533
23.2822
22.7671
23.5938
23.1173
22.7441
23.312
22.7204
32.343
31.194
30.8055
30.8381
30.7129
29.4208
29.1695
30.204
27.3234
22.8019
22.9296
22.8166
23.4027
23.5044
23.4565
24.5938
28.1216
24.4415
25.3341
23.4222
23.7929
23.1499
23.6201
23.7211
23.6256
23.52
23.5556
23.542
23.5814
22.4586
23.1065
23.3602
23.186
23.2571
24.7344
27.7091
24.0564
23.3542
23.3092
23.3885
23.3727
23.6682
23.8195
23.6578
23.5844
23.6074
23.5911
23.5998
23.429
23.3426
23.2791
23.1831
23.1376
23.0836
23.366
23.2269
23.2266
25.691
25.3835
26.6629
22.5156
23.4034
24.1898
24.7657
23.2448
23.3462
23.3658
23.284
23.6444
23.4278
23.3493
23.5214
24.1376
24.7747
23.5246
23.5014
23.9928
24.8479
23.6906
23.7022
22.5788
22.9306
22.4809
22.9863
23.599
22.8575
26.2925
28.4621
22.9704
23.239
24.8004
29.1432
26.8083
23.3754
23.4283
23.5063
23.3982
23.5623
23.399
23.513
23.4038
23.5602
29.2679
28.2339
27.1568
27.6272
27.2492
25.1579
24.636
24.292
23.3783
23.3507
23.564
23.5796
23.5383
23.5961
23.5154
23.3763
23.4291
23.329
23.4212
23.4386
23.4068
23.3742
23.1045
23.5319
23.0749
23.4469
23.2344
23.5632
23.5099
23.5213
23.5616
23.4487
23.5049
23.5381
23.5803
23.3104
23.439
23.4136
23.3523
23.5785
23.6625
22.965
23.6519
23.5073
23.6008
23.361
23.5336
23.5791
23.5766
23.6094
23.5012
23.5703
23.5336
23.589
23.4658
23.694
23.3964
23.322
23.3654
23.4548
23.421
23.3648
23.3658
23.2259
23.8877
24.0196
23.1933
23.4895
23.683
23.7791
23.6258
23.6194
23.6362
23.5862
23.5206
23.5576
23.4295
23.4285
23.4662
23.5413
23.4925
23.4511
23.5444
23.4152
23.754
23.5494
23.4193
23.6728
23.7629
23.5618
23.506
23.3241
23.7656
23.3568
23.3912
23.6222
23.4456
22.4437
22.3393
23.0931
22.7828
21.9672
23.3661
21.7424
23.4535
23.4407
23.3795
23.4099
23.4648
23.4208
23.3405
23.4078
23.4372
23.7048
22.5212
22.9372
21.637
21.7919
22.0818
22.3715
23.297
23.6362
23.2424
23.6805
23.5229
23.4584
23.5153
23.4685
23.4399
23.4429
23.4292
23.4131
23.4209
23.4007
23.5056
23.3273
23.5531
23.3216
23.5928
23.3573
23.5224
23.4142
23.514
23.5555
23.3899
23.4767
23.4312
23.5212
23.3371
23.6255
23.3452
23.2499
23.5312
23.5594
23.4353
23.5402
23.4069
23.5246
23.3895
23.5058
23.551
23.4933
23.582
23.4117
23.5598
23.5177
23.6155
23.76
23.5686
23.4155
23.3514
23.3246
23.4091
23.358
23.3099
23.2857
23.5713
23.5464
23.6612
23.2619
23.462
23.4596
23.5637
23.651
23.4324
23.6029
23.5769
23.5202
23.59
23.3786
23.3311
23.3576
23.459
23.3877
23.2931
23.3745
23.3768
23.5699
23.3823
23.3207
23.4749
23.5186
23.495
23.4808
23.3671
23.4857
23.3517
23.3311
23.424
23.2878
23.1106
22.62
23.2503
23.2463
23.0826
22.4307
23.0069
23.4082
23.3698
23.3558
23.3857
23.4382
23.4009
23.3626
23.3487
23.4048
22.5232
22.89
22.7938
23.0008
23.0849
23.3447
23.1761
23.2348
23.2187
23.3662
23.3511
23.3516
23.3241
23.2975
23.311
23.7308
23.3089
23.4726
23.197
23.8268
23.2195
23.4498
23.5292
23.3272
23.5306
23.6802
23.6203
23.5387
23.6948
23.25
23.4494
23.274
23.2848
23.371
23.4036
23.3348
23.5313
23.3117
23.1728
23.2081
23.3371
23.5609
23.5051
23.63
23.4979
23.6131
23.5989
23.6645
23.4383
23.3767
23.3303
23.2983
23.2875
23.3467
23.3171
23.3068
23.3034
23.2856
23.3844
23.452
23.0983
23.1834
23.3087
23.346
23.0211
23.3224
23.3442
23.2689
23.3367
23.3563
23.2965
23.3462
23.2623
23.3963
23.2775
23.2136
23.3567
23.3561
23.4607
23.4241
23.3207
23.4161
23.2926
23.3163
23.4091
23.3136
23.2689
23.2538
23.3089
23.2587
23.2799
23.1898
23.2522
23.3345
23.3025
23.3415
23.3054
23.3322
23.3242
23.2969
23.2644
23.2338
23.1958
23.3523
23.2509
23.1565
23.2205
23.2299
23.2412
23.2486
23.3279
23.297
23.2769
23.2942
23.2901
23.2623
23.2942
23.1364
23.6133
23.0016
23.0164
22.3319
23.3032
23.3105
23.2381
23.3203
23.2646
23.3108
23.0481
23.057
22.6482
23.0533
23.3501
23.3311
23.314
23.3213
23.3164
23.334
23.3007
23.3273
23.3164
23.148
23.2476
23.2668
23.0814
23.161
23.2209
23.2353
23.1287
23.3698
23.3891
23.3547
23.4017
23.4283
23.4259
23.4635
23.1894
23.3615
23.3291
23.1966
23.3844
23.2382
23.3723
23.3295
23.3152
23.3809
23.3126
23.3069
23.3452
23.2963
23.2542
23.2876
23.3034
23.2711
23.3149
23.2923
23.3302
23.2871
23.2823
23.248
23.2377
23.1385
23.3032
23.2123
23.2326
23.0944
23.2594
23.1558
23.2488
23.2279
23.3078
23.1491
23.2743
23.368
23.3654
23.2975
23.261
23.3018
23.3018
23.2649
23.2829
22.988
22.8117
23.0406
23.04
23.0732
23.3715
23.225
23.2467
23.3783
23.1938
23.0014
23.1135
23.1487
23.1675
23.1654
23.3122
23.2891
23.2893
23.3283
23.3099
23.3065
23.2681
23.3199
23.2925
23.1745
23.2159
23.2338
23.0985
23.1844
23.2208
23.2386
23.1823
23.4022
23.3904
23.5015
23.5086
23.5081
23.5257
23.5061
23.2231
23.4115
23.4376
23.2738
23.4589
23.2499
23.3086
23.3101
23.2977
23.3185
23.2828
23.2975
23.3051
23.2811
23.29
23.3631
23.3327
23.3174
23.3953
23.3696
23.3984
23.2714
23.2599
23.2063
23.2358
23.1149
23.2974
23.228
23.2352
23.1654
23.3473
23.1599
23.2847
23.3177
23.3809
23.1749
23.2977
23.3394
23.3278
23.2919
23.237
23.2174
23.2709
23.1331
23.1125
23.1111
23.1705
23.0787
23.1973
23.2917
23.2878
23.1512
23.1315
23.1396
23.1115
23.2065
23.1968
23.1952
23.2584
23.2048
23.2485
23.2079
23.2463
23.305
23.2704
23.2573
23.2216
23.2879
23.2402
23.1857
23.229
23.2388
23.119
23.18
23.2293
23.2368
23.1864
23.3582
23.3107
23.4763
23.476
23.3946
23.3958
23.4016
23.3108
23.4652
23.3904
23.3247
23.4083
23.2566
23.3341
23.3639
23.3111
23.3094
23.287
23.3354
23.3275
23.3033
23.3594
23.3936
23.4332
23.4067
23.3894
23.4136
23.4351
23.2474
23.2564
23.2679
23.2386
23.2199
23.3366
23.3132
23.2564
23.2675
23.4248
23.2191
23.3134
23.4257
23.4543
23.3133
23.3291
23.3286
23.3359
23.2626
23.0346
23.0552
23.264
23.0043
23.0806
23.2642
23.3618
23.1441
23.2876
23.3392
22.9953
23.0835
22.9191
22.937
23.0912
23.2758
23.224
23.1181
23.2288
23.2627
23.18
23.1834
23.2008
23.2658
23.2074
23.229
23.1839
23.2492
23.1732
23.1799
23.228
23.2381
23.1542
23.2008
23.2241
23.246
23.2033
23.2583
23.2013
23.3105
23.3075
23.2041
23.2189
23.2137
23.3148
23.2934
23.2239
23.2941
23.1758
23.2184
23.3956
23.4418
23.3693
23.3618
23.335
23.4231
23.4158
23.389
23.4343
23.4177
23.5554
23.4797
23.4666
23.4676
23.4949
23.2904
23.3316
23.3553
23.2837
23.2955
23.3945
23.401
23.3057
23.3192
23.4653
23.4023
23.3474
23.5276
23.4724
23.4171
23.3626
23.3544
23.3753
23.2852
23.1914
23.183
23.3128
23.3325
23.2889
23.306
23.3408
23.1842
23.3548
23.3866
23.0748
23.1404
23.473
23.2544
23.1981
23.244
23.3073
23.2512
23.3025
23.3467
23.2087
23.237
23.1748
23.2373
23.1449
23.2443
23.1745
23.2334
23.1314
23.2253
23.2335
23.2603
23.2165
23.2516
23.2565
23.2794
23.2854
23.1579
23.1393
23.1234
23.1164
23.0919
23.0603
23.0624
23.2858
23.0647
23.1408
23.2541
23.0566
23.2296
23.4843
23.5113
23.484
23.4691
23.4502
23.5258
23.5029
23.4923
23.5775
23.5285
23.6993
23.6713
23.5911
23.5062
23.4982
23.3676
23.3813
23.4346
23.3195
23.342
23.4488
23.4516
23.3184
23.3488
23.461
23.3545
23.3441
23.4166
23.4149
23.2503
23.3104
23.3687
23.3342
23.3112
23.314
23.287
23.2928
23.2574
23.2433
23.4144
23.4412
23.1815
23.4588
23.4801
23.2413
23.2141
23.2031
23.1627
23.2002
23.3785
23.3941
23.445
23.4441
23.4317
23.2523
23.2557
23.1801
23.2445
23.1366
23.2722
23.1974
23.2608
23.1684
23.2766
23.2823
23.303
23.2848
23.3056
23.3068
23.3242
23.3646
23.1588
23.1996
23.0505
23.0778
23.1715
23.0952
23.1373
23.2555
23.1558
23.2229
23.3
23.2684
23.2936
23.5369
23.5529
23.5562
23.542
23.5318
23.588
23.5826
23.5755
23.7073
23.637
23.7103
23.7118
23.6783
23.4747
23.4491
23.3638
23.3196
23.4623
23.2962
23.336
23.4195
23.4589
23.2652
23.3098
23.3515
23.1459
23.2517
23.23
23.2824
23.0737
23.1389
23.2845
23.2045
23.2624
23.2076
23.1851
23.2171
23.1633
23.1273
23.4586
23.4755
23.1268
23.4035
23.4159
23.0976
23.1773
23.0834
23.0481
23.1657
23.4819
23.4545
23.5306
23.4952
23.471
23.2609
23.28
23.2237
23.2998
23.2125
23.3202
23.2615
23.3392
23.2806
23.3396
23.3337
23.3506
23.4013
23.3913
23.3759
23.3892
23.4313
23.2693
23.3465
23.1789
23.236
23.3573
23.2918
23.3514
23.3678
23.3784
23.4038
23.4479
23.4797
23.413
23.528
23.4362
23.6029
23.5858
23.6031
23.567
23.5173
23.5702
23.6894
23.687
23.6538
23.619
23.6258
23.4192
23.3573
23.28
23.2384
23.408
23.2072
23.2285
23.2928
23.2794
23.1147
23.0551
23.2015
23.0323
23.0379
23.0982
23.1122
22.9969
22.9813
23.1398
23.1313
23.1553
23.129
23.0886
23.1036
23.1134
23.0836
23.3547
23.3766
23.1833
23.4065
23.4517
23.0363
23.1798
23.1329
23.0779
23.2277
23.5086
23.4932
23.5998
23.5371
23.5326
23.3209
23.3791
23.3113
23.4025
23.3485
23.423
23.3748
23.4607
23.4275
23.442
23.4426
23.4388
23.5089
23.4878
23.5159
23.4929
23.5177
23.4327
23.513
23.4126
23.4692
23.5548
23.5231
23.5748
23.529
23.5862
23.6057
23.6084
23.6705
23.5623
23.2816
23.1316
23.4709
23.3625
23.4732
23.3186
23.1906
23.3174
23.4936
23.5069
23.4169
23.3315
23.3477
23.2414
23.0987
23.1913
23.1542
23.0955
23.0084
22.8241
23.1027
22.9416
22.9219
22.5605
23.0287
22.9457
22.9698
22.8271
22.9864
22.8782
22.9793
23.1655
23.2405
23.0883
23.1198
23.1153
23.1129
23.1473
23.1584
23.5407
23.6152
23.4705
23.8569
23.8418
23.1657
23.3052
23.2889
23.2859
23.4092
23.5955
23.5728
23.5797
23.6555
23.6132
23.4578
23.5469
23.4453
23.536
23.499
23.5753
23.5242
23.605
23.5706
23.5311
23.5829
23.5443
23.6052
23.5647
23.6375
23.5915
23.5831
23.5888
23.6551
23.6131
23.6607
23.6944
23.6849
23.7233
23.6702
23.7297
23.7269
23.7149
23.7729
23.6678
23.0392
23.0041
23.1585
23.0744
23.1483
23.0584
23.045
23.0364
23.1901
23.1865
23.1505
23.1229
23.0418
22.9794
22.9335
23.1432
23.2306
22.8587
22.9191
22.384
23.1356
22.8478
23.0216
22.3667
23.0188
22.8783
23.0575
22.8299
23.0979
22.936
23.1944
23.3287
23.4501
23.1663
23.2618
23.2491
23.274
23.4068
23.3404
24.1633
24.0134
23.7094
24.1229
23.9916
23.4171
23.527
23.4775
23.504
23.6397
23.711
23.6528
23.7365
23.7171
23.6694
23.6419
23.7342
23.6057
23.679
23.633
23.7425
23.69
23.7445
23.6936
23.5941
23.6827
23.636
23.6701
23.6326
23.7195
23.6793
23.6292
23.7159
23.7675
23.7402
23.7694
23.7975
23.7801
23.8044
23.7471
23.805
23.801
23.7784
23.8314
23.7425
23.0172
23.061
23.0326
23.0727
23.0191
23.0573
23.0869
23.0983
23.107
22.911
23.1239
23.0893
22.7774
22.9522
23.0137
23.3497
23.5485
22.8944
23.1842
22.48
23.3828
22.9904
23.4031
22.7115
23.2034
23.0493
23.347
23.0941
23.3014
23.16
23.5535
23.5524
23.6842
23.4986
23.5861
23.5429
23.739
23.7707
23.7588
23.9086
23.8809
24.03
23.7639
23.7794
23.5701
23.7425
23.7754
23.6961
23.8411
23.7495
23.6848
23.7726
23.7529
23.697
23.8172
23.8863
23.7665
23.8054
23.745
23.8797
23.8298
23.8554
23.7925
23.6867
23.7538
23.7225
23.7334
23.7393
23.7861
23.7607
23.7157
23.8121
23.8514
23.8148
23.8356
23.8701
23.8435
23.8631
23.8119
23.858
23.8623
23.8496
23.8819
23.8094
23.1644
23.3729
23.0704
23.0546