/*--------------------------------*- C++ -*----------------------------------*\
| =========                 |                                                 |
| \\      /  F ield         | OpenFOAM: The Open Source CFD Toolbox           |
|  \\    /   O peration     | Version:  5.x                                   |
|   \\  /    A nd           | Web:      www.OpenFOAM.org                      |
|    \\/     M anipulation  |                                                 |
\*---------------------------------------------------------------------------*/
FoamFile
{
    version     2.0;
    format      ascii;
    class       volVectorField;
    location    "3.85";
    object      Us;
}
// * * * * * * * * * * * * * * * * * * * * * * * * * * * * * * * * * * * * * //

dimensions      [0 1 -1 0 0 0 0];

internalField   nonuniform List<vector> 
10571
(
(0.101647 0.0262971 -0.0241882)
(0.105173 -0.0341225 -0.0680454)
(0.251929 0.0879835 0.0355064)
(0.107556 0.0912524 0.189578)
(-0.116953 0.0266581 0.0338808)
(0.284239 0.0143776 -0.0446184)
(0.290453 0.186904 0.219095)
(-0.0944424 -0.0275256 0.111543)
(-0.167317 0.0444104 0.0524445)
(-0.0369188 0.0247512 -0.108754)
(0.0490677 0.0128432 -0.069393)
(0.271916 0.0191091 0.115871)
(0.201746 -0.0560853 0.219845)
(-0.0910094 0.019034 0.153454)
(0.0166077 -0.0855554 0.0709869)
(0.0206972 -0.158139 -0.0373459)
(0.130286 -0.0293009 -0.014322)
(0.114965 -0.106605 0.0792199)
(-0.0427895 -0.170678 0.167486)
(-0.0436912 -0.0455155 0.0878109)
(0.0129718 -0.0658885 -0.0893421)
(0.0673397 -0.0703041 -0.14921)
(0.0570291 -0.0907838 -0.0544425)
(0.00616212 0.00216758 0.00387814)
(0.0637661 -0.00293399 -0.325922)
(0.0466806 -0.0119324 -0.232929)
(0.11851 -0.0271588 -0.105748)
(0.0633338 0.0503218 0.0342099)
(0.00487369 0.0218531 -0.164475)
(0.0892865 -0.132424 -0.306296)
(0.192972 -0.142842 -0.026604)
(0.0316336 -0.0615628 -0.0227536)
(-0.0524107 -0.0919843 -0.0636875)
(-0.0481859 -0.0831033 -0.210192)
(0.00429516 -0.0676892 -0.295264)
(0.0448506 -0.133243 -0.268861)
(0.11605 -0.118259 -0.112195)
(0.0866928 -0.11097 -0.0656418)
(-0.00730871 -0.104175 -0.0206654)
(-0.0636176 -0.0872431 -0.185957)
(-0.0376179 -0.0343325 -0.357093)
(0.0867942 -0.0168327 -0.20243)
(0.122452 -0.0507914 -0.143089)
(0.101705 -0.0580602 -0.0738984)
(0.0537238 -0.0981833 -0.287096)
(0.0332033 0.0226971 -0.411939)
(0.0936934 0.00158013 -0.362487)
(0.15982 -0.0579071 -0.331527)
(0.0554969 -0.00507521 -0.239684)
(0.0360317 -0.049445 -0.296083)
(0.113804 -0.175363 -0.131605)
(0.0631842 -0.0174284 -0.0170221)
(0.0548031 0.0498496 -0.121468)
(0.0145824 -0.173744 -0.23705)
(0.217378 -0.227864 0.0209062)
(0.124284 -0.111413 0.0106215)
(0.0694353 -0.106333 -0.00458515)
(-0.0289664 -0.046752 -0.234873)
(-0.012405 -0.0733905 -0.38075)
(-0.0141176 -0.128121 -0.208438)
(0.108518 -0.0902035 -0.079756)
(0.163797 -0.116596 -0.0664525)
(0.0806617 -0.157589 0.00183078)
(-0.00529471 -0.0957478 -0.177044)
(-0.036963 -0.000674155 -0.298207)
(0.0579289 -0.00296057 -0.137566)
(0.12407 -0.0671384 -0.0765952)
(0.112119 -0.130933 -0.0381507)
(0.0753688 -0.108012 -0.21879)
(0.0628772 0.0370957 -0.309787)
(0.0876966 -0.00388292 -0.258065)
(0.128739 -0.0723834 -0.19794)
(0.0321694 -0.0232856 -0.132831)
(0.0298 -0.0459704 -0.200217)
(0.15611 -0.322314 0.00327943)
(0.17825 -0.166297 0.114641)
(0.070269 0.0504549 -0.0101087)
(-0.0352254 -0.160375 -0.129062)
(0.190053 -0.216472 0.0452969)
(0.302474 -0.208122 0.0997196)
(0.150014 -0.099465 0.0617128)
(-0.00465647 -0.0156668 -0.210619)
(-0.0172723 -0.0480404 -0.294293)
(-0.0930323 -0.0835239 -0.14286)
(0.0621737 -0.000269722 -0.0941846)
(0.142687 -0.0484122 -0.0219674)
(0.157283 -0.0925197 0.0703244)
(0.0127451 -0.0502336 -0.130981)
(-0.0183466 0.0257488 -0.247753)
(0.0136557 0.0477518 -0.111868)
(0.139125 -0.0113543 0.0228895)
(0.174322 -0.0593939 0.0125557)
(0.0517421 -0.0592164 -0.110813)
(0.101964 0.0464327 -0.240955)
(0.104208 0.0176118 -0.185522)
(0.090241 -0.032992 -0.122497)
(0.0562079 -0.0206156 -0.036839)
(0.00911762 -0.0475672 -0.0817925)
(0.157244 -0.390404 0.12301)
(0.236499 -0.2238 0.243834)
(0.132551 0.00523574 0.129058)
(-0.0916476 -0.107365 -0.0371516)
(0.0341648 -0.0206314 -0.0730704)
(0.170009 -0.0372079 0.0104032)
(0.245954 -0.0542902 0.127466)
(0.0275601 -0.0265359 -0.109126)
(-0.158922 -0.019359 -0.204027)
(-0.121788 0.0027223 -0.0785428)
(0.0241538 0.0476446 -0.142221)
(0.0784368 0.0219673 -0.0798339)
(0.17912 -0.0101393 0.0960488)
(0.0744552 0.00670333 -0.0338017)
(-0.0595351 0.0694603 -0.213275)
(0.0105356 0.0758698 -0.145842)
(0.0725975 0.0643797 -0.0294804)
(0.146582 0.0774152 -0.0246561)
(-0.0235363 0.0631972 -0.100127)
(0.0500907 0.109847 -0.21679)
(0.0915984 0.139456 -0.177172)
(0.0355534 -0.00876532 -0.0817739)
(0.0808814 0.0107003 0.0237482)
(-0.0407333 -0.0137512 0.0743334)
(-0.0681864 -0.169161 0.0834698)
(0.223317 -0.244343 0.244747)
(0.147045 -0.0213918 0.213061)
(-0.109336 -0.0691366 -0.0661785)
(-0.026607 -0.00309225 -0.0929802)
(0.0919992 0.0168387 -0.00432168)
(0.188225 -0.00567572 0.0755073)
(0.14102 -0.0235868 0.0478473)
(-0.00573524 0.00335251 -0.0030902)
(0.128355 0.00324087 -0.0810946)
(-0.0811587 -0.00354653 -0.136169)
(0.00499176 0.0495551 -0.155043)
(0.0624022 0.0684622 -0.0813445)
(0.153323 0.0542235 0.0275813)
(0.254999 0.0425389 0.140334)
(-0.000876311 -0.000198822 -0.000518235)
(-0.0589298 0.0463504 -0.19299)
(0.0152731 0.0744494 -0.165437)
(0.0627536 0.0977864 -0.0712541)
(0.110793 0.117653 -0.0560027)
(0.0696207 0.0743398 -0.0320443)
(0.0410727 0.18697 -0.219413)
(0 0 0)
(0.118351 0.183423 -0.120332)
(-0.0146427 -0.0216279 0.185936)
(0 0 0)
(-0.184175 -0.160091 0.0328048)
(0.0148773 -0.160468 0.202627)
(0.142604 -0.0328393 0.356052)
(0 0 0)
(-0.0413771 0.0148793 -0.11197)
(0.0680158 0.00883687 0.0017535)
(0.156972 0.0143327 0.061077)
(0.227545 -0.010804 0.0741268)
(0.474016 0.0821978 0.0105735)
(0 0 0)
(0 0 0)
(-0.0676044 0.105807 -0.154739)
(0.0694727 0.136582 -0.0879256)
(0.146338 0.134478 -0.0087317)
(0.219615 0.0998185 0.0298638)
(0 0 0)
(0 0 0)
(0 0 0)
(0 0 0)
(0 0 0)
(-0.0841957 0.0148958 0.105242)
(0 0 0)
(0 0 0)
(0 0 0)
(0 0 0)
(-0.143402 -0.170043 0.107814)
(0 0 0)
(0 0 0)
(-0.0452404 -0.119239 0.250078)
(0.148717 -0.0901082 0.328369)
(0 0 0)
(-0.0314046 -0.0046373 -0.0528693)
(0 0 0)
(0.206164 0.114823 0.484831)
(0 0 0)
(0 0 0)
(0 0 0)
(0 0 0)
(0 0 0)
(0 0 0)
(0 0 0)
(0 0 0)
(0 0 0)
(0 0 0)
(0 0 0)
(0 0 0)
(0 0 0)
(0 0 0)
(0 0 0)
(0 0 0)
(0 0 0)
(0 0 0)
(0 0 0)
(0 0 0)
(0 0 0)
(0 0 0)
(0 0 0)
(0 0 0)
(0 0 0)
(0 0 0)
(0 0 0)
(0 0 0)
(0 0 0)
(0 0 0)
(0 0 0)
(0 0 0)
(0 0 0)
(0 0 0)
(0 0 0)
(0 0 0)
(0 0 0)
(0 0 0)
(0 0 0)
(0 0 0)
(0 0 0)
(0 0 0)
(0 0 0)
(0 0 0)
(0 0 0)
(0 0 0)
(0 0 0)
(0 0 0)
(0 0 0)
(0 0 0)
(0 0 0)
(0 0 0)
(0 0 0)
(0 0 0)
(0 0 0)
(0 0 0)
(0 0 0)
(0 0 0)
(0 0 0)
(0 0 0)
(0 0 0)
(0 0 0)
(0 0 0)
(0 0 0)
(0 0 0)
(0 0 0)
(0 0 0)
(0 0 0)
(0 0 0)
(0 0 0)
(0 0 0)
(0 0 0)
(0 0 0)
(0 0 0)
(0 0 0)
(0 0 0)
(0 0 0)
(0 0 0)
(0 0 0)
(0 0 0)
(0 0 0)
(0 0 0)
(0 0 0)
(0 0 0)
(0 0 0)
(0 0 0)
(0 0 0)
(0 0 0)
(0 0 0)
(0 0 0)
(0 0 0)
(0 0 0)
(0 0 0)
(0 0 0)
(0 0 0)
(0 0 0)
(0 0 0)
(0 0 0)
(0 0 0)
(0 0 0)
(0 0 0)
(0 0 0)
(0 0 0)
(0 0 0)
(0 0 0)
(0 0 0)
(0 0 0)
(0 0 0)
(0 0 0)
(0 0 0)
(0 0 0)
(0 0 0)
(0 0 0)
(0 0 0)
(0 0 0)
(0 0 0)
(0 0 0)
(0 0 0)
(0 0 0)
(0 0 0)
(0 0 0)
(0 0 0)
(0 0 0)
(0 0 0)
(0 0 0)
(0 0 0)
(0 0 0)
(0 0 0)
(0 0 0)
(0 0 0)
(0 0 0)
(0 0 0)
(0 0 0)
(0 0 0)
(0 0 0)
(0 0 0)
(0 0 0)
(0 0 0)
(0 0 0)
(0 0 0)
(0 0 0)
(0 0 0)
(0 0 0)
(0 0 0)
(0 0 0)
(0 0 0)
(0 0 0)
(0 0 0)
(0 0 0)
(0 0 0)
(0 0 0)
(0 0 0)
(0 0 0)
(0 0 0)
(0 0 0)
(0 0 0)
(0 0 0)
(0 0 0)
(0 0 0)
(0 0 0)
(0 0 0)
(0 0 0)
(0 0 0)
(0 0 0)
(0 0 0)
(0 0 0)
(0 0 0)
(0 0 0)
(0 0 0)
(0 0 0)
(0 0 0)
(0 0 0)
(0 0 0)
(0 0 0)
(0 0 0)
(0 0 0)
(0 0 0)
(0 0 0)
(0 0 0)
(0 0 0)
(0 0 0)
(0 0 0)
(0 0 0)
(0 0 0)
(0 0 0)
(0 0 0)
(0 0 0)
(0 0 0)
(0 0 0)
(0 0 0)
(0 0 0)
(0 0 0)
(0 0 0)
(0 0 0)
(0 0 0)
(0 0 0)
(0 0 0)
(0 0 0)
(0 0 0)
(0 0 0)
(0 0 0)
(0 0 0)
(0 0 0)
(0 0 0)
(0 0 0)
(0 0 0)
(0 0 0)
(0 0 0)
(0 0 0)
(0 0 0)
(0 0 0)
(0 0 0)
(0 0 0)
(0 0 0)
(0 0 0)
(0 0 0)
(0 0 0)
(0 0 0)
(0 0 0)
(0 0 0)
(0 0 0)
(0 0 0)
(0 0 0)
(0 0 0)
(0 0 0)
(0 0 0)
(0 0 0)
(0 0 0)
(0 0 0)
(0 0 0)
(0 0 0)
(0 0 0)
(0 0 0)
(0 0 0)
(0 0 0)
(0 0 0)
(0 0 0)
(0 0 0)
(0 0 0)
(0 0 0)
(0 0 0)
(0 0 0)
(0 0 0)
(0 0 0)
(0 0 0)
(0 0 0)
(0 0 0)
(0 0 0)
(0 0 0)
(0 0 0)
(0 0 0)
(0 0 0)
(0 0 0)
(0 0 0)
(0 0 0)
(0 0 0)
(0 0 0)
(0 0 0)
(0 0 0)
(0 0 0)
(0 0 0)
(0 0 0)
(0 0 0)
(0 0 0)
(0 0 0)
(0 0 0)
(0 0 0)
(0 0 0)
(0 0 0)
(0 0 0)
(0 0 0)
(0 0 0)
(0 0 0)
(0 0 0)
(0 0 0)
(0 0 0)
(0 0 0)
(0 0 0)
(0 0 0)
(0 0 0)
(0 0 0)
(0 0 0)
(0 0 0)
(0 0 0)
(0 0 0)
(0 0 0)
(0 0 0)
(0 0 0)
(0 0 0)
(0 0 0)
(0 0 0)
(0 0 0)
(0 0 0)
(0 0 0)
(0 0 0)
(0 0 0)
(0 0 0)
(0 0 0)
(0 0 0)
(0 0 0)
(0 0 0)
(0 0 0)
(0 0 0)
(0 0 0)
(0 0 0)
(0 0 0)
(0 0 0)
(0 0 0)
(0 0 0)
(0 0 0)
(0 0 0)
(0 0 0)
(0 0 0)
(0 0 0)
(0 0 0)
(0 0 0)
(0 0 0)
(0 0 0)
(0 0 0)
(0 0 0)
(0 0 0)
(0 0 0)
(0 0 0)
(0 0 0)
(0 0 0)
(0 0 0)
(0 0 0)
(0 0 0)
(0 0 0)
(0 0 0)
(0 0 0)
(0 0 0)
(0 0 0)
(0 0 0)
(0 0 0)
(0 0 0)
(0 0 0)
(0 0 0)
(0 0 0)
(0 0 0)
(0 0 0)
(0 0 0)
(0 0 0)
(0 0 0)
(0 0 0)
(0 0 0)
(0 0 0)
(0 0 0)
(0 0 0)
(0 0 0)
(0 0 0)
(0 0 0)
(0 0 0)
(0 0 0)
(0 0 0)
(0 0 0)
(0 0 0)
(0 0 0)
(0 0 0)
(0 0 0)
(0 0 0)
(0 0 0)
(0 0 0)
(0 0 0)
(0 0 0)
(0 0 0)
(0 0 0)
(0 0 0)
(0 0 0)
(0 0 0)
(0 0 0)
(0 0 0)
(0 0 0)
(0 0 0)
(0 0 0)
(0 0 0)
(0 0 0)
(0 0 0)
(0 0 0)
(0 0 0)
(0 0 0)
(0 0 0)
(0 0 0)
(0 0 0)
(0 0 0)
(0 0 0)
(0 0 0)
(0 0 0)
(0 0 0)
(0 0 0)
(0 0 0)
(0 0 0)
(0 0 0)
(0 0 0)
(0 0 0)
(0 0 0)
(0 0 0)
(0 0 0)
(0 0 0)
(0 0 0)
(0 0 0)
(0 0 0)
(0 0 0)
(0 0 0)
(0 0 0)
(0 0 0)
(0 0 0)
(0 0 0)
(0 0 0)
(0 0 0)
(0 0 0)
(0 0 0)
(0 0 0)
(0 0 0)
(0 0 0)
(0 0 0)
(0 0 0)
(0 0 0)
(0 0 0)
(0 0 0)
(0 0 0)
(0 0 0)
(0 0 0)
(0 0 0)
(0 0 0)
(0 0 0)
(0 0 0)
(0 0 0)
(0 0 0)
(0 0 0)
(0 0 0)
(0 0 0)
(0 0 0)
(0 0 0)
(0 0 0)
(0 0 0)
(0 0 0)
(0 0 0)
(0 0 0)
(0 0 0)
(0 0 0)
(0 0 0)
(0 0 0)
(0 0 0)
(0 0 0)
(0 0 0)
(0 0 0)
(0 0 0)
(0 0 0)
(0 0 0)
(0 0 0)
(0 0 0)
(0 0 0)
(0 0 0)
(0 0 0)
(0 0 0)
(0 0 0)
(0 0 0)
(0 0 0)
(0 0 0)
(0 0 0)
(0 0 0)
(0 0 0)
(0 0 0)
(0 0 0)
(0 0 0)
(0 0 0)
(0 0 0)
(0 0 0)
(0 0 0)
(0 0 0)
(0 0 0)
(0 0 0)
(0 0 0)
(0 0 0)
(0 0 0)
(0 0 0)
(0 0 0)
(0 0 0)
(0 0 0)
(0 0 0)
(0 0 0)
(0 0 0)
(0 0 0)
(0 0 0)
(0 0 0)
(0 0 0)
(0 0 0)
(0 0 0)
(0 0 0)
(0 0 0)
(0 0 0)
(0 0 0)
(0 0 0)
(0 0 0)
(0 0 0)
(0 0 0)
(0 0 0)
(0 0 0)
(0 0 0)
(0 0 0)
(0 0 0)
(0 0 0)
(0 0 0)
(0 0 0)
(0 0 0)
(0 0 0)
(0 0 0)
(0 0 0)
(0 0 0)
(0 0 0)
(0 0 0)
(0 0 0)
(0 0 0)
(0 0 0)
(0 0 0)
(0 0 0)
(0 0 0)
(0 0 0)
(0 0 0)
(0 0 0)
(0 0 0)
(0 0 0)
(0 0 0)
(0 0 0)
(0 0 0)
(0 0 0)
(0 0 0)
(0 0 0)
(0 0 0)
(0 0 0)
(0 0 0)
(0 0 0)
(0 0 0)
(0 0 0)
(0 0 0)
(0 0 0)
(0 0 0)
(0 0 0)
(0 0 0)
(0 0 0)
(0 0 0)
(0 0 0)
(0 0 0)
(0 0 0)
(0 0 0)
(0 0 0)
(0 0 0)
(0 0 0)
(0 0 0)
(0 0 0)
(0 0 0)
(0 0 0)
(0 0 0)
(0 0 0)
(0 0 0)
(0 0 0)
(0 0 0)
(0 0 0)
(0 0 0)
(0 0 0)
(0 0 0)
(0 0 0)
(0 0 0)
(0 0 0)
(0 0 0)
(0 0 0)
(0 0 0)
(0 0 0)
(0 0 0)
(0 0 0)
(0 0 0)
(0 0 0)
(0 0 0)
(0 0 0)
(0 0 0)
(0 0 0)
(0 0 0)
(0 0 0)
(0 0 0)
(0 0 0)
(0 0 0)
(0 0 0)
(0 0 0)
(0 0 0)
(0 0 0)
(0 0 0)
(0 0 0)
(0 0 0)
(0 0 0)
(0 0 0)
(0 0 0)
(0 0 0)
(0 0 0)
(0 0 0)
(0 0 0)
(0 0 0)
(0 0 0)
(0 0 0)
(0 0 0)
(0 0 0)
(0 0 0)
(0 0 0)
(0 0 0)
(0 0 0)
(0 0 0)
(0 0 0)
(0 0 0)
(0 0 0)
(0 0 0)
(0 0 0)
(0 0 0)
(0 0 0)
(0 0 0)
(0 0 0)
(0 0 0)
(0 0 0)
(0 0 0)
(0 0 0)
(0 0 0)
(0 0 0)
(0 0 0)
(0 0 0)
(0 0 0)
(0 0 0)
(0 0 0)
(0 0 0)
(0 0 0)
(0 0 0)
(0 0 0)
(0 0 0)
(0 0 0)
(0 0 0)
(0 0 0)
(0 0 0)
(0 0 0)
(0 0 0)
(0 0 0)
(0 0 0)
(0 0 0)
(0 0 0)
(0 0 0)
(0 0 0)
(0 0 0)
(0 0 0)
(0 0 0)
(0 0 0)
(0 0 0)
(0 0 0)
(0 0 0)
(0 0 0)
(0 0 0)
(0 0 0)
(0 0 0)
(0 0 0)
(0 0 0)
(0 0 0)
(0 0 0)
(0 0 0)
(0 0 0)
(0 0 0)
(0 0 0)
(0 0 0)
(0 0 0)
(0 0 0)
(0 0 0)
(0 0 0)
(0 0 0)
(0 0 0)
(0 0 0)
(0 0 0)
(0 0 0)
(0 0 0)
(0 0 0)
(0 0 0)
(0 0 0)
(0 0 0)
(0 0 0)
(0 0 0)
(0 0 0)
(0 0 0)
(0 0 0)
(0 0 0)
(0 0 0)
(0 0 0)
(0 0 0)
(0 0 0)
(0 0 0)
(0 0 0)
(0 0 0)
(0 0 0)
(0 0 0)
(0 0 0)
(0 0 0)
(0 0 0)
(0 0 0)
(0 0 0)
(0 0 0)
(0 0 0)
(0 0 0)
(0 0 0)
(0 0 0)
(0 0 0)
(0 0 0)
(0 0 0)
(0 0 0)
(0 0 0)
(0 0 0)
(0 0 0)
(0 0 0)
(0 0 0)
(0 0 0)
(0 0 0)
(0 0 0)
(0 0 0)
(0 0 0)
(0 0 0)
(0 0 0)
(0 0 0)
(0 0 0)
(0 0 0)
(0 0 0)
(0 0 0)
(0 0 0)
(0 0 0)
(0 0 0)
(0 0 0)
(0 0 0)
(0 0 0)
(0 0 0)
(0 0 0)
(0 0 0)
(0 0 0)
(0 0 0)
(0 0 0)
(0 0 0)
(0 0 0)
(0 0 0)
(0 0 0)
(0 0 0)
(0 0 0)
(0 0 0)
(0 0 0)
(0 0 0)
(0 0 0)
(0 0 0)
(0 0 0)
(0 0 0)
(0 0 0)
(0 0 0)
(0 0 0)
(0 0 0)
(0 0 0)
(0 0 0)
(0 0 0)
(0 0 0)
(0 0 0)
(0 0 0)
(0 0 0)
(0 0 0)
(0 0 0)
(0 0 0)
(0 0 0)
(0 0 0)
(0 0 0)
(0 0 0)
(0 0 0)
(0 0 0)
(0 0 0)
(0 0 0)
(0 0 0)
(0 0 0)
(0 0 0)
(0 0 0)
(0 0 0)
(0 0 0)
(0 0 0)
(0 0 0)
(0 0 0)
(0 0 0)
(0 0 0)
(0 0 0)
(0 0 0)
(0 0 0)
(0 0 0)
(0 0 0)
(0 0 0)
(0 0 0)
(0 0 0)
(0 0 0)
(0 0 0)
(0 0 0)
(0 0 0)
(0 0 0)
(0 0 0)
(0 0 0)
(0 0 0)
(0 0 0)
(0 0 0)
(0 0 0)
(0 0 0)
(0 0 0)
(0 0 0)
(0 0 0)
(0 0 0)
(0 0 0)
(0 0 0)
(0 0 0)
(0 0 0)
(0 0 0)
(0 0 0)
(0 0 0)
(0 0 0)
(0 0 0)
(0 0 0)
(0 0 0)
(0 0 0)
(0 0 0)
(0 0 0)
(0 0 0)
(0 0 0)
(0 0 0)
(0 0 0)
(0 0 0)
(0 0 0)
(0 0 0)
(0 0 0)
(0 0 0)
(0 0 0)
(0 0 0)
(0 0 0)
(0 0 0)
(0 0 0)
(0 0 0)
(0 0 0)
(0 0 0)
(0 0 0)
(0 0 0)
(0 0 0)
(0 0 0)
(0 0 0)
(0 0 0)
(0 0 0)
(0 0 0)
(0 0 0)
(0 0 0)
(0 0 0)
(0 0 0)
(0 0 0)
(0 0 0)
(0 0 0)
(0 0 0)
(0 0 0)
(0 0 0)
(0 0 0)
(0 0 0)
(0 0 0)
(0 0 0)
(0 0 0)
(0 0 0)
(0 0 0)
(0 0 0)
(0 0 0)
(0 0 0)
(0 0 0)
(0 0 0)
(0 0 0)
(0 0 0)
(0 0 0)
(0 0 0)
(0 0 0)
(0 0 0)
(0 0 0)
(0 0 0)
(0 0 0)
(0 0 0)
(0 0 0)
(0 0 0)
(0 0 0)
(0 0 0)
(0 0 0)
(0 0 0)
(0 0 0)
(0 0 0)
(0 0 0)
(0 0 0)
(0 0 0)
(0 0 0)
(0 0 0)
(0 0 0)
(0 0 0)
(0 0 0)
(0 0 0)
(0 0 0)
(0 0 0)
(0 0 0)
(0 0 0)
(0 0 0)
(0 0 0)
(0 0 0)
(0 0 0)
(0 0 0)
(0 0 0)
(0 0 0)
(0 0 0)
(0 0 0)
(0 0 0)
(0 0 0)
(0 0 0)
(0 0 0)
(0 0 0)
(0 0 0)
(0 0 0)
(0 0 0)
(0 0 0)
(0 0 0)
(0 0 0)
(0 0 0)
(0 0 0)
(0 0 0)
(0 0 0)
(0 0 0)
(0 0 0)
(0 0 0)
(0 0 0)
(0 0 0)
(0 0 0)
(0 0 0)
(0 0 0)
(0 0 0)
(0 0 0)
(0 0 0)
(0 0 0)
(0 0 0)
(0 0 0)
(0 0 0)
(0 0 0)
(0 0 0)
(0 0 0)
(0 0 0)
(0 0 0)
(0 0 0)
(0 0 0)
(0 0 0)
(0 0 0)
(0 0 0)
(0 0 0)
(0 0 0)
(0 0 0)
(0 0 0)
(0 0 0)
(0 0 0)
(0 0 0)
(0 0 0)
(0 0 0)
(0 0 0)
(0 0 0)
(0 0 0)
(0 0 0)
(0 0 0)
(0 0 0)
(0 0 0)
(0 0 0)
(0 0 0)
(0 0 0)
(0 0 0)
(0 0 0)
(0 0 0)
(0 0 0)
(0 0 0)
(0 0 0)
(0 0 0)
(0 0 0)
(0 0 0)
(0 0 0)
(0 0 0)
(0 0 0)
(0 0 0)
(0 0 0)
(0 0 0)
(0 0 0)
(0 0 0)
(0 0 0)
(0 0 0)
(0 0 0)
(0 0 0)
(0 0 0)
(0 0 0)
(0 0 0)
(0 0 0)
(0 0 0)
(0 0 0)
(0 0 0)
(0 0 0)
(0 0 0)
(0 0 0)
(0 0 0)
(0 0 0)
(0 0 0)
(0 0 0)
(0 0 0)
(0 0 0)
(0 0 0)
(0 0 0)
(0 0 0)
(0 0 0)
(0 0 0)
(0 0 0)
(0 0 0)
(0 0 0)
(0 0 0)
(0 0 0)
(0 0 0)
(0 0 0)
(0 0 0)
(0 0 0)
(0 0 0)
(0 0 0)
(0 0 0)
(0 0 0)
(0 0 0)
(0 0 0)
(0 0 0)
(0 0 0)
(0 0 0)
(0 0 0)
(0 0 0)
(0 0 0)
(0 0 0)
(0 0 0)
(0 0 0)
(0 0 0)
(0 0 0)
(0 0 0)
(0 0 0)
(0 0 0)
(0 0 0)
(0 0 0)
(0 0 0)
(0 0 0)
(0 0 0)
(0 0 0)
(0 0 0)
(0 0 0)
(0 0 0)
(0 0 0)
(0 0 0)
(0 0 0)
(0 0 0)
(0 0 0)
(0 0 0)
(0 0 0)
(0 0 0)
(0 0 0)
(0 0 0)
(0 0 0)
(0 0 0)
(0 0 0)
(0 0 0)
(0 0 0)
(0 0 0)
(0 0 0)
(0 0 0)
(0 0 0)
(0 0 0)
(0 0 0)
(0 0 0)
(0 0 0)
(0 0 0)
(0 0 0)
(0 0 0)
(0 0 0)
(0 0 0)
(0 0 0)
(0 0 0)
(0 0 0)
(0 0 0)
(0 0 0)
(0 0 0)
(0 0 0)
(0 0 0)
(0 0 0)
(0 0 0)
(0 0 0)
(0 0 0)
(0 0 0)
(0 0 0)
(0 0 0)
(0 0 0)
(0 0 0)
(0 0 0)
(0 0 0)
(0 0 0)
(0 0 0)
(0 0 0)
(0 0 0)
(0 0 0)
(0 0 0)
(0 0 0)
(0 0 0)
(0 0 0)
(0 0 0)
(0 0 0)
(0 0 0)
(0 0 0)
(0 0 0)
(0 0 0)
(0 0 0)
(0 0 0)
(0 0 0)
(0 0 0)
(0 0 0)
(0 0 0)
(0 0 0)
(0 0 0)
(0 0 0)
(0 0 0)
(0 0 0)
(0 0 0)
(0 0 0)
(0 0 0)
(0 0 0)
(0 0 0)
(0 0 0)
(0 0 0)
(0 0 0)
(0 0 0)
(0 0 0)
(0 0 0)
(0 0 0)
(0 0 0)
(0 0 0)
(0 0 0)
(0 0 0)
(0 0 0)
(0 0 0)
(0 0 0)
(0 0 0)
(0 0 0)
(0 0 0)
(0 0 0)
(0 0 0)
(0 0 0)
(0 0 0)
(0 0 0)
(0 0 0)
(0 0 0)
(0 0 0)
(0 0 0)
(0 0 0)
(0 0 0)
(0 0 0)
(0 0 0)
(0 0 0)
(0 0 0)
(0 0 0)
(0 0 0)
(0 0 0)
(0 0 0)
(0 0 0)
(0 0 0)
(0 0 0)
(0 0 0)
(0 0 0)
(0 0 0)
(0 0 0)
(0 0 0)
(0 0 0)
(0 0 0)
(0 0 0)
(0 0 0)
(0 0 0)
(0 0 0)
(0 0 0)
(0 0 0)
(0 0 0)
(0 0 0)
(0 0 0)
(0 0 0)
(0 0 0)
(0 0 0)
(0 0 0)
(0 0 0)
(0 0 0)
(0 0 0)
(0 0 0)
(0 0 0)
(0 0 0)
(0 0 0)
(0 0 0)
(0 0 0)
(0 0 0)
(0 0 0)
(0 0 0)
(0 0 0)
(0 0 0)
(0 0 0)
(0 0 0)
(0 0 0)
(0 0 0)
(0 0 0)
(0 0 0)
(0 0 0)
(0 0 0)
(0 0 0)
(0 0 0)
(0 0 0)
(0 0 0)
(0 0 0)
(0 0 0)
(0 0 0)
(0 0 0)
(0 0 0)
(0 0 0)
(0 0 0)
(0 0 0)
(0 0 0)
(0 0 0)
(0 0 0)
(0 0 0)
(0 0 0)
(0 0 0)
(0 0 0)
(0 0 0)
(0 0 0)
(0 0 0)
(0 0 0)
(0 0 0)
(0 0 0)
(0 0 0)
(0 0 0)
(0 0 0)
(0 0 0)
(0 0 0)
(0 0 0)
(0 0 0)
(0 0 0)
(0 0 0)
(0 0 0)
(0 0 0)
(0 0 0)
(0 0 0)
(0 0 0)
(0 0 0)
(0 0 0)
(0 0 0)
(0 0 0)
(0 0 0)
(0 0 0)
(0 0 0)
(0 0 0)
(0 0 0)
(0 0 0)
(0 0 0)
(0 0 0)
(0 0 0)
(0 0 0)
(0 0 0)
(0 0 0)
(0 0 0)
(0 0 0)
(0 0 0)
(0 0 0)
(0 0 0)
(0 0 0)
(0 0 0)
(0 0 0)
(0 0 0)
(0 0 0)
(0 0 0)
(0 0 0)
(0 0 0)
(0 0 0)
(0 0 0)
(0 0 0)
(0 0 0)
(0 0 0)
(0 0 0)
(0 0 0)
(0 0 0)
(0 0 0)
(0 0 0)
(0 0 0)
(0 0 0)
(0 0 0)
(0 0 0)
(0 0 0)
(0 0 0)
(0 0 0)
(0 0 0)
(0 0 0)
(0 0 0)
(0 0 0)
(0 0 0)
(0 0 0)
(0 0 0)
(0 0 0)
(0 0 0)
(0 0 0)
(0 0 0)
(0 0 0)
(0 0 0)
(0 0 0)
(0 0 0)
(0 0 0)
(0 0 0)
(0 0 0)
(0 0 0)
(0 0 0)
(0 0 0)
(0 0 0)
(0 0 0)
(0 0 0)
(0 0 0)
(0 0 0)
(0 0 0)
(0 0 0)
(0 0 0)
(0 0 0)
(0 0 0)
(0 0 0)
(0 0 0)
(0 0 0)
(0 0 0)
(0 0 0)
(0 0 0)
(0 0 0)
(0 0 0)
(0 0 0)
(0 0 0)
(0 0 0)
(0 0 0)
(0 0 0)
(0 0 0)
(0 0 0)
(0 0 0)
(0 0 0)
(0 0 0)
(0 0 0)
(0 0 0)
(0 0 0)
(0 0 0)
(0 0 0)
(0 0 0)
(0 0 0)
(0 0 0)
(0 0 0)
(0 0 0)
(0 0 0)
(0 0 0)
(0 0 0)
(0 0 0)
(0 0 0)
(0 0 0)
(0 0 0)
(0 0 0)
(0 0 0)
(0 0 0)
(0 0 0)
(0 0 0)
(0 0 0)
(0 0 0)
(0 0 0)
(0 0 0)
(0 0 0)
(0 0 0)
(0 0 0)
(0 0 0)
(0 0 0)
(0 0 0)
(0 0 0)
(0 0 0)
(0 0 0)
(0 0 0)
(0 0 0)
(0 0 0)
(0 0 0)
(0 0 0)
(0 0 0)
(0 0 0)
(0 0 0)
(0 0 0)
(0 0 0)
(0 0 0)
(0 0 0)
(0 0 0)
(0 0 0)
(0 0 0)
(0 0 0)
(0 0 0)
(0 0 0)
(0 0 0)
(0 0 0)
(0 0 0)
(0 0 0)
(0 0 0)
(0 0 0)
(0 0 0)
(0 0 0)
(0 0 0)
(0 0 0)
(0 0 0)
(0 0 0)
(0 0 0)
(0 0 0)
(0 0 0)
(0 0 0)
(0 0 0)
(0 0 0)
(0 0 0)
(0 0 0)
(0 0 0)
(0 0 0)
(0 0 0)
(0 0 0)
(0 0 0)
(0 0 0)
(0 0 0)
(0 0 0)
(0 0 0)
(0 0 0)
(0 0 0)
(0 0 0)
(0 0 0)
(0 0 0)
(0 0 0)
(0 0 0)
(0 0 0)
(0 0 0)
(0 0 0)
(0 0 0)
(0 0 0)
(0 0 0)
(0 0 0)
(0 0 0)
(0 0 0)
(0 0 0)
(0 0 0)
(0 0 0)
(0 0 0)
(0 0 0)
(0 0 0)
(0 0 0)
(0 0 0)
(0 0 0)
(0 0 0)
(0 0 0)
(0 0 0)
(0 0 0)
(0 0 0)
(0 0 0)
(0 0 0)
(0 0 0)
(0 0 0)
(0 0 0)
(0 0 0)
(0 0 0)
(0 0 0)
(0 0 0)
(0 0 0)
(0 0 0)
(0 0 0)
(0 0 0)
(0 0 0)
(0 0 0)
(0 0 0)
(0 0 0)
(0 0 0)
(0 0 0)
(0 0 0)
(0 0 0)
(0 0 0)
(0 0 0)
(0 0 0)
(0 0 0)
(0 0 0)
(0 0 0)
(0 0 0)
(0 0 0)
(0 0 0)
(0 0 0)
(0 0 0)
(0 0 0)
(0 0 0)
(0 0 0)
(0 0 0)
(0 0 0)
(0 0 0)
(0 0 0)
(0 0 0)
(0 0 0)
(0 0 0)
(0 0 0)
(0 0 0)
(0 0 0)
(0 0 0)
(0 0 0)
(0 0 0)
(0 0 0)
(0 0 0)
(0 0 0)
(0 0 0)
(0 0 0)
(0 0 0)
(0 0 0)
(0 0 0)
(0 0 0)
(0 0 0)
(0 0 0)
(0 0 0)
(0 0 0)
(0 0 0)
(0 0 0)
(0 0 0)
(0 0 0)
(0 0 0)
(0 0 0)
(0 0 0)
(0 0 0)
(0 0 0)
(0 0 0)
(0 0 0)
(0 0 0)
(0 0 0)
(0 0 0)
(0 0 0)
(0 0 0)
(0 0 0)
(0 0 0)
(0 0 0)
(0 0 0)
(0 0 0)
(0 0 0)
(0 0 0)
(0 0 0)
(0 0 0)
(0 0 0)
(0 0 0)
(0 0 0)
(0 0 0)
(0 0 0)
(0 0 0)
(0 0 0)
(0 0 0)
(0 0 0)
(0 0 0)
(0 0 0)
(0 0 0)
(0 0 0)
(0 0 0)
(0 0 0)
(0 0 0)
(0 0 0)
(0 0 0)
(0 0 0)
(0 0 0)
(0 0 0)
(0 0 0)
(0 0 0)
(0 0 0)
(0 0 0)
(0 0 0)
(0 0 0)
(0 0 0)
(0 0 0)
(0 0 0)
(0 0 0)
(0 0 0)
(0 0 0)
(0 0 0)
(0 0 0)
(0 0 0)
(0 0 0)
(0 0 0)
(0 0 0)
(0 0 0)
(0 0 0)
(0 0 0)
(0 0 0)
(0 0 0)
(0 0 0)
(0 0 0)
(0 0 0)
(0 0 0)
(0 0 0)
(0 0 0)
(0 0 0)
(0 0 0)
(0 0 0)
(0 0 0)
(0 0 0)
(0 0 0)
(0 0 0)
(0 0 0)
(0 0 0)
(0 0 0)
(0 0 0)
(0 0 0)
(0 0 0)
(0 0 0)
(0 0 0)
(0 0 0)
(0 0 0)
(0 0 0)
(0 0 0)
(0 0 0)
(0 0 0)
(0 0 0)
(0 0 0)
(0 0 0)
(0 0 0)
(0 0 0)
(0 0 0)
(0 0 0)
(0 0 0)
(0 0 0)
(0 0 0)
(0 0 0)
(0 0 0)
(0 0 0)
(0 0 0)
(0 0 0)
(0 0 0)
(0 0 0)
(0 0 0)
(0 0 0)
(0 0 0)
(0 0 0)
(0 0 0)
(0 0 0)
(0 0 0)
(0 0 0)
(0 0 0)
(0 0 0)
(0 0 0)
(0 0 0)
(0 0 0)
(0.0941268 -0.0130828 -0.0156891)
(0.0472131 0.0201836 -0.00100019)
(0.139768 0.0163813 0.00888632)
(0.113808 0.0405893 0.048201)
(0.046488 0.032726 0.0112361)
(0.0499291 0.0575331 0.0704621)
(0.0340394 0.0777843 0.0560778)
(0.0102789 0.0222295 0.0227122)
(0.0873105 -0.0604396 -0.018848)
(0.100022 -0.031794 -0.0131194)
(0.166279 0.0140056 -0.00472896)
(0.193604 -0.0275262 -0.00496469)
(0.293509 0.0610315 0.0656929)
(0.246942 0.0764329 0.0378949)
(0.175685 0.0708551 0.108239)
(0.271089 0.154014 0.126218)
(0.129242 0.0802707 0.103707)
(0.0403456 0.0493516 0.0777056)
(-0.0427044 0.065634 0.0938535)
(0.0202128 0.0154186 0.0551346)
(-0.090309 0.00329706 0.0639315)
(-0.10105 0.0409281 0.049978)
(-0.0641091 -0.00212364 -0.0191283)
(-0.19878 0.0558782 0.0630336)
(-0.0770698 0.0446571 -0.02401)
(-0.00423569 0.0626655 -0.0304885)
(0.116968 -0.042593 -0.0213625)
(0.0454831 0.0102562 -0.0151221)
(0.123357 0.0193013 0.00496963)
(0.276724 0.00890498 0.0222766)
(0.369923 0.0911237 0.109189)
(0.272184 0.0472963 0.0864786)
(0.277861 0.0623362 0.134927)
(0.236035 0.14255 0.13444)
(0.0759043 0.0858028 0.0861172)
(0.143409 0.0691824 0.0977785)
(0.0462832 0.0485802 0.0633848)
(-0.00746598 0.021259 0.0675174)
(-0.0960069 -0.027001 0.046234)
(-0.0198199 0.0605177 0.0827599)
(0.0370723 -0.0231551 0.024577)
(-0.127908 0.0680576 0.0429585)
(-0.0800359 0.138101 0.0183371)
(0.0224758 -0.00224563 0.0325661)
(-0.0184247 0.0812504 0.0291836)
(0.00571252 0.10298 -0.0135126)
(0.00139226 0.060584 0.0115857)
(0.00155556 0.0185546 -0.0184222)
(0.0528053 0.0326616 0.0104464)
(0.129001 0.0669821 0.0375784)
(0.121423 0.0914988 0.01034)
(0.235025 0.0581533 0.112313)
(0.196869 0.022195 0.11402)
(0.21569 0.0385945 0.0755379)
(0.218822 -0.0365861 0.114023)
(0.108931 0.00376609 0.0843996)
(0.0421967 -0.00672724 0.057345)
(0.124966 -0.0806355 0.112128)
(0.033768 -0.0699543 0.083783)
(-0.032334 0.00219092 0.0568401)
(-0.0660815 -0.0466977 0.0444861)
(-0.0239882 -0.0483977 0.0598537)
(-0.0667613 -0.0553836 0.0569758)
(0.00693457 -0.0588529 0.0323433)
(0.0216569 -0.0207187 0.0260206)
(-0.0758065 -0.0621668 0.049467)
(0.00611497 -0.0824462 0.0363095)
(0.0204064 -0.0148504 0.0125329)
(0.00613077 0.0278613 0.00240562)
(0.0196233 -0.0547456 0.00535698)
(0.0853744 0.0569569 -0.0138303)
(0.145407 0.00733834 0.0146509)
(0.164646 -0.0410044 0.0665739)
(0.0650766 -0.0234533 -0.0273516)
(0.101988 -0.0635216 0.000749653)
(0.104981 -0.100255 0.0969547)
(0.054659 -0.101943 0.0944789)
(0.0919058 -0.100845 0.0461005)
(0.0533786 -0.11254 0.0808597)
(0.00645559 -0.0808032 0.0871489)
(-0.0637769 -0.0862408 0.0860388)
(0.0150284 -0.121177 0.106389)
(-0.0141995 -0.07266 0.0671772)
(-0.0488424 -0.0422853 0.0631422)
(-0.00717079 -0.0282617 0.0085238)
(-0.000994061 -0.00807312 0.026365)
(-0.0118015 -0.00654739 -0.00700761)
(-0.000526683 -0.0377851 -0.0125041)
(0.0410896 -0.0532882 -0.0367394)
(0.0569238 -0.0864496 -0.0360643)
(0.04694 -0.124069 -0.0213722)
(0.0369674 -0.0560731 -0.0920779)
(0.0612784 -0.122132 -0.0217576)
(0.0514868 -0.0586584 0.000644617)
(0.0654091 -0.0689194 -0.0912566)
(0.000615749 0.000126085 0.000153299)
(0.121064 -0.0226141 -0.0420874)
(0.101578 -0.0228154 -0.120966)
(0.121625 0.00914215 -0.0200708)
(0.175202 0.00753304 -0.0171829)
(0.172861 0.0596254 0.0591863)
(0.138521 -0.00311109 -0.0762958)
(0.148995 -0.00648589 -0.0830659)
(0.170407 0.0284701 0.00849336)
(0.0926229 0.0688182 0.0656981)
(0.0382676 0.0607133 0.0314724)
(0.0910935 -0.00123351 -0.134269)
(0.0955278 0.0176565 0.0091453)
(0.0454861 0.0206286 -0.0186504)
(-0.000180048 0.010763 0.0178648)
(-0.000388437 0.0142737 -0.0309359)
(0.0871873 -0.0698748 -0.107799)
(0.0810693 -0.0645779 -0.210916)
(0.172035 0.039311 -0.0256985)
(0.202768 -0.0130696 -0.0641077)
(0.292744 0.0934686 0.0565724)
(0.0833126 -0.0176169 -0.152257)
(0.133313 0.0278317 -0.0988532)
(0.165366 -0.00656137 -0.14577)
(0.229851 0.0631245 0.0314925)
(-0.076885 -0.0113152 -0.0716966)
(-0.204396 0.0375866 0.0336092)
(-0.0990936 0.0264656 -0.0844614)
(-0.0894357 0.0145632 -0.00831999)
(-0.0627722 -0.0230855 -0.151759)
(-0.149868 -0.00482411 -0.0113506)
(-0.0921168 -0.0124639 -0.145541)
(-0.0175889 0.0198628 -0.103705)
(-0.0335517 -0.0301638 -0.168626)
(0.128052 -0.0419057 -0.114364)
(0.0375069 -0.00498573 -0.0837523)
(0.153738 0.00509218 -0.0714683)
(0.105058 -0.0548415 -0.232659)
(0.0237983 -0.0412367 -0.208497)
(0.127342 -0.0355933 -0.187076)
(-0.0384644 0.0168868 -0.0807693)
(-0.0105433 -0.0631849 -0.190875)
(-0.0519233 -0.0584674 -0.18209)
(-0.0787173 -0.125264 -0.196821)
(-0.0120797 -0.122762 -0.2309)
(0.162755 0.0404349 -0.0154917)
(0.120777 0.041915 -0.0429063)
(0.0224029 -0.0192712 -0.178341)
(0.117472 -0.0153192 -0.120427)
(0.0682696 -0.0109405 -0.14415)
(-0.0480253 0.0751223 -0.0497751)
(0.0364353 -0.12735 -0.0705652)
(-0.080314 -0.100328 -0.183811)
(-0.0296965 -0.10347 -0.172433)
(0.00645407 -0.084581 -0.204999)
(0.0682123 0.0258585 -0.0810159)
(0.0236915 -0.00724073 -0.215631)
(0.132711 -0.0655741 0.0620796)
(0.0473152 -0.0353397 -0.119784)
(0.0968361 -0.0663398 -0.0390768)
(0.0537946 -0.04291 -0.181026)
(0.0474598 -0.0388922 -0.0545368)
(0.0042807 -0.0146427 -0.333592)
(-8.25186e-05 -0.00747593 -0.311403)
(-0.0128473 -0.0538995 -0.0315249)
(0.00733993 0.00697286 0.0189581)
(0.00855191 -0.0247204 -0.0389275)
(0.0110744 -0.0393304 0.0506349)
(-0.00978715 -0.0706547 -0.0977803)
(0.0655172 -0.0150918 -0.0362134)
(0.0754958 -0.0825242 -0.153091)
(0.0174523 -0.0696875 -0.186786)
(0.0454816 -0.0381848 -0.152671)
(0.0222408 0.00837069 -0.41108)
(0.0663264 -0.113588 -0.084895)
(0.0682974 -0.0270438 -0.239795)
(0.0350095 0.00879927 -0.422749)
(0.063785 0.0100795 -0.380933)
(0.059868 0.01476 -0.425303)
(0.02509 -0.0252983 -0.00631208)
(0.0925284 -0.028663 -0.253141)
(0.0863033 -0.00746224 -0.289189)
(0.0626474 -0.00946811 -0.0979424)
(0.0755407 0.0158021 -0.438255)
(0.0503991 -0.00397254 -0.00598936)
(0.075232 -0.0273125 -0.185814)
(0.0630425 -0.0399674 -0.230159)
(0.0767645 -0.00996892 -0.265871)
(0.126081 -0.035432 -0.15454)
(0.0948175 -0.0188363 -0.165497)
(0.0449809 -0.0177209 -0.291685)
(0.0967756 -0.0644766 -0.21502)
(0.0519594 -0.0402526 -0.204047)
(0.0588877 -0.0158973 -0.21798)
(0.0277003 -0.0135042 -0.260492)
(0.049478 0.00738832 -0.311539)
(0.0554685 -0.0230532 -0.198752)
(0.0228911 -0.00575212 -0.207246)
(0.0138461 0.0323614 -0.317239)
(0.0301136 0.0216375 -0.274955)
(0.0619644 -0.0564376 -0.305299)
(0.0233603 -0.0433101 -0.415188)
(0.0855009 -0.00978702 -0.18434)
(0.0820848 -0.0372252 -0.276292)
(0.118538 -0.128157 -0.198507)
(0.0315432 -0.0419033 -0.318555)
(0.0632652 -0.0521363 -0.255862)
(0.0233492 -0.077722 -0.35777)
(0.10026 -0.166455 -0.171204)
(-0.0355713 -0.019434 -0.226184)
(-0.0864244 -0.0381792 -0.0774615)
(-0.0653991 -0.0387057 -0.185674)
(0.046953 0.0483334 -0.188772)
(0.00297099 0.0120172 -0.273125)
(-0.0472165 -0.0672955 -0.0596629)
(-0.0296257 -0.0395998 -0.202214)
(-0.0340358 -0.0444881 -0.201311)
(-0.02583 -0.0395315 -0.223212)
(0.0752623 -0.0763332 -0.323845)
(0.0121381 -0.0710866 -0.307204)
(0.0651757 -0.0795536 -0.326747)
(0.0183931 -0.0899397 -0.441891)
(-0.0011705 -0.0863443 -0.435134)
(0.00231377 -0.102453 -0.432199)
(-0.072833 -0.132553 -0.211094)
(-0.029254 -0.109471 -0.225648)
(-0.0350446 -0.0765783 -0.225921)
(-0.0525202 -0.115379 -0.213512)
(-0.0316475 -0.0688504 -0.256775)
(0.0270907 -0.0714375 -0.308348)
(-0.0217206 -0.064043 -0.346912)
(-0.00999041 -0.0798424 -0.414068)
(-0.029787 -0.0909251 -0.384451)
(-0.0342213 -0.0611155 -0.375605)
(-0.0177985 -0.0941792 -0.180686)
(0.0109099 -0.0733671 -0.257154)
(-0.0271922 -0.0949106 -0.189341)
(-0.0148957 -0.0578753 -0.216855)
(0.0223038 -0.097762 -0.233303)
(-0.0297101 -0.0442544 -0.388383)
(-0.030112 -0.0329769 -0.368664)
(0.0204226 -0.0229115 -0.256202)
(-0.0124576 0.00350021 -0.40796)
(-0.0146812 0.0102521 -0.356917)
(-0.0415686 -0.0142888 -0.327212)
(0.00212399 -0.00863283 -0.238058)
(-0.0101747 0.0116332 -0.362523)
(-0.013136 0.0219309 -0.323859)
(0.106108 -0.147314 -0.311136)
(0.133617 -0.0647788 -0.262002)
(0.13274 -0.116804 -0.327053)
(0.10459 -0.0857364 -0.139915)
(0.106185 -0.146411 -0.26107)
(0.151788 -0.0838266 -0.247962)
(0.119311 -0.112521 -0.268864)
(0.0713783 -0.113778 -0.265854)
(0.0268487 0.0237042 -0.418684)
(0.0343375 0.03102 -0.370415)
(0.0557938 0.0298347 -0.393521)
(0.0599277 0.0181819 -0.404338)
(0.0446777 0.0291092 -0.362608)
(0.0606806 0.0252548 -0.343304)
(0.0631774 0.0109318 -0.347629)
(0.131594 -0.0339489 -0.351251)
(0.0687947 0.00874365 -0.404201)
(0.085485 -0.00553827 -0.314212)
(0.115609 -0.0518464 -0.297008)
(0.0704128 0.0029846 -0.337875)
(0.15934 -0.0620892 -0.286987)
(0.0576646 -0.0495131 -0.239998)
(0.0516913 -0.0498888 -0.198638)
(0.0461285 -0.0181949 -0.251215)
(0.0758876 -0.0777866 -0.194391)
(0.0494114 -0.0557235 -0.147512)
(0.039704 -0.0209418 -0.186772)
(0.0753068 -0.0809075 -0.146073)
(0.0560343 -0.0831418 -0.0850983)
(0.0478805 -0.0290176 -0.138854)
(0.0471277 -0.0110621 -0.135847)
(0.0470479 -0.0218258 -0.173758)
(0.0506649 -0.0473159 -0.0694785)
(0.0543722 -0.00153574 -0.0766937)
(0.0405131 0.0224601 -0.200852)
(0.0464773 0.0238537 -0.154412)
(0.00934501 -0.0337014 -0.352666)
(0.00604409 -0.0256878 -0.285033)
(0.0600785 -0.0765693 -0.258164)
(0.0183958 -0.0826231 -0.302381)
(0.0801882 -0.190606 -0.117747)
(0.0337506 -0.0463666 -0.251026)
(0.0602705 -0.0723315 -0.212235)
(0.00856579 -0.0720706 -0.246138)
(0.0814367 -0.213219 -0.0524948)
(-0.000529993 0.0100897 -0.252934)
(0.0374184 -0.0608188 0.00240095)
(-0.00134453 -0.0258044 -0.185131)
(0.0547545 0.0467414 -0.0518775)
(-0.0040123 0.00317819 -0.206941)
(0.119488 -0.0665815 0.0775453)
(0.00366538 -0.0279292 -0.150535)
(-0.0151288 -0.0307355 -0.236497)
(-0.0066539 -0.0243887 -0.21765)
(0.00155726 -0.0908315 -0.399857)
(0.000749062 -0.0816714 -0.41319)
(-0.0151497 -0.102592 -0.392317)
(-0.0190038 -0.077926 -0.313337)
(-0.00318782 -0.0689258 -0.358491)
(-0.03931 -0.101478 -0.315848)
(-0.0259164 -0.0888494 -0.198748)
(-0.0132069 -0.000667165 -0.287529)
(-0.0189413 -0.0235043 -0.231895)
(0.00207886 -0.0686888 -0.176083)
(0.00354903 0.039741 -0.29796)
(-0.034807 -0.0802592 -0.351256)
(-0.0314154 -0.0449526 -0.342514)
(-0.0105407 -0.0621417 -0.34008)
(-0.0387523 -0.0711109 -0.313574)
(-0.0265555 -0.0291962 -0.31064)
(-0.0102844 -0.018168 -0.244149)
(0.0358016 -0.106255 -0.196024)
(0.00282223 -0.081638 -0.152938)
(-0.00982673 0.00198856 -0.260411)
(0.0376233 -0.0890107 -0.150642)
(-0.0173875 -0.019987 -0.337741)
(-0.00826977 -0.00604859 -0.307379)
(-0.0406969 0.0124586 -0.216368)
(-0.00108429 0.0192756 -0.321423)