# Probe 0 (0 0 0.01)
#       Probe             0
#        Time
       0.0001        8231.3
       0.0002       49.8975
       0.0003       80.4193
       0.0004       82.8375
       0.0005       86.1224
       0.0006       89.3963
       0.0007       91.7873
       0.0008       93.2317
       0.0009       93.7957
        0.001       93.6712
       0.0011       82.5875
       0.0012       77.7818
       0.0013        74.517
       0.0014       71.9508
       0.0015       69.9319
       0.0016       68.3687
       0.0017       67.0912
       0.0018       66.0679
       0.0019       65.2345
        0.002       64.5697
       0.0021       83.4235
       0.0022       83.3936
       0.0023       83.3864
       0.0024       83.4121
       0.0025       83.4721
       0.0026        83.563
       0.0027       83.6896
       0.0028       83.8337
       0.0029       83.9935
        0.003       84.1947
       0.0031       95.1418
       0.0032       95.0941
       0.0033       95.3247
       0.0034       95.6117
       0.0035       95.9597
       0.0036       96.3417
       0.0037       96.7382
       0.0038       97.1516
       0.0039       97.5904
        0.004       97.9965
       0.0041       97.1763
       0.0042       98.2268
       0.0043       99.6021
       0.0044       100.919
       0.0045       102.196
       0.0046       103.433
       0.0047       104.657
       0.0048       105.857
       0.0049       107.038
        0.005       108.169
       0.0051       102.695
       0.0052       103.431
       0.0053       104.912
       0.0054       106.388
       0.0055       107.885
       0.0056        109.38
       0.0057       110.844
       0.0058       112.275
       0.0059       113.683
        0.006       115.011
       0.0061       110.561
       0.0062       111.475
       0.0063       113.187
       0.0064       114.955
       0.0065       116.667
       0.0066       118.361
       0.0067       119.967
       0.0068       121.578
       0.0069       123.107
        0.007       124.552
       0.0071        127.43
       0.0072       130.665
       0.0073       134.162
       0.0074       137.696
       0.0075       141.215
       0.0076       144.681
       0.0077       148.145
       0.0078        151.64
       0.0079       155.115
        0.008       158.586
       0.0081       175.338
       0.0082       188.632
       0.0083       202.496
       0.0084       216.397
       0.0085       230.623
       0.0086       245.106
       0.0087       260.116
       0.0088       275.688
       0.0089       291.809
        0.009       308.565
       0.0091       332.125
       0.0092       351.298
       0.0093        370.94
       0.0094       391.578
       0.0095       413.142
       0.0096       435.379
       0.0097        458.85
       0.0098       482.906
       0.0099       507.956
         0.01        534.34
       0.0101       572.173
       0.0102       606.158
       0.0103       639.646
       0.0104       674.388
       0.0105       708.421
       0.0106        742.18
       0.0107       775.334
       0.0108       807.885
       0.0109       839.487
        0.011       870.204
       0.0111       895.746
       0.0112       919.474
       0.0113        942.87
       0.0114       965.852
       0.0115       988.305
       0.0116       1010.53
       0.0117       1032.69
       0.0118       1054.92
       0.0119       1077.61
        0.012       1100.35
       0.0121       1085.59
       0.0122       1076.63
       0.0123       1068.12
       0.0124       1060.86
       0.0125       1053.02
       0.0126       1045.54
       0.0127       1038.33
       0.0128       1031.42
       0.0129       1024.79
        0.013       1018.32
       0.0131       986.031
       0.0132       956.624
       0.0133       928.499
       0.0134       901.607
       0.0135       876.003
       0.0136       851.741
       0.0137       828.835
       0.0138       807.352
       0.0139       787.259
        0.014       768.618
       0.0141       755.153
       0.0142       744.735
       0.0143       736.334
       0.0144       729.723
       0.0145        725.05
       0.0146       722.429
       0.0147       721.788
       0.0148       723.189
       0.0149       726.822
        0.015       732.872
       0.0151       733.908
       0.0152       737.828
       0.0153        743.14
       0.0154         749.7
       0.0155       757.544
       0.0156       766.581
       0.0157       776.708
       0.0158       788.012
       0.0159         800.3
        0.016       813.688
       0.0161       816.117
       0.0162       822.723
       0.0163       830.299
       0.0164       838.771
       0.0165       848.158
       0.0166       858.461
       0.0167        869.85
       0.0168       882.624
       0.0169       896.728
        0.017       912.232
       0.0171       896.348
       0.0172       885.682
       0.0173       875.738
       0.0174       866.361
       0.0175       857.327
       0.0176       848.719
       0.0177       840.389
       0.0178       832.528
       0.0179       825.019
        0.018       817.937
       0.0181       790.767
       0.0182       767.984
       0.0183       747.293
       0.0184       728.654
       0.0185       712.014
       0.0186       697.376
       0.0187       684.708
       0.0188       673.955
       0.0189       665.455
        0.019       658.992
       0.0191       649.943
       0.0192       645.535
       0.0193       643.077
       0.0194       642.424
       0.0195       643.707
       0.0196       646.893
       0.0197       651.803
       0.0198       658.623
       0.0199       667.021
         0.02       677.259
       0.0201       679.164
       0.0202       684.257
       0.0203       690.367
       0.0204       697.431
       0.0205       705.496
       0.0206       714.658
       0.0207       725.051
       0.0208        736.69
       0.0209       749.671
        0.021        764.15
       0.0211       753.962
       0.0212       749.317
       0.0213       745.624
       0.0214        742.34
       0.0215       739.679
       0.0216       737.593
       0.0217       736.175
       0.0218       735.148
       0.0219        734.82
        0.022       734.784
       0.0221       710.199
       0.0222       689.679
       0.0223       671.277
       0.0224       654.759
       0.0225       640.071
       0.0226        627.23
       0.0227       616.245
       0.0228       607.175
       0.0229       600.195
        0.023        595.18
       0.0231       582.902
       0.0232       576.569
       0.0233       572.144
       0.0234        569.74
       0.0235       569.269
       0.0236        570.68
       0.0237       573.992
       0.0238       579.147
       0.0239       586.062
        0.024       594.766
       0.0241       592.797
       0.0242        594.56
       0.0243       597.651
       0.0244       601.836
       0.0245       607.186
       0.0246       613.666
       0.0247       621.287
       0.0248       630.123
       0.0249       640.426
        0.025       652.194
       0.0251       637.875
       0.0252       629.291
       0.0253       621.372
       0.0254       614.085
       0.0255       607.403
       0.0256       601.342
       0.0257       595.976
       0.0258       591.253
       0.0259       587.272
        0.026       584.085
       0.0261       562.191
       0.0262       545.463
       0.0263       530.639
       0.0264        517.68
       0.0265       506.463
       0.0266       496.901
       0.0267       489.069
       0.0268       482.958
       0.0269       478.478
        0.027       475.633
       0.0271        463.64
       0.0272       456.652
       0.0273       451.378
       0.0274       447.607
       0.0275        445.17
       0.0276       444.062
       0.0277       444.215
       0.0278       445.541
       0.0279       448.037
        0.028       451.542
       0.0281       444.398
       0.0282       441.711
       0.0283         439.7
       0.0284       438.197
       0.0285       437.121
       0.0286       436.487
       0.0287       436.333
       0.0288       436.603
       0.0289       437.288
        0.029       438.305
       0.0291       419.435
       0.0292       404.965
       0.0293       391.942
       0.0294       380.247
       0.0295       369.731
       0.0296       360.272
       0.0297       351.853
       0.0298        344.45
       0.0299       337.958
         0.03       332.367
       0.0301       320.284
       0.0302       311.947
       0.0303       304.808
       0.0304       298.702
       0.0305       293.532
       0.0306        289.27
       0.0307       285.831
       0.0308       283.171
       0.0309       281.238
        0.031       279.973
       0.0311        273.51
       0.0312       270.534
       0.0313       268.545
       0.0314       267.314
       0.0315       266.749
       0.0316       266.774
       0.0317       267.324
       0.0318       268.279
       0.0319       269.591
        0.032       271.299
       0.0321       262.522
       0.0322       257.443
       0.0323       252.999
       0.0324       249.087
       0.0325       245.636
       0.0326       242.598
       0.0327       239.925
       0.0328       237.606
       0.0329        235.51
        0.033       233.708
       0.0331       224.639
       0.0332       218.651
       0.0333       213.617
       0.0334       209.423
       0.0335       205.926
       0.0336        203.06
       0.0337       200.808
       0.0338       199.095
       0.0339       197.915
        0.034       197.296
       0.0341       193.135
       0.0342       191.551
       0.0343       190.789
       0.0344       190.814
       0.0345       191.561
       0.0346       192.944
       0.0347       194.983
       0.0348       197.646
       0.0349        200.94
        0.035       204.892
       0.0351       204.925
       0.0352       208.158
       0.0353       211.688
       0.0354       215.407
       0.0355       219.564
       0.0356       224.035
       0.0357       228.746
       0.0358       233.606
       0.0359       238.746
        0.036       244.128
       0.0361       241.166
       0.0362       241.921
       0.0363       243.283
       0.0364       245.091
       0.0365       247.458
       0.0366       250.548
       0.0367       254.071
       0.0368       257.801
       0.0369       262.028
        0.037        266.74
       0.0371       264.121
       0.0372       265.495
       0.0373       267.301
       0.0374        270.04
       0.0375       273.614
       0.0376       277.342
       0.0377       281.906
       0.0378       287.245
       0.0379       293.295
        0.038       300.047
       0.0381       301.792
       0.0382       309.276
       0.0383       317.354
       0.0384       326.216
       0.0385           336
       0.0386       346.471
       0.0387       357.763
       0.0388       369.826
       0.0389       382.859
        0.039       397.017
       0.0391       391.707
       0.0392       391.685
       0.0393       392.158
       0.0394       393.245
       0.0395       394.978
       0.0396       397.365
       0.0397       400.512
       0.0398       404.377
       0.0399       409.077
         0.04       414.688
       0.0401       403.413
       0.0402        398.32
       0.0403       394.288
       0.0404       391.214
       0.0405       389.417
       0.0406       388.539
       0.0407       388.855
       0.0408       390.234
       0.0409       392.673
        0.041       396.094
       0.0411       387.916
       0.0412       383.881
       0.0413       381.467
       0.0414       380.903
       0.0415       381.513
       0.0416       383.499
       0.0417       387.156
       0.0418       392.268
       0.0419       399.336
        0.042       407.533
       0.0421       400.209
       0.0422       399.461
       0.0423       399.647
       0.0424       400.716
       0.0425       402.319
       0.0426       404.911
       0.0427       408.395
       0.0428       412.566
       0.0429       417.529
        0.043       423.175
       0.0431       410.321
       0.0432       402.547
       0.0433       396.142
       0.0434       391.084
       0.0435       387.152
       0.0436       384.422
       0.0437       382.949
       0.0438        382.73
       0.0439       383.796
        0.044       386.065
       0.0441       374.815
       0.0442       368.561
       0.0443       363.917
       0.0444       360.771
       0.0445       359.036
       0.0446       358.844
       0.0447       359.894
       0.0448        362.33
       0.0449       366.257
        0.045       371.661
       0.0451       364.469
       0.0452       362.771
       0.0453       362.333
       0.0454       363.163
       0.0455       364.979
       0.0456        368.08
       0.0457       372.376
       0.0458       377.656
       0.0459       384.161
        0.046       391.927
       0.0461        381.02
       0.0462       375.107
       0.0463       370.244
       0.0464       366.478
       0.0465       363.727
       0.0466       362.099
       0.0467       361.512
       0.0468       362.077
       0.0469       363.926
        0.047       367.003
       0.0471       354.493
       0.0472       347.705
       0.0473       342.462
       0.0474         338.7
       0.0475       336.356
       0.0476       335.351
       0.0477       335.617
       0.0478       337.226
       0.0479       340.189
        0.048        344.37
       0.0481       336.429
       0.0482       333.658
       0.0483       331.993
       0.0484       331.635
       0.0485        332.47
       0.0486       334.539
       0.0487       337.959
       0.0488       342.653
       0.0489       348.665
        0.049       356.043
       0.0491       347.616
       0.0492       344.047
       0.0493       341.485
       0.0494       339.829
       0.0495       339.091
       0.0496       339.344
       0.0497       340.577
       0.0498       342.816
       0.0499       346.174
         0.05       350.848
       0.0501       337.518
       0.0502       330.354
       0.0503       324.858
       0.0504       320.888
       0.0505       318.248
       0.0506       316.873
       0.0507       316.743
       0.0508       317.859
       0.0509       320.185
        0.051       323.701
       0.0511       314.253
       0.0512       310.332
       0.0513       307.664
       0.0514       306.227
       0.0515       305.927
       0.0516       306.886
       0.0517       309.091
       0.0518       312.595
       0.0519       317.431
        0.052       323.562
       0.0521       316.146
       0.0522       314.022
       0.0523       312.854
       0.0524       312.644
       0.0525       313.221
       0.0526       314.868
       0.0527       317.504
       0.0528       321.213
       0.0529       326.101
        0.053       332.285
       0.0531       319.423
       0.0532       312.593
       0.0533       307.315
       0.0534       303.474
       0.0535       300.978
       0.0536       299.698
       0.0537       299.632
       0.0538       300.712
       0.0539       302.868
        0.054       306.217
       0.0541         296.8
       0.0542       292.235
       0.0543       288.801
       0.0544        286.55
       0.0545       285.501
       0.0546       285.655
       0.0547        287.05
       0.0548        289.72
       0.0549       293.663
        0.055        298.91
       0.0551       292.329
       0.0552       290.274
       0.0553       289.178
       0.0554       289.035
       0.0555       289.838
       0.0556       291.519
       0.0557       294.361
       0.0558         298.3
       0.0559       303.432
        0.056       309.982
       0.0561        298.36
       0.0562       292.831
       0.0563       288.675
       0.0564        285.85
       0.0565       284.201
       0.0566       283.581
       0.0567       283.932
       0.0568       285.242
       0.0569       287.573
        0.057       290.933
       0.0571       281.109
       0.0572       276.147
       0.0573       272.478
       0.0574       269.947
       0.0575       268.588
       0.0576       268.344
       0.0577       269.347
       0.0578       271.543
       0.0579       274.949
        0.058       279.609
       0.0581       273.091
       0.0582       270.675
       0.0583       269.009
       0.0584        268.24
       0.0585       268.313
       0.0586       269.485
       0.0587       271.724
       0.0588       275.105
       0.0589       279.773
        0.059       285.877
       0.0591       276.324
       0.0592        272.31
       0.0593       269.419
       0.0594       267.589
       0.0595       266.705
       0.0596       266.683
       0.0597        267.53
       0.0598       269.062
       0.0599       271.519
         0.06       274.825
       0.0601       264.951
       0.0602       260.258
       0.0603       256.871
       0.0604       254.698
       0.0605       253.631
       0.0606       253.673
       0.0607       254.817
       0.0608       257.119
       0.0609       260.484
        0.061       264.944
       0.0611       257.864
       0.0612       254.826
       0.0613       252.503
       0.0614       251.082
       0.0615       250.499
       0.0616       250.862
       0.0617       252.314
       0.0618       254.821
       0.0619       258.711
        0.062       263.903
       0.0621       256.108
       0.0622       253.333
       0.0623       251.453
       0.0624        250.39
       0.0625       250.072
       0.0626       250.405
       0.0627       251.341
       0.0628       253.177
       0.0629       255.786
        0.063       259.293
       0.0631       250.169
       0.0632       246.264
       0.0633       243.646
       0.0634       242.199
       0.0635       241.821
       0.0636       242.477
       0.0637       244.146
       0.0638       246.847
       0.0639       250.357
        0.064       254.859
       0.0641       246.848
       0.0642        242.75
       0.0643       239.609
       0.0644       237.345
       0.0645       236.035
       0.0646       235.729
       0.0647       236.428
       0.0648       238.295
       0.0649       241.395
        0.065        245.76
       0.0651       239.181
       0.0652       236.924
       0.0653       235.338
       0.0654       234.398
       0.0655       233.997
       0.0656       234.228
       0.0657       235.159
       0.0658       236.927
       0.0659       239.448
        0.066       243.049
       0.0661        235.22
       0.0662       232.377
       0.0663       230.692
       0.0664       229.917
       0.0665       230.013
       0.0666       230.944
       0.0667       232.611
       0.0668       234.908
       0.0669       237.983
        0.067       241.837
       0.0671       233.089
       0.0672       228.774
       0.0673       225.379
       0.0674       223.019
       0.0675       221.549
       0.0676       221.053
       0.0677       221.727
       0.0678       223.281
       0.0679       225.974
        0.068       229.676
       0.0681        223.27
       0.0682       220.924
       0.0683           219
       0.0684       217.722
       0.0685       216.995
       0.0686       216.919
       0.0687       217.625
       0.0688       219.248
       0.0689       221.856
        0.069       225.597
       0.0691       219.306
       0.0692        217.62
       0.0693       216.626
       0.0694       216.247
       0.0695       216.369
       0.0696       217.028
       0.0697       218.155
       0.0698       219.783
       0.0699       221.963
         0.07       224.833
       0.0701       216.742
       0.0702       213.221
       0.0703        210.58
       0.0704       208.835
       0.0705       207.828
       0.0706       207.834
       0.0707       208.569
       0.0708       210.029
       0.0709        212.29
        0.071       215.244
       0.0711       208.514
       0.0712       205.574
       0.0713       203.203
       0.0714       201.535
       0.0715       200.583
       0.0716       200.332
       0.0717       201.096
       0.0718       202.707
       0.0719       205.325
        0.072       209.064
       0.0721       203.557
       0.0722       201.965
       0.0723       200.755
       0.0724       199.962
       0.0725       199.459
       0.0726       199.396
       0.0727       199.752
       0.0728        200.68
       0.0729       202.297
        0.073       204.688
       0.0731       198.267
       0.0732       196.098
       0.0733       194.534
       0.0734       193.407
       0.0735       193.031
       0.0736       193.041
       0.0737       193.514
       0.0738       194.337
       0.0739       195.609
        0.074       197.314
       0.0741       190.501
       0.0742       187.558
       0.0743       185.396
       0.0744       183.926
       0.0745       183.195
       0.0746       183.126
       0.0747       183.762
       0.0748       185.215
       0.0749       187.429
        0.075       190.422
       0.0751       185.193
       0.0752       183.506
       0.0753       182.137
       0.0754       181.118
       0.0755       180.443
       0.0756       180.201
       0.0757       180.655
       0.0758       181.672
       0.0759       183.426
        0.076       186.038
       0.0761       180.836
       0.0762       179.198
       0.0763       177.882
       0.0764       176.937
       0.0765       176.262
       0.0766       175.861
       0.0767       175.707
       0.0768       175.947
       0.0769        176.63
        0.077       177.872
       0.0771       172.376
       0.0772       170.643
       0.0773       169.408
       0.0774        168.65
       0.0775       168.218
       0.0776       168.248
       0.0777       168.687
       0.0778        169.59
       0.0779       170.853
        0.078       172.484
       0.0781       167.342
       0.0782       165.646
       0.0783       164.339
       0.0784       163.465
       0.0785       163.028
       0.0786       163.112
       0.0787       163.713
       0.0788       164.927
       0.0789       166.665
        0.079       169.064
       0.0791       164.236
       0.0792       162.553
       0.0793       161.049
       0.0794       159.794
       0.0795       158.819
       0.0796       158.208
       0.0797       158.001
       0.0798       158.358
       0.0799       159.316
         0.08        161.02
       0.0801       156.996
       0.0802       156.103
       0.0803       155.359
       0.0804       154.774
       0.0805       154.414
       0.0806       154.267
       0.0807       154.239
       0.0808       154.462
       0.0809       154.965
        0.081       155.793
       0.0811       151.379
       0.0812       150.192
       0.0813       149.335
       0.0814       148.845
       0.0815       148.716
       0.0816       148.885
       0.0817       149.344
       0.0818       150.102
       0.0819       151.204
        0.082        152.51
       0.0821       148.197
       0.0822       146.656
       0.0823       145.437
       0.0824       144.504
       0.0825       143.959
       0.0826       143.814
       0.0827       144.054
       0.0828       144.786
       0.0829       146.062
        0.083       147.917
       0.0831       144.036
       0.0832        142.91
       0.0833       141.867
       0.0834        140.93
       0.0835       140.089
       0.0836       139.443
       0.0837       139.043
       0.0838       139.019
       0.0839       139.398
        0.084       140.169
       0.0841       137.024
       0.0842       136.623
       0.0843       136.274
       0.0844       136.065
       0.0845       135.919
       0.0846       135.882
       0.0847       135.936
       0.0848       136.085
       0.0849       136.313
        0.085       136.702
       0.0851       133.393
       0.0852       132.473
       0.0853       131.801
       0.0854       131.413
       0.0855       131.179
       0.0856       131.199
       0.0857       131.431
       0.0858       131.955
       0.0859       132.738
        0.086       133.684
       0.0861       130.023
       0.0862       128.848
       0.0863       127.822
       0.0864       127.007
       0.0865       126.418
       0.0866       126.142
       0.0867       126.151
       0.0868       126.509
       0.0869       127.291
        0.087       128.487
       0.0871       125.746
       0.0872       125.505
       0.0873       125.198
       0.0874       124.906
       0.0875       124.648
       0.0876        124.43
       0.0877       124.339
       0.0878       124.416
       0.0879       124.682
        0.088       125.222
       0.0881       122.311
       0.0882       121.755
       0.0883       121.301
       0.0884       120.931
       0.0885       120.649
       0.0886       120.468
       0.0887       120.349
       0.0888       120.237
       0.0889       120.191
        0.089       120.205
       0.0891       117.094
       0.0892       116.321
       0.0893       115.763
       0.0894       115.427
       0.0895        115.34
       0.0896       115.446
       0.0897       115.798
       0.0898       116.371
       0.0899       117.133
         0.09       118.128
       0.0901       115.379
       0.0902       114.793
       0.0903       114.219
       0.0904       113.767
       0.0905       113.385
       0.0906       113.193
       0.0907       113.205
       0.0908       113.547
       0.0909       114.141
        0.091       115.131
       0.0911       112.612
       0.0912       112.189
       0.0913       111.737
       0.0914        111.25
       0.0915        110.74
       0.0916       110.215
       0.0917       109.688
       0.0918       109.236
       0.0919       108.917
        0.092       108.726
       0.0921       106.345
       0.0922       106.064
       0.0923       105.881
       0.0924       105.826
       0.0925       105.833
       0.0926       105.967
       0.0927       106.144
       0.0928       106.388
       0.0929       106.681
        0.093       107.064
       0.0931       104.971
       0.0932       104.785
       0.0933       104.639
       0.0934       104.579
       0.0935       104.616
       0.0936       104.724
       0.0937       104.965
       0.0938       105.392
       0.0939       105.989
        0.094       106.726
       0.0941       104.191
       0.0942       103.665
       0.0943       103.101
       0.0944       102.566
       0.0945       102.012
       0.0946       101.546
       0.0947       101.176
       0.0948       100.935
       0.0949       100.847
        0.095       100.962
       0.0951       99.0316
       0.0952        98.878
       0.0953        98.715
       0.0954       98.5847
       0.0955       98.4547
       0.0956       98.3439
       0.0957       98.2628
       0.0958       98.1858
       0.0959       98.1545
        0.096        98.204
       0.0961       96.4684
       0.0962       96.4196
       0.0963       96.3396
       0.0964       96.3318
       0.0965       96.4354
       0.0966       96.5622
       0.0967       96.8133
       0.0968       97.0934
       0.0969       97.4383
        0.097       97.8429
       0.0971       95.8061
       0.0972       95.4974
       0.0973       95.1597
       0.0974       94.8511
       0.0975       94.5958
       0.0976       94.3998
       0.0977       94.3161
       0.0978        94.343
       0.0979       94.5599
        0.098       94.8771
       0.0981       93.0785
       0.0982       92.8783
       0.0983       92.6352
       0.0984       92.3582
       0.0985       92.0951
       0.0986       91.8341
       0.0987       91.6173
       0.0988       91.4408
       0.0989       91.4014
        0.099       91.4755
       0.0991         89.93
       0.0992       89.8931
       0.0993       89.8502
       0.0994       89.8174
       0.0995        89.818
       0.0996        89.863
       0.0997        89.887
       0.0998       89.9254
       0.0999       89.9522
          0.1       89.9998
       0.1001       88.3615
       0.1002       88.2831
       0.1003       88.2325
       0.1004       88.2379
       0.1005       88.2578
       0.1006       88.3138
       0.1007       88.4261
       0.1008       88.5844
       0.1009        88.824
        0.101       89.1091
       0.1011       87.5924
       0.1012       87.4028
       0.1013       87.1114
       0.1014       86.7857
       0.1015       86.4702
       0.1016       86.1402
       0.1017       85.8292
       0.1018       85.5953
       0.1019         85.46
        0.102       85.3745
       0.1021       84.2006
       0.1022       84.3558
       0.1023       84.4009
       0.1024       84.3937
       0.1025       84.3534
       0.1026       84.3348
       0.1027       84.2798
       0.1028       84.2157
       0.1029       84.1623
        0.103       84.1351
       0.1031       82.8921
       0.1032       82.9398
       0.1033       82.9468
       0.1034       82.9574
       0.1035       82.9906
       0.1036       83.0524
       0.1037       83.1324
       0.1038         83.23
       0.1039       83.3647
        0.104       83.5343
       0.1041       82.0919
       0.1042       81.9167
       0.1043       81.7069
       0.1044       81.5228
       0.1045       81.3218
       0.1046       81.1717
       0.1047       81.0904
       0.1048        81.072
       0.1049        81.141
        0.105       81.2607
       0.1051       80.0229
       0.1052       80.0054
       0.1053        79.926
       0.1054        79.843
       0.1055       79.7475
       0.1056        79.664
       0.1057       79.6067
       0.1058       79.5632
       0.1059       79.5766
        0.106       79.6237
       0.1061       78.6823
       0.1062       78.7683
       0.1063       78.7257
       0.1064       78.6812
       0.1065       78.6156
       0.1066       78.5709
       0.1067       78.5025
       0.1068       78.4284
       0.1069       78.3349