/*--------------------------------*- C++ -*----------------------------------*\
| =========                 |                                                 |
| \\      /  F ield         | OpenFOAM: The Open Source CFD Toolbox           |
|  \\    /   O peration     | Version:  5.x                                   |
|   \\  /    A nd           | Web:      www.OpenFOAM.org                      |
|    \\/     M anipulation  |                                                 |
\*---------------------------------------------------------------------------*/
FoamFile
{
    version     2.0;
    format      ascii;
    class       volVectorField;
    location    "0.8";
    object      Us;
}
// * * * * * * * * * * * * * * * * * * * * * * * * * * * * * * * * * * * * * //

dimensions      [0 1 -1 0 0 0 0];

internalField   nonuniform List<vector> 
10571
(
(-0.0213374 0.0282214 0.00554135)
(-0.00251054 0.0391178 -0.0370004)
(0.0110332 0.125639 0.0272348)
(-0.0824787 0.0782277 0.0311981)
(-0.0339188 0.0199698 -0.0224431)
(0.0858511 0.132522 0.0166656)
(-0.0404883 0.0536458 0.0701545)
(-0.14426 -0.163958 -0.0370453)
(-0.0679279 -0.172585 -0.0772477)
(-0.0137006 -0.0627281 -0.0478694)
(0.0251261 0.00904011 -0.0532037)
(-0.0426914 0.0333494 -0.0312269)
(-0.139927 -0.0753682 -0.0845792)
(-0.0769121 -0.126915 -0.0753609)
(-0.0486385 -0.123049 -0.126072)
(0.0326258 -0.0839181 -0.0357853)
(0.0316442 0.0199346 0.0514869)
(-0.221994 0.0613359 -0.0101027)
(-0.114584 -0.00444544 -0.0831497)
(-0.0104842 -0.0354809 -0.0713571)
(0.0159245 -0.0280428 -0.0335406)
(-0.0765215 -0.0116452 0.0740809)
(-0.166709 0.0495814 0.0282343)
(-0.0476667 0.0168771 -0.0456028)
(-0.0267919 0.0178393 -0.0645642)
(0.00339904 0.00648119 -0.0888711)
(0.00804187 0.088568 -0.0062561)
(-0.101379 0.0290698 0.0168602)
(-0.0599345 -0.0193123 -0.0926824)
(-0.00260592 0.0245441 -0.0586884)
(-0.0624771 -0.0660912 -0.134509)
(-0.0850095 -0.0438546 -0.140052)
(-0.0969556 -0.0197998 -0.130493)
(-0.0628105 -0.0363838 -0.0504151)
(-6.82195e-05 -0.0340089 -0.131042)
(-0.0780923 -0.0486292 -0.174059)
(-0.0270812 -0.0672839 -0.194966)
(-0.0674443 -0.0183537 -0.135609)
(-0.106035 -0.030984 -0.160432)
(-0.0776897 0.0112399 -0.163405)
(-0.0542434 0.102158 -0.110107)
(-0.0553533 -0.0778559 -0.186039)
(-0.00500739 -0.0987815 -0.204856)
(-0.0559874 -0.0529679 -0.146172)
(-0.0185838 0.0033566 -0.139143)
(-0.0456262 -0.0150296 0.068526)
(-0.0521066 -0.0405388 -0.179088)
(-0.0109785 -0.0194792 -0.149132)
(-0.0232388 -0.00360801 -0.0801664)
(0.00328184 -0.00824431 -0.0935167)
(0.00431844 -0.0272417 -0.032364)
(-0.0887838 -0.154727 0.00243887)
(-0.00931711 -0.0131247 -0.0746192)
(0.0103585 -0.0696205 -0.0755707)
(-0.00960349 0.000702547 -0.0525776)
(-0.0837362 0.00183673 -0.115153)
(-0.0671451 0.00174347 -0.134672)
(-0.0278262 0.0226666 -0.108124)
(-0.0132835 -0.0884537 -0.119215)
(-0.0248059 -0.108913 -0.144029)
(-0.0066533 -0.125517 -0.182963)
(0.0035095 0.151557 -0.255919)
(-0.0422125 0.117329 -0.163036)
(-0.0633116 -0.00754228 -0.5416)
(-0.0220995 -0.0113416 -0.088933)
(-0.000373941 -0.188634 -0.134368)
(0.0725076 -0.143434 -0.223193)
(0 0 0)
(0 0 0)
(0.0398189 -0.0659621 -0.0334746)
(0.093119 -0.0759944 -0.18629)
(0 0 0)
(-0.0209231 -0.00402735 -0.0797195)
(0.00114468 -0.00867372 -0.0692434)
(-0.0208156 -0.0580554 0.00613278)
(-0.0168376 -0.0770256 0.0252005)
(0.0413287 -0.00145964 -0.0888672)
(0.028182 -0.0853863 -0.0202545)
(-0.0442868 0.0224688 -0.0426156)
(-0.0757043 0.0271836 -0.133316)
(0 0 0)
(0 0 0)
(-0.00480206 -0.0867744 -0.0875016)
(-0.00745319 -0.0895814 -0.094345)
(-0.0346216 -0.050546 -0.154228)
(0.0458269 0.224999 -0.223211)
(0 0 0)
(-0.0618305 -0.0139005 -0.437285)
(-0.093576 -0.167045 -0.0868782)
(-0.0102567 -0.188647 -0.0802943)
(0.0752725 -0.1557 -0.0549924)
(0 0 0)
(0 0 0)
(0.0883602 0.00921912 0.156155)
(0.127812 -0.0680389 -0.0598828)
(0 0 0)
(-0.0175325 -0.0111573 -0.0513955)
(-0.0151576 0.0050852 -0.0268047)
(-0.0446368 -0.0379959 0.0448868)
(0.00500818 -0.0696659 0.022563)
(0.0641889 0.0198187 -0.0650473)
(0.0306337 -0.0398344 -0.000696931)
(-0.0528362 0.0377665 -0.0244965)
(-0.0364192 0.0728111 -0.206344)
(0 0 0)
(0 0 0)
(-0.0111526 -0.0573659 -0.0887341)
(-0.11149 0.138408 -0.07541)
(-0.0359436 0.245456 -0.124538)
(0 0 0)
(0 0 0)
(-0.0594173 -0.00871915 -0.310641)
(-0.12952 -0.163659 -0.0103809)
(0.0108981 -0.13557 0.0590894)
(0.0963386 -0.119865 0.0811898)
(0 0 0)
(0 0 0)
(0 0 0)
(0.153564 -0.0735172 0.0895631)
(0 0 0)
(-0.00354765 -0.0166658 0.0170586)
(-0.0438791 0.0229384 0.0308959)
(-0.0865556 -0.0497847 0.0642181)
(-0.0240005 -0.0986166 0.00140423)
(0 0 0)
(0.00872951 -0.00904935 0.0367335)
(-0.0852145 0.0531117 -0.0299511)
(0 0 0)
(0 0 0)
(0 0 0)
(-0.011682 0.00473601 -0.00466421)
(0 0 0)
(-0.155362 0.159244 -0.049786)
(-0.00478141 0.239741 0.0169198)
(0 0 0)
(0 0 0)
(6.1456e-17 2.34171e-17 1.24514e-16)
(-0.00656222 -0.00180637 -0.00241181)
(0 0 0)
(0.00760013 -0.0940272 0.19755)
(0 0 0)
(0 0 0)
(0 0 0)
(0.0307274 -0.056196 0.237703)
(0.118765 -0.0503121 0.202514)
(0 0 0)
(0.0110152 0.0125073 0.115989)
(-0.0722492 0.0298938 0.114443)
(-0.0868088 -0.0480381 0.105775)
(0 0 0)
(0 0 0)
(-0.0936163 0.0664243 0.0892311)
(0 0 0)
(0 0 0)
(0 0 0)
(0 0 0)
(0 0 0)
(0 0 0)
(0 0 0)
(0 0 0)
(0 0 0)
(0 0 0)
(0 0 0)
(0 0 0)
(0 0 0)
(0 0 0)
(0 0 0)
(0 0 0)
(0 0 0)
(0 0 0)
(0 0 0)
(0 0 0)
(0 0 0)
(0 0 0)
(-0.0693513 0.0928447 0.234205)
(0.0243069 0.162201 0.210112)
(0 0 0)
(0 0 0)
(0 0 0)
(0 0 0)
(0 0 0)
(0 0 0)
(0 0 0)
(0 0 0)
(0 0 0)
(0 0 0)
(0 0 0)
(0 0 0)
(0 0 0)
(0 0 0)
(0 0 0)
(0 0 0)
(0 0 0)
(0 0 0)
(0 0 0)
(0 0 0)
(0 0 0)
(0 0 0)
(0 0 0)
(0 0 0)
(0 0 0)
(0 0 0)
(0 0 0)
(0 0 0)
(0 0 0)
(0 0 0)
(0 0 0)
(0 0 0)
(0 0 0)
(0 0 0)
(0 0 0)
(0 0 0)
(0 0 0)
(0 0 0)
(0 0 0)
(0 0 0)
(0 0 0)
(0 0 0)
(0 0 0)
(0 0 0)
(0 0 0)
(0 0 0)
(0 0 0)
(0 0 0)
(0 0 0)
(0 0 0)
(0 0 0)
(0 0 0)
(0 0 0)
(0 0 0)
(0 0 0)
(0 0 0)
(0 0 0)
(0 0 0)
(0 0 0)
(0 0 0)
(0 0 0)
(0 0 0)
(0 0 0)
(0 0 0)
(0 0 0)
(0 0 0)
(0 0 0)
(0 0 0)
(0 0 0)
(0 0 0)
(0 0 0)
(0 0 0)
(0 0 0)
(0 0 0)
(0 0 0)
(0 0 0)
(0 0 0)
(0 0 0)
(0 0 0)
(0 0 0)
(0 0 0)
(0 0 0)
(0 0 0)
(0 0 0)
(0 0 0)
(0 0 0)
(0 0 0)
(0 0 0)
(0 0 0)
(0 0 0)
(0 0 0)
(0 0 0)
(0 0 0)
(0 0 0)
(0 0 0)
(0 0 0)
(0 0 0)
(0 0 0)
(0 0 0)
(0 0 0)
(0 0 0)
(0 0 0)
(0 0 0)
(0 0 0)
(0 0 0)
(0 0 0)
(0 0 0)
(0 0 0)
(0 0 0)
(0 0 0)
(0 0 0)
(0 0 0)
(0 0 0)
(0 0 0)
(0 0 0)
(0 0 0)
(0 0 0)
(0 0 0)
(0 0 0)
(0 0 0)
(0 0 0)
(0 0 0)
(0 0 0)
(0 0 0)
(0 0 0)
(0 0 0)
(0 0 0)
(0 0 0)
(0 0 0)
(0 0 0)
(0 0 0)
(0 0 0)
(0 0 0)
(0 0 0)
(0 0 0)
(0 0 0)
(0 0 0)
(0 0 0)
(0 0 0)
(0 0 0)
(0 0 0)
(0 0 0)
(0 0 0)
(0 0 0)
(0 0 0)
(0 0 0)
(0 0 0)
(0 0 0)
(0 0 0)
(0 0 0)
(0 0 0)
(0 0 0)
(0 0 0)
(0 0 0)
(0 0 0)
(0 0 0)
(0 0 0)
(0 0 0)
(0 0 0)
(0 0 0)
(0 0 0)
(0 0 0)
(0 0 0)
(0 0 0)
(0 0 0)
(0 0 0)
(0 0 0)
(0 0 0)
(0 0 0)
(0 0 0)
(0 0 0)
(0 0 0)
(0 0 0)
(0 0 0)
(0 0 0)
(0 0 0)
(0 0 0)
(0 0 0)
(0 0 0)
(0 0 0)
(0 0 0)
(0 0 0)
(0 0 0)
(0 0 0)
(0 0 0)
(0 0 0)
(0 0 0)
(0 0 0)
(0 0 0)
(0 0 0)
(0 0 0)
(0 0 0)
(0 0 0)
(0 0 0)
(0 0 0)
(0 0 0)
(0 0 0)
(0 0 0)
(0 0 0)
(0 0 0)
(0 0 0)
(0 0 0)
(0 0 0)
(0 0 0)
(0 0 0)
(0 0 0)
(0 0 0)
(0 0 0)
(0 0 0)
(0 0 0)
(0 0 0)
(0 0 0)
(0 0 0)
(0 0 0)
(0 0 0)
(0 0 0)
(0 0 0)
(0 0 0)
(0 0 0)
(0 0 0)
(0 0 0)
(0 0 0)
(0 0 0)
(0 0 0)
(0 0 0)
(0 0 0)
(0 0 0)
(0 0 0)
(0 0 0)
(0 0 0)
(0 0 0)
(0 0 0)
(0 0 0)
(0 0 0)
(0 0 0)
(0 0 0)
(0 0 0)
(0 0 0)
(0 0 0)
(0 0 0)
(0 0 0)
(0 0 0)
(0 0 0)
(0 0 0)
(0 0 0)
(0 0 0)
(0 0 0)
(0 0 0)
(0 0 0)
(0 0 0)
(0 0 0)
(0 0 0)
(0 0 0)
(0 0 0)
(0 0 0)
(0 0 0)
(0 0 0)
(0 0 0)
(0 0 0)
(0 0 0)
(0 0 0)
(0 0 0)
(0 0 0)
(0 0 0)
(0 0 0)
(0 0 0)
(0 0 0)
(0 0 0)
(0 0 0)
(0 0 0)
(0 0 0)
(0 0 0)
(0 0 0)
(0 0 0)
(0 0 0)
(0 0 0)
(0 0 0)
(0 0 0)
(0 0 0)
(0 0 0)
(0 0 0)
(0 0 0)
(0 0 0)
(0 0 0)
(0 0 0)
(0 0 0)
(0 0 0)
(0 0 0)
(0 0 0)
(0 0 0)
(0 0 0)
(0 0 0)
(0 0 0)
(0 0 0)
(0 0 0)
(0 0 0)
(0 0 0)
(0 0 0)
(0 0 0)
(0 0 0)
(0 0 0)
(0 0 0)
(0 0 0)
(0 0 0)
(0 0 0)
(0 0 0)
(0 0 0)
(0 0 0)
(0 0 0)
(0 0 0)
(0 0 0)
(0 0 0)
(0 0 0)
(0 0 0)
(0 0 0)
(0 0 0)
(0 0 0)
(0 0 0)
(0 0 0)
(0 0 0)
(0 0 0)
(0 0 0)
(0 0 0)
(0 0 0)
(0 0 0)
(0 0 0)
(0 0 0)
(0 0 0)
(0 0 0)
(0 0 0)
(0 0 0)
(0 0 0)
(0 0 0)
(0 0 0)
(0 0 0)
(0 0 0)
(0 0 0)
(0 0 0)
(0 0 0)
(0 0 0)
(0 0 0)
(0 0 0)
(0 0 0)
(0 0 0)
(0 0 0)
(0 0 0)
(0 0 0)
(0 0 0)
(0 0 0)
(0 0 0)
(0 0 0)
(0 0 0)
(0 0 0)
(0 0 0)
(0 0 0)
(0 0 0)
(0 0 0)
(0 0 0)
(0 0 0)
(0 0 0)
(0 0 0)
(0 0 0)
(0 0 0)
(0 0 0)
(0 0 0)
(0 0 0)
(0 0 0)
(0 0 0)
(0 0 0)
(0 0 0)
(0 0 0)
(0 0 0)
(0 0 0)
(0 0 0)
(0 0 0)
(0 0 0)
(0 0 0)
(0 0 0)
(0 0 0)
(0 0 0)
(0 0 0)
(0 0 0)
(0 0 0)
(0 0 0)
(0 0 0)
(0 0 0)
(0 0 0)
(0 0 0)
(0 0 0)
(0 0 0)
(0 0 0)
(0 0 0)
(0 0 0)
(0 0 0)
(0 0 0)
(0 0 0)
(0 0 0)
(0 0 0)
(0 0 0)
(0 0 0)
(0 0 0)
(0 0 0)
(0 0 0)
(0 0 0)
(0 0 0)
(0 0 0)
(0 0 0)
(0 0 0)
(0 0 0)
(0 0 0)
(0 0 0)
(0 0 0)
(0 0 0)
(0 0 0)
(0 0 0)
(0 0 0)
(0 0 0)
(0 0 0)
(0 0 0)
(0 0 0)
(0 0 0)
(0 0 0)
(0 0 0)
(0 0 0)
(0 0 0)
(0 0 0)
(0 0 0)
(0 0 0)
(0 0 0)
(0 0 0)
(0 0 0)
(0 0 0)
(0 0 0)
(0 0 0)
(0 0 0)
(0 0 0)
(0 0 0)
(0 0 0)
(0 0 0)
(0 0 0)
(0 0 0)
(0 0 0)
(0 0 0)
(0 0 0)
(0 0 0)
(0 0 0)
(0 0 0)
(0 0 0)
(0 0 0)
(0 0 0)
(0 0 0)
(0 0 0)
(0 0 0)
(0 0 0)
(0 0 0)
(0 0 0)
(0 0 0)
(0 0 0)
(0 0 0)
(0 0 0)
(0 0 0)
(0 0 0)
(0 0 0)
(0 0 0)
(0 0 0)
(0 0 0)
(0 0 0)
(0 0 0)
(0 0 0)
(0 0 0)
(0 0 0)
(0 0 0)
(0 0 0)
(0 0 0)
(0 0 0)
(0 0 0)
(0 0 0)
(0 0 0)
(0 0 0)
(0 0 0)
(0 0 0)
(0 0 0)
(0 0 0)
(0 0 0)
(0 0 0)
(0 0 0)
(0 0 0)
(0 0 0)
(0 0 0)
(0 0 0)
(0 0 0)
(0 0 0)
(0 0 0)
(0 0 0)
(0 0 0)
(0 0 0)
(0 0 0)
(0 0 0)
(0 0 0)
(0 0 0)
(0 0 0)
(0 0 0)
(0 0 0)
(0 0 0)
(0 0 0)
(0 0 0)
(0 0 0)
(0 0 0)
(0 0 0)
(0 0 0)
(0 0 0)
(0 0 0)
(0 0 0)
(0 0 0)
(0 0 0)
(0 0 0)
(0 0 0)
(0 0 0)
(0 0 0)
(0 0 0)
(0 0 0)
(0 0 0)
(0 0 0)
(0 0 0)
(0 0 0)
(0 0 0)
(0 0 0)
(0 0 0)
(0 0 0)
(0 0 0)
(0 0 0)
(0 0 0)
(0 0 0)
(0 0 0)
(0 0 0)
(0 0 0)
(0 0 0)
(0 0 0)
(0 0 0)
(0 0 0)
(0 0 0)
(0 0 0)
(0 0 0)
(0 0 0)
(0 0 0)
(0 0 0)
(0 0 0)
(0 0 0)
(0 0 0)
(0 0 0)
(0 0 0)
(0 0 0)
(0 0 0)
(0 0 0)
(0 0 0)
(0 0 0)
(0 0 0)
(0 0 0)
(0 0 0)
(0 0 0)
(0 0 0)
(0 0 0)
(0 0 0)
(0 0 0)
(0 0 0)
(0 0 0)
(0 0 0)
(0 0 0)
(0 0 0)
(0 0 0)
(0 0 0)
(0 0 0)
(0 0 0)
(0 0 0)
(0 0 0)
(0 0 0)
(0 0 0)
(0 0 0)
(0 0 0)
(0 0 0)
(0 0 0)
(0 0 0)
(0 0 0)
(0 0 0)
(0 0 0)
(0 0 0)
(0 0 0)
(0 0 0)
(0 0 0)
(0 0 0)
(0 0 0)
(0 0 0)
(0 0 0)
(0 0 0)
(0 0 0)
(0 0 0)
(0 0 0)
(0 0 0)
(0 0 0)
(0 0 0)
(0 0 0)
(0 0 0)
(0 0 0)
(0 0 0)
(0 0 0)
(0 0 0)
(0 0 0)
(0 0 0)
(0 0 0)
(0 0 0)
(0 0 0)
(0 0 0)
(0 0 0)
(0 0 0)
(0 0 0)
(0 0 0)
(0 0 0)
(0 0 0)
(0 0 0)
(0 0 0)
(0 0 0)
(0 0 0)
(0 0 0)
(0 0 0)
(0 0 0)
(0 0 0)
(0 0 0)
(0 0 0)
(0 0 0)
(0 0 0)
(0 0 0)
(0 0 0)
(0 0 0)
(0 0 0)
(0 0 0)
(0 0 0)
(0 0 0)
(0 0 0)
(0 0 0)
(0 0 0)
(0 0 0)
(0 0 0)
(0 0 0)
(0 0 0)
(0 0 0)
(0 0 0)
(0 0 0)
(0 0 0)
(0 0 0)
(0 0 0)
(0 0 0)
(0 0 0)
(0 0 0)
(0 0 0)
(0 0 0)
(0 0 0)
(0 0 0)
(0 0 0)
(0 0 0)
(0 0 0)
(0 0 0)
(0 0 0)
(0 0 0)
(0 0 0)
(0 0 0)
(0 0 0)
(0 0 0)
(0 0 0)
(0 0 0)
(0 0 0)
(0 0 0)
(0 0 0)
(0 0 0)
(0 0 0)
(0 0 0)
(0 0 0)
(0 0 0)
(0 0 0)
(0 0 0)
(0 0 0)
(0 0 0)
(0 0 0)
(0 0 0)
(0 0 0)
(0 0 0)
(0 0 0)
(0 0 0)
(0 0 0)
(0 0 0)
(0 0 0)
(0 0 0)
(0 0 0)
(0 0 0)
(0 0 0)
(0 0 0)
(0 0 0)
(0 0 0)
(0 0 0)
(0 0 0)
(0 0 0)
(0 0 0)
(0 0 0)
(0 0 0)
(0 0 0)
(0 0 0)
(0 0 0)
(0 0 0)
(0 0 0)
(0 0 0)
(0 0 0)
(0 0 0)
(0 0 0)
(0 0 0)
(0 0 0)
(0 0 0)
(0 0 0)
(0 0 0)
(0 0 0)
(0 0 0)
(0 0 0)
(0 0 0)
(0 0 0)
(0 0 0)
(0 0 0)
(0 0 0)
(0 0 0)
(0 0 0)
(0 0 0)
(0 0 0)
(0 0 0)
(0 0 0)
(0 0 0)
(0 0 0)
(0 0 0)
(0 0 0)
(0 0 0)
(0 0 0)
(0 0 0)
(0 0 0)
(0 0 0)
(0 0 0)
(0 0 0)
(0 0 0)
(0 0 0)
(0 0 0)
(0 0 0)
(0 0 0)
(0 0 0)
(0 0 0)
(0 0 0)
(0 0 0)
(0 0 0)
(0 0 0)
(0 0 0)
(0 0 0)
(0 0 0)
(0 0 0)
(0 0 0)
(0 0 0)
(0 0 0)
(0 0 0)
(0 0 0)
(0 0 0)
(0 0 0)
(0 0 0)
(0 0 0)
(0 0 0)
(0 0 0)
(0 0 0)
(0 0 0)
(0 0 0)
(0 0 0)
(0 0 0)
(0 0 0)
(0 0 0)
(0 0 0)
(0 0 0)
(0 0 0)
(0 0 0)
(0 0 0)
(0 0 0)
(0 0 0)
(0 0 0)
(0 0 0)
(0 0 0)
(0 0 0)
(0 0 0)
(0 0 0)
(0 0 0)
(0 0 0)
(0 0 0)
(0 0 0)
(0 0 0)
(0 0 0)
(0 0 0)
(0 0 0)
(0 0 0)
(0 0 0)
(0 0 0)
(0 0 0)
(0 0 0)
(0 0 0)
(0 0 0)
(0 0 0)
(0 0 0)
(0 0 0)
(0 0 0)
(0 0 0)
(0 0 0)
(0 0 0)
(0 0 0)
(0 0 0)
(0 0 0)
(0 0 0)
(0 0 0)
(0 0 0)
(0 0 0)
(0 0 0)
(0 0 0)
(0 0 0)
(0 0 0)
(0 0 0)
(0 0 0)
(0 0 0)
(0 0 0)
(0 0 0)
(0 0 0)
(0 0 0)
(0 0 0)
(0 0 0)
(0 0 0)
(0 0 0)
(0 0 0)
(0 0 0)
(0 0 0)
(0 0 0)
(0 0 0)
(0 0 0)
(0 0 0)
(0 0 0)
(0 0 0)
(0 0 0)
(0 0 0)
(0 0 0)
(0 0 0)
(0 0 0)
(0 0 0)
(0 0 0)
(0 0 0)
(0 0 0)
(0 0 0)
(0 0 0)
(0 0 0)
(0 0 0)
(0 0 0)
(0 0 0)
(0 0 0)
(0 0 0)
(0 0 0)
(0 0 0)
(0 0 0)
(0 0 0)
(0 0 0)
(0 0 0)
(0 0 0)
(0 0 0)
(0 0 0)
(0 0 0)
(0 0 0)
(0 0 0)
(0 0 0)
(0 0 0)
(0 0 0)
(0 0 0)
(0 0 0)
(0 0 0)
(0 0 0)
(0 0 0)
(0 0 0)
(0 0 0)
(0 0 0)
(0 0 0)
(0 0 0)
(0 0 0)
(0 0 0)
(0 0 0)
(0 0 0)
(0 0 0)
(0 0 0)
(0 0 0)
(0 0 0)
(0 0 0)
(0 0 0)
(0 0 0)
(0 0 0)
(0 0 0)
(0 0 0)
(0 0 0)
(0 0 0)
(0 0 0)
(0 0 0)
(0 0 0)
(0 0 0)
(0 0 0)
(0 0 0)
(0 0 0)
(0 0 0)
(0 0 0)
(0 0 0)
(0 0 0)
(0 0 0)
(0 0 0)
(0 0 0)
(0 0 0)
(0 0 0)
(0 0 0)
(0 0 0)
(0 0 0)
(0 0 0)
(0 0 0)
(0 0 0)
(0 0 0)
(0 0 0)
(0 0 0)
(0 0 0)
(0 0 0)
(0 0 0)
(0 0 0)
(0 0 0)
(0 0 0)
(0 0 0)
(0 0 0)
(0 0 0)
(0 0 0)
(0 0 0)
(0 0 0)
(0 0 0)
(0 0 0)
(0 0 0)
(0 0 0)
(0 0 0)
(0 0 0)
(0 0 0)
(0 0 0)
(0 0 0)
(0 0 0)
(0 0 0)
(0 0 0)
(0 0 0)
(0 0 0)
(0 0 0)
(0 0 0)
(0 0 0)
(0 0 0)
(0 0 0)
(0 0 0)
(0 0 0)
(0 0 0)
(0 0 0)
(0 0 0)
(0 0 0)
(0 0 0)
(0 0 0)
(0 0 0)
(0 0 0)
(0 0 0)
(0 0 0)
(0 0 0)
(0 0 0)
(0 0 0)
(0 0 0)
(0 0 0)
(0 0 0)
(0 0 0)
(0 0 0)
(0 0 0)
(0 0 0)
(0 0 0)
(0 0 0)
(0 0 0)
(0 0 0)
(0 0 0)
(0 0 0)
(0 0 0)
(0 0 0)
(0 0 0)
(0 0 0)
(0 0 0)
(0 0 0)
(0 0 0)
(0 0 0)
(0 0 0)
(0 0 0)
(0 0 0)
(0 0 0)
(0 0 0)
(0 0 0)
(0 0 0)
(0 0 0)
(0 0 0)
(0 0 0)
(0 0 0)
(0 0 0)
(0 0 0)
(0 0 0)
(0 0 0)
(0 0 0)
(0 0 0)
(0 0 0)
(0 0 0)
(0 0 0)
(0 0 0)
(0 0 0)
(0 0 0)
(0 0 0)
(0 0 0)
(0 0 0)
(0 0 0)
(0 0 0)
(0 0 0)
(0 0 0)
(0 0 0)
(0 0 0)
(0 0 0)
(0 0 0)
(0 0 0)
(0 0 0)
(0 0 0)
(0 0 0)
(0 0 0)
(0 0 0)
(0 0 0)
(0 0 0)
(0 0 0)
(0 0 0)
(0 0 0)
(0 0 0)
(0 0 0)
(0 0 0)
(0 0 0)
(0 0 0)
(0 0 0)
(0 0 0)
(0 0 0)
(0 0 0)
(0 0 0)
(0 0 0)
(0 0 0)
(0 0 0)
(0 0 0)
(0 0 0)
(0 0 0)
(0 0 0)
(0 0 0)
(0 0 0)
(0 0 0)
(0 0 0)
(0 0 0)
(0 0 0)
(0 0 0)
(0 0 0)
(0 0 0)
(0 0 0)
(0 0 0)
(0 0 0)
(0 0 0)
(0 0 0)
(0 0 0)
(0 0 0)
(0 0 0)
(0 0 0)
(0 0 0)
(0 0 0)
(0 0 0)
(0 0 0)
(0 0 0)
(0 0 0)
(0 0 0)
(0 0 0)
(0 0 0)
(0 0 0)
(0 0 0)
(0 0 0)
(0 0 0)
(0 0 0)
(0 0 0)
(0 0 0)
(0 0 0)
(0 0 0)
(0 0 0)
(0 0 0)
(0 0 0)
(0 0 0)
(0 0 0)
(0 0 0)
(0 0 0)
(0 0 0)
(0 0 0)
(0 0 0)
(0 0 0)
(0 0 0)
(0 0 0)
(0 0 0)
(0 0 0)
(0 0 0)
(0 0 0)
(0 0 0)
(0 0 0)
(0 0 0)
(0 0 0)
(0 0 0)
(0 0 0)
(0 0 0)
(0 0 0)
(0 0 0)
(0 0 0)
(0 0 0)
(0 0 0)
(0 0 0)
(0 0 0)
(0 0 0)
(0 0 0)
(0 0 0)
(0 0 0)
(0 0 0)
(0 0 0)
(0 0 0)
(0 0 0)
(0 0 0)
(0 0 0)
(0 0 0)
(0 0 0)
(0 0 0)
(0 0 0)
(0 0 0)
(0 0 0)
(0 0 0)
(0 0 0)
(0 0 0)
(0 0 0)
(0 0 0)
(0 0 0)
(0 0 0)
(0 0 0)
(0 0 0)
(0 0 0)
(0 0 0)
(0 0 0)
(0 0 0)
(0 0 0)
(0 0 0)
(0 0 0)
(0 0 0)
(0 0 0)
(0 0 0)
(0 0 0)
(0 0 0)
(0 0 0)
(0 0 0)
(0 0 0)
(0 0 0)
(0 0 0)
(0 0 0)
(0 0 0)
(0 0 0)
(0 0 0)
(0 0 0)
(0 0 0)
(0 0 0)
(0 0 0)
(0 0 0)
(0 0 0)
(0 0 0)
(0 0 0)
(0 0 0)
(0 0 0)
(0 0 0)
(0 0 0)
(0 0 0)
(0 0 0)
(0 0 0)
(0 0 0)
(0 0 0)
(0 0 0)
(0 0 0)
(0 0 0)
(0 0 0)
(0 0 0)
(0 0 0)
(0 0 0)
(0 0 0)
(0 0 0)
(0 0 0)
(0 0 0)
(0 0 0)
(0 0 0)
(0 0 0)
(0 0 0)
(0 0 0)
(0 0 0)
(0 0 0)
(0 0 0)
(0 0 0)
(0 0 0)
(0 0 0)
(0 0 0)
(0 0 0)
(0 0 0)
(0 0 0)
(0 0 0)
(0 0 0)
(0 0 0)
(0 0 0)
(0 0 0)
(0 0 0)
(0 0 0)
(0 0 0)
(0 0 0)
(0 0 0)
(0 0 0)
(0 0 0)
(0 0 0)
(0 0 0)
(0 0 0)
(0 0 0)
(0 0 0)
(0 0 0)
(0 0 0)
(0 0 0)
(0 0 0)
(0 0 0)
(0 0 0)
(0 0 0)
(0 0 0)
(0 0 0)
(0 0 0)
(0 0 0)
(0 0 0)
(0 0 0)
(0 0 0)
(0 0 0)
(0 0 0)
(0 0 0)
(0 0 0)
(0 0 0)
(0 0 0)
(0 0 0)
(0 0 0)
(0 0 0)
(0 0 0)
(0 0 0)
(0 0 0)
(0 0 0)
(0 0 0)
(0 0 0)
(0 0 0)
(0 0 0)
(0 0 0)
(0 0 0)
(0 0 0)
(0 0 0)
(0 0 0)
(0 0 0)
(0 0 0)
(0 0 0)
(0 0 0)
(0 0 0)
(0 0 0)
(0 0 0)
(0 0 0)
(0 0 0)
(0 0 0)
(0 0 0)
(0 0 0)
(0 0 0)
(0 0 0)
(0 0 0)
(0 0 0)
(0 0 0)
(0 0 0)
(0 0 0)
(0 0 0)
(0 0 0)
(0 0 0)
(0 0 0)
(0 0 0)
(0 0 0)
(0 0 0)
(0 0 0)
(0 0 0)
(0 0 0)
(0 0 0)
(0 0 0)
(0 0 0)
(0 0 0)
(0 0 0)
(0 0 0)
(0 0 0)
(0 0 0)
(0 0 0)
(0 0 0)
(0 0 0)
(0 0 0)
(0 0 0)
(0 0 0)
(0 0 0)
(0 0 0)
(0 0 0)
(0 0 0)
(0 0 0)
(0 0 0)
(0 0 0)
(0 0 0)
(0 0 0)
(0 0 0)
(0 0 0)
(0 0 0)
(0 0 0)
(0 0 0)
(0 0 0)
(0 0 0)
(0 0 0)
(0 0 0)
(0 0 0)
(0 0 0)
(0 0 0)
(0 0 0)
(0 0 0)
(0 0 0)
(0 0 0)
(0 0 0)
(0 0 0)
(0 0 0)
(0 0 0)
(0 0 0)
(0 0 0)
(0 0 0)
(0 0 0)
(0 0 0)
(0 0 0)
(0 0 0)
(0 0 0)
(0 0 0)
(0 0 0)
(0 0 0)
(0 0 0)
(0 0 0)
(0 0 0)
(0 0 0)
(0 0 0)
(0 0 0)
(0 0 0)
(0 0 0)
(0 0 0)
(0 0 0)
(0 0 0)
(0 0 0)
(0 0 0)
(0 0 0)
(0 0 0)
(0 0 0)
(0 0 0)
(0 0 0)
(0 0 0)
(0 0 0)
(0 0 0)
(0 0 0)
(0 0 0)
(0 0 0)
(0 0 0)
(0 0 0)
(0 0 0)
(0 0 0)
(0 0 0)
(0 0 0)
(0 0 0)
(0 0 0)
(0 0 0)
(0 0 0)
(0 0 0)
(0 0 0)
(0 0 0)
(0 0 0)
(0 0 0)
(0 0 0)
(0 0 0)
(0 0 0)
(0 0 0)
(0 0 0)
(0 0 0)
(0 0 0)
(0 0 0)
(0 0 0)
(0 0 0)
(0 0 0)
(0 0 0)
(0 0 0)
(0 0 0)
(0 0 0)
(0 0 0)
(0 0 0)
(0 0 0)
(0 0 0)
(0 0 0)
(0 0 0)
(0 0 0)
(0 0 0)
(0 0 0)
(0 0 0)
(0 0 0)
(0 0 0)
(0 0 0)
(0 0 0)
(0 0 0)
(0 0 0)
(0 0 0)
(0 0 0)
(0 0 0)
(0 0 0)
(0 0 0)
(0 0 0)
(0 0 0)
(0 0 0)
(0 0 0)
(0 0 0)
(0 0 0)
(0 0 0)
(0 0 0)
(0 0 0)
(0 0 0)
(0 0 0)
(0 0 0)
(0 0 0)
(0 0 0)
(0 0 0)
(0 0 0)
(0 0 0)
(0 0 0)
(0 0 0)
(0 0 0)
(0 0 0)
(0 0 0)
(0 0 0)
(0 0 0)
(0 0 0)
(0 0 0)
(0 0 0)
(0 0 0)
(0 0 0)
(0 0 0)
(0 0 0)
(0 0 0)
(0 0 0)
(0 0 0)
(0 0 0)
(0 0 0)
(0 0 0)
(0 0 0)
(0 0 0)
(0 0 0)
(0 0 0)
(0 0 0)
(0 0 0)
(0 0 0)
(0 0 0)
(0 0 0)
(0 0 0)
(0 0 0)
(0 0 0)
(0 0 0)
(0 0 0)
(0 0 0)
(0 0 0)
(0 0 0)
(0 0 0)
(0 0 0)
(0 0 0)
(0 0 0)
(0 0 0)
(0 0 0)
(0 0 0)
(0 0 0)
(0 0 0)
(0 0 0)
(0 0 0)
(0 0 0)
(0 0 0)
(0 0 0)
(0 0 0)
(0 0 0)
(0 0 0)
(0 0 0)
(0 0 0)
(0 0 0)
(0 0 0)
(0 0 0)
(0 0 0)
(0 0 0)
(0 0 0)
(0 0 0)
(0 0 0)
(0 0 0)
(0 0 0)
(0 0 0)
(0 0 0)
(0 0 0)
(0 0 0)
(0 0 0)
(0 0 0)
(0 0 0)
(0 0 0)
(0 0 0)
(0 0 0)
(0 0 0)
(0 0 0)
(0 0 0)
(0 0 0)
(0 0 0)
(0 0 0)
(0 0 0)
(0 0 0)
(0 0 0)
(0 0 0)
(0 0 0)
(0 0 0)
(0 0 0)
(0 0 0)
(0 0 0)
(0 0 0)
(0 0 0)
(0 0 0)
(0 0 0)
(0 0 0)
(0 0 0)
(0 0 0)
(0 0 0)
(0 0 0)
(0 0 0)
(0 0 0)
(0 0 0)
(0 0 0)
(0 0 0)
(0 0 0)
(0 0 0)
(0 0 0)
(0 0 0)
(0 0 0)
(0 0 0)
(0 0 0)
(0 0 0)
(0 0 0)
(0 0 0)
(0 0 0)
(0 0 0)
(0 0 0)
(0 0 0)
(0 0 0)
(0 0 0)
(0 0 0)
(0 0 0)
(0 0 0)
(0 0 0)
(0 0 0)
(0 0 0)
(0 0 0)
(0 0 0)
(0 0 0)
(0 0 0)
(0 0 0)
(0 0 0)
(0 0 0)
(0 0 0)
(0 0 0)
(0 0 0)
(0 0 0)
(0 0 0)
(0 0 0)
(0 0 0)
(0 0 0)
(0 0 0)
(0 0 0)
(0 0 0)
(0 0 0)
(0 0 0)
(0 0 0)
(0 0 0)
(0 0 0)
(0 0 0)
(0 0 0)
(0 0 0)
(0 0 0)
(0 0 0)
(0 0 0)
(0 0 0)
(0 0 0)
(0 0 0)
(0 0 0)
(0 0 0)
(0 0 0)
(0 0 0)
(0 0 0)
(0 0 0)
(0 0 0)
(0 0 0)
(0 0 0)
(0 0 0)
(0 0 0)
(0 0 0)
(0 0 0)
(0 0 0)
(0 0 0)
(0 0 0)
(0 0 0)
(0 0 0)
(0 0 0)
(0 0 0)
(0 0 0)
(0 0 0)
(0 0 0)
(0 0 0)
(0 0 0)
(0 0 0)
(0 0 0)
(0 0 0)
(0 0 0)
(0 0 0)
(0 0 0)
(0 0 0)
(0 0 0)
(0 0 0)
(0 0 0)
(0 0 0)
(0 0 0)
(0 0 0)
(0 0 0)
(0 0 0)
(0 0 0)
(0 0 0)
(0 0 0)
(0 0 0)
(0 0 0)
(0 0 0)
(0 0 0)
(0.00168942 0.0044978 -0.00470718)
(0.00354868 -0.00283722 0.000283788)
(-0.00264908 0.0058907 -0.00443748)
(-0.000668178 -0.00437352 -0.00398094)
(0.00247206 -0.00335681 0.000419134)
(-0.00155393 -0.000544043 -0.00568509)
(-0.00318641 0.0132499 -0.00768551)
(-0.00429305 0.014791 -0.00925816)
(0.00733638 0.0352437 -0.0132247)
(-0.000937857 0.0310393 -0.0125364)
(0.0120088 0.0398912 -0.0116921)
(0.0256631 0.0855021 -0.00775838)
(0.0346696 0.115565 0.0172732)
(0.00973519 0.0692301 -0.000720568)
(-0.0168956 0.0725116 0.0128142)
(0.0144637 0.0777753 0.0288056)
(0.00296842 0.0674937 0.0244507)
(-0.0421061 0.0621817 0.0120895)
(-0.0344539 0.0554001 0.00740921)
(-0.0257117 0.0383513 0.0142002)
(-0.0251921 0.0257375 0.0101309)
(-0.00654245 0.0386086 -0.00334377)
(-0.00176978 0.0195593 -0.00435087)
(-0.0206882 0.0253626 0.00814752)
(-0.0166317 0.0215881 0.00410417)
(-0.00895526 -0.00118781 -0.00270605)
(0.048394 0.0454031 -0.00771487)
(0.0219948 0.0172098 -0.0189995)
(0.048474 0.041502 0.0043309)
(0.0670582 0.116307 0.0249338)
(0.0103322 0.0912751 0.0258319)
(0.0410569 0.0670264 0.0307183)
(-0.0390069 0.0412986 0.02437)
(-0.0153591 0.0162186 0.0104724)
(-0.00594035 0.00673383 0.0118116)
(-0.0777985 -0.0303455 -0.000200654)
(-0.0425607 -0.0928306 -0.00164845)
(-0.0323737 -0.0114604 0.0122879)
(-0.0302535 -0.0304792 -0.000109902)
(-0.050072 -0.142759 0.00793168)
(-0.031948 -0.117971 -0.00103572)
(-0.0173803 -0.021278 0.000915279)
(-0.00858594 -0.00588221 0.0031788)
(-0.00918803 -0.0835133 0.000425133)
(-0.00825023 -0.0579378 0.00879292)
(-0.0114065 -0.00854601 -0.00143556)
(-0.00505456 -0.0253824 0.00110896)
(0.00390738 -0.0183702 0.00182963)
(0.0318121 0.0193851 -0.0189965)
(0.0342145 0.0304516 0.00977778)
(0.0259401 0.0312611 0.00748244)
(-0.00382049 0.0328755 0.00925065)
(-0.0787739 0.00828753 0.00740905)
(-0.0100295 0.0268177 0.0172959)
(-0.0866931 0.0319604 0.0175842)
(-0.110028 -0.0343511 -0.010375)
(-0.0806551 -0.0879262 -0.0134253)
(-0.138035 0.0128335 -0.00736165)
(-0.120059 -0.0323603 -0.0143901)
(-0.0553546 -0.130309 -0.0212372)
(-0.0128658 -0.13685 -0.0212872)
(-0.0702331 -0.0580093 -0.0230129)
(-0.0146857 -0.0710779 -0.026424)
(0.00835669 -0.121068 -0.0130455)
(-0.00205388 -0.101377 -0.00131706)
(0.0261042 -0.0756798 -0.0153933)
(-0.000453 -0.0739134 -0.00769351)
(0.00658504 -0.0529758 0.00232467)
(0.00788272 -0.0227261 -2.25213e-05)
(-0.000575816 -0.0502572 -0.00848694)
(0.0168735 0.0243206 0.00432469)
(-0.000962388 0.0144373 0.0208619)
(-0.0680317 0.0214835 0.0234068)
(-0.00655805 0.00271243 0.00800802)
(-0.0344461 0.00112992 0.0209755)
(-0.145322 0.0452804 0.00806812)
(-0.151368 0.0330585 -0.00644038)
(-0.115395 0.0366306 0.0264283)
(-0.15028 0.0658902 0.0144329)
(-0.100674 0.0121819 -0.0213191)
(-0.027669 -0.00660627 -0.0238844)
(-0.125624 0.065361 -0.00269149)
(-0.0597414 0.0369354 -0.0159791)
(0.0217077 -0.0244474 -0.0071901)
(0.00433014 -0.026654 -0.00294922)
(0.00134174 -0.00485017 -0.0111905)
(0.00771765 -0.0171758 -0.00279294)
(0.0051946 -0.0192294 -0.00855894)
(-0.0225656 -0.00282842 0.0140901)
(-0.0636572 0.00363018 0.0220598)
(-0.0996866 0.0353823 0.0271035)
(-0.0677955 0.00935955 0.0183008)
(-0.111723 0.0513344 0.0166492)
(-0.0755355 0.0283565 -0.0051065)
(-0.0686692 0.0156131 0.020282)
(-0.0218182 0.0103203 -0.0086536)
(-0.028364 0.0378428 -0.0432542)
(-0.0286416 0.0331217 -0.0599405)
(-0.0389752 0.0175891 0.0191586)
(-0.035732 0.0641608 -0.0213481)
(-0.0423508 0.0432215 -0.019502)
(-0.0468621 0.0438073 -0.0232067)
(-0.0342737 0.0667064 -0.0380192)
(-0.0436833 0.0747452 -0.031262)
(-0.0483231 0.048986 -0.0376101)
(-0.0222024 0.0323242 -0.0408862)
(-0.023803 0.0430403 -0.0355755)
(-0.0487893 0.0554491 -0.0443925)
(-0.01778 0.0102826 -0.0678343)
(-0.0059186 0.00728924 -0.0399582)
(-0.00316515 0.00191448 -0.0866252)
(0.00745288 0.0345258 -0.0386426)
(0.0077652 0.0169251 -0.0721002)
(0.0169387 0.0831988 -0.0238171)
(0.0423108 0.090368 -0.0275163)
(0.0525962 0.142485 0.0260859)
(0.00166589 0.0221762 -0.0705542)
(0.0159019 0.064097 -0.0539402)
(0.0293028 0.0500492 -0.0650345)
(0.0397445 0.112728 -0.00194742)
(-0.0136853 -0.00145412 -0.0176152)
(-0.0768247 -0.019775 -0.00990509)
(-0.0359927 -0.00788578 -0.0223903)
(-0.052134 -0.00352958 -0.0600567)
(-0.0267866 -0.0200271 -0.0801971)
(-0.0893257 -0.0834109 -0.0615732)
(-0.0432406 -0.0555679 -0.0714765)
(-0.0187391 -0.0264636 -0.0232989)
(-0.0229254 -0.039028 -0.0589287)
(0.0455225 0.0460641 -0.0308626)
(0.0231829 0.00289545 -0.0480778)
(0.0634001 0.0422956 -0.00924131)
(0.0273608 0.0263454 -0.0669259)
(0.0069971 -0.00727525 -0.0836251)
(0.0420928 0.0254962 -0.0459271)
(0.0168648 -0.0773555 -0.0545906)
(0.0102413 -0.0459056 -0.0387132)
(-0.0274118 -0.073868 -0.0707384)
(-0.0213484 -0.0490829 -0.0871712)
(0.000442511 -0.0294026 -0.0497736)
(0.0528447 0.0261802 0.00109931)
(0.0426709 0.022154 -0.00613124)
(0.00706232 -0.00522331 -0.0885626)
(0.0265908 0.0129441 -0.0553185)
(0.0210852 0.0214905 -0.0657864)
(0.0269242 -0.057117 -0.0212422)
(0.0145363 -0.0613479 -0.0336881)
(-0.0512723 -0.0184585 -0.120429)
(0.00160346 -0.0213087 0.00872795)
(-0.0224913 -0.0168232 -0.106311)
(0.0274089 0.0238061 -0.00764124)
(0.0184294 0.0298602 -0.0503431)
(-0.137099 0.0510309 0.0842596)
(0.00152315 0.00495827 0.0198008)
(-0.0401046 0.000874612 0.0680938)
(0.0081568 0.063231 -0.00893955)
(-0.111993 0.0620672 -0.0995389)
(0.00859428 0.031669 0.0141443)
(-0.0464569 0.018572 0.10615)
(-0.00444843 -0.0305384 -0.043092)
(-0.0262097 -0.00773882 -0.0535793)
(0.000265731 -0.0163285 -0.0335248)
(-0.0510504 -0.0475554 -0.136158)
(-0.0298216 -0.0293135 -0.128728)
(-0.0370935 -0.0316473 -0.11865)
(-0.0112752 -0.0140177 -0.102392)
(-0.0023682 -0.0106074 -0.0966745)
(-0.0330476 -0.0120688 0.0417612)
(-0.0378997 -0.0100942 0.0676553)
(-0.135407 0.0262942 0.0836443)
(-0.107223 0.00134382 0.0809324)
(-0.0662302 -0.0209981 0.103026)
(-0.111102 -0.00681045 0.127801)
(-0.0970375 -0.00106496 0.11082)
(-0.120981 0.0364294 -0.0454413)
(-0.136153 0.01847 0.0621037)
(-0.147751 0.0222741 -0.00802501)
(-0.0833 0.00616996 -0.119231)
(-0.108987 0.0140214 0.0813069)
(-0.0307035 0.00121997 -0.103391)
(-0.0112159 0.0144337 -0.0722379)
(-0.0046899 0.00392822 -0.0785865)
(-0.0385458 0.0253328 -0.057195)
(-0.0169785 0.0383013 -0.0539381)
(-0.0324569 0.0602001 -0.0444492)
(-0.0277173 0.0081241 -0.0761649)
(-0.00705097 0.01998 -0.0673355)
(-0.0220931 0.0324456 -0.0564565)
(-0.0496477 0.0225541 -0.051137)
(-0.0248883 -0.0101187 -0.0794109)
(-0.0282174 -0.00156079 -0.0744639)
(-0.051054 -0.0127289 -0.0575921)
(-0.0208886 -0.0198459 -0.0805717)
(-0.00561607 -0.000667871 -0.109288)
(-0.00350431 -0.000419252 -0.0991722)
(0.00670949 0.00693755 -0.0932874)
(0.00910183 -0.00924854 -0.10244)
(0.0103382 0.0294781 -0.0756939)
(0.0128788 0.0186102 -0.088709)
(0.00710802 0.0398883 -0.0445974)
(0.00297437 -0.00391464 -0.0961557)
(0.00243723 -0.000762992 -0.0845811)
(0.00429235 -0.00816546 -0.0992638)
(-0.0217033 -0.0345955 -0.0587354)
(-0.0315412 -0.0225789 -0.0990302)
(-0.0859124 -0.0534983 -0.0766285)
(-0.0518461 -0.0271831 -0.0689744)
(-0.0399655 -0.0256401 -0.0775951)
(-0.0114432 -0.00268545 -0.0734954)
(-0.0740413 -0.0498025 -0.0744105)
(-0.0281325 -0.006492 -0.0720814)
(-0.0282691 -0.0319526 -0.0539963)
(-0.00654121 0.0030112 -0.0675197)
(0.0160732 0.00626164 -0.0921009)
(0.00620497 -0.0311007 -0.110837)
(0.0228392 -0.0102314 -0.100626)
(0.0161514 -0.0253246 -0.104555)
(0.00159414 -0.0649503 -0.128558)
(0.00478841 -0.0584924 -0.120248)
(-0.0447476 -0.01377 -0.119755)
(-0.00642106 -0.014409 -0.0524866)
(-0.0262299 0.00686553 -0.0789665)
(-0.0426524 0.00216249 -0.141416)
(-0.0131791 -0.00318316 -0.0894331)
(-0.00451088 -0.0220284 -0.13544)
(0.00466067 0.00745293 -0.132239)
(-0.0144648 -0.0688311 -0.14731)
(-0.0507514 -0.0588311 -0.152434)
(-0.035567 -0.0341093 -0.166711)
(-0.0235735 0.00410134 -0.0461084)
(-0.0395678 0.00605329 -0.16091)
(-0.0684337 0.0219906 -0.211752)
(-0.0255103 0.0204503 -0.107178)
(-0.040085 0.0284201 -0.187249)
(0.00865473 0.0288923 -0.133835)
(-0.0244562 -0.0128397 -0.168601)
(-0.0798738 0.0344468 -0.140464)
(0.0343177 0.0863871 -0.104195)
(-0.0199819 0.123152 0.0441428)
(-0.031292 0.0584935 -0.0971077)
(-0.0638637 -0.044206 -0.131736)
(0.035329 0.0831623 -0.0842071)
(0.0173282 0.142065 -0.00705227)
(-0.0465724 -0.0238533 -0.15853)
(-0.0279822 -0.0463741 -0.149825)
(-0.0134618 -0.0207145 -0.145348)
(0 0 0)
(0 0 0)
(0 0 0)
(0 0 0)
(-9.87696e-18 6.13634e-18 1.75566e-16)
(-0.043988 0.023422 0.0850502)
(0 0 0)
(-0.0243215 0.0607857 -0.0803776)
(-0.0199569 0.0217391 -0.122697)
(0.0250919 0.013766 -0.0599887)
(-0.0213367 0.0619222 -0.11954)
(0 0 0)
(-0.0198303 -0.0296179 -0.203421)
(-0.034531 0.000929883 -0.155304)
(0.078777 -0.087411 -0.248375)
(0.093502 -0.0758944 -0.292977)
(0 0 0)
(0.122172 -0.054978 -0.32727)
(0.00256651 -0.00059069 -0.0783672)
(0.00177107 -0.00512543 -0.0761362)
(-0.0224897 0.00585209 -0.0819231)
(0.000679756 0.00857316 -0.0786224)
(-0.0181663 0.0112671 -0.0709557)
(-0.0211382 0.00328352 -0.0926619)
(-0.000966505 -0.00348349 -0.0778407)
(-0.016413 -0.0028411 -0.0703036)
(-0.0441239 -0.0377738 -0.0545695)
(-0.0108449 -0.0209559 -0.0774456)
(-0.0219321 -0.00588759 -0.0856196)
(-0.026978 -0.0408233 -0.0518675)
(0.000252699 -0.018192 -0.0716675)
(0.00822239 0.00241453 -0.0907068)
(0.0163614 0.00562029 -0.0834741)
(0.0141279 -0.0244469 -0.0960761)
(0.0174394 -0.0317169 -0.0841163)
(0.00263937 -0.0178074 -0.0790378)
(0.00759574 -0.0271727 -0.0954075)
(-0.0106849 -0.0572384 -0.0506622)
(0.00344957 -0.00835232 -0.0824062)
(0.00203205 -0.0270877 -0.0640698)
(0.0120495 -0.0380777 -0.0774812)
(-0.00279055 -0.0616523 -0.038601)
(0.00245083 0.0070858 -0.0775665)
(-0.0590797 -0.0291042 -0.096336)
(-0.0177285 0.00627585 -0.0934482)
(0.0126155 -0.00676534 -0.0807736)
(0.0305791 0.0212203 -0.0841787)
(-0.0389855 -0.0270538 -0.109511)
(-0.00557274 0.0137115 -0.106788)
(-0.00254874 0.00893711 -0.0865552)
(0.00567169 0.0272855 -0.102226)
(0.0161548 -0.0560495 -0.100366)
(-0.000282393 -0.0810361 -0.108452)
(-0.0117526 -0.0940913 -0.102103)
(0.0162589 -0.0715704 -0.0769051)
(0.00368688 -0.0830826 -0.0755702)
(-0.00505075 -0.103099 -0.0742841)
(-0.0530254 0.0249909 -0.442891)
(-0.0163682 -0.00797903 -0.110366)
(0 0 0)
(-0.0602261 0.0142724 -0.467169)
(-0.0373149 -0.000412759 -0.478366)
(-0.041948 -0.10308 -0.134811)
(-0.0353263 -0.0924082 -0.171751)
(-0.00849959 -0.0945051 -0.0918905)
(-0.024941 -0.115939 -0.11408)
(-0.0457489 -0.12069 -0.158839)
(1.49457e-17 -4.01445e-17 1.66053e-16)
(0 0 0)
(-0.0607756 -0.00926026 -0.492582)
(-0.0373376 -0.00544884 -0.457427)
(0 0 0)
(-0.0401219 -0.0739123 -0.171295)
(-0.065233 -0.123037 -0.164915)
(-0.0224114 -0.0777727 -0.0795018)
(0.018994 0.0443281 -0.0414424)
(0.0115589 0.0519602 0.0271952)
(-0.0587547 -0.124294 -0.105556)
(-0.00769138 -0.113606 -0.0443892)
(0.00681255 0.00590919 -0.0230484)
(0.0396774 0.0264568 0.0807236)
(0 0 0)
(0 0 0)
(0 0 0)
(0 0 0)
(0 0 0)
(0 0 0)
(0 0 0)
(0 0 0)
(0 0 0)
(0 0 0)
(-0.000562432 0.0209884 -0.0519474)
(0 0 0)
(0 0 0)
(0.0723453 0.0289962 0.0517089)
(0 0 0)
(0.113397 -0.068831 -0.227062)
(0 0 0)
(0.111356 -0.063501 -0.115096)
(0.140327 -0.0601465 -0.160714)
(0 0 0)
(0 0 0)
(-0.00184017 -0.00533734 -0.0690421)
(-0.0117674 -0.00339393 -0.0522315)
(-0.0225617 -0.000503834 -0.0915773)
(-0.00786486 -0.00999114 -0.0637422)
(-0.0222201 -0.0136577 -0.0557952)
(-0.0212084 -0.00304788 -0.078148)
(-0.0183587 -0.00846278 -0.0412836)