/*--------------------------------*- C++ -*----------------------------------*\
| =========                 |                                                 |
| \\      /  F ield         | OpenFOAM: The Open Source CFD Toolbox           |
|  \\    /   O peration     | Version:  5.x                                   |
|   \\  /    A nd           | Web:      www.OpenFOAM.org                      |
|    \\/     M anipulation  |                                                 |
\*---------------------------------------------------------------------------*/
FoamFile
{
    version     2.0;
    format      ascii;
    class       volVectorField;
    location    "7.2";
    object      U;
}
// * * * * * * * * * * * * * * * * * * * * * * * * * * * * * * * * * * * * * //

dimensions      [0 1 -1 0 0 0 0];

internalField   nonuniform List<vector> 
10571
(
(0.591716 0.34448 1.71441)
(0.0837245 0.0324848 1.06052)
(0.320897 0.648104 2.24077)
(1.36221 0.57331 3.65399)
(1.39723 0.722664 4.30662)
(0.645046 -0.0443741 2.63984)
(0.389739 0.777574 3.19427)
(0.903411 0.36969 2.80545)
(0.775032 0.140142 2.92346)
(-0.306709 -0.0181031 3.08349)
(0.287904 -0.145649 1.47294)
(1.26622 -0.126389 2.18343)
(0.0313717 0.0534095 4.47684)
(0.27063 -0.580942 3.00423)
(-0.0895135 -0.722793 1.96875)
(-0.00672852 -0.768052 2.01613)
(0.425333 -0.0194501 1.04201)
(0.127904 -0.591144 4.06562)
(-0.0828472 0.431395 3.26571)
(-0.615735 -0.16204 2.0436)
(0.115886 -0.356112 1.15636)
(0.477964 0.144099 1.40138)
(-0.447696 0.999431 2.98385)
(-0.267746 -0.0183241 0.876186)
(0.44107 0.155617 1.27108)
(0.178836 -0.229212 0.921266)
(0.440019 -0.261196 1.62352)
(0.0600884 -0.323287 1.47118)
(0.138973 -0.040359 3.08592)
(-0.470546 0.523141 3.92681)
(0.494281 -0.0931191 1.43467)
(0.747071 -0.0175883 2.58427)
(1.09139 0.0710771 4.44758)
(0.19923 0.213045 3.45523)
(-0.0693262 0.189622 0.917468)
(-1.67611 0.804608 3.45825)
(0.256928 0.180975 1.58669)
(0.862375 0.231973 2.6728)
(0.740862 -0.228994 3.33271)
(-0.00297382 -0.161629 1.69906)
(0.371136 0.304528 0.739451)
(0.563349 0.518658 2.59065)
(0.194044 -0.610775 6.711)
(-0.598452 -0.35616 2.07409)
(0.106685 -0.184035 0.479668)
(-0.132077 -0.207086 1.40093)
(0.612746 -1.26749 2.49676)
(0.152989 -0.199245 0.666187)
(0.265795 -0.0793169 -0.241649)
(0.0737257 0.202578 1.56379)
(0.341612 0.0714314 1.46753)
(0.315903 0.153069 2.34424)
(-0.22635 -0.282758 2.28743)
(-0.0424849 -0.688057 1.17809)
(0.494999 -0.171789 2.00679)
(0.107091 -0.288666 4.24644)
(-0.019613 -0.108176 3.1437)
(0.607096 -0.327569 3.33852)
(0.118061 0.978225 3.10279)
(-0.123942 0.341023 0.935139)
(0.195527 -0.108843 2.92802)
(0.383845 -0.479888 3.18047)
(0.348702 0.172656 2.0458)
(-0.0733818 0.118322 1.66087)
(0.0908033 0.0914241 0.591558)
(0.870022 -0.276635 3.35343)
(0.0454581 -0.960076 4.73197)
(0.394149 -0.320539 0.796717)
(-0.0917197 0.545813 0.245235)
(0.343705 -0.749622 1.60408)
(0.514874 -0.405844 1.40417)
(0.0942278 -0.103689 -0.0079289)
(-0.227873 -0.0351078 0.490287)
(0.165373 0.0758874 0.475326)
(0.473263 0.138598 1.01441)
(0.0091816 0.136867 2.8023)
(-0.35575 -0.517998 2.56855)
(0.166815 -0.218498 1.00005)
(0.0764295 -0.461994 1.95814)
(-0.142119 -0.438883 3.43273)
(-0.264524 -0.00488041 1.82972)
(0.348265 -0.548381 2.96194)
(0.284979 0.11338 1.75295)
(0.300994 0.0498071 0.981047)
(0.159926 -0.591917 2.35615)
(0.419202 -0.604159 2.81192)
(-0.200741 0.361233 2.01757)
(-0.583691 0.807041 1.50702)
(-0.0416276 -0.152709 -0.123505)
(0.778921 -0.991035 3.59146)
(0.524495 -0.525804 3.28497)
(0.620542 -0.0860168 1.19438)
(-0.339035 1.01751 1.37844)
(0.0675776 -0.205716 0.367023)
(0.460111 -0.0104501 0.664396)
(0.254617 -0.0649813 0.0374302)
(-0.267263 -0.0379904 0.505795)
(0.224429 -0.273038 0.322551)
(0.260009 -0.0496281 1.26832)
(-0.284416 -0.144209 3.37072)
(-0.199185 -0.417357 2.67958)
(0.0931071 0.102242 0.826421)
(-0.352828 -0.430583 2.02271)
(0.0896653 -0.289547 2.95238)
(-0.159022 0.0441121 2.00889)
(-0.409394 -0.994922 2.50041)
(-0.0616492 -0.228255 0.528795)
(0.15561 -0.0791509 0.856256)
(0.165774 -0.597627 1.61069)
(0.534379 -0.291077 2.87379)
(-0.11853 0.183193 2.67279)
(-0.467302 0.454895 0.479118)
(-0.137845 -0.0533317 -0.198148)
(0.492048 -0.494913 2.32134)
(0.703999 -0.349986 3.46638)
(0.940336 0.0157891 2.3906)
(-0.324614 0.97821 2.09804)
(0.0323729 0.0218277 -0.156408)
(0.277076 -0.0146403 0.521999)
(0.146215 -0.00143163 0.368333)
(-0.286657 0.0087649 0.60515)
(0.109565 -0.0894359 0.143119)
(0.0306057 -0.167252 1.72031)
(-0.459305 -0.32417 3.74245)
(0.233243 -0.0349054 2.27859)
(-0.0138487 0.0519309 0.776239)
(-0.257063 -0.254274 2.08591)
(0.336292 -0.33844 2.77344)
(0.411438 0.0133607 2.24098)
(-0.244265 0.0625241 1.52222)
(-0.00703668 0.00626839 -0.00194008)
(-0.0466767 -0.0977797 0.134188)
(-0.0621689 -0.209252 0.92409)
(0.179484 -0.50615 1.93658)
(0.397624 -0.127231 3.1194)
(0.413327 0.0222324 2.61038)
(-0.680599 0.0939906 0.48921)
(0.0439891 0.00866593 0.0102743)
(-0.0296649 0.0314639 0.12604)
(0.288732 -0.208555 1.95011)
(0.731157 0.158642 3.51716)
(0.83744 0.0355972 2.94578)
(-0.0041583 0.551025 2.64907)
(0.0357508 0.0178582 -0.272255)
(0.212756 0.0475423 0.521715)
(0.0572261 0.0663623 0.479262)
(-0.253473 0.00916282 0.988247)
(0.0063987 -0.0277608 0.0122417)
(-0.154739 -0.200166 2.28826)
(-0.149968 -0.131745 3.35888)
(0.296273 0.334167 2.37256)
(0.00181786 0.0115223 0.892945)
(-0.018084 0.0244767 2.55193)
(0.614784 -0.220579 2.93661)
(0.6551 0.0742577 2.65309)
(0.0748268 0.39339 1.76783)
(-0.114972 0.0187151 -0.0240313)
(-0.0315094 0.0203933 -0.0226818)
(0.0484005 -0.160986 1.26569)
(0.166956 -0.201391 1.94822)
(0.318447 -0.0693488 1.97887)
(0.622763 -0.0400734 2.58433)
(0.37393 0.0224155 1.08121)
(-0.148747 0.0458374 -0.0344354)
(0.0810728 0.0185375 0.255963)
(0.162098 0.139761 1.88489)
(0.626773 0.31557 2.79518)
(0.851636 0.0414198 3.15276)
(0.50686 0.0389077 2.85556)
(-0.255562 -0.0594843 -0.0561898)
(0.0481922 0.0208733 -0.295961)
(0.190456 0.0625697 0.60394)
(0.0767636 0.0327561 0.945944)
(0.0276475 0.0608715 0.599518)
(0.0026297 -0.0270414 0.0479138)
(-0.259257 -0.318916 2.72955)
(0.214842 -0.232245 3.58307)
(0.284883 0.389133 2.36791)
(-0.00897746 -0.0274063 1.23311)
(0.140661 0.122837 1.21882)
(0.533936 0.0358458 2.30789)
(0.631964 0.279556 2.85309)
(0.138161 0.472805 2.03059)
(-0.379451 -0.121522 -0.0356828)
(-0.0146946 0.0567272 -0.111402)
(0.165268 0.0454583 1.51359)
(0.3637 -0.0381054 1.4022)
(0.395105 -0.0149582 2.26573)
(0.495727 -0.0266802 2.75515)
(0.431339 0.132556 1.66671)
(-0.070003 0.092137 -0.15363)
(0.118252 0.0968623 0.39298)
(0.169946 0.216085 1.05664)
(0.672989 0.24839 2.66471)
(0.799251 -0.0285229 3.23134)
(0.489249 -0.156049 2.81387)
(0.457312 0.0355747 0.508829)
(0.0569863 0.0489758 -0.232619)
(0.235777 0.0498788 0.764818)
(0.0589424 0.135304 1.52694)
(0.27817 -0.00862382 0.629133)
(-0.00489817 -0.0169849 0.423186)
(-0.344109 -0.223668 2.69097)
(0.45224 -0.095988 3.03352)
(0.229924 0.262116 2.32324)
(-0.0766377 -0.159589 1.61531)
(0.317645 0.0398165 1.76193)
(0.388175 0.0113093 2.48189)
(0.37126 0.318906 3.03104)
(0.142079 0.371824 2.65865)
(0.20383 0.332797 0.382946)
(-0.0180551 0.0209565 -0.119968)
(0.214708 0.132005 1.54387)
(0.46789 -0.0895279 1.4775)
(0.326188 -0.00440657 2.22117)
(0.17171 0.021377 2.80663)
(0.167275 0.216843 2.2202)
(0.146909 -0.4182 0.055579)
(0.123478 0.202732 0.622346)
(0.364151 0.182025 1.06723)
(0.581963 0.24948 2.62739)
(0.628952 0.00145759 3.27139)
(0.219175 -0.257959 3.10579)
(0.100697 0.0345012 -0.207761)
(0.110876 0.200498 1.05871)
(-0.113861 0.20015 1.96734)
(0.181684 -0.081799 0.713645)
(-0.0150167 -0.130155 0.563093)
(0.0789318 0.099013 2.62382)
(0.234526 0.085153 3.04206)
(0.168209 0.194736 2.3588)
(0.077312 0.0678937 1.30926)
(0.259294 0.0168077 1.64742)
(0.236959 -0.0226812 2.49791)
(0.22856 0.215917 3.18555)
(-0.186491 0.160847 2.94836)
(-0.00568638 0.00773829 -0.112614)
(0.268451 -0.113755 0.986668)
(0.375327 -0.0707215 1.49398)
(0.157769 0.0122874 2.14006)
(0.0326637 0.0501835 2.93147)
(-0.34557 0.136917 2.54284)
(0.175185 0.100488 0.540179)
(0.289018 0.150188 0.993069)
(0.448475 0.253879 2.46715)
(0.477672 0.0699159 3.27352)
(0.21139 -0.185833 3.54181)
(0.124806 0.0396076 -0.0643371)
(-0.0199579 0.297411 1.42718)
(-0.203976 0.29739 2.35131)
(0.0600078 -0.0197723 0.866556)
(0.0633738 -0.120964 0.793726)
(0.0727312 0.0260925 2.48243)
(0.147761 -0.0106295 2.8571)
(0.146664 0.10937 2.42693)
(0.0488517 -0.0208362 1.20508)
(0.177996 0.00683975 1.58405)
(0.162474 -0.0376395 2.47263)
(0.224408 0.15132 3.30003)
(-0.0818517 0.0967535 3.11775)
(-0.0112698 -0.0305245 -0.0867564)
(0.157085 -0.151587 0.834956)
(0.290323 -0.0487583 1.39001)
(0.0542561 0.017022 2.14822)
(0.0302174 0.0608518 3.08689)
(0.00453517 0.0352202 2.72589)
(0.0140763 0.0365902 0.149069)
(0.178265 0.136954 0.82393)
(0.348883 0.234819 2.30518)
(0.382155 0.117658 3.26923)
(0.22315 -0.267238 3.60731)
(0.0573106 0.0872616 0.0289374)
(-0.0962479 0.340138 1.75936)
(-0.211743 0.306857 2.59059)
(0.0658904 -0.00841447 0.758168)
(0.0442028 -0.0124039 0.802371)
(0.0768568 -0.0317526 2.42888)
(0.152685 -0.0591995 2.81744)
(0.10761 0.0766891 2.44056)
(-0.0163888 -0.0769709 1.02923)
(0.132366 -0.0202192 1.57598)
(0.121709 -0.0509075 2.46906)
(0.192624 0.126055 3.39129)
(-0.0406731 0.0824738 3.1718)
(0.00212628 0.101336 -0.0597488)
(0.0401159 -0.114597 0.650957)
(0.234047 -0.037549 1.35768)
(0.0178073 0.0279571 2.15725)
(-0.0090576 0.0637734 3.18086)
(0.0123072 0.0276841 2.75443)
(-0.106942 -0.00726937 -0.0217023)
(0.0692939 0.162896 0.756549)
(0.261054 0.216139 2.17772)
(0.319187 0.13136 3.24158)
(0.222404 -0.294399 3.67094)
(-0.111704 0.0679368 0.272904)
(-0.14779 0.338223 1.95405)
(-0.211879 0.3091 2.80147)
(0.100948 -0.0157266 0.841896)
(0.0184937 -0.00653051 0.796932)
(0.0806896 -0.0477067 2.41307)
(0.160194 -0.0715793 2.81248)
(0.0901222 0.0586634 2.50296)
(-0.0315267 -0.0762572 1.00392)
(0.0924032 -0.057306 1.55899)
(0.0926715 -0.0519677 2.44723)
(0.169128 0.119673 3.42876)
(-0.0236171 0.0661266 3.25713)
(-0.00236793 0.129033 -0.0095195)
(-0.0176534 0.0138886 0.479236)
(0.174831 -0.0165402 1.33264)
(-0.0208111 0.0409956 2.18324)
(-0.0423699 0.0660218 3.22278)
(-0.00557874 0.0231438 2.81319)
(-0.0170827 0.131905 0.0307673)
(0.0561182 0.170768 0.739729)
(0.169517 0.188784 2.06743)
(0.261937 0.135862 3.20964)
(0.203855 -0.279499 3.72652)
(-0.175208 0.0628192 0.508066)
(-0.163993 0.297642 2.0888)
(-0.206436 0.302157 2.96667)
(0.107519 -0.0189312 0.974219)
(0.0208446 -0.0311693 0.774151)
(0.0684884 -0.063469 2.39832)
(0.159615 -0.0870946 2.78739)
(0.0879719 0.050359 2.57984)
(-0.0340654 -0.0842917 0.969989)
(0.094042 -0.070149 1.53271)
(0.075887 -0.046937 2.40547)
(0.155696 0.121994 3.44139)
(-0.000785484 0.0768406 3.33627)
(-0.0070507 0.0888507 0.140158)
(-0.0733775 -0.11865 0.299642)
(0.174594 -0.0133987 1.29589)
(-0.0449176 0.0471554 2.18948)
(-0.0531816 0.0722741 3.2392)
(-0.0304833 0.0189609 2.86462)
(0.019156 0.107476 0.0408302)
(0.0676733 0.171844 0.740102)
(0.106542 0.164634 1.97156)
(0.200126 0.135914 3.17785)
(0.179825 -0.259378 3.75263)
(-0.202052 0.035313 0.721093)
(-0.152643 0.240714 2.1761)
(-0.188458 0.280802 3.08439)
(0.124526 -0.0248955 1.14427)
(-0.00349661 -0.0266276 0.776532)
(0.0675574 -0.0809317 2.35231)
(0.160403 -0.0839837 2.75026)
(0.0891379 0.0461648 2.64471)
(-0.0355087 -0.0667295 0.971582)
(0.0985419 -0.0663757 1.47713)
(0.0634504 -0.0618265 2.35066)
(0.14818 0.123818 3.44717)
(0.0195607 0.100698 3.41018)
(-0.00452241 -0.00967957 0.194979)
(0.0864876 -0.0108703 0.211668)
(0.205367 0.00786438 1.24388)
(-0.0615478 0.049871 2.17505)
(-0.0579109 0.0842184 3.24266)
(-0.0559435 0.0178724 2.87204)
(-0.0232905 0.0151897 0.0910035)
(0.0832653 0.165779 0.770236)
(0.0444264 0.164306 1.90406)
(0.14008 0.138338 3.15645)
(0.15544 -0.232597 3.74795)
(-0.203614 0.0267103 0.900375)
(-0.142545 0.192679 2.24357)
(-0.158706 0.248689 3.16)
(0.157061 -0.0193224 1.32387)
(-0.0269437 -0.0251418 0.818043)
(0.0768184 -0.0833252 2.28763)
(0.159149 -0.0636598 2.71561)
(0.10013 0.047559 2.71547)
(-0.0247277 0.00563946 0.987951)
(0.0670704 -0.0746606 1.45912)
(0.0456707 -0.0749994 2.31529)
(0.143965 0.11695 3.44962)
(0.0352048 0.123002 3.46728)
(0.00562227 -0.00385024 0.162059)
(0.145482 0.11846 0.206885)
(0.18947 0.0745841 1.17999)
(-0.0712648 0.0538022 2.17368)
(-0.0664779 0.0921813 3.2433)
(-0.0707995 0.0110451 2.84925)
(-0.0639779 -0.0561012 0.182413)
(0.095909 0.167633 0.790355)
(-0.00589979 0.163854 1.87472)
(0.084528 0.148097 3.14426)
(0.129334 -0.199581 3.72546)
(-0.229631 0.000422322 1.05079)
(-0.13139 0.155506 2.29036)
(-0.1341 0.216788 3.20202)
(0.190968 -0.00816763 1.48187)
(-0.0347604 -0.0235185 0.85239)
(0.0643334 -0.0779547 2.19416)
(0.162505 -0.0452943 2.68133)
(0.110135 0.0561566 2.7831)
(-0.0216437 0.0813508 0.950569)
(-0.00427581 -0.0864777 1.41151)
(0.0381302 -0.0517851 2.29501)
(0.13434 0.110578 3.45096)
(0.0417393 0.13692 3.51114)
(0.0242737 0.0402628 0.114467)
(0.144779 0.229865 0.250319)
(0.127329 0.204781 1.10545)
(-0.0787407 0.0626916 2.182)
(-0.0708386 0.101709 3.24865)
(-0.0806583 0.00148241 2.82603)
(-0.0905755 -0.0940599 0.300834)
(0.0974331 0.189826 0.820696)
(-0.0365792 0.146514 1.87972)
(0.0369245 0.162192 3.13682)
(0.0997485 -0.167075 3.6992)
(-0.244238 -0.0223107 1.15632)
(-0.120352 0.124603 2.32747)
(-0.122017 0.19055 3.2205)
(0.207579 -0.000536159 1.61324)
(-0.0221958 -0.0540402 0.909435)
(0.0525252 -0.0827124 2.03588)
(0.188329 -0.0355058 2.64187)
(0.109462 0.0609097 2.83582)
(0.0294996 0.0624574 0.86663)
(-0.0735092 -0.0521758 1.26009)
(0.0518745 -0.0193701 2.24523)
(0.121655 0.108835 3.44371)
(0.0455807 0.146865 3.5485)
(0.0209813 0.00936381 0.0927915)
(0.127213 0.266555 0.320877)
(0.0840091 0.311273 1.04028)
(-0.083979 0.0825874 2.18104)
(-0.0711592 0.11479 3.24699)
(-0.0861393 0.00516743 2.80031)
(-0.103312 -0.114758 0.419349)
(0.0741473 0.230904 0.902334)
(-0.0668956 0.131587 1.90697)
(-0.00333372 0.18449 3.13203)
(0.0739312 -0.133813 3.66263)
(-0.227139 -0.020796 1.23789)
(-0.110938 0.0959077 2.36099)
(-0.121474 0.172062 3.22777)
(0.213604 -0.000396005 1.72837)
(-0.076241 -0.0997015 1.09038)
(0.0409044 -0.110665 1.86427)
(0.230182 -0.0388722 2.5831)
(0.104942 0.052635 2.88738)
(0.0984145 0.116435 0.593206)
(-0.0811614 0.00489289 1.13427)
(0.0771301 -0.0337301 2.17081)
(0.112436 0.105157 3.42944)
(0.0505932 0.152614 3.58367)
(0.00344715 -0.0525468 0.10422)
(0.0760726 0.157907 0.372759)
(0.0655429 0.354411 1.02083)
(-0.0827296 0.128087 2.1682)
(-0.0773643 0.128476 3.23187)
(-0.0814012 0.0138426 2.77795)
(-0.10725 -0.141724 0.518778)
(0.0276297 0.259623 1.00602)
(-0.0994618 0.140212 1.95271)
(-0.0439744 0.211066 3.13077)
(0.0483671 -0.0959328 3.61525)
(-0.206453 0.00127339 1.31672)
(-0.107205 0.0707856 2.39859)
(-0.129909 0.159097 3.22889)
(0.200864 0.00239309 1.83985)
(-0.0384854 -0.0444568 1.19493)
(0.0237515 -0.157365 1.72193)
(0.249578 -0.0356323 2.52981)
(0.101219 0.0454596 2.93314)
(0.12989 0.171215 0.429831)
(-0.0476165 0.0610902 1.01983)
(0.105224 -0.0626514 2.10418)
(0.111168 0.102927 3.41271)
(0.0561631 0.152843 3.61584)
(-0.0103767 -0.102734 0.129969)
(0.00854328 -0.0259144 0.391019)
(0.0558033 0.352154 1.00978)
(-0.0741776 0.203359 2.14507)
(-0.0761519 0.147426 3.21663)
(-0.0733352 0.0305783 2.75026)
(-0.109691 -0.180075 0.590292)
(-0.0219734 0.274467 1.10746)
(-0.131683 0.160467 2.03337)
(-0.0879815 0.233983 3.13517)
(0.0172051 -0.0554985 3.56045)
(-0.198278 0.0310123 1.41093)
(-0.114074 0.0590909 2.44499)
(-0.145605 0.154867 3.22545)
(0.17839 0.00457034 1.94002)
(0.156906 0.160825 0.707667)
(0.106483 -0.154162 1.56764)
(0.245723 -0.0240927 2.48232)
(0.0998999 0.0423439 2.97512)
(0.105147 0.0815652 0.419805)
(0.00399862 0.118292 0.906642)
(0.118889 -0.0677295 2.02113)
(0.112708 0.102805 3.40162)
(0.0647377 0.152554 3.64649)
(-0.0175294 -0.14045 0.15894)
(-0.03097 -0.131843 0.397787)
(0.0614696 0.327664 0.979729)
(-0.0698411 0.254745 2.10515)
(-0.0536766 0.172707 3.20089)
(-0.0637288 0.0526312 2.7228)
(-0.116598 -0.224424 0.621458)
(-0.0795548 0.265503 1.21801)
(-0.185202 0.164908 2.14588)
(-0.134425 0.253413 3.14534)
(-0.0270095 -0.0179501 3.47934)
(-0.193771 0.0452381 1.53034)
(-0.133769 0.059147 2.50499)
(-0.168434 0.155586 3.22384)
(0.148513 0.0069505 2.00708)
(-0.0475305 0.0600158 0.295393)
(0.0874795 -0.1089 1.48025)
(0.228948 -0.00370228 2.41375)
(0.103463 0.0487499 3.01081)
(0.0304281 -0.0615797 0.4722)
(0.0628348 0.157354 0.829072)
(0.112314 -0.0603129 1.92393)
(0.106623 0.0988425 3.38957)
(0.0731902 0.15532 3.67141)
(-0.0239954 -0.169292 0.194726)
(-0.0640344 -0.200764 0.407705)
(0.0893748 0.255036 0.954819)
(-0.0872562 0.277021 2.05951)
(-0.0406751 0.190263 3.18239)
(-0.0634478 0.0718575 2.69447)
(-0.137789 -0.279929 0.614809)
(-0.162268 0.223378 1.35221)
(-0.268681 0.1622 2.26033)
(-0.189607 0.268451 3.15598)
(-0.0704677 0.030072 3.36225)
(-0.19524 0.0429219 1.65988)
(-0.18187 0.063614 2.56257)
(-0.194987 0.158453 3.21543)
(0.135743 0.0101831 2.04313)
(-0.0442965 -0.013196 0.272524)
(0.185003 -0.0724334 1.40568)
(0.192675 0.0257857 2.33176)
(0.104634 0.0622659 3.0311)
(0.00846618 -0.143482 0.504049)
(0.09741 0.16201 0.821109)
(0.0986331 -0.0397354 1.85001)
(0.0920367 0.0934784 3.37137)
(0.0791557 0.160593 3.68702)
(-0.030296 -0.190529 0.243484)
(-0.0765722 -0.250994 0.436248)
(0.0942923 0.133775 0.969946)
(-0.125818 0.272762 2.02679)
(-0.0539207 0.196828 3.15275)
(-0.0707619 0.0905139 2.65826)
(-0.171527 -0.337644 0.589065)
(-0.263443 0.149147 1.48901)
(-0.351389 0.179706 2.34225)
(-0.234602 0.266022 3.1389)
(-0.110015 0.0839224 3.2155)
(-0.22668 0.0233467 1.79136)
(-0.244956 0.0749398 2.60782)
(-0.224682 0.164632 3.18912)
(0.151781 0.0142687 2.07114)
(0.156771 -0.132494 0.329354)
(0.384655 0.0857458 1.17281)
(0.19227 0.0363053 2.16079)
(0.101352 0.0723799 3.03638)
(0.0412821 -0.213441 0.525439)
(0.115928 0.126527 0.862989)
(0.0703855 0.00355798 1.82492)
(0.0790296 0.093825 3.35629)
(0.0746754 0.157436 3.69447)
(-0.0348169 -0.204659 0.303292)
(-0.0676476 -0.28249 0.482296)
(0.0561852 -0.0356191 1.01635)
(-0.163972 0.257363 2.00246)
(-0.0653503 0.196729 3.10137)
(-0.0845193 0.100199 2.60102)
(-0.209018 -0.373306 0.575235)
(-0.338891 0.0401458 1.60207)
(-0.402257 0.213324 2.38316)
(-0.257449 0.261419 3.09524)
(-0.127357 0.128508 3.04151)
(-0.281163 -0.0323777 1.9153)
(-0.312083 0.0991712 2.63207)
(-0.26285 0.177318 3.15321)
(0.170147 0.0194229 2.1071)
(0.172659 -0.169641 0.356349)
(0.390696 0.273217 0.983605)
(0.195408 0.0215965 1.9881)
(0.0985496 0.073271 3.04486)
(0.0441044 -0.232838 0.564062)
(0.114591 -0.0100855 0.955149)
(0.0547851 0.0466841 1.83349)
(0.0570628 0.100065 3.33836)
(0.0671027 0.149492 3.69705)
(-0.0361878 -0.203665 0.372792)
(-0.052478 -0.29502 0.528262)
(-0.005913 -0.217054 1.0833)
(-0.187341 0.230715 1.97208)
(-0.0743804 0.194316 3.03973)
(-0.0943075 0.117156 2.51752)
(-0.231026 -0.368961 0.596239)
(-0.364528 -0.120353 1.67061)
(-0.419936 0.230121 2.40055)
(-0.264123 0.259299 3.02782)
(-0.141526 0.181148 2.87279)
(-0.341788 -0.108329 1.97819)
(-0.363458 0.117468 2.64881)
(-0.298038 0.190108 3.09891)
(0.200687 0.0161422 2.15378)
(0.188645 -0.188868 0.402823)
(0.384641 0.198392 0.86119)
(0.209897 0.0485134 1.87522)
(0.0978899 0.0685945 3.06114)
(0.0360072 -0.229876 0.609395)
(0.0843506 -0.185174 1.08778)
(0.0678446 0.0819859 1.85963)
(0.0173408 0.0963332 3.3176)
(0.0554057 0.137647 3.69519)
(-0.0339419 -0.182147 0.451234)
(-0.0426535 -0.297314 0.561959)
(-0.0649459 -0.37089 1.15322)
(-0.197897 0.167621 1.93381)
(-0.0912567 0.197565 2.98109)
(-0.144842 0.130732 2.38924)
(-0.221984 -0.320026 0.645753)
(-0.351936 -0.311323 1.67862)
(-0.423643 0.223116 2.41008)
(-0.263053 0.256054 2.9535)
(-0.155244 0.209499 2.7308)
(-0.340534 -0.169672 1.95911)
(-0.387851 0.0994297 2.64821)
(-0.317713 0.197465 3.03182)
(0.215361 0.00959602 2.20626)
(0.178047 -0.185269 0.4305)
(0.27001 0.0676868 0.878016)
(0.212981 0.108107 1.82613)
(0.0975156 0.0601855 3.08342)
(0.0191249 -0.210666 0.646274)
(0.0605357 -0.285714 1.22604)
(0.0713467 0.119782 1.91479)
(-0.0150577 0.0779679 3.3124)
(0.0378966 0.117874 3.68741)
(-0.0295636 -0.141915 0.530232)
(-0.0348951 -0.283902 0.587425)
(-0.109004 -0.468052 1.23098)
(-0.198437 0.0565209 1.90269)
(-0.105978 0.185491 2.92832)
(-0.164638 0.172473 2.24472)
(-0.198324 -0.258959 0.68413)
(-0.319172 -0.45344 1.64655)
(-0.43152 0.18827 2.42614)
(-0.265003 0.244012 2.87701)
(-0.150652 0.216529 2.58499)
(-0.296703 -0.282901 1.79082)
(-0.38697 0.0450272 2.6169)
(-0.309232 0.192362 2.94812)
(0.212128 0.00353238 2.24982)
(0.142648 -0.159677 0.482564)
(0.101097 -0.157288 1.04396)
(0.202664 0.14595 1.82019)
(0.0901946 0.0487327 3.10827)
(-0.000591907 -0.180945 0.676506)
(0.0401123 -0.292105 1.33199)
(0.0374331 0.150153 2.00247)
(-0.0285034 0.0693802 3.33713)
(0.01529 0.0884617 3.68342)
(-0.0262165 -0.103952 0.596562)
(-0.0333121 -0.261785 0.6128)
(-0.142812 -0.480912 1.31591)
(-0.195364 -0.0761473 1.89765)
(-0.117071 0.138977 2.86963)
(-0.144824 0.149785 2.13428)
(-0.183495 -0.207729 0.690649)
(-0.289596 -0.498389 1.61862)
(-0.427001 0.0848921 2.443)
(-0.264548 0.216633 2.78328)
(-0.141724 0.200003 2.46113)
(-0.29583 -0.274308 1.36842)
(-0.348082 -0.0416113 2.54653)
(-0.311507 0.172153 2.84881)
(0.200847 -0.00192691 2.29057)
(0.0955738 -0.125336 0.571506)
(0.0226779 -0.247359 1.13407)
(0.196014 0.137511 1.84435)
(0.0767286 0.0385059 3.1284)
(-0.0234529 -0.152817 0.707519)
(-0.00461244 -0.25454 1.41101)
(-0.0261212 0.15219 2.11002)
(-0.0397077 0.0760951 3.35438)
(0.0176353 0.0961507 3.67629)
(-0.0261506 -0.0758211 0.653174)
(-0.0366177 -0.240549 0.645657)
(-0.166313 -0.407193 1.38789)
(-0.204357 -0.179687 1.93967)
(-0.108838 0.105761 2.81698)
(-0.091009 0.0515495 2.02596)
(-0.176077 -0.176677 0.682819)
(-0.284966 -0.475913 1.62353)
(-0.383089 -0.075674 2.41923)
(-0.269025 0.168332 2.65324)
(-0.114805 0.144813 2.27815)
(-0.24451 -0.141271 1.03383)
(-0.297569 -0.0948355 2.53302)
(-0.313126 0.157265 2.72665)
(0.174945 -0.00323983 2.33071)
(0.0493385 -0.091637 0.695071)
(-0.0106167 -0.202237 1.15336)
(0.158969 0.113921 1.88609)
(0.0587557 0.0291481 3.1415)
(-0.0455763 -0.13121 0.750305)
(-0.0790554 -0.227015 1.48577)
(-0.102123 0.110849 2.21731)
(-0.0514662 0.0819614 3.34493)
(0.0260328 0.123221 3.64627)
(-0.0271958 -0.0530567 0.713305)
(-0.0422429 -0.218715 0.693827)
(-0.197276 -0.301195 1.44869)
(-0.23278 -0.220847 2.00244)
(-0.108937 0.11319 2.76254)
(-0.0643077 0.101302 1.96725)
(-0.174943 -0.165382 0.680633)
(-0.29998 -0.334835 1.6398)
(-0.345662 -0.14772 2.37594)
(-0.244489 0.130523 2.53218)
(-0.0971004 0.157523 2.09789)
(-0.152607 -0.0328836 0.89554)
(-0.145692 -0.280855 2.48181)
(-0.272793 0.127128 2.61771)
(0.148638 -0.0073902 2.35835)
(0.0147213 -0.0665907 0.83673)
(-0.0416259 -0.130177 1.14204)
(0.10773 0.0475926 1.87299)
(0.0433648 0.0207695 3.14414)
(-0.0651076 -0.116866 0.808194)
(-0.157698 -0.221888 1.57104)
(-0.167566 0.0415006 2.32132)
(-0.123236 0.0747716 3.30575)
(0.0166574 0.135477 3.57947)
(-0.0280059 -0.0315186 0.784825)
(-0.0511509 -0.200738 0.75927)
(-0.236511 -0.232278 1.47725)
(-0.250368 -0.212341 2.047)
(-0.165846 0.121951 2.69588)
(-0.041406 0.234962 1.90291)
(-0.177492 -0.168175 0.69969)
(-0.336198 -0.179294 1.62619)
(-0.339685 -0.135697 2.32718)
(-0.227781 0.124361 2.43366)
(-0.133805 0.145257 1.97478)
(-0.111618 0.0269627 0.855107)
(-0.105718 -0.280602 2.43567)
(-0.260563 0.121946 2.50875)
(0.142514 -0.00460186 2.3925)
(-0.0073208 -0.0492796 0.977987)
(-0.0553647 -0.108828 1.12577)
(0.138256 0.0131678 1.80769)
(0.0292286 0.0158299 3.14312)
(-0.0823227 -0.103531 0.882915)
(-0.220424 -0.225038 1.65237)
(-0.187123 -0.00632802 2.41752)
(-0.239095 0.0417146 3.27186)
(-0.0100704 -0.0103079 3.53362)
(-0.0286091 -0.00938731 0.871281)
(-0.0639708 -0.189074 0.842101)
(-0.265631 -0.202366 1.47961)
(-0.239855 -0.198127 2.05865)
(-0.203612 0.0809786 2.63404)
(-0.0278643 0.20442 1.8801)
(-0.177157 -0.179628 0.743706)
(-0.365999 -0.106653 1.58387)
(-0.341292 -0.10435 2.2236)
(-0.22165 0.122139 2.35948)
(-0.0547706 0.0722596 1.65065)
(-0.138477 0.0532002 0.895526)
(-0.241315 -0.0898659 2.31747)
(-0.288986 0.151669 2.39189)
(0.159791 0.00995985 2.43094)
(-0.0232139 -0.0336941 1.10566)
(-0.0476861 -0.117238 1.11725)
(0.0831632 0.056366 1.78022)
(0.0258042 0.00876494 3.15099)
(-0.0957507 -0.0879437 0.970674)
(-0.262403 -0.228213 1.70336)
(-0.163361 -0.0148499 2.50858)
(-0.252837 0.0343286 3.27154)
(-0.0730796 -0.138862 3.47056)
(-0.028645 0.0152283 0.973703)
(-0.079405 -0.175965 0.944868)
(-0.277485 -0.195637 1.4682)
(-0.213061 -0.186382 2.04647)
(-0.151032 0.0119529 2.57696)
(0.0231883 -0.0333777 1.88705)
(-0.165842 -0.188463 0.806247)
(-0.366524 -0.0791289 1.5392)
(-0.316369 -0.0787812 2.08324)
(-0.210896 0.0762181 2.26517)
(0.0671918 -0.111836 1.38552)
(-0.181324 0.0588042 1.01654)
(-0.327298 0.0074499 2.19188)
(-0.27654 0.15607 2.30107)
(0.181186 0.0269623 2.43418)
(-0.0416636 -0.0177938 1.2245)
(-0.0584152 -0.13773 1.15683)
(-0.0615333 0.151608 1.72527)
(0.035362 0.00938312 3.14163)
(-0.103763 -0.0660842 1.06508)
(-0.287866 -0.234069 1.71408)
(-0.128618 -0.0277207 2.59974)
(-0.231823 0.0412553 3.27067)
(-0.07253 -0.127428 3.44779)
(-0.027736 0.0401911 1.085)
(-0.0931371 -0.149879 1.06422)
(-0.273144 -0.199412 1.44553)
(-0.180036 -0.154872 1.99233)
(-0.0227552 -0.0700167 2.48901)
(0.0929922 -0.149539 1.87153)
(-0.141048 -0.186529 0.877805)
(-0.318884 -0.0725088 1.48468)
(-0.252226 -0.0409749 1.93575)
(-0.152565 -0.0132228 2.08917)
(0.0818183 -0.148987 1.24851)
(-0.189201 0.0665868 1.15765)
(-0.33415 0.0466729 2.05341)
(-0.213224 0.119346 2.22139)
(0.183984 0.0295279 2.44788)
(-0.0649302 0.00232508 1.34814)
(-0.0735987 -0.15399 1.23027)
(-0.0593325 0.192889 1.60029)
(0.0697072 -0.00795353 3.1125)
(-0.0964243 -0.0396659 1.16281)
(-0.296875 -0.236329 1.70128)
(-0.0992621 -0.0502964 2.64904)
(-0.155896 0.0221844 3.26733)
(-0.044749 -0.0922234 3.49847)
(-0.0266402 0.0593081 1.19567)
(-0.104647 -0.103484 1.19006)
(-0.24219 -0.189047 1.41741)
(-0.156129 -0.113061 1.88095)
(0.0819445 -0.108024 2.39601)
(0.144284 -0.221076 1.83318)
(-0.106732 -0.171773 0.948315)
(-0.221799 -0.0859435 1.39595)
(-0.177491 0.00786363 1.8014)
(-0.0377662 -0.0710761 1.89952)
(0.0549378 -0.0685974 1.21034)
(-0.178506 0.0755432 1.28702)
(-0.263907 0.0604377 1.92625)
(-0.123481 0.0601916 2.11973)
(0.16856 0.0162028 2.46504)
(-0.0934898 0.0231491 1.47771)
(-0.0889303 -0.160782 1.30395)
(-0.0214196 0.119765 1.46659)
(0.0909947 0.0335955 3.04154)
(-0.0704628 -0.0155918 1.25984)
(-0.308112 -0.225306 1.66272)
(-0.0857861 -0.0563769 2.63766)
(-0.0635602 -0.0177014 3.25703)
(0.0353243 0.0762565 3.61407)
(-0.0234293 0.069842 1.29776)
(-0.109938 -0.0480349 1.30873)
(-0.186384 -0.156673 1.40109)
(-0.14864 -0.0776038 1.74797)
(0.122637 -0.0696911 2.29284)
(0.153883 -0.222215 1.82902)
(-0.0659633 -0.147332 1.01038)
(-0.124397 -0.100597 1.30628)
(-0.122032 0.0380407 1.67943)
(0.0699646 -0.04056 1.76668)
(0.0356746 0.000465788 1.24208)
(-0.166464 0.0740582 1.38913)
(-0.194847 0.0665591 1.83612)
(-0.0666705 0.0239714 1.97694)
(0.100042 -0.0238301 2.48007)
(-0.126254 0.0460371 1.6162)
(-0.115742 -0.16475 1.37969)
(-0.0385505 -0.0462911 1.45188)
(0.0811791 0.0694091 2.95743)
(-0.0382052 0.00292087 1.35035)
(-0.31794 -0.195999 1.61431)
(-0.0885797 -0.0673437 2.52885)
(-0.0148376 -0.00133324 3.23205)
(0.0941075 0.223476 3.67327)
(-0.0168335 0.0718702 1.38205)
(-0.106507 -0.00823915 1.41041)
(-0.140411 -0.112331 1.40354)
(-0.146954 -0.0487136 1.62455)
(0.106989 0.0246995 2.17937)
(0.163761 -0.105055 1.92771)
(-0.027579 -0.124324 1.05957)
(-0.0415285 -0.0991897 1.2358)
(-0.0898518 0.0419485 1.56602)
(0.10722 0.0278944 1.69863)
(0.0231056 0.0510803 1.32345)
(-0.16403 0.0609995 1.47411)
(-0.159738 0.0885989 1.77944)
(-0.0490537 0.0283354 1.86827)
(0.00828802 -0.0387243 2.51443)
(-0.158069 0.0725713 1.76456)
(-0.143018 -0.16416 1.46491)
(-0.0804259 -0.168869 1.53715)
(0.0790953 0.080236 2.86892)
(-0.0130554 0.0175546 1.43262)
(-0.294034 -0.158884 1.5818)
(-0.160188 -0.121658 2.27062)
(0.0296369 0.0855175 3.15272)
(0.127428 0.316332 3.65206)
(-0.0079513 0.0739253 1.43473)
(-0.0981061 0.015757 1.49138)
(-0.106608 -0.0626441 1.41271)
(-0.136112 -0.0391892 1.52193)
(0.056891 0.0975501 2.06489)
(0.170267 0.072808 2.13013)
(0.00173899 -0.112352 1.09206)
(0.0244845 -0.0835628 1.19208)
(-0.065356 0.03306 1.47155)
(0.0879048 0.0901106 1.68098)
(0.00403595 0.101569 1.44047)
(-0.158638 0.0417628 1.53661)
(-0.138817 0.107228 1.75285)
(-0.0615414 0.0552513 1.83032)
(-0.0934481 -0.0495799 2.56705)
(-0.183798 0.103236 1.91407)
(-0.151034 -0.155213 1.55012)
(-0.101131 -0.209 1.63879)
(0.0757718 0.0526759 2.8207)
(0.00793731 0.0239715 1.50789)
(-0.239339 -0.129235 1.56876)
(-0.207329 -0.165055 2.06078)
(0.0815218 0.161609 2.99056)
(0.143851 0.346095 3.58031)
(-0.00247763 0.0780496 1.44918)
(-0.0922411 0.0367774 1.5495)
(-0.0832222 -0.0184015 1.42164)
(-0.108748 -0.0450707 1.44377)
(-0.0139425 0.0959248 1.96087)
(0.145799 0.243929 2.40825)
(0.0229836 -0.105401 1.1106)
(0.0757123 -0.0651047 1.16948)
(-0.038604 0.0209899 1.40099)
(0.0523824 0.122472 1.69344)
(-0.0255124 0.150612 1.57858)
(-0.143137 0.0261 1.57444)
(-0.113853 0.113898 1.74546)
(-0.0835122 0.0872368 1.86939)
(-0.124304 -0.0503694 2.5908)
(-0.201548 0.128983 2.05072)
(-0.13091 -0.151896 1.61681)
(-0.081071 -0.212553 1.72302)
(0.0650607 0.0435506 2.82686)
(0.0252231 0.0130992 1.58084)
(-0.18286 -0.11238 1.56093)
(-0.193921 -0.183458 1.88989)
(0.0899471 0.0937406 2.8274)
(0.161552 0.332085 3.5158)
(-0.00444733 0.080915 1.44556)
(-0.0802655 0.0430966 1.58677)
(-0.0686635 0.0137126 1.42963)
(-0.0781664 -0.049815 1.39356)
(-0.0950188 0.0407289 1.87302)
(0.105041 0.344772 2.69012)
(0.0391365 -0.0947735 1.12719)
(0.112738 -0.0511168 1.15924)
(-0.019915 0.00161239 1.35096)
(0.0325906 0.110598 1.70904)
(-0.0601428 0.19566 1.718)
(-0.120883 0.0144048 1.58725)
(-0.0838742 0.109399 1.75746)
(-0.0966936 0.10208 1.96558)
(-0.114833 -0.0391488 2.57697)
(-0.209427 0.145845 2.17048)
(-0.0937679 -0.155435 1.66127)
(-0.0366077 -0.203125 1.78604)