/*--------------------------------*- C++ -*----------------------------------*\
| =========                 |                                                 |
| \\      /  F ield         | OpenFOAM: The Open Source CFD Toolbox           |
|  \\    /   O peration     | Version:  5.x                                   |
|   \\  /    A nd           | Web:      www.OpenFOAM.org                      |
|    \\/     M anipulation  |                                                 |
\*---------------------------------------------------------------------------*/
FoamFile
{
    version     2.0;
    format      ascii;
    class       volScalarField;
    location    "5";
    object      p;
}
// * * * * * * * * * * * * * * * * * * * * * * * * * * * * * * * * * * * * * //

dimensions      [0 2 -2 0 0 0 0];

internalField   nonuniform List<scalar> 
10571
(
143.656
132.015
130.062
127.321
133.635
125.174
125.272
121.166
120.561
118.955
129.689
123.371
114.503
120.292
122.619
120.673
127.64
114.989
118.358
123.763
123.601
108.821
112.312
127.631
118.804
120.243
118.632
116.171
113.141
117.69
110.181
115.721
115.874
114.82
114.265
111.635
108.872
116.165
101.179
109.162
103.116
105.08
106.153
113.633
98.0001
102.548
101.004
98.5989
111.665
110.102
111.884
111.841
108.743
106.062
106.345
109.46
102.472
104.511
103.794
98.5164
100.648
95.9522
83.4163
92.277
96.8158
96.2136
89.9326
84.2225
86.0541
97.0905
94.493
87.9074
108.132
103.532
106.646
110.352
107.791
99.9464
99.7888
100.634
84.0127
100.994
96.0846
92.7411
90.5871
82.488
76.1751
83.943
91.0733
87.9005
80.6376
82.0784
82.98
91.1312
89.0984
84.9572
97.051
91.744
104.042
105.266
103.767
90.6774
89.7114
78.3407
64.3939
65.6848
85.3465
89.2203
81.3482
72.9029
70.9792
70.5769
83.3695
82.1287
76.0159
76.6814
73.0552
84.1115
82.4404
76.7202
64.6679
65.8317
64.8193
65.0263
63.6158
76.489
68.1675
62.2753
63.9678
64.7396
64.4149
68.5156
87.9352
76.1241
67.4895
67.6747
64.3324
64.2342
75.5828
76.3764
70.5788
71.1935
66.9814
72.9448
71.305
69.4656
63.6583
63.5835
63.605
63.6626
63.591
63.4088
62.1739
63.4665
63.9377
64.8386
64.4767
63.9744
63.6392
67.9704
64.3289
65.2856
64.1986
63.8939
64.1087
65.4938
64.247
64.6951
64.9473
63.7061
65.411
63.9412
65.3054
63.5073
63.3928
63.4406
63.4922
63.5225
63.3317
63.5983
63.6177
63.5786
64.1068
63.6707
63.4577
63.1875
61.4265
62.9582
64.1152
64.2546
63.3306
63.0166
61.105
62.9728
63.674
66.3123
63.9331
63.1813
64.0029
64.5041
63.4256
63.3124
63.355
63.3961
63.4818
63.1921
63.2525
63.1941
63.3209
63.3223
63.4219
63.0797
62.8183
62.4618
63.4011
63.9819
63.8219
63.741
62.853
62.9185
63.6857
64.0607
65.3654
63.2661
63.7136
64.1047
63.3706
63.2333
63.2724
63.3275
63.4064
63.0965
63.0694
63.0195
63.208
62.6114
62.9786
62.6979
63.0784
63.5475
63.9693
63.7626
62.6877
63.3342
63.703
63.8462
63.6033
63.3705
63.6117
63.6564
63.3252
63.1569
63.218
63.2784
63.3385
63.0324
63.0814
63.0144
63.0285
62.9852
62.9233
62.7141
63.0264
63.2945
63.8013
63.146
62.6726
63.1429
63.3849
63.629
63.7999
63.3792
63.4852
63.5403
63.2936
63.1321
63.191
63.2536
63.2757
63.0176
63.093
63.0588
62.8813
63.1781
62.8112
62.8328
63.0332
63.1173
63.6434
63.5299
62.8285
63.151
63.2405
63.5668
63.7303
63.3354
63.3904
63.5365
63.2857
63.1721
63.1977
63.2374
63.2173
63.054
63.0987
63.1027
62.8028
63.313
62.9235
62.949
63.173
63.1844
63.5675
63.6499
63.0189
63.2284
63.3508
63.5987
63.6664
63.349
63.442
63.5707
63.3119
63.275
63.2503
63.2538
63.2071
63.1602
63.158
63.1595
62.8183
63.4389
63.1735
63.1412
63.3428
63.3128
63.5658
63.6194
63.1797
63.28
63.5713
63.6551
63.6779
63.4081
63.585
63.6442
63.3719
63.4138
63.3451
63.3065
63.2536
63.3278
63.2974
63.2477
62.8941
63.5794
63.4134
63.3702
63.4691
63.3742
63.6078
63.6344
63.4396
63.3367
63.7718
63.6979
63.7373
63.5692
63.6976
63.7045
63.4511
63.5467
63.4562
63.3925
63.3433
63.4944
63.4604
63.3521
63.0017
63.7249
63.7823
63.6324
63.5608
63.4402
63.6448
63.678
63.7104
63.4921
63.7566
63.6693
63.7581
63.9327
63.8908
63.7455
63.5471
63.6452
63.5671
63.4906
63.46
63.5879
63.5926
63.4352
63.1067
63.8159
64.1254
63.8308
63.6121
63.5046
63.6498
63.7017
63.8998
63.6355
63.6885
63.6569
63.7485
64.0499
63.878
63.7737
63.6412
63.7038
63.6618
63.5779
63.5762
63.658
63.6812
63.4619
63.1879
63.8603
64.0035
63.7483
63.6705
63.5117
63.5982
63.7037
63.5249
63.5784
63.6542
63.6513
63.7339
63.8441
63.6405
63.7368
63.7164
63.7336
63.7308
63.6445
63.6864
63.6824
63.7095
63.4369
63.2518
63.8746
63.6923
63.5194
63.6714
63.5112
63.5199
63.6794
63.645
63.6369
63.7164
63.6475
63.7144
63.7006
63.6778
63.7249
63.7761
63.7564
63.7712
63.6999
63.7853
63.7038
63.7419
63.398
63.3175
63.8918
63.6164
63.5197
63.6522
63.553
63.4963
63.6774
63.658
63.6774
63.7812
63.6439
63.7185
63.6953
63.6858
63.7207
63.827
63.7817
63.8005
63.7452
63.8786
63.7356
63.7826
63.3814
63.3854
63.9376
63.6498
63.6209
63.6767
63.6169
63.5204
63.7111
63.6021
63.6995
63.7809
63.6387
63.7207
63.7308
63.7212
63.7324
63.8706
63.8091
63.8319
63.7807
63.951
63.7768
63.8019
63.4643
63.5115
64.0249
63.7075
63.7127
63.7323
63.6114
63.5152
63.7399
63.6511
63.7211
63.7912
63.6479
63.7243
63.7704
63.804
63.7536
63.909
63.8286
63.8629
63.8199
64.0093
63.7951
63.8361
63.6444
63.7459
64.197
63.7131
63.7368
63.7546
63.5625
63.5135
63.7907
63.7059
63.7457
63.7944
63.655
63.7379
63.7909
63.8325
63.7632
63.9669
63.8341
63.886
63.8808
64.0642
63.7898
63.8847
63.8755
63.9858
64.4337
63.6942
63.7071
63.7411
63.5294
63.5467
63.8633
63.7051
63.7424
63.7681
63.6586
63.7578
63.7832
63.8148
63.7523
63.9989
63.8273
63.8902
63.9428
64.0995
63.7746
63.8948
64.0263
64.1429
64.4776
63.6889
63.6632
63.7217
63.5384
63.5995
63.9041
63.6505
63.7364
63.7181
63.6612
63.7739
63.7837
63.8033
63.7333
63.9781
63.8087
63.8737
63.9622
64.0916
63.7707
63.8661
64.0197
64.2169
64.333
63.7048
63.6411
63.7426
63.5831
63.6398
63.9041
63.5946
63.7429
63.629
63.6475
63.7664
63.8085
63.7812
63.7149
63.8983
63.7822
63.8336
63.9109
63.9884
63.7604
63.8244
63.9506
64.1153
64.0874
63.7398
63.6863
63.7478
63.6513
63.6389
63.8176
63.7208
63.7654
63.5395
63.6278
63.7192
63.828
63.74
63.6868
63.7857
63.7398
63.766
63.7994
63.8094
63.734
63.7477
63.835
63.8121
63.761
63.756
63.7487
63.7226
63.706
63.5819
63.6688
64.0198
63.7468
63.5242
63.6134
63.6587
63.8064
63.698
63.6647
63.6682
63.6827
63.6771
63.6628
63.5862
63.6846
63.6628
63.6975
63.4625
63.4411
63.7132
63.7055
63.6744
63.7134
63.5602
63.5429
63.8699
63.6877
63.5571
63.6055
63.6097
63.7581
63.6708
63.6463
63.5586
63.6191
63.5839
63.5298
63.3521
63.6303
63.591
63.5522
63.2098
63.2098
63.6611
63.6569
63.6396
63.6527
63.5361
63.4508
63.7156
63.6587
63.6092
63.584
63.5589
63.7378
63.6798
63.6398
63.4581
63.556
63.4998
63.4175
63.1903
63.5806
63.5175
63.3948
63.0218
63.0905
63.5966
63.6124
63.5881
63.5347
63.4336
63.3534
63.6231
63.6469
63.6144
63.5377
63.493
63.73
63.6759
63.6135
63.3765
63.4888
63.4233
63.3258
63.107
63.5142
63.4312
63.2371
62.8831
63.0665
63.514
63.525
63.4909
63.3654
63.2811
63.2541
63.5127
63.5873
63.5279
63.41
63.4024
63.6792
63.6444
63.5603
63.3066
63.4201
63.3522
63.2464
63.0638
63.4273
63.3221
63.1052
62.8535
63.0919
63.4023
63.3986
63.3473
63.2209
63.3693
63.2618
63.3239
63.4036
63.3814
63.2501
63.3297
63.5524
63.56
63.4593
63.2568
63.3625
63.2984
63.1864
63.041
63.3389
63.1929
62.9983
62.8565
63.1307
63.2624
63.2403
63.1228
63.1407
63.6801
63.3854
62.9796
63.0405
63.2025
63.1881
63.3282
63.3142
63.3644
63.3446
63.2449
63.3379
63.2743
63.1631
63.0542
63.2738
63.0631
62.9036
62.7935
63.1909
63.1222
63.0617
62.83
63.014
63.7046
63.4179
62.5247
62.5576
62.9816
63.1995
63.3073
62.9426
63.0768
63.2177
63.2955
63.377
63.3078
63.1986
63.1024
63.261
62.9962
62.8563
62.751
63.1819
63.0372
62.927
62.6135
62.8394
63.3829
63.2767
62.1745
62.184
62.7006
63.0631
63.2062
62.5892
62.7806
63.0184
63.4232
63.5034
63.4249
63.3162
63.1893
63.3529
63.1078
62.9405
62.8606
63.1959
63.0777
62.9392
62.615
62.7333
63.0492
63.0954
62.1393
62.1605
62.4383
62.821
63.0622
62.5432
62.6358
62.84
63.6497
63.7211
63.6358
63.5274
63.3436
63.574
63.3851
63.2119
63.1496
63.346
63.3291
63.1707
62.9014
62.7923
62.887
63.0417
62.5238
62.5768
62.6032
62.6522
62.9572
62.7791
62.7919
62.8522
63.9521
64.0114
63.9234
63.8244
63.6349
63.8884
63.7637
63.5687
63.4119
63.5693
63.7512
63.6101
63.3995
63.2006
62.8411
63.1789
63.2768
63.2321
63.1569
62.6343
63.0556
63.4417
63.4018
63.3451
64.2922
64.3257
64.2437
64.1692
64.0213
64.2375
64.1637
63.9323
63.8115
63.8911
64.193
64.0908
63.942
63.676
63.1145
63.4802
64.1093
63.9326
63.7855
63.0665
63.3677
64.2225
64.3436
64.6728
64.6167
64.6135
64.5494
64.5102
64.4782
64.5563
64.5104
64.2955
64.2488
64.3156
64.5678
64.4886
64.3923
64.112
63.8206
63.9464
64.65
64.3826
64.1311
63.8776
63.9599
64.65
64.694
64.9263
64.8765
64.841
64.8001
64.8019
64.9043
64.8049
64.7721
64.6297
64.6612
64.7765
64.8388
64.7732
64.7255
64.4392
64.5769
64.6181
64.8924
64.7481
64.4041
63.8421
64.5359
65.0989
64.4218
64.2032
65.0526
64.9998
64.978
65.0114
65.2286
64.9727
64.957
64.9037
65.0296
65.2942
65.0127
64.9575
64.913
64.7782
65.0516
65.218
65.0094
64.9744
64.8669
64.7373
65.3578
65.1376
64.8115
64.5506
65.1514
65.0986
65.093
65.1279
65.3685
65.0751
65.0683
65.0794
65.2734
65.5907
65.11
65.061
65.0248
64.9837
65.4118
66.008
65.0904
65.1141
65.1198
65.4908
66.733
65.1403
65.1197
65.1927
65.194
65.1554
65.1556
65.1737
65.3586
65.13
65.1235
65.1296
65.3667
65.5657
65.1536
65.1113
65.0847
65.0182
65.4592
65.9373
65.137
65.1543
65.0479
65.5701
66.2004
65.1607
65.1675
65.3148
65.2053
65.1861
65.184
65.1848
65.2929
65.1591
65.1486
65.1483
65.294
65.4355
65.1807
65.1414
65.1028
65.0405
65.3143
65.6266
65.16
65.1918
65.0899
65.3634
65.6522
65.1884
65.1753
65.2699
65.2008
65.201
65.1904
65.1793
65.2242
65.1764
65.1412
65.1423
65.1871
65.2988
65.2129
65.1719
65.0991
65.0958
65.1912
65.3351
65.1678
65.2231
65.1776
65.2711
65.368
65.1974
65.187
65.2362
65.1878
65.2064
65.1856
65.1611
65.1702
65.1874
65.1305
65.0976
65.09
65.1945
65.2471
65.2006
65.1372
65.134
65.1199
65.1532
65.1789
65.2093
65.2243
65.2264
65.2158
65.1962
65.1848
65.2239
65.1691
65.2024
65.1738
65.1369
65.1404
65.192
65.1289
65.0488
65.0656
65.1436
65.2675
65.2126
65.1675
65.1344
65.061
65.0611
65.1914
65.1836
65.2204
65.1665
65.1136
65.1937
65.1956
65.2115
65.1525
65.1932
65.1604
65.1157
65.1376
65.1872
65.1183
65.015
65.0891
65.1743
65.2657
65.2082
65.1528
65.0951
65.0313
65.0463
65.2025
65.1727
65.2018
65.148
65.0895
65.1966
65.1972
65.2049
65.1374
65.1806
65.1454
65.1006
65.134
65.1784
65.1126
64.9955
65.1293
65.229
65.2521
65.2001
65.1372
65.0514
65.0559
65.122
65.2106
65.1758
65.1885
65.1599
65.1422
65.1956
65.1964
65.2087
65.127
65.1694
65.1331
65.0871
65.1083
65.1714
65.1115
64.9623
65.0827
65.1901
65.2385
65.1955
65.1311
65.0189
65.0794
65.1605
65.2179
65.183
65.1774
65.1684
65.1797
65.2036
65.1999
65.2148
65.1282
65.163
65.1265
65.0852
65.0916
65.1694
65.0995
64.9633
65.0352
65.0723
65.2336
65.1997
65.1384
64.9964
65.0658
65.0982
65.2306
65.1976
65.1685
65.172
65.1515
65.2193
65.2121
65.2154
65.1502
65.163
65.1268
65.1316
65.1855
65.1798
65.1007
64.9826
65.0532
65.0431
65.245
65.2187
65.1544
64.998
65.0524
65.0492
65.2595
65.2391
65.1824
65.1512
65.1151
65.2601
65.239
65.2206
65.1815
65.1775
65.1336
65.1773
65.2311
65.2036
65.1091
65.0893
65.0412
65.0077
65.2854
65.2573
65.1721
65.0623
65.0013
64.9843
65.3127
65.2935
65.2228
65.1173
65.074
65.3256
65.2966
65.2394
65.1842
65.2071
65.1316
65.2038
65.1131
65.2526
65.1259
65.1288
64.9375
64.8985
65.3546
65.3219
65.2417
65.1418
64.9243
64.9151
65.3968
65.3857
65.2759
65.0891
65.033
65.4172
65.3722
65.2826
65.1219
65.2424
65.1277
65.1491
64.9715
65.3211
65.1678
65.0028
64.7559
64.75
65.4607
65.4263
65.3472
65.1581
64.8167
64.8239
65.5251
65.5173
65.3545
65.0581
64.9902
65.5429
65.4682
65.3333
64.9521
65.2839
65.1031
64.9191
64.7414
65.41
65.1732
64.7834
64.5092
64.541
65.6117
65.5778
65.4516
65.0941
64.6888
64.6963
65.7073
65.703
65.4824
65.0689
64.9441
65.7205
65.5879
65.4039
64.715
65.332
65.0477
64.6717
64.4736
65.5285
65.1837
64.587
64.2043
64.2482
65.8175
65.7775
65.5761
65.0805
64.5415
64.4048
65.9525
65.9472
65.6068
65.103
64.8661
65.9595
65.7846
65.5279
64.46
65.3867
64.9858
64.4418
64.1428
65.6702
65.2361
64.3743
63.7328
63.6559
66.0784
66.0376
65.7736
65.0904
64.2325
63.8044
66.2611
66.2547
65.7938
65.1152
64.6889
66.2973
66.0625
65.7214
64.2144
65.4485
64.9271
64.1942
63.7271
65.8415
65.3153
64.1341
62.7841
62.4255
66.3883
66.3459
65.973
65.0204
63.6512
62.1573
66.6114
66.6265
65.9768
65.1032
64.2583
66.7343
66.4537
65.993
64.0106
65.5051
64.8822
63.9561
63.2527
66.0015
65.3594
63.8483
61.3597
59.2284
66.6983
66.6607
66.1552
64.8087
62.6876
57.0701
66.9633
66.9901
66.0978
64.9015
63.1422
67.226
66.839
66.3296
63.85
65.498
64.8565
63.7557
62.8308
66.0821
65.2874
63.4641
59.4179
50.2978
66.9143
66.8845
66.3017
64.4957
61.3453
48.4689
-40.3194
67.2225
66.9871
65.9867
64.3573
59.8617
67.423
66.9821
66.4408
63.7402
65.3586
64.7473
63.6105
62.617
65.9203
64.9862
63.2005
57.9116
43.7143
2.64106
66.7799
66.7471
66.0826
64.3342
59.7343
44.8789
6.6399
67.1507
66.6724
65.6251
63.2482
53.4739
67.2206
66.7159
65.9047
63.6518
65.0017
64.4893
63.5007
62.758
65.269
64.4597
62.4631
57.522
48.0225
15.8219
65.9505
65.7776
65.303
63.5645
57.4162
43.235
9.88603
66.3146
65.842
64.4759
62.4376
48.4871
14.3122
66.3563
65.8022
64.8875
63.5167
64.3797
64.0022
63.3097
63.0564
64.0237
63.53
60.8797
57.0291
51.206
19.2487
64.0437
64.5642
63.951
61.56
54.4869
38.3967
2.22311
64.9911
64.4933
63.0043
60.4938
44.901
65.1199
64.4337
63.3081
63.2518
63.6483
63.3344
62.9233
62.9758
63.036
62.0432
59.518
57.2847
58.9123
63.3581
63.4771
62.4668
60.1756
53.0871
40.2146
-14.3603
63.9069
63.2205
62.0177
59.3555
50.4331
63.9155
63.1827
62.0252
62.8884
63.1925
62.6709
62.4242
62.6018
62.9745
60.1913
58.6614
58.5221
61.946
62.6568
63.088
61.3921
59.4778
53.7129
49.1352
63.1265
62.34
61.4711
59.386
55.9513
62.9131
62.3758
61.488
62.6193
63.0062
62.1007
61.9982
62.3695
63.1829
58.9021
58.4013
59.311
62.123
63.1971
62.7059
60.627
58.9586
55.4438
54.9766
62.573
61.7941
61.3077
60.1428
59.505
62.2957
61.9873
61.5958
62.69
62.4722
61.6451
61.9167
62.5579
61.5827
57.6986
57.9496
59.7407
62.4017
62.484
61.7385
59.8643
58.8668
57.5669
58.6516
62.1372
61.6596
61.5765
61.1788
61.6026
62.1105
61.9909
62.0943
63.2947
61.0097
61.3369
62.343
63.3804
59.7227
57.201
58.7647
61.0448
63.0388
61.6256
60.8645
59.7751
59.6948
60.2086
61.5402
62.0607
62.1367
62.3431
62.2586
63.0568
62.6095
62.5622
62.889
64.687
59.5117
61.8203
63.638
64.9407
58.0073
58.3764
60.8725
63.0763
64.5963
61.392
60.593
60.832
61.3158
62.2582
63.7176
62.6149
63.2706
63.5379
63.395
64.154
63.8192
63.8007
64.0339
66.895
59.5319
63.7768
65.7911
66.6318
58.1947
60.7182
63.1769
64.9047
66.3356
62.4179
61.4415
62.2425
62.8908
63.5827
65.0393
64.0894
64.5852
64.826
64.6771
65.6039
65.4144
65.4363
65.6105
69.3781
63.2973
66.666
68.2804
67.8025
61.0498
62.4905
64.7761
65.917
67.2568
64.5676
63.3255
62.834
63.3923
64.2045
66.1421
66.0659
65.2832
65.0002
65.835
67.6642
67.5524
67.6436
68.0171
70.7944
66.0374
68.6888
69.9936
68.6626
63.1198
64.6147
66.422
66.967
67.7361
66.2979
64.5247
63.8456
64.5612
65.5045
66.6487
67.2152
66.2514
65.9522
66.9819
68.5537
69.0954
69.1298
69.3221
188.098
157.266
159.582
154.869
165.043
166.671
183.616
209.191
138.684
173.802
197.922
144.076
148.796
160.08
145.736
145.876
138.502
146.016
153.326
136.692
138.91
200.692
188.092
138.042
145.527
136.143
144.946
138.858
142.82
142.761
140.411
142.417
138.831
140.617
137.902
139.794
129.392
131.098
128.365
124.042
124.233
126.969
126.228
124.12
124.595
125.745
124.259
123.775
134.269
136.714
139.532
136.467
130.138
139.813
123.978
131.027
123.138
122.508
120.457
122.305
122.565
121.056
122.299
124.141
126.474
125.137
128.654
124.957
124.032
126.026
157.462
168.004
126.777
186.972
159.774
119.35
119.401
122.13
122.014
120.165
121.981
121.842
123.736
125.865
131.93
134.626
144.203
132.441
174.147
145.833
131.17
134.354
137.633
135.187
141.437
135.268
143.64
128.238
143.045
140.382
141.174
131.718
131.157
131.642
139.233
138.853
129.786
127.723
124.706
147.704
124.014
126.753
124.961
138.147
126.925
132.199
122.941
122.657
125.502
121.154
134.789
117.629
123.409
116.658
119.43
117.976
119.837
121.779
119.738
123.964
123.759
124.283
121.82
119.147
119.98
121.093
120.394
118.077
119.18
118.538
129.288
131.983
120.592
121.039
123.059
119.932
121.513
116.128
116.11
115.217
134.265
117.855
115.293
136.505
114.908
110.084
107.439
109.155
104.518
126.497
126.379
126.52
120.992
117.271
117.298
115.209
116.299
112.492
103.84
110.256
104.457
103.748
105.699
105.021
119.972
105.848
104.511
105.141
104.034
115.884
122.078
115.578
121.845
124.457
122.477
114.33
114.857
114.023
118.107
116.344
113.849
113.345
112.738
115.786
112.444
121.579
115.36
118.104
123.93
115.28
115.261
113.688
117.361
111.025
115.548
117.805
117.075
110.926
112.105
116.041
112.496
116.135
110.538
118.577
115.876
115.889
113.771
111.739
111.414
115.258
114.167
109.14
106.97
106.827
113.32
110.527
108.832
107.916
105.381
110.118
102.543
99.3686
101.881
93.9888
107.623
103.298
103.694
103.839
102.991
99.6968
101.499
100.887
101.038
93.9086
100.414
93.0488
91.7309
86.5913
86.366
87.058
89.4167
103.123
100.84
102.849
103.063
100.137
99.2966
99.9608
97.6685
102.009
97.9202
95.8511
98.9772
90.5506
110.759
107.938
110.556
109.96
109.615
108.863
106.987
108.234
110.903
110.71
109.946
109.421
109.48
110.341
108.62
109.536
105.148
109.986
109.088
108.321
106.125
107.257
104.655
106.53
109.352
112.347
106.518
108.012
108.029
108.921
103.653
104.753
101.637
109.511
107.628
107.451
105.689
103.603
104.084
101.192
100.674
103.79
98.5311
98.2571
103.805
102.23
99.8733
100.456
98.4489
94.6124
88.3626
88.2905
90.413
85.0879
99.7666
96.4669
99.3197
97.3969
98.1637
94.295
96.2568
94.3124
94.4217
85.4186
84.5895
85.6214
83.0889
84.6992
83.9506
85.0081
84.9643
97.536
93.7884
96.2424
96.8118
94.1443
93.6208
94.3172
92.6732
95.6036
91.6175
90.8594
92.758
87.1208
106.768
105.619
107.232
106.195
106.859
105.198
106.549
105.652
108.464
108.464
105.115
106.732
107.209
106.974
105.106
100.76
95.234
106.702
100.189
103.884
99.6423
104.518
95.6982
99.2599
107.59
106.112
101.254
108.186
105.31
101.008
90.295
97.4203
81.6786
101.482
99.6436
100.332
96.6026
94.6852
95.4669
89.9627
90.6452
77.4414
76.4361
75.4229
96.0948
93.9574
91.1124
90.6706
89.1743
84.8634
82.0147
77.5493
76.8392
77.27
92.2794
87.3901
92.467
89.9752
90.177
87.2858
88.6009
84.8174
85.9846
82.6062
81.9759
82.5348
79.7743
79.1099
78.971
79.1717
79.5948
89.7368
86.2484
91.095
91.6006
88.0848
88.5501
88.5935
89.0392
90.008
86.3687
85.5469
86.7433
81.2195
100.131
85.7642
98.6091
104.771
100.219
84.4449
90.2487
85.4964
98.4809
100.749
81.754
82.6097
81.8071
99.3176
81.5436
87.7038
77.0487
96.8801
88.9654
91.1897
80.066
82.4599
78.9361
82.4564
92.0734
81.8682
69.9773
78.1796
67.0376
65.2506
63.6459
65.0069
63.8053
89.1216
88.4307
89.4444
78.5114
79.6586
82.4854
69.4154
68.751
64.4946
66.2237
66.1908
85.1404
83.6636
77.4526
80.0945
78.1829
69.7693
71.1229
66.2107
66.5335
67.5016
81.7528
77.2996
84.5446
81.7032
82.2612
80.2756
81.2807
79.1637
78.6782
74.7204
76.0504
75.4218
73.7435
71.4092
73.4972
72.2299
68.7639
82.586
78.7388
85.2342
84.6747
78.3375
80.1803
78.192
80.2313
81.9207
77.5893
75.1821
75.6341
73.1667
67.7349
63.6402
65.6243
66.3892
66.3323
63.5499
63.5188
63.577
64.99
64.2694
63.4746
63.4721
63.4668
64.2902
63.5642
64.2894
63.5705
66.1601
65.3696
66.7475
63.6682
63.6493
63.5471
63.5881
63.4078
63.484
63.6762
63.4941
63.6641
63.8815
63.7253
64.0663
64.1398
65.6782
66.9341
73.7733
63.4855
64.0245
63.9373
64.73
64.7417
66.2308
64.7275
64.0663
64.3207
63.7271
65.0762
64.2925
64.5451
64.4794
65.6455
63.9138
64.7807
73.4725
72.3254
65.1804
64.3374
65.6865
66.8582
66.2837
64.5278
63.9701
63.7168
64.8284
61.8705
64.2317
64.1408
64.0682
63.7624
64.2853
63.8074
63.998
73.318
68.6182
78.893
75.5147
74.8442
68.4766
76.5543
71.0806
71.4835
69.0701
70.0157
69.4395
68.1064
67.0204
66.2496
67.2142
65.6401
74.9561
71.4462
73.2464
72.4526
68.6725
67.2457
68.227
70.2965
70.789
65.6574
66.2616
66.7283
66.5783
63.6443
63.5056
63.652
63.6675
63.6545
63.5316
63.5171
63.53
63.665
63.6976
63.5212
63.5199
63.5587
63.7082
63.6068
63.5159
63.4359
63.6116
63.5703
63.69
63.4716
63.5154
63.4661
63.504
63.7379
63.7452
63.7878
63.5621
63.6964
63.5555
63.7614
64.214
64.289
63.9252
63.9894
64.5639
65.7574
64.425
65.4393
63.4244
63.3325
63.1403
63.365
63.3863
63.2775
64.6331
64.4322
64.3455
64.5641
64.2056
64.2475
63.9594
65.6727
63.9639
64.733
64.2426
65.1412
63.7703
64.4718
62.8058
63.5701
63.6238
63.2096
63.7858
64.2753
64.5395
62.9983
64.327
64.2516
64.4382
63.8655
64.4472
63.772
63.8902
63.7143
64.2566
63.7821
64.0922
65.5684
64.2258
69.2723
67.1241
67.7243
63.1521
63.1143
64.425
64.2021
65.3924
64.7977
65.8288
63.3152
64.9532
64.6272
65.3354
62.2716
65.694
64.7435
63.8355
63.7236
64.0216
67.9809
64.8238
64.436
65.5459
63.7556
63.9013
64.717
64.7017
64.6325
64.0344
64.4355
64.3036
64.7609
63.466
63.412
63.4997
63.4879
63.5067
63.4541
63.4369
63.4514
63.5014
63.5292
63.4613
63.4654
63.4876
63.5718
63.5444
63.3803
63.3241
63.4503
63.4156
63.4503
63.3521
63.3893
63.3595
63.406
63.6012
63.4435
63.6173
63.5024
63.5257
63.3819
63.4769
63.5166
63.5692
62.9634
63.2442
63.896
65.3027
63.7999
65.4124
63.3088
63.3576
63.2642
63.2665
63.2267
63.2128
63.8632
63.7457
63.5234
63.5761
63.5229
63.1649
62.9361
65.0166
63.0388
64.2458
63.4697
65.1642
62.8572
64.2719
63.2174
63.4281
63.2728
63.0897
63.0164
64.1586
64.4382
64.1776
64.0212
64.1205
64.4391
64.7876
64.0319
63.2226
63.7632
63.3389
64.226
64.1131
64.6945
63.4714
63.1172
62.013
63.3271
62.7243
62.9421
62.7262
63.2115
62.8874
64.8774
64.4727
64.9619
63.9924
64.68
64.2983
64.5219
66.323
66.0243
67.3348
63.9134
64.7903
64.6591
63.1148
63.1438
63.5976
64.2911
63.1289
63.4058
63.7457
64.2967
64.1622
63.8323
64.1714
63.8854
64.3434
63.3657
63.3183
63.4049
63.3873
63.4014
63.3595
63.3523
63.3593
63.4268
63.4472
63.3952
63.394
63.412
63.5137
63.4697
63.2829
63.2465
63.3394
63.3059
63.3501
63.265
63.289
63.2494
63.2875
63.4725
63.323
63.3918
63.4487
63.4277
63.2848
63.3691
62.8324
62.9286
63.2087
63.1392
63.1639
63.18
63.1305
63.1243
63.3737
62.7263
62.8195
62.7922
63.4832
62.5563
63.3327
65.3264
62.2953
64.5053
64.5338
65.6189
64.6715
65.3295
62.9876
62.8466
63.011
62.944
62.8076
64.4533
64.6294
66.8267
63.6709
65.4421
64.242
68.575
64.8851
65.1169
65.1577
65.6139
66.1689
66.1067
65.8186
62.9277
62.8285
63.0208
63.1224
63.1469
62.7453
62.9091
63.0298
63.167
64.3764
64.1052
64.172
63.9822
64.0378
63.8935
63.9289
64.2252
63.3398
63.3666
63.3983
63.4243
63.3523
63.4416
63.4001
63.9971
63.6894
63.6564
63.7036
63.6232
63.8269
63.2801
63.2428
63.335
63.3192
63.3264
63.3096
63.2881
63.2981
63.3695
63.3908
63.3459
63.3446
63.3675
63.4269
63.3857
63.2034
63.1519
63.2517
63.2011
63.2257
63.1896
63.207
63.1575
63.17
63.3661
63.2606
63.3057
63.3686
63.3198
63.2577
63.2866
63.0204
63.1403
63.1666
63.1399
63.1145
63.1231
63.1157
63.0958
63.1653
65.7483
62.8187
62.7803
61.7232
62.9245
62.7741
62.9382
62.8849
62.7782
67.4709
63.8352
63.2982
61.9686
63.7922
62.7811
62.7646
62.7712
62.9472
63.0523
62.6568
62.5843
62.9048
62.8807
63.8021
63.7248
63.7643
63.7231
63.7383
63.6426
63.6909
63.7377
63.2441
63.0559
63.4474
63.4441
63.3889
63.4143
63.4529
63.583
63.6055
63.5537
63.5274
63.5753
63.5765
63.216
63.1972
63.29
63.2664
63.2786
63.2766
63.2485
63.2659
63.3239
63.3414
63.3078
63.3064
63.3173
63.3495
63.3194
63.116
63.0981
63.1757
63.1291
63.1299
63.1398
63.1517
63.1067
63.1061
63.2831
63.2741
63.263
63.3089
63.2571
63.297
63.24
63.2125
63.2654
63.0788
63.0803
63.0713
63.055
63.032
63.0444
62.6717
62.6605
63.0914
62.8389
63.3316
62.8581
62.7885
62.8674
62.8406
62.8062
62.8755
63.8076
63.3382
63.9787
63.8339
62.7861
62.7913
62.4748
62.887
62.7404
62.7383
62.4804
62.8951
62.6996
63.72
63.6066
63.6686
63.5806
63.6947
63.57
63.6527
63.7716
62.9176
62.9161
63.3362
63.3944
63.3546
63.2669
63.3152
63.5049
63.5133
63.418
63.4933
63.4291
63.5303
63.1914
63.1983
63.2698
63.2388
63.2613
63.27
63.2403
63.263
63.2908
63.2964
63.2858
63.2816
63.28
63.2936
63.2721
63.0869
63.0912
63.1413
63.0952
63.1066
63.141
63.1493
63.1024
63.1194
63.2235
63.2976
63.1974
63.2433
63.1956
63.2926
63.1454
63.3125
63.3461
63.0449
62.9755
63.0111
63.0472
62.954
62.9878
62.9863
63.5433
63.2438
63.0688
63.5501
62.8229
62.8679
62.8118
62.8582
62.9311
64.4472
63.8372
63.6278
64.4133
63.8212
62.8342
62.9209
62.5724
62.9479
62.7664
62.9285
62.7002
63.0186
62.8934
63.663
63.553
63.6523
63.5804
63.6395
63.5721
63.6486
63.6968
63.0016
63.0973
63.2303
63.2624
63.3372
63.2244
63.2513
63.4812
63.3804
63.4053
63.47
63.3785
63.5535
63.2227
63.2587
63.2774
63.2542
63.2721
63.2917
63.2764
63.2902
63.28
63.2721
63.2941
63.2874
63.2742
63.2591
63.2552
63.1182
63.1632
63.1752
63.1321
63.1483
63.2147
63.2165
63.174
63.197
63.1759
63.2824
63.1138
63.2044
63.1657
63.2697
63.1071
63.3883
63.4252
63.0768
62.9876
63.0089
63.1304
63.0659
63.0732
63.0935
63.5255
63.3783
63.1016
63.5122
62.9546
63.0149
63.0644
63.0732
63.1183
64.2539
63.7945
63.6352
64.1178
63.7759
63.018
63.1286
62.8491
63.1037
63.0589
63.0955
62.9783
63.1946
63.1704
63.6219
63.5937
63.6392
63.6232
63.6198
63.6248
63.6386
63.6579
63.1984
63.2683
63.2544
63.2788
63.3647
63.3021
63.3338
63.4789
63.4082
63.5018
63.5251
63.4647
63.6007
63.3059
63.3609
63.3164
63.3075
63.3167
63.3491
63.3459
63.351
63.3045
63.2861
63.3391
63.3296
63.3062
63.2632
63.2816
63.2254
63.299
63.2703
63.2306
63.2544
63.3422
63.3355
63.2983
63.3193
63.1725
63.2566
63.1162
63.2249
63.1933
63.256
63.1395
63.4715
63.5136
63.1986
63.1521
63.1538
63.2773
63.2471
63.2401
63.1159
63.5141
63.5045
63.1582
63.5364
63.184
63.2367
63.2765
63.2849
63.3541
64.0181
63.7754
63.6187
63.97
63.7833
63.2495
63.372
63.0726
63.2757
63.2105
63.2911
63.1415
63.3343
63.2387
63.6355
63.6664
63.6569
63.6859
63.6576
63.6978
63.6769
63.7092
63.3169
63.3935
63.3787
63.4047
63.4638
63.4524
63.472
63.5857
63.5443
63.6522
63.6358
63.6134
63.6802
63.4197
63.4778
63.3874
63.3907
63.3917
63.4295
63.4398
63.4366
63.3605
63.3345
63.41
63.3968
63.3693
63.3111
63.3487
63.3777
63.4575
63.404
63.3754
63.3957
63.4834
63.471
63.451
63.4677
63.232
63.2609
63.1764
63.2935
63.2862
63.2783
63.2267
63.5653
63.6097
63.3653
63.3548
63.3359
63.4534
63.4749
63.4422
63.2195
63.5741
63.6593
63.2845
63.6099
63.4044
63.4677
63.5857
63.5621
63.6015
63.9566
63.7903
63.6569
63.9542
63.7921
63.4912
63.6176
63.2394
63.4499
63.314
63.5694
63.3759
63.6272
63.5208
63.6789
63.7112
63.6996
63.6874
63.7027
63.7089
63.7255
63.7541
63.5142
63.6763
63.548
63.556
63.7246
63.7045
63.6918
63.6769
63.67
63.782
63.718
63.7571
63.7241
63.5325
63.5821
63.4733
63.4923
63.4819
63.5194
63.5432
63.5274
63.437
63.4099
63.4975
63.4799
63.4547
63.395
63.4465
63.5334
63.5982
63.5329
63.5211
63.5356
63.6008
63.5866
63.581
63.5951
63.3482
63.3081
63.2863
63.4006
63.4174
63.3481
63.351
63.6642
63.7169
63.533
63.605
63.553
63.591
63.7143
63.6491
63.3394
63.6392
63.7765
63.3833
63.6561
63.7673
63.7688
63.9756
64.0133
63.9191
63.946
63.7892
63.694
63.9296
63.7876
63.758
63.8818
63.5225
63.8109
63.7749
63.8689
63.6761
64.0389
64.1108
63.7177
63.7014
63.7371
63.6614
63.7289
63.6947
63.7394
63.7537
63.8529
64.0643
63.907
63.868
64.0431
64.0684
63.9997
63.7629
63.8543
63.9423
63.7986
63.9127
63.7668
63.6257
63.6625
63.5665
63.5926
63.5724
63.6116
63.6385
63.6145
63.5243
63.5029
63.5957
63.5678
63.5519
63.5009
63.5557
63.6348
63.6644
63.6329
63.6299
63.6465
63.6793
63.6698
63.6687
63.6829
63.4811
63.3957
63.413
63.5187
63.5423
63.4451
63.471
63.7715
63.8143
63.6299
63.7662
63.6868
63.6395
63.7268
63.6349
63.4175
63.669
63.8433
63.4507
63.6785
64.2105
64.0582
64.1453
64.221
64.2781
63.9081
63.7879
63.7067
63.8922
63.7828
63.9455
63.9177
63.7178
64.1187
64.2913
63.7216
63.6568
63.9513
64.1461
63.7319
63.6899
63.7401
63.6519
63.7322
63.6849
63.7417
63.7424
64.3428
64.323
64.0519
63.9915
63.9904
63.9301
63.8839
63.7916
63.8703
63.7473
63.7631
63.7524
63.7605
63.6933
63.7175
63.6531
63.6791
63.6533
63.6899
63.7129
63.6877
63.6087
63.6001
63.6813
63.6467
63.6454
63.6104
63.6633
63.6904
63.7138
63.6975
63.6978
63.7101
63.7207
63.7169
63.718
63.7282
63.598
63.4943
63.522
63.6326
63.6543
63.5461
63.5736
63.8496
63.8756
63.6422
63.6439
63.554
63.6589
63.6205
63.5449
63.4839
63.6915
63.8665
63.5094
63.6999
64.0126
64.5084
63.8183
63.791
64.3315
63.8774
63.7696
63.6938
63.8613
63.7491
63.8136
63.8177
63.589
63.6964
63.9111
63.5197
63.5658
63.6025
63.7267
63.728
63.6794
63.7422
63.6468
63.7173
63.6789
63.7397
63.7217
64.0394
63.8125
63.7954
63.7536
63.7367
63.703
63.6789
63.7359
63.6591
63.6353
63.7309
63.6416
63.7253
63.7367
63.7531
63.7217
63.7402
63.7165
63.7493
63.7635
63.7405
63.6812
63.6883
63.7474
63.7127
63.729
63.7141
63.7628
63.7322
63.7465
63.7303
63.7322
63.7396
63.7449
63.7409
63.7417
63.7451
63.709
63.5948
63.6276
63.7366
63.7604
63.6505
63.6865
63.902
63.9283
63.6797
63.6315
63.5737
63.6997
63.664
63.6163
63.5296
63.702
63.8812
63.5471
63.7038
63.6572
63.9552
63.6322
63.5945
63.7173
63.8369
63.732
63.6718
63.8173
63.7261
63.8552
63.8268
63.5876
63.6281
63.6849
63.6907
63.6399
63.6894
63.7059
63.7094
63.6816
63.7386
63.6454
63.7063
63.6799
63.7395
63.7148
63.7298
63.7134
63.6679
63.6752
63.6854
63.6575
63.6871
63.7407
63.6701
63.6923
63.7497
63.6863
63.7233
63.7682
63.7824
63.7744
63.7835
63.7606
63.7979
63.8013
63.7806
63.741
63.7684
63.8027
63.7691
63.8058
63.8119
63.8596
63.757
63.7653
63.7519
63.7497
63.747
63.7687
63.7647
63.7593
63.7485
63.8123
63.7083
63.7514
63.8328
63.8678
63.7773
63.8364
63.9619
64.0084
63.7193
63.6999
63.6603
63.7393
63.7297
63.7013
63.5694
63.712
63.9047
63.5917
63.7249
63.5781
63.609
63.6243
63.5862
63.5649
63.8084
63.7298
63.695
63.8101
63.7405
63.7251
63.6347
63.6941
63.745
63.734
63.6259
63.7415
63.7551
63.7226
63.7072
63.6782
63.7445
63.6405
63.7134
63.6789
63.7525
63.7216
63.7181
63.7236
63.6701
63.702
63.7101
63.686
63.7074
63.7522
63.692
63.6942
63.7623
63.7116
63.724
63.7978
63.8143
63.8206
63.8188
63.8016
63.8424
63.8366