/*--------------------------------*- C++ -*----------------------------------*\
| =========                 |                                                 |
| \\      /  F ield         | OpenFOAM: The Open Source CFD Toolbox           |
|  \\    /   O peration     | Version:  5.x                                   |
|   \\  /    A nd           | Web:      www.OpenFOAM.org                      |
|    \\/     M anipulation  |                                                 |
\*---------------------------------------------------------------------------*/
FoamFile
{
    version     2.0;
    format      ascii;
    class       surfaceScalarField;
    location    "5";
    object      phi;
}
// * * * * * * * * * * * * * * * * * * * * * * * * * * * * * * * * * * * * * //

dimensions      [0 3 -1 0 0 0 0];

internalField   nonuniform List<scalar> 
29271
(
-8.24988e-06
3.79349e-07
6.2104e-06
1.73937e-06
-1.19883e-05
-1.16618e-07
9.24339e-06
3.0516e-06
-4.63727e-05
-1.30135e-05
-5.94631e-06
6.93095e-06
7.20831e-06
5.11932e-05
-5.4874e-05
-2.66956e-05
-7.48927e-06
-1.66414e-06
1.9188e-05
7.15351e-05
-3.82809e-05
-4.11974e-06
-1.33329e-06
2.20979e-05
1.23457e-05
9.29037e-06
-5.34888e-05
-1.4033e-05
-3.67439e-06
1.65797e-06
8.38676e-06
6.11514e-05
-5.44259e-05
-9.93809e-06
-5.18693e-06
6.38892e-06
1.45288e-05
4.86333e-05
-5.25188e-05
-2.31855e-05
-8.38287e-06
7.35523e-06
1.51431e-05
6.15888e-05
-5.62315e-05
-1.85882e-05
4.21824e-07
-3.46821e-06
7.92055e-06
6.99455e-05
-4.13404e-05
-6.45121e-06
1.34571e-06
4.39057e-05
2.53736e-06
-1.09601e-05
2.00301e-06
2.05036e-06
6.96321e-06
-5.51086e-05
-1.78147e-05
1.69518e-06
2.11952e-05
-7.33499e-06
5.73679e-05
-4.59784e-05
-1.05834e-05
-1.63636e-05
7.98254e-06
3.6001e-06
6.13429e-05
-5.53628e-05
-6.83404e-06
-8.70855e-07
-4.95776e-06
2.99221e-06
6.50333e-05
-5.66944e-05
2.31667e-06
1.14116e-05
-1.19657e-05
-7.67403e-06
6.26059e-05
-6.01343e-05
4.94834e-06
3.53529e-06
-1.35528e-05
6.94753e-05
-4.27185e-06
-3.05458e-05
-3.12535e-06
1.74688e-05
-1.98546e-06
1.15124e-05
6.67537e-06
-7.17022e-05
-2.18241e-05
2.71396e-06
9.77924e-06
-1.09181e-05
9.19512e-05
-5.96829e-05
1.35461e-06
4.56935e-06
-1.41176e-05
-9.51969e-06
7.73963e-05
-6.03163e-05
-1.45248e-05
-1.04891e-05
5.19889e-05
1.0362e-05
2.29793e-05
-1.01952e-05
6.43923e-06
-7.78027e-07
4.52767e-06
-3.0333e-05
-2.4971e-06
2.58423e-06
2.39555e-05
6.37399e-06
-4.52897e-05
2.51133e-06
-1.06565e-05
-4.19093e-07
4.97027e-05
4.15117e-06
-1.11761e-05
1.67626e-06
6.39948e-06
3.17938e-06
-3.88824e-07
3.33758e-08
3.63671e-07
-1.04931e-08
-5.22544e-08
7.88412e-07
-1.31576e-07
-6.17705e-07
-9.50613e-06
-9.44221e-07
-5.44192e-05
3.38615e-06
1.79287e-05
4.35547e-05
-8.09995e-06
-6.96282e-05
-2.79081e-06
3.60716e-06
1.62495e-05
6.06623e-05
-3.7707e-06
-6.97474e-07
-7.91118e-07
4.44156e-06
2.5245e-06
-1.70678e-06
-8.8161e-06
-1.83685e-06
-5.9562e-05
9.64192e-06
6.88071e-06
5.36923e-05
-2.40241e-05
5.15755e-05
0.000302667
-5.25503e-05
-4.36605e-05
-5.9244e-05
-7.83359e-05
-1.70635e-05
-1.50548e-05
-2.00342e-05
-1.77381e-05
-7.3941e-06
-8.84547e-06
-5.03594e-06
-5.26181e-06
-1.82888e-05
1.50753e-05
0.000325115
-6.35208e-05
-8.39634e-05
-7.982e-05
-7.99335e-05
-1.01661e-05
-1.42392e-05
-6.34341e-06
-7.93906e-06
1.50675e-06
3.06146e-05
0.000255186
-1.67684e-05
-2.2314e-06
-2.95086e-06
-1.809e-06
3.4071e-06
4.77157e-06
5.9595e-06
-7.8453e-05
-7.24645e-05
-7.52743e-05
-6.97832e-05
-4.63852e-05
-7.64673e-07
2.21041e-06
4.64245e-05
-4.64151e-06
-1.16275e-06
3.4291e-06
2.37916e-06
-6.69618e-06
-4.76731e-05
-3.64399e-06
1.39453e-05
4.83728e-06
3.92307e-05
-3.7209e-05
3.50449e-05
0.000443103
-7.92648e-05
-9.02853e-05
-0.000101552
-9.01361e-05
-8.95073e-06
-1.31145e-05
-3.17746e-06
-2.88278e-06
-3.10907e-06
2.80853e-05
0.000220303
-6.45643e-05
-6.65869e-05
-6.6011e-05
-7.02506e-05
-2.44525e-07
5.74092e-07
0.000159921
-7.38696e-07
-8.96411e-07
1.54611e-06
4.09893e-06
3.05002e-06
1.2839e-05
-6.12233e-05
-2.4748e-05
-5.01501e-05
-1.65227e-05
-7.52925e-05
-4.70663e-06
-1.61018e-06
8.83203e-06
7.25327e-05
-7.0403e-06
-1.98545e-06
3.59947e-06
5.08014e-07
6.98776e-06
-2.06949e-06
-2.16638e-05
8.05274e-06
0.000356164
-4.84577e-06
1.45261e-06
2.71946e-06
4.09791e-06
9.55316e-06
1.10834e-05
1.17634e-05
-0.000102868
-0.000100255
-6.26224e-05
-7.75864e-05
-2.59031e-06
1.2189e-05
0.000235499
-7.32036e-07
1.176e-06
1.70785e-06
9.13977e-06
1.42844e-05
1.33235e-05
-8.67421e-05
-8.84866e-05
-6.51879e-05
-3.71591e-05
-2.64227e-05
4.41505e-06
2.65857e-06
1.73328e-05
-3.63684e-06
-3.40566e-06
1.13707e-06
5.79084e-06
-2.92484e-05
-6.40127e-07
9.54751e-07
3.69806e-05
-5.89516e-05
-8.39334e-07
-1.13053e-06
1.20225e-06
7.19083e-05
-1.39126e-06
-9.8228e-07
9.27512e-07
1.38259e-06
1.35744e-07
1.22592e-07
-1.64294e-07
-1.23101e-07
4.84206e-07
-1.35264e-07
-1.04606e-08
-3.88424e-07
9.03052e-07
1.90309e-06
-2.55919e-05
1.55564e-06
8.1524e-06
1.30777e-05
-3.6776e-06
-5.72133e-05
-4.19432e-06
3.13839e-06
9.69873e-06
5.22481e-05
-8.01015e-06
-4.16549e-07
4.94572e-07
-1.32566e-06
1.39767e-05
-4.71896e-06
-4.3297e-06
-6.98144e-06
-4.91359e-05
7.33298e-06
9.53668e-06
4.35774e-05
-3.06476e-05
7.03322e-05
0.000335111
-1.94949e-05
-2.49278e-05
-1.22896e-05
-2.24098e-05
-1.40009e-06
-2.21602e-06
4.76562e-06
5.8443e-06
6.41315e-06
4.59458e-05
0.000277605
-1.02071e-05
-1.07521e-05
-7.29058e-06
-7.24708e-06
4.53026e-06
8.4229e-05
0.000185893
-8.75858e-06
-4.53147e-06
-8.93644e-06
-4.991e-06
6.76577e-06
1.71735e-06
5.68171e-06
-4.5857e-05
-1.31208e-06
1.18326e-05
3.98631e-05
-1.05215e-06
-2.02229e-06
2.73908e-06
3.14966e-07
-1.14622e-05
-4.03731e-05
-1.00755e-05
7.48698e-06
6.91079e-06
4.7513e-05
-2.55944e-06
4.87035e-05
0.000473356
-6.17641e-06
-5.20304e-06
1.73522e-06
3.57925e-06
2.59214e-05
2.88808e-05
0.000208887
-5.36156e-06
6.81149e-06
0.000251681
-1.45769e-06
-8.23714e-06
-4.98597e-06
1.18909e-05
7.98169e-06
1.1749e-05
-7.37835e-05
-1.65645e-05
-9.93873e-06
1.97624e-05
7.51627e-05
-1.115e-05
-2.01468e-06
-9.54434e-07
2.81855e-07
1.53284e-05
-1.49115e-06
1.26463e-05
9.06673e-06
0.00035198
-2.64252e-07
9.63304e-07
2.79561e-06
1.1815e-06
1.00515e-05
7.56882e-06
8.87752e-06
4.17526e-06
5.70775e-06
0.000218368
8.33921e-06
1.19088e-05
1.4217e-05
6.32402e-06
3.33207e-06
4.65393e-06
-1.53383e-05
3.06855e-07
-8.60969e-07
2.68792e-05
-1.17762e-05
-1.09921e-05
4.23372e-06
1.85126e-05
-4.50206e-05
-1.74005e-06
5.78371e-06
5.0044e-05
-8.5925e-05
-5.15929e-06
9.78059e-06
-5.22119e-06
9.22327e-05
-5.96604e-06
8.3598e-06
-1.37548e-05
1.13143e-05
1.07444e-07
8.56508e-08
-2.65453e-07
3.69053e-08
2.97915e-07
-5.13865e-07
1.45387e-07
1.81204e-08
1.72366e-06
3.09001e-06
-1.18058e-05
-5.69207e-06
1.57433e-06
1.11098e-05
1.11033e-06
-4.22606e-05
-1.68359e-08
8.33598e-06
6.14399e-06
2.66871e-05
-1.85036e-05
-2.07642e-07
4.14782e-06
4.96671e-06
1.91535e-05
-9.55675e-06
-2.79003e-06
-2.45963e-06
-3.58842e-05
2.04219e-06
1.50416e-05
2.40501e-05
-9.1616e-06
0.000105209
0.000265446
-1.33104e-05
-2.12549e-05
-1.33485e-05
-1.34758e-05
5.4021e-06
7.69325e-06
7.36092e-06
1.45519e-05
3.21425e-05
8.88909e-05
0.000215584
-1.55794e-05
-1.63226e-05
-2.09247e-05
-1.53477e-05
-1.09649e-06
4.70798e-05
0.000191239
-1.15781e-05
-3.46772e-06
-6.28637e-06
-3.08428e-06
1.09303e-06
9.70153e-07
3.16692e-06
-2.39998e-05
-3.85934e-07
8.09214e-06
1.52665e-05
-3.43967e-08
-6.51351e-07
6.10826e-07
9.82834e-09
-8.63008e-06
-5.97441e-05
-1.57234e-05
5.15065e-06
9.98908e-06
6.89578e-05
1.91276e-05
4.8084e-05
0.000511132
-3.99801e-06
-1.3136e-06
2.17355e-06
3.3592e-06
2.76874e-05
2.66886e-05
0.00026253
-9.88291e-06
-4.8385e-07
0.000340665
-9.84819e-06
-3.84208e-06
-7.53285e-06
7.37128e-06
1.96586e-06
8.03581e-06
-7.15283e-05
-1.37251e-05
-9.60998e-06
2.86832e-05
5.62973e-05
-2.05082e-05
-8.07348e-07
-5.18069e-07
2.05127e-06
2.39621e-05
-4.1797e-06
3.45075e-05
4.16612e-06
0.000354405
-2.66828e-06
-1.77792e-06
2.46343e-07
-1.19337e-07
4.42407e-06
2.9655e-06
3.91581e-06
5.79181e-06
-7.087e-06
0.00027178
1.06258e-05
8.62604e-06
9.49478e-06
-4.50119e-06
-8.89292e-06
-6.27325e-06
-4.64443e-05
2.45606e-06
-8.78159e-06
5.80777e-05
-3.02225e-05
-1.47643e-05
9.51257e-06
3.54692e-05
-5.2387e-05
6.6484e-07
4.67446e-06
5.1203e-05
-9.9523e-05
-9.01172e-06
1.35742e-05
-8.04332e-06
9.59169e-05
-1.27215e-05
1.28587e-05
-1.14093e-05
1.12184e-05
-4.13858e-07
-1.00041e-07
-3.02276e-07
7.83927e-07
-5.01062e-07
-3.54926e-07
4.02517e-08
7.82125e-07
-2.07254e-09
5.32288e-07
-5.62592e-06
1.14594e-07
9.3026e-07
4.05085e-06
1.2354e-06
-1.0438e-05
5.00298e-07
3.55218e-07
2.52503e-06
5.8221e-06
-1.73838e-05
2.74121e-07
2.58907e-06
5.26835e-06
1.21883e-05
-2.93609e-06
4.1618e-07
5.93025e-07
-1.3735e-05
-2.14083e-06
8.21476e-06
6.6519e-06
1.29627e-05
7.8257e-05
0.000165841
-3.66311e-06
-4.18194e-06
-2.0193e-06
-2.03502e-06
5.2961e-07
8.82013e-06
1.12861e-06
9.80636e-06
4.08181e-05
3.9947e-05
0.000178522
-1.2393e-05
-1.18242e-05
-2.86131e-06
-3.66157e-06
4.48327e-06
1.92371e-05
0.000214719
-4.32945e-06
-2.4324e-06
-6.29e-06
-3.33333e-06
2.86678e-06
4.37061e-06
2.76506e-06
-1.41235e-05
-1.06292e-07
-2.2921e-06
2.1029e-05
-9.32528e-08
-2.82757e-07
-7.67425e-09
3.36148e-07
-1.35253e-06
-7.72686e-05
-2.24496e-05
4.51565e-06
1.67369e-05
7.98182e-05
4.9135e-05
6.02795e-05
0.000499234
-5.62795e-06
-5.12084e-06
-4.10103e-06
-4.41008e-06
3.25753e-05
1.40776e-05
0.000304959
3.27988e-06
-7.75501e-06
0.000380817
-2.95039e-07
7.06163e-06
6.61139e-06
3.27544e-06
-3.87917e-06
3.36117e-06
-4.23165e-05
5.94417e-07
1.55646e-06
6.061e-06
3.73845e-05
-2.92466e-05
1.48494e-06
-2.65992e-06
7.48562e-06
3.556e-05
-1.2624e-05
5.66533e-05
3.68169e-06
0.000345435
-2.82183e-06
-1.23098e-06
-8.59781e-07
-1.27043e-07
3.4751e-06
5.25968e-06
5.21883e-06
8.67946e-06
-9.85818e-06
0.000320212
1.16938e-05
1.51264e-05
1.20965e-05
-5.79946e-06
-5.58515e-06
-4.05446e-06
-7.30143e-05
4.91193e-06
-9.479e-06
7.85058e-05
-3.55541e-05
-4.58422e-06
2.12541e-06
3.79978e-05
-4.84737e-05
4.73546e-06
2.48115e-07
4.71208e-05
-8.908e-05
-7.94908e-06
1.26988e-05
-2.72755e-06
7.71997e-05
-9.33132e-06
5.10956e-06
-6.12637e-06
1.0247e-05
-1.0073e-06
-9.8172e-08
5.10838e-08
1.06147e-06
-8.61369e-07
2.0997e-07
-1.91328e-07
8.41774e-07
-2.99176e-07
-5.16088e-07
-4.23797e-06
4.07308e-07
-1.45108e-08
4.66044e-06
-2.46506e-07
-5.6429e-06
-1.18792e-07
-4.50999e-08
5.21856e-07
5.53144e-06
-6.89961e-06
-8.64097e-08
1.87004e-07
4.03446e-06
2.83774e-06
-7.31864e-08
1.20379e-06
1.51471e-06
-4.4017e-06
-5.53697e-07
-4.21981e-06
6.4567e-06
2.31626e-05
1.66872e-05
0.000127573
1.33404e-06
1.22986e-06
4.94724e-06
5.71584e-06
-2.20076e-06
-7.44046e-06
-1.23453e-06
-3.93291e-06
2.50143e-05
5.76752e-06
0.000185416
-7.20723e-07
-2.3609e-06
-4.8689e-06
-6.56254e-06
5.11335e-07
-1.55178e-06
0.000251748
-7.02347e-06
9.13422e-08
-4.58849e-06
4.32265e-06
-9.25764e-07
-8.9565e-07
-1.95457e-06
-2.67153e-05
9.479e-06
1.49011e-07
-1.14519e-05
2.90505e-05
6.1595e-08
-2.20035e-08
3.52599e-08
-8.50631e-08
-1.41604e-06
2.07001e-08
-4.25496e-06
5.31067e-06
1.29878e-05
-7.09801e-05
-8.41443e-06
-1.00991e-06
2.18579e-05
4.55587e-05
9.54606e-05
5.24168e-05
0.000432006
-1.78638e-05
-1.69671e-05
-1.70196e-05
-1.2112e-05
5.84611e-05
1.54801e-06
0.000346178
9.56324e-06
-7.67468e-06
0.000409957
1.08631e-05
1.21691e-05
8.83125e-06
-6.02985e-07
-1.85843e-06
-3.52117e-06
-4.16828e-05
2.05372e-06
2.39555e-06
4.87329e-06
4.19235e-05
9.58354e-09
1.09603e-07
-2.31246e-08
-6.19129e-08
-5.80732e-08
-4.56774e-05
1.19067e-05
-5.12891e-06
9.5861e-06
4.9534e-05
-2.02206e-05
5.20352e-05
8.69648e-06
0.000302052
-4.45472e-06
-1.06311e-06
6.00738e-07
2.22103e-06
9.90086e-06
1.45041e-05
1.33594e-05
1.32478e-05
-4.79881e-08
0.000317375
1.09109e-05
1.41268e-05
1.25376e-05
-4.74099e-07
2.52093e-06
3.59867e-06
-8.39669e-05
1.6193e-05
-2.5462e-06
7.58932e-05
-5.36435e-05
2.88149e-06
-1.37997e-05
6.45636e-05
-4.83532e-05
8.52517e-07
1.8578e-06
5.42696e-05
-6.4699e-05
-4.62287e-06
8.1474e-06
3.59542e-06
5.7531e-05
-1.48484e-05
-1.62573e-06
-5.84212e-06
2.20168e-05
-1.05643e-06
3.49244e-07
-9.42254e-08
8.00401e-07
-7.30039e-07
1.15843e-07
7.33464e-07
-1.21529e-07
-1.08184e-06
-8.94871e-07
-7.03979e-06
9.28818e-07
1.88649e-06
6.20119e-06
-8.25997e-07
-5.26168e-06
-2.81417e-07
-1.21055e-06
2.67144e-06
4.90819e-06
-2.05614e-06
2.39123e-07
-7.44382e-06
-7.72953e-07
6.97216e-06
3.06164e-06
-1.29063e-06
1.60186e-07
-6.48992e-06
7.1904e-07
-5.07272e-07
7.4086e-06
1.57105e-05
-8.0746e-06
0.000144968
-4.49038e-07
9.73059e-07
-5.24614e-06
-4.25471e-06
-3.99393e-06
-1.50093e-06
-7.21857e-06
-3.34083e-06
1.39254e-05
3.25048e-06
0.000200292
-4.4046e-06
-5.73086e-06
-2.50373e-06
-3.70236e-06
-3.57947e-06
-7.40943e-06
0.000271318
-8.13629e-07
7.45389e-06
3.32888e-06
6.70854e-06
-3.69165e-06
-5.15093e-06
-2.49059e-06
-2.44364e-05
1.37657e-05
-5.62822e-06
-1.08571e-06
1.38051e-05
4.86485e-07
-5.46088e-06
9.40158e-06
-8.94763e-06
7.67008e-06
-3.14965e-06
-1.14569e-05
3.77977e-06
-5.18479e-06
1.28575e-05
7.62041e-06
-2.88113e-05
4.11804e-07
-5.8607e-06
1.688e-06
2.49517e-05
6.86729e-05
2.99118e-05
0.000335596
-5.00753e-06
-5.53113e-06
4.0957e-07
-1.2015e-07
6.2964e-05
6.28123e-06
0.000348856
1.30247e-05
-1.19634e-06
0.000410417
1.24325e-05
1.56798e-05
1.5513e-05
-1.17316e-06
1.68086e-06
-8.6683e-07
-5.35594e-05
1.35355e-06
4.37657e-06
-2.92122e-06
6.37752e-05
4.07747e-07
-6.28865e-06
3.00585e-06
-4.34231e-06
3.6868e-06
3.53056e-06
-5.46164e-05
8.14884e-06
-1.09927e-05
-5.22621e-07
6.19771e-05
-3.99423e-06
3.75946e-05
1.02684e-05
0.000247854
2.01933e-07
1.64187e-06
2.82765e-06
2.34753e-06
1.00593e-05
9.34945e-06
9.81851e-06
1.1678e-05
1.4805e-06
0.000308195
1.11695e-05
1.3062e-05
9.76642e-06
3.09543e-06
8.55682e-07
1.94748e-06
-7.27217e-05
1.16235e-05
1.0089e-06
7.0571e-05
-6.39337e-05
-1.28486e-05
-1.7106e-05
1.61027e-05
7.77862e-05
6.75797e-07
1.4424e-07
-2.17019e-06
1.35143e-06
-6.40231e-05
-6.16905e-06
1.03802e-05
7.00722e-05
-6.03716e-05
-6.41793e-06
5.09564e-06
-3.42253e-06
6.65969e-05
-2.93471e-05
-8.64074e-08
-3.92861e-06
3.33587e-05
-6.2141e-07
8.79538e-07
-5.82579e-07
3.25722e-07
6.60385e-07
6.49499e-07
-5.97944e-07
-7.13405e-07
-1.63661e-06
-7.01576e-07
-3.21274e-06
2.44193e-07
3.81283e-06
1.49391e-06
-6.42577e-07
-5.57247e-06
5.23716e-07
-2.69129e-06
1.62329e-06
6.75934e-06
-1.31235e-05
4.16791e-06
-1.01846e-05
-4.98822e-06
1.81507e-05
5.97776e-06
-5.04351e-07
-1.76314e-06
-5.92407e-06
2.23528e-06
2.55248e-07
5.70103e-06
1.10911e-05
1.45311e-05
0.000146214
-4.00554e-06
-4.347e-06
-1.87377e-06
-2.57666e-06
-3.72567e-06
-4.83291e-06
-2.12578e-06
-3.38157e-06
4.71974e-06
1.1621e-05
0.000199857
-1.72751e-06
-2.95489e-06
-3.75763e-08
-9.41873e-08
-4.77489e-06
-6.74991e-06
0.000276482
3.83135e-06
5.27939e-06
5.13995e-06
4.55223e-06
-2.20363e-06
-5.41008e-06
-1.09527e-07
-1.37436e-05
2.26549e-06
-6.54408e-06
-8.53367e-08
1.33326e-05
8.41892e-06
3.27332e-06
8.90406e-06
-6.90208e-06
2.31353e-06
-1.60077e-05
-1.2538e-05
3.57921e-06
-3.29519e-06
1.22503e-05
1.26298e-06
-2.48553e-05
-2.25741e-06
-5.55168e-07
2.67361e-06
2.37313e-05
5.01373e-05
2.29433e-05
0.000294139
-2.15915e-06
-2.3435e-06
-6.66398e-06
-5.92553e-06
6.00549e-05
5.30686e-06
0.000345252
1.47465e-05
-2.00849e-06
0.000409194
1.53737e-05
1.5421e-05
1.52913e-05
-2.14996e-06
1.84436e-07
-2.33051e-06
-7.32343e-05
1.75441e-06
9.28868e-06
-3.69821e-06
8.06359e-05
-1.02737e-05
-3.70301e-06
6.63089e-07
4.22544e-07
1.61668e-06
1.12744e-05
-6.78056e-05
4.21837e-06
-4.11701e-06
-3.37852e-06
7.10353e-05
4.74652e-08
2.33444e-05
6.32522e-06
0.000233201
-1.36487e-07
1.06337e-06
-3.16078e-06
-1.06798e-06
5.28052e-06
3.76092e-06
2.18793e-06
7.43022e-06
-1.08622e-06
0.000312868
6.29809e-06
8.49648e-06
5.12949e-06
5.27617e-07
-1.80794e-06
-1.00926e-06
-7.54224e-05
7.94915e-06
-1.70769e-06
7.46027e-05
-8.31063e-05
3.80352e-06
-1.1904e-05
1.13892e-05
7.98177e-05
-1.00081e-05
-8.0083e-07
-1.35866e-05
8.34827e-06
1.60472e-05
-7.42343e-05
-4.68807e-06
1.02461e-05
7.50008e-05
-7.34079e-05
-5.82507e-06
5.44309e-06
-4.65457e-06
7.73583e-05
-3.56277e-05
1.49554e-06
-3.15928e-06
3.72915e-05
-3.89016e-07
1.17188e-06
-1.23162e-06
4.49459e-07
5.14776e-07
9.87374e-07
-1.06262e-06
-4.37652e-07
-1.49043e-06
-8.88689e-08
-1.13524e-06
-6.3104e-07
2.15926e-06
1.18631e-06
-3.1591e-07
-8.53027e-06
1.70423e-06
-3.80146e-06
9.82404e-07
9.96101e-06
-2.18466e-05
4.91748e-06
-8.18314e-06
-5.10665e-06
2.37235e-05
6.49537e-06
-4.75746e-07
-3.00095e-06
-5.44817e-06
1.66962e-06
2.27641e-06
4.97883e-06
7.51231e-06
2.38278e-05
0.000133579
-2.89621e-06
-4.22765e-06
-2.5308e-06
-3.43656e-06
-1.76361e-06
-2.40169e-06
-1.52761e-06
7.91599e-08
5.582e-07
1.09652e-05
0.000197621
-1.50336e-06
-2.8129e-07
-1.03673e-06
1.04539e-06
-4.90599e-06
-9.99937e-06
0.000281789
4.26075e-06
4.11079e-06
4.60216e-06
2.88709e-06
1.86996e-06
-9.24186e-06
1.66772e-06
-1.52845e-05
5.6177e-06
-6.96052e-06
-1.44008e-06
1.31614e-05
2.93548e-05
2.82923e-06
1.20586e-06
-1.62183e-05
-1.71716e-05
-1.18888e-05
2.74343e-06
-2.43555e-06
1.15805e-05
1.11926e-07
-2.15756e-05
-5.16878e-06
2.489e-06
3.918e-06
2.02254e-05
4.5545e-05
1.75549e-05
0.000280046
-7.08541e-06
-7.217e-06
-5.15367e-06
-5.72288e-06
5.11574e-05
5.30321e-06
0.000345302
1.52355e-05
-2.84911e-06
0.000412457
1.3749e-05
1.19725e-05
4.71975e-06
-6.74973e-07
-5.23337e-07
-3.73399e-06
-8.55609e-05
4.6298e-06
1.37583e-05
-4.55482e-06
8.6963e-05
-1.6644e-05
2.24453e-05
-1.41308e-05
1.23774e-05
-1.94089e-05
1.5361e-05
-7.18508e-05
3.76081e-06
-1.08232e-06
-3.75762e-06
7.21912e-05
7.38669e-07
2.08775e-05
3.25139e-06
0.00023057
-4.42058e-06
-9.79415e-07
-3.02429e-06
-9.58275e-07
1.2871e-06
2.8367e-06
1.31533e-06
4.1892e-06
-1.86363e-06
0.000323802
4.25849e-06
6.46122e-06
4.70588e-06
-9.03496e-07
-8.9224e-07
-7.08899e-07
-7.83497e-05
3.92476e-06
-2.25983e-06
7.80249e-05
-6.23382e-05
-3.66783e-06
-6.7767e-06
7.27827e-05
-7.48954e-05
-3.95192e-06
7.17012e-06
7.49286e-05
-7.98218e-05
-3.98357e-06
4.46058e-06
-4.47571e-06
8.19569e-05
-3.80248e-05
2.31453e-06
-2.46625e-06
3.81734e-05
-4.08115e-07
1.27273e-06
-1.06123e-06
1.97544e-07
4.01417e-07
1.30175e-06
-1.32762e-06
-3.74116e-07
-1.40432e-06
1.21907e-07
-1.36094e-06
-7.4024e-07
2.06864e-06
1.31495e-06
-2.8176e-07
-1.11717e-05
2.21906e-06
-4.24299e-06
1.49069e-06
1.19867e-05
-2.45111e-05
3.43324e-06
-5.05167e-06
-3.63786e-06
2.43233e-05
5.44409e-06
-1.38462e-07
-3.26016e-06
-4.90207e-06
1.62356e-06
1.32268e-06
5.35445e-06
2.79601e-06
1.88619e-05
0.000126557
-2.63906e-06
-3.93459e-06
-2.54691e-06
-3.36106e-06
-1.04424e-06
2.91454e-07
-1.05287e-06
-3.48875e-07
-5.0577e-06
1.05797e-05
0.000198554
-2.41531e-06
1.0658e-07
-2.09768e-06
7.47886e-07
-9.56095e-06
-1.28583e-05
0.000300901
3.38102e-06
2.12516e-06
4.23354e-06
1.52656e-06
-3.50348e-06
-6.13717e-06
-3.37551e-06
-1.67876e-05
3.10015e-06
-1.45803e-05
1.87068e-05
-1.10348e-05
1.0583e-06
-1.24309e-07
1.01006e-05
-2.19549e-06
-2.01372e-05
-3.82981e-06
1.60051e-06
2.42408e-06
2.21379e-05
3.80642e-05
1.29029e-05
0.000256108
-2.58251e-06
-2.95717e-06
-1.65576e-06
-9.71779e-07
4.35032e-05
9.49229e-06
0.00034095
5.74534e-06
-3.24725e-06
0.000436417
-2.58354e-07
5.81695e-06
3.95435e-06
-3.64856e-06
1.7444e-07
-1.85277e-06
-0.000117877
8.7957e-06
4.45469e-06
-1.01505e-05
0.000120523
-7.24793e-05
3.87153e-06
-1.9388e-06
-4.44001e-06
7.28332e-05
2.15347e-06
1.42114e-05
2.02706e-06
0.000221522
-8.74593e-07
7.77088e-07
1.52753e-06
1.49323e-06
3.31815e-07
1.93423e-06
5.23444e-07
3.29422e-06
-4.97896e-07
0.000328726
4.33817e-06
6.66016e-06
4.88819e-06
-2.75239e-07
2.0339e-07
1.69088e-07
-8.24667e-05
2.08757e-06
-1.72657e-06
8.21527e-05
-7.1987e-05
1.31469e-05
-1.8318e-06
6.06719e-05
-7.46833e-05
-2.71039e-06
5.7855e-06
7.36353e-05
-8.39947e-05
-3.1686e-06
4.22457e-06
-3.1351e-06
8.55759e-05
-3.82889e-05
1.91588e-06
-2.07741e-06
3.84399e-05
1.63979e-08
1.16817e-06
-1.06513e-06
-1.19439e-07
4.11645e-07
1.15478e-06
-1.23162e-06
-3.3463e-07
-1.57019e-06
6.9434e-08
-1.26762e-06
-6.26767e-07
2.06238e-06
1.33277e-06
-2.81023e-07
-1.2339e-05
1.89441e-06
-3.50663e-06
1.99818e-06
1.22341e-05
-2.36614e-05
2.21135e-06
-2.18813e-06
-2.29667e-06
2.25758e-05
3.3591e-06
3.89888e-07
-2.61908e-06
-5.98456e-06
1.27069e-06
2.17732e-09
6.94088e-06
-8.06489e-07
1.69757e-05
0.000124184
-2.26152e-06
-3.35604e-06
-2.15855e-06
-2.6851e-06
-1.9402e-07
-1.00189e-06
-6.57565e-07
-1.48119e-06
-3.85064e-06
1.2196e-05
0.000195638
-3.14281e-06
-6.28219e-07
-2.47134e-06
6.46806e-09
-4.17017e-06
-1.33674e-05
0.000307754
2.34096e-06
9.43527e-07
2.88907e-06
1.29789e-06
8.51312e-08
-2.73874e-06
2.01614e-06
-2.50993e-05
5.11644e-06
-1.51709e-05
3.09836e-05
-8.5747e-06
-3.16019e-07
2.07955e-06
6.81116e-06
-3.87171e-06
-2.52286e-05
-9.58869e-07
3.21818e-06
-1.75773e-06
2.85987e-05
2.80662e-05
1.15186e-05
0.000234876
-1.77183e-06
1.06392e-09
-1.14795e-06
1.54187e-06
4.17735e-05
1.1969e-05
0.00032747
1.02867e-05
-2.62608e-06
0.000431954
6.52412e-06
1.29506e-05
7.63453e-06
-1.68024e-06
7.52427e-07
-9.72895e-07
-0.000119278
1.06181e-05
1.29868e-05
-1.21334e-05
0.000118093
-7.30724e-05
3.18273e-06
-2.98181e-06
-4.6304e-06
7.31265e-05
4.37537e-06
5.64984e-06
1.74193e-06
0.00021025
2.83524e-06
3.09832e-06
4.5891e-06
3.33758e-06
-6.34399e-08
1.63563e-06
-3.40502e-08
3.29494e-06
-8.60988e-08
0.000327398
4.13603e-06
6.41466e-06
4.4183e-06
2.95554e-07
2.05066e-07
2.68133e-07
-8.64364e-05
3.67495e-06
-1.48772e-06
8.49181e-05
-5.89394e-05
5.81376e-06
-5.47232e-06
5.8598e-05
-7.22599e-05
-7.19744e-07
4.16958e-06
7.0552e-05
-8.73867e-05
-2.63038e-06
3.73118e-06
-2.47238e-06
8.86722e-05
-3.90232e-05
1.58294e-06
-2.30753e-06
3.97478e-05
1.77686e-07
9.41811e-07
-9.03587e-07
-2.1591e-07
1.0571e-07
9.2598e-07
-1.19049e-06
1.59559e-07
-1.53689e-06
8.34964e-09
-1.33304e-06
-3.71926e-07
1.74615e-06
1.48736e-06
-3.77562e-07
-1.18946e-05
9.8351e-07
-2.12896e-06
2.04915e-06
1.13684e-05
-2.15703e-05
1.96463e-06
-1.68486e-06
-1.23637e-06
2.0378e-05
2.14886e-06
9.205e-07
-1.867e-06
-7.64998e-06
1.03502e-06
-1.32494e-06
8.8864e-06
-2.37433e-06
1.69028e-05
0.000121397
-1.78224e-06
-2.74042e-06
-1.70379e-06
-2.158e-06
-1.55322e-07
-1.30388e-06
-6.22697e-07
-1.27499e-06
-2.16753e-06
1.39448e-05
0.000189364
-3.17805e-06
-1.538e-06
-2.41873e-06
-7.42358e-07
-1.86335e-06
-1.38986e-05
0.000313959
8.89825e-07
1.37517e-06
1.43063e-06
2.28082e-06
1.36107e-06
-1.50134e-06
1.55329e-06
-3.61283e-05
7.82752e-06
-1.53916e-05
4.1829e-05
-5.89862e-06
-1.7207e-07
1.64472e-07
5.90622e-06
-3.1583e-06
-3.14069e-05
1.60044e-06
2.84028e-06
-3.90661e-06
3.4031e-05
1.95601e-05
1.38804e-05
0.000212583
-4.31147e-07
2.34384e-06
4.16272e-07
3.42536e-06
3.9364e-05
1.10799e-05
0.000310531
1.17724e-05
-2.49766e-06
0.000423701
7.31561e-06
1.16237e-05
7.22639e-06
-1.36385e-06
6.53718e-07
-1.01153e-06
-0.000119891
1.15749e-05
1.16024e-05
-1.25181e-05
0.000121004
-7.28743e-05
3.1131e-06
-3.1551e-06
-4.72472e-06
7.21843e-05
5.45671e-06
4.56478e-07
1.83336e-06
0.000200636
4.57253e-06
4.16734e-06
5.96738e-06
4.57793e-06
-6.46874e-08
1.74836e-06
2.36123e-07
2.95991e-06
-2.52874e-07
0.000322532
3.84983e-06
5.79684e-06
4.02153e-06
8.39774e-08
3.83409e-08
-9.47558e-08
-8.86972e-05
3.65598e-06
-1.26474e-06
8.67683e-05
-5.85956e-05
5.74153e-06
-5.68983e-06
5.85439e-05
-6.87739e-05
1.26149e-06
2.29353e-06
6.70522e-05
-9.00437e-05
-2.29787e-06
3.39909e-06
-1.96207e-06
9.06517e-05
-4.05822e-05
1.67764e-06
-2.38964e-06
4.12942e-05
2.11345e-07
7.56304e-07
-8.00644e-07
-1.67006e-07
-4.64164e-07
9.9992e-07
-1.48654e-06
9.50784e-07
-1.32985e-06
-6.49877e-07
-1.69981e-06
2.27136e-07
1.20343e-06
2.24897e-06
-4.70125e-07
-1.08144e-05
9.46258e-08
-1.0766e-06
1.88224e-06
1.03842e-05
-1.96161e-05
2.26785e-06
-2.61399e-06
-8.55305e-07
1.91617e-05
1.65592e-06
2.12441e-06
-1.30696e-06
-1.01324e-05
9.00546e-07
-3.34072e-06
1.17552e-05
-6.49005e-07
1.38605e-05
0.000119157
-1.10474e-06
-2.10035e-06
-1.11817e-06
-1.60599e-06
-5.07085e-07
-1.76859e-06
-1.05425e-06
-1.71226e-06
-8.55517e-07
1.47583e-05
0.000181559
-2.73413e-06
-1.5422e-06
-2.01632e-06
-4.54158e-07
-9.10412e-07
-1.53002e-05
0.000320501
1.86525e-07
3.1494e-06
1.16191e-06
3.95859e-06
6.41574e-07
-1.04237e-06
7.57023e-07
-4.70513e-05
9.54676e-06
-1.60119e-05
5.26061e-05
-6.34532e-06
1.3364e-06
-1.71618e-06
6.72511e-06
-2.25702e-06
-3.59343e-05
4.35504e-06
2.19225e-06
-6.06762e-06
3.77116e-05
1.51781e-05
1.19062e-05
0.000191668
1.21351e-08
3.16858e-06
5.07277e-07
4.00356e-06
3.70527e-05
1.03406e-05
0.000293074
9.98839e-06
-2.82394e-06
0.000417274
6.85057e-06
9.95755e-06
6.92835e-06
-1.60246e-06
1.64398e-07
-1.28381e-06
-0.000122447
1.19347e-05
9.72597e-06
-1.1705e-05
0.00012248
-7.15987e-05
3.17074e-06
-3.61832e-06
-4.91064e-06
7.05973e-05
6.35954e-06
-2.63938e-06
1.61599e-06
0.000190531
5.34119e-06
4.792e-06
6.60011e-06
5.34496e-06
-2.11596e-07
1.3539e-06
-1.85976e-07
2.46737e-06
-4.90941e-07
0.000316513
3.5706e-06
5.34051e-06
3.94339e-06
-4.22198e-07
-1.38854e-07
-5.49208e-07
-9.01021e-05
3.32123e-06
-1.39939e-06
8.78237e-05
-5.86071e-05
5.44192e-06
-5.48738e-06
5.86526e-05
-6.5205e-05
2.31407e-06
9.11062e-07
6.35959e-05
-9.11312e-05
-1.73557e-06
3.04052e-06
-1.281e-06
9.06164e-05
-4.20068e-05
1.71357e-06
-2.31869e-06
4.26119e-05
4.49915e-08
5.03414e-07
-7.5428e-07
2.05874e-07
-1.54407e-06
9.4232e-07
-1.7797e-06
2.38145e-06
-1.08143e-06
-1.09192e-06
-2.83647e-06
6.43078e-07
6.09309e-07
3.75743e-06
-3.97248e-07
-1.00258e-05
-4.35149e-07
-7.11889e-07
1.72258e-06
9.8475e-06
-1.9182e-05
2.95323e-06
-4.13812e-06
-1.25908e-06
1.97779e-05
1.84802e-06
3.30136e-06
-9.53577e-07
-1.31726e-05
9.24353e-07
-5.04987e-06
1.49503e-05
1.79418e-06
4.09419e-06
0.000122427
-1.43366e-07
-1.33601e-06
-9.83819e-08
-8.94548e-07
-9.54674e-07
-2.36266e-06
-1.41167e-06
-1.95703e-06
-4.32872e-07
1.36909e-05
0.000175058
-2.37224e-06
-9.64437e-07
-1.7645e-06
1.38292e-07
-8.5189e-07
-1.74652e-05
0.000327763
3.88062e-07
4.71847e-06
1.53371e-06
5.27879e-06
-1.36359e-07
-1.13295e-06
-2.74065e-08
-5.72892e-05
1.05108e-05
-1.60611e-05
6.19876e-05
-6.64703e-06
2.23008e-06
-1.90771e-06
6.32337e-06
-2.5195e-06
-3.91236e-05
6.43903e-06
2.70896e-06
-7.6253e-06
4.01204e-05
1.38933e-05
-6.48769e-07
0.000177563
-6.46974e-07
2.49753e-06
1.57325e-07
2.94722e-06
3.47152e-05
1.04233e-05
0.00027552
8.76791e-06
-3.49201e-06
0.000411241
6.6483e-06
8.99967e-06
6.76612e-06
-2.05658e-06
-5.66841e-07
-1.78372e-06
-0.000122848
1.1835e-05
8.66482e-06
-1.13423e-05
0.000122458
-6.96286e-05
3.80984e-06
-3.82088e-06
-6.03798e-06
6.84588e-05
7.21874e-06
-3.52207e-06
3.55046e-07
0.000175976
4.61268e-06
5.18325e-06
4.86317e-06
5.18186e-06
-1.69278e-06
4.18027e-07
-1.49283e-06
2.21498e-06
-2.55026e-07
0.000308857
3.80057e-06
5.40227e-06
4.38679e-06
-4.81853e-07
2.82107e-08
-5.38717e-07
-9.0749e-05
3.10942e-06
-1.8488e-06
8.82114e-05
-5.88171e-05
5.13415e-06
-5.22492e-06
5.89078e-05
-6.23277e-05
2.44511e-06
4.46792e-07
5.97909e-05
-9.00428e-05
-1.54182e-06
2.94675e-06
-8.7325e-07
8.92561e-05
-4.31485e-05
1.93018e-06
-2.37228e-06
4.35906e-05
-5.50053e-07
2.93989e-07
-6.82096e-07
9.38161e-07
-3.24701e-06
1.04102e-06
-1.99036e-06
4.19635e-06
-7.78103e-07
-1.3685e-06
-4.78905e-06
8.36358e-07
-2.20812e-07
6.32011e-06
-3.54821e-07
-9.72612e-06
-6.45289e-07
-7.76238e-07
1.74154e-06
9.76092e-06
-2.06832e-05
3.6981e-06
-5.54839e-06
-1.89444e-06
2.20103e-05
2.41768e-06
4.25834e-06
-8.80854e-07
-1.67137e-05
1.09648e-06
-6.76524e-06
1.9005e-05
3.01984e-06
-7.75358e-06
0.000132622
1.03002e-06
-2.93981e-07
1.17763e-06
1.75753e-07
-1.2578e-06
-2.65223e-06
-1.46716e-06
-2.1739e-06
-1.00875e-06
1.13802e-05
0.000171682
-2.23371e-06
-4.57528e-07
-1.74141e-06
4.56693e-07
-1.12862e-06
-2.01802e-05
0.000335049
9.82893e-07
5.93681e-06
2.42565e-06
6.34782e-06
-6.938e-07
-1.43616e-06
-5.48695e-07
-6.58706e-05
1.10342e-05
-1.58518e-05
6.95595e-05
-5.96601e-06
2.96349e-06
-2.67191e-06
5.67443e-06
-1.86834e-06
-4.05811e-05
8.50866e-06
2.5279e-06
-9.14809e-06
4.05609e-05
1.46737e-05
-1.55598e-05
0.000169523
-1.11238e-06
1.15529e-06
-3.3869e-07
1.46798e-06
3.18997e-05
7.88768e-06
0.000261786
7.89631e-06
-4.23289e-06
0.000404265
6.46892e-06
8.21018e-06
6.59325e-06
-2.61796e-06
-1.2955e-06
-2.32648e-06
-0.000122768
1.16596e-05
7.82796e-06
-1.12396e-05
0.000122416
-6.65319e-05
3.68173e-06
-2.12607e-06
-5.64892e-06
6.31704e-05
7.45484e-06
1.6735e-06
-1.16724e-06
0.000158827
1.86641e-06
3.04766e-06
2.55452e-06
3.34197e-06
-3.18362e-06
-2.76626e-06
-3.77826e-06
2.28513e-06
-6.55413e-08
0.000301863
4.18679e-06
5.59634e-06
4.81074e-06
-5.7221e-07
7.27396e-07
-4.14388e-07
-9.11461e-05
2.90713e-06
-2.3228e-06
8.86141e-05
-5.90274e-05
4.98442e-06
-4.99986e-06
5.90428e-05
-5.74414e-05
2.15176e-06
-7.63057e-07
5.48855e-05
-8.84229e-05
-8.40835e-07
3.02286e-06
-4.1292e-07
8.65882e-05
-4.40156e-05
2.27806e-06
-2.60747e-06
4.4345e-05
-1.41642e-06
3.62499e-07
-1.01254e-06
2.06646e-06
-5.05316e-06
1.02012e-06
-1.77533e-06
5.80837e-06
-3.67662e-07
-1.39566e-06
-7.78754e-06
1.20269e-06
-1.05365e-06
9.40183e-06
-2.49952e-07
-9.96285e-06
-9.64776e-07
-1.08376e-06
1.86634e-06
1.0395e-05
-2.35123e-05
4.40248e-06
-6.54509e-06
-2.77428e-06
2.53016e-05
3.12752e-06
4.07273e-06
-7.58789e-07
-2.12395e-05
1.18177e-06
-6.89238e-06
2.36362e-05
2.63149e-06
-1.28818e-05
0.0001455
2.10343e-06
4.01462e-07
2.21549e-06
1.02683e-06
-1.33288e-06
-2.9218e-06
-1.4167e-06
-2.70291e-06
-1.77671e-06
9.02945e-06
0.000170634
-2.23737e-06
-1.17025e-07
-1.75711e-06
5.3784e-07
-1.4196e-06
-2.21341e-05
0.000341631
1.86635e-06
6.6797e-06
3.5061e-06
6.91159e-06
-1.15525e-06
-1.69658e-06
-9.17292e-07
-7.24717e-05
1.12777e-05
-1.54263e-05
7.52008e-05
-5.56237e-06
3.81285e-06
-3.71037e-06
5.45989e-06
-1.87931e-06
-4.07006e-05
9.02536e-06
2.59356e-06
-1.00064e-05
4.09674e-05
1.59616e-05
-2.28849e-05
0.000167779
-1.9063e-06
-8.66128e-07
-1.24459e-06
-1.96947e-07
2.98862e-05
5.7486e-06
0.000251143
7.17019e-06
-4.82211e-06
0.000397163
6.27508e-06
7.50384e-06
6.38503e-06
-3.11018e-06
-1.72981e-06
-2.81758e-06
-0.000122801
1.13466e-05
7.09132e-06
-1.09851e-05
0.000122518
-5.90207e-05
5.42451e-06
-1.55464e-06
-8.77351e-06
5.4257e-05
9.66733e-06
5.8568e-06
-5.89007e-06
0.000153262
-5.38075e-07
1.74672e-06
-1.89276e-07
1.88283e-07
-5.87334e-06
-6.7194e-06
-5.90081e-06
2.475e-06
8.70678e-08
0.000297618
4.47236e-06
5.61976e-06
4.9554e-06
-7.63699e-07