/*--------------------------------*- C++ -*----------------------------------*\
| =========                 |                                                 |
| \\      /  F ield         | OpenFOAM: The Open Source CFD Toolbox           |
|  \\    /   O peration     | Version:  5.x                                   |
|   \\  /    A nd           | Web:      www.OpenFOAM.org                      |
|    \\/     M anipulation  |                                                 |
\*---------------------------------------------------------------------------*/
FoamFile
{
    version     2.0;
    format      ascii;
    class       volVectorField;
    location    "5";
    object      U;
}
// * * * * * * * * * * * * * * * * * * * * * * * * * * * * * * * * * * * * * //

dimensions      [0 1 -1 0 0 0 0];

internalField   nonuniform List<vector> 
10571
(
(0.050343 0.434874 0.846085)
(-0.0496004 0.143249 0.855896)
(0.521771 0.392492 2.04122)
(0.504765 1.40112 4.28171)
(-0.185234 0.410785 1.50478)
(-0.282641 0.485899 3.69081)
(0.297047 0.802992 2.90818)
(0.75287 1.28998 3.34567)
(0.00130794 0.773929 2.99504)
(-0.0274878 0.319533 2.55616)
(0.168557 -0.175696 1.14838)
(1.12059 -0.277016 3.46509)
(0.567137 0.551089 3.80864)
(-0.236016 0.296978 2.70461)
(-0.90604 -0.387243 2.92554)
(0.619394 -0.552742 2.53735)
(0.294475 -0.211003 1.09913)
(1.2784 -0.387791 3.43472)
(-0.650196 -0.205383 2.86899)
(-1.15956 -0.782815 2.64605)
(0.0788414 -0.180456 1.13083)
(0.180874 -0.131211 1.83154)
(-0.664657 0.387271 2.56504)
(-0.389353 -0.0988525 0.767875)
(-0.0234205 0.00592627 0.0538114)
(0.0608452 -0.0806796 -0.111216)
(0.132188 1.38963 2.07869)
(0.326049 0.938131 2.716)
(-0.0661119 -0.0499434 0.134135)
(0.331369 0.693337 2.4925)
(-0.128353 1.06968 3.4726)
(-0.506961 0.33101 3.76901)
(0.132523 0.681947 2.58902)
(0.0672709 0.153924 2.49394)
(0.12152 0.250328 0.677115)
(0.560173 0.363035 1.94367)
(-0.799132 0.789746 4.79561)
(-0.2251 0.326907 2.4728)
(0.110289 0.363142 1.03217)
(0.0454832 0.560377 3.13009)
(0.159576 0.107315 0.404996)
(-0.376606 0.701455 3.97827)
(-0.30551 0.732584 2.68752)
(0.163377 0.129313 0.90192)
(-0.149532 0.25253 0.494657)
(-0.0607695 0.461701 1.77491)
(0.115946 0.696474 2.71559)
(-0.0883576 0.0702987 0.203643)
(-0.0254539 -0.000137295 -0.038293)
(-0.00203251 -0.00165821 -0.0737339)
(-0.233009 -0.0628357 0.894649)
(0.149848 0.719225 2.57515)
(0.191569 -0.177185 0.517974)
(0.629967 0.792309 2.29626)
(-0.693093 1.37323 3.22291)
(-0.247714 0.784676 3.17094)
(0.354794 1.4007 3.19031)
(0.199878 0.441002 2.39465)
(0.0116636 0.283223 0.125001)
(0.554896 0.744199 2.08949)
(-0.477797 0.983422 4.61015)
(0.382701 0.66881 2.21624)
(0.380514 1.3276 2.79122)
(-0.662062 1.46493 3.33104)
(0.0585351 0.000782597 0.671875)
(-0.0589732 0.756572 3.79223)
(0.488969 0.44912 2.55384)
(0.183262 0.252605 1.08617)
(-0.249188 0.86617 1.65438)
(0.276272 0.506537 2.52131)
(0.605802 0.397139 3.49621)
(1.17736 -0.312862 1.22065)
(-0.004239 -0.00973421 -0.0246055)
(-0.0263979 0.0147119 -0.0251306)
(-0.581348 -0.11028 0.757151)
(0.322177 -0.0189462 1.91065)
(0.742801 0.0940214 0.704547)
(0.412576 0.693332 1.63464)
(-0.850825 2.12105 3.86021)
(0.612597 1.57709 3.40861)
(0.265216 0.714995 1.37621)
(-0.217019 0.274823 1.13899)
(-0.00123069 0.156826 -0.0115083)
(0.756076 1.17606 2.8758)
(-0.167345 1.2839 5.09354)
(0.738715 1.35575 2.7737)
(0.120692 1.22499 3.27805)
(-0.861498 1.89223 2.91011)
(0.027249 0.243347 1.07379)
(0.438744 0.501254 3.85405)
(0.649596 -0.181979 2.6897)
(0.511074 -0.432719 2.33149)
(-0.585782 1.31302 3.47636)
(0.0979139 0.260632 2.78873)
(0.966617 -0.380038 4.16214)
(0.96866 -0.442065 1.34988)
(0.016842 -0.0227026 0.208692)
(-0.0305172 0.00680523 0.12033)
(-0.0302517 0.0289949 0.294065)
(-0.0899296 -0.149592 0.471245)
(0.350148 0.28609 0.90343)
(-0.135758 -0.0519572 0.575121)
(0.0167664 0.844585 2.34805)
(0.428055 0.637459 1.39001)
(0.824087 0.549835 2.77548)
(-0.0183162 -0.044754 1.16463)
(0.000689854 0.0898077 0.0557496)
(0.368082 1.62821 3.47718)
(0.651292 1.77076 5.227)
(0.870714 1.10144 3.05053)
(0.38487 0.433053 4.14153)
(-0.0744517 0.0688884 1.67449)
(-0.297648 0.662826 1.45216)
(0.705977 0.615975 4.21624)
(1.14845 -0.386421 3.72066)
(0.60855 -0.75151 3.35513)
(-0.234092 0.402943 3.12309)
(-0.246468 0.067999 2.60877)
(0.933801 -0.63909 3.51951)
(0.397726 -0.0395654 0.97944)
(0.028719 -0.00130648 0.216546)
(0.0205669 -0.0200113 0.0771276)
(0.0808797 0.0493646 0.302387)
(-0.00446522 0.052376 0.387779)
(0.00496381 0.0253047 0.44425)
(-0.165802 -0.226218 0.399179)
(0.420541 -0.208472 1.24157)
(0.484297 0.0739402 2.55414)
(0.488438 0.183265 2.82387)
(-0.341561 -0.624129 1.39461)
(-0.0131854 0.0101281 -0.00544453)
(-0.303 -0.0433901 0.450918)
(-1.20859 1.66511 3.59333)
(1.70134 0.972128 5.59486)
(1.40285 0.228654 3.65473)
(0.873224 -0.208942 4.43306)
(0.196884 -0.23967 1.79194)
(0.00246522 -0.00424057 -0.0016268)
(-0.7559 1.03366 2.13068)
(0.717514 0.851581 3.81484)
(1.10649 -0.0666654 3.29796)
(1.07414 -0.526284 3.82743)
(0.39362 0.00972598 4.32809)
(-0.0111712 0.31845 2.77048)
(0.536339 0.0690791 2.40386)
(0.418503 0.216946 1.67463)
(-0.0491777 -0.011612 0.0113199)
(0.00467451 -0.00760427 0.00822863)
(0.0973295 0.0636039 0.272712)
(-0.0240146 0.0352869 0.0877078)
(-0.357437 -0.168493 0.137616)
(-0.0252294 0.0335809 0.543948)
(0.441279 -0.555323 1.98145)
(0.200828 -0.0338558 2.0458)
(0.210172 -0.0866092 2.83104)
(-0.369093 -0.263691 0.773823)
(-0.748192 0.369245 0.0466891)
(-0.15021 -0.314904 1.94816)
(-0.650236 0.0350935 1.56192)
(0.949925 0.395735 3.4751)
(1.37777 0.190963 3.64606)
(1.00094 -0.113205 4.52797)
(0.81789 -0.299144 2.76457)
(-0.47912 0.312803 0.00589746)
(-1.0117 0.341981 2.61929)
(0.396004 0.555532 2.68373)
(1.0096 0.0464175 3.42239)
(0.743556 -0.00972141 3.24922)
(0.945635 -0.240211 4.89651)
(-0.997471 -0.0651076 -0.141672)
(0.685713 0.653544 3.43261)
(0.493949 0.148496 2.77332)
(0.37637 0.00839839 3.06642)
(-0.132071 -0.00399952 0.0213493)
(0.0363291 -0.0743038 -0.0701001)
(0.0356612 0.0758609 0.0711058)
(-0.0761048 0.0700148 0.252581)
(-0.517877 -0.350214 0.627533)
(0.118726 0.0277926 0.245065)
(0.390647 -0.120129 1.39087)
(0.00481121 0.0565181 1.91161)
(0.145509 -0.115543 2.97685)
(-0.494448 -0.149785 0.753866)
(-0.767507 -0.00505128 -0.563346)
(-0.0438562 -0.38084 1.81993)
(0.151417 0.324796 0.955874)
(0.74721 0.522089 3.49967)
(1.14998 0.294032 3.76997)
(0.927349 -0.10929 4.63468)
(1.03323 -0.279771 3.56435)
(-0.485764 0.263683 0.456199)
(-0.416039 -0.0672496 2.80041)
(0.349293 0.193949 2.93903)
(0.636672 -0.0772636 3.58104)
(0.548954 -0.0382926 3.38525)
(0.792045 -0.343847 4.74936)
(0.96164 0.271488 0.779065)
(0.642916 0.624707 3.83735)
(0.505275 0.0347109 2.95322)
(0.30329 -0.0272942 3.42341)
(-0.179481 -0.0172456 0.0510521)
(0.0836212 -0.0636318 -0.0421979)
(-0.0270197 0.110199 0.0410835)
(-0.176736 0.0829087 0.41914)
(-0.492373 -0.341922 0.89307)
(0.234517 0.0952429 0.22392)
(0.347176 0.163303 1.34589)
(-0.0817257 0.0755408 2.01848)
(0.158042 -0.185371 3.13436)
(-0.669633 -0.0775092 0.61914)
(-0.115661 -1.23812 -1.28265)
(-0.0268522 -0.268898 1.71028)
(0.128936 0.498349 0.934333)
(0.687056 0.573088 3.04041)
(1.01251 0.337935 3.58725)
(0.865882 -0.13983 4.61257)
(1.01802 -0.416161 4.14904)
(0.663001 -1.26115 0.71425)
(-0.338419 -0.187487 2.81081)
(0.320939 0.059957 2.47722)
(0.517709 -0.0933996 3.36818)
(0.357445 -0.0874418 3.43089)
(0.441266 -0.506369 4.96416)
(0.51041 0.322698 3.81703)
(0.409412 -0.0579048 3.23452)
(0.263655 -0.0767204 3.46824)
(-0.180936 -0.00599341 0.0456512)
(0.11415 -0.0772193 -0.0263933)
(-0.0473817 0.131511 0.0572563)
(-0.262053 0.0808733 0.513471)
(-0.395396 -0.198454 0.954691)
(0.243499 0.0716007 0.231739)
(0.271775 0.153287 1.32534)
(-0.168046 0.0608931 2.03732)
(0.108471 -0.259804 3.11012)
(-0.848141 -0.865309 0.727247)
(0.0373755 -0.12054 1.51474)
(0.224027 0.418616 0.924251)
(0.457442 0.509559 2.54759)
(0.860045 0.362786 3.41952)
(0.845263 -0.152062 4.58423)
(0.461579 -0.5228 4.48219)
(-0.343041 -0.295899 2.87541)
(0.0495003 -0.044845 2.23251)
(0.471397 0.00310617 3.36014)
(0.336704 -0.0811628 3.58051)
(0.40655 -0.475243 5.31464)
(0.407881 0.235595 3.7195)
(0.359098 -0.00177952 3.34729)
(0.226303 -0.069181 3.52321)
(-0.158004 -0.00989441 -0.0134775)
(0.080911 -0.0753003 -0.0308369)
(-0.0551063 0.150963 0.0588152)
(-0.249412 0.0892943 0.539409)
(-0.213553 -0.101758 0.902727)
(0.217427 -0.00748409 0.291699)
(0.160207 0.154642 1.25059)
(-0.184371 0.0798968 2.00529)
(0.10088 -0.288057 3.19097)
(-0.393036 -0.920093 1.40165)
(0.111954 0.093697 1.08183)
(0.361195 0.114185 1.20622)
(0.225868 0.428797 2.43943)
(0.713454 0.385551 3.34982)
(0.852338 -0.135237 4.55264)
(0.743575 -0.619592 4.69142)
(-0.286658 -0.317828 2.86862)
(-0.224474 -0.0215101 2.27248)
(0.41829 0.0375643 3.45083)
(0.34165 -0.0517403 3.72718)
(0.402533 -0.458747 5.29765)
(0.246842 0.215313 3.57566)
(0.310858 0.0258648 3.45386)
(0.224593 -0.0510877 3.59801)
(-0.133975 -0.00491652 -0.0311696)
(0.0659431 -0.0733532 0.00188184)
(-0.0285989 0.145487 0.0602347)
(-0.133618 0.0956931 0.504979)
(-0.128237 -0.115596 0.816523)
(0.154289 -0.0610093 0.355479)
(0.0968025 0.141457 1.21245)
(-0.174977 0.106747 1.93933)
(0.0917797 -0.303829 3.28086)
(-0.166044 -0.917132 1.96696)
(-0.0210041 0.10433 0.815767)
(0.350702 -0.0917817 1.45106)
(0.0292186 0.438165 2.29309)
(0.60359 0.400193 3.27868)
(0.818793 -0.136811 4.51816)
(0.63953 -0.621086 4.74748)
(-0.208502 -0.333269 2.84179)
(-0.369696 0.0548211 2.18787)
(0.382342 0.00870083 3.46069)
(0.315055 -0.0295276 3.82177)
(0.391637 -0.427941 5.32252)
(0.0680904 0.193609 3.44458)
(0.269005 0.026899 3.56141)
(0.249841 -0.0452863 3.73124)
(-0.112353 0.0021949 -0.0285151)
(0.0531634 -0.0816376 0.0514924)
(0.0372207 0.121062 0.0884247)
(-0.0189395 0.104616 0.470059)
(-0.116285 -0.16319 0.75394)
(0.109967 -0.199298 0.483141)
(0.0991579 0.097676 1.19292)
(-0.115446 0.0958601 1.85888)
(0.074192 -0.333922 3.35839)
(-0.0624456 -0.957599 2.52741)
(-0.068104 -0.134545 0.954867)
(0.289558 -0.336135 1.62702)
(-0.0490675 0.398803 2.04361)
(0.532426 0.434039 3.10301)
(0.780679 -0.155102 4.46492)
(0.50265 -0.596443 4.79347)
(-0.201249 -0.351054 2.78389)
(-0.453932 0.006492 2.0694)
(0.34524 -0.0362519 3.40604)
(0.273961 -0.0481974 3.87849)
(0.374328 -0.388235 5.35282)
(-0.0394814 0.191503 3.24872)
(0.212756 0.0237435 3.57816)
(0.259021 -0.0477239 3.86121)
(-0.0850756 0.00507793 0.00651454)
(0.0372254 -0.0850508 0.14757)
(0.0806599 0.0962828 0.149309)
(0.0358797 0.101027 0.434581)
(-0.154996 -0.204488 0.760512)
(0.0874671 -0.321206 0.616872)
(0.126607 0.0270198 1.1947)
(-0.05374 0.0689529 1.7895)
(0.031636 -0.368462 3.42681)
(-0.0329862 -0.98341 3.03568)
(-0.0719094 -0.267346 0.903943)
(0.294936 -0.509861 1.74912)
(-0.0327955 0.129894 1.83134)
(0.473309 0.41212 2.85528)
(0.744041 -0.198294 4.3979)
(0.423383 -0.600689 4.82476)
(-0.252712 -0.378315 2.70468)
(-0.423666 -0.147163 1.94692)
(0.306309 -0.00401897 3.30654)
(0.248729 -0.0986712 3.89933)
(0.360295 -0.356479 5.37217)
(-0.0584518 0.124991 3.09857)
(0.188707 0.0239404 3.52299)
(0.266811 -0.0637687 3.95459)
(-0.0654707 0.00751156 0.103705)
(0.0404996 -0.0881017 0.272021)
(0.102094 0.0559316 0.248668)
(0.057453 0.0986995 0.427243)
(-0.215942 -0.238252 0.834101)
(0.0891293 -0.427655 0.78693)
(0.155964 -0.0653087 1.27265)
(-0.0392994 0.0444018 1.7367)
(-0.00594451 -0.410532 3.49784)
(-0.0370594 -0.988478 3.43926)
(-0.0923811 -0.383792 0.834634)
(0.263588 -0.689031 1.79364)
(0.0348282 -0.17178 1.71341)
(0.431328 0.337034 2.69581)
(0.688776 -0.253753 4.3028)
(0.370423 -0.624395 4.83228)
(-0.171553 -0.343841 2.54408)
(-0.181835 -0.39478 1.75646)
(0.261931 -0.0119237 3.17527)
(0.249003 -0.158525 3.91098)
(0.341698 -0.337698 5.37785)
(-0.0959026 0.0973965 2.83705)
(0.17959 0.0369935 3.45654)
(0.287574 -0.0808486 4.02644)
(-0.0814742 -0.00853597 0.236886)
(0.0429343 -0.0742834 0.398731)
(0.108386 0.00656121 0.38536)
(0.0571332 0.0965639 0.447261)
(-0.278392 -0.272051 0.951485)
(0.0911643 -0.419473 0.981757)
(0.162163 -0.122986 1.3839)
(-0.0622823 0.014298 1.71543)
(-0.0131686 -0.439021 3.56786)
(-0.0589584 -0.974639 3.74276)
(-0.114859 -0.543821 0.808189)
(0.253737 -0.737595 1.79468)
(0.106596 -0.30091 1.68427)
(0.410953 0.296731 2.60027)
(0.635512 -0.297923 4.22128)
(0.329384 -0.63419 4.83002)
(-0.235157 -0.617214 2.23505)
(-0.00121671 -0.518583 1.62683)
(0.246254 -0.0575383 3.12997)
(0.27343 -0.204058 3.93561)
(0.322478 -0.328571 5.38697)
(0.017775 -0.304206 2.45629)
(0.173033 0.0773426 3.27778)
(0.310116 -0.10307 4.07961)
(-0.171973 -0.03843 0.476085)
(0.0397937 -0.0511658 0.486671)
(0.0926841 -0.0281537 0.506069)
(0.0683931 0.0765969 0.497548)
(-0.332597 -0.298131 1.09089)
(0.0497128 -0.312873 1.18217)
(0.134706 -0.135296 1.51789)
(-0.104394 0.00743222 1.70192)
(-0.00660313 -0.436964 3.62764)
(-0.089207 -0.934508 3.96944)
(-0.0621162 -0.492906 0.711896)
(0.378633 -0.678119 1.84662)
(0.139998 -0.286792 1.68987)
(0.397429 0.298613 2.47462)
(0.596402 -0.297889 4.14647)
(0.306016 -0.62265 4.83466)
(-0.24376 -0.790867 1.83698)
(-0.0243707 -0.486429 1.57743)
(0.242273 -0.0536199 3.12577)
(0.288908 -0.220927 3.95947)
(0.311931 -0.321271 5.40107)
(0.365477 -0.310307 1.50034)
(0.322444 -0.033271 3.20747)
(0.350039 -0.135755 4.11768)
(-0.239904 -0.046884 0.693173)
(0.0371044 -0.0474117 0.557961)
(0.0655508 -0.033173 0.584442)
(0.0903504 0.0643046 0.563)
(-0.37132 -0.319127 1.22071)
(-0.0954821 -0.12341 1.33992)
(0.0762835 -0.0554822 1.62098)
(-0.145939 0.0550671 1.69545)
(-0.00669492 -0.404063 3.66535)
(-0.116011 -0.86987 4.13375)
(0.0541754 0.164949 0.450685)
(0.686011 -0.409992 1.68778)
(0.210017 -0.191813 1.77467)
(0.379128 0.291775 2.3974)
(0.550278 -0.274142 4.104)
(0.298097 -0.596812 4.84763)
(-0.0899722 -0.372741 1.85002)
(-0.125293 -0.255577 1.4384)
(0.231654 -0.0361831 3.1068)
(0.300787 -0.226662 3.99485)
(0.304163 -0.317437 5.41707)
(0.213092 -0.0273824 1.02829)
(0.346499 -0.0521059 3.16168)
(0.374888 -0.163987 4.1771)
(-0.28282 -0.0453443 0.865567)
(0.0399893 -0.0475731 0.622607)
(0.0648547 0.0194566 0.63192)
(0.0988005 0.0687593 0.630611)
(-0.405912 -0.330102 1.32617)
(-0.188896 0.0224063 1.4035)
(-0.0161161 0.0980994 1.60665)
(-0.198715 0.139469 1.70817)
(-0.0224069 -0.367596 3.68008)
(-0.132538 -0.798746 4.25561)
(0.0506867 0.411225 0.248424)
(0.308294 0.0359122 1.3713)
(0.19837 -0.102338 1.91769)
(0.318827 0.239438 2.37391)
(0.486787 -0.281216 4.10849)
(0.283061 -0.558467 4.86886)
(0.429729 0.181111 2.03176)
(-0.0806889 -0.0257926 1.38872)
(0.218487 -0.0284144 3.03399)
(0.320433 -0.233436 4.02949)
(0.297413 -0.321587 5.43137)
(0.165047 0.0963454 0.953133)
(0.312392 -0.0248049 2.95607)
(0.389835 -0.181295 4.21343)
(-0.306373 -0.043622 0.997424)
(0.0419656 -0.0391036 0.68164)
(0.0966079 0.0940468 0.675356)
(0.0865693 0.0701887 0.695485)
(-0.415529 -0.343013 1.41333)
(-0.189482 0.059356 1.38741)
(-0.0880888 0.176798 1.52612)
(-0.255201 0.195918 1.72525)
(-0.0647686 -0.341394 3.69033)
(-0.159188 -0.722666 4.33558)
(0.0384794 0.403467 0.234414)
(-0.0625856 0.268661 1.38111)
(0.162028 -0.0415665 1.93217)
(0.246284 0.216497 2.33848)
(0.430697 -0.297542 4.10469)
(0.255732 -0.519988 4.8835)
(0.430717 0.13723 2.07887)
(-0.0320755 0.0920914 1.41088)
(0.189865 0.0408605 2.93079)
(0.349622 -0.230337 4.0576)
(0.287019 -0.33221 5.43628)
(0.1378 0.155489 1.04515)
(0.266272 0.0175222 2.74417)
(0.405172 -0.189084 4.24484)
(-0.306816 -0.0374899 1.09853)
(0.0374704 -0.0312633 0.721307)
(0.111432 0.142261 0.722156)
(0.0742844 0.0840074 0.766091)
(-0.409267 -0.355549 1.4832)
(-0.16 0.035373 1.38497)
(-0.126549 0.153207 1.45519)
(-0.320362 0.210625 1.7497)
(-0.166225 -0.308852 3.71057)
(-0.186852 -0.63198 4.36801)
(0.0163227 0.303861 0.360792)
(-0.206101 0.1711 1.47304)
(0.12314 0.0644282 1.84159)
(0.194514 0.275509 2.26355)
(0.392652 -0.275219 4.08988)
(0.221861 -0.488185 4.89222)
(0.209954 -0.0314058 2.1465)
(-0.0318465 0.148058 1.37982)
(0.173506 0.148393 2.85673)
(0.363586 -0.216483 4.08319)
(0.276258 -0.340031 5.4386)
(0.0642346 0.170089 1.15538)
(0.21479 0.0597607 2.65331)
(0.411945 -0.184932 4.26459)
(-0.292453 -0.0256191 1.15265)
(0.0296214 -0.0400869 0.737755)
(0.110535 0.174025 0.751672)
(0.0350466 0.0949369 0.869675)
(-0.386457 -0.352291 1.54156)
(-0.0708443 -0.0177979 1.39368)
(-0.14423 0.105534 1.39905)
(-0.374723 0.210186 1.76724)
(-0.392382 -0.261852 3.69841)
(-0.221675 -0.511071 4.339)
(0.00220592 0.200913 0.555162)
(-0.236106 0.0922296 1.61215)
(0.0834751 0.196688 1.67381)
(0.141496 0.39357 2.15923)
(0.353222 -0.223582 4.11063)
(0.191354 -0.451064 4.91108)
(0.0231904 -0.0778605 2.19941)
(-0.0524806 0.148719 1.30161)
(0.167522 0.251362 2.7886)
(0.365886 -0.19514 4.10807)
(0.266822 -0.337005 5.43998)
(-0.00779654 0.167934 1.2707)
(0.179871 0.122485 2.67115)
(0.410902 -0.180462 4.29073)
(-0.300152 -0.0157692 1.14048)
(0.0265015 -0.0504063 0.732324)
(0.088648 0.195241 0.782423)
(-0.067431 0.0471964 1.03602)
(-0.362076 -0.342637 1.58995)
(-0.0616566 -0.000535636 1.35833)
(-0.13799 0.0877382 1.36534)
(-0.38752 0.2049 1.76445)
(-0.587542 -0.212267 3.61325)
(-0.325172 -0.377764 4.13559)
(-0.00700365 0.0987934 0.742367)
(-0.217703 0.182456 1.75052)
(0.0723953 0.244129 1.53183)
(0.100791 0.488324 2.08026)
(0.293243 -0.179016 4.15991)
(0.133034 -0.413463 4.93296)
(-0.0312331 0.00123735 2.25979)
(-0.0317939 0.115595 1.24949)
(0.158141 0.30655 2.73132)
(0.357261 -0.169747 4.13784)
(0.25398 -0.326939 5.44332)
(-0.0301871 0.162035 1.37473)
(0.167191 0.201959 2.75617)
(0.407691 -0.178084 4.3336)
(-0.357498 -0.0222655 1.00454)
(0.0278358 -0.0285652 0.717115)
(0.0862229 0.193533 0.848976)
(-0.207273 0.0195168 1.17909)
(-0.339375 -0.31891 1.6309)
(-0.0769902 0.0518158 1.27728)
(-0.117387 0.0918448 1.36209)
(-0.342972 0.184047 1.73485)
(-0.633797 -0.128236 3.45675)
(-0.301915 -0.235424 3.62532)
(-0.0189892 -0.0220968 0.884246)
(-0.200744 0.240057 1.84622)
(0.0618839 0.237581 1.43013)
(0.0795039 0.527885 2.02311)
(0.200511 -0.138451 4.22425)
(0.0459208 -0.362117 4.96341)
(-0.0710068 0.0338053 2.37806)
(0.0202248 0.0848961 1.233)
(0.150441 0.314033 2.70834)
(0.33602 -0.142583 4.16663)
(0.231192 -0.306759 5.45635)
(-0.0319783 0.138851 1.46425)
(0.172059 0.2432 2.86188)
(0.400291 -0.174335 4.38883)
(-0.316531 -0.0426367 0.904926)
(0.0379125 -0.0141571 0.717474)
(0.0680133 0.166943 0.946172)
(-0.304759 0.0562196 1.26237)
(-0.297941 -0.254433 1.66081)
(-0.0738172 0.0423878 1.25233)
(-0.0917293 0.10019 1.38243)
(-0.220771 0.160138 1.67549)
(-0.529018 -0.0353829 3.26037)
(-0.0988244 -0.132484 3.1567)
(-0.028681 -0.136414 0.989309)
(-0.17108 0.223712 1.89073)
(0.0416673 0.209232 1.39308)
(0.0692729 0.502782 1.99222)
(0.0977668 -0.0657227 4.31806)
(-0.0228142 -0.278752 4.99768)
(0.0110407 0.0151763 2.54899)
(0.0820709 0.0774795 1.23077)
(0.149872 0.306442 2.7127)
(0.305946 -0.116483 4.20618)
(0.203286 -0.278615 5.47742)
(-0.0248177 0.0974451 1.53512)
(0.188119 0.261502 2.96129)
(0.395111 -0.170077 4.44775)
(-0.210893 -0.0379046 0.880269)
(0.0545875 -0.0340712 0.74157)
(0.0219982 0.10622 1.03892)
(-0.309844 0.104555 1.2821)
(-0.205609 -0.122792 1.61936)
(-0.0560645 -0.0167139 1.28722)
(-0.0848399 0.115886 1.41465)
(-0.116955 0.14613 1.64367)
(-0.337994 0.0196226 3.05808)
(0.089364 -0.0709241 2.96063)
(-0.034743 -0.196878 1.06641)
(-0.0857672 0.0776515 1.80844)
(0.0246035 0.195099 1.40503)
(0.0547353 0.362842 1.97378)
(0.0294765 0.0197158 4.42653)
(-0.0740232 -0.174276 5.04729)
(0.0176257 -0.0549299 2.66336)
(0.137378 0.0941202 1.24998)
(0.158736 0.262249 2.74824)
(0.267905 -0.0907795 4.27049)
(0.177201 -0.249201 5.51679)
(0.0146809 0.0539907 1.60517)
(0.226074 0.252515 3.03945)
(0.387319 -0.167646 4.50924)
(-0.0808121 -0.0232537 0.896918)
(0.0830313 -0.074341 0.791083)
(0.0392159 0.0546412 1.08757)
(-0.238416 0.137456 1.19559)
(-0.0384021 -0.00831576 1.54969)
(-0.0382651 -0.066034 1.3674)
(-0.102523 0.168028 1.44772)
(-0.0316209 0.160165 1.61066)
(-0.138614 0.0254514 2.91781)
(0.175681 -0.0501496 2.97206)
(-0.0430743 -0.191174 1.15499)
(0.114633 -0.295619 1.58004)
(-0.0101401 0.226758 1.47252)
(0.0344851 0.183758 1.95871)
(0.0106842 0.0601757 4.55162)
(-0.084937 -0.0917335 5.11852)
(-0.0253794 -0.101337 2.4834)
(0.15333 0.126407 1.31033)
(0.154018 0.19453 2.79553)
(0.217566 -0.0652083 4.35254)
(0.159148 -0.221825 5.57594)
(0.0784255 0.052196 1.7011)
(0.275941 0.233139 3.10003)
(0.37568 -0.171928 4.57345)
(0.069301 -0.00845977 0.979085)
(0.120098 -0.113915 0.839233)
(0.112947 0.0173578 1.08777)
(-0.137348 0.148082 1.08173)
(0.0719395 0.0430658 1.46968)
(-0.0135024 -0.0920638 1.43145)
(-0.102711 0.207891 1.43558)
(0.0480779 0.214834 1.56032)
(0.0166627 -0.0299535 2.85689)
(0.215468 -0.0709786 3.13849)
(-0.0272574 -0.152475 1.24249)
(0.117415 -0.287531 1.55372)
(-0.0460536 0.298018 1.56342)
(0.0237817 0.080252 1.9324)
(0.0280179 0.0335483 4.65955)
(-0.0513609 -0.0822689 5.20136)
(0.189322 0.0545595 1.6433)
(0.109419 0.165231 1.43535)
(0.126121 0.167261 2.79609)
(0.16126 -0.0346876 4.41862)
(0.154894 -0.217241 5.63676)
(0.125604 0.0685637 1.84383)
(0.296534 0.224824 3.16254)
(0.360343 -0.176031 4.62898)
(0.165608 0.00329136 1.05947)
(0.146796 -0.155762 0.867492)
(0.160095 -0.0172167 1.05045)
(-0.0520456 0.18675 1.01125)
(0.0953981 0.0765275 1.39256)
(0.0163825 -0.109672 1.42676)
(-0.070539 0.221171 1.3864)
(0.115104 0.260531 1.50404)
(0.114643 -0.139014 2.86164)
(0.20191 -0.146849 3.38166)
(-0.0071711 -0.103292 1.25366)
(-0.0221026 -0.107383 1.59148)
(-0.0275584 0.352317 1.6021)
(0.0337282 0.0506387 1.90808)
(0.0791956 -0.0426375 4.70551)
(0.0200196 -0.159076 5.28203)
(0.165758 0.187022 1.05563)
(0.0362907 0.192117 1.57406)
(0.0917701 0.177743 2.76535)
(0.150488 -0.0254039 4.4435)
(0.163989 -0.238076 5.6746)
(0.121781 0.0766946 2.00997)
(0.274627 0.216753 3.22144)
(0.344639 -0.179267 4.67778)
(0.201833 0.0105482 1.09081)
(0.163197 -0.178837 0.873407)
(0.171052 -0.039549 0.989387)
(-0.015711 0.24247 0.949329)
(0.0565986 0.0871579 1.36886)
(0.0353496 -0.125473 1.37708)
(0.00527102 0.236904 1.30554)
(0.160883 0.291059 1.45371)
(0.148136 -0.267474 2.91079)
(0.169417 -0.283713 3.6666)
(-0.00284944 -0.061909 1.23745)
(-0.0647908 -0.0479961 1.49069)
(0.0403258 0.413282 1.60972)
(0.0655554 0.0760597 1.87869)
(0.160519 -0.128128 4.66807)
(0.0889456 -0.28508 5.34399)
(0.144742 0.231915 0.85153)
(-0.039767 0.224477 1.72754)
(0.056541 0.258108 2.69354)
(0.157568 -0.0232027 4.42706)
(0.178538 -0.271212 5.68702)
(0.0944037 0.0817012 2.18835)
(0.215351 0.209823 3.2626)
(0.336668 -0.184241 4.70112)
(0.203239 0.0146363 1.07231)
(0.170195 -0.185733 0.857687)
(0.154046 -0.0439408 0.933605)
(-0.0297491 0.286859 0.888995)
(-0.033599 0.06199 1.44019)
(0.046653 -0.118966 1.29472)
(0.0777374 0.278324 1.21994)
(0.171994 0.32049 1.41418)
(0.116081 -0.373238 2.98171)
(0.121573 -0.436965 3.99238)
(0.0115919 -0.00318952 1.19412)
(-0.0436604 0.0726414 1.25549)
(0.139088 0.509628 1.59363)
(0.149118 0.174734 1.82584)
(0.197595 -0.188703 4.58155)
(0.134869 -0.407855 5.39208)
(0.136977 0.267617 0.7886)
(-0.084508 0.296491 1.88331)
(0.0591431 0.379085 2.6245)
(0.177877 -0.021164 4.3632)
(0.193864 -0.312155 5.6746)
(0.0314098 0.105838 2.40409)
(0.142998 0.206225 3.30024)
(0.33583 -0.187774 4.69947)
(0.171267 0.0175237 0.985656)
(0.168499 -0.184852 0.815561)
(0.111145 -0.0166258 0.880614)
(-0.077651 0.306487 0.824156)
(-0.125964 0.0353317 1.56961)
(0.0551291 -0.0809875 1.17667)
(0.114459 0.355561 1.12043)
(0.143783 0.352747 1.39049)
(0.0314294 -0.471605 3.07648)
(0.0582084 -0.55893 4.30837)
(0.0255178 0.0605285 1.06645)
(0.000388803 0.168079 0.979944)
(0.234865 0.631173 1.5461)
(0.217304 0.279956 1.79468)
(0.124662 -0.228066 4.51818)
(0.147913 -0.499353 5.41225)
(0.142731 0.289555 0.789535)
(-0.0893994 0.401522 2.03989)
(0.0732487 0.508204 2.59527)
(0.185429 0.00320285 4.27644)
(0.211552 -0.367969 5.64133)
(-0.0724089 0.152216 2.69797)
(0.094984 0.229405 3.32362)
(0.33784 -0.184628 4.68285)
(0.133146 0.0132649 0.867243)
(0.15432 -0.175625 0.752488)
(0.0380276 0.0388588 0.820807)
(-0.144907 0.309579 0.759514)
(-0.199234 0.0165116 1.70449)
(0.0470091 -0.0300181 1.02491)
(0.111507 0.44822 1.01474)
(0.0755709 0.364256 1.391)
(-0.0417681 -0.585517 3.17688)
(0.00628491 -0.638569 4.56974)
(0.0344406 0.135546 0.903886)
(0.044221 0.204917 0.760919)
(0.29183 0.727115 1.46413)
(0.249846 0.358032 1.80946)
(-0.0855944 -0.285923 4.36991)
(0.150569 -0.549187 5.36359)
(0.162607 0.288857 0.86986)
(-0.107233 0.4963 2.22371)
(0.0668929 0.636724 2.61222)
(0.155985 0.0634081 4.1902)
(0.217918 -0.417839 5.5718)
(-0.187016 0.17135 3.06309)
(0.0467137 0.269413 3.36107)
(0.333614 -0.158929 4.67601)
(0.0937689 0.0053987 0.750572)
(0.138334 -0.1594 0.676473)
(-0.0551802 0.0987517 0.761418)
(-0.221 0.286699 0.695231)
(-0.255567 -0.00859319 1.80642)
(0.018946 0.0175819 0.859405)
(0.0875359 0.509981 0.9156)
(-0.0325656 0.342753 1.39334)
(-0.0514203 -0.665881 3.28918)
(-0.0352691 -0.720549 4.79458)
(0.0349114 0.187612 0.72769)
(0.0746677 0.237817 0.582047)
(0.304571 0.746381 1.37636)
(0.292515 0.400956 1.84653)
(-0.157503 -0.284194 4.04385)
(0.23785 -0.561162 5.22763)
(0.151592 0.25757 1.05724)
(-0.152286 0.524059 2.44054)
(0.0599455 0.720912 2.65137)
(0.0754913 0.183384 4.09166)
(0.210253 -0.417489 5.46208)
(-0.291867 0.19321 3.45972)
(-0.0346732 0.337038 3.46224)
(0.288632 -0.112775 4.69549)
(0.053766 -0.00524884 0.664811)
(0.122792 -0.150842 0.606614)
(-0.145767 0.132766 0.71296)
(-0.299633 0.236044 0.642475)
(-0.30079 -0.0474886 1.85859)
(-0.0222298 0.0329275 0.708771)
(0.0514386 0.498776 0.841652)
(-0.123394 0.310939 1.36755)
(-0.0669731 -0.622909 3.40134)
(-0.0736508 -0.761949 4.96572)
(0.0383711 0.194434 0.5164)
(0.115099 0.241681 0.440271)
(0.293332 0.654965 1.32077)
(0.370116 0.388114 1.84132)
(-0.0396587 -0.17378 3.61215)
(0.36341 -0.549371 5.08173)
(0.0914992 0.152041 1.31806)
(-0.157571 0.395787 2.69026)
(0.0789957 0.733932 2.69159)
(-0.014652 0.396912 3.96254)
(0.18925 -0.329957 5.40005)
(-0.374833 0.151086 3.85109)
(-0.108293 0.408846 3.63765)
(0.17978 -0.0418326 4.77746)
(0.0200349 -0.0183222 0.631918)
(0.11308 -0.149992 0.575441)
(-0.208181 0.125409 0.692453)
(-0.379688 0.172017 0.621845)
(-0.328876 -0.0985983 1.85583)
(-0.0363878 0.00445491 0.602562)
(-0.00474085 0.389445 0.814893)
(-0.170846 0.243344 1.33327)
(-0.148624 -0.467647 3.45008)
(-0.0971572 -0.757377 5.09221)
(0.035792 0.105528 0.292726)
(0.119283 0.182275 0.35806)
(0.24958 0.343024 1.29862)
(0.435501 0.279877 1.79557)
(0.0550729 -0.0104506 3.24746)
(0.418832 -0.482244 4.96695)
(0.0274318 -0.0166159 1.52673)
(-0.106204 0.0788915 2.8715)
(0.0889536 0.688399 2.74738)
(-0.0604648 0.445036 3.82678)
(0.161635 -0.25024 5.41359)
(-0.443124 0.105894 4.14527)
(-0.22114 0.41173 3.8425)
(0.0296892 -0.0027728 4.9148)
(-0.00396788 -0.0307694 0.660745)
(0.111336 -0.156007 0.597953)
(-0.236345 0.0850276 0.720336)
(-0.456864 0.104693 0.646913)
(-0.355058 -0.166605 1.7955)
(-0.0420878 -0.051517 0.563344)
(-0.100527 0.176001 0.868009)
(-0.20891 0.100917 1.3381)
(-0.272469 -0.178068 3.40025)
(-0.120972 -0.685758 5.14373)
(0.0110799 -0.0391 0.180925)
(0.0693556 0.061566 0.35234)
(0.176806 -0.0596313 1.3151)
(0.407227 -0.0294506 1.69767)
(0.042873 0.104405 3.00319)
(0.374395 -0.394763 4.84117)
(-0.0737715 -0.245718 1.64208)
(-0.105069 -0.317833 2.85293)
(0.0331061 0.524853 2.83967)
(-0.103058 0.419533 3.687)
(0.173496 -0.196528 5.48238)
(-0.499317 0.0227414 4.28724)
(-0.23721 0.368353 3.97919)
(-0.107709 0.074076 5.02018)
(-0.0157083 -0.0384859 0.756959)
(0.108385 -0.163337 0.688056)
(-0.242622 0.0243451 0.812592)
(-0.523578 0.0485753 0.736261)
(-0.390861 -0.270401 1.6876)
(-0.0499879 -0.110914 0.605338)
(-0.21258 -0.0521481 1.00196)
(-0.306311 -0.0786154 1.40358)
(-0.331642 0.0804466 3.22964)
(-0.110835 -0.598923 5.11563)
(-0.00579915 -0.195312 0.227086)
(-0.00481884 -0.110726 0.441498)
(0.0793869 -0.388886 1.35627)
(0.259254 -0.416528 1.64647)
(0.0273417 0.0792057 2.86515)
(0.274161 -0.312747 4.70292)
(-0.225014 -0.5223 1.6708)
(-0.184844 -0.71258 2.67522)
(-0.135473 -0.0294645 2.80833)
(-0.100658 0.330143 3.56752)
(0.175867 -0.142243 5.5447)
(-0.528374 -0.00661807 4.22203)
(-0.274638 0.205157 3.96922)
(-0.208731 0.0571126 5.06133)
(-0.0096674 -0.0444737 0.917848)
(0.110387 -0.17343 0.839781)
(-0.233891 -0.0437414 0.967603)
(-0.573164 0.0179843 0.897942)
(-0.450995 -0.396307 1.57067)
(-0.0482979 -0.17365 0.730569)
(-0.330935 -0.23293 1.19853)
(-0.470499 -0.207909 1.50793)
(-0.359596 0.12311 3.02742)
(-0.086575 -0.524294 5.02328)
(-0.0295556 -0.309046 0.397926)
(-0.0886994 -0.257 0.65362)
(-0.0654398 -0.560492 1.45835)
(0.0403291 -0.642342 1.70978)
(0.0334602 -0.138808 2.81251)
(0.166992 -0.240015 4.55723)
(-0.369583 -0.75698 1.57388)
(-0.225979 -0.964369 2.44146)
(-0.306984 -0.773127 2.47054)
(-0.0270312 0.186476 3.43794)
(0.136808 -0.0797375 5.54284)
(-0.458001 -0.0320313 3.98339)
(-0.106096 0.00473984 3.66629)
(-0.258128 0.0250219 4.90893)
(0.0140827 -0.0469732 1.12994)
(0.121702 -0.186194 1.03959)
(-0.212976 -0.109654 1.17554)
(-0.592218 0.00919008 1.12544)
(-0.535857 -0.511721 1.50754)
(-0.0368566 -0.224533 0.919354)
(-0.439771 -0.332658 1.43054)
(-0.628048 -0.278704 1.61886)
(-0.464835 -0.0939183 2.83701)
(-0.0898863 -0.383144 4.89319)
(-0.04577 -0.366068 0.614233)
(-0.159681 -0.328049 0.949394)
(-0.266218 -0.567172 1.62303)
(-0.287668 -0.60686 1.84868)
(-0.0881512 -0.472527 2.86898)
(0.0354941 -0.144085 4.39436)
(-0.424707 -0.795106 1.50203)
(-0.180182 -0.954648 2.26233)
(-0.341224 -0.945198 2.13909)
(0.131333 -0.675967 3.34967)
(0.140572 -0.0526262 5.44869)
(-0.680142 -0.19694 3.53054)
(-0.808159 -0.218828 3.18264)
(-0.115002 -0.383462 4.21435)
(0.0546668 -0.0445764 1.3733)
(0.140218 -0.196482 1.26546)
(-0.172789 -0.163662 1.40951)
(-0.577396 0.00927579 1.40213)
(-0.62084 -0.560718 1.56516)
(-0.0195884 -0.253556 1.14019)
(-0.497708 -0.351922 1.67085)
(-0.704837 -0.311393 1.71985)
(-0.641886 -0.392741 2.58356)
(-0.0911792 -0.328592 4.64664)
(-0.0576365 -0.391226 0.841097)
(-0.226248 -0.33858 1.27103)
(-0.465916 -0.488328 1.82668)
(-0.631214 -0.426444 1.94116)
(-0.343451 -0.470022 2.87653)