/*--------------------------------*- C++ -*----------------------------------*\
| =========                 |                                                 |
| \\      /  F ield         | OpenFOAM: The Open Source CFD Toolbox           |
|  \\    /   O peration     | Version:  5.x                                   |
|   \\  /    A nd           | Web:      www.OpenFOAM.org                      |
|    \\/     M anipulation  |                                                 |
\*---------------------------------------------------------------------------*/
FoamFile
{
    version     2.0;
    format      ascii;
    class       volVectorField;
    location    "5";
    object      Us;
}
// * * * * * * * * * * * * * * * * * * * * * * * * * * * * * * * * * * * * * //

dimensions      [0 1 -1 0 0 0 0];

internalField   nonuniform List<vector> 
10571
(
(-0.00689421 0.0180161 -0.131393)
(0.0403494 0.00400034 -0.113354)
(0.126915 0.0543218 -0.0386273)
(0.152227 0.111238 0.0966194)
(-0.102957 0.0298047 -0.0450527)
(0.0744608 -0.0766303 0.0379023)
(0.0966516 0.209302 0.0364921)
(0.12386 0.143868 0.061151)
(-0.00572448 -0.210318 -0.0165048)
(-0.0389335 -0.176382 -0.0354617)
(0.0229781 0.00667065 -0.210721)
(0.0941332 -0.192321 0.0398739)
(0.0928871 0.113173 0.0642048)
(-0.0448176 0.0224024 0.0950256)
(-0.0550907 -0.167401 -0.0425834)
(0.0402595 -0.165054 -0.097093)
(0.0698593 -0.0368245 -0.0833854)
(-0.103646 -0.156468 0.0597139)
(-0.164224 -0.0776898 0.0247625)
(-0.129937 -0.0756768 -0.0789715)
(-0.0280492 0.0531579 -0.155491)
(0.0578463 -0.0207066 -0.147269)
(-0.037537 -0.00155426 -0.0507317)
(-0.0804464 0.0239562 -0.109225)
(-0.0599297 -0.00770051 -0.119495)
(0.025029 -0.0283205 -0.223706)
(-0.0102289 -0.0412168 0.0217461)
(0.0322488 0.0271238 0.127457)
(-0.0483537 -0.0262643 -0.16295)
(0.0766892 -0.145702 0.0963901)
(0.00418546 0.011256 0.189841)
(-0.129418 -0.118014 0.118677)
(-0.0355605 -0.010333 -0.0647514)
(-0.0155981 -0.184508 0.0630801)
(0.017791 0.134532 -0.228942)
(0.0891666 -0.0662034 0.0421087)
(0.0254809 0.0868588 0.237354)
(-0.109311 -0.0216765 0.0727863)
(-0.045929 0.121207 -0.154796)
(0.0506858 0.0988378 -0.0298806)
(-0.00709991 0.0418199 -0.0736495)
(-0.114415 -0.0066564 0.190858)
(-0.0462149 0.025766 0.111696)
(-0.0321988 0.0920199 -0.0156265)
(-0.0626989 0.15439 -0.0752777)
(0.0368726 0.0286639 -0.161628)
(0.032316 0.0451566 -0.0069274)
(-0.0748727 0.0554097 -0.0567366)
(-0.019257 -0.00765991 -0.0681849)
(-0.00247462 -0.00968442 -0.150809)
(-0.150116 -0.13359 0.0350243)
(-0.175923 -0.294708 0.206549)
(0.0107754 -0.0207222 -0.0952209)
(0.0521852 -0.13718 0.177885)
(-0.206903 -0.141399 0.297045)
(-0.131938 -0.0217983 0.177028)
(-0.0296681 0.115782 -0.0282716)
(-0.0110001 -0.0641618 0.124261)
(0.0110121 0.139382 -0.214824)
(-0.0392094 -0.0922745 0.136493)
(-0.137667 -0.0495898 0.352097)
(-0.0728499 0.0815388 0.15095)
(-0.0421735 0.174499 -0.15903)
(-0.0336654 0.215256 0.00928015)
(-0.0639463 0.0370879 0.0168531)
(-0.078479 0.00465528 0.274889)
(-0.00442749 0.0665053 0.184384)
(0.00476098 0.244936 -0.0158369)
(-0.106233 0.240494 0.0217423)
(0.0545277 0.0161756 -0.079597)
(0.166336 -0.0386658 -0.0780042)
(0.0382622 0.0344461 0.0443148)
(0.00371004 -0.00627096 -0.0634637)
(-0.00225082 -0.0105806 -0.0745702)
(-0.0642387 -0.0806899 0.0151662)
(-0.143729 -0.163869 0.173055)
(0.103295 0.0244965 -0.0771119)
(-0.0340511 -0.0616409 0.128044)
(-0.194461 -0.0364997 0.375715)
(-0.0435285 0.128549 0.198535)
(0.00622412 0.117076 0.0287398)
(-0.0171053 0.0438228 0.0353683)
(-0.00119871 0.102772 -0.147353)
(-0.147025 -0.108489 0.290845)
(-0.119369 -0.0124458 0.47874)
(-0.00399651 0.190598 0.228795)
(-0.0386381 0.11089 -0.131026)
(-0.0840712 0.143473 -0.0806719)
(-0.0312409 0.0756769 0.0953107)
(-0.0269339 0.0428166 0.352345)
(0.0478945 0.0632057 0.304076)
(0.0460917 0.294451 0.123664)
(-0.135114 0.27781 0.137337)
(0.0448059 0.0460797 0.0624796)
(0.12978 -0.0402713 0.0718322)
(0.0688734 0.000543465 0.0774951)
(0.00732198 -0.00548662 -0.00733989)
(0.00848016 -0.0167607 -0.0341214)
(0.00350476 -0.0173187 0.00188425)
(-0.0067965 -0.0447959 0.045412)
(0.0398346 0.0123194 0.0449141)
(-0.020806 -0.0193656 0.0654438)
(-0.0212561 0.0700091 0.259673)
(0.0316487 0.104033 0.167626)
(0.0362461 0.14446 0.0143568)
(0.00981869 0.0926419 -0.066734)
(-0.00157591 0.0633596 -0.0608851)
(-0.220781 -0.0841167 0.502177)
(-0.0237829 0.150057 0.421415)
(0.0640672 0.192223 0.275616)
(0.137554 0.17067 0.142651)
(-0.0928164 -0.0182462 -0.202242)
(-0.0848185 0.111816 0.171913)
(0.000456802 0.115105 0.430273)
(0.0872848 0.160988 0.423362)
(0.129464 0.302394 0.259152)
(-0.124413 0.243464 0.20142)
(0.0273483 0.0872271 0.191524)
(0.121086 0.0890429 0.275456)
(0.0535822 0.017308 0.177095)
(0.0191819 0.0037561 0.00370045)
(0.0229057 -0.0231392 -0.0349899)
(0.0677981 0.0387241 -0.011403)
(-0.00166572 0.0492262 0.0677231)
(-0.0260841 0.00422281 0.00569911)
(-0.0497471 -0.0487082 0.12302)
(0.0451878 -0.0215379 0.205769)
(0.104938 0.0495919 0.170848)
(0.094836 0.00696036 -0.1123)
(-0.0775318 0.0361835 -0.163349)
(-0.0117312 0.0077675 -0.00664357)
(-0.0873949 0.0621261 0.0536781)
(-0.182352 0.0242111 0.333243)
(0.106882 0.134311 0.462958)
(0.161779 0.172204 0.408799)
(0.216091 0.134887 0.317327)
(-0.113158 -0.0541744 -0.162648)
(-0.0141708 -0.00699584 -0.0063177)
(-0.163552 0.125934 0.198949)
(0.0627502 0.159274 0.314457)
(0.175327 0.217742 0.345763)
(0.175746 0.275767 0.371217)
(-0.0107849 -0.152649 0.0751774)
(0.0462075 0.154106 0.143729)
(0.200111 0.130221 0.232932)
(0.139967 0.178193 0.295229)
(0.0354419 -0.0362321 -0.282147)
(0.0450965 -0.0793427 -0.529718)
(0.00215644 0.015794 -0.576924)
(-0.00276964 0.0264874 -0.458771)
(-0.0286777 -0.00995985 -0.500098)
(-0.0830552 -0.108304 0.110644)
(0.0854907 -0.104229 0.137164)
(0.0399072 0.0442846 -0.269352)
(0.0901773 0.00757741 -0.215356)
(0 0 0)
(-0.0223263 0.009978 -0.0165025)
(-0.0866304 -0.0900415 -0.395337)
(-0.149904 -0.0193672 0.220104)
(0.0908888 0.063753 0.416739)
(0.194661 0.125032 0.402593)
(0.233098 0.139378 0.391638)
(0 0 0)
(-0.028343 -0.00303048 -0.0167657)
(-0.164023 0.0424051 0.0562364)
(0.0516968 0.119197 0.255272)
(0.188901 0.184732 0.358326)
(0.216555 0.23539 0.430018)
(-0.0563243 -0.139152 0.158287)
(-0.0508593 -0.0203249 -0.0317601)
(0.0300086 0.0665633 -0.152643)
(0.14111 0.0852803 -0.015628)
(0.14328 -0.0499511 0.193771)
(-0.0148019 0.025648 -0.426914)
(0.0295853 -0.0740217 -0.497493)
(0.00320662 0.0594829 -0.578515)
(0.00934429 -0.0236844 -0.426203)
(-0.0198426 -0.00529034 -0.44599)
(0.0303846 -0.07389 -0.522175)
(0.0425085 -0.113846 -0.376849)
(0.0442976 0.10634 -0.319493)
(0 0 0)
(0 0 0)
(0 0 0)
(-0.0638091 -0.0911197 -0.386855)
(0.0150454 -0.081221 -0.416685)
(0.048019 0.00635556 0.406364)
(0.165506 0.0177828 -0.00716502)
(0.191102 0.0156024 0.0312086)
(0 0 0)
(0 0 0)
(-0.0132193 -0.0477718 -0.1741)
(0.0330548 0.0670703 0.236767)
(0.158803 0.0415179 0.0695791)
(0.172869 0.0401675 0.143972)
(0 0 0)
(0 0 0)
(-0.0798954 0.0752555 -0.0304386)
(0.094061 0.0774349 -0.0857899)
(0 0 0)
(-0.0290254 0.044526 -0.46998)
(0.12234 -0.0180008 -0.460472)
(0.0440904 0.044714 -0.548246)
(0.00722332 -0.0166158 -0.409279)
(-3.07487e-15 6.65723e-15 -3.81043e-14)
(0.0483047 -0.089015 -0.472736)
(0.011486 -0.0179221 -0.359114)
(0.0226416 0.0997988 -0.299928)
(0 0 0)
(0 0 0)
(0 0 0)
(-0.00981787 -0.0388392 -0.455114)
(0.0335612 -0.0814665 -0.347664)
(0.0697336 -0.0478835 -0.218764)
(0.139439 0.00103078 -0.0102974)
(0 0 0)
(0 0 0)
(0 0 0)
(-0.0339119 -0.0323725 -0.154063)
(0 0 0)
(0.132536 0.056416 0.0937419)
(0 0 0)
(0 0 0)
(0 0 0)
(0.109483 0.080628 0.0406376)
(0.111905 -0.0310627 0.186633)
(-0.062157 0.0722297 -0.420503)
(0.110947 -0.0158518 -0.421267)
(0.0146898 -0.00389556 -0.411955)
(0 0 0)
(0 0 0)
(0.0288484 -0.104457 -0.413453)
(0.0489795 -0.0999978 -0.296119)
(0.0546598 0.0756445 -0.332758)
(1.45263e-14 2.07043e-14 -2.68926e-14)
(0 0 0)
(-0.00912032 -0.0443355 -0.48286)
(0.00926545 -0.0863112 -0.274005)
(0 0 0)
(0.131646 0.186889 -0.245394)
(0.131646 0.186889 -0.245394)
(0 0 0)
(-0.0331104 -0.0144211 -0.153941)
(0 0 0)
(0.129426 0.03477 0.23318)
(0.180382 0.0223237 0.159511)
(0 0 0)
(0 0 0)
(0 0 0)
(0.190311 0.0654945 0.203704)
(0 0 0)
(0.110592 -0.0017315 -0.322084)
(0 0 0)
(0.188751 0.00746336 -0.511189)
(0 0 0)
(-0.0231676 -0.106477 -0.28836)
(0.0283349 -0.109483 -0.380061)
(-0.0600456 0.05773 -0.170508)
(0 0 0)
(0 0 0)
(0 0 0)
(-0.00401277 -0.0875952 -0.275171)
(0 0 0)
(0 0 0)
(0 0 0)
(0 0 0)
(0 0 0)
(0 0 0)
(0.154863 0.0498317 0.183231)
(0 0 0)
(0 0 0)
(0 0 0)
(0.0211224 -0.120255 0.293033)
(0 0 0)
(0 0 0)
(0.11864 0.0252972 -0.350635)
(-0.0644935 0.0721882 -0.337001)
(-0.0267373 -0.00802402 -0.128726)
(0 0 0)
(-0.0215041 -0.105728 -0.292472)
(0.0354265 -0.06563 -0.326293)
(0 0 0)
(0 0 0)
(0 0 0)
(0 0 0)
(0 0 0)
(0 0 0)
(0 0 0)
(0 0 0)
(0 0 0)
(0 0 0)
(0 0 0)
(0 0 0)
(0 0 0)
(0 0 0)
(0 0 0)
(0 0 0)
(0 0 0)
(0 0 0)
(0 0 0)
(0 0 0)
(0 0 0)
(0 0 0)
(0 0 0)
(0 0 0)
(0 0 0)
(0 0 0)
(0 0 0)
(-7.0993e-15 -3.68226e-15 -2.72557e-14)
(-0.0283033 -0.0622118 -0.210869)
(0 0 0)
(0 0 0)
(0 0 0)
(0 0 0)
(-0.0397207 -0.0131368 -0.21186)
(0 0 0)
(0 0 0)
(0 0 0)
(0 0 0)
(0 0 0)
(0 0 0)
(0 0 0)
(0 0 0)
(0 0 0)
(0 0 0)
(0 0 0)
(0 0 0)
(0 0 0)
(0 0 0)
(0 0 0)
(0 0 0)
(0 0 0)
(-0.071472 -0.0586496 -0.393926)
(0 0 0)
(0 0 0)
(0 0 0)
(0 0 0)
(0 0 0)
(0 0 0)
(0 0 0)
(0 0 0)
(0 0 0)
(0 0 0)
(0 0 0)
(0 0 0)
(0 0 0)
(0 0 0)
(0 0 0)
(0 0 0)
(0 0 0)
(0 0 0)
(0 0 0)
(0 0 0)
(0 0 0)
(0 0 0)
(0 0 0)
(0 0 0)
(0 0 0)
(0 0 0)
(0 0 0)
(0 0 0)
(0 0 0)
(0 0 0)
(0 0 0)
(0 0 0)
(0 0 0)
(0 0 0)
(0 0 0)
(0 0 0)
(0 0 0)
(0 0 0)
(0 0 0)
(0 0 0)
(0 0 0)
(0 0 0)
(0 0 0)
(0 0 0)
(0 0 0)
(0 0 0)
(0 0 0)
(0 0 0)
(0 0 0)
(0 0 0)
(0 0 0)
(0 0 0)
(0 0 0)
(0 0 0)
(0 0 0)
(0 0 0)
(0 0 0)
(0 0 0)
(0 0 0)
(0 0 0)
(0 0 0)
(0 0 0)
(0 0 0)
(0 0 0)
(0 0 0)
(0 0 0)
(0 0 0)
(0 0 0)
(0 0 0)
(0 0 0)
(0 0 0)
(0 0 0)
(0 0 0)
(0 0 0)
(0 0 0)
(0 0 0)
(0 0 0)
(0 0 0)
(0 0 0)
(0 0 0)
(0 0 0)
(0 0 0)
(0 0 0)
(0 0 0)
(0 0 0)
(0 0 0)
(0 0 0)
(0 0 0)
(0 0 0)
(0 0 0)
(0 0 0)
(0 0 0)
(0 0 0)
(0 0 0)
(0 0 0)
(0 0 0)
(0 0 0)
(0 0 0)
(0 0 0)
(0 0 0)
(0 0 0)
(0 0 0)
(0 0 0)
(0 0 0)
(0 0 0)
(0 0 0)
(0 0 0)
(0 0 0)
(0 0 0)
(0 0 0)
(0 0 0)
(0 0 0)
(0 0 0)
(0 0 0)
(0 0 0)
(0 0 0)
(0 0 0)
(0 0 0)
(0 0 0)
(0 0 0)
(0 0 0)
(0 0 0)
(0 0 0)
(0 0 0)
(0 0 0)
(0 0 0)
(0 0 0)
(0 0 0)
(0 0 0)
(0 0 0)
(0 0 0)
(0 0 0)
(0 0 0)
(0 0 0)
(0 0 0)
(0 0 0)
(0 0 0)
(0 0 0)
(0 0 0)
(0 0 0)
(0 0 0)
(0 0 0)
(0 0 0)
(0 0 0)
(0 0 0)
(0 0 0)
(0 0 0)
(0 0 0)
(0 0 0)
(0 0 0)
(0 0 0)
(0 0 0)
(0 0 0)
(0 0 0)
(0 0 0)
(0 0 0)
(0 0 0)
(0 0 0)
(0 0 0)
(0 0 0)
(0 0 0)
(0 0 0)
(0 0 0)
(0 0 0)
(0 0 0)
(0 0 0)
(0 0 0)
(0 0 0)
(0 0 0)
(0 0 0)
(0 0 0)
(0 0 0)
(0 0 0)
(0 0 0)
(0 0 0)
(0 0 0)
(0 0 0)
(0 0 0)
(0 0 0)
(0 0 0)
(0 0 0)
(0 0 0)
(0 0 0)
(0 0 0)
(0 0 0)
(0 0 0)
(0 0 0)
(0 0 0)
(0 0 0)
(0 0 0)
(0 0 0)
(0 0 0)
(0 0 0)
(0 0 0)
(0 0 0)
(0 0 0)
(0 0 0)
(0 0 0)
(0 0 0)
(0 0 0)
(0 0 0)
(0 0 0)
(0 0 0)
(0 0 0)
(0 0 0)
(0 0 0)
(0 0 0)
(0 0 0)
(0 0 0)
(0 0 0)
(0 0 0)
(0 0 0)
(0 0 0)
(0 0 0)
(0 0 0)
(0 0 0)
(0 0 0)
(0 0 0)
(0 0 0)
(0 0 0)
(0 0 0)
(0 0 0)
(0 0 0)
(0 0 0)
(0 0 0)
(0 0 0)
(0 0 0)
(0 0 0)
(0 0 0)
(0 0 0)
(0 0 0)
(0 0 0)
(0 0 0)
(0 0 0)
(0 0 0)
(0 0 0)
(0 0 0)
(0 0 0)
(0 0 0)
(0 0 0)
(0 0 0)
(0 0 0)
(0 0 0)
(0 0 0)
(0 0 0)
(0 0 0)
(0 0 0)
(0 0 0)
(0 0 0)
(0 0 0)
(0 0 0)
(0 0 0)
(0 0 0)
(0 0 0)
(0 0 0)
(0 0 0)
(0 0 0)
(0 0 0)
(0 0 0)
(0 0 0)
(0 0 0)
(0 0 0)
(0 0 0)
(0 0 0)
(0 0 0)
(0 0 0)
(0 0 0)
(0 0 0)
(0 0 0)
(0 0 0)
(0 0 0)
(0 0 0)
(0 0 0)
(0 0 0)
(0 0 0)
(0 0 0)
(0 0 0)
(0 0 0)
(0 0 0)
(0 0 0)
(0 0 0)
(0 0 0)
(0 0 0)
(0 0 0)
(0 0 0)
(0 0 0)
(0 0 0)
(0 0 0)
(0 0 0)
(0 0 0)
(0 0 0)
(0 0 0)
(0 0 0)
(0 0 0)
(0 0 0)
(0 0 0)
(0 0 0)
(0 0 0)
(0 0 0)
(0 0 0)
(0 0 0)
(0 0 0)
(0 0 0)
(0 0 0)
(0 0 0)
(0 0 0)
(0 0 0)
(0 0 0)
(0 0 0)
(0 0 0)
(0 0 0)
(0 0 0)
(0 0 0)
(0 0 0)
(0 0 0)
(0 0 0)
(0 0 0)
(0 0 0)
(0 0 0)
(0 0 0)
(0 0 0)
(0 0 0)
(0 0 0)
(0 0 0)
(0 0 0)
(0 0 0)
(0 0 0)
(0 0 0)
(0 0 0)
(0 0 0)
(0 0 0)
(0 0 0)
(0 0 0)
(0 0 0)
(0 0 0)
(0 0 0)
(0 0 0)
(0 0 0)
(0 0 0)
(0 0 0)
(0 0 0)
(0 0 0)
(0 0 0)
(0 0 0)
(0 0 0)
(0 0 0)
(0 0 0)
(0 0 0)
(0 0 0)
(0 0 0)
(0 0 0)
(0 0 0)
(0 0 0)
(0 0 0)
(0 0 0)
(0 0 0)
(0 0 0)
(0 0 0)
(0 0 0)
(0 0 0)
(0 0 0)
(0 0 0)
(0 0 0)
(0 0 0)
(0 0 0)
(0 0 0)
(0 0 0)
(0 0 0)
(0 0 0)
(0 0 0)
(0 0 0)
(0 0 0)
(0 0 0)
(0 0 0)
(0 0 0)
(0 0 0)
(0 0 0)
(0 0 0)
(0 0 0)
(0 0 0)
(0 0 0)
(0 0 0)
(0 0 0)
(0 0 0)
(0 0 0)
(0 0 0)
(0 0 0)
(0 0 0)
(0 0 0)
(0 0 0)
(0 0 0)
(0 0 0)
(0 0 0)
(0 0 0)
(0 0 0)
(0 0 0)
(0 0 0)
(0 0 0)
(0 0 0)
(0 0 0)
(0 0 0)
(0 0 0)
(0 0 0)
(0 0 0)
(0 0 0)
(0 0 0)
(0 0 0)
(0 0 0)
(0 0 0)
(0 0 0)
(0 0 0)
(0 0 0)
(0 0 0)
(0 0 0)
(0 0 0)
(0 0 0)
(0 0 0)
(0 0 0)
(0 0 0)
(0 0 0)
(0 0 0)
(0 0 0)
(0 0 0)
(0 0 0)
(0 0 0)
(0 0 0)
(0 0 0)
(0 0 0)
(0 0 0)
(0 0 0)
(0 0 0)
(0 0 0)
(0 0 0)
(0 0 0)
(0 0 0)
(0 0 0)
(0 0 0)
(0 0 0)
(0 0 0)
(0 0 0)
(0 0 0)
(0 0 0)
(0 0 0)
(0 0 0)
(0 0 0)
(0 0 0)
(0 0 0)
(0 0 0)
(0 0 0)
(0 0 0)
(0 0 0)
(0 0 0)
(0 0 0)
(0 0 0)
(0 0 0)
(0 0 0)
(0 0 0)
(0 0 0)
(0 0 0)
(0 0 0)
(0 0 0)
(0 0 0)
(0 0 0)
(0 0 0)
(0 0 0)
(0 0 0)
(0 0 0)
(0 0 0)
(0 0 0)
(0 0 0)
(0 0 0)
(0 0 0)
(0 0 0)
(0 0 0)
(0 0 0)
(0 0 0)
(0 0 0)
(0 0 0)
(0 0 0)
(0 0 0)
(0 0 0)
(0 0 0)
(0 0 0)
(0 0 0)
(0 0 0)
(0 0 0)
(0 0 0)
(0 0 0)
(0 0 0)
(0 0 0)
(0 0 0)
(0 0 0)
(0 0 0)
(0 0 0)
(0 0 0)
(0 0 0)
(0 0 0)
(0 0 0)
(0 0 0)
(0 0 0)
(0 0 0)
(0 0 0)
(0 0 0)
(0 0 0)
(0 0 0)
(0 0 0)
(0 0 0)
(0 0 0)
(0 0 0)
(0 0 0)
(0 0 0)
(0 0 0)
(0 0 0)
(0 0 0)
(0 0 0)
(0 0 0)
(0 0 0)
(0 0 0)
(0 0 0)
(0 0 0)
(0 0 0)
(0 0 0)
(0 0 0)
(0 0 0)
(0 0 0)
(0 0 0)
(0 0 0)
(0 0 0)
(0 0 0)
(0 0 0)
(0 0 0)
(0 0 0)
(0 0 0)
(0 0 0)
(0 0 0)
(0 0 0)
(0 0 0)
(0 0 0)
(0 0 0)
(0 0 0)
(0 0 0)
(0 0 0)
(0 0 0)
(0 0 0)
(0 0 0)
(0 0 0)
(0 0 0)
(0 0 0)
(0 0 0)
(0 0 0)
(0 0 0)
(0 0 0)
(0 0 0)
(0 0 0)
(0 0 0)
(0 0 0)
(0 0 0)
(0 0 0)
(0 0 0)
(0 0 0)
(0 0 0)
(0 0 0)
(0 0 0)
(0 0 0)
(0 0 0)
(0 0 0)
(0 0 0)
(0 0 0)
(0 0 0)
(0 0 0)
(0 0 0)
(0 0 0)
(0 0 0)
(0 0 0)
(0 0 0)
(0 0 0)
(0 0 0)
(0 0 0)
(0 0 0)
(0 0 0)
(0 0 0)
(0 0 0)
(0 0 0)
(0 0 0)
(0 0 0)
(0 0 0)
(0 0 0)
(0 0 0)
(0 0 0)
(0 0 0)
(0 0 0)
(0 0 0)
(0 0 0)
(0 0 0)
(0 0 0)
(0 0 0)
(0 0 0)
(0 0 0)
(0 0 0)
(0 0 0)
(0 0 0)
(0 0 0)
(0 0 0)
(0 0 0)
(0 0 0)
(0 0 0)
(0 0 0)
(0 0 0)
(0 0 0)
(0 0 0)
(0 0 0)
(0 0 0)
(0 0 0)
(0 0 0)
(0 0 0)
(0 0 0)
(0 0 0)
(0 0 0)
(0 0 0)
(0 0 0)
(0 0 0)
(0 0 0)
(0 0 0)
(0 0 0)
(0 0 0)
(0 0 0)
(0 0 0)
(0 0 0)
(0 0 0)
(0 0 0)
(0 0 0)
(0 0 0)
(0 0 0)
(0 0 0)
(0 0 0)
(0 0 0)
(0 0 0)
(0 0 0)
(0 0 0)
(0 0 0)
(0 0 0)
(0 0 0)
(0 0 0)
(0 0 0)
(0 0 0)
(0 0 0)
(0 0 0)
(0 0 0)
(0 0 0)
(0 0 0)
(0 0 0)
(0 0 0)
(0 0 0)
(0 0 0)
(0 0 0)
(0 0 0)
(0 0 0)
(0 0 0)
(0 0 0)
(0 0 0)
(0 0 0)
(0 0 0)
(0 0 0)
(0 0 0)
(0 0 0)
(0 0 0)
(0 0 0)
(0 0 0)
(0 0 0)
(0 0 0)
(0 0 0)
(0 0 0)
(0 0 0)
(0 0 0)
(0 0 0)
(0 0 0)
(0 0 0)
(0 0 0)
(0 0 0)
(0 0 0)
(0 0 0)
(0 0 0)
(0 0 0)
(0 0 0)
(0 0 0)
(0 0 0)
(0 0 0)
(0 0 0)
(0 0 0)
(0 0 0)
(0 0 0)
(0 0 0)
(0 0 0)
(0 0 0)
(0 0 0)
(0 0 0)
(0 0 0)
(0 0 0)
(0 0 0)
(0 0 0)
(0 0 0)
(0 0 0)
(0 0 0)
(0 0 0)
(0 0 0)
(0 0 0)
(0 0 0)
(0 0 0)
(0 0 0)
(0 0 0)
(0 0 0)
(0 0 0)
(0 0 0)
(0 0 0)
(0 0 0)
(0 0 0)
(0 0 0)
(0 0 0)
(0 0 0)
(0 0 0)
(0 0 0)
(0 0 0)
(0 0 0)
(0 0 0)
(0 0 0)
(0 0 0)
(0 0 0)
(0 0 0)
(0 0 0)
(0 0 0)
(0 0 0)
(0 0 0)
(0 0 0)
(0 0 0)
(0 0 0)
(0 0 0)
(0 0 0)
(0 0 0)
(0 0 0)
(0 0 0)
(0 0 0)
(0 0 0)
(0 0 0)
(0 0 0)
(0 0 0)
(0 0 0)
(0 0 0)
(0 0 0)
(0 0 0)
(0 0 0)
(0 0 0)
(0 0 0)
(0 0 0)
(0 0 0)
(0 0 0)
(0 0 0)
(0 0 0)
(0 0 0)
(0 0 0)
(0 0 0)
(0 0 0)
(0 0 0)
(0 0 0)
(0 0 0)
(0 0 0)
(0 0 0)
(0 0 0)
(0 0 0)
(0 0 0)
(0 0 0)
(0 0 0)
(0 0 0)
(0 0 0)
(0 0 0)
(0 0 0)
(0 0 0)
(0 0 0)
(0 0 0)
(0 0 0)
(0 0 0)
(0 0 0)
(0 0 0)
(0 0 0)
(0 0 0)
(0 0 0)
(0 0 0)
(0 0 0)
(0 0 0)
(0 0 0)
(0 0 0)
(0 0 0)
(0 0 0)
(0 0 0)
(0 0 0)
(0 0 0)
(0 0 0)
(0 0 0)
(0 0 0)
(0 0 0)
(0 0 0)
(0 0 0)
(0 0 0)
(0 0 0)
(0 0 0)
(0 0 0)
(0 0 0)
(0 0 0)
(0 0 0)
(0 0 0)
(0 0 0)
(0 0 0)
(0 0 0)
(0 0 0)
(0 0 0)
(0 0 0)
(0 0 0)
(0 0 0)
(0 0 0)
(0 0 0)
(0 0 0)
(0 0 0)
(0 0 0)
(0 0 0)
(0 0 0)
(0 0 0)
(0 0 0)
(0 0 0)
(0 0 0)
(0 0 0)
(0 0 0)
(0 0 0)
(0 0 0)
(0 0 0)
(0 0 0)
(0 0 0)
(0 0 0)
(0 0 0)
(0 0 0)
(0 0 0)
(0 0 0)
(0 0 0)
(0 0 0)
(0 0 0)
(0 0 0)
(0 0 0)
(0 0 0)
(0 0 0)
(0 0 0)
(0 0 0)
(0 0 0)
(0 0 0)
(0 0 0)
(0 0 0)
(0 0 0)
(0 0 0)
(0 0 0)
(0 0 0)
(0 0 0)
(0 0 0)
(0 0 0)
(0 0 0)
(0 0 0)
(0 0 0)
(0 0 0)
(0 0 0)
(0 0 0)
(0 0 0)
(0 0 0)
(0 0 0)
(0 0 0)
(0 0 0)
(0 0 0)
(0 0 0)
(0 0 0)
(0 0 0)
(0 0 0)
(0 0 0)
(0 0 0)
(0 0 0)
(0 0 0)
(0 0 0)
(0 0 0)
(0 0 0)
(0 0 0)
(0 0 0)
(0 0 0)
(0 0 0)
(0 0 0)
(0 0 0)
(0 0 0)
(0 0 0)
(0 0 0)
(0 0 0)
(0 0 0)
(0 0 0)
(0 0 0)
(0 0 0)
(0 0 0)
(0 0 0)
(0 0 0)
(0 0 0)
(0 0 0)
(0 0 0)
(0 0 0)
(0 0 0)
(0 0 0)
(0 0 0)
(0 0 0)
(0 0 0)
(0 0 0)
(0 0 0)
(0 0 0)
(0 0 0)
(0 0 0)
(0 0 0)
(0 0 0)
(0 0 0)
(0 0 0)
(0 0 0)
(0 0 0)
(0 0 0)
(0 0 0)
(0 0 0)
(0 0 0)
(0 0 0)
(0 0 0)
(0 0 0)
(0 0 0)
(0 0 0)
(0 0 0)
(0 0 0)
(0 0 0)
(0 0 0)
(0 0 0)
(0 0 0)
(0 0 0)
(0 0 0)
(0 0 0)
(0 0 0)
(0 0 0)
(0 0 0)
(0 0 0)
(0 0 0)
(0 0 0)
(0 0 0)
(0 0 0)
(0 0 0)
(0 0 0)
(0 0 0)
(0 0 0)
(0 0 0)
(0 0 0)
(0 0 0)
(0 0 0)
(0 0 0)
(0 0 0)
(0 0 0)
(0 0 0)
(0 0 0)
(0 0 0)
(0 0 0)
(0 0 0)
(0 0 0)
(0 0 0)
(0 0 0)
(0 0 0)
(0 0 0)
(0 0 0)
(0 0 0)
(0 0 0)
(0 0 0)
(0 0 0)
(0 0 0)
(0 0 0)
(0 0 0)
(0 0 0)
(0 0 0)
(0 0 0)
(0 0 0)
(0 0 0)
(0 0 0)
(0 0 0)
(0 0 0)
(0 0 0)
(0 0 0)
(0 0 0)
(0 0 0)
(0 0 0)
(0 0 0)
(0 0 0)
(0 0 0)
(0 0 0)
(0 0 0)
(0 0 0)
(0 0 0)
(0 0 0)
(0 0 0)
(0 0 0)
(0 0 0)
(0 0 0)
(0 0 0)
(0 0 0)
(0 0 0)
(0 0 0)
(0 0 0)
(0 0 0)
(0 0 0)
(0 0 0)
(0 0 0)
(0 0 0)
(0 0 0)
(0 0 0)
(0 0 0)
(0 0 0)
(0 0 0)
(0 0 0)
(0 0 0)
(0 0 0)
(0 0 0)
(0 0 0)
(0 0 0)
(0 0 0)
(0 0 0)
(0 0 0)
(0 0 0)
(0 0 0)
(0 0 0)
(0 0 0)
(0 0 0)
(0 0 0)
(0 0 0)
(0 0 0)
(0 0 0)
(0 0 0)
(0 0 0)
(0 0 0)
(0 0 0)
(0 0 0)
(0 0 0)
(0 0 0)
(0 0 0)
(0 0 0)
(0 0 0)
(0 0 0)
(0 0 0)
(0 0 0)
(0 0 0)
(0 0 0)
(0 0 0)
(0 0 0)
(0 0 0)
(0 0 0)
(0 0 0)
(0 0 0)
(0 0 0)
(0 0 0)
(0 0 0)
(0 0 0)
(0 0 0)
(0 0 0)
(0 0 0)
(0 0 0)
(0 0 0)
(0 0 0)
(0 0 0)
(0 0 0)
(0 0 0)
(0 0 0)
(0 0 0)
(0 0 0)
(0 0 0)
(0 0 0)
(0 0 0)
(0 0 0)
(0 0 0)
(0 0 0)
(0 0 0)
(0 0 0)
(0 0 0)
(0 0 0)
(0 0 0)
(0 0 0)
(0 0 0)
(0 0 0)
(0 0 0)
(0 0 0)
(0 0 0)
(0 0 0)
(0 0 0)
(0 0 0)
(0 0 0)
(0 0 0)
(0 0 0)
(0 0 0)
(0 0 0)
(0 0 0)
(0 0 0)
(0 0 0)
(0 0 0)
(0 0 0)
(0 0 0)
(0 0 0)
(0 0 0)
(0 0 0)
(0 0 0)
(0 0 0)
(0 0 0)
(0 0 0)
(0 0 0)
(0 0 0)
(0 0 0)
(0 0 0)
(0 0 0)
(0 0 0)
(0 0 0)
(0 0 0)
(0 0 0)
(0 0 0)
(0 0 0)
(0 0 0)
(0 0 0)
(0 0 0)
(0 0 0)
(0 0 0)
(0 0 0)
(0 0 0)
(0 0 0)
(0 0 0)
(0 0 0)
(0 0 0)
(0 0 0)
(0 0 0)
(0 0 0)
(0 0 0)
(0 0 0)
(0 0 0)
(0 0 0)
(0 0 0)
(0 0 0)
(0 0 0)
(0 0 0)
(0 0 0)
(0 0 0)
(0 0 0)
(0 0 0)
(0 0 0)
(0 0 0)
(0 0 0)
(0 0 0)
(0 0 0)
(0 0 0)
(0 0 0)
(0 0 0)
(0 0 0)
(0 0 0)
(0 0 0)
(0 0 0)
(0 0 0)
(0 0 0)
(0 0 0)
(0 0 0)
(0 0 0)
(0 0 0)
(0 0 0)
(0 0 0)
(0 0 0)
(0 0 0)
(0 0 0)
(0 0 0)
(0 0 0)
(0 0 0)
(0 0 0)
(0 0 0)
(0 0 0)
(0 0 0)
(0 0 0)
(0 0 0)
(0 0 0)
(0 0 0)
(0 0 0)
(0 0 0)
(0 0 0)
(0 0 0)
(0 0 0)
(0 0 0)
(0 0 0)
(0 0 0)
(0 0 0)
(0 0 0)
(0 0 0)
(0 0 0)
(0 0 0)
(0 0 0)
(0 0 0)
(0 0 0)
(0 0 0)
(0 0 0)
(0 0 0)
(0 0 0)
(0 0 0)
(0 0 0)
(0 0 0)
(0 0 0)
(0 0 0)
(0 0 0)
(0 0 0)
(0 0 0)
(0 0 0)
(0 0 0)
(0 0 0)
(0 0 0)
(0 0 0)
(0 0 0)
(0 0 0)
(0 0 0)
(0 0 0)
(0 0 0)
(0 0 0)
(0 0 0)
(0 0 0)
(0 0 0)
(0 0 0)
(0 0 0)
(0 0 0)
(0 0 0)
(0 0 0)
(0 0 0)
(0 0 0)
(0 0 0)
(0 0 0)
(0 0 0)
(0 0 0)
(0 0 0)
(0 0 0)
(0 0 0)
(0 0 0)
(0 0 0)
(0 0 0)
(0 0 0)
(0 0 0)
(0 0 0)
(0 0 0)
(0 0 0)
(0 0 0)
(0 0 0)
(0 0 0)
(0 0 0)
(0 0 0)
(0 0 0)
(0 0 0)
(0 0 0)
(0 0 0)
(0 0 0)
(0 0 0)
(0 0 0)
(0 0 0)
(0 0 0)
(0 0 0)
(0 0 0)
(0 0 0)
(0 0 0)
(0 0 0)
(0 0 0)
(0 0 0)
(0 0 0)
(0 0 0)
(0 0 0)
(0 0 0)
(0 0 0)
(0 0 0)
(0 0 0)
(0 0 0)
(0 0 0)
(0 0 0)
(0 0 0)
(0 0 0)
(0 0 0)
(0 0 0)
(0 0 0)
(0 0 0)
(0 0 0)
(0 0 0)
(0 0 0)
(0 0 0)
(0 0 0)
(0 0 0)
(0 0 0)
(0 0 0)
(0 0 0)
(0 0 0)
(0 0 0)
(0 0 0)
(0 0 0)
(0 0 0)
(0 0 0)
(0 0 0)
(0 0 0)
(0 0 0)
(0 0 0)
(0 0 0)
(0 0 0)
(0 0 0)
(0 0 0)
(0 0 0)
(0 0 0)
(0 0 0)
(0 0 0)
(0 0 0)
(0 0 0)
(0 0 0)
(0 0 0)
(0 0 0)
(0 0 0)
(0 0 0)
(0 0 0)
(0 0 0)
(0 0 0)
(0 0 0)
(0 0 0)
(0 0 0)
(0 0 0)
(0 0 0)
(0 0 0)
(0 0 0)
(0 0 0)
(0 0 0)
(0 0 0)
(0 0 0)
(0 0 0)
(0 0 0)
(0 0 0)
(0 0 0)
(0 0 0)
(0 0 0)
(0 0 0)
(0 0 0)
(0 0 0)
(0 0 0)
(0 0 0)
(0 0 0)
(0 0 0)
(0 0 0)
(0 0 0)
(0 0 0)
(0 0 0)
(0 0 0)
(0 0 0)
(0 0 0)
(0 0 0)
(0 0 0)
(0 0 0)
(0 0 0)
(0 0 0)
(0 0 0)
(0 0 0)
(0 0 0)
(0 0 0)
(0 0 0)
(0 0 0)
(0 0 0)
(0 0 0)
(0 0 0)
(0 0 0)
(0 0 0)
(0 0 0)
(0 0 0)
(0 0 0)
(0 0 0)
(0 0 0)
(0 0 0)
(0 0 0)
(0 0 0)
(0 0 0)
(0 0 0)
(0 0 0)
(0 0 0)
(0 0 0)
(0 0 0)
(0 0 0)
(0 0 0)
(0 0 0)
(0 0 0)
(0 0 0)
(0 0 0)
(0 0 0)
(0 0 0)
(0 0 0)
(0 0 0)
(0 0 0)
(0 0 0)
(0 0 0)
(0 0 0)
(0 0 0)
(0 0 0)
(0 0 0)
(0 0 0)
(0 0 0)
(0 0 0)
(0 0 0)
(0 0 0)
(0 0 0)
(0 0 0)
(0 0 0)
(0 0 0)
(0 0 0)
(0 0 0)
(0 0 0)
(0 0 0)
(0 0 0)
(0 0 0)
(0 0 0)
(0 0 0)
(0 0 0)
(0 0 0)
(0 0 0)
(0 0 0)
(0 0 0)
(0 0 0)
(0 0 0)
(0 0 0)
(0 0 0)
(0 0 0)
(0 0 0)
(0 0 0)
(0 0 0)
(0 0 0)
(0 0 0)
(0 0 0)
(0 0 0)
(0 0 0)
(0 0 0)
(0 0 0)
(0 0 0)
(0 0 0)
(0 0 0)
(0 0 0)
(0 0 0)
(0 0 0)
(0 0 0)
(0 0 0)
(0 0 0)
(0 0 0)
(0 0 0)
(0 0 0)
(0 0 0)
(0 0 0)
(0 0 0)
(0 0 0)
(0 0 0)
(0 0 0)
(0 0 0)
(0 0 0)
(0 0 0)
(0 0 0)
(0 0 0)
(0 0 0)
(0 0 0)
(0 0 0)
(0 0 0)
(0 0 0)
(0 0 0)
(0 0 0)
(0 0 0)
(0 0 0)
(0 0 0)
(0 0 0)
(0 0 0)
(0 0 0)
(0 0 0)
(0 0 0)
(0 0 0)
(0 0 0)
(0 0 0)
(0 0 0)
(0 0 0)
(0 0 0)
(0 0 0)
(0 0 0)
(0 0 0)
(0 0 0)
(0 0 0)
(0 0 0)
(0 0 0)
(0 0 0)
(0 0 0)
(0 0 0)
(0.101424 -0.00153625 -0.0390763)
(0.00705326 0.0179559 -0.0304591)
(0.155433 0.00989866 -0.0110758)
(0.114386 0.0339048 -0.0015652)
(0.00625796 0.0129351 -0.0180916)
(0.0110079 0.0243769 0.00314803)
(-0.0251639 0.0556838 0.0143003)
(-0.0380257 0.0444526 -0.0210137)
(0.009815 -0.0181695 -0.00383252)
(0.00467312 0.0800434 -0.0352722)
(0.0741154 0.0807748 -0.0460226)
(-0.015175 0.139113 -0.000262699)
(0.0598581 0.211884 -0.00364579)
(0.183581 0.083344 -0.0191506)
(0.19075 0.0761468 0.00373262)
(0.107106 0.145058 0.00173876)
(0.154077 0.10825 -0.00472264)
(0.0803061 0.0678147 -0.00143474)
(-0.020399 0.115326 0.00752597)
(0.0999026 0.10855 -0.0134251)
(-0.0255092 0.150592 -0.0031038)
(-0.0743922 0.104718 0.0239118)
(-0.0573447 0.056372 -0.0480736)
(-0.0705041 0.189788 0.00910811)
(-0.0598236 0.142277 -0.0121012)
(-0.0297268 0.000858339 -0.0186204)
(0.0294837 -0.0325555 -0.0172255)
(0.0174292 -0.0183869 -0.114442)
(0.0135604 -0.0183636 -0.0239595)
(0.0207154 0.0789362 0.00966051)
(0.010756 0.240776 0.00882129)
(0.0223254 0.0135562 0.00162236)
(0.0569912 0.106166 0.00487891)
(0.0373936 0.117786 -0.00102123)
(0.0972741 0.0970037 -0.0078085)
(0.0660647 0.0674894 -0.00404767)
(0.0768165 0.0653942 0.000461192)
(0.0897036 0.112863 -0.00798605)
(-0.0451239 0.172419 0.000175384)
(0.0176715 0.0695475 0.00484837)
(-0.0129209 0.120222 0.00864185)
(-0.0794333 0.170994 -0.000560364)
(-0.0494014 0.150612 0.00434024)
(0.00265493 -0.110557 0.0265775)
(0.0176852 -0.177295 0.0193609)
(-0.0384853 -0.022735 -0.00787939)
(-0.0256271 -0.0897882 -0.00695885)
(-0.0231651 -0.0710578 -0.0156249)
(0.00681724 0.0128719 -0.00301289)
(0.0076532 -0.0270399 -0.0054284)
(0.023131 -0.0632347 -0.00949895)
(0.059813 -0.113617 0.000896946)
(0.0893881 0.0700712 -0.00166849)
(0.0665713 -0.17397 -0.0051534)
(0.105005 -0.195601 -0.00492462)
(0.100088 0.0873327 -0.00303761)
(0.0887208 0.0578445 -0.00303029)
(0.0840545 0.100303 -0.00184755)
(0.0851219 0.0890703 -0.00212532)
(-0.00210958 -0.0370059 0.0345924)
(-0.0438168 -0.111779 0.0209039)
(-0.0521082 -0.0661414 0.0646965)
(-0.0635084 -0.10887 0.000432895)
(-0.0256442 -0.145781 0.013842)
(0.01074 -0.146525 0.0308543)
(-0.0379728 -0.110653 0.00243046)
(0.00473441 -0.115116 -0.0255819)
(0.0064437 -0.115308 -0.0259122)
(-0.00252562 -0.0700219 -0.0282569)
(0.00185325 -0.0939244 -0.040031)
(0.0241048 -0.0507254 -0.0443865)
(0.0584185 -0.136935 -0.0230491)
(0.120981 -0.194016 -0.00542039)
(0.0523552 -0.0649621 -0.0414745)
(0.0902572 -0.126932 -0.0155776)
(0.0684094 -0.179033 -0.00134936)
(-0.0834144 -0.1925 2.18651e-05)
(-0.01237 -0.195823 -0.00176311)
(-0.044402 -0.210993 -0.021692)
(-0.0798888 -0.115016 0.00338163)
(-0.0521141 -0.0719833 0.0733069)
(0.0184884 -0.206537 -0.0149083)
(0.00394365 -0.122644 0.0049915)
(-0.0730715 -0.0826604 -0.0456117)
(-0.0364258 -0.0761733 -0.0486892)
(-0.112039 -0.0101439 -0.0544985)
(-0.0561738 -0.0279412 -0.0491766)
(-0.0149414 -0.0540352 -0.0396467)
(0.0355819 -0.0595767 -0.0423729)
(0.00921349 -0.0926886 -0.0427542)
(0.00506231 -0.105582 -0.0404383)
(0.0374536 -0.0395159 -0.0845658)
(0.0408577 -0.115117 -0.0336235)
(0.0474125 -0.0753441 -0.0142878)
(0.0587254 -0.0447849 -0.0723615)
(-0.0452385 0.00232038 -0.0182175)
(0.0408055 0.00862563 -0.0984268)
(-0.0714365 0.0501306 -0.123793)
(-0.0484207 0.0191156 -0.1438)
(-0.0369335 0.076471 -0.0363822)
(-0.0138987 0.0618441 -0.0322822)
(-0.0459024 0.00197334 -0.149988)
(-0.119018 0.0378764 -0.110699)
(-0.0596151 0.0233737 -0.0712277)
(-0.0113236 0.0612167 -0.0510385)
(-0.0246024 0.05277 -0.0263064)
(-0.0352095 -0.000886735 -0.149588)
(-0.0447151 0.0126174 -0.0685244)
(-0.051342 -0.0296928 -0.0954621)
(-0.0307666 0.0115131 -0.129907)
(-0.0139321 -0.000992439 -0.188653)
(0.063293 -0.0912015 -0.109892)
(0.0307113 -0.0437352 -0.134299)
(0.0783248 0.0271524 -0.127648)
(0.045384 -0.026415 -0.0322462)
(0.0589316 0.113001 -0.0621323)
(0.0457839 -0.0303081 -0.196646)
(0.0549105 0.00760006 -0.199726)
(0.057736 -0.0824926 -0.0618077)
(0.0584648 0.00876077 -0.0968951)
(-0.0566434 -0.00594162 -0.118811)
(-0.083246 0.0779402 0.0549435)
(-0.0836675 0.00177699 -0.0894344)
(-0.0777458 -0.0163275 -0.137826)
(-0.0450623 -0.0200653 -0.161422)
(-0.0762145 0.00267682 -0.0189838)
(-0.0718068 -0.04804 -0.142693)
(-0.0685939 -0.0917644 -0.0843778)
(-0.06845 -0.101804 -0.0992685)
(0.0705024 -0.0812892 -0.0902475)
(0.0206446 -0.0083888 -0.234599)
(0.075149 -0.0666648 -0.119551)
(0.028729 -0.0864347 -0.0792865)
(-0.00210209 0.0442661 -0.195167)
(0.0422628 -0.0363915 -0.0802423)
(0.00380552 -0.209574 -0.0696028)
(-0.0140711 -0.173632 -0.0677733)
(-0.064052 -0.162924 -0.00503339)
(0.00960235 -0.183291 0.0249486)
(-0.0170011 -0.135651 -0.00179594)
(0.0743211 -0.0285497 -0.1215)
(0.0948341 0.0206071 -0.114483)
(0.0161274 0.0975302 -0.227724)
(0.0790658 0.0305697 -0.119589)
(0.073128 0.0923527 -0.157623)
(0.0318117 -0.153697 -0.0839026)
(0.0208715 -0.0603765 -0.101608)
(0.0594302 -0.0334452 -0.0179875)
(0.023174 -0.0960727 0.0221549)
(0.0224001 0.0578068 -0.0656409)
(0.0516891 0.0302415 -0.147819)
(0.0660524 0.096515 -0.171371)
(0.0494852 -0.152361 -0.0217842)
(0.0352792 -0.0166297 -0.107099)
(0.0366632 -0.0622065 -0.0791905)
(0.0528827 0.0448166 -0.106728)
(-0.0530859 -0.127482 0.0185111)
(0.0376625 0.0339279 -0.13885)
(-0.0305741 -0.0282066 -0.0999864)
(-0.0579069 0.0572556 -0.133786)
(-0.0966229 0.0425029 -0.131892)
(-0.0778437 0.0615457 -0.143514)
(-0.0894771 0.00831931 -0.0232171)
(-0.0517797 0.166111 -0.142071)
(-0.0688254 0.048314 -0.0769963)
(-0.0829908 0.10251 -0.131133)
(-0.0346494 0.107149 -0.132904)
(0.0427157 -0.0145557 -0.127763)
(0.0346133 0.0208794 -0.231783)
(0.0490828 -0.00336468 -0.0878036)
(0.099588 -0.0118856 -0.191461)
(0.0371611 0.0139031 -0.18126)
(0.0250056 0.0485147 -0.0546441)
(0.110397 0.0421104 -0.23274)
(-0.0505049 -0.0145145 -0.0499305)
(0.0303725 -0.00022691 -0.134808)
(-0.022979 0.0399887 -0.0351216)
(-0.0613765 0.00883124 -0.0564247)
(0.0408699 -0.00254422 -0.156173)
(-0.0784642 0.0334563 -0.0898506)
(-0.070872 0.02089 -0.14116)
(-0.0375855 -0.00678405 -0.0970204)
(-0.043716 0.00271041 -0.121387)
(-0.0662391 -0.0138878 -0.102968)
(-0.0490741 -0.00656615 -0.0767516)
(-0.041963 0.000916905 -0.0923345)
(-0.0575693 -0.0250566 -0.0705958)
(-0.0677729 -0.0137062 -0.0620183)
(-0.0852116 -0.043507 -0.0519319)
(-0.0362434 -0.0409215 -0.133977)
(-0.04929 -0.012846 -0.0876071)
(-0.0835568 -0.0509074 -0.0435833)
(-0.0134518 -0.0415584 -0.120529)
(0.0219199 0.0136178 -0.220929)
(0.0485502 0.0175931 -0.232345)
(0.00406878 0.0104086 -0.179732)
(-0.00955183 0.00433394 -0.177547)
(0.0096833 -0.030351 -0.17111)
(0.0350677 -0.0446375 -0.100491)
(0.0390888 -0.0345672 -0.0495504)
(0.00827684 -0.0158438 -0.194036)
(-0.0339732 -0.0510726 -0.0998086)
(0.00760457 -0.0411332 -0.0978593)
(-0.00560218 -0.0837699 0.0382656)
(-0.0261747 -0.014166 -0.174496)
(-0.0831856 -0.0426387 -0.0700151)
(-0.0409149 -0.0442795 -0.120843)
(-0.0225451 -0.0326779 -0.127377)
(-0.0085618 -0.00182966 -0.166005)
(-0.0737922 -0.0642992 -0.0183873)
(-0.0104058 -0.03098 -0.0711154)
(-0.0540775 -0.0932295 -0.0515129)
(-0.0260922 -0.052579 -0.00916143)
(-0.000410385 0.00391017 -0.0423214)
(-0.00385273 0.0781223 -0.146948)
(0.0120654 0.010334 -0.0439018)
(-0.00258287 0.0376826 -0.0531246)
(-0.0103596 0.114557 -0.113302)
(-0.00177007 0.0491804 -0.010881)
(0.0482754 -0.0804757 0.0151567)
(-0.00671621 -0.0917678 0.0574859)
(0.00125242 -0.142234 0.111475)
(0.0536723 0.00816001 0.00175141)
(0.022392 -0.0196414 0.080738)
(0.0520483 0.100484 -0.125941)
(0.0581644 0.138835 -0.172431)
(0.0150524 0.143887 -0.228138)
(0.0324795 0.125897 -0.130162)
(0.0390215 0.160955 -0.169304)
(0.030823 -0.074201 0.0825771)
(0.016428 0.182537 -0.0410011)
(0.0412101 0.173725 -0.0111033)
(0.0436097 0.035671 0.105013)
(0.0139369 0.238515 0.00898739)
(0.0800187 0.145527 -0.194656)
(0.0772219 0.164047 -0.190837)
(-0.144772 -0.0968122 0.0755919)
(0.0305862 0.0590568 -0.131596)
(-0.052926 0.00251854 -0.0728716)
(-0.0504035 0.0333122 -0.0227581)
(-0.19319 -0.0575346 0.156662)
(0.0297232 0.0736627 -0.0937733)
(-0.0424065 0.0260838 -0.0293369)
(-0.0254679 0.196724 -0.112206)
(-0.0423526 0.0896332 -0.0309302)
(-0.0510702 0.108564 -0.0723969)
(-0.00345591 0.179849 -0.0203399)
(-0.0301929 0.225835 -0.101175)
(-0.00160859 0.178898 -0.0174584)
(-0.0384791 0.121144 -0.0259949)
(-0.0827707 0.186692 -0.0255993)
(0.0248645 0.0258602 -0.214539)
(0.0537501 0.0453991 -0.178537)
(0.0402137 0.0494674 -0.0426682)
(0.127794 0.0282951 -0.198348)
(0.0460744 0.0289126 -0.124666)
(0.0591157 0.0459737 -0.0503576)
(0.11052 0.0154175 -0.186553)
(-0.0291752 0.0318291 -0.0306749)
(0.171174 0.016103 -0.243407)
(0.131505 0.0137702 -0.0257367)
(-0.014243 0.0650729 -0.00341676)
(0.158119 -0.0416692 -0.188637)
(-0.0456004 0.0770454 -0.0080486)
(-0.0183222 -0.0112607 -0.0276199)
(0.0154078 -0.027869 0.0108131)