/*--------------------------------*- C++ -*----------------------------------*\
| =========                 |                                                 |
| \\      /  F ield         | OpenFOAM: The Open Source CFD Toolbox           |
|  \\    /   O peration     | Version:  5.x                                   |
|   \\  /    A nd           | Web:      www.OpenFOAM.org                      |
|    \\/     M anipulation  |                                                 |
\*---------------------------------------------------------------------------*/
FoamFile
{
    version     2.0;
    format      ascii;
    class       volScalarField;
    location    "0.2";
    object      voidfraction;
}
// * * * * * * * * * * * * * * * * * * * * * * * * * * * * * * * * * * * * * //

dimensions      [0 0 0 0 0 0 0];

internalField   nonuniform List<scalar> 
10571
(
0.99425
0.928135
0.967618
0.992395
0.957496
0.969696
0.987227
0.988238
0.953615
0.94037
0.999574
0.995394
0.991117
0.975045
0.966903
0.944991
0.976894
0.989853
0.991872
0.940586
0.91517
0.954635
0.972235
0.956778
0.992068
0.948607
0.995928
0.999969
0.992723
0.995958
1
0.996086
0.992553
0.981212
0.990781
1
0.995954
0.997375
0.989641
0.989565
0.992861
0.993231
0.997315
0.985181
0.986466
0.962789
0.993953
0.968704
0.994092
0.918359
0.999372
0.998183
0.983272
0.994241
0.989979
0.996405
0.985098
0.982901
0.996718
0.999868
0.995262
0.998114
0.98735
0.987428
0.988921
0.998961
0.995923
0.996706
0.985765
0.958751
0.991566
0.973201
0.995055
0.92878
0.997951
0.997074
0.994692
0.995492
0.998894
0.99484
0.987912
0.962013
0.995494
0.997376
0.999038
0.995631
0.981281
0.954356
0.99145
0.994684
0.997919
0.991916
0.954928
0.971139
0.993427
0.985442
0.997252
0.926696
0.999022
0.992633
0.992233
0.99632
0.999556
0.991812
0.992122
0.956584
1
0.992703
0.993159
0.998447
0.99469
0.932751
0.990651
0.996112
0.998422
0.997318
0.975974
0.968253
0.997524
0.986473
0.99945
0.923771
0.999359
0.994616
0.99556
0.999459
0.999221
0.996118
0.992698
0.970583
0.648426
1
0.997464
0.997847
0.995305
0.990543
0.968086
0.466388
0.99164
0.997021
0.99235
0.996991
0.96432
0.975297
0.993869
0.975527
1
0.915588
1
0.994886
0.998042
0.999358
0.999666
0.998916
0.995719
0.9803
1
0.99956
0.995704
0.998592
0.990103
0.993468
0.979511
1
0.987729
0.996625
0.993379
0.988878
0.97607
1
0.969062
0.990547
0.976921
1
0.927294
0.999021
0.995768
0.989544
0.99875
0.997074
0.999121
0.996335
0.984103
1
1
0.998072
0.999513
0.998007
0.995111
0.976293
1
0.993113
0.998215
0.996193
0.998914
0.976802
1
0.975413
0.998792
0.979263
1
0.9469
0.998718
0.995463
0.990415
0.996789
0.994056
0.99441
0.995949
0.980134
1
0.99989
0.99841
0.998878
0.998749
0.996567
0.968116
1
0.992722
0.995629
0.996622
0.999015
0.965051
0.966003
0.998248
0.992231
0.997471
0.939679
1
0.995094
0.991962
0.99652
0.997798
0.99215
0.989316
0.96867
0.997911
0.998376
0.997648
0.998211
0.992722
0.970476
0.988783
0.994742
0.994193
0.999664
0.945603
0.981918
0.997675
0.984798
1
0.963094
0.998685
0.995504
0.991647
1
0.99291
0.992114
0.988524
0.977576
1
0.995368
0.991811
0.995507
0.992886
0.974196
0.991009
0.99328
0.991787
0.998029
0.965053
0.986797
0.993387
0.970245
1
0.96892
0.999022
0.99527
0.995735
0.998075
0.993846
0.992808
0.991656
0.979664
1
0.99574
0.994154
0.995925
0.992659
0.974195
0.990499
0.993873
0.99453
0.986517
0.978884
0.9789
0.997645
0.984459
1
0.940024
0.998078
0.993277
0.998167
0.998041
0.997562
0.993441
0.991989
0.979845
1
0.998039
0.994226
0.997979
0.994744
0.952116
0.988364
0.995659
0.992966
0.998965
0.95198
0.981145
0.995259
0.994329
1
0.959344
0.999764
0.996487
0.989545
0.997197
0.99818
0.996565
0.992735
0.980772
1
0.998073
0.997496
0.998203
0.994054
0.954681
0.985208
0.995118
0.992282
1
0.959812
0.975842
0.994172
0.990408
1
0.982472
0.999326
0.997703
0.996215
0.997872
0.998302
0.997252
0.994758
0.982904
1
0.997431
0.999173
0.997131
0.992514
0.964053
0.995701
0.996128
0.995521
0.997229
0.978997
0.963336
0.99852
0.984737
1
0.982024
0.999022
0.996115
0.990957
0.998311
0.987948
0.996769
0.994689
0.978717
1
0.995099
0.998811
0.998134
0.991942
0.949843
0.994618
0.995203
0.995755
0.999032
0.971435
0.967402
0.997615
0.975636
1
0.97917
1
0.996082
0.993991
0.999325
0.994933
0.992067
0.993861
0.973984
1
0.997398
0.994638
0.999005
0.993053
0.948962
0.988305
0.993301
0.993107
0.99803
0.938519
0.971273
0.995712
0.983684
0.996922
0.973626
0.998112
0.998379
0.992579
0.999088
0.994659
0.996419
0.995711
0.983832
1
0.997195
0.994184
0.999005
0.993276
0.942643
0.991733
0.991848
0.991425
1
0.96906
0.974994
0.998249
0.97907
1
0.976874
0.999629
0.99669
0.996456
1
0.995204
0.995878
0.994386
0.992364
1
0.999797
0.9963
0.999175
0.993924
0.930627
0.991943
0.994137
0.992941
1
0.9433
0.974297
0.997434
0.9867
1
0.979953
0.99973
0.998075
0.996155
0.997738
0.996387
0.998081
0.994899
0.981434
1
0.99804
0.996584
0.999551
0.994431
0.9111
0.988547
0.995401
0.994817
0.999933
0.97144
0.985096
0.998219
0.97795
1
0.967694
0.99609
0.997197
0.993541
0.998075
0.99504
0.998526
0.996414
0.9931
0.997032
0.99902
0.9944
0.99873
0.994151
0.899885
0.995941
0.997771
0.996087
0.998698
0.97515
0.980294
0.998792
0.98453
1
0.969986
0.998955
0.998953
0.991078
0.996927
0.98593
0.997083
0.995957
0.993991
1
0.997263
0.995965
0.998141
0.995963
0.898162
0.989449
0.994509
0.996725
1
0.98355
0.976732
0.998823
0.9923
1
0.983705
0.99882
0.992839
0.996035
0.993855
0.988547
0.989243
0.996075
0.992751
1
0.988915
0.986369
0.997549
0.996048
0.874826
0.989178
0.994145
0.996867
1
0.9755
0.948083
0.999608
0.97368
1
0.981913
0.999292
0.987367
0.993632
0.99821
0.992236
0.985067
0.996919
0.988061
1
0.996857
0.982568
0.981651
0.992331
0.842392
0.994559
0.987673
0.996087
0.998064
0.9734
0.950212
0.998551
0.97893
1
0.994121
0.997202
0.992637
0.995645
0.996421
0.993964
0.988537
0.996878
0.977826
1
0.985096
0.997327
0.979541
0.994407
0.820416
0.992365
0.979048
0.990128
0.998431
0.96997
0.959465
0.993298
0.97284
1
0.986618
1
0.994123
0.991618
0.997265
0.987597
0.993223
0.99786
0.983757
1
0.99804
0.991
0.993789
0.995517
0.815126
0.992094
0.993564
0.985766
0.996462
0.97515
0.973788
0.997675
0.98131
0.996811
0.984715
0.999663
0.994967
0.993452
0.990546
0.991389
0.991434
0.997718
0.991006
0.997471
0.985333
0.992023
0.997348
0.992911
0.771507
0.989779
0.987507
0.986425
0.992523
0.97025
0.961675
0.993237
0.97508
1
0.995521
0.995618
0.996589
0.989066
0.995137
0.978314
0.993272
0.996862
0.987092
1
0.998986
0.991038
0.988256
0.991865
0.775074
0.994888
0.985517
0.993613
0.995994
0.94848
0.96272
0.996226
0.96864
0.996922
0.995688
0.99518
0.996217
0.996155
0.996049
0.977414
0.995042
0.994261
0.991433
0.99934
0.996384
0.97553
0.994386
0.986621
0.76655
0.996332
0.985945
0.989044
0.988116
0.95828
0.96512
0.994474
0.9615
0.996812
0.99832
0.993629
0.995102
0.993782
0.997468
0.982275
0.984073
0.992068
0.989842
1
0.997938
0.983334
0.992922
0.98264
0.73469
0.991191
0.981055
0.980255
0.976032
0.92447
0.967056
0.989885
0.98194
0.996591
0.996136
0.99437
0.999662
0.996695
0.998075
0.984381
0.986127
0.98662
0.990384
1
1
0.979472
0.987095
0.968
0.713807
0.990138
0.978794
0.977979
0.977301
0.891918
0.975302
0.987077
0.98152
0.996152
0.999328
0.999022
0.998987
0.994501
0.995442
0.986456
0.990789
0.983321
0.98957
0.998021
0.998682
0.989696
0.977597
0.949348
0.707636
0.995851
0.976807
0.966983
0.960509
0.820027
0.975069
0.975725
0.96199
0.993622
0.995129
0.997505
0.997095
0.991827
0.997062
0.996643
0.989604
0.973867
0.992943
0.996812
1
0.98688
0.973071
0.875588
0.618947
0.994738
0.979852
0.933166
0.919584
0.626124
0.987186
0.971163
0.93147
0.99956
0.998376
0.996696
0.998041
0.996394
0.997974
0.996639
0.984461
0.986406
0.990423
1
1
0.991846
0.962736
0.744148
0.530137
0.997775
0.983353
0.884233
0.68698
0.596934
0.996167
0.948485
0.737359
0.997911
0.994456
0.997034
0.99902
0.998287
0.96586
0.996925
0.990202
0.990069
0.982746
0.99989
1
0.995861
0.968746
0.636942
0.459525
0.997385
0.990011
0.825278
0.449636
0.542333
0.99667
0.936709
0.553838
1
0.994064
0.988471
0.99902
0.998257
0.992335
0.999008
0.997709
0.997553
0.993409
1
0.997094
0.99985
0.963042
0.618671
0.459597
0.999278
0.99809
0.807231
0.44049
0.513493
0.997716
0.915119
0.540659
0.99989
0.99832
0.985201
0.998041
0.998257
0.985885
0.998859
0.99769
0.998595
0.993215
1
0.997871
0.999673
0.968436
0.625253
0.472659
1
0.999063
0.813134
0.442459
0.519739
0.998955
0.928767
0.557809
0.995491
0.995352
0.987122
0.996993
0.997687
0.988012
0.998958
0.999666
0.999172
0.989725
0.99901
0.998276
0.999519
0.98469
0.662384
0.482183
0.999429
0.999297
0.820281
0.438554
0.52597
0.996632
0.934656
0.543388
0.993512
0.992497
0.99228
0.993818
0.997717
0.994867
0.999226
0.999893
0.999221
0.992866
0.997031
0.999087
0.99945
0.997584
0.732613
0.555337
0.997415
0.999378
0.850347
0.447266
0.542895
0.99547
0.93378
0.573838
0.987464
0.993223
0.987358
0.998649
1
0.992572
0.999451
0.999766
0.998696
0.989418
0.996811
0.995166
0.999108
0.999768
0.806952
0.634242
0.999098
0.9991
0.905582
0.477443
0.554165
0.992954
0.973699
0.559508
0.993953
0.998376
0.989988
0.997804
0.996906
0.990477
0.999329
0.999739
0.999035
0.985852
0.990322
0.994524
0.99955
1
0.886593
0.737228
0.999128
0.998987
0.954196
0.551951
0.568445
0.984204
0.98258
0.572788
0.996812
0.996192
0.993257
0.996825
0.996035
0.987742
0.999763
0.999559
0.999164
0.969649
0.989334
0.995404
0.999885
0.999667
0.944824
0.814884
0.999098
0.998022
0.988009
0.756114
0.576355
0.985248
0.963409
0.606038
0.992415
0.995744
0.987394
0.996487
0.998889
0.995881
0.999561
0.999701
0.99897
0.94845
0.992742
0.99395
0.999769
0.999996
0.981039
0.843238
0.996723
0.998651
0.999313
0.922955
0.598685
0.978321
0.915572
0.572368
0.989776
0.986113
0.994674
0.996859
0.985582
0.984029
0.999889
0.999555
0.998982
0.892869
0.987028
0.994153
0.999777
1
0.996332
0.82897
0.993597
0.999354
1
0.998131
0.577335
0.959845
0.856816
0.655279
0.971858
0.968695
0.995045
0.995879
0.981167
0.98808
1
1
0.999883
0.786048
0.992412
0.99706
1
1
0.999955
0.862348
0.987945
0.999875
0.999879
1
0.639525
0.857116
0.842501
0.816298
0.925907
0.776882
0.95217
0.993515
0.791451
0.903296
1
1
0.996995
0.670433
0.927874
0.95904
1
1
0.999566
0.951744
0.862191
0.990851
1
1
0.683841
0.694096
0.911374
0.881909
0.698645
0.76706
0.756292
0.723872
0.768152
0.755787
0.999874
1
0.98532
0.888606
0.784564
0.674243
0.999885
1
0.989506
0.96021
0.59761
0.961916
0.995961
0.999366
0.865234
0.910281
0.949301
0.899969
1
1
0.976195
0.998547
0.99997
0.995172
0.983598
0.998384
0.955237
0.998721
1
0.997905
0.9951
0.999319
0.949591
0.950383
1
0.960426
0.958
0.910704
0.99797
1
0.978317
1
1
1
1
0.998648
1
1
0.932433
0.933484
0.98259
1
1
0.999594
0.947963
0.911289
0.962378
0.999637
1
0.977554
0.979952
0.972594
0.99797
1
0.999305
1
1
1
1
1
1
1
0.999733
0.996462
1
1
1
1
0.992915
0.988744
0.999518
0.997007
1
1
1
0.999933
1
1
1
0.99797
1
1
1
1
1
1
1
1
1
1
1
1
1
1
0.999218
0.999123
1
1
1
0.998999
0.98859
1
1
1
1
1
1
1
1
1
1
1
1
1
1
1
1
1
1
1
1
1
0.999883
1
0.99664
1
1
1
1
1
1
1
1
1
1
1
1
1
1
1
1
1
1
1
1
1
1
1
0.99867
1
1
1
1
1
1
1
1
1
1
1
1
1
1
1
1
1
1
1
1
1
1
1
1
1
1
1
1
1
1
1
1
1
1
1
1
1
1
1
1
1
1
1
1
1
1
1
1
1
1
1
1
1
1
1
1
1
1
1
1
1
1
1
1
1
1
1
1
1
1
1
1
1
1
1
1
1
1
1
1
1
1
1
1
1
1
1
1
1
1
1
1
1
1
1
1
1
1
1
1
1
1
1
1
1
1
1
1
1
1
1
1
1
1
1
1
1
1
1
1
1
1
1
1
1
1
1
1
1
1
1
1
1
1
1
1
1
1
1
1
1
1
1
1
1
1
1
1
1
1
1
1
1
1
1
1
1
1
1
1
1
1
1
1
1
1
1
1
1
1
1
1
1
1
1
1
1
1
1
1
1
1
1
1
1
1
1
1
1
1
1
1
1
1
1
1
1
1
1
1
1
1
1
1
1
1
1
1
1
1
1
1
1
1
1
1
1
1
1
1
1
1
1
1
1
1
1
1
1
1
1
1
1
1
1
1
1
1
1
1
1
1
1
1
1
1
1
1
1
1
1
1
1
1
1
1
1
1
1
1
1
1
1
1
1
1
1
1
1
1
1
1
1
1
1
1
1
1
1
1
1
1
1
1
1
1
1
1
1
1
1
1
1
1
1
1
1
1
1
1
1
1
1
1
1
1
1
1
1
1
1
1
1
1
1
1
1
1
1
1
1
1
1
1
1
1
1
1
1
1
1
1
1
1
1
1
1
1
1
1
1
1
1
1
1
1
1
1
1
1
1
1
1
1
1
1
1
1
1
1
1
1
1
1
1
1
1
1
1
1
1
1
1
1
1
1
1
1
1
1
1
1
1
1
1
1
1
1
1
1
1
1
1
1
1
1
1
1
1
1
1
1
1
1
1
1
1
1
1
1
1
1
1
1
1
1
1
1
1
1
1
1
1
1
1
1
1
1
1
1
1
1
1
1
1
1
1
1
1
1
1
1
1
1
1
1
1
1
1
1
1
1
1
1
1
1
1
1
1
1
1
1
1
1
1
1
1
1
1
1
1
1
1
1
1
1
1
1
1
1
1
1
1
1
1
1
1
1
1
1
1
1
1
1
1
1
1
1
1
1
1
1
1
1
1
1
1
1
1
1
1
1
1
1
1
1
1
1
1
1
1
1
1
1
1
1
1
1
1
1
1
1
1
1
1
1
1
1
1
1
0.544466
0.580765
0.513102
0.527167
0.614808
0.546609
0.533606
0.476169
0.529734
0.521443
0.506654
0.519937
0.514655
0.494014
0.512669
0.551718
0.525692
0.517417
0.500372
0.533277
0.544826
0.48782
0.509131
0.47674
0.482996
0.493462
0.507839
0.632615
0.536746
0.488637
0.516225
0.537997
0.543574
0.5832
0.548971
0.609003
0.587329
0.554193
0.561056
0.574784
0.549557
0.476612
0.469476
0.473307
0.459477
0.496501
0.469943
0.510557
0.656736
0.567813
0.535965
0.521885
0.558501
0.520719
0.519437
0.6084
0.594842
0.593451
0.56591
0.542399
0.530854
0.518374
0.538008
0.48088
0.469809
0.480297
0.470476
0.481121
0.533127
0.48798
0.501213
0.520238
0.500971
0.505349
0.492158
0.536357
0.535341
0.477265
0.47727
0.524765
0.510919
0.487958
0.476983
0.470827
0.478009
0.475327
0.48955
0.507035
0.510429
0.494821
0.492365
0.573129
0.521436
0.517738
0.61079
0.506248
0.965006
0.982779
0.986476
0.984022
0.983979
1
0.994073
0.996472
0.983629
0.978869
0.990878
0.995214
0.991444
0.955522
0.994595
0.952547
0.984988
0.961195
0.968161
0.962388
0.938404
0.990304
0.988096
0.991559
0.951279
0.953213
0.940115
0.993306
0.985871
0.994713
0.988451
0.914751
0.954588
0.975991
0.991376
0.985654
0.990462
0.976877
0.992643
0.943809
0.965805
0.986613
0.988358
0.990874
0.989602
0.966333
0.990136
0.994885
0.987724
0.969329
0.946894
0.99254
0.998727
0.98521
0.954316
0.991388
0.967204
0.942164
0.954623
0.987628
0.999971
0.966789
0.973194
0.931859
0.936191
0.93796
0.992552
0.985967
0.970354
0.981061
0.971899
0.911751
0.945653
0.971584
0.9522
0.981845
0.994126
0.972012
0.971217
0.97871
0.98858
0.98181
0.989717
0.970655
0.972273
0.986319
0.990674
0.980264
0.993754
0.996742
0.988774
0.990928
0.989637
0.992119
0.997828
0.990069
0.993118
0.996095
0.99605
0.97593
0.982722
0.982341
0.983904
0.997381
0.934186
0.990296
0.986606
0.99817
0.979323
0.975779
0.979156
0.990122
0.978861
0.991769
0.983773
0.951054
0.964202
0.990059
0.995176
0.991048
0.996673
0.991203
0.994533
0.985262
0.985735
0.994765
0.98123
0.990433
0.994933
0.993664
0.999891
0.992876
0.993154
0.988956
0.982899
0.992501
0.996849
0.980386
0.99073
0.990054
0.999131
0.977883
0.984788
0.993431
0.999214
0.971234
0.981456
0.984654
0.989449
0.967561
0.998374
0.983571
0.981694
0.966247
0.976458
0.944473
0.937661
0.987992
0.978361
0.958769
0.985571
0.984262
0.984737
0.994965
0.991171
0.986225
0.994465
0.962164
0.965824
0.966999
0.990591
0.979581
0.992513
0.99056
0.983347
0.994183
0.991942
0.995554
0.991
0.992854
0.994678
0.993852
0.985125
0.986889
0.986529
0.984416
0.9877
0.997297
0.930521
0.984843
0.984333
0.999903
0.974797
0.999067
0.985293
0.988856
0.969133
0.99814
0.988471
0.950507
0.950838
0.991187
0.988841
0.995328
0.990592
0.986499
0.993006
0.988381
0.996824
0.973129
0.984002
0.995162
0.988735
0.99287
0.993743
0.994512
0.993596
0.990917
0.971759
0.986605
0.996814
0.97638
0.993712
0.989917
0.997746
0.980793
0.983884
0.990345
0.999347
0.958348
0.987232
0.989649
0.976788
0.952759
0.990364
0.976678
0.979539
0.951077
0.977089
0.946595
0.9342
0.984118
0.993226
0.963891
0.995391
0.970518
0.986973
0.984705
0.996596
0.992928
0.991342
0.994133
0.963791
0.963139
0.997253
0.965992
0.992383
0.990545
0.965419
0.97915
0.995767
0.994665
0.988348
0.993855
0.982235
0.985579
0.974059
0.977034
0.977507
0.984039
0.985998
0.999255
0.931135
0.985962
0.984311
0.99909
0.957818
0.997702
0.986975
0.990743
0.965068
0.997659
0.983415
0.961781
0.959028
0.992424
0.990329
0.987969
0.986731
0.992084
0.95763
0.960804
1
0.963309
0.912837
0.991467
0.986543
0.987548
0.996812
0.986921
0.977976
0.994389
0.977461
0.939627
0.987865
0.975815
0.983204
0.98396
1
0.940881
0.988518
0.994562
1
0.941289
0.992406
0.977596
0.990767
0.949089
0.999031
0.982601
0.990018
0.947044
0.974996
0.93148
0.939278
0.996351
0.968735
0.959081
0.990547
0.979697
0.990979
0.98574
0.994112
0.992754
0.99594
0.983609
0.945638
0.964522
0.989775
0.973417
0.976717
0.994722
0.975579
0.988219
0.991094
0.975719
0.995822
0.986212
0.988919
0.976415
0.988969
0.96197
0.970256
0.981611
0.989306
0.997561
0.930608
0.987267
0.982391
1
0.96723
0.990896
0.990775
0.993877
0.966855
0.999035
0.989586
0.955439
0.954259
0.979915
0.996042
0.979078
0.984209
0.996811
0.99473
0.924869
0.955253
0.981354
0.956197
0.897821
0.981342
0.987842
1
0.988154
0.987066
0.935953
0.973474
0.951705
0.897729
0.971542
0.984585
0.969794
0.999077
0.953091
0.988317
0.990288
1
0.967262
0.990555
0.985019
0.988751
0.960761
1
0.984932
0.984266
0.96222
0.968959
0.925769
0.940528
0.98934
0.973441
0.980524
0.982536
0.989024
0.980886
0.978382
0.993929
0.984793
0.994623
0.962484
0.95267
0.928827
0.997471
0.982776
0.994245
0.996152
0.993226
0.989459
0.990179
0.981397
1
0.993422
0.995504
0.98478
0.990861
0.963846
0.951096
0.988284
0.986411
1
0.913741
0.981091
0.98328
1
0.964795
0.99903
0.9926
0.993295
0.963177
1
0.991357
0.954533
0.96523
0.986724
1
0.997577
0.987304
0.994722
0.979432
0.916444
0.97638
0.738523
0.983833
0.990376
0.976208
0.983762
0.440992
0.494141
0.402317
0.998762
0.938613
0.986448
0.9017
0.994061
0.990009
1
0.993121
0.984392
0.743564
0.971491
0.898398
0.971753
0.992275
0.97835
0.994433
0.393848
0.632456
0.425696
0.978541
0.901391
0.993485
0.936492
0.987094
0.979419
0.999934
0.960793
0.991432
0.990797
1
0.949877
0.991674
0.983554
0.978021
0.968106
0.989065
0.98487
0.985338
0.975834
0.964244
0.942627
0.951371
0.983204
0.992756
0.98606
0.98755
1
0.980206
0.997037
0.98988
0.980979
0.996817
0.97583
0.924504
0.927013
0.996812
0.977161
0.967773
1
0.973831
0.966654
0.996787
0.9902
1
0.99203
0.973401
0.989901
0.984487
0.944895
0.946984
0.979022
0.985247
1
0.951268
0.979261
0.979136
1
0.963755
1
0.991955
0.992064
0.976615
1
0.993955
0.970483
1
0.952926
0.99887
1
1
1
1
0.998065
0.992522
0.949987
0.983935
0.996811
0.95347
0.996621
0.98345
0.99327
0.987089
0.994964
0.982261
0.989877
1
1
1
1
1
1
1
0.981394
0.981642
1
0.972181
0.977692
0.994132
0.989566
1
0.979945
0.989917
0.987643
0.997798
1
1
1
1
1
1
1
0.983884
0.981512
1
0.925464
0.988949
0.989473
1
0.934012
0.987586
0.98821
0.972607
0.969581
0.994872
0.989014
0.984817
0.969066
1
0.966722
0.998725
1
1
1
0.928911
0.897705
0.99003
0.990452
0.964841
0.991117
1
0.993442
0.999781
0.996497
0.993871
0.996818
0.980236
0.936564
0.939492
1
0.97507
0.969017
1
0.974064
0.967684
0.985668
0.966436
1
0.98391
0.970804
0.968775
0.97926
0.951373
0.966978
0.988252
0.989956
0.997166
0.945555
0.988732
0.994426
0.993192
0.953744
0.986325
0.988326
0.985683
0.975166
0.993604
0.992181
0.971344
0.998867
0.968053
0.999703
1
1
1
1
0.97751
1
0.973039
0.992219
0.996811
0.976644
0.989701
0.984308
0.98854
0.977015
0.99419
0.965966
0.990156
1
1
1
1
1
1
1
0.978999
0.983385
1
0.985545
0.988381
0.993212
0.984896
0.99653
0.978017
0.990491
0.981688
0.995875
1
1
1
1
1
1
1
0.963373
0.964489
1
0.940651
0.988555
0.988872
1
0.951621
0.994247
0.988406
0.984764
0.959791
0.998981
0.988536
0.987419
0.95815
0.999067
0.983922
1
1
1
1
0.912749
0.906733
0.993958
1
0.946333
0.994804
0.988257
0.991699
1
0.999698
0.992047
0.998793
0.98106
0.941514
0.960407
1
0.981652
0.976467
1
0.98084
0.982343
0.989151
0.980594
1
0.987424
0.985435
0.985853
0.974473
0.968303
0.960432
0.986694
0.985932
0.995603
0.953063
0.990501
0.986798
0.999967
0.961923
0.997074
0.988217
0.993489
0.975489
0.998999
0.994672
0.969922
0.975623
0.982581
0.996811
0.980825
0.990981
1
0.98858
0.990287
0.984644
0.984008
0.973561
0.994276
0.970839
0.979131
1
1
1
1
1
1
1
0.985636
0.989272
0.99989
0.987576
0.980094
0.979022
0.979291
0.993434
0.971386
0.969906
0.989629
0.994603
1
1
1
1
1
1
1
0.971606
0.969235
1
0.976429
0.990856
0.988873
0.999043
0.981268
0.9901
0.982785
0.988911
0.964717
0.999021
0.984182
0.987537
0.970894
0.949256
0.927863
0.927794
0.990211
0.975526
0.977814
0.984925
0.989354
0.993637
0.990782
0.995108
0.996005
0.989136
0.989282
0.929112
0.962711
1
0.990905
0.981344
1
0.984287
0.977651
0.99394
0.979512
1
0.996516
0.983855
0.989607
0.983125
0.959805
0.948731
0.986427
0.986143
1
0.954187
0.989604
0.990405
0.997754
0.969649
1
0.992657
0.989054
0.970734
0.999041
0.984765
0.955668
0.983172
0.980143
0.9989
0.975344
0.983937
1
0.970226
0.960427
0.966979
0.968798
0.972244
0.951512
0.988849
0.98114
0.996811
0.985395
0.982031
0.97725
0.992855
0.977748
0.944659
0.986839
0.981862
0.979281
1
0.960512
0.991826
0.990016
0.998087
0.964113
0.985953
0.991744
0.989725
0.965439
0.998393
0.985345
0.983746
0.974418
0.951173
0.949066
0.916954
0.986949
0.996817
0.97948
0.993415
0.998902
0.992943
1
0.994414
0.994807
0.99155
0.991876
0.961597
0.971145
1
0.986068
0.975774
1
0.985721
0.984224
0.993821
0.962491
1
0.988793
0.981885
0.973508
0.982434
0.955698
0.9736
0.989095
0.989988
0.982488
0.958894
0.990055
0.992372
0.97852
0.972647
0.998846
0.985899
0.989668
0.971021
0.997859
0.985037
0.971151
0.974739
0.991369
1
0.986885
0.993575
1
0.993307
0.968317
0.962608
0.97745
0.9758
0.969122
0.983063
0.979321
1
0.988881
0.985401
0.935847
0.989811
0.97836
0.941596
0.980147
0.970632
0.980678
0.999043
0.960064
0.986195
0.991641
0.998087
0.969121
0.979083
0.983648
0.979869
0.98221
0.992023
0.987687
0.982035
0.97419
0.966826
0.926748
0.928988
0.994623
1
0.977699
0.990063
0.996817
0.990044
1
0.996769
0.994616
0.999561
0.98348
0.974422
0.939575
1
0.987076
0.998062
1
0.986573
0.995125
0.995305
0.984595
1
0.997062
0.989975
0.986685
0.990589
0.961481
0.954237
0.986101
0.992343
0.989261
0.947024
0.987869
0.994339
0.990433
0.978318
0.998155
0.990235
0.991469
0.970167
0.999012
0.992651
0.9796
0.979094
0.985331
1
0.990066
0.986454
0.996921
0.983374
0.979373
0.98218
0.982292
0.973318
0.984928
0.993395
0.988383
1
0.995213
0.992217
0.93121
0.986227
0.962493
0.932408
0.996053
0.9744
0.9887
0.989051
0.98217
0.99104
0.993235
0.980708
0.980596
0.99334
0.990154
0.983342
0.978534
0.997597
0.991706
0.979936
0.961974
0.961934
0.942071
0.962501
0.993204
1
0.971583
0.995621
0.996817
0.996553
1
0.997343
0.994113
1
0.984179
0.949681
0.953514
1
0.986264
0.97511
1
0.984174
0.965421
0.996062
0.98653
1
0.996547
0.986762
0.986614
0.981595
0.971442
0.96385
0.98724
0.988619
0.994696
0.94232
0.989756
0.988858
0.998666
0.96842
0.999242
0.985177
0.996936
0.975217
0.997858
0.993314
0.984122
0.985869
0.978597
0.99989
0.969231
0.980803
1
0.952393
0.983872
0.986357
0.98116
0.986715
0.976785
0.991457
0.987376
1
0.985307
0.981878
0.961091
0.982077
0.95326
0.944274
0.985985
0.982422
0.972656
0.989217
0.979639
0.991191
0.992423
0.994559
0.957816
0.992372
0.987372
0.990879
0.968071
0.997496
0.989751
0.985345
0.980389
0.953652
0.96362
0.960822
0.994171
1
0.976809
0.995681
1
0.995933
1
0.997916
0.996746
1
0.996569
0.946336
0.964666
0.995712
0.979995
0.967965
0.997911
0.984755
0.973415
0.987339
0.980104
1
0.987279
0.974646
0.985011
0.976087
0.978268
0.964198
0.985413
0.989453
0.997625
0.978776
0.989277
0.991807
0.994111
0.976116
1
0.990742
0.991077
0.965608
1
0.989652
0.980831
0.987057
0.983435
1
0.970745
0.983706
1
0.985615
0.983084
0.971725
0.977554
0.980542
0.969965
0.977218
0.967744
1
0.982308
0.974676
0.916911
0.991444
0.964173
0.928562
0.983274
0.973703
0.967914
0.996538
0.957592
0.994007
0.991642
0.998318
0.96721
0.992796
0.993746
0.981575
0.979371
0.997429
0.989445
0.982882
0.971855
0.966883
0.947459
0.900166
0.994171
1
0.961246
0.992359
0.993634
0.996243
1
0.996799
0.997754
0.996817
0.994119
0.978953
0.989407
1
0.987541
0.987919
1
0.984677
0.99349
0.990247
0.966479
1
0.991701
0.98382
0.979364
0.983408
0.967193
0.987253
0.978913
0.990556
0.968113
0.979112
0.988798
0.993178
0.96102
0.973138
1
0.992648
0.995043
0.977802
1
0.992043
0.975655
0.981951
0.973721
1
0.990703
0.99253
1
0.999122
0.974036
0.965345
0.977787
0.976215
0.958635
0.98567
0.989739
1
0.9867
0.988228
0.927025
0.987998
0.959458
0.881635
0.985907
0.967983
0.967007
0.997692
0.973565
0.991343
0.994498
1
0.984252
0.984472
0.992038
0.988082
0.978298
0.99803
0.993685
0.982669
0.981124
0.982427
0.91038
0.920874
0.994141
1
0.967866
0.993778
0.990451
0.997792
0.998903
0.998551
0.993958
0.997915
0.975706
0.979441
0.985574
0.996811
0.987308
0.992612
0.996811
0.987038
0.995943
0.994033
0.978633
1
0.997183
0.992065
0.97539
0.987242
0.995473
0.99206
0.995357
0.993982
0.98269
0.98068
0.992602
0.993535
0.997137
0.969204
0.999044
0.988866
0.994803
0.977184
1
0.982603
0.959564
0.977194
0.99017
1
0.997971
0.992801
1
0.994185
0.971403
0.978767
0.982051
0.981843
0.968096
0.991336
0.992023
1
0.994547
0.991791
0.928344
0.989043
0.951446
0.904055
0.986449
0.980678
0.982771
0.995779
0.982058
0.983564
0.9908
0.984601
0.980877
0.986802
0.993319
0.980784
0.972138
1
0.99094
0.985315
0.973551
0.977386
0.911919
0.933187
0.994171
0.997915
0.964692
0.992691
0.989354
0.993028
0.996817
0.997977
0.995662
1
0.989638
0.990104
0.983064
1
0.990056
0.994429
1
0.990946
0.998244
0.995124
0.994193
1
0.998243
0.99822
0.995049
0.998467
0.990806
0.9837
0.991405
0.994727
0.997495
0.969591
0.992301
0.995054
0.996843
0.982857
0.996178
0.974795
0.994082
0.971851
0.989356
0.986265
0.980688
0.985381
0.999923
1
0.999122
0.997755
1
0.999939
0.979118
0.969964
0.979419
0.976217
0.967438
0.993336
0.997909
1
0.998939
0.996089
0.917569
0.975411
0.945676
0.890654
0.982542
0.98577
0.99177
0.984241
0.970526
0.986138
0.992152
0.988787
0.985715
0.988527
0.988864
0.978593
0.986434
0.999032
0.987219
0.972395
0.967509
0.94407
0.957671
0.973626
0.993476
1
0.968214
0.995651
1
0.990083
1
0.998943
0.996824
1
0.98579
0.985853
0.980415
0.996812
0.989825
0.996064
0.996811
0.98959
0.994034
0.998213
0.99702
0.996811
0.998213
0.997058
0.99282
0.995956
0.984538
0.99192
0.994789
0.992881
0.999057
0.975303
0.987299
0.993027
0.998113
0.977406
0.997035
0.990166
0.995824
0.98601
0.992124
0.994282
0.986426
0.988599
0.995937
1
0.994913
0.992568
1
0.996729
0.97361
0.974475
0.980543
0.97419
0.964907
0.998031
0.992836
1
0.99794
0.998877
0.923833
0.977195
0.936275
0.903951
0.982732
0.986817
0.994629
0.99545
0.98549
0.988045
0.998136
0.994591
0.987401
0.986499
0.987678
0.987719
0.978415
0.999065
0.991915
0.987532
0.982477
0.966319
0.957606
0.95977
0.995682
0.996818
0.979284
0.990364
1
0.995004
1
0.99698
0.996397
1
0.979623
0.982928
0.980622
1
0.993152
0.990888
0.996811
0.989125
0.994216
0.994186
0.990479
1
0.995032
0.985637
0.986547
0.995258
0.980846
0.98781
0.98829
0.994787
0.998764
0.978103
0.995416
0.99279
0.995119
0.982414
0.992521
0.992286
0.996064
0.98786
0.992486
0.991073
0.976148
0.982927
0.996982
1
0.994186
0.993419
1
0.993791
0.978972
0.970081
0.979799
0.979207
0.971171
0.999
0.995896
1
0.995728
0.995121
0.87748
0.970387
0.910858
0.882604
0.979593
0.984305
0.993374
0.995978
0.978232
0.987288
0.987462
0.993734
0.982172
0.990131
0.996096
0.984861
0.975759
0.998063
0.990633
0.98589
0.98276
0.955045
0.958446
0.978031
0.992541
0.99155
0.97607
0.993445
0.992535
0.991558
0.997696
0.996134
0.995041
1
0.982424
0.979024
0.987455
0.996811
0.985414
0.994096
0.993622
0.985411
0.991794
0.996154
0.99582
1
0.999394
0.996516
0.996654
0.993655
0.983354
0.987462
0.987301
0.996038
0.998796
0.969647
0.983345
0.992729
0.996062
0.986122
0.991632
0.995099
0.994171
0.988928
0.995221
0.99534
0.984752
0.985026
0.997136
1
0.996306
0.992917
1
0.992973
0.979063
0.975911
0.994611
0.982052
0.984155
0.994608
0.993844
1
0.994152
0.988382
0.875392
0.984555
0.916633
0.878318
0.975836
0.989538
0.994768
0.995252
0.990665
0.990527
0.997594
0.999406
0.994825
0.989888
0.994876
0.986655
0.967905
0.998063
0.99283
0.983153
0.982138
0.976542
0.971881
0.983976
0.995863
0.996158
0.982809
0.994382
0.997476
0.988731
0.996817
0.995953
0.995894
0.993744
0.982144
0.971431
0.960199
0.996812
0.99323
0.993309
1
0.984675
0.993943
0.996457
0.997097
1
0.998061
0.992994
0.98745
0.988288
0.98412
0.962664
0.982211
0.989932
0.998243
0.970595
0.987388
0.984774
0.996876
0.984828
0.996508
0.99876
0.994742
0.989378
0.998517
0.995219
0.997272
0.992584
0.995279
0.996812
0.99455
0.988195
1
0.992821
0.980635
0.974038
0.98492
0.981691
0.973375
0.997304
0.993882
1
0.998243
0.994617
0.86803
0.98498
0.897432
0.835009
0.981916
0.993582
0.993513
1
0.981665
0.991708
0.990198
0.999044
0.981213
0.991856
0.992649
0.990211
0.984348
0.998998
0.99402
0.981024
0.977786
0.981234
0.977194
0.982299
0.996648
1
0.978474
0.994473
1
0.992796
1
0.997675
0.994693
1
0.986625
0.961323
0.960273
0.996152
0.987001
0.989586
0.997471
0.987113
0.987462
0.996547
0.995858
0.993513
0.995517
0.99791
0.993934
0.991913
0.979177
0.982166
0.984725
0.986685
0.996324
0.981743
0.987628
0.986919
0.984445
0.985671
0.996903
0.994131
0.994592
0.979038
0.990277
0.994825
0.987338
0.985938
0.988623
1
0.991098
0.994116
1
0.977646
0.972283
0.942466
0.989921
0.968829
0.943559
0.996395
0.995586
1
0.988729
0.979245
0.82089
0.983432
0.876326
0.802142
0.98118
0.987585
0.982351
0.998813
0.984084
0.996913
0.986378
0.995053
0.984701
0.996095
0.994815
0.989239
0.973894
1
0.994264
0.991212
0.989091
0.980043
0.976002
0.973906
0.996406
1
0.966666
0.99562
1
0.994346
1
0.999215
0.994577
1
0.983334
0.981811
0.983342
0.995822
0.987542
0.991251
0.997141
0.981154
0.988189
0.993065
0.981769
0.996811
0.987853
0.990671
0.984731
0.983339
0.980008
0.985722
0.990596
0.991987
0.995836
0.983255
0.988646
0.988023
0.996778
0.971563
0.991829
0.99519
0.988883
0.976231
0.996441
0.996732
0.993843
0.991466
0.992724
1
0.991491
0.99493
1
0.99152
0.955127
0.946976
0.985075
0.960718
0.943889
0.985218
0.99067
1
0.991304
0.985206
0.791881
0.979367
0.856369
0.810167
0.9818
0.988911
0.985419
0.994659
0.98746
0.992404
0.986318
0.987698
0.970748
0.987527
0.99332
0.976866
0.971238
0.998097
0.995698
0.984491
0.982025
0.957916
0.962713
0.978451
0.987316
0.997695
0.936661
0.988613
0.999122
0.992797
1
0.995349
0.99202
1
0.973321
0.974424
0.975188
0.997471
0.981658
0.986767
1
0.983789
0.996791
0.995699
0.996207
1
0.996517
0.993536
0.971694
0.986127
0.979802
0.979799
0.991195
0.98439
0.997137
0.9916
0.989664
0.987903
0.997689
0.982131
0.982736
0.991076
0.990596
0.98713
0.980489
0.988864
0.977477
0.984187
0.993266
1
0.998819
0.991678
1
0.988249
0.953251
0.962487
0.983446
0.943105
0.927826
0.992094
0.989082
1
0.994849
0.997212
0.833307
0.978942
0.842217
0.804671
0.977579
0.988353
0.992047
0.99423
0.97846
0.988438
0.990107
0.994921