/*--------------------------------*- C++ -*----------------------------------*\
| =========                 |                                                 |
| \\      /  F ield         | OpenFOAM: The Open Source CFD Toolbox           |
|  \\    /   O peration     | Version:  5.x                                   |
|   \\  /    A nd           | Web:      www.OpenFOAM.org                      |
|    \\/     M anipulation  |                                                 |
\*---------------------------------------------------------------------------*/
FoamFile
{
    version     2.0;
    format      ascii;
    class       volVectorField;
    location    "0.5";
    object      Us;
}
// * * * * * * * * * * * * * * * * * * * * * * * * * * * * * * * * * * * * * //

dimensions      [0 1 -1 0 0 0 0];

internalField   nonuniform List<vector> 
10571
(
(0.0662807 -0.0519071 -0.117637)
(0.011594 -0.030913 -0.0803269)
(-0.0108749 -0.100206 -0.0179069)
(-0.00576994 -0.17907 0.0518237)
(0.0603587 -0.14056 0.0690396)
(-0.0536377 -0.0427134 -0.0609845)
(-0.227813 -0.269365 0.120352)
(-0.227037 -0.267444 0.13206)
(-0.18228 -0.332877 0.122913)
(-0.101208 -0.221413 0.035447)
(-0.00662235 0.0232113 -0.331998)
(-0.187413 -0.029804 0.0731322)
(-0.291039 -0.28682 0.0738055)
(-0.248707 -0.323102 -0.0113742)
(-0.140969 -0.246396 -0.0879379)
(-0.0187298 -0.169566 -0.133942)
(-0.250933 -0.0579107 0.0935344)
(-0.304415 -0.233852 0.075635)
(-0.171398 -0.190875 -0.100611)
(-0.0638856 -0.116052 -0.154597)
(0.0278031 -0.0687363 -0.109913)
(-0.209488 -0.124776 -0.0386384)
(-0.109567 -0.0488098 -0.163452)
(-0.0271108 0.00168042 -0.121212)
(0 0 0)
(0.061372 -0.0469167 -0.354901)
(0.102783 -0.023472 -0.342076)
(0.1419 -0.00615426 -0.296114)
(0.0585894 -0.272339 0.0195285)
(0.0757718 -0.0253571 -0.370083)
(0.0754039 -0.030028 -0.147058)
(0.0493871 -0.111457 0.0151485)
(0.0085662 -0.142824 -0.0258131)
(-0.0235529 -0.0346483 -0.098446)
(0 0 0)
(0.0556662 0.0114973 -0.300686)
(-0.0217027 -0.00195581 -0.0311349)
(0.0352138 -0.0273179 -0.117637)
(0.0109564 -0.0708031 -0.201965)
(-0.00638554 -0.0998773 -0.21655)
(-0.345598 -0.0793809 0.111776)
(-0.0832466 -0.0350535 -0.0472492)
(-0.0117923 -0.0282192 -0.196575)
(-0.00274038 -0.0460651 -0.226899)
(0.0202228 -0.0420678 -0.196094)
(-0.00542904 -0.0255767 -0.152818)
(-0.0335552 -0.0256154 -0.219332)
(-0.00808251 -0.0028583 -0.19978)
(0.116797 0.0144146 -0.184693)
(0.0698803 -0.0513854 -0.292415)
(0.110209 -0.0112832 -0.285194)
(0.14776 0.021811 -0.244756)
(0.172665 0.0425263 -0.217417)
(0.0906435 -0.0346867 -0.31605)
(0.165952 0.0256629 -0.265251)
(0.196213 0.0729792 -0.205027)
(0.142531 0.0485955 -0.189734)
(0.0634672 0.116413 -0.202898)
(0 0 0)
(0.0812238 0.00997778 -0.227351)
(0.182297 0.0557107 -0.229544)
(0.117299 0.0400222 -0.190913)
(0.0760009 -0.00510404 -0.226358)
(0.0101368 -0.0528239 -0.239684)
(0.0655163 0.0361459 -0.178772)
(0.126249 0.066244 -0.222271)
(0.0448276 0.0189157 -0.221327)
(0.0490427 0.0102898 -0.245414)
(0.0223425 -0.0152489 -0.211501)
(0.149381 0.0707699 -0.264906)
(0.0103765 -0.00311123 -0.23993)
(0.0103269 0.000567136 -0.213525)
(0.110545 0.0140623 -0.115222)
(0.0768196 -0.0540638 -0.215725)
(0.111849 -0.000390467 -0.218418)
(0.151736 0.0336907 -0.178719)
(0.167206 0.0527105 -0.143565)
(0.105715 -0.0568513 -0.225334)
(0.176107 0.0247074 -0.181105)
(0.205486 0.106083 -0.140085)
(0.190092 0.122453 -0.106279)
(0.0683305 0.138435 -0.133472)
(0.0134528 -0.0257617 -0.108882)
(0.0884368 -0.00949736 -0.155184)
(0.215925 0.0520437 -0.137539)
(0.187909 0.0957835 -0.179225)
(0.128794 0.0466969 -0.194735)
(0.0307805 -0.0187295 -0.204596)
(0.0870863 0.0673024 -0.0998254)
(0.199868 0.102258 -0.12505)
(0.0965516 0.0582464 -0.19327)
(0.0823783 0.0493881 -0.218243)
(0.00756332 -0.00879183 -0.161982)
(0.175038 0.0725869 -0.211074)
(0.0518383 0.00480168 -0.210401)
(0.0182072 -0.00118252 -0.168134)
(0.110547 0.00644466 -0.0492005)
(0.0748597 -0.0356532 -0.128959)
(0.114693 0.0165458 -0.146547)
(0.158327 0.0467605 -0.100106)
(0.169097 0.0694313 -0.0442146)
(0.0954277 -0.0492683 -0.117452)
(0.172203 0.0404425 -0.088691)
(0.221482 0.147875 -0.0761401)
(0.209528 0.174442 -0.005721)
(0.0929824 0.159623 -0.0484788)
(0.0123436 -0.0121212 -0.0154288)
(0.10017 0.00322857 -0.0532623)
(0.209235 0.0706202 -0.0774098)
(0.228559 0.134367 -0.13258)
(0.153709 0.0981391 -0.117231)
(0.0317621 0.0138186 -0.116872)
(0.138626 0.0920696 -0.00429692)
(0.237683 0.12607 -0.0562822)
(0.143252 0.0781394 -0.109509)
(0.0943741 0.0710678 -0.131427)
(0.00904169 0.00874429 -0.0946213)
(0.191494 0.0718907 -0.132318)
(0.0940363 0.0208042 -0.127042)
(0.0175911 0.00229628 -0.0904796)
(0.106203 0.00537053 0.0148047)
(0.0514423 0.00332396 -0.0427859)
(0.111852 0.0343913 -0.0642447)
(0.167978 0.0647194 -0.0264227)
(0.167627 0.0810131 0.0292831)
(0.0139275 0.037124 -0.105123)
(0.140767 0.0889503 -0.067332)
(0.200814 0.167122 -0.0493198)
(0.21232 0.211125 0.0698538)
(0.116475 0.168149 0.0597779)
(-0.00507125 0.00261679 -0.00196925)
(0.0122834 0.000792611 -0.0134585)
(0.0647864 -0.0161468 -0.0316156)
(0.158311 0.0887023 -0.0856094)
(0.213729 0.175408 -0.0968725)
(0.154207 0.181964 -0.0288338)
(0.0568597 0.0803481 -0.0100526)
(0.00200613 0.000195773 0.000124652)
(0.0927722 0.0842603 0.0564282)
(0.198309 0.135836 -0.0112071)
(0.090828 0.0271395 0.00722772)
(0.0588513 0.0782281 -0.00392356)
(-0.00327176 0.0439023 -0.0210382)
(0.171281 0.115916 -0.0310233)
(0.12766 0.0120033 -0.00411087)
(0.0228611 -0.000939133 -0.0108904)
(0.132805 0.00700871 0.105061)
(0.011465 -0.00627386 -0.0279463)
(0.0798854 0.0404332 0.0393072)
(0.169183 0.0772596 0.0622142)
(0.185383 0.11178 0.149209)
(0.00613274 0.0422216 -0.053102)
(0.12346 0.0923245 -0.00183314)
(0.174328 0.183248 0.0403075)
(0.197127 0.247738 0.0932204)
(0.203967 0.196272 0.188532)
(0 0 0)
(0 0 0)
(0 0 0)
(-0.260611 -0.00169217 0.00572858)
(0.188016 0.240637 -0.00665497)
(0.18851 0.278934 0.0439506)
(0.198101 0.251603 0.0788181)
(0.17861 0.258984 -0.0111605)
(0 0 0)
(0 0 0)
(0.0177971 -0.00376383 0.0861129)
(-0.0210711 0.0485749 0.0852785)
(-0.0127837 0.101963 0.0685046)
(0.204391 0.189251 0.0155327)
(0 0 0)
(0.106279 -0.0183425 0.0614123)
(0.0237907 -0.00620435 0.0644096)
(0.0971982 0.0170574 0.153667)
(0 0 0)
(0.0646372 0.00616345 0.0572951)
(0.135933 0.0682083 0.145561)
(0.189857 0.110626 0.210702)
(0 0 0)
(0.121167 0.0751661 0.0481541)
(0.152584 0.151685 0.104067)
(0.174545 0.229281 0.164457)
(0.255589 0.263027 0.311482)
(0.290918 0.198742 0.0750393)
(0 0 0)
(0 0 0)
(5.11535e-16 9.05869e-17 -8.84184e-17)
(-0.248691 0.011465 0.182854)
(0.194251 0.30074 0.149616)
(0.24359 0.338474 0.154492)
(0.233464 0.309363 0.106248)
(0 0 0)
(-0.407464 0.259479 0.0937207)
(-0.162907 0.0506287 0.136282)
(-0.0980881 0.0822347 0.149685)
(-0.0258139 0.121645 0.149306)
(0.170565 0.265357 0.077429)
(0 0 0)
(0 0 0)
(0.0460039 -0.0267003 0.132727)
(0.0765063 0.00508249 0.187953)
(0 0 0)
(0 0 0)
(0.0900673 0.0329845 0.170176)
(0.139353 0.112273 0.321051)
(0 0 0)
(0 0 0)
(0.114144 0.145236 0.193446)
(0.146607 0.233282 0.285368)
(0.139946 0.274885 0.270722)
(0.278604 0.232028 0.193897)
(0 0 0)
(0 0 0)
(0 0 0)
(-0.267093 0.114171 0.195304)
(0.146052 0.277825 0.227307)
(0.226383 0.337676 0.255883)
(0.276009 0.306368 0.209583)
(0 0 0)
(-0.402463 0.109084 0.216523)
(-0.144877 -0.00695609 0.235637)
(-0.106907 0.0631254 0.217802)
(-0.122453 0.0355202 0.213632)
(0 0 0)
(0 0 0)
(0.0572692 -0.0435512 0.187806)
(0 0 0)
(0 0 0)
(0 0 0)
(0 0 0)
(0.072764 0.0988246 0.389159)
(0 0 0)
(0 0 0)
(0 0 0)
(0.151112 0.235186 0.388373)
(0.0941853 0.267626 0.342678)
(0 0 0)
(0 0 0)
(0 0 0)
(-0.190746 0.0150226 0.374883)
(-0.0783445 0.0435575 0.351056)
(0.191961 0.29994 0.331727)
(0 0 0)
(3.16632e-16 6.6979e-17 -3.11672e-16)
(-0.219211 0.0854702 0.339295)
(-0.15019 0.0464118 0.335034)
(0 0 0)
(-0.255136 -0.044584 0.225014)
(2.55477e-16 -1.53337e-16 -3.04261e-16)
(0.0204995 -0.0302624 0.304512)
(0 0 0)
(0 0 0)
(0 0 0)
(0 0 0)
(0.0967824 0.0882185 0.491697)
(0 0 0)
(0 0 0)
(0 0 0)
(0.157504 0.220089 0.472544)
(0.17932 0.2363 0.480596)
(0 0 0)
(0 0 0)
(0 0 0)
(0 0 0)
(-0.00927296 -0.107799 0.37184)
(0 0 0)
(0 0 0)
(9.93637e-17 8.49489e-17 -3.93457e-16)
(-0.111442 -0.126918 0.402873)
(0.117753 -0.212853 0.368884)
(0 0 0)
(0 0 0)
(0 0 0)
(-0.0263186 0.0446722 0.390635)
(0 0 0)
(0 0 0)
(0 0 0)
(0 0 0)
(0 0 0)
(0 0 0)
(0 0 0)
(0 0 0)
(0 0 0)
(0 0 0)
(0 0 0)
(0 0 0)
(0 0 0)
(0 0 0)
(0 0 0)
(0 0 0)
(0 0 0)
(-0.111858 -0.0957666 0.434538)
(0 0 0)
(0 0 0)
(0 0 0)
(0 0 0)
(0.000317388 -0.0443156 0.43307)
(0 0 0)
(0 0 0)
(0 0 0)
(0 0 0)
(0 0 0)
(0 0 0)
(0 0 0)
(0 0 0)
(0 0 0)
(0 0 0)
(0 0 0)
(0 0 0)
(0 0 0)
(0 0 0)
(0 0 0)
(0 0 0)
(0 0 0)
(0 0 0)
(0 0 0)
(0 0 0)
(0 0 0)
(0 0 0)
(0 0 0)
(0 0 0)
(0 0 0)
(0 0 0)
(0 0 0)
(0 0 0)
(0 0 0)
(0 0 0)
(0 0 0)
(0 0 0)
(0 0 0)
(0 0 0)
(0 0 0)
(0 0 0)
(0 0 0)
(0 0 0)
(0 0 0)
(0 0 0)
(0 0 0)
(0 0 0)
(0 0 0)
(0 0 0)
(0 0 0)
(0 0 0)
(0 0 0)
(0 0 0)
(0 0 0)
(0 0 0)
(0 0 0)
(0 0 0)
(0 0 0)
(0 0 0)
(0 0 0)
(0 0 0)
(0 0 0)
(0 0 0)
(0 0 0)
(0 0 0)
(0 0 0)
(0 0 0)
(0 0 0)
(0 0 0)
(0 0 0)
(0 0 0)
(0 0 0)
(0 0 0)
(0 0 0)
(0 0 0)
(0 0 0)
(0 0 0)
(0 0 0)
(0 0 0)
(0 0 0)
(0 0 0)
(0 0 0)
(0 0 0)
(0 0 0)
(0 0 0)
(0 0 0)
(0 0 0)
(0 0 0)
(0 0 0)
(0 0 0)
(0 0 0)
(0 0 0)
(0 0 0)
(0 0 0)
(0 0 0)
(0 0 0)
(0 0 0)
(0 0 0)
(0 0 0)
(0 0 0)
(0 0 0)
(0 0 0)
(0 0 0)
(0 0 0)
(0 0 0)
(0 0 0)
(0 0 0)
(0 0 0)
(0 0 0)
(0 0 0)
(0 0 0)
(0 0 0)
(0 0 0)
(0 0 0)
(0 0 0)
(0 0 0)
(0 0 0)
(0 0 0)
(0 0 0)
(0 0 0)
(0 0 0)
(0 0 0)
(0 0 0)
(0 0 0)
(0 0 0)
(0 0 0)
(0 0 0)
(0 0 0)
(0 0 0)
(0 0 0)
(0 0 0)
(0 0 0)
(0 0 0)
(0 0 0)
(0 0 0)
(0 0 0)
(0 0 0)
(0 0 0)
(0 0 0)
(0 0 0)
(0 0 0)
(0 0 0)
(0 0 0)
(0 0 0)
(0 0 0)
(0 0 0)
(0 0 0)
(0 0 0)
(0 0 0)
(0 0 0)
(0 0 0)
(0 0 0)
(0 0 0)
(0 0 0)
(0 0 0)
(0 0 0)
(0 0 0)
(0 0 0)
(0 0 0)
(0 0 0)
(0 0 0)
(0 0 0)
(0 0 0)
(0 0 0)
(0 0 0)
(0 0 0)
(0 0 0)
(0 0 0)
(0 0 0)
(0 0 0)
(0 0 0)
(0 0 0)
(0 0 0)
(0 0 0)
(0 0 0)
(0 0 0)
(0 0 0)
(0 0 0)
(0 0 0)
(0 0 0)
(0 0 0)
(0 0 0)
(0 0 0)
(0 0 0)
(0 0 0)
(0 0 0)
(0 0 0)
(0 0 0)
(0 0 0)
(0 0 0)
(0 0 0)
(0 0 0)
(0 0 0)
(0 0 0)
(0 0 0)
(0 0 0)
(0 0 0)
(0 0 0)
(0 0 0)
(0 0 0)
(0 0 0)
(0 0 0)
(0 0 0)
(0 0 0)
(0 0 0)
(0 0 0)
(0 0 0)
(0 0 0)
(0 0 0)
(0 0 0)
(0 0 0)
(0 0 0)
(0 0 0)
(0 0 0)
(0 0 0)
(0 0 0)
(0 0 0)
(0 0 0)
(0 0 0)
(0 0 0)
(0 0 0)
(0 0 0)
(0 0 0)
(0 0 0)
(0 0 0)
(0 0 0)
(0 0 0)
(0 0 0)
(0 0 0)
(0 0 0)
(0 0 0)
(0 0 0)
(0 0 0)
(0 0 0)
(0 0 0)
(0 0 0)
(0 0 0)
(0 0 0)
(0 0 0)
(0 0 0)
(0 0 0)
(0 0 0)
(0 0 0)
(0 0 0)
(0 0 0)
(0 0 0)
(0 0 0)
(0 0 0)
(0 0 0)
(0 0 0)
(0 0 0)
(0 0 0)
(0 0 0)
(0 0 0)
(0 0 0)
(0 0 0)
(0 0 0)
(0 0 0)
(0 0 0)
(0 0 0)
(0 0 0)
(0 0 0)
(0 0 0)
(0 0 0)
(0 0 0)
(0 0 0)
(0 0 0)
(0 0 0)
(0 0 0)
(0 0 0)
(0 0 0)
(0 0 0)
(0 0 0)
(0 0 0)
(0 0 0)
(0 0 0)
(0 0 0)
(0 0 0)
(0 0 0)
(0 0 0)
(0 0 0)
(0 0 0)
(0 0 0)
(0 0 0)
(0 0 0)
(0 0 0)
(0 0 0)
(0 0 0)
(0 0 0)
(0 0 0)
(0 0 0)
(0 0 0)
(0 0 0)
(0 0 0)
(0 0 0)
(0 0 0)
(0 0 0)
(0 0 0)
(0 0 0)
(0 0 0)
(0 0 0)
(0 0 0)
(0 0 0)
(0 0 0)
(0 0 0)
(0 0 0)
(0 0 0)
(0 0 0)
(0 0 0)
(0 0 0)
(0 0 0)
(0 0 0)
(0 0 0)
(0 0 0)
(0 0 0)
(0 0 0)
(0 0 0)
(0 0 0)
(0 0 0)
(0 0 0)
(0 0 0)
(0 0 0)
(0 0 0)
(0 0 0)
(0 0 0)
(0 0 0)
(0 0 0)
(0 0 0)
(0 0 0)
(0 0 0)
(0 0 0)
(0 0 0)
(0 0 0)
(0 0 0)
(0 0 0)
(0 0 0)
(0 0 0)
(0 0 0)
(0 0 0)
(0 0 0)
(0 0 0)
(0 0 0)
(0 0 0)
(0 0 0)
(0 0 0)
(0 0 0)
(0 0 0)
(0 0 0)
(0 0 0)
(0 0 0)
(0 0 0)
(0 0 0)
(0 0 0)
(0 0 0)
(0 0 0)
(0 0 0)
(0 0 0)
(0 0 0)
(0 0 0)
(0 0 0)
(0 0 0)
(0 0 0)
(0 0 0)
(0 0 0)
(0 0 0)
(0 0 0)
(0 0 0)
(0 0 0)
(0 0 0)
(0 0 0)
(0 0 0)
(0 0 0)
(0 0 0)
(0 0 0)
(0 0 0)
(0 0 0)
(0 0 0)
(0 0 0)
(0 0 0)
(0 0 0)
(0 0 0)
(0 0 0)
(0 0 0)
(0 0 0)
(0 0 0)
(0 0 0)
(0 0 0)
(0 0 0)
(0 0 0)
(0 0 0)
(0 0 0)
(0 0 0)
(0 0 0)
(0 0 0)
(0 0 0)
(0 0 0)
(0 0 0)
(0 0 0)
(0 0 0)
(0 0 0)
(0 0 0)
(0 0 0)
(0 0 0)
(0 0 0)
(0 0 0)
(0 0 0)
(0 0 0)
(0 0 0)
(0 0 0)
(0 0 0)
(0 0 0)
(0 0 0)
(0 0 0)
(0 0 0)
(0 0 0)
(0 0 0)
(0 0 0)
(0 0 0)
(0 0 0)
(0 0 0)
(0 0 0)
(0 0 0)
(0 0 0)
(0 0 0)
(0 0 0)
(0 0 0)
(0 0 0)
(0 0 0)
(0 0 0)
(0 0 0)
(0 0 0)
(0 0 0)
(0 0 0)
(0 0 0)
(0 0 0)
(0 0 0)
(0 0 0)
(0 0 0)
(0 0 0)
(0 0 0)
(0 0 0)
(0 0 0)
(0 0 0)
(0 0 0)
(0 0 0)
(0 0 0)
(0 0 0)
(0 0 0)
(0 0 0)
(0 0 0)
(0 0 0)
(0 0 0)
(0 0 0)
(0 0 0)
(0 0 0)
(0 0 0)
(0 0 0)
(0 0 0)
(0 0 0)
(0 0 0)
(0 0 0)
(0 0 0)
(0 0 0)
(0 0 0)
(0 0 0)
(0 0 0)
(0 0 0)
(0 0 0)
(0 0 0)
(0 0 0)
(0 0 0)
(0 0 0)
(0 0 0)
(0 0 0)
(0 0 0)
(0 0 0)
(0 0 0)
(0 0 0)
(0 0 0)
(0 0 0)
(0 0 0)
(0 0 0)
(0 0 0)
(0 0 0)
(0 0 0)
(0 0 0)
(0 0 0)
(0 0 0)
(0 0 0)
(0 0 0)
(0 0 0)
(0 0 0)
(0 0 0)
(0 0 0)
(0 0 0)
(0 0 0)
(0 0 0)
(0 0 0)
(0 0 0)
(0 0 0)
(0 0 0)
(0 0 0)
(0 0 0)
(0 0 0)
(0 0 0)
(0 0 0)
(0 0 0)
(0 0 0)
(0 0 0)
(0 0 0)
(0 0 0)
(0 0 0)
(0 0 0)
(0 0 0)
(0 0 0)
(0 0 0)
(0 0 0)
(0 0 0)
(0 0 0)
(0 0 0)
(0 0 0)
(0 0 0)
(0 0 0)
(0 0 0)
(0 0 0)
(0 0 0)
(0 0 0)
(0 0 0)
(0 0 0)
(0 0 0)
(0 0 0)
(0 0 0)
(0 0 0)
(0 0 0)
(0 0 0)
(0 0 0)
(0 0 0)
(0 0 0)
(0 0 0)
(0 0 0)
(0 0 0)
(0 0 0)
(0 0 0)
(0 0 0)
(0 0 0)
(0 0 0)
(0 0 0)
(0 0 0)
(0 0 0)
(0 0 0)
(0 0 0)
(0 0 0)
(0 0 0)
(0 0 0)
(0 0 0)
(0 0 0)
(0 0 0)
(0 0 0)
(0 0 0)
(0 0 0)
(0 0 0)
(0 0 0)
(0 0 0)
(0 0 0)
(0 0 0)
(0 0 0)
(0 0 0)
(0 0 0)
(0 0 0)
(0 0 0)
(0 0 0)
(0 0 0)
(0 0 0)
(0 0 0)
(0 0 0)
(0 0 0)
(0 0 0)
(0 0 0)
(0 0 0)
(0 0 0)
(0 0 0)
(0 0 0)
(0 0 0)
(0 0 0)
(0 0 0)
(0 0 0)
(0 0 0)
(0 0 0)
(0 0 0)
(0 0 0)
(0 0 0)
(0 0 0)
(0 0 0)
(0 0 0)
(0 0 0)
(0 0 0)
(0 0 0)
(0 0 0)
(0 0 0)
(0 0 0)
(0 0 0)
(0 0 0)
(0 0 0)
(0 0 0)
(0 0 0)
(0 0 0)
(0 0 0)
(0 0 0)
(0 0 0)
(0 0 0)
(0 0 0)
(0 0 0)
(0 0 0)
(0 0 0)
(0 0 0)
(0 0 0)
(0 0 0)
(0 0 0)
(0 0 0)
(0 0 0)
(0 0 0)
(0 0 0)
(0 0 0)
(0 0 0)
(0 0 0)
(0 0 0)
(0 0 0)
(0 0 0)
(0 0 0)
(0 0 0)
(0 0 0)
(0 0 0)
(0 0 0)
(0 0 0)
(0 0 0)
(0 0 0)
(0 0 0)
(0 0 0)
(0 0 0)
(0 0 0)
(0 0 0)
(0 0 0)
(0 0 0)
(0 0 0)
(0 0 0)
(0 0 0)
(0 0 0)
(0 0 0)
(0 0 0)
(0 0 0)
(0 0 0)
(0 0 0)
(0 0 0)
(0 0 0)
(0 0 0)
(0 0 0)
(0 0 0)
(0 0 0)
(0 0 0)
(0 0 0)
(0 0 0)
(0 0 0)
(0 0 0)
(0 0 0)
(0 0 0)
(0 0 0)
(0 0 0)
(0 0 0)
(0 0 0)
(0 0 0)
(0 0 0)
(0 0 0)
(0 0 0)
(0 0 0)
(0 0 0)
(0 0 0)
(0 0 0)
(0 0 0)
(0 0 0)
(0 0 0)
(0 0 0)
(0 0 0)
(0 0 0)
(0 0 0)
(0 0 0)
(0 0 0)
(0 0 0)
(0 0 0)
(0 0 0)
(0 0 0)
(0 0 0)
(0 0 0)
(0 0 0)
(0 0 0)
(0 0 0)
(0 0 0)
(0 0 0)
(0 0 0)
(0 0 0)
(0 0 0)
(0 0 0)
(0 0 0)
(0 0 0)
(0 0 0)
(0 0 0)
(0 0 0)
(0 0 0)
(0 0 0)
(0 0 0)
(0 0 0)
(0 0 0)
(0 0 0)
(0 0 0)
(0 0 0)
(0 0 0)
(0 0 0)
(0 0 0)
(0 0 0)
(0 0 0)
(0 0 0)
(0 0 0)
(0 0 0)
(0 0 0)
(0 0 0)
(0 0 0)
(0 0 0)
(0 0 0)
(0 0 0)
(0 0 0)
(0 0 0)
(0 0 0)
(0 0 0)
(0 0 0)
(0 0 0)
(0 0 0)
(0 0 0)
(0 0 0)
(0 0 0)
(0 0 0)
(0 0 0)
(0 0 0)
(0 0 0)
(0 0 0)
(0 0 0)
(0 0 0)
(0 0 0)
(0 0 0)
(0 0 0)
(0 0 0)
(0 0 0)
(0 0 0)
(0 0 0)
(0 0 0)
(0 0 0)
(0 0 0)
(0 0 0)
(0 0 0)
(0 0 0)
(0 0 0)
(0 0 0)
(0 0 0)
(0 0 0)
(0 0 0)
(0 0 0)
(0 0 0)
(0 0 0)
(0 0 0)
(0 0 0)
(0 0 0)
(0 0 0)
(0 0 0)
(0 0 0)
(0 0 0)
(0 0 0)
(0 0 0)
(0 0 0)
(0 0 0)
(0 0 0)
(0 0 0)
(0 0 0)
(0 0 0)
(0 0 0)
(0 0 0)
(0 0 0)
(0 0 0)
(0 0 0)
(0 0 0)
(0 0 0)
(0 0 0)
(0 0 0)
(0 0 0)
(0 0 0)
(0 0 0)
(0 0 0)
(0 0 0)
(0 0 0)
(0 0 0)
(0 0 0)
(0 0 0)
(0 0 0)
(0 0 0)
(0 0 0)
(0 0 0)
(0 0 0)
(0 0 0)
(0 0 0)
(0 0 0)
(0 0 0)
(0 0 0)
(0 0 0)
(0 0 0)
(0 0 0)
(0 0 0)
(0 0 0)
(0 0 0)
(0 0 0)
(0 0 0)
(0 0 0)
(0 0 0)
(0 0 0)
(0 0 0)
(0 0 0)
(0 0 0)
(0 0 0)
(0 0 0)
(0 0 0)
(0 0 0)
(0 0 0)
(0 0 0)
(0 0 0)
(0 0 0)
(0 0 0)
(0 0 0)
(0 0 0)
(0 0 0)
(0 0 0)
(0 0 0)
(0 0 0)
(0 0 0)
(0 0 0)
(0 0 0)
(0 0 0)
(0 0 0)
(0 0 0)
(0 0 0)
(0 0 0)
(0 0 0)
(0 0 0)
(0 0 0)
(0 0 0)
(0 0 0)
(0 0 0)
(0 0 0)
(0 0 0)
(0 0 0)
(0 0 0)
(0 0 0)
(0 0 0)
(0 0 0)
(0 0 0)
(0 0 0)
(0 0 0)
(0 0 0)
(0 0 0)
(0 0 0)
(0 0 0)
(0 0 0)
(0 0 0)
(0 0 0)
(0 0 0)
(0 0 0)
(0 0 0)
(0 0 0)
(0 0 0)
(0 0 0)
(0 0 0)
(0 0 0)
(0 0 0)
(0 0 0)
(0 0 0)
(0 0 0)
(0 0 0)
(0 0 0)
(0 0 0)
(0 0 0)
(0 0 0)
(0 0 0)
(0 0 0)
(0 0 0)
(0 0 0)
(0 0 0)
(0 0 0)
(0 0 0)
(0 0 0)
(0 0 0)
(0 0 0)
(0 0 0)
(0 0 0)
(0 0 0)
(0 0 0)
(0 0 0)
(0 0 0)
(0 0 0)
(0 0 0)
(0 0 0)
(0 0 0)
(0 0 0)
(0 0 0)
(0 0 0)
(0 0 0)
(0 0 0)
(0 0 0)
(0 0 0)
(0 0 0)
(0 0 0)
(0 0 0)
(0 0 0)
(0 0 0)
(0 0 0)
(0 0 0)
(0 0 0)
(0 0 0)
(0 0 0)
(0 0 0)
(0 0 0)
(0 0 0)
(0 0 0)
(0 0 0)
(0 0 0)
(0 0 0)
(0 0 0)
(0 0 0)
(0 0 0)
(0 0 0)
(0 0 0)
(0 0 0)
(0 0 0)
(0 0 0)
(0 0 0)
(0 0 0)
(0 0 0)
(0 0 0)
(0 0 0)
(0 0 0)
(0 0 0)
(0 0 0)
(0 0 0)
(0 0 0)
(0 0 0)
(0 0 0)
(0 0 0)
(0 0 0)
(0 0 0)
(0 0 0)
(0 0 0)
(0 0 0)
(0 0 0)
(0 0 0)
(0 0 0)
(0 0 0)
(0 0 0)
(0 0 0)
(0 0 0)
(0 0 0)
(0 0 0)
(0 0 0)
(0 0 0)
(0 0 0)
(0 0 0)
(0 0 0)
(0 0 0)
(0 0 0)
(0 0 0)
(0 0 0)
(0 0 0)
(0 0 0)
(0 0 0)
(0 0 0)
(0 0 0)
(0 0 0)
(0 0 0)
(0 0 0)
(0 0 0)
(0 0 0)
(0 0 0)
(0 0 0)
(0 0 0)
(0 0 0)
(0 0 0)
(0 0 0)
(0 0 0)
(0 0 0)
(0 0 0)
(0 0 0)
(0 0 0)
(0 0 0)
(0 0 0)
(0 0 0)
(0 0 0)
(0 0 0)
(0 0 0)
(0 0 0)
(0 0 0)
(0 0 0)
(0 0 0)
(0 0 0)
(0 0 0)
(0 0 0)
(0 0 0)
(0 0 0)
(0 0 0)
(0 0 0)
(0 0 0)
(0 0 0)
(0 0 0)
(0 0 0)
(0 0 0)
(0 0 0)
(0 0 0)
(0 0 0)
(0 0 0)
(0 0 0)
(0 0 0)
(0 0 0)
(0 0 0)
(0 0 0)
(0 0 0)
(0 0 0)
(0 0 0)
(0 0 0)
(0 0 0)
(0 0 0)
(0 0 0)
(0 0 0)
(0 0 0)
(0 0 0)
(0 0 0)
(0 0 0)
(0 0 0)
(0 0 0)
(0 0 0)
(0 0 0)
(0 0 0)
(0 0 0)
(0 0 0)
(0 0 0)
(0 0 0)
(0 0 0)
(0 0 0)
(0 0 0)
(0 0 0)
(0 0 0)
(0 0 0)
(0 0 0)
(0 0 0)
(0 0 0)
(0 0 0)
(0 0 0)
(0 0 0)
(0 0 0)
(0 0 0)
(0 0 0)
(0 0 0)
(0 0 0)
(0 0 0)
(0 0 0)
(0 0 0)
(0 0 0)
(0 0 0)
(0 0 0)
(0 0 0)
(0 0 0)
(0 0 0)
(0 0 0)
(0 0 0)
(0 0 0)
(0 0 0)
(0 0 0)
(0 0 0)
(0 0 0)
(0 0 0)
(0 0 0)
(0 0 0)
(0 0 0)
(0 0 0)
(0 0 0)
(0 0 0)
(0 0 0)
(0 0 0)
(0 0 0)
(0 0 0)
(0 0 0)
(0 0 0)
(0 0 0)
(0 0 0)
(0 0 0)
(0 0 0)
(0 0 0)
(0 0 0)
(0 0 0)
(0 0 0)
(0 0 0)
(0 0 0)
(0 0 0)
(0 0 0)
(0 0 0)
(0 0 0)
(0 0 0)
(0 0 0)
(0 0 0)
(0 0 0)
(0 0 0)
(0 0 0)
(0 0 0)
(0 0 0)
(0 0 0)
(0 0 0)
(0 0 0)
(0 0 0)
(0 0 0)
(0 0 0)
(0 0 0)
(0 0 0)
(0 0 0)
(0 0 0)
(0 0 0)
(0 0 0)
(0 0 0)
(0 0 0)
(0 0 0)
(0 0 0)
(0 0 0)
(0 0 0)
(0 0 0)
(0 0 0)
(0 0 0)
(0 0 0)
(0 0 0)
(0 0 0)
(0 0 0)
(0 0 0)
(0 0 0)
(0 0 0)
(0 0 0)
(0 0 0)
(0 0 0)
(0 0 0)
(0 0 0)
(0 0 0)
(0 0 0)
(0 0 0)
(0 0 0)
(0 0 0)
(0 0 0)
(0 0 0)
(0 0 0)
(0 0 0)
(0 0 0)
(0 0 0)
(0 0 0)
(0 0 0)
(0 0 0)
(0 0 0)
(0 0 0)
(0 0 0)
(0 0 0)
(0 0 0)
(0 0 0)
(0 0 0)
(0 0 0)
(0 0 0)
(0 0 0)
(0 0 0)
(0 0 0)
(0 0 0)
(0 0 0)
(0 0 0)
(0 0 0)
(0 0 0)
(0 0 0)
(0 0 0)
(0 0 0)
(0 0 0)
(0 0 0)
(0 0 0)
(0 0 0)
(0 0 0)
(0 0 0)
(0 0 0)
(0 0 0)
(0 0 0)
(0 0 0)
(0 0 0)
(0 0 0)
(0 0 0)
(0 0 0)
(0 0 0)
(0 0 0)
(0 0 0)
(0 0 0)
(0 0 0)
(0 0 0)
(0 0 0)
(0 0 0)
(0 0 0)
(0 0 0)
(0 0 0)
(0 0 0)
(0 0 0)
(0 0 0)
(0 0 0)
(0 0 0)
(0 0 0)
(0 0 0)
(0 0 0)
(0 0 0)
(0 0 0)
(0 0 0)
(0 0 0)
(0 0 0)
(0 0 0)
(0 0 0)
(0 0 0)
(0 0 0)
(0 0 0)
(0 0 0)
(0 0 0)
(0 0 0)
(0 0 0)
(0 0 0)
(0 0 0)
(0 0 0)
(0 0 0)
(0 0 0)
(0 0 0)
(0 0 0)
(0 0 0)
(0 0 0)
(0 0 0)
(0 0 0)
(0 0 0)
(0 0 0)
(0 0 0)
(0 0 0)
(0 0 0)
(0 0 0)
(0 0 0)
(0 0 0)
(0 0 0)
(0 0 0)
(0 0 0)
(0 0 0)
(0 0 0)
(0 0 0)
(0 0 0)
(0 0 0)
(0 0 0)
(0 0 0)
(0 0 0)
(0 0 0)
(0 0 0)
(0 0 0)
(0 0 0)
(0 0 0)
(0 0 0)
(0 0 0)
(0 0 0)
(0 0 0)
(0 0 0)
(0 0 0)
(0 0 0)
(0 0 0)
(0 0 0)
(0 0 0)
(0 0 0)
(0 0 0)
(0 0 0)
(0 0 0)
(0 0 0)
(0 0 0)
(0 0 0)
(0 0 0)
(0 0 0)
(0 0 0)
(0 0 0)
(0 0 0)
(0 0 0)
(0 0 0)
(0 0 0)
(0 0 0)
(0 0 0)
(0 0 0)
(0 0 0)
(0 0 0)
(0 0 0)
(0 0 0)
(0 0 0)
(0 0 0)
(0 0 0)
(0 0 0)
(0 0 0)
(0 0 0)
(0 0 0)
(0 0 0)
(0 0 0)
(0 0 0)
(0 0 0)
(0 0 0)
(0 0 0)
(0 0 0)
(0 0 0)
(0 0 0)
(0 0 0)
(0 0 0)
(0 0 0)
(0 0 0)
(0 0 0)
(0 0 0)
(0 0 0)
(0 0 0)
(0 0 0)
(0 0 0)
(0 0 0)
(0 0 0)
(0 0 0)
(0 0 0)
(0 0 0)
(0 0 0)
(0 0 0)
(0 0 0)
(0 0 0)
(0 0 0)
(0 0 0)
(0 0 0)
(0 0 0)
(0 0 0)
(0 0 0)
(0 0 0)
(0 0 0)
(0 0 0)
(0 0 0)
(0 0 0)
(0 0 0)
(0 0 0)
(0 0 0)
(0 0 0)
(0 0 0)
(0 0 0)
(0 0 0)
(0 0 0)
(0 0 0)
(0 0 0)
(0 0 0)
(0 0 0)
(0 0 0)
(0 0 0)
(0 0 0)
(0 0 0)
(0 0 0)
(0 0 0)
(0 0 0)
(0 0 0)
(0 0 0)
(0 0 0)
(0 0 0)
(0 0 0)
(0 0 0)
(0 0 0)
(0 0 0)
(0 0 0)
(0 0 0)
(0 0 0)
(0 0 0)
(0 0 0)
(0 0 0)
(0 0 0)
(0 0 0)
(0 0 0)
(0 0 0)
(0 0 0)
(0 0 0)
(0 0 0)
(0 0 0)
(0 0 0)
(0 0 0)
(0 0 0)
(0 0 0)
(0 0 0)
(0 0 0)
(0 0 0)
(0 0 0)
(0 0 0)
(0 0 0)
(0 0 0)
(0 0 0)
(0 0 0)
(0 0 0)
(0 0 0)
(0 0 0)
(0 0 0)
(0 0 0)
(0 0 0)
(0 0 0)
(0 0 0)
(0 0 0)
(0 0 0)
(0 0 0)
(0 0 0)
(0 0 0)
(0 0 0)
(0 0 0)
(0 0 0)
(0 0 0)
(0 0 0)
(0 0 0)
(0 0 0)
(0 0 0)
(0 0 0)
(0 0 0)
(0 0 0)
(0 0 0)
(0 0 0)
(0 0 0)
(0 0 0)
(0 0 0)
(0 0 0)
(0 0 0)
(0 0 0)
(0 0 0)
(0 0 0)
(0 0 0)
(0 0 0)
(0 0 0)
(0 0 0)
(0 0 0)
(0 0 0)
(0 0 0)
(0 0 0)
(0 0 0)
(0 0 0)
(0 0 0)
(0 0 0)
(0 0 0)
(0 0 0)
(0 0 0)
(0 0 0)
(0 0 0)
(0 0 0)
(0 0 0)
(0 0 0)
(0 0 0)
(0 0 0)
(0 0 0)
(0 0 0)
(0 0 0)
(0 0 0)
(0 0 0)
(0 0 0)
(0 0 0)
(0 0 0)
(0 0 0)
(0 0 0)
(0 0 0)
(0 0 0)
(0 0 0)
(0 0 0)
(0 0 0)
(0 0 0)
(0 0 0)
(0 0 0)
(0 0 0)
(0 0 0)
(0 0 0)
(0 0 0)
(0 0 0)
(0 0 0)
(0 0 0)
(0 0 0)
(0 0 0)
(0 0 0)
(0 0 0)
(0 0 0)
(0 0 0)
(0 0 0)
(0 0 0)
(0 0 0)
(0 0 0)
(0 0 0)
(0 0 0)
(0 0 0)
(0 0 0)
(0 0 0)
(0 0 0)
(0 0 0)
(0 0 0)
(0 0 0)
(0 0 0)
(0 0 0)
(0 0 0)
(0 0 0)
(0 0 0)
(0 0 0)
(0 0 0)
(0 0 0)
(0 0 0)
(0 0 0)
(0 0 0)
(0 0 0)
(0 0 0)
(0 0 0)
(0 0 0)
(0 0 0)
(0 0 0)
(0 0 0)
(0 0 0)
(0 0 0)
(0 0 0)
(0 0 0)
(0 0 0)
(0 0 0)
(0 0 0)
(0 0 0)
(0 0 0)
(0 0 0)
(0 0 0)
(0 0 0)
(0 0 0)
(-0.00142784 -0.00767567 0.000205105)
(0.000763708 -0.00565039 -0.00321)
(-0.0031187 -0.0111829 0.00216478)
(-0.00241921 -0.0219635 0.00346259)
(0.00324882 -0.00735528 -0.000849789)
(-0.00464044 -0.0200471 0.00539218)
(-0.00402043 -0.0124584 0.0053)
(-0.00407692 -0.00845666 0.00228587)
(-0.0051164 -0.00405273 0.00263054)
(-0.00674912 -0.00719465 0.0056285)
(-0.00893345 -0.0160346 0.00257351)
(-0.0139024 -0.0105158 0.00285132)
(-0.0288552 -0.0326772 0.00884476)
(-0.0158628 -0.0365746 0.00774966)
(-0.0135674 -0.0462035 0.0104669)
(-0.0480091 -0.0735505 0.0232546)
(-0.0463295 -0.0935937 0.0343184)
(-0.0164625 -0.0546094 0.0168191)
(-0.00396273 -0.0535802 0.0172942)
(-0.0390064 -0.0901885 0.0282627)
(-0.0205734 -0.081982 0.0205329)
(-0.000220128 -0.0310722 0.0135742)
(-0.00745803 -0.0153771 0.00801678)
(-0.0137154 -0.0719533 0.0193968)
(-0.0262623 -0.0635488 0.0273532)
(-0.0282625 -0.0470701 0.0162672)
(-0.0188972 -0.00390076 0.0032521)
(-0.0142512 -0.00652694 0.0114195)
(-0.0356679 -0.0100809 0.00842747)
(-0.0383221 -0.0128034 0.00653559)
(-0.0670361 -0.0497356 0.0218911)
(-0.0640675 -0.0187034 0.011291)
(-0.102295 -0.0671356 0.0327297)
(-0.0979897 -0.116821 0.042768)
(-0.100505 -0.131508 0.0267775)
(-0.115167 -0.16073 0.0301161)
(-0.166746 -0.217783 0.0268829)
(-0.115139 -0.0951029 0.00422297)
(-0.122756 -0.100595 0.00784212)
(-0.225174 -0.212489 0.00809049)
(-0.233873 -0.259957 0.000908684)
(-0.128738 -0.121344 0.0205989)
(-0.1244 -0.148717 0.0179598)
(-0.21269 -0.27917 -0.0140581)
(-0.152993 -0.239084 -0.0225249)
(-0.0693159 -0.122848 0.00840594)
(-0.064851 -0.178761 -0.023917)
(-0.0255319 -0.0967005 -0.0253917)
(-0.0109231 -0.00488392 0.00504518)
(-0.0359238 -0.00992324 0.00974255)
(-0.0374183 -0.00684792 0.012051)
(-0.0788777 -0.0180817 0.0181284)
(-0.133501 -0.06052 0.0357351)
(-0.091148 -0.015821 0.0252373)
(-0.13747 -0.0631895 0.0314676)
(-0.119448 -0.194112 0.0132351)
(-0.214763 -0.345653 -0.0095601)
(-0.122442 -0.19548 -0.0052839)
(-0.237485 -0.294691 -0.0250474)
(-0.246515 -0.317742 -0.0181183)
(-0.214485 -0.30223 -0.0351614)
(-0.229305 -0.274512 -0.0384512)
(-0.194079 -0.252589 -0.03323)
(-0.178543 -0.279668 -0.0403095)
(-0.114851 -0.250175 -0.0434474)
(-0.157288 -0.239222 -0.0602875)
(-0.0793517 -0.194562 -0.0383917)
(-0.0263737 -0.188627 -0.0470626)
(-0.00459481 -0.116363 -0.0366175)
(-0.010543 -0.138083 -0.0357092)
(-0.046695 -0.0153876 0.0155527)
(-0.0869658 -0.0270148 0.0243729)
(-0.134263 -0.0556468 0.020891)
(-0.0557017 -0.0371897 0.0167179)
(-0.114233 -0.058591 0.0179433)
(-0.139036 -0.180494 -0.00662003)
(-0.221755 -0.241005 -0.023301)
(-0.157854 -0.139329 -0.00614705)
(-0.188914 -0.164873 -0.0370773)
(-0.209504 -0.219144 -0.0448843)
(-0.179182 -0.191285 -0.043796)
(-0.182284 -0.143871 -0.0438617)
(-0.153021 -0.114434 -0.0378535)
(-0.125206 -0.178032 -0.0443645)
(-0.0446956 -0.103029 -0.0354741)
(-0.0777559 -0.0688432 -0.041533)
(-0.0183145 -0.0442456 -0.0348893)
(0.0118913 -0.0750255 -0.0393457)
(-0.0579529 -0.0449597 -0.00242194)
(-0.11078 -0.0706275 -0.00881693)
(-0.151932 -0.0759346 -0.0403817)
(-0.0864567 -0.0302018 -0.053592)
(-0.147891 -0.0453452 -0.0671467)
(-0.0978931 -0.0305188 -0.0452211)
(-0.0898973 -0.00940166 -0.0780039)
(-0.0612963 -0.00487033 -0.0377151)
(0.0442674 -0.0205885 -0.142883)
(0.0781028 -0.0482005 -0.371333)
(0.0974785 -0.0298492 -0.369506)
(0.0434153 -0.0399922 -0.130933)
(0.0426607 -0.0614109 -0.0929185)
(0.10015 -0.0435107 -0.351166)
(0.0958113 -0.0355194 -0.358848)
(0.112164 -0.0340023 -0.342442)
(0.0245344 -0.0765242 -0.0185832)
(0.0355776 -0.0724843 -0.00586153)
(0.126751 -0.0341766 -0.361865)
(0.139677 -0.0167368 -0.337174)
(0.143913 0.0126264 -0.327769)
(0.0237181 -0.0221676 0.00351506)
(0.123378 0.059074 -0.31064)
(-0.00438393 -0.00778148 -0.049063)
(0.0418565 -0.0473696 -0.380544)
(0.029623 -0.0375707 -0.0932705)
(0.0109738 -0.0331493 -0.128072)
(-0.0626487 -0.0904982 0.00331714)
(0.0531129 -0.0530794 -0.393935)
(0.0808399 -0.0410926 -0.376496)
(0.0593172 -0.0450336 -0.392184)
(0.0149761 -0.0971029 -0.272641)
(0.0132172 -0.0963718 0.0758338)
(-0.0266752 -0.253034 0.150147)
(-0.0714291 -0.209774 0.131)
(0.0369021 -0.337596 0.0732254)
(0.0222656 -0.250143 0.132433)
(-0.0928329 -0.369319 0.161637)
(-0.0809309 -0.286707 0.155137)
(-0.0681667 -0.117995 0.0568951)
(-0.0548814 -0.110748 0.05408)
(-0.0272611 0.00659447 -0.026658)
(0.0129086 -0.00889037 -0.35568)
(-0.0588741 -0.025903 -0.0532244)
(0.0394413 -0.0326197 -0.376333)
(-1.1449e-17 7.95865e-18 3.09819e-16)
(0.0251513 -0.00665851 -0.345339)
(-0.0682157 -0.231803 -0.0680236)
(-0.0269582 -0.188904 -0.0595085)
(-0.0964258 -0.166103 0.0100769)
(-0.0777397 -0.176892 -0.12118)
(-0.0256006 -0.141084 -0.106949)
(-0.0683595 -0.00504282 -0.0369102)
(-0.122909 -0.0102759 0.0358381)
(0 0 0)
(0.0112978 0.00535606 -0.311577)
(0.00697477 0.0334009 -0.294972)
(0.00528339 -0.163444 -0.0943486)
(0.00513672 -0.121184 -0.123417)
(-0.0138509 -0.131943 -0.182296)
(0.00926965 -0.119549 -0.124379)
(0.00927626 -0.0940548 -0.181715)
(-0.144497 -0.0474886 0.067956)
(0.0693639 -0.247387 0.108564)
(-0.284072 -0.111498 0.120706)
(-0.176754 -0.10575 0.0748316)
(-0.223238 -0.135885 0.102071)
(-0.341587 -0.0848786 0.113527)
(-0.324892 -0.12914 0.126857)
(-0.243475 -0.103673 0.118442)
(-0.246576 -0.125852 0.10684)
(-0.0127219 -0.0859289 -0.124409)
(-0.0397218 -0.0462229 -0.128073)
(0.00283101 -0.0314341 -0.0994174)
(-0.0293015 -0.0776308 -0.200101)
(0.00374127 -0.0635106 -0.188687)
(-0.0206712 -0.0288436 -0.186142)
(0.00816067 -0.0230657 -0.161897)
(0.0258381 -0.0534701 -0.164624)
(-0.146883 -0.0981465 0.0387281)
(-0.102072 -0.0755566 0.00463211)
(-0.165247 -0.102243 -0.110192)
(-0.129911 -0.0378539 -0.119193)
(-0.130632 -0.0916673 -0.0859773)
(-0.114609 -0.09827 -0.1698)
(-0.0766183 -0.0320559 -0.172086)
(-0.0596182 -0.0277446 -0.154446)
(-0.105544 -0.00701969 -0.1482)
(-0.0628164 -0.0388404 -0.192193)
(-0.031975 -0.01847 -0.194958)
(-0.0602551 -0.00605505 -0.168529)
(-0.0163862 -7.3704e-05 -0.176311)
(0.0706246 -0.0492487 -0.337607)
(0.0764354 -0.0449482 -0.310597)
(0.107301 -0.0253473 -0.294345)
(0.0989164 -0.0347983 -0.321185)
(0.110165 -0.0287884 -0.308309)
(0.10754 -0.0326379 -0.275714)
(0.0980863 -0.0325949 -0.282048)
(0.10786 -0.0211537 -0.276247)
(0.141476 -0.00847629 -0.291591)
(0.143551 0.026336 -0.286117)
(0.12529 -0.0228045 -0.269131)
(0.141215 0.00206948 -0.26709)
(0.14132 0.0250307 -0.25537)
(0.132775 0.0521818 -0.277328)
(0.127394 0.0601042 -0.236124)
(0.0430813 -0.0520797 -0.339822)
(0.0414283 -0.0509534 -0.30895)
(0.0807551 -0.0391397 -0.343434)
(0.0633871 -0.042132 -0.362718)
(0.0956018 -0.0199029 -0.361344)
(0.0653216 -0.0540334 -0.321018)
(0.0827916 -0.0350173 -0.312561)
(0.0670183 -0.0439703 -0.332847)
(0.0989709 -0.0168498 -0.332706)
(0.0825294 -0.163773 -0.017896)
(-0.0373583 -0.306708 0.123603)
(-0.00547037 -0.231836 0.105139)
(0.16816 0.0341401 -0.24628)
(0.11317 0.0787598 -0.168145)
(0.138538 -0.0163212 -0.0841727)
(0.151866 0.0223011 -0.120402)
(0.070644 -0.0170665 -0.0791009)
(0.0736587 0.101751 -0.217725)
(0.0470012 -0.0332808 -0.340916)
(0 0 0)
(0.0399667 -0.0207768 -0.306016)
(0.0532344 -0.0443562 -0.312196)
(0 0 0)
(0.0453321 -0.0344069 -0.273676)
(-0.0662967 -0.123369 -0.179763)
(-0.0199291 -0.104098 -0.163404)
(0.0643246 0.0937014 -0.217059)
(-0.0385261 -0.0793546 -0.233358)
(-0.0252601 -0.0678376 -0.201902)
(0.031503 0.000109233 -0.273062)
(0.0186236 0.0285529 -0.271438)
(0 0 0)
(0.0324385 0.00164332 -0.241971)
(0 0 0)
(0.00903383 -0.0837933 -0.174963)
(0.00714851 -0.0725165 -0.216415)
(0.00134742 -0.072874 -0.234917)
(0.000736411 -0.06148 -0.201633)
(0.0163742 -0.0500566 -0.229956)
(0 0 0)
(0 0 0)
(-0.278525 -0.0857601 0.109403)
(-0.297403 -0.061066 0.112759)
(-0.235354 -0.0584053 0.0795415)
(0.0469706 0.0359533 -0.216916)
(-0.0115852 0.0610295 -0.0874511)
(0.0767548 0.0655386 -0.230134)
(0.0485294 0.0729266 -0.182467)
(0.0120734 -0.0437434 -0.226639)
(-0.00762323 -0.0165514 -0.22258)
(0.0112859 -0.0166084 -0.205482)
(0.0262176 -0.0127518 -0.243322)
(0.0257465 -0.0204978 -0.239901)
(0.0122386 -0.00287479 -0.238036)
(0.0123029 -0.0110447 -0.220057)
(0.0225212 -0.02792 -0.212555)
(0.0299138 0.0207506 -0.119964)
(0.138917 0.079782 -0.301743)
(-0.0534865 -0.0639768 -0.221231)
(-0.0331167 -0.0195334 -0.225273)
(0.108323 0.0550007 -0.272875)
(-0.0112575 -0.0277293 -0.255833)
(0.00339278 -0.0087265 -0.247877)
(-0.0196998 -0.012401 -0.218266)
(-0.0295574 -0.00586803 -0.199986)
(-0.0108749 -0.0133335 -0.233556)
(-0.00105211 -0.00185568 -0.23132)
(-0.00683104 -0.00613617 -0.216074)
(0.00606344 6.61653e-05 -0.215057)
(0.0817571 -0.0367925 -0.271755)
(0.0846878 -0.0338175 -0.217846)
(0.10709 -0.023143 -0.232907)
(0.0950609 -0.0265811 -0.257248)
(0.110388 -0.0135714 -0.249586)
(0.126484 -0.0104554 -0.185797)
(0.0945093 -0.0256143 -0.215041)
(0.112759 -0.00748556 -0.207725)
(0.135051 0.0136954 -0.229763)
(0.135978 0.0287588 -0.221225)
(0.10949 0.00563219 -0.154243)
(0.137258 0.0145921 -0.201628)
(0.142723 0.0249297 -0.199109)
(0.133183 0.054801 -0.20486)
(0.140795 0.04283 -0.165388)
(0.0520934 -0.0591367 -0.285325)
(0.0532162 -0.0633499 -0.249027)
(0.0876269 -0.0316782 -0.277691)
(0.0767493 -0.0414472 -0.30136)
(0.10408 -0.0144232 -0.300285)
(0.0697599 -0.0530873 -0.248104)
(0.0888734 -0.0290057 -0.242494)