/*--------------------------------*- C++ -*----------------------------------*\
| =========                 |                                                 |
| \\      /  F ield         | OpenFOAM: The Open Source CFD Toolbox           |
|  \\    /   O peration     | Version:  5.x                                   |
|   \\  /    A nd           | Web:      www.OpenFOAM.org                      |
|    \\/     M anipulation  |                                                 |
\*---------------------------------------------------------------------------*/
FoamFile
{
    version     2.0;
    format      ascii;
    class       surfaceScalarField;
    location    "3.55";
    object      phi;
}
// * * * * * * * * * * * * * * * * * * * * * * * * * * * * * * * * * * * * * //

dimensions      [0 3 -1 0 0 0 0];

internalField   nonuniform List<scalar> 
29271
(
-7.74653e-06
-1.25113e-06
-3.23468e-07
9.21701e-06
-8.31373e-06
-6.42823e-08
2.65757e-07
8.17951e-06
-2.26209e-05
-9.34228e-07
4.48853e-07
-5.65313e-07
2.92977e-06
2.07418e-05
-1.82312e-05
-9.49809e-07
-1.80076e-06
1.27935e-06
1.58325e-06
1.81191e-05
-2.19567e-05
-3.31827e-06
6.82469e-06
4.32168e-06
1.72346e-05
-3.10601e-06
-2.02938e-05
-2.82489e-06
-1.20485e-06
3.90243e-06
4.84804e-06
1.55731e-05
-2.05994e-05
-7.13138e-06
-2.72671e-07
1.36895e-06
6.42557e-06
2.0209e-05
-1.9082e-05
-2.27561e-06
-7.19645e-07
1.59439e-06
3.70025e-06
1.67826e-05
-2.31819e-05
-3.98607e-06
-3.71706e-06
2.43949e-06
2.87391e-06
2.55716e-05
-2.94164e-05
-1.93478e-06
-1.97763e-06
3.74604e-05
-4.2687e-06
-6.73136e-06
-1.75678e-06
2.86358e-06
5.60194e-06
-2.54957e-05
-1.95624e-06
-5.53692e-06
3.22912e-06
5.12354e-06
2.46363e-05
-2.2519e-05
-8.09042e-06
-5.14387e-06
1.78712e-06
6.98906e-06
2.69771e-05
-2.09261e-05
-6.06291e-06
3.12052e-07
-5.78908e-07
9.19312e-06
1.80627e-05
-2.11842e-05
-1.12136e-06
-2.71347e-08
-6.30113e-07
3.39531e-06
1.95675e-05
-2.19426e-05
-1.4497e-06
-2.67195e-06
1.09808e-05
1.42e-05
8.83448e-07
-2.45165e-05
-4.22611e-06
7.60457e-06
4.72721e-06
2.21129e-05
-5.70203e-06
-2.58497e-05
-4.87625e-06
-2.06835e-06
7.14582e-06
-8.4022e-07
2.64887e-05
-2.9675e-05
-1.12696e-05
-2.13119e-06
-3.84258e-06
4.96942e-06
4.1949e-05
-2.90478e-05
-1.39348e-05
6.38052e-06
3.50314e-05
-8.53198e-06
1.01026e-05
-1.09876e-05
-9.61186e-06
1.13554e-05
9.28074e-06
-1.75828e-05
-2.92042e-07
2.93723e-06
1.42803e-05
5.31233e-07
-2.579e-05
-9.05576e-07
-9.53094e-08
-4.01076e-06
2.65338e-05
4.26789e-06
-9.13856e-06
5.11847e-07
9.83969e-07
7.64064e-06
-1.01261e-05
-1.75056e-06
2.06766e-06
9.69084e-06
-7.70382e-06
5.38193e-07
1.5478e-06
5.67892e-06
-5.4371e-08
-2.5755e-06
-1.74248e-05
3.93554e-06
1.014e-06
1.51051e-05
2.61525e-06
-1.71994e-05
-1.38788e-06
6.01598e-07
1.25156e-06
1.41189e-05
-1.30054e-05
-2.69399e-06
4.19448e-07
4.29872e-06
1.18603e-05
-8.79116e-07
-3.71631e-06
-1.38336e-06
-1.34382e-05
1.43094e-06
7.17952e-06
9.92738e-06
9.10728e-06
3.91186e-05
3.77282e-05
-1.92236e-05
-1.7439e-05
-1.71651e-05
-1.42516e-05
-4.34507e-06
-3.72384e-06
-3.53207e-06
-2.61943e-06
-1.09159e-06
-1.79677e-06
-1.35008e-06
5.83913e-07
1.77104e-05
5.5251e-06
5.42969e-05
-1.59129e-05
-1.52496e-05
-1.40766e-05
-1.51104e-05
-9.9233e-07
-1.89388e-06
-1.85456e-06
-3.33477e-06
-1.94367e-06
-1.40128e-05
0.000224469
-5.77523e-06
-3.47093e-06
-1.52463e-05
-1.2094e-05
-4.25817e-06
-9.12843e-06
-1.10298e-05
-2.86227e-05
-3.03057e-05
-3.66998e-05
-3.41714e-05
-3.49278e-05
-2.59995e-06
4.48754e-06
3.11584e-05
-5.17506e-06
-2.53072e-06
1.71474e-06
5.86867e-06
-3.22576e-06
-2.86152e-05
-9.25853e-06
4.02563e-06
6.80672e-06
3.02672e-05
7.41567e-07
4.74678e-05
0.000120523
-2.03533e-05
-1.55913e-05
-4.10754e-05
-4.33887e-05
-1.74671e-06
-3.78118e-06
-6.56672e-07
-3.02031e-06
4.22751e-06
1.86289e-05
5.78481e-05
-1.20441e-05
-1.28836e-05
-2.64349e-05
-2.30752e-05
4.09736e-06
-2.5162e-06
4.93466e-05
4.85895e-07
5.34935e-06
3.38674e-06
-2.78886e-06
-3.86349e-06
-2.57298e-06
-1.58099e-05
-1.7815e-05
-1.96275e-05
-7.45738e-06
-1.84584e-05
4.00042e-06
1.17428e-06
-8.61561e-06
2.59967e-05
-1.22145e-05
1.33088e-06
3.58371e-06
1.782e-06
7.8216e-06
-2.30373e-06
-1.24989e-05
6.51332e-06
0.000203707
-8.61869e-06
-2.58575e-06
-1.11649e-06
5.21344e-07
6.13926e-06
9.39621e-06
9.14492e-06
-3.91133e-05
-5.62654e-05
-2.46261e-05
-4.313e-05
-6.06362e-06
9.42632e-06
0.000157094
-5.2963e-06
1.44348e-06
-1.84382e-06
8.74417e-06
1.26803e-05
1.24413e-05
-4.82303e-05
-4.26341e-05
-4.7208e-05
-4.44235e-05
-2.88711e-05
-4.46366e-06
4.07661e-06
2.06783e-05
-2.93999e-06
1.5633e-06
1.96044e-06
-5.17828e-07
-1.57907e-05
1.25706e-06
-4.01483e-06
2.50623e-05
-3.01057e-05
4.28397e-06
-7.86389e-06
6.6771e-06
3.64349e-05
-1.25747e-05
-1.09575e-05
5.31358e-06
1.82154e-05
-5.66089e-06
1.09488e-06
2.10678e-06
2.47765e-06
-3.49849e-06
9.68781e-07
9.84646e-07
1.53255e-06
1.26699e-06
-3.63749e-06
-1.16017e-05
6.08887e-06
4.0979e-07
7.47354e-06
-5.24061e-06
-1.21072e-05
-4.53328e-06
5.69947e-06
3.65316e-06
1.25285e-05
-7.30558e-06
-2.50282e-06
1.94114e-06
3.64055e-06
9.40568e-06
-5.17896e-06
-3.08196e-06
-1.16889e-06
-4.32458e-06
2.76585e-06
4.96912e-06
8.40464e-07
3.12733e-06
2.19079e-05
1.35059e-05
-8.93203e-07
1.55559e-07
-9.49095e-07
3.78073e-07
-1.4142e-06
3.3097e-07
-7.63534e-07
2.34253e-06
2.38904e-05
-1.28683e-06
2.71467e-05
-5.62103e-07
7.87971e-07
1.5853e-06
5.86276e-06
-1.90664e-06
7.46888e-06
0.000232885
-3.82286e-06
-4.267e-06
3.56386e-06
1.81453e-06
4.99402e-08
2.44709e-06
1.01271e-05
-3.14214e-05
-2.24606e-06
-4.90702e-06
3.66683e-05
-7.95763e-06
-1.8903e-06
-2.60517e-07
1.01038e-05
6.10508e-06
-2.92416e-05
-7.48151e-06
1.80476e-06
5.11013e-06
2.37032e-05
3.36356e-07
3.57596e-05
0.00011892
-5.19268e-06
-4.32591e-06
-1.01608e-06
-2.05042e-06
8.74224e-06
1.10632e-05
3.70922e-05
4.17106e-06
-3.23013e-06
5.08767e-05
4.36993e-06
5.3566e-06
6.35982e-06
-1.08412e-06
-1.73822e-07
-1.08831e-06
-2.42373e-05
5.59709e-06
3.18068e-06
-2.91162e-06
2.25422e-05
-8.85576e-06
-2.05198e-06
1.38377e-06
3.12436e-06
1.07346e-05
-4.33503e-06
-8.76189e-06
5.7153e-06
0.000226065
-1.96933e-06
-9.53908e-07
-9.39346e-10
7.82431e-07
5.7518e-06
6.42649e-06
6.41231e-06
-1.09964e-06
5.58923e-06
0.000142991
-2.84278e-06
5.30746e-07
-2.56401e-06
7.09628e-06
4.32635e-06
5.36812e-06
-1.59249e-05
1.41019e-06
4.94098e-07
9.6908e-06
1.5339e-06
1.75795e-07
-2.10645e-06
4.05376e-07
-3.40844e-05
1.67009e-06
-2.56057e-06
4.06891e-05
-4.55151e-05
3.4106e-06
-6.75222e-06
4.40476e-06
5.00412e-05
-2.38329e-05
-6.51641e-06
3.94395e-06
2.6406e-05
-1.84758e-06
-3.06388e-06
2.75041e-06
2.15083e-06
-2.22457e-07
4.58539e-07
2.59604e-07
-5.08062e-07
1.24246e-06
-1.01406e-06
-3.86652e-06
3.57339e-06
-1.19635e-06
1.26109e-06
-5.68182e-06
-1.47011e-05
-6.79908e-06
7.08146e-06
2.65342e-06
1.74471e-05
-1.67648e-05
-1.10034e-06
2.51712e-06
-1.23242e-06
2.30219e-05
-6.44144e-06
-6.216e-07
7.26361e-08
1.14238e-06
5.79698e-07
1.03506e-06
-2.20817e-06
1.15996e-06
1.21587e-05
1.31001e-06
-6.74739e-07
5.80276e-07
3.81611e-07
8.47366e-07
-2.5327e-06
8.54356e-08
-4.27928e-07
6.17902e-07
1.87144e-05
-2.53204e-06
3.64557e-06
-2.64427e-07
3.53464e-06
1.14225e-06
4.06628e-06
3.5637e-06
7.97121e-06
0.000207188
2.0986e-06
1.58997e-06
3.16745e-06
1.94901e-06
7.6296e-06
6.77078e-06
9.67117e-06
-4.03893e-05
-2.93056e-06
3.23281e-06
4.36508e-05
-1.17244e-05
-7.3749e-07
-1.29993e-08
1.24749e-05
3.0096e-06
-2.22431e-05
-3.19855e-06
-2.68774e-07
1.88844e-06
2.08123e-05
7.27877e-06
3.38271e-05
0.000106508
-3.89291e-06
-4.87841e-06
-2.98307e-06
-4.7808e-06
2.7187e-06
4.32166e-06
3.47986e-05
3.4581e-06
-4.88163e-07
4.76577e-05
4.43979e-06
2.59976e-06
4.39982e-06
-2.49455e-07
-2.5417e-07
3.27816e-09
-2.55217e-05
-6.05194e-07
6.74129e-07
-2.2198e-08
2.89331e-05
-1.20849e-05
-4.62458e-06
3.34967e-06
1.92327e-06
1.27078e-05
-1.27122e-06
-6.60513e-07
4.84183e-06
0.000250568
-3.76656e-06
-2.10534e-06
-2.55992e-06
-1.81153e-06
4.99353e-06
4.95193e-06
5.44089e-06
-1.29734e-06
1.89602e-06
0.000145841
-2.81769e-06
-5.64311e-07
-1.85517e-06
2.26468e-06
1.26419e-06
1.92081e-06
-4.82959e-06
8.21306e-07
9.47898e-07
1.27489e-06
-3.52571e-06
-1.42306e-06
-1.16097e-06
6.1102e-06
-4.76592e-05
1.15414e-06
-2.14707e-06
5.34948e-05
-5.29631e-05
2.3735e-06
-5.92353e-06
4.42e-06
5.39892e-05
-2.84891e-05
-3.56909e-06
2.48018e-06
2.95844e-05
-2.4208e-06
-1.8413e-06
2.0957e-06
2.16012e-06
8.23651e-07
1.58977e-07
-1.28929e-07
-9.09743e-07
1.11212e-06
-4.187e-07
3.76705e-07
2.29057e-06
-2.09161e-06
-1.26909e-06
-4.21967e-06
-2.11569e-05
-6.60416e-06
6.53725e-06
1.00524e-06
2.44382e-05
-2.89365e-05
-3.08721e-07
9.76223e-07
-1.18151e-06
3.41775e-05
-4.72693e-06
8.22199e-08
-2.4974e-07
2.30527e-06
-1.78534e-07
6.4444e-07
-2.60366e-06
5.2686e-06
5.50439e-06
-7.12041e-06
9.95966e-07
1.41957e-06
1.4457e-06
1.49496e-06
-1.37042e-06
-1.95142e-06
-1.05357e-06
-3.32335e-06
1.38556e-05
-7.08348e-06
-3.31014e-06
8.71731e-07
1.82282e-06
1.1164e-06
1.64121e-06
7.70134e-06
4.78019e-06
0.000179495
1.07903e-06
8.4999e-07
2.135e-06
1.16205e-06
7.40588e-06
8.75543e-06
7.67914e-06
-4.79431e-05
-1.22328e-06
4.06058e-06
5.28071e-05
-1.3355e-05
1.15282e-06
-9.57197e-07
1.31594e-05
-1.17838e-06
-1.97747e-05
-2.70029e-06
3.04383e-06
1.6789e-06
1.89307e-05
2.48019e-05
2.63484e-05
9.00421e-05
-5.55774e-06
-8.07261e-06
-6.34011e-06
-9.20948e-06
6.0413e-06
1.47451e-06
4.50012e-05
2.01042e-06
1.12158e-06
3.72844e-05
3.62823e-06
3.15184e-06
4.38241e-06
7.49794e-07
4.29106e-06
1.85941e-06
-3.42535e-05
-2.07793e-06
-1.17965e-06
9.81658e-07
3.85398e-05
-1.51658e-05
-6.03136e-06
5.21227e-06
2.29713e-06
1.57079e-05
-2.02012e-06
1.15931e-05
3.58446e-06
0.00026632
-5.81792e-06
-3.75969e-06
-4.273e-06
-3.12398e-06
4.13505e-06
3.49083e-06
4.76661e-06
-7.91204e-07
1.49974e-07
0.000161517
-1.42196e-06
-1.38846e-06
-1.88707e-06
1.66011e-06
-2.76004e-07
1.34609e-06
-5.71692e-07
-1.18663e-06
3.73066e-07
1.71563e-06
-7.54478e-06
-2.45734e-06
2.86228e-06
7.13928e-06
-5.81068e-05
3.57287e-07
1.94993e-07
6.11376e-05
-5.67393e-05
-8.09056e-08
-2.79782e-06
8.63481e-08
5.96817e-05
-2.87925e-05
-1.93216e-06
2.36451e-06
2.83607e-05
-1.83757e-06
-1.0472e-06
1.25247e-06
1.62927e-06
8.81574e-07
1.1536e-07
-2.62534e-07
-8.09367e-07
8.19698e-07
-3.45633e-07
1.32162e-06
9.40681e-07
-1.51032e-06
-1.22605e-06
-3.00559e-06
-2.62347e-05
-3.50731e-06
4.43892e-06
2.67585e-06
2.56329e-05
-3.81742e-05
-1.08878e-06
2.22168e-06
7.92574e-07
3.92519e-05
-3.00311e-06
4.54101e-07
-1.36785e-06
2.64847e-06
8.26528e-07
-8.64178e-07
-1.69707e-06
3.94681e-06
-3.36303e-06
-5.39909e-06
2.02918e-06
1.94812e-06
1.92105e-06
1.9802e-06
-5.30992e-07
-5.96358e-06
-3.55066e-07
-3.334e-06
8.45069e-06
-1.66627e-05
9.44377e-06
9.0125e-07
1.92704e-07
-2.91526e-07
-1.39755e-06
6.08386e-06
-2.66077e-06
0.000173006
1.39051e-07
6.60403e-07
8.15412e-07
-1.07711e-06
4.69048e-06
3.45143e-06
2.83751e-06
-5.67472e-05
-3.69515e-06
1.41122e-05
-6.97426e-06
5.93883e-05
-3.08485e-07
-3.68499e-08
-2.46107e-08
3.7009e-07
-1.18423e-05
2.80499e-06
1.65354e-06
7.38666e-06
-1.21319e-05
-1.81557e-05
-4.1054e-07
1.28765e-05
3.57888e-06
1.42427e-05
4.43079e-05
2.21089e-05
6.64107e-05
-1.13896e-05
-1.14231e-05
-1.24038e-05
-1.09319e-05
1.91737e-05
-1.44424e-06
5.49169e-05
2.69584e-06
3.73547e-06
3.11892e-05
4.45732e-06
2.46425e-06
3.33443e-06
3.90957e-07
4.99158e-06
5.38361e-07
-4.08971e-05
-1.26708e-06
5.87679e-06
5.66498e-06
3.33183e-05
-2.63975e-09
-6.23201e-07
1.28913e-09
-1.21236e-08
6.3406e-07
-1.47803e-05
-8.97465e-07
4.21457e-06
3.53873e-07
1.35079e-05
-2.39858e-06
2.12476e-05
3.34362e-06
0.000269224
-6.28063e-06
-3.80332e-06
-4.36434e-06
-3.30361e-06
4.35929e-06
3.259e-06
4.74813e-06
-8.842e-07
-4.57897e-07
0.000180642
-3.61832e-07
6.42351e-07
3.9216e-07
1.14401e-06
-7.20466e-07
9.24248e-07
-4.69242e-06
-2.3266e-06
2.47442e-06
7.39587e-06
-6.66852e-06
-4.53626e-07
3.00861e-06
4.07152e-06
-6.35316e-05
2.31155e-08
1.10202e-06
6.57501e-05
-6.31245e-05
-1.81622e-06
-7.26109e-07
-9.56686e-07
6.61656e-05
-2.8453e-05
-1.28902e-06
1.19983e-06
2.85422e-05
-1.21654e-06
-2.50348e-07
2.90034e-07
1.18014e-06
7.09219e-07
1.4792e-07
-3.39438e-07
-5.95258e-07
7.77775e-07
-4.4084e-07
9.4162e-07
1.66204e-08
-1.46996e-06
1.74789e-07
-2.88691e-06
-2.40941e-05
-9.45432e-07
1.86628e-06
4.03152e-06
2.20286e-05
-3.92167e-05
-1.31737e-06
1.95645e-06
1.28905e-06
3.82163e-05
-9.27673e-07
8.64082e-07
-4.0898e-07
1.26124e-06
2.30663e-07
-1.24376e-06
-7.03251e-07
-1.94358e-06
-1.35564e-05
5.134e-06
2.07274e-06
1.44575e-06
1.80509e-06
1.22528e-06
-2.8298e-07
-4.83712e-07
-2.96304e-07
-5.18953e-07
-3.46885e-06
-1.16565e-05
3.4822e-05
-2.37893e-06
-3.66848e-06
-2.37883e-06
-3.77016e-06
1.65388e-06
-5.27717e-06
0.000170537
-5.95368e-07
-4.30653e-07
5.25456e-07
2.33858e-08
1.00035e-06
8.72504e-07
1.22704e-06
-6.86233e-05
8.87948e-06
9.62224e-06
-1.59642e-07
5.19351e-05
-1.57351e-06
6.73797e-07
-1.08604e-06
-1.04866e-06
-5.73248e-07
3.60766e-06
-1.85517e-06
1.07065e-06
5.73289e-07
2.00878e-07
-1.91807e-06
-7.63696e-06
-3.18537e-07
3.07165e-06
3.14787e-06
3.65404e-06
1.88874e-05
1.06488e-05
3.58968e-05
-3.67691e-06
-6.36755e-06
-3.7874e-07
-2.15555e-06
1.23814e-05
-2.13107e-06
5.18975e-05
1.24472e-06
3.14842e-06
2.75522e-05
2.37156e-06
9.16807e-07
1.38162e-06
-7.75835e-07
3.39395e-06
-9.40091e-07
-3.39579e-05
-6.6183e-07
1.51976e-06
1.20682e-06
3.31379e-05
-1.45357e-06
4.09676e-07
2.34803e-07
-7.65636e-07
2.38877e-08
1.55084e-06
-1.49902e-05
1.26266e-06
1.66158e-06
-1.64391e-06
1.61361e-05
-2.42623e-06
3.25165e-05
2.96542e-06
0.000250028
-6.18623e-06
-3.76016e-06
-4.10963e-06
-3.51526e-06
4.29866e-06
2.93217e-06
4.70297e-06
1.46443e-06
-8.35957e-07
0.000198211
3.24138e-06
3.8026e-06
4.87278e-06
6.39513e-07
-9.78512e-07
6.10384e-07
-1.03595e-05
-1.40372e-06
3.32166e-06
1.30544e-05
-1.93697e-06
-3.12953e-06
9.54279e-07
7.25442e-07
3.36183e-06
-1.47808e-06
5.16584e-07
-5.71558e-07
1.53305e-06
-6.76346e-05
-1.67093e-07
1.52247e-06
6.92446e-05
-6.87601e-05
-2.23215e-06
4.03473e-07
-1.57862e-06
7.13315e-05
-2.87025e-05
-4.28635e-07
2.16354e-07
2.89147e-05
-1.38897e-06
-4.66262e-07
3.19923e-07
1.53118e-06
4.71491e-07
-1.44718e-07
-1.99545e-07
-2.45942e-07
2.18298e-07
3.0187e-07
-1.15076e-06
-4.01218e-07
-3.85461e-07
1.41727e-06
-1.41283e-06
-1.96268e-05
-5.6776e-07
1.54114e-06
2.97271e-06
1.70935e-05
-3.76535e-05
6.71843e-08
1.71905e-08
4.54075e-08
3.76241e-05
-1.00444e-07
5.32905e-07
-5.0296e-08
1.74033e-07
1.41925e-07
-9.45535e-07
1.46967e-07
-1.07398e-05
-4.42766e-06
1.81691e-05
-2.4419e-07
-5.56559e-07
6.12596e-08
-1.25073e-07
2.09205e-07
8.81771e-07
7.50636e-07
1.15532e-06
-1.18434e-05
-1.04015e-05
5.7213e-05
-2.38726e-06
-4.28246e-06
-1.29734e-06
-2.9189e-06
-1.71514e-07
-7.11536e-06
0.000162262
1.58888e-07
4.3827e-07
1.6935e-06
1.18034e-06
5.20378e-07
-9.71657e-07
6.98654e-07
-5.04044e-05
-9.12001e-07
1.63668e-06
1.28392e-06
4.82242e-05
-5.43837e-06
-4.33974e-07
-3.32218e-06
1.70937e-06
4.21749e-07
7.0634e-06
-5.08553e-08
3.10555e-07
-3.84378e-07
8.56821e-08
1.83894e-07
-4.44182e-06
1.21132e-06
-6.11486e-07
-3.15928e-06
6.81737e-06
7.00093e-06
1.32182e-06
2.42885e-05
5.49621e-07
9.78844e-08
-8.6705e-07
-9.2258e-07
1.3065e-06
-1.25079e-05
5.96983e-05
-1.53669e-06
8.63827e-07
3.91948e-05
-2.48879e-06
-3.19716e-06
-4.61929e-06
-2.44663e-06
-9.11809e-07
-3.11488e-06
-3.26773e-05
-1.6979e-06
1.40043e-07
2.10644e-06
3.0592e-05
-1.5391e-06
-3.94156e-09
-1.78073e-07
-5.09882e-08
-7.88494e-08
1.85096e-06
-1.49857e-05
2.37356e-06
-7.04897e-08
-5.03091e-06
1.24941e-05
5.21941e-06
3.79862e-05
2.48585e-06
0.000211571
-4.18376e-06
-3.53748e-06
-1.18533e-06
-3.14715e-06
4.12493e-06
2.82558e-06
4.41035e-06
7.28853e-06
-2.03333e-06
0.000195781
7.14283e-06
9.72701e-06
8.78755e-06
-4.35065e-07
-2.02558e-06
-5.43664e-07
-1.69886e-05
3.69903e-06
1.133e-06
2.03089e-05
-4.54203e-06
-1.06005e-06
9.40838e-07
-1.95197e-06
6.60681e-06
-2.16205e-06
-3.92324e-07
2.76482e-07
4.17597e-07
1.86029e-06
-7.06323e-05
-1.82695e-07
1.66871e-06
7.16321e-05
-7.37497e-05
-3.03798e-06
1.9673e-06
-2.57034e-06
7.53573e-05
-2.93523e-05
1.83378e-06
-1.51704e-06
2.90356e-05
-1.57923e-06
-9.45034e-08
-2.27614e-07
1.90193e-06
-2.1014e-07
-1.38532e-07
1.20751e-07
1.96545e-07
5.6073e-07
-1.42102e-07
-1.64413e-06
-3.85577e-07
-6.56121e-07
2.2672e-06
-1.29883e-07
-1.54541e-05
-2.00015e-07
6.20608e-07
7.45999e-07
1.44174e-05
-3.80797e-05
1.86502e-06
-2.30258e-06
-1.63846e-06
3.88126e-05
1.34311e-06
4.03318e-07
8.50781e-08
-8.18281e-07
1.62856e-07
-4.70431e-07
6.3746e-07
-1.15833e-05
-5.29078e-06
3.24283e-05
-3.54234e-07
4.89596e-07
-8.92545e-07
4.70569e-07
3.00806e-07
1.65891e-06
-1.31599e-07
1.0733e-06
-1.82567e-05
-1.92944e-05
8.33607e-05
1.70308e-07
-1.69124e-06
1.48493e-06
-1.43854e-07
-2.16171e-06
-5.82392e-06
0.000156352
1.56851e-06
1.96436e-06
2.66212e-06
7.67534e-07
-1.19468e-06
-6.2758e-06
-3.85271e-06
-5.90466e-05
6.14932e-06
9.9221e-07
-4.0536e-08
4.97838e-05
-7.10212e-06
-9.66681e-07
1.82772e-06
1.99479e-06
4.24629e-06
-2.65452e-07
3.77372e-07
-5.42793e-07
4.30741e-07
-3.4231e-08
-7.59339e-06
1.14519e-07
1.13346e-06
-1.12144e-06
7.50109e-06
1.18927e-06
-1.01033e-05
3.17792e-05
-1.23271e-06
-9.52882e-07
-1.41577e-06
-2.66071e-07
-1.28911e-05
-1.72944e-05
7.17787e-05
-5.42715e-06
-2.19193e-06
6.26144e-05
-6.768e-06
-8.22651e-06
-9.2399e-06
-3.17282e-06
-2.45373e-06
-4.65462e-06
-2.97549e-05
-1.40522e-06
-3.17414e-06
1.2118e-06
2.76953e-05
-2.50056e-06
-2.4299e-06
1.47822e-06
-8.22059e-07
9.01631e-07
3.37268e-06
-1.09926e-05
5.00273e-07
-6.35984e-07
-3.98409e-06
1.20784e-05
3.03392e-06
2.98977e-05
7.61115e-07
0.000172341
-5.3173e-07
-2.83239e-06
1.41823e-06
-1.75724e-06
1.29139e-06
1.69649e-07
7.09574e-07
7.4796e-06
-3.25387e-06
0.000185508
8.53921e-06
8.40135e-06
8.56711e-06
-1.55223e-06
-3.28877e-06
-2.01614e-06
-2.25646e-05
6.18171e-06
-1.13286e-06
2.28034e-05
-7.75353e-06
-1.17449e-06
-2.11084e-06
1.10375e-05
-7.28653e-05
-4.74836e-07
1.54862e-06
7.25527e-05
-7.69736e-05
-4.23262e-06
3.82691e-06
-3.64248e-06
7.77679e-05
-2.93053e-05
2.6383e-06
-2.20038e-06
2.88674e-05
-2.36163e-06
5.84356e-07
-9.35341e-07
2.71261e-06
9.85007e-07
9.28285e-07
3.63008e-07
-2.27622e-06
-2.91008e-07
-8.65874e-07
-3.3372e-06
-8.59869e-08
4.54887e-07
4.12519e-06
2.26683e-07
-1.42645e-05
4.80057e-07
-8.80869e-07
-3.86654e-07
1.48253e-05
-3.93132e-05
2.74114e-06
-2.92187e-06
-2.524e-06
3.93572e-05
2.6608e-06
-6.62564e-07
-3.3953e-07
-1.70156e-07
1.1584e-06
2.04966e-07
-1.91121e-07
-1.5273e-05
6.15732e-06
4.52289e-05
-1.04e-06
1.44241e-07
-1.49299e-06
-3.5879e-08
-3.6095e-07
1.21802e-07
-6.89986e-07
-3.31117e-07
-2.25389e-05
-1.83934e-05
0.000104127
1.46847e-06
-3.089e-07
2.5717e-06
1.1622e-06
-7.21037e-06
-4.89753e-06
0.0001544
2.06128e-06
9.8677e-07
3.18219e-06
1.58132e-06
-5.72257e-06
-5.36254e-06
-5.20489e-06
-4.55831e-05
-1.40958e-06
-2.01609e-06
4.17984e-05
-4.95526e-07
-8.92864e-09
-2.0905e-07
7.13505e-07
-4.44092e-08
-6.55662e-06
-1.27666e-07
6.43336e-07
-2.16114e-08
6.10697e-06
-4.18846e-06
-7.50367e-07
4.15535e-05
-5.82566e-07
9.99585e-07
-6.34197e-07
1.53902e-06
-1.46193e-05
-2.01762e-05
8.39923e-05
-7.92247e-06
-4.7073e-06
8.96073e-05
-8.43324e-06
-6.87706e-06
-6.42843e-06
-4.37835e-06
-4.25278e-06
-3.5101e-06
-3.58064e-05
-8.88352e-07
-8.14155e-06
2.61326e-06
3.43006e-05
-1.45055e-05
-1.09135e-07
-3.13576e-08
-2.03173e-06
1.61938e-05
4.83976e-07
1.85808e-05
-1.52883e-06
0.000157538
3.58101e-07
-4.72529e-07
1.02781e-06
-1.74331e-07
-9.07397e-07
-1.7437e-06
-1.08762e-06
6.16361e-06
-6.07414e-06
0.000183311
6.19186e-06
6.6057e-06
5.32469e-06
-4.60126e-06
-6.79686e-06
-6.21155e-06
-2.63018e-05
5.55579e-06
-5.96208e-06
2.81644e-05
-1.22636e-05
4.44738e-06
-3.44524e-06
1.12614e-05
-7.28167e-05
-1.3864e-06
4.22646e-07
7.22525e-05
-7.85829e-05
-3.52766e-06
7.03588e-06
-5.99932e-06
7.49999e-05
-2.80364e-05
4.70599e-06
-2.68562e-06
2.60186e-05
-3.02225e-06
7.14338e-07
-1.00715e-06
3.31506e-06
2.72778e-06
-3.63223e-07
1.91271e-07
-2.55582e-06
-9.67502e-07
4.04824e-07
-4.14402e-06
-7.0616e-07
1.09791e-06
4.31495e-06
4.7397e-07
-1.59794e-05
1.55138e-06
-2.34364e-06
-1.14177e-06
1.74395e-05
-3.9083e-05
2.77546e-06
-2.81722e-06
-2.43691e-06
3.84939e-05
3.0678e-06
4.69985e-07
-6.39032e-07
7.06408e-07
1.20533e-06
-9.2432e-07
-8.18369e-07
-2.24249e-05
6.39242e-06
5.90054e-05
-4.17264e-07
4.59014e-07
-3.2238e-07
9.15293e-07
4.63618e-07
2.57577e-07
5.44872e-07
3.55239e-07
-2.53226e-05
-1.00883e-05
0.00011173
1.57245e-06
1.66729e-07
2.3676e-06
1.27582e-06
-4.41031e-06
-5.86482e-06
0.000142195
2.10606e-06
1.47839e-06
2.91355e-06
1.4438e-06
-3.58103e-06
-4.32462e-06
-2.87944e-06
-3.78871e-05
4.26952e-07
-1.4923e-06
3.45421e-05
-9.58544e-07
-3.757e-07
1.54901e-07
1.17911e-06
-3.90393e-07
-6.09637e-06
9.23062e-07
4.76774e-07
-1.55704e-06
6.64396e-06
-1.0782e-05
5.0786e-06
5.14873e-05
-2.0561e-07
1.24691e-06
1.02184e-08
1.11054e-06
-1.66996e-05
-1.25855e-05
9.2407e-05
-4.64436e-06
-5.03374e-06
9.69148e-05
-5.45579e-06
-3.25634e-06
-3.66991e-06
-2.75061e-06
-3.18673e-06
-1.87432e-06
-3.06763e-05
-3.69949e-07
-2.09041e-06
9.45083e-07
2.75472e-05
-1.66475e-05
1.28496e-06
1.58208e-07
-1.83548e-06
1.61841e-05
8.55735e-07
1.72219e-05
-5.82032e-07
0.000149256
-3.26331e-07
-5.66323e-07
-4.98081e-07
-1.1284e-06
-6.91155e-07
-2.51283e-07
1.82334e-07
5.02326e-06
-4.06034e-06
0.000182066
4.68752e-06
5.49584e-06
4.07743e-06
-3.80999e-06
-2.59303e-06
-2.93938e-06
-3.14649e-05
3.63526e-06
-4.873e-06
3.26921e-05
-1.12436e-05
2.02744e-06
-1.74522e-06
1.09614e-05
-6.92183e-05
1.13238e-08
2.37171e-06
6.62534e-05
-6.95565e-05
-1.4658e-06
3.84687e-06
-2.46794e-06
6.5583e-05
-2.41262e-05
4.46614e-06
-3.53403e-06
2.31897e-05
-3.56327e-06
6.37721e-07
-8.35291e-07
3.76084e-06
2.18109e-06
-1.01168e-06
3.73464e-07
-1.54288e-06
-7.93814e-07
1.01673e-06
-4.66479e-06
-1.66056e-06
-5.41834e-08
6.15662e-06
4.75071e-07
-1.89696e-05
2.96459e-06
-3.25296e-06
-1.56386e-06
2.03467e-05
-3.79015e-05
2.10684e-06
-2.42869e-06
-2.01691e-06
3.72638e-05
2.97643e-06
3.36743e-07
-1.60835e-07
6.92987e-07
-2.30042e-07
-8.94566e-07
2.55713e-07
-2.90686e-05
-4.06352e-07
7.02957e-05
1.45263e-06
1.31134e-06
1.9308e-06
2.069e-06
2.70123e-06
2.09608e-06
3.24818e-06
3.37536e-06
-2.76923e-05
-1.01228e-05
0.000113519
1.79072e-06
5.44575e-07
2.87029e-06
1.75151e-06
-4.86942e-06
-8.5032e-06
0.000128681
1.98519e-06
1.50261e-06
2.85262e-06
1.68498e-06
-2.65135e-06
-4.16433e-06
-2.01525e-06
-3.19509e-05
1.05036e-06
-2.70952e-06
2.87407e-05
-1.42558e-06
-3.87892e-07
3.14816e-07
1.49871e-06
-5.3734e-07
-7.07219e-06
5.0794e-07
-4.92577e-09
-7.03212e-07
7.80972e-06
-1.40037e-05
5.97508e-07
6.06451e-05
9.53414e-07
3.36173e-07
1.66688e-06
8.85554e-07
-1.64884e-05
-1.09922e-05
9.57611e-05
-2.26679e-06
-4.09812e-06
8.97383e-05
-1.91656e-06
-1.68852e-06
-1.3439e-06
-1.84801e-06
-3.01345e-06
-1.63983e-06
-2.49601e-05
1.03881e-06
4.53083e-07
-2.74259e-06
2.3944e-05
-1.55664e-05
1.39147e-06
4.62431e-07
-1.65133e-06
1.48888e-05
4.75033e-07
1.76257e-05
-3.22632e-07
0.000141593
-2.54233e-06
-2.40307e-06
-2.17473e-06
-2.64083e-06
4.56005e-07
-3.71089e-07
6.33273e-07
4.11673e-06
-2.45706e-06
0.00018201
3.56553e-06
5.46541e-06
3.63752e-06
-2.61088e-06
-2.29902e-06
-2.72869e-06
-3.61089e-05
2.29902e-06
-2.85278e-06
3.66813e-05
-1.03634e-05
2.51535e-06
-1.14518e-06
8.99323e-06
-6.48521e-05
-2.87338e-06
3.43336e-06
6.39695e-05
-6.33088e-05
-2.97328e-06
3.77946e-06
-2.05696e-06
6.21025e-05
-2.26293e-05
1.30123e-06
-1.22868e-06
2.25568e-05
-3.92204e-06
5.02453e-07
-6.80051e-07
4.09964e-06
6.12646e-07
-1.63401e-06
4.80023e-07
5.41337e-07
9.29792e-07
2.38219e-06
-8.2707e-06
-3.42878e-06
-2.54402e-06
1.09315e-05
9.52001e-07
-2.16115e-05
4.08372e-06
-3.56904e-06
-2.44227e-06
2.25871e-05
-3.69117e-05
1.04329e-06
-1.80333e-06
-1.69383e-06
3.67266e-05
2.63898e-06
3.6884e-07
8.34963e-07
-1.62272e-06
-2.41924e-06
-7.5423e-07
3.5924e-06
-3.10324e-05
-8.00892e-06
7.61859e-05
3.0237e-06
2.49472e-06
3.25256e-06
3.55398e-06
4.91772e-06
4.8184e-06
5.16082e-06
5.92922e-06
-2.61515e-05
-1.40637e-05
0.000111228
2.75915e-06
1.42684e-06
4.39471e-06
2.89322e-06
-3.64643e-06
-1.45837e-05
0.000118137
2.55526e-06
2.34496e-06
3.44389e-06
2.47446e-06
-2.35551e-06
-3.18133e-06
-2.65842e-06
-2.58654e-05
2.48515e-06
-4.32955e-06
2.40634e-05
-1.4156e-06
-2.62392e-07
2.99246e-07
1.37852e-06
1.24271e-06
-8.4883e-06
3.2004e-07
-3.04365e-06
-1.7337e-07
1.01426e-05
-2.01756e-05
-3.45825e-06
6.33297e-05
3.55849e-06
1.53065e-06
4.65949e-06
3.19165e-06
-1.50635e-05
-1.20604e-05
8.86457e-05
-1.30307e-06
-4.08901e-06
7.59548e-05
-1.43376e-06
-1.13928e-06
-1.50912e-06
-1.88926e-06
-2.45784e-06
-2.04237e-06
-2.29705e-05
3.07501e-06
1.67601e-06
-3.55511e-06
2.04715e-05
-1.42395e-05
-1.05317e-06
1.15495e-06
5.91557e-07
1.36123e-05
-6.60829e-08
2.15356e-05
-2.02242e-07
0.000132033
-4.39972e-06
-3.7647e-06
-4.23945e-06
-4.04604e-06
5.92763e-07
-1.31335e-07
7.57061e-07
4.74401e-06
-2.13013e-06
0.000180072
4.25469e-06
6.37518e-06
4.91985e-06
-2.69797e-06
-1.4791e-06
-2.57343e-06
-3.93108e-05
3.01478e-06
-2.52736e-06
3.94784e-05
-7.15419e-06
1.8759e-06
-9.2084e-07
6.19914e-06
-6.14666e-05
-2.30818e-06
4.92956e-06
5.8643e-05
-6.09948e-05
-3.29735e-06
4.1596e-06
-1.84296e-06
5.98454e-05
-2.27688e-05
1.26165e-06
-1.58957e-06
2.30968e-05
-4.3967e-06
9.48156e-08
-5.16882e-07
4.81876e-06
-1.94898e-06
-1.86411e-06
4.32947e-07
3.38014e-06
2.40313e-06
3.03392e-06
-1.33316e-05
-4.05054e-06
-3.41687e-06
1.53619e-05
2.53698e-06
-2.35084e-05
4.50802e-06
-3.29577e-06
-4.37434e-06
2.41335e-05
-3.68642e-05
-1.09349e-07
-9.45263e-07
-1.25057e-06
3.70203e-05
2.14912e-06
6.31292e-07
1.53556e-06
-5.58837e-06
-3.54752e-06
-7.59147e-07
7.72818e-06
-2.88476e-05
-8.75961e-06
7.57952e-05
3.37932e-06
3.49382e-06
3.36526e-06
4.21675e-06
5.68266e-06
5.88453e-06
5.63189e-06
6.34369e-06
-1.87298e-05
-1.92766e-05
0.000102396
4.78064e-06
2.67708e-06
6.33826e-06
4.19541e-06
-2.20929e-06
-1.7887e-05
0.000112251
2.88558e-06
2.87254e-06
3.74439e-06
2.84944e-06
-1.86532e-06
-1.91419e-06
-1.32015e-06
-2.35914e-05
3.12006e-06
-6.15806e-06
2.44202e-05
-1.47847e-06
-2.15407e-07
-1.4983e-07
1.8437e-06
3.46083e-06
-1.1714e-05
2.89529e-07
-5.50199e-06
5.14405e-07
1.29512e-05
-2.49877e-05
-1.90467e-06
5.88323e-05
5.72863e-06
4.52725e-06
6.58623e-06
5.7881e-06
-1.17223e-05
-1.18623e-05
6.79661e-05
-5.10624e-08
-3.28899e-06
5.76118e-05
-6.36798e-07
4.93067e-07
-6.06221e-07
-2.46783e-06
-1.99323e-06
-2.71521e-06
-1.60234e-05
4.73958e-06
2.14123e-06
-3.24962e-06
1.23411e-05
-1.32549e-05
-2.34141e-06
2.50219e-06
1.55182e-06
1.31559e-05
-1.61362e-06
2.17357e-05
5.63541e-08
0.000125483
-4.84024e-06
-5.05774e-06
-3.35959e-06
-5.4124e-06
7.02252e-07
8.28843e-09
8.13004e-07
4.96596e-06
-1.32955e-06
0.000175686
4.88904e-06
6.34775e-06
4.99231e-06
-2.37702e-06
-1.01357e-06
-2.21567e-06
-4.13589e-05
4.84001e-06
-1.96962e-06
4.01655e-05
-6.33558e-06
2.21031e-06
-2.74468e-06
6.86995e-06
-5.59187e-05
-3.5931e-06
6.11847e-06
5.34497e-05
-5.93826e-05
-4.04426e-06
4.57376e-06
-1.71611e-06
5.92396e-05
-2.3548e-05
1.52846e-06
-2.081e-06
2.41005e-05
-5.24211e-06
-2.99759e-07
-6.37945e-08
5.60566e-06
-4.83073e-06
-1.60698e-06
2.8354e-07
6.15417e-06
2.97402e-06
2.68499e-06
-1.69088e-05
-3.27101e-06
-3.64681e-06
1.81676e-05
3.43033e-06
-2.49705e-05
3.5997e-06
-2.56085e-06
-5.33942e-06
2.58408e-05
-3.70021e-05
-1.62253e-06
7.16953e-07
5.14926e-07
3.59463e-05
1.44648e-06
7.2656e-07
1.62375e-06
-9.71871e-06
-3.58402e-06
-6.13074e-07
1.15655e-05
-2.65813e-05
-3.64765e-06
7.07599e-05
3.2017e-06
3.36545e-06
3.08942e-06
3.81872e-06
5.51606e-06
5.47585e-06
5.20223e-06
5.59484e-06
-1.35722e-05
-1.71486e-05
8.63451e-05
5.66066e-06
3.38655e-06
6.4749e-06
4.66789e-06
-9.02861e-07
-1.65812e-05
0.00010805
2.05823e-06
2.10148e-06
2.28576e-06
9.88031e-07
3.32486e-08
-5.06873e-07
1.15263e-06
-2.55085e-05
2.6693e-06
-5.40564e-06
2.7342e-05
-2.38903e-06
-1.46279e-07
-4.48798e-07
2.98411e-06
3.66735e-06
-1.37922e-05
-1.15424e-07
-5.74413e-06
1.70631e-06
1.42781e-05
-2.53154e-05
2.29599e-06
5.26036e-05
6.4685e-06
5.85391e-06
6.89061e-06
6.3874e-06
-1.1427e-05
-9.26549e-06
4.61946e-05
6.38648e-07
-3.14128e-06
4.19689e-05
-8.0647e-07
6.47367e-07
-1.12867e-06
-3.16115e-06
-2.09347e-06
-3.32023e-06
-9.93676e-06
4.12567e-06
1.52682e-06
-3.50806e-06
8.43096e-06
-1.33781e-05
-2.66969e-06
1.60142e-06
4.64044e-06
1.37555e-05
-3.94963e-06
1.88435e-05
-6.66436e-08
0.000123813
-2.77504e-06
-5.62033e-06
-1.38829e-06
-5.51386e-06
3.86904e-07
-1.76419e-07
2.76595e-07
4.41169e-06
-1.45511e-06
0.000174575
4.57225e-06
4.64908e-06
4.5473e-06
-2.4051e-06
-1.29644e-06
-2.33521e-06
-4.07302e-05
5.38116e-06
-1.49863e-06
3.8118e-05
-7.40495e-06
3.39803e-06
-3.56938e-06
7.5763e-06
-5.09794e-05
-4.37294e-06
6.49242e-06
4.87933e-05
-5.96574e-05
-4.50981e-06
4.70671e-06
-1.76116e-06
5.97665e-05
-2.45471e-05
1.91243e-06
-2.19497e-06
2.48296e-05
-5.96926e-06
-4.98756e-07
5.9352e-08
6.40866e-06
-7.32045e-06
-9.42153e-07
-2.15458e-08
8.28414e-06
2.58297e-06
1.82025e-06
-1.92466e-05
-2.28597e-06
-2.93012e-06
2.00595e-05
3.53246e-06
-2.6784e-05
2.57303e-06
-1.82031e-06
-4.87949e-06
2.73783e-05
-3.45185e-05
-2.69416e-06
2.37904e-06
1.95627e-06
3.29445e-05
-6.71723e-08
6.55065e-07
1.35311e-06
-1.3138e-05
-2.77837e-06
-3.85957e-07
1.42941e-05
-2.29942e-05
4.50342e-06
6.34686e-05
1.85734e-06
2.19773e-06
1.59063e-06
2.11941e-06
4.33502e-06
4.61155e-06
4.21229e-06
4.85807e-06
-1.29188e-05
-7.63766e-06
6.87482e-05
4.32536e-06
2.97245e-06
4.22462e-06
3.63665e-06
2.87198e-07
-1.33289e-05
0.000103011
5.00793e-07
-2.10784e-07
1.20716e-06
-9.17372e-07
1.69028e-06
9.556e-07
1.93604e-06
-2.92369e-05
-2.06976e-06
1.29061e-06
3.03033e-05
-3.50653e-06
-2.10498e-07
-2.27943e-07
3.94497e-06
2.96126e-06
-1.46594e-05
-5.6297e-07
-5.06987e-06
2.38116e-06
1.49499e-05
-2.41614e-05
5.12525e-06
5.15845e-05
6.26251e-06
5.75696e-06
6.509e-06
6.03018e-06
-1.43322e-05
-6.37969e-06
3.51074e-05
-2.21298e-07
-2.34748e-06
3.02764e-05
-1.84388e-06
-8.61044e-07
-2.33917e-06
-3.32275e-06
-1.38507e-06
-3.64787e-06
-7.90956e-06
4.24233e-07
2.71727e-07
-1.29993e-06
8.29222e-06
-1.45998e-05
-2.49094e-06
-1.33041e-07
5.92165e-06
1.60271e-05
-4.72496e-06
1.06254e-05
-5.99293e-08
0.000126904
-3.49013e-08
-4.63675e-06
1.01925e-06
-4.05136e-06
-2.63537e-07
-1.04315e-07
-4.60177e-07
1.1763e-06