/*--------------------------------*- C++ -*----------------------------------*\
| =========                 |                                                 |
| \\      /  F ield         | OpenFOAM: The Open Source CFD Toolbox           |
|  \\    /   O peration     | Version:  5.x                                   |
|   \\  /    A nd           | Web:      www.OpenFOAM.org                      |
|    \\/     M anipulation  |                                                 |
\*---------------------------------------------------------------------------*/
FoamFile
{
    version     2.0;
    format      ascii;
    class       volScalarField;
    location    "0.9";
    object      Ksl;
}
// * * * * * * * * * * * * * * * * * * * * * * * * * * * * * * * * * * * * * //

dimensions      [1 -3 -1 0 0 0 0];

internalField   nonuniform List<scalar> 
10571
(
10331.8
12877
4594.7
4285.52
8049.72
5192.9
1955.95
414.253
310.969
1303.78
1313.84
1426.35
177.244
105.726
232.835
1681.6
6418.8
1131.37
348.527
2870.78
3501.62
3219.81
5827.51
8536.02
12123.9
10976.4
5297.48
2286.95
3445.15
11794.4
548.053
91.7544
201.089
827.341
11391.8
7498.09
95.3175
925.462
1041.5
937.214
4629.72
228.64
267.319
41.2752
256.297
1737.31
376.232
995.423
10041.7
930.588
405.759
3197.81
6014.63
5811.11
823.159
580.245
1434.15
563.521
12596.4
8157.38
87.5756
448.917
563.518
431.226
8730.94
276.652
122.548
63.2688
581.971
2667.72
787.862
2084.28
3432.63
24.1866
51.0202
1476.46
5868.04
68.345
1193.91
723.798
3523.79
8116.65
11151.5
4573.69
300.209
269.511
420.262
361.159
1631.19
294.419
163.301
99.9536
2638.81
2823.41
728.896
5954.68
9257.83
35.6776
22.9162
220.19
2789.9
256.11
4320.62
1011.62
2061.43
9985.4
7093.52
111.319
4394.74
3293.75
954.078
1087.84
1169
320.091
1214.2
3479.67
2654.63
2292.13
850.33
9207.17
1068.1
3337.1
591.667
3078.97
3123.86
5290.46
4736
2459.74
911.323
1357.77
10534.5
1982.65
1278.39
3158.12
3589.32
1439.49
715.69
10422.6
4551.97
455.072
836.52
1004.59
415.806
1130.04
734.17
6647.62
7.10653
1902.39
1078
224.012
176.582
169.534
116.309
1293.52
625.569
49.5196
191.084
958.261
75.0059
79.0935
338.735
275.956
17.9708
196.43
404.788
805.744
593.18
523.555
163.142
429.158
1479.45
852.211
6047.49
18.5836
12.0733
5.33084
4.74196
4.44714
5.24623
3.76133
6.4257
10.2973
19.5536
0
119.231
37.4217
7.11023
5.5275
12.1421
27.7002
0
59.324
92.6063
78.1759
10.1647
41.3672
0
161.672
2242.45
204.411
0
0
-3.50562e-15
6.88809
-6.1687e-16
11.801
1.61692
6.30781
7.99724
5.97945
0
53.8831
27.1222
4.95442
1.82556
5.25795
36.7146
0
10.0461
2.19583
4.55064
6.324
35.6069
0
7.61801
0
16.9366
0
0
0
4.09299
0
2.41264
4.72733
9.22418
12.7531
23.4035
20.7391
6.31528
1.72126
7.70502
29.6744
5.11286
4.72664
1.75465
1.19634
15.3355
24.9654
2.75995
0
9.22488
0
4.95558
-1.50028e-16
12.3273
0
0
4.79603
7.63743
5.88662
0
0
1.39679
2.43263
11.7944
35.2823
5.77415
1.92038
3.798
12.6178
16.6511
6.63818
0
0
0
0.546753
4.45693
5.03221
2.77329
0
0.525004
1.64562
5.42657
0
0
2.31958
3.10142
1.68443
11.2924
20.5645
0
3.19404
1.2288
6.4134
17.4735
0
0
10.8422
8.4301
12.8724
4.61697
0
0
0
2.1842
4.26228
6.31222
5.473
0
4.82516
1.63081
2.73904
10.3249
23.7545
5.84618
1.56952
4.48548
4.14352
22.0376
6.66893
0
-2.02118e-15
0
7.63627
4.70704
0
0
0
2.11758
3.67099
4.10783
0
-4.8324e-16
4.95978
0.0212895
1.82279
6.70806
13.8333
0
2.166
5.25699
6.29334
39.4488
0
0
0
0
2.67711
0
0
0
0
1.07069
4.6596
0.193084
0.0879827
0
2.4461
2.19397
1.07556
9.51853
0
0
3.80812
3.41264
0.23691
0
0.261919
-1.37771e-16
12.4207
0
0
4.41396
3.95528
0
0
0.515408
0.850885
0.039184
0.185726
0
0
2.25406
1.77795
4.13272
7.06424
0
2.53419
1.43386
0.221534
11.1433
5.07489
9.15486
0.47078
0
0
0
0
8.55702
0
0
2.89202
2.77118
0
0
0
1.63256
2.90145
3.13302
6.79006
0
1.30734
0
4.98863
0
0
0
24.6107
11.0542
7.2703
0
0
0
0
0.486796
0
1.57941
0
0
4.58472
1.07917
0.606785
4.54771
7.06649
0
1.28282
3.50516
6.18795
31.6043
6.43455
2.86432
26.0555
0
0
0
0
0
0
2.9498
0.623257
0.348662
0
0
0
1.70226
1.25624
-7.37969e-16
0
0
1.30884
2.81495
17.4896
31.7309
0
9.44841
12.3578
0
7.18343
0
0
0
0
1.00438
0
0.534819
0
0
0
1.13174
1.26196
4.01203
0
4.91468
3.24662
2.06607
0
3.47729
0
4.72052
0
0
7.1854
0
0
0
0
0.516886
0.631491
0
0
0
0
1.64725
1.95306
0.793424
0
0
-3.66084e-16
1.95682
7.38482
0
0
4.83922
12.4213
0
4.62365
0
0
0
0
0.584295
0.622024
0
0
0
0
0.6448
1.00972
1.3567
0
0
0.605357
3.04981
5.39831
0
0
0
4.49183
0
0
3.32291
0
0
0
0
0
0
0
0
0
0
1.30203
0
0
0
1.20359
1.38605
0.25676
13.8755
0
0
14.0322
0
8.84994
0
0
0
0
0.54692
0
0
0
0
4.07514
2.0296
0.0221039
0
0
0
0
3.74526
0
0
0.156126
5.85668
42.942
0
0
0
0
0
0
0
0
0
0
0
0
1.29146
0
0.762322
0
0
0.412317
1.96925
0
0
0
3.34303
14.9422
0
0
0
0
0
0
0.566864
0
0
0
0
0
0
0
0
0
4.06435
1.46026
4.10064
0
0
0
4.19738
25.6171
0
7.24943
0
0
0
4.67498
0
0
0
0
16.3111
0
0.415231
0
0
0
0
3.3489
0.0219067
0
0
6.77602
6.45823
10.7165
0
0
0
0
0
0
0
0
0
0
0
0
0
0
0
0
0
3.63625
0
0
0
0
5.26369
9.04444
0
0
0
0
0
0
0
0
0
0
0
0
0.401546
0
0
0
3.27877
0.882687
0.64054
0
0
0
5.51102
0
0
0
0
0
0
0
0
0
0
0
16.047
0
0
0
0
0
0
0
0
0
0
6.80287
5.956
0
0
0
0
0
0
0
0
0
0
0
0
0
0
0
0
0
0
1.41881
0
0
0
6.93417
0
0
0
0
0
0
0
0
0
0
0
0
0
0
0.589359
0
0
0
0
1.4701
0
0
0
6.7065
0
0
0
0
0
0
0
0
0
0
0
0
0
0
0
0
0
0
0
0.695996
0
0
0
7.01833
0
0
0
0
0
0
0
0
0
0
0
0
0
0
0
0
0
0
5.08126
0.638948
0
0
0
0.241722
0
0
0
0
0
0
0
0
0
0
0
0
0
0
0
0
0
0
0
0.637126
0
0
0
0
0
0
0
0
0
0
0
0
0
0
0
0
0
0
0
0
0
0
0
1.75957
0
0
0
7.04703
0
0
0
0
0
0
0
0
0
0
0
0
0
0
0
0
0
0
0
0
0
0
0
0
0
0
0
0
0
0
0
0
0
0
0
0
0
0
0
0
0
0
4.9209
0
0
0
0
0
0
0
0
0
0
0
0
0
0
0
0
0
0
0
0
0
0
0
0
0
0
0
0
0
0
0
0
0
0
0
0
0
0
0
0
0
0
0
0
0
0
0
0
0
0
0
0
0
0
0
0
0
0
0
0
0
0
0
0
0
0
0
0
0
0
0
0
0
0
0
0
0
0
0
0
0
0
0
0
0
0
0
0
0
0
0
0
0
0
0
0
0
0
0
0
0
0
0
0
0
0
0
0
0
0
0
0
0
0
0
0
0
0
0
0
0
0
0
0
0
0
0
0
0
0
0
0
0
0
0
0
0
0
0
0
0
0
0
0
0
0
0
0
0
0
0
0
0
0
0
0
0
0
0
0
0
0
0
0
0
0
0
0
0
0
0
0
0
0
0
0
0
0
0
0
0
0
0
0
0
0
0
0
0
0
0
0
0
0
0
0
0
0
0
0
0
0
0
0
0
0
0
0
0
0
0
0
0
0
0
0
0
0
0
0
0
0
0
0
0
0
0
0
0
0
0
0
0
0
0
0
0
0
0
0
0
0
0
0
0
0
0
0
0
0
0
0
0
0
0
0
0
0
0
0
0
0
0
0
0
0
0
0
0
0
0
0
0
0
0
0
0
0
0
0
0
0
0
0
0
0
0
0
0
0
0
0
0
0
0
0
0
0
0
0
0
0
0
0
0
0
0
0
0
0
0
0
0
0
0
0
0
0
0
0
0
0
0
0
0
0
0
0
0
0
0
0
0
0
0
0
0
0
0
0
0
0
0
0
0
0
0
0
0
0
0
0
0
0
0
0
0
0
0
0
0
0
0
0
0
0
0
0
0
0
0
0
0
0
0
0
0
0
0
0
0
0
0
0
0
0
0
0
0
0
0
0
0
0
0
0
0
0
0
0
0
0
0
0
0
0
0
0
0
0
0
0
0
0
0
0
0
0
0
0
0
0
0
0
0
0
0
0
0
0
0
0
0
0
0
0
0
0
0
0
0
0
0
0
0
0
0
0
0
0
0
0
0
0
0
0
0
0
0
0
0
0
0
0
0
0
0
0
0
0
0
0
0
0
0
0
0
0
0
0
0
0
0
0
0
0
0
0
0
0
0
0
0
0
0
0
0
0
0
0
0
0
0
0
0
0
0
0
0
0
0
0
0
0
0
0
0
0
0
0
0
0
0
0
0
0
0
0
0
0
0
0
0
0
0
0
0
0
0
0
0
0
0
0
0
0
0
0
0
0
0
0
0
0
0
0
0
0
0
0
0
0
0
0
0
0
0
0
0
0
0
0
0
0
0
0
0
0
0
0
0
0
0
0
0
0
0
0
0
0
0
0
0
0
0
0
0
0
0
0
0
0
0
0
0
0
0
0
0
0
0
0
0
0
0
0
0
0
0
0
0
0
0
0
0
0
0
0
0
0
0
0
0
0
0
0
0
0
0
0
0
0
0
0
0
0
0
0
0
0
0
0
0
0
0
0
0
0
0
0
0
0
0
0
0
0
0
0
0
0
0
0
0
0
0
0
0
0
0
0
0
0
0
0
0
0
0
0
0
0
0
0
0
0
0
0
0
0
0
0
0
0
0
0
0
0
0
0
0
0
0
0
0
0
0
0
0
0
0
0
0
0
0
0
0
0
0
0
0
0
0
0
0
0
0
0
0
0
0
0
0
0
0
0
0
0
0
0
0
0
0
0
0
0
0
0
0
0
0
0
0
0
0
0
0
0
0
0
0
0
0
0
0
0
0
0
0
0
0
0
0
0
0
0
0
0
0
0
0
0
0
0
0
0
0
0
0
0
0
0
0
0
0
0
0
0
0
0
0
0
0
0
0
0
0
0
0
0
0
0
0
0
0
0
0
0
0
0
0
0
0
0
0
0
0
0
0
0
0
0
0
0
0
0
0
0
0
0
0
0
0
0
0
0
0
0
0
0
0
0
0
0
0
0
0
0
0
0
0
0
0
0
0
0
0
0
0
0
0
0
0
0
0
0
0
0
0
0
0
0
0
0
0
0
0
0
0
0
0
0
0
0
0
0
6148.09
3532.58
4448.68
5232.68
3493.49
7887.79
9529.47
10548.5
6479.02
8201.75
5576.42
5682.46
5728.32
6128.29
6332.49
7134
5580.75
5875.44
5138.86
3191.98
1521.47
6961.87
9435.34
1201.21
3119.63
5977.95
2752.83
914.675
1343.54
3978.67
9314.88
3968.99
8912.85
7517.1
3974.97
6625.91
3006.1
1980.58
1199.23
1938.91
922.338
715.69
710.098
757.954
1019.4
3355.84
3352.3
7126.34
620.076
996.806
3420.04
5318.16
8105.92
6787.96
5809.46
4378.45
2719.83
3073.35
3172.97
1679.6
1166.45
2134.55
1951.43
1248.17
3398.23
3950.66
8205.83
6538.77
8294.58
9897.64
7767.9
8291.15
3659.15
9123.4
1771.38
2405.78
3006.13
988.282
1499.81
2448.08
2982.73
2876.84
4766.84
7174.66
9978.82
8981.76
9941.16
10366.1
3395.49
1277.92
1363.53
2380.48
3561.48
5751.11
2907.62
7633.57
12583.3
12974.6
8590.12
10726.4
12184.2
13740.9
12256.5
12341.3
12809.7
12520.9
12132
12160.6
11618.1
13112.6
12617
11995.5
12837.9
10282.1
10424.5
4956.21
13177.4
11643.5
11909.8
6140.43
11239.8
746.632
2578.03
5921.31
11026.8
321.865
2171.73
5389.28
8021.2
7477.09
2607.26
2946.9
10610.3
7613.62
7870.27
519.834
1640.39
1168.28
289.104
434.312
3533.02
8381.2
6804.99
10624.7
11559.3
3018.05
1564.42
873.344
599.784
133.028
13098
13057.6
845.076
9931.57
1526.84
6358.69
1292.73
11039.6
3166.72
3286.5
6804.19
7953.27
200.128
184.817
425.901
771.127
214.745
4560.44
9369.76
4549.31
5629.94
6444.25
2911.75
3754.74
6558.38
6113.3
1031.13
815.231
4228.63
2049.8
11033.8
5709.55
11749.1
11030.5
11771.5
10395.7
7866.48
8085.34
11123.9
10372.8
11913.4
10594
9997.64
11380.2
10801.2
12341
11288.7
11408.1
11499.7
10018.8
8468.27
3072.35
10430.1
3841.06
9577.38
141.481
1137.34
3475.2
7212.75
59.3979
597.039
4169.58
1628.14
10817.4
10326.7
11081.9
11075
11490.7
12046.9
280.882
411.325
645.036
572.885
694.005
11754.7
11419
12616.1
11783.5
11041.7
1167.21
163.635
638.809
1129.43
182.409
12503.5
12352.6
348.789
11557.8
3192.62
7349.5
632.979
11066.3
2215.46
158.665
111.732
435.658
50.6465
217.187
195.304
620.434
436.057
7095.83
3374.8
407.883
1423.4
2170.21
1498.77
3226.2
539.349
2035.45
794.724
543.909
2749.02
828.229
31.0216
0
1015.37
252.07
1811.91
126.415
34.3066
105.581
8669.6
9480.68
4250.92
4243.22
9816.66
10469.1
11251.6
10610.9
1535.93
40.5676
3091.11
183.2
24.4615
11.6593
130.532
121.26
8258.83
68.5692
881.139
8171.11
9009.72
1153.85
4082.41
2246.77
6498.64
10390.3
10683.4
12138.3
8592.04
11219.7
11101.4
1312.67
1124.31
3401.29
2917.89
1616.35
11691.1
10459.5
10820.7
11255.7
9969.12
1061.5
289.11
336.349
702.017
427.211
11310.5
10594.3
1207.61
7761.14
2865.46
6134.15
2106.51
9581.06
4323.41
282.434
311.845
1754.16
39.5899
401.37
427.089
2561.24
1048.13
7396.07
7548.68
1159.48
3970.95
2744.83
824.479
3748.97
600.383
3684.15
790.503
1057.44
4216.12
3460.13
0
0
655.74
19.4105
24.0572
2212.57
12.6757
210.245
2005.71
8694.03
5130.3
2554.78
5927.08
11108.7
9476.28
116.697
296.789
13.3871
68.5927
90.4059
1.44037
32.8025
71.7801
52.4431
10158.9
4143.39
7467.47
3134.67
10558.4
2190.03
9626.63
8695.8
10601.4
1233.65
10110.1
6575.57
696.23
7110.28
1365.67
3777.23
2681.43
9825.7
4034.62
3243.83
8882.22
6865.51
9344.85
5011.75
4834.3
428.227
616.641
743.825
559.302
488.716
6724.83
5928.53
845.089
7568.68
2553.36
914.912
325.825
6665.69
1821.18
945.827
1215.96
5972.83
1501.69
2830.43
4501.73
9303.43
3926.83
6686.88
6124.67
871.554
2800.58
2412.55
706.846
2682.19
1643.48
3536.66
791.497
2034.14
3477.8
8359.16
0
0.674657
7646.91
31.5981
1114.6
9369.69
451.69
3681.87
5520.65
6419.75
8360.64
4865.54
3209.66
8750.56
7516.9
2012.5
6524.97
16.0044
262.447
38.0235
418.762
23.4297
1489.99
142.287
10486.8
858.515
10482.1
3213
10514.8
395.638
9075.42
10767.1
10907.3
1184.11
2363.59
461.013
2432.78
793.216
452.746
2977.61
2712.44
7859.84
2185.88
809.412
2028.93
4944.94
3841.13
1137.52
5763.49
1317.76
420.785
945.739
827.95
349.552
7364.3
9149.28
361.994
7268.93
1073.33
2427.48
368.882
6836.23
701.201
3828.27
3298.87
7829.74
1323.39
1111.2
1323.72
3939.74
876.863
5982.18
5605.15
719.783
2772.51
1846.96
675.661
2246.63
2396.35
3299.8
890.841
2609.91
3348.66
6954.99
808.115
5792.06
3478.89
3341.17
5117.66
207.864
3356.27
752.028
1975.8
1865.37
57.5414
652.049
492.241
4455.37
477.585
10211
3956.89
866.202
5925.08
2087.76
8952.5
8105.49
8800.4
8182.59
3551.06
323.623
3917.05
1167.65
411.562
275.535
1097.56
3484.2
259.209
5962.22
917.378
805.137
1216.26
799.474
460.803
3114.58
745.512
4793.02
184.531
1450.73
172.233
704.241
11061.4
10164.7
11216.2
11427.8
10753.1
8931.57
10366.8
919.011
6776.89
1202.36
634.998
5669.53
5741.95
694.125
4567.18
106.142
1180.61
289.016
4153.57
12001.8
10004.8
10904.7
9408.68
10773.8
10956.5
10256.1
9197.3
7517.44
450.36
2653.97
909.61
1605.57
3160.1
376.655
2648.73
480.425
892.095
2146.84
1228.65
366.693
1114.47
1825.21
272.498
6132.76
2741.49
471.376
2319.91
1120.26
509.581
2577.2
2397.17
3569.73
655.085
2491.52
3392.44
7468.7
1154.22
22.7179
18.7247
317.047
50.4258
0
11.6243
20.3059
31.2731
50.8936
20.4576
0.270238
6.88347
26.6267
0.384252
109.519
0
3113.86
830.316
2742.21
72.5725
58.9617
15.5497
40.5465
57.8059
1911.2
281.791
44.9761
21.3137
397.119
33.3407
49.819
3.32048
10.4243
0
73.5444
362.999
0
0
29.8967
392.053
311.623
10.7567
160.349
129.122
1.7943
39.2239
4.86843
35.4746
11.2127
8.26802
4.62136
1886.79
123.024
1467.51
0
0
0
0
444.62
2831.2
481.911
365.733
1027.7
17.2666
77.6406
51.7138
32.1847
2.35377
45.3047
20.0312
2235.47
623.546
3712.41
0
0
0
0.0213111
5577.21
3235.04
352.821
146.51
351.065
181.343
22.3997
102.293
25.6098
210.638
1408.38
846.114
104.501
75.8706
425.368
251.983
198.567
79.6363
0
2307.31
0
0.0805428
413.048
68.1584
693.145
3075.92
1222.28
1467.08
4916.59
2753.68
4806.29
1806.54
2742.74
5489.71
2074.29
0
0
0
0
4.90774
0
0
4.9043
12.5175
25.0407
19.6367
4.9419
6.70012
0
23.5171
0
6.2238
6.68655
17.3766
1.82631
0
10.9158
-3.37779e-15
1.3745
-6.89042e-15
18.0883
1.58645
9.51655
16.0591
10.4427
7.73576
18.0504
0
7.45287
0
0
0
0
0
6.99093
40.4908
67
3.47486
117.027
30.0666
0
11.1159
4.54532
-4.51823e-15
0
19.8235
4.86799
0
0
0
0
0
0
0
78.0238
253.22
12.8409
33.8532
27.0213
7.06785
52.5875
3.79149
53.0095
5.2163
34.717
5.60203
0
0.431759
0
0
0
0
0
667.137
43.8469
30.3482
24.3974
18.1383
20.6671
6.98164
32.404
16.6118
18.9795
57.5234
16.5776
18.4306
29.9559
4.12054
11.7254
7.68325
84.8107
2.61058
0
0
0
24.3936
0.809308
1318.45
4082.92
22.1267
108.192
270.806
872.808
6602.94
218.739
85.093
660.594
2.47009
22.1445
0
0
6.32896
-8.9763e-16
0
-1.96866e-15
0
16.011
0
0
11.5237
2.01707
-9.8232e-15
10.2918
0
5.86886
0.717412
0
5.22904
0
4.35722
3.81063
9.06957
7.39642
9.87876
0
4.37908
-4.49288e-15
-3.9601e-15
0
3.11815
4.0282
5.39727
37.963
29.9824
9.12253
0.637201
9.80507
6.24154
15.4885
9.16596
29.6108
2.74072
3.17874
11.1049
0
0
0
0
0
0
0
18.0505
17.8568
-8.06372e-15
9.34798
18.1991
4.50461
17.2276
12.9785
26.5471
11.1739
33.8877
-7.39357e-16
0
0
0
0
0
0
0
32.5005
21.3841
10.6811
0
-1.05035e-15
10.6381
0
0
6.00312
19.0396
0
20.0941
13.1683
6.14787
10.2149
40.8522
4.18045
0
1.65761
14.23
9.17671
4.91341
4.17559
0
5.57158
10.8272
3.58241
-2.03905e-16
0
0
10.9474
0
0
0
4.6114
17.3384
0
4.48138
6.68773
4.1806
-5.7755e-15
7.51528
6.26344
15.0859
9.49194
0
0
6.87353
3.94927
5.38201
0
-4.08261e-15
0
-3.32347e-15
0
4.95744
4.71478
8.0161
15.4871
2.37038
4.37558
8.71253
9.61165
3.03056
11.3635
6.30916
0
0
7.65392
14.9454
17.3228
-3.58653e-15
23.9835
4.9809
8.86004
21.5024
0
17.3498
1.03487
-1.07465e-14
26.0802
7.50886
21.2231
36.8852
0
4.03827
12.273
21.6093
5.87192
5.06734
-4.18661e-15
9.97879
0
6.51802
12.879
7.51476
4.92378
6.75412
-1.50861e-16
10.337
82.7014
0
0
-3.75797e-15
0
6.48653
0
0
0
0
3.81307
4.88771
0
0
10.9121
10.7294
34.9812
0
0
-1.36303e-14
0.607216
15.6846
-2.58862e-15
0
-7.71833e-16
0.143025
16.3019
0.575203
0
0
0
4.46184
0
0
12.8262
0
0
0
8.10032
3.40855
4.21945
9.66357
0.629287
5.90823
8.00731
0
0
4.4841
17.805
0
4.29107
0
0
3.76714
-2.62894e-15
5.94181
16.8394
0
9.83001
0.377708
0
4.07058
0
0
56.9185
13.9517
45.8408
33.4356
6.93844
0
5.92285
11.3033
0
0
5.82407
0.707821
11.2521
12.9168
5.6688
21.6995
0
36.576
5.81409
32.8285
0
12.5056
0
0
0
6.28588
0
0
0
0
4.03686
3.4251
0
0
-5.98792e-15
0
31.647
2.91262
8.76806
31.2615
0
-1.33094e-15
0
0
15.3519
-6.11274e-16
5.93262
0
0
0
0
4.08435
0
0
7.652
4.18128
0
0
7.35397
9.27462
-3.56344e-15
3.85239
0
6.52518
0
0
0
0
0
0
0
0
0
-5.11601e-15
19.9786
5.56919
7.03082
0
0
5.8163
0
0
0
0
27.8986
39.1035
24.4628
1.94959
0
13.6431
5.8464
0
0
5.21831
5.74399
0
5.77333
9.71278
11.8038
18.9465
3.35793
24.7994
2.8361
25.7054
17.7078
0
12.6659
5.0713
0
-2.28799e-16
-3.69281e-15
0
0
0
0
0
0
11.3269
0
0
0
0
0
0
0
0
1.68808
-4.18347e-15
0
5.89947
0
0
0
0
0
0.155415
0
0
10.1439
0
0
0
0
5.88852
7.34972
0
0
-3.79005e-15
0
0
0
0
0
0
0
0
4.31789
11.2118
0
0
0.125024
21.61
0
0
0
4.92807
0
0
50.3726
-6.60705e-15
0
36.1383
12.4224
0
11.2588
0
5.6916
5.5613
0.198022
0
5.71481
5.41168
5.61283
36.6648
0
10.8238
9.07704
11.3281
17.8023
0
0
0
0
0
0
16.298
0
0
0
0
14.3713
11.5306
9.75319
26.6189
0
0
0
0
0.345111
0
4.97945
0
0
0
0
0
0
0
0
4.15397
0
0
0
0.533269
0
0
0
0
0
0
0
0
3.6155
15.715
0
5.1236
0
-2.26038e-15
0
0
0
7.25566
-6.50015e-15
0
0
0
5.1972
5.82162
0
0
5.92212
0
18.4739
12.2407
0
32.0066
0
0
0
0
5.68669
0
0
0
5.54429
8.53464
1.87258
11.22
6.46268
2.42445
5.85767
11.2989
36.0613
0
0
0
0
0
0
0
0.347233
0
5.08858
5.70691
13.4536
0
-4.30359e-15
0
0
0
0.367681
13.4759
0
3.61078
3.38726
-1.3528e-16
0
0
0
7.94789
0
0
0
-9.48135e-16
0
4.3564
6.01108
3.91208
0
4.43015
0
0
-9.39638e-16
0
0
0
0
8.05308
0
0
0
0
0
0
0
0
0
8.02505
0
0
5.1425
0
0
6.43055
0
0
14.7545
27.0028
5.28196
27.8355
0
0
5.51852
10.4605
0
5.47178
0
0
0
-1.5805e-16
11.7529
25.6777
7.23755
12.74
9.41722
12.0824
22.0156
0
3.21137
0
0
11.3451
5.18462
0
8.16605
0
4.64518
11.7387
0
-3.16158e-15
0
0
0
0
2.80061
0
0
2.32047
0
4.03503
0
0
0
0
0
0
0
4.0277
0
0
0
0
3.92034
0
0
4.51761
0
0
0
0
0
0
0
0
0
0
0
14.0299
0
0
0
0
0
0
0.190347
0
0
0
0
-2.35492e-15
23.7226
6.33912
3.47574
23.523
10.2109
0
0.201258
0
5.50159
0
0
10.3217
-1.72871e-15
32.019
0
18.6919
19.2697
3.59626
5.66953
3.97628
15.7697
0
0
10.4116
0
2.37974
0
18.217
0.220076
0
4.85259
0
0
24.9456
0
0
0
0
0
0
0
0
0
0
0
0
0
0
0
0
0
4.06189
-2.27869e-15
0
0
0
0
0
0
0
0
-3.37702e-15
0
0
0
0
0
4.91931
0.674396
3.72352
4.98187
0
-1.13221e-15
12.34
0
0
0
13.7765
4.67889
4.33877
0
0
6.49457
0
9.47035
5.09308
4.97601
8.91393
3.18368
0
0
0
0
0
4.26258
0
0
13.3841
5.52559
11.4855
0
14.4837
9.76188
29.8869
48.1851
0
0
0
0
0
0
0
0.322146
0
0
17.7849
0
3.40312
0
0
0.638737
0
0
0
0
0
0
0
0
0
0
0
0
0
0
0
0
4.17742
0
7.33204
0
0.976305
0
0
0
0
0
0
0
0
0.616351
0
0
3.80855
0
0
0
0
0
0
0
0
0
1.38959
0
4.07067
0
0
18.0084
0
0
8.94471
0
0
1.12081
0
0
0
0
0
0
0.177194
12.5639
43.7859
16.2517
16.0427
10.6017
22.5315
15.3619
0
0
0
0
0
0
0
4.16865
0
1.55813
6.15918
0
0.451588
0
0
0
0
0
0
0
0
0
0
0
0
0
0
0
0
0
3.89401
3.80167
0.202177
7.24937
0
0
0
0
0
0
0
0
0
0
11.0585
0
0
0
0
0
0
0
0
21.9437
0
0
0
3.89933
0
0
0
5.24075
0
17.6265
0
0
9.16501
0
0
5.39584
6.24315
0
4.92009
0
3.37138
0
30.6782
12.1041
-9.63721e-15
-5.16901e-15
21.1189
23.4306
35.6854
15.006
0
0
0
0
0
0
0
0
0
0
0.430739
0
0
0
0
0
0
3.67456
0
0
0
0
0
0
0
0
0
0
7.9666
3.14701
0
0
0
7.15134
0
0
0
0
0
0
0
0
0
0
0
0
0
0
0
3.03884
0
3.57081
0
0
0
0
0
0
0
0
0
0
0
-2.82943e-15
0
0
0
0
0
0
9.37795
0
-1.52039e-15
0
-2.89577e-16
4.78778
12.45
14.7129
6.34095
5.78805
8.15202
0.232569
10.7436
11.9052
11.4774
0
0.668795
0
0
4.05274
0
6.43485
0
3.82693
0
14.6751
12.5462
0
0
0
0
0
0
0
0
0
0
0
0
0
0
0
0
0
0
0
0
3.3539
3.99256
0
0
0
0
0
0
0
0
0
0
0
1.66069
0
-1.12472e-15
0
0
0
0
0
0
0
0
0
0
0
0
0
0
0
0
0
0
0
10.3707
0
0
0.176438
0
0
0
0
5.90328
6.73733
21.7006
0
11.7749
17.0663
25.3755
0
10.8704
0
0
11.4207
11.7857
4.70965
28.6833
6.36058
23.1969
4.83383
5.88239
17.2902
0.697829
0
0
0
0
0
0
0
0
0
0
0
0
0
0
0
8.42275
0
3.92469
0
0
0
0
0
0
0
0
0
0
0
0
0
0
0
0
0
0
4.40659
12.9193
0
0
0
0
0
0
6.15014
6.29227
0
0
0
0
0
0
0
0
0
9.18565
0
0
0
0.148644
4.3509
0
0
-4.13685e-15
3.52705
7.08744
0
5.76295
12.7909
6.79084
0
0
0
4.53249
4.43938
10.9322
8.72193
-1.44791e-14
17.422
0
0
7.42657
0
14.1409
0
0
0
0
0
0
0
4.08467
0
0
0
0
0
0
0
0
0
4.4747
0
-5.088e-16
0
0
0
2.42827
0
0
0
0
0
0
0
0
0
0
0
0
0
0
0
0
0
0
0
0
3.79298
0
0
0
2.24457
0
0
0
0
0
0
0.50897
0
0
0
0
0
0
0
5.82627
6.4293
10.6412
0
0
0
0
0
0
0
0
0
0
0
0
12.5873
17.3024
4.6904
12.1891
0
24.1845
0
0
0
0
4.22806
0
0
-3.67439e-15
0
0
0
0
0
0
0
0
0
0
0
6.39117
5.88269
0
0
0
0
0
0
0
0
0
0
0
0
2.21661
0
0
3.11082
0
0
0
0
0
0
0
0
0.880088
0
0
4.50746
0
0
0
0
0
0
0
0
0
0
0
0
0
0
0
1.55967
18.3423
0
0
0
12.0115
0
0
0
0
0
4.67734
0
14.5793
6.11881
16.4909
2.83397
-1.95215e-15
0
16.2128
0
0
0
0
0
0
0
0
0
0
0
0
0
0
0
0
8.52774
0
0
0
0
0
0
0
0
0
0
0
0
0
0
0
0
0
0
0
0
0
0
0
0
0
0
0
0
0
0
0
0
0
0
0
0
0
0
0
0
0
0
0
0
0
0
5.4936
0
0
0
0
5.02251
9.27508
0
0
0
4.23557
14.5319
4.77824
4.19043
13.7846
0
18.515
0.778126
16.6131
11.4255
37.3603
0
0
0
0
0
0
0
0
0
0
0
0
0
0
0
0
0
0
0
0
0
0
0
0
0
0
0
0
0
0
0
0
0
5.23113
0
0
5.22165
0
0.129063
0
0
0
0
0
4.44781
5.23652
0
0
0
0
0
0
0
0
0
0
0
0
0
0
0
3.12911
2.82176
0
5.02729
0
5.56499
0
14.4042
0
0
0
0
4.21774
28.6739
3.54167
0
0
6.02687
0
0.214775
11.9174
14.4728
-3.41349e-16
0
0
0
0
0
0
0
0
0
0
0
0
0
0
0
0
0
0
0
0.232613
0
0
0
-3.13803e-16
0
0
0
0
0
0
0
0
0
0
0
4.51461
0
0
0
0
0
0
0
0
0
5.8077
0
0
0
0
0
0
0
0
0
0
0
0
0
4.75243
0
0
4.77982
0
0
0
0
0
0
0
0
0
0
0
0
0
3.14668
0
6.28284
15.8357
3.30016
23.2991
0
18.8931
0
0
0
0
0
0
0
0
0
0
0
0
0
0
0
0
10.1847
0
0
0
0
0
0
0
0
0
0
0
0
0
0
0
0
0
0
0
0
0
0
0
0
0
0
0
0
0
0
0
0
0
0
0
0
0
0
0
0
0
0
2.32385
5.38406
8.76099
0
0
0
0
0
0
0
0
0
0
0
6.62893
16.9199
0
5.03118
0
3.62228
0
0
6.40518
37.3561
20.3376
0
0
0
0
0
0
0
0
0
0
0
0
0
0
0
0
0
0
0
0
0
0
0
4.68904
0
0
0
0
0
0
0
0
0
5.94045
0
0
0
0
0
0
0
0
0
0
4.66525
0
0
0
0
0
0
0
0
0
0
0
5.7346
0
0
1.45818
0
6.40795
1.83307
0
0
0
0
0
0
0
0
0
0
0
0
0
1.16997
18.907
6.45177
25.5972
5.27632
8.85734
32.0011
0
0
0
0
0
0
0
0
0
0
0
0
0
0
0
0
0
0
0
0
0
0
0
0
0
0
0
0
0
0
0
0
0
0
0
0
0
0
0
0
0
0
0
0
0
0
0.216637
0
0
6.1593
0
0
0
0
0
0
0
5.58306
0
0
4.98723
5.73121
0
0
0
0
0
0
0
0
0
0
12.2021
0
6.28832
0
6.59228
9.33089
0
10.9763
36.663
5.67917
0.145618
18.8805
9.9903
0
0
0
0
0
0
0
0
0
0
0
0
0
0
0
0
0
0
0
0
0
0
0
0
0
0
0
0
0
0
0
0
0
0
16.3784
0
0
0
0
0
0
0
0
0
0
6.23489
0
0
0
0
0
0
0
0
0
0
0
0
0
0
0
9.77189
0
0
0
0
0
0
0
0
0
0
0
-1.65284e-16
0
7.15532
14.3826
3.32427
0
56.3376
0
6.85275
8.3194
0
0
0
0
0
0
0
0
0
0
0
0
0
0
0
0
0
0
0
0
0
0
0
0
0
0
0
0
0
0
0
0
0
0
6.09202
0
0
5.64527
0
-1.42585e-16
0
0
0
0
0
0
0
0
0
0
0
0
0
0
0
0
0
0
0
0
5.09874
0
0
0
0
0
0
0
0
0
0
0
0
0
7.6514
2.18882
7.04263
0
0
0
3.73973
0
0
0
0
0
0
0
0
0
0
0
0
0
0
0
0
0
0
0
0
0
0
0
0
0
0
0
0
0
0
0
0
0
0
0
0
0
0
0
0
0
0
0
0
0
0
0
0
0
0
0
0
0
0
0
0
0
0
0
0
5.77791
0
0
0
0
0
0
0
0
0
0
0
0
0
0
0
0
0
0
7.00245
5.62968
0
0
0
0
0
0
0
0
0
0
0
0
0
0
0
0
0
0
0
0
0
0
0
0
0
0
0
0
0
0
0
0
0
0
0
0
0
0
0
0
0
0
0
0
0
0
0
0
0
0
0
0
0
0
0
5.96086
0
0
0
0
0
0
0
0
0
0
0
0
0
4.28979
0
0
0
0
0
0
0
0
0
0
5.6231
20.7575
6.82202
0
0
0
0
0
0
0
0
0
0
0
0
0
0
0
0
0
0
0
0
0
0
0
0
0
0
0
0
0
0
0
0
0
0
0
0
0
0
0
0
0
0
0
0
0
0
0
0
0
0
0
0
0
0
0
0
0
0
0
0
0
0
0
0
0
0
1.11875
0
0
0
0
0
0
0
0
0
0
0
0
0
12.7355
5.75854
0
0
0
0
0
0
0
0
0
0
0
0
0
0
0
0
0
0
0
0
0
0
0
0
0
0
0
0
0
0
0
0
0
0
0
0
0
0
0
0
0
0
0
0
0
0
0
0
0
0
0
0
0
0
0
0
0
1.04688
0
0
0
0
0
0
0
0
0
0
0
0
0
0
0
0
0
0
0
0
0
0
0
0
0
0
0
0
0
0
0
0
0
0
0
0
0
0
0
0
0
0
0
0
0
0
0
0
0
0
0
0
0
0
0
0
0
0
0
0
0
0
0
0
0
0
0
0
0
0
0
0
0
0
0
0
0
0
0
0
3.88798
6.15456
0
0
6.29768
0
0
0
0
0
0
0
0
0
0
0
0
0.324627
0
0
0
0
0
0
0
0
0
0
0
0
0
0
0
0
0
0
0
0
0
0
0
0
0
0
0
0
0
0
0
0
0
0
0
0
0
0
0
0
0
0
0
0
0
0
0
0
0
0
0
0
0
0
0
0
0
0
0
0
0
0
0
0
0
0
0
0
0
0
0
0
0
0
0
0
0
0
0
9.05037
0
0
0
0
0
0
0
0
0
0
0
0
0
0
0
0
0
0
0
0
0
0
0
0
0
0
0
0
0
0
0
0
0
0
0
0
0
0
0
0
0
0
0
0
0
0
0
0
0
0
0
0
0
0
0
0
0
0
0
0
0
0
0
0
0
0
0
0
0
0
0
0
0
0
0
0
0
0
0
0
0
0
0
0
0
0
0
0
0
0
0
0
0
0
0
0
0
0
0
0
0
0
0
0
0
0
0
0
0
0
0
0
0
0
0
0
0
0
0
0
0
0
0
0
0
0
0
0
0
0
0
0
0
0
0
0
0
0
0
0
0
0
0
0
0
0
0
0
0
0
0
0
0
0
0
0
0
0
0
0
0
0
0
0
0
0
0
0
0
0
0
0
0
0
0
0
0
0
0
0
0
0
0
0
0
0
0
0
0
0
0
0
0
0
0
0
0
0
0
0
0
0
0
0
0
0
0
0
0
0
0
0
0
0
0
0
0
0
0
0
0
0
0
0
0
0
0
0
0
0
0
0
0
0
0
0
0
0
0
0
0
0
0
0
0
0
0
0
0
0
0
0
0
4.71428
0
0
0
0
0
0
0
0
0
0
0
0
0
0
0
0
0
0
0
0
0
0
0
0
0
0
0
0
0
0
0
0
0
0
0
0
0
0
0
0
0
0
0
0
0
0
0
0
0
0
0
0
0
0
0
0
0
0
0
0
0
0
0
0
0
0
0
0
0
0
0
0
0
0
0
0
0
0
0
0
0
0
0
0
0
0
0
0
0
0
0
0
0
0
0
0
0
0
0
0
0
0
0
0
0
0
0
0
0
0
0
0
0
0
0
0
0
0
0
0
0
0
0
0
0
0
0
0
0
0
0
0
0
0
0
0
0
0
0
0
0
0
0
0
0
0
0
0
0
0
0
0
0
0
0
0
0
0
0
0
0
0
0
0
0
0
0
0
0
0
0
0
0
0
0
0
0
0
0
0
0
0
0
0
0
0
0
0
0
0
0
0
0
0
0
0
0
0
0
0
0
0
0
0
0
0
0
0
0
0
0
0
0
0
0
0
0
0
0
0
0
0
0
0
0
0
0
0
0
0
0
0
0
0
0
0
0
0
0
0
0
0
0
0
0
0
0
0
0
0
0
0
0
0
0
0
0
0
0
0
0
0
0
0
0
0
0
0
0
0
0
0
0
0
0
0
0
0
0
0
0
0
0
0
0
0
0
0
0
0
0
0
0
0
0
0
0
0
0
0
0
0
0
0
0
0
0
0
0
0
0
0
0
0
0
0
0
0
0
0
0
0
0
0
0
0
0
0
0
0
0
0
0
0
0
0
0
0
0
0
0
0
0
0
0
0
0
0
0
0
0
0
0
0
0
0
0
0
0
0
0
0
0
0
0
0
0
0
0
0
0
0
0
0
0
0
0
0
0
0
0
0
0
0
0
0
0
0
0
0
0
0
0
0
0
0
0
0
0
0
0
0
0
0
0
0
0
0
0
0
0
0
0
0
0
0
0
0
0
0
0
0
0
0
0
0
0
0
0
0
0
0
0
0
0
0
0
0
0
0
0
0
0
0
0
0
0
0
0
0
0
0
0
0
0
0
0
0
0
0
0
0
0
0
0
0
0
0
0
0
0
0
0
0
0
0
0
0
0
0
0
0
0
0
0
0
0
0
0
0
0
0
0
0
0
0
0
0
0
0
0
0
0
0
0
0
0
0
0
0
0
0
0
0
0
0
0
0
0
0
0
0
0
0
0
0
0
0
0
0
0
0
0
0
0
0
0
0
0
0
0
0
0
0
0
0
0
0
0
0
0
0
0
0
0
0
0
0
0
0
0
0
0
0
0
0
0
0
0
0
0
0
0
0
0
0
0
0
0
0
0
0
0
0
0
0
0
0
0
0
0
0
0
0
0
0
0
0
0
0
0
0
0
0
0
0
0
0
0
0
0
0
0
0
0
0
0
0
0
0
0
0
0
0
0
0
0
0
0
0
0
0
0
0
0
0
0
0
0
0
0
0
0
0
0
0
0
0
0
0
0
0
0
0
0
0
0
0
0
0
0
0
0
0
0
0
0
0
0
0
0
0
0
0
0
0
0
0
0
0
0
0
0
0
0
0
0
0
0
0
0
0
0
0
0
0
0
0
0
0
0
0
0
0
0
0
0
0
0
0
0
0
0
0
0
0
0
0
0
0
0
0
0
0
0
0
0
0
0
0
0
0
0
0
0
0
0
0
0
0
0
0
0
0
0
0
0
0
0
0
0
0
0
0
0
0
0
0
0
0
0
0
0
0
0
0
0
0
0
0
0
0
0
0
0
0
0
0
0
0
0
0
0
0
0
0
0
0
0
0
0
0
0
0
0
0
0
0
0
0
0
0
0
0
0
0
0
0
0
0
0
0
0
0
0
0
0
0
0
0
0
0
0
0
0
0
0
0
0
0
0
0
0
0
0
0
0
0
0
0
0
0
0
0
0
0
0
0
0
0
0
0
0
0
0
0
0
0
0
0
0
0
0
0
0
0
0
0
0
0
0
0
0
0
0
0
0
0
0
0
0
0
0
0
0
0
0
0
0
0
0
0
0
0
0
0
0
0
0
0
0
0
0
0
0
0
0
0
0
0
0
0
0
0
0
0
0
0
0
0
0
0
0
0
0
0
0
0
0
0
0
0
0
0
0
0
0
0
0
0
0
0
0
0
0
0
0
0
0
0
0
0
0
0
0
0
0
0
0
0
0
0
0
0
0
0
0
0
0
0
0
0
0
0
0
0
0
0
0
0
0
0
0
0
0
0
0
0
0
0
0
0
0
0
0
0
0
0
0
0
0
0
0
0
0
0
0
0
0
0
0
0
0
0
0
0
0
0
0
0
0
0
0
0
0
0
0
0
0
0
0
0
0
0
0
0
0
0
0
0
0
0
0
0
0
0
0
0
0
0
0
0
0
0
0
0
0
0
0
0
0
0
0
0
0
0
0
0
0
0
0
0
0
0
0
0
0
0
0
0
0
0
0
0
0
0
0
0
0
0
0
0
0
0
0
0
0
0
0
0
0
0
0
0
0
0
0
0
0
0
0
0
0
0
0
0
0
0
0
0
0
0
0
0
0
0
0
0
0
0
0
0
0
0
0
0
0
0
0
0
0
0
0
0
0
0
0
0
0
0
0
0
0
0
0
0
0
0
0
0
0
0
0
0
0
0
0
0
0
0
0
0
0
0
0
0
0
0
0
0
0
0
0
0
0
0
0
0
0
0
0
0
0
0
0
0
0
0
0
0
0
0
0
0
0
0
0
0
0
0
0
0
0
0
0
0
0
0
0
0
0
0
0
0
0
0
0
0
0
0
0
0
0
0
0
0
0
0
0
0
0
0
0
0
0
0
0
0
0
0
0
0
0
0
0
0
0
0
0
0
0
0
0
0
0
0
0
0
0
0
0
0
0
0
0
0
0
0
0
0
0
0
0
0
0
0
0
0
0
0
0
0
0
0
0
0
0
0
0
0
0
0
0
0
0
0
0
0
0
0
0
0
0
0
0
0
0
0
0
0
0
0
0
0
0
0
0
0
0
0
0
0
0
0
0
0
0
0
0
0
0
0
0
0
0
0
0
0
0
0
0
0
0
0
0
0
0
0
0
0
0
0
0
0
0
0
0
0
0
0
0
0
0
0
0
0
0
0
0
0
0
0
0
0
0
0
0
0
0
0
0
0
0
0
0
0
0
0
0
0
0
0
0
0
0
0
0
0
0
0
0
0
0
0
0
0
0
0
0
0
0
0
0
0
0
0
0
0
0
0
0
0
0
0
0
0
0
0
0
0
0
0
0
0
0
0
0
0
0
0
0
0
0
0
0
0
0
0
0
0
0
0
0
0
0
0
0
0
0
0
0
0
0
0
0
0
0
0
0
0
0
0
0
0
0
0
0
0
0
0
0
0
0
0
0
0
0
0
0
0
0
0
0
0
0
0
0
0
0
0
0
0
0
0
0
0
0
0
0
0
0
0
0
0
0
0
0
0
0
0
0
0
0
0
0
0
0
0
0
0
0
0
0
0
0
0
0
0
0
0
0
0
0
0
0
0
0
0
0
0
0
0
0
0
0
0
0
0
0
0
0
0
0
0
0
0
0
0
0
0
0
0
0
0
0
0
0
0
0
0
0
0
0
0
0
0
0
0
0
0
0
0
0
0
0
0
0
0
0
0
0
0
0
0
0
0
0
0
0
0
0
0
0
0
0
0
0
0
0
0
0
0
0
0
0
0
0
0
0
0
0
0
0
0
0
0
0
0
0
0
0
0
0
0
0
0
0
0
0
0
0
0
0
0
0
0
0
0
0
0
0
0
0
0
0
0
0
0
0
0
0
0
0
0
0
0
0
0
0
0
0
0
0
0
0
0
0
0
0
0
0
0
0
0
0
0
0
0
0
0
0
0
0
0
0
0
0
0
0
0
0
0
0
0
0
0
0
0
0
0
0
0
0
0
0
0
0
0
0
0
0
0
0
0
0
0
0
0
0
0
0
0
0
0
0
0
0
0
0
0
0
0
0
0
0
0
0
0
0
0
0
0
0
0
0
0
0
0
0
0
0
0
0
0
0
0
0
0
0
0
0
0
0
0
0
0
0
0
0
0
0
0
0
0
0
0
0
0
0
0
0
0
0
0
0
0
0
0
0
0
0
0
0
0
0
0
0
0
0
0
0
0
0
0
0
0
0
0
0
0
0
0
0
0
0
0
0
0
0
0
0
0
0
0
0
0
0
0
0
0
0
0
0
0
0
0
0
0
0
0
0
0
0
0
0
0
0
0
0
0
0
0
0
0
0
0
0
0
0
0
0
0
0
0
0
0
0
0
0
0
0
0
0
0
0
0
0
0
0
0
0
0
0
0
0
0
0
0
0
0
0
0
0
0
0
0
0
0
0
0
0
0
0
0
0
0
0
0
0
0
0
0
0
0
0
0
0
0
0
0
0
0
0
0
0
0
0
0
0
0
0
0
0
0
0
0
0
0
0
0
0
0
0
0
0
0
0
0
0
0
0
0
0
0
0
0
0
0
0
0
0
0
0
0
0
0
0
0
0
0
0
0
0
0
0
0
0
0
0
0
0
0
0
0
0
0
0
0
0
0
0
0
0
0
0
0
0
0
0
0
0
0
0
0
0
0
0
0
0
0
0
0
0
0
0
0
0
0
0
0
0
0
0
0
0
0
0
0
0
0
0
0
0
0
0
0
0
0
0
0
0
0
0
0
0
0
0
0
0
0
0
0
0
0
0
0
0
0
0
0
0
0
0
0
0
0
0
0
0
0
0
0
0
0
0
0
0
0
0
0
0
0
0
0
0
0
0
0
0
0
0
0
0
0
0
0
0
0
0
0
0
0
0
0
0
0
0
0
0
0
0
0
0
0
0
0
0
0
0
0
0
0
0
0
0
0
0
0
0
0
0
0
0
0
0
0
0
0
0
0
0
0
0
0
0
0
0
0
0
0
0
0
0
0
0
0
0
0
0
0
0
0
0
0
0
0
0
0
0
0
0
0
0
0
0
0
0
0
0
0
0
0
0
0
0
0
0
0
0
0
0
0
0
0
0
0
0
0
0
0
0
0
0
0
0
0
0
0
0
0
0
0
0
0
0
0
0
0
0
0
0
0
0
0
0
0
0
0
0
0
0
0
0
0
0
0
0
0
0
0
0
0
0
0
0
0
0
0
0
0
0
0
0
0
0
0
0
0
0
0
0
0
0
0
0
0
0
0
0
0
0
0
0
0
0
0
0
0
0
0
0
0
0
0
0
0
0
0
0
0
0
0
0
0
0
0
0
0
0
0
0
0
0
0
0
0
0
0
0
0
0
0
0
0
0
0
0
0
0
0
0
0
0
0
0
0
0
0
0
0
0
0
0
0
0
0
0
0
0
0
0
0
0
0
0
0
0
0
0
0
0
0
0
0
0
0
0
0
0
0
0
0
0
0
0
0
0
0
0
0
0
0
0
0
0
0
0
0
0
0
0
0
0
0
0
0
0
0
0
0
0
0
0
0
0
0
0
0
0
0
0
0
0
0
0
0
0
0
0
0
0
0
0
0
0
0
0
0
0
0
0
0
0
0
0
0
0
0
0
0
0
0
0
0
0
0
0
0
0
0
0
0
0
0
0
0
0
0
0
0
0
0
0
0
0
0
0
0
0
0
0
0
0
0
0
0
0
0
0
0
0
0
0
0
0
0
0
0
0
0
0
0
0
0
0
0
0
0
0
0
0
0
0
0
0
0
0
0
0
0
0
0
0
0
0
0
0
0
0
0
0
0
0
0
0
0
0
0
0
0
0
0
0
0
0
0
0
0
0
0
0
0
0
0
0
0
0
0
0
0
0
0
0
0
0
0
0
0
0
0
0
0
0
0
0
0
0
0
0
0
0
0
0
0
0
0
0
0
0
0
0
0
0
0
0
0
0
0
0
0
0
0
0
0
0
0
0
0
0
0
0
0
0
0
0
0
0
0
0
0
0
0
0
0
0
0
0
0
0
0
0
0
0
0
0
0
0
0
0
0
0
0
0
0
0
0
0
0
0
0
0
0
0
0
0
0
0
0
0
0
0
0
0
0
0
0
0
0
0
0
0
0
0
0
0
0
0
0
0
0
0
0
0
0
0
0
0
0
0
0
0
0
0
0
0
0
0
0
0
0
0
0
0
0
0
0
0
0
0
0
0
0
0
0
0
0
0
0
0
0
0
0
0
0
0
0
0
0
0
0
0
0
0
0
0
0
0
0
0
0
0
0
0
0
0
0
0
0
0
0
0
0
0
0
0
0
0
0
0
0
0
0
0
0
0
0
0
0
0
0
0
0
0
0
0
0
0
0
0
0
0
0
0
0
0
0
0
0
0
0
0
0
0
0
0
0
0
0
0
0
0
0
0
0
0
0
0
0
0
0
0
0
0
0
0
0
0
0
0
0
0
0
0
0
0
0
0
0
0
0
0
0
0
0
0
0
0
0
0
0
0
0
0
0
0
0
0
0
0
0
0
0
0
0
0
0
0
0
0
0
0
0
0
0
0
0
0
0
0
0
0
0
0
0
0
0
0
0
0
0
0
0
0
0
0
0
0
0
0
0
0
0
0
0
0
0
0
0
0
0
0
0
0
0
0
0
0
0
0
0
0
0
0
0
0
0
0
0
0
0
0
0
0
0
0
0
0
0
0
0
0
0
0
0
0
0
0
0
0
0
0
0
0
0
0
0
0
0
2322.96
1228.42
1111.86
4436.55
3845.87
2172.99
1394.19
5447.07
917.646
1044.11
3877.03
4255.76
738.674
354.222
3790.42
1148.97
5092.56
7638.43
4512.5
3665.88
4602.05
793.57
803.373
169.945
1550.75
650.453
182.802
165.592
443.382
267.714
261.974
297.94
201.308
165.262
88.7839
211.664
233.447
74.3194
136.17
82.7345
41.6434
38.3829
3918.7
4006.98
1927.12
6142.5
1695.32
7592.6
1510.88
91.7423
288.788
193.115
20.9959
79.6718
133.048
32.2952
111.503
78.6246
190.85
107.029
171.582
87.1672
1029.42
965.232
3101.31
2780.91
1052.32
1378.03
1952.73
442.83
613.979
1214.67
1560.13
533.119
254.536
1372.71
503.964
530.602
1882.45
3631.82
168.582
755.729