/*--------------------------------*- C++ -*----------------------------------*\
| =========                 |                                                 |
| \\      /  F ield         | OpenFOAM: The Open Source CFD Toolbox           |
|  \\    /   O peration     | Version:  5.x                                   |
|   \\  /    A nd           | Web:      www.OpenFOAM.org                      |
|    \\/     M anipulation  |                                                 |
\*---------------------------------------------------------------------------*/
FoamFile
{
    version     2.0;
    format      ascii;
    class       volVectorField;
    location    "0.3";
    object      Us;
}
// * * * * * * * * * * * * * * * * * * * * * * * * * * * * * * * * * * * * * //

dimensions      [0 1 -1 0 0 0 0];

internalField   nonuniform List<vector> 
10571
(
(0.0229042 -0.0395168 -0.322777)
(0.0400807 0.00257009 -0.888795)
(0.0862972 0.0267642 -0.0423092)
(-0.00919958 0.0467616 0.0411247)
(-0.0477646 0.0223069 -0.209875)
(0.0486813 0.0880336 0.035191)
(0.0433379 0.0457617 -0.0331794)
(-0.0563304 -0.0182856 0.0528893)
(-0.0561141 -0.0147049 -0.0596286)
(-0.0494513 -0.0338484 -0.254594)
(-0.0451057 -0.194925 -0.0264721)
(0.0661723 -0.0286032 0.00351564)
(0.0148561 -0.0647234 0.0376589)
(-0.0949249 -0.0372299 0.0457697)
(-0.0927945 -0.0092935 -0.127507)
(-0.031581 0.00795918 -0.0919316)
(0.0138335 -0.0641147 -0.158808)
(-0.00337487 -0.0672212 0.00470881)
(-0.0723438 -0.0699897 -0.0105078)
(-0.05551 -0.0266925 -0.0278263)
(-0.00950478 0.0199315 -0.145703)
(0.0226961 -0.0522318 -0.538533)
(-0.00804441 -0.0459367 -0.128546)
(-0.0415278 0.000660199 -0.10474)
(0.0182813 -0.00481356 -0.946021)
(0.00237483 0.00602574 -1.25785)
(0.0411177 0.00163756 -0.868434)
(0.0108847 -0.00627455 -0.55134)
(-0.0624515 0.0522506 -0.762173)
(0.0131778 0.0286811 -1.02724)
(-0.0257633 -0.0363842 -0.0747266)
(-0.0329146 -0.0199265 -0.170682)
(-0.0261465 -0.0251648 -0.701186)
(0.00836944 -0.00604981 -0.97045)
(-0.00861469 0.0138006 -0.844135)
(0.00831975 -0.0069411 -0.598729)
(-0.0482694 0.00133656 -0.0993363)
(-0.0356883 0.00430494 -0.203842)
(-0.0933087 0.02405 -0.821329)
(-0.0635357 0.01785 -0.942036)
(-0.0363055 -0.00901299 -0.749202)
(0.00560663 -0.0343343 -0.627757)
(-0.0269693 -0.0327632 -0.620373)
(-0.0275152 0.0213141 -0.686191)
(-0.0132955 -0.00481268 -0.99006)
(0.0216223 -0.00992845 -1.1392)
(-0.0098516 -0.023296 -0.898715)
(-0.0136895 -0.0366324 -0.916361)
(0 0 0)
(0.00197272 0.00816038 -1.25379)
(0.00562393 0.0167063 -0.77837)
(0.0238285 -0.00248287 -0.335082)
(-0.00686833 -0.0467531 -0.817163)
(-0.0336488 0.101647 -0.81165)
(-0.0510272 0.00411764 -0.408082)
(-0.0708086 -0.0143596 -0.514933)
(-0.0345158 -0.0156322 -0.762384)
(-0.0388579 -0.0168002 -0.949598)
(0.00186158 0.00637551 -0.81695)
(0.0185079 -0.00477154 -0.515419)
(-0.0193149 -0.0537557 -0.399896)
(-0.0609779 -0.0105984 -0.571301)
(-0.0582564 0.0158865 -0.821618)
(-0.0641717 0.0233859 -0.949908)
(-0.0475521 -0.0111333 -0.664889)
(0.0293182 -0.0316032 -0.667903)
(-0.013338 -0.0384467 -0.661735)
(-0.0277723 0.01927 -0.758667)
(0.0105376 0.0080208 -1.0268)
(0.0286211 -0.00280364 -1.14332)
(0.032623 -0.0292395 -0.909271)
(-0.0232029 0.0411791 -0.917796)
(0.00850697 0.0340979 -0.661356)
(-0.0101639 -0.00691758 -1.21308)
(0.000300492 -0.0359203 -0.651473)
(0.0148982 0.00970675 -0.452384)
(-0.0173116 -0.082924 -0.642165)
(-0.0309628 0.0138124 -0.522391)
(-0.0359019 0.00781078 -0.380516)
(-0.0763229 -0.0181141 -0.465399)
(-0.0500225 -0.0135357 -0.785713)
(-0.0165149 -0.0123152 -0.976735)
(0.00738347 0.145086 -0.792696)
(-0.0241867 -0.0252652 -0.301489)
(-0.0304817 -0.040517 -0.405864)
(-0.0627505 -0.0320279 -0.553797)
(-0.0653182 0.0173678 -0.82558)
(-0.0604348 0.0478318 -1.01409)
(-0.00542626 -0.0288718 -0.74285)
(0.00901587 -0.0359579 -0.683315)
(-0.0245045 -0.025666 -0.645992)
(-0.0242468 -0.0120184 -0.798477)
(-0.0242313 -0.0207841 -1.04424)
(0.0293683 -0.0110971 -1.19119)
(0.0016614 -0.0292944 -0.780237)
(-0.0136067 0.0111972 -0.939502)
(0 0 0)
(-0.0108922 0.011038 -1.16996)
(-0.0280131 -0.0275614 -0.426841)
(0.0436081 -0.0233208 -0.286719)
(-0.0148827 -0.0122943 -0.737575)
(-0.0412295 -0.0244915 -0.433983)
(-0.00412871 -0.00984782 -0.273471)
(-0.0337065 0.00182388 -0.436695)
(-0.0319787 -0.00570511 -0.80701)
(-0.00574905 0.0439813 -1.0368)
(0.012641 0.00976032 -0.70093)
(0.00887299 0.00679655 -0.388288)
(-0.0408172 -0.0333293 -0.411498)
(-0.072005 -0.0328776 -0.575815)
(-0.0544305 0.00500502 -0.885947)
(-0.0844039 0.0300657 -0.922488)
(-0.0303836 -0.00267249 -0.705154)
(0.00926718 -0.0299427 -0.622043)
(-0.0128077 -0.0302661 -0.621554)
(-0.0289144 -0.0215793 -0.805382)
(0.00668513 -0.0180599 -1.0594)
(0.0354015 0.00760599 -1.18857)
(0.0278492 -0.0267513 -0.840285)
(-0.0496476 -0.00192281 -0.947797)
(0.0154199 0.028948 -0.719047)
(0.0154283 0.00655469 -1.11853)
(0.0325648 -0.0133738 -0.686403)
(0.0223023 0.0111993 -0.363429)
(-0.0307967 -0.00705646 -0.739256)
(-0.0327995 -0.0113435 -0.496007)
(-0.0164356 -0.0214821 -0.299375)
(-0.0345146 -0.019553 -0.429103)
(-0.0335966 -0.00898144 -0.830746)
(-0.0148866 0.0710794 -0.979124)
(-0.00308081 4.14043e-05 -0.00140579)
(0 0 0)
(-0.0182392 0.0260136 -0.338322)
(-0.0117776 -0.0505624 -0.414577)
(-0.0791163 -0.00637132 -0.674215)
(-0.047326 0.00605797 -0.860699)
(-0.0695418 -0.00519875 -0.975963)
(-0.000426753 -0.000171818 -8.28383e-05)
(-0.0671565 -0.00183809 -0.608899)
(0.0191597 -0.0231543 -0.657778)
(-0.0101301 -0.00696743 -0.590657)
(-0.0492133 -0.00845358 -0.740206)
(0.0018914 0.00887048 -1.05395)
(0.0353037 -0.00183935 -1.15197)
(0.0276116 0.00860586 -0.843533)
(-0.0710921 0.00888145 -0.966705)
(0.0113474 0.0471465 -0.629415)
(0.0161366 -0.0101895 -1.08288)
(0.0120601 0.0300831 -0.646226)
(-0.0119331 -0.0379578 -0.360804)
(0.00639435 -0.00700358 -0.662864)
(-0.0138842 -0.023142 -0.448265)
(-0.025914 -0.0149756 -0.310634)
(-0.0677664 -0.0223832 -0.45318)
(-0.0235008 -0.0153618 -0.80201)
(0.00231586 0.0400612 -1.00008)
(0 0 0)
(-0.0118338 0.00336638 -0.598817)
(-0.0374147 0.0384983 -0.224123)
(-0.055777 -0.0315549 -0.325523)
(-0.0618613 -0.0063862 -0.490851)
(-0.0465407 -0.000524901 -0.880282)
(-0.0349884 0.0136899 -1.10074)
(0 0 0)
(-0.0446734 0.0115536 -0.610246)
(0.00462416 -0.00986923 -0.584979)
(-0.00605384 -0.0184402 -0.563908)
(-0.026926 0.0158699 -0.691705)
(-0.0101749 -0.0290285 -1.05308)
(0 0 0)
(0.0232788 -0.00288871 -1.16979)
(0.00108061 -0.00276688 -0.779082)
(-0.00753199 0.0379562 -0.810902)
(0.0028415 0.00514268 -0.521306)
(0.0251443 0.00514339 -1.09671)
(-0.00399871 0.0373888 -0.721464)
(0.0289903 -0.0127209 -0.252783)
(-0.0194037 0.0188826 -0.714939)
(0.0104209 -0.00647167 -0.488225)
(-0.027251 -0.00731488 -0.274519)
(-0.0489477 -0.00900196 -0.2858)
(-0.0274044 -0.00757388 -0.806041)
(0.00253578 0.0407401 -1.00662)
(0 0 0)
(0.0134971 0.0233329 -0.665226)
(2.59529e-18 2.1406e-17 2.70473e-16)
(-0.0560759 -0.0597585 -0.274604)
(-0.055565 -0.0177602 -0.428231)
(-0.0404118 0.00175308 -0.865207)
(-0.0329444 -0.0182153 -1.09583)
(0 0 0)
(-0.0462838 0.0128523 -0.479907)
(0.00107445 -0.00611313 -0.512175)
(-0.0159883 0.00202945 -0.504197)
(-0.000286448 0.0306384 -0.721107)
(-0.00689818 -0.0196279 -1.07609)
(0 0 0)
(0.0130945 -0.0019971 -1.10962)
(-0.00945788 -0.0257547 -0.777581)
(0.00660629 -0.0494259 -0.657165)
(0.0509046 -0.0483574 -0.588953)
(0.0298792 -0.0273768 -1.00537)
(-0.024467 0.0495769 -0.697431)
(-0.0250121 -0.0247114 -0.24767)
(-0.00623247 0.04438 -0.724451)
(0.0125633 -0.00595417 -0.614736)
(-0.0176824 -0.00480793 -0.278582)
(-0.0430791 0.0126143 -0.197597)
(-0.0246707 -0.00262927 -0.754786)
(-0.0148047 0.0177015 -0.996545)
(0 0 0)
(-0.00221083 0.0479457 -0.635731)
(-0.00663045 0.0162454 -0.237949)
(-0.03512 -0.0290924 -0.265089)
(-0.0632017 -0.000910218 -0.38093)
(-0.0445245 0.000992081 -0.848685)
(-0.0176108 -0.00614539 -1.05375)
(0 0 0)
(-0.0314523 0.0350139 -0.632572)
(-0.0208058 0.00146776 -0.460796)
(-0.0121826 -0.0150846 -0.45652)
(0.079101 -0.0357795 -0.489639)
(0.000121639 -0.0274323 -1.08478)
(0.0192698 -0.00515442 -1.09586)
(0.0159968 -0.00531567 -0.734594)
(-0.0166011 -0.013582 -0.85414)
(0.0180145 -0.00523043 -0.62188)
(0.0149741 -0.0131808 -1.02969)
(0.0315797 0.00806993 -0.935631)
(0.0195162 0.0259587 -0.313781)
(0.0358472 0.0164594 -0.649016)
(0.0212141 -0.00643608 -0.599515)
(-0.0272336 -0.0108169 -0.276895)
(-0.0238471 -0.0085919 -0.161356)
(-0.0221303 -0.00655167 -0.739573)
(0.00023685 0.0455609 -0.935951)
(-0.000886357 0.0439008 -0.638215)
(-0.0393766 0.0405146 -0.275321)
(-0.0859508 -0.0106346 -0.223203)
(-0.0478065 -0.0156591 -0.396009)
(-0.0405475 -0.00596222 -0.885202)
(-0.00912278 -0.00555461 -1.05431)
(0.0375441 0.00420046 -0.634649)
(-0.0183355 0.00160102 -0.457209)
(-0.0262036 0.00919661 -0.411232)
(-0.00525552 0.00743773 -0.703062)
(-0.0174966 -0.024847 -1.05658)
(0.00350094 -0.0186395 -1.05615)
(0.00120785 -0.0272314 -0.649153)
(-1.00859e-17 1.93629e-17 6.90695e-16)
(-0.0588643 0.0418383 -0.468348)
(0.0168083 -0.00286265 -1.02547)
(0.00480628 0.0436054 -0.605422)
(0.00942644 -0.0225402 -0.175339)
(0.0219369 0.0195775 -0.645275)
(0.0349386 0.0450212 -0.61753)
(-0.0384987 -0.00851488 -0.193484)
(-0.0190711 -0.0117639 -0.145136)
(-0.0113029 3.33742e-06 -0.702282)
(0.0265916 0.0486109 -0.902983)
(0.0126777 0.0420748 -0.665431)
(0.0495642 0.0624382 -0.422099)
(-0.0297768 0.00122219 -0.125782)
(-0.0570864 -0.028025 -0.383403)
(-0.0318372 -0.00403787 -0.858817)
(-0.0143162 -0.00262041 -1.0331)
(0.0162803 0.0422342 -0.670405)
(-0.00202463 0.00389406 -0.458389)
(-0.0170976 0.00583975 -0.383497)
(-0.0581449 0.0241581 -0.811064)
(-0.0111099 -0.00913674 -1.05694)
(0.00972465 -0.00379347 -1.03652)
(-0.00206992 -0.0298412 -0.648399)
(0.0182528 0.0323414 -0.702768)
(-2.66653e-17 1.66048e-17 5.57326e-16)
(-0.00655229 -0.00901296 -0.956448)
(0.0165271 0.0160774 -0.706272)
(-0.01386 -0.0378887 -0.313109)
(0.00289876 0.0209284 -0.714479)
(0.0513772 -0.0396983 -0.389846)
(-0.0265376 -0.014392 -0.217274)
(-0.0440858 -0.0110138 -0.223109)
(-0.00518208 -0.0034502 -0.69431)
(-0.0230748 0.0605731 -0.877096)
(1.81701e-17 -1.71384e-17 4.39795e-16)
(0 0 0)
(-0.042355 -0.0162862 -0.171121)
(-0.0655448 -0.0177505 -0.395393)
(-0.0333772 0.0133721 -0.859579)
(-0.0127264 0.0187955 -1.02602)
(0.0235041 0.03199 -0.687981)
(-0.0209597 -0.00159488 -0.469767)
(-0.00498122 -1.64861e-05 -0.367325)
(-0.0191934 -0.0339924 -0.662984)
(-0.0115628 -0.0160379 -1.04487)
(0.00569949 -0.00212197 -0.960148)
(-0.014202 0.00815457 -0.648658)
(-0.0147279 0.00523902 -0.784953)
(0.02011 0.00434358 -0.595063)
(-0.00295653 0.0130928 -1.02234)
(0.0148261 -0.00546489 -0.709819)
(-0.00433633 -0.0188722 -0.226614)
(0.0351134 0.0403988 -0.684839)
(0.11145 0.0191884 -0.653194)
(-0.0229109 0.00190408 -0.174122)
(-0.0275197 -0.00776442 -0.198781)
(-0.00870809 -0.00608278 -0.689404)
(0.0129274 0.0366053 -0.843508)
(0.0137367 0.0077412 -0.452898)
(0.0510567 0.0393598 -0.371807)
(-0.0811224 -0.0242867 -0.0722977)
(-0.0679178 -0.00672635 -0.413429)
(-0.0298573 0.00144117 -0.819535)
(-0.0101292 0.00429549 -1.03598)
(0.0247145 0.021722 -0.650888)
(-0.010311 0.0115677 -0.462579)
(-0.0146743 -0.00415957 -0.455631)
(-0.0312343 0.00847358 -0.792676)
(-0.00743674 -0.0047813 -1.00908)
(0.0205 -0.010668 -0.991855)
(0.0326547 -0.00186186 -0.740155)
(-0.0141872 0.0103147 -0.755653)
(0.0404251 0.00277006 -0.544955)
(0.0110218 -0.01509 -1.03098)
(0.0418346 0.0130535 -0.74674)
(0.00138871 -0.0276786 -0.211303)
(0.0317873 0.0381403 -0.674983)
(0.0022478 0.0195391 -0.661002)
(-0.0285949 -0.00227229 -0.164576)
(-0.0183511 -0.0100084 -0.155021)
(-0.00611582 -0.0173859 -0.679571)
(0.00883955 0.0426587 -0.879945)
(-0.0131721 0.0110617 -0.489393)
(0.0398028 -0.00603442 -0.345291)
(-0.0297303 -0.0211195 -0.090303)
(-0.0572268 0.00812414 -0.393377)
(-0.0277717 0.00426693 -0.831003)
(-0.0080187 0.0289369 -1.00037)
(0.0141832 0.0420804 -0.624498)
(-0.00619512 0.00128445 -0.415878)
(-0.0107561 -0.00950523 -0.411683)
(-0.0288314 0.00213128 -0.725624)
(0.016509 -0.0249259 -0.983673)
(0.0336334 0.00297762 -0.978333)
(0.0378828 -0.0141173 -0.675925)
(0.0320444 0.00920207 -0.641533)
(0.0252051 -0.0187768 -0.519734)
(0.0201364 0.00296918 -1.00071)
(0.0660365 -0.00316671 -0.695571)
(0.0608444 0.0122479 -0.239372)
(0.0137017 -0.00160942 -0.541679)
(0.00782315 -0.00219701 -0.403767)
(-0.00444202 0.00188062 -0.176616)
(-0.0356307 -0.0308362 -0.225425)
(-0.00606597 -0.00551819 -0.650829)
(-0.00192903 0.0469566 -0.796847)
(-0.00113007 -0.00106081 -0.394163)
(0.0331058 -0.0154081 -0.304226)
(-0.0691275 -0.00757933 -0.0859744)
(-0.0486203 0.0129246 -0.378077)
(-0.0287777 0.00704822 -0.834691)
(-0.015614 0.0242294 -0.996717)
(0.0131009 0.000655661 -0.588503)
(-0.0107703 0.0105138 -0.397478)
(-8.28282e-05 0.0148942 -0.427066)
(-0.0197442 -0.0242996 -0.729365)
(0.000379535 -0.00792316 -0.965502)
(0.020539 0.0115465 -0.938427)
(0.0191431 0.00532443 -0.668068)
(-0.00163058 -0.0175596 -0.662701)
(0.0123367 -0.00785747 -0.492367)
(0.0212753 -0.0129656 -0.982595)
(0.0208647 -0.0420616 -0.488765)
(0.0275991 0.0224517 -0.33101)
(0.03276 0.0227151 -0.519649)
(-0.0104998 -0.00962999 -0.272708)
(-0.0153916 -0.00427044 -0.169846)
(-0.0251283 -0.00784805 -0.219158)
(-0.0165429 0.0033469 -0.673041)
(0.0159195 0.0418597 -0.784471)
(1.58299e-17 -9.67334e-18 4.66988e-16)
(0.0430934 0.0347533 -0.189229)
(-0.0583307 -0.000194342 -0.032976)
(-0.0680076 -0.00294106 -0.328446)
(-0.0338317 0.0130887 -0.797045)
(-0.0204494 0.0290032 -0.974118)
(0.014359 0.00201869 -0.623515)
(0.022296 -0.017354 -0.527584)
(-0.0168059 0.009988 -0.363956)
(-0.0190808 0.00282629 -0.692738)
(-0.00360431 -0.0121714 -0.935624)
(0.0332122 0.0091323 -0.924997)
(0.019911 -0.0223644 -0.655212)
(0 0 0)
(-1.26797e-17 1.92771e-17 2.89699e-16)
(0.00540577 -0.00767354 -0.949035)
(0.0382287 -0.0125223 -0.482864)
(0 0 0)
(0.00985567 0.0409136 -0.618233)
(0.00519448 0.0452242 -0.586574)
(0.00980491 0.00663121 -0.210202)
(-0.0135984 -0.00691621 -0.220709)
(-0.00989991 0.00506553 -0.640887)
(-0.0113142 0.0547966 -0.77651)
(-0.0146976 0.00459958 -0.509882)
(-0.0408259 0.0248465 0.0485076)
(-0.0451854 0.0157777 -0.0600682)
(-0.0669453 0.000764146 -0.422338)
(-0.0312355 0.00823028 -0.796612)
(-0.009818 0.0216343 -0.97448)
(0.029424 0.0617698 -0.453758)
(0.0163974 0.00633724 -0.483088)
(-0.011631 0.0211878 -0.33618)
(-0.0112336 -0.0154777 -0.640837)
(0.000553727 0.0239554 -0.922964)
(0.0345108 -0.00118007 -0.920835)
(0.0310199 -0.0229431 -0.623344)
(0.00601425 -0.0121917 -0.669178)
(0 0 0)
(0.0153515 0.00908277 -0.88245)
(0.00526764 0.0019522 -0.469823)
(0.025294 0.00304663 -0.20368)
(0.0343172 0.0429169 -0.508136)
(0.022674 -0.00589464 -0.534407)
(-0.00256625 -0.00309259 -0.125633)
(-0.028221 -0.00904161 -0.247209)
(-0.00803166 0.00626096 -0.642177)
(0.00454734 0.0635946 -0.792669)
(0 0 0)
(0 0 0)
(-0.0382502 0.0140581 0.0476208)
(-0.0322197 0.00870859 -0.405045)
(-0.0294877 0.0143803 -0.781109)
(-0.00851538 0.027771 -0.95275)
(0.00916224 0.0621609 -0.248068)
(-0.0046447 0.00655817 -0.332787)
(-0.0217832 0.00116132 -0.309962)
(-0.0143085 0.0115858 -0.644802)
(-0.0293942 0.0299716 -0.923052)
(0.037336 0.00407003 -0.91879)
(0.0460606 -0.00434822 -0.689988)
(0.00374661 -0.0245365 -0.675215)
(0.0179691 -0.0129722 -0.623073)
(0.0258508 -0.0193725 -0.867544)
(0.031201 0.0027334 -0.647947)
(0.0223233 0.0125971 -0.302279)
(0.00670023 0.00286715 -0.605132)
(0.010072 0.0139676 -0.495359)
(0.0170002 0.0128326 -0.232638)
(-0.0055763 -0.00921049 -0.170049)
(-0.018862 0.00708255 -0.645351)
(0.015173 0.0537132 -0.796987)
(0.0547699 0.0520326 -0.39535)
(0.0503322 0.0717999 -0.401357)
(-0.0211591 0.0138601 -0.00466356)
(-0.0557065 0.0149545 -0.380393)
(-0.0330537 0.0126356 -0.772756)
(-0.0169788 0.0282879 -0.93311)
(0.0383554 -0.0169451 -0.653648)
(0.00625406 -0.0138543 -0.428572)
(-0.00755702 -0.00487464 -0.400715)
(-0.0331737 0.0396929 -0.651562)
(0.00254924 0.00700141 -0.880496)
(0.0304359 -0.00551253 -0.937472)
(0.039678 -0.0193463 -0.616045)
(0.0109553 -0.0242378 -0.641088)
(0.0153916 0.0199488 -0.493262)
(-0.0176804 -0.0413277 -0.791279)
(0.0160224 0.0136461 -0.575482)
(0.00282427 0.00678496 -0.114661)
(0.0187786 0.0272994 -0.608558)
(0.0393966 0.0286159 -0.557345)
(-0.0277283 -0.0174655 -0.0920791)
(-0.010819 -0.0130048 -0.165054)
(-0.0162408 0.0253986 -0.633114)
(0.00422349 0.0550793 -0.790555)
(0 0 0)
(0.0818393 0.102598 -0.569937)
(0.00848957 0.0186509 -0.0384993)
(-0.0533233 0.0253392 -0.316229)
(-0.0321233 0.00832427 -0.74707)
(-0.00809785 0.0333531 -0.916693)
(0.0350186 0.00715621 -0.605834)
(0.0152633 0.00269755 -0.415134)
(-0.0520345 0.018956 -0.402985)
(0 0 0)
(0.00714344 -0.0151254 -0.839071)
(0.0259863 -0.000136814 -0.878902)
(0.0140549 -0.0388434 -0.566707)
(0.0110785 -0.0186856 -0.572586)
(0.0231424 -0.0105785 -0.45786)
(0.0105998 -0.00397894 -0.80027)
(0.0119921 0.00742749 -0.313976)
(-0.0285074 -0.0342899 -0.0622191)
(0.0239864 0.0461211 -0.620863)
(0.00604677 0.0166454 -0.419919)
(0.0132381 -0.00418866 -0.127157)
(-0.00585589 -0.00791177 -0.164489)
(-0.0130326 0.00923821 -0.630381)
(0.0230655 0.0415634 -0.739414)
(0 0 0)
(0.0188202 -0.0298944 -0.119564)
(0.00101306 -0.00376227 -0.00407823)
(-0.0579679 0.0132828 -0.380129)
(-0.0354259 0.0155689 -0.750681)
(-0.0158373 -0.00250061 -0.914752)
(0.0266765 0.00184731 -0.619139)
(0.0207823 0.0026827 -0.382623)
(-0.0572848 0.0360125 -0.338003)
(0.00237391 -0.00501248 -0.616149)
(0.00984118 -0.0222382 -0.821534)
(0.0225097 -0.00403501 -0.870243)
(0.0164375 0.0356994 -0.499907)
(0 0 0)
(-0.00357538 -0.0256213 -0.63655)
(0.0120844 -0.015013 -0.721074)
(-0.0145847 -0.00209954 -0.353146)
(0.00729132 0.00358888 -0.0663725)
(0.0180867 0.0338119 -0.670299)
(0.0298623 -0.0202486 -0.385086)
(-0.00114924 -0.000273217 -0.121977)
(-0.0443016 -0.0320247 -0.285707)
(-0.0241239 0.0161008 -0.615562)
(0.0268681 0.0311697 -0.735075)
(0.0121645 -0.00309073 -0.402005)
(0.0289576 0.00949955 -0.0919612)
(-0.0104473 0.0214358 -0.0123906)
(-0.0549101 -0.00474994 -0.404298)
(-0.0311544 0.00671776 -0.739964)
(-0.0154723 -0.00749076 -0.895676)
(0.00320416 0.0211778 -0.477063)
(0.0118618 -0.00708859 -0.338378)
(-0.00658199 0.0180065 -0.257271)
(-0.0277707 0.015879 -0.533058)
(0.00204671 -0.019188 -0.825902)
(0.00287417 0.0124556 -0.818089)
(-0.00125346 0.0656036 -0.320552)
(0.0361723 0.00443808 -0.494836)
(-0.0118382 -0.000630578 -0.331421)
(0.0247208 0.021781 -0.802054)
(-0.0730727 -0.0502434 -0.267512)
(0.0130567 0.0101734 -0.0825599)
(0.00667824 0.0308269 -0.610564)
(0.0279087 -0.0389574 -0.491072)
(-0.0234618 -0.0183564 -0.109402)
(-0.0134642 -0.0164897 -0.228992)
(-0.0159981 0.0164928 -0.547918)
(0.010432 0.0311096 -0.751817)
(-0.0096258 -0.0565365 -0.423805)
(0.0606845 -0.0120857 -0.123759)
(-0.0144575 0.0148377 0.0646825)
(-0.0745079 0.0163325 -0.373697)
(-0.0307089 0.0100093 -0.724802)
(-0.0119403 -0.0101514 -0.877702)
(0.0422879 0.0197803 -0.532913)
(-0.00807575 0.0155776 -0.251198)
(-0.0122922 0.0332991 -0.168925)
(-0.0340934 0.0225774 -0.431398)
(0.0150771 -0.0132453 -0.80814)
(0.0345623 0.0199802 -0.81668)
(0.00499419 0.0151335 -0.50244)
(0.0261103 0.00853829 -0.465428)
(-0.0204344 -0.0266117 -0.427438)
(0.000814137 0.0390043 -0.627328)
(-0.00834586 -0.0129303 -0.273075)
(-0.00327211 -0.00616942 -0.0851424)
(-0.00190423 0.0149378 -0.598455)
(-0.00238321 -0.0152223 -0.422994)
(-0.046933 -0.0141656 -0.0426213)
(-0.0217636 0.00213506 -0.188412)
(-0.0210127 -0.0173899 -0.562507)
(0.0149965 0.020019 -0.709433)
(0.0405734 0.00895144 -0.365463)
(0.0330149 -0.027132 -0.180397)
(-0.0185201 -0.00599423 0.078928)
(-0.0644974 0.0148147 -0.281581)
(-0.0343804 0.010047 -0.704343)
(-0.0230207 0.00558829 -0.8702)
(0.0267896 0.0244264 -0.434096)
(0.021395 -0.00360998 -0.302117)
(0.000406264 0.0189447 -0.163271)
(-0.00835856 -0.0284081 -0.494555)
(0.00197501 -0.0117269 -0.808054)
(0.0291774 -0.00725037 -0.770508)
(0.000414006 -0.00299257 -0.599201)
(5.66935e-17 5.44993e-17 3.14659e-16)
(-0.017452 0.0129113 -0.300356)
(-0.0110978 -0.00548675 -0.611771)
(0.00584199 -0.0275345 -0.449978)
(0.0031988 -0.0190288 -0.0241388)
(0.0277882 0.0361336 -0.468543)
(0.00649087 -0.0256091 -0.322648)
(-0.0484132 -0.0234988 -0.000435961)
(-0.0433383 -0.0189303 -0.226075)
(-0.0340571 -0.008305 -0.542273)
(0.0152897 0.0211254 -0.650091)
(0.00831806 -0.0166138 -0.450188)
(0.00696207 0.00473237 0.040681)
(-0.0469214 0.0126575 0.12558)
(-0.0665515 0.0182275 -0.319197)
(-0.0379121 0.00644589 -0.720248)
(-0.0158903 0.00370064 -0.847161)
(0.0154525 -0.00894516 -0.565773)
(0.00135747 0.0175088 -0.211007)
(-0.00277299 0.021382 -0.171323)
(0.0274531 -0.0167788 -0.278622)
(0.00210532 -0.00717234 -0.778594)
(0.0103754 -0.0134423 -0.752238)
(0.144997 0.0763639 -0.349932)
(-0.0105804 -0.0139847 -0.57126)
(-0.0102873 -0.0237324 -0.374316)
(-0.0336971 -0.0235583 -0.561506)
(-0.00477091 -0.00715431 -0.266873)
(-0.00684102 0.0107602 -0.0574355)
(-0.00629843 0.0243723 -0.488499)
(0.00397764 -0.0407701 -0.288097)
(-0.0199538 -0.0218238 -0.0132149)
(-0.0460183 -0.0139509 -0.264641)
(-0.0236185 -0.00902326 -0.523067)
(0.013294 0.0252189 -0.644239)
(-0.0317536 -0.00779394 -0.468767)
(0.0386593 -0.0312127 -0.148096)
(-0.0358159 0.00303073 0.176615)
(-0.0395672 -0.000200154 -0.171348)
(-0.0242151 0.00591251 -0.689268)
(-0.0108795 0.00519768 -0.834955)
(0.0314515 -0.0306579 -0.514041)
(0.00193911 0.00349547 -0.248291)
(-0.00193688 0.0251572 -0.12948)
(0.0177104 -0.0182026 -0.375428)
(0.0180104 -0.0303737 -0.742042)
(0.00957757 0.00224721 -0.713689)
(0 0 0)
(0 0 0)
(-0.0115171 0.0208684 -0.33936)
(-0.00809443 -0.0141567 -0.6401)
(0.0112578 0.00682923 -0.431877)
(0 0 0)
(0.0152345 0.0185393 -0.420597)
(-0.0749453 -0.142808 -0.205954)
(-0.0386269 -0.00845253 0.0226184)
(-0.051305 -0.0128206 -0.287198)
(-0.0224439 -0.0116498 -0.52409)
(0.0322229 0.0163544 -0.60182)
(-0.000738585 -0.0413771 -0.30924)
(0.106409 -0.0193555 -0.181683)
(-0.00700168 0.0105059 0.111223)
(-0.0556344 0.00885757 -0.145123)
(-0.0396782 0.00243493 -0.682544)
(-0.0171611 0.000836491 -0.815575)
(-0.0664747 0.00465712 -0.39276)
(0.00179538 0.000802178 -0.221181)
(0.00364968 -0.00443822 -0.178952)
(0.00921969 -0.00610285 -0.472192)
(0.0238303 -0.00954387 -0.708527)
(0.00989079 -0.00166109 -0.705976)
(0.0097801 0.0117342 -0.478945)
(1.51098e-17 -2.70784e-18 4.72116e-16)
(-0.00509541 0.0238109 -0.31908)
(-0.0175805 -0.0127227 -0.530137)
(-0.0032116 -0.0306735 -0.254304)
(-0.027571 -0.0403753 -0.0938741)
(0.0265854 0.00599944 -0.433388)
(0.0533339 0.00847771 -0.322669)
(-0.0419529 -0.00568464 0.0296491)
(-0.0512437 -0.00642372 -0.223895)
(-0.0206791 -0.00803578 -0.525581)
(-0.00316763 -0.00723507 -0.676862)
(0.0458565 -0.00382736 -0.326162)
(0.0175481 -0.00618048 -0.383573)
(-0.0295286 -0.00540989 0.151832)
(-0.0350716 0.0110081 -0.237929)
(-0.0327537 -0.000852785 -0.683002)
(-0.0132923 -0.00658211 -0.808281)
(0.0147957 0.0150164 -0.40335)
(-0.00855132 2.87881e-05 -0.218179)
(0.000875763 -0.000407406 -0.185832)
(0.025545 -0.0134494 -0.402963)
(0.0185265 -0.0197851 -0.696588)
(0.0173864 -0.00580911 -0.674878)
(0 0 0)
(0.00218362 -0.017555 -0.466127)
(0.0459947 -0.0171055 -0.458844)
(-0.0180072 -0.00578009 -0.6093)
(-0.0137073 -0.0320468 -0.251374)
(0.00659648 0.00202047 -0.100151)
(0.0367736 0.00980388 -0.367264)
(0.010177 0.0116353 -0.303712)
(-0.0488065 -0.0132073 0.0245779)
(-0.037605 -0.0101819 -0.181726)
(-0.024259 -0.0179002 -0.531535)
(0.0289148 0.00695875 -0.544759)
(0 0 0)
(8.6645e-17 -5.34721e-18 -2.22894e-16)
(-0.0410366 0.00438477 0.144444)
(-0.0506766 -0.00172622 -0.285659)
(-0.0313966 -0.00285385 -0.658535)
(-0.0181242 -0.00493719 -0.78515)
(0.0246106 0.0361308 -0.39287)
(-0.00475375 0.00417131 -0.249263)
(-0.00115929 0.00391425 -0.143217)
(0.017124 -0.00508675 -0.409568)
(0.0460431 -0.0434422 -0.586401)
(0.00344447 -0.00553037 -0.665023)
(0 0 0)
(-0.0738477 0.00159013 -0.466228)
(0.016268 -0.015185 -0.462179)
(-0.00410589 0.00577537 -0.577316)
(0.0137387 -0.00475604 -0.313018)
(0.0387457 0.00783957 -0.284887)
(0.0269461 0.0233604 -0.403201)
(-0.0644994 -0.0257489 -0.177572)
(-0.0210208 -0.0223399 0.0534962)
(-0.054614 -0.0217729 -0.252642)
(-0.0194262 0.00111922 -0.499696)
(0.0128471 0.0159828 -0.606534)
(0 0 0)
(-0.0196427 -0.0303143 0.0467708)
(-0.0356156 0.00376402 0.127989)
(-0.0310643 -0.00711377 -0.138857)
(-0.0264659 -0.000518138 -0.64246)
(-0.00891621 -0.00348252 -0.774026)
(0.0110982 0.0248103 -0.357205)
(0.00453868 0.00260848 -0.244547)
(-0.0121938 -0.0140452 -0.196091)
(0.00866973 -0.0266338 -0.453471)
(0.00664053 0.00588701 -0.676343)
(-0.000202538 0.00738161 -0.632237)
(0 0 0)
(-0.0214811 -0.031235 -0.401165)
(0 0 0)
(-0.0382046 -0.0286233 -0.512556)
(0.0194715 -0.00316686 -0.309227)
(-0.00401113 0.000261381 -0.033521)
(0.0183526 0.0269243 -0.443816)
(-0.0457327 -0.00484176 -0.194004)
(-0.0151832 -0.0100575 0.0456262)
(-0.0242963 -0.00600576 -0.123281)
(-0.0221837 -0.0140215 -0.486941)
(-0.0331311 0.0240618 -0.487986)
(-0.0843196 0.0129504 -0.197902)
(0 0 0)
(-0.0562448 0.0110639 0.12096)
(-0.0628748 0.0165535 -0.256695)
(-0.0268073 0.00648045 -0.638538)
(-0.0114066 0.000994222 -0.761064)
(0.0188813 -0.00833262 -0.451913)
(-0.00615161 0.000310102 -0.2179)
(0.0076094 -0.0127254 -0.121735)
(-0.0101488 0.0241056 -0.395413)
(0.0198164 -0.0308668 -0.630279)
(-0.00397418 0.0130115 -0.490785)
(0.00754726 -0.0261734 -0.309936)
(-0.000433254 -0.0325545 -0.374269)
(0.0160192 0.00284038 -0.380127)
(-0.00144009 -0.00168575 -0.537064)
(0.00858271 -0.0168781 -0.288205)
(-0.00762339 0.00138492 -0.0206672)
(0.0302423 0.0147314 -0.26526)
(0.00274163 -0.00955773 -0.117158)
(-0.0116487 -0.00790397 0.0500852)
(-0.0267087 -0.00733034 -0.0819909)
(-0.00264834 -0.00683258 -0.459622)
(0.0288081 -0.00640789 -0.510229)
(0.0107879 0.00984936 -0.357351)
(0 0 0)
(-0.04516 0.00402559 0.11976)
(-0.0450364 -0.00399183 -0.263686)
(-0.0277257 0.000244955 -0.621083)
(-0.00888878 0.0032435 -0.730466)
(-0.036713 0.0274764 -0.161452)
(0.00219226 -0.00182004 -0.239649)
(0.00934356 -0.0115702 -0.112304)
(0.0109557 -0.0310136 -0.356249)
(-0.000708833 -0.0234334 -0.56903)
(0.00018322 -0.00431972 -0.600649)
(0.0200502 -0.0164711 -0.358474)
(-1.14316e-17 -1.43935e-17 4.18557e-16)
(0.0179279 0.0113081 -0.30132)
(0.00934821 -0.00670249 -0.534411)
(0.0258061 -0.00840741 -0.23013)
(0.00456377 -0.00204691 -0.0786069)
(0.034472 0.0127474 -0.307329)
(0.00232603 -0.0200512 -0.135206)
(-0.00873596 -0.0106664 0.0390437)
(-0.0229634 -0.0144338 -0.121654)
(-0.0128664 -0.0147406 -0.46727)
(-0.00547798 0.0393267 -0.485715)
(0 0 0)
(0 0 0)
(-0.0554626 0.00932694 0.138205)
(-0.0257015 -0.0110034 -0.112104)
(-0.0301709 0.0047429 -0.612871)
(-0.00855694 -0.00254598 -0.702735)
(-0.0150221 0.00730914 -0.302358)
(-0.00202501 -0.0047985 -0.203576)
(0.0130662 -0.0145341 -0.113588)
(0.0272481 -0.0219021 -0.272054)
(-0.0239195 -0.0333276 -0.542884)
(0.00302097 -0.00223945 -0.571086)
(0.0204753 0.0297274 -0.440346)
(0 0 0)
(0.013997 0.0163259 -0.274195)
(0.00456998 -0.00014454 -0.503674)
(0.006628 -0.0215559 -0.283078)
(0 0 0)
(0.0327188 0.00814042 -0.312032)
(-0.024978 0.0407737 -0.0142949)
(-0.0134169 -0.00747658 0.0327007)
(-0.017946 -0.00443067 -0.076698)
(-0.0108856 -0.0192581 -0.473359)
(0.0267889 0.0368837 -0.475446)
(-0.019474 0.00461465 -0.33919)
(-0.0455503 0.0219068 0.236715)
(-0.0218744 0.00183835 0.229305)
(-0.0209608 -0.0211251 -0.1234)
(-0.028811 0.00640295 -0.597248)
(-0.0183482 0.00612837 -0.687869)
(0.0291082 0.00124378 -0.372925)
(-0.00326682 -0.00305125 -0.222242)
(0.00757005 -0.00844842 -0.132007)
(0.00394126 -0.00866664 -0.349455)
(0.0333305 -0.0369401 -0.542987)
(0.00855163 -0.00363125 -0.557884)
(0.00512247 0.0238539 -0.199024)
(0.00844267 0.00228841 -0.293813)
(0.0427127 0.00421182 -0.328715)
(0.00322891 -0.0011277 -0.501555)
(-0.000648405 -0.0488147 -0.24673)
(0.0358202 0.010199 -0.150299)
(0.011099 0.0258842 -0.389759)
(0.00361343 0.00901912 -0.181058)
(-0.0163961 -0.0166347 0.00694779)
(-0.009592 -0.00952717 -0.0625954)
(0.00763221 -0.0134673 -0.425207)
(0.0438039 -0.00254015 -0.442243)
(-0.0229209 0.0383358 -0.334628)
(0 0 0)
(-0.034584 0.00720959 0.160062)
(-0.0275081 -0.0183495 -0.11971)
(-0.0300539 0.00237694 -0.596327)
(-0.0112731 0.00710116 -0.676905)
(0 0 0)
(0.00564301 -0.00653093 -0.217713)
(0.0169936 -0.0146292 -0.125863)
(0.0227006 -0.0259693 -0.330017)
(-0.00250273 -0.00129903 -0.549599)
(0.00244321 0.00422549 -0.524477)
(0.0136036 -0.0231461 -0.207375)
(-0.00893146 -0.0179836 -0.396496)
(0.0163714 -0.0332434 -0.2925)
(-0.002209 0.00391396 -0.487842)
(0.00765685 6.99835e-05 -0.266601)
(0 0 0)
(-0.0010677 0.020081 -0.330311)
(0.0253123 0.00767519 -0.236806)
(-0.0169984 -0.00927713 -0.00801494)
(-0.00876533 -0.0105993 -0.07969)
(-0.000479402 -0.012341 -0.436921)
(0.00861364 0.0316065 -0.415859)
(-0.0224039 -0.00651102 -0.257646)
(0 0 0)
(0.00469895 -0.0689186 -0.113759)
(-0.0252724 -0.0144129 -0.141174)
(-0.0290422 0.0017862 -0.574922)
(-0.017121 0.0192404 -0.652086)
(0.00877623 0.00552679 -0.296428)
(-0.00742647 0.00988425 -0.136286)
(0.00816 -0.0124925 -0.111282)
(0.0169619 -0.0312863 -0.316189)
(0.0334097 -0.0479505 -0.491603)
(0.0242864 0.000949431 -0.551296)
(0.021142 -0.0257371 -0.241644)
(0.00646261 0.00615846 -0.373234)
(0.0162852 -0.0327873 -0.242678)
(0.0127728 -0.000647626 -0.487601)
(0.00762281 -0.0259735 -0.250219)
(0.0089013 -0.03697 0.0942301)
(0.0479333 0.0165183 -0.301507)
(-0.00207232 0.0154645 -0.102186)
(-0.0106233 -0.0176244 0.00629093)
(-0.0160839 -0.0171754 -0.0998575)
(-0.0237432 -0.016224 -0.448319)
(0.0145116 0.0484025 -0.401494)
(0.0288401 -0.000569769 -0.186599)
(0.010405 0.0119117 0.165759)
(-0.0118263 0.00700165 0.25177)
(-0.0217761 -0.0239843 -0.107636)
(-0.0280411 -0.00659664 -0.553499)
(-0.0153662 0.00456845 -0.642954)
(0.00613209 -0.000901487 -0.277662)
(0.00886961 0.000208446 -0.170677)
(0.00186933 -0.0141032 -0.119378)
(0.0148028 -0.0171719 -0.289445)
(0.0172565 -0.0121995 -0.500683)
(0.0135721 0.007677 -0.473111)
(0.00120509 0.0160202 -0.185841)
(0.0256801 0.0102874 -0.313225)
(0 0 0)