/*--------------------------------*- C++ -*----------------------------------*\
| =========                 |                                                 |
| \\      /  F ield         | OpenFOAM: The Open Source CFD Toolbox           |
|  \\    /   O peration     | Version:  5.x                                   |
|   \\  /    A nd           | Web:      www.OpenFOAM.org                      |
|    \\/     M anipulation  |                                                 |
\*---------------------------------------------------------------------------*/
FoamFile
{
    version     2.0;
    format      ascii;
    class       volScalarField;
    location    "0.3";
    object      voidfraction;
}
// * * * * * * * * * * * * * * * * * * * * * * * * * * * * * * * * * * * * * //

dimensions      [0 0 0 0 0 0 0];

internalField   nonuniform List<scalar> 
10571
(
0.989353
0.972353
0.980125
0.988031
0.971024
0.982606
0.989166
0.979733
0.970165
0.96669
0.997444
0.989272
0.994375
0.973994
0.969975
0.958187
0.974311
0.974569
0.966561
0.942702
0.948419
0.966119
0.964588
0.949999
0.999893
0.973854
0.998073
0.995168
0.996726
0.999347
0.993874
0.994122
0.986301
0.984594
0.996891
0.997911
0.993543
0.994308
0.991795
0.979387
0.995185
0.995602
0.995715
0.99659
0.984277
0.981909
0.993896
0.996287
1
0.980047
0.996166
0.999042
0.993161
0.999007
0.99906
0.998426
0.9891
0.995735
0.995733
0.998249
0.998681
0.99609
0.99169
0.975126
0.991854
0.995997
0.994969
0.990151
0.982988
0.980412
0.995634
0.992363
0.99989
0.984894
0.994055
0.999025
0.9994
0.995492
0.999366
0.99799
0.992405
0.985488
0.996813
0.999024
0.998119
0.997288
0.990853
0.976135
0.99787
0.99402
0.995629
0.991085
0.986143
0.977832
0.993216
0.99601
1
0.984992
0.989483
0.99902
0.997742
0.985653
0.988516
0.998434
0.995695
0.992784
0.99989
0.998987
0.998195
0.997514
0.992388
0.982502
0.993958
0.994572
0.995559
0.991217
0.99014
0.970421
0.993841
0.995304
0.99956
0.982861
0.998009
0.996783
0.995621
0.994425
0.991309
0.998177
0.995752
0.986072
0.674671
1
0.996043
0.998106
0.99784
0.993061
0.982336
0.487514
0.995369
0.991472
0.997059
0.995977
0.994871
0.973748
0.992842
0.997966
0.996812
0.983308
0.995713
0.996783
0.995723
0.994694
0.998568
0.998908
0.995744
0.994096
1
0.996811
0.999357
0.998507
0.997809
0.994308
0.981999
1
0.994256
0.993217
0.996889
0.995102
0.986121
1
0.985828
0.995047
0.997272
0.994284
0.986277
0.991866
0.99719
0.997386
0.998107
0.999198
0.997586
0.994838
0.990012
1
0.996921
1
0.99913
0.997819
0.993876
0.985291
1
0.99597
0.993557
0.996446
0.998982
0.985315
1
0.982924
0.995833
0.997836
0.996702
0.992046
0.998245
0.995564
0.996504
0.997195
0.994981
0.997355
0.995393
0.995051
1
0.997911
0.997294
0.998128
0.997992
0.994656
0.989848
1
0.99582
0.995269
0.995144
0.999015
0.988766
0.981685
0.995892
0.994121
0.989116
0.981013
0.997875
0.997056
0.996718
0.994188
0.996534
0.995926
0.996675
0.993622
0.997911
0.998241
0.998961
0.998016
0.994804
0.992148
0.993534
0.995276
0.995336
0.99563
0.975716
0.986061
0.996678
1
0.995602
0.987903
0.995042
0.989589
0.995042
0.999358
0.998819
0.996828
0.9978
0.995056
0.996921
0.997904
0.998447
0.998497
0.994651
0.982474
0.994768
0.995858
0.994769
0.998363
0.975516
0.987649
0.998249
0.991529
1
0.98796
0.994774
0.996689
0.996606
0.99946
0.999221
0.997132
0.996367
0.99938
1
1
0.999103
0.999136
0.995519
0.988367
0.989988
0.995735
0.99601
0.99743
0.969305
0.985675
0.997947
0.99517
0.997911
0.982304
0.994741
0.998682
0.995614
0.998413
0.998825
0.996703
0.996083
0.998372
0.993732
0.998715
0.999531
0.997549
0.994813
0.995103
0.994077
0.996257
0.997291
0.994859
0.99202
0.98916
0.996346
0.996219
0.992523
0.987848
0.996393
0.994966
0.996695
0.997805
0.998233
0.995349
0.996648
0.995503
0.990434
0.99662
0.999227
0.997793
0.995493
0.991505
0.994047
0.996414
0.996596
0.997162
0.983827
0.994773
0.996195
0.99797
0.998021
0.972784
0.997573
0.997061
0.996455
0.996825
0.997249
0.998384
0.996151
0.99434
0.995052
0.998039
0.999369
0.99813
0.993588
0.982586
0.995851
0.997137
0.997675
0.995827
0.984318
0.991947
0.996044
0.992159
0.997801
0.985104
0.991572
0.996723
0.998858
0.99794
0.998317
0.998158
0.997387
0.989533
1
0.993882
0.99895
0.998107
0.99544
0.982042
0.998286
0.996802
0.996608
0.994825
0.985928
0.98703
0.997071
1
1
0.977378
0.991135
1
0.999309
0.996218
0.998691
0.997974
0.99706
0.990346
0.998131
0.998107
0.998958
0.998939
0.995383
0.986968
0.996783
0.996205
0.996475
0.99329
0.985995
0.973441
0.988796
0.991247
1
0.981297
0.995112
0.998041
0.996515
0.996725
0.996646
0.998024
0.998122
0.990811
1
1
0.998285
0.999214
0.995687
0.983763
0.999128
0.996507
0.997316
0.995627
0.99027
0.982658
0.995169
0.99769
0.994723
0.989641
0.994304
0.999054
0.995885
0.996759
0.998596
0.996028
0.997625
0.992946
0.995493
0.998614
0.998688
0.997766
0.994982
0.986881
0.996212
0.99677
0.997643
0.998832
0.99027
0.982078
0.991154
0.99594
0.987908
0.994344
0.997708
0.998041
0.993212
0.994901
0.998424
0.996158
0.99681
0.993178
1
0.998986
0.998865
0.997909
0.995193
0.980684
0.993627
0.995026
0.998674
1
0.98943
0.981186
0.993207
0.99398
0.988566
0.995241
0.999292
0.998041
0.990868
0.998278
0.998325
0.996066
0.997217
0.99089
1
0.996012
0.999127
0.998184
0.994508
0.981168
0.993747
0.995086
0.998957
0.998364
0.99587
0.98765
0.994595
1
0.998901
0.998376
0.994472
0.996082
0.993902
0.997062
0.998588
0.997425
0.996894
0.987013
0.992963
0.997094
0.998673
0.998134
0.993434
0.987214
0.993026
0.995462
0.997853
0.996161
0.9874
0.990979
0.998249
0.99825
0.997581
0.99888
0.998888
0.998075
0.993872
0.997029
0.999226
0.998879
0.996842
0.991161
0.990545
0.998378
0.998438
0.997297
0.992858
0.975848
0.997144
0.996039
0.997946
0.9998
0.99069
0.990979
0.999124
0.99594
0.996811
0.99524
0.999663
0.99419
0.997387
0.999021
0.998337
0.998987
0.995901
0.995
0.991094
0.997871
0.999196
0.998622
0.992891
0.988362
0.992846
0.996713
0.995982
0.996462
0.98656
0.990166
0.999245
1
0.996151
0.989362
0.996123
0.999865
0.994113
0.998649
0.999329
0.998139
0.996785
0.99182
0.993624
0.99902
0.998454
0.99739
0.993393
0.98537
0.998467
0.996124
0.995945
0.999032
0.98817
0.993844
0.999124
0.99937
0.99879
0.989754
0.998011
0.997838
0.99997
0.999021
0.998535
0.997981
0.995667
0.993914
0.997031
0.999358
0.998108
0.995148
0.993499
0.986004
0.998106
0.995736
0.996054
0.996528
0.98838
0.993999
1
1
0.996811
0.993673
0.997101
1
0.995915
0.999966
0.99823
0.998423
0.994144
0.98965
0.996812
0.998817
0.998411
0.997901
0.992818
0.981108
0.998076
0.997388
0.99586
0.999032
0.99146
0.995277
0.998249
1
0.996811
0.98869
0.991
0.998716
0.994233
0.996589
0.999218
0.997655
0.992739
0.99248
0.996922
0.999054
0.998415
0.996906
0.990856
0.98277
0.996211
0.996742
0.998625
0.998965
0.99594
0.992296
1
0.99734
0.996812
0.997144
0.997067
0.998176
0.997207
0.99686
0.999046
0.998035
0.992383
0.997713
1
1
0.998923
0.997723
0.992254
0.973581
0.998226
0.998429
0.99907
0.997496
0.99979
0.986877
1
0.99797
0.996922
0.993449
0.994978
0.999223
0.997116
0.998042
0.999191
0.997179
0.996313
0.997131
1
0.997398
0.998511
0.99818
0.98964
0.970377
0.996603
0.996334
0.999034
0.996695
0.99559
0.990554
1
0.99993
1
0.996528
0.998955
0.998108
0.996514
0.997501
0.995765
0.997552
0.995558
0.997751
0.993624
1
0.998542
0.998335
0.987662
0.979836
0.999098
0.995131
0.999418
0.996929
0.99601
0.994077
0.999124
0.99797
0.994722
0.989584
0.997135
0.997534
0.997536
0.99794
0.995494
0.995237
0.995101
0.99558
0.995602
1
0.999292
0.998021
0.988274
0.975062
0.997354
0.995926
0.998233
0.995293
0.99027
0.984786
0.997373
1
0.988783
0.990314
0.999292
0.996115
0.998828
0.999662
0.997364
0.997168
0.994705
0.998643
1
1
0.999354
0.997077
0.986669
0.97745
0.997384
0.994719
0.998084
0.997296
0.99398
0.985483
0.999124
1
0.993622
0.993167
0.989751
1
0.997356
0.998582
0.997497
0.9967
0.994241
0.996627
0.99989
0.996079
0.998592
0.996051
0.982304
0.977601
0.997414
0.997089
0.997684
0.996061
0.99125
0.986875
0.999517
0.99895
0.995602
0.989697
0.997202
0.999966
0.998257
0.997839
0.992618
0.996611
0.992682
0.99841
0.996921
1
0.999108
0.996306
0.98123
0.978024
1
0.997174
0.998241
0.995193
0.99188
0.991714
0.998218
0.992369
0.996812
0.989305
0.995887
1
0.998407
0.998042
0.997894
0.99574
0.993542
0.996394
0.996812
1
0.999754
0.997526
0.982997
0.971341
0.999038
0.997521
0.997461
0.998231
0.99664
0.990709
0.998702
0.99468
0.996811
0.991711
0.99346
0.999223
0.9997
0.999358
0.99844
0.997509
0.994148
0.994533
0.998241
0.99902
0.998688
0.997596
0.984525
0.966469
0.999128
0.996552
0.998177
0.994225
0.991739
0.984048
0.997373
0.99825
1
0.991881
0.997708
0.997061
0.996755
1
0.991904
0.997793
0.990877
0.990966
1
0.99804
0.996308
0.998997
0.981141
0.967587
0.999699
0.997335
0.997615
0.99309
0.991599
0.986915
0.999124
0.9972
1
0.996192
0.99056
0.997264
0.998228
0.999021
0.992328
0.998499
0.991345
0.996937
1
0.999358
0.998265
0.998889
0.981343
0.966383
0.999128
0.995756
0.997777
0.998064
0.99391
0.994192
0.99849
0.99391
0.997911
0.998488
0.999764
0.997095
0.997116
0.998447
0.995689
0.997268
0.993526
0.992868
0.997691
0.99902
0.99835
0.998873
0.979584
0.956532
0.998046
0.995655
0.997967
0.993858
0.99923
0.988386
0.996014
0.994049
1
0.995912
1
1
0.999099
0.996049
0.989844
0.996918
0.995033
0.996589
1
0.99902
0.99915
0.999013
0.981181
0.970165
0.994288
0.996289
0.997999
0.995126
0.99013
0.991676
0.999698
0.99797
1
0.992161
0.99882
0.99902
0.999009
0.99588
0.997562
0.99498
0.99183
0.997907
0.996921
0.99902
0.998369
0.998691
0.977424
0.959918
0.997956
0.994327
0.997566
0.996161
0.98852
0.9849
0.997947
1
1
0.995184
0.998719
0.998379
0.996936
0.996353
0.998634
0.997644
0.993518
0.992171
1
1
0.998654
0.997584
0.975681
0.953751
0.998858
0.995615
0.998124
0.989251
0.99517
0.98947
0.998249
0.99279
1
0.993224
0.998112
0.999358
0.996816
0.996117
0.999004
0.996504
0.991798
0.996434
1
1
0.995704
0.998041
0.970197
0.954809
0.995641
0.996471
0.997587
0.992289
0.98565
0.995315
0.998248
0.99601
1
0.993448
0.998079
1
0.992461
0.994226
0.999535
0.994738
0.992852
0.997403
1
1
0.994192
0.99729
0.965799
0.960213
1
0.995147
0.996879
0.994125
0.986138
0.987996
0.998279
0.99594
1
0.997536
0.998955
0.997264
0.995014
0.997299
0.999023
0.995982
0.994354
0.997751
1
0.998682
0.996954
0.996051
0.963955
0.977867
0.997655
0.996645
0.996459
0.989017
0.978227
0.986602
0.999124
0.99356
0.998021
0.997312
0.996426
0.996116
0.996275
0.999021
0.99612
0.995759
0.992198
0.997519
1
0.999223
0.994454
0.995625
0.965358
0.977928
0.999128
0.997214
0.995982
0.985746
0.990199
0.987338
0.999124
0.9916
1
0.995127
0.997471
0.994425
0.999129
0.999662
0.996978
0.997356
0.994241
0.998876
1
0.994897
0.997361
0.997232
0.958609
0.98464
0.997745
0.997347
0.994498
0.982775
0.95869
0.99272
0.998218
0.98908
0.9989
0.997032
0.998247
0.99804
0.99384
0.998109
0.997783
0.996538
0.994948
0.996627
1
0.995302
0.997773
0.995524
0.952651
0.985245
0.997745
0.997371
0.994829
0.981106
0.981308
0.996592
0.996497
0.994609
1
1
0.998213
0.998041
0.995403
0.997468
0.998897
0.996082
0.994471
0.998604
1
0.996992
0.99855
0.994072
0.953911
0.981107
0.998136
0.997961
0.991522
0.987015
0.97795
0.992838
0.99553
0.993349
1
0.995128
0.999663
0.998041
0.998287
0.999021
0.999115
0.994681
0.992989
0.997751
1
0.999358
0.997727
0.99315
0.94463
0.975818
0.997595
0.996003
0.98963
0.983643
0.95807
0.993651
0.997071
0.98628
1
0.999888
0.999393
0.999797
0.998949
0.998042
0.996093
0.993065
0.992468
0.998876
1
0.997769
0.994115
0.990835
0.940021
0.986397
0.999699
0.995167
0.990839
0.987015
0.9671
0.995819
0.993781
0.99139
1
1
1
0.999831
0.997326
0.999021
0.99425
0.995448
0.990469
0.995116
1
0.999594
0.997561
0.989461
0.922179
0.98141
0.999128
0.995837
0.992974
0.976332
0.96738
0.994735
0.994927
0.985998
1
0.99832
0.998382
0.99902
0.999429
0.997704
0.996467
0.995042
0.992961
0.999109
1
0.999358
0.997292
0.988539
0.910964
0.981712
0.999128
0.996314
0.99246
0.973829
0.9475
0.984824
0.9875
0.983338
0.998901
1
1
1
0.9997
1
0.998047
0.99663
0.994544
0.99814
1
0.999392
0.990873
0.992624
0.883706
0.984977
0.99988
0.998026
0.991466
0.971592
0.95562
0.988348
0.991909
0.98572
1
0.998376
0.997708
0.99902
0.997717
0.996117
0.997883
0.995376
0.99555
0.996783
1
1
0.991207
0.992798
0.866249
0.988483
0.998256
0.998042
0.991058
0.942383
0.95268
0.990671
0.992845
0.98138
1
0.998376
0.998382
1
0.999189
0.999662
0.999226
0.997778
0.997048
0.997906
1
0.99902
0.999046
0.994169
0.845287
0.989087
0.999128
0.996576
0.988458
0.922422
0.954064
0.992297
0.994385
0.98971
1
1
0.998382
0.99902
0.9997
0.998818
0.998569
0.998031
0.997521
0.999612
1
0.999662
0.997815
0.995234
0.839664
0.97645
1
0.996653
0.991454
0.874042
0.95645
0.991716
0.995924
0.967929
1
0.998432
0.998045
0.998683
1
0.999223
0.999451
0.998231
0.995313
0.998837
1
1
0.99835
0.991967
0.836731
0.97153
1
0.996467
0.983996
0.80706
0.949734
0.995161
0.996346
0.963168
1
1
0.999022
1
1
1
0.999183
0.997901
0.996911
0.999923
1
0.99902
0.998734
0.996027
0.834503
0.940123
1
0.996644
0.984833
0.727417
0.934878
0.997793
0.992389
0.979276
1
0.997816
0.998044
0.998378
0.999129
0.996081
0.999079
0.998451
0.996777
0.997759
1
1
0.998606
0.997417
0.843799
0.89618
1
0.997774
0.98442
0.667171
0.921393
0.999729
0.989763
0.938823
1
0.998376
0.999359
0.999019
0.998827
0.99902
0.998343
0.998984
0.998109
0.998474
1
0.999357
0.998649
0.997088
0.915493
0.832786
1
0.997327
0.984459
0.659978
0.866853
0.99605
0.993477
0.956525
0.996812
1
0.996086
0.998679
0.996647
0.998682
0.998324
0.998305
0.999156
0.993848
1
0.999662
0.999107
0.997062
0.978452
0.828058
1
0.99982
0.996413
0.98602
0.625002
0.831906
0.997754
0.997463
0.927284
1
0.998936
1
0.999085
0.995429
0.997702
0.996422
0.990981
0.996889
0.998804
0.989141
1
1
0.997388
0.991782
0.987406
0.994592
0.755657
1
0.996433
0.988093
0.710341
0.780083
0.999032
0.994444
0.917828
0.996812
1
0.99784
0.996785
0.994231
1
0.996807
0.986018
0.990098
0.996218
0.973785
0.996811
0.999831
0.996836
0.976095
0.979735
0.995661
0.996054
0.995668
0.994154
0.985682
0.835947
0.653234
0.908015
0.997135
0.994655
0.881243
1
0.996752
0.998245
0.997328
0.993402
0.99456
0.996718
0.982925
0.967761
0.984933
0.982045
1
0.999662
0.996249
0.938216
0.942171
0.991952
0.901091
0.998256
0.993349
0.98456
0.85529
0.547195
0.996593
0.993173
0.879941
0.991754
0.997928
0.997437
0.995232
0.992241
0.997906
0.996224
0.974682
0.964818
0.919095
0.997691
0.997362
0.99415
0.888664
0.905271
0.905563
1
0.997444
0.984721
0.981356
0.862282
0.470327
0.996632
0.992117
0.897839
0.993625
0.988689
0.995347
0.996823
0.985437
0.99767
0.995792
0.943201
0.986321
0.875816
0.994942
0.997769
0.973008
0.815755
0.927177
0.858278
0.988936
0.947512
0.984333
0.852752
0.486097
0.989354
0.994655
0.888868
0.993624
0.976484
0.991572
0.991994
0.989549
0.992773
0.985694
0.912872
0.993944
0.8667
0.9989
0.999054
0.91609
0.822838
0.949738
0.823475
0.968916
0.957208
0.98958
0.820712
0.562606
0.990013
0.989433
0.94594
0.959761
0.900151
0.97671
0.980851
0.986963
0.991897
0.939115
0.886988
0.994773
0.846819
0.979108
0.992769
0.879544
0.906966
0.951458
0.80075
0.867756
0.968523
0.990863
0.835998
0.6266
0.988347
0.99221
0.949447
0.913916
0.862485
0.96279
0.931293
0.964802
0.990049
0.887837
0.882343
0.994016
0.824431
0.791981
0.996085
0.885169
0.976568
0.945186
0.751245
0.960336
0.957221
0.988837
0.818807
0.664543
0.972514
0.99221
0.946706
0.99374
0.994245
0.965097
0.977402
0.90096
0.967488
0.857274
0.911006
0.982443
0.816362
0.991323
0.986249
0.915597
0.99619
0.94636
0.78851
0.995389
0.897132
0.983101
0.737573
0.65154
0.901864
0.978415
0.945952
1
0.99978
0.999249
0.999215
0.998594
0.988124
0.869671
0.900659
0.890526
0.582122
0.996838
0.994343
0.934396
0.99753
0.896573
0.727787
0.998858
0.907884
0.970807
0.799018
0.552405
0.998894
0.690687
0.968755
1
1
0.999485
1
1
0.999
0.982051
0.815295
0.560389
0.516213
1
1
0.926366
0.980602
0.947583
0.460239
1
0.954349
0.974486
0.683696
0.442043
1
0.816096
0.683392
1
1
1
1
1
1
1
1
1
1
1
1
1
0.994767
0.853808
0.937166
0.999255
1
0.967488
0.694634
0.777944
1
1
0.949109
0.583534
0.657989
0.561563
0.587908
0.670034
0.596709
0.569417
0.54469
0.590728
0.590395
0.562451
0.561112
0.567958
0.543012
0.558906
0.587246
0.569557
0.564262
0.545124
0.555604
0.542615
0.528047
0.508138
0.510885
0.517622
0.522123
0.587045
0.650699
0.578771
0.558294
0.573412
0.560689
0.56623
0.554375
0.544275
0.542334
0.502932
0.503195
0.529136
0.498573
0.540953
0.523478
0.510367
0.54499
0.524514
0.527509
0.502112
0.512924
0.679277
0.589793
0.58606
0.577828
0.556107
0.545876
0.578156
0.540918
0.491404
0.54295
0.509749
0.483229
0.518973
0.493856
0.512055
0.546038
0.517011
0.517623
0.489349
0.500786
0.502512
0.498504
0.584878
0.554938
0.586422
0.562386
0.56823
0.53226
0.528193
0.545691
0.515171
0.537781
0.515796
0.521349
0.510848
0.501584
0.503842
0.488115
0.50876
0.485341
0.57728
0.551609
0.563685
0.591913
0.531514
0.517819
0.585751
0.503527
0.972168
0.993841
0.996699
0.985699
0.990352
0.995863
0.992601
0.999207
0.988878
0.98121
0.990878
0.997402
0.993898
0.981233
0.997486
0.990943
0.997676
0.969581
0.976872
0.974117
0.986024
0.98722
0.988513
0.99404
0.963942
0.960868
0.959319
0.994718
0.998852
0.984796
0.993639
0.976464
0.98838
0.983646
0.995209
0.989778
0.997966
1
0.997456
0.953732
0.975499
0.991029
0.988358
0.997135
0.988727
0.993165
0.993848
0.99721
0.99316
0.979553
0.947812
0.988441
0.996393
0.993692
0.988986
0.99868
0.988858
0.978231
0.981977
0.995004
0.991967
0.976577
0.993585
0.945582
0.956347
0.962261
0.990174
0.990575
0.992249
0.984359
0.993336
0.972229
0.962428
0.963437
0.99159
0.983913
0.991804
0.987702
0.960178
0.982329
0.995437
0.991834
0.990671
0.988438
0.990206
0.994487
0.997963
0.991863
0.998993
0.992615
0.997808
0.998463
0.996402
0.998159
1
0.997931
0.998866
0.996161
1
0.990544
0.992177
0.979883
0.993617
0.997768
0.974024
0.978767
0.991215
0.996619
0.995812
0.997395
0.996093
0.994596
0.992388
0.99224
0.991199
0.9949
0.989206
0.993667
1
0.995826
0.996257
1
0.997606
0.989047
0.994959
0.987595
0.987131
0.996847
0.998935
0.996759
0.99685
0.998285
0.999622
0.985847
0.985952
0.981415
0.989134
0.983421
0.990399
0.994482
0.996286
0.99162
0.990342
0.992443
0.995819
0.992165
0.986897
0.994931
0.996194
0.991545
0.996207
0.987494
0.990744
0.989703
0.983917
0.975086
0.974436
0.991345
0.994858
0.970149
0.982075
0.987301
0.992681
0.995822
0.989453
0.992258
0.997938
0.987616
0.99282
0.987911
0.994639
0.992185
0.997215
0.993744
0.995567
0.998071
0.998952
0.998889
0.996927
0.997829
0.998882
0.998273
0.997984
0.993514
0.992918
0.988755
0.992045
0.992178
0.974162
0.983682
0.990493
0.99108
0.992378
0.993402
0.9929
0.997072
0.997311
0.998531
0.997261
0.995841
1
0.994406
0.999562
0.997484
0.997802
0.993304
0.996594
0.984637
0.989378
0.993505
0.978689
0.985486
0.999131
0.994441
0.997914
0.998251
0.996297
0.980302
0.989357
0.984976
0.989892
0.987513
1
0.995411
0.998937
0.990202
0.991942
0.993573
0.994938
0.992936
0.991147
0.98667
0.990103
0.99597
0.991158
0.986973
0.987076
0.98822
0.982468
0.97732
0.975369
0.98998
0.975418
0.973005
0.985479
0.986629
0.997464
0.990168
0.992199
0.99629
0.997041
0.988056
0.996588
0.996655
0.997472
0.997681
0.993381
0.99934
0.995513
0.991769
0.998851
0.997371
1
0.997215
0.995704
0.998676
0.997699
0.994572
0.991922
0.980034
0.986236
0.990995
0.987907
0.985363
0.989938
0.995615
0.994439
0.996291
0.998942
0.99994
0.988975
0.999209
0.992966
0.98896
0.980913
0.99513
0.995604
0.996282
0.997601
0.994723
0.998214
0.980357
0.985575
0.981908
0.986
0.973196
0.998821
0.998453
0.996812
0.999697
0.998878
0.990318
0.989021
0.978862
0.978026
0.984763
0.994494
0.99993
0.997768
0.992751
0.983352
0.9869
0.997431
0.984535
0.987051
0.978938
0.992619
0.989942
0.995521
0.990765
0.996226
0.988402
0.984521
0.980423
0.981811
0.987303
0.991553
0.973831
0.989732
0.97871
0.994386
0.990566
0.996286
0.998876
0.987271
0.994747
0.995261
0.994075
0.993623
0.996634
0.980441
0.990434
0.996285
0.992459
0.997395
0.996205
0.991754
0.996788
0.998721
0.995953
0.997906
0.999303
0.996517
0.991524
0.994966
0.993788
0.978942
0.983283
0.994905
0.998307
0.990034
0.996557
0.985813
0.995265
0.986832
0.994541
0.989007
0.994456
0.988625
0.994002
0.995712
0.999122
0.995433
0.995712
0.991793
0.981664
0.973255
0.991477
0.990726
0.953494
0.999425
0.996748
0.991643
0.998849
0.999535
0.983654
0.985121
0.979848
0.956766
0.986933
0.99728
0.997628
0.991826
0.991226
0.986259
0.996061
0.99393
0.996794
0.990191
0.982778
0.99058
0.991563
0.995958
0.989413
0.995448
0.988519
0.994755
0.975583
0.979989
0.986773
0.978818
0.975568
0.992748
0.985293
0.997751
0.992538
0.991724
0.994452
0.996049
0.995933
0.981946
0.979087
0.99934
0.994117
0.998152
0.993623
0.995935
0.992973
0.998363
0.997985
0.996812
0.999121
0.998876
0.997557
0.995954
0.997701
0.994775
0.990292
0.996931
0.993162
0.985717
0.984627
0.991387
0.995831
0.984018
0.995152
0.994775
0.997976
0.993395
0.995109
0.996209
0.991318
0.987406
0.992607
1
0.990641
0.996245
0.99989
0.997365
0.955613
0.984862
0.841295
0.992702
0.997167
0.986482
0.991761
0.4689
0.507837
0.397963
0.999137
0.974868
0.993183
0.924893
0.998667
0.998064
1
0.999667
0.998141
0.839788
0.983709
0.951492
0.979788
0.993854
0.979716
0.998493
0.384813
0.681133
0.470183
0.992829
0.910146
0.998833
0.965955
0.994001
1
0.997328
0.989987
0.989343
0.994436
0.997425
0.994656
0.992037
0.992978
0.995929
0.987198
0.998978
0.986853
0.996296
0.99823
0.984061
0.973762
0.986496
0.989699
0.994073
0.981917
0.992143
0.992537
0.996585
0.990672
0.993324
0.996778
0.999122
0.993905
0.981806
0.986337
0.995712
0.990632
0.999818
0.994723
0.958812
0.994155
0.996303
0.997405
0.992305
0.994364
0.997019
0.99791
1
0.996586
0.9938
0.987563
0.992996
0.998143
0.985156
0.984835
0.991863
0.995244
0.991669
0.997944
0.993256
0.99477
0.986961
0.998686
0.9967
0.995701
1
0.991404
1
1
1
1
1
0.998877
0.996921
0.998243
0.998877
0.996811
0.998243
0.998678
0.988193
0.995924
0.987847
0.996999
0.982089
0.993209
1
1
1
1
1
1
1
0.998758
0.996243
1
0.999364
0.999923
0.99227
0.981787
1
0.989732
0.994535
0.980576
0.992982
1
0.99857
1
1
1
0.999689
1
0.997977
0.995954
0.996139
0.994825
0.992098
0.997955
0.996039
0.994093
0.993127
0.981855
0.993625
0.987452
0.995416
0.991036
0.994797
0.991726
1
0.983361
0.999313
1
1
1
0.991464
0.991884
0.997915
0.99144
0.985596
0.994471
0.991769
0.999379
0.997915
0.993024
0.995927
0.998573
0.997975
0.993378
0.985082
0.993623
0.984864
0.995124
0.991534
0.988387
0.999031
0.995303
0.996438
0.996812
1
0.999613
0.994228
0.999234
0.988366
0.990874
0.992358
0.988495
0.996156
0.990534
0.985795
0.991505
0.997589
0.985245
0.995285
0.995155
0.998256
0.992064
0.999057
0.991384
0.994991
1
0.991395
1
1
1
1
1
0.998916
1
0.998243
0.996594
1
0.993881
0.99753
0.988534
0.993175
0.988368
0.996586
0.990725
0.995289
1
1
1
1
1
1
1
0.99997
0.997366
1
0.997364
0.996321
0.994798
0.978999
0.99771
0.989431
0.993672
0.983829
0.999133
1
0.999001
1
1
1
1
1
1
0.997279
0.995346
0.997356
0.996367
0.998496
0.994324
0.99505
0.989857
0.990661
0.995438
0.994001
0.999049
0.994135
0.999117
0.996856
1
0.98202
1
1
1
1
0.989155
0.992653
0.993897
0.996817
0.981724
0.993353
0.993635
0.997673
0.996818
0.994625
0.99806
0.993526
0.996016
0.991426
0.996096
0.993623
0.982078
0.996456
0.992303
0.981111
0.994124
0.994788
0.998877
0.995163
0.992242
0.997327
0.996028
0.999163
0.986833
0.993312
0.985196
0.991774
0.995342
0.98835
0.994127
0.991804
0.995896
0.987546
0.997074
0.995901
0.997348
0.994151
0.997098
0.997381
0.994967
0.993559
0.989936
0.998241
0.995608
0.986917
0.981526
0.974767
0.997413
0.990838
0.993654
0.991587
0.999935
0.992754
0.996516
1
1
1
1
1
1
1
0.998242
0.997715
0.996811
0.997333
0.999303
0.994047
0.977929
0.997825
0.984624
0.995749
0.986053
0.996228
1
1
1
1
1
1
1
0.989884
0.99128
0.99561
0.993362
0.99131
0.992752
0.998383
0.99505
0.995035
0.995545
0.996151
0.998401
0.997064
0.993121
0.996334
0.996418
0.983308
0.992653
0.977051
0.994924
0.990671
0.976729
0.990695
0.990452
0.997633
0.999781
0.994081
0.997595
0.992648
0.992575
0.99526
0.988778
0.989774
0.98715
0.984039
0.986146
0.986842
0.983072
0.989152
0.997521
0.996922
0.992729
0.998877
0.996931
0.999303
0.979032
0.984466
0.987775
0.99553
0.998437
0.989079
0.990772
0.993355
0.998795
0.980476
0.999502
0.991898
0.997835
0.980171
0.995965
0.992807
0.998001
0.995448
0.982853
0.986144
0.974556
0.991291
0.984056
0.982705
0.990745
0.991909
0.997463
0.992877
0.993014
0.995637
0.997754
1
0.997243
0.99938
0.989427
0.988464
0.990301
0.994456
0.975978
0.992396
0.985839
0.996469
0.9901
0.992159
0.99558
0.99492
0.984588
0.994763
0.988962
0.998201
0.994136
0.998694
0.990761
0.996774
0.996838
0.987292
0.990275
0.986077
0.993686
0.996817
0.987688
0.989096
0.986171
0.996627
0.994623
0.994444
0.999031
0.993635
0.998039
0.991985
0.997979
0.991533
0.990325
0.990855
1
0.994273
0.995488
0.994154
0.99671
0.989445
0.993609
0.996633
0.989055
0.99052
0.995821
0.992059
0.992031
0.997795
0.997038
0.994456
0.992391
0.996812
0.994662
0.991294
0.997131
0.994704
0.989307
0.982478
0.999045
0.994287
0.993728
0.992045
0.996594
0.977678
0.997092
0.993807
0.99989
0.997123
0.994082
0.99673
0.991708
0.996249
0.993077
0.99794
0.997754
0.996811
0.998758
0.986021
0.996841
0.983588
0.992293
0.990559
0.981811
0.98263
0.993094
0.993864
0.983519
0.99225
0.990348
0.992744
0.99505
0.993401
0.991732
0.995773
0.995821
0.995294
0.992381
0.996291
0.994691
0.985613
0.989435
0.990135
0.992449
0.988476
0.988153
0.995319
0.990342
0.997521
0.996708
0.995199
0.997637
0.993745
0.99783
0.9908
0.979928
0.996811
0.998568
0.997093
0.990434
0.98576
0.995882
0.996153
0.999071
0.9989
0.994488
0.999768
0.989892
0.990031
0.988716
0.993244
0.993081
0.995471
0.994761
0.982976
0.984424
0.993475
0.995379
0.993147
0.998057
0.995042
0.99216
0.995562
0.998485
0.996461
0.992385
0.997902
0.992143
1
0.997395
0.992143
1
0.997335
0.997127
0.99131
0.994459
0.994131
0.989438
0.998546
0.991249
1
0.996486
0.992255
0.995714
0.978142
0.99184
0.995714
0.982121
0.988281
0.982562
0.993734
0.993813
0.990586
0.996272
0.999044
0.991226
0.993583
0.993721
0.997599
0.995086
0.995494
0.995914
0.999392
0.991807
0.982297
0.993004
0.99993
0.991392
0.987927
0.986488
0.991725
0.978817
0.998838
0.996817
0.996467
0.998916
0.992537
0.99867
0.974004
0.979022
1
0.990094
0.991915
0.984056
0.993654
0.995519
0.997335
0.998916
0.998131
0.998516
0.997097
0.989752
0.989752
0.996796
0.992059
0.991194
0.994429
0.995087
0.985608
0.978883
0.987159
0.994208
0.993482
0.996178
0.998124
0.996846
0.995111
0.997825
0.999153
0.995943
0.99993
0.99582
0.993622
0.996487
0.995046
0.996921
0.996729
0.994221
0.995709
0.995465
0.994553
0.996809
0.994486
0.989545
0.996811
0.997546
0.998412
0.990547
0.984864
0.989721
0.989778
0.977352
0.994559
0.992955
0.99568
0.989988
0.991403
0.993927
0.994922
0.993757
0.99101
0.988287
0.993463
0.988245
0.996762
0.994997
0.99395
0.992088
0.992999
0.994683
0.991815
0.987859
0.992976
0.988695
0.988704
0.996817
0.997754
0.997476
0.998249
0.998877
0.993635
0.99923
0.980416
0.985992
0.997911
0.994505
0.994731
0.990434
0.994351
0.995882
0.997668
0.999961
0.993623
0.996214
0.996594
0.997978
0.997978
0.99791
0.99589
0.981249
0.989692
0.995412
0.982808
0.978703
0.98856
0.992972
0.997808
0.999077
0.993858
0.99303
0.993537
0.998517
0.997943
0.991885
0.998881
0.997523
0.99989
0.997365
0.994659
0.993623
0.997335
0.995945
0.996809
0.991781
0.996913
0.989328
0.987125
0.995857
0.998131
0.992608
0.996592
0.992307
0.983933
0.984702
0.995164
0.983855
1
0.989816
0.997494
0.992013
0.997972
0.994889
0.993141
0.995107
0.995732
0.994784
0.988598
0.992201
0.998364
0.991946
0.995074
0.990675
0.974025
0.995103
0.993843
0.990335
0.984086
0.989934
0.98499
0.987708
0.998877
0.996708
0.993025
0.998877
0.996927
0.994609
0.984598
0.991219
0.990544
0.991487
0.999031
0.996811
0.990443
0.995216
0.996123
0.99911
1
0.996305
0.990091
0.988148
0.995399
0.983144
0.989134
0.976097
0.988768
0.994469
0.979168
0.983646
0.988083
0.993655
0.996628
0.997067
0.996248
0.998678
0.995673
0.998781
0.993828
0.993914
0.99993
0.99791
1
0.996517
0.996285
1
1
0.99652
0.986138
0.995503
0.997095
0.994279
0.998334
0.996554
0.996372
0.99694
0.998374
0.993516
0.986798
0.984642
0.980218
0.988772
0.994908
0.992746
0.997494
0.98982
0.992523
0.996302
0.995746
0.997244
0.990041
0.990787
0.992703
0.98621
0.999332
0.986486
0.998358
0.988753
0.992509
0.991395
0.987337
0.995591
0.984744
0.983778
0.987164
0.992537
0.997482
0.990452
0.995501
0.997599
0.992976
0.99755
0.979789
0.995331
0.996811
0.994544
0.997366
1
0.995898
0.99673
0.996244
0.999961
0.99912
0.993882
0.993342
1
1
0.983492
0.988298
0.984275
0.995174
0.995705
0.977264
0.980501
0.982363
0.992093
0.99837
0.998847
0.999758
0.994833
0.996741
0.999011
0.997549
0.989366
0.991955
0.994079
1
0.998365
0.996555
1
0.996517
0.995763
0.992629
0.990153
0.994916
0.994609
0.998485
0.993959
1
0.999121
0.998529
0.978459
0.981338
0.987998
0.979888
0.984978
0.997349
0.997419
0.9969
0.99775
0.991494
0.996903
0.995548
0.996738
0.99216
0.989781
0.994922
0.994235
0.997796
0.987493
0.997142
0.989601
0.983757
0.990136
0.971736
0.992782
0.993634
0.989818
0.993778
0.980793
0.998141
0.993635
0.99384
0.996824
0.993744
0.995939
0.98439
0.9793
1
0.995821
0.999697
1
0.993654
0.997335
0.998364
0.998297
0.993624
0.998183
0.997445
0.995258
0.997909
0.993871
0.992129
0.987602
0.989603
0.996487
0.984823
0.987178
0.992909
0.994533
0.995054
0.998089
0.997428
0.998828
0.998314
0.999967
0.997459
0.993633
0.98685
0.990944
1
0.993883
0.993265
1
0.994397
0.99422
1
0.992791
0.994977
0.987019
0.995244
0.99516
1
0.999121
0.995004
0.974831
0.979322
0.98682
0.971867
0.985561
0.997977
1
0.997956
0.992407
0.993069
0.996813
0.994723
0.998032
0.99113
0.993837
0.995165
0.990447
0.993556
0.996523
0.9917
0.990281
0.98467
0.983698
0.989996
0.983963
0.977826
0.982229
0.982815
0.983869
0.994615
0.99045
0.996316
0.996631
0.981127
0.99461
0.970034
0.964942
0.995712
0.989516
0.995641
0.991532
0.986881
0.992096
0.997123
0.996478
1
0.997758
0.998374
0.994702
0.997978
0.979175
0.986626
0.990566
0.988353
0.994014
0.984935
0.992242
0.987217
0.995314
0.99275
0.998748
0.995098
0.995704
0.993145
0.997462
0.997368
0.993563
0.997972
0.986494
0.993624
0.978562
0.985872
0.990432
0.987702
0.992343
0.986577
0.992752
0.990801
0.990429
1
0.99787
0.993732
0.996425
0.997444
0.977579
0.986526