/*--------------------------------*- C++ -*----------------------------------*\
| =========                 |                                                 |
| \\      /  F ield         | OpenFOAM: The Open Source CFD Toolbox           |
|  \\    /   O peration     | Version:  5.x                                   |
|   \\  /    A nd           | Web:      www.OpenFOAM.org                      |
|    \\/     M anipulation  |                                                 |
\*---------------------------------------------------------------------------*/
FoamFile
{
    version     2.0;
    format      ascii;
    class       volScalarField;
    location    "4.45";
    object      p;
}
// * * * * * * * * * * * * * * * * * * * * * * * * * * * * * * * * * * * * * //

dimensions      [0 2 -2 0 0 0 0];

internalField   nonuniform List<scalar> 
10571
(
82.6392
152.423
121.36
111.873
87.0263
182.074
128.895
128.822
98.4516
78.7437
217.522
202.055
154.418
139.261
93.4364
78.8922
206.453
151.413
139.928
81.1338
88.3612
115.936
99.3516
87.9602
73.4062
70.25
68.219
68.1089
72.9336
78.8145
85.9124
70.1832
75.7372
75.0371
94.4221
96.6574
81.467
68.4958
74.2085
75.3253
108.078
84.1921
74.7994
77.3636
75.1865
95.8467
92.3832
85.0881
69.489
68.0811
69.5607
69.1404
70.2339
67.3611
66.5552
66.9347
73.3617
73.2942
71.5327
66.1476
66.2616
67.8327
72.5192
73.827
74.4882
75.966
74.8126
74.7495
74.5048
85.0007
81.2641
75.1768
64.7354
65.2216
65.3671
64.9779
65.4914
62.8344
63.7252
65.1431
66.8454
71.1584
64.307
62.5267
62.8435
65.3018
69.0674
71.6809
62.6354
71.7726
72.4322
71.0219
71.7699
70.8822
72.2078
70.4644
60.4729
62.1583
61.7577
61.6685
61.7819
59.7372
60.1268
60.8392
60.5249
65.1634
59.0418
58.8057
58.6349
61.7506
65.992
68.1855
57.8122
59.9319
66.4272
68.6335
70.2501
61.8022
65.3777
66.7806
58.2227
59.0984
59.0844
58.4218
57.5872
56.9573
56.4617
56.887
56.5345
57.5694
53.157
55.8213
56.2645
55.1614
57.0655
61.3983
64.8894
54.8712
55.4703
53.108
58.208
69.3268
69.4896
56.4927
61.0593
60.9958
56.4906
55.9727
57.0619
56.0596
55.1715
54.28
54.005
54.371
53.7826
54.2393
52.4457
53.8807
54.5416
53.1036
52.7445
53.671
54.3671
52.3438
52.8966
50.3969
50.4336
53.9388
54.9824
52.3278
52.3354
52.9156
51.2537
54.8596
53.298
54.9465
54.5579
53.4827
52.1566
52.5941
52.7972
51.4205
52.4153
52.4366
51.6542
51.8217
52.0889
50.8117
50.5872
51.3983
52.0641
50.6737
49.765
49.6629
50.214
50.5825
52.0656
49.8855
49.8508
50.137
53.3148
51.2026
52.1222
53.3274
51.5877
50.5683
51.8378
51.9693
50.1262
50.7903
52.5161
50.1862
50.1191
51.5466
50.5962
50.6394
50.9803
52.0764
49.6169
49.4256
49.5363
49.9805
49.9112
49.3408
49.3506
49.6688
51.3007
49.1339
50.4146
52.9496
49.9073
50.234
51.8575
51.4319
49.1661
48.9712
49.5578
49.9462
51.4204
50.0633
49.7504
49.8916
49.3375
48.9513
48.9965
49.3632
49.3687
49.0492
48.9013
48.955
49.2765
48.3865
47.7997
50.348
48.6122
49.6896
49.1338
48.2467
47.9933
48.263
48.8832
50.8199
49.0015
48.3497
48.1186
48.4454
48.7097
47.7362
47.7692
47.3702
47.7243
48.4879
48.3324
48.1621
47.1077
47.8614
47.5461
46.533
47.665
47.1496
46.3238
46.5213
47.4861
48.0229
48.0686
47.0092
46.9277
47.5753
47.5704
48.078
47.6776
47.4058
47.4541
47.4844
47.734
47.8456
47.8363
47.767
47.6257
47.6857
47.6092
47.6513
47.7523
47.666
47.4697
47.4053
47.5415
47.8458
47.7442
47.4966
47.6874
47.8363
47.7374
47.9559
47.7464
47.6257
47.7166
47.5717
47.7906
47.7065
47.7349
47.7379
47.631
47.609
47.6215
47.5896
47.8223
47.5194
47.7235
47.7836
47.6289
47.8035
47.6648
47.5573
47.7241
47.8167
47.711
47.8758
47.6138
47.5422
47.6576
47.6354
47.8186
47.681
47.7307
47.7549
47.6297
47.5331
47.6452
47.5826
47.714
47.4607
47.5424
47.7143
47.5667
47.7744
47.5842
47.5549
47.5789
47.644
47.5663
47.7716
47.5368
47.5118
47.6122
47.5672
47.7945
47.6554
47.6986
47.72
47.6015
47.5338
47.549
47.5475
47.6748
47.4839
47.4459
47.6086
47.4906
47.69
47.5685
47.5084
47.49
47.5205
47.4414
47.6238
47.4517
47.4745
47.5766
47.4674
47.6965
47.6311
47.6283
47.6465
47.5025
47.4981
47.4541
47.4388
47.5835
47.5113
47.4315
47.4769
47.4126
47.59
47.5981
47.4903
47.3936
47.4164
47.3079
47.4609
47.5238
47.4008
47.4921
47.3514
47.5712
47.5015
47.5174
47.5269
47.3717
47.4156
47.3576
47.3255
47.4347
47.429
47.3049
47.3264
47.2849
47.461
47.5629
47.4162
47.215
47.2684
47.1533
47.324
47.4698
47.2408
47.337
47.1953
47.4241
47.3123
47.3423
47.3676
47.2504
47.2928
47.2331
47.2217
47.2901
47.2808
47.1554
47.2105
47.1504
47.3145
47.3262
47.2289
46.9878
47.0735
46.9862
47.1761
47.1151
46.9815
47.1299
47.0212
47.2681
47.0513
47.1149
47.1674
47.1126
47.1319
47.0903
47.0963
47.1471
47.0899
46.9687
47.0709
47.0062
47.1689
47.0307
46.9511
46.7735
46.8676
46.8015
47.023
46.6175
46.666
46.8913
46.8305
47.1015
46.7601
46.8723
46.9647
46.951
46.9573
46.9533
46.9436
46.992
46.8801
46.7573
46.8759
46.8254
47.0183
46.7252
46.6461
46.5518
46.7059
46.5996
46.8681
46.1245
46.3692
46.679
46.6364
46.9375
46.5593
46.6801
46.796
46.8058
46.8106
46.8035
46.8024
46.8475
46.6991
46.5803
46.6817
46.6627
46.8792
46.4733
46.3765
46.2919
46.5971
46.4267
46.7251
45.8608
46.1534
46.5383
46.4766
46.8042
46.3725
46.5521
46.661
46.6886
46.6996
46.7015
46.6646
46.734
46.5676
46.4683
46.4984
46.5842
46.7831
46.3256
46.2019
46.0253
46.5134
46.3382
46.6244
45.8616
46.0127
46.434
46.3735
46.7212
46.2556
46.4825
46.5631
46.6045
46.6279
46.5758
46.6298
46.6558
46.4894
46.3866
46.3687
46.5772
46.7341
46.2972
46.1526
45.8113
46.4103
46.305
46.5488
45.9909
45.9429
46.3218
46.3099
46.657
46.1943
46.4185
46.4994
46.5286
46.5954
46.4549
46.5236
46.6011
46.4694
46.3072
46.2744
46.5437
46.651
46.3502
46.2022
45.7035
46.2997
46.2937
46.4801
46.1826
45.9137
46.1941
46.2614
46.5945
46.2043
46.3718
46.4508
46.4938
46.601
46.475
46.4199
46.5033
46.4936
46.2892
46.2174
46.497
46.5551
46.4464
46.3005
45.6903
46.1902
46.2674
46.423
46.3364
45.9397
46.1004
46.2282
46.5338
46.3017
46.3563
46.4269
46.5241
46.6287
46.538
46.4321
46.4596
46.5411
46.3326
46.1757
46.445
46.4915
46.5524
46.4175
45.8159
46.0425
46.2256
46.3634
46.5148
46.1007
46.0438
46.2
46.4676
46.4684
46.4066
46.4394
46.4661
46.6591
46.5694
46.3332
46.4078
46.5921
46.4009
46.1315
46.2966
46.3917
46.646
46.5563
46.0668
45.8489
46.1677
46.2889
46.7385
46.4491
46.0354
46.2023
46.408
46.8125
46.5481
46.4933
46.422
46.6788
46.5524
46.2635
46.3653
46.6415
46.4703
46.0956
46.1227
46.3027
46.7138
46.6423
46.3072
45.7365
46.141
46.2511
46.884
46.8644
46.1314
46.27
46.4075
47.197
46.7446
46.594
46.4785
46.7183
46.5348
46.3684
46.4979
46.6963
46.5513
46.162
46.0688
46.3316
46.7659
46.707
46.4736
45.8565
46.239
46.331
46.9317
47.0564
46.2777
46.4191
46.4942
47.1994
46.8224
46.6799
46.7521
46.7943
46.685
46.7448
46.7906
46.7664
46.6563
46.3793
46.1592
46.4901
46.8193
46.7538
46.5817
46.1665
46.4279
46.4935
46.942
47.0357
46.4337
46.5559
46.6185
47.0966
46.8362
46.7695
46.9894
46.8784
46.8544
46.9994
47.0321
46.839
46.7601
46.5882
46.3065
46.6635
46.8779
46.7969
46.6876
46.4676
46.5519
46.6364
46.9426
46.9808
46.6817
46.6793
46.7417
47.0879
46.9131
46.9084
47.1532
46.936
46.9609
47.0598
47.1095
46.8951
46.8472
46.7417
46.3532
46.7616
46.9343
46.8401
46.7916
46.6113
46.6048
46.74
46.9427
46.9968
46.9937
46.7693
46.8428
47.1172
47.3733
47.1027
47.1114
46.9534
46.9776
47.0011
47.0517
46.9341
46.8904
46.8575
46.3704
46.8127
46.9728
46.8834
46.8591
46.6099
46.641
46.7824
46.9338
47.0457
47.1422
46.8505
46.8998
47.1337
47.3476
47.1832
46.8558
46.9433
46.8078
46.7624
46.8676
46.963
46.9172
46.9541
46.421
46.8835
46.983
46.9204
46.8834
46.5976
46.6522
46.8154
46.9117
47.0633
47.0772
46.906
46.9304
47.1348
47.3175
47.3382
46.598
46.9594
46.671
46.4949
46.7196
46.9851
46.9465
47.0231
46.4846
46.9221
46.9978
46.9427
46.917
46.5943
46.6023
46.8464
46.8931
47.0676
46.9663
46.9728
46.9424
47.1337
47.2666
47.3421
46.8183
47.054
46.8991
46.5413
46.6217
47.0322
46.9803
46.9555
46.4773
46.919
47.0294
46.9533
46.961
46.5814
46.6179
46.871
46.902
47.0834
46.9301
46.8814
46.951
47.1513
47.2117
47.2436
47.351
47.2037
46.9856
46.778
46.6976
47.1236
46.9015
46.861
46.5001
46.9322
47.086
46.949
47.0286
46.5983
46.687
46.9408
46.9504
47.1403
46.9767
46.7355
47.0196
47.2096
47.2214
47.1834
47.469
47.3787
46.9629
46.9265
46.8606
47.2652
46.872
46.8426
46.6001
46.9711
47.1619
46.9686
47.1558
46.7156
46.9861
47.0596
47.0391
47.2591
47.1459
47.0257
47.1757
47.3112
47.3312
47.2376
47.2099
47.5705
46.9592
46.8841
47.0163
47.4492
46.9492
46.8447
46.7868
47.0329
47.2204
46.9571
47.3109
47.0688
47.4486
47.3052
47.1375
47.4103
47.4603
47.8519
47.5983
47.4444
47.5219
47.592
47.232
47.7182
47.0581
47.0179
47.1595
47.5839
47.1228
47.1383
46.9944
47.221
47.2413
46.9189
47.4392
47.538
47.7986
47.6611
47.2661
47.5466
47.7236
48.0634
48.0075
47.5827
47.7114
47.8794
47.4831
47.8055
47.2377
47.051
47.3688
47.5303
47.389
47.5251
47.4284
47.4922
47.3506
47.1198
47.5519
47.8464
48.0858
48.0398
47.4232
47.6362
47.8577
48.0344
48.3504
47.6863
47.8357
47.9951
47.2852
47.7381
47.476
46.8604
47.2338
47.4003
47.6475
47.7848
47.8169
47.769
47.6959
47.4262
47.5897
47.9131
48.2657
48.182
47.5522
47.6669
47.9265
48.0754
48.2797
47.7339
47.8951
48.0242
47.3169
47.7106
47.6735
47.1316
47.0776
47.3693
47.6725
47.949
47.9882
47.7933
47.5284
47.4668
47.6393
47.8999
48.1803
48.251
47.5422
47.6706
47.9255
48.084
48.1943
47.7432
47.9021
48.0166
47.8236
47.6795
47.7358
47.5008
47.2563
47.3299
47.5627
47.9237
48.1016
47.8964
47.4119
47.387
47.6533
47.8992
48.0423
48.1263
47.5349
47.6784
47.8937
48.0452
48.1003
47.7466
47.8851
47.9909
48.0606
47.615
47.6601
47.5575
47.5318
47.197
47.3959
47.7288
48.0671
47.9257
47.3955
47.3359
47.6351
47.85
48.0077
48.0319
47.5598
47.7043
47.8599
47.9964
48.0222
47.7488
47.8667
47.9642
47.9569
47.5478
47.5475
47.4978
47.6377
47.1722
47.2287
47.591
47.8952
47.9264
47.4669
47.3588
47.5898
47.7922
47.983
47.9854
47.6021
47.72
47.833
47.962
47.9724
47.753
47.8467
47.9579
47.8118
47.5489
47.4346
47.4161
47.6253
47.2716
47.0259
47.5119
47.8355
47.8943
47.5796
47.4751
47.523
47.7417
47.9505
47.9572
47.6572
47.7195
47.8119
47.9338
47.9342
47.7567
47.8202
47.9115
47.6821
47.6547
47.4025
47.323
47.6873
47.5111
46.9207
47.4148
47.8805
47.8825
47.698
47.6107
47.4973
47.6747
47.9178
47.927
47.7047
47.7185
47.7911
47.8895
47.9006
47.7673
47.8
47.8708
47.6579
47.8751
47.4906
47.2812
47.7909
47.7029
47.0031
47.2529
47.8342
47.9116
47.8034
47.7043
47.5026
47.6482
47.8522
47.8891
47.7517
47.7406
47.7801
47.8437
47.8611
47.7885
47.7915
47.8476
47.6859
48.0358
47.678
47.2195
47.5983
47.8191
47.1602
47.1441
47.728
47.8374
47.884
47.7949
47.5961
47.6586
47.7783
47.8261
47.8058
47.7852
47.7822
47.8087
47.8201
47.8148
47.7971
47.8394
47.838
48.1983
48.1352
47.2107
47.397
47.9673
47.5123
47.1238
47.6271
47.7445
47.9317
47.8792
47.7722
47.6777
47.7366
47.7654
47.8543
47.8398
47.7954
47.7962
47.7884
47.8471
47.8128
47.838
48.2106
48.2741
48.2521
47.3251
47.1145
48.103
48.0409
47.2502
47.5588
47.6836
47.9415
47.9345
47.9607
47.6871
47.7112
47.7412
47.8908
47.8921
47.8167
47.7894
47.7772
47.8791
47.8327
47.836
48.289
48.1893
48.3102
47.6775
46.6916
48.0979
48.1969
47.4612
47.4989
47.6656
47.9303
47.9368
48.0111
47.7195
47.7059
47.7263
47.9138
47.9139
47.8311
47.784
47.7687
47.8968
47.8516
47.8405
47.7394
48.0021
47.9815
47.6647
46.5273
48.0082
48.0462
47.6433
47.5458
47.6676
47.9449
47.915
47.9153
47.7625
47.7023
47.7119
47.9348
47.9008
47.8319
47.7742
47.7479
47.9131
47.8654
47.837
47.6009
47.8732
47.7533
47.3801
47.2272
47.9288
47.8455
47.8727
47.6639
47.6862
48.0365
47.9498
47.8299
47.7843
47.6566
47.6618
47.9677
47.8864
47.8301
47.757
47.7152
47.951
47.8761
47.831
47.5288
47.8501
47.7118
47.4336
47.5778
47.89
47.7642
47.9664
47.6176
47.6156
48.0856
47.9699
47.7887
47.745
47.5813
47.5682
48.0127
47.8731
47.8112
47.7299
47.6693
47.9872
47.891
47.8195
47.6159
47.912
47.7716
47.6314
47.6402
47.9233
47.7847
47.8555
47.4079
47.4279
48.0872
47.9929
47.7825
47.7098
47.4292
47.4217
48.0508
47.8439
47.7645
47.6609
47.567
48.0113
47.894
47.7865
47.7701
48.0448
47.911
47.7754
47.571
48.0255
47.8636
47.7367
47.0859
47.051
48.1547
48.069
47.8373
47.6428
47.1989
47.0699
48.1059
47.8344
47.7015
47.5147
47.3347
48.0443
47.8915
47.7269
47.9035
48.2258
48.0833
47.8628
47.4271
48.1873
47.9777
47.6592
46.6562
46.4311
48.286
48.1955
47.936
47.5876
46.8582
46.3294
48.2025
47.8804
47.6458
47.2953
46.9222
48.1048
47.8989
47.6567
48.0402
48.4611
48.2797
47.9378
47.2762
48.406
48.1303
47.5813
46.1173
45.1633
48.4671
48.3682
48.0912
47.5172
46.3464
44.5457
48.3459
47.9972
47.6306
46.9995
46.1994
48.2096
47.9199
47.597
48.2824
48.778
48.5538
48.135
47.4119
48.6853
48.3703
47.6129
45.5046
42.8175
48.6953
48.5875
48.2816
47.4678
45.6994
40.8568
48.5305
48.1744
47.6795
46.7033
44.8596
48.3609
47.9999
47.6014
48.6986
49.1706
48.9501
48.5318
47.7709
49.0182
48.6999
47.7732
45.3393
37.2456
48.9608
48.84
48.5077
47.4384
45.321
36.5716
-30.5892
48.7421
48.4039
47.8155
46.5233
41.9757
48.5628
48.1567
47.7177
49.2653
49.6218
49.4461
49.0715
48.1821
49.3939
49.0771
48.0774
45.6117
30.1412
-1.06684
49.2474
49.104
48.7692
47.6594
45.524
35.9708
4.54616
48.9598
48.6509
48.0626
46.6095
37.9702
48.7896
48.3858
48.0477
49.6397
50.0346
49.8798
49.5496
48.879
49.7246
49.2703
48.3683
46.6133
34.163
8.2805
49.5235
49.329
48.8588
48.1566
46.4692
36.538
11.566
49.1515
48.854
48.4497
47.3852
40.0492
13.6017
48.9908
48.6259
48.521
50.0758
49.7014
49.4076
49.7998
49.6292
49.5643
49.1933
48.5357
47.6116
36.3967
8.32584
49.7886
49.4439
48.7049
48.3748
47.7334
38.9061
11.7407
49.2484
48.9003
48.8388
48.1639
44.5742
49.1139
48.8464
48.9571
50.0549
49.5164
49.392
49.6229
49.2911
49.5953
48.8667
48.3958
48.189
42.6936
50.0041
49.5326
48.5448
48.4288
48.3993
42.7828
-9.323
49.1335
48.8491
49.021
48.8164
49.01
49.1339
48.982
49.2247
49.6071
49.4015
49.2862
49.2085
49.2009
49.2697
48.4917
48.2801
48.7902
48.5299
49.3847
48.9298
48.2519
48.4692
48.9411
48.3584
48.5864
48.7681
49.0614
49.107
49.6062
49.0787
49.0179
49.3157
49.3076
49.2278
49.0452
48.8594
49.1907
48.9813
48.2759
48.2531
48.919
49.3428
48.7962
48.3287
48.1643
48.5757
49.1578
49.3566
48.0507
48.7337
49.0002
49.2054
49.6527
49.0414
49.0389
49.3261
49.2325
49.1578
48.9359
48.6908
49.2678
48.9082
48.4082
48.4547
49.165
49.5695
48.8995
48.6137
48.4582
48.7618
49.2928
49.5728
48.6801
48.8019
49.0448
49.3007
49.5782
49.117
49.1055
49.3506
49.3505
49.2056
48.9734
48.7189
49.3254
48.9582
48.6552
48.6697
49.3014
49.6993
49.1471
49.0019
48.7607
48.9729
49.4147
49.6631
49.4161
48.9464
49.1381
49.3651
49.5924
49.2115
49.2104
49.3972
49.5258
49.381
49.1077
48.9019
49.4076
49.111
48.8007
48.8358
49.4287
49.8262
49.2923
49.1441
48.9262
49.1104
49.5401
49.808
49.3397
49.0582
49.2256
49.4813
49.7305
49.1479
49.2876
49.4707
49.7775
49.6566
49.3258
49.1437
49.5937
49.3441
48.8469
48.9388
49.549
49.9498
49.474
49.2595
48.9546
49.1784
49.7034
49.9857
49.2961
49.0983
49.3188
49.6461
49.9503
49.1536
49.4049
49.6355
50.0421
49.9879
49.6152
49.414
49.8036
49.6103
49.0564
48.9871
49.4763
50.0956
49.7268
49.4391
48.9811
48.9781
49.5989
50.2005
49.3717
49.0285
49.1223
49.7755
50.215
49.1333
49.213
49.7409
50.292
50.107
49.8225
49.5805
49.9568
49.801
49.276
49.1027
49.6461
50.3147
49.9998
49.5996
49.0559
49.0438
49.8898
50.4085
49.5027
49.0439
49.2205
50.0447
50.5114
49.2053
49.2876
50.0372
158.704
125.207
138.373
134.089
118.671
132.512
123.194
125.148
229.548
195.748
170.443
209.709
157.17
146.048
136.379
141.753
139.967
134.6
133.77
154.21
146.383
145.531
150.327
143.848
150.367
150.053
247.744
237.793
243.451
210.214
160.575
216.311
178.384
138.467
147.631
146.891
154.464
153.225
135.034
152.36
129.261
126.088
118.509
120.397
110.974
136.255
111.969
113.086
227.331
228.992
264.915
209.795
185.258
226.078
174.33
165.28
164.587
161.76
161.499
183.733
152.556
168.078
184.943
127.12
111.119
146.975
110.96
117.528
106.625
113.506
294.774
292.53
194.7
289.894
256.941
160.193
156.53
175.792
151.415
148.962
162.298
144.537
142.34
119.923
128.072
113.762
122.138
118.937
239.76
190.29
152.107
139.78
132.099
121.284
127.914
109.797
99.2671
71.6102
83.2481
87.6094
92.6246
72.349
69.4094
72.0929
89.569
86.4132
74.3141
72.7928
72.4806
83.6604
72.7747
197.524
127.414
125.37
167.877
135.317
83.5421
74.6749
94.166
91.827
86.7157
97.8816
85.2572
71.9709
73.181
72.8325
73.687
85.0878
73.7295
220.343
219.946
223.914
150.643
156.109
149.531
78.4859
72.9175
73.523
74.5502
73.9885
220.01
215.182
172.163
172.901
143.124
72.6164
82.5909
73.6029
73.5132
73.8415
226.49
152.161
152.348
216.212
177.705
140.126
135.364
144.898
125.374
84.8459
82.9655
84.6082
77.7716
76.7986
83.5124
79.4393
75.5494
161.454
106.919
107.74
101.631
97.3963
97.2399
98.8386
92.6706
96.6652
96.689
94.9785
98.0872
90.3249
70.391
70.8158
72.9786
71.9199
72.5919
71.8808
72.1153
71.9456
72.5958
73.4263
71.3597
71.6898
72.4393
73.6354
72.3694
80.7618
69.682
69.0197
72.0306
70.3734
69.4898
70.0909
68.7462
67.7915
74.2164
72.4724
74.4639
72.2015
72.6141
72.7087
72.98
74.6513
73.3043
97.179
94.4727
90.5912
74.9161
74.3936
72.9577
75.3661
75.505
74.3611
74.9596
75.2214
90.2707
97.69
74.9792
73.7213
80.1501
75.2686
74.8822
74.96
74.537
74.9116
106.686
83.5223
118.476
110.788
104.132
86.4728
88.6637
89.7333
86.1589
76.2898
81.1409
77.6807
76.2664
75.4607
78.1663
76.3366
75.2436
96.1417
90.4127
95.4337
95.8801
92.6015
93.0053
91.7545
92.9177
93.3678
87.253
87.0448
87.7809
77.635
69.8186
68.1366
70.2335
70.9531
70.24
68.5071
69.3036
68.4073
69.6177
70.1288
67.2877
67.0439
67.246
70.141
67.5724
67.6298
66.0806
69.0038
67.2679
67.5576
66.7489
67.1862
65.9597
66.4603
70.8691
71.0904
71.5431
67.9596
68.8966
67.8689
69.8342
72.1812
71.2219
68.7622
69.6304
68.8607
65.6664
66.1533
65.8059
73.9259
74.2781
72.8129
73.5367
73.7321
70.7759
73.2225
67.333
67.8613
68.2091
73.7803
73.7841
72.8416
73.0576
72.6044
74.4134
68.8512
76.0741
77.3431
77.6293
67.8301
69.889
69.6483
71.3855
73.9418
75.4274
74.3832
73.003
72.2112
72.407
72.0332
73.2291
82.0093
74.2105
89.6849
88.4733
75.8116
84.3998
84.1327
78.2603
82.4079
76.1568
73.1742
76.5546
72.7048
65.7068
63.4193
66.3707
67.1007
66.4512
63.5606
64.2818
63.9239
64.4933
64.4121
62.2385
62.3682
62.1113
65.0567
62.9304
64.5106
62.7994
65.182
64.6101
65.1214
63.5534
63.5785
63.0937
63.7768
66.415
64.6676
67.4328
63.3494
64.0777
62.5497
64.8854
69.2613
67.2639
63.3002
63.3686
63.0618
61.3543
61.2092
60.8792
73.2893
73.4757
68.7422
70.5453
71.7911
64.7333
64.663
61.4348
61.3949
61.6169
72.3049
71.4625
70.1873
71.0507
70.4818
64.4409
60.8406
64.9035
64.302
66.7876
59.3928
60.4664
60.8145
61.7553
70.6771
69.6778
69.574
69.4888
69.7831
67.6547
67.861
70.705
68.4283
63.3257
76.0314
75.6467
65.547
68.2664
68.6483
70.6887
72.1714
68.3232
67.6427
68.6371
68.3133
61.7361
60.3822
61.1848
61.7528
61.4391
59.4736
59.7519
59.6176
60.6132
60.4553
59.1448
59.2341
59.2841
61.2247
59.5729
61.2451
59.9767
62.5276
61.5197
62.3359
60.7533
61.5045
60.1164
60.9873
61.6303
60.8134
61.7917
60.0248
58.9466
59.2581
58.9205
63.8746
59.7433
59.7789
59.3995
58.9791
58.3625
57.8461
57.3253
64.9961
65.3767
60.6232
60.7239
59.2538
58.6537
59.1001
57.3376
56.7633
57.2879
67.8064
69.5422
65.9448
61.1714
68.5779
57.8467
56.1507
56.3045
58.5745
57.5521
56.9183
54.598
57.2024
56.043
69.6539
66.1088
66.749
68.9635
69.9856
65.9921
66.8856
70.4568
58.9525
56.5354
63.6234
63.8387
59.0277
60.9631
61.1555
64.6871
65.312
63.3382
61.6922
63.0921
65.7675
59.5953
58.6082
58.2782
58.5739
58.3455
57.35
57.6978
57.34
58.1909
58.0348
57.4115
57.3338
56.9765
57.8037
56.5973
58.6484
56.8359
60.445
58.7669
59.5321
57.5507
59.1463
57.1408
57.4725
56.9309
57.7309
57.0439
55.9705
55.8084
56.163
55.7507
57.323
55.1551
56.8313
56.3898
56.0019
55.4884
55.2301
55.0001
55.6913
59.0796
57.5219
54.9932
53.7665
55.5546
54.5163
52.7565
53.5173
52.7699
52.4267
52.618
52.5947
52.4173
55.3827
55.7332
54.7721
54.402
54.6021
60.0875
67.5439
58.7101
60.3138
56.3658
64.376
56.8397
53.0193
54.7962
52.8497
53.6388
52.2812
53.5767
52.1032
55.0721
54.1011
54.0594
55.2496
55.0673
54.195
53.5864
54.117
54.1881
69.5234
64.5821
65.6815
66.542
67.3598
57.1994
61.37
64.823
54.9905
53.875
58.1054
58.543
54.1929
55.0938
55.4701
58.7955
60.5869
57.7397
55.8866
57.2471
54.3798
56.9866
55.125
56.4831
56.6827
56.4782
55.7675
55.9122
55.7258
56.4622
56.0951
55.6543
55.6043
55.2294
55.6873
54.7428
54.9464
53.4015
56.9417
55.1993
55.0105
54.4113
54.0281
53.4163
52.9331
54.8206
55.0853
54.672
54.3824
53.731
54.3028
53.3498
53.7732
52.8008
52.9476
52.607
52.5464
52.6377
52.5654
52.6323
54.3029
54.155
54.0567
53.2173
53.1068
53.102
52.9655
53.3057
53.0916
53.2877
52.4814
52.6938
52.2639
52.6579
52.368
52.5433
52.4658
52.6032
52.4183
52.5053
53.593
53.6946
52.7987
52.6103
52.4923
53.9666
59.2845
54.0089
51.1522
51.488
50.3507
51.3377
52.4086
52.0685
52.2759
52.0916
52.3082
52.0507
52.1041
53.0645
51.9226
52.7082
52.8599
52.9417
51.6949
51.6132
51.6869
51.7013
57.5622
50.9072
51.7082
50.2258
50.3988
50.3562
50.3154
52.3915
50.593
51.5972
52.3407
52.2719
52.3031
52.6991
51.534
52.2661
52.1819
50.7272
50.3502
50.2698
52.2043
52.2982
50.2891
50.2985
50.2264
50.4228
53.654
52.6541
55.1222
55.1724
55.0418
54.5861
54.1802
54.5273
54.8792
54.4023
54.1114
54.0814
53.5406
53.7969
52.9445
52.1156
50.9705
52.4769
52.046
51.8757
52.3117
51.7505
50.9601
51.1741
52.6384
53.1308
52.2169
52.5823
51.8299
51.9777
51.6514
52.5949
52.6012
52.0566
52.5742
52.6001
52.6293
52.6259
52.6143
52.1984
52.0768
52.0921
51.1687
51.0876
51.0451
52.1786
52.4218
52.0848
51.3841
52.0055
51.8389
51.8535
52.5708
52.3345
52.4913
52.4612
52.5792
52.2881
52.4843
51.5979
51.5584
50.7196
50.8125
50.8107
51.9204
50.7584
51.4661
51.3305
51.8415
50.7712
51.3102
52.298
51.8923
52.1214
52.0498
52.3118
51.9173
52.2644
50.9076
50.1676
50.4181
50.6065
50.7448
50.0021
49.7437
50.0056
50.1332
50.4991
50.3318
50.4776
50.094
50.4207
50.0879
50.2352
51.4374
50.2515
51.1942
52.1408
51.9081
52.3256
50.459
49.7692
49.7772
49.7912
49.4436
49.4831
49.5357
49.8937
49.8702
49.5591
49.6038
49.5781
49.9208
51.4356
50.4639
54.1349
52.6429
54.16
53.284
50.7217
53.3331
53.1057
52.6863
52.3326
52.0495
51.7539
52.0146
51.0883
50.1222
49.5599
51.1326
49.8109
50.6572
49.7846
50.4504
48.9921
50.3486
51.2408
51.2572
51.1253
50.6742
50.6715
50.6852
50.5237
51.3789
50.2603
50.2372
50.3019
50.2261
49.6706
49.7537
49.6986
51.9943
51.1845
51.6037
50.0067
51.3456
50.3483
50.7758
52.5949
52.2855
52.5619
52.4759
52.5898
52.2893
52.5617
50.2994
50.2468
49.9056
49.9973
49.8064
51.5731
50.36
51.1645
50.5051
50.8108
49.8523
50.4839
52.4177
51.8968
52.4256
52.1458
52.388
52.0163
52.4524
49.7472
49.5319
49.6427
49.641
49.7444
49.4548
49.709
49.5026
49.4899
50.2969
49.8212
49.9747
49.7683
50.0197
49.4385
49.675
49.7917
49.5112
49.3447
49.3688
49.3896
49.2348
49.22
49.2985
49.4124
49.3869
49.1367
49.1953
49.2326
49.352
49.2187
48.3616
51.9721
49.1939
51.952
49.9941
48.1048
49.775
51.0375
50.7813
50.5594
50.4484
50.0352
50.3005
49.672
49.306
49.1885
49.6861
49.018
50.2454
48.7325
48.6212
48.9522
50.4491
49.9849
50.1323
49.7938
49.2463
49.3789
49.4005
49.2076
49.5455
49.2497
49.3265
49.4461
49.4095
49.1034
49.3926
49.302
49.4517
49.2088
48.4675
48.7333
46.088
49.7007
49.3872
49.2813
49.3463
49.1376
49.573
48.8905
48.9909
46.5755
48.1181
49.3851
49.3214
49.8156
49.3102
49.1909
49.2096
50.0135
49.0137
48.7649
49.4386
48.8644
49.1084
48.4044
48.3641
48.2609
48.4963
48.4995
49.1361
48.9067
49.0105
49.0236
48.8121
48.7651
48.9024
48.9189
48.9497
48.643
48.6331
48.7344
48.5409
48.2067
48.0003
47.8499
47.8481
47.5981
47.1104
47.8875
47.1891
49.2102
49.1863
47.5419
47.5124
47.873
49.014
47.9911
48.7845
48.2252
47.9216
48.1567
49.1013
48.1109
47.8499
47.6964
47.3587
48.8664
48.5969
48.7833
48.0318
48.4344
47.9944
48.4463
48.9247
48.5922
48.5967
48.9417
48.879
48.1433
48.5962
48.1207
48.3661
47.4842
48.1402
48.1953
48.1196
48.8133
48.7849
48.5933
48.0864
48.3437
47.6979
47.7195
48.2146
48.1935
47.7895
49.0257
48.5458
49.6545
48.6126
48.1634
47.9102
47.9414
48.3173
47.7427
47.448
47.8898
47.9684
47.3781
47.401
47.7269
47.7768
47.6768
48.6311
48.2678
48.4717
48.5446
48.138
48.167
48.2382
48.3295
48.3883
48.05
48.052
48.101
47.9044
47.8182
47.7129
47.3145
47.783
47.4182
47.5402
47.6872
47.5607
47.0733
47.1999
47.4679
47.4486
47.3934
47.4545
47.5508
47.923
47.8248
47.7992
47.6715
47.4576
47.7254
47.722
47.6663
47.6822
48.1212
47.7051
48.1474
47.6336
47.9605
47.7609
47.956
48.2805
48.0599
47.9447
48.1295
47.8764
47.8489
47.8845
47.8606
48.0668
48.0041
47.9185
47.9588
47.8866
47.7791
48.1455
47.7786
47.7543
48.0064
48.0623
47.8673
47.9996
47.9635
47.9054
48.1828
47.9827
47.133
48.021
47.6606
47.7367
47.4098
47.8582
47.6576
47.5309
47.6455
47.7178
47.5264
47.5694
47.6454
47.7061
47.7786
47.9173
47.7548
47.8915
47.9765
47.7322
47.7584
47.8004
47.8443
47.8834
47.7415
47.7561
47.76
47.7277
47.6729
47.6586
47.6236
47.6551
47.6069
47.6288
47.6528
47.6164
47.6508
47.6297
47.64
47.6546
47.6858
47.7326
47.8004
47.7547
47.6872
47.679
47.6324
47.6682
47.6563
47.6598
47.5964
47.62
47.9505
47.8638
47.8874
47.8372
47.9922
47.8922
47.8723
47.9571
47.9311
47.7628
47.8333
47.8309
47.6741
47.7968
47.7739
47.8915
47.821
47.8093
47.8548
47.8009
47.7493
47.8881
47.7204
47.7108
47.7942
47.9322
47.8987
47.9169
47.9175
47.8779
47.8729
47.7844
47.5619
47.7998
47.6564
47.6883
47.5379
47.7385
47.6447
47.6021
47.7051
47.7386
47.6255
47.6431
47.7666
47.7793
47.8063
47.7181
47.6969
47.7256
47.7476
47.6967
47.7129
47.7315
47.7474
47.7377
47.7375
47.7481
47.7385
47.7542
47.6439
47.6271
47.6258
47.6609
47.6214
47.6273
47.6649
47.6256
47.6269
47.6618
47.629
47.6126
47.6346
47.7706
47.7279
47.6306
47.5984
47.6406
47.5605
47.5921
47.5597
47.614
47.5195
47.5619
47.999
47.8405
47.8583
47.7648
47.9585
47.7572
47.825
47.9172
47.8925
47.611
47.7353
47.703
47.5915
47.6638
47.6523
47.8262
47.773
47.7984
47.7897
47.7612
47.657
47.721
47.6117
47.6128
47.6669
47.8904
47.8517
47.8273
47.8529
47.8235
47.703
47.6383
47.5117
47.6748
47.619
47.5654
47.5003
47.6288
47.5865
47.6676
47.7883
47.7957
47.6127
47.6766
47.7759
47.7835
47.8241
47.6751
47.6482
47.698
47.7089
47.6704
47.6853
47.6822
47.7335
47.7276
47.7163
47.7083
47.709
47.7454
47.6017
47.5914
47.6293
47.6358
47.6237
47.6232
47.6075
47.611
47.6139
47.6266
47.6237
47.6129
47.6245
47.7013
47.6847
47.5841
47.5821
47.593
47.4901
47.5234
47.5318
47.5694
47.499
47.4939
47.8943
47.6938
47.7738
47.6911
47.8352
47.6527
47.716
47.8378
47.7756
47.5886
47.639
47.6412
47.5944
47.6591
47.6564
47.745
47.7353
47.735
47.697
47.7246
47.5889
47.6277
47.5724
47.5613
47.594
47.803
47.7754
47.7054
47.7463
47.7165
47.5942
47.5618
47.4824
47.5958
47.5601
47.4875
47.4584
47.5671
47.5609
47.6616
47.7428
47.7519
47.5166
47.6286
47.7059
47.7125
47.7573
47.6253
47.6101
47.676
47.6599
47.651
47.6701
47.6439
47.6813
47.6916
47.6713
47.6622
47.6632
47.687
47.5857
47.5674
47.596
47.5859
47.5837
47.5554
47.5491
47.5473
47.5932
47.6123
47.5604
47.5511
47.5814
47.6675
47.6368
47.6009
47.621
47.5517
47.5206
47.4858
47.5234
47.5301
47.5304
47.4956
47.7826
47.6246
47.6634
47.6416
47.7306
47.5848
47.6156
47.7132
47.6585
47.5933
47.6612
47.659
47.6175
47.6261
47.6321
47.6523
47.7007
47.6415
47.6033
47.6681
47.566
47.5738
47.5616
47.5834
47.5759
47.6725
47.6498
47.5366
47.6068
47.5881
47.539
47.5342
47.4468
47.547
47.547
47.4515
47.4445
47.4998
47.5168
47.5856
47.6591
47.6654
47.4132
47.5373
47.5964
47.6121
47.6412
47.5816
47.5269
47.6424
47.6183
47.5715
47.5887
47.5895
47.6338
47.6231
47.5771
47.585
47.5756
47.5931
47.5244
47.4672
47.5037
47.4995
47.4979
47.445
47.4437
47.4405
47.4918
47.5324
47.4373
47.4249
47.4705
47.5831
47.514
47.606
47.5556
47.5024
47.5146
47.4826
47.4561
47.4626
47.4852
47.4311
47.6686
47.5294
47.5629
47.512
47.5996
47.4593
47.5011
47.6036
47.5472
47.6378
47.5849
47.6176
47.5975
47.6167
47.6018
47.5473
47.6177
47.5287
47.4749
47.5652
47.5857
47.614
47.6138
47.5693
47.621
47.5409
47.5285
47.3923
47.4903
47.468
47.5727
47.6122
47.4298
47.5076
47.4711
47.559
47.406
47.5075
47.4254
47.4817
47.5236
47.5459
47.2772
47.4156
47.4464
47.4746
47.5041
47.4739
47.4294
47.5301
47.5321
47.4151
47.4557
47.4568
47.5273
47.5152
47.439
47.4501
47.4361
47.4518
47.4015
47.3361
47.3884
47.385
47.3832
47.334
47.3197
47.3238
47.3583
47.403
47.3105
47.2979
47.3379
47.439
47.3661
47.4851
47.3998
47.4121
47.4243
47.3668
47.3636
47.3458
47.3558
47.3093
47.5215
47.3885
47.4318
47.3607
47.4432
47.3168
47.361
47.4805
47.4126
47.5118
47.617
47.5588
47.4176
47.5188
47.4699
47.4007
47.4971
47.3875
47.3267
47.4263
47.5141
47.558
47.4576
47.4186
47.4357
47.4243
47.4011
47.2517
47.3585
47.3309
47.5644
47.4146
47.3409
47.4029
47.341
47.3118
47.2294
47.249
47.2143
47.3427
47.3615
47.3934
47.1097
47.2682
47.2705
47.3096
47.351
47.3512
47.2303
47.3625
47.363
47.1837
47.2498
47.2568
47.3591
47.34
47.2344
47.2669
47.235
47.2705
47.2736
47.1968
47.2698
47.2494
47.2531
47.1938
47.178
47.1777
47.2408
47.2784
47.1853
47.1798
47.2203
47.2996
47.2361
47.3113
47.2191
47.2683
47.2904
47.2493
47.2169
47.1846
47.2166
47.1752
47.3656
47.2479
47.2926
47.2201
47.2888
47.1736
47.2267
47.3423
47.2741
47.3208
47.3761
47.3547
47.2167
47.2393
47.2277
47.2536
47.3496
47.2409
47.1814
47.2754
47.2948
47.2794
47.1832
47.1527
47.1009
47.2804
47.2554
47.1005
47.208
47.1754
47.2222
47.0019
47.0573
47.0551
47.0422
46.8782
46.8434
46.8185
46.8296
47.1908
47.1708
47.2213
46.9262
47.1104
47.0682
47.1313
47.1881
47.0726
46.8797
47.1159
47.1236
46.8948
46.9662
46.9815
47.1612
47.1162
46.9937
47.0624
46.9952
47.0632
47.1102
47.0142
47.1139
47.0945
47.0983
47.0303
47.0057
47.0143
47.1103
47.1524
47.0319
47.0306
47.0722
47.1673
47.0899
47.1227
47.025
47.0961
47.132
47.096
47.044
47.0095
47.0415
47.0202
47.2102
47.106
47.1568
47.0694
47.1314
47.0203
47.0818
47.2012
47.1263
47.1071
47.1026
47.0964
46.9955
46.9709
46.9651
47.11
47.1993
47.0948
47.0378
47.1268
46.9996
46.9116
46.8752
46.8426
46.718
47.1282
47.0965
46.9464
47.0532
47.0192
46.757
46.5066
46.6239
46.5773
46.6035
46.3574
46.4052
46.3547
46.3951
47.0266
46.9646
47.0395
46.7301
46.939
46.8647
46.9496
47.0199
46.6844
46.5095
46.8106
46.8235
46.6544
46.6594
46.6794
46.9611
46.8747
46.7717
46.8632
46.768
46.8772
46.8965
46.7853
46.9476
46.9201
46.9335
46.8726
46.8254