/*--------------------------------*- C++ -*----------------------------------*\
| =========                 |                                                 |
| \\      /  F ield         | OpenFOAM: The Open Source CFD Toolbox           |
|  \\    /   O peration     | Version:  5.x                                   |
|   \\  /    A nd           | Web:      www.OpenFOAM.org                      |
|    \\/     M anipulation  |                                                 |
\*---------------------------------------------------------------------------*/
FoamFile
{
    version     2.0;
    format      ascii;
    class       volScalarField;
    location    "1.8";
    object      Ksl;
}
// * * * * * * * * * * * * * * * * * * * * * * * * * * * * * * * * * * * * * //

dimensions      [1 -3 -1 0 0 0 0];

internalField   nonuniform List<scalar> 
10571
(
2970.32
1325.16
3623.59
5075.68
6633
3255.55
534.119
744.272
6000.82
8990.5
11844.5
8068.19
847.188
1171.34
4031.32
10154.8
11409.4
3695.72
1617.8
9201.44
10800.8
12167.1
10508.2
12860.8
11189.2
8177.72
3804.93
11016.5
11805.3
3700.24
3533.06
1900.74
4670.53
8008.81
3461.58
3182.03
6628.97
4805.47
2088.51
2832.41
3195.75
2074.38
1888.74
1222.39
2529.31
727.557
314.687
0
10459.7
8921.66
7628.76
884.453
10164.2
9362.59
5379.58
1775.33
1331.57
1386.54
2065.23
3286.31
3703.97
3570.78
878.506
355.917
1219.48
564.249
186.034
24.8451
86.5666
1138.48
5.89922
13.8972
7340.9
1278.55
874.907
633.205
3958.44
3780.64
217.234
639.192
230.355
768.671
1624.13
18.7467
32.9285
247.803
53.0059
252.019
816.106
88.1984
38.8078
40.1237
232.678
395.746
4.27976
0
5982.71
511.455
306.415
410.115
3463.11
20.3352
53.4036
45.4359
47.8407
300.677
1411.06
33.2266
13.1163
34.9953
15.483
196.569
342.231
7.31782
28.9848
50.7873
510.651
122.257
0
0
7157.85
458.901
68.3012
346.681
3012.11
28.746
23.1535
29.8805
42.5371
162.068
14412.9
958.778
11.2706
9.12937
19.0718
76.8227
56.748
10925.7
141.227
2.51161
17.2134
148.285
322.909
50.8544
12.5208
0
6747.51
343.413
48.1479
487.837
4565.18
21.2406
20.8932
50.9447
271.316
576.267
648.353
1335.66
5.1866
14.2415
32.5426
160.02
342.33
6.76047
109.218
5.80114
8.19036
89.6829
11.0659
0
81.2799
9.25461
-5.99931e-13
7211.97
268.838
27.1122
325.237
4933.05
10.5093
23.7351
24.1945
32.5086
17.7429
30.7479
985.133
13.906
10.0464
27.4899
50.6897
-1.66188e-13
0
73.2114
13.489
7.141
18.9418
1.11897
0
75.5791
46.6343
0
5693.2
190.507
26.6914
281.357
1460.64
0
11.4559
11.0977
11.0845
43.729
0
1218.2
10.3318
15.9962
12.8633
8.5692
0
0
119.592
16.309
5.68263
9.31477
16.368
49.5647
61.7121
26.2044
6134.71
372.286
12.2983
1701.85
169.056
0
3.41542
10.4004
10.4144
9.41155
1209.12
10.8906
17.2996
5.21036
11.6503
0
91.1641
14.6524
12.4665
10.3732
3.4402
73.6991
46.724
28.0043
155.301
1099.37
79.8388
204.465
47.9518
-4.75114e-16
10.2172
33.9035
17.7306
0
818.029
5.90017
8.9551
13.6125
24.8038
3.70319
71.2686
39.311
25.0055
35.6445
0
167.021
55.645
23.0989
1.40838
229.705
85.8677
16.3412
15.786
5.20582
177.808
115.173
13.0376
-1.88201e-14
258.69
10.379
237.626
109.456
25.4339
12.8614
85.5363
173.127
97.2868
43.1603
0
62.4861
58.5676
20.7618
0
140.062
88.7937
6.59496
0
316.553
87.2292
22.6253
4.03109
8.71355
13.8254
220.876
87.5162
34.9415
5.35121
13.8775
110.499
4.63463
8.83539
1.55004
0.456804
6.38351
0.146184
14.1777
12.6532
0
3.14237
0
0
4.81701
1.81432
4.68042
7.42268
0.219196
0
5.00178
2.19754
4.22773
2.00009
9.50921
0
0
0.693087
11.1212
0
0
0
0
0
0
0
3.94135
0
0
1.82168
4.12779
1.89053
0.222904
0
0
-2.70776e-14
-1.6732e-14
1.859
5.75377
0
0
0
0
0
0
0
0
13.0018
0
-2.64739e-13
1.85531
0.111349
0
-2.37964e-14
2.20579
0.987062
0
0
0
0
0.681513
1.43897
3.11083
0
0
0
0
0
0
0
0
0.497989
6.10672
0
0
0
0
0
1.86715
0
5.30774
0
0
0
0.674481
0
0
0
0
0
0
0
0
0
0
0
0
0
0.997468
0
0
0.587526
0.931025
0.584439
0
0
0
0
0
0
0
0
0
0
0
0
0
0
0
0
0
0
0
0
0
0.572403
0
0
0
0
0
0
0
0
0
0
0
0
0
0
0
0
0
0
0
0
0
0
0
0
0
0
0
0
0
0
0
0
0
0
0
0
0
0
0
0
0
0
0
0
0
0
0
0
0
0
0
0
0
0
0
0
0
0
0
0
0
0
0
0
0
0
0
0
0
0
0
0
0
0
0
0
0
0
0
0
0
0
0
0
0
0
0
0
0
0
0
0
0
0
0
0
0
0
0
0
0
0
0
0
0
0
0
0
0
0
0
0
0
0
0
0
0
0
0
0
0
0
0
0
0
0
0
0
0
0
0
0
0
0
0
0
0
0
0
0
0
0
0
0
0
0
0
0
0
0
0
0
0
0
0
0
0
0
0
0
0
0
0
0
0
0
0
0
0
0
0
0
0
0
0
0
0
0
0
0
0
0
0
0
0
0
0
0
0
0
0
0
0
0
0
0
0
0
0
0
0
0
0
0
0
0
0
0
0
0
0
0
0
0
0
0
0
0
0
0
0
0
0
0
0
0
0
0
0
0
0
0
0
0
0
0
0
0
0
0
0
0
0
0
0
0
0
0
0
0
0
0
0
0
0
0
0
0
0
0
0
0
0
0
0
0
0
0
0
0
0
0
0
0
0
0
0
0
0
0
0
0
0
0
0
0
0
0
0
0
0
0
0
0
0
0
0
0
0
0
0
0
0
0
0
0
0
0
0
0
0
0
0
0
0
0
0
0
0
0
0
0
0
0
0
0
0
0
0
0
0
0
0
0
0
0
0
0
0
0
0
0
0
0
0
0
0
0
0
0
0
0
0
0
0
0
0
0
0
0
0
0
0
0
0
0
0
0
0
0
0
0
0
0
0
0
0
0
0
0
0
0
0
0
0
0
0
0
0
0
0
0
0
0
0
0
0
0
0
0
0
0
0
0
0
0
0
0
0
0
0
0
0
0
0
0
0
0
0
0
0
0
0
0
0
0
0
0
0
0
0
0
0
0
0
0
0
0
0
0
0
0
0
0
0
0
0
0
0
0
0
0
0
0
0
0
0
0
0
0
0
0
0
0
0
0
0
0
0
0
0
0
0
0
0
0
0
0
0
0
0
0
0
0
0
0
0
0
0
0
0
0
0
0
0
0
0
0
0
0
0
0
0
0
0
0
0
0
0
0
0
0
0
0
0
0
0
0
0
0
0
0
0
0
0
0
0
0
0
0
0
0
0
0
0
0
0
0
0
0
0
0
0
0
0
0
0
0
0
0
0
0
0
0
0
0
0
0
0
0
0
0
0
0
0
0
0
0
0
0
0
0
0
0
0
0
0
0
0
0
0
0
0
0
0
0
0
0
0
0
0
0
0
0
0
0
0
0
0
0
0
0
0
0
0
0
0
0
0
0
0
0
0
0
0
0
0
0
0
0
0
0
0
0
0
0
0
0
0
0
0
0
0
0
0
0
0
0
0
0
0
0
0
0
0
0
0
0
0
0
0
0
0
0
0
0
0
0
0
0
0
0
0
0
0
0
0
0
0
0
0
0
0
0
0
0
0
0
0
0
0
0
0
0
0
0
0
0
0
0
0
0
0
0
0
0
0
0
0
0
0
0
0
0
0
0
0
0
0
0
0
0
0
0
0
0
0
0
0
0
0
0
0
0
0
0
0
0
0
0
0
0
0
0
0
0
0
0
0
0
0
0
0
0
0
0
0
0
0
0
0
0
0
0
0
0
0
0
0
0
0
0
0
0
0
0
0
0
0
0
0
0
0
0
0
0
0
0
0
0
0
0
0
0
0
0
0
0
0
0
0
0
0
0
0
0
0
0
0
0
0
0
0
0
0
0
0
0
0
0
0
0
0
0
0
0
0
0
0
0
0
0
0
0
0
0
0
0
0
0
0
0
0
0
0
0
0
0
0
0
0
0
0
0
0
0
0
0
0
0
0
0
0
0
0
0
0
0
0
0
0
0
0
0
0
0
0
0
0
0
0
0
0
0
0
0
0
0
0
0
0
0
0
0
0
0
0
0
0
0
0
0
0
0
0
0
0
0
0
0
0
0
0
0
0
0
0
0
0
0
0
0
0
0
0
0
0
0
0
0
0
0
0
0
0
0
0
0
0
0
0
0
0
0
0
0
0
0
0
0
0
0
0
0
0
0
0
0
0
0
0
0
0
0
0
0
0
0
0
0
0
0
0
0
0
0
0
0
0
0
0
0
0
0
0
0
0
0
0
0
0
0
0
0
0
0
0
0
0
0
0
0
0
0
0
0
0
0
0
0
0
0
0
0
0
0
0
0
0
0
0
0
0
0
0
0
0
0
0
0
0
0
0
0
0
0
0
0
0
0
0
0
0
0
0
0
0
0
0
0
0
0
0
0
0
0
0
0
0
0
0
0
0
0
0
0
0
0
0
0
0
0
0
0
0
0
0
0
0
0
0
0
0
0
0
0
0
0
0
0
0
0
0
0
0
0
0
0
0
0
0
0
0
0
0
0
0
0
0
0
0
0
0
0
0
0
0
0
0
0
0
0
0
0
0
0
0
0
0
0
0
0
0
0
0
0
0
0
0
0
0
0
0
0
0
0
0
0
0
0
0
0
0
0
0
0
0
0
0
0
0
0
0
0
0
0
0
0
0
0
0
0
0
0
0
0
0
0
0
0
0
0
0
0
0
0
0
0
0
0
0
0
0
0
0
0
0
0
0
0
0
0
0
0
0
0
0
0
0
0
0
0
0
0
0
0
0
0
0
0
0
0
0
0
0
0
0
0
0
0
0
0
0
0
0
0
0
0
0
0
0
0
0
0
0
0
0
0
0
0
0
0
0
0
0
0
0
0
0
0
0
0
0
0
0
0
0
0
0
0
0
0
0
0
0
0
0
0
0
0
0
0
0
0
0
0
0
0
0
0
0
0
0
0
0
0
0
0
0
0
0
0
0
0
0
0
0
0
0
0
0
0
0
0
0
0
0
0
0
0
0
0
0
0
0
0
0
0
0
0
0
0
0
0
0
0
0
0
0
0
0
0
0
0
0
0
0
0
0
0
0
0
0
0
0
0
0
0
0
0
0
0
0
0
0
0
0
0
0
0
0
0
0
0
0
0
0
0
0
0
1214.81
710.207
827.252
1130.01
638.548
830.274
1054.02
2961.83
3305.48
4377.58
826.243
4034.07
772.606
1047.88
1576.16
646.503
692.92
1616.88
2637.06
1021.88
1152.73
2258.23
4520.05
3234.16
4676.76
3771.24
3814.84
7934.3
6294.33
1643.71
1131.69
1115.52
374.593
1031.2
1915.22
559.235
7631.52
1476.66
1520.88
7930.33
3044
3222.08
3530.06
890.711
2999.66
2886.74
3707.67
2792.52
8429.08
8016.87
9074.15
3406.41
871.853
6834.23
1807.61
3133.37
6855.81
2891.79
6597.11
8457.84
2424.75
2416.62
354.763
511.177
3035.28
733.505
4145.16
3960.71
2759.3
4421.59
9243.75
8632.51
4375.1
9217.61
8247.31
3038.43
8018.47
6938.94
9104
1570.61
1045.33
5216.64
4019.35
3443.61
6090.36
6197.46
7531.37
6171.66
8970.78
9571.62
10463.6
9063.66
8162.76
6453.97
9741.6
7139.81
1615.86
4503.6
3178.73
3847.62
5033.92
8421.58
7569.49
9050.45
4149.77
4477.4
8767.32
9354.73
9297.11
5845.61
10642.6
3837.33
8162.9
995.415
1137.87
254.484
5068.52
2767.5
3482.18
983.009
8685.5
7191.33
8910.21
10365.9
11598.1
10822.8
11443.6
9861.15
11616.2
7799.84
12190.1
9992.1
8647.52
8900.57
6253.23
10181.1
8888.77
10758.4
11791.5
9456.64
11313.3
11501.4
9070.91
4267.6
8468.32
8417.7
9612.07
10787.8
9134.31
8963.35
12235.5
12004.9
5790.25
11750.8
11370.3
6882.9
4649.41
12274.3
6803.06
11250.2
10675
11910.7
6877.13
6449.61
4047.87
3587.07
11008.2
12022.5
11155.9
11892.9
8322.8
5235.84
3621.72
5182.4
11484.7
8616.47
3686.44
2971.91
3921.25
1375.93
7091.39
10262.7
10216.5
9384.23
10775.9
11106.2
9897.79
11408.8
11379.4
10747
11011.2
11949.1
11376
11614.2
11307.4
10427.8
7705.77
4096.17
5507.95
2553.16
10336.3
6762.21
6029.61
3008.68
11966.7
10968.6
10764.9
11980.2
11931.9
2877.6
5174.5
10670.3
8697.21
4817.53
3777.79
1382.93
3622.71
2881.4
1976.67
3881.77
5537.45
2941.98
881.547
2310.59
974.297
4387.04
3220.73
917.6
3342.03
5233.69
2982.62
385.413
1273.52
737.917
8795.7
5799.52
5999.5
10021.9
2948.75
1407.6
358.636
5729.85
1201.97
539.838
164.689
119.577
34.0456
102.21
30.5346
20.8462
586.198
4265.15
2922.93
309.126
286.908
849.657
275.741
92.9318
41.2703
0
78.063
15.9266
0
0.861575
11519.3
10055.4
10286.1
10140.9
9115.08
10297.4
9955.73
6567.98
10254.8
11355.8
10775.5
6506.15
10528.1
11040.6
10174.6
4983.62
2902.99
8465.94
5244.85
6101.8
3483.42
5815.21
4939.79
9454.39
10971.5
332.637
2128.19
6257.12
9884.4
134.309
820.793
3868.58
2697.56
5669.75
2716.97
3814.25
3601.35
1540.14
1645.48
669.981
1627.15
1008.88
437.843
1429.27
640.201
2552.25
2269
480.19
1800.15
920.826
260.521
221.916
774.204
223.233
5880.67
5231.3
31.078
4739.38
1054.26
1011.81
47.2847
3302.57
949.773
66.2813
26.0982
11.2506
27.2643
93.1702
47.8133
23.9856
175.035
4060.54
4772.82
342.15
23.4888
1251.99
220.593
0
16.7692
0
16.82
0
0
-1.08711e-12
3854.53
1942.52
8775.79
8215.32
4900.25
8707.89
6077.15
3423.49
5109.92
8113.53
5620.74
4530.05
7315.51
7394.68
5679.62
905.8
652.162
1510.7
2891.06
4098.2
676.865
190.443
142.363
62.8472
5462.75
155.401
614.531
3344.52
6490.88
105.695
581.47
1840.04
1368.43
655.83
1498.13
298.16
205.646
1194.53
273.651
305.995
929.854
452.933
251.246
666.765
393.546
1006.89
1388.22
274.647
741.633
749.489
275.632
238.461
669.971
344.184
4740.89
3249.26
92.93
3697.22
590.854
562.512
28.729
3832.75
329.702
115.898
51.9044
171.08
74.0883
141.744
70.4912
177.817
381.627
3130.1
1480.7
32.2833
72.5992
170.795
12.7139
23.695
4.08592
0
0
10.361
24.5282
0
1266.42
1102.99
6510.8
4787.26
3749.66
6289.33
3089.21
3112.22
4902.26
7122.2
6124.45
6687.03
10379.8
7035.82
8384
475.398
684.415
145.631
134.264
22.075
434.32
91.2955
130.341
18.9924
7491.92
91.5748
488.558
3361.24
6930.11
90.1693
381.217
1414.21
1182.1
229.076
840.036
214.128
243.769
482.403
202.655
154.449
556.449
230.161
114.674
495.35
290.258
574.236
1028.16
211.83
432.781
677.809
245.92
159.885
530.846
247.341
1669.86
1329.73
43.0683
2896.91
177.918
237.102
30.138
1177.38
110.437
119.131
90.6974
165.046
173.761
133.376
24.6742
40.32
399.302
735.131
506.561
4.00651
22.2327
98.0333
37.3838
0
3.12324
0
8.75085
11.1053
23.2093
0
966.425
919.835
8276.13
3136.31
3164.77
7826.6
4053.94
3907.34
8488.88
15015.8
7195.68
12057.2
2433.29
7988.32
9991.78
394.036
394.033
85.4748
148.55
15.0077
318.998
87.4925
139.601
19.5056
9074.69
149.485
437.89
2875.32
9726.23
151.91
451.957
835.86
1046.66
225.092
613.488
241.679
203.309
583.544
122.381
3265.56
41.7973
3368.51
154.036
2221.96
89.0937
335.298
12618.5
11114.4
23914.2
10790.6
11427.7
3091.39
6269.9
210.427
439.236
1224.93
197.592
402.461
3808.94
212.072
2147.15
249.194
383.727
297.439
160.976
20471.7
11996.3
21434.2
1250.33
8113.2
721.148
13849.8
1063.49
1104.54
13.0808
626.835
90.3581
119.582
-1.06805e-15
360.605
61.8703
144.93
21.0097
31.1907
150.167
202.24
11.5028
16.3319
106.151
293.792
283.355
5.53988
39.9038
90.4683
32.0662
18.2911
-3.2306e-14
23.2391
16.6352
8.76484
50.5586
15.1144
892.304
1080.06
8662.93
4346.17
4735.72
10687.9
4499.97
6134.95
5599.9
4113.39
6343.47
13096.6
8394.79
9377.97
9618.55
419.529
321.547
74.6565
130.61
23.2394
282.03
79.9082
127.076
12.9209
8682.25
528.815
1020.01
8005.79
10062.1
607.579
1497.22
1113.25
1640.28
1424.24
823.034
4925.46
418.303
596.958
10.0035
184.628
763.252
134.295
180.233
802.9
131.903
383.944
539.315
177.26
223.427
145.864
75.5906
22.9499
229.215
48.0132
18.9261
118.254
4.46202
11.8575
3.06967
236.515
473.926
1162.03
164.066
374.939
24.9381
85.6037
6.0287
56.6243
0
4.56329
-2.53745e-13
30.1101
1.3036
57.0963
0.513508
0
0
0
838.499
814.385
4.54488
368.27
56.5033
92.0627
0
268.952
49.206
23.6615
0.189597
0.194091
31.8727
2.77707
10.4319
0
6.13777
2.95908
0
0
0
0
161.724
124.136
43.6278
24.7366
61.8781
47.9436
54.9781
16.5106
35.6383
30.2407
16.257
101.57
0
1263.41
1197.71
10004.6
4151.48
8344.5
6786.53
7617.35
6157.69
8785.42
13740.3
7390.47
16835.4
7854.83
13121.5
10202.8
490.575
362.412
68.0314
105.867
8.91273
213.741
94.7264
93.0772
0
12096.4
62.6998
497.886
3293.85
17897.2
19.9302
283.537
1190.69
317.491
1275.54
7.93974
54.1475
4.66697
0
0
311.163
628.219
117.576
315.867
908.762
121.669
88.1765
4.71309
12.1325
87.9436
65.2531
11.0175
10.9457
0
3.49717
0
4.27762
2.24118
0
0
160.815
366.335
1562.84
144.243
403.397
3.23635
0
-3.03684e-13
0
0
4.71685
3.1592
0
0
0
0
0
0
0
817.891
724.567
0
311.931
59.6402
77.6711
3.88842
220.07
103.377
7.71372
5.62192
0
20.092
12.6572
5.28157
0
5.76705
6.86992
0
0
0
0
89.4781
92.5838
57.345
35.0463
59.6524
47.0908
107.274
44.1347
66.6899
40.882
15.798
93.9614
29.9517
1405.56
2466.81
4604.52
26318.8
2703.13
8910.78
5460.37
10109.5
6310.89
4176.57
5353.47
5799.98
25676.8
16686.8
11917.6
394.589
281.963
84.5404
85.9557
4.27791
302.102
75.2883
88.4561
4.24962
11732.5
23.6519
170.215
418.82
3363.73
27.8852
64.6201
593.141
232.971
283.856
1553.73
129.797
233.217
1839.82
126.393
1.19894
0.468832
3.96276
27.8098
0
3.71112
0
0
0
0
0
0
0
0
189.163
457.786
2013.88
170.46
412.301
0
0
0
11.3592
4.23385
0
0
0
0
0
0
0
0
0
536.139
591.513
0
276.469
64.7688
86.3891
30.4366
194.015
52.248
18.2412
6.70915
4.4079
15.1253
4.53994
22.389
13.7334
16.1303
96.0503
31.8548
69.7333
63.4353
71.52
54.4107
104.069
30.2524
141.586
68.6
21.7347
99.7888
3.56158
3830.13
1499.51
13014.2
4573.98
20630
3858.41
21455.1
7005.33
14625.9
532.852
1553.21
1598.96
27.0916
864.079
47.4549
332.865
311.433
145.65
62.5415
0
486.161
164.01
55.5582
0
305.331
50.6572
35.1727
65.5527
44.0119
40.4128
19.6449
28.1182
13.5652
207.456
1807.52
141.829
252.618
1082.62
89.7102
4.25707
0
0
1.17562
0
131.216
396.741
791.178
85.1021
273.311
0
0
0
0
3.57161
505.144
433.522
21.4346
214.949
102.247
79.9353
23.373
168.414
54.7341
12.6493
16.2034
27.7176
37.9808
9.5591
22.2479
15.5243
8.8942
101.912
133.984
47.0483
75.2496
86.6908
35.7567
91.8446
28.4093
54.2057
38.7552
58.5507
120.927
27.6952
2183.7
812.715
5859.68
2124.14
18387.5
2869.99
1080.89
1272.19
173.742
6.19675
46.714
25.6347
8.28419
14.4256
7.21432
382.715
785.4
157.377
68.3315
0
568.451
150.937
77.1796
4.4351
5.19562
72.7325
6.52882
20.1218
0
80.2208
11.5527
0
0
237.21
1219.9
79.1346
223.346
1076.59
99.0576
0
0
5.19566
8.19418
14.6754
80.0624
199.786
702.411
86.8271
195.95
0.481768
11.9014
6.38438
0
3.54777
217.764
193.348
29.7752
174.398
61.4755
75.7373
29.2083
178.161
48.6679
22.3419
34.3247
18.5627
54.7636
17.1119
65.3187
31.2537
0
157.076
178.16
93.9579
119.357
225.661
100.2
97.9361
40.8034
28.663
66.2817
58.0185
194.583
56.5498
1146.54
872.753
613.86
611.964
431.251
124.64
473.231
162.397
12.3861
3.82281
10.8842
4.72456
4.27496
0
0
567.256
456.303
100.761
88.4768
4.56337
270.047
243.97
155.359
212.04
6.27908
18.169
7.25855
0
0
5.60626
3.54077
0
0
190.454
875
178.452
272.595
124.844
279.005
7.37795
0
11.9129
8.63222
0
149.691
175.412
98.0506
107.156
183.412
0.752428
1.86375
9.33788
0
5.48255
223.378
201.977
82.8462
221.562
141.699
158.992
281.623
326.976
170.52
9.63291
28.6301
8.66952
28.8249
7.55382
45.1904
5.77571
11.4193
194.036
120.359
70.0152
51.7671
16.8834
14.9503
0
64.3519
48.7204
25.5387
77.0682
0
29.5872
566.478
125.7
8.9786
315.518
30.8728
0
60.645
9.53098
3.3609
0
0
0
0
7.97359
0
463.117
24.6658
211.501
272.851
356.575
20.871
84.0259
18.2402
85.5357
0
4.1169
0
0.27682
0
11.4658
0
0
8.66115
256.051
6.94939
156.637
26.8665
2.79545
8.70037
17.4696
0
7.31496
0
15.5735
87.1695
182.47
-4.37651e-13
13.7286
30.4601
0
0
0
0
6.08579
144.284
19.8186
78.5116
60.7329
20.1204
14.115
4.87188
0
6.61302
0
10.0191
0
5.63315
0
4.98089
0
11.4349
22.6461
3.94913
1.58134
0
0
0
0
26.8395
0
0
0
0
0
4.70527
0.260376
12.202
0.336197
6.5309
0
0.30058
6.80383
1.73403
0
12.5797
2.25148
0
0
8.44276
0
7.02173
5.71102
3.41987
13.1647
0
4.92015
4.02071
0
6.75738
0
0
0
6.86142
0
0
-6.3739e-13
0
0
0
3.20004
5.2263
0
0
8.88021
0
10.0763
1.49302
0
0
4.52363
0
0
0
0
6.48236
8.66156
0
0
0
0
0
0
0
4.25809
0
0
0
0
5.32497
0
0
0
0
0
0
0
0
0
0
0
0
0
0
0
0
0
0
0
5.35213
0
0
4.17567
3.39398
25.0251
0
3.56461
0
0
0.434565
0
0
0
0
0
0
2.58657
0
0
0
6.00078
0
0
0
8.12279
7.41545
0
0
0
0
0
0
5.20654
0
0
-3.75877e-13
0
0
4.0822
0
0
-1.71451e-13
0
0
0
0
0
0
0
0
1.81156
0
0
0
0
0
0
0
0
0
0
0
0
0
0
0
0
0
0
0
0
0
0
0
0
0
0
0
0
0
0
0
0
0
0
0
0
3.58374
0
0.222431
3.56616
7.4254
0
13.0023
0.127335
0
0
0
0
0
-1.11686e-14
0
0
0
0
0
0
0
4.06147
1.54495
2.5006
0
1.43824
3.90372
0
0
0
0
0
0
0
0
0
0
0
0
0
0
0
0
0
0
0
0
0
0
0
0
0
0
0
0
0
0
0
0
0
0
0
0
0
0
0
0
0
0
0
0
0
0
0
0
0
0
0
0
0
0
0
0
0
0
0
0
3.7768
3.49857
0.155382
13.4757
3.79956
0
0
0
0
0
0
0
0
0
3.33818
0
0
0
0
0
0
0
0
0
0
0
0
0
0
0
0
0
0
0
0
0
0
0
0
0
0
0
0
0
0
0
0
0
0
0
0
0
0
0
0
0
0
0
0
0
0
0
0
0
0
0
4.37901
0
0
0
0
0
0
0
0
0
0
0
0
0
0
3.79385
0
4.76973
-1.37595e-14
6.85005
0
0
-1.44057e-13
0
0
0
0
0
0
3.49522
0
0
0
0
0
0
0
0
0
0
0
0
0
0
4.65532
0
0
0
0
0
0
0
0
0
0
0
0
0
0
0
0
0
0
0
0
0
0
0
0
0
0
0
0
0
0
0
0
0
0
0
0
0
0
0
0
0
0
0
0
0
0
0
0
0
0
8.42223
0
0
0
0
0
0
0
0
0
0
0
0
0
0
0
0
0
0
3.76748
0
0
0
0
0
0
0
0
0
0
0
0
0
0
0
0
0
0
0
0
0
0
0
0
0
0
0
0
0
0
0
0
0
0
0
0
0
0
0
0
0
0
0
0
0
0
0
0
0
0
0
0
0
0
0
0
0
0
0
0
0
0
0
0
0
0
0
0
0
0
0
0
0
0
0
0
0
0
0
0
0
0
0
3.72984
6.44954
-1.28262e-14
0
0
0
0
0
0
0
0
0
0
0
0
0
0
0
0
0
0
0
0
0
0
0
0
0
0
0
0
0
0
0
0
0
0
0
0
0
0
0
0
0
0
0
0
0
0
0
0
0
0
0
0
0
0
0
0
0
0
0
0
0
0
0
0
0
0
0
0
5.00257
0
0
0
0
0
0
0
0
0
0
0
0
0
0
0
0
0
0
0
0
0
0
0
0
0
0
0
0
0
0
0
0
0
0
0
0
0
0
0
0
0
0
0
0
0
0
0
0
0
0
0
0
0
0
0
0
0
0
0
0
0
0
0
0
0
0
0
0
0
0
0
0
0
0
0
0
0
0
0
0
0
0
0
0
0
0
0
0
0
0
0
0
0
0
0
0
0
0
0
0
0
0
0
0
0
0
0
0
0
0
0
0
0
0
0
0
0
0
0
0
0
0
0
0
0
0
0
0
0
0
0
0
0
0
0
0
0
0
0
0
0
0
0
0
0
0
0
0
0
0
0
0
0
0
0
0
0
0
0
0
0
0
0
0
0
0
0
0
0
0
0
0
0
0
0
0
0
0
0
0
0
0
0
0
0
0
0
0
0
0
0
0
0
0
0
0
0
0
0
0
0
0
0
0
0
0
0
0
0
0
0
0
0
0
0
0
0
0
0
0
0
0
0
0
0
0
0
0
0
0
0
0
0
0
0
0
0
0
0
0
0
0
0
0
0
0
0
0
0
0
0
0
0
0
0
0
0
0
0
0
0
0
0
0
0
0
0
0
0
0
0
0
0
0
0
0
0
0
0
0
0
0
0
0
0
0
0
0
0
0
0
0
0
0
0
0
0
0
0
0
0
0
0
0
0
0
0
0
0
0
0
0
0
0
0
0
0
0
0
0
0
0
0
0
0
0
0
0
0
0
6.73128
0
0
0
0
0
0
0
0
0
0
0
0
0
0
0
0
0
0
0
0
0
0
0
0
0
0
0
0
0
0
0
0
0
0
0
0
0
0
0
0
0
0
0
0
0
0
0
0
0
0
0
0
0
0
0
0
0
0
0
0
0
0
0
0
0
0
0
0
0
0
0
0
0
0
0
0
0
0
0
0
0
0
0
0
0
0
0
0
0
0
0
0
0
0
0
0
0
0
0
0
0
0
0
0
0
0
0
0
0
0
0
0
0
0
0
0
0
0
0
0
0
0
0
0
0
0
0
0
0
0
0
0
0
0
0
0
0
0
0
0
0
0
0
0
0
0
0
0
0
0
0
0
0
0
0
0
0
0
0
0
0
0
0
0
0
0
0
0
0
0
0
0
0
0
0
0
0
0
0
0
0
0
0
0
0
0
0
0
0
0
0
0
0
0
0
0
0
0
0
0
0
0
0
0
0
0
0
0
0
0
0
0
0
0
0
0
0
0
0
0
0
0
0
0
0
0
0
0
0
0
0
0
0
0
0
0
0
0
0
0
0
0
0
0
0
0
0
0
0
0
0
0
0
0
0
0
0
0
0
0
0
0
0
0
0
0
0
0
0
0
0
0
0
0
0
0
0
0
0
0
0
0
0
0
0
0
0
0
0
0
0
0
0
0
0
0
0
0
0
0
0
0
0
0
0
0
0
0
0
0
0
0
0
0
0
0
0
0
0
0
0
0
0
0
0
0
0
0
0
0
0
0
0
0
0
0
0
0
0
0
0
0
0
0
0
0
0
0
0
0
0
0
0
0
0
0
0
0
0
0
0
0
0
0
0
0
0
0
0
0
0
0
0
0
0
0
0
0
0
0
0
0
0
0
0
0
0
0
0
0
0
0
0
0
0
0
0
0
0
0
0
0
0
0
0
0
0
0
0
0
0
0
0
0
0
0
0
0
0
0
0
0
0
0
0
0
0
0
0
0
0
0
0
0
0
0
0
0
0
0
0
0
0
0
0
0
0
0
0
0
0
0
0
0
0
0
0
0
0
0
0
0
0
0
0
0
0
0
0
0
0
0
0
0
0
0
0
0
0
0
0
0
0
0
0
0
0
0
0
0
0
0
0
0
0
0
0
0
0
0
0
0
0
0
0
0
0
0
0
0
0
0
0
0
0
0
0
0
0
0
0
0
0
0
0
0
0
0
0
0
0
0
0
0
0
0
0
0
0
0
0
0
0
0
0
0
0
0
0
0
0
0
0
0
0
0
0
0
0
0
0
0
0
0
0
0
0
0
0
0
0
0
0
0
0
0
0
0
0
0
0
0
0
0
0
0
0
0
0
0
0
0
0
0
0
0
0
0
0
0
0
0
0
0
0
0
0
0
0
0
0
0
0
0
0
0
0
0
0
0
0
0
0
0
0
0
0
0
0
0
0
0
0
0
0
0
0
0
0
0
0
0
0
0
0
0
0
0
0
0
0
0
0
0
0
0
0
0
0
0
0
0
0
0
0
0
0
0
0
0
0
0
0
0
0
0
0
0
0
0
0
0
0
0
0
0
0
0
0
0
0
0
0
0
0
0
0
0
0
0
0
0
0
0
0
0
0
0
0
0
0
0
0
0
0
0
0
0
0
0
0
0
0
0
0
0
0
0
0
0
0
0
0
0
0
0
0
0
0
0
0
0
0
0
0
0
0
0
0
0
0
0
0
0
0
0
0
0
0
0
0
0
0
0
0
0
0
0
0
0
0
0
0
0
0
0
0
0
0
0
0
0
0
0
0
0
0
0
0
0
0
0
0
0
0
0
0
0
0
0
0
0
0
0
0
0
0
0
0
0
0
0
0
0
0
0
0
0
0
0
0
0
0
0
0
0
0
0
0
0
0
0
0
0
0
0
0
0
0
0
0
0
0
0
0
0
0
0
0
0
0
0
0
0
0
0
0
0
0
0
0
0
0
0
0
0
0
0
0
0
0
0
0
0
0
0
0
0
0
0
0
0
0
0
0
0
0
0
0
0
0
0
0
0
0
0
0
0
0
0
0
0
0
0
0
0
0
0
0
0
0
0
0
0
0
0
0
0
0
0
0
0
0
0
0
0
0
0
0
0
0
0
0
0
0
0
0
0
0
0
0
0
0
0
0
0
0
0
0
0
0
0
0
0
0
0
0
0
0
0
0
0
0
0
0
0
0
0
0
0
0
0
0
0
0
0
0
0
0
0
0
0
0
0
0
0
0
0
0
0
0
0
0
0
0
0
0
0
0
0
0
0
0
0
0
0
0
0
0
0
0
0
0
0
0
0
0
0
0
0
0
0
0
0
0
0
0
0
0
0
0
0
0
0
0
0
0
0
0
0
0
0
0
0
0
0
0
0
0
0
0
0
0
0
0
0
0
0
0
0
0
0
0
0
0
0
0
0
0
0
0
0
0
0
0
0
0
0
0
0
0
0
0
0
0
0
0
0
0
0
0
0
0
0
0
0
0
0
0
0
0
0
0
0
0
0
0
0
0
0
0
0
0
0
0
0
0
0
0
0
0
0
0
0
0
0
0
0
0
0
0
0
0
0
0
0
0
0
0
0
0
0
0
0
0
0
0
0
0
0
0
0
0
0
0
0
0
0
0
0
0
0
0
0
0
0
0
0
0
0
0
0
0
0
0
0
0
0
0
0
0
0
0
0
0
0
0
0
0
0
0
0
0
0
0
0
0
0
0
0
0
0
0
0
0
0
0
0
0
0
0
0
0
0
0
0
0
0
0
0
0
0
0
0
0
0
0
0
0
0
0
0
0
0
0
0
0
0
0
0
0
0
0
0
0
0
0
0
0
0
0
0
0
0
0
0
0
0
0
0
0
0
0
0
0
0
0
0
0
0
0
0
0
0
0
0
0
0
0
0
0
0
0
0
0
0
0
0
0
0
0
0
0
0
0
0
0
0
0
0
0
0
0
0
0
0
0
0
0
0
0
0
0
0
0
0
0
0
0
0
0
0
0
0
0
0
0
0
0
0
0
0
0
0
0
0
0
0
0
0
0
0
0
0
0
0
0
0
0
0
0
0
0
0
0
0
0
0
0
0
0
0
0
0
0
0
0
0
0
0
0
0
0
0
0
0
0
0
0
0
0
0
0
0
0
0
0
0
0
0
0
0
0
0
0
0
0
0
0
0
0
0
0
0
0
0
0
0
0
0
0
0
0
0
0
0
0
0
0
0
0
0
0
0
0
0
0
0
0
0
0
0
0
0
0
0
0
0
0
0
0
0
0
0
0
0
0
0
0
0
0
0
0
0
0
0
0
0
0
0
0
0
0
0
0
0
0
0
0
0
0
0
0
0
0
0
0
0
0
0
0
0
0
0
0
0
0
0
0
0
0
0
0
0
0
0
0
0
0
0
0
0
0
0
0
0
0
0
0
0
0
0
0
0
0
0
0
0
0
0
0
0
0
0
0
0
0
0
0
0
0
0
0
0
0
0
0
0
0
0
0
0
0
0
0
0
0
0
0
0
0
0
0
0
0
0
0
0
0
0
0
0
0
0
0
0
0
0
0
0
0
0
0
0
0
0
0
0
0
0
0
0
0
0
0
0
0
0
0
0
0
0
0
0
0
0
0
0
0
0
0
0
0
0
0
0
0
0
0
0
0
0
0
0
0
0
0
0
0
0
0
0
0
0
0
0
0
0
0
0
0
0
0
0
0
0
0
0
0
0
0
0
0
0
0
0
0
0
0
0
0
0
0
0
0
0
0
0
0
0
0
0
0
0
0
0
0
0
0
0
0
0
0
0
0
0
0
0
0
0
0
0
0
0
0
0
0
0
0
0
0
0
0
0
0
0
0
0
0
0
0
0
0
0
0
0
0
0
0
0
0
0
0
0
0
0
0
0
0
0
0
0
0
0
0
0
0
0
0
0
0
0
0
0
0
0
0
0
0
0
0
0
0
0
0
0
0
0
0
0
0
0
0
0
0
0
0
0
0
0
0
0
0
0
0
0
0
0
0
0
0
0
0
0
0
0
0
0
0
0
0
0
0
0
0
0
0
0
0
0
0
0
0
0
0
0
0
0
0
0
0
0
0
0
0
0
0
0
0
0
0
0
0
0
0
0
0
0
0
0
0
0
0
0
0
0
0
0
0
0
0
0
0
0
0
0
0
0
0
0
0
0
0
0
0
0
0
0
0
0
0
0
0
0
0
0
0
0
0
0
0
0
0
0
0
0
0
0
0
0
0
0
0
0
0
0
0
0
0
0
0
0
0
0
0
0
0
0
0
0
0
0
0
0
0
0
0
0
0
0
0
0
0
0
0
0
0
0
0
0
0
0
0
0
0
0
0
0
0
0
0
0
0
0
0
0
0
0
0
0
0
0
0
0
0
0
0
0
0
0
0
0
0
0
0
0
0
0
0
0
0
0
0
0
0
0
0
0
0
0
0
0
0
0
0
0
0
0
0
0
0
0
0
0
0
0
0
0
0
0
0
0
0
0
0
0
0
0
0
0
0
0
0
0
0
0
0
0
0
0
0
0
0
0
0
0
0
0
0
0
0
0
0
0
0
0
0
0
0
0
0
0
0
0
0
0
0
0
0
0
0
0
0
0
0
0
0
0
0
0
0
0
0
0
0
0
0
0
0
0
0
0
0
0
0
0
0
0
0
0
0
0
0
0
0
0
0
0
0
0
0
0
0
0
0
0
0
0
0
0
0
0
0
0
0
0
0
0
0
0
0
0
0
0
0
0
0
0
0
0
0
0
0
0
0
0
0
0
0
0
0
0
0
0
0
0
0
0
0
0
0
0
0
0
0
0
0
0
0
0
0
0
0
0
0
0
0
0
0
0
0
0
0
0
0
0
0
0
0
0
0
0
0
0
0
0
0
0
0
0
0
0
0
0
0
0
0
0
0
0
0
0
0
0
0
0
0
0
0
0
0
0
0
0
0
0
0
0
0
0
0
0
0
0
0
0
0
0
0
0
0
0
0
0
0
0
0
0
0
0
0
0
0
0
0
0
0
0
0
0
0
0
0
0
0
0
0
0
0
0
0
0
0
0
0
0
0
0
0
0
0
0
0
0
0
0
0
0
0
0
0
0
0
0
0
0
0
0
0
0
0
0
0
0
0
0
0
0
0
0
0
0
0
0
0
0
0
0
0
0
0
0
0
0
0
0
0
0
0
0
0
0
0
0
0
0
0
0
0
0
0
0
0
0
0
0
0
0
0
0
0
0
0
0
0
0
0
0
0
0
0
0
0
0
0
0
0
0
0
0
0
0
0
0
0
0
0
0
0
0
0
0
0
0
0
0
0
0
0
0
0
0
0
0
0
0
0
0
0
0
0
0
0
0
0
0
0
0
0
0
0
0
0
0
0
0
0
0
0
0
0
0
0
0
0
0
0
0
0
0
0
0
0
0
0
0
0
0
0
0
0
0
0
0
0
0
0
0
0
0
0
0
0
0
0
0
0
0
0
0
0
0
0
0
0
0
0
0
0
0
0
0
0
0
0
0
0
0
0
0
0
0
0
0
0
0
0
0
0
0
0
0
0
0
0
0
0
0
0
0
0
0
0
0
0
0
0
0
0
0
0
0
0
0
0
0
0
0
0
0
0
0
0
0
0
0
0
0
0
0
0
0
0
0
0
0
0
0
0
0
0
0
0
0
0
0
0
0
0
0
0
0
0
0
0
0
0
0
0
0
0
0
0
0
0
0
0
0
0
0
0
0
0
0
0
0
0
0
0
0
0
0
0
0
0
0
0
0
0
0
0
0
0
0
0
0
0
0
0
0
0
0
0
0
0
0
0
0
0
0
0
0
0
0
0
0
0
0
0
0
0
0
0
0
0
0
0
0
0
0
0
0
0
0
0
0
0
0
0
0
0
0
0
0
0
0
0
0
0
0
0
0
0
0
0
0
0
0
0
0
0
0
0
0
0
0
0
0
0
0
0
0
0
0
0
0
0
0
0
0
0
0
0
0
0
0
0
0
0
0
0
0
0
0
0
0
0
0
0
0
0
0
0
0
0
0
0
0
0
0
0
0
0
0
0
0
0
0
0
0
0
0
0
0
0
0
0
0
0
0
0
0
0
0
0
0
0
0
0
0
0
0
0
0
0
0
0
0
0
0
0
0
0
0
0
0
0
0
0
0
0
0
0
0
0
0
0
0
0
0
0
0
0
0
0
0
0
0
0
0
0
0
0
0
0
0
0
0
0
0
0
0
0
0
0
0
0
0
0
0
0
0
0
0
0
0
0
0
0
0
0
0
0
0
0
0
0
0
0
0
0
0
0
0
0
0
0
0
0
0
0
0
0
0
0
0
0
0
0
0
0
0
0
0
0
0
0
0
0
0
0
0
0
0
0
0
0
0
0
0
0
0
0
0
0
0
0
0
0
0
0
0
0
0
0
0
0
0
0
0
0
0
0
0
0
0
0
0
0
0
0
0
0
0
0
0
0
0
0
0
0
0
0
0
0
0
0
0
0
0
0
0
0
0
0
0
0
0
0
0
0
0
0
0
0
0
0
0
0
0
0
0
0
0
0
0
0
0
0
0
0
0
0
0
0
0
0
0
0
0
0
0
0
0
0
0
0
0
0
0
0
0
0
0
0
0
0
0
0
0
0
0
0
0
0
0
0
0
0
0
0
0
0
0
0
0
0
0
0
0
0
0
0
0
0
0
0
0
0
0
0
0
0
0
0
0
0
0
0
0
0
0
0
0
0
0
0
0
0
0
0
0
0
0
0
0
0
0
0
0
0
0
0
0
0
0
0
0
0
0
0
0
0
0
0
0
0
0
0
0
0
0
0
0
0
0
0
0
0
0
0
0
0
0
0
0
0
0
0
0
0
0
0
0
0
0
0
0
0
0
0
0
0
0
0
0
0
0
0
0
0
0
0
0
0
0
0
0
0
0
0
0
0
0
0
0
0
0
0
0
0
0
0
0
0
0
0
0
0
0
0
0
0
0
0
0
0
0
0
0
0
0
0
0
0
0
0
0
0
0
0
0
0
0
0
0
0
0
0
0
0
0
0
0
0
0
0
0
0
0
0
0
0
0
0
0
0
0
0
0
0
0
0
0
0
0
0
0
0
0
0
0
0
0
0
0
0
0
0
0
0
0
0
0
0
0
0
0
0
0
0
0
0
0
0
0
0
0
0
0
0
0
0
0
0
0
0
0
0
0
0
0
0
0
0
0
0
0
0
0
0
0
0
0
0
0
0
0
0
0
0
0
0
0
0
0
0
0
0
0
0
0
0
0
0
0
0
0
0
0
0
0
0
0
0
0
0
0
0
0
0
0
0
0
0
0
0
0
0
0
0
0
0
0
0
0
0
0
0
0
0
0
0
0
0
0
0
0
0
0
0
0
0
0
0
0
0
0
0
0
0
0
0
0
0
0
0
0
0
0
0
0
0
0
0
0
0
0
0
0
0
0
0
0
0
0
0
0
0
0
0
0
0
0
0
0
0
0
0
0
0
0
0
0
0
0
0
0
0
0
0
0
0
0
0
0
0
0
0
0
0
0
0
0
0
0
0
0
0
0
0
0
0
0
0
0
0
0
0
0
0
0
0
0
0
0
0
0
0
0
0
0
0
0
0
0
0
0
0
0
0
0
0
0
0
0
0
0
0
0
0
0
0
0
0
0
0
0
0
0
0
0
0
0
0
0
0
0
0
0
0
0
0
0
0
0
0
0
0
0
0
0
0
0
0
0
0
0
0
0
0
0
0
0
0
0
0
0
0
0
0
0
0
0
0
0
0
0
0
0
0
0
0
0
0
0
0
0
0
0
0
0
0
0
0
0
0
0
0
0
0
0
0
0
0
0
0
0
0
0
0
0
0
0
0
0
0
0
0
0
0
0
0
0
0
0
0
0
0
0
0
0
0
0
0
0
0
0
0
0
0
0
0
0
0
0
0
0
0
0
0
0
0
0
0
0
0
0
0
0
0
0
0
0
0
0
0
0
0
0
0
0
0
0
0
0
0
0
0
0
0
0
0
0
0
0
0
0
0
0
0
0
0
0
0
0
0
0
0
0
0
0
0
0
0
0
0
0
0
0
0
0
0
0
0
0
0
0
0
0
0
0
0
0
0
0
0
0
0
0
0
0
0
0
0
0
0
0
0
0
0
0
0
0
0
0
0
0
0
0
0
0
0
0
0
0
0
0
0
0
0
0
0
0
0
0
0
0
0
0
0
0
0
0
0
0
0
0
0
0
0
0
0
0
0
0
0
0
0
0
0
0
0
0
0
0
0
0
0
0
0
0
0
0
0
0
0
0
0
0
0
0
0
0
0
0
0
0
0
0
0
0
0
0
0
0
0
0
0
0
0
0
0
0
0
0
0
0
0
0
0
0
0
0
0
0
0
0
0
0
0
0
0
0
0
0
0
0
0
0
0
0
0
0
0
0
0
0
0
0
0
0
0
0
0
0
0
0
0
0
0
0
0
0
0
0
0
0
0
0
0
0
0
0
0
0
0
0
0
0
0
0
0
0
0
0
0
0
0
0
0
0
0
0
0
0
0
0
0
0
0
0
0
0
0
0
0
0
0
0
0
0
0
0
0
0
0
0
0
0
0
0
0
0
0
0
0
0
0
0
0
0
0
0
0
0
0
0
0
0
0
0
0
0
0
0
0
0
0
0
0
0
0
0
0
0
0
0
0
0
0
0
0
0
0
0
0
0
0
0
0
0
0
0
0
0
0
0
0
0
0
0
0
0
0
0
0
0
0
0
0
0
0
0
0
0
0
0
0
0
0
0
0
0
0
0
0
0
0
0
0
0
0
0
0
0
0
0
0
0
0
0
0
0
0
0
0
0
0
0
0
0
0
0
0
0
0
0
0
0
0
0
0
0
0
0
0
0
0
0
0
0
0
0
0
0
0
0
0
0
0
0
0
0
0
0
0
0
0
0
0
0
0
0
0
0
0
0
0
0
0
0
0
0
0
0
0
0
0
0
0
0
0
0
0
0
0
0
0
0
0
0
0
0
0
0
0
0
0
0
0
0
0
0
0
0
0
0
0
0
0
0
0
0
0
0
0
0
0
0
0
0
0
0
0
0
0
0
0
0
0
0
0
0
0
0
0
0
0
0
0
0
0
0
0
0
0
0
0
0
0
0
0
0
0
0
0
0
0
0
0
0
0
0
0
0
0
0
0
0
0
0
0
0
0
0
0
0
0
0
0
0
0
0
0
0
0
0
0
0
0
0
0
0
0
0
0
0
0
0
0
0
0
0
0
0
0
0
0
0
0
0
0
0
0
0
0
0
0
0
0
0
0
0
0
0
0
0
0
0
0
0
0
0
0
0
0
0
0
0
0
0
0
0
0
0
0
0
0
0
0
0
0
0
0
0
0
0
0
0
0
0
0
0
0
0
0
0
0
0
0
0
0
0
0
0
0
0
0
0
0
0
0
0
0
0
0
0
0
0
0
0
0
0
0
0
0
0
0
0
0
0
0
0
0
0
0
0
0
0
0
0
0
0
0
0
0
0
0
0
0
0
0
0
0
0
0
0
0
0
0
0
0
0
0
0
0
0
0
0
0
0
0
0
0
0
0
0
0
0
0
0
0
0
0
0
0
0
0
0
0
0
0
0
0
0
0
0
0
0
0
0
0
0
0
0
0
0
0
0
0
0
0
0
0
0
0
0
0
0
0
0
0
0
0
0
0
0
0
0
0
0
0
0
0
0
0
0
0
0
0
0
0
0
0
0
0
0
0
0
0
0
0
0
0
0
0
0
0
0
0
0
0
0
0
0
0
0
0
0
0
0
0
0
0
0
0
0
0
0
0
0
0
0
0
0
0
0
0
0
0
0
0
0
0
0
0
0
0
0
4709.67
651.585
1305.36
5164.77
8155.28
2762.51
3294.45
5927.47
2080.17
4217.26
9319.31
10004.2
5037.88
8838.25
1468.06
6491.35
1106.72
3892.81
2498.79
6957.81
2726.84
167.886
587.834
865.687
676.888
872.665
829.829
874.232
1049.05
1244.47
1325.69
1839.34
4073.74
1021.78
2063.12
8142.79
4096.4
7739.48
9154.13
11292.2
6063.94
8538.15
1873.66
9319.81
4315.47
3971
3984.14
922.42
3376.91
555.958
1587.56
1803.1
1083.77
804.254
2623.86
3847.16
1276.99
929.766
1265.88
2046.04
4176.16
5548.94
6394.95
8429.86
7123.27
10730.4
5398.78
6287.27
7254.31
5416.03
4130.69
10822.2
8360.48
5214.16
7058.52
4524.99
4277.13
4985.98
5030.59
6581.45
5456.07
9771.93
6634.52
9133.93
7426.73
2732.14
4865.19
3119.5
3704.65
1881.94
6887.27
11899.8
6923.46
9946.15
6398.99
9841.16
7280.7
3429.17
3197.88
5577.03
5446.74
4592.17
5059.35
8644.66
9104.86
7166.75
906.255
7635.6
4906.76
11105.7
1247.08
5346.48
4284.26
6635.16
7900.88
5363.77
986.34
6027.45
3117.16
3199.66
1691.2
313.965
453.017
1004.45
613.4
217.664
8641.6
10610.1
10922.3
10080.6
10354.7
5848.91
7442.67
7616.01
131.829
347.044
444.671
893.987
86.166
54.6456
477.318
601.404
649.61
516.035
495.361
88.6864
328.849
690.188
441.036
249.064
558.713
666.685
358.792
257.166
3087.68
459.995
401.738
55.2377
49.6182
26.6958
17.4406
28.136
42.6513
22.6475
19.0936
49.8865
39.2619
29.3942
465.172
92.676
124.905
221.964
376.965
44.1297
121.741
645.236
193.677
175.918
414.085
662.117
105.811
153.305
10.717
2.70367
9.48538
25.8242
10.1798
12.5031
24.3176
20.2608
49.6276
43.5327
0
24.2837
29.7884
7.49154
310.288
27.0289
78.3982
26.5518
123.169
37.6116
49.0194
570.688
94.397
86.4886
321.457
612.816
115.524
96.9012
23.1103
27.8058
21.6428
11.9774
19.2605
13.973
26.7264
23.3717
10.1677
14.6139
23.7997
23.0681
12.5458
0
38.8371
19.8109
44.0321
33.6385
6.51012
8.05578
17.7345
1945.82
240.674
399.492
252.207
1620.58
98.0926
297.716
23.05
9.04357
27.7693
7.47427
15.3235
13.7807
32.5657
11.6263
0
7.08309
0
0.451275
0
0
10.8968
5.58665
8.6203
12.2956
21.9468
6.6871
3.62975
1081.48
10.436
72.1065
271.926
784.284
5.83637
24.7184
13.9452
14.6333
25.5244
4.15752
26.4548
7.14102
19.6177
19.1082
4.0891
-1.53113e-13
14.9561
35.1144
6.72619
13.6567
48.7856
0
7.51186
13.7172
91.4315
0
0
460.982
5.92615
13.3451
487.615
408.97
-5.96237e-15
18.4744
3.05566
5.86246
19.2053
0
0
0.554888
11.3811
23.4437
6.60198
15.1306
10.3819
17.6012
11.3555
7.70918
277.095
0
2.64819
29.1799
623.504
0
27.5793
321.913
17.901
22.9886
2256.27
112.475
209.685
83.2342
0
4.39522
10.4131
0
0
0
0
0
12.4711
25.7178
14.813
1.54709
22.6192
6.18137
728.203
10.7428
158.131
194.854
151.468
79.0274
267.351
50.5617
274.707
110.487
33.2161
27.1349
157.23
132.095
0
0
0
0
7.01325
0
0
0
10.9896
10.088
0.2066
0
17.2172
18.2342
69.3727
161.937
222.684
79.3046
53.7476
166.384
32.8827
5.2718
160.609
103.886
20.0392
9.44176
72.5504
35.5849
15.3999
5.40691
13.6427
30.6642
100.058
98.4596
53.4161
5.64745
29.9778
54.5723
86.5423
85.2949
94.5471
222.25
38.9821
86.5275