/*--------------------------------*- C++ -*----------------------------------*\
| =========                 |                                                 |
| \\      /  F ield         | OpenFOAM: The Open Source CFD Toolbox           |
|  \\    /   O peration     | Version:  5.x                                   |
|   \\  /    A nd           | Web:      www.OpenFOAM.org                      |
|    \\/     M anipulation  |                                                 |
\*---------------------------------------------------------------------------*/
FoamFile
{
    version     2.0;
    format      ascii;
    class       surfaceScalarField;
    location    "1.8";
    object      phi;
}
// * * * * * * * * * * * * * * * * * * * * * * * * * * * * * * * * * * * * * //

dimensions      [0 3 -1 0 0 0 0];

internalField   nonuniform List<scalar> 
29271
(
-5.48807e-06
2.89123e-06
-1.72674e-06
4.39368e-06
-1.43591e-05
-7.81135e-06
9.79603e-06
1.23494e-05
-3.72996e-05
-1.20556e-05
8.00048e-06
-6.11436e-06
2.33304e-05
2.41387e-05
-2.66738e-05
-9.85231e-06
5.53586e-06
-5.33403e-06
2.15534e-05
1.47709e-05
-2.54854e-05
-5.40147e-07
-4.65928e-07
6.80368e-06
1.48883e-05
4.79953e-06
-3.92854e-05
-2.62906e-06
-5.48551e-06
1.00747e-05
1.1288e-06
3.61965e-05
-5.04925e-05
-3.08209e-05
-1.38975e-05
5.81436e-06
1.56512e-05
7.37454e-05
-6.14766e-05
-3.36533e-05
4.69499e-06
-1.92193e-05
2.59644e-05
8.36897e-05
-3.10818e-05
-9.26495e-06
1.96692e-05
-9.38189e-06
7.31908e-06
2.27404e-05
-2.25076e-05
-1.39865e-06
2.54743e-06
1.74079e-05
4.22729e-06
-6.40174e-06
-2.68834e-07
3.13875e-06
3.71569e-06
-3.74396e-05
-2.77769e-06
-2.98877e-06
4.50065e-06
2.36098e-06
3.63444e-05
-4.57412e-05
-1.08001e-05
-1.84805e-05
1.06106e-05
-1.79968e-07
6.45912e-05
-3.75013e-05
-3.16723e-06
5.03999e-06
-1.98739e-05
-7.74726e-06
6.32498e-05
-5.6842e-05
-5.11947e-06
1.61048e-05
-8.15929e-06
7.69599e-07
5.32463e-05
-3.04401e-05
-1.91601e-06
-2.00623e-06
3.33286e-06
2.46118e-05
6.41767e-06
-2.71335e-05
-3.00009e-06
4.91956e-06
-2.67233e-06
2.21912e-05
5.69516e-06
-5.23459e-05
-4.33582e-06
2.86987e-06
2.91983e-06
-9.07082e-07
5.17991e-05
-5.78839e-05
-4.15754e-06
2.44824e-06
-8.53955e-06
4.48872e-06
6.3644e-05
-3.50835e-05
-2.28955e-06
2.53421e-06
3.40577e-05
-1.42081e-06
2.20189e-06
-1.06993e-05
-1.48942e-06
4.44308e-06
8.06308e-06
-2.51974e-05
-2.9367e-06
2.88462e-06
2.39518e-05
1.60421e-06
-3.61204e-05
-2.70381e-07
5.35387e-07
-3.8867e-07
3.98786e-05
-3.6346e-06
-1.39805e-05
-2.7631e-06
-1.53668e-06
1.82174e-05
-2.70466e-06
8.93137e-09
1.04089e-06
1.75139e-06
-7.85559e-06
5.33218e-08
2.65584e-06
5.36249e-06
-3.68483e-06
-8.06382e-06
-2.61655e-05
5.2769e-06
1.86201e-06
3.07753e-05
-3.64449e-06
-1.16089e-05
-3.35521e-07
-8.30436e-07
2.16075e-06
1.42586e-05
-1.02363e-05
-1.80544e-06
6.21337e-07
4.91141e-06
6.04592e-06
4.63034e-07
-8.73374e-06
1.39654e-05
-3.47487e-05
-1.02757e-05
1.26191e-05
2.71736e-05
6.70764e-05
2.97217e-05
0.000207208
-7.4759e-05
-7.61488e-05
-6.97581e-05
-7.24973e-05
-4.40603e-06
-3.93586e-06
6.28035e-07
-1.55982e-06
-1.17876e-06
-8.02484e-07
4.99834e-07
-8.75255e-08
4.77397e-05
2.17764e-05
0.000373952
-9.423e-05
-6.68013e-05
-0.000119131
-9.31878e-05
-4.2205e-06
-2.99914e-06
1.04344e-06
3.13436e-06
1.30837e-06
2.83373e-05
0.000120132
-3.08926e-06
-2.98781e-06
-3.88014e-06
-2.89874e-06
2.15036e-06
2.35908e-06
7.28533e-06
-2.24727e-05
-1.91114e-05
-3.51585e-05
-2.42345e-05
-1.45536e-05
-2.48758e-06
5.86666e-06
1.27344e-05
-2.23269e-06
-3.39918e-06
2.37483e-06
3.26414e-06
1.27918e-05
-3.96796e-05
-1.11086e-05
-1.22883e-05
1.56865e-05
3.45982e-05
1.3718e-05
7.46534e-05
0.000150454
-6.61221e-05
-7.84825e-05
-4.65833e-05
-3.05994e-05
1.66087e-06
2.21214e-06
2.09233e-06
6.71867e-06
3.83402e-05
5.93622e-05
0.000140588
-7.85703e-05
-5.06959e-05
-3.60572e-05
-3.74729e-05
1.42496e-06
8.22596e-06
0.000175958
2.88306e-06
3.47761e-06
4.51638e-06
1.12562e-05
1.36656e-05
9.6229e-06
-5.15996e-05
-3.73611e-05
-3.56471e-05
-3.97451e-05
-2.76385e-05
-3.78401e-06
-3.68753e-06
2.03154e-06
3.45034e-05
-2.54908e-05
-2.2564e-06
3.67784e-06
5.41073e-07
3.31554e-05
-9.62715e-06
1.3604e-05
9.77175e-06
0.000207873
-1.92052e-06
-4.35901e-06
-4.98433e-06
-4.25759e-06
1.67462e-05
8.13662e-06
1.55933e-05
-5.25574e-05
-3.75383e-05
-4.47692e-05
-4.66855e-05
1.1004e-06
8.4612e-06
0.000193277
2.11462e-06
2.37382e-06
-6.24621e-07
8.34842e-06
5.41197e-06
5.7096e-06
-5.83376e-05
-3.05426e-05
-3.94288e-05
-2.4897e-05
-3.95213e-05
-1.1906e-06
2.89764e-06
4.71406e-05
-6.73222e-06
-3.44689e-06
5.07881e-06
5.12924e-06
-2.68685e-05
-4.47643e-06
1.54742e-05
2.56491e-05
-4.91158e-05
-8.5309e-06
4.62201e-06
-3.94275e-07
6.18802e-05
-2.59321e-05
-2.3291e-07
-2.70779e-06
2.88728e-05
-8.33136e-07
-4.43193e-07
1.71085e-06
-3.67471e-07
-5.29863e-06
-1.65665e-06
-6.76108e-07
7.864e-06
4.73634e-07
-1.59386e-07
-2.70267e-05
7.49264e-06
-1.01035e-06
2.02302e-05
-7.54393e-06
-2.70097e-05
-9.33708e-06
2.79042e-06
5.02193e-06
3.60784e-05
-6.06472e-07
-1.60275e-06
-1.68595e-07
6.62641e-06
-4.12375e-06
-1.24841e-07
-5.75665e-07
5.35897e-06
-1.77751e-05
-2.70379e-06
3.68515e-06
1.20105e-05
1.41772e-05
2.01353e-05
0.000177608
-3.97927e-06
-1.47713e-06
-1.26682e-06
1.07743e-06
-6.85836e-07
-6.81989e-08
4.63289e-07
1.2236e-06
3.95239e-05
2.35654e-05
0.000303319
2.19687e-06
2.26447e-06
7.85061e-06
9.40943e-06
5.45565e-07
2.09563e-05
0.000150743
-8.22231e-06
-2.53381e-06
-5.80352e-06
-2.80602e-06
3.08748e-06
1.0347e-06
2.65496e-06
-1.01509e-05
-6.37478e-07
3.89904e-06
7.46943e-06
-5.47382e-06
-3.69614e-06
5.13891e-06
4.02384e-06
-6.99992e-06
-3.04088e-05
-4.95478e-06
-2.64299e-07
6.81687e-06
3.58109e-05
-3.20313e-06
2.94702e-05
0.000141333
1.60127e-06
-3.99168e-07
2.69494e-06
-9.07601e-07
6.78659e-06
3.63067e-05
0.000117857
-1.59089e-06
6.31273e-06
0.000188625
-5.60592e-07
-2.24233e-06
-2.8307e-06
5.90323e-06
6.10227e-06
3.98196e-06
-4.38195e-05
-7.02913e-06
-2.51368e-06
8.11817e-06
4.36533e-05
-2.86949e-05
-2.00538e-06
1.48527e-05
9.028e-07
1.97656e-05
-4.82079e-06
5.67433e-06
1.59025e-06
0.000237952
-1.25452e-05
-3.04009e-06
-1.21187e-05
-2.03095e-06
1.00644e-05
3.01673e-06
8.7804e-06
-1.89542e-06
3.79871e-06
0.000228953
-3.3143e-06
-8.98978e-07
-4.39389e-06
4.43469e-06
4.15985e-06
4.41413e-06
-5.80929e-05
-1.091e-06
4.68577e-06
5.89154e-05
-7.01417e-06
-5.82235e-06
2.99332e-06
9.8442e-06
-2.09208e-05
6.26264e-08
7.70969e-06
1.47033e-05
-7.36633e-05
-8.02571e-06
6.51694e-06
-3.90161e-06
8.28724e-05
-3.20182e-05
7.96499e-07
-3.79261e-06
3.50102e-05
1.04995e-06
-1.62064e-07
4.67659e-07
-1.38828e-06
-9.6578e-06
1.85621e-06
8.0333e-07
6.95406e-06
-2.83358e-06
1.41399e-06
-1.80533e-05
-2.85886e-06
5.49444e-06
1.68373e-05
-1.65917e-06
-3.70216e-05
1.69792e-06
1.57881e-06
4.39105e-06
3.1013e-05
5.50322e-06
-4.83691e-07
1.865e-07
3.42281e-06
-5.72284e-06
-2.906e-06
-1.83518e-06
3.35339e-07
-9.32759e-06
-1.64832e-06
2.48341e-06
9.99234e-06
-1.65547e-06
1.02253e-05
0.000217408
-5.08365e-06
-6.22002e-06
-1.37717e-05
-1.15711e-05
1.04623e-06
3.30548e-07
-6.07239e-06
-7.0277e-06
1.65393e-06
2.1372e-05
0.000286199
-2.23216e-06
9.0265e-07
-4.3513e-06
-1.88093e-06
-1.02985e-06
1.9854e-05
0.000159871
-9.11016e-06
-4.17496e-06
-7.28293e-06
-3.17539e-06
-8.83842e-07
-6.80853e-07
-9.90226e-07
-5.95982e-06
-3.00192e-07
9.43882e-07
4.29299e-06
-6.65287e-07
-9.62413e-10
2.32514e-06
-1.65764e-06
-2.02595e-05
-5.0279e-05
-1.89742e-06
1.34778e-05
6.28737e-07
5.83294e-05
1.04344e-06
3.9627e-06
0.000186503
-8.49025e-06
-7.41833e-06
-1.49931e-05
-9.05007e-06
-2.39802e-05
7.8237e-06
0.000156429
-7.37197e-06
9.70352e-07
0.000213764
-8.47623e-06
-6.10517e-06
-7.20817e-06
1.52708e-07
4.11064e-07
-1.63744e-06
-4.10704e-05
-3.69847e-06
-1.05682e-06
5.04674e-06
3.3407e-05
-1.17124e-05
-6.80056e-07
7.21164e-06
2.97777e-07
5.69808e-06
-8.15028e-07
-7.82897e-06
2.25718e-06
0.000261121
-1.2357e-05
-8.72057e-07
-9.05508e-06
-2.48635e-07
3.55248e-06
3.57098e-06
1.7754e-06
-5.02645e-06
-7.26893e-07
0.00024448
-4.98671e-06
-1.32922e-06
-4.00374e-06
7.32298e-08
-1.61607e-07
6.28899e-07
-6.14141e-05
-2.60675e-06
2.22691e-06
5.77378e-05
-1.10495e-05
-1.975e-06
4.04033e-06
8.9937e-06
-1.31815e-05
-4.41685e-07
2.04719e-06
1.38151e-05
-9.00966e-05
-3.37108e-06
5.04395e-06
-3.69503e-06
9.13919e-05
-3.79124e-05
3.93143e-07
-2.36102e-06
3.98803e-05
1.54836e-06
-5.41957e-08
7.93805e-08
-1.58276e-06
-1.28436e-06
1.73896e-07
1.96739e-06
-8.58592e-07
-2.02746e-07
2.82935e-06
-1.27797e-05
-5.35629e-06
4.82423e-06
1.06852e-05
-2.5758e-07
-2.43928e-05
3.16222e-06
-4.50304e-07
4.49353e-06
1.7445e-05
5.93231e-06
-7.10866e-08
2.86666e-08
2.16681e-06
-6.47603e-06
-1.58067e-06
-7.1798e-06
-5.36206e-06
-1.31208e-05
4.26054e-06
5.29711e-06
1.6105e-05
1.95343e-06
1.11636e-05
0.000224202
-7.17143e-06
-7.10793e-06
-2.7964e-06
-2.56824e-06
-1.55731e-06
-3.53893e-06
3.16607e-06
1.66288e-06
-5.83191e-06
1.67156e-05
0.000302744
-6.60544e-06
-7.06984e-06
-5.57452e-06
-6.22542e-06
-3.04074e-07
1.63211e-05
0.000152867
-7.59665e-06
-2.42487e-06
-4.30811e-06
-1.89476e-06
-9.95137e-07
1.6587e-06
7.16136e-07
-3.70539e-06
-5.82471e-07
2.83815e-07
3.69684e-06
2.1657e-06
2.70583e-07
-5.80721e-07
-1.85508e-06
-1.36298e-05
-5.72374e-05
-1.99769e-06
1.87774e-05
6.41482e-07
5.3446e-05
1.83202e-06
1.46578e-05
0.000223632
-1.51531e-05
-9.71231e-06
-1.11701e-05
-6.41939e-06
-2.12532e-05
1.48684e-06
0.000194743
-2.35466e-06
-2.55099e-06
0.000217624
-2.64265e-06
-1.46273e-07
4.77169e-07
-1.76704e-06
3.54529e-07
-1.62219e-07
-2.74467e-05
-6.65105e-07
-1.97779e-07
9.33101e-09
2.59456e-05
-1.91592e-06
-1.32372e-06
4.2631e-06
2.32698e-07
1.93192e-07
-1.44934e-06
-1.05068e-05
3.38838e-06
0.000285822
-7.35524e-06
4.32313e-07
-2.12338e-06
9.75676e-07
8.25179e-07
2.90812e-06
1.41228e-06
-1.98517e-06
-2.44295e-06
0.00024621
-3.07917e-06
7.92991e-07
-1.87996e-06
-4.56211e-07
-1.55533e-06
-1.43919e-07
-5.77545e-05
2.70783e-07
-2.23836e-07
5.31714e-05
-6.01506e-06
1.18576e-06
1.64345e-07
4.6827e-06
-1.66684e-05
1.21145e-06
-1.46106e-06
2.03059e-05
-9.25743e-05
-5.91888e-07
2.08313e-06
-2.46871e-06
9.11088e-05
-4.16824e-05
-1.52839e-07
-9.46717e-07
4.2782e-05
1.54891e-06
-3.12082e-08
-6.34712e-08
-1.45916e-06
1.41143e-06
4.78892e-08
2.9312e-07
-1.75343e-06
-8.92121e-08
2.02746e-06
-1.129e-05
-3.71689e-06
1.07056e-06
1.19981e-05
3.68307e-07
-1.1326e-05
3.19136e-06
-9.23143e-07
2.05062e-06
6.63885e-06
6.43901e-06
8.54196e-08
-2.40455e-08
-2.3873e-07
-6.13638e-06
-1.25279e-07
-4.0146e-06
-2.62431e-06
-1.89999e-05
-2.1411e-07
4.60791e-06
2.1245e-05
-2.62295e-06
6.76335e-06
0.00021626
-1.62038e-06
-2.34044e-06
-1.98281e-07
3.11042e-08
2.86565e-06
-4.63325e-07
4.15479e-06
1.37242e-06
-8.24893e-06
1.83831e-05
0.000302436
-4.70738e-06
-5.35497e-06
-1.1445e-06
-1.24217e-06
9.92521e-07
1.38828e-05
0.000128143
-2.72373e-06
-1.09219e-06
8.07184e-08
-1.36261e-06
1.44178e-06
2.22358e-06
3.03167e-06
-5.41394e-06
-8.59856e-07
7.00494e-07
-1.99533e-06
8.56115e-06
2.15237e-08
5.37311e-09
3.92578e-08
-6.77063e-08
1.71048e-06
-5.00773e-07
5.68465e-07
-1.78093e-06
-8.07682e-06
-5.08071e-05
-3.9923e-06
1.30267e-05
2.33897e-06
4.75105e-05
-5.37514e-07
1.56395e-05
0.000248508
-1.14258e-05
-8.65931e-06
-7.71882e-06
-5.41045e-06
-1.59031e-05
1.49706e-06
0.000226995
1.4632e-06
-1.12606e-06
0.000205747
2.49599e-06
2.08417e-06
2.49792e-06
7.53272e-07
1.67922e-06
8.61189e-09
-2.71539e-05
-6.33241e-07
3.03651e-06
3.98693e-06
2.22269e-05
-1.87283e-08
-1.50259e-07
5.81704e-09
5.39358e-09
1.56487e-07
-5.31633e-07
-4.66323e-07
-3.85148e-07
-2.49102e-07
2.80031e-06
-1.1681e-06
-1.45242e-05
1.48256e-06
0.000301381
7.3463e-07
2.51609e-06
4.10227e-06
3.11614e-06
8.94494e-07
2.25204e-07
1.53322e-06
-6.40572e-07
-2.6277e-06
0.000240224
-1.27571e-06
7.91196e-07
-3.45402e-07
-7.11764e-07
-1.77545e-06
-4.55986e-07
-5.10665e-05
3.4731e-06
5.71881e-07
4.52549e-05
-6.57561e-06
6.76722e-07
-4.66628e-06
1.05105e-05
-2.38314e-05
3.97493e-06
-5.04983e-06
2.63905e-05
-8.97858e-05
1.23675e-06
4.44475e-07
-1.44574e-06
8.69227e-05
-4.34859e-05
-1.38537e-07
-9.74589e-08
4.37219e-05
1.33426e-06
-4.74964e-08
-6.57622e-08
-1.21467e-06
1.81748e-06
-3.72613e-07
3.63561e-07
-1.81024e-06
1.37925e-07
1.24686e-06
-1.37301e-05
-2.83266e-06
-8.96719e-08
1.52676e-05
4.37372e-07
-3.89843e-06
3.38232e-06
-8.99306e-07
-4.07415e-07
1.38545e-06
5.04639e-06
2.65695e-07
9.12314e-08
-1.10503e-06
-4.2774e-06
-2.08767e-08
-3.29384e-06
-1.11795e-08
-2.43206e-05
-3.47274e-06
4.32124e-06
2.67771e-05
-8.92724e-06
-1.13525e-06
0.00021355
5.19319e-07
3.46041e-07
5.54122e-07
1.43234e-06
4.12041e-06
1.02311e-07
4.62752e-06
1.07075e-06
-6.563e-06
1.86043e-05
0.000283512
-1.1646e-06
-1.12215e-06
3.45674e-07
-1.0338e-07
2.16314e-06
9.5922e-06
0.000100555
7.67999e-09
-3.18372e-07
2.97763e-07
-1.12404e-07
2.87059e-06
2.54175e-06
3.98311e-06
-9.17291e-06
9.34903e-08
5.84475e-06
-2.85556e-09
5.40067e-06
3.44902e-07
-1.27118e-06
-3.47182e-06
2.23903e-06
1.79969e-06
3.59382e-07
1.84574e-06
-4.39166e-07
4.35025e-07
-1.84421e-06
-4.02e-06
-4.49236e-05
-4.81891e-06
7.69201e-06
2.6938e-06
4.33766e-05
-3.86988e-06
9.33335e-06
0.000266623
-7.71866e-06
-7.31889e-06
-5.17866e-06
-4.49768e-06
-1.02228e-05
4.36789e-06
0.000247584
2.7502e-06
3.85836e-07
0.000184439
4.0435e-06
3.37179e-06
5.26135e-06
1.12732e-06
2.25506e-06
1.4824e-06
-1.93031e-05
-1.40747e-06
4.79246e-06
2.39075e-06
1.62775e-05
-2.15418e-06
-1.78715e-06
-3.52498e-06
2.51596e-07
1.67679e-06
5.53793e-06
-5.91055e-06
9.34793e-07
-3.46971e-06
-1.00138e-06
9.56982e-06
-1.22976e-07
-1.51278e-05
-1.09714e-06
0.000308166
4.24616e-06
3.95067e-06
6.48289e-06
4.38943e-06
5.06654e-07
-1.46639e-06
6.63948e-07
2.32175e-07
-2.71424e-06
0.000234733
-1.30726e-07
2.10172e-06
2.05664e-07
-1.03562e-06
-2.75254e-06
-1.17559e-06
-4.26294e-05
3.96508e-06
6.92184e-07
3.85901e-05
-1.26452e-05
-4.3504e-06
-5.37709e-06
4.09198e-06
1.82779e-05
-1.55847e-06
-6.71378e-07
-2.71015e-09
2.23256e-06
-2.82611e-05
5.0177e-06
-6.61953e-06
2.87682e-05
-8.43968e-05
2.60414e-06
-1.21766e-06
-9.62579e-07
8.12587e-05
-4.36979e-05
-4.27312e-08
3.04168e-07
4.34364e-05
1.16816e-06
-7.34986e-08
-5.99989e-08
-1.03686e-06
1.68526e-06
-9.71174e-07
8.95339e-07
-1.61162e-06
-4.23924e-08
1.59579e-06
-1.65405e-05
-3.02172e-06
5.33651e-07
1.74751e-05
1.04281e-07
3.75723e-07
1.24239e-06
4.73441e-07
4.72438e-07
-2.66827e-06
3.80922e-06
1.40101e-07
1.33299e-07
1.49571e-07
-3.97021e-06
-2.61985e-07
-2.5762e-06
1.35915e-06
-2.94544e-05
-5.25801e-06
4.28588e-06
3.16436e-05
-6.45828e-06
-6.13182e-06
0.00021419
5.22981e-07
5.35981e-07
1.41273e-07
6.19518e-07
4.75904e-06
-1.07703e-07
4.76076e-06
7.17871e-07
-3.20935e-06
1.7421e-05
0.00026678
-1.59998e-06
-1.36533e-06
-4.69787e-07
-5.03391e-07
-1.60889e-07
3.52185e-06
9.29032e-05
-5.58851e-07
-1.89736e-07
-2.28029e-07
-1.2262e-07
2.95258e-06
-1.47572e-06
7.03598e-07
-4.88242e-06
-3.07042e-07
8.90764e-09
7.64992e-07
4.25467e-06
-1.9289e-06
-8.17987e-07
-1.29927e-07
-1.4246e-06
1.97849e-06
2.32292e-06
1.78899e-06
-3.78218e-07
2.59118e-07
-1.67168e-06
-2.27806e-06
-4.2857e-05
-4.82369e-06
4.73638e-06
1.74522e-06
4.34772e-05
-2.54053e-06
4.03372e-07
0.000281102
-5.87164e-06
-6.16497e-06
-3.2082e-06
-3.22932e-06
-5.18971e-06
4.93872e-06
0.000262716
2.579e-06
-3.9127e-07
0.000170656
4.91709e-06
1.56288e-06
2.71303e-06
1.30862e-07
4.23362e-07
1.79953e-07
-1.59144e-05
-7.06718e-07
2.09859e-06
7.17724e-07
1.63838e-05
-7.85279e-06
-1.86605e-06
-5.81479e-07
-1.22574e-06
1.46029e-06
1.00658e-05
-1.34792e-05
1.91997e-06
-5.33515e-06
-1.45329e-06
1.72315e-05
1.11614e-06
-1.33382e-05
-2.5625e-06
0.000308393
5.41505e-06
4.22347e-06
7.39489e-06
4.23886e-06
-1.33915e-06
-2.46183e-06
-1.39432e-06
9.92668e-07
-3.62135e-06
0.000231872
3.94306e-07
2.51971e-06
5.37098e-07
-1.3946e-06
-3.42225e-06
-1.54407e-06
-3.86837e-05
2.75675e-06
-1.35018e-07
3.66633e-05
-2.11199e-05
3.07056e-07
-3.56255e-06
2.55832e-06
2.18167e-05
-4.08143e-06
-6.4708e-07
-2.36826e-06
1.99648e-06
5.1003e-06
-2.91228e-05
4.65793e-06
-6.74745e-06
2.86538e-05
-7.82397e-05
2.68069e-06
-1.1228e-06
-1.10222e-06
7.41627e-05
-4.29608e-05
7.52648e-07
1.23939e-07
4.20842e-05
9.29324e-07
-7.8987e-08
-6.83192e-09
-8.53185e-07
1.8079e-06
-8.43232e-07
1.17335e-06
-2.13582e-06
1.03637e-07
2.17713e-06
-1.76982e-05
-1.10872e-06
5.2412e-07
1.6002e-05
4.56968e-07
3.75139e-06
-1.51854e-06
1.14036e-06
-3.65741e-07
-3.46444e-06
3.91335e-06
8.33915e-08
1.58656e-07
-2.43482e-07
-3.23884e-06
-6.73079e-07
-2.05746e-06
2.00519e-06
-3.34908e-05
-5.44678e-06
3.93935e-06
3.50505e-05
-4.2166e-06
-1.39176e-05
0.000217426
9.89788e-07
5.43169e-07
1.51654e-06
1.86237e-06
4.85546e-06
-5.20442e-07
4.79017e-06
8.61264e-07
-9.94533e-07
9.21671e-06
0.000252576
-4.73112e-07
-1.29752e-07
3.3249e-07
2.03625e-06
-1.7023e-06
-1.71529e-06
9.86209e-05
7.02269e-07
2.68406e-07
2.10968e-06
1.03746e-06
8.69903e-07
-6.89559e-06
-1.38685e-06
-6.13669e-06
1.07002e-06
-5.35909e-06
-6.23914e-07
9.34738e-06
1.24236e-06
6.88399e-06
-3.36793e-06
-3.17355e-06
-1.58486e-06
1.53511e-06
-2.21128e-07
1.25991e-07
-1.44296e-06
-8.95958e-07
-4.53974e-05
-2.76672e-06
2.31922e-06
-2.03462e-06
4.87755e-05
-1.12467e-06
-3.87957e-06
0.000283206
-3.49104e-06
-4.62368e-06
-8.72754e-07
-2.02948e-06
-5.35208e-06
5.33679e-06
0.000270823
-5.1081e-08
-1.30758e-06
0.00016869
1.97383e-06
-2.41859e-06
-1.67995e-06
1.73701e-08
-3.19278e-07
-1.31651e-06
-1.8155e-05
-1.12622e-07
-1.33563e-06
1.54992e-08
1.95367e-05
-1.05731e-05
1.12111e-06
2.84531e-06
5.58296e-07
-2.50194e-06
8.55033e-06
-2.03721e-05
2.29332e-06
-5.94186e-06
-1.18979e-06
2.24736e-05
2.73683e-06
-8.88606e-06
-2.8902e-06
0.000301062
5.74991e-06
3.84069e-06
7.63458e-06
4.02081e-06
-2.09128e-06
-2.3689e-06
-1.55746e-06
1.6515e-06
-4.00041e-06
0.00023296
9.46766e-07
3.33332e-06
1.50874e-06
-2.14853e-06
-3.47426e-06
-2.45395e-06
-3.78425e-05
2.12924e-06
-1.93274e-06
3.799e-05
-1.77064e-05
-1.14531e-06
-2.13154e-06
2.09828e-05
-2.80066e-05
4.2623e-06
-5.82467e-06
2.668e-05
-7.03999e-05
2.14318e-06
7.79086e-08
-1.95879e-06
6.61372e-05
-4.10182e-05
2.14491e-06
-7.57921e-07
3.96221e-05
8.0724e-07
-1.57727e-07
8.87834e-08
-7.52967e-07
2.09126e-06
-5.07489e-07
5.46741e-07
-2.12972e-06
1.43304e-07
2.41892e-06
-1.36123e-05
-6.01337e-07
-3.9426e-07
1.20457e-05
-4.98548e-08
3.17328e-06
-1.14187e-06
1.2481e-06
-3.79427e-07
-2.85023e-06
1.59053e-06
5.14595e-07
1.67506e-09
-1.93926e-06
7.46154e-07
-9.13693e-07
-1.12694e-06
2.74478e-06
-3.65635e-05
-5.52339e-06
2.44542e-06
3.80236e-05
-8.77543e-06
-2.30375e-05
0.000223599
2.88074e-06
2.73865e-06
3.88635e-06
4.535e-06
4.83389e-06
-1.23863e-07
5.0858e-06
1.80379e-06
-1.6465e-06
7.96097e-06
0.00022881
5.48784e-07
2.17625e-06
2.22995e-06
3.72132e-06
-6.38162e-06
-5.94666e-06
0.000106621
2.70878e-06
1.87412e-06
4.08427e-06
3.38027e-06
-3.46529e-06
-4.18693e-06
-1.71362e-06
-1.49479e-05
-2.92321e-07
-5.64498e-06
1.45037e-05
1.26794e-06
-1.42147e-07
3.22229e-08
-1.16241e-06
1.20192e-06
-5.28194e-05
4.70481e-07
5.26693e-07
-5.46068e-06
5.6081e-05
-4.37769e-07
-1.15817e-05
0.000278224
-2.12277e-06
-3.48603e-06
1.68902e-07
-5.96349e-07
-3.40947e-06
6.54016e-06
0.000275215
-3.2938e-06
-2.7405e-06
0.000175556
-2.51345e-06
-1.05788e-06
-5.41594e-07
-2.55619e-06
-1.30273e-06
-2.21541e-06
-3.05248e-05
1.87472e-06
-4.0232e-06
-2.03211e-06
3.14116e-05
-2.45738e-05
2.06946e-06
-6.48255e-06
-1.45847e-06
2.60893e-05
4.35607e-06
-5.79006e-06
-2.56623e-06
0.000282174
5.78386e-06
3.51675e-06
7.93694e-06
3.73958e-06
-2.34142e-06
-1.89449e-06
-1.07921e-06
2.61883e-06
-3.2484e-06
0.000232564
1.95557e-06
4.58845e-06
2.81726e-06
-2.9748e-06
-2.54966e-06
-2.06125e-06
-4.09427e-05
2.82917e-06
-3.37025e-06
4.13621e-05
-2.11709e-05
5.24572e-06
-2.10625e-06
1.80295e-05
-2.47802e-05
3.09213e-06
-3.07805e-06
2.22046e-05
-6.23422e-05
1.30346e-06
9.52851e-07
-1.82233e-06
5.86599e-05
-3.87359e-05
3.77415e-06
-2.45829e-06
3.74287e-05
7.63473e-07
-5.47205e-07
4.77815e-07
-6.99403e-07
2.00041e-06
2.28353e-07
-6.30278e-07
-1.60166e-06
1.10564e-06
8.32252e-07
-1.09786e-05
4.22792e-07
-2.08907e-06
1.0707e-05
7.3966e-08
2.15163e-06
-1.22697e-06
1.35197e-06
-2.09366e-06
-2.5693e-07
-4.39624e-06
2.5684e-06
-4.5571e-07
-3.83601e-06
7.87172e-06
-1.75215e-06
6.44633e-07
3.50677e-06
-4.00281e-05
-5.75823e-06
-2.05272e-07
4.18402e-05
-3.62722e-06
-2.77548e-05
0.000217479
5.42696e-06
5.83642e-06
6.88102e-06
7.03728e-06
4.69143e-06
1.52907e-07
4.98926e-06
2.48682e-06
4.51558e-06
6.0739e-07
0.000200857
3.65552e-06
4.75232e-06
5.23424e-06
5.56076e-06
-3.29218e-06
-8.54055e-06
0.000111345
3.41237e-06
3.17446e-06
3.7119e-06
3.23384e-06
2.46659e-07
-2.69162e-06
5.36351e-07
-1.52812e-05
1.46397e-07
-4.24335e-06
1.6086e-05
9.8187e-07
-1.17915e-07
-2.5839e-07
-6.13154e-07
2.86775e-06
-5.83411e-05
3.71691e-06
-8.66434e-07
-6.42333e-06
5.90462e-05
7.78756e-06
-1.24675e-05
0.000256081
-1.69093e-06
-2.07062e-06
1.28097e-06
1.5488e-06
7.30335e-06
9.07704e-06
0.00026723
1.53756e-06
-3.765e-06
0.000179906
9.72808e-07
2.4459e-06
1.86353e-06
-3.40867e-06
-2.01895e-06
-3.21449e-06
-3.18065e-05
2.22588e-06
2.60803e-06
-4.75765e-06
3.32678e-05
-2.79923e-05
2.88707e-06
-7.28628e-06
-1.32319e-06
2.93429e-05
4.37186e-06
-1.99795e-06
-8.63833e-07
0.000248893
6.42905e-06
3.91998e-06
8.44608e-06
4.18651e-06
-8.31673e-07
9.70713e-07
5.54644e-07
4.12434e-06
-2.28614e-06
0.000227225
3.62872e-06
6.11658e-06
4.21057e-06
-1.66434e-06
-1.18254e-06
-5.29479e-07
-4.43469e-05
4.58627e-06
-4.44282e-06
4.45628e-05
-1.8033e-05
4.27135e-06
-4.79454e-06
1.85562e-05
-2.01649e-05
1.15656e-06
-8.78157e-07
1.90176e-05
-5.56371e-05
7.29587e-07
9.77048e-07
-1.46522e-06
5.31095e-05
-3.56958e-05
4.85015e-06
-2.92059e-06
3.37664e-05
3.53504e-07
-5.90397e-07
-4.28898e-07
6.65744e-07
8.36874e-07
1.09091e-06
-2.9384e-06
1.00944e-06
1.94945e-06
-8.5908e-07
-1.18847e-05
2.4052e-06
-4.95292e-06
1.33421e-05
4.80101e-07
-2.13591e-06
-2.39871e-06
1.88568e-06
-2.00886e-06
4.1777e-06
-1.09173e-05
3.85815e-06
-1.27212e-06
-3.46822e-06
1.32806e-05
-1.48113e-06
3.35103e-06
4.95983e-06
-4.33875e-05
-6.60122e-06
-2.7905e-06
4.44684e-05
4.38268e-06
-2.03412e-05
0.00019945
6.30013e-06
6.22098e-06
6.88942e-06
8.2624e-06
3.38489e-06
-2.22067e-07
2.40147e-06
7.50051e-07
9.29515e-06
-4.55046e-07
0.000177493
3.98712e-06
4.27399e-06
5.10356e-06
5.5414e-06
-2.64434e-06
-7.42666e-06
0.000119571
3.1795e-06
2.84507e-06
3.94554e-06
2.67056e-06
2.69553e-07
-2.38385e-06
6.13979e-07
-1.70986e-05
1.81995e-07
-3.97598e-06
1.82483e-05
-2.23485e-07
-1.94936e-07
-1.28041e-06
1.69498e-06
5.00259e-06
-5.97727e-05
5.24471e-06
-3.14696e-06
-6.78229e-06
5.94546e-05
1.07633e-05
-4.50907e-06
0.000228141
-1.31022e-06
6.62164e-08
6.08098e-07
1.98111e-06
1.28914e-05
9.42852e-06
0.000255218
2.64468e-06
-3.46291e-06
0.000186538
2.27696e-06
2.96325e-06
2.48595e-06
-3.468e-06
-1.51733e-06
-3.09023e-06
-3.55324e-05
2.59204e-06
3.36276e-06
-5.73078e-06
3.79531e-05
-3.15384e-05
3.31776e-06
-8.3511e-06
2.13475e-07
3.28642e-05
3.49405e-06
1.81704e-06
1.70765e-06
0.000218666
5.58777e-06
2.58338e-06
5.31061e-06
2.36318e-06
1.456e-06
2.88441e-06
2.00774e-06
4.24821e-06
-7.34945e-07
0.000219199
4.11133e-06
5.912e-06
4.43297e-06
-2.99575e-09
5.31884e-07
7.73e-07
-4.70082e-05
5.15408e-06
-3.7237e-06
4.63632e-05
-1.96926e-05
5.04227e-06
-6.05343e-06
2.07038e-05
-2.00346e-05
-9.13882e-07
4.40628e-08
2.26071e-05
-5.12112e-05
7.4767e-07
7.40473e-07
8.86173e-08
4.88995e-05
-3.22029e-05
4.41758e-06
-2.92477e-06
3.07076e-05
-1.97178e-06
1.45906e-06
-2.435e-06
2.94772e-06
-4.0225e-06
5.44493e-07
-3.05548e-06
6.52883e-06
1.95948e-06
-1.90732e-06
-1.41252e-05
3.97292e-06
-3.28767e-06
1.33878e-05
9.64374e-08
-6.95035e-06
-4.50287e-06
2.64872e-06
-1.24736e-06
9.95543e-06
-1.4989e-05
4.85454e-06
-1.74782e-06
-3.86356e-06
1.6407e-05
-6.61209e-07
3.67459e-06
4.76098e-06
-4.35202e-05
-3.7205e-06
-2.68311e-06
4.14883e-05
7.14025e-06
-1.22754e-05
0.000187496
4.4985e-06
5.22139e-06
3.31936e-06
4.73437e-06
4.57567e-07
-1.62733e-06
5.22603e-07
-3.76883e-08
3.76571e-06
1.06919e-06
0.000165645
3.59889e-06
3.61725e-06
3.54988e-06
3.38694e-06
-2.51236e-06
-6.27146e-06
0.000124141
3.22047e-06
2.20615e-06
3.4303e-06
2.00192e-06
-3.0606e-07
-2.29627e-06
-2.76422e-07
-1.94716e-05
9.91126e-07
-4.35823e-06
2.03258e-05
-4.16476e-06
-3.03662e-08
-2.70284e-06
6.8978e-06
6.55044e-06
-5.83121e-05
2.54055e-06
-3.31297e-06
-2.70714e-06
5.52412e-05
9.51634e-06
-6.48567e-06
0.000214886
-1.51169e-06
-7.54855e-07
-3.86609e-07
6.01862e-07
1.03366e-05
8.75882e-06
0.000246708
2.5859e-06
-3.11894e-06
0.00019087
2.40354e-06
2.56279e-06
2.20763e-06
-3.13278e-06
-9.28954e-07
-2.84609e-06
-4.03217e-05
2.99867e-06
3.83536e-06
-6.36077e-06
4.24343e-05
-3.31696e-05
1.39645e-06
-3.99299e-06
2.06502e-06
3.37096e-05
-8.45042e-09
1.78224e-06
1.69137e-06
0.000196646
3.42162e-06
1.85593e-06
3.77193e-06
1.31026e-06
8.50637e-07
4.58312e-07
3.92318e-07
3.48241e-06
1.20522e-07
0.000212502
3.82567e-06
4.15026e-06
3.29743e-06
1.08438e-06
1.24859e-07
1.15261e-06
-4.8833e-05
4.34735e-06
-2.75778e-06
4.76069e-05
-2.17063e-05
5.07275e-06
-5.8061e-06
2.24395e-05
-2.58369e-05
-5.80232e-07
4.86892e-07
2.76227e-05
-4.78979e-05
4.20513e-07
6.67267e-07
-6.58342e-08
4.69965e-05
-2.9545e-05
3.01266e-06
-2.26766e-06
2.87941e-05
-3.2895e-06
2.35253e-06
-2.67498e-06
3.61252e-06
-7.80982e-06
5.31441e-07
-8.38294e-07
8.11667e-06
1.65205e-07
-1.47772e-06
-1.21607e-05
3.12526e-06
-1.23183e-06
1.15798e-05
1.55283e-06
-1.21187e-05
-4.49652e-06
3.0173e-06
-1.64858e-06
1.36936e-05
-1.77923e-05
4.96801e-06
-1.89839e-06
-3.59669e-06
1.89941e-05
-6.74804e-07
1.61235e-06
2.17194e-06
-4.01763e-05
-2.1057e-06
-1.28392e-06
3.97816e-05
5.55154e-06
-8.18245e-06
0.000185728
1.56516e-06
2.23928e-06
7.67432e-07
2.00595e-06
1.0077e-07
-1.25828e-06
-4.90537e-07
-5.30263e-07
1.69127e-07
2.73801e-06
0.000159141
2.31723e-06
1.75139e-06
2.82851e-06
2.2519e-06
-2.6457e-06
-5.05387e-06
0.000127311
2.46485e-06
1.63402e-06
2.80512e-06
1.58806e-06
-7.51692e-07
-2.40967e-06
-6.32252e-07
-2.14274e-05
1.84615e-06
-5.1208e-06
2.20564e-05
-7.86351e-06
-3.1412e-07
1.10584e-07
8.06704e-06
1.65662e-06
-5.29978e-05
7.16088e-07
-6.56127e-07
-2.18367e-06
5.34649e-05
7.17107e-06
-9.00864e-06
0.000212978
-2.04754e-06
-9.64819e-07
-1.22444e-06
-1.99975e-07
5.84348e-06
6.74176e-06
0.000244032
2.00381e-06
-2.413e-06
0.000192142
1.8765e-06
1.92066e-06
1.82216e-06
-2.77839e-06
-5.4032e-07
-2.37319e-06
-4.42348e-05
3.50952e-06
3.62835e-06
-6.28237e-06
4.53831e-05
-3.47924e-05
-1.80047e-07
-2.63613e-06
5.56913e-07
3.56356e-05
1.41612e-06
8.56444e-07
-9.97808e-08
0.000182034
2.3405e-06
7.75319e-07
2.73769e-06
3.41491e-07
-2.27533e-07
-5.11793e-07
-6.08596e-07
1.83424e-06
2.34404e-08
0.000207638
2.52636e-06
3.07528e-06
2.35735e-06
1.17754e-06
2.12478e-07
1.25616e-06
-4.90042e-05
2.82247e-06
-1.66129e-06
4.72643e-05
-2.28593e-05
4.51297e-06
-4.72663e-06
2.30729e-05
-2.83701e-05
-3.38932e-07
-1.05873e-07
2.87151e-05
-4.62326e-05
1.24544e-07
9.79715e-07
-4.78897e-08
4.51997e-05
-2.85616e-05
2.0061e-06
-1.99437e-06
2.85498e-05
-3.83496e-06
2.66249e-06
-2.963e-06
4.13546e-06
-8.1953e-06
1.42045e-06
-1.36476e-06
8.13961e-06
-8.6708e-08
-2.14093e-06
-1.08485e-05
3.49497e-06
-7.07479e-07
1.02886e-05
2.31513e-06
-1.50103e-05
-4.65459e-06
3.10445e-06
-1.95419e-06
1.61995e-05
-2.02878e-05
4.72599e-06
-2.24658e-06
-3.29349e-06
2.15681e-05
-4.66155e-07
7.64821e-07
6.21277e-07
-3.93027e-05
-7.78682e-07
2.58863e-07
3.84364e-05
9.09439e-06
-7.63752e-06
0.000186861
2.06273e-07
1.03348e-06
1.75738e-07
1.9935e-06
-1.22029e-06
-2.25979e-06
-1.30753e-06
-1.21157e-06
1.74099e-06
3.0598e-06
0.000156759
1.65091e-06
9.99691e-07
2.34779e-06
1.67713e-06
-2.39944e-06
-4.43959e-06
0.000131418
2.00805e-06
1.45325e-06
2.53984e-06
1.70245e-06
-6.81334e-07
-2.06435e-06
-4.8454e-07
-2.2646e-05
2.24965e-06
-5.23079e-06
2.32277e-05
-8.07109e-06
-3.77421e-07
2.39031e-07
8.20948e-06
6.04265e-07
-5.44233e-05
-7.03348e-07
5.43872e-07
-1.01427e-06
5.49928e-05
7.85805e-06
-6.75183e-06
0.000211476
-3.02794e-06
-1.7565e-06
-1.88376e-06
-5.73353e-07
4.87936e-06
5.04101e-06
0.00024503
1.52942e-06
-2.14681e-06
0.000192296
1.70507e-06
1.63768e-06
1.69376e-06
-2.15499e-06
-3.47224e-07
-1.63137e-06
-4.62452e-05
3.51741e-06
3.33877e-06
-5.47981e-06
4.63983e-05
-3.60766e-05
-1.07192e-06
-1.37497e-06
9.89894e-07
3.64653e-05
1.06832e-06
-5.55483e-07
-2.1319e-07
0.000172222
1.55222e-06
2.75441e-07
2.50971e-06
3.95026e-07
-4.73905e-07
-1.15699e-07
-3.13769e-07
9.74484e-07
1.65e-07
0.000202521
1.49355e-06
2.43402e-06
1.41008e-06
1.30709e-06
4.43992e-07
1.3738e-06
-4.85726e-05
1.97669e-06
-1.47501e-06
4.68986e-05
-2.32046e-05
3.93613e-06
-3.94947e-06
2.3218e-05
-2.89051e-05
4.39464e-08
-5.99651e-07
2.92476e-05
-4.43598e-05
1.399e-07
4.98216e-07
1.97124e-07
4.36896e-05
-2.85711e-05
1.52368e-06
-1.53541e-06
2.85828e-05
-4.51619e-06
2.94125e-06
-3.30152e-06
4.87621e-06
-7.63687e-06
1.79507e-06
-1.12009e-06
6.96189e-06
-1.56696e-06
-1.57371e-06
-1.02026e-05
2.4566e-06
-3.0513e-07
1.11919e-05
2.54574e-06
-1.74496e-05
-3.55298e-06
2.56431e-06
-2.31458e-06
1.82071e-05
-2.29827e-05
4.89201e-06
-2.53755e-06
-3.40701e-06
2.42965e-05
-2.61216e-07
2.66618e-08
2.20836e-07
-3.75556e-05
-1.90644e-07
4.35551e-07
3.70632e-05
1.32309e-05
-7.39332e-06
0.000182476
7.13414e-07
1.26874e-06
1.29758e-06
2.20808e-06
-1.57325e-06
-2.3966e-06
-1.40576e-06
-1.56466e-06
4.14403e-06
1.55447e-06
0.000157692
1.40869e-06
9.40291e-07
2.37091e-06
1.87972e-06
-1.89196e-06
-3.83459e-06
0.000135602
1.90487e-06
1.74145e-06
2.50074e-06
1.87339e-06
-4.86319e-07
-1.59973e-06
-2.47817e-07
-2.38603e-05
2.67535e-06
-5.11092e-06
2.44039e-05
-8.33983e-06
-1.85553e-07
1.63008e-07
8.36238e-06
4.13435e-07
-5.49572e-05
-1.33937e-06
1.07431e-06
3.92417e-07
5.44164e-05
7.46008e-06
-3.09848e-06
0.00020557
-2.92374e-06
-1.36915e-06
-1.47582e-06
-8.04219e-08
6.43929e-06
3.62961e-06
0.000243975
1.51516e-06
-1.86584e-06
0.000192294
1.67028e-06
1.73675e-06
1.76225e-06
-1.38418e-06
3.76054e-08
-8.65419e-07
-4.66176e-05
3.3763e-06
2.90887e-06
-4.88843e-06
4.6736e-05
-3.72792e-05
-1.56136e-06
-7.84628e-07
1.49926e-06
3.83264e-05
-2.00503e-07
-1.91521e-06
3.82233e-07
0.000164949
1.31222e-06
4.45172e-07
2.26645e-06
6.38508e-07
7.73288e-08
5.92135e-07
3.7489e-07
4.92743e-07
2.78949e-07
0.000196813
6.66659e-07