/*--------------------------------*- C++ -*----------------------------------*\
| =========                 |                                                 |
| \\      /  F ield         | OpenFOAM: The Open Source CFD Toolbox           |
|  \\    /   O peration     | Version:  5.x                                   |
|   \\  /    A nd           | Web:      www.OpenFOAM.org                      |
|    \\/     M anipulation  |                                                 |
\*---------------------------------------------------------------------------*/
FoamFile
{
    version     2.0;
    format      ascii;
    class       volVectorField;
    location    "3.6";
    object      U;
}
// * * * * * * * * * * * * * * * * * * * * * * * * * * * * * * * * * * * * * //

dimensions      [0 1 -1 0 0 0 0];

internalField   nonuniform List<vector> 
10571
(
(-0.433261 0.14283 1.51518)
(0.103064 -0.138044 0.645638)
(0.143088 -0.0516929 1.14505)
(-0.558919 -0.329238 3.12376)
(-1.10842 -0.596247 1.8383)
(0.201291 0.201646 1.45611)
(0.641377 0.443044 2.23904)
(0.148152 -0.39069 3.22445)
(-0.807584 -0.354057 1.273)
(-0.245529 -0.0732928 0.924366)
(0.656872 0.877478 1.93323)
(0.438459 0.831088 3.38058)
(-0.918507 0.666026 3.42271)
(-0.0710904 0.151499 1.57932)
(-0.717359 0.334414 1.14183)
(-0.244204 -0.114272 1.70817)
(-0.245564 -0.579969 2.06135)
(-0.114045 -0.678213 1.57546)
(-0.0784499 -0.384709 2.14611)
(-0.809989 -0.174289 2.44974)
(-0.185822 0.237735 0.61894)
(-0.352591 -0.390951 1.34239)
(0.142064 -0.402687 1.3934)
(0.142571 -0.130103 1.18372)
(-0.165057 -0.00222386 0.238361)
(0.219513 -0.205696 1.00761)
(-0.800911 -0.587852 2.04198)
(-1.08371 -0.00839466 3.99878)
(-0.0262805 -0.0298023 0.977498)
(-0.130685 -0.18614 0.831562)
(-0.433124 -0.456544 2.56156)
(-1.11553 -0.586156 2.32746)
(-0.270544 -0.194023 0.442024)
(-0.161777 -0.412447 0.457347)
(-0.0449099 -0.193699 0.128438)
(0.535511 -0.890187 3.11372)
(-0.397247 -0.858409 2.77887)
(-0.816838 -0.589667 2.61442)
(-0.487444 -0.0951241 0.947406)
(-0.244445 0.119087 0.349293)
(0.012285 -0.209861 1.0284)
(-0.171592 -0.0367471 0.617395)
(-0.586238 -0.213022 2.08909)
(-1.05056 -0.693933 2.31245)
(0.0322329 -0.0258536 0.00439099)
(0.0246608 -0.0360851 0.189725)
(-0.215685 0.0499387 0.370086)
(0.0813298 -0.129111 0.833267)
(-0.119662 -0.0716087 0.314957)
(0.30492 -0.110639 1.07126)
(-0.459357 -0.579034 2.38827)
(-0.531971 0.287691 4.19099)
(-0.340418 0.1351 1.07151)
(0.105757 -0.16242 0.547743)
(-0.452411 -0.919589 2.56576)
(-0.49591 -0.821804 1.83109)
(-0.0597737 -0.197667 0.500054)
(-0.222475 -0.447029 0.768819)
(-0.305414 0.329831 1.51764)
(-0.440882 -0.768095 2.87506)
(-0.49904 -0.0877978 2.07063)
(-0.409527 -0.133599 2.12098)
(0.118589 -0.233403 0.931333)
(-0.0622314 -0.0684898 0.187756)
(-0.129325 0.284534 0.7566)
(-0.254231 0.46138 1.84329)
(-0.329593 0.25752 1.25326)
(-0.187551 -0.0680783 1.72054)
(0.0317132 -0.0322085 0.125264)
(0.106675 0.4618 1.04821)
(-0.347343 0.552631 1.00104)
(-0.0731112 0.0581725 0.123544)
(0.0244302 0.00763927 0.217259)
(0.0871726 -0.0165876 0.581446)
(0.116472 0.0601568 2.36799)
(-0.146858 0.206231 3.30975)
(-0.0401182 -0.00292121 0.850353)
(0.149724 -0.164384 0.687826)
(-0.383079 -0.791471 2.07065)
(0.019628 -0.755193 1.98453)
(0.0937154 -0.127955 0.420314)
(-0.0158829 -0.057789 0.39476)
(0.269972 0.697703 1.92586)
(-0.152962 -0.33044 2.84324)
(-0.752048 -0.000522082 1.88541)
(0.032452 0.186797 1.36833)
(0.293582 -0.0922351 0.94016)
(0.0613083 0.00489729 0.397997)
(0.207518 0.0267563 0.80273)
(-0.097053 0.307071 1.30042)
(-0.00739713 0.502017 1.58136)
(0.100197 0.0786946 1.26875)
(-0.0592904 0.0498426 0.134224)
(-0.132734 0.250206 1.25406)
(0.0568057 0.522481 1.24059)
(0.363831 -0.3278 0.320419)
(0.0309719 0.00520639 0.266009)
(-0.00631939 -0.0388529 0.259177)
(0.334724 0.641571 3.79048)
(-0.791172 -0.417827 4.26273)
(0.502746 -0.209255 0.842036)
(0.0849329 -0.36393 0.758451)
(-0.0797808 -0.855273 2.35457)
(0.267668 -0.122826 0.850967)
(0.203471 -0.0991735 0.333873)
(0.134208 -0.117769 0.437672)
(0.0446692 -0.00409406 0.372556)
(0.283516 0.0662411 3.03155)
(-0.326852 -0.221061 1.48512)
(0.194647 -0.0469322 0.922814)
(0.36678 -0.215295 0.627197)
(0.17855 -0.115693 0.296846)
(-0.0541241 0.247574 1.14326)
(-0.537995 -0.126686 1.74136)
(0.38634 0.0910793 2.24055)
(0.497573 -0.696326 1.7372)
(0.125814 -0.0470272 0.238208)
(-0.98069 -0.143877 1.59205)
(-0.0362111 -0.327204 1.23568)
(0.0839303 -0.00465065 0.0820637)
(0.17125 -0.0199395 0.535597)
(-0.0175951 -0.0560143 0.38713)
(0.428865 0.263005 5.18081)
(-0.426205 -1.08197 4.16612)
(1.11837 -0.156676 1.58254)
(-0.329234 -0.903477 1.29783)
(0.37191 -0.19288 1.11418)
(0.237701 -0.0687983 0.731496)
(0.189342 -0.118609 0.662533)
(0.0324642 -0.0229643 0.393524)
(-0.0106325 0.00561606 -0.00623243)
(-0.0532391 0.0163924 0.467945)
(-0.964248 0.680943 3.33536)
(0.10896 0.0118736 0.479934)
(0.101904 -0.0214845 0.38587)
(0.27525 -0.101386 0.879588)
(-0.113198 0.0955438 0.488319)
(7.45896e-05 -0.00127662 -0.00284146)
(-0.741656 0.456984 1.58969)
(-0.100991 0.0679212 0.723431)
(0.204118 0.0566339 0.697776)
(0.446038 -0.0195191 0.989791)
(0.514659 -0.138263 1.36827)
(-0.235408 -0.0466376 0.790537)
(0.239257 0.0126775 1.04639)
(0.0873586 0.0360998 0.219995)
(0.798331 -0.0165532 0.703261)
(-0.381149 -0.0251 0.867616)
(0.440475 -0.67798 6.32977)
(1.01718 -0.826863 4.66005)
(0.188315 0.196054 1.13351)
(-0.28892 -0.225357 1.03141)
(0.0802329 0.12344 1.06939)
(-0.207494 0.0105356 1.03352)
(-0.372333 0.0273657 0.516488)
(-0.199384 -0.0897493 0.645586)
(-0.282415 0.19048 -0.067633)
(-0.268576 -0.0124498 2.10095)
(-0.364182 0.215432 1.43927)
(0.00550739 0.0242938 1.01758)
(0.0160898 0.0144134 0.810293)
(-0.096017 -0.201044 0.815463)
(-0.208331 -0.274647 0.284067)
(0.0512305 0.0379917 -0.0450508)
(-0.497347 -0.0854858 2.90395)
(-0.0451382 0.122159 0.891967)
(0.0551065 0.0755557 1.50558)
(0.559547 0.0404491 1.29633)
(0.370059 -0.219796 1.10761)
(-0.0903294 0.00178175 0.0565067)
(-0.0720307 0.14978 0.844178)
(0.124477 0.207867 1.52495)
(-0.0896908 0.12861 0.490158)
(0.246466 -0.180194 1.13895)
(0.0184567 0.00184768 1.54348)
(0.150993 -0.484558 4.76872)
(1.20024 -0.522005 4.26399)
(0.484005 0.32858 1.48645)
(0.0772412 0.0226481 0.57616)
(0.0698703 -0.200504 0.981368)
(-0.454324 0.179647 0.564136)
(-0.332538 0.342699 0.620122)
(-0.272442 0.125738 0.842718)
(-0.178819 0.00804918 -0.26909)
(-0.00409678 -0.170937 1.88776)
(-0.102227 -0.0366902 1.34535)
(-0.111107 -0.100299 0.558078)
(-0.20395 0.0149789 0.301643)
(-0.187118 -0.0638476 0.514455)
(-0.11655 -0.168889 0.253296)
(-0.069318 -0.0436472 0.0381806)
(-0.443719 -0.506908 3.05974)
(-0.175562 0.0750782 0.721067)
(-0.0318206 0.0462784 0.776911)
(-0.0343579 0.0605702 0.633675)
(0.246853 -0.204376 1.02169)
(0.187917 -0.017273 0.136307)
(-0.0156531 0.0802582 0.398568)
(-0.012798 0.0587365 1.07925)
(-0.155575 0.0998648 0.34217)
(0.241825 -0.212574 1.45878)
(-0.036736 0.0222214 1.8007)
(0.303294 -0.40894 4.5579)
(0.84761 -0.321931 4.07616)
(0.463859 0.232105 1.76147)
(0.0464292 -0.00310502 0.596151)
(0.0720717 -0.0982489 0.869012)
(-0.513689 0.358516 0.694649)
(-0.567961 0.495332 0.548726)
(0.0107967 0.748644 0.822103)
(0.107935 -0.158654 -0.163003)
(-0.0592441 -0.338956 2.06728)
(-0.235398 -0.0637262 1.28724)
(-0.230529 -0.0113903 0.484689)
(-0.27407 0.0430445 0.518726)
(-0.234223 -0.0108547 0.581376)
(-0.0957455 0.439922 0.402805)
(-0.00467789 -0.155028 0.0650243)
(-0.498562 -0.702476 3.23707)
(-0.312305 -0.000182687 0.466108)
(-0.0303453 0.0263255 0.701547)
(0.11843 0.124659 0.514494)
(0.0934881 -0.0450523 1.18929)
(0.00155193 0.217251 0.490096)
(-0.0346132 0.0881471 1.09969)
(-0.0471757 0.0663783 0.422189)
(0.316271 -0.101836 1.55346)
(-0.123307 0.0806669 2.0285)
(0.231933 -0.340067 4.44189)
(0.745728 -0.212084 4.07829)
(0.363825 0.131837 2.0159)
(0.300788 -0.0131059 0.663385)
(0.0425938 -0.0395496 0.931496)
(-0.536409 0.391377 0.883358)
(-0.55361 0.361033 0.407588)
(-0.115249 0.150162 0.120378)
(-0.105171 -0.423038 2.18277)
(-0.314514 -0.32418 1.30136)
(-0.309784 0.087401 0.468796)
(-0.19959 0.153179 0.593333)
(-0.178099 -0.0794583 0.559308)
(-0.0168293 0.0987437 0.542074)
(-0.536071 -0.751163 3.05484)
(-0.329997 -0.0805735 0.412947)
(-0.0285685 0.0481964 0.635065)
(0.056713 0.127382 0.5106)
(0.0183811 0.0891625 1.37549)
(-0.0175497 0.16884 0.6233)
(-0.115375 0.101673 1.00502)
(-0.0875293 0.111258 0.550971)
(0.205678 -0.0452488 1.62433)
(-0.23448 0.146749 2.24762)
(0.169486 -0.26137 4.40335)
(0.63429 -0.178817 4.01259)
(0.357353 0.223393 2.04017)
(0.463986 -0.0406063 0.837574)
(0.031355 0.128448 1.01392)
(-0.478217 0.455367 0.974255)
(-0.346928 0.26452 0.339289)
(-0.0649826 -0.124604 -0.0512942)
(-0.13331 -0.514257 2.42458)
(-0.255865 -0.457059 1.40384)
(-0.314395 0.130052 0.471171)
(-0.074894 0.313637 0.61636)
(-0.0638482 -0.0731059 0.485544)
(0.0833969 -0.241356 0.423183)
(-0.514264 -0.711535 2.70062)
(-0.311711 -0.0864302 0.39599)
(0.014308 0.0780347 0.552192)
(-0.020215 0.110331 0.490074)
(-0.068052 0.0480755 1.17551)
(-0.0178216 -0.0135428 0.626498)
(-0.160423 0.118628 0.924905)
(-0.0229638 0.108392 0.794345)
(0.0282016 -0.0620396 1.74503)
(-0.250487 0.1477 2.4545)
(0.0445782 -0.20571 4.25028)
(0.505701 -0.025151 3.87783)
(0.398529 0.203267 1.89815)
(0.464188 0.0181797 1.01857)
(0.0367938 0.248172 1.14851)
(-0.4064 0.558005 1.04991)
(-0.218897 0.293995 0.386868)
(-0.0747266 -0.0939801 -0.0365298)
(-0.104116 -0.55106 2.72359)
(-0.124929 -0.452322 1.65818)
(-0.279151 0.146796 0.520264)
(0.0186885 0.422197 0.662039)
(0.0317292 -0.00503625 0.491921)
(0.0898731 -0.185377 0.359816)
(-0.489466 -0.661052 2.28857)
(-0.265634 -0.0567597 0.35862)
(0.033944 0.0719513 0.509475)
(0.0139964 0.0790066 0.50294)
(-0.0119054 -0.0517334 0.676781)
(-0.111148 -0.084434 0.49986)
(-0.164725 0.154931 0.901799)
(0.0136223 0.0817005 1.01055)
(-0.0537867 -0.0926648 2.13058)
(-0.236232 0.107198 2.50297)
(-0.0489572 -0.0714981 4.03602)
(0.13642 0.0123527 3.05614)
(-0.233896 0.148035 1.67097)
(0.38711 0.00988905 1.25284)
(0.0450211 0.357761 1.31871)
(-0.271035 0.533986 1.12087)
(-0.160921 0.189077 0.473296)
(-0.0800122 -0.0466136 0.0435362)
(-0.0663455 -0.562554 2.9686)
(-0.0202183 -0.507858 1.95742)
(-0.260461 0.131135 0.620399)
(0.08228 0.417993 0.718346)
(0.0801763 -0.00777063 0.547869)
(0.0815755 -0.135287 0.349576)
(-0.436587 -0.670845 1.94272)
(-0.256598 -0.0228427 0.376465)
(0.0277942 0.0296548 0.465502)
(0.0131757 0.0102236 0.487188)
(0.0668145 -0.112323 0.571485)
(-0.185593 -0.0996013 0.384796)
(-0.0921156 0.195813 0.941276)
(0.0137951 0.0641227 1.08238)
(0.180722 0.0314347 2.42981)
(-0.303487 0.106227 2.58614)
(-0.241651 -0.0250101 3.71074)
(-0.216764 0.0562788 2.39979)
(0.0072857 0.229264 1.1715)
(0.276208 -0.0495579 1.54399)
(0.0498714 0.414555 1.44008)
(-0.0722421 0.453713 1.15488)
(-0.115202 0.0791088 0.593088)
(-0.0519409 -0.0440325 0.111431)
(-0.0421698 -0.522151 3.19829)
(0.0488173 -0.6424 2.32706)
(-0.267741 0.115952 0.700278)
(0.122649 0.343858 0.775921)
(0.0956893 -0.0266623 0.626722)
(0.0687128 -0.113745 0.370865)
(-0.37007 -0.745234 1.47324)
(-0.251753 0.0229557 0.414666)
(0.00625428 0.00360738 0.438967)
(0.008653 -0.0718881 0.483626)
(0.0808498 -0.114231 0.602829)
(-0.183739 -0.0768095 0.344403)
(-0.089138 0.186729 1.07603)
(0.0993229 -0.066774 0.907385)
(0.510762 0.0511858 2.38295)
(-0.322468 0.223634 2.73227)
(-0.269426 0.0685785 3.26099)
(0.22409 0.122091 2.07349)
(0.306023 0.4626 0.854506)
(0.200851 -0.153353 1.82536)
(0.0435222 0.398682 1.4718)
(0.0388841 0.424488 1.18129)
(-0.0523176 0.0374951 0.723714)
(-0.00645549 -0.0121154 0.17563)
(-0.00902084 -0.370274 3.36443)
(0.164007 -0.527731 2.77547)
(-0.199938 0.105879 0.765144)
(0.159576 0.260507 0.809503)
(0.109176 -0.0316426 0.710073)
(0.0672398 -0.0985525 0.407325)
(-0.458892 -0.709686 1.13076)
(-0.221265 0.0417535 0.399972)
(0.000147598 -0.00236605 0.447208)
(0.0131923 -0.0674571 0.507833)
(0.0382731 -0.0392656 0.682075)
(-0.172228 -0.0542279 0.341261)
(-0.0746155 0.0265866 1.07534)
(0.115839 -0.0908877 0.524949)
(0.640373 0.131942 2.0829)
(-0.223832 0.229611 2.77901)
(-0.0703753 -0.0358213 2.44991)
(0.367175 0.174718 1.92424)
(0.313854 0.529862 0.759388)
(0.0706191 -0.258839 1.96435)
(0.0509153 0.25596 1.49501)
(0.0903157 0.359229 1.26245)
(0.0272597 6.09255e-05 0.851482)
(0.0301085 0.00702686 0.259306)
(-0.0193533 -0.1519 3.29272)
(0.22035 -0.315599 3.10325)
(-0.0758321 0.0962875 0.82221)
(0.199927 0.199047 0.859178)
(0.126958 -0.0266295 0.77178)
(0.0919919 -0.0623851 0.455786)
(-0.556379 -0.553034 1.22232)
(-0.127111 0.0566582 0.383808)
(0.0260857 -0.0146135 0.502436)
(0.0106443 -0.0178084 0.552436)
(0.00222125 -0.0202409 0.674096)
(-0.141934 -0.014019 0.368481)
(0.0800131 -0.234094 0.805087)
(0.111232 -0.0516997 0.440191)
(0.076311 0.0107447 1.39955)
(-0.0415022 0.287768 2.78691)
(0.0604105 -0.0186732 2.04907)
(-0.0594511 0.260575 1.71999)
(0.160978 0.306566 0.775195)
(0.149203 -0.412729 1.87745)
(0.0904244 0.133978 1.55699)
(0.16126 0.248151 1.34689)
(0.110249 -0.0408369 0.937023)
(0.0591185 0.0064686 0.357207)
(-0.0319597 -0.0527231 3.02353)
(0.323308 0.219581 3.01361)
(0.0662046 0.120364 0.8715)
(0.220884 0.163416 0.915575)
(0.140547 -0.00777239 0.814257)
(0.110665 -0.0101842 0.511954)
(-0.0974482 0.113504 1.73134)
(0.0389999 0.0941061 0.424522)
(0.0833682 0.0104985 0.589976)
(0.0276023 0.0137131 0.613976)
(-0.000667385 0.00211286 0.629606)
(0.0341625 0.0646024 0.471494)
(0.0785428 -0.214926 0.583411)
(0.10353 -0.0334462 0.483962)
(-0.115077 -0.0342488 1.34202)
(0.146877 0.0745901 2.45946)
(0.0164804 0.0295406 2.0405)
(-0.17042 0.237601 1.45982)
(0.0253801 0.0805611 0.812301)
(0.245771 -0.735955 1.87049)
(0.137326 0.143856 1.58999)
(0.245264 0.157235 1.34693)
(0.163525 -0.0646359 0.977725)
(0.0772518 0.00551168 0.46951)
(0.0543665 -0.406747 2.04346)
(0.347302 -0.158255 2.11877)
(0.236345 0.197002 0.934335)
(0.243912 0.159731 0.966278)
(0.151697 0.0182846 0.847219)
(0.113267 0.03139 0.566658)
(0.697615 0.631254 1.87647)
(0.191275 0.131347 0.595141)
(0.131776 0.0558045 0.698375)
(0.053544 0.0323882 0.695421)
(0.0103798 0.0188906 0.649885)
(0.191842 0.106049 0.594457)
(0.0864022 -0.0429271 0.559027)
(0.0878475 -0.0181995 0.558364)
(0.0257015 -0.0433028 1.30576)
(0.293099 -0.259787 2.47895)
(-0.0595992 0.0809225 2.16643)
(-0.102621 0.129767 1.39756)
(-0.0205055 0.0104867 0.837948)
(0.329725 -0.714195 2.15326)
(0.379248 0.217968 1.53007)
(0.336581 0.112963 1.29104)
(0.185488 -0.0511769 1.00568)
(0.0834688 0.0167334 0.583077)
(-0.0798279 -0.580398 1.63146)
(0.298639 -0.416851 1.31841)
(0.390662 0.285805 1.00003)
(0.28379 0.164787 1.02348)
(0.162429 0.045249 0.885676)
(0.108897 0.0557462 0.62773)
(0.824533 0.620508 1.33669)
(0.217244 0.158227 0.78707)
(0.150634 0.0947277 0.809016)
(0.0763705 0.0556408 0.783129)
(0.0240768 0.0231038 0.726377)
(0.247272 0.115218 0.769613)
(0.0978417 0.00803196 0.601272)
(0.0724026 -0.00823904 0.647454)
(0.199506 -0.0529658 1.39676)
(0.309988 -0.283362 2.37925)
(0.0945356 0.0450666 2.28793)
(0.023803 -0.0259646 1.43886)
(0.00353173 0.0325031 0.872116)
(0.302691 -0.0214564 2.03357)
(0.679047 0.211175 1.42958)
(0.39093 0.124493 1.275)
(0.191934 0.00211443 1.03117)
(0.0828691 0.0493991 0.69116)
(-0.127524 0.301339 1.69024)
(0.397363 0.232022 0.876584)
(0.424756 0.319968 1.08031)
(0.299876 0.173266 1.10267)
(0.169844 0.0762175 0.943424)
(0.0997476 0.0608603 0.70467)
(0.456397 0.37259 1.08237)
(0.160732 0.158112 0.958598)
(0.146625 0.117704 0.901823)
(0.0890137 0.0787487 0.86901)
(0.029865 0.0272055 0.818938)
(0.212872 0.106409 0.9503)
(0.0921136 0.0276534 0.708276)
(0.0560631 0.00104751 0.755199)
(0.2652 -0.0177917 1.55151)
(0.582508 -0.275333 1.82897)
(0.656386 -0.080521 2.45163)
(0.27116 -0.178627 1.60862)
(0.0768004 0.0715989 0.970254)
(0.611877 0.0137928 1.28694)
(0.642548 0.187803 1.42528)
(0.376124 0.151357 1.28609)
(0.180338 0.0770939 1.05472)
(0.0811213 0.0978589 0.798279)
(-0.142998 0.437265 1.659)
(0.485014 0.353294 0.704156)
(0.315281 0.267318 1.20631)
(0.247044 0.178041 1.17831)
(0.157564 0.104055 1.00683)
(0.0862691 0.0580149 0.797904)
(0.267695 0.210732 1.08747)
(0.115174 0.0913892 1.09115)
(0.118216 0.111986 0.989429)
(0.0906648 0.0942156 0.952219)
(0.0338349 0.0271468 0.920404)
(0.183158 0.070931 1.08272)
(0.0612662 0.0373378 0.793357)
(0.0424027 0.00663607 0.870069)
(0.242734 0.0151597 1.6771)
(0.281476 -0.33631 0.971278)
(0.777947 -0.0642094 2.52621)
(0.441106 -0.272937 1.87723)
(0.126559 0.0936474 1.13037)
(0.269659 -0.273709 0.805071)
(0.472098 0.164814 1.34414)
(0.309739 0.153134 1.25632)
(0.158091 0.136469 1.0761)
(0.0785794 0.148058 0.910719)
(0.120921 0.23857 1.03822)
(0.327676 -0.0419608 0.720216)
(0.158238 0.179785 1.32189)
(0.158144 0.174631 1.21861)
(0.12649 0.124847 1.06984)
(0.0680802 0.0576425 0.901609)
(0.132171 -0.216778 1.09655)
(0.0951717 -0.0086722 1.15176)
(0.0725334 0.0696395 1.04854)
(0.0849037 0.0956824 1.02921)
(0.0378552 0.017434 1.02764)
(0.178816 0.0449663 1.15682)
(0.0359172 0.0368803 0.881953)
(0.0323718 0.00929764 0.976418)
(0.167301 0.0274904 1.78062)
(0.029947 -0.367781 0.900635)
(0.653286 -0.0599615 2.55467)
(0.411361 -0.313089 2.13705)
(0.127535 0.0977833 1.30257)
(0.0327871 -0.276821 0.576405)
(0.315085 -0.00116852 1.24356)
(0.210944 0.0840825 1.19884)
(0.127493 0.157446 1.09385)
(0.0675806 0.181256 1.01713)
(0.0277372 -0.0570853 0.581745)
(0.184688 -0.219274 0.639393)
(0.0394892 0.110807 1.373)
(0.0800198 0.159552 1.23791)
(0.0780498 0.126189 1.12354)
(0.0475426 0.053504 1.00386)
(0.0795699 -0.159007 0.796104)
(0.0844932 -0.0896217 1.18468)
(0.0507312 0.00946865 1.09906)
(0.0806365 0.0860475 1.09292)
(0.0447717 -0.00688901 1.1311)
(0.180873 0.0493075 1.16913)
(0.0309197 0.0216559 0.936493)
(0.0220657 0.0081783 1.06833)
(0.123549 0.00162412 1.8649)
(-0.0795611 -0.269118 1.07856)
(0.516229 -0.0149996 2.60478)
(0.278792 -0.265236 2.36258)
(0.123197 0.0957135 1.4302)
(0.0401491 -0.164402 0.541411)
(0.136025 -0.184541 1.17676)
(0.105433 -0.0139466 1.15681)
(0.0733525 0.142414 1.11224)
(0.0336638 0.179736 1.09655)
(-0.0081969 -0.134166 0.486889)
(0.0597316 -0.0987592 0.397869)
(0.00927368 0.0406446 1.4166)
(0.033056 0.12775 1.24332)
(0.0316061 0.102922 1.16377)
(0.0327093 0.036357 1.09853)
(-0.0609779 0.0789714 0.534723)
(0.110416 -0.119709 1.22019)
(0.0691688 -0.0342186 1.14)
(0.0820642 0.0553855 1.143)
(0.0570125 -0.0415491 1.21816)
(0.213846 0.0385623 1.14225)
(0.0453394 0.0115418 0.96483)
(0.0237284 0.00393418 1.13938)
(0.115387 -0.0383925 1.8987)
(-0.044496 -0.184902 1.23651)
(0.433739 -0.00813665 2.68402)
(0.118087 -0.240649 2.56683)
(0.150167 0.109645 1.5129)
(0.0547786 -0.0797631 0.553516)
(-0.0112149 -0.294396 1.10054)
(0.0267915 -0.0690727 1.14229)
(0.0273687 0.119673 1.12585)
(-0.00801221 0.160255 1.12808)
(-0.0148178 -0.0769958 0.374624)
(0.0120087 -0.00824008 0.304784)
(0.0676139 -0.0118466 1.41983)
(0.0399371 0.0862804 1.24662)
(0.0128125 0.0759136 1.20122)
(0.0256776 0.00704654 1.18694)
(-0.0977634 0.0504887 0.401914)
(0.177118 -0.107497 1.22512)
(0.0997278 -0.0552047 1.17045)
(0.0993498 0.0132009 1.18626)
(0.0692375 -0.0764532 1.28619)
(0.275278 0.0491177 1.07514)
(0.0855417 0.00580707 1.01791)
(0.0335166 -0.00163562 1.20535)
(0.095422 -0.074289 1.85934)
(0.171447 -0.2773 1.28844)
(0.48539 0.0130681 2.80313)
(0.223528 -0.181289 2.76345)
(0.217031 0.144034 1.56618)
(0.0958528 -0.0300575 0.568712)
(-0.15018 -0.277685 1.04317)
(0.00155519 -0.0621649 1.1405)
(-0.00105174 0.115774 1.1459)
(-0.0375325 0.139179 1.13494)
(-0.0249756 -0.0290447 0.316887)
(0.0061785 0.0568868 0.311967)
(0.151306 -0.0443084 1.3606)
(0.0592857 0.0540257 1.27097)
(0.0160058 0.0642683 1.2524)
(0.026773 -0.0235952 1.27078)
(-0.035301 0.0244701 0.342905)
(0.224811 -0.0954759 1.15429)
(0.10496 -0.060578 1.20033)
(0.120135 -0.0130697 1.22786)
(0.0788386 -0.100465 1.34187)
(0.335794 0.133923 1.04707)
(0.111498 0.00327301 1.08958)
(0.0421419 -0.00602334 1.26256)
(0.125852 -0.0960761 1.81805)
(0.240574 -0.424219 1.3605)
(0.467778 -0.0503434 2.88533)
(0.169182 -0.0041781 2.67129)
(0.275269 0.161429 1.61753)
(0.13328 0.0111419 0.601077)
(-0.252145 -0.137641 1.0297)
(-0.00735074 0.00243254 1.14889)
(-0.0297077 0.129339 1.17809)
(-0.0513865 0.124126 1.15176)
(-0.0263591 -0.00572997 0.28308)
(0.0191672 0.0984273 0.342163)
(0.152001 -0.0177 1.30335)
(0.0439576 0.0537978 1.31289)
(0.0166334 0.061481 1.31151)
(0.0290175 -0.0442978 1.3503)
(0.0366294 0.0706943 0.279933)
(0.192345 -0.086265 1.09879)
(0.0791235 -0.0494498 1.23387)
(0.122371 -0.0194502 1.26571)
(0.0838518 -0.111241 1.3925)
(0.31465 0.158925 1.06531)
(0.0959915 0.0023719 1.16448)
(0.0425138 -0.00784318 1.31254)
(0.338139 -0.047641 1.78142)
(0.354052 -0.523454 1.56467)
(0.389468 -0.0499732 2.93343)
(0.214141 0.216022 2.12169)
(0.26967 0.15151 1.68193)
(0.0634147 0.00463891 0.657596)
(-0.222489 0.0194921 1.05607)
(-0.011751 0.0599847 1.15828)
(-0.0526197 0.146133 1.21606)
(-0.0550372 0.11553 1.18432)
(-0.0303265 -0.00026337 0.253288)
(-0.0042539 0.112468 0.368969)
(0.10656 0.00534908 1.25722)
(0.0224825 0.0625768 1.37367)
(0.00908744 0.0598455 1.36332)
(0.0264033 -0.0553211 1.41997)
(0.0551702 0.124179 0.206342)
(0.0739179 -0.0753395 1.07667)
(0.0453298 -0.0267028 1.25036)
(0.118138 -0.0197119 1.29347)
(0.0874179 -0.115444 1.43763)
(0.21722 0.134288 1.1204)
(0.0536175 0.00664861 1.21363)
(0.0374243 -0.00289758 1.34954)
(0.464912 0.0651768 1.64988)
(0.33499 -0.393337 1.71453)
(-0.116716 0.23352 3.20823)
(0.296807 0.157051 1.5119)
(0.196202 0.112989 1.73879)
(-0.101536 -0.0282216 0.765609)
(-0.112986 0.0418361 1.09208)
(-0.0198825 0.0672809 1.17167)
(-0.0684907 0.151421 1.25263)
(-0.0548165 0.11248 1.22802)
(-0.0366975 0.00581903 0.241821)
(-0.0371124 0.125268 0.388524)
(0.0878462 -0.0175712 1.23671)
(0.0161586 0.0555057 1.42371)
(0.00700465 0.0589735 1.41165)
(0.022179 -0.0611898 1.47977)
(0.0386501 0.142323 0.179489)
(-0.0194047 -0.0833506 1.04069)
(0.0272624 -0.00521538 1.23406)
(0.110239 -0.013633 1.29948)
(0.0900697 -0.118438 1.48187)
(0.0944193 0.121069 1.17312)
(0.0235188 0.00909631 1.22681)
(0.0266552 0.0036165 1.38558)
(0.180044 0.0404684 1.55459)
(-0.255869 -0.0270971 2.31497)
(-0.835327 0.26236 3.03883)
(0.0106465 0.078812 1.19033)
(0.163177 0.0941834 1.71028)
(-0.209317 -0.00173091 0.896033)
(-0.0574088 -0.0706636 1.12249)
(-0.042393 0.0572476 1.21552)
(-0.0907296 0.131331 1.277)
(-0.0570502 0.0919358 1.27976)
(-0.030904 0.0122429 0.248492)
(-0.042253 0.150123 0.419479)
(0.077493 -0.108122 1.18475)
(-0.00193168 0.026155 1.46277)
(0.0120992 0.0457807 1.45947)
(0.0186597 -0.0654296 1.52984)
(0.0226305 0.141223 0.200014)
(-0.0208502 -0.112029 1.0106)
(0.0286661 0.000176026 1.19246)
(0.106381 -0.0111453 1.29192)
(0.0861681 -0.116693 1.52346)
(-0.0205127 0.0821278 1.23413)
(-0.00665014 0.0153176 1.2199)
(0.00597532 0.00973506 1.41441)
(-0.0876826 -0.0548746 1.52134)
(-0.50537 0.179198 3.27149)
(-0.896163 0.362192 2.24066)
(-0.0935053 0.0694669 1.07058)
(0.152237 0.082743 1.61772)
(-0.237303 0.112476 0.998421)
(-0.0723024 -0.133138 1.10573)
(-0.0336458 0.0360528 1.25831)
(-0.111263 0.085345 1.28996)
(-0.0522087 0.0440744 1.33885)
(-0.0203232 0.0435724 0.294561)
(-0.0301096 0.199532 0.464198)
(0.0556343 -0.175643 1.10666)
(-0.0178806 -0.00874329 1.49751)
(0.0237176 0.0126259 1.49227)
(0.0190382 -0.0715585 1.56444)
(0.0261185 0.146936 0.276745)
(0.0684689 -0.139411 0.931711)
(0.0730644 -0.0274474 1.15169)
(0.105049 -0.0127213 1.27351)
(0.0765856 -0.104545 1.55449)
(-0.0480588 7.6423e-05 1.1826)
(-0.00497059 0.0179665 1.21409)
(-0.0155159 0.0118297 1.42389)
(-0.173805 -0.0576198 1.52203)
(-0.371987 0.264274 3.94595)
(-0.513938 0.352491 1.84567)
(-0.0223425 0.0628198 0.965419)
(0.100519 0.0701791 1.53707)
(-0.245877 0.25036 1.07763)
(-0.0987714 -0.121626 1.07905)
(-0.00565659 -0.0148535 1.28132)
(-0.114308 0.034311 1.31449)
(-0.0427282 -0.00811703 1.39058)
(-0.0149913 0.100657 0.376842)
(-0.029725 0.274946 0.52572)
(0.0039199 -0.135793 1.05046)
(0.00397814 -0.0299586 1.5232)
(0.0403958 -0.0249052 1.50307)
(0.0253941 -0.0784522 1.58435)
(0.036314 0.185927 0.387533)
(0.171925 -0.0805627 0.830263)
(0.1464 -0.0722151 1.14272)
(0.110944 -0.020321 1.25835)
(0.0642651 -0.0870067 1.57959)
(-0.0412844 -0.0667441 1.07999)
(0.0178597 0.0148828 1.20529)
(-0.0273141 0.0205881 1.42016)
(-0.108014 -0.0265067 1.4367)
(-0.1963 0.22371 4.19397)
(0.0191226 0.0876118 1.69226)
(0.0573109 0.000594061 0.902074)
(0.0686292 0.0575079 1.49957)
(-0.252666 0.358237 1.14869)
(-0.138862 0.00717424 1.00632)
(-0.00469414 -0.0576696 1.27498)
(-0.104298 -0.00153335 1.35422)
(-0.030455 -0.0601276 1.43898)
(-0.00639229 0.157506 0.498226)
(-0.0414544 0.366881 0.616379)
(-0.0972923 0.0645343 0.952137)
(0.0625709 -0.0480962 1.51398)
(0.0602009 -0.0491099 1.50736)
(0.0346543 -0.0863133 1.59553)
(0.0382939 0.244482 0.518344)
(0.14933 0.0486982 0.810416)
(0.177804 -0.0809376 1.16054)
(0.114892 -0.0221847 1.26052)
(0.053244 -0.0624257 1.60848)
(0.0487626 -0.0965502 0.996345)
(0.0630811 -0.0199362 1.19854)
(-0.0199011 0.021637 1.42805)
(0.0589028 -0.00662007 1.31216)
(0.00451463 0.223811 4.00635)
(0.284911 0.0292547 1.51576)
(-0.0260346 -0.0896547 0.89155)
(0.000756066 0.0424205 1.48594)
(-0.222191 0.451276 1.2378)
(-0.157345 0.260703 0.878458)
(-0.0305483 -0.0636722 1.24835)
(-0.0862314 -0.0157231 1.38374)
(-0.0139476 -0.0858706 1.48434)
(0.00112557 0.220005 0.665011)
(-0.0625578 0.46656 0.72579)
(-0.144748 0.277552 0.87849)
(0.10289 -0.0597231 1.44061)
(0.0799619 -0.054767 1.51894)
(0.0476346 -0.0872732 1.60342)
(0.027762 0.291318 0.680279)
(0.0543962 0.215743 0.849968)
(0.183094 -0.0724452 1.16607)
(0.113313 -0.0206438 1.27226)
(0.0436645 -0.0410434 1.64291)
(0.127243 -0.0098337 0.961613)
(0.126589 -0.0630379 1.21356)
(0.00150441 0.0209503 1.45763)
(0.111852 0.00874089 1.21663)
(-0.186459 0.589976 3.10032)
(0.4226 0.0846049 1.49583)
(-0.0707379 0.0136444 0.877614)
(-0.036323 0.0277289 1.48196)
(-0.210995 0.656739 1.26681)
(-0.14389 0.453819 0.810824)
(-0.0955074 0.000531427 1.21209)
(-0.0728054 -0.0158377 1.38773)
(-0.00792505 -0.0977346 1.52471)
(0.00368245 0.278715 0.9091)
(-0.106511 0.562016 0.870226)
(-0.166001 0.417358 0.854062)
(0.0662684 -0.0303146 1.37981)
(0.0974106 -0.0501589 1.52508)
(0.0608446 -0.0801942 1.62123)
(0.00671935 0.302009 0.885495)
(-0.0373317 0.307985 0.918437)
(0.174242 -0.0607852 1.15964)
(0.105763 -0.0238721 1.29277)
(0.036213 -0.0235406 1.68327)
(0.146124 0.0803482 1.0286)
(0.184358 -0.0665442 1.25226)
(0.026904 0.0127977 1.50895)
(0.184537 -0.0112252 1.19951)
(-0.446048 0.631103 1.8476)
(0.519017 0.382832 1.33595)
(0.0102699 0.198353 0.892818)
(-0.0312778 0.032825 1.48423)
(-0.322783 0.766157 1.24562)
(-0.142651 0.524597 0.814134)
(-0.155407 0.194768 1.16055)
(-0.0837447 -0.012562 1.37683)
(-0.0209962 -0.0894658 1.56149)
(-0.00144589 0.271627 1.24461)
(-0.121385 0.560748 1.09005)
(-0.18681 0.465961 0.873127)
(-0.0392608 0.134467 1.32543)
(0.107831 -0.046963 1.5123)
(0.0636003 -0.0642697 1.63882)
(-0.0266384 0.262222 1.11736)
(-0.122605 0.326474 1.01335)
(0.131664 0.0113715 1.15359)
(0.0936142 -0.0184702 1.32264)
(0.0259544 -0.003507 1.7296)
(0.140704 0.106857 1.16392)
(0.190417 -0.0513218 1.29905)
(0.0431819 -0.00113018 1.57171)
(0.215261 0.0333472 1.08361)
(-0.401959 0.444657 1.16698)
(0.176639 0.480716 1.06151)
(-0.00278279 0.248108 0.932621)
(-0.00525895 0.0525845 1.50675)
(-0.335414 0.635428 1.2755)
(-0.119567 0.496154 0.812877)
(-0.119572 0.34312 1.08571)
(-0.133844 0.0389221 1.35539)
(-0.0246056 -0.0507108 1.55457)
(-0.0205867 0.14785 1.5597)
(-0.061266 0.373684 1.3525)
(-0.180329 0.451439 0.899038)
(-0.087183 0.381916 1.27139)
(0.0937755 -0.0190874 1.46216)
(0.0474396 -0.0445382 1.65769)
(-0.0642613 0.203772 1.32255)
(-0.18041 0.298128 1.14249)
(0.0328916 0.226318 1.20844)
(0.0826266 0.00959574 1.35848)
(0.0184606 0.0159499 1.77941)
(0.126331 0.0790492 1.32679)
(0.111872 -0.0401596 1.35343)
(0.080065 -0.0197668 1.62562)
(0.0730187 0.0369947 0.861065)
(-0.111973 0.0977308 0.834161)
(0.0523384 0.299898 0.848306)
(-0.0254818 0.175967 0.909719)
(0.101963 0.151641 1.44487)
(-0.135728 0.20778 1.41132)
(-0.00654618 0.389938 0.796301)
(0.00258039 0.373213 1.01464)
(-0.112598 0.194443 1.34996)
(-0.0562137 -0.0565852 1.49294)
(-0.0253166 0.0195042 1.71399)
(0.0172059 0.157525 1.47551)
(-0.0921923 0.339502 0.95542)
(-0.0241714 0.49332 1.20851)
(0.0426854 0.125325 1.42449)
(0.0309865 -0.00817017 1.6732)
(-0.0858657 0.122877 1.46897)
(-0.196302 0.263616 1.28251)
(-0.0455311 0.375036 1.31993)
(0.0551351 0.0500388 1.39724)
(0.0198902 0.024697 1.82171)
(0.0797894 0.0385632 1.48039)
(0.00174697 0.0271199 1.44674)
(0.10506 -0.0275828 1.68659)
(0.0159388 0.0154491 0.762125)
(0.0923605 -0.0986515 0.704328)
(0.0907536 0.166641 0.746674)
(0.0368789 0.140956 0.835905)
(0.0648352 0.160528 1.21443)
(0.123337 0.161563 1.44901)
(0.117734 0.24898 0.806194)
(0.139211 0.295677 0.970387)
(0.0257507 0.369288 1.33631)
(-0.0659723 0.00736543 1.46286)
(-0.00965861 -0.0124567 1.74112)
(0.10984 0.0966763 1.44019)
(0.0774242 0.162215 1.02429)
(0.0406425 0.466208 1.17613)
(-0.0184987 0.325388 1.50124)
(0.00519708 0.0756198 1.7016)
(-0.112133 0.0126995 1.57777)
(-0.19861 0.237896 1.38255)
(-0.100072 0.437681 1.44141)
(-0.000573431 0.139932 1.47775)
(0.0169175 0.0373458 1.87351)
(0.0118991 -0.0273607 1.62225)
(-0.0791304 0.105171 1.57076)
(0.103985 -0.0136751 1.76778)
(0.0279357 0.0104831 0.705838)
(0.144353 -0.142882 0.676336)
(0.131508 0.0984065 0.698438)
(0.110585 0.110427 0.757427)
(0.0695355 0.123024 0.977021)
(0.334456 0.150185 1.22135)
(0.210172 0.0914354 0.822705)
(0.236456 0.16102 0.94656)
(0.147009 0.370636 1.32269)
(0.0320262 0.185841 1.52838)
(0.0143866 0.018841 1.72576)
(0.20101 0.118453 1.41918)
(0.21561 0.0195884 1.02675)
(0.0816384 0.337637 1.17359)
(-0.0620537 0.407213 1.61644)
(-0.0460384 0.157223 1.75241)
(-0.119958 -0.0533142 1.64993)
(-0.227066 0.178941 1.45698)
(-0.136313 0.412714 1.53922)
(-0.0629055 0.264459 1.60239)
(0.0109889 0.056017 1.94584)
(-0.0546258 -0.100031 1.74823)
(-0.122127 0.153714 1.69934)
(0.075262 0.0126628 1.86855)