/*--------------------------------*- C++ -*----------------------------------*\
| =========                 |                                                 |
| \\      /  F ield         | OpenFOAM: The Open Source CFD Toolbox           |
|  \\    /   O peration     | Version:  5.x                                   |
|   \\  /    A nd           | Web:      www.OpenFOAM.org                      |
|    \\/     M anipulation  |                                                 |
\*---------------------------------------------------------------------------*/
FoamFile
{
    version     2.0;
    format      ascii;
    class       volScalarField;
    location    "9.55";
    object      p;
}
// * * * * * * * * * * * * * * * * * * * * * * * * * * * * * * * * * * * * * //

dimensions      [0 2 -2 0 0 0 0];

internalField   nonuniform List<scalar> 
10571
(
156.972
193.608
169.114
153.994
143.642
202.336
155.359
144.682
137.787
133.722
227.895
212.398
154.204
146.639
136.78
132.325
225.376
164.437
137.042
132.419
131.974
171.057
135.116
132.893
125.919
125.691
128.079
127.896
118.925
131.564
121.998
131.166
127.994
124.48
147.516
130.636
119.225
120.421
122.335
127.713
124.506
102.841
127.283
130.373
129.188
120.818
124.805
128.301
14.5778
37.6672
49.6724
57.5209
10.6734
33.7489
21.7026
17.8588
29.6951
90.5882
49.83
21.0897
12.7467
14.1178
14.7813
95.7755
10.2766
13.7727
54.8787
83.6944
70.5107
20.8619
88.6806
88.931
7.91836
8.14486
9.64343
7.63786
6.91104
7.53849
5.55459
4.92947
5.76696
6.85732
7.11501
7.39019
5.22805
5.2086
3.31227
6.69131
7.51679
5.6556
6.24163
3.98839
4.75141
6.63322
6.39055
5.08962
6.68128
7.08594
6.84405
6.69693
6.90727
7.26727
7.16606
7.06434
7.53041
7.07684
7.07419
7.15178
7.28858
7.4372
7.57819
6.90227
7.09768
7.03657
6.51612
6.8941
6.71749
6.78967
6.6968
6.72601
6.85459
6.95039
6.75699
6.80785
6.95702
6.95447
6.87944
6.75301
7.13991
6.87424
6.96669
6.98973
7.00963
6.82502
7.01247
6.98284
6.94022
6.92197
6.98386
6.76992
6.69516
6.6765
6.69967
6.7488
6.76436
6.72267
6.76533
6.87603
6.76107
6.79657
6.88076
6.92323
6.7707
6.62661
6.80929
6.96342
6.96498
6.91674
6.91819
6.81919
6.80407
6.64896
6.8344
6.89042
6.88256
6.72675
6.66747
6.65401
6.75314
6.85088
6.71673
6.72058
6.72878
6.75597
6.81525
6.73916
6.74327
6.81785
6.8512
6.74265
6.65236
6.79151
6.81379
6.80963
6.863
6.84341
6.77468
6.77956
6.66257
6.78468
6.76073
6.83028
6.69984
6.66634
6.62101
6.76482
6.80798
6.71377
6.69457
6.71273
6.76163
6.79693
6.70913
6.71953
6.77882
6.80709
6.71032
6.68291
6.79208
6.73149
6.69473
6.82697
6.79777
6.71603
6.75253
6.69716
6.65364
6.74908
6.79212
6.67014
6.6763
6.5936
6.67531
6.71822
6.68954
6.70861
6.77609
6.77181
6.68558
6.72127
6.76261
6.77665
6.69359
6.71891
6.74213
6.6148
6.81357
6.78433
6.70008
6.74979
6.6841
6.50654
6.77851
6.66459
6.70487
6.57698
6.60496
6.73565
6.72331
6.72067
6.79456
6.75735
6.69527
6.74523
6.76469
6.75245
6.6875
6.77727
6.71948
6.66986
6.81899
6.79553
6.72414
6.80597
6.68286
6.51578
6.79274
6.70868
6.76852
6.629
6.66093
6.7659
6.773
6.75734
6.82155
6.76593
6.72355
6.78293
6.79117
6.70167
6.70389
6.82164
6.77204
6.75067
6.8356
6.84376
6.77313
6.86589
6.8012
6.69034
6.82433
6.77307
6.8481
6.76451
6.76391
6.8314
6.84794
6.8342
6.85096
6.80418
6.76739
6.81939
6.83719
6.73758
6.74053
6.83144
6.8593
6.83711
6.8722
6.86755
6.83583
6.87773
6.92827
6.83693
6.86592
6.83246
6.91085
6.92815
6.89689
6.8877
6.96162
6.92944
6.88944
6.87545
6.83856
6.86909
6.89017
6.78812
6.80813
6.85649
6.93202
6.92006
6.93016
6.88733
6.89731
6.87866
6.99168
6.94317
6.91061
6.88758
6.93261
7.00478
6.98011
6.93967
7.03302
6.99384
6.997
6.97919
6.93942
6.9235
6.99216
6.86345
6.87044
6.88563
6.96856
6.98215
6.99283
6.93247
6.96118
6.89966
7.02783
6.99653
6.95967
6.95059
6.95542
7.03121
7.01468
6.97842
6.98799
7.0106
7.07055
7.04805
6.9904
7.00678
7.11183
6.95849
6.91956
6.94443
6.99922
6.99829
7.05472
6.98785
7.01522
6.95324
7.03245
7.01573
7.01246
6.99982
6.97577
7.03014
7.02774
7.01629
7.00042
7.07879
7.07329
7.07681
7.02881
7.03681
7.08581
7.02239
6.95202
6.97172
6.9991
6.97839
7.10112
7.04118
7.05135
7.0052
7.03425
7.02765
7.06364
7.03741
7.01651
7.0008
7.02993
7.04273
7.00585
6.96991
7.06283
7.10198
7.06274
7.04965
7.06053
7.06303
6.98768
7.01136
7.01834
7.01278
7.12583
7.07922
7.07142
7.04403
7.04893
7.05248
7.10429
7.06529
7.05912
7.01787
7.04974
7.04974
7.03793
6.98036
7.08245
7.12779
7.09058
7.07483
7.07657
7.09416
7.02804
7.06327
7.07614
7.06569
7.13131
7.09671
7.07953
7.06811
7.08784
7.09241
7.12441
7.0669
7.08445
7.0797
7.09964
7.04162
7.07231
7.06983
7.10791
7.14458
7.10898
7.10018
7.11154
7.11034
7.05943
7.08634
7.13642
7.11185
7.1248
7.10589
7.08661
7.08535
7.14796
7.14403
7.12184
7.03963
7.10241
7.15548
7.14702
7.02903
7.0928
7.14553
7.12025
7.14139
7.11196
7.11282
7.13101
7.11273
7.07504
7.09808
7.16246
7.1598
7.11108
7.10581
7.09274
7.10136
7.1999
7.2113
7.10364
6.9998
7.10282
7.20974
7.20881
7.03175
7.09824
7.16941
7.11064
7.12036
7.09246
7.10585
7.128
7.11346
7.07086
7.09577
7.15256
7.179
7.09598
7.09474
7.05946
7.08637
7.17215
7.21203
7.08652
6.97344
7.07989
7.19518
7.20491
7.03848
7.08865
7.15121
7.08695
7.09554
7.0631
7.08787
7.11283
7.10017
7.05281
7.08375
7.1303
7.15299
7.08334
7.07879
7.02805
7.06032
7.13696
7.1801
7.07597
6.97748
7.05897
7.14578
7.16832
7.04369
7.07431
7.12222
7.0688
7.0738
7.04185
7.0721
7.09644
7.08068
7.04167
7.06472
7.10775
7.12307
7.07493
7.06352
7.01663
7.02637
7.10574
7.14127
7.07003
6.99438
7.04681
7.10958
7.13202
7.04516
7.06095
7.096
7.0605
7.05907
7.02965
7.06139
7.0844
7.06429
7.0328
7.04855
7.08923
7.10352
7.06991
7.05632
7.01452
6.99696
7.07949
7.10891
7.0697
7.01738
7.04144
7.08562
7.10501
7.04376
7.05235
7.07899
7.06332
7.05493
7.01993
7.0614
7.07871
7.05464
7.02095
7.04007
7.07497
7.09141
7.06872
7.05369
7.01887
6.9817
7.06046
7.08953
7.06869
7.04232
7.04233
7.0718
7.08798
7.05107
7.05126
7.07135
7.07348
7.06749
7.04739
7.06739
7.07991
7.0557
7.01989
7.04462
7.06766
7.08876
7.07146
7.06025
7.02541
6.99634
7.05296
7.0848
7.07462
7.06154
7.04593
7.06696
7.08175
7.06466
7.05657
7.0716
7.08884
7.07794
7.08596
7.07813
7.08962
7.06347
7.03448
7.0638
7.07086
7.0915
7.07214
7.06161
7.04404
7.03901
7.06259
7.09084
7.09265
7.07836
7.05743
7.06975
7.08448
7.07541
7.06618
7.07789
7.10294
7.08562
7.09582
7.0906
7.10139
7.07088
7.0533
7.08265
7.08057
7.09586
7.06101
7.05968
7.07732
7.08421
7.08293
7.09917
7.07028
7.09219
7.07482
7.07899
7.09281
7.08145
7.07847
7.08771
7.10796
7.08509
7.08455
7.09635
7.10531
7.07274
7.07907
7.08991
7.08575
7.09382
7.05655
7.06325
7.1215
7.1028
7.09547
7.10015
7.06098
7.10115
7.09012
7.0878
7.09681
7.08459
7.09086
7.09654
7.10986
7.08779
7.09411
7.09956
7.10215
7.06084
7.09772
7.08497
7.08523
7.08795
7.07023
7.06886
7.16032
7.10225
7.09732
7.09486
7.08861
7.09371
7.09979
7.09463
7.09566
7.09561
7.10164
7.10271
7.11176
7.09489
7.09517
7.0997
7.09781
7.06722
7.08485
7.08291
7.08462
7.08227
7.10735
7.08915
7.13146
7.10023
7.09692
7.09104
7.11512
7.07503
7.10422
7.09917
7.09565
7.11474
7.10751
7.10652
7.11055
7.09707
7.08656
7.09461
7.09433
7.07704
7.06192
7.08398
7.08557
7.079
7.12664
7.08253
7.0878
7.09537
7.09307
7.08988
7.13635
7.09603
7.10248
7.09835
7.09485
7.11727
7.10709
7.1066
7.10467
7.08822
7.07426
7.08675
7.09313
7.07476
7.04043
7.08348
7.08717
7.07853
7.11226
7.06271
7.08125
7.0871
7.0851
7.08826
7.11588
7.09911
7.09328
7.09145
7.09282
7.11073
7.102
7.1012
7.09458
7.08683
7.05885
7.07631
7.09268
7.08328
7.02314
7.08239
7.08479
7.07974
7.12407
7.07563
7.09376
7.07971
7.0728
7.08099
7.11087
7.09405
7.08354
7.08427
7.0843
7.1021
7.09527
7.09291
7.0792
7.09663
7.04294
7.06443
7.09022
7.11643
7.0396
7.08274
7.08028
7.08027
7.1803
7.1277
7.09403
7.07914
7.06205
7.06968
7.11494
7.08808
7.07622
7.07621
7.07107
7.09491
7.08841
7.08492
7.06286
7.12459
7.0497
7.05542
7.08497
7.14013
7.05474
7.08141
7.07021
7.0742
7.1606
7.11409
7.08315
7.07985
7.05817
7.06393
7.10798
7.0805
7.07128
7.071
7.07009
7.08779
7.08241
7.07943
7.06023
7.15334
7.06586
7.05761
7.07934
7.12696
7.03788
7.07186
7.05698
7.06584
7.12276
7.09997
7.07794
7.08208
7.05882
7.06716
7.09862
7.07359
7.06657
7.07214
7.08656
7.08128
7.07748
7.07604
7.06635
7.14917
7.07312
7.06662
7.07319
7.07024
7.02372
7.05535
7.04398
7.06155
7.10356
7.0843
7.07657
7.08364
7.0624
7.07661
7.08932
7.06758
7.06191
7.07229
7.0974
7.0756
7.0737
7.07401
7.06751
7.07118
7.05013
7.06572
7.06987
7.03149
7.02849
7.05172
7.03788
7.06452
7.09491
7.07489
7.0767
7.08633
7.07472
7.08995
7.08233
7.06268
7.05953
7.07158
7.0995
7.07124
7.07114
7.07328
7.06936
7.03611
7.03176
7.06963
7.06918
7.0336
7.03852
7.05887
7.04668
7.06886
7.08781
7.07247
7.07665
7.09035
7.09177
7.09928
7.07789
7.05816
7.05923
7.07484
7.10106
7.06803
7.06975
7.07412
7.07208
7.04507
7.0397
7.07734
7.06706
7.05066
7.0524
7.0701
7.05576
7.0771
7.08186
7.07268
7.07185
7.08804
7.10245
7.11809
7.07491
7.05467
7.05892
7.07882
7.10853
7.06531
7.0676
7.07516
7.07028
7.05966
7.04743
7.07378
7.05471
7.062
7.05642
7.06377
7.0731
7.0991
7.07651
7.07178
7.0634
7.07683
7.10317
7.14582
7.07063
7.05061
7.05521
7.08133
7.11157
7.06224
7.06384
7.07416
7.05802
7.06904
7.04196
7.05732
7.05043
7.06306
7.04208
7.05317
7.09419
7.12922
7.07112
7.06662
7.04896
7.05823
7.0873
7.14628
7.06373
7.04345
7.04727
7.0748
7.10471
7.05802
7.05845
7.06991
7.04199
7.06271
7.02887
7.0359
7.04803
7.05477
7.01877
7.03894
7.07224
7.10219
7.06494
7.05686
7.02783
7.02985
7.05204
7.1091
7.0567
7.03543
7.03648
7.05881
7.08618
7.05358
7.05233
7.06315
7.02953
7.04555
7.01507
7.02124
7.03268
7.03603
7.00025
7.01863
7.03026
7.03462
7.05991
7.04539
7.01613
7.01242
7.02033
7.0635
7.05168
7.03084
7.0274
7.04164
7.06399
7.05216
7.04809
7.05707
7.02892
7.02638
7.00986
7.01863
7.0205
7.01251
6.99376
7.006
6.99474
6.97551
7.0563
7.03902
7.02357
7.01743
7.01513
7.0343
7.05238
7.03527
7.02507
7.03368
7.04989
7.05722
7.04943
7.05693
7.04848
7.02349
7.01724
7.02702
7.02328
7.00126
6.99003
6.99571
6.99546
6.95568
7.05609
7.04072
7.03962
7.03559
7.03397
7.03424
7.05953
7.0502
7.03296
7.04044
7.05295
7.06833
7.05872
7.06539
7.08762
7.03864
7.04282
7.05511
7.06034
7.01019
7.00612
7.0016
7.023
6.97699
7.06218
7.05021
7.05898
7.06203
7.06491
7.06514
7.07412
7.07267
7.05659
7.06071
7.07466
7.08428
7.07507
7.08175
7.15287
7.08157
7.12655
7.11401
7.11088
7.02891
7.06927
7.06661
7.076
7.05573
7.08161
7.06463
7.07864
7.09526
7.09997
7.11465
7.09588
7.09524
7.08427
7.08653
7.10405
7.10177
7.09432
7.10154
7.15112
7.13198
7.18659
7.12689
7.16196
7.05075
7.09176
7.11309
7.11011
7.13453
7.11308
7.08108
7.097
7.12408
7.12814
7.15044
7.11941
7.11423
7.10741
7.11074
7.12597
7.11772
7.11213
7.11918
7.1811
7.09157
7.15967
7.16494
7.17957
7.05158
7.11171
7.13144
7.12261
7.14192
7.14705
7.11469
7.12147
7.13462
7.13351
7.15054
7.13863
7.12957
7.12149
7.1246
7.13294
7.12986
7.12529
7.13078
7.19061
7.09663
7.148
7.16396
7.15875
7.10646
7.13189
7.13604
7.12856
7.13772
7.1815
7.15033
7.13869
7.13571
7.12995
7.13797
7.15119
7.13855
7.12792
7.1298
7.1306
7.13902
7.13339
7.13674
7.16662
7.13365
7.14695
7.1549
7.14409
7.14694
7.13999
7.13231
7.12076
7.12996
7.17754
7.16
7.14409
7.13613
7.12759
7.12707
7.15546
7.14268
7.13086
7.12899
7.12832
7.14528
7.13849
7.13939
7.15781
7.14934
7.14819
7.15058
7.14382
7.15335
7.13867
7.1302
7.11963
7.12611
7.16787
7.15927
7.14483
7.13715
7.12354
7.12009
7.15879
7.14514
7.13343
7.12786
7.12705
7.14906
7.14142
7.14061
7.15545
7.15514
7.14986
7.14962
7.1442
7.15661
7.14139
7.13343
7.12482
7.1354
7.16584
7.16156
7.14589
7.13681
7.11883
7.11623
7.16274
7.14857
7.1352
7.1289
7.12496
7.15205
7.14341
7.14148
7.14718
7.15808
7.1497
7.14316
7.13299
7.15944
7.14333
7.1277
7.11244
7.11761
7.16738
7.16535
7.14613
7.13294
7.10692
7.1054
7.16723
7.15398
7.13396
7.12845
7.11723
7.15444
7.14285
7.14132
7.1322
7.15884
7.14599
7.13107
7.11875
7.16115
7.14382
7.11429
7.08834
7.08202
7.16885
7.16525
7.14603
7.11961
7.08552
7.07684
7.16921
7.15891
7.13157
7.12391
7.10045
7.15684
7.14056
7.13816
7.11986
7.15988
7.14257
7.12164
7.1051
7.16557
7.14694
7.1056
7.05364
7.04108
7.17009
7.16502
7.14308
7.10067
7.04607
7.02341
7.17122
7.16247
7.12726
7.10928
7.06816
7.16474
7.13826
7.13128
7.12964
7.1636
7.14313
7.12087
7.09889
7.16988
7.15742
7.0949
7.00227
6.95819
7.17419
7.16888
7.14172
7.08244
6.99345
6.91751
7.17538
7.16689
7.12456
7.08236
7.0097
7.17136
7.14041
7.12215
7.15572
7.17222
7.14978
7.13142
7.10103
7.17644
7.16738
7.08059
6.93236
6.80061
7.18248
7.17588
7.14686
7.06173
6.90612
6.67286
7.18145
7.16958
7.12164
7.04759
6.90245
7.17877
7.14824
7.11468
7.20897
7.18553
7.15985
7.16319
7.12658
7.18635
7.17356
7.06067
6.8391
6.40899
7.19459
7.18757
7.16269
7.03551
6.78645
6.11756
7.1925
7.1728
7.11749
6.99936
6.70264
7.18908
7.15612
7.11146
7.2946
7.20107
7.16033
7.22231
7.18051
7.19905
7.17379
7.0376
6.75326
5.38967
7.20998
7.20587
7.19235
7.01771
6.67915
5.33187
-5.36246
7.21029
7.1837
7.12208
6.94933
6.24815
7.20547
7.1658
7.11497
7.27439
7.21035
7.12078
7.22219
7.24776
7.21435
7.17709
7.08646
6.7329
4.77917
0.214215
7.22985
7.22503
7.21299
7.06334
6.67315
5.42412
0.229774
7.23168
7.21179
7.13643
6.93592
5.66537
7.22732
7.1852
7.13781
7.16962
7.19982
7.05508
7.05686
7.17831
7.2334
7.18494
7.09202
6.83164
5.45145
1.4651
7.25827
7.24945
7.22998
7.10975
6.81619
5.50729
1.41755
7.25655
7.24043
7.1752
7.02941
6.16356
1.96727
7.25238
7.21132
7.19013
7.18203
7.23171
7.15074
7.09484
7.12262
7.26468
7.22124
7.13598
6.97768
5.6898
1.42386
7.29318
7.28416
7.25713
7.15187
6.97643
5.80322
1.35514
7.28657
7.26623
7.22458
7.10122
6.55035
7.27475
7.23873
7.23483
7.23841
7.27583
7.22546
7.18821
7.14836
7.29984
7.26256
7.22814
7.03201
6.09737
7.32341
7.31565
7.27619
7.20715
7.1272
6.17887
-1.73373
7.31768
7.28876
7.26366
7.19985
7.14765
7.29144
7.26613
7.27443
7.26454
7.30852
7.28587
7.23481
7.19491
7.31214
7.28013
7.24054
7.05781
6.92359
7.33431
7.32308
7.26596
7.20913
7.1793
6.98446
7.33468
7.28155
7.27678
7.25982
7.29449
7.29839
7.27704
7.29697
7.27411
7.31389
7.29311
7.24281
7.21688
7.31013
7.26382
7.19739
7.04102
7.12078
7.31988
7.30691
7.23311
7.14291
7.14771
7.15379
7.31334
7.22806
7.22609
7.2442
7.30966
7.28213
7.25978
7.28538
7.27545
7.29592
7.27656
7.23465
7.21641
7.28846
7.23217
7.17075
7.03653
7.17541
7.29174
7.27747
7.18646
7.06902
7.09745
7.17821
7.26985
7.14022
7.15971
7.20403
7.26956
7.22943
7.21787
7.24948
7.27718
7.28517
7.26193
7.23898
7.23733
7.27499
7.21601
7.17986
7.07455
7.21972
7.27246
7.25352
7.1361
7.03879
7.09234
7.19365
7.21329
7.03619
7.10096
7.1749
7.24131
7.1311
7.17487
7.2211
7.28629
7.28353
7.25641
7.25209
7.26503
7.26992
7.21671
7.21054
7.16071
7.27185
7.27225
7.24744
7.14605
7.11913
7.184
7.24306
7.18958
7.01599
7.13587
7.19815
7.25898
7.04849
7.18039
7.22921
7.29524
7.2771
7.24874
7.26668
7.29641
7.26551
7.23021
7.24329
7.21535
7.30695
7.28024
7.25555
7.19377
7.20752
7.2507
7.29568
7.21644
7.10428
7.26283
7.27237
7.31148
7.11838
7.25379
7.29198
7.3
7.27013
7.25216
7.28694
7.34482
7.25385
7.2311
7.25883
7.237
7.33128
7.28433
7.239
7.2024
7.26405
7.29236
7.32331
7.26247
7.2148
7.30623
7.33391
7.34781
7.21952
7.33262
7.35958
7.30468
7.27369
7.26548
7.29795
7.35512
7.24395
7.22962
7.27518
7.28193
7.3693
7.27563
7.22954
7.19561
7.27172
7.29736
7.33994
7.27186
7.24796
7.31701
7.34258
7.34048
7.27134
7.34478
7.37453
203.587
171.387
189.414
178.05
163.893
168.394
163.192
159.085
257.285
230.497
215.99
248.803
209.323
191.34
172.906
181.872
166.111
165.238
160.005
158.786
154.201
155.22
152.211
148.794
144.876
144.322
269.867
258.965
276.082
253.809
202.933
259.635
207.468
170.765
159.002
169.294
157.493
150.552
146.964
152.91
150.914
143.043
139.847
145.092
138.556
139.185
135.815
138.866
267.99
287.792
287.219
271.531
222.54
278.04
238.163
176.241
158.378
187.82
156.481
153.18
150.561
147.272
145.968
143.578
137.866
140.389
137.074
135.891
137.765
139.281
274.834
275.209
250.715
257.756
253.145
221.12
176.489
236.172
203.165
150.372
143.889
151.484
138.789
137.56
136.428
138.195
144.164
142.66
237.897
229.154
196.783
178.595
151.541
143.299
159.59
146.775
178.098
159.416
161.171
171.74
164.549
154.799
159.435
154.481
157.817
152.145
153.024
149.969
146.819
146.836
143.759
215.157
173.6
182.654
201.122
177.651
162.647
159.855
165.992
159.188
140.105
140.505
137.281
144.141
140.005
142.509
139.194
135.56
135.746
224.79
228.924
230.71
184.934
195.477
190.355
132.404
131.669
134.099
131.787
132.764
235.828
235.931
191.606
187.89
184.226
130.704
132.184
132.71
132.371
132.952
230.174
178.388
195.135
217.902
207.393
170.513
154.164
167.235
158.075
131.515
132.253
131.916
131.933
133.43
133.8
133.226
132.624
196.842
149.972
150.964
144.016
139.807
131.394
129.594
133.468
134.554
132.447
133.309
129.949
132.291
123.145
80.4428
123.611
123.842
122.964
77.7137
81.8162
80.7243
122.957
114.961
68.3141
70.5232
50.3657
108.866
41.6532
133.223
90.3983
125.073
128.605
129.201
81.2531
80.5375
84.4601
80.9984
116.105
133.98
126.627
71.0315
65.61
106.258
91.6163
124.615
103.72
142.115
150.343
146.575
97.0101
101.174
98.5167
125.146
125.617
112.227
114.931
115.313
142.034
136.016
96.1148
92.3386
84.0523
125.646
126.762
116.744
114.391
115.589
128.975
76.0917
127.021
121.312
119.352
72.6549
82.022
68.8529
69.0282
131.632
130.338
129.27
124.276
123.309
121.963
116.099
117.119
116.793
72.3605
120.241
120.821
86.4295
106.18
110.183
126.437
123.816
115.461
118.048
116.435
119.953
30.8104
9.84409
22.3994
32.07
31.864
11.1559
11.7799
13.7009
20.5232
10.2684
8.94412
9.13777
6.41957
8.23154
6.63316
49.7231
20.7423
29.5934
37.7348
17.3573
13.0042
9.13857
12.489
6.58636
9.22016
33.6583
25.9316
5.88628
5.89163
7.67514
6.80038
56.6938
11.1047
55.5795
56.325
53.7386
23.7515
23.5841
18.813
102.715
102.759
37.9573
77.7112
81.0001
43.1143
28.7332
14.9382
8.87472
6.86768
99.9684
87.1591
47.443
72.4096
16.25
18.2117
6.48804
10.6552
8.32744
8.47637
6.5356
5.85404
6.80873
6.12016
72.1688
84.8372
56.3471
11.0676
7.04655
11.0432
7.40712
9.11815
8.8239
6.13545
53.7296
58.2677
6.40809
8.69359
7.94005
97.9348
83.4925
26.1288
33.4682
13.6792
13.9963
7.8445
7.53553
8.66756
8.6923
9.08032
7.07574
7.62105
6.7834
7.39872
7.25817
6.85378
6.53086
7.0293
7.47539
7.15234
9.34311
7.39993
7.44937
7.75648
7.35328
7.5794
7.28944
7.58851
7.29485
6.97836
6.58105
6.41529
6.87356
6.85299
7.05556
6.86225
6.06114
6.77396
9.24522
9.41894
7.86387
7.31706
7.34906
7.25474
9.82545
12.8927
5.6413
4.41535
3.73496
7.18351
7.31059
7.43288
7.36325
7.25737
10.4457
5.31144
4.98586
3.56047
6.05895
7.42431
7.11726
7.41844
7.44606
7.31597
7.0712
6.93448
7.04237
6.84083
4.45561
4.52887
4.50967
6.58208
6.57468
6.59578
6.64719
6.59573
7.08331
6.82101
6.08354
5.96723
6.76139
6.8056
6.93065
6.89644
5.85087
6.37035
6.4584
6.68038
6.64042
7.04295
6.91921
6.73899
6.89518
6.74639
6.76026
6.8886
6.76933
6.65277
6.89434
6.83007
6.7913
6.83556
6.9565
6.93728
7.15168
7.03266
7.00147
7.24687
7.03848
7.02179
6.95495
7.07098
6.94778
6.88036
7.07989
6.97013
6.95949
6.97411
7.01802
6.97913
7.06715
6.98235
7.12796
7.11022
7.09445
7.04083
7.04367
7.03339
7.31904
7.46012
6.863
7.34901
6.72884
7.08251
7.1188
7.08242
7.07765
7.07348
7.00233
6.56946
6.94552
5.97532
6.66203
7.09428
7.05706
7.03322
7.0804
7.00754
7.04222
6.97167
7
6.91531
6.59771
6.69857
6.59847
6.68268
6.60272
6.67686
6.64548
6.68874
6.94645
6.86816
6.81696
6.86629
6.77267
6.7956
6.83067
6.81355
6.82525
6.72393
6.68667
6.83027
6.68181
6.86296
6.86566
6.76367
6.82079
6.76193
6.76875
6.80397
6.76863
6.7956
6.76579
6.80026
6.75454
6.737
6.91127
6.86303
6.95908
6.90989
6.91122
6.95408
6.91942
6.91407
6.87686
6.91777
6.8946
6.9614
6.96652
6.94684
6.91978
6.9191
6.92092
6.90796
6.88179
6.8244
6.98225
6.98225
6.98468
6.94224
6.95704
6.95675
6.81122
7.14935
7.45698
6.93566
6.97148
6.97408
6.91687
6.95454
6.9712
6.92387
6.95212
6.99814
6.90911
6.91676
6.9901
7.01715
6.97496
6.97852
6.97829
7.50157
6.82318
6.8238
6.82538
6.87655
6.80979
6.87902
6.89399
6.85964
6.87328
6.87643
6.87341
6.86636
6.86894
6.99876
6.95886
6.9177
6.94829
6.88692
6.93857
6.87817
6.90456
6.84223
6.65432
6.68051
6.6754
6.68027
6.69679
6.68789
6.69039
6.68941
6.84728
6.80089
6.7823
6.80526
6.72422
6.76317
6.78056
6.74279
6.82842
6.74726
6.75312
6.77482
6.73184
6.84976
6.82246
6.76932
6.78774
6.77248
6.76288
6.77423
6.7666
6.73859
6.75371
6.75653
6.73669
6.7664
6.83447
6.81216
6.87501
6.85319
6.8553
6.88427
6.85907
6.83942
6.83144
6.85664
6.82648
6.87906
6.86264
6.87879
6.84631
6.84476
6.81675
6.84942
6.94881
7.03672
6.92509
7.08303
6.97139
6.98079
6.93589
6.9645
6.90263
6.92432
6.91835
6.8753
6.89796
6.88897
7.04198
6.93143
6.98688
6.88202
6.98591
6.89132
6.96576
6.95522
6.92152
6.89108
6.89505
6.92133
6.84036
6.87435
6.91954
6.92202
6.89397
6.89718
6.89616
6.93961
6.78364
6.93268
6.83268
6.92114
6.77029
6.87538
6.87849
6.85134
6.86842
6.80504
6.85408
6.8003
6.85179
6.90481
6.87511
6.84884
6.8595
6.81271
6.85532
6.82605
6.83746
6.79035
6.71979
6.69066
6.69996
6.63745
6.71832
6.68693
6.70085
6.97872
6.77663
6.98157
6.86046
6.81261
6.84342
6.77235
6.75394
6.74517
6.75049
6.71302
6.72854
6.72934
6.74996
6.73264
6.70137
6.74238
6.70813
6.71715
6.79329
6.77223
6.7526
6.75831
6.74884
6.74654
6.73816
6.73407
6.73472
6.76583
6.75703
6.73082
6.76351
6.79492
6.77924
6.84072
6.83078
6.81541
6.83269
6.8056
6.80843
6.80008
6.82016
6.79571
6.81671
6.77628
6.81807
6.79574
6.79711
6.73887
6.78786
6.85106
7.02793
6.74693
6.90045
6.88338
6.95349
6.8116
6.93863
6.8529
6.8699
6.86242
6.83532
6.84844
6.83917
6.93071
6.82037
6.89927
6.74518
6.8345
6.75677
6.8431
6.89451
6.75081
6.84646
6.74481
6.89564
6.70937
6.83894
6.86468
6.86456
6.84221
6.8389
6.83988
6.85048
6.75309
6.8505
6.71841
6.79963
6.68711
6.85032
6.83407
6.77892
6.8325
6.74936
6.82568
6.7865
6.84809
6.84572
6.82157
6.79547
6.81048
6.76602
6.80846
6.76998
6.79073
6.74921
6.7138
6.68749
6.70174
6.6105
6.7013
6.69118
6.70172
6.98439
6.71464
6.98067
6.8396
6.82447
6.84699
6.73852
6.73931
6.71319
6.71154
6.71708
6.69616
6.6988
6.73482
6.70415
6.69118
6.73011
6.70686
6.70989
6.76216
6.75304
6.74412
6.72821
6.72775
6.74586
6.73024
6.72751
6.72917
6.76469
6.76841
6.73301
6.76633
6.76844
6.7633
6.8183
6.80544
6.78436
6.80587
6.78734
6.78204
6.76476
6.79235
6.77481
6.78148
6.70811
6.75273
6.76737
6.77155
6.68664
6.72604
6.66911
6.6472
6.82104
6.83038
6.8225
6.80773
6.81674
6.80814
6.82117
6.72778
6.80447
6.67636
6.73569
6.70906
6.74502
6.90602
6.69052
6.84244
6.77466
6.90286
6.7805
6.85886
6.82031
6.82313
6.81681
6.80922
6.81199
6.75284
6.68076
6.91464
6.56248
6.68744
6.65987
6.87504
6.84746
6.81471
6.85955
6.78869
6.88428
6.85077
6.87269
6.80622
6.79676
6.75197
6.7753
6.74231
6.78119
6.7406
6.76833
6.73932
6.6792
6.69574
6.70001
6.57755
6.65458
6.69687
6.69293
6.61968
6.74082
6.74344
6.68106
6.69112
6.72802
6.67582
6.69132
6.73297
6.71761
6.70134
6.74232
6.73168
6.71208
6.74733
6.74743
6.75206
6.7383
6.73264
6.7612
6.74942
6.74173
6.74264
6.77096
6.78407
6.75449
6.77683
6.76292
6.76526
6.79168
6.77533
6.74516
6.78047
6.76485
6.76242
6.72978
6.76827
6.75244
6.76941
6.67851
6.71652
6.76163
6.77368
6.6813
6.72461
6.66884
6.69651
6.79513
6.80735
6.7971
6.77756
6.79929
6.78624
6.70198
6.81958
6.62487
6.63665
6.50057
6.80462
6.80798
6.81409
6.80552
6.80851
6.71672
6.60581
6.47666
6.27218
6.5881
6.79433
6.79726
6.74779
6.76948
6.7477
6.78064
6.7504
6.77543
6.75817
6.63708
6.70532
6.69261
6.59447
6.6386
6.71744
6.70013
6.63121
6.75034
6.76245
6.68669
6.70667
6.74602
6.71781
6.73538
6.75799
6.74839
6.74596
6.77889
6.76912
6.7331
6.75433
6.76712
6.77197
6.76325
6.75241
6.78564
6.7795
6.76544
6.76911
6.78417
6.80764
6.78587
6.79399
6.77247
6.78431
6.75067
6.73425
6.72039
6.75223
6.74327
6.75622
6.72028
6.74635
6.74422
6.78353
6.69132
6.74233
6.77498
6.79685
6.71008
6.76513
6.72586
6.75068
6.74641
6.7931
6.77513
6.7125
6.79059
6.76946
6.65366
6.64349
6.71115
6.68573
6.69384
6.81153
6.81499
6.82482
6.82158
6.82245
6.51468
6.61468
6.60306
6.63702
6.66805
6.80804
6.8206
6.77242
6.78816
6.77486
6.80492
6.78444
6.8023
6.79231
6.66607
6.73519
6.72103
6.68851
6.70897
6.76557
6.75697
6.70454
6.77977
6.80062
6.75839
6.77042
6.79491
6.80075
6.79982
6.79961
6.79167
6.80446
6.82343
6.8097
6.79186
6.78335
6.80446
6.80324
6.79787
6.78385
6.82097
6.81852
6.80666
6.80313
6.80655
6.83474
6.82096
6.82085
6.80087
6.82235
6.73989
6.7698
6.7286
6.74942
6.7522
6.78118
6.74674
6.75949
6.76069
6.81443
6.74
6.79336
6.81202
6.83702
6.77517
6.82386
6.77985
6.81485
6.72007
6.79229
6.77174
6.75708
6.80247
6.78698
6.72309
6.7373
6.79168
6.7653
6.78327
6.83523
6.83881
6.85007
6.85363
6.85651
6.72012
6.72515
6.76521
6.79499
6.78712
6.84009
6.8561
6.80525
6.82205
6.81358
6.84174
6.82434
6.84019
6.83092
6.76849
6.80645
6.80477
6.85489
6.83638
6.85862
6.85587
6.83177
6.82619
6.84548
6.84742
6.83023
6.85896
6.86671
6.86932
6.85546
6.85663
6.8943
6.88572
6.92499
6.88208
6.8331
6.86779
6.83798
6.84335
6.82845
6.85719
6.87035
6.84628
6.84291
6.83821
6.87076
6.86386
6.85427
6.84751
6.87157
6.81489
6.85824
6.77036
6.77977
6.76961
6.83506
6.79293
6.80804
6.78546
6.86467
6.81713
6.86273
6.86367
6.89388
6.86384
6.90068
6.85309
6.89286
6.80244
6.82178
6.81733
6.84205
6.85227
6.85385
6.81203
6.83307
6.879
6.85742
6.87824
6.87623
6.87834
6.90099
6.90199
6.90417
6.87076
6.85246
6.8959
6.93458
6.90429
6.88245
6.90638
6.84805
6.86671
6.85321
6.8878
6.87278
6.88882
6.87739
6.89877
6.90906
6.90589
6.97822
6.94493
6.9474
6.94478
6.94596
6.87341
6.89395
6.88455
6.91406
6.90539
6.89492
6.92488
6.90526
6.9813
7.0296
6.94169
7.00842
6.96605
6.91283
6.96506
6.88317
6.89835
6.87041
6.91667
6.94206
6.90262
6.87874
6.87647
6.92563
6.90573
6.91493
6.89629
6.9468
6.89935
6.94069
6.82154
6.84011
6.81823
6.9266
6.8704
6.87602
6.86018
6.92735
6.90526
6.94024
6.93925
6.96821
6.94008
6.97586
6.93014
6.9604
6.87507
6.8891
6.89132
6.90878
6.92778
6.92764
6.9038
6.92218
6.9565
6.94565
6.95973
6.93013
6.93145
6.96103
6.95873
6.95752
6.97888
6.9445
6.97521
7.00108
6.97251
6.93074
6.95534
6.89742
6.92022
6.90174
6.93461
6.9215
6.94851
6.93717
6.97339
6.97684
6.96802
7.01772
6.99167
6.99714
6.98572
7.00144
6.92355
6.94878
6.93924
6.9485
6.95029
6.94399
6.94793
6.97333
7.0107
6.99426
7.00267
6.9879
7.00369
7.01085
7.04465
6.97514
6.98877
6.945
7.02555
7.02443
6.9839
6.95856
6.97344
7.05006
7.01338
7.03669
7.00703
7.06904
6.98506
7.02732
6.92996
6.92447
6.90807
7.02178
6.97619
6.97444
6.94894
7.01139
6.98555
7.0092
7.06005
7.08
7.0524
7.05844
6.99735
7.02979
6.94734
6.96948
6.96569
6.98815
7.0105
7.00344
6.97563
6.98659
6.99829
6.99769
7.00447
6.98803
6.98262
7.02471
7.01876
7.00937
7.0134
6.9924
7.00949
7.01852
7.00651
6.98107
7.00751
6.94643
6.97829
6.96782
6.9859
6.97365
7.00864
6.99818
7.00771
7.01376
7.00045
7.03439
7.01938
7.03125
7.01346
7.02248
6.97809
7.00653
6.96826
6.97186
6.99693
6.98377
6.98666
7.02922
6.98844
6.99371
7.04439
6.99072
7.05866
7.06758
7.07584
7.05251
7.05097
7.0103
7.06178
7.06175
7.02695
7.05134
7.08133
7.07524
7.06457
7.09447
7.11437
7.11822
7.05956
7.08209
7.00797
7.01443
6.97715
7.06399
7.0313
7.04351
7.00234
7.11382
7.09
7.09195
7.10915
7.09595
7.08072
7.07042
7.04719
7.03788
7.02526
7.04767
7.03996
7.05454
7.07778
7.07103
7.00529
7.01314
6.98943
7.00657
7.01655
7.04821
7.03253
7.08041
7.07423
7.05632
7.02035
7.01559
7.02091
7.02312
7.023
7.03262
7.05796
7.00006
7.0347
7.02699
7.03819
7.02734
7.06313
7.05362
7.02522
7.02648
7.01396
7.01556
7.0237
6.97209
6.99524
7.02968
7.03237
7.05647
7.00499
7.0089
7.03131
7.02172
7.02472
7.04112
7.00067
6.99569
7.0213
7.0006
7.02746
7.07792
7.08192
7.05902
7.06582
7.03695
7.05712
7.07013
7.04487
7.06248
7.08403
7.06658
7.05783
7.07305
7.09578
7.0777
7.09672
7.10749
7.04911
7.0621
7.02181
7.08932
7.06551
7.07475
7.03854
7.07305
7.05084
7.04323
7.06772
7.05697
7.02771
7.0246
7.02286
7.01494
7.0762
7.10056
7.09559
7.09286
7.11655
7.11349
7.00974
7.02087
6.99311
7.01762
7.02778
7.09558
7.0762
7.11621
7.11155
7.09487
7.03008
7.03052
7.03788
7.03822
7.03938
7.081
7.10265
7.053
7.08522
7.07351
7.08591
7.07547
7.1039
7.08681
7.02293
6.92689
6.98796
6.99959
7.03009
6.92532
6.99726
7.03253
7.07354
7.08533
7.03856
7.03935
7.04959
7.05189
7.05033
7.01501
7.01415
7.01519
7.01562
7.02397
6.95514
7.08979
7.1002
7.06201
7.07761
7.05664
7.07229
7.08747
7.07043
7.05774
7.06897
7.06924
7.06607
7.07297
7.07025
7.07442
7.11672
7.12576
7.08095
7.08556
7.05282
7.11512
7.09562
7.09675
7.06644
7.05167
7.00835
7.01268
7.06276
7.05512
7.011
7.01512
7.01858
7.03202
7.10579
7.1269
7.12588
7.1166
7.1333
7.13471
7.03016
7.03941
7.03691
7.04473
7.05462
7.12189
7.10776
7.13057
7.12708
7.11826
7.05066
7.05304
7.07048
7.06812
7.07029
7.12063
7.134
7.09417
7.1171
7.09483
7.11763
7.10547
7.12626
7.09874
7.04475
6.9672
7.02499
7.04675
7.06899
7.02375
7.06061
7.07577
7.09054
7.09001
7.06063
7.05822
7.0488
7.06588
7.06375
7.02446
7.04274
7.0561
7.03954
7.05813
7.02348
7.11122
7.12078
7.08452
7.09902
7.08378
7.09693
7.10932
7.09672
7.08101
7.08241
7.09623
7.09554
7.09403
7.08595
7.101
7.1342
7.1411
7.10941
7.10773
7.0826
7.1382
7.12076
7.11815
7.0963
7.07055
7.03033
7.03421
7.09419
7.09038
7.05278
7.06031
7.05251
7.07677
7.12459
7.13681
7.13941
7.12992
7.13806
7.1417
7.0659
7.07729
7.08903
7.08727
7.10037
7.12803
7.12496
7.12928
7.12665
7.12848
7.09053
7.09235
7.11713
7.11464
7.10914
7.13945
7.13851
7.11003
7.12787
7.09983
7.12603
7.10681
7.12426
7.09408
7.09786
7.07347
7.0917
7.11552
7.12396
7.11679
7.11947
7.11869
7.08439
7.07555
7.06736
7.06587
7.03525
7.06753
7.06615
7.06089
7.07101
7.08446
7.08506
7.08114
7.11001
7.12734
7.13021
7.10684
7.11687
7.1064
7.11342
7.12104
7.1121
7.10675
7.10507
7.11646
7.11471
7.11269
7.11567
7.12657
7.14479
7.14449
7.1288
7.12564
7.10826
7.14581
7.13239
7.12954
7.115
7.11104
7.07686
7.09081
7.12425
7.12697
7.096
7.1109
7.10514
7.13333
7.13148
7.13775
7.14271
7.13067
7.13412
7.14139
7.10494
7.12202
7.13613
7.13533
7.15128
7.12266
7.12878
7.11785
7.11728
7.12666
7.14034
7.14311
7.1809
7.16863
7.18193
7.13277
7.12468
7.09748
7.11585
7.0823
7.11395
7.08129
7.10652
7.06687
7.1518
7.15405
7.14422
7.1905
7.17864
7.17897
7.17149
7.18382
7.06543
7.05724
7.06642
7.06451
7.02942
7.06601
7.06328
7.10542
7.08799
7.09709
7.11685
7.09298
7.16519
7.12892
7.12347
7.11403
7.12098
7.11263
7.10857