/*--------------------------------*- C++ -*----------------------------------*\
| =========                 |                                                 |
| \\      /  F ield         | OpenFOAM: The Open Source CFD Toolbox           |
|  \\    /   O peration     | Version:  5.x                                   |
|   \\  /    A nd           | Web:      www.OpenFOAM.org                      |
|    \\/     M anipulation  |                                                 |
\*---------------------------------------------------------------------------*/
FoamFile
{
    version     2.0;
    format      ascii;
    class       volVectorField;
    location    "4.35";
    object      U;
}
// * * * * * * * * * * * * * * * * * * * * * * * * * * * * * * * * * * * * * //

dimensions      [0 1 -1 0 0 0 0];

internalField   nonuniform List<vector> 
10571
(
(-0.253814 0.315383 2.44997)
(0.315791 -0.147034 0.640009)
(0.483176 -0.0119459 2.81677)
(-0.043768 -0.566675 1.35116)
(1.39794 0.859424 2.10462)
(0.207389 0.0932216 0.8581)
(-0.27534 -0.691919 1.77975)
(0.10535 -0.232719 0.933692)
(0.954184 -0.363137 1.80516)
(-0.125059 0.0794221 1.48209)
(0.0962307 -0.367192 3.48204)
(-0.0509868 0.428993 1.50395)
(-0.646136 0.19937 2.22535)
(-0.00670053 -0.0142121 0.883453)
(0.649343 -0.327196 1.08797)
(0.60466 0.0953576 1.65323)
(0.00232684 0.618692 1.86044)
(-0.990042 0.849777 2.63605)
(-0.658993 0.242696 2.03066)
(0.248532 -0.134446 1.09446)
(0.336306 -0.606247 1.29997)
(-0.378604 -0.321566 1.24668)
(-0.485877 -0.00279345 1.78636)
(0.0640598 -0.064897 0.990078)
(0.223392 0.0555321 0.384062)
(0.0539506 -0.0156026 0.0739166)
(0.0715652 0.646699 1.85913)
(1.0132 0.516722 1.00685)
(0.946191 0.613864 0.81171)
(0.647135 -0.343364 1.00956)
(0.892567 0.326387 1.43827)
(0.974287 0.376963 1.25918)
(0.811215 0.31331 4.13846)
(-0.150687 0.389614 1.47042)
(-0.00182621 -0.314933 2.21578)
(0.441794 -0.354552 0.964204)
(0.819237 -0.219394 1.56298)
(0.728347 -0.382307 1.37462)
(0.865746 -0.705124 2.34705)
(0.617837 -0.437701 2.25164)
(0.189894 -0.316094 1.23)
(1.21061 -0.416342 2.31343)
(0.665968 -0.234218 1.01256)
(0.224554 -0.241797 0.581519)
(0.321005 -0.0482383 1.17637)
(0.282377 -0.0569018 1.03373)
(0.62643 -0.321418 0.970051)
(0.623221 -0.109091 1.09701)
(0.582638 0.193854 0.489743)
(-0.0454734 -0.0398505 0.272001)
(0.450747 0.0311291 0.88957)
(0.83773 0.188193 0.68737)
(0.335241 -0.00330533 0.766854)
(0.183459 0.145696 0.921894)
(0.840623 0.700539 1.86293)
(0.84176 -0.0332211 1.71446)
(0.481198 -0.210713 2.85752)
(-0.495774 -0.0863367 1.39002)
(0.154836 0.161383 0.882575)
(0.321061 0.137072 0.899105)
(0.8999 -0.339244 2.14285)
(0.46483 -0.25019 1.31442)
(0.333303 -0.274176 0.708413)
(0.32251 -0.550491 2.06653)
(0.0743286 -0.14134 1.17714)
(0.471772 -0.0472622 0.800574)
(0.797257 -0.072388 1.52255)
(0.233865 -0.126258 0.879253)
(0.0782029 0.130444 0.904745)
(0.449037 -0.150743 1.01899)
(0.498075 -0.0662489 0.647521)
(0.323628 0.110671 1.89486)
(0.473123 0.0392207 0.105403)
(0.0850748 0.0327555 0.163105)
(0.3665 0.148351 0.396796)
(0.703954 -0.0975625 0.566266)
(0.11896 -0.196419 1.01396)
(0.443015 0.367723 0.715352)
(0.377095 0.336625 2.72915)
(0.148008 -0.317906 0.98559)
(0.396483 -0.282125 3.0126)
(-0.174501 -0.536477 2.06618)
(0.104032 0.0540962 0.163758)
(0.54004 0.0266632 1.26903)
(0.294335 -0.213695 2.37097)
(0.150961 -0.200784 0.895433)
(0.21149 -0.24672 0.790879)
(0.228707 -0.375745 2.18226)
(0.123948 -0.0051757 1.19586)
(0.169227 -0.0562907 2.06986)
(-0.0861415 -0.0315638 1.32882)
(-0.342802 -0.0422919 0.978009)
(0.0435348 -0.189996 0.477116)
(0.0728396 0.0220968 0.702664)
(0.303616 0.0066423 0.602936)
(-0.208365 -0.0116973 1.38048)
(0.233447 -0.00393349 0.294978)
(0.091946 -0.044292 -0.239439)
(0.336621 -0.163514 -0.0963461)
(0.102037 -0.339631 0.328488)
(0.0303033 -0.371964 1.90786)
(0.323669 0.231758 -0.168512)
(0.200689 0.238261 1.8693)
(0.29495 -0.441406 0.988531)
(0.39502 -0.2656 3.07046)
(-0.0149252 -0.438241 2.52598)
(0.00186027 -0.0509005 -0.332746)
(0.436485 -0.10079 0.785142)
(0.100776 -0.129474 1.40315)
(0.351529 -0.304433 0.71074)
(0.49436 -0.134068 1.03131)
(0.127187 -0.166773 2.33403)
(0.135565 -0.24946 0.374517)
(-0.137208 -0.00685539 1.15473)
(-0.0367143 -0.261725 1.01268)
(0.307193 -0.456039 0.454885)
(0.250609 -0.0872735 0.79632)
(-0.109706 -0.227065 0.198486)
(-0.700466 -0.21402 0.625724)
(0.0732241 -0.128145 -0.0971351)
(0.0334344 -0.0565972 0.788903)
(0.0836648 -0.0932443 -0.356373)
(0.156899 -0.594327 0.431466)
(0.0657001 -0.394672 0.338146)
(-0.0360017 -0.39393 2.50119)
(0.102955 -0.0671929 -0.113958)
(0.0569236 -0.342788 1.56595)
(0.385841 -0.429146 0.737222)
(0.362628 -0.241509 2.94642)
(0.171638 -0.315472 2.83288)
(-0.00816933 0.00547857 -0.00429393)
(0.00935279 -0.0761038 -0.29258)
(0.188216 -0.242837 1.02962)
(-0.0193105 0.0843148 1.39831)
(0.263234 -0.227509 0.279186)
(0.5087 -0.146285 0.849024)
(0.21277 -0.165906 2.46772)
(0.00745459 0.00102586 0.00135668)
(0.0465697 -0.207423 0.409869)
(-0.254709 0.0914814 1.25197)
(0.198938 -0.117748 0.609926)
(0.602287 -0.254852 0.531822)
(0.157294 0.0108095 1.41312)
(-0.0311963 -0.133006 0.337575)
(0.0530735 -0.0649527 0.156257)
(0.165408 -0.064385 -0.301423)
(-0.0394528 -0.0136423 1.23451)
(0.0893824 -0.0987936 -0.350431)
(0.181006 -0.38953 0.722324)
(0.132268 -0.19635 0.647551)
(-0.127804 -0.356511 2.90687)
(-0.134623 -0.266689 0.192587)
(0.21146 -0.294289 0.764722)
(0.37852 -0.307379 0.74903)
(0.287315 -0.210072 2.96687)
(0.174251 -0.313715 2.83571)
(-0.398308 -0.124636 0.0134228)
(-0.00635183 -0.0726426 -0.335879)
(-0.105086 -0.228125 1.28428)
(0.15509 -0.0592464 0.614064)
(0.234202 -0.161964 0.0376683)
(0.327167 -0.135371 0.840011)
(0.188407 -0.144424 2.57016)
(-0.202919 0.0127613 0.00443069)
(0.0808035 -0.0296757 0.283144)
(-0.136932 -0.0166839 1.44583)
(0.338593 -0.111342 0.426132)
(0.331875 -0.0917777 0.199978)
(0.220935 0.020901 1.72809)
(-0.427032 0.0364411 0.118837)
(0.0431593 -0.0432189 0.232168)
(0.343543 -0.0279476 0.0340649)
(0.19396 0.0270058 0.110146)
(-0.14451 -0.0326919 1.57046)
(0.0745676 -0.0796207 -0.263609)
(0.0829353 -0.294461 0.884088)
(0.162867 -0.137523 0.813387)
(-0.201003 -0.298461 3.17766)
(0.114789 -0.353179 0.219804)
(0.313347 -0.22263 0.889752)
(0.193719 -0.137836 0.736102)
(0.181979 -0.135417 2.93983)
(0.046829 -0.212872 2.88535)
(-0.177467 -0.0422964 0.0121387)
(-0.0158843 -0.056531 -0.301085)
(-0.144908 -0.119888 1.50554)
(0.497324 -0.279879 0.675009)
(0.282044 -0.104147 0.202285)
(0.103597 -0.0381699 0.941487)
(0.0179683 -0.0847564 2.53824)
(-0.0083872 0.107985 -0.0725027)
(0.0634035 0.137096 0.172196)
(0.0331751 -0.108223 0.951443)
(0.284535 -0.0559582 0.123635)
(0.242135 -0.126572 0.23053)
(-0.0191299 0.0730652 1.94788)
(0.296389 0.172953 0.282407)
(0.0733895 0.0408456 0.0531848)
(0.323815 0.0446312 0.0281688)
(0.125301 -0.0350315 0.422819)
(-0.216211 -0.0475976 1.82676)
(-0.0172019 -0.0560883 -0.0578416)
(0.0219339 -0.219696 0.943534)
(0.108798 -0.10742 0.976699)
(-0.252381 -0.279261 3.3407)
(0.0973594 -0.324223 0.251266)
(0.24989 -0.146115 0.631755)
(0.147247 -0.0575559 0.633383)
(0.0685162 -0.0383668 2.9684)
(-0.0692098 -0.151957 2.9385)
(0.385936 0.307909 0.253805)
(-0.0126916 -0.0562765 -0.234349)
(-0.127155 -0.259846 1.25951)
(0.38597 -0.169745 0.438856)
(0.223004 -0.054222 0.13239)
(-0.0725199 -0.0297358 1.0883)
(-0.27244 0.0428406 2.54)
(-0.0475979 0.0845379 0.0829123)
(-0.0650481 0.130863 0.112308)
(0.318267 -0.0339235 0.877872)
(0.31609 -0.00267562 0.328026)
(0.221915 -0.0897973 0.327967)
(-0.26796 0.0725859 2.2135)
(0.146342 0.0538875 -0.0599272)
(0.155194 -0.0434406 0.0671569)
(0.0471871 -0.0254812 0.484987)
(-0.237998 -0.0678502 2.01674)
(0.0772047 -0.0650105 0.123607)
(-0.00500229 -0.18287 0.932107)
(0.0934582 -0.117675 1.06975)
(-0.24525 -0.255166 3.4439)
(0.074845 -0.232478 0.442195)
(0.22844 -0.0946801 0.482281)
(0.136377 -0.00812151 0.689914)
(0.0831473 -0.0140099 2.98792)
(-0.236827 -0.132576 2.95021)
(-0.0296951 -0.0760551 -0.196126)
(0.0748234 -0.197565 1.10575)
(0.19818 -0.127026 0.349925)
(0.10812 -0.126406 0.326637)
(-0.0652686 0.0216117 1.42967)
(-0.513108 0.0873545 2.3227)
(-0.0888933 -0.0786261 0.191148)
(0.289407 -0.0135885 0.668914)
(0.294002 0.0353136 0.275374)
(0.152244 -0.0488017 0.499319)
(-0.136997 0.142573 2.40589)
(0.167765 0.0826567 -0.0536654)
(0.210328 0.0182212 0.105532)
(0.0165755 0.00862006 0.569276)
(-0.252388 -0.0798631 2.20457)
(0.106621 -0.0924654 0.285908)
(0.00544338 -0.122806 0.890185)
(0.118779 -0.138185 1.16019)
(-0.203137 -0.222334 3.49267)
(0.124555 -0.24578 0.474049)
(0.260561 -0.147421 0.453428)
(0.138711 -0.0367243 0.756336)
(0.120505 0.00557894 3.02511)
(-0.159665 -0.0581701 2.94307)
(0.0239651 0.0448382 -0.406715)
(0.15447 -0.13396 0.904214)
(0.196781 -0.182213 0.337488)
(0.0534447 -0.218317 0.346054)
(-0.0129022 0.0571728 1.57784)
(-0.303593 0.0399263 2.21132)
(0.104484 0.0410466 0.0324138)
(0.36134 -0.0127462 0.461445)
(0.330998 0.0729239 0.313611)
(0.115996 0.0394313 0.645532)
(-0.0813504 0.0136656 2.38104)
(0.234761 0.10093 -0.0426197)
(0.168719 0.0739254 0.23165)
(0.0183617 0.0200132 0.675736)
(-0.235909 -0.0831084 2.36905)
(0.0720713 -0.0873384 0.450724)
(0.0117192 -0.0331893 0.870379)
(0.172775 -0.141681 1.20651)
(-0.165609 -0.182372 3.4937)
(0.0438167 -0.389949 0.412726)
(0.289448 -0.334333 0.457359)
(0.0997287 -0.0798467 0.88598)
(0.102021 0.0155265 3.05948)
(-0.132742 -0.00977393 2.87626)
(0.0350071 0.0574948 -0.467152)
(0.171364 -0.1604 0.722056)
(0.267647 -0.251483 0.287185)
(0.106632 -0.261819 0.367568)
(-0.0755068 0.0937989 1.71063)
(-0.264136 0.0549933 1.87346)
(0.103397 0.175399 -0.0782655)
(0.409435 -0.0810786 0.212112)
(0.38541 0.0625447 0.326414)
(0.0670142 0.138625 0.822037)
(-0.090515 0.0173885 2.39504)
(0.129064 0.0887492 -0.0213652)
(0.129397 0.0785163 0.373214)
(0.0163823 0.0275796 0.75979)
(-0.206462 -0.0772223 2.51458)
(-0.0498855 0.0117797 0.730483)
(-0.0141679 -0.0445808 0.869625)
(0.23459 -0.102689 1.22682)
(-0.138882 -0.148659 3.45994)
(-0.112382 -0.262291 0.357893)
(0.289218 -0.485701 0.48198)
(0.0197537 -0.111682 1.10447)
(0.0218776 0.00791566 3.09582)
(-0.142054 -0.014653 2.78859)
(0.00945699 0.0615428 -0.494177)
(-0.0465044 -0.202936 0.309714)
(0.393755 -0.302696 0.166775)
(0.249341 -0.268098 0.435823)
(-0.0834018 0.127211 1.76641)
(-0.217826 0.162223 1.5979)
(0.094629 0.239643 -0.140178)
(0.394153 -0.20707 -0.0130198)
(0.372908 -0.0366049 0.357421)
(-0.00606957 0.207047 1.05322)
(-0.125091 0.0854169 2.37452)
(0.0604382 -0.014911 -0.0116684)
(0.101781 0.0556953 0.464978)
(-0.0481343 0.0662333 0.878912)
(-0.16298 -0.0622346 2.62906)
(-0.191222 0.136015 1.0067)
(-0.024956 -0.141399 0.854668)
(0.283902 -0.0465312 1.28769)
(-0.120484 -0.113933 3.41272)
(-0.0994492 -0.0101772 0.36425)
(0.293062 -0.500836 0.453466)
(0.00161943 -0.185641 1.24557)
(-0.0293273 -0.00194521 3.09372)
(-0.175328 -0.0824197 2.78425)
(0.00364256 0.098867 -0.500715)
(0.0039312 0.0242181 -0.00791191)
(0.413698 -0.384542 0.0239938)
(0.272544 -0.275415 0.558007)
(-0.0371499 0.111764 1.84075)
(-0.15418 0.279619 1.30252)
(0.163737 0.235758 -0.255188)
(0.266382 -0.332344 -0.17127)
(0.185852 -0.175579 0.411008)
(-0.129061 0.252713 1.33241)
(-0.18696 0.184709 2.32818)
(-0.0231666 -0.0908939 -0.0898148)
(0.053864 -0.00253896 0.520913)
(-0.120013 0.113086 0.990388)
(-0.125272 -0.051404 2.71902)
(-0.239893 0.242855 1.20563)
(-0.0598125 -0.169651 0.824659)
(0.244728 -0.00151255 1.41876)
(-0.122625 -0.0641072 3.35422)
(-0.0567263 0.219479 0.343919)
(0.291404 -0.44044 0.443527)
(-0.0539689 -0.193887 1.43828)
(-0.0859821 -0.00233697 3.08126)
(-0.157663 -0.0933108 2.73025)
(0.00709133 0.153677 -0.520968)
(0.0455187 0.228687 -0.157281)
(0.285342 -0.394675 -0.0493839)
(0.1548 -0.254739 0.655134)
(-0.0296809 0.0549893 1.88)
(0.0383834 0.220532 1.27617)
(0.196598 0.217241 -0.334301)
(0.0596856 -0.388532 -0.23169)
(-0.186394 -0.250873 0.498671)
(-0.234148 0.245238 1.51749)
(-0.189338 0.178065 2.24058)
(-0.0895837 -0.088303 -0.218516)
(-0.051385 -0.0896978 0.523141)
(-0.168728 0.124971 0.988408)
(-0.0965169 -0.0446236 2.78445)
(-0.219224 0.255495 1.24263)
(-0.0730812 -0.117881 0.781407)
(0.168347 0.055189 1.6205)
(-0.125132 -0.0183924 3.26844)
(-0.00887077 0.369042 0.283562)
(0.192661 -0.328101 0.50588)
(-0.265221 -0.1099 1.71245)
(-0.208402 0.00848606 3.02987)
(-0.161589 -0.105968 2.45352)
(0.00458371 0.190149 -0.497313)
(0.00278926 0.288202 -0.19805)
(0.0481298 -0.340587 0.00534307)
(-0.140329 -0.255957 0.820796)
(-0.0889332 0.0229417 1.84522)
(0.162147 0.0312727 1.4019)
(0.192176 0.195666 -0.3467)
(-0.113567 -0.329102 -0.19859)
(-0.523273 -0.187053 0.508697)
(-0.379557 0.204654 1.52475)
(-0.143865 0.112979 2.04038)
(-0.157355 -0.0647427 -0.278469)
(-0.210081 -0.0901579 0.423888)
(-0.223265 0.142009 0.880347)
(-0.102415 -0.0468018 2.77254)
(-0.185436 0.232532 1.1938)
(-0.12788 0.0289127 0.806391)
(-0.0262547 0.0801871 1.84417)
(-0.150185 0.00984671 3.15801)
(-0.008924 0.437748 0.198227)
(-0.0590418 -0.172753 0.664487)
(-0.43004 -0.0542485 1.89229)
(-0.358671 0.00657598 2.82525)
(-0.294028 0.0941983 2.04035)
(0.00264518 0.2239 -0.425709)
(-0.0702223 0.290801 -0.159868)
(-0.178536 -0.262827 0.14727)
(-0.393184 -0.334448 0.882509)
(-0.225656 -0.164758 1.74111)
(-0.107597 -0.533262 1.41288)
(0.153324 0.197922 -0.287238)
(-0.209444 -0.251967 -0.10929)
(-0.662526 -0.156634 0.462671)
(-0.520661 0.172015 1.33871)
(-0.0325892 -0.167649 1.2682)
(-0.212394 -0.026651 -0.233969)
(-0.403132 0.0160979 0.29074)
(-0.32429 0.24336 0.706271)
(-0.144596 -0.0445927 2.70037)
(-0.181756 0.206119 1.06377)
(-0.212074 0.163455 0.91365)
(-0.225564 0.155232 2.03404)
(-0.178242 0.0403922 3.00305)
(-0.0663686 0.460116 0.158158)
(-0.308014 -0.00900438 0.812909)
(-0.445389 -0.00437075 1.98748)
(-0.308066 0.027259 2.75501)
(-0.0674147 -0.0492236 1.93683)
(-2.22787e-05 0.260898 -0.293801)
(-0.154486 0.296561 -0.0529762)
(-0.334429 -0.0929638 0.3218)
(-0.427889 -0.321017 0.894875)
(-0.267967 -0.309171 1.53011)
(0.0609974 -0.704787 1.01068)
(0.122948 0.236524 -0.176857)
(-0.225731 -0.130859 0.0156137)
(-0.558395 -0.199461 0.339511)
(-0.568575 -0.104507 0.885357)
(-0.0174069 -0.0844326 0.271062)
(-0.21989 0.012938 -0.109943)
(-0.441935 0.0306102 0.25465)
(-0.499845 0.255819 0.626546)
(-0.199377 -0.0522619 2.51826)
(-0.283272 0.230561 0.936559)
(-0.359561 0.228348 1.04938)
(-0.35385 0.190965 2.12736)
(-0.160087 0.0813463 2.74324)
(-0.182184 0.457241 0.212976)
(-0.533113 0.168455 0.917123)
(-0.470952 0.0845669 2.00722)
(-0.1275 0.107067 2.59273)
(0.0963582 0.256235 2.11702)
(-0.000297019 0.30454 -0.0993196)
(-0.246769 0.312128 0.106829)
(-0.447189 0.1736 0.448283)
(-0.43187 -0.14494 0.954269)
(-0.31466 -0.157078 1.36802)
(0.28771 0.124896 0.918931)
(0.104961 0.273249 -0.00498966)
(-0.190561 0.0715888 0.155936)
(-0.418531 -0.046773 0.289767)
(-0.3756 -0.0821612 0.463123)
(-0.144098 0.341058 0.0403538)
(-0.196519 0.0467481 0.0207867)
(-0.28671 0.0259804 0.197305)
(-0.264371 0.072392 0.244371)
(-0.243922 -0.029211 2.25421)
(-0.354365 0.26493 0.949453)
(-0.484108 0.278087 1.16858)
(-0.465389 0.184709 2.05454)
(-0.157279 0.116059 2.37347)
(-0.31234 0.453635 0.382879)
(-0.701928 0.327682 0.921622)
(-0.547799 0.250573 1.91721)
(-0.223141 0.265454 2.30429)
(0.189311 0.705978 1.9579)
(0.00180715 0.359492 0.168252)
(-0.334348 0.343985 0.320202)
(-0.524346 0.418991 0.524377)
(-0.47329 0.39635 0.977969)
(-0.366284 0.408122 1.14651)
(0.118463 0.879702 0.850527)
(0.0908013 0.304279 0.235611)
(-0.199086 0.23873 0.33517)
(-0.338412 0.339008 0.385413)
(-0.28919 0.29498 0.388321)
(-0.253947 0.590184 0.0996189)
(-0.198183 0.073884 0.220445)
(-0.215331 0.138187 0.188788)
(-0.152368 0.0962007 0.105477)
(-0.363203 -0.0536728 2.03427)
(-0.319503 0.308255 1.02568)
(-0.509127 0.299807 1.28166)
(-0.444344 0.260932 1.81646)
(-0.0620832 0.321788 1.99641)
(-0.438274 0.42877 0.625894)
(-0.771929 0.397703 0.810294)
(-0.554969 0.463784 1.58924)
(-0.176439 0.546755 1.83032)
(0.101819 0.644979 1.52227)
(0.000173663 0.415127 0.49986)
(-0.384351 0.371974 0.550544)
(-0.50447 0.496908 0.574242)
(-0.394728 0.719527 0.826331)
(-0.219031 0.692859 1.03426)
(-0.102375 0.971438 0.784391)
(0.0962591 0.317066 0.50595)
(-0.175702 0.263535 0.535666)
(-0.27649 0.524672 0.519597)
(-0.183958 0.530372 0.530705)
(-0.232216 0.536526 0.373917)
(-0.207944 0.0680078 0.470186)
(-0.200014 0.255091 0.375366)
(-0.136662 0.130511 0.274035)
(-0.452893 -0.0201348 1.69481)
(-0.319827 0.290682 1.12631)
(-0.571895 0.223794 1.41129)
(-0.49149 0.13605 1.62942)
(-0.00711902 0.181716 1.49704)
(-0.491725 0.372433 0.865616)
(-0.719315 0.371699 0.748868)
(-0.488307 0.49257 1.08429)
(0.0138599 0.582445 1.43876)
(0.154131 0.624206 1.18886)
(-0.000202089 0.452347 0.882674)
(-0.370299 0.34119 0.763181)
(-0.392089 0.453065 0.642278)
(-0.289366 0.687511 0.728333)
(-0.0993645 0.662361 0.98762)
(-0.063249 0.724122 0.886182)
(0.129679 0.288336 0.768505)
(-0.105768 0.187187 0.733602)
(-0.222615 0.52713 0.656949)
(-0.105971 0.553155 0.734404)
(-0.147285 0.375561 0.690115)
(-0.221527 0.0447239 0.7207)
(-0.215306 0.307119 0.618102)
(-0.122236 0.132474 0.566262)
(-0.584296 -0.0916594 1.45059)
(-0.355143 0.272082 1.35802)
(-0.718471 0.172132 1.49291)
(-0.490923 0.218267 1.14381)
(-0.0480195 0.0349007 1.12051)
(-0.40422 0.315386 1.10235)
(-0.532322 0.297621 0.691611)
(-0.426053 0.386543 0.711546)
(0.0227968 0.397227 1.08204)
(0.133655 0.434314 1.06753)
(0.00950648 0.427656 1.22819)
(-0.25554 0.225569 0.940361)
(-0.267091 0.374405 0.717166)
(-0.200327 0.530218 0.65972)
(-0.119319 0.554034 0.978114)
(-0.0348064 0.497608 1.02764)
(0.152931 0.236346 0.979761)
(-0.0422249 0.11547 0.891949)
(-0.165471 0.469751 0.78041)
(-0.112829 0.47359 0.897657)
(-0.0957909 0.272447 0.968722)
(-0.234285 0.0248495 0.940428)
(-0.222572 0.29572 0.855234)
(-0.125104 0.130711 0.86825)
(-0.653389 -0.118272 1.1054)
(-0.342903 0.27121 1.62819)
(-0.812821 0.163162 1.61992)
(-0.545313 0.0323067 0.762814)
(-0.198671 -0.0622535 0.867518)
(-0.292945 0.256434 1.307)
(-0.371065 0.249795 0.650494)
(-0.34136 0.28895 0.468942)
(-0.0589785 0.221953 0.789745)
(-0.00301518 0.178445 0.910068)
(0.0145465 0.350955 1.44411)
(-0.185613 0.13272 1.07177)
(-0.208276 0.347786 0.768381)
(-0.138011 0.402461 0.618332)
(-0.189791 0.39333 0.945484)
(-0.0990884 0.39701 1.05742)
(0.153458 0.188786 1.14038)
(-0.00329694 0.0953946 1.01114)
(-0.0977535 0.412469 0.894122)
(-0.130568 0.381216 1.00229)
(-0.0986774 0.251094 1.15888)
(-0.233259 0.0145753 1.12373)
(-0.210244 0.248446 1.05564)
(-0.122273 0.123338 1.10747)
(-0.54088 -0.204091 1.08456)
(-0.313114 0.258737 1.88076)
(-0.673126 0.157379 1.75281)
(-0.437496 -0.0874485 0.443465)
(-0.252389 -0.121701 0.580858)
(-0.117707 0.209347 1.49497)
(-0.220237 0.269657 0.627685)
(-0.231417 0.235786 0.311259)
(-0.0806404 0.117047 0.577283)
(-0.0444155 0.0223651 0.698427)
(0.0103369 0.264014 1.53074)
(-0.145978 0.0702043 1.17706)
(-0.130903 0.367302 0.810475)
(-0.045683 0.327596 0.617881)
(-0.213714 0.254829 0.891065)
(-0.108556 0.35368 0.930037)
(0.134988 0.144016 1.24767)
(0.0495742 0.0727009 1.12499)
(-0.0169323 0.329194 0.996285)
(-0.124993 0.305868 1.06235)
(-0.0729838 0.157099 1.34145)
(-0.213737 0.00357274 1.27956)
(-0.184992 0.20726 1.22351)
(-0.0972242 0.11086 1.28572)
(-0.219459 -0.0630184 1.30584)
(-0.210373 0.232345 1.99247)
(-0.196587 0.197502 1.80285)
(-0.220516 -0.00438031 0.233503)
(-0.235737 -0.114794 0.373854)
(0.0332992 0.211448 1.59874)
(-0.0356898 0.343096 0.647089)
(-0.104512 0.223274 0.236349)
(-0.0472416 0.0561061 0.435286)
(-0.0402538 -0.0621843 0.515965)
(-0.00723312 0.24374 1.61633)
(-0.114888 -0.00475041 1.25916)
(0.0112506 0.369134 0.857581)
(0.0801505 0.277772 0.664776)
(-0.176243 0.144766 0.85549)
(-0.0335093 0.134677 0.854267)
(0.0935809 0.104046 1.29233)
(0.137319 0.000490428 1.23521)
(0.0698035 0.223754 1.10376)
(-0.0913033 0.184982 1.09337)
(-0.00739936 -0.00512075 1.46669)
(-0.179023 0.00474267 1.40015)
(-0.1539 0.168147 1.35408)
(-0.0819095 0.0910439 1.42269)
(0.249826 0.0636298 0.692625)
(-0.102054 0.146259 1.88265)
(-0.000369251 0.325698 1.78402)
(-0.0325825 0.100817 0.14132)
(-0.19691 -0.0860642 0.267826)
(0.140121 0.238645 1.5866)
(0.151496 0.396754 0.682526)
(0.0223773 0.221833 0.247453)
(0.00749134 0.0121752 0.369582)
(-0.0384433 -0.122878 0.42056)
(-0.0113227 0.205087 1.75046)
(-0.05911 0.0387814 1.30553)
(0.165236 0.342123 0.902337)
(0.187183 0.2181 0.758173)
(-0.0870229 0.0676952 0.858601)
(0.0140422 -0.0634342 0.832782)
(0.0559567 0.0753941 1.27568)
(0.231061 -0.0796682 1.31122)
(0.15093 0.113752 1.22084)
(-0.0531273 0.088117 1.11619)
(0.0415739 1.4208e-05 1.49838)
(-0.151297 0.00665374 1.48683)
(-0.116371 0.135761 1.43834)
(-0.0744576 0.071528 1.49828)
(0.268294 0.0487087 0.447921)
(-0.103369 0.129729 1.73183)
(-0.192314 0.366335 1.58065)
(0.0299931 0.149125 0.178448)
(-0.168316 -0.070118 0.247694)
(0.169283 0.261222 1.50772)
(0.300495 0.434466 0.696026)
(0.12031 0.201161 0.315771)
(0.0644021 -0.0298941 0.371837)
(-0.032605 -0.158111 0.396017)
(0.0115329 0.117558 1.71255)
(0.0389983 0.0824422 1.39664)
(0.262282 0.332187 0.940465)
(0.260816 0.145909 0.877028)
(0.0184846 0.000191268 0.904936)
(0.0340503 -0.115287 0.832638)
(0.0541728 0.0884453 1.24885)
(0.302982 -0.119574 1.35875)
(0.209541 0.0112412 1.33312)
(0.012792 0.0176112 1.18804)
(0.0035028 0.0993534 1.44078)
(-0.0743522 -0.00373384 1.53864)
(-0.0728821 0.103761 1.49543)
(-0.0622751 0.055505 1.52823)
(0.231382 0.022545 0.438617)
(-0.0425802 0.116541 1.61874)
(0.176483 0.140376 1.24725)
(0.0317825 0.162093 0.23624)
(-0.152365 -0.0727347 0.280528)
(0.165208 0.402149 1.50003)
(0.347928 0.450965 0.685308)
(0.173712 0.143205 0.417399)
(0.104483 -0.0742198 0.41486)
(-0.0217629 -0.179795 0.412356)
(0.0236397 0.194033 1.40502)
(0.0566018 0.25622 1.49188)
(0.285679 0.317817 1.01448)
(0.302685 0.0487836 1.00682)
(0.109814 -0.0604019 0.973767)
(0.0561496 -0.122684 0.838936)
(0.0750596 0.19593 1.2446)
(0.335174 -0.127139 1.40963)
(0.255995 -0.0827152 1.41843)
(0.101499 -0.0338556 1.28329)
(-0.00365329 0.0575212 1.31952)
(-0.0358472 -0.0291442 1.54286)
(-0.0377167 0.0702855 1.53095)
(-0.0507782 0.0464549 1.52969)
(0.185337 0.010824 0.546542)
(0.0377883 0.0778041 1.12302)
(0.374899 0.0179829 0.872082)
(-0.0135992 0.154489 0.295904)
(-0.153034 -0.0890059 0.338326)
(-0.00696373 0.500564 1.11146)
(0.286339 0.381781 0.696501)
(0.171086 0.0597397 0.522234)
(0.123885 -0.118416 0.476078)
(-0.0139609 -0.204269 0.459247)
(-0.0176625 0.45694 1.45814)
(0.0525306 0.598852 1.50243)
(0.248915 0.19626 1.13837)
(0.306745 -0.0475923 1.11255)
(0.170966 -0.106079 1.04897)
(0.0848706 -0.163166 0.867514)
(0.104301 0.324753 1.35283)
(0.33615 -0.139517 1.46334)
(0.260984 -0.15883 1.44855)
(0.178351 -0.0826136 1.34409)
(0.0490998 -0.0644453 1.25446)
(0.00843554 -0.101242 1.52052)
(-0.00098082 0.0355335 1.51911)
(-0.0325507 0.0446865 1.51308)
(0.124225 0.000826054 0.607234)
(0.0245847 0.00405101 0.672554)
(0.096029 0.0802458 0.735315)
(-0.0907116 0.113871 0.333059)
(-0.165848 -0.111399 0.401217)
(-0.0060914 0.247349 0.728096)
(0.182402 0.211241 0.759291)
(0.140461 -0.0165001 0.598815)
(0.12811 -0.155818 0.539378)
(-0.015807 -0.226764 0.52878)
(0.0169127 0.418434 1.66613)
(0.088926 0.546579 1.49418)
(0.209402 0.0233419 1.24091)
(0.293244 -0.0985941 1.17909)
(0.195043 -0.135704 1.11431)
(0.10448 -0.206643 0.924613)
(0.167773 0.324108 1.50632)
(0.317336 -0.15225 1.48159)
(0.234505 -0.200633 1.43063)
(0.208464 -0.128923 1.36022)
(0.0843351 -0.144086 1.25659)
(0.151399 -0.0998357 1.49395)
(0.0527705 0.0177715 1.50636)
(0.00152455 0.0336471 1.48671)
(0.104807 -0.00541443 0.62685)
(0.027164 -0.0319668 0.537267)
(-0.0112289 0.0648039 0.68209)
(-0.146936 0.0691423 0.36689)
(-0.180952 -0.131507 0.461891)
(0.128913 0.00631853 0.607907)
(0.151939 0.0882032 0.830822)
(0.109716 -0.0723583 0.640549)
(0.121545 -0.181152 0.598346)
(-0.0238603 -0.240867 0.609825)
(0.0368631 0.290742 1.56731)
(0.265866 0.219421 1.32796)
(0.219475 -0.0754841 1.28738)
(0.28021 -0.105039 1.22602)
(0.195368 -0.149577 1.16675)
(0.10806 -0.232839 0.990231)
(0.208562 0.263668 1.57752)
(0.308895 -0.161335 1.47661)
(0.222268 -0.204713 1.40677)
(0.20367 -0.147239 1.35584)
(0.0939533 -0.17325 1.26494)
(0.230898 -0.0657175 1.45409)
(0.0808206 -0.0127645 1.51404)
(0.0287231 0.0205912 1.44069)
(0.105081 -0.00869495 0.656611)
(0.0244996 -0.0390393 0.545308)
(-0.0304232 0.0196771 0.685617)
(-0.17155 0.0316446 0.41258)
(-0.192967 -0.139583 0.51831)
(0.189331 -0.103684 0.598829)
(0.13028 0.00732407 0.924591)
(0.0832221 -0.0996821 0.664893)
(0.100139 -0.191432 0.645295)
(-0.0268832 -0.246603 0.693439)
(0.0225641 -0.0766623 1.10712)
(0.240401 -0.110133 1.13709)
(0.240709 -0.110094 1.32789)
(0.25312 -0.0908317 1.26627)
(0.184626 -0.150897 1.21587)
(0.105841 -0.240353 1.04656)
(0.256273 0.166375 1.48337)
(0.318703 -0.173536 1.46246)
(0.226129 -0.197907 1.40502)
(0.203613 -0.14991 1.36005)
(0.0902543 -0.186038 1.26013)
(0.300187 0.0435022 1.4474)
(0.168386 -0.0642247 1.47441)
(0.101827 -0.0301034 1.40854)
(0.117942 -0.00835825 0.703412)
(0.000608431 -0.014711 0.613757)
(-0.0415331 -0.0292173 0.727376)
(-0.180231 0.0058945 0.468386)
(-0.199223 -0.133353 0.568908)
(0.149786 -0.106818 0.606611)
(0.073468 -0.0361452 1.02304)
(0.0647804 -0.105539 0.674)
(0.0593548 -0.186453 0.679944)
(-0.0227061 -0.247063 0.772398)
(0.00252475 -0.112031 0.941583)
(0.157202 -0.138494 0.982058)
(0.233116 -0.103676 1.36745)
(0.183889 -0.0567782 1.31124)
(0.17093 -0.142932 1.25387)
(0.10284 -0.22756 1.09021)
(0.116841 -0.0675359 1.12533)
(0.321847 -0.165487 1.44269)
(0.220882 -0.174713 1.41827)
(0.194469 -0.149723 1.39528)
(0.0706355 -0.168717 1.245)
(0.348228 0.0483785 1.35127)
(0.311443 -0.076796 1.4474)
(0.179207 -0.0748812 1.44408)
(0.143098 -0.00517082 0.764886)
(-0.0241898 0.014416 0.673226)
(-0.0433875 -0.0801754 0.781836)
(-0.179352 -0.00611642 0.526972)
(-0.198417 -0.113493 0.607601)
(0.0676684 -0.0659934 0.610398)
(0.0131816 -0.0575523 1.08074)
(0.0569829 -0.0992621 0.670408)
(0.00915773 -0.167795 0.706826)
(-0.0141999 -0.242989 0.84027)
(0.00910489 -0.0481802 0.819421)
(0.13643 -0.0878728 0.845661)
(0.160293 -0.0735 1.41966)
(0.0931091 -0.000883858 1.33572)
(0.160428 -0.133979 1.2629)
(0.110384 -0.205298 1.11232)
(0.0560726 -0.0271945 0.91227)
(0.28446 -0.141906 1.4154)
(0.147965 -0.110497 1.44898)
(0.15133 -0.123317 1.44797)
(0.0479864 -0.112144 1.22305)
(0.307827 0.0479881 1.08156)
(0.314924 -0.0449658 1.47448)
(0.197638 -0.0774284 1.51796)
(0.177632 -0.00160668 0.846617)
(-0.0355361 0.0186256 0.726876)
(-0.0346416 -0.10874 0.819782)
(-0.170956 -0.00685608 0.588599)
(-0.197898 -0.0905734 0.626502)
(0.0131546 -0.047901 0.629337)
(-0.00861555 -0.0725381 1.08081)
(0.0541145 -0.0934026 0.664637)
(-0.0307368 -0.14044 0.728457)
(-0.00410091 -0.236708 0.896985)
(0.00675862 -0.0384623 0.716001)
(0.0933103 -0.0592304 0.752331)
(0.0571501 -0.0372665 1.44848)
(0.0430959 0.0502409 1.30198)
(0.154886 -0.11658 1.24615)
(0.13205 -0.180252 1.12425)
(0.024824 -0.00455988 0.797792)
(0.179696 -0.0866061 1.35456)
(0.049951 -0.0289953 1.472)
(0.0983784 -0.0982572 1.47764)
(0.0377197 -0.0555218 1.21091)
(0.157011 0.0622625 0.921983)
(0.138151 0.0378126 1.50865)
(0.141398 -0.0482604 1.58862)
(0.195708 0.00378643 0.927411)
(-0.0305538 0.0114093 0.798559)
(-0.0352974 -0.134681 0.847127)
(-0.16048 -0.000519069 0.659678)
(-0.192674 -0.0629135 0.623385)
(-0.0305992 -0.0607556 0.668088)
(-0.0123155 -0.111443 1.04026)
(0.0509897 -0.0930808 0.663857)
(-0.0487296 -0.110587 0.746138)
(-0.00238136 -0.228365 0.944803)
(0.00695249 -0.00293837 0.658254)
(0.0501983 -0.0532385 0.723868)
(0.0279191 -0.0259284 1.42146)
(0.0573694 0.0626459 1.24097)
(0.16587 -0.0786745 1.1983)
(0.13924 -0.158079 1.13587)
(0.0123873 -0.00186632 0.766241)
(0.121102 -0.00819471 1.28715)
(0.0270602 0.00172357 1.47516)
(0.0507417 -0.0727752 1.48395)
(0.0365447 -0.0315168 1.22009)
(0.0199889 0.0692661 0.925263)
(-0.0305248 0.0680264 1.51054)
(0.077342 -0.0319621 1.57077)
(0.229955 -0.000113042 0.988634)
(-0.0360624 0.0212612 0.863474)
(-0.0190481 -0.166748 0.883754)
(-0.142416 0.00831782 0.743175)
(-0.172716 -0.0282298 0.610381)
(-0.0572547 -0.0977657 0.719831)
(-0.036635 -0.178289 0.954431)
(0.0364321 -0.0872782 0.672352)
(-0.0467608 -0.0806385 0.765246)
(-0.0149137 -0.211818 0.979053)
(0.00985433 0.0793515 0.634708)
(0.0242151 -0.0429076 0.729678)
(0.0427756 -0.0498309 1.33505)
(0.123454 0.0224892 1.16088)
(0.183881 -0.0729631 1.17298)
(0.129858 -0.14481 1.14961)
(0.0440312 0.0131888 0.757145)
(0.105544 0.0431702 1.22826)
(0.0353038 0.00684727 1.47835)
(0.0367932 -0.0385021 1.48013)
(0.047614 -0.03812 1.25874)
(-0.0354694 0.0749653 1.02463)
(-0.0714817 0.0617202 1.48485)
(0.0554266 -0.021699 1.49336)
(0.269346 0.0013117 1.09711)
(-0.03458 0.00829478 0.97317)
(-0.0106183 -0.185801 0.92712)
(-0.119004 0.0399405 0.818044)
(-0.137223 0.00454095 0.604476)
(-0.0445326 -0.108108 0.788886)
(-0.0772546 -0.185362 0.88602)
(0.0146838 -0.0496941 0.690893)
(-0.03265 -0.0548468 0.785908)
(-0.0293211 -0.192986 0.998089)
(0.0108105 0.142339 0.633641)
(0.0059857 -0.0329756 0.740963)
(0.0338621 -0.13312 1.13731)
(0.168324 -0.0507283 1.08844)
(0.188704 -0.0842502 1.1701)
(0.122659 -0.134329 1.18243)
(0.10169 0.0549618 0.747193)
(0.0910505 0.0270751 1.18139)
(0.0852835 0.0146817 1.47162)
(0.0809706 -0.0148388 1.45961)
(0.0695012 -0.060475 1.30769)
(-0.0271606 0.0910322 1.14548)
(-0.0571492 0.0377677 1.48323)
(0.061203 -0.00961442 1.44069)
(0.16348 0.0141772 1.11264)
(-0.0294964 0.0164979 1.09073)
(-0.00293624 -0.177535 0.961417)
(-0.0541797 0.139435 0.871818)
(-0.0752153 0.0443057 0.621804)
(-0.0181987 0.0365591 0.840279)
(-0.0962107 -0.131751 0.864787)
(0.0166033 0.0112595 0.726967)
(-0.0106975 -0.043667 0.823502)
(-0.0513085 -0.175758 1.01278)
(0.0142658 0.183827 0.669577)
(-0.0156415 0.00610427 0.747257)
(-0.0195409 -0.166399 1.00053)
(0.160473 -0.128403 1.02637)
(0.170633 -0.111059 1.18783)
(0.0857909 -0.120416 1.24501)
(0.114869 0.0639897 0.755236)
(0.0564542 -0.0579776 1.06755)
(0.15313 0.00998662 1.4261)