/*--------------------------------*- C++ -*----------------------------------*\
| =========                 |                                                 |
| \\      /  F ield         | OpenFOAM: The Open Source CFD Toolbox           |
|  \\    /   O peration     | Version:  5.x                                   |
|   \\  /    A nd           | Web:      www.OpenFOAM.org                      |
|    \\/     M anipulation  |                                                 |
\*---------------------------------------------------------------------------*/
FoamFile
{
    version     2.0;
    format      ascii;
    class       volScalarField;
    location    "0.75";
    object      p;
}
// * * * * * * * * * * * * * * * * * * * * * * * * * * * * * * * * * * * * * //

dimensions      [0 2 -2 0 0 0 0];

internalField   nonuniform List<scalar> 
10571
(
111.953
152.346
92.1108
90.0785
95.4156
112.599
86.2408
88.9864
62.9859
63.2255
155.549
116.074
96.5991
102.641
111.635
164.237
119.851
87.6934
119.309
236.603
252.514
80.439
177.162
269.652
48.8886
67.4006
55.5452
48.0731
42.5967
51.7867
52.5074
41.2824
47.6172
45.7786
67.0237
45.5887
41.4969
39.9804
40.0081
44.193
49.5716
45.5266
41.6523
48.7405
74.3631
44.7442
45.2938
86.5998
42.9444
44.1357
42.4477
43.3229
43.5349
44.8044
43.1493
45.8509
46.3658
45.029
42.567
43.7521
45.2273
46.8268
46.7205
44.5733
42.3985
44.5254
46.0611
44.1236
46.7963
44.4062
43.4078
48.8464
43.1204
41.6803
42.7752
43.5607
43.4914
41.332
47.4801
44.7848
43.8555
44.5784
42.2248
41.3826
46.089
46.5716
43.75
44.2378
42.3085
43.3597
43.6068
43.5709
43.801
43.1029
42.8378
44.3215
42.7238
40.353
42.4648
42.5457
42.7372
39.7233
43.163
42.7002
41.3024
43.5171
40.6296
39.786
42.799
45.6066
43.3241
43.5614
41.045
40.9237
43.5551
43.5119
42.454
41.3254
41.8126
42.7803
41.8998
39.2774
40.7332
41.6503
41.5174
38.3682
37.4574
40.5519
39.0103
38.7021
37.2073
39.1919
38.8852
37.4664
41.4518
41.4731
41.4073
38.878
39.6293
37.7982
40.8813
41.5408
39.9252
39.3128
38.9325
40.2276
40.8391
38.0647
38.4604
40.8486
40.2787
37.5856
37.2691
38.3896
37.7267
36.1847
36.6508
37.9819
37.845
36.9045
37.2802
38.7163
37.0895
37.7118
38.251
36.6239
37.2638
38.52
38.0926
38.3027
37.658
36.5191
38.7461
40.3505
37.1857
37.1226
40.7937
39.158
36.945
36.32
37.1779
37.0692
36.9351
36.6276
37.0581
36.8822
36.2406
36.7182
37.0226
36.6394
37.1057
37.1622
36.2164
36.2162
36.3318
37.8029
37.5217
36.6392
35.7772
36.8988
39.0401
36.1865
36.1811
39.8014
38.1844
36.207
35.4749
36.4628
36.6418
37.1614
37.4184
36.3595
36.1934
35.5828
35.9409
36.1687
36.2707
36.9455
36.3471
35.7421
35.4156
36.2997
37.804
35.977
35.4715
35.8822
35.317
35.4887
35.3289
35.1177
36.6537
35.5446
35.0516
35.6033
36.1775
36.4446
35.6822
35.5443
35.0806
35.2593
35.332
36.0509
35.7106
35.242
34.8331
35.3848
35.7363
35.4339
35.0657
34.9177
34.3319
34.8758
34.6273
34.2269
35.066
34.9241
34.6101
34.757
35.4565
35.5104
35.0671
35.0002
34.6168
34.7416
34.6065
35.3879
35.1542
34.7638
34.3386
34.789
33.7494
34.9796
34.6298
35.4962
34.0561
34.3465
34.1717
34.0351
34.5399
34.448
34.2213
34.1189
34.6667
34.8681
34.6536
34.5305
34.21
34.3304
34.1943
34.6653
34.6653
34.3222
34.0373
34.1719
34.3853
34.4376
34.3514
34.261
33.7245
33.9863
33.9185
33.7355
33.9303
34.0605
33.9104
33.6992
34.0613
34.3275
34.1845
34.1353
33.9021
33.9417
33.9198
34.2027
34.2157
33.9693
33.7937
33.9703
35.025
34.1933
34.0386
34.0215
33.5091
33.7405
33.652
33.4744
33.4633
33.803
33.6323
33.3453
33.5819
33.7683
33.8256
33.8054
33.6699
33.6403
33.633
33.9103
33.9408
33.7018
33.5652
33.4988
33.841
33.8787
33.668
33.6844
33.3709
33.5657
33.4443
33.3343
33.3098
33.5629
33.4608
33.2405
33.2902
33.4841
33.6154
33.6122
33.5121
33.5257
33.4817
33.7044
33.638
33.5481
33.44
33.4312
33.533
33.6509
33.4643
33.5153
33.2572
33.417
33.3395
33.2852
33.177
33.4043
33.3545
33.2751
33.263
33.3842
33.4352
33.4418
33.4187
33.4409
33.4345
33.5407
33.5145
33.4804
33.433
33.4219
33.4441
33.58
33.4698
33.4485
33.2437
33.2568
33.2788
33.2448
33.1919
33.2696
33.2688
33.2578
33.2559
33.3013
33.298
33.3743
33.332
33.3664
33.3689
33.4188
33.4089
33.3946
33.4135
33.3835
33.3858
33.4905
33.4679
33.4106
33.2218
33.2125
33.2272
33.2133
33.2211
33.194
33.21
33.2256
33.2206
33.2559
33.2822
33.2185
33.2649
33.3122
33.3034
33.3094
33.3013
33.3067
33.3691
33.3285
33.3277
33.4059
33.4571
33.3664
33.1975
33.1421
33.1745
33.1853
33.1886
33.1338
33.1717
33.1923
33.1847
33.2548
33.1656
33.0739
33.2309
33.2646
33.2576
33.2492
33.2957
33.2521
33.3214
33.2954
33.2577
33.3942
33.4002
33.3286
33.1627
33.1217
33.1432
33.1643
33.1531
33.1229
33.1496
33.1562
33.1438
33.1934
33.0599
33.088
33.1961
33.2211
33.2209
33.2574
33.1917
33.1933
33.2627
33.2563
33.2467
33.2298
33.3245
33.2794
33.1295
33.109
33.1198
33.1298
33.1238
33.1082
33.1293
33.1205
33.121
33.2341
32.9864
33.0958
33.1557
33.1778
33.1784
33.3007
33.0872
33.1117
33.2039
33.2188
33.2408
33.1983
33.2448
33.236
33.0955
33.0966
33.1014
33.1026
33.0525
33.0816
33.1038
33.109
33.1185
33.1907
33.0555
33.0302
33.1136
33.1406
33.1136
33.2157
33.0141
33.0391
33.1619
33.1576
33.2003
33.1677
33.1943
33.2008
33.0802
33.0853
33.0869
33.085
33.0472
33.0698
33.0832
33.1213
33.061
33.0858
33
33.0082
33.0881
33.1071
33.0565
33.0808
33.002
32.9983
33.135
33.1194
33.1354
33.1451
33.1739
33.1628
33.0727
33.0959
33.0815
33.0684
33.0621
33.0798
33.0738
33.1322
32.966
32.904
33.0333
33.0578
33.0814
33.0957
33.0258
32.9053
33.0456
33.0009
33.1275
33.0932
33.0596
33.0132
33.1551
33.1408
33.0592
33.1161
33.0861
33.0594
33.0642
33.1195
33.0798
33.0767
32.9348
32.7978
33.1246
33.113
33.0952
33.1064
33.0305
32.8367
33.0357
33.0286
33.1325
33.0938
33.0289
32.9927
33.1528
33.1285
33.0427
33.1498
33.0939
33.0267
33.0453
33.1823
33.11
33.0043
32.8927
32.9096
33.1846
33.1736
33.1345
33.1363
33.0416
32.8277
33.0801
33.0669
33.133
33.1074
33.0593
33.0609
33.1123
33.1152
33.0229
33.1925
33.0874
32.9885
32.9923
33.2339
33.1308
32.9863
33.025
33.1776
33.2207
33.2326
33.1691
33.1453
33.0374
32.8424
33.0896
33.0804
33.1195
33.1255
33.1282
33.0258
33.0757
33.1003
33.0297
33.2352
33.0625
32.9737
33.0747
33.2805
33.1317
33.0148
33.2734
33.6624
33.2647
33.2891
33.1668
33.1489
33.0732
33.2314
33.1214
33.0542
33.0895
33.1285
33.169
33.043
33.053
33.0834
33.0371
33.2426
33.0553
32.9787
33.3472
33.2895
33.1032
33.0367
33.3453
34.2107
33.2369
33.2624
33.075
33.0823
33.103
33.3422
33.0899
32.9966
33.0273
33.1005
33.1368
33.0095
33.024
33.0647
33.1606
33.2203
33.0967
33.0737
33.5932
33.2056
33.0093
32.9568
33.2337
33.6585
33.1521
33.1759
32.95
32.9821
33.0701
33.2205
33.0309
32.9302
32.9739
33.0637
33.1001
32.9644
32.9976
33.0494
33.0373
33.0991
32.9978
32.8765
33.3818
33.0593
32.8558
32.7988
33.0217
33.2594
33.0306
33.0329
32.8372
32.9012
33.0018
33.1278
32.9547
32.8995
32.945
33.0322
33.0824
32.9284
32.9761
33.0182
32.7567
32.9413
32.8403
32.655
32.9362
32.9265
32.7746
32.7123
32.8606
33.0103
32.8993
32.8943
32.8038
32.8617
32.9146
33.0215
32.8977
32.915
32.9353
33.0005
33.0364
32.9534
32.9738
33.0014
32.5632
32.8391
32.7704
32.5876
32.7127
32.8307
32.7561
32.6948
32.7741
32.8617
32.799
32.7681
32.8127
32.8287
32.8281
32.9156
32.8715
32.9429
32.9133
32.9076
32.9415
33.1383
33.0405
32.9604
32.6275
32.7978
32.7728
32.6485
32.6669
32.7757
32.7574
32.7087
32.7485
32.7901
32.7421
32.6898
32.8313
32.7944
32.7781
32.8387
32.8778
32.9283
32.8767
32.8091
32.8545
33.1779
33.0075
32.8833
32.7114
32.7842
32.7834
32.717
32.7098
32.765
32.7749
32.7417
32.7637
32.7752
32.7517
32.7306
32.8477
32.7894
32.7748
32.8042
32.9164
32.8911
32.8665
32.8047
32.8174
33.0707
32.9451
32.8401
32.7694
32.792
32.7949
32.7713
32.7709
32.7851
32.817
32.7911
32.8013
32.7984
32.8158
32.83
32.8612
32.8106
32.7965
32.8034
32.9481
32.8788
32.8831
32.8524
32.8211
33.0293
32.9243
32.8762
32.8281
32.8283
32.8365
32.8253
32.8345
32.8242
32.8675
32.8421
32.8482
32.8318
32.8901
32.9339
32.8732
32.8336
32.8233
32.8185
32.9598
32.8784
32.8797
32.876
32.8365
32.9573
32.9083
32.8995
32.8825
32.8679
32.8819
32.8769
32.9004
32.8633
32.9012
32.8796
32.8905
32.8652
32.9386
32.9912
32.888
32.8523
32.8446
32.8376
32.9461
32.8556
32.8564
32.8784
32.8508
32.9055
32.8869
32.8946
32.9222
32.9052
32.916
32.916
32.9534
32.8925
32.9162
32.8962
32.9126
32.8885
32.9574
32.996
32.905
32.8645
32.8639
32.8542
32.902
32.8347
32.8273
32.8625
32.8567
32.8671
32.8658
32.874
32.9453
32.9393
32.9384
32.9372
32.968
32.9121
32.9232
32.8979
32.9159
32.8995
32.9489
32.9581
32.9186
32.8667
32.8735
32.8661
32.8549
32.8236
32.7938
32.8379
32.8532
32.8408
32.8452
32.8444
32.9538
32.9648
32.9544
32.9502
32.9602
32.943
32.9278
32.9005
32.9178
32.9094
32.9338
32.9152
32.9212
32.8651
32.8744
32.874
32.8002
32.7965
32.7552
32.8071
32.8426
32.808
32.8219
32.8076
32.9705
32.9734
32.9664
32.963
32.9603
32.9534
32.9468
32.9109
32.9292
32.9254
32.9193
32.8737
32.9147
32.8655
32.8758
32.8856
32.7531
32.8127
32.7294
32.7807
32.8372
32.7752
32.8103
32.7788
32.99
32.9656
32.9787
32.9823
32.9861
32.9193
32.9705
32.9319
32.9562
32.9531
32.8825
32.8197
32.9039
32.8877
32.9029
32.9126
32.7767
32.8251
32.8161
32.7882
32.8609
32.7809
32.8385
32.8235
33.018
32.966
32.9974
33.0077
33.0149
32.898
33.002
32.9669
32.9976
32.9936
32.8505
32.7795
32.8923
32.9364
32.9561
32.9591
32.854
32.8714
32.9198
32.8651
32.9272
32.8624
32.9051
32.9052
33.0543
32.9957
33.0258
33.0404
33.0412
32.9212
33.0702
33.0128
33.0467
33.0503
32.8773
32.8537
32.9433
33.0076
33.0267
33.0171
32.9873
32.9488
33.0245
32.9708
33.0038
32.9917
32.9949
32.9996
33.1021
33.0604
33.0667
33.0834
33.0854
32.9677
33.1519
33.0679
33.1047
33.0805
32.9979
32.9771
33.0509
33.0794
33.0916
33.0763
33.1217
33.0519
33.1061
33.0497
33.0659
33.0888
33.0716
33.0757
33.1567
33.1491
33.1277
33.1391
33.1505
33.0579
33.2059
33.1354
33.168
33.1446
33.0915
33.0665
33.1321
33.1415
33.1424
33.1335
33.199
33.1332
33.1514
33.0927
33.1183
33.1433
33.13
33.1167
33.21
33.2265
33.2008
33.1965
33.2112
33.1893
33.2306
33.1958
33.2252
33.197
33.1667
33.1647
33.2049
33.1987
33.1841
33.1862
33.3065
33.2057
33.1898
33.1418
33.1702
33.1967
33.1783
33.1591
33.2523
33.2856
33.2594
33.2438
33.2551
33.2886
33.265
33.2452
33.2722
33.2382
33.2441
33.2634
33.2506
33.2514
33.2249
33.2341
33.4061
33.2559
33.2324
33.1982
33.2218
33.2517
33.2323
33.2125
33.2862
33.3332
33.3116
33.2819
33.2863
33.3542
33.3092
33.2962
33.2999
33.2645
33.3129
33.3157
33.281
33.2957
33.2701
33.2782
33.3411
33.2835
33.2683
33.2598
33.2723
33.2999
33.2909
33.2784
33.3132
33.3645
33.3481
33.3135
33.3051
33.3795
33.3426
33.3409
33.3064
33.2865
33.3531
33.3294
33.3095
33.329
33.3084
33.3146
33.2436
33.3127
33.3069
33.3057
33.3155
33.3434
33.3386
33.3423
33.3395
33.3933
33.3748
33.3431
33.3189
33.3904
33.3539
33.3706
33.3044
33.3132
33.4392
33.3484
33.346
33.3604
33.3356
33.3419
33.2383
33.3567
33.3517
33.3452
33.3511
33.3833
33.3837
33.3835
33.3696
33.4156
33.397
33.3744
33.3374
33.4112
33.3582
33.3892
33.3203
33.3318
33.445
33.4257
33.3951
33.3935
33.3467
33.3587
33.3423
33.4119
33.3934
33.4005
33.3762
33.4229
33.4302
33.4098
33.4016
33.4409
33.4242
33.4049
33.3622
33.4339
33.3857
33.4091
33.3401
33.3475
33.4832
33.4637
33.4423
33.423
33.3489
33.3668
33.4613
33.4504
33.4316
33.4194
33.3859
33.4548
33.4564
33.4224
33.4423
33.4768
33.4586
33.4374
33.3906
33.4715
33.4296
33.431
33.3369
33.3929
33.4999
33.5
33.4679
33.4294
33.3521
33.3658
33.5249
33.474
33.4538
33.412
33.3829
33.4809
33.4609
33.4239
33.4842
33.534
33.5085
33.4724
33.4082
33.5327
33.4834
33.4308
33.315
33.3695
33.5529
33.5528
33.498
33.411
33.3523
33.3492
33.5589
33.492
33.4642
33.3961
33.3688
33.4975
33.4513
33.4161
33.5343
33.6108
33.5721
33.5132
33.4308
33.6127
33.5472
33.4469
33.3053
33.3304
33.6282
33.6157
33.5332
33.3882
33.3355
33.3205
33.5965
33.5199
33.4453
33.3671
33.3414
33.519
33.4382
33.3975
33.5989
33.704
33.6549
33.5717
33.47
33.7033
33.6229
33.4801
33.2973
33.2926
33.714
33.6894
33.5703
33.3753
33.3018
33.2748
33.6537
33.5702
33.4294
33.3319
33.2989
33.5544
33.4183
33.3709
33.6903
33.8149
33.7591
33.6511
33.5121
33.8096
33.7196
33.5084
33.2538
33.2383
33.8088
33.7802
33.6367
33.3734
33.2351
33.1937
33.7408
33.6538
33.4242
33.2807
33.233
33.624
33.4255
33.3456
33.8224
33.9528
33.8973
33.7553
33.5704
33.9345
33.8218
33.5347
33.1871
33.1103
33.927
33.8948
33.729
33.3884
33.1258
33.0268
33.8592
33.7786
33.4704
33.2272
33.1355
33.7502
33.5054
33.3599
34.0292
34.1222
34.0817
33.9199
33.6889
34.0805
33.9631
33.5612
33.0448
32.7868
34.0698
34.0357
33.8396
33.4281
32.948
32.56
34.0103
33.9382
33.5992
33.1835
32.974
33.9107
33.6827
33.4625
34.3494
34.3307
34.3262
34.1866
33.9361
34.2559
34.13
33.6083
32.8306
31.7178
34.2386
34.2025
34.0127
33.4799
32.6903
30.907
34.1945
34.145
33.8243
33.1696
32.5857
34.1526
33.9562
33.713
34.7778
34.5569
34.6085
34.5768
34.3266
34.454
34.3317
33.7079
32.5136
27.8663
34.4302
34.3988
34.2301
33.5897
32.3996
27.5828
-14.9644
34.4122
34.4074
34.1111
33.1978
31.3369
34.4537
34.3031
34.0821
35.2514
34.774
34.8685
34.987
34.6391
34.6545
34.5408
33.914
32.238
24.3792
3.02978
34.633
34.6088
34.4786
33.8911
32.3376
26.3996
5.45618
34.6562
34.7029
34.4537
33.3626
28.6276
34.7737
34.7511
34.6385
35.371
34.9537
35.0453
35.1055
34.5647
34.8384
34.6947
33.9911
32.0811
24.8611
6.32618
34.8285
34.82
34.7574
34.2509
32.6551
25.9015
8.14755
34.9059
35.0141
34.7964
33.8661
28.5232
8.53095
35.1068
35.2221
35.046
35.0349
35.1006
35.1946
34.7055
34.062
34.9966
34.7889
33.86
32.457
24.0423
4.45952
34.9999
35.011
35.0281
34.5199
33.2992
26.9968
5.65275
35.1339
35.2477
35.083
34.4411
29.4767
35.3409
35.4911
35.1266
34.8558
35.2052
35.3488
34.3675
34.1719
35.1056
34.8953
33.8816
33.8073
28.4151
35.136
35.1532
35.2284
34.921
34.1519
29.2819
-18.4291
35.2976
35.3702
35.4402
35.0358
32.4469
35.4911
35.4388
35.3217
34.864
35.1415
34.9432
34.53
34.5808
35.1652
34.899
34.6873
34.6128
33.4186
35.2288
35.2508
35.3016
35.1332
34.8495
32.8491
35.4033
35.4168
35.7843
35.2534
34.264
35.5907
35.5201
35.426
34.9698
34.6485
34.4768
34.8368
34.9313
35.156
34.9356
35.188
35.1033
34.7143
35.3013
35.3043
35.3311
35.333
35.2616
34.5667
35.4551
35.5591
35.5531
35.3354
34.9876
35.5581
35.5777
35.4936
35.1197
34.3743
34.3336
35.0749
35.2037
35.164
35.1096
35.3318
35.3619
35.2463
35.3891
35.3563
35.3044
35.3209
35.4331
35.22
35.3977
35.6372
35.386
35.4457
35.3305
35.4934
35.5373
35.5258
35.3435
34.9109
34.9016
35.3461
35.4454
35.3568
35.3882
35.4555
35.544
35.5404
35.5273
35.4521
35.2677
35.371
35.5646
35.5267
35.2629
35.5284
35.366
35.538
35.5534
35.4398
35.5227
35.5809
35.645
35.549
35.4339
35.6006
35.6878
35.6729
35.6521
35.5857
35.7354
35.7766
35.7789
35.6481
35.3448
35.5227
35.7276
35.7518
35.2134
35.2873
35.4929
35.6573
35.7621
35.4476
35.6031
35.7064
35.9364
35.9939
35.7683
35.8094
35.9278
36.0065
35.8129
35.6551
35.9173
35.9955
36.2135
35.9499
35.5635
35.5728
35.9052
35.9625
35.3432
35.0859
35.6989
35.8393
35.9892
35.5688
35.7899
35.9101
36.1808
36.43
36.055
36.0212
36.1738
36.4009
36.056
35.7887
35.997
36.2194
36.6376
36.387
35.9011
35.5841
35.9527
36.2052
35.9591
35.2209
35.6483
36.0592
36.2421
35.8628
36.0332
36.1725
36.3525
36.5858
36.2126
36.1364
36.2972
36.6569
36.2042
35.9589
36.1087
36.3753
36.6958
36.6459
36.2003
35.8278
36.0969
36.339
36.3876
35.8848
35.881
36.2017
36.323
36.1505
36.1813
36.253
172.972
157.054
162.179
147.153
158.362
139.152
138.348
145.862
204.192
186.533
173.008
199.781
142.458
122.78
98.2345
99.0383
95.254
97.2449
100.575
97.8291
100.467
125.736
138.063
105.443
134.443
133.441
214.671
174.699
185.87
173.832
108.723
146.171
105.706
95.7395
96.6064
98.8741
102.103
101.23
111.615
112.285
130.556
121.946
131.229
149.81
159.436
146.598
186.77
181.005
165.627
168.399
166.065
142.93
108.25
137.406
115.623
106.899
114.428
118.475
132.512
130.7
157.429
159.12
198.56
191.274
224.871
246.694
299.106
264.861
233.178
318.945
165.201
149.419
115.393
152.214
138.79
131.009
156.794
137.152
168.926
198.756
252.662
241.246
316.37
311.625
361.146
372.756
364.502
338.251
150.681
168.613
203.66
194.843
288.563
346.347
253.791
361.039
139.382
88.291
116.27
126.062
104.501
77.1347
81.3931
75.0016
100.076
99.0839
74.5591
72.3789
67.6797
104.747
63.4367
161.248
101.612
127.8
138.153
86.0879
97.1846
81.6186
90.2372
71.9811
98.0287
74.8411
79.0969
51.6273
49.15
45.3519
44.2864
75.8742
44.0287
158.43
155.372
154.798
99.8825
120.573
105.618
66.2302
67.4347
43.1358
41.1049
41.1312
155.579
141.519
127.115
119.99
107.67
123.951
222.574
59.1963
49.5542
114.09
133.163
94.0163
96.3534
119.74
106.939
81.3939
65.5796
73.2652
57.2264
268.68
275.717
280.336
91.3823
149.243
156.643
167.941
141.685
102.573
51.0927
69.9442
72.9934
47.9352
42.4227
41.486
243.868
148.172
67.5991
127.401
53.9743
156.571
64.3027
49.7524
52.7216
59.0743
52.1997
43.3899
45.6839
43.0442
46.1678
44.32
43.5236
42.8334
43.0032
43.8697
43.3357
60.4032
45.4276
62.9446
63.2951
68.9886
47.9085
48.5819
48.5084
56.8524
43.0265
43.9174
43.7772
43.2353
43.7432
44.779
44.1465
44.3757
45.1101
50.3407
61.4812
52.2761
43.366
43.5838
43.545
45.9581
45.4726
45.7655
45.9887
45.7499
58.1982
63.0888
43.9938
42.4691
43.0751
43.9586
58.0791
44.0567
44.7403
46.2342
58.8952
42.8995
47.6377
46.1549
43.2194
42.1696
43.5215
42.432
42.3577
70.1486
75.2425
92.6098
43.2149
46.8119
46.9323
58.9127
51.2743
43.0209
43.6234
44.7521
44.4461
44.7812
44.7977
44.5981
64.8979
44.351
43.6653
46.3416
44.038
57.1047
44.7969
43.0259
42.5436
42.9311
42.4403
42.9634
42.5491
42.7794
42.9898
43.2781
43.1781
43.11
43.2634
43.5885
43.6352
43.6549
43.2231
44.1992
44.2877
46.8048
43.3191
43.484
43.4908
46.5084
44.0213
44.7272
44.109
43.6033
44.048
44.1855
43.8077
45.0108
44.5738
43.3867
43.2603
43.0459
42.8835
43.0867
42.5384
45.0315
45.1595
44.7141
44.5533
44.6275
42.3541
42.4429
42.4882
42.2541
42.6771
44.7754
45.0658
44.5248
44.4541
44.3318
42.5277
42.8295
43.9266
42.6299
42.7848
42.6167
43.7265
42.8208
42.8732
45.7762
46.0792
49.5841
43.4441
44.697
45.0374
45.8268
44.8546
43.8592
43.7394
43.9691
43.8414
43.7956
43.4188
43.5312
45.9726
43.4984
43.0561
45.0878
43.1609
45.8158
41.9631
41.4277
43.0846
42.4939
42.931
43.0517
42.6037
42.8513
43.075
43.1833
42.9892
42.9319
43.0184
43.5023
43.3048
42.0071
40.881
41.7018
41.7664
42.946
40.9813
40.77
40.8969
39.9549
43.7465
43.5682
43.3606
43.1856
43.293
42.9566
42.7031
43.9085
43.1435
41.9106
42.435
41.8727
40.9689
41.3565
40.9941
43.9844
43.9818
44.3586
43.4146
43.5769
42.0062
42.4342
41.5075
41.4386
41.7947
44.1431
43.9703
43.8981
43.9325
43.6101
42.5106
41.9748
42.8868
42.4854
42.5846
41.7024
41.6701
42.0146
41.905
43.6325
43.7546
43.8968
43.3771
43.3006
43.4387
42.8207
43.1408
43.1584
42.3661
42.9296
43.1013
42.2785
42.2844
42.4627
45.2153
42.8668
42.3974
44.9682
42.3506
43.5272
41.2697
40.5679
42.8727
43.1134
42.6172
42.5021
42.3612
42.1658
42.6865
42.7303
42.348
42.3106
42.3334
42.922
42.4244
40.0514
39.3633
40.3358
40.1614
39.9478
39.8394
39.8464
39.5146
39.3841
42.6394
42.3011
41.9408
42.1589
41.884
41.6071
41.1098
42.1733
40.9323
40.164
40.3653
40.1353
39.2983
39.5727
39.3998
42.9404
43.3214
41.7164
42.1578
43.0049
40.6229
40.9796
39.8345
39.8527
40.1925
43.6774
43.3938
43.1363
43.2884
42.8372
41.2507
40.4399
40.5831
41.3385
41.0564
40.357
39.6462
40.5796
40.1462
42.7879
42.8968
41.8221
42.9106
41.2673
41.5418
40.7048
41.3242
41.3943
40.4159
41.3709
41.4319
40.3311
40.1665
40.1133
45.1102
41.6154
40.6405
43.7326
40.3175
41.6029
39.6743
38.9861
42.0111
40.2809
41.5177
41.4308
39.3721
41.1388
41.8188
41.8231
41.3421
41.2479
41.2721
41.8171
41.1875
38.7789
38.2731
39.208
38.8758
38.7153
38.6385
38.605
38.3006
38.2826
41.0954
40.8892
40.32
40.8839
40.3847
40.183
39.5934
39.5113
38.4133
38.5619
38.8737
38.7109
38.1458
38.2848
38.1547
38.8116
38.2364
42.8056
36.7086
37.0595
36.2819
37.7947
37.4391
38.4006
38.3554
36.3738
37.2345
37.7507
38.4225
39.1803
39.4762
38.586
38.5606
38.8047
43.1641
41.4367
41.0386
38.5209
39.4137
40.1353
40.4775
38.7643
39.2693
38.8659
38.2992
38.55
38.8156
38.6513
39.6609
38.9606
38.93
39.738
39.3445
38.9215
38.3542
38.9725
38.6322
40.0545
40.2172
39.4935
39.998
39.8021
39.4538
38.8959
39.1514
39.4998
38.6862
38.8683
38.8833
38.3817
37.8817
37.8782
41.1076
38.7456
37.5706
39.3013
37.4108
39.298
38.5592
38.007
40.8441
38.9788
40.8936
39.9283
38.2208
39.8113
40.7169
40.7505
40.5202
40.36
40.2182
40.5304
39.8812
37.8667
37.4769
38.1565
37.8465
37.8879
37.6381
37.7181
37.457
37.4859
39.7593
39.5193
38.923
39.6976
39.2028
38.9595
38.4638
37.6554
36.8594
37.9233
37.0157
36.8862
37.1026
37.0026
37.108
37.8194
37.8299
37.7727
37.4713
37.4062
37.4147
36.8712
36.5089
37.1529
36.7216
37.0651
36.8845
37.2275
37.1522
37.0537
37.6311
37.0406
37.1601
37.0451
37.2342
37.9755
38.1794
37.4736
37.4771
37.6506
37.8028
38.09
39.4873
36.746
37.1681
38.1382
38.1714
38.0985
38.2981
38.3633
37.1109
37.38
37.5568
37.9293
38.3013
37.701
37.8365
38.2665
37.9973
37.668
37.3877
37.6627
37.4539
38.8137
38.6
38.2391
37.0776
38.7592
36.1686
37.8779
38.4494
38.165
37.7428
38.2802
37.582
38.0045
37.9855
37.3878
37.2422
37.191
37.0887
36.7743
36.7396
37.8905
36.4872
36.0341
36.7601
36.1167
36.1112
37.4318
36.7984
38.5952
37.3236
37.7809
37.6497
36.7485
36.6361
40.1069
39.6865
40.1085
39.8733
39.0698
39.3394
38.8735
37.0431
36.6397
37.2424
37.0593
37.0499
36.6676
36.6557
36.6168
36.5521
38.7627
38.5688
38.2649
38.703
38.3995
38.2517
38.0869
38.2415
37.3877
38.3464
37.885
36.8923
36.9814
37.1646
37.2722
37.0482
37.033
37.0323
36.6356
36.6563
36.6601
36.8339
37.0417
37.1393
36.9781
36.9805
37.0012
36.9991
37.0032
37.0116
37.2643
37.0346
37.3666
36.9442
37.2368
37.0624
37.2016
36.699
36.6956
36.7981
37.0275
37.4876
37.5815
36.5339
36.9395
37.4397
37.5779
37.3303
37.4511
37.6275
37.1528
37.3677
37.5253
37.6446
37.2202
36.7935
36.9922
37.1552
37.0206
36.7179
36.6167
36.6973
36.6415
38.6166
36.4649
37.5224
36.7347
38.2516
36.7726
37.3521
37.6448
37.9486
37.6215
37.6173
37.5259
37.6199
36.906
36.5241
36.3818
36.433
36.2857
36.0493
36.1533
36.369
35.8915
35.6393
35.8403
35.7448
36.2236
36.2735
35.7966
36.4514
36.2731
36.0588
35.4371
35.8029
35.425
39.3714
38.4774
36.8333
37.5643
37.6753
38.375
37.6896
36.2569
35.8992
36.1373
36.1738
36.0998
35.7996
35.7442
35.8003
35.7259
37.9731
37.8457
37.7599
37.4831
37.4749
37.2966
37.2907
38.3233
37.4481
36.2721
36.3104
36.3019
35.9331
36.0089
35.99
37.7721
36.8223
36.8325
36.9605
38.1261
36.6312
36.8177
37.485
36.9521
37.4345
37.6665
37.6269
37.3978
37.7049
36.3528
36.4133
36.0255
36.006
36.0428
36.6221
37.5727
37.4275
36.0823
36.4309
37.6328
37.1826
37.3802
37.465
37.6857
37.3539
37.4645
37.6336
37.7105
36.3814
36.0482
36.2696
36.2958
36.2578
36.0081
35.947
35.9678
35.9244
40.7374
37.0019
37.6138
35.6502
35.757
34.7401
36.3059
38.2388
36.1791
35.864
35.8022
35.8668
35.6956
35.5826
35.6681
35.5856
35.5461
35.2786
35.2388
35.3169
35.7812
35.4143
35.1039
35.0743
35.3954
35.0382
34.8163
35.04
34.8292
35.2869
36.4593
34.5916
34.3452
35.4253
36.823
35.8013
35.571
35.2261
35.438
35.4773
35.4166
35.175
35.116
35.1851
35.1303
36.8897
36.588
36.7159
35.7463
36.2565
35.7746
36.1505
36.6348
36.1141
35.6248
35.7385
35.679
35.3007
35.414
35.3367
36.366
37.0375
35.9379
35.9089
35.2108
35.6749
35.7207
35.3443
35.3747
35.454
36.5268
36.4225
35.7899
35.5794
35.6429
35.7221
35.4278
35.622
35.6708
35.6195
35.4245
35.3142
35.4183
35.3507
38.1642
34.9158
35.7084
34.9014
31.2189
35.1043
34.1411
32.2193
35.5985
35.3655
35.338
35.5542
35.212
35.0662
35.3696
34.9646
35.1426
34.8587
34.7651
34.9645
35.0429
34.7868
34.5048
34.5604
34.7166
34.5971
34.3475
34.4403
34.3575
34.204
34.7513
34.2116
34.1855
34.4295
35.0373
34.6677
34.9413
34.6957
34.7883
34.9003
34.8778
34.614
34.5246
34.6012
34.6072
35.6759
35.2101
35.6117
34.7115
35.2006
34.8561
35.1686
35.7319
35.3577
34.99
35.0412
35.0304
34.7474
34.7652
34.7785
35.5074
35.3057
35.22
35.2101
35.2168
35.1052
35.1961
34.8589
34.8763
34.9324
35.4848
35.422
34.9758
35.1516
34.9031
35.186
34.9268
35.0756
35.1511
35.1175
34.9127
34.8427
34.8729
34.8862
34.044
34.4456
34.1158
34.4206
34.2039
34.7936
34.3459
34.1419
35.0944
34.8019
34.7572
35.024
34.6851
34.5589
34.702
34.5703
34.6954
34.4779
34.4275
34.4995
34.1756
34.2645
34.0956
34.1098
34.2049
34.1157
33.9223
34.0309
33.9332
34.0266
34.1262
33.8768
33.8571
33.8346
34.4365
34.1882
34.4512
34.2621
34.3197
34.3598
34.3736
34.1272
34.1466
34.193
34.1926
34.736
34.4767
34.7523
34.2989
34.2942
34.0939
34.3715
34.9387
34.5561
34.548
34.553
34.5505
34.3309
34.3401
34.3443
34.8622
34.8509
34.5793
34.624
34.5695
34.6648
34.7035
34.4188
34.4376
34.5052
34.7112
34.6365
34.4123
34.4357
34.394
34.6793
34.455
34.6111
34.6596
34.637
34.4322
34.3579
34.4306
34.3713
34.0783
34.2686
34.3369
34.137
34.7449
34.1593
34.4936
34.704
34.5773
34.3414
34.4326
34.5184
34.3126
34.3096
34.4091
34.3288
34.3903
34.2095
34.2177
34.2515
34.247
33.9753
33.8481
33.8231
33.874
33.813
33.6839
33.7399
33.6854
33.7275
33.6324
33.6001
33.6107
33.4841
33.852
33.5354
34.074
33.9088
34.0042
34.0361
34.0209
33.8651
33.8612
33.8882
33.8529
34.017
33.8551
34.084
33.627
33.7282
33.7221
33.8392
34.249
33.9098
34.1062
34.153
34.1368
33.9305
33.9615
33.939
34.4077
34.4308
34.0287
34.0788
34.2073
34.2025
34.2763
33.9638
33.986
34.0446
34.2597
34.1764
34.038
34.113
33.9432
34.2551
34.1103
34.1832
34.1793
34.1612
34.0501
34.0621
34.0244
34.0157
34.865
33.9378
34.4884
33.6806
34.8318
33.684
34.2869
34.0309
34.1462
34.0386
34.1273
34.2071
34.077
33.9519
34.0404
34.0902
34.1128
33.8528
33.97
34.0016
33.8514
33.6854
33.5553
33.5399
33.6115
33.5646
33.4563
33.5082
33.4738
33.5067
33.389
33.4251
33.4272
33.3542
33.364
33.3613
33.7828
33.6565
33.6943
33.7578
33.6926
33.6384
33.5794
33.6431
33.5874
33.5004
33.6234
33.6151
33.3864
33.3806
33.3887
33.4506
33.6352
33.5004
33.7914
33.7815
33.7843
33.6609
33.6261
33.6602
33.8166
33.9217
33.5893
33.6868
33.7251
33.8183
33.8989
33.7134
33.7009
33.747
33.9618
33.8967
33.8254
33.8863
33.8417
34.0237
33.7868
33.9134
33.9055
33.8813
33.8041
33.7381
33.7994
33.7877
33.6092
33.5678
33.9639
33.488
33.4198
33.5151
33.6074
33.8711
33.9139
33.8083
33.7999
33.914
33.718
33.6972
33.7883
33.8148
33.8144
33.5247
33.7124
33.6188
33.5827
33.4776
33.4228
33.3973
33.4473
33.408
33.3481
33.3875
33.3538
33.3615
33.3337
33.3054
33.3063
33.2789
33.3345
33.2411
33.557
33.4913
33.5189
33.5498
33.5214
33.4879
33.4641
33.4811
33.4646
33.3255
33.2275
33.3451
33.2232
33.2549
33.1627
33.2773
33.3975
33.3367
33.5538
33.5352
33.5605
33.4799
33.4728
33.4734
33.5904
33.6049
33.4629
33.4877
33.5565
33.6129
33.6353
33.537
33.538
33.5615
33.7361
33.711
33.5907
33.5947
33.5817
33.5508
33.5575
33.6387
33.6688
33.6937
33.5443
33.5829
33.5602
33.6024
33.4076
33.4662
33.4838
33.4315
33.4141
33.4524
33.44
33.4694
33.7094
33.6181
33.6415
33.714
33.6095
33.6013
33.6948
33.6288
33.5228
33.463
33.5827
33.5212
33.4824
33.3823
33.338
33.3222
33.3411
33.3212
33.2955
33.3055
33.3017
33.2668
33.2551
33.2511
33.2542
33.2701
33.1777
33.1851
33.4171
33.3512
33.4183
33.4137
33.3999
33.3462
33.3667
33.3502
33.3288
33.1911
33.2018
33.2216
33.178
33.1738
33.2345
33.1997
33.2956
33.2739
33.4069
33.3958
33.3897
33.3428
33.3101
33.3177
33.425
33.4791
33.3154
33.3879
33.4048
33.4666
33.4399
33.3459
33.3759
33.3499
33.5415
33.514
33.4894
33.4792
33.4598
33.4875
33.4004
33.5599
33.5348
33.5511
33.4431
33.5515
33.5074
33.4731
33.4008
33.4295
33.4112
33.4039
33.4015
33.4114
33.4072
33.4186
33.5582
33.5119
33.5489
33.6515
33.5384
33.5255
33.6122
33.5332
33.5082
33.4748
33.4929
33.494
33.4271
33.2879
33.234
33.2722
33.268
33.2829
33.2442
33.2454
33.2509
33.2519
33.2698
33.2336
33.2408
33.2572
33.2144
33.2159
33.3027
33.2338
33.2797
33.2924
33.2598
33.2214
33.2186
33.2431
33.2134
33.1847
33.2591
33.211
33.2135
33.2163
33.2694
33.2138
33.2998
33.2489
33.2945
33.2634
33.2744
33.2426
33.2583
33.2536
33.3347
33.3193
33.2688
33.3035
33.2783
33.3038
33.3284
33.2989
33.2664
33.2876
33.4186
33.3979
33.3526
33.3554
33.3582
33.3976
33.3548
33.5218
33.4511
33.3949
33.3722
33.4422
33.4043
33.3729
33.371
33.3874
33.377
33.36
33.3452
33.3647
33.3549
33.3524
33.4608
33.4127
33.5025
33.5657
33.4449
33.4264
33.5153
33.4728
33.4966
33.4621
33.4427
33.4859
33.3779
33.2168
33.1818
33.2201
33.2318
33.2204
33.2034
33.1953
33.2017
33.226
33.237
33.2118
33.2175
33.216
33.2125
33.2142
33.1793
33.1535
33.1913
33.1982
33.1775
33.1788
33.17
33.1537
33.1533
33.2396
33.2818
33.2086
33.204
33.2128
33.2705
33.2026
33.1868
33.205
33.2001
33.1832
33.2098
33.1707
33.1122
33.1391
33.2945
33.2805
33.2642
33.2654
33.2652
33.2229
33.2401
33.1836
33.1885
33.1814
33.3086
33.3197
33.2818
33.2806
33.282
33.2749
33.2331
33.3646
33.3691
33.3755
33.2721
33.2902
33.3555
33.3881
33.32
33.3447
33.3331
33.3157
33.2973
33.3279
33.3114
33.293
33.4187
33.4056
33.3758
33.4012
33.386
33.3709
33.326
33.4097
33.4463
33.4383
33.3823
33.4224
33.3555
33.1359
33.1331
33.1864
33.1686
33.1839
33.1707
33.1586
33.1685
33.2044
33.2024
33.1781
33.1793
33.183
33.2104
33.1845
33.127
33.1152
33.1519
33.1292
33.1411
33.1259
33.1362
33.1239
33.1311
33.167
33.2312
33.1896
33.1693
33.133
33.1926
33.1606
33.2172
33.1973
33.1255
33.104
33.1106
33.1129
33.1183
33.1171
33.2431
33.251
33.2145
33.2283
33.2466
33.163
33.1349
33.1739
33.1484
33.1475
33.2686
33.2468
33.2284
33.2756
33.2301
33.2405
33.2038
33.2298
33.3292
33.3767
33.2467
33.2092
33.2356
33.3404
33.2768
33.3042
33.2839
33.2721
33.2596
33.2796
33.2697
33.2443
33.3184
33.2677
33.3889
33.3737
33.3098
33.3745
33.3584
33.3553
33.3913
33.3717
33.327
33.3645
33.3026
33.1269
33.1221
33.1576
33.1449
33.1544
33.146
33.1334
33.1381
33.1626
33.1544
33.1462
33.1496
33.1377
33.1498
33.1402
33.1147
33.108
33.1257
33.1197
33.1289
33.1158
33.1195
33.1081
33.122
33.1379
33.1644
33.1412
33.1503
33.1404
33.1396
33.145
33.1617
33.1672
33.1208
33.1401
33.1101
33.1184
33.0846
33.0826
33.2348
33.269
33.2026
33.2726
33.2787
33.1237
33.1184
32.9599
33.0509
33.0872
33.3103
33.2347
33.3023
33.3276
33.2545
33.151
33.1401
33.2356
33.1904
33.31
33.1509
33.1921
33.2004
33.259
33.2551
33.2597
33.2658
33.2402
33.2498
33.2436
33.2517
33.2506
33.2617
33.2329
33.318
33.3272
33.2238
33.2559
33.273
33.2957
33.3243
33.2639
33.2595
33.2694
33.255
33.1136
33.1057
33.1307
33.1187
33.1173
33.1075
33.1093