/*--------------------------------*- C++ -*----------------------------------*\
| =========                 |                                                 |
| \\      /  F ield         | OpenFOAM: The Open Source CFD Toolbox           |
|  \\    /   O peration     | Version:  5.x                                   |
|   \\  /    A nd           | Web:      www.OpenFOAM.org                      |
|    \\/     M anipulation  |                                                 |
\*---------------------------------------------------------------------------*/
FoamFile
{
    version     2.0;
    format      ascii;
    class       volScalarField;
    location    "5";
    object      p;
}
// * * * * * * * * * * * * * * * * * * * * * * * * * * * * * * * * * * * * * //

dimensions      [0 2 -2 0 0 0 0];

internalField   nonuniform List<scalar> 
10571
(
239.416
127.012
166.755
184.809
260.131
142.428
152.827
144.274
192.613
213.193
118.374
109.666
104.478
123.493
154.688
205.048
85.5361
92.3338
106.778
118.836
177.229
91.0413
98.0733
101.719
124.91
95.4347
81.7805
95.5143
133.219
84.3118
79.3662
91.6531
87.5113
124.717
89.2463
83.5965
85.446
86.1124
85.6094
107.297
86.2399
81.9444
80.6212
84.458
90.8977
84.6907
88.4536
84.6109
84.0332
81.1484
81.3189
80.606
93.2247
80.2375
78.8802
81.8214
90.6475
95.5813
80.2648
79.4864
79.0409
80.8196
86.5164
87.6121
79.9635
77.6414
77.0837
80.7345
79.4126
80.5721
80.8445
78.4708
75.8692
75.9754
76.224
77.4646
76.5846
75.1755
75.0595
74.3246
79.9447
79.4392
75.8359
76.2622
73.8454
72.6762
74.8307
74.4271
76.0572
74.9586
72.9175
74.9921
74.5749
76.7636
76.0961
75.7038
68.9917
71.4548
72.6999
73.2863
58.1966
70.8453
70.891
71.3464
68.0577
65.7892
73.0757
74.8202
69.8746
69.5183
67.3031
67.387
74.6968
73.2323
69.9589
69.5771
69.6852
74.3738
72.9033
70.2106
52.2494
68.4966
69.9087
61.4557
51.7619
66.9263
67.6754
65.5878
53.1098
51.5269
51.5531
66.7604
69.246
65.6051
62.2351
58.4586
58.5786
52.2576
72.7729
72.0343
66.3831
62.9673
60.3574
73.8104
67.856
62.5166
51.4807
64.0084
65.9512
50.7375
51.5176
65.043
65.2968
53.4553
50.7614
51.5538
51.5272
61.2492
60.9969
62.3921
55.0784
51.7072
51.2408
51.4516
65.1532
65.991
58.5495
54.8381
51.5322
51.4512
78.0924
59.4553
57.1436
51.1243
50.8388
50.0303
51.0132
51.3068
62.9034
55.379
49.4443
51.5239
51.39
51.4681
58.6545
59.8602
56.6539
51.5303
50.8443
51.3566
51.4472
56.0894
53.3406
52.6908
51.536
51.7762
51.4049
59.5841
53.6912
53.7295
50.8274
50.6897
50.4905
50.7553
50.9951
50.132
48.4285
50.3833
51.1423
51.1441
51.4549
53.6123
57.5802
48.9703
49.9928
50.9262
51.3192
51.5064
54.1103
48.5399
49.9731
50.5293
52.0386
49.1102
50.7995
50.9868
50.6072
50.5771
50.4239
50.508
50.7153
50.6143
50.2596
50.639
50.7495
50.7214
49.6392
48.332
49.4149
50.157
50.6169
51.019
48.9536
49.2633
49.3097
49.9015
51.1766
49.3296
49.1893
49.5463
50.4828
50.5085
50.3956
50.4093
50.5044
50.4842
50.4846
50.4039
50.4372
50.5875
50.4929
50.5011
50.2363
50.2885
50.3708
50.5741
49.7028
49.881
49.9159
50.1214
50.7179
49.4884
49.5796
49.839
50.367
50.4121
50.2888
50.2706
50.37
50.4234
50.1178
50.1526
50.244
50.4309
50.4431
50.4409
50.1398
50.1957
50.2003
50.4327
49.8644
49.998
50.1492
50.2364
50.562
49.6559
49.8468
50.0567
50.2421
50.2618
50.1475
50.1627
50.2542
50.2294
49.8918
50.0066
50.094
50.2667
50.3144
50.3992
49.9516
50.0469
50.0676
50.2864
50.0692
50.0069
50.1276
50.1953
50.4311
49.9337
50.0162
50.1413
50.1274
50.0894
50.0381
50.0754
50.1371
49.969
49.7858
49.9031
49.9649
50.1487
50.0875
49.9642
49.8481
49.9268
49.9726
50.1518
50.0433
49.9817
50.054
50.127
50.288
50.079
50.09
50.153
50.0181
49.9452
49.935
49.9787
50.0234
49.7829
49.6453
49.7257
49.8529
50.0728
49.7672
49.7428
49.79
49.8331
49.916
50.0757
49.872
49.9186
49.9756
50.0665
50.192
50.1022
50.0767
50.1244
49.9153
49.825
49.8119
49.873
49.9221
49.7045
49.4489
49.5439
49.7285
50.0222
49.6031
49.5661
49.7318
49.7622
49.8412
50.0069
49.6482
49.8251
49.8884
49.9841
50.0905
50.0281
50.0165
50.0515
49.8059
49.7166
49.6825
49.7799
49.8447
49.6066
49.2901
49.4585
49.6404
49.9779
49.5822
49.5375
49.536
49.675
49.7166
49.9762
49.6116
49.6865
49.7843
49.8586
49.9728
49.9149
49.922
49.953
49.7106
49.6163
49.5725
49.6828
49.7833
49.5128
49.2148
49.4611
49.6558
49.9265
49.6292
49.5784
49.2938
49.5413
49.603
49.9905
49.6777
49.5561
49.6924
49.747
49.8832
49.8025
49.8159
49.8494
49.6285
49.5472
49.503
49.6019
49.735
49.5154
49.2472
49.5074
49.7347
49.8942
49.7298
49.6224
49.1649
49.3941
49.5341
49.9355
49.6468
49.4897
49.6361
49.6726
49.7857
49.6989
49.7163
49.7465
49.5658
49.5095
49.4729
49.5432
49.6823
49.56
49.347
49.5665
49.7919
49.805
49.7849
49.5932
49.0769
49.2792
49.4813
49.7362
49.5556
49.4541
49.5836
49.6093
49.6712
49.6115
49.6199
49.6463
49.5114
49.4814
49.457
49.5076
49.6152
49.5645
49.3908
49.5254
49.7469
49.6561
49.6428
49.5035
48.982
49.2298
49.4257
49.4661
49.5068
49.409
49.5089
49.5361
49.5405
49.5267
49.5486
49.5622
49.4507
49.4316
49.4067
49.4575
49.5404
49.5264
49.3643
49.4655
49.5966
49.5673
49.4975
49.3705
48.8946
49.2154
49.382
49.3982
49.4382
49.3337
49.4255
49.4818
49.4886
49.4134
49.4663
49.4852
49.398
49.3549
49.3298
49.4038
49.4674
49.4528
49.2883
49.4523
49.4781
49.5285
49.379
49.2426
48.8316
49.2457
49.4028
49.4336
49.3331
49.2392
49.3643
49.4489
49.4743
49.2771
49.3884
49.4187
49.348
49.2795
49.2523
49.3512
49.3989
49.3517
49.227
49.3772
49.3474
49.4786
49.2684
49.136
48.8311
49.3379
49.4351
49.4444
49.2023
49.1584
49.3251
49.3943
49.4566
49.1603
49.331
49.363
49.2945
49.2206
49.2021
49.2822
49.338
49.256
49.1495
49.2191
49.2607
49.4072
49.1884
49.0731
48.9293
49.3953
49.531
49.4421
49.0687
49.0627
49.2464
49.3145
49.4341
49.082
49.2731
49.314
49.2364
49.1673
49.1502
49.2102
49.2844
49.1685
49.0531
49.0527
49.2494
49.3498
49.1441
49.0397
48.9915
49.3389
49.6675
49.462
48.967
48.9238
49.1212
49.2563
49.3895
49.0303
49.2003
49.2593
49.1795
49.1239
49.0909
49.1466
49.2313
49.103
48.9567
48.8833
49.2414
49.3133
49.123
49.0326
49.0289
49.2273
49.6765
49.4717
49.0024
48.7636
49.0251
49.2232
49.3467
48.9971
49.1268
49.2095
49.1322
49.0962
49.0377
49.1042
49.1827
49.0426
48.8994
48.8524
49.1988
49.2695
49.137
49.047
49.082
49.136
49.4833
49.431
49.0633
48.6691
49.0036
49.1903
49.2864
48.9898
49.0887
49.1773
49.1015
48.9815
48.9896
49.0894
49.1415
48.9448
48.8824
48.9912
49.1374
49.1954
49.1708
49.0448
49.1595
49.2582
49.2277
49.2999
49.1052
48.6192
49.0226
49.1485
49.1863
48.9871
49.0876
49.1445
49.0886
48.8917
48.9778
49.0921
49.1157
48.8051
48.8753
49.1789
49.0852
49.1039
49.2074
49.0196
49.1815
49.5215
48.9793
49.0843
49.0938
48.6067
49.11
49.0725
49.0462
48.9812
49.115
49.1231
49.0858
48.9167
48.9963
49.1004
49.1025
48.7138
48.8758
49.2913
49.0558
49.0358
49.2414
48.9889
49.0949
49.664
48.7809
48.9093
49.0492
48.6389
49.2527
49.0034
48.968
48.9808
49.1744
49.1226
49.0813
49.0186
49.0207
49.104
49.1015
48.7224
48.9025
49.3149
49.0668
49.0278
49.2379
48.9356
48.9477
49.5643
48.7369
48.8425
48.9902
48.7197
49.4095
49.0919
48.9951
48.9844
49.226
49.1552
49.0668
49.0311
49.0317
49.0946
49.1012
48.7682
48.9505
49.2962
49.1124
49.0865
49.1889
48.8754
48.7951
49.3492
48.7138
48.9449
48.9308
48.8556
49.5239
49.2151
49.1268
48.9975
49.2552
49.1887
49.0376
49.0232
49.0205
49.0684
49.0886
48.8714
49.0091
49.2646
49.1592
49.196
49.1137
48.8314
48.6538
49.1425
48.7876
49.2389
48.8789
48.9779
49.4997
49.2545
49.2529
48.9948
49.2531
49.2099
48.9907
49.0269
48.9904
49.0231
49.0508
49.0093
49.0457
49.1932
49.1639
49.2636
49.0354
48.8201
48.5663
48.9787
49.062
49.5054
48.8349
48.993
49.4102
49.3547
49.5047
48.9629
49.2256
49.2469
48.9234
49.0106
48.9407
48.9498
48.974
49.0654
49.0099
49.0677
49.0593
49.2151
48.9682
48.801
48.5027
48.7895
49.1104
49.458
48.8023
48.8984
49.2198
49.3102
49.5668
48.9025
49.1228
49.2488
48.8298
48.9542
48.859
48.8417
48.8569
49.0451
49.0268
48.8998
48.8858
49.0568
48.871
48.7665
48.4837
48.5615
48.9252
49.2447
48.7574
48.7715
48.937
48.9556
49.2213
48.8058
48.9323
49.0223
48.7089
48.788
48.7234
48.7057
48.7102
48.9244
48.9299
48.6865
48.6586
48.8379
48.7877
48.6705
48.4421
48.3618
48.6642
48.9416
48.664
48.5982
48.5906
48.575
48.8402
48.6655
48.6863
48.6838
48.5673
48.4486
48.5299
48.5428
48.5541
48.6032
48.58
48.4125
48.4186
48.6011
48.6003
48.4706
48.2784
48.1734
48.4426
48.636
48.5141
48.3646
48.2419
48.2294
48.4905
48.4976
48.421
48.3605
48.4231
48.0631
48.3221
48.3781
48.4098
48.2035
48.2324
48.1426
48.2255
48.3803
48.3688
48.2501
48.0622
47.9698
48.2463
48.3735
48.3708
48.1425
47.9381
47.9412
48.1559
48.329
48.166
48.0729
48.3118
47.838
48.1606
48.2439
48.3023
47.8619
47.9536
47.9324
48.1093
48.2201
48.1992
48.0627
47.9109
47.8396
48.0347
48.1429
48.2483
47.9914
47.746
47.7574
47.8605
48.1918
47.9855
47.8879
48.2641
47.8995
48.1128
48.1711
48.2591
47.6915
47.8199
47.8347
48.0684
48.1498
48.1992
47.9633
47.8952
47.8852
47.8705
47.9805
48.1734
47.9691
47.7362
47.6658
47.7342
48.157
47.962
47.8129
48.2954
48.1444
48.1815
48.194
48.2985
47.9217
47.8284
47.929
48.1171
48.1858
48.1373
47.9616
48.0096
48.0314
47.8776
47.9919
48.1205
48.0614
47.8909
47.7631
47.825
48.2132
48.0848
47.9426
48.3999
48.3269
48.3006
48.3071
48.4188
48.1185
47.9243
48.1972
48.2664
48.3255
48.1282
48.042
48.1296
48.2942
48.0625
48.1596
48.2716
48.1983
48.1426
47.9795
47.9837
48.366
48.3014
48.2101
48.5648
48.4927
48.466
48.5097
48.6093
48.2908
48.1007
48.5398
48.5034
48.5468
48.3339
48.2842
48.3312
48.6879
48.3985
48.4369
48.5635
48.4283
48.5616
48.3795
48.3015
48.6026
48.6503
48.6162
48.7683
48.696
48.6677
48.7291
48.8474
48.5335
48.3652
48.853
48.7882
48.8223
48.6225
48.5879
48.5968
49.1395
48.8055
48.8062
48.8665
48.7393
49.0466
48.8166
48.7364
48.89
49.0759
49.0297
48.9929
48.9349
48.901
48.9567
49.1023
48.8093
48.6382
49.0706
49.0766
49.0785
48.8923
48.8656
48.868
49.4241
49.183
49.1785
49.0435
49.0012
49.4335
49.1869
49.1396
49.0983
49.3899
49.3337
49.2364
49.2123
49.1604
49.1842
49.3634
49.0856
48.8898
49.2071
49.3368
49.3301
49.1483
49.1237
49.1972
49.5672
49.4262
49.5033
49.0628
49.1897
49.6756
49.515
49.4893
49.2319
49.5554
49.5598
49.5053
49.5322
49.4407
49.4208
49.6369
49.3973
49.1456
49.2889
49.5703
49.5589
49.4028
49.3429
49.5384
49.6484
49.6255
49.7687
49.1161
49.3985
49.8158
49.7141
49.8644
49.3365
49.7118
49.7757
49.8124
49.8904
49.749
49.7002
49.931
49.8032
49.4415
49.39
49.7881
49.7779
49.7494
49.7171
49.7664
49.6646
49.8748
49.9473
49.3122
49.7102
49.8683
50.024
50.1777
49.5057
49.7635
50.037
50.1459
50.2488
50.0827
50.026
50.2336
50.2604
49.7989
49.5854
50.0045
50.0069
50.114
50.1421
49.8503
49.5887
49.9692
50.0328
49.7393
49.9443
49.8463
50.1034
50.2097
49.7156
49.9472
50.2274
50.4473
50.4983
50.3825
50.3456
50.5037
50.5461
50.2051
49.929
50.2423
50.2474
50.4757
50.5161
50.164
49.5572
50.033
50.1508
50.2078
50.1249
49.5715
49.9665
50.1488
49.9226
49.7237
49.944
50.6489
50.6415
50.58
50.5822
50.6906
50.6835
50.5229
50.3178
50.4664
50.465
50.7507
50.8307
50.4943
49.9558
50.2499
50.3309
50.6407
50.5635
49.6964
50.0264
50.251
50.2713
49.6613
49.882
50.7444
50.7332
50.6797
50.6961
50.7701
50.7728
50.6146
50.5695
50.629
50.6221
50.9132
50.9326
50.7366
50.4147
50.4781
50.5267
50.8777
50.8457
50.2748
50.2898
50.4495
50.653
50.0532
50.1776
50.7731
50.801
50.7442
50.7331
50.7753
50.8206
50.7079
50.6587
50.6901
50.6918
50.9705
50.9522
50.8187
50.6446
50.6313
50.6522
51.0389
50.8341
50.6423
50.5616
50.6239
50.9979
50.4966
50.5353
50.7761
50.8602
50.7952
50.7456
50.7442
50.866
50.7724
50.6731
50.6733
50.6797
50.9759
50.9436
50.8839
50.6918
50.6607
50.6713
51.023
50.8239
50.7785
50.6974
50.6908
51.0669
50.8119
50.7657
50.7723
50.9023
50.8285
50.75
50.692
50.909
50.8159
50.6838
50.6046
50.6019
50.9722
50.9351
50.8856
50.7153
50.6085
50.6095
50.9648
50.8409
50.7928
50.7204
50.6673
50.8391
50.9246
50.8419
50.7736
50.9279
50.854
50.7479
50.6185
50.9332
50.8609
50.6777
50.4748
50.4491
50.9921
50.9526
50.9161
50.7309
50.5025
50.4562
50.978
50.922
50.8095
50.681
50.5652
50.8806
51.0054
50.8466
50.7873
50.9576
50.8931
50.7459
50.5155
50.948
50.885
50.6419
50.2337
50.164
51.0383
51.0047
50.9938
50.7292
50.322
50.1708
51.0943
51.0967
50.8597
50.6072
50.3763
51.1564
51.0583
50.8201
50.8254
51.0339
50.9746
50.7604
50.3735
50.9941
50.8755
50.5657
49.8309
49.5846
51.0963
51.0755
51.0529
50.6823
50.0153
49.5274
51.2697
51.2753
50.9307
50.4875
50.0404
51.3723
51.0976
50.7758
50.9312
51.175
51.1231
50.8227
50.2061
51.0956
50.8938
50.4263
49.2213
48.4004
51.1708
51.1434
51.0581
50.5907
49.4927
47.8977
51.4674
51.3788
50.9776
50.2938
49.3937
51.4475
51.1283
50.749
51.1464
51.4245
51.3889
50.9624
50.023
51.2944
51.027
50.1895
48.3583
45.5393
51.3172
51.2823
51.0521
50.3618
48.746
43.8977
51.6197
51.4717
50.9694
50.0541
48.115
51.4842
51.1547
50.7353
51.4926
51.7397
51.7174
51.2183
49.9067
51.5947
51.307
50.0507
47.4929
37.6411
51.583
51.5022
51.1206
50.1662
47.7733
39.0351
-24.871
51.734
51.5349
50.9597
49.6851
45.157
51.5437
51.1856
50.7617
51.8754
51.9731
52.0113
51.5686
49.9604
51.8967
51.6188
50.3749
47.2348
32.1415
-1.90653
51.8762
51.7459
51.217
50.3286
47.3948
37.9675
4.74591
51.8438
51.5578
51.0238
49.6622
41.301
51.6487
51.2752
50.911
51.9329
52.1361
51.9747
51.606
50.0974
52.1514
51.515
50.4499
48.0696
37.8649
10.8603
52.1226
51.903
51.1916
50.2699
48.0507
38.2365
13.7038
51.8824
51.334
50.9204
50.0414
43.7725
15.5838
51.7041
51.3165
51.1841
51.5903
51.9965
51.6557
51.1879
50.0307
51.981
51.2302
50.1881
48.5072
39.0802
13.5622
52.0366
51.7028
50.8457
49.8391
48.5726
41.3812
13.6552
51.6077
50.7731
50.5179
50.0866
47.6882
51.4209
51.0798
51.1471
51.304
51.5093
51.2782
50.8926
50.0245
51.4651
50.6848
49.8365
48.9063
46.0426
51.4984
51.0551
49.9425
48.82
48.0846
42.8211
-4.58768
50.7936
49.8492
49.6428
49.6155
50.9382
50.8401
50.5457
50.6378
50.9689
51.0531
50.8993
50.5745
50.0801
50.8601
50.2622
49.595
48.9689
49.0939
50.3086
49.9426
48.8872
48.1412
47.7672
47.128
49.3489
48.6476
48.6647
48.6571
50.1095
49.9686
49.8395
49.8526
50.8126
50.733
50.6304
50.342
49.9955
50.4161
50.08
49.5438
48.8568
49.412
49.1947
48.9659
48.2342
48.0208
47.6912
48.6553
48.173
48.171
48.4756
48.3278
49.344
49.3082
49.3678
49.3412
50.7899
50.5844
50.4712
50.2313
50.0048
50.2495
50.1255
49.6142
48.961
49.7048
48.9079
48.7014
48.2973
48.2942
47.9102
49.1395
48.1228
48.737
48.9537
48.6167
49.3703
49.2785
49.3601
49.3518
50.7517
50.5504
50.4
50.3071
50.3152
50.3434
50.303
49.8781
49.3209
50.179
49.6409
49.5188
48.8102
48.6306
48.5989
49.7888
49.4146
49.687
49.7484
49.2801
49.9027
49.8248
49.877
49.8516
50.9288
50.6036
50.4675
50.7298
50.8764
50.5119
50.5241
50.3343
49.9993
50.7767
50.4406
50.1985
49.4462
49.2174
49.4983
50.5536
50.3877
50.3776
50.5394
50.1529
50.7054
50.5461
50.5242
50.5728
51.1599
50.7082
50.6007
51.0662
51.4269
50.6533
50.6628
50.7988
50.6403
51.4201
50.8525
50.582
50.0619
49.9804
50.462
51.3018
50.5428
50.615
51.0336
51.0275
51.6078
50.7572
51.1276
51.4384
51.3337
50.8068
50.7615
51.3343
51.8377
50.656
50.5379
51.1585
51.2355
51.8461
51.0652
50.8193
50.5559
50.4484
51.0162
51.9687
50.8304
50.7047
50.8176
51.7582
52.4349
51.0285
51.6641
52.4444
51.3789
50.8345
50.8964
51.4619
51.8916
50.6225
50.7102
51.5087
51.6394
52.0938
51.1377
50.8992
50.8093
50.8605
51.473
52.36
50.9872
50.6687
51.2221
52.3874
52.964
51.1111
51.9916
53.4452
208.877
259.301
227.448
261.656
271.83
285.549
304.603
329.086
179.169
175.525
186.072
173.854
165.089
202.987
231.824
183.41
190.276
225.169
276.759
182.073
220.135
334.198
307.846
263.449
279.451
266.907
190.417
159.873
163.845
196.848
177.533
197.464
225.575
180.844
165.142
191.593
155.404
175.36
212.428
160.941
180.94
226.469
245.864
196.29
218.666
252.195
235.745
222.394
200.442
208.522
206.717
177.398
196.883
155.079
146.216
174.723
134.101
140.318
127.367
139.556
152.665
131.995
139.105
170.433
194.833
150.923
192.648
222.568
218.26
232.98
158.066
122.291
109.901
98.1529
97.0671
106.042
113.971
98.3975
105.729
121.104
135.814
111.206
111.546
152.974
209.048
135.77
188.251
230.474
93.1776
95.6064
102.214
101.23
103.607
101.386
104.279
114.578
163.613
112.914
239.406
204.649
231.695
178.555
133.31
164.751
230.906
249.726
175.035
172.273
191.708
264.058
190.817
122.563
104.897
137.621
128.364
147.491
107.482
104.292
112.208
127.087
259.037
215.52
247.235
181.513
188.782
155.155
178.936
233.576
168.739
125.242
105.281
115.474
98.7523
97.8363
98.7307
208.518
205.476
158.635
149.803
155.401
126.07
122.42
94.6422
94.6952
91.1488
200.28
195.431
145.992
157.47
129.689
97.5887
86.5788
88.8456
86.0739
88.2637
86.585
89.6383
88.2959
88.1606
147.225
106.252
121.868
94.1268
100.846
96.7647
98.0481
117.234
89.8275
88.7749
95.7532
94.6829
87.515
88.1427
87.8688
95.5331
98.3769
93.2403
91.2155
92.0532
93.7954
94.2581
85.9709
117.632
92.5863
104.659
88.765
81.4991
82.1627
122.034
139.11
96.8859
93.2227
107.268
140.04
109.903
92.3748
87.44
90.8527
93.4223
92.013
86.0082
85.2148
83.2379
80.4332
140.159
117.513
129.939
106.995
112.36
94.2911
104.116
130.876
109.859
87.4855
92.1792
91.1734
85.3312
87.1468
86.7499
116.163
119.25
104.706
102.233
103.609
87.7211
86.302
84.4672
82.3791
81.9039
114.62
97.6781
93.3475
97.0631
84.3756
85.3202
81.966
85.6133
86.1556
85.9587
83.521
81.3179
82.8384
82.6934
84.9669
86.6254
84.7576
82.9422
80.9525
80.4022
80.3901
82.1616
86.1407
83.1767
83.2512
83.7452
82.5756
81.2619
81.7884
87.6855
87.0097
84.2178
85.0288
83.4182
80.0368
80.5162
77.4279
79.7388
77.6165
77.6591
76.7744
76.0239
76.0177
82.341
90.7164
78.7822
78.0985
81.6804
94.3634
84.6589
84.9836
80.3791
82.4568
81.7076
79.7751
78.763
79.3949
79.1703
77.3254
97.3589
86.9019
94.6526
84.1348
86.4584
81.6037
85.9033
97.5463
87.7016
84.2846
83.4975
83.1089
81.5168
79.9443
79.713
95.2076
95.0879
85.7826
85.0086
85.1978
78.8141
78.6309
77.4792
76.9143
76.3754
89.2763
80.0018
79.7958
81.3511
76.6426
79.016
76.9446
78.6095
80.0936
80.0913
77.4547
76.8217
78.0955
78.1826
79.4528
78.3817
79.0491
77.8446
77.3845
76.7276
77.1579
77.1321
80.6364
78.5428
79.4786
80.0884
78.5462
77.7644
78.5571
82.4931
80.1115
78.3041
79.5959
78.076
77.4055
75.1936
73.3589
75.1491
75.0714
74.8794
73.6213
73.758
73.6353
75.9676
75.9541
73.3273
74.0679
70.4611
76.5521
68.6628
76.1061
72.7363
75.9593
75.5947
74.8452
73.4166
73.5021
72.6284
73.0037
77.4307
77.2242
78.9552
68.7601
68.5378
72.0516
71.2378
79.3262
71.2571
76.9726
76.907
76.7095
72.5485
74.4111
74.1503
78.0532
77.3894
72.5415
72.1438
71.2114
75.4998
74.7466
74.5337
74.1387
73.2561
75.113
73.8433
70.9383
70.7411
71.6215
75.5771
74.5176
75.4511
76.7751
76.7705
75.3393
74.2811
76.0238
75.7969
74.5397
74.6893
74.7545
72.3377
71.9687
72.3085
72.8295
72.1083
76.9156
75.7009
76.1336
76.3419
75.3983
74.8177
74.4972
76.7962
76.0334
74.4169
74.2888
74.2215
73.1804
71.7121
70.0883
71.6351
72.0825
72.2267
67.8322
70.1474
70.0613
70.092
62.7096
60.2044
60.3856
52.4787
59.0586
51.8041
70.5905
69.0457
71.8291
70.9008
71.5555
69.9186
70.609
69.4435
69.8062
57.3146
65.0279
62.8053
51.7905
51.9546
55.5037
53.1073
62.8689
52.569
69.7896
71.7215
71.3057
68.005
68.4478
67.9018
66.3021
62.8996
55.8417
58.4288
56.5931
72.4235
71.4253
70.3808
69.394
68.756
65.1485
69.3947
62.8763
59.8163
66.4874
73.4671
72.0952
73.1495
75.6091
75.127
74.0457
72.0538
75.7335
74.7822
69.883
69.3574
70.354
66.4819
68.7169
65.4676
67.7145
67.0154
74.9243
74.5818
73.9892
73.2841
73.7402
72.9766
72.2219
71.5861
72.0616
71.1732
69.1449
70.3404
66.8889
68.2163
65.4691
57.3424
67.3965
64.0628
52.2385
61.8202
53.6709
52.2533
51.6254
51.5053
51.3494
51.8887
51.8048
51.7824
67.6733
66.2679
69.4927
68.181
68.1574
66.6954
67.9323
66.9537
66.9273
51.7888
51.562
51.5026
51.7954
51.8948
51.4886
51.5763
51.4689
51.5944
66.2294
65.4652
65.1628
64.5785
63.4542
63.2259
51.6623
52.3988
52.5253
51.4823
51.5873
51.2682
51.4021
51.5229
51.6695
51.5573
51.5507
51.4977
51.4685
51.4969
65.7935
65.608
63.3425
63.0388
63.0715
56.8164
61.5684
57.4059
53.0684
51.4193
55.174
52.0589
51.7117
53.1239
51.8434
51.4584
51.5095
51.4996
51.5155
69.8011
66.1391
70.8577
76.2044
74.8276
70.7478
69.6208
75.9966
75.2912
64.4589
61.1733
60.8081
58.5111
54.849
57.5965
54.2131
53.283
74.6498
75.1907
71.1608
70.6542
75.4203
70.2437
69.4643
65.7598
67.4874
63.2303
61.4794
63.6012
59.2495
58.856
51.7976
51.5525
53.7874
50.9737
51.2863
50.7737
51.0547
51.3711
51.6176
51.3074
51.2709
51.4435
51.545
51.4171
64.7228
61.6328
64.0788
65.6544
66.3568
58.6844
56.153
63.4865
66.6061
51.5436
51.3751
51.4398
51.4003
51.3789
51.356
51.4042
51.4998
51.5539
51.4032
51.4955
51.5333
51.5056
51.4983
51.4934
63.0108
62.184
61.9028
60.9177
60.5891
60.3684
51.5647
51.458
51.5797
51.4625
51.4831
51.4198
51.4548
51.5039
51.4896
51.5098
51.5005
51.4887
51.472
51.4913
61.1956
61.3175
59.8572
59.8551
60.1633
51.4289
51.4916
51.3944
51.2595
51.4974
51.2214
51.5116
51.4779
51.4593
51.507
51.4642
51.4924
51.4777
51.5095
61.9219
59.0241
67.8797
73.5997
75.7583
58.4488
63.133
66.0659
72.1998
51.4751
54.9029
53.0199
52.6058
51.6064
53.3225
52.8568
51.4404
51.6975
51.4414
51.4935
51.4703
51.4986
76.2869
76.7376
70.0299
67.4932
76.401
64.6729
62.1257
58.5916
59.532
56.1217
56.7877
56.4151
55.3753
50.9722
50.9168
51.0195
50.9629
50.9773
50.8335
50.7786
50.7995
51.1003
51.2508
50.9698
50.9464
51.0687
51.2884
51.1311
51.7451
50.6463
50.7895
55.7151
63.2379
50.6138
50.5612
50.5516
51.4691
51.3167
51.3003
51.3406
51.1656
51.194
51.167
51.2108
51.3249
51.4608
51.1816
51.412
51.4766
51.4805
51.4579
51.4727
55.4972
57.1468
57.4528
50.9375
53.4215
53.8206
51.4455
51.3552
51.4287
51.2764
51.4099
51.2657
51.4032
51.4754
51.4629
51.4807
51.4481
51.4703
51.4573
51.4772
58.6177
58.9426
56.8145
57.5523
57.8027
51.4586
51.353
51.4673
51.3676
51.4579
51.3879
51.4758
51.4856
51.4385
51.5166
51.4675
51.4957
51.5155
51.5566
57.6472
56.9116
58.7612
57.7557
61.834
55.1596
57.5732
54.3504
54.6872
51.6351
52.1988
52.3004
50.9941
51.4069
51.401
51.5932
51.4538
51.8835
51.5158
51.4812
51.4756
51.5363
67.8742
55.4032
56.3722
55.8251
51.1266
51.6559
51.8759
55.1366
54.0138
52.1662
53.4545
52.2566
52.2526
50.6794
50.6268
50.7078
50.6228
50.6805
50.628
50.5821
50.5911
50.808
50.9246
50.7058
50.6872
50.8026
50.9724
50.839
50.8118
50.8284
50.726
50.6148
50.1481
50.5814
50.5881
50.6677
50.7657
51.0196
51.0152
51.0431
50.8481
50.9045
50.8785
50.9032
51.0173
50.845
50.5759
51.7917
51.4546
50.8529
50.8711
50.4552
51.3832
51.1441
51.3703
50.9582
51.2456
50.9877
51.2496
51.4735
51.4677
51.4795
51.4288
51.4626
51.4466
51.4691
55.9353
56.4883
50.7949
51.2244
52.4982
51.4689
51.4418
51.6563
51.2065
51.3711
51.3235
51.6868
51.5164
51.5421
51.5481
51.5054
51.5111
51.5562
51.5488
55.3943
51.6977
54.0667
52.1169
50.7744
51.2425
49.4467
49.9351
49.2578
51.1879
50.7226
51.049
50.1414
50.9414
49.9951
50.6232
51.6534
50.5289
49.3929
49.5723
49.6899
49.1599
49.2752
49.2304
51.6604
50.5606
49.5836
50.0031
49.47
50.0362
50.5867
50.5498
50.5623
50.5361
50.5143
50.497
50.4913
50.4559
50.5881
50.6941
50.5379
50.5147
50.5981
50.7214
50.6184
50.7209
50.6627
50.5932
50.6075
50.6911
50.5448
50.5519
50.5811
50.5756
50.7832
50.7487
50.7818
50.5978
50.676
50.6133
50.6787
50.7489
50.6778
50.8329
50.5127
50.4994
50.7733
50.653
50.659
50.8103
51.0678
50.6517
50.6367
50.3425
49.216
49.3412
50.1922
50.0699
49.7062
51.2493
51.0797
50.7638
50.5288
50.8805
49.0777
49.3864
48.5346
49.2886
49.3207
49.2486
49.1927
49.4111
49.3881
50.6626
49.5579
50.3185
49.9715
50.4739
49.7044
50.2211
50.8771
49.3243
49.3546
49.3706
49.3493
49.4204
49.4469
49.4441
49.3013
49.2587
49.3414
49.3848
49.4177
49.6464
50.5001
50.4419
50.4464
50.4464
50.408
50.3948
50.3961
50.3546
50.4538
50.5141
50.4257
50.39
50.4377
50.5312
50.4557
50.6305
50.5891
50.4949
50.5522
50.4927
50.4634
50.4298
50.5012
50.4285
50.5713
50.4945
50.5707
50.433
50.4786
50.4143
50.4691
50.5821
50.4922
50.71
50.7229
50.711
50.6456
50.7319
50.7679
50.5369
50.5003
50.5127
50.4666
50.5194
50.4763
50.2114
50.5126
50.4501
50.3269
50.5627
50.7164
50.4897
50.5838
50.6139
49.9207
50.1186
49.5694
49.6002
49.31
49.8484
49.6553
49.7661
49.3183
50.4105
49.9229
50.2148
50.2102
50.4015
50.0687
50.2531
50.6278
49.4152
49.4887
49.5362
49.5299
49.5497
49.6253
49.6369
49.6796
49.5953
49.7347
49.8518
49.724
49.9616
50.3779
50.3099
50.3364
50.3375
50.293
50.2762
50.2725
50.2312
50.3304
50.3686
50.305
50.2709
50.306
50.3855
50.3221
50.5219
50.4177
50.3584
50.4386
50.3487
50.3438
50.2771
50.3423
50.2425
50.402
50.3294
50.3773
50.3123
50.3343
50.2535
50.3019
50.4117
50.3356
50.5701
50.6792
50.7641
50.4688
50.554
50.5693
50.3759
50.4274
50.3484
50.2697
50.3407
50.3813
50.334
50.3888
50.3727
50.3177
50.506
50.5447
50.3684
50.4397
50.4829
50.1857
50.2344
49.657
49.9395
49.473
49.9535
49.6837
50.1406
49.6552
50.395
50.1405
50.291
50.2224
50.3743
50.1696
50.2994
50.5003
49.589
49.7357
49.7346
49.7454
49.8011
49.8528
49.8635
49.9492
49.8455
49.9391
50.0219
49.9588
50.1171
50.2395
50.1703
50.218
50.2073
50.1743
50.1642
50.1449
50.1227
50.2099
50.244
50.1836
50.1563
50.1837
50.2602
50.1993
50.3066
50.2052
50.1932
50.2389
50.1261
50.1731
50.1171
50.143
50.0223
50.2693
50.1875
50.2361
50.1964
50.2073
50.126
50.1702
50.264
50.2057
50.3341
50.3627
50.355
50.2118
50.1826
50.2054
50.1593
50.2486
50.2033
50.0702
50.1735
50.3119
50.2726
50.2067
50.2018
50.1912
50.3741
50.412
50.2071
50.3261
50.3368
50.2549
50.2233
49.7808
50.2893
49.8092
50.0952
49.8476
50.3357
49.9082
50.3332
50.1757
50.2781
50.1586
50.2827
50.1646
50.249
50.3557
49.8698
49.9557
49.9544
49.9555
50.0208
50.0223
50.0299
50.0752
50.0336
50.0698
50.1122
50.0878
50.1516
50.1004
50.0286
50.1141
50.0865
50.0747
50.0664
50.0282
50.0292
50.1061
50.1254
50.0728
50.0588
50.072
50.1393
50.0834
50.1167
50.0367
50.0463
50.0569
49.9484
50.0135
49.9802
49.9872
49.8945
50.1467
50.0715
50.1123
50.0797
50.0905
50.0188
50.0582
50.1529
50.1093
50.1097
50.1318
50.1023
50.0093
50.0448
49.9985
50.0029
50.1123
50.1077
49.9607
50.0718
50.0723
50.1074
49.9597
49.9254
49.9893
50.2902
50.2748
50.11
50.2611
50.2251
50.1514
50.0528
49.8385
50.2624
49.9634
49.963
49.7835
50.1631
49.9827
50.2328
50.149
50.2145
50.0952
50.1935
50.1314
50.1874
50.2361
50.0338
50.0863
50.0606
50.0686
50.103
50.0796
50.0895
50.1255
50.1048
50.0902
50.1269
50.1067
50.146
49.9608
49.8941
50.0147
49.9683
49.9815
49.9538
49.9091
49.9256
50.0099
50.0233
49.9676
49.9587
49.9765
50.0321
49.9837
49.96
49.8917
49.9155
49.9268
49.8372
49.8837
49.8546
49.8671
49.7818
50.0362
49.9675
50.0078
49.9699
49.9851
49.9205
49.9588
50.0698
50.0337
49.904
49.819
49.8476
49.8202
49.6803
49.7136
49.939
50.0443
50.0471
49.9293
50.0272
49.7584
49.8847
49.6313
49.6049
49.8546
50.2279
50.181
50.0392
50.1953
50.1287
49.948
49.8309
49.7598
50.0922
49.9756
49.7641
49.749
50.043
49.9281
50.1575
50.1091
50.158
50.0283
50.1177
50.0782
50.1246
50.1448
50.1016
50.0679
50.084
50.0883
50.0769
50.0786
50.0802
50.1126
50.0908
50.054
50.0873
50.0675
50.0939
49.8283
49.764
49.8901
49.8513
49.8671
49.829
49.7939
49.8093
49.9076
49.9328
49.8579
49.8602
49.8912
49.9383
49.898
49.8353
49.7782
49.7924
49.8111
49.7295
49.7699
49.7294
49.7599
49.6834
49.9365
49.8775
49.912
49.8813
49.8929
49.8447
49.8698
49.9978
49.9633
49.7651
49.7241
49.6795
49.7116
49.6645
49.6432
49.9355
50.0195
50.0027
49.9538
50.0144
49.537
49.7683
49.5853
49.556
49.6247
50.1515
50.0716
49.9856
50.1121
50.0154
49.725
49.6548
49.6761
49.9597
49.8553
49.5941
49.5904
49.8735
49.805
50.0655
50.0362
50.075
49.9203
49.9982
49.9851
50.02
50.0307
50.0337
50.0077
50.055
50.0507
49.9701
50.0192
50.0127
50.0474
50.0273
49.9714
50.0025
49.9822
50.0052
49.7031
49.6476
49.7696
49.7367
49.7523
49.7132
49.6798
49.6979
49.8144
49.8489
49.7573
49.7682
49.8075
49.8615
49.8277
49.7215
49.6645
49.67
49.7052
49.6426
49.6633
49.6189
49.6488
49.6055
49.8542
49.8066
49.8298
49.8122
49.821
49.7712
49.7956
49.9259
49.8917
49.656
49.5502
49.5979
49.6173
49.5559
49.5769
49.9623
50.013
49.9544
49.97
50.0194
49.604
49.5441
49.6038
49.6263
49.5453
50.0913
49.9674
49.9861
50.0875
49.9248
49.6444
49.6646
49.5805
49.8269
49.7636
49.6594
49.6116
49.8013
49.7173
49.9303
49.931
49.9618
49.7987
49.8738
49.88
49.9084
49.9256
49.9576
49.8758
49.9733
49.961
49.8565
49.9175
49.9065
49.9531
49.93
49.871
49.9062
49.878
49.9026
49.5992
49.5588
49.6613
49.6262
49.6477
49.6161
49.5782
49.604
49.7216
49.7654
49.6678
49.6781
49.7255
49.7953
49.7648
49.6228
49.5965
49.5777
49.597
49.5665
49.5778
49.5486
49.5563
49.5301
49.7938
49.7317
49.7661
49.7577
49.7709
49.7059
49.7494
49.8585
49.8367
49.5968
49.576
49.5749
49.6065
49.6277
49.6036
49.9633
50.0287
49.9063
49.9547
50.0194
49.6308
49.5754
49.6659
49.651
49.6249
50.0858
49.8819
49.9796
50.0595
49.8371
49.6687
49.6659
49.6394
49.7471
49.6617
49.6718
49.6475
49.6729
49.6021
49.8234
49.8304
49.8552
49.7071
49.7809
49.7824
49.8037
49.8388
49.7994
49.7436
49.8596
49.8456
49.7506
49.8049
49.7917
49.8538
49.8206
49.7647
49.8012
49.7705
49.7984
49.5274
49.505
49.5772
49.5375
49.5666
49.5456
49.5065
49.5372
49.6375
49.687
49.5949
49.6035
49.6511
49.7347
49.7037
49.5937
49.6052
49.5267
49.531
49.5004
49.5262
49.5088
49.5183
49.4788
49.751
49.6925
49.7442
49.7107
49.7268
49.6831
49.7358
49.8166
49.7921
49.6402
49.6905
49.6454
49.683
49.744
49.6805
49.9427
49.9838
49.8581
49.8904
49.9129
49.6896
49.6746
49.7774
49.7259
49.7069
49.9919
49.7809
49.8696
49.8808
49.7343
49.6638
49.6471
49.6154
49.6199
49.5611
49.6011
49.536
49.5973
49.5344
49.7337
49.7345
49.7522
49.6417
49.6892
49.685
49.7052
49.7315
49.6891
49.6374
49.7528
49.7368
49.6528
49.689
49.6832
49.7486
49.7204
49.665
49.6944
49.6709
49.6961
49.4847
49.4648
49.5193
49.4821
49.5128
49.4972
49.4593
49.4928
49.5741
49.6168
49.5393
49.5467
49.5843
49.6691
49.6329
49.6195
49.6242
49.4888
49.515
49.4636
49.4961
49.4663
49.5146
49.4503
49.6973
49.6733
49.7201
49.6497
49.665
49.6529
49.6902
49.7535
49.7038
49.7139
49.7672
49.6896
49.7278
49.7616
49.6769
49.816
49.8184
49.7309
49.7147
49.7132
49.7099
49.7007
49.7311
49.6481
49.6593
49.7193
49.6556
49.5808
49.5495
49.5807
49.6272
49.6128
49.4602
49.5847
49.5124
49.5294
49.4147
49.5649
49.4985
49.641
49.636
49.6591
49.5735
49.597
49.5905
49.6174
49.6084
49.5944
49.5602
49.6325
49.6301
49.5712
49.5867
49.5895
49.6432
49.6257
49.5843
49.601
49.5911
49.6026
49.4448
49.4214