/*--------------------------------*- C++ -*----------------------------------*\
| =========                 |                                                 |
| \\      /  F ield         | OpenFOAM: The Open Source CFD Toolbox           |
|  \\    /   O peration     | Version:  5.x                                   |
|   \\  /    A nd           | Web:      www.OpenFOAM.org                      |
|    \\/     M anipulation  |                                                 |
\*---------------------------------------------------------------------------*/
FoamFile
{
    version     2.0;
    format      ascii;
    class       surfaceScalarField;
    location    "5";
    object      phi;
}
// * * * * * * * * * * * * * * * * * * * * * * * * * * * * * * * * * * * * * //

dimensions      [0 3 -1 0 0 0 0];

internalField   nonuniform List<scalar> 
29271
(
-7.99691e-06
1.2678e-07
4.00308e-06
4.01501e-06
-1.81969e-05
-6.02207e-06
1.93191e-06
2.22895e-05
-5.87405e-05
-1.57743e-05
1.27642e-05
-8.08262e-06
1.63381e-05
5.3495e-05
-4.84696e-05
-1.8813e-05
2.89741e-06
-1.0515e-05
3.2786e-05
4.21142e-05
-2.28834e-05
-1.342e-06
-6.40374e-07
7.78546e-06
1.11973e-05
5.88298e-06
-4.04751e-05
7.61754e-07
3.70175e-06
-2.52862e-06
6.62857e-06
3.19116e-05
-4.72517e-05
-1.62062e-05
1.80807e-06
2.12832e-06
1.72022e-05
4.23193e-05
-4.83874e-05
-2.08497e-05
2.67304e-06
-9.9422e-06
1.10613e-05
6.54449e-05
-3.70832e-05
-7.8689e-06
6.90906e-06
-7.93483e-06
8.45784e-06
3.752e-05
-2.57149e-05
-3.74586e-06
2.39624e-06
2.59249e-05
1.2879e-06
-7.97229e-06
3.18498e-06
1.25139e-06
3.68602e-06
-5.11377e-05
-7.03438e-06
-7.97036e-06
3.78289e-06
5.33423e-06
5.70253e-05
-3.97422e-05
-1.51366e-05
-5.17757e-06
-4.25076e-06
8.69962e-06
5.56075e-05
-6.6149e-05
-1.50263e-05
2.13439e-05
-2.60438e-05
1.99277e-05
6.59475e-05
-5.59106e-05
-1.5948e-05
1.84986e-05
-1.70099e-05
2.13728e-05
4.89972e-05
-3.72528e-05
-1.33808e-06
-2.56933e-06
3.10272e-06
2.26156e-05
1.54419e-05
-5.05172e-05
-1.18411e-05
9.1719e-06
4.18515e-06
5.86161e-05
-9.61491e-06
-5.36415e-05
5.94166e-06
-1.25412e-05
-1.87803e-05
1.04603e-05
6.8561e-05
-5.42489e-05
-2.80202e-05
2.02934e-05
-2.02105e-05
2.13981e-05
6.07882e-05
-5.23919e-05
-1.67943e-05
9.77467e-06
5.72782e-05
-1.58329e-05
1.79662e-05
-7.91897e-06
-1.29747e-06
5.67608e-06
3.80402e-06
-4.35428e-05
1.3727e-05
-2.17755e-05
5.4255e-05
-2.72677e-06
-5.8289e-05
6.57277e-06
-1.18843e-05
1.31914e-06
7.12408e-05
-8.95935e-06
-1.44194e-05
-9.00451e-06
1.65205e-05
6.92392e-06
-2.92843e-06
2.76564e-07
1.39332e-06
1.27652e-06
-2.39488e-05
7.98986e-06
2.05056e-06
1.39281e-05
-9.35888e-06
-1.0131e-05
-6.30021e-05
-2.61688e-06
6.00035e-06
7.91085e-05
-6.58188e-06
-3.08505e-05
4.74763e-06
-6.51482e-06
5.94356e-06
3.3256e-05
-4.83689e-06
-7.19138e-07
-9.96785e-07
2.15359e-06
8.67039e-07
3.53218e-06
-6.41792e-06
1.88153e-06
-2.58702e-05
-2.45669e-06
4.28072e-06
2.85825e-05
-4.124e-05
3.30723e-05
0.000234338
-3.51052e-05
-5.77115e-05
-4.02872e-05
-5.90504e-05
-5.12485e-06
-6.6363e-06
-1.1506e-05
-6.90581e-06
1.93316e-06
-7.71922e-07
-1.71953e-06
-3.28469e-06
-4.52625e-05
5.17742e-05
0.000201926
-8.13268e-05
-3.05552e-05
-6.15987e-05
-2.69635e-05
-1.77146e-05
-1.36845e-05
-9.91505e-06
-7.91897e-06
-1.07403e-05
4.09799e-05
0.000129943
-9.02824e-06
-8.12314e-06
-6.55402e-06
-6.07787e-06
-1.34368e-05
-8.54242e-06
-1.11703e-05
-4.171e-05
-2.8711e-05
-3.10988e-05
-4.09925e-05
-2.10736e-05
-1.85256e-06
2.46338e-06
9.83111e-06
-1.81178e-06
-1.65289e-06
2.92553e-06
5.2461e-07
-9.39449e-06
-6.95121e-05
-4.36452e-06
3.82241e-06
3.33145e-06
7.61172e-05
-4.55129e-05
5.3289e-05
0.000288624
-7.3261e-05
-8.77906e-05
-6.49158e-05
-7.30787e-05
6.34906e-06
6.32838e-06
1.13518e-05
1.16892e-05
-5.66798e-05
5.07505e-05
0.000202622
-5.8902e-05
-3.01709e-05
-4.66199e-05
-5.47381e-05
-8.5978e-06
2.90454e-06
0.000191787
-6.09675e-06
-8.84674e-06
-5.48627e-06
3.45817e-06
5.08235e-06
4.9641e-06
-4.93257e-05
-4.80991e-05
-5.9519e-05
-3.79247e-05
-1.44334e-05
-2.41385e-06
-4.29479e-06
3.25081e-06
9.29344e-06
-6.11487e-05
-8.84114e-07
3.15641e-06
-6.99529e-07
5.87728e-05
8.03158e-07
-3.83933e-05
2.95351e-06
0.000307914
1.18392e-06
5.45149e-06
5.06212e-06
7.37017e-06
4.92328e-06
4.98828e-06
5.33475e-06
-7.89319e-05
-5.70594e-05
-7.07865e-05
-4.67214e-05
-1.72185e-05
1.68452e-06
0.000304703
-6.10669e-06
-1.22658e-05
-4.73831e-06
3.14874e-06
2.34226e-06
2.56772e-06
-5.86067e-05
-4.8299e-05
-7.26871e-05
-8.21675e-05
-6.51163e-05
-7.9112e-06
5.67762e-07
5.81457e-05
-1.1144e-06
-1.12826e-06
2.76168e-06
-4.3818e-07
-6.40351e-05
7.10738e-06
-1.09634e-05
7.08389e-05
-7.73958e-05
1.09515e-05
-1.146e-05
5.30279e-06
7.42861e-05
-1.7829e-06
-8.51669e-07
2.79552e-06
-1.35195e-07
1.52021e-07
1.77399e-07
5.56016e-07
-8.90819e-07
-4.16416e-06
1.1235e-06
1.63172e-06
1.40742e-06
-1.89983e-06
-7.7365e-06
-7.79767e-05
2.52611e-06
1.14187e-05
7.36682e-05
-5.85047e-06
-3.59579e-05
1.07103e-05
-6.51466e-06
9.49362e-06
2.81191e-05
1.77021e-06
-2.63018e-07
-5.62236e-07
5.29908e-07
-2.70124e-06
1.22637e-06
-8.00928e-06
-1.38037e-05
-3.84484e-05
9.01194e-06
4.94475e-06
4.63047e-05
-3.22623e-05
1.90945e-05
0.000284828
-9.37531e-06
-7.16015e-06
-7.30392e-06
-2.6359e-06
-2.73313e-06
-4.92051e-06
-1.75881e-06
-1.4343e-06
-4.41036e-05
1.75805e-05
0.000204207
-5.30098e-06
-1.91592e-06
-1.07243e-06
2.69376e-07
-1.91468e-06
1.92525e-05
7.46573e-05
-4.31824e-07
-4.74419e-07
-3.95076e-08
-3.09333e-07
-2.27324e-06
-1.2858e-06
-1.34163e-06
-1.71998e-06
-2.56835e-07
2.93456e-08
6.03377e-08
7.91101e-08
-1.76416e-06
1.94788e-06
-3.1871e-07
-4.97755e-06
-8.08117e-05
-1.35459e-06
2.36964e-06
2.03675e-07
8.45705e-05
-2.84308e-05
3.55976e-05
0.0002674
6.71856e-06
6.28371e-06
9.66086e-06
1.04879e-05
-2.4956e-05
3.25966e-05
0.000184131
-8.1712e-07
9.55033e-06
0.000143107
1.2627e-07
-1.87579e-07
3.26322e-06
8.13954e-06
1.47541e-05
8.14742e-06
-2.44356e-06
-1.2462e-06
-1.39072e-06
3.52962e-06
7.33737e-07
-5.51253e-05
1.04719e-07
2.60397e-06
1.71448e-07
4.93238e-05
2.92144e-06
-3.09032e-05
2.11449e-06
0.00035184
-6.56172e-08
4.61947e-06
3.79731e-06
5.36194e-06
2.20158e-06
2.84563e-06
1.70007e-06
-1.02142e-05
9.10843e-07
0.000328276
-3.90952e-06
-5.15922e-06
-3.30314e-06
-1.58919e-06
1.68625e-06
-3.01328e-07
-5.15113e-05
-2.03335e-06
6.65102e-06
4.62298e-05
8.4489e-07
-1.23651e-06
-1.44598e-08
3.98938e-07
-7.87847e-05
5.58162e-06
-9.05057e-06
8.43685e-05
-7.31163e-05
9.08349e-06
-5.31294e-06
9.8882e-07
6.92677e-05
-4.04567e-07
-8.28918e-07
-2.87045e-06
4.10984e-06
1.12336e-06
-6.16144e-08
8.73221e-09
-1.08916e-06
-6.41892e-07
-1.30471e-07
1.18775e-06
-4.12759e-07
1.486e-06
-3.84804e-06
-6.90268e-05
3.5427e-06
4.24145e-06
6.36047e-05
2.7858e-07
-2.02889e-05
2.49982e-06
1.59523e-07
2.60546e-06
1.47456e-05
2.81866e-06
-1.234e-07
1.32891e-08
-7.47559e-09
-2.53362e-06
-1.67451e-07
-4.16035e-06
-7.14948e-06
-4.98979e-05
9.16854e-06
3.4876e-06
4.85516e-05
-2.28409e-05
1.92089e-05
0.000325281
-6.4815e-06
-5.93129e-06
-3.99446e-06
-1.71974e-06
-4.69019e-06
-6.68777e-06
-2.80969e-06
-4.50629e-06
-2.13685e-05
1.34562e-05
0.000198685
-5.0393e-06
-6.12272e-07
-3.44224e-06
-3.13558e-07
3.5722e-07
8.89049e-06
4.05372e-05
3.35546e-07
3.99645e-07
4.48311e-07
4.45395e-07
5.46943e-07
5.2891e-07
7.99136e-07
1.19385e-06
-4.01204e-08
3.05514e-07
-1.09375e-06
5.3442e-07
-6.39837e-07
6.68624e-07
-6.6078e-07
-3.09447e-06
-8.97827e-05
-1.70036e-06
2.55533e-06
4.35432e-07
9.15868e-05
-1.37354e-05
2.11479e-05
0.000261241
3.20297e-06
3.774e-06
4.40191e-06
6.57727e-06
-6.61433e-06
1.03343e-05
0.000180132
6.43817e-07
7.75659e-06
0.00011909
1.64801e-06
1.68753e-06
3.03399e-06
2.71323e-06
6.64771e-06
2.16202e-06
-2.65748e-07
-7.40711e-07
-6.31699e-07
8.03105e-07
1.47887e-06
-4.66659e-05
7.48958e-07
8.81611e-07
-2.50037e-06
4.44046e-05
3.13111e-06
-1.95333e-05
8.9777e-07
0.000381327
-5.94429e-07
3.52243e-06
3.23234e-06
3.46014e-06
-7.16567e-07
1.32452e-06
6.76719e-08
-6.1204e-06
-2.74253e-06
0.000345056
-3.31248e-06
-8.70947e-07
-2.29718e-06
-5.04048e-06
-1.83734e-06
-3.75719e-06
-4.83968e-05
-5.8067e-07
5.78726e-06
4.48264e-05
-1.69904e-06
3.29203e-07
-2.09093e-07
1.59997e-06
-9.01326e-05
5.0365e-06
-8.24141e-06
9.42352e-05
-6.62832e-05
6.33153e-06
-1.55716e-06
-4.96215e-07
5.92625e-05
-7.98999e-06
2.79612e-06
-2.75569e-06
7.9508e-06
8.30987e-07
-4.77475e-07
-1.7162e-08
-3.58652e-07
1.28436e-06
-1.58823e-06
1.77081e-06
-1.47767e-06
1.27568e-06
-1.11228e-07
-6.14887e-05
-1.38902e-06
2.75521e-06
5.89581e-05
2.39881e-06
-1.00916e-05
-7.66395e-09
2.91641e-06
-9.2322e-07
5.70724e-06
1.80709e-06
-3.00387e-07
4.06622e-07
-3.0173e-07
-4.61451e-07
-1.15015e-06
3.49349e-07
-2.59504e-07
-4.9289e-05
1.21051e-06
-5.7239e-06
5.37125e-05
-8.66111e-06
1.2881e-05
0.000348404
-5.05672e-06
-5.39467e-06
-5.29774e-06
-5.16931e-06
-1.08815e-06
-6.49847e-06
9.45058e-07
2.16937e-07
4.70436e-06
1.46398e-05
0.000178933
-7.12779e-06
-8.35042e-07
2.2026e-08
-3.12068e-07
1.15033e-06
-1.70699e-06
3.6578e-05
7.63899e-07
8.75152e-07
1.53491e-06
1.41546e-06
1.39092e-06
1.59342e-06
1.64641e-06
9.12675e-07
2.52658e-07
1.84775e-08
-7.98878e-08
6.06211e-07
-3.65716e-07
1.31211e-07
-4.3742e-07
-1.09815e-06
-8.95515e-05
2.37678e-06
6.3886e-06
6.30172e-07
8.12541e-05
7.51334e-06
8.4802e-06
0.000268642
-3.92675e-06
-1.54065e-06
-5.97687e-06
9.30176e-07
1.7323e-05
1.47448e-08
0.000184947
2.66172e-06
3.12138e-07
0.000124146
1.91288e-06
3.43486e-06
2.92954e-06
-1.93439e-06
1.53068e-06
-2.87126e-07
-4.59708e-06
4.55999e-07
2.1058e-06
-3.3209e-06
8.0179e-06
-4.32164e-05
1.83521e-06
8.42031e-07
-5.17007e-06
3.97405e-05
5.96875e-06
-2.4978e-07
-1.38431e-07
0.000388101
-2.12442e-06
1.27052e-06
7.84866e-07
6.46976e-07
-1.21324e-09
2.00256e-07
1.31759e-06
6.92387e-07
-5.06641e-06
0.000353979
-2.62144e-07
3.60137e-06
2.49032e-07
-3.72823e-06
-2.40712e-06
-2.23674e-06
-4.56874e-05
1.35639e-06
1.06668e-07
4.52289e-05
-1.17498e-06
1.0925e-06
-8.38814e-07
9.30004e-07
-9.83239e-05
3.68901e-06
-5.85162e-06
0.000100348
-5.2935e-05
1.36925e-06
4.0047e-06
-4.87495e-07
4.29821e-05
-7.5771e-06
2.31884e-06
-3.12189e-06
8.36851e-06
-2.9263e-07
-1.34771e-06
5.24669e-08
1.51532e-06
1.3045e-06
-2.70243e-06
2.41192e-06
-1.05836e-06
2.55398e-06
3.68249e-06
-5.56289e-05
1.10378e-06
2.54298e-06
4.57456e-05
3.40659e-06
-4.33309e-06
-6.06478e-06
5.31766e-06
-2.22664e-06
3.90026e-06
-1.86984e-06
-4.85112e-07
2.32503e-06
-8.84061e-07
5.41807e-06
-4.50408e-06
-3.03061e-06
1.81572e-06
-5.80622e-05
-1.59817e-07
-3.29257e-06
6.27295e-05
5.04946e-06
6.65475e-06
0.000343659
-5.89443e-06
-1.0279e-05
-7.12364e-06
-4.16683e-06
2.44214e-06
2.22839e-06
5.89632e-06
9.93797e-06
2.73444e-05
-1.73649e-07
0.000141165
9.20815e-07
1.94807e-06
1.66025e-06
1.11178e-05
2.67845e-06
-9.17527e-06
4.33318e-05
1.6165e-06
2.05381e-06
4.314e-06
4.32109e-06
2.42769e-06
7.01171e-06
5.34265e-06
-1.07671e-06
7.29027e-07
6.03794e-07
-1.40056e-06
3.82291e-06
1.13961e-08
1.62834e-10
-6.97997e-09
-6.35934e-09
2.637e-07
-4.38358e-07
2.40361e-07
-1.28599e-07
3.26313e-06
-6.75693e-05
9.10203e-06
5.02388e-06
-4.07263e-06
5.42528e-05
2.35289e-05
-3.01738e-05
0.000303974
-8.13091e-06
-6.03984e-06
-3.76846e-06
-4.09299e-06
2.09012e-05
-1.00744e-05
0.000197476
2.75436e-06
-2.49403e-06
0.000128842
2.52667e-06
3.16891e-06
1.94032e-06
-7.3736e-07
4.92734e-08
-1.78058e-07
-9.96371e-06
3.3915e-06
2.50166e-06
-2.52686e-06
9.35177e-06
3.59883e-08
-3.45736e-07
2.11134e-08
-7.59099e-08
3.63297e-07
-3.80051e-05
3.46718e-06
1.64901e-07
-1.18565e-05
3.6005e-05
1.02245e-05
3.41534e-05
-3.38544e-06
0.000341274
-4.66592e-06
-2.82171e-06
-1.46403e-06
-5.12867e-06
-4.35171e-07
-3.19907e-06
3.59949e-06
6.3491e-06
-1.53898e-06
0.000341337
6.60977e-06
1.08634e-05
1.41701e-05
-9.89633e-07
-2.25449e-07
1.48279e-06
-4.83385e-05
1.63912e-06
-6.1604e-08
5.06161e-05
-1.74696e-06
3.92075e-07
-1.90013e-06
3.22615e-06
-0.000101654
1.53959e-06
2.1602e-06
9.45688e-05
-3.42191e-05
-5.31699e-06
8.23561e-06
-7.07317e-07
3.04688e-05
-1.10763e-05
2.18042e-06
-7.02987e-06
1.59026e-05
-3.75741e-06
-3.3655e-06
2.22617e-06
4.89673e-06
8.46039e-07
-2.20761e-07
-1.8839e-07
-4.72577e-07
8.26099e-06
-1.13615e-06
-3.32493e-05
6.59213e-06
1.67778e-06
1.78546e-05
-1.40212e-06
-3.86257e-06
-5.84249e-06
4.74181e-06
3.40562e-07
6.0248e-06
-1.12834e-05
3.1513e-08
8.36788e-07
-4.04278e-08
1.36521e-05
-3.19656e-06
-5.62384e-06
2.71117e-06
-6.7151e-05
-7.41896e-07
6.93304e-06
6.38726e-05
3.24155e-05
-1.97176e-06
0.000298114
-7.74556e-06
1.35759e-06
6.07963e-07
6.91563e-06
2.6206e-07
3.93987e-06
1.49637e-06
8.26679e-06
2.9815e-05
-9.96334e-06
0.000127128
1.83387e-06
8.4483e-06
6.93379e-06
9.3844e-06
5.7888e-06
-1.09613e-05
7.57854e-05
4.7215e-07
2.36783e-06
3.03592e-08
-1.56129e-06
4.6122e-06
-2.34987e-06
-1.03753e-06
-9.56491e-06
4.03819e-06
6.25912e-06
-2.69313e-06
7.74952e-06
-8.50638e-07
2.30241e-06
-1.2509e-06
-1.97094e-07
-1.72416e-06
1.72038e-06
1.2598e-07
-1.0914e-06
9.97965e-07
-8.03554e-08
5.77273e-07
-5.52067e-05
2.06555e-06
5.40042e-07
-1.03065e-05
6.23304e-05
6.82275e-05
-3.40053e-05
0.000286912
-6.00044e-06
-8.34463e-06
-1.93452e-06
-2.85193e-06
4.72678e-05
-2.07575e-05
0.000229229
3.556e-06
-3.08408e-06
0.000158527
3.67158e-06
4.20836e-06
4.69432e-06
-1.1983e-06
-2.44264e-06
-2.78363e-06
-6.48204e-06
1.80191e-06
8.10335e-07
1.59508e-07
7.26628e-06
-8.69164e-07
1.57503e-06
1.09786e-06
-1.4936e-06
-1.14446e-06
8.34332e-07
-3.58323e-05
5.58429e-06
-1.80217e-06
-1.24131e-05
3.42823e-05
1.01809e-05
5.30387e-05
-1.48324e-05
0.000297257
-7.79827e-06
-1.00608e-05
8.21769e-08
-4.90317e-06
5.22281e-08
-6.01403e-06
4.47544e-07
1.47217e-05
-1.83572e-06
0.000304359
1.78894e-05
1.9668e-05
1.79815e-05
-1.86051e-07
1.48273e-07
8.71681e-07
-5.57157e-05
1.26335e-05
-2.80842e-06
5.75282e-05
-4.71857e-06
-1.98711e-06
-3.88815e-06
5.08531e-07
1.00606e-05
8.34521e-07
4.35313e-07
-6.28116e-07
-6.41886e-07
-7.93729e-05
-7.41679e-07
2.4129e-05
4.11727e-05
-3.50018e-05
-2.3756e-05
1.30373e-05
-2.93178e-06
4.68165e-05
-1.93691e-05
8.53729e-06
-8.63391e-06
1.94455e-05
-5.68085e-06
-1.78054e-06
1.20305e-06
6.25834e-06
-4.86014e-07
3.12496e-07
-1.91344e-06
2.04851e-06
8.36241e-06
-1.24392e-06
-1.20162e-05
4.10147e-06
-9.64258e-06
1.04388e-05
-7.38937e-07
-1.16917e-05
-5.04778e-06
3.17934e-06
-1.06866e-06
1.53678e-05
-1.47873e-05
8.63074e-07
9.79532e-07
-1.23212e-06
1.68057e-05
-2.62891e-06
-2.66023e-08
6.33503e-06
-5.55696e-05
-1.7818e-06
1.1319e-05
3.97239e-05
4.38782e-05
1.89237e-06
0.00024708
5.64119e-07
4.37413e-06
3.11599e-06
9.88856e-06
-5.56492e-06
-5.20253e-08
-5.16965e-06
-1.89245e-06
2.86087e-05
-1.16251e-05
0.000146159
1.46483e-06
4.91929e-06
1.40235e-06
7.77536e-08
-1.93841e-06
-6.64876e-06
0.000110636
1.14855e-06
-1.07966e-06
1.95729e-06
5.01293e-07
-1.46455e-06
7.4424e-07
5.37929e-07
-7.50281e-06
8.95808e-07
-2.89992e-06
-3.77941e-07
7.94645e-06
-2.26991e-06
3.81059e-07
8.57683e-07
-6.15363e-07
-1.05999e-06
2.70651e-06
-8.23678e-08
-3.9945e-07
-1.90977e-07
6.05278e-07
5.47746e-06
-7.15357e-05
-7.07631e-06
-3.7533e-06
-2.42253e-06
7.93104e-05
5.00994e-05
-1.41153e-06
0.000258331
-5.50197e-06
-5.67254e-06
-4.20909e-06
-2.83139e-06
5.19791e-05
-1.63969e-05
0.000232121
5.30636e-06
-4.5406e-06
0.000199674
4.80761e-06
5.97624e-06
7.68921e-06
-5.9695e-06
-2.7504e-06
-6.33567e-06
-1.1431e-05
2.30213e-07
1.36771e-06
-2.248e-06
1.73875e-05
-4.09848e-07
1.52136e-06
1.92981e-07
2.05092e-07
-1.65188e-06
1.4229e-07
-3.70473e-05
-4.86979e-06
-5.08206e-06
-4.09929e-06
4.50902e-05
6.00832e-06
3.94428e-05
-5.23474e-07
0.000264477
-3.31462e-06
-3.36517e-06
-2.71871e-07
-3.03119e-06
7.5913e-07
3.71269e-07
1.30131e-06
1.63085e-05
-1.54098e-06
0.000269803
1.52718e-05
1.69158e-05
1.41967e-05
-1.45211e-06
-8.7451e-07
-1.22314e-06
-6.19085e-05
1.72408e-05
-5.45175e-06
6.18873e-05
-1.67726e-05
5.16778e-06
-1.68977e-05
6.56451e-06
2.1938e-05
2.38654e-07
1.20529e-06
-3.0782e-06
3.32366e-07
1.30189e-06
-2.13226e-05
-3.33606e-06
6.76344e-06
1.72399e-05
-5.52709e-05
-1.38443e-05
1.34937e-05
-4.35064e-06
5.84312e-05
-1.93148e-05
9.40303e-06
-9.10643e-06
1.90184e-05
-6.49094e-06
8.4465e-07
-3.41698e-07
5.98799e-06
-3.40296e-06
2.32372e-08
1.12751e-06
2.25221e-06
-2.70617e-06
-1.06231e-06
-8.61834e-06
1.76736e-06
1.76163e-06
8.85783e-06
-1.3424e-06
-1.80229e-05
-2.76393e-06
9.50749e-07
-4.4249e-07
2.16209e-05
-1.82815e-05
6.80043e-07
-1.51481e-06
-6.12244e-07
1.9171e-05
5.57453e-07
7.12342e-07
3.65019e-06
-2.7553e-05
-2.64049e-06
-1.0447e-06
2.68756e-05
2.9786e-05
1.20559e-05
0.000233897
-9.13949e-07
2.54429e-06
-6.88588e-06
-2.9275e-06
-4.63867e-06
-5.55206e-06
-5.68311e-06
-4.60243e-06
1.52883e-05
-3.66299e-06
0.000165648
1.39518e-06
-2.49904e-06
1.50921e-06
-1.73385e-06
-8.78969e-07
-6.77608e-06
0.00013557
3.53681e-07
1.11492e-06
1.23522e-06
2.00295e-06
-1.37982e-06
-3.43381e-06
-1.88334e-06
-1.40899e-05
4.44854e-06
-2.49226e-06
-3.12846e-06
1.43831e-05
-2.57161e-06
1.5406e-06
2.28216e-07
-5.89394e-07
1.39219e-06
-2.05136e-06
2.5239e-06
-6.67037e-06
6.05167e-06
1.17364e-05
-8.44104e-05
-2.58782e-06
-3.6192e-06
2.86814e-06
7.60129e-05
4.26872e-05
5.38032e-07
0.00025767
-8.62333e-06
-8.01283e-06
-7.32673e-06
-6.54498e-06
4.33981e-05
-1.43489e-05
0.000242097
3.58163e-06
-3.75779e-06
0.000228135
8.4602e-06
4.44742e-06
6.42476e-06
-4.09478e-06
-1.80844e-06
-5.09194e-06
-2.28903e-05
2.99998e-06
1.07415e-06
-4.11064e-06
2.65085e-05
-9.96076e-07
2.33109e-06
-1.70956e-06
1.49256e-06
-2.57763e-06
1.45962e-06
-5.40083e-05
-4.61434e-06
6.62256e-07
6.53603e-06
5.80417e-05
-6.6173e-06
2.80243e-05
-5.66852e-07
0.000263705
-4.48979e-06
-5.05102e-06
-4.59873e-06
-6.29741e-06
-1.75574e-07
-3.10317e-06
-2.43171e-06
1.09112e-05
-2.0305e-07
0.000246835
9.46507e-06
1.10161e-05
7.29676e-06
-1.7709e-06
9.11173e-07
-9.83162e-07
-6.52923e-05
1.34637e-05
-4.99877e-06
6.39807e-05
-2.02028e-05
5.96907e-06
-1.62955e-05
3.05292e-05
-1.79604e-05
-2.79724e-06
4.92715e-07
1.96915e-05
-5.59688e-05
-3.0434e-07
4.06253e-06
1.65053e-06
5.03571e-05
-1.91903e-05
5.34713e-06
-5.68415e-06
1.94979e-05
-5.44719e-06
2.02527e-06
-1.73471e-06
5.15663e-06
-2.07384e-06
1.15653e-07
-1.16427e-06
3.12245e-06
-4.56439e-06
3.94725e-07
-9.25698e-06
-1.62802e-06
4.79705e-06
1.02576e-05
2.28772e-07
-2.39376e-05
4.78744e-07
-7.08232e-07
-1.00328e-06
2.49416e-05
-2.0328e-05
2.21883e-06
-3.34921e-06
-1.7069e-06
2.06271e-05
2.53817e-06
-1.48949e-06
-1.18085e-06
-2.48211e-05
3.43403e-06
3.94233e-06
2.01151e-05
2.89022e-05
2.47288e-05
0.000227058
-7.80633e-06
-6.03035e-06
-6.32823e-06
-5.76662e-06
-6.15342e-06
-5.08035e-06
-6.38862e-06
-3.23746e-06
1.18052e-05
1.00159e-05
0.000177122
-3.10345e-07
-2.91672e-06
3.06449e-07
-1.47274e-06
-4.71834e-06
-5.39783e-06
0.000159785
5.24202e-07
2.08458e-06
2.43098e-06
2.85414e-06
-4.02999e-06
-3.18365e-06
-2.97392e-06
-1.81434e-05
1.69686e-06
-5.93493e-06
1.76632e-05
-1.12252e-05
1.58053e-08
-1.03929e-06
1.22498e-05
3.52086e-06
-6.63326e-05
-4.51747e-06
7.59486e-07
3.94848e-06
6.26213e-05
3.60705e-05
1.03478e-06
0.000269557
-7.18466e-06
-6.70681e-06
-5.70708e-06
-4.66536e-06
3.20363e-05
-9.91291e-07
0.000257138
1.19164e-06
-2.4925e-06
0.000250781
3.28584e-06
2.89505e-06
5.27714e-06
-4.378e-06
8.29437e-07
-2.61597e-06
-4.24826e-05
5.58622e-06
3.29596e-07
-9.17318e-06
4.69316e-05
-5.49843e-05
-2.56848e-06
3.82235e-06
5.25475e-06
5.38493e-05
-5.37366e-06
2.88367e-05
-2.84345e-06
0.000265553
-5.817e-06
-5.61705e-06
-3.90528e-06
-4.61164e-06
-2.33236e-06
-2.55285e-06
-1.97038e-06
6.94304e-06
1.94747e-06
0.000246185
5.59921e-06
7.49124e-06
4.3034e-06
5.94885e-07
1.37189e-06
2.44409e-07
-6.63165e-05
7.35446e-06
-1.57139e-06
6.49839e-05
-3.47359e-05
1.23878e-05
-8.79902e-06
3.11471e-05
-1.96577e-05
-1.6334e-06
-7.47261e-07
1.91948e-05
-4.61642e-05
1.52145e-06
4.5405e-08
1.30414e-06
4.52407e-05
-2.01485e-05
2.45812e-06
-1.76916e-06
1.94688e-05
-4.93587e-06
3.30061e-06
-2.94793e-06
4.58319e-06
-4.48667e-06
-2.77654e-06
1.71031e-06
5.55289e-06
-3.36617e-06
2.90585e-06
-1.10043e-05
-4.79505e-06
4.45394e-06
1.18057e-05
1.10889e-07
-2.47648e-05
4.89775e-06
-4.03297e-06
6.71087e-07
2.3118e-05
-2.07361e-05
3.34506e-06
-4.00645e-06
-3.53741e-06
2.03238e-05
4.61105e-06
5.32437e-07
-4.0677e-06
-1.62673e-05
3.50801e-06
2.90189e-06
1.33927e-05
3.04081e-05
2.93248e-05
0.000207025
-5.10368e-06
-6.70689e-06
-4.04692e-06
-4.9606e-06
-5.53319e-06
-5.05075e-06
-4.58719e-06
-3.71122e-06
1.36577e-05
1.54406e-05
0.000185578
-1.80067e-06
-2.94497e-06
-1.26262e-06
-1.13732e-06
-2.64945e-06
-3.31886e-06
0.000173202
2.1587e-06
2.62848e-06
3.72376e-06
2.72234e-06
-1.98388e-06
-1.99154e-06
-1.04916e-06
-1.79412e-05
2.71547e-06
-5.66805e-06
1.82443e-05
-1.27399e-05
-1.80659e-06
1.29244e-06
1.3254e-05
2.35807e-06
-6.09233e-05
-8.05586e-06
9.60947e-07
7.67684e-06
5.79833e-05
3.62057e-05
1.1756e-05
0.000278509
-8.33602e-06
-8.20763e-06
-5.91141e-06
-5.13382e-06
3.35468e-05
6.85866e-06
0.000268379
3.86961e-06
-8.65625e-07
0.000260918
6.23111e-06
5.57301e-06
6.9298e-06
-2.16105e-06
1.69177e-06
-1.17793e-06
-5.08642e-05
6.20802e-06
4.50999e-06
-1.07405e-05
5.47563e-05
-5.52388e-05
-4.44259e-06
4.07752e-06
6.13854e-06
5.7521e-05
-8.05566e-06
2.72551e-05
-5.50942e-07
0.000267022
-5.63693e-06
-3.49988e-06
-4.00118e-06
-3.54407e-06
-7.65557e-07
7.67474e-07
2.63734e-07
4.96372e-06
1.98942e-06
0.000254001
3.5744e-06
7.01316e-06
3.72036e-06
1.09299e-06
2.55533e-06
1.38823e-06
-6.68444e-05
5.72731e-06
4.15567e-07
6.47996e-05
-3.19466e-05
6.56762e-06
-7.55606e-06
3.29351e-05
-1.84909e-05
-6.60081e-07
-1.00401e-06
1.9604e-05
-4.50387e-05
1.00806e-06
-1.07167e-07
5.65565e-07
4.55616e-05
-1.86825e-05
7.17698e-07
-4.87738e-07
1.8449e-05
-4.14699e-06
3.25365e-06
-2.84249e-06
3.73583e-06
-5.72973e-06
-4.39105e-06
4.72435e-06
5.39643e-06
-3.10588e-06
4.18052e-06
-1.30834e-05
-5.72994e-06
4.10593e-06
1.36328e-05
-2.14828e-07
-2.11428e-05
6.41429e-06
-5.88783e-06
1.54744e-06
1.92837e-05
-1.99249e-05
3.61244e-06
-4.73147e-06
-3.55794e-06
1.93709e-05
5.23094e-06
-2.06225e-06
-2.69029e-06
-1.26527e-05
4.2507e-06
-3.46053e-07
1.35006e-05
2.59762e-05
2.65067e-05
0.000193081
-4.52079e-06
-4.91242e-06
-3.72671e-06
-2.86481e-06
-5.27881e-06
-6.10894e-06
-5.07011e-06
-6.05568e-06
8.42688e-06
1.66699e-05
0.000190386
-2.48717e-06
-1.07615e-06
-9.19314e-07
5.53911e-07
-2.52225e-06
-2.85972e-06
0.000180359
2.7845e-06
2.77133e-06
3.58726e-06
3.10848e-06
-2.02254e-06
-2.09789e-06
-1.47919e-06
-1.86989e-05
3.50409e-06
-5.94973e-06
1.86223e-05
-1.38466e-05
-2.62925e-06
2.15031e-06
1.43255e-05
1.78829e-06
-5.31563e-05
-5.3898e-06
1.66779e-06
1.05694e-05
4.45206e-05
3.62298e-05
1.71425e-05
0.000277732
-7.76841e-06
-7.57177e-06
-6.01192e-06
-4.73706e-06
3.54002e-05
9.51446e-06
0.000276364
4.90702e-06
-2.93154e-07
0.000269929
6.5251e-06
5.65506e-06
6.62604e-06
-1.28563e-06
1.98108e-06
-5.86518e-07
-5.95306e-05
6.56796e-06
5.02814e-06
-1.05335e-05
6.3375e-05
-5.94469e-05
-5.02876e-06
4.38479e-06
1.03851e-05
6.09547e-05
-1.1249e-05
2.51965e-05
2.12727e-06
0.000268893
-5.65393e-06
-4.23926e-06
-3.68812e-06
-4.90945e-06
1.26836e-06
2.94966e-06
2.21994e-06
4.68621e-06
2.84513e-06
0.000259728
3.23353e-06
6.98424e-06
3.72207e-06
1.71248e-06
3.49452e-06
2.30603e-06
-6.64103e-05
4.93245e-06
1.17356e-06
6.46973e-05
-3.39492e-05
5.74816e-06
-6.46653e-06
3.46675e-05
-2.15219e-05
1.37499e-07
-1.0896e-06
2.46013e-05
-4.63679e-05
9.49618e-07
-4.31301e-07
1.294e-06
4.74007e-05
-1.89057e-05
-2.89568e-07
-2.79415e-07
1.94747e-05
-3.3464e-06
2.96669e-06
-2.65051e-06
3.03022e-06
-4.74612e-06
-5.77562e-06
6.51228e-06
4.00946e-06
-3.07346e-06
5.35867e-06
-1.40708e-05
-5.7569e-06
3.39091e-06
1.41516e-05
-9.34917e-10
-1.81247e-05
6.06729e-06
-5.59687e-06
5.48575e-07
1.71066e-05
-1.91187e-05
3.56971e-06
-5.0509e-06
-2.94803e-06
1.85168e-05
5.03116e-06
-6.20889e-06
-1.30939e-07
-1.39743e-05
2.20839e-06
5.10179e-06
1.3004e-05
1.94268e-05
2.55549e-05
0.000180483
-3.24644e-06
-2.89935e-06
-2.70752e-06
-1.96773e-06
-4.31258e-06
-7.71941e-06
-3.17781e-06
-6.35302e-06
-2.71421e-07
1.66327e-05
0.000196341
-1.59942e-06
-8.015e-07
-4.55059e-07
-3.32258e-08
-2.76378e-06
-3.20149e-06
0.000179955
2.68546e-06
3.1221e-06
3.43976e-06
3.33765e-06
-2.21013e-06
-2.55396e-06
-1.72264e-06
-1.87125e-05
4.18301e-06
-6.69734e-06
1.84631e-05
-1.4993e-05
-2.46203e-06
1.77645e-06
1.56786e-05
-6.5552e-08
-3.46833e-05
-5.8333e-06
3.71898e-06
1.06225e-05
2.62407e-05
3.44645e-05
2.15106e-05
0.000275528
-8.39897e-06
-7.65251e-06
-6.91845e-06
-5.24608e-06
3.49389e-05
1.08743e-05
0.000281648
5.20208e-06
-5.54509e-08
0.000277162
6.17846e-06
5.88606e-06
6.21218e-06
-8.16434e-07
2.12179e-06
-2.24075e-07
-6.71645e-05
7.12421e-06
5.37852e-06
-1.0167e-05
7.00308e-05
-6.30082e-05
-4.48758e-06
4.18826e-06
1.15011e-05
6.43024e-05
-1.24959e-05
2.43151e-05
2.91598e-06
0.000276198
-5.67594e-06
-5.88219e-06
-3.93328e-06
-6.13525e-06
2.2702e-06
3.23436e-06
3.09669e-06
4.51678e-06
2.98131e-06
0.000265845
3.19672e-06
6.96848e-06
3.75287e-06
1.94198e-06
3.41093e-06
2.30373e-06
-6.69943e-05
4.38564e-06
1.42682e-06
6.56432e-05
-3.5365e-05
5.15089e-06
-5.69266e-06
3.59068e-05
-2.77831e-05
-6.56788e-07
4.31358e-07
3.09245e-05
-4.91858e-05
2.50016e-07
-2.26568e-07
1.10479e-06
5.10389e-05
-2.0445e-05
-5.98117e-07
-2.38886e-07
2.1282e-05
-2.80547e-06
2.69076e-06
-2.52641e-06
2.64112e-06
-3.3128e-06
-6.07513e-06
6.54539e-06
2.84254e-06
-3.12017e-06
6.06524e-06
-1.42894e-05
-5.9768e-06
3.20041e-06
1.41207e-05
4.77387e-07
-1.62096e-05
5.69119e-06
-5.0544e-06
1.44926e-07
1.49505e-05
-1.77775e-05
3.58481e-06
-4.57462e-06
-2.41215e-06
1.66257e-05
4.55371e-06
-7.4195e-06
1.05037e-06
-1.15096e-05
-1.53841e-08
7.51114e-06
1.0383e-05
1.79541e-05
2.4472e-05
0.000163917
-3.04361e-06
-2.76505e-06
-3.07372e-06
-2.17721e-06
-2.52858e-06
-6.47203e-06
-1.00223e-06
-4.79737e-06
-4.31978e-06
1.58191e-05
0.000205862
-1.4687e-06
-1.01167e-06
-6.00072e-07
1.37146e-08
-3.1049e-06
-3.34521e-06
0.000177847
2.34908e-06
3.16631e-06
3.12273e-06
3.22347e-06
-2.31804e-06
-3.13344e-06
-2.17249e-06
-1.85902e-05
4.69526e-06
-7.74325e-06
1.85333e-05
-1.61304e-05
-2.29038e-06
2.18599e-06
1.62348e-05
-1.58194e-06
-2.07889e-05
-6.90293e-06
3.6752e-06
8.14186e-06
1.74567e-05
3.25543e-05
2.25367e-05
0.000267333
-7.17451e-06
-6.85545e-06
-4.06047e-06
-4.33303e-06
3.28548e-05
1.13234e-05
0.000285843
5.43134e-06
-1.24589e-07
0.0002825
5.7562e-06
5.86283e-06
5.81063e-06
-6.02934e-07
2.10464e-06
-6.62208e-08
-7.28276e-05
7.69003e-06
5.47613e-06
-9.62613e-06
7.4719e-05
-6.54505e-05
-3.87247e-06
3.84055e-06
1.0825e-05
6.60776e-05
-1.14202e-05
2.44653e-05
2.69953e-06
0.000286627
-6.0215e-06
-6.74972e-06
-4.04264e-06
-6.34301e-06
2.29822e-06
2.84247e-06
2.95926e-06
4.43799e-06
2.47395e-06
0.000274622
3.27545e-06
6.90229e-06
3.73635e-06
1.57698e-06
2.79751e-06
1.81042e-06
-6.83296e-05
4.11758e-06
1.41519e-06
6.71102e-05
-3.64626e-05
4.70238e-06
-5.15193e-06
3.69121e-05
-3.37352e-05
-1.74254e-06
1.62353e-06
3.65537e-05
-5.34976e-05
-6.21667e-07
3.1381e-07
8.47703e-07
5.54317e-05
-2.24344e-05
-5.827e-07
-3.00835e-07
2.33179e-05
-2.42004e-06
2.42377e-06
-1.98069e-06
1.97696e-06
-2.50882e-06
-5.31763e-06
5.46373e-06
2.36272e-06
-3.0629e-06
6.15227e-06
-1.41073e-05
-6.48483e-06
3.5782e-06
1.39245e-05
2.31326e-07
-1.36322e-05
6.1749e-06
-5.10012e-06
4.33185e-07
1.18929e-05
-1.54719e-05
3.58497e-06
-4.07556e-06
-2.2957e-06
1.42379e-05
4.02028e-06
-7.46553e-06
1.72518e-06
-1.02452e-05
-2.47751e-06
7.8499e-06
1.06131e-05
1.50714e-05
2.31817e-05
0.000146675
-4.17854e-06
-3.81751e-06
-4.45e-06
-2.93028e-06
1.6838e-07
-4.3667e-06
1.61215e-06
-3.04878e-06
-7.21007e-06
1.37303e-05
0.000217528
-1.85877e-06
-9.34744e-07
-5.60291e-07
2.38683e-07
-3.70808e-06
-2.71279e-06
0.000176292
2.09895e-06
2.85453e-06
3.01459e-06
2.86439e-06
-2.99075e-06
-3.78046e-06
-3.29515e-06
-1.86134e-05
5.01183e-06
-8.44041e-06
1.83339e-05
-1.63485e-05
-2.31353e-06
2.14243e-06
1.65196e-05
-7.7703e-07
-1.6146e-05
-6.62209e-06
1.3543e-06
6.24907e-06
1.59418e-05
3.18038e-05
2.24407e-05
0.000252273
-3.7518e-06
-6.45242e-06
-2.35277e-06
-3.44613e-06
2.98975e-05
1.10133e-05
0.000290467
5.04793e-06
-2.52396e-07
0.000287371
5.33066e-06
5.19643e-06
5.36689e-06
-4.74468e-07
2.07592e-06
2.25304e-08
-7.66378e-05
7.74314e-06
5.15812e-06
-8.88506e-06
7.76695e-05
-6.62344e-05
-3.44467e-06
3.63184e-06
9.41333e-06
6.60348e-05
-9.40085e-06
2.49126e-05
2.3388e-06
0.000297377
-6.10832e-06
-6.54276e-06
-3.74599e-06
-6.14772e-06
1.9787e-06
2.4715e-06
2.53343e-06
4.33928e-06
1.97927e-06
0.000285396
3.32386e-06
6.83795e-06
3.7962e-06
1.1821e-06
2.29986e-06
1.39366e-06
-7.00183e-05
3.96767e-06
1.16991e-06
6.89676e-05
-3.74113e-05
4.36393e-06
-4.75931e-06
3.78067e-05
-3.94776e-05
-3.22322e-06
2.63326e-06
4.24064e-05
-5.79713e-05
-1.43985e-06
7.93567e-07
6.21704e-07
5.99751e-05
-2.43399e-05
-4.12409e-07
-3.57386e-07
2.51097e-05
-1.38712e-06
2.00035e-06
-1.45872e-06
8.45485e-07
-2.33902e-06
-4.18737e-06
4.15366e-06
2.37273e-06
-2.69094e-06
5.76235e-06
-1.39997e-05
-6.90765e-06
3.95726e-06
1.38786e-05
-5.28753e-07
-1.05263e-05
6.73828e-06
-5.56187e-06
4.15371e-07
9.46329e-06
-1.31414e-05
3.5922e-06
-3.82726e-06
-2.73503e-06
1.20665e-05
4.04503e-06
-6.86787e-06
1.88181e-06
-1.17452e-05
-4.11979e-06
7.92717e-06
1.29239e-05
3.1573e-06
2.28542e-05
0.000135836
-5.7969e-06
-4.33022e-06
-5.81359e-06
-3.74845e-06
3.22254e-06
-1.82944e-06
3.40937e-06
-2.8626e-07
-1.12105e-05
1.18118e-05
0.000221829
-1.43841e-06
-6.43941e-07
-1.89002e-07
5.26719e-07
-4.22429e-06
-2.70105e-06
0.00017432
2.22192e-06
2.6337e-06
3.20745e-06
2.68179e-06
-4.22119e-06
-4.18309e-06
-4.65406e-06
-1.79934e-05
5.04136e-06
-8.57119e-06
1.72989e-05
-1.65437e-05
-1.78631e-06
2.01513e-06
1.63149e-05
-1.05032e-06
-1.64399e-05
-6.47893e-06
1.60709e-06
4.80827e-06
1.75538e-05
2.93718e-05
2.21599e-05
0.000236768
-3.55325e-06
-4.47921e-06
-2.90792e-06
-2.23266e-06
2.65956e-05
9.42828e-06
0.000295626
3.92233e-06
-5.39909e-07
0.000293413
4.7502e-06
3.8474e-06
4.63246e-06
-5.5769e-07
1.90901e-06
-1.10991e-07
-7.89206e-05
7.28938e-06
4.21862e-06
-8.00736e-06
7.93423e-05
-6.65087e-05
-2.41849e-06
1.82608e-06
7.89207e-06
6.66218e-05
-7.41267e-06
2.40108e-05
2.17045e-06
0.000306792
-5.32863e-06
-6.10083e-06
-2.86896e-06
-5.45015e-06
1.66008e-06
2.53685e-06
2.11539e-06
4.25339e-06
1.4506e-06
0.000295421
3.41673e-06
6.8342e-06