/*--------------------------------*- C++ -*----------------------------------*\
| =========                 |                                                 |
| \\      /  F ield         | OpenFOAM: The Open Source CFD Toolbox           |
|  \\    /   O peration     | Version:  5.x                                   |
|   \\  /    A nd           | Web:      www.OpenFOAM.org                      |
|    \\/     M anipulation  |                                                 |
\*---------------------------------------------------------------------------*/
FoamFile
{
    version     2.0;
    format      ascii;
    class       volVectorField;
    location    "5";
    object      Us;
}
// * * * * * * * * * * * * * * * * * * * * * * * * * * * * * * * * * * * * * //

dimensions      [0 1 -1 0 0 0 0];

internalField   nonuniform List<vector> 
10571
(
(0.0201516 0.0314215 -0.131514)
(-0.0245894 0.0252063 0.0736676)
(-0.175919 0.226563 -0.00717274)
(-0.204118 0.220397 0.123704)
(-0.0832274 0.0875173 -0.209226)
(-0.111782 0.0534539 0.187025)
(-0.255842 0.335997 0.129463)
(-0.206948 0.264215 -0.0123949)
(-0.124638 0.224051 0.0165816)
(-0.0292201 0.0526145 -0.0244833)
(0.0269134 -0.0165497 -0.240397)
(0.124985 0.0113316 0.0422197)
(-0.152407 0.326185 0.207452)
(-0.370387 0.436266 0.11425)
(-0.318094 0.346724 0.106055)
(-0.127694 0.0419712 -0.112522)
(0.159035 0.0644189 -0.0800543)
(-0.26116 0.311168 0.0326222)
(-0.456361 0.547451 0.1338)
(-0.342594 0.201568 0.126815)
(-0.0677601 0.0398612 -0.154681)
(-0.329033 0.337185 -0.0634913)
(-0.191831 0.271889 -0.0547692)
(-0.0289949 0.00658339 -0.313985)
(0.0347906 0.00765866 -0.330745)
(0.0118153 -0.000903184 -0.176977)
(-0.0659601 0.0884504 -0.0862569)
(-0.0666701 0.194689 0.0829251)
(-0.0593304 0.0139791 -0.365679)
(-0.21063 0.131588 0.0158359)
(-0.160231 0.210552 0.00450933)
(-0.160481 0.145555 -0.0361908)
(-0.155124 0.0414286 -0.0504665)
(-0.0483102 -0.0217325 -0.296652)
(-0.000570163 0.0362725 -0.360312)
(-0.12732 0.0473491 -0.0444649)
(-0.269253 0.256761 0.0707335)
(-0.187867 0.15091 0.0192072)
(-0.0254554 -0.0693277 -0.0549997)
(-0.053776 0.0319824 -0.295231)
(-0.0300441 -0.0297486 -0.230415)
(-0.282932 0.302886 0.0881705)
(-0.259293 0.237731 0.0958776)
(-0.098606 -0.00479652 -0.0741444)
(-0.0654748 0.0863916 -0.34168)
(-0.151152 0.0970757 0.0143426)
(-0.0913547 0.0529281 -0.125683)
(-0.0221646 0.00610583 -0.292743)
(0.0231846 0.00164636 -0.418847)
(-0.0180023 0.0171544 -0.344767)
(0.038386 -0.0241448 -0.0628073)
(-0.0488458 0.0454886 -0.232683)
(-0.0122629 -0.00356838 -0.411611)
(0.0384726 -0.0147262 -0.0613241)
(-0.0282965 -0.0964777 0.0475176)
(-0.0133737 -0.084913 -0.000312411)
(0.0038224 -0.0452477 -0.17595)
(-0.0158785 -0.017985 -0.311316)
(-0.00741725 0.0590059 -0.284141)
(-0.197694 0.051971 0.110874)
(-0.0336544 -0.0540736 0.0320469)
(0.0463287 -0.0821118 -0.0326785)
(0.100366 -0.0873273 -0.065619)
(0.00926177 0.0225577 -0.313581)
(-0.0242129 -0.0926894 -0.207427)
(-0.0452547 0.0342992 0.111938)
(0.00275577 -0.0337026 0.042578)
(0.0474642 -0.0378437 -0.077633)
(-0.0211053 0.0425385 -0.434937)
(-0.12328 -0.0504758 0.0469569)
(0.022914 -0.0495553 -0.185054)
(0.0061814 -0.00667705 -0.211518)
(0.0367397 0.00060147 -0.394369)
(-0.0512978 0.0526058 -0.350417)
(0.101867 -0.0903724 0.0309365)
(0.0216044 -0.0420278 -0.244334)
(0.0250773 0.00830752 -0.376299)
(0.020952 0.0121365 -0.00939348)
(0.059824 -0.149311 0.0962829)
(0.0454813 -0.0946034 0.0137871)
(0.0298878 -0.00312561 -0.150609)
(0.00148219 0.0128618 -0.277136)
(-0.0150805 0.0957836 -0.242695)
(-0.0440924 -0.13576 0.0964261)
(0.0916963 -0.13087 0.0569965)
(0.100772 -0.128528 0.0134819)
(0.119915 -0.0753123 -0.0149359)
(0.00764565 0.0327198 -0.305894)
(-0.0376815 -0.0907192 -0.164841)
(0.0018043 -0.0315019 0.156496)
(0.100547 -0.110864 0.0479233)
(0.103579 -0.0790923 -0.0257084)
(-0.0163948 0.00663578 -0.381387)
(-0.150151 -0.0427409 0.161624)
(0.0220281 -0.0461477 -0.143936)
(-0.0112293 0.00522094 -0.217394)
(0.071672 0.00404816 -0.347833)
(-0.0576563 0.0530479 -0.341599)
(0.0691572 -0.0924507 0.0831118)
(0.0798046 -0.04064 -0.22867)
(0.0640791 0.0243126 -0.325204)
(-0.0259237 -0.0834703 0.0795218)
(0.0643172 -0.138428 0.168903)
(0.0870802 -0.00791746 0.0143875)
(0.0739481 0.00423163 -0.129291)
(0.0161135 -0.00250336 -0.249273)
(0.00143158 0.13437 -0.215535)
(-0.0880021 -0.173336 0.163409)
(0.112303 -0.166284 0.106085)
(0.135003 -0.142567 0.109992)
(0.109194 -0.00678342 0.00663334)
(0.0251308 -0.00196515 -0.232655)
(-0.0406725 -0.0991858 -0.103554)
(0.015189 -0.114276 0.255477)
(0.146349 -0.116771 0.145686)
(0.132813 -0.0941406 0.0312145)
(-0.00816296 0.00703511 -0.31374)
(-0.00832904 -4.1934e-05 0.336893)
(0.0290351 -0.0324359 -0.0832536)
(-0.0393819 0.0314941 -0.1814)
(0.136602 -0.00796942 -0.307665)
(-0.0500233 0.0308868 -0.284715)
(0.00705724 -0.049146 0.042588)
(0.113463 -0.0314109 -0.209937)
(0.187125 0.00647357 -0.330142)
(-0.0420064 -0.006355 0.144072)
(0.0307289 -0.0515202 0.250648)
(0.115403 0.0239745 -0.0118708)
(0.105268 0.00365208 -0.107878)
(0.0773193 -0.0417967 -0.198785)
(-0.00117877 0.000510912 -0.000636543)
(0.00459198 0.165495 -0.232861)
(-0.102813 -0.224052 0.151806)
(0.104262 -0.167313 0.191892)
(0.0998737 0.0302047 0.0760245)
(0.0728882 0.0367627 -0.0133203)
(0.0362088 -0.0152366 -0.122008)
(-0.000731994 -0.00050738 -0.000351803)
(-0.0540078 -0.102785 -0.0155336)
(0.10316 -0.13933 0.228392)
(0.200002 -0.0843008 0.214923)
(0.151706 -0.0500394 0.141939)
(-0.00458299 0.0139844 -0.231589)
(0 0 0)
(0.155744 -0.0159702 0.0299034)
(-0.0325212 0.0378306 -0.104367)
(0 0 0)
(-0.0200474 0.00991285 -0.229093)
(0.0446102 -0.0686987 -0.0644052)
(0.147886 -0.0144497 -0.203128)
(0 0 0)
(-0.0714035 0.0578028 0.194305)
(0.0396835 0.0617208 0.235574)
(0.105755 0.0347694 0.00923909)
(0.0979069 0.0136183 -0.0544356)
(0 0 0)
(-0.000235975 0.000502288 -0.000663145)
(0.00651738 0.187486 -0.183584)
(-0.100516 -0.14282 0.269583)
(0.0897184 0.0185691 0.314423)
(0.102736 0.106746 0.116536)
(0.047589 0.0274419 0.00437757)
(0.0711713 -0.00139596 -0.0740663)
(0 0 0)
(-0.0750934 -0.0768083 0.122033)
(0.073315 -0.00181135 0.229661)
(0.14435 0.0902193 0.254964)
(0.124805 0.0701733 0.209778)
(0.0540337 0.0559588 -0.112462)
(0.0496831 0.000904279 -0.0144577)
(0.0557317 -0.0840391 0.165784)
(0.181273 0.0114254 0.09979)
(0.0285186 0.0213934 0.0702385)
(0 0 0)
(-0.00822703 -0.0055611 -0.2159)
(0.0464654 -0.0405587 -0.138475)
(0 0 0)
(0 0 0)
(-0.10548 0.0847681 0.0161545)
(0.0629107 0.111562 0.14293)
(0.113099 0.108417 0.118723)
(0 0 0)
(0 0 0)
(0 0 0)
(0.000328006 0.16478 -0.0578675)
(-0.0841535 0.175418 0.341403)
(0.0597642 0.183336 0.221317)
(0.0829759 0.132119 0.188237)
(0.104382 0.0557744 0.145278)
(0 0 0)
(0 0 0)
(0.0259546 0.0644164 0.181457)
(0.0174682 0.250823 0.250165)
(0.116283 0.187504 0.317222)
(0.145706 0.142276 0.307819)
(0 0 0)
(0 0 0)
(-0.0121991 0.0585753 0.173285)
(0.0108518 0.0148011 0.15927)
(0.00133264 -0.00123787 0.119335)
(0 0 0)
(0 0 0)
(0 0 0)
(0 0 0)
(0 0 0)
(-0.0713043 0.0823033 0.0563506)
(0.0858632 0.119805 0.126036)
(0 0 0)
(0 0 0)
(0 0 0)
(0 0 0)
(-0.0405164 0.114249 0.112905)
(-0.125231 0.234544 0.314369)
(0.0363288 0.202588 0.202863)
(0.00346747 0.0696084 0.193538)
(0.126551 0.0149104 0.245756)
(0 0 0)
(0 0 0)
(0.0275925 0.246711 0.257214)
(-0.0310193 0.188605 0.238668)
(0.0290611 0.146672 0.279914)
(0.130471 0.110771 0.272671)
(0 0 0)
(-0.0341594 0.0101149 0.193097)
(0.0150548 0.15895 0.259238)
(0.0442761 0.0444754 0.239774)
(0 0 0)
(0 0 0)
(0 0 0)
(0 0 0)
(0 0 0)
(0 0 0)
(0.130505 0.153552 0.230459)
(-0.0628202 0.019441 -0.61738)
(0 0 0)
(0 0 0)
(0.0825038 0.10822 0.277283)
(-0.0926537 0.202066 0.291188)
(0 0 0)
(0 0 0)
(0 0 0)
(0 0 0)
(0.0953818 0.170667 0.400619)
(-0.0263626 0.0347971 0.336138)
(-0.00279084 0.0958563 0.303113)
(0 0 0)
(0 0 0)
(-0.167535 0.120692 0.167412)
(-0.0662115 0.0960373 0.264294)
(-0.0383533 -0.0752121 0.259917)
(0 0 0)
(0 0 0)
(0 0 0)
(0 0 0)
(0 0 0)
(0 0 0)
(0 0 0)
(0 0 0)
(0 0 0)
(0 0 0)
(0 0 0)
(0 0 0)
(0 0 0)
(0 0 0)
(0 0 0)
(0 0 0)
(0 0 0)
(0.036207 -0.0316499 0.446817)
(0 0 0)
(0.137795 0.121939 0.455903)
(0 0 0)
(0 0 0)
(-0.0861047 -0.177276 0.165002)
(0.0304132 0.0884296 0.368929)
(0 0 0)
(0 0 0)
(0 0 0)
(0 0 0)
(0 0 0)
(0 0 0)
(0 0 0)
(0 0 0)
(0 0 0)
(0 0 0)
(0 0 0)
(0 0 0)
(0 0 0)
(0 0 0)
(0 0 0)
(0 0 0)
(0 0 0)
(0 0 0)
(0 0 0)
(0 0 0)
(0 0 0)
(0 0 0)
(0 0 0)
(0 0 0)
(0 0 0)
(0 0 0)
(0 0 0)
(0 0 0)
(0 0 0)
(0 0 0)
(0 0 0)
(-0.0715594 0.0132373 -0.586276)
(0 0 0)
(0 0 0)
(0 0 0)
(0 0 0)
(0 0 0)
(0 0 0)
(0 0 0)
(0 0 0)
(0 0 0)
(0 0 0)
(0 0 0)
(0 0 0)
(0 0 0)
(0 0 0)
(0 0 0)
(0 0 0)
(0 0 0)
(0 0 0)
(0 0 0)
(0 0 0)
(0 0 0)
(0 0 0)
(0 0 0)
(0 0 0)
(0 0 0)
(0 0 0)
(0 0 0)
(0 0 0)
(0 0 0)
(0 0 0)
(0 0 0)
(0 0 0)
(0 0 0)
(0 0 0)
(0 0 0)
(0 0 0)
(0 0 0)
(0 0 0)
(0 0 0)
(0 0 0)
(0 0 0)
(0 0 0)
(0 0 0)
(0 0 0)
(0 0 0)
(0 0 0)
(0 0 0)
(0 0 0)
(0 0 0)
(0 0 0)
(0 0 0)
(0 0 0)
(0 0 0)
(0 0 0)
(0 0 0)
(0 0 0)
(0 0 0)
(0 0 0)
(0 0 0)
(0 0 0)
(0 0 0)
(0 0 0)
(0 0 0)
(0 0 0)
(0 0 0)
(0 0 0)
(0 0 0)
(0 0 0)
(0 0 0)
(0 0 0)
(0 0 0)
(0 0 0)
(0 0 0)
(0 0 0)
(0 0 0)
(0 0 0)
(0 0 0)
(0 0 0)
(0 0 0)
(0 0 0)
(0 0 0)
(0 0 0)
(0 0 0)
(0 0 0)
(0 0 0)
(0 0 0)
(0 0 0)
(0 0 0)
(0 0 0)
(0 0 0)
(0 0 0)
(0 0 0)
(0 0 0)
(0 0 0)
(0 0 0)
(0 0 0)
(0 0 0)
(0 0 0)
(0 0 0)
(0 0 0)
(0 0 0)
(0 0 0)
(0 0 0)
(0 0 0)
(0 0 0)
(0 0 0)
(0 0 0)
(0 0 0)
(0 0 0)
(0 0 0)
(0 0 0)
(0 0 0)
(0 0 0)
(0 0 0)
(0 0 0)
(0 0 0)
(0 0 0)
(0 0 0)
(0 0 0)
(0 0 0)
(0 0 0)
(0 0 0)
(0 0 0)
(0 0 0)
(0 0 0)
(0 0 0)
(0 0 0)
(0 0 0)
(0 0 0)
(0 0 0)
(0 0 0)
(0 0 0)
(0 0 0)
(0 0 0)
(0 0 0)
(0 0 0)
(0 0 0)
(0 0 0)
(0 0 0)
(0 0 0)
(0 0 0)
(0 0 0)
(0 0 0)
(0 0 0)
(0 0 0)
(0 0 0)
(0 0 0)
(0 0 0)
(0 0 0)
(0 0 0)
(0 0 0)
(0 0 0)
(0 0 0)
(0 0 0)
(0 0 0)
(0 0 0)
(0 0 0)
(0 0 0)
(0 0 0)
(0 0 0)
(0 0 0)
(0 0 0)
(0 0 0)
(0 0 0)
(0 0 0)
(0 0 0)
(0 0 0)
(0 0 0)
(0 0 0)
(0 0 0)
(0 0 0)
(0 0 0)
(0 0 0)
(0 0 0)
(0 0 0)
(0 0 0)
(0 0 0)
(0 0 0)
(0 0 0)
(0 0 0)
(0 0 0)
(0 0 0)
(0 0 0)
(0 0 0)
(0 0 0)
(0 0 0)
(0 0 0)
(0 0 0)
(0 0 0)
(0 0 0)
(0 0 0)
(0 0 0)
(0 0 0)
(0 0 0)
(0 0 0)
(0 0 0)
(0 0 0)
(0 0 0)
(0 0 0)
(0 0 0)
(0 0 0)
(0 0 0)
(0 0 0)
(0 0 0)
(0 0 0)
(0 0 0)
(0 0 0)
(0 0 0)
(0 0 0)
(0 0 0)
(0 0 0)
(0 0 0)
(0 0 0)
(0 0 0)
(0 0 0)
(0 0 0)
(0 0 0)
(0 0 0)
(0 0 0)
(0 0 0)
(0 0 0)
(0 0 0)
(0 0 0)
(0 0 0)
(0 0 0)
(0 0 0)
(0 0 0)
(0 0 0)
(0 0 0)
(0 0 0)
(0 0 0)
(0 0 0)
(0 0 0)
(0 0 0)
(0 0 0)
(0 0 0)
(0 0 0)
(0 0 0)
(0 0 0)
(0 0 0)
(0 0 0)
(0 0 0)
(0 0 0)
(0 0 0)
(0 0 0)
(0 0 0)
(0 0 0)
(0 0 0)
(0 0 0)
(0 0 0)
(0 0 0)
(0 0 0)
(0 0 0)
(0 0 0)
(0 0 0)
(0 0 0)
(0 0 0)
(0 0 0)
(0 0 0)
(0 0 0)
(0 0 0)
(0 0 0)
(0 0 0)
(0 0 0)
(0 0 0)
(0 0 0)
(0 0 0)
(0 0 0)
(0 0 0)
(0 0 0)
(0 0 0)
(0 0 0)
(0 0 0)
(0 0 0)
(0 0 0)
(0 0 0)
(0 0 0)
(0 0 0)
(0 0 0)
(0 0 0)
(0 0 0)
(0 0 0)
(0 0 0)
(0 0 0)
(0 0 0)
(0 0 0)
(0 0 0)
(0 0 0)
(0 0 0)
(0 0 0)
(0 0 0)
(0 0 0)
(0 0 0)
(0 0 0)
(0 0 0)
(0 0 0)
(0 0 0)
(0 0 0)
(0 0 0)
(0 0 0)
(0 0 0)
(0 0 0)
(0 0 0)
(0 0 0)
(0 0 0)
(0 0 0)
(0 0 0)
(0 0 0)
(0 0 0)
(0 0 0)
(0 0 0)
(0 0 0)
(0 0 0)
(0 0 0)
(0 0 0)
(0 0 0)
(0 0 0)
(0 0 0)
(0 0 0)
(0 0 0)
(0 0 0)
(0 0 0)
(0 0 0)
(0 0 0)
(0 0 0)
(0 0 0)
(0 0 0)
(0 0 0)
(0 0 0)
(0 0 0)
(0 0 0)
(0 0 0)
(0 0 0)
(0 0 0)
(0 0 0)
(0 0 0)
(0 0 0)
(0 0 0)
(0 0 0)
(0 0 0)
(0 0 0)
(0 0 0)
(0 0 0)
(0 0 0)
(0 0 0)
(0 0 0)
(0 0 0)
(0 0 0)
(0 0 0)
(0 0 0)
(0 0 0)
(0 0 0)
(0 0 0)
(0 0 0)
(0 0 0)
(0 0 0)
(0 0 0)
(0 0 0)
(0 0 0)
(0 0 0)
(0 0 0)
(0 0 0)
(0 0 0)
(0 0 0)
(0 0 0)
(0 0 0)
(0 0 0)
(0 0 0)
(0 0 0)
(0 0 0)
(0 0 0)
(0 0 0)
(0 0 0)
(0 0 0)
(0 0 0)
(0 0 0)
(0 0 0)
(0 0 0)
(0 0 0)
(0 0 0)
(0 0 0)
(0 0 0)
(0 0 0)
(0 0 0)
(0 0 0)
(0 0 0)
(0 0 0)
(0 0 0)
(0 0 0)
(0 0 0)
(0 0 0)
(0 0 0)
(0 0 0)
(0 0 0)
(0 0 0)
(0 0 0)
(0 0 0)
(0 0 0)
(0 0 0)
(0 0 0)
(0 0 0)
(0 0 0)
(0 0 0)
(0 0 0)
(0 0 0)
(0 0 0)
(0 0 0)
(0 0 0)
(0 0 0)
(0 0 0)
(0 0 0)
(0 0 0)
(0 0 0)
(0 0 0)
(0 0 0)
(0 0 0)
(0 0 0)
(0 0 0)
(0 0 0)
(0 0 0)
(0 0 0)
(0 0 0)
(0 0 0)
(0 0 0)
(0 0 0)
(0 0 0)
(0 0 0)
(0 0 0)
(0 0 0)
(0 0 0)
(0 0 0)
(0 0 0)
(0 0 0)
(0 0 0)
(0 0 0)
(0 0 0)
(0 0 0)
(0 0 0)
(0 0 0)
(0 0 0)
(0 0 0)
(0 0 0)
(0 0 0)
(0 0 0)
(0 0 0)
(0 0 0)
(0 0 0)
(0 0 0)
(0 0 0)
(0 0 0)
(0 0 0)
(0 0 0)
(0 0 0)
(0 0 0)
(0 0 0)
(0 0 0)
(0 0 0)
(0 0 0)
(0 0 0)
(0 0 0)
(0 0 0)
(0 0 0)
(0 0 0)
(0 0 0)
(0 0 0)
(0 0 0)
(0 0 0)
(0 0 0)
(0 0 0)
(0 0 0)
(0 0 0)
(0 0 0)
(0 0 0)
(0 0 0)
(0 0 0)
(0 0 0)
(0 0 0)
(0 0 0)
(0 0 0)
(0 0 0)
(0 0 0)
(0 0 0)
(0 0 0)
(0 0 0)
(0 0 0)
(0 0 0)
(0 0 0)
(0 0 0)
(0 0 0)
(0 0 0)
(0 0 0)
(0 0 0)
(0 0 0)
(0 0 0)
(0 0 0)
(0 0 0)
(0 0 0)
(0 0 0)
(0 0 0)
(0 0 0)
(0 0 0)
(0 0 0)
(0 0 0)
(0 0 0)
(0 0 0)
(0 0 0)
(0 0 0)
(0 0 0)
(0 0 0)
(0 0 0)
(0 0 0)
(0 0 0)
(0 0 0)
(0 0 0)
(0 0 0)
(0 0 0)
(0 0 0)
(0 0 0)
(0 0 0)
(0 0 0)
(0 0 0)
(0 0 0)
(0 0 0)
(0 0 0)
(0 0 0)
(0 0 0)
(0 0 0)
(0 0 0)
(0 0 0)
(0 0 0)
(0 0 0)
(0 0 0)
(0 0 0)
(0 0 0)
(0 0 0)
(0 0 0)
(0 0 0)
(0 0 0)
(0 0 0)
(0 0 0)
(0 0 0)
(0 0 0)
(0 0 0)
(0 0 0)
(0 0 0)
(0 0 0)
(0 0 0)
(0 0 0)
(0 0 0)
(0 0 0)
(0 0 0)
(0 0 0)
(0 0 0)
(0 0 0)
(0 0 0)
(0 0 0)
(0 0 0)
(0 0 0)
(0 0 0)
(0 0 0)
(0 0 0)
(0 0 0)
(0 0 0)
(0 0 0)
(0 0 0)
(0 0 0)
(0 0 0)
(0 0 0)
(0 0 0)
(0 0 0)
(0 0 0)
(0 0 0)
(0 0 0)
(0 0 0)
(0 0 0)
(0 0 0)
(0 0 0)
(0 0 0)
(0 0 0)
(0 0 0)
(0 0 0)
(0 0 0)
(0 0 0)
(0 0 0)
(0 0 0)
(0 0 0)
(0 0 0)
(0 0 0)
(0 0 0)
(0 0 0)
(0 0 0)
(0 0 0)
(0 0 0)
(0 0 0)
(0 0 0)
(0 0 0)
(0 0 0)
(0 0 0)
(0 0 0)
(0 0 0)
(0 0 0)
(0 0 0)
(0 0 0)
(0 0 0)
(0 0 0)
(0 0 0)
(0 0 0)
(0 0 0)
(0 0 0)
(0 0 0)
(0 0 0)
(0 0 0)
(0 0 0)
(0 0 0)
(0 0 0)
(0 0 0)
(0 0 0)
(0 0 0)
(0 0 0)
(0 0 0)
(0 0 0)
(0 0 0)
(0 0 0)
(0 0 0)
(0 0 0)
(0 0 0)
(0 0 0)
(0 0 0)
(0 0 0)
(0 0 0)
(0 0 0)
(0 0 0)
(0 0 0)
(0 0 0)
(0 0 0)
(0 0 0)
(0 0 0)
(0 0 0)
(0 0 0)
(0 0 0)
(0 0 0)
(0 0 0)
(0 0 0)
(0 0 0)
(0 0 0)
(0 0 0)
(0 0 0)
(0 0 0)
(0 0 0)
(0 0 0)
(0 0 0)
(0 0 0)
(0 0 0)
(0 0 0)
(0 0 0)
(0 0 0)
(0 0 0)
(0 0 0)
(0 0 0)
(0 0 0)
(0 0 0)
(0 0 0)
(0 0 0)
(0 0 0)
(0 0 0)
(0 0 0)
(0 0 0)
(0 0 0)
(0 0 0)
(0 0 0)
(0 0 0)
(0 0 0)
(0 0 0)
(0 0 0)
(0 0 0)
(0 0 0)
(0 0 0)
(0 0 0)
(0 0 0)
(0 0 0)
(0 0 0)
(0 0 0)
(0 0 0)
(0 0 0)
(0 0 0)
(0 0 0)
(0 0 0)
(0 0 0)
(0 0 0)
(0 0 0)
(0 0 0)
(0 0 0)
(0 0 0)
(0 0 0)
(0 0 0)
(0 0 0)
(0 0 0)
(0 0 0)
(0 0 0)
(0 0 0)
(0 0 0)
(0 0 0)
(0 0 0)
(0 0 0)
(0 0 0)
(0 0 0)
(0 0 0)
(0 0 0)
(0 0 0)
(0 0 0)
(0 0 0)
(0 0 0)
(0 0 0)
(0 0 0)
(0 0 0)
(0 0 0)
(0 0 0)
(0 0 0)
(0 0 0)
(0 0 0)
(0 0 0)
(0 0 0)
(0 0 0)
(0 0 0)
(0 0 0)
(0 0 0)
(0 0 0)
(0 0 0)
(0 0 0)
(0 0 0)
(0 0 0)
(0 0 0)
(0 0 0)
(0 0 0)
(0 0 0)
(0 0 0)
(0 0 0)
(0 0 0)
(0 0 0)
(0 0 0)
(0 0 0)
(0 0 0)
(0 0 0)
(0 0 0)
(0 0 0)
(0 0 0)
(0 0 0)
(0 0 0)
(0 0 0)
(0 0 0)
(0 0 0)
(0 0 0)
(0 0 0)
(0 0 0)
(0 0 0)
(0 0 0)
(0 0 0)
(0 0 0)
(0 0 0)
(0 0 0)
(0 0 0)
(0 0 0)
(0 0 0)
(0 0 0)
(0 0 0)
(0 0 0)
(0 0 0)
(0 0 0)
(0 0 0)
(0 0 0)
(0 0 0)
(0 0 0)
(0 0 0)
(0 0 0)
(0 0 0)
(0 0 0)
(0 0 0)
(0 0 0)
(0 0 0)
(0 0 0)
(0 0 0)
(0 0 0)
(0 0 0)
(0 0 0)
(0 0 0)
(0 0 0)
(0 0 0)
(0 0 0)
(0 0 0)
(0 0 0)
(0 0 0)
(0 0 0)
(0 0 0)
(0 0 0)
(0 0 0)
(0 0 0)
(0 0 0)
(0 0 0)
(0 0 0)
(0 0 0)
(0 0 0)
(0 0 0)
(0 0 0)
(0 0 0)
(0 0 0)
(0 0 0)
(0 0 0)
(0 0 0)
(0 0 0)
(0 0 0)
(0 0 0)
(0 0 0)
(0 0 0)
(0 0 0)
(0 0 0)
(0 0 0)
(0 0 0)
(0 0 0)
(0 0 0)
(0 0 0)
(0 0 0)
(0 0 0)
(0 0 0)
(0 0 0)
(0 0 0)
(0 0 0)
(0 0 0)
(0 0 0)
(0 0 0)
(0 0 0)
(0 0 0)
(0 0 0)
(0 0 0)
(0 0 0)
(0 0 0)
(0 0 0)
(0 0 0)
(0 0 0)
(0 0 0)
(0 0 0)
(0 0 0)
(0 0 0)
(0 0 0)
(0 0 0)
(0 0 0)
(0 0 0)
(0 0 0)
(0 0 0)
(0 0 0)
(0 0 0)
(0 0 0)
(0 0 0)
(0 0 0)
(0 0 0)
(0 0 0)
(0 0 0)
(0 0 0)
(0 0 0)
(0 0 0)
(0 0 0)
(0 0 0)
(0 0 0)
(0 0 0)
(0 0 0)
(0 0 0)
(0 0 0)
(0 0 0)
(0 0 0)
(0 0 0)
(0 0 0)
(0 0 0)
(0 0 0)
(0 0 0)
(0 0 0)
(0 0 0)
(0 0 0)
(0 0 0)
(0 0 0)
(0 0 0)
(0 0 0)
(0 0 0)
(0 0 0)
(0 0 0)
(0 0 0)
(0 0 0)
(0 0 0)
(0 0 0)
(0 0 0)
(0 0 0)
(0 0 0)
(0 0 0)
(0 0 0)
(0 0 0)
(0 0 0)
(0 0 0)
(0 0 0)
(0 0 0)
(0 0 0)
(0 0 0)
(0 0 0)
(0 0 0)
(0 0 0)
(0 0 0)
(0 0 0)
(0 0 0)
(0 0 0)
(0 0 0)
(0 0 0)
(0 0 0)
(0 0 0)
(0 0 0)
(0 0 0)
(0 0 0)
(0 0 0)
(0 0 0)
(0 0 0)
(0 0 0)
(0 0 0)
(0 0 0)
(0 0 0)
(0 0 0)
(0 0 0)
(0 0 0)
(0 0 0)
(0 0 0)
(0 0 0)
(0 0 0)
(0 0 0)
(0 0 0)
(0 0 0)
(0 0 0)
(0 0 0)
(0 0 0)
(0 0 0)
(0 0 0)
(0 0 0)
(0 0 0)
(0 0 0)
(0 0 0)
(0 0 0)
(0 0 0)
(0 0 0)
(0 0 0)
(0 0 0)
(0 0 0)
(0 0 0)
(0 0 0)
(0 0 0)
(0 0 0)
(0 0 0)
(0 0 0)
(0 0 0)
(0 0 0)
(0 0 0)
(0 0 0)
(0 0 0)
(0 0 0)
(0 0 0)
(0 0 0)
(0 0 0)
(0 0 0)
(0 0 0)
(0 0 0)
(0 0 0)
(0 0 0)
(0 0 0)
(0 0 0)
(0 0 0)
(0 0 0)
(0 0 0)
(0 0 0)
(0 0 0)
(0 0 0)
(0 0 0)
(0 0 0)
(0 0 0)
(0 0 0)
(0 0 0)
(0 0 0)
(0 0 0)
(0 0 0)
(0 0 0)
(0 0 0)
(0 0 0)
(0 0 0)
(0 0 0)
(0 0 0)
(0 0 0)
(0 0 0)
(0 0 0)
(0 0 0)
(0 0 0)
(0 0 0)
(0 0 0)
(0 0 0)
(0 0 0)
(0 0 0)
(0 0 0)
(0 0 0)
(0 0 0)
(0 0 0)
(0 0 0)
(0 0 0)
(0 0 0)
(0 0 0)
(0 0 0)
(0 0 0)
(0 0 0)
(0 0 0)
(0 0 0)
(0 0 0)
(0 0 0)
(0 0 0)
(0 0 0)
(0 0 0)
(0 0 0)
(0 0 0)
(0 0 0)
(0 0 0)
(0 0 0)
(0 0 0)
(0 0 0)
(0 0 0)
(0 0 0)
(0 0 0)
(0 0 0)
(0 0 0)
(0 0 0)
(0 0 0)
(0 0 0)
(0 0 0)
(0 0 0)
(0 0 0)
(0 0 0)
(0 0 0)
(0 0 0)
(0 0 0)
(0 0 0)
(0 0 0)
(0 0 0)
(0 0 0)
(0 0 0)
(0 0 0)
(0 0 0)
(0 0 0)
(0 0 0)
(0 0 0)
(0 0 0)
(0 0 0)
(0 0 0)
(0 0 0)
(0 0 0)
(0 0 0)
(0 0 0)
(0 0 0)
(0 0 0)
(0 0 0)
(0 0 0)
(0 0 0)
(0 0 0)
(0 0 0)
(0 0 0)
(0 0 0)
(0 0 0)
(0 0 0)
(0 0 0)
(0 0 0)
(0 0 0)
(0 0 0)
(0 0 0)
(0 0 0)
(0 0 0)
(0 0 0)
(0 0 0)
(0 0 0)
(0 0 0)
(0 0 0)
(0 0 0)
(0 0 0)
(0 0 0)
(0 0 0)
(0 0 0)
(0 0 0)
(0 0 0)
(0 0 0)
(0 0 0)
(0 0 0)
(0 0 0)
(0 0 0)
(0 0 0)
(0 0 0)
(0 0 0)
(0 0 0)
(0 0 0)
(0 0 0)
(0 0 0)
(0 0 0)
(0 0 0)
(0 0 0)
(0 0 0)
(0 0 0)
(0 0 0)
(0 0 0)
(0 0 0)
(0 0 0)
(0 0 0)
(0 0 0)
(0 0 0)
(0 0 0)
(0 0 0)
(0 0 0)
(0 0 0)
(0 0 0)
(0 0 0)
(0 0 0)
(0 0 0)
(0 0 0)
(0 0 0)
(0 0 0)
(0 0 0)
(0 0 0)
(0 0 0)
(0 0 0)
(0 0 0)
(0 0 0)
(0 0 0)
(0 0 0)
(0 0 0)
(0 0 0)
(0 0 0)
(0 0 0)
(0 0 0)
(0 0 0)
(0 0 0)
(0 0 0)
(0 0 0)
(0 0 0)
(0 0 0)
(0 0 0)
(0 0 0)
(0 0 0)
(0 0 0)
(0 0 0)
(0 0 0)
(0 0 0)
(0 0 0)
(0 0 0)
(0 0 0)
(0 0 0)
(0 0 0)
(0 0 0)
(0 0 0)
(0 0 0)
(0 0 0)
(0 0 0)
(0 0 0)
(0 0 0)
(0 0 0)
(0 0 0)
(0 0 0)
(0 0 0)
(0 0 0)
(0 0 0)
(0 0 0)
(0 0 0)
(0 0 0)
(0 0 0)
(0 0 0)
(0 0 0)
(0 0 0)
(0 0 0)
(0 0 0)
(0 0 0)
(0 0 0)
(0 0 0)
(0 0 0)
(0 0 0)
(0 0 0)
(0 0 0)
(0 0 0)
(0 0 0)
(0 0 0)
(0 0 0)
(0 0 0)
(0 0 0)
(0 0 0)
(0 0 0)
(0 0 0)
(0 0 0)
(0 0 0)
(0 0 0)
(0 0 0)
(0 0 0)
(0 0 0)
(0 0 0)
(0 0 0)
(0 0 0)
(0 0 0)
(0 0 0)
(0 0 0)
(0 0 0)
(0 0 0)
(0 0 0)
(0 0 0)
(0 0 0)
(0 0 0)
(0 0 0)
(0 0 0)
(0 0 0)
(0 0 0)
(0 0 0)
(0 0 0)
(0 0 0)
(0 0 0)
(0 0 0)
(0 0 0)
(0 0 0)
(0 0 0)
(0 0 0)
(0 0 0)
(0 0 0)
(0 0 0)
(0 0 0)
(0 0 0)
(0 0 0)
(0 0 0)
(0 0 0)
(0 0 0)
(0 0 0)
(0 0 0)
(0 0 0)
(0 0 0)
(0 0 0)
(0 0 0)
(0 0 0)
(0 0 0)
(0 0 0)
(0 0 0)
(0 0 0)
(0 0 0)
(0 0 0)
(0 0 0)
(0 0 0)
(0 0 0)
(0 0 0)
(0 0 0)
(0 0 0)
(0 0 0)
(0 0 0)
(0 0 0)
(0 0 0)
(0 0 0)
(0 0 0)
(0 0 0)
(0 0 0)
(0 0 0)
(0 0 0)
(0 0 0)
(0 0 0)
(0 0 0)
(0 0 0)
(0 0 0)
(0 0 0)
(0 0 0)
(0 0 0)
(0 0 0)
(0 0 0)
(0 0 0)
(0 0 0)
(0 0 0)
(0 0 0)
(0 0 0)
(0 0 0)
(0 0 0)
(0 0 0)
(0 0 0)
(0 0 0)
(0 0 0)
(0 0 0)
(0 0 0)
(0 0 0)
(0 0 0)
(0 0 0)
(0 0 0)
(0 0 0)
(0 0 0)
(0 0 0)
(0 0 0)
(0 0 0)
(0 0 0)
(0 0 0)
(0 0 0)
(0 0 0)
(0 0 0)
(0 0 0)
(0 0 0)
(0 0 0)
(0 0 0)
(0 0 0)
(0 0 0)
(0 0 0)
(0 0 0)
(0 0 0)
(0 0 0)
(0 0 0)
(0 0 0)
(0 0 0)
(0 0 0)
(0 0 0)
(0 0 0)
(0 0 0)
(0 0 0)
(0 0 0)
(0 0 0)
(0 0 0)
(0 0 0)
(0 0 0)
(0 0 0)
(0 0 0)
(0 0 0)
(0 0 0)
(0 0 0)
(0 0 0)
(0 0 0)
(0 0 0)
(0 0 0)
(0 0 0)
(0 0 0)
(0 0 0)
(0 0 0)
(0 0 0)
(0 0 0)
(0 0 0)
(0 0 0)
(0 0 0)
(0 0 0)
(0 0 0)
(0 0 0)
(0 0 0)
(0 0 0)
(0 0 0)
(0 0 0)
(0 0 0)
(0 0 0)
(0 0 0)
(0 0 0)
(0 0 0)
(0 0 0)
(0 0 0)
(0 0 0)
(0 0 0)
(0 0 0)
(0 0 0)
(0 0 0)
(0 0 0)
(0 0 0)
(0 0 0)
(0 0 0)
(0 0 0)
(0 0 0)
(0 0 0)
(0 0 0)
(0 0 0)
(0 0 0)
(0 0 0)
(0 0 0)
(0 0 0)
(0 0 0)
(0 0 0)
(0 0 0)
(0 0 0)
(0 0 0)
(0 0 0)
(0 0 0)
(0 0 0)
(0 0 0)
(0 0 0)
(0 0 0)
(0 0 0)
(0 0 0)
(0 0 0)
(0 0 0)
(0 0 0)
(0 0 0)
(0 0 0)
(0 0 0)
(0 0 0)
(0 0 0)
(0 0 0)
(0 0 0)
(0 0 0)
(0 0 0)
(0 0 0)
(0 0 0)
(0 0 0)
(0 0 0)
(0 0 0)
(0 0 0)
(0 0 0)
(0 0 0)
(0 0 0)
(0 0 0)
(0 0 0)
(0 0 0)
(0 0 0)
(0 0 0)
(0 0 0)
(0 0 0)
(0 0 0)
(0 0 0)
(0 0 0)
(0 0 0)
(0 0 0)
(0 0 0)
(0 0 0)
(0 0 0)
(0 0 0)
(0 0 0)
(0 0 0)
(0 0 0)
(0 0 0)
(0 0 0)
(0 0 0)
(0 0 0)
(0 0 0)
(0 0 0)
(0 0 0)
(0 0 0)
(0 0 0)
(0 0 0)
(0 0 0)
(0 0 0)
(0 0 0)
(0 0 0)
(0 0 0)
(0 0 0)
(0 0 0)
(0 0 0)
(0 0 0)
(0 0 0)
(0 0 0)
(0 0 0)
(0 0 0)
(0 0 0)
(0 0 0)
(0 0 0)
(0 0 0)
(0 0 0)
(0 0 0)
(0 0 0)
(0 0 0)
(0 0 0)
(0 0 0)
(0 0 0)
(0 0 0)
(0 0 0)
(0 0 0)
(0 0 0)
(0 0 0)
(0 0 0)
(0 0 0)
(0 0 0)
(0 0 0)
(0 0 0)
(0 0 0)
(0 0 0)
(0 0 0)
(0 0 0)
(0 0 0)
(0 0 0)
(0 0 0)
(0 0 0)
(0 0 0)
(0 0 0)
(0 0 0)
(0 0 0)
(0 0 0)
(0 0 0)
(0 0 0)
(0 0 0)
(0 0 0)
(0 0 0)
(0 0 0)
(0 0 0)
(0 0 0)
(0 0 0)
(0 0 0)
(0 0 0)
(0 0 0)
(0 0 0)
(0 0 0)
(0 0 0)
(0 0 0)
(0 0 0)
(0 0 0)
(0 0 0)
(0 0 0)
(0 0 0)
(0 0 0)
(0 0 0)
(0 0 0)
(0 0 0)
(0 0 0)
(0 0 0)
(0 0 0)
(0 0 0)
(0 0 0)
(0 0 0)
(0 0 0)
(0 0 0)
(0 0 0)
(0 0 0)
(0 0 0)
(-0.134706 0.139944 -0.0222892)
(-0.0101676 0.0382214 -0.0657743)
(-0.173164 0.158383 -0.0690707)
(-0.0905934 0.134841 -0.0616113)
(-0.0359256 0.017999 -0.0289626)
(-0.154139 0.0632871 0.0254689)
(-0.218155 0.0283648 -0.0224058)
(-0.105355 0.0156235 -0.0781747)
(0.0135895 -0.00855716 -0.00117128)
(-0.0121535 0.0121182 0.00890461)
(-0.142578 0.207616 0.0431222)
(-0.00304383 -0.00713366 0.0147835)
(-0.0731022 0.141038 0.0382155)
(-0.220336 0.257973 0.00524163)
(-0.165269 0.235317 0.00698013)
(-0.2645 0.284034 0.0313893)
(-0.342554 0.285833 0.0353806)
(-0.321675 0.204917 0.0575313)
(-0.2886 0.162054 -0.0362772)
(-0.412674 0.2465 0.0309472)
(-0.291622 0.258816 -0.00352813)
(-0.0887967 0.130668 -0.0724593)
(0.0225473 0.114914 -0.0563504)
(-0.135633 0.270958 -0.0153117)
(0.0213827 0.220999 -0.00144813)
(0.0183183 0.113998 -0.0296357)
(0.0450819 -0.0169189 0.00150887)
(0.0554044 -0.0603569 -0.0650393)
(0.112739 -0.0564555 -0.0212863)
(0.0259676 -0.0292436 0.0275362)
(-0.079725 0.0846612 0.032458)
(0.104805 -0.028968 0.0253216)
(0.0207826 0.0770331 0.0507372)
(-0.220945 0.260979 0.0329983)
(-0.394282 0.314519 0.00859269)
(-0.0806064 0.23074 0.0515671)
(-0.293045 0.366538 0.0177055)
(-0.350989 0.291673 -0.0143296)
(-0.242308 0.316089 -0.0284188)
(-0.309603 0.378698 -0.0243502)
(-0.242067 0.421992 -0.0189506)
(-0.156599 0.357762 0.00448046)
(-0.0350348 0.309254 0.0355434)
(-0.191284 0.449652 0.0353935)
(-0.148617 0.305411 -0.00193995)
(-0.0107888 0.140118 -0.0136704)
(-0.0457577 0.173909 -0.040356)
(0.0216225 0.0971307 -0.0141723)
(0.0591439 -0.0457727 -0.0936541)
(0.154853 -0.0635544 -0.0352345)
(0.140193 0.0118933 -0.069341)
(0.233613 -0.040299 0.0464)
(0.106615 0.0871843 0.045348)
(0.281974 0.0582308 0.00284759)
(0.194519 0.129636 0.0220531)
(-0.0624611 0.217763 0.0549578)
(-0.240407 0.334295 0.0428666)
(0.00969172 0.201795 0.0443997)
(-0.179479 0.266141 0.0221842)
(-0.361489 0.492263 0.0204599)
(-0.335697 0.556803 0.0411155)
(-0.195666 0.300503 0.0269109)
(-0.415432 0.537815 0.056762)
(-0.285516 0.471848 0.0486806)
(-0.196037 0.332408 0.00706785)
(-0.365676 0.366649 0.0584935)
(-0.250136 0.182596 0.0254012)
(-0.0601271 0.181654 -0.00399112)
(-0.00858222 0.0241969 -0.00374019)
(-0.123186 0.0836493 -0.0457528)
(0.132962 0.0751397 -0.0638992)
(0.2181 0.0968725 -0.0235409)
(0.242962 0.121879 0.00578154)
(0.113292 0.0833506 -0.0010486)
(0.131206 0.0889664 0.00242666)
(0.110777 0.155542 0.0133961)
(-0.233022 0.241287 0.000514493)
(-0.0537718 0.0693343 -0.00543551)
(-0.230235 0.244377 0.00915214)
(-0.30326 0.264161 0.0184159)
(-0.355313 0.275 0.0167016)
(-0.250276 0.298877 0.00312849)
(-0.196713 0.216495 0.00288767)
(-0.320791 0.158224 0.0398969)
(-0.221914 0.0531783 -0.0143677)
(-0.193282 0.0955419 -0.0127747)
(-0.117099 0.00705728 -0.0470619)
(-0.106042 0.0349141 -0.0646584)
(0.00919957 0.0160356 -0.00940553)
(-0.0240379 0.0328637 -0.00355137)
(-0.161457 0.202186 -0.0353678)
(-0.137905 0.0776295 -0.151495)
(-0.0981905 0.174252 -0.00636932)
(-0.0580427 0.0811018 -0.00168478)
(-0.0822252 0.0839945 -0.127651)
(-0.07183 0.0507775 -0.0553547)
(-0.109164 0.0878024 -0.0443351)
(-0.0107914 0.029403 -0.0819412)
(0.0113677 0.036737 -0.171201)
(-0.120259 0.117878 -0.133198)
(-0.0416251 0.133414 -0.154673)
(0.00469681 0.0175029 -0.254431)
(-0.0398278 0.0778589 -0.202032)
(-0.0367256 0.0957645 -0.241909)
(-0.0463268 0.126014 0.0401485)
(-0.172594 0.0414546 -0.122769)
(0.00693179 0.0120511 -0.198857)
(-0.0318292 0.103683 -0.0567634)
(-0.0551846 0.0443796 -0.229563)
(-0.076455 0.00326843 -0.214273)
(-0.0546071 0.00196057 -0.307629)
(-0.0328887 0.021888 -0.0151268)
(-0.197068 0.0671705 -0.00596987)
(-0.168747 0.174157 0.0949227)
(-0.104481 0.0374645 0.159937)
(-0.23037 0.249642 0.171596)
(-0.0192454 0.0118745 0.0327165)
(-0.0911421 0.0948064 0.127496)
(-0.244972 0.116906 0.166363)
(-0.24515 0.205976 0.160947)
(-0.00737036 0.0523828 -0.157561)
(-0.118138 0.181411 -0.0792273)
(-0.0629399 0.124961 -0.0430538)
(-0.0789365 0.041557 -0.309684)
(-0.0294732 0.00108715 -0.241038)
(-0.0905251 0.0851726 -0.222778)
(-0.0595302 0.0381774 -0.160828)
(-0.00279796 0.0502035 -0.104779)
(-0.00746734 -0.00144462 -0.20663)
(-0.0965382 0.0701393 -0.00900176)
(0.0246599 0.0234737 -0.225162)
(-0.0301508 0.0377073 -0.0270057)
(-0.285598 0.127882 -0.0229378)
(-0.00272042 0.101401 -0.332791)
(-0.209512 0.146206 -0.0566893)
(-0.0974076 0.0176588 -0.094664)
(-0.0227544 0.0017787 -0.0692615)
(-0.0683646 0.00932614 -0.14594)
(-0.0927822 -0.0049697 -0.187481)
(-0.0218718 -0.0123282 -0.199058)
(0.0873797 -0.0445685 -0.120997)
(0.0813904 -0.0136305 -0.193175)
(-0.000889226 0.0293466 -0.368303)
(0.00810385 -0.0345437 -0.296438)
(0.020357 -0.0312321 -0.324941)
(-0.0256722 0.0368058 -0.0689255)
(-0.104062 0.0574212 -0.1378)
(-0.102305 0.0261362 -0.207001)
(-0.0255202 0.0198948 -0.19455)
(-0.067188 0.0483948 -0.230966)
(0.0788588 0.0468956 -0.193896)
(0.0044444 -0.0243375 -0.358024)
(0.0346706 0.193193 0.0169917)
(0.121054 0.10603 -0.0506516)
(0.0558891 0.129142 -0.0543521)
(-0.00796928 -0.0433058 -0.26908)
(-0.297597 0.363242 0.0274085)
(0.0534635 0.0038804 -0.201057)
(-0.0746441 0.128343 -0.0908195)
(-0.175245 0.0428669 -0.0974768)
(-0.105477 0.018202 -0.223225)
(-0.103304 0.040576 -0.188462)
(-0.273863 0.170774 0.0986935)
(-0.110881 0.0311511 -0.259212)
(-0.0644912 0.00485711 -0.304469)
(-0.0928653 0.0562752 -0.309456)
(-0.0671702 0.0633936 -0.254491)
(-0.0347077 0.0109433 -0.241725)
(-0.030068 0.00570253 -0.167592)
(-0.308295 0.368644 -0.0673852)
(-0.207979 0.198201 -0.223668)
(-0.348815 0.350481 -0.0386935)
(-0.304599 0.346782 -0.0481358)
(-0.231075 0.248248 -0.0817514)
(-0.146968 0.163495 -0.0690992)
(-0.0861718 0.0926689 -0.258233)
(-0.159705 0.178744 -0.0746962)
(-0.118678 0.0501427 -0.0702554)
(-0.041608 0.0751721 -0.292365)
(-0.0195802 0.00445353 -0.318901)
(0.0485008 -0.00429691 -0.210484)
(0.0370983 -0.00387217 -0.318865)
(0.0137791 0.0111191 -0.323468)
(0.020961 0.0422947 -0.286771)
(-0.00104065 0.0654821 -0.303511)
(0.0302496 0.00591968 -0.374566)
(0.046961 0.0140904 -0.346478)
(0.0343883 0.0349754 -0.369044)
(-0.01939 0.0631347 -0.227092)
(-0.025287 0.0277617 -0.330819)
(0.0361248 0.0051774 -0.395031)
(0.0176182 0.0195946 -0.365834)
(0.00260304 0.0151247 -0.403072)
(-0.0315874 -0.00993976 -0.364005)
(-0.0169793 -0.0103053 -0.404123)
(-0.131793 0.0443667 -0.0489333)
(-0.00204113 0.0519728 -0.224722)
(-0.00459433 0.00610786 0.037017)
(-0.208848 0.0944297 0.0528718)
(-0.168785 0.111578 0.074043)
(0.00206009 0.00391104 -0.285255)
(0.0465271 -0.0170614 -0.0927206)
(-0.0161916 0.035407 -0.0777286)
(0.0199364 -0.0251907 -0.0404714)
(-0.0240444 -0.0240871 -0.31228)
(-0.0433882 0.0443022 -0.293163)
(-0.027801 -0.00108639 -0.274785)
(-0.036992 4.1536e-05 -0.40432)
(-0.0234668 -0.02502 -0.352192)
(-0.0019331 0.0196884 -0.338296)
(-0.00901499 -0.0181739 -0.320989)
(-0.0149136 -0.0164767 -0.307064)
(-0.0144415 -0.0159189 -0.328965)
(-0.1702 0.0917346 -0.0628789)
(-0.0138764 0.0922089 -0.312497)
(-0.0254999 0.000677344 -0.156785)
(-0.00619753 0.0679283 -0.207308)
(-0.0194982 0.0926437 -0.303772)
(-0.028669 -0.0312024 -0.150018)
(-0.0424755 -0.00673809 -0.289245)
(-0.0119439 0.025714 -0.30873)
(-0.0250896 -0.0288116 -0.328571)
(-0.0067101 -0.0254213 -0.310512)
(-0.00336794 0.0472691 -0.343315)
(-0.0117603 -0.0535884 -0.311789)
(-0.0100545 -0.0451204 -0.369663)
(-0.0066115 0.0422052 -0.319442)
(-0.0189424 -0.0584591 -0.276668)
(-0.0128616 -0.0513454 -0.333061)
(-0.0157326 0.04318 -0.316072)
(-0.0540707 0.0608898 -0.327768)
(-0.0178266 0.0311042 -0.335838)
(-0.0130077 0.0554628 -0.362055)
(-0.0364951 0.0758533 -0.385056)
(-0.0239583 -0.0548498 -0.384034)
(-0.0244069 -0.0610539 -0.347776)
(-0.257841 0.28184 0.0533484)
(0.0428878 -0.000586743 -0.166409)
(0.0130226 0.0293754 -0.0766085)
(-0.020189 -0.0681695 -0.204686)
(-0.131053 0.163721 0.0870172)
(0.0314977 -0.0148383 -0.11664)
(-0.0435911 0.0533214 0.00338651)
(-0.0712399 0.0619378 -0.336217)
(-0.0460723 0.0140426 -0.293723)
(-0.064047 0.0588789 -0.357713)
(-0.0204857 -0.0407434 -0.108803)
(-0.0279144 0.0678544 -0.335947)
(-0.0229844 0.019691 -0.255577)
(-0.0313626 0.0578714 -0.360765)
(-0.0451501 0.0828026 -0.414098)
(-0.0493239 0.0228299 -0.0665661)
(-0.0310493 0.0155268 -0.0201293)
(-0.211014 0.148879 -0.0259499)
(-0.0901678 0.0335266 -0.184178)
(-0.129662 -0.00134594 -0.0103482)
(-0.176871 0.0744589 -0.0177999)
(-0.0181488 -0.0263835 -0.231375)
(-0.0585763 0.0174751 -0.0532933)
(0.00194065 0.00125152 -0.384015)
(-0.0280589 -0.0241325 -0.167985)
(0.00792885 -0.0321733 -0.0828403)
(0.0220721 -0.00962153 -0.381378)
(-0.0163614 0.00436213 -0.254492)
(0.0167161 -0.00291487 -0.380119)
(-0.00564435 0.00501862 -0.40324)
(0.026925 0.0029376 -0.419131)
(0.0420468 -0.00329803 -0.371037)
(0.0395627 0.00609491 -0.400914)
(0.022257 -0.00383102 -0.436539)
(0.0214491 -0.010935 -0.384971)
(0.0388144 -0.0158148 -0.399189)
(0.0290995 -0.00266372 -0.394014)
(0.0239835 0.0112248 -0.410542)
(0.0276939 0.000327971 -0.414474)
(0.0380526 -0.00871018 -0.389772)
(0.0384812 0.0123744 -0.394514)
(0.000575415 0.00417875 -0.40752)
(0.0148429 0.0085712 -0.386455)
(-0.0160675 0.0654942 -0.285189)
(-0.036645 0.079355 -0.330599)
(0.0477379 -0.0184108 -0.124339)
(0.0297971 0.0491586 -0.202069)
(0.0581798 -0.0500191 -0.0386605)
(-0.0374186 0.0397695 -0.348874)
(0.0246472 0.0229015 -0.221271)
(0.0112717 0.0536074 -0.239113)
(0.0570509 -0.0431693 -0.0295164)
(-0.0216283 -0.0228099 -0.367205)