# Probe 0 (0 0 0.01)
#       Probe             0
#        Time
       2.8501       101.289
       2.8502       112.805
       2.8503       110.523
       2.8504       107.847
       2.8505       104.469
       2.8506       100.125
       2.8507       94.8592
       2.8508       88.6181
       2.8509       81.5023
        2.851       72.3801
       2.8511       63.5658
       2.8512        60.201
       2.8513       57.1757
       2.8514        54.491
       2.8515       51.8886
       2.8516       49.5788
       2.8517       47.4776
       2.8518       45.5103
       2.8519       43.7173
        2.852       42.0523
       2.8521        39.863
       2.8522       38.1242
       2.8523       36.8674
       2.8524       35.9349
       2.8525       35.2636
       2.8526       34.6883
       2.8527       34.2806
       2.8528       33.9094
       2.8529       33.6398
        2.853       33.3831
       2.8531       33.7571
       2.8532       33.9611
       2.8533       34.1079
       2.8534       34.1884
       2.8535       34.2711
       2.8536       34.3187
       2.8537       34.3488
       2.8538       34.3533
       2.8539       34.3417
        2.854       34.3086
       2.8541       34.2156
       2.8542       34.0939
       2.8543       33.9989
       2.8544       33.9035
       2.8545       33.8221
       2.8546       33.7226
       2.8547       33.6383
       2.8548       33.5397
       2.8549       33.4612
        2.855       33.3716
       2.8551       33.3963
       2.8552       33.3749
       2.8553        33.357
       2.8554       33.3412
       2.8555       33.3274
       2.8556       33.3029
       2.8557       33.2806
       2.8558       33.2386
       2.8559       33.2057
        2.856       33.1733
       2.8561         33.11
       2.8562       33.0871
       2.8563       33.0527
       2.8564       33.0354
       2.8565       32.9938
       2.8566       32.9686
       2.8567       32.9434
       2.8568       32.9255
       2.8569       32.9063
        2.857        32.893
       2.8571       32.8151
       2.8572       32.7832
       2.8573       32.7489
       2.8574        32.717
       2.8575       32.6763
       2.8576       32.6415
       2.8577        32.604
       2.8578       32.5893
       2.8579       32.5851
        2.858       32.5815
       2.8581       32.6026
       2.8582       32.6144
       2.8583       32.6297
       2.8584       32.6416
       2.8585       32.6545
       2.8586       32.6644
       2.8587       32.6734
       2.8588        32.717
       2.8589       32.6954
        2.859       32.7407
       2.8591       32.7584
       2.8592       32.7589
       2.8593       32.8135
       2.8594       32.7916
       2.8595       32.8513
       2.8596        32.848
       2.8597       32.8877
       2.8598       32.8917
       2.8599       32.9269
         2.86       32.9387
       2.8601       32.9723
       2.8602       32.9861
       2.8603        33.023
       2.8604       33.0455
       2.8605       33.0708
       2.8606       33.0869
       2.8607       33.1202
       2.8608       33.1377
       2.8609       33.1707
        2.861       33.1891
       2.8611       33.3614
       2.8612       33.5082
       2.8613       33.6428
       2.8614       33.7715
       2.8615       33.8769
       2.8616        33.966
       2.8617       34.0389
       2.8618       34.1036
       2.8619       34.1627
        2.862       34.2197
       2.8621       34.1103
       2.8622       34.0476
       2.8623       34.0055
       2.8624        33.981
       2.8625       33.9745
       2.8626       33.9678
       2.8627       33.9832
       2.8628       33.9956
       2.8629       34.0209
        2.863       34.0272
       2.8631       34.2963
       2.8632       34.5797
       2.8633       34.8838
       2.8634       35.1332
       2.8635       35.3672
       2.8636       35.5762
       2.8637       35.7836
       2.8638       35.9481
       2.8639       36.0943
        2.864       36.2357
       2.8641       36.2327
       2.8642       36.1529
       2.8643       36.0673
       2.8644       36.0104
       2.8645       35.9712
       2.8646       35.9636
       2.8647       35.9647
       2.8648       35.9699
       2.8649       35.9706
        2.865       35.9611
       2.8651       35.8709
       2.8652       35.9817
       2.8653       36.0637
       2.8654       36.1689
       2.8655       36.2779
       2.8656       36.3577
       2.8657       36.4341
       2.8658       36.4998
       2.8659       36.5776
        2.866       36.6422
       2.8661       36.6276
       2.8662       36.6471
       2.8663       36.6561
       2.8664       36.6918
       2.8665       36.7306
       2.8666       36.7714
       2.8667        36.816
       2.8668       36.8538
       2.8669       36.8818
        2.867       36.8966
       2.8671       36.9789
       2.8672       37.0459
       2.8673       37.1106
       2.8674       37.1711
       2.8675         37.23
       2.8676       37.2734
       2.8677       37.3111
       2.8678       37.3665
       2.8679       37.4155
        2.868       37.4699
       2.8681        37.293
       2.8682       37.3349
       2.8683       37.3823
       2.8684       37.4384
       2.8685       37.4975
       2.8686       37.5605
       2.8687        37.627
       2.8688       37.6838
       2.8689       37.7483
        2.869       37.7951
       2.8691       37.9202
       2.8692       38.0117
       2.8693       38.0969
       2.8694        38.189
       2.8695       38.2593
       2.8696       38.3407
       2.8697       38.4109
       2.8698       38.4913
       2.8699       38.5654
         2.87       38.6335
       2.8701       38.6582
       2.8702       38.7559
       2.8703       38.8594
       2.8704       38.9909
       2.8705       39.0956
       2.8706       39.2127
       2.8707       39.3223
       2.8708       39.4412
       2.8709       39.5521
        2.871       39.6635
       2.8711       39.5549
       2.8712       39.6856
       2.8713         39.83
       2.8714       40.0154
       2.8715       40.1816
       2.8716       40.2816
       2.8717       40.3744
       2.8718       40.4868
       2.8719       40.6094
        2.872       40.7139
       2.8721       40.8791
       2.8722       41.0635
       2.8723        41.243
       2.8724       41.4142
       2.8725       41.5556
       2.8726       41.7093
       2.8727       41.8442
       2.8728       41.9524
       2.8729       42.0623
        2.873       42.1612
       2.8731       42.0152
       2.8732       42.1084
       2.8733       42.2044
       2.8734       42.2919
       2.8735       42.3854
       2.8736       42.4878
       2.8737       42.5979
       2.8738       42.6913
       2.8739       42.7958
        2.874       42.8923
       2.8741       43.0071
       2.8742       43.1438
       2.8743       43.2743
       2.8744       43.4124
       2.8745       43.5496
       2.8746       43.6798
       2.8747       43.8111
       2.8748       43.9318
       2.8749       44.0438
        2.875       44.1498
       2.8751       44.1695
       2.8752       44.3538
       2.8753       44.5331
       2.8754       44.7067
       2.8755       44.8763
       2.8756       45.0414
       2.8757       45.2024
       2.8758        45.358
       2.8759       45.5082
        2.876       45.6516
       2.8761       45.7962
       2.8762        45.883
       2.8763       45.9938
       2.8764       46.1006
       2.8765       46.2049
       2.8766       46.3134
       2.8767       46.4262
       2.8768       46.5347
       2.8769       46.6399
        2.877       46.7521
       2.8771       46.8347
       2.8772       46.9612
       2.8773       47.0702
       2.8774       47.1735
       2.8775       47.2805
       2.8776       47.3788
       2.8777       47.4807
       2.8778       47.5717
       2.8779       47.6588
        2.878       47.7366
       2.8781       47.8121
       2.8782       47.9648
       2.8783       48.1324
       2.8784       48.3061
       2.8785       48.4625
       2.8786       48.6345
       2.8787       48.8049
       2.8788       48.9728
       2.8789       49.1374
        2.879       49.2967
       2.8791       49.4966
       2.8792       49.6838
       2.8793        49.857
       2.8794       50.0483
       2.8795       50.2289
       2.8796       50.4166
       2.8797       50.5961
       2.8798       50.7867
       2.8799       50.9621
         2.88       51.1429
       2.8801       51.3112
       2.8802       51.4576
       2.8803       51.5949
       2.8804        51.762
       2.8805       51.9111
       2.8806       52.0448
       2.8807       52.1814
       2.8808       52.3112
       2.8809       52.4395
        2.881        52.562
       2.8811       52.7879
       2.8812       53.0206
       2.8813       53.2455
       2.8814       53.4911
       2.8815       53.7329
       2.8816       53.9773
       2.8817       54.2169
       2.8818       54.4492
       2.8819       54.6813
        2.882       54.9108
       2.8821       55.0315
       2.8822        55.229
       2.8823       55.4287
       2.8824       55.6237
       2.8825       55.8172
       2.8826       56.0079
       2.8827       56.1936
       2.8828       56.3779
       2.8829       56.5616
        2.883       56.7368
       2.8831       56.9174
       2.8832        57.132
       2.8833       57.3517
       2.8834       57.5759
       2.8835       57.7961
       2.8836       58.0124
       2.8837       58.2211
       2.8838       58.4281
       2.8839       58.6309
        2.884       58.8326
       2.8841       59.2338
       2.8842       59.6268
       2.8843       60.1016
       2.8844       60.5905
       2.8845       60.9535
       2.8846       61.2679
       2.8847       61.5647
       2.8848       61.8342
       2.8849       62.0892
        2.885       62.3177
       2.8851       62.4588
       2.8852       62.5893
       2.8853       62.7121
       2.8854       62.8416
       2.8855       62.9736
       2.8856       63.1071
       2.8857       63.2481
       2.8858       63.4065
       2.8859       63.5483
        2.886        63.671
       2.8861       63.7842
       2.8862       63.9675
       2.8863       64.1579
       2.8864       64.3595
       2.8865        64.555
       2.8866       64.7584
       2.8867       64.9577
       2.8868       65.1596
       2.8869       65.3567
        2.887       65.5503
       2.8871        65.788
       2.8872       65.9869
       2.8873       66.1849
       2.8874       66.3838
       2.8875       66.5856
       2.8876        66.784
       2.8877       66.9715
       2.8878       67.1785
       2.8879       67.3757
        2.888       67.5614
       2.8881       67.7587
       2.8882       68.0102
       2.8883       68.2376
       2.8884       68.5182
       2.8885       68.7707
       2.8886       69.0187
       2.8887        69.272
       2.8888       69.5169
       2.8889       69.7671
        2.889       70.0057
       2.8891       70.2529
       2.8892       70.4832
       2.8893       70.7445
       2.8894       70.9849
       2.8895       71.2421
       2.8896       71.4828
       2.8897       71.7249
       2.8898        71.966
       2.8899       72.2051
         2.89       72.4435
       2.8901       73.1898
       2.8902       73.9823
       2.8903       74.8278
       2.8904       75.6921
       2.8905       76.5706
       2.8906        77.455
       2.8907       78.3186
       2.8908        79.174
       2.8909       80.0129
        2.891       80.8415
       2.8911       81.1675
       2.8912       81.4849
       2.8913        81.749
       2.8914       81.9758
       2.8915       82.1779
       2.8916       82.3667
       2.8917       82.5414
       2.8918       82.7096
       2.8919       82.8689
        2.892       83.0236
       2.8921       83.3066
       2.8922       83.6099
       2.8923       83.9295
       2.8924       84.2585
       2.8925       84.5919
       2.8926       84.9329
       2.8927        85.271
       2.8928       85.6135
       2.8929       85.9561
        2.893       86.2976
       2.8931       86.7112
       2.8932        87.073
       2.8933       87.4276
       2.8934       87.7871
       2.8935       88.1483
       2.8936       88.5187
       2.8937       88.8948
       2.8938        89.276
       2.8939       89.6393
        2.894       90.0027
       2.8941       90.3765
       2.8942       90.7689
       2.8943       91.1741
       2.8944       91.5529
       2.8945       91.9558
       2.8946       92.3286
       2.8947       92.7201
       2.8948       93.0876
       2.8949       93.4631
        2.895         93.83
       2.8951       94.2035
       2.8952       94.5741
       2.8953       94.9519
       2.8954       95.3547
       2.8955       95.7469
       2.8956       96.1317
       2.8957       96.5135
       2.8958       96.8939
       2.8959        97.267
        2.896        97.634
       2.8961       98.0257
       2.8962       98.4355
       2.8963       98.8845
       2.8964       99.2968
       2.8965       99.7173
       2.8966       100.129
       2.8967       100.527
       2.8968       100.926
       2.8969       101.319
        2.897         101.7
       2.8971       102.274
       2.8972       102.898
       2.8973       103.522
       2.8974       104.136
       2.8975       104.733
       2.8976       105.317
       2.8977       105.875
       2.8978       106.417
       2.8979       106.945
        2.898       107.457
       2.8981       107.764
       2.8982       108.061
       2.8983       108.348
       2.8984       108.623
       2.8985       108.897
       2.8986       109.161
       2.8987       109.415
       2.8988       109.665
       2.8989        109.91
        2.899        110.15
       2.8991       110.393
       2.8992       110.691
       2.8993       111.004
       2.8994       111.321
       2.8995       111.639
       2.8996       111.951
       2.8997       112.262
       2.8998       112.571
       2.8999       112.876
          2.9       113.175
       2.9001       113.546
       2.9002       113.857
       2.9003       114.169
       2.9004        114.48
       2.9005        114.79
       2.9006       115.096
       2.9007       115.401
       2.9008       115.704
       2.9009       115.997
        2.901       116.292
       2.9011        116.63
       2.9012       116.982
       2.9013       117.329
       2.9014       117.682
       2.9015       118.033
       2.9016       118.372
       2.9017       118.707
       2.9018       119.031
       2.9019        119.35
        2.902       119.651
       2.9021       120.049
       2.9022       120.406
       2.9023       120.788
       2.9024       121.175
       2.9025        121.57
       2.9026       121.964
       2.9027       122.358
       2.9028       122.749
       2.9029       123.139
        2.903       123.526
       2.9031       123.795
       2.9032       124.083
       2.9033       124.349
       2.9034         124.6
       2.9035       124.835
       2.9036       125.053
       2.9037       125.265
       2.9038       125.464
       2.9039       125.655
        2.904        125.83
       2.9041       126.059
       2.9042        126.28
       2.9043       126.507
       2.9044       126.726
       2.9045       126.944
       2.9046        127.15
       2.9047       127.355
       2.9048       127.551
       2.9049       127.732
        2.905       127.908
       2.9051       127.954
       2.9052       128.068
       2.9053       128.192
       2.9054       128.316
       2.9055       128.439
       2.9056       128.559
       2.9057       128.675
       2.9058       128.789
       2.9059       128.904
        2.906       129.013
       2.9061       129.126
       2.9062       129.234
       2.9063       129.338
       2.9064       129.444
       2.9065        129.55
       2.9066       129.653
       2.9067       129.745
       2.9068       129.834
       2.9069       129.914
        2.907       129.992
       2.9071       130.116
       2.9072       130.141
       2.9073       130.144
       2.9074       130.153
       2.9075       130.138
       2.9076       130.132
       2.9077       130.107
       2.9078       130.103
       2.9079       130.082
        2.908       130.064
       2.9081       130.063
       2.9082       130.099
       2.9083       130.148
       2.9084       130.178
       2.9085       130.234
       2.9086       130.278
       2.9087       130.337
       2.9088       130.394
       2.9089       130.445
        2.909       130.499
       2.9091       130.514
       2.9092        130.53
       2.9093       130.545
       2.9094       130.555
       2.9095       130.563
       2.9096       130.566
       2.9097       130.559
       2.9098       130.562
       2.9099       130.542
         2.91       130.539
       2.9101       130.549
       2.9102       130.615
       2.9103       130.647
       2.9104       130.697
       2.9105       130.733
       2.9106        130.78
       2.9107       130.806
       2.9108       130.842
       2.9109       130.857
        2.911       130.882
       2.9111       130.933
       2.9112       131.005
       2.9113       131.035
       2.9114        131.11
       2.9115       131.168
       2.9116       131.254
       2.9117       131.314
       2.9118         131.4
       2.9119        131.46
        2.912       131.542
       2.9121       131.535
       2.9122       131.553
       2.9123       131.535
       2.9124       131.539
       2.9125       131.512
       2.9126       131.512
       2.9127       131.478
       2.9128        131.46
       2.9129       131.412
        2.913        131.37
       2.9131       131.478
       2.9132        131.68
       2.9133       131.898
       2.9134        132.12
       2.9135       132.335
       2.9136       132.508
       2.9137       132.679
       2.9138       132.837
       2.9139       132.981
        2.914       133.098
       2.9141       132.969
       2.9142       132.854
       2.9143       132.736
       2.9144       132.604
       2.9145       132.473
       2.9146       132.332
       2.9147       132.193
       2.9148       132.051
       2.9149       131.903
        2.915       131.735
       2.9151        131.66
       2.9152       131.609
       2.9153       131.572
       2.9154       131.543
       2.9155       131.523
       2.9156       131.503
       2.9157        131.48
       2.9158       131.461
       2.9159       131.437
        2.916        131.41
       2.9161       131.394
       2.9162       131.361
       2.9163       131.326
       2.9164        131.29
       2.9165       131.252
       2.9166       131.205
       2.9167       131.168
       2.9168       131.133
       2.9169       131.089
        2.917       131.034
       2.9171       130.957
       2.9172       130.869
       2.9173       130.777
       2.9174        130.67
       2.9175       130.563
       2.9176       130.436
       2.9177       130.323
       2.9178       130.197
       2.9179       130.067
        2.918       129.929
       2.9181       129.753
       2.9182       129.647
       2.9183       129.537
       2.9184       129.422
       2.9185       129.313
       2.9186       129.188
       2.9187       129.075
       2.9188       128.951
       2.9189       128.818
        2.919       128.695
       2.9191       128.541
       2.9192       128.337
       2.9193       128.133
       2.9194       127.922
       2.9195        127.71
       2.9196       127.493
       2.9197       127.275
       2.9198       127.051
       2.9199        126.82
         2.92       126.588
       2.9201       126.438
       2.9202        126.39
       2.9203       126.341
       2.9204       126.307
       2.9205       126.273
       2.9206       126.239
       2.9207       126.194
       2.9208       126.158
       2.9209       126.117
        2.921       126.073
       2.9211        126.03
       2.9212       125.956
       2.9213       125.871
       2.9214       125.795
       2.9215       125.705
       2.9216       125.625
       2.9217       125.531
       2.9218       125.447
       2.9219       125.349
        2.922       125.253
       2.9221       125.124
       2.9222       125.038
       2.9223       124.951
       2.9224       124.866
       2.9225       124.778
       2.9226       124.699
       2.9227       124.612
       2.9228       124.532
       2.9229        124.45
        2.923       124.366
       2.9231       124.158
       2.9232       123.981
       2.9233       123.802
       2.9234       123.609
       2.9235       123.418
       2.9236       123.214
       2.9237        123.01
       2.9238        122.79
       2.9239       122.578
        2.924       122.353
       2.9241       122.149
       2.9242       122.016
       2.9243       121.901
       2.9244        121.78
       2.9245        121.67
       2.9246       121.548
       2.9247       121.434
       2.9248       121.312
       2.9249       121.198
        2.925       121.068
       2.9251       120.962
       2.9252       120.844
       2.9253       120.734
       2.9254       120.611
       2.9255       120.504
       2.9256       120.383
       2.9257       120.277
       2.9258       120.157
       2.9259       120.049
        2.926       119.925
       2.9261       119.729
       2.9262       119.597
       2.9263       119.463
       2.9264       119.324
       2.9265       119.187
       2.9266       119.043
       2.9267       118.898
       2.9268       118.749
       2.9269       118.596
        2.927        118.44
       2.9271       118.343
       2.9272        118.21
       2.9273       118.065
       2.9274        117.93
       2.9275       117.784
       2.9276       117.649
       2.9277       117.506
       2.9278        117.37
       2.9279       117.227
        2.928       117.094
       2.9281       116.928
       2.9282        116.78
       2.9283       116.624
       2.9284       116.475
       2.9285       116.314
       2.9286       116.157
       2.9287       115.992
       2.9288       115.829
       2.9289       115.658
        2.929        115.49
       2.9291        115.33
       2.9292       115.192
       2.9293       115.046
       2.9294        114.91
       2.9295       114.755
       2.9296       114.615
       2.9297       114.467
       2.9298       114.323
       2.9299        114.16
         2.93       114.008
       2.9301       113.673
       2.9302       113.443
       2.9303       113.198
       2.9304        112.95
       2.9305       112.702
       2.9306       112.453
       2.9307       112.194
       2.9308       111.934
       2.9309        111.66
        2.931       111.385
       2.9311       111.183
       2.9312       110.996
       2.9313       110.815
       2.9314       110.641
       2.9315       110.467
       2.9316         110.3
       2.9317       110.111
       2.9318       109.944
       2.9319       109.759
        2.932       109.587
       2.9321       109.268
       2.9322       109.064
       2.9323       108.844
       2.9324       108.635
       2.9325       108.411
       2.9326       108.198
       2.9327        107.97
       2.9328       107.747
       2.9329        107.51
        2.933        107.28
       2.9331       107.046
       2.9332       106.819
       2.9333       106.584
       2.9334       106.363
       2.9335        106.13
       2.9336       105.896
       2.9337       105.655
       2.9338        105.41
       2.9339       105.162
        2.934        104.91
       2.9341       104.685
       2.9342       104.538
       2.9343       104.396
       2.9344        104.25
       2.9345       104.112
       2.9346       103.977
       2.9347       103.831
       2.9348       103.693
       2.9349       103.547
        2.935       103.411
       2.9351       103.374
       2.9352        103.34
       2.9353       103.308
       2.9354       103.277
       2.9355        103.25
       2.9356       103.207
       2.9357       103.163
       2.9358       103.098
       2.9359        103.05
        2.936       102.979
       2.9361       102.726
       2.9362       102.482
       2.9363        102.23
       2.9364       101.968
       2.9365       101.711
       2.9366       101.443
       2.9367       101.184
       2.9368       100.914
       2.9369       100.653
        2.937       100.377
       2.9371       100.075
       2.9372       99.9275
       2.9373       99.7831
       2.9374        99.649
       2.9375       99.5183
       2.9376       99.3814
       2.9377       99.2511
       2.9378       99.1089
       2.9379       98.9646
        2.938       98.8046
       2.9381       98.6805
       2.9382       98.5285
       2.9383       98.3725
       2.9384       98.2001
       2.9385       98.0294
       2.9386       97.8644
       2.9387       97.6918
       2.9388       97.5217
       2.9389       97.3389
        2.939       97.1624
       2.9391       96.9658
       2.9392       96.8026
       2.9393       96.6248
       2.9394       96.4404
       2.9395       96.2583
       2.9396       96.0678
       2.9397       95.8781
       2.9398       95.6845
       2.9399       95.4839
         2.94       95.3034
       2.9401       95.0863
       2.9402       94.9379
       2.9403       94.7882
       2.9404       94.6355
       2.9405        94.485
       2.9406       94.3302
       2.9407       94.1355
       2.9408       93.9724
       2.9409       93.8114
        2.941       93.6513
       2.9411       93.4031
       2.9412        93.257
       2.9413       93.1106
       2.9414         92.96
       2.9415       92.8174
       2.9416        92.664
       2.9417       92.5143
       2.9418       92.3556
       2.9419       92.2126
        2.942       92.0674
       2.9421       91.8827
       2.9422        91.733
       2.9423       91.5919
       2.9424        91.438
       2.9425       91.2933
       2.9426       91.1358
       2.9427       90.9843
       2.9428       90.8208
       2.9429       90.6619
        2.943       90.4951
       2.9431       90.3246
       2.9432        90.219
       2.9433       90.1192
       2.9434       90.0081
       2.9435       89.9029
       2.9436       89.7962
       2.9437       89.6833
       2.9438       89.5632
       2.9439       89.4577
        2.944       89.3356
       2.9441       89.1856
       2.9442       89.0323
       2.9443       88.8714
       2.9444       88.7252
       2.9445       88.5734
       2.9446       88.4185
       2.9447       88.2575
       2.9448       88.1042
       2.9449       87.9492
        2.945       87.7946
       2.9451       87.4602
       2.9452       87.2832
       2.9453       87.0998
       2.9454       86.9179
       2.9455       86.7312
       2.9456       86.5387
       2.9457       86.3506
       2.9458       86.1614
       2.9459       85.9511
        2.946       85.7743
       2.9461       85.6685
       2.9462       85.5236
       2.9463       85.3727
       2.9464       85.2211
       2.9465       85.0712
       2.9466        84.923
       2.9467       84.7644
       2.9468       84.6027
       2.9469       84.4361
        2.947       84.2695
       2.9471       84.0527
       2.9472       83.8613
       2.9473       83.6524
       2.9474       83.4516
       2.9475       83.2392
       2.9476        83.021
       2.9477       82.8039
       2.9478       82.5716
       2.9479       82.3428
        2.948       82.0951
       2.9481       81.9687
       2.9482       81.8225
       2.9483       81.6712
       2.9484       81.5259
       2.9485       81.3797
       2.9486       81.2419
       2.9487       81.0952
       2.9488       80.9374
       2.9489       80.7895
        2.949       80.6292
       2.9491       80.3802
       2.9492       80.2448
       2.9493       80.1245
       2.9494       79.9817
       2.9495       79.8512
       2.9496       79.7103
       2.9497       79.5862
       2.9498       79.4443
       2.9499       79.3095
         2.95       79.1664
       2.9501        79.064
       2.9502       78.9233
       2.9503       78.7786
       2.9504       78.6326
       2.9505        78.487
       2.9506       78.3445
       2.9507       78.1939
       2.9508       78.0425
       2.9509        77.892
        2.951       77.7376
       2.9511       77.5283
       2.9512       77.3868
       2.9513       77.2573
       2.9514       77.1161
       2.9515        77.016
       2.9516       76.9125
       2.9517       76.7929
       2.9518       76.6584
       2.9519        76.523
        2.952       76.3862
       2.9521       76.2634
       2.9522       76.1248
       2.9523       75.9913
       2.9524       75.8404
       2.9525       75.6844
       2.9526       75.5404
       2.9527        75.381
       2.9528       75.2292
       2.9529       75.0757
        2.953       74.9192
       2.9531       74.7078
       2.9532       74.5801
       2.9533       74.4515
       2.9534       74.3202
       2.9535       74.1803
       2.9536       74.0523
       2.9537       73.9093
       2.9538       73.7657
       2.9539       73.6197
        2.954       73.4721
       2.9541       73.2363
       2.9542       72.9672
       2.9543       72.7006
       2.9544       72.4222
       2.9545       72.1671
       2.9546          71.9
       2.9547       71.6186
       2.9548       71.3409
       2.9549       71.0579
        2.955        70.754
       2.9551       70.4697
       2.9552       70.3139
       2.9553       70.1628
       2.9554       70.0211
       2.9555       69.8717
       2.9556       69.7199
       2.9557        69.574
       2.9558       69.4351
       2.9559       69.2958
        2.956       69.1394
       2.9561       68.9463
       2.9562       68.8047
       2.9563       68.6699
       2.9564       68.5295
       2.9565       68.3837
       2.9566       68.2337
       2.9567       68.0853
       2.9568       67.9378
       2.9569       67.7844