# Probe 0 (0 0 0.01)
#       Probe             0
#        Time
       2.8501             (-0.126775 -0.749367 1.06171)
       2.8502             (-0.101005 -0.666595 1.03299)
       2.8503             (-0.0714694 -0.600738 1.01613)
       2.8504             (-0.0409516 -0.537801 1.00033)
       2.8505             (-0.0107778 -0.474283 0.982821)
       2.8506             (0.0180716 -0.408623 0.962136)
       2.8507             (0.0445407 -0.340345 0.937888)
       2.8508             (0.0691107 -0.270154 0.909825)
       2.8509             (0.0913311 -0.198372 0.87733)
        2.851             (0.112109 -0.123435 0.844971)
       2.8511             (0.125758 -0.0883021 0.840445)
       2.8512             (0.133557 -0.0597294 0.850744)
       2.8513             (0.137815 -0.0352306 0.869137)
       2.8514             (0.138105 -0.0121995 0.891181)
       2.8515             (0.13659 0.00990639 0.915792)
       2.8516             (0.134109 0.031563 0.941781)
       2.8517             (0.130794 0.0528145 0.968348)
       2.8518             (0.126719 0.0746846 0.995245)
       2.8519             (0.122144 0.0968307 1.02231)
        2.852             (0.117203 0.119398 1.04978)
       2.8521             (0.113985 0.128892 1.06032)
       2.8522             (0.111619 0.132562 1.06372)
       2.8523             (0.109494 0.133426 1.06385)
       2.8524             (0.107159 0.132866 1.06294)
       2.8525             (0.104506 0.131723 1.06126)
       2.8526             (0.101743 0.130405 1.05935)
       2.8527             (0.0988364 0.129108 1.05712)
       2.8528             (0.0957952 0.127983 1.05482)
       2.8529             (0.0925969 0.126992 1.0523)
        2.853             (0.0893171 0.126153 1.04961)
       2.8531             (0.085528 0.126496 1.05157)
       2.8532             (0.0819087 0.127254 1.05569)
       2.8533             (0.0784506 0.128147 1.06101)
       2.8534             (0.075262 0.129051 1.06688)
       2.8535             (0.0721867 0.130058 1.07289)
       2.8536             (0.0693339 0.131 1.07894)
       2.8537             (0.0665716 0.131982 1.08489)
       2.8538             (0.0640115 0.13295 1.09077)
       2.8539             (0.0614132 0.133982 1.09654)
        2.854             (0.0588976 0.135096 1.10216)
       2.8541             (0.0568553 0.136948 1.10678)
       2.8542             (0.0550235 0.139223 1.1108)
       2.8543             (0.0532249 0.141758 1.11434)
       2.8544             (0.0514907 0.144357 1.1176)
       2.8545             (0.0497352 0.147022 1.12065)
       2.8546             (0.0479477 0.149787 1.12357)
       2.8547             (0.0461197 0.152678 1.12634)
       2.8548             (0.0443233 0.155612 1.12901)
       2.8549             (0.0424905 0.158643 1.13156)
        2.855             (0.0406615 0.161782 1.13402)
       2.8551             (0.0385874 0.164798 1.13673)
       2.8552             (0.0364005 0.167728 1.13963)
       2.8553             (0.0341773 0.170607 1.14271)
       2.8554             (0.0319073 0.1735 1.14595)
       2.8555             (0.029628 0.176397 1.14933)
       2.8556             (0.0273406 0.179309 1.15283)
       2.8557             (0.0250354 0.182218 1.15641)
       2.8558             (0.0227344 0.185053 1.16007)
       2.8559             (0.0204139 0.18786 1.16375)
        2.856             (0.0180979 0.190692 1.16743)
       2.8561             (0.0157737 0.193828 1.17094)
       2.8562             (0.0133901 0.197174 1.17436)
       2.8563             (0.0109693 0.200642 1.17773)
       2.8564             (0.00856615 0.204182 1.18104)
       2.8565             (0.006202 0.207739 1.18438)
       2.8566             (0.00382188 0.211341 1.18761)
       2.8567             (0.00141769 0.214968 1.19076)
       2.8568             (-0.00099467 0.218628 1.19381)
       2.8569             (-0.00338513 0.222267 1.19679)
        2.857             (-0.00577694 0.225945 1.19973)
       2.8571             (-0.00817282 0.229273 1.20223)
       2.8572             (-0.0105617 0.232352 1.20464)
       2.8573             (-0.0129432 0.235283 1.20704)
       2.8574             (-0.0153645 0.238219 1.20945)
       2.8575             (-0.0177861 0.241181 1.21189)
       2.8576             (-0.0202823 0.244239 1.21437)
       2.8577             (-0.0227354 0.247244 1.2169)
       2.8578             (-0.0252629 0.250358 1.21928)
       2.8579             (-0.0277646 0.253545 1.22143)
        2.858             (-0.030324 0.256775 1.22354)
       2.8581             (-0.033092 0.259884 1.22572)
       2.8582             (-0.0361239 0.263031 1.228)
       2.8583             (-0.0393275 0.266246 1.23038)
       2.8584             (-0.0426933 0.269503 1.23278)
       2.8585             (-0.0461492 0.272799 1.23518)
       2.8586             (-0.0496677 0.27611 1.23756)
       2.8587             (-0.0532357 0.279445 1.2399)
       2.8588             (-0.0568184 0.282911 1.2419)
       2.8589             (-0.0604334 0.286235 1.24416)
        2.859             (-0.0640219 0.289696 1.24618)
       2.8591             (-0.0672548 0.293301 1.24867)
       2.8592             (-0.0702114 0.296943 1.25127)
       2.8593             (-0.0730034 0.30068 1.2541)
       2.8594             (-0.0756996 0.304366 1.25698)
       2.8595             (-0.0783674 0.308156 1.25996)
       2.8596             (-0.0810561 0.311861 1.26295)
       2.8597             (-0.0837607 0.315635 1.26596)
       2.8598             (-0.0865225 0.319383 1.26896)
       2.8599             (-0.0893387 0.32318 1.27196)
         2.86             (-0.0922266 0.326963 1.27494)
       2.8601             (-0.095109 0.330828 1.27748)
       2.8602             (-0.0980588 0.334703 1.27979)
       2.8603             (-0.101081 0.338597 1.282)
       2.8604             (-0.104161 0.342495 1.28416)
       2.8605             (-0.107291 0.346389 1.2863)
       2.8606             (-0.110462 0.35028 1.28842)
       2.8607             (-0.113654 0.35416 1.29053)
       2.8608             (-0.116871 0.358037 1.29261)
       2.8609             (-0.120101 0.361904 1.29467)
        2.861             (-0.123338 0.365789 1.29672)
       2.8611             (-0.126327 0.370381 1.29931)
       2.8612             (-0.129195 0.375368 1.30228)
       2.8613             (-0.131968 0.380553 1.30542)
       2.8614             (-0.134713 0.385884 1.30859)
       2.8615             (-0.13742 0.391326 1.3117)
       2.8616             (-0.140035 0.396809 1.31473)
       2.8617             (-0.142563 0.402229 1.31764)
       2.8618             (-0.145049 0.407546 1.3204)
       2.8619             (-0.147515 0.41279 1.32301)
        2.862             (-0.149997 0.417968 1.32543)
       2.8621             (-0.152635 0.422131 1.32696)
       2.8622             (-0.155435 0.425903 1.32803)
       2.8623             (-0.158309 0.42936 1.32891)
       2.8624             (-0.161262 0.432753 1.32965)
       2.8625             (-0.164271 0.436033 1.33032)
       2.8626             (-0.167321 0.439342 1.33092)
       2.8627             (-0.170437 0.442587 1.3315)
       2.8628             (-0.173561 0.445892 1.33201)
       2.8629             (-0.176755 0.449146 1.3325)
        2.863             (-0.179908 0.452425 1.33299)
       2.8631             (-0.184722 0.459554 1.3369)
       2.8632             (-0.190606 0.469267 1.34307)
       2.8633             (-0.1973 0.480496 1.35042)
       2.8634             (-0.20435 0.492488 1.35837)
       2.8635             (-0.21168 0.504756 1.36647)
       2.8636             (-0.219136 0.517176 1.37446)
       2.8637             (-0.226614 0.52947 1.38215)
       2.8638             (-0.234045 0.541415 1.38944)
       2.8639             (-0.241395 0.552892 1.39637)
        2.864             (-0.248595 0.563841 1.40291)
       2.8641             (-0.253446 0.569871 1.40468)
       2.8642             (-0.25682 0.573011 1.40365)
       2.8643             (-0.259374 0.574232 1.40121)
       2.8644             (-0.261341 0.574366 1.39793)
       2.8645             (-0.263004 0.573788 1.39424)
       2.8646             (-0.264411 0.572862 1.39033)
       2.8647             (-0.26571 0.571684 1.38632)
       2.8648             (-0.266887 0.570364 1.38228)
       2.8649             (-0.268 0.5689 1.37826)
        2.865             (-0.26906 0.567308 1.37427)
       2.8651             (-0.271022 0.567682 1.37338)
       2.8652             (-0.273638 0.569245 1.3743)
       2.8653             (-0.276627 0.571516 1.37626)
       2.8654             (-0.279927 0.574236 1.37882)
       2.8655             (-0.283329 0.577118 1.38173)
       2.8656             (-0.28687 0.580175 1.38474)
       2.8657             (-0.290407 0.583238 1.38782)
       2.8658             (-0.294071 0.586361 1.3909)
       2.8659             (-0.297769 0.589452 1.39398)
        2.866             (-0.30151 0.592527 1.39703)
       2.8661             (-0.304643 0.594679 1.39841)
       2.8662             (-0.3075 0.596386 1.39891)
       2.8663             (-0.31015 0.597817 1.39894)
       2.8664             (-0.31267 0.599082 1.39872)
       2.8665             (-0.315064 0.600212 1.39832)
       2.8666             (-0.31737 0.60127 1.39781)
       2.8667             (-0.319741 0.602246 1.39722)
       2.8668             (-0.322033 0.603096 1.39655)
       2.8669             (-0.324224 0.603858 1.39582)
        2.867             (-0.326337 0.604562 1.39507)
       2.8671             (-0.328243 0.605202 1.39421)
       2.8672             (-0.330035 0.605913 1.39331)
       2.8673             (-0.331758 0.606656 1.39237)
       2.8674             (-0.333439 0.607408 1.39137)
       2.8675             (-0.335091 0.608128 1.39033)
       2.8676             (-0.336711 0.608789 1.38921)
       2.8677             (-0.338307 0.609376 1.38801)
       2.8678             (-0.339898 0.609874 1.38677)
       2.8679             (-0.341481 0.610265 1.38547)
        2.868             (-0.343058 0.610551 1.38411)
       2.8681             (-0.344406 0.610511 1.38296)
       2.8682             (-0.345705 0.610249 1.38205)
       2.8683             (-0.346973 0.609898 1.38131)
       2.8684             (-0.348227 0.609507 1.38067)
       2.8685             (-0.349446 0.609125 1.38007)
       2.8686             (-0.35061 0.608744 1.37947)
       2.8687             (-0.351731 0.60839 1.37886)
       2.8688             (-0.352837 0.608053 1.3782)
       2.8689             (-0.353921 0.60773 1.37751)
        2.869             (-0.354948 0.607416 1.37679)
       2.8691             (-0.356046 0.607421 1.37635)
       2.8692             (-0.357098 0.607615 1.37614)
       2.8693             (-0.358121 0.607943 1.37605)
       2.8694             (-0.359084 0.608389 1.37601)
       2.8695             (-0.359998 0.608992 1.37598)
       2.8696             (-0.360911 0.609606 1.37591)
       2.8697             (-0.361801 0.610173 1.37584)
       2.8698             (-0.362686 0.610713 1.37572)
       2.8699             (-0.3636 0.611192 1.37559)
         2.87             (-0.364501 0.611636 1.37538)
       2.8701             (-0.365137 0.611496 1.37467)
       2.8702             (-0.365681 0.611127 1.37369)
       2.8703             (-0.366196 0.610669 1.37261)
       2.8704             (-0.366677 0.61019 1.37145)
       2.8705             (-0.367169 0.609689 1.37027)
       2.8706             (-0.367636 0.60919 1.36904)
       2.8707             (-0.368107 0.60869 1.36778)
       2.8708             (-0.368548 0.60822 1.36647)
       2.8709             (-0.368989 0.607739 1.36511)
        2.871             (-0.369415 0.607252 1.36368)
       2.8711             (-0.369305 0.607099 1.36216)
       2.8712             (-0.368919 0.607217 1.36071)
       2.8713             (-0.368412 0.607404 1.35928)
       2.8714             (-0.367778 0.607594 1.35782)
       2.8715             (-0.367118 0.607713 1.35636)
       2.8716             (-0.366407 0.607835 1.35473)
       2.8717             (-0.365689 0.607827 1.35294)
       2.8718             (-0.3648 0.607688 1.35104)
       2.8719             (-0.363824 0.607401 1.34905)
        2.872             (-0.362754 0.606974 1.34694)
       2.8721             (-0.361801 0.606541 1.34501)
       2.8722             (-0.360954 0.6061 1.34322)
       2.8723             (-0.360204 0.605669 1.34149)
       2.8724             (-0.359481 0.605226 1.33971)
       2.8725             (-0.358752 0.604787 1.33795)
       2.8726             (-0.358065 0.604477 1.33625)
       2.8727             (-0.357421 0.604133 1.33461)
       2.8728             (-0.356826 0.603773 1.33302)
       2.8729             (-0.356267 0.6034 1.33147)
        2.873             (-0.355728 0.603014 1.32993)
       2.8731             (-0.355234 0.602573 1.32826)
       2.8732             (-0.354797 0.60216 1.32663)
       2.8733             (-0.354412 0.601783 1.32496)
       2.8734             (-0.354046 0.601495 1.32321)
       2.8735             (-0.353689 0.601217 1.32137)
       2.8736             (-0.353352 0.600907 1.31941)
       2.8737             (-0.352981 0.600527 1.31733)
       2.8738             (-0.35259 0.600055 1.31516)
       2.8739             (-0.35215 0.5995 1.31288)
        2.874             (-0.351697 0.598864 1.3105)
       2.8741             (-0.350942 0.597904 1.30815)
       2.8742             (-0.350068 0.596706 1.30585)
       2.8743             (-0.34912 0.595377 1.3036)
       2.8744             (-0.348135 0.593994 1.30141)
       2.8745             (-0.347107 0.592574 1.29924)
       2.8746             (-0.346065 0.591155 1.2971)
       2.8747             (-0.345026 0.589723 1.29498)
       2.8748             (-0.343972 0.5883 1.29285)
       2.8749             (-0.342914 0.586881 1.29072)
        2.875             (-0.341819 0.585435 1.28855)
       2.8751             (-0.340559 0.583937 1.28628)
       2.8752             (-0.339297 0.582518 1.28407)
       2.8753             (-0.338082 0.581227 1.28195)
       2.8754             (-0.336909 0.580036 1.27989)
       2.8755             (-0.335773 0.578919 1.27788)
       2.8756             (-0.33465 0.577852 1.27588)
       2.8757             (-0.333529 0.576806 1.27389)
       2.8758             (-0.332417 0.575791 1.27188)
       2.8759             (-0.331305 0.574798 1.26988)
        2.876             (-0.330182 0.573803 1.26784)
       2.8761             (-0.328897 0.572582 1.26548)
       2.8762             (-0.327556 0.571285 1.26297)
       2.8763             (-0.326221 0.569951 1.26037)
       2.8764             (-0.32491 0.568599 1.25771)
       2.8765             (-0.323621 0.567241 1.25501)
       2.8766             (-0.322359 0.56589 1.25229)
       2.8767             (-0.321115 0.564546 1.24955)
       2.8768             (-0.319888 0.563212 1.24679)
       2.8769             (-0.318666 0.56188 1.24401)
        2.877             (-0.317454 0.560554 1.24123)
       2.8771             (-0.315848 0.559362 1.23869)
       2.8772             (-0.314017 0.558235 1.23627)
       2.8773             (-0.312045 0.557095 1.23387)
       2.8774             (-0.309973 0.555941 1.23142)
       2.8775             (-0.307822 0.554743 1.22891)
       2.8776             (-0.305575 0.553484 1.22631)
       2.8777             (-0.303218 0.552215 1.2236)
       2.8778             (-0.30078 0.55093 1.22077)
       2.8779             (-0.298283 0.549564 1.21782)
        2.878             (-0.295722 0.548157 1.21474)
       2.8781             (-0.293102 0.546396 1.21147)
       2.8782             (-0.290581 0.544519 1.20816)
       2.8783             (-0.288209 0.542617 1.2049)
       2.8784             (-0.285978 0.540746 1.20168)
       2.8785             (-0.283889 0.538908 1.19853)
       2.8786             (-0.281927 0.537118 1.19543)
       2.8787             (-0.280053 0.535354 1.19237)
       2.8788             (-0.278234 0.533615 1.18931)
       2.8789             (-0.276426 0.531884 1.18624)
        2.879             (-0.27463 0.530174 1.18315)
       2.8791             (-0.272701 0.528371 1.17974)
       2.8792             (-0.27078 0.526536 1.17626)
       2.8793             (-0.268861 0.524692 1.17277)
       2.8794             (-0.266964 0.522868 1.16927)
       2.8795             (-0.265084 0.521056 1.16577)
       2.8796             (-0.263215 0.519259 1.16227)
       2.8797             (-0.261389 0.517479 1.15875)
       2.8798             (-0.259633 0.515724 1.15523)
       2.8799             (-0.257909 0.513992 1.15169)
         2.88             (-0.256219 0.512276 1.14813)
       2.8801             (-0.254351 0.510279 1.14428)
       2.8802             (-0.252422 0.508191 1.14028)
       2.8803             (-0.250462 0.506045 1.13621)
       2.8804             (-0.248475 0.503862 1.13209)
       2.8805             (-0.246471 0.501642 1.12792)
       2.8806             (-0.244451 0.499398 1.1237)
       2.8807             (-0.2424 0.497126 1.11943)
       2.8808             (-0.240328 0.494827 1.1151)
       2.8809             (-0.238221 0.492483 1.11069)
        2.881             (-0.236067 0.490077 1.10621)
       2.8811             (-0.234105 0.487781 1.10218)
       2.8812             (-0.232268 0.485526 1.09839)
       2.8813             (-0.230548 0.483332 1.09481)
       2.8814             (-0.228898 0.481203 1.09139)
       2.8815             (-0.22732 0.4792 1.08805)
       2.8816             (-0.225825 0.477161 1.0848)
       2.8817             (-0.224353 0.475219 1.08158)
       2.8818             (-0.222924 0.473263 1.07839)
       2.8819             (-0.221497 0.471378 1.07522)
        2.882             (-0.220091 0.469494 1.07204)
       2.8821             (-0.218256 0.467672 1.06876)
       2.8822             (-0.216256 0.465946 1.06554)
       2.8823             (-0.214251 0.464304 1.06235)
       2.8824             (-0.21226 0.462723 1.05918)
       2.8825             (-0.210272 0.461176 1.05602)
       2.8826             (-0.208268 0.459646 1.05287)
       2.8827             (-0.206267 0.458143 1.0497)
       2.8828             (-0.204243 0.456638 1.04651)
       2.8829             (-0.202188 0.455136 1.04328)
        2.883             (-0.200109 0.453632 1.03999)
       2.8831             (-0.197926 0.451727 1.03624)
       2.8832             (-0.195688 0.449606 1.03231)
       2.8833             (-0.193428 0.447416 1.02831)
       2.8834             (-0.19117 0.445194 1.0243)
       2.8835             (-0.188841 0.442963 1.02027)
       2.8836             (-0.186508 0.440742 1.01626)
       2.8837             (-0.184131 0.438533 1.01223)
       2.8838             (-0.181772 0.436332 1.00819)
       2.8839             (-0.179411 0.434144 1.00413)
        2.884             (-0.177059 0.431967 1.00006)
       2.8841             (-0.17486 0.429419 0.996586)
       2.8842             (-0.17279 0.426431 0.993476)
       2.8843             (-0.170866 0.422592 0.990786)
       2.8844             (-0.169022 0.418379 0.988303)
       2.8845             (-0.16717 0.414692 0.985679)
       2.8846             (-0.165284 0.411281 0.982975)
       2.8847             (-0.163372 0.408072 0.980203)
       2.8848             (-0.161429 0.405039 0.977333)
       2.8849             (-0.159462 0.402221 0.974369)
        2.885             (-0.157469 0.399595 0.971304)
       2.8851             (-0.154621 0.397401 0.967588)
       2.8852             (-0.151346 0.395587 0.963559)
       2.8853             (-0.14787 0.394089 0.95936)
       2.8854             (-0.144236 0.392791 0.955035)
       2.8855             (-0.14053 0.391595 0.950622)
       2.8856             (-0.136813 0.390447 0.946132)
       2.8857             (-0.133064 0.389323 0.941583)
       2.8858             (-0.129284 0.388199 0.936922)
       2.8859             (-0.125451 0.387052 0.932155)
        2.886             (-0.121505 0.385897 0.927366)
       2.8861             (-0.118192 0.38457 0.923003)
       2.8862             (-0.115338 0.383163 0.918966)
       2.8863             (-0.112745 0.381642 0.915187)
       2.8864             (-0.110264 0.38008 0.911545)
       2.8865             (-0.10786 0.37848 0.908003)
       2.8866             (-0.105477 0.376876 0.904506)
       2.8867             (-0.103114 0.375269 0.901028)
       2.8868             (-0.100737 0.373678 0.897546)
       2.8869             (-0.098369 0.37209 0.894057)
        2.887             (-0.0960147 0.370511 0.89055)
       2.8871             (-0.0935068 0.368789 0.886297)
       2.8872             (-0.0908788 0.366927 0.881685)
       2.8873             (-0.0882156 0.365065 0.876896)
       2.8874             (-0.0855061 0.363174 0.872007)
       2.8875             (-0.0827728 0.361311 0.867081)
       2.8876             (-0.0799959 0.359438 0.862124)
       2.8877             (-0.0772239 0.357592 0.857178)
       2.8878             (-0.0742607 0.355716 0.852158)
       2.8879             (-0.071335 0.353882 0.847142)
        2.888             (-0.0684699 0.352066 0.842131)
       2.8881             (-0.0656343 0.350413 0.837418)
       2.8882             (-0.0628942 0.348912 0.832896)
       2.8883             (-0.0601891 0.347496 0.82849)
       2.8884             (-0.0575021 0.346116 0.824154)
       2.8885             (-0.0548203 0.344792 0.819882)
       2.8886             (-0.0521299 0.343478 0.815637)
       2.8887             (-0.0494329 0.342195 0.811413)
       2.8888             (-0.0467239 0.340889 0.807188)
       2.8889             (-0.0440029 0.33959 0.80297)
        2.889             (-0.0412633 0.338236 0.798751)
       2.8891             (-0.0387287 0.337079 0.79517)
       2.8892             (-0.0362765 0.335916 0.791824)
       2.8893             (-0.0339398 0.334873 0.788607)
       2.8894             (-0.0316214 0.333771 0.785427)
       2.8895             (-0.0293801 0.332745 0.782288)
       2.8896             (-0.027126 0.331704 0.779155)
       2.8897             (-0.0249241 0.330674 0.776028)
       2.8898             (-0.0227107 0.329654 0.772904)
       2.8899             (-0.0205179 0.328623 0.769766)
         2.89             (-0.0183236 0.32761 0.766626)
       2.8901             (-0.0163364 0.326971 0.763983)
       2.8902             (-0.0144326 0.326514 0.761473)
       2.8903             (-0.0125311 0.326098 0.758932)
       2.8904             (-0.0106196 0.325717 0.75636)
       2.8905             (-0.00869203 0.325327 0.75376)
       2.8906             (-0.00674054 0.324947 0.751143)
       2.8907             (-0.00475606 0.324551 0.748422)
       2.8908             (-0.00274046 0.324159 0.745604)
       2.8909             (-0.000690572 0.323733 0.742799)
        2.891             (0.00138391 0.3233 0.740041)
       2.8911             (0.00366594 0.322684 0.737174)
       2.8912             (0.00602633 0.321975 0.734414)
       2.8913             (0.00839279 0.321229 0.731807)
       2.8914             (0.010743 0.320482 0.729307)
       2.8915             (0.0130707 0.319726 0.726895)
       2.8916             (0.0153699 0.31896 0.724528)
       2.8917             (0.01765 0.318181 0.722213)
       2.8918             (0.0199181 0.317404 0.71991)
       2.8919             (0.0221714 0.316629 0.717642)
        2.892             (0.0244152 0.315863 0.715378)
       2.8921             (0.0266073 0.315191 0.712962)
       2.8922             (0.0288544 0.314538 0.710486)
       2.8923             (0.0311356 0.313894 0.707963)
       2.8924             (0.0334458 0.313282 0.705408)
       2.8925             (0.0357815 0.312665 0.702842)
       2.8926             (0.0381411 0.312062 0.700267)
       2.8927             (0.040515 0.311455 0.697684)
       2.8928             (0.0429031 0.310856 0.695093)
       2.8929             (0.0452969 0.31025 0.692495)
        2.893             (0.0477088 0.309649 0.689887)
       2.8931             (0.0499115 0.309253 0.687589)
       2.8932             (0.051951 0.308998 0.6854)
       2.8933             (0.0539018 0.308788 0.683224)
       2.8934             (0.0558009 0.308614 0.681047)
       2.8935             (0.0576585 0.308457 0.678876)
       2.8936             (0.0595052 0.308265 0.676756)
       2.8937             (0.0613281 0.308128 0.674557)
       2.8938             (0.0631389 0.30794 0.672489)
       2.8939             (0.0649343 0.307754 0.670389)
        2.894             (0.0667181 0.307578 0.668286)
       2.8941             (0.0684204 0.307304 0.666616)
       2.8942             (0.0701182 0.306951 0.665125)
       2.8943             (0.0718169 0.306578 0.663682)
       2.8944             (0.0735131 0.306191 0.662245)
       2.8945             (0.075208 0.30581 0.660803)
       2.8946             (0.0768892 0.305408 0.659342)
       2.8947             (0.0785729 0.305022 0.657878)
       2.8948             (0.0802481 0.304588 0.656395)
       2.8949             (0.0819103 0.304174 0.65489)
        2.895             (0.083562 0.303743 0.653375)
       2.8951             (0.0854732 0.303458 0.652176)
       2.8952             (0.0875238 0.303217 0.65111)
       2.8953             (0.0896569 0.303006 0.6501)
       2.8954             (0.0918951 0.302811 0.649081)
       2.8955             (0.0941597 0.302599 0.648045)
       2.8956             (0.0964295 0.302407 0.646991)
       2.8957             (0.0987101 0.302207 0.645903)
       2.8958             (0.101025 0.302019 0.644825)
       2.8959             (0.103313 0.3018 0.643689)
        2.896             (0.10557 0.301567 0.642492)
       2.8961             (0.107431 0.301284 0.64091)
       2.8962             (0.109131 0.301005 0.63929)
       2.8963             (0.110878 0.300773 0.63771)
       2.8964             (0.112529 0.300576 0.636163)
       2.8965             (0.11415 0.300383 0.634634)
       2.8966             (0.115739 0.30021 0.633122)
       2.8967             (0.117312 0.300039 0.631596)
       2.8968             (0.118878 0.299858 0.630072)
       2.8969             (0.120434 0.29965 0.628528)
        2.897             (0.121972 0.299524 0.626943)
       2.8971             (0.124765 0.299614 0.626318)
       2.8972             (0.128211 0.299903 0.626082)
       2.8973             (0.131925 0.300252 0.626066)
       2.8974             (0.1357 0.300652 0.626157)
       2.8975             (0.139454 0.301073 0.626273)
       2.8976             (0.143122 0.301483 0.626399)
       2.8977             (0.146656 0.301893 0.626504)
       2.8978             (0.150024 0.302299 0.62652)
       2.8979             (0.153199 0.302677 0.626498)
        2.898             (0.156218 0.30302 0.626407)
       2.8981             (0.157636 0.303351 0.62577)
       2.8982             (0.158375 0.303595 0.624964)
       2.8983             (0.158757 0.303766 0.623953)
       2.8984             (0.159005 0.303884 0.622812)
       2.8985             (0.159172 0.303931 0.621559)
       2.8986             (0.159335 0.303947 0.62022)
       2.8987             (0.159512 0.303919 0.618803)
       2.8988             (0.159682 0.303876 0.617334)
       2.8989             (0.159855 0.303809 0.615762)
        2.899             (0.160021 0.303733 0.614114)
       2.8991             (0.160619 0.303731 0.612997)
       2.8992             (0.161449 0.303788 0.612046)
       2.8993             (0.162391 0.303909 0.61131)
       2.8994             (0.163374 0.304074 0.610697)
       2.8995             (0.164371 0.304267 0.610159)
       2.8996             (0.165375 0.304475 0.609669)
       2.8997             (0.166376 0.304699 0.609209)
       2.8998             (0.167376 0.304939 0.60877)
       2.8999             (0.168375 0.305187 0.608342)
          2.9             (0.169375 0.30543 0.607931)
       2.9001             (0.170253 0.305624 0.607363)
       2.9002             (0.171113 0.305813 0.606746)
       2.9003             (0.171967 0.305985 0.606088)
       2.9004             (0.172831 0.306157 0.605397)
       2.9005             (0.173678 0.30631 0.604698)
       2.9006             (0.174537 0.306475 0.603973)
       2.9007             (0.17539 0.306631 0.603235)
       2.9008             (0.176255 0.306808 0.602453)
       2.9009             (0.177111 0.306983 0.601664)
        2.901             (0.177926 0.307149 0.600838)
       2.9011             (0.178635 0.307324 0.599993)
       2.9012             (0.179317 0.307531 0.599059)
       2.9013             (0.180004 0.307722 0.598038)
       2.9014             (0.180684 0.307898 0.596947)
       2.9015             (0.181417 0.308054 0.595805)
       2.9016             (0.182297 0.308214 0.594636)
       2.9017             (0.183225 0.308361 0.593409)
       2.9018             (0.184158 0.30852 0.59218)
       2.9019             (0.185098 0.308672 0.590942)
        2.902             (0.186038 0.308825 0.589686)
       2.9021             (0.186958 0.308806 0.588357)
       2.9022             (0.187937 0.30872 0.5871)
       2.9023             (0.188931 0.308597 0.585919)
       2.9024             (0.189911 0.308441 0.584841)
       2.9025             (0.190885 0.308258 0.583818)
       2.9026             (0.191845 0.308046 0.582835)
       2.9027             (0.192794 0.307778 0.581847)
       2.9028             (0.193719 0.307484 0.580855)
       2.9029             (0.194626 0.307168 0.579825)
        2.903             (0.195503 0.306835 0.57879)
       2.9031             (0.19607 0.306454 0.577924)
       2.9032             (0.196491 0.306116 0.577174)
       2.9033             (0.196885 0.305808 0.57641)
       2.9034             (0.197227 0.305537 0.575683)
       2.9035             (0.197602 0.305277 0.574902)
       2.9036             (0.197944 0.30504 0.57414)
       2.9037             (0.198318 0.3048 0.573299)
       2.9038             (0.198649 0.304583 0.572488)
       2.9039             (0.199023 0.304361 0.571614)
        2.904             (0.199379 0.304155 0.570745)
       2.9041             (0.200015 0.303564 0.570138)
       2.9042             (0.200762 0.302718 0.569614)
       2.9043             (0.201586 0.301721 0.569084)