/*--------------------------------*- C++ -*----------------------------------*\
| =========                 |                                                 |
| \\      /  F ield         | OpenFOAM: The Open Source CFD Toolbox           |
|  \\    /   O peration     | Version:  5.x                                   |
|   \\  /    A nd           | Web:      www.OpenFOAM.org                      |
|    \\/     M anipulation  |                                                 |
\*---------------------------------------------------------------------------*/
FoamFile
{
    version     2.0;
    format      ascii;
    class       volVectorField;
    location    "8.9";
    object      Us;
}
// * * * * * * * * * * * * * * * * * * * * * * * * * * * * * * * * * * * * * //

dimensions      [0 1 -1 0 0 0 0];

internalField   nonuniform List<vector> 
10571
(
(0 0 0)
(0.180799 -0.207705 0.0194122)
(0.0363416 0.143257 0.0209925)
(0.0616891 0.0891383 0.0250228)
(-0.00265385 -0.03376 0.025613)
(0.187276 -0.328747 0.0162195)
(0.192017 -0.111229 0.0741545)
(0.0560527 -0.078304 0.100558)
(-0.1621 -0.0105354 0.0361884)
(-0.0648114 -0.134547 -0.0660176)
(0.0115473 -0.0769387 -0.0709143)
(0.149339 -0.198178 0.0152513)
(0.269039 -0.267556 0.0713206)
(0.183253 -0.294939 0.0410053)
(0.0502817 -0.279321 -0.00558824)
(0.0133934 -0.142716 -0.0900612)
(0.0707995 -0.0542283 -0.0715963)
(0.171957 -0.0935286 0.0790948)
(0.122159 -0.224429 0.00751227)
(0.14795 -0.217045 -0.0525612)
(0.097397 -0.162966 -0.110182)
(0.0131182 -0.0134407 -0.0310436)
(0.04373 -0.103515 -0.174074)
(0.216409 -0.106927 -0.0773824)
(0.0554854 0.0577208 0.0564798)
(0.0953386 -0.0482948 0.0299692)
(0.223692 -0.146162 0.233723)
(0.0280315 0.11924 0.093558)
(-0.0429039 0.0216548 0.0134937)
(0.117289 -0.0461757 0.091827)
(0.125138 -0.247086 0.288839)
(0.0759018 -0.186936 0.279677)
(-0.121602 -0.192277 0.178989)
(-0.059392 -0.194295 -0.0179232)
(0.0167185 0.0229598 -0.223011)
(0.0744745 0.00578767 0.0805933)
(-0.0471182 -0.272877 0.227259)
(0.0372979 -0.265949 0.250076)
(-0.0485484 -0.26506 0.126453)
(0.00228768 -0.176244 0.015909)
(-0.114251 -0.134895 -0.0314584)
(-0.103724 -0.168253 0.0684922)
(-0.145735 -0.122596 0.0511699)
(-0.100347 -0.23191 -0.0160205)
(0.0895178 -0.19718 -0.0191925)
(-0.0568312 -0.072073 -0.180322)
(-0.0543219 -0.0272397 -0.240997)
(-0.0427189 -0.0355625 -0.159093)
(-0.000168678 0.00787815 0.0571921)
(-0.0245076 0.0510966 -0.0197671)
(0.199662 -0.0144457 0.216813)
(0.0860042 0.037261 0.196597)
(-0.0181414 0.00921635 0.0356404)
(-0.022252 0.118742 0.191154)
(0.0271315 -0.256757 0.442464)
(0.00864371 -0.254161 0.458103)
(-0.0606028 -0.243147 0.318931)
(-0.0349027 -0.144905 0.0843083)
(-0.05637 0.0371273 -0.370759)
(-0.0668053 0.0653022 0.104274)
(-0.183164 -0.172363 0.322711)
(-0.124473 -0.185708 0.355619)
(-0.0225814 -0.150057 0.302612)
(0.00799334 -0.182112 0.103096)
(-0.0963052 0.0536084 -0.218982)
(-0.113545 0.0315166 -0.0620862)
(-0.0995621 -0.00359929 0.0530285)
(-0.140076 -0.0334788 0.142775)
(0.026797 -0.0892011 0.101268)
(-0.0245295 0.101142 -0.2913)
(-0.0296206 0.100912 -0.274376)
(0.00367133 -0.0119271 -0.227965)
(-0.0639743 -0.00890306 0.0604095)
(-0.0863441 0.063312 -0.103252)
(0.0559693 -0.0181073 0.265425)
(0.136268 -0.0699316 0.344997)
(-0.0201515 -0.0409915 0.0849099)
(-0.117173 0.0595508 0.24323)
(-0.0617508 -0.18357 0.575323)
(-0.0791524 -0.256967 0.566062)
(0.0205341 -0.231526 0.344803)
(0.0232817 -0.0649563 0.178727)
(-0.0206493 -0.0543438 -0.318227)
(-0.144015 0.1117 0.166409)
(-0.176383 -0.0426216 0.339286)
(-0.0979241 -0.0631723 0.28952)
(0.0259903 -0.0459322 0.287269)
(-0.0296963 -0.0209623 0.0851993)
(-0.0836385 0.0438572 -0.246123)
(-0.0202546 0.140052 -0.332658)
(-0.00329798 0.0717315 -0.0747847)
(0.00515834 0.0337408 0.19687)
(-0.0187518 0.023094 0.0376035)
(-0.0277647 0.188987 -0.410504)
(-0.00153248 0.163548 -0.377643)
(-0.00402932 0.104047 -0.33231)
(-0.0996359 -0.0192045 0.0892972)
(-0.0803454 0.0325799 -0.100015)
(-0.0333781 -0.0630154 0.384323)
(-0.00101264 -0.181473 0.518363)
(-0.0192658 -0.0796954 0.185166)
(-0.165821 0.0412562 0.360391)
(-0.111296 -0.116536 0.620369)
(-0.0505279 -0.173621 0.580409)
(0.0500909 -0.0889787 0.295606)
(0.0349997 0.0343829 0.22842)
(0 0 0)
(-0.220178 -0.0230948 -0.153592)
(-0.0438523 0.0788443 -0.0366726)
(0.0254697 0.0304837 0.130148)
(0.0872253 0.0206851 0.152959)
(0.120011 0.0118304 0.0861387)
(-0.180801 0.0876331 -0.185884)
(-0.02071 0.110959 -0.299852)
(0.0505206 0.115406 -0.191139)
(0.0828915 0.111769 -0.157849)
(0.0561535 0.00167972 -0.224231)
(0 0 0)
(0 0 0)
(-0.0421823 -0.0256615 -0.201441)
(-0.0794152 -0.00873519 0.109568)
(-0.233706 -0.0828051 0.0310321)
(-0.0854839 -0.0816058 0.522493)
(-0.0665222 -0.120029 0.53202)
(0.011807 -0.0361657 0.233729)
(-0.318949 -0.07036 0.077841)
(-0.0559386 -0.0412213 0.434551)
(0.0471781 -0.112813 0.544919)
(0.0912839 -0.0367515 0.295673)
(0.0775523 0.147497 0.198098)
(-0.00668873 0.00768872 -0.00493319)
(0 0 0)
(-0.323026 0.230855 0.219143)
(-0.00537894 0.134584 0.00678137)
(0.11253 0.102219 -0.00987372)
(0.109677 0.0463394 -0.129207)
(0.0617257 -0.00218582 -0.250369)
(-0.00687521 -0.00125558 -0.00280134)
(0 0 0)
(0 0 0)
(0.0817234 0.0464817 -0.201746)
(0.070365 0.0602541 -0.230898)
(0.109044 0.0260461 -0.274647)
(0 0 0)
(0 0 0)
(0 0 0)
(-0.0473345 -0.00605056 0.126205)
(0 0 0)
(-0.129115 -0.167468 0.498006)
(0.00455953 -0.117934 0.50439)
(0.0689558 -0.0236749 0.285183)
(0 0 0)
(-0.0227145 0.015915 0.33853)
(0.105116 0.00147319 0.282317)
(0.169476 0.0156045 0.167132)
(0.169138 0.0561985 0.03037)
(0.242848 0.000109424 -0.248571)
(0 0 0)
(0 0 0)
(0 0 0)
(0.103316 0.148055 0.141469)
(0.117785 0.0528722 -0.150742)
(0.16181 0.0498009 -0.193279)
(0.218186 0.210476 -0.265481)
(0 0 0)
(0 0 0)
(0 0 0)
(0 0 0)
(0 0 0)
(0 0 0)
(0 0 0)
(0 0 0)
(0 0 0)
(-0.0524043 -0.0705005 0.0342665)
(0 0 0)
(-0.0774467 -0.147206 0.441287)
(0.0326805 -0.137713 0.457977)
(0.106194 -0.0415063 0.270493)
(0 0 0)
(0 0 0)
(0.0281544 -0.0352865 -0.096706)
(0.117125 -0.0298642 -0.0742332)
(0.196636 -0.0324161 -0.116633)
(0 0 0)
(0 0 0)
(0 0 0)
(0 0 0)
(0.0693789 0.0785167 0.0868866)
(0.115751 0.0359236 -0.123121)
(0.190046 0.0532164 -0.136853)
(0 0 0)
(0 0 0)
(0 0 0)
(0 0 0)
(0 0 0)
(0 0 0)
(0 0 0)
(0 0 0)
(0 0 0)
(0 0 0)
(-0.0358707 -0.0881925 -0.0749726)
(0 0 0)
(0 0 0)
(-0.0155899 0.127242 -0.106367)
(0.0892494 0.00980291 -0.110265)
(0 0 0)
(0 0 0)
(0.0306658 -0.0457704 -0.0693192)
(0.115754 -0.0460851 -0.0593628)
(0.19218 -0.0431117 -0.0745944)
(0 0 0)
(0 0 0)
(0 0 0)
(0 0 0)
(0 0 0)
(0.155015 0.0952997 -0.0366075)
(0.216532 0.0664024 -0.0419767)
(0 0 0)
(0 0 0)
(0 0 0)
(0 0 0)
(0 0 0)
(0 0 0)
(0 0 0)
(0 0 0)
(0 0 0)
(-0.0597168 -0.0183405 0.0380126)
(0 0 0)
(0 0 0)
(0 0 0)
(0.0662519 0.137274 -0.131041)
(0 0 0)
(0 0 0)
(0 0 0)
(0.116748 -0.0438589 0.00056003)
(0 0 0)
(0 0 0)
(0 0 0)
(0 0 0)
(0 0 0)
(0 0 0)
(0 0 0)
(0 0 0)
(0 0 0)
(0 0 0)
(0 0 0)
(0 0 0)
(0 0 0)
(0 0 0)
(0 0 0)
(0 0 0)
(0 0 0)
(0 0 0)
(0 0 0)
(0 0 0)
(0 0 0)
(0 0 0)
(0 0 0)
(0 0 0)
(0 0 0)
(0 0 0)
(0 0 0)
(0 0 0)
(0 0 0)
(0 0 0)
(0 0 0)
(0 0 0)
(0 0 0)
(0 0 0)
(0 0 0)
(0 0 0)
(0 0 0)
(0 0 0)
(0 0 0)
(0 0 0)
(0 0 0)
(0 0 0)
(0 0 0)
(0 0 0)
(0 0 0)
(0 0 0)
(0 0 0)
(0 0 0)
(0 0 0)
(0 0 0)
(0 0 0)
(0 0 0)
(0 0 0)
(0 0 0)
(0 0 0)
(0 0 0)
(0 0 0)
(0 0 0)
(0 0 0)
(0 0 0)
(0 0 0)
(0 0 0)
(0 0 0)
(0 0 0)
(0 0 0)
(0 0 0)
(0 0 0)
(0 0 0)
(0 0 0)
(0 0 0)
(0 0 0)
(0 0 0)
(0 0 0)
(0 0 0)
(0 0 0)
(0 0 0)
(0 0 0)
(0 0 0)
(0 0 0)
(0 0 0)
(0 0 0)
(0 0 0)
(0 0 0)
(0 0 0)
(0 0 0)
(0 0 0)
(0 0 0)
(0 0 0)
(0 0 0)
(0 0 0)
(0 0 0)
(0 0 0)
(0 0 0)
(0 0 0)
(0 0 0)
(0 0 0)
(0 0 0)
(0 0 0)
(0 0 0)
(0 0 0)
(0 0 0)
(0 0 0)
(0 0 0)
(0 0 0)
(0 0 0)
(0 0 0)
(0 0 0)
(0 0 0)
(0 0 0)
(0 0 0)
(0 0 0)
(0 0 0)
(0 0 0)
(0 0 0)
(0 0 0)
(0 0 0)
(0 0 0)
(0 0 0)
(0 0 0)
(0 0 0)
(0 0 0)
(0 0 0)
(0 0 0)
(0 0 0)
(0 0 0)
(0 0 0)
(0 0 0)
(0 0 0)
(0 0 0)
(0 0 0)
(0 0 0)
(0 0 0)
(0 0 0)
(0 0 0)
(0 0 0)
(0 0 0)
(0 0 0)
(0 0 0)
(0 0 0)
(0 0 0)
(0 0 0)
(0 0 0)
(0 0 0)
(0 0 0)
(0 0 0)
(0 0 0)
(0 0 0)
(0 0 0)
(0 0 0)
(0 0 0)
(0 0 0)
(0 0 0)
(0 0 0)
(0 0 0)
(0 0 0)
(0 0 0)
(0 0 0)
(0 0 0)
(0 0 0)
(0 0 0)
(0 0 0)
(0 0 0)
(0 0 0)
(0 0 0)
(0 0 0)
(0 0 0)
(0 0 0)
(0 0 0)
(0 0 0)
(0 0 0)
(0 0 0)
(0 0 0)
(0 0 0)
(0 0 0)
(0 0 0)
(0 0 0)
(0 0 0)
(0 0 0)
(0 0 0)
(0 0 0)
(0 0 0)
(0 0 0)
(0 0 0)
(0 0 0)
(0 0 0)
(0 0 0)
(0 0 0)
(0 0 0)
(0 0 0)
(0 0 0)
(0 0 0)
(0 0 0)
(0 0 0)
(0 0 0)
(0 0 0)
(0 0 0)
(0 0 0)
(0 0 0)
(0 0 0)
(0 0 0)
(0 0 0)
(0 0 0)
(0 0 0)
(0 0 0)
(0 0 0)
(0 0 0)
(0 0 0)
(0 0 0)
(0 0 0)
(0 0 0)
(0 0 0)
(0 0 0)
(0 0 0)
(0 0 0)
(0 0 0)
(0 0 0)
(0 0 0)
(0 0 0)
(0 0 0)
(0 0 0)
(0 0 0)
(0 0 0)
(0 0 0)
(0 0 0)
(0 0 0)
(0 0 0)
(0 0 0)
(0 0 0)
(0 0 0)
(0 0 0)
(0 0 0)
(0 0 0)
(0 0 0)
(0 0 0)
(0 0 0)
(0 0 0)
(0 0 0)
(0 0 0)
(0 0 0)
(0 0 0)
(0 0 0)
(0 0 0)
(0 0 0)
(0 0 0)
(0 0 0)
(0 0 0)
(0 0 0)
(0 0 0)
(0 0 0)
(0 0 0)
(0 0 0)
(0 0 0)
(0 0 0)
(0 0 0)
(0 0 0)
(0 0 0)
(0 0 0)
(0 0 0)
(0 0 0)
(0 0 0)
(0 0 0)
(0 0 0)
(0 0 0)
(0 0 0)
(0 0 0)
(0 0 0)
(0 0 0)
(0 0 0)
(0 0 0)
(0 0 0)
(0 0 0)
(0 0 0)
(0 0 0)
(0 0 0)
(0 0 0)
(0 0 0)
(0 0 0)
(0 0 0)
(0 0 0)
(0 0 0)
(0 0 0)
(0 0 0)
(0 0 0)
(0 0 0)
(0 0 0)
(0 0 0)
(0 0 0)
(0 0 0)
(0 0 0)
(0 0 0)
(0 0 0)
(0 0 0)
(0 0 0)
(0 0 0)
(0 0 0)
(0 0 0)
(0 0 0)
(0 0 0)
(0 0 0)
(0 0 0)
(0 0 0)
(0 0 0)
(0 0 0)
(0 0 0)
(0 0 0)
(0 0 0)
(0 0 0)
(0 0 0)
(0 0 0)
(0 0 0)
(0 0 0)
(0 0 0)
(0 0 0)
(0 0 0)
(0 0 0)
(0 0 0)
(0 0 0)
(0 0 0)
(0 0 0)
(0 0 0)
(0 0 0)
(0 0 0)
(0 0 0)
(0 0 0)
(0 0 0)
(0 0 0)
(0 0 0)
(0 0 0)
(0 0 0)
(0 0 0)
(0 0 0)
(0 0 0)
(0 0 0)
(0 0 0)
(0 0 0)
(0 0 0)
(0 0 0)
(0 0 0)
(0 0 0)
(0 0 0)
(0 0 0)
(0 0 0)
(0 0 0)
(0 0 0)
(0 0 0)
(0 0 0)
(0 0 0)
(0 0 0)
(0 0 0)
(0 0 0)
(0 0 0)
(0 0 0)
(0 0 0)
(0 0 0)
(0 0 0)
(0 0 0)
(0 0 0)
(0 0 0)
(0 0 0)
(0 0 0)
(0 0 0)
(0 0 0)
(0 0 0)
(0 0 0)
(0 0 0)
(0 0 0)
(0 0 0)
(0 0 0)
(0 0 0)
(0 0 0)
(0 0 0)
(0 0 0)
(0 0 0)
(0 0 0)
(0 0 0)
(0 0 0)
(0 0 0)
(0 0 0)
(0 0 0)
(0 0 0)
(0 0 0)
(0 0 0)
(0 0 0)
(0 0 0)
(0 0 0)
(0 0 0)
(0 0 0)
(0 0 0)
(0 0 0)
(0 0 0)
(0 0 0)
(0 0 0)
(0 0 0)
(0 0 0)
(0 0 0)
(0 0 0)
(0 0 0)
(0 0 0)
(0 0 0)
(0 0 0)
(0 0 0)
(0 0 0)
(0 0 0)
(0 0 0)
(0 0 0)
(0 0 0)
(0 0 0)
(0 0 0)
(0 0 0)
(0 0 0)
(0 0 0)
(0 0 0)
(0 0 0)
(0 0 0)
(0 0 0)
(0 0 0)
(0 0 0)
(0 0 0)
(0 0 0)
(0 0 0)
(0 0 0)
(0 0 0)
(0 0 0)
(0 0 0)
(0 0 0)
(0 0 0)
(0 0 0)
(0 0 0)
(0 0 0)
(0 0 0)
(0 0 0)
(0 0 0)
(0 0 0)
(0 0 0)
(0 0 0)
(0 0 0)
(0 0 0)
(0 0 0)
(0 0 0)
(0 0 0)
(0 0 0)
(0 0 0)
(0 0 0)
(0 0 0)
(0 0 0)
(0 0 0)
(0 0 0)
(0 0 0)
(0 0 0)
(0 0 0)
(0 0 0)
(0 0 0)
(0 0 0)
(0 0 0)
(0 0 0)
(0 0 0)
(0 0 0)
(0 0 0)
(0 0 0)
(0 0 0)
(0 0 0)
(0 0 0)
(0 0 0)
(0 0 0)
(0 0 0)
(0 0 0)
(0 0 0)
(0 0 0)
(0 0 0)
(0 0 0)
(0 0 0)
(0 0 0)
(0 0 0)
(0 0 0)
(0 0 0)
(0 0 0)
(0 0 0)
(0 0 0)
(0 0 0)
(0 0 0)
(0 0 0)
(0 0 0)
(0 0 0)
(0 0 0)
(0 0 0)
(0 0 0)
(0 0 0)
(0 0 0)
(0 0 0)
(0 0 0)
(0 0 0)
(0 0 0)
(0 0 0)
(0 0 0)
(0 0 0)
(0 0 0)
(0 0 0)
(0 0 0)
(0 0 0)
(0 0 0)
(0 0 0)
(0 0 0)
(0 0 0)
(0 0 0)
(0 0 0)
(0 0 0)
(0 0 0)
(0 0 0)
(0 0 0)
(0 0 0)
(0 0 0)
(0 0 0)
(0 0 0)
(0 0 0)
(0 0 0)
(0 0 0)
(0 0 0)
(0 0 0)
(0 0 0)
(0 0 0)
(0 0 0)
(0 0 0)
(0 0 0)
(0 0 0)
(0 0 0)
(0 0 0)
(0 0 0)
(0 0 0)
(0 0 0)
(0 0 0)
(0 0 0)
(0 0 0)
(0 0 0)
(0 0 0)
(0 0 0)
(0 0 0)
(0 0 0)
(0 0 0)
(0 0 0)
(0 0 0)
(0 0 0)
(0 0 0)
(0 0 0)
(0 0 0)
(0 0 0)
(0 0 0)
(0 0 0)
(0 0 0)
(0 0 0)
(0 0 0)
(0 0 0)
(0 0 0)
(0 0 0)
(0 0 0)
(0 0 0)
(0 0 0)
(0 0 0)
(0 0 0)
(0 0 0)
(0 0 0)
(0 0 0)
(0 0 0)
(0 0 0)
(0 0 0)
(0 0 0)
(0 0 0)
(0 0 0)
(0 0 0)
(0 0 0)
(0 0 0)
(0 0 0)
(0 0 0)
(0 0 0)
(0 0 0)
(0 0 0)
(0 0 0)
(0 0 0)
(0 0 0)
(0 0 0)
(0 0 0)
(0 0 0)
(0 0 0)
(0 0 0)
(0 0 0)
(0 0 0)
(0 0 0)
(0 0 0)
(0 0 0)
(0 0 0)
(0 0 0)
(0 0 0)
(0 0 0)
(0 0 0)
(0 0 0)
(0 0 0)
(0 0 0)
(0 0 0)
(0 0 0)
(0 0 0)
(0 0 0)
(0 0 0)
(0 0 0)
(0 0 0)
(0 0 0)
(0 0 0)
(0 0 0)
(0 0 0)
(0 0 0)
(0 0 0)
(0 0 0)
(0 0 0)
(0 0 0)
(0 0 0)
(0 0 0)
(0 0 0)
(0 0 0)
(0 0 0)
(0 0 0)
(0 0 0)
(0 0 0)
(0 0 0)
(0 0 0)
(0 0 0)
(0 0 0)
(0 0 0)
(0 0 0)
(0 0 0)
(0 0 0)
(0 0 0)
(0 0 0)
(0 0 0)
(0 0 0)
(0 0 0)
(0 0 0)
(0 0 0)
(0 0 0)
(0 0 0)
(0 0 0)
(0 0 0)
(0 0 0)
(0 0 0)
(0 0 0)
(0 0 0)
(0 0 0)
(0 0 0)
(0 0 0)
(0 0 0)
(0 0 0)
(0 0 0)
(0 0 0)
(0 0 0)
(0 0 0)
(0 0 0)
(0 0 0)
(0 0 0)
(0 0 0)
(0 0 0)
(0 0 0)
(0 0 0)
(0 0 0)
(0 0 0)
(0 0 0)
(0 0 0)
(0 0 0)
(0 0 0)
(0 0 0)
(0 0 0)
(0 0 0)
(0 0 0)
(0 0 0)
(0 0 0)
(0 0 0)
(0 0 0)
(0 0 0)
(0 0 0)
(0 0 0)
(0 0 0)
(0 0 0)
(0 0 0)
(0 0 0)
(0 0 0)
(0 0 0)
(0 0 0)
(0 0 0)
(0 0 0)
(0 0 0)
(0 0 0)
(0 0 0)
(0 0 0)
(0 0 0)
(0 0 0)
(0 0 0)
(0 0 0)
(0 0 0)
(0 0 0)
(0 0 0)
(0 0 0)
(0 0 0)
(0 0 0)
(0 0 0)
(0 0 0)
(0 0 0)
(0 0 0)
(0 0 0)
(0 0 0)
(0 0 0)
(0 0 0)
(0 0 0)
(0 0 0)
(0 0 0)
(0 0 0)
(0 0 0)
(0 0 0)
(0 0 0)
(0 0 0)
(0 0 0)
(0 0 0)
(0 0 0)
(0 0 0)
(0 0 0)
(0 0 0)
(0 0 0)
(0 0 0)
(0 0 0)
(0 0 0)
(0 0 0)
(0 0 0)
(0 0 0)
(0 0 0)
(0 0 0)
(0 0 0)
(0 0 0)
(0 0 0)
(0 0 0)
(0 0 0)
(0 0 0)
(0 0 0)
(0 0 0)
(0 0 0)
(0 0 0)
(0 0 0)
(0 0 0)
(0 0 0)
(0 0 0)
(0 0 0)
(0 0 0)
(0 0 0)
(0 0 0)
(0 0 0)
(0 0 0)
(0 0 0)
(0 0 0)
(0 0 0)
(0 0 0)
(0 0 0)
(0 0 0)
(0 0 0)
(0 0 0)
(0 0 0)
(0 0 0)
(0 0 0)
(0 0 0)
(0 0 0)
(0 0 0)
(0 0 0)
(0 0 0)
(0 0 0)
(0 0 0)
(0 0 0)
(0 0 0)
(0 0 0)
(0 0 0)
(0 0 0)
(0 0 0)
(0 0 0)
(0 0 0)
(0 0 0)
(0 0 0)
(0 0 0)
(0 0 0)
(0 0 0)
(0 0 0)
(0 0 0)
(0 0 0)
(0 0 0)
(0 0 0)
(0 0 0)
(0 0 0)
(0 0 0)
(0 0 0)
(0 0 0)
(0 0 0)
(0 0 0)
(0 0 0)
(0 0 0)
(0 0 0)
(0 0 0)
(0 0 0)
(0 0 0)
(0 0 0)
(0 0 0)
(0 0 0)
(0 0 0)
(0 0 0)
(0 0 0)
(0 0 0)
(0 0 0)
(0 0 0)
(0 0 0)
(0 0 0)
(0 0 0)
(0 0 0)
(0 0 0)
(0 0 0)
(0 0 0)
(0 0 0)
(0 0 0)
(0 0 0)
(0 0 0)
(0 0 0)
(0 0 0)
(0 0 0)
(0 0 0)
(0 0 0)
(0 0 0)
(0 0 0)
(0 0 0)
(0 0 0)
(0 0 0)
(0 0 0)
(0 0 0)
(0 0 0)
(0 0 0)
(0 0 0)
(0 0 0)
(0 0 0)
(0 0 0)
(0 0 0)
(0 0 0)
(0 0 0)
(0 0 0)
(0 0 0)
(0 0 0)
(0 0 0)
(0 0 0)
(0 0 0)
(0 0 0)
(0 0 0)
(0 0 0)
(0 0 0)
(0 0 0)
(0 0 0)
(0 0 0)
(0 0 0)
(0 0 0)
(0 0 0)
(0 0 0)
(0 0 0)
(0 0 0)
(0 0 0)
(0 0 0)
(0 0 0)
(0 0 0)
(0 0 0)
(0 0 0)
(0 0 0)
(0 0 0)
(0 0 0)
(0 0 0)
(0 0 0)
(0 0 0)
(0 0 0)
(0 0 0)
(0 0 0)
(0 0 0)
(0 0 0)
(0 0 0)
(0 0 0)
(0 0 0)
(0 0 0)
(0 0 0)
(0 0 0)
(0 0 0)
(0 0 0)
(0 0 0)
(0 0 0)
(0 0 0)
(0 0 0)
(0 0 0)
(0 0 0)
(0 0 0)
(0 0 0)
(0 0 0)
(0 0 0)
(0 0 0)
(0 0 0)
(0 0 0)
(0 0 0)
(0 0 0)
(0 0 0)
(0 0 0)
(0 0 0)
(0 0 0)
(0 0 0)
(0 0 0)
(0 0 0)
(0 0 0)
(0 0 0)
(0 0 0)
(0 0 0)
(0 0 0)
(0 0 0)
(0 0 0)
(0 0 0)
(0 0 0)
(0 0 0)
(0 0 0)
(0 0 0)
(0 0 0)
(0 0 0)
(0 0 0)
(0 0 0)
(0 0 0)
(0 0 0)
(0 0 0)
(0 0 0)
(0 0 0)
(0 0 0)
(0 0 0)
(0 0 0)
(0 0 0)
(0 0 0)
(0 0 0)
(0 0 0)
(0 0 0)
(0 0 0)
(0 0 0)
(0 0 0)
(0 0 0)
(0 0 0)
(0 0 0)
(0 0 0)
(0 0 0)
(0 0 0)
(0 0 0)
(0 0 0)
(0 0 0)
(0 0 0)
(0 0 0)
(0 0 0)
(0 0 0)
(0 0 0)
(0 0 0)
(0 0 0)
(0 0 0)
(0 0 0)
(0 0 0)
(0 0 0)
(0 0 0)
(0 0 0)
(0 0 0)
(0 0 0)
(0 0 0)
(0 0 0)
(0 0 0)
(0 0 0)
(0 0 0)
(0 0 0)
(0 0 0)
(0 0 0)
(0 0 0)
(0 0 0)
(0 0 0)
(0 0 0)
(0 0 0)
(0 0 0)
(0 0 0)
(0 0 0)
(0 0 0)
(0 0 0)
(0 0 0)
(0 0 0)
(0 0 0)
(0 0 0)
(0 0 0)
(0 0 0)
(0 0 0)
(0 0 0)
(0 0 0)
(0 0 0)
(0 0 0)
(0 0 0)
(0 0 0)
(0 0 0)
(0 0 0)
(0 0 0)
(0 0 0)
(0 0 0)
(0 0 0)
(0 0 0)
(0 0 0)
(0 0 0)
(0 0 0)
(0 0 0)
(0 0 0)
(0 0 0)
(0 0 0)
(0 0 0)
(0 0 0)
(0 0 0)
(0 0 0)
(0 0 0)
(0 0 0)
(0 0 0)
(0 0 0)
(0 0 0)
(0 0 0)
(0 0 0)
(0 0 0)
(0 0 0)
(0 0 0)
(0 0 0)
(0 0 0)
(0 0 0)
(0 0 0)
(0 0 0)
(0 0 0)
(0 0 0)
(0 0 0)
(0 0 0)
(0 0 0)
(0 0 0)
(0 0 0)
(0 0 0)
(0 0 0)
(0 0 0)
(0 0 0)
(0 0 0)
(0 0 0)
(0 0 0)
(0 0 0)
(0 0 0)
(0 0 0)
(0 0 0)
(0 0 0)
(0 0 0)
(0 0 0)
(0 0 0)
(0 0 0)
(0 0 0)
(0 0 0)
(0 0 0)
(0 0 0)
(0 0 0)
(0 0 0)
(0 0 0)
(0 0 0)
(0 0 0)
(0 0 0)
(0 0 0)
(0 0 0)
(0 0 0)
(0 0 0)
(0 0 0)
(0 0 0)
(0 0 0)
(0 0 0)
(0 0 0)
(0 0 0)
(0 0 0)
(0 0 0)
(0 0 0)
(0 0 0)
(0 0 0)
(0 0 0)
(0 0 0)
(0 0 0)
(0 0 0)
(0 0 0)
(0 0 0)
(0 0 0)
(0 0 0)
(0 0 0)
(0 0 0)
(0 0 0)
(0 0 0)
(0 0 0)
(0 0 0)
(0 0 0)
(0 0 0)
(0 0 0)
(0 0 0)
(0 0 0)
(0 0 0)
(0 0 0)
(0 0 0)
(0 0 0)
(0 0 0)
(0 0 0)
(0 0 0)
(0 0 0)
(0 0 0)
(0 0 0)
(0 0 0)
(0 0 0)
(0 0 0)
(0 0 0)
(0 0 0)
(0 0 0)
(0 0 0)
(0 0 0)
(0 0 0)
(0 0 0)
(0 0 0)
(0 0 0)
(0 0 0)
(0 0 0)
(0 0 0)
(0 0 0)
(0 0 0)
(0 0 0)
(0 0 0)
(0 0 0)
(0 0 0)
(0 0 0)
(0 0 0)
(0 0 0)
(0 0 0)
(0 0 0)
(0 0 0)
(0 0 0)
(0 0 0)
(0 0 0)
(0 0 0)
(0 0 0)
(0 0 0)
(0 0 0)
(0 0 0)
(0 0 0)
(0 0 0)
(0 0 0)
(0 0 0)
(0 0 0)
(0 0 0)
(0 0 0)
(0 0 0)
(0 0 0)
(0 0 0)
(0 0 0)
(0 0 0)
(0 0 0)
(0 0 0)
(0 0 0)
(0 0 0)
(0 0 0)
(0 0 0)
(0 0 0)
(0 0 0)
(0 0 0)
(0 0 0)
(0 0 0)
(0 0 0)
(0 0 0)
(0 0 0)
(0 0 0)
(0 0 0)
(0 0 0)
(0 0 0)
(0 0 0)
(0 0 0)
(0 0 0)
(0 0 0)
(0 0 0)
(0 0 0)
(0 0 0)
(0 0 0)
(0 0 0)
(0 0 0)
(0 0 0)
(0 0 0)
(0 0 0)
(0 0 0)
(0 0 0)
(0 0 0)
(0 0 0)
(0 0 0)
(0 0 0)
(0 0 0)
(0 0 0)
(0 0 0)
(0 0 0)
(0 0 0)
(0 0 0)
(0 0 0)
(0 0 0)
(0 0 0)
(0 0 0)
(0 0 0)
(0 0 0)
(0 0 0)
(0 0 0)
(0 0 0)
(0 0 0)
(0 0 0)
(0 0 0)
(0 0 0)
(0 0 0)
(0 0 0)
(0 0 0)
(0 0 0)
(0 0 0)
(0 0 0)
(0 0 0)
(0 0 0)
(0 0 0)
(0 0 0)
(0 0 0)
(0 0 0)
(0 0 0)
(0 0 0)
(0 0 0)
(0 0 0)
(0 0 0)
(0 0 0)
(0 0 0)
(0 0 0)
(0 0 0)
(0 0 0)
(0 0 0)
(0 0 0)
(0 0 0)
(0 0 0)
(0 0 0)
(0 0 0)
(0 0 0)
(0 0 0)
(0 0 0)
(0 0 0)
(0 0 0)
(0 0 0)
(0 0 0)
(0 0 0)
(0 0 0)
(0 0 0)
(0 0 0)
(0 0 0)
(0 0 0)
(0 0 0)
(0 0 0)
(0 0 0)
(0 0 0)
(0 0 0)
(0 0 0)
(0 0 0)
(0 0 0)
(0 0 0)
(0 0 0)
(0 0 0)
(0 0 0)
(0 0 0)
(0 0 0)
(0 0 0)
(0 0 0)
(0 0 0)
(0 0 0)
(0 0 0)
(0 0 0)
(0 0 0)
(0 0 0)
(0 0 0)
(0 0 0)
(0 0 0)
(0 0 0)
(0 0 0)
(0 0 0)
(0 0 0)
(0 0 0)
(0 0 0)
(0 0 0)
(0 0 0)
(0 0 0)
(0 0 0)
(0 0 0)
(0 0 0)
(0 0 0)
(0 0 0)
(0 0 0)
(0 0 0)
(0 0 0)
(0 0 0)
(0 0 0)
(0 0 0)
(0 0 0)
(0 0 0)
(0 0 0)
(0 0 0)
(0 0 0)
(0 0 0)
(0 0 0)
(0 0 0)
(0 0 0)
(0 0 0)
(0 0 0)
(0 0 0)
(0 0 0)
(0 0 0)
(0 0 0)
(0 0 0)
(0 0 0)
(0 0 0)
(0 0 0)
(0 0 0)
(0 0 0)
(0 0 0)
(0 0 0)
(0 0 0)
(0 0 0)
(0 0 0)
(0 0 0)
(0 0 0)
(0 0 0)
(0 0 0)
(0 0 0)
(0 0 0)
(0 0 0)
(0 0 0)
(0 0 0)
(0 0 0)
(0 0 0)
(0 0 0)
(0 0 0)
(0 0 0)
(0 0 0)
(0 0 0)
(0 0 0)
(0 0 0)
(0 0 0)
(0 0 0)
(0 0 0)
(0 0 0)
(0 0 0)
(0 0 0)
(0 0 0)
(0 0 0)
(0 0 0)
(0 0 0)
(0 0 0)
(0 0 0)
(0 0 0)
(0 0 0)
(0 0 0)
(0 0 0)
(0 0 0)
(0 0 0)
(0 0 0)
(0 0 0)
(0 0 0)
(0 0 0)
(0 0 0)
(0 0 0)
(0 0 0)
(0 0 0)
(0 0 0)
(0 0 0)
(0 0 0)
(0 0 0)
(0 0 0)
(0 0 0)
(0 0 0)
(0 0 0)
(0 0 0)
(0 0 0)
(0 0 0)
(0 0 0)
(0 0 0)
(0 0 0)
(0 0 0)
(0 0 0)
(0 0 0)
(0 0 0)
(0 0 0)
(0 0 0)
(0 0 0)
(0 0 0)
(0 0 0)
(0 0 0)
(0 0 0)
(0 0 0)
(0 0 0)
(0 0 0)
(0 0 0)
(0 0 0)
(0 0 0)
(0 0 0)
(0 0 0)
(0 0 0)
(0 0 0)
(0 0 0)
(0 0 0)
(0 0 0)
(0 0 0)
(0 0 0)
(0 0 0)
(0 0 0)
(0 0 0)
(0 0 0)
(0 0 0)
(0 0 0)
(0 0 0)
(0 0 0)
(0 0 0)
(0 0 0)
(0 0 0)
(0 0 0)
(0 0 0)
(0 0 0)
(0 0 0)
(0 0 0)
(0 0 0)
(0 0 0)
(0 0 0)
(0 0 0)
(0 0 0)
(0 0 0)
(0 0 0)
(0 0 0)
(0 0 0)
(0 0 0)
(0 0 0)
(0 0 0)
(0 0 0)
(0 0 0)
(0 0 0)
(0 0 0)
(0 0 0)
(0 0 0)
(0 0 0)
(0 0 0)
(0 0 0)
(0 0 0)
(0 0 0)
(0 0 0)
(0 0 0)
(0 0 0)
(0 0 0)
(0 0 0)
(0 0 0)
(0 0 0)
(0 0 0)
(0 0 0)
(0 0 0)
(0 0 0)
(0 0 0)
(0 0 0)
(0 0 0)
(0 0 0)
(0 0 0)
(0 0 0)
(0 0 0)
(0 0 0)
(0 0 0)
(0 0 0)
(0 0 0)
(0 0 0)
(0 0 0)
(0 0 0)
(0 0 0)
(0 0 0)
(0 0 0)
(0 0 0)
(0 0 0)
(0 0 0)
(0 0 0)
(0 0 0)
(0 0 0)
(0 0 0)
(0 0 0)
(0 0 0)
(0 0 0)
(0 0 0)
(0 0 0)
(0 0 0)
(0 0 0)
(0 0 0)
(0 0 0)
(0 0 0)
(0 0 0)
(0 0 0)
(0 0 0)
(0 0 0)
(0 0 0)
(0 0 0)
(0 0 0)
(0 0 0)
(0 0 0)
(0 0 0)
(0 0 0)
(0 0 0)
(0 0 0)
(0 0 0)
(0 0 0)
(0 0 0)
(0 0 0)
(0 0 0)
(0 0 0)
(0 0 0)
(0 0 0)
(0 0 0)
(0 0 0)
(0 0 0)
(0 0 0)
(0 0 0)
(0 0 0)
(0 0 0)
(0 0 0)
(0 0 0)
(0 0 0)
(0 0 0)
(0 0 0)
(0 0 0)
(0 0 0)
(0 0 0)
(0 0 0)
(0 0 0)
(0 0 0)
(0 0 0)
(0 0 0)
(0 0 0)
(0 0 0)
(0 0 0)
(0 0 0)
(0 0 0)
(0 0 0)
(0 0 0)
(0 0 0)
(0 0 0)
(0 0 0)
(0 0 0)
(0 0 0)
(0 0 0)
(0 0 0)
(0 0 0)
(0 0 0)
(0 0 0)
(0 0 0)
(0 0 0)
(0 0 0)
(0 0 0)
(0 0 0)
(0 0 0)
(0 0 0)
(0 0 0)
(0 0 0)
(0 0 0)
(0 0 0)
(0 0 0)
(0 0 0)
(0 0 0)
(0 0 0)
(0 0 0)
(0 0 0)
(0 0 0)
(0 0 0)
(0 0 0)
(0 0 0)
(0 0 0)
(0 0 0)
(0 0 0)
(0 0 0)
(0 0 0)
(0 0 0)
(0 0 0)
(0 0 0)
(0 0 0)
(0 0 0)
(0 0 0)
(0 0 0)
(0 0 0)
(0 0 0)
(0 0 0)
(0 0 0)
(0 0 0)
(0 0 0)
(0 0 0)
(0.0343673 0.00199528 -0.0278742)
(0.00293085 0.0237837 -0.00673429)
(0.00993246 0.0733137 -0.0421389)
(0.00770844 0.054083 -0.0177492)
(-0.00114508 0.0141196 -0.0103189)
(0.027104 0.0636353 -0.0315216)
(0.0332695 0.0264282 -0.00883462)
(0.054317 -0.0179747 5.62535e-05)
(0.0967137 -0.222585 -0.00342648)
(0.0930858 -0.0804955 0.0115096)
(0.0708596 -0.025093 0.0178697)
(0.153128 -0.286086 0.0155401)
(0.217011 -0.359897 -0.00507658)
(0.0715997 0.0306193 0.0137848)
(0.0336447 0.0504199 -0.0203764)
(0.182981 -0.19915 0.0168982)
(0.120161 -0.0643179 0.0289082)
(0.0288237 -0.0715778 -0.0129544)
(0.105199 -0.0697887 0.0187916)
(0.13538 -0.179719 0.0186035)
(0.0822361 -0.203279 -0.0025125)
(0.0431948 -0.00434307 0.00597987)
(-0.00234626 0.00879291 -0.0148346)
(-0.0487634 0.0551204 -0.010544)
(-0.0495425 0.0149226 -0.0185525)
(-0.0295076 -0.00352511 -0.0115688)
(0.0743396 -0.277702 -0.00992427)
(0.0192159 -0.169007 -0.0250829)
(0.0445281 -0.268276 -0.0211714)
(0.144004 -0.371502 -0.0155782)
(0.276703 -0.385182 -0.0304175)
(0.145633 -0.296473 -0.00929146)
(0.279043 -0.329028 -0.0287906)
(0.325866 -0.368693 -0.0299046)
(0.303233 -0.233766 -0.00143345)
(0.342517 -0.318914 -0.0346161)
(0.375131 -0.289338 -0.0337189)
(0.157167 -0.19333 0.0298081)
(0.0929601 -0.265217 0.00620129)
(0.209877 -0.235111 0.011226)
(0.118854 -0.24226 0.00621941)
(0.0072178 0.0229063 -0.00984519)
(-0.0956955 -0.0761065 -0.0425886)
(0.00792137 -0.190682 -0.000421121)
(-0.090284 -0.0419677 -0.0156969)
(-0.0556146 -0.0472022 -0.0171471)
(-0.0439964 -0.0324318 -0.00934717)
(-0.0174724 -0.0239964 -0.0307327)
(0.00805087 -0.139941 -0.0203956)
(0.0386621 -0.182418 -0.0323951)
(0.0373934 -0.0964627 -0.0302048)
(0.154827 -0.218902 -0.0206645)
(0.273305 -0.242352 -0.0284403)
(0.135805 -0.123077 -0.0313593)
(0.245608 -0.117734 -0.0226458)
(0.343168 -0.226321 -0.0319672)
(0.374101 -0.216346 -0.0395359)
(0.329241 -0.113502 -0.0325797)
(0.342424 -0.140042 -0.0235296)
(0.22787 -0.213006 0.00698454)
(0.134233 -0.212178 0.00155157)
(0.179221 -0.189631 -0.00264217)
(0.127641 -0.22486 -0.0194761)
(0.0254037 -0.209711 -0.00654257)
(-0.0149166 -0.15546 -0.0364992)
(0.0906266 -0.187189 -0.00397265)
(0.036369 -0.135094 -0.0152965)
(-0.0253502 -0.0431995 -0.0175215)
(-0.0177774 -0.00511747 -0.0185921)
(0.0151519 -0.0943796 -0.0376193)
(0.0289337 -0.0476936 -0.0432837)
(0.10032 -0.0180481 -0.0378085)
(0.209631 0.00685986 -0.0172582)
(0.0669595 0.0132097 -0.0392071)
(0.115912 0.0379991 -0.00308258)
(0.298922 -0.0220689 -0.0285385)
(0.202419 -0.0866809 -0.00216286)
(0.102971 -0.00709764 0.00283953)
(0.0612844 -0.0499512 -0.00913213)
(0.103876 -0.161162 -0.0209607)
(0.154377 -0.191324 -0.0260897)
(0.0894217 -0.101561 -0.0193576)
(0.152793 -0.11577 -0.0310612)
(0.139232 -0.138081 -0.0113389)
(0.0586798 -0.0699051 -0.00565073)
(0.125351 -0.0820883 -0.0101221)
(0.0527327 -0.0223038 0.000751123)
(0.0218304 -0.06072 -0.0094732)
(0.0204888 0.00671052 -0.00230436)
(0.0157458 -0.00240085 -0.00259144)
(0.0130017 -0.00696015 -0.00532531)
(0.00517459 -0.00319685 -0.00358684)
(0.056567 -0.0277054 -0.0175845)
(0.105841 -0.0478987 -0.0155124)
(0.00926189 -0.00948862 -0.0113446)
(0.0934823 -0.0449019 -0.0110369)
(0.142924 -0.0745445 -0.0277511)
(0.162132 -0.100573 0.0292893)
(0 0 0)
(0.0473323 0.0689469 -0.0722338)
(0.0379544 0.120501 -0.0549922)
(0.0732862 0.0431802 0.0700655)
(0.130476 -0.029742 -0.00958572)
(0.0656944 0.0842848 -0.0205497)
(0.0607585 0.110264 -0.0481208)
(0.0334776 0.0926459 -0.0606799)
(0.0706031 0.0598032 0.059413)
(0.0816011 0.109057 -0.0119292)
(0.0279157 0.0756775 -0.0583218)
(0.0658824 0.00145459 -0.0439815)
(-0.0111081 0.0237342 -0.0856011)
(0.135805 -0.269275 -0.0480407)
(0.0603628 -0.079689 -0.0279253)
(0.173526 -0.158005 0.049809)
(0.194796 -0.343181 -0.0121007)
(0.238259 -0.348733 0.0639311)
(0.160025 -0.171259 0.0340843)
(0.205511 -0.237639 0.100513)
(0.139596 -0.156261 0.0437295)
(0.258849 -0.364207 0.128896)
(-0.0793002 -0.0612145 -0.0950858)
(-0.176881 -0.018478 0.0157346)
(-0.110025 -0.0927158 -0.0700357)
(-0.056861 -0.00811617 0.00219086)
(-0.0529269 -0.0453462 -0.0835871)
(-0.17918 -0.0372876 0.0122477)
(-0.111923 -0.105573 -0.0482241)
(-0.0807338 -0.117781 -0.103226)
(-0.0774662 -0.1308 -0.0641385)
(0.115296 -0.255051 -0.0349536)
(0.02861 -0.113841 -0.0808542)
(0.0932718 -0.191767 -0.0296274)
(0.0691614 -0.0696507 -0.0106662)
(0.0155408 -0.0152937 -0.124017)
(0.0814529 -0.0297814 -0.0538101)
(-0.0472871 -0.108945 -0.0791918)
(-0.0150308 -0.104267 -0.124631)
(-0.0623176 -0.173555 -0.0457765)
(-0.0420775 -0.144875 -0.0440688)
(-0.0176046 -0.126298 -0.0787192)
(0.0667631 -0.109761 -0.0307525)
(0.0456004 -0.0464749 -0.0669899)
(0.0198766 0.00824119 -0.152164)
(0.0972198 0.0180084 -0.102617)
(0.0611747 0.0331475 -0.126151)
(-0.00074403 -0.0626397 -0.105253)
(0.055509 -0.149243 -0.112112)
(0.00808475 -0.154832 -0.0499905)
(0.0115488 -0.103994 -0.0286939)
(0.0406166 -0.148145 -0.100663)
(0.0267221 -0.016491 -0.113484)
(0.0238478 0.0141391 -0.153542)
(0.125455 -0.0944168 -0.00908741)
(0.0177796 -0.0191464 -0.112816)
(0.0752766 -0.0137815 -0.0418895)
(0.00637027 -0.0764174 -0.0814882)
(-0.0114464 -0.192119 0.0709755)
(-0.0471993 -0.0952064 -0.10275)
(-0.0386192 -0.132115 0.0816586)
(0.130087 -0.211835 -0.0973205)
(0.175351 -0.172267 -0.0733797)
(0.158556 -0.167192 -0.10405)
(0.020202 -0.248668 -0.0503465)
(0.109681 -0.211928 -0.10644)
(0.0260318 -0.179582 -0.0827804)
(0.125253 -0.168371 -0.0875669)
(0.11193 -0.177907 -0.118426)
(0.104876 0.0800326 0.0201571)
(0.0189989 -0.0239606 0.0849395)
(-0.014712 -0.0956331 -0.180044)
(-0.0156011 -0.0257329 -0.200701)
(-0.0589086 -0.108204 -0.134464)
(-0.0238013 -0.0824 -0.226)
(-0.0207894 -0.0129575 -0.219634)
(0.14147 -0.113339 -0.10257)
(0.0202178 -0.0280121 -0.207586)
(-0.0445622 -0.0728686 -0.236047)
(-0.0716205 -0.0800813 -0.217751)
(-0.0179799 -0.0114904 -0.236987)
(-0.0334194 -0.0578882 -0.143916)
(0.135011 -0.0628992 0.0213002)
(0.0629975 -0.0233744 -0.00431306)
(0.0658662 0.0509469 0.0820668)
(0.139194 -0.0475829 0.0360448)
(0.0865563 0.0603329 0.0376439)
(0.0473709 0.0352559 0.0811666)
(0.103941 -0.029768 0.043095)
(0.0917075 0.0365106 0.0840791)
(0.0728662 0.0893286 0.0351146)
(0.0372352 0.0556887 -0.0272421)
(0.0312116 0.0303145 0.0581477)
(0.0527608 0.0486798 0.0665968)
(0.0327916 0.0246438 -0.00930194)
(0.0108856 0.0401716 -0.0829997)
(0.0235958 0.0250376 -0.0735943)
(0.0069527 0.0418141 -0.0227032)
(-0.0209863 0.0787496 -0.0293267)
(0.189809 -0.106179 0.0930978)
(0.117838 -0.0420805 0.0973975)
(0.2183 -0.178994 0.202266)
(0.0229695 0.0362918 0.00695818)
(0.137774 -0.00460201 0.0998824)
(0.0317764 0.0781118 0.0891483)
(0.201012 -0.0878514 0.293859)
(-0.0232655 -0.0211318 -0.05381)
(-0.160401 -0.0480636 0.059705)
(-0.0931599 -0.0938324 3.34896e-05)
(-0.0234412 0.0244527 0.0295558)
(-0.00923746 -0.00952713 -0.0288055)
(-0.125678 -0.0378488 0.119358)
(-0.0715564 -0.0812136 0.0507578)
(-0.058177 -0.104032 -0.0253747)
(-0.0364751 -0.0674969 0.017136)
(0.0206617 0.0641152 -0.00935317)
(0.000832019 0.0490386 -0.165922)
(0.0354668 0.0864787 -0.0769104)
(-0.00955256 0.110448 -0.0316572)
(-0.034625 0.0792733 -0.219084)
(0.00151434 0.142813 -0.0552203)
(-0.0370404 -0.186796 0.0189279)
(-0.0261044 -0.135472 -0.0248421)
(-0.0483128 -0.172516 0.0247305)
(-0.0255804 -0.219208 0.060518)
(-0.0223272 -0.142691 0.0142009)
(0.0675506 0.0509816 -0.133368)
(0.0150739 0.0412309 -0.183561)
(-0.0290531 0.0238711 -0.409643)
(-0.103982 0.077972 -0.151351)
(-0.139822 0.0629844 -0.231609)
(-0.00034257 -0.138544 0.0279664)
(0.0535612 -0.20259 -0.0188435)
(0.0267928 -0.213489 0.069013)
(0.0136237 -0.155628 0.0397065)
(0.0447851 -0.186244 0.0516621)
(-0.0357058 0.0325068 -0.276812)
(-0.0820578 0.0244878 -0.349664)
(-0.0753246 -0.258433 0.120307)
(-0.134817 -0.169124 -0.114847)
(-0.123357 -0.246169 0.0531777)
(-0.189071 -0.0114264 -0.0638527)
(-0.163408 -0.229987 0.132346)
(-0.0956099 -0.0986857 -0.241886)
(-0.148512 -0.169491 0.00714046)
(0.0502335 -0.212535 -0.00911218)
(-0.072691 -0.128934 -0.0750555)
(0.0537066 -0.136358 -0.016717)
(-0.100207 -0.126282 0.0666365)
(-0.015881 -0.147616 0.0754288)
(-0.048409 -0.0680634 -0.0803534)
(-0.00752884 -0.0680874 0.00116515)
(0.0486985 -0.147333 0.0686074)
(-0.10696 -0.114277 -0.099988)
(-0.0652569 -0.049662 -0.192394)
(-0.0268428 -0.0219162 -0.244967)
(-0.0292235 -0.00123721 -0.22671)
(-0.0317578 -0.00052021 -0.225615)
(-0.0330676 0.0383301 -0.25101)
(-0.0390719 0.0125724 -0.198641)
(-0.0704528 -0.0398801 -0.233881)
(-0.0288355 -0.000757707 -0.237496)
(-0.0414732 0.0162236 -0.255059)
(-0.0299791 -0.0228771 -0.250228)
(-0.0470835 0.0101235 -0.233675)
(-0.00762312 -0.0266495 -0.195821)
(0.00458201 0.00821534 -0.0436085)
(-0.0394795 0.0390261 -0.0935205)
(0.0191284 0.0138532 0.0743693)
(0.0532288 -0.00854365 0.0212644)
(0.0786753 0.0155911 0.105228)
(-0.0237823 0.00606482 0.0683699)
(0.00293518 0.00687293 -0.00541784)
(0.0436085 0.00253731 0.114358)
(0.041453 0.0109648 0.0941136)
(0.0198446 -0.00149523 0.0153199)
(-0.030194 -0.00518495 0.0550204)
(0.0287853 -0.0123738 0.114813)
(0.0118314 -0.0197504 0.0435072)
(0.0152518 0.00875613 -0.0621261)
(0.00613307 -0.0034647 -0.0388194)
(-0.0329849 0.0685848 -0.0503859)
(-0.0606512 0.0387735 -0.055994)
(0.0354207 0.0454265 0.0703061)
(-0.0282511 0.0989391 0.069584)
(0.161595 0.00820163 0.338977)
(-0.0469601 0.0666118 -0.042963)
(-0.050995 0.0807629 0.0357699)
(-0.066433 0.0759812 0.0801161)
(0.0695308 0.0588278 0.349843)
(-0.0110105 -0.0120397 -0.0130424)
(-0.0952436 -0.0520097 0.181037)
(-0.0448873 -0.0728615 0.101459)
(-0.0169982 -0.0124634 0.0505097)
(-0.0203623 -0.0266492 0.0063264)
(-0.0673286 -0.0751797 0.246242)
(-0.027704 -0.0821995 0.145791)
(-0.0158849 -0.0402478 0.0559974)
(-0.00298787 -0.0291064 0.0795387)
(-0.0501084 0.110597 -0.020118)
(-0.0606694 0.0454013 -0.268433)
(-0.0858016 0.084682 -0.00840762)
(-0.112606 0.0444131 0.022743)
(-0.0574558 -0.0109178 -0.282674)
(-0.127339 0.0568685 -0.0393581)
(-0.0184851 -0.220856 0.106145)
(-0.0183268 -0.119696 0.0420592)
(-0.0136141 -0.0972138 0.135325)
(-0.00382989 -0.181816 0.150907)
(-0.0101366 -0.0651031 0.0519976)
(-0.108926 0.0732825 -0.155594)
(-0.0324783 -0.0216808 -0.383822)
(-0.054894 -0.0355093 -0.369167)
(-0.124429 0.0173356 -0.238512)
(-0.0226456 -0.0498854 -0.351603)
(0.0115991 -0.117973 0.0453731)
(0.0164965 -0.127883 0.102002)
(-0.0162657 -0.102367 0.0999388)
(0.000218079 -0.0459527 0.0259416)
(-0.00199736 -0.0536019 0.105628)
(0.00682005 -0.0178944 -0.448435)