/*--------------------------------*- C++ -*----------------------------------*\
| =========                 |                                                 |
| \\      /  F ield         | OpenFOAM: The Open Source CFD Toolbox           |
|  \\    /   O peration     | Version:  5.x                                   |
|   \\  /    A nd           | Web:      www.OpenFOAM.org                      |
|    \\/     M anipulation  |                                                 |
\*---------------------------------------------------------------------------*/
FoamFile
{
    version     2.0;
    format      ascii;
    class       volScalarField;
    location    "9.25";
    object      p;
}
// * * * * * * * * * * * * * * * * * * * * * * * * * * * * * * * * * * * * * //

dimensions      [0 2 -2 0 0 0 0];

internalField   nonuniform List<scalar> 
10571
(
142.647
205.247
199.841
183.913
184.107
218.722
213.443
207.871
203.523
184.085
205.488
212.062
210.434
210.775
208.891
190.677
200.615
206.101
209.173
207.695
185.318
196.584
201.922
192.64
15.4765
80.4166
68.7421
33.5595
57.779
90.3453
27.7324
20.381
11.6014
52.7066
96.8876
99.7283
15.3162
9.19194
9.72705
48.8908
98.5386
15.8691
14.2765
63.7765
56.1878
80.0115
72.9237
67.9686
10.5908
2.5783
2.81036
4.18019
2.28408
2.45033
1.92854
1.71948
1.59043
1.96637
2.76391
2.76018
1.17146
1.2956
1.55332
1.69201
2.69309
1.49864
1.66746
2.10142
1.92778
2.47228
2.40454
2.01898
2.0614
2.53319
2.57198
2.56829
2.33006
2.53043
2.57517
2.69536
2.62476
2.39828
2.53177
2.62033
2.72868
2.73862
2.62577
2.35633
2.53188
2.5203
2.5494
2.35328
2.34304
2.4872
2.47312
2.40852
2.36087
2.43059
2.43861
2.34278
2.34691
2.4104
2.473
2.45653
2.45117
2.42422
2.49032
2.39489
2.41224
2.36711
2.39479
2.39694
2.47145
2.49841
2.44001
2.4207
2.43161
2.46539
2.44881
2.43611
2.35029
2.40216
2.33758
2.37565
2.35923
2.42614
2.44542
2.43124
2.45702
2.44103
2.44644
2.43565
2.41981
2.45119
2.41706
2.43806
2.42926
2.43573
2.4448
2.47754
2.45357
2.44747
2.43034
2.44914
2.4424
2.44215
2.38216
2.40018
2.34515
2.38837
2.37886
2.44834
2.44554
2.42282
2.47254
2.44416
2.44482
2.45085
2.46611
2.4578
2.43
2.45015
2.4364
2.4562
2.4491
2.46482
2.46093
2.45726
2.43898
2.4615
2.4433
2.4405
2.44033
2.41151
2.41663
2.39569
2.40739
2.39855
2.44919
2.43471
2.41006
2.47027
2.43357
2.44678
2.45383
2.46076
2.44249
2.41644
2.44941
2.44048
2.46561
2.45087
2.45379
2.45164
2.44896
2.43794
2.46156
2.43827
2.44518
2.44832
2.44942
2.42762
2.43067
2.41089
2.4391
2.43706
2.42115
2.41761
2.45861
2.43772
2.47293
2.45144
2.44977
2.44104
2.40154
2.4545
2.43599
2.48987
2.44951
2.44602
2.44365
2.43395
2.40966
2.44319
2.45055
2.46918
2.47323
2.42419
2.45875
2.45803
2.46806
2.42172
2.41917
2.42218
2.44633
2.40405
2.44616
2.4421
2.44768
2.41718
2.45235
2.42977
2.44605
2.4427
2.43785
2.42578
2.41876
2.45149
2.44287
2.44878
2.4506
2.42141
2.46898
2.47655
2.46936
2.41279
2.42629
2.4418
2.43595
2.43035
2.4395
2.43284
2.44656
2.43598
2.4463
2.42943
2.44221
2.43688
2.44055
2.43374
2.43761
2.44853
2.4253
2.43784
2.43212
2.42712
2.45663
2.4613
2.46486
2.41516
2.41806
2.44156
2.43273
2.44328
2.43283
2.42275
2.43813
2.43969
2.44269
2.44086
2.43845
2.43901
2.44203
2.44222
2.44341
2.43439
2.41501
2.43524
2.48301
2.43079
2.44553
2.45724
2.45436
2.41919
2.40399
2.4249
2.42687
2.44883
2.43053
2.419
2.4305
2.43573
2.43899
2.44344
2.43632
2.44406
2.438
2.44445
2.44267
2.43004
2.41213
2.43556
2.47702
2.43313
2.43524
2.44486
2.43718
2.42329
2.40005
2.4095
2.4159
2.43742
2.43529
2.42358
2.42473
2.42932
2.43205
2.43634
2.43566
2.44323
2.43395
2.43713
2.43713
2.43782
2.44347
2.43743
2.44212
2.43705
2.43007
2.42898
2.42274
2.43057
2.41034
2.40349
2.41104
2.42347
2.4431
2.43132
2.42
2.4265
2.4231
2.4256
2.43606
2.43746
2.4365
2.43003
2.43066
2.44167
2.44488
2.43641
2.43319
2.44256
2.43278
2.42461
2.41958
2.44025
2.42662
2.41331
2.41955
2.42016
2.4509
2.43888
2.42196
2.42953
2.42072
2.42008
2.43792
2.44057
2.44495
2.42732
2.42833
2.43907
2.44395
2.43773
2.43855
2.45032
2.44093
2.43177
2.4292
2.45146
2.44268
2.42967
2.43503
2.42903
2.45882
2.44875
2.44091
2.44013
2.43584
2.42988
2.44173
2.43881
2.45329
2.43219
2.43429
2.44347
2.4468
2.4429
2.44965
2.45628
2.45076
2.44459
2.44412
2.46121
2.45475
2.44535
2.44695
2.44077
2.46538
2.45744
2.46217
2.4588
2.45326
2.44583
2.44867
2.43831
2.45419
2.44157
2.44529
2.44897
2.45182
2.44997
2.46059
2.4601
2.45907
2.45712
2.4586
2.45853
2.46538
2.45516
2.45345
2.45026
2.46812
2.46223
2.46824
2.46951
2.46164
2.45738
2.45613
2.45004
2.45235
2.45052
2.45457
2.45347
2.45578
2.45616
2.46915
2.46244
2.4645
2.46724
2.46867
2.46095
2.47108
2.46323
2.46015
2.45695
2.4676
2.4651
2.4713
2.46759
2.46348
2.46236
2.46773
2.45902
2.45321
2.45692
2.46071
2.45699
2.45891
2.46
2.47384
2.46291
2.46784
2.47127
2.47256
2.47229
2.47714
2.47258
2.46301
2.4625
2.46682
2.46799
2.47519
2.46943
2.46686
2.46521
2.47003
2.46464
2.45667
2.46276
2.46593
2.46051
2.4615
2.46343
2.47404
2.46261
2.46968
2.47294
2.47161
2.46519
2.47939
2.47947
2.46277
2.46747
2.4626
2.46541
2.47563
2.4737
2.47019
2.4679
2.46801
2.46646
2.46234
2.46778
2.47075
2.46319
2.46429
2.46725
2.47309
2.46273
2.47041
2.47251
2.46788
2.44764
2.47549
2.47803
2.46437
2.47195
2.45766
2.45404
2.4742
2.47401
2.47262
2.47092
2.45989
2.46399
2.46514
2.47108
2.47508
2.4653
2.46665
2.47082
2.47165
2.46517
2.47039
2.46935
2.46689
2.43951
2.4726
2.47374
2.47026
2.47736
2.45638
2.44448
2.47117
2.46845
2.47537
2.47574
2.4576
2.46136
2.4643
2.47346
2.47903
2.4688
2.46889
2.47358
2.47019
2.46997
2.46871
2.46718
2.47149
2.46144
2.4685
2.46896
2.47473
2.48042
2.46993
2.45384
2.46709
2.46604
2.47775
2.48219
2.46844
2.46182
2.46524
2.47593
2.48231
2.47277
2.47052
2.47562
2.46898
2.47288
2.46605
2.46587
2.47703
2.48055
2.46015
2.46298
2.47581
2.47968
2.50343
2.48968
2.46208
2.46636
2.48137
2.48798
2.48428
2.46449
2.47077
2.47651
2.48324
2.47637
2.47423
2.47808
2.47004
2.47602
2.46687
2.4638
2.47578
2.4812
2.46211
2.46339
2.47572
2.47754
2.49653
2.49021
2.45949
2.46754
2.48019
2.48391
2.48557
2.46921
2.4761
2.47628
2.48135
2.47858
2.47824
2.48033
2.47499
2.48167
2.4757
2.46786
2.47466
2.48082
2.47215
2.46988
2.47669
2.4767
2.48802
2.4827
2.4648
2.47303
2.47835
2.48013
2.48487
2.47305
2.47873
2.48305
2.48979
2.47913
2.4815
2.485
2.48277
2.4869
2.48087
2.47487
2.47766
2.48247
2.48073
2.47771
2.48261
2.48065
2.48424
2.47901
2.47269
2.47617
2.48202
2.48015
2.48677
2.47825
2.48001
2.48642
2.48837
2.48284
2.48365
2.48681
2.49115
2.48846
2.48304
2.48307
2.48493
2.48368
2.48368
2.49149
2.4895
2.48707
2.48245
2.47503
2.48056
2.47985
2.48752
2.48399
2.48997
2.48431
2.48162
2.48797
2.48885
2.48795
2.48611
2.48833
2.49118
2.48958
2.48571
2.48531
2.48946
2.48383
2.48617
2.50036
2.4926
2.49167
2.48026
2.46928
2.48552
2.49147
2.49252
2.48837
2.49085
2.48649
2.48514
2.48879
2.49124
2.49423
2.49047
2.48998
2.48396
2.4911
2.4895
2.48843
2.48891
2.4834
2.48848
2.49816
2.49168
2.49262
2.48015
2.47129
2.48938
2.49888
2.49176
2.48968
2.48691
2.48672
2.48784
2.48922
2.49146
2.49726
2.49504
2.49164
2.48677
2.49204
2.48954
2.48988
2.4882
2.48384
2.48859
2.49333
2.48985
2.4915
2.4838
2.4763
2.49123
2.49333
2.4875
2.48843
2.48392
2.48719
2.48543
2.48668
2.48691
2.49658
2.49487
2.49016
2.48869
2.49224
2.48822
2.48851
2.48959
2.48524
2.4895
2.49061
2.48816
2.48965
2.48879
2.48338
2.49128
2.4896
2.48314
2.48685
2.48814
2.48488
2.48275
2.47952
2.47993
2.49407
2.49257
2.48741
2.48913
2.49286
2.48985
2.48818
2.49191
2.48543
2.49043
2.49036
2.48718
2.48871
2.48895
2.48282
2.48864
2.48829
2.48024
2.48671
2.50031
2.48792
2.48488
2.47559
2.47992
2.49199
2.49162
2.48725
2.4949
2.49392
2.4927
2.49252
2.49222
2.48515
2.48984
2.49006
2.48743
2.48882
2.48591
2.47792
2.48637
2.48754
2.48006
2.48803
2.4921
2.48996
2.48689
2.47802
2.48731
2.49024
2.49064
2.48856
2.49659
2.49522
2.49466
2.49278
2.49132
2.48522
2.48779
2.48999
2.48842
2.48946
2.48498
2.47501
2.4852
2.48699
2.4822
2.48924
2.48871
2.49095
2.48728
2.48258
2.49403
2.48753
2.48908
2.48923
2.49606
2.49577
2.49551
2.49408
2.49186
2.48567
2.48634
2.4904
2.48981
2.49071
2.48536
2.47453
2.48493
2.48517
2.48571
2.49042
2.49099
2.48849
2.488
2.48701
2.49835
2.48609
2.48854
2.49002
2.49662
2.49548
2.49533
2.49559
2.49457
2.48635
2.48602
2.49087
2.4909
2.49177
2.48765
2.47761
2.486
2.48573
2.49063
2.49192
2.49342
2.48817
2.48909
2.49353
2.50041
2.48928
2.48973
2.4938
2.49728
2.49498
2.49555
2.49841
2.49811
2.48834
2.4883
2.49077
2.49445
2.4932
2.49091
2.48239
2.48606
2.4882
2.4956
2.49386
2.49441
2.48937
2.49436
2.50019
2.50049
2.49137
2.49284
2.50069
2.49675
2.49487
2.49401
2.49761
2.49862
2.49146
2.4911
2.49642
2.49629
2.4954
2.49449
2.48803
2.48707
2.4898
2.49669
2.49577
2.49499
2.48811
2.49668
2.50094
2.49994
2.48757
2.49408
2.49939
2.49587
2.4933
2.49392
2.49619
2.49754
2.49279
2.49246
2.49965
2.49693
2.49691
2.49668
2.49262
2.48935
2.49205
2.49525
2.49651
2.49589
2.4876
2.49331
2.49779
2.49854
2.48785
2.49209
2.49368
2.49445
2.49164
2.49253
2.49491
2.49596
2.49331
2.49193
2.50028
2.49643
2.49681
2.49646
2.49481
2.49068
2.49218
2.49466
2.49593
2.49667
2.48995
2.49159
2.49647
2.49748
2.4918
2.49229
2.48964
2.49291
2.49012
2.49049
2.49321
2.49419
2.49248
2.49136
2.49981
2.49475
2.49481
2.49483
2.49452
2.49118
2.49207
2.49486
2.49423
2.49698
2.49466
2.49709
2.49629
2.49646
2.49775
2.49888
2.49561
2.49137
2.48923
2.48843
2.49118
2.49225
2.49117
2.49041
2.49635
2.4919
2.49025
2.49307
2.49297
2.49028
2.49283
2.49397
2.49154
2.49608
2.49354
2.49566
2.49551
2.49482
2.49817
2.49837
2.49686
2.48987
2.48808
2.48648
2.48903
2.49038
2.48904
2.4873
2.49149
2.48845
2.48669
2.49072
2.49038
2.48864
2.49328
2.49196
2.48903
2.49359
2.49129
2.49158
2.49373
2.49275
2.49574
2.49437
2.49517
2.4886
2.48686
2.48488
2.48708
2.48887
2.48618
2.4827
2.48805
2.48554
2.48567
2.48796
2.48679
2.48642
2.49321
2.48935
2.48725
2.49042
2.48872
2.48994
2.49148
2.49069
2.4934
2.4914
2.49292
2.48777
2.48592
2.48379
2.48571
2.48788
2.48412
2.47969
2.48604
2.48507
2.48663
2.48595
2.48396
2.48386
2.49242
2.48572
2.48616
2.48691
2.48671
2.48851
2.48892
2.48858
2.49134
2.4896
2.49078
2.4874
2.48568
2.4834
2.48507
2.48732
2.48407
2.47947
2.48499
2.48465
2.48685
2.48561
2.48269
2.48372
2.49068
2.48267
2.48564
2.48448
2.48569
2.48714
2.48658
2.48662
2.48997
2.48854
2.48891
2.48745
2.48628
2.48372
2.48507
2.48712
2.4849
2.48017
2.48456
2.48384
2.48509
2.48683
2.48379
2.48471
2.4887
2.48194
2.48386
2.48433
2.48487
2.48643
2.48497
2.48504
2.48934
2.48797
2.48751
2.48805
2.48756
2.48469
2.48564
2.48744
2.48618
2.48128
2.48467
2.48344
2.4837
2.48888
2.48596
2.48553
2.48705
2.48143
2.48234
2.48682
2.48572
2.48701
2.48447
2.48411
2.48952
2.48821
2.48699
2.48936
2.4894
2.48619
2.48679
2.48831
2.48789
2.4833
2.48553
2.48361
2.48369
2.49141
2.4886
2.48556
2.48648
2.48073
2.48235
2.49121
2.48804
2.48836
2.48464
2.48429
2.49075
2.48934
2.48747
2.49133
2.492
2.48828
2.48864
2.48984
2.4903
2.48571
2.48701
2.48398
2.48451
2.49446
2.49164
2.48651
2.48702
2.48202
2.48337
2.49533
2.49123
2.49041
2.48566
2.48551
2.49362
2.49156
2.48902
2.49383
2.49546
2.49108
2.49094
2.49182
2.49326
2.48861
2.48832
2.48557
2.48599
2.49822
2.49523
2.4904
2.48762
2.48484
2.48437
2.49931
2.49636
2.49251
2.48783
2.48769
2.4987
2.49479
2.4918
2.49664
2.49956
2.49453
2.4937
2.49398
2.49694
2.49204
2.4901
2.48822
2.48847
2.50225
2.49946
2.49559
2.48823
2.48749
2.48652
2.50425
2.50039
2.49443
2.49094
2.4901
2.50418
2.49968
2.49565
2.49947
2.50374
2.49837
2.49663
2.49602
2.50134
2.49599
2.49296
2.49084
2.49074
2.50667
2.50381
2.50086
2.49198
2.48869
2.48858
2.50877
2.50612
2.49836
2.49329
2.49189
2.51524
2.50614
2.50057
2.5021
2.50801
2.50265
2.49947
2.49743
2.50604
2.5004
2.49599
2.49241
2.49165
2.51052
2.50782
2.50433
2.49673
2.48887
2.48874
2.51293
2.50933
2.50355
2.49452
2.4925
2.51863
2.51512
2.5053
2.50442
2.51233
2.50723
2.50188
2.49757
2.51091
2.50453
2.49803
2.49022
2.4874
2.51192
2.51157
2.50678
2.4972
2.48434
2.48426
2.51543
2.51216
2.5033
2.49325
2.48901
2.51835
2.51413
2.50398
2.50689
2.51666
2.51168
2.50392
2.49628
2.51531
2.50863
2.49748
2.48225
2.47662
2.51457
2.51403
2.50846
2.49387
2.47211
2.46916
2.51712
2.51773
2.50316
2.48998
2.47981
2.51895
2.51186
2.50172
2.51029
2.5226
2.51706
2.50596
2.49385
2.52034
2.51315
2.49325
2.46742
2.45283
2.51889
2.51535
2.50779
2.48784
2.45282
2.43663
2.5194
2.52423
2.50418
2.48466
2.4632
2.521
2.51178
2.50042
2.5156
2.53072
2.52394
2.50893
2.4911
2.52854
2.51762
2.48767
2.44046
2.40179
2.52652
2.52028
2.50767
2.47949
2.42131
2.35741
2.52328
2.52515
2.50763
2.47683
2.43131
2.52495
2.51336
2.50084
2.52326
2.54116
2.53134
2.51381
2.48991
2.53903
2.52238
2.48065
2.40271
2.26877
2.53751
2.53037
2.51156
2.46578
2.37628
2.16963
2.52983
2.52302
2.5098
2.46401
2.36919
2.53027
2.51754
2.50217
2.53341
2.55236
2.54061
2.52208
2.49239
2.55175
2.52909
2.47145
2.36631
1.89974
2.54975
2.54297
2.52203
2.45532
2.33761
1.86074
-2.0115
2.53887
2.52221
2.50682
2.44728
2.22609
2.5368
2.52186
2.50555
2.54709
2.56064
2.54923
2.53263
2.50372
2.56492
2.53942
2.48947
2.36372
1.6794
0.0917534
2.5597
2.55696
2.53499
2.47461
2.32643
1.89545
0.0395136
2.54888
2.52558
2.50733
2.43079
2.03455
2.54416
2.52734
2.51426
2.55146
2.5662
2.55482
2.53583
2.50377
2.5713
2.55114
2.51629
2.41044
1.85725
0.47988
2.56861
2.56577
2.55042
2.5036
2.38323
1.90369
0.43002
2.55796
2.54153
2.51687
2.4549
2.17396
0.645042
2.55235
2.5375
2.53346
2.55717
2.5721
2.55771
2.54115
2.51996
2.57952
2.56515
2.54092
2.48986
2.04271
0.522111
2.57691
2.5739
2.5637
2.53237
2.46632
2.06081
0.413054
2.56564
2.55494
2.54188
2.48771
2.28333
2.56229
2.55455
2.55471
2.57006
2.57364
2.56437
2.55747
2.55321
2.57582
2.57217
2.56921
2.53734
2.25622
2.57698
2.5755
2.56849
2.55843
2.52281
2.20625
-0.783464
2.56912
2.55889
2.55588
2.53286
2.51618
2.56627
2.56373
2.57188
2.57502
2.56889
2.56634
2.56609
2.55757
2.56958
2.57204
2.57218
2.54974
2.51954
2.57207
2.56922
2.56321
2.56208
2.54236
2.47244
2.5647
2.55933
2.5582
2.54627
2.5653
2.56554
2.56507
2.57413
2.56783
2.5609
2.55929
2.55872
2.55256
2.56522
2.56527
2.56298
2.55625
2.57248
2.56793
2.56581
2.56162
2.5581
2.54239
2.54006
2.56401
2.55913
2.56029
2.55457
2.57371
2.56753
2.56464
2.5697
2.56085
2.54857
2.5478
2.54721
2.55359
2.56115
2.56452
2.56491
2.56073
2.57911
2.56613
2.56393
2.56238
2.56304
2.55466
2.5611
2.56349
2.56061
2.56505
2.56406
2.5753
2.56453
2.5647
2.56974
2.56328
2.56126
2.55507
2.55129
2.55905
2.56298
2.55977
2.56403
2.56645
2.57797
2.56544
2.56322
2.5613
2.56514
2.55904
2.56731
2.56323
2.56156
2.56763
2.56611
2.57276
2.56428
2.56927
2.57129
2.57272
2.56839
2.56807
2.56052
2.56468
2.56371
2.55369
2.55653
2.5673
2.57847
2.56548
2.56386
2.56021
2.5665
2.5655
2.5724
2.56316
2.56328
2.56855
2.56709
2.57208
2.5647
2.56947
2.57176
2.56994
2.57131
2.56949
2.56088
2.55936
2.56697
2.55546
2.55278
2.571
2.57923
2.5672
2.56574
2.56215
2.56889
2.56626
2.57447
2.56316
2.56433
2.56968
2.5683
2.57053
2.56539
2.5697
2.57302
2.5671
2.57583
2.57224
2.55778
2.53958
2.5717
2.56477
2.55374
2.55805
2.58287
2.57013
2.5686
2.56528
2.56512
2.56866
2.57525
2.56512
2.56575
2.56975
2.56915
2.56869
2.56666
2.57103
2.57451
2.57218
2.5782
2.57547
2.56308
2.55018
2.57395
2.56774
2.55992
2.57141
2.59834
2.57207
2.57002
2.56716
2.56835
2.57341
2.58505
2.56739
2.56727
2.57095
2.57228
2.57561
2.56801
2.57204
2.57578
242.276
214.955
237.713
227.642
210.412
223.109
223.651
224.887
261.458
254.345
259.381
269.773
264.098
252.144
243.83
255.917
248.95
238.452
238.138
246.082
246.756
239.764
234.531
249.784
248.563
239.305
263.433
246.405
255.785
263.85
257.003
251.996
246.228
245.206
240.751
236.093
235.59
242.777
246.007
238.104
243.037
250.579
254.389
249.336
256.911
250.088
253.93
240.183
241.035
245.076
239.833
242.852
237.047
236.652
230.285
231.459
233.997
228.214
233.648
238.924
244.462
240.17
247.059
252.104
259.887
255.172
258.506
253.543
240.907
251.882
231.605
231.126
226.979
226.438
228.964
226.718
232.684
231.353
236.693
240.04
248.738
245.05
250.564
254.837
251.543
250.594
241.359
243.332
228.599
233.136
238.373
234.332
244.999
245.87
238.409
241.759
191.55
125.657
146.711
177.734
165.55
56.6382
104.904
76.5582
158.336
159.633
49.2996
67.7153
78.1049
170.739
102.014
211.5
149.731
202.095
210.307
214.327
143.679
139.246
149.729
150.983
184.789
195.993
190.986
115.206
118.44
123.254
122.067
184.628
117.05
214.576
207.643
213.63
156.672
166.582
164.217
189.989
174.918
112.379
114.895
103.873
210.039
205.118
167.814
167.671
167.463
173.924
183.909
116.227
105.551
114.257
200.475
164.407
203.541
196.267
198.118
165.995
172.975
159.983
162.065
196.641
198.001
191.306
137.288
129.041
134.733
129.29
119.99
194.579
154.669
200.694
194.034
151.947
148.901
145.468
197.574
194.873
143.533
137.362
141.816
134.694
66.9998
24.8924
14.8735
48.3237
18.7474
12.8831
17.2789
12.584
20.6919
39.5656
13.2411
13.4598
18.1225
51.1506
17.1712
83.6073
17.2289
78.8664
84.4049
85.5838
22.8416
29.1241
20.8124
25.8334
59.3701
55.6741
60.8467
15.7692
11.3938
12.419
11.2758
58.073
10.0576
89.5487
94.9137
93.5783
22.5588
25.6759
25.2661
50.702
45.9095
8.21083
5.97607
8.53974
97.5421
101.363
27.8507
28.3218
37.0671
45.5385
51.4435
5.26133
8.5162
4.47466
99.6722
31.5459
96.509
92.0632
87.2401
30.4927
21.6721
17.2502
12.403
61.2155
66.2644
60.4141
6.82466
4.81507
6.28314
3.91219
4.73546
84.9515
11.6778
76.9532
77.5906
16.1336
16.6525
15.1402
69.7434
74.6123
13.1123
9.80013
12.355
5.79963
2.72255
2.13562
10.3805
3.23166
8.94147
4.66985
1.97882
1.94231
8.40796
2.70381
4.54937
1.73386
1.84454
2.33043
2.17066
2.31866
2.21517
2.7583
2.4616
2.61532
2.18131
2.13222
2.19528
2.13349
2.32502
1.96876
2.27778
2.20798
2.26803
2.11633
2.27627
2.28563
2.36872
2.4287
2.51549
2.49348
2.18214
2.15589
2.12728
1.77686
1.76933
2.38628
2.42179
2.38587
2.57662
2.76484
2.14297
2.06036
2.05371
1.68167
1.63019
2.43404
2.39761
2.48037
2.63045
2.12761
2.5384
2.52446
2.30557
2.1074
2.18118
2.22989
2.30122
1.92616
2.00132
1.85713
2.34081
2.42028
2.38198
2.40688
2.50778
2.35104
2.33464
2.49066
2.29022
2.2406
2.22874
2.22799
2.19582
2.24919
2.27415
2.32919
2.26325
2.42454
2.53851
2.31143
1.95451
2.57469
2.24201
2.3334
2.31754
2.42856
2.26136
2.43798
2.25983
2.33213
2.1861
2.35478
2.23826
2.51398
2.34987
2.5499
2.52596
2.544
2.33705
2.32865
2.34694
2.33305
2.39031
2.21228
2.32488
2.24881
2.33704
2.17437
2.32911
2.3718
2.35632
2.51399
2.51296
2.52393
2.37253
2.3437
2.39332
2.35965
2.42151
2.41247
2.37587
2.40523
2.53728
2.59112
2.26943
2.38714
2.38912
2.38653
2.30162
2.38784
2.40626
2.40519
2.55623
2.36771
2.52319
2.53831
2.5086
2.36652
2.36615
2.37313
2.36884
2.36906
2.39895
2.40486
2.40251
2.44286
2.42905
2.47761
2.45946
2.51509
2.3807
2.49582
2.5014
2.37979
2.36801
2.41935
2.42982
2.4866
2.40552
2.42509
2.42544
2.43804
2.44194
2.34031
2.45097
2.43221
2.42348
2.37401
2.32129
2.33856
2.31643
2.33596
2.35314
2.32313
2.31541
2.35436
2.31748
2.42567
2.41178
2.43869
2.42227
2.43016
2.37907
2.36498
2.39608
2.38789
2.38719
2.33188
2.41152
2.31991
2.34081
2.39732
2.38609
2.39359
2.39765
2.42092
2.46539
2.43204
2.4282
2.43689
2.43686
2.39465
2.40948
2.42569
2.3974
2.3394
2.4249
2.43134
2.42983
2.42914
2.43113
2.40503
2.40763
2.40268
2.28687
2.40792
2.44869
2.41973
2.46218
2.47617
2.47219
2.41709
2.41372
2.42165
2.41724
2.43346
2.42727
2.4456
2.44585
2.43709
2.43051
2.43488
2.43003
2.46553
2.4216
2.44587
2.49021
2.44249
2.43023
2.46966
2.4404
2.45508
2.44482
2.44416
2.45134
2.43833
2.35275
2.3294
2.33204
2.28409
2.30137
2.33635
2.27959
2.31468
2.3412
2.33976
2.36083
2.3632
2.36859
2.35216
2.36713
2.42428
2.42338
2.38221
2.41477
2.39954
2.38409
2.35807
2.40928
2.38572
2.38646
2.41209
2.42451
2.36761
2.38247
2.38321
2.39919
2.42311
2.40412
2.43593
2.44128
2.44092
2.44345
2.45032
2.44908
2.45348
2.42774
2.4689
2.43433
2.44969
2.43825
2.43539
2.4567
2.43962
2.45515
2.44467
2.45508
2.44674
2.4536
2.43376
2.43531
2.44561
2.43966
2.43681
2.46787
2.41677
2.39856
2.4292
2.42991
2.42493
2.44625
2.45415
2.45075
2.45783
2.44814
2.45335
2.45309
2.45828
2.44048
2.43739
2.44351
2.45312
2.45732
2.44032
2.43679
2.44094
2.43727
2.44118
2.43688
2.44137
2.45432
2.44403
2.43903
2.44432
2.42678
2.45392
2.43611
2.4336
2.45938
2.44293
2.43588
2.45593
2.44177
2.44736
2.44009
2.43622
2.4438
2.44204
2.34845
2.37186
2.3558
2.30964
2.34321
2.38423
2.35179
2.38079
2.38728
2.38861
2.39964
2.40289
2.40307
2.37958
2.38955
2.43007
2.43352
2.37383
2.41971
2.38536
2.40466
2.38443
2.42081
2.38752
2.41394
2.33694
2.42321
2.3878
2.4201
2.30171
2.41837
2.40899
2.44408
2.40034
2.44097
2.44534
2.45789
2.44445
2.45954
2.44768
2.45719
2.45735
2.44749
2.46049
2.45927
2.45448
2.44861
2.4467
2.43699
2.44552
2.44923
2.44717
2.45537
2.4511
2.45633
2.43836
2.45725
2.45344
2.45961
2.44543
2.44013
2.45318
2.44933
2.44504
2.44061
2.4391
2.45699
2.43968
2.45191
2.4354
2.46427
2.45859
2.45415
2.45829
2.46089
2.46383
2.45212
2.46109
2.4447
2.44675
2.44109
2.45078
2.44803
2.45011
2.44261
2.44819
2.44271
2.44641
2.43694
2.4451
2.45655
2.45004
2.43826
2.44572
2.46159
2.43851
2.47606
2.4628
2.46084
2.46613
2.44533
2.44064
2.43626
2.44929
2.4392
2.43443
2.44377
2.43484
2.44176
2.44357
2.43427
2.44258
2.44154
2.39555
2.41349
2.40962
2.38835
2.41359
2.42409
2.41707
2.43147
2.41635
2.41422
2.42318
2.42817
2.41887
2.39968
2.41565
2.43848
2.44059
2.39911
2.42521
2.3932
2.42334
2.41048
2.42795
2.40014
2.42825
2.28868
2.41973
2.41927
2.4364
2.30007
2.42631
2.40983
2.44215
2.41657
2.44181
2.44887
2.4618
2.4575
2.46693
2.44729
2.45971
2.4557
2.44521
2.45648
2.45163
2.45026
2.44468
2.44997
2.43008
2.44869
2.43847
2.45383
2.46254
2.45955
2.46465
2.45891
2.46769
2.47033
2.47168
2.45062
2.44918
2.45289
2.4503
2.45058
2.46035
2.442
2.4697
2.43821
2.46325
2.44278
2.46465
2.46898
2.45527
2.4656
2.47468
2.47744
2.46103
2.47
2.44966
2.45052
2.4427
2.44909
2.44314
2.4505
2.44332
2.44837
2.44324
2.45313
2.44365
2.44667
2.44488
2.45409
2.45156
2.44679
2.47227
2.41858
2.46387
2.46854
2.46379
2.47226
2.44091
2.44113
2.43491
2.43867
2.4402
2.43808
2.43688
2.43679
2.44291
2.44678
2.4588
2.44609
2.46357
2.42548
2.43619
2.43622
2.4364
2.44057
2.45092
2.45216
2.44721
2.44486
2.43752
2.46946
2.46039
2.4615
2.43473
2.45491
2.43914
2.43165
2.41924
2.42785
2.40854
2.42793
2.42697
2.42393
2.42013
2.44245
2.33728
2.42516
2.45617
2.45235
2.40821
2.44585
2.43135
2.44518
2.4409
2.4521
2.4479
2.43488
2.44657
2.44326
2.46815
2.44059
2.47089
2.41861
2.45491
2.43585
2.46461
2.47435
2.48532
2.47665
2.48748
2.47683
2.50179
2.48329
2.45007
2.45011
2.44899
2.44849
2.4485
2.47659
2.43949
2.47812
2.42804
2.46709
2.41833
2.4399
2.48264
2.46731
2.47551
2.50835
2.48819
2.48445
2.47968
2.44935
2.44719
2.4439
2.44784
2.44457
2.44782
2.44421
2.44697
2.44541
2.44559
2.45094
2.4419
2.42649
2.43868
2.44854
2.44315
2.41299
2.44334
2.44474
2.43848
2.43591
2.4474
2.43658
2.4373
2.47087
2.45164
2.44994
2.46463
2.45475
2.46103
2.44584
2.45199
2.45932
2.46948
2.45303
2.46065
2.48275
2.45589
2.46666
2.47738
2.46617
2.46419
2.4823
2.46967
2.47438
2.42341
2.41958
2.43291
2.41804
2.43007
2.42145
2.43646
2.41355
2.43357
2.4615
2.47202
2.46245
2.47107
2.46585
2.50568
2.47338
2.45216
2.45928
2.42806
2.44087
2.43849
2.422
2.43748
2.43497
2.43956
2.49
2.41896
2.42949
2.33838
2.44629
2.44462
2.44315
2.44296
2.43959
2.49949
2.39526
2.41835
2.32483
2.41105
2.445
2.44283
2.44477
2.44598
2.44526
2.44431
2.44466
2.44417
2.44364
2.43802
2.44585
2.44461
2.42854
2.44028
2.44426
2.44499
2.43029
2.44464
2.44261
2.43088
2.43783
2.4526
2.4199
2.42988
2.45317
2.44903
2.43246
2.44031
2.43698
2.44151
2.45333
2.4523
2.45817
2.48112
2.45583
2.45963
2.47204
2.46358
2.45115
2.47462
2.43578
2.4403
2.46353
2.47125
2.46521
2.41704
2.4182
2.43773
2.41368
2.42839
2.42403
2.43721
2.4154
2.42301
2.46741
2.50169
2.47575
2.467
2.46746
2.48567
2.47419
2.46242
2.46168
2.41905
2.43537
2.43249
2.4198
2.43329
2.4305
2.4353
2.42466
2.43759
2.44221
2.44114
2.43889
2.4355
2.43613
2.43405
2.43274
2.4211
2.42843
2.43782
2.43896
2.43618
2.44121
2.43972
2.44435
2.44216
2.44082
2.44007
2.44377
2.44032
2.43795
2.44324
2.44375
2.4457
2.43948
2.44572
2.4438
2.44655
2.44177
2.43927
2.43692
2.41126
2.41811
2.44234
2.41383
2.40909
2.43264
2.42337
2.41951
2.42855
2.41144
2.43592
2.45022
2.44831
2.46635
2.46391
2.4739
2.46581
2.46099
2.4748
2.43386
2.46281
2.43959
2.43922
2.4624
2.4615
2.45829
2.42054
2.42283
2.43629
2.41735
2.41907
2.4293
2.43632
2.41912
2.41653
2.46581
2.47167
2.46839
2.46126
2.46314
2.45986
2.45997
2.46014
2.45574
2.42224
2.43119
2.42862
2.42403
2.42926
2.4266
2.44496
2.4434
2.44807
2.4455
2.44427
2.42925
2.43084
2.43069
2.42619
2.42982
2.44106
2.43867
2.44303
2.4431
2.44063
2.43878
2.4383
2.44295
2.43944
2.43581
2.43719
2.4422
2.4388
2.43471
2.44649
2.44377
2.44647
2.4453
2.44623
2.44318
2.44557
2.44395
2.43514
2.43398
2.42078
2.40655
2.43087
2.42478
2.40944
2.42829
2.39872
2.40784
2.42981
2.39569
2.43503
2.4472
2.44562
2.49862
2.46062
2.47529
2.50907
2.45799
2.47883
2.45891
2.46129
2.49979
2.47058
2.45765
2.45449
2.44847
2.42496
2.42681
2.43623
2.42076
2.41568
2.43189
2.4358
2.42236
2.41562
2.45685
2.44732
2.45102
2.44622
2.44767
2.43319
2.43793
2.44973
2.44075
2.42523
2.42778
2.42486
2.4267
2.4277
2.42449
2.44355
2.44228
2.44551
2.44
2.43881
2.42527
2.43024
2.43223
2.4266
2.43196
2.44295
2.44046
2.44134
2.44056
2.43885
2.43926
2.44114
2.44177
2.43843
2.43391
2.43569
2.44124
2.43732
2.43273
2.44377
2.44157
2.44383
2.44188
2.4407
2.43925
2.44143
2.44025
2.43385
2.43513
2.42294
2.40516
2.43259
2.42553
2.42702
2.43222
2.41982
2.43171
2.43681
2.43928
2.4369
2.44297
2.44052
2.4805
2.45115
2.46677
2.45865
2.44399
2.45381
2.46059
2.45024
2.45528
2.44798
2.44126
2.44018
2.43282
2.42876
2.43167
2.43529
2.42424
2.41723
2.43489
2.43503
2.42694
2.42013
2.43736
2.41945
2.42459
2.42905
2.42804
2.40867
2.4139
2.43042
2.42147
2.42909
2.42937
2.42629
2.43256
2.4319
2.4294
2.43434
2.43396
2.43042
2.42894
2.42881
2.42976
2.43449
2.43899
2.43373
2.43746
2.43614
2.4352
2.43091
2.43099
2.43083
2.44361
2.44553
2.44055
2.43638
2.43232
2.43558
2.4388
2.43531
2.43156
2.43737
2.43651
2.43844
2.43343
2.4347
2.4332
2.43552
2.43388
2.43748
2.43814
2.45268
2.49762
2.4422
2.46958
2.51893
2.44125
2.4501
2.44602
2.44277
2.4578
2.43696
2.4393
2.43973
2.44621
2.43947
2.44449
2.44034
2.43747
2.43991
2.43821
2.43403
2.43527
2.4326
2.43004
2.42709
2.42377
2.43554
2.44025
2.43544
2.43092
2.42499
2.43939
2.43687
2.43629
2.43118
2.42206
2.40205
2.40822
2.4189
2.41902
2.39981
2.40668
2.41554
2.41297
2.43669
2.43551
2.43378
2.44128
2.43979
2.43875
2.42365
2.42425
2.41916
2.42106
2.4214
2.43807
2.44061
2.44711
2.4424
2.44382
2.42582
2.4269
2.42139
2.42217
2.42433
2.44614
2.44521
2.43597
2.43464
2.4313
2.43665
2.43199
2.43493
2.43111
2.43247
2.43037
2.43342
2.42861
2.43129
2.4294
2.43248
2.42853
2.43696
2.43482
2.46124
2.48157
2.4391
2.45171
2.45876
2.44255
2.45223
2.44378
2.44257
2.44777
2.43656
2.44199
2.44537
2.43871
2.43833
2.43912
2.4401
2.44101
2.44107
2.43105
2.42951
2.43465
2.43304
2.43205
2.42412
2.42726
2.44545
2.45037
2.43985
2.44249
2.43797
2.44637
2.44376
2.44906
2.44584
2.42032
2.40396
2.41041
2.42318
2.42375
2.41177
2.41619
2.41507
2.41931
2.44644
2.44457
2.4443
2.45178
2.4496
2.44977
2.42186
2.42223
2.42277
2.42421
2.42438
2.44647
2.44696
2.45481
2.45071
2.45127
2.42174
2.42326
2.42306
2.42452
2.42565
2.44456
2.44633
2.43027
2.43674
2.43234
2.43903
2.43033
2.43971
2.43478
2.43125
2.42995
2.43328
2.42909
2.43278
2.43224
2.43553
2.43031
2.43444
2.43632
2.44754
2.45093
2.43996
2.44587
2.44777
2.44362
2.44699
2.44483
2.44562
2.44726
2.43985
2.44958
2.45346
2.44352
2.44502
2.44464
2.44782
2.44961
2.449
2.43721
2.43689
2.44386
2.44279
2.44302
2.43248
2.43894
2.45462
2.45799
2.44815
2.45425
2.45408
2.4537
2.4525
2.45692
2.45995
2.42962
2.42212
2.42444
2.43628
2.4359
2.43102
2.43234
2.42585
2.43271
2.45738
2.45491
2.45512
2.46273
2.45995
2.45974
2.42914
2.42939
2.43467
2.4342
2.43468
2.45523
2.4566
2.46237
2.4592
2.4623
2.43142
2.43157
2.43732
2.43871
2.4377
2.45008
2.45481
2.43089
2.44373
2.43788
2.44542
2.43589
2.44822
2.44356
2.43568
2.43644
2.43937
2.4363
2.43952
2.44068
2.44347
2.43948
2.44005
2.44439
2.4475
2.44797
2.44638
2.44898
2.44865
2.44841
2.44883
2.44911
2.45079
2.45067
2.44614
2.45661
2.459
2.45238
2.45426
2.45351
2.45678
2.45843
2.45761
2.44897
2.44949
2.45532
2.45521
2.45592
2.44573
2.45217
2.46014
2.46602
2.45596
2.45837
2.46304
2.45827
2.45844
2.46071
2.4644
2.44299
2.43885
2.43946
2.45177
2.4497
2.44593
2.44532
2.43958
2.44581
2.4651
2.46423
2.46322
2.46385
2.46692
2.46527
2.44033
2.44107
2.44594
2.44577
2.44647
2.4626
2.46656
2.46739
2.46469
2.46874
2.44691
2.44597
2.45264
2.45323
2.45212
2.4593
2.46368
2.44171
2.45313
2.44913
2.45236
2.44966
2.45813
2.45519
2.4442
2.44624
2.44816
2.44659
2.44857
2.451
2.45234
2.45043
2.44879
2.45296
2.45157
2.45108
2.45096
2.45365
2.45327
2.45374
2.45261
2.45394
2.4561
2.45419
2.45335
2.46091
2.46269
2.46073
2.46196
2.46124
2.46407
2.46496
2.46422
2.46109
2.46139
2.46528
2.46623
2.4657
2.45808
2.4634
2.47009
2.47182
2.46024
2.46426
2.46514
2.46152
2.46141
2.46569
2.46563
2.45602
2.451
2.45146
2.46436
2.46161
2.45644
2.45983
2.45184
2.45839
2.46085
2.468
2.46611
2.45834
2.46824
2.4666
2.4504
2.45133
2.45386
2.45428
2.45502
2.46559
2.46909
2.46797
2.46586
2.46868
2.45792
2.45694
2.46062
2.46089
2.46043
2.46717
2.46795
2.45628
2.4654
2.45983
2.46222
2.46077
2.47072
2.46384
2.45211
2.45491
2.4559
2.45374
2.45495
2.45783
2.45862
2.45786
2.4561
2.45872
2.45592
2.45602
2.45505
2.45765
2.45802
2.45814
2.4558
2.45743
2.46
2.45704
2.4583
2.46418
2.4651
2.46683
2.46729
2.46673
2.46917
2.46907
2.4687
2.47051
2.46854
2.47207
2.47329
2.47017
2.46776
2.47099
2.47216
2.46932
2.46197
2.46558
2.46573
2.46283
2.4619
2.46483
2.4656
2.46641
2.4636
2.46822
2.47123
2.47013
2.46914
2.47488
2.46473
2.46902
2.46253
2.46775
2.46694
2.4679
2.46675
2.46646
2.45763
2.45834
2.45951
2.46038
2.46084
2.46615
2.46801
2.46746
2.46657
2.4685
2.46288
2.46237
2.46398
2.46441
2.46438
2.47018
2.47176
2.46397
2.47144
2.46533
2.46883
2.46671
2.46891
2.46531
2.45781
2.46012
2.4607
2.4598
2.46046
2.46193
2.46245
2.46334
2.46072
2.46215
2.45945
2.45979
2.45854
2.46058
2.46108
2.46156
2.45836
2.46036
2.46329
2.45962
2.46168
2.46582
2.46652
2.47101
2.47035