/*--------------------------------*- C++ -*----------------------------------*\
| =========                 |                                                 |
| \\      /  F ield         | OpenFOAM: The Open Source CFD Toolbox           |
|  \\    /   O peration     | Version:  5.x                                   |
|   \\  /    A nd           | Web:      www.OpenFOAM.org                      |
|    \\/     M anipulation  |                                                 |
\*---------------------------------------------------------------------------*/
FoamFile
{
    version     2.0;
    format      ascii;
    class       volScalarField;
    location    "0.6";
    object      voidfraction;
}
// * * * * * * * * * * * * * * * * * * * * * * * * * * * * * * * * * * * * * //

dimensions      [0 0 0 0 0 0 0];

internalField   nonuniform List<scalar> 
10571
(
0.996806
0.966386
0.94563
0.972881
0.970456
0.85922
0.955662
0.944584
0.947559
0.602996
0.997018
0.968634
0.929691
0.916058
0.900973
0.43069
0.974927
0.966324
0.868856
0.480568
0.416007
0.832206
0.457272
0.403346
0.986065
0.757962
0.871138
0.906038
0.852705
0.714841
0.617361
0.565359
0.468303
0.47768
0.999035
0.864323
0.558131
0.436778
0.410223
0.441134
0.825496
0.477945
0.409973
0.409277
0.448831
0.455997
0.421913
0.417519
0.68394
0.464259
0.519754
0.547934
0.450821
0.467715
0.436117
0.421256
0.437226
0.49115
0.835456
0.569974
0.426356
0.467
0.623695
0.436906
0.517496
0.447137
0.674486
0.581357
0.683711
0.433108
0.547192
0.738325
0.433331
0.421623
0.43387
0.450872
0.462342
0.436898
0.558069
0.814388
0.914659
0.782515
0.464248
0.438355
0.740886
0.944914
0.988509
0.957139
0.421573
0.901866
0.991887
0.989854
0.914406
0.892914
0.980551
0.975783
0.990656
0.441958
0.828428
0.994052
0.993618
0.642138
0.99296
0.998178
0.995438
0.986564
0.888398
0.978278
0.99811
0.998622
0.992421
0.960661
0.998256
0.996124
0.993916
0.985686
0.936811
0.997793
0.989553
0.981147
0.996592
0.998376
0.991565
0.995801
0.988674
0.99902
0.996195
0.998321
0.996201
0.986984
0.693302
1
0.999019
0.997456
0.998997
0.993915
0.98366
0.524087
0.998587
0.995702
0.994635
0.977788
0.933212
0.988539
0.994715
0.953087
0.993514
0.970817
0.995781
0.997765
0.992982
0.99804
0.997455
0.998765
0.997276
0.990854
0.998814
1
0.99726
0.998496
0.998652
0.991369
0.986871
0.998491
0.999188
0.997645
0.993469
0.98109
0.964919
1
0.991288
0.992027
0.975732
0.996812
0.985436
0.997266
0.999628
0.994682
0.992227
0.998211
0.999211
0.996402
0.988068
1
1
0.998038
0.997559
0.998498
0.993178
0.988544
0.999193
0.998556
0.997657
0.991306
0.98116
0.970991
1
0.993418
0.991635
0.987642
1
0.991542
0.995613
0.998476
0.994394
0.99172
0.998661
0.998763
0.996565
0.987627
0.997723
0.997361
0.997158
0.998863
0.995545
0.989734
0.98611
1
0.997383
0.997147
0.992975
0.988685
0.976047
0.996205
0.993657
0.990481
0.990435
0.996191
0.99693
0.99797
0.993166
0.995945
0.998782
0.999206
0.996443
0.990513
0.9989
0.991443
0.999123
0.995739
0.98852
0.984201
1
0.996934
0.994388
0.982353
0.986401
0.995896
0.994594
0.992084
0.996812
0.997088
0.996628
0.99902
0.994862
0.99902
0.998567
0.999219
0.992895
0.988827
0.984496
0.99929
0.99931
0.996979
0.98587
0.978319
0.997354
0.995357
0.992673
0.984765
0.982631
0.99214
0.992572
0.996429
0.99934
0.997816
0.997943
0.997703
0.99168
0.999021
0.998236
0.998675
0.99105
0.985668
0.996811
0.999324
0.998495
0.997091
0.986257
0.979785
0.995069
0.994774
0.994114
0.991823
0.993428
0.99547
0.993478
0.99986
0.993733
0.996752
0.997775
0.998041
0.997777
0.997433
0.998832
0.998131
0.992667
0.983838
0.996811
0.999053
0.997965
0.994265
0.990335
0.986729
0.998767
0.996749
0.995319
0.989885
0.99335
0.991754
0.99224
0.996709
0.996811
1
0.997505
0.999662
0.996215
0.999021
0.998783
0.997774
0.992226
0.994301
1
1
0.993761
0.99418
0.994407
0.989237
0.989597
0.996213
0.992954
0.991119
0.990688
0.993264
0.992089
0.99825
0.995712
1
0.996089
0.997703
0.994773
0.999021
0.998501
0.996596
0.994815
0.996976
1
0.999054
0.996561
0.995059
0.996389
0.993832
0.994678
0.995801
0.99415
0.996661
1
0.994309
0.995501
0.995939
0.996811
1
0.998348
0.997838
0.995794
0.998041
0.998295
0.997417
0.993494
0.991975
1
0.991786
0.996958
0.996221
0.996081
0.996493
0.992393
0.995324
0.994987
0.995693
0.996009
0.995315
0.996376
0.992789
0.99868
1
0.998045
0.998379
0.995013
0.998075
0.998962
0.998162
0.994023
0.992517
1
0.995945
0.996258
0.994169
0.996547
0.990657
0.994619
0.996528
0.994757
0.994926
0.993908
0.99818
0.99692
1
1
1
0.996966
1
0.996725
0.999358
0.999474
0.997617
0.995586
0.991005
0.995932
0.99902
0.99625
0.994695
0.995574
0.996462
0.998256
0.99675
0.996075
0.998698
0.99993
0.995161
0.999124
0.99664
0.996812
1
0.996528
1
0.997146
0.999358
0.998348
0.997824
0.996167
0.98876
0.996152
0.998716
0.996938
0.995551
0.996113
0.995043
0.998256
0.99717
0.997142
0.996462
0.9972
0.999226
0.998762
1
0.998131
1
0.999933
0.99902
0.994743
0.997873
0.999279
0.996987
0.996478
0.993488
1
0.997094
0.997873
0.995176
0.996964
0.999698
0.9948
0.998054
0.998055
0.994425
0.99629
0.996864
0.999124
1
0.997911
1
0.996393
0.999662
0.998498
0.998042
0.998791
0.9982
0.997298
0.993797
0.994064
0.996418
0.997746
0.99693
0.998358
0.998307
0.997685
0.998336
0.998864
0.998832
0.99762
0.998877
0.999698
0.99797
0.998901
1
0.999022
0.997703
0.9997
1
0.997925
0.996853
0.997496
0.994379
0.991864
1
0.99845
0.997483
0.99846
0.998458
0.998437
0.998946
0.998751
0.999366
1
1
1
0.99867
1
0.999552
1
0.999595
0.997987
1
0.998604
0.996335
0.99809
0.995503
1
0.998682
0.998985
0.998684
0.998302
1
0.999098
0.999249
0.998375
0.997563
0.99797
1
0.999094
1
1
0.998432
1
0.99902
0.998107
1
0.998665
0.998626
0.997125
0.99686
0.996812
0.999324
0.998842
0.998451
0.998127
0.998942
0.999699
0.999544
0.99924
0.996962
1
1
0.999124
1
1
1
0.999663
0.99794
0.99991
1
0.998894
0.99845
0.997565
0.995736
0.993624
0.99902
0.99855
0.999423
0.998071
0.999123
0.997385
0.999649
0.998488
1
0.99811
0.998877
0.998189
1
0.99978
1
1
0.99642
0.99973
1
0.999313
0.999006
0.998118
0.995503
1
0.99973
0.998661
0.998637
0.997823
0.999123
1
0.999705
0.998908
0.99743
0.99923
1
1
0.99958
1
1
1
1
0.998258
1
0.999336
0.999482
0.99872
0.998876
1
1
0.999442
0.999245
0.998525
0.999819
1
0.999734
0.998419
0.998898
1
1
0.998581
0.99993
1
1
0.998079
0.999662
0.998468
1
0.999123
0.999183
0.99872
0.997015
1
0.999932
0.999331
0.999775
0.999096
0.999093
0.999128
0.999766
0.998306
0.999032
1
1
1
0.99797
1
1
0.997405
1
0.999129
1
0.999149
0.999447
0.9996
0.997752
1
0.99902
0.999777
0.999191
0.9988
0.999123
0.999248
1
0.998993
0.9999
1
1
0.999124
1
1
1
1
0.999561
0.999129
1
0.99963
0.999658
0.998578
0.998721
1
0.99902
0.999554
0.999466
0.998979
0.999123
1
0.999883
0.999604
0.999933
1
1
1
1
1
1
0.997067
0.99902
0.999129
1
0.998806
0.998484
0.99941
0.998876
1
1
0.999631
0.999547
0.999238
0.998821
1
0.999923
0.999652
0.99743
0.99797
1
1
0.99797
1
1
1
0.99902
0.998588
1
0.999794
0.996009
0.998449
0.999263
1
1
0.999846
0.999551
0.999137
0.997884
0.999128
0.999766
1
0.999032
1
1
1
1
1
1
0.999831
0.997061
0.999129
1
0.999226
0.999332
0.998227
0.998139
1
0.99902
0.99985
0.999888
0.999745
0.999123
0.998286
1
1
1
1
1
1
1
1
0.999832
0.999966
0.998243
0.998257
1
0.999645
0.998311
0.998574
1
1
0.998614
0.999592
0.999663
0.99908
0.998368
1
1
1
1
1
1
1
0.99825
1
1
0.999022
0.99902
0.998227
0.999662
0.996738
0.99873
0.998401
0.997751
1
1
0.999777
1
0.999291
0.997975
1
1
1
1
1
1
1
1
1
1
1
1
1
1
0.999
0.999889
0.998086
0.996704
1
0.999932
0.999888
1
0.998829
0.995344
0.999158
0.999883
1
1
1
1
1
1
1
1
1
1
1
1
0.999779
0.999889
0.998595
0.996006
0.99989
1
1
0.999884
0.99876
0.999123
1
1
1
1
1
1
1
1
1
1
1
1
1
0.999021
0.999889
0.999889
0.998962
0.998914
1
1
0.999777
1
0.999254
0.999123
1
0.999883
1
1
1
1
1
1
1
1
1
1
1
1
1
0.999889
0.999221
0.998023
1
1
0.999777
0.999888
0.99953
0.999123
1
1
1
1
1
1
1
1
1
1
1
1
1
1
0.999889
0.999628
0.99912
0.997984
1
1
1
0.999775
0.999412
1
0.999128
1
1
1
1
1
1
1
1
1
1
1
1
1
1
0.999889
1
0.996628
1
1
1
1
0.999923
0.999093
1
1
1
1
0.99797
1
1
1
1
1
1
1
1
1
1
0.999777
0.999742
0.999612
1
1
1
1
0.999607
1
1
1
1
1
0.9993
1
1
1
1
1
1
1
0.999159
1
1
0.999889
0.999673
1
1
1
1
1
0.999822
0.997914
1
1
1
1
1
1
1
1
1
1
1
0.999088
1
1
1
1
0.999649
0.999961
1
1
1
1
0.999647
0.998247
1
1
1
1
1
1
1
1
1
1
1
1
1
1
1
1
0.999806
1
1
1
1
1
0.999765
1
1
1
1
1
1
1
1
1
1
1
1
1
1
1
1
0.999889
0.999887
0.999612
1
1
1
1
1
1
1
1
1
1
1
1
1
1
1
1
1
1
1
1
1
0.999777
0.999996
1
1
1
1
1
0.999295
0.999153
1
1
1
1
1
1
1
1
1
1
1
1
1
1
1
1
0.999532
1
1
1
1
0.999888
0.999765
1
1
1
1
1
1
1
1
1
1
1
1
1
1
1
1
0.999889
0.999766
1
1
1
1
0.999888
0.999765
1
1
1
1
1
1
1
1
1
1
1
1
1
0.999129
1
1
1
0.999766
1
1
1
1
1
1
1
1
1
1
1
1
1
1
1
1
1
1
1
1
1
1
0.999889
0.999766
1
1
1
1
0.999888
0.999882
1
1
1
1
1
1
1
1
1
1
1
1
1
1
1
1
0.999962
0.999806
0.998914
1
1
1
1
1
1
1
1
1
1
1
1
1
1
1
1
1
1
1
1
1
1
0.999883
1
1
1
1
1
0.999765
1
1
1
1
1
1
1
1
1
1
1
1
1
1
1
1
1
1
1
1
1
1
1
0.999882
1
1
1
1
1
1
1
1
1
1
1
1
1
1
1
1
1
1
1
1
1
1
1
0.999882
1
1
1
1
1
1
1
1
1
1
1
1
1
1
1
1
1
1
1
1
1
1
1
0.999882
0.998247
1
1
1
1
1
1
1
1
1
1
1
1
1
1
1
1
1
1
1
1
1
1
1
0.999123
1
1
1
1
1
1
1
1
1
1
1
1
1
1
1
1
1
0.999612
1
1
1
1
1
1
1
1
1
1
1
1
1
1
1
1
1
1
1
1
1
1
1
0.998876
1
1
1
1
1
1
1
1
1
1
1
1
1
1
1
1
1
1
1
1
1
1
1
1
1
1
1
1
1
1
1
1
1
1
1
1
1
1
1
1
1
1
1
1
1
1
1
1
1
1
1
1
1
1
1
1
1
1
1
1
1
1
1
1
1
1
1
1
1
1
1
0.998865
1
1
1
1
1
1
1
1
1
1
1
1
1
1
1
1
1
1
1
1
1
1
1
1
1
1
1
1
1
1
1
1
1
1
1
1
1
1
1
1
1
1
1
1
1
1
1
1
1
1
1
1
1
1
1
1
1
1
1
1
1
1
1
1
1
1
1
1
1
1
1
1
1
1
1
1
1
1
1
1
1
1
1
1
1
1
1
1
1
1
1
1
1
1
1
1
1
1
1
1
1
1
1
1
1
1
1
1
1
1
1
1
1
1
1
1
1
1
1
1
1
1
1
1
1
1
1
1
1
1
1
1
1
1
1
1
1
1
1
1
1
1
1
1
1
1
1
1
1
1
1
1
1
1
1
1
1
1
1
1
1
1
1
1
1
1
1
1
1
1
1
1
1
1
1
1
1
1
1
1
1
1
1
1
1
1
1
1
1
1
1
1
1
1
1
1
1
1
1
1
1
1
1
1
1
1
1
1
1
1
1
1
1
1
1
1
1
1
1
1
1
1
1
1
1
1
1
1
1
1
1
1
1
1
1
1
1
1
1
1
1
1
1
1
1
1
1
1
1
1
1
1
1
1
1
1
1
1
1
1
1
1
1
1
1
1
1
1
1
1
1
1
1
1
1
1
1
1
1
1
1
1
1
1
1
1
1
1
1
1
1
1
1
1
1
1
1
1
1
1
1
1
1
1
1
1
1
1
1
1
1
1
1
1
1
1
1
1
1
1
1
1
1
1
1
1
1
1
1
1
1
1
1
1
1
0.805537
0.798383
0.936282
0.911697
0.784382
0.906822
0.925442
0.920353
0.687183
0.700215
0.837444
0.782772
0.862214
0.843084
0.920679
0.916909
0.931004
0.911708
0.859577
0.97239
0.961676
0.903682
0.866735
0.981876
0.896306
0.751655
0.910842
0.795928
0.743394
0.732355
0.906995
0.877081
0.884367
0.906921
0.882851
0.908551
0.903033
0.912852
0.958313
0.91947
0.944681
0.987546
0.948814
0.986366
0.993175
0.711919
0.640412
0.467682
0.853205
0.834836
0.897117
0.851333
0.912253
0.894963
0.962574
0.800992
0.881954
0.826673
0.811791
0.921305
0.955247
0.901131
0.973548
0.980457
0.932446
0.969229
0.583709
0.493377
0.422218
0.448085
0.908969
0.863543
0.93838
0.827829
0.908501
0.934122
0.914348
0.942808
0.969127
0.875912
0.947588
0.967259
0.631768
0.629587
0.446055
0.442057
0.423707
0.4534
0.848285
0.805157
0.81659
0.624053
0.522454
0.446559
0.478781
0.425237
0.996257
0.963296
0.997018
0.992786
0.984578
0.994909
0.968053
0.957473
0.991702
0.994654
0.996924
0.9776
0.998843
0.999783
0.989002
0.969088
0.879655
0.97946
0.927752
0.957537
0.835579
0.915477
0.686329
0.830115
0.935697
0.970608
0.898439
0.933217
0.889116
0.986254
0.80823
0.780045
0.517178
0.977288
1
0.971833
0.918019
0.997454
0.773681
0.475856
0.460546
0.466762
0.42713
0.482279
0.988802
0.995918
1
0.944856
0.966328
0.462088
0.44035
0.436307
0.493775
0.460847
1
0.999309
0.975917
0.97076
0.976246
0.892627
0.930794
0.946812
0.882712
0.427968
0.427231
0.402611
0.424123
0.425754
0.423814
0.406708
0.429052
0.909799
0.680516
0.647287
0.497616
0.573438
0.455734
0.418934
0.437337
0.434435
0.426607
0.426122
0.420529
0.400347
0.931708
0.842565
0.980812
0.924998
0.88614
0.812432
0.824799
0.763452
0.958316
0.983612
0.949171
0.927199
0.972736
0.938307
0.828798
0.777951
0.645668
0.853479
0.616661
0.7393
0.66618
0.732396
0.553359
0.604296
0.736609
0.853327
0.562071
0.662138
0.497271
0.547803
0.434571
0.446098
0.443014
0.848116
0.968377
0.779663
0.693028
0.868366
0.700217
0.439643
0.532994
0.495095
0.437116
0.581771
0.938305
0.957898
0.987293
0.916964
0.937253
0.55257
0.480548
0.434464
0.573503
0.466359
0.934715
0.830858
0.8572
0.873767
0.692797
0.749938
0.656065
0.63152
0.497101
0.42078
0.419682
0.418648
0.406584
0.4081
0.409078
0.43
0.445317
0.518283
0.432798
0.425497
0.389709
0.434342
0.421799
0.411412
0.428424
0.418194
0.423021
0.430126
0.446032
0.421789
0.557373
0.439193
0.540276
0.534337
0.500531
0.44405
0.448286
0.446193
0.663734
0.760573
0.4634
0.451191
0.447074
0.547332
0.417017
0.462943
0.437428
0.496204
0.465802
0.462361
0.432169
0.446193
0.443703
0.441451
0.434564
0.426001
0.421104
0.412272
0.412749
0.410315
0.415804
0.452182
0.444996
0.508967
0.616757
0.519589
0.451182
0.481034
0.452376
0.43352
0.549395
0.474875
0.53044
0.766565
0.707556
0.766115
0.535696
0.502797
0.5097
0.572781
0.573159
0.781492
0.862222
0.937335
0.535158
0.432721
0.449492
0.43848
0.432139
0.430057
0.425361
0.409522
0.416248
0.64244
0.714079
0.781257
0.986158
0.947465
0.974454
0.955699
0.925959
0.406446
0.419801
0.414854
0.442154
0.477676
0.663101
0.887114
0.692649
0.681758
0.953885
0.972409
0.977424
0.964516
0.41884
0.403743
0.389427
0.443123
0.434063
0.698006
0.442763
0.638626
0.459047
0.506439
0.911623
0.912934
0.95526
0.467528
0.959834
0.404905
0.415113
0.437736
0.444273
0.443675
0.419801
0.43063
0.438805
0.429848
0.486344
0.501735
0.530251
0.938447
0.953312
0.96656
0.968316
0.646035
0.969236
0.440007
0.426002
0.440736
0.444049
0.414791
0.429429
0.917582
0.95056
0.962996
0.965244
0.959084
0.449911
0.437053
0.4237
0.455255
0.566059
0.984047
0.944293
0.95155
0.983383
0.946513
0.41081
0.721739
0.445051
0.442362
0.511643
0.78923
0.924818
0.940446
0.979336
0.942238
0.978375
0.962594
0.989271
0.931993
0.978453
0.937991
0.917352
0.700258
0.991325
0.987364
0.990456
0.992025
0.990728
0.98716
0.98432
0.990566
0.98744
0.984733
0.993636
0.980387
0.564545
0.980553
0.985157
0.810782
0.975385
0.984276
0.989009
0.993216
0.99482
0.995043
0.996592
0.994545
0.994266
0.997907
0.990924
0.45295
0.92665
0.544937
0.489119
0.662122
0.909886
0.980376
0.952118
0.994662
0.988851
0.992319
0.986604
0.995325
0.994148
0.99737
0.987271
0.991545
0.991606
0.565376
0.722147
0.728159
0.995085
1
0.999455
0.976487
0.914415
0.987076
0.991175
0.950885
0.927487
0.997832
0.996811
1
1
0.972448
0.954088
0.97635
0.943274
0.96565
1
0.995954
0.999802
0.998369
0.998245
0.999699
0.991917
1
0.998244
0.939124
0.965827
0.917785
0.982383
0.94197
0.955517
0.930492
0.922002
1
0.996642
0.995319
0.990452
0.994695
0.994199
0.982219
0.989377
0.992099
0.989096
0.985879
0.984087
0.950213
0.982922
0.977693
0.996811
0.988814
0.995729
0.996811
0.993342
0.998425
0.994726
0.992287
0.996922
0.998242
0.995582
0.995741
0.987862
0.997283
0.993939
0.993168
0.999136
0.996548
0.961352
0.981121
0.996304
0.99316
0.992624
0.993882
0.990909
0.993235
0.983267
0.996627
0.992237
0.988146
0.995179
0.997755
1
1
0.996787
1
0.999879
0.953538
0.990458
0.845889
0.995112
0.989001
0.991132
0.992276
0.46002
0.545412
0.389936
0.99385
0.941786
0.99188
0.898503
0.998243
0.998877
1
0.999121
0.998644
0.89656
0.966213
0.98071
0.979211
0.992
0.97313
0.985852
0.385968
0.758317
0.45154
0.983621
0.90493
0.997439
0.942255
1
0.999721
0.99812
0.99775
0.996458
0.996451
0.99528
0.998706
0.995519
0.952882
0.954266
0.952665
0.982831
0.957873
0.9749
0.95012
0.957456
0.995102
0.997411
0.993082
0.983976
0.993921
0.996676
0.993634
0.979779
0.996708
0.995891
0.994022
1
0.97597
0.964866
0.984664
1
0.995897
0.998213
0.996812
0.996981
0.995639
0.99806
0.99663
1
0.997545
1
0.997632
0.993809
0.991849
0.990595
0.982498
0.990731
0.990716
0.979387
0.983067
0.987183
0.993224
0.99194
0.998248
0.991186
0.993657
0.982812
0.997843
0.992203
0.992406
0.997848
0.988569
1
0.995727
0.993156
1
0.998384
0.99551
1
0.999122
0.997755
1
0.999122
0.998296
0.995672
0.993871
0.99292
0.998793
0.990649
0.997265
0.995503
0.998198
0.998909
0.999178
1
1
0.998262
1
0.998335
1
1
0.998877
0.99492
0.970286
0.995956
0.979499
0.99042
0.964402
0.992259
0.999065
0.999285
0.999276
1
0.999064
1
1
0.997558
1
0.999802
0.9937
0.991129
0.998346
0.998944
0.995106
0.993278
0.951325
0.970075
0.959803
0.98893
0.974953
0.984148
0.963333
0.999851
0.97693
0.999215
1
1
1
0.989645
0.991884
0.994532
0.993635
0.995973
0.996888
0.993744
0.9844
0.993635
0.988826
0.986151
0.985844
0.992178
0.998118
0.98794
0.990435
0.999226
0.999122
1
0.998181
0.997002
0.999424
0.996632
0.996812
0.998515
0.997212
0.996523
0.993179
0.985092
0.975338
0.987742
0.985127
0.997752
0.987509
0.994845
0.987988
0.997492
0.984599
0.99936
0.991945
0.993564
0.99066
0.998081
0.990647
0.99287
0.999015
0.993772
0.997844
0.99863
0.999381
1
1
0.995161
1
0.999121
0.979871
1
0.997365
0.999339
0.982437
0.993302
0.991198
0.997394
0.993511
0.994769
0.998294
1
1
0.998684
0.999846
0.999215
1
1
1
0.99945
0.998212
0.998877
0.996606
0.966824
0.994343
0.975586
0.992925
0.980198
0.998087
1
1
1
1
1
1
0.999256
1
1
0.999076
0.995106
0.997336
0.998195
0.999076
0.998481
0.998335
0.97608
0.982209
0.978706
0.985699
0.982671
0.981418
0.981623
0.999067
0.986158
1
1
1
1
0.994612
0.997971
0.993686
0.993415
0.997096
0.992689
0.993745
0.984213
0.988369
0.993266
0.989952
0.993416
0.989656
0.996027
0.993936
1
0.996013
0.998062
0.990434
0.998839
0.997214
0.997303
0.991633
0.997801
0.998848
0.99663
0.990452
0.993932
0.979588
0.988436
0.998142
0.99395
0.995244
0.99003
0.993348
0.990791
0.99645
0.98365
0.996905
0.989332
0.994243
0.99053
0.998632
0.989433
0.980994
0.983952
0.984477
1
0.995517
0.985213
0.99989
0.995214
0.997031
0.991901
0.996199
0.991685
0.998374
0.988537
0.993844
1
1
0.999236
1
1
1
1
0.998455
0.998877
1
1
1
0.990677
0.978278
0.995054
0.97943
0.991329
0.981274
0.997334
1
1
1
0.999692
0.998508
1
1
0.997977
1
1
0.998594
0.999183
1
0.998086
0.998369
0.998516
0.987028
0.97935
0.986383
0.994196
0.986122
0.990592
0.987798
0.987036
0.997971
0.995942
0.993564
0.986281
0.994076
0.994562
0.993744
0.987546
0.99144
0.99236
0.993367
0.993635
0.993906
0.995469
0.997282
0.996811
0.996168
0.997426
0.996811
0.998645
0.998637
0.997121
0.989504
0.996812
0.994607
0.995431
0.991699
0.995537
0.989899
0.99394
0.994067
0.996543
0.9972
0.998936
0.996764
0.999821
0.998437
0.990126
0.99648
0.990138
0.989596
0.994495
0.998545
0.994355
0.982921
0.992069
0.99222
0.991643
0.992518
0.990556
0.988344
0.984462
0.985543
0.989139
0.996947
0.984679
0.982228
0.997212
1
0.977348
0.989153
0.998877
0.986437
0.981159
0.978208
0.97659
0.993182
0.995954
0.998535
0.994291
0.997075
0.997639
0.999188
0.998087
0.999663
0.997366
0.981317
0.991219
0.989344
0.985939
0.988252
0.993091
0.998362
0.985773
0.996362
0.998251
0.989396
0.996817
0.991908
0.993264
1
0.992129
0.98771
0.993025
0.992908
1
0.987814
0.997282
0.995958
0.990434
0.997755
0.998274
0.996811
1
0.998213
0.998273
0.994581
0.993623
0.999122
0.996245
0.991216
0.988638
0.998259
0.99798
0.994847
0.996424
0.998112
0.999944
0.996555
0.999136
1
0.974332
0.995844
0.99773
0.995765
0.986915
0.995882
0.991657
0.995819
0.990998
0.994697
0.986145
0.98313
0.994078
0.992413
0.997002
0.979394
0.968713
0.984347
0.976163
0.979122
0.991062
1
0.993512
0.994637
0.999768
0.980939
0.986855
0.981262
0.982655
0.986184
0.997977
0.997977
0.998318
0.999944
0.996488
0.997053
0.997065
1
0.99555
0.985875
0.987198
0.987858
0.992691
0.987382
0.993312
0.988309
0.993575
0.995242
0.996642
0.991875
1
0.995896
0.989822
0.996159
0.994538
0.993745
0.992663
0.993183
0.997476
0.98999
1
1
0.996811
0.998878
0.999122
0.996811
0.998839
1
0.999122
0.992723
0.997471
0.997183
0.996439
0.993029
0.993935
0.99589
1
0.998263
1
0.998113
0.995856
0.997424
0.997348
0.997755
0.994383
0.996805
0.993077
0.994083
0.993483
0.997068
0.993104
0.985957
0.991819
0.997059
0.990543
0.996457
0.997755
1
0.998274
0.980159
0.97404
0.983997
0.98076
0.988228
0.994395
0.997289
1
0.996789
0.997018
0.975825
0.986382
0.981624
0.98857
0.982353
0.995884
0.994071
0.998714
0.998256
0.995944
0.999068
0.998714
0.995219
0.999092
0.990947
0.990455
0.989267
0.990755
0.991157
0.99395
0.994463
0.992023
1
0.99916
0.988976
0.999561
0.990592
0.990275
0.996817
0.993687
0.994184
0.993146
0.993648
0.994952
0.993909
1
1
0.99989
1
0.998274
1
1
0.998244
0.998425
0.994
1
0.996487
0.994271
0.991216
0.998815
1
1
0.997664
1
0.99616
0.996752
1
0.999136
0.999675
0.992414
0.995882
0.992286
0.997326
0.996403
0.995222
0.996642
0.980835
0.989087
0.998878
1
0.999152
1
1
0.999091
0.987322
0.980745
0.991898
0.984355
0.989658
0.997607
0.991791
0.997691
0.997425
0.993688
0.98758
0.987923
0.993832
0.989338
0.995199
0.996722
0.993862
0.999077
0.995725
0.998426
0.993295
0.998087
0.995107
0.99443
0.987403
0.993433
0.996496
0.994525
0.995577
0.996534
0.997909
0.993209
0.998251
0.99993
0.991845
0.993525
0.994773
0.996587
0.990561
0.997754
0.993525
0.992089
0.992718
0.996817
0.995939
1
0.997979
0.996811
0.998878
1
1
0.997717
0.998244
0.99785
0.996981
0.996811
0.997759
0.996245
0.99268
1
1
0.999861
1
0.998838
0.998471
1
0.998263
0.99857
0.999967
0.995111
0.995288
0.992981
0.995614
0.995167
0.9971
0.992012
0.984609
0.994613
0.996633
1
1
0.998994
1
1
0.990952
0.984817
0.994766
0.993857
0.996809
1
0.996592
1
0.997364
0.996283
0.997802
0.995896
0.996704
0.995494
0.997019
0.988002
0.993234
0.996604
0.9973
0.998002
0.999489
0.994823
0.994544
0.996489
0.995607
0.994588
0.998361
0.994858
0.993838
0.996169
0.998361
0.99993
0.997971
0.993983
0.992752
0.996817
0.985249
0.9955
1
0.99419
0.9955
0.994021
0.996514
0.997476
0.99867
1
1
0.996811
0.997794
0.999697
0.996701
1
0.998547
0.99794
0.997252
0.994832
0.997668
0.998645
0.995956
0.991285
0.998677
0.995682
1
1
0.999024
1
0.998832
1
1
0.995111
0.995848
0.996036
0.997026
0.997303
0.996935
0.994675
0.995243
0.995872
0.999961
1
0.998425
0.999768
1
0.999818
0.991497
0.993619
0.994805
0.991406
1
1
0.996244
1
0.997364
1
0.996044
0.995509
0.99613
0.998132
0.998877
0.993931
0.997977
0.997593
0.9964
0.990949
0.994558
0.994592
0.994657
0.994582
0.997285
0.998085
0.99514
0.996127
0.99942
0.997568
0.995083
1
0.995592
0.995942
0.997221
0.997915
0.993883
0.996678
0.989354
0.993261
0.992976
0.995169
0.993415
0.996817
0.996359
1
1
1
0.997794
0.999122
1
0.999613
0.998244
0.998758
0.998181
1
0.997698
0.994968
0.996584
0.996235
1
1
0.999131
1
0.999089
1
0.999131
1
0.999382
0.995055
0.997496
0.99286
0.995644
0.996741
0.996211
0.994645
0.991255
0.998111
1
1
0.999122
0.997755
1
0.999122
0.997942
0.993619
0.994418
0.989772
0.990319
1
0.998645
0.99956
0.99691
0.997793
1
0.997793
0.994377
0.998022
0.999032
0.99993
0.997977
0.996142
0.988414
0.995611
0.998256
0.991789
0.995219
0.996247
0.997651
0.998905
0.998135
0.998064
0.995272
0.999088
0.997852
0.99951
0.99958
0.991325
0.992993
0.998902
0.993651
0.995621
0.997915
0.997908
0.996817
0.993296
0.998799
0.996817
0.99867
1
0.99993
1
0.998143
0.999122
1
0.993925
0.998547
0.999485
1
0.993624
0.999122
1
0.998187
0.995609
0.998119
1
0.998952
0.99997
0.999349
1
0.998472
1
0.999675
0.99674
0.998715
0.994372
0.996816
0.996685
0.995353
0.992164
0.991744
0.990697
0.9988
0.996811
0.997365
1
0.993733
0.996456
0.994674
0.989438
0.998256
0.994735
0.99681
0.996214
0.997909
0.99989
0.996909
0.9988
0.989559
0.996283
0.995284
0.99989
0.998606
0.992187
0.992607
0.997264
0.989932
0.994431
0.991551
0.999044
0.995557
0.998244
0.997712
0.996442
0.999887
0.997396
0.999115
0.999422
1
0.99391
0.99916
0.995243
0.99707
1
0.995122
0.995047
0.996818
0.998722
0.99067
0.996196
0.996244
1
0.9993
0.997979
0.995958
1
0.997756
0.997366
1
0.999845
0.997486
0.997365
1
0.99912
0.99585
0.99818
0.997978
0.993586
0.99798
1
0.998952
1
0.998438
1
0.998652
1
0.999675
0.997752
0.997035
0.995159
0.995824
0.996741
0.998056
0.994222
0.993913
0.988109
0.999807
0.987028
0.997457
0.999071
0.989443
0.995699
0.995612
0.990428
0.995078
0.997912
1
0.99797
0.995895
0.984716
0.985366
0.998877
0.98747
0.996593
0.995919
0.991098
0.998877
0.997977
0.998605
0.998978
0.994545
0.996519
0.999008
0.997559
0.9937
0.998093
0.998566
0.997933
1
0.998698
0.997956
0.996472
0.999943
0.997969
0.996642
0.996782
0.998218
1
0.99787
0.997674
1
0.997018
1
0.997372
0.997714
1
0.998039
1
1
0.993514
0.999458
0.998244
0.996921
0.998568
0.996154
0.998244
0.997678
0.997691
0.998879
0.998877
0.994075
0.998884
0.99596
1
0.99982
0.999077
1
0.998376
1
1
1
0.994831
0.997858
0.99634
0.997025
0.992469
0.9971
0.992858
0.996573
0.993493
0.997833
0.996812
0.996912
0.998877
0.996811
0.999424
0.995129
0.99362
0.995774
0.998547
0.996149
0.999303
0.991947
0.993732
0.997031
0.997793
0.999341
0.996516
0.997702
0.991096
0.99818
0.994629
0.997977
0.994989
0.995669
0.99661
0.996121
0.999175
0.998032
0.999031
1
0.997355
1
0.999232
0.998749
0.999422
1
0.996639
0.998041
0.997971
0.999124
1
0.998683
0.99855
1
0.999342
1
0.997372
1
0.996817
1
1
1
0.995382
0.998491
0.999122
0.996151
0.997717
0.998244
0.999031
0.997794
0.99846
0.999849
0.998839
0.996724
0.995189
0.99798
1
0.999311
0.999136
0.999089
1
0.99982
1
0.999967
0.992808
0.997891
0.994888
0.996635
0.999382
0.998846
0.995794
0.992096
0.99986
1
0.993624
1
0.999961
0.9989
0.998819
0.99404
0.98834
0.9962
0.997639
0.99868
0.996789
0.995199
0.990982
0.994667
0.994423
1
0.9976
0.995525
0.996812
0.998529
0.996443
0.99135
0.997824
0.995389
0.998214
0.997023
0.997955
1
0.998426
0.997804
0.998115
1
0.998264
0.998749
0.999818
1
0.99951
1
1
0.999668
1
1
0.998188
1
0.998799
1
0.99855
1
1
0.997969
0.997979
0.997979
1
0.998917
0.997639
1
0.998878
0.99788
0.999122
0.996555
0.9989
0.998273
0.998103
0.997351
0.998118
1
1
0.999132
1
0.999382
1
1
1
0.999089
0.99837
0.999605
0.994162
0.995373
0.99764
0.996342
0.992889
0.989087
0.994753
1
0.996812
0.997699
1
0.996811
0.999122
0.993888
0.989549
0.996782
0.998093
0.997029
0.992397
0.997716
0.991642
0.991637
0.996863
0.997912
0.998916
1
0.996592
0.997754
0.997977
0.998814
0.998714
0.996738
0.997367
0.999639
1
0.998369
1
0.998932
0.998237
1
0.999032
0.997346
1
1
0.995939
1
1
1
1
0.997832
0.999064
1
0.997792
1
1
1
1
1
1
0.997979
0.997911
0.996596
0.996337
0.996921
0.998878
0.999122
0.999091
0.998839
0.99989
0.999152
0.997755
1
1
1
1
1
0.998272
0.999057
0.997928
0.99997
0.999553
0.999805
0.994381
0.999012
0.99761
0.998558
0.997246
0.995584
0.999122
1
0.993843
1
0.990436
1
0.998877
0.996811
1
0.997307
1
0.995542
0.998245
1
0.997152
0.988732
0.995382
0.997758
0.997406
0.996044
0.998877
0.997369
1
0.998374
0.994769
0.998605
1
0.997919
1
0.999429
0.996801
1
0.999152
0.998231
0.999392
1
1
0.999115
0.998206
0.998417
0.99958
1
1
1
1
1
0.999124
0.996817
1
1
0.999124
1
1
1
1
1
1
0.998878
0.999092
1
0.997756
0.999091
0.996457
0.998877
1
1
0.998877
0.999233
0.996654
0.99798
1
0.999161
0.999881
1
0.998712
1
1
1
1
0.996442
0.994766
0.997566
0.994774
0.997034
0.997277
0.995243
0.994544
1
0.996811
1
1
1
1
0.999092
0.99791
0.997248
0.995097
0.987128
0.999667
0.99818
0.996811
0.999121
1
0.998901
1
0.997369
0.996922
0.997754
0.998675
1
0.999934
1
0.99997
0.999399
0.999538
0.999775
1
0.99939
1
0.996214
1
0.998535
1
0.998926
0.9993
1
1
0.999124
1
1
0.999124
1
1
1
0.999154
0.995661
1
0.997969
0.997979
1
1
0.999613
0.996518
1
0.997988
0.999818
0.998486
0.998568
1
0.999152
1
0.997978
1
1
1
0.999161
0.99994
0.999057
1
0.998262
1
1
0.995392
0.996409
0.992135
0.996485
0.997302
0.995386
0.99649
0.993075
0.998111
0.998878
1
0.998244
1
1
0.999122
0.994735
0.99681
0.997906
0.998245
0.993619
0.993851
0.998877
0.996811
0.99794
0.998451
0.99956
0.997755
0.998549
1
0.997289
1
1
0.999044
0.999269
1
0.999489
1
1
1
0.999695
0.996778
0.998361
0.997796
0.999969
0.996807
0.998361
0.996009
1
1
0.999336
1
0.999613
1
1
0.996631
1
1
1
1
0.99986
0.99993
1
1
0.998684
0.998698
1
0.997021
0.999122
0.999122
0.998877
1
0.998425
0.999265
0.997978
0.997978
1
1
0.999161
0.999315
1
0.999328
0.999191
0.99857
0.999805
0.994606
0.998188
0.995311
0.999129
0.998482
0.997396
0.998184
0.997901
0.997971
0.998878
0.996811
0.999697
1
1
0.999425
0.997368
1
0.997829
0.999062
0.996809
0.998243
0.998142
1
1
0.999961
1
0.997445
0.999123
1
1
1
0.997977
1
0.998369
1
1
0.999044
1
1
0.996431
0.998358
0.999774
0.998063
0.999115
0.998236
0.998361
1
1
0.997971
1
1
1
1
1
0.997831
1
0.999124
0.999303
1
0.997899
1
1
0.993842
0.997214
0.998365
0.996811
0.998878
0.999122
0.999122
0.99849
1
0.99997
0.998878
0.99993
0.993378
1
0.99805
1
1
1
0.998376
1
0.999136
0.999056
1
0.999045
0.996521
0.995313
1
0.999044
0.992707
0.991885
1
0.998878
0.996811
1
0.998104
1
0.999122
0.998184
1
0.997752
1
0.996809
0.998243
0.99667
1
0.999121
1
0.996923
1
0.997883
0.99978
0.997754
0.997978
1
0.999044
1
1
1
0.999044
1
1
0.999451
0.998237
0.998361
0.998998
0.99881
0.996168
1
1
1
1
1
1
1
0.999003
1
0.998722
1
0.999124
0.993298
1
0.994608
1
1
1
0.998839
0.997577
1
0.996673
0.997305
0.999425
0.998877
1
0.997638
0.998877
0.997978
1
1
1
0.999132
1
0.999057
1
1
0.999702
0.998438
0.998371
0.998715
0.996763
0.999099
0.99837
0.996243
0.999122
0.99993
0.998041
0.999613
0.996811
1
1
1
1
0.999123
1
0.999612
0.998517
0.996809
1
1
1
0.999848
1
1
0.99849
0.9974
1
0.997754
1
1
1
1
1
1
0.99746
1
0.999697
0.998627
0.997386
1
0.997963
0.999146
0.999118
0.998361
1
1
1
0.999064
1
1
1
1
0.999961
0.99989
0.999698
0.998141
1
0.9993
0.999861
1
1
0.997717
0.999697
1
0.998878
1
1
0.998878
1
0.998243
1
1
0.998396
1
1
1
0.999434
0.999675
1
1
1
1
0.997359
0.997331
0.994404
0.998948
1
0.999044
0.998638
1
0.994472
0.999806
1
1
0.999071
1
0.998243
0.997852
0.99681
0.998876
0.996489
0.996809
0.998395
1
1
0.998243
1
1
0.999265
0.999123
1
0.998877
1
0.997977
1
1
1
1
0.999077
1
1
0.999115
1
1
1
0.999481
1
1
0.99916
1
1
0.999124
1
1
0.999154
1
1
1
1
0.998877
1
0.997969
0.997979
0.997979
1
1
0.999122
0.996811
0.998878
1
0.999122
1
1
0.999121
0.998955
0.999582
0.997838
1
1
1
1
1
1
0.999131
1
1
0.999775
1
0.996582
1
0.99837
1
0.996429
0.996643
0.99888
1
1
1
1
1
1
0.99767
1
0.998876
0.999667
0.995709
1
1
1
1
1
0.996813
0.999884
1
0.994724
1
0.998396
1
1
1
1
0.999699
1
1
1
0.999146
0.998814
1
0.999967
0.99881
0.997385
1
1
1
1
0.999094
1
1
1
1
1
1
1
1
1
1
1
1
1
0.997756
1
1
1
0.999122
1
1
1
0.999121
1
1
1
1
1
1
0.999136
1
1
0.999551
0.999136
0.998601
1
0.999012
0.997217
1
0.99837
0.997001
1
0.993564
0.995943
1
1
1
1
1
1
0.998729
1
0.997519
0.998578
0.99989
1
1
1
1
1
0.996813
0.998877
0.998125
1
0.999032
1
1
1
1
1
1
1
1
1
0.999115
0.998328
0.998361
0.999967
0.999115
0.99997
1
1
1
1
1
1
1
1