/*--------------------------------*- C++ -*----------------------------------*\
| =========                 |                                                 |
| \\      /  F ield         | OpenFOAM: The Open Source CFD Toolbox           |
|  \\    /   O peration     | Version:  5.x                                   |
|   \\  /    A nd           | Web:      www.OpenFOAM.org                      |
|    \\/     M anipulation  |                                                 |
\*---------------------------------------------------------------------------*/
FoamFile
{
    version     2.0;
    format      ascii;
    class       volVectorField;
    location    "7.9";
    object      Us;
}
// * * * * * * * * * * * * * * * * * * * * * * * * * * * * * * * * * * * * * //

dimensions      [0 1 -1 0 0 0 0];

internalField   nonuniform List<vector> 
10571
(
(-0.0623131 0.00143302 -0.239445)
(-0.0446988 0.0766575 -0.0374322)
(-0.13496 0.0561198 -0.204394)
(-0.0856245 0.0200213 -0.221949)
(-0.0118485 0.00844296 -0.102574)
(-0.065968 0.0486111 0.0413447)
(-0.142847 0.0818175 -0.121079)
(-0.106996 0.0212841 -0.22969)
(-0.00827053 0.0159597 -0.204164)
(0.0434441 0.04111 -0.18727)
(-0.105069 -0.0894186 0.0536449)
(-0.0501689 -0.0502619 -0.0165843)
(-0.0350166 -0.00544582 0.0385668)
(-0.120809 0.0683616 -0.213959)
(0.0198085 0.0914251 -0.144479)
(-0.0195381 0.0539485 -0.0858419)
(-0.0622656 0.0507559 -0.0814013)
(-0.0556142 0.00629932 -0.0764131)
(-0.0913162 0.0589621 -0.143678)
(-0.0270292 0.0459358 -0.13722)
(-0.031643 0.050895 -0.00959911)
(0.103658 0.074573 -0.0395259)
(0.0209217 0.0706415 -0.0574821)
(-0.0460224 0.019359 -0.0569319)
(-0.0647803 -0.00297694 -0.147266)
(-0.0826357 0.0616222 -0.159687)
(-0.125879 0.0407651 -0.145559)
(-0.0941581 0.0219328 -0.123665)
(-0.0188252 0.00393909 -0.101384)
(-0.186653 0.122358 -0.0818364)
(-0.188257 0.0341564 -0.0383721)
(-0.0715429 0.0192012 -0.0695041)
(-0.00960327 0.0437446 -0.0890325)
(0.0372551 0.0615689 -0.0832107)
(0.0124845 0.0659746 -0.0111679)
(-0.0571429 0.0272022 -0.0824324)
(-0.182601 0.121718 -0.059186)
(-0.0753169 0.0916051 -0.112161)
(-0.0154779 0.0860968 -0.0987388)
(0.0298569 0.153979 -0.0837261)
(-0.0542879 0.00370244 -0.120562)
(-0.0345628 -0.002591 -0.110826)
(-0.000842766 0.0413732 -0.0848638)
(-0.0430655 0.109735 -0.127254)
(-0.0457692 0.0987071 -0.0760315)
(0.0665694 -0.0508258 -0.13828)
(0.126721 -0.016667 -0.054591)
(0.0130314 -0.00161407 -0.0709759)
(-0.0197967 -0.00212486 -0.0576613)
(-0.0468003 0.0466953 -0.0736985)
(-0.118176 0.022264 -0.0199041)
(-0.093575 -0.0128494 0.0218014)
(-0.0337678 -0.0336025 0.0222254)
(-0.125898 0.126477 -0.00230251)
(-0.143443 0.0221478 0.0701002)
(-0.0246599 0.00818022 -0.0418762)
(-0.0433729 0.0036336 -0.0740789)
(0.0150741 0.0797088 0.0612207)
(0.0343558 0.0470612 0.06175)
(-0.0597993 0.125628 -0.0387104)
(-0.132225 0.0745658 0.00252596)
(-0.0519739 0.0304322 -0.075465)
(-0.0624536 0.00095761 -0.0905453)
(-0.00312384 0.0967835 0.0233188)
(-0.0455643 0.0199949 -0.0798578)
(-0.0604816 0.0153356 -0.0313441)
(0.00308434 0.0168664 -0.0118059)
(-0.0844323 0.0370995 -0.0727141)
(-0.059308 0.0819805 0.0373959)
(0.000228329 -0.0456096 -0.0978159)
(0.137364 -0.0452847 0.0624573)
(0.14964 -0.083611 0.0109007)
(0.0360766 -0.00913588 0.00911578)
(-0.000827508 0.0149489 0.00273506)
(-0.0679333 -0.0113726 0.083784)
(0.0126615 -0.0928992 0.126582)
(0.0294002 -0.0764306 0.0805863)
(-0.0513311 0.107234 0.082311)
(-0.066727 0.00798418 0.166596)
(0.0485558 0.0101087 -0.00507919)
(-0.0842284 -0.0565988 -0.00101801)
(-0.0638779 -0.0774151 0.105348)
(0.0428782 0.00577301 0.0815352)
(-0.0313041 0.13516 0.0694201)
(-0.0567924 0.0352965 0.0534472)
(-0.0107198 -0.0137756 -0.0303604)
(-0.103613 -0.0471217 -0.00928256)
(-0.0685945 0.00102975 0.169093)
(-0.0408687 0.0365689 -0.0134861)
(-0.0459656 -0.00610146 0.0199321)
(-0.0168404 -0.0348267 0.0347582)
(-0.123524 -0.0305362 0.0329798)
(-0.0422523 0.154067 0.176288)
(-0.0378491 -0.025294 -0.0366977)
(0.104953 -0.0852725 0.101903)
(0.189284 -0.0669682 0.143399)
(0.130152 -0.0322447 0.109567)
(0.0409054 -0.0292709 0.0660181)
(-0.0186035 -0.063057 0.186688)
(0.0917427 -0.123373 0.197485)
(0.133724 -0.101949 0.149425)
(-0.0250389 0.0829382 0.177579)
(0.0329717 0.0491884 0.233339)
(0.122892 0.0279114 0.0837142)
(-0.186304 -0.0867035 0.0787699)
(-0.101093 -0.174798 0.134222)
(0.0173805 -0.0155749 0.010441)
(0.0163254 0.124887 0.165106)
(0.00583205 0.0459953 0.127701)
(0.0296549 -0.0332853 0.03223)
(-0.0801795 -0.103193 0.0923533)
(-0.094758 -0.0225317 0.140374)
(-0.0293451 0.0517989 0.0609669)
(-0.0193009 -0.0184948 0.0571754)
(-0.0387647 -0.0740431 0.0584393)
(-0.0907192 -0.099398 0.143228)
(-0.0568354 0.00071244 0.145814)
(-0.0191418 -0.0194457 0.00401647)
(0.015549 -0.0899032 0.12305)
(0.100888 -0.0272249 0.271661)
(0.20489 -0.102334 0.197009)
(0.0512087 -0.0532761 0.132385)
(0.0793508 -0.0992385 0.275118)
(0.135 -0.142247 0.276266)
(0 0 0)
(-0.0212418 0.0533404 0.272718)
(0.106801 0.06058 0.229073)
(0.163538 0.0363731 0.138282)
(0 0 0)
(0 0 0)
(-0.00508197 0.0023714 -0.00231212)
(0.00347617 -0.0397583 0.031737)
(0.0249013 0.117641 0.244747)
(0.0588881 0.0841372 0.184698)
(0.0747128 -0.0223989 0.108836)
(-0.0258403 -0.202462 0.162488)
(-0.0741024 -0.0205584 -0.118651)
(-0.00238431 -5.45845e-05 -0.00122345)
(-0.0109481 0.0752303 0.131493)
(0.0120023 0.0116283 0.104406)
(-0.0707895 -0.0782997 0.113124)
(-0.0446247 -0.158515 0.261117)
(0.0509522 -0.125186 0.169166)
(-0.00572232 0.00522488 0.0299831)
(-0.0691894 -0.0341273 0.104516)
(0.0509522 -0.0544627 0.401168)
(0 0 0)
(0.0332493 -0.0661044 0.206525)
(0.0721738 -0.101309 0.323153)
(0 0 0)
(0 0 0)
(-0.0518012 -0.0117256 0.364491)
(0.112573 0.0425394 0.344348)
(0 0 0)
(0 0 0)
(0 0 0)
(0 0 0)
(-0.00722662 -0.0367573 0.0841499)
(-0.0145317 0.127328 0.344687)
(0.0756669 0.0839316 0.225728)
(0.0514769 -0.0554616 0.187058)
(-0.0316514 -0.215731 0.281971)
(0 0 0)
(0 0 0)
(0.00474435 0.106851 0.201443)
(0.0444641 0.0880558 0.18609)
(-0.0905174 -0.101311 0.27254)
(-0.0460039 -0.190746 0.345312)
(0.0895894 -0.138417 0.268704)
(0 0 0)
(0.0420685 0.0854988 0.0607646)
(-0.153924 -0.0179098 0.245517)
(0.0381996 -0.000194146 0.563078)
(0 0 0)
(0 0 0)
(0 0 0)
(0 0 0)
(0 0 0)
(-0.0743141 -0.0385029 0.3822)
(0.090382 -0.0090583 0.425853)
(0 0 0)
(0 0 0)
(0 0 0)
(0 0 0)
(-0.0387701 -0.0297272 0.1904)
(-0.0522922 0.0806334 0.375458)
(0.0571091 0.0924923 0.25067)
(0 0 0)
(0 0 0)
(0 0 0)
(0 0 0)
(0.00203067 0.0963744 0.26111)
(0.0351644 0.121065 0.243273)
(-0.0730082 -0.0749694 0.42856)
(-0.0188811 -0.116266 0.423372)
(0 0 0)
(0 0 0)
(0 0 0)
(0 0 0)
(-0.056394 -0.0254605 0.572643)
(0 0 0)
(0 0 0)
(0 0 0)
(0 0 0)
(0 0 0)
(0 0 0)
(0 0 0)
(0 0 0)
(0 0 0)
(0 0 0)
(0 0 0)
(0 0 0)
(-0.0592478 0.0510619 0.326839)
(0 0 0)
(0 0 0)
(0 0 0)
(0 0 0)
(0 0 0)
(-0.0417077 0.105797 0.281293)
(0.0198135 0.111605 0.265918)
(0 0 0)
(0 0 0)
(0 0 0)
(0 0 0)
(0 0 0)
(0 0 0)
(0 0 0)
(0 0 0)
(0 0 0)
(0 0 0)
(0 0 0)
(0 0 0)
(0 0 0)
(0 0 0)
(0 0 0)
(0 0 0)
(0 0 0)
(0 0 0)
(0 0 0)
(0 0 0)
(0 0 0)
(0 0 0)
(0 0 0)
(0 0 0)
(0 0 0)
(0 0 0)
(0 0 0)
(0 0 0)
(0 0 0)
(0 0 0)
(0 0 0)
(0 0 0)
(0 0 0)
(0 0 0)
(0 0 0)
(0 0 0)
(0 0 0)
(0 0 0)
(0 0 0)
(0 0 0)
(0 0 0)
(0 0 0)
(0 0 0)
(0 0 0)
(0 0 0)
(0 0 0)
(0 0 0)
(0 0 0)
(0 0 0)
(0 0 0)
(0 0 0)
(0 0 0)
(0 0 0)
(0 0 0)
(0 0 0)
(0 0 0)
(0 0 0)
(0 0 0)
(0 0 0)
(0 0 0)
(0 0 0)
(0 0 0)
(0 0 0)
(0 0 0)
(0 0 0)
(0 0 0)
(0 0 0)
(0 0 0)
(0 0 0)
(0 0 0)
(0 0 0)
(0 0 0)
(0 0 0)
(0 0 0)
(0 0 0)
(0 0 0)
(0 0 0)
(0 0 0)
(0 0 0)
(0 0 0)
(0 0 0)
(0 0 0)
(0 0 0)
(0 0 0)
(0 0 0)
(0 0 0)
(0 0 0)
(0 0 0)
(0 0 0)
(0 0 0)
(0 0 0)
(0 0 0)
(0 0 0)
(0 0 0)
(0 0 0)
(0 0 0)
(0 0 0)
(0 0 0)
(0 0 0)
(0 0 0)
(0 0 0)
(0 0 0)
(0 0 0)
(0 0 0)
(0 0 0)
(0 0 0)
(0 0 0)
(0 0 0)
(0 0 0)
(0 0 0)
(0 0 0)
(0 0 0)
(0 0 0)
(0 0 0)
(0 0 0)
(0 0 0)
(0 0 0)
(0 0 0)
(0 0 0)
(0 0 0)
(0 0 0)
(0 0 0)
(0 0 0)
(0 0 0)
(0 0 0)
(0 0 0)
(0 0 0)
(0 0 0)
(0 0 0)
(0 0 0)
(0 0 0)
(0 0 0)
(0 0 0)
(0 0 0)
(0 0 0)
(0 0 0)
(0 0 0)
(0 0 0)
(0 0 0)
(0 0 0)
(0 0 0)
(0 0 0)
(0 0 0)
(0 0 0)
(0 0 0)
(0 0 0)
(0 0 0)
(0 0 0)
(0 0 0)
(0 0 0)
(0 0 0)
(0 0 0)
(0 0 0)
(0 0 0)
(0 0 0)
(0 0 0)
(0 0 0)
(0 0 0)
(0 0 0)
(0 0 0)
(0 0 0)
(0 0 0)
(0 0 0)
(0 0 0)
(0 0 0)
(0 0 0)
(0 0 0)
(0 0 0)
(0 0 0)
(0 0 0)
(0 0 0)
(0 0 0)
(0 0 0)
(0 0 0)
(0 0 0)
(0 0 0)
(0 0 0)
(0 0 0)
(0 0 0)
(0 0 0)
(0 0 0)
(0 0 0)
(0 0 0)
(0 0 0)
(0 0 0)
(0 0 0)
(0 0 0)
(0 0 0)
(0 0 0)
(0 0 0)
(0 0 0)
(0 0 0)
(0 0 0)
(0 0 0)
(0 0 0)
(0 0 0)
(0 0 0)
(0 0 0)
(0 0 0)
(0 0 0)
(0 0 0)
(0 0 0)
(0 0 0)
(0 0 0)
(0 0 0)
(0 0 0)
(0 0 0)
(0 0 0)
(0 0 0)
(0 0 0)
(0 0 0)
(0 0 0)
(0 0 0)
(0 0 0)
(0 0 0)
(0 0 0)
(0 0 0)
(0 0 0)
(0 0 0)
(0 0 0)
(0 0 0)
(0 0 0)
(0 0 0)
(0 0 0)
(0 0 0)
(0 0 0)
(0 0 0)
(0 0 0)
(0 0 0)
(0 0 0)
(0 0 0)
(0 0 0)
(0 0 0)
(0 0 0)
(0 0 0)
(0 0 0)
(0 0 0)
(0 0 0)
(0 0 0)
(0 0 0)
(0 0 0)
(0 0 0)
(0 0 0)
(0 0 0)
(0 0 0)
(0 0 0)
(0 0 0)
(0 0 0)
(0 0 0)
(0 0 0)
(0 0 0)
(0 0 0)
(0 0 0)
(0 0 0)
(0 0 0)
(0 0 0)
(0 0 0)
(0 0 0)
(0 0 0)
(0 0 0)
(0 0 0)
(0 0 0)
(0 0 0)
(0 0 0)
(0 0 0)
(0 0 0)
(0 0 0)
(0 0 0)
(0 0 0)
(0 0 0)
(0 0 0)
(0 0 0)
(0 0 0)
(0 0 0)
(0 0 0)
(0 0 0)
(0 0 0)
(0 0 0)
(0 0 0)
(0 0 0)
(0 0 0)
(0 0 0)
(0 0 0)
(0 0 0)
(0 0 0)
(0 0 0)
(0 0 0)
(0 0 0)
(0 0 0)
(0 0 0)
(0 0 0)
(0 0 0)
(0 0 0)
(0 0 0)
(0 0 0)
(0 0 0)
(0 0 0)
(0 0 0)
(0 0 0)
(0 0 0)
(0 0 0)
(0 0 0)
(0 0 0)
(0 0 0)
(0 0 0)
(0 0 0)
(0 0 0)
(0 0 0)
(0 0 0)
(0 0 0)
(0 0 0)
(0 0 0)
(0 0 0)
(0 0 0)
(0 0 0)
(0 0 0)
(0 0 0)
(0 0 0)
(0 0 0)
(0 0 0)
(0 0 0)
(0 0 0)
(0 0 0)
(0 0 0)
(0 0 0)
(0 0 0)
(0 0 0)
(0 0 0)
(0 0 0)
(0 0 0)
(0 0 0)
(0 0 0)
(0 0 0)
(0 0 0)
(0 0 0)
(0 0 0)
(0 0 0)
(0 0 0)
(0 0 0)
(0 0 0)
(0 0 0)
(0 0 0)
(0 0 0)
(0 0 0)
(0 0 0)
(0 0 0)
(0 0 0)
(0 0 0)
(0 0 0)
(0 0 0)
(0 0 0)
(0 0 0)
(0 0 0)
(0 0 0)
(0 0 0)
(0 0 0)
(0 0 0)
(0 0 0)
(0 0 0)
(0 0 0)
(0 0 0)
(0 0 0)
(0 0 0)
(0 0 0)
(0 0 0)
(0 0 0)
(0 0 0)
(0 0 0)
(0 0 0)
(0 0 0)
(0 0 0)
(0 0 0)
(0 0 0)
(0 0 0)
(0 0 0)
(0 0 0)
(0 0 0)
(0 0 0)
(0 0 0)
(0 0 0)
(0 0 0)
(0 0 0)
(0 0 0)
(0 0 0)
(0 0 0)
(0 0 0)
(0 0 0)
(0 0 0)
(0 0 0)
(0 0 0)
(0 0 0)
(0 0 0)
(0 0 0)
(0 0 0)
(0 0 0)
(0 0 0)
(0 0 0)
(0 0 0)
(0 0 0)
(0 0 0)
(0 0 0)
(0 0 0)
(0 0 0)
(0 0 0)
(0 0 0)
(0 0 0)
(0 0 0)
(0 0 0)
(0 0 0)
(0 0 0)
(0 0 0)
(0 0 0)
(0 0 0)
(0 0 0)
(0 0 0)
(0 0 0)
(0 0 0)
(0 0 0)
(0 0 0)
(0 0 0)
(0 0 0)
(0 0 0)
(0 0 0)
(0 0 0)
(0 0 0)
(0 0 0)
(0 0 0)
(0 0 0)
(0 0 0)
(0 0 0)
(0 0 0)
(0 0 0)
(0 0 0)
(0 0 0)
(0 0 0)
(0 0 0)
(0 0 0)
(0 0 0)
(0 0 0)
(0 0 0)
(0 0 0)
(0 0 0)
(0 0 0)
(0 0 0)
(0 0 0)
(0 0 0)
(0 0 0)
(0 0 0)
(0 0 0)
(0 0 0)
(0 0 0)
(0 0 0)
(0 0 0)
(0 0 0)
(0 0 0)
(0 0 0)
(0 0 0)
(0 0 0)
(0 0 0)
(0 0 0)
(0 0 0)
(0 0 0)
(0 0 0)
(0 0 0)
(0 0 0)
(0 0 0)
(0 0 0)
(0 0 0)
(0 0 0)
(0 0 0)
(0 0 0)
(0 0 0)
(0 0 0)
(0 0 0)
(0 0 0)
(0 0 0)
(0 0 0)
(0 0 0)
(0 0 0)
(0 0 0)
(0 0 0)
(0 0 0)
(0 0 0)
(0 0 0)
(0 0 0)
(0 0 0)
(0 0 0)
(0 0 0)
(0 0 0)
(0 0 0)
(0 0 0)
(0 0 0)
(0 0 0)
(0 0 0)
(0 0 0)
(0 0 0)
(0 0 0)
(0 0 0)
(0 0 0)
(0 0 0)
(0 0 0)
(0 0 0)
(0 0 0)
(0 0 0)
(0 0 0)
(0 0 0)
(0 0 0)
(0 0 0)
(0 0 0)
(0 0 0)
(0 0 0)
(0 0 0)
(0 0 0)
(0 0 0)
(0 0 0)
(0 0 0)
(0 0 0)
(0 0 0)
(0 0 0)
(0 0 0)
(0 0 0)
(0 0 0)
(0 0 0)
(0 0 0)
(0 0 0)
(0 0 0)
(0 0 0)
(0 0 0)
(0 0 0)
(0 0 0)
(0 0 0)
(0 0 0)
(0 0 0)
(0 0 0)
(0 0 0)
(0 0 0)
(0 0 0)
(0 0 0)
(0 0 0)
(0 0 0)
(0 0 0)
(0 0 0)
(0 0 0)
(0 0 0)
(0 0 0)
(0 0 0)
(0 0 0)
(0 0 0)
(0 0 0)
(0 0 0)
(0 0 0)
(0 0 0)
(0 0 0)
(0 0 0)
(0 0 0)
(0 0 0)
(0 0 0)
(0 0 0)
(0 0 0)
(0 0 0)
(0 0 0)
(0 0 0)
(0 0 0)
(0 0 0)
(0 0 0)
(0 0 0)
(0 0 0)
(0 0 0)
(0 0 0)
(0 0 0)
(0 0 0)
(0 0 0)
(0 0 0)
(0 0 0)
(0 0 0)
(0 0 0)
(0 0 0)
(0 0 0)
(0 0 0)
(0 0 0)
(0 0 0)
(0 0 0)
(0 0 0)
(0 0 0)
(0 0 0)
(0 0 0)
(0 0 0)
(0 0 0)
(0 0 0)
(0 0 0)
(0 0 0)
(0 0 0)
(0 0 0)
(0 0 0)
(0 0 0)
(0 0 0)
(0 0 0)
(0 0 0)
(0 0 0)
(0 0 0)
(0 0 0)
(0 0 0)
(0 0 0)
(0 0 0)
(0 0 0)
(0 0 0)
(0 0 0)
(0 0 0)
(0 0 0)
(0 0 0)
(0 0 0)
(0 0 0)
(0 0 0)
(0 0 0)
(0 0 0)
(0 0 0)
(0 0 0)
(0 0 0)
(0 0 0)
(0 0 0)
(0 0 0)
(0 0 0)
(0 0 0)
(0 0 0)
(0 0 0)
(0 0 0)
(0 0 0)
(0 0 0)
(0 0 0)
(0 0 0)
(0 0 0)
(0 0 0)
(0 0 0)
(0 0 0)
(0 0 0)
(0 0 0)
(0 0 0)
(0 0 0)
(0 0 0)
(0 0 0)
(0 0 0)
(0 0 0)
(0 0 0)
(0 0 0)
(0 0 0)
(0 0 0)
(0 0 0)
(0 0 0)
(0 0 0)
(0 0 0)
(0 0 0)
(0 0 0)
(0 0 0)
(0 0 0)
(0 0 0)
(0 0 0)
(0 0 0)
(0 0 0)
(0 0 0)
(0 0 0)
(0 0 0)
(0 0 0)
(0 0 0)
(0 0 0)
(0 0 0)
(0 0 0)
(0 0 0)
(0 0 0)
(0 0 0)
(0 0 0)
(0 0 0)
(0 0 0)
(0 0 0)
(0 0 0)
(0 0 0)
(0 0 0)
(0 0 0)
(0 0 0)
(0 0 0)
(0 0 0)
(0 0 0)
(0 0 0)
(0 0 0)
(0 0 0)
(0 0 0)
(0 0 0)
(0 0 0)
(0 0 0)
(0 0 0)
(0 0 0)
(0 0 0)
(0 0 0)
(0 0 0)
(0 0 0)
(0 0 0)
(0 0 0)
(0 0 0)
(0 0 0)
(0 0 0)
(0 0 0)
(0 0 0)
(0 0 0)
(0 0 0)
(0 0 0)
(0 0 0)
(0 0 0)
(0 0 0)
(0 0 0)
(0 0 0)
(0 0 0)
(0 0 0)
(0 0 0)
(0 0 0)
(0 0 0)
(0 0 0)
(0 0 0)
(0 0 0)
(0 0 0)
(0 0 0)
(0 0 0)
(0 0 0)
(0 0 0)
(0 0 0)
(0 0 0)
(0 0 0)
(0 0 0)
(0 0 0)
(0 0 0)
(0 0 0)
(0 0 0)
(0 0 0)
(0 0 0)
(0 0 0)
(0 0 0)
(0 0 0)
(0 0 0)
(0 0 0)
(0 0 0)
(0 0 0)
(0 0 0)
(0 0 0)
(0 0 0)
(0 0 0)
(0 0 0)
(0 0 0)
(0 0 0)
(0 0 0)
(0 0 0)
(0 0 0)
(0 0 0)
(0 0 0)
(0 0 0)
(0 0 0)
(0 0 0)
(0 0 0)
(0 0 0)
(0 0 0)
(0 0 0)
(0 0 0)
(0 0 0)
(0 0 0)
(0 0 0)
(0 0 0)
(0 0 0)
(0 0 0)
(0 0 0)
(0 0 0)
(0 0 0)
(0 0 0)
(0 0 0)
(0 0 0)
(0 0 0)
(0 0 0)
(0 0 0)
(0 0 0)
(0 0 0)
(0 0 0)
(0 0 0)
(0 0 0)
(0 0 0)
(0 0 0)
(0 0 0)
(0 0 0)
(0 0 0)
(0 0 0)
(0 0 0)
(0 0 0)
(0 0 0)
(0 0 0)
(0 0 0)
(0 0 0)
(0 0 0)
(0 0 0)
(0 0 0)
(0 0 0)
(0 0 0)
(0 0 0)
(0 0 0)
(0 0 0)
(0 0 0)
(0 0 0)
(0 0 0)
(0 0 0)
(0 0 0)
(0 0 0)
(0 0 0)
(0 0 0)
(0 0 0)
(0 0 0)
(0 0 0)
(0 0 0)
(0 0 0)
(0 0 0)
(0 0 0)
(0 0 0)
(0 0 0)
(0 0 0)
(0 0 0)
(0 0 0)
(0 0 0)
(0 0 0)
(0 0 0)
(0 0 0)
(0 0 0)
(0 0 0)
(0 0 0)
(0 0 0)
(0 0 0)
(0 0 0)
(0 0 0)
(0 0 0)
(0 0 0)
(0 0 0)
(0 0 0)
(0 0 0)
(0 0 0)
(0 0 0)
(0 0 0)
(0 0 0)
(0 0 0)
(0 0 0)
(0 0 0)
(0 0 0)
(0 0 0)
(0 0 0)
(0 0 0)
(0 0 0)
(0 0 0)
(0 0 0)
(0 0 0)
(0 0 0)
(0 0 0)
(0 0 0)
(0 0 0)
(0 0 0)
(0 0 0)
(0 0 0)
(0 0 0)
(0 0 0)
(0 0 0)
(0 0 0)
(0 0 0)
(0 0 0)
(0 0 0)
(0 0 0)
(0 0 0)
(0 0 0)
(0 0 0)
(0 0 0)
(0 0 0)
(0 0 0)
(0 0 0)
(0 0 0)
(0 0 0)
(0 0 0)
(0 0 0)
(0 0 0)
(0 0 0)
(0 0 0)
(0 0 0)
(0 0 0)
(0 0 0)
(0 0 0)
(0 0 0)
(0 0 0)
(0 0 0)
(0 0 0)
(0 0 0)
(0 0 0)
(0 0 0)
(0 0 0)
(0 0 0)
(0 0 0)
(0 0 0)
(0 0 0)
(0 0 0)
(0 0 0)
(0 0 0)
(0 0 0)
(0 0 0)
(0 0 0)
(0 0 0)
(0 0 0)
(0 0 0)
(0 0 0)
(0 0 0)
(0 0 0)
(0 0 0)
(0 0 0)
(0 0 0)
(0 0 0)
(0 0 0)
(0 0 0)
(0 0 0)
(0 0 0)
(0 0 0)
(0 0 0)
(0 0 0)
(0 0 0)
(0 0 0)
(0 0 0)
(0 0 0)
(0 0 0)
(0 0 0)
(0 0 0)
(0 0 0)
(0 0 0)
(0 0 0)
(0 0 0)
(0 0 0)
(0 0 0)
(0 0 0)
(0 0 0)
(0 0 0)
(0 0 0)
(0 0 0)
(0 0 0)
(0 0 0)
(0 0 0)
(0 0 0)
(0 0 0)
(0 0 0)
(0 0 0)
(0 0 0)
(0 0 0)
(0 0 0)
(0 0 0)
(0 0 0)
(0 0 0)
(0 0 0)
(0 0 0)
(0 0 0)
(0 0 0)
(0 0 0)
(0 0 0)
(0 0 0)
(0 0 0)
(0 0 0)
(0 0 0)
(0 0 0)
(0 0 0)
(0 0 0)
(0 0 0)
(0 0 0)
(0 0 0)
(0 0 0)
(0 0 0)
(0 0 0)
(0 0 0)
(0 0 0)
(0 0 0)
(0 0 0)
(0 0 0)
(0 0 0)
(0 0 0)
(0 0 0)
(0 0 0)
(0 0 0)
(0 0 0)
(0 0 0)
(0 0 0)
(0 0 0)
(0 0 0)
(0 0 0)
(0 0 0)
(0 0 0)
(0 0 0)
(0 0 0)
(0 0 0)
(0 0 0)
(0 0 0)
(0 0 0)
(0 0 0)
(0 0 0)
(0 0 0)
(0 0 0)
(0 0 0)
(0 0 0)
(0 0 0)
(0 0 0)
(0 0 0)
(0 0 0)
(0 0 0)
(0 0 0)
(0 0 0)
(0 0 0)
(0 0 0)
(0 0 0)
(0 0 0)
(0 0 0)
(0 0 0)
(0 0 0)
(0 0 0)
(0 0 0)
(0 0 0)
(0 0 0)
(0 0 0)
(0 0 0)
(0 0 0)
(0 0 0)
(0 0 0)
(0 0 0)
(0 0 0)
(0 0 0)
(0 0 0)
(0 0 0)
(0 0 0)
(0 0 0)
(0 0 0)
(0 0 0)
(0 0 0)
(0 0 0)
(0 0 0)
(0 0 0)
(0 0 0)
(0 0 0)
(0 0 0)
(0 0 0)
(0 0 0)
(0 0 0)
(0 0 0)
(0 0 0)
(0 0 0)
(0 0 0)
(0 0 0)
(0 0 0)
(0 0 0)
(0 0 0)
(0 0 0)
(0 0 0)
(0 0 0)
(0 0 0)
(0 0 0)
(0 0 0)
(0 0 0)
(0 0 0)
(0 0 0)
(0 0 0)
(0 0 0)
(0 0 0)
(0 0 0)
(0 0 0)
(0 0 0)
(0 0 0)
(0 0 0)
(0 0 0)
(0 0 0)
(0 0 0)
(0 0 0)
(0 0 0)
(0 0 0)
(0 0 0)
(0 0 0)
(0 0 0)
(0 0 0)
(0 0 0)
(0 0 0)
(0 0 0)
(0 0 0)
(0 0 0)
(0 0 0)
(0 0 0)
(0 0 0)
(0 0 0)
(0 0 0)
(0 0 0)
(0 0 0)
(0 0 0)
(0 0 0)
(0 0 0)
(0 0 0)
(0 0 0)
(0 0 0)
(0 0 0)
(0 0 0)
(0 0 0)
(0 0 0)
(0 0 0)
(0 0 0)
(0 0 0)
(0 0 0)
(0 0 0)
(0 0 0)
(0 0 0)
(0 0 0)
(0 0 0)
(0 0 0)
(0 0 0)
(0 0 0)
(0 0 0)
(0 0 0)
(0 0 0)
(0 0 0)
(0 0 0)
(0 0 0)
(0 0 0)
(0 0 0)
(0 0 0)
(0 0 0)
(0 0 0)
(0 0 0)
(0 0 0)
(0 0 0)
(0 0 0)
(0 0 0)
(0 0 0)
(0 0 0)
(0 0 0)
(0 0 0)
(0 0 0)
(0 0 0)
(0 0 0)
(0 0 0)
(0 0 0)
(0 0 0)
(0 0 0)
(0 0 0)
(0 0 0)
(0 0 0)
(0 0 0)
(0 0 0)
(0 0 0)
(0 0 0)
(0 0 0)
(0 0 0)
(0 0 0)
(0 0 0)
(0 0 0)
(0 0 0)
(0 0 0)
(0 0 0)
(0 0 0)
(0 0 0)
(0 0 0)
(0 0 0)
(0 0 0)
(0 0 0)
(0 0 0)
(0 0 0)
(0 0 0)
(0 0 0)
(0 0 0)
(0 0 0)
(0 0 0)
(0 0 0)
(0 0 0)
(0 0 0)
(0 0 0)
(0 0 0)
(0 0 0)
(0 0 0)
(0 0 0)
(0 0 0)
(0 0 0)
(0 0 0)
(0 0 0)
(0 0 0)
(0 0 0)
(0 0 0)
(0 0 0)
(0 0 0)
(0 0 0)
(0 0 0)
(0 0 0)
(0 0 0)
(0 0 0)
(0 0 0)
(0 0 0)
(0 0 0)
(0 0 0)
(0 0 0)
(0 0 0)
(0 0 0)
(0 0 0)
(0 0 0)
(0 0 0)
(0 0 0)
(0 0 0)
(0 0 0)
(0 0 0)
(0 0 0)
(0 0 0)
(0 0 0)
(0 0 0)
(0 0 0)
(0 0 0)
(0 0 0)
(0 0 0)
(0 0 0)
(0 0 0)
(0 0 0)
(0 0 0)
(0 0 0)
(0 0 0)
(0 0 0)
(0 0 0)
(0 0 0)
(0 0 0)
(0 0 0)
(0 0 0)
(0 0 0)
(0 0 0)
(0 0 0)
(0 0 0)
(0 0 0)
(0 0 0)
(0 0 0)
(0 0 0)
(0 0 0)
(0 0 0)
(0 0 0)
(0 0 0)
(0 0 0)
(0 0 0)
(0 0 0)
(0 0 0)
(0 0 0)
(0 0 0)
(0 0 0)
(0 0 0)
(0 0 0)
(0 0 0)
(0 0 0)
(0 0 0)
(0 0 0)
(0 0 0)
(0 0 0)
(0 0 0)
(0 0 0)
(0 0 0)
(0 0 0)
(0 0 0)
(0 0 0)
(0 0 0)
(0 0 0)
(0 0 0)
(0 0 0)
(0 0 0)
(0 0 0)
(0 0 0)
(0 0 0)
(0 0 0)
(0 0 0)
(0 0 0)
(0 0 0)
(0 0 0)
(0 0 0)
(0 0 0)
(0 0 0)
(0 0 0)
(0 0 0)
(0 0 0)
(0 0 0)
(0 0 0)
(0 0 0)
(0 0 0)
(0 0 0)
(0 0 0)
(0 0 0)
(0 0 0)
(0 0 0)
(0 0 0)
(0 0 0)
(0 0 0)
(0 0 0)
(0 0 0)
(0 0 0)
(0 0 0)
(0 0 0)
(0 0 0)
(0 0 0)
(0 0 0)
(0 0 0)
(0 0 0)
(0 0 0)
(0 0 0)
(0 0 0)
(0 0 0)
(0 0 0)
(0 0 0)
(0 0 0)
(0 0 0)
(0 0 0)
(0 0 0)
(0 0 0)
(0 0 0)
(0 0 0)
(0 0 0)
(0 0 0)
(0 0 0)
(0 0 0)
(0 0 0)
(0 0 0)
(0 0 0)
(0 0 0)
(0 0 0)
(0 0 0)
(0 0 0)
(0 0 0)
(0 0 0)
(0 0 0)
(0 0 0)
(0 0 0)
(0 0 0)
(0 0 0)
(0 0 0)
(0 0 0)
(0 0 0)
(0 0 0)
(0 0 0)
(0 0 0)
(0 0 0)
(0 0 0)
(0 0 0)
(0 0 0)
(0 0 0)
(0 0 0)
(0 0 0)
(0 0 0)
(0 0 0)
(0 0 0)
(0 0 0)
(0 0 0)
(0 0 0)
(0 0 0)
(0 0 0)
(0 0 0)
(0 0 0)
(0 0 0)
(0 0 0)
(0 0 0)
(0 0 0)
(0 0 0)
(0 0 0)
(0 0 0)
(0 0 0)
(0 0 0)
(0 0 0)
(0 0 0)
(0 0 0)
(0 0 0)
(0 0 0)
(0 0 0)
(0 0 0)
(0 0 0)
(0 0 0)
(0 0 0)
(0 0 0)
(0 0 0)
(0 0 0)
(0 0 0)
(0 0 0)
(0 0 0)
(0 0 0)
(0 0 0)
(0 0 0)
(0 0 0)
(0 0 0)
(0 0 0)
(0 0 0)
(0 0 0)
(0 0 0)
(0 0 0)
(0 0 0)
(0 0 0)
(0 0 0)
(0 0 0)
(0 0 0)
(0 0 0)
(0 0 0)
(0 0 0)
(0 0 0)
(0 0 0)
(0 0 0)
(0 0 0)
(0 0 0)
(0 0 0)
(0 0 0)
(0 0 0)
(0 0 0)
(0 0 0)
(0 0 0)
(0 0 0)
(0 0 0)
(0 0 0)
(0 0 0)
(0 0 0)
(0 0 0)
(0 0 0)
(0 0 0)
(0 0 0)
(0 0 0)
(0 0 0)
(0 0 0)
(0 0 0)
(0 0 0)
(0 0 0)
(0 0 0)
(0 0 0)
(0 0 0)
(0 0 0)
(0 0 0)
(0 0 0)
(0 0 0)
(0 0 0)
(0 0 0)
(0 0 0)
(0 0 0)
(0 0 0)
(0 0 0)
(0 0 0)
(0 0 0)
(0 0 0)
(0 0 0)
(0 0 0)
(0 0 0)
(0 0 0)
(0 0 0)
(0 0 0)
(0 0 0)
(0 0 0)
(0 0 0)
(0 0 0)
(0 0 0)
(0 0 0)
(0 0 0)
(0 0 0)
(0 0 0)
(0 0 0)
(0 0 0)
(0 0 0)
(0 0 0)
(0 0 0)
(0 0 0)
(0 0 0)
(0 0 0)
(0 0 0)
(0 0 0)
(0 0 0)
(0 0 0)
(0 0 0)
(0 0 0)
(0 0 0)
(0 0 0)
(0 0 0)
(0 0 0)
(0 0 0)
(0 0 0)
(0 0 0)
(0 0 0)
(0 0 0)
(0 0 0)
(0 0 0)
(0 0 0)
(0 0 0)
(0 0 0)
(0 0 0)
(0 0 0)
(0 0 0)
(0 0 0)
(0 0 0)
(0 0 0)
(0 0 0)
(0 0 0)
(0 0 0)
(0 0 0)
(0 0 0)
(0 0 0)
(0 0 0)
(0 0 0)
(0 0 0)
(0 0 0)
(0 0 0)
(0 0 0)
(0 0 0)
(0 0 0)
(0 0 0)
(0 0 0)
(0 0 0)
(0 0 0)
(0 0 0)
(0 0 0)
(0 0 0)
(0 0 0)
(0 0 0)
(0 0 0)
(0 0 0)
(0 0 0)
(0 0 0)
(0 0 0)
(0 0 0)
(0 0 0)
(0 0 0)
(0 0 0)
(0 0 0)
(0 0 0)
(0 0 0)
(0 0 0)
(0 0 0)
(0 0 0)
(0 0 0)
(0 0 0)
(0 0 0)
(0 0 0)
(0 0 0)
(0 0 0)
(0 0 0)
(0 0 0)
(0 0 0)
(0 0 0)
(0 0 0)
(0 0 0)
(0 0 0)
(0 0 0)
(0 0 0)
(0 0 0)
(0 0 0)
(0 0 0)
(0 0 0)
(0 0 0)
(0 0 0)
(0 0 0)
(0 0 0)
(0 0 0)
(0 0 0)
(0 0 0)
(0 0 0)
(0 0 0)
(0 0 0)
(0 0 0)
(0 0 0)
(0 0 0)
(0 0 0)
(0 0 0)
(0 0 0)
(0 0 0)
(0 0 0)
(0 0 0)
(0 0 0)
(0 0 0)
(0 0 0)
(0 0 0)
(0 0 0)
(0 0 0)
(0 0 0)
(0 0 0)
(0 0 0)
(0 0 0)
(0 0 0)
(0 0 0)
(0 0 0)
(0 0 0)
(0 0 0)
(0 0 0)
(0 0 0)
(0 0 0)
(0 0 0)
(0 0 0)
(0 0 0)
(0 0 0)
(0 0 0)
(0 0 0)
(0 0 0)
(0 0 0)
(0 0 0)
(0 0 0)
(0 0 0)
(0 0 0)
(0 0 0)
(0 0 0)
(0 0 0)
(0 0 0)
(0 0 0)
(0 0 0)
(0 0 0)
(0 0 0)
(0 0 0)
(0 0 0)
(0 0 0)
(-0.013579 0.0230133 -0.00875489)
(-0.0194022 0.00036304 -0.0132216)
(-0.0264675 0.0188705 -0.00915732)
(-0.0253967 0.0226916 -0.0133125)
(-0.0180479 0.00357543 -0.0154653)
(-0.0277096 0.0122449 -0.0117057)
(-0.0150588 0.00922463 -0.0103148)
(-0.00500385 0.00506661 -0.00511452)
(0.00830993 0.0122137 -0.00299788)
(-0.00140906 0.0277712 -0.00539897)
(0.000922765 0.0284915 0.000617723)
(0.0115843 0.0139699 0.00403141)
(0.00383336 0.0187106 0.00251473)
(-0.021181 0.0419813 -0.00175202)
(-0.0548641 0.0437906 -0.00493712)
(-0.0224295 0.0356433 0.00466485)
(-0.0569622 0.0527455 -0.00268301)
(-0.0476007 0.0356662 -0.00942807)
(-0.0248776 0.0277694 -0.00646567)
(-0.0495635 0.0531323 -0.0130884)
(-0.0315484 0.042949 -0.00643038)
(-0.0107464 0.0149269 -0.00662367)
(-0.00472912 0.00703535 -0.00679017)
(-0.0194409 0.0281267 -0.00644825)
(-0.00871143 0.0121259 -0.00447567)
(-0.0027254 0.00524757 -0.00460143)
(0.0165863 0.0107442 0.0019868)
(-0.0170812 -0.0060048 0.00605453)
(-0.0114035 -0.00522104 0.0020755)
(0.0191919 -0.0102447 0.00784732)
(0.00352233 0.0040673 0.00187053)
(0.0131922 -0.0365014 0.0171006)
(0.0118544 -0.0104382 0.00184897)
(-0.0195199 0.0274725 0.00258377)
(-0.0477383 0.0524257 0.000459052)
(-0.00280076 0.00873673 0.00284685)
(-0.0322418 0.0338062 0.00782057)
(-0.0579324 0.0561572 -0.00716623)
(-0.0404572 0.0470478 -0.00900054)
(-0.0647958 0.056554 -0.00537343)
(-0.0445114 0.0493612 -0.00458822)
(-0.0245959 0.0366735 -0.00664466)
(-0.0133288 0.0273576 -0.00768706)
(-0.0260973 0.0377251 -0.00833634)
(-0.00970583 0.0351035 -0.00456486)
(-0.00403132 0.016996 -0.00622986)
(-0.00228759 0.0147231 -0.00664216)
(-0.00487893 0.0143705 -0.0327039)
(-0.0309404 -0.0238412 0.0128987)
(-0.0374832 -0.0343453 0.00697058)
(-0.00516572 -0.0208433 -0.00770275)
(-0.00325794 -0.034819 0.0112383)
(0.0347777 -0.0259258 0.0108642)
(0.0063222 0.0361987 -0.00281072)
(0.0418531 0.000405578 0.00224887)
(0.0180269 -0.0109372 0.00374508)
(-0.00500648 0.000684994 0.00497397)
(0.0283013 -0.0276032 0.0098265)
(0.00895288 -0.0210789 0.00202171)
(-0.0382177 0.0174414 0.0018188)
(-0.0485765 0.0411345 -0.00472644)
(-0.0129295 -0.0200044 0.000909668)
(-0.0245079 -0.0171509 0.00352495)
(-0.0342743 0.0367667 -0.00432048)
(-0.0187135 0.0293167 -0.00381639)
(-0.0280523 -0.0109099 0.00133239)
(-0.0375305 -0.0165793 0.00357254)
(-0.0229749 -0.00892158 -0.0097529)
(-0.0116007 -0.00136419 -0.0178586)
(-0.035947 -0.00460317 -0.010768)
(0.0107148 0.00859394 -0.00635603)
(0.00748908 0.0258513 0.00422259)
(-0.0306035 0.0433459 -0.00808676)
(0.0165728 0.00667274 -0.00589698)
(0.0216277 0.040287 0.005583)
(-0.0473633 0.016993 -0.0241044)
(-0.00116178 -0.022239 -0.0128142)
(0.011635 0.0516576 0.0074248)
(-0.0254587 0.0478764 -0.0027607)
(0.00688808 -0.0267966 -0.00331863)
(-0.00962899 -0.0348807 0.00194261)
(-0.0411829 0.0177272 -0.00490499)
(-0.0381476 -0.0249462 -0.00868737)
(-0.0273294 -0.0476034 0.00622609)
(-0.0306157 -0.0335065 0.00398697)
(-0.0289984 -0.0427657 -0.0133662)
(-0.0105893 -0.0244355 -0.0124534)
(-0.018303 0.00595597 -0.0059397)
(0.0346587 0.0206405 -0.00474705)
(0.0384363 0.0417314 0.00115016)
(0.0173155 0.0529814 0.000795333)
(0.00801476 0.0313526 -0.00660923)
(-0.0111952 0.0311829 0.000829678)
(-0.0534403 0.0131099 -0.00531342)
(0.0191019 0.0361251 -0.00960968)
(-0.0419116 -0.00699641 -0.0177653)
(-0.0813584 0.0575115 -0.0872205)
(-0.120487 0.0528506 -0.201976)
(-0.0782069 0.00739832 -0.207767)
(-0.117537 0.0324539 -0.152141)
(-0.0941632 0.01816 -0.18138)
(-0.0744204 0.00739016 -0.203789)
(-0.119115 0.0367483 -0.199445)
(-0.101279 0.0198584 -0.1906)
(-0.0617671 -0.00175449 -0.211344)
(-0.0453915 -0.00484103 -0.221151)
(-0.066186 -0.00500008 -0.201114)
(-0.0790882 0.00242107 -0.179966)
(-0.0467253 -0.00523582 -0.191254)
(-0.0173914 -0.00630365 -0.173696)
(-0.0247374 -0.0121472 -0.191609)
(-0.0246275 0.0602724 -0.0259333)
(-0.0495139 0.0664217 -0.183654)
(-0.0758286 0.0823357 -0.0564551)
(-0.0412695 0.0940583 -0.0111548)
(-0.0760097 0.0784027 -0.0321592)
(-0.0775142 0.0801409 -0.163647)
(-0.135276 0.063191 -0.192841)
(-0.0938774 0.0867961 -0.162782)
(-0.155239 0.0876727 -0.164131)
(-0.00601657 0.0116353 -0.0559146)
(-0.00545212 0.00594038 -0.208224)
(0.0215623 0.0141851 -0.209761)
(-0.0155516 0.00171169 -0.18098)
(0.00228868 0.0150152 -0.184244)
(-0.0139762 0.0116811 -0.175293)
(0.0242471 0.0202315 -0.174908)
(0.0194545 0.0266579 -0.179362)
(0.0254031 0.0320918 -0.182676)
(-0.0269478 0.0680489 -0.0170361)
(-0.0692029 0.0444889 -0.00261437)
(-0.0810313 0.036362 -0.0206693)
(-0.0549914 0.070722 -0.173859)
(-0.00162676 0.0535692 -0.0895645)
(-0.0767548 0.0504035 -0.098596)
(0.061089 0.0749739 -0.185986)
(0.0189699 0.0894423 -0.158732)
(0.047457 0.0584576 -0.154436)
(0.0644724 0.0892772 -0.129447)
(0.0233492 0.10693 -0.13219)
(-0.105723 -0.073276 -7.61435e-05)
(-0.0473384 -0.0805721 -0.0503133)
(-0.0254957 -0.0647279 0.0522474)
(-0.107792 -0.0303614 -0.0368491)
(-0.0591668 -0.0700315 -0.0763667)
(-0.0163561 0.0502702 -0.0903811)
(-0.0346126 0.0734935 -0.0574795)
(0.0185317 0.13131 -0.132101)
(-0.0129769 0.112455 -0.139929)
(-0.00875366 0.121346 -0.109876)
(-0.0300349 -0.0378891 -0.0975178)
(-0.0415035 -0.0481096 -0.119905)
(-0.0533477 0.0425513 -0.0751565)
(0.0386258 0.0283197 -0.0786167)
(0.0619931 0.0871623 -0.0877646)
(-0.0613761 0.0151863 -0.114052)
(-0.0431793 0.0236513 -0.0979619)
(0.0269128 0.0227238 -0.156093)
(0.0507269 0.0263582 -0.154824)
(-0.0175091 0.0290735 -0.0408642)
(-0.0412966 0.00404068 -0.0586757)
(-0.0210343 0.0066909 -0.0356889)
(-0.0331115 0.0807566 -0.138035)
(-0.0141488 0.0615903 -0.05912)
(-0.0372816 0.0217411 -0.0842379)
(-0.0289843 0.023983 -0.0578069)
(-0.0415316 0.0851424 -0.0625839)
(0.0747511 0.0546404 -0.0687511)
(0.0337902 0.0250797 -0.186201)
(0.0856717 0.0891459 -0.0471269)
(0.14126 0.0334192 -0.130201)
(0.0853426 -0.00261921 -0.16955)
(0.114603 0.0133839 -0.129466)
(0.149037 0.035948 -0.103442)
(-0.0689121 0.0420233 -0.0538882)
(0.115667 0.0397674 -0.0914677)
(0.102247 0.0377081 -0.0877348)
(-0.034993 0.030674 -0.0660499)
(0.162626 0.0193798 -0.0991206)
(-0.0328191 0.0172429 -0.0741527)
(-0.0959467 0.0443199 -0.158301)
(-0.076048 0.0369097 -0.109404)
(-0.0693716 0.008351 -0.151027)
(-0.102395 0.0338775 -0.142394)
(-0.0948525 0.0228847 -0.13538)
(-0.0495817 0.00815515 -0.104239)
(-0.0868089 0.0200956 -0.0954076)
(-0.0868584 0.0115265 -0.0815139)
(-0.0737154 0.00232364 -0.119136)
(-0.0485017 -0.00574402 -0.115516)
(-0.0496413 -0.00240766 -0.0931775)
(-0.071185 -0.00567915 -0.060338)
(-0.0512181 -0.0152591 -0.0586346)
(-0.0294738 -0.0138395 -0.111361)
(-0.0381598 -0.0159978 -0.0521319)
(-0.0353526 0.0542196 -0.18551)
(-0.0222397 0.0385358 -0.145411)
(-0.119839 0.0590205 -0.145159)
(-0.114543 0.0859846 -0.140286)
(-0.148388 0.0791491 -0.119883)
(-0.0699736 0.0536551 -0.119255)
(-0.100198 0.0584531 -0.0887394)
(-0.086684 0.0791089 -0.100159)
(-0.134599 0.0693244 -0.0546315)
(0.00235996 0.0182662 -0.104707)
(-0.0109367 0.0215037 -0.106603)
(0.0259634 0.0284006 -0.100361)
(-0.0300244 -0.00595069 -0.019617)
(-0.0115154 0.00596873 -0.0256838)
(-0.0230101 0.0269252 -0.0179772)
(0.0248437 0.0218195 -0.0107952)
(0.0226176 0.0299496 -0.11686)
(0.023339 0.0357874 -0.0273787)
(-0.0385313 0.0623657 -0.181696)
(0.00653979 0.0618713 -0.068113)
(-0.0285242 0.0850678 -0.157551)
(-0.03068 0.0541366 -0.136736)
(0.012709 0.0498107 -0.0163095)
(-0.0171303 0.0805893 -0.123396)
(0.0575207 0.107739 -0.0542399)
(0.056905 0.134088 -0.0376656)
(0.0415255 0.0726081 -0.0179455)
(0.0599907 0.116016 0.00831954)
(0.0527295 0.142992 0.0251245)
(-0.0576905 0.0505456 -0.0999305)
(-0.0498357 -0.046424 -0.121187)
(0.0221331 0.0574543 0.0277909)
(0.00643926 0.0826637 -0.0963807)
(-0.0253717 -0.0261876 -0.124594)
(-0.00524607 0.13333 -0.0751414)
(-0.00605084 0.137304 -0.0925012)
(0.0320208 0.123985 -0.023988)
(-0.00273186 0.135092 -0.00704958)
(0.00814798 0.102754 -0.0227099)
(-0.0385092 -0.0386257 -0.127085)
(-0.0271973 -0.0286926 -0.110371)
(-0.057481 0.0247308 -0.106069)
(0.00739157 -0.00372555 -0.155523)
(0.0282131 -0.0143729 -0.15493)
(-0.0502362 0.0123597 -0.104079)
(-0.0728795 0.0363626 -0.0883075)
(-0.0159422 -0.00335423 -0.133976)
(-0.00647758 -0.0147602 -0.130921)
(-0.0169149 0.155132 -0.0871739)
(-0.0127687 0.0403594 -0.0940737)
(-0.0425595 0.0766421 -0.087285)
(-0.0477104 0.0938265 -0.0972934)
(-0.0353207 0.128014 -0.0540858)
(0.05758 0.00896136 -0.0555833)
(-0.0590946 0.0886976 -0.0892733)
(-0.0654776 0.097421 -0.0123005)
(0.0104873 -0.000399146 -0.176535)
(-0.0111148 -0.0126071 -0.159028)
(0.0973263 -0.015085 -0.114336)
(0.127477 0.0165931 -0.101299)
(0.0375212 -0.0489189 -0.113222)
(0.057982 -0.0224176 -0.0891357)
(0.123079 0.0209132 0.013247)
(0.0344304 0.0138038 -0.0535514)
(0.196916 0.0191834 0.00767481)
(0.150263 -0.0166837 0.0264917)
(0.120806 0.000311461 -0.00508738)
(0.152012 0.0071791 0.0461848)
(0.092054 -0.0342348 -0.0385563)
(-0.0472262 0.0272281 -0.0651607)
(-0.00427074 0.0139184 -0.0235061)
(-0.0155266 0.000837706 -0.0679781)
(-0.0596646 0.0051486 -0.0528402)
(-0.0520612 -0.0063979 -0.0419709)
(0.0192675 -0.0060825 -0.0373454)
(-0.0171723 -0.0021651 -0.0109637)
(-0.0079061 -0.0258248 -0.00107397)
(-0.0398162 -0.015188 -0.0213541)
(-0.0266265 -0.020773 -0.0165349)
(0.0119105 -0.00550366 -0.0224513)
(0.00263769 -0.025998 0.0188404)
(0.00708638 -0.0305377 0.0219113)
(-0.0263236 -0.0193109 -0.0156151)
(-0.00181806 -0.0236563 0.0228348)
(-0.004873 0.0190125 -0.114145)
(0.00268726 0.00784298 -0.0810463)
(-0.0783568 0.0571877 -0.0330363)
(-0.0526481 0.0702763 -0.0528093)
(-0.123486 0.0702895 0.00725903)
(-0.0229411 0.0323435 -0.0347063)
(-0.0578417 0.04664 0.0111017)
(-0.0240953 0.0593366 -0.0113037)
(-0.112555 0.0700366 0.0641543)
(-0.0280002 -0.0236417 0.0162894)
(-0.0342234 0.00435996 0.0537937)
(-0.00260177 0.00504618 0.0649414)
(-0.0138507 -0.0541405 0.0510836)
(-0.0370058 -0.0548064 0.0405575)
(-0.0223039 -0.0404832 0.0686048)
(-0.0432232 -0.0518929 0.0671474)
(0.00852909 0.0171447 0.0425917)
(-0.0370862 -0.0441344 0.0661456)
(-0.0194822 0.0400685 -0.0965248)
(0.0304144 0.0434485 0.0204947)
(-0.00748215 0.0691541 -0.0832634)
(-0.0016977 0.0146149 -0.0628867)
(0.035758 0.018822 0.045355)
(0.0110737 0.0516733 -0.0417488)
(0.0169367 0.104755 0.0597348)
(0.043849 0.126233 0.079568)
(-0.0309493 0.0290573 0.123786)
(-0.0391199 0.0682505 0.109143)
(0 0 0)