/*--------------------------------*- C++ -*----------------------------------*\
| =========                 |                                                 |
| \\      /  F ield         | OpenFOAM: The Open Source CFD Toolbox           |
|  \\    /   O peration     | Version:  5.x                                   |
|   \\  /    A nd           | Web:      www.OpenFOAM.org                      |
|    \\/     M anipulation  |                                                 |
\*---------------------------------------------------------------------------*/
FoamFile
{
    version     2.0;
    format      ascii;
    class       volVectorField;
    location    "4.25";
    object      Us;
}
// * * * * * * * * * * * * * * * * * * * * * * * * * * * * * * * * * * * * * //

dimensions      [0 1 -1 0 0 0 0];

internalField   nonuniform List<vector> 
10571
(
(0.0207105 0.0330798 -0.0564902)
(0.048048 0.0225905 -0.125559)
(0.125369 0.0626269 0.0295262)
(-0.0128191 0.212105 0.173966)
(-0.0679177 0.113327 -0.0256878)
(0.0875224 0.0649195 -0.179527)
(0.205875 -0.171301 -0.136136)
(-0.260315 0.165675 0.186141)
(-0.2569 0.193556 0.0584111)
(-0.0711926 0.00354357 -0.181763)
(0 0 0)
(0.0968942 -0.116946 -0.226865)
(0.119327 -0.206455 -0.142503)
(0.164282 -0.244922 -0.107021)
(-0.132642 0.0617271 0.137675)
(-0.110035 -0.0481949 -0.0615854)
(0.0469634 -0.057742 -0.240718)
(0.0552958 -0.115918 -0.210863)
(0.134368 -0.150521 -0.162631)
(0.0489298 -0.0959244 0.0470642)
(0.00827931 -0.09306 -0.00978312)
(0.0127602 -0.0246681 -0.288084)
(0.0634776 -0.0741269 -0.188706)
(0.0308815 -0.0275999 -0.0634667)
(-0.00493814 0.0079478 -0.157255)
(-0.088344 0.0879943 -0.336172)
(0.208829 -0.179575 -0.107201)
(-0.146367 0.0949086 0.211682)
(-0.0535335 0.0390018 -0.0708989)
(0.13423 -0.0492225 -0.132677)
(0.274289 -0.131511 0.0989559)
(-0.0354608 -0.018327 0.199532)
(-0.0588125 -0.0166681 -0.0521573)
(-0.0104756 -0.00679388 -0.256836)
(0.025148 -0.0452726 -0.146412)
(0.12947 -0.0954492 -0.111071)
(0.166946 -0.0993728 -0.0409617)
(0.105247 -0.0889019 0.0573074)
(-0.0332113 -0.0132583 0.0788034)
(-0.0344881 -0.030848 -0.198153)
(0.024702 -0.0708488 -0.135775)
(0.0855427 -0.104993 -0.135897)
(0.0731119 -0.078117 -0.0670705)
(0.0468569 -0.0308414 0.0110789)
(-0.0283628 0.0271589 -0.147196)
(0.0444725 -0.0897064 -0.170592)
(0.106796 -0.0480038 -0.120667)
(-0.0965843 0.0606949 -0.142939)
(0.0326727 0.00076381 -0.207483)
(-0.100427 0.0742061 -0.270937)
(0.175616 -0.198069 0.0346409)
(-0.0439081 -0.030111 0.181742)
(-0.0450848 0.00569166 -0.13157)
(0.0889856 -0.0843186 0.010996)
(0.251244 -0.0793102 0.209068)
(0.269349 -0.143247 0.196096)
(-0.010618 -0.0359706 -0.113755)
(-0.0145338 0.00897678 -0.269082)
(0.0097431 0.00235194 -0.139703)
(0.0301506 -0.0294139 0.01705)
(0.148855 -0.0637263 0.11374)
(0.109682 -0.0422155 0.184562)
(-0.01672 -0.009519 -0.0149801)
(-0.0196121 -0.00655775 -0.253205)
(-0.00971886 -0.0659101 -0.125201)
(-0.0167484 -0.0146063 -0.0261811)
(-0.015904 -0.0205762 0.0603104)
(0.0113841 0.0115152 0.120458)
(-0.0332539 0.0428709 -0.286485)
(-0.0272783 -0.0272163 -0.17482)
(-0.180638 0.0698453 -0.0675891)
(-0.113702 0.061528 -0.142915)
(0.0446738 0.00211379 -0.155859)
(-0.104064 0.0765308 -0.243861)
(0.0761061 -0.102131 0.0961234)
(0.364031 -0.191523 0.301101)
(-0.0407795 -0.0320964 -0.147374)
(-0.069725 -0.0738158 0.0492125)
(0.173059 -0.0426564 0.286105)
(0.248561 -0.0832726 0.252209)
(0.00539576 -0.0131779 -0.161575)
(-0.00104414 0.0175007 -0.267352)
(-0.00713084 0.0333831 -0.160642)
(-0.0955445 -0.0411919 0.0961183)
(0.0493553 0.00150343 0.20478)
(0.0380353 -0.0121301 0.313519)
(-0.00621263 0.0319118 -0.109694)
(0.00671871 0.0207784 -0.270225)
(-0.0666523 -0.0569281 -0.130316)
(-0.136083 0.0547715 0.0882735)
(-0.0698064 0.0353185 0.1357)
(-0.0661933 0.0447955 0.0620271)
(-0.0296712 0.0220125 -0.302362)
(-0.197356 -0.036226 -0.182956)
(-0.195149 0.0554659 -0.0541518)
(-0.0916263 0.0412628 -0.0938648)
(0.0263466 0.000466714 -0.147784)
(-0.0966258 0.0783394 -0.260734)
(-0.0361822 -0.0596301 0.0672582)
(0.260406 -0.142102 0.379772)
(-0.00388743 -0.0323549 -0.0687082)
(-0.149075 -0.0457076 -0.0680925)
(0.0884255 -0.044387 0.346914)
(0.146631 -0.0707721 0.289238)
(0.0206426 -0.00151807 -0.194504)
(0.00973175 0.024614 -0.263427)
(-0.0443948 0.0696711 -0.140033)
(-0.247918 -0.0382903 0.0398733)
(-0.0706055 0.00807696 0.320108)
(-0.0165597 -0.00864985 0.377639)
(0.0271647 0.0409332 -0.161551)
(0.0131206 0.0258493 -0.244163)
(-0.221261 0.0926655 -0.00779726)
(-0.221041 0.143586 0.0316205)
(-0.0976837 0.0926086 0.22961)
(-0.0272965 0.0904443 0.00165118)
(-0.00938656 0.033012 -0.254511)
(-0.188034 0.0594474 -0.0895185)
(-0.162436 0.0684594 0.0334933)
(-0.0573944 0.021529 -0.0751732)
(0.00642128 -0.00789263 -0.119029)
(-0.129591 0.0860734 -0.177403)
(-0.105358 -0.0952507 0.130559)
(0.144541 -0.113998 0.372409)
(0.0334893 -0.0369177 0.0029844)
(-0.201881 -0.0458156 0.0403725)
(-0.0247957 -0.0395284 0.381998)
(0.03228 -0.0670982 0.258845)
(0.0731349 0.0284618 -0.196712)
(0.0308985 0.0488951 -0.258565)
(-0.000320476 0.000604312 -0.000236034)
(-0.123471 0.129551 -0.045913)
(-0.309528 0.0382711 0.107953)
(-0.199319 0.0761561 0.258502)
(-0.0603171 0.0586278 0.225361)
(0.0437918 0.0471481 -0.182445)
(0.0303098 0.0295061 -0.212977)
(-0.000163345 5.53955e-05 -0.000326675)
(-0.254046 0.215042 0.0452444)
(-0.196519 0.17066 0.0994242)
(-0.0784349 0.183291 0.0656385)
(0.0679758 0.128016 -0.0910717)
(0.029403 0.0170623 -0.187551)
(-0.190574 -0.0053983 -0.00376004)
(-0.11472 0.188998 0.0843025)
(-0.0419544 -0.00310716 -0.00898792)
(-0.0196005 0.00255798 -0.0633186)
(-0.263676 0.065101 -0.115931)
(-0.166967 -0.0742721 0.00579902)
(0.0440931 -0.123062 0.335415)
(0.0678009 -0.0475525 -0.0257766)
(-0.285413 0.0162352 0.110859)
(-0.14936 0.0812657 0.0966068)
(0.0370261 0.0219378 -0.00459654)
(0.104975 0.048027 -0.124079)
(0.0758446 0.167696 -0.325797)
(0.00104588 0.00384102 -0.00345346)
(-0.0356922 0.102551 -0.193364)
(-0.321784 0.163316 0.111709)
(-0.195082 0.152297 0.190969)
(-0.0229153 0.1129 0.10879)
(0.0577681 0.072416 -0.12109)
(0.0923055 0.0503522 -0.324006)
(-0.00274427 -0.000671571 -0.00165153)
(-0.167785 0.240856 0.00348496)
(-0.19647 0.173741 0.0554793)
(-0.0482752 0.194513 0.0728544)
(0.0362977 0.16076 -0.0420718)
(0.0716885 -0.0427363 -0.165157)
(0.0940233 0.00896835 -0.0331224)
(-0.202892 -0.0655342 0.111395)
(-0.114306 0.115398 0.110989)
(-0.0300048 0.0360685 0.0795316)
(-0.0366402 -0.0180134 0.0044676)
(-0.153053 0.172948 -0.225121)
(-0.146217 0.0769165 -0.160321)
(-0.0202967 -0.0520855 0.0586736)
(0.0790194 -0.00633057 -0.000472289)
(-0.318242 0.045451 0.147567)
(-0.158527 0.123528 0.0487554)
(-0.00836717 0.133818 -0.209034)
(0.0495489 0.160642 -0.340187)
(0.136079 0.224065 -0.405302)
(0 0 0)
(0.000702596 0.118399 -0.0566394)
(-0.344365 0.198188 0.230759)
(-0.136128 0.214004 0.0196557)
(-0.0321752 0.133477 -0.352721)
(0.00179568 -0.00662383 -0.232083)
(0.023196 0.130727 -0.62206)
(0 0 0)
(0.157496 0.0395684 -0.0462062)
(-0.191804 0.038318 0.0351014)
(-0.0871497 0.0647101 0.0508293)
(-0.00668812 0.00614 -0.00580106)
(0.179224 -0.141004 -0.18206)
(0.25337 -0.0521296 -0.0951384)
(0 0 0)
(-0.142757 0.0304507 0.0113215)
(-0.0346045 0.0478351 0.156891)
(-0.0382941 0.00531075 -0.0181904)
(-0.0474202 0.199482 -0.122354)
(-0.172482 0.0886174 -0.179746)
(-0.0463614 0.0820413 -0.238568)
(-0.0205328 0.0540475 -0.0429313)
(0 0 0)
(-0.139152 0.154452 -0.387317)
(-0.0397484 0.134211 -0.458014)
(0.0288346 0.133623 -0.511473)
(0.0942293 0.0788105 -0.651272)
(0 0 0)
(0 0 0)
(0 0 0)
(-0.0993704 0.191284 -0.404174)
(-0.0111768 0.172997 -0.491877)
(0.0372572 0.145179 -0.561095)
(0.0891158 0.140816 -0.558809)
(0 0 0)
(-0.00637066 0.0372184 -0.568545)
(-0.100283 0.205857 -0.231014)
(-0.0754193 0.113375 -0.128882)
(0.0126044 -0.0135518 0.129364)
(0 0 0)
(0.206448 -0.163974 -0.214867)
(0 0 0)
(-0.0495894 0.083132 0.187542)
(-0.0915391 -0.0221215 -0.169066)
(0 0 0)
(3.51155e-14 -9.17626e-15 1.50074e-13)
(-0.0923239 0.100274 -0.123988)
(0.0271033 0.0677888 -0.106678)
(0 0 0)
(-0.120093 0.119228 -0.383989)
(0.0132001 0.0964281 -0.50057)
(0.0637465 0.0676784 -0.545642)
(-0.0253549 0.0202926 -0.86488)
(0 0 0)
(0 0 0)
(-0.0678398 0.149279 -0.40431)
(0.000812285 0.177158 -0.455511)
(0.0614088 0.132202 -0.549967)
(0 0 0)
(0 0 0)
(-0.0597104 0.225012 -0.211918)
(5.40469e-15 -7.19407e-14 1.51194e-13)
(0 0 0)
(0 0 0)
(0 0 0)
(0 0 0)
(0 0 0)
(-0.0115112 -0.0434207 -0.611336)
(0 0 0)
(0 0 0)
(-0.0683291 0.00841624 -0.493521)
(0.0562148 0.0141939 -0.562884)
(-0.125825 0.0610251 -0.338351)
(-0.0820653 0.10358 -0.395656)
(-0.0279734 0.104959 -0.426337)
(0.0376216 0.0729901 -0.504003)
(0.0732232 0.0546471 -0.420363)
(0 0 0)
(0 0 0)
(2.64493e-14 -6.45256e-14 1.07287e-13)
(-0.0145725 0.220059 -0.363029)
(0.0279112 0.140321 -0.481658)
(0 0 0)
(0.0125703 0.0186274 -0.660503)
(-0.089035 0.210156 -0.17174)
(-0.0531224 0.264466 -0.343781)
(0 0 0)
(0 0 0)
(0 0 0)
(0 0 0)
(0 0 0)
(-0.0257106 -0.0434267 -0.581907)
(0 0 0)
(0 0 0)
(-0.0283649 -0.00196101 -0.527753)
(-0.00547207 0.0725077 -0.608264)
(0 0 0)
(-0.0977663 0.103878 -0.411114)
(-0.00682629 0.0617406 -0.477332)
(0.0552466 0.146351 -0.415629)
(0 0 0)
(0 0 0)
(0 0 0)
(-0.074578 0.195316 -0.166337)
(0.0232716 0.238094 -0.306893)
(0.0164521 0.0833254 -0.566792)
(-0.0367467 0.0854663 -0.615677)
(0 0 0)
(-0.12292 0.272587 -0.106781)
(0.0112625 0.190055 -0.316964)
(0 0 0)
(0 0 0)
(0 0 0)
(0 0 0)
(0 0 0)
(0 0 0)
(0 0 0)
(0 0 0)
(-0.0252288 -0.00916807 -0.50105)
(0.0328723 -0.00432434 -0.559435)
(-0.159505 0.0585874 -0.184507)
(-0.108437 0.0677546 -0.251911)
(0.0219653 0.0860172 -0.441289)
(0.0272101 0.0826682 -0.418571)
(0 0 0)
(0 0 0)
(0 0 0)
(0 0 0)
(0 0 0)
(0.0662086 0.14373 -0.380153)
(0 0 0)
(0 0 0)
(0 0 0)
(0 0 0)
(0 0 0)
(0 0 0)
(0 0 0)
(0 0 0)
(0 0 0)
(0 0 0)
(0 0 0)
(0 0 0)
(0 0 0)
(0 0 0)
(0 0 0)
(0 0 0)
(-0.0388469 0.0632853 -0.370532)
(0 0 0)
(0 0 0)
(0 0 0)
(0 0 0)
(0 0 0)
(0 0 0)
(0 0 0)
(0 0 0)
(0 0 0)
(0 0 0)
(0 0 0)
(0 0 0)
(0 0 0)
(0.114505 -0.000220143 -0.556434)
(0.0762675 -0.0447023 -0.512938)
(0 0 0)
(0 0 0)
(0 0 0)
(0 0 0)
(0 0 0)
(0 0 0)
(0 0 0)
(0 0 0)
(0 0 0)
(0 0 0)
(0 0 0)
(0 0 0)
(0 0 0)
(0 0 0)
(0.0782235 -0.0390064 -0.857625)
(0 0 0)
(0 0 0)
(0 0 0)
(0 0 0)
(0 0 0)
(0 0 0)
(0 0 0)
(0 0 0)
(0 0 0)
(0 0 0)
(0 0 0)
(0 0 0)
(0 0 0)
(0 0 0)
(0 0 0)
(0 0 0)
(0 0 0)
(0 0 0)
(0 0 0)
(0 0 0)
(0 0 0)
(0 0 0)
(0.0341408 -0.016398 -0.784312)
(-0.0187384 -0.0848733 -0.682846)
(0 0 0)
(0 0 0)
(0 0 0)
(0.0620196 0.0150029 -0.714035)
(0 0 0)
(0 0 0)
(0 0 0)
(0 0 0)
(0 0 0)
(0 0 0)
(0 0 0)
(0 0 0)
(0 0 0)
(0 0 0)
(0 0 0)
(0 0 0)
(0 0 0)
(0 0 0)
(0 0 0)
(0 0 0)
(0 0 0)
(0 0 0)
(0 0 0)
(1.75687e-14 2.10646e-14 2.10083e-13)
(0 0 0)
(0 0 0)
(0 0 0)
(-2.07674e-14 -4.66912e-15 2.39388e-13)
(0 0 0)
(0 0 0)
(0 0 0)
(0 0 0)
(0 0 0)
(0 0 0)
(0 0 0)
(0 0 0)
(0 0 0)
(0 0 0)
(0 0 0)
(0 0 0)
(0 0 0)
(0 0 0)
(0 0 0)
(0 0 0)
(0 0 0)
(0 0 0)
(0 0 0)
(0 0 0)
(0 0 0)
(0 0 0)
(0 0 0)
(0 0 0)
(0 0 0)
(0 0 0)
(0 0 0)
(0 0 0)
(0 0 0)
(0 0 0)
(0 0 0)
(0 0 0)
(0 0 0)
(0 0 0)
(0 0 0)
(0 0 0)
(0 0 0)
(0 0 0)
(0 0 0)
(0 0 0)
(0 0 0)
(0 0 0)
(0 0 0)
(0 0 0)
(0 0 0)
(0 0 0)
(0 0 0)
(0 0 0)
(0 0 0)
(0 0 0)
(0 0 0)
(0 0 0)
(0 0 0)
(0 0 0)
(0 0 0)
(0 0 0)
(0 0 0)
(0 0 0)
(0 0 0)
(0 0 0)
(0 0 0)
(0 0 0)
(0 0 0)
(0 0 0)
(0 0 0)
(0 0 0)
(0 0 0)
(0 0 0)
(0 0 0)
(0 0 0)
(0 0 0)
(0 0 0)
(0 0 0)
(0 0 0)
(0 0 0)
(0 0 0)
(0 0 0)
(0 0 0)
(0 0 0)
(0 0 0)
(0 0 0)
(0 0 0)
(0 0 0)
(0 0 0)
(0 0 0)
(0 0 0)
(0 0 0)
(0 0 0)
(0 0 0)
(0 0 0)
(0 0 0)
(0 0 0)
(0 0 0)
(0 0 0)
(0 0 0)
(0 0 0)
(0 0 0)
(0 0 0)
(0 0 0)
(0 0 0)
(0 0 0)
(0 0 0)
(0 0 0)
(0 0 0)
(0 0 0)
(0 0 0)
(0 0 0)
(0 0 0)
(0 0 0)
(0 0 0)
(0 0 0)
(0 0 0)
(0 0 0)
(0 0 0)
(0 0 0)
(0 0 0)
(0 0 0)
(0 0 0)
(0 0 0)
(0 0 0)
(0 0 0)
(0 0 0)
(0 0 0)
(0 0 0)
(0 0 0)
(0 0 0)
(0 0 0)
(0 0 0)
(0 0 0)
(0 0 0)
(0 0 0)
(0 0 0)
(0 0 0)
(0 0 0)
(0 0 0)
(0 0 0)
(0 0 0)
(0 0 0)
(0 0 0)
(0 0 0)
(0 0 0)
(0 0 0)
(0 0 0)
(0 0 0)
(0 0 0)
(0 0 0)
(0 0 0)
(0 0 0)
(0 0 0)
(0 0 0)
(0 0 0)
(0 0 0)
(0 0 0)
(0 0 0)
(0 0 0)
(0 0 0)
(0 0 0)
(0 0 0)
(0 0 0)
(0 0 0)
(0 0 0)
(0 0 0)
(0 0 0)
(0 0 0)
(0 0 0)
(0 0 0)
(0 0 0)
(0 0 0)
(0 0 0)
(0 0 0)
(0 0 0)
(0 0 0)
(0 0 0)
(0 0 0)
(0 0 0)
(0 0 0)
(0 0 0)
(0 0 0)
(0 0 0)
(0 0 0)
(0 0 0)
(0 0 0)
(0 0 0)
(0 0 0)
(0 0 0)
(0 0 0)
(0 0 0)
(0 0 0)
(0 0 0)
(0 0 0)
(0 0 0)
(0 0 0)
(0 0 0)
(0 0 0)
(0 0 0)
(0 0 0)
(0 0 0)
(0 0 0)
(0 0 0)
(0 0 0)
(0 0 0)
(0 0 0)
(0 0 0)
(0 0 0)
(0 0 0)
(0 0 0)
(0 0 0)
(0 0 0)
(0 0 0)
(0 0 0)
(0 0 0)
(0 0 0)
(0 0 0)
(0 0 0)
(0 0 0)
(0 0 0)
(0 0 0)
(0 0 0)
(0 0 0)
(0 0 0)
(0 0 0)
(0 0 0)
(0 0 0)
(0 0 0)
(0 0 0)
(0 0 0)
(0 0 0)
(0 0 0)
(0 0 0)
(0 0 0)
(0 0 0)
(0 0 0)
(0 0 0)
(0 0 0)
(0 0 0)
(0 0 0)
(0 0 0)
(0 0 0)
(0 0 0)
(0 0 0)
(0 0 0)
(0 0 0)
(0 0 0)
(0 0 0)
(0 0 0)
(0 0 0)
(0 0 0)
(0 0 0)
(0 0 0)
(0 0 0)
(0 0 0)
(0 0 0)
(0 0 0)
(0 0 0)
(0 0 0)
(0 0 0)
(0 0 0)
(0 0 0)
(0 0 0)
(0 0 0)
(0 0 0)
(0 0 0)
(0 0 0)
(0 0 0)
(0 0 0)
(0 0 0)
(0 0 0)
(0 0 0)
(0 0 0)
(0 0 0)
(0 0 0)
(0 0 0)
(0 0 0)
(0 0 0)
(0 0 0)
(0 0 0)
(0 0 0)
(0 0 0)
(0 0 0)
(0 0 0)
(0 0 0)
(0 0 0)
(0 0 0)
(0 0 0)
(0 0 0)
(0 0 0)
(0 0 0)
(0 0 0)
(0 0 0)
(0 0 0)
(0 0 0)
(0 0 0)
(0 0 0)
(0 0 0)
(0 0 0)
(0 0 0)
(0 0 0)
(0 0 0)
(0 0 0)
(0 0 0)
(0 0 0)
(0 0 0)
(0 0 0)
(0 0 0)
(0 0 0)
(0 0 0)
(0 0 0)
(0 0 0)
(0 0 0)
(0 0 0)
(0 0 0)
(0 0 0)
(0 0 0)
(0 0 0)
(0 0 0)
(0 0 0)
(0 0 0)
(0 0 0)
(0 0 0)
(0 0 0)
(0 0 0)
(0 0 0)
(0 0 0)
(0 0 0)
(0 0 0)
(0 0 0)
(0 0 0)
(0 0 0)
(0 0 0)
(0 0 0)
(0 0 0)
(0 0 0)
(0 0 0)
(0 0 0)
(0 0 0)
(0 0 0)
(0 0 0)
(0 0 0)
(0 0 0)
(0 0 0)
(0 0 0)
(0 0 0)
(0 0 0)
(0 0 0)
(0 0 0)
(0 0 0)
(0 0 0)
(0 0 0)
(0 0 0)
(0 0 0)
(0 0 0)
(0 0 0)
(0 0 0)
(0 0 0)
(0 0 0)
(0 0 0)
(0 0 0)
(0 0 0)
(0 0 0)
(0 0 0)
(0 0 0)
(0 0 0)
(0 0 0)
(0 0 0)
(0 0 0)
(0 0 0)
(0 0 0)
(0 0 0)
(0 0 0)
(0 0 0)
(0 0 0)
(0 0 0)
(0 0 0)
(0 0 0)
(0 0 0)
(0 0 0)
(0 0 0)
(0 0 0)
(0 0 0)
(0 0 0)
(0 0 0)
(0 0 0)
(0 0 0)
(0 0 0)
(0 0 0)
(0 0 0)
(0 0 0)
(0 0 0)
(0 0 0)
(0 0 0)
(0 0 0)
(0 0 0)
(0 0 0)
(0 0 0)
(0 0 0)
(0 0 0)
(0 0 0)
(0 0 0)
(0 0 0)
(0 0 0)
(0 0 0)
(0 0 0)
(0 0 0)
(0 0 0)
(0 0 0)
(0 0 0)
(0 0 0)
(0 0 0)
(0 0 0)
(0 0 0)
(0 0 0)
(0 0 0)
(0 0 0)
(0 0 0)
(0 0 0)
(0 0 0)
(0 0 0)
(0 0 0)
(0 0 0)
(0 0 0)
(0 0 0)
(0 0 0)
(0 0 0)
(0 0 0)
(0 0 0)
(0 0 0)
(0 0 0)
(0 0 0)
(0 0 0)
(0 0 0)
(0 0 0)
(0 0 0)
(0 0 0)
(0 0 0)
(0 0 0)
(0 0 0)
(0 0 0)
(0 0 0)
(0 0 0)
(0 0 0)
(0 0 0)
(0 0 0)
(0 0 0)
(0 0 0)
(0 0 0)
(0 0 0)
(0 0 0)
(0 0 0)
(0 0 0)
(0 0 0)
(0 0 0)
(0 0 0)
(0 0 0)
(0 0 0)
(0 0 0)
(0 0 0)
(0 0 0)
(0 0 0)
(0 0 0)
(0 0 0)
(0 0 0)
(0 0 0)
(0 0 0)
(0 0 0)
(0 0 0)
(0 0 0)
(0 0 0)
(0 0 0)
(0 0 0)
(0 0 0)
(0 0 0)
(0 0 0)
(0 0 0)
(0 0 0)
(0 0 0)
(0 0 0)
(0 0 0)
(0 0 0)
(0 0 0)
(0 0 0)
(0 0 0)
(0 0 0)
(0 0 0)
(0 0 0)
(0 0 0)
(0 0 0)
(0 0 0)
(0 0 0)
(0 0 0)
(0 0 0)
(0 0 0)
(0 0 0)
(0 0 0)
(0 0 0)
(0 0 0)
(0 0 0)
(0 0 0)
(0 0 0)
(0 0 0)
(0 0 0)
(0 0 0)
(0 0 0)
(0 0 0)
(0 0 0)
(0 0 0)
(0 0 0)
(0 0 0)
(0 0 0)
(0 0 0)
(0 0 0)
(0 0 0)
(0 0 0)
(0 0 0)
(0 0 0)
(0 0 0)
(0 0 0)
(0 0 0)
(0 0 0)
(0 0 0)
(0 0 0)
(0 0 0)
(0 0 0)
(0 0 0)
(0 0 0)
(0 0 0)
(0 0 0)
(0 0 0)
(0 0 0)
(0 0 0)
(0 0 0)
(0 0 0)
(0 0 0)
(0 0 0)
(0 0 0)
(0 0 0)
(0 0 0)
(0 0 0)
(0 0 0)
(0 0 0)
(0 0 0)
(0 0 0)
(0 0 0)
(0 0 0)
(0 0 0)
(0 0 0)
(0 0 0)
(0 0 0)
(0 0 0)
(0 0 0)
(0 0 0)
(0 0 0)
(0 0 0)
(0 0 0)
(0 0 0)
(0 0 0)
(0 0 0)
(0 0 0)
(0 0 0)
(0 0 0)
(0 0 0)
(0 0 0)
(0 0 0)
(0 0 0)
(0 0 0)
(0 0 0)
(0 0 0)
(0 0 0)
(0 0 0)
(0 0 0)
(0 0 0)
(0 0 0)
(0 0 0)
(0 0 0)
(0 0 0)
(0 0 0)
(0 0 0)
(0 0 0)
(0 0 0)
(0 0 0)
(0 0 0)
(0 0 0)
(0 0 0)
(0 0 0)
(0 0 0)
(0 0 0)
(0 0 0)
(0 0 0)
(0 0 0)
(0 0 0)
(0 0 0)
(0 0 0)
(0 0 0)
(0 0 0)
(0 0 0)
(0 0 0)
(0 0 0)
(0 0 0)
(0 0 0)
(0 0 0)
(0 0 0)
(0 0 0)
(0 0 0)
(0 0 0)
(0 0 0)
(0 0 0)
(0 0 0)
(0 0 0)
(0 0 0)
(0 0 0)
(0 0 0)
(0 0 0)
(0 0 0)
(0 0 0)
(0 0 0)
(0 0 0)
(0 0 0)
(0 0 0)
(0 0 0)
(0 0 0)
(0 0 0)
(0 0 0)
(0 0 0)
(0 0 0)
(0 0 0)
(0 0 0)
(0 0 0)
(0 0 0)
(0 0 0)
(0 0 0)
(0 0 0)
(0 0 0)
(0 0 0)
(0 0 0)
(0 0 0)
(0 0 0)
(0 0 0)
(0 0 0)
(0 0 0)
(0 0 0)
(0 0 0)
(0 0 0)
(0 0 0)
(0 0 0)
(0 0 0)
(0 0 0)
(0 0 0)
(0 0 0)
(0 0 0)
(0 0 0)
(0 0 0)
(0 0 0)
(0 0 0)
(0 0 0)
(0 0 0)
(0 0 0)
(0 0 0)
(0 0 0)
(0 0 0)
(0 0 0)
(0 0 0)
(0 0 0)
(0 0 0)
(0 0 0)
(0 0 0)
(0 0 0)
(0 0 0)
(0 0 0)
(0 0 0)
(0 0 0)
(0 0 0)
(0 0 0)
(0 0 0)
(0 0 0)
(0 0 0)
(0 0 0)
(0 0 0)
(0 0 0)
(0 0 0)
(0 0 0)
(0 0 0)
(0 0 0)
(0 0 0)
(0 0 0)
(0 0 0)
(0 0 0)
(0 0 0)
(0 0 0)
(0 0 0)
(0 0 0)
(0 0 0)
(0 0 0)
(0 0 0)
(0 0 0)
(0 0 0)
(0 0 0)
(0 0 0)
(0 0 0)
(0 0 0)
(0 0 0)
(0 0 0)
(0 0 0)
(0 0 0)
(0 0 0)
(0 0 0)
(0 0 0)
(0 0 0)
(0 0 0)
(0 0 0)
(0 0 0)
(0 0 0)
(0 0 0)
(0 0 0)
(0 0 0)
(0 0 0)
(0 0 0)
(0 0 0)
(0 0 0)
(0 0 0)
(0 0 0)
(0 0 0)
(0 0 0)
(0 0 0)
(0 0 0)
(0 0 0)
(0 0 0)
(0 0 0)
(0 0 0)
(0 0 0)
(0 0 0)
(0 0 0)
(0 0 0)
(0 0 0)
(0 0 0)
(0 0 0)
(0 0 0)
(0 0 0)
(0 0 0)
(0 0 0)
(0 0 0)
(0 0 0)
(0 0 0)
(0 0 0)
(0 0 0)
(0 0 0)
(0 0 0)
(0 0 0)
(0 0 0)
(0 0 0)
(0 0 0)
(0 0 0)
(0 0 0)
(0 0 0)
(0 0 0)
(0 0 0)
(0 0 0)
(0 0 0)
(0 0 0)
(0 0 0)
(0 0 0)
(0 0 0)
(0 0 0)
(0 0 0)
(0 0 0)
(0 0 0)
(0 0 0)
(0 0 0)
(0 0 0)
(0 0 0)
(0 0 0)
(0 0 0)
(0 0 0)
(0 0 0)
(0 0 0)
(0 0 0)
(0 0 0)
(0 0 0)
(0 0 0)
(0 0 0)
(0 0 0)
(0 0 0)
(0 0 0)
(0 0 0)
(0 0 0)
(0 0 0)
(0 0 0)
(0 0 0)
(0 0 0)
(0 0 0)
(0 0 0)
(0 0 0)
(0 0 0)
(0 0 0)
(0 0 0)
(0 0 0)
(0 0 0)
(0 0 0)
(0 0 0)
(0 0 0)
(0 0 0)
(0 0 0)
(0 0 0)
(0 0 0)
(0 0 0)
(0 0 0)
(0 0 0)
(0 0 0)
(0 0 0)
(0 0 0)
(0 0 0)
(0 0 0)
(0 0 0)
(0 0 0)
(0 0 0)
(0 0 0)
(0 0 0)
(0 0 0)
(0 0 0)
(0 0 0)
(0 0 0)
(0 0 0)
(0 0 0)
(0 0 0)
(0 0 0)
(0 0 0)
(0 0 0)
(0 0 0)
(0 0 0)
(0 0 0)
(0 0 0)
(0 0 0)
(0 0 0)
(0 0 0)
(0 0 0)
(0 0 0)
(0 0 0)
(0 0 0)
(0 0 0)
(0 0 0)
(0 0 0)
(0 0 0)
(0 0 0)
(0 0 0)
(0 0 0)
(0 0 0)
(0 0 0)
(0 0 0)
(0 0 0)
(0 0 0)
(0 0 0)
(0 0 0)
(0 0 0)
(0 0 0)
(0 0 0)
(0 0 0)
(0 0 0)
(0 0 0)
(0 0 0)
(0 0 0)
(0 0 0)
(0 0 0)
(0 0 0)
(0 0 0)
(0 0 0)
(0 0 0)
(0 0 0)
(0 0 0)
(0 0 0)
(0 0 0)
(0 0 0)
(0 0 0)
(0 0 0)
(0 0 0)
(0 0 0)
(0 0 0)
(0 0 0)
(0 0 0)
(0 0 0)
(0 0 0)
(0 0 0)
(0 0 0)
(0 0 0)
(0 0 0)
(0 0 0)
(0 0 0)
(0 0 0)
(0 0 0)
(0 0 0)
(0 0 0)
(0 0 0)
(0 0 0)
(0 0 0)
(0 0 0)
(0 0 0)
(0 0 0)
(0 0 0)
(0 0 0)
(0 0 0)
(0 0 0)
(0 0 0)
(0 0 0)
(0 0 0)
(0 0 0)
(0 0 0)
(0 0 0)
(0 0 0)
(0 0 0)
(0 0 0)
(0 0 0)
(0 0 0)
(0 0 0)
(0 0 0)
(0 0 0)
(0 0 0)
(0 0 0)
(0 0 0)
(0 0 0)
(0 0 0)
(0 0 0)
(0 0 0)
(0 0 0)
(0 0 0)
(0 0 0)
(0 0 0)
(0 0 0)
(0 0 0)
(0 0 0)
(0 0 0)
(0 0 0)
(0 0 0)
(0 0 0)
(0 0 0)
(0 0 0)
(0 0 0)
(0 0 0)
(0 0 0)
(0 0 0)
(0 0 0)
(0 0 0)
(0 0 0)
(0 0 0)
(0 0 0)
(0 0 0)
(0 0 0)
(0 0 0)
(0 0 0)
(0 0 0)
(0 0 0)
(0 0 0)
(0 0 0)
(0 0 0)
(0 0 0)
(0 0 0)
(0 0 0)
(0 0 0)
(0 0 0)
(0 0 0)
(0 0 0)
(0 0 0)
(0 0 0)
(0 0 0)
(0 0 0)
(0 0 0)
(0 0 0)
(0 0 0)
(0 0 0)
(0 0 0)
(0 0 0)
(0 0 0)
(0 0 0)
(0 0 0)
(0 0 0)
(0 0 0)
(0 0 0)
(0 0 0)
(0 0 0)
(0 0 0)
(0 0 0)
(0 0 0)
(0 0 0)
(0 0 0)
(0 0 0)
(0 0 0)
(0 0 0)
(0 0 0)
(0 0 0)
(0 0 0)
(0 0 0)
(0 0 0)
(0 0 0)
(0 0 0)
(0 0 0)
(0 0 0)
(0 0 0)
(0 0 0)
(0 0 0)
(0 0 0)
(0 0 0)
(0 0 0)
(0 0 0)
(0 0 0)
(0 0 0)
(0 0 0)
(0 0 0)
(0 0 0)
(0 0 0)
(0 0 0)
(0 0 0)
(0 0 0)
(0 0 0)
(0 0 0)
(0 0 0)
(0 0 0)
(0 0 0)
(0 0 0)
(0 0 0)
(0 0 0)
(0 0 0)
(0 0 0)
(0 0 0)
(0 0 0)
(0 0 0)
(0 0 0)
(0 0 0)
(0 0 0)
(0 0 0)
(0 0 0)
(0 0 0)
(0 0 0)
(0 0 0)
(0 0 0)
(0 0 0)
(0 0 0)
(0 0 0)
(0 0 0)
(0 0 0)
(0 0 0)
(0 0 0)
(0 0 0)
(0 0 0)
(0 0 0)
(0 0 0)
(0 0 0)
(0 0 0)
(0 0 0)
(0 0 0)
(0 0 0)
(0 0 0)
(0 0 0)
(0 0 0)
(0 0 0)
(0 0 0)
(0 0 0)
(0 0 0)
(0 0 0)
(0 0 0)
(0 0 0)
(0 0 0)
(0 0 0)
(0 0 0)
(0 0 0)
(0 0 0)
(0 0 0)
(0 0 0)
(0 0 0)
(0 0 0)
(0 0 0)
(0 0 0)
(0 0 0)
(0 0 0)
(0 0 0)
(0 0 0)
(0 0 0)
(0 0 0)
(0 0 0)
(0 0 0)
(0 0 0)
(0 0 0)
(0 0 0)
(0 0 0)
(0 0 0)
(0 0 0)
(0 0 0)
(0 0 0)
(0 0 0)
(0 0 0)
(0 0 0)
(0 0 0)
(0 0 0)
(0 0 0)
(0 0 0)
(0 0 0)
(0 0 0)
(0 0 0)
(0 0 0)
(0 0 0)
(0 0 0)
(0 0 0)
(0 0 0)
(0 0 0)
(0 0 0)
(0 0 0)
(0 0 0)
(0 0 0)
(0 0 0)
(0 0 0)
(0 0 0)
(0 0 0)
(0 0 0)
(0 0 0)
(0 0 0)
(0 0 0)
(0 0 0)
(0 0 0)
(0 0 0)
(0 0 0)
(0 0 0)
(0 0 0)
(0 0 0)
(0 0 0)
(0 0 0)
(0 0 0)
(0 0 0)
(0 0 0)
(0 0 0)
(0 0 0)
(0 0 0)
(0 0 0)
(0 0 0)
(0 0 0)
(0 0 0)
(0 0 0)
(0 0 0)
(0 0 0)
(0 0 0)
(0 0 0)
(0 0 0)
(0 0 0)
(0 0 0)
(0 0 0)
(0 0 0)
(0 0 0)
(0 0 0)
(0 0 0)
(0 0 0)
(0 0 0)
(0 0 0)
(0 0 0)
(0 0 0)
(0 0 0)
(0 0 0)
(0 0 0)
(0 0 0)
(0 0 0)
(0 0 0)
(0 0 0)
(0 0 0)
(0 0 0)
(0 0 0)
(0 0 0)
(0 0 0)
(0 0 0)
(0 0 0)
(0 0 0)
(0 0 0)
(0 0 0)
(0 0 0)
(0 0 0)
(0 0 0)
(0 0 0)
(0 0 0)
(0 0 0)
(0 0 0)
(0 0 0)
(0 0 0)
(0 0 0)
(0 0 0)
(0 0 0)
(0 0 0)
(0 0 0)
(0 0 0)
(0 0 0)
(0 0 0)
(0 0 0)
(0 0 0)
(0 0 0)
(0 0 0)
(0 0 0)
(0 0 0)
(0 0 0)
(0 0 0)
(0 0 0)
(0 0 0)
(0 0 0)
(0 0 0)
(0 0 0)
(0 0 0)
(0 0 0)
(0 0 0)
(0 0 0)
(0 0 0)
(0 0 0)
(0 0 0)
(0 0 0)
(0 0 0)
(0 0 0)
(0 0 0)
(0 0 0)
(0 0 0)
(0 0 0)
(0 0 0)
(0 0 0)
(0 0 0)
(0 0 0)
(0 0 0)
(0 0 0)
(0 0 0)
(0 0 0)
(0 0 0)
(0 0 0)
(0 0 0)
(0 0 0)
(0 0 0)
(0 0 0)
(0 0 0)
(0 0 0)
(0 0 0)
(0 0 0)
(0 0 0)
(0 0 0)
(0 0 0)
(0 0 0)
(0 0 0)
(0 0 0)
(0 0 0)
(0 0 0)
(0 0 0)
(0 0 0)
(0 0 0)
(0 0 0)
(0 0 0)
(0 0 0)
(0 0 0)
(0 0 0)
(0 0 0)
(0 0 0)
(0 0 0)
(0 0 0)
(0 0 0)
(0 0 0)
(0 0 0)
(0 0 0)
(0 0 0)
(0 0 0)
(0 0 0)
(0 0 0)
(0 0 0)
(0 0 0)
(0 0 0)
(0 0 0)
(0 0 0)
(0 0 0)
(0 0 0)
(0 0 0)
(0 0 0)
(0 0 0)
(0 0 0)
(0 0 0)
(0 0 0)
(0 0 0)
(0 0 0)
(0 0 0)
(0 0 0)
(0 0 0)
(0 0 0)
(0 0 0)
(0 0 0)
(0 0 0)
(0 0 0)
(0 0 0)
(0 0 0)
(0 0 0)
(0 0 0)
(0 0 0)
(0 0 0)
(0 0 0)
(0 0 0)
(0 0 0)
(0 0 0)
(0 0 0)
(0 0 0)
(0 0 0)
(0 0 0)
(0 0 0)
(0 0 0)
(0 0 0)
(0 0 0)
(0 0 0)
(0 0 0)
(0 0 0)
(0 0 0)
(0 0 0)
(0 0 0)
(0 0 0)
(0 0 0)
(0 0 0)
(0 0 0)
(0 0 0)
(0 0 0)
(0 0 0)
(0 0 0)
(0 0 0)
(0 0 0)
(0 0 0)
(0 0 0)
(0 0 0)
(0 0 0)
(0 0 0)
(0 0 0)
(0 0 0)
(0 0 0)
(0 0 0)
(0 0 0)
(0 0 0)
(0 0 0)
(0 0 0)
(0 0 0)
(0 0 0)
(0 0 0)
(0 0 0)
(0 0 0)
(0 0 0)
(0 0 0)
(0 0 0)
(0 0 0)
(0 0 0)
(0 0 0)
(0 0 0)
(0 0 0)
(0 0 0)
(0 0 0)
(0 0 0)
(0 0 0)
(0 0 0)
(0 0 0)
(0 0 0)
(0 0 0)
(0 0 0)
(0 0 0)
(0 0 0)
(0 0 0)
(0 0 0)
(0 0 0)
(0 0 0)
(0 0 0)
(0 0 0)
(0 0 0)
(0 0 0)
(0 0 0)
(0 0 0)
(0 0 0)
(0 0 0)
(0 0 0)
(0 0 0)
(0 0 0)
(0 0 0)
(0 0 0)
(0 0 0)
(0 0 0)
(0 0 0)
(0 0 0)
(0 0 0)
(0 0 0)
(0 0 0)
(0 0 0)
(0 0 0)
(0 0 0)
(0 0 0)
(0 0 0)
(0 0 0)
(0 0 0)
(0 0 0)
(0 0 0)
(0 0 0)
(0 0 0)
(0 0 0)
(0 0 0)
(0 0 0)
(0 0 0)
(0 0 0)
(0 0 0)
(0 0 0)
(0 0 0)
(0 0 0)
(0 0 0)
(0 0 0)
(0 0 0)
(0 0 0)
(0 0 0)
(0 0 0)
(0 0 0)
(0 0 0)
(0 0 0)
(0 0 0)
(0 0 0)
(0 0 0)
(0 0 0)
(0 0 0)
(0.0213112 0.030924 -0.00149434)
(0.0403134 0.0411902 -0.00791927)
(0.0131009 0.0983695 0.0365013)
(0.0525828 0.14213 0.0607025)
(0.0372936 0.0267249 -0.0286596)
(0.0628986 0.0982408 0.0305102)
(0.0222683 0.0911124 -0.0120295)
(0.00325995 0.037557 -0.0234257)
(0.0222588 0.0977525 -0.0600072)
(0.0802557 0.0161936 -0.0356279)
(0.113558 0.0745679 -0.00886142)
(0.0899268 0.110483 -0.045952)
(0.138971 0.134505 -0.0127896)
(0.121128 0.164681 0.0178133)
(0.0805652 0.224365 0.0757589)
(0.133592 0.13924 0.0174877)
(0.0190076 0.164482 0.0503079)
(-0.0142225 0.192684 0.0875408)
(-0.049936 0.154699 0.0238407)
(-0.0955634 0.135905 0.0554639)
(-0.200373 0.130902 0.0505376)
(-0.103752 0.0469518 -0.0115759)
(-0.0714522 -0.00725661 -0.0263161)
(-0.269942 0.110512 0.00511468)
(-0.163707 0.039267 -0.0359797)
(-0.0656106 0.0187931 -0.0543415)
(0.0160622 0.0543798 -0.0131216)
(-0.00805336 -0.0336061 -0.0136604)
(0.00487972 -0.0756215 -0.012052)
(0.0510234 0.0559145 0.00705075)
(0.0687885 -0.062774 -0.00189145)
(0.0319195 -0.093827 -0.0171404)
(0.0760761 -0.11519 -0.0395061)
(0.0939286 -0.100722 -4.22103e-05)
(0.0865369 -0.0894815 0.00720401)
(0.0998357 -0.113721 -0.0205218)
(0.124382 -0.134345 -0.00744424)
(-0.0926202 0.0600745 0.0343229)
(-0.163197 0.104049 0.0375248)
(-0.0116661 -0.0345472 0.0248731)
(-0.120581 0.0823181 0.0199554)
(-0.290471 0.177487 0.0217783)
(-0.236515 0.142813 -0.0325782)
(-0.152522 0.108916 0.036968)
(-0.173218 0.193136 0.0403926)
(-0.0828712 0.0874199 -0.0711984)
(-0.078461 0.146662 -0.0161045)
(0.000999487 -0.0150842 -0.0187226)
(-0.00713805 -0.0350425 -0.00859925)
(0.00538393 -0.0814278 -0.0548812)
(0.0157857 -0.0383623 -0.00934055)
(0.0384894 -0.0895627 -0.0602715)
(0.0778154 -0.105317 -0.0920251)
(0.0375362 -0.0609623 -0.0635775)
(0.041065 -0.0698771 -0.0404803)
(0.0910083 -0.121426 -0.0223878)
(0.122375 -0.142052 -0.0165843)
(0.0505659 -0.146364 -0.0889853)
(0.0938634 -0.163454 -0.122479)
(0.128724 -0.157443 -0.0116233)
(-0.0893567 0.0254533 0.0128903)
(0.155681 -0.169784 -0.10663)
(-0.0145758 -0.0266209 0.0162917)
(-0.101602 0.047104 0.0107547)
(-0.109176 0.0494908 0.0329479)
(-0.0649083 0.00906012 0.0092552)
(-0.113859 -0.0105791 0.0242709)
(-0.0753383 0.015211 0.00411842)
(0.00882765 -0.00997049 -0.00246468)
(-0.107556 0.00280285 -0.00788531)
(0.0132965 -0.0113064 -0.00921853)
(0.0133199 -0.0306478 -0.0279089)
(0.00307464 -0.0657672 -0.0251726)
(0.0011143 -0.00923698 -0.00794675)
(-0.000245525 -0.0227639 -0.00685824)
(0.038956 -0.0873858 -0.0734147)
(0.0847179 -0.0855111 -0.116909)
(0.0484753 -0.0167409 -0.0324454)
(0.0802859 -0.0231232 -0.0571872)
(0.146716 -0.0909624 -0.0601549)
(0.0736588 -0.084963 -0.00820741)
(0.120413 -0.0365345 -0.054458)
(0.0896746 -0.0757529 -0.0494653)
(-0.0619928 -0.0294616 0.0123397)
(-0.100412 0.00258701 0.0252616)
(0.0033259 -0.0450244 -0.00437238)
(-0.0169653 -0.0220084 -5.08487e-06)
(-0.0339815 0.00291535 -0.00840816)
(0.0102984 -0.00406998 -0.0100465)
(0.0339535 0.00211408 -0.0100022)
(0.0545914 0.00769732 -0.0224316)
(0.0239725 0.00217759 -0.000395793)
(0.0489383 0.000882489 -0.0226775)
(0.0250094 -0.04351 -0.0556238)
(0.0129888 -0.00348605 -0.0281933)
(0.0274265 -0.0364996 -0.0166437)
(0.00903468 0.0180304 -0.0208335)
(-0.0257665 0.0202849 -0.229965)
(-0.0173958 0.0595835 -0.0890676)
(0.00146691 0.0483393 -0.0028796)
(0.0106989 0.132349 0.0214289)
(-0.00980154 0.0192363 -0.169034)
(0.0104736 -0.0100852 -0.1148)
(0.0143669 0.0629116 -0.0600745)
(0.0366765 0.123881 0.0518215)
(0.0381983 0.0960097 0.0207647)
(0.00589233 0.0191333 -0.113074)
(-0.00320375 0.091136 -0.000276124)
(-0.0048051 0.0560263 -0.0207035)
(0.0338456 0.0438989 -0.048429)
(0.000157179 0.0225988 -0.0524956)
(0.008248 0.0750273 -0.230104)
(-0.000575453 0.0347075 -0.35871)
(0.100327 0.0207377 -0.0157192)
(0.091179 0.057116 -0.196341)
(0.158486 0.0189873 -0.122937)
(-0.0699556 0.0823763 -0.352555)
(0.11284 -0.0909021 -0.213514)
(0.0379627 0.0207209 -0.345856)
(0.160375 -0.0840233 -0.214429)
(-0.0281248 0.0111957 -0.0785937)
(-0.184218 0.142204 0.0174836)
(-0.0924182 0.0302467 -0.0884101)
(-0.0552806 0.07877 -0.0330856)
(-0.00924558 0.0140792 -0.10274)
(-0.115434 0.110918 -0.00225707)
(-0.0409008 0.0181423 -0.129165)
(-0.0379554 -0.00838892 -0.120572)
(-0.0147775 -0.00424755 -0.162411)
(0.0523659 0.0679987 -0.26261)
(0 0 0)
(0.05319 -0.129985 -0.250585)
(0.0553422 -0.0173118 -0.249139)
(0.0178846 -0.0618431 -0.217996)
(0.0606637 -0.0883299 -0.189043)
(-0.113247 -0.00851081 -0.167333)
(-0.0203615 -0.0272357 -0.118716)
(-0.0289643 -0.0129958 -0.2305)
(-0.067049 -0.0302745 -0.253095)
(-0.0110243 -0.0239077 -0.202412)
(0.043353 -0.0776423 -0.232)
(0.00973564 -0.043958 -0.26744)
(0.00566011 -0.073611 -0.219543)
(0.0600477 -0.0656965 -0.209565)
(0.0321463 -0.0360774 -0.24504)
(-0.0312248 -0.038675 -0.0803976)
(-0.0510501 -0.0779302 -0.0465991)
(-0.0611749 -0.0425463 -0.132766)
(-0.00965094 -0.0222491 -0.155583)
(-0.0158948 -0.0588693 -0.0837515)
(-0.00357743 -0.0288634 -0.288027)
(0.000229285 -0.0242822 -0.278583)
(0.0372375 -0.0914857 -0.191636)
(0.0272326 -0.0307358 -0.27514)
(0.0230587 -0.0544658 -0.272248)
(0.0573592 -0.0666814 -0.219368)
(0.0847566 -0.10239 -0.166041)
(0.0213409 -0.030198 -0.265316)
(0.0683481 -0.0637082 -0.24071)
(-0.0136295 -0.0632561 0.063712)
(0.0671528 -0.0584805 -0.0352041)
(0.0503489 -0.0525731 -0.0333978)
(0.0750664 -0.0737885 0.0166878)
(-0.00733758 -0.0440911 0.03742)
(0.00166364 0.011909 -0.123414)
(-0.00441724 -0.0062293 -0.166075)
(0.00331136 -0.0339803 -0.0636173)
(-0.00502234 -0.0273995 -0.311301)
(-0.0194546 -0.0284078 -0.249688)
(0.0285337 -0.0511758 -0.196789)
(0.0400772 -0.0140876 -0.163832)
(0 0 0)
(0.0950186 -0.0910769 -0.116841)
(0.0765189 -0.011372 -0.161145)
(0.0646934 -0.0475261 -0.166255)
(0.00505694 -0.0270714 -0.233902)
(0.0893106 -0.0841091 -0.166418)
(0.0140128 -0.00133583 -0.143445)
(0.049831 -0.0226171 -0.199376)
(-0.0571341 0.0517565 -0.148571)
(-0.0525055 0.0281734 -0.231626)
(-0.0631886 0.039413 -0.219682)
(-0.00763894 0.00755204 -0.232)
(0.0425736 -0.0333121 -0.200529)
(0.0794642 -0.0312353 -0.190103)
(0.0125832 -0.00512216 -0.253348)
(0.0560814 -0.0599826 -0.14624)
(0.122585 -0.0698555 -0.15402)
(-0.00219521 0.0462226 -0.078548)
(-0.0114734 0.0377804 -0.0658112)
(0.00478519 0.0036444 -0.196889)
(0.0428375 0.0176264 -0.120548)
(-0.00681633 0.0306801 -0.101121)
(-0.0114788 0.0108807 -0.0809171)
(-0.0128979 0.00917115 -0.107209)
(-0.0115887 0.0333027 -0.322429)
(-0.00831484 0.0287088 -0.259189)
(0.0627318 -0.0779834 -0.190324)
(0.0232773 0.0095833 -0.286903)
(0.155062 -0.110536 -0.150199)
(-0.0969597 0.0809778 -0.306794)
(0.0384389 -0.0752885 -0.157214)
(0.0295171 -0.0186441 -0.202983)
(0.149486 -0.154221 -0.0694692)
(-0.0155842 0.00168572 -0.12391)
(-0.0943288 0.0478214 -0.0285199)
(-0.0284647 0.00407134 -0.155295)
(-0.0484215 0.018929 -0.104123)
(-0.0146742 -0.000969961 -0.146638)
(-0.0853267 0.00354458 -0.0555428)
(-0.0232169 -0.00603769 -0.176087)
(-0.00739308 0.00149013 -0.188901)
(-0.00310764 0.00247834 -0.208124)
(0.0439261 -0.0331786 -0.185594)
(0.0213194 -0.0517377 -0.167242)
(0.0625502 -0.0726854 -0.135196)
(0.0387264 -0.0316092 -0.143743)
(0.0120258 -0.021944 -0.149969)
(0.067108 -0.0591136 -0.0918027)
(-0.0337413 -0.0232207 -0.291015)
(-0.00675882 -0.0239192 -0.250884)
(-0.00504769 0.0027099 -0.267421)
(-0.0239632 -0.0119648 -0.298917)
(-0.015187 -0.00894666 -0.272518)
(0.0534422 -0.0458483 -0.137847)
(0.0165938 -0.0323562 -0.170939)
(0.0198092 -0.0160053 -0.14158)
(0.0431236 -0.0287668 -0.11384)
(0.0103502 -0.0339761 -0.150251)
(-0.000964615 -0.020541 -0.22189)
(-0.0232867 -0.0152203 -0.139302)
(-0.023457 -0.021804 -0.232116)
(-0.00432102 -0.0158871 -0.247324)
(-0.023607 0.00762945 -0.196297)
(-0.00572908 -0.0330927 -0.179438)
(-0.00634906 -0.0394864 -0.160414)
(0.100699 -0.0968959 -0.114683)
(0.00725061 -0.0388144 -0.184666)
(0.0467899 -0.0534744 -0.178947)
(0.00992991 -0.0772353 -0.122324)
(0.0775812 -0.0942487 -0.038461)
(-0.00570677 -0.0427559 -0.177572)