/*--------------------------------*- C++ -*----------------------------------*\
| =========                 |                                                 |
| \\      /  F ield         | OpenFOAM: The Open Source CFD Toolbox           |
|  \\    /   O peration     | Version:  5.x                                   |
|   \\  /    A nd           | Web:      www.OpenFOAM.org                      |
|    \\/     M anipulation  |                                                 |
\*---------------------------------------------------------------------------*/
FoamFile
{
    version     2.0;
    format      ascii;
    class       surfaceScalarField;
    location    "6.65";
    object      phi;
}
// * * * * * * * * * * * * * * * * * * * * * * * * * * * * * * * * * * * * * //

dimensions      [0 3 -1 0 0 0 0];

internalField   nonuniform List<scalar> 
29271
(
-6.65024e-06
-5.8576e-07
1.29138e-06
5.91808e-06
-5.98472e-06
4.14528e-07
2.57753e-06
3.10663e-06
-1.44718e-05
-1.43083e-06
1.36461e-07
5.89502e-07
3.51148e-06
1.16652e-05
-1.34171e-05
-8.03731e-07
-7.93842e-07
2.19585e-06
2.78282e-06
1.0036e-05
-1.86312e-05
-1.48386e-06
-2.02704e-06
2.93566e-06
1.7505e-05
1.70141e-06
-1.86773e-05
-2.5822e-06
-2.7022e-06
2.05082e-06
2.32054e-06
1.95903e-05
-1.62329e-05
-3.38283e-06
-1.22816e-06
-2.65065e-07
4.06284e-06
1.70461e-05
-2.10928e-05
-1.08839e-05
4.50926e-06
-1.46068e-05
1.52288e-05
2.68455e-05
-1.93573e-05
7.34503e-08
1.65279e-05
-1.204e-05
-2.94068e-06
1.77367e-05
-1.15767e-05
-1.73483e-07
-9.78284e-07
6.77636e-06
6.06559e-06
-4.90488e-06
1.76735e-07
4.89105e-07
4.2369e-06
-1.76362e-05
-3.00633e-06
-3.74331e-07
3.85911e-06
-4.24755e-07
1.75825e-05
-1.80205e-05
-3.83604e-06
3.76538e-07
-1.11734e-05
1.57678e-06
3.10766e-05
-1.78368e-05
-1.80256e-05
2.30358e-05
-2.33894e-05
1.36164e-05
2.25996e-05
-1.60815e-05
-2.91189e-06
1.83532e-05
-1.28965e-05
9.12611e-06
4.41052e-06
-1.3611e-05
1.05489e-06
-1.65003e-06
4.11475e-08
5.25773e-06
8.90723e-06
-1.61793e-05
-1.71882e-06
5.78996e-06
-4.99018e-07
1.16982e-05
9.08996e-07
-1.83796e-05
-3.90474e-07
1.42673e-06
-8.11273e-06
-3.64553e-06
2.91016e-05
-1.77933e-05
-1.03117e-05
1.40545e-05
-1.64429e-05
2.26738e-06
2.82261e-05
-2.01907e-05
-1.04962e-05
1.02064e-06
2.07803e-05
-7.30918e-06
1.61951e-05
-5.40032e-06
-4.71607e-07
3.78938e-06
2.21842e-06
-1.42861e-05
-6.82875e-07
8.25535e-08
9.6375e-06
5.27728e-06
-1.5846e-05
2.29011e-07
-1.40503e-06
-1.2113e-06
1.6328e-05
1.90532e-06
-4.97957e-06
-1.20326e-07
1.70762e-06
3.4501e-06
-2.92196e-06
-9.60497e-07
2.79302e-06
1.10811e-06
-4.75328e-07
-3.8939e-07
1.35645e-06
-5.34751e-07
-5.7894e-06
3.14398e-06
-7.97451e-06
-5.70099e-06
1.03216e-05
5.99928e-06
-5.41374e-06
-7.56756e-06
2.13302e-06
-3.0625e-06
7.87729e-06
6.03349e-06
-1.98359e-05
1.37193e-06
-4.36947e-06
-3.79727e-06
1.79913e-05
8.63948e-06
-6.64345e-06
6.16196e-07
-1.77867e-05
-3.20437e-06
8.79531e-06
1.8223e-05
-6.6833e-05
5.57872e-05
0.00013687
-3.21849e-05
-2.98308e-05
-3.93715e-05
-3.40137e-05
-1.51878e-05
-8.6894e-06
-1.26748e-05
-8.52664e-06
9.49605e-06
1.40637e-05
1.17255e-05
1.93697e-05
-1.4568e-05
1.25785e-05
1.22535e-05
-2.03707e-05
-1.68843e-05
-2.90041e-06
1.08871e-07
-9.97064e-06
-1.14851e-05
-6.11774e-06
-9.477e-06
-4.59527e-07
3.42635e-06
3.78607e-06
3.04582e-06
1.50421e-06
1.09374e-06
5.31234e-07
-1.98363e-07
8.23388e-08
1.48699e-08
-7.12602e-06
-1.18929e-05
-5.70961e-07
-7.80485e-06
-3.53781e-06
1.17188e-06
-9.60513e-07
2.82776e-06
-5.52521e-06
4.1502e-07
-1.92126e-06
7.03125e-06
2.90152e-06
-2.73884e-05
-6.88297e-06
-6.63335e-06
2.51284e-06
3.54904e-05
-4.10605e-05
1.60057e-05
0.000207931
-4.59471e-05
-4.30381e-05
-4.37912e-05
-4.41153e-05
1.07776e-05
8.24044e-06
1.64125e-05
1.43725e-05
-6.44641e-06
6.08318e-06
4.07874e-06
-1.11462e-05
6.92604e-07
-1.84418e-05
-3.30216e-06
-6.70691e-07
3.32793e-06
-1.47787e-06
-7.47774e-07
-5.3495e-07
-4.59686e-07
2.02971e-06
1.22739e-06
3.1998e-06
-4.93644e-07
-5.18934e-06
-7.90904e-07
-2.44004e-06
-2.49878e-06
-1.86273e-08
-4.87724e-08
6.94161e-07
1.20133e-06
-1.51126e-05
5.86503e-07
-4.21804e-06
-1.84913e-06
2.00391e-05
5.54146e-07
-4.04491e-05
1.36281e-06
0.000135098
8.69368e-06
1.10785e-05
1.39419e-05
1.13269e-05
9.43729e-07
4.04599e-06
2.89954e-06
-3.46552e-05
-3.62121e-05
-3.06889e-05
-3.13797e-05
-3.79354e-06
6.49704e-06
4.75222e-05
-5.41896e-06
-1.78642e-06
-3.22315e-06
7.19295e-06
6.93964e-06
7.65106e-06
-2.73503e-05
-2.51929e-05
-2.20627e-05
-2.13408e-05
-7.95851e-06
-1.60564e-06
7.3165e-06
1.78204e-06
-4.28499e-07
-8.29932e-07
1.17018e-06
1.17823e-07
-1.15386e-05
1.57857e-06
-3.69042e-06
1.50096e-05
-2.5276e-05
5.35288e-06
-1.05741e-05
7.63799e-06
2.93563e-05
-6.81243e-06
-9.34049e-06
7.89868e-06
8.25302e-06
-4.26357e-07
3.75538e-07
-1.79786e-07
2.37069e-07
8.80371e-07
4.65971e-07
-4.64331e-07
-9.22407e-07
-2.12774e-06
1.71004e-06
-4.95969e-06
-3.0359e-06
4.44085e-06
3.97245e-06
-1.52029e-06
-5.67772e-06
3.84476e-06
-5.62534e-06
4.48036e-06
4.49823e-06
-1.24969e-05
-5.44433e-08
-7.03419e-07
8.46445e-07
7.25089e-06
5.15739e-06
-1.8744e-06
-1.40962e-06
-1.95835e-05
-2.32819e-06
4.54673e-06
2.0649e-05
-2.78922e-05
2.70916e-05
0.000111709
-6.79842e-06
-5.75591e-06
-4.84004e-06
-3.16981e-06
8.62817e-06
1.39228e-05
9.17267e-06
1.48026e-05
-1.42061e-06
1.93511e-06
2.01337e-06
-4.65838e-06
-6.94763e-06
-2.20178e-06
-4.3588e-06
-2.82538e-07
2.44361e-08
4.45564e-06
-8.60352e-07
-2.29219e-07
-3.91125e-07
-8.27786e-08
-4.58305e-08
-1.61891e-07
-6.08859e-08
-2.37182e-06
1.23215e-09
1.53444e-07
1.90996e-06
-8.09838e-06
1.46123e-06
-1.81459e-06
8.4509e-06
3.083e-06
-4.40366e-05
-6.07457e-06
-6.8431e-06
3.40607e-06
5.04652e-05
-1.32635e-05
4.48215e-06
0.000201597
1.02256e-05
8.30454e-06
1.28551e-05
1.08215e-05
1.04426e-06
-9.86182e-06
1.56796e-06
-1.97571e-07
-6.96815e-07
2.62293e-06
-1.87035e-07
-1.32071e-07
-4.68273e-08
-7.02053e-07
-5.94925e-07
-4.74811e-07
-6.69686e-07
-3.36617e-08
-2.6544e-07
1.52409e-07
6.18807e-07
-2.78071e-05
2.35033e-06
-7.09576e-06
-1.04206e-06
3.39298e-05
-3.35141e-07
-1.26812e-05
1.8507e-06
0.000110392
9.99877e-06
7.8296e-06
1.08088e-05
7.84381e-06
6.89713e-08
2.50197e-06
9.66813e-07
4.34325e-07
1.16629e-06
1.92908e-05
-9.16552e-07
5.39905e-07
4.10583e-07
2.30788e-06
2.71673e-07
1.47427e-06
1.53227e-07
2.20285e-07
-2.31727e-09
-6.33685e-07
-1.54443e-07
7.26436e-09
-6.34365e-07
7.36458e-07
-2.02053e-05
1.47517e-06
-2.96348e-06
2.35448e-05
-3.32044e-05
4.08346e-06
-7.90478e-06
4.9709e-06
3.32211e-05
-7.78746e-06
-3.70935e-06
5.31687e-06
6.18631e-06
-1.91369e-07
1.844e-07
-2.13885e-07
2.04627e-07
7.94855e-07
4.35526e-07
-7.07623e-07
-5.6116e-07
-2.70072e-07
5.87886e-07
-3.2473e-06
-1.23348e-06
2.70512e-06
1.45785e-06
2.52586e-08
-4.17158e-06
1.6403e-06
-2.53471e-06
1.11022e-06
3.93052e-06
-4.36787e-06
-3.61841e-07
9.59087e-07
8.79307e-07
3.22968e-06
-3.38362e-07
7.64252e-07
-5.55451e-06
-2.32561e-05
3.24203e-06
4.53236e-07
2.43511e-05
7.45139e-07
3.86049e-06
0.000105183
-5.29885e-06
-9.53604e-07
-5.22642e-06
-6.35707e-07
1.81356e-06
5.78529e-06
1.01542e-06
5.42084e-06
2.63594e-06
-9.01047e-07
9.36526e-06
-9.24352e-07
-3.8509e-06
-5.66977e-07
-2.99942e-06
-3.18563e-07
-1.26412e-06
1.1504e-05
-9.36998e-07
-2.1722e-07
-6.20266e-07
-2.03015e-07
-3.3043e-07
-2.54306e-07
-2.67514e-07
-1.65217e-06
3.07737e-07
-4.36908e-07
1.4875e-06
-9.22093e-06
9.98663e-07
-1.10646e-06
9.32985e-06
1.03922e-06
-5.68795e-05
-2.73521e-06
-3.23345e-06
5.09695e-07
6.12993e-05
1.09263e-05
-1.78297e-05
0.000204916
2.68057e-06
6.0242e-07
2.91879e-06
1.24302e-06
4.3586e-06
-8.25796e-06
1.54926e-05
-2.66504e-07
-6.07434e-07
9.53567e-06
-2.08113e-07
-1.45847e-07
-1.16826e-07
-3.39351e-07
-1.5227e-06
-6.11487e-07
-6.45546e-07
2.38946e-07
-1.93381e-07
-9.18834e-08
4.25361e-07
-3.82761e-05
2.09289e-06
-3.57181e-06
-5.14855e-07
3.79343e-05
2.33556e-06
7.34772e-06
-8.67421e-07
8.8963e-05
4.0309e-06
9.28884e-07
3.78512e-06
-2.10201e-07
-2.41634e-06
-2.85475e-06
-6.14493e-06
1.45681e-06
-4.68568e-06
2.80831e-05
1.50794e-06
6.4171e-06
3.08079e-06
-5.70692e-06
-8.10279e-06
-3.66981e-06
1.07013e-07
4.70873e-07
-9.95592e-07
1.26708e-06
-1.0084e-06
-3.61993e-08
-5.72747e-08
1.13279e-06
-2.67676e-05
1.40574e-06
-2.2648e-06
2.67612e-05
-3.40304e-05
3.33058e-06
-2.89973e-06
5.28639e-07
2.83852e-05
-3.47883e-06
2.15783e-06
-8.87622e-07
2.25943e-06
-2.85285e-07
3.90968e-08
-1.50412e-07
3.53858e-07
2.22779e-07
2.24406e-07
-8.53633e-07
2.76976e-07
3.84646e-07
-1.08107e-07
-3.6848e-07
1.55593e-07
-7.37623e-07
6.73971e-07
2.21839e-07
-3.03407e-06
6.44093e-08
-5.42408e-08
3.6705e-07
2.43501e-06
-3.67756e-06
-6.21703e-07
2.37612e-06
6.52755e-07
3.42783e-06
-2.15744e-06
1.82369e-06
-4.726e-06
-2.54539e-05
8.64618e-06
-4.21224e-06
2.39222e-05
1.80076e-05
-4.88761e-06
0.000112739
-1.55938e-06
-5.12617e-07
-1.51716e-07
-1.79942e-07
-4.76382e-06
-2.7691e-06
-7.01608e-06
-3.72397e-06
4.22601e-06
3.76473e-07
2.59029e-05
-7.74331e-07
-1.49365e-06
-3.0987e-07
-5.54642e-07
-4.68345e-07
-1.71952e-08
2.40828e-05
-4.84723e-07
-1.24926e-06
-5.11843e-07
-1.16336e-06
3.53771e-08
-2.5188e-06
-1.97461e-06
-1.45751e-06
7.73081e-07
-9.02647e-07
1.11864e-06
-6.91431e-06
1.35497e-06
2.50098e-06
3.0715e-06
-5.17141e-06
-6.44656e-05
2.32254e-06
5.6178e-06
-4.00998e-06
6.57067e-05
3.78825e-05
-2.74495e-05
0.000223213
-6.96942e-06
-8.52973e-06
-8.03508e-06
-1.00837e-05
7.26656e-06
-7.36855e-06
5.38535e-05
-4.06832e-07
-2.17043e-06
3.056e-05
-7.25563e-07
-2.36294e-06
-1.87114e-06
-1.79704e-06
-2.66179e-06
-1.77922e-06
-1.82625e-07
5.47295e-07
7.10978e-07
-6.64428e-07
-8.18053e-07
-3.40769e-05
-4.40257e-07
4.7497e-06
-1.19825e-06
2.30101e-05
7.95562e-06
2.23231e-05
-9.9553e-06
8.73094e-05
-3.13641e-06
-8.13503e-06
-6.51534e-06
-6.31483e-06
-8.42907e-06
-3.33053e-06
-2.30252e-06
4.5643e-06
-2.79846e-06
4.06472e-05
2.48282e-06
1.44384e-06
4.73415e-07
-1.63161e-06
-1.5423e-06
-6.01608e-07
-4.2968e-06
3.27537e-06
-8.6116e-07
4.27646e-06
-1.6373e-06
6.04287e-07
-6.99666e-07
1.73292e-06
-2.57376e-05
6.44284e-07
-1.21085e-06
1.6357e-05
-1.75384e-05
-1.52529e-06
5.39513e-06
-1.48801e-06
1.23582e-05
-4.68974e-06
4.15649e-07
-5.13536e-06
9.40527e-06
-3.48066e-07
-8.71579e-08
3.77678e-08
3.19461e-07
-1.10714e-06
2.57975e-07
-2.54111e-06
3.33945e-06
5.07349e-07
6.6889e-08
-1.13318e-06
8.35876e-08
-1.24128e-06
1.71664e-06
2.98791e-07
-2.00499e-06
-2.47026e-07
6.19338e-07
-1.95654e-07
1.52954e-06
-2.7238e-06
2.21753e-07
1.34803e-06
-1.39845e-06
3.48464e-06
-9.32171e-07
6.3011e-06
8.52043e-07
-2.12093e-05
7.78314e-06
-1.01274e-05
1.64005e-05
3.26478e-05
-1.50571e-05
0.000121945
2.74509e-06
2.09863e-06
5.26762e-06
6.51016e-06
-1.19467e-05
-9.0754e-06
-1.11496e-05
-1.12467e-05
8.7664e-06
1.17445e-06
5.05255e-05
-3.56675e-07
-5.84308e-07
-2.03713e-07
-7.70954e-07
-5.88682e-07
5.58815e-07
3.11146e-05
1.5296e-06
-1.02739e-07
1.91343e-06
3.3073e-07
-6.91851e-07
-5.02894e-07
-7.11828e-07
1.44241e-06
-7.43208e-08
-2.51594e-06
1.43648e-06
-8.77309e-07
6.24067e-07
-2.79828e-08
9.20913e-08
-6.88177e-07
-1.50983e-06
4.29459e-07
-1.00946e-06
2.02992e-06
-3.70614e-06
-6.23425e-05
6.69651e-06
1.44727e-05
-4.12495e-06
4.90044e-05
6.48999e-05
-4.99287e-06
0.000205262
-1.36272e-05
-1.50508e-05
-1.42722e-05
-1.40622e-05
3.52378e-05
-1.04401e-05
9.51302e-05
1.1198e-06
-7.4222e-07
5.71265e-05
2.69847e-06
1.74755e-06
2.84899e-06
1.18834e-07
1.67377e-07
1.27132e-06
3.0994e-06
-5.89146e-07
-9.74954e-07
5.78785e-07
-9.94281e-07
-1.47442e-08
6.52904e-08
-2.04534e-09
2.16045e-08
-7.0107e-08
-1.26499e-05
5.7425e-07
1.55107e-06
5.29513e-07
9.80155e-06
1.93539e-07
1.54147e-05
4.1474e-07
7.89193e-05
-9.07532e-06
-2.183e-06
-3.48914e-06
-1.7934e-06
1.36624e-06
1.85195e-06
8.90416e-07
-1.79386e-06
-3.38388e-07
5.68774e-05
-1.5782e-06
-1.24771e-06
-7.04369e-07
-1.24402e-06
-2.02007e-06
-2.32895e-06
-4.30183e-06
-1.93344e-06
-1.8577e-06
5.5569e-06
-1.67204e-06
-7.76067e-07
1.45538e-06
9.92725e-07
-1.10936e-05
-3.19705e-07
2.18469e-06
9.65193e-06
-1.10108e-05
-1.16873e-06
3.48049e-07
6.31705e-07
1.08614e-05
-1.055e-05
1.42525e-06
3.32477e-07
8.79225e-06
-5.86479e-07
-3.95889e-07
-1.68529e-07
1.15135e-06
-5.52076e-06
-6.75832e-07
2.51169e-07
5.94542e-06
1.12857e-06
-8.5164e-07
-3.25441e-06
8.41859e-07
-2.01051e-06
4.14613e-06
6.40168e-07
-1.62263e-06
-3.67297e-07
-4.08052e-07
-4.72533e-07
2.23034e-06
-4.88312e-06
5.81585e-07
-1.93004e-06
-1.16588e-06
5.99135e-06
1.4061e-06
6.60178e-07
1.13455e-06
-1.23677e-05
2.00995e-07
-2.6417e-06
1.30137e-05
2.13341e-05
-1.1949e-05
0.000133283
4.18696e-06
2.43663e-06
2.16316e-06
1.52499e-06
-5.47843e-06
-1.32592e-05
-4.25076e-06
-8.0465e-06
3.64723e-06
2.62437e-06
6.45573e-05
8.29829e-09
-3.0395e-07
8.65689e-07
4.60635e-07
-2.38351e-06
-3.51158e-07
3.94822e-05
1.46958e-06
6.70912e-07
1.16934e-06
5.8853e-07
-2.25244e-06
-1.83654e-06
-1.79511e-06
7.15415e-07
-5.59217e-07
-4.201e-06
1.4682e-06
1.93095e-07
3.90587e-06
-2.04292e-06
4.36486e-06
-3.6634e-06
1.66463e-06
-4.22905e-06
-3.17954e-06
-7.74502e-07
5.19787e-07
3.43426e-06
9.3982e-07
-3.60425e-05
1.49679e-06
3.7802e-06
-9.17299e-08
2.99174e-05
5.10357e-05
-8.5917e-07
0.00018743
-1.48657e-05
-1.35739e-05
-9.53949e-06
-6.31432e-06
4.94432e-05
-1.07142e-05
0.000110061
3.85528e-06
1.13616e-06
7.85264e-05
5.56668e-06
4.88388e-06
5.89692e-06
2.38804e-06
1.59452e-06
2.3707e-06
-1.31208e-06
-8.17075e-07
-7.66012e-08
1.15666e-06
4.90437e-06
-5.66191e-07
-1.44868e-06
1.21603e-06
-1.74559e-06
1.11185e-06
1.43259e-06
-1.21177e-05
2.39718e-07
-3.74721e-08
-8.8183e-07
1.12309e-05
1.56635e-06
6.39075e-06
1.17337e-07
8.42129e-05
-1.88047e-06
-2.01872e-06
-2.56353e-06
-2.32626e-06
-9.28677e-07
-1.22526e-06
-1.71799e-06
-4.64287e-07
-1.97189e-06
6.13678e-05
-1.18579e-06
1.0811e-06
-1.39235e-06
-2.22098e-06
-1.43302e-06
-1.22657e-06
-7.81149e-06
-3.10825e-07
-4.51811e-07
9.246e-06
-2.43913e-07
-3.15536e-06
1.40235e-06
1.7982e-07
1.81711e-06
-1.40835e-06
-1.50865e-07
-3.23116e-08
1.59152e-06
-1.20828e-05
3.21602e-07
-1.93524e-06
1.38138e-05
-1.00059e-05
1.33305e-06
-2.42065e-06
-7.5024e-07
9.87185e-06
-5.77596e-06
-1.19075e-07
2.58152e-06
3.31352e-06
-1.68317e-06
-3.3388e-07
-1.86655e-07
2.20371e-06
-5.00353e-06
4.95631e-07
1.20677e-06
3.30112e-06
7.30623e-07
-1.35459e-06
-4.39999e-06
8.25289e-07
-2.8151e-07
4.48018e-06
9.8316e-07
-3.53138e-06
9.58932e-08
-8.02212e-07
-1.4829e-06
4.73744e-06
-6.09215e-06
9.60402e-07
-1.7008e-06
-3.84433e-07
5.67768e-06
1.5393e-06
-1.49831e-06
-3.52184e-07
-1.08915e-05
2.66963e-06
1.09037e-06
8.98198e-06
1.37704e-05
-7.65479e-06
0.000146875
6.42824e-07
6.31459e-07
9.09764e-07
1.63354e-06
-4.53041e-06
-7.3938e-06
-4.93092e-06
-6.66956e-06
-3.82074e-06
3.40955e-06
7.65844e-05
8.17901e-07
7.40386e-08
1.00618e-06
2.56461e-07
-1.44421e-06
1.76091e-07
3.86414e-05
5.17913e-07
2.68292e-07
3.57412e-07
6.29341e-08
-1.63919e-06
-7.42326e-07
-5.36778e-07
-2.93562e-07
-4.28435e-07
-7.88697e-07
4.85681e-07
-4.19197e-07
4.42703e-06
5.64568e-07
4.84086e-07
-6.26051e-07
-5.67802e-07
-4.28183e-06
-3.44555e-06
-1.03637e-06
4.70317e-07
4.01161e-06
3.47442e-06
-3.06777e-05
5.56767e-07
-6.67563e-07
-2.95461e-06
3.02687e-05
3.89109e-05
-1.16899e-05
0.000180874
-7.66967e-06
-6.71016e-06
-7.47345e-06
-6.46715e-06
4.0189e-05
-9.47369e-06
0.000121666
4.44129e-06
1.68157e-06
9.12741e-05
5.19644e-06
4.83349e-06
5.09805e-06
2.25349e-06
2.11979e-06
1.99331e-06
-7.80536e-06
3.19076e-07
1.59105e-06
4.59624e-07
9.8769e-06
-9.47175e-07
7.80313e-07
-8.75622e-08
3.28505e-07
-6.55062e-07
5.80982e-07
-8.80718e-06
-1.38361e-06
1.87e-06
-9.51104e-07
7.70996e-06
1.56193e-06
3.70703e-06
-2.54951e-06
8.64655e-05
-3.47407e-06
-1.42324e-06
-2.18937e-06
-8.45918e-07
-2.34159e-06
-2.82074e-06
-2.00511e-06
1.79125e-08
-1.0042e-06
6.31719e-05
-2.36537e-06
4.19124e-07
-2.37496e-06
-4.33299e-07
-1.24017e-06
-5.89859e-07
-1.10941e-05
7.90547e-08
7.81485e-07
1.19331e-05
-2.86884e-06
-1.46905e-06
2.33611e-06
-5.46638e-07
2.54842e-06
-1.69457e-06
2.09123e-07
-8.02469e-07
9.68076e-07
1.31984e-06
-1.42753e-05
1.47643e-06
-3.11034e-06
1.33597e-05
-9.23437e-06
2.22215e-06
-2.84702e-06
8.99813e-07
7.95523e-06
-2.17813e-06
-1.09367e-06
1.4347e-06
1.8371e-06
-2.75132e-06
-4.51688e-07
-7.06888e-08
3.27369e-06
-2.23649e-06
2.19423e-07
1.08343e-07
1.90873e-06
7.727e-07
-5.6513e-07
-4.79517e-06
1.25723e-07
-1.08039e-06
5.54227e-06
8.69902e-07
-5.40483e-06
1.37726e-07
3.63305e-09
-1.4366e-06
5.83018e-06
-5.21897e-06
1.00137e-07
5.83549e-08
1.63323e-07
4.92701e-06
-2.98527e-08
-9.34384e-07
6.62928e-07
-7.04293e-06
6.10368e-07
1.57901e-06
5.125e-06
1.49389e-05
-3.17033e-06
0.000152007
8.81949e-07
1.37876e-06
1.39892e-06
2.17846e-06
-4.51914e-06
-8.42145e-06
-3.20087e-06
-6.59771e-06
-3.12046e-06
3.91084e-06
8.90938e-05
7.32301e-07
-3.69058e-08
8.04089e-07
1.39596e-07
-2.09272e-07
1.746e-06
3.55996e-05
-1.31459e-07
-1.74259e-07
-1.7301e-07
-4.23557e-07
-2.3749e-08
-5.94606e-07
-9.48327e-08
1.15227e-06
-9.07119e-07
5.79958e-07
3.01181e-07
-1.33556e-06
4.56004e-06
-1.01329e-06
9.19362e-07
-2.2167e-06
-2.2494e-06
-4.50605e-06
-6.25352e-07
4.46673e-07
4.68473e-06
-2.23081e-08
-2.64396e-05
-3.56872e-07
4.20299e-06
3.43038e-07
2.22728e-05
3.7928e-05
-1.51954e-05
0.000187197
-9.7824e-06
-7.9253e-06
-8.07088e-06
-6.44677e-06
3.11648e-05
-5.8646e-06
0.000138205
3.82909e-06
1.46837e-06
0.000103875
3.52421e-06
3.51314e-06
2.6503e-06
1.95477e-06
1.78659e-06
1.583e-06
-1.14614e-05
6.92642e-07
2.54067e-06
1.83547e-07
1.18736e-05
-8.42537e-07
2.67785e-06
-2.88044e-06
2.57881e-06
-1.71084e-06
1.77145e-07
-8.33448e-06
-1.50681e-06
1.33919e-06
-1.54104e-07
9.22451e-06
-5.68303e-07
-2.57844e-07
-3.11957e-06
8.55079e-05
-1.92979e-06
-7.98612e-07
-5.65577e-07
-1.58584e-06
-2.56427e-06
-1.58783e-06
-1.82843e-06
-8.00427e-07
-1.15083e-06
6.76141e-05
-2.64935e-06
-3.92342e-07
-2.67168e-06
-7.37926e-07
-1.19413e-06
-9.67972e-07
-1.36851e-05
-3.13643e-07
3.80872e-07
1.42858e-05
-1.52295e-06
-1.84446e-06
1.89122e-06
1.47618e-06
-1.21591e-05
-1.98817e-07
-8.92549e-07
1.01309e-05
-6.73985e-06
-5.45978e-07
8.80025e-08
-7.7892e-07
6.82591e-06
-1.75501e-06
-4.51597e-07
4.9354e-07
1.71306e-06
-3.68886e-06
-7.26323e-07
4.0003e-07
4.01516e-06
-1.96114e-06
-8.58385e-07
4.83204e-07
2.33632e-06
6.70101e-07
6.39864e-07
-6.37595e-06
-7.9552e-07
-1.21065e-06
7.07215e-06
4.4055e-07
-6.05814e-06
4.87679e-07
-2.00042e-07
-9.3243e-07
6.26239e-06
-4.92526e-06
-4.00551e-07
2.16445e-07
1.00684e-07
5.10676e-06
-9.80711e-08
-9.41138e-07
6.35923e-07
-3.92474e-06
-1.04335e-06
1.4961e-06
3.77721e-06
1.33574e-05
4.20252e-07
0.000145581
9.90533e-07
1.39198e-06
9.09601e-07
1.6421e-06
-1.26496e-06
-6.07606e-06
-4.30018e-07
-4.51445e-06
2.60179e-07
2.43814e-06
9.89006e-05
3.42857e-07
-8.75782e-08
4.18071e-07
1.78946e-07
2.07087e-07
2.08479e-06
3.34571e-05
-1.10114e-07
-8.25831e-08
1.08625e-07
2.44253e-07
1.19277e-07
-2.54471e-07
8.58326e-08
2.28537e-06
1.35022e-06
-1.69402e-06
-1.73448e-06
-4.68329e-06
6.39078e-08
9.88401e-08
4.52054e-06
-5.41337e-07
-1.80565e-05
-6.75475e-07
3.92014e-06
1.83639e-06
1.35168e-05
3.97134e-05
-1.23773e-05
0.000187053
-9.03972e-06
-6.24194e-06
-7.03478e-06
-4.45534e-06
3.02353e-05
-4.45185e-06
0.000154573
2.76821e-06
1.33861e-06
0.000118369
2.00152e-06
3.01248e-06
2.47322e-06
1.87488e-06
2.15149e-06
2.20581e-06
-1.44766e-05
1.42275e-06
2.10656e-06
-4.67049e-07
1.41826e-05
-1.01783e-05
-1.704e-06
5.80821e-07
2.49147e-06
1.09755e-05
-2.16544e-06
-1.41262e-06
-7.86433e-07
8.56683e-05
-7.64234e-07
-2.24851e-06
-9.68503e-07
-2.37635e-06
-1.70126e-06
-7.16118e-07
-1.56373e-06
-1.13847e-06
-9.40006e-07
7.24729e-05
-2.89109e-06
-3.79798e-07
-3.02003e-06
-7.35585e-07
-9.70156e-07
-6.48107e-07
-1.58836e-05
-6.49993e-07
4.58061e-07
1.62757e-05
-1.07886e-06
-1.9908e-06
2.26536e-06
8.04298e-07
-8.55124e-06
-1.53422e-06
1.58874e-06
7.71029e-06
-7.50302e-06
-1.10878e-06
5.25086e-07
-1.10578e-06
8.25249e-06
-1.62574e-06
-2.9409e-07
4.10734e-07
1.5091e-06
-4.37133e-06
-6.02623e-07
1.34525e-07
4.83943e-06
-2.82333e-06
-1.73142e-06
1.248e-06
3.30675e-06
2.47702e-07
1.53665e-06
-7.60266e-06
-1.60971e-06
-5.85011e-07
8.01303e-06
-1.1387e-07
-6.4764e-06
1.10372e-06
-7.40871e-07
-5.82699e-07
6.81012e-06
-5.4794e-06
-1.26206e-07
-7.19818e-07
-5.02212e-07
6.34454e-06
4.83094e-07
-1.18709e-06
2.50248e-07
-4.0964e-06
-1.50232e-06
2.00079e-06
4.53478e-06
1.28186e-05
1.7945e-06
0.00013553
4.70106e-07
6.8372e-07
3.46766e-07
8.94065e-07
1.03591e-07
-4.41581e-06
2.4637e-07
-2.89133e-06
4.6362e-06
1.47034e-06
0.000104396
1.01111e-07
8.16473e-08
5.22751e-07
5.11423e-07
7.98376e-09
8.55798e-07
3.17474e-05
1.05399e-06
1.37639e-06
1.31224e-06
1.557e-06
3.91121e-07
-4.25795e-07
2.17152e-07
1.0589e-06
1.8982e-06
-2.74805e-06
-2.01063e-07
-3.85408e-06
2.61532e-07
9.31312e-07
2.66123e-06
-1.41528e-06
-9.86996e-06
-8.78223e-07
3.63028e-06
8.62547e-07
7.67063e-06
3.93249e-05
-1.19747e-05
0.00018495
-8.21581e-06
-4.88594e-06
-6.6671e-06
-3.68382e-06
3.15746e-05
-2.26438e-06
0.000166058
3.44442e-06
2.07751e-06
0.000127123
2.94977e-06
3.63656e-06
2.81467e-06
2.75583e-06
3.11549e-06
2.8823e-06
-1.35733e-05
1.87141e-06
2.18566e-06
-4.87875e-07
1.34485e-05
-1.09647e-05
-1.78493e-06
1.66783e-06
2.31826e-06
9.94156e-06
-1.17799e-06
-2.49619e-06
-1.03282e-06
8.88505e-05
-1.91479e-06
-2.03292e-06
-1.67185e-06
-1.21752e-06
-1.69438e-06
-1.36557e-06
-1.7308e-06
-1.05088e-06
-3.93376e-07
7.60379e-05
-3.15239e-06
-3.03518e-07
-3.27056e-06
-4.25115e-08
-1.7873e-07
6.64056e-08
-1.76405e-05
-3.06567e-07
1.15514e-06
1.78186e-05
-9.92069e-07
-1.90898e-06
1.51705e-06
1.384e-06
-7.33552e-06
-1.86489e-07
-6.99898e-07
7.18909e-06
-8.62673e-06
3.41827e-07
-9.57763e-07
-1.22551e-07
8.97184e-06
-1.32762e-06
-9.14689e-07
1.07546e-06
1.16685e-06
-5.28267e-06
1.34185e-07
-2.62721e-07
5.4112e-06
-3.72219e-06
-1.93954e-06
1.67422e-06
3.98751e-06
-3.57965e-07
1.91958e-06
-8.47936e-06
-1.9685e-06
8.21785e-09
8.87802e-06
3.76101e-07
-7.06711e-06
1.40457e-06
-1.08582e-06
-8.65205e-07
7.23746e-06
-7.28616e-06
-2.07871e-08
-1.02822e-06
-8.50052e-07
8.35276e-06
8.32464e-07
-1.25788e-06
-2.83379e-07
-4.97185e-06
-9.81826e-07
2.1138e-06
5.38114e-06
1.44309e-05
3.31424e-06
0.000124143
-9.70867e-08
2.25706e-07
-2.4323e-07
6.78846e-07
-7.82326e-08
-4.18438e-06
-3.46551e-07
-2.31312e-06
4.73279e-06
2.26884e-06
0.000108811
4.47536e-07
4.89799e-07
1.12506e-06
9.5186e-07
-5.53208e-07
-6.8203e-07
3.07641e-05
1.91179e-06
2.21718e-06
1.90329e-06
1.95826e-06
5.59731e-08
-9.55016e-07
-1.40111e-07
-3.60996e-07
2.04246e-06
-3.09874e-06
8.64068e-07
-1.53012e-06
-5.64186e-07
1.18117e-06
9.13135e-07
-1.14031e-06
-6.72893e-06
-1.33411e-06
2.97909e-06
-1.22948e-07
6.34721e-06
3.6942e-05
-1.02316e-05
0.000181638
-7.23575e-06
-4.24379e-06
-5.21518e-06
-3.39e-06
2.95941e-05
1.48968e-06
0.000174185
3.49614e-06
3.01094e-06
0.000130127
2.82881e-06
3.52022e-06
2.64793e-06
3.18508e-06
4.01791e-06
3.20098e-06
-1.35856e-05
2.13446e-06
2.22671e-06
-8.6471e-07
1.35853e-05
-8.54453e-06
-1.12142e-06
1.0887e-06
-2.19896e-08
7.59245e-06
1.00679e-06
-3.29443e-06
-1.3955e-06
9.00505e-05
-1.58746e-06
-1.70848e-07
-7.75187e-07
3.10376e-07
-1.58407e-06
-1.42514e-06
-1.50937e-06
-1.16366e-06
6.06957e-07
8.00013e-05
-3.20691e-06
-6.05899e-07
-3.31865e-06
5.41555e-07
7.87748e-07
5.90693e-07
-1.90792e-05
-1.95451e-07
2.10683e-06
1.90151e-05
-1.68939e-06
-1.38564e-06
1.00379e-06
2.07124e-06
-6.79483e-06
1.31286e-06
-2.14893e-06
6.2354e-06
-8.9368e-06
1.47739e-06
-1.93587e-06
1.01776e-06
8.98448e-06
-1.10631e-06
-1.55866e-06
1.48862e-06
1.17634e-06
-5.08244e-06
5.20949e-07
2.89452e-07
4.27204e-06
-4.16809e-06
-1.71491e-06
1.5801e-06
4.3029e-06
-7.08821e-07
1.92388e-06
-9.23028e-06
-2.11245e-06
8.12959e-07
9.31473e-06
6.54357e-07
-7.38337e-06
1.47665e-06
-1.0076e-06
-1.26307e-06
7.52303e-06
-9.22128e-06
-4.09704e-07
-1.09921e-07
-3.95597e-07
9.633e-06
5.03505e-07
-8.45595e-07
-6.00487e-07
-5.63325e-06
3.03595e-07
9.58691e-07
5.81704e-06
1.26909e-05
7.53969e-06
0.000108307
-9.50154e-07
-1.94519e-07
-1.10739e-06
1.56426e-07
-9.89884e-07
-9.16536e-07
-1.31964e-06
9.27456e-07
1.39784e-06
2.735e-06
0.000112567
1.09504e-06
7.46279e-07
1.76513e-06
1.19511e-06
-1.26018e-06
-1.13456e-06
3.17523e-05
1.59116e-06
1.54034e-06
1.49862e-06
1.04598e-06
-5.55397e-07
-1.59122e-06
-7.25062e-07
-1.31e-06
1.55012e-06
-3.24327e-06
1.74297e-06
-6.51406e-07
-8.12535e-07
8.88568e-07
5.75373e-07
-1.04694e-06
-6.5339e-06
-1.39315e-06
1.97037e-06
-3.17286e-07
7.32091e-06
3.2007e-05
-6.92043e-06
0.000179664
-4.92367e-06
-3.89194e-06
-3.50492e-06
-3.25233e-06
2.54206e-05
4.57942e-06
0.000178927
3.37748e-06
3.34823e-06
0.000128591
2.69322e-06
3.47663e-06
2.63154e-06
3.09241e-06
4.16047e-06
3.04268e-06
-1.3772e-05
2.51091e-06
2.35171e-06
-1.52346e-06
1.38103e-05
-7.00539e-06
4.87923e-07
-6.94465e-07
-1.54722e-06
6.74168e-06
2.01747e-06
-3.62334e-06
-1.11321e-06
9.05675e-05
-4.10464e-07
5.3625e-07
1.97578e-07
5.53649e-07
-1.3361e-06
-9.59505e-07
-1.28231e-06
-1.57176e-06
1.37231e-06
8.43948e-05
-3.10056e-06
-9.72323e-07
-2.98369e-06
1.12014e-06
1.48361e-06
1.21488e-06
-2.00289e-05
-2.29704e-07
2.64086e-06
1.93942e-05
-2.50139e-06
-7.72818e-07
2.85845e-07
2.98836e-06
-5.60889e-06
1.53827e-06
-2.28286e-06
5.24027e-06
-8.81087e-06
2.01775e-06
-2.33558e-06
1.62797e-06
8.87304e-06
-1.34917e-06
-1.75173e-06
1.4515e-06
1.6494e-06
-3.48956e-06
1.36135e-07
1.81819e-07
3.17161e-06
-4.4253e-06
-1.41469e-06
1.34168e-06
4.49831e-06
-6.1446e-07
1.69393e-06
-9.3556e-06
-2.0585e-06
1.04875e-06
9.28588e-06
1.00061e-06
-7.63361e-06
1.58122e-06
-9.98983e-07
-1.53569e-06
7.58646e-06
-9.7466e-06
-5.56921e-07
2.13932e-07
5.38853e-09
9.58041e-06
5.03792e-07
-8.17321e-07
-4.69635e-07
-6.0797e-06
9.77758e-07
3.34089e-08
6.35549e-06
3.15135e-06
8.71669e-06
0.00010423
-1.50511e-06
-5.30359e-07
-1.50728e-06
-2.29137e-07
-1.11212e-06
-3.86849e-07
-1.3757e-06
-1.14471e-06
-4.29263e-06
2.87002e-08
0.000113091
1.8019e-06
1.17248e-06
2.31183e-06
1.60489e-06
-1.86626e-06
-1.66299e-06
3.23034e-05
1.0081e-06
6.0537e-07
1.05017e-06
4.73098e-07
-1.10255e-06
-2.05154e-06
-1.2972e-06
-2.2937e-06
6.67018e-07
-3.00461e-06
2.76503e-06
-6.08259e-07
-5.05465e-07
3.82467e-07
7.31257e-07
-7.11777e-07
-8.1342e-06
-1.07954e-07
1.73047e-06
-1.22281e-06
8.44627e-06
2.68418e-05
-6.35006e-06
0.000180201
-4.00132e-06
-3.52441e-06
-2.81152e-06
-1.97475e-06
2.09519e-05
5.34478e-06
0.000179501
3.3468e-06
3.2773e-06
0.000123138
2.76636e-06
3.33637e-06
2.69306e-06
2.7647e-06
3.97781e-06
2.57889e-06
-1.39904e-05
2.76794e-06
2.58765e-06
-2.22182e-06
1.42035e-05
-6.44108e-06
1.08438e-06
-1.71909e-06
-1.31499e-06
6.32119e-06
2.06959e-06
-3.62785e-06
-5.63767e-07
8.94544e-05
1.70108e-07
5.70324e-07
6.08862e-07
5.37507e-07
-1.24722e-06
-4.46165e-07
-1.23869e-06
-1.88888e-06
1.76033e-06
8.70068e-05
-2.50358e-06
-1.23162e-06
-2.25931e-06
1.67352e-06
1.85232e-06
1.70208e-06
-1.99623e-05
-3.36897e-07
2.77086e-06
1.89167e-05
-3.56609e-06
-2.33633e-07
-2.61575e-07
4.0613e-06
-5.05352e-06
1.37297e-06
-2.08029e-06
5.19708e-06
-8.91652e-06
2.17885e-06
-2.44798e-06
1.87642e-06
9.06957e-06
-1.93017e-06
-1.58507e-06
1.19019e-06
2.32505e-06
-3.10546e-06
1.61256e-08
-5.05888e-08
3.13992e-06
-4.58275e-06
-1.27588e-06
1.16112e-06
4.69751e-06
-2.24495e-07
1.49639e-06
-9.12471e-06
-1.86174e-06
7.44073e-07
8.97047e-06
1.05612e-06
-7.55211e-06
1.69455e-06
-1.09547e-06
-1.70064e-06
7.59755e-06
-9.33338e-06
-4.8732e-07
2.22218e-07
1.16558e-07
8.92658e-06
5.55346e-07
-6.2936e-07
-3.93173e-07
-6.61775e-06
1.3058e-06
-7.50452e-07
7.08493e-06
-5.46474e-06
7.31113e-06
0.000108878
-1.36528e-06
-5.4375e-07
-1.1669e-06
-1.19824e-07
-6.5685e-07
-1.23122e-06
-7.79643e-07
-6.3067e-07
-7.12719e-06
-2.34295e-06
0.000108799
2.1264e-06
1.5062e-06
2.69585e-06
1.96945e-06
-1.90977e-06
-4.1657e-06
3.38879e-05
7.10596e-07
3.65652e-07
6.59372e-07
3.66844e-07
-1.39785e-06
-2.03694e-06
-1.30382e-06
-3.22686e-06
6.47495e-07
-3.11371e-06
3.78331e-06
-9.1415e-07
-1.2516e-07
-1.08025e-07
1.14733e-06
-1.23944e-07
-8.59084e-06
1.52109e-06
9.41284e-07
-2.52331e-06
8.77571e-06
2.31909e-05
-8.28733e-06
0.000180047
-3.24938e-06
-2.13422e-06
-1.52898e-06
-5.26085e-07
1.6462e-05
5.53267e-06
0.000178354
2.9276e-06
2.74903e-06
0.000115158
2.52429e-06
2.84324e-06
2.38655e-06
1.94062e-06
3.14728e-06
1.75772e-06
-1.45992e-05
2.80977e-06
2.33326e-06
-2.64043e-06
1.50242e-05
-6.22777e-06
7.62554e-07
-1.79666e-06
-9.66985e-07
6.23163e-06
1.99723e-06
-4.29184e-06
-3.2321e-07
8.494e-05
7.03588e-07
8.52375e-07
1.17299e-06
1.07479e-06
-1.32099e-06
-3.18999e-07
-1.32172e-06
-1.74716e-06
2.02647e-06
8.55792e-05
-1.51804e-06
-8.42404e-07
-1.2489e-06
2.03794e-06
2.00768e-06
1.95287e-06
-1.91122e-05
-1.60745e-07
2.55526e-06
1.77196e-05
-4.63446e-06
2.65864e-07
-7.25404e-07
5.094e-06
-5.4485e-06
1.37256e-06
-1.94453e-06
5.69725e-06
-9.22921e-06
2.18038e-06
-2.30523e-06
1.95471e-06
9.42582e-06
-2.66951e-06
-1.18489e-06
7.18202e-07
3.1362e-06
-3.27793e-06
-4.98729e-08
-1.9356e-07
3.52136e-06
-4.90586e-06
-1.27523e-06
1.00216e-06
5.17893e-06
2.54959e-07
1.51071e-06
-8.84572e-06
-1.96775e-06
-3.18839e-09
9.05098e-06
1.46489e-06
-7.73515e-06
2.13949e-06
-1.37128e-06
-2.41479e-06
7.91684e-06
-8.44652e-06
-3.12663e-07
-3.60285e-07
2.39818e-07
8.26585e-06
6.138e-07
-1.81103e-07
-2.11474e-07
-7.46947e-06
9.83403e-07
-1.23149e-06
8.11013e-06
-8.07478e-06
4.12605e-06
0.000113569
-5.00967e-07
-2.67223e-08
-1.52398e-07
5.97445e-07
-2.36508e-07
-6.42077e-07
-2.89135e-08
2.47988e-07
-5.89129e-06
-6.15744e-06
0.000101661
2.91222e-06
2.10095e-06
3.54328e-06
2.55569e-06
-1.35188e-06
-7.15017e-06
3.7216e-05
3.92964e-07
4.29344e-07
4.29816e-07
7.54754e-07
-7.83179e-07
-1.37965e-06
-5.6147e-07
-4.20604e-06
1.60047e-06
-3.66026e-06
4.91395e-06
-1.39609e-06
-5.44461e-09
-2.39662e-07
1.6412e-06
-8.44972e-08
-9.46113e-06
2.22395e-06
-1.19044e-08
-3.00923e-06
1.03428e-05
1.84235e-05
-7.79931e-06
0.000178469
-2.12582e-06
-1.12635e-06
-1.20159e-06
-4.664e-07
1.11094e-05
5.56584e-06
0.000173945
2.52164e-06
1.7026e-06
0.00010493
1.97125e-06
2.58393e-06
1.65027e-06
9.5741e-07
1.99625e-06
8.03639e-07
-1.54709e-05
2.77005e-06
1.91834e-06
-2.42852e-06
1.57327e-05
-6.2617e-06
9.11438e-07
-1.91422e-06
-1.42582e-06
6.54382e-06
2.14648e-06
-5.52728e-06
1.46731e-07
7.48821e-05
1.93369e-06
2.30717e-06
2.65552e-06
2.44372e-06
-8.41603e-07
-8.44097e-09
-8.50852e-07
-4.36684e-07