/*--------------------------------*- C++ -*----------------------------------*\
| =========                 |                                                 |
| \\      /  F ield         | OpenFOAM: The Open Source CFD Toolbox           |
|  \\    /   O peration     | Version:  5.x                                   |
|   \\  /    A nd           | Web:      www.OpenFOAM.org                      |
|    \\/     M anipulation  |                                                 |
\*---------------------------------------------------------------------------*/
FoamFile
{
    version     2.0;
    format      ascii;
    class       volScalarField;
    location    "8.6";
    object      p;
}
// * * * * * * * * * * * * * * * * * * * * * * * * * * * * * * * * * * * * * //

dimensions      [0 2 -2 0 0 0 0];

internalField   nonuniform List<scalar> 
10571
(
140.106
146.882
146.854
140.298
136.748
143.115
134.781
129.17
125.511
126.019
130.949
131.963
125.684
130.155
128.611
127.746
125.636
121.529
127.416
128.182
126.796
125.181
128.421
129.025
99.4504
92.1771
98.0516
101.896
88.5058
96.639
68.7704
64.4489
60.5825
77.5343
100.985
103.258
78.5105
51.9498
65.4621
84.0251
100.411
94.6352
93.347
101.236
87.4857
98.9955
100.865
95.1018
3.23738
2.88944
4.12062
4.68385
3.18282
3.58893
2.7837
2.53755
2.26415
3.16126
4.00049
6.43054
2.93257
2.47016
2.72791
4.13331
5.9754
3.27858
3.22412
9.30127
4.68493
10.9718
17.5262
8.13251
2.67083
2.61625
2.61521
2.61973
2.62314
2.61014
2.12707
2.16537
2.20428
2.59988
2.66606
2.58057
2.04329
2.25972
2.14182
2.46958
2.60683
1.88449
1.9888
2.26967
2.46701
2.31628
2.23203
2.32014
2.47014
2.50561
2.4759
2.46667
2.48411
2.46215
2.59613
2.61433
2.51559
2.42501
2.45478
2.44339
2.67642
2.63988
2.54944
2.43339
2.43914
2.58738
2.59937
2.33301
2.39954
2.38618
2.39069
2.38281
2.44622
2.46693
2.45167
2.45328
2.4608
2.44318
2.46322
2.47179
2.46713
2.46226
2.48329
2.43789
2.43972
2.49387
2.49687
2.47437
2.4584
2.47785
2.43464
2.4582
2.46894
2.39916
2.43134
2.42961
2.43757
2.42923
2.45872
2.45892
2.44724
2.45906
2.45029
2.45038
2.45248
2.46273
2.49991
2.47408
2.48281
2.4502
2.44664
2.46491
2.48068
2.48204
2.46421
2.48097
2.44579
2.46423
2.48725
2.45998
2.4611
2.47692
2.45701
2.4707
2.46755
2.46622
2.46484
2.45234
2.46645
2.47251
2.46053
2.47312
2.48035
2.51221
2.47264
2.4734
2.46122
2.45793
2.49318
2.48787
2.48973
2.47191
2.47411
2.46386
2.49123
2.50452
2.48793
2.47516
2.47423
2.47764
2.49031
2.48753
2.47109
2.47523
2.47085
2.4706
2.47898
2.47516
2.48588
2.47915
2.49958
2.47089
2.48051
2.47338
2.46938
2.50377
2.48524
2.48907
2.47361
2.48081
2.48008
2.49829
2.49625
2.49223
2.47688
2.48856
2.49395
2.49269
2.47831
2.47549
2.49379
2.4713
2.47316
2.47836
2.48654
2.47249
2.48251
2.46106
2.48309
2.48189
2.49951
2.48084
2.48801
2.4773
2.48624
2.49404
2.48832
2.49069
2.47991
2.48926
2.49446
2.49371
2.48865
2.47589
2.49701
2.48973
2.48308
2.47811
2.49495
2.47268
2.47113
2.47134
2.48669
2.48653
2.49464
2.47887
2.48814
2.47501
2.48386
2.48844
2.48746
2.49117
2.48856
2.49122
2.49544
2.49487
2.49616
2.48052
2.4965
2.50697
2.48872
2.47837
2.51163
2.48647
2.46991
2.48118
2.48724
2.48319
2.49436
2.481
2.49048
2.48275
2.47545
2.4856
2.48794
2.49434
2.49618
2.49648
2.49997
2.50147
2.5027
2.48773
2.49766
2.5053
2.49086
2.48274
2.51019
2.48967
2.47988
2.49014
2.48301
2.47496
2.49686
2.4865
2.49862
2.49012
2.47158
2.49022
2.49397
2.5016
2.50247
2.50478
2.50925
2.50733
2.50366
2.49079
2.49428
2.50889
2.49162
2.48191
2.49112
2.49054
2.48177
2.49577
2.48282
2.47598
2.48892
2.49231
2.50511
2.49774
2.47422
2.4886
2.4988
2.50351
2.50691
2.50608
2.50983
2.50626
2.49765
2.48947
2.48838
2.50099
2.49149
2.48216
2.46674
2.48224
2.48265
2.49728
2.49215
2.48402
2.47841
2.49448
2.5062
2.50277
2.48351
2.48385
2.4983
2.49609
2.50499
2.50162
2.50202
2.48989
2.50591
2.49054
2.48164
2.4955
2.49536
2.48754
2.46048
2.47402
2.4872
2.49677
2.50475
2.4957
2.48704
2.49779
2.50802
2.50394
2.49933
2.49368
2.50279
2.48314
2.50003
2.50771
2.50222
2.47215
2.5085
2.49818
2.48393
2.48799
2.49949
2.49606
2.47977
2.48365
2.49298
2.49788
2.51684
2.50825
2.50079
2.50527
2.50903
2.506
2.50933
2.51498
2.51204
2.48941
2.50234
2.55
2.51979
2.48397
2.50097
2.50973
2.4965
2.49119
2.50012
2.50634
2.49735
2.4948
2.50056
2.50125
2.521
2.51594
2.50405
2.51001
2.50796
2.50882
2.50042
2.51953
2.511
2.5089
2.51035
2.56283
2.52747
2.5059
2.5059
2.51831
2.50934
2.50093
2.50158
2.51943
2.50967
2.501
2.51137
2.50617
2.5197
2.51862
2.49876
2.50241
2.50525
2.5119
2.50032
2.51158
2.51242
2.51746
2.51439
2.52445
2.52748
2.54612
2.51207
2.51901
2.51371
2.50792
2.50366
2.52285
2.51729
2.50742
2.51706
2.51037
2.51909
2.52038
2.50004
2.49769
2.50362
2.51292
2.50598
2.5008
2.51128
2.51697
2.51515
2.51493
2.5179
2.5355
2.51555
2.51402
2.51256
2.51196
2.50723
2.51645
2.51639
2.51033
2.51939
2.51354
2.51184
2.51322
2.50955
2.4989
2.5066
2.51341
2.51185
2.49668
2.51007
2.51484
2.51619
2.51676
2.52204
2.52323
2.518
2.51151
2.51301
2.5144
2.51145
2.51179
2.51451
2.51188
2.51889
2.51542
2.50529
2.50339
2.51841
2.50438
2.51088
2.51276
2.51675
2.50144
2.50999
2.51526
2.51787
2.51919
2.52182
2.52145
2.52081
2.51146
2.51366
2.51668
2.5156
2.51064
2.51221
2.51294
2.51673
2.51539
2.51913
2.51255
2.52466
2.50887
2.51462
2.51237
2.5217
2.50509
2.51124
2.51709
2.51974
2.52063
2.52253
2.52255
2.52396
2.51532
2.51782
2.52041
2.51754
2.51204
2.50402
2.51095
2.51264
2.51326
2.52853
2.5213
2.51585
2.51156
2.51616
2.51265
2.52909
2.50741
2.51148
2.51654
2.52007
2.52126
2.52218
2.52179
2.5268
2.52185
2.53146
2.52798
2.52071
2.51329
2.49818
2.51128
2.50938
2.51156
2.5227
2.51503
2.49617
2.50711
2.51461
2.51258
2.51713
2.5028
2.50863
2.51341
2.51786
2.51468
2.51738
2.51684
2.52693
2.5218
2.53341
2.52912
2.52014
2.51416
2.50272
2.51119
2.50964
2.51101
2.51215
2.50556
2.48659
2.50184
2.51324
2.51196
2.49465
2.4957
2.50402
2.50923
2.51468
2.50417
2.51071
2.50999
2.5191
2.51673
2.52191
2.51807
2.51328
2.51254
2.5045
2.50928
2.51106
2.51038
2.50289
2.49809
2.48751
2.49816
2.51088
2.51038
2.48026
2.4916
2.49975
2.50588
2.5117
2.49806
2.50574
2.50524
2.51083
2.51149
2.51246
2.50793
2.50495
2.50954
2.50115
2.50763
2.50991
2.50942
2.49735
2.4951
2.49114
2.49895
2.5077
2.50835
2.48333
2.49245
2.49799
2.50474
2.50925
2.49793
2.50359
2.50417
2.50623
2.50796
2.50765
2.50003
2.50035
2.50644
2.49863
2.50409
2.50533
2.50778
2.49564
2.49441
2.4944
2.50024
2.50213
2.50732
2.49005
2.49329
2.49879
2.50348
2.50621
2.50006
2.50317
2.50541
2.50539
2.50614
2.50576
2.49961
2.50282
2.50369
2.49933
2.49752
2.49943
2.5064
2.49727
2.49547
2.49618
2.49962
2.49934
2.50717
2.49541
2.49429
2.49952
2.50397
2.5048
2.502
2.5031
2.5073
2.50627
2.50535
2.50481
2.50013
2.50344
2.50244
2.49965
2.49661
2.49454
2.5056
2.50056
2.49718
2.49578
2.50039
2.50046
2.50677
2.49954
2.496
2.50267
2.50613
2.50889
2.50412
2.50358
2.50884
2.50826
2.5056
2.50493
2.5035
2.50448
2.50267
2.49791
2.50145
2.49263
2.50555
2.50311
2.49834
2.49426
2.50471
2.50545
2.5117
2.50286
2.49801
2.50525
2.50872
2.51255
2.50745
2.50538
2.51077
2.50958
2.507
2.50575
2.50638
2.50676
2.50421
2.50016
2.50452
2.49666
2.50509
2.50457
2.4989
2.49497
2.50919
2.51553
2.5161
2.50618
2.50218
2.51059
2.51215
2.51615
2.51211
2.51
2.51335
2.50994
2.50937
2.50751
2.50734
2.50903
2.50672
2.5055
2.50203
2.50447
2.50596
2.50644
2.49965
2.49863
2.51142
2.52196
2.51837
2.50955
2.50861
2.51465
2.51978
2.52207
2.51531
2.5147
2.51893
2.50981
2.51242
2.50969
2.50679
2.50976
2.50992
2.50941
2.50127
2.50915
2.50735
2.51013
2.50257
2.50515
2.51078
2.51914
2.51763
2.51397
2.51328
2.51958
2.52742
2.52459
2.51804
2.51907
2.5234
2.51064
2.51598
2.5121
2.50707
2.50931
2.51395
2.51184
2.50552
2.51322
2.51065
2.51653
2.50843
2.51264
2.50883
2.51536
2.51538
2.51885
2.51611
2.51978
2.5232
2.52096
2.5205
2.52014
2.52175
2.51326
2.5195
2.51527
2.51076
2.51024
2.51697
2.51563
2.51158
2.51565
2.51374
2.52377
2.51598
2.52154
2.51243
2.51084
2.51383
2.52317
2.51886
2.51504
2.51464
2.5162
2.52333
2.51969
2.51529
2.51693
2.52159
2.51889
2.51516
2.51249
2.51611
2.51992
2.51737
2.51708
2.51607
2.52754
2.52126
2.52659
2.52057
2.50901
2.51388
2.5245
2.52075
2.51533
2.50692
2.51281
2.52573
2.51876
2.507
2.52068
2.52175
2.52196
2.5192
2.516
2.51325
2.52194
2.52107
2.51875
2.51816
2.52812
2.52499
2.52863
2.52375
2.51292
2.51574
2.52613
2.5211
2.5145
2.50553
2.51267
2.52669
2.51873
2.5069
2.52419
2.52156
2.52424
2.52261
2.51985
2.51307
2.52312
2.52304
2.5211
2.52073
2.52928
2.52686
2.5284
2.52466
2.51927
2.51909
2.5295
2.52045
2.51768
2.51069
2.51634
2.52712
2.52128
2.51397
2.52728
2.52307
2.5262
2.52563
2.52331
2.51531
2.52374
2.52456
2.52316
2.52342
2.53058
2.52743
2.52489
2.52678
2.52405
2.52275
2.53186
2.52321
2.52125
2.52028
2.52158
2.52701
2.52421
2.52329
2.52992
2.52577
2.52838
2.52812
2.52605
2.51824
2.52418
2.52612
2.52496
2.52586
2.53125
2.52738
2.52084
2.52748
2.52713
2.52591
2.53894
2.52599
2.52375
2.52493
2.52553
2.52747
2.52806
2.53432
2.53192
2.52855
2.53024
2.52993
2.52846
2.52222
2.52546
2.52774
2.52726
2.52816
2.5314
2.52803
2.52256
2.52852
2.52926
2.5284
2.53475
2.529
2.52949
2.52792
2.52855
2.52963
2.52924
2.52901
2.53288
2.53115
2.53095
2.53116
2.53072
2.5264
2.52706
2.52936
2.52903
2.53033
2.53175
2.52946
2.52574
2.5302
2.53124
2.53059
2.53706
2.53231
2.53198
2.53167
2.53149
2.53824
2.53013
2.52829
2.53346
2.53342
2.53117
2.53228
2.53252
2.53009
2.52986
2.53215
2.53055
2.53238
2.53236
2.53109
2.52798
2.53103
2.53277
2.53274
2.53664
2.53419
2.5346
2.53534
2.53436
2.54057
2.53285
2.53107
2.53338
2.53425
2.53139
2.53243
2.533
2.53152
2.53357
2.53625
2.53186
2.53434
2.53345
2.53248
2.52997
2.53229
2.53438
2.53506
2.53619
2.53421
2.53535
2.53836
2.53676
2.53455
2.53218
2.53692
2.53315
2.53347
2.53389
2.53191
2.53218
2.53104
2.53441
2.53813
2.5322
2.53598
2.53387
2.53317
2.53182
2.5346
2.5354
2.53696
2.53635
2.5331
2.53444
2.53867
2.53837
2.53051
2.53055
2.53751
2.53124
2.53098
2.53312
2.52987
2.53
2.52926
2.53204
2.53563
2.53242
2.5368
2.53309
2.5324
2.53291
2.53785
2.53598
2.53817
2.53652
2.53343
2.53468
2.53854
2.53938
2.53205
2.53307
2.53722
2.5292
2.52781
2.52991
2.52535
2.52735
2.52751
2.5295
2.53349
2.53238
2.53663
2.53154
2.53015
2.53216
2.53921
2.53497
2.53782
2.53588
2.5339
2.53695
2.53797
2.53908
2.53494
2.53765
2.53787
2.53292
2.52556
2.52769
2.52915
2.53131
2.52622
2.52684
2.53255
2.53165
2.535
2.53001
2.52766
2.52898
2.53665
2.53221
2.53539
2.53414
2.53267
2.5358
2.5359
2.53695
2.53605
2.53749
2.5368
2.54173
2.52559
2.52638
2.53377
2.53529
2.52603
2.52419
2.53078
2.52902
2.53106
2.53031
2.52678
2.5252
2.53238
2.5284
2.53133
2.53213
2.53033
2.53333
2.53273
2.53345
2.53476
2.53497
2.5344
2.53884
2.52734
2.52518
2.53266
2.53376
2.52745
2.52182
2.52772
2.52494
2.52606
2.53285
2.52835
2.52333
2.52822
2.52512
2.52761
2.53163
2.52869
2.53066
2.52964
2.52979
2.53343
2.5326
2.5317
2.5346
2.53061
2.52566
2.52943
2.52987
2.53008
2.52201
2.52635
2.52149
2.52238
2.53667
2.53202
2.52212
2.52654
2.52317
2.52479
2.53434
2.52711
2.52874
2.52734
2.52699
2.53275
2.53121
2.52976
2.5322
2.53447
2.52765
2.52754
2.52702
2.53359
2.52475
2.52557
2.51988
2.51957
2.54081
2.53802
2.52517
2.52475
2.52261
2.52215
2.54414
2.53063
2.52812
2.52604
2.52489
2.53416
2.53128
2.5289
2.53065
2.5358
2.5301
2.52692
2.52531
2.53405
2.52727
2.5243
2.51866
2.51743
2.54171
2.5393
2.52906
2.52274
2.52227
2.51986
2.54858
2.53481
2.52826
2.5254
2.52334
2.53783
2.53274
2.52893
2.5293
2.53414
2.53099
2.5263
2.52386
2.53359
2.52804
2.52287
2.51723
2.51557
2.54084
2.53894
2.53244
2.52222
2.52028
2.51738
2.54923
2.53817
2.52776
2.52539
2.52159
2.55018
2.53479
2.5293
2.52797
2.53236
2.53055
2.52534
2.52196
2.53319
2.52862
2.5223
2.51452
2.51282
2.54031
2.53824
2.53492
2.52271
2.51664
2.51328
2.54759
2.53971
2.52901
2.52363
2.51851
2.55222
2.53699
2.52956
2.52642
2.53199
2.53016
2.52387
2.51863
2.53347
2.52836
2.52045
2.50891
2.50582
2.54124
2.53986
2.53669
2.52284
2.51034
2.5045
2.54673
2.54105
2.52994
2.52078
2.5126
2.54653
2.53835
2.52958
2.52444
2.53271
2.53041
2.5221
2.51341
2.53497
2.52961
2.516
2.49641
2.49082
2.54305
2.54254
2.54112
2.52069
2.49877
2.48717
2.5487
2.54627
2.53059
2.51546
2.50127
2.54743
2.54335
2.52929
2.52265
2.53422
2.53111
2.52029
2.506
2.53708
2.53114
2.50848
2.47566
2.4593
2.54531
2.5456
2.54648
2.51667
2.48052
2.44694
2.5523
2.55407
2.5316
2.50807
2.48016
2.55129
2.54468
2.5271
2.52234
2.53576
2.5323
2.51923
2.49687
2.53902
2.53328
2.49919
2.44087
2.39583
2.54767
2.54876
2.55268
2.51047
2.45111
2.35789
2.55655
2.55825
2.53143
2.49622
2.44004
2.55477
2.54145
2.52451
2.52473
2.53714
2.53412
2.52037
2.48804
2.539
2.52991
2.49057
2.393
2.23876
2.54952
2.54937
2.55276
2.49992
2.41112
2.15251
2.56003
2.5588
2.53465
2.48228
2.36396
2.55677
2.54019
2.52264
2.53105
2.5393
2.5371
2.52581
2.4853
2.53791
2.5304
2.48009
2.34932
1.85522
2.54924
2.54501
2.54717
2.49004
2.37261
1.84314
-2.22265
2.56112
2.56321
2.53765
2.46818
2.19033
2.55927
2.54383
2.52549
2.5419
2.54401
2.5441
2.53655
2.49656
2.53736
2.52693
2.49267
2.3548
1.69174
0.0527435
2.54239
2.53371
2.53572
2.50475
2.37674
1.8822
0.0108741
2.56094
2.56558
2.54152
2.47899
2.0158
2.56025
2.55061
2.53253
2.55606
2.55258
2.55251
2.54939
2.52521
2.54111
2.51891
2.50839
2.42881
1.97938
0.498114
2.53238
2.52327
2.52712
2.51437
2.43242
1.97834
0.519523
2.55998
2.56037
2.55383
2.50995
2.22678
0.725993
2.56269
2.55744
2.54935
2.56882
2.56648
2.56319
2.56252
2.5536
2.55365
2.52845
2.52568
2.49085
2.1694
0.568934
2.54546
2.53422
2.52151
2.51891
2.47229
2.14059
0.457487
2.56302
2.56406
2.56524
2.5307
2.32113
2.57512
2.56481
2.56333
2.58102
2.57408
2.57525
2.57894
2.57283
2.56523
2.55119
2.54639
2.53688
2.30021
2.56272
2.55185
2.53416
2.53427
2.52775
2.26129
-0.647718
2.56708
2.56462
2.56838
2.5607
2.52747
2.57974
2.57147
2.57491
2.58843
2.5783
2.58136
2.58499
2.5737
2.5675
2.56498
2.56738
2.54873
2.50212
2.571
2.56109
2.54759
2.54842
2.53698
2.48215
2.5692
2.56555
2.56792
2.56719
2.573
2.57967
2.57676
2.57903
2.58459
2.58013
2.58006
2.57848
2.56848
2.56961
2.56569
2.56431
2.54399
2.53665
2.57276
2.56318
2.54983
2.54484
2.53014
2.52749
2.56675
2.55435
2.55359
2.55423
2.56779
2.57608
2.56973
2.57066
2.57835
2.57755
2.57424
2.57199
2.56477
2.56744
2.55911
2.55839
2.54069
2.54779
2.57023
2.56018
2.54527
2.53929
2.52392
2.53654
2.5591
2.53766
2.53816
2.53853
2.55434
2.56317
2.55966
2.55997
2.57509
2.57394
2.56954
2.56801
2.56459
2.56411
2.5551
2.55793
2.5434
2.55617
2.56536
2.55559
2.54071
2.53547
2.52354
2.54395
2.54743
2.51986
2.53084
2.53277
2.54898
2.54335
2.54953
2.55127
2.57389
2.57129
2.56753
2.56675
2.56684
2.56244
2.55565
2.56
2.55346
2.56467
2.56088
2.55274
2.53836
2.53521
2.53366
2.55424
2.53952
2.51341
2.53108
2.53449
2.55322
2.52363
2.54215
2.54875
2.5739
2.57044
2.56772
2.56745
2.56982
2.56319
2.55909
2.56503
2.56115
2.57227
2.55995
2.55441
2.54526
2.54331
2.53924
2.5676
2.53874
2.51942
2.54428
2.54526
2.56582
2.51766
2.54962
2.55995
2.57439
2.57098
2.56895
2.56876
2.57229
2.5649
2.56302
2.56481
2.56823
2.57546
2.56212
2.55836
2.55532
2.55933
2.56682
2.57851
2.54768
2.54566
2.55954
2.56387
2.58278
2.54392
2.57698
2.59159
2.57515
2.57132
2.56984
2.56989
2.57322
2.56582
2.56472
2.5663
2.57004
2.57735
2.56371
2.56037
2.55849
2.56309
2.56927
2.58261
2.55647
2.55351
2.56646
2.57847
2.59524
2.57209
2.59898
2.6155
164.967
159.637
165.865
166.097
155.631
163.729
161.984
160.953
161.296
165.8
166.861
163.984
161.301
163.399
161.41
159.395
158.139
159.308
159.456
153.754
150.402
160.698
158.348
149.828
152.934
151.714
158.464
151.079
154.714
159.783
157.253
153.841
152.734
152.387
143.381
141.52
138.186
139.168
137.199
138.086
137.117
135.471
139.334
135.554
138.102
143.593
144.046
143.018
145.074
152.268
149.982
149.254
144.202
147.562
138.94
135.958
136.535
132.618
135.676
137.664
137.699
137.345
137.659
137.075
138.864
138.132
139.048
144.319
142.772
141.565
149.688
148.816
136.751
152.294
145.764
130.37
134.922
135.97
136.255
137
138.768
137.682
139.758
140.627
145.582
147.593
151.917
147.032
152.583
147.195
144.794
146.987
146.274
148.981
148.366
154.946
147.528
133.279
142.151
147.709
146.319
133.301
135.026
131.889
143.506
140.635
131.866
128.859
125.139
137.989
119.934
143.761
130.269
147.971
146.052
145.984
131.047
134.203
133.67
133.437
133.365
130.761
130.3
117.686
113.37
116.908
113.695
128.327
109.331
142.036
134.899
139.07
131.137
126.546
127.586
127.75
124.021
111.809
114.396
110.144
134.018
129.912
124.622
122.297
118.035
123.846
126.197
115.102
111.19
115.909
127.356
113.818
122.613
125.186
124.06
113.416
116.458
111.164
113.943
128.103
128.117
127.954
120.934
116.831
117.991
113.359
113.672
125.184
112.236
126.641
125.649
114.171
116.927
113.885
128.856
127.068
118.209
117.546
115.017
114.779
94.8203
48.8585
99.0952
96.3301
97.7419
53.652
52.356
55.0533
98.3505
95.6837
56.5663
56.7208
55.3027
90.4712
50.7762
93.1632
46.8857
94.2286
93.7362
96.9966
46.7912
51.3285
50.7669
53.8202
82.3124
92.3593
83.3778
50.9597
39.452
53.5868
41.734
78.0672
35.8886
95.1053
98.8443
98.1514
52.9805
60.7994
58.8693
81.2087
77.1716
37.2201
42.7974
43.0031
100.673
100.317
65.2158
65.6809
70.463
79.4374
85.74
47.3826
45.1514
50.1425
99.0019
72.8351
106.82
98.2927
101.595
75.8876
81.8671
72.5582
75.4107
92.9904
96.8467
91.5394
62.3738
55.7835
63.7981
56.9086
50.5955
98.4698
71.1997
101.433
99.6907
71.7209
73.3793
75.4208
98.3412
99.1175
72.1143
68.3189
73.3638
63.9796
2.94616
2.10884
3.06669
3.25199
3.55856
1.91388
1.97262
1.92273
4.31498
4.0026
1.89386
1.9304
1.93478
3.07607
2.07132
2.75272
2.01755
3.47976
3.14545
3.72077
2.104
2.0766
2.03719
1.97599
2.71333
3.35941
2.85778
2.01352
2.06039
1.85572
1.96731
2.75121
1.92195
3.18066
3.4289
4.00824
1.92062
1.9292
1.9178
3.27494
4.95403
1.67876
1.8284
1.6784
4.83899
5.11418
1.84463
1.84344
1.75481
5.46991
6.00332
1.86438
1.67661
1.72297
4.10922
1.79145
8.70259
3.64684
4.89432
1.78135
1.67006
1.80131
1.72273
5.36009
8.45302
4.09579
2.11997
1.91717
2.06708
1.83838
1.78432
5.13019
1.92305
14.1693
13.1243
2.10186
2.25663
2.10615
14.525
15.1217
2.34795
2.27105
2.16874
2.03543
2.6246
2.28079
2.66594
2.64486
2.66165
2.34346
2.33543
2.34159
2.65232
2.65941
2.3512
2.33478
2.35203
2.63368
2.2836
2.63458
2.31123
2.62639
2.63302
2.63306
2.31488
2.33853
2.32722
2.32312
2.58039
2.6183
2.59214
2.34295
2.30666
2.32285
2.31556
2.58801
2.29572
2.655
2.66259
2.6629
2.33616
2.32531
2.33656
2.52765
2.54447
2.33677
2.26695
2.34336
2.65329
2.66887
2.34138
2.34252
2.36371
2.47883
2.49015
2.23945
2.3315
2.30554
2.64712
2.34868
2.50435
2.59256
2.55585
2.35263
2.34884
2.35801
2.34522
2.40568
2.30171
2.4125
2.29344
2.27605
2.3002
2.31457
2.31248
2.48728
2.35663
2.263
2.2448
2.32849
2.34149
2.35329
2.25657
2.22945
2.36153
2.34123
2.36076
2.33752
2.52546
2.41828
2.46753
2.47705
2.46946
2.4454
2.42853
2.4437
2.47489
2.48005
2.44599
2.44343
2.43646
2.52993
2.41829
2.49655
2.41166
2.49186
2.49107
2.48038
2.41362
2.40953
2.40648
2.40933
2.49232
2.44496
2.45725
2.39404
2.4103
2.3888
2.3749
2.44991
2.38695
2.4703
2.47506
2.46491
2.42483
2.43174
2.42998
2.42774
2.42037
2.42803
2.39559
2.24518
2.44978
2.44934
2.43439
2.4323
2.43658
2.43722
2.41451
2.38939
2.28527
2.41676
2.45155
2.42924
2.41179
2.44095
2.42996
2.42862
2.39277
2.42823
2.39775
2.41505
2.3972
2.4407
2.34507
2.39078
2.37959
2.41911
2.40268
2.41961
2.39277
2.39118
2.40139
2.38421
2.40252
2.41813
2.38256
2.40586
2.40852
2.40805
2.42604
2.3914
2.45923
2.44227
2.44458
2.44623
2.4456
2.45136
2.44681
2.45069
2.44581
2.44751
2.45378
2.45485
2.45038
2.45792
2.43598
2.45691
2.44655
2.46362
2.45943
2.44017
2.44158
2.43797
2.44327
2.43264
2.47574
2.42379
2.4728
2.4238
2.43436
2.42994
2.42661
2.46315
2.42871
2.44618
2.44337
2.43986
2.45038
2.44983
2.44781
2.4711
2.44682
2.52669
2.45941
2.48763
2.43833
2.47151
2.48832
2.47638
2.48663
2.48709
2.48769
2.49203
2.48791
2.43501
2.43941
2.44425
2.44226
2.44443
2.53414
2.44474
2.47763
2.45222
2.47479
2.45743
2.48197
2.48723
2.4799
2.48647
2.48738
2.48654
2.48293
2.48549
2.43453
2.436
2.38467
2.44083
2.42434
2.43232
2.39496
2.43211
2.41188
2.44008
2.43149
2.4547
2.43315
2.44898
2.44556
2.46025
2.44761
2.42331
2.42059
2.43077
2.43548
2.43926
2.44469
2.44941
2.43398
2.44286
2.45541
2.4522
2.46057
2.44959
2.45325
2.4557
2.45733
2.44975
2.4563
2.46146
2.45379
2.46044
2.45868
2.45378
2.46236
2.46172
2.4616
2.44559
2.45509
2.45712
2.4619
2.45508
2.4559
2.43664
2.45558
2.45438
2.45843
2.44754
2.4655
2.45624
2.48039
2.45145
2.45058
2.46509
2.46484
2.46443
2.48776
2.45543
2.48344
2.47983
2.4869
2.4751
2.48536
2.45657
2.45493
2.45412
2.46364
2.46065
2.46147
2.49499
2.45197
2.48671
2.46901
2.48247
2.45931
2.48924
2.48631
2.48292
2.48531
2.47508
2.4838
2.47744
2.48384
2.44954
2.45165
2.45594
2.45606
2.45907
2.48693
2.46718
2.48886
2.4706
2.48987
2.4702
2.48592
2.48441
2.48017
2.48431
2.47699
2.48265
2.47643
2.48301
2.44691
2.45448
2.42206
2.44817
2.43193
2.45244
2.44657
2.45104
2.44002
2.46326
2.46159
2.47123
2.47765
2.47408
2.47465
2.48007
2.48717
2.46968
2.48743
2.48453
2.47489
2.48366
2.4454
2.45256
2.45879
2.46234
2.46715
2.47089
2.47347
2.47043
2.47635
2.48282
2.48489
2.48681
2.48081
2.4626
2.46784
2.46401
2.45945
2.46298
2.46623
2.46604
2.46471
2.46553
2.46926
2.46927
2.46835
2.47477
2.46669
2.47392
2.46735
2.47182
2.46289
2.46438
2.46031
2.47078
2.47096
2.46871
2.4745
2.47754
2.47498
2.48352
2.47932
2.47699
2.47545
2.4811
2.46913
2.48344
2.46006
2.48561
2.47467
2.48466
2.47624
2.48644
2.46646
2.46617
2.46871
2.46504
2.47112
2.47112
2.48384
2.4645
2.48825
2.47323
2.48786
2.46696
2.48932
2.48345
2.47378
2.48337
2.47697
2.48564
2.47606
2.4845
2.46209
2.46396
2.46712
2.46768
2.46897
2.48827
2.47308
2.48713
2.47132
2.48635
2.47526
2.484
2.48212
2.47449
2.48236
2.47552
2.4834
2.47577
2.48318
2.46391
2.4718
2.46824
2.46507
2.45667
2.47302
2.48268
2.47505
2.47301
2.47987
2.48354
2.48574
2.49215
2.48213
2.48851
2.48758
2.4865
2.47619
2.484
2.4831
2.47475
2.48372
2.46975
2.4826
2.48172
2.48343
2.48529
2.4894
2.4909
2.49189
2.49332
2.49332
2.4952
2.49706
2.49011
2.47095
2.4729
2.4683
2.47334
2.46501
2.47269
2.48309
2.46816
2.46963
2.47712
2.47363
2.47186
2.47784
2.47754
2.47847
2.47471
2.47582
2.47361
2.47354
2.4847
2.47584
2.47013
2.47855
2.48296
2.48096
2.47541
2.48369
2.47722
2.48118
2.47396
2.4849
2.47068
2.4698
2.46486
2.47561
2.47031
2.46841
2.48014
2.4711
2.49526
2.46998
2.4918
2.46363
2.4922
2.47217
2.48999
2.48888
2.4827
2.48718
2.48536
2.48796
2.48797
2.48796
2.47318
2.47492
2.47888
2.47863
2.48021
2.489
2.4783
2.48972
2.47487
2.4852
2.4775
2.4878
2.48624
2.47528
2.48561
2.48807
2.48746
2.47985
2.48469
2.47822
2.48259
2.49097
2.48302
2.48519
2.48438
2.49511
2.48828
2.49293
2.48147
2.49116
2.4878
2.4918
2.48235
2.49254
2.48803
2.47826
2.49272
2.4984
2.49374
2.49505
2.49001
2.49605
2.49695
2.49497
2.4975
2.49464
2.49599
2.49714
2.49361
2.47737
2.47945
2.47872
2.48846
2.47347
2.48674
2.48885
2.48117
2.47587
2.47892
2.48355
2.48021
2.48116
2.47862
2.47974
2.47435
2.47274
2.47342
2.47786
2.46876
2.47541
2.47753
2.47448
2.45499
2.4806
2.47126
2.4827
2.47568
2.48264
2.46814
2.48268
2.47184
2.47492
2.47207
2.48355
2.47462
2.47384
2.48509
2.47782
2.47485
2.49947
2.46596
2.47
2.4526
2.48303
2.48384
2.48551
2.48567
2.48575
2.50158
2.4757
2.47159
2.46152
2.47746
2.48466
2.48483
2.49455
2.49015
2.49587
2.48608
2.49044
2.48881
2.49427
2.48409
2.49337
2.49182
2.49043
2.48769
2.49425
2.49593
2.48401
2.49927
2.49702
2.49611
2.49668
2.48978
2.49621
2.49606
2.49569
2.49607
2.49474
2.49475
2.49521
2.49416
2.48186
2.48515
2.49391
2.48844
2.4882
2.50099
2.48937
2.49567
2.48372
2.48294
2.49296
2.48546
2.48435
2.48199
2.48445
2.47169
2.47522
2.48015
2.47221
2.45892
2.47697
2.48181
2.47295
2.47292
2.48511
2.45966
2.48133
2.48836
2.48668
2.45802
2.48176
2.47637
2.47848
2.47506
2.48432
2.47957
2.47756
2.48347
2.48087
2.47384
2.47671
2.47655
2.47715
2.47951
2.48741
2.48565
2.48756
2.48797
2.48282
2.48197
2.48198
2.47913
2.48478
2.48663
2.48322
2.48054
2.48338
2.48506
2.48886
2.47991
2.47753
2.48016
2.48182
2.49107
2.4948
2.49709
2.49236
2.49504
2.49729
2.49963
2.49252
2.4933
2.49062
2.49604
2.49544
2.49365
2.49661
2.49578
2.49391
2.49514
2.49735
2.49424
2.49616
2.4978
2.48879
2.49219
2.50913
2.49105
2.50628
2.51455
2.49541
2.51472
2.48964
2.48769
2.49974
2.49518
2.49217
2.48666
2.48998
2.47992
2.48427
2.48362
2.47837
2.48122
2.48459
2.48571
2.48284
2.4848
2.48773
2.46467
2.48398
2.48883
2.48918
2.47709
2.48828
2.48227
2.48705
2.47997
2.48551
2.48301
2.48314
2.48713
2.48461
2.48059
2.48298
2.48573
2.48495
2.48725
2.48579
2.47963
2.48535
2.48224
2.47731
2.48831
2.49052
2.4862
2.49202
2.49335
2.4775
2.47532
2.4709
2.47601
2.47542
2.47238
2.46819
2.47366
2.47226
2.49933
2.50113
2.50239
2.49822
2.5026
2.50562
2.5053
2.49934
2.48915
2.49044
2.49849
2.49786
2.50023
2.50086
2.50076
2.49601
2.49845
2.50474
2.49973
2.50241
2.50461
2.49445
2.49519
2.51618
2.49836
2.51858
2.51099
2.49933
2.51608
2.49998
2.49875
2.50491
2.50441
2.50468
2.49396
2.49723
2.48713
2.48848
2.48804
2.485
2.48698
2.48989
2.48956
2.48589
2.48871
2.49216
2.4886
2.49268
2.49248
2.49424
2.49827
2.49589
2.49153
2.49409
2.48489
2.48667
2.48432
2.48513
2.48479
2.48258
2.48991
2.49135
2.49313
2.49375
2.49433
2.47805
2.47675
2.48161
2.4757
2.47804
2.49559
2.49623
2.49387
2.49804
2.49866
2.47482
2.47574
2.46862
2.47378
2.47197
2.47211
2.46968
2.47509
2.47195
2.50571
2.50833
2.5091
2.50372
2.50707
2.50766
2.50884
2.50525
2.49316
2.49516
2.50382
2.50451
2.5062
2.50393
2.50612
2.50467
2.50683
2.51025
2.50684
2.51001
2.50838
2.49408
2.49221
2.49939
2.49774
2.50585
2.49038
2.4947
2.49563
2.5059
2.50548
2.50089
2.50189
2.50277
2.49804
2.49716
2.48882
2.48857
2.48962
2.48638
2.48632
2.49045
2.48833
2.48647
2.48233
2.49465
2.50066
2.49547
2.49121
2.49324
2.4977
2.49131
2.49512
2.49413
2.48531
2.48374
2.48113
2.48595
2.48478
2.48201
2.49658
2.49694
2.49733
2.49762
2.49787
2.47719
2.48086
2.48656
2.48145
2.48422
2.50084
2.50124
2.5009
2.50312
2.50288
2.47822
2.48207
2.4718
2.47693
2.47161
2.47774
2.47462
2.47934
2.46949
2.50769
2.50334
2.50534
2.50173
2.5085
2.49481
2.50027
2.50693
2.49458
2.4929
2.50241
2.50469
2.50426
2.49859
2.50227
2.50884
2.51141
2.5062
2.50818
2.51058
2.50011
2.49063
2.48993
2.48534
2.49244
2.49018
2.50142
2.49173
2.49189
2.50022
2.49954
2.49678
2.49895
2.49842
2.49636
2.49663
2.48866
2.48989
2.48643
2.48611
2.47923
2.48919
2.48497
2.48619
2.47811
2.49212
2.49378
2.48854
2.49268
2.49167
2.48898
2.4867
2.49277
2.49168
2.48767
2.48835
2.48573
2.49086
2.49325
2.4912
2.4967
2.49713
2.49719
2.49598
2.49647
2.48714
2.4884
2.49854
2.49376
2.49358
2.50393
2.50316
2.5036
2.50389
2.5029
2.48757
2.49429
2.47846
2.48378
2.47004
2.49134
2.48798
2.49025
2.47724
2.5067
2.48039
2.49134
2.49019
2.5037
2.46186
2.4798
2.50252
2.49184
2.49551
2.49471
2.49989
2.50012
2.49233
2.49777
2.50547
2.50887
2.4996
2.50189
2.50778
2.47874
2.49057
2.49266
2.50784
2.49206
2.49596
2.50351
2.49177
2.49477
2.50059
2.49789
2.51285
2.50234
2.49689
2.49813
2.50006
2.49232
2.49543
2.48512
2.48766
2.47915
2.49364
2.48731
2.49088
2.48269
2.49267
2.48809
2.48849
2.49802
2.49394
2.48883
2.49126
2.49179
2.49283
2.4945
2.49835
2.49698
2.49811
2.50339
2.50298
2.49515
2.49637
2.49689
2.49513
2.49648
2.50082
2.49889
2.51066
2.50714
2.50327
2.50401
2.50285
2.50465
2.50433
2.50355
2.50115
2.50633
2.49654
2.49686
2.49056
2.50582
2.50194
2.50289
2.50463
2.4991
2.44798
2.47106
2.48425
2.49857
2.44632
2.46865
2.50013
2.50378
2.52163
2.49412
2.49757
2.53028
2.50801
2.51308
2.49708
2.50864
2.50977
2.49692
2.51412
2.47332
2.49661
2.50212
2.49911
2.49268
2.49316
2.49883
2.49555
2.4936
2.50034
2.49594
2.50238
2.49873
2.49623
2.50109
2.50161
2.49961
2.50508
2.49174
2.49603
2.48835
2.50383
2.49764
2.50212
2.49553
2.4954
2.49124
2.49415
2.49975
2.49675
2.49365
2.49663
2.49469
2.49665
2.50187
2.50767
2.50752
2.50588
2.51162
2.51002
2.49581
2.4979
2.49938
2.49733
2.49953
2.51213
2.50698
2.51866
2.516
2.50939
2.50501
2.50515
2.50745
2.50594
2.50675
2.50898
2.50943
2.50579
2.50545
2.51407
2.50462
2.5048
2.50631
2.51714
2.50084
2.45616
2.47728
2.5001
2.5058
2.47446
2.49082
2.50662
2.53932
2.54211
2.51594
2.52435
2.56978
2.52235
2.52415
2.50357
2.52272
2.5281
2.51219
2.52452
2.49642
2.50804
2.51334
2.50088
2.50011
2.49676
2.50506
2.50549
2.50138
2.49904
2.49809
2.5028
2.5014
2.50071
2.50258
2.5042
2.51106
2.51607
2.50374
2.50819
2.5034
2.51485
2.50922
2.51376
2.51007
2.49829
2.49634
2.49888
2.50078
2.49997
2.49935
2.50097
2.49889
2.50099
2.51022
2.51489
2.51157
2.51531
2.51847
2.51413
2.49934
2.50186
2.50362
2.50168
2.50427
2.51697
2.50979
2.52064
2.51691
2.51015
2.50712
2.50845
2.51049
2.50857
2.51002
2.50822
2.50759
2.50005
2.5056
2.51319
2.49965
2.49342
2.50431
2.50699
2.51008
2.49481
2.50299
2.51568
2.51242
2.51432
2.51222
2.51303
2.53186
2.52126
2.53145
2.52793
2.54088
2.53515
2.52958
2.50965
2.52469
2.52572
2.53116
2.52371
2.52801
2.5172
2.51974
2.50953
2.51031
2.50626
2.51322
2.51382
2.51037
2.50473
2.50386
2.50927
2.50818
2.50707
2.50617
2.50794
2.51922
2.52061
2.51319
2.51822
2.51573
2.51978
2.51573
2.52012
2.52093
2.50153
2.50148
2.50302
2.50246
2.50316
2.50332
2.50467
2.50318
2.50508
2.51936
2.52208
2.51841
2.52167
2.52434
2.52237
2.5046
2.50701
2.50827
2.50729
2.50938
2.51706
2.51121
2.51959
2.51777
2.51314
2.50999
2.51142
2.51276
2.51107
2.51231
2.50847
2.51069
2.48844
2.50437
2.50336
2.50243
2.48585
2.50663
2.50231
2.51254
2.52915
2.5164
2.51682
2.51215
2.53102
2.51862
2.51485
2.51404
2.51109
2.54055
2.52875
2.51744
2.53952
2.5209
2.54772
2.52291
2.52417
2.54621
2.51914
2.54751
2.52031
2.51879
2.51577
2.51569
2.51314
2.51743
2.516
2.51477
2.51102
2.50994
2.51412
2.51313
2.51233
2.50929
2.51048
2.51918
2.51724
2.51681
2.51889
2.52164
2.51635
2.51672
2.51609
2.51902
2.50539
2.50467
2.50594
2.50523
2.50839
2.50576
2.50782
2.50676
2.50847
2.52111
2.52476
2.524
2.51892
2.52165
2.52244
2.50993
2.51143
2.51201
2.51176
2.51301
2.51783
2.51503
2.51582
2.51602
2.51611
2.51174
2.51246
2.51336
2.51228
2.51296
2.51367
2.51612
2.48696
2.51044
2.50312
2.50967
2.49321
2.51445
2.50694
2.51302
2.52718
2.51838
2.51486
2.51321
2.52255
2.51799
2.5156
2.51134
2.5141
2.53036
2.51284
2.51447
2.52061
2.52141
2.5385
2.51574
2.5169
2.53007
2.52586
2.52692
2.51627