/*--------------------------------*- C++ -*----------------------------------*\
| =========                 |                                                 |
| \\      /  F ield         | OpenFOAM: The Open Source CFD Toolbox           |
|  \\    /   O peration     | Version:  5.x                                   |
|   \\  /    A nd           | Web:      www.OpenFOAM.org                      |
|    \\/     M anipulation  |                                                 |
\*---------------------------------------------------------------------------*/
FoamFile
{
    version     2.0;
    format      ascii;
    class       surfaceScalarField;
    location    "4";
    object      phi;
}
// * * * * * * * * * * * * * * * * * * * * * * * * * * * * * * * * * * * * * //

dimensions      [0 3 -1 0 0 0 0];

internalField   nonuniform List<scalar> 
29271
(
-5.52452e-06
4.91514e-06
-2.99682e-06
3.60141e-06
-6.6861e-06
-3.48297e-06
3.5646e-06
6.59756e-06
-1.68932e-05
-4.94402e-06
3.90564e-06
-5.0234e-06
3.26969e-06
1.96853e-05
-1.5509e-05
7.74815e-07
6.6703e-06
-6.09992e-06
1.76332e-06
1.24005e-05
-1.4943e-05
-3.41576e-07
-1.8717e-06
3.13913e-06
7.99538e-06
6.02174e-06
-1.75193e-05
-7.3725e-06
3.74807e-06
-9.72072e-06
1.25932e-05
1.82713e-05
-1.63263e-05
-4.46977e-06
9.53101e-06
-9.94643e-06
2.67114e-06
1.85404e-05
-2.62756e-05
-2.25695e-06
1.55104e-05
-1.98879e-05
-5.18236e-06
3.80924e-05
-2.34372e-05
2.95883e-06
1.73515e-05
-1.05378e-05
-8.35259e-06
2.20173e-05
-1.18731e-05
6.34557e-07
-2.47536e-06
9.15817e-06
4.48566e-06
-4.86198e-06
-1.52441e-06
3.74631e-07
6.01327e-06
-1.95019e-05
7.92403e-06
-9.2394e-06
-1.20655e-05
3.76679e-06
2.9116e-05
-1.89192e-05
-3.17395e-07
1.08241e-05
-7.53877e-06
-2.33089e-07
1.61844e-05
-1.30775e-05
4.21748e-06
5.1705e-06
-4.1649e-06
-1.25051e-06
9.10495e-06
-1.51852e-05
5.27733e-06
3.88275e-06
-2.69189e-06
-2.76255e-06
1.14796e-05
-1.61201e-05
1.79603e-06
7.608e-07
-1.52686e-06
1.35791e-05
1.51104e-06
-1.9576e-05
-2.47805e-06
-2.08643e-06
5.17309e-06
2.40759e-05
-5.10855e-06
-1.48944e-05
3.36797e-06
-6.03202e-07
-3.27531e-06
3.562e-06
1.18429e-05
-1.19446e-05
-1.35503e-07
4.14941e-06
-4.11724e-06
3.21934e-06
8.82864e-06
-2.13786e-05
-1.41289e-06
-3.2161e-07
1.69061e-05
2.20719e-06
3.99977e-06
-5.51211e-06
8.84019e-07
-4.14146e-07
5.0539e-06
-1.73193e-05
2.91004e-06
-9.5864e-06
2.18361e-05
2.13566e-06
-1.6977e-05
7.56963e-06
-5.63718e-06
1.12597e-06
1.37455e-05
1.73122e-07
-3.94662e-06
-8.55598e-07
2.36514e-06
2.46509e-06
-3.25998e-06
-5.5624e-07
3.1588e-07
3.46546e-06
-7.94655e-06
-2.663e-06
-1.19756e-07
1.06749e-05
-1.12478e-06
3.14233e-06
-1.8388e-05
-2.07739e-06
2.06676e-06
1.63811e-05
7.20512e-07
-1.35909e-05
6.4912e-07
3.40106e-08
-1.6621e-06
1.38494e-05
-8.2111e-06
5.54814e-07
1.56674e-07
-1.26651e-06
9.25198e-06
-4.85858e-07
1.94703e-06
-1.14851e-07
-1.74973e-05
3.62614e-07
-2.22263e-06
1.75251e-05
-9.03554e-06
1.95763e-06
0.000128362
-2.16546e-05
-3.5736e-05
-2.14641e-05
-2.99503e-05
-2.64638e-06
-3.92927e-06
-1.16326e-06
-1.9648e-06
-1.38732e-06
-2.49178e-06
8.0591e-07
2.97723e-07
-4.79915e-06
5.45558e-06
0.000104326
-4.36419e-05
-3.35829e-05
-1.61147e-05
-1.37762e-05
-2.98838e-06
-2.30071e-06
-1.04023e-06
-5.73443e-07
-1.23472e-07
-2.51721e-06
5.28246e-05
6.13857e-07
8.0124e-07
8.08337e-07
7.80688e-07
-2.445e-07
3.23775e-07
-4.14956e-09
-2.06282e-05
-1.07339e-05
-1.20497e-05
-1.46504e-05
-9.52881e-06
4.80251e-07
-1.6452e-06
1.06106e-05
-6.28132e-06
-2.77278e-08
-2.31392e-07
6.5645e-06
-3.41271e-07
-2.85603e-05
9.65285e-07
2.76324e-06
-2.9608e-07
2.54691e-05
-4.95155e-06
-6.25116e-06
8.17075e-05
-1.90757e-05
-1.41262e-05
-1.40603e-05
-1.05147e-05
-4.6227e-06
-4.06317e-06
-9.84994e-07
-1.09943e-06
-1.14947e-05
-3.4046e-06
5.71776e-05
-9.65181e-06
-1.10451e-05
-9.20851e-06
-1.1869e-05
-4.94249e-07
-7.82538e-07
3.83784e-05
-7.63744e-07
-2.82295e-07
-3.53092e-07
-3.03231e-07
1.04801e-07
7.28542e-08
-9.85347e-06
-1.48579e-05
-1.11276e-05
-1.37498e-05
-1.15782e-05
1.07425e-06
1.56146e-06
-6.18631e-07
9.0669e-06
-2.14528e-05
9.52014e-08
1.02533e-06
1.40931e-07
2.01094e-05
8.19189e-08
-7.53886e-06
2.12098e-06
7.91526e-05
-3.08833e-06
-3.24575e-06
-3.80649e-07
-4.57559e-07
6.84657e-07
1.46904e-05
3.62479e-06
-1.5891e-05
-1.09136e-05
-3.2029e-05
-3.29797e-05
-3.05746e-06
1.56858e-06
3.73941e-05
-2.04712e-06
-1.56334e-06
-1.46759e-06
1.43019e-06
4.68375e-06
2.27506e-06
-7.91231e-06
-1.09905e-05
-2.01607e-05
-1.10961e-05
-1.18738e-05
-9.1047e-07
1.13721e-06
7.80703e-06
-4.26927e-06
4.48178e-07
1.16337e-07
3.75219e-06
-2.31865e-05
-7.00147e-06
-2.27261e-07
3.25415e-05
-1.54008e-05
9.95882e-07
-3.1662e-06
-9.64459e-09
1.91494e-05
-2.94964e-06
-1.61894e-06
1.86094e-06
2.72104e-06
-3.12101e-06
3.51664e-07
-1.65403e-07
2.9553e-06
-1.20708e-05
-2.76034e-06
2.56651e-06
1.22638e-05
-1.05875e-06
5.79918e-06
-1.63418e-05
-4.23483e-06
1.0386e-06
1.47976e-05
7.07988e-08
-1.29563e-05
1.64685e-06
-2.40999e-07
7.84269e-07
1.06954e-05
-9.8229e-06
-4.09602e-08
4.2164e-07
2.95861e-07
9.46598e-06
-3.19626e-07
-4.47646e-06
-5.57844e-07
-1.84018e-05
-9.24406e-07
2.21208e-06
2.21484e-05
-5.55484e-06
2.35803e-06
0.000138405
-9.66961e-07
-1.13234e-06
-3.22007e-06
-1.74535e-06
3.23946e-06
7.69391e-07
-1.04985e-06
-2.74076e-06
-4.019e-06
4.28948e-06
0.000108207
-3.05036e-06
-3.2446e-06
-1.35513e-06
-2.05611e-06
-2.24632e-06
-1.77506e-06
6.338e-05
-1.38562e-06
-1.01696e-06
-1.20204e-06
-1.09253e-06
-2.41073e-06
-1.48532e-06
-1.95983e-06
-1.17538e-05
1.68224e-07
-1.76949e-06
1.12272e-05
-7.11568e-06
1.05755e-06
-1.84761e-06
7.89992e-06
1.87944e-07
-2.48837e-05
1.19885e-06
1.1438e-07
-1.51195e-06
2.48945e-05
-5.16811e-06
-8.97941e-06
0.000104296
-1.60878e-07
3.78484e-07
-3.38686e-06
-2.9136e-06
-7.83688e-06
-2.07052e-06
6.62064e-05
-2.16673e-06
-9.80964e-07
4.04483e-05
-2.38672e-06
-1.99935e-06
-2.05885e-06
-9.8889e-07
-4.11046e-07
-6.89272e-07
-7.84041e-06
6.49732e-07
-4.89093e-07
-3.32098e-08
5.54625e-06
-1.92415e-05
7.17721e-07
-5.36298e-07
-7.50692e-07
1.90744e-05
7.36414e-07
-4.24215e-06
3.73979e-06
6.87063e-05
1.32151e-06
1.7301e-06
1.74113e-06
2.50446e-06
-2.00793e-06
-8.37266e-07
-2.4828e-06
-1.8876e-06
-8.50805e-08
3.88239e-05
-1.74909e-06
-1.33269e-06
-1.39608e-06
-3.67452e-07
-5.5855e-07
-3.65913e-07
-6.42797e-06
-1.17812e-06
1.14547e-07
4.62297e-06
-3.87672e-06
-1.41664e-07
6.17346e-07
3.46076e-06
-4.58539e-05
2.04669e-06
-4.28036e-07
4.79879e-05
-2.60471e-05
7.46149e-06
-5.13569e-06
1.3462e-06
2.229e-05
-2.14274e-06
-9.7235e-07
1.80117e-06
1.35819e-06
-3.33656e-06
1.10859e-06
-1.57441e-06
3.70287e-06
-1.29669e-05
-5.19989e-06
4.07442e-06
1.40923e-05
-3.76691e-06
5.0689e-06
-1.4322e-05
-3.34165e-06
3.8359e-06
1.25257e-05
-1.80509e-08
-9.13622e-06
1.87714e-06
-6.26589e-07
1.16656e-06
6.73715e-06
-8.53851e-06
-2.44576e-07
4.56677e-07
7.69612e-07
7.23822e-06
3.18569e-07
-3.38284e-06
5.76677e-08
-2.12757e-05
9.41905e-07
3.42143e-06
2.02375e-05
1.59759e-05
7.10956e-06
0.000135479
-3.49726e-06
-2.97263e-06
-1.66916e-06
-2.37304e-06
-2.0095e-06
-3.99655e-06
-9.3845e-07
-2.70235e-06
-3.49474e-06
1.40334e-05
0.000130126
-2.66572e-06
-1.17403e-06
-7.6161e-06
-5.02517e-06
-2.65301e-06
2.90484e-06
8.35767e-05
-9.37041e-07
-1.01913e-06
-1.28904e-06
-1.95221e-06
-2.58931e-06
-8.51349e-06
-7.64307e-06
-1.13328e-05
-1.81519e-08
-2.13582e-06
1.08723e-05
-7.40982e-06
-1.13761e-06
2.15271e-06
6.39472e-06
-1.95698e-06
-2.53784e-05
-3.01316e-06
3.83193e-06
2.03193e-06
2.44847e-05
4.69514e-06
7.97394e-06
0.000113076
-4.31334e-06
-4.17626e-06
-3.02124e-06
-2.82867e-06
-1.05692e-05
5.35754e-06
9.01466e-05
-2.00382e-06
1.74254e-07
3.99733e-05
-2.17779e-06
-3.16994e-06
-2.0086e-06
4.43827e-07
1.03014e-06
5.22564e-07
-3.84356e-06
7.76261e-07
-1.57127e-06
-1.57966e-07
2.79272e-06
-2.08389e-05
-1.51088e-06
1.10058e-06
4.10117e-07
2.13008e-05
-4.61753e-07
-8.78321e-07
2.47873e-06
8.04125e-05
-2.20405e-06
-1.07553e-06
-2.61394e-06
-2.47072e-06
1.32548e-06
1.54214e-06
1.63913e-07
-2.07787e-06
1.06726e-06
6.31672e-05
-1.31852e-06
-6.66099e-06
-4.66655e-06
2.70715e-07
-1.77077e-06
-4.70734e-06
-4.36889e-06
-1.89901e-06
4.12183e-07
3.9521e-06
-2.64972e-06
-1.98365e-07
1.79848e-06
1.11213e-06
-4.00675e-05
4.90889e-06
-2.308e-06
3.99462e-05
-2.03627e-05
2.31283e-06
-5.35433e-06
-1.47458e-06
2.5946e-05
-1.46698e-06
-7.14106e-07
1.93842e-06
2.60409e-07
-5.15618e-06
9.23618e-07
-1.45492e-06
5.68643e-06
-1.49129e-05
-4.89521e-06
4.32138e-06
1.54867e-05
-8.95509e-07
3.63251e-06
-1.10453e-05
-2.49911e-06
-1.04424e-07
1.09118e-05
-3.03698e-07
-1.92886e-06
1.58822e-06
2.20973e-07
2.51501e-06
-2.09163e-06
-7.0693e-06
2.11125e-07
8.76659e-07
-1.04075e-06
8.39655e-06
-1.37429e-06
-2.93922e-06
1.97596e-06
-1.98698e-05
-2.13723e-06
2.75456e-06
2.02157e-05
2.56576e-07
5.04388e-06
0.00011482
2.16929e-06
-9.5699e-08
2.76365e-06
1.47372e-06
2.1778e-06
4.74825e-07
3.44016e-06
2.95464e-06
-5.12095e-06
1.86554e-05
0.000119533
-3.02926e-06
-1.41184e-06
1.5585e-06
1.97347e-07
9.54388e-07
6.75266e-06
4.94125e-05
2.28949e-06
1.15907e-06
4.46236e-06
3.59185e-06
2.02661e-06
4.16773e-06
3.63908e-06
-4.47781e-06
3.54119e-07
-1.29485e-06
6.37261e-06
-5.66034e-06
-1.36462e-06
1.59475e-06
5.43021e-06
-1.36976e-06
-2.3846e-05
-2.89604e-06
2.04629e-06
2.27798e-06
2.37875e-05
-7.78616e-07
7.34333e-06
0.000114595
-1.98545e-06
-1.7035e-06
-2.22722e-08
6.71006e-07
-1.7372e-06
1.66522e-05
9.31084e-05
-1.47277e-08
5.74258e-06
2.14785e-05
-6.97499e-08
1.11698e-06
7.59611e-07
4.08716e-06
6.4156e-06
5.47277e-06
1.07168e-07
1.08715e-06
-3.68667e-07
1.47462e-06
-2.31499e-06
-2.12988e-05
-1.7251e-06
1.28442e-06
1.5476e-06
2.16768e-05
-1.48494e-06
-1.37196e-06
5.51375e-07
8.89178e-05
-1.05674e-06
-1.05267e-06
6.17624e-07
-6.9452e-07
2.23318e-07
6.24395e-07
9.97258e-07
-6.87945e-07
1.85355e-06
6.72161e-05
-1.00945e-06
1.06411e-06
1.94499e-07
3.20462e-06
2.76704e-06
3.84494e-06
-7.05831e-07
-7.29318e-07
4.88147e-06
1.60832e-06
5.58528e-08
-1.69807e-06
1.20758e-06
4.18551e-07
-4.11121e-05
3.80983e-06
-3.20217e-06
4.10558e-05
-2.1771e-05
3.48619e-06
-2.70256e-06
5.00728e-06
1.78337e-05
1.44723e-06
-5.37691e-06
3.32521e-06
6.04405e-07
-5.24723e-06
7.13293e-07
2.6273e-07
4.27091e-06
-1.58355e-05
-3.50464e-06
3.30251e-06
1.60377e-05
9.80107e-07
1.79109e-06
-1.10161e-05
-6.56961e-07
-1.7513e-06
1.06532e-05
1.59107e-07
1.66309e-06
2.00822e-07
4.95826e-07
-6.49308e-07
-1.86954e-06
-1.13209e-05
1.0915e-06
7.05843e-07
-2.77135e-06
1.30044e-05
-7.09445e-07
-2.06762e-06
2.44955e-06
-2.09164e-05
-3.24311e-06
2.27045e-06
2.15071e-05
-5.0418e-06
4.28124e-06
9.68517e-05
2.28034e-06
9.48551e-07
1.985e-06
1.44438e-06
3.46995e-06
2.51871e-06
3.25427e-06
2.8276e-06
1.46219e-06
1.34697e-05
9.81641e-05
7.16893e-07
-1.21589e-07
1.01072e-06
-2.10752e-07
3.91906e-06
1.12239e-05
2.01362e-05
1.19532e-06
2.09818e-06
1.34249e-06
1.79058e-06
2.56262e-06
3.09782e-06
3.50856e-06
-9.11872e-06
3.41884e-07
4.42563e-06
-4.85192e-07
8.75545e-06
-6.15979e-07
-2.2355e-09
1.64868e-08
6.00018e-07
-5.69195e-06
-1.54073e-06
1.09672e-06
6.13595e-06
-7.5537e-07
-2.4383e-05
-2.3568e-06
3.18727e-07
2.27631e-06
2.49001e-05
3.25065e-07
7.01161e-06
0.000109046
-2.53594e-07
4.98243e-07
7.10391e-07
1.53882e-06
4.42923e-06
1.74051e-05
8.50688e-05
1.46437e-06
4.10132e-06
1.83573e-05
5.67823e-07
1.66502e-06
1.58359e-07
3.75522e-06
3.82281e-06
3.23946e-06
2.7956e-06
-1.94939e-06
-1.55022e-07
3.40142e-06
-2.62823e-06
-7.58862e-08
1.90952e-07
8.55406e-09
2.68245e-07
-4.28624e-07
-2.28817e-05
-5.26782e-07
-5.51929e-07
1.57064e-06
2.41604e-05
-1.77067e-06
-8.17996e-07
2.06778e-08
9.58006e-05
-7.32054e-10
-9.69159e-07
5.01618e-07
-6.12571e-07
8.41376e-07
-5.78818e-08
1.22348e-06
6.88019e-07
2.66703e-06
7.13659e-05
-2.73861e-07
1.07465e-06
-2.85897e-07
2.84605e-06
3.13507e-06
2.58631e-06
-4.60084e-06
4.2897e-07
3.13556e-06
5.82564e-06
-1.47857e-06
-2.52238e-06
7.52737e-07
3.24822e-06
-4.1388e-05
3.15137e-06
-3.56525e-06
4.18225e-05
-1.7357e-05
2.63639e-06
-2.00035e-06
1.88002e-06
1.75079e-05
-2.53685e-06
-2.53183e-06
1.45897e-06
3.60971e-06
-2.78681e-06
2.3191e-07
9.04247e-07
1.65068e-06
-1.61335e-05
-2.39305e-06
2.43905e-06
1.60875e-05
1.07334e-06
1.21242e-06
-1.02704e-05
-2.25819e-07
-1.92141e-06
1.01319e-05
-8.28068e-07
1.95004e-06
-7.48586e-07
8.96332e-07
4.92229e-07
-1.76195e-06
-1.44647e-05
1.63387e-06
-3.78778e-07
-1.58614e-06
1.48911e-05
-9.53743e-08
-1.36364e-06
1.47605e-06
-2.2335e-05
-2.05277e-06
1.14946e-06
2.31259e-05
-3.3317e-06
2.25573e-06
8.36808e-05
1.93058e-06
1.14656e-06
2.15318e-06
1.68588e-06
2.18759e-06
1.74131e-06
1.26605e-06
2.13574e-06
1.41139e-06
9.83908e-06
8.46965e-05
1.88245e-07
-7.41663e-07
-1.62191e-07
-3.99022e-07
1.86826e-06
5.60903e-06
1.14637e-05
-1.53673e-07
1.443e-06
-6.21314e-07
8.30109e-07
4.91472e-07
2.85701e-07
3.31297e-07
-9.41556e-06
2.66494e-06
2.29566e-06
6.28936e-07
5.69428e-06
-2.23347e-06
1.74347e-06
2.68771e-07
-9.28923e-07
-3.55597e-07
1.50575e-06
-6.49661e-06
-1.05936e-06
9.09296e-07
6.64667e-06
-5.60938e-07
-2.56371e-05
-1.41991e-06
-3.98171e-07
1.44101e-06
2.65751e-05
1.8422e-06
-8.6638e-07
0.000105021
5.26967e-07
1.2013e-06
1.53988e-06
2.03663e-06
7.11503e-06
1.34884e-05
7.61467e-05
2.03446e-06
2.05868e-06
1.89524e-05
6.52485e-07
1.5314e-06
3.89907e-07
2.28284e-06
1.45938e-06
1.71984e-06
2.72358e-06
-2.10983e-06
1.45527e-06
1.86923e-06
-1.90377e-06
5.20097e-07
-1.43716e-06
-1.60413e-06
1.39448e-06
1.50077e-06
-3.74054e-07
-2.54316e-05
1.55632e-07
-1.1348e-06
3.66922e-07
2.68773e-05
-8.33456e-07
-1.62741e-06
-1.28562e-06
9.82136e-05
3.56076e-08
-2.37209e-07
4.2015e-07
-2.03931e-08
-2.20321e-08
-1.16903e-06
6.26512e-07
1.00223e-06
2.79084e-06
7.28449e-05
-5.35844e-07
9.80259e-07
-7.04132e-07
1.97203e-06
2.92512e-06
1.95147e-06
-7.13716e-06
1.11041e-06
1.7097e-06
7.37796e-06
-4.00227e-06
-2.76215e-06
2.46263e-07
-3.4875e-09
6.52165e-06
-1.10448e-06
9.03777e-07
-5.24242e-07
7.24943e-07
-4.23545e-05
2.33384e-06
-3.01057e-06
4.17456e-05
-1.83087e-05
2.29524e-06
-2.04295e-06
1.82092e-06
1.90264e-05
-4.45056e-06
-1.10014e-06
7.23811e-07
4.82688e-06
-1.10076e-06
1.05013e-07
4.10408e-07
5.86269e-07
-1.58901e-05
-1.87225e-06
2.18899e-06
1.55734e-05
9.27879e-07
7.33598e-07
-1.01086e-05
4.94575e-07
-2.44438e-06
1.03969e-05
-1.90423e-06
1.12605e-06
-1.68119e-06
1.00258e-06
1.39264e-06
6.41391e-08
-1.45623e-05
1.44104e-06
-2.12163e-07
-8.92086e-07
1.4349e-05
-1.23424e-07
-1.21647e-06
-5.17958e-08
-2.36793e-05
3.29762e-07
5.42932e-07
2.40749e-05
-3.34181e-06
-9.578e-06
8.1908e-05
2.99986e-06
2.2183e-06
3.15526e-06
2.81868e-06
3.11749e-07
1.63561e-06
-3.2688e-07
1.87999e-06
2.17784e-06
7.62219e-06
7.25786e-05
-3.48378e-07
-3.30065e-08
-1.59059e-07
-4.83486e-07
8.47356e-07
3.54891e-07
9.83185e-06
-3.99805e-09
1.02394e-06
-2.28296e-07
7.68263e-07
4.45433e-07
1.12949e-06
-5.27405e-07
-4.92661e-06
-4.38381e-08
2.7556e-07
7.29372e-07
4.81287e-06
-9.88765e-07
8.12159e-07
5.15397e-07
-5.23748e-07
-1.0589e-06
1.24386e-06
-6.62116e-06
-3.35714e-07
5.4749e-07
6.40938e-06
-6.63003e-08
-2.78326e-05
-5.62538e-07
-1.23793e-06
7.02554e-07
2.89968e-05
2.61531e-06
-1.62778e-05
0.000102374
1.31672e-06
1.48374e-06
1.95587e-06
1.97558e-06
9.25809e-06
5.31408e-06
7.1812e-05
1.04125e-06
-1.68413e-07
2.56949e-05
8.92627e-07
9.12484e-07
7.72907e-07
3.40282e-07
-6.78334e-07
-2.42324e-07
-1.0577e-07
1.64439e-07
-4.48376e-07
-6.36057e-07
2.06701e-06
-3.0178e-07
4.45604e-07
7.99019e-07
-4.18659e-07
-8.49306e-07
3.25121e-07
-2.84621e-05
-5.93764e-08
-9.48745e-07
-1.66465e-07
2.98557e-05
-2.18963e-07
-3.17053e-06
-3.46057e-06
9.52751e-05
6.81936e-09
-1.53636e-07
3.26416e-07
-8.19353e-07
-8.61394e-07
-4.8466e-06
-3.6042e-07
-2.02719e-07
2.00695e-06
7.1541e-05
-9.98101e-07
-1.98413e-07
-7.31668e-07
9.20921e-07
1.90963e-06
7.40799e-07
-8.2217e-06
-1.60953e-07
-2.74469e-07
8.28599e-06
-8.06973e-06
-1.39508e-07
1.20207e-06
-7.62887e-07
7.77006e-06
-2.68887e-07
2.19484e-07
6.14043e-07
-5.02718e-07
-6.19223e-08
-4.06893e-05
1.18726e-06
-2.9421e-07
3.63357e-05
-2.05534e-05
6.05511e-07
-9.75604e-07
6.58505e-07
2.22719e-05
-4.91016e-06
7.79179e-08
1.09826e-07
4.72242e-06
-1.38535e-07
-1.24266e-07
1.13187e-07
1.49614e-07
-1.52237e-05
-1.6143e-06
2.00345e-06
1.48346e-05
1.49844e-06
6.49592e-07
-1.06672e-05
5.46994e-07
-2.92242e-06
1.08946e-05
-8.00905e-07
-9.11938e-07
-2.04285e-06
1.15491e-06
7.97044e-07
1.80374e-06
-1.38298e-05
1.0367e-06
2.51867e-07
-5.23557e-07
1.32435e-05
-1.78737e-07
-9.77958e-07
-1.19547e-06
-2.43094e-05
2.14247e-06
-1.10012e-07
2.44504e-05
1.35893e-06
-1.87776e-05
8.84681e-05
3.70437e-06
3.02997e-06
3.67432e-06
3.68698e-06
-1.32256e-06
2.4973e-07
-1.76665e-06
-3.97559e-07
3.6319e-06
-5.49316e-07
6.69394e-05
1.76837e-07
1.12274e-06
8.08789e-07
1.80722e-06
8.17917e-07
-3.73231e-06
1.67997e-05
1.74942e-07
7.6844e-07
-8.34945e-09
9.71155e-08
-1.27567e-06
6.73327e-07
-8.51309e-07
-6.85029e-06
5.82302e-07
2.04541e-06
1.16955e-07
4.92354e-06
-2.36283e-06
-2.35026e-06
1.65916e-06
1.94809e-06
1.10585e-06
-6.00488e-06
1.78366e-07
3.27966e-07
5.49855e-06
-3.68358e-07
-3.00398e-05
-2.2873e-07
-8.33096e-07
9.85388e-07
3.04846e-05
4.25833e-06
-2.60181e-05
0.000100975
8.61194e-07
1.03284e-06
8.9664e-07
1.59047e-06
7.26677e-06
-5.1851e-06
7.34393e-05
5.45197e-07
-1.46459e-06
3.29449e-05
6.22699e-07
2.87999e-07
-4.31767e-09
-8.14612e-07
-1.68137e-06
-1.20656e-06
-3.43971e-06
1.54962e-06
-5.19582e-07
-1.05252e-06
4.00739e-06
-2.88179e-07
-1.17604e-06
3.92108e-07
1.45293e-07
6.0649e-07
3.20332e-07
-3.08405e-05
-7.71251e-07
2.76911e-07
1.16239e-06
3.11309e-05
-9.5845e-07
1.43868e-06
-5.41965e-06
8.68458e-05
-8.60137e-07
-2.11343e-06
-6.69112e-07
-2.62447e-06
-1.32068e-06
-3.67451e-06
-2.34545e-06
-4.08379e-08
-5.12812e-08
6.90846e-05
2.20896e-07
6.7744e-07
9.35655e-07
-6.40219e-07
-1.07795e-06
-1.31368e-06
-9.34498e-06
-4.60839e-07
-1.85412e-06
1.01545e-05
-6.18566e-06
-5.3372e-07
6.92018e-07
6.02736e-06
-2.88647e-05
7.09484e-07
1.73038e-06
2.10051e-05
-2.57362e-05
-3.90705e-06
2.77893e-06
-7.80196e-07
2.75932e-05
-4.48792e-06
1.42335e-06
-1.31277e-06
4.37734e-06
-2.49098e-07
-4.04664e-08
-2.21969e-07
5.11534e-07
-1.44637e-05
-1.05232e-06
1.37695e-06
1.41391e-05
1.57489e-06
7.57778e-08
-1.11582e-05
8.54344e-07
-2.98697e-06
1.16401e-05
-3.57954e-07
-2.90003e-06
-2.17735e-06
1.37454e-06
-4.09456e-07
4.47026e-06
-1.23817e-05
4.62908e-07
8.38004e-07
-3.0289e-07
1.17296e-05
-3.45927e-07
-5.46791e-07
-2.05271e-06
-2.46978e-05
3.23903e-06
-9.28843e-07
2.49871e-05
1.23778e-05
-1.88088e-05
9.29551e-05
3.56881e-06
3.47559e-06
3.40057e-06
4.24489e-06
-3.14819e-06
-2.83357e-06
-3.53463e-06
-3.22948e-06
9.23443e-06
-8.36443e-06
6.8345e-05
1.6574e-06
2.67789e-06
2.57376e-06
3.19314e-06
7.50228e-07
-3.89074e-06
2.93817e-05
6.46199e-07
-2.64141e-07
6.97722e-07
-5.03958e-07
-1.09357e-06
7.67352e-07
-4.56682e-07
-3.62305e-06
-2.39462e-06
1.82034e-06
4.9457e-06
-5.02445e-06
1.69055e-07
2.77722e-07
4.57767e-06
-1.32116e-06
-2.98844e-05
8.10222e-07
1.35718e-06
6.96472e-07
2.83417e-05
6.77944e-06
-2.34027e-05
9.93531e-05
-9.65644e-07
3.37878e-07
-6.62987e-07
7.26818e-07
7.89085e-06
-1.15403e-05
7.55038e-05
-4.33824e-07
-2.1719e-06
4.44005e-05
-3.12718e-07
9.3265e-08
-1.07737e-07
-1.31498e-06
-1.98173e-06
-1.22587e-06
-6.9495e-06
-1.10546e-08
-1.09312e-06
-2.67432e-07
7.88729e-06
-3.0536e-05
-1.55687e-06
1.87856e-06
2.90223e-06
2.86926e-05
-1.38044e-06
1.06427e-05
-1.76809e-06
7.41325e-05
-2.69034e-06
-4.08659e-06
-2.55592e-06
-4.57599e-06
-2.7897e-06
-6.52011e-07
-2.21347e-06
1.51646e-06
-2.45419e-06
6.88707e-05
2.40056e-06
2.54466e-06
2.80879e-06
-2.30559e-06
-2.59813e-06
-2.59631e-06
-1.14927e-05
8.43487e-07
-2.76762e-06
1.27614e-05
-5.59711e-06
1.22739e-06
-2.9344e-07
4.66315e-06
-1.5504e-05
-3.0286e-06
4.57169e-06
1.21928e-05
-2.75524e-05
-6.4571e-06
7.81701e-06
-2.34758e-06
2.60858e-05
-4.73753e-06
3.42654e-06
-4.15496e-06
5.46595e-06
-8.19884e-07
1.03641e-07
-4.29303e-07
1.14555e-06
-1.38519e-05
-7.39108e-08
3.10279e-07
1.36155e-05
1.00345e-06
-8.86128e-07
-1.23768e-05
1.89001e-06
-3.01808e-06
1.33875e-05
5.92103e-07
-6.18861e-06
-2.83909e-06
2.12847e-06
-1.94313e-06
8.25026e-06
-1.12765e-05
5.46751e-07
9.27734e-07
-7.94707e-07
1.155e-05
-9.53257e-07
4.86855e-07
-3.00319e-06
-2.47965e-05
4.78872e-06
-1.12338e-06
2.36475e-05
2.25569e-05
-1.48484e-05
9.09841e-05
3.39013e-06
3.98564e-06
3.70898e-06
4.69227e-06
-5.3307e-06
-5.39196e-06
-5.85362e-06
-4.93815e-06
1.6773e-05
-1.06024e-05
7.17963e-05
2.82956e-06
3.10055e-06
3.48849e-06
3.51641e-06
1.4832e-06
-4.43797e-06
4.4601e-05
1.19713e-06
-5.35876e-07
1.49727e-06
-6.78485e-07
5.2902e-07
1.64549e-06
8.53869e-07
-5.41418e-06
-2.60342e-06
3.08455e-06
6.41615e-06
-4.16395e-06
3.71067e-07
-4.25366e-09
3.79713e-06
-1.73576e-06
-2.68055e-05
7.76213e-07
2.40783e-06
5.57327e-08
2.53014e-05
1.32387e-05
-1.10947e-05
9.05042e-05
-2.58466e-06
-1.2534e-06
-2.40488e-06
-1.90057e-06
1.12688e-05
-1.05609e-05
7.74322e-05
3.98861e-07
-2.31118e-06
5.55222e-05
2.52088e-07
5.92661e-07
3.53597e-07
-1.09139e-06
-1.57277e-06
-9.12709e-07
-8.8194e-06
-9.56242e-07
-6.2448e-09
-1.59044e-07
1.03398e-05
-2.66959e-05
-2.57228e-06
4.06139e-06
1.6137e-06
2.38775e-05
-2.84454e-07
1.97438e-05
1.10597e-06
6.41034e-05
-5.51904e-06
-6.31486e-06
-5.68129e-06
-5.88456e-06
1.44271e-07
9.06365e-07
4.33783e-07
2.87513e-06
-2.32545e-06
7.4024e-05
3.38171e-06
3.68698e-06
3.44629e-06
-2.40854e-06
-2.23486e-06
-2.39172e-06
-1.44931e-05
2.29476e-06
-2.80132e-06
1.55636e-05
-4.87599e-06
9.40676e-07
-1.51584e-06
5.45115e-06
-9.6552e-06
-5.14076e-06
7.24358e-06
8.65835e-06
-2.50573e-05
-6.48315e-06
7.84902e-06
-3.12957e-06
2.44955e-05
-6.31178e-06
3.77229e-06
-4.63688e-06
7.17637e-06
-1.53101e-06
-1.37274e-08
-4.42483e-07
1.98722e-06
-1.34084e-05
1.21067e-06
-1.31437e-06
1.35121e-05
1.28319e-06
-1.97972e-06
-1.48412e-05
2.73586e-06
-3.52691e-06
1.63288e-05
1.37083e-06
-1.04224e-05
-3.35962e-06
2.60143e-06
-2.62746e-06
1.24372e-05
-1.24274e-05
3.41058e-07
8.77565e-07
-1.3736e-06
1.3963e-05
-1.38062e-06
2.869e-06
-1.99438e-06
-2.19556e-05
4.31111e-06
-3.65906e-06
2.04289e-05
2.61465e-05
-1.22785e-05
8.34058e-05
3.76397e-06
3.96138e-06
3.78403e-06
4.25912e-06
-6.24305e-06
-5.88723e-06
-5.2184e-06
-4.70955e-06
2.0293e-05
-9.56114e-06
7.4589e-05
2.90832e-06
2.96478e-06
3.35403e-06
3.39482e-06
2.2499e-06
-4.90928e-06
5.92075e-05
1.71291e-06
-5.75654e-07
2.16381e-06
-3.65415e-07
1.33853e-06
2.55324e-06
1.51838e-06
-7.43984e-06
-1.84285e-06
2.5614e-06
8.97124e-06
-3.56275e-06
1.8103e-06
-1.78836e-06
3.54081e-06
-8.03993e-07
-2.34618e-05
2.97896e-06
2.71191e-06
-1.77288e-06
2.03478e-05
1.9542e-05
-4.5988e-06
8.09606e-05
-4.63569e-06
-4.64882e-06
-4.31282e-06
-4.08076e-06
1.29868e-05
-7.30939e-06
8.17357e-05
5.00134e-07
-1.68411e-06
6.55549e-05
3.39971e-07
4.92141e-07
3.24532e-07
-7.1322e-07
-7.478e-07
-4.66873e-07
-1.2148e-05
-9.34623e-07
-3.20381e-08
-2.09357e-07
1.38241e-05
-1.91724e-05
-2.94514e-07
3.06453e-06
2.10325e-06
1.35699e-05
7.29167e-07
1.96646e-05
7.22155e-07
5.8385e-05
-6.05489e-06
-5.38083e-06
-4.4989e-06
-4.59803e-06
6.96185e-07
3.80026e-07
1.89294e-07
2.96142e-06
-2.23099e-06
8.21477e-05
3.02854e-06
3.50319e-06
2.72438e-06
-1.99465e-06
-2.10618e-06
-1.65422e-06
-1.7417e-05
2.52779e-06
-2.02422e-06
1.81907e-05
-6.23236e-06
1.04085e-06
-1.80449e-06
6.996e-06
-7.64517e-06
-3.84876e-06
5.28083e-06
6.93526e-06
-2.38909e-05
-3.79409e-06
5.32035e-06
-3.14092e-06
2.32746e-05
-7.88586e-06
2.51673e-06
-2.97293e-06
8.34206e-06
-2.48602e-06
-1.26654e-07
-3.89678e-07
3.00235e-06
-1.39092e-05
9.51956e-07
-1.50394e-06
1.44612e-05
1.62138e-06
-2.02424e-06
-1.76039e-05
2.86365e-06
-3.22007e-06
1.83632e-05
1.64182e-06
-1.42956e-05
-3.40437e-06
2.95305e-06
-2.63786e-06
1.57429e-05
-1.57398e-05
4.44777e-07
1.50517e-06
-1.7915e-06
1.75862e-05
-2.00494e-06
3.29025e-06
-3.89357e-07
-1.94515e-05
2.04186e-06
-3.54773e-06
1.80565e-05
2.47089e-05
-1.15889e-05
7.43307e-05
3.19313e-06
3.02954e-06
3.1722e-06
3.20994e-06
-4.7044e-06
-4.53641e-06
-4.09331e-06
-3.3156e-06
1.90911e-05
-8.18026e-06
7.70845e-05
2.54028e-06
2.65508e-06
2.96588e-06
3.14136e-06
2.29451e-06
-4.32441e-06
7.10884e-05
2.02634e-06
8.08094e-08
2.46399e-06
4.73922e-07
1.02452e-06
2.24499e-06
9.25563e-07
-1.07808e-05
-1.3848e-06
1.92335e-06
1.25367e-05
-3.54862e-06
1.38673e-06
-1.20902e-06
3.37092e-06
5.68734e-07
-1.6778e-05
2.98732e-06
1.95967e-06
-2.31149e-06
1.35738e-05
1.88836e-05
-6.22982e-06
7.28562e-05
-4.60095e-06
-4.3943e-06
-3.54389e-06
-3.59918e-06
9.82106e-06
-4.75397e-06
8.73719e-05
-1.88518e-07
-8.92822e-07
7.25986e-05
-1.10137e-07
-2.19328e-07
-6.46712e-08
-1.75303e-07
3.52237e-08
6.84973e-08
-1.5377e-05
-7.28788e-07
-1.25711e-08
-1.88009e-07
1.61178e-05
-9.26479e-06
-8.59331e-07
1.82812e-06
1.65622e-06
6.44029e-06
1.99501e-07
1.4906e-05
4.70223e-08
5.28746e-05
-3.68305e-06
-3.76158e-06
-3.17331e-06
-3.40456e-06
-7.36826e-07
7.36641e-08
-9.86806e-07
2.09292e-06
-1.6983e-06
8.93155e-05
1.65225e-06
2.47893e-06
1.36881e-06
-1.0374e-06
-1.17849e-06
-6.94418e-07
-2.00182e-05
2.00425e-06
-1.13229e-06
2.03463e-05
-7.69102e-06
9.39748e-07
-1.47697e-06
8.22824e-06
-6.38914e-06
-1.72816e-06
1.92783e-06
6.23649e-06
-2.26336e-05
-7.88015e-07
1.87628e-06
-1.94976e-06
2.17968e-05
-8.49398e-06
1.01763e-06
-9.49796e-07
8.42614e-06
-3.53747e-06
-1.49057e-07
-3.6987e-07
4.05639e-06
-1.50166e-05
-6.9213e-09
-4.47153e-07
1.54707e-05
2.02244e-06
-1.63701e-06
-1.87262e-05
2.86098e-06
-3.23776e-06
1.87176e-05
1.76094e-06
-1.69906e-05
-3.22677e-06
2.99847e-06
-2.49876e-06
1.79567e-05
-1.9537e-05
1.90679e-07
1.77947e-06
-1.54486e-06
2.15135e-05
-2.40182e-06
1.77048e-06
5.64026e-07
-1.61213e-05
9.66301e-07
-1.24279e-06
1.40633e-05
1.75143e-05
-1.30224e-05
6.77573e-05
2.89907e-06
2.39698e-06
2.85032e-06
2.66125e-06
-2.87419e-06
-2.23465e-06
-2.23847e-06
-1.37885e-06
1.15496e-05
-6.96345e-06
8.01349e-05
2.20515e-06
2.3195e-06
2.63855e-06
2.71448e-06
1.62235e-06
-2.39705e-06
7.81417e-05
1.50087e-06
1.8081e-07
1.66825e-06
3.04649e-07
-8.43785e-08
1.65691e-06
4.39242e-08
-1.43698e-05
-1.44082e-06
1.45699e-06
1.5976e-05
-3.10622e-06
-9.56801e-08
2.61872e-07
2.94002e-06
2.64878e-07
-1.10503e-05
8.29345e-07
1.15962e-06
-4.17514e-07
9.214e-06
1.06959e-05
-1.03389e-05
6.82258e-05
-2.30021e-06
-2.86404e-06
-1.27149e-06
-2.31327e-06
2.87516e-06
-3.32817e-06
9.15574e-05
-8.40723e-07
-6.34573e-07
7.63625e-05
-5.17876e-07
-7.94903e-07
-4.62747e-07
-7.00853e-08
3.86062e-08
-3.42786e-09
-1.65354e-05
-3.1294e-07
1.24242e-07
-2.7938e-07
1.61628e-05
-4.70507e-06
-1.78803e-06
1.87338e-06
1.68142e-06
3.74848e-06
-8.10186e-07
4.17005e-06
-1.47942e-07
4.75726e-05
-1.72878e-06
-1.67885e-06
-1.586e-06
-1.45688e-06
-1.43155e-06
-3.44732e-08
-1.1425e-06
8.40556e-07
-8.09728e-07
8.95083e-05
5.56761e-07
1.18449e-06
3.22781e-07
-4.99982e-07
-4.81276e-07
-4.64575e-07
-2.18342e-05
1.16573e-06
-6.40772e-07
2.15153e-05
-8.66884e-06
7.78829e-07
-1.07581e-06
8.96583e-06
-6.57506e-06
-7.56401e-07
3.34168e-07
6.84935e-06
-2.09194e-05
3.32252e-07
6.30168e-09
-3.30585e-07
2.01017e-05
-8.30992e-06
9.39534e-08
5.74505e-08
8.15851e-06
-4.51708e-06
-4.29878e-09
-3.73201e-07
4.89458e-06
-1.58475e-05
-1.82508e-07
-1.09659e-07
1.61397e-05
1.48021e-06
-1.26594e-06
-1.87754e-05
2.11429e-06
-2.51384e-06
1.89607e-05
1.51474e-06
-1.87969e-05
-2.4229e-06
2.43448e-06
-2.02445e-06
1.92951e-05
-2.32639e-05
-2.43099e-07
1.97644e-06
-1.01525e-06
2.48258e-05
-2.28004e-06
4.59088e-07
7.05923e-07
-1.22164e-05
4.73747e-07
-1.33253e-07
1.07109e-05
5.50204e-06
-1.5125e-05
6.7779e-05
2.5384e-06
2.03946e-06
2.46022e-06
2.43374e-06
-5.48944e-07
2.82442e-08
-7.96921e-09
6.5816e-07
8.8713e-08
-6.09449e-06
8.44963e-05
1.64398e-06
1.59334e-06
2.0006e-06
1.90856e-06
-4.31934e-08
8.83296e-08
8.29171e-05
3.29431e-07
-7.99951e-07
6.14194e-07
-1.0241e-06
-1.18477e-06
-1.15151e-06
-1.51515e-06
-1.77904e-05
-2.91718e-06
3.21168e-06
1.74527e-05
-2.77907e-06
-8.62082e-07
1.00902e-06
2.63213e-06
4.12859e-07
-7.74948e-06
7.37012e-07
-5.49945e-07
1.2224e-07
7.02732e-06
-1.09408e-06
-1.2494e-05
6.51188e-05
8.25967e-07
-6.62035e-07
1.62879e-06
-2.22621e-07
-2.78353e-06
-4.78979e-06
9.19421e-05
-1.2684e-06
-9.53296e-07
7.97363e-05
-7.68319e-07
-1.25752e-06
-8.18869e-07
-4.25673e-07
-1.81273e-07
-3.95688e-07
-1.59124e-05
-1.04905e-06
1.02398e-07
-2.7353e-07
1.58642e-05
-3.15098e-06
-2.44233e-06
2.01477e-06
1.84708e-06
2.92356e-06
-1.1921e-06
-2.58497e-06
-1.20203e-07
4.20121e-05
-6.7645e-07
-3.7339e-07
-5.66198e-07
-2.7664e-07
-1.17405e-06
-1.57534e-07
-1.00401e-06
9.92674e-08
-3.23988e-07
8.25716e-05
-2.37161e-07
7.72624e-07
-2.56449e-07
-3.03854e-07
-9.64592e-08
-9.20187e-08
-2.23366e-05
6.57703e-07
-3.61106e-07
2.1186e-05
-9.21159e-06
8.39583e-07
-9.14324e-07
9.28633e-06
-7.28313e-06
6.60737e-08
-5.66616e-07
7.66347e-06
-1.94268e-05
7.79216e-07
-8.11978e-07
4.02087e-07
1.87334e-05
-8.01871e-06
-4.65567e-07
5.86927e-07
7.89735e-06
-5.17869e-06
1.62191e-07
-3.92081e-07
5.40858e-06
-1.63046e-05
-7.81073e-08
-3.70994e-08
1.64198e-05
3.37693e-07
-9.28078e-07
-1.95044e-05
1.71668e-06
-1.58436e-06
1.99625e-05
1.25397e-06
-1.9737e-05
-2.22137e-06
2.18873e-06
-1.57341e-06
2.00891e-05
-2.63533e-05
-7.25503e-07
1.61197e-06
-2.72207e-07
2.77697e-05
-2.03066e-06
5.78563e-07
7.97547e-07
-9.71249e-06
-4.42651e-07
-5.53165e-07
9.3322e-06
-3.30283e-06
-1.59905e-05
7.22799e-05
2.2731e-06
2.01736e-06
2.34578e-06
2.57584e-06
1.05691e-06
1.37992e-06
1.2892e-06
1.85434e-06
-6.41525e-06
-6.01998e-06
8.8819e-05
1.08959e-06
8.91633e-07
1.53096e-06
1.29746e-06
-1.62971e-06
-9.59085e-07
8.72763e-05
-2.82261e-07
-1.37472e-06
-6.62137e-08
-1.34607e-06
-1.95609e-06
-1.34641e-06
-1.81389e-06
-1.52462e-05
-2.01464e-06
3.91185e-06
1.17193e-05
-2.47283e-06
-1.2558e-06
1.37801e-06
2.35062e-06
7.981e-07
-6.53783e-06
1.01128e-06
-1.93667e-06
1.16554e-07
6.54856e-06
-7.51769e-06
-1.33813e-05
6.23266e-05
2.58379e-06
8.21732e-07
3.14029e-06
1.15485e-06
-5.89801e-06
-6.54073e-06
9.08432e-05
-1.52717e-06
-1.40759e-06
8.30569e-05
-1.3801e-06
-1.46414e-06
-1.61239e-06
-9.87496e-07
-8.58744e-07
-9.4001e-07
-1.66264e-05
-1.56029e-06
7.53137e-08
-6.32761e-07
1.7217e-05
-2.94105e-06
-2.76313e-06
1.91561e-06
1.90891e-06
3.16565e-06
-1.28599e-06
-5.85003e-06
-2.78711e-07
3.77172e-05
-2.72224e-07
3.78931e-08
-1.94783e-07
2.656e-08
-1.04852e-06
-4.7353e-07
-1.03301e-06