/*--------------------------------*- C++ -*----------------------------------*\
| =========                 |                                                 |
| \\      /  F ield         | OpenFOAM: The Open Source CFD Toolbox           |
|  \\    /   O peration     | Version:  5.x                                   |
|   \\  /    A nd           | Web:      www.OpenFOAM.org                      |
|    \\/     M anipulation  |                                                 |
\*---------------------------------------------------------------------------*/
FoamFile
{
    version     2.0;
    format      ascii;
    class       volVectorField;
    location    "4";
    object      Us;
}
// * * * * * * * * * * * * * * * * * * * * * * * * * * * * * * * * * * * * * //

dimensions      [0 1 -1 0 0 0 0];

internalField   nonuniform List<vector> 
10571
(
(-0.0218757 -0.00575931 0.0234826)
(-0.0020345 -0.000231657 0.0618374)
(0.0637471 -0.0452104 0.0770529)
(-0.0702849 -0.145819 0.0694693)
(-0.0437042 -0.0829603 0.0459436)
(-0.00854664 -0.0242148 0.0927307)
(-0.0463798 -0.0938738 0.0956025)
(-0.0964236 -0.208868 0.0669599)
(-0.00298588 -0.227183 0.0125205)
(-0.0141023 -0.129921 0.0505464)
(0.000625635 -0.0468737 0.0436237)
(-0.0134344 -0.0440039 0.0410618)
(-0.0809245 -0.0842028 0.050924)
(-0.0528592 -0.0762167 -0.0550574)
(0.0033301 -0.088096 -0.068603)
(0.0559991 -0.0886545 0.00775828)
(-0.0153413 0.0195649 0.0266839)
(-0.0051181 0.0425795 -0.00113767)
(-0.0670702 0.117582 0.00085145)
(-0.0628341 0.0964557 -0.01232)
(0.00424885 -0.0134601 -0.0178542)
(0.0533057 0.0461627 0.077477)
(-0.100164 0.0372084 0.0956417)
(-0.110048 0.0578904 -0.000945656)
(0.0531598 -0.00131962 0.162164)
(-0.0260878 0.0133387 0.13027)
(-0.0206626 0.0105959 0.208806)
(0.041909 -0.129932 0.239867)
(-0.0144626 -0.0805703 0.181692)
(0.000164347 -0.0421042 0.224274)
(0.0106496 -0.053391 0.203292)
(-0.0376378 -0.0952032 0.124692)
(-0.0775933 -0.143234 0.0976799)
(-0.0554073 -0.132534 0.124453)
(0.000343222 -0.0335315 0.247124)
(-0.0048947 -0.0498973 0.262838)
(-0.0364578 -0.0429996 0.0349218)
(-0.05853 -0.0334655 -0.0740424)
(-0.0644996 -0.069918 -0.0498379)
(-0.00946873 -0.0897579 0.017409)
(-0.0221906 -0.0374766 0.192355)
(-0.0578916 -0.0386672 0.0657793)
(-0.104912 0.0203844 -0.0105838)
(-0.0808188 0.0195191 -0.0253256)
(-0.0072728 -0.00310683 -0.0103068)
(0.0881743 0.0267031 0.231861)
(-0.0812139 0.0403794 0.227489)
(-0.0880875 0.0478655 0.0112381)
(0.0294646 0.00751737 0.179348)
(-0.200378 0.0749342 0.208848)
(-0.118605 0.034223 0.194739)
(0.0237724 -0.0151544 0.327585)
(0.000838144 -0.0375053 0.305112)
(-0.0179007 -0.0462759 0.249674)
(0.0155996 0.0155638 0.183161)
(-0.0136843 -0.0345825 0.201286)
(-0.118499 -0.0695745 0.0975941)
(-0.0655852 -0.0847018 0.0717615)
(-0.00794993 -0.031469 0.257651)
(-0.0103134 -0.052519 0.266985)
(-0.0549656 -0.0895882 0.0515072)
(-0.0512138 -0.0276917 -0.0834478)
(-0.0783745 -0.0244572 -0.0994715)
(-0.0520272 -0.0320035 -0.0788727)
(-0.0511407 -0.0611556 0.221602)
(-0.103005 -0.146619 0.0153821)
(-0.0809813 -0.0587253 -0.057067)
(-0.0750869 -0.000700391 -0.0852083)
(-0.0230879 0.01958 -0.0728743)
(-0.156931 -0.0866991 -0.0135803)
(-0.0619525 -0.0210343 0.00140575)
(-0.050561 0.0201124 -0.0379642)
(0.00281593 -0.0284531 0.17707)
(0 0 0)
(-0.047211 -0.0208595 -0.379339)
(-0.000942914 0.00680573 0.30228)
(0.0151538 0.00248295 0.357339)
(0 0 0)
(0.00997524 0.0739815 -0.371722)
(0.0104085 0.0520777 0.0938715)
(-0.110727 -0.0232782 0.17106)
(-0.0556347 0.0128461 -0.0785894)
(0 0 0)
(0 0 0)
(0 0 0)
(0.0972425 0.126689 -0.358854)
(-0.024435 0.0779496 -0.201667)
(-0.0642738 0.0246249 -0.171199)
(0 0 0)
(-0.154775 -0.127822 0.00862862)
(-0.0588313 -0.0279423 -0.0797775)
(-0.0716221 0.0792742 -0.098722)
(-0.0526661 0.0683732 -0.146961)
(-0.157221 -0.104202 0.0345647)
(-0.0510039 -0.0408791 -0.100367)
(-0.0425201 0.0179821 -0.0585747)
(0.0083315 -0.0120198 -0.326462)
(0 0 0)
(0 0 0)
(0.0459159 0.00259686 -0.386939)
(0.0129852 0.00518054 0.360161)
(0 0 0)
(0.00907808 0.0523831 -0.343418)
(0.0803213 0.104994 -0.327588)
(0.146239 0.144912 -0.312514)
(0.0699308 0.173141 -0.253567)
(0 0 0)
(0 0 0)
(0 0 0)
(0.12706 0.165566 -0.373976)
(0.169964 0.183094 -0.391443)
(0.0613604 0.124061 -0.326257)
(0 0 0)
(0 0 0)
(0 0 0)
(0 0 0)
(-0.0985687 0.189088 -0.153598)
(0 0 0)
(0 0 0)
(-0.206931 0.171648 0.000397262)
(-0.00373847 -0.00665004 -0.273676)
(0 0 0)
(0 0 0)
(0.0161778 0.0364627 -0.349569)
(0.118597 0.0137565 -0.266401)
(0 0 0)
(-4.2533e-15 9.42593e-15 -3.21024e-14)
(0.0826287 0.086974 -0.286211)
(0.137926 0.117146 -0.322421)
(0.127456 0.127912 -0.276929)
(-0.00382453 0.00228343 -0.00228309)
(0 0 0)
(0 0 0)
(0 0 0)
(0 0 0)
(0.144544 0.187288 -0.362471)
(0.164428 0.199701 -0.35231)
(0.00227552 0.0101922 -0.00372766)
(0 0 0)
(0 0 0)
(0 0 0)
(0 0 0)
(0 0 0)
(0 0 0)
(0 0 0)
(0 0 0)
(-0.00161302 0.000505056 -0.181105)
(0 0 0)
(0 0 0)
(0.00244587 0.0634864 -0.308439)
(0.124747 0.0212923 -0.181031)
(0 0 0)
(0 0 0)
(0.0518848 0.116035 -0.304317)
(0.117742 0.133415 -0.272587)
(0.208355 0.101738 -0.158362)
(0 0 0)
(0 0 0)
(0 0 0)
(0 0 0)
(0 0 0)
(0.13132 0.193965 -0.321114)
(0.16167 0.207978 -0.305379)
(0.230775 0.22963 -0.301946)
(0 0 0)
(0 0 0)
(0 0 0)
(0 0 0)
(0 0 0)
(0 0 0)
(0 0 0)
(0 0 0)
(0 0 0)
(-0.00913838 0.00734006 -0.20386)
(0 0 0)
(0 0 0)
(-0.0121086 0.0559215 -0.256332)
(0.12064 0.0319656 -0.112026)
(0 0 0)
(0 0 0)
(0 0 0)
(0.116005 0.136334 -0.22376)
(0.167903 0.131796 -0.17734)
(0.158784 0.188802 -0.238234)
(0 0 0)
(0 0 0)
(0 0 0)
(0 0 0)
(0 0 0)
(0.158161 0.209338 -0.259411)
(0.22899 0.235776 -0.236389)
(0 0 0)
(0 0 0)
(0 0 0)
(0 0 0)
(0 0 0)
(0 0 0)
(0 0 0)
(0 0 0)
(0 0 0)
(0 0 0)
(0 0 0)
(0 0 0)
(0 0 0)
(0.0789764 0.055416 -0.10244)
(0 0 0)
(0 0 0)
(0 0 0)
(0.122931 0.12435 -0.144534)
(0.112392 0.144548 -0.134669)
(0 0 0)
(0 0 0)
(0 0 0)
(0 0 0)
(0 0 0)
(0 0 0)
(0 0 0)
(0.188495 0.274921 -0.148961)
(0 0 0)
(0 0 0)
(0 0 0)
(0 0 0)
(0 0 0)
(0 0 0)
(0 0 0)
(0 0 0)
(0 0 0)
(0 0 0)
(0 0 0)
(0 0 0)
(0.0801072 0.0524689 -0.0431123)
(0 0 0)
(0 0 0)
(0 0 0)
(0.140255 0.128167 -0.0519326)
(0.0867443 0.155526 -0.0695019)
(0 0 0)
(0 0 0)
(0 0 0)
(0 0 0)
(0 0 0)
(0 0 0)
(0 0 0)
(0 0 0)
(0 0 0)
(0 0 0)
(0 0 0)
(0 0 0)
(0 0 0)
(0 0 0)
(0 0 0)
(0 0 0)
(0 0 0)
(0 0 0)
(0.0776158 0.0401396 0.03913)
(0 0 0)
(0 0 0)
(0 0 0)
(0.143963 0.137651 -0.0183356)
(0.0569007 0.169882 -0.0159871)
(0 0 0)
(0 0 0)
(0 0 0)
(0 0 0)
(0 0 0)
(0 0 0)
(0 0 0)
(0 0 0)
(0 0 0)
(0 0 0)
(0 0 0)
(0 0 0)
(0 0 0)
(0 0 0)
(0 0 0)
(0 0 0)
(0 0 0)
(0 0 0)
(0.0960684 0.0562753 0.102818)
(0 0 0)
(0 0 0)
(0 0 0)
(0 0 0)
(0.025015 0.192574 0.0117644)
(0 0 0)
(0 0 0)
(0 0 0)
(0 0 0)
(0 0 0)
(0 0 0)
(0 0 0)
(0 0 0)
(0 0 0)
(0 0 0)
(0 0 0)
(0 0 0)
(0 0 0)
(0 0 0)
(0 0 0)
(0 0 0)
(0 0 0)
(0 0 0)
(0 0 0)
(0 0 0)
(0 0 0)
(0 0 0)
(0 0 0)
(0 0 0)
(0 0 0)
(0 0 0)
(0 0 0)
(0 0 0)
(0 0 0)
(0 0 0)
(0 0 0)
(0 0 0)
(0 0 0)
(0 0 0)
(0 0 0)
(0 0 0)
(0 0 0)
(0 0 0)
(0 0 0)
(0 0 0)
(0 0 0)
(0 0 0)
(0 0 0)
(0 0 0)
(0 0 0)
(0 0 0)
(0 0 0)
(0 0 0)
(0 0 0)
(0 0 0)
(0 0 0)
(0 0 0)
(0 0 0)
(0 0 0)
(0 0 0)
(0 0 0)
(0 0 0)
(0 0 0)
(0 0 0)
(0 0 0)
(0 0 0)
(0 0 0)
(0 0 0)
(0 0 0)
(0 0 0)
(0 0 0)
(0 0 0)
(0 0 0)
(0 0 0)
(0 0 0)
(0 0 0)
(0 0 0)
(0 0 0)
(0 0 0)
(0 0 0)
(0 0 0)
(0 0 0)
(0 0 0)
(0 0 0)
(0 0 0)
(0 0 0)
(0 0 0)
(0 0 0)
(0 0 0)
(0 0 0)
(0 0 0)
(0 0 0)
(0 0 0)
(0 0 0)
(0 0 0)
(0 0 0)
(0 0 0)
(0 0 0)
(0 0 0)
(0 0 0)
(0 0 0)
(0 0 0)
(0 0 0)
(0 0 0)
(0 0 0)
(0 0 0)
(0 0 0)
(0 0 0)
(0 0 0)
(0 0 0)
(0 0 0)
(0 0 0)
(0 0 0)
(0 0 0)
(0 0 0)
(0 0 0)
(0 0 0)
(0 0 0)
(0 0 0)
(0 0 0)
(0 0 0)
(0 0 0)
(0 0 0)
(0 0 0)
(0 0 0)
(0 0 0)
(0 0 0)
(0 0 0)
(0 0 0)
(0 0 0)
(0 0 0)
(0 0 0)
(0 0 0)
(0 0 0)
(0 0 0)
(0 0 0)
(0 0 0)
(0 0 0)
(0 0 0)
(0 0 0)
(0 0 0)
(0 0 0)
(0 0 0)
(0 0 0)
(0 0 0)
(0 0 0)
(0 0 0)
(0 0 0)
(0 0 0)
(0 0 0)
(0 0 0)
(0 0 0)
(0 0 0)
(0 0 0)
(0 0 0)
(0 0 0)
(0 0 0)
(0 0 0)
(0 0 0)
(0 0 0)
(0 0 0)
(0 0 0)
(0 0 0)
(0 0 0)
(0 0 0)
(0 0 0)
(0 0 0)
(0 0 0)
(0 0 0)
(0 0 0)
(0 0 0)
(0 0 0)
(0 0 0)
(0 0 0)
(0 0 0)
(0 0 0)
(0 0 0)
(0 0 0)
(0 0 0)
(0 0 0)
(0 0 0)
(0 0 0)
(0 0 0)
(0 0 0)
(0 0 0)
(0 0 0)
(0 0 0)
(0 0 0)
(0 0 0)
(0 0 0)
(0 0 0)
(0 0 0)
(0 0 0)
(0 0 0)
(0 0 0)
(0 0 0)
(0 0 0)
(0 0 0)
(0 0 0)
(0 0 0)
(0 0 0)
(0 0 0)
(0 0 0)
(0 0 0)
(0 0 0)
(0 0 0)
(0 0 0)
(0 0 0)
(0 0 0)
(0 0 0)
(0 0 0)
(0 0 0)
(0 0 0)
(0 0 0)
(0 0 0)
(0 0 0)
(0 0 0)
(0 0 0)
(0 0 0)
(0 0 0)
(0 0 0)
(0 0 0)
(0 0 0)
(0 0 0)
(0 0 0)
(0 0 0)
(0 0 0)
(0 0 0)
(0 0 0)
(0 0 0)
(0 0 0)
(0 0 0)
(0 0 0)
(0 0 0)
(0 0 0)
(0 0 0)
(0 0 0)
(0 0 0)
(0 0 0)
(0 0 0)
(0 0 0)
(0 0 0)
(0 0 0)
(0 0 0)
(0 0 0)
(0 0 0)
(0 0 0)
(0 0 0)
(0 0 0)
(0 0 0)
(0 0 0)
(0 0 0)
(0 0 0)
(0 0 0)
(0 0 0)
(0 0 0)
(0 0 0)
(0 0 0)
(0 0 0)
(0 0 0)
(0 0 0)
(0 0 0)
(0 0 0)
(0 0 0)
(0 0 0)
(0 0 0)
(0 0 0)
(0 0 0)
(0 0 0)
(0 0 0)
(0 0 0)
(0 0 0)
(0 0 0)
(0 0 0)
(0 0 0)
(0 0 0)
(0 0 0)
(0 0 0)
(0 0 0)
(0 0 0)
(0 0 0)
(0 0 0)
(0 0 0)
(0 0 0)
(0 0 0)
(0 0 0)
(0 0 0)
(0 0 0)
(0 0 0)
(0 0 0)
(0 0 0)
(0 0 0)
(0 0 0)
(0 0 0)
(0 0 0)
(0 0 0)
(0 0 0)
(0 0 0)
(0 0 0)
(0 0 0)
(0 0 0)
(0 0 0)
(0 0 0)
(0 0 0)
(0 0 0)
(0 0 0)
(0 0 0)
(0 0 0)
(0 0 0)
(0 0 0)
(0 0 0)
(0 0 0)
(0 0 0)
(0 0 0)
(0 0 0)
(0 0 0)
(0 0 0)
(0 0 0)
(0 0 0)
(0 0 0)
(0 0 0)
(0 0 0)
(0 0 0)
(0 0 0)
(0 0 0)
(0 0 0)
(0 0 0)
(0 0 0)
(0 0 0)
(0 0 0)
(0 0 0)
(0 0 0)
(0 0 0)
(0 0 0)
(0 0 0)
(0 0 0)
(0 0 0)
(0 0 0)
(0 0 0)
(0 0 0)
(0 0 0)
(0 0 0)
(0 0 0)
(0 0 0)
(0 0 0)
(0 0 0)
(0 0 0)
(0 0 0)
(0 0 0)
(0 0 0)
(0 0 0)
(0 0 0)
(0 0 0)
(0 0 0)
(0 0 0)
(0 0 0)
(0 0 0)
(0 0 0)
(0 0 0)
(0 0 0)
(0 0 0)
(0 0 0)
(0 0 0)
(0 0 0)
(0 0 0)
(0 0 0)
(0 0 0)
(0 0 0)
(0 0 0)
(0 0 0)
(0 0 0)
(0 0 0)
(0 0 0)
(0 0 0)
(0 0 0)
(0 0 0)
(0 0 0)
(0 0 0)
(0 0 0)
(0 0 0)
(0 0 0)
(0 0 0)
(0 0 0)
(0 0 0)
(0 0 0)
(0 0 0)
(0 0 0)
(0 0 0)
(0 0 0)
(0 0 0)
(0 0 0)
(0 0 0)
(0 0 0)
(0 0 0)
(0 0 0)
(0 0 0)
(0 0 0)
(0 0 0)
(0 0 0)
(0 0 0)
(0 0 0)
(0 0 0)
(0 0 0)
(0 0 0)
(0 0 0)
(0 0 0)
(0 0 0)
(0 0 0)
(0 0 0)
(0 0 0)
(0 0 0)
(0 0 0)
(0 0 0)
(0 0 0)
(0 0 0)
(0 0 0)
(0 0 0)
(0 0 0)
(0 0 0)
(0 0 0)
(0 0 0)
(0 0 0)
(0 0 0)
(0 0 0)
(0 0 0)
(0 0 0)
(0 0 0)
(0 0 0)
(0 0 0)
(0 0 0)
(0 0 0)
(0 0 0)
(0 0 0)
(0 0 0)
(0 0 0)
(0 0 0)
(0 0 0)
(0 0 0)
(0 0 0)
(0 0 0)
(0 0 0)
(0 0 0)
(0 0 0)
(0 0 0)
(0 0 0)
(0 0 0)
(0 0 0)
(0 0 0)
(0 0 0)
(0 0 0)
(0 0 0)
(0 0 0)
(0 0 0)
(0 0 0)
(0 0 0)
(0 0 0)
(0 0 0)
(0 0 0)
(0 0 0)
(0 0 0)
(0 0 0)
(0 0 0)
(0 0 0)
(0 0 0)
(0 0 0)
(0 0 0)
(0 0 0)
(0 0 0)
(0 0 0)
(0 0 0)
(0 0 0)
(0 0 0)
(0 0 0)
(0 0 0)
(0 0 0)
(0 0 0)
(0 0 0)
(0 0 0)
(0 0 0)
(0 0 0)
(0 0 0)
(0 0 0)
(0 0 0)
(0 0 0)
(0 0 0)
(0 0 0)
(0 0 0)
(0 0 0)
(0 0 0)
(0 0 0)
(0 0 0)
(0 0 0)
(0 0 0)
(0 0 0)
(0 0 0)
(0 0 0)
(0 0 0)
(0 0 0)
(0 0 0)
(0 0 0)
(0 0 0)
(0 0 0)
(0 0 0)
(0 0 0)
(0 0 0)
(0 0 0)
(0 0 0)
(0 0 0)
(0 0 0)
(0 0 0)
(0 0 0)
(0 0 0)
(0 0 0)
(0 0 0)
(0 0 0)
(0 0 0)
(0 0 0)
(0 0 0)
(0 0 0)
(0 0 0)
(0 0 0)
(0 0 0)
(0 0 0)
(0 0 0)
(0 0 0)
(0 0 0)
(0 0 0)
(0 0 0)
(0 0 0)
(0 0 0)
(0 0 0)
(0 0 0)
(0 0 0)
(0 0 0)
(0 0 0)
(0 0 0)
(0 0 0)
(0 0 0)
(0 0 0)
(0 0 0)
(0 0 0)
(0 0 0)
(0 0 0)
(0 0 0)
(0 0 0)
(0 0 0)
(0 0 0)
(0 0 0)
(0 0 0)
(0 0 0)
(0 0 0)
(0 0 0)
(0 0 0)
(0 0 0)
(0 0 0)
(0 0 0)
(0 0 0)
(0 0 0)
(0 0 0)
(0 0 0)
(0 0 0)
(0 0 0)
(0 0 0)
(0 0 0)
(0 0 0)
(0 0 0)
(0 0 0)
(0 0 0)
(0 0 0)
(0 0 0)
(0 0 0)
(0 0 0)
(0 0 0)
(0 0 0)
(0 0 0)
(0 0 0)
(0 0 0)
(0 0 0)
(0 0 0)
(0 0 0)
(0 0 0)
(0 0 0)
(0 0 0)
(0 0 0)
(0 0 0)
(0 0 0)
(0 0 0)
(0 0 0)
(0 0 0)
(0 0 0)
(0 0 0)
(0 0 0)
(0 0 0)
(0 0 0)
(0 0 0)
(0 0 0)
(0 0 0)
(0 0 0)
(0 0 0)
(0 0 0)
(0 0 0)
(0 0 0)
(0 0 0)
(0 0 0)
(0 0 0)
(0 0 0)
(0 0 0)
(0 0 0)
(0 0 0)
(0 0 0)
(0 0 0)
(0 0 0)
(0 0 0)
(0 0 0)
(0 0 0)
(0 0 0)
(0 0 0)
(0 0 0)
(0 0 0)
(0 0 0)
(0 0 0)
(0 0 0)
(0 0 0)
(0 0 0)
(0 0 0)
(0 0 0)
(0 0 0)
(0 0 0)
(0 0 0)
(0 0 0)
(0 0 0)
(0 0 0)
(0 0 0)
(0 0 0)
(0 0 0)
(0 0 0)
(0 0 0)
(0 0 0)
(0 0 0)
(0 0 0)
(0 0 0)
(0 0 0)
(0 0 0)
(0 0 0)
(0 0 0)
(0 0 0)
(0 0 0)
(0 0 0)
(0 0 0)
(0 0 0)
(0 0 0)
(0 0 0)
(0 0 0)
(0 0 0)
(0 0 0)
(0 0 0)
(0 0 0)
(0 0 0)
(0 0 0)
(0 0 0)
(0 0 0)
(0 0 0)
(0 0 0)
(0 0 0)
(0 0 0)
(0 0 0)
(0 0 0)
(0 0 0)
(0 0 0)
(0 0 0)
(0 0 0)
(0 0 0)
(0 0 0)
(0 0 0)
(0 0 0)
(0 0 0)
(0 0 0)
(0 0 0)
(0 0 0)
(0 0 0)
(0 0 0)
(0 0 0)
(0 0 0)
(0 0 0)
(0 0 0)
(0 0 0)
(0 0 0)
(0 0 0)
(0 0 0)
(0 0 0)
(0 0 0)
(0 0 0)
(0 0 0)
(0 0 0)
(0 0 0)
(0 0 0)
(0 0 0)
(0 0 0)
(0 0 0)
(0 0 0)
(0 0 0)
(0 0 0)
(0 0 0)
(0 0 0)
(0 0 0)
(0 0 0)
(0 0 0)
(0 0 0)
(0 0 0)
(0 0 0)
(0 0 0)
(0 0 0)
(0 0 0)
(0 0 0)
(0 0 0)
(0 0 0)
(0 0 0)
(0 0 0)
(0 0 0)
(0 0 0)
(0 0 0)
(0 0 0)
(0 0 0)
(0 0 0)
(0 0 0)
(0 0 0)
(0 0 0)
(0 0 0)
(0 0 0)
(0 0 0)
(0 0 0)
(0 0 0)
(0 0 0)
(0 0 0)
(0 0 0)
(0 0 0)
(0 0 0)
(0 0 0)
(0 0 0)
(0 0 0)
(0 0 0)
(0 0 0)
(0 0 0)
(0 0 0)
(0 0 0)
(0 0 0)
(0 0 0)
(0 0 0)
(0 0 0)
(0 0 0)
(0 0 0)
(0 0 0)
(0 0 0)
(0 0 0)
(0 0 0)
(0 0 0)
(0 0 0)
(0 0 0)
(0 0 0)
(0 0 0)
(0 0 0)
(0 0 0)
(0 0 0)
(0 0 0)
(0 0 0)
(0 0 0)
(0 0 0)
(0 0 0)
(0 0 0)
(0 0 0)
(0 0 0)
(0 0 0)
(0 0 0)
(0 0 0)
(0 0 0)
(0 0 0)
(0 0 0)
(0 0 0)
(0 0 0)
(0 0 0)
(0 0 0)
(0 0 0)
(0 0 0)
(0 0 0)
(0 0 0)
(0 0 0)
(0 0 0)
(0 0 0)
(0 0 0)
(0 0 0)
(0 0 0)
(0 0 0)
(0 0 0)
(0 0 0)
(0 0 0)
(0 0 0)
(0 0 0)
(0 0 0)
(0 0 0)
(0 0 0)
(0 0 0)
(0 0 0)
(0 0 0)
(0 0 0)
(0 0 0)
(0 0 0)
(0 0 0)
(0 0 0)
(0 0 0)
(0 0 0)
(0 0 0)
(0 0 0)
(0 0 0)
(0 0 0)
(0 0 0)
(0 0 0)
(0 0 0)
(0 0 0)
(0 0 0)
(0 0 0)
(0 0 0)
(0 0 0)
(0 0 0)
(0 0 0)
(0 0 0)
(0 0 0)
(0 0 0)
(0 0 0)
(0 0 0)
(0 0 0)
(0 0 0)
(0 0 0)
(0 0 0)
(0 0 0)
(0 0 0)
(0 0 0)
(0 0 0)
(0 0 0)
(0 0 0)
(0 0 0)
(0 0 0)
(0 0 0)
(0 0 0)
(0 0 0)
(0 0 0)
(0 0 0)
(0 0 0)
(0 0 0)
(0 0 0)
(0 0 0)
(0 0 0)
(0 0 0)
(0 0 0)
(0 0 0)
(0 0 0)
(0 0 0)
(0 0 0)
(0 0 0)
(0 0 0)
(0 0 0)
(0 0 0)
(0 0 0)
(0 0 0)
(0 0 0)
(0 0 0)
(0 0 0)
(0 0 0)
(0 0 0)
(0 0 0)
(0 0 0)
(0 0 0)
(0 0 0)
(0 0 0)
(0 0 0)
(0 0 0)
(0 0 0)
(0 0 0)
(0 0 0)
(0 0 0)
(0 0 0)
(0 0 0)
(0 0 0)
(0 0 0)
(0 0 0)
(0 0 0)
(0 0 0)
(0 0 0)
(0 0 0)
(0 0 0)
(0 0 0)
(0 0 0)
(0 0 0)
(0 0 0)
(0 0 0)
(0 0 0)
(0 0 0)
(0 0 0)
(0 0 0)
(0 0 0)
(0 0 0)
(0 0 0)
(0 0 0)
(0 0 0)
(0 0 0)
(0 0 0)
(0 0 0)
(0 0 0)
(0 0 0)
(0 0 0)
(0 0 0)
(0 0 0)
(0 0 0)
(0 0 0)
(0 0 0)
(0 0 0)
(0 0 0)
(0 0 0)
(0 0 0)
(0 0 0)
(0 0 0)
(0 0 0)
(0 0 0)
(0 0 0)
(0 0 0)
(0 0 0)
(0 0 0)
(0 0 0)
(0 0 0)
(0 0 0)
(0 0 0)
(0 0 0)
(0 0 0)
(0 0 0)
(0 0 0)
(0 0 0)
(0 0 0)
(0 0 0)
(0 0 0)
(0 0 0)
(0 0 0)
(0 0 0)
(0 0 0)
(0 0 0)
(0 0 0)
(0 0 0)
(0 0 0)
(0 0 0)
(0 0 0)
(0 0 0)
(0 0 0)
(0 0 0)
(0 0 0)
(0 0 0)
(0 0 0)
(0 0 0)
(0 0 0)
(0 0 0)
(0 0 0)
(0 0 0)
(0 0 0)
(0 0 0)
(0 0 0)
(0 0 0)
(0 0 0)
(0 0 0)
(0 0 0)
(0 0 0)
(0 0 0)
(0 0 0)
(0 0 0)
(0 0 0)
(0 0 0)
(0 0 0)
(0 0 0)
(0 0 0)
(0 0 0)
(0 0 0)
(0 0 0)
(0 0 0)
(0 0 0)
(0 0 0)
(0 0 0)
(0 0 0)
(0 0 0)
(0 0 0)
(0 0 0)
(0 0 0)
(0 0 0)
(0 0 0)
(0 0 0)
(0 0 0)
(0 0 0)
(0 0 0)
(0 0 0)
(0 0 0)
(0 0 0)
(0 0 0)
(0 0 0)
(0 0 0)
(0 0 0)
(0 0 0)
(0 0 0)
(0 0 0)
(0 0 0)
(0 0 0)
(0 0 0)
(0 0 0)
(0 0 0)
(0 0 0)
(0 0 0)
(0 0 0)
(0 0 0)
(0 0 0)
(0 0 0)
(0 0 0)
(0 0 0)
(0 0 0)
(0 0 0)
(0 0 0)
(0 0 0)
(0 0 0)
(0 0 0)
(0 0 0)
(0 0 0)
(0 0 0)
(0 0 0)
(0 0 0)
(0 0 0)
(0 0 0)
(0 0 0)
(0 0 0)
(0 0 0)
(0 0 0)
(0 0 0)
(0 0 0)
(0 0 0)
(0 0 0)
(0 0 0)
(0 0 0)
(0 0 0)
(0 0 0)
(0 0 0)
(0 0 0)
(0 0 0)
(0 0 0)
(0 0 0)
(0 0 0)
(0 0 0)
(0 0 0)
(0 0 0)
(0 0 0)
(0 0 0)
(0 0 0)
(0 0 0)
(0 0 0)
(0 0 0)
(0 0 0)
(0 0 0)
(0 0 0)
(0 0 0)
(0 0 0)
(0 0 0)
(0 0 0)
(0 0 0)
(0 0 0)
(0 0 0)
(0 0 0)
(0 0 0)
(0 0 0)
(0 0 0)
(0 0 0)
(0 0 0)
(0 0 0)
(0 0 0)
(0 0 0)
(0 0 0)
(0 0 0)
(0 0 0)
(0 0 0)
(0 0 0)
(0 0 0)
(0 0 0)
(0 0 0)
(0 0 0)
(0 0 0)
(0 0 0)
(0 0 0)
(0 0 0)
(0 0 0)
(0 0 0)
(0 0 0)
(0 0 0)
(0 0 0)
(0 0 0)
(0 0 0)
(0 0 0)
(0 0 0)
(0 0 0)
(0 0 0)
(0 0 0)
(0 0 0)
(0 0 0)
(0 0 0)
(0 0 0)
(0 0 0)
(0 0 0)
(0 0 0)
(0 0 0)
(0 0 0)
(0 0 0)
(0 0 0)
(0 0 0)
(0 0 0)
(0 0 0)
(0 0 0)
(0 0 0)
(0 0 0)
(0 0 0)
(0 0 0)
(0 0 0)
(0 0 0)
(0 0 0)
(0 0 0)
(0 0 0)
(0 0 0)
(0 0 0)
(0 0 0)
(0 0 0)
(0 0 0)
(0 0 0)
(0 0 0)
(0 0 0)
(0 0 0)
(0 0 0)
(0 0 0)
(0 0 0)
(0 0 0)
(0 0 0)
(0 0 0)
(0 0 0)
(0 0 0)
(0 0 0)
(0 0 0)
(0 0 0)
(0 0 0)
(0 0 0)
(0 0 0)
(0 0 0)
(0 0 0)
(0 0 0)
(0 0 0)
(0 0 0)
(0 0 0)
(0 0 0)
(0 0 0)
(0 0 0)
(0 0 0)
(0 0 0)
(0 0 0)
(0 0 0)
(0 0 0)
(0 0 0)
(0 0 0)
(0 0 0)
(0 0 0)
(0 0 0)
(0 0 0)
(0 0 0)
(0 0 0)
(0 0 0)
(0 0 0)
(0 0 0)
(0 0 0)
(0 0 0)
(0 0 0)
(0 0 0)
(0 0 0)
(0 0 0)
(0 0 0)
(0 0 0)
(0 0 0)
(0 0 0)
(0 0 0)
(0 0 0)
(0 0 0)
(0 0 0)
(0 0 0)
(0 0 0)
(0 0 0)
(0 0 0)
(0 0 0)
(0 0 0)
(0 0 0)
(0 0 0)
(0 0 0)
(0 0 0)
(0 0 0)
(0 0 0)
(0 0 0)
(0 0 0)
(0 0 0)
(0 0 0)
(0 0 0)
(0 0 0)
(0 0 0)
(0 0 0)
(0 0 0)
(0 0 0)
(0 0 0)
(0 0 0)
(0 0 0)
(0 0 0)
(0 0 0)
(0 0 0)
(0 0 0)
(0 0 0)
(0 0 0)
(0 0 0)
(0 0 0)
(0 0 0)
(0 0 0)
(0 0 0)
(0 0 0)
(0 0 0)
(0 0 0)
(0 0 0)
(0 0 0)
(0 0 0)
(0 0 0)
(0 0 0)
(0 0 0)
(0 0 0)
(0 0 0)
(0 0 0)
(0 0 0)
(0 0 0)
(0 0 0)
(0 0 0)
(0 0 0)
(0 0 0)
(0 0 0)
(0 0 0)
(0 0 0)
(0 0 0)
(0 0 0)
(0 0 0)
(0 0 0)
(0 0 0)
(0 0 0)
(0 0 0)
(0 0 0)
(0 0 0)
(0 0 0)
(0 0 0)
(0 0 0)
(0 0 0)
(0 0 0)
(0 0 0)
(0 0 0)
(0 0 0)
(0 0 0)
(0 0 0)
(0 0 0)
(0 0 0)
(0 0 0)
(0 0 0)
(0 0 0)
(0 0 0)
(0 0 0)
(0 0 0)
(0 0 0)
(0 0 0)
(0 0 0)
(0 0 0)
(0 0 0)
(0 0 0)
(0 0 0)
(0 0 0)
(0 0 0)
(0 0 0)
(0 0 0)
(0 0 0)
(0 0 0)
(0 0 0)
(0 0 0)
(0 0 0)
(0 0 0)
(0 0 0)
(0 0 0)
(0 0 0)
(0 0 0)
(0 0 0)
(0 0 0)
(0 0 0)
(0 0 0)
(0 0 0)
(0 0 0)
(0 0 0)
(0 0 0)
(0 0 0)
(0 0 0)
(0 0 0)
(0 0 0)
(0 0 0)
(0 0 0)
(0 0 0)
(0 0 0)
(0 0 0)
(0 0 0)
(0 0 0)
(0 0 0)
(0 0 0)
(0 0 0)
(0 0 0)
(0 0 0)
(0 0 0)
(0 0 0)
(0 0 0)
(0 0 0)
(0 0 0)
(0 0 0)
(0 0 0)
(0 0 0)
(0 0 0)
(0 0 0)
(0 0 0)
(0 0 0)
(0 0 0)
(0 0 0)
(0 0 0)
(0 0 0)
(0 0 0)
(0 0 0)
(0 0 0)
(0 0 0)
(0 0 0)
(0 0 0)
(0 0 0)
(0 0 0)
(0 0 0)
(0 0 0)
(0 0 0)
(0 0 0)
(0 0 0)
(0 0 0)
(0 0 0)
(0 0 0)
(0 0 0)
(0 0 0)
(0 0 0)
(0 0 0)
(0 0 0)
(0 0 0)
(0 0 0)
(0 0 0)
(0 0 0)
(0 0 0)
(0 0 0)
(0 0 0)
(0 0 0)
(0 0 0)
(0 0 0)
(0 0 0)
(0 0 0)
(0 0 0)
(0 0 0)
(0 0 0)
(0 0 0)
(0 0 0)
(0 0 0)
(0 0 0)
(0 0 0)
(0 0 0)
(0 0 0)
(0 0 0)
(0 0 0)
(0 0 0)
(0 0 0)
(0 0 0)
(0 0 0)
(0 0 0)
(0 0 0)
(0 0 0)
(0 0 0)
(0 0 0)
(0 0 0)
(0 0 0)
(0 0 0)
(0 0 0)
(0 0 0)
(0 0 0)
(0 0 0)
(0 0 0)
(0 0 0)
(0 0 0)
(0 0 0)
(0 0 0)
(0 0 0)
(0 0 0)
(0 0 0)
(0 0 0)
(0 0 0)
(0 0 0)
(0 0 0)
(0 0 0)
(0 0 0)
(0 0 0)
(0 0 0)
(0 0 0)
(0 0 0)
(0 0 0)
(0 0 0)
(0 0 0)
(0 0 0)
(0 0 0)
(0 0 0)
(0 0 0)
(0 0 0)
(0 0 0)
(0 0 0)
(0 0 0)
(0 0 0)
(0 0 0)
(0 0 0)
(0 0 0)
(0 0 0)
(0 0 0)
(0 0 0)
(0 0 0)
(0 0 0)
(0 0 0)
(0 0 0)
(0 0 0)
(0 0 0)
(0 0 0)
(0 0 0)
(0 0 0)
(0 0 0)
(0 0 0)
(0 0 0)
(0 0 0)
(0 0 0)
(0 0 0)
(0 0 0)
(0 0 0)
(0 0 0)
(0 0 0)
(0 0 0)
(0 0 0)
(0 0 0)
(0 0 0)
(0 0 0)
(0 0 0)
(0 0 0)
(0 0 0)
(0 0 0)
(0 0 0)
(0 0 0)
(0 0 0)
(0 0 0)
(0 0 0)
(0 0 0)
(0 0 0)
(0 0 0)
(0 0 0)
(0 0 0)
(0 0 0)
(0 0 0)
(0 0 0)
(0 0 0)
(0 0 0)
(0 0 0)
(0 0 0)
(0 0 0)
(0 0 0)
(0 0 0)
(0 0 0)
(0 0 0)
(0 0 0)
(0 0 0)
(0 0 0)
(0 0 0)
(0 0 0)
(0 0 0)
(0 0 0)
(0 0 0)
(0 0 0)
(0 0 0)
(0 0 0)
(0 0 0)
(0 0 0)
(0 0 0)
(0 0 0)
(0 0 0)
(0 0 0)
(0 0 0)
(0 0 0)
(0 0 0)
(0 0 0)
(0 0 0)
(0 0 0)
(0 0 0)
(0 0 0)
(0 0 0)
(0 0 0)
(0 0 0)
(0 0 0)
(0 0 0)
(0 0 0)
(0 0 0)
(0 0 0)
(0 0 0)
(0 0 0)
(0 0 0)
(0 0 0)
(0 0 0)
(0 0 0)
(0 0 0)
(0 0 0)
(0 0 0)
(0 0 0)
(0 0 0)
(0 0 0)
(0 0 0)
(0 0 0)
(0 0 0)
(0 0 0)
(0 0 0)
(0 0 0)
(0 0 0)
(0 0 0)
(0 0 0)
(0 0 0)
(0 0 0)
(0 0 0)
(0 0 0)
(0 0 0)
(0 0 0)
(0 0 0)
(0 0 0)
(-0.00433193 0.00236551 -0.0015663)
(-0.0108079 -0.00285424 -0.000125785)
(-0.00722033 0.000414705 -0.000823299)
(-0.0122339 -0.00717762 0.000919969)
(-0.00949912 -0.00402995 0.00129916)
(-0.0265923 -0.017891 0.0079806)
(-0.0415855 -0.0135809 0.00432779)
(-0.0242627 -0.00709356 -0.00573561)
(-0.00034288 0.00259515 -0.00168538)
(-0.00191983 0.00397658 -0.00228715)
(-0.00440658 -0.000837839 -0.00225247)
(-0.00146859 0.00302975 -0.00449069)
(-0.00823533 -0.0139331 -0.0146827)
(-0.00349564 -0.0112181 -0.000883882)
(-0.0108477 -0.0229197 0.00496423)
(-0.0145298 -0.0326513 -0.0069212)
(-0.0205136 -0.0583605 0.00540474)
(-0.0233777 -0.0428229 0.010045)
(-0.0423422 -0.0623865 0.00951098)
(-0.00769881 -0.0746145 0.00523925)
(-0.039395 -0.0995926 0.00555263)
(-0.0379663 -0.0299515 -0.000836942)
(-0.0141956 -0.00574168 -0.00459597)
(-0.0778341 -0.090191 -0.000878951)
(-0.0389289 -0.0440498 -0.00166516)
(-0.0154309 -0.0135544 -0.00487844)
(0.000162238 0.00516947 -0.00305784)
(0.000228741 0.00238058 -0.00161119)
(0.000504544 0.00164919 -0.00190982)
(-0.0112629 0.00103068 -0.0188098)
(-0.0324785 -0.0360582 -0.0505282)
(-0.0268774 -0.0165604 -0.00869076)
(-0.040416 -0.0491038 -0.00892877)
(-0.0535969 -0.0822004 -0.0261493)
(-0.0533991 -0.103327 -0.00540919)
(-0.0769126 -0.0919525 -0.014643)
(-0.0832937 -0.110358 -0.0111408)
(-0.0435146 -0.136339 -0.000547719)
(-0.056255 -0.1648 -0.00117947)
(-0.0710325 -0.139453 -0.0143037)
(-0.0440663 -0.133801 -0.0161443)
(-0.0593234 -0.14579 -0.0102445)
(-0.0508016 -0.0889306 -0.00936097)
(-0.0256204 -0.121734 -0.0160485)
(-0.0219145 -0.0831893 -0.0105738)
(-0.023571 -0.0396309 -0.00660065)
(-0.00990007 -0.0412159 -0.00671911)
(-0.00822219 -0.0113774 -0.00977826)
(-0.000114126 0.00176148 -0.000967004)
(0.000154838 -0.00170294 -0.00152371)
(0.000942151 -0.00195929 -0.0015543)
(-0.0234023 -0.0221602 -0.00026859)
(-0.0570485 -0.0310163 -0.00484869)
(-0.0106144 -0.00710464 -0.000913027)
(-0.0603209 -0.00537949 -0.00216139)
(-0.0879009 -0.0475968 -0.0110796)
(-0.101957 -0.0667418 -0.0184683)
(-0.105297 0.0066632 -0.00789056)
(-0.104656 0.0146437 -0.0152678)
(-0.0671014 -0.080188 -0.0295654)
(-0.0354639 -0.0745264 -0.0257259)
(-0.0623565 0.0172535 -0.0217189)
(-0.0234029 0.022848 -0.0208641)
(-0.0131724 -0.063543 -0.0213611)
(-0.00231832 -0.0420163 -0.010781)
(0.00283978 0.0089164 -0.0173898)
(0.00178507 0.00121245 -0.00815452)
(-0.00614349 -0.0191287 -0.00719035)
(-0.00749971 -0.00335298 -0.00795652)
(-0.00590533 0.00187935 -0.0052089)
(0.000306414 -0.000352898 -0.000357318)
(-0.00104823 -9.76262e-05 -0.000864165)
(-0.0265994 0.0121202 -0.000345466)
(-0.000612739 -0.000611686 -0.000363676)
(-0.00779913 -0.000862119 0.0018717)
(-0.0689349 0.0353335 0.000456695)
(-0.068297 0.0550859 0.00113415)
(-0.0319831 0.0134058 0.00362431)
(-0.0429865 0.0300087 0.00602259)
(-0.0554269 0.0670231 -0.00142457)
(-0.0324808 0.0602176 -0.00565387)
(-0.0584727 0.0520107 0.00785888)
(-0.0650032 0.0645046 0.00587758)
(-0.0267535 0.0458133 -0.00563818)
(-0.0242994 0.0187809 -0.0065831)
(-0.050564 0.0416287 -0.00218781)
(-0.0251171 0.0169397 -0.00664583)
(-0.0103866 0.00485977 -0.00372016)
(-0.00914237 -0.00135687 0.00214398)
(-0.0256416 0.00175161 0.00396705)
(-0.0375094 0.00585387 0.00704575)
(-0.0346477 -0.00371988 0.0055332)
(-0.0534216 0.0252176 0.0129272)
(-0.0552774 0.0270877 0.00446417)
(-0.0355172 0.00502378 0.00322634)
(-0.0400761 0.0163207 -0.00529378)
(0.0306005 -0.0166141 0.0627285)
(0.00866955 0.00153885 0.118568)
(0.0298376 -0.00416591 0.00978901)
(0.041528 -0.0334605 0.0659487)
(-0.0167208 -0.0440172 0.0231991)
(0.0606521 -0.0210263 0.0806296)
(0.0438391 -0.0279148 0.130555)
(0.0836359 -0.0605341 0.122331)
(-0.0677209 -0.0483206 0.0473014)
(-0.052041 -0.0377971 0.0362819)
(0.0244536 -0.00502607 0.0593132)
(0.0115857 -0.0512041 0.0898792)
(-0.0061669 -0.0518118 0.076308)
(-0.0363035 -0.0285332 0.013567)
(-0.0168391 -0.0320234 0.0593654)
(-0.00364123 0.00412294 0.0783168)
(0.00256194 -0.00612536 0.137366)
(0.0117947 -0.0231406 0.0761037)
(-0.0139443 -0.000597681 0.100271)
(0.0146406 -0.0213124 0.0963707)
(-0.0110303 0.00931484 0.10348)
(-0.00775158 -0.000892089 0.128657)
(-0.0100162 -0.00403011 0.14876)
(0.008099 -0.0229917 0.152898)
(-0.0318897 -0.0522275 0.0255379)
(-0.0396648 -0.196395 0.0417133)
(-0.0345662 -0.121761 0.0485319)
(-0.0234258 -0.100466 0.102414)
(-0.0283623 -0.0598646 0.0785486)
(-0.0185951 -0.199025 0.102313)
(-0.028721 -0.129651 0.108399)
(-0.0318826 -0.0790519 0.0377218)
(-0.0390536 -0.0908727 0.088183)
(0.00173061 -0.025778 0.0891154)
(-0.00454034 -0.0519792 0.0577254)
(-0.0121482 -0.0538269 0.0623934)
(0.0100892 -0.03114 0.179016)
(0.0112589 -0.0491191 0.193601)
(0.000242172 -0.057801 0.174389)
(0.0364346 -0.136046 0.023865)
(0.00585573 -0.108858 0.0372026)
(-0.029233 -0.134634 0.0964474)
(-0.00140601 -0.138694 0.0641121)
(-0.0117459 -0.103131 0.067076)
(-0.0152163 -0.0526616 0.0452892)
(-0.00721106 -0.0164246 0.0301888)
(-0.00228441 -0.0378214 0.145123)
(-0.0130237 -0.0447519 0.14048)
(-0.00375712 -0.00944523 0.127284)
(0.0223003 -0.0884065 0.0289366)
(0.0236585 -0.0311577 0.0106091)
(0.026344 -0.101822 0.0322216)
(0.0119122 -0.0887027 0.0494938)
(0.00873671 -0.0438979 0.0223827)
(-0.0065017 -0.0085641 0.0118801)
(-0.00631746 -0.00765767 0.0987207)
(-0.0115946 0.0268522 0.00829183)
(0.024164 0.0244863 -0.00380272)
(0.0387771 0.0783295 0.0135368)
(-0.00753321 0.0160502 0.101732)
(0.00235001 0.00784129 0.0822545)
(0.0174747 0.0165697 0.0807102)
(0.0345867 0.0530792 0.0790571)
(-0.0157519 0.0549465 -0.0243391)
(-0.119929 0.0890299 -0.00551716)
(-0.0645383 0.0642437 -0.0315249)
(-0.071834 0.0481801 0.00213278)
(-0.0245554 0.0277762 -0.00578577)
(-0.103617 0.0764843 -0.00131267)
(-0.0557906 0.0479732 -0.0160389)
(-0.00378931 -0.0165156 0.00153879)
(0.064229 0.0716461 0.0362536)
(0.0849004 0.0642987 0.11094)
(-0.0335995 0.0168689 0.100696)
(-0.0373401 -0.0119971 0.0682918)
(0.0594596 0.039526 0.157894)
(0.00956697 0.0319994 0.173336)
(-0.0177868 0.00455028 0.115505)
(-0.133916 0.0494061 0.0679247)
(-0.0622377 0.00529313 0.0617464)
(-0.0787649 0.0514716 0.156622)
(-0.10962 0.0522705 0.10207)
(-0.0402975 0.0131935 0.104192)
(-0.0943416 0.0541564 0.0146455)
(-0.0543688 0.0401541 0.126676)
(-0.0993635 0.0513063 0.134008)
(0.0720146 -0.00667056 0.192688)
(-0.0259574 0.0260727 0.182706)
(0.05465 -0.0134246 0.217822)
(0.0373914 0.0170865 0.162688)
(-0.0818412 0.0491236 0.143146)
(-0.00360646 0.0480866 0.209114)
(0.0626377 -0.0443318 0.190286)
(0.0213215 -0.0422757 0.16232)
(0.0496324 0.00948049 0.196399)
(0.0519781 -0.00419337 0.243771)
(0.026771 -0.0230129 0.233799)
(-0.00839347 -0.0224388 0.130752)
(0.00153604 -0.0152459 0.19396)
(0.00510015 -0.0181899 0.167871)
(0.00341817 -0.0345041 0.200889)
(-0.0476602 0.0244031 0.152651)
(-0.0130944 -0.0125718 0.178884)
(-0.0277306 -0.0151727 0.164945)
(-0.0397582 0.0207665 0.189722)
(-0.0887642 0.0385283 0.182439)
(-0.0145846 -0.0261144 0.21607)
(-0.0638567 -0.022927 0.18726)
(-0.031543 -0.0502864 0.14683)
(-0.0270576 -0.159189 0.181141)
(-0.0425381 -0.107457 0.167962)
(-0.0111476 -0.058506 0.249708)
(-0.0321564 -0.0458761 0.20117)
(-0.0440122 -0.12116 0.239105)
(-0.0551239 -0.0966443 0.211517)
(-0.046037 -0.0878241 0.138859)
(-0.0461165 -0.089271 0.159148)
(0.0123839 -0.0415192 0.211692)
(0.0140362 -0.0415632 0.256892)
(0.0133545 -0.0540745 0.249978)
(0.00728871 -0.0458443 0.230006)
(0.00510956 -0.0389288 0.253435)
(0.00374499 -0.0489509 0.258282)
(-0.042538 -0.131492 0.0717294)
(-0.0219829 -0.0935398 0.0719929)
(-0.0529439 -0.110517 0.112053)
(-0.0482237 -0.102657 0.0351867)
(-0.0208922 -0.06833 0.0353705)
(-0.00779289 -0.0413472 0.265472)
(-0.0104915 -0.0315986 0.244806)
(-0.004067 -0.0385365 0.260355)
(-0.011326 -0.0482446 0.275716)
(-0.0169587 -0.0482956 0.259556)
(0.00761944 -0.079231 0.0425461)
(-0.019917 -0.0366977 0.0023741)
(-0.0184547 -0.0601438 -0.0287118)
(0.00269871 -0.0463226 0.0100197)
(-0.0132357 -0.0163028 -0.0460564)
(-0.0161332 -0.0318052 0.200963)
(-0.0270684 -0.0481326 0.215535)
(-0.016855 -0.0471377 0.132634)
(-0.0157739 -0.0307964 0.136927)
(0.012291 -0.0086716 0.111168)
(-0.0429637 -0.0644332 0.207038)
(-0.057812 -0.0884479 0.142193)
(-0.0541575 -0.0610984 0.123134)
(-0.0599508 -0.068016 0.0880308)
(-0.0339289 0.0065953 -0.0220277)
(-0.0897327 0.0557043 -0.0179629)
(-0.0457051 0.0358817 -0.0257391)
(-0.065845 0.0200412 -0.0642453)
(-0.0405944 0.0200408 -0.057757)
(-0.0671788 0.0345244 -0.039769)
(-0.0378061 0.0290557 -0.0455502)
(-0.0132083 0.009039 -0.0397891)
(0.0905387 0.0304962 0.112106)
(-0.0420514 -0.0347076 0.0201711)
(-0.00557434 0.0190947 0.246558)
(-0.0359122 0.00199912 0.176825)
(0.0576146 -0.01219 0.20673)
(-0.0359112 0.0136677 0.29398)
(-0.0776986 0.00446897 0.197109)
(-0.122419 0.0520037 0.127482)
(-0.0614862 0.0135166 0.158982)
(-0.0999807 0.0329791 0.267679)
(-0.121313 0.0476705 0.0915149)
(-0.0794023 0.00904837 0.165754)
(-0.0695825 0.0308831 -0.0116841)
(-0.150988 0.0650358 0.119462)
(0 0 0)
(-0.00587551 0.0107664 0.0899863)
(-0.118225 0.0446581 0.0871722)
(-0.0478879 0.0375442 0.151378)
(-0.0404446 -0.00841189 0.0337199)
(-0.166685 0.0312758 -0.0202602)
(-0.10672 0.017357 0.0498174)
(0.0369408 0.00453235 0.252693)
(0.0264611 -0.00771154 0.282462)
(0.0191564 -0.00895373 0.170186)
(0.0244789 -0.00770173 0.244429)
(0.0268651 0.003063 0.305923)
(0.00731722 -0.00769014 0.252621)
(0.0173591 0.000685842 0.292269)
(0 0 0)
(0 0 0)
(-0.179747 0.0652848 0.172714)
(0 0 0)
(-0.170563 -0.0162766 0.160165)
(0 0 0)
(0 0 0)
(0 0 0)
(0 0 0)
(-0.0237942 -0.0337022 0.255302)
(-0.0400748 -0.0757393 0.285419)
(-0.0577976 -0.0696469 0.241102)
(0.00917733 -0.0156388 0.339428)
(-0.00971326 -0.0128483 0.289482)
(-0.0255542 -0.0396932 0.322412)
(-0.041446 -0.0391374 0.262526)
(-0.0487029 -0.0719908 0.153405)
(-0.0298884 -0.040834 0.129594)
(0.00390509 -0.0523351 0.245214)
(5.75839e-05 -0.0346202 0.257296)
(0.00129402 -0.0496929 0.263702)
(0 0 0)
(0 0 0)
(0 0 0)
(-0.0743755 -0.0647125 -0.0219393)
(-0.0196883 -0.0378961 -0.0303449)
(-0.0617955 -0.0449329 0.0102416)
(-0.0830284 -0.0289387 -0.0873745)
(-0.0176402 -0.0122957 -0.0952432)
(-0.0118574 -0.0462125 0.272614)
(-0.0200448 -0.0407355 0.2598)
(0 0 0)
(0 0 0)
(0 0 0)
(-0.00981886 -0.0159136 -0.0382571)
(-0.0401144 -0.00528174 -0.0968713)
(-0.0563804 -0.00591246 -0.125315)
(-0.0172354 0.000840061 -0.101107)
(-0.0355663 0.0156461 -0.146918)
(-0.0352954 -0.0404427 0.233357)
(0 0 0)
(-0.0831366 -0.118403 0.15126)
(-0.0804618 -0.072766 0.136748)
(-0.118002 -0.0910965 0.0612777)
(0 0 0)
(-0.148927 -0.20011 0.0735456)
(0 0 0)
(-0.194433 -0.134398 -0.0193833)
(-0.0473841 0.012417 -0.0909951)
(-0.0642907 0.0182396 -0.0600136)
(-0.0383495 0.0272968 -0.0649389)
(-0.0730233 0.0221603 -0.0973492)
(-0.0561551 0.0426221 -0.120819)
(-0.0605307 0.0200239 -0.0753288)
(-0.043388 0.0362512 -0.0823666)
(-0.030664 0.0403353 -0.114493)
(-0.117989 -0.0614817 -0.0103152)
(-0.209773 -0.0773864 -0.0408306)
(-0.115571 0.00867828 0.112465)
(-0.114034 0.0142776 0.0286058)
(-0.170703 -0.090288 0.00547465)
(-0.115552 -0.0683187 -0.022201)
(-0.0736137 -0.00990635 -0.0666098)