/*--------------------------------*- C++ -*----------------------------------*\
| =========                 |                                                 |
| \\      /  F ield         | OpenFOAM: The Open Source CFD Toolbox           |
|  \\    /   O peration     | Version:  5.x                                   |
|   \\  /    A nd           | Web:      www.OpenFOAM.org                      |
|    \\/     M anipulation  |                                                 |
\*---------------------------------------------------------------------------*/
FoamFile
{
    version     2.0;
    format      ascii;
    class       surfaceScalarField;
    location    "7.2";
    object      phi;
}
// * * * * * * * * * * * * * * * * * * * * * * * * * * * * * * * * * * * * * //

dimensions      [0 3 -1 0 0 0 0];

internalField   nonuniform List<scalar> 
29271
(
-4.38258e-06
-4.85313e-08
3.49746e-07
4.13475e-06
-9.71766e-06
-5.49745e-06
2.35975e-06
1.29106e-05
-2.61133e-05
-3.00512e-06
7.92873e-06
-7.99677e-06
9.77435e-07
2.8209e-05
-2.43403e-05
-1.6526e-06
7.69423e-06
-4.46898e-06
4.15133e-06
1.86163e-05
-2.11253e-05
-1.2866e-06
1.09297e-06
2.68386e-06
1.79844e-05
6.50675e-07
-2.16047e-05
-2.18881e-06
3.7182e-06
-3.73827e-06
1.41676e-06
2.23968e-05
-2.52208e-05
2.45073e-06
1.84723e-06
-3.86462e-06
-6.07132e-06
3.08588e-05
-2.66114e-05
3.70562e-06
7.16543e-06
-4.64593e-06
-1.25487e-05
3.2935e-05
-2.82354e-05
3.00882e-06
5.20191e-06
-3.31915e-06
-8.29358e-06
3.16374e-05
-2.09582e-05
1.00146e-06
-1.47547e-06
1.96575e-05
1.76848e-06
-7.09305e-06
-8.59102e-08
-1.14529e-06
8.38099e-06
-2.47802e-05
3.84067e-06
1.61372e-06
-3.29479e-06
-4.70451e-06
2.73251e-05
-3.31786e-05
1.24926e-05
3.78196e-06
-3.58083e-06
-1.73106e-05
3.77955e-05
-1.9061e-05
1.37483e-05
1.79033e-06
2.77008e-07
-6.95847e-06
1.02039e-05
-2.81973e-05
8.09358e-06
-3.60436e-06
6.32483e-06
-1.3487e-05
3.08702e-05
-3.27801e-05
2.53707e-06
8.47633e-06
-1.16377e-05
4.30137e-05
-9.60921e-06
-2.15992e-05
3.13653e-06
-3.18773e-06
-5.22138e-06
2.11016e-05
5.77015e-06
-2.65821e-05
7.78082e-06
1.47067e-05
-1.01557e-05
-1.42286e-05
2.84789e-05
-1.33756e-05
2.36491e-06
3.79848e-06
-4.8887e-07
-7.38227e-08
7.77487e-06
-1.61148e-05
3.59806e-08
-9.03822e-07
9.95477e-06
5.74861e-06
1.2793e-06
-5.70308e-06
5.43076e-06
-1.86044e-06
2.24967e-06
-1.90085e-05
6.28458e-06
-6.95768e-06
1.02835e-05
9.40022e-06
-2.29968e-05
-2.31839e-06
8.07975e-06
-3.61002e-06
2.05349e-05
3.10531e-07
-8.19131e-06
-1.11299e-07
1.96881e-06
6.47559e-06
-5.32843e-06
-2.3124e-07
-3.26788e-06
8.67389e-06
-1.47016e-05
-3.42962e-06
-2.28298e-06
2.02482e-05
5.12234e-06
4.23783e-06
-2.77393e-05
-3.1363e-07
-5.60451e-06
2.42973e-05
6.15101e-06
-1.73782e-05
-1.35504e-06
-7.52078e-07
-5.98677e-06
1.93211e-05
-1.75516e-05
4.34276e-06
-4.66475e-06
-5.54294e-06
2.0726e-05
2.69048e-06
1.18206e-06
1.49219e-05
-2.29674e-05
-1.04441e-05
1.38105e-06
1.59265e-05
-6.64486e-06
1.63107e-06
0.000108277
-3.53238e-05
-3.95996e-05
-3.08731e-05
-3.44486e-05
1.9723e-06
5.38638e-06
2.73517e-06
3.2917e-06
5.29834e-06
7.88763e-06
5.20148e-06
5.20915e-06
-3.12249e-06
4.61024e-06
9.28699e-05
-3.41053e-05
-3.6628e-05
-2.30411e-05
-1.49241e-05
2.1427e-06
1.29245e-06
2.03103e-06
2.22977e-06
-9.59377e-07
-2.13309e-06
8.16965e-05
2.52263e-06
2.80494e-06
2.44461e-06
1.63248e-06
-1.96671e-06
-1.42094e-06
-3.72589e-06
-3.07957e-05
-2.22984e-05
-1.60505e-05
-1.48729e-05
-1.70714e-05
1.08429e-06
-8.62224e-07
1.59525e-05
-9.47124e-06
9.82404e-07
-1.23562e-05
2.08452e-05
2.37625e-05
-2.99306e-05
-1.171e-06
-1.72585e-05
-1.28913e-06
2.58867e-05
-1.25753e-06
8.70113e-07
6.46834e-05
-3.81981e-05
-7.71808e-06
-2.50577e-05
-9.43503e-06
5.93515e-06
5.52456e-06
2.85021e-06
3.43408e-06
-1.47704e-05
-5.36931e-06
5.92557e-05
-7.0073e-06
-1.10371e-05
-7.36415e-06
-1.03548e-05
2.11103e-06
-4.56245e-07
7.7239e-05
-1.07922e-06
-9.80637e-07
-2.37976e-06
8.70304e-07
2.28441e-06
1.03415e-06
-2.8413e-05
-3.11142e-05
-1.24993e-05
-2.35201e-05
-5.02418e-05
3.10555e-06
3.30729e-06
-2.26686e-06
4.82068e-05
-2.41132e-05
1.12316e-05
-9.70326e-06
-6.31792e-06
2.36858e-05
5.21689e-06
-2.05131e-06
-2.67471e-07
5.37719e-05
2.84215e-06
1.8625e-06
3.17542e-06
2.36608e-06
-2.73991e-07
-3.12322e-08
-1.50251e-07
-2.3582e-05
-1.26847e-05
-1.43969e-05
-9.71004e-06
-1.31972e-06
-1.74343e-06
8.42303e-05
-1.01042e-07
1.7897e-07
3.12616e-07
-8.80278e-06
-1.70068e-06
-4.43037e-06
-8.18759e-06
-1.78112e-05
-1.20836e-05
-3.59621e-05
-1.34281e-05
-1.56131e-06
-6.71551e-06
1.9929e-05
-1.11861e-06
-1.69448e-06
1.244e-06
1.65233e-06
-7.47523e-06
7.32216e-07
-5.7494e-07
7.13027e-06
-1.69212e-05
6.38148e-07
4.90764e-07
1.3077e-06
1.27412e-05
-4.73367e-06
4.3417e-06
-2.74707e-06
3.15944e-06
-1.62325e-05
1.58451e-06
-4.49142e-06
1.91419e-05
-3.20956e-05
-1.45338e-06
-5.18042e-06
3.87321e-05
9.05418e-06
3.01314e-06
-2.15518e-05
-6.715e-07
-1.02521e-05
2.04081e-05
7.10197e-06
-1.98598e-05
8.28885e-08
-1.0825e-06
-6.30672e-06
2.00642e-05
-2.45964e-05
6.68857e-06
-2.29029e-06
-5.92995e-06
2.40524e-05
2.07573e-06
3.38617e-06
4.02587e-06
-9.31331e-06
-4.24629e-06
-2.03278e-06
8.18034e-06
-2.69558e-06
3.85735e-07
5.60197e-05
3.97622e-06
3.45078e-06
8.00331e-06
1.00418e-05
3.67038e-06
2.99517e-06
1.41701e-05
8.25916e-06
-3.68428e-06
3.46959e-07
6.81474e-05
2.17049e-06
2.47129e-06
1.00752e-05
1.06473e-05
-3.32232e-06
-7.19565e-06
7.52146e-05
2.67766e-06
2.13788e-06
1.12852e-05
5.09812e-06
-5.17712e-06
-8.03917e-07
-1.90229e-06
-1.94296e-05
2.52948e-06
-6.30848e-06
1.99864e-05
-2.79092e-05
6.41803e-06
-3.239e-06
2.47435e-05
3.52539e-06
-2.45477e-05
-5.16532e-07
-5.42006e-06
-4.952e-07
2.74541e-05
-2.59501e-06
2.88355e-06
4.36573e-05
2.06252e-06
2.31298e-06
1.04967e-05
6.25117e-06
-1.13423e-05
-5.0789e-06
7.34289e-05
-4.93106e-06
-1.79531e-06
7.01946e-05
-2.15479e-06
-1.65422e-06
-6.01321e-07
-2.35928e-07
-1.04214e-07
-1.67176e-08
-3.55998e-05
2.42955e-06
-2.74587e-08
2.69844e-06
2.55683e-05
-2.46848e-05
1.08833e-06
-6.59458e-06
-4.73702e-06
2.99053e-05
5.02277e-06
-8.08176e-06
-9.36792e-07
5.54816e-05
2.30017e-06
1.82195e-06
4.8537e-06
3.09186e-06
-1.34954e-06
3.09479e-08
-5.56686e-07
-4.85625e-06
-2.79058e-06
9.28577e-05
-2.27949e-06
-1.90997e-06
-1.40269e-06
-4.64985e-06
-1.59228e-06
-2.30693e-06
-2.45895e-05
-1.75357e-07
-1.31321e-06
1.94265e-05
-3.4841e-06
-1.79367e-06
-3.87895e-08
5.30675e-06
-7.3465e-06
1.68914e-06
-2.34015e-06
7.08397e-06
-1.1624e-05
1.68706e-06
-1.52926e-06
-4.5358e-07
9.12921e-06
-3.4894e-06
6.17215e-07
-4.17852e-07
3.31004e-06
-2.01305e-05
1.24778e-06
-2.31351e-06
2.11955e-05
-4.02276e-05
3.30106e-06
-3.7129e-06
4.06394e-05
2.53233e-06
-1.38564e-06
-2.13939e-05
-8.51581e-07
-2.76581e-06
2.38646e-05
4.90828e-06
-2.27021e-05
1.64534e-06
-1.29488e-06
-8.67091e-06
2.61143e-05
-2.91331e-05
3.44241e-06
4.03754e-07
-9.85051e-06
3.45127e-05
6.24709e-07
6.141e-06
-9.32264e-07
-1.7483e-05
-4.10811e-06
-8.22418e-06
2.46065e-05
-3.5104e-06
-1.06724e-06
3.52791e-05
3.72884e-06
4.97143e-06
4.07081e-07
2.15224e-06
6.38642e-06
3.20995e-06
2.15593e-06
2.30637e-06
-7.27471e-07
-4.3283e-06
3.94822e-05
8.48092e-06
1.02211e-05
6.07947e-06
5.429e-06
1.42979e-06
-1.05399e-05
4.73778e-05
1.17578e-05
5.95651e-06
6.63573e-06
4.242e-06
7.72232e-07
3.26936e-06
3.58589e-06
-2.13851e-05
3.59561e-06
-4.51853e-06
2.36969e-05
-1.8445e-05
5.06373e-06
-2.9498e-06
1.6203e-05
-1.07524e-06
-3.32285e-05
7.27711e-06
-1.1424e-06
-3.38076e-06
3.15498e-05
-4.71688e-06
4.73182e-06
2.91762e-05
4.03547e-06
2.89936e-06
4.51794e-06
1.94609e-06
-2.58899e-06
-1.37084e-06
6.83435e-05
1.84092e-06
-2.20549e-06
4.49959e-05
1.28828e-06
9.45055e-06
3.81546e-06
-9.26403e-07
-4.39701e-07
-7.53776e-07
-2.42583e-05
1.27385e-06
7.07127e-07
-1.97249e-06
2.60907e-05
-2.99618e-05
3.16138e-07
-5.31892e-07
5.96828e-06
2.38316e-05
3.77726e-07
-1.25293e-05
1.38921e-06
5.65405e-05
1.85608e-06
2.38081e-06
2.05577e-06
2.62354e-06
1.30988e-06
2.46981e-06
2.11713e-06
-3.41326e-06
-1.87523e-07
8.63879e-05
-1.32176e-06
-1.48315e-06
-9.23016e-07
-7.66048e-07
6.58396e-07
5.99853e-09
-1.80616e-05
-3.28638e-07
-5.95584e-07
1.3367e-05
-6.13571e-06
2.23842e-06
-7.09314e-07
4.53203e-06
-7.63382e-06
1.34562e-06
-2.51067e-06
1.01607e-05
-7.09212e-06
1.52613e-06
-9.70731e-07
9.66456e-07
5.38274e-06
-2.96296e-06
3.12349e-07
-4.0132e-09
2.6047e-06
-2.19837e-05
2.13943e-06
-2.38786e-06
2.22321e-05
-4.06663e-05
4.9182e-06
-4.77702e-06
4.05251e-05
1.89808e-07
-2.54744e-06
-2.67935e-05
-1.79768e-06
8.60484e-07
3.00883e-05
4.08205e-06
-2.81517e-05
2.24011e-06
-1.69675e-06
-6.14506e-06
2.96713e-05
-3.77236e-05
3.58399e-06
-1.05299e-06
-5.76894e-06
3.88133e-05
2.14829e-06
6.72729e-06
-1.52579e-06
-2.80581e-05
-1.06245e-06
-6.27108e-06
3.01901e-05
2.80238e-06
2.18242e-06
2.8478e-05
-3.38373e-07
7.12383e-07
-1.80074e-06
-9.1505e-07
1.4142e-06
1.80471e-06
5.06764e-07
4.32425e-07
3.14443e-06
-5.66108e-07
2.46628e-05
5.13091e-06
4.07521e-06
3.18248e-06
2.65488e-06
1.73127e-06
1.12665e-07
3.41925e-05
3.72883e-06
3.43129e-06
2.43003e-06
2.58915e-06
-1.1359e-07
1.95602e-06
4.64008e-07
-2.562e-05
1.45412e-06
-1.52828e-06
2.74196e-05
-1.57714e-05
4.20245e-06
-3.79668e-06
1.53693e-05
2.53967e-06
-3.17345e-05
5.08044e-06
-4.15862e-06
-2.54848e-06
3.08215e-05
1.64412e-07
1.84506e-06
2.17387e-05
3.97411e-06
2.06077e-06
1.05607e-06
5.19533e-07
5.57301e-06
2.5733e-06
5.97955e-05
4.97098e-06
6.29046e-07
2.96459e-05
4.18929e-06
4.18893e-06
4.41949e-06
6.40435e-07
1.05056e-06
9.46926e-07
-3.0312e-05
2.23567e-06
3.48002e-06
-2.82987e-06
3.23971e-05
-2.22652e-05
1.2075e-06
-1.68137e-06
1.94357e-07
2.15492e-05
9.9548e-07
-4.00433e-06
2.21005e-06
5.37696e-05
2.17143e-06
2.67798e-06
1.44645e-06
1.97042e-06
1.53082e-07
4.71984e-07
-2.48109e-06
1.11063e-06
1.18075e-06
7.55025e-05
1.17631e-06
1.6509e-06
1.75857e-06
7.77713e-07
6.61735e-07
1.13776e-06
-9.07079e-06
1.2523e-06
1.15325e-06
8.40492e-06
-2.88753e-06
1.00154e-06
-1.43095e-06
2.92205e-06
-1.18081e-05
1.12694e-07
8.76298e-07
1.30292e-05
-4.80248e-06
-1.61321e-06
1.4908e-06
-6.1414e-07
6.71979e-06
-2.9771e-06
-3.11808e-07
-6.22677e-07
3.81734e-06
-2.21098e-05
2.35014e-06
-1.89107e-06
2.16507e-05
-4.01798e-05
6.21048e-06
-5.61356e-06
3.95829e-05
-1.70015e-06
-3.88134e-06
-3.30349e-05
-1.19122e-06
3.68607e-06
3.61215e-05
2.34236e-06
-3.0044e-05
2.55566e-06
-1.53703e-06
-3.32532e-06
3.00084e-05
-3.89293e-05
1.96594e-06
-1.1696e-06
-2.4333e-06
3.89641e-05
1.60221e-06
6.83762e-06
-2.89834e-06
-3.14517e-05
1.12262e-06
-6.04523e-06
3.2435e-05
6.74367e-06
1.14637e-06
3.54268e-05
-3.09486e-06
-2.09513e-06
-3.83561e-06
-2.21565e-06
-4.33266e-07
-1.21373e-06
-7.65858e-07
-1.18472e-06
-6.62802e-06
7.47039e-07
3.04951e-05
2.13061e-06
1.54502e-06
1.93769e-06
1.17902e-06
-1.76626e-06
-2.83033e-06
4.00798e-05
1.16275e-06
1.82276e-06
1.11526e-07
4.94404e-07
-3.44634e-06
-3.39324e-06
-4.6705e-06
-2.73203e-05
1.13262e-06
2.43085e-06
-7.25545e-06
2.9246e-05
2.92064e-08
-3.1127e-09
-9.54456e-10
-2.71378e-08
-1.4932e-05
3.58178e-06
-2.92386e-06
1.42741e-05
1.32814e-06
-2.8578e-05
4.84639e-06
-1.07629e-06
-2.43688e-06
2.59167e-05
5.92e-06
-1.56829e-05
3.46025e-05
-2.13349e-07
-7.08888e-07
-1.49802e-07
-8.82502e-07
-3.31655e-06
-1.39848e-05
8.37639e-05
8.03928e-07
-1.64358e-06
2.91254e-05
2.71245e-06
-1.79936e-08
1.1794e-06
-1.75773e-06
-3.59301e-06
-3.30982e-06
-3.37058e-05
1.26524e-06
2.79764e-06
3.42442e-06
2.70224e-05
-7.12411e-10
-3.27948e-07
2.7602e-09
-8.23576e-10
3.2337e-07
-1.99602e-05
7.4008e-07
-1.18624e-06
-5.29798e-07
1.92813e-05
1.65489e-06
5.10872e-07
-2.59521e-06
4.21323e-05
1.4711e-06
1.9658e-06
2.27164e-06
2.09977e-06
-4.31237e-06
-2.49637e-06
-2.96085e-06
2.29472e-06
-1.39875e-06
5.80681e-05
2.46934e-06
2.57559e-06
2.86794e-06
4.20777e-07
-3.10626e-06
-2.16286e-06
-9.55789e-06
3.66018e-06
-1.00082e-06
7.54966e-06
-5.48203e-06
1.5743e-06
-2.41166e-06
6.31939e-06
-1.28953e-05
5.71244e-07
-2.85675e-08
9.75744e-06
-6.44875e-06
-7.6521e-07
1.08984e-06
-5.73178e-07
5.29854e-06
-4.01306e-06
1.61478e-06
-2.31902e-06
4.71731e-06
-2.08051e-05
2.31206e-06
-1.20716e-06
1.97002e-05
-3.88298e-05
7.39141e-06
-6.66994e-06
3.81083e-05
-2.50723e-06
-4.66546e-06
-3.91477e-05
-7.85629e-07
4.98379e-06
4.21222e-05
1.48136e-06
-2.94843e-05
2.69198e-06
-8.86449e-07
-2.57523e-06
2.87726e-05
-3.88831e-05
7.40747e-08
-1.3524e-06
1.64211e-07
3.95701e-05
4.27168e-07
6.71871e-06
-3.7803e-06
-3.32192e-05
1.89715e-06
-5.5242e-06
3.39078e-05
9.62175e-07
1.32151e-06
5.19601e-05
-4.71404e-06
-2.8898e-06
-5.10031e-06
-3.09653e-06
-3.92065e-07
-1.10046e-06
-8.53295e-07
-6.7046e-07
-1.21005e-05
-3.6661e-06
4.03999e-05
1.88034e-06
1.13994e-06
2.24165e-06
1.56209e-06
-4.48393e-06
-9.91222e-07
4.67012e-05
-3.48679e-07
7.56303e-07
-2.30593e-07
6.18371e-07
-5.15063e-06
-4.34442e-06
-4.54718e-06
-3.10233e-05
7.81529e-06
-7.00829e-07
-1.52489e-06
2.09498e-05
-1.09083e-08
1.48384e-06
1.04957e-06
-8.77121e-07
-1.32419e-06
-3.21189e-07
-1.3337e-05
2.9491e-06
-1.66515e-06
1.20531e-05
1.08348e-06
-2.3231e-05
4.2556e-06
-1.02387e-06
-2.16577e-06
2.10816e-05
1.62195e-06
-1.51223e-05
5.04237e-05
-1.99726e-07
-8.90993e-07
3.35004e-07
-2.43633e-07
-4.62917e-06
-1.48314e-05
0.00010118
-2.75303e-07
-3.28496e-06
3.28995e-05
1.29445e-06
-1.4036e-07
1.51134e-06
-3.18264e-06
-2.48031e-06
-2.83679e-06
-2.76233e-05
1.2666e-06
-1.17861e-06
-9.98432e-07
2.82584e-05
3.64224e-07
1.48347e-07
1.85761e-06
-2.02874e-06
1.0426e-06
-1.38405e-06
-1.96854e-05
4.29802e-07
-1.4514e-06
-1.41857e-06
2.05669e-05
1.55869e-06
5.9164e-06
-1.9091e-06
2.53498e-05
9.73718e-07
6.31587e-07
1.07552e-06
3.8269e-07
-2.32347e-06
-1.23866e-06
-1.84851e-06
3.18261e-06
-2.09801e-06
4.12646e-05
3.5929e-06
3.67514e-06
3.51068e-06
-1.88662e-06
-1.43052e-06
-6.57795e-07
-6.49083e-06
3.44611e-06
-3.46809e-06
6.41046e-06
-5.43549e-06
-3.79258e-07
-3.48699e-06
1.53977e-06
7.76197e-06
-1.3495e-06
4.2003e-07
-9.38684e-07
1.86816e-06
-5.10089e-06
-7.53443e-07
3.33329e-06
6.11941e-07
-3.19267e-06
-2.4006e-06
3.85087e-06
-2.06612e-06
1.71052e-06
-4.38677e-06
3.73624e-06
-3.18406e-06
3.83459e-06
-1.86293e-05
2.13288e-06
-1.18838e-06
1.76848e-05
-3.74788e-05
8.28802e-06
-7.79693e-06
3.69877e-05
-2.65326e-06
-5.08037e-06
-4.4572e-05
-2.60706e-07
5.95272e-06
4.66136e-05
1.58449e-06
-2.79875e-05
2.52986e-06
-5.45915e-07
-2.67853e-06
2.70976e-05
-4.11187e-05
-1.19943e-06
-1.53917e-06
1.52827e-06
4.30455e-05
-7.16405e-07
6.52455e-06
-4.3078e-06
-3.40626e-05
3.30195e-06
-5.46837e-06
3.40123e-05
3.62273e-06
5.93321e-06
6.75713e-05
-5.72704e-06
-3.90186e-06
-6.22305e-06
-3.79779e-06
-1.72622e-06
-8.35229e-07
-2.29003e-06
-6.65953e-07
-9.52078e-06
-3.43925e-06
5.07677e-05
1.77904e-06
1.14217e-06
1.7988e-06
1.495e-06
-4.36725e-06
2.75626e-06
5.17167e-05
-1.13115e-06
-3.51474e-08
-1.1349e-06
-3.37778e-07
-3.86853e-06
-3.4623e-06
-2.95548e-06
-1.86609e-05
3.55333e-07
-2.37676e-06
-4.12767e-07
1.67278e-05
1.31257e-06
2.91241e-07
1.34769e-06
-9.32565e-07
-6.74492e-07
-1.34445e-06
-1.06742e-05
2.08385e-06
-1.11063e-06
9.70093e-06
1.23097e-06
-1.97671e-05
4.30668e-06
-1.71736e-06
-2.48522e-06
1.8432e-05
1.53465e-06
-2.95326e-06
5.4968e-05
4.54852e-07
2.15983e-07
1.32962e-06
8.07088e-07
-3.88975e-06
-8.38555e-06
0.000111551
4.27841e-08
-1.23223e-06
3.5452e-05
1.39483e-06
4.01929e-07
1.23824e-06
-2.66548e-06
-5.20708e-07
-2.34535e-06
-2.9238e-05
1.72244e-06
-2.41659e-07
-1.91395e-06
2.9714e-05
2.00658e-06
-4.48896e-07
7.96102e-07
-1.08019e-06
6.87244e-07
-1.96085e-06
-2.18312e-05
7.88194e-07
-1.81872e-06
-2.42853e-06
2.34168e-05
1.87344e-06
1.78795e-05
4.95366e-07
8.78697e-06
-4.29176e-07
-1.01542e-06
-1.59451e-06
-2.91978e-06
4.60162e-07
4.3843e-07
2.94971e-07
3.76611e-06
-8.35579e-07
3.82375e-05
3.32878e-06
4.08974e-06
3.28883e-06
-2.34175e-07
-7.0444e-07
-1.78223e-07
-7.24265e-06
3.21477e-06
-1.41202e-06
7.97377e-06
-9.26405e-06
2.46203e-06
-4.08284e-06
1.39557e-06
9.48929e-06
-3.23703e-06
-6.06316e-07
-1.40081e-06
1.05877e-06
4.18538e-06
1.68541e-06
-3.78033e-06
4.41469e-06
-1.8244e-06
-1.58484e-06
-2.49456e-06
1.84891e-06
-1.12825e-06
2.52316e-06
-3.19954e-06
1.61301e-06
-1.27706e-06
2.86358e-06
-1.68839e-05
2.13887e-06
-1.47373e-06
1.62188e-05
-3.67117e-05
7.75316e-06
-7.50808e-06
3.64666e-05
-3.08042e-06
-4.53095e-06
-4.81372e-05
-3.75101e-07
6.88832e-06
4.92353e-05
1.85247e-06
-2.61542e-05
2.86769e-06
-1.29158e-06
-2.50253e-06
2.52282e-05
-4.48872e-05
-2.09664e-06
-9.47514e-07
2.43517e-06
4.64825e-05
-9.86314e-07
5.56197e-06
-4.02458e-06
-3.38107e-05
3.25096e-06
-4.50157e-06
3.35239e-05
1.75044e-05
7.21282e-06
7.95125e-05
-6.70828e-06
-4.49692e-06
-7.07213e-06
-4.41804e-06
-4.00686e-06
-2.50081e-06
-4.35266e-06
-3.10271e-06
-9.33212e-07
-2.58331e-06
6.56768e-05
1.39039e-06
1.36546e-06
1.30149e-06
2.05437e-06
-2.99757e-06
8.19895e-06
6.04012e-05
-2.15607e-06
-5.77058e-07
-1.95796e-06
-1.40892e-06
-2.79739e-06
-3.34165e-06
-2.58007e-06
-1.99157e-05
2.85824e-06
-1.40008e-07
-1.33957e-06
1.55395e-05
2.35011e-07
-7.33049e-07
8.30886e-07
1.29645e-07
-4.62493e-07
-9.18625e-06
1.61924e-06
-1.27864e-06
8.84565e-06
2.36773e-06
-1.67834e-05
1.95682e-06
-3.21773e-06
1.06007e-06
1.46165e-05
4.41644e-06
2.37748e-06
5.71844e-05
5.7965e-07
-3.4812e-07
-9.27631e-08
-1.93623e-06
-2.60392e-06
-9.14448e-07
0.000116903
3.2668e-07
7.26925e-07
4.18037e-05
7.67479e-07
-3.99645e-07
-1.37943e-06
-9.54968e-07
1.26884e-06
-1.11251e-06
-2.97085e-05
2.15082e-06
1.03079e-06
-2.10389e-06
2.89575e-05
1.5113e-07
2.85869e-06
-2.84804e-06
2.69996e-06
-4.01972e-06
1.15797e-06
-2.46708e-05
7.76666e-07
-5.77414e-07
-2.03622e-06
2.62029e-05
3.049e-07
2.21007e-05
1.467e-06
-2.67582e-06
-2.75634e-06
-4.02427e-06
-3.05676e-06
-3.95683e-06
1.35971e-06
1.29136e-06
1.41566e-06
3.78895e-06
2.91485e-07
4.255e-05
3.40079e-06
4.03469e-06
3.58239e-06
6.57435e-07
5.07913e-07
6.10139e-07
-8.74851e-06
3.24219e-06
6.67695e-07
9.3545e-06
-7.06595e-06
1.62493e-06
-3.95098e-06
9.392e-06
1.81295e-06
-2.72013e-06
3.24793e-06
-8.73744e-07
-3.70283e-06
-1.83433e-06
1.01748e-06
-5.75552e-07
5.38672e-06
-2.6945e-06
-1.86067e-08
-5.00883e-07
3.21399e-06
-1.55175e-05
2.17012e-06
-1.50488e-06
1.48522e-05
-3.56238e-05
7.68819e-06
-5.44782e-06
3.33834e-05
-3.65e-06
-4.52114e-06
-5.02459e-05
-3.27204e-07
7.21997e-06
5.15243e-05
1.5088e-06
-2.43374e-05
2.80475e-06
-1.97233e-06
-1.67658e-06
2.36728e-05
-4.76238e-05
-2.46331e-06
6.76909e-07
2.20337e-06
4.79222e-05
-7.15385e-07
2.97593e-06
-3.23032e-06
-3.32324e-05
2.21337e-06
-1.79922e-06
3.30726e-05
2.96673e-05
3.08329e-06
9.20571e-05
-6.7589e-06
-4.85307e-06
-6.53631e-06
-4.36113e-06
-5.73028e-06
-5.54018e-06
-5.7552e-06
-5.76015e-06
7.20494e-06
-1.61214e-06
8.27696e-05
6.77452e-07
2.35384e-06
9.69644e-07
2.98084e-06
-3.31313e-06
9.05085e-06
7.64381e-05
-2.42492e-06
-1.28016e-06
-1.25599e-06
-1.39911e-06
-3.01276e-06
-2.67874e-06
-2.51798e-06
-1.29696e-05
9.42055e-07
-4.22242e-06
1.29368e-05
-8.61985e-06
1.56054e-06
-1.64519e-06
8.7045e-06
-2.17875e-07
-1.16278e-05
1.25807e-06
1.12181e-06
1.4565e-06
8.00928e-06
1.06464e-05
6.99536e-07
6.45136e-05
-2.72985e-06
-3.90698e-06
-3.91063e-06
-5.04441e-06
2.0835e-06
4.65886e-06
0.000119195
-1.19917e-06
1.7077e-06
5.38637e-05
-1.54875e-06
-4.04523e-07
-6.41646e-07
-6.60935e-07
2.26961e-06
-4.47918e-07
-3.78582e-05
2.50316e-06
-6.04109e-07
-2.55419e-06
3.73142e-05
-2.84215e-05
1.21285e-06
4.52657e-07
-4.05808e-06
3.11213e-05
-3.07241e-07
1.51498e-05
9.33812e-07
-9.25836e-06
-2.77396e-06
-2.55939e-06
-3.49376e-06
-2.64467e-06
1.05205e-06
7.6435e-07
8.53861e-07
3.13127e-06
9.92629e-07
4.63935e-05
2.9109e-06
3.33475e-06
2.79095e-06
1.08353e-06
8.91984e-07
8.29111e-07
-1.04368e-05
3.19923e-06
1.37161e-06
1.07049e-05
-9.83321e-06
5.04616e-06
-3.8584e-06
8.64544e-06
4.55316e-07
-6.03504e-07
1.14316e-06
-6.11574e-08
-6.96958e-06
-8.29154e-07
4.56161e-07
3.70054e-08
8.2982e-06
-3.91518e-06
-4.43244e-07
-4.35772e-07
4.7942e-06
-1.43785e-05
2.11063e-06
-1.78987e-06
1.40577e-05
-2.9603e-05
4.7871e-06
-1.68291e-06
2.64988e-05
-3.73024e-06
-3.63518e-06
-5.28937e-05
3.17874e-07
6.47517e-06
5.34661e-05
1.42232e-06
-2.34834e-05
1.23875e-06
-1.22644e-06
-1.6002e-06
2.36489e-05
-4.74761e-05
-2.38907e-06
2.86347e-06
7.5583e-07
4.65535e-05
-3.07649e-07
6.79812e-07
-9.46748e-07
-3.30004e-05
9.56847e-07
-6.79013e-07
3.29895e-05
3.14821e-05
-1.80225e-06
0.000106911
-5.96432e-06
-5.05818e-06
-5.69424e-06
-3.84736e-06
-6.18875e-06
-6.00267e-06
-6.71314e-06
-5.06503e-06
1.06926e-05
-3.48523e-07
9.6698e-05
3.07392e-07
2.65008e-06
1.25486e-06
2.99728e-06
-2.03858e-06
1.18172e-05
8.82751e-05
-8.49675e-07
-2.15531e-06
2.87271e-07
-2.47498e-06
-1.87328e-06
-1.6868e-06
-2.17023e-06
-1.30617e-05
1.67704e-06
-4.73381e-06
1.40799e-05
-9.19089e-06
1.32473e-06
-1.93736e-06
9.80351e-06
-2.41727e-06
-5.38058e-06
2.72175e-06
3.75221e-06
-2.79176e-06
4.11566e-06
1.1531e-05
-1.31022e-06
7.40911e-05
-5.34087e-06
-5.92457e-06
-5.27716e-06
-5.05791e-06
2.26864e-06
9.55403e-06
0.000118554
1.3398e-07
2.73991e-06
6.03193e-05
1.13255e-07
1.48436e-07
5.16559e-07
2.81425e-07
3.37745e-06
3.19174e-07
-3.60962e-05
2.35259e-06
1.83172e-06
-2.96488e-06
3.50107e-05
-3.12854e-05
-2.74036e-06
3.25432e-06
2.15035e-06
2.81303e-05
4.9075e-07
1.05005e-05
7.64879e-07
-9.06899e-06
-3.95489e-06
-2.89415e-06
-4.50969e-06
-3.08442e-06
8.67219e-07
3.06236e-07
5.04695e-07
2.39695e-06
1.52098e-06
5.13204e-05
2.32665e-06
2.41943e-06
2.12324e-06
1.38918e-06
1.57639e-06
1.37491e-06
-1.16676e-05
3.09017e-06
1.79361e-06
1.19207e-05
-9.15817e-06
3.34514e-06
-4.24214e-06
1.00552e-05
-3.45549e-07
-3.81295e-07
3.86166e-07
1.10556e-06
-9.31826e-06
1.38275e-07
-1.4148e-07
4.76694e-07
1.03658e-05
-5.44512e-06
-2.29004e-07
-4.47369e-07
6.1215e-06
-1.38622e-05
1.9545e-06
-1.8624e-06
1.37701e-05
-2.52682e-05
2.46107e-06
-2.49025e-06
2.52974e-05
-3.88464e-06
-2.88121e-06
-5.29187e-05
2.09232e-06
5.80947e-06
5.17828e-05
1.52849e-06
-2.46848e-05
-1.23844e-06
6.19338e-07
-2.52151e-06
2.62969e-05
-4.52269e-05
-1.38262e-06
3.90882e-06
-1.37663e-07
4.36379e-05
-7.99599e-07
-2.51283e-07
-1.39359e-06
-3.27759e-05
2.28508e-06
3.07032e-07
3.18287e-05
2.52821e-05
-3.17677e-06
0.000116885
-4.7973e-06
-3.49425e-06
-2.67278e-06
-8.01369e-07
-6.35704e-06
-4.46321e-06
-5.45963e-06
-4.0334e-06
1.00273e-05
1.53892e-06
0.000101673
8.32548e-07
2.51464e-06
1.96402e-06
3.42962e-06
-3.66374e-07
1.24686e-05
9.4415e-05
-1.03316e-07
-2.90184e-06
3.93088e-07
-2.89051e-06
-1.95128e-06
7.65594e-07
-1.52659e-06
-1.62919e-05
-1.62369e-06
-2.15717e-06
1.97064e-05
-9.44813e-06
3.20356e-07
1.5542e-06
7.57356e-06
-2.04954e-06
-3.18796e-06
1.47929e-06
3.75057e-06
-2.75287e-06
2.76051e-06
5.54023e-06
-1.75614e-06
8.15045e-05
-4.61953e-06
-3.42429e-06
-4.00852e-06
-2.32193e-06
-2.2125e-06
1.3003e-05
0.000114843
-1.47358e-06
3.54859e-06
6.61926e-05
1.43628e-07
-2.71356e-06
-4.39103e-07
5.94331e-07
4.18896e-06
5.33578e-07
-3.41464e-05
1.94518e-06
8.79926e-07
-9.01842e-07
3.07495e-05
-2.20404e-05
-3.65008e-06
5.8725e-06
3.81441e-06
1.49439e-05
1.05963e-06
5.93351e-06
4.62536e-07
-5.62172e-06
-3.9281e-06
-2.5891e-06
-3.45482e-06
-2.29421e-06
4.90465e-07
-6.31334e-08
2.39439e-07
1.33583e-06
2.22285e-06
5.57432e-05
1.79281e-06
1.19743e-06
1.52713e-06
1.97836e-06
2.41055e-06
2.04882e-06
-1.31243e-05
2.20391e-06
2.30528e-06
1.34996e-05
-1.11064e-05
1.91555e-06
-3.11652e-06
1.23074e-05
-1.83726e-06
3.51732e-08
-6.88166e-07
2.95279e-06
-1.12007e-05
9.79711e-07
-8.08184e-07
1.15199e-06
1.21e-05
-6.58016e-06
5.14761e-08
-5.8882e-07
7.11751e-06
-1.36486e-05
1.71362e-06
-1.53852e-06
1.34735e-05
-2.57472e-05
4.64167e-06
-4.93745e-06
2.6043e-05
-3.24871e-06
-5.2699e-06
-5.13403e-05
5.32602e-06
2.48492e-06
5.2048e-05
2.13172e-06
-2.87258e-05
-3.99428e-06
2.34627e-06
-3.08761e-06
3.13297e-05
-4.2234e-05
-6.92907e-07
4.02629e-06
-5.32163e-07
4.11827e-05
-1.74986e-06
2.72536e-06
-1.8172e-06
-3.01424e-05
1.62707e-06
-4.8367e-07
2.80909e-05
1.75123e-05
-2.34756e-06
0.000114009
-9.95729e-07
-5.62064e-07
4.00794e-07
1.27752e-06
-3.03492e-06
-3.66659e-06
-2.35873e-06
-3.34936e-06
7.91741e-06
2.59004e-06
9.84564e-05
1.38602e-06
2.7451e-06
2.51606e-06
3.57437e-06
1.37073e-06
1.21636e-05
9.39499e-05
-2.03977e-07
-2.79544e-06
3.7977e-07
-2.53061e-06
-9.0904e-07
1.6336e-06
-7.26095e-07
-2.31144e-05
-4.35923e-06
3.20809e-06
2.56363e-05
-5.01463e-06
-1.52584e-06
2.97193e-06
3.56854e-06
-2.89267e-06
-2.82308e-06
1.93441e-07
3.43117e-06
-1.38569e-06
3.47683e-06
-2.63512e-06
-1.03333e-06
8.7726e-05
-2.65619e-06
-4.87543e-07
-1.89844e-06
1.41556e-07
-5.17372e-06
1.48685e-05
0.000105103
-2.64704e-06
4.01374e-06
6.98032e-05
-8.73278e-07
-2.00054e-06
-9.79182e-07
6.1009e-07
4.51201e-06
7.43417e-07
-2.52435e-05
2.83792e-07
1.70674e-08
1.80963e-06
2.0486e-05
-9.71207e-06
-3.37886e-06
3.73563e-06
2.47035e-06
6.76889e-06
1.16056e-07
2.13864e-06
2.33276e-07
-1.71027e-06
-2.60417e-06
-1.43006e-06
-2.39922e-06
-1.1547e-06
3.46931e-07
-2.56728e-07
1.81242e-07
1.35222e-07
2.97032e-06
5.87572e-05
1.25688e-06
1.94739e-07
9.68496e-07
2.58052e-06
3.18816e-06
2.69876e-06
-1.5078e-05
7.73175e-07
2.72103e-06
1.57327e-05
-1.38038e-05
-7.63262e-07
-9.20919e-07
1.5488e-05
-3.91679e-06
8.65096e-07
-2.02459e-06
5.30956e-06
-1.28178e-05
1.72056e-06
-1.26172e-06
1.74234e-06
1.35869e-05
-7.54242e-06
2.30925e-07
-6.98754e-07
8.01025e-06
-1.33779e-05
1.67689e-06
-1.74009e-06
1.34411e-05
-2.59872e-05
4.88842e-06
-4.51035e-06
2.56091e-05
-2.72701e-06
-5.24585e-06
-5.35343e-05
5.3574e-06
8.95141e-07
5.52547e-05
3.00474e-06
-3.38648e-05
-4.35958e-06
3.03311e-06
-3.59475e-06
3.57813e-05
-4.04516e-05
-7.10751e-08
3.83055e-06
-9.37552e-07
3.98527e-05
-2.22302e-06
1.54524e-06
-2.2331e-06
-2.58639e-05
2.4207e-06
1.86339e-07
2.39447e-05
1.41446e-05
-1.73343e-06
0.000107435
6.83811e-07
7.49784e-07
9.46709e-07
1.87482e-06
-1.9322e-06
-3.2925e-06
-2.11228e-06
-2.75548e-06
6.96925e-06
2.77881e-06
9.20636e-05
1.84495e-06
2.65474e-06
2.87898e-06
3.41066e-06
1.62445e-06
1.15803e-05
9.18493e-05
-1.83234e-07
-2.49527e-06
5.91898e-07
-2.32995e-06
-6.04074e-07
1.543e-06
-6.57204e-07
-2.74214e-05
-4.80052e-06
5.28213e-06
2.85643e-05
-3.02296e-06
-2.31893e-06
2.58797e-06
2.75392e-06
-2.2345e-06
-4.10573e-06
6.32463e-07
1.60965e-06
-1.05931e-06
5.15743e-06
-3.75431e-06
-7.40591e-07
8.74548e-05
-4.59207e-07
1.07799e-06
8.65529e-07
1.54837e-06
-5.28037e-06
1.45684e-05
9.48395e-05
-1.5756e-06
3.90811e-06
7.06084e-05
-9.27646e-07
-1.40204e-06
-7.2834e-07
7.87832e-07
4.38722e-06
1.04525e-06
-1.75322e-05
-1.27656e-06
-9.93595e-07
2.15457e-06
1.60722e-05
-5.17015e-06
-2.71305e-06
2.51739e-06
1.6705e-06
4.42284e-06
-7.27537e-07
9.09529e-07
-1.3449e-07
2.41838e-06
-1.92288e-06
-6.84211e-07
-2.01899e-06
-7.90765e-07
2.10906e-07
-5.22555e-07
8.42178e-08
-5.52294e-07
3.59672e-06
6.02282e-05
8.25663e-07
-3.76562e-07
4.72018e-07
3.09939e-06
3.75919e-06
3.18284e-06
-1.75297e-05
-2.40223e-08
2.93173e-06
1.79778e-05
-1.69567e-05
-1.94988e-06
7.05549e-07
1.82011e-05
-6.3522e-06
1.70849e-06
-3.04548e-06
7.5547e-06
-1.43121e-05
2.16009e-06
-1.5634e-06
2.23378e-06
1.50783e-05
-8.42036e-06
2.66551e-07
-7.86402e-07
8.94021e-06
-1.36313e-05
1.57408e-06
-1.78247e-06
1.38396e-05
-2.53784e-05
1.08286e-06
-1.37669e-06
2.56723e-05
-3.07842e-06
-2.04691e-06
-5.6709e-05
3.35177e-06
1.24249e-06
5.72401e-05
3.60376e-06
-3.72975e-05
-3.88033e-06
2.86067e-06
-3.98479e-06
3.86982e-05
-3.97447e-05
1.83535e-07
2.90483e-06
-1.66584e-06
4.00676e-05
-1.74538e-06
-4.80488e-07
-1.62933e-06
-2.23288e-05
2.16385e-06
9.05682e-07
2.13691e-05
1.43412e-05
2.17302e-08
9.89144e-05
5.9512e-07
8.21037e-07
2.30085e-07
1.21921e-06
-1.87253e-06
-2.70112e-06
-1.77273e-06
-2.3613e-06
8.20463e-06
3.97949e-06
8.52124e-05
1.80478e-06
2.2307e-06
2.23098e-06
2.74181e-06
1.64183e-06
1.10739e-05
8.91574e-05
1.63561e-07
-2.07816e-06
8.26928e-07
-1.36831e-06
-4.4746e-07
1.49682e-06
-4.12539e-07
-2.92024e-05
-4.42787e-06
5.66694e-06
2.96051e-05
-2.58831e-06
-1.37635e-06
1.37819e-06
2.58647e-06
2.0521e-07
-6.29971e-06
4.99285e-07
-1.44233e-06
-4.67577e-07
7.50512e-06
1.59162e-06
-9.20074e-08
7.86102e-05
1.38123e-06
1.7935e-06
2.15359e-06
2.03843e-06
-1.6755e-06
1.37352e-05
8.83509e-05
-1.37025e-06
3.78972e-06
7.23055e-05
-4.37539e-07
-1.33889e-06
-6.89148e-07
1.27799e-06
4.54597e-06
1.9234e-06
-1.56611e-05
-2.01004e-06
-1.43112e-06
1.79295e-06
1.59391e-05
-4.03893e-06
-2.50093e-06
2.03767e-06
1.43593e-06
4.2204e-06
-1.15415e-06
1.07162e-06
-3.54992e-07
6.66747e-06
-1.6206e-06
-4.571e-07
-1.96154e-06
-7.04148e-07
1.64187e-07
-5.82319e-07
1.03793e-07
-1.13835e-06
3.83689e-06
6.27098e-05
2.41852e-07
-9.43187e-07
-1.70058e-07
3.34072e-06
3.85539e-06
3.30196e-06
-1.93829e-05
-9.96773e-07
3.46791e-06
1.95632e-05
-1.91699e-05
-2.38235e-06
1.68228e-06
1.987e-05
-8.38214e-06
2.22095e-06
-3.51352e-06
9.31972e-06
-1.58846e-05
2.36978e-06
-2.04601e-06
2.65223e-06
1.67455e-05
-9.60053e-06
-5.84306e-07
-2.31741e-07
1.04166e-05
-1.41814e-05
1.38917e-06
-1.99735e-06
1.47896e-05
-2.60069e-05
-2.11462e-06
2.26962e-06
2.58519e-05
-2.93154e-06
-4.52663e-07
-5.66535e-05
2.70104e-06
2.46981e-06
5.48668e-05
2.06967e-06
-4.02136e-05
-4.03899e-06
3.24509e-06
-1.5192e-06
4.0457e-05
-4.07071e-05
9.09003e-07
1.77695e-06
-1.77e-06
4.13789e-05
-1.58776e-06
-3.35443e-06
7.5547e-07
-2.0603e-05
7.54751e-08
2.65721e-06
2.04692e-05
1.62724e-05
4.49002e-06
9.57313e-05
-1.31487e-06
-1.67236e-06
-3.22814e-06
-3.85824e-06
-1.67414e-06
-2.42836e-06
-1.51355e-06
-1.88978e-06
1.22033e-05
6.32615e-06
8.45741e-05
-3.33653e-07
9.00889e-07
-2.00852e-06
-1.77383e-07
1.75179e-06
1.1069e-05
8.91968e-05
-1.22033e-07
-1.0694e-06
-6.15482e-07
-9.73274e-07
1.51006e-07
1.60246e-06
3.6983e-07
-2.96493e-05
-3.63018e-06
5.3817e-06
2.96496e-05
-2.81664e-06
-9.5044e-07
5.40547e-07
3.22654e-06
2.0757e-06
-8.55297e-06
-7.12341e-07
-3.09745e-06
6.91978e-07
9.59508e-06
7.2388e-06
3.48307e-06
6.35705e-05
2.17528e-06
1.98163e-06
2.65377e-06
1.99712e-06
3.69147e-06
1.2306e-05
8.59184e-05
-1.14417e-06
4.06539e-06
7.73167e-05
-7.91251e-07
-1.13786e-06
-1.16568e-06
2.33823e-06
4.80713e-06
2.77739e-06
-1.68021e-05
-2.76801e-06
-1.67761e-06
1.97634e-06
1.81272e-05
-4.34191e-06
-2.71256e-06
1.95778e-06
1.50032e-06
4.96509e-06
-1.36873e-06
1.7686e-06
-3.27748e-07
1.37378e-05
-1.5572e-06
-5.36207e-07
-1.88686e-06
-7.89575e-07
1.69768e-07
-5.0256e-07
7.45094e-08
-1.63557e-06
3.61652e-06
6.67111e-05