/*--------------------------------*- C++ -*----------------------------------*\
| =========                 |                                                 |
| \\      /  F ield         | OpenFOAM: The Open Source CFD Toolbox           |
|  \\    /   O peration     | Version:  5.x                                   |
|   \\  /    A nd           | Web:      www.OpenFOAM.org                      |
|    \\/     M anipulation  |                                                 |
\*---------------------------------------------------------------------------*/
FoamFile
{
    version     2.0;
    format      ascii;
    class       volVectorField;
    location    "7.2";
    object      U;
}
// * * * * * * * * * * * * * * * * * * * * * * * * * * * * * * * * * * * * * //

dimensions      [0 1 -1 0 0 0 0];

internalField   nonuniform List<vector> 
10571
(
(0.0268146 0.123609 1.30904)
(-0.118833 0.0649934 2.0534)
(-0.693008 -0.101945 2.10003)
(-0.385757 0.00585936 1.75483)
(0.139266 0.000731223 1.46723)
(-0.581189 0.00492884 1.95567)
(-0.147426 -0.474543 1.88625)
(-0.425168 -0.933862 1.48503)
(-0.151945 -0.839939 1.84598)
(0.00480478 -0.347784 2.06007)
(0.135113 0.00292443 2.17541)
(-0.551092 -0.300125 2.19122)
(-0.567969 -1.28398 1.89121)
(-0.0781782 -0.677951 1.36905)
(0.549019 -1.0821 2.14069)
(0.774974 -0.643758 2.42285)
(-0.384778 -0.401343 1.42438)
(-1.01302 -0.984622 2.0349)
(-0.0814979 -0.00739126 0.851046)
(-0.0284401 -0.140731 0.669711)
(0.133921 -0.26199 0.589145)
(-0.719908 -0.32793 1.67263)
(0.380568 0.0507901 1.82226)
(-0.256554 -0.00685539 1.19306)
(-0.00492832 -0.250219 1.23385)
(-0.307284 -0.186433 1.68224)
(-0.388497 -0.740993 1.64672)
(0.0635528 -0.688778 1.48317)
(-0.445855 -0.624505 1.45151)
(-1.02449 -0.0563093 1.69973)
(-0.540797 -0.169309 1.77459)
(-0.0605906 -0.047163 1.5086)
(-0.0792037 -0.156554 1.50607)
(-0.131563 -0.0633491 1.2344)
(-0.497225 -0.148511 3.43251)
(-1.45579 0.0521431 2.32141)
(-0.223297 0.125788 1.13358)
(-0.114029 0.0854972 0.966962)
(-0.356305 0.108582 1.47626)
(0.311996 -0.400435 1.94486)
(-1.04127 -0.829348 1.48796)
(-0.187932 0.00905768 0.993342)
(-0.0258153 -0.221877 1.4521)
(-0.162078 -0.17466 1.17761)
(-0.0957426 0.0833953 0.25511)
(-0.11814 -0.0846641 0.818851)
(-0.158805 -0.129748 1.08484)
(0.306823 -0.204573 0.568011)
(-0.17628 -0.170355 2.68259)
(-0.117863 -0.500745 2.66484)
(-0.104242 -1.14439 1.82152)
(-0.0222568 -0.81935 1.60158)
(-0.329088 -0.718531 1.63944)
(-0.365351 -0.224978 0.565086)
(-0.147305 -0.101744 1.07819)
(-0.114215 -0.092534 1.14411)
(-0.2432 -0.297947 0.901092)
(-0.385289 -0.620937 1.75942)
(-0.0364902 -0.56053 4.14863)
(-0.590804 0.131369 1.54668)
(-0.141974 0.129372 1.07185)
(-0.250181 -0.0150378 1.12922)
(-0.337852 -0.11848 0.862334)
(-0.532377 0.0221901 1.70029)
(-0.705463 -0.659359 1.60243)
(-0.220861 -0.0287286 0.889501)
(-0.353595 -0.360545 1.14209)
(-0.35596 -0.271138 1.47237)
(0.0105532 0.212543 0.735441)
(-0.355749 -0.133082 0.833199)
(-0.258773 -0.229061 0.775237)
(0.131585 -0.0582433 0.590871)
(-0.11489 -0.0830425 2.91278)
(0.213727 -0.1894 2.92439)
(0.0593333 -0.165918 0.907385)
(-0.092556 -0.510207 1.07165)
(0.0224284 -0.473682 1.26912)
(0.0280106 -0.644397 0.976109)
(-0.0841146 -0.10286 0.871562)
(-0.0725733 -0.129061 1.16898)
(0.0175519 -0.292856 1.38702)
(0.0623851 -0.482685 2.09287)
(-0.135088 -0.443945 2.12991)
(0.140247 -0.357869 1.06093)
(-0.10001 0.0868958 0.791817)
(-0.164105 -0.0248119 1.39388)
(0.0577699 -0.203574 1.2341)
(0.0808916 -0.17941 1.54219)
(-0.0120728 0.204071 0.746785)
(-0.237398 0.130108 1.09835)
(-0.390625 -0.114984 1.58524)
(-0.231044 -0.233179 1.34197)
(0.0748163 -0.294543 0.998495)
(-0.31804 0.060122 0.980141)
(-0.158023 0.0619551 0.45096)
(0.0276787 -0.0290576 0.580664)
(-0.152672 -0.0821939 3.20345)
(0.341363 -0.156737 3.00789)
(0.0490663 0.102399 1.25076)
(-0.0868605 -0.39335 1.36491)
(-0.106363 -0.44497 1.53514)
(0.0676374 -0.488461 1.26463)
(0.0704251 0.0576474 0.428074)
(0.0511371 -0.0569799 0.40575)
(0.0488697 -0.0253799 0.447986)
(0.119913 -0.0993241 1.23537)
(-0.157921 -0.316181 2.40361)
(-0.174417 -0.330758 1.49164)
(-0.0762784 0.059598 0.451792)
(0.0736773 0.0422337 0.866523)
(0.168431 0.0347504 0.618296)
(0.275265 -0.13132 1.29706)
(-0.0980751 -0.0193779 0.928881)
(-0.160022 -0.00484214 0.814304)
(-0.0082376 0.0504395 1.26997)
(0.158098 0.078993 0.290279)
(0.144006 -0.07208 0.376781)
(0.0103061 0.263033 0.591551)
(0.16806 0.078133 0.485605)
(0.0724018 0.0039345 0.64444)
(-0.129727 -0.0775891 3.15065)
(0.446515 -0.165448 2.91245)
(0.126579 0.262062 1.54292)
(-0.093927 -0.220225 1.30876)
(-0.100844 -0.205989 1.52182)
(0.200607 -0.433686 1.43241)
(0.155243 0.176354 0.216882)
(0.0707662 0.1227 0.268017)
(-0.310894 0.0517868 0.481372)
(-0.0940964 -0.121881 1.38188)
(-0.000535537 0.000687667 -0.00127693)
(-0.161669 -0.19492 2.02324)
(-0.105565 -0.261232 1.1492)
(0.145957 -0.141338 0.242313)
(0.0284194 -0.106486 0.870227)
(-0.136212 -0.15333 0.428591)
(0.0804832 0.0434811 1.24375)
(0.00874917 0.00118764 0.000421927)
(-0.0622093 -0.141624 0.749883)
(-0.0725176 -0.366893 0.466819)
(0.0787587 -0.323848 0.852132)
(0.237222 -0.0606107 0.200644)
(0.0678892 -0.0671759 0.42644)
(0.000615416 -0.0841923 0.610668)
(0.0606213 0.0330828 0.276864)
(0.23279 -0.0345265 0.373145)
(-0.0939637 -0.0568624 2.89372)
(0.517213 -0.246157 2.81037)
(0.169819 0.318808 1.7887)
(-0.116165 -0.151435 1.2943)
(-0.065978 0.0276768 1.55499)
(0.269859 -0.371962 1.47314)
(0.0790051 0.213159 0.454652)
(-0.0420338 0.0471925 0.350902)
(-0.368197 0.0580851 0.457868)
(-0.238805 -0.0822113 1.15313)
(-0.127272 -0.0851547 -0.00735768)
(-0.1047 -0.0817377 1.8323)
(-0.10909 -0.239018 0.983875)
(0.102225 -0.158907 0.406082)
(-0.0527142 -0.187242 0.928584)
(-0.0964084 -0.0915686 0.265457)
(0.0451576 -0.0537509 1.30565)
(-0.1204 0.0439724 -0.0664691)
(-0.0382117 -0.17287 0.79227)
(0.0734801 -0.374823 0.361542)
(0.164408 -0.283899 0.407359)
(0.229259 -0.289778 0.253592)
(0.114582 -0.151093 0.445404)
(-0.248508 0.0401031 0.105023)
(0.252474 -0.0196012 0.111399)
(0.217507 -0.06426 0.0766781)
(0.311613 -0.165818 0.375757)
(-0.0745033 -0.0610107 2.61771)
(0.55683 -0.36501 2.71433)
(0.201595 0.33891 2.00342)
(-0.125527 -0.178741 1.21467)
(0.0392327 0.178379 1.64882)
(0.307904 -0.337251 1.49084)
(0.143175 0.271437 0.602682)
(-0.0113178 0.0482727 0.450485)
(-0.312191 0.129288 0.525998)
(-0.309811 0.0147666 0.884202)
(-0.144067 -0.0200353 -0.101908)
(-0.0737186 0.0537391 1.44276)
(-0.114439 -0.235482 0.837791)
(0.116979 -0.0520732 0.581102)
(-0.0663678 -0.183113 1.07929)
(-0.0683207 -0.0395891 0.411939)
(0.029505 -0.113032 1.36146)
(-0.04173 0.0895863 -0.121357)
(-0.0800202 -0.156687 0.871174)
(0.388732 -0.0669548 0.180827)
(0.299121 -0.0804174 0.424256)
(0.24536 -0.0881783 0.352137)
(0.140501 -0.269299 0.577679)
(0.0808581 0.0839519 0.217801)
(0.30066 0.0714147 -0.0989353)
(0.158635 -0.028871 0.0735683)
(0.143788 -0.058237 0.269666)
(-0.104557 -0.0715712 2.35995)
(0.539993 -0.372864 2.6696)
(0.174653 0.347492 2.14867)
(-0.166904 -0.206577 1.12937)
(0.159387 0.254781 1.78656)
(0.248493 -0.262181 1.48438)
(0.399608 0.257521 0.761068)
(0.22322 0.0131871 0.590515)
(-0.229544 0.2066 0.627662)
(-0.224685 -0.00897249 0.763321)
(0.063889 0.0714018 -0.0260509)
(-0.0803717 0.084094 1.27589)
(-0.24384 0.0514604 0.697645)
(0.19389 0.00328392 0.567593)
(-0.0500462 -0.113939 1.21083)
(-0.0128784 0.0855331 0.396951)
(0.017126 -0.170299 1.42165)
(0.286838 -0.280992 0.0341304)
(-0.148696 -0.144538 1.00292)
(0.414769 0.0562653 0.0199833)
(0.375822 0.0886222 0.406184)
(0.253241 0.059593 0.403275)
(0.134309 -0.322458 0.640674)
(0.1997 0.10775 -0.0717988)
(0.0977878 0.00734951 0.182557)
(0.0429235 -0.0104076 0.262537)
(-0.118136 -0.0611585 2.1588)
(0.550314 -0.236796 2.56896)
(0.177606 0.359293 2.22985)
(-0.151697 -0.15818 1.05943)
(0.245604 0.23896 1.88545)
(0.132816 -0.0280968 1.47401)
(0.620368 0.134398 0.856367)
(0.433623 -0.0549753 0.755539)
(-0.15123 0.194049 0.722383)
(-0.172372 -0.214022 0.600603)
(-0.0991418 0.05596 1.23687)
(0.0951707 -0.019608 0.422204)
(0.313391 -0.028054 0.591702)
(0.0532698 -0.00434048 1.21695)
(0.0585883 0.147126 0.534183)
(-0.0618897 -0.143149 1.39232)
(-0.124741 -0.221198 1.13117)
(0.224524 0.0361616 -0.0824223)
(0.300682 0.153108 0.47373)
(0.235548 0.132727 0.46848)
(0.223649 -0.314821 0.745172)
(0.0324071 0.0791546 -0.0179745)
(0.0361389 0.0481102 0.307309)
(0.0350646 0.00860203 0.396531)
(-0.0996911 -0.0803901 2.03386)
(0.373724 0.0706063 2.00237)
(0.203323 0.313186 2.34233)
(0.0106445 -0.173835 1.034)
(0.244293 0.182418 1.84749)
(-0.0589613 0.156471 1.44559)
(0.646303 0.00131556 0.992522)
(0.462403 -0.105336 0.913648)
(-0.0819039 0.211894 0.871723)
(-0.155497 -0.245147 0.672553)
(-0.19447 0.118793 1.35454)
(0.23271 -0.22353 0.199899)
(0.333745 -0.0758309 0.680194)
(0.0853944 0.0928212 1.20849)
(0.0138411 0.239159 0.595883)
(0.0493831 -0.119942 1.39755)
(0.10106 0.0801887 1.23214)
(0.149249 0.0232661 -0.108285)
(0.212546 0.209855 0.523586)
(0.196554 0.187075 0.520749)
(0.258293 -0.296204 0.865706)
(0.0173152 0.0652896 0.0283573)
(-0.0338281 0.0688256 0.388138)
(0.044408 -0.0149939 0.532042)
(-0.0505788 -0.103574 1.97266)
(0.231206 -0.15616 1.83441)
(0.26331 0.294392 2.30234)
(0.210002 -0.212522 1.11889)
(0.224785 0.102542 1.73599)
(0.0124372 0.127221 1.4422)
(0.483759 -0.0605127 1.13213)
(0.379281 -0.106128 1.01365)
(-0.0311166 0.214228 0.980849)
(-0.0295436 0.0240465 0.901507)
(-0.0579538 0.418454 1.30029)
(0.209313 -0.138369 0.120609)
(0.204472 -0.0700885 0.788214)
(0.00762745 0.163262 1.19136)
(-0.074633 0.264957 0.675558)
(-0.0823187 -0.0148261 1.31566)
(0.383404 0.159513 0.712152)
(0.07648 0.0139619 -0.0804637)
(0.132679 0.248298 0.569509)
(0.11855 0.253367 0.58928)
(0.181706 -0.216586 1.06151)
(-0.0119763 0.0359916 0.114992)
(-0.0817614 0.115331 0.461498)
(0.0744671 -0.0435062 0.626616)
(0.00397001 -0.0779916 1.94)
(0.271595 -0.312883 1.89215)
(0.438307 0.242671 2.25064)
(0.325638 -0.229249 1.32096)
(0.182289 0.024538 1.62993)
(0.0869651 -0.119763 1.2669)
(0.306733 -0.0501839 1.16336)
(0.293319 -0.103097 1.01463)
(-0.0283107 0.208915 1.00042)
(0.133064 0.375007 1.23761)
(0.0377463 0.421862 0.590231)
(0.217958 -0.0694393 0.136953)
(-0.0127632 -0.0438775 0.877245)
(-0.0646279 0.199776 1.11916)
(-0.107467 0.266257 0.724252)
(-0.182494 -0.0344836 0.872975)
(0.235565 0.150508 0.298049)
(0.00866015 0.0142299 -0.03609)
(0.0738854 0.272846 0.609352)
(0.0165203 0.298907 0.682276)
(0.0394665 -0.0375204 1.33614)
(-0.0792686 0.0177076 0.229738)
(-0.0916456 0.17333 0.522025)
(0.105814 -0.063678 0.714266)
(0.0193608 -0.0764464 1.91365)
(0.241749 -0.27754 1.8835)
(0.430567 0.210724 2.3817)
(0.351845 -0.259051 1.53347)
(0.170504 -0.0344015 1.56446)
(0.245857 0.0149008 1.08789)
(0.231831 -0.0262571 1.10153)
(0.258481 -0.0885672 0.956582)
(-0.0302078 0.211022 0.983671)
(0.166678 0.4436 1.41589)
(0.0284809 0.308215 0.402151)
(0.131388 -0.125572 0.195438)
(-0.0820026 -0.0309166 0.891617)
(-0.0404288 0.192861 1.0063)
(-0.129675 0.242693 0.7449)
(-0.0827522 0.00711275 0.649198)
(0.142549 0.162306 0.181575)
(-0.0211876 0.00453635 0.00117671)
(0.0599063 0.273941 0.630646)
(-0.0431972 0.302139 0.783842)
(-0.0765684 0.102408 1.60889)
(-0.151029 -0.00836186 0.350747)
(-0.0798493 0.222637 0.579852)
(0.136775 -0.0789527 0.791736)
(0.0426661 -0.0752896 1.96636)
(0.0381187 -0.0718133 1.85508)
(0.200118 0.260998 2.50984)
(0.321351 -0.301134 1.66253)
(0.101141 -0.0910859 1.55915)
(0.213905 0.132471 0.956422)
(0.240377 -0.00198393 1.0172)
(0.263216 -0.031926 0.874259)
(0.00274521 0.221731 0.949551)
(0.156788 0.413728 1.48293)
(0.0221624 0.167299 0.363041)
(-0.0836147 -0.0979806 0.307018)
(-0.0408533 0.00347149 0.869821)
(0.0912747 0.180331 0.915867)
(-0.129582 0.213202 0.751168)
(-0.0628422 0.018551 0.618918)
(0.126388 0.160998 0.157418)
(-0.0287191 -0.00721268 0.0438127)
(0.076574 0.265947 0.642741)
(-0.117859 0.305202 0.859508)
(-0.115018 0.185654 1.78033)
(-0.184716 -0.0202216 0.444753)
(-0.073946 0.242339 0.643205)
(0.0945474 -0.0431099 0.917417)
(0.0415419 -0.101484 2.05546)
(-0.156066 0.111947 1.91258)
(0.113308 0.265649 2.46645)
(0.328685 -0.163505 1.80565)
(0.0517181 -0.115239 1.60154)
(-0.0149079 0.330554 0.906441)
(0.265759 0.0342851 0.96985)
(0.302855 0.0454128 0.842827)
(0.0914955 0.23961 0.931267)
(0.132401 0.344418 1.49774)
(0.0146753 0.131359 0.426959)
(-0.214044 0.045045 0.403126)
(-0.000826281 0.139502 0.731618)
(0.233458 0.186008 0.878513)
(-0.0806687 0.195234 0.778579)
(-0.0575165 0.108252 0.686937)
(0.130524 0.171459 0.179641)
(-0.0281225 -0.03522 0.105388)
(0.103514 0.223719 0.676066)
(-0.181776 0.350171 0.92373)
(-0.124459 0.267196 1.85623)
(-0.198309 -0.00380186 0.530684)
(-0.0977967 0.236739 0.723986)
(-0.0531341 0.0612966 1.08058)
(0.312844 0.00170843 2.18274)
(-0.411376 0.41426 1.82445)
(0.0153026 0.425357 2.16588)
(0.587975 0.272168 1.60561)
(0.0774754 -0.0202283 1.71152)
(-0.125004 0.520808 0.949246)
(0.279019 0.0406923 0.981892)
(0.338229 0.0881557 0.883128)
(0.157827 0.27074 0.958987)
(0.124859 0.298325 1.4591)
(0.016353 0.188501 0.56697)
(-0.248918 0.106414 0.494061)
(-0.0608374 0.121291 0.554041)
(0.304208 0.201178 0.861052)
(0.0138541 0.196278 0.855462)
(-0.0545963 0.239044 0.792629)
(0.150036 0.172528 0.228636)
(-0.0261569 -0.0993298 0.179181)
(0.121642 0.175481 0.723244)
(-0.176405 0.371819 0.994957)
(-0.152419 0.284129 1.79468)
(-0.202759 -0.00591647 0.627199)
(-0.124785 0.220204 0.818766)
(-0.155843 0.145695 1.28396)
(0.321513 0.0210162 1.93281)
(-0.320669 0.416639 1.70765)
(0.0657276 0.512743 1.74892)
(0.368631 0.472617 1.28188)
(0.152554 0.166423 1.85847)
(-0.124183 0.470652 1.07945)
(0.267678 -0.023269 1.01202)
(0.320532 0.0649053 0.984068)
(0.161456 0.296174 1.03797)
(0.169741 0.328045 1.38437)
(0.021305 0.2569 0.658823)
(-0.116201 0.129505 0.613165)
(-0.0655009 -0.0129427 0.446882)
(0.308299 0.191788 0.826237)
(0.0651605 0.21936 0.946633)
(-0.0604337 0.308514 0.909352)
(0.15891 0.15914 0.284817)
(-0.0307871 -0.170378 0.232638)
(0.0850851 0.136722 0.776506)
(-0.151106 0.341419 1.09383)
(-0.143407 0.271659 1.73511)
(-0.190558 -0.0477397 0.698735)
(-0.166138 0.201565 0.907105)
(-0.219067 0.178173 1.5243)
(-0.00814449 0.0804397 1.09727)
(-0.0683447 0.140918 1.28111)
(0.105226 0.173434 1.62537)
(0.0594453 0.219725 1.13905)
(0.265058 0.253337 1.98833)
(-0.108456 0.247995 1.16632)
(0.188878 -0.0777974 0.988673)
(0.280113 0.0363459 1.05081)
(0.145579 0.291511 1.12327)
(0.202838 0.403669 1.32364)
(0.0216961 0.264915 0.695329)
(0.0477379 0.148813 0.677943)
(-0.0357524 -0.111152 0.385992)
(0.276779 0.116878 0.768204)
(0.092338 0.237097 1.06293)
(-0.06953 0.330684 1.03712)
(0.152257 0.132616 0.327652)
(-0.0322773 -0.220935 0.277164)
(-0.0396063 0.0526012 0.81248)
(-0.118888 0.263635 1.18192)
(-0.14177 0.258236 1.75444)
(-0.184563 -0.094791 0.736686)
(-0.235789 0.175113 0.996805)
(-0.28004 0.162698 1.70472)
(0.0838702 0.00937028 0.885775)
(-0.10594 0.0959594 1.06673)
(0.105028 -0.00174785 1.68278)
(0.041648 0.0469002 1.10195)
(0.230093 0.238422 1.93145)
(-0.041403 0.105955 1.20228)
(0.135537 -0.0671734 0.970355)
(0.244357 0.0200402 1.06653)
(0.152127 0.254132 1.21397)
(0.200821 0.40917 1.34247)
(0.0259899 0.204741 0.674013)
(0.103054 0.112313 0.719633)
(-0.0121243 -0.135602 0.369919)
(0.182442 -0.0267231 0.742994)
(0.116853 0.214906 1.18325)
(-0.0561132 0.305061 1.18423)
(0.13378 0.0938499 0.356989)
(-0.0117165 -0.241468 0.317198)
(-0.12361 -0.0604889 0.783693)
(-0.0840552 0.168227 1.22603)
(-0.111676 0.273041 1.82078)
(-0.185184 -0.12636 0.748538)
(-0.273799 0.129437 1.06111)
(-0.302903 0.152744 1.69989)
(0.0988368 -0.00235615 0.931938)
(-0.0622342 0.0837929 0.93348)
(0.0960051 -0.0149961 1.72612)
(0.0765003 0.0037051 1.08444)
(0.0743823 0.136948 1.66434)
(0.00266128 0.098054 1.15456)
(0.135589 -0.0408614 0.984788)
(0.221101 0.0164868 1.0919)
(0.168895 0.200369 1.29347)
(0.164682 0.337023 1.44254)
(0.0289175 0.118901 0.612361)
(0.0773763 0.0948948 0.790475)
(0.00666715 -0.10247 0.391821)
(0.105064 -0.122091 0.745267)
(0.127271 0.152695 1.30065)
(-0.0224612 0.230778 1.33996)
(0.081715 0.0496168 0.403363)
(0.036909 -0.226668 0.351104)
(-0.0865166 -0.140417 0.699974)
(-0.0692875 0.0916134 1.27309)
(-0.0447376 0.203038 1.95644)
(-0.186707 -0.155555 0.72897)
(-0.257997 0.100812 1.09778)
(-0.293083 0.179968 1.59288)
(0.0985316 0.00233261 1.00906)
(-0.076608 0.0935461 0.774363)
(0.0668286 0.0133955 1.70889)
(0.123424 0.00118554 1.03228)
(0.0328239 0.0833136 1.49097)
(-0.0507012 0.133413 0.969176)
(0.130703 0.0252877 1.01836)
(0.227623 0.0364694 1.13599)
(0.17964 0.159302 1.37188)
(0.0771017 0.218001 1.57034)
(0.0116008 0.0668638 0.521568)
(0.0455278 0.128317 0.858749)
(0.0422496 -0.0533256 0.442459)
(0.0709614 -0.140931 0.767874)
(0.124253 0.075053 1.39795)
(0.0161974 0.135695 1.47147)
(0.0357784 0.0453155 0.442906)
(0.0946779 -0.190414 0.37803)
(-0.00282805 -0.162546 0.617685)
(-0.00928704 0.0452617 1.348)
(-0.0777996 0.0331345 1.76206)
(-0.144614 -0.176891 0.670878)
(-0.207163 0.0746473 1.09414)
(-0.232933 0.169017 1.55817)
(0.0741323 0.000971418 1.09734)
(-0.0541695 0.0739135 0.713769)
(0.0210236 0.0482619 1.45886)
(0.190015 0.012125 0.9729)
(-0.00833095 0.0430141 1.42979)
(-0.0499569 0.108768 0.874038)
(0.0995143 0.0651658 1.02609)
(0.237538 0.0708713 1.18843)
(0.162773 0.139505 1.48642)
(-0.0447595 0.0358864 1.67011)
(0.0122237 0.0233762 0.474321)
(0.0200856 0.128409 0.897335)
(0.0747077 -0.0595448 0.485117)
(0.0699036 -0.130932 0.793783)
(0.13528 0.00155062 1.46637)
(0.0444059 0.0676485 1.54404)
(0.00549127 0.0841798 0.449208)
(0.129631 -0.154786 0.387963)
(0.0622801 -0.155139 0.568657)
(0.0561656 0.00385501 1.36065)
(-0.0414401 0.0235225 1.48103)
(-0.0724994 -0.164851 0.581613)
(-0.130153 0.0326751 1.06651)
(-0.184864 0.135957 1.54645)
(0.0209852 -0.00321902 1.17544)
(0.074947 -0.0373788 0.711448)
(0.0636583 0.040523 1.02007)
(0.189773 0.0261672 0.948165)
(-0.0733137 -0.0109381 1.45405)
(-0.0464428 0.0484898 0.890869)
(0.0820677 0.0587693 1.01657)
(0.202376 0.0856002 1.22874)
(0.121341 0.127585 1.60772)
(-0.100528 -0.0859945 1.66836)
(0.00053191 -0.0790455 0.467874)
(0.00335827 0.0811347 0.878245)
(0.077195 -0.0940555 0.517861)
(0.0865372 -0.133733 0.834235)
(0.157925 -0.0558798 1.51338)
(0.0738031 0.014045 1.59699)
(-0.00955137 0.092074 0.455064)
(0.124648 -0.121878 0.378456)
(0.094227 -0.156937 0.542709)
(0.0696832 -0.017265 1.30427)
(-0.0349287 0.0551697 1.4406)
(-0.0265096 -0.11953 0.492641)
(-0.0636431 -0.000314415 1.04634)
(-0.167881 0.120555 1.54244)
(-0.0209764 -0.00317706 1.22746)
(0.128895 -0.129916 0.720742)
(0.143754 0.020235 0.795104)
(0.139996 0.0539042 0.933428)
(-0.118614 -0.0502844 1.50879)
(-0.0390408 -0.0375268 0.917153)
(0.0904452 0.0365142 1.01267)
(0.152156 0.0854943 1.27133)
(0.0811222 0.0962158 1.69023)
(-0.106631 -0.151909 1.59618)
(-0.0317389 -0.111384 0.530584)
(-0.0547409 -0.0238225 0.687655)
(0.0175417 -0.130697 0.539312)
(0.0847526 -0.137462 0.894771)
(0.148784 -0.0806618 1.5619)
(0.0837607 -0.0360525 1.66674)
(-0.00945824 -0.00665317 0.457799)
(0.0905305 -0.0971225 0.352244)
(0.0980501 -0.16016 0.526303)
(0.0577831 -0.0283982 1.20666)
(-0.041665 0.0648103 1.42852)
(-0.0220507 -0.100091 0.40825)
(-0.0631795 -0.0674106 1.06259)
(-0.158535 0.100201 1.51108)
(-0.0356617 -0.000427542 1.26427)
(0.0839735 -0.13123 0.771018)
(0.168021 -0.0365471 0.780843)
(0.109293 0.080467 0.95083)
(-0.120949 -0.074824 1.56131)
(-0.0711543 -0.159646 0.912026)
(0.110584 -0.0293152 0.999453)
(0.131444 0.0759529 1.33248)
(0.0412743 0.0315513 1.75183)
(-0.104242 -0.194451 1.50782)
(-0.00929691 0.0322332 0.618965)
(-0.102573 -0.0653482 0.584661)
(-0.126847 -0.167413 0.547611)
(0.0671485 -0.133638 0.9131)
(0.10184 -0.083094 1.60942)
(0.0693903 -0.0546926 1.69942)
(0.0192278 -0.077298 0.406777)
(0.0672613 -0.0940665 0.319545)
(0.0901179 -0.173172 0.515013)
(0.0406261 -0.0419663 1.11426)
(-0.0321765 0.0451524 1.423)
(-0.0536809 -0.110421 0.334253)
(-0.0677538 -0.0940722 1.08442)
(-0.153667 0.0950212 1.42128)
(-0.0484596 0.000599975 1.29252)
(0.0289623 -0.0802238 0.848157)
(0.16615 -0.102676 0.867766)
(0.108295 0.0914079 1.00263)
(-0.102099 -0.0861007 1.60994)
(-0.00914868 -0.188621 0.827567)
(0.0673348 -0.108517 0.986627)
(0.0984208 0.0543292 1.41095)
(-0.00938783 -0.052925 1.81558)
(-0.083388 -0.203739 1.45346)
(0.0124374 0.191166 0.675579)
(-0.0965938 -0.00218245 0.556246)
(-0.217032 -0.171621 0.51302)
(0.0627325 -0.133313 0.904999)
(0.0705154 -0.0835537 1.63549)
(0.0540038 -0.0517861 1.67974)
(0.0877798 0.0210128 0.41238)
(0.075469 -0.0896881 0.295024)
(0.0971961 -0.215207 0.508747)
(0.0226906 -0.055178 1.03604)
(0.0129704 -0.0162919 1.44588)
(-0.0638359 -0.105239 0.302422)
(-0.0686965 -0.0872056 1.03885)
(-0.143384 0.101979 1.33066)
(-0.0646751 -0.000608187 1.33129)
(0.0197889 -0.0365355 0.912958)
(0.13981 -0.104412 0.938671)
(0.0767059 0.110462 1.08198)
(-0.0981354 -0.105615 1.65224)
(-0.0155575 -0.134982 0.720211)
(-0.0403025 -0.183202 0.989612)
(0.0219739 0.0072395 1.47922)
(-0.0443604 -0.118127 1.85675)
(-0.0592619 -0.174306 1.44326)
(0.0184014 0.249011 0.701001)
(-0.0695179 0.0650676 0.501091)
(-0.236043 -0.147317 0.455488)
(0.0789387 -0.123452 0.887997)
(0.0675692 -0.0858739 1.64804)
(0.000908306 -0.0634134 1.61105)
(0.128213 0.160359 0.483169)
(0.110789 -0.0724789 0.284517)
(0.130716 -0.229904 0.510431)
(0.0389558 -0.078662 0.963154)
(0.0571729 -0.0741801 1.47218)
(-0.0073708 -0.0523093 0.315522)
(-0.0469043 -0.178896 0.767873)
(-0.108853 0.0648573 1.25247)
(-0.117666 -0.00415517 1.34927)
(0.0394852 -0.0106337 0.965322)
(0.0970079 -0.0713388 0.982502)
(-0.0123835 0.136627 1.13521)
(-0.102499 -0.120658 1.67352)
(-0.101668 -0.0823916 0.692937)
(-0.173959 -0.218964 0.980279)
(-0.0228018 -0.0586062 1.51003)
(-0.0493069 -0.137337 1.8675)
(-0.0475268 -0.131152 1.45803)
(0.0245167 0.269801 0.673046)
(-0.0478502 0.0894455 0.430858)
(-0.181725 -0.102426 0.376054)
(0.126352 -0.138866 0.835216)
(0.0757734 -0.0880917 1.6519)
(-0.00439674 -0.103154 1.56567)
(0.168105 0.229444 0.523486)
(0.155797 -0.0509596 0.278613)
(0.16675 -0.215281 0.529616)
(0.0907721 -0.0888465 0.9421)
(0.0902279 -0.124552 1.4934)
(0.0646018 -0.00541371 0.328326)
(0.0154934 -0.0980123 0.509659)
(-0.00379448 0.0195501 1.24638)
(-0.196157 -0.011411 1.33789)
(0.0361258 0.00715507 0.988344)
(0.030729 0.019191 1.06865)
(-0.0729594 0.103889 1.16907)
(-0.100045 -0.123858 1.67331)
(-0.147811 -0.0374134 0.729025)
(-0.267633 -0.20654 0.925366)
(0.00455471 -0.134812 1.49366)
(-0.0430874 -0.134187 1.8675)
(-0.0404815 -0.0823501 1.47867)
(0.0242422 0.298099 0.606586)
(-0.0183679 0.151293 0.406711)
(-0.0997078 -0.0653685 0.301365)
(0.117634 -0.157934 0.790503)
(0.0983803 -0.0875747 1.66407)
(0.010145 -0.119038 1.56327)
(0.190589 0.257336 0.52251)
(0.199899 -0.0261443 0.271436)
(0.201767 -0.187783 0.536118)
(0.136448 -0.118589 0.977328)
(0.096155 -0.135599 1.50765)
(0.11599 0.0222077 0.323127)
(0.0863036 -0.0466614 0.408665)
(0.105302 -0.0337239 1.25005)
(-0.257992 -0.0319429 1.29456)
(-0.0330467 0.0557861 1.01962)
(-0.0784455 0.0837952 1.17267)
(-0.0880114 -0.0707295 1.25052)
(-0.0807858 -0.118709 1.65283)
(-0.119764 0.0438088 0.782539)
(-0.264331 -0.166481 0.86102)
(0.0531662 -0.24503 1.38159)
(-0.0117725 -0.13667 1.86664)
(-0.0239234 -0.0394007 1.51211)
(0.0247897 0.32636 0.545131)
(-0.0164799 0.206151 0.410601)
(-0.0339848 -0.0480179 0.24738)
(0.0347348 -0.158009 0.749428)
(0.119892 -0.0702 1.6993)
(0.0142569 -0.11687 1.58515)
(0.201579 0.271529 0.510488)
(0.241579 0.00352515 0.260809)
(0.220696 -0.133311 0.535432)
(0.163374 -0.177613 1.05762)
(0.0965686 -0.128195 1.53753)
(0.147022 0.0393415 0.307979)
(0.169635 -0.04164 0.360472)
(0.21256 -0.0997829 1.22101)
(-0.254908 -0.05239 1.29273)
(-0.111081 0.124014 1.08703)
(-0.16616 0.100498 1.26744)
(-0.107709 -0.226506 1.32467)
(-0.0377424 -0.0962792 1.6416)
(-0.0490342 0.129403 0.798539)
(-0.141732 -0.0966887 0.784525)
(0.0305517 -0.271334 1.23326)
(0.0593766 -0.104552 1.88085)
(-0.00811543 -0.0130198 1.56592)
(0.0222228 0.328049 0.500261)
(-0.041331 0.240869 0.430304)
(0.00467305 -0.0430455 0.226848)
(-0.0766729 -0.157484 0.664979)
(0.122548 -0.0522056 1.7209)
(0.0184136 -0.0730156 1.63873)
(0.207429 0.281707 0.494466)
(0.271588 0.0331849 0.24922)
(0.198901 -0.073798 0.535561)
(0.181688 -0.177621 1.14556)
(0.0831262 -0.115185 1.58197)
(0.161309 0.0563398 0.285927)
(0.225018 -0.0541409 0.323083)
(0.237829 -0.120167 1.21156)
(-0.211824 -0.0638224 1.35771)
(-0.167165 0.176455 1.16665)
(-0.212615 0.0725805 1.34526)
(-0.106651 -0.264216 1.34028)
(-0.00134421 -0.0671292 1.65189)
(0.00525 0.187134 0.781049)
(-0.0283166 -0.0485406 0.734139)
(-0.0322313 -0.191342 1.1302)
(0.0767356 -0.0372555 1.88694)
(-0.0120166 -0.00294136 1.63766)
(0.0179466 0.330474 0.483776)
(-0.0724458 0.254146 0.448948)
(0.0216443 -0.0414072 0.236661)
(-0.149433 -0.145701 0.582358)
(0.110972 -0.034553 1.71879)
(0.0305571 -0.021063 1.69061)
(0.222399 0.290079 0.455768)
(0.2807 0.0502742 0.244822)
(0.143826 -0.0453533 0.523395)
(0.152305 -0.111414 1.22722)
(0.0494036 -0.0828513 1.645)
(0.153534 0.067059 0.267781)
(0.237897 -0.0608861 0.295089)
(0.246698 -0.0891462 1.26024)
(-0.166656 -0.061831 1.45447)
(-0.183625 0.15636 1.24747)
(-0.19885 0.037236 1.40008)
(-0.108166 -0.254898 1.33831)
(0.0174284 -0.046566 1.67763)
(-0.00407818 0.208162 0.750985)
(-0.00243829 -0.0357345 0.721996)
(-0.0945465 -0.0720442 1.08046)
(0.056462 -0.0182214 1.87264)
(-0.0298725 0.0016255 1.69386)
(0.013414 0.366992 0.519108)
(-0.105552 0.244762 0.45427)
(0.025392 -0.0355947 0.264796)
(-0.199177 -0.122602 0.529702)
(0.102519 0.019223 1.69893)
(0.0185856 0.0157892 1.72178)
(0.246947 0.288195 0.392214)
(0.26237 0.0520502 0.256181)
(0.0547546 -0.052254 0.521217)
(0.0982302 -0.0213781 1.30198)
(-0.0143368 0.00139345 1.7001)
(0.119571 0.0696865 0.260803)
(0.171216 -0.0350595 0.296187)
(0.171804 -0.0424801 1.40961)
(-0.128585 -0.0490966 1.52626)
(-0.124073 0.120896 1.29278)
(-0.146642 0.0198192 1.42974)
(-0.0864771 -0.192995 1.28211)
(0.00922013 -0.0334725 1.70509)
(-0.099331 0.18444 0.707928)
(-0.0342485 -0.0359467 0.731344)
(-0.150216 0.027738 1.06725)
(0.0331027 -0.0292745 1.8266)
(-0.0479319 -0.00526062 1.71775)
(0.00870731 0.41801 0.615548)
(-0.120292 0.231871 0.455549)
(0.0271464 -0.0247188 0.305757)
(-0.235008 -0.0898722 0.500763)
(0.145471 0.0802944 1.61334)
(0.0162215 0.0337374 1.72351)
(0.252669 0.261702 0.345634)
(0.214057 0.0451755 0.294409)
(-0.0445314 -0.071535 0.564699)
(-0.0189232 0.0722575 1.35587)
(-0.0566269 0.0911867 1.69905)
(0.0599162 0.0666927 0.279813)
(0.0148371 0.0179174 0.389682)
(-0.0646129 0.0827496 1.50502)
(-0.103774 -0.0398811 1.56559)
(-0.0418389 0.0887827 1.23362)
(-0.0937041 0.00917869 1.42866)
(0.033618 -0.138778 1.19963)
(-0.011112 -0.0458257 1.70701)
(-0.220016 0.136046 0.659586)
(-0.174277 -0.0537752 0.74391)
(-0.195424 0.0643206 1.05991)
(0.0124257 0.00227051 1.73932)
(-0.0473199 -0.0173761 1.7244)
(0.0200271 0.419197 0.730661)
(-0.0796764 0.237241 0.471855)
(0.0266067 -0.00819057 0.354271)
(-0.247986 -0.0380768 0.492852)
(0.176052 0.0302604 1.52304)
(0.02341 0.0400512 1.7193)
(0.233583 0.226471 0.354655)
(0.16925 0.041114 0.352364)
(-0.133386 -0.0553768 0.618056)
(-0.079138 0.0252684 1.37667)
(-0.0840792 0.162137 1.68984)
(-0.00048042 0.0601917 0.325628)
(-0.0506065 0.0700712 0.498267)
(-0.143074 0.00817186 1.43845)
(-0.0836375 -0.0346032 1.57322)
(-0.0191767 0.0377427 1.14625)
(0.0304517 0.00964569 1.42642)
(0.0764942 -0.101181 1.14663)
(-0.0427877 -0.0656794 1.70458)
(-0.320993 0.0999531 0.640056)
(-0.363862 -0.0696411 0.729206)
(-0.245417 0.0353854 1.04096)
(-0.0106342 0.036627 1.66823)
(-0.0417744 -0.0317029 1.71757)
(0.0294323 0.32702 0.745184)
(-0.000829976 0.256284 0.513733)
(0.0199688 0.0187347 0.40087)
(-0.254669 0.0218804 0.489596)
(0.0870583 -0.0761465 1.47111)
(0.0190228 0.0400706 1.7121)
(0.194102 0.163278 0.420404)
(0.13238 0.0449363 0.423967)
(-0.198196 0.0067276 0.638374)
(-0.0892032 -0.0590327 1.38812)
(-0.0883668 0.184001 1.68251)
(-0.0559815 0.052866 0.393078)
(-0.053842 0.108091 0.583899)
(0.100617 -0.0566039 1.06376)
(-0.0819657 -0.0338828 1.5748)
(-0.03385 0.00374305 1.12463)
(0.145732 0.0102894 1.42059)
(0.0987437 -0.0661696 1.12802)
(-0.0605419 -0.0609749 1.67062)
(-0.357885 0.0860295 0.675232)
(-0.500559 -0.0582959 0.72342)
(-0.382074 -0.054761 0.988489)
(-0.0608672 0.000368406 1.61639)
(-0.0466676 -0.0459988 1.68878)
(0.0310359 0.329369 0.619003)
(0.0651444 0.267006 0.575898)
(0.0108781 0.0500943 0.453842)
(-0.248075 0.069886 0.485244)
(-0.11399 -0.0398137 1.39708)
(0.00722751 0.0823732 1.67375)
(0.134502 0.0783666 0.52182)
(0.098997 0.0514843 0.50483)
(-0.229104 0.0688926 0.638942)
(-0.0813803 -0.0313296 1.35521)
(-0.0900878 0.185438 1.64503)
(-0.121315 0.0386046 0.483671)
(-0.0974313 0.136296 0.646862)
(0.119839 0.0629416 1.07463)
(-0.0720718 -0.018209 1.57219)
(-4.77386e-05 -0.00221741 1.13001)
(0.170593 0.0344662 1.39617)
(0.114149 0.041106 1.09)
(-0.0935411 -0.0867648 1.63325)
(-0.272872 0.10335 0.79666)
(-0.545074 -0.0165264 0.749775)
(-0.519134 -0.0974741 0.902841)
(-0.193091 -0.102126 1.4797)
(-0.0699211 -0.0631829 1.62327)
(0.0298807 0.353482 0.517029)
(0.102984 0.261134 0.643007)
(0.0164274 0.0725686 0.520215)
(-0.197573 0.0764854 0.503569)
(-0.275635 0.15033 1.21254)
(-0.0337411 0.0609338 1.56145)
(0.0618726 0.016417 0.630311)
(0.0709669 0.0483802 0.594125)
(-0.220468 0.0890604 0.652467)
(-0.207377 0.123903 1.28848)
(-0.0678031 0.139769 1.58108)
(-0.189981 0.0163935 0.596273)
(-0.202743 0.162366 0.733482)
(-0.137025 0.199562 1.2109)
(-0.0846123 -0.0101756 1.5414)
(0.0399227 0.0364947 0.991862)
(0.132203 0.0349567 1.37541)
(0.0426721 0.130219 1.09493)
(-0.145401 -0.100588 1.58715)
(-0.0613119 0.149158 0.981)
(-0.504008 0.0302142 0.80263)
(-0.528078 -0.0668932 0.832334)
(-0.310748 -0.153288 1.18882)
(-0.118805 -0.152315 1.41443)
(0.0224937 0.304468 0.516004)
(0.10649 0.232104 0.680985)
(0.044322 0.0833487 0.589061)
(-0.0779186 0.041714 0.558595)
(-0.238295 0.176809 1.0477)
(-0.151568 0.262231 1.41824)
(0.00271224 -0.022841 0.724564)