/*--------------------------------*- C++ -*----------------------------------*\
| =========                 |                                                 |
| \\      /  F ield         | OpenFOAM: The Open Source CFD Toolbox           |
|  \\    /   O peration     | Version:  5.x                                   |
|   \\  /    A nd           | Web:      www.OpenFOAM.org                      |
|    \\/     M anipulation  |                                                 |
\*---------------------------------------------------------------------------*/
FoamFile
{
    version     2.0;
    format      ascii;
    class       volVectorField;
    location    "6.25";
    object      U;
}
// * * * * * * * * * * * * * * * * * * * * * * * * * * * * * * * * * * * * * //

dimensions      [0 1 -1 0 0 0 0];

internalField   nonuniform List<vector> 
10571
(
(-0.253895 0.193707 0.756727)
(0.650969 -0.748624 1.38485)
(-0.44279 -0.0872388 3.61661)
(-0.649372 0.392242 1.66281)
(0.633595 -0.0797023 2.78224)
(1.15799 -0.0354231 2.07019)
(1.41201 -2.00696 3.9774)
(-0.58876 0.00101879 3.73518)
(0.494583 -0.960777 4.30995)
(-0.34463 -1.49836 3.14674)
(0.59878 0.528683 2.95004)
(0.441144 -0.261449 1.99708)
(1.32473 -1.27616 3.70998)
(1.77171 -0.798769 3.9849)
(-0.689258 -1.66628 3.95774)
(-0.101844 -1.17051 1.99273)
(0.332305 0.280036 1.16448)
(0.564148 0.314507 2.19587)
(0.763038 -0.989304 2.45914)
(-0.188777 0.258188 1.33161)
(-0.236242 -0.0204529 1.08029)
(-0.0841015 -0.219002 1.08594)
(0.187458 -0.0999153 1.84051)
(0.184013 -0.365239 0.90044)
(0.0976715 0.094729 0.563036)
(-0.163809 -0.292078 1.26799)
(-1.05608 -1.45715 4.91805)
(0.335924 0.0807138 1.15394)
(-1.14083 0.258915 3.09205)
(0.451369 -0.204853 1.16149)
(0.104457 -0.24387 3.67448)
(-0.165759 -0.630288 3.46411)
(-0.0492383 -0.365744 3.60319)
(-0.345353 -0.230295 3.00318)
(0.196486 -0.284181 1.16634)
(0.323655 0.547882 2.62453)
(0.0141655 -0.111793 1.56555)
(-0.012928 0.0484055 3.32724)
(-0.0647615 0.0527226 1.30699)
(-0.044651 -0.247646 0.606797)
(0.708058 -0.454642 2.35483)
(0.0247145 -0.00632004 1.50898)
(0.457253 0.274673 3.11729)
(-0.0769657 0.661785 2.42152)
(-0.113785 0.360426 0.344123)
(-0.254827 -0.165763 1.08597)
(0.73897 -0.508559 2.18421)
(0.660461 -0.299146 0.846209)
(0.175485 -0.0864402 0.406117)
(-0.215924 0.301432 1.29988)
(-0.527709 -0.668785 5.21233)
(-0.311794 0.36678 1.62438)
(-0.722406 -0.036419 1.80119)
(0.141277 -0.21219 0.922227)
(0.258878 0.194324 3.31263)
(-0.185683 0.0645692 2.95742)
(-0.210626 0.612519 2.85097)
(-0.26731 0.276144 1.62449)
(0.0549284 0.0722338 -0.0446601)
(0.13633 0.518919 1.76719)
(0.461127 0.457575 2.26035)
(0.111734 0.351723 4.01729)
(-0.244299 0.409885 2.0378)
(-0.288168 0.284928 0.410349)
(0.0567952 -0.965774 1.87695)
(0.58004 -0.359822 1.93063)
(0.277022 -0.026842 2.47485)
(-0.217188 0.584732 2.73162)
(0.0146361 0.0683395 -0.0674757)
(0.106697 -0.314084 0.644006)
(0.4887 -0.387637 1.3288)
(0.356047 -0.0214336 1.0653)
(0.180314 -0.0705136 1.10766)
(0.0345017 0.133184 0.65173)
(-0.287221 0.0411337 5.41995)
(-0.341038 0.497822 2.39557)
(-0.420245 -0.350469 1.54347)
(-0.03098 0.0596024 1.16934)
(0.677141 0.339353 2.68621)
(-0.0240742 0.672994 2.74299)
(-0.525638 0.573658 1.83711)
(-0.251622 0.766429 1.2911)
(-0.00741293 -0.00918552 -0.25823)
(0.150595 0.40801 1.35233)
(0.625649 0.445625 1.98285)
(0.361373 0.551488 3.79523)
(-0.723917 1.01464 2.22285)
(-0.689916 0.93303 0.277966)
(-0.388802 -0.646673 2.22159)
(0.962447 -0.0737021 1.83301)
(0.571728 -0.245674 3.012)
(-0.286575 -0.0426673 3.54616)
(-0.00175821 0.197959 0.150878)
(0.134754 -0.0461011 0.08166)
(0.410872 -0.218143 0.996718)
(0.131821 -0.0444965 1.03709)
(0.0465604 0.0528329 1.28406)
(-0.0181953 -0.0362546 0.227935)
(-0.175034 0.150645 5.73993)
(0.0190722 0.515557 2.22167)
(-0.0155003 -0.143525 1.5059)
(-0.00139823 -0.156419 1.50467)
(0.433271 0.474997 2.49633)
(0.644993 1.40425 3.87477)
(-0.0250641 0.331294 1.96818)
(-0.0754147 -0.208719 0.500486)
(-0.0115392 -0.0307104 -0.159687)
(-0.109694 0.42015 1.2471)
(0.543972 0.363592 2.04118)
(0.704193 1.0179 4.32507)
(-0.282556 0.763169 2.55777)
(-0.0774373 0.0736964 0.350909)
(-0.861632 -0.00614719 2.58678)
(0.270989 0.123024 0.894915)
(0.682043 0.135543 3.32775)
(-0.637912 -0.508162 4.82888)
(0.0114882 -0.0239321 0.179251)
(0.08621 -0.00110237 0.0580539)
(0.0495264 -0.081519 0.77642)
(-0.179363 0.270022 0.608745)
(-0.0452086 0.0492705 0.582967)
(-0.0965504 0.0429715 0.400385)
(-0.00251559 -0.107311 5.87062)
(0.621347 0.54099 2.47426)
(0.503469 0.116587 1.04977)
(-0.19223 -0.143968 1.67679)
(0.0997847 0.29733 0.864103)
(0.860457 1.24687 3.53827)
(0.731518 0.0396365 1.44039)
(0.308552 -0.0575702 0.700318)
(-0.00880518 0.00500772 -0.0023566)
(-0.0361201 -0.0552938 0.0504762)
(-0.0503525 0.124227 1.00452)
(0.466005 0.575796 2.01916)
(0.462067 1.0752 5.15434)
(0.919306 0.335582 2.80677)
(0.119314 -0.0655739 0.202629)
(0.00629829 -4.62594e-05 0.00142152)
(-0.19992 0.341039 2.61234)
(0.136489 0.198066 1.19205)
(0.0861032 0.756865 5.21497)
(-0.174032 -1.21121 6.19244)
(0.087906 -0.11025 0.126716)
(0.0969891 0.0490128 0.149809)
(-0.671751 0.265776 1.15836)
(-0.0234618 0.162221 0.287226)
(0.0751855 -0.0436388 0.481116)
(-0.204177 0.0989047 0.968444)
(0.395273 -0.18753 5.94872)
(0.678315 0.378456 2.27777)
(0.531658 0.0971343 1.11544)
(-0.246405 0.505267 1.28828)
(0.135769 0.917842 2.32828)
(0.211933 0.171474 2.21256)
(0.735683 -0.0325093 2.25286)
(1.07229 0.0414342 1.30505)
(-0.0968569 -0.119967 -0.0599324)
(-0.0185621 -0.0463696 0.203969)
(-0.00771306 -0.428147 0.873324)
(-0.124295 0.325993 3.01028)
(0.236755 0.363128 3.70299)
(0.974698 -0.386325 3.50531)
(1.14261 -0.187889 1.22826)
(0.237584 -0.234071 0.0349891)
(0.114535 0.244259 0.745438)
(-1.21239 -0.087189 2.05406)
(0.0525372 0.441064 2.90498)
(0.758749 -1.09461 6.50541)
(0.782876 -0.388857 0.814016)
(-0.278976 -0.0565039 -0.0103074)
(-0.385457 0.226236 0.919557)
(-0.279148 0.432977 0.774263)
(0.503817 0.0190977 0.973545)
(0.133566 0.0251532 0.55864)
(-0.0468537 0.0390096 0.906177)
(0.451339 0.480818 3.98413)
(0.257965 0.320328 3.26745)
(0.0789863 -0.0209376 0.923821)
(0.0628841 0.103983 1.98753)
(0.643588 0.586881 1.69946)
(0.111137 0.38895 3.0629)
(0.0867884 -0.0437973 1.91538)
(0.0630617 -0.0792457 1.43067)
(-0.0807041 -0.228175 0.396628)
(0.0153306 -0.0630431 -0.310726)
(0.00555017 0.0958171 0.626789)
(0.150217 0.262869 2.6831)
(0.265381 0.219203 4.3729)
(0.608801 -0.416988 3.56725)
(0.482912 -0.564885 1.57542)
(-0.246361 -0.346592 0.219929)
(-0.148352 -0.349774 1.07138)
(-0.903746 -0.0982941 1.86221)
(0.0565222 0.176185 3.27807)
(0.867409 -0.632058 5.27415)
(-0.133872 0.0788037 0.954739)
(-0.377674 -0.124974 0.0356574)
(0.139476 -0.427694 0.900164)
(0.0371738 0.0377331 0.541937)
(0.357975 -0.212231 1.40092)
(-0.0278817 0.0147206 0.238429)
(0.292553 -0.475172 0.503647)
(0.256624 0.246099 3.50113)
(0.155045 0.184274 2.81803)
(0.131796 -0.165669 1.04786)
(-0.0498519 0.00183188 1.571)
(0.647072 0.192194 1.32543)
(0.0619296 0.369436 2.55326)
(-0.126568 -0.397643 2.02562)
(-0.26248 -0.195671 1.85679)
(0.187596 0.239129 0.512859)
(0.0254326 -0.0795529 -0.259982)
(0.166725 -0.2472 0.663235)
(0.313812 0.146099 2.56645)
(0.24633 0.228735 4.06052)
(0.385936 -0.452865 3.48415)
(-0.277796 -0.632737 1.53153)
(-0.23226 0.0346235 0.0187118)
(-0.177993 -0.163488 1.06725)
(-0.579154 -0.0132531 2.03397)
(0.0783138 0.076122 2.96013)
(0.616233 -0.546378 5.12952)
(-0.37342 0.188423 1.15326)
(0.39299 0.078895 0.729478)
(0.507511 -0.498095 0.20177)
(-0.0271235 -0.0338669 1.31708)
(-0.164294 0.0121421 0.277835)
(0.300131 -0.497162 0.997575)
(0.292721 0.0805289 3.39464)
(0.220595 0.023519 2.92107)
(0.0629977 -0.195072 1.12412)
(0.121341 -0.313406 0.97158)
(0.545071 0.0367885 1.44259)
(0.0259188 0.277989 2.55763)
(-0.0578811 -0.476796 2.29328)
(-0.356108 -0.01563 2.21369)
(-0.0043599 -0.243664 -0.0918893)
(0.139707 -0.341159 0.6561)
(0.325671 0.0678259 2.62893)
(0.245107 0.112283 3.90957)
(0.378005 -0.472703 3.51039)
(-0.533461 -0.188055 1.2978)
(0.186955 0.111478 0.684123)
(-0.445891 -0.00627306 2.11982)
(0.0694639 0.0870375 2.71939)
(0.437083 -0.434195 4.7945)
(-0.0296839 0.0271923 1.13604)
(0.207362 0.172893 0.818661)
(-0.217147 -0.281645 0.23867)
(-0.529212 0.301507 1.21101)
(-0.177165 -0.0369706 0.480026)
(0.362845 -0.437724 1.34835)
(0.307984 -0.0207598 3.25379)
(0.190969 -0.0771088 2.80205)
(0.108153 -0.0717486 1.23646)
(0.173308 -0.41462 0.501515)
(0.405421 0.0100493 1.52014)
(0.000429144 0.227811 2.68677)
(0.051235 -0.47641 2.56134)
(-0.135916 0.184362 2.4061)
(-0.0237402 -0.322969 0.0537927)
(0.163105 -0.337458 0.57855)
(0.330416 0.0122767 2.6137)
(0.255339 0.05422 3.94573)
(0.338255 -0.537141 3.65019)
(-0.043359 -0.237126 1.24743)
(0.0569333 -0.0580128 0.402549)
(-0.442827 -0.0285668 2.31443)
(-0.0412988 0.0791522 2.66266)
(0.376638 -0.402997 4.62245)
(-0.0882791 -0.0562573 0.774353)
(0.13185 0.180379 1.11693)
(-0.499909 -0.0445191 0.645189)
(-0.603393 0.277103 0.926355)
(-0.123322 -0.055397 0.838576)
(0.264991 -0.310332 1.59534)
(0.134276 -0.0882742 2.9644)
(-0.136655 -0.0637182 2.59542)
(0.142197 -0.0142845 1.3005)
(0.202599 -0.429094 0.336619)
(0.294982 0.00130807 1.54098)
(-0.0456768 0.157252 2.83008)
(0.0707999 -0.495391 2.67493)
(0.0140286 0.36433 2.55591)
(-0.0191852 -0.306943 0.0112634)
(0.0928333 -0.468201 0.427371)
(0.328685 -0.00232297 2.52766)
(0.273119 -0.00901138 4.01542)
(0.304587 -0.548973 3.6348)
(-0.00485331 -0.112463 1.25512)
(-0.0378052 -0.226939 0.214628)
(-0.370612 -0.00835161 2.45244)
(-0.155924 0.0789126 2.60197)
(0.334048 -0.389436 4.38009)
(-0.0826565 0.187435 0.496693)
(0.18684 0.178435 1.31355)
(-0.145106 -0.0253622 0.902735)
(-0.00552434 -0.0898841 0.710051)
(0.0152173 -0.0723471 1.27822)
(0.128272 -0.193793 1.85747)
(0.0217672 -0.0986829 2.90594)
(-0.265447 -0.118254 2.20191)
(0.0886819 -0.0550387 1.38051)
(0.254902 -0.369585 0.299824)
(0.197513 -0.0110738 1.66561)
(-0.0868821 0.151427 2.91018)
(0.0664769 -0.536663 2.71465)
(0.0844539 0.413239 2.68415)
(-0.0155274 -0.267311 -0.0923)
(0.0815472 -0.375573 0.26806)
(0.281198 0.0493387 2.33687)
(0.301608 -0.0467319 4.05908)
(0.254949 -0.548967 3.56049)
(-0.00531856 -0.054543 1.36713)
(-0.133409 -0.286645 0.0717344)
(-0.226334 0.0497386 2.44812)
(-0.172114 0.0820484 2.54383)
(0.296168 -0.357112 4.09802)
(-0.121412 0.326764 0.520358)
(0.18199 0.187579 1.29664)
(0.097758 0.0259778 0.939899)
(0.249887 -0.280118 0.638653)
(0.211789 -0.0322915 1.60571)
(0.0433405 -0.113576 2.08926)
(-0.145177 -0.144177 2.85524)
(0.135152 -0.0177099 1.60036)
(-0.0856892 -0.194786 1.52843)
(0.202672 -0.297343 0.383476)
(0.141885 -0.127469 1.81469)
(-0.11942 0.139546 3.05086)
(0.0455884 -0.566438 2.69912)
(0.133669 0.386152 2.79288)
(-0.0196363 -0.230819 -0.169119)
(0.0154971 -0.2103 0.200614)
(0.2146 0.0299118 2.1556)
(0.296781 -0.114182 4.06566)
(0.234253 -0.420825 3.46034)
(0.0661895 0.0239064 1.49756)
(-0.209058 -0.304445 0.0101872)
(-0.146678 0.053623 2.40163)
(-0.0862677 0.0748396 2.44495)
(0.263232 -0.258499 3.91061)
(-0.131748 0.370185 0.560565)
(0.0447578 0.140638 1.20195)
(0.184136 0.0302113 0.936379)
(0.244131 -0.31845 0.591577)
(0.231368 -0.0239717 1.76876)
(-0.00351339 -0.0532548 2.34988)
(-0.284862 -0.11954 2.90842)
(0.178195 0.122853 1.30226)
(-0.217858 -0.281728 1.65235)
(-0.0516826 -0.127697 0.660243)
(0.10329 -0.255113 1.87702)
(-0.154425 0.0876906 3.19689)
(-0.0388657 -0.65403 2.60324)
(0.160804 0.333111 2.88717)
(-0.0235962 -0.186667 -0.196284)
(-0.0446889 -0.0196257 0.211941)
(0.141716 -0.0921674 1.99175)
(0.233472 -0.149107 4.06891)
(0.0799098 -0.266817 3.20448)
(0.0871062 0.138514 1.61946)
(-0.237674 -0.286026 0.00624749)
(-0.113864 -0.0263813 2.32474)
(-0.039555 0.0622306 2.35085)
(0.223571 -0.137576 3.892)
(-0.0446414 0.269193 0.646048)
(-0.0486586 0.147519 1.15032)
(0.19705 0.0471515 0.932498)
(0.00421982 -0.18562 0.591967)
(0.216402 -0.0303707 1.89838)
(-0.134349 0.0763399 2.53291)
(-0.358237 -0.0510403 2.69847)
(0.118075 0.148814 1.32536)
(-0.248681 -0.293418 1.75286)
(-0.26547 0.0732947 0.917982)
(0.0594247 -0.288044 1.91965)
(-0.174402 -0.00966201 3.34001)
(-0.174986 -0.7901 2.41334)
(0.17589 0.307912 2.99317)
(-0.0201009 -0.126879 -0.189767)
(-0.0537042 0.115561 0.252517)
(0.0784001 -0.221454 1.88704)
(0.0836595 -0.199336 4.1071)
(-0.133878 -0.47317 2.813)
(0.0574885 0.0723502 1.80293)
(-0.208063 -0.234431 0.0390235)
(0.0158899 -0.160034 2.11653)
(-0.162714 0.0712218 2.31397)
(0.0828795 0.0661372 3.75383)
(0.036728 0.09672 0.757535)
(-0.0793432 0.202825 1.12557)
(0.108158 0.0959411 1.05771)
(-0.29936 0.162144 0.699124)
(0.25793 -0.0337682 2.04842)
(-0.236187 0.140627 2.71156)
(-0.173761 0.280766 1.89688)
(0.0212994 0.0664144 1.5391)
(-0.206588 -0.246661 1.85306)
(-0.209313 0.218793 1.06406)
(0.0327859 -0.253659 1.99383)
(-0.1636 -0.144518 3.5018)
(-0.207316 -0.79026 2.32596)
(0.194874 0.298337 3.10651)
(-0.0190038 -0.072091 -0.139057)
(-0.0411451 0.172237 0.313647)
(0.0285693 -0.319019 1.89118)
(-0.05393 -0.292363 4.11135)
(-0.204011 -0.668743 2.2692)
(0.0895486 -0.0411847 1.98061)
(-0.147038 -0.168376 0.0910596)
(0.165918 -0.219178 1.88443)
(-0.526246 0.110764 2.19681)
(-0.0204729 0.336147 2.87488)
(0.066721 -0.0543095 0.928582)
(-0.100447 0.239616 1.10099)
(-0.0694671 0.107431 1.33111)
(-0.483301 0.33975 0.947796)
(0.278952 -0.0263902 2.18296)
(-0.228665 0.138489 2.8815)
(-0.0751133 0.073391 1.33552)
(0.0103668 -0.0373843 1.80942)
(-0.10407 -0.123331 1.9504)
(0.0242307 0.159015 1.03166)
(-0.0268281 -0.0842098 2.11909)
(-0.145274 -0.249207 3.64756)
(-0.186862 -0.697649 2.28646)
(0.195707 0.324795 3.20436)
(-0.0177341 -0.0439475 -0.0593568)
(-0.0624026 0.179392 0.386381)
(0.00448774 -0.347115 1.95731)
(-0.131408 -0.354909 4.07128)
(-0.131927 -0.48699 1.79432)
(0.156923 -0.0627143 2.17973)
(-0.0993509 -0.110534 0.15836)
(0.21426 -0.185497 1.71102)
(-0.603886 0.10973 2.13885)
(-0.0349591 0.152073 1.70883)
(0.023425 -0.0765235 0.992477)
(-0.134732 0.218948 1.08512)
(-0.106681 0.118513 1.64764)
(-0.354263 0.136267 1.00277)
(0.241223 -0.0183109 2.2873)
(-0.154666 0.103854 3.00709)
(0.0198451 -0.033954 1.07016)
(0.0416977 -0.123974 2.07525)
(0.066764 0.0612627 2.01745)
(0.155953 0.0305692 0.964437)
(-0.181594 0.125247 2.18866)
(-0.109697 -0.273601 3.74293)
(-0.14984 -0.412082 2.22703)
(0.185189 0.380825 3.26963)
(-0.0188524 -0.0374618 0.0392435)
(-0.100346 0.166853 0.462501)
(-0.0126521 -0.28136 2.03551)
(-0.16499 -0.40823 4.00544)
(-0.0481081 -0.176922 1.46188)
(0.173274 0.109401 2.44745)
(-0.0719154 -0.0630721 0.241361)
(0.192925 -0.128267 1.58367)
(-0.555475 0.098521 2.11137)
(-0.199069 0.0599474 0.986752)
(-0.0306686 0.0736769 0.926574)
(-0.187919 0.119109 1.05995)
(-0.0595679 0.0958388 1.87492)
(-0.07616 0.0264462 0.774988)
(0.193222 -0.0128492 2.35627)
(-0.147003 0.107331 3.06143)
(0.0284964 -0.00986946 0.980407)
(0.0563723 -0.16111 2.28252)
(0.21551 0.184684 1.99864)
(0.184428 -0.0243742 0.957159)
(-0.351375 0.198448 2.09706)
(-0.0492672 -0.309611 3.79436)
(-0.107152 -0.103159 2.15456)
(0.184254 0.473568 3.26974)
(-0.0206859 -0.0426042 0.144231)
(-0.120274 0.149167 0.551166)
(-0.0460105 -0.0488507 2.12486)
(-0.133765 -0.460417 3.92177)
(-0.0211925 0.0380181 1.27759)
(0.135936 0.37348 2.72747)
(-0.0614185 -0.0271032 0.338052)
(0.16007 -0.0928908 1.52222)
(-0.381727 0.0990269 2.09042)
(-0.269349 0.0830669 0.693127)
(-0.100503 0.292782 0.903549)
(-0.204967 -0.0142161 0.962479)
(-0.029947 0.0349515 1.96982)
(0.0622636 0.0169043 0.65197)
(0.149616 -0.00967258 2.39434)
(-0.191645 0.158733 3.08185)
(-0.0506747 0.0396729 0.997696)
(-0.00722973 -0.139622 2.38002)
(0.274751 0.216885 1.93206)
(0.209893 -0.0329705 0.978843)
(-0.447686 0.212124 1.89281)
(0.043366 -0.401526 3.77479)
(-0.0272464 0.0702956 2.11081)
(0.177936 0.501484 3.1823)
(-0.0227734 -0.0598759 0.254954)
(-0.12748 0.112203 0.6428)
(-0.0646052 0.166786 2.20016)
(-0.0750504 -0.444244 3.76103)
(-0.0495199 0.137833 1.21187)
(0.074794 0.580884 2.90742)
(-0.0628302 -0.00488347 0.439923)
(0.120299 -0.0651469 1.53259)
(-0.219946 0.107237 2.1083)
(-0.315508 0.119313 0.650442)
(-0.196004 0.508474 0.981596)
(-0.216811 -0.0994789 0.80912)
(0.0212285 -0.089221 2.01312)
(0.0775931 0.0100992 0.64507)
(0.140147 -0.00711584 2.44564)
(-0.260937 0.238057 3.10694)
(-0.178016 0.0460154 1.08321)
(-0.135002 -0.103422 2.37018)
(0.297277 0.163994 1.8875)
(0.274149 -0.0140108 0.940523)
(-0.440604 0.216049 1.69347)
(0.196514 -0.416249 3.64449)
(0.0755229 0.155987 2.10422)
(0.145073 0.487657 3.03558)
(-0.0249095 -0.0844732 0.372794)
(-0.147905 0.0514147 0.725407)
(-0.0991592 0.265787 2.28926)
(-0.0890045 -0.385112 3.52379)
(-0.0979769 0.169214 1.21353)
(-0.00408658 0.67984 2.97043)
(-0.0778642 0.00406169 0.539028)
(0.0819245 -0.00749832 1.58941)
(-0.12848 0.0618766 2.18484)
(-0.363723 0.177219 0.730321)
(-0.28188 0.641659 1.08956)
(-0.237929 -0.129601 0.662267)
(0.0907449 -0.185451 1.89747)
(0.0763232 -0.00272587 0.727805)
(0.0797875 0.0231632 2.44282)
(-0.297417 0.294811 3.13538)
(-0.255481 -0.0292096 1.20399)
(-0.23227 -0.195232 2.25102)
(0.303361 0.0519811 1.89596)
(0.291758 -0.0229141 0.881394)
(-0.423405 0.182517 1.55292)
(0.253876 -0.208698 3.53236)
(0.169654 0.206922 2.10147)
(0.15067 0.464224 2.83017)
(-0.0303671 -0.120822 0.504604)
(-0.193014 -0.0235784 0.809706)
(-0.1663 0.308306 2.33784)
(-0.172895 -0.279822 3.39762)
(-0.12501 0.148933 1.23724)
(-0.0920657 0.672217 2.94322)
(-0.105264 0.00314116 0.64346)
(0.0365695 0.0944899 1.65567)
(-0.0715369 -0.00723511 2.31673)
(-0.37949 0.202429 0.86859)
(-0.327737 0.67451 1.1838)
(-0.234028 -0.110716 0.58927)
(0.133986 -0.166764 1.682)
(0.0656767 0.00441767 0.823694)
(-0.120413 0.0243592 2.32846)
(-0.285414 0.301382 3.21763)
(-0.252448 -0.154906 1.35744)
(-0.27709 -0.459487 1.96769)
(0.314963 -0.0548822 1.94335)
(0.223403 -0.0636583 0.896766)
(-0.404579 0.0869469 1.44236)
(0.0701991 0.160999 3.22945)
(0.219868 0.200789 2.07629)
(0.208341 0.445588 2.71784)
(-0.0403115 -0.16109 0.651035)
(-0.243564 -0.107527 0.904915)
(-0.260798 0.326826 2.3002)
(-0.261423 0.00447259 3.39696)
(-0.0857442 0.0419454 1.28343)
(-0.239655 0.557857 2.79042)
(-0.145225 -0.0091141 0.760772)
(-0.0577585 0.196478 1.70779)
(-0.0424841 0.0372041 2.4668)
(-0.301975 0.183671 1.03229)
(-0.324806 0.591569 1.23298)
(-0.2423 -0.0868866 0.588274)
(0.0848487 -0.0839998 1.53195)
(0.0954279 0.0114433 0.893468)
(-0.25257 -0.0228773 2.40061)
(-0.214784 0.241049 3.38981)
(-0.161535 -0.280225 1.56218)
(-0.267833 -0.577165 1.74519)
(0.333972 -0.0513968 2.03485)
(0.160122 -0.111908 0.985081)
(-0.350752 -0.0616591 1.36795)
(-0.153238 0.0691361 2.70233)
(0.205493 0.103802 2.04239)
(0.238844 0.381592 2.77085)
(-0.0466288 -0.184142 0.806608)
(-0.275148 -0.188342 1.021)
(-0.353017 0.239449 2.17579)
(-0.28113 0.353399 3.30805)
(-0.00400962 -0.102027 1.3375)
(-0.363464 0.41099 2.63549)
(-0.182877 -0.037591 0.892344)
(-0.19553 0.232326 1.74051)
(-0.0383244 0.249124 2.54828)
(-0.121514 0.124535 1.20434)
(-0.256906 0.421866 1.25616)
(-0.276755 -0.0797192 0.65921)
(-0.00724374 0.0902034 1.54085)
(0.176398 -0.00428166 0.937568)
(-0.274403 -0.0499412 2.58851)
(-0.0495244 0.129746 3.58853)
(0.0141721 -0.371915 1.83292)
(-0.191697 -0.516612 1.67119)
(0.302976 -0.0152143 2.12365)
(0.135809 -0.15835 1.12371)
(-0.290333 -0.178001 1.3738)
(-0.167994 -0.299197 2.13789)
(0.130104 -0.112826 2.01298)
(0.249845 0.333436 2.98454)
(-0.045418 -0.181287 0.974903)
(-0.278112 -0.253972 1.16203)
(-0.438449 -0.0390478 1.93421)
(-0.202762 0.433068 3.10702)
(0.0926891 -0.225171 1.38371)
(-0.330773 0.227629 2.44739)
(-0.197278 -0.0699837 1.02008)
(-0.325187 0.139925 1.71834)
(-0.045382 0.387715 2.49085)
(0.059333 0.0372776 1.35311)
(-0.147379 0.239407 1.30879)
(-0.291201 -0.086833 0.79787)
(-0.0849174 0.205423 1.58889)
(0.266172 -0.0445043 0.991691)
(-0.23103 -0.0592229 2.80722)
(0.0528222 0.0488916 3.6966)
(0.187639 -0.380262 2.1855)
(-0.102499 -0.461148 1.63973)
(0.245719 -0.0405808 2.20561)
(0.130599 -0.201583 1.30244)
(-0.252437 -0.208118 1.42526)
(-0.0782051 -0.532534 1.75195)
(0.0693111 -0.269601 2.04609)
(0.227885 0.321142 3.21884)
(-0.0383162 -0.158598 1.13566)
(-0.264538 -0.291524 1.3112)
(-0.463468 -0.250298 1.72348)
(-0.05374 0.126036 2.65012)
(0.202997 -0.321869 1.43653)
(-0.209997 0.081122 2.11814)
(-0.176665 -0.100004 1.11776)
(-0.400708 -0.0014935 1.63654)
(-0.047076 0.379421 2.35764)
(0.192009 -0.0439172 1.45302)
(-0.0838668 0.0941298 1.39513)
(-0.255413 -0.0842861 0.954426)
(-0.159106 0.200175 1.52532)
(0.319129 -0.0833812 1.05623)
(-0.160574 -0.0549775 3.03799)
(0.0883232 -0.0358878 3.70038)
(0.313519 -0.350684 2.57514)
(-0.00379724 -0.405508 1.68406)
(0.199255 -0.100982 2.32786)
(0.123112 -0.241553 1.4554)
(-0.228503 -0.169539 1.49127)
(-0.0334 -0.562534 1.53476)
(0.0255861 -0.346671 2.13918)
(0.1612 0.175558 3.42365)
(-0.0315735 -0.125196 1.26807)
(-0.250773 -0.292384 1.43422)
(-0.418335 -0.289731 1.5804)
(0.041902 -0.253732 2.05375)
(0.245643 -0.371483 1.48651)
(-0.110426 -0.00581482 1.93579)
(-0.127039 -0.123801 1.16805)
(-0.379143 -0.060904 1.54062)
(-0.00368622 0.215872 2.03296)
(0.279945 -0.109444 1.48408)
(-0.00722862 -0.0858438 1.41954)
(-0.164076 -0.0648738 1.07766)
(-0.184747 0.128503 1.34746)
(0.305602 -0.0968918 1.11217)
(-0.0765825 -0.0440452 3.28773)
(0.0500656 -0.0118549 3.6193)
(0.432723 -0.323751 2.89215)
(0.143863 -0.323158 1.79728)
(0.167985 -0.100421 2.50603)
(0.120035 -0.233571 1.57007)
(-0.195089 -0.103749 1.55165)
(-0.026353 -0.468455 1.44104)
(0.00773899 -0.31068 2.24923)
(0.0570702 -0.0976501 3.63911)
(-0.0334593 -0.0899598 1.3722)
(-0.242818 -0.2444 1.52216)
(-0.32821 -0.231729 1.48301)
(0.0196745 -0.333614 1.65275)
(0.214719 -0.365862 1.52553)
(-0.0535304 -0.0758236 1.93206)
(-0.0754205 -0.123815 1.17406)
(-0.252247 -0.039933 1.46533)
(0.0582318 0.0519991 1.65163)
(0.327839 -0.165629 1.43242)
(0.0904066 -0.190934 1.42366)
(-0.0883831 -0.03323 1.14864)
(-0.11894 0.063293 1.20345)
(0.240921 -0.0918631 1.12551)
(0.00528303 -0.0260516 3.53249)
(0.0554012 -0.0978214 3.41181)
(0.482436 -0.290809 3.0714)
(0.284936 -0.24754 1.92399)
(0.161093 -0.0235595 2.71049)
(0.103036 -0.201723 1.64074)
(-0.168504 -0.0324208 1.59654)
(-0.0262727 -0.374491 1.39762)
(0.052028 -0.134511 2.37539)
(-0.0124176 -0.264502 3.84337)
(-0.039012 -0.0601747 1.45074)
(-0.221291 -0.168977 1.57689)
(-0.242579 -0.151825 1.41202)
(-0.0241937 -0.298722 1.37621)
(0.107187 -0.290774 1.54631)
(-0.0127953 -0.162769 2.00175)
(-0.0289837 -0.0914251 1.1526)
(-0.0767626 -0.0326425 1.39484)
(0.0681774 -0.00512093 1.38691)
(0.28213 -0.11111 1.36807)
(0.134612 -0.21171 1.44658)
(-0.0560123 -0.00945272 1.17425)
(-0.0523124 0.0210422 1.11512)
(0.164884 -0.0665248 1.09879)
(0.0657812 -0.0122163 3.76482)
(0.0613292 -0.167176 3.30046)
(0.447093 -0.264177 3.07824)
(0.312511 -0.204485 2.03262)
(0.127233 0.0271552 2.86603)
(0.0934168 -0.159618 1.68042)
(-0.153407 0.0229922 1.60693)
(-0.0247339 -0.313711 1.36986)
(0.142461 0.0401437 2.46073)
(-0.0340288 -0.256307 4.01625)
(-0.0371283 -0.0368995 1.49532)
(-0.186887 -0.110524 1.60801)
(-0.154141 -0.107084 1.38884)
(-0.0507712 -0.277293 1.19209)
(0.0504257 -0.192223 1.49863)
(0.0577884 -0.212686 2.05675)
(0.00931141 -0.0467559 1.14631)
(0.044773 -0.0370902 1.32523)
(0.0374747 -0.0131313 1.21957)
(0.16952 0.0038628 1.26786)
(0.143026 -0.192647 1.4759)
(-0.0489208 -0.000752709 1.16818)
(-0.0327201 0.00130869 1.06502)
(0.065405 -0.011017 1.10588)
(0.107581 -0.000426605 3.99748)
(0.0601268 -0.15493 3.21828)
(0.326543 -0.231828 2.94481)
(0.236807 -0.173267 2.14963)
(0.0835821 -0.0856577 2.92397)
(0.0710186 -0.161729 1.74352)
(-0.137548 0.0363011 1.59277)
(-0.0222886 -0.29008 1.34232)
(0.22377 0.116269 2.50882)
(-0.0470721 -0.181136 4.18229)
(-0.0293932 -0.0209503 1.51366)
(-0.144938 -0.0612333 1.62932)
(-0.0363316 -0.12451 1.38933)
(-0.0536332 -0.284562 1.05268)
(0.0611504 -0.160928 1.41151)
(0.121124 -0.20562 2.13804)
(0.0303167 -0.017454 1.15391)
(0.0705565 -0.0218937 1.25917)
(-0.00578825 -0.0144292 1.10904)
(0.12156 -0.0010067 1.16517)
(0.139738 -0.142494 1.55215)
(-0.046427 0.00546571 1.14956)
(-0.0402357 -0.00853012 1.04081)
(-0.00849486 0.0192146 1.13083)
(0.13095 0.00873319 4.23146)
(0.0631972 -0.133727 3.14303)
(0.257262 -0.207439 2.82059)
(0.1828 -0.136595 2.23852)
(0.0612701 -0.185425 2.97541)
(0.000473131 -0.158004 1.80243)
(-0.102621 -0.00755088 1.55381)
(-0.0194177 -0.295665 1.32045)
(0.248649 0.12543 2.53727)
(-0.00467094 -0.0332437 4.37942)
(-0.0185287 0.0153431 1.53919)
(-0.113215 -0.0200963 1.63801)
(0.0450773 -0.174757 1.37111)
(-0.0454562 -0.307364 0.950206)
(0.045065 -0.192668 1.31854)
(0.176472 -0.146461 2.24971)
(0.0330369 -0.0150884 1.16248)
(0.0267702 -0.00710808 1.19618)
(-0.051563 -0.027873 1.01391)
(0.0637401 -0.0817501 1.07189)
(0.117956 -0.0660127 1.67952)
(-0.0445739 0.000988334 1.14749)
(-0.0494714 -0.0178222 1.0249)
(-0.0352641 0.0210211 1.13086)
(0.153512 0.0154307 4.4532)
(0.0660504 -0.120479 3.09595)
(0.245828 -0.19946 2.76632)
(0.181633 -0.0999153 2.2932)
(0.0534722 -0.182973 3.02765)
(-0.119847 -0.119465 1.81333)
(-0.0522717 -0.121493 1.48372)
(-0.0218165 -0.311154 1.31954)
(0.225924 0.108966 2.57076)
(0.0503355 0.118497 4.55995)
(-0.0121104 0.102245 1.60185)
(-0.0902419 -0.0177722 1.66165)
(0.0547519 -0.229648 1.33809)
(-0.0441807 -0.334345 0.877576)
(-0.0330552 -0.246952 1.22493)
(0.201086 -0.0492969 2.43678)
(0.0180707 -0.0414037 1.16597)
(-0.0264333 -0.0325482 1.14249)
(-0.0946205 -0.0638724 0.911705)
(-0.0117418 -0.168948 0.978854)
(0.0278533 -0.00896401 1.71912)
(-0.0417557 -0.0146541 1.15626)
(-0.0560924 -0.0305276 1.0018)
(-0.0471829 0.00146738 1.07243)
(0.166071 0.0211647 4.65281)
(0.0860988 -0.0667968 3.0295)
(0.289679 -0.189256 2.76249)
(0.220863 -0.0784707 2.32019)
(0.0675843 -0.114542 3.09373)
(-0.195456 -0.0852196 1.82355)
(-0.0391986 -0.207338 1.4487)
(-0.0463101 -0.345344 1.35612)
(0.171145 0.0623528 2.63871)
(0.0858096 0.251426 4.75154)
(-0.00587946 0.17328 1.70461)
(-0.0506952 -0.0512552 1.68321)
(0.0434816 -0.276279 1.29336)
(-0.0442133 -0.363751 0.828441)
(-0.146137 -0.301418 1.14176)
(0.176382 0.122404 2.73295)
(-0.000581454 -0.0681838 1.15439)
(-0.0582735 -0.0741515 1.09934)
(-0.111776 -0.108455 0.810266)
(-0.109022 -0.210983 0.851216)
(-0.0811493 0.144582 1.5703)
(-0.0419939 -0.0357049 1.15614)
(-0.0668159 -0.0435635 0.963854)
(-0.059714 -0.00116459 0.888174)
(0.185405 0.0266892 4.83119)
(0.126597 -0.0214462 2.73671)
(0.325534 -0.179702 2.75642)
(0.302031 -0.0677006 2.34161)
(0.123689 -0.0106817 3.19087)
(-0.232002 -0.0634462 1.82964)
(-0.0461241 -0.274513 1.45264)
(-0.0780649 -0.406206 1.43353)
(0.114538 0.00961918 2.69834)
(0.0975389 0.354447 4.89991)
(-0.000680848 0.205879 1.79218)
(0.00461196 -0.0869402 1.68851)
(0.062724 -0.309539 1.26166)
(-0.0321815 -0.385345 0.80156)
(-0.251243 -0.338703 1.08121)
(0.120385 0.20042 2.98775)
(-0.00741713 -0.0718403 1.13301)
(-0.0512151 -0.119793 1.05538)
(-0.100569 -0.147803 0.723889)
(-0.171642 -0.167908 0.727558)
(-0.128754 0.224984 1.46345)
(-0.0456582 -0.0561817 1.1426)
(-0.0671972 -0.0591675 0.904866)
(-0.0615675 0.0135062 0.686746)
(0.212171 0.0323331 4.98586)
(0.092334 -0.106393 2.49943)
(0.305999 -0.175984 2.73649)
(0.382727 -0.0564346 2.3421)
(0.22109 0.0878224 3.29718)
(-0.249487 -0.060931 1.83702)
(-0.0638057 -0.329785 1.48314)
(-0.0757263 -0.458409 1.52855)
(-0.0206964 -0.0459591 2.80973)
(0.0885209 0.440027 5.04834)
(-0.00102488 0.197487 1.84935)
(0.0482691 -0.0908464 1.64818)
(0.102365 -0.307422 1.24429)
(0.00648804 -0.383148 0.798467)
(-0.314229 -0.354589 1.03158)
(0.0577005 0.249181 3.175)
(0.0059036 -0.0421096 1.10375)
(-0.0185816 -0.18954 1.01019)
(-0.0686477 -0.179729 0.653668)
(-0.210191 -0.112187 0.647574)
(-0.200642 0.268184 1.28654)
(-0.0546504 -0.0775135 1.10659)
(-0.041688 -0.0739879 0.807449)
(-0.0847967 0.0385899 0.604702)
(0.238035 0.0367003 5.12081)
(0.0563094 -0.0655685 2.39808)
(0.219458 -0.172648 2.68216)
(0.416874 -0.0653954 2.30687)
(0.355012 0.193565 3.3736)
(-0.263319 -0.0421421 1.8869)
(-0.0849526 -0.393801 1.48809)
(-0.0699221 -0.49288 1.63912)
(-0.241299 -0.0938256 3.01798)
(0.0532361 0.446479 5.15337)
(0.00249266 0.161959 1.85915)
(0.101948 -0.0833907 1.54084)
(0.154108 -0.292497 1.21652)
(0.0842092 -0.33189 0.821806)
(-0.32382 -0.343273 1.01348)
(-0.0386036 0.29004 3.23645)
(0.0218248 -0.0130719 1.05027)
(0.00654123 -0.241221 0.950819)
(-0.043098 -0.172919 0.60241)
(-0.189315 -0.105635 0.60888)
(-0.222228 0.328077 1.0357)
(-0.0700293 -0.085522 1.03564)
(-0.0341671 -0.0732211 0.704832)
(-0.103825 0.051652 0.566669)
(0.257452 0.0341142 5.24905)
(0.0315158 -0.0773929 2.34146)
(0.183969 -0.175784 2.64937)
(0.429699 -0.10438 2.28445)
(0.516302 0.2923 3.42924)
(-0.218752 -0.0504351 1.99479)
(-0.0588704 -0.480789 1.44011)
(-0.100457 -0.518184 1.74108)
(-0.398683 -0.153018 3.23904)
(0.00815712 0.39723 5.19507)
(-0.00423741 0.0694768 1.80644)
(0.144251 -0.087838 1.41332)
(0.182178 -0.288149 1.13643)
(0.112195 -0.246883 0.83978)
(-0.271243 -0.306449 1.01263)
(-0.13384 0.284833 2.93542)
(-0.00419608 -0.0540692 1.00842)
(-0.0295918 -0.247561 0.869999)
(-0.0622516 -0.136463 0.560329)
(-0.153363 -0.119985 0.56498)
(-0.184534 0.310634 0.914412)
(-0.0466574 -0.0903507 0.926981)
(-0.0536441 -0.0603512 0.623344)
(-0.117351 0.0554081 0.521756)
(0.27305 0.030076 5.37746)
(0.0176307 -0.138588 2.38885)
(0.184836 -0.175452 2.66223)
(0.451727 -0.156078 2.30809)
(0.664678 0.36741 3.48809)
(-0.112158 -0.115216 2.12538)
(0.0260793 -0.547349 1.42615)
(-0.19977 -0.521643 1.79933)
(-0.417209 -0.180453 3.45833)
(0.00329506 0.423369 5.20669)
(-0.0213259 0.0324934 1.75338)
(0.120433 -0.162997 1.308)
(0.104824 -0.264891 1.02049)
(0.0568068 -0.140487 0.818908)
(-0.191049 -0.21827 0.991996)
(-0.0728076 0.0029392 2.36173)
(-0.0877305 -0.127504 1.01726)
(-0.125455 -0.245162 0.790304)
(-0.105806 -0.106696 0.51003)
(-0.138924 -0.149284 0.501608)
(-0.133685 0.228514 0.795208)
(-0.056639 -0.0946879 0.758863)
(-0.0886454 -0.0411011 0.557805)
(-0.132151 0.0598405 0.461854)
(0.290583 0.0245868 5.5147)
(0.0559762 -0.208146 2.53428)
(0.232868 -0.186371 2.73669)
(0.509357 -0.246802 2.39414)