/*--------------------------------*- C++ -*----------------------------------*\
| =========                 |                                                 |
| \\      /  F ield         | OpenFOAM: The Open Source CFD Toolbox           |
|  \\    /   O peration     | Version:  5.x                                   |
|   \\  /    A nd           | Web:      www.OpenFOAM.org                      |
|    \\/     M anipulation  |                                                 |
\*---------------------------------------------------------------------------*/
FoamFile
{
    version     2.0;
    format      ascii;
    class       volScalarField;
    location    "0.05";
    object      voidfraction;
}
// * * * * * * * * * * * * * * * * * * * * * * * * * * * * * * * * * * * * * //

dimensions      [0 0 0 0 0 0 0];

internalField   nonuniform List<scalar> 
10571
(
0.987755
0.939426
1
1
0.991755
1
1
1
1
0.985607
0.997444
1
1
1
1
0.997726
0.993364
1
1
1
0.940066
0.995761
0.998825
0.952548
0.928608
0.801416
1
1
0.977806
1
1
1
1
0.972939
0.935684
1
1
1
0.999996
0.983917
0.98001
1
1
1
0.83713
0.984079
0.992348
0.852407
0.767304
0.769043
1
1
0.964205
1
1
1
1
0.928992
0.762593
1
1
1
1
0.974048
0.963711
0.999976
1
1
0.789048
0.941967
0.964352
0.809836
0.831219
0.770619
0.96134
0.96425
0.91234
0.974163
0.943919
0.967521
0.967781
0.897369
0.809877
0.962223
0.966268
0.979634
0.978705
0.941471
0.923856
0.957662
0.982371
0.976881
0.809635
0.933961
0.938699
0.775675
0.879075
0.851152
0.999326
0.999257
0.977059
0.995105
0.968106
0.967789
0.957075
0.914603
0.869156
0.998243
0.968679
0.964292
0.959636
0.946398
0.976433
0.961251
0.964483
0.973182
0.859665
0.945565
0.950303
0.835579
0.915893
0.856112
0.9917
1
0.987587
0.988412
0.968058
0.978705
0.982614
0.963749
1
0.912469
0.999594
0.978127
0.985459
0.988076
0.984455
1
0.979732
0.974696
0.985768
0.99902
0.906787
0.947844
0.928965
0.872585
0.973397
0.877107
0.999797
1
0.986808
1
0.988848
0.994103
0.990669
0.963201
1
0.955903
1
0.995626
0.99407
0.988654
0.977646
1
0.98785
0.994674
0.994517
0.992007
0.928737
1
0.96368
0.990034
0.851246
1
0.934632
0.99676
0.999661
0.976415
1
0.981842
0.984048
0.985954
0.957989
1
0.997911
0.999966
0.983995
0.990465
0.988837
0.999896
1
0.973593
0.976823
0.985592
0.974065
0.901081
1
0.97913
0.94474
0.956083
0.994943
0.936537
0.948059
0.979819
0.913434
0.956236
0.996596
0.995055
0.995614
0.942946
0.970758
1
0.989073
0.99754
0.98889
0.994614
0.979514
0.975116
0.896601
0.994241
0.993935
0.988923
0.923624
0.966661
0.993718
0.926019
1
0.939399
0.999055
0.996989
0.974801
0.998784
0.995243
0.996511
0.996642
0.932397
1
0.999966
0.997721
1
0.99908
0.95257
0.982197
0.98702
0.98734
0.970185
0.853018
0.952646
0.946004
0.957335
0.99956
0.947637
0.941184
0.921175
0.908208
0.946289
0.975189
0.986929
0.989699
0.905283
0.99989
0.931663
0.986778
0.998206
0.996484
0.889748
0.876262
0.9826
0.988222
0.995523
0.89774
0.974679
0.985476
0.971576
0.996812
0.973176
0.987592
0.999189
0.977563
0.975141
0.989861
0.986545
0.988555
0.86121
0.996481
0.996315
0.984836
0.984144
0.980504
0.762559
0.972699
0.97897
0.975112
0.956013
0.845548
0.945681
0.964038
0.951137
0.987026
0.96556
0.957925
0.965507
0.959865
0.946403
0.964803
0.941393
0.853827
0.744036
0.991863
0.939964
0.944668
0.915415
0.78524
0.693467
0.941251
0.911034
0.853365
0.966217
0.78503
0.954974
0.969502
0.878529
0.975701
0.946576
0.960792
0.982906
0.937692
0.984938
0.750772
0.60944
0.496134
0.606329
0.991534
0.983876
0.643311
0.471452
0.430415
0.687905
0.95427
0.5222
0.420361
0.422447
0.52783
0.695309
0.481174
0.53644
0.560531
0.65135
0.715296
0.527176
0.392569
0.710746
0.436276
0.402661
0.393753
0.453554
0.710602
0.624563
0.404481
0.383128
0.392841
0.45904
0.403495
0.391939
0.38386
0.362211
0.475128
0.430225
0.383307
0.495564
0.558222
0.48324
0.394352
0.406639
0.558614
0.389581
0.550903
0.660881
0.836113
0.971429
0.515983
0.399483
0.634335
0.77607
0.931056
0.931613
0.430407
0.767973
0.898621
0.98157
1
0.873323
0.985627
1
1
1
1
1
1
1
1
1
1
1
1
1
1
1
1
1
1
1
1
1
1
1
1
1
1
1
1
1
1
1
1
1
1
1
1
1
1
1
1
1
1
1
1
1
1
1
1
1
1
1
1
1
1
1
1
1
1
1
1
1
1
1
1
1
1
1
1
1
1
1
1
1
1
1
1
1
1
1
1
1
1
1
1
1
1
1
1
1
1
1
1
1
1
1
1
1
1
1
1
1
1
1
1
1
1
1
1
1
1
1
1
1
1
1
1
1
1
1
1
1
1
1
1
1
1
1
1
1
1
1
1
1
1
1
1
1
1
1
1
1
1
1
1
1
1
1
1
1
1
1
1
1
1
1
1
1
1
1
1
1
1
1
1
1
1
1
1
1
1
1
1
1
1
1
1
1
1
1
1
1
1
1
1
1
1
1
1
1
1
1
1
1
1
1
1
1
1
1
1
1
1
1
1
1
1
1
1
1
1
1
1
1
1
1
1
1
1
1
1
1
1
1
1
1
1
1
1
1
1
1
1
1
1
1
1
1
1
1
1
1
1
1
1
1
1
1
1
1
1
1
1
1
1
1
1
1
1
1
1
1
1
1
1
1
1
1
1
1
1
1
1
1
1
1
1
1
1
1
1
1
1
1
1
1
1
1
1
1
1
1
1
1
1
1
1
1
1
1
1
1
1
1
1
1
1
1
1
1
1
1
1
1
1
1
1
1
1
1
1
1
1
1
1
1
1
1
1
1
1
1
1
1
1
1
1
1
1
1
1
1
1
1
1
1
1
1
1
1
1
1
1
1
1
1
1
1
1
1
1
1
1
1
1
1
1
1
1
1
1
1
1
1
1
1
1
1
1
1
1
1
1
1
1
1
1
1
1
1
1
1
1
1
1
1
1
1
1
1
1
1
1
1
1
1
1
1
1
1
1
1
1
1
1
1
1
1
1
1
1
1
1
1
1
1
1
1
1
1
1
1
1
1
1
1
1
1
1
1
1
1
1
1
1
1
1
1
1
1
1
1
1
1
1
1
1
1
1
1
1
1
1
1
1
1
1
1
1
1
1
1
1
1
1
1
1
1
1
1
1
1
1
1
1
1
1
1
1
1
1
1
1
1
1
1
1
1
1
1
1
1
1
1
1
1
1
1
1
1
1
1
1
1
1
1
1
1
1
1
1
1
1
1
1
1
1
1
1
1
1
1
1
1
1
1
1
1
1
1
1
1
1
1
1
1
1
1
1
1
1
1
1
1
1
1
1
1
1
1
1
1
1
1
1
1
1
1
1
1
1
1
1
1
1
1
1
1
1
1
1
1
1
1
1
1
1
1
1
1
1
1
1
1
1
1
1
1
1
1
1
1
1
1
1
1
1
1
1
1
1
1
1
1
1
1
1
1
1
1
1
1
1
1
1
1
1
1
1
1
1
1
1
1
1
1
1
1
1
1
1
1
1
1
1
1
1
1
1
1
1
1
1
1
1
1
1
1
1
1
1
1
1
1
1
1
1
1
1
1
1
1
1
1
1
1
1
1
1
1
1
1
1
1
1
1
1
1
1
1
1
1
1
1
1
1
1
1
1
1
1
1
1
1
1
1
1
1
1
1
1
1
1
1
1
1
1
1
1
1
1
1
1
1
1
1
1
1
1
1
1
1
1
1
1
1
1
1
1
1
1
1
1
1
1
1
1
1
1
1
1
1
1
1
1
1
1
1
1
1
1
1
1
1
1
1
1
1
1
1
1
1
1
1
1
1
1
1
1
1
1
1
1
1
1
1
1
1
1
1
1
1
1
1
1
1
1
1
1
1
1
1
1
1
1
1
1
1
1
1
1
1
1
1
1
1
1
1
1
1
1
1
1
1
1
1
1
1
1
1
1
1
1
1
1
1
1
1
1
1
1
1
1
1
1
1
1
1
1
1
1
1
1
1
1
1
1
1
1
1
1
1
1
1
1
1
1
1
1
1
1
1
1
1
1
1
1
1
1
1
1
1
1
1
1
1
1
1
1
1
1
1
1
1
1
1
1
1
1
1
1
1
1
1
1
1
1
1
1
1
1
1
1
1
1
1
1
1
1
1
1
1
1
1
1
1
1
1
1
1
1
1
1
1
1
1
1
1
1
1
1
1
1
1
1
1
1
1
1
1
1
1
1
1
1
1
1
1
1
1
1
1
1
1
1
1
1
1
1
1
1
1
1
1
1
1
1
1
1
1
1
1
1
1
1
1
1
1
1
1
1
1
1
1
1
1
1
1
1
1
1
1
1
1
1
1
1
1
1
1
1
1
1
1
1
1
1
1
1
1
1
1
1
1
1
1
1
1
1
1
1
1
1
1
1
1
1
1
1
1
1
1
1
1
1
1
1
1
1
1
1
1
1
1
1
1
1
1
1
1
1
1
1
1
1
1
1
1
1
1
1
1
1
1
1
1
1
1
1
1
1
1
1
1
1
1
1
1
1
1
1
1
1
1
1
1
1
1
1
1
1
1
1
1
1
1
1
1
1
1
1
1
1
1
1
1
1
1
1
1
1
1
1
1
1
1
1
1
1
1
1
1
1
1
1
1
1
1
1
1
1
1
1
1
1
1
1
1
1
1
1
1
1
1
1
1
1
1
1
1
1
1
1
1
1
1
1
1
1
1
1
1
1
1
1
1
1
1
1
1
1
1
1
1
1
1
1
1
1
1
1
1
1
1
1
1
1
1
1
1
1
1
1
1
1
1
1
1
1
1
1
1
1
1
1
1
1
1
1
1
1
1
1
1
1
1
1
1
1
1
1
1
1
1
1
1
1
1
1
1
1
1
1
1
1
1
1
1
1
1
1
1
1
1
1
1
1
1
1
1
1
1
1
1
1
1
1
1
1
1
1
1
1
1
1
1
1
1
1
1
1
1
1
1
1
1
1
1
1
1
1
1
1
1
1
1
1
1
1
1
1
1
1
1
1
1
1
1
1
1
1
1
1
1
1
1
1
1
1
1
1
1
1
1
1
1
1
1
1
1
1
1
1
1
1
1
1
1
1
1
1
1
1
1
1
1
1
1
1
1
1
1
1
1
1
1
1
1
1
1
1
1
1
1
1
1
1
1
1
1
1
1
1
1
1
1
1
1
1
1
1
1
1
1
1
1
1
1
1
1
1
1
1
1
1
1
1
1
1
1
1
1
1
1
1
1
1
1
1
1
1
1
1
1
1
1
1
1
1
1
1
1
1
1
1
1
1
0.881273
0.898287
0.953089
0.990204
0.90318
0.987958
0.95901
0.877207
0.884174
0.886603
0.99161
0.991794
1
1
1
1
1
1
1
1
1
0.991793
0.897004
1
0.989044
0.888797
0.957175
0.90638
0.987642
1
1
1
1
1
1
1
1
1
1
1
1
1
1
1
1
0.958385
0.990834
0.913276
0.899261
0.991643
0.963489
1
1
1
1
1
1
1
1
1
1
1
1
1
1
1
1
0.989992
0.908295
0.952641
0.887913
0.992635
1
0.891689
0.990802
1
1
1
1
1
1
1
1
1
0.991718
0.989191
0.885669
0.875518
0.874545
0.96157
0.988587
0.901491
0.992767
0.96386
0.878007
0.886488
0.960775
0.910629
0.991055
0.994495
0.998525
0.985681
0.992846
0.995843
0.99985
0.995097
0.970302
0.997265
0.992566
0.967293
0.918047
0.961278
0.912003
0.994196
0.993277
1
0.876659
0.986749
0.986637
1
0.956688
1
0.991807
0.99043
0.893859
1
0.984019
0.940293
0.899566
0.997311
0.980515
0.99855
0.993548
0.97465
0.992397
0.995651
0.98956
0.981006
0.987948
0.964452
0.997725
0.995159
0.969029
0.994912
0.99316
0.975399
0.99184
0.992977
0.963614
0.983388
0.967554
0.914445
1
0.945814
0.992966
0.989171
1
0.874198
0.989387
0.991396
0.994244
0.93401
1
0.981988
0.987343
0.876575
0.88703
0.965666
0.920207
0.997576
0.995103
0.986787
0.996175
0.977949
0.994465
0.999894
0.998279
0.991273
0.983356
0.917244
0.843763
0.778108
0.952727
0.985382
0.99361
0.877706
0.954678
0.995183
0.988831
0.989504
0.873362
0.989123
0.96782
0.857946
0.77963
0.851813
0.772803
0.976558
0.971693
1
0.775816
0.967353
0.962756
1
0.828912
1
0.975137
0.969959
0.803344
1
0.968803
0.833823
0.792932
0.989948
0.943936
0.993207
0.967564
0.88987
0.990661
0.985004
0.934679
0.951444
0.977791
0.907048
0.994041
0.98475
0.851751
0.989476
0.96354
0.932451
0.975361
0.977235
0.894598
0.954132
0.858836
0.776498
1
0.819879
0.97781
0.971573
1
0.780282
0.963761
0.980036
0.979765
0.832912
1
0.966052
0.96715
0.810037
0.802696
0.845877
0.771493
0.993208
0.941724
0.957973
0.993334
0.907636
0.98562
0.960149
0.99283
0.975751
0.887774
0.796316
0.7781
0.734603
0.776155
0.951576
0.973346
0.766095
0.942716
0.911476
0.963542
0.948144
0.813853
0.936231
0.921556
0.773701
0.745036
0.743513
0.711076
0.967179
0.961369
1
0.716112
0.937258
0.923173
0.97968
0.809667
1
0.96256
0.941801
0.785446
0.999315
0.954214
0.785739
0.766185
0.955782
0.752965
0.968671
0.943553
0.788045
0.921109
0.976342
0.898162
0.919967
0.97072
0.812087
0.955509
0.952617
0.809339
0.927808
0.928133
0.833117
0.931031
0.9641
0.822009
0.920325
0.759667
0.733953
1
0.783264
0.966454
0.934713
0.991313
0.766903
0.951427
0.958476
0.973339
0.809411
1
0.945522
0.963618
0.783511
0.774943
0.78111
0.729194
0.976731
0.761391
0.926431
0.973188
0.77335
0.951618
0.77746
0.963795
0.953899
0.810734
0.753496
0.774457
0.800086
0.830323
0.955365
0.91682
0.861481
0.962247
0.923894
0.941372
0.927199
0.906896
0.944963
0.926929
0.798939
0.841358
0.768462
0.807034
0.945842
0.937126
0.95818
0.843571
0.952528
0.947158
0.96469
0.811163
0.932748
0.94113
0.934179
0.854366
0.96623
0.962191
0.774457
0.810244
0.955705
0.822734
0.919954
0.971218
0.877197
0.925187
0.949393
0.728904
0.916888
0.947045
0.770146
0.940337
0.939285
0.876539
0.941992
0.946546
0.763673
0.905577
0.949938
0.812076
0.913146
0.788271
0.832137
0.942325
0.789769
0.943982
0.937565
0.966246
0.828648
0.954074
0.920871
0.91681
0.809579
0.970921
0.950615
0.927569
0.830664
0.844791
0.757592
0.799295
0.925781
0.787944
0.960243
0.928031
0.824189
0.927874
0.832499
0.938738
0.936763
0.858007
0.84436
0.814193
0.895238
0.80649
0.971675
0.938569
0.966794
0.982816
0.975863
0.954684
0.956201
0.955035
0.97309
0.969778
0.864424
0.90261
0.810545
0.886039
0.981341
0.962498
0.993072
0.901261
0.964318
0.97524
0.972821
0.899944
0.993842
0.969403
0.943842
0.903211
0.960886
0.964494
0.83125
0.858031
0.977864
0.841557
0.936203
0.990905
0.958545
0.98192
0.947088
0.810108
0.915134
0.935338
0.877474
0.940118
0.953305
0.951068
0.984367
0.989428
0.832325
0.930514
0.943779
0.906823
0.926691
0.848845
0.888873
0.998945
0.87131
0.974365
0.96115
0.966117
0.909435
0.962885
0.947075
0.956591
0.884718
0.956108
0.955503
0.938652
0.891977
0.871569
0.815997
0.876228
0.93924
0.798061
0.971967
0.986011
0.899463
0.948901
0.878742
0.962997
0.974706
0.95742
0.88605
0.84609
0.93538
0.888173
0.975925
0.913739
0.959536
0.989974
0.991034
0.947624
0.953531
0.989116
0.985147
0.984343
0.88341
0.947192
0.837272
0.946498
0.978186
0.955836
0.982449
0.905563
0.975577
0.988466
0.980327
0.908075
0.997593
0.98082
0.963575
0.909512
0.964855
0.966036
0.886249
0.891473
0.973873
0.880469
0.925731
0.995123
0.9989
0.991215
0.963723
0.981858
0.957432
0.922238
0.979918
0.976784
0.926706
1
1
1
1
1
1
1
0.93431
0.95864
0.995381
0.995849
0.996398
0.957437
0.963313
0.982155
0.989227
0.91935
0.948503
0.973588
1
1
1
1
1
1
1
0.861384
0.94063
0.99713
0.88716
0.961097
0.973744
0.963362
0.914944
0.9825
0.977992
0.970521
0.921669
0.966582
0.967299
0.94175
0.900627
0.882307
0.839635
0.91009
0.923209
0.891456
0.993533
0.980086
0.956537
0.953582
0.982331
0.9655
0.986491
0.994293
0.947947
0.896899
0.865807
0.988785
0.972283
0.985946
0.953272
0.96907
0.914015
0.978542
0.989851
0.981752
0.942788
0.945756
0.880269
0.89642
0.846111
0.886374
0.984716
0.98784
1
0.887244
0.967123
0.963011
0.967325
0.915067
1
0.987725
0.976163
0.910879
0.977693
0.983968
0.935044
0.996661
0.917822
0.989342
1
1
1
1
0.982736
0.961731
0.977887
0.966516
0.982955
0.930417
0.974376
0.965861
0.972259
0.990951
0.964647
0.992231
0.968341
1
1
1
1
1
1
0.998061
0.970061
0.98172
0.976687
0.940423
0.958482
0.970596
0.958693
0.982885
0.989835
0.966265
0.977629
0.980459
1
1
1
1
1
1
1
0.894794
0.902747
1
0.912413
0.985316
0.964359
0.966037
0.886026
0.961153
0.985418
0.98365
0.930633
0.999966
0.986583
0.978914
0.944568
0.997475
0.942483
0.993182
1
1
1
0.870557
0.870557
0.988671
0.998903
0.958142
0.945405
0.989355
0.992665
0.997915
0.960378
0.980021
0.99989
0.927647
0.949321
0.932173
0.991644
0.96969
0.977225
1
0.962451
0.971319
0.985032
0.978979
1
0.980728
0.985673
0.954866
0.945852
0.955971
0.936325
0.97009
0.975291
0.99987
0.92511
0.933199
0.943817
0.994332
0.914757
0.98545
0.970611
0.965472
0.933812
0.999663
0.973533
0.898464
0.984285
0.923222
0.99435
1
1
1
1
0.972477
0.996811
0.986156
0.962916
0.992852
0.977826
0.969833
0.999723
0.955397
0.940314
0.985773
0.954892
0.925599
1
1
0.997522
0.998532
0.998484
0.997618
0.982867
0.988151
0.984702
1
0.98
0.98354
0.946459
0.973368
0.975049
0.972979
0.932464
0.934293
0.977433
0.998226
1
0.998296
1
0.979072
0.998939
0.997229
0.953816
0.946699
0.996832
0.940595
0.959974
0.96051
1
0.926588
0.966423
0.966448
0.937109
0.892775
0.990183
0.980746
0.973651
0.930991
0.987478
0.904771
0.99792
1
1
0.996454
0.920236
0.943956
0.944078
0.99155
0.985944
0.992356
1
0.948606
1
0.993538
0.986383
1
0.950658
0.95462
0.963613
1
0.913718
0.917407
1
0.940237
0.945029
0.920239
0.947708
0.99989
0.937392
0.94325
0.942087
0.959199
0.963914
0.966562
0.888578
0.883882
0.971628
0.953287
0.954721
0.95777
0.96525
0.899487
0.979515
0.95579
0.938088
0.931982
0.970445
0.936961
0.932916
0.859403
0.931562
0.993292
0.912242
0.952892
0.994722
0.931935
0.969842
0.982042
0.948332
0.942834
0.872972
0.978173
0.769561
0.970136
0.972217
0.837777
0.709686
0.817464
0.649808
0.594417
0.911029
0.950969
1
0.928426
0.963595
0.947322
0.948314
0.970451
0.979875
0.773752
0.95312
0.873975
0.839655
0.965373
0.941243
0.662323
0.592937
0.689664
0.78637
0.938747
0.966932
0.976863
0.913143
0.92697
0.931882
0.960534
0.948135
0.903054
0.974511
0.963466
0.942554
0.981442
0.948911
0.898218
0.91257
0.89573
0.89043
0.911562
0.983201
1
0.909899
0.929913
1
0.982774
1
0.940115
0.938128
1
0.910054
0.959991
0.936016
0.996811
0.982661
0.991247
0.996811
0.965595
0.964417
0.984183
0.97041
0.993624
0.989548
0.985558
0.958706
0.978104
0.95465
0.954165
0.977737
0.969901
0.99619
0.944555
0.896338
0.896926
0.927662
0.951416
0.989206
0.962949
0.974139
0.950288
0.998743
0.979575
0.886263
0.914205
0.977588
1
0.994427
0.966984
0.993622
0.955415
0.939331
0.885338
0.889465
0.901871
0.88289
0.994152
0.976144
0.99912
0.968973
0.983541
0.913009
0.934095
0.915687
0.905642
0.899629
0.977607
0.968538
0.985381
0.953143
0.939509
0.965719
0.996767
0.948476
0.971997
0.956702
0.938866
0.938601
0.976901
0.963042
0.920559
0.918905
0.828931
0.930035
0.937943
0.918428
0.996817
0.963799
0.970307
0.996817
0.940713
0.996818
0.965153
0.95574
0.997037
0.959661
0.943685
0.977976
0.996811
0.894585
0.913636
0.994722
0.966411
0.97729
0.910126
0.947278
0.998791
0.963138
0.943218
0.947505
0.951484
0.947409
0.985581
0.923788
0.921992
0.963479
0.978327
0.987658
0.990525
0.992645
0.886657
0.963917
0.939569
0.940169
0.921824
0.976643
0.955019
0.947528
0.851297
0.907302
0.996811
0.897779
0.971475
1
0.978254
0.886135
0.847705
0.876245
0.827998
0.8355
0.904742
0.928669
0.99868
0.967855
0.96964
0.878883
0.911134
0.843232
0.883742
0.890748
0.923336
0.979631
0.93752
0.897234
0.912511
0.962715
0.975759
0.95624
0.923141
0.971231
0.977284
0.945727
0.929644
0.945018
0.926984
0.928783
0.904737
0.908418
0.904641
0.984988
0.993415
0.941384
0.930654
0.980903
0.978576
0.996379
0.923908
0.946856
0.966968
0.929648
0.960762
0.933372
0.9989
0.971481
0.98701
0.984056
0.970244
0.964422
0.983584
0.974648
0.987795
0.978526
0.969345
0.957826
0.967306
0.963361
0.95765
0.982297
0.982243
0.985747
0.96388
0.965882
0.948815
0.979532
0.96113
0.991304
0.972942
0.979845
0.957919
0.991929
0.977499
0.919237
0.906797
0.974572
1
0.987068
0.960717
0.987355
0.956178
0.784839
0.90463
0.820943
0.71034
0.94026
0.991456
0.973784
0.99989
0.963978
0.964027
0.920661
0.815888
0.715415
0.95274
0.765751
0.972517
0.960101
0.985291
0.967434
0.966157
0.954629
0.975563
0.955679
0.963645
0.950649
0.922547
0.945602
0.965755
0.943495
0.945736
0.933836
0.822546
0.966138
0.951517
0.957504
0.990452
0.951373
0.973271
0.993195
0.966652
0.985514
0.977142
0.966846
0.996598
0.922504
0.928912
0.939715
0.985046
0.95999
0.973233
0.980868
0.959333
0.962303
0.961624
0.956608
0.974492
0.967107
0.96164
0.961586
0.937116
0.963362
0.953819
0.940692
0.948071
0.95194
0.953072
0.959294
0.962044
0.968764
0.929591
0.986096
0.956377
0.944753
0.882662
0.978616
0.918433
0.857452
0.764389
0.960368
0.991423
0.968746
0.949648
0.995932
0.96275
0.68955
0.969633
0.688101
0.704589
0.984046
0.972219
0.974598
0.987465
0.955799
0.965382
0.97461
0.726012
0.732772
0.992746
0.708435
0.959124
0.955288
0.961385
0.95641
0.942154
0.957667
0.976554
0.956298
0.928806
0.906788
0.908973
0.879007
0.861152
0.744373
0.727005
0.733189
0.657712
0.924442
0.879807
0.967593
0.974318
0.888693
0.880068
0.920977
0.917422
0.987489
0.874626
0.757416
0.905946
0.724288
0.933025
0.890303
0.980978
0.947144
0.987343
0.922811
0.922845
0.943923
0.964623
0.929822
0.909511
0.949449
0.836961
0.874021
0.695828
0.946506
0.904366
0.965464
0.969582
0.991768
0.905362
0.941681
0.933057
0.997787
0.820337
0.987083
0.810116
0.689657
0.576613
0.673142
0.460493
0.620331
0.52741
0.957776
0.985156
0.967202
0.940321
0.953379
0.94679
0.667065
0.993619
0.475166
0.521982
0.984047
0.984883
0.945634
0.987025
0.953527
0.928248
0.979338
0.591848
0.559309
0.989009
0.473203
0.92648
0.849682
0.973356
0.915127
0.917364
0.901203
0.873013
0.705224
0.593116
0.431498
0.41979
0.520906
0.372035
0.38813
0.388014
0.475353
0.481128
0.822089
0.553439
0.599764
0.711018
0.458333
0.393848
0.516535
0.483151
0.626089
0.388712
0.427457
0.489562
0.498644
0.636481
0.522115
0.601081
0.596308
0.581937
0.512017
0.44223
0.385759
0.471649
0.452509
0.534143
0.389537
0.446316
0.50606
0.504247
0.635157
0.483382
0.675639
0.676844
0.753465
0.480944
0.39438
0.382527
0.378115
0.496254
0.380407
0.391404
0.388483
0.456124
0.371442
0.390977
0.481543
0.536669
0.640263
0.672115
0.645613
0.444816
0.530383
0.385137
0.440141
0.956984
0.485963
0.458994
0.856871
0.617947
0.546873
0.530607
0.38431
0.44577
0.961644
0.434
0.506688
0.905704
0.662543
0.493802
0.484245
0.392497
0.489246
0.390371
0.379355
0.378153
0.48036
0.385013
0.376282
0.382883
0.451571
0.446577
0.665079
0.606809
0.789366
0.790804
0.46368
0.488446
0.380922
0.510718
0.444007
0.407833
0.621459
0.432492
0.508329
0.464051
0.617943
0.672622
0.753348
0.48936
0.85469
0.527411
0.43244
0.405501
0.94964
0.816708
0.798614
0.413435
0.494973
0.965696
0.851132
0.967911
0.643122
0.999582
0.490557
0.860276
0.396627
0.396977
0.39139
0.834859
0.702896
0.696448
0.5831
0.812695
0.499921
0.789146
0.999309
1
0.99888
1
0.976284
1
0.44083
0.547206
0.389801
0.794452
0.896093
0.741462
0.942898
0.827717
1
0.996248
0.990869
0.40685
0.457812
0.910608
0.783874
0.901181
0.784812
0.999961
0.992865
0.952302
1
0.532863
0.983608
0.414264
0.664672
0.597778
0.954751
0.9417
1
1
1
1
1
1
1
1
1
1
0.845946
1
0.925341
1
1
1
1
0.999768
1
1
1
1
1
1
1
1
1
1
1
1
1
1
1
1
1
1
1
1
1
1
1
1
1
1
1
1
1
1
1
1
1
1
1
1
1
1
1
1
1
1
1
1
1
1
1
1
1
1
1
1
1
1
1
1
1
1
1
1
1
1
1
1
1
1
1
1
1
1
1
1
1
1
1
1
1
1
1
1
1
1
1
1
1
1
1
1
1
1
1
1
1
1
1
1
1
1
1
1
1
1
1
1
1
1
1
1
1
1
1
1
1
1
1
1
1
1
1
1
1
1
1
1
1
1
1
1
1
1
1
1
1
1
1
1
1
1
1
1
1
1
1
1
1
1
1
1
1
1
1
1
1
1
1
1
1
1
1
1
1
1
1
1
1
1
1
1
1
1
1
1
1
1
1
1
1
1
1
1
1
1
1
1
1
1
1
1
1
1
1
1
1
1
1
1
1
1
1
1
1
1
1
1
1
1
1
1
1
1
1
1
1
1
1
1
1
1
1
1
1
1
1
1
1
1
1
1
1
1
1
1
1
1
1
1
1
1
1
1
1
1
1
1
1
1
1
1
1
1
1
1
1
1
1
1
1
1
1
1
1
1
1
1
1
1
1
1
1
1
1
1
1
1
1
1
1
1
1
1
1
1
1
1
1
1
1
1
1
1
1
1
1
1
1
1
1
1
1
1
1
1
1
1
1
1
1
1
1
1
1
1
1
1
1
1
1
1
1
1
1
1
1
1
1
1
1
1
1
1
1
1
1
1
1
1
1
1
1
1
1
1
1
1
1
1
1
1
1
1
1
1
1
1
1
1
1
1
1
1
1
1
1
1
1
1
1
1
1
1
1
1
1
1
1
1
1
1
1
1
1
1
1
1
1
1
1
1
1
1
1
1
1
1
1
1
1
1
1
1
1
1
1
1
1
1
1
1
1
1
1
1
1
1
1
1
1
1
1
1
1
1
1
1
1
1
1
1
1
1
1
1
1
1
1
1
1
1
1
1
1
1
1
1
1
1
1
1
1
1
1
1
1
1
1
1
1
1
1
1
1
1
1
1
1
1
1
1
1
1
1
1
1
1
1
1
1
1
1
1
1
1
1
1
1
1
1
1
1
1
1
1
1
1
1
1
1
1
1
1
1
1
1
1
1
1
1
1
1
1
1
1
1
1
1
1
1
1
1
1
1
1
1
1
1
1
1
1
1
1
1
1
1
1
1
1
1
1
1
1
1
1
1
1
1
1
1
1
1
1
1
1
1
1
1
1
1
1
1
1
1
1
1
1
1
1
1
1
1
1
1
1
1
1
1
1
1
1
1
1
1
1
1
1
1
1
1
1
1
1
1
1
1
1
1
1
1
1
1
1
1
1
1
1
1
1
1
1
1
1
1
1
1
1
1
1
1
1
1
1
1
1
1
1
1
1
1
1
1
1
1
1
1
1
1
1
1
1
1
1
1
1
1
1
1
1
1
1
1
1
1
1
1
1
1
1
1
1
1
1
1
1
1
1
1
1
1
1
1
1
1
1
1
1
1
1
1
1
1
1
1
1
1
1
1
1
1
1
1
1
1
1
1
1
1
1
1
1
1
1
1
1
1
1
1
1
1
1
1
1
1
1
1
1
1
1
1
1
1
1
1
1
1
1
1
1
1
1
1
1
1
1
1
1
1
1
1
1
1
1
1
1
1
1
1
1
1
1
1
1
1
1
1
1
1
1
1
1
1
1
1
1
1
1
1
1
1
1
1
1
1
1
1
1
1
1
1
1
1
1
1
1
1
1
1
1
1
1
1
1
1
1
1
1
1
1
1
1
1
1
1
1
1
1
1
1
1
1
1
1
1
1
1
1
1
1
1
1
1
1
1
1
1
1
1
1
1
1
1
1
1
1
1
1
1
1
1
1
1
1
1
1
1
1
1
1
1
1
1
1
1
1
1
1
1
1
1
1
1
1
1
1
1
1
1
1
1
1
1
1
1
1
1
1
1
1
1
1
1
1
1
1
1
1
1
1
1
1
1
1
1
1
1
1
1
1
1
1
1
1
1
1
1
1
1
1
1
1
1
1
1
1
1
1
1
1
1
1
1
1
1
1
1
1
1
1
1
1
1
1
1
1
1
1
1
1
1
1
1
1
1
1
1
1
1
1
1
1
1
1
1
1
1
1
1
1
1
1
1
1
1
1
1
1
1
1
1
1
1
1
1
1
1
1
1
1
1
1
1
1
1
1
1
1
1
1
1
1
1
1
1
1
1
1
1
1
1
1
1
1
1
1
1
1
1
1
1
1
1
1
1
1
1
1
1
1
1
1
1
1
1
1
1
1
1
1
1
1
1
1
1
1
1
1
1
1
1
1
1
1
1
1
1
1
1
1
1
1
1
1
1
1
1
1
1
1
1
1
1
1
1
1
1
1
1
1
1
1
1
1
1
1
1
1
1
1
1
1
1
1
1
1
1
1
1
1
1
1
1
1
1
1
1
1
1
1
1
1
1
1
1
1
1
1
1
1
1
1
1
1
1
1
1
1
1
1
1
1
1
1
1
1
1
1
1
1
1
1
1
1
1
1
1
1
1
1
1
1
1
1
1
1
1
1
1
1
1
1
1
1
1
1
1
1
1
1
1
1
1
1
1
1
1
1
1
1
1
1
1
1
1
1
1
1
1
1
1
1
1
1
1
1
1
1
1
1
1
1
1
1
1
1
1
1
1
1
1
1
1
1
1
1
1
1
1
1
1
1
1
1
1
1
1
1
1
1
1
1
1
1
1
1
1
1
1
1
1
1
1
1
1
1
1
1
1
1
1
1
1
1
1
1
1
1
1
1
1
1
1
1
1
1
1
1
1
1
1
1
1
1
1
1
1
1
1
1
1
1
1
1
1
1
1
1
1
1
1
1
1
1
1
1
1
1
1
1
1
1
1
1
1
1
1
1
1
1
1
1
1
1
1
1
1
1
1
1
1
1
1
1
1
1
1
1
1
1
1
1
1
1
1
1
1
1
1
1
1
1
1
1
1
1
1
1
1
1
1
1
1
1
1
1
1
1
1
1
1
1
1
1
1
1
1
1
1
1
1
1
1
1
1
1
1
1
1
1
1
1
1
1
1
1
1
1
1
1
1
1
1
1
1
1
1
1
1
1
1
1
1
1
1
1
1
1
1
1
1
1
1
1
1
1
1
1
1
1
1
1
1
1
1
1
1
1
1
1
1
1
1
1
1
1
1
1
1
1
1
1
1
1
1
1
1
1
1
1
1
1
1
1
1
1
1
1
1
1
1
1
1
1
1
1
1
1
1
1
1
1
1
1
1
1
1
1
1
1
1
1
1
1
1
1
1
1
1
1
1
1
1
1
1
1
1
1
1
1
1
1
1
1
1
1
1
1
1
1
1
1
1
1
1
1
1
1
1
1
1
1
1
1
1
1
1
1
1
1
1
1
1
1
1
1
1
1
1
1
1
1
1
1
1
1
1
1
1
1
1
1
1
1
1
1
1
1
1
1
1
1
1
1
1
1
1
1
1
1
1
1
1
1
1
1
1
1
1
1
1
1
1
1
1
1
1
1
1
1
1
1
1
1
1
1
1
1
1
1
1
1
1
1
1
1
1
1
1
1
1
1
1
1
1
1
1
1
1
1
1
1
1
1
1
1
1
1
1
1
1
1
1
1
1
1
1
1
1
1
1
1
1
1
1
1
1
1
1
1
1
1
1
1
1
1
1
1
1
1
1
1
1
1
1
1
1
1
1
1
1
1
1
1
1
1
1
1
1
1
1
1
1
1
1
1
1
1
1
1
1
1
1
1
1
1
1
1
1
1
1
1
1
1
1
1
1
1
1
1
1
1
1
1
1
1
1
1
1
1
1
1
1
1
1
1
1
1
1
1
1
1
1
1
1
1
1
1
1
1
1
1
1
1
1
1
1
1
1
1
1
1
1
1
1
1
1
1
1
1
1
1
1
1
1
1
1
1
1
1
1
1
1
1
1
1
1
1
1
1
1
1
1
1
1
1
1
1
1
1
1
1
1
1
1
1
1
1
1
1
1
1
1
1
1
1
1
1
1
1
1
1
1
1
1
1
1
1
1
1
1
1
1
1
1
1
1
1
1
1
1
1
1
1
1
1
1
1
1
1
1
1
1
1
1
1
1
1
1
1
1
1
1
1
1
1
1
1
1
1
1
1
1
1
1
1
1
1
1
1
1
1
1
1
1
1
1
1
1
1
1
1
1
1
1
1
1
1
1
1
1
1
1
1
1
1
1
1
1
1
1
1
1
1
1
1
1
1
1
1
1
1
1
1
1
1
1
1
1
1
1
1
1
1
1
1
1
1
1
1
1
1
1
1
1
1
1
1
1
1
1
1
1
1
1
1
1
1
1
1
1
1
1
1
1
1
1
1
1
1
1
1
1
1
1
1
1
1
1
1
1
1
1
1
1
1
1
1
1
1
1
1
1
1
1
1
1
1
1
1
1
1
1
1
1
1
1
1
1
1
1
1
1
1
1
1
1
1
1
1
1
1
1
1
1
1
1
1
1
1
1
1
1
1
1
1
1
1
1
1
1
1
1
1
1
1
1
1
1
1
1
1
1
1
1
1
1
1
1
1
1
1
1
1
1
1
1
1
1
1
1
1
1
1
1
1
1
1
1
1
1
1
1
1
1
1
1
1
1
1
1
1
1
1
1
1
1
1
1
1
1
1
1
1
1
1
1
1
1
1
1
1
1
1
1
1
1
1
1
1
1
1
1
1
1
1
1
1
1
1
1
1
1
1
1
1
1
1
1
1
1
1
1
1
1
1
1
1
1
1
1
1
1
1
1
1
1
1
1
1
1
1
1
1
1
1
1
1
1
1
1
1
1
1
1
1
1
1
1
1
1
1
1
1
1
1
1
1
1
1
1
1
1
1
1
1
1
1
1
1
1
1
1
1
1
1
1
1
1
1
1
1
1
1
1
1
1
1
1
1
1
1
1
1
1
1
1
1
1
1
1
1
1
1
1
1
1
1
1
1
1
1
1
1
1
1
1
1
1
1
1
1
1
1
1
1
1
1
1
1
1
1
1
1
1
1
1
1
1
1
1
1
1
1
1
1
1
1
1
1
1
1
1
1
1
1
1
1
1
1
1
1
1
1
1
1
1
1
1
1
1
1
1
1
1
1
1
1
1
1
1
1
1
1
1
1
1
1
1
1
1
1
1
1
1
1
1
1
1
1
1
1
1
1
1
1
1
1
1
1
1
1
1
1
1
1
1
1
1
1
1
1
1
1
1
1
1
1
1
1
1
1
1
1
1
1
1
1
1
1
1
1
1
1
1
1
1
1
1
1
1
1
1
1
1
1
1
1
1
1
1
1
1
1
1
1
1
1
1
1
1
1
1
1
1
1
1
1
1
1
1
1
1
1
1
1
1
1
1
1
1
1
1
1
1
1
1
1
1
1
1
1
1
1
1
1
1
1
1
1
1
1
1
1
1
1
1
1
1
1
1
1
1
1
1
1
1
1
1
1
1
1
1
1
1
1
1
1
1
1
1
1
1
1
1
1
1
1
1
1
1
1
1
1
1
1
1
1
1
1
1
1
1
1
1
1
1
1
1
1
1
1
1
1
1
1
1
1
1
1
1
1
1
1
1
1
1
1
1
1
1
1
1
1
1
1
1
1
1
1
1
1
1
1
1
1
1
1
1
1
1
1
1
1
1
1
1
1
1
1
1
1
1
1
1
1
1
1
1
1
1
1
1
1
1
1
1
1
1
1
1
1
1
1
1
1
1
1
1
1
1
1
1
1
1
1
1
1
1
1
1
1
1
1
1
1
1
1
1
1
1
1
1
1
1
1
1
1
1
1
1
1
1
1
1
1
1
1
1
1
1
1
1
1
1
1
1
1
1
1
1
1
1
1
1
1
1
1
1
1
1
1
1
1
1
1
1
1
1
1
1
1
1
1
1
1
1
1
1
1
1
1
1
1
1
1
1
1
1
1
1
1
1
1
1
1
1
1
1
1
1
1
1
1
1
1
1
1
1
1
1
1
1
1
1
1
1
1
1
1
1
1
1
1
1
1
1
1
1
1
1
1
1
1
1
1
1
1
1
1
1
1
1
1
1
1
1
1
1
1
1
1
1
1
1
1
1
1
1
1
1
1
1
1
1
1
1
1
1
1
1
1
1
1
1
1
1
1
1
1
1
1
1
1
1
1
1
1
1
1
1
1
1
1
1
1
1
1
1
1
1
1
1
1
1
1
1
1
1
1
1
1
1
1
1
1
1
1
1
1
1
1
1
1
1
1
1
1
1
1
1
1
1
1
1
1
1
1
1
1
1
1
1
1
1
1
1
1
1
1
1
1
1
1
1
1
1
1
1
1
1
1
1
1
1
1
1
1
1
1
1
1
1
1
1
1
1
1
1
1
1
1
1
1
1
1
1
1
1
1
1
1
1
1
1
1
1
1
1
1
1
1
1
1
1
1
1
1
1
1
1
1
1
1
1
1
1
1
1
1
1
1
1
1
1
1
1
1
1
1
1
1
1
1
1
1
1
1
1
1
1
1
1
1
1
1
1
1
1
1
1
1
1
1
1
1
1
1
1
1
1
1
1
1
1
1
1
1
1
1
1
1
1
1
1
1
1
1
1
1
1
1
1
1
1
1
1
1
1
1
1
1
1
1
1
1
1
1
1
1
1
1
1
1
1
1
1
1
1
1
1
1
1
1
1
1
1
1
1
1
1
1
1
1
1
1
1
1
1
1
1
1
1
1
1
1
1
1
1
1
1
1
1
1
1
1
1
1
1
1
1
1
1
1
1
1
1
1
1
1
1
1
1
1
1
1
1
1
1
1
1
1
1
1
1
1
1
1
1
1
1
1
1
1
1
1
1
1
1
1
1
1
1
1
1
1
1
1
1
1
1
1
1
1
1
1
1
1
1
1
1
1
1
1
1
1
1
1
1
1
1
1
1
1
1
1
1
1
1
1
1
1
1
1
1
1
1
1
1
1
1
1
1
1
1
1
1
1
1
1
1
1
1
1
1
1
1
1
1
1
1
1
1
1
1
1
1
1
1
1
1
1
1
1
1
1
1
1
1
1
1
1
1
1
1
1
1
1
1
1
1
1
1
1
1
1
1
1
1
1
1
1
1
1
1
1
1
1
1
1
1
1
1
1
1
1
1
1
1
1
1
1
1
1
1
1
1
1
1
1
1
1
1
1
1
1
1
1
1
1
1
1
1
1
1
1
1
1
1
1
1
1
1
1
1
1
1
1
1
1
1
1
1
1
1
1
1
1
1
1
1
1
1
1
1
1
1
1
1
1
1
1
1
1
1
1
1
1
1
1
1
1
1
1
1
1
1
1
1
1
1
1
1
1
1
1
1
1
1
1
1
1
1
1
1
1
1
1
1
1
1
1
1
1
1
1
1
1
1
1
1
1
1
1
1
1
1
1
1
1
1
1
1
1
1
1
1
1
1
1
1
1
1
1
1
1
1
1
1
1
1
1
1
1
1
1
1
1
1
1
1
1
1
1
1
1
1
1
1
1
1
1
1
1
1
1
1
1
1
1
1
1
1
1
1
1
1
1
1
1
1
1
1
1
1
1
1
1
1
1
1
1
1
1
1
1
1
1
1
1
1
1
1
1
1
1
1
1
1
1
1
1
1
1
1
1
1
1
1
1
1
1
1
1
1
1
1
1
1
1
1
1
1
1
1
1
1
1
1
1
1
1
1
1
1
1
1
1
1
1
1
1
1
1
1
1
1
1
1
1
1
1
1
1
1
1
1
1
1
1
1
1
1
1
1
1
1
1
1
1
1
1
1
1
1
1
1
1
1
1
1
1
1
1
1
1
1
1
1
1
1
1
1
1
1
1
1
1
1
1
1
1
1
1
1
1
1
1
1
1
1
1
1
1
1
1
1
1
1
1
1
1
1
1
1
1
1
1
1
1
1
1
1
1
1
1
1
1
1
1
1
1
1
1
1
1
1
1
1
1
1
1
1
1
1
1
1
1
1
1
1
1
1
1
1
1
1
1
1
1
1
1
1
1
1
1
1
1
1
1
1
1
1
1
1
1
1
1
1
1
1
1
1
1
1
1
1
1
1
1
1
1
1
1
1
1
1
1
1
1
1
1
1
1
1
1
1
1
1
1
1
1
1
1
1
1
1
1
1
1
1
1
1
1
1
1
1
1
1
1
1
1
1
1
1
1
1
1
1
1
1
1
1
1
1
1
1
1
1
1
1
1
1
1
1
1
1
1
1
1
1
1
1
1
1
1
1
1
1
1
1
1
1
1
1
1
1
1
1
1
1
1
1
1
1
1
1
1
1
1
1
1
1
1
1
1
1
1
1
1
1
1
1
1
1
1
1
1
1
1
1
1
1
1
1
1
1
1
1
1
1
1
1
1
1
1
1
1
1
1
1
1
1
1
1
1
1
1
1
1
1
1
1
1
1
1
1
1
1
1
1
1
1
1
1
1
1
1
1
1
1
1
1
1
1
1
1
1
1
1
1
1
1
1
1
1
1
1
1
1
1
1
1
1
1
1
1
1
1
1
1
1
1
1
1
1
1
1
1
1
1
1
1
1
1
1
1
1
1
1
1
1
1
1
1
1
1
1
1
1
1
1
1
1
1
1
1
1
1
1
1
1
1
1
1
1
1
1
1
1
1
1
1
1
1
1
1
1
1
1
1
1
1
1
1
1
1
1
1
1
1
1
1
1
1
1
1
1
1
1
1
1
1
1
1
1
1
1
1
1
1
1
1
1
1
1
1
1
1
1
1
1
1
1
1
1
1
1
1
1
1
1
1
1
1
1
1
1
1
1
1
1
1
1
1
1
1
1
1
1
1
1
1
1
1
1
1
1
1
1
1
1
1
1
1
1
1
1
1
1
1
1
1
1
1
1
1
1
1
1
1
1
1
1
1
1
1
1
1
1
1
1
1
1
1
1
1
1
1
1
1
1
1
1
1
1
1
1
1
1
1
1
1
1
1
1
1
1
1
1
1
1
1
1
1
1
1
1
1
1
1
1
1
1
1
1
1
1
1
1
1
1
1
1
1
1
1
1
1
1
1
1
1
1
1
1
1
1
1
1
1
1
1
1
1
1
1
1
1
1
1
1
1
1
1
1
1
1
1
1
1
1
1
1
1
1
1
1
1
1
1
1
1
1
1
1
1
1
1
1
1
1
1
1
1
1
1
1
1
1
1
1
1
1
1
1
1
1
1
1
1
1
1
1
1
1
1
1
1
1
1
1
1
1
1
1
1
1
1
1
1
1
1
1
1
1
1
1
1
1
1
1
1
1
1
1
1
1
1
1
1
1
1
1
1
1
1
1
1
1
1
1
1
1
1
1
1
1
1
1
1
1
1
1
1
1
1
1
1
1
1
1
1
1
1
1
1
1
1
1
1
1
1
1
1
1
1
1
1
1
1
1
1
1
1
1
1
1
1
1
1
1
1
1
1
1
1
1
1
1
1
1
1
1
1
1
1
1
1
1
1
1
1
1
1
1
1
1
1
1
1
1
1
1
1
1
1
1
1
1
1
1
1
1
1
1
1
1
1
1
1
1
1
1
1
1
1
1
1
1
1
1
1
1
1
1
1
1
1
1
1
1
1
1
1
1
1
1
1
1
1
1
1
1
1
1
1
1
1
1
1
1
1
1
1
1
1
1
1
1
1
1
1
1
1
1
1
1
1
1
1
1
1
1
1
1
1
1
1
1
1
1
1
1
1
1
1
1
1
1
1
1
1
1
1
1
1
1
1
1
1
1
1
1
1
1
1
1
1
1
1
1
1
1
1
1
1
1
1
1
1
1
1
1
1
1
1
1
1
1
1
1
1
1
1
1
1
1
1
1
1
1
1
1
1
1
1
1
1
1
1
1
1
1
1
1
1
1
1
1
1
1
1
1
1
1
1
1
1
1
1
1
1
1
1
1
1
1
1
1
1
1
1
1
1
1
1
1
1
1
1
1
1
1
1
1
1
1
1
1
1
1
1
1
1
1
1
1
1
1
1
1
1
1
1
1
1
1
1
1
1
1
1
1
1
1
1
1
1
1
1
1
1
1
1
1
1
1
1
1
1
1
1
1
1
1
1
1
1
1
1
1
1
1
1
1
1
1
1
1
1
1
1
1
1
1
1
1
1
1
1
1
1
1
1
1
1
1
1
1
1
1
1
1
1
1
1
1
1
1
1
1
1
1
1
1
1
1
1
1
1
1
1
1
1
1
1
1
1
1
1
1
1
1
1
1
1
1
1
1
1
1
1
1
1
1
1
1
1
1
1
1
1
1
1
1
1
1
1
1
1
1
1
1
1
1
1
1
1
1
1
1
1
1
1
1
1
1
1
1
1
1
1
1
1
1
1
1
1
1
1
1
1
1
1
1
1
1
1
1
1
1
1
1
1
1
1
1
1
1
1
1
1
1
1
1
1
1
1
1
1
1
1
1
1
1
1
1
1
1
1
1
1
1
1
1
1
1
1
1
1
1
1
1
1
1
1
1
1
1
1
1
1
1
1
1
1
1
1
1
1
1
1
1
1
1
1
1
1
1
1
1
1
1
1
1
1
1
1
1
1
1
1
1
1
1
1
1
1
1
1
1
1
1
1
1
1
1
1
1
1
1
1
1
1
1
1
1
1
1
1
1
1
1
1
1
1
1
1
1
1
1
1
1
1
1
1
1
1
1
1
1
1
1
1
1
1
1
1
1
1
1
1
1
1
1
1
1
1
1
1
1
1
1
1
1
1
1
1
1
1
1
1
1
1
1
1
1
1
1
1
1
1
1
1
1
1
1
1
1
1
1
1
1
1
1
1
1
1
1
1
1
1
1
1
1
1
1
1
1
1
1
1
1
1
1
1
1
1
1
1
1
1
1
1
1
1
1
1
1
1
1
1
1
1
1
1
1
1
1
1
1
1
1
1
1
1
1
1
1
1
1
1
1
1
1
1
1
1
1
1
1
1
1
1
1
1
1
1
1
1
1
1
1
1
1
1
1
1
1
1
1
1
1
1
1
1
1
1
1
1
1
1
1
1
1
1
1
1
1
1
1
1
1
1
1
1
1
1
1
1
1
1
1
1
1
1
1
1
1
1
1
1
1
1
1
1
1
1
1
1
1
1
1
1
1
1
1
1
1
1
1
1
1
1
1
1
1
1
1
1
1
1
1
1
1
1
1
1
1
1
1
1
1
1
1
1
1
1
1
1
1
1
1
1
1
1
1
1
1
1
1
1
1
1
1
1
1
1
1
1
1
1
1
1
1
1
1
1
1
1
1
1
1
1
1
1
1
1
1
1
1
1
1
1
1
1
1
1
1
1
1
1
1
1
1
1
1
1
1
1
1
1
1
1
1
1
1
1
1
1
1
1
1
1
1
1
1
1
1
1
1
1
1
1
1
1
1
1
1
1
1
1
1
1
1
1
1
1
1
1
1
1
1
1
1
1
1
1
1
1
1
1
1
1
1
1
1
1
1
1
1
1
1
1
1
1
1
1
1
1
1
1
1
1
1
1
1
1
1
1
1
0.999765
1
1
1
1
1
1
1
1
1
1
1
1
1
1
1
1
1
1
1
1
1
1
1
1
1
1
1
1
1
1
1
1
1
1
1
1
1
1
1
1
1
1
1
1
1
0.985598
0.998597
0.995376
0.999547
1
1
1
0.997258
0.992488
0.997665
0.996963
1
1
1
0.982295
0.992272
0.993721
0.982658
1
1
1
0.993378
0.996884
0.997282
0.99915
0.930197
0.957684
0.922521
0.974748
0.96452
0.97161
0.961803
0.968039
0.945759
0.94806
0.980634
0.982146
0.970225
0.968273
0.968006
0.947761
0.9341
0.975012
0.974589
0.969711