/*--------------------------------*- C++ -*----------------------------------*\
| =========                 |                                                 |
| \\      /  F ield         | OpenFOAM: The Open Source CFD Toolbox           |
|  \\    /   O peration     | Version:  5.x                                   |
|   \\  /    A nd           | Web:      www.OpenFOAM.org                      |
|    \\/     M anipulation  |                                                 |
\*---------------------------------------------------------------------------*/
FoamFile
{
    version     2.0;
    format      ascii;
    class       volScalarField;
    location    "4";
    object      p;
}
// * * * * * * * * * * * * * * * * * * * * * * * * * * * * * * * * * * * * * //

dimensions      [0 2 -2 0 0 0 0];

internalField   nonuniform List<scalar> 
10571
(
56.2961
67.835
65.8836
51.5171
35.2082
71.4298
74.3592
40.7498
28.8868
27.6921
132.854
104.047
102.183
50.4958
29.232
31.118
177.928
95.0164
70.211
50.0727
43.0718
105.711
104.705
110.703
52.388
64.5286
62.9909
29.0409
29.2618
62.0562
39.015
29.1483
29.3213
30.3579
72.5243
61.6462
64.8369
38.5056
28.7472
30.7982
86.2393
87.2995
57.8482
37.3587
29.2776
81.1556
76.5035
54.2965
29.1639
44.6135
39.9118
22.5245
25.4522
47.4619
24.2063
24.5488
25.6705
28.744
40.2377
43.7865
35.9836
25.093
25.3059
28.1729
46.0259
26.9875
24.4897
25.9899
25.9939
20.5514
22.2571
29.7279
21.4434
19.3396
17.0467
20.7869
24.1532
23.9587
16.4324
20.5962
23.6995
26.2069
20.7622
20.4763
17.4503
17.1526
23.5002
24.21
22.9903
16.4083
15.3706
20.5894
24.5158
19.6183
16.4067
15.8291
15.2698
16.0613
16.0172
19.2349
24.279
15.8966
15.4917
15.0664
21.9035
24.3963
17.0604
15.6971
15.495
14.8104
16.8578
22.0516
16.3984
15.2753
14.979
15.2792
19.9457
16.7695
15.4068
15.4444
15.2442
14.7958
15.3234
14.5532
15.2693
15.8848
15.7495
14.293
16.0184
22.1223
14.6532
15.3274
15.1084
15.0446
15.0096
14.58
20.4929
15.4454
15.3712
15.0109
14.8467
14.9689
14.9044
15.2113
14.8368
15.1316
15.057
14.8375
14.951
14.8971
14.5096
16.209
15.0683
14.8691
13.7683
12.613
15.3974
14.4975
15.3509
14.8618
14.9212
14.8895
14.4684
15.137
15.2737
14.771
14.7946
14.8594
14.9494
15.0998
14.6781
14.7177
14.8979
14.8895
14.7075
14.8139
14.7654
14.7385
14.5694
14.5539
14.9072
14.7659
15.0803
15.3509
14.6553
15.4574
14.6927
14.8072
14.7826
14.6594
15.0265
14.5347
14.7548
14.7935
14.7878
14.7409
15.0628
14.7637
14.7599
14.8435
14.7796
14.7387
14.7141
14.6974
14.7117
14.6116
14.465
14.7546
14.8139
14.5872
15.1589
14.5687
14.5244
14.6494
14.7679
14.7135
14.434
15.228
14.7004
14.7753
14.8043
14.7357
14.5916
14.7953
14.7957
14.8149
14.7356
14.7873
14.6951
14.6463
14.8095
14.6203
14.5246
14.6959
14.6905
14.1265
14.5292
14.5235
14.6764
14.7722
14.748
14.5639
14.6631
14.8101
14.8238
14.7282
14.6381
14.8243
14.8236
14.8055
14.7072
14.8079
14.7185
14.6021
14.7492
14.6735
14.5736
14.6893
14.6718
14.3995
14.6664
14.5461
14.7317
14.7568
14.7117
14.8945
14.6382
14.8374
14.8437
14.7694
14.7567
14.8583
14.8628
14.8276
14.7039
14.8733
14.7954
14.5889
14.8338
14.754
14.6751
14.6805
14.706
14.3904
14.7898
14.6047
14.7883
14.7433
14.6924
14.6493
14.6672
14.8667
14.8727
14.8136
14.7667
14.9031
14.9024
14.8634
14.7055
14.996
14.859
14.579
14.7858
14.8927
14.8245
14.8003
14.8219
14.3667
14.9117
14.6618
14.8254
14.7903
14.7529
14.4869
14.7681
14.8998
14.9245
14.8847
14.8255
14.9471
14.9473
14.9184
14.7443
15.0514
14.8901
14.6026
14.8197
15.0094
14.886
14.9404
14.9396
14.7985
15.0703
14.7764
14.8613
14.8718
14.8658
14.693
14.8992
14.9317
14.992
14.9668
14.9691
14.9859
14.9967
14.9852
14.8295
15.084
14.9259
14.6799
14.9137
15.1309
14.8521
14.9065
15.0444
15.1825
15.2114
14.9603
14.9004
14.9376
14.969
14.9736
14.9871
14.9571
15.0487
15.0377
15.094
15.0147
15.046
15.0454
14.9866
15.2042
14.9397
14.8264
15.0918
15.1239
14.842
14.9112
15.0803
15.1937
15.2253
15.0776
14.9218
14.9924
15.0379
15.0835
15.035
14.9642
15.0862
15.0822
15.1517
15.0284
15.0927
15.0891
15.24
15.1323
15.0723
15.0311
15.1804
15.0755
14.9136
14.9808
15.0918
15.163
15.1726
15.1085
14.9571
15.0274
15.0765
15.1248
15.0889
14.9755
15.0983
15.1062
15.1574
15.0412
15.1187
15.1169
15.2296
15.1283
15.1354
15.1324
15.1769
15.0864
14.9891
15.0283
15.0857
15.1373
15.1574
15.1376
15.0263
15.048
15.0961
15.1416
15.1853
15.0356
15.1027
15.1171
15.1472
15.0827
15.1299
15.1333
15.1571
15.1137
15.1067
15.1276
15.1505
15.1119
15.0259
15.0232
15.0713
15.116
15.2009
15.2331
15.0956
15.059
15.0949
15.1359
15.237
15.0975
15.1137
15.1182
15.1346
15.1344
15.143
15.1468
15.1069
15.0802
15.076
15.0931
15.108
15.1069
15.0791
15.0266
15.0535
15.0853
15.1917
15.1924
15.1251
15.0639
15.0844
15.1216
15.2112
15.12
15.1183
15.112
15.1165
15.1698
15.1525
15.1523
15.0499
15.0733
15.013
15.0256
15.0546
15.0875
15.0414
14.9919
15.0256
15.0529
15.1643
15.1415
15.0781
15.0594
15.0683
15.107
15.1684
15.1045
15.1031
15.0953
15.0989
15.1676
15.1409
15.1436
15.0071
15.0606
14.9877
14.9675
15.0148
15.061
14.9815
14.9454
14.9992
15.0323
15.1338
15.0976
15.0105
15.0434
15.0451
15.0783
15.1366
15.0865
15.0775
15.0735
15.0761
15.1455
15.1193
15.1245
14.9936
15.0428
14.9776
14.9491
15.0002
15.0365
14.9357
14.9163
14.9852
15.0269
15.1047
15.0615
14.9516
15.0128
15.0139
15.0473
15.1168
15.0712
15.0572
15.0517
15.0539
15.1269
15.0958
15.1065
15.0035
15.0393
14.9707
14.9567
15.0014
15.021
14.9042
14.9119
14.9767
15.0231
15.0812
15.0367
14.9101
14.9857
14.991
15.0236
15.0975
15.0501
15.0386
15.0331
15.035
15.1106
15.0732
15.093
15.0239
15.0434
14.9807
14.9734
15.0101
15.0119
14.8923
14.9235
14.974
15.0212
15.0642
15.019
14.8827
14.9702
14.9886
15.0159
15.0751
15.0237
15.0214
15.0264
15.0359
15.0893
15.0591
15.0871
15.0473
15.0444
15.003
14.9962
15.0221
15.0115
14.9005
14.9421
14.9791
15.0276
15.0522
15.0077
14.8572
14.9602
14.9887
15.0166
15.0533
14.9933
15.0093
15.0266
15.0504
15.0697
15.0471
15.0829
15.0684
15.0458
15.024
15.0202
15.0392
15.0146
14.9246
14.9637
14.9913
15.037
15.044
14.9973
14.831
14.9453
14.9843
15.0222
15.0297
14.9459
15.0035
15.028
15.0663
15.0578
15.0327
15.0752
15.0954
15.046
15.0407
15.0311
15.0578
15.0214
14.948
14.9864
15.007
15.0482
15.0399
14.9873
14.8142
14.9288
14.9885
15.0263
14.9997
14.8934
14.9902
15.0211
15.0665
15.041
15.0176
15.0586
15.1028
15.0461
15.0476
15.0537
15.0732
15.0357
14.9659
14.9977
15.0183
15.0554
15.0417
14.9778
14.8276
14.9371
15.0044
15.0307
14.9634
14.8488
14.9712
15.0098
15.0583
15.0039
14.999
15.0425
15.1039
15.0507
15.0486
15.078
15.0869
15.0547
14.9826
15.0076
15.0288
15.0658
15.0493
14.9801
14.8838
14.9653
15.0196
15.0386
14.9372
14.8043
14.9525
14.9969
15.0484
14.9614
14.9787
15.0266
15.1009
15.0672
15.0344
15.0876
15.1209
15.0745
14.9973
15.0309
15.0459
15.0813
15.0622
14.9907
14.9244
14.9921
15.0342
15.0474
14.9268
14.7723
14.9288
14.9838
15.0429
14.933
14.9608
15.0086
15.084
15.0793
15.0218
15.0709
15.1331
15.0913
15.0036
15.0582
15.0679
15.1031
15.0812
15.0149
14.9446
15.0071
15.0472
15.0626
14.9315
14.7533
14.9011
14.9816
15.0439
14.9067
14.9451
15.0004
15.0719
15.0779
15.0143
15.0634
15.1279
15.1057
15.0173
15.0823
15.0902
15.1362
15.109
15.0513
14.9496
15.0253
15.0567
15.091
14.9397
14.7485
14.9423
15.0152
15.0686
14.8481
14.9422
15.0163
15.0675
15.0704
15.0038
15.0616
15.1192
15.1156
15.0393
15.1032
15.1219
15.1725
15.1379
15.0863
14.98
15.0552
15.0598
15.1399
14.9617
14.8158
15.0294
15.0838
15.1167
14.7601
14.9939
15.096
15.0644
15.0641
14.9927
15.0602
15.1135
15.1166
15.0616
15.1148
15.1506
15.1955
15.1642
15.1159
15.0351
15.1019
15.1265
15.1888
15.0211
14.9769
15.1464
15.1709
15.1726
14.8668
15.1193
15.2295
15.0633
15.0587
14.9821
15.0569
15.1078
15.1079
15.0684
15.1149
15.1443
15.1822
15.184
15.1317
15.0665
15.1236
15.148
15.1896
15.1057
15.0666
15.1804
15.1727
15.1523
15.0763
15.2063
15.2479
15.0651
15.0569
14.9782
15.0555
15.1031
15.091
15.0444
15.1031
15.1355
15.173
15.1909
15.1257
15.0722
15.1192
15.1474
15.1855
15.1318
15.0888
15.1631
15.1657
15.1775
15.1229
15.1846
15.1962
15.0703
15.0633
14.9874
15.0582
15.099
15.0724
15.0151
15.0852
15.1199
15.1637
15.1824
15.1067
15.0684
15.1037
15.1377
15.1793
15.1263
15.0937
15.1436
15.1506
15.1672
15.1211
15.1554
15.1604
15.0786
15.0805
15.0131
15.0664
15.0964
15.06
14.9918
15.0741
15.1025
15.1405
15.1639
15.09
15.0635
15.093
15.1201
15.1527
15.1127
15.0866
15.1235
15.1321
15.1431
15.1152
15.1341
15.1368
15.089
15.1042
15.0554
15.0772
15.0972
15.0484
14.98
15.0747
15.0917
15.1223
15.1425
15.0746
15.0509
15.0924
15.1054
15.128
15.0992
15.0761
15.1072
15.1154
15.123
15.1055
15.1149
15.1186
15.0983
15.1193
15.0951
15.0873
15.0998
15.0387
14.9743
15.0853
15.0879
15.113
15.1219
15.0608
15.0412
15.0959
15.0955
15.1148
15.0839
15.065
15.0922
15.1013
15.1082
15.0955
15.1081
15.1041
15.1054
15.1418
15.1096
15.0897
15.1029
15.0317
14.9709
15.0915
15.0835
15.1078
15.1019
15.0452
15.0379
15.0932
15.0922
15.1072
15.0682
15.0517
15.0884
15.0937
15.0996
15.0805
15.1015
15.0956
15.1104
15.1566
15.1055
15.0949
15.1037
15.0363
14.9792
15.089
15.0782
15.1044
15.0787
15.0284
15.033
15.0812
15.0863
15.0977
15.0519
15.0416
15.0767
15.084
15.092
15.0557
15.081
15.0825
15.1134
15.1563
15.0929
15.0989
15.101
15.0505
15.0103
15.0836
15.0733
15.1011
15.0539
15.0126
15.0373
15.0625
15.0719
15.0893
15.0348
15.0293
15.0586
15.0711
15.0817
15.0317
15.0592
15.0696
15.1177
15.1364
15.0889
15.1
15.0956
15.0887
15.0607
15.0813
15.0707
15.0973
15.0365
15.0065
15.0366
15.0483
15.0505
15.0784
15.0205
15.0173
15.0403
15.0563
15.0708
15.018
15.0417
15.0574
15.1189
15.1232
15.0978
15.1014
15.089
15.1248
15.1319
15.0785
15.0683
15.0931
15.0426
15.015
15.0336
15.0465
15.0308
15.0652
15.0167
15.0227
15.0325
15.0447
15.0587
15.0238
15.0355
15.0475
15.1143
15.1131
15.1054
15.0926
15.0805
15.1053
15.152
15.0713
15.063
15.0867
15.0648
15.027
15.0487
15.0506
15.018
15.0513
15.0292
15.0377
15.0387
15.0358
15.0495
15.0305
15.0403
15.04
15.11
15.111
15.1028
15.0794
15.0725
15.0891
15.1086
15.0567
15.0535
15.0792
15.0612
15.0338
15.0402
15.0521
15.0058
15.0394
15.0361
15.0501
15.0455
15.0263
15.0376
15.0402
15.0498
15.0351
15.1061
15.1148
15.0895
15.0625
15.066
15.0827
15.0839
15.0368
15.0453
15.0719
15.0563
15.0506
15.022
15.0457
15.0035
15.0302
15.0491
15.0568
15.0459
15.0168
15.0269
15.0475
15.0597
15.0328
15.0986
15.1331
15.0683
15.0385
15.0617
15.1215
15.0728
15.0224
15.0471
15.0728
15.0959
15.0944
15.0592
15.0434
15.0157
15.0316
15.0711
15.0624
15.0504
15.0188
15.0252
15.0529
15.0743
15.0382
15.0908
15.1264
15.0366
15.021
15.0621
15.1326
15.0656
15.0353
15.0595
15.0849
15.1321
15.1634
15.0906
15.0506
15.0454
15.05
15.1001
15.0731
15.0636
15.0341
15.0461
15.0652
15.0922
15.0581
15.0808
15.1081
15.0198
15.0128
15.0648
15.1291
15.0652
15.0625
15.0788
15.1042
15.1564
15.1651
15.0948
15.0668
15.0873
15.0836
15.1074
15.0704
15.0769
15.0636
15.0908
15.0755
15.0976
15.0804
15.0771
15.092
15.0202
15.0229
15.0714
15.1142
15.0527
15.0867
15.0923
15.1232
15.1524
15.1502
15.0823
15.0862
15.116
15.1209
15.1037
15.0563
15.0757
15.089
15.1162
15.0832
15.0895
15.0895
15.0823
15.0827
15.028
15.0582
15.077
15.0986
15.0625
15.0975
15.1059
15.1363
15.1357
15.1219
15.0682
15.0994
15.1336
15.1469
15.1019
15.0595
15.0691
15.098
15.1239
15.0909
15.0838
15.0811
15.084
15.0797
15.0582
15.0915
15.0853
15.0787
15.0668
15.1065
15.1169
15.1383
15.1125
15.0914
15.0651
15.1036
15.1381
15.141
15.1033
15.0828
15.0769
15.1056
15.1263
15.102
15.0935
15.0901
15.085
15.079
15.0726
15.0916
15.0715
15.0569
15.0563
15.1047
15.1111
15.1186
15.0948
15.0703
15.0692
15.1069
15.1365
15.1294
15.1118
15.113
15.1004
15.111
15.1281
15.1319
15.1195
15.1155
15.0749
15.0846
15.0678
15.0701
15.0474
15.0418
15.0346
15.084
15.0932
15.0894
15.0971
15.0708
15.0639
15.1064
15.1217
15.116
15.1451
15.1455
15.1294
15.1209
15.1312
15.1777
15.1472
15.1415
15.0507
15.0565
15.0235
15.0417
15.0264
15.0396
14.9978
15.0528
15.0531
15.0362
15.1423
15.1075
15.0708
15.0972
15.0942
15.0841
15.2103
15.1851
15.1586
15.1237
15.1248
15.2099
15.1914
15.1621
15.0131
15.0109
14.9661
15.0065
14.9874
15.0453
14.9583
15.0114
14.9835
14.9354
15.2112
15.1729
15.0902
15.0716
15.0363
14.997
15.285
15.2017
15.1479
15.1039
15.0851
15.2504
15.206
15.1747
14.9555
14.9738
14.9064
14.95
14.9148
15.0508
14.9339
14.943
14.8486
14.7417
15.2484
15.228
15.0953
15.0144
14.9438
14.8033
15.3052
15.2089
15.1506
15.0778
14.9975
15.2605
15.2205
15.1783
14.8762
14.9266
14.8282
14.8754
14.8055
15.0395
14.8949
14.8313
14.621
14.3324
15.2242
15.2237
15.0569
14.9328
14.8011
14.3366
15.3322
15.2562
15.1938
15.0515
14.8235
15.3521
15.2857
15.1865
14.7812
14.859
14.7515
14.7795
14.6626
14.9819
14.8119
14.6634
14.2504
13.3839
15.1289
15.1366
14.9296
14.8106
14.6045
13.2413
15.3458
15.2904
15.2489
15.0443
14.4999
15.463
15.3713
15.2266
14.6757
14.7503
14.6523
14.6569
14.4999
14.8415
14.6078
14.3984
13.7733
10.9697
14.8886
14.7916
14.6703
14.6092
14.4021
11.6009
-10.3749
14.9156
15.1743
15.1974
15.0478
13.7237
15.3601
15.4029
15.2311
14.5721
14.6045
14.5448
14.5215
14.362
14.5509
14.2059
14.0139
13.2912
10.0268
-0.314396
14.3803
14.1654
14.2975
14.2624
13.9638
11.1476
1.63025
14.2023
14.7648
14.8883
14.8423
12.7859
15.1425
15.2327
15.1834
14.5116
14.4815
14.4537
14.4017
14.2886
14.2508
13.7506
13.4782
12.9094
11.3758
2.99223
14.0435
13.7401
13.764
13.6426
13.3112
10.3736
2.44834
13.9254
14.4637
14.5617
14.4474
12.5693
3.99069
14.8401
14.9246
14.9603
14.5556
14.4918
14.4518
14.3893
14.3349
14.1707
13.6941
13.3539
13.0759
11.6393
4.00472
14.2985
13.8898
13.6101
13.4953
13.2089
9.21434
-0.0896093
14.1249
14.3858
14.5028
14.1817
12.0534
14.6977
14.7419
14.7365
14.7634
14.6874
14.6513
14.6116
14.5851
14.3916
14.0792
13.8424
13.7291
13.1151
14.6072
14.2613
14.0372
13.8746
13.5886
10.5863
-5.43396
14.4398
14.5306
14.6393
14.4394
13.338
14.7692
14.7756
14.7592
15.1106
15.0102
15.011
15.0254
14.9796
14.6884
14.5641
14.4953
14.4876
14.5677
14.485
14.327
14.3699
14.3132
14.2913
13.2746
14.7044
14.7864
14.8937
14.8598
14.5688
14.9731
14.9534
14.9644
15.4778
15.3089
15.3582
15.4
15.3394
14.9514
15.0573
15.0031
14.9352
15.1321
14.8167
14.5349
14.7076
14.7786
14.8828
14.6833
15.0001
15.0465
15.1186
15.2147
15.2679
15.236
15.157
15.2161
15.7609
15.547
15.5869
15.5724
15.5413
15.2528
15.4098
15.2034
15.1206
15.3554
15.2243
14.9833
15.028
15.0614
15.1477
15.2191
15.2741
15.2298
15.2291
15.4119
15.5736
15.3776
15.2393
15.3694
15.7311
15.7471
15.7013
15.5767
15.4745
15.5718
15.4811
15.251
15.0243
15.3088
15.5014
15.3461
15.2247
15.1471
15.1486
15.2913
15.4234
15.2575
15.2477
15.4511
15.6113
15.4073
15.2786
15.4166
15.6221
15.8416
15.7288
15.5205
15.3313
15.6665
15.4571
15.2041
14.9663
15.0751
15.5131
15.4183
15.2605
15.1895
15.132
15.2481
15.4386
15.2274
15.2496
15.4359
15.5928
15.3987
15.3104
15.436
15.5832
15.7563
15.6615
15.5072
15.2866
15.5574
15.4147
15.2947
15.0334
15.0164
15.4207
15.3641
15.2648
15.2805
15.2079
15.3277
15.3781
15.224
15.3104
15.4505
15.6124
15.3588
15.3493
15.464
15.6373
15.7171
15.6498
15.5328
15.3557
15.4949
15.4377
15.3498
15.2318
15.1715
15.3254
15.2738
15.2854
15.2897
15.3083
15.4799
15.3173
15.2414
15.327
15.4715
15.6814
15.3894
15.4152
15.5297
15.7057
15.7572
15.6882
15.5788
15.4723
15.5193
15.4596
15.3824
15.291
15.3598
15.3279
15.2958
15.3124
15.326
15.3762
15.6526
15.3429
15.3092
15.3754
15.5275
15.7464
15.4897
15.5118
15.6226
68.8614
65.0211
67.5601
67.7597
64.7002
73.0277
103.344
102.319
80.125
72.7648
71.7464
75.2318
73.7692
69.3613
68.3728
73.8321
78.1418
77.95
88.0205
67.3457
56.6296
102.767
74.3284
77.0939
54.64
53.004
90.4715
130.663
133.274
79.0451
80.4699
91.7373
100.562
90.965
96.6264
118.498
120.805
65.6529
45.7035
82.5386
56.2287
49.5619
38.152
51.4409
39.8675
50.1268
50.9682
54.035
168.13
187.205
224.303
169.919
148.62
237.637
207.895
138.069
117.031
142.638
109.319
76.0175
83.1439
87.6523
66.7003
48.1638
50.6094
53.4488
82.6878
74.7054
65.7262
89.859
238.169
256.206
204.799
223.31
182.86
131.404
102.325
131.553
113.074
82.0292
75.6469
111.028
135.772
96.2157
127.305
163.052
139.539
101.295
145.317
135.085
135.987
129.743
139.561
166.663
124.645
167.371
66.3576
66.3998
61.056
65.1043
62.1925
59.4867
64.5329
60.1335
57.0702
46.8954
54.2976
49.8857
34.1154
47.8542
32.1094
69.3908
66.1801
67.473
69.2041
70.0891
66.9867
67.2028
66.9007
69.1009
30.2753
31.6599
27.9594
29.2389
29.5698
30.5407
30.0364
28.1988
30.3831
71.5144
94.574
86.3821
66.342
80.5664
70.6605
28.5759
27.9345
30.6339
30.9212
31.2713
146.69
185.778
99.0824
101.715
126.121
28.7769
34.1023
31.0727
31.1103
30.3798
193.403
127.871
116.056
152.811
110.892
109.973
94.3853
103.374
99.1541
55.2738
87.0655
88.4599
41.0743
33.3056
46.2073
43.2092
30.7512
108.105
99.961
104.089
101.174
98.3101
93.8811
95.8813
110.381
101.737
91.4725
84.0532
96.2745
71.3088
65.1113
63.0886
57.7755
63.3188
58.1085
55.8835
62.2375
53.9509
43.0316
31.1948
45.4938
30.8397
27.2755
30.1237
26.2832
61.7826
56.9242
65.8197
63.0912
66.911
59.0389
62.7696
57.2398
60.0799
29.3949
30.0883
29.9401
27.224
28.255
28.2892
28.6913
30.0223
29.5906
61.9634
64.1813
62.7955
58.2227
57.3106
57.8476
30.2507
30.0791
29.7783
29.4359
30.2806
72.8146
85.9041
56.2898
56.3733
59.4885
30.8505
29.8971
29.864
30.6537
28.817
89.7463
66.0943
90.1158
89.0463
95.8335
65.9408
77.7108
65.9859
66.4387
29.6964
40.7503
32.5727
31.0314
26.9913
35.0352
29.4288
27.3551
91.2238
54.8742
77.0697
75.3139
28.7568
32.9814
30.8219
67.1927
78.3353
47.4026
47.4986
44.8421
41.2931
43.179
17.3304
42.2349
48.4728
38.6795
26.686
21.38
25.4509
24.314
24.1687
23.6191
22.4478
22.9449
24.2261
23.7942
51.9508
46.8616
41.2489
49.2652
43.0154
26.8771
18.7333
38.0711
24.1178
26.717
26.2799
27.3628
24.5407
25.5892
25.0879
26.1694
28.3616
27.3577
53.9715
46.8601
48.2897
44.7053
33.1285
32.7593
28.206
28.7055
27.5313
26.7773
27.1071
37.7118
37.7957
26.5863
23.5325
25.2945
29.0422
27.2507
26.1543
27.1261
25.8816
46.5703
30.8401
55.8977
43.6598
38.4106
31.5592
34.9907
28.6423
25.0187
25.3908
28.0864
26.6729
21.8582
24.1946
21.9975
24.2594
25.0625
26.6266
21.5148
20.3163
19.5707
20.9919
18.909
20.3609
30.2113
20.0957
16.8792
16.9214
17.6507
19.7306
16.055
16.1656
19.1562
16.2046
18.0034
15.497
15.8646
15.3994
21.5193
22.7975
18.0032
21.0325
22.9198
24.1451
24.66
36.7491
19.1426
16.1479
24.143
16.7629
17.257
16.2389
17.8384
16.134
24.8442
24.709
25.1888
24.1926
24.4943
24.7107
24.6065
26.2833
25.5247
26.326
22.8445
21.9254
17.6722
18.0789
17.8298
25.3899
25.5453
25.1795
24.7326
24.3971
19.4886
20.4316
18.4869
18.1858
18.8171
24.9995
24.849
22.985
23.2112
24.3617
21.9724
18.6065
22.8088
21.0469
19.6142
18.4796
17.7185
17.7311
17.4795
23.8783
16.6814
21.0811
16.8492
21.105
15.3616
15.9633
23.0824
18.9377
17.5497
18.1565
19.1446
18.0764
17.5386
18.2634
15.9116
16.9203
16.0228
15.6601
16.436
15.5761
15.8589
15.5719
15.105
15.7705
15.0599
15.1869
15.5335
15.1492
15.8601
20.163
15.1262
15.0677
15.2793
23.9872
17.8139
16.4542
15.4649
15.823
16.6588
16.168
15.0627
15.3531
15.6753
15.7724
24.5181
24.8432
24.5051
21.8041
23.5959
25.5128
24.5827
25.0541
24.6647
15.7453
16.4403
16.567
14.9438
15.6156
15.6463
24.8011
23.4636
23.868
26.2759
18.482
17.1223
17.5582
16.0124
16.1416
16.4336
21.5039
24.1805
22.0094
16.5252
22.1932
16.9626
15.9255
16.0104
16.2545
16.7777
15.5786
15.3725
15.7312
16.476
15.7661
15.3492
15.2365
15.0238
14.8733
15.2661
15.0485
15.7196
16.4915
15.8792
16.9749
17.0073
15.8471
16.1796
15.7974
15.377
15.6014
15.0165
15.1589
15.0019
15.3245
15.3565
15.1914
15.2343
15.3359
15.1185
15.1986
15.1997
15.0447
15.2962
14.8416
15.148
15.1382
15.2386
14.6891
14.8089
14.8278
14.5134
15.1158
15.0519
15.3107
14.8384
14.9803
14.8611
15.0029
18.232
18.6075
22.4465
13.4632
13.5681
12.8301
15.3886
22.7402
16.2352
14.5827
15.0973
14.9743
14.722
14.8409
14.6538
13.1354
22.8768
20.0371
15.6937
14.0453
12.8909
14.0758
15.2266
15.4247
15.1932
15.0221
15.3069
14.8893
15.0574
15.3037
15.6318
14.8289
14.7587
15.0144
19.9486
15.5858
14.9618
14.5632
14.2093
14.4147
14.454
15.1745
15.1601
15.0681
15.0074
15.0069
14.966
14.9457
15.3643
15.0751
15.1409
15.5039
16.2283
15.3181
15.0067
15.4098
16.0244
14.9111
15.0812
14.951
14.9259
14.9617
14.9423
14.9476
15.0097
15.6
15.5017
15.2648
15.014
14.5243
14.836
14.8368
15.0104
14.8078
14.7382
14.8839
14.7619
14.9831
15.0496
14.9417
15.1055
15.0748
14.9297
15.0081
14.9713
14.8333
14.999
15.1903
14.9668
14.9075
15.089
15.0816
15.0069
14.7636
14.6491
14.8606
14.7523
14.7023
14.7638
14.7902
14.5889
14.5946
13.8633
14.0837
12.8261
14.8214
14.6224
14.7714
14.3931
12.9752
15.3909
14.7204
15.7467
15.3559
15.3177
15.286
15.3124
14.8233
14.5639
14.702
14.6938
14.7617
14.7513
15.2991
13.4347
14.5158
14.3863
15.5979
14.503
14.8898
15.309
15.0896
15.0866
15.3952
15.3065
14.9013
15.0133
14.5322
14.756
14.7657
14.6798
14.6849
14.555
14.886
14.9161
14.769
14.8948
14.6686
14.868
15.0626
15.0977
15.011
14.979
15.0045
15.0237
15.0011
14.8551
14.5168
14.9325
15.4056
15.7197
15.2631
14.6089
14.4011
14.5287
14.9587
14.8975
14.9702
14.8162
14.9625
14.897
14.9729
15.1123
14.831
15.108
15.0413
15.0457
15.0447
14.5913
14.6991
14.7606
14.7859
14.7701
14.7689
14.7837
14.8265
14.7493
14.7361
14.7988
14.7457
14.8631
14.8594
14.8174
14.9247
14.8952
14.79
14.8708
14.8478
14.7599
14.8375
15.0241
14.8268
14.7727
14.9678
14.9074
14.8794
14.6034
14.6156
14.7448
14.5528
14.6306
14.7069
14.7307
14.5809
14.6366
14.7288
14.7101
14.9392
14.6757
14.6334
14.6331
14.7326
15.2201
15.6527
14.6838
15.3386
15.247
15.3073
15.213
15.2762
14.602
14.6472
14.6263
14.5915
14.5723
14.5405
15.5855
14.7587
15.0397
14.8557
15.2479
14.6475
15.0547
15.2856
14.9114
15.063
15.2231
15.2348
14.9993
15.1048
14.6043
14.4483
14.5988
14.573
14.625
15.0513
14.5783
14.9453
14.4866
15.1086
14.6086
15.0784
15.067
15.0883
15.0606
15.1236
15.1117
15.0873
15.1151
14.592
14.7307
14.6799
14.6956
14.7582
14.7127
14.6965
14.7553
14.7671
14.9385
14.8811
14.9287
14.7666
14.8813
14.8547
14.8715
15.0727
14.6452
15.019
15.0755
15.0751
15.1042
14.7985
14.7807
14.777
14.7785
14.7781
14.783
14.7841
14.7874
14.7703
14.7811
14.7947
14.7866
14.8285
14.8067
14.7938
14.8289
14.8157
14.7323
14.8011
14.7861
14.7199
14.7257
14.8996
14.7516
14.7028
14.8478
14.8778
14.8971
14.619
14.6168
14.7413
14.6049
14.6199
14.7685
14.7427
14.6262
14.6012
14.6128
14.6257
14.585
14.7927
14.6517
14.6482
14.5896
14.1494
13.9653
14.5896
14.4967
14.4988
14.5722
14.4347
14.4488
15.0659
14.5457
15.061
14.2187
14.5263
14.4104
15.0346
15.2147
15.1275
15.1543
15.1397
15.1995
15.1971
15.1841
14.5743
14.5985
14.5104
14.5128
14.5636
15.2009
14.5601
15.3116
14.4408
15.296
14.4531
15.3698
15.1644
15.1412
15.1633
15.2811
15.2218
15.1934
15.2066
14.6794
14.6563
14.7081
14.7362
14.7754
14.6765
14.6864
14.7321
14.7752
14.8339
14.826
14.8291
14.712
14.8012
14.8066
14.8043
14.5774
14.7841
14.7874
14.7874
14.7927
14.8108
14.7933
14.7998
14.7979
14.8014
14.8072
14.8002
14.8094
14.8037
14.7738
14.7562
14.7913
14.767
14.7202
14.7876
14.7592
14.7221
14.6904
14.8323
14.7192
14.6741
14.7927
14.9219
14.8855
14.6291
14.6648
14.7304
14.6541
14.5982
14.7976
14.7151
14.6819
14.5977
14.685
14.6628
14.6376
14.7698
14.6867
14.6682
14.6676
14.1989
14.4495
14.5653
14.5367
14.4879
14.6069
14.659
14.567
14.4183
15.9894
14.2405
14.264
13.3239
14.5075
14.57
14.5983
14.5513
14.5907
16.0843
14.4347
14.647
13.5526
14.6069
14.6562
14.67
14.6766
14.7413
14.7869
14.6439
14.6645
14.7561
14.8032
14.782
14.7977
14.7925
14.7475
14.7734
14.7985
14.7926
14.7095
14.796
14.8055
14.8054
14.8124
14.8389
14.8237
14.8294
14.8089
14.8266
14.8429
14.822
14.8403
14.8147
14.7525
14.7673
14.787
14.7616
14.7262
14.7943
14.7798
14.7352
14.6639
14.7359
14.703
14.6607
14.7008
14.8087
14.8041
14.713
14.7762
14.7177
14.7137
14.6113
14.8302
14.7464
14.7607
14.6527
14.6824
14.6686
14.677
14.7916
14.6934
14.6762
14.6707
14.5636
14.5949
14.668
14.7451
14.6322
14.7506
14.8131
14.6989
14.533
14.371
14.5084
14.6051
14.6805
14.6068
14.628
14.7322
14.6629
14.6714
14.6356
14.7166
14.8445
14.8841
14.6911
14.6988
14.7344
14.6535
14.7802
14.8227
14.6404
14.6464
14.8078
14.8441
14.7815
14.8067
14.8008
14.7909
14.7978
14.8186
14.8124
14.7664
14.8225
14.8438
14.8495
14.8535
14.8802
14.8758
14.8755
14.8374
14.8627
14.8829
14.8547
14.8792
14.8433
14.7982
14.8407
14.8059
14.8075
14.7446
14.8147
14.8352
14.7509
14.662
14.6776
14.7031
14.6604
14.6705
14.8136
14.8085
14.8542
14.9426
14.7916
14.8303
14.7133
14.9328
14.8483
14.9102
14.7923
14.7042
14.6942
14.6681
14.8068
14.7264
14.7158
14.6965
14.5445
14.5315
14.8453
14.8953
14.7649
14.939
14.9929
14.8318
14.2703
14.309
14.2714
14.0561
14.1515
14.7088
14.7214
14.8487
14.7525
14.7763
14.6738
14.6415
14.5014
14.5378
14.6324
14.7812
14.8335
14.6482
14.8399
14.8682
14.708
14.6625
14.8716
14.8914
14.8189
14.8359
14.8325
14.8462
14.8453
14.8595
14.8563
14.7737
14.8711
14.8979
14.9029
14.9005
14.9249
14.9286
14.924
14.8711
14.9016
14.924
14.8933
14.9214
14.8884
14.8893
14.9357
14.8241
14.862
14.7597
14.8394
14.8877
14.7782
14.6616
14.6799
14.72
14.6789
14.7092
14.8071
14.8257
15.03
15.096
14.9084
14.9758
14.8757
15.0307
14.9523
15.007
14.9426
14.7559
14.7565
14.744
14.7817
14.809
14.8028
14.8195
14.6121
14.7849
15.017
15.0786
14.8884
15.0609
15.1508
14.9477
14.1974
14.2983
14.5729
14.4315
14.533
14.8003
14.8386
14.9882
14.8613
14.9061
14.5086
14.6878
14.5532
14.6058
14.7734
14.8899
14.9446
14.69
14.9055
14.9145
14.8341
14.7294
14.9382
14.9357
14.8808
14.8913
14.8915
14.9254
14.9215
14.9275
14.929
14.8884
14.9266
14.9529
14.9558
14.95
14.9673
14.9822
14.9747
14.9185
14.947
14.9713
14.946
14.969
14.9511
14.9704
14.9872
14.8615
14.9173
14.8074
14.8913
14.9514
14.8456
14.706
14.7544
14.7805
14.7417
14.8038
14.8677
14.9181
15.1115
15.1268
14.973
15.0277
14.9972
15.0702
14.9931
15.072
15.0427
14.8883
14.8189
14.9521
14.897
15.0632
14.8536
15.0599
14.968
15.0972
15.102
15.209
15.0256
15.16
15.2499
15.1116
14.6783
14.7886
15.0367
14.918
14.9814
14.9383
14.9724
15.1417
15.0238
15.0347
14.776
14.8815
14.8526
14.9437
14.9852
14.9913
15.0227
14.7866
14.9666
14.9565
14.9492
14.8426
14.9957
14.9808
14.9712
14.967
14.9757
15.0041
15.0197
15.0046
15.0176
15.0377
14.9792
14.9994
15.0087
15.0003
15.0003
15.0308
15.0224
14.9746
14.9957
15.0194
14.9998
15.0188
15.0165
15.0239
15.1239
14.9233
14.9838
14.8774
14.9508
15.0194
14.9073
14.7908
14.8595
14.8832
14.8458
14.9526
14.9614
15.0448
15.173
15.1998
15.0501
15.1113
15.0856
15.1591
15.1518
15.146
15.1497
15.2301
14.8824
15.1088
14.9835
15.2111
14.92
15.1504
15.1675
15.1862
15.2037
15.2554
15.1804
15.2187
15.2643
15.222
15.0736
15.1012
15.2022
15.1316
15.1644
15.1038
15.0813
15.2506
15.1677
15.115
15.0639
15.0668
15.0453
15.134
15.1192
15.0454
15.0656
14.8849
15.0253
15.0021
15.0142
14.9145
15.0521
15.0202
15.0653
15.0369
15.0551
15.0628
15.0974
15.0638
15.0816
15.1311
15.0178
15.0301
15.0514
15.0429
15.0237
15.0659
15.0581
15.0276
15.0446
15.0694
15.0497
15.0686
15.0695
15.1883
15.1603
15.0076
14.9944
14.9813
15.0989
15.0863
15.1085
14.9282
15.0582
15.1328
15.085
15.2038
15.1581
15.2335
15.1845
15.1597
15.1902
15.1449
15.1678
15.1611
15.1579
15.1152
15.1449
15.1906
14.9859
15.1595
15.1561
15.1915
15.0636
15.1633
15.1796
15.1872
15.2148
15.2355
15.2206
15.1873
15.2213
15.2002
15.1527
15.1904
15.1748
15.1543
15.1976
15.1879
15.1258
15.1944
15.1851
15.1274
15.1646
15.1499
15.1076
15.1755
15.165
15.0804
15.0963
14.9394
15.0737
15.0372
15.0568
14.9608
15.0998
15.0536
15.1175
15.0837
15.0993
15.0976
15.129
15.0985
15.1119
15.1587
15.0454
15.0625
15.0765
15.0704
15.0328
15.0872
15.08
15.0726
15.0905
15.1089
15.0911
15.1083
15.1068
15.1648
15.1765
15.1781
15.2351
15.1895
15.2037
15.2366
15.1872
15.2126
15.2822
15.2528
15.2326
15.2613
15.2445
15.2275
15.1342
15.1202
15.1389
15.1003
15.1117
15.128
15.1377
15.0896
15.0784
15.1903
15.1121
15.1627
15.1839
15.19
15.132
15.1635
15.1997
15.2003
15.1583
15.2011
15.1921
15.141
15.1786
15.1816
15.1559
15.1957
15.1501
15.1538
15.1858
15.1676
15.1273
15.1549
15.1448
15.1369
15.1765
15.1685
15.1374
15.1745
15.1678
15.1191
15.1501
14.9945
15.1351
15.0768
15.1344
15.0365
15.1816
15.1034
15.1325
15.1083
15.1209
15.114
15.133
15.1163
15.1259
15.1525
15.0909
15.1274
15.0916
15.089
15.0533
15.0986
15.103
15.1099
15.1193
15.1259
15.1228
15.1296
15.1262
15.1684
15.1514
15.1976
15.1962
15.1803
15.1726
15.1641
15.1632
15.2176
15.2316
15.195
15.1874
15.1979
15.2088
15.1865
15.1162
15.114
15.1411
15.0838
15.0713
15.1249
15.1357
15.0922
15.0562
15.1883
15.1357
15.1578
15.1652
15.183
15.1324
15.1444
15.1914
15.1778
15.1327
15.1548
15.1566
15.1215
15.1451
15.1388
15.1498
15.1727
15.1246
15.1436
15.16
15.1445
15.1686
15.1787
15.1763
15.2044
15.1673
15.1627
15.1408
15.1581
15.1551
15.1843
15.2127
15.0928
15.2276
15.142
15.2206
15.1529
15.2547
15.1757
15.1297
15.1224
15.1286
15.1171
15.126
15.1277
15.1302
15.1407
15.1771
15.2326
15.1142
15.126
15.0987
15.1275
15.1549
15.1322
15.1373
15.136
15.1439
15.1495
15.1408
15.1304
15.1082
15.1423
15.1344
15.1364
15.1187
15.1034
15.1117
15.1536
15.1664
15.1321
15.1245
15.1446
15.1632
15.1404
15.1079
15.0954
15.1175
15.0961
15.0735
15.0977
15.099
15.0962
15.0937
15.169
15.122
15.1267
15.1317
15.1452
15.1034
15.0994
15.155
15.119
15.1182
15.145
15.1368
15.1157
15.1457
15.141
15.1319
15.1438
15.101
15.1176
15.1267
15.2024
15.2227
15.2004
15.2027
15.2201
15.1465
15.1458
15.1288
15.1346
15.1343
15.2282
15.2284
15.1946
15.2483
15.2002
15.2297
15.2188
15.2204
15.2087
15.1209
15.1318
15.1308
15.1145
15.1148
15.1323
15.1295
15.1253
15.2906
15.3088
15.1545
15.1896
15.1572
15.176
15.2172
15.155
15.1614
15.1505
15.1654
15.1721
15.1511
15.0881
15.0701
15.0969
15.0812
15.0957
15.0703
15.0549
15.0714
15.1028
15.1215
15.08
15.0789
15.0932
15.1174
15.0919
15.0966
15.0973
15.0802
15.0865
15.0878
15.0761
15.0617
15.0825
15.0746
15.1132
15.0856
15.0736
15.0813
15.0813
15.0635
15.051
15.0839
15.0565
15.1157
15.1477
15.1421
15.1153
15.1462
15.1367
15.1035
15.1067
15.0671
15.0888
15.0909
15.1894
15.2108
15.1788
15.1722
15.1953
15.1224
15.1228
15.1145
15.111
15.108
15.2186
15.2029
15.2201
15.1952
15.1918
15.1879
15.199
15.1764
15.164
15.1089
15.1313
15.1251
15.1038
15.1013
15.1257
15.1183
15.1077
15.2723
15.2152
15.1865
15.2299
15.1756
15.1841
15.229
15.1717
15.1761
15.1484
15.1702
15.1745
15.15