/*--------------------------------*- C++ -*----------------------------------*\
| =========                 |                                                 |
| \\      /  F ield         | OpenFOAM: The Open Source CFD Toolbox           |
|  \\    /   O peration     | Version:  5.x                                   |
|   \\  /    A nd           | Web:      www.OpenFOAM.org                      |
|    \\/     M anipulation  |                                                 |
\*---------------------------------------------------------------------------*/
FoamFile
{
    version     2.0;
    format      ascii;
    class       surfaceScalarField;
    location    "4";
    object      phi;
}
// * * * * * * * * * * * * * * * * * * * * * * * * * * * * * * * * * * * * * //

dimensions      [0 3 -1 0 0 0 0];

internalField   nonuniform List<scalar> 
29271
(
-1.16436e-05
-8.23951e-06
-2.93453e-07
2.01766e-05
-9.16675e-06
3.86579e-06
-3.86088e-06
9.14731e-06
-3.25876e-05
1.06125e-05
-1.18789e-05
1.84733e-05
-1.41028e-05
2.94836e-05
-1.98816e-05
-7.34909e-06
-1.39932e-05
7.3874e-06
1.06184e-05
2.32181e-05
-2.21491e-05
-3.14444e-06
9.9861e-07
4.04584e-06
2.08755e-05
-6.26417e-07
-2.96565e-05
1.01371e-05
-6.81712e-06
-2.46369e-06
-2.05538e-05
4.9354e-05
-1.62307e-05
9.15148e-06
2.94749e-06
2.36754e-06
-3.46681e-06
5.23101e-06
-2.86177e-05
-2.42304e-06
-1.36431e-05
2.12095e-05
-3.03556e-06
2.65099e-05
-2.49908e-05
-5.94788e-06
-1.20756e-05
3.25911e-06
2.76825e-06
3.69869e-05
-2.13724e-05
-1.535e-06
-2.06531e-06
2.17388e-05
3.24789e-06
-4.31187e-06
4.70713e-06
-1.79973e-06
1.43976e-06
-2.30446e-05
-4.56361e-06
2.20262e-05
1.97025e-06
-6.05423e-06
9.66603e-06
-1.86327e-05
8.55978e-07
-1.41314e-06
8.24717e-06
3.17936e-06
7.7633e-06
-2.86864e-05
3.43786e-06
-1.89588e-05
1.16999e-05
-9.65746e-06
4.21649e-05
-2.68141e-05
2.4075e-06
-7.74338e-06
1.54704e-06
-1.34808e-05
4.40837e-05
-2.43201e-05
2.52008e-06
-3.42002e-06
-2.21866e-06
2.24223e-05
5.01644e-06
-1.76728e-05
-2.02366e-06
6.77159e-06
1.36441e-06
1.07331e-05
8.27362e-07
-2.65564e-05
-7.894e-06
7.72239e-07
1.30511e-05
-5.08166e-06
2.57087e-05
-3.44599e-05
1.86271e-05
-2.86933e-05
3.22697e-05
-2.58914e-05
3.81478e-05
-2.66921e-05
-1.24866e-06
-1.32401e-05
3.1251e-05
2.19705e-05
-1.20407e-05
-7.52629e-06
2.04632e-06
-1.00936e-06
6.60572e-06
-2.10013e-05
-1.60166e-06
-3.14286e-07
1.5672e-05
7.3022e-06
-2.1088e-05
1.02284e-06
-1.81296e-06
-3.76946e-06
1.16818e-05
1.39658e-05
-5.72731e-06
2.93795e-06
1.03319e-06
1.90393e-06
-1.74683e-05
-1.57596e-05
2.6209e-05
7.06747e-06
-8.22451e-06
-1.28182e-06
4.27902e-06
5.262e-06
2.30584e-06
-6.68844e-06
-1.88798e-05
1.44851e-05
1.65406e-06
7.12328e-06
-2.04982e-05
-3.08848e-05
-2.40156e-05
2.11126e-05
1.54677e-05
3.88183e-05
-3.26808e-05
-3.98801e-06
1.97594e-06
4.36389e-06
4.56829e-05
-1.5354e-05
-1.24069e-06
3.15117e-06
-5.93485e-05
-7.53199e-07
-6.04306e-06
6.42343e-05
2.7416e-05
-8.45866e-06
1.67554e-05
-4.03566e-06
-1.71779e-06
-3.6735e-06
-1.62163e-06
-2.56436e-06
-1.89725e-06
-1.23961e-06
-4.36333e-07
-6.46421e-06
-5.10363e-06
-3.52182e-06
-3.43694e-06
6.49596e-05
-4.96775e-05
0.000155157
-2.13774e-05
-5.00737e-05
-1.40773e-05
-4.87439e-05
-4.66563e-06
-4.11603e-06
-8.60621e-07
8.91262e-07
6.26055e-06
-7.77388e-05
0.000306281
1.2996e-06
6.07171e-06
6.4916e-06
1.02071e-05
9.48375e-06
1.2315e-05
1.51689e-05
-5.8881e-05
-5.1309e-05
-6.1806e-05
-5.88846e-05
-2.77849e-05
6.45555e-06
-7.5765e-06
3.51664e-05
-8.67387e-07
2.49341e-07
4.27498e-08
5.70587e-07
-7.45591e-07
-5.60818e-06
4.63094e-06
-2.48964e-06
-8.26116e-07
5.03859e-06
3.53505e-05
-8.19046e-06
1.4613e-05
-4.00779e-06
-2.90771e-06
-2.64389e-05
-1.9509e-05
3.47282e-07
-4.02302e-07
6.80089e-07
2.00675e-06
0.000105258
-3.37678e-05
5.5984e-05
-3.15473e-05
-3.94962e-05
-2.59744e-05
-4.47835e-05
1.98464e-05
-1.27966e-05
0.000226396
1.55515e-05
2.28841e-05
2.08942e-05
-9.78377e-06
-7.60111e-06
-7.09288e-06
-6.62687e-05
-5.74079e-05
-6.37896e-05
-5.33117e-05
-3.75934e-05
8.75003e-06
1.00299e-05
-1.02208e-05
4.88806e-05
-5.84066e-06
-2.75347e-07
-1.70326e-06
-6.22246e-07
7.60087e-06
8.40646e-07
5.06056e-06
7.96303e-07
3.39295e-05
1.07116e-06
6.28294e-07
2.18242e-06
1.04624e-06
8.9607e-07
3.45568e-06
2.5806e-06
-1.7061e-05
-9.23876e-06
-1.79792e-05
-1.55583e-05
8.12396e-06
-7.3713e-07
9.96286e-06
1.04037e-06
5.66872e-06
8.42473e-07
-6.1101e-07
-8.93815e-08
-6.78906e-08
-2.06509e-05
-2.06726e-05
-9.57322e-06
-1.94347e-06
-1.96907e-05
8.39052e-06
-2.47273e-06
9.10024e-06
-7.72075e-06
1.67194e-06
-2.72375e-06
8.76007e-06
-8.9727e-06
-4.16322e-07
-3.25901e-07
1.05052e-05
-5.49639e-06
3.72622e-07
5.71957e-07
-3.11514e-07
4.12619e-06
-3.38782e-07
8.58551e-07
-4.78011e-07
-1.87573e-08
-1.2948e-06
-1.01122e-07
1.34163e-06
8.58712e-08
-3.56442e-06
3.22027e-07
-8.45747e-07
4.1338e-06
-9.35943e-07
2.30719e-07
-4.18319e-06
9.70099e-07
9.42271e-07
2.97604e-06
-7.29177e-06
-3.67909e-05
-4.84169e-06
1.02185e-05
6.98422e-06
3.17217e-05
-5.76349e-05
3.98384e-06
-3.76139e-06
-5.05847e-07
6.43521e-05
-6.43389e-06
-9.10696e-07
-9.44841e-06
-7.19436e-05
7.34379e-06
1.0181e-06
7.39408e-05
-7.8465e-06
-2.4078e-06
3.44101e-05
-4.23294e-07
-4.84226e-07
-2.80674e-07
2.33934e-06
-2.68794e-06
-2.19238e-06
-2.70509e-06
-9.66128e-07
3.90973e-05
-9.21812e-06
0.000114247
-2.68534e-06
-1.87253e-06
4.30227e-06
3.43961e-06
7.98114e-06
-6.2435e-05
0.000339981
3.52811e-06
8.55028e-06
7.88601e-06
9.70391e-06
9.06926e-06
1.03132e-05
1.08004e-05
-4.8568e-05
8.40649e-06
-1.08027e-05
5.89453e-05
-6.47935e-07
-2.65213e-07
2.53659e-07
6.47595e-07
1.09334e-06
-5.35873e-06
-3.75747e-06
-1.32031e-06
1.71678e-06
7.62639e-06
-2.8286e-06
1.73195e-06
8.06045e-06
1.09285e-06
1.24923e-06
1.4826e-06
1.41673e-06
3.52901e-05
1.97875e-06
6.66847e-06
1.76215e-05
-3.5167e-06
0.0001453
1.55645e-05
1.75284e-05
1.51395e-05
-3.56992e-06
-2.32061e-06
-2.49609e-06
-5.99575e-05
1.00473e-05
1.22835e-05
-1.07244e-05
6.59726e-05
-9.84259e-06
3.75428e-07
-2.19046e-06
-2.48809e-07
1.04435e-05
1.46295e-06
-3.90933e-06
8.059e-06
9.56259e-06
2.7394e-07
1.89632e-07
6.2308e-07
5.72441e-09
3.59586e-06
8.59825e-06
8.66268e-06
-1.03904e-06
5.2258e-07
7.9479e-06
-5.59366e-07
-1.01334e-06
-6.71375e-07
2.32767e-07
2.19842e-06
4.13737e-07
-4.26073e-06
-8.55307e-07
1.6944e-07
3.90855e-07
-9.22679e-06
-1.70362e-06
2.062e-06
8.86411e-06
-1.593e-05
-4.00471e-06
5.50436e-06
2.24889e-05
-2.76471e-06
1.38787e-06
-1.14473e-06
6.19611e-07
2.42453e-06
1.87593e-07
-9.91707e-08
2.56652e-07
-3.16993e-07
4.56527e-08
8.71972e-07
-1.03716e-06
1.35592e-07
-7.17785e-06
7.54524e-06
-8.11827e-06
7.73272e-06
7.93811e-07
1.87005e-07
-2.8591e-06
-3.98183e-06
-2.61687e-07
6.1218e-06
-4.27446e-06
-3.14402e-05
7.52741e-06
-6.15679e-06
1.75755e-06
3.25865e-05
-6.84694e-05
1.00003e-05
-8.85395e-06
-5.96476e-06
6.75294e-05
5.7584e-06
1.0941e-06
-5.22544e-06
-6.78119e-05
1.20461e-05
2.42544e-06
5.74716e-05
-2.35289e-05
1.66815e-06
6.4844e-05
-4.43467e-07
-2.11271e-06
5.69018e-07
-4.55053e-07
-3.62941e-06
2.97287e-07
-3.98981e-06
1.19095e-06
2.15975e-06
6.51305e-06
8.37425e-05
1.21657e-06
-1.70546e-06
5.35535e-07
-1.74348e-06
5.05824e-06
-2.07481e-05
0.000310103
4.76086e-06
9.23891e-06
7.85996e-06
9.00432e-06
5.12835e-06
5.50116e-06
6.23405e-06
-6.90508e-05
8.33252e-06
-9.80255e-06
7.55791e-05
-5.94915e-07
1.50723e-08
-3.06555e-08
5.37125e-07
2.03455e-06
-1.04011e-05
-1.80081e-06
-1.2206e-06
-1.40154e-06
1.27895e-05
-6.40004e-06
2.19326e-07
1.08297e-05
1.4144e-06
1.32984e-06
1.22748e-06
1.10794e-06
-1.55174e-05
4.86795e-06
1.7431e-05
6.31682e-06
1.51819e-06
7.97615e-05
5.94145e-06
6.19439e-06
3.93148e-06
1.78488e-06
1.9537e-06
1.63198e-06
-7.56303e-05
6.23061e-06
7.42152e-06
-9.04992e-06
7.73449e-05
-9.58151e-06
8.27634e-07
-1.15329e-06
5.35808e-07
8.03172e-06
1.33964e-06
-4.96987e-06
1.42766e-06
9.96416e-06
9.45947e-07
-4.39757e-07
7.77247e-07
-9.78138e-07
4.46767e-06
-4.65425e-07
-9.47574e-07
-1.68129e-06
-1.17016e-06
2.09577e-05
-1.05798e-06
-1.56374e-06
-1.76042e-06
-1.69989e-07
-3.51709e-06
-2.19109e-06
1.39697e-06
-1.89447e-06
9.96951e-07
-6.62543e-07
-6.96266e-06
-4.3658e-07
3.14869e-06
4.26031e-06
-1.97288e-05
-1.64184e-06
1.07299e-05
1.20634e-05
-1.07627e-05
-1.08889e-05
7.37235e-06
-8.06763e-06
2.11767e-05
2.7229e-07
-7.43844e-07
-5.97229e-07
1.06895e-06
-9.03643e-07
2.04185e-06
-2.82313e-06
1.61047e-06
-4.16739e-06
5.0966e-06
-2.6062e-06
1.60725e-06
4.472e-06
-1.86204e-06
-1.37237e-05
-7.93009e-06
-3.38397e-06
2.24278e-05
4.01952e-06
-3.27235e-05
1.356e-05
-1.41702e-05
-2.34597e-06
3.16602e-05
-6.71506e-05
5.61245e-06
-8.41855e-06
-7.00749e-06
6.4122e-05
1.28423e-05
6.52567e-08
-2.01384e-06
-5.12766e-05
4.82486e-06
6.91923e-07
4.77084e-05
-2.23856e-05
4.45015e-06
8.84663e-05
3.20501e-07
-2.82075e-07
9.07029e-07
6.89447e-07
-2.57048e-06
-9.76977e-07
-1.67464e-06
-2.09964e-06
-3.94301e-05
1.67985e-05
0.000108093
-4.7789e-06
-1.20038e-05
-2.7018e-06
-4.61991e-06
2.48945e-06
9.41631e-06
0.00023482
1.05785e-06
3.96652e-06
2.63901e-06
3.58338e-06
2.79867e-06
3.66609e-06
6.23505e-06
-8.17327e-05
6.26987e-06
-6.3564e-06
8.43086e-05
-3.99505e-07
2.84737e-07
-1.35617e-07
2.26833e-07
-2.60378e-06
-1.55332e-05
5.74546e-07
1.05968e-06
-2.41465e-06
1.89174e-05
-1.00624e-05
-1.22136e-06
2.49358e-05
3.99059e-08
7.44655e-07
2.27143e-07
6.16105e-07
-2.11687e-05
-1.07732e-06
4.6413e-05
2.19066e-06
2.33813e-06
5.63698e-05
-4.98024e-06
3.7297e-06
-4.34191e-06
2.17161e-06
6.46741e-06
4.06394e-06
-8.05947e-05
3.17969e-06
1.01588e-05
-3.73741e-06
7.31843e-05
-7.06841e-06
-1.13403e-07
-4.88433e-07
5.69495e-07
6.73392e-06
3.66839e-07
2.88645e-06
-5.9367e-07
1.21139e-05
3.59326e-07
-1.97703e-06
2.50004e-07
-1.37229e-06
-2.66453e-06
-5.42488e-08
-2.05096e-07
-9.35176e-07
-4.08098e-06
3.5927e-05
1.28608e-06
-1.2248e-06
2.20838e-06
-4.07948e-06
-2.54077e-06
-3.79337e-06
4.81199e-07
-1.47875e-06
-2.6815e-07
2.66865e-06
-1.71664e-06
-2.32584e-06
2.23368e-06
1.84568e-06
-5.78855e-06
-9.12745e-07
3.45616e-06
2.63395e-06
-2.21442e-05
-9.71415e-06
1.41535e-05
-4.03296e-06
1.76568e-05
-5.22191e-06
5.74219e-06
-8.12158e-06
7.60122e-06
-2.70048e-06
-1.83445e-06
-3.24516e-07
4.85945e-06
-8.28942e-07
1.50784e-06
-2.1568e-06
1.29798e-06
6.03487e-06
-1.65139e-07
-2.88477e-05
-3.93306e-06
-4.96235e-06
3.18734e-05
-1.83073e-06
-3.30633e-05
8.17955e-06
-8.90872e-06
7.38254e-07
3.48849e-05
-6.34015e-05
1.15851e-05
-9.81196e-06
-6.49497e-06
5.83767e-05
9.74666e-06
2.01544e-06
-3.51293e-07
-4.30769e-05
4.18892e-06
6.20236e-09
3.72177e-05
-1.90791e-05
7.65292e-06
0.000101083
2.76066e-06
1.48008e-06
3.67885e-06
3.75884e-06
-2.84947e-06
-3.7095e-06
-3.38857e-06
-2.92124e-06
-4.03481e-05
9.19451e-06
0.000128093
-2.17915e-06
-1.47864e-06
-3.43275e-06
-8.34428e-07
1.37864e-06
9.97555e-06
0.00018322
-1.02014e-07
1.2271e-06
2.92392e-06
2.22881e-07
-1.13934e-06
-2.29361e-06
-9.41347e-07
-8.20327e-05
6.40884e-07
2.81758e-05
-1.21841e-05
6.67787e-05
-1.74534e-06
-4.98968e-08
-3.49832e-07
2.14304e-06
-1.93009e-07
1.59016e-07
-2.177e-07
2.3315e-07
-3.08679e-06
-2.20757e-05
-3.54755e-08
3.81142e-06
-1.52427e-06
2.29108e-05
-2.60311e-06
6.25032e-06
3.62134e-05
-1.52718e-06
-5.91818e-07
-3.62905e-06
-1.52393e-06
-1.58453e-05
-6.15096e-07
6.94649e-05
-1.58596e-06
3.22331e-06
6.36116e-05
-2.26773e-06
-2.58989e-06
-2.06793e-06
-1.3818e-06
-2.04551e-06
-4.39606e-06
-6.17075e-05
-1.85636e-06
9.41202e-06
9.348e-06
4.32179e-05
1.24636e-08
-3.49969e-06
4.69545e-08
1.18049e-07
3.32122e-06
-6.43126e-06
-4.08062e-07
3.17628e-07
6.79345e-07
5.42835e-06
4.14006e-07
4.78563e-06
8.35583e-07
1.25717e-05
-5.78803e-08
-1.28327e-06
-1.01907e-07
-1.0876e-06
8.66473e-07
9.01165e-07
9.34325e-07
-1.39717e-06
-3.77216e-07
3.7755e-05
3.32541e-06
1.04994e-06
3.52184e-06
-2.37084e-06
3.88555e-07
-1.79806e-06
-8.58295e-06
-5.73784e-07
-1.56885e-07
1.11398e-05
-5.84573e-06
-4.11419e-06
2.17012e-07
9.74131e-06
-1.30854e-06
-1.07312e-06
2.20632e-06
9.68591e-07
-1.18113e-05
-4.5767e-06
9.87937e-06
-1.60579e-06
7.73718e-06
-9.32605e-06
6.4514e-06
-7.54328e-06
1.04179e-05
-6.97164e-06
-3.38728e-06
1.65988e-06
8.69905e-06
-3.61333e-06
-2.13229e-07
-3.71255e-06
7.53777e-06
4.95712e-06
9.79904e-07
-3.36478e-05
-3.25033e-06
-4.18999e-06
3.51511e-05
-1.35221e-06
-3.54554e-05
5.57539e-06
-6.11023e-06
3.54267e-06
3.37998e-05
-5.82204e-05
4.57946e-06
-5.95941e-06
-4.48754e-06
5.90843e-05
5.00362e-06
7.01674e-06
3.25951e-06
-2.89253e-05
2.15793e-06
-1.09506e-06
1.75861e-05
-8.07575e-06
-7.33053e-07
0.000112349
4.21686e-06
2.77178e-06
5.16711e-06
3.21266e-06
-3.81075e-06
-5.28116e-06
-4.07961e-06
-4.65394e-06
-2.56652e-05
8.74902e-06
0.0001481
-3.76534e-06
-2.71593e-06
-2.73862e-06
-1.94701e-06
-2.7187e-06
-1.10161e-05
0.000178767
1.48768e-06
1.52164e-06
-1.37048e-06
-2.36781e-08
-1.20808e-06
-4.58082e-06
-3.30364e-06
-6.24257e-05
1.18444e-05
7.74544e-06
-2.10101e-06
4.22182e-05
-7.50648e-06
3.43507e-06
-7.35128e-06
3.29382e-07
4.94055e-06
6.15277e-06
-3.40362e-07
1.17422e-07
-5.64286e-07
6.94273e-07
-4.16873e-07
-2.22354e-05
-1.48131e-06
6.66778e-06
-2.06981e-06
1.95357e-05
3.07815e-06
4.13552e-06
4.70857e-05
-7.912e-06
-3.32317e-06
-6.00229e-06
-1.58156e-06
-8.56914e-06
3.35478e-06
8.65064e-05
-2.7832e-07
-4.839e-06
6.66342e-05
-1.68117e-06
-2.75062e-07
-1.83852e-06
-5.34947e-06
-4.27017e-06
-4.07603e-06
-4.05003e-05
2.3894e-06
3.2742e-07
-3.31736e-06
4.08225e-05
-4.76877e-06
-4.57088e-06
5.15178e-06
-3.76629e-06
3.11445e-06
4.83972e-06
-3.87122e-06
5.62798e-08
-1.8446e-08
7.42672e-07
3.03453e-06
5.61819e-08
1.63241e-06
8.63388e-07
1.42789e-05
-2.47045e-07
-6.09541e-07
-1.49619e-07
-4.04777e-07
7.58735e-07
8.83565e-07
-2.98786e-07
7.82415e-07
5.03724e-07
3.70109e-05
2.97712e-06
7.35725e-07
2.15561e-06
-1.11165e-06
4.3211e-07
-7.43737e-07
-1.23383e-05
1.64926e-06
-4.51997e-06
1.11524e-05
-8.01675e-06
2.91807e-06
-2.62341e-06
-5.11607e-08
7.77325e-06
-3.27358e-06
-3.1075e-07
6.42987e-07
2.94134e-06
-6.43648e-07
-8.31816e-07
1.90157e-06
3.93412e-07
-5.94547e-06
-1.50466e-06
3.16625e-06
-5.73017e-07
5.36062e-06
-1.04937e-05
5.24125e-06
-4.28214e-06
9.53456e-06
-9.79266e-06
-3.59471e-06
2.86488e-06
1.05225e-05
-1.10005e-05
-2.24349e-06
2.45836e-07
1.29981e-05
4.04539e-06
1.51149e-06
-3.69109e-05
-2.64924e-06
-3.89554e-06
3.78988e-05
-1.88385e-06
-3.1991e-05
3.88628e-06
-3.72947e-06
3.60752e-06
3.01106e-05
-5.75996e-05
3.13273e-06
-5.29719e-06
-7.33242e-08
5.65515e-05
3.28592e-06
1.46313e-06
1.61823e-07
-1.04289e-05
1.81421e-06
-2.62437e-06
9.61415e-06
-1.24987e-05
-5.7767e-06
0.000129148
3.77402e-06
1.59252e-06
3.39029e-06
2.09118e-06
-3.5235e-06
-2.88122e-06
-1.71892e-06
-1.24833e-06
-2.90956e-05
9.30752e-06
0.000165629
-3.14178e-06
-3.20475e-06
-1.34632e-06
-2.54673e-06
-7.9305e-06
-7.08435e-06
0.000182532
-2.27758e-06
-3.51916e-07
-1.58201e-06
-1.98416e-07
-3.20083e-06
-7.70899e-06
-2.52582e-06
-4.09914e-05
-1.75504e-06
-3.96866e-06
1.72725e-07
3.86119e-05
-2.60097e-06
-4.44308e-08
5.71606e-07
-1.27254e-06
3.52821e-06
-1.81877e-07
-9.62975e-07
1.00173e-06
-1.15176e-06
1.093e-06
2.09557e-06
-1.46473e-05
1.1513e-06
7.04413e-07
-4.40325e-07
1.11363e-05
-2.41885e-06
-6.967e-06
5.44961e-05
-1.85483e-06
-7.51894e-07
-6.91986e-07
-5.02519e-07
-7.35754e-06
6.66664e-07
0.000100086
-7.96404e-08
-4.03502e-06
7.22837e-05
-2.74156e-06
-4.65857e-07
-3.51011e-06
-3.26956e-06
-2.92789e-06
-3.0618e-06
-4.02784e-05
2.13192e-06
7.60249e-07
-2.21572e-06
3.95223e-05
-7.43002e-06
-2.77434e-06
-2.16148e-06
1.26262e-06
1.71584e-06
9.38738e-06
-3.09674e-06
1.2137e-07
-1.44129e-07
5.76361e-07
3.06356e-06
-5.2042e-07
-3.31699e-06
-5.79464e-07
1.74169e-05
8.03089e-08
-4.01003e-07
-4.08048e-07
-1.08499e-06
-1.7541e-06
-1.10771e-06
-1.53303e-06
-9.1925e-07
4.58278e-07
3.67209e-05
6.3541e-07
-1.31829e-06
-3.64318e-07
-3.99017e-07
1.61562e-07
-6.14715e-07
-1.02738e-05
-1.99823e-07
-3.66097e-06
9.18034e-06
-7.56715e-06
2.5653e-06
1.73839e-06
-3.60122e-06
6.86468e-06
-2.81714e-06
-1.31652e-06
7.069e-07
1.4159e-06
2.01086e-06
-2.22113e-07
-1.26577e-06
3.92511e-07
5.13707e-07
-4.67806e-06
2.29343e-07
-5.96128e-08
1.40027e-06
3.56635e-06
-8.31783e-06
2.87267e-06
-1.52618e-06
6.97135e-06
-1.10553e-05
-3.5069e-06
3.06002e-06
1.15022e-05
-1.40747e-05
-2.95418e-06
2.08553e-06
1.49433e-05
3.0562e-06
1.14656e-06
-3.90945e-05
-2.0591e-06
-3.20461e-06
4.01555e-05
-1.31837e-06
-2.87886e-05
2.86127e-06
-2.58199e-06
1.67255e-06
2.81552e-05
-5.64312e-05
-4.36773e-07
-4.44368e-06
1.57438e-06
5.7227e-05
2.51031e-06
7.0291e-07
2.37143e-07
-1.04985e-05
3.12814e-07
-2.49972e-06
1.17453e-05
-2.02413e-05
-5.03227e-06
0.000143666
2.86912e-06
1.08015e-06
2.67544e-06
1.85546e-06
-1.588e-07
3.44775e-07
4.08637e-07
1.68098e-06
-3.20995e-05
8.44733e-06
0.000177522
-1.28137e-06
-4.08956e-06
1.52588e-07
-3.26376e-06
-7.10699e-06
1.03189e-06
0.000178273
-2.63327e-06
4.61328e-07
-1.99632e-06
-8.08536e-07
-3.31443e-06
-8.49231e-06
-4.98138e-06
-4.89774e-05
7.73722e-06
-5.65961e-06
-5.38157e-07
4.0331e-05
1.17568e-06
2.70117e-06
1.35094e-07
-2.785e-06
-1.22694e-06
-2.21305e-07
1.02289e-06
-8.54025e-08
-7.15837e-07
6.84169e-07
-9.38247e-06
3.19824e-06
-1.503e-06
-2.48453e-06
9.4876e-06
-1.83174e-05
-9.55425e-06
6.81525e-05
2.50725e-06
1.09451e-06
3.94747e-06
1.63378e-06
-1.71217e-05
1.30093e-07
0.000107207
-2.63031e-06
-9.62987e-07
8.12405e-05
-6.25132e-06
-4.68509e-06
-9.08912e-06
-8.3127e-07
3.89272e-08
-6.35391e-07
-3.85369e-05
1.14531e-06
-1.96446e-06
5.28154e-07
3.61975e-05
-9.02172e-06
8.47332e-07
-1.95874e-06
2.68512e-06
1.71309e-06
5.73491e-06
-2.29691e-06
-1.82359e-06
1.76378e-06
4.33142e-07
5.27769e-07
1.39581e-06
-5.78446e-06
-1.00795e-06
2.16414e-05
-5.15377e-07
-6.32083e-07
-8.51738e-07
-1.03715e-06
-1.45681e-06
-1.01374e-06
-1.47939e-06
-2.01138e-06
4.4362e-08
3.88227e-05
-1.14556e-06
-2.09979e-06
-1.61411e-06
-5.20316e-07
-1.37591e-07
-2.71706e-07
-9.15367e-06
-2.16975e-06
-1.07208e-06
9.42113e-06
-6.41495e-06
-4.54395e-06
4.16755e-06
6.79135e-06
-1.54419e-06
-2.05897e-07
-1.74606e-06
2.48819e-06
-2.25988e-06
1.55682e-06
-1.66285e-06
1.19734e-06
1.21293e-06
-5.43666e-06
7.5473e-07
4.27312e-07
4.25462e-06
-1.1824e-05
-3.13492e-06
2.93575e-06
1.20232e-05
-1.57396e-05
-2.43531e-06
1.41924e-06
1.67556e-05
2.84412e-06
1.39342e-06
-4.08981e-05
-1.42413e-06
-3.18267e-06
4.12674e-05
-6.34328e-07
-2.81077e-05
2.37301e-06
-2.03341e-06
1.19275e-07
2.82831e-05
-5.85531e-05
-3.38742e-06
-2.76825e-06
3.10978e-06
5.93907e-05
2.20825e-06
1.71357e-06
1.49993e-06
-1.25521e-05
3.32092e-08
-3.41532e-06
1.27207e-05
-2.38644e-05
-5.27596e-06
0.0001516
2.83958e-06
1.34065e-06
2.90637e-06
2.20903e-06
1.79155e-06
3.30221e-06
2.15634e-06
4.66048e-06
-3.3023e-05
6.20175e-06
0.000185822
3.44261e-08
-4.19889e-06
1.30894e-06
-2.48733e-06
-8.75e-06
4.48282e-06
0.000179076
-3.03755e-06
-4.25175e-07
-2.14823e-06
-1.29065e-07
-8.64172e-06
-6.93004e-06
-8.24722e-06
-3.56278e-05
-4.16808e-07
-5.52705e-06
3.28217e-05
1.01623e-06
-2.32036e-06
1.93604e-06
-6.31905e-07
6.9911e-07
-8.55664e-06
3.28133e-06
-3.08188e-06
-7.32396e-07
8.39046e-06
-2.90892e-05
-8.31355e-06
7.59862e-05
7.0132e-06
3.97775e-06
8.25095e-06
5.05118e-06
-2.57324e-05
3.63551e-07
0.000109689
-9.6307e-06
1.35317e-06
9.0697e-05
-9.93605e-06
-9.39748e-06
-7.30917e-06
8.66553e-07
2.07744e-06
1.27023e-06
-4.54198e-05
8.05786e-07
-1.16314e-05
5.8052e-06
4.08096e-05
7.93258e-07
-4.10897e-06
2.90649e-06
3.33532e-06
-1.2798e-06
-1.6463e-06
-4.96584e-06
-3.55778e-07
2.74463e-05
-1.01638e-06
-1.3862e-06
-1.51261e-06
-1.9595e-06
-1.17091e-06
-4.61838e-07
-1.28941e-06
-2.22699e-06
-1.19302e-07
4.16004e-05
-1.60425e-06
-1.88082e-06
-1.66053e-06
2.54565e-07
-4.22563e-07
2.79889e-07
-9.71232e-06
-2.27006e-06
1.11291e-06
9.99565e-06
-4.91312e-06
-9.36026e-07
2.90601e-06
2.94313e-06
-3.37415e-06
-9.75077e-07
-2.64339e-07
4.25778e-06
-7.08739e-07
8.9439e-07
-2.13846e-06
8.57095e-07
9.7641e-07
-3.80618e-06
-1.78596e-06
1.84965e-06
3.74248e-06
-1.21672e-05
-3.04933e-06
2.82799e-06
1.23886e-05
-1.7973e-05
-1.99897e-06
9.32192e-07
1.90398e-05
2.8533e-06
1.91059e-06
-4.1317e-05
-1.10986e-06
-3.27016e-06
4.09331e-05
3.21132e-07
-2.85218e-05
1.70079e-06
-1.30814e-06
-1.22941e-06
2.90375e-05
-5.91845e-05
-1.83452e-06
-1.54445e-06
3.97253e-06
5.75599e-05
1.03101e-06
1.57399e-06
2.19072e-06
-1.25656e-05
-1.09328e-06
-2.95959e-06
1.28537e-05
-2.62731e-05
-6.22644e-06
0.000154344
2.83815e-06
1.51817e-06
2.82116e-06
2.1997e-06
3.65529e-06
5.53246e-06
4.41925e-06
6.77135e-06
-2.83643e-05
3.57644e-06
0.000185223
8.8241e-07
-2.64194e-06
1.86546e-06
-9.92813e-07
-5.85761e-06
3.09226e-06
0.000176089
-3.17494e-06
6.34271e-08
-2.60772e-06
2.13827e-07
-6.6721e-06
-5.12091e-06
-5.31408e-06
-3.04251e-05
1.94417e-06
-7.28789e-06
2.99112e-05
1.90155e-07
-3.48978e-06
3.08303e-06
2.16598e-07
2.61028e-06
-8.87143e-06
2.50094e-06
-6.68917e-06
8.47682e-07
9.6017e-06
-3.08494e-05
-8.71768e-06
7.7479e-05
9.14014e-06
5.88813e-06
1.00292e-05
6.79035e-06
-2.14195e-05
-2.39076e-06
0.000106226
-5.22123e-06
1.49236e-06
8.04277e-05
-3.73258e-06
-2.55005e-06
-2.37516e-06
1.31977e-06
1.77898e-06
1.23e-06
-3.05536e-05
3.09334e-06
-1.75323e-06
2.08391e-06
2.19084e-05
1.24335e-06
-6.13698e-06
4.07277e-06
5.37392e-06
-5.84515e-07
-3.96854e-06
-3.1537e-06
-4.60564e-07
3.45474e-05
-1.83849e-06
-2.40943e-06
-1.9906e-06
-2.79143e-06
-1.23845e-06
-5.49691e-07
-1.38648e-06
-1.99429e-06
-6.22359e-07
4.41248e-05
-1.568e-06
-1.63003e-06
-1.62309e-06
1.65031e-07
-8.52674e-07
5.65139e-08
-1.064e-05
-1.56419e-06
1.50559e-06
1.01967e-05
-2.25795e-06
-7.47607e-07
1.12705e-06
1.8785e-06
-4.48081e-06
-1.67501e-06
1.23742e-06
4.45783e-06
-1.73281e-06
-8.1049e-08
-2.11713e-06
7.1281e-07
2.59582e-06
-3.75337e-06
-2.19526e-06
2.19094e-06
3.7577e-06
-1.27032e-05
-2.9344e-06
2.61659e-06
1.3021e-05
-1.95948e-05
-2.00153e-06
1.74685e-06
1.98495e-05
2.95637e-06
2.31867e-06
-4.02834e-05
-1.18623e-06
-3.282e-06
3.94766e-05
1.18858e-06
-2.97199e-05
1.84514e-06
-1.30947e-06
-2.25141e-06
3.0247e-05
-5.47488e-05
-2.64743e-06
2.76697e-08
5.59891e-06
5.1041e-05
7.28644e-07
1.54663e-07
5.00108e-06
-1.39029e-05
-5.32706e-06
-1.75303e-06
1.58273e-05
-3.16053e-05
-4.95305e-06
0.000149578
2.43219e-06
1.20415e-06
2.11965e-06
1.86141e-06
7.2292e-06
8.11738e-06
8.43789e-06
9.92241e-06
-1.93083e-05
2.83758e-06
0.000169582
1.01951e-06
-1.83071e-06
1.87506e-06
-5.57217e-07
-2.84604e-06
8.05053e-06
0.000160423
-4.44368e-06
-1.58625e-07
-3.16651e-06
-1.36433e-07
-1.54255e-06
-1.23837e-06
1.83933e-06
-3.12878e-05
1.99477e-06
-7.2463e-06
3.36933e-05
-7.11971e-07
-4.25569e-06
3.73178e-06
1.23588e-06
3.59055e-06
-1.03907e-05
1.75498e-06
-7.92841e-06
2.03318e-06
1.09404e-05
-2.93611e-05
-8.8549e-06
7.78487e-05
9.54094e-06
6.45275e-06
9.93016e-06
6.96936e-06
-1.43339e-05
-4.37639e-06
9.84129e-05
6.39608e-07
1.82244e-06
6.59295e-05
-6.56942e-07
1.10216e-06
-9.08282e-07
1.87126e-06
2.31654e-06
2.028e-06
-1.55467e-05
4.51748e-06
-1.1043e-07
-7.9921e-09
1.17872e-05
-2.7566e-07
-7.42624e-06
4.88951e-06
6.92763e-06
1.61903e-06
-5.73427e-06
-1.81334e-06
-3.54314e-07
4.2836e-05
-2.42774e-06
-3.27336e-06
-2.48542e-06
-3.5088e-06
-1.39431e-06
-4.0257e-07
-1.48358e-06
-2.03594e-06
-8.89985e-07
4.7522e-05
-1.70198e-06
-1.76932e-06
-1.80287e-06
-1.06635e-07
-1.03307e-06
-2.47057e-07
-1.03036e-05
-1.35378e-06
1.61572e-06
9.82819e-06
-1.25084e-06
-5.1305e-07
8.85307e-07
8.78582e-07
-4.56649e-06
-2.4682e-06
1.69762e-06
4.98276e-06
-3.45378e-06
-6.82688e-08
-2.16096e-06
5.29702e-07
4.26331e-06
-3.69651e-06
-2.3304e-06
2.35011e-06
3.6768e-06
-1.32939e-05
-2.79439e-06
2.55124e-06
1.3537e-05
-2.01769e-05
-2.04747e-06
1.35261e-06
2.08718e-05
3.21051e-06
2.53269e-06
-3.86363e-05
-1.57817e-06
-3.31684e-06
3.77881e-05
1.28228e-06
-3.058e-05
2.30932e-06
-1.72528e-06
-2.27393e-06
3.09876e-05
-4.76452e-05
-4.09159e-06
5.47507e-07
4.60555e-06
4.54752e-05
1.1085e-06
-2.21934e-07
7.46082e-06
-1.78109e-05
-8.9827e-06
2.27789e-07
1.9327e-05
-3.868e-05
-5.34481e-06
0.000143075
2.3724e-06
1.73872e-06
2.63019e-06
2.70345e-06
9.63949e-06
1.01528e-05
9.9722e-06
1.13186e-05
-1.88978e-05
5.05322e-06
0.000144586
1.13775e-06
-1.70916e-06
1.75733e-06
-1.02494e-06
8.64435e-07
1.68734e-05
0.0001228
-3.92168e-06
-1.00702e-06
-2.94938e-06
-1.17701e-06
3.98172e-06
1.92366e-06
4.1376e-06
-3.5332e-05
-3.0295e-06
4.04264e-06
3.51833e-05
-1.83851e-06
-5.21444e-06
4.59845e-06
2.4545e-06
2.95507e-06
-1.17303e-05
-3.08631e-07
-7.36301e-06
3.83559e-06
1.26112e-05
-2.87876e-05
-8.90602e-06
8.14213e-05
8.80381e-06
5.62715e-06
8.96068e-06
5.38465e-06
-1.47351e-05
-2.3669e-06
9.17805e-05
1.18323e-06
2.78095e-06
5.64166e-05
-6.57793e-07
2.16878e-07
-1.41026e-06
3.02915e-06
3.33294e-06
3.17609e-06
-1.01114e-05
-1.86858e-06
-1.8901e-06
4.48503e-06
1.05683e-05
-3.2193e-06
-7.9275e-06
5.49925e-06
7.51745e-06
5.29843e-06
-7.16834e-06
-8.81525e-07
-1.68239e-07
5.199e-05
-3.12938e-06
-3.92432e-06
-3.14568e-06
-4.00388e-06
-1.36483e-06
8.09964e-09
-1.45028e-06
-2.25731e-06
-7.59843e-07
5.47378e-05
-1.94896e-06
-2.06823e-06
-2.03424e-06
-1.38187e-07
-8.84655e-07
-3.72878e-07
-1.01456e-05
-1.83041e-06
2.18071e-06
1.03189e-05
-7.95083e-07
-2.80242e-06
2.22645e-06
1.37105e-06
-5.5745e-06
-3.27728e-06
2.18791e-06
6.49562e-06
-4.96578e-06
-2.33479e-08
-2.05253e-06
4.62579e-07
5.81923e-06
-3.67875e-06
-2.53427e-06
2.43743e-06
3.7756e-06
-1.37246e-05
-2.81149e-06
2.70214e-06
1.3834e-05
-2.19391e-05
-2.36555e-06
1.52374e-06
2.27809e-05
3.07336e-06
2.52035e-06
-3.69228e-05
-1.37613e-06
-3.54759e-06
3.62528e-05
6.73308e-08
-3.16785e-05
1.94008e-06
-1.95681e-06
-4.79353e-07
3.21072e-05
-4.40729e-05
-4.00977e-06
-1.79352e-06
4.54753e-06
4.28826e-05
2.44613e-06
-9.32492e-07
6.47729e-06
-2.0755e-05
-9.00843e-06
2.10974e-06
2.21088e-05
-4.00959e-05
-6.19959e-06
0.000140076
2.76165e-06
2.16486e-06
2.62874e-06
2.9043e-06
9.54877e-06
9.91656e-06
9.12324e-06
1.02464e-05
-2.26149e-05
9.60213e-06
0.000123873
-1.08273e-07
-2.95455e-06
-1.79727e-07
-3.12779e-06
1.14401e-06
2.61702e-05
9.17205e-05
-5.46277e-06
-4.57865e-06
-5.68949e-06
-6.26133e-06
2.14938e-06
1.95706e-07
7.97175e-07
-3.38958e-05
-5.80571e-06
9.63205e-06
3.12134e-05
-3.19336e-06
-6.29828e-06
5.45697e-06
4.03467e-06
9.36876e-07
-1.37605e-05
-3.24484e-06
-5.55683e-06
6.29397e-06
1.53313e-05
-2.87235e-05
-7.71358e-06
9.09695e-05
7.73322e-06
2.68189e-06
7.87253e-06
2.40157e-06
-1.73455e-05
2.54059e-06
8.74641e-05
-7.69055e-07
3.47376e-06
5.66293e-05
-2.04479e-06
-1.29548e-06
-2.56491e-06
3.81436e-06
4.03286e-06
3.96526e-06
-1.19773e-05
-7.65711e-06
-4.15749e-06
9.07156e-06
1.39512e-05
-7.53522e-06
-7.19287e-06
5.72936e-06
7.12506e-06
9.52751e-06
-7.65384e-06
-1.5881e-06
3.47242e-07
6.35209e-05
-3.82241e-06
-4.28908e-06
-3.55437e-06
-4.22146e-06
-1.24829e-06
4.44258e-07
-1.31229e-06
-2.49894e-06
-2.30415e-07
6.51067e-05
-2.16598e-06
-2.14628e-06
-2.16547e-06
1.3342e-07
-2.71838e-07
-7.08576e-08
-1.13085e-05
-2.26828e-06
2.6579e-06
1.18937e-05
-2.21192e-06
-4.82007e-06
3.61383e-06
3.41816e-06
-7.37867e-06
-3.92783e-06
3.20562e-06
8.44812e-06
-6.65941e-06
-4.04602e-07
-1.54959e-06
4.37991e-07
7.94519e-06
-3.89161e-06
-2.43266e-06
2.19437e-06
4.1299e-06
-1.38803e-05
-2.66585e-06
2.76069e-06
1.37854e-05
-2.23831e-05
-1.49181e-06
4.17204e-06
1.97029e-05
3.24323e-06
-1.91599e-07
-3.60157e-05
4.48073e-07
-3.87269e-06
3.63887e-05
-2.467e-07
-3.22978e-05
-6.04966e-07
-2.15422e-07
9.16934e-07
3.2448e-05
-4.16917e-05
-4.69823e-06
-3.00578e-08
6.82296e-06
3.83953e-05
1.20175e-06
-4.91073e-06
3.93095e-06
-2.38885e-05
-5.54223e-06
5.34232e-06
2.50682e-05
-3.04008e-05
-6.57915e-06
0.000139372
2.60087e-06
2.54058e-06
2.98074e-06
3.75466e-06
6.67823e-06
7.68032e-06
4.2159e-06
7.23269e-06
-1.30908e-05
1.60681e-05
0.000107737
-2.3301e-06
-5.84369e-06
-2.31724e-06
-6.75065e-06
1.69396e-07
2.75683e-05
7.88058e-05
-7.86721e-06
-7.33505e-06
-8.16868e-06
-7.13325e-06
6.93716e-07
8.20598e-07
1.07598e-06
-2.68882e-05
-5.16751e-06
9.68026e-06
2.25448e-05
-4.74957e-06
-5.05002e-06
4.96151e-06
4.83808e-06
-1.07765e-06
-1.75184e-05
-6.09057e-06
-3.34439e-06
7.93064e-06
2.01004e-05
-2.56954e-05
-6.25031e-06
0.00010148
6.07609e-06
8.44718e-07
6.20794e-06
1.72758e-06
-1.59855e-05
8.61903e-06
8.52031e-05
-1.60849e-06
3.4473e-06
6.2352e-05
-2.78415e-06
-1.51161e-06
-2.83748e-06
3.66303e-06
3.98068e-06
3.5109e-06
-1.61679e-05
-8.88743e-06
-4.42476e-06
9.89875e-06
1.79729e-05
-1.08804e-05
-5.19417e-06
5.20552e-06
6.4836e-06
1.17307e-05
-7.34524e-06
-3.69555e-06
6.29055e-07
7.66594e-05
-3.72909e-06
-4.1655e-06
-2.82121e-06
-3.93064e-06
-1.22572e-06
7.6475e-07
-1.21487e-06
-2.60147e-06
5.80942e-07
7.64068e-05
-2.05601e-06
-2.18213e-06
-1.84497e-06
5.97425e-07
6.58823e-07
4.70723e-07
-1.33978e-05
-2.41389e-06
2.55064e-06
1.41068e-05
-4.60622e-06
-4.93459e-06
3.76518e-06
5.77563e-06
-9.27278e-06
-4.18217e-06
3.91471e-06
1.01693e-05
-9.20214e-06
-8.81265e-07
-8.42321e-07
5.13179e-07
1.09935e-05
-4.41995e-06
-1.79351e-06
1.39019e-06
4.82327e-06
-1.3447e-05
-2.95954e-06
3.57364e-06
1.28329e-05
-1.57676e-05
-1.96575e-06
5.10336e-06
1.263e-05
3.89223e-07
-3.28723e-06
-3.66154e-05
5.32452e-06
-1.91952e-06
3.61084e-05
-4.03939e-06
-3.26446e-05
-5.73738e-06
4.76811e-06
5.32686e-06
3.23264e-05
-3.43156e-05
-7.30862e-06
5.63964e-06
9.32395e-06
3.09308e-05
-4.2701e-06
-5.53121e-06
1.59574e-06
-2.55035e-05
-2.1219e-06
5.71242e-06
2.58484e-05
-1.47077e-05
-1.37812e-06
0.000138313
2.21393e-06
1.88769e-06
5.72562e-07
8.09564e-07
1.96052e-06
3.80823e-06
2.22403e-06
3.66843e-06
9.49605e-07
2.26545e-05
9.69363e-05
-4.683e-06
-9.28937e-06
-5.1564e-06
-8.38264e-06
2.25226e-06
2.35858e-05
7.56712e-05
-9.01378e-06
-6.60192e-06
-7.61542e-06
-6.04976e-06
2.1016e-06
2.80865e-06
2.6168e-06
-1.93228e-05
-5.09987e-06
8.5479e-06
1.8127e-05
-4.08789e-06
-1.73235e-06
2.61776e-06
3.20248e-06
-1.91537e-06
-2.27568e-05
-6.89644e-06
-1.38048e-06
8.36052e-06
2.45885e-05
-2.10582e-05
-3.53918e-06
0.000110905
4.26269e-06
1.43919e-06
4.51385e-06
3.5782e-06
-1.35055e-05
1.25175e-05
8.77874e-05
-1.71626e-06
2.91699e-06
7.03239e-05
-3.03736e-06
-1.66356e-06
-3.00516e-06
2.61428e-06
3.52015e-06
2.47937e-06
-1.93942e-05
-7.33416e-06
-3.79264e-06
8.44659e-06
2.03582e-05
-1.27277e-05
-3.52607e-06
3.71597e-06
5.48039e-06
1.4044e-05
-6.98657e-06
-6.48858e-06
9.23535e-07
8.89642e-05
-2.12171e-06
-3.25625e-06
-7.75993e-07
-2.87085e-06
-1.18927e-06