/*--------------------------------*- C++ -*----------------------------------*\
| =========                 |                                                 |
| \\      /  F ield         | OpenFOAM: The Open Source CFD Toolbox           |
|  \\    /   O peration     | Version:  5.x                                   |
|   \\  /    A nd           | Web:      www.OpenFOAM.org                      |
|    \\/     M anipulation  |                                                 |
\*---------------------------------------------------------------------------*/
FoamFile
{
    version     2.0;
    format      ascii;
    class       volVectorField;
    location    "4";
    object      U;
}
// * * * * * * * * * * * * * * * * * * * * * * * * * * * * * * * * * * * * * //

dimensions      [0 1 -1 0 0 0 0];

internalField   nonuniform List<vector> 
10571
(
(0.44459 -0.097604 3.17771)
(0.0738077 -0.156074 1.00897)
(1.00766 -1.07684 1.75715)
(0.768409 0.532416 1.61682)
(0.0822296 0.274529 1.20566)
(0.00496231 -1.05589 2.40994)
(0.137792 -0.453502 0.769691)
(1.88945 -0.338194 2.39147)
(0.596874 0.256788 2.56281)
(-0.235381 -0.054275 2.20191)
(-0.0031604 -0.417132 0.62504)
(0.36495 -0.774345 1.34956)
(0.29307 0.12813 1.11343)
(1.97857 -0.591799 2.83311)
(0.889275 -0.469503 2.78127)
(-0.0793238 -0.218325 1.58711)
(0.383666 0.0992662 1.01589)
(0.853587 -0.152528 1.84537)
(2.74861 -2.26964 2.78512)
(0.0867497 -1.36232 2.17595)
(0.0594103 -0.158953 0.643486)
(0.00750097 -0.361984 1.76407)
(-0.211315 -0.321146 1.23063)
(-0.0286444 -0.224606 0.61163)
(2.24048 1.0958 2.34709)
(-0.168451 0.216395 0.765764)
(1.13139 0.0974 0.774577)
(2.06969 1.54485 1.91325)
(0.407974 0.454016 1.49801)
(-0.591876 -0.183715 2.94457)
(0.169536 -0.0525539 0.308147)
(1.06457 -0.776435 1.38611)
(1.58325 -1.04921 2.7803)
(0.0124194 -0.479771 1.42906)
(0.00294287 -0.0457088 0.251024)
(-0.0637771 -0.0708107 0.467708)
(0.0533039 -0.282685 0.335473)
(1.31706 -1.15551 1.03739)
(2.49823 -1.8577 2.52556)
(0.923366 -0.646159 1.70296)
(-0.00215138 -0.133874 0.540494)
(-0.00137316 0.0524077 0.433535)
(0.205929 -0.114304 0.175193)
(0.91094 -0.496531 0.534754)
(0.136693 0.0856262 0.713023)
(-0.00824788 -0.0191819 0.639582)
(0.0122336 -0.124003 0.28296)
(0.0554495 -0.0766352 0.0291813)
(-0.00128358 0.048267 0.104517)
(0.0593661 -0.0575967 0.373819)
(-0.0061796 0.148197 0.283213)
(0.969021 0.785224 1.53582)
(0.0826814 -0.0264955 2.49818)
(0.799337 0.00706696 3.83058)
(-0.110613 -0.0650757 0.296326)
(-0.11124 -0.404978 2.13222)
(1.40982 -1.04097 3.43401)
(0.315055 -0.7543 2.65705)
(0.0227554 0.0582759 0.22248)
(-0.200584 0.235397 0.476634)
(-0.178312 0.0082871 0.119603)
(-0.0601656 0.0478183 0.309797)
(1.50412 -1.12194 2.46176)
(0.923494 -0.653084 2.46312)
(-0.188826 -0.135436 0.693033)
(-0.104983 0.0720101 0.371826)
(-0.145869 0.0539024 0.0413677)
(-0.134584 0.025256 0.151242)
(-0.0764906 0.504361 0.928588)
(0.850547 0.641019 1.85949)
(-0.159581 0.0353064 0.0798257)
(-0.0413036 0.0079215 -0.0578319)
(-0.240081 -0.0240195 0.00594782)
(0.513324 -0.626261 1.03008)
(-0.384606 -0.0636649 0.240597)
(-0.806902 0.66559 1.42952)
(-0.591651 -0.443891 2.75178)
(1.01091 0.084252 2.89916)
(-0.416667 0.0921364 0.598357)
(-0.471125 0.198287 0.61553)
(0.498533 -0.891519 4.03404)
(0.324529 -0.725552 3.55426)
(0.0125215 0.0053794 0.181462)
(-0.190356 0.0170525 0.781235)
(-0.18662 0.0179089 0.128671)
(-0.255341 0.117966 -0.0526678)
(-0.359331 0.208461 1.20957)
(0.654583 -0.426363 3.08027)
(-0.139328 0.0145198 0.558885)
(-0.102376 -0.0172325 0.152634)
(-0.183909 0.103903 0.255615)
(-0.200804 0.143183 -0.093953)
(-0.254047 0.304918 0.690076)
(0.451012 0.203948 0.904394)
(0.956898 -0.134975 0.887616)
(-0.0382025 0.0641761 0.0112875)
(-0.299218 -0.137289 0.279219)
(0.116038 -0.194456 0.222217)
(-0.29138 -0.32331 0.818706)
(-0.977346 -0.347299 1.18121)
(-0.740539 -0.630639 2.93418)
(0.388097 0.0971237 2.36005)
(-0.170555 0.147341 1.03849)
(-0.831087 0.630086 1.14484)
(-0.48214 -0.00113953 3.06003)
(0.160214 -0.57448 4.08569)
(-0.0138902 -0.0718563 0.0728491)
(0.183672 -0.183839 0.879849)
(-0.042881 0.0482851 0.287812)
(-0.425702 0.137843 0.520737)
(-0.501417 0.354559 0.535575)
(0.407953 -0.389936 2.97894)
(-0.00788995 0.0554799 0.382678)
(0.0593419 -0.114425 0.21756)
(0.0625692 -0.171166 0.416336)
(-0.18429 0.150487 0.000542288)
(-0.179338 0.239498 0.11426)
(0.115628 -0.00520635 0.249883)
(1.00486 -0.314799 0.807275)
(0.652363 -0.341806 0.682588)
(0.280156 -0.155016 0.492604)
(0.0530025 -0.174169 0.0958766)
(-0.120371 -0.425115 1.37848)
(-0.813766 0.0408512 1.72462)
(-0.828541 -0.772465 2.43644)
(0.1413 -0.0597725 1.81889)
(0.0805754 0.0381783 0.949166)
(-0.872988 0.3662 1.37492)
(-0.625439 0.210864 2.06933)
(0.32769 -0.378963 4.1431)
(-0.0460585 -0.056824 0.0458056)
(-0.0067438 -0.0343375 0.0543042)
(0.436193 -0.0701527 1.04875)
(0.061031 0.188818 0.343658)
(-0.147771 -0.00550511 0.61709)
(-0.496703 0.13081 0.963015)
(0.0844685 0.320575 1.8349)
(0.0566492 0.010593 0.0215224)
(0.0719645 0.0468978 0.296379)
(0.0736168 0.077855 0.122657)
(0.0967432 -0.0262723 0.386741)
(-0.152611 0.344615 0.472967)
(-0.0229085 0.503768 0.875245)
(0.16658 0.0674137 0.0884192)
(0.567697 0.0112924 0.366433)
(0.634681 -0.297147 0.901975)
(0.567459 -0.0517384 1.13151)
(-0.0804173 -0.270252 0.405051)
(-0.111003 -0.306851 1.5327)
(-0.51666 0.190569 1.49083)
(-0.432962 -0.335734 2.32478)
(-0.17171 -0.619556 1.23399)
(0.218671 -0.0983561 1.03501)
(-0.470582 0.237871 1.41844)
(-0.487254 0.093344 2.26142)
(-0.0716644 -0.108909 2.6568)
(0.134811 0.0949328 0.230434)
(-0.0149697 -0.0257049 0.0777194)
(0.1843 -0.189828 0.920955)
(0.242121 0.0591851 0.45981)
(-0.11824 0.0651549 0.75415)
(-0.165041 -0.425849 0.652684)
(0.115931 -0.253426 2.09938)
(-0.570855 0.152571 0.0668562)
(-0.00896773 0.0651018 0.170837)
(0.0646158 0.0945684 0.163463)
(-0.00783687 0.0323711 0.413371)
(0.0765694 -0.340094 0.524555)
(0.00926929 -0.293692 0.444273)
(0.179445 0.136037 0.195068)
(0.13056 0.0800112 0.0412269)
(0.0848614 0.0353601 0.232401)
(0.45634 -0.264796 0.943261)
(0.635253 -0.00204257 1.46204)
(-0.233516 -0.026959 0.925869)
(-0.128343 -0.238299 1.63042)
(-0.354475 0.251066 1.37577)
(-0.314691 -0.173322 2.20749)
(-0.0174061 -0.273041 0.565871)
(0.127514 -0.0828129 1.26395)
(-0.505661 0.191459 1.53681)
(-0.523272 0.0967766 1.96157)
(-0.546996 0.0583055 1.87905)
(-0.154024 0.0657203 -0.00835185)
(-0.0434227 -0.0658308 0.221046)
(-0.0911908 -0.10667 0.575632)
(0.11519 -0.0992022 0.492167)
(-0.184167 0.0999094 0.99148)
(-0.0708944 -0.367164 0.736689)
(0.00472853 -0.205949 1.81544)
(0.0971643 0.0981616 0.364)
(-0.0149464 0.0654546 0.201323)
(-0.00602568 -0.147245 0.170032)
(-0.114294 -0.0748928 0.387729)
(-0.0486347 -0.253525 0.420917)
(-0.278348 -0.149533 0.430962)
(0.184993 0.0682546 0.145526)
(0.0645505 0.00406155 0.00644321)
(-0.0436238 0.0753855 0.169529)
(0.231014 -0.120993 0.701547)
(0.663367 0.00739123 1.62168)
(-0.29907 0.08408 1.054)
(-0.0967549 -0.184562 1.74814)
(-0.251519 0.197539 1.24197)
(-0.206878 -0.0436805 2.24708)
(-0.0135427 -0.188181 0.462503)
(-0.0530245 -0.0569963 1.4223)
(-0.577184 0.186182 1.77056)
(-0.440796 0.106138 1.95533)
(-0.637929 -0.0651089 1.89042)
(-0.0593796 -0.205353 -0.0345967)
(0.0193137 0.00816449 -0.055875)
(-0.0405228 -0.253333 0.487509)
(-0.280945 -0.0936568 0.637549)
(-0.320316 0.0948104 1.09809)
(-0.241149 -0.0790341 0.877679)
(-0.241175 -0.213794 1.83473)
(0.10588 0.0558505 0.304629)
(0.160023 -0.0421642 0.0436021)
(-0.0531108 -0.21345 0.206452)
(-0.154466 -0.0957449 0.3976)
(-0.136706 -0.0549044 0.397609)
(-0.360156 0.135195 0.519736)
(-0.0893958 0.00446118 0.110326)
(-0.109893 0.0407412 0.0632829)
(0.0306696 -0.0333076 0.419276)
(0.62184 0.0180577 1.70767)
(-0.216137 0.104893 1.1756)
(-0.077747 -0.180526 1.80837)
(-0.246699 0.107709 1.23906)
(-0.205173 0.152559 2.30067)
(0.0760088 -0.217943 0.567418)
(-0.15663 -0.090198 1.4606)
(-0.60905 0.113733 1.8631)
(-0.41011 0.0278868 1.90899)
(-0.488457 -0.279124 1.63903)
(-0.00135109 0.535097 -0.112695)
(0.00874074 -0.200181 0.364099)
(-0.550935 -0.0692747 0.756998)
(-0.451589 0.104938 1.1084)
(-0.367544 0.147835 0.947571)
(-0.809469 0.140802 1.55947)
(0.261232 0.196819 -0.05148)
(-0.0396066 -0.188592 0.25681)
(-0.14569 -0.0994449 0.422967)
(-0.151796 0.0880785 0.428278)
(-0.196576 0.0732058 0.287568)
(0.0174815 0.0543338 0.196416)
(-0.0672599 0.0287328 0.0287966)
(-0.141079 0.0980385 0.343519)
(0.614282 0.0259489 1.75334)
(-0.143498 0.0804594 1.35845)
(-0.101154 -0.19439 1.81394)
(-0.208298 -0.00732917 1.2616)
(-0.114728 0.192839 2.30237)
(0.0260813 -0.184549 0.553431)
(-0.273649 -0.0812963 1.54462)
(-0.60259 0.0420546 1.87501)
(-0.306188 -0.082686 1.87349)
(-0.443986 -0.323492 1.50052)
(0.01519 0.7093 0.00169328)
(-0.292231 -0.146263 0.411704)
(-0.620897 -0.108121 0.785344)
(-0.462756 0.0735095 1.0993)
(-0.261017 0.190741 0.925912)
(-0.304031 -0.0398392 0.981945)
(0.353456 0.366929 -0.0400732)
(-0.00236019 -0.177214 0.322146)
(-0.119951 -0.156656 0.446671)
(-0.135094 0.0934904 0.452225)
(-0.0690104 0.0377549 0.188088)
(0.0886623 0.037008 0.227073)
(-0.0376118 0.0106522 0.0862013)
(-0.178838 0.124609 0.341993)
(0.603261 0.0218217 1.83957)
(-0.117644 0.102119 1.446)
(-0.132221 -0.212186 1.74725)
(-0.24533 -0.12005 1.31777)
(-0.101159 0.29506 2.06195)
(-0.320943 -0.0891985 0.662111)
(-0.496244 -0.0313559 1.57269)
(-0.59471 0.0300381 1.82897)
(-0.0197273 -0.0148233 1.83264)
(-0.299147 -0.326673 1.59826)
(0.0256593 0.842267 0.13756)
(-0.416082 -0.0989655 0.4692)
(-0.611514 -0.118737 0.772666)
(-0.4329 0.0587133 1.04472)
(-0.03344 0.293099 0.781106)
(0.081893 -0.0874017 0.511382)
(0.417526 0.491052 0.0327366)
(0.0518677 -0.17179 0.402935)
(-0.124751 -0.202668 0.480227)
(-0.129856 0.0853443 0.434822)
(-0.0583388 0.0480319 0.0847492)
(0.142651 0.0430828 0.238057)
(-0.0422782 0.00730731 0.152495)
(-0.198731 0.128621 0.334961)
(0.590185 0.0297401 1.92085)
(-0.111501 0.0978032 1.48203)
(-0.1557 -0.237918 1.67561)
(-0.280315 -0.116658 1.34774)
(-0.132529 0.353066 1.80977)
(-0.57592 0.026453 0.821879)
(-0.652641 -0.0697156 1.44256)
(-0.658786 0.0398872 1.61227)
(0.0431409 0.177838 1.55645)
(0.0319493 0.367218 1.83242)
(0.0226754 0.954349 0.308842)
(-0.399224 0.0404485 0.536732)
(-0.561121 -0.117041 0.781098)
(-0.459809 0.112259 0.967251)
(-0.0181628 0.412618 0.62921)
(0.154583 0.342537 0.401471)
(0.444212 0.541161 0.164976)
(0.120189 -0.166574 0.494505)
(-0.156021 -0.190065 0.529838)
(-0.133107 0.134371 0.436876)
(-0.124171 0.216758 0.0851391)
(0.218351 0.0546658 0.303623)
(-0.0373097 0.0124226 0.212426)
(-0.217314 0.132379 0.339199)
(0.584255 0.024607 1.97281)
(-0.141139 0.0992078 1.64521)
(-0.152224 -0.242863 1.59976)
(-0.242727 0.0095078 1.41037)
(-0.268216 0.283668 1.71088)
(-0.540578 0.122721 0.938399)
(-0.663455 -0.107206 1.38175)
(-0.670274 0.10989 1.28763)
(-0.106776 0.466056 1.06131)
(0.135302 0.580804 1.6744)
(0.0125965 1.01041 0.516919)
(-0.269912 0.301609 0.642549)
(-0.519411 -0.107735 0.858941)
(-0.490521 0.184899 0.904234)
(-0.0892553 0.461101 0.580156)
(0.0198621 0.709217 0.516619)
(0.419058 0.514472 0.3368)
(0.153007 -0.146196 0.599746)
(-0.207632 -0.0980642 0.631898)
(-0.13461 0.18631 0.50179)
(-0.186928 0.348547 0.251546)
(0.305805 0.0956539 0.401549)
(-0.0179496 0.0194074 0.288245)
(-0.210223 0.113714 0.36719)
(0.537105 0.0211404 1.98479)
(-0.194182 0.194507 1.6009)
(-0.0482539 -0.29554 1.58001)
(-0.0240546 0.000308616 1.42255)
(-0.169 0.362874 1.59745)
(-0.264388 0.401962 1.08311)
(-0.562677 -0.146341 1.38633)
(-0.440968 0.265773 1.1569)
(-0.0142181 0.554438 0.856151)
(0.00264436 0.514083 1.20609)
(0.0485084 0.652905 0.726518)
(-0.121267 0.526929 0.824633)
(-0.461311 -0.0659994 0.969197)
(-0.419732 0.255253 0.862915)
(-0.121561 0.433011 0.612391)
(-0.0452549 0.761416 0.668302)
(0.353012 0.463897 0.439195)
(0.117048 -0.14562 0.733039)
(-0.242755 0.0400367 0.7462)
(-0.133143 0.197344 0.595952)
(-0.190633 0.343439 0.472366)
(0.341962 0.12511 0.495029)
(0.00297275 0.0334142 0.400974)
(-0.135604 0.0725757 0.424012)
(0.533033 0.0367444 1.90083)
(-0.177561 0.259227 0.989238)
(0.395828 -0.0551352 1.61531)
(0.432523 0.3854 1.44401)
(0.33638 0.596428 1.26343)
(-0.193713 0.428419 1.12184)
(-0.386688 -0.0795202 1.39396)
(-0.0899685 0.45067 1.02171)
(0.106264 0.529013 0.799661)
(0.166733 0.487736 0.924201)
(0.0419318 0.251146 0.507929)
(0.0187827 0.60655 1.04694)
(-0.417749 0.0396451 1.06302)
(-0.286359 0.328926 0.857644)
(-0.168069 0.333149 0.69682)
(-0.0419021 0.641122 0.780341)
(0.280705 0.41239 0.519616)
(0.00330373 -0.155344 0.868909)
(-0.224629 0.0998867 0.855654)
(-0.127156 0.187611 0.698023)
(-0.155343 0.251119 0.658667)
(0.370505 0.161996 0.569151)
(0.0419891 0.0349624 0.541158)
(-0.0554684 0.0269898 0.495858)
(0.364831 0.0419364 1.66606)
(0.0431446 0.00151724 0.785607)
(0.144486 0.359638 1.46121)
(0.363967 0.545741 1.38565)
(0.337681 0.372881 1.06223)
(-0.0879727 0.307772 1.1459)
(-0.216032 0.257984 1.39807)
(0.132867 0.517099 0.932564)
(0.101986 0.471234 0.791356)
(0.230934 0.501335 0.89568)
(0.0173844 0.0686538 0.363988)
(0.0512408 0.517075 1.152)
(-0.36964 0.192352 1.1836)
(-0.160158 0.334231 0.914748)
(-0.191317 0.251279 0.786812)
(-0.0635812 0.521532 0.865668)
(0.144226 0.406265 0.654232)
(-0.0760809 -0.0592733 1.01368)
(-0.162287 0.0778163 0.963215)
(-0.10978 0.16687 0.788708)
(-0.0893948 0.132724 0.768539)
(0.387281 0.187567 0.647047)
(0.107176 0.0125197 0.670527)
(0.0199455 -0.0153854 0.583904)
(0.15801 0.0561734 1.19983)
(0.145866 -0.153903 0.815653)
(0.0912625 0.112126 1.07192)
(0.286735 0.287308 1.20936)
(0.312383 0.186729 0.919777)
(-0.0542707 -0.0241697 1.00176)
(-0.0390256 0.415018 1.34875)
(0.23441 0.408075 0.922086)
(0.080008 0.301335 0.809665)
(0.226679 0.46216 0.933455)
(0.00263556 -0.105136 0.345822)
(-0.111914 0.414855 1.18075)
(-0.184695 0.315867 1.30247)
(0.0117562 0.283671 1.00947)
(-0.165266 0.204154 0.887067)
(-0.0931784 0.381095 0.947343)
(0.0446117 0.423211 0.761308)
(-0.00713248 0.14755 1.1395)
(-0.0409871 0.0421652 1.05641)
(-0.0644197 0.130309 0.881996)
(-0.0242617 0.0568953 0.835705)
(0.388347 0.22995 0.786545)
(0.188847 0.0015552 0.787591)
(0.0752153 -0.0421479 0.682007)
(0.0769429 -0.000142741 0.959932)
(0.133567 -0.141208 0.875376)
(0.137747 0.073835 1.00186)
(0.32246 0.0547211 0.981384)
(0.257099 0.0817186 0.870312)
(-0.0402418 -0.195386 0.872084)
(0.17563 0.271732 1.24018)
(0.361741 0.174613 0.903237)
(0.141429 0.112048 0.851446)
(0.203694 0.329017 1.04831)
(0.00117217 0.014863 0.400616)
(-0.138889 0.022635 0.953715)
(0.0866952 0.324743 1.31197)
(0.175425 0.231994 1.12066)
(-0.121134 0.166387 0.994261)
(-0.0913156 0.263705 1.02189)
(0.0502922 0.336068 0.811611)
(0.150941 0.298991 1.20581)
(0.0903634 0.0429764 1.15223)
(0.00601824 0.0767607 1.00056)
(0.0286744 -0.00048424 0.906576)
(0.416511 0.260044 0.984263)
(0.281719 0.0147872 0.936162)
(0.106457 -0.0640367 0.788323)
(0.0567535 -0.0281691 0.962909)
(-0.0410494 0.0686944 0.910018)
(0.111317 -0.0441656 0.916613)
(0.294819 -0.122218 0.879606)
(0.172892 -0.0106337 0.92229)
(-0.0125627 0.101434 0.770496)
(0.356194 -0.0346984 0.948491)
(0.414553 -0.0579188 0.84837)
(0.138003 -0.010774 0.939519)
(0.12109 0.191013 1.18468)
(0.0118304 0.214985 0.462789)
(0.0263582 0.158312 0.717196)
(0.282387 0.260496 1.2341)
(0.267535 0.201048 1.21588)
(-0.103754 0.0997766 1.08988)
(-0.0736909 0.132328 1.0946)
(0.14126 0.193196 0.705913)
(0.239561 0.303675 1.26472)
(0.177616 0.0746549 1.26394)
(0.0815626 0.0370056 1.12083)
(0.070204 -0.0677736 0.983193)
(0.394369 0.251802 1.18615)
(0.336926 0.0236351 1.11855)
(0.130502 -0.0738823 0.912019)
(-0.0140627 -0.0263483 1.0533)
(-0.132007 0.167768 0.776895)
(0.0209977 0.0233174 0.841891)
(0.190886 -0.147713 0.892283)
(0.067286 -0.0657368 1.02058)
(-0.0295482 0.251566 0.681144)
(0.307276 -0.12053 0.698542)
(0.31987 -0.169906 0.853642)
(0.00849571 -0.0641314 1.06358)
(0.00103187 0.044207 1.26193)
(0.02397 0.293219 0.475165)
(0.118119 0.292763 0.573126)
(0.38635 0.189751 1.11601)
(0.293364 0.162049 1.28437)
(-0.0932259 0.0195718 1.16332)
(-0.0253428 -0.0332297 1.14083)
(0.152479 0.150256 0.610811)
(0.26733 0.233994 1.32769)
(0.188216 0.0613101 1.37593)
(0.133057 -0.00112602 1.21543)
(0.0942273 -0.132952 1.052)
(0.325216 0.203198 1.349)
(0.338101 0.0265945 1.29583)
(0.166143 -0.0875351 1.03958)
(-0.117287 -0.0137262 1.04416)
(-0.177324 0.202595 0.612557)
(-0.0436234 0.137929 0.804598)
(0.0315491 -0.0317217 0.967147)
(-0.0509674 -0.100293 1.10431)
(-0.0563106 0.301861 0.587962)
(0.176658 -0.0642506 0.575545)
(0.165015 -0.194412 0.904399)
(-0.114328 -0.0981083 1.1467)
(-0.0579101 -0.0991741 1.25616)
(0.0294928 0.31317 0.457084)
(0.155997 0.317486 0.494374)
(0.422387 0.134642 1.03652)
(0.237296 0.133664 1.35066)
(-0.0769369 -0.0430403 1.22094)
(0.00277119 -0.157179 1.12973)
(0.165054 0.136326 0.581673)
(0.278744 0.131251 1.35143)
(0.185357 0.00981897 1.46941)
(0.144301 -0.047857 1.29384)
(0.100563 -0.163994 1.06178)
(0.302654 0.15026 1.41737)
(0.323017 0.0105796 1.43233)
(0.236458 -0.0978577 1.17818)
(-0.193092 -0.0229116 1.00271)
(-0.205494 0.213285 0.509241)
(-0.116023 0.162551 0.779956)
(-0.0799443 0.0113861 0.997604)
(-0.14367 -0.135561 1.12943)
(-0.103541 0.345909 0.499592)
(0.044296 0.0108654 0.53644)
(0.0512882 -0.197809 0.973774)
(-0.154818 -0.125362 1.18418)
(-0.101254 -0.210924 1.21671)
(0.0299412 0.320385 0.431039)
(0.161407 0.321262 0.460332)
(0.410744 0.0817022 1.02684)
(0.150944 0.0979905 1.44061)
(-0.0273993 -0.0897367 1.26552)
(0.0114138 -0.179632 1.06092)
(0.191129 0.152857 0.542925)
(0.295524 0.0268947 1.37009)
(0.203577 -0.0653995 1.54018)
(0.154654 -0.0909895 1.38024)
(0.0933891 -0.174677 1.00955)
(0.327588 0.107482 1.40981)
(0.322918 -0.0166115 1.51363)
(0.288815 -0.103615 1.31562)
(-0.265368 -0.0369244 0.974337)
(-0.235682 0.231159 0.456691)
(-0.212136 0.133767 0.754437)
(-0.19314 -0.00227055 0.979894)
(-0.207002 -0.173752 1.13275)
(-0.120199 0.380264 0.462042)
(-0.068753 0.065264 0.535407)
(-0.00140504 -0.203159 1.01897)
(-0.143447 -0.140626 1.19084)
(-0.0979753 -0.254456 1.15145)
(0.0286667 0.333864 0.407927)
(0.135244 0.342569 0.4546)
(0.357322 0.017011 1.06049)
(0.122835 0.0281884 1.51996)
(0.0551462 -0.128373 1.3112)
(0.0212053 -0.181017 1.01235)
(0.194903 0.202427 0.507846)
(0.321107 -0.0505722 1.35491)
(0.229126 -0.130444 1.5813)
(0.208577 -0.144299 1.45955)
(0.114507 -0.205966 0.966442)
(0.354277 0.112608 1.33823)
(0.350956 -0.0386421 1.55762)
(0.3289 -0.121955 1.4148)
(-0.30212 -0.0383558 0.954548)
(-0.245282 0.245547 0.436879)
(-0.318175 0.156489 0.698288)
(-0.266558 0.00338943 0.936642)
(-0.2513 -0.193843 1.12412)
(-0.134685 0.376222 0.46575)
(-0.158204 0.106133 0.548502)
(-0.0426961 -0.198627 1.03301)
(-0.119472 -0.166755 1.17623)
(-0.0655028 -0.241706 1.08595)
(0.0298478 0.357751 0.392384)
(0.0846826 0.361683 0.452564)
(0.297759 -0.0118342 1.09365)
(0.136634 -0.0340548 1.55487)
(0.133313 -0.152902 1.36425)
(0.0511309 -0.199388 1.01274)
(0.205678 0.266569 0.491613)
(0.32024 -0.0712941 1.31074)
(0.25827 -0.155889 1.59685)
(0.249384 -0.178439 1.51721)
(0.145859 -0.253293 1.00266)
(0.367284 0.123725 1.23314)
(0.387628 -0.0527981 1.57433)
(0.352205 -0.143968 1.47852)
(-0.302252 -0.0463135 0.945239)
(-0.22553 0.227846 0.434191)
(-0.365268 0.252421 0.635098)
(-0.289638 -0.0464483 0.901006)
(-0.269758 -0.198055 1.10512)
(-0.166615 0.332342 0.482851)
(-0.228744 0.122802 0.572493)
(-0.0968212 -0.172844 1.01908)
(-0.129719 -0.176276 1.15164)
(-0.0502337 -0.237794 1.04721)
(0.0321266 0.371053 0.370235)
(0.0225969 0.384785 0.455622)
(0.2511 -0.00285356 1.11494)
(0.137712 -0.0556089 1.5654)
(0.17368 -0.14742 1.41047)
(0.0900058 -0.222599 1.06345)
(0.231273 0.334321 0.491653)
(0.320794 -0.0392445 1.24581)
(0.276195 -0.146217 1.59865)
(0.266033 -0.176575 1.55347)
(0.181505 -0.297812 1.09284)
(0.358772 0.151811 1.1473)
(0.402814 -0.0617294 1.58451)
(0.362263 -0.160876 1.51751)
(-0.345759 -0.03088 0.948182)
(-0.18022 0.178118 0.450203)
(-0.37399 0.272716 0.613624)
(-0.300034 -0.0624625 0.894513)
(-0.260124 -0.193746 1.06934)
(-0.186524 0.295861 0.498044)
(-0.285292 0.116887 0.599664)
(-0.137337 -0.151488 0.983762)
(-0.165044 -0.18432 1.0893)
(-0.0602992 -0.239312 1.02208)
(0.0272709 0.379471 0.359599)
(-0.026992 0.406944 0.461643)
(0.196414 0.00241439 1.11127)
(0.132704 -0.0539681 1.56683)
(0.165689 -0.123268 1.45474)
(0.0953465 -0.22546 1.13458)
(0.255545 0.398056 0.497692)
(0.351567 -0.025641 1.21258)
(0.2727 -0.135432 1.60032)
(0.262241 -0.155583 1.58181)
(0.200821 -0.305843 1.23317)
(0.379595 0.162534 1.10255)
(0.430534 -0.0497162 1.59484)
(0.352328 -0.166345 1.56425)
(-0.337642 0.00291219 0.789316)
(-0.0894967 0.0861881 0.477134)
(-0.373942 0.23659 0.60561)
(-0.298787 0.00824563 0.918119)
(-0.242739 -0.179164 1.0325)
(-0.207345 0.271274 0.517635)
(-0.333013 0.113628 0.617247)
(-0.155063 -0.15199 0.930281)
(-0.163176 -0.194681 1.03491)
(-0.0935795 -0.233321 0.972402)
(0.0222324 0.389878 0.377624)
(-0.0729371 0.419591 0.469246)
(0.0705962 -0.015235 1.09326)
(0.105597 -0.0354916 1.57249)
(0.114871 -0.122226 1.49064)
(0.0660926 -0.222863 1.19387)
(0.276851 0.448387 0.505955)
(0.369282 -0.0354272 1.18829)
(0.261943 -0.135773 1.6082)
(0.248271 -0.141692 1.61227)
(0.199703 -0.298745 1.36966)
(0.419243 0.141859 1.06528)
(0.437955 -0.0300632 1.62511)
(0.343434 -0.162439 1.62199)
(-0.263536 -0.0365144 0.606001)
(-0.000997688 -0.0325009 0.495044)
(-0.355896 0.205261 0.601553)
(-0.318722 0.135413 0.958424)
(-0.226709 -0.168892 1.00382)
(-0.244985 0.221385 0.546165)
(-0.380476 0.118293 0.630599)
(-0.184966 -0.130416 0.859541)
(-0.141515 -0.17839 0.992348)
(-0.0925201 -0.236042 0.923818)
(0.0197063 0.395069 0.424538)
(-0.114964 0.415133 0.481187)
(-0.113524 -0.0251377 1.09632)
(0.0138977 -0.0165596 1.54694)
(0.0743096 -0.147104 1.48143)
(0.051737 -0.226562 1.22623)
(0.298253 0.475955 0.51244)
(0.364402 -0.0268395 1.15976)
(0.251264 -0.126307 1.62907)
(0.235498 -0.119873 1.65511)
(0.191352 -0.270417 1.49228)
(0.462788 0.119804 1.02938)
(0.435751 -0.0114966 1.65637)
(0.333676 -0.153649 1.69398)
(-0.230876 -0.0331458 0.560284)
(0.0136791 -0.0912541 0.538279)
(-0.277621 0.169484 0.625247)
(-0.389708 0.147381 0.857703)
(-0.187314 -0.109409 1.00465)
(-0.267583 0.173917 0.591117)
(-0.413579 0.100608 0.659444)
(-0.238884 -0.0785026 0.809787)
(-0.1416 -0.118367 0.945384)
(-0.082662 -0.239874 0.900768)
(0.0196517 0.380948 0.473749)
(-0.142771 0.38478 0.517655)
(-0.250984 -0.0264092 1.10324)
(-0.0653155 -0.0346305 1.46222)
(0.0555125 -0.178159 1.42187)
(0.0570722 -0.234642 1.23991)
(0.290758 0.479381 0.5375)
(0.350178 0.0226961 1.13228)
(0.228385 -0.0873284 1.65244)
(0.207249 -0.102468 1.70443)
(0.176985 -0.24734 1.59996)
(0.462468 0.116811 0.974104)
(0.414753 -0.00137799 1.71169)
(0.326703 -0.142946 1.76605)
(-0.158986 -0.016712 0.546012)
(0.0156017 -0.121575 0.633593)
(-0.199782 0.11775 0.644726)
(-0.284217 0.127362 0.710387)
(-0.18123 0.0142756 0.930872)
(-0.263378 0.13736 0.649143)
(-0.416373 0.058033 0.708651)
(-0.280389 -0.0596599 0.812151)
(-0.173278 -0.0430984 0.901655)
(-0.0672177 -0.25119 0.889461)
(0.0213241 0.348176 0.520931)
(-0.168199 0.311044 0.581134)
(-0.32191 -0.0461422 1.06829)
(-0.0884809 -0.109459 1.35177)
(0.0229291 -0.213472 1.35342)
(0.0719747 -0.247713 1.24468)
(0.252426 0.466667 0.592593)
(0.314343 0.100267 1.116)
(0.138155 -0.00261972 1.67394)
(0.177461 -0.0654643 1.74843)
(0.161915 -0.228428 1.6887)
(0.435857 0.12589 0.952242)
(0.365166 -0.0045472 1.75859)
(0.306944 -0.13643 1.83333)
(-0.0719674 -0.00714319 0.516366)
(0.0386946 -0.14505 0.755379)
(-0.133255 0.0512615 0.684579)
(-0.199885 0.0951047 0.618011)
(-0.151818 0.0161175 0.742613)
(-0.244968 0.0892153 0.718178)
(-0.412003 0.0295557 0.756294)
(-0.302819 -0.0427404 0.848691)
(-0.204112 0.0114741 0.880206)
(-0.0380303 -0.273743 0.898319)
(0.0277853 0.299736 0.558413)
(-0.21038 0.220158 0.657247)
(-0.361472 -0.0811635 0.98948)
(-0.131018 -0.22309 1.21355)
(-0.0230995 -0.267595 1.28177)
(0.0801535 -0.273609 1.2148)
(0.234082 0.45494 0.633374)
(0.249692 0.131174 1.13122)
(0.026009 0.0350665 1.69248)
(0.096851 -0.0266469 1.74952)
(0.122366 -0.216849 1.72954)
(0.421555 0.139501 0.981219)
(0.30612 -0.00311382 1.83494)
(0.28994 -0.12471 1.88503)
(-0.00832315 -0.00259127 0.496414)
(0.101241 -0.18732 0.860154)
(-0.0369916 0.00317421 0.762838)
(-0.124841 0.0591106 0.601664)
(-0.118288 0.0141814 0.615041)
(-0.243551 0.0211796 0.790941)
(-0.411133 0.0100515 0.799784)
(-0.33154 0.015655 0.876769)
(-0.208386 0.043032 0.872766)
(-0.0473237 -0.234964 0.939457)
(0.0309737 0.220702 0.602603)
(-0.25953 0.13589 0.722442)
(-0.393148 -0.119286 0.925322)
(-0.20798 -0.279939 1.08537)
(-0.0522541 -0.322308 1.18949)
(0.0805061 -0.341032 1.13193)
(0.244239 0.438259 0.633805)
(0.082069 0.0627915 1.17304)
(-0.0480351 -0.0346948 1.69104)
(0.0134296 -0.0230328 1.66893)
(0.0948677 -0.175357 1.66518)
(0.448528 0.194638 1.10138)
(0.203422 -0.0177887 1.87759)
(0.230441 -0.118178 1.8978)
(0.0375424 0.00306358 0.491626)
(0.168695 -0.241888 0.934941)
(0.0463781 -0.0028382 0.841996)
(-0.0396043 0.0685515 0.623223)
(-0.0482467 0.0160275 0.56858)
(-0.2473 -0.0453625 0.869597)
(-0.40335 -0.0138688 0.851323)
(-0.337515 0.0663019 0.870176)
(-0.199957 0.055577 0.868953)
(-0.0815431 -0.0688619 0.965084)
(0.015926 0.120321 0.669818)
(-0.291588 0.052745 0.786074)
(-0.415321 -0.164204 0.91744)
(-0.283256 -0.234979 1.01615)
(-0.0667958 -0.329502 1.11609)
(0.0854556 -0.385045 1.09935)
(0.184069 0.352131 0.64401)
(-0.258954 -0.137743 1.18912)
(-0.124802 -0.206491 1.54627)
(0.0438748 -0.180144 1.54338)
(0.194311 -0.33166 1.50584)
(0.258462 0.217812 1.35103)
(0.0774187 -0.00886064 1.84506)
(0.165094 -0.0939924 1.81321)
(0.0701854 0.00796443 0.486852)
(0.209217 -0.280924 1.00278)
(0.115808 -0.00977081 0.920504)
(0.0326092 0.103039 0.64129)
(0.0202843 0.0332861 0.5592)
(-0.234298 -0.1089 0.949952)
(-0.386742 -0.0224858 0.902707)
(-0.317418 0.0738781 0.849802)
(-0.192279 0.0669246 0.857968)
(-0.06795 -0.0225961 0.927109)
(-0.0142847 0.0126563 0.780485)
(-0.292203 -0.0517962 0.882425)
(-0.412773 -0.179044 0.947276)
(-0.327446 -0.138496 1.00713)
(-0.11833 -0.226621 1.08547)
(0.0739874 -0.286353 1.19697)
(-0.0793701 0.0605999 0.832912)
(-0.407504 -0.246655 1.14912)
(-0.202472 -0.263878 1.30394)
(0.0439826 -0.418084 1.26616)
(0.250325 -0.418078 1.42796)
(-0.241657 -0.150744 1.39669)
(-0.101026 -0.0760739 1.67833)
(0.0824451 -0.136704 1.51736)
(0.0947693 0.00957569 0.48504)
(0.245342 -0.308678 1.06905)
(0.192301 -0.0254096 0.989876)
(0.0989924 0.121129 0.649131)
(0.067424 0.0539918 0.558854)
(-0.198393 -0.167791 1.04109)
(-0.366611 -0.0239675 0.939826)
(-0.261408 0.0699583 0.811791)
(-0.19611 0.0780187 0.825479)
(-0.0685989 -0.0260883 0.877352)
(-0.0425069 -0.0965592 0.939538)
(-0.283577 -0.153357 1.01178)
(-0.375694 -0.143668 1.03019)
(-0.333342 -0.0337846 1.02279)
(-0.224438 -0.02398 1.04857)
(-0.0139871 -0.089082 1.28598)
(-0.260519 -0.18329 1.11393)
(-0.410214 -0.257869 1.13233)
(-0.259152 -0.138105 1.16246)
(-0.0797523 -0.193643 1.10753)
(0.147329 -0.245515 1.42625)
(-0.426914 -0.179088 1.25903)
(-0.239514 -0.0534062 1.27883)
(0.0148837 -0.0759575 1.06648)
(0.112733 0.00863458 0.495471)
(0.277196 -0.322331 1.1263)
(0.26623 -0.0380593 1.03328)
(0.166236 0.117108 0.65203)
(0.0964514 0.0639874 0.565872)
(-0.130258 -0.223644 1.14877)
(-0.328592 -0.04901 0.980719)
(-0.191465 0.0654989 0.766818)
(-0.194877 0.089168 0.784402)
(-0.0835861 -0.0272166 0.849337)
(-0.0610982 -0.196864 1.12401)
(-0.269235 -0.24087 1.15856)
(-0.340497 -0.0791252 1.09487)
(-0.309032 0.0524798 1.03192)
(-0.250967 0.0796137 0.985223)
(-0.100582 -0.0244065 1.18151)
(-0.284655 -0.277278 1.2957)
(-0.371046 -0.204031 1.09895)
(-0.287946 0.0012937 1.08241)
(-0.190475 0.0212614 1.03674)
(-0.0330315 0.00972893 1.16788)
(-0.307583 -0.0995123 1.13882)
(-0.216392 -0.000433659 1.04936)
(-0.0574788 0.0102996 0.899758)
(0.126364 0.00658263 0.51966)
(0.293199 -0.328203 1.16967)
(0.31724 -0.0455936 1.05455)
(0.220527 0.0958764 0.656872)
(0.111228 0.0587966 0.582942)
(-0.0757268 -0.289756 1.2462)
(-0.238234 -0.0723329 1.02251)
(-0.133464 0.0433738 0.73378)
(-0.167785 0.0947358 0.752536)
(-0.0834445 0.00858115 0.819083)
(-0.0696572 -0.274656 1.3078)
(-0.226575 -0.301336 1.27586)
(-0.318629 -0.0414749 1.11909)
(-0.277898 0.103864 1.00818)
(-0.201144 0.0939724 0.918496)
(-0.102656 0.0290663 1.01872)
(-0.273456 -0.280818 1.39079)
(-0.331183 -0.0882447 1.08603)
(-0.277309 0.0920981 1.0184)
(-0.166222 0.0906059 0.984895)
(-0.0508595 0.0714231 0.924478)
(-0.209571 -0.0738874 1.03338)
(-0.203567 0.0356596 0.972077)
(-0.0836793 0.040281 0.848088)
(0.129215 0.00454687 0.555531)
(0.292655 -0.326892 1.21802)
(0.351762 -0.0343648 1.05729)
(0.238162 0.062047 0.676836)
(0.116699 0.0378832 0.613603)
(-0.0319052 -0.35599 1.31642)
(-0.108675 -0.0545352 1.05118)
(-0.0993985 0.00226447 0.727576)
(-0.108088 0.0719111 0.737084)
(-0.0750953 0.0393021 0.780795)
(-0.0674054 -0.318382 1.4541)
(-0.17626 -0.320714 1.32275)
(-0.301252 -0.0442352 1.119)
(-0.235465 0.100049 0.941211)
(-0.110338 0.0381875 0.857408)
(-0.0510166 0.0521375 0.873389)
(-0.24044 -0.246192 1.39354)
(-0.296385 -0.0274083 1.11328)
(-0.224098 0.114112 0.959911)
(-0.106861 0.0733592 0.917238)
(-0.0309458 0.0664131 0.848628)
(-0.1676 -0.0675736 0.999374)
(-0.164869 0.0610708 0.950573)
(-0.0691236 0.0497683 0.834605)
(0.116793 0.00234214 0.601588)
(0.283028 -0.312813 1.28085)
(0.388502 0.0121667 1.02772)
(0.205332 0.0138239 0.715741)
(0.11575 0.0151401 0.657837)
(0.0112768 -0.399064 1.37573)
(0.0161869 0.00248116 1.07505)
(-0.0762363 -0.037572 0.74636)
(-0.0297619 0.0190134 0.741838)
(-0.0672675 0.041852 0.761925)
(-0.064765 -0.338916 1.55616)
(-0.148624 -0.304184 1.33802)
(-0.256555 -0.0592962 1.10464)
(-0.145221 0.0352386 0.824106)
(-0.0175589 -0.0344788 0.797216)
(-0.0118333 0.0272388 0.785438)
(-0.196518 -0.215572 1.36341)
(-0.267391 -0.0125603 1.11454)
(-0.137257 0.050314 0.890242)
(-0.051924 0.0361551 0.84539)
(-0.0180817 0.0660456 0.826595)
(-0.151018 -0.0667541 0.994783)
(-0.129091 0.0548559 0.93778)
(-0.0577545 0.0416914 0.854053)