/*--------------------------------*- C++ -*----------------------------------*\
| =========                 |                                                 |
| \\      /  F ield         | OpenFOAM: The Open Source CFD Toolbox           |
|  \\    /   O peration     | Version:  5.x                                   |
|   \\  /    A nd           | Web:      www.OpenFOAM.org                      |
|    \\/     M anipulation  |                                                 |
\*---------------------------------------------------------------------------*/
FoamFile
{
    version     2.0;
    format      ascii;
    class       volVectorField;
    location    "4";
    object      Us;
}
// * * * * * * * * * * * * * * * * * * * * * * * * * * * * * * * * * * * * * //

dimensions      [0 1 -1 0 0 0 0];

internalField   nonuniform List<vector> 
10571
(
(0.00492005 -0.000783782 -0.113235)
(-0.0827703 0.0671926 -0.15979)
(0.0129374 0.0354223 -0.131629)
(0.107715 0.149468 -0.0665356)
(0.0146971 0.0642847 0.00159434)
(-0.111439 0.127765 -0.0897666)
(-0.0214339 0.117454 -0.158219)
(0.0998269 0.0726044 -0.141921)
(0.0864623 0.0515324 -0.0181832)
(-0.0158396 -0.00723907 -0.0160622)
(0.00153764 -0.0441086 -0.0200712)
(0.00951363 0.00146569 0.0459401)
(-0.0993579 0.167957 -0.141636)
(0.048943 0.100941 -0.104056)
(0.0861286 0.00166183 -0.00312439)
(-0.0293237 -0.0552761 -0.00933285)
(0.0295209 0.000941298 0.00851956)
(-0.0964746 0.0053284 -0.132954)
(0.0438242 -0.113977 -0.14993)
(-0.0470423 -0.146685 -0.0138026)
(0.00379269 -0.04257 -0.0669759)
(-0.108117 -0.0627342 -0.141724)
(-0.0683721 -0.0400105 -0.150347)
(-0.0437783 -0.000598101 -0.0973069)
(-0.00630091 0.0446061 -0.0757253)
(-0.0522712 0.0749634 -0.0587489)
(-0.0116315 0.0971412 -0.0469672)
(0.0463502 0.120888 -0.0593492)
(-0.0333903 -0.0639245 -0.176174)
(-0.0890484 0.182669 0.0419793)
(-0.0868434 0.0739089 -0.134046)
(-0.148402 0.0281342 -0.154472)
(0.0022237 -0.109392 -0.0212392)
(-0.0115309 -0.0585775 -0.132129)
(-0.000120573 0.00653458 -0.0148417)
(-0.0277149 0.103724 0.0484105)
(-0.184855 0.0158871 -0.123129)
(-0.12111 0.0171599 -0.149521)
(0.0822798 -0.0272451 -0.0707218)
(0.0753934 0.0150509 -0.144709)
(-0.0165168 -0.0198213 0.00596956)
(-0.150381 -0.0241983 -0.110222)
(-0.0955582 0.0242148 -0.171479)
(-0.0293645 0.0429721 -0.198806)
(-0.0273391 0.0693699 -0.218073)
(-0.119218 -0.0364728 -0.146346)
(-0.0716465 -0.00277461 -0.182457)
(-0.05157 0.024968 -0.190979)
(-0.131455 -0.00969753 -0.0907369)
(0.0168737 -0.00548695 -0.0179499)
(-0.0913354 0.0630589 -0.0197092)
(-0.136681 -0.0110255 -0.0294884)
(-0.103544 -0.122441 -0.0544924)
(0.0531156 0.154571 0.190479)
(-0.259904 0.0507216 -0.0781743)
(-0.309309 0.0250538 -0.0444623)
(-0.0834724 -0.106609 0.0948087)
(0 0 0)
(-0.00173235 0.00495008 0.0098133)
(-0.137114 0.114926 0.121469)
(-0.228136 0.0168244 -0.103711)
(-0.210482 0.0694521 -0.139244)
(-0.1064 0.0968769 -0.0811375)
(0.033399 0.0313316 -0.0408772)
(-0.0973693 -0.0583095 0.0521235)
(-0.183355 0.00369155 -0.091582)
(-0.151591 0.0432323 -0.162349)
(-0.132654 0.0846344 -0.186261)
(-0.0618917 0.120729 -0.187613)
(-0.0421118 -0.0121412 -0.115567)
(-0.0892013 -0.00286881 -0.223532)
(-0.0459387 0.0206848 -0.214476)
(-0.21472 -0.0228047 -0.0559814)
(0.124881 -0.137595 -0.0515853)
(-0.335006 -0.0232016 -0.0114263)
(-0.310437 -0.127036 0.00360589)
(-0.148864 -0.105559 0.0558826)
(0.101797 0.0325704 0.203039)
(-0.306006 0.0586316 -0.0743605)
(-0.299341 0.0936805 -0.0754966)
(-0.19333 -0.0383243 0.162643)
(0 0 0)
(-0.0226761 -0.0466708 0.0106726)
(-0.196382 0.0025213 0.109186)
(-0.195296 0.0178797 -0.0718752)
(-0.229069 0.0960629 -0.126284)
(-0.196965 0.135921 -0.0799037)
(-0.0219924 0.0618178 0.0517909)
(-0.116528 -0.00681717 0.0625689)
(-0.161197 0.00228544 -0.0825302)
(-0.14668 0.082341 -0.155192)
(-0.157766 0.105946 -0.148393)
(-0.0872584 0.128258 -0.119039)
(0.110995 0.0458727 -0.0533108)
(0.187955 -0.0502571 -0.387471)
(-0.0363409 0.0207549 -0.19078)
(-0.256413 -0.0676983 0.0168548)
(0.0907353 -0.13774 -0.0120351)
(0.0679142 -0.228828 0.0599707)
(-0.337215 -0.0876651 0.0533216)
(-0.178094 -0.114881 0.148558)
(-0.0333402 -0.139022 0.194633)
(0.0416654 -0.0824575 0.101973)
(-0.274062 0.0850047 0.00717924)
(-0.256422 0.0674263 0.0989014)
(0 0 0)
(-0.0123703 -0.054779 0.00444512)
(-0.116258 -0.0374605 0.160614)
(-0.0666864 0.0274714 -0.0144793)
(-0.189192 0.0855807 -0.0917493)
(-0.186696 0.134134 -0.0284467)
(-0.0379728 0.0856947 0.218977)
(-0.0759001 0.0236489 0.0846059)
(-0.0754667 0.013345 -0.0230873)
(-0.0912165 0.086195 -0.139799)
(-0.157594 0.114665 -0.119432)
(-0.0839309 0.129976 -0.0862783)
(0.1563 0.0670305 0.000687431)
(0.222606 0.00986601 -0.371147)
(0.225038 -0.12458 -0.512328)
(0 0 0)
(0.0732743 -0.159368 0.0817609)
(0.160133 -0.2272 0.0647485)
(-0.149031 -0.312745 0.244812)
(-0.186772 -0.0989505 0.191808)
(-0.0237785 -0.199112 0.232473)
(0.145719 -0.133055 0.191718)
(0.0390186 -0.0226317 0.0751254)
(-0.176783 0.0442102 0.162474)
(-0.0811711 -0.0139982 0.262768)
(-0.00523112 0.00164106 -0.00159034)
(-0.00775701 -0.0288152 0.0231834)
(-0.0579946 -0.108891 0.272938)
(0.019322 0.0507698 0.0512885)
(0.204863 -0.0254797 -0.0700557)
(-0.139477 0.105303 0.0524264)
(-0.0837531 0.109845 0.118124)
(-0.000750377 -0.000110589 -0.000244259)
(-0.0130301 0.0630992 0.099554)
(-0.00713002 0.0740276 0.0339131)
(0.168809 0.102192 -0.104349)
(0 0 0)
(-0.0706603 0.157162 0.000955046)
(0.158885 0.071521 0.0380251)
(0.251319 0.026626 -0.243471)
(0 0 0)
(0 0 0)
(0.036092 -0.174062 0.138304)
(0 0 0)
(0 0 0)
(0 0 0)
(-0.00634302 -0.213253 0.276129)
(0.145257 -0.117659 0.239594)
(0.26845 -0.133807 0.109642)
(-0.0634375 0.0186913 0.257777)
(-0.0315384 0.0115932 0.263754)
(0 0 0)
(-0.0146651 -0.0259364 0.0770982)
(0 0 0)
(0.0823575 -0.00420115 0.151301)
(0.235718 -0.019617 0.0693497)
(0 0 0)
(0 0 0)
(0 0 0)
(0.0107533 0.0657496 0.155351)
(0.0252867 0.0896825 0.0722687)
(0.180853 0.0966582 -0.00563325)
(0 0 0)
(0 0 0)
(0 0 0)
(0.137599 0.0767641 0.0545463)
(0.132188 0.258677 0.0100731)
(0 0 0)
(0 0 0)
(0 0 0)
(0.148981 -0.162341 0.209248)
(0 0 0)
(0 0 0)
(-0.0142484 -0.143188 0.292105)
(0.127483 -0.0970957 0.27769)
(0 0 0)
(0 0 0)
(0 0 0)
(0 0 0)
(-0.0426584 -0.0540952 0.160507)
(-0.0234321 -0.0571138 0.291526)
(0.096961 -0.0334472 0.219497)
(0 0 0)
(0 0 0)
(0 0 0)
(0 0 0)
(-0.0140597 0.0599406 0.191934)
(0.0732389 0.103679 0.115951)
(0.146401 0.083359 0.102494)
(0 0 0)
(0 0 0)
(0 0 0)
(0.146548 0.146472 -0.0709971)
(0 0 0)
(0 0 0)
(0 0 0)
(0 0 0)
(0 0 0)
(0 0 0)
(0 0 0)
(0 0 0)
(0 0 0)
(0 0 0)
(0 0 0)
(0 0 0)
(0 0 0)
(0.00239307 -0.100627 0.259803)
(-0.0173376 -0.0555045 0.287934)
(0.157758 -0.0190085 0.265695)
(0 0 0)
(0 0 0)
(0 0 0)
(0 0 0)
(0.00992355 0.0139679 0.286983)
(0 0 0)
(0 0 0)
(0 0 0)
(0 0 0)
(0 0 0)
(0 0 0)
(0 0 0)
(0 0 0)
(0 0 0)
(0 0 0)
(0 0 0)
(0 0 0)
(0 0 0)
(0 0 0)
(0 0 0)
(0 0 0)
(0 0 0)
(0 0 0)
(0 0 0)
(0 0 0)
(0 0 0)
(0 0 0)
(0 0 0)
(0 0 0)
(0 0 0)
(0 0 0)
(0 0 0)
(0 0 0)
(0 0 0)
(0 0 0)
(0 0 0)
(0 0 0)
(0 0 0)
(0 0 0)
(0 0 0)
(0 0 0)
(0 0 0)
(0 0 0)
(0 0 0)
(0 0 0)
(0 0 0)
(0 0 0)
(0 0 0)
(0 0 0)
(0 0 0)
(0 0 0)
(0 0 0)
(0 0 0)
(0 0 0)
(0 0 0)
(0 0 0)
(0 0 0)
(0 0 0)
(0 0 0)
(0 0 0)
(0 0 0)
(0 0 0)
(0 0 0)
(0 0 0)
(0 0 0)
(0 0 0)
(0 0 0)
(0 0 0)
(0 0 0)
(0 0 0)
(0 0 0)
(0 0 0)
(0 0 0)
(0 0 0)
(0 0 0)
(0 0 0)
(0 0 0)
(0 0 0)
(0 0 0)
(0 0 0)
(0 0 0)
(0 0 0)
(0 0 0)
(0 0 0)
(0 0 0)
(0 0 0)
(0 0 0)
(0 0 0)
(0 0 0)
(0 0 0)
(0 0 0)
(0 0 0)
(0 0 0)
(0 0 0)
(0 0 0)
(0 0 0)
(0 0 0)
(0 0 0)
(0 0 0)
(0 0 0)
(0 0 0)
(0 0 0)
(0 0 0)
(0 0 0)
(0 0 0)
(0 0 0)
(0 0 0)
(0 0 0)
(0 0 0)
(0 0 0)
(0 0 0)
(0 0 0)
(0 0 0)
(0 0 0)
(0 0 0)
(0 0 0)
(0 0 0)
(0 0 0)
(0 0 0)
(0 0 0)
(0 0 0)
(0 0 0)
(0 0 0)
(0 0 0)
(0 0 0)
(0 0 0)
(0 0 0)
(0 0 0)
(0 0 0)
(0 0 0)
(0 0 0)
(0 0 0)
(0 0 0)
(0 0 0)
(0 0 0)
(0 0 0)
(0 0 0)
(0 0 0)
(0 0 0)
(0 0 0)
(0 0 0)
(0 0 0)
(0 0 0)
(0 0 0)
(0 0 0)
(0 0 0)
(0 0 0)
(0 0 0)
(0 0 0)
(0 0 0)
(0 0 0)
(0 0 0)
(0 0 0)
(0 0 0)
(0 0 0)
(0 0 0)
(0 0 0)
(0 0 0)
(0 0 0)
(0 0 0)
(0 0 0)
(0 0 0)
(0 0 0)
(0 0 0)
(0 0 0)
(0 0 0)
(0 0 0)
(0 0 0)
(0 0 0)
(0 0 0)
(0 0 0)
(0 0 0)
(0 0 0)
(0 0 0)
(0 0 0)
(0 0 0)
(0 0 0)
(0 0 0)
(0 0 0)
(0 0 0)
(0 0 0)
(0 0 0)
(0 0 0)
(0 0 0)
(0 0 0)
(0 0 0)
(0 0 0)
(0 0 0)
(0 0 0)
(0 0 0)
(0 0 0)
(0 0 0)
(0 0 0)
(0 0 0)
(0 0 0)
(0 0 0)
(0 0 0)
(0 0 0)
(0 0 0)
(0 0 0)
(0 0 0)
(0 0 0)
(0 0 0)
(0 0 0)
(0 0 0)
(0 0 0)
(0 0 0)
(0 0 0)
(0 0 0)
(0 0 0)
(0 0 0)
(0 0 0)
(0 0 0)
(0 0 0)
(0 0 0)
(0 0 0)
(0 0 0)
(0 0 0)
(0 0 0)
(0 0 0)
(0 0 0)
(0 0 0)
(0 0 0)
(0 0 0)
(0 0 0)
(0 0 0)
(0 0 0)
(0 0 0)
(0 0 0)
(0 0 0)
(0 0 0)
(0 0 0)
(0 0 0)
(0 0 0)
(0 0 0)
(0 0 0)
(0 0 0)
(0 0 0)
(0 0 0)
(0 0 0)
(0 0 0)
(0 0 0)
(0 0 0)
(0 0 0)
(0 0 0)
(0 0 0)
(0 0 0)
(0 0 0)
(0 0 0)
(0 0 0)
(0 0 0)
(0 0 0)
(0 0 0)
(0 0 0)
(0 0 0)
(0 0 0)
(0 0 0)
(0 0 0)
(0 0 0)
(0 0 0)
(0 0 0)
(0 0 0)
(0 0 0)
(0 0 0)
(0 0 0)
(0 0 0)
(0 0 0)
(0 0 0)
(0 0 0)
(0 0 0)
(0 0 0)
(0 0 0)
(0 0 0)
(0 0 0)
(0 0 0)
(0 0 0)
(0 0 0)
(0 0 0)
(0 0 0)
(0 0 0)
(0 0 0)
(0 0 0)
(0 0 0)
(0 0 0)
(0 0 0)
(0 0 0)
(0 0 0)
(0 0 0)
(0 0 0)
(0 0 0)
(0 0 0)
(0 0 0)
(0 0 0)
(0 0 0)
(0 0 0)
(0 0 0)
(0 0 0)
(0 0 0)
(0 0 0)
(0 0 0)
(0 0 0)
(0 0 0)
(0 0 0)
(0 0 0)
(0 0 0)
(0 0 0)
(0 0 0)
(0 0 0)
(0 0 0)
(0 0 0)
(0 0 0)
(0 0 0)
(0 0 0)
(0 0 0)
(0 0 0)
(0 0 0)
(0 0 0)
(0 0 0)
(0 0 0)
(0 0 0)
(0 0 0)
(0 0 0)
(0 0 0)
(0 0 0)
(0 0 0)
(0 0 0)
(0 0 0)
(0 0 0)
(0 0 0)
(0 0 0)
(0 0 0)
(0 0 0)
(0 0 0)
(0 0 0)
(0 0 0)
(0 0 0)
(0 0 0)
(0 0 0)
(0 0 0)
(0 0 0)
(0 0 0)
(0 0 0)
(0 0 0)
(0 0 0)
(0 0 0)
(0 0 0)
(0 0 0)
(0 0 0)
(0 0 0)
(0 0 0)
(0 0 0)
(0 0 0)
(0 0 0)
(0 0 0)
(0 0 0)
(0 0 0)
(0 0 0)
(0 0 0)
(0 0 0)
(0 0 0)
(0 0 0)
(0 0 0)
(0 0 0)
(0 0 0)
(0 0 0)
(0 0 0)
(0 0 0)
(0 0 0)
(0 0 0)
(0 0 0)
(0 0 0)
(0 0 0)
(0 0 0)
(0 0 0)
(0 0 0)
(0 0 0)
(0 0 0)
(0 0 0)
(0 0 0)
(0 0 0)
(0 0 0)
(0 0 0)
(0 0 0)
(0 0 0)
(0 0 0)
(0 0 0)
(0 0 0)
(0 0 0)
(0 0 0)
(0 0 0)
(0 0 0)
(0 0 0)
(0 0 0)
(0 0 0)
(0 0 0)
(0 0 0)
(0 0 0)
(0 0 0)
(0 0 0)
(0 0 0)
(0 0 0)
(0 0 0)
(0 0 0)
(0 0 0)
(0 0 0)
(0 0 0)
(0 0 0)
(0 0 0)
(0 0 0)
(0 0 0)
(0 0 0)
(0 0 0)
(0 0 0)
(0 0 0)
(0 0 0)
(0 0 0)
(0 0 0)
(0 0 0)
(0 0 0)
(0 0 0)
(0 0 0)
(0 0 0)
(0 0 0)
(0 0 0)
(0 0 0)
(0 0 0)
(0 0 0)
(0 0 0)
(0 0 0)
(0 0 0)
(0 0 0)
(0 0 0)
(0 0 0)
(0 0 0)
(0 0 0)
(0 0 0)
(0 0 0)
(0 0 0)
(0 0 0)
(0 0 0)
(0 0 0)
(0 0 0)
(0 0 0)
(0 0 0)
(0 0 0)
(0 0 0)
(0 0 0)
(0 0 0)
(0 0 0)
(0 0 0)
(0 0 0)
(0 0 0)
(0 0 0)
(0 0 0)
(0 0 0)
(0 0 0)
(0 0 0)
(0 0 0)
(0 0 0)
(0 0 0)
(0 0 0)
(0 0 0)
(0 0 0)
(0 0 0)
(0 0 0)
(0 0 0)
(0 0 0)
(0 0 0)
(0 0 0)
(0 0 0)
(0 0 0)
(0 0 0)
(0 0 0)
(0 0 0)
(0 0 0)
(0 0 0)
(0 0 0)
(0 0 0)
(0 0 0)
(0 0 0)
(0 0 0)
(0 0 0)
(0 0 0)
(0 0 0)
(0 0 0)
(0 0 0)
(0 0 0)
(0 0 0)
(0 0 0)
(0 0 0)
(0 0 0)
(0 0 0)
(0 0 0)
(0 0 0)
(0 0 0)
(0 0 0)
(0 0 0)
(0 0 0)
(0 0 0)
(0 0 0)
(0 0 0)
(0 0 0)
(0 0 0)
(0 0 0)
(0 0 0)
(0 0 0)
(0 0 0)
(0 0 0)
(0 0 0)
(0 0 0)
(0 0 0)
(0 0 0)
(0 0 0)
(0 0 0)
(0 0 0)
(0 0 0)
(0 0 0)
(0 0 0)
(0 0 0)
(0 0 0)
(0 0 0)
(0 0 0)
(0 0 0)
(0 0 0)
(0 0 0)
(0 0 0)
(0 0 0)
(0 0 0)
(0 0 0)
(0 0 0)
(0 0 0)
(0 0 0)
(0 0 0)
(0 0 0)
(0 0 0)
(0 0 0)
(0 0 0)
(0 0 0)
(0 0 0)
(0 0 0)
(0 0 0)
(0 0 0)
(0 0 0)
(0 0 0)
(0 0 0)
(0 0 0)
(0 0 0)
(0 0 0)
(0 0 0)
(0 0 0)
(0 0 0)
(0 0 0)
(0 0 0)
(0 0 0)
(0 0 0)
(0 0 0)
(0 0 0)
(0 0 0)
(0 0 0)
(0 0 0)
(0 0 0)
(0 0 0)
(0 0 0)
(0 0 0)
(0 0 0)
(0 0 0)
(0 0 0)
(0 0 0)
(0 0 0)
(0 0 0)
(0 0 0)
(0 0 0)
(0 0 0)
(0 0 0)
(0 0 0)
(0 0 0)
(0 0 0)
(0 0 0)
(0 0 0)
(0 0 0)
(0 0 0)
(0 0 0)
(0 0 0)
(0 0 0)
(0 0 0)
(0 0 0)
(0 0 0)
(0 0 0)
(0 0 0)
(0 0 0)
(0 0 0)
(0 0 0)
(0 0 0)
(0 0 0)
(0 0 0)
(0 0 0)
(0 0 0)
(0 0 0)
(0 0 0)
(0 0 0)
(0 0 0)
(0 0 0)
(0 0 0)
(0 0 0)
(0 0 0)
(0 0 0)
(0 0 0)
(0 0 0)
(0 0 0)
(0 0 0)
(0 0 0)
(0 0 0)
(0 0 0)
(0 0 0)
(0 0 0)
(0 0 0)
(0 0 0)
(0 0 0)
(0 0 0)
(0 0 0)
(0 0 0)
(0 0 0)
(0 0 0)
(0 0 0)
(0 0 0)
(0 0 0)
(0 0 0)
(0 0 0)
(0 0 0)
(0 0 0)
(0 0 0)
(0 0 0)
(0 0 0)
(0 0 0)
(0 0 0)
(0 0 0)
(0 0 0)
(0 0 0)
(0 0 0)
(0 0 0)
(0 0 0)
(0 0 0)
(0 0 0)
(0 0 0)
(0 0 0)
(0 0 0)
(0 0 0)
(0 0 0)
(0 0 0)
(0 0 0)
(0 0 0)
(0 0 0)
(0 0 0)
(0 0 0)
(0 0 0)
(0 0 0)
(0 0 0)
(0 0 0)
(0 0 0)
(0 0 0)
(0 0 0)
(0 0 0)
(0 0 0)
(0 0 0)
(0 0 0)
(0 0 0)
(0 0 0)
(0 0 0)
(0 0 0)
(0 0 0)
(0 0 0)
(0 0 0)
(0 0 0)
(0 0 0)
(0 0 0)
(0 0 0)
(0 0 0)
(0 0 0)
(0 0 0)
(0 0 0)
(0 0 0)
(0 0 0)
(0 0 0)
(0 0 0)
(0 0 0)
(0 0 0)
(0 0 0)
(0 0 0)
(0 0 0)
(0 0 0)
(0 0 0)
(0 0 0)
(0 0 0)
(0 0 0)
(0 0 0)
(0 0 0)
(0 0 0)
(0 0 0)
(0 0 0)
(0 0 0)
(0 0 0)
(0 0 0)
(0 0 0)
(0 0 0)
(0 0 0)
(0 0 0)
(0 0 0)
(0 0 0)
(0 0 0)
(0 0 0)
(0 0 0)
(0 0 0)
(0 0 0)
(0 0 0)
(0 0 0)
(0 0 0)
(0 0 0)
(0 0 0)
(0 0 0)
(0 0 0)
(0 0 0)
(0 0 0)
(0 0 0)
(0 0 0)
(0 0 0)
(0 0 0)
(0 0 0)
(0 0 0)
(0 0 0)
(0 0 0)
(0 0 0)
(0 0 0)
(0 0 0)
(0 0 0)
(0 0 0)
(0 0 0)
(0 0 0)
(0 0 0)
(0 0 0)
(0 0 0)
(0 0 0)
(0 0 0)
(0 0 0)
(0 0 0)
(0 0 0)
(0 0 0)
(0 0 0)
(0 0 0)
(0 0 0)
(0 0 0)
(0 0 0)
(0 0 0)
(0 0 0)
(0 0 0)
(0 0 0)
(0 0 0)
(0 0 0)
(0 0 0)
(0 0 0)
(0 0 0)
(0 0 0)
(0 0 0)
(0 0 0)
(0 0 0)
(0 0 0)
(0 0 0)
(0 0 0)
(0 0 0)
(0 0 0)
(0 0 0)
(0 0 0)
(0 0 0)
(0 0 0)
(0 0 0)
(0 0 0)
(0 0 0)
(0 0 0)
(0 0 0)
(0 0 0)
(0 0 0)
(0 0 0)
(0 0 0)
(0 0 0)
(0 0 0)
(0 0 0)
(0 0 0)
(0 0 0)
(0 0 0)
(0 0 0)
(0 0 0)
(0 0 0)
(0 0 0)
(0 0 0)
(0 0 0)
(0 0 0)
(0 0 0)
(0 0 0)
(0 0 0)
(0 0 0)
(0 0 0)
(0 0 0)
(0 0 0)
(0 0 0)
(0 0 0)
(0 0 0)
(0 0 0)
(0 0 0)
(0 0 0)
(0 0 0)
(0 0 0)
(0 0 0)
(0 0 0)
(0 0 0)
(0 0 0)
(0 0 0)
(0 0 0)
(0 0 0)
(0 0 0)
(0 0 0)
(0 0 0)
(0 0 0)
(0 0 0)
(0 0 0)
(0 0 0)
(0 0 0)
(0 0 0)
(0 0 0)
(0 0 0)
(0 0 0)
(0 0 0)
(0 0 0)
(0 0 0)
(0 0 0)
(0 0 0)
(0 0 0)
(0 0 0)
(0 0 0)
(0 0 0)
(0 0 0)
(0 0 0)
(0 0 0)
(0 0 0)
(0 0 0)
(0 0 0)
(0 0 0)
(0 0 0)
(0 0 0)
(0 0 0)
(0 0 0)
(0 0 0)
(0 0 0)
(0 0 0)
(0 0 0)
(0 0 0)
(0 0 0)
(0 0 0)
(0 0 0)
(0 0 0)
(0 0 0)
(0 0 0)
(0 0 0)
(0 0 0)
(0 0 0)
(0 0 0)
(0 0 0)
(0 0 0)
(0 0 0)
(0 0 0)
(0 0 0)
(0 0 0)
(0 0 0)
(0 0 0)
(0 0 0)
(0 0 0)
(0 0 0)
(0 0 0)
(0 0 0)
(0 0 0)
(0 0 0)
(0 0 0)
(0 0 0)
(0 0 0)
(0 0 0)
(0 0 0)
(0 0 0)
(0 0 0)
(0 0 0)
(0 0 0)
(0 0 0)
(0 0 0)
(0 0 0)
(0 0 0)
(0 0 0)
(0 0 0)
(0 0 0)
(0 0 0)
(0 0 0)
(0 0 0)
(0 0 0)
(0 0 0)
(0 0 0)
(0 0 0)
(0 0 0)
(0 0 0)
(0 0 0)
(0 0 0)
(0 0 0)
(0 0 0)
(0 0 0)
(0 0 0)
(0 0 0)
(0 0 0)
(0 0 0)
(0 0 0)
(0 0 0)
(0 0 0)
(0 0 0)
(0 0 0)
(0 0 0)
(0 0 0)
(0 0 0)
(0 0 0)
(0 0 0)
(0 0 0)
(0 0 0)
(0 0 0)
(0 0 0)
(0 0 0)
(0 0 0)
(0 0 0)
(0 0 0)
(0 0 0)
(0 0 0)
(0 0 0)
(0 0 0)
(0 0 0)
(0 0 0)
(0 0 0)
(0 0 0)
(0 0 0)
(0 0 0)
(0 0 0)
(0 0 0)
(0 0 0)
(0 0 0)
(0 0 0)
(0 0 0)
(0 0 0)
(0 0 0)
(0 0 0)
(0 0 0)
(0 0 0)
(0 0 0)
(0 0 0)
(0 0 0)
(0 0 0)
(0 0 0)
(0 0 0)
(0 0 0)
(0 0 0)
(0 0 0)
(0 0 0)
(0 0 0)
(0 0 0)
(0 0 0)
(0 0 0)
(0 0 0)
(0 0 0)
(0 0 0)
(0 0 0)
(0 0 0)
(0 0 0)
(0 0 0)
(0 0 0)
(0 0 0)
(0 0 0)
(0 0 0)
(0 0 0)
(0 0 0)
(0 0 0)
(0 0 0)
(0 0 0)
(0 0 0)
(0 0 0)
(0 0 0)
(0 0 0)
(0 0 0)
(0 0 0)
(0 0 0)
(0 0 0)
(0 0 0)
(0 0 0)
(0 0 0)
(0 0 0)
(0 0 0)
(0 0 0)
(0 0 0)
(0 0 0)
(0 0 0)
(0 0 0)
(0 0 0)
(0 0 0)
(0 0 0)
(0 0 0)
(0 0 0)
(0 0 0)
(0 0 0)
(0 0 0)
(0 0 0)
(0 0 0)
(0 0 0)
(0 0 0)
(0 0 0)
(0 0 0)
(0 0 0)
(0 0 0)
(0 0 0)
(0 0 0)
(0 0 0)
(0 0 0)
(0 0 0)
(0 0 0)
(0 0 0)
(0 0 0)
(0 0 0)
(0 0 0)
(0 0 0)
(0 0 0)
(0 0 0)
(0 0 0)
(0 0 0)
(0 0 0)
(0 0 0)
(0 0 0)
(0 0 0)
(0 0 0)
(0 0 0)
(0 0 0)
(0 0 0)
(0 0 0)
(0 0 0)
(0 0 0)
(0 0 0)
(0 0 0)
(0 0 0)
(0 0 0)
(0 0 0)
(0 0 0)
(0 0 0)
(0 0 0)
(0 0 0)
(0 0 0)
(0 0 0)
(0 0 0)
(0 0 0)
(0 0 0)
(0 0 0)
(0 0 0)
(0 0 0)
(0 0 0)
(0 0 0)
(0 0 0)
(0 0 0)
(0 0 0)
(0 0 0)
(0 0 0)
(0 0 0)
(0 0 0)
(0 0 0)
(0 0 0)
(0 0 0)
(0 0 0)
(0 0 0)
(0 0 0)
(0 0 0)
(0 0 0)
(0 0 0)
(0 0 0)
(0 0 0)
(0 0 0)
(0 0 0)
(0 0 0)
(0 0 0)
(0 0 0)
(0 0 0)
(0 0 0)
(0 0 0)
(0 0 0)
(0 0 0)
(0 0 0)
(0 0 0)
(0 0 0)
(0 0 0)
(0 0 0)
(0 0 0)
(0 0 0)
(0 0 0)
(0 0 0)
(0 0 0)
(0 0 0)
(0 0 0)
(0 0 0)
(0 0 0)
(0 0 0)
(0 0 0)
(0 0 0)
(0 0 0)
(0 0 0)
(0 0 0)
(0 0 0)
(0 0 0)
(0 0 0)
(0 0 0)
(0 0 0)
(0 0 0)
(0 0 0)
(0 0 0)
(0 0 0)
(0 0 0)
(0 0 0)
(0 0 0)
(0 0 0)
(0 0 0)
(0 0 0)
(0 0 0)
(0 0 0)
(0 0 0)
(0 0 0)
(0 0 0)
(0 0 0)
(0 0 0)
(0 0 0)
(0 0 0)
(0 0 0)
(0 0 0)
(0 0 0)
(0 0 0)
(0 0 0)
(0 0 0)
(0 0 0)
(0 0 0)
(0 0 0)
(0 0 0)
(0 0 0)
(0 0 0)
(0 0 0)
(0 0 0)
(0 0 0)
(0 0 0)
(0 0 0)
(0 0 0)
(0 0 0)
(0 0 0)
(0 0 0)
(0 0 0)
(0 0 0)
(0 0 0)
(0 0 0)
(0 0 0)
(0 0 0)
(0 0 0)
(0 0 0)
(0 0 0)
(0 0 0)
(0 0 0)
(0 0 0)
(0 0 0)
(0 0 0)
(0 0 0)
(0 0 0)
(0 0 0)
(0 0 0)
(0 0 0)
(0 0 0)
(0 0 0)
(0 0 0)
(0 0 0)
(0 0 0)
(0 0 0)
(0 0 0)
(0 0 0)
(0 0 0)
(0 0 0)
(0 0 0)
(0 0 0)
(0 0 0)
(0 0 0)
(0 0 0)
(0 0 0)
(0 0 0)
(0 0 0)
(0 0 0)
(0 0 0)
(0 0 0)
(0 0 0)
(0 0 0)
(0 0 0)
(0 0 0)
(0 0 0)
(0 0 0)
(0 0 0)
(0 0 0)
(0 0 0)
(0 0 0)
(0 0 0)
(0 0 0)
(0 0 0)
(0 0 0)
(0 0 0)
(0 0 0)
(0 0 0)
(0 0 0)
(0 0 0)
(0 0 0)
(0 0 0)
(0 0 0)
(0 0 0)
(0 0 0)
(0 0 0)
(0 0 0)
(0 0 0)
(0 0 0)
(0 0 0)
(0 0 0)
(0 0 0)
(0 0 0)
(0 0 0)
(0 0 0)
(0 0 0)
(0 0 0)
(0 0 0)
(0 0 0)
(0 0 0)
(0 0 0)
(0 0 0)
(0 0 0)
(0 0 0)
(0 0 0)
(0 0 0)
(0 0 0)
(0 0 0)
(0 0 0)
(0 0 0)
(0 0 0)
(0 0 0)
(0 0 0)
(0 0 0)
(0 0 0)
(0 0 0)
(0 0 0)
(0 0 0)
(0 0 0)
(0 0 0)
(0 0 0)
(0 0 0)
(0 0 0)
(0 0 0)
(0 0 0)
(0 0 0)
(0 0 0)
(0 0 0)
(0 0 0)
(0 0 0)
(0 0 0)
(0 0 0)
(0 0 0)
(0 0 0)
(0 0 0)
(0 0 0)
(0 0 0)
(0 0 0)
(0 0 0)
(0 0 0)
(0 0 0)
(0 0 0)
(0 0 0)
(0 0 0)
(0 0 0)
(0 0 0)
(0 0 0)
(0 0 0)
(0 0 0)
(0 0 0)
(0 0 0)
(0 0 0)
(0 0 0)
(0 0 0)
(0 0 0)
(0 0 0)
(0 0 0)
(0 0 0)
(0 0 0)
(0 0 0)
(0 0 0)
(0 0 0)
(0 0 0)
(0 0 0)
(0 0 0)
(0 0 0)
(0 0 0)
(0 0 0)
(0 0 0)
(0 0 0)
(0 0 0)
(0 0 0)
(0 0 0)
(0 0 0)
(0 0 0)
(0 0 0)
(0 0 0)
(0 0 0)
(0 0 0)
(0 0 0)
(0 0 0)
(0 0 0)
(0 0 0)
(0 0 0)
(0 0 0)
(0 0 0)
(0 0 0)
(0 0 0)
(0 0 0)
(0 0 0)
(0 0 0)
(0 0 0)
(0 0 0)
(0 0 0)
(0 0 0)
(0 0 0)
(0 0 0)
(0 0 0)
(0 0 0)
(0 0 0)
(0 0 0)
(0 0 0)
(0 0 0)
(0 0 0)
(0 0 0)
(0 0 0)
(0 0 0)
(0 0 0)
(0 0 0)
(0 0 0)
(0 0 0)
(0 0 0)
(0 0 0)
(0 0 0)
(0 0 0)
(0 0 0)
(0 0 0)
(0 0 0)
(0 0 0)
(0 0 0)
(0 0 0)
(0 0 0)
(0 0 0)
(0 0 0)
(0 0 0)
(0 0 0)
(0 0 0)
(0 0 0)
(0 0 0)
(0 0 0)
(0 0 0)
(0 0 0)
(0 0 0)
(0 0 0)
(0 0 0)
(0 0 0)
(0 0 0)
(0 0 0)
(0 0 0)
(0 0 0)
(0 0 0)
(0 0 0)
(0 0 0)
(0 0 0)
(0 0 0)
(0 0 0)
(0 0 0)
(0 0 0)
(0 0 0)
(0 0 0)
(0 0 0)
(0 0 0)
(0 0 0)
(0 0 0)
(0 0 0)
(0 0 0)
(0 0 0)
(0 0 0)
(0 0 0)
(0 0 0)
(0 0 0)
(0 0 0)
(0 0 0)
(0 0 0)
(0 0 0)
(0 0 0)
(0 0 0)
(0 0 0)
(0 0 0)
(0 0 0)
(0 0 0)
(0 0 0)
(0 0 0)
(0 0 0)
(0 0 0)
(0 0 0)
(0 0 0)
(0 0 0)
(0 0 0)
(0 0 0)
(0 0 0)
(0 0 0)
(0 0 0)
(0 0 0)
(0 0 0)
(0 0 0)
(0 0 0)
(0 0 0)
(0 0 0)
(0 0 0)
(0 0 0)
(0 0 0)
(0 0 0)
(0 0 0)
(0 0 0)
(0 0 0)
(0 0 0)
(0 0 0)
(0 0 0)
(0 0 0)
(0 0 0)
(0 0 0)
(0 0 0)
(0 0 0)
(0 0 0)
(0 0 0)
(0 0 0)
(0 0 0)
(0 0 0)
(0 0 0)
(0 0 0)
(0 0 0)
(0 0 0)
(0 0 0)
(0 0 0)
(0 0 0)
(0 0 0)
(0 0 0)
(0 0 0)
(0 0 0)
(0 0 0)
(0 0 0)
(0 0 0)
(0 0 0)
(0 0 0)
(0 0 0)
(0 0 0)
(0 0 0)
(0 0 0)
(0 0 0)
(0 0 0)
(0 0 0)
(0 0 0)
(0 0 0)
(0 0 0)
(0 0 0)
(0 0 0)
(0 0 0)
(0 0 0)
(0 0 0)
(0 0 0)
(0 0 0)
(0 0 0)
(0 0 0)
(0 0 0)
(0 0 0)
(0 0 0)
(0 0 0)
(0 0 0)
(0 0 0)
(0 0 0)
(0 0 0)
(0 0 0)
(0 0 0)
(0 0 0)
(0 0 0)
(0 0 0)
(0 0 0)
(0 0 0)
(0 0 0)
(0 0 0)
(0 0 0)
(0 0 0)
(0 0 0)
(0 0 0)
(0 0 0)
(0 0 0)
(0 0 0)
(0 0 0)
(0 0 0)
(0 0 0)
(0 0 0)
(0 0 0)
(0 0 0)
(0 0 0)
(0 0 0)
(0 0 0)
(0 0 0)
(0 0 0)
(0 0 0)
(0 0 0)
(0 0 0)
(0 0 0)
(0 0 0)
(0 0 0)
(0 0 0)
(0 0 0)
(0 0 0)
(0 0 0)
(0 0 0)
(0 0 0)
(0 0 0)
(0 0 0)
(0 0 0)
(0 0 0)
(0 0 0)
(0 0 0)
(0 0 0)
(0 0 0)
(0 0 0)
(0 0 0)
(0 0 0)
(0 0 0)
(0 0 0)
(0 0 0)
(0 0 0)
(0 0 0)
(0 0 0)
(0 0 0)
(0 0 0)
(0 0 0)
(0 0 0)
(0 0 0)
(0 0 0)
(0 0 0)
(0 0 0)
(0 0 0)
(0 0 0)
(0 0 0)
(0 0 0)
(0 0 0)
(0 0 0)
(0 0 0)
(0 0 0)
(0 0 0)
(0 0 0)
(0 0 0)
(0 0 0)
(0 0 0)
(0 0 0)
(0 0 0)
(0 0 0)
(0 0 0)
(0 0 0)
(0 0 0)
(0 0 0)
(0 0 0)
(0 0 0)
(0 0 0)
(0 0 0)
(0 0 0)
(0 0 0)
(0 0 0)
(0 0 0)
(0 0 0)
(0 0 0)
(0 0 0)
(0 0 0)
(0 0 0)
(0 0 0)
(0 0 0)
(0 0 0)
(0 0 0)
(0 0 0)
(0 0 0)
(0 0 0)
(0 0 0)
(0 0 0)
(0 0 0)
(0 0 0)
(0 0 0)
(0 0 0)
(0 0 0)
(0 0 0)
(0 0 0)
(0 0 0)
(0 0 0)
(0 0 0)
(0 0 0)
(0 0 0)
(0 0 0)
(0 0 0)
(0.00100507 0.0064042 -0.00859015)
(-0.00574403 -0.00140117 0.000653091)
(-0.00323993 0.00985891 -0.00170422)
(-0.0123594 0.00204141 -0.0031451)
(-0.00662995 -0.00374957 0.000447712)
(-0.0363013 0.000249299 -0.00374286)
(-0.0283434 0.0404408 -0.0248182)
(-0.00309772 0.0353432 -0.0182094)
(0.00771854 -0.00988252 -0.00445487)
(-0.00439567 0.0168184 -0.0219875)
(-0.00657508 0.0269257 -0.0138901)
(0.00830432 0.00719373 -0.0065188)
(-0.0290479 0.0384072 -0.00654407)
(-0.00302223 0.0170535 -0.00872253)
(-0.0121628 0.00386646 -0.0033373)
(-0.0128495 0.0172951 -0.0470089)
(0.0133915 0.00462325 -0.00682563)
(-0.0155304 0.0136795 0.000383117)
(-0.0120643 0.0470876 0.00705853)
(0.0114306 0.0143902 0.00166514)
(0.0024455 0.0196774 0.00292292)
(0.00238545 0.0424128 0.00875984)
(0.0049757 0.0137487 0.000907548)
(0.00718041 0.019893 0.00089886)
(0.00539141 0.0108408 0.00200998)
(0.00159126 0.000953489 0.00041848)
(0.019249 -0.0458113 0.00583195)
(0.0174186 -0.119864 0.0102619)
(0.0312031 -0.106089 0.0190555)
(0.0238073 -0.0211031 0.00242223)
(-0.0409338 0.0166808 0.000391524)
(0.0164964 -0.0563339 0.00662609)
(-0.0422879 0.0159667 0.0019666)
(-0.036525 0.0298128 -0.0289354)
(0.0298898 0.018617 -0.0288836)
(-0.0590155 0.0623215 -0.0267959)
(-0.00301537 0.0638881 -0.0597638)
(0.0450206 0.0110754 -0.0132428)
(0.00895266 0.00315165 0.00361529)
(0.0502779 0.0355937 -0.0183403)
(0.0226215 0.000579509 0.00015314)
(0.00859237 0.00937837 0.00111222)
(0.00739757 0.0035309 -0.00287934)
(0.0103314 0.000335348 0.00168906)
(0.000713805 -0.00930237 0.000330556)
(-0.000978491 -0.0022678 9.73355e-05)
(-0.0056357 -0.0128724 0.00102986)
(-0.00475842 -0.00643745 -0.000894924)
(-0.00346651 -0.118825 -0.00268546)
(-0.00467765 -0.154223 0.0183233)
(0.0306536 -0.0412175 0.0123207)
(0.0286039 -0.0825023 0.0365888)
(-0.0107097 0.0296379 0.00792021)
(0.0446215 -0.0368457 0.0311927)
(0.0278899 0.0200813 0.0148306)
(-0.0426359 0.0855075 -0.00882444)
(-0.0112316 0.104858 -0.030053)
(-0.0146862 0.0673273 0.00237533)
(-0.0066339 0.0719732 -0.0112064)
(0.0297531 0.0539843 -0.0102954)
(0.0174086 0.00415447 0.000387539)
(0.0128295 0.0192087 -0.0132652)
(0.0033652 -0.0198922 -0.00054783)
(0.0083071 -0.0163702 0.00403881)
(-0.00723751 -0.0312857 0.00999752)
(-0.0103608 -0.0534795 0.0131869)
(-0.0336704 -0.0815086 0.0245199)
(-0.0223917 -0.0338582 0.00317748)
(-0.00610642 -0.0106034 -0.00630981)
(-0.0328431 -0.062672 -0.00102118)
(0.0302773 0.000906244 -0.00814027)
(0.0618388 0.00430978 0.00743714)
(0.0538279 0.011163 0.0121037)
(0.0221766 -0.000850296 -0.00425333)
(0.0308506 -0.00679343 -0.00146752)
(0.00908741 0.0116367 0.00744049)
(-0.0189741 -0.0125465 0.00302576)
(0.00650497 -0.039837 0.00717009)
(-0.043127 -0.064734 0.00148829)
(-0.039777 -0.065677 0.00246871)
(-0.0485911 -0.0674115 0.00118531)
(-0.0838295 -0.0825022 -0.0106837)
(-0.0869303 -0.0955854 -0.0146453)
(-0.0505311 -0.102167 0.0095411)
(-0.0417192 -0.110265 -0.0105962)
(-0.0500697 -0.0885569 -0.0244617)
(-0.0131188 -0.0573633 -0.0337159)
(-0.0085163 -0.056933 -0.0241375)
(-0.0143515 0.00451505 -0.00419375)
(-0.0424945 -0.0226169 -0.00972799)
(-0.0528826 -0.0396804 -0.0201178)
(-0.0352254 -0.0110644 -0.0383195)
(-0.0725925 -0.0273984 -0.0290913)
(-0.0691018 -0.0260705 -0.0299228)
(-0.0162737 -0.00421729 -0.0437578)
(-0.0331153 -0.0199586 -0.0268207)
(-0.0605494 0.0403668 -0.165062)
(-0.0585653 0.0427221 -0.123358)
(0 0 0)
(-0.00146791 0.0299449 -0.140934)
(0.0459348 0.0439954 -0.125197)
(0.0731552 0.0186606 -0.0645797)
(0.00084157 0.0418049 -0.111638)
(0.0355808 0.0597621 -0.109505)
(0.0323878 0.0858368 -0.117853)
(0.00385769 0.0489643 -0.0845869)
(0.0238531 0.022378 -0.103579)
(0.053425 0.104845 -0.122385)
(-0.0163379 0.0121241 -0.165505)
(-0.00830543 0.0321585 -0.0855284)
(-0.0411133 -0.0177594 -0.189364)
(-0.0644859 0.102443 -0.109578)
(-0.0846655 0.11152 -0.0897094)
(-0.0668607 0.0466777 -0.158722)
(-0.104478 0.100764 -0.143632)
(-0.060533 0.0832185 -0.128182)
(-0.0857491 0.0780447 -0.132878)
(-0.0713329 0.0619721 -0.121361)
(-0.0997546 0.117376 -0.103783)
(-0.0628128 0.110126 -0.104345)
(0.011904 0.0244117 -0.0124085)
(0.0601457 0.0627095 -0.0387567)
(0.0159363 0.0329172 0.00453604)
(0.00301586 -0.0258284 -0.195158)
(-0.00286193 -0.0463303 -0.224277)
(0.0294343 0.00113368 -0.205833)
(0.0137242 -0.0594224 -0.200206)
(-0.00772365 0.00303973 -0.006398)
(0.0115393 -0.0519928 -0.231369)
(-0.0608313 0.0788936 -0.058376)
(0.0273188 -0.0487264 -0.0566263)
(0.0560866 -0.0740229 0.00861442)
(-0.0707638 0.116656 -0.0486011)
(0.00113704 0.0224453 -0.0527584)
(0.0130262 0.0409922 -0.0242588)
(-0.0293207 -0.0512414 -0.0036575)
(-0.0247745 -0.0232201 -0.0312996)
(-0.0163187 -0.0499873 -0.21578)
(0.0425543 -0.0333611 -0.189919)
(0.0294327 -0.0238825 -0.234442)
(0.0138864 -0.0580084 0.010071)
(0.00903224 -0.0182887 0.00787416)
(0.00279394 -0.00668611 -0.0234382)
(0.00514157 -0.000125708 0.00192117)
(-0.00682725 0.000301072 -0.00314515)
(-0.0226046 -0.0210288 -0.051101)
(-0.026069 -0.0528833 -0.0278599)
(0.0723982 0.0156523 -0.208451)
(0.0380645 0.00723304 -0.224716)
(0.0482521 0.0322117 -0.186754)
(0.0173127 0.00104874 -0.0079149)
(-0.00193907 0.000411884 -0.0113172)
(0.016675 0.014039 -0.00238661)
(0.00324452 -0.00995302 -0.0169315)
(-0.0249074 -0.0485004 -0.0510554)
(0.00806512 0.0106871 0.00655232)
(-0.0457732 0.0205685 0.0126337)
(-0.00161777 -0.0159709 -0.0403809)
(-0.0942031 -0.0714187 -0.0884293)
(-0.0286127 -0.0956544 -0.0600245)
(-0.0538099 -0.0656886 -0.0885447)
(-0.0118735 -0.0400358 -0.099184)
(-0.010276 -0.0336585 -0.184081)
(-0.0179602 -0.0202311 -0.165398)
(-0.0490091 -0.00993702 -0.173259)
(-0.0309922 0.00626856 -0.167016)
(0.00186017 0.00126575 -0.168608)
(-0.0866571 -0.0441397 -0.099766)
(-0.125262 -0.0643757 -0.136028)
(-0.0827973 -0.040688 -0.151659)
(-0.0622307 -0.0180842 -0.172176)
(-0.109752 -0.050747 -0.162086)
(-0.0821336 -0.0329082 -0.176549)
(-0.0657512 -0.0106415 -0.193836)
(-0.0707776 -0.0152341 -0.101094)
(-0.0494661 -0.0269726 -0.192118)
(-0.0562589 -0.0236428 -0.181376)
(-0.0543642 0.00815607 -0.184498)
(-0.0500471 -0.0104339 -0.192765)
(-0.0495907 0.0216807 -0.16285)
(-0.0479362 0.0434442 -0.0493766)
(-0.0387706 0.0347131 -0.00776692)
(0.0303615 0.0353826 -0.0487059)
(-0.0110688 0.0613061 -0.0344281)
(0.0267797 0.0900891 -0.0486425)
(-0.0616206 0.018598 -0.0532075)
(-0.0596719 0.0545169 0.00025327)
(-0.0585503 0.0653472 -0.0367737)
(0.0200665 0.0980815 -0.0799261)
(-0.0546493 -0.0309134 -0.186743)
(-0.067397 0.0192568 -0.0890186)
(-0.0615367 0.0403008 -0.0857325)
(-0.102113 -0.053339 -0.154772)
(-0.0681482 -0.0530177 -0.208513)
(-0.0936573 -0.0671055 -0.1688)
(-0.0733342 0.118038 -0.000508922)
(-0.0532086 0.102224 0.0773491)
(-0.0510482 0.0763031 -0.0480653)
(-0.0774163 0.13154 -0.0167622)
(-0.0448336 0.134489 -0.0395072)
(-0.0109368 0.0359414 -0.02893)
(-0.0301674 0.0650341 -0.0173165)
(-0.0238021 0.105454 0.037452)
(-0.0310669 0.118564 -0.0214413)
(-0.0301699 -0.0639882 -0.173138)
(0.00729399 -0.0474263 -0.119055)
(0.00795166 -0.074057 -0.129051)
(-0.0530618 -0.107537 -0.11824)
(-0.0350238 -0.0658184 -0.108045)
(-0.0319039 -0.117133 -0.0143276)
(-0.00131172 -0.069412 -0.0805892)
(-0.00285251 -0.0430329 -0.145071)
(-0.0160409 -0.0313613 -0.10834)
(-0.0767108 0.143392 0.0189319)
(-0.00223689 0.0399669 -0.0339423)
(0.00383724 0.08878 -0.00669341)
(-0.0443408 0.147394 0.0864015)
(-0.00109512 0.0446835 -0.0192895)
(0.00521419 0.113026 0.0246001)
(0.0622223 -0.0173626 -0.160655)
(0.0509977 -0.0293896 -0.136636)
(0.0159119 -0.0693723 -0.0626469)
(0.0692208 -0.0383818 -0.0424416)
(0.0624984 -0.0318753 -0.0607709)
(-0.00171689 0.0286081 0.0129398)
(-0.0117446 0.00978328 0.00759439)
(-0.00025488 0.0138925 -0.00322321)
(-0.0110549 0.0463683 0.0402522)
(-0.0235352 0.02028 0.0392253)
(0.0565837 0.00338351 -0.145665)
(0.0641471 0.0430688 -0.149687)
(0.0709681 0.0183855 -0.0885765)
(0.0488448 0.0127718 -0.106463)
(0.0295783 0.0635654 -0.112923)
(-0.00182789 0.00216981 -0.00441338)
(-0.00501084 0.000223293 0.00825099)
(-0.191515 -0.0776856 -0.0488464)
(-0.0366376 -0.0426776 -0.052224)
(-0.144851 -0.0716219 -0.101516)
(-0.056903 -0.0495137 0.0265597)
(-0.218662 -0.0596376 -0.0240475)
(-0.0494867 -0.0378413 -0.0290619)
(-0.140864 -0.0489154 -0.0701527)
(-0.0318033 0.0470221 -0.219439)
(-0.0576052 0.0244848 -0.212102)
(-0.0430552 0.0353367 -0.20643)
(-0.0826499 0.0754061 -0.193507)
(-0.0624174 0.0907649 -0.224795)
(-0.0688839 0.0406474 -0.225878)
(-0.0549576 0.0516056 -0.224616)
(-0.0526441 0.108922 -0.205513)
(-0.111049 -0.052597 -0.104533)
(-0.0667273 -0.0310784 -0.0586968)
(-0.101956 -0.0166342 -0.178035)
(-0.0793295 -0.00608446 -0.186512)
(-0.100664 -0.0269737 -0.137342)
(-0.124678 -0.014987 -0.201614)
(-0.0983306 -0.00756246 -0.210741)
(-0.0503833 0.0180953 -0.193523)
(-0.0602919 0.000927758 -0.189689)
(-0.0905622 -0.00127538 -0.197906)
(-0.0584324 0.0157199 -0.202873)
(-0.0727878 0.004553 -0.199739)
(-0.0481224 0.0239708 -0.209669)
(-0.0496626 0.0271297 -0.00256912)
(-0.0424765 0.00495159 0.0388228)
(-0.11467 0.0112757 -0.0585008)
(-0.0960836 0.0392184 0.0015794)
(-0.128195 0.0369195 -0.0371179)
(-0.159948 0.0115205 -0.0509712)
(-0.13968 0.020761 0.0284667)
(-0.191788 0.00868845 -0.0259996)
(-0.152278 -0.0170227 -0.0919483)
(-0.152251 -0.0673968 -0.128794)
(-0.174224 -0.0153471 -0.0798735)
(-0.208615 -0.0358569 -0.0721196)
(-0.19423 -0.0590035 -0.102518)
(-0.130144 -0.0825897 -0.125087)
(-0.167451 -0.0727789 -0.0960633)
(0.00963184 0.0627717 0.156514)
(0.096713 -0.0332877 0.0891843)
(-0.0383899 0.0354752 -0.00956979)
(0.0647 0.0530202 0.090762)
(-0.0350231 0.0758422 -0.00439496)
(0.0947493 -0.0786176 0.00426055)
(-0.0340652 -0.0163685 0.0334785)
(0.144302 -0.0340706 0.110102)
(-0.0589736 0.016536 0.0456852)
(-0.0509353 -0.0777076 -0.0416625)
(-0.0933189 -0.101071 0.034084)
(-0.0342279 -0.0565693 -0.0256459)
(-0.139163 -0.116863 -0.00572375)
(-0.0651341 -0.0952281 0.0143152)
(-0.129655 -0.0870496 0.0873404)
(-0.0579977 -0.090312 0.0401636)
(-0.0318311 -0.0413509 -0.0621314)
(0 0 0)
(0.0204742 0.0955659 0.0964237)
(-0.00172148 0.0231138 -0.00805017)
(0.00972216 0.096558 0.0516717)
(0.0375793 0.0258927 0.0715094)
(-0.000885343 -0.0119103 -0.0049043)
(-4.84384e-05 0.0445523 0.0565023)
(0.0280853 -0.0230752 0.0408919)
(0 0 0)
(0 0 0)
(0.00802412 -0.017524 0.0821179)
(0 0 0)
(-0.0322057 0.0588571 0.0864052)
(-0.0315359 0.0181538 0.0937425)
(-0.00872299 -0.0129283 0.0144833)
(-0.0917988 0.0501229 0.136791)
(-0.0489538 -0.0170033 0.117956)