/*--------------------------------*- C++ -*----------------------------------*\
| =========                 |                                                 |
| \\      /  F ield         | OpenFOAM: The Open Source CFD Toolbox           |
|  \\    /   O peration     | Version:  5.x                                   |
|   \\  /    A nd           | Web:      www.OpenFOAM.org                      |
|    \\/     M anipulation  |                                                 |
\*---------------------------------------------------------------------------*/
FoamFile
{
    version     2.0;
    format      ascii;
    class       volScalarField;
    location    "1";
    object      p;
}
// * * * * * * * * * * * * * * * * * * * * * * * * * * * * * * * * * * * * * //

dimensions      [0 2 -2 0 0 0 0];

internalField   nonuniform List<scalar> 
10571
(
211.346
196.025
165.977
133.679
193.919
156.181
136.065
119.372
106.641
167.202
154.453
152.604
133.158
109.143
98.5896
99.0279
159.649
135.176
84.8862
80.3142
79.5894
121.251
68.2014
72.9436
88.8436
112.852
101.213
95.9654
100.549
129.914
117.363
110.487
100.176
109.028
154.311
147.374
108.697
93.2486
81.4299
88.1829
134.337
57.2308
60.7435
67.7106
74.0112
62.3332
61.9852
68.8871
31.4313
36.2973
18.2324
57.3991
89.0879
23.5459
25.7888
69.4114
84.3315
83.6901
85.1676
45.7564
19.4594
38.6677
59.7337
68.6536
50.9293
16.968
30.8786
48.7818
54.9592
24.3535
38.8417
50.1529
14.2476
14.7107
14.7445
17.2877
56.1304
15.179
13.005
16.1438
20.6782
43.6932
18.4928
14.2625
13.5142
14.9667
23.4145
35.047
14.075
13.9278
15.1742
29.8514
35.7162
14.9196
22.0533
30.9573
13.6395
14.4406
14.2736
13.7524
13.9505
14.3894
14.232
13.1561
13.2187
14.2435
14.2076
14.2231
14.5371
13.3121
13.7773
14.7661
13.9133
14.1994
12.4736
15.8728
20.0574
14.2103
19.4895
20.1515
13.4654
14.2606
14.1782
13.7704
13.9275
14.2191
14.08
13.9726
13.891
14.0382
13.8751
14.0002
13.9421
14.1572
14.0051
13.667
13.8527
13.6033
13.4444
13.7166
12.2531
11.1689
12.8083
13.6691
21.5826
15.9757
13.6045
14.1907
14.1296
13.8402
13.8526
14.1502
13.9536
13.8329
13.8004
13.833
13.7967
14.0623
13.952
13.9568
13.9277
13.7702
13.7618
13.6488
13.4633
13.4146
12.633
10.6366
13.507
13.6577
13.0893
17.0584
16.4819
13.5493
14.1797
14.0478
13.7845
13.8226
14.1831
13.9398
13.8061
13.7463
13.6021
13.6571
14.2732
14.1931
14.0479
13.848
13.6827
13.6197
13.5365
14.1115
13.6856
13.0009
12.7466
13.5752
13.608
13.9265
11.3856
15.5522
13.8086
14.2007
14.0376
13.8498
13.9212
14.2474
14.0054
13.9164
13.7996
13.6489
13.664
14.4623
14.4361
14.2434
13.9161
13.6949
13.6358
13.5853
14.7122
14.0044
13.0994
13.3533
13.6921
14.4524
14.0108
12.1933
13.9647
14.2504
14.1028
13.9033
14.1096
14.3114
14.0795
14.0555
13.9256
13.7869
14.5221
14.5246
14.3818
14.1032
13.8751
13.9496
14.9149
14.3706
13.4831
13.3958
13.8256
14.7725
14.481
13.4736
14.5134
14.2994
14.1943
14.1878
14.2053
14.3246
14.0849
14.1625
14.1093
14.1079
14.5086
14.4989
14.3669
14.2321
14.0546
14.1593
14.7347
14.4549
14.0015
13.7657
13.997
14.6923
14.8453
13.8034
14.5073
14.349
14.2799
14.2789
14.2676
14.3111
14.1143
14.2621
14.2878
14.3289
14.4647
14.4339
14.2985
14.3257
14.2268
14.3399
14.5872
14.4095
14.1576
14.0852
14.1758
14.6637
14.8364
14.1794
14.4648
14.4001
14.3698
14.3764
14.3672
14.3285
14.2593
14.4412
14.4893
14.4832
14.4454
14.3865
14.2681
14.412
14.376
14.4506
14.4918
14.3359
14.2141
14.2704
14.3449
14.5421
14.5676
14.4528
14.4998
14.4453
14.4261
14.4797
14.4542
14.4098
14.3809
14.6716
14.6677
14.6037
14.4777
14.4088
14.2818
14.4704
14.5059
14.5293
14.4485
14.3175
14.3448
14.4069
14.4836
14.448
14.575
14.5813
14.5068
14.4707
14.443
14.5113
14.4977
14.4974
14.3994
14.7473
14.6607
14.6343
14.5336
14.4717
14.3686
14.5651
14.6021
14.576
14.4663
14.3312
14.5067
14.4895
14.596
14.4013
14.5097
14.5706
14.4957
14.5017
14.4543
14.4934
14.5137
14.5462
14.3969
14.6372
14.5876
14.6564
14.582
14.5323
14.4837
14.6355
14.5552
14.5959
14.515
14.3831
14.4903
14.4419
14.5918
14.3953
14.3316
14.2798
14.4761
14.5317
14.4623
14.4443
14.4599
14.5645
14.4443
14.5474
14.5354
14.6508
14.6161
14.5761
14.5336
14.6538
14.4417
14.5828
14.5646
14.4294
14.3867
14.3361
14.4989
14.4125
14.1148
13.9597
14.4689
14.5589
14.4597
14.3821
14.4189
14.5797
14.4831
14.4936
14.5042
14.593
14.6435
14.6081
14.56
14.6349
14.4279
14.5328
14.6055
14.4785
14.2854
14.3143
14.4227
14.4949
14.1626
13.7816
14.486
14.5851
14.4377
14.3373
14.4283
14.6122
14.5138
14.4712
14.4551
14.5198
14.6679
14.6438
14.6214
14.6541
14.4927
14.5171
14.6475
14.6041
14.5563
14.489
14.4819
14.6625
14.5831
14.4909
14.532
14.5619
14.4355
14.3718
14.4359
14.5843
14.4751
14.4344
14.3963
14.4468
14.6633
14.6747
14.6186
14.5984
14.5055
14.4951
14.6785
14.6877
14.7018
14.6483
14.5377
14.7611
14.8857
15.2311
14.6066
14.5132
14.4249
14.4803
14.4254
14.5043
14.4245
14.345
14.3429
14.3857
14.5962
14.583
14.4977
14.4243
14.456
14.4689
14.6382
14.6081
14.5921
14.5814
14.5361
14.7152
14.8037
14.8972
14.6552
14.5325
14.4716
14.5753
14.3997
14.4605
14.4069
14.2576
14.3242
14.3757
14.5236
14.4532
14.3229
14.2379
14.4196
14.4526
14.5318
14.4605
14.5177
14.5627
14.5534
14.6013
14.6632
14.7446
14.6718
14.5465
14.5164
14.6315
14.4454
14.4938
14.4306
14.296
14.3941
14.4088
14.4936
14.3543
14.2334
14.2276
14.5035
14.4958
14.4183
14.3496
14.5471
14.6406
14.6636
14.5152
14.6257
14.7476
14.6955
14.5592
14.5439
14.6742
14.5682
14.5473
14.5047
14.4375
14.5144
14.4708
14.4925
14.386
14.3271
14.4062
14.6879
14.6763
14.4137
14.3754
14.6311
14.7993
14.8526
14.5221
14.6827
14.8684
14.7065
14.5869
14.5461
14.6908
14.6654
14.591
14.581
14.5396
14.5763
14.6093
14.5325
14.4837
14.4662
14.5292
14.7605
14.8042
14.4906
14.5114
14.6916
14.9234
14.9795
14.5802
14.7434
14.9551
14.6831
14.6179
14.5275
14.6615
14.6878
14.6232
14.6357
14.5992
14.5353
14.6004
14.5778
14.5782
14.5834
14.5896
14.6687
14.7055
14.5758
14.6272
14.6735
14.858
14.8492
14.6378
14.7125
14.8033
14.6478
14.6292
14.5077
14.6339
14.6793
14.6417
14.6515
14.6452
14.5193
14.521
14.6458
14.6504
14.6505
14.7066
14.6137
14.6375
14.638
14.6874
14.6481
14.6974
14.7191
14.6912
14.7327
14.6887
14.619
14.6161
14.4963
14.5931
14.6668
14.6316
14.6306
14.6415
14.5381
14.5297
14.708
14.6843
14.6537
14.7565
14.6115
14.6067
14.6826
14.7051
14.6357
14.5869
14.6284
14.7177
14.6929
14.577
14.6039
14.5863
14.487
14.5576
14.6392
14.5925
14.5961
14.6202
14.6021
14.578
14.7276
14.6707
14.6279
14.6791
14.606
14.6087
14.6876
14.6497
14.5777
14.5325
14.5739
14.6965
14.6424
14.5127
14.6075
14.5606
14.4925
14.5457
14.6121
14.5369
14.5625
14.589
14.6258
14.6446
14.7007
14.6197
14.5684
14.5975
14.5935
14.62
14.6592
14.5719
14.5002
14.4878
14.5479
14.6451
14.5925
14.505
14.6193
14.556
14.5171
14.5398
14.6113
14.4886
14.5343
14.5693
14.6301
14.6786
14.6543
14.5567
14.503
14.5241
14.5762
14.6289
14.6128
14.5112
14.4735
14.466
14.5466
14.5928
14.5686
14.5173
14.6342
14.5802
14.5463
14.5409
14.6234
14.4842
14.5292
14.5772
14.6394
14.6995
14.6236
14.509
14.4867
14.4819
14.5714
14.6406
14.5781
14.501
14.4726
14.479
14.5679
14.5562
14.5517
14.531
14.65
14.6211
14.5695
14.5513
14.6421
14.5293
14.5579
14.6017
14.6584
14.7168
14.6245
14.505
14.5233
14.4932
14.5998
14.6575
14.5839
14.5556
14.5449
14.5425
14.6083
14.5598
14.5573
14.569
14.6666
14.6627
14.5868
14.5725
14.6652
14.5957
14.5986
14.6328
14.6798
14.7298
14.6556
14.5394
14.5839
14.5735
14.6394
14.6761
14.6202
14.6268
14.6484
14.6162
14.6517
14.5916
14.608
14.6234
14.689
14.6967
14.5923
14.6029
14.6896
14.6588
14.637
14.6628
14.6993
14.74
14.7008
14.5989
14.6398
14.638
14.6735
14.6951
14.6588
14.66
14.6985
14.671
14.6857
14.6518
14.6857
14.6743
14.7177
14.7214
14.5925
14.6412
14.7146
14.7053
14.671
14.6854
14.7161
14.7494
14.7553
14.6781
14.6872
14.6692
14.6983
14.713
14.6993
14.6884
14.7038
14.7003
14.708
14.6835
14.6916
14.6932
14.7381
14.7405
14.6077
14.6823
14.7364
14.7285
14.6848
14.7033
14.7289
14.7571
14.7967
14.7418
14.7168
14.6951
14.717
14.7289
14.7422
14.7155
14.706
14.7146
14.7241
14.6716
14.6681
14.7018
14.7572
14.7553
14.6475
14.7181
14.7544
14.7277
14.6826
14.7165
14.7388
14.7652
14.8075
14.7537
14.7136
14.7155
14.733
14.7429
14.7653
14.7142
14.7147
14.7257
14.7396
14.6984
14.6838
14.7169
14.7791
14.7775
14.707
14.7488
14.7718
14.7255
14.6939
14.7265
14.7472
14.7727
14.7973
14.7396
14.7317
14.7311
14.7486
14.7562
14.7661
14.7363
14.7329
14.74
14.756
14.7684
14.7222
14.736
14.7953
14.8021
14.7637
14.7744
14.7877
14.7318
14.7185
14.7355
14.7554
14.78
14.796
14.7624
14.7745
14.7517
14.7627
14.7672
14.7804
14.7416
14.7487
14.7563
14.7718
14.7755
14.7409
14.752
14.8066
14.823
14.8063
14.7907
14.7974
14.7424
14.7545
14.7491
14.7692
14.7894
14.7973
14.7658
14.8013
14.7714
14.7738
14.7743
14.7813
14.7482
14.758
14.7688
14.7829
14.7556
14.7488
14.7639
14.8111
14.8335
14.8263
14.7995
14.8068
14.7617
14.7916
14.7718
14.7814
14.7948
14.8024
14.7631
14.7997
14.781
14.7746
14.7767
14.7822
14.7456
14.7659
14.7762
14.7864
14.7408
14.7581
14.7728
14.8104
14.8347
14.8265
14.8035
14.8087
14.7807
14.8093
14.792
14.7882
14.7936
14.8061
14.7788
14.7866
14.7792
14.7653
14.7755
14.7673
14.735
14.7682
14.7753
14.7798
14.7446
14.7665
14.7767
14.8053
14.8232
14.8141
14.7994
14.8014
14.7874
14.7913
14.7915
14.784
14.7871
14.7724
14.7668
14.767
14.7721
14.7633
14.7728
14.7495
14.7364
14.7627
14.7681
14.766
14.7627
14.7697
14.7768
14.7979
14.8089
14.8022
14.7924
14.7925
14.7824
14.7757
14.7799
14.775
14.7766
14.7374
14.7355
14.7552
14.7659
14.761
14.767
14.7333
14.7315
14.7572
14.7649
14.7579
14.7641
14.7699
14.7749
14.7927
14.7994
14.7965
14.7885
14.7827
14.777
14.7801
14.7704
14.7651
14.768
14.751
14.7531
14.7587
14.7642
14.7505
14.763
14.7411
14.7269
14.7596
14.7549
14.7552
14.7593
14.7715
14.7706
14.7918
14.7985
14.7996
14.7892
14.7711
14.7703
14.7967
14.7723
14.7559
14.7669
14.7731
14.7549
14.7645
14.7634
14.737
14.757
14.7721
14.7311
14.7569
14.7387
14.7502
14.7607
14.77
14.7583
14.7937
14.7995
14.8085
14.7919
14.7623
14.784
14.7978
14.7754
14.7414
14.7679
14.7976
14.7739
14.7703
14.7573
14.7256
14.7526
14.786
14.7356
14.75
14.7278
14.7477
14.765
14.7617
14.7433
14.7953
14.8027
14.8037
14.7892
14.7622
14.793
14.7787
14.771
14.724
14.7635
14.7904
14.7872
14.7676
14.7507
14.7157
14.7487
14.786
14.7384
14.7504
14.7249
14.7484
14.7717
14.7603
14.7478
14.7985
14.8003
14.7902
14.7895
14.7665
14.8048
14.7698
14.7672
14.7098
14.7617
14.771
14.7748
14.7601
14.7447
14.7129
14.7471
14.78
14.7444
14.7504
14.7275
14.7513
14.78
14.7666
14.7557
14.7977
14.8052
14.7855
14.7852
14.7703
14.8129
14.77
14.7569
14.7033
14.7635
14.7875
14.7746
14.7528
14.7332
14.7138
14.7475
14.783
14.7567
14.7399
14.7285
14.7548
14.8115
14.757
14.7486
14.7976
14.8135
14.7855
14.7784
14.7708
14.8139
14.7708
14.7436
14.699
14.7657
14.816
14.7829
14.7534
14.7141
14.7093
14.7444
14.7902
14.7587
14.7159
14.7224
14.7536
14.7869
14.7286
14.7375
14.7993
14.8139
14.7985
14.7778
14.7658
14.806
14.7719
14.73
14.691
14.7619
14.8122
14.7845
14.7541
14.6924
14.7004
14.7389
14.7981
14.7546
14.6895
14.7097
14.748
14.7543
14.708
14.7258
14.7959
14.8168
14.8124
14.764
14.7569
14.8005
14.768
14.7162
14.6798
14.7575
14.8044
14.7814
14.7519
14.6799
14.6954
14.7328
14.8057
14.7524
14.676
14.7022
14.7432
14.7482
14.7029
14.7229
14.7917
14.8134
14.8004
14.7514
14.7452
14.7991
14.7623
14.71
14.672
14.7495
14.8045
14.7845
14.7557
14.6816
14.6961
14.7289
14.8182
14.7586
14.6894
14.7037
14.7413
14.7673
14.7282
14.7334
14.7846
14.8113
14.7942
14.753
14.735
14.8052
14.7643
14.7084
14.6633
14.7381
14.8134
14.7928
14.7659
14.6956
14.6972
14.7232
14.8244
14.7792
14.7205
14.7125
14.7422
14.7951
14.7727
14.7525
14.7726
14.815
14.7922
14.7439
14.7246
14.819
14.7734
14.7099
14.6494
14.717
14.8307
14.8121
14.7758
14.7118
14.6939
14.7077
14.8287
14.8049
14.7572
14.7281
14.7396
14.8212
14.8258
14.7855
14.7632
14.8286
14.796
14.7302
14.7088
14.8391
14.7888
14.7114
14.636
14.6767
14.8563
14.8417
14.7911
14.7276
14.6798
14.6708
14.838
14.8268
14.7929
14.7439
14.7273
14.8376
14.8514
14.8131
14.7649
14.8521
14.8073
14.738
14.6876
14.8669
14.809
14.7067
14.5914
14.5967
14.8927
14.8759
14.8118
14.7343
14.6514
14.5817
14.8625
14.838
14.8113
14.7696
14.6871
14.8414
14.8545
14.8533
14.7657
14.882
14.8227
14.7411
14.6558
14.9044
14.8253
14.6889
14.4972
14.4214
14.9413
14.9205
14.8351
14.7329
14.5927
14.3821
14.9043
14.8466
14.8048
14.7709
14.6044
14.8553
14.8456
14.8412
14.7611
14.9188
14.8423
14.7278
14.6152
14.9529
14.8426
14.658
14.3515
14.0449
15.0139
14.9851
14.865
14.7133
14.4731
13.9363
14.9768
14.8673
14.7987
14.7525
14.4369
14.8905
14.8471
14.8423
14.7627
14.9631
14.863
14.7217
14.5631
15.0195
14.8693
14.5946
14.1189
13.1806
15.1292
15.0869
14.8858
14.662
14.2519
12.9821
15.0906
14.8823
14.8085
14.6836
14.1108
14.9435
14.859
14.8479
14.7678
15.0143
14.8815
14.7243
14.5218
15.1
14.8936
14.5504
13.8608
10.9575
15.2838
15.2326
14.8667
14.5771
13.9885
11.6127
-7.7949
15.1861
14.8941
14.7603
14.5192
13.2808
15.0141
14.8998
14.8666
14.7666
15.0768
14.89
14.7233
14.5138
15.1724
14.8733
14.5164
13.6907
9.7496
-0.303034
15.3104
15.1866
14.7653
14.4454
13.6804
11.1908
1.09993
15.0455
14.8243
14.6796
14.2955
12.0989
15.0206
14.9206
14.8458
14.7534
15.1405
14.8906
14.7107
14.5766
15.1945
14.7998
14.4258
13.8263
11.3377
3.16092
15.1921
15.0733
14.6369
14.3047
13.5519
11.0111
3.4157
14.9885
14.7745
14.6105
14.2581
12.368
4.39472
15.0293
14.9852
14.8977
14.7238
15.1666
14.8704
14.6728
14.6578
15.1308
14.6384
14.3224
13.9808
12.2869
4.40541
15.105
14.9784
14.5525
14.1587
13.6264
11.6252
2.75326
14.927
14.7069
14.4154
14.1331
12.3287
14.9033
14.8014
14.6099
14.6824
15.0721
14.796
14.6258
14.6721
14.9511
14.3773
14.1687
14.119
13.985
14.9764
14.8133
14.3314
14.0113
13.847
12.6701
-2.82227
14.821
14.4511
14.2352
14.0639
13.5047
14.7304
14.5657
14.4277
14.6425
14.9674
14.6497
14.5522
14.6348
14.7582
14.1397
14.0859
14.3373
14.9619
14.8457
14.6303
14.1996
14.0324
14.1909
13.9677
14.6968
14.3124
14.1723
14.1577
14.4385
14.6254
14.4746
14.4525
14.6368
14.8601
14.6676
14.5255
14.6282
14.5661
13.9943
14.109
14.4664
14.9462
14.7278
14.4829
14.1238
14.0907
14.3811
14.4376
14.6068
14.2766
14.2642
14.3477
14.7085
14.5989
14.5048
14.5851
14.6322
14.7648
14.6711
14.5379
14.6801
14.4152
13.8125
14.1972
14.5652
14.8351
14.661
14.4197
14.1302
14.2476
14.5521
14.6215
14.5818
14.3516
14.4311
14.529
14.7989
14.6468
14.6101
14.7154
14.6172
14.4443
14.1862
14.5444
14.7724
14.3029
13.8105
14.3597
14.6953
14.8909
14.6479
14.4331
14.2543
14.4615
14.6907
14.7962
14.6251
14.5021
14.6042
14.6707
14.88
14.7375
14.7404
14.8313
14.6645
14.0902
13.5956
14.5838
14.9043
14.328
14.095
14.572
14.8394
15.0058
14.6897
14.532
14.4512
14.6451
14.8171
14.9274
14.7138
14.6702
14.7498
14.7833
14.9553
14.8409
14.8599
14.9288
14.8395
13.9241
13.5361
14.7402
15.0401
14.4532
14.4005
14.7596
14.9289
15.0522
14.7847
14.6939
14.6322
14.7784
14.897
14.9889
14.8307
14.8122
14.8706
14.8853
15.0133
14.9355
14.9521
15.0039
15.083
14.3613
14.459
14.9041
15.1065
14.6625
14.5304
14.7707
14.9476
15.0683
14.9189
14.8537
14.7083
14.7493
14.9056
15.0288
14.9438
14.8808
14.8882
14.9483
15.0473
14.9972
14.9994
15.0421
15.1209
14.6276
14.8386
15.022
15.1018
14.8074
14.6931
14.8955
15.0101
15.0862
15.0122
14.9383
14.8005
14.8341
14.9451
15.0455
15.0024
14.9304
14.9318
14.9815
15.066
15.0163
15.0187
15.0478
278.371
286.973
294.412
290.82
278.181
281.994
270.548
256.511
210.141
253.74
265.766
226.014
186.031
226.845
201.757
156.007
138.176
201.629
233.513
128.526
137.95
257.416
242.701
196.727
237.901
231.482
177.886
159.004
161.697
177.41
159.091
159.589
152.244
145.888
132.523
143.124
127.796
123.352
120.04
120.145
117.855
122.89
180.574
109.908
123.058
231.055
206.388
200.095
157.445
158.944
159.909
159.259
154.214
163.328
159.758
142.665
123.604
150.18
121.573
115.177
111.162
106.345
100.667
104.861
100.539
95.8206
90.3379
148.068
169.947
113.699
178.305
205.006
210.357
233.758
257.416
192.575
133.027
231.876
151.254
95.6556
89.6012
92.8465
83.1975
85.6306
86.4768
81.1231
89.1097
98.1603
235.964
214.501
122.545
93.2358
81.76
78.3937
80.6124
79.374
214.994
152.226
212.917
216.996
209.806
146.009
150.075
142.733
206.281
210.018
142.428
134.242
133.509
211.207
140.866
168.294
154.791
193.599
173.717
156.923
153.229
149.584
153.98
144.37
198
121.372
177.656
126.489
139.033
102.108
121.59
182.71
131.234
159.136
154.728
155.665
156.196
157.042
157.207
135.412
138.385
120.953
106.949
107.201
154.905
154.142
157.052
157.423
157.88
116.325
84.9622
90.8018
95.9166
82.9515
156.11
156.588
156.947
179.017
186.582
154.435
144.757
149.52
138.608
79.7542
74.3043
76.5577
76.3086
79.2402
73.33
78.5192
78.5103
175.192
119.569
73.8748
66.721
75.0903
66.9781
65.9311
70.4146
64.6735
66.7827
69.4631
67.4866
74.5364
102.847
58.6858
87.9347
96.1921
88.6222
31.6005
43.0746
34.4218
84.6217
93.4997
49.0103
52.5671
76.9246
101.73
86.1868
124.907
85.5368
107.454
119.684
116.688
72.3779
63.0969
76.9282
71.7663
109.311
98.2938
105.093
95.3573
97.2621
97.5921
98.895
108.97
98.0265
136.385
150.303
146.89
97.3486
122.719
113.96
100.238
96.5332
97.1894
91.2767
88.0063
154.311
151.518
137.923
134.021
129.54
88.866
80.8722
82.0383
81.66
75.4729
142.58
110.886
119.594
118.419
100.99
96.7745
76.5941
80.6802
62.6644
73.239
66.805
71.9222
58.5962
65.2022
57.8934
63.8663
65.9393
85.3431
54.6282
60.0627
60.5277
44.9528
44.879
46.7468
63.1444
61.7717
52.5934
53.0871
52.3357
60.6453
23.376
15.0429
18.769
16.8583
19.1847
16.0083
14.8842
15.0633
37.7927
60.2961
19.6323
23.3807
44.1517
75.8849
62.6993
47.416
22.6259
22.6868
33.289
19.6663
17.4475
14.6951
16.4257
13.9497
88.2627
96.5483
94.2391
78.9616
75.9014
92.7713
83.3975
88.3101
74.4698
53.7144
73.1693
64.019
20.7945
32.8746
23.0617
77.1739
74.7174
66.8847
58.5971
55.8565
80.5408
79.5414
38.7144
29.4003
33.5732
68.7139
64.0591
52.9056
52.2603
50.4553
66.5863
29.9878
25.3166
41.3484
23.8736
17.1656
13.9806
16.1615
14.3569
55.867
47.8439
53.6625
39.1156
46.3965
37.4413
42.2196
44.3904
23.1922
14.8219
26.1894
28.3198
16.235
17.9942
19.7957
42.2488
39.8927
28.0783
32.6559
29.6519
39.8767
15.2116
14.8622
14.9754
15.483
14.5044
14.3405
15.0936
14.203
13.6468
20.847
13.447
13.1271
13.737
40.6024
17.0341
15.7134
14.4331
15.0903
14.864
15.0841
14.5729
14.7177
14.4621
14.4533
55.0745
80.7343
61.4044
24.1307
29.1865
45.3217
33.1675
52.7642
28.179
15.3878
17.8918
15.322
14.4904
15.043
14.529
33.723
31.9301
20.4772
15.772
15.9367
15.1845
15.6099
15.0513
14.6148
14.4523
33.9163
36.9542
20.4879
19.5066
26.4086
15.3674
14.3574
14.6773
14.3234
14.6439
14.4047
14.4552
14.4016
14.4836
37.1474
28.1845
31.0299
21.9507
27.9624
20.7707
22.2074
28.0951
14.7478
14.6111
16.6791
18.236
14.8525
17.1756
18.3354
25.3789
23.2071
19.8048
20.8944
20.9256
24.7822
14.5861
14.4027
14.0372
14.8113
13.9923
13.9679
14.6951
13.9521
13.554
13.7341
13.5399
13.4138
13.7956
13.6645
13.754
14.349
14.2816
14.4981
14.3783
14.3159
14.3392
14.339
14.3029
14.2919
14.2227
14.8067
14.3554
13.7068
13.6903
13.5695
13.6399
14.2461
13.7278
14.2804
14.3007
14.2196
14.2408
14.1602
14.1702
13.9287
14.0256
13.7701
13.9065
13.8085
14.1734
14.0792
14.0731
14.0495
13.9603
14.6647
18.4424
13.857
13.7622
13.4777
14.0092
13.8818
14.1773
13.9762
14.1955
13.8789
13.9325
13.8509
13.9546
18.3563
16.0197
16.0576
12.3885
13.5757
13.597
13.33
14.8119
14.3039
14.0883
16.8591
18.2872
13.9351
15.3131
17.8864
18.3589
20.1394
20.085
17.2584
20.6139
17.3055
14.3178
14.2798
14.0172
14.5942
14.0134
14.0667
14.3642
14.2079
13.4166
13.8369
13.5154
13.6055
13.8865
13.868
13.8689
14.223
14.1848
14.213
14.2387
14.2031
14.2106
14.1822
14.184
14.1187
13.9797
14.131
14.0325
13.8729
13.8952
13.9458
13.9049
14.0282
13.9051
14.2067
14.1194
14.1304
14.184
14.107
14.1128
13.842
13.9129
13.8696
13.9777
13.8242
13.8682
13.7713
13.9695
13.6755
13.797
13.8276
14.0809
13.7182
13.889
13.9716
13.8855
13.9958
13.962
13.8698
13.8114
13.7888
13.6554
13.7927
13.7265
13.6389
13.7703
13.6813
13.6922
13.6938
13.6248
13.709
13.6325
13.6703
13.6558
13.5969
13.6927
13.458
13.693
13.3086
13.4567
13.2332
13.3654
12.6846
12.813
12.9227
10.7295
12.61
12.6823
12.8674
12.9465
13.841
13.6588
14.6513
17.9067
13.3857
14.236
16.8468
17.2411
22.0739
24.03
18.2107
22.3676
15.8336
14.2344
14.1862
14.1456
14.1767
14.4453
14.1999
14.0774
14.4004
13.7222
13.8909
13.6123
13.5568
13.8441
13.8539
13.8233
14.1687
14.1756
14.1883
14.1564
14.0885
14.1823
14.1859
14.1564
14.099
13.8721
13.8911
13.9024
13.8261
13.852
13.8713
13.8736
13.8548
13.8212
13.7799
13.7225
13.8078
13.9669
13.7484
13.92
14.1794
14.1226
14.126
14.1935
14.1727
14.1727
13.7896
13.8153
13.7639
13.6253
13.6389
13.7008
13.6487
13.9293
13.6648
13.7197
13.7022
13.8594
13.5841
13.733
14.0247
13.928
14.1569
14.1311
14.0721
13.7722
13.757
13.7821
13.6719
13.6841
13.6781
13.7351
13.6536
13.6487
13.67
13.5377
13.6679
13.5861
13.6659
13.7354
13.9944
13.4058
13.3722
13.3015
13.756
13.57
13.7018
13.5545
12.8918
13.3072
13.055
11.7961
13.243
14.9406
13.4655
13.8111
13.5355
13.764
13.6674
13.5854
13.6524
13.5771
13.7664
11.9608
13.0579
13.3233
11.5148
11.2705
18.5738
15.7648
9.32326
17.1536
10.0612
16.4551
14.1312
14.0914
14.1433
14.028
14.0938
14.0484
13.998
13.838
13.38
13.8229
13.6349
13.4872
13.882
13.8276
13.8952
14.1981
14.229
14.1587
14.1724
14.1182
14.1826
14.1375
14.1971
14.1464
13.8497
13.8672
13.8544
13.8536
13.8768
13.8726
13.8691
13.7592
13.6721
13.776
13.6195
13.7094
13.8812
13.6924
13.8617
14.2224
14.2447
14.2415
14.2603
14.3131
14.3055
13.5944
13.6481
13.6094
13.5905
13.5867
13.6273
13.6192
13.8185
13.5296
13.7
13.6541
13.8031
13.5418
13.7186
14.255
14.2514
14.3814
14.3702
14.4014
13.6457
13.6401
13.7149
13.608
13.6262
13.6294
13.7148
13.6603
13.5687
13.6543
13.5415
13.6789
13.5883
13.6907
14.3086
14.5564
13.829
14.0747
13.8539
14.4436
14.1004
14.3797
14.1195
13.4274
15.8169
13.646
13.2768
13.6061
14.1912
13.6242
13.764
13.6179
13.7777
13.6585
13.6307
13.6728
14.0764
14.3479
13.1353
13.1863
14.325
14.1866
14.2971
15.3046
12.087
13.1645
12.8249
13.6587
13.6109
14.0816
14.1046
14.0162
14.0028
13.7878
13.9892
14.0286
13.8107
13.7499
14.0097
13.846
13.984
14.1548
13.991
14.0827
14.2638
14.2977
14.142
14.2249
14.1902
14.2246
14.1644
14.2564
14.2262
13.9444
13.9024
13.9372
14.0113
14.0253
13.954
13.9978
13.8589
13.8927
14.299
14.3667
14.3584
14.3336
14.3962
14.3924
13.6164
13.6805
13.6774
13.6357
13.6877
13.8176
13.7419
13.8901
13.6193
13.8354
13.5962
13.8214
13.5643
13.7732
14.4549
14.5012
14.5019
14.5009
14.5549
13.6517
13.7056
13.7751
13.732
13.7567
13.8234
13.8633
13.7638
13.635
13.7372
13.6375
13.8087
13.6332
13.7537
14.6972
14.7471
14.3091
14.6427
14.3474
14.8852
14.4469
14.8028
14.4939
13.648
13.1152
13.513
13.3843
13.6682
13.2498
13.5735
13.7252
14.5373
14.6647
14.4484
14.4864
14.6312
14.5887
14.5998
11.4676
14.2134
14.4036
12.4136
14.4986
12.5476
14.1505
14.1961
13.8769
14.074
13.873
13.9708
14.1382
14.0077
14.1485
14.2495
14.1502
14.2376
14.2781
14.1589
14.2187
14.3202
14.3359
14.1969
14.281
14.2395
14.2763
14.2276
14.3037
14.249
14.1092
14.0054
14.0584
14.1743
14.153
14.0533
14.0649
13.9607
14.0242
14.3637
14.415
14.4108
14.3829
14.4179
14.4111
14.041
13.9099
13.9498
14.1401
14.1351
14.5182
14.5773
14.5204
14.5183
14.5799
13.9656
14.0026
14.0716
14.1212
14.0636
14.7436
14.7133
14.5414
14.8712
14.6212
14.8301
14.6188
14.8713
14.7342
13.7561
13.5189
13.7139
13.5502
13.8055
13.6808
13.8101
13.9065
14.7681
14.7898
14.7788
14.8291
14.7349
14.8259
14.837
13.7388
14.6525
14.5587
14.2969
14.6257
13.7814
14.2414
14.2838
14.1573
14.2064
14.1568
14.3359
14.2696
14.2679
14.3561
14.3011
14.6157
14.4217
14.3296
14.2576
14.2857
14.3436
14.3567
14.2557
14.3209
14.2565
14.3215
14.2816
14.3281
14.2711
14.181
14.0938
14.0637
14.2349
14.2067
14.1286
14.0915
14.1067
14.1796
14.3731
14.4118
14.4051
14.3565
14.3995
14.397
14.2156
14.2171
14.2335
14.284
14.2881
14.5027
14.5634
14.4858
14.4799
14.5373
14.2248
14.1361
14.2548
14.3016
14.2203
14.6653
14.6126
14.6216
14.816
14.7741
14.6549
14.6067
14.7458
14.7702
13.8577
13.898
13.9077
13.9441
13.9379
14.0447
13.9877
14.0775
14.77
14.7745
14.7428
14.747
14.6753
14.6672
14.6671
14.3296
14.6547
14.9933
14.3728
14.7255
13.9595
14.3222
14.3583
14.3772
14.321
14.3325
14.4031
14.3638
14.3798
14.4005
14.3512
14.4561
14.4067
14.3818
14.3171
14.3647
14.3665
14.3716
14.3101
14.3471
14.2972
14.3769
14.3424
14.3719
14.3301
14.2538
14.1672
14.1513
14.3101
14.3159
14.2428
14.2353
14.2679
14.3495
14.3538
14.3969
14.3886
14.3532
14.4009
14.3883
14.3403
14.34
14.4067
14.4007
14.4006
14.4569
14.5076
14.4489
14.4409
14.4838
14.3655
14.3102
14.4008
14.4154
14.3932
14.562
14.5194
14.5488
14.6738
14.6973
14.5362
14.4869
14.5928
14.6035
14.0275
14.1202
14.0903
14.1897
14.1136
14.1864
14.1826
14.2662
14.7325
14.6517
14.6304
14.6082
14.6121
14.568
14.5529
14.485
14.6907
14.6547
14.4953
14.5891
14.3839
14.3896
14.4136
14.4302
14.3991
14.4182
14.4524
14.4223
14.4442
14.4368
14.4241
14.486
14.4693
14.452
14.4164
14.458
14.4025
14.4387
14.3781
14.398
14.3679
14.4237
14.407
14.4225
14.3981
14.391
14.3436
14.3312
14.4177
14.4575
14.4423
14.4199
14.4354
14.5013
14.3756
14.4205
14.4096
14.4123
14.4549
14.4479
14.4673
14.4735
14.5451
14.526
14.5374
14.4363
14.4718
14.4555
14.4449
14.4748
14.4619
14.4581
14.4948
14.5018
14.5064
14.4912
14.4776
14.4253
14.5197
14.5108
14.4631
14.3832
14.4708
14.446
14.1938
14.2384
14.2458
14.3397
14.2815
14.2706
14.2964
14.4143
14.562
14.4938
14.5122
14.5045
14.4835
14.4777
14.4695
14.4788
14.5421
14.5514
14.4834
14.5335
14.4838
14.4315
14.4459
14.4652
14.4343
14.4577
14.4727
14.4417
14.4674
14.4918
14.4629
14.5065
14.5033
14.4681
14.481
14.4876
14.4775
14.5139
14.4261
14.4444
14.4196
14.4644
14.4406
14.4678
14.4331
14.5089
14.5166
14.4805
14.4754
14.5254
14.5336
14.5172
14.5436
14.5688
14.4587
14.4973
14.4941
14.5091
14.535
14.5348
14.5788
14.5775
14.6323
14.5975
14.5932
14.4656
14.49
14.5054
14.4921
14.5133
14.5357
14.5491
14.5565
14.561
14.5991
14.4799
14.4919
14.3775
14.4469
14.4179
14.4509
14.3868
14.4459
14.4105
14.3797
14.3591
14.3859
14.4558
14.4673
14.4375
14.4679
14.5494
14.45
14.4265
14.4495
14.4472
14.4181
14.4181
14.4369
14.5924
14.5496
14.5767
14.6395
14.5372
14.6288
14.461
14.4777
14.477
14.4471
14.4736
14.475
14.4551
14.4755
14.511
14.4689
14.5029
14.5133
14.49
14.4887
14.4947
14.5311
14.552
14.4525
14.4842
14.4444
14.4826
14.4676
14.4985
14.4559
14.526
14.5445
14.5475
14.516
14.5354
14.5623
14.5667
14.5841
14.5972
14.5508
14.5641
14.5652
14.5816
14.5824
14.5868
14.5982
14.5998
14.6486
14.6137
14.6101
14.5196
14.5406
14.5587
14.543
14.5672
14.5863
14.6307
14.5904
14.6026
14.6572
14.5134
14.5356
14.4128
14.455
14.427
14.4893
14.44
14.4714
14.4373
14.5212
14.4628
14.5295
14.4744
14.5357
14.4184
14.5422
14.6167
14.4233
14.4304
14.3873
14.4122
14.3908
14.3548
14.3777
14.5611
14.4672
14.4097
14.3738
14.3842
14.4342
14.4903
14.5039
14.4805
14.461
14.4725
14.4928
14.4663
14.4673
14.5055
14.4839
14.4846
14.4793
14.437
14.5074
14.4849
14.5702
14.583
14.4781
14.5121
14.47
14.517
14.4817
14.5256
14.4823
14.5542
14.5466
14.5762
14.4929
14.5522
14.5243
14.5838
14.6051
14.6137
14.6013
14.5944
14.5965
14.61
14.6009
14.6012
14.6265
14.6163
14.6554
14.6399
14.6208
14.5659
14.5882
14.6001
14.5843
14.6048
14.6059
14.6666
14.5946
14.6036
14.655
14.5593
14.5786
14.4723
14.4954
14.4619
14.5404
14.5
14.5206
14.4851
14.5127
14.3324
14.491
14.3933
14.4467
14.2356
14.419
14.5566
14.4428
14.461
14.3312
14.3447
14.3967
14.2968
14.3107
14.2665
14.2952
14.1946
14.135
14.202
14.1447
14.5113
14.5183
14.5017
14.4703
14.4633
14.5064
14.4788
14.4697
14.4522
14.4119
14.4697
14.4336
14.4064
14.4453
14.4321
14.5945
14.6033
14.4913
14.5347
14.4935
14.546
14.4997
14.5425
14.502
14.5252
14.4997
14.5695
14.4341
14.5071
14.4755
14.5571
14.6119
14.6037
14.6147
14.6061
14.6037
14.6185
14.6107
14.6053
14.6393
14.6184
14.6313
14.623
14.6047
14.5995
14.6193
14.6302
14.6122
14.632
14.59
14.6246
14.5555
14.5589
14.5668
14.5964
14.613
14.5259
14.5465
14.5105
14.5859
14.5504
14.5709
14.5371
14.3833
14.1035
14.3458
14.2965
14.3453
13.9393
14.2744
14.4412
14.4848
14.5147
14.2817
14.2915
14.4418
14.2912
14.3125
14.0405
14.1521
14.1213
14.0778
14.1672
13.7118
14.5303
14.5393
14.5109
14.484
14.4741
14.516
14.4862
14.4761
14.422
14.4116
14.4735
14.4193
14.4309
14.4376
14.4595
14.6132
14.6225
14.5052
14.5503
14.5046
14.5748
14.5073
14.5592
14.507
14.496
14.4593
14.5386
14.4221
14.4893
14.4507
14.5216
14.5789
14.5568
14.6213
14.6181
14.6103
14.6279
14.6277
14.6205
14.5963
14.5815
14.5549
14.5617
14.5578
14.625
14.6435
14.6561
14.6389
14.6526
14.5439
14.5284
14.5258
14.5379
14.5235
14.629
14.6469
14.5743
14.5972
14.5664
14.6253
14.6005
14.6233
14.6008
14.3359
13.8421
14.2441
14.392
14.3738
13.92
14.2912
14.4434
14.5565
14.609
14.3529
14.3721
14.5767
14.4791
14.4838
14.228
14.2209
14.3176
14.5377
14.3346
14.1321
14.5466
14.544
14.5207
14.491
14.4778
14.5285
14.5006
14.4838
14.4298
14.4601
14.5054
14.4499
14.4926
14.4862
14.5143
14.6282
14.6123
14.5121
14.5572
14.5034
14.5842
14.5068
14.5416
14.4797
14.4728
14.4447
14.4921
14.4363
14.4528
14.4415
14.4464
14.5154
14.4625
14.6339
14.6325
14.6239
14.6165
14.6286
14.6162
14.5204
14.5198
14.4895
14.4874
14.4975
14.6491
14.6619
14.6755
14.6492
14.6668
14.5246
14.5215
14.5063
14.5115
14.5219
14.6644
14.6784
14.6309
14.6489
14.6356
14.6688
14.6596
14.6706
14.6604
14.4376
14.2483
14.4256
14.5902
14.5011
14.662
14.5708
14.519
14.6624
14.7017
14.6254
14.632
14.7318
14.7411
14.7539
14.9757
14.5219
14.8067
15.2703
14.7034
15.0165
14.5353
14.5284
14.5404
14.5091
14.4928
14.5497
14.5186
14.5119
14.4786
14.5341
14.565
14.5186
14.5803
14.5388
14.549
14.588
14.5651
14.4946
14.5132
14.4406
14.5309
14.4864
14.4761
14.4097
14.4107
14.4272
14.3935
14.4328
14.3722
14.3934
14.3422
14.4187
14.3693
14.5826
14.617
14.6051
14.5599
14.6051
14.5989
14.4514
14.4678
14.4032
14.4051
14.4044
14.6318
14.6617
14.6331
14.5968
14.6434
14.4917
14.5222
14.4831
14.4629
14.5011
14.682
14.6692
14.6815
14.6825
14.6726
14.6699
14.674
14.6767
14.6633
14.5436
14.8669
14.6556
14.6239
14.5575
14.8413
14.6837
14.5372
14.7201
14.713
14.786
14.8006
14.7524
14.7756
14.7923
15.2532
14.8052
14.8714
15.0885
14.8217
15.0642
14.5338
14.5506
14.5532
14.5376
14.5453
14.5721