/*--------------------------------*- C++ -*----------------------------------*\
| =========                 |                                                 |
| \\      /  F ield         | OpenFOAM: The Open Source CFD Toolbox           |
|  \\    /   O peration     | Version:  5.x                                   |
|   \\  /    A nd           | Web:      www.OpenFOAM.org                      |
|    \\/     M anipulation  |                                                 |
\*---------------------------------------------------------------------------*/
FoamFile
{
    version     2.0;
    format      ascii;
    class       volVectorField;
    location    "1";
    object      U;
}
// * * * * * * * * * * * * * * * * * * * * * * * * * * * * * * * * * * * * * //

dimensions      [0 1 -1 0 0 0 0];

internalField   nonuniform List<vector> 
10571
(
(0.18712 0.387048 1.09052)
(0.0546702 0.167179 0.583495)
(0.451976 0.669916 1.0341)
(0.192501 1.1108 1.50956)
(-0.110941 0.578569 1.02756)
(0.420842 0.644492 1.17387)
(1.85299 0.517887 1.79025)
(2.24699 0.981542 2.18254)
(-0.469467 1.85097 2.47665)
(-0.300257 0.295103 0.849268)
(0.161122 0.262636 1.09896)
(0.98449 -0.0065667 1.83914)
(2.3082 0.103164 1.53731)
(2.0686 1.26013 1.2522)
(0.849905 2.17888 1.86841)
(-0.263531 0.297775 0.361303)
(-0.0439656 -0.530268 1.33548)
(0.843652 -0.167792 1.28827)
(2.66015 2.79753 2.74306)
(0.477186 3.02797 2.56733)
(-0.0711455 0.172832 0.65797)
(0.780731 0.168293 1.04367)
(0.493476 1.03877 2.26844)
(-0.722861 0.628853 1.80522)
(0.0648904 0.058851 0.449098)
(0.0732641 -0.0373285 0.306616)
(0.168995 -0.0319616 0.477161)
(0.27673 -0.344962 0.797965)
(-0.00163912 0.0760257 0.336106)
(0.211502 -0.156593 0.403618)
(0.275886 -0.0931872 0.88796)
(0.692438 0.165678 1.26911)
(0.701555 0.854576 1.60649)
(-0.0182737 0.123806 0.25662)
(-0.000569258 -0.280771 1.66711)
(0.502033 -0.0399207 0.905667)
(0.325495 0.20614 0.420053)
(0.426775 0.344615 0.48542)
(1.04234 2.60366 2.8829)
(-0.0746491 0.257246 0.0678583)
(0.303245 0.302319 0.406285)
(0.285064 0.206928 0.224241)
(0.432762 1.70093 2.44251)
(0.629569 4.17973 4.51174)
(0.0227525 0.251933 0.443927)
(0.285419 0.0250883 0.0320269)
(0.0848232 1.38215 4.47906)
(-1.36112 1.43803 3.73417)
(-0.605714 -0.366629 0.70097)
(0.106845 0.0623556 0.0307191)
(-0.0651918 -0.227204 0.595718)
(-0.94856 -1.17468 1.47274)
(-0.00160494 -0.390042 0.47835)
(0.330917 0.071282 0.274332)
(-0.0400022 0.114934 0.655178)
(-0.0224269 0.211859 0.638313)
(0.11797 0.149574 0.633886)
(0.0491382 0.146352 0.481528)
(0.0886389 -0.0596718 0.611792)
(0.444443 -0.060415 0.474177)
(0.100627 0.0976399 0.72414)
(-0.0844653 0.199714 0.622046)
(-0.000417873 0.529304 1.11472)
(-0.0136658 0.08643 0.302335)
(0.368919 0.194534 0.347828)
(-0.0523764 -0.00365818 0.750681)
(-0.382543 0.193384 1.60211)
(-0.2201 3.65648 5.56301)
(0.100666 0.168493 0.596825)
(0.066142 -0.00508937 0.0689667)
(-0.666215 0.891258 5.59545)
(-1.30569 1.76782 6.83506)
(-0.466066 -0.447332 2.15107)
(-0.0518181 0.0285096 -0.216544)
(-0.0848037 0.0212399 0.807407)
(-0.42155 -0.395154 0.679767)
(0.027573 -0.287301 0.703739)
(0.56133 0.293691 0.732443)
(0.0467231 0.171996 1.30101)
(0.0723551 0.312692 0.788611)
(0.0295739 0.251546 0.672434)
(-0.0489844 0.217694 0.6061)
(0.0681047 0.0901087 -0.266159)
(0.52742 0.289022 0.943309)
(0.0289839 0.0285489 1.32884)
(-0.134231 -0.00687476 0.752867)
(0.027072 -0.124539 0.504872)
(0.0190055 -0.0673851 0.379106)
(0.435761 0.108938 0.524256)
(-0.424702 -0.598871 1.2293)
(-0.75198 -0.28787 2.30631)
(-1.34319 2.31567 4.72924)
(0.125462 -0.0718261 0.579393)
(-0.581599 -0.238821 0.590856)
(-1.47366 0.682425 6.4701)
(-1.83944 1.57755 8.76742)
(0.0779767 -0.235129 2.07625)
(-0.0615578 0.106295 -0.294467)
(0.387376 0.405084 0.929495)
(0.131614 -0.258417 0.40464)
(0.06743 -0.0573187 0.631426)
(0.0919041 0.115593 0.327673)
(0.426544 0.0481355 0.737001)
(0.394279 0.345484 1.10938)
(-0.0186464 0.25432 1.31123)
(0.0978442 0.190756 0.561917)
(0.0164091 0.11984 -0.545928)
(0.296059 0.305207 0.377387)
(0.16316 0.0994972 1.04015)
(0.111151 -0.00174273 0.916307)
(0.0811094 -0.193435 0.499049)
(0.0745873 -0.255241 0.331541)
(0.170534 0.301438 0.101169)
(-0.298439 -0.587108 1.25852)
(-0.470531 -0.551206 2.04202)
(-0.607138 0.0327586 2.28553)
(0.0711549 -0.158918 0.373652)
(-0.997677 -0.335159 0.763605)
(-1.5753 0.286 6.59955)
(-1.938 1.24492 9.29744)
(0.244025 -0.125937 2.25516)
(-0.0828728 0.1235 -0.36463)
(0.187104 0.276999 0.698929)
(0.514441 -0.104683 0.280867)
(0.168005 -0.112393 0.205368)
(0.063069 -0.0612183 -0.0938208)
(0.375144 0.0149886 0.749611)
(0.416882 0.192271 0.802383)
(-0.033756 0.320853 0.931342)
(-0.352993 -0.0299328 0.268511)
(-0.0103346 0.00659842 -0.00216288)
(0.0303253 0.0888293 -0.603713)
(0.0511611 0.0481157 0.0736796)
(0.0886278 0.192542 1.19164)
(0.149577 0.0421961 0.958953)
(0.169026 0.479247 0.640227)
(-0.18045 0.0277857 0.228275)
(-0.00912543 -0.00373861 -0.00409914)
(0.0335507 0.163489 0.0347745)
(-0.408124 -0.530558 1.62552)
(-0.061908 -1.33307 1.90725)
(0.0423481 -0.223357 0.76258)
(0.138451 -0.202128 0.291091)
(-1.11165 -0.43658 1.57397)
(-1.44885 -0.332832 6.33546)
(-1.6852 0.916081 9.10314)
(0.358404 -0.202579 2.3661)
(-0.158356 0.134683 -0.331189)
(-0.149926 -0.0360829 0.230377)
(0.467917 -0.138592 0.270951)
(0.163294 0.0341668 0.390979)
(0.0966458 -0.150576 -0.161573)
(0.332578 -0.0436948 0.777771)
(0.376312 0.0892007 0.929174)
(-0.00297315 0.306222 0.99891)
(-0.374097 0.214431 0.230765)
(-0.538923 0.209951 -0.281166)
(-0.0320572 -0.130325 -0.631574)
(-0.0859235 -0.205739 0.0637188)
(-0.0709228 0.163015 1.27166)
(0.0329817 -0.0537665 1.25811)
(0.126231 0.322856 0.754761)
(-0.0462354 0.267375 0.382284)
(-0.194926 0.397754 0.100569)
(-0.548937 -0.488689 0.381613)
(-0.530825 -0.46582 1.94845)
(-0.206357 -1.21812 2.00694)
(-0.29618 -0.813002 0.161155)
(0.0902782 -0.139326 0.314897)
(0.0402208 0.146866 0.188452)
(-1.63824 -0.523951 2.67716)
(-0.625414 -0.221182 3.3998)
(-1.28998 0.599215 8.75201)
(0.47834 -0.105448 2.83832)
(-0.111616 0.0740838 -0.325156)
(-0.0652272 -0.0239227 -0.101863)
(0.264097 -0.0766309 0.313667)
(0.209976 0.255966 0.502223)
(0.0902599 -0.133991 -0.0775645)
(0.361268 -0.134847 0.751418)
(0.348029 -0.0176219 1.07851)
(0.0873336 0.399364 1.13762)
(-0.135885 0.220019 0.34916)
(-0.142777 -0.00880457 -0.404621)
(-0.0653161 -0.219546 -0.454808)
(-0.0889298 -0.39874 0.208839)
(-0.0984524 -0.0407045 1.30292)
(-0.0606168 -0.18074 1.53769)
(0.245261 0.0996997 1.16014)
(-0.14669 0.321583 0.529124)
(-0.193249 0.0867 0.143513)
(-0.70482 -0.844599 0.821854)
(-0.533073 -0.600014 1.83661)
(-0.397423 -0.755537 1.7173)
(-0.517373 -0.795375 0.130076)
(-0.198375 0.294316 0.606736)
(0.196431 0.0307857 0.236182)
(-1.16201 -0.309455 2.63581)
(-1.35648 0.118397 3.89421)
(-1.01061 0.311105 7.86292)
(0.708717 0.158632 2.56272)
(-0.152601 0.0712229 -0.290446)
(-0.187069 -0.0242216 -0.211132)
(-0.10996 0.300477 0.290822)
(0.193913 0.378993 0.513789)
(0.0673454 -0.024301 0.00585092)
(0.376703 -0.181668 0.788011)
(0.343449 -0.10158 1.20392)
(0.254325 0.414653 1.25376)
(0.20334 0.501144 0.350935)
(0.332917 -0.239059 -0.253904)
(-0.0626244 -0.192855 -0.180395)
(-0.0341588 -0.366137 0.368016)
(0.0890298 -0.224125 1.38512)
(-0.0428283 -0.279598 1.52732)
(0.408123 0.021761 1.30011)
(-0.0286003 0.223004 0.684246)
(0.298551 -0.225348 0.0535361)
(-0.289387 -0.733684 1.07637)
(-0.345303 -0.739772 1.66047)
(-0.299685 -0.588611 1.63072)
(-0.443836 0.280501 0.379361)
(-0.122438 0.173473 0.61416)
(-1.04514 -0.295927 2.38815)
(-0.964173 -0.0658043 3.64576)
(-0.90561 0.303664 6.63238)
(0.619337 -0.140678 2.44279)
(-0.190401 0.152582 -0.168894)
(-0.292038 0.127645 -0.174891)
(-0.2794 0.372633 0.18705)
(-0.0260451 0.294375 0.468326)
(0.00785888 0.101627 0.0822728)
(0.347724 -0.163469 0.856302)
(0.347143 -0.176709 1.33789)
(0.282874 0.316244 1.31618)
(0.288697 0.176228 0.186164)
(-0.0433656 -0.110704 -0.0243229)
(0.0115101 -0.238753 0.448229)
(0.312225 -0.325036 1.49)
(0.106343 -0.420903 1.53577)
(0.424838 -0.0458429 1.34768)
(0.264289 0.0442894 0.758919)
(-0.0674854 -0.414106 1.00044)
(0.124783 -0.636691 1.60987)
(-0.0915269 -0.724227 1.58804)
(-0.252005 -0.0261464 0.354564)
(-0.0107535 0.212834 0.528576)
(-0.811504 -0.292895 1.87247)
(-0.157282 -0.41582 3.45428)
(-0.767894 0.370321 5.78408)
(-0.00345396 0.127511 1.68228)
(-0.109567 0.0893591 -0.0719514)
(-0.357141 0.154202 -0.0675952)
(-0.338934 0.17278 0.318945)
(-0.189806 0.078738 0.389082)
(-0.0118712 0.173301 0.177596)
(0.215981 -0.118309 0.950194)
(0.291512 -0.247668 1.48728)
(0.178747 0.222018 1.35807)
(0.204797 -0.168998 0.276818)
(-0.0369738 -0.06589 0.0797985)
(0.0501853 -0.121098 0.481008)
(0.375171 -0.329419 1.50983)
(0.258506 -0.476728 1.62)
(0.430606 -0.103572 1.43335)
(0.235192 0.0430819 0.875881)
(-0.0627527 -0.232685 0.708318)
(0.517968 -0.432458 1.53887)
(0.181935 -0.725704 1.64779)
(-0.037375 -0.0282704 0.538253)
(-0.0678523 0.306326 0.552548)
(-0.155991 -0.169178 1.7177)
(0.00927571 -0.569951 2.79338)
(-0.592798 0.307417 5.48705)
(-0.322421 0.0176632 0.36495)
(-0.089748 0.0462235 0.0234223)
(-0.375157 0.108122 0.0580452)
(-0.31846 -0.0893481 0.375606)
(-0.161514 -0.0751112 0.259236)
(-0.0559488 0.217608 0.266259)
(-0.0881773 -0.0267363 1.04572)
(0.117882 -0.212859 1.61594)
(0.110888 0.138507 1.33119)
(0.211577 -0.166838 0.349187)
(-0.0402264 -0.0149107 0.150012)
(0.028186 0.0416193 0.527383)
(0.327783 -0.319014 1.47428)
(0.286591 -0.454396 1.70541)
(0.353863 -0.124809 1.52275)
(0.137992 0.101503 0.955503)
(-0.00168827 -0.0898051 0.548523)
(0.543618 -0.299452 1.38223)
(0.238553 -0.701487 1.82071)
(0.0650501 0.0326036 0.844205)
(-0.12691 0.338795 0.627426)
(0.276326 -0.142143 1.39112)
(0.163376 -0.277686 2.12337)
(-0.494769 0.295136 4.9595)
(-0.256682 -0.0386494 0.305356)
(0.0287174 -0.0410852 0.192242)
(-0.371976 0.11487 0.179007)
(-0.262209 -0.278181 0.408971)
(-0.11672 -0.255654 0.275373)
(-0.146465 0.168407 0.39685)
(-0.402136 0.0448794 1.01662)
(-0.119662 -0.102883 1.54608)
(0.229347 0.0110761 1.21472)
(0.243946 -0.134195 0.398187)
(-0.0320811 0.0356324 0.206541)
(-0.087223 0.165982 0.581498)
(0.107651 -0.206079 1.43312)
(0.202076 -0.424638 1.80393)
(0.254185 -0.0192928 1.58103)
(0.100083 0.17201 0.950529)
(0.0351298 0.0323956 0.492327)
(0.27989 -0.175539 1.21932)
(0.184154 -0.639369 1.90098)
(0.054787 0.149384 1.0718)
(-0.113509 0.333282 0.751759)
(0.153682 -0.0634543 1.08811)
(0.0772378 -0.151669 1.96499)
(-0.465049 0.219809 4.32214)
(-0.186618 -0.0292535 0.291405)
(0.131583 -0.149651 0.347578)
(-0.313958 0.137895 0.293743)
(-0.259596 -0.0849117 0.446632)
(-0.148785 -0.25603 0.393623)
(-0.296045 0.0957486 0.587437)
(-0.579736 0.0234429 0.942706)
(-0.332019 -0.141865 1.22707)
(0.177604 -0.160794 0.861909)
(0.184005 -0.109303 0.475037)
(-0.0300676 0.0637041 0.307948)
(-0.197449 0.217138 0.652096)
(-0.178433 0.0519626 1.37322)
(0.090101 -0.237849 1.8937)
(0.197658 0.221373 1.53306)
(0.102418 0.194136 0.952247)
(0.00707111 0.107221 0.500621)
(-0.0328501 -0.0138296 1.18645)
(0.108913 -0.494353 1.87235)
(0.0406421 0.281063 1.25211)
(-0.0920825 0.28134 0.918416)
(0.0670564 0.0205805 0.974106)
(0.0314419 -0.111074 1.93706)
(-0.431991 0.142151 3.85802)
(-0.0947953 -0.0247791 0.264516)
(0.198574 -0.250419 0.441318)
(-0.172522 0.085497 0.41021)
(-0.274891 0.119999 0.448578)
(-0.154474 -0.0738649 0.437894)
(-0.345879 0.0198469 0.759248)
(-0.572403 0.00435583 0.926437)
(-0.422079 -0.173636 0.943337)
(-0.0486644 0.0260135 0.587391)
(-0.00702608 -0.143036 0.456779)
(-0.037764 0.0449045 0.453271)
(-0.231525 0.210323 0.72973)
(-0.34834 0.166202 1.28505)
(-0.116186 0.0878895 1.81049)
(0.212106 0.287369 1.32224)
(0.139367 0.100328 0.99327)
(-0.0333577 0.137662 0.570609)
(-0.220924 0.132588 1.24354)
(0.00178114 -0.115471 1.79961)
(0.0341712 0.36581 1.3951)
(-0.0714559 0.266817 1.12042)
(0.015572 0.0937924 0.967658)
(0.00925252 -0.0458695 2.08969)
(-0.386714 0.185122 3.42543)
(0.112354 -0.0228996 0.324485)
(0.258635 -0.31049 0.499559)
(0.0150473 -0.0362328 0.558585)
(-0.20871 0.0513232 0.540813)
(-0.0642115 0.161952 0.214783)
(-0.265993 -0.0279413 0.872847)
(-0.463658 -0.0601571 0.914856)
(-0.222593 -0.210008 0.743019)
(-0.0471006 0.225824 0.463786)
(-0.0593843 -0.00310647 0.461017)
(-0.0437961 -0.0118293 0.608215)
(-0.222584 0.144919 0.820173)
(-0.429629 0.151475 1.18784)
(-0.324492 0.237241 1.50289)
(0.219321 0.269459 1.11351)
(0.148941 0.0744793 1.0244)
(-0.0719658 0.113114 0.695126)
(-0.265964 0.225014 1.30763)
(-0.100744 0.144311 1.80205)
(0.00842556 0.388844 1.48532)
(-0.0919311 0.283842 1.27162)
(-0.031939 0.134109 1.032)
(-0.07101 0.104685 2.45374)
(-0.230347 0.218312 3.47341)
(0.357658 -0.00973331 0.515784)
(0.274031 -0.316304 0.543195)
(0.0450432 -0.108625 0.685843)
(-0.0319338 -0.0826621 0.660745)
(0.118191 0.153896 0.103091)
(-0.160247 -0.0724685 0.917412)
(-0.271515 -0.254855 0.814913)
(0.0788028 -0.183719 0.472912)
(0.0368656 0.231942 0.45197)
(0.0130017 0.219072 0.588819)
(-0.0409449 -0.0643987 0.724056)
(-0.183535 0.0662581 0.883879)
(-0.408169 0.134885 1.09757)
(-0.264661 0.201461 1.15516)
(0.194724 0.204603 0.982943)
(0.10229 0.110461 1.03305)
(-0.115971 0.053278 0.863278)
(-0.234965 0.22412 1.34469)
(-0.136931 0.168635 1.81935)
(-0.00135249 0.339801 1.51821)
(-0.102516 0.274297 1.31958)
(-0.0954326 0.108019 1.16462)
(-0.19975 0.165095 2.83055)
(-0.0601119 0.242194 3.81089)
(0.486447 0.00769009 0.677026)
(0.280866 -0.329002 0.607551)
(0.0704331 -0.154444 0.824775)
(0.13456 -0.141157 0.702839)
(0.296733 0.257419 0.0661398)
(-0.119812 -0.137473 0.901332)
(0.0252353 -0.278519 0.588959)
(0.166555 -0.0106892 0.32282)
(0.1455 0.184412 0.525605)
(0.117406 0.296359 0.698876)
(-0.0481146 -0.105693 0.815314)
(-0.17065 0.0129917 0.894455)
(-0.274591 0.0873893 0.972521)
(0.00842664 0.110921 0.896163)
(0.181674 0.124698 0.946231)
(0.0434635 0.160495 1.0847)
(-0.164771 -0.0108419 1.05022)
(-0.211541 0.145723 1.42985)
(-0.183357 0.0780243 1.87473)
(0.0473192 0.198585 1.58448)
(-0.0862421 0.245853 1.37317)
(-0.191792 0.0377786 1.35042)
(-0.516388 0.00598984 2.92445)
(0.163563 0.169074 4.3589)
(0.566886 0.0273215 0.772051)
(0.267353 -0.351628 0.739275)
(0.207977 -0.168197 0.867025)
(0.29632 -0.0353226 0.759454)
(0.390506 0.368879 0.0596264)
(-0.176054 -0.282248 0.780813)
(0.125241 -0.0524565 0.419901)
(0.131658 0.216217 0.289436)
(0.191636 0.0980412 0.666371)
(0.16906 0.255652 0.870554)
(-0.0575738 -0.111701 0.900159)
(-0.201612 0.0144027 0.867964)
(0.0528315 0.0660348 0.751091)
(0.209972 0.100674 0.797482)
(0.192093 0.0965715 0.983763)
(0.0325605 0.171266 1.18782)
(-0.185888 -0.0630917 1.21033)
(-0.186623 0.100065 1.48722)
(-0.201834 0.0157011 1.91062)
(0.108064 0.0192671 1.69425)
(-0.0493896 0.189818 1.5135)
(-0.270103 -0.0103758 1.59134)
(-0.798698 -0.107686 2.573)
(0.364927 -0.17252 4.28155)
(0.57241 0.0430842 0.750877)
(0.276273 -0.342834 0.896153)
(0.280578 -0.213692 0.777159)
(0.375594 0.0906591 0.694356)
(0.384113 0.424507 0.0671857)
(0.0213965 -0.269921 0.452361)
(0.0576389 0.209929 0.288086)
(0.0296922 0.371422 0.313284)
(0.204861 -0.0158156 0.793747)
(0.139866 0.134451 1.01629)
(-0.0722373 -0.124741 1.06397)
(-0.201936 0.0508145 0.632142)
(0.206606 0.157343 0.620994)
(0.283519 0.143389 0.842084)
(0.212967 0.0415975 1.08921)
(0.0193837 0.14341 1.30302)
(-0.190153 -0.0600152 1.34878)
(-0.0854982 0.1288 1.53383)
(-0.139831 0.0569737 1.95317)
(0.139583 -0.000501934 1.81494)
(-0.0240026 0.14889 1.69458)
(-0.257145 -0.00867915 1.81641)
(-0.571002 -0.0674069 2.39667)
(0.013744 -0.245902 2.94091)
(0.38987 0.0526098 0.641057)
(0.294446 -0.295826 0.902661)
(0.437419 -0.0984692 0.757704)
(0.442619 0.249057 0.47404)
(0.285515 0.350913 0.11531)
(0.0911646 -0.113658 0.175025)
(-0.0540876 0.34585 0.186194)
(-0.0741939 0.355077 0.356168)
(0.143141 -0.0642263 0.891637)
(0.097968 0.0316568 1.14043)
(-0.0489578 -0.0817537 1.25456)
(-0.0791805 0.20574 0.423223)
(0.214547 0.216712 0.539344)
(0.318056 0.101646 0.925002)
(0.175154 -0.065419 1.13459)
(0.0205609 0.0982793 1.37604)
(-0.166698 -0.00551141 1.49318)
(0.0242264 0.145662 1.60175)
(-0.0422159 0.101973 2.05462)
(0.125282 0.0176071 1.83531)
(-0.00279958 0.139154 1.82359)
(-0.211437 -0.00233507 2.00369)
(-0.322654 -0.0160792 2.31505)
(-0.138345 0.0109422 2.35113)
(0.129301 0.0339545 0.427134)
(0.268804 -0.249561 0.763381)
(0.406713 -0.00452766 0.669943)
(0.249998 0.366872 0.254273)
(0.103301 0.103539 0.221346)
(-0.0580724 0.0100113 0.0408988)
(-0.203602 0.321308 0.15952)
(-0.198346 0.0494104 0.457318)
(-0.0389154 -0.12876 0.944118)
(0.05945 -0.0139904 1.19041)
(-0.021067 0.00978039 1.38839)
(-0.00872328 0.313589 0.328016)
(0.185159 0.16714 0.482584)
(0.272128 -0.0196618 1.02455)
(0.0209858 -0.110521 1.24219)
(-0.0104186 0.0841248 1.41621)
(-0.12291 0.0196341 1.6319)
(0.0539662 0.0901868 1.64554)
(-0.0147945 0.0314353 2.11526)
(0.0949306 -0.00262482 1.81009)
(0.0100159 0.0557836 1.93114)
(-0.179591 0.00793183 2.15212)
(-0.231283 0.010201 2.29711)
(-0.167753 0.0742309 2.18794)
(0.0141063 -0.00122164 0.344249)
(0.302854 -0.322242 0.604507)
(0.262124 -0.00201717 0.595583)
(-0.0973893 0.253882 0.229253)
(-0.0870947 -0.132628 0.301754)
(-0.188655 0.0128744 0.0664745)
(-0.340111 0.163065 0.211448)
(-0.320456 -0.317431 0.542945)
(-0.276968 -0.398042 0.922888)
(-0.0190864 -0.00199346 1.12194)
(-0.0260896 0.135442 1.46668)
(0.048134 0.309614 0.333652)
(0.0339003 -0.0197891 0.525639)
(-0.0802311 -0.218071 1.15554)
(-0.316906 -0.313669 1.2827)
(-0.0348814 0.0206943 1.36705)
(-0.0573298 -0.00403633 1.7582)
(0.0418687 0.00462518 1.7332)
(-0.0924455 -0.0770475 2.14125)
(-0.0429293 -0.11962 1.76813)
(0.102947 -0.105059 1.8748)
(-0.176165 -0.0189011 2.25559)
(-0.232864 0.0189465 2.27788)
(-0.214675 0.13798 2.0976)
(-0.0347473 -0.0168847 0.414257)
(0.298932 -0.396855 0.551302)
(0.150538 0.0134214 0.607014)
(-0.297712 0.0760642 0.380263)
(-0.209027 -0.308891 0.455732)
(-0.265082 -0.0379433 0.195435)
(-0.404893 -0.00942191 0.315556)
(-0.342599 -0.440634 0.560074)
(-0.319476 -0.616444 0.85463)
(-0.136405 -0.182374 1.00227)
(-0.0173456 0.223004 1.46402)
(0.100435 0.145492 0.442669)
(-0.188165 -0.255234 0.687105)
(-0.429326 -0.408073 1.15467)
(-0.49417 -0.534317 1.00542)
(-0.0365164 -0.342189 1.32207)
(-0.000701477 -0.0722402 1.82927)
(-0.0425454 -0.0382156 1.79455)
(-0.282584 -0.116565 2.08802)
(-0.154535 -0.268062 1.55877)
(-0.0670716 -0.145279 1.59964)
(-0.219699 -0.0735267 2.30011)
(-0.273442 0.0434519 2.22565)
(-0.336132 0.138215 1.94762)
(-0.0307059 -0.0201414 0.561621)
(0.29244 -0.430935 0.595909)
(0.11444 -0.00210571 0.695714)
(-0.355225 0.0702696 0.584094)
(-0.22634 -0.377583 0.667702)
(-0.290988 -0.116915 0.338142)
(-0.415714 -0.104753 0.446074)
(-0.295893 -0.415855 0.557733)
(-0.249891 -0.601108 0.79518)
(-0.166614 -0.557306 1.00891)
(0.0116272 0.235058 1.28933)
(0.0499839 -0.0786533 0.587458)
(-0.29005 -0.384773 0.843854)
(-0.466907 -0.435098 1.12535)
(-0.316288 -0.40592 0.645252)
(-0.033174 -0.415388 0.813344)
(0.0107955 -0.13437 1.86386)
(-0.179835 -0.100109 1.83749)
(-0.409282 -0.136936 1.96459)
(-0.380256 -0.217551 1.15387)
(-0.0507351 -0.0559394 0.680893)
(-0.258464 -0.125074 2.30372)
(-0.384955 0.0407758 2.17533)
(-0.428848 0.174147 1.45884)
(0.0278173 -0.003627 0.677662)
(0.299701 -0.447343 0.706787)
(0.161003 -0.0629033 0.77579)
(-0.298403 0.18651 0.74683)
(-0.206828 -0.257408 0.853845)
(-0.282452 -0.192136 0.475991)
(-0.388707 -0.124839 0.57926)
(-0.175915 -0.252198 0.587518)
(-0.106678 -0.279933 0.680811)
(-0.0850381 -0.500609 1.07563)
(-0.00719868 0.0770263 1.08428)
(-0.105017 -0.257403 0.737679)
(-0.369785 -0.378922 0.957141)
(-0.400687 -0.410409 1.06837)
(-0.0613198 -0.0138183 0.33122)
(0.0196834 -0.0552491 0.382353)
(-0.0328588 -0.177928 1.89736)
(-0.267193 -0.199145 1.86374)
(-0.449738 -0.2222 1.8051)
(-0.233946 0.0871859 0.636224)
(-0.102368 0.095669 0.393791)
(-0.325108 -0.154722 2.31255)
(-0.399924 0.0658336 2.1326)
(-0.414528 0.0198703 0.850872)
(0.12002 0.0103731 0.724652)
(0.327991 -0.462703 0.855466)
(0.216583 -0.119206 0.820596)
(-0.111666 0.184311 0.817902)
(-0.257214 -0.0782315 0.959771)
(-0.243401 -0.246614 0.590326)
(-0.357527 -0.100699 0.666218)
(-0.105086 -0.118272 0.644236)
(0.00292798 0.131294 0.595704)
(-0.159502 -0.339787 1.01528)
(-0.0381057 -0.117737 1.1044)
(-0.268233 -0.293136 0.904559)
(-0.436397 -0.222792 1.02375)
(-0.22687 -0.17138 0.937222)
(-0.0193414 0.185694 0.229448)
(-0.037119 0.0832849 0.20033)
(-0.0906819 -0.203952 1.93329)
(-0.323629 -0.255779 1.88167)
(-0.421212 -0.229699 1.63477)
(-0.12428 0.221516 0.377028)
(-0.088159 0.158481 0.250163)
(-0.357412 -0.155701 2.27214)
(-0.403749 0.0115602 1.97644)
(-0.250271 0.195765 0.644283)
(0.234853 0.0155791 0.747255)
(0.347115 -0.459997 1.01145)
(0.243876 -0.146628 0.870753)
(0.0666949 0.102278 0.804834)
(-0.0360501 0.161767 0.973497)
(-0.202193 -0.268434 0.676628)
(-0.319822 -0.0601819 0.677142)
(-0.121321 -0.0616661 0.641401)
(0.0120353 0.311232 0.539471)
(-0.0406022 0.111776 0.666157)
(-0.070723 -0.228638 1.23174)
(-0.364987 -0.243473 1.06927)
(-0.424588 -0.0247976 1.05086)
(-0.139314 0.136771 0.793323)
(-0.0736129 0.239761 0.208668)
(-0.0764349 0.159805 0.12391)
(-0.178332 -0.250272 2.00928)
(-0.339186 -0.254592 1.90112)
(-0.319018 -0.0580534 1.52281)
(-0.118029 0.26939 0.307415)
(-0.0558711 0.156436 0.18852)
(-0.42688 -0.165646 2.2334)
(-0.272047 -0.128427 1.64577)
(-0.0761069 0.131413 0.757671)
(0.355068 0.0188681 0.786234)
(0.362052 -0.45011 1.14902)
(0.290186 -0.15498 0.905109)
(0.190891 0.0761372 0.772551)
(0.210328 0.219837 0.834686)
(-0.154221 -0.25944 0.734329)
(-0.295062 -0.0230144 0.642725)
(-0.183404 0.0378342 0.550534)
(-0.0437917 0.330582 0.495323)
(0.0614431 0.242621 0.534912)
(-0.101164 -0.277722 1.43803)
(-0.364308 -0.176434 1.2049)
(-0.366305 0.0934039 1.06618)
(-0.151391 0.200684 0.679628)
(-0.136518 0.19439 0.218221)
(-0.111059 0.141469 0.106125)
(-0.26165 -0.305232 2.12724)
(-0.320028 -0.231422 1.92777)
(-0.238973 0.102673 1.47263)
(-0.105487 0.238856 0.353152)
(-0.000484986 0.0865404 0.164497)
(-0.500443 -0.140697 2.17713)
(-0.122223 -0.0166867 1.44422)
(0.157867 0.0246334 0.882696)
(0.447471 0.024626 0.835958)
(0.376176 -0.439132 1.24794)
(0.33089 -0.150718 0.894003)
(0.268725 0.0867623 0.777835)
(0.276978 0.253859 0.73193)
(-0.0885958 -0.240033 0.793474)
(-0.264737 -0.0295682 0.607026)
(-0.245591 0.117547 0.462136)
(-0.131121 0.280873 0.443172)
(0.0596286 0.234842 0.53491)
(-0.113724 -0.303728 1.65745)
(-0.300169 -0.117591 1.29476)
(-0.292381 0.109094 1.09664)
(-0.136784 0.133906 0.596129)
(-0.162998 0.0748922 0.244466)
(-0.116227 0.059162 0.119091)
(-0.293915 -0.329945 2.24639)
(-0.280833 -0.144292 1.94639)
(-0.240432 0.161479 1.42259)
(-0.0420162 0.1391 0.503444)
(0.056982 -0.0143728 0.166444)
(-0.443765 -0.0886763 2.07179)
(-0.129553 0.0356409 1.38916)
(0.23997 -0.0394409 0.84627)
(0.505955 0.0285634 0.884468)
(0.383078 -0.424922 1.29111)
(0.321934 -0.149598 0.851928)
(0.297413 0.104541 0.803723)
(0.300092 0.263977 0.713435)
(-0.00844503 -0.220141 0.881654)
(-0.214374 -0.061752 0.582386)
(-0.266285 0.129977 0.429183)
(-0.170567 0.209072 0.420535)
(0.0395966 0.20022 0.528305)
(-0.107792 -0.322208 1.83674)
(-0.227515 -0.102631 1.35565)
(-0.193467 0.0248406 1.10855)
(-0.0962657 0.0378592 0.545582)
(-0.131081 -0.0448787 0.26402)
(-0.0705105 -0.0215694 0.152605)
(-0.289609 -0.335201 2.34258)
(-0.242767 -0.0772937 1.92164)
(-0.229477 0.182089 1.34103)
(0.0368917 0.0731317 0.631532)
(0.0973223 -0.113344 0.174809)
(-0.334237 0.00479612 1.9538)
(-0.0797088 -0.00802505 1.27472)
(0.275245 -0.0833797 0.718619)
(0.524833 0.0291396 0.926432)
(0.383603 -0.415194 1.29256)
(0.306011 -0.163857 0.861628)
(0.28467 0.0946927 0.817046)
(0.306111 0.257556 0.732477)
(0.0782608 -0.204811 0.983606)
(-0.163172 -0.108771 0.585963)
(-0.264733 0.117702 0.429579)
(-0.173841 0.138268 0.433698)
(0.00638128 0.173293 0.514918)
(-0.0914296 -0.335858 1.94787)
(-0.161521 -0.131836 1.40372)
(-0.0925572 -0.124315 1.07888)
(-0.0500346 -0.0627519 0.525197)
(-0.056904 -0.124975 0.284519)
(-0.0167299 -0.0869688 0.202695)
(-0.268619 -0.321986 2.40248)
(-0.150886 -0.060611 1.86006)
(-0.203313 0.125979 1.2771)
(0.11975 -0.00010055 0.686668)
(0.125236 -0.179639 0.193844)
(-0.224346 0.0355274 1.8998)
(-0.0188665 -0.0273566 1.1235)
(0.270447 -0.0831191 0.636224)
(0.517568 0.0277614 0.96564)
(0.381622 -0.404026 1.28769)
(0.313278 -0.183263 0.922741)
(0.273152 0.0865439 0.838173)
(0.296211 0.241242 0.767382)
(0.146653 -0.212056 1.06672)
(-0.123797 -0.150682 0.618606)
(-0.248158 0.0713467 0.473794)
(-0.167094 0.0850416 0.474623)
(-0.0398769 0.121784 0.517718)
(-0.0749483 -0.336206 2.00968)
(-0.104472 -0.172819 1.46446)
(-0.0647676 -0.235464 1.02362)
(-2.65522e-05 -0.152902 0.54603)
(0.0290897 -0.153466 0.325927)
(0.0251717 -0.129772 0.268345)
(-0.24383 -0.313513 2.40297)
(-0.0242876 -0.0950191 1.69401)
(-0.104372 -0.0633524 1.16194)
(0.186292 -0.156125 0.634467)
(0.142756 -0.209194 0.242908)
(-0.145992 0.0757117 1.84021)
(0.0854408 -0.0111321 0.995292)
(0.2084 -0.0731295 0.579567)
(0.498329 0.028865 1.00358)
(0.391596 -0.403344 1.28684)
(0.337215 -0.203075 1.00874)
(0.270815 0.109766 0.869953)
(0.279409 0.218305 0.802288)
(0.179984 -0.243248 1.13804)
(-0.0978681 -0.166764 0.672757)
(-0.2244 0.0355354 0.546026)
(-0.156799 0.0510455 0.528157)
(-0.0711036 0.0480115 0.540391)
(-0.0648189 -0.337543 2.03917)
(-0.0463942 -0.222637 1.55329)
(-0.0751907 -0.282465 0.96711)
(0.0564507 -0.193382 0.570028)
(0.081753 -0.142848 0.384769)
(0.0504219 -0.150195 0.345046)
(-0.225345 -0.302567 2.35934)
(-0.0510322 -0.17814 1.47992)
(0.0329576 -0.222183 0.993536)
(0.239554 -0.193226 0.547307)
(0.142571 -0.204185 0.321453)
(-0.108655 0.0624647 1.75719)
(0.0810769 -0.139836 0.862859)
(0.195555 -0.081894 0.493894)
(0.450888 0.0343107 1.02739)
(0.386625 -0.405038 1.2958)
(0.337184 -0.225771 1.09956)
(0.268716 0.145939 0.904956)
(0.261195 0.18577 0.83792)
(0.184526 -0.285564 1.20707)
(-0.0827044 -0.147173 0.739949)
(-0.202928 0.0376676 0.625246)
(-0.136343 0.0286653 0.584321)
(-0.0833802 -0.010303 0.575819)
(-0.0567284 -0.345383 2.05456)
(-0.00857893 -0.275962 1.63381)
(-0.0596498 -0.28212 0.935918)
(0.0887931 -0.167565 0.606211)
(0.0953856 -0.123258 0.443417)
(0.0545066 -0.146614 0.422333)
(-0.217823 -0.295732 2.28373)
(-0.142048 -0.22841 1.27047)
(0.111298 -0.212806 0.795505)
(0.221964 -0.140115 0.499799)
(0.123865 -0.177663 0.401372)
(-0.0262861 0.0808037 1.61841)
(0.0437241 -0.0922271 0.714701)
(0.155009 -0.066421 0.466697)
(0.371399 0.0389297 1.02042)
(0.361874 -0.407971 1.34042)
(0.341486 -0.208816 1.16421)
(0.271691 0.149763 0.938906)
(0.243246 0.154122 0.877404)
(0.15228 -0.334856 1.27457)
(-0.0831021 -0.0843396 0.811054)
(-0.192744 0.057173 0.69999)
(-0.108464 0.0084796 0.638734)
(-0.0830692 -0.0478229 0.619412)
(-0.0548185 -0.373147 2.04076)
(0.024401 -0.309059 1.67673)
(-0.0226359 -0.235249 0.929896)
(0.106073 -0.115282 0.648566)
(0.103301 -0.104787 0.495387)
(0.0607479 -0.13317 0.486281)
(-0.221323 -0.301696 2.17955)
(-0.127175 -0.175769 1.09455)
(0.123477 -0.12651 0.632485)
(0.154411 -0.107448 0.478056)
(0.0943384 -0.141051 0.452863)
(-0.00774225 0.0309829 1.49209)
(0.0196328 0.0224206 0.595439)
(0.102183 -0.0631058 0.413051)
(0.309725 0.031075 0.995996)
(0.347569 -0.404924 1.4078)
(0.358313 -0.137744 1.2044)
(0.281703 0.118678 0.956293)
(0.230638 0.133294 0.927375)
(0.104324 -0.378046 1.3589)
(-0.0966573 0.00744014 0.870973)
(-0.183936 0.0796027 0.754698)
(-0.0876787 -0.0114997 0.684001)
(-0.0686763 -0.0765008 0.662046)
(-0.0489647 -0.373335 2.02744)
(0.0563203 -0.315689 1.66045)
(-0.0216008 -0.128625 0.919937)
(0.131275 -0.0676881 0.668421)
(0.12404 -0.0872445 0.541921)
(0.077011 -0.123072 0.538142)
(-0.159698 -0.240944 1.99806)
(-0.0257209 -0.0948367 0.940889)
(0.112553 -0.0671811 0.537403)
(0.104605 -0.0918842 0.463592)
(0.0710439 -0.104804 0.490487)
(0.052463 0.0590291 1.43882)
(0.0712292 0.0483922 0.521508)
(0.111749 -0.0616339 0.343378)
(0.276825 0.0188447 0.993418)
(0.333016 -0.381249 1.47603)
(0.358589 -0.0494708 1.24391)
(0.268729 0.065239 0.960059)
(0.206698 0.135164 0.991959)
(0.0797148 -0.394617 1.4591)
(-0.105817 0.0805494 0.918496)
(-0.143861 0.0943604 0.785887)
(-0.0817002 -0.0267394 0.718295)
(-0.0523983 -0.104752 0.704688)
(-0.0397379 -0.340112 1.97944)
(0.0178298 -0.333587 1.66183)
(-0.0374705 -0.0293326 0.883456)
(0.17253 -0.0422704 0.656865)
(0.156653 -0.0687839 0.585106)
(0.101423 -0.122372 0.584632)
(-0.126267 -0.192643 1.83919)
(0.062761 -0.0229317 0.823055)
(0.106171 -0.0493234 0.497306)
(0.0850178 -0.0695776 0.464233)
(0.0559857 -0.078679 0.539401)
(0.0777399 0.0728606 1.34269)
(0.165104 0.0230234 0.526826)
(0.126282 -0.0610889 0.328589)
(0.257786 0.0125876 1.02087)
(0.312513 -0.344912 1.50806)
(0.342534 0.011667 1.26846)
(0.204007 0.0052083 0.979456)
(0.147591 0.142811 1.06271)
(0.0725796 -0.382089 1.53498)
(-0.095608 0.125984 0.96272)
(-0.0632329 0.093766 0.813181)
(-0.081565 -0.0327085 0.745043)
(-0.0425409 -0.119114 0.750968)
(-0.0382134 -0.323628 1.92015)
(-0.0243092 -0.32227 1.64367)
(0.0187551 0.025064 0.829114)
(0.218726 -0.0321905 0.642129)
(0.190273 -0.0462263 0.626433)
(0.131253 -0.118364 0.635551)
(-0.115936 -0.145855 1.74126)
(0.118235 0.0364145 0.752084)
(0.0987985 -0.0445293 0.490986)
(0.0757519 -0.0412993 0.482033)
(0.0434277 -0.048035 0.603963)
(0.0858881 -0.0327703 1.15004)
(0.196458 -0.00782082 0.57107)
(0.126566 -0.0589009 0.340348)
(0.246652 0.0119108 1.07196)
(0.283625 -0.311599 1.52634)
(0.332195 0.015275 1.25916)
(0.107199 -0.0278369 1.02316)
(0.0709534 0.13084 1.13728)
(0.0693538 -0.363653 1.58634)
(-0.0429787 0.14092 1.01855)
(0.048209 0.0728829 0.838177)
(-0.062371 -0.0307062 0.76859)
(-0.0250859 -0.123358 0.792484)
(-0.038792 -0.309392 1.87523)
(-0.0567451 -0.318515 1.55651)
(0.0998994 0.0378178 0.76301)
(0.242027 -0.0213548 0.642634)
(0.20523 -0.0223327 0.666585)
(0.146849 -0.108555 0.698508)
(-0.11411 -0.181384 1.61126)
(0.150947 0.0583192 0.707373)
(0.0828397 -0.0473321 0.502321)
(0.0640785 -0.027231 0.515851)
(0.0372816 -0.0250962 0.683254)