/*--------------------------------*- C++ -*----------------------------------*\
| =========                 |                                                 |
| \\      /  F ield         | OpenFOAM: The Open Source CFD Toolbox           |
|  \\    /   O peration     | Version:  5.x                                   |
|   \\  /    A nd           | Web:      www.OpenFOAM.org                      |
|    \\/     M anipulation  |                                                 |
\*---------------------------------------------------------------------------*/
FoamFile
{
    version     2.0;
    format      ascii;
    class       volVectorField;
    location    "1";
    object      Us;
}
// * * * * * * * * * * * * * * * * * * * * * * * * * * * * * * * * * * * * * //

dimensions      [0 1 -1 0 0 0 0];

internalField   nonuniform List<vector> 
10571
(
(0.108226 0.0297183 -0.0894446)
(0.0401998 0.0106341 -0.101501)
(0.155866 0.0972262 -0.115955)
(0.182261 0.192046 -0.0655831)
(0.0870784 0.152316 -0.0101744)
(0.11937 -0.0420214 -0.267741)
(0.248644 -0.0340018 -0.20958)
(0.295987 -0.0138597 -0.142229)
(0.0449367 0.248258 0.0434126)
(-0.0251693 0.0592203 -0.0361763)
(0 0 0)
(0.170998 0.0112029 -0.267448)
(0.256676 0.0316338 -0.208757)
(0.286491 0.109477 -0.172811)
(0.294912 0.14654 -0.158779)
(-0.0577173 0.0404231 -0.105589)
(0.0561528 -0.0180517 -0.125327)
(0.24349 0.0258089 -0.113296)
(0.359886 0.283615 -0.104211)
(0.320452 0.329454 -0.0967765)
(-0.0173103 0.00547715 -0.0821524)
(0.221055 0.0682034 -0.0816189)
(0.303313 0.240425 -0.0420643)
(0.00218655 0.00518331 -0.0536753)
(0.0587651 0.0102469 -0.16353)
(0.02811 0.00488132 -0.24391)
(0.117621 0.0546596 -0.203765)
(0.199878 -0.0217597 -0.0816353)
(0.10745 0.0483071 -0.030793)
(0.124982 -0.0281279 -0.284289)
(0.216679 -0.0331816 -0.0425468)
(0.23187 -0.0216956 0.0359633)
(0.137861 0.0222497 0.0501871)
(0.0218633 0.0424416 -0.0481711)
(0.0163708 -0.00233513 -0.180918)
(0.164279 0.0419439 -0.195886)
(0.208868 0.0225804 -0.0898221)
(0.212472 0.0113604 -0.0444939)
(0.18709 0.0920807 0.0766565)
(0.00558163 0.0135767 -0.129186)
(0.11329 0.0986898 -0.214527)
(0.153101 0.0415478 -0.189223)
(0.183335 0.0632217 0.00304369)
(0.25935 0.235331 0.0853251)
(0.0360248 -0.0398842 -0.0813963)
(0.147892 0.0562095 -0.21461)
(0.173779 0.0725016 0.00175576)
(-0.0201455 -0.0129011 0.101372)
(-0.0936439 -0.0394626 -0.155193)
(0.00908609 0.0486228 -0.399695)
(0.0412972 0.0125091 -0.228925)
(0.12879 -0.136664 0.104056)
(0.104991 -0.0337208 0.0486922)
(0.137549 0.0623565 -0.322315)
(0.180617 0.0288819 -0.0492824)
(0.186672 0.0349608 0.069354)
(0.104696 0.00467166 0.105114)
(0.0392499 0.0379989 0.0500161)
(0.0285365 0.038895 -0.329515)
(0.178025 0.038356 -0.305242)
(0.172753 0.0534271 -0.0850547)
(0.115275 0.0117614 0.00908963)
(0.125672 0.020875 0.11372)
(0.0302266 0.00957202 -0.00244964)
(0.145856 0.115364 -0.271305)
(0.0651341 0.0381636 -0.169815)
(0.107308 -0.0324725 0.0748306)
(0.202451 0.144427 0.245752)
(0.0548943 -0.0578597 0.0379509)
(0.084593 0.0267489 -0.179816)
(0.13201 0.0818619 0.206565)
(-0.0656228 -0.020008 0.330025)
(-0.132195 -0.0609863 -0.0665844)
(-0.0226496 0.03523 -0.655851)
(-0.141274 -0.0622298 -0.294667)
(0.0751612 -0.0761051 -0.00686026)
(0.0993593 -0.0190647 0.143436)
(-0.0931886 0.0646791 -0.636513)
(0.0611705 0.0898383 -0.100539)
(0.136603 0.098258 0.0925646)
(0.095504 0.0696889 0.166667)
(0.0462509 0.0936162 0.146208)
(0.0233381 0.0843759 -0.51333)
(-0.0854636 0.12732 -0.634133)
(-0.0131728 0.14186 -0.114483)
(0.0325418 -0.0235794 0.0738129)
(0.102141 -0.088073 0.175059)
(0.0453632 -0.0503948 0.105147)
(0.164383 0.129124 -0.421036)
(-0.115324 -0.0517492 -0.0422495)
(0.0563279 -0.126486 0.131711)
(0.102941 0.0118462 0.340564)
(0.0817101 -0.0981265 0.133657)
(-0.108956 -0.065549 -0.0552883)
(0.096772 0.0742296 0.464084)
(-0.0206399 0.0711718 0.646054)
(0 0 0)
(-0.0305978 0.0208636 -0.898346)
(3.29676e-17 -4.26071e-18 9.38206e-16)
(-0.0273786 -0.131986 0.00350389)
(0.0949257 -0.0174453 0.142031)
(-0.0485379 0.0792878 -0.666866)
(-0.0444407 0.12672 -0.153004)
(0.0993336 0.153434 0.101354)
(0.140172 0.147156 0.183202)
(0.124424 0.172771 0.182415)
(0.0109513 0.107224 -0.653972)
(8.43706e-17 -9.53423e-17 5.36302e-16)
(-0.197893 -0.134921 0.0220074)
(0.0256884 -0.152405 0.149957)
(0.120059 -0.160409 0.213848)
(0.0697331 -0.184692 0.160108)
(0.118484 0.153433 -0.632152)
(-0.15062 -0.144663 0.134325)
(0.0537804 -0.17528 0.236841)
(0.129328 -0.1844 0.299542)
(0.0956186 -0.138078 0.186549)
(-0.217231 -0.116959 0.0695123)
(0.0530386 0.000493341 0.620355)
(-0.0497558 -0.000301859 0.801433)
(0 0 0)
(3.59767e-17 -4.6848e-17 5.79781e-16)
(0 0 0)
(0 0 0)
(0 0 0)
(0.0407977 0.0137689 -0.99134)
(0 0 0)
(-0.0261377 0.0319123 -1.01975)
(-0.0343436 0.0675559 -0.930807)
(0 0 0)
(-0.00947716 0.00395238 -0.00389389)
(0.0015193 0.103411 -0.664834)
(0.114568 0.0869947 -0.657857)
(0 0 0)
(-0.0410879 -0.228989 0.173037)
(0.159051 -0.238023 0.215034)
(-0.0166348 -0.185944 0.0657813)
(-0.0100107 -0.00368861 -0.004247)
(0.0289368 -0.0123028 -0.654729)
(-0.189105 -0.174087 0.396961)
(0.0287762 -0.213357 0.391228)
(0.152558 -0.2189 0.278519)
(0.139451 -0.215921 0.261282)
(-0.380414 -0.163833 0.123897)
(-0.0203967 -0.138982 0.717855)
(-0.0751648 -0.0106568 1.00722)
(0 0 0)
(-0.0346873 -0.00118754 -1.01736)
(0 0 0)
(0 0 0)
(0 0 0)
(0 0 0)
(0 0 0)
(0 0 0)
(0 0 0)
(0 0 0)
(0 0 0)
(7.90021e-18 -2.38594e-17 8.73375e-16)
(0 0 0)
(0 0 0)
(-0.0190052 -0.272708 0.337415)
(0.20075 -0.256946 0.333447)
(0.0524281 0.0727468 -0.985273)
(0 0 0)
(0 0 0)
(-0.183453 -0.169968 0.440265)
(-0.00487576 -0.181066 0.503816)
(0.146368 -0.228153 0.437201)
(0.222596 -0.261624 0.365247)
(0 0 0)
(-0.237085 -0.0302451 -0.0630171)
(-0.0810586 -0.0878922 0.531707)
(0.0631116 -0.00984263 1.02224)
(0 0 0)
(0 0 0)
(0 0 0)
(0 0 0)
(0 0 0)
(0.0279291 0.0187804 -0.943365)
(0 0 0)
(-0.0119236 0.038327 -0.93727)
(0.0396717 0.0449938 -0.955237)
(0 0 0)
(0 0 0)
(0 0 0)
(-0.0128337 0.0688535 -0.9631)
(0 0 0)
(0 0 0)
(0.0288626 0.0596305 -0.924439)
(0.0453875 0.0601713 -1.00586)
(0 0 0)
(0 0 0)
(0 0 0)
(0.0116488 -0.192923 0.735605)
(0.166019 -0.259082 0.622522)
(0.212393 -0.288176 0.493112)
(0 0 0)
(0 0 0)
(-0.258285 -0.0526797 0.586829)
(-0.0577655 -0.0130918 0.680494)
(0 0 0)
(0 0 0)
(0 0 0)
(0 0 0)
(0 0 0)
(0 0 0)
(0 0 0)
(0 0 0)
(0.0366645 0.0562242 -0.959457)
(0 0 0)
(0 0 0)
(0 0 0)
(0 0 0)
(0 0 0)
(0 0 0)
(-0.0967829 0.00652671 -0.790008)
(0 0 0)
(0 0 0)
(0 0 0)
(0 0 0)
(-0.097466 -0.0381521 0.166371)
(0 0 0)
(0 0 0)
(0 0 0)
(-0.178728 0.0521222 -0.745569)
(-0.109825 0.0407264 0.0434049)
(0 0 0)
(0 0 0)
(0 0 0)
(0 0 0)
(0 0 0)
(0.0347134 0.00536564 -0.93691)
(0 0 0)
(-0.0272118 0.0438075 -0.920614)
(0.0371835 0.0341295 -0.901363)
(0 0 0)
(0 0 0)
(0 0 0)
(0 0 0)
(0 0 0)
(-0.0738253 0.0466468 -0.840147)
(0 0 0)
(0 0 0)
(0 0 0)
(0 0 0)
(-0.0681967 0.0645761 -0.880265)
(0 0 0)
(0 0 0)
(-0.189772 0.0276202 -0.66872)
(-0.164844 0.0685445 -0.580273)
(0 0 0)
(0 0 0)
(0 0 0)
(0 0 0)
(0 0 0)
(0 0 0)
(0 0 0)
(-0.0272118 0.0438075 -0.920614)
(0.0305482 0.0376641 -0.917465)
(0.0459418 0.0302086 -0.903286)
(0 0 0)
(0 0 0)
(0 0 0)
(0 0 0)
(-0.039212 0.0601063 -0.876906)
(0 0 0)
(0 0 0)
(0 0 0)
(0 0 0)
(-0.0760526 0.0978348 -0.874624)
(-0.0546623 0.0660772 -0.853402)
(0 0 0)
(0 0 0)
(-0.15387 0.0680374 -0.673224)
(0 0 0)
(0 0 0)
(0 0 0)
(0 0 0)
(0 0 0)
(0 0 0)
(0 0 0)
(0 0 0)
(0 0 0)
(0 0 0)
(0 0 0)
(0 0 0)
(0 0 0)
(0 0 0)
(-0.0701347 0.0752848 -0.896969)
(0 0 0)
(0 0 0)
(0 0 0)
(-0.189633 0.0141546 -0.775921)
(0 0 0)
(0 0 0)
(0 0 0)
(1.47535e-16 -2.35482e-17 5.54022e-16)
(-0.0662341 0.151113 -0.834563)
(0 0 0)
(0 0 0)
(0 0 0)
(0 0 0)
(0.0253728 0.00944969 -0.871671)
(-0.0128521 0.0171878 -0.847462)
(0 0 0)
(0 0 0)
(0.00752719 0.0314816 -0.855692)
(0.0393943 0.0294389 -0.885194)
(0 0 0)
(0 0 0)
(0 0 0)
(0 0 0)
(0 0 0)
(0 0 0)
(0 0 0)
(0 0 0)
(0 0 0)
(9.88043e-17 -7.41058e-17 6.84351e-16)
(0 0 0)
(0 0 0)
(0 0 0)
(-0.14235 0.089454 -0.73778)
(0 0 0)
(0 0 0)
(0 0 0)
(0 0 0)
(0 0 0)
(0 0 0)
(0 0 0)
(0 0 0)
(-5.53612e-18 -2.83288e-17 7.52978e-16)
(0 0 0)
(0 0 0)
(0 0 0)
(0 0 0)
(0 0 0)
(-0.0418354 0.0809302 -0.848263)
(0 0 0)
(0 0 0)
(0 0 0)
(0 0 0)
(0 0 0)
(8.2284e-17 -7.98622e-17 6.61863e-16)
(0 0 0)
(0 0 0)
(0 0 0)
(0 0 0)
(0.0115143 0.000779429 -0.783533)
(0 0 0)
(0 0 0)
(0 0 0)
(0 0 0)
(0 0 0)
(0 0 0)
(0.0138595 0.0320475 -0.821115)
(0 0 0)
(0 0 0)
(0 0 0)
(0 0 0)
(0 0 0)
(-0.0510517 0.0745 -0.774962)
(-0.0582639 0.0644863 -0.770018)
(0 0 0)
(0 0 0)
(0 0 0)
(0 0 0)
(0 0 0)
(0 0 0)
(0 0 0)
(0 0 0)
(0 0 0)
(0.0263608 0.0186103 -0.738579)
(0 0 0)
(0 0 0)
(0 0 0)
(0 0 0)
(0 0 0)
(0 0 0)
(0 0 0)
(0 0 0)
(0 0 0)
(0 0 0)
(0 0 0)
(0 0 0)
(4.1633e-17 -7.16474e-17 6.86054e-16)
(-0.0221526 0.0895612 -0.804348)
(0 0 0)
(0 0 0)
(0 0 0)
(0 0 0)
(-0.0422781 0.105428 -0.779361)
(0 0 0)
(0 0 0)
(0 0 0)
(0 0 0)
(0 0 0)
(0 0 0)
(0 0 0)
(0 0 0)
(0 0 0)
(0 0 0)
(0 0 0)
(0 0 0)
(0 0 0)
(0 0 0)
(0 0 0)
(0 0 0)
(0 0 0)
(0 0 0)
(-0.00487706 0.0801264 -0.770367)
(0 0 0)
(0 0 0)
(0 0 0)
(0 0 0)
(-0.0356689 0.113557 -0.774296)
(0 0 0)
(0 0 0)
(0 0 0)
(0 0 0)
(0 0 0)
(0 0 0)
(0 0 0)
(0 0 0)
(0 0 0)
(0 0 0)
(0 0 0)
(0.0336486 0.0246663 -0.755383)
(0.012725 0.0425208 -0.735178)
(0 0 0)
(0 0 0)
(0 0 0)
(0 0 0)
(0 0 0)
(-0.0295478 0.0917306 -0.752933)
(0 0 0)
(0 0 0)
(0 0 0)
(0 0 0)
(0 0 0)
(0 0 0)
(0 0 0)
(0 0 0)
(0 0 0)
(0 0 0)
(0 0 0)
(0 0 0)
(0.0154468 0.0152478 -0.713184)
(0 0 0)
(0 0 0)
(0 0 0)
(-0.00585839 0.054124 -0.749407)
(0 0 0)
(0 0 0)
(0 0 0)
(0 0 0)
(0 0 0)
(0 0 0)
(0 0 0)
(0 0 0)
(0 0 0)
(0 0 0)
(0 0 0)
(0 0 0)
(0 0 0)
(0 0 0)
(0 0 0)
(0 0 0)
(0 0 0)
(0 0 0)
(0 0 0)
(0.00786176 0.0207065 -0.688511)
(0 0 0)
(0 0 0)
(0 0 0)
(0 0 0)
(-0.000178651 0.0405731 -0.683279)
(0 0 0)
(0 0 0)
(0 0 0)
(0 0 0)
(0 0 0)
(0 0 0)
(0 0 0)
(0 0 0)
(0 0 0)
(0 0 0)
(0 0 0)
(0 0 0)
(0 0 0)
(0 0 0)
(0 0 0)
(0 0 0)
(0 0 0)
(0 0 0)
(0 0 0)
(0 0 0)
(0 0 0)
(0 0 0)
(0 0 0)
(0 0 0)
(0 0 0)
(0 0 0)
(0 0 0)
(0 0 0)
(0 0 0)
(0 0 0)
(0 0 0)
(0 0 0)
(0 0 0)
(0 0 0)
(0 0 0)
(0 0 0)
(0 0 0)
(0 0 0)
(0 0 0)
(0 0 0)
(0 0 0)
(0 0 0)
(0 0 0)
(0 0 0)
(0 0 0)
(0 0 0)
(0 0 0)
(0 0 0)
(0 0 0)
(0 0 0)
(0 0 0)
(0 0 0)
(0 0 0)
(0 0 0)
(0 0 0)
(0 0 0)
(0 0 0)
(0 0 0)
(0 0 0)
(0 0 0)
(0 0 0)
(0 0 0)
(0 0 0)
(0 0 0)
(0 0 0)
(0 0 0)
(0 0 0)
(0 0 0)
(0 0 0)
(0 0 0)
(0 0 0)
(0 0 0)
(0 0 0)
(0 0 0)
(0 0 0)
(0 0 0)
(0 0 0)
(0 0 0)
(0 0 0)
(0 0 0)
(0 0 0)
(0 0 0)
(0 0 0)
(0 0 0)
(0 0 0)
(0 0 0)
(0 0 0)
(0 0 0)
(0 0 0)
(0 0 0)
(0 0 0)
(0 0 0)
(0 0 0)
(0 0 0)
(0 0 0)
(0 0 0)
(0 0 0)
(0 0 0)
(0 0 0)
(0 0 0)
(0 0 0)
(0 0 0)
(0 0 0)
(0 0 0)
(0 0 0)
(0 0 0)
(0 0 0)
(0 0 0)
(0 0 0)
(0 0 0)
(0 0 0)
(0 0 0)
(0 0 0)
(0 0 0)
(0 0 0)
(0 0 0)
(0 0 0)
(0 0 0)
(0 0 0)
(0 0 0)
(0 0 0)
(0 0 0)
(0 0 0)
(0 0 0)
(0 0 0)
(0 0 0)
(0 0 0)
(0 0 0)
(0 0 0)
(0 0 0)
(0 0 0)
(0 0 0)
(0 0 0)
(0 0 0)
(0 0 0)
(0 0 0)
(0 0 0)
(0 0 0)
(0 0 0)
(0 0 0)
(0 0 0)
(0 0 0)
(0 0 0)
(0 0 0)
(0 0 0)
(0 0 0)
(0 0 0)
(0 0 0)
(0 0 0)
(0 0 0)
(0 0 0)
(0 0 0)
(0 0 0)
(0 0 0)
(0 0 0)
(0 0 0)
(0 0 0)
(0 0 0)
(0 0 0)
(0 0 0)
(0 0 0)
(0 0 0)
(0 0 0)
(0 0 0)
(0 0 0)
(0 0 0)
(0 0 0)
(0 0 0)
(0 0 0)
(0 0 0)
(0 0 0)
(0 0 0)
(0 0 0)
(0 0 0)
(0 0 0)
(0 0 0)
(0 0 0)
(0 0 0)
(0 0 0)
(0 0 0)
(0 0 0)
(0 0 0)
(0 0 0)
(0 0 0)
(0 0 0)
(0 0 0)
(0 0 0)
(0 0 0)
(0 0 0)
(0 0 0)
(0 0 0)
(0 0 0)
(0 0 0)
(0 0 0)
(0 0 0)
(0 0 0)
(0 0 0)
(0 0 0)
(0 0 0)
(0 0 0)
(0 0 0)
(0 0 0)
(0 0 0)
(0 0 0)
(0 0 0)
(0 0 0)
(0 0 0)
(0 0 0)
(0 0 0)
(0 0 0)
(0 0 0)
(0 0 0)
(0 0 0)
(0 0 0)
(0 0 0)
(0 0 0)
(0 0 0)
(0 0 0)
(0 0 0)
(0 0 0)
(0 0 0)
(0 0 0)
(0 0 0)
(0 0 0)
(0 0 0)
(0 0 0)
(0 0 0)
(0 0 0)
(0 0 0)
(0 0 0)
(0 0 0)
(0 0 0)
(0 0 0)
(0 0 0)
(0 0 0)
(0 0 0)
(0 0 0)
(0 0 0)
(0 0 0)
(0 0 0)
(0 0 0)
(0 0 0)
(0 0 0)
(0 0 0)
(0 0 0)
(0 0 0)
(0 0 0)
(0 0 0)
(0 0 0)
(0 0 0)
(0 0 0)
(0 0 0)
(0 0 0)
(0 0 0)
(0 0 0)
(0 0 0)
(0 0 0)
(0 0 0)
(0 0 0)
(0 0 0)
(0 0 0)
(0 0 0)
(0 0 0)
(0 0 0)
(0 0 0)
(0 0 0)
(0 0 0)
(0 0 0)
(0 0 0)
(0 0 0)
(0 0 0)
(0 0 0)
(0 0 0)
(0 0 0)
(0 0 0)
(0 0 0)
(0 0 0)
(0 0 0)
(0 0 0)
(0 0 0)
(0 0 0)
(0 0 0)
(0 0 0)
(0 0 0)
(0 0 0)
(0 0 0)
(0 0 0)
(0 0 0)
(0 0 0)
(0 0 0)
(0 0 0)
(0 0 0)
(0 0 0)
(0 0 0)
(0 0 0)
(0 0 0)
(0 0 0)
(0 0 0)
(0 0 0)
(0 0 0)
(0 0 0)
(0 0 0)
(0 0 0)
(0 0 0)
(0 0 0)
(0 0 0)
(0 0 0)
(0 0 0)
(0 0 0)
(0 0 0)
(0 0 0)
(0 0 0)
(0 0 0)
(0 0 0)
(0 0 0)
(0 0 0)
(0 0 0)
(0 0 0)
(0 0 0)
(0 0 0)
(0 0 0)
(0 0 0)
(0 0 0)
(0 0 0)
(0 0 0)
(0 0 0)
(0 0 0)
(0 0 0)
(0 0 0)
(0 0 0)
(0 0 0)
(0 0 0)
(0 0 0)
(0 0 0)
(0 0 0)
(0 0 0)
(0 0 0)
(0 0 0)
(0 0 0)
(0 0 0)
(0 0 0)
(0 0 0)
(0 0 0)
(0 0 0)
(0 0 0)
(0 0 0)
(0 0 0)
(0 0 0)
(0 0 0)
(0 0 0)
(0 0 0)
(0 0 0)
(0 0 0)
(0 0 0)
(0 0 0)
(0 0 0)
(0 0 0)
(0 0 0)
(0 0 0)
(0 0 0)
(0 0 0)
(0 0 0)
(0 0 0)
(0 0 0)
(0 0 0)
(0 0 0)
(0 0 0)
(0 0 0)
(0 0 0)
(0 0 0)
(0 0 0)
(0 0 0)
(0 0 0)
(0 0 0)
(0 0 0)
(0 0 0)
(0 0 0)
(0 0 0)
(0 0 0)
(0 0 0)
(0 0 0)
(0 0 0)
(0 0 0)
(0 0 0)
(0 0 0)
(0 0 0)
(0 0 0)
(0 0 0)
(0 0 0)
(0 0 0)
(0 0 0)
(0 0 0)
(0 0 0)
(0 0 0)
(0 0 0)
(0 0 0)
(0 0 0)
(0 0 0)
(0 0 0)
(0 0 0)
(0 0 0)
(0 0 0)
(0 0 0)
(0 0 0)
(0 0 0)
(0 0 0)
(0 0 0)
(0 0 0)
(0 0 0)
(0 0 0)
(0 0 0)
(0 0 0)
(0 0 0)
(0 0 0)
(0 0 0)
(0 0 0)
(0 0 0)
(0 0 0)
(0 0 0)
(0 0 0)
(0 0 0)
(0 0 0)
(0 0 0)
(0 0 0)
(0 0 0)
(0 0 0)
(0 0 0)
(0 0 0)
(0 0 0)
(0 0 0)
(0 0 0)
(0 0 0)
(0 0 0)
(0 0 0)
(0 0 0)
(0 0 0)
(0 0 0)
(0 0 0)
(0 0 0)
(0 0 0)
(0 0 0)
(0 0 0)
(0 0 0)
(0 0 0)
(0 0 0)
(0 0 0)
(0 0 0)
(0 0 0)
(0 0 0)
(0 0 0)
(0 0 0)
(0 0 0)
(0 0 0)
(0 0 0)
(0 0 0)
(0 0 0)
(0 0 0)
(0 0 0)
(0 0 0)
(0 0 0)
(0 0 0)
(0 0 0)
(0 0 0)
(0 0 0)
(0 0 0)
(0 0 0)
(0 0 0)
(0 0 0)
(0 0 0)
(0 0 0)
(0 0 0)
(0 0 0)
(0 0 0)
(0 0 0)
(0 0 0)
(0 0 0)
(0 0 0)
(0 0 0)
(0 0 0)
(0 0 0)
(0 0 0)
(0 0 0)
(0 0 0)
(0 0 0)
(0 0 0)
(0 0 0)
(0 0 0)
(0 0 0)
(0 0 0)
(0 0 0)
(0 0 0)
(0 0 0)
(0 0 0)
(0 0 0)
(0 0 0)
(0 0 0)
(0 0 0)
(0 0 0)
(0 0 0)
(0 0 0)
(0 0 0)
(0 0 0)
(0 0 0)
(0 0 0)
(0 0 0)
(0 0 0)
(0 0 0)
(0 0 0)
(0 0 0)
(0 0 0)
(0 0 0)
(0 0 0)
(0 0 0)
(0 0 0)
(0 0 0)
(0 0 0)
(0 0 0)
(0 0 0)
(0 0 0)
(0 0 0)
(0 0 0)
(0 0 0)
(0 0 0)
(0 0 0)
(0 0 0)
(0 0 0)
(0 0 0)
(0 0 0)
(0 0 0)
(0 0 0)
(0 0 0)
(0 0 0)
(0 0 0)
(0 0 0)
(0 0 0)
(0 0 0)
(0 0 0)
(0 0 0)
(0 0 0)
(0 0 0)
(0 0 0)
(0 0 0)
(0 0 0)
(0 0 0)
(0 0 0)
(0 0 0)
(0 0 0)
(0 0 0)
(0 0 0)
(0 0 0)
(0 0 0)
(0 0 0)
(0 0 0)
(0 0 0)
(0 0 0)
(0 0 0)
(0 0 0)
(0 0 0)
(0 0 0)
(0 0 0)
(0 0 0)
(0 0 0)
(0 0 0)
(0 0 0)
(0 0 0)
(0 0 0)
(0 0 0)
(0 0 0)
(0 0 0)
(0 0 0)
(0 0 0)
(0 0 0)
(0 0 0)
(0 0 0)
(0 0 0)
(0 0 0)
(0 0 0)
(0 0 0)
(0 0 0)
(0 0 0)
(0 0 0)
(0 0 0)
(0 0 0)
(0 0 0)
(0 0 0)
(0 0 0)
(0 0 0)
(0 0 0)
(0 0 0)
(0 0 0)
(0 0 0)
(0 0 0)
(0 0 0)
(0 0 0)
(0 0 0)
(0 0 0)
(0 0 0)
(0 0 0)
(0 0 0)
(0 0 0)
(0 0 0)
(0 0 0)
(0 0 0)
(0 0 0)
(0 0 0)
(0 0 0)
(0 0 0)
(0 0 0)
(0 0 0)
(0 0 0)
(0 0 0)
(0 0 0)
(0 0 0)
(0 0 0)
(0 0 0)
(0 0 0)
(0 0 0)
(0 0 0)
(0 0 0)
(0 0 0)
(0 0 0)
(0 0 0)
(0 0 0)
(0 0 0)
(0 0 0)
(0 0 0)
(0 0 0)
(0 0 0)
(0 0 0)
(0 0 0)
(0 0 0)
(0 0 0)
(0 0 0)
(0 0 0)
(0 0 0)
(0 0 0)
(0 0 0)
(0 0 0)
(0 0 0)
(0 0 0)
(0 0 0)
(0 0 0)
(0 0 0)
(0 0 0)
(0 0 0)
(0 0 0)
(0 0 0)
(0 0 0)
(0 0 0)
(0 0 0)
(0 0 0)
(0 0 0)
(0 0 0)
(0 0 0)
(0 0 0)
(0 0 0)
(0 0 0)
(0 0 0)
(0 0 0)
(0 0 0)
(0 0 0)
(0 0 0)
(0 0 0)
(0 0 0)
(0 0 0)
(0 0 0)
(0 0 0)
(0 0 0)
(0 0 0)
(0 0 0)
(0 0 0)
(0 0 0)
(0 0 0)
(0 0 0)
(0 0 0)
(0 0 0)
(0 0 0)
(0 0 0)
(0 0 0)
(0 0 0)
(0 0 0)
(0 0 0)
(0 0 0)
(0 0 0)
(0 0 0)
(0 0 0)
(0 0 0)
(0 0 0)
(0 0 0)
(0 0 0)
(0 0 0)
(0 0 0)
(0 0 0)
(0 0 0)
(0 0 0)
(0 0 0)
(0 0 0)
(0 0 0)
(0 0 0)
(0 0 0)
(0 0 0)
(0 0 0)
(0 0 0)
(0 0 0)
(0 0 0)
(0 0 0)
(0 0 0)
(0 0 0)
(0 0 0)
(0 0 0)
(0 0 0)
(0 0 0)
(0 0 0)
(0 0 0)
(0 0 0)
(0 0 0)
(0 0 0)
(0 0 0)
(0 0 0)
(0 0 0)
(0 0 0)
(0 0 0)
(0 0 0)
(0 0 0)
(0 0 0)
(0 0 0)
(0 0 0)
(0 0 0)
(0 0 0)
(0 0 0)
(0 0 0)
(0 0 0)
(0 0 0)
(0 0 0)
(0 0 0)
(0 0 0)
(0 0 0)
(0 0 0)
(0 0 0)
(0 0 0)
(0 0 0)
(0 0 0)
(0 0 0)
(0 0 0)
(0 0 0)
(0 0 0)
(0 0 0)
(0 0 0)
(0 0 0)
(0 0 0)
(0 0 0)
(0 0 0)
(0 0 0)
(0 0 0)
(0 0 0)
(0 0 0)
(0 0 0)
(0 0 0)
(0 0 0)
(0 0 0)
(0 0 0)
(0 0 0)
(0 0 0)
(0 0 0)
(0 0 0)
(0 0 0)
(0 0 0)
(0 0 0)
(0 0 0)
(0 0 0)
(0 0 0)
(0 0 0)
(0 0 0)
(0 0 0)
(0 0 0)
(0 0 0)
(0 0 0)
(0 0 0)
(0 0 0)
(0 0 0)
(0 0 0)
(0 0 0)
(0 0 0)
(0 0 0)
(0 0 0)
(0 0 0)
(0 0 0)
(0 0 0)
(0 0 0)
(0 0 0)
(0 0 0)
(0 0 0)
(0 0 0)
(0 0 0)
(0 0 0)
(0 0 0)
(0 0 0)
(0 0 0)
(0 0 0)
(0 0 0)
(0 0 0)
(0 0 0)
(0 0 0)
(0 0 0)
(0 0 0)
(0 0 0)
(0 0 0)
(0 0 0)
(0 0 0)
(0 0 0)
(0 0 0)
(0 0 0)
(0 0 0)
(0 0 0)
(0 0 0)
(0 0 0)
(0 0 0)
(0 0 0)
(0 0 0)
(0 0 0)
(0 0 0)
(0 0 0)
(0 0 0)
(0 0 0)
(0 0 0)
(0 0 0)
(0 0 0)
(0 0 0)
(0 0 0)
(0 0 0)
(0 0 0)
(0 0 0)
(0 0 0)
(0 0 0)
(0 0 0)
(0 0 0)
(0 0 0)
(0 0 0)
(0 0 0)
(0 0 0)
(0 0 0)
(0 0 0)
(0 0 0)
(0 0 0)
(0 0 0)
(0 0 0)
(0 0 0)
(0 0 0)
(0 0 0)
(0 0 0)
(0 0 0)
(0 0 0)
(0 0 0)
(0 0 0)
(0 0 0)
(0 0 0)
(0 0 0)
(0 0 0)
(0 0 0)
(0 0 0)
(0 0 0)
(0 0 0)
(0 0 0)
(0 0 0)
(0 0 0)
(0 0 0)
(0 0 0)
(0 0 0)
(0 0 0)
(0 0 0)
(0 0 0)
(0 0 0)
(0 0 0)
(0 0 0)
(0 0 0)
(0 0 0)
(0 0 0)
(0 0 0)
(0 0 0)
(0 0 0)
(0 0 0)
(0 0 0)
(0 0 0)
(0 0 0)
(0 0 0)
(0 0 0)
(0 0 0)
(0 0 0)
(0 0 0)
(0 0 0)
(0 0 0)
(0 0 0)
(0 0 0)
(0 0 0)
(0 0 0)
(0 0 0)
(0 0 0)
(0 0 0)
(0 0 0)
(0 0 0)
(0 0 0)
(0 0 0)
(0 0 0)
(0 0 0)
(0 0 0)
(0 0 0)
(0 0 0)
(0 0 0)
(0 0 0)
(0 0 0)
(0 0 0)
(0 0 0)
(0 0 0)
(0 0 0)
(0 0 0)
(0 0 0)
(0 0 0)
(0 0 0)
(0 0 0)
(0 0 0)
(0 0 0)
(0 0 0)
(0 0 0)
(0 0 0)
(0 0 0)
(0 0 0)
(0 0 0)
(0 0 0)
(0 0 0)
(0 0 0)
(0 0 0)
(0 0 0)
(0 0 0)
(0 0 0)
(0 0 0)
(0 0 0)
(0 0 0)
(0 0 0)
(0 0 0)
(0 0 0)
(0 0 0)
(0 0 0)
(0 0 0)
(0 0 0)
(0 0 0)
(0 0 0)
(0 0 0)
(0 0 0)
(0 0 0)
(0 0 0)
(0 0 0)
(0 0 0)
(0 0 0)
(0 0 0)
(0 0 0)
(0 0 0)
(0 0 0)
(0 0 0)
(0 0 0)
(0 0 0)
(0 0 0)
(0 0 0)
(0 0 0)
(0 0 0)
(0 0 0)
(0 0 0)
(0 0 0)
(0 0 0)
(0 0 0)
(0 0 0)
(0 0 0)
(0 0 0)
(0 0 0)
(0 0 0)
(0 0 0)
(0 0 0)
(0 0 0)
(0 0 0)
(0 0 0)
(0 0 0)
(0 0 0)
(0 0 0)
(0 0 0)
(0 0 0)
(0 0 0)
(0 0 0)
(0 0 0)
(0 0 0)
(0 0 0)
(0 0 0)
(0 0 0)
(0 0 0)
(0 0 0)
(0 0 0)
(0 0 0)
(0 0 0)
(0 0 0)
(0 0 0)
(0 0 0)
(0 0 0)
(0 0 0)
(0 0 0)
(0 0 0)
(0 0 0)
(0 0 0)
(0 0 0)
(0 0 0)
(0 0 0)
(0 0 0)
(0 0 0)
(0 0 0)
(0 0 0)
(0 0 0)
(0 0 0)
(0 0 0)
(0 0 0)
(0 0 0)
(0 0 0)
(0 0 0)
(0 0 0)
(0 0 0)
(0 0 0)
(0 0 0)
(0 0 0)
(0 0 0)
(0 0 0)
(0 0 0)
(0 0 0)
(0 0 0)
(0 0 0)
(0 0 0)
(0 0 0)
(0 0 0)
(0 0 0)
(0 0 0)
(0 0 0)
(0 0 0)
(0 0 0)
(0 0 0)
(0 0 0)
(0 0 0)
(0 0 0)
(0 0 0)
(0 0 0)
(0 0 0)
(0 0 0)
(0 0 0)
(0 0 0)
(0 0 0)
(0 0 0)
(0 0 0)
(0 0 0)
(0 0 0)
(0 0 0)
(0 0 0)
(0 0 0)
(0 0 0)
(0 0 0)
(0 0 0)
(0 0 0)
(0 0 0)
(0 0 0)
(0 0 0)
(0 0 0)
(0 0 0)
(0 0 0)
(0 0 0)
(0 0 0)
(0 0 0)
(0 0 0)
(0 0 0)
(0 0 0)
(0 0 0)
(0 0 0)
(0 0 0)
(0 0 0)
(0 0 0)
(0 0 0)
(0 0 0)
(0 0 0)
(0 0 0)
(0 0 0)
(0 0 0)
(0 0 0)
(0 0 0)
(0 0 0)
(0 0 0)
(0 0 0)
(0 0 0)
(0 0 0)
(0 0 0)
(0 0 0)
(0 0 0)
(0 0 0)
(0 0 0)
(0 0 0)
(0 0 0)
(0 0 0)
(0 0 0)
(0 0 0)
(0 0 0)
(0 0 0)
(0 0 0)
(0 0 0)
(0 0 0)
(0 0 0)
(0 0 0)
(0 0 0)
(0 0 0)
(0 0 0)
(0 0 0)
(0 0 0)
(0 0 0)
(0 0 0)
(0 0 0)
(0 0 0)
(0 0 0)
(0 0 0)
(0 0 0)
(0 0 0)
(0 0 0)
(0 0 0)
(0 0 0)
(0 0 0)
(0 0 0)
(0 0 0)
(0 0 0)
(0 0 0)
(0 0 0)
(0 0 0)
(0 0 0)
(0 0 0)
(0 0 0)
(0 0 0)
(0 0 0)
(0 0 0)
(0 0 0)
(0 0 0)
(0 0 0)
(0 0 0)
(0 0 0)
(0 0 0)
(0 0 0)
(0 0 0)
(0 0 0)
(0 0 0)
(0 0 0)
(0 0 0)
(0 0 0)
(0 0 0)
(0 0 0)
(0 0 0)
(0 0 0)
(0 0 0)
(0 0 0)
(0 0 0)
(0 0 0)
(0 0 0)
(0 0 0)
(0 0 0)
(0 0 0)
(0 0 0)
(0 0 0)
(0 0 0)
(0 0 0)
(0 0 0)
(0 0 0)
(0 0 0)
(0 0 0)
(0 0 0)
(0 0 0)
(0 0 0)
(0 0 0)
(0 0 0)
(0 0 0)
(0 0 0)
(0 0 0)
(0 0 0)
(0 0 0)
(0 0 0)
(0 0 0)
(0 0 0)
(0 0 0)
(0 0 0)
(0 0 0)
(0 0 0)
(0 0 0)
(0 0 0)
(0 0 0)
(0 0 0)
(0 0 0)
(0 0 0)
(0 0 0)
(0 0 0)
(0 0 0)
(0 0 0)
(0 0 0)
(0 0 0)
(0 0 0)
(0 0 0)
(0 0 0)
(0 0 0)
(0 0 0)
(0 0 0)
(0 0 0)
(0 0 0)
(0 0 0)
(0 0 0)
(0 0 0)
(0 0 0)
(0 0 0)
(0 0 0)
(0 0 0)
(0 0 0)
(0 0 0)
(0 0 0)
(0 0 0)
(0 0 0)
(0 0 0)
(0 0 0)
(0 0 0)
(0 0 0)
(0 0 0)
(0 0 0)
(0 0 0)
(0 0 0)
(0 0 0)
(0 0 0)
(0 0 0)
(0 0 0)
(0 0 0)
(0 0 0)
(0 0 0)
(0 0 0)
(0 0 0)
(0 0 0)
(0 0 0)
(0 0 0)
(0 0 0)
(0 0 0)
(0 0 0)
(0 0 0)
(0 0 0)
(0 0 0)
(0 0 0)
(0 0 0)
(0 0 0)
(0 0 0)
(0 0 0)
(0 0 0)
(0 0 0)
(0 0 0)
(0 0 0)
(0 0 0)
(0 0 0)
(0 0 0)
(0 0 0)
(0 0 0)
(0 0 0)
(0 0 0)
(0 0 0)
(0 0 0)
(0 0 0)
(0 0 0)
(0 0 0)
(0 0 0)
(0 0 0)
(0 0 0)
(0 0 0)
(0 0 0)
(0 0 0)
(0 0 0)
(0 0 0)
(0 0 0)
(0 0 0)
(0 0 0)
(0 0 0)
(0 0 0)
(0 0 0)
(0 0 0)
(0 0 0)
(0 0 0)
(0 0 0)
(0 0 0)
(0 0 0)
(0 0 0)
(0 0 0)
(0 0 0)
(0 0 0)
(0 0 0)
(0 0 0)
(0 0 0)
(0 0 0)
(0 0 0)
(0 0 0)
(0 0 0)
(0 0 0)
(0 0 0)
(0 0 0)
(0 0 0)
(0 0 0)
(0 0 0)
(0 0 0)
(0 0 0)
(0 0 0)
(0 0 0)
(0 0 0)
(0 0 0)
(0 0 0)
(0 0 0)
(0 0 0)
(0 0 0)
(0 0 0)
(0 0 0)
(0 0 0)
(0 0 0)
(0 0 0)
(0 0 0)
(0 0 0)
(0 0 0)
(0 0 0)
(0 0 0)
(0 0 0)
(0 0 0)
(0 0 0)
(0 0 0)
(0 0 0)
(0 0 0)
(0 0 0)
(0 0 0)
(0 0 0)
(0 0 0)
(0 0 0)
(0 0 0)
(0 0 0)
(0 0 0)
(0 0 0)
(0 0 0)
(0 0 0)
(0 0 0)
(0 0 0)
(0 0 0)
(0 0 0)
(0.035175 0.0256231 -0.0306653)
(0.0636679 0.0373949 -0.0365322)
(0.0565512 0.0525833 -0.0276687)
(0.0881961 0.103704 -0.0349792)
(0.087733 0.0440644 -0.0344553)
(0.110921 0.130818 -0.0287915)
(0.124252 0.138074 -0.0146465)
(0.0979338 0.0991579 -0.00297452)
(0.0188748 0.0274535 -0.0302038)
(0.0381627 0.0274781 -0.0328849)
(0.0908962 0.0748816 -0.0312307)
(0.0709613 0.0437749 -0.0200524)
(0.158686 0.0799739 -0.0365085)
(0.150183 0.152329 -0.0294349)
(0.150297 0.212386 -0.00399051)
(0.18578 0.0993905 -0.0225971)
(0.175303 0.122677 0.00462907)
(0.116914 0.23941 0.00143331)
(0.0875702 0.241661 0.00518303)
(0.157878 0.172479 0.0143835)
(0.0826887 0.242703 0.0170037)
(0.0637629 0.184039 0.00513391)
(0.0338748 0.0965095 -0.00884089)
(0.00271748 0.25001 0.0150062)
(-0.0355328 0.162479 -0.00256262)
(-0.0126275 0.0527675 -0.0191479)
(0.0175693 0.0338587 -0.0313143)
(0.000567957 0.00336526 -0.000172191)
(0.0111265 0.0180597 -0.0141242)
(0.0835403 0.0382979 -0.023526)
(0.159359 0.00987608 -0.0659977)
(0.0489064 0.0129047 -0.0108388)
(0.111624 -0.0202749 -0.0228852)
(0.156685 0.00889242 -0.0407162)
(0.194427 0.0207963 -0.0240286)
(0.17319 -0.000544918 -0.057928)
(0.206195 0.0423653 -0.0191537)
(0.225567 0.0512291 -0.0230579)
(0.188403 0.114263 -0.0210766)
(0.210535 0.0464085 -0.0565843)
(0.242085 0.0526249 -0.0820837)
(-0.0415666 0.257839 0.0213498)
(-0.121939 0.204353 -0.00312688)
(0.0592798 0.140136 -0.0042846)
(-0.162667 0.190981 -0.00330339)
(-0.06746 0.060182 -0.01398)
(-0.087287 0.0634624 -0.0295624)
(-0.0200129 0.0203954 -0.0288642)
(-0.00174567 -0.00128125 0.000426057)
(0.00325535 -0.00508597 -0.00525474)
(-0.0013863 -0.0444575 -0.0140275)
(0.0325125 -0.0203186 -0.00847924)
(0.108045 -0.0165533 -0.0185012)
(0.0416096 -0.0476682 -0.0114432)
(0.110869 -0.0391015 -0.0156063)
(0.19713 0.00488255 -0.0445899)
(0.231818 0.0398686 -0.0141501)
(0.195669 -0.00616815 -0.0255996)
(0.25854 0.0278976 -0.0174707)
(0.214635 0.0965002 -0.0513749)
(0.248676 0.10383 -0.151061)
(0.223601 0.129794 -0.0326681)
(0.233842 0.149982 -0.0751333)
(0.259906 0.107878 -0.0584903)
(-0.0908534 0.160695 -0.0258849)
(0.226817 0.142624 -0.0292337)
(0.0792269 0.0929138 -0.00647864)
(-0.107824 0.0709931 -0.0443363)
(-0.0283749 0.0259801 -0.032679)
(-0.0728015 0.0433899 -0.0210687)
(-0.0047902 -0.0283198 -0.0154829)
(0.0244941 -0.0511871 -0.013314)
(0.124262 -0.0594081 -0.0210959)
(0.0230607 -0.0302394 -0.0322684)
(0.100454 -0.00866563 -0.0352476)
(0.215723 -0.0322813 -0.0191594)
(0.258714 0.0188514 -0.00250003)
(0.218481 0.00874217 -0.0123543)
(0.23321 0.0288054 0.00919517)
(0.218119 0.0584057 0.00436283)
(0.165612 0.133682 -0.00467015)
(0.197774 0.0510502 0.00375507)
(0.0891749 0.0496406 0.00100191)
(0.132463 0.106865 -0.0179466)
(-0.00147204 -0.00336431 -0.00506927)
(0.0120852 0.012646 -0.00180379)
(-0.0131036 -0.0106279 -0.00668187)
(-0.033398 0.00618528 -0.0127028)
(0.103812 0.0310456 -0.033985)
(0.169514 0.0313045 -0.00234765)
(0.145887 0.0328995 0.0211405)
(0.0538017 0.017756 0.0174249)
(0.0781715 0.0187514 0.0111376)
(0.0190637 0.00646562 0.00310434)
(0.0374041 0.0108625 0.00755354)
(-0.000140983 0.00120639 -0.00152604)
(0.0519393 0.00223282 -0.0828072)
(0.0462387 -0.000308864 -0.146074)
(0.0776203 0.0165523 -0.0900124)
(0.0799444 0.0299182 -0.0976488)
(0.105287 0.0651177 -0.105675)
(0.0759201 0.00401686 -0.147947)
(0.0791939 0.0206938 -0.166761)
(0.101158 0.0409729 -0.167587)
(0.131428 0.0900029 -0.0871845)
(0.131924 0.100491 -0.0412489)
(0.088144 0.0176432 -0.139413)
(0.11401 0.0540163 -0.137725)
(0.103549 0.0529376 -0.0657506)
(0.114788 0.0859152 -0.0137683)
(0.0866591 0.0530898 -0.0266182)
(0.0261796 -0.00891108 -0.166925)
(0.0374602 -0.0487463 -0.272949)
(0.095378 0.047297 -0.112825)
(0.0779523 0.00858655 -0.149747)
(0.165654 7.66081e-06 -0.189795)
(0.0379635 -0.00178635 -0.186893)
(0.0753919 0.02846 -0.194455)
(0.0667763 -0.0260768 -0.263334)
(0.136772 -0.0265386 -0.231993)
(0.0566407 0.0932036 -0.0220513)
(0.0402469 0.244338 0.016437)
(-0.000223929 0.141283 -0.0206436)
(0.0981607 0.10151 -0.0252157)
(0.0631288 0.0791787 -0.03206)
(0.0903534 0.176647 -0.00733183)
(0.0280863 0.109007 -0.0367055)
(0.00886849 0.0638354 -0.0378796)
(0.0221805 0.0590922 -0.0478646)
(0.0562793 -0.0390048 -0.284607)
(0.0155438 -0.00579663 -0.289648)
(0.0668349 -0.0262844 -0.293454)
(0.0535387 -0.0663364 -0.288926)
(0.0277987 -0.0103224 -0.253624)
(0.0726287 -0.04319 -0.272533)
(-0.0428406 0.0437704 -0.0658208)
(-0.0079889 0.0196965 -0.062592)
(0.00148521 0.0517853 -0.0521992)
(-0.0103891 0.0347028 -0.0886816)
(0.0015782 0.0278057 -0.0891054)
(0.0921026 0.00695285 -0.267987)
(0.0480832 0.0264004 -0.203093)
(0.0274253 0.000220726 -0.206913)
(0.0949423 0.0205696 -0.224254)
(0.053149 0.057324 -0.220518)
(-0.0154251 0.0231628 -0.0838019)
(-0.0378811 0.0336202 -0.0938617)
(-0.0259225 0.0250119 -0.136402)
(-0.00748713 0.0246988 -0.108742)
(-0.0022037 -0.0023279 -0.127289)
(0.0225975 0.0148263 -0.180553)
(0.0470571 0.0587884 -0.228703)
(0.15551 -0.0144332 -0.133727)
(0.038395 0.000790159 -0.105409)
(0.122535 0.0191311 -0.117676)
(0.0875946 0.063423 -0.220766)
(0.143189 0.0457664 -0.213117)
(0.0686543 0.0437389 -0.184729)
(0.127122 0.0447567 -0.191097)
(0.0508575 0.0752119 -0.0868037)
(0.123212 0.15601 -0.0746177)
(-0.0204496 0.00355337 -0.0719152)
(0.316124 0.296911 -0.0285108)
(0.0533662 0.0969654 -0.0647776)
(0.188199 0.235153 0.00183278)
(0.00606616 0.0272789 -0.106597)
(0.028444 -0.0196458 -0.121166)
(0.114935 0.0448582 -0.102859)
(0.120267 0.0489287 -0.16265)
(0.29626 0.118493 0.0172147)
(0.167559 0.0472349 0.00424808)
(0.18085 0.0611211 -0.180771)
(0.193573 0.0696512 -0.17948)
(0.115823 0.037896 -0.133656)
(0.176429 0.215168 -0.0765723)
(0.201272 0.101078 -0.026241)
(0.210973 0.19729 -0.0587857)
(0.144796 0.147902 -0.0220335)
(0.105253 -0.149167 -0.0389132)
(0.0160664 0.01496 -0.0380788)
(0.0387786 0.00707634 -0.210836)
(0.0352254 0.00877967 -0.300328)
(0.0627869 0.00483861 -0.191333)
(0.0748327 0.0268196 -0.228077)
(0.092019 0.035644 -0.211299)
(0.0339624 -0.000172333 -0.214814)
(0.0659291 0.0185981 -0.289615)
(0.0714037 0.0116768 -0.242437)
(0.0774474 0.0234423 -0.157493)
(0.0622061 0.00985362 -0.0790872)
(0.00178984 0.00272646 -0.16516)
(0.0101371 -0.0116392 -0.13793)
(0.00503017 -0.0482248 -0.048126)
(0.0558237 0.0174344 -0.0345509)
(0.027551 -0.0132847 -0.0294314)
(0.0338679 -0.0316698 -0.290754)
(0.0237365 0.0114191 -0.335654)
(0.0708446 0.0372796 -0.240581)
(0.0737908 -0.00112711 -0.289144)
(0.129201 0.0126646 -0.225987)
(0.0206073 0.0298356 -0.308546)
(0.0670439 0.0606994 -0.296768)
(0.079996 0.0470831 -0.327258)
(0.138377 0.0536981 -0.214943)
(0.0572421 0.0575078 -0.037449)
(0.138991 0.0898424 -0.0127968)
(0.0516547 0.0747089 -0.0454617)
(0.110071 -0.00477602 -0.00870265)
(0.0603864 0.036223 -0.0226691)
(0.187208 -0.029977 0.050584)
(0.0807544 0.0287794 -0.0118298)
(0.0302739 0.0522348 -0.0501551)
(0.0404889 0.0440262 -0.0254465)
(0.0532263 -0.0391526 -0.30648)
(0.0223804 -0.0292926 -0.238603)
(0.0755073 -0.0356204 -0.286145)
(0.0554768 0.00643126 -0.35037)
(0.0177171 -0.0132102 -0.284633)
(0.0921886 0.00236896 -0.342925)
(0.0201698 0.0303872 -0.0860186)
(0.0097862 0.0304715 -0.098295)
(0.0391274 0.034788 -0.00579455)
(0.0430877 0.0303756 -0.0448452)
(0.00817126 0.0220865 -0.0718101)
(0.0926868 0.0423998 -0.213183)
(0.07449 0.0973234 -0.187354)
(0.018669 0.0104402 -0.23767)
(0.0943759 0.0460881 -0.277338)
(0.0766725 0.100465 -0.227817)
(-0.0014704 0.0252479 -0.122504)
(0.0143828 -0.029476 -0.0975632)
(0.0227388 0.0167906 -0.0641043)
(-0.00041874 0.0134145 -0.0814567)
(0.0205605 -0.0307039 -0.024634)
(0.0665502 0.0998715 -0.197059)
(0.0788424 0.117464 -0.218785)
(0.153871 0.07063 -0.211186)
(0.093143 0.0705025 -0.211701)
(0.133064 0.0623355 -0.22619)
(0.134272 0.109629 -0.234213)
(0.172094 0.0853359 -0.210851)
(0.113095 0.089825 -0.232665)
(0.140301 0.073508 -0.239058)
(0.0549368 0.0696316 0.0122611)
(0.172717 0.332098 0.138427)
(0.0171425 0.0200362 -0.0216734)
(0.229273 0.203522 0.193308)
(0.0476075 0.0517703 0.0901724)
(0.0825113 0.241407 0.245921)
(0.0171932 0.0355222 0.0817137)
(0.0419588 -0.0492607 -0.0166558)
(0.125324 0.0594166 -0.201307)
(0.123327 0.0657805 -0.222422)
(0.139772 0.0591068 -0.145092)
(0.115007 0.0488889 -0.0550998)
(0.12969 0.0486353 -0.207679)
(0.109422 0.0347598 -0.0970279)
(0.110401 0.055209 0.0481948)
(0.0745342 -0.0695931 0.0828435)
(0.19101 0.119164 0.075252)
(0.15663 0.0993275 0.0813758)
(0.0294669 -0.0472967 0.221105)
(0.0965843 -0.106756 0.147499)
(-0.0595176 -0.0333097 0.172987)
(0.0300853 0.0148009 -0.388382)
(0.0263489 0.0116523 -0.530088)
(-0.00409739 -0.0417404 -0.25336)
(0.0538071 0.00724108 -0.351935)
(0.0145488 -0.0599044 -0.307453)
(-0.132926 -0.129401 -0.251594)
(0.0238082 0.00516409 -0.643237)
(-0.0511242 -0.139853 -0.330367)
(-0.0845684 -0.0944238 -0.0739819)
(-0.0353504 -0.0605323 -0.0132677)
(-0.138282 -0.0393221 -0.117522)
(-0.0182304 -0.137506 -0.0682436)
(-0.0107051 -0.0726171 0.0121396)
(0.0106094 -0.0235304 -0.00708275)
(0.0177085 -0.0226819 0.0223859)
(0.0111927 0.0474708 -0.414841)
(0.00340964 0.0639648 -0.504837)
(0.0424776 0.0619799 -0.359462)
(0.0715285 0.0821762 -0.376426)
(0.108969 0.0679961 -0.203412)
(0.00655056 0.0502366 -0.505213)
(0.0324914 0.048822 -0.505823)
(0.0290296 0.0899718 -0.487304)
(-0.0125872 0.0572752 -0.218426)
(0.0610551 0.0289294 0.0238889)
(0.19001 -0.0851621 0.156088)
(0.100282 0.012657 0.0647505)
(0.102545 -0.0308474 0.108783)
(0.07165 0.0358576 0.0724653)
(0.184947 -0.0747892 0.216515)
(0.113199 0.0342898 0.136175)
(0.0440612 0.0479583 0.0336312)