/*--------------------------------*- C++ -*----------------------------------*\
| =========                 |                                                 |
| \\      /  F ield         | OpenFOAM: The Open Source CFD Toolbox           |
|  \\    /   O peration     | Version:  5.x                                   |
|   \\  /    A nd           | Web:      www.OpenFOAM.org                      |
|    \\/     M anipulation  |                                                 |
\*---------------------------------------------------------------------------*/
FoamFile
{
    version     2.0;
    format      ascii;
    class       surfaceScalarField;
    location    "4.75";
    object      phi;
}
// * * * * * * * * * * * * * * * * * * * * * * * * * * * * * * * * * * * * * //

dimensions      [0 3 -1 0 0 0 0];

internalField   nonuniform List<scalar> 
29271
(
-5.3749e-06
4.48673e-07
3.22002e-06
1.77734e-06
-9.98212e-06
4.23581e-06
-3.19684e-06
8.97087e-06
-3.42472e-05
-5.22997e-06
-2.47256e-06
-2.8403e-06
1.98952e-06
4.28005e-05
-4.32802e-05
-1.91098e-05
1.46154e-05
-2.33445e-05
8.91082e-06
6.22083e-05
-1.74769e-05
-1.38442e-06
-1.89539e-06
2.48923e-06
9.14643e-06
9.12103e-06
-2.61656e-05
1.00724e-06
7.66369e-07
2.92687e-06
7.96159e-06
1.35036e-05
-3.5278e-05
2.59573e-06
-9.27136e-07
-6.74883e-06
3.25917e-07
4.00323e-05
-3.18581e-05
3.05557e-06
1.84107e-05
-3.11235e-05
-1.99001e-06
4.35054e-05
-3.64176e-05
-5.49823e-06
3.12527e-05
-1.8797e-05
7.05911e-06
2.24011e-05
-2.76745e-05
2.96476e-06
-1.16599e-05
2.43256e-05
1.20615e-05
-9.35758e-06
-7.64894e-06
3.22142e-06
1.37851e-05
-3.47918e-05
5.4554e-06
-1.23938e-05
-6.44949e-06
6.89481e-06
4.12849e-05
-3.36e-05
-3.76959e-06
5.70047e-06
-1.49752e-05
5.66164e-06
4.09827e-05
-2.87317e-05
-8.13931e-06
2.52153e-05
-2.65163e-05
1.00087e-05
2.81633e-05
-2.39457e-05
2.09618e-06
1.91299e-05
-1.18083e-05
-1.24239e-07
1.46523e-05
-3.67333e-05
1.2487e-05
1.00647e-05
-1.3186e-05
2.23835e-05
4.98412e-06
-3.15646e-05
2.85447e-06
-5.68202e-06
-6.94657e-06
4.23318e-05
-9.93114e-07
-3.6232e-05
9.78181e-06
-2.84045e-06
-1.19728e-05
-4.67981e-06
4.59433e-05
-4.00448e-05
-2.55509e-06
1.8613e-05
-1.75729e-05
-6.1332e-06
4.76931e-05
-2.03556e-05
-7.75288e-06
1.77377e-06
1.54779e-05
-3.07519e-06
1.3932e-05
-6.14914e-06
2.11759e-06
1.32011e-06
2.90836e-06
-2.1721e-05
1.20006e-05
-1.56756e-05
1.21598e-05
1.32357e-05
-3.35715e-05
6.83665e-06
-4.12491e-06
-1.74252e-06
2.40138e-05
8.5885e-06
-1.05698e-05
-1.31667e-06
6.63425e-06
5.26304e-06
-5.61222e-07
-9.28679e-07
1.083e-06
3.97294e-07
-6.77924e-06
-2.15024e-06
1.7765e-06
7.18829e-06
-3.72231e-06
-1.42334e-08
-4.95278e-05
1.47459e-06
4.83468e-06
4.6955e-05
-7.32318e-06
-6.04236e-05
3.16127e-06
-5.85482e-06
2.10721e-05
4.93683e-05
-6.1642e-06
-5.56796e-07
-3.12858e-06
1.56084e-06
2.80615e-06
5.48259e-06
-6.03257e-07
1.04732e-06
-5.55979e-06
-1.43651e-06
4.30733e-07
6.12151e-06
-2.73838e-05
-1.01535e-05
0.000171564
-4.11227e-05
-4.26941e-05
-4.02039e-05
-3.81209e-05
6.19572e-06
2.20252e-06
6.50056e-06
9.40503e-06
6.08287e-07
5.09431e-08
2.49417e-06
6.57645e-07
-5.6016e-05
-2.37361e-05
0.000187608
-4.40636e-05
-2.37389e-05
-3.89711e-05
-3.01063e-05
-4.67103e-06
1.1224e-06
-1.27493e-07
5.31647e-06
-7.98726e-06
7.44322e-06
5.63711e-05
1.44857e-07
-9.41193e-07
3.21222e-06
-2.10907e-07
-5.68634e-06
-3.63565e-06
-2.90262e-06
-1.53707e-05
-3.1854e-05
-2.67221e-05
-2.78767e-05
-1.74164e-05
5.68606e-07
-1.35724e-06
1.04322e-05
-2.33902e-05
-5.42439e-06
3.76943e-07
2.84376e-05
1.19372e-05
-4.53589e-05
-4.91161e-06
-1.18366e-05
4.84394e-06
4.5326e-05
-2.85532e-05
-2.98534e-05
0.0002175
-5.07383e-05
-4.64465e-05
-5.54847e-05
-6.11909e-05
7.11868e-06
1.36392e-05
5.44946e-06
1.84061e-05
-3.6052e-05
-6.65773e-05
0.000138684
-2.60188e-05
-1.24284e-05
-3.70993e-05
-1.27973e-05
-6.26458e-06
5.61762e-07
3.25929e-05
-5.03984e-06
-3.77167e-06
-3.51012e-06
6.86129e-07
7.78109e-07
2.10657e-07
-1.257e-05
-1.45081e-05
-8.56177e-06
-9.2123e-06
-1.21585e-05
-3.18032e-07
-2.62959e-06
2.46169e-06
6.37986e-06
-5.7517e-05
1.23992e-05
-1.83452e-05
-1.39648e-05
7.33165e-05
4.11135e-06
-6.62893e-05
-1.70115e-06
0.000144317
2.4338e-05
2.07782e-05
2.91419e-05
1.57208e-05
-2.55253e-06
-1.36857e-06
-2.14819e-06
-5.05525e-05
-5.31282e-05
-4.21293e-05
-4.42797e-05
-1.14574e-05
-3.98156e-06
6.2603e-05
-2.89671e-06
-3.05945e-06
-1.90366e-06
-4.9005e-06
-3.2071e-06
-3.31897e-06
-4.65167e-05
-3.56553e-05
-4.03696e-05
-3.82026e-05
-1.08496e-05
-5.8256e-06
2.97826e-08
5.74981e-06
-1.77091e-06
-1.34914e-06
2.201e-06
9.63293e-07
-3.34828e-06
8.03137e-07
-8.88815e-07
1.72467e-06
-1.58277e-05
1.49745e-06
-1.84198e-06
1.80344e-06
1.03872e-05
-5.59909e-07
5.01526e-07
1.90456e-07
-1.16863e-07
-4.2283e-07
3.81281e-07
-6.47755e-07
6.92918e-07
-1.27881e-05
-7.55431e-06
-1.35366e-06
2.1671e-05
2.72994e-06
8.36385e-06
-3.88295e-05
-3.37439e-06
-3.22485e-07
3.14326e-05
1.82e-06
-4.20106e-05
-9.87262e-07
1.98707e-06
8.32612e-06
3.08647e-05
-2.03669e-06
2.93773e-07
-8.02668e-07
7.10139e-07
1.73189e-06
1.03551e-07
2.41846e-06
5.16392e-07
-1.09683e-05
-5.50877e-06
-3.87266e-06
1.74148e-05
-1.98598e-05
-1.37909e-05
0.000168435
8.16723e-07
-1.55899e-06
5.98274e-06
4.62755e-06
5.35512e-06
2.46338e-06
1.32523e-05
5.84117e-06
-1.91153e-05
-1.32717e-05
0.000210372
-6.80015e-06
-1.29171e-06
-3.95782e-06
1.8125e-06
-2.37097e-06
-2.6198e-06
4.14992e-05
1.4041e-06
5.81112e-07
3.6638e-06
5.27598e-07
-2.00237e-06
-1.81243e-06
-1.61442e-06
-6.96815e-06
4.06539e-07
-3.92269e-07
4.5943e-06
-3.18248e-05
1.4009e-05
-1.38242e-05
3.16401e-05
1.05213e-05
-4.21876e-05
1.10309e-05
-2.1562e-06
-8.82328e-06
3.16149e-05
-2.25751e-07
-9.91532e-06
0.000204887
-7.53819e-07
7.59384e-06
5.25543e-07
1.59768e-06
-1.01792e-05
-1.83399e-05
0.000153706
-1.43176e-06
-9.77454e-07
2.62621e-05
-1.32057e-06
-1.14646e-06
-9.28484e-07
-2.14729e-07
-3.2032e-07
-1.28398e-07
-3.7012e-06
-1.53813e-07
-1.33914e-06
8.81269e-07
2.88113e-06
-9.0801e-05
1.63612e-05
-2.40294e-05
-1.32487e-05
0.000106617
5.10089e-06
-5.4608e-06
-1.48247e-08
0.000103237
1.81044e-05
2.43572e-06
1.55791e-05
8.22397e-07
-4.82725e-07
1.12721e-07
6.90868e-08
5.32758e-07
3.42296e-07
3.5033e-05
4.68956e-07
5.51959e-07
4.22689e-07
2.74026e-07
6.00114e-07
5.7644e-07
-3.24611e-06
3.06304e-07
1.18942e-07
2.37616e-06
-7.51803e-07
-4.3489e-07
3.66693e-07
8.34904e-07
-1.39362e-06
4.18753e-07
-1.60962e-06
2.59586e-06
-5.55861e-06
7.93406e-07
-9.10279e-08
4.90554e-07
4.70798e-06
4.1206e-08
-1.43977e-07
-2.13176e-08
1.16563e-07
-1.31176e-06
6.07498e-07
-1.66275e-06
2.36344e-06
-2.78155e-05
5.01887e-06
-9.93512e-06
3.27316e-05
4.64892e-06
2.95106e-06
-3.70467e-05
-7.74209e-06
-1.2709e-05
4.98978e-05
3.78505e-06
-2.29982e-05
5.50523e-06
-2.71888e-06
-1.08406e-05
2.72674e-05
-2.29955e-06
1.11547e-06
-7.04509e-07
-1.50943e-06
2.5374e-06
8.60617e-07
6.09318e-06
-1.74328e-06
-2.98675e-05
-7.95801e-06
-9.96387e-06
4.34395e-05
-5.26111e-05
-8.20882e-06
0.000146028
6.68764e-06
2.76726e-06
1.04768e-05
6.22944e-06
1.8794e-05
1.08631e-05
1.73919e-05
1.0017e-05
-1.90574e-05
2.22583e-06
0.000156968
2.05432e-06
2.56037e-06
8.60811e-06
4.40153e-06
-3.86729e-07
-1.43283e-06
2.19537e-05
8.18715e-07
4.37825e-07
1.02733e-06
5.18661e-07
-2.46882e-07
-1.67225e-07
-8.08616e-08
-2.62929e-06
3.68765e-07
-2.27474e-07
2.05611e-06
-2.45109e-05
1.10901e-05
-6.85408e-06
2.0312e-05
-5.28308e-06
-3.16514e-05
1.19105e-05
1.47315e-06
-1.50642e-05
3.8615e-05
-2.67343e-05
-4.79198e-06
0.000213702
3.01161e-06
-5.38324e-07
9.37873e-06
2.65053e-06
-1.20447e-05
-3.34028e-07
0.000141576
-2.18334e-07
-3.07e-08
1.31432e-05
-2.73168e-07
-1.35805e-07
-1.85516e-07
7.50098e-08
2.31965e-07
1.77885e-07
-2.08797e-06
-1.35778e-08
-3.24225e-07
3.61692e-07
1.84575e-06
-0.000115147
2.06217e-05
-1.20835e-05
-1.7679e-06
0.000101551
6.82554e-06
-2.68775e-06
5.78346e-07
0.000100479
-1.71189e-06
-1.53905e-06
-7.50528e-07
-2.3272e-07
6.0395e-07
2.04109e-06
1.66464e-06
-5.96378e-07
6.60102e-07
3.08815e-05
-4.63082e-07
-4.9915e-07
-4.63646e-07
4.59687e-07
1.24549e-06
7.86791e-07
-2.21936e-06
-3.0006e-07
2.81344e-07
1.611e-06
-8.76384e-07
-2.29861e-07
5.19611e-07
6.52057e-07
-3.82365e-06
1.35189e-07
-1.37449e-06
5.58904e-06
-4.56497e-06
1.02296e-06
-9.89781e-07
8.73522e-07
4.31837e-06
-2.4944e-07
-3.95729e-07
4.23832e-07
2.57219e-07
-3.5505e-06
-7.74252e-07
-2.94001e-06
7.26476e-06
-3.73334e-05
6.66755e-06
-9.69157e-06
4.0357e-05
6.28618e-06
2.45346e-06
-5.82289e-05
-6.46442e-06
-7.13562e-06
6.30893e-05
1.65637e-05
-4.19206e-05
7.16696e-06
-4.76724e-06
-1.89079e-05
4.1865e-05
-2.14002e-06
2.01703e-06
-1.27018e-06
-1.81565e-06
6.92773e-07
2.51604e-06
2.64127e-06
2.5314e-06
-5.23558e-05
-9.84275e-06
4.53338e-08
5.69806e-05
-4.3637e-05
2.23313e-06
0.000127721
7.06731e-06
4.85862e-06
3.54095e-06
4.91225e-06
1.26238e-05
7.66136e-06
1.1361e-05
7.68488e-06
-4.82913e-06
5.90783e-06
8.18726e-05
5.47162e-06
2.96909e-06
1.64164e-05
5.52304e-06
5.64828e-08
2.47541e-07
1.34791e-05
5.99479e-07
6.21901e-07
8.54256e-07
6.90696e-07
1.73712e-07
1.96107e-07
2.0537e-07
-1.6461e-06
3.3249e-07
-9.18589e-08
1.44441e-06
-2.30384e-05
6.06162e-06
-7.26306e-06
2.42423e-05
5.69886e-06
-4.36208e-05
4.8828e-06
-5.51193e-06
-5.86585e-06
4.4417e-05
-4.84386e-05
6.24401e-06
0.000214997
1.09992e-05
9.94594e-06
1.09845e-05
1.12028e-05
-6.03475e-06
1.50282e-05
9.00516e-05
-1.88352e-07
3.42134e-07
6.5354e-06
-2.99666e-07
-1.55712e-07
-1.95572e-07
1.85059e-07
8.86781e-07
2.45909e-07
-1.6293e-06
-1.53351e-08
3.98154e-07
9.36206e-08
9.64504e-07
-8.42993e-05
-2.8681e-06
5.10867e-06
3.69549e-06
7.40411e-05
4.32218e-06
-7.70245e-06
2.20666e-06
0.000111066
-1.38107e-06
1.23301e-06
2.83965e-06
2.45718e-06
1.92779e-06
-2.45898e-06
-3.46501e-06
-7.2511e-07
2.59604e-06
2.59485e-05
-5.02896e-07
-5.26223e-07
-7.25934e-07
1.48436e-06
4.95495e-06
5.7035e-06
-1.43057e-06
-5.60488e-07
4.57691e-07
1.15039e-06
-3.55758e-07
-1.34261e-07
4.56073e-07
6.19291e-08
-7.88881e-06
1.92097e-06
-2.55324e-06
1.062e-05
-4.28925e-06
1.3752e-06
-1.50609e-06
2.67889e-06
4.33729e-06
-1.37574e-07
-4.43164e-07
7.28271e-07
-1.33997e-07
-1.07263e-05
-3.46515e-07
-1.29222e-06
1.23648e-05
-4.20725e-05
7.30393e-06
-8.15925e-06
4.29284e-05
4.73217e-06
8.15209e-07
-6.61616e-05
-5.37686e-06
-3.15232e-06
6.91434e-05
7.87266e-06
-4.18734e-05
4.27531e-06
-1.98452e-07
-1.14763e-05
4.14002e-05
-1.03927e-06
-8.27532e-07
-8.50056e-07
-8.80592e-07
3.70559e-06
-1.0814e-07
7.16774e-07
1.5067e-06
-5.92546e-05
-6.36386e-06
2.82281e-06
6.05722e-05
-2.41058e-05
9.37735e-06
0.000115964
7.10685e-07
5.9734e-08
-4.18613e-07
4.39675e-07
8.95721e-06
4.94169e-06
7.3026e-06
4.49263e-06
-1.9804e-07
1.99549e-06
3.34512e-05
9.47687e-06
2.06985e-06
8.28131e-06
2.69005e-06
8.98407e-08
7.27096e-07
9.90214e-06
5.02068e-07
4.73242e-07
5.66709e-07
6.70533e-07
2.44882e-09
2.10915e-07
1.36044e-07
-1.25851e-06
2.79357e-07
7.45861e-07
-3.89241e-07
7.12375e-07
-1.72046e-07
8.33044e-09
-1.26564e-08
1.75899e-07
-2.43023e-05
4.22055e-06
-4.14536e-06
2.42273e-05
2.73601e-06
-4.5513e-05
-1.18772e-06
-6.03049e-06
2.96434e-06
4.70309e-05
-3.14499e-05
1.62333e-06
0.000215029
8.60131e-06
9.98377e-06
9.51681e-06
1.10697e-05
-9.13854e-07
7.64873e-06
5.38623e-05
-1.78491e-07
8.00008e-07
4.02266e-06
-1.09898e-07
2.65031e-09
-5.87149e-08
3.17239e-07
1.24487e-06
3.08326e-07
-1.94685e-07
-1.18587e-08
-3.88457e-08
2.26783e-07
-1.59884e-07
1.18931e-09
-3.93197e-07
2.89851e-08
2.62375e-08
3.38168e-07
-7.81477e-05
4.31367e-06
-4.41451e-06
1.44802e-06
8.16774e-05
-4.87687e-06
-6.32094e-06
-3.53477e-06
0.00012429
2.07621e-06
1.45071e-06
2.67662e-06
-7.9764e-07
-3.0133e-06
-2.80738e-06
-1.32988e-06
-2.77622e-07
2.47666e-06
2.47899e-05
-1.28123e-06
-7.79508e-07
-2.57219e-06
1.54226e-06
1.49883e-06
1.87923e-06
-1.2267e-06
-1.53599e-07
5.60544e-07
1.34214e-06
2.04725e-07
-1.96997e-07
3.45356e-07
-3.35365e-07
-1.09476e-05
1.8464e-06
-5.4319e-06
1.09983e-05
-6.42163e-06
4.1531e-06
-4.1938e-06
2.71345e-06
6.22553e-06
1.6445e-07
-3.84522e-07
9.67143e-07
-7.48177e-07
-1.27463e-05
-1.05395e-06
7.59987e-07
1.30315e-05
-4.33545e-05
6.8532e-06
-7.12957e-06
4.36281e-05
3.02703e-06
1.84085e-08
-7.14385e-05
-3.80761e-06
-6.03068e-07
7.28038e-05
3.59744e-06
-4.14998e-05
2.06097e-06
1.34818e-06
-6.69215e-06
4.11853e-05
-6.16603e-06
-1.47507e-06
-2.69828e-07
2.98329e-07
8.10767e-06
-4.95079e-07
-8.26481e-09
3.06904e-07
-6.11265e-05
-3.71334e-06
3.4214e-06
6.11198e-05
-9.32443e-06
1.08262e-05
0.000106346
-9.52487e-07
-6.3887e-07
-1.35022e-06
6.27979e-07
4.42013e-06
1.05186e-06
3.80813e-06
1.14983e-06
5.3522e-07
-1.54294e-06
1.94074e-05
4.61727e-06
-1.03648e-07
2.00047e-06
-7.86968e-07
9.17646e-07
7.90098e-07
8.0514e-06
3.21902e-07
5.23489e-07
4.54814e-07
5.33767e-07
8.42046e-07
-8.08394e-07
-1.18941e-06
-3.15132e-07
2.13722e-08
1.43357e-06
5.97548e-08
-2.81922e-07
-5.47282e-07
-8.06584e-07
-1.21221e-06
-4.41809e-07
1.7504e-06
1.25749e-06
-2.4455e-05
3.83524e-06
-4.45617e-06
2.50759e-05
2.60819e-06
-4.87196e-05
-2.28149e-06
-4.57371e-06
3.66395e-06
4.93027e-05
-1.99002e-05
2.86376e-06
0.000208532
6.96936e-06
8.46417e-06
8.6689e-06
1.02579e-05
-1.13575e-05
-1.05202e-05
5.4297e-05
-1.11213e-06
2.11554e-07
1.14941e-06
-1.94658e-06
-3.27198e-06
-3.21666e-06
-3.03084e-07
1.07799e-06
8.66734e-07
5.30493e-07
-2.70388e-07
5.57807e-07
-4.9909e-07
-1.43096e-06
-4.9783e-07
-2.01251e-06
-4.99957e-07
-6.57161e-07
1.3312e-06
2.33626e-06
-8.07387e-05
8.604e-07
1.92031e-07
7.35003e-06
7.76795e-05
-5.34327e-06
-5.41932e-06
-1.23987e-06
0.000133015
1.18691e-06
-1.73786e-06
3.32504e-06
-1.95843e-06
-1.4564e-07
-3.31428e-07
4.58499e-07
-3.75677e-06
4.24768e-07
1.85963e-05
-2.81843e-06
-3.83175e-06
-2.63398e-06
1.44991e-06
4.94766e-07
9.25514e-07
-1.23669e-07
-3.27015e-06
1.59303e-06
-1.74443e-06
1.06911e-07
1.82243e-06
9.54749e-07
-2.98806e-07
-2.58529e-06
-1.16732e-06
1.83559e-07
-3.7595e-07
1.35971e-06
-1.28029e-05
1.05918e-07
-5.17749e-06
1.66346e-05
-6.31498e-06
5.32147e-06
-6.95527e-06
3.15952e-06
5.21403e-06
9.86355e-07
-3.77551e-06
4.28009e-06
-1.49093e-06
-1.32836e-05
-2.26343e-06
2.42317e-06
1.31239e-05
-4.39085e-05
6.56843e-06
-6.66269e-06
4.40028e-05
2.44777e-06
-1.35406e-06
-7.32266e-05
-1.45217e-06
4.27537e-07
7.31576e-05
-3.05057e-07
-4.06954e-05
2.0393e-07
1.37984e-06
-1.64486e-06
4.10615e-05
-1.15141e-05
-2.36084e-06
-2.90353e-06
1.01446e-07
1.65577e-05
1.19299e-07
-6.6747e-08
-5.06121e-07
-6.07194e-05
-2.14937e-06
3.34478e-06
6.00968e-05
-7.51404e-06
6.15297e-06
0.000106095
-8.59797e-07
3.25253e-07
-9.8727e-07
4.5145e-07
2.29062e-06
-9.39128e-07
1.87272e-06
-5.41287e-07
-7.90366e-06
-3.11003e-06
2.19999e-05
1.40611e-06
-3.33416e-07
7.94147e-07
-9.59653e-07
-3.01357e-06
2.62103e-06
4.15122e-06
1.14516e-06
1.19381e-06
7.35964e-07
1.51148e-06
-2.96225e-06
-2.33655e-06
-2.89855e-06
8.29516e-07
-6.36142e-08
-2.52315e-06
1.77264e-06
-3.02896e-06
-1.10912e-08
5.50045e-07
1.87518e-06
-8.65593e-07
1.57905e-07
-1.70645e-06
-2.52617e-05
2.80887e-06
-2.68895e-06
2.5139e-05
1.81909e-06
-5.0196e-05
-2.38769e-06
-3.70206e-06
4.07337e-06
5.03932e-05
-1.69948e-05
5.23285e-06
0.000194424
6.67914e-06
8.08456e-06
7.73652e-06
9.52226e-06
-5.2714e-06
-6.97055e-07
4.01606e-05
-2.35745e-06
3.09091e-06
-3.48637e-06
-1.70773e-06
-2.23703e-06
-1.97116e-06
2.22005e-06
3.01664e-06
1.93117e-06
1.70381e-06
-2.75725e-06
-1.91533e-06
2.34054e-06
-1.72922e-06
-3.57415e-06
-4.08556e-07
1.56337e-06
-3.38086e-07
-5.87309e-07
3.34473e-06
-7.68434e-05
-8.26627e-08
-1.04864e-06
7.92557e-06
7.68187e-05
-6.76952e-06
-7.33311e-06
6.86744e-07
0.00014007
2.47682e-06
-2.45147e-06
3.93146e-06
-2.71285e-06
1.06407e-06
1.18112e-06
1.33559e-06
-3.81552e-06
2.01194e-06
1.69088e-05
-3.17705e-06
-3.84129e-06
-2.16842e-06
1.59326e-06
1.84644e-06
1.20792e-06
3.08176e-06
-3.14533e-06
3.0763e-06
-3.73733e-06
4.80838e-06
-1.67277e-06
2.8414e-06
-8.33228e-07
-5.14378e-06
-2.02338e-06
7.51237e-07
6.35646e-08
1.59058e-07
1.04952e-06
-2.10408e-05
-4.05385e-06
4.89472e-07
2.52919e-05
-4.18673e-06
1.67141e-06
-1.62046e-06
1.04011e-06
5.1076e-06
1.67716e-06
-1.73641e-06
8.67484e-07
-8.08239e-07
-1.2594e-05
-3.30588e-06
4.24744e-06
1.16524e-05
-4.36118e-05
6.66151e-06
-6.01366e-06
4.29639e-05
1.80696e-06
-2.91564e-06
-7.26168e-05
1.22838e-06
1.15657e-06
7.13405e-05
-4.61912e-06
-4.16608e-05
-2.27552e-06
3.91637e-06
4.28756e-06
4.03515e-05
-2.20225e-05
-6.449e-06
3.26493e-06
4.17008e-06
2.48776e-05
-3.8411e-06
2.43923e-08
-1.01708e-06
-5.96964e-05
-9.4336e-07
2.22491e-06
5.94076e-05
2.33109e-06
2.96198e-06
0.00011206
-9.1964e-07
-1.31562e-06
-1.1782e-06
-1.88143e-06
2.63078e-07
-3.08549e-06
-5.54645e-07
-2.58651e-06
-7.55079e-06
8.16724e-06
3.85485e-05
-2.33566e-06
-3.47538e-06
-3.716e-06
-5.30694e-06
-1.70829e-06
6.05528e-06
3.28147e-06
-1.20674e-06
-2.21946e-07
-4.23174e-06
-2.59249e-06
-2.26841e-06
3.62806e-07
-8.69525e-07
7.22503e-06
-1.1368e-06
-7.75267e-07
1.19162e-06
-8.21288e-06
2.50081e-06
-2.90512e-07
5.82602e-07
-1.68122e-06
-1.11167e-06
-2.45899e-05
2.02098e-06
-1.41273e-06
2.39836e-05
1.67704e-06
-5.01872e-05
-1.34034e-06
-3.28397e-06
3.68344e-06
4.94511e-05
-1.50051e-05
6.59408e-06
0.000174981
6.19925e-06
7.68124e-06
7.74752e-06
9.18796e-06
-7.91326e-06
7.77878e-06
3.34572e-05
-2.588e-06
2.9819e-06
-5.0048e-06
-2.55968e-06
-1.52633e-06
-1.62066e-06
1.23949e-06
2.81928e-06
9.14448e-07
2.71884e-06
-2.29903e-06
-9.32835e-07
2.20671e-06
-4.28168e-06
-1.91647e-06
1.19939e-06
-4.80957e-07
1.56077e-06
4.9758e-08
-4.12495e-07
-7.73274e-05
-1.5406e-06
-1.06692e-06
8.45412e-06
7.78517e-05
-6.37095e-06
-5.69523e-06
2.19956e-06
0.00014353
2.47569e-06
-3.14673e-06
3.4248e-06
-3.41581e-06
2.3586e-06
2.48034e-06
2.45246e-06
-3.6218e-06
2.56686e-06
1.83995e-05
-1.08667e-06
-3.5949e-06
4.82533e-08
2.29876e-06
2.2452e-06
1.73718e-06
3.97526e-06
-2.668e-06
1.97749e-06
-3.92465e-06
4.21114e-06
-1.00035e-06
1.96832e-06
-5.17911e-06
-2.90955e-05
-7.49337e-06
6.08777e-06
3.27007e-05
-6.97533e-06
-1.44321e-06
9.83034e-07
5.6416e-08
9.94596e-06
1.9151e-07
8.31832e-07
-1.6333e-06
6.09962e-07
-1.00717e-05
-3.33447e-06
4.92757e-06
8.47864e-06
-4.21303e-05
6.35861e-06
-5.37679e-06
4.11485e-05
6.43699e-07
-3.58602e-06
-6.92756e-05
2.8971e-06
2.4465e-06
6.68743e-05
-6.96711e-06
-3.8188e-05
-3.8702e-06
5.66195e-06
7.90038e-06
3.54629e-05
-2.38344e-05
-9.52783e-06
9.12141e-06
9.54091e-06
2.113e-05
-6.43003e-06
3.84741e-08
-1.29066e-06
-5.86286e-05
2.10732e-07
1.54824e-06
5.81218e-05
1.10234e-05
5.52045e-06
0.000118173
-2.0094e-06
-4.19378e-06
-2.35e-06
-3.81546e-06
-1.51067e-06
-3.93245e-06
-1.96059e-06
-2.8842e-06
6.16921e-06
2.66221e-05
4.91499e-05
-6.86872e-06
-8.59811e-06
-7.46939e-06
-9.43312e-06
2.63689e-06
1.47328e-05
1.46728e-05
-7.54474e-06
-4.98711e-06
-8.45013e-06
-6.08188e-06
1.3922e-06
2.34171e-06
7.3816e-07
9.09608e-06
-5.51009e-06
5.59057e-06
-6.53968e-06
-2.37273e-05
1.63314e-06
-1.40708e-06
2.35013e-05
1.80493e-06
-4.9153e-05
-6.46663e-07
-3.59451e-06
2.6999e-06
4.88894e-05
-1.3049e-05
6.33318e-06
0.000158735
5.87652e-06
7.04122e-06
7.26836e-06
8.29614e-06
-8.11179e-06
1.72562e-05
3.78859e-05
-3.97505e-07
3.71147e-06
-3.85419e-06
-7.17086e-07
-1.28665e-06
-9.51425e-07
1.31291e-06
3.21418e-06
5.84475e-07
7.79414e-06
-2.98593e-06
1.2561e-06
7.6277e-07
-7.22459e-06
-7.82561e-05
-1.93714e-06
-6.6969e-07
8.31431e-06
7.82522e-05
-5.70363e-06
-4.87624e-06
3.17727e-06
0.00014422
2.21677e-06
-3.36973e-06
3.0696e-06
-3.4634e-06
2.93499e-06
3.21546e-06
2.73879e-06
-2.99557e-06
2.46002e-06
2.57071e-05
9.9073e-07
-3.06557e-06
1.52386e-06
2.44056e-06
1.93948e-06
1.77881e-06
4.08252e-06
-1.38914e-06
1.71358e-06
-3.69107e-06
5.13142e-06
-3.00516e-07
-6.31741e-07
-4.19917e-06
-3.58034e-05
-8.74667e-06
9.21113e-06
3.85162e-05
-1.29117e-05
-3.9198e-06
2.92098e-06
-4.69461e-07
1.684e-05
-1.41268e-06
1.84824e-06
-3.09476e-06
2.6592e-06
-7.9311e-06
-2.96452e-06
3.02025e-06
7.87536e-06
-4.0047e-05
5.89481e-06
-4.8086e-06
3.89608e-05
2.29556e-07
-4.4987e-06
-6.37826e-05
4.4796e-06
3.24436e-06
6.03278e-05
-7.24971e-06
-3.15421e-05
-4.84485e-06
6.44272e-06
9.90866e-06
2.72853e-05
-1.83596e-05
-7.97172e-06
9.63643e-06
9.83491e-06
1.44409e-05
-7.58097e-06
3.76437e-07
-1.66607e-06
-5.77553e-05
8.11955e-07
6.38046e-07
5.7595e-05
9.47919e-06
1.47429e-05
0.000124871
-3.60701e-06
-6.47861e-06
-4.19274e-06
-6.93894e-06
-1.97558e-06
-3.50673e-06
-2.02391e-06
-2.19651e-06
1.04517e-05
3.5766e-05
5.48869e-05
-1.02758e-05
-1.1199e-05
-1.04612e-05
-1.05395e-05
2.85865e-06
2.388e-05
2.67567e-05
-9.85096e-06
-7.32466e-06
-9.03175e-06
-7.18293e-06
1.89949e-06
2.16822e-06
9.51805e-07
4.30043e-06
-6.35131e-06
6.89409e-06
-1.98457e-06
-2.32664e-05
1.38849e-06
-1.16384e-06
2.30418e-05
1.93333e-06
-4.88998e-05
-2.74199e-07
-3.9715e-06
2.2793e-06
4.89328e-05
-9.73174e-06
1.08928e-05
0.000148303
5.02809e-06
5.74485e-06
6.23526e-06
7.00589e-06
-7.83527e-06
2.29466e-05
4.88089e-05
-1.04937e-06
3.99689e-06
7.3887e-06
-5.02469e-07
-1.54897e-06
-6.33847e-07
9.61553e-07
3.13649e-06
4.41549e-07
5.96127e-06
-3.3602e-06
-1.21524e-07
6.69741e-07
-4.19866e-06
-7.81131e-05
-1.98327e-06
-2.90239e-07
7.71439e-06
7.77071e-05
-5.03488e-06
-3.66207e-06
3.54729e-06
0.000148451
1.85768e-06
-3.3741e-06
2.89028e-06
-3.24765e-06
2.73218e-06
3.37519e-06
2.54336e-06
-2.51601e-06
1.89144e-06
3.78585e-05
2.27473e-06
-2.47058e-06
2.4343e-06
2.25304e-06
1.54108e-06
1.72513e-06
3.34658e-06
-8.73952e-07
1.17043e-06
-2.16217e-06
3.72463e-06
6.89875e-07
-1.27585e-06
-3.13866e-06
-4.07381e-05
-8.37757e-06
9.7579e-06
4.2905e-05
-2.06285e-05
-5.18182e-06
4.40463e-06
-1.29914e-06
2.45963e-05
-3.70593e-06
2.61873e-06
-4.04094e-06
5.12814e-06
-6.9927e-06
3.73344e-07
1.87117e-06
4.74818e-06
-3.80935e-05
4.73739e-06
-4.10017e-06
3.74563e-05
-1.6437e-06
-4.46987e-06
-5.74654e-05
3.93131e-06
4.17402e-06
5.54736e-05
-4.21596e-06
-2.34878e-05
-1.79735e-06
1.4565e-06
7.62636e-06
2.04183e-05
-9.35952e-06
-4.08399e-06
5.5464e-06
6.2058e-06
4.80839e-06
-3.11708e-06
8.99752e-07
-1.65301e-06
-5.73768e-05
9.99481e-07
2.08327e-07
5.69223e-05
3.52006e-06
2.08335e-05
0.000132289
-5.11489e-06
-8.32488e-06
-5.37353e-06
-6.88936e-06
-1.71673e-06
-2.3368e-06
-1.28772e-06
-7.28028e-07
5.08484e-06
3.36165e-05
5.41891e-05
-9.92479e-06
-9.39937e-06
-7.57518e-06
-7.58426e-06
1.92157e-06
2.54554e-05
2.88865e-05
-7.98299e-06
-6.58159e-06
-6.77163e-06
-5.91718e-06
1.23343e-06
1.05343e-06
5.44601e-07
-8.04544e-08
-5.59638e-06
6.12419e-06
1.47422e-06
-2.28232e-05
1.23572e-06
-1.11285e-06
2.27004e-05
2.12438e-06
-4.91839e-05
-1.55414e-07
-3.94239e-06
1.97022e-06
4.91871e-05
-8.96141e-06
1.48327e-05
0.000143577
4.17222e-06
4.66846e-06
5.13818e-06
5.70958e-06
-8.05862e-06
2.23024e-05
5.92202e-05
-9.79798e-07
3.82867e-06
1.90023e-05
-8.95036e-08
-1.22049e-06
-2.68286e-07
8.19781e-07
3.3929e-06
2.99895e-07
2.9116e-06
-2.86772e-06
-1.96778e-07
2.5965e-07
-1.08655e-06
-7.74073e-05
-2.21766e-06
-6.86736e-08
7.19534e-06
7.70796e-05
-4.58132e-06
-3.17255e-06
3.60563e-06
0.000157015
1.41142e-06
-3.34547e-06
2.41283e-06
-3.33663e-06
2.62573e-06
3.43485e-06
2.63252e-06
-2.01514e-06
1.45791e-06
4.92428e-05
2.63429e-06
-1.97016e-06
2.66407e-06
2.0112e-06
1.31682e-06
1.64653e-06
8.94316e-07
-3.56949e-07
5.82487e-07
6.93679e-07
2.68232e-06
1.06966e-06
-1.81697e-06
-1.93501e-06
-4.49172e-05
-7.53134e-06
9.07497e-06
4.69792e-05
-2.80648e-05
-5.17394e-06
4.97211e-06
-1.72175e-06
3.14463e-05
-6.24251e-06
3.10473e-06
-4.41533e-06
7.55311e-06
-2.74129e-06
-8.03363e-07
1.95621e-06
1.58845e-06
-3.67804e-05
4.90749e-06
-4.19214e-06
3.6065e-05
-1.14409e-06
-4.67173e-06
-5.40278e-05
3.09667e-06
3.84651e-06
5.29005e-05
-2.05689e-06
-1.86672e-05
-4.90477e-07
2.97468e-07
3.21474e-06
1.77023e-05
-1.56182e-06
-4.25379e-06
3.13897e-06
4.28972e-06
-1.01438e-07
-1.51164e-06
1.62991e-06
-1.43077e-06
-5.65513e-05
5.90942e-07
-4.59148e-07
5.62204e-05
-1.40072e-06
1.91102e-05
0.000135249
-5.27245e-06
-5.4541e-06
-4.5442e-06
-3.2502e-06
-7.56801e-07
-1.14745e-06
-4.3338e-07
1.88985e-07
-1.11242e-06
2.61793e-05
4.94545e-05
-5.32429e-06
-6.43626e-06
-3.92765e-06
-6.04486e-06
3.8385e-07
2.36284e-05
2.68204e-05
-6.03062e-06
-5.21766e-06
-5.95326e-06
-5.09334e-06
1.9423e-07
-6.61937e-07
-2.96016e-07
-2.7024e-06
-3.91818e-06
3.45745e-06
3.54699e-06
-2.26334e-05
1.02359e-06
-9.9505e-07
2.26049e-05
2.08602e-06
-4.92191e-05
-1.54234e-07
-3.42434e-06
1.72615e-06
4.89855e-05
-1.07045e-05
1.51599e-05
0.000141514
3.33448e-06
3.89961e-06
4.32545e-06
5.15844e-06
-9.09323e-06
1.86851e-05
6.51031e-05
-6.29558e-07
3.33253e-06
2.74548e-05
2.99311e-07
-7.63356e-07
1.57732e-07
5.85695e-07
2.95782e-06
1.42531e-07
-3.13493e-07
-1.32927e-06
1.62813e-07
-7.58565e-07
1.60896e-06
-7.70759e-05
-3.3907e-06
7.40971e-07
6.99123e-06
7.68952e-05
-4.16074e-06
-2.99139e-06
3.56409e-06
0.000167876
5.93244e-07
-3.67953e-06
1.68198e-06
-3.59711e-06
2.66492e-06
3.34345e-06
2.71956e-06
-1.66469e-06
1.07662e-06
5.77235e-05
2.61516e-06
-1.59303e-06
2.61812e-06
1.7043e-06
1.03524e-06
1.42141e-06
-2.4664e-06
1.27772e-07
-2.1072e-08
4.02754e-06
1.4837e-06
1.58041e-06
-2.28635e-06
-7.77756e-07
-4.88971e-05
-6.69971e-06
8.37878e-06
5.07822e-05
-3.45222e-05
-4.96368e-06
5.10222e-06
-1.9059e-06
3.73662e-05
-8.6152e-06
3.37046e-06
-4.45746e-06
9.7022e-06
-1.12762e-06
-3.4878e-06
3.46996e-06
1.14546e-06
-3.51402e-05
6.39922e-06
-4.84135e-06
3.35824e-05
1.66493e-06
-6.68146e-06
-5.19254e-05
5.69677e-06
9.1726e-07
5.03279e-05
-2.18064e-06
-1.71611e-05
-4.00571e-06
4.13344e-06
2.17846e-06
1.70356e-05
4.29575e-07
-4.05692e-06
2.56804e-06
4.37068e-06
5.91435e-08
-3.37052e-06
2.18154e-06
-1.87597e-06
-5.56793e-05
1.21584e-06
-1.00771e-06
5.51656e-05
3.7322e-07
1.47564e-05
0.000133926
-3.55138e-06
-2.55094e-06
-2.93073e-06
-1.83631e-06
-7.92784e-07
-1.06438e-06
-1.00137e-06
-7.82778e-08
-1.07077e-06
2.12135e-05
4.74018e-05
-3.30988e-06
-5.63395e-06
-3.08607e-06
-5.68686e-06
-5.17231e-07
2.13028e-05
2.69313e-05
-5.97558e-06
-4.38448e-06
-6.1522e-06
-4.04139e-06
-1.9221e-07
-8.39353e-07
-3.81953e-07
-3.8948e-06
-8.57655e-07
2.48835e-07
3.98639e-06
-2.25806e-05
6.82543e-07
-6.40729e-07
2.25388e-05
1.79886e-06
-4.8795e-05
-4.41089e-08
-2.74026e-06
1.41626e-06
4.83642e-05
-1.1952e-05
1.21914e-05
0.000141853
2.56425e-06
3.50651e-06
3.45287e-06
4.65402e-06
-9.27972e-06
1.54643e-05
6.81801e-05
-2.28185e-07
2.20336e-06
3.5256e-05
6.02119e-07
-3.43824e-07
4.39868e-07
8.18592e-08
1.70396e-06
-2.37357e-07
-2.34287e-06
2.15252e-07
6.11581e-07
-1.83803e-06
3.12589e-06
-7.67843e-05
-3.77702e-06
1.24513e-06
6.68902e-06
7.62857e-05
-3.65847e-06
-2.54822e-06
3.2172e-06
0.000177602
-8.8264e-08
-3.73161e-06
1.19124e-06
-3.43311e-06
2.42508e-06
3.01226e-06
2.4203e-06
-1.36505e-06
8.36497e-07
6.38794e-05
2.56258e-06
-1.20749e-06
2.55266e-06
1.43155e-06
8.25531e-07
1.12387e-06
-5.7829e-06
4.26856e-07
-7.89184e-07
6.98354e-06
2.78932e-07
2.14039e-06
-2.70412e-06
2.84791e-07
-5.25061e-05
-5.89763e-06
7.5649e-06
5.4056e-05
-3.99507e-05
-4.67221e-06
5.17283e-06
-1.96296e-06
4.22496e-05
-1.06101e-05
3.59297e-06
-4.46425e-06
1.14814e-05
-1.41297e-06
-5.52135e-06
5.18328e-06
1.75105e-06
-3.17425e-05
7.35237e-06
-5.31938e-06
2.97096e-05
3.23682e-06
-8.94997e-06
-4.75651e-05
9.15949e-06
-4.96723e-07
4.46155e-05
-3.27174e-06
-1.7248e-05
-8.19424e-06
7.51481e-06
3.60433e-06
1.75949e-05
-8.94818e-07
-3.92867e-06
3.18829e-06
4.71299e-06
2.14705e-06
-5.22485e-06
2.5754e-06
-2.33787e-06
-5.42861e-05
2.90885e-06
-1.47879e-06
5.26185e-05
8.03912e-06
8.10079e-06
0.000136311
-2.01406e-06
-2.03571e-06
-1.32267e-06
-1.33825e-06
-2.61593e-06
-2.49809e-06
-4.16058e-06
-2.54022e-06
3.3461e-06
1.92684e-05
5.2082e-05
-3.60371e-06
-5.72445e-06
-4.02463e-06
-5.90281e-06
-4.711e-07
1.91853e-05
3.16023e-05
-6.04944e-06
-3.51111e-06
-6.26674e-06
-3.47017e-06
-4.84647e-08
-6.06438e-07
-8.67909e-08
-3.97401e-06
3.28449e-07
-1.05071e-06
4.22517e-06
-2.25543e-05
2.59849e-07
-2.89611e-07
2.2584e-05
1.25258e-06
-4.78027e-05
1.04209e-07
-1.77691e-06
1.44856e-06
4.67742e-05
-9.855e-06
5.80276e-06
0.000144306
1.45682e-06
2.7041e-06
1.9821e-06
3.55648e-06
-7.35207e-06
1.30388e-05
7.19068e-05
1.93669e-07
8.16399e-07
4.50128e-05
8.95257e-07
5.27771e-08
6.97037e-07
-4.03327e-07
4.61417e-07
-6.36794e-07
-3.71706e-06
9.06419e-07
9.36832e-07
-2.48484e-06
4.55233e-06
-7.58821e-05
-3.49077e-06
1.42004e-06
6.01906e-06
7.52796e-05
-3.34583e-06
-1.09697e-06
2.7224e-06
0.000182196
-5.91541e-07
-3.51246e-06
7.1124e-07
-3.17416e-06
1.8263e-06
2.55006e-06
1.77432e-06
-1.0152e-06
6.2895e-07
6.96288e-05
2.53524e-06
-7.36501e-07
2.53511e-06
1.01746e-06
6.0615e-07
6.21196e-07
-8.53367e-06
6.84661e-07
-1.78856e-06
9.43878e-06
-7.16471e-07
2.45112e-06
-2.93462e-06
1.19997e-06
-5.55225e-05
-5.25709e-06
6.86145e-06
5.66405e-05
-4.42472e-05
-4.41996e-06
5.37615e-06
-1.94336e-06
4.58634e-05
-1.22335e-05
3.8509e-06
-4.55385e-06
1.29364e-05
-2.06215e-06
-6.07227e-06
5.77005e-06
2.36436e-06
-2.74392e-05
8.78668e-06
-6.56185e-06
2.52144e-05
4.04773e-06
-9.95822e-06
-4.14456e-05
1.0704e-05
-1.72449e-06
3.83766e-05
-4.79557e-06
-1.74897e-05
-1.05336e-05
9.87353e-06
5.7401e-06
1.72052e-05
-3.74717e-06
-2.89847e-06
3.01137e-06
4.45556e-06
5.67432e-06
-6.4956e-06
1.80213e-06
-4.74937e-06
-5.03517e-05
6.47266e-06
-1.52661e-07
4.6979e-05
1.69978e-05
3.47227e-06
0.000145844
-9.13121e-07
-1.68538e-06
-6.35523e-07
-1.46463e-06
-6.40953e-06
-5.68269e-06
-7.28591e-06
-5.9259e-06
8.72902e-06
1.98278e-05
6.36911e-05
-5.16859e-06
-6.3883e-06
-5.39399e-06
-6.2173e-06
-2.10537e-07
1.66842e-05
4.16259e-05
-6.07043e-06
-2.93015e-06
-6.11487e-06
-2.92743e-06
3.47885e-07
-3.73324e-07
3.00113e-07
-4.47025e-06
6.58194e-07
-1.40561e-06
5.00713e-06
-2.24836e-05
-4.84352e-08
2.86144e-07
2.22459e-05
-1.24224e-07
-4.56527e-05
-1.0185e-06
3.36034e-07
2.0669e-06
4.43925e-05
-3.04158e-06
1.04319e-06
0.000148442
-7.90552e-07
1.16657e-06
-7.23432e-07
1.68217e-06
-2.96602e-06
1.12238e-05
8.04352e-05
7.27155e-07
-3.1078e-07
5.74694e-05
1.22846e-06
5.82801e-07
1.00623e-06
-7.50404e-07
-3.3161e-07
-8.90318e-07
-5.30533e-06
1.1985e-06
1.2251e-06
-2.82391e-06
6.43279e-06
-7.49525e-05
-3.02663e-06
1.53964e-06
5.18231e-06
7.45613e-05
-3.30402e-06
7.21417e-07
2.41604e-06
0.000182519
-1.13198e-06
-3.26961e-06
1.69523e-07
-3.02191e-06
1.30924e-06
2.23393e-06
1.29363e-06
-6.02277e-07
4.07445e-07
7.64297e-05
2.49748e-06
-1.91906e-07
2.44471e-06