/*--------------------------------*- C++ -*----------------------------------*\
| =========                 |                                                 |
| \\      /  F ield         | OpenFOAM: The Open Source CFD Toolbox           |
|  \\    /   O peration     | Version:  5.x                                   |
|   \\  /    A nd           | Web:      www.OpenFOAM.org                      |
|    \\/     M anipulation  |                                                 |
\*---------------------------------------------------------------------------*/
FoamFile
{
    version     2.0;
    format      ascii;
    class       volScalarField;
    location    "3.75";
    object      p;
}
// * * * * * * * * * * * * * * * * * * * * * * * * * * * * * * * * * * * * * //

dimensions      [0 2 -2 0 0 0 0];

internalField   nonuniform List<scalar> 
10571
(
122.443
192.531
177.343
159.664
171.398
198.764
186.86
158.748
166.971
143.776
212.833
204.911
193.968
179.016
169.953
159.012
249.112
201.216
185.868
173.6
150.406
208.138
213.477
200.256
107.935
148.234
123.69
117.388
107.117
157.396
140.686
136.784
133.731
124.223
154.085
149.701
146.723
129.682
133.873
122.404
162.618
171.78
141.959
132.469
128.651
206.385
172.89
137.733
87.4379
101.871
83.4089
82.104
76.067
133.755
110.674
110.921
94.7453
102.941
141.395
142.554
124.366
114.774
114.271
101.638
141.355
118.548
121.295
125.847
113.209
153.894
122.767
123.454
63.4653
70.0739
60.0396
57.4089
59.0661
85.5024
73.0559
63.4754
49.1224
78.7658
119.47
127.505
76.029
63.132
64.2736
81.3933
94.2347
37.4394
41.7
108.605
84.3384
52.0248
37.7044
61.5419
47.3669
50.4954
46.6925
43.9768
44.071
60.2646
46.2422
36.9223
34.44
38.2491
45.1596
49.6296
36.6606
31.488
34.0864
74.9358
33.8537
33.7942
32.705
34.384
48.9809
34.696
34.9071
34.3156
39.3065
36.6824
40.3333
39.6137
36.2544
34.6224
34.204
34.8385
34.7354
35.3819
34.4121
34.7506
34.4407
33.7322
35.7664
33.8477
33.3246
34.4975
34.5695
34.9853
34.9779
35.1036
33.1317
34.5737
34.6497
34.6596
36.8231
34.5157
39.7931
37.3915
34.4199
34.364
33.5804
34.8352
35.1168
34.7354
34.3879
34.4661
34.4398
34.3963
35.7896
34.9157
35.114
34.2575
34.5802
34.8566
34.4697
34.7654
34.7239
34.5223
34.5528
34.525
34.5395
33.1643
34.2787
33.6347
32.2991
34.5168
34.2965
34.0802
34.3963
34.7633
34.1769
34.094
34.3876
34.3815
34.3864
34.531
34.433
34.2581
33.7143
34.4673
34.5414
34.0763
34.4249
34.7803
34.1525
34.4491
34.3639
34.3771
34.2302
34.2036
34.0256
34.2147
34.4647
34.2376
33.9584
33.9808
34.4001
34.1583
34.4182
34.3224
34.3318
34.5075
34.13
34.2286
34.3657
33.8682
34.3232
34.2586
34.0133
34.2743
34.6003
34.2855
34.1951
34.2803
34.1031
34.1441
33.9236
33.9618
34.3381
34.1683
33.9028
33.8536
34.2038
33.6977
34.2426
34.2739
34.5068
34.1671
34.2491
34.6551
34.2024
33.9735
34.0029
34.1799
34.1346
34.0888
34.067
34.2038
34.03
34.0823
33.9446
33.9114
34.2633
34.101
33.8425
33.8297
34.1394
33.7672
34.1664
34.1805
34.273
34.1308
34.2955
34.2216
34.0925
33.7715
34.0424
34.1482
34.3132
33.9384
33.9865
34.1674
34.0329
34.0009
33.9366
33.9232
34.1621
34.0275
33.8276
33.8198
34.0874
33.8925
34.0818
34.0721
34.0294
34.0007
34.2365
34.1459
33.9908
33.6602
34.0584
34.1186
34.1334
33.8379
33.9235
34.1395
33.8403
33.881
33.8636
33.8416
34.017
33.8834
33.7592
33.7219
33.9579
33.9063
33.9679
33.9324
33.873
33.8184
34.0974
34.0126
33.902
33.5737
34.0265
34.1105
34.2321
33.7732
33.8678
34.0693
33.7599
33.7098
33.7391
33.7759
33.8547
33.7202
33.6206
33.5319
33.8031
33.9292
33.8461
33.804
33.7285
33.712
33.9412
33.827
33.8444
33.5175
33.9485
33.9705
34.0411
33.7577
33.8245
33.9662
33.6311
33.4978
33.5454
33.5951
33.6836
33.5373
33.4435
33.4235
33.7169
33.8999
33.7311
33.6881
33.4889
33.7565
33.8859
33.8123
33.8081
33.5342
33.8061
33.7973
33.9531
33.7872
33.8077
33.8673
33.4836
33.2542
33.351
33.4023
33.5451
33.2947
33.2592
33.3829
33.6235
33.8567
33.6374
33.5972
33.5194
34.0919
33.8713
33.9185
33.7837
33.5796
33.6358
33.673
33.9789
33.8233
33.7923
33.8133
33.4337
33.11
33.2166
33.3286
33.4427
33.0845
33.13
33.3258
33.4776
33.8166
33.594
33.5558
33.7277
34.4132
33.9644
34.0687
33.7786
33.6245
33.5325
33.5727
34.0512
33.8516
33.783
33.7937
33.4943
33.1836
33.2116
33.3905
33.4622
33.0999
33.0879
33.237
33.4485
33.7864
33.6177
33.5918
33.7734
34.3645
34.0776
34.1408
33.8028
33.6697
33.4782
33.4922
34.0944
33.8837
33.7914
33.7807
33.6843
33.4006
33.3361
33.548
33.592
33.3172
33.1194
33.2789
33.5459
33.8307
33.7139
33.6912
33.7716
33.982
33.9426
34.0682
33.8606
33.7285
33.4395
33.4361
34.0209
33.9219
33.8179
33.7587
33.9292
33.6953
33.5868
33.8132
33.8166
33.619
33.2656
33.3888
33.666
33.9117
33.8708
33.8435
33.7493
33.5916
33.6437
33.9085
33.9536
33.8088
33.4281
33.3655
33.8428
33.9713
33.8408
33.719
34.1672
34.0448
33.8945
34.1697
34.1502
33.9779
33.5764
33.5663
33.8123
34.0501
34.0633
34.0275
33.7834
33.3393
33.3656
33.7645
34.0795
33.9146
33.4749
33.323
33.6749
34.0467
33.8666
33.7313
34.364
34.4793
34.2459
34.4069
34.4634
34.3067
33.9797
33.8774
33.9973
34.2729
34.2664
34.2319
33.8815
33.3745
33.2756
33.7864
34.2344
34.0643
33.5899
33.3683
33.6782
34.1737
33.9687
33.7334
34.7292
34.7725
34.4521
34.592
34.7167
34.506
34.2183
34.1237
34.1285
34.4068
34.4647
34.4035
34.0774
33.573
33.485
33.9314
34.4296
34.2656
33.7791
33.5319
33.8882
34.3714
34.1682
33.8642
35.1858
34.8081
34.6525
34.659
34.5659
34.6167
34.3115
34.1839
34.0857
34.4269
34.6624
34.5878
34.2929
33.8561
33.7842
34.1296
34.6279
34.5273
34.0776
33.8001
34.2385
34.6233
34.4711
34.2314
34.6797
34.8475
34.7092
34.473
34.382
34.7564
34.4148
34.1982
33.9346
34.357
34.866
34.7938
34.5708
34.1842
34.1473
34.411
34.8529
34.8395
34.5764
34.3566
34.6773
34.9013
34.8269
34.7524
34.4904
34.9162
34.7773
34.4146
34.2345
34.9271
34.591
34.3893
34.0027
34.3316
35.0703
35.0119
34.9022
34.639
34.8889
34.8107
35.0756
35.1496
35.1346
35.1031
35.322
35.1609
35.1743
35.2484
34.5984
35.0562
34.9182
34.5849
34.2785
35.1133
34.9007
34.832
34.4855
34.5431
35.2662
35.2176
35.2199
35.1493
35.4619
35.4492
35.2692
35.3773
35.505
35.6627
36.0298
35.3665
35.4395
35.6183
34.9518
35.2608
35.1011
34.8496
34.3776
35.304
35.1637
35.2237
34.9319
34.9708
35.4406
35.3884
35.4129
35.5183
35.7591
36.1616
35.4208
35.5081
35.6754
35.8613
36.414
35.5073
35.6096
35.7881
35.2471
35.4744
35.3078
35.1159
34.6591
35.4584
35.336
35.4923
35.4732
35.2727
35.5548
35.5113
35.4916
35.6468
35.7081
35.9874
35.5399
35.575
35.7375
35.8511
36.0738
35.5949
35.7095
35.8508
35.3535
35.5575
35.3975
35.3152
35.1855
35.5434
35.4551
35.6337
35.9215
35.6078
35.6059
35.5804
35.5418
35.7108
35.6533
35.6396
35.623
35.6168
35.7727
35.8044
35.9286
35.6485
35.7427
35.8643
35.3231
35.5624
35.4053
35.4097
35.5518
35.5767
35.5094
35.6521
35.9403
35.8494
35.6247
35.6055
35.58
35.7418
35.6895
35.6955
35.6712
35.6611
35.7952
35.7806
35.9133
35.6844
35.7429
35.829
35.4478
35.586
35.4678
35.4497
35.7784
35.5823
35.4992
35.6589
35.8665
35.9156
35.6198
35.5992
35.5645
35.7257
35.7819
35.8298
35.6419
35.67
35.7906
35.786
35.8954
35.6985
35.7373
35.8033
35.4805
35.6319
35.5675
35.5127
35.8683
35.5816
35.4729
35.6435
35.8326
35.929
35.6339
35.6099
35.5529
35.7311
35.8968
35.8651
35.5604
35.6518
35.7707
35.8001
35.8577
35.7036
35.8194
35.8266
35.6257
35.76
35.7004
35.6308
35.8007
35.6735
35.5685
35.6861
35.8375
35.8506
35.6951
35.6664
35.622
35.7724
35.9122
35.8536
35.6112
35.6898
35.7747
35.8233
35.8551
35.7497
35.9061
35.8613
35.7822
35.833
35.8286
35.7273
35.7036
35.7978
35.6649
35.718
35.8129
35.8445
35.8376
35.7596
35.6946
35.8305
35.9092
35.8667
35.7337
35.7631
35.8704
35.8515
35.8729
35.8241
35.9805
35.9279
35.7595
35.8681
35.8666
35.6806
35.662
35.8393
35.6139
35.6967
35.7668
35.8302
35.9386
35.8082
35.6983
35.8326
35.8808
35.8632
35.8106
35.807
35.9351
35.8922
35.8998
35.8894
36.0159
36.0513
35.7018
35.8664
35.794
35.6383
35.6953
35.7938
35.4733
35.6621
35.7401
35.821
35.8875
35.738
35.6125
35.7846
35.8327
35.8397
35.8292
35.7903
35.9096
35.901
35.8859
35.8843
35.9755
36.013
35.7286
35.83
35.7424
35.6703
35.7426
35.7184
35.4681
35.6634
35.7454
35.8334
35.7852
35.6087
35.534
35.7406
35.8052
35.8443
35.7631
35.752
35.8328
35.8361
35.8671
35.8347
35.9082
35.9218
35.8123
35.8069
35.7367
35.7383
35.7976
35.6995
35.5504
35.7101
35.7825
35.8511
35.7124
35.5126
35.5272
35.7491
35.7998
35.8591
35.6524
35.71
35.7635
35.7983
35.8645
35.7814
35.8498
35.8782
35.8873
35.8062
35.7345
35.8028
35.8484
35.7253
35.6077
35.7683
35.7998
35.8671
35.6939
35.53
35.5597
35.7551
35.8044
35.89
35.5772
35.6659
35.7223
35.802
35.8742
35.7503
35.805
35.86
35.9298
35.8102
35.7133
35.8406
35.8748
35.7418
35.6412
35.8016
35.8335
35.903
35.7014
35.583
35.5673
35.7421
35.8061
35.9085
35.5509
35.6343
35.731
35.8355
35.8885
35.7365
35.792
35.8609
35.9432
35.8074
35.6686
35.8342
35.8867
35.7507
35.6618
35.8103
35.8707
35.9287
35.7033
35.601
35.5687
35.7459
35.8216
35.8984
35.559
35.6358
35.7988
35.8705
35.9035
35.7344
35.8038
35.8791
35.9132
35.8032
35.6546
35.7993
35.8854
35.7646
35.6994
35.7968
35.8765
35.9213
35.7045
35.6127
35.5982
35.7554
35.8233
35.8954
35.5824
35.6792
35.852
35.8902
35.9438
35.7627
35.8437
35.902
35.8703
35.8116
35.68
35.7279
35.8731
35.7795
35.7416
35.7725
35.8568
35.8893
35.7159
35.6364
35.6677
35.7561
35.8324
35.8946
35.6033
35.7698
35.8698
35.9009
35.9605
35.8261
35.8951
35.9328
35.8233
35.8396
35.7387
35.6385
35.8298
35.7795
35.745
35.7232
35.8134
35.8451
35.7296
35.6706
35.7051
35.7503
35.8201
35.8287
35.6167
35.761
35.8452
35.8683
35.8908
35.8268
35.8612
35.9286
35.7613
35.8782
35.7959
35.5515
35.7542
35.7718
35.7279
35.6698
35.7202
35.7773
35.7437
35.7034
35.73
35.7222
35.7619
35.7556
35.6596
35.7236
35.7817
35.8179
35.7933
35.7607
35.799
35.8394
35.6916
35.8849
35.8331
35.5067
35.6476
35.7596
35.6998
35.6081
35.6149
35.6893
35.7502
35.7152
35.733
35.6731
35.6664
35.6262
35.7086
35.7347
35.7355
35.7317
35.7121
35.7334
35.7391
35.7373
35.6431
35.8326
35.8086
35.4835
35.5373
35.7308
35.6649
35.5603
35.5251
35.632
35.7443
35.7109
35.7022
35.634
35.5744
35.6155
35.7006
35.704
35.692
35.6594
35.6405
35.7126
35.692
35.6882
35.6187
35.7636
35.7526
35.5047
35.4672
35.7125
35.6245
35.5258
35.48
35.5793
35.7414
35.6963
35.6392
35.5933
35.5196
35.476
35.6937
35.6612
35.6443
35.6054
35.5722
35.6755
35.6602
35.6469
35.6143
35.7037
35.6792
35.5315
35.4526
35.682
35.5781
35.5085
35.4705
35.5446
35.7141
35.6774
35.6136
35.5662
35.5214
35.4793
35.6739
35.6291
35.6038
35.5724
35.5412
35.6318
35.619
35.6016
35.6017
35.6559
35.6059
35.5356
35.4459
35.6306
35.52
35.4946
35.4551
35.5446
35.6777
35.6304
35.5883
35.5478
35.5083
35.5865
35.6385
35.6026
35.5719
35.5505
35.548
35.5948
35.5857
35.5638
35.5898
35.6115
35.5386
35.5346
35.4361
35.5849
35.4845
35.5174
35.4536
35.5604
35.6428
35.6012
35.5639
35.5286
35.4826
35.5714
35.5999
35.5852
35.5473
35.5325
35.5364
35.5713
35.5638
35.5371
35.5813
35.5719
35.5015
35.5472
35.4547
35.5372
35.5164
35.5371
35.4678
35.5445
35.6
35.5729
35.5516
35.5206
35.4771
35.5193
35.5662
35.5736
35.5375
35.5226
35.517
35.5628
35.5569
35.5275
35.6085
35.551
35.5065
35.5723
35.4808
35.4821
35.5558
35.587
35.4773
35.4777
35.5713
35.5218
35.5537
35.5261
35.4703
35.4646
35.5689
35.5677
35.5354
35.516
35.4984
35.5661
35.5561
35.5262
35.6503
35.5593
35.5617
35.6474
35.5323
35.4382
35.5801
35.619
35.4864
35.4311
35.5782
35.4957
35.5726
35.5385
35.4539
35.4303
35.5963
35.572
35.5353
35.5088
35.482
35.5842
35.5641
35.5303
35.7014
35.6136
35.6501
35.6921
35.5615
35.4696
35.597
35.6148
35.4573
35.2937
35.6128
35.4994
35.601
35.5472
35.4321
35.3584
35.6359
35.5855
35.5378
35.4989
35.4596
35.6171
35.5795
35.5382
35.728
35.7526
35.7164
35.6933
35.5486
35.6
35.634
35.601
35.4118
35.2771
35.6867
35.6004
35.6466
35.5464
35.4065
35.303
35.6935
35.6268
35.542
35.4847
35.4312
35.6595
35.5992
35.5434
35.7397
35.9557
35.7949
35.6433
35.5056
35.8654
35.6874
35.5547
35.3561
35.268
35.881
35.7937
35.704
35.5351
35.3426
35.2527
35.8215
35.7051
35.5568
35.4609
35.3901
35.721
35.6259
35.5457
35.6691
36.0679
35.8373
35.5265
35.4058
36.0693
35.7275
35.4846
35.212
35.1113
36.1842
36.0287
35.7807
35.52
35.2176
35.0939
36.0121
35.8038
35.5535
35.4129
35.3014
35.8117
35.6425
35.5258
35.5526
36.1176
35.8105
35.4264
35.2943
36.2273
35.7955
35.4614
34.981
34.7466
36.4789
36.2781
35.8802
35.4958
34.9867
34.6859
36.1917
35.8889
35.5425
35.2968
35.0964
35.8858
35.6617
35.4818
35.6093
36.2594
35.8978
35.5663
35.2001
36.4361
35.826
35.4511
34.5536
33.9317
36.719
36.527
35.9954
35.4326
34.5376
33.5649
36.3288
35.935
35.5251
35.1221
34.6604
35.9467
35.6596
35.4133
35.7786
36.4844
36.1298
35.7164
35.2368
36.7314
35.9586
35.228
33.8706
31.9196
36.885
36.7263
36.031
35.2304
33.8832
30.7612
36.385
35.9046
35.4195
34.844
33.6465
35.9713
35.6645
35.3428
35.9198
36.6366
36.4285
35.7628
35.1205
36.6563
35.9647
34.896
32.9748
26.4583
36.3444
36.5457
35.8144
34.8041
33.099
26.8021
-18.8626
36.5901
35.9119
35.2481
34.4087
31.1269
35.9874
35.6093
35.2496
36.251
36.7799
36.3965
35.7845
34.9704
36.4552
35.6245
34.6494
32.4358
22.192
-1.8147
36.0476
35.9851
35.3113
34.4349
32.7121
26.0512
3.28925
36.4251
35.8244
35.0679
34.0765
27.4566
36.1016
35.5049
35.2315
36.2269
36.8363
36.3198
35.7231
35.0818
36.5487
35.4041
34.5683
33.0383
26.4513
7.84281
36.2565
35.9439
34.6757
34.3155
33.3842
27.1857
9.58952
35.9485
35.0656
34.755
34.2571
29.0449
10.1238
35.3439
35.0801
35.2016
36.1046
36.6045
35.997
35.6435
35.4036
36.0312
35.1469
34.5991
34.2275
29.5985
10.4094
35.841
35.58
34.5827
34.3129
34.4519
29.6549
10.5806
35.3456
34.5757
34.701
34.5942
32.7578
34.7583
34.7191
35.1128
35.8896
35.9989
35.654
35.4944
35.598
35.5325
34.8499
34.684
35.1246
34.1928
35.4464
35.2181
34.3873
34.3889
35.0826
33.3024
-0.161884
34.9443
34.3952
34.5269
34.6696
35.9333
34.5342
34.4964
34.9369
35.7169
35.5782
35.3635
35.2224
35.5053
35.2089
34.6565
34.6643
35.3297
36.2268
35.2173
34.9853
34.2658
34.4651
35.3599
35.5305
34.799
34.3912
34.5286
34.7327
36.0588
34.5134
34.4914
34.7761
35.4693
35.2947
34.9823
34.8888
35.2989
35.0414
34.5253
34.5244
35.1435
35.9083
35.1504
34.9092
34.2624
34.5245
35.2526
35.5304
34.8355
34.4683
34.7209
35.095
35.7794
34.615
34.4917
34.8643
35.1262
35.1667
34.7572
34.6459
35.0657
35.0006
34.4516
34.4203
35.0136
35.5267
35.2192
34.9549
34.3024
34.5798
35.1559
35.4238
34.9902
34.5451
34.8536
35.1567
35.623
34.8753
34.8347
35.2059
34.9026
35.1702
34.682
34.5027
34.9456
35.0565
34.3768
34.3447
34.9572
35.3598
35.4019
35.1027
34.403
34.603
35.1063
35.3784
35.2305
34.7327
34.9628
35.1882
35.5706
35.1475
35.1836
35.4029
34.778
35.2379
34.6707
34.3668
34.8899
35.2104
34.3739
34.2659
35.0032
35.4195
35.6943
35.3445
34.5957
34.6281
35.2235
35.5115
35.5482
34.9917
35.1342
35.3047
35.6965
35.4519
35.4848
35.6435
34.5947
35.34
34.6506
34.1965
34.7734
35.4355
34.4425
34.3201
35.196
35.7596
36.04
35.6495
34.8923
34.8351
35.5416
35.8926
35.9085
35.36
35.424
35.6131
36.0234
35.8103
35.771
35.958
34.318
35.5181
34.6342
34.0897
34.7547
35.7243
34.684
34.3503
35.0532
36.4084
36.4951
35.9791
35.0991
34.8994
35.5679
36.4816
36.2797
35.6118
35.4417
35.9345
36.5289
36.1805
36.0373
36.2471
34.3199
35.7937
34.8921
34.2108
34.9184
36.0029
34.9158
34.5971
35.5995
37.1106
36.7664
36.2418
35.2858
35.1375
35.9522
36.9417
36.4893
35.8047
35.6399
36.171
36.9186
36.3011
36.2273
36.506
184.465
160.058
177.881
178.809
165.055
174.256
178.578
183.346
238.68
227.097
213.81
234.128
232.968
192.289
181.299
196.358
178.431
170.09
175.296
169.75
171.084
181.129
183.756
177.124
185.052
182.867
235.953
244.178
250.123
219.747
226.229
225.558
223.802
218.991
187.976
223.208
228.252
172.522
169.582
193.042
175.843
173.046
178.545
174.77
175.73
176.159
174.433
181.751
296.356
308.8
332.757
248.394
239.55
285.551
267.618
228.253
210.44
251.932
228.167
207.235
196.4
210.719
196.89
190.327
185.46
185.303
175.904
190.198
191.315
171.191
323.506
312.662
270.722
277.98
252.205
235.366
231.434
232.713
233.697
220.209
201.52
240.437
226.572
203.757
210.074
219.994
216.854
196.994
221.104
217.717
224.252
218.67
257.067
270.534
232.292
240.32
167.087
152.114
130.483
158.6
138.521
118.571
133.016
116.955
132.275
144.099
115.792
113.934
104.74
163.355
116.993
203.615
177.771
178.725
194.029
191.772
176.015
156.67
175.307
172.717
173.514
170.085
173.352
145.014
151.52
158.313
153.24
161.397
139.608
208.533
193.646
200.371
177.328
173.447
173.174
147.471
144.315
129.809
138.52
136.274
219.882
255.736
170.463
167.661
178.055
156.061
148.323
141.417
137.932
139.745
266.091
195.788
216.642
226.98
210.104
188.609
182.877
199.575
201.979
165.061
193.04
185.569
154.223
137.601
163.546
137.496
135.023
207.112
208.871
209.333
208.454
210.436
207.903
208.819
213.495
209.53
196.802
174.842
204.796
164.131
123.245
105.527
108.969
109.494
105.342
96.6212
95.0421
93.9588
104.74
95.8398
97.8698
94.3508
91.6619
99.7779
89.8155
158.94
142.664
126.877
161.216
149.646
123.671
108.262
144.755
129.291
117.166
128.877
130.973
87.357
91.8222
99.7827
104.872
124.997
108.819
156.544
159.893
156.897
146.096
148.615
145.783
128.307
126.056
115.735
117.642
117.735
151.55
153.953
146.743
145.74
146.976
120.386
129.217
110.227
110.94
113.656
160.701
148.866
168.674
178.152
190.433
152.146
158.809
160.267
172.984
128.865
134.194
128.526
127.886
126.324
127.167
127.435
121.925
205.313
190.921
199.614
201.924
185.954
175.109
177.298
144.187
186.193
144.411
129.455
156.479
128.489
90.418
77.9898
85.3578
83.8311
83.1405
75.4494
75.4124
74.3065
82.9745
83.9845
75.42
72.2182
74.4301
80.6132
71.3056
123.551
99.2202
93.4206
120.5
106.899
83.8882
79.3471
90.4682
72.287
74.5732
81.6311
80.1251
68.1863
65.0517
67.3475
64.2136
86.0148
73.9141
136.242
140.206
140.05
119.728
132.48
133.56
109.405
110.475
93.229
98.7817
105.316
141.567
140.574
134.544
135.916
132.108
104.844
101.625
91.2864
97.1892
92.7251
139.384
127.656
143.196
143.091
148.201
126.212
120.843
118.315
112.742
121.31
124.217
125.297
124.247
112.437
119.437
118.555
102.75
159.336
111.819
139.132
138.467
104.217
93.1976
91.0232
120.202
126.746
88.7225
95.9164
88.149
109.1
68.5465
61.96
66.1593
67.8247
66.7548
58.6286
58.991
59.645
62.5004
64.127
54.2623
53.8122
54.5061
61.5705
52.4608
76.9207
64.1867
69.7048
70.6781
61.565
59.9492
63.9
62.0759
60.6989
57.7522
52.3811
54.3866
50.4082
50.8351
44.9181
45.9413
63.49
52.9336
93.0057
114.008
114.794
71.109
82.863
82.359
81.2663
90.3731
53.5582
60.2184
67.8906
122.353
115.091
88.1933
88.8644
73.8075
81.1418
81.2407
77.9701
77.3238
69.2177
104.331
54.7713
76.6616
79.1712
65.6357
40.1629
36.3454
36.6516
35.1417
91.2929
87.7335
94.6773
49.5213
49.5628
35.9443
39.0066
61.805
61.9378
34.9534
42.8153
41.8594
34.3459
33.9314
34.1213
41.4079
38.6421
34.0961
33.7482
34.4938
34.6331
54.9861
46.4205
52.5989
48.1343
52.7493
46.358
41.5301
46.5771
47.159
47.5855
42.4341
42.839
43.0608
46.2012
41.3734
49.9067
36.0829
57.2355
50.9368
58.5387
41.4971
48.9894
39.8759
55.2327
43.3352
41.028
39.8538
39.1861
37.8851
38.3176
37.1923
40.8901
35.8298
50.5063
47.3818
49.8807
35.2387
34.7817
34.83
41.0421
42.6101
35.4965
34.3952
34.3981
41.1127
37.1013
34.5088
34.2124
34.4619
66.1226
61.7199
49.5799
38.533
56.771
34.8277
34.8924
33.6956
34.2188
34.5332
35.1156
35.044
35.0375
34.9233
33.747
33.9365
33.6175
34.8939
32.7244
34.6817
34.2116
39.2839
34.573
34.875
34.8325
34.9077
34.6639
34.3872
34.4104
34.7234
35.0045
34.5473
34.512
34.6547
34.6713
38.9085
36.1125
41.0412
39.2677
41.8873
38.0142
38.6995
38.9545
40.3077
40.4276
37.4988
38.8503
39.1276
37.988
35.9317
34.7685
34.7079
40.3023
35.306
48.5882
34.8136
35.2774
34.3918
37.5394
35.8091
36.7036
36.4693
34.9661
35.6516
35.8833
36.1042
35.3664
35.2746
34.4288
34.5714
34.4909
34.6077
34.4956
34.5322
34.3123
34.3353
35.3532
34.7709
33.9587
34.5154
34.1028
34.293
34.3667
34.3292
34.3939
34.2554
34.1699
34.3247
34.7686
34.7813
34.5007
34.5227
34.5701
36.808
40.261
35.219
34.1212
34.1123
32.7324
34.0652
34.5798
34.9323
35.0101
34.1051
34.6713
34.3035
35.2974
34.6612
34.6422
34.6886
34.5863
34.5706
34.7105
34.6495
34.7321
34.7038
34.0157
34.6702
34.4591
34.9911
34.8522
34.595
34.8348
33.6189
34.5802
34.6717
34.5797
34.766
34.6313
34.6562
34.8506
34.6235
34.7354
34.6092
34.6216
34.7091
34.7121
35.7209
35.1262
36.9323
38.4774
37.6464
35.0262
37.1097
35.365
38.4418
36.2182
35.0637
35.3314
32.9476
34.4303
34.1079
34.4617
34.3787
34.2229
34.3343
34.1855
34.3863
34.1057
34.3122
34.2351
35.519
35.4252
35.7565
34.395
35.2219
35.1193
35.3726
35.1883
34.605
35.2836
34.9572
34.4806
34.3744
34.4053
34.3123
34.463
34.4519
34.4614
34.3978
34.411
34.4139
34.2619
34.4064
34.7105
34.5013
34.3451
34.271
34.5335
34.3116
34.3289
34.3837
34.2645
34.2553
34.1158
34.2941
34.4699
34.5555
34.4228
34.4202
34.4729
34.9668
34.3852
34.677
34.5162
34.4811
34.289
33.9249
34.4414
34.4403
34.9328
33.9432
34.3215
34.0489
34.6733
34.5616
34.5018
34.5404
34.5724
34.5227
34.539
34.4658
34.5342
34.472
35.0135
34.4769
34.7575
34.5784
34.7458
34.4037
34.6287
34.5146
34.9332
34.4021
35.0117
34.2888
34.8305
34.5104
34.4745
34.5956
34.6956
34.504
34.5671
34.643
34.5274
34.5736
34.4676
34.476
34.5279
34.4654
34.2631
33.9778
33.3719
34.3013
33.0367
33.8033
33.6684
33.5955
32.6853
33.4078
33.6961
33.6156
34.1668
34.4241
34.5317
34.3532
34.3065
34.1019
34.3043
34.2279
34.2074
34.0995
34.276
34.222
34.9093
34.876
35.0419
34.531
34.6974
34.6906
34.7993
35.4117
35.2116
35.2322
35.4
34.4391
34.327
34.5615
34.4909
34.3596
34.3722
34.3658
34.3204
34.335
34.322
34.2824
34.2879
34.5384
33.9996
34.2771
34.2883
34.5411
34.1523
34.0862
34.2751
34.2573
34.4049
34.1628
34.3751
34.368
34.4192
34.3591
34.3487
34.3679
34.3316
33.6979
34.0554
34.3215
34.2728
33.371
33.6148
34.2705
33.7735
34.5974
33.832
34.3274
33.7372
34.584
34.4357
34.3695
34.3978
34.4531
34.3943
34.3918
34.339
34.3734
34.305
34.5906
34.3619
34.5036
34.3276
34.4831
34.315
34.4203
34.3071
34.5525
34.073
34.7529
34.0558
34.6784
34.4118
34.3379
34.4991
34.5115
34.3779
34.4132
34.4265
34.3859
34.3941
34.2708
34.2884
34.3146
34.3196
34.102
34.1387
34.2243
34.0571
34.1585
34.2609
34.1407
34.1926
34.2436
34.4123
34.2466
34.1995
34.3244
34.4836
34.4019
34.2505
34.2085
34.135
34.2265
34.2069
34.1757
34.138
34.1839
34.1831
34.6186
34.5539
34.6219
34.3918
34.5761
34.4352
34.4627
34.7522
33.9118
34.2736
34.2895
34.2852
34.2247
34.246
34.2444
34.895
34.3728
34.5786
33.9861
34.9039
34.5118
34.6023
34.5071
34.2242
34.4734
34.5937
34.6086
34.5445
34.7235
34.318
34.318
34.2878
34.2834
34.2702
34.3746
33.9992
34.4595
34.4965
34.3888
34.1165
34.5592
34.4178
33.8429
34.7206
34.3729
34.5811
34.1432
34.6911
34.3157
34.2667
34.2976
34.2902
34.2303
34.2631
34.2423
34.2179
34.1377
34.3864
34.2808
34.3457
34.2236
34.2598
34.2506
34.2754
34.2283
34.2591
34.1723
34.3126
34.3083
34.1907
34.1988
34.2135
34.2082
34.2396
34.1274
34.14
34.1848
34.2428
34.1088
34.0863
34.1376
34.0699
34.0759
34.0487
34.0303
34.0257
34.0727
34.2077
34.0163
34.0062
34.1546
34.3289
34.2962
34.1709
34.1342
34.1115
34.1498
34.152
34.1179
34.0849
34.1201
34.1115
34.5244
34.3308
34.3439
34.3023
34.4532
34.2377
34.2865
33.705
33.9934
34.1874
34.1999
34.2058
34.1559
34.1746
34.1736
34.4562
34.8856
33.6618
34.1752
33.636
34.2477
34.2448
34.1944
34.2093
34.2107
34.8484
34.2881
34.398
34.2022
34.4533
34.2193
34.1728
34.1817
34.1429
34.0669
34.1471
34.1224
34.0772
33.9936
34.1876
34.2276
34.2212
34.1505
34.1453
34.2036
34.1833
34.2751
34.0874
34.0196
34.0837
34.1062
34.0133
33.9911
34.0267
34.0878
34.1326
34.0202
34.0542
34.1009
34.1804
34.0653
34.0327
34.0769
34.0291
34.0415
34.1056
34.0199
34.0402
34.0169
34.1661
34.0587
34.0383
34.1864
34.2792
34.2508
34.0991
34.0694
34.0565
34.083
34.0699
34.0421
34.0206
34.0482
34.027
34.3848
34.1435
34.2423
34.215
34.3298
34.0528
34.2089
34.14
34.1496
34.1217
34.1403
34.1404
34.0922
34.1079
34.1082
33.9412
33.8153
33.8532
33.8676
33.9415
34.171
34.1776
34.1255
34.1336
34.1322
34.2077
34.4853
34.1769
34.2087
34.3635
34.1309
34.0876
34.0649
34.0119
33.9331
34.043
34.0108
33.9629
33.8917
34.1488
34.1858
34.1761
34.146
34.1787
34.1833
34.1996
34.244
33.9544
33.9102
33.9012
33.9539
33.8864
33.8351
33.9007
34.0393
34.0773
33.9508
34.0239
34.0622
34.1569
33.9856
33.9274
34.0552
33.9876
33.9707
33.9547
33.9421
33.8881
34.0092
34.1621
33.9372
33.9188
34.081
34.2025
34.1339
34.0293
33.9676
33.9776
34.0168
33.9815
33.949
33.9287
33.9636
33.9327
34.2853
33.9788
34.1848
34.0956
34.2293
33.916
34.1519
34.1211
34.086
34.0555
34.0726
34.0596
33.9878
34.0152
33.9963
33.9113
34.0147
33.9002
33.972
34.0747
34.0812
34.0794
34.029
34.025
34.0251
34.1683
34.2147
34.0894
34.1223
34.0752
34.0393
33.9906
33.9616
33.9208
33.8553
33.9434
33.9206
33.8899
33.8289
34.1775
34.1734
34.2053
34.1004
34.2122
34.1475
34.1964
34.1115
33.8745
33.8505
33.7785
33.8547
33.8027
33.7361
33.8208
34.0133
34.0455
33.8961
33.9957
34.0241
34.1088
33.8671
33.8053
33.8941
33.8894
33.8552
33.8734
33.8323
33.8152
33.825
33.997
33.7921
33.7764
33.9515
34.0575
33.9943
33.8868
33.7967
33.8713
33.8843
33.8765
33.8003
33.8049
33.7917
33.8078
34.1585
33.845
34.0936
33.9377
34.0889
33.7644
34.0139
34.0395
33.9864
33.9074
33.9508
33.9292
33.8251
33.8821
33.8588
33.9802
34.1011
33.9154
33.9489
34.0886
33.964
33.9687
33.906
33.9025
33.9135
34.0613
34.052
33.9233
33.9896
34.0151
33.9389
33.8945
33.8832
33.8629
33.8109
33.8706
33.8509
33.8475
33.7983
34.2333
34.0958
34.138
34.069
34.167
34.037
34.0667
34.2093
33.8358
33.8264
33.7042
33.7893
33.7574
33.6835
33.7722
33.9713
33.9992
33.841
33.942
33.9709
34.0227
33.7334
33.6503
33.8162
33.7608
33.7302
33.7234
33.6782
33.6594
33.7542
33.9137
33.7054
33.7188
33.8552
33.9334
33.8608
33.6963
33.5906
33.7285
33.6871
33.7263
33.6101
33.6405
33.5745
33.6305
34.0186
33.689
33.9344
33.7674
33.9409
33.6242
33.8545
33.9362
33.8889
33.7354
33.811
33.7846
33.6439
33.7383
33.7081
33.9168
34.0636
33.9208
33.9069
34.0758
33.8417
33.8604
33.7876
33.7826
33.8104
33.9153
33.9241
33.7879
33.8846
33.9106
33.8549
33.8216
33.8228
33.8346
33.7889
33.8245
33.797
33.8257
33.7831
34.0289
33.9598
33.9783
33.8752
33.9325
33.8724
33.9031
33.961
33.822
33.8192
33.679
33.7712
33.7708
33.6911
33.7804
33.9157
33.9337
33.8124
33.8934
33.8938
33.9115
33.5562
33.4521
33.6362
33.5883
33.5936
33.5563
33.4998
33.519
33.6628
33.7715
33.55
33.5899
33.6869
33.7831
33.7187
33.4792
33.3667
33.5347
33.4543
33.5246
33.3744
33.4105
33.3256
33.4079
33.8556
33.5663
33.7773
33.611
33.7694
33.5129
33.7082
33.8413
33.7985
33.5483
33.6659
33.6322
33.4545
33.5953
33.5603
33.9204
34.1096
33.8817
33.9354
34.1262
33.7267
33.765
33.6795
33.678
33.7278
33.9138
33.964
33.863
33.9624
34.0326
33.7921
33.7688
33.7743
33.8195
33.7765
33.7946
33.7564
33.814
33.7722
33.8582
33.7971
33.8464
33.7326
33.7949
33.7449
33.8193
33.9583
33.8288
33.8326
33.7103
33.794
33.8029
33.7334
33.8068
33.8738
33.8632
33.7997
33.8571
33.8453
33.8344
33.3502
33.2764
33.4828
33.4245
33.4514
33.4121
33.3631
33.396
33.5258
33.6418
33.4469
33.488
33.631
33.6667
33.6271
33.2616
33.1877
33.2875
33.1985
33.2885
33.1647
33.1913
33.0866
33.1805
33.6899
33.4678
33.6536
33.4847
33.6338
33.4321
33.6141
33.7643
33.7273
33.3642
33.5302
33.4942
33.2909
33.4755
33.442
33.9314
34.1237
33.8367
33.9235
34.1093
33.6373
33.6985
33.6071
33.6076
33.6797
34.0139
34.1051
33.9954
34.0686
34.1907
33.7507
33.7393
33.7427
33.8078
33.7686
33.7779
33.7377
33.8039
33.7667
33.7468
33.7095
33.8016
33.6208
33.7277
33.6984
33.7967
34.0099
33.8473
33.8479
33.7517
33.8148
33.8336
33.7639
33.8191
33.8436
33.8262
33.7847
33.8257
33.8184
33.8011
33.2312
33.2198
33.3578
33.3269
33.3599
33.3254
33.3208
33.342
33.4707
33.6389
33.443
33.4854
33.6684
33.601
33.5947
33.1429
33.1525
33.1387
33.0504
33.1006
33.1217
33.1412
33.0719
33.0669
33.6049
33.4162
33.6039
33.4356
33.603
33.4345
33.6236
33.7069
33.7194
33.2446
33.4415
33.4105
33.2384
33.4342
33.4091
33.9111
34.083
33.7962
33.8974
34.0398
33.5936
33.674
33.5948
33.5964
33.6808
34.1202
34.2658
34.1158
34.1516
34.3064
33.7378
33.7445
33.7366
33.8043
33.7674
33.7863
33.7446
33.8099
33.7752
33.7249
33.6954
33.7949
33.5321
33.7345
33.697
33.7943
34.0805
33.8605
33.866
33.7744
33.8255
33.8609
33.7871
33.8361
33.8028
33.8162
33.7853
33.7781
33.8173
33.7884
33.263
33.3433
33.3052
33.348
33.3365
33.3233
33.4009
33.359
33.539
33.6904
33.5923
33.6112
33.7056
33.6082
33.6383
33.214
33.3147
33.191
33.1432
33.0832
33.2792
33.2758
33.2444
33.1486
33.631
33.4774
33.6616
33.5167
33.6831
33.5363
33.7084
33.751
33.7849
33.2822
33.4575
33.4357
33.3675
33.5077
33.4915
33.8803
34.0022
33.8032
33.8733
33.9575
33.6187
33.7025
33.6556
33.6584
33.736
34.1619
34.3162
34.1184
34.1403
34.2824
33.763
33.7915
33.7588
33.8232
33.7871
33.8281
33.7817
33.8414
33.8058
33.7269
33.6964
33.7846
33.4653
33.7032
33.688
33.7667
34.0763
33.884
33.8936
33.8021
33.849
33.8891
33.8224
33.8672
33.7592
33.8213
33.8035
33.7591
33.8308
33.7727
33.4376
33.5513
33.4267
33.477
33.4407
33.5759
33.5791
33.5607
33.6774
33.7505
33.787
33.7696
33.8319
33.6911
33.7623
33.4392
33.5817
33.383
33.3664
33.2464
33.5426
33.5038
33.5051
33.3712
33.7613
33.6104
33.7684
33.685
33.8619
33.6939
33.8404
33.8235
33.8722
33.483
33.5847
33.5734
33.6136
33.6762
33.6764
33.8755
33.9312
33.8709
33.888
33.9113
33.7155
33.7836
33.7838
33.7862
33.8412
34.0933
34.2083
33.9946
34.032
34.0829
33.8304
33.8796
33.8097
33.8694
33.8288
33.9055
33.8497
33.905
33.8605
33.6629
33.6713
33.7406
33.3948
33.6096
33.6472
33.7057
33.9391
33.9213
33.9354
33.8471
33.8881
33.9244
33.8709
33.909
33.7659
33.844
33.8351
33.7897
33.856
33.7345
33.6875
33.8188
33.7012
33.7088
33.6848
33.8369
33.8414
33.7919
33.9029
33.9184
34.0786
34.0379
33.9819
33.8612
34.0085
33.7392
33.913
33.6369
33.6597
33.5186
33.854
33.7835
33.8266
33.6842
33.9846
33.809
33.9263
33.9863
34.116
33.9241
34.0078
33.9435
34.037
33.7559
33.7917
33.7908
33.904
33.9148
33.9147
33.899
33.9056
33.972
33.9078
33.9114
33.8685
33.9076
33.9616
33.9595
33.9808
33.9614
33.941
33.8193
33.8968
33.8008
33.9372
34.0025
33.8934
33.9471
33.8966
34.0125
33.948
33.999
33.9442
33.5509
33.6149
33.6675
33.3329
33.4932
33.5923
33.6279
33.7496
33.9768
34.0034
33.899
33.9355
33.9815
33.9256
33.959
33.7995
33.868
33.853
33.8139
33.8767
33.7246
33.9659
34.1462
33.9784
33.9712
33.9252
34.1665
34.1158
34.1332