/*--------------------------------*- C++ -*----------------------------------*\
| =========                 |                                                 |
| \\      /  F ield         | OpenFOAM: The Open Source CFD Toolbox           |
|  \\    /   O peration     | Version:  5.x                                   |
|   \\  /    A nd           | Web:      www.OpenFOAM.org                      |
|    \\/     M anipulation  |                                                 |
\*---------------------------------------------------------------------------*/
FoamFile
{
    version     2.0;
    format      ascii;
    class       volVectorField;
    location    "8.95";
    object      U;
}
// * * * * * * * * * * * * * * * * * * * * * * * * * * * * * * * * * * * * * //

dimensions      [0 1 -1 0 0 0 0];

internalField   nonuniform List<vector> 
10571
(
(0.00158861 0.100333 0.755321)
(0.0288907 0.00958441 0.589535)
(-0.0472432 -0.168755 0.76164)
(-0.106736 -0.321438 0.929927)
(-0.248493 -0.287531 0.895953)
(-0.124562 -0.0386755 0.773363)
(-0.317411 -0.293671 0.923955)
(-0.112015 -0.349119 0.926814)
(-0.0545695 -0.250517 0.978504)
(-0.00877912 -0.0799934 0.874131)
(0.125796 0.02342 0.763049)
(-0.197528 -0.0952328 0.929815)
(-0.382478 -0.0131957 0.948979)
(-0.0881314 0.0189325 0.974085)
(0.0255116 0.0690926 1.01622)
(0.0971767 0.0553962 0.890768)
(-0.0706399 -0.0322156 0.853295)
(-0.228511 0.157997 0.955827)
(-0.0344665 0.293363 1.01835)
(0.0799293 0.314603 0.960174)
(-0.0712968 0.105007 0.869474)
(0.0924928 0.130504 1.06824)
(-0.0482275 0.274714 1.09808)
(-0.0938506 0.0691733 0.889017)
(0.224289 -0.00662094 1.53254)
(0.115399 -0.0695897 0.640456)
(0.404759 -0.0256709 0.890609)
(0.0292655 -0.0242854 0.946509)
(-0.312061 -0.237477 0.905484)
(0.281374 0.115189 0.959864)
(0.0605771 0.0478629 0.425719)
(0.0334037 0.0717314 0.448295)
(-0.0544125 0.0673161 0.475277)
(-0.187542 -0.00955571 0.87015)
(0.125341 0.332972 1.41243)
(0.494699 0.40439 1.1721)
(0.0825465 0.0672793 0.395558)
(0.0161997 0.0475238 0.460025)
(-0.0879626 0.0135021 0.491211)
(-0.130369 0.0414557 0.684122)
(0.129925 0.141343 0.826099)
(0.137463 0.11935 0.601636)
(-0.02529 0.0690704 0.64364)
(-0.018786 0.11698 0.670176)
(-0.175512 0.196761 0.659024)
(0.854063 0.225321 1.34893)
(-0.0119808 0.318799 1.52417)
(-0.106784 0.193129 0.919891)
(-0.00303175 0.0807244 1.60046)
(-0.0318673 0.00580803 0.249057)
(-0.189504 0.0255026 0.281436)
(0.0728352 0.220107 0.762564)
(0.171226 0.0779867 0.210895)
(-0.0130587 -0.0145629 0.215063)
(0.0817482 0.290415 0.908371)
(0.0185604 0.316339 0.838327)
(-0.0335461 0.0535754 0.953385)
(-0.0175051 0.00384345 0.626711)
(0.0102654 -0.00161016 0.314364)
(-0.00723747 0.0232475 0.254836)
(0.12292 -0.000290369 1.13866)
(-0.0146289 -0.0215246 0.987528)
(-0.0463315 -0.0301068 0.829964)
(-0.0208355 0.00198633 0.417474)
(-0.00549909 0.013791 0.384141)
(-0.0150592 -0.252691 0.492947)
(-0.0578025 -0.256683 0.309609)
(-0.00795854 -0.0842991 0.00458021)
(0.02444 -0.00108807 0.193133)
(-0.0920686 -0.121204 0.545286)
(-0.0297752 -0.281185 1.85807)
(-0.162476 0.0660892 0.749273)
(0.132785 -0.103042 1.96414)
(0.0700153 -0.0300763 -0.000897179)
(0.534105 -0.112126 0.572887)
(-0.0763737 -0.184341 1.24177)
(-0.383503 -0.226191 0.145217)
(0.121766 0.0240582 -0.0610971)
(0.337084 0.253318 0.804807)
(-0.13338 0.193249 0.687264)
(-0.207807 0.118102 0.33624)
(-0.0173941 0.0694498 0.234523)
(-0.0243815 -0.0112112 0.409037)
(0.0952215 -0.0207789 0.0188676)
(0.243121 0.0475783 0.763211)
(-0.0407776 0.0995316 0.450097)
(-0.0851378 0.0440518 0.30484)
(-0.0453827 0.0235419 -0.0564244)
(0.165976 0.0643861 -0.153851)
(0.262284 -0.0050603 0.490738)
(-0.135444 0.208942 0.561464)
(-0.194251 0.186484 -0.0668752)
(-0.0881855 0.147019 -0.0237546)
(0.177714 -0.0133413 0.804492)
(0.141319 -0.374702 1.33125)
(-0.151116 0.175799 0.982446)
(5.10989e-05 0.00304723 1.4538)
(0.0230095 0.00491879 0.0115669)
(-0.0245165 -0.0428178 0.22758)
(0.0201341 0.0170206 0.844909)
(0.05388 0.0572363 0.0631484)
(0.0395175 0.0696146 0.0371415)
(0.241182 0.206129 0.586298)
(-0.0415874 0.157237 0.565966)
(-0.117682 0.175124 0.330333)
(-0.0654786 0.094317 0.220262)
(-0.000692535 -0.0142954 0.501998)
(0.0252893 0.0104449 0.2416)
(0.15435 0.211825 0.695435)
(0.0337773 0.168063 0.586748)
(-0.0638745 0.127992 0.354522)
(-0.0350577 0.0525031 -0.138672)
(0.157228 0.118605 -0.190637)
(0.192735 0.0894404 0.552317)
(-0.0548963 0.181163 0.627341)
(-0.120914 0.0703415 0.0992772)
(-0.0412416 0.19062 0.0483059)
(0.321655 0.0539556 0.666055)
(-0.0329504 -0.126444 0.993378)
(-0.164659 0.105953 0.890996)
(-0.0344669 0.0113148 1.38759)
(-0.0193362 0.0401224 0.0459229)
(-0.113888 0.0342716 0.199225)
(0.0526787 0.02238 0.739573)
(0.218422 0.181308 0.092531)
(-0.022133 0.00734895 0.146912)
(0.150805 0.20933 0.583305)
(-0.0137153 0.16132 0.65144)
(-0.0413914 0.211236 0.291565)
(0.0100841 0.0710737 0.0635724)
(-0.0952576 0.029588 0.00729825)
(0.017513 0.01459 0.42724)
(0.0285406 0.0651093 0.238167)
(0.133685 0.224295 0.73892)
(0.0588693 0.168732 0.684825)
(-0.0120627 0.170929 0.37176)
(-0.0101247 -0.0488262 0.0047878)
(0.107708 -0.0254947 0.0839514)
(0.0158143 0.0517841 -0.0290407)
(0.154826 0.131215 0.688015)
(-0.00735566 0.206431 0.794616)
(0.186936 0.121481 0.351612)
(-0.0475376 0.0511923 -0.00318519)
(0.228356 0.0691021 0.673082)
(-0.0483045 -0.127006 1.10154)
(-0.0568097 0.0851003 1.11931)
(-0.0673157 0.00926328 1.18075)
(0.0110041 0.0093525 -0.00160698)
(-0.0780123 0.0793787 0.201737)
(-0.00667974 0.144167 0.502438)
(0.16731 0.181918 0.0798186)
(0.00836691 0.0127218 0.1904)
(0.115205 0.20055 0.478522)
(0.0064484 0.160209 0.643176)
(-0.0201573 0.188644 0.291255)
(-0.0969321 -0.0206009 0.0665075)
(-0.0247506 -0.00149806 0.0125561)
(0.00726819 -0.0153522 0.378108)
(0.0562925 0.00530744 0.228338)
(0.11826 0.225307 0.70453)
(0.069217 0.167806 0.698993)
(0.0236325 0.114789 0.408521)
(0.0559332 -0.105984 0.0950031)
(0.0579573 -0.0273015 0.101697)
(0.0327881 0.00633395 0.0507991)
(0.132097 0.0826463 0.755979)
(0.038378 0.187594 0.897663)
(0.221464 0.141248 0.481266)
(0.00434618 -0.0634044 0.00290964)
(-0.0395261 -0.0295931 -0.0551918)
(0.0324793 0.0749069 0.722962)
(-0.0895477 -0.0727078 1.1528)
(0.00654941 0.0873679 1.21499)
(-0.110646 0.00445102 1.00395)
(0.0250581 -0.00250674 -0.0468606)
(-0.0522408 0.088255 0.191541)
(-0.0528276 0.134949 0.334171)
(0.0580478 0.0759184 0.135711)
(0.0354853 -0.00119319 0.212127)
(0.0681306 0.172367 0.402176)
(0.035201 0.136162 0.61447)
(0.000370656 0.122276 0.318694)
(-0.0829738 -0.0890407 0.138219)
(0.0141702 -0.0378491 0.0426552)
(0.0084636 -0.0307388 0.357983)
(0.0708569 -0.0536352 0.241689)
(0.107316 0.192289 0.666513)
(0.0654362 0.147751 0.70251)
(0.0699517 -0.066153 0.444633)
(0.079324 -0.152536 0.145899)
(0.0271165 -0.00753907 0.122703)
(0.0251626 -0.0309467 0.0275029)
(0.100864 0.0201575 0.748638)
(0.0574259 0.113853 0.912054)
(0.225923 0.0744842 0.578823)
(0.102216 -0.145744 0.0214587)
(0.00980333 0.000582074 -0.0652244)
(-0.0675718 0.0759774 0.801359)
(-0.105338 -0.00453877 1.14529)
(0.074436 0.0469578 1.35817)
(-0.0371974 0.0352708 0.86404)
(0.0339644 -0.00989201 -0.0546755)
(-0.0244497 0.109752 0.17848)
(0.0505443 0.176277 0.226711)
(-0.040999 -0.0239888 0.217228)
(0.082598 -0.0631484 0.219088)
(0.0580918 0.152621 0.396964)
(0.0460788 0.0996013 0.609927)
(0.0283813 0.0162935 0.425648)
(-0.0864825 -0.158606 0.166605)
(0.0603036 -0.0629646 -0.0238838)
(0.0134389 -0.0610207 0.299223)
(0.0709908 -0.0663248 0.248549)
(0.109442 0.114787 0.65826)
(0.0429065 0.0833231 0.726038)
(0.07667 -0.200223 0.497404)
(0.0604952 -0.181686 0.198509)
(0.0465675 0.0011071 0.0840851)
(-0.0151212 -0.0877571 0.0417188)
(0.0147148 -0.0713444 0.737255)
(-0.0248634 -0.0220669 0.9206)
(0.121768 -0.132687 0.581003)
(0.115548 -0.163266 0.0702401)
(-0.133945 0.0597509 0.880956)
(-0.132433 0.0129497 1.10962)
(0.120771 -0.0550024 1.35943)
(-0.0154177 0.0569538 0.284433)
(0.0218257 0.00783997 -0.0457081)
(0.00345778 0.127974 0.178728)
(0.0252197 0.175204 0.196245)
(-0.09747 -0.0625036 0.255803)
(0.115843 -0.0891585 0.188779)
(0.0539894 0.12352 0.427282)
(0.0351632 0.0630684 0.643272)
(0.0388919 -0.0575078 0.499943)
(-0.091775 -0.146851 0.179474)
(0.00904558 -0.0659669 0.226805)
(0.0503397 -0.0678454 0.261847)
(0.0882863 -0.0142186 0.688381)
(0.0141524 -0.0125211 0.790608)
(0.0692625 -0.23641 0.549952)
(-0.0143682 -0.104727 0.222426)
(-0.0363731 -0.109279 0.0918967)
(-0.0552438 -0.177045 0.72903)
(-0.13573 -0.132116 0.887192)
(0.0821464 -0.346349 0.474779)
(0.0764003 -0.142615 0.154473)
(-0.216158 -0.0537243 0.855819)
(-0.250102 -0.0459227 0.861846)
(0.171819 -0.10951 1.13862)
(-0.0533122 0.00482134 0.0720731)
(0.00187837 0.0202522 -0.0583134)
(0.0180635 0.10986 0.185337)
(-0.0957535 0.109627 0.209366)
(-0.125391 -0.0781503 0.258462)
(0.142822 -0.105382 0.144504)
(0.0274199 0.0682985 0.504099)
(0.0121737 0.00435768 0.701806)
(0.0432658 -0.088992 0.572012)
(-0.0664319 -0.114489 0.163288)
(0.00173967 -0.0505191 0.163376)
(0.0242566 -0.0601098 0.315149)
(0.0407189 -0.106127 0.736532)
(0.0090485 -0.0696345 0.845949)
(0.0658435 -0.19538 0.607278)
(0.0123917 -0.0906037 0.244714)
(-0.0383805 -0.0914047 0.147739)
(-0.0720618 -0.243411 0.706379)
(-0.138946 -0.146872 0.814626)
(0.0727364 -0.247825 0.407694)
(0.0209433 -0.0843808 0.156967)
(-0.166063 -0.102035 0.696539)
(-0.233849 0.0109464 0.674228)
(-0.0390392 -0.0538674 0.523438)
(-0.0464445 -0.00459874 0.01391)
(-0.0283429 0.0294988 -0.0698512)
(0.00681259 0.0675541 0.228065)
(-0.156626 0.0753922 0.208295)
(-0.127254 -0.0686899 0.252738)
(0.1486 -0.111074 0.126624)
(-0.01861 0.0111054 0.591452)
(-0.0130372 -0.0712 0.755218)
(0.0420455 -0.112513 0.602129)
(-0.0433955 -0.0957782 0.133781)
(0.00938205 -0.0294844 0.0696324)
(-0.0199929 -0.0900904 0.374427)
(-0.0148695 -0.131473 0.784722)
(0.00827085 -0.0895367 0.862575)
(0.0605301 -0.118292 0.621851)
(0.0187835 -0.0289363 0.247836)
(-0.043364 -0.0551614 0.188699)
(-0.0682843 -0.258385 0.668867)
(-0.0958426 -0.156217 0.713805)
(0.0581814 -0.121413 0.340408)
(-0.0164395 -0.00893457 0.138658)
(-0.137487 -0.0602896 0.427321)
(0.0113953 -0.038519 0.562375)
(0.021993 -0.025129 0.222105)
(-0.0187361 -0.00534519 0.00204631)
(-0.0365323 0.0206495 -0.0427861)
(-0.0099113 0.0158723 0.282914)
(-0.174256 0.0312841 0.215396)
(-0.117212 -0.0740021 0.25516)
(0.112617 -0.149222 0.149148)
(-0.0664167 -0.0548157 0.664946)
(-0.0274338 -0.127873 0.765476)
(0.040297 -0.124867 0.596316)
(-0.000306861 -0.0373863 0.148377)
(-0.00589762 -0.0162411 0.00627167)
(-0.0671567 -0.141874 0.407415)
(-0.0538299 -0.113745 0.808548)
(0.00653992 -0.0866919 0.857923)
(0.0676955 -0.052408 0.601658)
(0.0179327 0.0109019 0.231586)
(-0.0621217 -0.0215843 0.218769)
(-0.0685253 -0.233588 0.643353)
(-0.0451862 -0.177167 0.670559)
(0.0456679 -0.0663259 0.304492)
(-0.0294313 0.0427298 0.147408)
(-0.0705042 0.0107745 0.259014)
(0.108319 -0.140489 0.380112)
(0.0368263 -0.0263533 0.156467)
(0.0141047 -0.00562832 0.0349869)
(-0.0404222 0.00234833 0.038892)
(-0.0323457 -0.0486142 0.327859)
(-0.158346 -0.0264373 0.264859)
(-0.0918559 -0.0954728 0.272854)
(0.0127643 -0.171687 0.21463)
(-0.0990228 -0.114416 0.675443)
(-0.0222666 -0.152295 0.732347)
(0.0335034 -0.136335 0.56512)
(0.0387298 0.0260412 0.176179)
(-0.00447819 0.0196553 0.0285945)
(-0.050983 -0.174671 0.39781)
(-0.0664807 -0.094964 0.795793)
(0.00822928 -0.0612023 0.832409)
(0.0767083 -0.0341269 0.570309)
(0.00797374 0.0230321 0.213738)
(-0.0479864 0.0141592 0.263697)
(-0.0842131 -0.167826 0.593955)
(0.0317504 -0.146455 0.631096)
(0.0514618 -0.0411197 0.303649)
(-0.030061 0.0519949 0.173098)
(-0.0143952 0.040742 0.23199)
(0.109823 -0.119625 0.299452)
(0.0321527 -0.0153358 0.175833)
(0.0513741 -0.00334786 0.106127)
(-0.0530631 -0.00179218 0.152242)
(-0.047431 -0.113189 0.385284)
(-0.124415 -0.0669017 0.336419)
(-0.0730612 -0.101959 0.312838)
(-0.0711927 -0.151462 0.267392)
(-0.0942887 -0.165942 0.62567)
(-0.00882729 -0.171321 0.666315)
(0.0157651 -0.144535 0.522036)
(0.0570413 0.0676712 0.187906)
(0.00261656 0.0719793 0.0843036)
(-0.017907 -0.152891 0.382023)
(-0.0773063 -0.108002 0.742508)
(0.0198724 -0.0551639 0.762902)
(0.0643384 -0.048147 0.540577)
(-0.00452357 0.0395635 0.21604)
(0.0286472 0.074645 0.288821)
(-0.0491513 -0.0558856 0.498088)
(0.0664814 -0.087125 0.567358)
(0.0521361 -0.0218506 0.326796)
(-0.0251508 0.0443306 0.194782)
(0.0516125 0.0530375 0.257502)
(0.0492876 -0.0176738 0.303032)
(0.0331071 -0.00333161 0.213092)
(0.086803 0.00155979 0.196238)
(-0.078532 0.0166736 0.256767)
(-0.0402999 -0.150046 0.463155)
(-0.0866994 -0.082246 0.417602)
(-0.0294622 -0.0534491 0.377238)
(-0.0861436 -0.054592 0.262884)
(-0.0649735 -0.195317 0.598574)
(-0.0207593 -0.176176 0.614747)
(-0.0138927 -0.126301 0.483218)
(0.0558634 0.10628 0.185458)
(0.00623115 0.090378 0.154179)
(-0.0333385 0.0598812 0.31125)
(-0.0923043 -0.143106 0.634142)
(0.0232007 -0.0883021 0.680905)
(0.0364097 -0.0592257 0.519299)
(-0.0150888 0.0506952 0.241401)
(0.055134 0.120156 0.299921)
(0.0326983 -0.0036025 0.44233)
(0.0608296 -0.0496472 0.517)
(0.0486999 -0.0233493 0.359977)
(-0.0203106 0.0417426 0.208179)
(0.0899238 0.0493 0.295625)
(0.0363642 -0.00360435 0.30689)
(0.0380394 -0.00600581 0.239309)
(0.108602 0.0074165 0.288193)
(-0.107809 0.0564528 0.301069)
(-0.0376708 -0.154652 0.545193)
(-0.0526386 -0.0785378 0.500817)
(0.0528043 0.0526939 0.414668)
(-0.060466 0.0556493 0.212473)
(-0.0546322 -0.196235 0.611089)
(-0.0569398 -0.142875 0.594052)
(-0.0343703 -0.066839 0.457955)
(0.0450295 0.139718 0.185086)
(0.00636627 0.0799655 0.185737)
(-0.0210879 0.118444 0.24169)
(-0.0640864 -0.125031 0.594283)
(0.00878539 -0.11621 0.607778)
(0.0132677 -0.0558186 0.506915)
(-0.0112687 0.0466457 0.279007)
(0.0699738 0.0918071 0.29702)
(0.0990022 0.00229255 0.412805)
(0.0606045 -0.03003 0.485048)
(0.0618791 -0.0351088 0.392694)
(-0.0171619 0.0389418 0.22056)
(0.122287 0.0371419 0.326114)
(0.0321894 -0.00600337 0.319454)
(0.0341961 -0.0118958 0.24779)
(0.0476063 0.00496598 0.348064)
(-0.115068 0.0880294 0.294147)
(-0.00401473 -0.125675 0.598135)
(0.0119274 -0.0541802 0.567615)
(0.102435 0.0975476 0.420163)
(-0.0338488 0.110629 0.178871)
(-0.0406328 -0.166268 0.654193)
(-0.0781358 -0.101932 0.598383)
(-0.0300639 0.00752129 0.44916)
(0.0199154 0.148434 0.196509)
(0.00615465 0.0857485 0.191131)
(0.00526856 0.0864364 0.230165)
(0.0289566 -0.0454674 0.561142)
(0.00216216 -0.115145 0.568707)
(0.00681071 -0.0398671 0.502049)
(0.00289962 0.0422364 0.31391)
(0.0744607 0.0745953 0.264219)
(0.12541 -0.0110423 0.410477)
(0.0650666 -0.0220476 0.46789)
(0.0749179 -0.0320951 0.423632)
(-0.00960467 0.0312694 0.243658)
(0.124568 0.00509475 0.349029)
(0.019966 -0.00572009 0.329852)
(0.0177247 -0.00964022 0.245331)
(-0.0564127 -0.00563702 0.338828)
(-0.107867 0.0958266 0.277302)
(0.00245748 -0.0600522 0.602534)
(0.11019 -0.0198161 0.5939)
(0.139788 0.131482 0.381126)
(-0.0379434 0.138248 0.182337)
(0.0326551 -0.0946963 0.667013)
(-0.0714206 -0.0949029 0.61028)
(-0.00487616 0.0687867 0.462849)
(-0.0230073 0.121168 0.222743)
(0.00909646 0.100761 0.187483)
(0.0383986 0.0862241 0.237441)
(0.125234 0.0299156 0.545118)
(0.0133845 -0.103326 0.563819)
(0.00625583 -3.30948e-05 0.507049)
(0.0179215 0.0409581 0.345036)
(0.0644391 0.0675667 0.238457)
(0.128128 -0.0204735 0.434796)
(0.0651051 -0.0217771 0.462795)
(0.0711411 -0.0159392 0.446607)
(0.000650473 0.0238382 0.276198)
(0.0502045 -0.0339157 0.369744)
(-0.00187439 -0.00131749 0.33055)
(-0.0109344 0.00402468 0.252893)
(-0.0548044 -0.0132497 0.318624)
(-0.101104 0.0948357 0.269338)
(-0.107711 0.028996 0.498881)
(0.078851 0.0408033 0.596865)
(0.145664 0.0855911 0.282034)
(-0.0314995 0.133003 0.212138)
(0.117475 0.00797756 0.64985)
(-0.031787 -0.0945928 0.65177)
(0.0328935 0.127455 0.490348)
(-0.0672408 0.0865554 0.247223)
(0.0107138 0.0992788 0.179051)
(0.0564669 0.082236 0.242926)
(0.170554 0.0809114 0.550003)
(0.0369156 -0.0741288 0.579862)
(0.00132241 0.0658435 0.526558)
(0.030674 0.04324 0.371751)
(0.0337655 0.0155764 0.24004)
(0.134283 0.0049379 0.463109)
(0.0538506 -0.0252613 0.465008)
(0.0415691 0.024109 0.471098)
(0.0110579 0.0186141 0.31027)
(-0.0146593 -0.0281394 0.355044)
(-0.0161848 0.00233732 0.329124)
(-0.0426672 0.0229333 0.26938)
(-0.00418533 -0.0109676 0.32787)
(-0.0782786 0.0804251 0.264391)
(-0.105229 0.0737296 0.397536)
(-0.0339618 -0.035448 0.451207)
(0.107555 0.0251696 0.218538)
(-0.00921081 0.101349 0.243616)
(0.0768944 0.108307 0.621121)
(-0.00185976 -0.0253433 0.715315)
(0.058489 0.184823 0.517425)
(-0.0898291 0.0666719 0.267484)
(0.00879888 0.0787215 0.179347)
(0.0583262 0.0713252 0.266032)
(0.158287 0.145264 0.551196)
(0.0282485 -0.0227061 0.621391)
(0.00212283 0.126116 0.550345)
(0.0390242 0.0401018 0.392948)
(0.00966835 -0.0268787 0.260008)
(0.119747 0.090028 0.487237)
(0.0236255 -0.0233183 0.483158)
(0.0114576 0.0789711 0.503986)
(0.0225316 0.00973536 0.345856)
(-0.0359976 0.0104015 0.339961)
(-0.0150721 0.00120031 0.336237)
(-0.068213 0.0389155 0.292247)
(0.033689 0.0065569 0.263146)
(-0.0322025 0.0340866 0.259179)
(-0.0859584 0.080406 0.319916)
(-0.00984479 -0.0179387 0.298822)
(0.0630091 0.0390305 0.203118)
(0.00894925 0.0647999 0.270137)
(0.00151627 0.191802 0.574845)
(0.00845364 0.0990085 0.756817)
(0.0453857 0.209736 0.538021)
(-0.0955082 0.0231348 0.281415)
(0.00501248 0.0476209 0.186402)
(0.0519189 0.0606425 0.287563)
(0.0935171 0.208262 0.55893)
(0.0159757 0.0634833 0.680409)
(0.0163223 0.158407 0.571702)
(0.0427046 0.017899 0.40861)
(-0.00583301 -0.0496393 0.278175)
(0.0761039 0.161358 0.512486)
(0.00306332 0.00986162 0.526056)
(9.55493e-05 0.115667 0.535067)
(0.0333818 -0.0040727 0.387192)
(-0.0478784 0.0449213 0.360316)
(0.00112153 0.00190782 0.367139)
(-0.0752296 0.0429827 0.324245)
(0.0423539 0.0112558 0.183442)
(0.00356668 -0.00704226 0.24073)
(-0.0255797 0.0647137 0.268495)
(-0.00987756 0.0700287 0.20753)
(0.00561467 0.0502907 0.198607)
(0.00661247 0.0497171 0.284146)
(-0.0346929 0.203199 0.524386)
(0.0405303 0.172557 0.73632)
(0.0373038 0.209453 0.539006)
(-0.0740814 -0.0344649 0.273295)
(0.00185725 0.0202895 0.194982)
(0.0491217 0.0412882 0.293598)
(0.03732 0.228497 0.571515)
(0.0230928 0.135823 0.714516)
(0.0361817 0.158654 0.597425)
(0.0407392 -0.0147389 0.421674)
(-0.0195881 -0.0602835 0.304815)
(0.0360947 0.179397 0.546744)
(0.00420745 0.0686553 0.591266)
(0.00442413 0.122814 0.566335)
(0.0405745 -0.0200397 0.430718)
(-0.0612368 0.0416488 0.402638)
(0.0122028 0.0127164 0.418982)
(-0.0561542 0.0316972 0.358554)
(0.034559 0.00843249 0.133463)
(0.0171853 -0.021688 0.208759)
(0.020995 0.0359225 0.223845)
(-0.0194783 0.0964869 0.167255)
(-0.0375966 0.0280781 0.177379)
(-0.000745769 0.0506411 0.279713)
(-0.0340039 0.16744 0.470049)
(0.0817983 0.191036 0.668761)
(0.0317444 0.190303 0.530624)
(-0.0459319 -0.0681461 0.257317)
(-0.000189432 0.00328946 0.201672)
(0.04714 0.020487 0.293408)
(0.0152268 0.210789 0.580591)
(0.0344387 0.165466 0.734647)
(0.045694 0.124197 0.633531)
(0.0325962 -0.0405263 0.435153)
(-0.0335535 -0.0637411 0.339147)
(0.00432534 0.142295 0.586932)
(0.0186665 0.110713 0.651811)
(0.0112468 0.10488 0.60233)
(0.0432955 -0.0369883 0.462574)
(-0.0697775 0.00585627 0.435456)
(0.00831719 0.0338943 0.48513)
(-0.0223656 0.0166526 0.39329)
(0.0320882 0.00605344 0.107559)
(0.0272394 -0.0306187 0.171582)
(0.0278031 0.0210495 0.187553)
(-0.0334595 0.0934248 0.158212)
(-0.0583039 -0.00144048 0.158599)
(-0.00563767 0.0522095 0.256138)
(-0.0189777 0.128476 0.432319)
(0.064553 0.17693 0.603833)
(-0.00722714 0.118141 0.5283)
(-0.0169198 -0.0733446 0.248229)
(-0.00196431 -0.00734175 0.207826)
(0.0399689 0.00979917 0.298823)
(0.00866253 0.155417 0.593308)
(0.0359536 0.168157 0.746577)
(0.0334888 0.0623678 0.67544)
(0.0217181 -0.049956 0.446682)
(-0.0452827 -0.0632746 0.370479)
(-0.0379647 0.0591385 0.624778)
(0.0328819 0.124166 0.699032)
(0.00407048 0.0709539 0.639442)
(0.0439136 -0.055571 0.467391)
(-0.0678687 -0.0269189 0.434586)
(-0.0060942 0.0530075 0.551078)
(0.0103304 0.00435796 0.425337)
(0.0362451 0.00460579 0.0984542)
(0.0308016 -0.0338927 0.140573)
(0.0221642 0.0127459 0.167061)
(-0.0370698 0.0804566 0.16613)
(-0.0655729 -0.0212088 0.157656)
(-0.00608435 0.0447248 0.234773)
(-0.0112024 0.0925609 0.431856)
(-0.0216459 0.133657 0.549844)
(-0.0407666 0.0291141 0.500985)
(0.0100856 -0.0645418 0.241403)
(-0.00446929 -0.0187736 0.216282)
(0.0172264 0.0111754 0.316153)
(-0.0041461 0.061786 0.619597)
(0.0288454 0.160381 0.755667)
(0.00608689 0.0224428 0.695245)
(0.0170308 -0.0451983 0.449522)
(-0.0502499 -0.0586182 0.391087)
(-0.0757228 -0.00815234 0.634442)
(0.0396841 0.10778 0.732969)
(-0.0100473 0.030402 0.661496)
(0.0369066 -0.0561031 0.455768)
(-0.0560649 -0.0371861 0.413227)
(-0.0222424 0.0541358 0.594547)
(0.0254472 -0.00273782 0.454311)
(0.0477313 0.0042467 0.0984453)
(0.0329491 -0.0338306 0.126233)
(0.0184583 0.00412545 0.165699)
(-0.0236044 0.0634821 0.176358)
(-0.0596395 -0.0115143 0.175949)
(-0.00731338 0.0250713 0.228205)
(-0.015064 0.0545999 0.456092)
(-0.102375 0.0743204 0.512779)
(-0.0484065 -0.0362232 0.429249)
(0.0208661 -0.0538601 0.238325)
(-0.00697337 -0.0357646 0.233361)
(-0.0166735 0.0191879 0.340395)
(-0.0184608 -0.00376408 0.642516)
(0.0205786 0.136462 0.765654)
(-0.0126878 0.0136455 0.692408)
(0.0120214 -0.0306403 0.437262)
(-0.0539367 -0.049851 0.402459)
(-0.0956472 -0.037619 0.622146)
(0.0313757 0.0710386 0.75329)
(-0.00170361 -0.000314795 0.667997)
(0.0263129 -0.0405239 0.45438)
(-0.0471474 -0.036527 0.393219)
(-0.0360893 0.0414756 0.602636)
(0.0248532 -0.00852724 0.465791)
(0.0631801 0.00456092 0.103487)
(0.0399133 -0.0399141 0.127271)
(0.0121911 -0.00571697 0.174347)
(-0.0066524 0.0405507 0.187341)
(-0.035109 0.0150954 0.188773)
(-0.00782017 0.00631432 0.234633)
(-0.0227411 0.0220874 0.489279)
(-0.134831 0.0258638 0.496374)
(-0.0547563 -0.0681847 0.351335)
(0.00268568 -0.0523328 0.230528)
(-0.00874955 -0.0565064 0.258611)
(-0.0451416 0.0218064 0.367035)
(-0.0298289 -0.0315791 0.654419)
(-0.00517385 0.089076 0.765394)
(-0.0141828 0.0191955 0.682129)
(0.00525962 -0.0402045 0.411188)
(-0.0600173 -0.0384271 0.41589)
(-0.100154 -0.0407685 0.606146)
(-0.000178229 0.0401635 0.753744)
(0.0115626 -0.0066113 0.663166)
(0.0212618 -0.0282682 0.463996)
(-0.0413553 -0.0319241 0.386877)
(-0.0437466 0.0267844 0.582491)
(0.0119808 -0.00534962 0.464577)
(0.0791325 0.00578386 0.114084)
(0.0476153 -0.0498601 0.140243)
(0.0069221 -0.0174058 0.184458)
(-0.00275983 0.0279384 0.194346)
(-0.000709889 0.0264189 0.176282)
(-0.0096652 -0.0080292 0.252619)
(-0.0292994 -0.00118387 0.51738)
(-0.125957 -0.000285519 0.492947)
(-0.05896 -0.06674 0.300696)
(-0.0249595 -0.0515736 0.208809)
(-0.010055 -0.0802457 0.285508)
(-0.0502559 0.011566 0.394004)
(-0.0363818 -0.0368962 0.659165)
(-0.0458375 0.0462202 0.752042)
(-0.0176089 0.0404074 0.638661)
(0.00501009 -0.0617201 0.381668)
(-0.0635796 -0.0279577 0.436687)
(-0.0967756 -0.0319824 0.599162)
(-0.0427448 0.0298498 0.735882)
(0.0129678 0.017238 0.639608)
(0.0259001 -0.0204683 0.48526)
(-0.0353941 -0.0235335 0.396205)
(-0.0413224 0.014483 0.556644)
(-0.0145905 0.00498609 0.472999)
(0.0930344 0.00755124 0.127342)
(0.0572541 -0.0613296 0.16366)
(0.0118351 -0.0328557 0.195248)
(0.00440497 0.0232921 0.193696)
(0.0264824 0.0370222 0.1592)
(-0.0154157 -0.0223404 0.282169)
(-0.044375 -0.0140251 0.52776)
(-0.0893211 -0.013502 0.49883)
(-0.0503796 -0.0430192 0.27554)
(-0.0359201 -0.0408868 0.19643)
(-0.0106044 -0.100748 0.306454)
(-0.0347285 -0.00379357 0.414866)
(-0.0371776 -0.0347595 0.66168)
(-0.0696767 0.0257627 0.737207)
(-0.0399701 0.0593171 0.555721)
(-0.0129893 -0.0598743 0.358636)
(-0.062635 -0.0273696 0.461477)
(-0.0871966 -0.0112141 0.602461)
(-0.07033 0.029528 0.714932)
(-0.00947134 0.0751504 0.602551)
(0.0342925 -0.0241101 0.509147)
(-0.0290785 -0.0111436 0.416427)
(-0.036613 0.00722458 0.544359)
(-0.024256 0.00510188 0.490042)
(0.102852 0.00820233 0.144)
(0.0658477 -0.0702446 0.191747)
(0.0240721 -0.0475676 0.202951)
(0.0263706 0.0106499 0.191558)
(0.0406805 0.0460915 0.149852)
(-0.0114799 -0.0386237 0.318673)
(-0.0726281 -0.0199215 0.514428)
(-0.055932 -0.0193946 0.492335)
(-0.032582 -0.0141913 0.268764)
(-0.0400828 -0.0277345 0.19108)
(-0.0105246 -0.113439 0.322141)
(-0.0138214 -0.0180758 0.433703)
(-0.0393806 -0.0222388 0.663723)
(-0.0707516 0.0218338 0.729963)
(-0.0533938 0.0510212 0.503749)
(-0.0281238 -0.050882 0.33995)
(-0.0612006 -0.0402857 0.48127)
(-0.0717233 0.0190106 0.608338)
(-0.0742668 0.0291159 0.700595)
(-0.028341 0.0731761 0.580183)
(0.0425149 -0.0467766 0.508867)
(-0.0255431 0.00432064 0.441984)
(-0.0297519 0.00479299 0.544699)
(0.000325628 -0.00686781 0.492899)
(0.107354 0.00828741 0.163214)
(0.0706415 -0.0740539 0.215014)
(0.0364598 -0.0534712 0.210834)
(0.0439574 0.00405167 0.190071)
(0.0443387 0.0484797 0.152911)
(0.00462453 -0.0539897 0.35704)
(-0.0888951 -0.023014 0.487862)
(-0.0446621 -0.0173648 0.463577)
(-0.0148676 0.00763923 0.273132)
(-0.0370041 -0.0140755 0.184951)
(-0.0100675 -0.122752 0.3349)
(0.000130331 -0.0447724 0.449234)
(-0.0507237 0.0147679 0.655446)
(-0.0585024 0.0252288 0.724018)
(-0.0453896 0.0241856 0.485389)
(-0.0266137 -0.0367023 0.324915)
(-0.0685932 -0.0635389 0.488138)
(-0.0536176 0.0425087 0.60931)
(-0.0594452 0.031187 0.687182)
(-0.0273219 0.0448296 0.56984)
(0.0369913 -0.0687796 0.480865)
(-0.0303256 0.0157796 0.469625)
(-0.0155953 0.0162233 0.553042)
(0.0346724 -0.0134065 0.487712)
(0.107634 0.00863317 0.180547)
(0.0741735 -0.0763625 0.227379)
(0.0452139 -0.0531089 0.221598)
(0.0455511 0.00986465 0.190854)
(0.032639 0.0412658 0.172293)
(0.0240733 -0.0673529 0.391074)
(-0.0759273 -0.0224203 0.46948)
(-0.0435469 -0.00911294 0.428615)
(-0.00464459 0.0189634 0.282465)
(-0.0297052 -0.00206988 0.179962)
(-0.00925142 -0.126369 0.349047)
(0.00307459 -0.0818228 0.460186)
(-0.0540648 0.0488364 0.637102)
(-0.0263061 0.0372895 0.701236)
(-0.026899 -0.00781179 0.492684)
(-0.01506 -0.0206732 0.318037)
(-0.0786152 -0.0856307 0.480566)
(-0.0335774 0.0476631 0.612675)
(-0.0281846 0.0369971 0.663005)
(-0.00614746 0.0126319 0.566373)
(0.0222257 -0.069923 0.432872)
(-0.040548 0.00146988 0.487433)
(-0.00915009 0.0206605 0.558337)
(0.0628917 -0.023577 0.474842)
(0.104961 0.00892554 0.192752)
(0.0735786 -0.075061 0.230902)
(0.0478676 -0.0497125 0.232535)
(0.0333425 0.0195327 0.196824)
(0.0165276 0.0309315 0.19556)
(0.037598 -0.0761012 0.418255)
(-0.0259251 -0.0201929 0.456058)
(-0.0418082 -0.000986048 0.408386)
(-0.00375001 0.0220049 0.295657)
(-0.0224505 0.00564911 0.176061)
(-0.00916329 -0.112601 0.365613)
(-0.0114156 -0.112134 0.465761)
(-0.0425851 0.0585359 0.62043)
(-0.0149983 0.0460306 0.677115)
(-0.0116328 -0.0342965 0.511107)
(-0.00421163 -0.0112868 0.318938)
(-0.0826459 -0.102639 0.462096)
(-0.0153044 0.0300143 0.622338)
(-0.00859598 0.0416286 0.656023)
(0.0186223 -0.016066 0.571807)
(0.0140726 -0.0531857 0.399142)
(-0.0638074 -0.0269294 0.470862)
(-0.0055631 0.0121219 0.553625)
(0.0766476 -0.0317657 0.458489)
(0.100279 0.00887573 0.200747)
(0.0676417 -0.0702225 0.233234)
(0.0467592 -0.0470556 0.240904)
(0.0183969 0.0256381 0.203317)
(0.00110364 0.0213385 0.210793)
(0.040633 -0.0753942 0.437972)
(0.0258764 -0.0185522 0.451905)
(-0.0397429 0.00203218 0.406978)
(-0.00934046 0.0171758 0.310567)
(-0.0174567 0.00823843 0.173019)
(-0.0110747 -0.0854681 0.38896)
(-0.0353195 -0.12752 0.470839)
(-0.0296752 0.0465321 0.612327)
(-0.0113683 0.0520446 0.654294)
(0.000414504 -0.051602 0.528576)
(0.00317089 -0.0080816 0.324611)
(-0.076768 -0.0967759 0.442097)
(-0.00541732 -0.0260206 0.624635)
(0.0107282 0.0402979 0.670205)
(0.0340609 -0.0296375 0.587518)
(0.0149779 -0.0388674 0.379445)
(-0.0845454 -0.0280076 0.445334)
(-0.0159689 -0.0259827 0.504773)
(0.0638548 -0.0296352 0.437398)
(0.0925729 0.00821176 0.208458)
(0.0572645 -0.0615271 0.239255)
(0.0477741 -0.0453413 0.247092)
(0.00588107 0.0261417 0.209732)
(-0.00904507 0.0115575 0.219233)
(0.0309774 -0.0654923 0.448511)
(0.0603513 -0.0135357 0.453862)
(-0.0323339 0.00157641 0.417671)
(-0.016548 0.00631155 0.322901)
(-0.0142455 0.00569941 0.17228)
(-0.0102653 -0.0552756 0.417488)
(-0.0360012 -0.129129 0.485301)
(-0.0155975 0.00826272 0.611394)
(2.2157e-05 0.0484204 0.637954)
(0.012404 -0.0632167 0.54189)
(0.00884562 -0.0148676 0.334083)
(-0.0640251 -0.0728587 0.423624)
(-0.0199106 -0.084167 0.595428)
(0.0397968 0.0094731 0.685669)
(0.0461483 -0.0341551 0.607444)
(0.0213767 -0.036543 0.3721)
(-0.0649024 -0.0161874 0.428989)
(-0.0371149 -0.0178305 0.438204)
(0.0313915 -0.0101026 0.39913)
(0.0814073 0.00682013 0.219303)
(0.0506836 -0.0541631 0.244968)
(0.0501884 -0.0406555 0.253417)
(-0.00444957 0.0228868 0.220145)
(-0.0129578 0.00203739 0.227429)
(0.0147891 -0.0539432 0.4489)
(0.0771765 -0.00142493 0.454669)
(-0.0153665 -0.00673414 0.450849)
(-0.0192737 -0.00636179 0.332748)
(-0.0105837 -0.00396357 0.177762)
(-0.00712309 -0.0367459 0.431671)
(-0.0210039 -0.105472 0.515725)
(-0.0110775 -0.00935211 0.619306)
(0.00833336 0.0303312 0.635164)
(0.0183597 -0.0723609 0.554364)
(0.0126644 -0.0288479 0.347258)
(-0.0285208 -0.0418397 0.416892)
(-0.0399464 -0.105987 0.549818)
(0.059687 -0.0504558 0.676775)
(0.0611774 -0.0587613 0.619601)
(0.0252083 -0.0403466 0.37812)
(-0.016119 -0.00789514 0.401146)
(-0.0251864 -0.0059763 0.393844)
(0.0012833 0.00938384 0.358929)
(0.0670297 0.00508049 0.23438)
(0.052087 -0.0534436 0.251571)
(0.0504858 -0.0362567 0.263197)
(-0.014508 0.0168867 0.236905)
(-0.0120537 -0.00437072 0.23709)
(0.0106632 -0.0517316 0.440642)
(0.0748279 0.0120442 0.452287)
(-0.013181 -0.0118561 0.483542)
(-0.016933 -0.016061 0.340578)
(-0.010051 -0.0162942 0.191717)
(-0.00443102 -0.0284371 0.421932)
(-0.010654 -0.0761532 0.548003)
(-0.0129218 -0.00580751 0.63025)
(0.00782408 0.00442915 0.645525)
(0.0111915 -0.0753313 0.567125)
(0.0125264 -0.0375459 0.359848)
(0.0230728 -0.000292707 0.423197)
(-0.0400524 -0.093029 0.516149)
(0.0549466 -0.0847957 0.644928)
(0.0616178 -0.0848721 0.608579)
(0.0270615 -0.0434279 0.381408)
(0.0192103 0.00391106 0.367726)
(0.00139545 -0.000117272 0.36646)