/*--------------------------------*- C++ -*----------------------------------*\
| =========                 |                                                 |
| \\      /  F ield         | OpenFOAM: The Open Source CFD Toolbox           |
|  \\    /   O peration     | Version:  5.x                                   |
|   \\  /    A nd           | Web:      www.OpenFOAM.org                      |
|    \\/     M anipulation  |                                                 |
\*---------------------------------------------------------------------------*/
FoamFile
{
    version     2.0;
    format      ascii;
    class       volScalarField;
    location    "2";
    object      p;
}
// * * * * * * * * * * * * * * * * * * * * * * * * * * * * * * * * * * * * * //

dimensions      [0 2 -2 0 0 0 0];

internalField   nonuniform List<scalar> 
10571
(
192.715
118.206
163.334
192.386
236.775
122.468
159.036
193.918
261.849
264.966
132.015
137.087
160.993
228.763
273.839
214.46
145.693
180.019
234.506
251.531
204.871
191.756
224.238
227.689
68.3053
7.1193
30.4512
20.4618
86.2678
5.68969
16.9944
39.3491
75.7148
102.036
10.8564
8.60896
12.2849
57.019
35.4676
24.2898
16.0369
11.851
18.8047
30.9641
22.5559
67.1644
45.3019
19.0584
12.8595
7.87561
7.02472
12.4039
15.9997
8.13551
5.78497
8.65882
22.1997
37.594
8.31889
8.24195
7.22974
10.6291
9.71159
15.9265
7.57517
6.12196
6.29175
7.23339
10.7801
7.26662
6.76337
7.86526
6.68656
7.26893
6.7622
8.98548
10.4115
7.24022
7.27607
7.19895
9.50061
16.7742
7.34288
7.30405
7.08193
7.17233
6.3905
10.4106
7.14296
7.69827
7.27273
7.08317
7.61021
6.94959
6.98718
7.43088
6.56047
6.96564
6.75118
6.23078
6.59026
7.01014
6.81748
6.69476
6.68312
9.38992
7.16117
7.04696
6.3103
6.38281
5.95303
6.14025
7.08249
6.86105
6.682
6.52907
6.54315
6.69778
6.74042
6.80739
6.48485
6.73278
6.60437
6.4451
6.29665
6.78572
6.62593
6.5122
6.364
7.01222
6.39012
6.92089
6.82312
6.36835
6.41611
6.1201
6.21663
6.18897
6.84237
6.59972
6.4721
6.32954
6.19377
6.71943
6.63306
6.47085
6.46035
6.56772
6.51133
6.43232
6.31258
6.60624
6.49474
6.3589
6.33699
6.23816
6.34353
6.69446
6.60488
6.35312
6.40844
6.08032
6.20762
6.17949
6.6273
6.36632
6.5135
6.48
6.3719
6.18786
6.53203
6.60463
6.49366
6.39003
6.39043
6.33222
6.42512
6.34896
6.45255
6.3747
6.33788
6.3266
6.28021
6.29282
6.51488
6.4365
6.30137
6.32775
6.26094
6.21111
6.12533
6.44382
6.23377
6.3853
6.95216
6.6341
6.17757
6.43643
6.76334
6.8261
6.31171
6.21686
6.06758
6.29583
6.33334
6.3073
6.23525
6.2316
6.29837
6.29738
6.2987
6.36413
6.29411
6.22602
6.26859
6.26988
6.27296
6.14519
6.31047
6.19847
6.19098
6.09855
6.47579
6.24771
6.08831
6.17259
6.28522
6.13304
5.98416
6.22915
6.3343
6.1738
6.16953
6.18639
6.31426
6.3179
6.23608
6.17546
6.16898
6.24624
6.29117
6.30298
6.21262
6.17257
6.28234
6.32398
6.29592
6.15453
6.26571
6.25504
6.30205
6.13282
6.06097
6.24503
6.36277
6.12225
6.17952
6.18002
6.34891
6.36542
6.18935
6.085
6.12913
6.22962
6.32535
6.34438
6.20179
6.17445
6.33737
6.34548
6.35432
6.25835
6.32873
6.31199
6.36691
6.24293
6.20227
6.31453
6.4117
6.14422
6.22967
6.22085
6.39686
6.42495
6.2205
6.12142
6.19458
6.25955
6.37493
6.39656
6.30893
6.29441
6.38732
6.39266
6.43033
6.43744
6.4275
6.39289
6.45488
6.45674
6.35619
6.40006
6.46714
6.22415
6.3169
6.30706
6.45154
6.48702
6.3585
6.28014
6.33228
6.33072
6.4354
6.4506
6.49817
6.47071
6.44222
6.45161
6.47459
6.54686
6.50234
6.44373
6.53519
6.45932
6.45794
6.48023
6.51416
6.4079
6.43535
6.4136
6.49507
6.53063
6.52824
6.4767
6.45039
6.40796
6.49644
6.50618
6.68234
6.53094
6.49236
6.51225
6.52835
6.56714
6.52416
6.50003
6.59593
6.56799
6.54106
6.54923
6.54899
6.52657
6.54537
6.5052
6.52372
6.54265
6.66241
6.61056
6.51451
6.47379
6.54877
6.55257
6.70301
6.54854
6.53079
6.56341
6.57831
6.57758
6.55102
6.5633
6.63914
6.64102
6.60463
6.60032
6.57968
6.59768
6.61848
6.57158
6.55853
6.57039
6.70703
6.63979
6.55041
6.52913
6.57948
6.5753
6.6851
6.58477
6.58082
6.59605
6.61341
6.62961
6.59285
6.5993
6.66628
6.70655
6.65725
6.63671
6.60977
6.68307
6.65079
6.62014
6.59183
6.60361
6.74283
6.68847
6.58861
6.58445
6.60815
6.60277
6.72729
6.64288
6.61396
6.61874
6.6291
6.77022
6.64214
6.62246
6.6795
6.74197
6.69257
6.65678
6.62937
6.74793
6.70434
6.65374
6.61436
6.62015
6.85307
6.77793
6.65303
6.63387
6.62884
6.62568
6.76515
6.64209
6.63384
6.66267
6.64216
6.71486
6.66674
6.64897
6.68044
6.73014
6.69216
6.66032
6.63335
6.72568
6.72338
6.65814
6.62251
6.62832
6.82851
6.74151
6.66209
6.65477
6.6382
6.63595
6.76125
6.61237
6.59923
6.64508
6.64102
6.6725
6.65634
6.67312
6.67368
6.70392
6.67346
6.65464
6.63087
6.67637
6.67719
6.63867
6.61517
6.62352
6.72954
6.66465
6.63348
6.65234
6.62513
6.63285
6.69744
6.61295
6.58376
6.62904
6.63782
6.64755
6.63279
6.63654
6.66522
6.68624
6.65371
6.64534
6.63209
6.65455
6.64193
6.61963
6.60714
6.59483
6.67405
6.64012
6.62899
6.64194
6.6234
6.61811
6.6568
6.66567
6.59438
6.61615
6.62623
6.63003
6.62214
6.61709
6.65854
6.68254
6.64781
6.63683
6.63925
6.64768
6.62472
6.60613
6.60189
6.58233
6.65642
6.64086
6.62938
6.6246
6.61662
6.61689
6.64834
6.69444
6.64376
6.62949
6.63136
6.63331
6.61844
6.61715
6.65453
6.68661
6.65368
6.63342
6.65275
6.65644
6.62224
6.60485
6.60456
6.62189
6.64386
6.63423
6.63656
6.59948
6.59985
6.626
6.64243
6.66865
6.68568
6.64726
6.69584
6.63605
6.62191
6.6284
6.65112
6.68285
6.65834
6.63324
6.66361
6.65661
6.63476
6.61451
6.62061
6.65834
6.63141
6.621
6.63973
6.57986
6.57952
6.61914
6.6327
6.64428
6.67321
6.63143
6.63119
6.63425
6.62585
6.62717
6.64836
6.66898
6.65864
6.63172
6.6634
6.65076
6.6384
6.62379
6.62468
6.67268
6.62587
6.61222
6.61688
6.57261
6.56175
6.57552
6.62073
6.62002
6.65004
6.59757
6.57879
6.62602
6.62351
6.6154
6.6475
6.66057
6.66146
6.6324
6.64968
6.64452
6.62118
6.63001
6.62188
6.64767
6.62833
6.61181
6.57474
6.5754
6.57582
6.58413
6.61369
6.59206
6.62715
6.57581
6.56275
6.61385
6.61728
6.60219
6.64467
6.65774
6.66725
6.63526
6.63117
6.6421
6.6106
6.63013
6.60815
6.62015
6.6348
6.62043
6.55973
6.60163
6.58632
6.59682
6.61698
6.57647
6.59903
6.56742
6.57482
6.60597
6.6121
6.59574
6.63897
6.65649
6.65904
6.62428
6.61469
6.64134
6.62997
6.62546
6.60768
6.60289
6.64113
6.6329
6.56969
6.64057
6.59176
6.58255
6.62867
6.58926
6.57336
6.56736
6.57909
6.60969
6.61285
6.59709
6.64838
6.65821
6.65419
6.62148
6.61017
6.6424
6.64969
6.63334
6.6218
6.61043
6.64971
6.64287
6.59648
6.69836
6.61497
6.59655
6.64287
6.61239
6.59059
6.56903
6.58589
6.62414
6.62299
6.60618
6.68657
6.66378
6.66452
6.65447
6.63666
6.65306
6.65961
6.67365
6.64178
6.63929
6.65992
6.6495
6.63524
6.72106
6.6612
6.64281
6.65633
6.63746
6.62655
6.58698
6.61991
6.64261
6.63758
6.62361
6.7144
6.67096
6.67187
6.68553
6.67592
6.66484
6.66938
6.69605
6.6603
6.67311
6.67162
6.6648
6.66649
6.69468
6.69183
6.67409
6.67028
6.65686
6.64561
6.63027
6.66582
6.65879
6.64947
6.64464
6.70474
6.67276
6.67331
6.6753
6.69324
6.67299
6.67122
6.69095
6.67093
6.68994
6.68117
6.67656
6.68358
6.6692
6.67802
6.67529
6.6795
6.66572
6.65395
6.65827
6.67932
6.66926
6.65564
6.65658
6.69559
6.68025
6.67861
6.67716
6.69201
6.67916
6.67465
6.68598
6.65948
6.68099
6.68585
6.6804
6.68525
6.65471
6.63777
6.65231
6.68148
6.66896
6.65623
6.65049
6.65722
6.67195
6.65815
6.65662
6.6954
6.69157
6.68816
6.68499
6.68999
6.68795
6.68066
6.66863
6.63858
6.66397
6.69152
6.68543
6.67905
6.64668
6.59909
6.62288
6.68265
6.66991
6.65669
6.62869
6.62888
6.67169
6.66185
6.65518
6.70003
6.70071
6.69477
6.7013
6.692
6.69626
6.67822
6.66633
6.62289
6.65294
6.69702
6.69283
6.67732
6.64786
6.60043
6.61817
6.68491
6.67194
6.66164
6.62049
6.62102
6.6732
6.66916
6.66255
6.70694
6.70573
6.69671
6.71488
6.68801
6.70078
6.68362
6.66837
6.61577
6.65687
6.69894
6.69381
6.68077
6.65971
6.63202
6.63205
6.688
6.67765
6.67405
6.6373
6.64766
6.67835
6.68098
6.68365
6.70341
6.7087
6.70192
6.69552
6.66828
6.70379
6.68939
6.65795
6.64621
6.67027
6.69926
6.69532
6.68649
6.67974
6.66272
6.66358
6.69413
6.68264
6.68937
6.67533
6.69249
6.68389
6.69051
6.70611
6.70079
6.70867
6.70646
6.6905
6.65501
6.70266
6.69352
6.67204
6.68413
6.68579
6.70402
6.69931
6.68964
6.69506
6.68342
6.72056
6.69882
6.68396
6.69035
6.69923
6.74173
6.68666
6.69383
6.70974
6.69781
6.70456
6.70448
6.68709
6.65378
6.69681
6.69576
6.69114
6.71486
6.71493
6.7088
6.69955
6.68975
6.69763
6.69775
6.75811
6.69752
6.6837
6.68522
6.70821
6.74146
6.68582
6.69327
6.70613
6.6978
6.69852
6.69971
6.68872
6.6677
6.68825
6.69512
6.69872
6.7493
6.73577
6.70645
6.69537
6.68933
6.69569
6.69645
6.72781
6.69338
6.68405
6.688
6.71445
6.72978
6.68205
6.69458
6.70905
6.70027
6.69305
6.68902
6.69734
6.68053
6.68604
6.69058
6.69236
6.73861
6.72595
6.70525
6.69567
6.68916
6.69532
6.69297
6.70943
6.69041
6.68248
6.69373
6.71627
6.71896
6.68338
6.69685
6.71379
6.69767
6.68593
6.6721
6.69161
6.67359
6.68563
6.68184
6.68197
6.69646
6.7024
6.70586
6.69612
6.68758
6.69416
6.6901
6.69865
6.68572
6.68329
6.69376
6.70568
6.71112
6.69068
6.70701
6.71935
6.67835
6.67717
6.65334
6.66956
6.66199
6.68003
6.66702
6.66833
6.65179
6.67412
6.69843
6.69036
6.68286
6.68958
6.68653
6.69204
6.67798
6.6881
6.69286
6.70509
6.70744
6.69294
6.70955
6.72116
6.66034
6.67088
6.64219
6.6475
6.64692
6.67102
6.65131
6.65681
6.6309
6.65693
6.68591
6.67818
6.67853
6.68547
6.68336
6.69059
6.66887
6.68545
6.68877
6.70649
6.70544
6.68699
6.69843
6.71921
6.65662
6.67105
6.64334
6.6419
6.64954
6.67083
6.64169
6.65618
6.63708
6.67662
6.6774
6.67146
6.67653
6.68314
6.68346
6.69052
6.66181
6.68712
6.68865
6.70414
6.70969
6.68848
6.69676
6.71564
6.67589
6.67711
6.65731
6.66049
6.66983
6.67546
6.64154
6.66479
6.65142
6.6935
6.67986
6.67587
6.67901
6.68991
6.69132
6.69724
6.66256
6.69581
6.69101
6.70732
6.71878
6.70166
6.69814
6.71386
6.71339
6.68839
6.68156
6.69194
6.71916
6.68588
6.64968
6.68457
6.68751
6.71734
6.68503
6.6794
6.68745
6.70167
6.70261
6.70883
6.67237
6.69327
6.69632
6.7109
6.72603
6.7039
6.69908
6.71422
6.76385
6.69965
6.71695
6.74255
6.77
6.69347
6.67158
6.71053
6.71129
6.72303
6.69261
6.67926
6.69629
6.71234
6.70917
6.71573
6.68321
6.69512
6.70387
6.71559
6.7292
6.68882
6.70191
6.71624
6.76929
6.71452
6.74137
6.76405
6.76818
6.70046
6.70114
6.71726
6.71533
6.721
6.70361
6.68302
6.70459
6.71806
6.7111
6.71542
6.69075
6.70042
6.70973
6.71829
6.72698
6.68849
6.70661
6.72064
6.76087
6.73732
6.76825
6.75394
6.75157
6.71028
6.7173
6.71527
6.71547
6.71657
6.71581
6.68783
6.71552
6.72018
6.71196
6.71233
6.70062
6.7034
6.71134
6.71806
6.72268
6.69788
6.7116
6.72508
6.75746
6.75412
6.76703
6.74535
6.73943
6.71505
6.7144
6.71445
6.71499
6.71438
6.72629
6.69269
6.72669
6.72072
6.71431
6.71183
6.70967
6.71984
6.71065
6.71703
6.72095
6.71635
6.71413
6.72749
6.74452
6.73132
6.74504
6.73436
6.73127
6.71092
6.71643
6.71308
6.71789
6.71754
6.73487
6.70368
6.7329
6.71884
6.71838
6.717
6.73084
6.7341
6.70726
6.71576
6.72129
6.7325
6.71401
6.72762
6.7332
6.71434
6.73136
6.72494
6.72405
6.7049
6.72305
6.70577
6.71588
6.71577
6.74475
6.72377
6.73853
6.71237
6.71718
6.71896
6.74228
6.73137
6.69661
6.71895
6.72988
6.73326
6.71075
6.72452
6.72494
6.70646
6.72725
6.7163
6.71503
6.70768
6.71931
6.69549
6.70408
6.70758
6.73726
6.72431
6.72792
6.69949
6.69931
6.70718
6.73603
6.72409
6.69389
6.705
6.71594
6.73165
6.70613
6.7167
6.71658
6.72405
6.7234
6.70558
6.7044
6.71773
6.70876
6.68518
6.68696
6.69182
6.72403
6.71582
6.71728
6.68403
6.67222
6.68597
6.73063
6.71842
6.68227
6.66969
6.6737
6.72953
6.69902
6.6981
6.70601
6.74215
6.71393
6.69065
6.69202
6.73601
6.69902
6.67281
6.67081
6.67684
6.72517
6.71833
6.71051
6.67403
6.64717
6.6646
6.73272
6.71263
6.67502
6.63258
6.63621
6.72669
6.69327
6.68322
6.69725
6.75696
6.69985
6.67548
6.68169
6.74226
6.69314
6.66335
6.65651
6.665
6.73875
6.73189
6.71044
6.67139
6.63574
6.65257
6.73995
6.7152
6.67827
6.63547
6.63144
6.7277
6.69229
6.68083
6.69763
6.75101
6.68856
6.67497
6.67821
6.74431
6.696
6.66121
6.65071
6.65527
6.7579
6.74535
6.71751
6.67414
6.63392
6.64514
6.75117
6.72574
6.68352
6.64509
6.63932
6.73396
6.69795
6.68439
6.71469
6.75017
6.69484
6.69021
6.68281
6.74904
6.71233
6.67121
6.6432
6.64248
6.77668
6.7623
6.73069
6.67674
6.62649
6.63121
6.76723
6.74158
6.69203
6.65191
6.63668
6.74513
6.70902
6.69102
6.74552
6.76898
6.72999
6.71908
6.6921
6.76866
6.73995
6.68587
6.62836
6.61648
6.79877
6.78604
6.75213
6.68317
6.60584
6.59101
6.79057
6.76386
6.70718
6.65263
6.61682
6.76422
6.72612
6.6975
6.78597
6.80112
6.77842
6.76
6.70941
6.79991
6.77745
6.69915
6.5932
6.54409
6.83093
6.8192
6.78131
6.69462
6.55629
6.47475
6.82106
6.79442
6.72553
6.64485
6.57547
6.79149
6.74962
6.72011
6.83284
6.83578
6.83297
6.80958
6.74064
6.84308
6.82606
6.71744
6.5301
6.31735
6.87398
6.86189
6.81801
6.70431
6.48976
6.10136
6.85946
6.82888
6.75326
6.63796
6.47289
6.83167
6.80656
6.76218
6.89793
6.89273
6.89606
6.87165
6.79005
6.91295
6.89576
6.74592
6.46826
5.47383
6.92638
6.91425
6.86167
6.7201
6.41559
5.39759
-4.03434
6.90462
6.87506
6.78546
6.61077
6.16427
6.87462
6.86218
6.79656
6.97332
6.99572
6.97914
6.94325
6.84014
6.99809
6.9759
6.81159
6.46348
4.70479
0.379289
6.98352
6.97269
6.91283
6.78052
6.41298
5.20255
0.625515
6.95474
6.92741
6.8324
6.61148
5.70566
6.9069
6.87741
6.82281
7.05547
7.08823
7.05947
7.02023
6.90216
7.07665
7.05687
6.88573
6.55155
5.17456
1.34507
7.04094
7.03413
6.96714
6.83952
6.5254
5.08617
1.3724
7.0052
6.97769
6.91664
6.71389
5.9751
1.8207
6.96382
6.92347
6.89057
7.12474
7.1518
7.10583
7.08788
6.95824
7.13435
7.11147
6.93975
6.65995
5.32362
1.1566
7.0924
7.08529
7.01225
6.87729
6.62573
5.4231
0.850664
7.04955
7.024
6.98938
6.8133
6.22289
7.01727
6.98548
6.9708
7.13741
7.16077
7.12838
7.11073
6.9824
7.16026
7.11204
6.96407
6.72808
5.81722
7.13032
7.11887
7.04462
6.92285
6.74793
5.57838
-3.25552
7.08422
7.05679
7.03881
6.92759
6.79533
7.05669
7.03908
7.04096
7.11057
7.15027
7.1272
7.08765
6.98693
7.14784
7.08433
6.97425
6.81096
6.64536
7.14807
7.13334
7.05911
6.95779
6.86888
6.56172
7.10839
7.06465
7.05859
6.99849
7.03059
7.07581
7.07365
7.08445
7.08392
7.13981
7.11459
7.06653
6.9896
7.13632
7.07634
6.98002
6.86219
6.90848
7.15066
7.13103
7.05855
6.97149
6.93651
6.90753
7.12023
7.06782
7.0611
7.02977
7.09801
7.08975
7.09039
7.10398
7.07144
7.12298
7.10178
7.05149
7.0042
7.11769
7.05511
6.96709
6.89028
7.00456
7.13154
7.11475
7.03374
6.95402
6.94674
7.00236
7.11225
7.05981
7.06173
7.04468
7.10969
7.09021
7.09301
7.10772
7.07782
7.11264
7.09477
7.04725
7.02913
7.10001
7.02969
6.95968
6.93184
7.05671
7.10088
7.0842
6.99568
6.9417
6.98248
7.05478
7.08622
7.04204
7.05589
7.05282
7.11368
7.08832
7.08673
7.10699
7.10381
7.11225
7.10177
7.06027
7.06956
7.0867
7.01137
6.96669
6.98519
7.10081
7.07516
7.05673
6.99105
6.97361
7.02908
7.0979
7.05295
7.04152
7.06733
7.07582
7.13193
7.09745
7.10016
7.12795
7.15152
7.12606
7.124
7.09799
7.11835
7.07977
7.00045
6.99928
7.03939
7.13666
7.05352
7.0332
6.98678
6.99161
7.0775
7.13426
7.02875
7.06471
7.10102
7.11524
7.16389
7.12662
7.14527
7.16497
7.20769
7.16073
7.15891
7.14043
7.15925
7.07553
7.03316
7.03968
7.09176
7.16345
7.04629
7.00815
7.00299
7.02416
7.08373
7.17276
7.01394
7.06027
7.09912
7.15367
7.20277
7.17214
7.19747
7.21204
7.23516
7.19598
7.1876
7.16741
7.17912
7.09807
7.06905
7.07313
7.11345
7.17739
7.0762
7.01751
7.02255
7.05041
7.11213
7.19506
7.04433
7.09781
7.13179
7.18154
7.23357
7.22187
7.22734
7.24223
182.214
218.32
204.112
220.496
229.536
241.264
254.695
265.537
141.064
155.889
175.583
149.728
162.858
189.231
197.809
175.183
185.232
219.208
250.559
208.307
250.535
281.458
294.494
292.084
321.761
322.14
137.941
130.108
134.837
147.188
156.07
144.54
155.224
167.681
185.893
172.526
201.959
219.846
270.112
254.761
310.493
315.153
348.255
348.426
366.391
346.054
354.671
327.739
134.096
136.461
139.859
146.711
160.83
150.741
168.195
184.094
225.033
196.355
239.482
285.882
333.524
295.053
337.883
362.271
364.021
360.354
353.98
334.868
308.749
321.271
149.28
159.486
176.688
170.096
186.789
207.481
243.332
215.173
241.048
283.506
322.388
268.892
298.745
339.683
323.247
308.212
293.198
301.523
193.717
217.349
235.663
232.805
259.998
276.725
247.431
280.736
145.671
76.5153
180.878
162.207
177.828
119.844
101.339
118.322
198.21
213.826
129.154
131.891
144.186
225.622
154.818
106.431
19.404
138.905
114.883
139.765
30.6959
61.2483
26.5504
74.3197
246.294
246.175
261.973
160.708
171.782
158.585
179.912
261.91
177.623
110.775
124.486
124.205
29.6706
98.8143
82.0607
256.909
232.479
171.748
147.154
125.485
132.895
135.867
121.226
124.227
129.413
198.808
209.044
62.1892
77.3826
79.0942
139.187
125.58
160.417
152.01
165.971
129.594
130.875
126.036
132.342
221.835
232.472
216.837
131.47
92.1128
122.292
102.854
78.7136
173.595
138.792
211.854
209.652
146.006
158.031
162.399
228.51
215.443
150.779
139.289
156.208
126.789
12.1151
6.52182
62.6908
37.2844
56.2075
23.9109
8.2608
15.199
64.0642
76.001
26.2209
18.5915
26.4946
87.5715
40.6883
6.63943
7.58413
10.8869
6.18198
14.0767
7.35782
6.61209
7.52484
6.5041
104.663
59.0547
106.284
34.2459
54.8751
24.6535
49.6015
107.934
61.1673
5.84837
7.78409
7.64775
7.18186
5.53809
5.87686
64.4083
56.9867
60.6694
30.3691
29.2572
10.639
15.717
5.04707
5.32371
5.44827
30.3858
29.7153
18.7669
20.1378
18.3376
12.9268
5.5859
14.8649
17.8679
27.2131
5.82627
5.36138
6.21083
6.61134
17.2115
15.9603
14.0418
9.02902
8.54679
7.45918
9.82245
12.7342
44.3394
8.02459
68.1451
69.3184
12.9254
15.7207
17.7661
32.3357
48.5614
8.66125
7.78189
10.3701
7.32491
7.63024
7.31447
10.71
6.85526
7.44802
7.09809
6.8931
6.65049
10.8376
13.1231
8.38953
8.1426
10.3715
19.8406
13.3701
7.85547
7.54175
7.74608
7.95354
7.23174
7.55164
7.52255
7.48161
7.20985
27.3556
15.6205
23.0069
12.8237
16.7946
12.5775
14.9092
34.4132
21.9981
7.90641
8.23036
8.08665
7.4988
7.72676
7.66463
17.2333
18.3593
24.3565
11.954
13.7274
8.21092
8.14464
7.76908
7.63581
7.64207
16.0535
14.6041
13.4549
13.5158
11.3225
7.8517
7.37001
7.44482
7.3623
7.08171
7.25999
7.2641
7.19737
7.22941
8.7884
8.36271
9.72063
7.19212
7.767
8.12375
8.63102
8.94485
7.0844
7.43703
7.62054
7.85594
7.61319
7.60768
7.57457
7.2036
6.95083
7.34851
7.35624
7.32977
7.82528
7.06086
6.92096
6.68956
6.80862
6.71414
6.67764
6.68956
6.71243
6.39433
8.06023
6.52449
6.45517
6.45617
10.0093
7.49969
7.29304
7.14835
7.21384
7.17862
7.09263
7.09054
7.0072
7.03857
6.9526
12.3607
10.6309
11.7885
8.28711
9.56271
9.99092
10.404
15.3644
11.8202
7.24055
7.34283
7.31351
7.14879
7.22992
7.20071
9.44295
10.5083
12.1949
7.93819
8.1347
7.30437
7.3304
7.23835
7.22593
7.25871
10.6325
8.61948
7.20037
7.56326
7.06409
7.25303
7.25182
7.16479
7.1591
7.14398
7.15422
7.06036
7.18299
7.01082
7.081
7.66091
7.75
6.79419
6.74551
7.18791
7.19102
6.9307
7.13191
6.9581
6.91035
6.89213
6.84789
6.74924
6.759
7.13764
6.69107
6.83303
6.93948
6.76359
7.09262
6.81301
6.71361
6.62817
6.6147
6.65401
6.5938
6.58809
6.61029
6.56895
6.50614
6.51361
6.5021
6.47881
6.48315
6.33788
7.02408
6.90349
6.87239
6.9208
6.78894
6.85426
6.76183
6.80274
6.6742
7.56104
8.30586
8.8474
6.29013
6.76169
6.35789
7.5336
9.40336
7.72793
7.0608
7.15176
7.12146
6.95959
7.04853
7.01876
7.07814
6.68256
7.84736
6.46195
6.41109
7.14595
7.16621
7.05038
7.03414
7.04323
6.21854
6.53688
6.19769
6.13681
6.2803
7.16271
7.0305
6.92724
7.09492
6.91252
6.96687
6.8081
6.97866
6.81961
6.52983
6.71435
6.68523
6.3784
6.38094
6.46666
6.43082
6.29173
6.85415
6.81521
6.64481
6.67987
6.72643
6.66488
6.69003
6.7947
6.75608
6.68895
6.65237
6.7314
6.62444
6.63013
6.56699
6.56604
6.56925
6.57053
6.52543
6.55797
6.52911
6.47852
6.43922
6.48076
6.47531
6.42348
6.33106
6.35025
6.79188
6.69762
6.65637
6.70516
6.61459
6.6303
6.57198
6.64233
6.56552
6.34587
6.27214
6.32946
6.30297
6.32227
6.25216
6.30309
6.42537
6.30522
6.85094
6.92507
6.89659
6.74814
6.80434
6.77862
6.96751
6.23273
6.26448
6.33785
6.51485
6.18576
6.2264
6.3912
6.38869
6.35471
6.324
6.40196
6.28841
6.37333
6.90644
6.91204
6.80016
6.78705
6.79211
6.13102
6.18535
6.1196
6.21003
6.18472
6.22073
6.23346
6.27709
6.15293
6.20673
6.17022
6.2936
6.19643
6.20936
6.89926
6.7835
6.7202
6.85431
6.72677
6.72927
6.64555
6.7468
6.65448
6.31291
6.41421
6.37411
6.38255
6.38142
6.47185
6.45477
6.23203
6.77848
6.72254
6.69754
6.69477
6.63574
6.69729
6.70372
6.5049
6.69148
6.58847
6.41492
6.64661
6.37059
6.51468
6.44211
6.47516
6.53531
6.48332
6.42178
6.47456
6.42788
6.4474
6.40898
6.42765
6.40863
6.38454
6.3592
6.35622
6.6197
6.54278
6.49898
6.5814
6.51067
6.49845
6.40752
6.50732
6.43637
6.32798
6.26183
6.3133
6.33328
6.34562
6.28721
6.32991
6.27692
6.33004
6.28851
6.3194
6.31727
6.34173
6.30045
6.34056
6.65727
6.69705
6.67719
6.57355
6.60802
6.58948
6.34178
6.19091
6.1898
6.26965
6.30993
6.24089
6.23933
6.34666
6.28421
6.30834
6.31159
6.3534
6.25971
6.30827
6.682
6.6878
6.59976
6.58786
6.5984
6.16642
6.24043
6.12824
6.16231
6.17251
6.20169
6.07263
6.25641
6.15494
6.20165
6.14574
6.26098
6.12164
6.18667
6.68383
6.59479
6.5696
6.64614
6.58351
6.53179
6.4933
6.54816
6.50418
6.52136
6.60692
6.60541
6.66544
6.69083
6.82622
6.78823
6.25302
6.49068
6.29461
6.19729
6.18302
6.19216
6.63801
6.55143
6.55955
6.62448
6.4916
6.42433
6.4939
6.4527
6.64263
6.69004
6.59065
6.66668
6.6901
6.31585
6.18717
6.36424
6.37161
6.36668
6.30758
6.25989
6.29129
6.38576
6.36487
6.3365
6.34156
6.35653
6.35465
6.3476
6.45137
6.35927
6.29185
6.41117
6.3353
6.28779
6.18381
6.31297
6.23606
6.3527
6.30588
6.33393
6.34437
6.35198
6.32624
6.32573
6.29911
6.31955
6.31503
6.32112
6.29396
6.34331
6.28086
6.34722
6.49148
6.53035
6.50573
6.41996
6.45588
6.42419
6.30195
6.25048
6.28654
6.29283
6.3013
6.2868
6.30613
6.35066
6.23985
6.27048
6.28775
6.35566
6.2062
6.27187
6.50359
6.52092
6.43918
6.42763
6.45106
6.21271
6.31798
6.12223
6.28584
6.24473
6.60928
6.27809
6.22416
6.10536
6.1495
6.10663
6.26603
6.11995
6.34404
6.51592
6.44591
6.41125
6.45919
6.42991
6.36998
6.31295
6.38388
6.36178
6.90248
7.0343
6.94859
6.6495
6.88938
6.5732
6.73835
6.33395
6.83182
6.48649
6.17738
6.21032
6.29263
6.47819
6.39298
6.32092
6.39257
6.35451
6.23631
6.27959
6.69274
6.64042
6.44198
6.54926
6.36643
6.6374
6.10815
6.06941
6.27094
6.17129
6.24482
6.22714
6.0793
6.20819
6.30748
6.34417
6.29788
6.28704
6.33235
6.33543
6.33269
6.28377
6.21874
6.11025
6.23316
6.15251
6.17111
6.06543
6.17418
6.08607
6.34336
6.32798
6.32835
6.32906
6.33704
6.32944
6.33332
6.33356
6.34036
6.35439
6.37453
6.34066
6.27959
6.28705
6.25441
6.31163
6.28655
6.28514
6.30392
6.32507
6.30684
6.31773
6.38601
6.21536
6.31077
6.26764
6.40159
6.21776
6.32049
6.3538
6.38443
6.29162
6.28326
6.32209
6.23802
6.34997
6.23316
6.271
6.25265
6.23852
6.23812
6.35734
6.16582
6.3629
6.135
6.36389
6.14781
6.33899
6.37668
6.31227
6.22914
6.32249
6.29416
6.25573
6.15296
6.27367
6.23101
6.26157
5.98739
6.12006
6.24534
6.12945
6.18357
6.17898
6.20374
6.29781
6.23108
6.21609
6.24128
6.1674
6.2249
6.24314
6.14706
6.12604
6.18023
6.09352
6.2021
6.1432
6.08476
6.1214
6.2005
6.0011
6.18803
6.20377
6.04338
6.19019
6.27551
6.32601
6.2858
6.2764
6.32942
6.33728
6.34944
6.1675
6.14799
6.04201
6.13486
6.04449
6.11328
6.0336
6.12218
6.04539
6.34304
6.32636
6.33972
6.34363
6.35553
6.33225
6.35399
6.34735
6.35966
6.21789
6.21179
6.179
6.18806
6.17383
6.13947
6.32149
6.28626
6.33765
6.32502
6.32816
6.22545
6.27014
6.2054
6.18818
6.23956
6.26815
6.33623
6.3216
6.32643
6.33772
6.26403
6.23633
6.10326
6.24203
6.19585
6.19574
6.08833
6.23294
6.19778
6.28086
6.25534
6.26535
6.32533
6.28096
6.26779
6.2723
6.32773
6.20509
6.21475
6.23193
6.25135
6.19947
6.25601
6.26798
6.20812
6.26414
6.2937
6.26084
6.28181
6.27495
6.11663
6.09267
6.23494
6.10773
6.21106
6.2833
6.15901
6.25123
6.28926
6.34201
6.32997
6.31341
6.36396
6.36693
6.39021
6.15859
6.18777
6.01379
6.12535
6.09229
6.1669
6.0769
6.13715
6.1672
6.37696
6.34558
6.37347
6.38329
6.40211
6.36602
6.39665
6.37857
6.40348
6.18329
6.16848
6.14348
6.20394
6.18727
6.17044
6.3534
6.37548
6.3928
6.38009
6.40364
6.17437
6.22635
6.1897
6.18356
6.23874
6.36213
6.37639
6.36609
6.39079
6.40349
6.22501
6.25307
6.1041
6.25247
6.23171
6.23373
6.17286
6.30883
6.31061
6.31673
6.30826
6.31083
6.36579
6.35618
6.34266
6.34222
6.39427
6.26743
6.33124
6.30568
6.30354
6.34447
6.36919
6.36297
6.30284
6.31882
6.37719
6.35248
6.36973
6.35314
6.18833
6.32012
6.33951
6.23127
6.30623
6.39722
6.3127
6.36347
6.34806
6.3942
6.41034
6.38826
6.42863
6.41969
6.45238
6.21129
6.23892
6.25697
6.16152
6.24159
6.39193
6.41182
6.21773
6.25667
6.43222
6.38986
6.42334
6.43846
6.4613
6.41765
6.45179
6.43369
6.46384
6.22917
6.205
6.19427
6.24844
6.22453
6.2166
6.41121
6.43766
6.45612
6.43665
6.46768
6.21823
6.28817
6.28391
6.29147
6.36299
6.4214
6.4342
6.42014
6.446
6.44847
6.32383
6.40043
6.28401
6.38285
6.39427
6.40369
6.39686
6.4513
6.47134
6.3976
6.38355
6.38312
6.42135
6.42759
6.41961
6.41888
6.44913
6.40867
6.50434
6.45362
6.43979
6.50284
6.51768
6.50047
6.39407
6.4245
6.47247
6.41885
6.46551
6.41959
6.41036
6.46831
6.45089
6.38782
6.41758
6.49908
6.45159
6.46664
6.43091
6.46563
6.49734
6.47236
6.49959
6.48705
6.51879
6.2898
6.3605
6.44743
6.26227
6.29068
6.43283
6.45653
6.33042
6.36245
6.4916
6.44472
6.4793
6.49207
6.51769
6.47015
6.50352
6.49255
6.5174
6.29242
6.27154
6.26227
6.35444
6.33639
6.32684
6.46617
6.49955
6.51355
6.48997
6.52523
6.36735
6.43154
6.43687
6.43995
6.51136
6.47439
6.47672
6.4776
6.50054
6.50307
6.47661
6.58141
6.48315
6.53109
6.54142
6.60755
6.55055
6.61934
6.60423
6.45364
6.45503
6.45437
6.48072
6.48341
6.48573
6.48826
6.50039
6.57735
6.58669
6.54459
6.53339
6.56296
6.57494
6.55885
6.43414
6.49043
6.50877
6.45316
6.5131
6.46598
6.5178
6.55987
6.54128
6.50586
6.51124
6.57788
6.55061
6.55097
6.50971
6.529
6.5679
6.54331
6.55368
6.54528
6.5646
6.49717
6.6019
6.48664
6.46677
6.43369
6.52351
6.5263
6.56723
6.5029
6.53884
6.49235
6.5218
6.53214
6.55205
6.51272
6.53396
6.53587
6.54522
6.43757
6.42774
6.40697
6.50508
6.52023
6.49651
6.51042
6.54515
6.53836
6.52694
6.55102
6.53237
6.608
6.61219
6.61839
6.68348
6.52565
6.53
6.53119
6.54661
6.55199
6.6657
6.69524
6.61785
6.66557
6.64325
6.70075
6.65963
6.67896
6.65694
6.51536
6.5196
6.52144
6.54081
6.54634
6.54382
6.54621
6.55409
6.61232
6.62851
6.59553
6.56325
6.57081
6.57665
6.56123
6.48201
6.53147
6.5468
6.51752
6.54596
6.53402
6.59745
6.63261
6.60876
6.58834
6.58616
6.63499
6.61979
6.61624
6.57212
6.57504
6.6195
6.59669
6.59393
6.58055
6.59409
6.60083
6.6151
6.56422
6.57651
6.54612
6.60416
6.60158
6.58732
6.57367
6.56292
6.53093
6.54399
6.56406
6.57281
6.54946
6.55409
6.55175
6.55929
6.56856
6.58699
6.56187
6.61728
6.64013
6.62729
6.54097
6.55417
6.55559
6.55731
6.55907
6.66702
6.70924
6.68056
6.68626
6.71787
6.56272
6.57159
6.56501
6.57071
6.58938
6.70699
6.7062
6.66388
6.68075
6.65613
6.69156
6.64752
6.68244
6.6554
6.57299
6.56098
6.57079
6.58112
6.59344
6.5743
6.58777
6.59837
6.6375
6.64446
6.586
6.60237
6.57138
6.61294
6.64024
6.5475
6.55358
6.56596
6.57176
6.58242
6.58586
6.66499
6.69229
6.65651
6.64685
6.64185
6.67374
6.67018
6.66299
6.61752
6.61072
6.65451
6.63503
6.62554
6.60647
6.61844
6.65381
6.69343
6.63659
6.61114
6.59142
6.67597
6.66558
6.64181
6.61301
6.5842
6.56717
6.56745
6.59515
6.59597
6.58489
6.58177
6.57126
6.58574
6.66242
6.72362
6.69125
6.71794
6.76013
6.72111
6.57273
6.57025
6.58942
6.58486
6.57755
6.70483
6.72434
6.73486
6.73093
6.73396
6.57967
6.60741
6.58723
6.59269
6.62132
6.70996
6.72106
6.64213
6.68957
6.67089
6.695
6.66463
6.70264
6.70936
6.60621
6.58723
6.60348
6.60717
6.61584
6.60166
6.61869
6.62229
6.6652
6.72048
6.62642
6.63495
6.73831
6.64461
6.64461
6.58788
6.59844
6.61777
6.59957
6.61512
6.60956
6.71368
6.72743
6.68738
6.68922
6.67979
6.69701
6.70257
6.69183
6.64901
6.63852
6.6745
6.65937
6.64879
6.63016
6.64016
6.73211
6.76121
6.68989
6.67925
6.64431
6.73102
6.70895
6.71481
6.67355
6.60751
6.60108
6.59629
6.62156
6.61711
6.61397
6.60747
6.59971
6.61039
6.76931
6.74654
6.73276
6.79382
6.75921
6.77294
6.59301
6.58605
6.61334
6.59899
6.59421
6.75229
6.74271
6.78686
6.78715
6.77635
6.61065
6.63251
6.61554
6.62703
6.6372
6.73641
6.75044
6.68883
6.73042
6.7415
6.75077
6.70679
6.76303
6.7474
6.62861
6.62113
6.6257
6.64272
6.63767
6.64062
6.64393
6.63626
6.78367
6.78588
6.6759
6.67083
6.74335
6.68193
6.6753
6.61205
6.63848
6.65574
6.63545
6.64818
6.64024
6.73314
6.73138
6.70272
6.70899
6.69874
6.70445
6.70885
6.70115
6.66591
6.65578
6.68131
6.66891
6.65929
6.64704
6.64984
6.77169
6.76517
6.71853
6.73591
6.69059
6.74024
6.71912
6.73805
6.69821
6.62383
6.62382
6.61546
6.63327
6.62697
6.6291
6.6185
6.61763
6.6233
6.80039
6.81469
6.81495
6.79047
6.83669
6.81993
6.60752
6.6041
6.62493
6.61567
6.6136
6.83753
6.82746
6.86564
6.85871
6.84847
6.64036
6.63887
6.63233
6.64823
6.63798
6.77869
6.82083
6.71215
6.77987
6.73987
6.77322
6.71457
6.77191
6.73162
6.6394
6.65418
6.66756
6.66709
6.64472
6.65604
6.67038
6.64464
6.75017
6.72673
6.68083
6.67842
6.69156
6.67341
6.67356
6.64891
6.66163
6.66881
6.65269
6.66611
6.66629
6.72439
6.71429
6.70268
6.7038
6.69965
6.69803
6.69606
6.69554
6.66886
6.65972
6.67758
6.66677
6.65857
6.64864
6.64583
6.74719
6.72531
6.71276
6.72544
6.69502
6.71687
6.70229
6.70881
6.68526
6.62727
6.63219
6.62043
6.63223
6.62639
6.63198
6.61965
6.62518
6.62376
6.76743
6.8148
6.79252
6.73974
6.77339
6.75568
6.62088
6.62052
6.62836
6.62459
6.62548
6.82115
6.82027
6.77699
6.77011
6.77277
6.65279
6.63769
6.63727
6.65036
6.63901
6.82288
6.77463
6.69839
6.74813
6.71281
6.72947
6.66597
6.71597
6.68479
6.64878
6.65071
6.65098
6.63291
6.65772
6.63699
6.63444
6.64074
6.7063
6.68366
6.66029
6.66067
6.65865
6.64895
6.64981
6.64924
6.65451
6.64319
6.64178
6.64252
6.6557
6.70301
6.69216
6.69158
6.68686
6.68938
6.68468
6.67773
6.68219
6.66348
6.65717
6.66934
6.65971
6.65599
6.64427
6.64452
6.70523
6.6895
6.69001
6.69291
6.67392
6.69344
6.67795
6.67937
6.66057
6.62535
6.63028
6.62052
6.63086
6.62453
6.62656
6.61956
6.62662
6.623
6.71417
6.73297
6.721
6.69515
6.70108
6.6936
6.62153
6.62453
6.61311
6.60996
6.61753
6.72508
6.72622
6.69465
6.69097
6.69032
6.64314
6.63714
6.6265
6.63588
6.63438
6.72411
6.68925
6.62806
6.68589
6.65435
6.67121
6.60014
6.66498
6.62828
6.65872
6.6236
6.62799
6.62416
6.64251
6.61135
6.623
6.63269
6.66007
6.63995
6.63856
6.642
6.63877
6.63152
6.63632
6.63292
6.63327
6.62552
6.62629
6.62722
6.62447
6.68387
6.68031
6.67824
6.67051