/*--------------------------------*- C++ -*----------------------------------*\
| =========                 |                                                 |
| \\      /  F ield         | OpenFOAM: The Open Source CFD Toolbox           |
|  \\    /   O peration     | Version:  5.x                                   |
|   \\  /    A nd           | Web:      www.OpenFOAM.org                      |
|    \\/     M anipulation  |                                                 |
\*---------------------------------------------------------------------------*/
FoamFile
{
    version     2.0;
    format      ascii;
    class       surfaceScalarField;
    location    "2";
    object      phi;
}
// * * * * * * * * * * * * * * * * * * * * * * * * * * * * * * * * * * * * * //

dimensions      [0 3 -1 0 0 0 0];

internalField   nonuniform List<scalar> 
29271
(
-3.69266e-06
4.23991e-07
4.34846e-07
2.91346e-06
-6.53798e-06
-2.42037e-06
2.03354e-06
6.95654e-06
-1.82297e-05
-1.91117e-06
2.48263e-06
-1.96741e-06
5.16144e-06
1.44642e-05
-1.77929e-05
-2.66067e-06
2.87712e-06
-3.09793e-06
4.44083e-06
1.62336e-05
-1.46459e-05
-2.24506e-08
-1.2263e-06
9.14133e-07
1.26069e-05
2.37356e-06
-1.9895e-05
-1.13631e-06
-2.18191e-08
-3.16563e-06
-4.02872e-07
2.46216e-05
-2.26388e-05
-4.80401e-06
1.26082e-05
-1.71013e-05
2.45229e-06
2.94837e-05
-2.09273e-05
-4.76499e-07
1.37039e-05
-8.50018e-06
-2.16598e-06
1.8366e-05
-1.50995e-05
-4.5966e-07
3.94572e-06
-2.01778e-06
1.92967e-07
1.34382e-05
-1.26399e-05
-5.18061e-07
1.67792e-06
1.0923e-05
6.51828e-07
-5.81968e-06
1.15584e-05
-1.5132e-05
9.37656e-06
-2.22513e-05
7.00871e-06
3.7397e-06
-2.74609e-06
-8.44248e-06
2.26914e-05
-1.61721e-05
1.45111e-06
3.64606e-06
-2.75465e-06
-2.18499e-06
1.60145e-05
-1.2624e-05
2.27306e-06
2.86748e-06
-1.71246e-06
-1.30804e-06
1.0504e-05
-1.45668e-05
-1.52152e-07
3.31829e-07
3.92502e-07
2.97201e-09
1.39917e-05
-1.98283e-05
-2.27178e-06
-3.09621e-07
1.57557e-07
2.3463e-05
-1.21088e-06
-2.05887e-05
9.53359e-06
-9.91771e-06
-8.09588e-06
1.88885e-05
1.01802e-05
-1.45585e-05
5.28598e-06
2.28687e-06
-2.53828e-06
-2.71357e-06
1.22375e-05
-1.29409e-05
5.91211e-07
1.48341e-06
-7.32554e-07
-6.02513e-07
1.22013e-05
-1.5808e-05
1.24743e-06
-3.0059e-07
1.52703e-05
5.17991e-08
-4.60979e-07
-6.81703e-06
1.56367e-07
-8.0216e-07
7.39024e-06
-1.38473e-05
4.29709e-06
-4.5843e-06
1.17563e-05
2.37125e-06
-1.66903e-05
9.23676e-07
1.86813e-07
3.5045e-07
1.51627e-05
6.66887e-08
-6.90935e-06
7.42777e-07
-4.34219e-07
6.496e-06
-2.36014e-06
1.76856e-07
1.00061e-06
1.27236e-06
-8.30875e-06
-2.87587e-06
2.67698e-06
8.514e-06
-1.14124e-06
2.95398e-06
-1.35151e-05
6.88373e-07
1.32016e-06
9.69381e-06
-4.17227e-06
-1.84587e-05
-4.82249e-07
-1.27542e-06
9.70298e-07
2.34183e-05
-1.06326e-05
-6.94218e-07
-1.38879e-06
2.38991e-06
7.13094e-06
3.19474e-06
-2.52868e-06
6.16039e-07
-2.86317e-05
-2.83931e-06
3.17699e-07
3.30659e-05
-3.35005e-06
4.617e-06
7.11403e-05
-2.49004e-05
-2.50241e-05
-2.09476e-05
-1.7764e-05
-2.23699e-06
-1.29735e-06
-9.14686e-07
-7.39196e-07
3.1114e-06
1.52962e-06
7.7155e-06
9.06057e-06
-5.17335e-06
-7.15366e-07
4.92626e-05
-1.79106e-05
-1.4623e-05
-1.38739e-05
-1.32787e-05
-2.3488e-07
5.90986e-10
4.61681e-06
8.57973e-06
1.59418e-07
1.12821e-05
2.38558e-05
-4.43157e-07
-5.4912e-07
4.01086e-06
-5.68845e-08
1.12384e-06
3.58548e-07
1.55407e-06
-1.27954e-05
-1.03267e-05
-1.21577e-05
-1.1189e-05
-9.21615e-06
-8.28366e-07
3.72362e-06
6.47539e-06
-8.77251e-06
3.61863e-07
4.7267e-07
7.9784e-06
-8.32061e-07
-2.10466e-05
1.94774e-07
1.43833e-06
-4.27356e-07
2.06729e-05
-1.1318e-05
-2.4368e-06
6.47846e-05
-1.69774e-05
-1.56598e-05
-1.55796e-05
-1.44316e-05
6.03575e-07
6.60165e-07
8.11161e-06
6.86027e-06
6.54711e-06
4.582e-06
1.44395e-05
-9.62776e-06
-9.78296e-06
-8.68424e-06
-9.50711e-06
2.40969e-06
1.42164e-06
3.41351e-05
2.89824e-06
6.92972e-06
6.11864e-06
2.42045e-06
6.76509e-06
1.53887e-05
-1.4263e-05
-1.58715e-05
-1.47278e-05
-1.57958e-05
-3.55422e-05
-9.1879e-06
-5.37507e-06
3.82289e-06
4.8692e-05
-1.81153e-05
8.40145e-09
3.86091e-07
-2.49035e-07
1.7716e-05
2.53784e-07
-1.74205e-07
-2.17944e-06
5.54932e-05
2.96942e-08
4.52376e-07
2.51851e-06
4.49593e-07
-1.94686e-06
-1.51706e-06
-1.66603e-06
-1.37006e-05
-1.23963e-05
-1.43529e-05
-1.34468e-05
1.03446e-06
-1.64031e-07
4.37767e-05
1.30186e-06
2.51988e-06
3.89056e-06
-3.04599e-08
-1.05891e-07
8.90226e-07
-1.17443e-05
-1.21031e-05
-1.22796e-05
-1.25785e-05
-1.51547e-05
1.9207e-06
3.0198e-07
1.53881e-05
-8.29219e-06
-1.33801e-06
5.24105e-07
8.95257e-06
-1.06807e-05
1.03026e-06
-2.77813e-07
7.81542e-06
-1.4809e-05
-1.15052e-06
1.56538e-06
-6.70216e-07
1.49003e-05
-6.41161e-06
7.55385e-07
-1.09888e-06
6.70102e-06
3.31074e-08
1.74419e-07
4.41642e-07
-6.28603e-07
-9.54182e-06
-3.07896e-06
3.08842e-07
1.23119e-05
1.60614e-06
5.72889e-06
-7.51668e-06
-9.67262e-06
-1.5492e-06
1.14035e-05
-2.96162e-06
-3.37406e-05
7.74723e-06
-9.92028e-06
2.18023e-06
3.6695e-05
-1.88391e-06
-7.42496e-07
-1.20642e-06
-6.61478e-07
-2.03608e-06
6.53038e-06
-1.86272e-06
2.95419e-06
-3.43684e-05
-5.19825e-06
3.32241e-06
3.51528e-05
-1.07718e-05
1.00913e-05
7.30565e-05
-3.26728e-06
-9.2422e-06
-3.38501e-06
-3.63289e-06
5.19677e-06
7.25294e-06
1.77925e-06
4.06272e-06
-1.08552e-05
2.16285e-06
3.76377e-05
2.34773e-06
4.31352e-06
8.73082e-07
2.01108e-06
-2.6767e-07
8.12787e-06
-2.55464e-06
2.54826e-06
9.21471e-08
4.47342e-06
-2.22705e-09
5.56265e-07
-3.34428e-07
3.61621e-07
-3.38548e-06
-1.44049e-07
2.59214e-06
7.26363e-07
-1.0234e-05
-1.86701e-06
1.11369e-06
1.09874e-05
2.16545e-06
-2.87803e-05
-4.37667e-06
-6.71852e-06
4.16353e-06
3.35465e-05
-1.31068e-05
-5.04212e-06
6.01556e-05
8.23496e-06
7.78051e-06
8.42357e-06
8.43019e-06
1.10189e-06
8.43681e-06
-6.04307e-06
4.99908e-07
7.35065e-06
1.04648e-05
8.52435e-07
-2.68972e-06
-7.55079e-07
1.09425e-05
8.46289e-06
8.2365e-06
-5.77352e-05
-5.79716e-06
-1.90558e-06
1.33911e-05
5.25468e-05
-2.02336e-05
-1.5046e-06
-2.2786e-06
3.7233e-06
2.43287e-05
-4.03523e-06
-9.26355e-07
-2.06333e-06
6.5077e-05
1.68645e-06
-2.50371e-06
1.13499e-06
-3.41533e-06
-1.83959e-06
-3.80326e-06
-2.89575e-06
-1.92505e-06
-3.25083e-08
6.49158e-05
-9.76854e-07
-5.07819e-06
-6.58655e-06
2.10849e-06
-1.93976e-06
8.01786e-07
-2.07928e-05
-5.43173e-06
5.77257e-06
2.58776e-05
-1.03351e-05
-1.02176e-05
8.9507e-06
1.15769e-05
-5.93761e-06
2.27345e-06
-2.2945e-06
3.89166e-06
-1.59366e-05
-7.00524e-07
-1.09434e-06
-2.41617e-06
2.01152e-05
-9.23656e-06
-5.58623e-06
2.2051e-06
1.26169e-05
8.9871e-07
5.63239e-07
-4.86914e-07
-9.74427e-07
-1.50428e-05
-3.88486e-06
1.3517e-06
1.75759e-05
-2.679e-07
7.68914e-06
-1.35567e-05
-9.18201e-06
6.96372e-07
1.46211e-05
5.38516e-06
-3.49898e-05
1.04611e-05
-4.60177e-06
-4.66721e-06
2.84125e-05
2.91738e-06
1.27017e-08
-7.34727e-08
-2.49383e-07
-3.19536e-06
5.8814e-07
-1.28637e-06
2.54961e-06
-3.48129e-05
-3.55262e-06
1.97252e-06
3.51298e-05
-1.43238e-05
2.82468e-06
6.82838e-05
-9.55612e-07
-5.68595e-07
-1.01107e-06
-2.8081e-07
3.47197e-06
4.87451e-06
4.59293e-06
6.14853e-06
-5.35778e-06
1.1374e-05
3.28559e-05
-4.15661e-06
-5.77157e-06
-2.43912e-06
-3.19092e-06
-1.66211e-07
4.62843e-06
-1.28482e-05
-8.07337e-10
-8.06172e-08
6.42151e-07
-1.26072e-07
1.1624e-07
-1.30304e-07
5.29423e-08
9.73988e-07
4.5965e-08
5.55833e-07
-1.70038e-06
-1.09702e-05
-1.68435e-06
1.65526e-06
1.09993e-05
2.78658e-06
-3.69488e-05
-3.65916e-06
-6.20938e-06
5.17429e-06
3.88565e-05
-6.48872e-06
-6.99297e-06
5.13597e-05
5.87885e-06
6.33789e-06
6.26387e-06
6.62163e-06
-9.11969e-07
4.17329e-06
-4.41908e-06
-3.53757e-06
6.35132e-06
4.68812e-06
-3.61007e-06
-2.42744e-06
-3.43225e-06
6.45773e-06
4.82442e-06
4.86696e-06
-4.01721e-05
-1.18582e-06
-1.27921e-06
1.14676e-05
2.7632e-05
-2.74041e-05
-1.12805e-06
-2.95452e-06
5.7323e-06
3.16747e-05
-5.92036e-06
-5.24001e-06
9.02846e-07
4.80498e-05
3.98898e-06
-6.10855e-07
5.13353e-06
1.37361e-06
6.23697e-07
2.17891e-06
1.6835e-06
-5.64962e-06
-1.91262e-07
7.4581e-05
-6.13604e-06
-2.97731e-06
-5.18238e-06
2.39274e-06
2.62323e-06
4.38866e-06
-2.83758e-05
-7.19804e-06
7.11945e-06
2.91561e-05
-1.34376e-05
-9.25674e-06
8.44678e-06
1.42502e-05
5.62819e-07
1.62637e-06
-1.28883e-06
-1.17697e-08
-2.22795e-05
8.56259e-07
-5.15844e-06
1.46051e-06
2.49299e-05
-1.58429e-05
-8.98994e-06
6.88423e-06
1.79469e-05
3.62591e-07
-4.17446e-07
-6.08521e-08
1.15539e-07
-1.94374e-05
-2.1895e-06
9.57204e-07
2.06697e-05
3.08426e-07
4.84702e-06
-1.61631e-05
-6.48187e-06
5.04804e-07
1.69847e-05
1.5307e-06
-2.43934e-05
4.92924e-06
-3.33143e-06
-1.79273e-06
2.30577e-05
2.79714e-06
2.02441e-07
-1.00419e-08
-6.69645e-07
-3.31944e-06
9.99545e-07
-4.33637e-07
2.31078e-06
-3.60296e-05
-3.89679e-06
1.26414e-06
3.67851e-05
-7.45714e-06
7.04882e-06
5.8547e-05
-1.84007e-06
-1.29372e-06
-1.99994e-06
-1.46744e-06
3.82288e-06
4.21308e-06
3.92075e-06
4.78957e-06
-1.97788e-06
5.43412e-06
2.4998e-05
-7.5576e-07
-8.27578e-07
-9.20308e-07
-5.51849e-07
-1.5749e-07
-2.74472e-08
-1.47279e-05
1.0707e-07
7.20353e-08
2.22345e-07
8.97076e-08
-8.55949e-08
-2.41513e-07
-7.72416e-08
2.05252e-06
4.40037e-08
-6.44625e-08
-2.19719e-06
-1.13147e-05
-1.62671e-06
1.24477e-06
1.16966e-05
2.45485e-06
-4.05108e-05
-2.85325e-06
-5.06419e-06
4.14609e-06
4.18273e-05
-6.43854e-08
-8.62408e-06
5.29055e-05
3.60018e-06
3.63716e-06
3.59968e-06
3.35454e-06
2.69849e-07
-2.42344e-06
3.10425e-06
-8.29984e-07
2.37025e-06
-4.473e-07
-1.90635e-06
-1.25568e-06
-1.92097e-06
3.25648e-06
2.56559e-06
3.09849e-06
-1.92608e-05
-2.32656e-07
-5.62548e-07
4.19298e-06
1.5033e-05
-3.59285e-05
-1.18339e-06
-2.85308e-06
5.37023e-06
3.93209e-05
-4.7261e-06
-5.17124e-06
3.94006e-07
3.5706e-05
3.57394e-06
1.44811e-07
3.45455e-06
3.76914e-07
-1.81548e-08
5.75679e-07
3.89208e-07
-3.59216e-06
1.57992e-06
7.10558e-05
-3.9588e-06
-2.20917e-06
-3.23631e-06
3.12252e-06
1.67881e-06
2.54578e-06
-3.13461e-05
-5.45444e-06
3.81515e-06
3.17635e-05
-1.45539e-05
-6.04373e-06
5.77029e-06
1.48298e-05
-1.59914e-06
-2.97771e-07
-7.31462e-07
3.01753e-06
-3.01161e-05
3.71397e-06
-9.53221e-06
3.87943e-06
3.36348e-05
-1.84106e-05
-6.15087e-06
6.93215e-06
1.76315e-05
-4.86523e-08
-2.70617e-07
1.59912e-07
1.59357e-07
-2.16771e-05
-1.7759e-06
9.79431e-07
2.24736e-05
-5.64581e-07
3.22936e-06
-1.68335e-05
-3.63437e-06
2.04975e-06
1.57534e-05
7.04945e-07
-2.23352e-05
2.69107e-06
-1.09972e-06
-6.11328e-07
2.06502e-05
3.48099e-06
-1.03856e-06
1.00833e-07
-2.7784e-07
-1.93087e-06
-3.34553e-07
-7.67172e-08
2.13784e-06
-3.76483e-05
-3.32493e-06
7.82754e-07
3.81294e-05
-5.3288e-06
5.68609e-06
5.24743e-05
-2.23444e-06
-2.04411e-06
-2.15764e-06
-1.97696e-06
3.2142e-06
3.49745e-06
3.51522e-06
3.90173e-06
-5.39465e-08
-1.28865e-06
2.2081e-05
-8.78074e-07
-1.9271e-07
-5.6354e-07
5.65114e-07
-9.41766e-08
-6.23372e-06
-1.33649e-05
9.55368e-07
6.32276e-07
1.56181e-06
9.09571e-07
1.40762e-07
1.67693e-07
5.43408e-07
2.27841e-06
7.60691e-07
3.90788e-08
-4.23344e-07
-2.74901e-06
-1.7633e-07
7.07651e-09
-1.02691e-08
1.64932e-07
-1.20713e-05
-1.72514e-06
1.31453e-06
1.2482e-05
1.93702e-06
-4.29051e-05
-2.42948e-06
-3.83591e-06
3.68065e-06
4.35528e-05
5.9928e-06
-8.86452e-06
5.39762e-05
1.90532e-06
1.42997e-06
2.34929e-06
1.80254e-06
7.47011e-06
-7.18893e-06
7.52721e-06
6.39031e-07
6.85492e-07
-4.19502e-07
-9.71245e-07
-6.7525e-07
-1.96465e-06
1.66358e-06
9.30366e-07
9.01256e-07
-1.1222e-05
3.51516e-07
9.32821e-07
5.37641e-06
5.2003e-06
-2.45913e-08
-6.52041e-09
-1.06571e-08
3.99338e-08
1.17517e-10
-4.21994e-05
-1.59707e-06
-1.54336e-06
4.81701e-06
4.44375e-05
-3.91466e-06
-6.74837e-06
-8.98367e-07
3.39788e-05
2.32146e-06
-1.44196e-07
2.36242e-06
-1.37541e-07
-1.29281e-06
-1.03645e-06
-1.56345e-06
-3.16231e-06
4.20181e-07
6.64384e-05
-3.20607e-06
-2.47623e-06
-3.34414e-06
1.31242e-06
3.61242e-08
1.10006e-06
-3.34301e-05
-4.12666e-06
2.01584e-06
3.30641e-05
-1.70646e-05
-3.29815e-06
4.16329e-06
1.61998e-05
-5.36131e-06
-1.11565e-06
-2.59066e-06
8.16667e-06
-3.61588e-05
5.18189e-06
-8.08306e-06
3.80142e-06
3.56787e-05
-1.568e-05
-2.69642e-06
4.76131e-06
1.36108e-05
-6.15746e-07
4.99512e-07
-6.71648e-07
7.87882e-07
-2.32098e-05
-8.89436e-07
-8.59924e-08
2.41852e-05
-1.99584e-06
2.8145e-06
-1.45064e-05
-2.6314e-06
2.89181e-06
1.34273e-05
-2.86128e-07
-1.80988e-05
6.00915e-07
1.76106e-06
1.96665e-06
1.40563e-05
-8.11902e-07
-1.57956e-06
8.69325e-07
1.62925e-06
2.53677e-06
-2.64389e-06
5.73201e-07
2.06913e-06
-3.84783e-05
-3.25633e-06
7.81118e-07
3.83112e-05
-5.79368e-06
1.4127e-06
5.12297e-05
-2.1196e-06
-2.28993e-06
-2.05504e-06
-2.26099e-06
3.55739e-06
3.29381e-06
3.711e-06
3.7889e-06
5.33376e-07
-7.64359e-06
2.75492e-05
-1.38423e-06
-3.77318e-08
-2.33115e-06
-3.98593e-07
2.09128e-07
-1.21485e-05
-3.48814e-07
1.32532e-07
1.4145e-07
-4.17766e-07
-3.60547e-07
6.94472e-07
-1.36286e-06
6.29422e-07
2.73901e-06
4.12849e-07
-3.95871e-07
-1.56465e-06
-9.8221e-07
-5.60341e-08
1.04328e-06
6.61648e-07
-1.59011e-06
6.81061e-07
-7.39846e-07
-1.29676e-05
-1.74961e-06
1.24932e-06
1.34679e-05
2.14747e-06
-4.42791e-05
-2.23286e-06
-3.66374e-06
3.14263e-06
4.48856e-05
2.79334e-06
-8.52253e-06
5.47439e-05
1.68737e-06
8.80825e-07
2.23578e-06
1.57021e-06
2.3982e-06
-1.34283e-05
1.37071e-05
-1.52895e-06
-1.61465e-06
3.50582e-06
-2.43843e-06
-7.50998e-07
-3.07256e-06
-9.07852e-07
-1.8619e-06
-1.50031e-06
-3.29773e-06
1.53617e-06
-1.46328e-06
1.02002e-06
6.75868e-07
7.56468e-07
-3.24617e-06
2.63878e-06
-3.08745e-06
4.19939e-06
-1.26101e-06
-4.64995e-05
-1.94305e-06
-9.4961e-07
4.51321e-06
4.83044e-05
-3.42541e-06
-1.64537e-05
-1.96457e-06
4.74302e-05
1.67106e-06
-3.96237e-07
1.95392e-06
-5.44722e-07
-2.12369e-06
-1.89043e-06
-2.22557e-06
-4.89997e-06
-5.61367e-07
5.61725e-05
-4.82156e-06
-4.39371e-06
-5.3976e-06
9.63391e-07
-1.16925e-06
6.63968e-07
-3.35635e-05
-3.8231e-06
1.22434e-06
2.96477e-05
-1.33854e-05
-8.10125e-06
2.22707e-06
2.39976e-06
1.686e-05
-2.41984e-06
6.18144e-07
-1.76438e-07
1.97813e-06
-1.15571e-05
-5.18437e-07
-3.9947e-06
1.41056e-05
-3.4828e-05
4.6383e-06
-5.751e-06
2.51683e-06
3.28625e-05
-1.29965e-05
-3.60974e-06
3.8642e-06
1.2742e-05
-8.05709e-07
9.11554e-07
-9.59381e-07
8.53536e-07
-2.54435e-05
-3.81522e-07
-6.50806e-07
2.64758e-05
-2.94245e-06
3.07302e-06
-1.29248e-05
-3.11888e-06
2.72709e-06
1.31861e-05
4.56218e-07
-8.55492e-06
1.46028e-06
1.24428e-06
1.9654e-06
3.42873e-06
-2.70251e-06
-2.41533e-07
2.25718e-06
1.29191e-06
2.1782e-06
-2.78324e-06
8.13506e-07
2.14372e-06
-3.78791e-05
-3.15786e-06
1.00392e-06
3.70758e-05
-8.96968e-06
-4.13219e-06
5.59545e-05
-1.43132e-06
-2.2594e-06
-7.82865e-07
-1.82153e-06
3.67777e-06
3.38369e-06
3.76472e-06
3.84598e-06
-5.10053e-06
-1.95617e-06
3.45005e-05
-3.01353e-06
-1.77345e-06
-2.15382e-06
-1.92347e-06
-2.03716e-06
-1.095e-05
1.4551e-05
-7.76533e-07
-7.67138e-07
-8.21018e-07
-7.88927e-07
-1.11471e-06
-8.29407e-07
-1.91549e-06
-4.22486e-07
-7.73445e-07
-2.20451e-06
-1.55712e-07
1.51899e-06
1.82433e-06
-4.15817e-07
2.05532e-06
-2.00639e-06
1.48206e-06
-2.93951e-06
-1.40064e-05
-1.83145e-06
1.2243e-06
1.46136e-05
2.22184e-06
-4.55497e-05
-2.36223e-06
-3.01884e-06
3.04515e-06
4.56638e-05
-5.31484e-06
-1.39398e-05
6.22292e-05
1.95575e-06
1.29653e-06
2.44811e-06
1.93668e-06
-3.77357e-06
-1.03152e-05
2.05248e-05
1.37199e-07
-4.75183e-06
4.14995e-06
-1.08776e-06
5.33782e-08
5.82635e-07
-4.06012e-06
-2.95995e-06
-3.28126e-06
1.38999e-06
2.02634e-06
1.19178e-06
-3.41013e-06
-1.06078e-06
1.50778e-06
-3.24958e-06
-1.23198e-06
1.74341e-06
1.83517e-06
-6.04799e-07
-5.00598e-05
-2.20412e-06
-5.01175e-07
4.31282e-06
5.17426e-05
-3.29039e-06
-1.86687e-05
-2.61515e-06
6.02998e-05
1.8729e-06
-3.85573e-07
2.22967e-06
-6.22819e-07
-2.98922e-06
-2.48337e-06
-3.14715e-06
-6.53501e-06
-1.15161e-06
4.79127e-05
-6.0726e-06
-3.45242e-06
-3.09236e-06
1.95793e-07
-5.32067e-07
-8.37923e-08
-2.65487e-05
-3.0409e-06
-9.88923e-07
1.92916e-05
-1.61497e-05
1.68403e-06
-3.45244e-06
4.49736e-06
1.34207e-05
-3.61264e-06
-7.37935e-07
-3.11329e-06
2.27015e-06
5.19371e-06
-1.66696e-05
-4.56976e-07
-5.11868e-06
1.96301e-05
-3.00171e-05
6.59403e-06
-6.36774e-06
3.15936e-06
2.54798e-05
-1.21964e-05
-4.79827e-06
5.10306e-06
1.18925e-05
-6.19264e-07
3.00259e-07
3.07622e-07
1.13831e-08
-2.69358e-05
1.40356e-06
-1.61581e-06
2.7148e-05
-1.62833e-06
4.77589e-07
-1.43007e-05
-9.08498e-07
1.0324e-06
1.53276e-05
-1.55518e-06
-4.37872e-07
7.75554e-08
9.12853e-07
1.96742e-06
-9.64781e-07
-1.27522e-06
-3.57279e-07
1.74969e-06
9.87806e-07
5.62675e-07
-1.66768e-06
1.50107e-06
2.09052e-06
-3.5896e-05
-3.22391e-06
1.15816e-06
3.43702e-05
-7.34465e-06
-9.08285e-06
6.12454e-05
6.29959e-07
-1.42415e-06
1.13199e-06
-1.07625e-06
3.29381e-06
2.897e-06
2.76958e-06
2.91463e-06
-3.63579e-06
8.95467e-06
3.31886e-05
-2.75608e-06
-2.92461e-06
-2.78341e-06
-2.88751e-06
2.72829e-07
5.2304e-06
1.45788e-05
-1.89271e-06
-1.53902e-06
-1.99697e-06
-1.65158e-06
-1.21464e-06
1.71888e-07
-1.0438e-06
-3.56901e-06
-2.33592e-06
6.6231e-07
2.19559e-06
3.31986e-06
2.15607e-06
9.6013e-07
-1.81998e-06
-3.63716e-07
-9.32501e-07
-1.52185e-05
-1.72615e-06
1.20861e-06
1.5736e-05
2.06671e-06
-4.58469e-05
-2.50039e-06
-2.38359e-06
2.85072e-06
4.58135e-05
-9.01956e-06
-1.6905e-05
7.16013e-05
1.87032e-06
1.28626e-06
2.4439e-06
1.86904e-06
-7.89669e-06
-5.94015e-07
2.89506e-05
-1.60623e-06
-3.61815e-07
7.12004e-06
-2.29985e-07
-2.21713e-06
-1.05846e-06
-3.33854e-08
-5.202e-08
-7.73554e-08
-2.75478e-07
-1.56536e-06
-1.13949e-07
-3.55558e-07
7.0412e-07
-8.18203e-07
2.69358e-06
-1.45909e-06
3.28219e-06
-4.14927e-06
4.50801e-07
-5.3316e-05
-2.66338e-06
5.74884e-07
4.35367e-06
5.42336e-05
-3.18273e-06
-1.65778e-05
-1.83763e-06
6.97597e-05
9.05031e-07
-1.13425e-06
1.47551e-06
-1.0112e-06
-3.36366e-06
-1.15878e-06
-3.66207e-06
-3.59803e-06
-2.1993e-07
4.32469e-05
-2.52294e-06
-3.2356e-06
-2.53879e-06
-4.8224e-08
-3.94649e-07
5.21698e-08
-1.522e-05
-2.13435e-06
-4.87151e-07
1.38817e-05
-8.23889e-06
7.24455e-07
-4.27202e-07
7.94666e-06
-2.32352e-05
-2.09951e-06
-3.80731e-06
2.73043e-05
-2.18319e-05
4.66169e-06
-5.10606e-06
2.22418e-06
1.98322e-05
-1.01399e-05
-1.43417e-07
2.88571e-06
7.40139e-06
6.22209e-07
-1.30778e-06
1.58012e-06
-8.94551e-07
-2.73811e-05
1.95328e-06
-2.01636e-06
2.74441e-05
-2.96679e-07
-2.27602e-06
-1.55541e-05
2.81629e-06
4.85121e-07
1.48254e-05
-1.46735e-06
1.64831e-06
-2.62316e-06
2.60346e-06
1.75046e-06
-1.91173e-06
-2.43768e-07
-1.55604e-06
1.50158e-06
2.03012e-06
1.7367e-07
-1.90556e-06
1.5103e-06
1.68086e-06
-3.25917e-05
-2.52789e-06
9.16928e-07
3.10115e-05
-1.35728e-06
-1.6046e-05
6.88114e-05
1.63486e-06
1.44319e-07
1.14853e-06
5.00098e-07
1.97768e-06
1.67162e-06
1.11928e-06
1.6409e-06
2.88566e-06
8.51275e-06
3.08868e-05
-2.12005e-06
-3.08345e-06
-1.9321e-06
-3.31828e-06
1.18031e-06
9.17803e-06
1.37537e-05
-2.50946e-06
-1.86946e-06
-3.09443e-06
-2.19108e-06
6.5122e-07
1.31041e-06
1.05523e-06
-2.85442e-06
-2.76451e-06
3.35472e-06
3.44452e-06
-1.6165e-05
-1.67911e-06
1.32256e-06
1.65216e-05
1.39873e-06
-4.5624e-05
-2.08729e-06
-1.64972e-06
2.78059e-06
4.51816e-05
-8.05449e-06
-2.04233e-05
7.70812e-05
1.56176e-06
9.5922e-07
2.46929e-06
1.96165e-06
-7.86866e-06
-1.90973e-07
3.74685e-05
-2.01616e-06
2.44014e-07
1.4111e-05
-1.85758e-06
-1.54888e-06
-2.64879e-06
4.53629e-07
9.50954e-07
7.41204e-07
-6.47838e-07
-2.06837e-06
-1.56198e-06
8.45519e-07
1.41651e-06
-5.5137e-05
-2.94495e-06
1.28523e-06
4.26741e-06
5.5818e-05
-3.28865e-06
-1.33853e-05
-6.41067e-07
7.48151e-05
-1.13396e-07
-1.84442e-06
4.90988e-07
-2.00302e-06
-3.85307e-06
-2.869e-07
-3.84248e-06
-2.60576e-06
-5.937e-07
3.87886e-05
-1.8148e-06
-1.85893e-06
-1.53093e-06
1.92139e-07
-7.98979e-07
-1.07072e-07
-1.18771e-05
-5.50949e-07
5.5473e-07
9.51153e-06
-8.22659e-06
8.30264e-07
6.7309e-08
7.32902e-06
-3.02305e-05
-3.90369e-06
1.78849e-06
3.17046e-05
-1.84449e-05
1.96699e-06
-3.62604e-06
1.5739e-06
1.79363e-05
-5.74699e-06
-1.509e-06
2.62892e-06
4.62706e-06
1.05043e-06
-1.72211e-06
1.8183e-06
-1.14662e-06
-2.70196e-05
3.29773e-06
-2.5045e-06
2.62263e-05
8.50449e-07
-3.62358e-06
-1.29015e-05
4.9967e-06
4.11317e-07
1.02666e-05
-7.10514e-07
2.16157e-06
-4.36904e-06
4.16007e-06
5.93154e-07
-1.83524e-06
-1.27686e-07
-2.63219e-06
2.8134e-06
2.96404e-06
1.91815e-07
-3.20938e-06
1.63758e-06
1.06886e-06
-2.92359e-05
-1.49517e-06
-4.07329e-08
2.80654e-05
7.4948e-06
-2.21189e-05
7.57545e-05
1.40844e-06
1.6479e-06
1.32016e-06
2.32706e-06
5.44192e-07
3.61058e-07
7.10205e-08
1.22423e-09
1.04781e-05
6.01859e-06
2.93489e-05
-9.08566e-07
-2.85631e-06
-7.47498e-07
-2.95165e-06
1.90624e-06
1.16569e-05
1.70634e-05
-3.21242e-06
-2.54465e-06
-3.52415e-06
-2.97286e-06
1.85657e-06
2.02911e-06
1.97368e-06
-3.36276e-06
-2.5464e-06
4.20926e-06
3.60613e-06
-1.67044e-05
-1.42218e-06
1.43789e-06
1.66887e-05
2.25945e-07
-4.53015e-05
-9.49578e-07
-9.32452e-07
1.50527e-06
4.54523e-05
-2.95304e-06
-2.38583e-05
7.90482e-05
1.03496e-06
3.13007e-07
1.1892e-06
1.88232e-07
-2.45254e-06
4.71287e-07
4.25153e-05
-5.5343e-07
1.79975e-06
2.20307e-05
-2.11377e-06
-6.29784e-07
-2.11049e-06
1.28606e-06
2.14939e-06
1.45701e-06
-2.36897e-06
-3.10165e-06
-1.6449e-06
2.87561e-06
3.68648e-06
-5.62075e-05
-3.16499e-06
2.38448e-06
3.97666e-06
5.55812e-05
-2.56979e-06
-8.45513e-06
-2.44037e-07
7.63458e-05
-1.5468e-06
-2.91304e-06
-1.93514e-06
-3.06447e-06
-3.52564e-06
-4.41737e-07
-3.26299e-06
-1.7497e-06
-9.25898e-07
3.90003e-05
-1.22083e-06
-2.05332e-06
-1.62719e-06
1.52713e-07
-1.02724e-06
2.55936e-07
-8.0933e-06
-7.3685e-07
1.47028e-06
7.40992e-06
-6.91325e-06
-1.02956e-07
8.28454e-07
6.18776e-06
-3.17599e-05
-4.04724e-06
5.14564e-06
3.04174e-05
-1.82123e-05
-9.13104e-07
-1.81195e-06
6.78761e-07
1.93327e-05
-3.94096e-06
-8.35722e-07
9.89356e-07
3.78732e-06
1.04043e-06
-2.4969e-06
2.26843e-06
-8.11961e-07
-2.5103e-05
3.51014e-06
-3.29314e-07
2.19222e-05
2.29959e-06
-6.20029e-06
-7.69512e-06
6.19018e-06
-8.08443e-07
6.21409e-06
-4.06184e-07
1.2694e-06
-5.24909e-06
5.0069e-06
-2.47279e-07
-3.73744e-07
-2.85919e-07
-3.52309e-06
4.15366e-06
3.26254e-06
6.44015e-07
-4.25121e-06
9.94531e-07
7.43948e-07
-2.73168e-05
-1.1349e-06
-7.95714e-07
2.7509e-05
1.46497e-05
-2.54209e-05
8.19156e-05
1.66241e-06
2.9528e-06
2.2124e-06
3.52192e-06
-6.28203e-07
-1.66262e-06
-1.39038e-06
-2.0582e-06
1.59703e-05
5.72906e-06
2.8208e-05
-3.38198e-07
-2.62162e-06
-2.83765e-07
-2.6652e-06
2.54214e-06
1.26653e-05
2.26942e-05
-3.45574e-06
-3.0651e-06
-3.48e-06
-3.23397e-06
2.73157e-06
2.75662e-06
2.87871e-06
-4.02718e-06
-2.76054e-06
4.561e-06
4.76887e-06
-1.65015e-05
-1.40527e-06
1.76067e-06
1.61461e-05
-1.56159e-06
-4.51357e-05
-1.51934e-07
1.76148e-06
1.43219e-06
4.36556e-05
2.70414e-06
-2.5687e-05
8.55182e-05
-1.41238e-06
-2.58919e-06
-1.9312e-06
-2.97527e-06
3.69985e-06
1.01933e-06
4.62293e-05
6.73955e-08
2.34215e-06
3.10213e-05
-9.66978e-07
-9.83301e-08
-9.06391e-07
2.1271e-06
2.56759e-06
2.24203e-06
-4.58136e-06
-3.38349e-06
-1.91535e-06
3.82731e-06
6.12029e-06
-5.44015e-05
-3.03405e-06
3.85032e-06
2.77978e-06
5.26828e-05
-1.87731e-06
-5.8495e-06
-2.22831e-07
7.82773e-05
-3.92614e-06
-3.59212e-06
-3.82143e-06
-4.27468e-06
-2.84777e-06
-3.32404e-07
-2.75163e-06
-2.26395e-06
-9.24079e-07
4.27669e-05
-1.66344e-06
-1.99666e-06
-1.7504e-06
5.16028e-07
-1.0102e-06
4.95924e-07
-7.57025e-06
-2.02875e-06
1.93208e-06
7.74511e-06
-4.75456e-06
-1.70665e-06
2.99403e-06
3.46717e-06
-2.79273e-05
-4.70767e-06
6.73827e-06
2.56739e-05
-2.09332e-05
-1.65858e-06
-1.15722e-06
2.71368e-07
2.25536e-05
-3.88851e-06
-1.23551e-06
7.79902e-07
4.34412e-06
5.5917e-07
-2.80461e-06
2.55445e-06
-3.09011e-07
-1.60228e-05
4.82388e-06
6.28183e-07
1.05707e-05
2.88125e-06
-6.40777e-06
-5.44661e-06
6.10716e-06
-2.23923e-06
5.10521e-06
-2.15668e-07
-3.55566e-07
-5.55832e-06
5.62372e-06
-5.19662e-07
1.0255e-06
-1.13849e-06
-3.81676e-06
4.84625e-06
3.21691e-06
1.93735e-06
-5.04526e-06
-1.45852e-06
-5.99959e-07
-2.82788e-05
4.8348e-07
2.93124e-07
2.95606e-05
2.1143e-05
-2.3386e-05
8.6846e-05
2.34358e-06
3.07272e-06
2.74205e-06
3.40107e-06
-2.69821e-06
-3.94821e-06
-3.59256e-06
-4.00779e-06
1.93319e-05
8.07556e-06
2.77994e-05
-3.87393e-07
-2.46978e-06
-4.96627e-07
-2.50196e-06
3.09584e-06
1.26951e-05
2.9612e-05
-3.42465e-06
-3.21048e-06
-3.37536e-06
-3.30028e-06
3.31071e-06
3.20927e-06
3.41391e-06
-5.74866e-06
-2.73125e-06
4.60367e-06
6.97209e-06
-1.57929e-05
-7.13802e-07
1.19203e-06
1.53146e-05
-1.6169e-06
-4.18051e-05
4.5001e-07
3.00918e-06
5.37797e-08
3.9909e-05
6.57008e-06
-2.33557e-05
9.51692e-05
-3.83671e-06
-4.94928e-06
-3.4142e-06
-4.05126e-06
7.09364e-06
2.73999e-06
5.10414e-05
2.41663e-07
2.29668e-06
4.14544e-05
-1.90658e-07
2.21288e-07
-3.15172e-07
2.49516e-06
2.20039e-06
2.4062e-06
-7.30624e-06
-3.39252e-06
-1.93992e-06
4.05585e-06
8.82449e-06
-5.04672e-05
-3.10677e-06
4.47657e-06
3.06182e-06
4.68949e-05
-8.59351e-07
-6.26412e-06
4.55456e-08
8.02162e-05
-4.19518e-06
-4.22444e-06
-2.29411e-06
-3.02683e-06
-2.49201e-06
-4.78218e-07
-2.36523e-06
-1.98535e-06
-1.24143e-06
4.74973e-05
-1.18716e-06
-1.45206e-06
-4.94901e-07
2.46492e-07
-1.24875e-06
-8.91306e-07
-8.40993e-06
-1.55444e-06
1.36088e-06
8.91482e-06
-3.00757e-06
-2.66078e-06
2.39752e-06
3.27084e-06
-2.45169e-05
-5.71865e-06
5.48666e-06
2.47944e-05
-2.37419e-05
-4.23938e-07
-9.95626e-07
6.94132e-08
2.38506e-05
-4.88495e-06
-8.6935e-07
5.12598e-07
5.2417e-06
6.98267e-08
-2.89245e-06
2.6771e-06
1.45519e-07
-6.89719e-06
5.55168e-06
-3.62132e-06
4.96683e-06
3.05459e-06
-5.91354e-06
-5.03795e-06
5.78036e-06
-3.17601e-06
5.29255e-06
-4.08451e-07
-1.43749e-06
-5.6851e-06
5.98444e-06
-2.37256e-07
1.78386e-06
-2.78163e-06
-3.89627e-06
5.21796e-06
3.23159e-06
3.65071e-06
-5.42236e-06
-1.63629e-06
-2.41699e-06
-3.04156e-05
3.21446e-06
9.06311e-07
3.03481e-05
2.47159e-05
-1.58737e-05
8.82012e-05
2.31647e-06
2.59978e-06
2.58432e-06
2.8949e-06
-4.83871e-06
-5.40307e-06
-5.38371e-06
-4.96735e-06
1.8823e-05
1.08617e-05
2.92345e-05
-7.27066e-07
-2.37622e-06
-8.45081e-07
-2.45557e-06
2.97163e-06
1.17739e-05
3.76211e-05
-3.42115e-06
-3.22845e-06
-3.29021e-06
-3.20015e-06
3.28242e-06
2.85328e-06
3.07263e-06
-8.36812e-06
-2.88844e-06
4.53637e-06
9.69182e-06
-1.45357e-05
-2.04018e-07
1.09906e-06
1.36406e-05
-3.10366e-06
-3.79793e-05
1.54534e-06
5.14189e-06
-1.32845e-06
3.57242e-05
9.35143e-06
-1.6787e-05
0.000101788
-4.70173e-06
-4.83264e-06
-3.65109e-06
-1.87172e-06
8.27869e-06
5.44296e-06
5.75328e-05
3.5349e-07
1.271e-06
5.38738e-05
9.3757e-08
2.21448e-07
7.90364e-09
2.22239e-06
1.57741e-06
1.88589e-06
-1.02478e-05
-3.19756e-06
-1.96552e-06
3.75544e-06
1.20089e-05
-4.29279e-05
-2.72884e-06
3.2451e-06
1.82167e-06
3.9799e-05
7.91003e-07
-5.97469e-06
-1.00416e-06
7.64256e-05
-1.21508e-06
-1.37522e-06
1.16339e-06
-1.66569e-08
-1.5295e-06
-1.55519e-06
-1.48941e-06
-1.56339e-06
-9.36296e-07
5.26876e-05
3.90088e-07
-1.02288e-06
6.44481e-07
-1.28636e-06
-6.7543e-07
-1.27229e-06
-1.04524e-05
-1.24854e-06
-3.05599e-07
1.17141e-05
-3.80953e-06
-2.39419e-06
1.66822e-06
4.53551e-06
-2.56112e-05
-1.83227e-06
-4.49492e-07
2.68888e-05
-2.25489e-05
8.73967e-07
1.70539e-06
-1.04819e-06
2.00814e-05
-5.23122e-06
1.59693e-06
-1.69043e-06
5.32471e-06
-3.40083e-07
-2.70617e-06
2.5423e-06
5.03957e-07
-4.00579e-06
5.65499e-06
-5.06758e-06
3.41837e-06
3.0149e-06
-5.47176e-06
-5.64651e-06
5.53795e-06
-3.55329e-06
6.11869e-06
-8.07158e-07
-2.08088e-06
-5.76007e-06
5.80156e-06
3.64803e-07
2.48174e-06
-4.46998e-06
-3.56998e-06
4.54731e-06
3.08829e-06
5.35047e-06
-4.94612e-06
9.21019e-07
-3.25075e-06
-2.91722e-05
4.80543e-06
-5.90562e-07
2.72871e-05
2.20684e-05
-6.92274e-06
8.45499e-05
2.44174e-06
2.34797e-06
2.69635e-06
2.64464e-06
-5.64748e-06
-5.65652e-06
-5.43958e-06
-4.88148e-06
1.28109e-05
1.12907e-05
3.42073e-05
-1.02739e-06
-2.3721e-06
-1.17356e-06
-2.43296e-06
2.02747e-06
1.02011e-05
4.66197e-05
-3.15924e-06
-2.90953e-06
-2.91798e-06
-2.7593e-06
1.49959e-06
1.3438e-06
4.86424e-07
-1.0949e-05
-2.68236e-06
3.96668e-06
1.16921e-05
-1.28922e-05
8.9035e-07
-3.36002e-07
1.23379e-05
-3.12196e-06
-3.38874e-05
3.53726e-06
4.64621e-06
-4.14644e-06
3.29724e-05
1.2557e-05
-1.1294e-05
9.99313e-05
-3.84184e-06
-9.19839e-07
-2.10725e-06
5.40056e-07
9.81361e-06
6.73502e-06
6.48319e-05
3.39731e-07
1.0536e-06
6.53787e-05
5.31327e-07
6.88305e-07
8.39509e-07
1.67666e-06
1.79558e-06
1.58507e-06
-1.3787e-05
-2.62727e-06
-1.39996e-06
2.49476e-06
1.56592e-05
-3.76851e-05
2.10042e-07
-7.28477e-07
3.87943e-07
3.54941e-05
2.32149e-06
-2.19221e-06
-1.91998e-06
7.20055e-05
1.09261e-06
1.32597e-07
1.68558e-06
3.66459e-07
-2.02673e-06
-2.04986e-06
-1.96225e-06
-1.16592e-06
-4.70718e-07
5.85857e-05
9.81919e-07
-3.14672e-07
9.98546e-07
-7.82223e-07
-2.47147e-07
-3.55094e-07
-1.36931e-05
-6.37089e-07
-7.12012e-07
1.49299e-05
-5.326e-06
-1.52941e-06
6.06478e-07
6.24894e-06
-2.78276e-05
-2.33073e-08
-2.01912e-06
2.795e-05
-1.71739e-05
-6.31261e-07
4.13572e-06
-1.86555e-06
1.50643e-05
-5.63556e-06
2.47135e-06
-3.02789e-06
6.1921e-06
-6.53206e-07
-2.50592e-06
2.35337e-06
8.05755e-07
-3.18141e-06
5.60054e-06
-5.68009e-06
3.26096e-06
2.84542e-06
-5.30561e-06
-6.64052e-06
5.46845e-06
-3.71034e-06
7.3426e-06
-1.06589e-06
-2.92527e-06
-5.65461e-06
5.3083e-06
8.6195e-07
3.47552e-06
-6.32642e-06
-2.95574e-06
3.23423e-06
2.74184e-06
7.44051e-06
-4.13442e-06
3.88443e-06
-3.82739e-06
-2.51679e-05
4.80285e-06
-2.63378e-06
2.29418e-05
1.69775e-05
-4.16889e-06
7.91509e-05
2.9182e-06
2.23659e-06
3.09366e-06
2.463e-06
-4.70951e-06
-5.00147e-06
-4.47572e-06
-3.93438e-06
7.12908e-06
9.35135e-06
4.19682e-05
-1.28533e-06
-2.36745e-06
-1.2978e-06
-2.31325e-06
1.33521e-07
7.35561e-06
5.68222e-05
-2.63255e-06
-2.14317e-06
-2.29742e-06
-1.85418e-06
-5.13698e-07
-5.75891e-07
-5.45641e-07
-1.24822e-05
-1.40897e-06
1.13011e-06
1.28946e-05
-1.18769e-05
2.5128e-07
2.92888e-07
1.13327e-05
-1.96719e-06
-3.28269e-05
3.54923e-06
2.77823e-06
-4.18569e-06
3.26523e-05
1.71299e-05
-1.04108e-05
9.67742e-05
-3.04735e-06
-7.9256e-07
-2.43213e-06
-1.45883e-06
1.35542e-05
5.06682e-06
7.26922e-05
1.47655e-06
1.00163e-06
7.44786e-05
1.56634e-06
2.17296e-06
1.71193e-06
1.20845e-06
1.49858e-06
1.17351e-06
-1.71578e-05
-8.81867e-07
6.1821e-08
8.83074e-07
1.85713e-05
-3.35063e-05
1.80606e-06
-8.67171e-07
-1.80213e-06
3.15812e-05
2.78832e-06
2.87066e-06
-2.76083e-06
7.20855e-05
-6.39956e-07
-7.18999e-07
-1.83574e-06
-1.4831e-06