/*--------------------------------*- C++ -*----------------------------------*\
| =========                 |                                                 |
| \\      /  F ield         | OpenFOAM: The Open Source CFD Toolbox           |
|  \\    /   O peration     | Version:  5.x                                   |
|   \\  /    A nd           | Web:      www.OpenFOAM.org                      |
|    \\/     M anipulation  |                                                 |
\*---------------------------------------------------------------------------*/
FoamFile
{
    version     2.0;
    format      ascii;
    class       volVectorField;
    location    "2";
    object      U;
}
// * * * * * * * * * * * * * * * * * * * * * * * * * * * * * * * * * * * * * //

dimensions      [0 1 -1 0 0 0 0];

internalField   nonuniform List<vector> 
10571
(
(-0.0624039 0.147464 0.839565)
(-0.183395 0.134386 1.00801)
(-0.291206 0.183773 1.13797)
(-0.331281 0.28173 1.3594)
(-0.187768 -0.00894318 0.944359)
(-0.306926 -0.0674077 1.94881)
(-1.77586 0.189803 2.80675)
(-1.07985 -0.323139 1.94619)
(-0.288855 -0.0127668 1.2223)
(-0.0151881 0.103082 1.18056)
(-0.292402 -2.00083 3.22665)
(-0.530337 -0.427771 2.18477)
(-0.472448 -0.206337 1.49259)
(-0.304893 -0.269293 1.08413)
(0.127389 0.0285879 1.40575)
(0.188903 0.173734 1.68527)
(-0.896256 -0.583974 1.86249)
(-0.403888 -0.208555 1.05632)
(-0.141653 -0.00410066 1.10641)
(0.27308 0.117529 1.34385)
(0.0320964 -0.0189241 1.34994)
(-0.488993 -0.125795 1.23729)
(-0.0237332 0.116944 1.20702)
(0.086158 -0.071365 1.15434)
(-0.00923191 0.0760169 0.590126)
(-0.247739 0.144569 1.18046)
(-0.0961476 0.110222 0.881119)
(-0.0370605 0.350975 1.1225)
(-0.334055 0.20441 0.756996)
(-0.303567 0.0310617 2.46157)
(-0.127823 0.165452 1.45663)
(-0.0824937 -0.0526268 1.1012)
(-0.0410097 0.138911 0.951549)
(-0.0717148 0.337785 0.872667)
(0.0505369 -0.0368743 1.66444)
(0.090849 -0.035523 1.40423)
(-0.361197 0.083212 1.45505)
(-0.0156604 0.083984 0.630781)
(0.33861 0.37104 1.31298)
(-0.0420987 1.23626 2.88368)
(0.0128211 -0.0334891 0.937498)
(-0.0280526 -0.21557 0.973336)
(0.0500572 0.095336 0.70408)
(0.183709 0.0932604 1.07823)
(-0.0926515 0.152015 1.4033)
(-0.137566 -0.227623 0.955192)
(0.23126 -0.129364 0.959697)
(0.193348 -0.082616 0.89209)
(-0.013624 0.031139 -0.10339)
(-0.0501549 -0.0602623 0.722731)
(-0.646619 -0.255206 0.516216)
(-0.720072 0.6632 1.46405)
(-0.179393 0.0847129 0.0295017)
(-0.200611 0.18671 1.37027)
(-0.146139 0.416918 1.3606)
(-0.348212 0.119044 0.933362)
(-0.0502416 0.0689605 0.218177)
(-0.0655666 0.183365 0.229638)
(-0.0109748 0.348904 1.30969)
(-0.184479 0.355047 1.19283)
(-0.488075 0.0657072 1.1582)
(-0.00322928 0.0475626 0.103054)
(0.0261026 0.262795 0.38349)
(0.183052 1.32555 2.37407)
(0.063404 0.24824 0.706308)
(0.154036 -0.263312 1.35793)
(-0.195165 0.252992 1.19862)
(-0.10406 0.656078 1.30285)
(-0.306018 0.923493 1.06727)
(-0.177839 -0.139235 0.769029)
(0.152656 -0.115124 1.15068)
(-0.154518 0.275318 1.02516)
(-0.0221851 0.0177674 -0.195628)
(-0.0988367 0.0261322 1.21798)
(-0.73788 -0.0105092 0.634039)
(-0.709366 -0.482576 1.30181)
(0.000697911 -0.0115221 -0.213797)
(-0.209128 0.0899327 1.58739)
(-0.302296 0.216953 0.566667)
(-0.273652 0.558464 0.338637)
(0.015839 0.0424978 -0.198184)
(-0.0382537 0.0400793 -0.154984)
(0.0402253 0.312867 1.62852)
(-0.297291 0.332069 1.73194)
(-0.212647 -0.149398 0.354902)
(-0.0121942 -0.0366971 -0.113885)
(-0.0508691 0.157651 0.0864469)
(-0.310959 0.363884 1.32579)
(-0.0602969 0.389256 1.24207)
(-0.0238925 -0.0379657 0.37055)
(-0.210302 0.201865 0.646569)
(-0.415307 0.695941 1.27652)
(-0.282711 0.857096 1.38694)
(-0.0991581 0.0934215 -0.00535802)
(-0.0658874 -0.121355 0.873715)
(-0.607453 0.50399 1.59613)
(0.0651436 -0.0486653 0.00146861)
(-0.0491531 0.0263906 1.4855)
(-0.388648 -0.0444264 0.716549)
(-0.302274 -0.280918 1.21916)
(-0.00566224 -0.0770411 -0.164641)
(-0.199508 0.0187809 1.60323)
(-0.189856 0.313382 0.660778)
(-0.0864866 0.265514 0.406567)
(0.00733553 -0.0228548 -0.234486)
(-0.0129309 -0.00587026 -0.233343)
(0.0266211 0.298906 1.64521)
(-0.260446 0.262647 1.82782)
(-0.0208732 -0.117086 0.609148)
(0.0204849 -0.105256 0.0349429)
(-0.0221233 0.015166 0.0636108)
(-0.133797 0.0668434 0.797661)
(-0.0639855 0.333416 1.47122)
(-0.0392951 -0.128516 0.517386)
(-0.171136 0.0304961 0.799334)
(-0.276927 0.308114 1.39748)
(-0.220889 0.536292 1.3479)
(0.0276998 0.0871665 0.130669)
(-0.429393 0.106732 1.25738)
(-0.58648 0.405128 1.66403)
(0.0326245 -0.0270016 -0.011596)
(-0.0507201 0.0486501 1.61421)
(-0.237809 0.105339 0.730999)
(-0.168739 -0.158986 0.901659)
(0.0254001 0.0277693 -0.128849)
(-0.187694 -0.0215411 1.66937)
(-0.182616 0.253165 0.517407)
(-0.000474931 0.0576623 0.14818)
(0.00615969 -0.122383 -0.233619)
(0.0100999 -0.105048 -0.208177)
(0.0126143 -0.0021619 -0.000328535)
(0.0202204 0.315856 1.74174)
(-0.22305 0.245243 1.89826)
(0.0840031 -0.0861065 0.55258)
(0.150169 -0.112396 0.0499734)
(0.0677204 -0.166672 -0.067794)
(0.0371305 0.00279818 0.286866)
(-0.0028284 0.00286274 0.000372515)
(-0.00507755 0.283537 1.6935)
(-0.0935204 -0.189987 0.317708)
(-0.175347 -0.131216 0.718875)
(-0.236229 0.18907 1.50674)
(-0.149348 0.35329 1.23249)
(-0.00573265 -0.0111093 0.355253)
(-0.502704 0.0737308 1.42012)
(-0.347931 0.165872 1.28885)
(0.0269314 -0.0376057 0.107885)
(-0.00027914 0.0132417 1.7226)
(-0.237717 0.199109 0.609939)
(0.034632 0.117607 0.74203)
(0.15343 0.18177 0.0886223)
(-0.20853 -0.0268869 1.6938)
(-0.21375 0.129454 0.527)
(-0.00283543 0.0270305 0.283617)
(0.0259096 -0.0954145 -0.127297)
(0.00247031 -0.12207 -0.0802154)
(-0.104766 -0.0230132 -0.0346977)
(0.0140533 0.333187 1.89326)
(-0.246958 0.201644 1.96884)
(0.0375903 -0.0881886 0.547542)
(0.0749374 -0.288978 0.114256)
(-0.0255961 -0.41497 0.0505732)
(-0.120212 -0.0924145 0.112462)
(-0.295705 0.26725 -0.0655587)
(0.0154715 0.251616 1.86094)
(-0.161883 -0.206376 0.404283)
(-0.431028 -0.19827 0.767854)
(-0.260482 0.0730066 1.45276)
(0.0364902 0.32889 1.1002)
(-0.257312 0.0597959 0.131774)
(-0.170689 -0.0911334 0.671434)
(-0.409946 0.0114431 1.36022)
(-0.318697 0.208919 1.22477)
(-0.018379 -0.0512307 0.11724)
(0.0586081 -0.0227269 1.89259)
(-0.274511 0.228594 0.561139)
(-0.0361577 0.0102675 0.232238)
(0.185816 0.0518292 0.0987731)
(-0.215452 -0.0234158 1.6501)
(-0.250867 0.0268578 0.520113)
(-0.0705526 0.138979 0.309718)
(-0.0920801 -0.0580097 0.116903)
(-0.174176 0.0407712 0.0490301)
(-0.163325 0.0519637 -0.119666)
(0.00207068 0.360534 2.05086)
(-0.253284 0.208254 2.01556)
(-0.109119 -0.177558 0.564545)
(-0.0624115 -0.213198 0.159446)
(-0.0952277 -0.396891 0.0450591)
(0.0648147 -0.24241 -0.0621143)
(0.000978888 0.23132 -0.0823534)
(0.0280924 0.245315 1.99977)
(-0.303983 -0.307364 0.599993)
(-0.408725 -0.177477 0.454861)
(-0.405417 -0.241457 1.24308)
(0.333568 0.0141643 0.911667)
(0.121469 0.114974 0.253269)
(-0.171193 -0.095159 0.903308)
(-0.484635 -0.0419734 1.19591)
(-0.471027 0.294396 1.15927)
(-0.0187778 -0.00828997 0.0680135)
(0.13782 -0.0786862 1.97319)
(-0.0785056 0.187102 0.66104)
(0.0325113 0.121498 -0.0207784)
(0.140617 0.0148265 0.0302235)
(-0.241418 -0.0485908 1.53313)
(-0.204409 -0.06724 0.574093)
(-0.0588451 0.230525 0.365025)
(-0.0560172 0.159617 0.191586)
(0.0444157 0.209604 0.136842)
(-0.156762 0.0826499 -0.0636995)
(-0.00725287 0.361663 2.21448)
(-0.241176 0.20039 2.01634)
(-0.211609 -0.252664 0.674803)
(-0.0994801 0.101428 0.26507)
(-0.160599 0.045397 0.0354106)
(-0.0811458 0.0739694 0.0515989)
(0.134982 -0.192499 0.0522746)
(0.0713065 0.239511 2.10424)
(-0.237274 -0.328409 0.70035)
(-0.35927 -0.130354 0.54362)
(-0.213252 -0.0508446 0.751201)
(0.0767594 -0.0984802 0.490829)
(0.00641011 -0.0369341 1.26117)
(-0.321221 0.0078192 0.880073)
(-0.198922 0.00419471 0.782236)
(0.173163 0.0289528 -0.118688)
(0.159621 -0.101921 2.00147)
(0.242966 0.151828 0.687669)
(0.214393 0.11334 -0.0766511)
(0.100849 0.120075 0.00791264)
(-0.200989 -0.0344786 1.39853)
(-0.105437 -0.227716 0.660405)
(0.057253 0.185711 0.32059)
(0.0515273 0.208591 0.139189)
(0.103712 0.223289 0.183118)
(-0.0116025 0.349614 2.3463)
(-0.180138 0.186177 1.99388)
(-0.220198 -0.336528 0.75648)
(-0.0567634 0.126544 0.334379)
(-0.189936 0.129904 0.113053)
(-0.0871873 0.09805 0.0429791)
(0.109763 0.2447 2.17578)
(-0.132723 -0.365842 0.762638)
(-0.34068 -0.13453 0.416462)
(-0.0728412 -0.0141508 0.426608)
(0.0232953 -0.0670286 0.62013)
(0.327241 0.0990228 1.59263)
(-0.206238 -0.00889449 0.680778)
(-0.178312 0.0830123 0.42278)
(0.246304 0.0273048 -0.159274)
(0.248815 -0.150591 1.93717)
(0.404282 0.0633614 0.516602)
(0.333516 0.036964 -0.0931519)
(0.200358 0.180237 0.00667025)
(-0.135205 -0.070344 1.2527)
(0.00508119 -0.342988 0.729383)
(0.235902 0.109972 0.302564)
(0.141071 0.222981 0.155888)
(0.116552 0.242864 0.174619)
(-0.00629795 0.305133 2.39288)
(-0.0844785 0.076592 2.01024)
(-0.14551 -0.436538 0.791682)
(0.0445094 0.108539 0.412294)
(-0.106411 0.19937 0.18714)
(0.0242944 0.252581 0.120366)
(0.16151 0.214793 2.20162)
(-0.0372063 -0.381143 0.812719)
(-0.252219 -0.0889584 0.387569)
(-0.038364 0.117401 0.332496)
(-0.0349597 -0.0766438 0.612666)
(0.415072 0.145988 1.58922)
(-0.0841997 -0.0541347 0.738784)
(-0.0271513 0.0381562 0.348992)
(0.374138 0.0166312 -0.131904)
(0.173566 0.0233381 1.79861)
(0.528501 -0.103043 0.297453)
(0.388642 -0.0199292 -0.0376604)
(0.293552 0.201106 0.0175594)
(-0.132235 -0.0595202 1.1969)
(0.134488 -0.389149 0.794032)
(0.344275 0.104436 0.292514)
(0.221445 0.232896 0.209191)
(0.146403 0.269561 0.225528)
(0.00472681 0.303208 2.34509)
(0.0927339 0.0847849 1.96721)
(-0.0528489 -0.496911 0.827175)
(0.14095 0.102573 0.458388)
(0.0074963 0.223137 0.281208)
(0.0307786 0.30094 0.208031)
(0.157749 0.1516 2.10453)
(-0.0300197 -0.362013 0.827826)
(-0.17109 -0.0590706 0.424386)
(-0.129638 0.162561 0.334358)
(-0.166354 0.110063 0.344998)
(0.522934 0.136082 1.33625)
(-0.0515802 -0.0621313 0.855296)
(-0.0465458 0.0565199 0.363325)
(0.42563 0.0211637 -0.0612829)
(0.231913 -0.0271179 0.903491)
(0.503372 -0.195673 0.224395)
(0.422738 -0.0475462 0.0303601)
(0.349485 0.200907 0.0593741)
(-0.0340488 0.0713202 1.2819)
(0.298631 -0.319805 0.854843)
(0.399267 0.132933 0.285237)
(0.276851 0.230757 0.275823)
(0.18102 0.26916 0.324662)
(-0.0245282 0.196702 2.2389)
(0.0642213 -0.0208598 1.79541)
(0.0139721 -0.488468 0.906315)
(0.201539 0.148815 0.4933)
(0.0671297 0.227789 0.380653)
(0.0181258 0.315317 0.318926)
(0.151775 0.116182 1.92955)
(-0.117828 -0.280225 0.837051)
(-0.120293 -0.0403098 0.478044)
(-0.119878 0.157256 0.376402)
(-0.127881 0.234672 0.280439)
(0.508124 0.12209 1.22776)
(-0.0898528 -0.106279 0.940294)
(-0.0304038 0.052954 0.472584)
(0.430427 0.0263832 0.00579612)
(0.294199 -0.31371 0.408541)
(0.454049 -0.238463 0.22262)
(0.452125 -0.0279764 0.0703485)
(0.380295 0.207 0.124951)
(0.161167 0.231335 1.34106)
(0.428539 -0.179191 0.892826)
(0.392847 0.160713 0.28087)
(0.256549 0.215952 0.340587)
(0.179022 0.265222 0.456178)
(0.0010248 0.120995 2.0129)
(0.293492 -0.107224 1.61908)
(0.0944298 -0.369517 1.00771)
(0.216469 0.207929 0.543613)
(0.0946622 0.221589 0.499253)
(0.0145264 0.291224 0.44108)
(0.295152 -0.0212192 1.59267)
(-0.131907 -0.189258 0.821055)
(-0.0834871 -0.00384544 0.525174)
(-0.091478 0.0559985 0.488344)
(-0.0745457 0.20058 0.384093)
(0.0898895 -0.0185698 1.31952)
(-0.00364668 -0.0923975 0.856857)
(0.165983 -0.0805892 0.47812)
(0.381543 0.028463 0.0619546)
(0.307318 -0.315688 0.261853)
(0.414259 -0.246706 0.256759)
(0.461283 0.0140171 0.0998798)
(0.337033 0.199753 0.193827)
(0.287033 0.115668 1.24137)
(0.426949 -0.073366 0.868138)
(0.306385 0.163262 0.30536)
(0.124872 0.17067 0.445327)
(0.144451 0.231952 0.572814)
(-0.0201365 -0.0499272 1.78953)
(0.374365 -0.331822 1.45158)
(0.194331 -0.175469 1.02787)
(0.233805 0.21497 0.618703)
(0.128797 0.214576 0.631909)
(-0.00773207 0.198733 0.584669)
(0.0327766 -0.0778195 1.42949)
(-0.0351971 -0.198385 0.783003)
(-0.0420116 0.0326949 0.590773)
(-0.0671305 0.0424828 0.625977)
(-0.0254583 0.126615 0.527591)
(-0.0810494 -0.104771 1.41186)
(0.231513 -0.0481702 0.623345)
(0.273241 -0.109115 0.53379)
(0.344361 0.0246595 0.105322)
(0.307794 -0.314544 0.231461)
(0.401357 -0.236001 0.305139)
(0.438749 0.0394082 0.140888)
(0.257677 0.17446 0.27187)
(0.349726 -0.181751 1.06596)
(0.35909 -0.0637628 0.800588)
(0.206816 0.141148 0.374857)
(0.029282 0.0985913 0.546892)
(-0.00327991 0.0950568 0.642946)
(0.0154689 0.0764755 1.66138)
(0.257188 -0.355651 1.44865)
(0.299958 -0.0926487 0.979688)
(0.298322 0.16961 0.696748)
(0.185889 0.178626 0.745272)
(0.072878 0.0873373 0.712064)
(-0.0910873 -0.143908 1.28022)
(0.140855 -0.253923 0.75321)
(-0.0296663 0.0216797 0.651298)
(-0.0181227 0.0605617 0.76972)
(-0.00181132 0.104733 0.694397)
(-0.0376983 -0.149636 1.29211)
(0.238251 0.00602405 0.56174)
(0.211622 -0.0770865 0.663451)
(0.299816 0.020543 0.145611)
(0.280282 -0.2987 0.276571)
(0.379561 -0.202507 0.379392)
(0.400972 0.0416814 0.195247)
(0.179278 0.143892 0.363797)
(0.346946 -0.408928 0.833042)
(0.304757 -0.1118 0.778016)
(0.153554 0.114131 0.468123)
(0.00207046 0.0135369 0.653431)
(-0.0894502 0.000726386 0.676391)
(-0.0162293 0.136718 1.52071)
(0.198931 -0.257672 1.37527)
(0.395878 -0.105713 0.979216)
(0.341108 0.0881335 0.783814)
(0.219552 0.0681528 0.83141)
(0.153843 0.0400428 0.806774)
(-0.0344812 -0.0937306 1.0619)
(0.1628 -0.249034 0.774028)
(-0.0718286 -0.0479847 0.711576)
(-0.0266457 0.0347439 0.815841)
(0.0262826 0.0559131 0.833684)
(0.0932744 -0.194615 0.750159)
(-0.00619986 -0.0266682 0.596842)
(0.0793609 -0.00722153 0.783136)
(0.264604 0.0189005 0.174734)
(0.228927 -0.23844 0.337916)
(0.337137 -0.150315 0.455802)
(0.353943 0.0352961 0.251209)
(0.13113 0.126501 0.446269)
(0.311577 -0.468236 0.66514)
(0.22644 -0.10699 0.805384)
(0.104129 0.0964309 0.57381)
(-0.00550837 -0.0619176 0.777299)
(-0.0882566 -0.0010622 0.710022)
(-0.00858486 -0.234541 1.18257)
(0.318688 -0.315485 1.0656)
(0.40744 -0.127249 1.02254)
(0.297671 0.0375961 0.891724)
(0.188089 -0.0625378 0.909664)
(0.145643 -0.0134163 0.89786)
(0.172414 -0.142726 0.811999)
(0.152675 -0.233914 0.867063)
(-0.128158 -0.118611 0.819833)
(-0.0846528 -0.13744 0.754215)
(0.022655 0.0576873 0.95265)
(-0.0427503 -0.103804 0.493064)
(0.0211982 -0.126412 0.496664)
(0.0179925 -0.00868499 0.803559)
(0.243954 0.0167981 0.196137)
(0.17466 -0.173567 0.350902)
(0.298298 -0.12149 0.502883)
(0.298028 0.0404894 0.289023)
(0.08549 0.114699 0.513554)
(0.211184 -0.293701 0.620059)
(0.089467 -0.0171248 0.853804)
(0.0340031 0.091988 0.666191)
(-0.0138155 -0.0807148 0.903383)
(-0.0789696 0.070519 0.722772)
(0.00307242 -0.256235 0.763001)
(0.28328 -0.273293 0.810397)
(0.353243 -0.0938621 1.07872)
(0.219069 0.0325388 1.02362)
(0.146301 -0.126361 1.00959)
(0.10181 -0.0730152 0.981104)
(0.174779 -0.0983802 0.565027)
(0.148198 -0.267787 0.903266)
(-0.168814 -0.126826 0.92742)
(-0.0920495 -0.235432 0.644792)
(0.0457582 -0.0251933 1.0608)
(-0.0314012 0.0418908 0.379965)
(0.027052 -0.0553296 0.333736)
(0.0131431 -0.0603306 0.500739)
(0.225563 0.0122128 0.223791)
(0.132365 -0.132404 0.345059)
(0.274382 -0.116296 0.51658)
(0.237049 0.0636632 0.310622)
(0.0238032 0.0959993 0.551119)
(0.105088 -0.243531 0.618447)
(0.0145714 0.0363827 0.882229)
(-0.0362877 0.08807 0.734118)
(-0.00891463 -0.0579489 1.0107)
(-0.0555433 0.114483 0.655747)
(0.00292451 -0.186182 0.520694)
(0.119551 -0.2054 0.73464)
(0.195281 -0.0484269 1.14288)
(0.169661 0.0387787 1.12926)
(0.120553 -0.125591 1.07809)
(0.0775452 -0.110999 1.08653)
(0.0349738 -0.0683015 0.398899)
(0.11653 -0.30223 0.867067)
(-0.15049 -0.147319 0.981102)
(-0.133973 -0.0881369 0.546343)
(0.107523 -0.110665 1.10679)
(-0.0187079 0.129406 0.313655)
(0.00808242 0.0230763 0.260132)
(0.0568594 -0.0266596 0.282998)
(0.215455 0.00832942 0.261542)
(0.0906615 -0.101635 0.356313)
(0.252421 -0.129473 0.51854)
(0.1738 0.0861043 0.333616)
(-0.0284597 0.0605668 0.554973)
(0.0488296 -0.287925 0.606367)
(-0.00270964 0.0292036 0.908594)
(-0.0855866 0.0737191 0.792645)
(-0.0104493 -0.0435539 1.06847)
(-0.0129764 0.0346209 0.666121)
(-0.00574383 -0.103535 0.455659)
(-0.0533053 -0.193506 0.673875)
(0.0598456 -0.126596 1.17553)
(0.133725 0.0420571 1.18725)
(0.0986229 -0.11677 1.08436)
(0.0904934 -0.147332 1.20054)
(-0.0663764 -0.0437297 0.342122)
(-0.0228513 -0.246303 0.722608)
(-0.0906932 -0.19669 0.967077)
(0.0234094 -0.0639945 0.505343)
(0.104902 -0.097473 1.00342)
(-0.00688466 0.139612 0.272999)
(0.0019077 0.0750403 0.232971)
(0.0585082 -0.00581447 0.203835)
(0.217607 0.00624401 0.306673)
(0.0382741 -0.0742978 0.395753)
(0.241748 -0.14698 0.524717)
(0.121263 0.0838642 0.376151)
(-0.0651815 0.0399904 0.543996)
(0.0152438 -0.300427 0.605541)
(0.00274009 -0.0358221 0.952167)
(-0.0988039 0.0445998 0.860116)
(-0.0300894 -0.0519847 1.07719)
(0.0192029 -0.167982 0.774475)
(-0.00503356 -0.00185864 0.459759)
(-0.0913894 -0.21058 0.614)
(-0.00331895 -0.217409 1.16507)
(0.0960182 0.00278046 1.2454)
(0.0531089 -0.144256 1.07949)
(0.0855217 -0.170516 1.24941)
(-0.0711395 -0.0508496 0.348416)
(-0.137827 -0.0986516 0.516811)
(0.0176232 -0.20765 0.825572)
(0.128615 -0.102483 0.49326)
(-0.0155636 -0.0562623 0.968933)
(0.00226057 0.0734502 0.272189)
(-0.0128184 0.100096 0.220591)
(0.0551858 0.00786122 0.189238)
(0.230926 0.00493709 0.358447)
(-0.00398934 -0.0543153 0.46164)
(0.244634 -0.128204 0.549006)
(0.0894565 0.0502467 0.445448)
(-0.095667 0.0481602 0.56171)
(-0.0204391 -0.242134 0.640247)
(0.0136244 -0.146311 0.974494)
(-0.0847686 0.0179414 0.943169)
(-0.0803509 -0.0870028 1.09295)
(-0.0151073 -0.322034 0.880991)
(0.00101448 0.076071 0.460461)
(-0.0254707 -0.159245 0.583307)
(-0.0130808 -0.236695 1.10908)
(0.100384 -0.0773081 1.30402)
(-0.000427378 -0.202385 1.10848)
(0.0335009 -0.252157 1.22407)
(0.0101437 -0.0607359 0.355424)
(-0.106241 -0.0504141 0.409255)
(0.0756723 -0.0846938 0.608161)
(0.164435 -0.0941565 0.474269)
(0.00749976 -0.13301 0.537719)
(0.00746363 -0.00515513 0.281993)
(-0.0293398 0.0829374 0.219602)
(0.063344 0.00135954 0.204898)
(0.250184 0.00556761 0.411667)
(-0.00550898 -0.0481347 0.50757)
(0.210431 -0.105653 0.593647)
(0.0667061 0.00777034 0.530292)
(-0.0924371 0.0653636 0.603536)
(-0.0791273 -0.114881 0.669049)
(0.0194508 -0.195756 0.983199)
(-0.067286 0.00900307 1.0385)
(-0.107879 -0.0763143 1.11421)
(-0.0431493 -0.336817 0.980089)
(0.00817429 0.124966 0.449104)
(0.0185722 -0.0832725 0.563022)
(0.017732 -0.246809 0.993393)
(0.140436 -0.138992 1.32426)
(0.015272 -0.216389 1.14043)
(-0.0128033 -0.339118 1.10076)
(0.0742719 -0.012714 0.330992)
(-0.0514112 -0.0505096 0.342518)
(0.0516388 0.0213373 0.473878)
(0.161658 -0.0716407 0.405077)
(0.0933045 -0.125071 0.480811)
(0.020591 -0.0383846 0.2653)
(-0.0268728 0.0269072 0.231209)
(0.0771089 -0.0192353 0.202241)
(0.257949 0.00978905 0.460078)
(0.0195761 -0.0519658 0.518339)
(0.123368 -0.0978182 0.625594)
(0.0735281 -0.0286222 0.61884)
(-0.061698 0.0775257 0.632536)
(-0.112055 0.00371581 0.65833)
(0.0208563 -0.194196 0.996696)
(-0.0418727 0.00572491 1.13212)
(-0.121695 -0.0346068 1.14631)
(-0.0884695 -0.156542 1.0236)
(0.0090575 0.133632 0.441533)
(-0.0306707 0.00331755 0.538588)
(0.0220728 -0.26355 0.895338)
(0.146416 -0.163292 1.3183)
(0.0436592 -0.200541 1.16537)
(0.020571 -0.163134 1.01237)
(0.103129 0.0331891 0.302064)
(-0.0176713 -0.053783 0.296163)
(0.0144393 0.0803809 0.379489)
(0.147576 -0.0304153 0.352783)
(0.0602191 -0.0432019 0.509562)
(0.0346934 -0.0462918 0.238712)
(-0.00805739 -0.0133702 0.227041)
(0.0777124 -0.029818 0.177657)
(0.231627 0.0176954 0.498013)
(0.0385705 -0.0602121 0.5276)
(0.0509147 -0.0899417 0.640744)
(0.0999691 -0.051981 0.714049)
(-0.013777 0.0924262 0.63456)
(-0.0835888 0.0545775 0.641089)
(0.0137775 -0.1587 1.0071)
(0.0104448 -0.00984708 1.21313)
(-0.118781 0.0130843 1.21283)
(-0.0684615 -0.0681146 0.908757)
(0.00537029 0.105808 0.450552)
(-0.0864031 0.059722 0.523173)
(-0.0358073 -0.226343 0.830849)
(0.138565 -0.186772 1.29006)
(0.0325621 -0.185602 1.17754)
(-0.0671632 0.0875456 1.0004)
(0.0959443 0.0681116 0.288694)
(0.00321175 -0.0379258 0.258915)
(-0.0121727 0.11417 0.31013)
(0.136212 0.0276472 0.357273)
(0.00240791 0.066471 0.584136)
(0.0505813 -0.0377177 0.213563)
(0.00484704 -0.0243167 0.212576)
(0.0611903 -0.0270177 0.147888)
(0.171168 0.024393 0.508566)
(0.0597117 -0.075377 0.545888)
(0.0329662 -0.0868512 0.629043)
(0.129749 -0.0642246 0.817579)
(0.0285817 0.103175 0.629334)
(-0.053979 0.0681435 0.645606)
(-0.0525982 -0.0901114 1.00248)
(0.0523012 -0.0289113 1.27774)
(-0.0917849 0.0701252 1.28164)
(0.0137932 -0.00142943 0.838282)
(-0.0037138 0.0571309 0.451943)
(-0.10593 0.068569 0.54969)
(-0.149334 -0.063528 0.743397)
(0.156718 -0.214122 1.20208)
(0.0202994 -0.183538 1.22225)
(-0.111806 0.156978 0.932481)
(0.0640012 0.0770668 0.303273)
(0.0124895 -0.000955225 0.250751)
(-0.021213 0.128107 0.255367)
(0.114208 0.0732701 0.401256)
(-0.0336765 0.113521 0.659223)
(0.0650363 -0.0149611 0.200844)
(0.0192741 -0.0243104 0.205568)
(0.0377029 -0.016128 0.134034)
(0.090848 0.0196519 0.506979)
(0.0685121 -0.0757625 0.561368)
(0.0276475 -0.0579031 0.59481)
(0.125939 -0.0888045 0.932848)
(0.0553925 0.100044 0.632579)
(-0.0210391 0.0423347 0.66049)
(-0.105021 -0.0155956 0.956334)
(0.0538328 -0.0803152 1.31535)
(-0.0458809 0.107908 1.30859)
(0.0563307 -0.0042056 0.789513)
(-0.0130726 0.00355162 0.425683)
(-0.0799452 0.0582019 0.6158)
(-0.206293 0.0883023 0.660577)
(0.135191 -0.148869 1.09996)
(0.0556874 -0.166893 1.28438)
(-0.0515494 0.127135 0.894532)
(0.0236499 0.068662 0.333752)
(0.00809997 0.047064 0.280187)
(-0.0211106 0.128927 0.230393)
(0.101614 0.092583 0.439931)
(-0.0295902 0.122743 0.656621)
(0.0747137 0.0132327 0.211191)
(0.0360403 -0.0138715 0.216068)
(0.0130646 -0.00476629 0.147877)
(0.00553461 -0.000218337 0.551505)
(0.0653572 -0.0721535 0.572167)
(0.0263352 -0.0194876 0.57104)
(0.0803427 -0.144169 1.01493)
(0.0804972 0.0640898 0.654019)
(-0.0141209 0.0144375 0.676665)
(-0.0948753 0.0645475 0.875038)
(0.031299 -0.173453 1.28938)
(0.00462604 0.102624 1.30338)
(0.0642339 -0.0532914 0.765285)
(-0.0152555 -0.0336 0.400398)
(-0.0419445 0.0350769 0.679967)
(-0.195332 0.147079 0.623094)
(0.0355862 0.0714826 0.89242)
(0.105725 -0.140614 1.27842)
(0.0395371 0.00247458 0.945902)
(-0.0128761 0.0617894 0.364065)
(0.00162277 0.0900964 0.322759)
(-0.0245097 0.108397 0.246784)
(0.109036 0.107745 0.468846)
(-0.020694 0.148676 0.627217)
(0.0782525 0.0387687 0.245312)
(0.0527128 0.00796707 0.254629)
(-0.013026 0.00565062 0.184742)
(-0.0547781 -0.0285336 0.685292)
(0.0791071 -0.0874849 0.574996)
(0.0535537 -0.0110739 0.596563)
(0.00423115 -0.237534 1.0043)
(0.100846 -0.00963716 0.727837)
(-0.0119571 -0.0357579 0.652278)
(-0.0521002 0.107027 0.81332)
(0.0209438 -0.232481 1.15139)
(0.0324855 0.0444038 1.28632)
(0.0563107 -0.0967998 0.791159)
(-0.0168783 -0.0576926 0.401159)
(-0.0338143 0.0220544 0.690549)
(-0.14831 0.148591 0.631258)
(0.00950744 0.154014 0.679378)
(0.141452 -0.0780822 1.20977)
(0.100292 -0.0608038 0.995461)
(-0.0333921 0.0622743 0.389111)
(0.010422 0.117925 0.365213)
(-0.0352313 0.0457286 0.301239)
(0.107232 0.122974 0.494794)
(-0.0177083 0.167254 0.642607)
(0.07578 0.0579231 0.298207)
(0.0709229 0.0203152 0.315758)
(-0.0437654 0.0154979 0.241787)
(-0.0855007 -0.0335944 0.888673)
(0.0957523 -0.088805 0.538619)
(0.0529145 0.0235428 0.632476)
(-0.0241383 -0.253688 0.988263)
(0.0798715 -0.0657407 0.85497)
(0.0124381 -0.0711379 0.600976)
(-0.0239474 0.0980163 0.805186)
(0.0538432 -0.17726 0.997291)
(0.0450114 -0.0751459 1.23931)
(0.0470606 -0.120871 0.877569)
(-0.017512 -0.0740456 0.442056)
(-0.0780176 -0.00887475 0.613731)
(-0.061408 0.126377 0.631175)
(0.0445827 0.104138 0.529703)
(0.172035 0.0400454 1.07384)
(0.142822 -0.044312 1.02045)
(-0.0449977 0.0643718 0.421882)
(0.022464 0.12523 0.395717)
(-0.0383707 -0.0102578 0.358363)
(0.0666946 0.113983 0.504701)
(-0.0103702 0.174907 0.750691)
(0.0684593 0.0710107 0.360941)
(0.0872271 0.0243776 0.378298)
(-0.0657892 0.0212517 0.312508)
(-0.0652686 -0.0160027 1.02447)
(0.075103 -0.0477505 0.503965)
(0.00506445 0.049181 0.631958)
(-0.0198213 -0.171435 1.02157)
(0.0201109 -0.0949429 0.991499)
(0.00829171 -0.0570394 0.581171)
(-0.0134 0.0513401 0.800515)
(0.112909 -0.0698002 0.899592)
(0.0682883 -0.11532 1.1843)
(0.0309689 -0.0783369 1.00331)
(-0.00869977 -0.0455152 0.492248)
(-0.101652 -0.0302775 0.515248)
(-0.0112854 0.101847 0.564745)
(0.0648146 0.0432306 0.451291)
(0.148879 0.073382 0.95785)
(0.155328 -0.0280468 1.03636)
(-0.0391121 0.0533963 0.465959)
(0.0259518 0.10857 0.413592)
(-0.0295713 -0.0459911 0.404125)
(0.0109858 0.0267385 0.51466)
(-0.0147204 0.145113 0.908007)
(0.0636692 0.0740793 0.424414)
(0.0958331 0.024283 0.430674)
(-0.0554892 0.0101911 0.378827)
(-0.0174866 -0.00654732 1.07986)
(0.0311768 0.00220188 0.526586)
(-0.0307723 0.0238942 0.622588)
(0.00102638 -0.0673911 1.03135)
(-0.00069018 -0.104677 1.09414)
(-0.0437304 -0.0228733 0.586058)
(-0.0136512 0.00980789 0.728651)
(0.141698 0.0172782 0.817354)
(0.0909183 -0.0962688 1.16223)
(0.0130697 0.000668946 1.12317)
(-0.0060177 0.0308837 0.51673)
(-0.0807196 0.00413662 0.478984)
(-0.00511203 0.077177 0.481357)
(0.0483814 0.00415367 0.430494)
(0.0916229 0.0422455 0.883833)
(0.14312 -0.0262702 1.06584)
(-0.0172623 0.0445317 0.507377)
(0.0226849 0.0776865 0.421363)
(-0.0251411 -0.0664462 0.433128)
(-0.0152881 -0.0525355 0.512753)
(-0.0228988 0.118934 0.992928)
(0.0693597 0.0638545 0.475295)
(0.0945962 0.0215263 0.467382)
(-0.0084312 -0.0152975 0.428704)
(0.0196894 0.000249718 1.09724)
(0.0117021 0.0224992 0.579926)
(-0.0542819 -0.017562 0.6408)
(0.00608262 -0.0108536 1.02932)
(0.0191709 -0.0612703 1.16424)
(-0.0883493 -0.0227949 0.607669)
(-0.0437011 -0.00221546 0.617792)
(0.106277 0.0392402 0.755042)
(0.0969841 -0.0353237 1.17886)
(0.00665737 0.0525093 1.20666)
(-0.00306272 0.105764 0.558769)
(-0.0816144 0.0404735 0.471523)
(-0.0299233 0.0504617 0.429339)
(-0.0108451 -0.0102138 0.444258)
(0.0189315 0.037537 0.855869)
(0.0744673 0.0265132 1.13848)
(0.0160959 0.0459246 0.556475)
(0.0137309 0.0491158 0.42449)
(-0.0421884 -0.0678433 0.451188)
(-0.0374829 -0.0687923 0.508559)
(-0.0321918 0.122693 1.01839)
(0.0792198 0.0515656 0.508565)
(0.0877788 0.0163553 0.49199)
(0.00622117 -0.0254006 0.453658)
(0.0264552 -0.000613205 1.08325)
(0.0187706 0.0102023 0.644038)
(-0.0486273 -0.0355207 0.6743)
(-0.0246774 -0.0284945 0.968534)
(0.0456139 -0.00471206 1.18227)
(-0.11683 -0.0218062 0.583017)
(-0.0865307 -0.00189013 0.550199)
(-0.00340458 -0.00536862 0.716756)
(0.0885469 0.0459431 1.18394)
(0.0301899 0.147203 1.24502)
(0.00122641 0.167523 0.622156)
(-0.0853874 0.0457886 0.484015)
(-0.0743658 0.0299517 0.416858)
(-0.108174 -0.00589193 0.465798)
(-0.0839697 0.0691625 0.831296)
(0.00763326 0.148569 1.18816)
(0.0477124 0.0566382 0.611302)
(-0.00146432 0.037417 0.432613)
(-0.0840398 -0.0477892 0.481655)
(-0.107487 -0.0129033 0.516629)
(-0.0741827 0.177745 1.01165)
(0.0918308 0.0460471 0.528404)
(0.0820602 0.0128434 0.517773)
(-0.0249707 -0.00826234 0.474559)
(0.0119263 -0.00455028 1.09611)
(0.0215365 -0.00574912 0.707863)
(-0.0120552 -0.0278167 0.701495)
(0.00361752 -0.0475076 0.792544)
(0.130919 -0.00313225 1.18038)
(-0.129302 0.0106812 0.558247)
(-0.114213 -0.00711082 0.512721)
(-0.135735 -0.0603401 0.674444)
(0.0770912 0.056151 1.16321)
(0.0813038 0.233515 1.24962)
(0.00149527 0.203224 0.697801)
(-0.0765163 0.0167619 0.5141)
(-0.117946 0.0206462 0.429827)
(-0.182495 -0.000964514 0.47473)
(-0.208207 0.0941507 0.762083)
(-0.0332715 0.254708 1.18858)
(0.0676988 0.0645941 0.660349)
(-0.0164749 0.0404286 0.453667)
(-0.127228 -0.0189845 0.541161)
(-0.207723 0.0529068 0.526545)
(-0.0976301 0.240487 1.0048)
(0.100343 0.0479357 0.550115)
(0.0748657 0.0165664 0.560777)
(-0.0435631 0.0086678 0.548293)
(0.018075 -0.00578135 1.12632)
(0.0150763 -0.0188655 0.765778)
(0.0143325 -0.0314447 0.714773)
(0.0555152 -0.0464297 0.682022)
(0.171213 0.0590774 1.15861)
(-0.136146 0.0228677 0.55998)
(-0.120386 -0.0133683 0.490487)
(-0.213988 -0.0677704 0.614708)
(0.0118351 0.0133455 1.12028)
(0.105088 0.240378 1.25494)
(0.00164744 0.207345 0.778906)
(-0.0269305 -0.0333144 0.542016)
(-0.148267 0.0169587 0.450386)
(-0.209146 0.00402346 0.487926)
(-0.294946 0.0805659 0.645005)
(-0.037224 0.286971 1.13383)
(0.0819634 0.0705543 0.689564)
(-0.0340967 0.0406745 0.487834)
(-0.145544 -0.00163475 0.609378)
(-0.261222 0.0695302 0.575832)
(-0.145348 0.303834 0.982139)
(0.112528 0.0582401 0.58231)
(0.0794968 0.0192346 0.614719)
(-0.0140562 0.00380342 0.654777)
(0.0375338 -0.00681358 1.15652)
(0.00229984 -0.0244112 0.833386)
(0.00593082 -0.0479293 0.722519)
(0.0143464 -0.0570097 0.641414)
(0.160642 0.11649 1.13701)
(-0.125647 -0.000316081 0.585454)
(-0.118853 -0.0241611 0.481251)
(-0.221084 -0.0395719 0.561251)
(-0.153378 -0.0455371 0.983031)
(0.112818 0.205042 1.23389)
(0.00494951 0.16652 0.834616)
(-0.00811483 -0.0591524 0.530642)
(-0.163528 0.00190226 0.467302)
(-0.203761 0.0076951 0.504086)
(-0.276109 0.0305807 0.566053)
(-0.103111 0.177975 1.04822)
(0.0870729 0.0852534 0.703909)
(-0.0633375 0.0249023 0.523499)
(-0.1553 -0.00165573 0.644385)
(-0.181725 0.0108973 0.672691)
(-0.198189 0.308096 0.767937)
(0.133561 0.0698553 0.626633)
(0.0876392 0.0183853 0.667304)
(0.0389398 -0.0178257 0.728613)
(0.0641118 -0.00922107 1.19971)
(-0.0121607 -0.0127015 0.903475)
(-0.0439748 -0.0430127 0.739585)
(-0.0583414 -0.077493 0.630929)
(0.118071 0.153282 1.14245)
(-0.0956281 -0.0270566 0.639071)
(-0.113019 -0.0455999 0.485493)
(-0.184028 -0.0285387 0.52825)
(-0.178973 -0.0156242 0.90524)
(0.0804629 0.155878 1.20088)
(-0.000892536 0.117238 0.873772)
(-0.0535943 -0.0495628 0.508415)
(-0.162627 -0.0342851 0.479065)
(-0.192189 -0.0072062 0.514759)
(-0.204114 -0.00161669 0.550413)
(-0.110368 0.122246 0.847977)
(0.070646 0.0912582 0.707016)
(-0.106583 -0.0147712 0.548627)
(-0.167727 -0.0139987 0.643446)
(-0.133292 -0.043223 0.70198)
(-0.0750469 0.0344645 0.530698)
(0.140171 0.0786455 0.672689)
(0.0980973 0.0101147 0.706572)
(0.0688537 -0.0381806 0.743746)
(0.0712221 -0.0162067 1.21637)