/*--------------------------------*- C++ -*----------------------------------*\
| =========                 |                                                 |
| \\      /  F ield         | OpenFOAM: The Open Source CFD Toolbox           |
|  \\    /   O peration     | Version:  5.x                                   |
|   \\  /    A nd           | Web:      www.OpenFOAM.org                      |
|    \\/     M anipulation  |                                                 |
\*---------------------------------------------------------------------------*/
FoamFile
{
    version     2.0;
    format      ascii;
    class       volVectorField;
    location    "2";
    object      Us;
}
// * * * * * * * * * * * * * * * * * * * * * * * * * * * * * * * * * * * * * //

dimensions      [0 1 -1 0 0 0 0];

internalField   nonuniform List<vector> 
10571
(
(0.0305139 0.0189957 -0.0649466)
(-0.0460223 0.0525884 -0.00156175)
(0.0229262 0.104803 -0.0120998)
(0.0580539 0.162585 0.0121879)
(0.00479659 0.101944 -0.043453)
(-0.0274193 0.0754767 0.0425476)
(0.10969 0.0563224 0.129996)
(0.0718531 0.0651816 0.136946)
(-0.0173752 0.142588 0.096927)
(-0.00247013 0.0770476 -0.0739901)
(-0.0382831 -0.00607358 0.128955)
(-0.0320804 0.0511233 0.0960796)
(0.0923465 -0.0335804 0.0296126)
(0.0995979 -0.110299 0.0653513)
(0.122763 -0.000223692 0.0528901)
(0.0115575 0.0658756 0.0601689)
(-0.0553172 -0.0349098 0.0909089)
(-0.000651613 -0.0263803 -0.00826252)
(0.110702 -0.023981 -0.0270818)
(0.164676 -0.000686257 0.0622345)
(0.0157678 -0.00609693 0.0372835)
(-0.000257459 0.00208674 0.0323312)
(0.126832 0.00784963 0.0523802)
(0.105888 -0.0426347 0.0709741)
(0.0202439 0.0192093 -0.186088)
(-0.0610176 0.0636907 -0.0244699)
(-0.0167318 0.0601495 -0.148048)
(0.0419156 0.146589 -0.00190192)
(-0.0290672 0.0755146 -0.152406)
(-0.0602464 0.0955004 0.0253822)
(0.0425871 0.0780804 0.0853154)
(0.0904419 0.049285 0.24814)
(0.0565209 0.0727611 -0.0171718)
(0.0194111 0.0556347 -0.13617)
(0.0101064 0.0199123 0.179483)
(0.0247168 0.0326821 0.144321)
(-0.0190121 0.0586739 -0.0619801)
(0.0480786 0.0365164 -0.0966326)
(0.177371 0.0685283 -0.0437735)
(0.0201178 0.161886 0.042537)
(0.0106238 -0.00340871 0.147964)
(-0.0110558 -0.0232334 -0.0606268)
(0.0674756 0.0365473 -0.062794)
(0.17752 0.0275222 0.106467)
(0.0236875 0.0183439 0.086788)
(-0.0116392 -0.0243123 -0.0439664)
(0.0903402 -0.0059296 0.0490503)
(0.111502 -0.0533772 0.134233)
(0.000380546 0.00416214 -0.282222)
(0 0 0)
(-0.0967273 -0.0642943 -0.368899)
(-0.0180413 -0.117312 -0.224271)
(-0.0325005 0.0457506 -0.282192)
(0 0 0)
(-0.0339461 0.0938623 -0.279405)
(0.0475169 0.0634815 -0.278125)
(0.0265031 0.0459433 -0.309202)
(-0.00868052 0.0324521 -0.225529)
(0 0 0)
(0 0 0)
(-0.058021 -0.000727018 -0.354152)
(0.0116912 0.0381025 -0.280731)
(0.0927084 0.054641 -0.296035)
(0.0517835 0.0734961 -0.20774)
(0 0 0)
(-0.0809107 -0.0641427 -0.300376)
(-0.0223721 0.0148415 -0.209469)
(0.0506267 0.0964612 -0.228602)
(-0.0146832 0.070604 -0.17049)
(-0.111371 -0.0304333 -0.271023)
(-0.0538014 -0.00648378 -0.267068)
(-0.0325633 0.0254063 -0.142117)
(-0.0283882 -0.00319865 -0.315283)
(0 0 0)
(0 0 0)
(0.00540382 -0.0862575 -0.273308)
(0.0453112 0.00375028 -0.335444)
(0 0 0)
(-0.0634676 0.045178 -0.359526)
(0.0725328 0.0867109 -0.338444)
(0.0410642 0.0209614 -0.322738)
(-0.0144273 -0.00116191 -0.277874)
(0 0 0)
(0 0 0)
(-0.10268 -0.109464 -0.349234)
(-0.0340743 -0.0407872 -0.344849)
(0.0605995 0.0216086 -0.318191)
(0.0222836 0.020479 -0.183507)
(0 0 0)
(-0.129338 -0.0897547 -0.300079)
(-0.0933382 -0.0477664 -0.241852)
(-0.0137551 0.0861064 -0.124806)
(-0.0446188 0.0685498 -0.0961698)
(-0.136129 -0.00762421 -0.336883)
(-0.0842119 -0.0227962 -0.203702)
(-0.068206 0.0551984 -0.0196264)
(-0.0537991 -0.0213153 -0.26524)
(0 0 0)
(0 0 0)
(-0.072102 -0.0204728 -0.294155)
(0.0437561 -0.0161106 -0.274775)
(0 0 0)
(-0.141768 0.0138476 -0.338164)
(-0.0389039 -0.013572 -0.322604)
(0.0189757 -0.0401287 -0.280042)
(-0.00432129 -0.0210231 -0.276012)
(0 0 0)
(0 0 0)
(-0.139828 -0.123711 -0.285333)
(-0.0895172 -0.0996645 -0.300372)
(0.0345899 -0.0363755 -0.279323)
(0.00519378 -0.0451417 -0.193021)
(0 0 0)
(-0.161755 -0.100344 -0.230496)
(-0.104097 -0.0394115 -0.180797)
(-0.03204 0.0573701 -0.0666187)
(-0.0413312 0.0545716 -0.0508742)
(-0.190168 -0.000581042 -0.276275)
(-0.137013 0.0174902 -0.0349577)
(-0.0986315 0.04431 0.0297376)
(0 0 0)
(0 0 0)
(0 0 0)
(0 0 0)
(-0.00944302 -0.0522816 -0.228018)
(0 0 0)
(-0.152893 -0.0266187 -0.300796)
(-0.0479364 -0.0894212 -0.281483)
(0.00529689 -0.12499 -0.244303)
(0.010727 -0.107283 -0.220226)
(0.0029919 -0.0024452 -0.00177744)
(0 0 0)
(0 0 0)
(-0.177864 -0.116042 -0.223298)
(-0.107996 -0.124966 -0.210894)
(-0.0117546 -0.13683 -0.205836)
(0.0452915 -0.0757801 -0.106199)
(-0.00105526 0.000100645 -0.000378371)
(0 0 0)
(-0.196618 -0.0926958 -0.166627)
(-0.148618 -0.0503448 -0.120022)
(0 0 0)
(-0.00842894 0.00598566 -0.0003116)
(-0.212818 -0.0259853 -0.186327)
(-0.146854 0.015888 -0.00064273)
(-0.0622868 0.0487831 0.0804026)
(0 0 0)
(0 0 0)
(0 0 0)
(0 0 0)
(0 0 0)
(0 0 0)
(0 0 0)
(-0.0508798 -0.132297 -0.211789)
(0.000753612 -0.141221 -0.220129)
(0.0356164 -0.173334 -0.215473)
(0.0813228 -0.189368 -0.214283)
(0 0 0)
(0 0 0)
(-0.203547 -0.116343 -0.111929)
(-0.102056 -0.136934 -0.129472)
(-0.00559201 -0.142586 -0.153708)
(0.0404338 -0.146483 -0.152601)
(0.114899 -0.126027 -0.184793)
(0 0 0)
(-0.202474 -0.0714838 -0.102861)
(-0.179871 -0.0691576 -0.0754053)
(-0.103254 -0.000264935 0.101581)
(-0.00330022 -0.00793067 0.0502745)
(0 0 0)
(0 0 0)
(-0.194669 0.0452112 0.0436963)
(0 0 0)
(0 0 0)
(0 0 0)
(0 0 0)
(0 0 0)
(0 0 0)
(0 0 0)
(0 0 0)
(0 0 0)
(0 0 0)
(0 0 0)
(0 0 0)
(0 0 0)
(0 0 0)
(-0.267959 -0.11651 -0.0260453)
(-0.105077 -0.109818 -0.0566825)
(-0.0122626 -0.112957 -0.0603722)
(0.0547156 -0.150079 -0.0919454)
(0.113492 -0.122665 -0.119277)
(0 0 0)
(-0.202139 -0.0497776 -0.0296053)
(-0.126826 -0.0447572 -0.021419)
(-0.0902214 -0.0625558 -0.00163261)
(0.0335946 -0.0356995 0.0714006)
(0 0 0)
(0 0 0)
(-0.193122 0.00141154 0.0107351)
(-0.0927265 0.0136735 -0.00235775)
(0 0 0)
(0 0 0)
(0 0 0)
(0 0 0)
(0 0 0)
(0 0 0)
(0 0 0)
(0 0 0)
(0 0 0)
(0 0 0)
(0 0 0)
(0 0 0)
(0 0 0)
(0 0 0)
(0 0 0)
(0.0162835 -0.0902044 -0.00548258)
(0.0497571 -0.108574 -0.0425722)
(0 0 0)
(0 0 0)
(0 0 0)
(-0.061028 -0.0446967 -0.00357075)
(-0.0121822 -0.0477945 -0.00706075)
(0.0323817 -0.061788 0.00597515)
(0 0 0)
(-0.131328 0.00833607 0.0575772)
(-0.0312176 0.00601802 0.0367919)
(0 0 0)
(0 0 0)
(0 0 0)
(0 0 0)
(0 0 0)
(0 0 0)
(0 0 0)
(0 0 0)
(0 0 0)
(0 0 0)
(0 0 0)
(0 0 0)
(0 0 0)
(0 0 0)
(0 0 0)
(0 0 0)
(0 0 0)
(0 0 0)
(0 0 0)
(0 0 0)
(0 0 0)
(0 0 0)
(0 0 0)
(0 0 0)
(0 0 0)
(0 0 0)
(0 0 0)
(0 0 0)
(0 0 0)
(0 0 0)
(0 0 0)
(0 0 0)
(0 0 0)
(0 0 0)
(0 0 0)
(0 0 0)
(0 0 0)
(0 0 0)
(0 0 0)
(0 0 0)
(0 0 0)
(0 0 0)
(0 0 0)
(0 0 0)
(0 0 0)
(0 0 0)
(0 0 0)
(0 0 0)
(0 0 0)
(0 0 0)
(0 0 0)
(0 0 0)
(0 0 0)
(0 0 0)
(0 0 0)
(0 0 0)
(0 0 0)
(0 0 0)
(0 0 0)
(0 0 0)
(0 0 0)
(0 0 0)
(0 0 0)
(0 0 0)
(0 0 0)
(0 0 0)
(0 0 0)
(0 0 0)
(0 0 0)
(0 0 0)
(0 0 0)
(0 0 0)
(0 0 0)
(0 0 0)
(0 0 0)
(0 0 0)
(0 0 0)
(0 0 0)
(0 0 0)
(0 0 0)
(0 0 0)
(0 0 0)
(0 0 0)
(0 0 0)
(0 0 0)
(0 0 0)
(0 0 0)
(0 0 0)
(0 0 0)
(0 0 0)
(0 0 0)
(0 0 0)
(0 0 0)
(0 0 0)
(0 0 0)
(0 0 0)
(0 0 0)
(0 0 0)
(0 0 0)
(0 0 0)
(0 0 0)
(0 0 0)
(0 0 0)
(0 0 0)
(0 0 0)
(0 0 0)
(0 0 0)
(0 0 0)
(0 0 0)
(0 0 0)
(0 0 0)
(0 0 0)
(0 0 0)
(0 0 0)
(0 0 0)
(0 0 0)
(0 0 0)
(0 0 0)
(0 0 0)
(0 0 0)
(0 0 0)
(0 0 0)
(0 0 0)
(0 0 0)
(0 0 0)
(0 0 0)
(0 0 0)
(0 0 0)
(0 0 0)
(0 0 0)
(0 0 0)
(0 0 0)
(0 0 0)
(0 0 0)
(0 0 0)
(0 0 0)
(0 0 0)
(0 0 0)
(0 0 0)
(0 0 0)
(0 0 0)
(0 0 0)
(0 0 0)
(0 0 0)
(0 0 0)
(0 0 0)
(0 0 0)
(0 0 0)
(0 0 0)
(0 0 0)
(0 0 0)
(0 0 0)
(0 0 0)
(0 0 0)
(0 0 0)
(0 0 0)
(0 0 0)
(0 0 0)
(0 0 0)
(0 0 0)
(0 0 0)
(0 0 0)
(0 0 0)
(0 0 0)
(0 0 0)
(0 0 0)
(0 0 0)
(0 0 0)
(0 0 0)
(0 0 0)
(0 0 0)
(0 0 0)
(0 0 0)
(0 0 0)
(0 0 0)
(0 0 0)
(0 0 0)
(0 0 0)
(0 0 0)
(0 0 0)
(0 0 0)
(0 0 0)
(0 0 0)
(0 0 0)
(0 0 0)
(0 0 0)
(0 0 0)
(0 0 0)
(0 0 0)
(0 0 0)
(0 0 0)
(0 0 0)
(0 0 0)
(0 0 0)
(0 0 0)
(0 0 0)
(0 0 0)
(0 0 0)
(0 0 0)
(0 0 0)
(0 0 0)
(0 0 0)
(0 0 0)
(0 0 0)
(0 0 0)
(0 0 0)
(0 0 0)
(0 0 0)
(0 0 0)
(0 0 0)
(0 0 0)
(0 0 0)
(0 0 0)
(0 0 0)
(0 0 0)
(0 0 0)
(0 0 0)
(0 0 0)
(0 0 0)
(0 0 0)
(0 0 0)
(0 0 0)
(0 0 0)
(0 0 0)
(0 0 0)
(0 0 0)
(0 0 0)
(0 0 0)
(0 0 0)
(0 0 0)
(0 0 0)
(0 0 0)
(0 0 0)
(0 0 0)
(0 0 0)
(0 0 0)
(0 0 0)
(0 0 0)
(0 0 0)
(0 0 0)
(0 0 0)
(0 0 0)
(0 0 0)
(0 0 0)
(0 0 0)
(0 0 0)
(0 0 0)
(0 0 0)
(0 0 0)
(0 0 0)
(0 0 0)
(0 0 0)
(0 0 0)
(0 0 0)
(0 0 0)
(0 0 0)
(0 0 0)
(0 0 0)
(0 0 0)
(0 0 0)
(0 0 0)
(0 0 0)
(0 0 0)
(0 0 0)
(0 0 0)
(0 0 0)
(0 0 0)
(0 0 0)
(0 0 0)
(0 0 0)
(0 0 0)
(0 0 0)
(0 0 0)
(0 0 0)
(0 0 0)
(0 0 0)
(0 0 0)
(0 0 0)
(0 0 0)
(0 0 0)
(0 0 0)
(0 0 0)
(0 0 0)
(0 0 0)
(0 0 0)
(0 0 0)
(0 0 0)
(0 0 0)
(0 0 0)
(0 0 0)
(0 0 0)
(0 0 0)
(0 0 0)
(0 0 0)
(0 0 0)
(0 0 0)
(0 0 0)
(0 0 0)
(0 0 0)
(0 0 0)
(0 0 0)
(0 0 0)
(0 0 0)
(0 0 0)
(0 0 0)
(0 0 0)
(0 0 0)
(0 0 0)
(0 0 0)
(0 0 0)
(0 0 0)
(0 0 0)
(0 0 0)
(0 0 0)
(0 0 0)
(0 0 0)
(0 0 0)
(0 0 0)
(0 0 0)
(0 0 0)
(0 0 0)
(0 0 0)
(0 0 0)
(0 0 0)
(0 0 0)
(0 0 0)
(0 0 0)
(0 0 0)
(0 0 0)
(0 0 0)
(0 0 0)
(0 0 0)
(0 0 0)
(0 0 0)
(0 0 0)
(0 0 0)
(0 0 0)
(0 0 0)
(0 0 0)
(0 0 0)
(0 0 0)
(0 0 0)
(0 0 0)
(0 0 0)
(0 0 0)
(0 0 0)
(0 0 0)
(0 0 0)
(0 0 0)
(0 0 0)
(0 0 0)
(0 0 0)
(0 0 0)
(0 0 0)
(0 0 0)
(0 0 0)
(0 0 0)
(0 0 0)
(0 0 0)
(0 0 0)
(0 0 0)
(0 0 0)
(0 0 0)
(0 0 0)
(0 0 0)
(0 0 0)
(0 0 0)
(0 0 0)
(0 0 0)
(0 0 0)
(0 0 0)
(0 0 0)
(0 0 0)
(0 0 0)
(0 0 0)
(0 0 0)
(0 0 0)
(0 0 0)
(0 0 0)
(0 0 0)
(0 0 0)
(0 0 0)
(0 0 0)
(0 0 0)
(0 0 0)
(0 0 0)
(0 0 0)
(0 0 0)
(0 0 0)
(0 0 0)
(0 0 0)
(0 0 0)
(0 0 0)
(0 0 0)
(0 0 0)
(0 0 0)
(0 0 0)
(0 0 0)
(0 0 0)
(0 0 0)
(0 0 0)
(0 0 0)
(0 0 0)
(0 0 0)
(0 0 0)
(0 0 0)
(0 0 0)
(0 0 0)
(0 0 0)
(0 0 0)
(0 0 0)
(0 0 0)
(0 0 0)
(0 0 0)
(0 0 0)
(0 0 0)
(0 0 0)
(0 0 0)
(0 0 0)
(0 0 0)
(0 0 0)
(0 0 0)
(0 0 0)
(0 0 0)
(0 0 0)
(0 0 0)
(0 0 0)
(0 0 0)
(0 0 0)
(0 0 0)
(0 0 0)
(0 0 0)
(0 0 0)
(0 0 0)
(0 0 0)
(0 0 0)
(0 0 0)
(0 0 0)
(0 0 0)
(0 0 0)
(0 0 0)
(0 0 0)
(0 0 0)
(0 0 0)
(0 0 0)
(0 0 0)
(0 0 0)
(0 0 0)
(0 0 0)
(0 0 0)
(0 0 0)
(0 0 0)
(0 0 0)
(0 0 0)
(0 0 0)
(0 0 0)
(0 0 0)
(0 0 0)
(0 0 0)
(0 0 0)
(0 0 0)
(0 0 0)
(0 0 0)
(0 0 0)
(0 0 0)
(0 0 0)
(0 0 0)
(0 0 0)
(0 0 0)
(0 0 0)
(0 0 0)
(0 0 0)
(0 0 0)
(0 0 0)
(0 0 0)
(0 0 0)
(0 0 0)
(0 0 0)
(0 0 0)
(0 0 0)
(0 0 0)
(0 0 0)
(0 0 0)
(0 0 0)
(0 0 0)
(0 0 0)
(0 0 0)
(0 0 0)
(0 0 0)
(0 0 0)
(0 0 0)
(0 0 0)
(0 0 0)
(0 0 0)
(0 0 0)
(0 0 0)
(0 0 0)
(0 0 0)
(0 0 0)
(0 0 0)
(0 0 0)
(0 0 0)
(0 0 0)
(0 0 0)
(0 0 0)
(0 0 0)
(0 0 0)
(0 0 0)
(0 0 0)
(0 0 0)
(0 0 0)
(0 0 0)
(0 0 0)
(0 0 0)
(0 0 0)
(0 0 0)
(0 0 0)
(0 0 0)
(0 0 0)
(0 0 0)
(0 0 0)
(0 0 0)
(0 0 0)
(0 0 0)
(0 0 0)
(0 0 0)
(0 0 0)
(0 0 0)
(0 0 0)
(0 0 0)
(0 0 0)
(0 0 0)
(0 0 0)
(0 0 0)
(0 0 0)
(0 0 0)
(0 0 0)
(0 0 0)
(0 0 0)
(0 0 0)
(0 0 0)
(0 0 0)
(0 0 0)
(0 0 0)
(0 0 0)
(0 0 0)
(0 0 0)
(0 0 0)
(0 0 0)
(0 0 0)
(0 0 0)
(0 0 0)
(0 0 0)
(0 0 0)
(0 0 0)
(0 0 0)
(0 0 0)
(0 0 0)
(0 0 0)
(0 0 0)
(0 0 0)
(0 0 0)
(0 0 0)
(0 0 0)
(0 0 0)
(0 0 0)
(0 0 0)
(0 0 0)
(0 0 0)
(0 0 0)
(0 0 0)
(0 0 0)
(0 0 0)
(0 0 0)
(0 0 0)
(0 0 0)
(0 0 0)
(0 0 0)
(0 0 0)
(0 0 0)
(0 0 0)
(0 0 0)
(0 0 0)
(0 0 0)
(0 0 0)
(0 0 0)
(0 0 0)
(0 0 0)
(0 0 0)
(0 0 0)
(0 0 0)
(0 0 0)
(0 0 0)
(0 0 0)
(0 0 0)
(0 0 0)
(0 0 0)
(0 0 0)
(0 0 0)
(0 0 0)
(0 0 0)
(0 0 0)
(0 0 0)
(0 0 0)
(0 0 0)
(0 0 0)
(0 0 0)
(0 0 0)
(0 0 0)
(0 0 0)
(0 0 0)
(0 0 0)
(0 0 0)
(0 0 0)
(0 0 0)
(0 0 0)
(0 0 0)
(0 0 0)
(0 0 0)
(0 0 0)
(0 0 0)
(0 0 0)
(0 0 0)
(0 0 0)
(0 0 0)
(0 0 0)
(0 0 0)
(0 0 0)
(0 0 0)
(0 0 0)
(0 0 0)
(0 0 0)
(0 0 0)
(0 0 0)
(0 0 0)
(0 0 0)
(0 0 0)
(0 0 0)
(0 0 0)
(0 0 0)
(0 0 0)
(0 0 0)
(0 0 0)
(0 0 0)
(0 0 0)
(0 0 0)
(0 0 0)
(0 0 0)
(0 0 0)
(0 0 0)
(0 0 0)
(0 0 0)
(0 0 0)
(0 0 0)
(0 0 0)
(0 0 0)
(0 0 0)
(0 0 0)
(0 0 0)
(0 0 0)
(0 0 0)
(0 0 0)
(0 0 0)
(0 0 0)
(0 0 0)
(0 0 0)
(0 0 0)
(0 0 0)
(0 0 0)
(0 0 0)
(0 0 0)
(0 0 0)
(0 0 0)
(0 0 0)
(0 0 0)
(0 0 0)
(0 0 0)
(0 0 0)
(0 0 0)
(0 0 0)
(0 0 0)
(0 0 0)
(0 0 0)
(0 0 0)
(0 0 0)
(0 0 0)
(0 0 0)
(0 0 0)
(0 0 0)
(0 0 0)
(0 0 0)
(0 0 0)
(0 0 0)
(0 0 0)
(0 0 0)
(0 0 0)
(0 0 0)
(0 0 0)
(0 0 0)
(0 0 0)
(0 0 0)
(0 0 0)
(0 0 0)
(0 0 0)
(0 0 0)
(0 0 0)
(0 0 0)
(0 0 0)
(0 0 0)
(0 0 0)
(0 0 0)
(0 0 0)
(0 0 0)
(0 0 0)
(0 0 0)
(0 0 0)
(0 0 0)
(0 0 0)
(0 0 0)
(0 0 0)
(0 0 0)
(0 0 0)
(0 0 0)
(0 0 0)
(0 0 0)
(0 0 0)
(0 0 0)
(0 0 0)
(0 0 0)
(0 0 0)
(0 0 0)
(0 0 0)
(0 0 0)
(0 0 0)
(0 0 0)
(0 0 0)
(0 0 0)
(0 0 0)
(0 0 0)
(0 0 0)
(0 0 0)
(0 0 0)
(0 0 0)
(0 0 0)
(0 0 0)
(0 0 0)
(0 0 0)
(0 0 0)
(0 0 0)
(0 0 0)
(0 0 0)
(0 0 0)
(0 0 0)
(0 0 0)
(0 0 0)
(0 0 0)
(0 0 0)
(0 0 0)
(0 0 0)
(0 0 0)
(0 0 0)
(0 0 0)
(0 0 0)
(0 0 0)
(0 0 0)
(0 0 0)
(0 0 0)
(0 0 0)
(0 0 0)
(0 0 0)
(0 0 0)
(0 0 0)
(0 0 0)
(0 0 0)
(0 0 0)
(0 0 0)
(0 0 0)
(0 0 0)
(0 0 0)
(0 0 0)
(0 0 0)
(0 0 0)
(0 0 0)
(0 0 0)
(0 0 0)
(0 0 0)
(0 0 0)
(0 0 0)
(0 0 0)
(0 0 0)
(0 0 0)
(0 0 0)
(0 0 0)
(0 0 0)
(0 0 0)
(0 0 0)
(0 0 0)
(0 0 0)
(0 0 0)
(0 0 0)
(0 0 0)
(0 0 0)
(0 0 0)
(0 0 0)
(0 0 0)
(0 0 0)
(0 0 0)
(0 0 0)
(0 0 0)
(0 0 0)
(0 0 0)
(0 0 0)
(0 0 0)
(0 0 0)
(0 0 0)
(0 0 0)
(0 0 0)
(0 0 0)
(0 0 0)
(0 0 0)
(0 0 0)
(0 0 0)
(0 0 0)
(0 0 0)
(0 0 0)
(0 0 0)
(0 0 0)
(0 0 0)
(0 0 0)
(0 0 0)
(0 0 0)
(0 0 0)
(0 0 0)
(0 0 0)
(0 0 0)
(0 0 0)
(0 0 0)
(0 0 0)
(0 0 0)
(0 0 0)
(0 0 0)
(0 0 0)
(0 0 0)
(0 0 0)
(0 0 0)
(0 0 0)
(0 0 0)
(0 0 0)
(0 0 0)
(0 0 0)
(0 0 0)
(0 0 0)
(0 0 0)
(0 0 0)
(0 0 0)
(0 0 0)
(0 0 0)
(0 0 0)
(0 0 0)
(0 0 0)
(0 0 0)
(0 0 0)
(0 0 0)
(0 0 0)
(0 0 0)
(0 0 0)
(0 0 0)
(0 0 0)
(0 0 0)
(0 0 0)
(0 0 0)
(0 0 0)
(0 0 0)
(0 0 0)
(0 0 0)
(0 0 0)
(0 0 0)
(0 0 0)
(0 0 0)
(0 0 0)
(0 0 0)
(0 0 0)
(0 0 0)
(0 0 0)
(0 0 0)
(0 0 0)
(0 0 0)
(0 0 0)
(0 0 0)
(0 0 0)
(0 0 0)
(0 0 0)
(0 0 0)
(0 0 0)
(0 0 0)
(0 0 0)
(0 0 0)
(0 0 0)
(0 0 0)
(0 0 0)
(0 0 0)
(0 0 0)
(0 0 0)
(0 0 0)
(0 0 0)
(0 0 0)
(0 0 0)
(0 0 0)
(0 0 0)
(0 0 0)
(0 0 0)
(0 0 0)
(0 0 0)
(0 0 0)
(0 0 0)
(0 0 0)
(0 0 0)
(0 0 0)
(0 0 0)
(0 0 0)
(0 0 0)
(0 0 0)
(0 0 0)
(0 0 0)
(0 0 0)
(0 0 0)
(0 0 0)
(0 0 0)
(0 0 0)
(0 0 0)
(0 0 0)
(0 0 0)
(0 0 0)
(0 0 0)
(0 0 0)
(0 0 0)
(0 0 0)
(0 0 0)
(0 0 0)
(0 0 0)
(0 0 0)
(0 0 0)
(0 0 0)
(0 0 0)
(0 0 0)
(0 0 0)
(0 0 0)
(0 0 0)
(0 0 0)
(0 0 0)
(0 0 0)
(0 0 0)
(0 0 0)
(0 0 0)
(0 0 0)
(0 0 0)
(0 0 0)
(0 0 0)
(0 0 0)
(0 0 0)
(0 0 0)
(0 0 0)
(0 0 0)
(0 0 0)
(0 0 0)
(0 0 0)
(0 0 0)
(0 0 0)
(0 0 0)
(0 0 0)
(0 0 0)
(0 0 0)
(0 0 0)
(0 0 0)
(0 0 0)
(0 0 0)
(0 0 0)
(0 0 0)
(0 0 0)
(0 0 0)
(0 0 0)
(0 0 0)
(0 0 0)
(0 0 0)
(0 0 0)
(0 0 0)
(0 0 0)
(0 0 0)
(0 0 0)
(0 0 0)
(0 0 0)
(0 0 0)
(0 0 0)
(0 0 0)
(0 0 0)
(0 0 0)
(0 0 0)
(0 0 0)
(0 0 0)
(0 0 0)
(0 0 0)
(0 0 0)
(0 0 0)
(0 0 0)
(0 0 0)
(0 0 0)
(0 0 0)
(0 0 0)
(0 0 0)
(0 0 0)
(0 0 0)
(0 0 0)
(0 0 0)
(0 0 0)
(0 0 0)
(0 0 0)
(0 0 0)
(0 0 0)
(0 0 0)
(0 0 0)
(0 0 0)
(0 0 0)
(0 0 0)
(0 0 0)
(0 0 0)
(0 0 0)
(0 0 0)
(0 0 0)
(0 0 0)
(0 0 0)
(0 0 0)
(0 0 0)
(0 0 0)
(0 0 0)
(0 0 0)
(0 0 0)
(0 0 0)
(0 0 0)
(0 0 0)
(0 0 0)
(0 0 0)
(0 0 0)
(0 0 0)
(0 0 0)
(0 0 0)
(0 0 0)
(0 0 0)
(0 0 0)
(0 0 0)
(0 0 0)
(0 0 0)
(0 0 0)
(0 0 0)
(0 0 0)
(0 0 0)
(0 0 0)
(0 0 0)
(0 0 0)
(0 0 0)
(0 0 0)
(0 0 0)
(0 0 0)
(0 0 0)
(0 0 0)
(0 0 0)
(0 0 0)
(0 0 0)
(0 0 0)
(0 0 0)
(0 0 0)
(0 0 0)
(0 0 0)
(0 0 0)
(0 0 0)
(0 0 0)
(0 0 0)
(0 0 0)
(0 0 0)
(0 0 0)
(0 0 0)
(0 0 0)
(0 0 0)
(0 0 0)
(0 0 0)
(0 0 0)
(0 0 0)
(0 0 0)
(0 0 0)
(0 0 0)
(0 0 0)
(0 0 0)
(0 0 0)
(0 0 0)
(0 0 0)
(0 0 0)
(0 0 0)
(0 0 0)
(0 0 0)
(0 0 0)
(0 0 0)
(0 0 0)
(0 0 0)
(0 0 0)
(0 0 0)
(0 0 0)
(0 0 0)
(0 0 0)
(0 0 0)
(0 0 0)
(0 0 0)
(0 0 0)
(0 0 0)
(0 0 0)
(0 0 0)
(0 0 0)
(0 0 0)
(0 0 0)
(0 0 0)
(0 0 0)
(0 0 0)
(0 0 0)
(0 0 0)
(0 0 0)
(0 0 0)
(0 0 0)
(0 0 0)
(0 0 0)
(0 0 0)
(0 0 0)
(0 0 0)
(0 0 0)
(0 0 0)
(0 0 0)
(0 0 0)
(0 0 0)
(0 0 0)
(0 0 0)
(0 0 0)
(0 0 0)
(0 0 0)
(0 0 0)
(0 0 0)
(0 0 0)
(0 0 0)
(0 0 0)
(0 0 0)
(0 0 0)
(0 0 0)
(0 0 0)
(0 0 0)
(0 0 0)
(0 0 0)
(0 0 0)
(0 0 0)
(0 0 0)
(0 0 0)
(0 0 0)
(0 0 0)
(0 0 0)
(0 0 0)
(0 0 0)
(0 0 0)
(0 0 0)
(0 0 0)
(0 0 0)
(0 0 0)
(0 0 0)
(0 0 0)
(0 0 0)
(0 0 0)
(0 0 0)
(0 0 0)
(0 0 0)
(0 0 0)
(0 0 0)
(0 0 0)
(0 0 0)
(0 0 0)
(0 0 0)
(0 0 0)
(0 0 0)
(0 0 0)
(0 0 0)
(0 0 0)
(0 0 0)
(0 0 0)
(0 0 0)
(0 0 0)
(0 0 0)
(0 0 0)
(0 0 0)
(0 0 0)
(0 0 0)
(0 0 0)
(0 0 0)
(0 0 0)
(0 0 0)
(0 0 0)
(0 0 0)
(0 0 0)
(0 0 0)
(0 0 0)
(0 0 0)
(0 0 0)
(0 0 0)
(0 0 0)
(0 0 0)
(0 0 0)
(0 0 0)
(0 0 0)
(0 0 0)
(0 0 0)
(0 0 0)
(0 0 0)
(0 0 0)
(0 0 0)
(0 0 0)
(0 0 0)
(0 0 0)
(0 0 0)
(0 0 0)
(0 0 0)
(0 0 0)
(0 0 0)
(0 0 0)
(0 0 0)
(0 0 0)
(0 0 0)
(0 0 0)
(0 0 0)
(0 0 0)
(0 0 0)
(0 0 0)
(0 0 0)
(0 0 0)
(0 0 0)
(0 0 0)
(0 0 0)
(0 0 0)
(0 0 0)
(0 0 0)
(0 0 0)
(0 0 0)
(0 0 0)
(0 0 0)
(0 0 0)
(0 0 0)
(0 0 0)
(0 0 0)
(0 0 0)
(0 0 0)
(0 0 0)
(0 0 0)
(0 0 0)
(0 0 0)
(0 0 0)
(0 0 0)
(0 0 0)
(0 0 0)
(0 0 0)
(0 0 0)
(0 0 0)
(0 0 0)
(0 0 0)
(0 0 0)
(0 0 0)
(0 0 0)
(0 0 0)
(0 0 0)
(0 0 0)
(0 0 0)
(0 0 0)
(0 0 0)
(0 0 0)
(0 0 0)
(0 0 0)
(0 0 0)
(0 0 0)
(0 0 0)
(0 0 0)
(0 0 0)
(0 0 0)
(0 0 0)
(0 0 0)
(0 0 0)
(0 0 0)
(0 0 0)
(0 0 0)
(0 0 0)
(0 0 0)
(0 0 0)
(0 0 0)
(0 0 0)
(0 0 0)
(0 0 0)
(0 0 0)
(0 0 0)
(0 0 0)
(0 0 0)
(0 0 0)
(0 0 0)
(0 0 0)
(0 0 0)
(0 0 0)
(0 0 0)
(0 0 0)
(0 0 0)
(0 0 0)
(0 0 0)
(0 0 0)
(0 0 0)
(0 0 0)
(0 0 0)
(0 0 0)
(0 0 0)
(0 0 0)
(0 0 0)
(0 0 0)
(0 0 0)
(0 0 0)
(0 0 0)
(0 0 0)
(0 0 0)
(0 0 0)
(0 0 0)
(0 0 0)
(0 0 0)
(0 0 0)
(0 0 0)
(0 0 0)
(0 0 0)
(0 0 0)
(0 0 0)
(0 0 0)
(0 0 0)
(0 0 0)
(0 0 0)
(0 0 0)
(0 0 0)
(0 0 0)
(0 0 0)
(0 0 0)
(0 0 0)
(0 0 0)
(0 0 0)
(0 0 0)
(0 0 0)
(0 0 0)
(0 0 0)
(0 0 0)
(0 0 0)
(0 0 0)
(0 0 0)
(0 0 0)
(0 0 0)
(0 0 0)
(0 0 0)
(0 0 0)
(0 0 0)
(0 0 0)
(0 0 0)
(0 0 0)
(0 0 0)
(0 0 0)
(0 0 0)
(0 0 0)
(0 0 0)
(0 0 0)
(0 0 0)
(0 0 0)
(0 0 0)
(0 0 0)
(0 0 0)
(0 0 0)
(0 0 0)
(0 0 0)
(0 0 0)
(0 0 0)
(0 0 0)
(0 0 0)
(0 0 0)
(0 0 0)
(0 0 0)
(0 0 0)
(0 0 0)
(0 0 0)
(0 0 0)
(0 0 0)
(0 0 0)
(0 0 0)
(0 0 0)
(0 0 0)
(0 0 0)
(0 0 0)
(0 0 0)
(0 0 0)
(0 0 0)
(0 0 0)
(0 0 0)
(0 0 0)
(0 0 0)
(0 0 0)
(0 0 0)
(0 0 0)
(0 0 0)
(0 0 0)
(0 0 0)
(0 0 0)
(0 0 0)
(0 0 0)
(0 0 0)
(0 0 0)
(0 0 0)
(0 0 0)
(0 0 0)
(0 0 0)
(0 0 0)
(0 0 0)
(0 0 0)
(0 0 0)
(0 0 0)
(0 0 0)
(0 0 0)
(0 0 0)
(0 0 0)
(0 0 0)
(0 0 0)
(0 0 0)
(0 0 0)
(0 0 0)
(0 0 0)
(0 0 0)
(0 0 0)
(0 0 0)
(0 0 0)
(0 0 0)
(0 0 0)
(0 0 0)
(0 0 0)
(0 0 0)
(0 0 0)
(0 0 0)
(0 0 0)
(0 0 0)
(0 0 0)
(0 0 0)
(0 0 0)
(0 0 0)
(0 0 0)
(0 0 0)
(0 0 0)
(0 0 0)
(0 0 0)
(0 0 0)
(0 0 0)
(0 0 0)
(0 0 0)
(0 0 0)
(0 0 0)
(0 0 0)
(0 0 0)
(0 0 0)
(0 0 0)
(0 0 0)
(0 0 0)
(0 0 0)
(0 0 0)
(0 0 0)
(0 0 0)
(0 0 0)
(0 0 0)
(0 0 0)
(0 0 0)
(0 0 0)
(0 0 0)
(0 0 0)
(0 0 0)
(0 0 0)
(0 0 0)
(0 0 0)
(0 0 0)
(0 0 0)
(0 0 0)
(0 0 0)
(0 0 0)
(0 0 0)
(0 0 0)
(0 0 0)
(0 0 0)
(0 0 0)
(0 0 0)
(0 0 0)
(0 0 0)
(0 0 0)
(0 0 0)
(0 0 0)
(0 0 0)
(0 0 0)
(0 0 0)
(0 0 0)
(0 0 0)
(0 0 0)
(0 0 0)
(0 0 0)
(0 0 0)
(0 0 0)
(0 0 0)
(0 0 0)
(0 0 0)
(0 0 0)
(0 0 0)
(0 0 0)
(0 0 0)
(0 0 0)
(0 0 0)
(0 0 0)
(0 0 0)
(0 0 0)
(0 0 0)
(0 0 0)
(0 0 0)
(0 0 0)
(0 0 0)
(0 0 0)
(0 0 0)
(0 0 0)
(0 0 0)
(0 0 0)
(0 0 0)
(0 0 0)
(0 0 0)
(0 0 0)
(0 0 0)
(0 0 0)
(0 0 0)
(0 0 0)
(0 0 0)
(0 0 0)
(0 0 0)
(0 0 0)
(0 0 0)
(0 0 0)
(0 0 0)
(0 0 0)
(0 0 0)
(0 0 0)
(0 0 0)
(0 0 0)
(0 0 0)
(0 0 0)
(0 0 0)
(0 0 0)
(0 0 0)
(0 0 0)
(0 0 0)
(0 0 0)
(0 0 0)
(0 0 0)
(0 0 0)
(0 0 0)
(0 0 0)
(0 0 0)
(0 0 0)
(0 0 0)
(0 0 0)
(0 0 0)
(0 0 0)
(0 0 0)
(0 0 0)
(0 0 0)
(0 0 0)
(0 0 0)
(0 0 0)
(0 0 0)
(0 0 0)
(0 0 0)
(0 0 0)
(0 0 0)
(0 0 0)
(0 0 0)
(0 0 0)
(0 0 0)
(0 0 0)
(0 0 0)
(0 0 0)
(0 0 0)
(0 0 0)
(0 0 0)
(0 0 0)
(0 0 0)
(0 0 0)
(0 0 0)
(0 0 0)
(-0.0195597 0.0356316 -0.00992958)
(0.000416289 0.0298044 -0.0317864)
(-0.016835 0.0495687 -0.0220985)
(-0.00112416 0.0668574 -0.0234781)
(0.010267 0.0270009 -0.0294111)
(0.0138374 0.0662148 -0.0191284)
(0.0221362 0.0707196 -0.0161705)
(0.0114828 0.0384012 -0.0172981)
(-0.00797631 0.0144266 -0.000202769)
(-0.0179772 0.0215701 -3.31587e-05)
(-0.0199086 0.0524055 -0.00574629)
(-0.0164898 0.0216813 -0.00375767)
(0.0218651 0.0504098 -0.0176599)
(0.0126868 0.110439 -0.0163626)
(0.00162318 0.154422 -0.0203491)
(0.0670836 0.0795462 -0.0241958)
(0.0634137 0.140062 -0.038528)
(-0.0095858 0.166334 -0.0191915)
(-0.00191857 0.145283 -0.00543378)
(0.00214256 0.181329 -0.0250723)
(-0.0293675 0.167996 0.0101235)
(0.00440977 0.0812565 -0.0115151)
(-0.00171247 0.0334522 -0.0139368)
(-0.0227202 0.132303 0.0155942)
(-0.0172575 0.0646159 -0.0123736)
(-0.00535664 0.0247239 -0.0137358)
(-0.00170992 0.0134337 -0.00536501)
(-0.00421286 0.00209176 -0.00100377)
(-0.00950661 0.00425912 -0.00417579)
(-0.00550118 0.0186292 -0.015519)
(0.0344086 0.0198097 -0.0282157)
(-0.02876 0.0119419 -0.031837)
(0.0179292 -0.00600918 -0.0278052)
(0.0951576 0.0165646 -0.041816)
(0.0836868 0.0231261 -0.0198113)
(0.0759288 -0.0393438 -0.0324795)
(0.0632234 -0.0836872 0.0104109)
(0.0243362 0.0165441 0.00237919)
(-0.0332992 0.0498335 0.0297141)
(0.0189225 -0.089336 0.023253)
(-0.00112018 -0.053294 0.0251005)
(-0.0389363 0.0835875 0.0353812)
(-0.0452713 0.0951523 0.00299025)
(0.00151714 0.00212468 0.0340824)
(-0.0226071 0.0748785 0.0213557)
(-0.022452 0.0548876 -0.0225172)
(-0.0165889 0.0684539 -0.0048003)
(-0.000385116 0.0358672 -0.00722787)
(-0.00419148 -0.000881483 -0.000968415)
(-0.00620369 -0.00183368 -0.00304698)
(-0.00919588 -0.0152603 -0.000822821)
(-0.0427341 -0.0133886 -0.0294187)
(-0.00792296 -0.0357538 -0.0281294)
(-0.0369185 -0.0287156 -0.00892108)
(-0.0456831 -0.0567347 -0.0288231)
(0.0365615 -0.0805778 -0.0277138)
(0.0534155 -0.136969 0.00518178)
(-0.00167039 -0.0946365 -0.0219154)
(0.0454516 -0.126361 -0.00765259)
(0.037497 -0.140563 0.027351)
(0.045488 -0.0836778 0.0278081)
(0.0734771 -0.117309 0.00937267)
(0.0956126 -0.0674881 0.0175283)
(0.0674207 -0.0216802 0.0243407)
(0.0424328 0.0322932 0.0247218)
(0.102956 -0.012322 0.0223112)
(0.05447 0.00926483 0.0170529)
(0.00293524 0.0412957 0.0165162)
(-0.00342061 0.0300583 0.00408618)
(0.00810336 0.0106552 0.0102724)
(-0.0112794 -0.0163501 0.000615018)
(-0.0304618 -0.0281751 0.0026687)
(-0.0607866 -0.0620361 -0.0203389)
(-0.0258461 -0.0254309 0.00300919)
(-0.0517739 -0.0421168 -0.00223131)
(-0.0255746 -0.0775875 -0.0243277)
(0.0345537 -0.0775855 -0.0181945)
(-0.0399462 -0.0459159 -0.0227114)
(0.0292165 -0.0279496 -0.0214278)
(0.086255 -0.0621646 -0.00548785)
(0.119033 -0.0318337 0.0141812)
(0.0965562 -0.0153194 -0.00964313)
(0.136494 -0.00938336 0.0156822)
(0.110436 0.00258764 0.0266057)
(0.0454136 0.00914433 0.0214901)
(0.093427 -0.0024414 0.0287355)
(0.0307259 -0.00235939 0.015785)
(0.0035787 0.00170213 0.00428203)
(-0.0332287 -0.0230692 -0.00135933)
(-0.0334463 -0.0222749 -0.00920426)
(0.0224674 0.00350771 -0.0188102)
(0.0224026 -0.00658492 -0.0222462)
(0.0760193 0.0154289 -0.00434415)
(0.0908465 -0.0131479 0.0136896)
(0.0388468 -0.00317913 -0.0103148)
(0.051853 -0.00987186 0.0144171)
(-0.032449 0.0381497 -0.049821)
(-0.0556225 0.0395451 -0.0960963)
(0.0129913 0.0162764 -0.0652066)
(-0.00982845 0.0390262 -0.0728846)
(0.0189828 0.0607013 -0.07415)
(0.0124798 0.0106245 -0.124981)
(-0.0306027 0.0425885 -0.140471)
(0.0106408 0.0657252 -0.146979)
(0.0398015 0.0720285 -0.061125)
(0.0388731 0.0712932 -0.0528256)
(0.0256784 0.0167463 -0.116641)
(0.0295239 0.0809405 -0.125938)
(0.0247286 0.0688052 -0.113492)
(0.0265167 0.0421033 -0.0559081)
(0.0225405 0.0336884 -0.104929)
(-0.0330411 0.0596959 0.0217534)
(-0.0352164 0.0594152 0.0283999)
(-0.0339133 0.0736957 -0.00857896)
(-0.0430874 0.0715073 0.0245439)
(0.00741179 0.0883346 0.0349784)
(-0.0577877 0.0623235 -0.0132135)
(-0.0587513 0.0755642 -0.0595772)
(-0.0575887 0.0774466 0.00737847)
(-0.0276696 0.0899769 -0.00654002)
(0.00777332 0.041567 -0.0539586)
(-0.0207995 0.169568 0.0293232)
(-0.0173966 0.0885893 -0.0507655)
(-0.00954589 0.0933079 -0.102057)
(0.00612775 0.0393241 -0.105935)
(-0.0192869 0.145163 0.0308248)
(-0.0147575 0.0773081 -0.102238)
(0.00276397 0.041846 -0.0537685)
(0.00924306 0.0415693 -0.112267)
(-0.0342517 0.0709195 0.0522595)
(-0.0132289 0.0438679 0.109058)
(-0.0303416 0.0623437 0.100631)
(-0.0232725 0.0521357 0.0633205)
(0.00179942 0.0175801 0.133934)
(-0.00446759 0.0361008 0.116206)
(-0.00361129 0.0966286 -0.0255016)
(0.00646535 0.063937 -0.0148276)
(0.0129327 0.0661948 -0.114811)
(0.0214059 0.0981357 -0.0483323)
(0.00524041 0.0803554 -0.0207308)
(-0.0484466 0.0283447 0.0997073)
(-0.0320977 -0.0245119 0.0915861)
(-0.000816744 0.00481772 0.155679)
(-0.000885155 0.0163791 0.145898)
(0.000463666 0.00285761 0.150312)
(-0.00408335 0.0583829 0.020627)
(0.0222806 0.00690041 0.0556754)
(0.0340933 0.0850191 0.147701)
(-0.00987687 0.0870681 0.0346379)
(0.0469883 0.0016312 0.125052)
(-0.028701 -0.0351176 0.0709122)
(-0.00527425 -0.0072123 0.121419)
(-0.0473471 -0.0247275 0.0756593)
(-0.0413436 -0.038941 0.0602887)
(-0.0529193 -0.0401993 0.0697859)
(-0.0145309 -0.0175063 0.132656)
(-0.0176968 -0.0216522 0.109398)
(-0.0217949 -0.0254422 0.0936414)
(-0.0292471 -0.0360865 0.0766656)
(0.091256 -0.0133571 0.0837518)
(0.140846 -0.0267687 0.0879473)
(0.0670269 -0.030245 0.0642279)
(0.171935 0.00855779 0.0925171)
(0.116265 -0.0214766 0.169681)
(0.146978 -0.0432262 0.139761)
(0.0851888 -0.0491568 0.152159)
(0.0279385 -0.0156855 0.0912786)
(-0.0255983 -0.0235107 0.0439008)
(-0.0279549 -0.0214642 0.0328097)
(0.0712162 0.0168933 0.0317817)
(0.0860183 0.00750252 0.0533581)
(0.00447703 -0.00651895 0.0029846)
(0.0628386 0.00305897 0.00806451)
(0.0692359 -0.000129489 0.0325159)
(0.136032 -0.0205116 0.0697469)
(0.107023 -0.00450903 0.0628333)
(0.108446 0.000687299 0.0508607)
(0.124249 -0.0231944 0.0857666)
(0.0912195 -0.00587706 0.0576717)
(0.10895 -0.0516704 0.109496)
(-0.0888626 0.0356839 -0.124498)
(-0.149586 0.0484974 -0.173732)
(-0.0021172 0.0130871 -0.197059)
(-0.0511359 0.0267339 -0.198504)
(-0.00471918 0.0596845 -0.214729)
(-0.014326 0.00905949 -0.256923)
(-0.0894887 0.00381707 -0.253619)
(-0.0205921 0.0263891 -0.273631)
(0.0176949 0.0798729 -0.186309)
(0.0120458 0.0638622 -0.172233)
(0.011838 0.0155608 -0.24288)
(0.0122783 0.0604593 -0.254286)
(-0.00217994 0.0539726 -0.229348)
(0.0104336 0.0345068 -0.166611)
(0.00136961 0.0214361 -0.221487)
(-0.0428522 0.072933 0.0316643)
(0 0 0)
(-0.0874563 0.0370967 -0.128245)
(-0.077142 0.0837408 -0.0149432)
(-0.0718756 0.0498529 -0.126695)
(0 0 0)
(-0.135452 -0.0437943 -0.347842)
(0 0 0)
(-0.13074 0.00361608 -0.396769)
(-0.000693717 0.0304753 -0.154614)
(-0.0417557 0.128316 0.034946)
(-0.0216415 0.0541203 -0.156784)
(-0.0460805 0.062452 -0.217568)
(-0.0124859 0.0208304 -0.209054)
(-0.0915753 0.092769 -0.102313)
(-0.033466 0.031451 -0.210897)
(0.00567372 0.0335679 -0.149879)
(0.00392584 0.0157457 -0.189858)
(-0.0251947 0.0567418 0.0809036)
(0.00506869 0.0133656 0.154203)
(0.0131237 0.0324527 0.13703)
(0 0 0)
(0 0 0)
(0 0 0)
(0.0200673 0.121475 -0.106232)
(0.0169247 0.105463 -0.0862771)
(0.0107066 0.0452134 -0.17532)
(0.0202239 0.114997 -0.189846)
(0.0143968 0.10651 -0.167353)
(0.0245123 0.025915 0.167581)
(0.0231131 0.0228133 0.170228)
(0.00722504 0.0343007 0.184034)
(0.0318116 0.0287702 0.169104)
(0.0302221 0.0338189 0.165523)
(-0.0366593 0.165091 -0.0356389)
(0.0848502 0.0359313 0.0770672)
(0.0422456 0.136828 -0.214417)
(-0.022744 0.137286 -0.189463)
(0.06566 0.0825456 -0.204852)
(0.00958324 0.0126408 0.13923)
(0.0146405 0.0286565 0.139083)
(0.0143031 -0.0114723 0.135746)
(-0.00741583 -0.0135698 0.104448)
(-0.0152223 -0.0338029 0.08001)
(0.0217496 0.00849172 0.147767)
(0.0260542 -0.00882984 0.147373)
(-0.00620809 -0.00772185 0.104935)
(-0.0215608 -0.0421059 0.0805188)
(0.164875 -0.0313174 0.253588)
(0.14828 -0.0407305 0.181452)
(0.109553 -0.0664115 0.221295)
(0.171008 0.107036 -0.0294626)
(0.0641559 0.0999444 -0.16572)
(0.137175 -0.00561727 0.134828)
(0.0240218 0.0383191 0.0524971)
(0.00103111 0.0755136 -0.185349)
(-0.034341 -0.0248737 0.0176462)
(-0.0597855 -0.0410413 -0.00194033)
(0.042453 -0.0194366 -0.0243543)
(0.052636 -0.00123355 -0.00381973)
(-0.0541961 -0.0437359 -0.0996223)
(-0.00454839 -0.0327146 -0.0835832)
(0.00029347 -0.00957963 -0.0750036)
(0.103502 -0.0207578 0.0956241)
(0.0778499 -0.00990944 0.0493599)
(0.0632999 0.003862 0.0215561)
(0.0818208 0.010091 0.0614544)
(0.0471611 -0.0077544 -0.00870059)
(0.0944282 -0.0334596 0.101522)
(0 0 0)
(0 0 0)
(-0.0322725 -0.00699049 -0.30362)
(-0.12513 -0.00907799 -0.330314)
(-0.0404945 -0.0247773 -0.327443)
(-0.0540406 0.00197939 -0.328687)
(-0.125156 0.0375742 -0.362023)
(-0.0451961 -0.0603853 -0.363533)
(0.013309 0.0204632 -0.316432)
(0.0106154 0.0354069 -0.293851)
(-0.0109531 -0.0102511 -0.317429)
(0.0109669 -0.0429466 -0.350567)
(0.038365 -0.00579583 -0.353514)
(0.00812965 0.0263333 -0.270014)
(0.0273755 0.0129289 -0.323022)
(0 0 0)
(0 0 0)
(-0.14942 -0.0581181 -0.415924)
(0 0 0)
(-0.158236 0.00462059 -0.422112)
(0 0 0)
(0 0 0)
(0 0 0)
(0 0 0)
(-0.00762649 0.0210531 -0.256068)
(-0.0769945 0.0399018 -0.28564)
(-0.0331036 0.0242273 -0.269524)
(0.00537837 0.0201909 -0.319802)
(0.00521031 0.0105271 -0.302002)
(-0.0271874 0.0103091 -0.315514)
(-0.02242 0.0111376 -0.304111)
(-0.00618735 0.00699871 -0.233317)
(-0.00659575 -0.00088326 -0.268874)
(0 0 0)
(0 0 0)
(0 0 0)
(0 0 0)
(0 0 0)
(0 0 0)
(0.00787704 0.0784623 -0.25664)
(0.00386051 0.0720132 -0.230717)
(-0.0116495 0.0166304 -0.262359)
(0.00407472 0.0396218 -0.281952)
(5.16056e-05 0.0229188 -0.264334)
(0 0 0)
(0 0 0)
(0 0 0)
(0 0 0)
(0 0 0)
(-0.0123899 0.0468667 -0.246869)
(0.0321116 0.077856 -0.174953)
(0.0367269 0.0536316 -0.172627)
(-0.00223699 -0.00783189 -0.234637)
(0.0129205 0.0683631 -0.141505)
(0 0 0)
(0 0 0)
(0 0 0)
(0 0 0)
(0 0 0)
(0 0 0)
(0 0 0)
(0 0 0)
(0 0 0)
(0.0215378 0.0941461 -0.188148)
(-0.0481343 0.0775672 -0.112184)
(-0.0483873 0.0694936 -0.0912441)
(-0.00442367 0.0841684 -0.208245)
(-0.0310458 0.0867455 -0.119504)
(-0.0362555 0.100954 -0.0811776)
(-0.0563888 0.0681935 -0.050956)
(-0.0287162 0.0575887 -0.125099)
(-0.15007 -0.0733567 -0.190066)
(-0.183153 -0.0412465 -0.413388)
(-0.0806748 -0.0158056 -0.303308)
(-0.0612499 -0.00530134 -0.326936)
(-0.123998 -0.00611008 -0.370764)
(-0.100121 0.00559309 -0.335373)
(-0.0754051 -0.00393126 -0.364825)
(-0.0315229 0.0317218 -0.206875)
(-0.0471199 0.00302201 -0.360355)
(-0.070064 -0.0200732 -0.240781)
(-0.0601101 0.0245858 -0.158512)
(-0.0579773 -0.00183479 -0.364481)
(-0.0651454 0.0474183 -0.0813928)
(0 0 0)
(0 0 0)
(-0.078092 0.0082904 -0.328761)
(-0.124158 0.0703462 -0.287125)
(-0.0709749 -0.101828 -0.341594)