/*--------------------------------*- C++ -*----------------------------------*\
| =========                 |                                                 |
| \\      /  F ield         | OpenFOAM: The Open Source CFD Toolbox           |
|  \\    /   O peration     | Version:  5.x                                   |
|   \\  /    A nd           | Web:      www.OpenFOAM.org                      |
|    \\/     M anipulation  |                                                 |
\*---------------------------------------------------------------------------*/
FoamFile
{
    version     2.0;
    format      ascii;
    class       surfaceScalarField;
    location    "4.35";
    object      phi;
}
// * * * * * * * * * * * * * * * * * * * * * * * * * * * * * * * * * * * * * //

dimensions      [0 3 -1 0 0 0 0];

internalField   nonuniform List<scalar> 
29271
(
-7.89705e-06
2.10843e-06
-6.2115e-06
1.18729e-05
-7.91223e-06
1.20174e-05
-9.63789e-06
5.57897e-06
-2.0273e-05
1.11671e-05
-9.43343e-06
6.08185e-06
-1.64492e-05
2.89067e-05
-1.7152e-05
7.08594e-06
3.18379e-06
-3.74162e-06
-9.42188e-06
2.00457e-05
-1.30342e-05
3.28009e-06
-9.93636e-07
-3.43495e-06
1.18017e-05
2.38097e-06
-1.80212e-05
7.79798e-06
-2.83529e-06
7.71614e-06
-6.71047e-06
1.20529e-05
-1.4204e-05
1.74527e-05
-5.36034e-06
-3.5656e-06
-1.2819e-05
1.84962e-05
-1.98046e-05
1.34037e-05
1.0061e-06
-2.06221e-06
-1.43766e-05
2.18337e-05
-2.53428e-05
5.5346e-06
2.38651e-06
2.07461e-07
-8.84648e-06
2.60607e-05
-1.55204e-05
1.59609e-06
-4.52698e-06
2.01787e-05
-1.89358e-06
-7.15788e-06
4.89827e-06
-8.32596e-06
1.04563e-05
-1.34618e-05
1.24411e-06
5.34412e-06
2.49224e-06
-3.57319e-06
7.95455e-06
-1.85688e-05
1.23507e-05
-8.38604e-06
9.23377e-06
-1.03929e-05
1.57633e-05
-1.99107e-05
1.14624e-05
-3.14035e-06
-1.371e-06
-7.87271e-06
2.08323e-05
-1.53643e-05
6.20232e-06
2.62182e-07
2.01115e-06
-3.93061e-06
1.08192e-05
-1.98267e-05
8.18435e-06
7.08921e-06
-1.36733e-05
2.36545e-05
-5.42809e-06
-1.42012e-05
-7.11602e-07
3.78107e-06
-3.55725e-07
9.79329e-06
1.69415e-06
-1.8915e-05
-5.32288e-06
5.47027e-06
2.11852e-06
-2.76529e-06
1.94144e-05
-1.35932e-05
4.38864e-06
4.44764e-07
-1.10138e-07
-2.08066e-06
1.09506e-05
-1.50473e-05
3.55596e-06
-1.5674e-06
1.20072e-05
2.49093e-06
-1.43943e-06
-6.28371e-06
7.45607e-06
-6.21064e-06
5.01687e-06
-1.48349e-05
-6.75808e-07
1.21665e-07
1.44865e-05
8.67213e-07
-2.00325e-05
6.70468e-07
8.77646e-07
8.97746e-07
1.68488e-05
7.37833e-07
-5.93462e-06
7.4491e-07
-8.64357e-07
6.08824e-06
-1.80441e-05
9.26634e-07
-7.51247e-06
2.46299e-05
-3.07262e-06
6.63232e-07
-8.10067e-07
3.22849e-06
1.38336e-05
-3.36409e-06
-2.44954e-05
1.08821e-05
-1.56101e-05
1.87537e-05
1.42909e-05
-2.14249e-05
8.3752e-07
-5.79081e-06
-1.54505e-05
2.75378e-05
-1.28944e-05
5.7269e-06
-7.53566e-07
-8.28102e-06
1.29529e-05
3.24922e-06
1.16265e-06
-7.04989e-07
-9.61375e-06
2.93435e-07
-7.60344e-07
9.623e-06
-4.64762e-06
-4.56313e-06
4.12647e-05
-1.74926e-05
-9.41661e-06
-9.74574e-06
-1.95932e-05
7.02782e-06
7.9345e-06
1.11351e-06
8.16358e-06
-7.11051e-07
-2.95328e-07
4.3584e-07
5.25344e-07
-1.43606e-06
-1.71793e-06
4.91594e-05
-1.65759e-05
-1.79221e-05
-2.16749e-05
-1.59755e-05
7.82943e-06
4.98914e-06
6.04154e-06
2.63523e-06
-1.47947e-06
-3.65095e-06
4.61147e-05
2.90909e-06
7.04814e-06
4.23854e-07
3.95969e-06
-2.45351e-06
6.10974e-07
-1.2034e-06
-2.00855e-05
-1.12265e-05
-1.21369e-05
-1.02663e-05
-2.80034e-05
1.67595e-05
-2.087e-05
3.06828e-05
-9.43731e-06
-1.22355e-06
3.86578e-06
6.76092e-06
-5.55405e-07
-8.39462e-06
-1.86749e-07
-6.64537e-07
-1.10539e-07
9.91185e-06
-8.658e-07
4.98659e-07
5.37045e-05
-1.21955e-05
-1.94961e-05
-1.24924e-05
-1.83428e-05
9.193e-07
1.03091e-06
1.31479e-06
1.3612e-06
-2.59331e-06
-1.86706e-06
6.02301e-05
-2.07921e-05
-1.30472e-05
-1.39549e-05
-1.05592e-05
-5.35758e-07
-1.41864e-06
4.54346e-05
-6.85864e-07
-6.50768e-07
-4.14343e-07
-1.06668e-06
-4.52253e-07
-5.17177e-07
-8.92535e-06
-1.20753e-05
-1.10737e-05
-1.3863e-05
-1.55126e-05
3.48793e-06
3.67553e-06
-3.27136e-06
1.10847e-05
-1.03237e-05
3.28287e-07
-7.23275e-07
-2.91696e-07
1.08395e-05
1.70797e-07
-2.36568e-06
-2.27333e-06
8.25965e-05
7.24591e-08
1.84455e-07
6.26794e-07
4.5951e-07
-2.60569e-06
-8.13474e-07
-1.06838e-06
-1.89834e-05
-1.81426e-05
-1.75561e-05
-1.96326e-05
-1.6025e-06
-1.95252e-06
5.68331e-05
-1.33302e-06
-5.39124e-07
-6.12142e-07
-2.03028e-06
-8.48905e-07
-7.91023e-07
-1.02224e-05
-1.19272e-05
-1.29938e-05
-1.62128e-05
-1.06057e-05
-3.04061e-07
-8.99257e-07
8.78791e-06
-4.79814e-06
9.02539e-07
-7.14279e-07
4.643e-06
-1.26536e-05
8.56488e-07
-1.39854e-06
1.11288e-05
-1.38534e-05
5.14722e-07
1.0334e-07
-7.44696e-07
1.20275e-05
-5.55707e-06
7.80133e-07
4.67277e-07
4.40498e-06
-2.89282e-05
3.92615e-06
-1.04056e-05
3.54076e-05
-4.71267e-06
-1.31746e-06
-1.17611e-07
6.06857e-06
-1.56322e-06
5.74618e-06
-1.52766e-05
-8.3218e-06
1.07488e-06
1.83406e-05
1.09112e-06
-2.55656e-05
5.26557e-06
1.55581e-06
1.82316e-06
1.58299e-05
-1.29302e-05
-1.12987e-06
-3.36297e-06
1.38091e-06
1.59808e-05
6.13945e-08
6.07347e-07
1.44951e-07
-1.08402e-05
-1.37376e-06
-1.34537e-06
1.2807e-05
-1.68982e-06
2.82409e-06
4.78114e-05
-1.98558e-06
-6.28053e-06
-1.49336e-06
-2.66161e-06
9.44548e-07
5.1307e-07
2.22466e-06
1.05787e-06
-2.56794e-06
2.13046e-06
5.81703e-05
-4.61341e-06
-1.94987e-06
-2.32318e-06
-1.3768e-06
-5.06501e-06
3.53306e-07
5.97436e-05
-1.04044e-06
-3.78191e-06
-1.10887e-06
-9.21513e-07
-2.14755e-06
-1.28112e-06
-1.20372e-06
-2.37162e-05
-1.02988e-06
-2.59867e-07
2.01313e-05
-4.98224e-06
4.91171e-08
-1.46543e-06
6.38405e-06
1.4473e-06
-1.06085e-05
1.08497e-06
-7.4161e-07
-1.97311e-07
9.0152e-06
-5.41902e-07
1.11027e-06
5.65547e-05
-4.07181e-07
-4.54381e-07
2.0235e-07
6.47366e-08
-2.55502e-06
-1.77706e-06
6.61507e-05
-1.77747e-06
-1.04615e-06
5.18402e-05
-1.77055e-06
-1.05281e-06
-8.21242e-07
-9.14507e-07
-7.0599e-07
-5.18601e-07
-1.06844e-05
1.41766e-07
-1.27248e-06
4.23223e-07
9.61442e-06
-1.1144e-05
8.10983e-07
-4.44252e-07
1.44308e-06
1.00604e-05
-7.26123e-07
-6.78926e-07
5.64893e-07
7.89048e-05
-2.72385e-07
2.27512e-07
1.40635e-07
2.54882e-07
4.33392e-07
2.92249e-06
1.20946e-06
-1.10431e-06
-2.65143e-07
5.98144e-05
-9.34401e-07
-6.68303e-07
-6.32686e-07
-3.36179e-07
-6.02379e-07
-8.93897e-07
-8.73088e-06
-6.37083e-07
-5.58836e-07
7.77633e-06
-4.61236e-06
-1.2769e-07
1.84434e-07
4.60719e-06
-1.05541e-05
1.14887e-07
-2.1906e-07
1.12843e-05
-1.15458e-05
3.53596e-07
-5.03195e-07
4.73114e-10
1.14298e-05
-3.77523e-06
1.65421e-07
5.77197e-07
3.07268e-06
-2.63688e-05
5.51461e-07
8.44171e-06
1.75175e-05
-1.04966e-05
-5.72432e-06
4.37614e-06
1.18447e-05
-4.36149e-06
6.34194e-06
-1.90568e-05
-5.75563e-06
1.76512e-06
2.10669e-05
-4.40612e-06
-1.27866e-05
-1.73245e-08
3.88707e-06
1.38477e-06
1.19382e-05
-1.68184e-05
-1.17503e-06
3.846e-06
-2.29784e-07
1.78631e-05
-3.48586e-06
-2.4824e-06
-5.06974e-07
-1.6039e-05
-8.573e-07
4.17664e-07
1.9468e-05
2.26094e-07
5.36504e-06
5.05456e-05
-1.16936e-06
-1.32543e-06
-2.83859e-06
-3.59888e-07
2.20322e-06
1.05931e-06
-1.85142e-06
-4.04315e-06
-9.08468e-06
1.61773e-06
7.58701e-05
-1.52069e-06
-1.15185e-06
-1.97358e-06
-5.36067e-06
-7.54629e-07
-3.58221e-06
8.70545e-05
-2.85446e-06
-1.49299e-06
-8.35988e-06
-5.50286e-06
-1.26708e-06
-4.13907e-06
-8.44248e-06
-2.11487e-05
4.26102e-08
-4.70876e-06
2.50652e-05
-9.75863e-06
-2.27716e-07
-1.28726e-06
1.12731e-05
2.13598e-06
-7.16907e-06
1.03389e-06
-1.22961e-06
-2.21139e-07
5.44995e-06
2.9746e-06
-1.07918e-05
7.68455e-05
3.06356e-07
2.25996e-07
-4.59793e-06
-3.04291e-06
-9.62576e-06
-2.09045e-05
0.000101273
-1.274e-06
-4.99782e-06
8.17513e-05
-1.74599e-06
-7.20648e-06
-7.91994e-06
-3.80694e-06
-8.59621e-06
-7.57175e-06
-9.78673e-06
3.10049e-06
1.02431e-06
-1.43873e-06
5.82665e-06
-7.48475e-06
1.96741e-06
-1.18357e-06
1.08356e-06
5.92922e-06
-3.11874e-07
6.57826e-06
-2.12582e-06
9.28465e-05
-1.15961e-06
-1.8295e-06
-5.31591e-06
-3.35345e-06
-3.41337e-06
-7.12938e-06
-6.98468e-06
-1.77628e-06
-6.06666e-06
8.87011e-05
-1.02582e-06
-5.07244e-06
-4.05756e-06
-5.83096e-06
-8.96128e-06
-1.0422e-05
-6.9219e-06
-3.57491e-07
-2.7546e-06
3.2599e-06
-4.45906e-06
7.87751e-07
-1.04207e-06
4.71593e-06
-1.41877e-05
-3.42451e-07
2.83627e-06
9.56802e-06
-1.05474e-05
-4.16556e-06
5.67907e-06
-3.27421e-06
6.24146e-06
-2.9078e-06
3.22672e-06
-2.62397e-06
2.30466e-06
-1.32853e-05
3.02311e-06
1.33105e-06
8.93113e-06
-9.89096e-06
-8.09701e-07
2.24572e-06
8.45594e-06
-5.07578e-06
-2.04038e-06
-2.44986e-05
2.28657e-07
3.12916e-06
2.82569e-05
4.42339e-07
-1.22819e-05
1.4712e-06
-1.38996e-06
-1.97197e-06
1.37303e-05
-1.32438e-05
-3.79058e-07
2.72576e-07
2.49095e-06
1.04882e-05
3.71146e-07
-1.34236e-06
-1.31756e-06
-1.93869e-05
1.66616e-06
9.73237e-07
1.94075e-05
-1.62621e-06
-2.46491e-07
6.16315e-05
-2.64964e-06
-4.25331e-07
-2.49536e-06
-7.20006e-07
-1.3494e-06
-2.95771e-06
3.11116e-07
1.07313e-06
-2.2701e-06
-2.37017e-07
7.59859e-05
1.6864e-07
-1.71714e-06
1.20963e-06
1.10405e-06
-1.01894e-06
2.36576e-06
8.85161e-05
-2.46904e-06
-3.73547e-06
1.32465e-06
-2.13934e-06
-1.0921e-06
1.20983e-06
1.82297e-06
-2.40428e-05
-1.14357e-06
5.73923e-07
2.35936e-05
-7.96149e-06
7.8853e-08
2.5747e-06
5.30793e-06
-1.22115e-06
-4.76957e-06
-5.92989e-07
1.51072e-06
-9.66353e-07
6.03934e-06
1.14147e-06
-1.19217e-05
8.57025e-05
-1.57079e-06
-2.6858e-07
1.63964e-06
1.87651e-06
-3.46125e-07
-9.29391e-06
0.000111818
-1.4577e-06
-1.19083e-06
8.00098e-05
1.44902e-06
4.29545e-07
2.78955e-06
2.60059e-07
1.62502e-07
1.31897e-06
2.48356e-06
-4.42055e-07
-2.14777e-06
-9.52085e-07
-3.99353e-07
-4.57923e-06
-1.57571e-06
5.20551e-07
-1.87437e-06
5.53878e-06
1.97e-06
9.99032e-06
-3.64837e-07
7.60513e-05
-1.6953e-06
-2.77676e-06
-2.4734e-07
-7.65132e-07
-3.9044e-07
6.90234e-07
4.32651e-07
2.00277e-06
-5.5665e-07
7.93683e-05
2.97203e-07
2.54533e-06
2.07078e-06
8.74863e-07
7.25174e-07
2.06979e-06
1.24782e-06
2.90932e-07
-2.34387e-06
1.61706e-06
-2.2683e-06
1.04979e-06
1.12143e-06
9.70819e-08
-1.73901e-06
-1.02592e-07
1.69774e-06
-2.20965e-07
4.39689e-07
-2.62854e-06
3.03053e-06
-1.93114e-06
5.32808e-07
3.31715e-07
1.88863e-06
-2.18727e-06
-3.30783e-08
-4.04066e-06
-1.61718e-06
2.95931e-06
2.69853e-06
-8.37728e-06
-2.73651e-06
1.84237e-06
9.27185e-06
-9.24609e-06
-3.0357e-07
-3.09083e-05
2.08831e-06
6.795e-06
3.15747e-05
-4.78387e-06
-1.90288e-05
4.49056e-07
-8.00436e-07
1.76604e-06
2.2398e-05
-1.01462e-05
-1.47889e-06
2.44142e-06
7.76363e-07
9.16818e-06
-7.60837e-07
2.34172e-07
-4.09667e-07
-2.02836e-05
3.51453e-07
-1.21361e-06
2.13212e-05
7.83291e-07
-2.75401e-06
6.9584e-05
-2.87847e-06
-7.4971e-07
-3.17588e-06
-1.14101e-06
3.91562e-07
7.16976e-07
1.15419e-07
7.39258e-07
1.16283e-06
5.3564e-07
7.86782e-05
-3.73444e-07
-3.38741e-07
-1.53883e-06
-1.35652e-06
1.35786e-06
2.43726e-06
8.86594e-05
1.80075e-07
-2.43953e-06
-1.87359e-07
-2.65176e-06
1.32607e-06
1.39878e-07
8.56989e-07
-2.37672e-05
-4.25216e-06
3.36014e-06
-4.92827e-07
2.65099e-05
2.03518e-07
-2.33061e-08
-2.51896e-08
-1.55047e-07
-4.56771e-06
6.88217e-07
-8.34027e-07
4.71352e-06
-5.36046e-07
-8.76524e-06
1.54115e-06
-1.70341e-07
-3.24307e-06
1.11736e-05
8.59425e-07
-7.28531e-06
8.53069e-05
9.38423e-07
1.3171e-06
8.69268e-07
9.4268e-07
2.92552e-06
2.73795e-07
0.000110014
5.7015e-07
5.87272e-07
8.00733e-05
1.96303e-06
-4.35412e-08
2.93043e-07
9.79395e-07
4.50566e-07
4.99433e-07
-1.75882e-06
-3.80527e-07
1.66057e-09
6.26266e-07
2.08157e-06
7.53827e-09
3.43087e-07
-1.79912e-08
-2.44105e-08
-3.15658e-07
-6.4943e-06
4.09124e-07
-3.079e-07
-3.32111e-06
5.6827e-06
4.03148e-06
5.97839e-06
-5.15819e-07
5.7875e-05
1.1523e-06
2.03618e-06
1.44767e-06
2.27247e-06
-2.29511e-07
-6.24726e-07
-6.25906e-07
2.89498e-06
1.75761e-06
6.73092e-05
3.00639e-06
2.87459e-06
2.50593e-06
2.83409e-06
6.74207e-07
1.76347e-06
-4.47539e-06
6.89166e-07
4.82779e-07
6.7857e-06
3.66375e-07
-1.5692e-06
3.65009e-07
8.3782e-07
7.05139e-07
2.70875e-06
-2.19962e-06
-1.73009e-06
-1.71982e-06
3.34126e-07
-3.11512e-07
9.61751e-07
2.49307e-06
-1.66318e-07
-1.7751e-07
-1.02191e-06
1.36574e-06
-2.15247e-06
-6.84345e-08
-2.53794e-07
2.4747e-06
-1.04577e-05
-4.38989e-07
-5.54339e-07
1.14521e-05
-5.99122e-06
-5.51353e-07
-3.05848e-05
1.51565e-06
6.96983e-06
2.86419e-05
-4.26825e-06
-2.31013e-05
1.86766e-06
-2.67336e-07
4.82722e-06
2.0942e-05
-8.52276e-06
-2.27537e-06
3.26345e-06
9.64682e-07
8.67666e-06
-2.10666e-06
1.67425e-06
-2.66268e-07
-2.23279e-05
4.64283e-07
-3.05456e-06
2.35102e-05
6.24095e-07
1.44548e-06
8.10676e-05
-4.44114e-06
-3.04851e-06
-4.94356e-06
-4.48374e-06
3.80566e-07
1.005e-06
4.8509e-07
1.49314e-06
4.22181e-07
2.78923e-06
8.60889e-05
-3.28079e-06
-2.18268e-06
-3.20764e-06
-1.32693e-06
9.06894e-08
3.43507e-07
9.05439e-05
-9.32871e-08
-1.39826e-06
-8.42646e-09
-8.00863e-07
2.98314e-07
1.99381e-07
-9.33732e-08
-3.2219e-05
5.28453e-06
4.82001e-06
9.69479e-07
2.12356e-05
-8.01093e-07
1.35926e-06
-1.99639e-06
3.96848e-07
-1.58723e-06
2.62861e-06
-5.12418e-06
1.60539e-06
-2.05891e-06
5.5777e-06
-1.00407e-07
-1.31449e-05
3.69669e-06
8.52472e-08
-5.02186e-06
1.44852e-05
9.95043e-07
-3.24946e-06
8.64495e-05
4.37841e-07
4.22605e-07
7.10254e-07
9.86592e-07
1.62216e-06
3.89699e-06
0.000108279
-6.5355e-07
5.05154e-07
8.32915e-05
-9.31693e-07
-1.25705e-06
-1.39313e-06
9.62808e-07
6.88065e-07
8.26842e-07
-2.75921e-06
-8.39276e-07
-1.2686e-06
3.89087e-07
3.82445e-06
1.06629e-06
2.2061e-06
2.29982e-06
-1.70525e-06
-1.70494e-06
-2.16202e-06
-4.15209e-06
2.264e-06
-1.85212e-06
-4.51798e-06
3.17082e-06
5.08737e-06
-1.38456e-06
-3.68304e-07
4.3733e-05
2.94455e-06
3.35024e-06
3.56052e-06
3.54828e-06
-2.28659e-07
-3.66279e-07
-1.63221e-07
1.4762e-06
7.51131e-07
6.06704e-05
1.31292e-06
1.19245e-06
1.93696e-07
1.5224e-06
1.19633e-06
1.50604e-06
-9.04725e-06
-3.38599e-07
8.93216e-07
1.0474e-05
-7.09987e-07
-2.65151e-06
3.41064e-06
-1.56395e-06
1.51481e-06
1.33824e-06
1.46985e-06
-8.05381e-07
-2.0027e-06
1.98868e-06
2.93746e-06
-3.4587e-06
-1.83574e-06
-2.25266e-06
2.2374e-06
-2.21043e-06
1.06085e-06
1.91597e-06
-2.51937e-06
-7.89302e-07
1.25504e-07
3.18317e-06
-3.05583e-06
4.34137e-07
-7.61966e-07
3.38366e-06
-1.22809e-05
1.39254e-06
-1.90189e-06
1.27898e-05
-5.10724e-06
1.61704e-06
-2.67802e-05
-1.77983e-06
7.16321e-06
2.4887e-05
-3.25187e-06
-1.73449e-05
6.31742e-07
6.63986e-07
4.69641e-06
1.46046e-05
-9.12992e-06
3.98709e-08
-5.36834e-07
-4.06898e-07
1.00828e-05
-4.90514e-08
3.0854e-06
-2.26848e-07
-2.44731e-05
1.94083e-07
-4.14158e-06
2.5562e-05
-1.46806e-06
7.68727e-06
9.6024e-05
-6.06274e-06
-7.61462e-06
-6.03084e-06
-8.39502e-06
1.02607e-06
1.89263e-06
1.31631e-06
2.69261e-06
-1.11305e-06
2.51552e-06
8.8531e-05
-3.06285e-06
-9.41097e-07
-1.31776e-06
9.11624e-09
1.958e-07
1.57793e-06
8.81709e-05
2.18693e-07
-3.135e-08
8.16785e-07
3.77348e-07
-7.85554e-07
-2.14034e-07
-8.95655e-07
-1.84543e-05
-1.25045e-06
2.06577e-06
1.51417e-06
1.63206e-05
-4.2008e-06
-9.75011e-07
-2.31133e-06
8.29187e-07
1.83679e-06
4.82117e-06
-5.94984e-06
1.795e-06
-2.14527e-06
6.3001e-06
3.94122e-07
-1.52403e-05
4.56252e-06
-2.85286e-07
-5.04054e-06
1.56095e-05
4.02752e-07
-5.12578e-07
8.96529e-05
4.59397e-07
1.20603e-06
1.03783e-06
1.89047e-06
9.21355e-07
4.39108e-06
0.000105885
-1.05978e-06
8.48039e-07
8.47197e-05
-1.02107e-06
-6.39017e-07
-1.06089e-07
8.97624e-07
1.37375e-06
7.77602e-07
-4.2685e-06
-2.61499e-07
-1.77032e-07
1.70867e-08
3.63016e-06
2.59764e-06
-1.22946e-06
-6.7464e-08
-2.92996e-07
7.44138e-07
-1.75185e-06
-2.77944e-06
3.5359e-06
-3.52945e-06
-4.78799e-06
2.69385e-06
4.86713e-06
-9.79103e-06
-3.64758e-07
3.7158e-05
4.19843e-06
4.01982e-06
4.53514e-06
4.03235e-06
-8.3397e-08
-4.16173e-07
-6.79581e-08
-5.85397e-07
1.43624e-06
5.32924e-05
-1.3091e-06
-4.85379e-07
-1.52245e-06
1.61711e-06
1.40899e-06
1.41804e-06
-1.264e-05
-1.43446e-06
1.1666e-06
1.31705e-05
-3.48616e-07
-4.09914e-07
3.17965e-06
-1.34267e-06
-1.07845e-06
2.54975e-06
-9.50379e-07
9.42988e-07
-5.12579e-07
-2.02978e-06
1.49871e-06
3.1253e-06
-4.06021e-06
-9.28555e-07
-1.47226e-06
3.21421e-06
-3.73918e-06
2.02199e-06
1.41148e-06
-3.41495e-06
-1.88959e-06
1.93025e-06
3.37429e-06
-3.65444e-06
-1.54259e-06
1.04256e-06
4.15447e-06
-1.33064e-05
1.55723e-06
-2.43798e-06
1.41884e-05
-4.49217e-06
2.24782e-06
-2.37871e-05
-3.75754e-06
6.50654e-06
2.32824e-05
-1.81625e-06
-1.39342e-05
9.7007e-08
-3.4341e-07
1.44564e-06
1.45512e-05
-1.10978e-05
1.8073e-06
-2.53922e-06
-1.89248e-06
1.21356e-05
1.58661e-06
3.33734e-06
-1.92814e-07
-2.6767e-05
-3.27553e-07
-4.0427e-06
2.79927e-05
-4.22481e-06
8.91371e-06
0.000108339
-5.57213e-06
-9.40541e-06
-4.4525e-06
-7.62857e-06
1.71217e-06
2.72008e-06
2.08928e-06
3.53269e-06
-4.71535e-06
1.18417e-06
8.62355e-05
-5.61028e-07
1.56677e-07
7.30526e-07
1.27567e-06
-2.31673e-07
1.83127e-06
7.98371e-05
1.29929e-06
1.24187e-06
2.04165e-06
8.44587e-07
-1.00085e-06
-1.47913e-06
-9.28555e-07
-1.89545e-05
2.41861e-06
2.1341e-06
9.05813e-08
1.40795e-05
-5.59488e-06
-1.75588e-06
1.53849e-06
3.02634e-06
2.78593e-06
-6.64432e-06
1.38621e-06
-1.74003e-06
6.99814e-06
5.51157e-07
-1.6167e-05
4.00676e-06
-8.08173e-07
-4.61424e-06
1.70315e-05
-4.61935e-06
4.91835e-07
9.47968e-05
8.40744e-07
2.32042e-06
1.5967e-06
3.1394e-06
-2.64108e-06
3.84363e-06
0.000101247
-2.49106e-07
1.61834e-06
7.89487e-05
1.36238e-07
1.0537e-07
-3.69114e-07
1.23356e-06
2.04455e-06
4.4136e-07
-2.90064e-06
3.53701e-07
2.68972e-07
-1.07509e-07
2.13637e-06
1.15459e-06
-3.02041e-06
-4.23582e-07
3.9503e-07
2.40212e-06
-5.07747e-07
-2.57051e-06
4.37152e-06
-4.39322e-06
-4.81214e-06
2.55986e-06
4.84449e-06
-1.55603e-05
-3.61934e-07
3.61853e-05
4.81211e-06
4.24973e-06
5.08724e-06
4.03615e-06
-1.34388e-07
-4.9582e-07
-1.68339e-07
-1.84869e-06
9.76788e-07
4.61777e-05
-2.35601e-06
-1.62713e-06
-2.28949e-06
9.06436e-07
8.81931e-07
7.54249e-07
-1.41633e-05
-1.33385e-06
1.34561e-06
1.39212e-05
1.85955e-06
-2.9406e-07
5.63841e-07
-2.12933e-06
2.20135e-07
2.78321e-06
-3.86649e-06
5.01208e-07
-1.32661e-06
3.33864e-06
-4.15283e-06
1.86203e-06
1.25555e-06
-2.98618e-06
-1.6239e-06
2.67308e-06
1.937e-06
-4.73446e-06
-1.71072e-07
-3.12735e-07
5.21827e-06
-1.54252e-05
1.88799e-06
-3.02169e-06
1.65589e-05
-2.29745e-06
9.46772e-07
-2.33758e-05
-2.95025e-06
3.71792e-06
2.39588e-05
2.79108e-07
-1.58345e-05
1.30642e-06
-1.93305e-06
-7.89636e-07
1.69716e-05
-1.3057e-05
2.6986e-06
-2.35944e-06
-3.1565e-06
1.3654e-05
2.22029e-06
3.42356e-06
-2.73891e-07
-2.90588e-05
-6.16383e-07
-3.30744e-06
2.9833e-05
-6.65105e-06
8.0126e-06
0.000111789
-3.42977e-06
-5.74057e-06
-2.61776e-06
-3.45682e-06
1.97707e-06
2.99459e-06
1.87729e-06
3.58499e-06
-7.48601e-06
-2.08232e-06
8.21974e-05
1.04554e-06
1.60317e-06
1.81306e-06
2.4936e-06
-1.84455e-06
-1.85254e-07
6.77553e-05
2.63161e-06
1.40403e-06
3.47032e-06
1.46783e-06
-1.16656e-06
-7.30463e-07
-4.51169e-07
-1.08574e-05
-6.67998e-07
7.2731e-07
8.95355e-06
-7.43609e-06
1.08691e-06
-1.55344e-06
7.90262e-06
1.05502e-06
-1.8379e-05
2.80544e-06
-1.83125e-06
-3.66457e-06
2.00143e-05
-1.31465e-05
1.09101e-06
0.000101414
1.84498e-06
3.89495e-06
2.82992e-06
4.88079e-06
-8.57617e-06
1.90018e-06
9.2694e-05
-5.60728e-07
1.60263e-06
6.631e-05
2.98777e-09
-2.47302e-07
8.28325e-08
5.07353e-07
1.76289e-06
7.26607e-07
-2.62925e-06
-9.16036e-07
-1.52746e-06
1.03335e-06
3.47866e-06
-2.70283e-06
4.77718e-06
-5.06488e-06
-4.58531e-06
3.147e-06
4.42885e-06
-1.69963e-05
-2.14722e-07
3.70957e-05
4.99501e-06
4.02388e-06
5.19128e-06
3.74852e-06
-1.6965e-07
-2.29702e-07
-1.67682e-07
-2.57379e-06
5.89024e-07
3.92436e-05
-2.68928e-06
-2.37667e-06
-2.53166e-06
4.671e-07
5.31468e-07
4.21829e-07
-1.40762e-05
-7.94253e-07
7.64621e-07
1.31346e-05
1.443e-06
-7.95873e-07
-1.87178e-07
-4.59954e-07
-9.87407e-07
1.96998e-06
-2.6768e-06
1.4795e-06
-1.28731e-06
2.15375e-06
-2.45447e-06
1.1825e-06
9.94554e-07
-6.9248e-07
-6.55669e-07
1.48003e-06
-1.31883e-07
-5.67904e-06
6.24291e-07
-1.05039e-06
6.10514e-06
-1.74084e-05
2.39505e-06
-2.90393e-06
1.79173e-05
-4.5275e-07
-3.86299e-07
-2.49212e-05
-1.91433e-06
1.7482e-06
2.59264e-05
6.87016e-07
-1.78649e-05
1.93783e-06
-2.04434e-06
-1.22667e-06
1.8511e-05
-1.3833e-05
2.60314e-06
-6.37492e-07
-3.73726e-06
1.38117e-05
1.79289e-06
2.77656e-06
-6.71825e-08
-3.02708e-05
-5.68298e-07
-2.26674e-06
3.03964e-05
-5.81208e-06
7.45097e-06
0.000110123
-2.11644e-06
-3.05629e-06
-1.71523e-06
-1.8363e-06
1.43064e-06
2.73398e-06
1.40119e-06
3.18571e-06
-3.73487e-06
-4.0436e-06
7.66899e-05
1.32462e-06
2.05818e-06
1.7655e-06
2.3256e-06
2.7464e-07
-1.22415e-06
5.38444e-05
3.38703e-06
1.47262e-06
3.54318e-06
1.27068e-06
3.34197e-07
5.63844e-07
5.5401e-07
-7.11514e-06
-4.25413e-07
1.5156e-06
6.29959e-06
-8.26367e-06
7.90876e-07
-1.09471e-06
8.56751e-06
1.65426e-06
-2.19633e-05
1.59151e-06
-3.00221e-06
-2.13289e-06
2.38526e-05
-1.45838e-05
9.9899e-07
0.000106827
2.5158e-06
4.5965e-06
3.46367e-06
5.04745e-06
-1.02782e-05
-1.948e-07
8.45395e-05
-4.09807e-07
1.03614e-06
5.13488e-05
-7.67165e-08
-4.83364e-07
-2.81692e-07
9.0247e-07
1.4977e-06
1.27419e-06
-3.83545e-06
-1.18841e-06
-9.14963e-07
1.53432e-06
3.99469e-06
-4.14781e-06
3.68425e-06
-4.69362e-06
-3.83329e-06
6.09288e-06
2.89758e-06
-1.48924e-05
1.06555e-07
3.76472e-05
4.6159e-06
3.36096e-06
4.1918e-06
2.80677e-06
6.74552e-08
7.11004e-08
1.19398e-07
-2.70006e-06
2.95049e-07
3.30766e-05
-2.30169e-06
-2.30835e-06
-2.17864e-06
1.39898e-07
1.34088e-07
-5.51157e-10
-1.25152e-05
-1.13323e-06
1.06995e-06
1.09146e-05
-1.64937e-07
-9.66762e-07
5.05707e-07
6.25992e-07
-1.80392e-06
1.27963e-06
-1.56447e-06
2.19532e-06
-8.51031e-07
1.3386e-06
-1.4616e-06
5.96661e-07
6.72421e-07
5.38803e-07
-8.91768e-07
1.04041e-06
-6.87439e-07
-6.47307e-06
9.59054e-08
-3.90872e-07
6.76803e-06
-1.81976e-05
2.59587e-06
-2.66583e-06
1.82676e-05
6.28107e-07
-1.22464e-06
-2.6753e-05
-7.10984e-07
8.14987e-07
2.72455e-05
-1.97119e-07
-1.90634e-05
1.2495e-06
-1.07037e-06
-4.38596e-07
1.952e-05
-1.41139e-05
9.47748e-07
5.13276e-07
-2.98498e-06
1.49227e-05
7.15178e-07
2.20898e-06
1.38813e-07
-3.03754e-05
-6.79515e-07
-1.52045e-06
3.02275e-05
-1.17524e-06
6.76134e-06
0.000102971
-1.58753e-06
-1.87556e-06
-1.48195e-06
-8.42388e-07
1.09886e-06
2.34536e-06
1.09614e-06
2.8131e-06
3.72332e-06
-3.54245e-06
6.94588e-05
9.85873e-07
1.52492e-06
1.49447e-06
1.86973e-06
1.13105e-06
9.83973e-08
4.57704e-05
2.72937e-06
8.52737e-07
2.65934e-06
6.60615e-07
1.22236e-06
1.20453e-06
1.2389e-06
-5.7983e-06
-6.58128e-07
1.7368e-06
5.85067e-06
-8.95277e-06
5.50944e-07
-9.93698e-07
9.39553e-06
2.33021e-06
-2.54476e-05
8.74861e-07
-3.61933e-06
-5.82002e-07
2.64438e-05
-1.07938e-05
9.23628e-07
0.000108827
2.66785e-06
4.07081e-06
3.39034e-06
4.50215e-06
-7.16652e-06
-2.45197e-07
7.7615e-05
-5.84332e-07
1.18463e-06
4.08922e-05
-3.60953e-07
-6.8235e-07
-5.21789e-07
1.34469e-06
1.56262e-06
1.44602e-06
-4.11592e-06
-1.47312e-06
-1.16316e-06
1.88555e-06
4.28232e-06
-8.84652e-06
8.44186e-07
-1.79562e-06
-1.35418e-06
1.09912e-05
1.60928e-07
-1.04597e-05
3.71474e-07
4.08978e-05
2.45827e-06
1.81898e-06
1.24086e-06
1.03786e-06
4.57233e-07
3.04311e-07
4.43747e-07
-2.14234e-06
2.68315e-07
2.95818e-05
-1.86902e-06
-1.70041e-06
-1.83738e-06
7.56717e-08
1.8526e-07
-1.9011e-07
-1.00659e-05
-1.25759e-06
1.45379e-06
8.91195e-06
-8.2586e-07
-1.24674e-06
1.12164e-06
9.50964e-07
-2.39158e-06
7.93284e-07
-7.30521e-07
2.70029e-06
-6.29469e-07
7.19065e-07
-8.95668e-07
2.32566e-07
8.41822e-07
6.58654e-07
-1.03793e-06
9.1087e-07
-5.31593e-07
-7.0467e-06
-6.66302e-07
3.4574e-07
7.36726e-06
-1.81776e-05
2.90324e-06
-2.70618e-06
1.79805e-05
1.28178e-06
-2.08067e-06
-2.74809e-05
3.11197e-07
3.87579e-07
2.75811e-05
-7.32866e-07
-1.99639e-05
6.3958e-07
-3.90036e-07
-1.13323e-07
2.05605e-05
-1.60115e-05
-6.46274e-08
1.12674e-06
-2.17621e-06
1.71608e-05
-3.51328e-08
2.12963e-06
8.63546e-08
-2.98441e-05
-1.29303e-07
-1.28936e-06
2.90468e-05
6.63989e-06
6.50195e-06
9.09343e-05
-1.39043e-06
-1.17359e-06
-1.07335e-06
-6.57338e-07
1.9802e-07
1.32252e-06
-4.84301e-08
1.71706e-06
9.33505e-06
-1.3484e-06
6.19544e-05
1.10034e-06
1.4617e-06
1.5833e-06
2.0123e-06
1.56343e-06
2.50445e-06
4.2373e-05
1.89406e-06
2.17005e-07
1.93229e-06
3.02934e-08
1.56322e-06
1.57618e-06
1.45156e-06
-5.87451e-06
-9.77781e-07
2.28514e-06
6.13059e-06
-9.77726e-06
6.10355e-08
-2.61013e-07
9.97724e-06
2.0317e-06
-2.71833e-05
2.72988e-07
-3.26209e-06
4.94956e-07
2.76457e-05
-5.67553e-06
1.47515e-06
0.000106639
2.37298e-06
3.53787e-06
3.05455e-06
3.92525e-06
-1.97196e-06
2.32939e-06
7.02337e-05
-5.30824e-07
1.42995e-06
3.7156e-05
-2.9559e-07
-6.04371e-07
-4.39526e-07
1.52669e-06
1.68823e-06
1.49408e-06
-4.53189e-06
-1.85561e-06
-1.22055e-06
2.03621e-06
5.04101e-06
-1.18776e-05
-1.85405e-06
1.95973e-06
1.29364e-06
1.18619e-05
-1.38356e-06
-4.77111e-06
5.83378e-07
4.79788e-05
-9.21415e-07
-1.14278e-07
-1.69946e-06
-6.83044e-07
7.65658e-07
5.2192e-07
7.12498e-07
-1.26708e-06
5.34431e-07
3.0756e-05
-1.3562e-06
-8.26725e-07
-1.34553e-06
2.11507e-07
4.77123e-07
-4.34592e-08
-8.43626e-06
-8.97892e-07
1.59141e-06
7.90561e-06
-1.00716e-06
-1.32905e-06
1.16734e-06
1.16887e-06
-2.91314e-06
3.87429e-07
-2.04089e-07
3.31318e-06
-1.04433e-06
3.43009e-07
-5.43437e-07
1.31769e-07
1.64743e-06
3.8193e-07
-1.07591e-06
7.75022e-07
-8.10387e-08
-7.7193e-06
-1.24104e-06
9.09129e-07
8.0512e-06
-1.76099e-05
3.58814e-06
-3.02307e-06
1.70449e-05
1.76872e-06
-3.0481e-06
-2.77133e-05
1.66794e-06
-4.13628e-07
2.77384e-05
-1.11478e-06
-2.13834e-05
-1.71595e-07
-4.04914e-08
2.36538e-07
2.24738e-05
-1.82301e-05
-1.85806e-07
1.245e-06
-1.65385e-06
1.92684e-05
-4.43666e-07
1.86713e-06
-2.55416e-07
-2.76149e-05
1.00125e-06
-6.08873e-07
2.56108e-05
1.1413e-05
5.93858e-06
7.8006e-05
-7.68488e-07
-1.2767e-06
-4.9399e-07
-7.04747e-07
-8.46962e-07
2.18839e-07
-8.43158e-07
2.91925e-07
1.1149e-05
2.42233e-06
5.47197e-05
6.83488e-07
1.44851e-06
1.01194e-06
1.93244e-06
1.62793e-06
4.68845e-06
4.10063e-05
1.2722e-06
-2.74407e-07
1.311e-06
-3.95457e-07
1.42354e-06
1.59016e-06
1.2723e-06
-6.39513e-06
-1.34834e-06
2.64207e-06
6.72933e-06
-1.00123e-05
-7.03141e-08
1.4094e-07
9.94165e-06
1.34593e-06
-2.80983e-05
-6.59867e-07
-2.53291e-06
1.40748e-06
2.85376e-05
-1.97546e-06
2.22463e-06
0.000104772
1.80108e-06
2.25297e-06
2.19856e-06
1.30349e-06
1.23492e-06
4.73337e-06
6.47122e-05
-3.60482e-07
1.55468e-06
3.77548e-05
-1.07595e-07
-4.17425e-07
-2.45345e-07
1.62978e-06
1.75232e-06
1.51867e-06
-5.51223e-06
-1.99876e-06
-1.11732e-06
2.03659e-06
6.23124e-06
-1.1299e-05
-3.85558e-06
4.27219e-06
1.93368e-06
1.07358e-05
-1.78709e-06
-1.19845e-06
7.74797e-07
5.59431e-05
-2.79513e-06
-1.14355e-06
-2.70233e-06
-1.25938e-06
9.39243e-07
7.37893e-07
9.07164e-07
-4.76809e-07
7.82609e-07
3.46174e-05
-8.37315e-07
-8.89073e-08
-7.99054e-07
2.7666e-07
7.19652e-07
9.66627e-08
-7.91975e-06
-4.25387e-07
1.5646e-06
7.8584e-06
-1.33018e-06
-1.30707e-06
1.00171e-06
1.63554e-06
-3.69569e-06
1.3125e-07
1.01675e-07
4.23757e-06
-2.163e-06
1.23405e-07
-2.76913e-07
9.83979e-08
3.00072e-06
-2.19513e-07
-1.05626e-06
6.5533e-07
6.20447e-07
-8.32546e-06
-1.88696e-06
1.65372e-06
8.5587e-06
-1.63414e-05
4.24381e-06
-3.50783e-06
1.56054e-05
1.96068e-06
-3.9226e-06
-2.76619e-05
3.27317e-06
-1.08846e-06
2.74391e-05
-1.70487e-06
-2.3869e-05
-1.92318e-06
1.43463e-06
7.75085e-07
2.52874e-05
-2.03384e-05
-5.97354e-07
1.59893e-06
-9.70749e-07
2.1644e-05
-1.33641e-06
2.32875e-06
-1.32104e-06
-2.38247e-05
1.15258e-06
-1.13003e-06
2.27944e-05
1.03445e-05
2.58943e-06
6.72551e-05
2.10023e-07
-6.57628e-07
7.39353e-07
4.59411e-07
-8.14886e-07
-1.02882e-06
-5.49113e-07
-5.4135e-07
8.84759e-06
4.74134e-06
4.79417e-05
-2.90309e-08
1.25717e-06
6.93177e-07
1.61226e-06
1.40442e-06
5.14609e-06
4.07901e-05
6.09336e-07
-7.4759e-07
4.7199e-07
-1.08191e-06
1.02661e-06
1.37757e-06
8.57216e-07
-7.18128e-06
-1.74954e-06
2.7928e-06
7.54244e-06
-9.6392e-06
6.39845e-07
9.76832e-08
8.90168e-06
-6.05551e-07
-2.90556e-05
-4.86347e-07
-1.72511e-07
1.54957e-06
2.87705e-05
6.93333e-07
2.95355e-06
0.000106003
7.21772e-08
-1.0317e-06
-1.78845e-07
-1.15044e-06
2.83287e-06
5.27993e-06
6.20341e-05
-2.05971e-07
1.44169e-06
4.0191e-05
8.7655e-08
-2.33652e-07
-6.49942e-09
1.49384e-06
1.59963e-06
1.366e-06
-6.83644e-06
-1.91625e-06
-9.61236e-07
1.88131e-06
7.62665e-06
-1.01424e-05
-3.16693e-06
4.11264e-06
1.20163e-06
9.75885e-06
-1.76385e-06
7.92634e-07
1.01253e-06
6.16614e-05
-2.96132e-06
-1.20714e-06
-2.50379e-06
-1.14175e-06
1.10445e-06
1.00846e-06
1.13124e-06
1.28975e-07
8.04742e-07
3.88498e-05
-4.09994e-07
5.19929e-07
-3.28825e-07
2.47522e-07
7.35197e-07
1.42602e-07
-8.29357e-06
1.72619e-08
1.40542e-06
8.44155e-06
-1.93963e-06
-1.21381e-06
7.96439e-07
2.357e-06
-4.73879e-06
6.39061e-08
3.23963e-07
5.36346e-06
-3.75056e-06
-6.8468e-08
-1.58858e-09
-1.44534e-08
4.63981e-06
-1.01206e-06
-9.43398e-07
4.83332e-07
1.47212e-06
-8.76968e-06
-2.41122e-06
2.22953e-06
8.95137e-06
-1.52334e-05
3.68639e-06
-3.66284e-06
1.52099e-05
2.74213e-06
-3.72866e-06
-2.71364e-05
4.17733e-06
-2.69436e-06
2.664e-05
-1.7612e-06
-2.67391e-05
-3.41341e-06
3.39328e-06
4.77544e-07
2.80429e-05
-2.31877e-05
-1.91126e-06
2.88149e-06
1.83088e-07
2.47891e-05
-2.75477e-06
2.17217e-06
4.36955e-07
-2.18e-05
-2.73715e-07
-5.74497e-07
2.00391e-05
6.13668e-06
-1.26144e-06
5.83494e-05
1.76978e-06
9.5096e-07
1.74812e-06
1.79273e-06
-5.59394e-07
-8.73662e-07
-5.76294e-07
-2.21738e-07
4.76338e-06
3.63951e-06
4.29272e-05
1.58146e-07
8.57403e-07
7.02237e-07
1.0305e-06
1.23235e-06
4.15733e-06
4.2376e-05
-3.81145e-07
-1.50428e-06
-6.46012e-07
-1.92768e-06
5.85347e-07
1.21243e-06
4.49187e-07
-8.08599e-06
-2.27379e-06
3.01179e-06
8.58033e-06
-8.04166e-06
4.06438e-07
5.58281e-07
7.07694e-06
-1.54483e-06
-2.7658e-05
-1.07259e-06
1.93947e-06
2.18083e-06
2.61551e-05
3.9437e-06
5.13154e-06
0.000103606
-1.79392e-06
-2.78317e-06
-1.1517e-06
-2.21052e-06
4.62912e-06
4.90649e-06
6.00817e-05
5.76305e-08
1.10259e-06
4.34276e-05
3.64076e-07
1.13165e-07
3.47251e-07
1.19635e-06
1.26658e-06
1.1022e-06
-8.30063e-06
-1.71168e-06
-7.52487e-07
1.59956e-06
9.22287e-06
-9.65841e-06
-2.04332e-06
3.08693e-06
5.00505e-07
9.90369e-06
-1.78939e-06
2.65146e-06
1.39645e-06
6.45961e-05
-2.70861e-06
-9.03736e-07
-2.21994e-06
-6.75988e-07
1.49926e-06
1.47664e-06
1.68122e-06
7.26999e-07
6.84137e-07
4.27801e-05
-3.20084e-08
1.2143e-06
5.27305e-08
2.02632e-07