/*--------------------------------*- C++ -*----------------------------------*\
| =========                 |                                                 |
| \\      /  F ield         | OpenFOAM: The Open Source CFD Toolbox           |
|  \\    /   O peration     | Version:  5.x                                   |
|   \\  /    A nd           | Web:      www.OpenFOAM.org                      |
|    \\/     M anipulation  |                                                 |
\*---------------------------------------------------------------------------*/
FoamFile
{
    version     2.0;
    format      ascii;
    class       surfaceScalarField;
    location    "7.65";
    object      phi;
}
// * * * * * * * * * * * * * * * * * * * * * * * * * * * * * * * * * * * * * //

dimensions      [0 3 -1 0 0 0 0];

internalField   nonuniform List<scalar> 
29271
(
-3.99231e-06
-1.51584e-06
3.81856e-06
1.64184e-06
-7.28464e-06
2.30964e-06
1.083e-06
3.97624e-06
-1.67199e-05
-4.63558e-06
-5.02045e-06
5.51453e-06
8.76022e-06
1.21011e-05
-1.85338e-05
-6.00626e-06
-5.63622e-06
6.00713e-06
2.98942e-06
2.11797e-05
-1.69894e-05
-6.15974e-06
6.02479e-06
2.71991e-06
2.0937e-05
-6.53248e-06
-1.72744e-05
-3.87187e-06
-3.41639e-06
1.05347e-05
-4.52293e-06
1.85509e-05
-2.01957e-05
-4.55418e-06
9.39456e-07
-8.38121e-06
-1.31033e-05
4.52949e-05
-1.80695e-05
1.81977e-06
5.14423e-06
6.81829e-07
-9.57356e-06
1.99973e-05
-1.85738e-05
7.70761e-06
-3.50735e-06
1.93707e-06
-2.13336e-05
3.377e-05
-1.60462e-05
1.32401e-06
-8.03503e-06
2.10589e-05
1.6145e-06
-3.65477e-06
1.52839e-06
1.50872e-08
2.1441e-06
-1.93172e-05
-6.26959e-06
1.20702e-05
9.28024e-06
-1.22156e-05
1.64519e-05
-2.51795e-05
2.31972e-05
-4.85081e-06
-1.21921e-06
-1.93496e-05
2.74019e-05
-1.68559e-05
1.23308e-05
1.79423e-06
-1.08407e-07
-1.16242e-05
1.44635e-05
-2.34172e-05
2.72078e-05
-4.7761e-07
-1.09702e-06
-2.42115e-05
2.19956e-05
-1.56522e-05
7.07523e-06
6.91573e-07
-5.14127e-06
8.59418e-06
4.43244e-06
-1.29345e-05
2.10531e-07
9.67245e-07
-2.3344e-06
7.38632e-06
6.70484e-06
-1.23933e-05
-1.28277e-06
9.08495e-06
1.48699e-06
-3.91964e-06
7.02372e-06
-1.30759e-05
9.16994e-06
-3.06948e-06
4.78032e-06
-7.63445e-06
9.82953e-06
-1.46956e-05
2.44324e-06
-1.16035e-05
1.23688e-05
1.63416e-05
-4.85463e-06
-4.49378e-06
2.44169e-06
-9.52345e-07
2.96592e-06
-1.05777e-05
-9.63069e-07
3.32878e-06
6.61877e-06
1.67687e-06
-1.53742e-05
-5.65919e-06
1.10559e-05
-5.98196e-06
1.1481e-05
4.47845e-06
-5.82306e-06
5.57821e-06
-3.72986e-06
3.98333e-06
-1.75013e-06
1.25349e-07
-7.33903e-07
2.31894e-06
-2.7577e-06
7.81978e-07
-5.70926e-07
2.56601e-06
1.39019e-06
1.53168e-07
-1.04712e-05
-2.11269e-06
1.96089e-07
1.08445e-05
5.49862e-07
-1.86281e-05
2.48166e-06
-7.15165e-07
2.64113e-06
1.36706e-05
-2.02169e-05
-2.58819e-07
2.37836e-06
2.88501e-06
1.64448e-05
-1.23247e-06
2.76339e-06
-4.46637e-06
-2.38069e-05
7.69844e-06
-3.51131e-06
2.13227e-05
-1.70434e-06
1.3041e-05
0.000134856
-5.12451e-05
-3.03138e-05
-4.00537e-05
-2.44037e-05
-1.53621e-06
-3.26296e-06
2.78758e-06
3.97557e-07
-1.14902e-06
-3.24414e-06
4.06299e-06
1.7679e-06
-8.22951e-08
1.25959e-05
7.12386e-05
-1.66662e-05
-3.15626e-05
-1.40139e-05
-1.687e-05
-2.33625e-06
-2.85518e-06
-4.43104e-07
-7.09393e-07
4.6361e-06
7.53858e-06
9.96714e-05
-2.06145e-06
-1.46409e-06
1.44435e-06
1.82331e-06
2.79238e-06
3.43321e-06
1.2586e-06
-3.28863e-05
-3.10171e-05
-2.19893e-05
-3.32619e-05
-3.35434e-05
2.34605e-06
-4.45886e-07
3.62559e-05
-1.49264e-06
-1.10007e-08
-2.49394e-08
1.55274e-06
-1.91469e-07
-1.00162e-05
1.05401e-06
1.98878e-06
-7.67946e-07
7.9328e-06
6.37329e-06
-5.23783e-06
7.81299e-05
-2.38786e-05
-1.72401e-05
-7.40193e-06
-6.90264e-06
-4.81215e-06
-2.13041e-06
-2.30868e-06
-1.54985e-06
-4.59438e-06
-4.92404e-06
7.9586e-05
-1.55735e-05
-1.74406e-05
-8.49706e-06
-9.58726e-06
-2.51442e-07
-1.29096e-06
6.05263e-05
5.89643e-08
-5.61621e-08
2.19307e-07
-9.00484e-07
2.39017e-08
-1.68829e-07
-1.68681e-05
-2.08021e-05
-9.21823e-06
-8.32793e-06
-6.57587e-06
-2.12391e-06
3.93998e-08
4.87338e-07
7.9216e-06
-5.0704e-06
3.14019e-07
4.51418e-07
-9.47257e-07
4.20321e-06
1.04901e-06
5.51123e-06
-1.64114e-06
2.41402e-05
-1.29316e-06
-1.1635e-06
-1.08223e-06
-1.05164e-06
-1.7762e-06
-1.33819e-06
-1.39561e-06
-6.0083e-06
-5.85736e-06
-5.8928e-06
-6.38912e-06
-1.21994e-06
-3.47219e-06
5.8734e-05
-8.07291e-07
-3.50898e-08
-1.82177e-07
-4.15946e-06
-2.40801e-06
-2.41879e-06
-9.88488e-06
-1.12984e-05
-1.08195e-05
-1.14411e-05
-1.02791e-05
2.94621e-07
-1.49984e-06
8.97339e-06
-3.67997e-06
6.1589e-07
-1.34261e-06
4.36746e-06
-5.20618e-06
-1.42274e-07
1.4565e-07
3.68581e-06
-1.08513e-05
-5.47075e-07
1.02631e-06
-1.58631e-06
8.48621e-06
-4.13076e-06
1.39893e-06
-1.15929e-06
3.88848e-06
-3.11929e-06
5.59399e-07
-2.01504e-06
4.44511e-06
-3.12455e-06
5.06568e-07
-1.57282e-06
4.18165e-06
6.73141e-06
-6.12328e-07
-1.14253e-05
2.90591e-07
-3.96277e-06
8.97838e-06
2.65846e-06
-1.19293e-05
-2.8717e-07
-1.34873e-07
-1.37695e-06
1.10698e-05
-1.66915e-05
2.64609e-06
-7.05656e-07
-2.50134e-06
1.67764e-05
4.76032e-07
1.95965e-06
2.19544e-06
-1.91964e-05
-1.22209e-07
1.2239e-06
1.39396e-05
1.36068e-05
3.22233e-05
0.000112454
-1.3972e-06
-2.28516e-06
1.23019e-06
-3.73034e-07
-9.11134e-06
-4.97176e-06
-4.89731e-06
-1.62201e-06
-4.32123e-06
2.58929e-05
6.83813e-05
-2.0011e-06
-2.70374e-06
7.73818e-09
-4.10424e-07
-1.26719e-06
1.39719e-05
8.47163e-05
-2.73821e-06
-2.38667e-06
3.05407e-07
4.34588e-07
3.90364e-07
4.85499e-07
1.43809e-06
-3.40933e-05
3.48897e-07
4.24107e-06
2.80877e-05
-1.79724e-06
-2.66598e-07
6.62741e-07
1.52053e-06
-4.47376e-07
-8.79817e-06
-2.30114e-06
-2.67286e-08
-3.02662e-07
1.18761e-05
1.0881e-05
3.67242e-06
9.73599e-05
-1.2864e-06
-1.05035e-06
-5.94344e-07
1.37098e-06
-3.38622e-06
8.71678e-06
0.000111029
-9.45131e-07
4.19795e-07
6.39606e-05
-1.06335e-06
-2.72661e-07
-2.26916e-07
5.40167e-07
6.61914e-06
2.08039e-06
-9.37956e-06
-1.19079e-06
-8.39931e-07
1.18147e-06
9.28368e-06
-3.30463e-06
-3.39903e-07
1.07706e-06
-1.10221e-06
1.91122e-06
1.75846e-06
8.79139e-06
-1.6724e-06
3.00766e-05
-1.00623e-06
-1.45126e-06
-1.58729e-06
-1.23282e-06
-1.60628e-06
-1.34538e-06
-1.15369e-06
1.57302e-06
-8.03048e-07
7.31243e-05
1.76622e-06
2.19419e-06
2.35852e-06
-5.32193e-07
-2.23818e-06
-1.20061e-06
-1.03648e-05
1.83485e-07
-6.85611e-07
1.28597e-05
-5.23867e-06
-8.52559e-07
1.44229e-07
5.91255e-06
-1.95271e-06
-4.90085e-07
1.06641e-06
-1.6024e-07
-7.2017e-06
-1.769e-06
1.58125e-06
-1.498e-06
8.08441e-06
-3.46717e-06
6.73371e-07
-6.40839e-07
3.44657e-06
-6.19522e-06
-4.77689e-06
1.12747e-06
9.84902e-06
-7.24322e-06
-3.44077e-07
-3.21384e-06
1.05574e-05
6.31306e-06
-1.96905e-06
-8.46847e-06
2.81927e-06
-5.527e-06
6.83218e-06
2.5211e-06
-1.23387e-05
-1.94383e-06
5.93843e-07
-2.398e-06
1.35655e-05
-1.94389e-05
1.97068e-06
-6.78873e-07
-2.00878e-06
2.01776e-05
-2.18061e-08
1.09033e-06
5.60027e-06
-1.08467e-05
-5.66898e-06
2.44094e-06
7.38414e-06
1.23852e-05
1.74758e-05
9.51872e-05
1.79431e-07
3.13328e-07
4.08894e-07
1.18894e-06
-6.59831e-06
-2.67337e-06
-3.61446e-06
-1.79913e-06
2.52732e-06
7.499e-06
6.8073e-05
1.28158e-06
8.54687e-07
2.63288e-07
2.6759e-07
1.27081e-06
-2.77309e-07
6.8797e-05
1.39308e-06
2.19001e-06
2.55827e-06
2.98852e-06
2.13058e-06
3.69922e-06
2.49344e-06
-2.45344e-05
1.0445e-07
1.20629e-06
2.44006e-05
-7.72592e-07
-5.67882e-07
1.78278e-06
-4.4442e-07
-3.8365e-06
-1.83146e-05
-3.13367e-06
4.44684e-06
-1.80907e-06
2.2647e-05
1.48529e-05
3.79597e-06
0.000113996
-3.52663e-06
-3.83837e-06
-5.3746e-06
-5.06957e-06
9.34116e-06
-2.1237e-06
0.000126164
9.7463e-07
2.24112e-06
8.14885e-05
5.52226e-07
-3.53616e-06
-9.70324e-07
-3.29609e-07
-3.41693e-06
-3.97907e-06
-9.50427e-06
2.85344e-08
2.82086e-06
-1.70536e-06
9.33487e-06
1.35852e-06
-9.33264e-07
1.32885e-06
-1.29539e-06
-4.96993e-06
4.51121e-06
1.11624e-05
-7.80433e-07
3.46952e-05
-3.3039e-06
-1.10367e-06
-2.3101e-06
-1.73335e-06
-9.27698e-07
-1.11625e-06
-7.09763e-07
2.99225e-06
-2.55232e-06
7.98545e-05
3.02899e-06
4.32855e-06
3.50585e-06
-3.10109e-06
-2.4363e-06
-3.45742e-06
-1.67493e-05
4.23298e-06
7.90307e-07
1.69594e-05
-6.28053e-06
2.62265e-06
-4.07097e-06
7.72885e-06
2.38484e-06
-5.93203e-07
2.32303e-06
-4.83558e-06
-7.71158e-06
-3.70913e-06
6.5893e-06
-1.33028e-06
3.60938e-06
-3.4979e-06
2.75398e-06
-3.3683e-06
4.11222e-06
-1.19431e-05
-5.14204e-06
4.19756e-06
1.28876e-05
-1.04978e-05
2.11322e-06
-2.34481e-06
1.065e-05
3.28528e-06
-2.04364e-06
-3.99146e-06
2.22545e-06
-9.26565e-07
1.45093e-06
4.37688e-07
-1.2676e-05
-6.93809e-07
5.97606e-07
-5.69977e-07
1.29044e-05
-2.07742e-05
-3.63781e-06
2.11188e-06
7.27161e-07
2.21921e-05
-6.1909e-07
1.32494e-06
-1.48557e-06
-6.95698e-06
4.80507e-07
-1.91623e-06
8.55333e-06
1.3802e-05
-5.86376e-06
0.000109633
1.45544e-06
8.40401e-07
-6.08809e-07
-9.92325e-07
-1.38609e-06
-5.87937e-06
-6.83129e-06
-8.98152e-06
4.01906e-06
-8.15241e-06
8.78743e-05
4.54162e-07
-1.46954e-06
6.62713e-07
-1.51324e-06
2.30315e-06
-1.47359e-05
7.8249e-05
2.832e-07
2.48743e-06
-2.15019e-07
2.58094e-06
-8.1983e-07
2.2056e-06
4.77611e-07
-2.94833e-05
2.13224e-06
-2.72074e-06
3.23749e-05
8.41876e-07
-1.56519e-07
2.43557e-07
-9.28908e-07
-3.35665e-06
-2.49771e-05
4.75303e-06
4.42155e-06
-5.51223e-06
2.46714e-05
1.61862e-05
8.90907e-07
0.000110037
-5.92105e-06
-4.87158e-06
-4.51381e-06
-3.67496e-06
1.42442e-05
-4.69967e-06
0.000124653
-1.23631e-06
-4.97834e-06
8.7892e-05
2.71981e-06
2.82454e-06
5.1771e-06
-4.71271e-06
-3.06563e-06
-3.62359e-06
-5.92538e-06
3.23062e-06
-2.55821e-07
-6.03011e-06
7.74438e-06
7.92568e-06
-1.36733e-06
-8.21549e-07
5.19687e-07
-8.49995e-06
2.24346e-06
1.09034e-05
1.29644e-06
1.37658e-05
1.47589e-06
-4.00471e-07
1.1663e-06
-1.81256e-07
2.93047e-06
1.7283e-06
2.90132e-06
5.00864e-06
2.21669e-06
6.07053e-05
4.30306e-06
6.46392e-06
4.90367e-06
-1.4099e-06
2.86619e-06
1.00064e-06
-1.65571e-05
5.06419e-06
-4.07425e-06
1.55975e-05
-7.85967e-06
5.56345e-06
-5.86853e-06
8.16476e-06
7.58123e-06
-1.0623e-06
2.90517e-06
-8.1269e-06
-9.09877e-07
-2.66245e-06
4.19133e-06
-8.94127e-07
2.49182e-06
-5.16489e-06
3.42951e-06
-3.67688e-06
5.41226e-06
-1.32174e-05
-4.43684e-06
4.3914e-06
1.32629e-05
-7.58278e-06
5.93017e-06
-2.24397e-06
3.89658e-06
8.46412e-07
-5.65759e-06
-1.79339e-06
3.83308e-06
-1.78345e-06
4.55493e-06
-5.5081e-08
-1.36586e-05
-1.50971e-06
9.7397e-07
-4.22749e-07
1.46721e-05
-2.35676e-05
-3.5934e-06
-4.33861e-07
1.90665e-06
2.50732e-05
6.15037e-07
1.70006e-06
-2.92825e-06
-7.3262e-06
4.29417e-06
-2.41307e-06
6.67329e-06
1.69336e-05
-1.00007e-05
0.00010964
2.19213e-06
1.53927e-06
4.4149e-06
4.44746e-06
-5.18931e-06
-6.40709e-06
-3.8975e-06
-4.04054e-06
6.55165e-06
-7.62328e-06
0.000105008
7.65458e-07
-1.54639e-06
2.12635e-06
-4.73999e-07
2.59868e-06
-1.31657e-05
9.15386e-05
-9.95662e-07
3.28411e-06
-1.06823e-06
1.97325e-06
-4.07894e-07
1.59076e-06
-5.47355e-07
-3.26355e-05
-5.95505e-07
8.12465e-06
-6.79438e-06
3.44995e-05
-1.73313e-07
-5.51868e-08
-8.40872e-08
3.12636e-07
3.02739e-07
-7.93891e-08
-9.43916e-07
7.20566e-07
-1.64576e-06
-2.1909e-05
3.7172e-06
3.63376e-06
-5.77619e-07
1.67815e-05
1.51331e-05
1.12592e-06
9.01376e-05
-3.57496e-06
-1.78431e-06
-1.96221e-06
9.60743e-07
1.47847e-05
1.04777e-06
0.00011633
1.12931e-06
-2.1648e-06
8.79772e-05
4.35529e-06
9.85887e-07
3.29114e-06
-2.87777e-06
-5.58766e-07
-2.62653e-06
-1.12057e-05
3.78962e-06
1.222e-06
-4.74104e-06
1.20645e-05
2.08424e-08
-3.63356e-07
-1.32442e-09
-1.12847e-07
4.56192e-07
7.23277e-06
-1.39187e-06
1.32719e-06
1.75106e-06
-6.74189e-06
-2.17726e-06
9.64292e-06
1.32594e-06
5.0095e-06
-1.31365e-06
-1.50206e-06
-1.00556e-06
-1.57185e-06
1.3195e-06
1.39061e-06
1.59637e-06
5.0916e-06
3.20359e-06
4.44698e-05
3.79944e-06
4.58078e-06
3.35559e-06
2.68819e-06
1.78022e-06
2.42681e-06
-1.55159e-05
5.49641e-06
-5.16517e-07
1.34628e-05
-1.00196e-05
6.38657e-06
-6.57845e-06
1.02115e-05
7.68414e-06
-1.05649e-06
1.50245e-06
-6.80442e-06
-4.03455e-06
-1.01987e-06
1.05264e-06
1.17625e-06
6.02912e-06
-5.88843e-06
1.52488e-06
-2.29502e-06
6.65857e-06
-1.29414e-05
-3.63405e-06
4.51479e-06
1.20607e-05
-2.32012e-06
1.0168e-06
-8.76738e-07
2.18005e-06
5.38277e-07
-2.38849e-06
-7.73359e-06
2.49551e-06
-2.88825e-06
9.97654e-06
-1.21615e-06
-1.59998e-05
-2.14869e-06
3.11357e-06
-8.71439e-07
1.71225e-05
-2.65466e-05
-3.63161e-06
-5.69871e-07
3.86893e-06
2.81095e-05
-1.23042e-06
2.58357e-06
-2.35736e-06
-6.38727e-06
2.98768e-06
-3.62571e-06
6.79909e-06
1.31967e-05
-1.24982e-05
0.000100073
4.64422e-06
4.69183e-06
4.64527e-06
5.08759e-06
-2.68888e-06
-3.27321e-06
-2.08264e-06
-2.15577e-06
6.12558e-06
-6.56179e-06
0.0001167
1.32943e-06
-1.29778e-06
2.15882e-06
-2.49442e-07
1.2803e-06
-9.13527e-06
0.000108375
-3.16792e-06
2.45006e-06
-3.08831e-06
1.96387e-06
-1.24845e-06
1.55364e-06
-1.31903e-06
-4.26057e-05
1.033e-05
5.94865e-06
-3.43945e-06
3.10468e-05
-3.61997e-06
3.75051e-06
-1.2063e-06
-1.5145e-06
-3.81318e-06
6.40346e-06
-7.26945e-07
3.94563e-07
7.4156e-07
-4.09178e-07
-1.49963e-06
-1.20541e-05
2.62374e-06
1.72297e-06
1.69004e-07
9.03801e-06
1.23796e-05
1.79542e-06
6.18372e-05
-1.67187e-06
1.65596e-06
7.28259e-08
1.57015e-06
1.40865e-05
3.11299e-06
0.000104949
6.98076e-07
-9.10079e-08
9.07468e-05
2.48182e-06
5.77696e-07
1.80621e-06
-1.68888e-06
8.59168e-08
-1.68823e-06
-1.38499e-05
4.37222e-06
-1.32915e-06
-3.8708e-06
1.53758e-05
-4.98629e-07
3.73361e-06
2.37447e-06
-3.49578e-06
-3.54823e-06
1.43456e-06
6.05912e-06
-4.25093e-07
3.51148e-07
2.17999e-06
-5.72179e-06
-2.44337e-06
4.25022e-06
1.02258e-06
1.56064e-06
-5.36863e-07
-9.04698e-07
-1.07298e-06
-5.75708e-07
1.1141e-06
6.36466e-07
1.31117e-06
2.44437e-06
1.22647e-06
3.65078e-05
2.13232e-06
1.62398e-06
1.81556e-06
2.22687e-06
1.72256e-06
2.13302e-06
-1.25425e-05
2.61654e-06
8.90534e-07
1.13888e-05
-9.72492e-06
7.09703e-07
-4.0938e-06
1.5381e-06
1.15709e-05
1.09692e-06
7.68566e-07
-1.59138e-06
-2.74104e-07
4.87397e-06
2.31533e-07
-1.69634e-06
-2.38654e-06
-6.86235e-06
1.35008e-06
-3.13549e-07
-4.17826e-07
7.47011e-06
-7.55901e-06
8.86844e-07
-1.67907e-06
8.35123e-06
-1.0787e-05
-2.7909e-06
3.87266e-06
9.70522e-06
-2.71443e-06
-4.76545e-07
-6.38111e-09
3.19736e-06
1.59201e-06
-1.26221e-06
-1.17687e-05
1.77704e-06
-3.33519e-06
1.29971e-05
-7.26965e-07
-1.80661e-05
-2.08074e-06
3.68078e-06
-1.57941e-06
1.87724e-05
-3.04655e-05
-3.78842e-06
1.46097e-07
4.48252e-06
3.29766e-05
-3.35133e-06
2.41458e-06
-1.64673e-06
-7.42542e-06
2.153e-06
-3.64081e-06
8.14539e-06
1.28115e-05
-9.60347e-06
8.66483e-05
4.16975e-06
4.31583e-06
4.11113e-06
4.54115e-06
-1.89311e-06
-2.09805e-06
-1.57549e-06
-1.35411e-06
7.57256e-06
-4.57211e-06
0.000123298
1.52932e-06
-7.75158e-07
2.25831e-06
2.01055e-07
1.47957e-06
-3.61769e-06
0.000127171
-4.78552e-06
8.12356e-07
-4.07192e-06
5.69101e-07
-1.77299e-06
1.82006e-06
-1.65609e-06
-3.20176e-05
8.27604e-07
1.68942e-06
-2.69987e-06
3.36801e-05
-7.5928e-06
1.43167e-06
8.25796e-08
4.15761e-07
-2.49349e-06
8.15627e-06
1.1834e-06
7.92127e-07
-8.09888e-07
-1.16563e-06
1.5104e-06
-7.2633e-06
3.42965e-06
-2.04009e-06
-1.95292e-06
6.31626e-06
1.3445e-05
2.02251e-07
3.77279e-05
6.99001e-07
-9.40915e-07
1.29888e-06
-1.98377e-07
1.58888e-05
5.96083e-06
9.19718e-05
3.80045e-07
-3.07739e-07
0.000101439
1.34706e-06
3.96336e-07
1.30915e-06
-9.28283e-07
-2.56698e-07
-3.61195e-07
-1.66164e-05
2.91086e-06
-1.01365e-06
-2.05094e-06
1.71502e-05
-1.6351e-06
3.76591e-06
1.42438e-06
-5.15076e-07
-3.78704e-06
7.4692e-07
6.0375e-06
-2.80349e-08
6.82413e-07
-1.34862e-06
-6.21e-06
8.66742e-07
-1.82001e-06
-8.9261e-07
2.31858e-06
-7.77353e-07
1.2175e-06
6.26184e-07
2.47195e-06
-3.22896e-07
-6.4175e-07
-4.16707e-07
-1.77385e-07
1.94013e-06
3.27298e-05
1.01586e-06
-4.8258e-07
1.04268e-06
1.77591e-06
1.81862e-06
9.85661e-07
-1.14154e-05
-8.48468e-08
-1.61123e-07
1.11762e-05
-1.23798e-05
1.15538e-06
-3.90247e-08
-9.41686e-07
1.22051e-05
1.61339e-06
1.75996e-06
2.13827e-06
-2.91931e-06
-2.59231e-06
8.52269e-07
3.14975e-06
-4.15068e-06
-7.43955e-07
-8.18311e-06
2.43055e-06
-9.88717e-07
1.15957e-06
7.52185e-06
-8.85969e-06
1.36768e-06
-1.40693e-06
8.89895e-06
-8.89313e-06
-1.64477e-06
2.29505e-06
8.24285e-06
-3.49654e-06
-1.28024e-06
8.87868e-07
3.88891e-06
2.36001e-06
-4.66416e-07
-1.39374e-05
1.04801e-06
-3.56773e-06
1.45635e-05
4.26038e-09
-1.93812e-05
-1.7668e-06
3.16072e-06
-1.84972e-06
1.98327e-05
-3.55532e-05
-3.36139e-06
5.65905e-07
4.07575e-06
3.76061e-05
-3.33312e-06
1.42675e-06
7.39437e-08
-8.59018e-06
1.39222e-06
-3.0488e-06
8.74606e-06
1.19378e-05
-8.15195e-06
7.29417e-05
3.39224e-06
3.24918e-06
3.40846e-06
3.29209e-06
-1.24094e-06
-1.27265e-06
-8.16364e-07
-9.11934e-08
7.90033e-06
-2.53044e-06
0.000126685
1.48587e-06
-5.66653e-07
2.09847e-06
1.62274e-07
1.39592e-06
-1.11989e-06
0.000150708
-4.6378e-06
4.68873e-07
-3.80299e-06
-1.41452e-06
-2.10628e-06
-1.8273e-06
-2.59299e-06
-4.77021e-05
4.42707e-06
3.87837e-06
-2.24899e-06
4.30416e-05
-1.27928e-05
-4.11139e-06
3.80792e-06
6.65349e-06
6.44278e-06
7.49076e-07
-3.00376e-07
-1.8452e-07
-2.6418e-07
1.52146e-06
-6.01068e-06
4.0356e-06
-2.01643e-06
-3.64455e-06
6.1146e-06
1.28099e-05
-4.14369e-06
2.03703e-05
3.18192e-07
-1.42638e-07
3.43142e-07
2.07653e-08
1.42312e-05
7.07099e-06
8.09491e-05
-4.42683e-07
-9.23121e-07
0.000117364
6.81704e-07
-8.60854e-07
-8.20633e-07
2.55524e-07
-4.67362e-07
-2.36495e-07
-1.74887e-05
2.81143e-06
-9.59712e-07
-1.22092e-06
1.64152e-05
1.3907e-06
-4.95328e-06
-9.16021e-07
1.75652e-06
3.64079e-06
-9.18714e-07
5.60952e-06
9.53038e-07
-1.24045e-06
-4.15681e-06
-5.13477e-06
3.96948e-06
-4.75885e-06
-5.24451e-07
-4.04491e-06
1.44098e-06
3.3253e-06
9.98749e-07
3.53315e-06
-5.46843e-07
-6.729e-07
-5.75327e-07
-1.11607e-06
2.46425e-06
2.75053e-05
5.76679e-07
-1.01805e-06
-7.67333e-08
1.40095e-06
3.00803e-06
2.29755e-06
-1.25519e-05
-1.45233e-06
-1.69501e-06
1.366e-05
-1.01963e-05
-1.89032e-06
1.48543e-06
1.06012e-05
2.9703e-07
3.99376e-06
-5.12971e-06
3.14471e-07
-5.94028e-06
3.50577e-06
-2.43177e-06
2.83364e-06
4.49689e-06
-8.48027e-06
1.91794e-06
-9.71769e-07
7.5341e-06
-7.76268e-06
-1.49603e-06
1.70012e-06
7.55859e-06
-4.42896e-06
-1.12128e-06
8.18139e-07
4.7321e-06
2.96635e-06
-6.07228e-07
-1.50755e-05
9.42699e-07
-3.76018e-06
1.55338e-05
2.29495e-07
-2.04614e-05
-1.42232e-06
1.84145e-06
-1.3148e-06
2.11276e-05
-3.86961e-05
-3.42733e-06
1.72552e-06
3.97051e-06
3.83887e-05
-1.96132e-06
9.92014e-07
1.23352e-06
-8.67205e-06
6.98546e-07
-2.338e-06
8.08596e-06
1.13664e-05
-5.86654e-06
5.82337e-05
2.93981e-06
2.10481e-06
3.07236e-06
2.56584e-06
-8.24786e-07
-4.34204e-08
-8.84858e-07
2.78366e-07
7.7787e-06
-7.45637e-07
0.000130527
9.83983e-07
-1.17972e-06
1.16101e-06
-4.73734e-07
-2.88659e-06
4.63177e-07
0.000178935
-4.05062e-06
-1.52361e-06
-2.52948e-06
-9.29415e-07
-4.27009e-06
-9.07089e-07
-3.81435e-06
-4.34008e-05
-4.49229e-06
-3.04817e-07
4.53113e-05
1.59089e-08
-1.64897e-06
1.53939e-06
9.36683e-08
1.92337e-07
-6.95831e-06
3.26513e-06
-1.0763e-06
-3.03059e-06
7.60773e-06
7.22582e-06
-7.69547e-06
1.54214e-05
3.85484e-07
-1.42777e-07
2.73002e-07
-9.63645e-07
8.42419e-06
7.24915e-06
7.1756e-05
-2.66392e-06
-2.66358e-07
0.0001329
-1.9376e-06
-2.08173e-06
-9.9901e-07
8.23822e-08
9.20958e-07
2.97519e-07
-2.22329e-05
7.5944e-07
-4.4648e-06
3.70804e-07
2.29035e-05
4.36004e-06
-1.69274e-06
9.93346e-07
-4.05047e-06
-2.74957e-06
3.1394e-06
-5.70406e-06
-9.66576e-07
-6.53575e-06
4.76978e-09
2.76608e-06
-6.85484e-07
2.47717e-06
-9.30074e-07
-1.13482e-06
-1.03164e-06
-1.87984e-06
3.46762e-06
2.30904e-05
-1.46258e-06
-1.35078e-06
-2.23272e-06
2.982e-06
3.37697e-06
3.05933e-06
-1.54006e-05
-1.71985e-06
-8.33398e-07
1.58077e-05
-9.99079e-06
7.59905e-07
1.41351e-06
7.81738e-06
-9.72738e-07
4.03925e-06
-5.65933e-06
1.62624e-06
-3.86186e-06
4.4732e-06
-4.62504e-06
3.68566e-06
3.79566e-06
-6.21923e-06
3.54715e-07
1.03906e-06
4.82545e-06
-7.55399e-06
-1.25826e-06
1.11483e-06
7.69742e-06
-4.56166e-06
-6.35968e-07
1.18286e-06
4.01477e-06
3.16665e-06
-1.71183e-06
-1.6026e-05
1.78325e-06
-3.87241e-06
1.66603e-05
5.19471e-07
-2.19591e-05
-1.1921e-06
3.35864e-07
-8.24492e-07
2.31203e-05
-3.70446e-05
-1.83243e-06
7.48694e-07
2.69619e-06
3.50289e-05
4.03222e-07
-8.78982e-07
2.61056e-06
-6.88257e-06
-2.81139e-07
5.63435e-07
4.8687e-06
1.08678e-05
-1.99413e-06
4.76625e-05
2.49853e-06
1.99963e-06
1.99344e-06
2.20921e-06
-2.17727e-06
-6.98056e-07
-3.15107e-06
-9.76869e-07
6.25528e-06
1.16521e-06
0.000136393
4.29502e-09
-1.87472e-06
5.34321e-07
-1.08241e-06
2.82237e-07
2.19033e-06
0.000191295
-2.50947e-06
-9.75923e-07
-7.64998e-07
-9.08185e-07
-2.41481e-06
6.31252e-07
-1.6346e-06
-4.64409e-05
-1.85234e-06
8.24773e-07
4.77507e-05
-3.07379e-07
-2.35223e-06
2.33987e-06
3.19735e-07
-1.12998e-06
-7.85309e-06
-3.49932e-07
3.87771e-07
1.05122e-06
7.89401e-06
2.96132e-07
-5.38808e-06
2.1047e-05
3.10005e-07
-9.94829e-07
-1.88238e-07
-1.65479e-06
3.72273e-06
6.80444e-06
6.26901e-05
-5.31782e-07
6.35046e-07
0.000136198
-2.77883e-07
3.07574e-07
9.24949e-08
3.63165e-07
1.65706e-06
3.6936e-07
-2.17104e-05
2.61452e-07
-4.53852e-07
-1.31222e-07
2.15023e-05
4.84796e-07
-3.56282e-06
2.88808e-06
4.34783e-08
1.29171e-06
-1.14525e-06
-3.56172e-06
-9.54455e-07
-2.58241e-06
-1.57384e-06
1.29626e-06
-2.22814e-06
8.30364e-07
-8.17905e-07
-1.41471e-06
-9.17278e-07
-1.7723e-06
3.18102e-06
2.22225e-05
-2.62024e-06
-1.15313e-06
-2.51199e-06
3.06437e-06
2.94089e-06
2.98203e-06
-1.68257e-05
-1.41964e-06
8.26416e-07
1.62817e-05
-7.00082e-06
-3.45372e-07
9.56386e-07
6.3898e-06
-2.32035e-06
3.43814e-06
-5.28146e-06
3.20921e-06
-4.21083e-06
4.65507e-06
-5.81179e-06
3.58894e-06
4.95963e-06
-3.81508e-06
-2.5988e-06
3.12473e-06
3.28915e-06
-7.88354e-06
2.29066e-07
-3.386e-07
7.99307e-06
-3.36887e-06
3.54556e-07
4.85981e-07
2.52834e-06
1.02525e-06
-1.79841e-06
-1.76387e-05
1.15594e-06
-1.79966e-06
1.90555e-05
1.17762e-06
-2.46301e-05
-4.7355e-07
-7.95337e-07
-1.5207e-06
2.6242e-05
-3.30179e-05
3.46386e-07
-2.43653e-06
1.23911e-06
3.15746e-05
2.29428e-06
-8.88138e-07
7.58633e-07
-2.06414e-06
8.55325e-07
1.80347e-06
-4.65145e-07
8.27008e-06
1.55474e-06
4.36795e-05
1.20263e-06
1.63018e-06
3.96429e-07
1.60811e-06
-3.00865e-06
-2.85668e-06
-1.92358e-06
-2.8903e-06
-1.23396e-06
2.8274e-06
0.00014583
-7.92725e-08
-2.2791e-06
7.96213e-07
-1.19814e-06
-1.32781e-07
3.81289e-06
0.000196899
-1.71276e-06
-1.91155e-06
-6.69144e-07
-2.07787e-06
-2.20477e-06
-1.95176e-07
-1.74774e-06
-4.8511e-05
-1.86523e-06
2.48503e-06
4.77585e-05
-1.9127e-07
-2.15031e-06
2.30635e-06
3.52296e-08
-6.9345e-07
-7.40247e-06
-3.2505e-06
1.14623e-06
3.69711e-06
6.50308e-06
-2.42641e-06
8.71364e-07
2.89931e-05
-9.79022e-07
-1.30517e-06
-1.29729e-06
-1.25478e-06
6.4174e-07
6.5175e-06
5.59319e-05
9.30106e-07
1.26736e-06
0.000131177
5.82446e-07
1.51912e-06
9.46941e-07
7.29886e-07
2.38393e-06
1.11591e-06
-2.21142e-05
-1.55458e-06
8.18419e-07
3.65663e-07
2.34148e-05
-2.42298e-06
-3.70897e-06
3.18835e-06
2.78784e-06
3.27242e-06
-3.11666e-06
2.23141e-07
-7.97199e-07
7.67105e-06
-2.50762e-06
-4.48049e-07
-2.94608e-06
-1.1863e-06
-3.22456e-07
-1.09385e-06
-3.03678e-07
-1.42508e-06
2.37503e-06
2.56246e-05
-2.03249e-06
-9.85037e-07
-1.72036e-06
2.58646e-06
2.21672e-06
2.32322e-06
-1.63386e-05
-8.94702e-07
2.03915e-06
1.50364e-05
-6.0527e-06
-4.4499e-07
5.34289e-07
5.9634e-06
-3.79817e-06
2.56673e-06
-4.18499e-06
4.61923e-06
-5.98019e-06
3.59144e-06
-4.86971e-06
2.60087e-06
7.03262e-06
-3.12397e-06
-3.32364e-06
3.1208e-06
3.32681e-06
-7.97301e-06
1.30767e-06
-1.34147e-06
8.00681e-06
-1.65541e-06
-5.36057e-07
1.36789e-06
8.2358e-07
-1.38517e-06
-3.97694e-07
-2.05572e-05
-1.37348e-07
4.50337e-07
2.20271e-05
2.21019e-06
-2.761e-05
2.20076e-08
-6.2113e-07
-2.80798e-06
2.88069e-05
-3.04708e-05
9.98914e-07
-2.50733e-06
5.3997e-07
2.97392e-05
1.70007e-06
-1.34939e-06
1.15397e-06
2.33819e-06
-5.31689e-07
2.01028e-06
-3.62136e-06
4.73042e-06
1.16555e-06
4.07871e-05
7.67885e-08
1.29227e-06
-4.2617e-07
1.4828e-06
-1.137e-06
-2.53078e-06
-4.23257e-07
-1.33825e-06
-9.94792e-06
2.55295e-06
0.000156451
9.49087e-07
-1.6556e-06
2.12644e-06
8.45646e-08
-2.05453e-06
2.05013e-06
0.000199678
-1.56003e-06
-1.75271e-06
-4.57354e-07
-8.03617e-07
-2.4199e-06
-4.04673e-06
-1.68195e-06
-4.6287e-05
-2.0322e-06
3.44155e-06
4.28231e-05
6.77408e-08
-2.02696e-06
2.03285e-06
-7.36323e-08
-2.42382e-07
-5.17261e-06
-3.51656e-06
8.91785e-07
4.26376e-06
3.776e-06
-2.3644e-07
4.29327e-06
3.2283e-05
-1.73817e-06
-1.56767e-06
-1.43492e-06
-1.44049e-06
7.03899e-07
5.93914e-06
5.16054e-05
1.96804e-06
2.01938e-06
0.000118226
1.65067e-06
2.33887e-06
1.94682e-06
1.37494e-06
2.67608e-06
1.73011e-06
-2.49427e-05
-1.6176e-06
1.87207e-06
1.62352e-07
2.64939e-05
-4.07905e-06
-3.37733e-06
2.85118e-06
3.41061e-06
5.00658e-06
-3.81199e-06
4.94979e-06
-5.71553e-07
1.79609e-05
-2.92606e-06
-1.82994e-06
-2.94294e-06
-2.19473e-06
1.31331e-07
-7.80351e-07
1.6785e-07
-5.31382e-07
1.63428e-06
3.11741e-05
-9.38374e-07
4.163e-07
-5.89357e-07
1.8815e-06
1.6162e-06
1.85035e-06
-1.45134e-05
-3.50055e-07
2.87664e-06
1.34748e-05
-6.07318e-06
-6.94524e-07
4.80643e-07
6.28706e-06
-5.08916e-06
1.88126e-06
-3.15256e-06
5.78891e-06
-8.06784e-06
2.4529e-06
-3.40617e-06
1.82626e-06
8.82913e-06
-3.74182e-06
-2.95028e-06
2.32327e-06
4.36883e-06
-8.0551e-06
1.73563e-06
-1.71791e-06
8.03738e-06
-1.40904e-07
-2.81727e-06
3.39414e-06
-4.35968e-07
-2.56658e-06
1.27092e-06
-2.28708e-05
-9.13268e-07
1.85666e-06
2.32231e-05
2.44996e-06
-2.96131e-05
9.05377e-07
-7.14292e-07
-3.32713e-06
3.02992e-05
-2.9603e-05
1.23142e-06
-2.57544e-06
-1.56467e-07
2.9938e-05
1.16554e-06
-2.71269e-06
1.9713e-06
4.49783e-06
-1.62981e-06
2.87635e-06
-5.00299e-06
7.6546e-07
-2.22557e-06
3.99785e-05
-1.0656e-07
1.58438e-06
-4.96561e-07
2.18585e-06
1.86881e-07
-8.62208e-07
4.48864e-07
-6.71953e-07
-1.30327e-05
-5.78084e-07
0.000160542
2.59263e-06
8.09567e-07
4.1224e-06
2.76012e-06
-4.90185e-06
-3.37376e-06
0.000201826
-7.34149e-07
9.74214e-08
5.92166e-07
6.35785e-07
-1.63678e-06
-4.38471e-06
-1.4742e-06
-3.8455e-05
1.36357e-07
-7.68485e-07
3.41852e-05
5.70225e-09
-2.05169e-06
1.9305e-06
1.15492e-07
-1.51696e-07
-2.35433e-06
-2.97158e-06
4.23408e-07
3.82298e-06
1.23121e-06
4.14885e-06
4.18325e-06
2.80745e-05
-1.60714e-06
-1.93892e-06
-1.07739e-06
-1.72566e-06
3.85041e-06
4.02123e-06
4.73045e-05
2.53754e-06
1.01447e-06
0.000103895
2.33478e-06
2.91383e-06
2.54234e-06
1.09874e-06
1.24305e-06
1.12254e-06
-2.73066e-05
1.53143e-06
2.39496e-06
-1.26966e-06
2.71874e-05
-5.79747e-06
-3.22808e-06
2.65088e-06
3.20659e-06
6.57145e-06
-3.40337e-06
8.85336e-06
-5.65819e-07
2.51101e-05
-3.03137e-06
-2.5102e-06
-2.87575e-06
-2.61754e-06
2.35387e-07
-6.53886e-07
1.99868e-07
1.15473e-06
1.07381e-06
3.54664e-05
9.6345e-08
1.93049e-06
4.33216e-07
1.43119e-06
1.05608e-06
1.40641e-06
-1.34301e-05
8.28721e-07
2.29701e-06
1.24736e-05
-6.58378e-06
-6.83439e-07
3.90332e-07
6.87689e-06
-6.19263e-06
1.05677e-06
-2.18676e-06
6.75681e-06
-9.77835e-06
1.70119e-06
-2.67684e-06
1.40186e-06
1.0426e-05
-4.9585e-06
-2.51163e-06
1.98666e-06
5.48347e-06
-7.89968e-06
2.05677e-06
-1.88355e-06
7.72647e-06
9.05165e-07
-5.20939e-06
5.53702e-06
-1.2328e-06
-3.11944e-06
2.93472e-06
-2.3067e-05
-2.79498e-06
3.05088e-06
2.29958e-05
2.71115e-06
-3.09584e-05
2.54152e-06
-1.33844e-06
-4.25784e-06
3.1302e-05
-3.06467e-05
1.35249e-06
-2.3409e-06
-8.66205e-07
3.15343e-05
9.67071e-07
-4.06762e-06
2.52002e-06
5.06873e-06
-2.21874e-06
3.39457e-06
-4.69695e-06
-2.53543e-06
-2.82646e-06
4.03681e-05
-7.51069e-07
1.85506e-06
-1.6008e-06
2.74625e-06
1.10068e-06
1.04289e-07
1.33956e-06
1.78326e-07
-1.09648e-05
-5.85789e-06
0.000157506
4.20721e-06
2.94047e-06
5.5474e-06
4.62883e-06
-3.09485e-06
-5.92996e-06
0.00020095
2.19638e-07
1.09893e-06
1.27388e-06
1.23048e-06
-1.28235e-06
-2.45825e-06
-1.14631e-06
-3.09351e-05
2.77579e-06
-4.18415e-06
2.92486e-05
-3.12512e-07
-1.92973e-06
1.70953e-06
5.32716e-07
1.79581e-07
-4.62531e-07
-2.54064e-06
-5.72543e-07
3.18054e-06
2.15591e-07
8.45656e-06
5.57851e-07
1.99509e-05
-4.0648e-07
-1.79434e-06
-1.61802e-07
-1.35465e-06
8.01105e-06
-1.93347e-06
4.38256e-05
2.97314e-06
-2.75305e-07
9.35305e-05
2.68838e-06
3.22848e-06
2.93309e-06
5.58204e-07
-1.6502e-07
5.04704e-07
-2.65087e-05
3.57975e-06
2.61298e-06
-2.27185e-06
2.55609e-05
-7.29403e-06
-3.24956e-06
2.50018e-06
2.98016e-06
8.13373e-06
-3.07047e-06
1.08651e-05
-8.77944e-07
2.81144e-05
-2.95092e-06
-2.72137e-06
-2.63311e-06
-2.76635e-06
-1.37138e-07
-1.01373e-06
-2.10928e-07
2.15628e-06
4.05511e-07
3.54233e-05
7.35763e-07
2.6892e-06
8.73065e-07
8.75714e-07
3.84319e-07
8.54805e-07
-1.24874e-05
1.53215e-06
1.14445e-06
1.16918e-05
-7.11154e-06
-5.4698e-07
1.74383e-07
7.48414e-06
-7.23146e-06
3.70475e-07
-1.66071e-06
7.64375e-06
-1.1163e-05
1.41363e-06
-2.33528e-06
1.04984e-06
1.14403e-05
-5.94449e-06
-2.10135e-06
1.80989e-06
6.23595e-06
-7.67251e-06
2.51587e-06
-2.60456e-06
7.7612e-06
1.34885e-06
-6.7919e-06
6.64985e-06
-1.2068e-06
-3.58813e-06
4.42651e-06
-2.25784e-05
-4.54323e-06
4.34059e-06
2.19426e-05
3.52158e-06
-3.12731e-05
3.65781e-06
-1.8179e-06
-4.7773e-06
3.06889e-05
-3.24522e-05
1.23093e-06
-1.89295e-06
-1.16845e-06
3.32466e-05
1.036e-06
-4.75587e-06
2.54256e-06
3.97565e-06
-2.72142e-06
3.77212e-06
-2.81304e-06
-3.64982e-06
2.8908e-06
3.92927e-05
-3.23312e-06
9.57597e-07
-4.15756e-06
1.39225e-06
2.07192e-06
1.33179e-06
2.15977e-06
1.31179e-06
-6.57448e-06
-9.52762e-06
0.000150457
4.70434e-06
3.97219e-06
5.72194e-06
5.10251e-06
-1.26281e-06
-6.34181e-06
0.000198186
6.90998e-07
1.5741e-06
1.7732e-06
1.66754e-06
-6.6722e-07
-8.36581e-07
-4.08309e-07
-2.83015e-05
2.80381e-06
-4.0663e-06
2.83011e-05
-6.90318e-07
-1.8182e-06
1.57225e-06
9.3627e-07
4.98124e-07
-2.86702e-07
-2.60401e-06
-1.11174e-06
2.774e-06
7.30325e-07
1.10052e-05
-3.0114e-06
1.51433e-05
3.07839e-07
-7.79324e-07
4.28263e-07
-2.52163e-07
1.10452e-05
-7.58541e-06
4.18433e-05
3.10999e-06
-1.00705e-06
8.68721e-05
3.0439e-06
3.27855e-06
3.08261e-06
3.68358e-07
-7.99539e-07
2.84925e-07
-2.49973e-05
3.57815e-06
2.53732e-06
-2.71622e-06
2.47081e-05
-9.09439e-06
-3.06009e-06
2.14658e-06
2.72899e-06
1.00421e-05
-2.76318e-06
1.1139e-05
-1.23347e-06
2.7766e-05
-2.49307e-06
-2.67049e-06
-2.20151e-06
-2.78893e-06
-5.91e-07
-1.24552e-06
-5.78055e-07
2.49355e-06
-2.05542e-07
3.14712e-05