/*--------------------------------*- C++ -*----------------------------------*\
| =========                 |                                                 |
| \\      /  F ield         | OpenFOAM: The Open Source CFD Toolbox           |
|  \\    /   O peration     | Version:  5.x                                   |
|   \\  /    A nd           | Web:      www.OpenFOAM.org                      |
|    \\/     M anipulation  |                                                 |
\*---------------------------------------------------------------------------*/
FoamFile
{
    version     2.0;
    format      ascii;
    class       volVectorField;
    location    "1.6";
    object      Us;
}
// * * * * * * * * * * * * * * * * * * * * * * * * * * * * * * * * * * * * * //

dimensions      [0 1 -1 0 0 0 0];

internalField   nonuniform List<vector> 
10571
(
(-0.121458 -0.0120428 0.0515127)
(0.0181052 -0.0201254 0.00909821)
(-0.0659188 0.0145503 0.0757627)
(-0.183819 -0.0885412 0.0472579)
(-0.0527131 -0.0681609 -0.0229974)
(0.0777809 -0.0980477 0.0265171)
(-0.0727748 -0.0525358 0.132177)
(-0.173594 -0.0747041 0.0136794)
(-0.0521869 -0.0312251 -0.0314673)
(0.0627507 -0.00729345 0.0729765)
(0.02017 -0.0395841 -0.0289294)
(0.0720132 -0.0555845 -0.00509997)
(-0.149203 -0.0692621 0.0912581)
(-0.0789557 -0.0618365 -0.0667492)
(-0.023061 -0.0376792 -0.054451)
(0.0682857 -0.00508097 0.0510583)
(0.0189231 0.0547484 0.0391227)
(-0.123811 -0.00412038 -0.0300609)
(-0.0397279 0.0134483 -0.0860806)
(0.0127237 0.0951773 0.0206275)
(-0.00432461 0.0251929 -0.0115696)
(-0.0476158 0.0545483 0.0150337)
(-0.0639702 0.0788052 -0.00606188)
(-0.0511778 0.0698516 0.0259572)
(-0.0655325 0.000262445 0.0502896)
(0.0154118 -0.0426624 0.077756)
(-0.0832052 0.00435237 0.192308)
(-0.124747 0.0292706 0.0416689)
(0.00141342 0.0456379 -0.110534)
(0.0426175 -0.076535 0.0384537)
(-0.0412852 -0.104812 0.245415)
(-0.0371329 -0.00299588 -0.0363157)
(-0.0265611 0.0154577 -0.0778542)
(-0.0496661 -0.0209682 0.057898)
(0.00393033 -0.0205525 -0.0941384)
(0.061264 -0.0746271 -0.0435263)
(0.0140605 -0.109507 -0.0326747)
(0.010936 -0.0459688 -0.101469)
(-0.0622131 -0.0506774 -0.036572)
(-0.0605451 -0.00798075 -0.0270172)
(0.0556711 -0.0282037 -0.163212)
(0.0661917 -0.0779705 -0.124276)
(0.0426852 -0.106307 -0.0711215)
(-0.0222223 -0.0774666 -0.0190574)
(-0.0203022 0.0119525 0.0032829)
(0.102749 -0.0631699 -0.104718)
(0.111672 -0.119044 -0.0103637)
(0.0422066 -0.0344699 -0.0169289)
(0.00954314 0.0101371 -0.290603)
(0.0775751 -0.0999873 0.0116524)
(0.034201 0.00782902 0.0162443)
(0.0624878 0.0419685 -0.214449)
(0.114929 0.0258092 -0.255205)
(0.0577628 -0.031395 0.00994253)
(0.00717657 -0.0956077 0.245198)
(0.113453 0.03507 -0.18219)
(0.114941 0.047608 -0.282534)
(-0.0342235 -0.0233086 -0.542102)
(0.00408304 -0.00524247 -0.139238)
(0.0784769 -0.04152 -0.127747)
(0.0193525 0.0887816 -0.185276)
(0.103303 0.0687447 -0.25052)
(0.0598148 0.0598676 -0.420206)
(-0.0737554 -0.0462526 -0.665676)
(0.0165137 -0.00365954 -0.213123)
(0.0860968 0.0609673 -0.15385)
(0.0957171 0.0896166 -0.19044)
(0.0684427 0.207323 -0.382643)
(0 0 0)
(0.121384 0.0298956 -0.0918552)
(0.084225 -0.0651185 0.0598367)
(0 0 0)
(0.0176315 -0.00144875 -0.264111)
(0.0286816 -0.0228994 -0.205913)
(0.0594574 0.0349855 -0.131193)
(0.105305 -0.0144684 -0.180946)
(0.15797 -0.0538402 -0.254495)
(0.0545279 -0.00706367 -0.180408)
(0.0339689 0.0517552 -0.1015)
(0.115112 0.0518221 -0.170618)
(0.0908382 0.0348107 -0.266749)
(-0.0762092 -0.0334973 -0.418371)
(-0.000236084 -0.00482379 -0.177154)
(0.00678908 0.00568218 -0.223505)
(-0.0018872 0.0876634 -0.204857)
(0.0953599 0.0861727 -0.205432)
(-0.0463622 0.014242 -0.52668)
(-0.0636163 0.0307742 -0.463351)
(0.00333643 0.0309537 -0.230597)
(5.31316e-05 0.105615 -0.242279)
(-0.0448991 -0.0504288 -0.817671)
(0 0 0)
(-0.0119258 -0.0645666 -0.872263)
(0 0 0)
(0 0 0)
(0 0 0)
(0.0374906 -0.0102736 -0.203333)
(-0.00854632 -0.0015327 -0.194431)
(0.00406035 -0.00678845 -0.0994432)
(0.0831269 -0.0474039 -0.149336)
(0 0 0)
(-0.0506316 -0.00643046 -0.184627)
(-0.0350055 0.0508598 -0.133914)
(0.0649114 0.0493457 -0.132356)
(-0.135114 0.0231263 -0.329364)
(-0.0743235 0.0425795 -0.322881)
(-0.00264613 -0.00686488 -0.172915)
(-0.0488128 0.012343 -0.208374)
(-0.0634186 0.0921927 -0.196997)
(0 0 0)
(1.38587e-15 6.50274e-15 9.43307e-14)
(-0.0895727 -0.0122432 -0.28931)
(0.00127089 0.0140055 -0.244509)
(0 0 0)
(-0.0221473 -0.0289101 -0.809027)
(0 0 0)
(0.0511126 -0.0408542 -0.873641)
(0 0 0)
(0 0 0)
(0.00834403 -0.00765017 -0.782942)
(0.0346476 0.0002237 -0.154509)
(-0.0296512 0.00932529 -0.12449)
(-0.0679695 -0.044726 -0.122744)
(0 0 0)
(0 0 0)
(-0.0741472 0.0145204 -0.145838)
(0 0 0)
(0 0 0)
(0 0 0)
(-0.0663064 0.0425852 -0.156326)
(-0.0101003 0.00889537 -0.00688268)
(-0.00150231 -0.0236841 -0.14783)
(0 0 0)
(0 0 0)
(0 0 0)
(-0.253627 -0.0269088 -0.14731)
(-0.105587 -0.0798575 -0.0983073)
(-0.00258271 0.000261254 -0.00150945)
(0 0 0)
(0 0 0)
(0 0 0)
(-0.0146855 -0.0553354 -0.814301)
(0 0 0)
(0 0 0)
(0 0 0)
(0 0 0)
(0 0 0)
(-0.0411384 0.0212108 -0.0610197)
(0 0 0)
(0 0 0)
(0 0 0)
(-0.0415923 0.0230197 -0.0684405)
(0 0 0)
(0 0 0)
(0 0 0)
(0 0 0)
(0 0 0)
(0.00566826 -0.0763342 -0.137632)
(0 0 0)
(0 0 0)
(0 0 0)
(0 0 0)
(0 0 0)
(0 0 0)
(0 0 0)
(0 0 0)
(0 0 0)
(0 0 0)
(0 0 0)
(0 0 0)
(0 0 0)
(0 0 0)
(0 0 0)
(0 0 0)
(-0.0221663 0.0366141 0.00605287)
(0 0 0)
(0 0 0)
(0 0 0)
(0.0789479 -0.085666 0.0324772)
(0 0 0)
(0 0 0)
(0 0 0)
(0 0 0)
(0 0 0)
(0 0 0)
(0 0 0)
(0 0 0)
(0 0 0)
(0 0 0)
(0 0 0)
(0 0 0)
(0 0 0)
(0 0 0)
(0 0 0)
(0 0 0)
(0 0 0)
(0 0 0)
(0 0 0)
(0 0 0)
(0 0 0)
(0 0 0)
(0 0 0)
(0 0 0)
(0 0 0)
(0 0 0)
(0.101098 -0.0610866 0.0779693)
(0 0 0)
(0 0 0)
(0 0 0)
(0 0 0)
(0 0 0)
(0 0 0)
(0 0 0)
(0 0 0)
(0 0 0)
(0 0 0)
(0 0 0)
(0 0 0)
(0 0 0)
(0 0 0)
(0 0 0)
(0 0 0)
(0 0 0)
(0 0 0)
(0 0 0)
(0 0 0)
(0 0 0)
(0 0 0)
(0 0 0)
(0 0 0)
(0 0 0)
(0 0 0)
(0 0 0)
(0 0 0)
(0 0 0)
(0 0 0)
(0 0 0)
(0 0 0)
(0 0 0)
(0 0 0)
(0 0 0)
(0 0 0)
(0 0 0)
(0 0 0)
(0 0 0)
(0 0 0)
(0 0 0)
(0 0 0)
(0 0 0)
(0 0 0)
(0 0 0)
(0 0 0)
(0 0 0)
(0 0 0)
(0 0 0)
(0 0 0)
(0 0 0)
(0 0 0)
(0 0 0)
(0 0 0)
(0 0 0)
(0 0 0)
(0 0 0)
(0 0 0)
(0 0 0)
(0 0 0)
(0 0 0)
(0 0 0)
(0 0 0)
(0 0 0)
(0 0 0)
(0 0 0)
(0 0 0)
(0 0 0)
(0 0 0)
(0 0 0)
(0 0 0)
(0 0 0)
(0 0 0)
(0 0 0)
(0 0 0)
(0 0 0)
(0 0 0)
(0 0 0)
(0 0 0)
(0 0 0)
(0 0 0)
(0 0 0)
(0 0 0)
(0 0 0)
(0 0 0)
(0 0 0)
(0 0 0)
(0 0 0)
(0 0 0)
(0 0 0)
(0 0 0)
(0 0 0)
(0 0 0)
(0 0 0)
(0 0 0)
(0 0 0)
(0 0 0)
(0 0 0)
(0 0 0)
(0 0 0)
(0 0 0)
(0 0 0)
(0 0 0)
(0 0 0)
(0 0 0)
(0 0 0)
(0 0 0)
(0 0 0)
(0 0 0)
(0 0 0)
(0 0 0)
(0 0 0)
(0 0 0)
(0 0 0)
(0 0 0)
(0 0 0)
(0 0 0)
(0 0 0)
(0 0 0)
(0 0 0)
(0 0 0)
(0 0 0)
(0 0 0)
(0 0 0)
(0 0 0)
(0 0 0)
(0 0 0)
(0 0 0)
(0 0 0)
(0 0 0)
(0 0 0)
(0 0 0)
(0 0 0)
(0 0 0)
(0 0 0)
(0 0 0)
(0 0 0)
(0 0 0)
(0 0 0)
(0 0 0)
(0 0 0)
(0 0 0)
(0 0 0)
(0 0 0)
(0 0 0)
(0 0 0)
(0 0 0)
(0 0 0)
(0 0 0)
(0 0 0)
(0 0 0)
(0 0 0)
(0 0 0)
(0 0 0)
(0 0 0)
(0 0 0)
(0 0 0)
(0 0 0)
(0 0 0)
(0 0 0)
(0 0 0)
(0 0 0)
(0 0 0)
(0 0 0)
(0 0 0)
(0 0 0)
(0 0 0)
(0 0 0)
(0 0 0)
(0 0 0)
(0 0 0)
(0 0 0)
(0 0 0)
(0 0 0)
(0 0 0)
(0 0 0)
(0 0 0)
(0 0 0)
(0 0 0)
(0 0 0)
(0 0 0)
(0 0 0)
(0 0 0)
(0 0 0)
(0 0 0)
(0 0 0)
(0 0 0)
(0 0 0)
(0 0 0)
(0 0 0)
(0 0 0)
(0 0 0)
(0 0 0)
(0 0 0)
(0 0 0)
(0 0 0)
(0 0 0)
(0 0 0)
(0 0 0)
(0 0 0)
(0 0 0)
(0 0 0)
(0 0 0)
(0 0 0)
(0 0 0)
(0 0 0)
(0 0 0)
(0 0 0)
(0 0 0)
(0 0 0)
(0 0 0)
(0 0 0)
(0 0 0)
(0 0 0)
(0 0 0)
(0 0 0)
(0 0 0)
(0 0 0)
(0 0 0)
(0 0 0)
(0 0 0)
(0 0 0)
(0 0 0)
(0 0 0)
(0 0 0)
(0 0 0)
(0 0 0)
(0 0 0)
(0 0 0)
(0 0 0)
(0 0 0)
(0 0 0)
(0 0 0)
(0 0 0)
(0 0 0)
(0 0 0)
(0 0 0)
(0 0 0)
(0 0 0)
(0 0 0)
(0 0 0)
(0 0 0)
(0 0 0)
(0 0 0)
(0 0 0)
(0 0 0)
(0 0 0)
(0 0 0)
(0 0 0)
(0 0 0)
(0 0 0)
(0 0 0)
(0 0 0)
(0 0 0)
(0 0 0)
(0 0 0)
(0 0 0)
(0 0 0)
(0 0 0)
(0 0 0)
(0 0 0)
(0 0 0)
(0 0 0)
(0 0 0)
(0 0 0)
(0 0 0)
(0 0 0)
(0 0 0)
(0 0 0)
(0 0 0)
(0 0 0)
(0 0 0)
(0 0 0)
(0 0 0)
(0 0 0)
(0 0 0)
(0 0 0)
(0 0 0)
(0 0 0)
(0 0 0)
(0 0 0)
(0 0 0)
(0 0 0)
(0 0 0)
(0 0 0)
(0 0 0)
(0 0 0)
(0 0 0)
(0 0 0)
(0 0 0)
(0 0 0)
(0 0 0)
(0 0 0)
(0 0 0)
(0 0 0)
(0 0 0)
(0 0 0)
(0 0 0)
(0 0 0)
(0 0 0)
(0 0 0)
(0 0 0)
(0 0 0)
(0 0 0)
(0 0 0)
(0 0 0)
(0 0 0)
(0 0 0)
(0 0 0)
(0 0 0)
(0 0 0)
(0 0 0)
(0 0 0)
(0 0 0)
(0 0 0)
(0 0 0)
(0 0 0)
(0 0 0)
(0 0 0)
(0 0 0)
(0 0 0)
(0 0 0)
(0 0 0)
(0 0 0)
(0 0 0)
(0 0 0)
(0 0 0)
(0 0 0)
(0 0 0)
(0 0 0)
(0 0 0)
(0 0 0)
(0 0 0)
(0 0 0)
(0 0 0)
(0 0 0)
(0 0 0)
(0 0 0)
(0 0 0)
(0 0 0)
(0 0 0)
(0 0 0)
(0 0 0)
(0 0 0)
(0 0 0)
(0 0 0)
(0 0 0)
(0 0 0)
(0 0 0)
(0 0 0)
(0 0 0)
(0 0 0)
(0 0 0)
(0 0 0)
(0 0 0)
(0 0 0)
(0 0 0)
(0 0 0)
(0 0 0)
(0 0 0)
(0 0 0)
(0 0 0)
(0 0 0)
(0 0 0)
(0 0 0)
(0 0 0)
(0 0 0)
(0 0 0)
(0 0 0)
(0 0 0)
(0 0 0)
(0 0 0)
(0 0 0)
(0 0 0)
(0 0 0)
(0 0 0)
(0 0 0)
(0 0 0)
(0 0 0)
(0 0 0)
(0 0 0)
(0 0 0)
(0 0 0)
(0 0 0)
(0 0 0)
(0 0 0)
(0 0 0)
(0 0 0)
(0 0 0)
(0 0 0)
(0 0 0)
(0 0 0)
(0 0 0)
(0 0 0)
(0 0 0)
(0 0 0)
(0 0 0)
(0 0 0)
(0 0 0)
(0 0 0)
(0 0 0)
(0 0 0)
(0 0 0)
(0 0 0)
(0 0 0)
(0 0 0)
(0 0 0)
(0 0 0)
(0 0 0)
(0 0 0)
(0 0 0)
(0 0 0)
(0 0 0)
(0 0 0)
(0 0 0)
(0 0 0)
(0 0 0)
(0 0 0)
(0 0 0)
(0 0 0)
(0 0 0)
(0 0 0)
(0 0 0)
(0 0 0)
(0 0 0)
(0 0 0)
(0 0 0)
(0 0 0)
(0 0 0)
(0 0 0)
(0 0 0)
(0 0 0)
(0 0 0)
(0 0 0)
(0 0 0)
(0 0 0)
(0 0 0)
(0 0 0)
(0 0 0)
(0 0 0)
(0 0 0)
(0 0 0)
(0 0 0)
(0 0 0)
(0 0 0)
(0 0 0)
(0 0 0)
(0 0 0)
(0 0 0)
(0 0 0)
(0 0 0)
(0 0 0)
(0 0 0)
(0 0 0)
(0 0 0)
(0 0 0)
(0 0 0)
(0 0 0)
(0 0 0)
(0 0 0)
(0 0 0)
(0 0 0)
(0 0 0)
(0 0 0)
(0 0 0)
(0 0 0)
(0 0 0)
(0 0 0)
(0 0 0)
(0 0 0)
(0 0 0)
(0 0 0)
(0 0 0)
(0 0 0)
(0 0 0)
(0 0 0)
(0 0 0)
(0 0 0)
(0 0 0)
(0 0 0)
(0 0 0)
(0 0 0)
(0 0 0)
(0 0 0)
(0 0 0)
(0 0 0)
(0 0 0)
(0 0 0)
(0 0 0)
(0 0 0)
(0 0 0)
(0 0 0)
(0 0 0)
(0 0 0)
(0 0 0)
(0 0 0)
(0 0 0)
(0 0 0)
(0 0 0)
(0 0 0)
(0 0 0)
(0 0 0)
(0 0 0)
(0 0 0)
(0 0 0)
(0 0 0)
(0 0 0)
(0 0 0)
(0 0 0)
(0 0 0)
(0 0 0)
(0 0 0)
(0 0 0)
(0 0 0)
(0 0 0)
(0 0 0)
(0 0 0)
(0 0 0)
(0 0 0)
(0 0 0)
(0 0 0)
(0 0 0)
(0 0 0)
(0 0 0)
(0 0 0)
(0 0 0)
(0 0 0)
(0 0 0)
(0 0 0)
(0 0 0)
(0 0 0)
(0 0 0)
(0 0 0)
(0 0 0)
(0 0 0)
(0 0 0)
(0 0 0)
(0 0 0)
(0 0 0)
(0 0 0)
(0 0 0)
(0 0 0)
(0 0 0)
(0 0 0)
(0 0 0)
(0 0 0)
(0 0 0)
(0 0 0)
(0 0 0)
(0 0 0)
(0 0 0)
(0 0 0)
(0 0 0)
(0 0 0)
(0 0 0)
(0 0 0)
(0 0 0)
(0 0 0)
(0 0 0)
(0 0 0)
(0 0 0)
(0 0 0)
(0 0 0)
(0 0 0)
(0 0 0)
(0 0 0)
(0 0 0)
(0 0 0)
(0 0 0)
(0 0 0)
(0 0 0)
(0 0 0)
(0 0 0)
(0 0 0)
(0 0 0)
(0 0 0)
(0 0 0)
(0 0 0)
(0 0 0)
(0 0 0)
(0 0 0)
(0 0 0)
(0 0 0)
(0 0 0)
(0 0 0)
(0 0 0)
(0 0 0)
(0 0 0)
(0 0 0)
(0 0 0)
(0 0 0)
(0 0 0)
(0 0 0)
(0 0 0)
(0 0 0)
(0 0 0)
(0 0 0)
(0 0 0)
(0 0 0)
(0 0 0)
(0 0 0)
(0 0 0)
(0 0 0)
(0 0 0)
(0 0 0)
(0 0 0)
(0 0 0)
(0 0 0)
(0 0 0)
(0 0 0)
(0 0 0)
(0 0 0)
(0 0 0)
(0 0 0)
(0 0 0)
(0 0 0)
(0 0 0)
(0 0 0)
(0 0 0)
(0 0 0)
(0 0 0)
(0 0 0)
(0 0 0)
(0 0 0)
(0 0 0)
(0 0 0)
(0 0 0)
(0 0 0)
(0 0 0)
(0 0 0)
(0 0 0)
(0 0 0)
(0 0 0)
(0 0 0)
(0 0 0)
(0 0 0)
(0 0 0)
(0 0 0)
(0 0 0)
(0 0 0)
(0 0 0)
(0 0 0)
(0 0 0)
(0 0 0)
(0 0 0)
(0 0 0)
(0 0 0)
(0 0 0)
(0 0 0)
(0 0 0)
(0 0 0)
(0 0 0)
(0 0 0)
(0 0 0)
(0 0 0)
(0 0 0)
(0 0 0)
(0 0 0)
(0 0 0)
(0 0 0)
(0 0 0)
(0 0 0)
(0 0 0)
(0 0 0)
(0 0 0)
(0 0 0)
(0 0 0)
(0 0 0)
(0 0 0)
(0 0 0)
(0 0 0)
(0 0 0)
(0 0 0)
(0 0 0)
(0 0 0)
(0 0 0)
(0 0 0)
(0 0 0)
(0 0 0)
(0 0 0)
(0 0 0)
(0 0 0)
(0 0 0)
(0 0 0)
(0 0 0)
(0 0 0)
(0 0 0)
(0 0 0)
(0 0 0)
(0 0 0)
(0 0 0)
(0 0 0)
(0 0 0)
(0 0 0)
(0 0 0)
(0 0 0)
(0 0 0)
(0 0 0)
(0 0 0)
(0 0 0)
(0 0 0)
(0 0 0)
(0 0 0)
(0 0 0)
(0 0 0)
(0 0 0)
(0 0 0)
(0 0 0)
(0 0 0)
(0 0 0)
(0 0 0)
(0 0 0)
(0 0 0)
(0 0 0)
(0 0 0)
(0 0 0)
(0 0 0)
(0 0 0)
(0 0 0)
(0 0 0)
(0 0 0)
(0 0 0)
(0 0 0)
(0 0 0)
(0 0 0)
(0 0 0)
(0 0 0)
(0 0 0)
(0 0 0)
(0 0 0)
(0 0 0)
(0 0 0)
(0 0 0)
(0 0 0)
(0 0 0)
(0 0 0)
(0 0 0)
(0 0 0)
(0 0 0)
(0 0 0)
(0 0 0)
(0 0 0)
(0 0 0)
(0 0 0)
(0 0 0)
(0 0 0)
(0 0 0)
(0 0 0)
(0 0 0)
(0 0 0)
(0 0 0)
(0 0 0)
(0 0 0)
(0 0 0)
(0 0 0)
(0 0 0)
(0 0 0)
(0 0 0)
(0 0 0)
(0 0 0)
(0 0 0)
(0 0 0)
(0 0 0)
(0 0 0)
(0 0 0)
(0 0 0)
(0 0 0)
(0 0 0)
(0 0 0)
(0 0 0)
(0 0 0)
(0 0 0)
(0 0 0)
(0 0 0)
(0 0 0)
(0 0 0)
(0 0 0)
(0 0 0)
(0 0 0)
(0 0 0)
(0 0 0)
(0 0 0)
(0 0 0)
(0 0 0)
(0 0 0)
(0 0 0)
(0 0 0)
(0 0 0)
(0 0 0)
(0 0 0)
(0 0 0)
(0 0 0)
(0 0 0)
(0 0 0)
(0 0 0)
(0 0 0)
(0 0 0)
(0 0 0)
(0 0 0)
(0 0 0)
(0 0 0)
(0 0 0)
(0 0 0)
(0 0 0)
(0 0 0)
(0 0 0)
(0 0 0)
(0 0 0)
(0 0 0)
(0 0 0)
(0 0 0)
(0 0 0)
(0 0 0)
(0 0 0)
(0 0 0)
(0 0 0)
(0 0 0)
(0 0 0)
(0 0 0)
(0 0 0)
(0 0 0)
(0 0 0)
(0 0 0)
(0 0 0)
(0 0 0)
(0 0 0)
(0 0 0)
(0 0 0)
(0 0 0)
(0 0 0)
(0 0 0)
(0 0 0)
(0 0 0)
(0 0 0)
(0 0 0)
(0 0 0)
(0 0 0)
(0 0 0)
(0 0 0)
(0 0 0)
(0 0 0)
(0 0 0)
(0 0 0)
(0 0 0)
(0 0 0)
(0 0 0)
(0 0 0)
(0 0 0)
(0 0 0)
(0 0 0)
(0 0 0)
(0 0 0)
(0 0 0)
(0 0 0)
(0 0 0)
(0 0 0)
(0 0 0)
(0 0 0)
(0 0 0)
(0 0 0)
(0 0 0)
(0 0 0)
(0 0 0)
(0 0 0)
(0 0 0)
(0 0 0)
(0 0 0)
(0 0 0)
(0 0 0)
(0 0 0)
(0 0 0)
(0 0 0)
(0 0 0)
(0 0 0)
(0 0 0)
(0 0 0)
(0 0 0)
(0 0 0)
(0 0 0)
(0 0 0)
(0 0 0)
(0 0 0)
(0 0 0)
(0 0 0)
(0 0 0)
(0 0 0)
(0 0 0)
(0 0 0)
(0 0 0)
(0 0 0)
(0 0 0)
(0 0 0)
(0 0 0)
(0 0 0)
(0 0 0)
(0 0 0)
(0 0 0)
(0 0 0)
(0 0 0)
(0 0 0)
(0 0 0)
(0 0 0)
(0 0 0)
(0 0 0)
(0 0 0)
(0 0 0)
(0 0 0)
(0 0 0)
(0 0 0)
(0 0 0)
(0 0 0)
(0 0 0)
(0 0 0)
(0 0 0)
(0 0 0)
(0 0 0)
(0 0 0)
(0 0 0)
(0 0 0)
(0 0 0)
(0 0 0)
(0 0 0)
(0 0 0)
(0 0 0)
(0 0 0)
(0 0 0)
(0 0 0)
(0 0 0)
(0 0 0)
(0 0 0)
(0 0 0)
(0 0 0)
(0 0 0)
(0 0 0)
(0 0 0)
(0 0 0)
(0 0 0)
(0 0 0)
(0 0 0)
(0 0 0)
(0 0 0)
(0 0 0)
(0 0 0)
(0 0 0)
(0 0 0)
(0 0 0)
(0 0 0)
(0 0 0)
(0 0 0)
(0 0 0)
(0 0 0)
(0 0 0)
(0 0 0)
(0 0 0)
(0 0 0)
(0 0 0)
(0 0 0)
(0 0 0)
(0 0 0)
(0 0 0)
(0 0 0)
(0 0 0)
(0 0 0)
(0 0 0)
(0 0 0)
(0 0 0)
(0 0 0)
(0 0 0)
(0 0 0)
(0 0 0)
(0 0 0)
(0 0 0)
(0 0 0)
(0 0 0)
(0 0 0)
(0 0 0)
(0 0 0)
(0 0 0)
(0 0 0)
(0 0 0)
(0 0 0)
(0 0 0)
(0 0 0)
(0 0 0)
(0 0 0)
(0 0 0)
(0 0 0)
(0 0 0)
(0 0 0)
(0 0 0)
(0 0 0)
(0 0 0)
(0 0 0)
(0 0 0)
(0 0 0)
(0 0 0)
(0 0 0)
(0 0 0)
(0 0 0)
(0 0 0)
(0 0 0)
(0 0 0)
(0 0 0)
(0 0 0)
(0 0 0)
(0 0 0)
(0 0 0)
(0 0 0)
(0 0 0)
(0 0 0)
(0 0 0)
(0 0 0)
(0 0 0)
(0 0 0)
(0 0 0)
(0 0 0)
(0 0 0)
(0 0 0)
(0 0 0)
(0 0 0)
(0 0 0)
(0 0 0)
(0 0 0)
(0 0 0)
(0 0 0)
(0 0 0)
(0 0 0)
(0 0 0)
(0 0 0)
(0 0 0)
(0 0 0)
(0 0 0)
(0 0 0)
(0 0 0)
(0 0 0)
(0 0 0)
(0 0 0)
(0 0 0)
(0 0 0)
(0 0 0)
(0 0 0)
(0 0 0)
(0 0 0)
(0 0 0)
(0 0 0)
(0 0 0)
(0 0 0)
(0 0 0)
(0 0 0)
(0 0 0)
(0 0 0)
(0 0 0)
(0 0 0)
(0 0 0)
(0 0 0)
(0 0 0)
(0 0 0)
(0 0 0)
(0 0 0)
(0 0 0)
(0 0 0)
(0 0 0)
(0 0 0)
(0 0 0)
(0 0 0)
(0 0 0)
(0 0 0)
(0 0 0)
(0 0 0)
(0 0 0)
(0 0 0)
(0 0 0)
(0 0 0)
(0 0 0)
(0 0 0)
(0 0 0)
(0 0 0)
(0 0 0)
(0 0 0)
(0 0 0)
(0 0 0)
(0 0 0)
(0 0 0)
(0 0 0)
(0 0 0)
(0 0 0)
(0 0 0)
(0 0 0)
(0 0 0)
(0 0 0)
(0 0 0)
(0 0 0)
(0 0 0)
(0 0 0)
(0 0 0)
(0 0 0)
(0 0 0)
(0 0 0)
(0 0 0)
(0 0 0)
(0 0 0)
(0 0 0)
(0 0 0)
(0 0 0)
(0 0 0)
(0 0 0)
(0 0 0)
(0 0 0)
(0 0 0)
(0 0 0)
(0 0 0)
(0 0 0)
(0 0 0)
(0 0 0)
(0 0 0)
(0 0 0)
(0 0 0)
(0 0 0)
(0 0 0)
(0 0 0)
(0 0 0)
(0 0 0)
(0 0 0)
(0 0 0)
(0 0 0)
(0 0 0)
(0 0 0)
(0 0 0)
(0 0 0)
(0 0 0)
(0 0 0)
(0 0 0)
(0 0 0)
(0 0 0)
(0 0 0)
(0 0 0)
(0 0 0)
(0 0 0)
(0 0 0)
(0 0 0)
(0 0 0)
(0 0 0)
(0 0 0)
(0 0 0)
(0 0 0)
(0 0 0)
(0 0 0)
(0 0 0)
(0 0 0)
(0 0 0)
(0 0 0)
(0 0 0)
(0 0 0)
(0 0 0)
(0 0 0)
(0 0 0)
(0 0 0)
(0 0 0)
(0 0 0)
(0 0 0)
(0 0 0)
(0 0 0)
(0 0 0)
(0 0 0)
(0 0 0)
(0 0 0)
(0 0 0)
(0 0 0)
(0 0 0)
(0 0 0)
(0 0 0)
(0 0 0)
(0 0 0)
(0 0 0)
(0 0 0)
(0 0 0)
(0 0 0)
(0 0 0)
(0 0 0)
(0 0 0)
(0 0 0)
(0 0 0)
(0 0 0)
(0 0 0)
(0 0 0)
(0 0 0)
(0 0 0)
(0 0 0)
(0 0 0)
(0 0 0)
(0 0 0)
(0 0 0)
(0 0 0)
(0 0 0)
(0 0 0)
(0 0 0)
(0 0 0)
(0 0 0)
(0 0 0)
(0 0 0)
(0 0 0)
(0 0 0)
(0 0 0)
(0 0 0)
(0 0 0)
(0 0 0)
(0 0 0)
(0 0 0)
(0 0 0)
(0 0 0)
(0 0 0)
(0 0 0)
(0 0 0)
(0 0 0)
(0 0 0)
(0 0 0)
(0 0 0)
(0 0 0)
(0 0 0)
(0 0 0)
(0 0 0)
(0 0 0)
(0 0 0)
(0 0 0)
(0 0 0)
(0 0 0)
(0 0 0)
(0 0 0)
(0 0 0)
(0 0 0)
(0 0 0)
(0 0 0)
(0 0 0)
(0 0 0)
(0 0 0)
(0 0 0)
(0 0 0)
(0 0 0)
(0 0 0)
(0 0 0)
(0 0 0)
(0 0 0)
(0 0 0)
(0 0 0)
(0 0 0)
(0 0 0)
(0 0 0)
(0 0 0)
(0 0 0)
(0 0 0)
(0 0 0)
(0 0 0)
(0 0 0)
(0 0 0)
(0 0 0)
(0 0 0)
(0 0 0)
(0 0 0)
(0 0 0)
(0 0 0)
(0 0 0)
(0 0 0)
(0 0 0)
(0 0 0)
(0 0 0)
(0 0 0)
(0 0 0)
(0 0 0)
(0 0 0)
(0 0 0)
(0 0 0)
(0 0 0)
(0 0 0)
(0 0 0)
(0 0 0)
(0 0 0)
(0 0 0)
(0 0 0)
(0 0 0)
(0 0 0)
(0 0 0)
(0 0 0)
(0 0 0)
(0 0 0)
(0 0 0)
(0 0 0)
(0 0 0)
(0 0 0)
(0 0 0)
(0 0 0)
(0 0 0)
(0 0 0)
(0 0 0)
(0 0 0)
(0 0 0)
(0 0 0)
(0 0 0)
(0 0 0)
(0 0 0)
(0 0 0)
(0 0 0)
(0 0 0)
(0 0 0)
(0 0 0)
(0 0 0)
(0 0 0)
(0 0 0)
(0 0 0)
(0 0 0)
(0 0 0)
(0 0 0)
(0 0 0)
(0 0 0)
(0 0 0)
(0 0 0)
(0 0 0)
(0 0 0)
(0 0 0)
(0 0 0)
(0 0 0)
(0 0 0)
(0 0 0)
(0 0 0)
(0 0 0)
(0 0 0)
(0 0 0)
(0 0 0)
(0 0 0)
(0 0 0)
(0 0 0)
(0 0 0)
(0 0 0)
(0 0 0)
(0 0 0)
(0 0 0)
(0 0 0)
(0 0 0)
(0 0 0)
(0 0 0)
(0 0 0)
(0 0 0)
(0 0 0)
(0 0 0)
(0 0 0)
(0 0 0)
(0 0 0)
(0 0 0)
(0 0 0)
(0 0 0)
(0 0 0)
(0 0 0)
(0 0 0)
(0 0 0)
(0 0 0)
(0 0 0)
(0 0 0)
(0 0 0)
(0 0 0)
(0 0 0)
(0 0 0)
(0 0 0)
(0 0 0)
(0 0 0)
(0 0 0)
(0 0 0)
(0 0 0)
(0 0 0)
(0 0 0)
(0 0 0)
(0 0 0)
(0 0 0)
(0 0 0)
(0 0 0)
(0 0 0)
(0 0 0)
(0 0 0)
(0 0 0)
(0 0 0)
(0 0 0)
(0 0 0)
(0 0 0)
(0 0 0)
(0 0 0)
(0 0 0)
(0 0 0)
(0 0 0)
(0 0 0)
(0 0 0)
(0 0 0)
(0 0 0)
(0 0 0)
(0 0 0)
(0 0 0)
(0 0 0)
(0 0 0)
(0 0 0)
(0 0 0)
(0 0 0)
(0 0 0)
(0 0 0)
(0 0 0)
(0 0 0)
(0 0 0)
(0 0 0)
(0 0 0)
(0 0 0)
(0 0 0)
(0 0 0)
(0 0 0)
(0 0 0)
(0 0 0)
(0 0 0)
(0 0 0)
(0 0 0)
(0 0 0)
(0 0 0)
(0 0 0)
(0 0 0)
(0 0 0)
(0 0 0)
(0 0 0)
(0 0 0)
(0 0 0)
(0 0 0)
(0 0 0)
(0 0 0)
(0 0 0)
(0 0 0)
(0 0 0)
(0 0 0)
(0 0 0)
(0 0 0)
(0 0 0)
(0 0 0)
(0 0 0)
(0 0 0)
(0 0 0)
(0 0 0)
(0 0 0)
(0 0 0)
(0 0 0)
(0 0 0)
(0 0 0)
(0 0 0)
(0 0 0)
(0 0 0)
(0 0 0)
(0 0 0)
(0 0 0)
(0 0 0)
(0 0 0)
(0 0 0)
(0 0 0)
(0 0 0)
(0 0 0)
(0 0 0)
(0 0 0)
(0 0 0)
(0 0 0)
(0 0 0)
(0 0 0)
(0 0 0)
(0 0 0)
(0 0 0)
(0 0 0)
(0 0 0)
(0 0 0)
(0 0 0)
(0 0 0)
(0 0 0)
(0 0 0)
(0 0 0)
(0 0 0)
(0 0 0)
(0 0 0)
(0 0 0)
(0 0 0)
(0 0 0)
(0 0 0)
(0 0 0)
(0 0 0)
(0 0 0)
(0 0 0)
(0 0 0)
(0 0 0)
(0 0 0)
(0 0 0)
(0 0 0)
(0 0 0)
(0 0 0)
(0 0 0)
(0 0 0)
(0 0 0)
(0 0 0)
(0 0 0)
(0 0 0)
(0 0 0)
(0 0 0)
(0 0 0)
(0 0 0)
(0 0 0)
(0 0 0)
(0 0 0)
(0 0 0)
(0 0 0)
(0 0 0)
(0 0 0)
(0 0 0)
(0 0 0)
(0 0 0)
(0 0 0)
(0 0 0)
(0 0 0)
(0 0 0)
(0 0 0)
(0 0 0)
(0 0 0)
(0 0 0)
(0 0 0)
(0 0 0)
(0 0 0)
(0 0 0)
(0 0 0)
(0 0 0)
(0 0 0)
(0 0 0)
(0 0 0)
(0 0 0)
(0 0 0)
(0 0 0)
(0 0 0)
(0 0 0)
(0 0 0)
(0 0 0)
(0 0 0)
(0 0 0)
(0 0 0)
(0 0 0)
(0 0 0)
(0 0 0)
(0 0 0)
(0 0 0)
(0 0 0)
(0 0 0)
(0 0 0)
(0 0 0)
(0 0 0)
(0 0 0)
(0 0 0)
(0 0 0)
(0 0 0)
(0 0 0)
(0 0 0)
(0 0 0)
(0 0 0)
(0 0 0)
(0 0 0)
(0 0 0)
(0 0 0)
(0 0 0)
(0 0 0)
(0 0 0)
(0 0 0)
(0 0 0)
(0 0 0)
(0 0 0)
(0 0 0)
(0 0 0)
(0 0 0)
(0 0 0)
(0 0 0)
(0 0 0)
(0 0 0)
(0 0 0)
(0 0 0)
(0 0 0)
(0 0 0)
(0 0 0)
(0 0 0)
(0 0 0)
(0 0 0)
(0 0 0)
(0 0 0)
(0 0 0)
(0 0 0)
(0 0 0)
(0 0 0)
(0 0 0)
(0 0 0)
(0 0 0)
(0 0 0)
(0 0 0)
(0 0 0)
(0 0 0)
(0 0 0)
(0 0 0)
(0 0 0)
(0 0 0)
(0 0 0)
(0 0 0)
(0 0 0)
(0 0 0)
(0 0 0)
(0 0 0)
(0 0 0)
(0 0 0)
(0 0 0)
(0 0 0)
(0 0 0)
(0 0 0)
(0 0 0)
(0 0 0)
(0 0 0)
(0.0203124 -0.0021624 -0.00196085)
(-0.0101552 0.0123835 -0.0134042)
(0.0114705 0.0245789 0.00554114)
(-0.0157056 0.0128972 -0.00135625)
(-0.00702577 0.0152597 -0.013739)
(-0.0300733 0.0169721 -0.00825743)
(-0.017544 0.0147611 -0.00893041)
(-0.0102328 0.00340623 -0.00823551)
(0.0281415 -0.0180587 -0.00434154)
(0.0270131 -0.0126785 -0.00136882)
(0.0419022 -0.010393 0.00894479)
(0.0561313 -0.0307204 0.00472)
(0.0856234 -0.0213336 0.0215794)
(0.0207718 0.0335162 0.017491)
(-0.0498381 0.0214458 0.000460179)
(0.00968013 0.00148767 0.0134426)
(-0.0720182 -0.012914 0.00465347)
(-0.0656689 0.00359179 -0.00857124)
(-0.0431683 0.00316714 -0.00843957)
(-0.0928249 -0.0392974 -0.0006269)
(-0.0541924 -0.0525648 -0.00745739)
(-0.00453488 -0.00210432 -0.00645118)
(0.00568514 0.000353549 -0.00450298)
(0.00142604 -0.0358174 -0.00851887)
(0.0227507 0.00112832 -0.000575405)
(0.0121402 0.00863195 0.00154366)
(0.050335 -0.0301674 -0.00312338)
(0.0250456 -0.00515762 -0.0261299)
(0.0500858 -0.0192783 -0.0135971)
(0.112042 -0.0447004 0.0106776)
(0.106726 -0.0355005 0.0184966)
(0.139865 -0.0284966 -0.00190074)
(0.0787254 -0.0288128 0.0131691)
(-0.0195159 -0.024527 0.0156928)
(-0.0933889 -0.0421991 0.00798155)
(-0.0277843 -0.0421255 0.0135836)
(-0.118096 -0.0714597 -0.00129027)
(-0.133387 -0.0791621 -0.0133597)
(-0.0723918 -0.0765597 -0.0266082)
(-0.133093 -0.0633059 -0.0276559)
(-0.0617313 -0.0446932 -0.0339056)
(0.00718712 -0.0551182 -0.0219385)
(0.0403967 -0.0129141 -0.00405643)
(0.00764824 -0.0170416 -0.0310399)
(0.0573439 -0.000103088 -0.0132275)
(0.0122157 0.00740636 0.0030134)
(0.0105875 0.00931444 0.00225302)
(0.002389 0.00459792 -0.000378394)
(0.0362169 0.00408933 -0.0338593)
(0.0633889 0.00845749 -0.0194291)
(0.0565985 0.048128 -0.00828052)
(0.114361 0.00569577 0.00156879)
(0.0362391 -0.00100494 0.00803837)
(0.0763842 0.0459196 0.0138645)
(0.024947 0.0205486 0.00820019)
(-0.0283221 -0.0261303 0.00679857)
(-0.0978251 -0.0475868 -0.00310828)
(-0.0265126 -0.00462282 0.00338329)
(-0.0780823 -0.000655399 -0.00543752)
(-0.106702 -0.0276277 -0.0332741)
(-0.0340906 -0.00371959 -0.0405243)
(-0.0699589 0.0236315 -0.0281308)
(-0.0117312 0.0500415 -0.0424312)
(0.0324428 0.023552 -0.0334159)
(0.0636679 0.0264871 -0.00389662)
(0.0456905 0.0759775 -0.0205414)
(0.0361291 0.0254721 0.00313219)
(0.00984225 0.00994087 0.00309184)
(0.00287959 0.00496275 0.00274452)
(0.0102741 0.00247753 0.00243041)
(0.0332492 0.0336478 0.00232883)
(0.0339168 0.0429004 0.0186716)
(0.0125269 0.0341975 0.014836)
(0.00940379 0.0209319 0.00842536)
(0.000816206 0.0299215 0.00973522)
(-0.0233924 0.0243227 0.00415123)
(-0.0408503 0.0421559 -0.00272882)
(-0.0134329 0.0393068 0.00917741)
(-0.0111339 0.0483911 0.00782308)
(-0.0340937 0.0721788 -0.0110662)
(-0.000142718 0.0764457 -0.0110905)
(-0.00664 0.0548949 0.00723788)
(-0.00173594 0.0362257 0.0048735)
(0.0143973 0.0434874 0.00401479)
(0.00922652 0.00595576 0.00207721)
(0.00171137 0.0123929 0.00285064)
(0.00106036 0.00193216 0.000122983)
(0.00277053 0.000409018 0.000727858)
(0.00103038 0.0116286 0.00621705)
(-0.00319657 0.0155344 0.00693917)
(-0.00807345 0.0224441 0.00613677)
(-0.00627315 0.00905627 0.0039906)
(-0.00462222 0.0248633 0.00410292)
(0.00165838 0.00938999 0.00246375)
(-0.00419771 0.00850353 0.00392103)
(0.000429805 0.00302636 4.15934e-05)
(-0.00315009 -0.000609996 0.0182238)
(-0.0181602 0.00078718 0.0492583)
(-0.100551 0.00522924 0.0468326)
(-0.0487033 0.0169735 0.0404003)
(-0.111991 0.00699888 0.0581377)
(-0.088447 0.00758932 0.0558404)
(-0.0693591 0.0155516 0.0794202)
(-0.111648 0.0150517 0.0797491)
(-0.153154 -0.0352758 0.0468042)
(-0.127231 -0.0542056 0.00371655)
(-0.104708 -0.00582905 0.0547732)
(-0.135229 -0.0102162 0.0567442)
(-0.11762 -0.0316746 -0.0111152)
(-0.0847271 -0.0511095 -0.0241112)
(-0.0658168 -0.0301706 -0.0537873)
(0.026366 -0.0394068 0.00207053)
(0.0209572 -0.0359698 0.00190048)
(-0.00095361 -0.0179297 0.0387536)
(0.0414201 -0.0604341 0.0275169)
(0.0172395 -0.0627942 0.0654921)
(0.0154689 -0.0292671 0.0417329)
(-0.0234421 -0.0285568 0.0974084)
(0.029485 -0.0636616 0.0507801)
(-0.0228791 -0.0793403 0.137037)
(-0.0194798 -0.0448167 -0.0213027)
(-0.0336433 -0.0620602 -0.0257915)
(0.0305292 -0.0470705 -0.00839726)
(-0.0425508 -0.00239896 -0.0662355)
(-0.00699207 0.0037976 -0.0371665)
(-0.0556568 0.0368553 -0.024128)
(-0.0182846 0.0254431 -0.0109993)
(0.03196 -0.00293935 0.020542)
(0.000801808 0.00957617 0.0420303)
(0.0444743 -0.0628367 -0.00581278)
(0.0212162 -0.0570132 -0.0232612)
(0.0512385 -0.0693559 -0.0241654)
(0.0301081 -0.0486771 -0.0206022)
(0.0111848 -0.0385962 -0.049383)
(0.0358714 -0.0523223 -0.0530292)
(0.0686373 -0.0153581 0.047972)
(0.0287393 -0.0213472 0.0478631)
(-0.0177474 0.00251676 0.0853908)
(-0.0267729 -0.0260378 0.037374)
(-0.00115229 -0.0374924 0.0797289)
(0.0459064 -0.0239141 -0.0376408)
(0.0305057 0.0333634 -0.0352249)
(0.00681575 -0.0309122 -0.0688037)
(0.0282103 -0.0271798 -0.0773107)
(0.0169086 0.0054277 -0.072738)
(0.0155082 -0.0132768 0.0216944)
(0.0436623 0.0411358 0.0509086)
(-0.0207141 -0.0238089 0.019242)
(0.000965089 -0.0170006 0.0345848)
(-0.0275236 0.0139377 0.0838432)
(0.0301661 0.0487472 -0.000215943)
(0.027416 0.0483032 -0.0279723)
(-0.0761172 0.0101299 0.0340199)
(0.0151116 0.0366881 0.0398069)
(-0.0416275 0.0388289 0.0359887)
(0.0302839 0.0476264 0.0176809)
(-0.0374125 -0.0345109 0.014515)
(0.0269621 0.0422498 0.0157062)
(0.0116691 -0.0256953 -0.107949)
(0.000321505 0.0717987 0.0141568)
(-0.0343968 0.126061 0.0404269)
(-0.0367539 0.0647931 0.0070726)
(-0.0142702 -0.061183 -0.0213694)
(-0.0188531 -0.027557 -0.00827496)
(0.00515095 -0.0174286 0.00125944)
(0.00419811 -0.00724262 -0.0175176)
(-0.0111425 0.00344289 0.0193044)
(-0.0220983 0.0413745 0.0244294)
(0.00840637 -0.0189896 -0.186297)
(-0.0550466 0.0710504 0.00858393)
(-0.0601711 0.0620064 0.0363239)
(0.0516722 -0.157376 -0.150037)
(0.0060349 0.010773 -0.10881)
(0.0223481 0.0292894 -0.0443424)
(-0.0641957 0.0976179 0.0219619)
(-0.0672238 0.0699398 0.00565521)
(-0.0508285 0.0370719 -0.0546315)
(-0.0535971 0.0309596 -0.0175918)
(-0.0215075 0.0143704 -0.0411811)
(-0.00568102 0.00394566 0.0166271)
(-0.0255086 0.00276578 0.0865375)
(-0.00640635 -0.0415127 0.109001)
(-0.0629119 0.0071764 0.045445)
(-0.0562065 0.0205585 0.104446)
(-0.0853462 0.0265244 0.090848)
(-0.0199691 0.00287062 -0.00951617)
(-0.044897 -0.00248925 0.108167)
(-0.0487314 0.0338487 0.0560926)
(-0.0987077 0.0123614 0.0469142)
(-0.0713008 0.00633676 -0.0691107)
(-0.00890884 -0.00807483 -0.0520446)
(-0.0274456 0.0378355 -0.0573071)
(-0.00130118 0.029104 -0.168136)
(-0.0116295 0.0121945 -0.12958)
(0.0356229 0.027955 -0.182945)
(0.0165519 -0.0255536 -0.00712874)
(0.0126412 -0.0216619 -0.0161418)
(-0.0209247 -0.035243 0.165246)
(0.0237058 -0.0669754 0.0677995)
(-0.0262328 -0.092159 0.213318)
(0.0473385 -0.0650483 0.0977748)
(0.000489659 -0.0778672 0.252345)
(0.0333615 -0.0771804 0.058436)
(-0.00841093 -0.130349 0.276543)
(0.0169685 0.027661 -0.0608694)
(-0.0299223 0.0526672 -0.0422006)
(-0.0228588 0.0272037 -0.020472)
(0.0591946 0.0488717 -0.170502)
(0.0540895 0.0283245 -0.0957482)
(0.0637113 0.0521259 -0.115209)
(0.0240355 0.0223679 -0.0730775)
(-0.0184792 -0.00747005 0.0190214)
(-0.0188016 -0.0243936 0.00843737)
(0.0204926 -0.0303684 -0.0339141)
(0.0073782 -0.027475 -0.0730089)
(0.0300749 -0.0356783 -0.072614)
(0.0167544 -0.0185749 -0.0474093)
(0.00642981 -0.0133841 -0.0905076)
(0.0267673 -0.0205788 -0.0923426)
(-0.0652391 -0.0240484 0.00846673)
(-0.0121307 -0.0185804 0.0260975)
(-0.0540198 -0.0311372 -0.0625812)
(-0.0778881 -0.0307525 -0.176803)
(-0.0249606 -0.00158993 -0.0179322)
(0.0268085 -0.0287541 -0.110267)
(0.018625 -0.00842503 -0.114472)
(0.00238377 -0.0147611 -0.113791)
(0.0268033 -0.0191956 -0.136861)
(0.0185404 -0.00930812 -0.15533)
(-0.0105905 0.000282112 0.00703841)
(-0.0474444 0.00916462 0.0379913)
(-0.0844456 -0.0104509 -0.269381)
(-0.0610898 -0.0303159 -0.032978)
(-0.0428632 0.00431074 -0.1236)
(0.0220598 0.0275274 -0.132859)
(0.00970061 0.00403075 -0.190636)
(0.083861 -0.114307 -0.110574)
(0.06252 -0.0347151 -0.191431)
(0.0919921 -0.0612133 -0.15739)
(0.0343577 -0.036498 -0.202741)
(0.0749798 -0.082894 -0.134849)
(0.0861049 -0.00606738 -0.166481)
(0.11514 -0.00556545 -0.147085)
(-0.0345086 -0.0269344 -0.0158066)
(0.0112421 -0.0699404 -0.0190976)
(-0.000560905 -0.0244671 -0.0269592)
(0.0873443 -0.0718397 -0.132156)
(0.0280045 -0.0265685 -0.234217)
(0.0514849 -0.0677563 -0.153447)
(0.0555204 -0.0722025 -0.0288758)
(-0.0221619 -0.00476957 -0.16319)
(0.075377 -0.0107583 -0.125068)
(0.0964126 0.0261704 -0.120193)
(0.0898578 -0.0691976 -0.054679)
(0.114214 -0.00361007 0.00191841)
(0.117609 -0.000827866 -0.0848999)
(0.100275 -0.0253937 -0.0561297)
(0.0778346 -0.013095 -0.0107169)
(0.0676602 -0.0786083 -0.0255359)
(0.0679293 -0.0114285 0.111725)
(0.103856 -0.0979043 0.00285585)
(0.0872431 -0.0648814 -0.0344373)
(0.121134 -0.0325752 0.08641)
(0.0658022 -0.0374644 -0.0527594)
(-0.00841781 -0.01129 -0.177)
(-0.010924 0.0156135 -0.269585)
(-0.00347495 0.00179971 -0.250404)
(-0.0209666 0.00500305 -0.186159)
(-0.0114655 0.014997 -0.217068)
(0.00628457 -0.0049302 -0.293349)
(-0.00852303 0.00766616 -0.262941)
(0.00368437 -0.00791787 -0.25856)
(0.0304315 0.028162 -0.254811)
(0.0346664 0.018863 -0.241283)
(0.0146974 0.00181706 -0.288556)
(0.0376382 0.00553267 -0.255002)
(0.0596522 -0.00350929 -0.265743)
(0.0669605 0.0309383 -0.232127)
(0.0937888 0.0123358 -0.263336)
(0.0157405 -0.0230819 -0.040611)
(0.0262271 -0.0241041 -0.0810801)
(0.0336509 -0.0998004 0.125833)
(0.0493404 -0.0653306 0.00676886)
(0.027757 -0.180082 0.294141)
(0.0702849 -0.0626403 -0.164632)
(0.0118593 0.0100961 -0.234215)
(0.0815434 -0.0422665 -0.0946901)
(0.0887439 -0.0780194 0.0773941)
(0.140365 0.0987333 -0.253957)
(0.207712 0.00272016 -0.27083)
(0.194213 -0.0316463 -0.376429)
(0.155373 -0.0544575 -0.296104)
(0.2064 -0.0428665 -0.31289)
(0.199373 0.0158842 -0.215639)
(0.0476699 -0.0454407 -0.402591)
(-0.0429096 -0.100608 -0.4953)
(-0.07855 -0.0841256 -0.462675)
(0.0195084 -0.0113599 -0.0684089)
(0.003303 -0.00415096 -0.113749)
(0.0318778 -0.00336377 -0.11609)
(0.0243648 -0.00464102 -0.107639)
(0.00581244 -0.001008 -0.138856)
(0.0318348 -0.000151858 -0.153111)
(-0.0459513 -0.00589763 -0.538881)
(-0.0211576 -0.00425663 -0.541819)
(-0.0455894 -0.0124341 -0.450627)
(-0.0677841 -0.0175606 -0.508551)
(-0.00781664 -0.021307 -0.472947)
(0.0274602 -0.00746459 -0.163391)
(0.0148602 -0.00285234 -0.185677)
(0.00374536 -0.00293833 -0.163663)
(0.0183189 0.00206229 -0.188223)
(0.00417591 0.00347547 -0.208126)
(-0.0390082 0.0270956 -0.557962)
(-0.0349445 -0.0295654 -0.813722)
(-0.0839138 -0.031122 -0.608983)
(-0.0169748 -0.0687053 -0.518348)
(0.0356643 -0.0344418 -0.887966)
(0.00504546 0.00516812 -0.211881)
(0.00336661 0.0139891 -0.222126)
(0.0444799 -0.00234169 -0.175201)
(0.0664979 0.0260872 -0.186393)
(0.100675 0.0408272 -0.166785)
(0.00891916 0.0243466 -0.223744)
(0.014108 0.0485088 -0.205078)
(0.0464161 0.0377446 -0.205363)
(0.0753886 0.0518516 -0.196616)
(0.0123858 -0.030433 -0.883886)
(0.0140676 -0.0203871 -0.891649)
(0 0 0)
(-0.285922 0.175172 -0.516035)
(0.0246352 -0.0383172 -0.897703)
(0.0140676 -0.0203871 -0.891649)
(0.0183597 -0.0311365 -0.856835)
(0.0298514 -0.0557708 -0.902395)
(0.103644 0.047744 -0.143449)
(0.0886722 0.0523074 -0.169112)
(0.0958982 0.00200993 -0.0367757)
(0.0419008 -0.00143093 -0.00390608)
(0.1185 0.059043 -0.129876)
(-0.0182526 -0.0561801 0.0779883)