/*--------------------------------*- C++ -*----------------------------------*\
| =========                 |                                                 |
| \\      /  F ield         | OpenFOAM: The Open Source CFD Toolbox           |
|  \\    /   O peration     | Version:  5.x                                   |
|   \\  /    A nd           | Web:      www.OpenFOAM.org                      |
|    \\/     M anipulation  |                                                 |
\*---------------------------------------------------------------------------*/
FoamFile
{
    version     2.0;
    format      ascii;
    class       volVectorField;
    location    "0.05";
    object      U;
}
// * * * * * * * * * * * * * * * * * * * * * * * * * * * * * * * * * * * * * //

dimensions      [0 1 -1 0 0 0 0];

internalField   nonuniform List<vector> 
10571
(
(0.0432061 0.107178 0.595118)
(0.0417168 0.0271131 0.127951)
(0.125859 0.149975 1.81158)
(0.0216631 0.144845 1.8519)
(-0.159007 0.194722 1.39966)
(0.126564 0.136897 1.81656)
(0.030386 0.0369882 1.82859)
(0.00988155 0.0408014 1.82722)
(-0.08839 0.0573985 1.84517)
(-0.165447 0.149823 1.06602)
(0.127356 0.0409676 0.680972)
(0.141879 0.0265998 1.84973)
(0.0334378 0.0163464 1.83113)
(0.00795596 0.0144291 1.83511)
(-0.0705258 0.00925656 1.84489)
(-0.213677 0.0193673 1.63644)
(0.193602 -0.171972 1.42049)
(0.0650446 -0.0855286 1.84881)
(0.0125713 -0.057315 1.84654)
(-0.124401 -0.113945 1.88878)
(-0.0709475 -0.0103268 0.17023)
(0.111606 -0.162165 1.16156)
(0.0410208 -0.154848 1.62929)
(-0.00736617 -0.0873006 0.196643)
(0.0318277 -0.0669519 0.330685)
(-0.0348456 -0.0386494 0.196273)
(-0.00529653 0.0321479 2.11268)
(0.130836 0.0997129 2.23248)
(0.0584311 -0.00673573 1.12953)
(0.0440603 0.0579652 2.12376)
(0.0393405 0.0688774 1.91958)
(0.0557792 0.0594654 2.03823)
(-0.0746294 0.00479528 2.06655)
(-0.0311476 -0.118727 0.722645)
(-0.0810822 0.0188645 0.3531)
(0.112956 0.149738 2.24279)
(0.0459043 0.0630697 2.10554)
(0.0404676 0.0661265 2.08598)
(-0.0954718 0.0742727 2.13239)
(-0.171471 0.0669109 1.47696)
(-0.0194804 0.0318046 1.13654)
(0.00518751 -0.0783113 2.03005)
(0.0834834 -0.0580758 2.15611)
(-0.175215 -0.105742 2.21618)
(0.0220797 0.0371089 0.13088)
(-0.177813 -0.0547785 0.89317)
(0.172812 -0.167604 1.41015)
(0.0812389 0.00788095 0.202443)
(0.0271782 -0.0244421 0.595185)
(-0.0267693 -0.0260042 0.465584)
(-0.102065 -0.125556 2.01313)
(0.0882953 -0.109633 2.18954)
(0.0964373 -0.159872 1.2661)
(-0.130832 -0.0744227 2.09858)
(-0.0675836 -0.0631893 1.68536)
(0.0358564 -0.0567207 1.82039)
(0.0473015 -0.0640335 1.80119)
(0.0537965 -0.0960314 0.934381)
(-0.0258165 0.0135083 0.606694)
(-0.120885 0.0984232 2.1853)
(-0.0546102 0.0430625 1.83915)
(0.0376899 0.0505195 1.90447)
(0.0411136 0.0876363 1.91888)
(0.0734103 0.0636494 1.15564)
(-0.147868 0.0743267 1.31057)
(-0.0643546 0.0727283 1.76595)
(0.0903415 0.0668056 1.9867)
(0.0165497 0.0550146 1.9797)
(0.0103032 0.0145437 0.399458)
(-0.102065 0.0921816 1.08121)
(0.0670599 0.100077 1.13221)
(0.0486896 0.0169027 0.449346)
(-0.0249739 -0.0962755 0.882013)
(-0.0280961 -0.0221261 0.594878)
(-0.0367474 -0.0798112 1.95223)
(0.0587397 -0.0513833 2.12852)
(-0.0158013 -0.079525 1.35991)
(-0.0982637 -0.0311056 2.06014)
(-0.0471464 -0.0405947 1.75556)
(0.00922914 -0.0462122 1.91758)
(0.0251791 -0.030677 1.90324)
(0.056133 -0.002959 0.990891)
(-0.0617068 -0.0142954 0.979056)
(-0.0784053 0.0358137 2.08123)
(-0.0472193 0.0112207 1.94615)
(0.0128694 0.0118835 2.01326)
(0.0297427 0.0255291 2.00425)
(0.0944822 -0.0240073 1.28684)
(-0.0777396 -0.00697628 1.31626)
(-0.0311507 0.0297753 1.87306)
(0.0261108 0.0491647 2.06453)
(0.0504863 0.0578721 2.0775)
(0.00594038 0.000522332 0.547966)
(0.00076991 0.0642117 1.19199)
(0.00149621 0.130457 1.07103)
(0.0194055 0.0230588 0.674161)
(-0.0713419 -0.083968 1.35419)
(-0.0502628 -0.034745 0.671018)
(0.0489491 -0.0091861 1.99057)
(-0.0282452 -0.0412532 2.06859)
(0.0117078 -0.0307611 1.37111)
(-0.00371619 0.0432576 2.06198)
(0.0323039 0.0170318 1.66476)
(0.007753 0.0136424 1.80516)
(0.0270881 0.0287526 1.82673)
(0.00295549 0.0339849 1.01318)
(-0.0785215 -0.0761492 1.19234)
(-0.0451244 -0.0405629 2.10629)
(-0.00854435 -0.00846418 1.86312)
(0.0045753 -0.0132982 1.92866)
(0.00945037 -0.0619992 1.95068)
(0.0791326 -0.0228823 1.3278)
(-0.0396305 0.021683 1.32085)
(0.0161062 0.00825956 1.77685)
(-0.0506769 0.00584569 1.97471)
(0.0158792 -0.013609 2.0025)
(0.0547181 -0.0607765 0.645294)
(0.0468759 0.00469248 1.19372)
(-0.0751028 0.0678306 1.11674)
(-0.000652843 0.0840645 0.757573)
(-0.0965561 -0.106884 1.72809)
(-0.0782285 -0.0690789 1.03238)
(0.0253162 -0.0181903 1.81673)
(-0.0391403 -0.0232419 1.98838)
(0.104884 -0.0657429 1.15485)
(-0.00988762 -0.0287736 1.94712)
(0.0878019 -0.00799203 1.73079)
(0.0159567 0.0369125 1.82621)
(0.144214 0.0696772 1.86721)
(0.165192 0.00651826 1.17658)
(-1.16555 0.466193 -0.241293)
(-0.133407 -0.0806382 1.71393)
(-0.0189336 -0.0940889 2.07187)
(0.0909204 -0.0588898 1.83368)
(0.0253211 -0.107151 1.92081)
(0.12506 -0.174379 1.97593)
(0.177502 -0.000668721 1.31547)
(-1.34692 -0.171888 0.210741)
(-0.0891526 0.113219 1.13151)
(0.00775019 0.0357529 1.76113)
(-0.0344664 -0.0478846 1.90658)
(-0.0341671 -0.110652 1.85639)
(0.0979923 -0.0655484 0.833683)
(-0.0175018 -0.0107526 1.11555)
(-0.0875884 0.0469136 1.14865)
(0.0148204 0.102992 1.01358)
(-0.0656018 -0.0862617 2.27044)
(-0.0109361 -0.0116774 1.25104)
(-0.110964 -0.137695 1.6301)
(-0.0391189 -0.144001 1.65431)
(0.0642865 -0.107235 1.24868)
(-0.124056 -0.135402 1.70937)
(0.0236492 -0.14789 1.79099)
(-0.0259066 -0.0581827 1.81113)
(0.392599 -0.168875 1.7618)
(0.202621 -0.0946343 1.00959)
(0.407972 0.0856646 0.0138075)
(-0.0658823 -0.0830217 2.23052)
(-0.134448 -0.0584006 1.72384)
(0.00685631 -0.0978424 1.81723)
(-0.024051 -0.189535 1.80181)
(0.391159 -0.092828 1.78443)
(0.331183 0.0568919 1.34672)
(-0.152432 0.137537 0.432649)
(-0.129153 0.0575501 1.23709)
(-0.15788 0.11767 1.66964)
(-0.000782978 0.043412 1.72331)
(0.0771327 0.0196813 1.53423)
(0.123545 -0.030489 0.888922)
(0.423244 0.0603258 0.281674)
(-0.0519616 0.0380297 1.15991)
(-0.061422 0.0422176 1.18572)
(-0.0274425 0.011372 1.13196)
(0.0160902 -0.04396 2.51752)
(-0.00453226 0.00462461 1.40435)
(-0.125402 -0.163674 1.59554)
(-0.060305 -0.203764 1.58663)
(-0.00348549 -0.157168 1.38628)
(-0.156602 -0.133854 1.62479)
(-0.30042 -0.367923 1.7834)
(-0.166806 -0.32732 1.74297)
(0.307396 -0.376789 1.90198)
(0.128666 -0.105485 1.10561)
(0.125687 -0.120828 0.178624)
(-0.041931 -0.0823453 2.50487)
(-0.205912 -0.0619745 1.60442)
(-0.310689 -0.130826 1.71051)
(-0.15207 -0.170832 1.68124)
(0.31161 0.0412876 1.9574)
(0.295078 0.0257797 1.25938)
(0.0903755 0.0583957 0.424201)
(-0.144505 0.00188587 1.35871)
(-0.346879 0.217507 1.71726)
(0.0429834 0.191613 1.75084)
(0.183994 0.221465 1.3685)
(0.0240511 0.0201254 1.01153)
(0.347301 0.180891 0.210258)
(-0.126556 0.132688 1.35611)
(-0.0506928 0.0970473 1.29155)
(-0.0517504 0.0647603 1.23278)
(0.0190899 0.0333281 2.56197)
(-0.0181237 -0.0344676 1.57286)
(-0.16211 -0.194936 1.7539)
(-0.0871547 -0.252114 1.74572)
(0.0272938 -0.219195 1.67127)
(-0.167569 -0.158124 1.73935)
(-0.301092 -0.314869 2.2184)
(-0.0982283 -0.256977 2.02727)
(0.261695 -0.130514 2.24956)
(0.0592195 -0.0233005 1.81759)
(-0.416854 0.142982 0.148942)
(0.0362539 -0.0497566 2.51783)
(-0.255699 -0.0597402 1.73666)
(-0.287305 -0.0832211 2.02742)
(-0.0463151 -0.050542 1.83834)
(0.268093 0.0457582 2.35619)
(0.202442 0.0204895 1.9797)
(-0.926442 -0.11498 0.429625)
(-0.177749 0.0553548 1.66438)
(-0.153173 0.0937767 1.97757)
(0.0335222 0.0909321 2.03574)
(0.191043 0.135896 1.35732)
(0.0109906 -0.017282 2.13792)
(-0.135107 0.171053 1.55121)
(-0.0686627 0.156995 1.46936)
(-0.0346167 0.0800199 1.70118)
(-0.0882023 0.0379733 2.75037)
(-0.00892911 -0.0203885 2.14274)
(-0.111628 -0.0968484 1.9337)
(-0.0822901 -0.106553 1.86769)
(0.242066 -0.170156 2.4564)
(-0.0246081 -0.098271 1.91565)
(0.066078 0.051196 2.89679)
(0.0825619 0.0446252 2.48362)
(0.319928 0.0990277 2.40083)
(0.0678386 0.266358 2.67573)
(0.0464 -0.071216 2.74925)
(-0.0647752 -0.0628258 1.8457)
(0.0563048 0.0361773 2.53788)
(0.0912486 0.0354718 2.14835)
(0.293221 0.0825559 2.25065)
(-0.0451318 0.00197339 2.40804)
(-0.186928 0.17915 2.27953)
(0.078491 0.0509408 2.41868)
(0.11843 0.0760043 2.22882)
(0.0424527 -0.0753195 2.06297)
(0.372584 -0.474353 2.97949)
(-0.00718515 -0.120637 2.55709)
(0.0729284 -0.0986883 2.25014)
(0.0857266 0.0928123 2.83428)
(-0.0366132 -0.234024 4.08214)
(-0.124547 -0.152112 3.31973)
(-0.0205434 -0.083142 2.58838)
(0.114768 -0.00438307 2.48433)
(0.421478 0.0380108 2.79589)
(-0.0502468 -0.0238761 2.58552)
(0.448919 0.402496 2.30151)
(0.164102 0.337798 2.16078)
(0.0559738 0.226599 2.32518)
(-0.0424129 0.233717 2.98194)
(-0.237785 -0.0467683 3.83339)
(0.0286212 0.038687 2.54115)
(0.395703 0.13029 2.16203)
(0.100048 0.0633548 2.1532)
(0.0188866 0.0174703 2.48576)
(-0.200906 0.0914144 2.59551)
(0.0246776 0.291012 2.7395)
(0.277219 -0.0225163 2.20472)
(0.0535135 -0.0339137 2.31189)
(0.0380386 -0.00959303 2.23144)
(0.00685212 0.0018671 2.96888)
(0.320682 -0.208217 3.02939)
(0.163871 -0.118294 2.49339)
(0.0938158 -0.0550479 2.94781)
(0.111131 -0.102688 4.81728)
(-0.116423 -0.14028 4.12437)
(0.0197828 -0.0415905 2.8181)
(0.0808678 -0.00633126 2.75927)
(0.245784 -0.00767336 2.52892)
(-0.0286055 -0.00234932 2.83457)
(0.267235 0.191484 3.58338)
(0.116082 0.447418 2.60683)
(-0.455446 0.856565 2.54056)
(-0.175412 0.553842 1.97143)
(-0.069098 0.0539822 4.76356)
(0.00457214 0.052712 2.78606)
(0.359577 0.15036 2.69147)
(-0.0401785 -0.107897 1.9974)
(-0.664987 -0.651552 2.55378)
(0.0877911 -0.783339 2.15629)
(-0.0795843 0.219719 2.82228)
(0.507591 -0.108829 2.42364)
(0.083616 -0.28092 2.28101)
(-0.098229 -0.749126 1.17397)
(-0.00111379 -0.381689 1.91816)
(0.0980503 0.144801 2.50484)
(0.0710624 -0.274929 1.36084)
(0.273914 -0.124679 2.1121)
(0.157812 -0.0248754 3.28188)
(0.168445 0.143053 2.02809)
(0.252647 0.19006 0.874665)
(0.345745 0.299168 0.844647)
(0.377465 0.846297 0.95607)
(0.184915 0.103618 0.911538)
(0.339471 0.142582 2.2073)
(-0.288832 0.384155 1.95731)
(-0.709807 0.965969 1.83795)
(0.294739 0.740679 0.589795)
(-0.0200955 0.0290791 3.26604)
(0.192087 0.10161 0.943746)
(0.0623227 0.216005 1.81795)
(-0.863159 -0.132575 1.73424)
(-1.14403 -0.407766 1.99766)
(-0.275927 -0.88445 2.92043)
(0.482514 0.0173028 0.988277)
(0.487134 0.082172 1.58473)
(0.298117 0.173394 1.46961)
(0.104948 -0.56247 0.879046)
(0.200069 -1.00939 0.523295)
(0.540433 -0.198331 1.13524)
(0.396601 -0.510829 0.853469)
(0.520407 -0.252676 0.751104)
(0.33077 0.153057 2.97353)
(0.142517 0.0934333 1.4214)
(0.200733 0.210116 1.10031)
(0.286933 0.347069 1.02433)
(0.424713 0.630617 0.883943)
(0.259505 0.101453 1.1362)
(0.14682 -0.039638 1.96061)
(-0.555951 0.211634 2.08741)
(-0.895721 0.746615 1.92885)
(0.04175 -0.125668 0.0372171)
(0.045295 0.0649882 2.92529)
(0.295271 0.0769445 1.18532)
(-0.202371 0.329406 1.91449)
(-1.15203 -0.0193327 2.12228)
(-1.45554 -0.0825506 2.19364)
(-1.94048 -0.062193 3.09585)
(0.362432 0.114928 1.08239)
(0.453056 0.192782 1.70028)
(0.236621 0.379626 1.66939)
(0.0716583 -0.0408771 1.11273)
(0.104536 -0.558054 0.235163)
(0.146782 0.0525592 1.08704)
(0.234988 -0.0352668 1.20449)
(0.477138 -0.116461 0.747816)
(0.208261 0.199985 1.57949)
(0.0763816 0.0186908 1.12503)
(0.106834 0.159642 1.12629)
(0.186794 0.285401 1.1632)
(0.323602 0.416612 0.874282)
(0.236857 0.0203842 1.1414)
(0.110142 -0.0255399 2.19043)
(-0.448618 0.00342978 2.4217)
(-0.814301 0.549487 1.99635)
(0.0313569 -0.269606 0.327055)
(0.158196 0.0898039 2.25332)
(0.337659 0.0233298 1.26133)
(-0.196832 0.372833 2.3197)
(-0.887417 0.139945 2.4691)
(-1.26132 -0.010436 2.26682)
(-0.702901 0.693408 1.53344)
(0.187523 0.107062 1.06913)
(0.428054 0.064829 1.87516)
(0.082217 0.283434 1.90102)
(0.0830972 -0.0140603 1.36934)
(0.0714988 -0.170739 0.543518)
(-0.0197256 0.0239665 1.07225)
(0.0969381 0.0254407 1.37966)
(0.380434 -0.109201 0.80574)
(0.0919525 0.0568593 1.03449)
(0.058147 -0.00142313 1.0144)
(0.0652519 0.0723554 1.08843)
(0.0784127 0.13698 1.20122)
(0.187091 0.20993 0.870366)
(0.16516 -0.00771755 1.09709)
(0.0827545 0.014296 2.25698)
(-0.264272 -0.080916 2.50549)
(-0.351874 0.254089 1.83126)
(0.0598575 -0.0355797 0.475892)
(0.0889349 -0.0201876 1.21994)
(0.188312 -0.065013 1.34725)
(-0.119394 0.280614 2.42391)
(-0.339924 0.219271 2.62086)
(-0.519047 0.114126 2.10791)
(0.111793 0.319449 1.04161)
(0.0956159 0.0722745 1.03683)
(0.348236 -0.0962727 1.89685)
(0.0204525 0.0814521 1.95536)
(0.131838 0.0554647 1.55145)
(0.143528 -0.146225 0.711214)
(-0.0611983 0.0603635 1.06711)
(0.0270004 0.0446116 1.39159)
(0.26299 -0.0738286 0.839178)
(0.0445703 0.0116353 0.928653)
(0.0431215 -0.0151757 0.984338)
(0.0201054 -0.0451793 1.0743)
(0.0110885 -0.0393595 1.19426)
(0.0951675 0.0327311 0.917608)
(0.0485402 -0.0434028 1.07739)
(0.0591598 0.0245399 2.23028)
(-0.22502 -0.0793885 2.45294)
(0.0404788 -0.0342601 1.63512)
(0.0152045 0.0512866 0.59036)
(0.00310073 -0.0788605 0.992451)
(-0.0321597 -0.11299 1.4045)
(-0.10151 0.15268 2.42835)
(-0.10408 0.173041 2.61067)
(0.00528342 0.154154 1.95461)
(0.17843 0.124617 0.918707)
(0.0123775 0.0619251 1.04503)
(0.237017 -0.116769 1.86557)
(-0.0134973 -0.00298369 1.96704)
(0.170914 0.119428 1.64498)
(0.174871 -0.134965 0.876364)
(-0.0570304 0.100638 1.07919)
(0.0111813 0.102674 1.33722)
(0.152229 -0.034281 0.928315)
(0.0196764 -0.00548744 0.980715)
(0.0251669 -0.0268897 1.03709)
(-0.0268944 -0.140317 1.11279)
(-0.0129669 -0.180385 1.20445)
(0.0692957 -0.0517491 1.01807)
(-0.0644183 -0.0901602 1.12385)
(0.00297015 -0.00256297 2.14914)
(-0.181482 -0.106169 2.31861)
(0.186795 -0.16067 1.5178)
(-0.0356591 0.0883677 0.744806)
(-0.0200727 -0.0984212 1.02636)
(-0.185613 -0.119257 1.4186)
(-0.122368 0.0624647 2.39082)
(-0.0378445 0.110528 2.50442)
(0.20988 0.111703 1.83657)
(0.149351 0.00878987 0.984817)
(-0.0566879 0.0650364 1.10601)
(0.0564793 -0.00397943 1.78721)
(-0.0150299 0.003373 1.95001)
(0.17385 0.135035 1.64932)
(0.166618 -0.118466 1.06202)
(-0.0417904 0.114245 1.12849)
(0.0104617 0.126008 1.31798)
(0.0768854 -0.0051524 1.05933)
(0.0076009 -0.00997917 1.11528)
(0.0132954 -0.0305296 1.14998)
(-0.0490651 -0.173288 1.20535)
(-0.00182542 -0.224375 1.26339)
(0.0662102 -0.0692908 1.14658)
(-0.120255 -0.115866 1.21703)
(-0.0849987 -0.111371 1.96557)
(-0.0829886 -0.169925 2.09578)
(0.20183 -0.179969 1.46252)
(-0.0526471 0.0970461 0.900309)
(-0.0261388 -0.097906 1.16126)
(-0.252574 -0.100439 1.4223)
(-0.151252 0.0282119 2.26076)
(0.00486178 0.0572984 2.31398)
(0.260436 0.0565199 1.73138)
(0.103623 -0.05674 1.10088)
(-0.0853802 0.0651798 1.21476)
(-0.0657463 0.103402 1.69988)
(0.0252513 0.072565 1.84834)
(0.174776 0.134088 1.60774)
(0.146415 -0.100722 1.23172)
(-0.0249637 0.0985318 1.23269)
(0.00749687 0.130314 1.33449)
(0.0424431 0.0151467 1.20613)
(0.00561304 -0.00837056 1.25509)
(0.00867764 -0.0284716 1.27552)
(-0.0408416 -0.149158 1.31922)
(0.00874665 -0.179856 1.34647)
(0.0513766 -0.0521369 1.27374)
(-0.114204 -0.107808 1.33156)
(-0.113979 -0.170394 1.80318)
(-0.00521858 -0.196844 1.88545)
(0.184737 -0.167832 1.45495)
(-0.0448028 0.0876451 1.04441)
(-0.0222569 -0.0825468 1.3054)
(-0.229096 -0.0792531 1.44965)
(-0.161983 0.0138122 2.03373)
(0.0393807 0.0207285 2.08422)
(0.234478 0.0217748 1.65436)
(0.070482 -0.07867 1.2143)
(-0.0754916 0.0485111 1.33913)
(-0.0917512 0.133111 1.63378)
(0.0530447 0.112717 1.73168)
(0.164015 0.122021 1.57332)
(0.12537 -0.0927811 1.37502)
(-0.0138913 0.0683583 1.3506)
(-0.00696297 0.104015 1.4069)
(0.0311193 0.0199263 1.34869)
(0.00655734 -0.00513239 1.36212)
(0.00784652 -0.0226824 1.37688)
(-0.023784 -0.106029 1.4071)
(0.0107507 -0.118058 1.41677)
(0.0317381 -0.0320807 1.37126)
(-0.0794306 -0.0798351 1.42299)
(-0.0940334 -0.157546 1.6895)
(0.0265826 -0.169504 1.73397)
(0.139985 -0.129429 1.47105)
(-0.0305045 0.0647037 1.17657)
(-0.0148544 -0.0618539 1.41398)
(-0.148732 -0.0591987 1.49215)
(-0.132613 0.00677748 1.84935)
(0.04474 0.00128754 1.87777)
(0.179068 0.00600249 1.60805)
(0.050128 -0.0735222 1.31341)
(-0.0522539 0.0253658 1.43545)
(-0.0710546 0.108218 1.59469)
(0.0481159 0.0931718 1.65964)
(0.118608 0.0779284 1.55919)
(0.100419 -0.0937642 1.47568)
(-0.00879317 0.039471 1.44598)
(-0.011132 0.063648 1.47617)
(0.0273757 0.0128995 1.45524)
(0.00720506 -0.00269836 1.4324)
(0.00743381 -0.0166166 1.44466)
(-0.0114632 -0.0683817 1.46269)
(0.010228 -0.0708647 1.46415)
(0.0176682 -0.0176892 1.43646)
(-0.0469386 -0.0531664 1.47837)
(-0.059524 -0.115796 1.62188)
(0.0290366 -0.119645 1.64182)
(0.0962358 -0.0915582 1.49512)
(-0.0171693 0.0365227 1.29107)
(-0.00884838 -0.0430106 1.4788)
(-0.0839135 -0.0426405 1.52121)
(-0.086307 0.00131687 1.723)
(0.0341132 -0.00787929 1.73064)
(0.122515 -0.000628231 1.58525)
(0.0393062 -0.0553126 1.39542)
(-0.0332607 0.00922109 1.4929)
(-0.0437021 0.0700671 1.57445)
(0.0337805 0.0576936 1.61376)
(0.0747032 0.0364752 1.55636)
(0.0715062 -0.0942516 1.52376)
(-0.00672839 0.01866 1.50513)
(-0.00882918 0.03161 1.51973)
(0.0239929 0.00473871 1.51312)
(0.00673756 -0.00132038 1.47555)
(0.00663518 -0.0116572 1.486)
(-0.00462496 -0.0417729 1.4954)
(0.0087596 -0.0409887 1.49373)
(0.00992568 -0.0100807 1.47675)
(-0.0246622 -0.0344094 1.50875)
(-0.0315725 -0.0760034 1.58411)
(0.0221458 -0.0749466 1.59018)
(0.0621311 -0.0617881 1.51357)
(-0.00640944 0.0138087 1.38138)
(-0.00505433 -0.0287347 1.513)
(-0.0438633 -0.0292058 1.53599)
(-0.0478418 -0.00253807 1.64502)
(0.0226151 -0.0109756 1.64041)
(0.0774349 -0.00357946 1.57278)
(0.0323231 -0.0359707 1.45617)
(-0.0199258 0.00117697 1.52303)
(-0.0237665 0.0394016 1.56355)
(0.021156 0.0286599 1.58648)
(0.0446435 0.0123582 1.55533)
(0.045155 -0.0789044 1.53558)
(-0.00562248 0.00674336 1.53473)
(-0.00489624 0.0128465 1.54103)
(0.0187237 -1.95335e-05 1.53785)
(0.00553784 -0.000634061 1.50142)
(0.00545954 -0.00800799 1.51004)
(-0.0012134 -0.0249486 1.51422)
(0.00692311 -0.0234083 1.51171)
(0.00560473 -0.00643548 1.50121)
(-0.0117631 -0.0222046 1.52479)
(-0.0145535 -0.0472084 1.56339)
(0.0149169 -0.0440635 1.5627)
(0.0378186 -0.0401276 1.52505)
(0.000453975 0.00131789 1.44592)
(-0.00287539 -0.0189193 1.52983)
(-0.0218244 -0.0195449 1.54231)
(-0.0237409 -0.00443978 1.59971)
(0.0142873 -0.0107645 1.58974)
(0.0462513 -0.00468503 1.56376)
(0.0251264 -0.0215603 1.4951)
(-0.0115147 -0.00196169 1.53719)
(-0.0118747 0.0198357 1.55696)
(0.0126026 0.0110451 1.57019)
(0.0261012 0.00166404 1.55406)
(0.0265571 -0.0535666 1.53532)
(-0.0041262 0.00118019 1.54687)
(-0.00133518 0.00364478 1.54899)
(0.0129427 -0.00171282 1.54608)
(0.00413043 -0.000328107 1.51691)
(0.00425363 -0.00545928 1.52374)
(0.000304994 -0.0148335 1.52517)
(0.00511118 -0.0134928 1.52275)
(0.00299414 -0.0044661 1.51634)
(-0.00502344 -0.0143717 1.53318)
(-0.00568057 -0.0286829 1.5522)
(0.00947614 -0.0251943 1.54901)
(0.0217332 -0.0253529 1.53165)
(0.00333097 -0.00314264 1.48791)
(-0.00165622 -0.0124067 1.53769)
(-0.0105302 -0.0130027 1.54449)
(-0.0108281 -0.0047898 1.57393)
(0.00885176 -0.00922051 1.56287)
(0.0264221 -0.00470279 1.55697)
(0.0175558 -0.0128021 1.51751)
(-0.00658774 -0.0026977 1.54321)
(-0.00550514 0.00893482 1.55254)
(0.00737528 0.00232205 1.56031)
(0.0151239 -0.00193271 1.55285)
(0.0150851 -0.0311256 1.53576)
(-0.00271954 -0.00055187 1.54992)
(0.00039844 0.00014216 1.55068)
(0.00816469 -0.00181673 1.54773)
(0.00287676 -0.000190497 1.52635)
(0.00318658 -0.00371598 1.53151)
(0.000817466 -0.00891173 1.53169)
(0.00357392 -0.00790385 1.52971)
(0.00143876 -0.00316889 1.52595)
(-0.00180235 -0.00934206 1.53758)
(-0.00159413 -0.0173516 1.54638)
(0.00582697 -0.0144117 1.5427)
(0.0117927 -0.0156837 1.53547)
(0.00343947 -0.003613 1.51304)
(-0.000963463 -0.00815704 1.54116)
(-0.00496009 -0.00864891 1.54493)
(-0.00459197 -0.0043005 1.55946)
(0.00553789 -0.00723243 1.54916)
(0.0145813 -0.00420579 1.55218)
(0.0110358 -0.00791784 1.52972)
(-0.00376877 -0.00247627 1.54522)
(-0.00231298 0.0034089 1.54941)
(0.00429429 -0.00113655 1.55429)
(0.00852429 -0.00269325 1.55173)
(0.00838115 -0.0165215 1.53804)
(-0.00201181 -0.000917032 1.54974)
(0.000864437 -0.00104516 1.54989)
(0.00488846 -0.00142369 1.5472)
(0.00191903 -0.000124195 1.53217)
(0.00231176 -0.00250373 1.53596)
(0.000853624 -0.00542251 1.53564)
(0.00239761 -0.00473529 1.53417)
(0.000611002 -0.00224577 1.53201)
(-0.000363766 -0.00609797 1.53984)
(7.47479e-05 -0.0104968 1.54344)
(0.0035381 -0.00846661 1.54017)
(0.00602109 -0.00953263 1.53775)
(0.00237589 -0.00293891 1.52696)
(-0.000569441 -0.00538465 1.54253)
(-0.00229564 -0.00574758 1.54467)
(-0.0018283 -0.00351618 1.5514)
(0.00347455 -0.00532672 1.54245)
(0.00780999 -0.00350309 1.54904)
(0.00636563 -0.00516767 1.53625)
(-0.00217012 -0.00198241 1.54547)
(-0.000777341 0.00083681 1.54719)
(0.00251965 -0.0020691 1.55065)
(0.00454247 -0.00244207 1.55073)
(0.00461135 -0.00854819 1.54033)
(-0.00127328 -0.00098582 1.54833)
(0.00100159 -0.00132821 1.54831)
(0.00287777 -0.000984986 1.54625)
(0.00124176 -8.46763e-05 1.53581)
(0.00164173 -0.00168897 1.5385)
(0.000719235 -0.00333755 1.53807)
(0.00155127 -0.00286406 1.53705)
(0.00023671 -0.00156599 1.53584)
(0.000204603 -0.00400926 1.54099)
(0.000629001 -0.00636214 1.54203)
(0.00213016 -0.00517153 1.53942)
(0.00285079 -0.00570693 1.53914)
(0.0012423 -0.00219509 1.53437)
(-0.000354725 -0.00358415 1.54295)
(-0.00102283 -0.00382016 1.54423)
(-0.000711958 -0.00270184 1.54687)
(0.00222664 -0.0037317 1.53927)
(0.0040753 -0.00277568 1.54706)
(0.00335678 -0.00345009 1.53957)
(-0.00125149 -0.0014573 1.54507)
(-4.49712e-05 -0.000215104 1.54564)
(0.00146093 -0.00195902 1.54838)
(0.00255228 -0.00187927 1.5499)
(0.0025998 -0.0045818 1.54173)
(-0.000768286 -0.000768433 1.54683)
(0.000883163 -0.00119034 1.54683)
(0.00168855 -0.000643887 1.54532)
(0.000775022 -5.40616e-05 1.5381)
(0.00116067 -0.00112567 1.53999)
(0.000529532 -0.00207784 1.53958)
(0.000988684 -0.00177027 1.53893)
(0.000100855 -0.0010523 1.53826)
(0.000351227 -0.00266078 1.54161)
(0.000739772 -0.00385034 1.54139)
(0.00127503 -0.0032693 1.53938)
(0.00118928 -0.00336389 1.54005)
(0.000452333 -0.00154956 1.53824)
(-0.000231651 -0.0023745 1.54299)
(-0.000441661 -0.0025408 1.54379)
(-0.000268116 -0.00199041 1.54428)
(0.00144186 -0.00250624 1.53786)
(0.00207261 -0.00213309 1.54589)
(0.00173304 -0.00223442 1.54127)
(-0.000721012 -0.00101503 1.5445)
(0.000270299 -0.000575794 1.54449)
(0.000801905 -0.00153363 1.54691)
(0.00156813 -0.00138043 1.54925)
(0.00151113 -0.00260096 1.54234)
(-0.000452286 -0.000524916 1.54556)
(0.000698976 -0.000923161 1.54567)
(0.000986851 -0.000414467 1.54455)
(0.000456739 -3.86337e-05 1.53957)
(0.000795293 -0.000752847 1.54085)
(0.000346858 -0.0013197 1.54051)
(0.00061232 -0.00115121 1.54015)
(6.34946e-05 -0.000705051 1.53977)
(0.000314983 -0.0017833 1.54191)
(0.000701433 -0.00230961 1.54107)
(0.00077803 -0.00213627 1.53958)
(0.000351466 -0.00193396 1.54067)
(0.000201595 -0.00102813 1.54016)
(-0.000151307 -0.00157197 1.54288)
(-0.000197897 -0.00169346 1.54342)
(-0.000137961 -0.0014281 1.54276)
(0.000979901 -0.00162435 1.53715)
(0.00104486 -0.00162315 1.54518)
(0.00105174 -0.00142938 1.54205)
(-0.000405252 -0.000677262 1.54396)
(0.000379394 -0.000623403 1.54365)
(0.000416778 -0.00111668 1.54597)
(0.0010109 -0.000997648 1.54878)
(0.00088163 -0.00152389 1.54259)
(-0.000267004 -0.000333113 1.54462)
(0.000521678 -0.000671983 1.54484)
(0.000576193 -0.00025674 1.54393)
(0.000255014 -2.80934e-05 1.54053)
(0.000528967 -0.000478118 1.5414)
(0.000207628 -0.000860726 1.54114)
(0.000365366 -0.000789289 1.54096)
(6.39659e-05 -0.000467528 1.54073)
(0.000229216 -0.00121018 1.54209)
(0.000602501 -0.00135533 1.54094)
(0.000502487 -0.00144428 1.53983)
(-3.85621e-05 -0.00105502 1.54106)
(9.62986e-05 -0.000743053 1.54106)
(-0.000105474 -0.00107872 1.54275)
(-0.000112802 -0.00113883 1.54316)
(-0.000118693 -0.00100711 1.54189)
(0.000714755 -0.00101794 1.53692)
(0.000538124 -0.00124555 1.54478)
(0.000671397 -0.000916851 1.54249)
(-0.000214895 -0.000422148 1.54353)
(0.000394834 -0.000579997 1.54307)
(0.000173001 -0.000763563 1.54536)
(0.000662716 -0.000710304 1.54843)
(0.000553183 -0.000956061 1.54267)
(-0.000165522 -0.000202404 1.54396)
(0.000375937 -0.000465745 1.54426)
(0.000345777 -0.000142026 1.54345)
(0.000142068 -2.22335e-05 1.54115)
(0.000362651 -0.000307787 1.54174)
(0.000104948 -0.000567129 1.54155)
(0.000208029 -0.000567471 1.54151)
(8.00473e-05 -0.000314653 1.54136)
(0.000149616 -0.00084227 1.54219)
(0.000507363 -0.000754219 1.54092)
(0.000320803 -0.000962686 1.54005)
(-0.000197798 -0.000531694 1.54128)
(2.37631e-05 -0.00055629 1.54155)
(-6.96332e-05 -0.000762214 1.54265)
(-9.69716e-05 -0.000778913 1.54297)
(-9.1719e-05 -0.000704897 1.54139)
(0.000510791 -0.000620831 1.53692)
(0.00025306 -0.000963099 1.54454)
(0.0004383 -0.00062186 1.54272)
(-0.000107267 -0.000237117 1.54321)
(0.000380977 -0.00052472 1.54265)
(1.27053e-05 -0.00054421 1.54497)
(0.000456208 -0.000480055 1.54817)
(0.000389128 -0.000650977 1.54265)
(-0.000109435 -0.000137841 1.54349)
(0.000271712 -0.00032994 1.54387)
(0.000215953 -5.97966e-05 1.54312)
(6.78377e-05 -2.80836e-05 1.54155)
(0.000269074 -0.000206674 1.54196)
(3.22575e-05 -0.000369654 1.54183)
(0.000108243 -0.000411247 1.54189)
(0.000102836 -0.000201815 1.54178)
(9.41724e-05 -0.000606795 1.54226)
(0.000435172 -0.000377887 1.5409)
(0.000180011 -0.000630433 1.54023)
(-0.000259669 -0.00021508 1.54143)
(-1.262e-05 -0.000403807 1.54187)
(-4.15927e-05 -0.000538931 1.54256)
(-9.83921e-05 -0.000540862 1.54284)
(-5.72378e-05 -0.000496939 1.54105)
(0.000388249 -0.000341815 1.53686)
(6.86408e-05 -0.000746645 1.54442)
(0.000282628 -0.000409375 1.54285)
(-4.85194e-05 -0.000110441 1.54298)
(0.000372229 -0.000470532 1.54236)
(-8.56058e-05 -0.000432239 1.54475)
(0.000339555 -0.000305383 1.54798)
(0.000303058 -0.000463107 1.5426)
(-7.39922e-05 -8.97058e-05 1.54316)
(0.000200496 -0.000238295 1.5436)
(0.000139036 3.82579e-06 1.5429)
(2.24595e-05 -3.01763e-05 1.54184)
(0.000191702 -0.000129344 1.5421)
(-2.15074e-05 -0.000238623 1.54201)
(4.68066e-05 -0.000297136 1.54214)
(0.000123504 -0.000117196 1.54205)
(5.91903e-05 -0.000452488 1.5423)
(0.000375621 -0.000152373 1.54089)
(9.74012e-05 -0.000430001 1.54034)
(-0.000270327 -1.98823e-05 1.54155)
(-1.94053e-05 -0.000290652 1.54208)
(-3.23018e-05 -0.00038263 1.54248)
(-0.000105204 -0.000381252 1.54275)
(-4.74659e-05 -0.000358573 1.54085)
(0.000321586 -0.00015893 1.53674)
(-3.37884e-05 -0.000595836 1.54437)
(0.000173266 -0.000252942 1.5429)
(-2.07739e-05 -2.71407e-05 1.54282)
(0.000358809 -0.000415382 1.54216)
(-0.000143094 -0.000356526 1.54464)
(0.000263852 -0.000184936 1.54785)
(0.000249302 -0.000342194 1.54256)
(-4.79614e-05 -5.1224e-05 1.54292)
(0.000154575 -0.000183182 1.5434)
(8.23805e-05 5.11244e-05 1.54275)
(-4.40673e-07 -2.20885e-05 1.54203)
(0.000125432 -6.32965e-05 1.54219)
(-5.42616e-05 -0.000156919 1.54214)
(9.61427e-06 -0.000219558 1.54231)
(0.000141028 -5.82059e-05 1.54222)
(3.85803e-05 -0.000348194 1.54233)
(0.000317951 -1.96215e-05 1.54089)
(5.34331e-05 -0.000315599 1.54045)
(-0.000260577 0.000112217 1.54164)
(-1.45175e-05 -0.000210949 1.5422)
(-3.93994e-05 -0.000275059 1.54244)
(-0.000111005 -0.000275894 1.54269)
(-6.1245e-05 -0.000262466 1.54078)
(0.00030596 -2.89354e-05 1.53662)
(-7.31907e-05 -0.000495181 1.54434)
(9.89174e-05 -0.000142459 1.54292)
(-1.0147e-05 2.98102e-05 1.54271)
(0.000341085 -0.000365216 1.54204)
(-0.000179296 -0.000280734 1.54455)
(0.000209304 -0.000107185 1.54774)
(0.000214209 -0.000261253 1.54252)
(-2.81738e-05 -2.34605e-05 1.54276)
(0.000122927 -0.000154031 1.54326)
(3.86005e-05 8.32586e-05 1.54265)
(-2.58399e-05 -1.08084e-05 1.54214)
(8.64961e-05 -2.25199e-05 1.54224)
(-7.05882e-05 -0.000111784 1.54222)
(-1.19966e-05 -0.000168601 1.54241)
(0.000155178 -2.12889e-05 1.54232)
(2.5889e-05 -0.000276063 1.54234)
(0.000297739 7.05509e-05 1.5409)
(2.70208e-05 -0.000247593 1.54056)
(-0.000270339 0.000194638 1.54173)
(-9.25283e-06 -0.000156007 1.54229)
(-3.88515e-05 -0.00019815 1.54241)
(-0.000108811 -0.000204443 1.54265)
(-7.95719e-05 -0.000187532 1.54076)
(0.000278362 4.17834e-05 1.53658)
(-9.11053e-05 -0.000436306 1.54427)
(5.6563e-05 -7.08463e-05 1.54292)
(-4.9859e-06 7.16773e-05 1.54263)
(0.000326909 -0.000334525 1.54197)
(-0.00020755 -0.000216903 1.54447)
(0.000172744 -5.04974e-05 1.54766)
(0.000189566 -0.000208239 1.5425)
(-1.45349e-05 -8.9171e-06 1.54264)
(9.82199e-05 -0.0001362 1.54314)
(6.86356e-06 0.000104323 1.54258)
(-5.131e-05 -2.42039e-06 1.54221)
(7.69948e-05 -8.15357e-06 1.54228)
(-7.88428e-05 -8.39874e-05 1.54227)
(-2.52991e-05 -0.000135506 1.54248)
(0.000165035 -2.25765e-06 1.54239)
(1.94162e-05 -0.000227998 1.54234)
(0.000297225 0.000141804 1.54091)
(2.60128e-05 -0.00020525 1.54061)
(-0.000286798 0.000232536 1.54177)
(-7.62258e-06 -0.000117136 1.54234)
(-3.01728e-05 -0.000146413 1.54239)
(-0.000101751 -0.000161641 1.54262)
(-8.69098e-05 -0.000139189 1.54073)
(0.000244688 7.68552e-05 1.5366)
(-9.00126e-05 -0.00039401 1.54423)
(3.89678e-05 -2.79158e-05 1.54292)
(-2.50673e-06 9.99311e-05 1.54257)
(0.000316426 -0.000322587 1.54191)
(-0.000233574 -0.000169092 1.5444)
(0.000153984 -4.24058e-06 1.5476)
(0.000170432 -0.000171514 1.54248)
(-6.23488e-06 -5.30753e-06 1.54256)
(7.91628e-05 -0.000120273 1.54306)
(-1.45436e-05 0.000114749 1.54253)
(-6.07201e-05 7.36336e-06 1.54225)
(8.26929e-05 -7.99829e-06 1.54228)
(-8.02534e-05 -6.29309e-05 1.5423)
(-2.76304e-05 -0.000115661 1.54251)
(0.000171906 7.72656e-06 1.54243)
(1.74896e-05 -0.000199975 1.54232)
(0.000302462 0.00018757 1.54089)
(2.49973e-05 -0.000174826 1.54061)
(-0.000290292 0.000256138 1.54179)
(-8.42491e-06 -8.96506e-05 1.54237)
(-2.03127e-05 -0.000118299 1.54235)
(-9.36753e-05 -0.000136521 1.54259)
(-8.82803e-05 -0.000102181 1.54069)
(0.000221934 9.01042e-05 1.53662)
(-9.35261e-05 -0.000372315 1.54424)
(3.26314e-05 -1.34035e-06 1.54292)
(-2.31178e-06 0.000121051 1.54253)
(0.000311866 -0.000316182 1.54185)
(-0.000245848 -0.00014756 1.54436)
(0.000148865 2.76877e-05 1.54758)
(0.000160507 -0.000148264 1.54248)