# vtk DataFile Version 3.0
Generated by LIGGGHTS
ASCII
DATASET POLYDATA
POINTS 28606 float
-0.00342839 -0.0225072 0.150988 -0.00886585 -0.0183545 0.151074 -0.0102821 -0.0165927 0.15104 
-0.00187742 -0.0167605 0.151037 -0.0180898 -0.0149512 0.151065 -0.00132067 -0.0124875 0.151024 
-0.0170689 -0.0117087 0.151016 -0.0185272 -0.0110194 0.151028 -0.0163347 -0.00961418 0.151042 
-0.0146512 -0.00958202 0.151033 -0.000471719 -0.00867736 0.151074 -0.00534587 -0.00758814 0.151059 
-0.0125759 -0.00499165 0.151024 -0.000855968 -0.00425898 0.151015 -0.0204703 -0.00355566 0.151056 
-0.00704865 -0.00318096 0.150969 -0.00248198 -0.00209733 0.150998 -0.00106689 -0.000757795 0.151081 
-0.00671013 -0.000578836 0.151042 -0.00103887 -0.0232469 0.151136 -0.00581657 -0.0225379 0.151229 
-0.00351643 -0.0215857 0.151337 -0.0012317 -0.021183 0.151229 -0.00925605 -0.0199525 0.151388 
-0.00875402 -0.0188508 0.151255 -0.0121195 -0.0173743 0.151278 -0.00647063 -0.0173617 0.151211 
-0.00554494 -0.0162487 0.151107 -0.00503597 -0.0159676 0.15137 -0.00653202 -0.0151161 0.151214 
-0.0127639 -0.0146561 0.151155 -0.018217 -0.014431 0.151208 -0.018161 -0.0139178 0.151301 
-0.0151646 -0.0136424 0.151156 -0.0124268 -0.0134621 0.151104 -0.0105518 -0.0135305 0.151229 
-0.0149898 -0.0129279 0.151204 -0.0142892 -0.012398 0.151289 -0.0174212 -0.0120219 0.151255 
-0.0144122 -0.0119058 0.15119 -0.01958 -0.0112388 0.151361 -0.0207447 -0.0109634 0.151304 
-0.0108956 -0.0108557 0.151313 -0.0171764 -0.00999166 0.151159 -0.00810891 -0.00994132 0.151181 
-0.0190067 -0.00945335 0.15114 -0.017003 -0.00928411 0.151303 -0.00909321 -0.00911077 0.15117 
-0.00374638 -0.00889545 0.151157 -0.0102271 -0.00838229 0.151174 -0.00135817 -0.00831099 0.151156 
-0.020718 -0.00779227 0.151094 -0.00463836 -0.00743703 0.151354 -0.0217401 -0.00709313 0.151178 
-0.0130948 -0.00668065 0.151169 -0.020922 -0.00617311 0.151137 -0.00702226 -0.00617025 0.151326 
-0.00103923 -0.00577317 0.151268 -0.00181522 -0.00544181 0.151208 -0.0118447 -0.00498875 0.151311 
-0.0184303 -0.00473848 0.151277 -0.0208226 -0.00393866 0.151358 -0.0219384 -0.00323542 0.151178 
-0.0195432 -0.00276276 0.15136 -0.0201933 -0.00154218 0.151143 -0.00521266 -0.00124016 0.15115 
-0.00161921 -0.00108634 0.151192 -0.0145192 -0.000877998 0.151209 -0.011074 -0.00038027 0.151093 
-0.00276145 -0.0227615 0.15159 -0.00457769 -0.0217507 0.151417 -0.00877514 -0.0213535 0.15167 
-0.00444617 -0.0203468 0.151602 -0.010485 -0.0191933 0.151509 -0.00598825 -0.017528 0.151457 
-0.0158079 -0.0163353 0.151577 -0.010229 -0.015625 0.151431 -0.000501489 -0.0155257 0.151595 
-0.0113713 -0.0150965 0.151516 -0.00849228 -0.0142939 0.151411 -0.00173464 -0.014038 0.151541 
-0.00623269 -0.0132746 0.151508 -0.0171305 -0.0131543 0.151691 -0.0186265 -0.0128579 0.15161 
-0.00308245 -0.0127712 0.151494 -0.009896 -0.0125014 0.151498 -0.0127931 -0.0116903 0.151629 
-0.0174953 -0.0113241 0.151443 -0.00969458 -0.0113534 0.151576 -0.00514196 -0.0113547 0.151675 
-0.00379966 -0.011352 0.151573 -0.00558096 -0.0106557 0.151567 -0.000857715 -0.0101188 0.151402 
-0.0177021 -0.00992297 0.151648 -0.0111374 -0.00940565 0.15159 -0.0082487 -0.00945597 0.151627 
-0.0143449 -0.00901278 0.151495 -0.0123077 -0.00892466 0.151599 -0.0204566 -0.00872613 0.151533 
-0.0157627 -0.0086646 0.151553 -0.0107585 -0.00872473 0.151545 -0.00377851 -0.00846602 0.151657 
-0.00885546 -0.00821576 0.151587 -0.0166981 -0.00807737 0.151494 -0.00643369 -0.00744537 0.151499 
-0.00413919 -0.00728736 0.151515 -0.0187269 -0.00689167 0.151506 -0.012453 -0.00649461 0.151397 
-0.004725 -0.00651698 0.151405 -0.000340115 -0.00580524 0.151523 -0.0132583 -0.00551723 0.151466 
-0.0177886 -0.00529345 0.151642 -0.0127871 -0.0052152 0.151477 -0.0211736 -0.00492294 0.151583 
-0.0204536 -0.00496485 0.151672 -0.0148313 -0.00490333 0.15167 -0.00832252 -0.00459995 0.151566 
-0.00117758 -0.0045748 0.151513 -0.0194454 -0.00438747 0.151439 -0.0121159 -0.00391765 0.151476 
-0.0110476 -0.00410781 0.15148 -0.00953612 -0.00362399 0.151569 -0.00674942 -0.00303955 0.151521 
-0.0179996 -0.00300742 0.151427 -0.00505476 -0.00291789 0.151564 -0.00347476 -0.00275708 0.151591 
-0.0205275 -0.0024928 0.15164 -0.0211454 -0.000617815 0.151532 -0.00461836 -0.000321428 0.151426 
-0.00353749 -0.023153 0.151756 -0.00204135 -0.0224258 0.151868 -0.00332489 -0.0219225 0.151892 
-0.00211542 -0.0218274 0.151934 -0.00125406 -0.0209521 0.151917 -0.00364639 -0.0203649 0.151766 
-0.000985551 -0.0201495 0.151831 -0.0140015 -0.0184158 0.151749 -0.0115532 -0.0176257 0.151851 
-0.00867146 -0.0177627 0.151989 -0.0155871 -0.0172874 0.151871 -0.0135401 -0.0174663 0.151908 
-0.0159506 -0.0169028 0.151986 -0.0143147 -0.0169378 0.151793 -0.0127473 -0.0170357 0.151799 
-0.00779194 -0.0171098 0.151753 -0.0178618 -0.0143664 0.151961 -0.0101114 -0.014084 0.15196 
-0.0113768 -0.0136645 0.151957 -0.0131175 -0.0129934 0.151925 -0.00951571 -0.01302 0.151806 
-0.003618 -0.0131961 0.151889 -0.00857746 -0.0123782 0.151955 -0.00649968 -0.0121125 0.151851 
-0.000887165 -0.011577 0.151835 -0.0114046 -0.0113533 0.15177 -0.0105321 -0.0110177 0.151842 
-0.00858436 -0.0108905 0.15191 -0.00479096 -0.0106556 0.151916 -0.0123441 -0.00983205 0.151773 
-0.00414353 -0.00977754 0.151695 -0.0194401 -0.00947407 0.151848 -0.0148665 -0.00924619 0.151778 
-0.0189674 -0.0081905 0.151839 -0.0182222 -0.00828135 0.151953 -0.0142959 -0.00800176 0.151798 
-0.0135017 -0.00688037 0.151823 -0.00869736 -0.00647626 0.151889 -0.0201809 -0.00542482 0.151819 
-0.0210912 -0.00537445 0.151905 -0.00681246 -0.00496618 0.151874 -0.016463 -0.00477883 0.151831 
-0.013489 -0.00456069 0.151895 -0.013447 -0.00376653 0.151783 -0.00136344 -0.00284091 0.151773 
-0.00819094 -0.00220051 0.151807 -0.0157665 -0.00149716 0.151929 -0.0117438 -0.00121052 0.151956 
-0.00484056 -0.0217798 0.15214 -0.000536816 -0.0217686 0.152035 -0.00219782 -0.0202151 0.152151 
-0.0119169 -0.0197692 0.152019 -0.00850934 -0.0189414 0.15211 -0.0132996 -0.0180409 0.152199 
-0.0149732 -0.0161743 0.152097 -0.00392154 -0.0153214 0.15201 -0.0151549 -0.0149187 0.152098 
-0.0132225 -0.0149956 0.152062 -0.0113042 -0.0150249 0.152136 -0.00027631 -0.0144446 0.152224 
-0.015268 -0.0120439 0.152192 -0.0117486 -0.0120356 0.152017 -0.0150106 -0.0113434 0.152276 
-0.0128238 -0.0112036 0.152199 -0.0029761 -0.0113112 0.152174 -0.00158065 -0.0109826 0.152195 
-0.0142122 -0.0103087 0.152218 -0.0162256 -0.0101549 0.152072 -0.00709661 -0.0101828 0.152256 
-0.0173344 -0.00990318 0.152273 -0.000313781 -0.00971026 0.152173 -0.0106089 -0.00944184 0.152052 
-0.00860385 -0.00946556 0.152193 -0.0163067 -0.00919988 0.152263 -0.0124909 -0.00852038 0.152134 
-0.0113667 -0.00863362 0.152201 -0.00878557 -0.00860005 0.152227 -0.00100025 -0.00870774 0.152145 
-0.010462 -0.00835262 0.152068 -0.000533205 -0.00808414 0.152134 -0.0162604 -0.00754857 0.152275 
-0.0087995 -0.00765071 0.152055 -0.00511516 -0.00755004 0.152055 -0.00382459 -0.00741573 0.152279 
-0.0215876 -0.00690542 0.152171 -0.0167204 -0.006767 0.152163 -0.00356449 -0.00684253 0.15209 
-0.0122125 -0.00624687 0.15211 -0.0179228 -0.00584278 0.152133 -0.0172377 -0.00569595 0.152169 
-0.00201097 -0.00536463 0.151993 -0.0141727 -0.00491298 0.152059 -0.0175131 -0.00478716 0.152009 
-0.000885349 -0.00456198 0.152204 -0.0166783 -0.00441376 0.152234 -0.00926492 -0.00444312 0.152231 
-0.0218517 -0.00349796 0.152117 -0.0170362 -0.00337347 0.152249 -0.0189378 -0.00285197 0.152143 
-0.0028847 -0.00272751 0.152192 -0.0170459 -0.00259325 0.152277 -0.00505325 -0.000992279 0.152278 
-0.00155627 -0.000806339 0.152208 -0.0220109 -0.000591064 0.15206 -0.00818226 -0.0207338 0.152512 
-0.00673089 -0.0205394 0.152574 -0.0109157 -0.0190574 0.15232 -0.00385181 -0.0184071 0.152543 
-0.013596 -0.0181428 0.152592 -0.00797658 -0.0183652 0.15239 -0.00627913 -0.0183345 0.152336 
-0.00193621 -0.0179289 0.152445 -0.0127347 -0.017557 0.152413 -0.00606795 -0.0174703 0.152468 
-0.0139777 -0.0173626 0.15256 -0.0164245 -0.0153744 0.152408 -0.0155855 -0.0151241 0.152372 
-0.00909914 -0.0147452 0.152358 -0.0121221 -0.0142698 0.152361 -0.00360546 -0.0139034 0.152565 
-0.00114738 -0.0140251 0.15244 -0.00822238 -0.0135959 0.152382 -0.00669832 -0.0135819 0.152409 
-0.00877747 -0.0134015 0.152519 -0.0178519 -0.0131414 0.152558 -0.00268677 -0.0130827 0.152324 
-0.0148471 -0.0127569 0.152414 -0.0124352 -0.0125528 0.152402 -0.00875498 -0.011423 0.152485 
-0.00677926 -0.0109756 0.152385 -0.0163305 -0.0106372 0.152323 -0.00962462 -0.0105365 0.15251 
-0.00146875 -0.0102471 0.152537 -0.000894062 -0.0099968 0.152444 -0.0110144 -0.0092767 0.152501 
-0.0150147 -0.00874963 0.152326 -0.0169218 -0.00728983 0.152472 -0.0172405 -0.00609573 0.152494 
-0.0147139 -0.00570709 0.152298 -0.00369026 -0.00563156 0.152367 -0.00421036 -0.00503313 0.152342 
-0.00355319 -0.00504294 0.152295 -0.0222181 -0.00470167 0.152568 -0.0208338 -0.00389777 0.152347 
-0.00355171 -0.00363911 0.152317 -0.00657887 -0.00356493 0.152525 -0.0135196 -0.0030252 0.152579 
-0.0201542 -0.00219468 0.152503 -0.0193656 -0.00214578 0.15237 -0.00936686 -0.00228697 0.152468 
-0.00302729 -0.0021038 0.152481 -0.0126806 -0.00166479 0.152391 -0.00192965 -0.00163121 0.152448 
-0.0232624 -0.0013306 0.152418 -0.00705414 -0.00147186 0.15232 -0.00597046 -0.000491706 0.152299 
-0.00556067 -0.0221208 0.152603 -0.00681206 -0.0217195 0.152676 -0.00277958 -0.0218467 0.152767 
-0.0101566 -0.0207043 0.152833 -0.00256695 -0.0202932 0.152825 -0.0105732 -0.0194403 0.152693 
-0.00647488 -0.0183189 0.152861 -0.0044824 -0.0182309 0.152649 -0.0026381 -0.0174968 0.152746 
-0.0144922 -0.016704 0.152758 -0.00157959 -0.0166858 0.152685 -0.00497168 -0.0165642 0.152661 
-0.00810367 -0.0158819 0.152669 -0.00140056 -0.0156665 0.152826 -0.013498 -0.0155644 0.152804 
-0.00358038 -0.0154708 0.152685 -0.0159854 -0.0140068 0.152877 -0.000589492 -0.0140949 0.152857 
-0.0131595 -0.0135258 0.15275 -0.0169711 -0.0131679 0.152632 -0.0166285 -0.0125401 0.152732 
[...]
POINT_DATA 28606
FIELD FieldData 7
id 1 28606 int
532 302 548 645 43 707 262 23 588 
633 324 207 644 409 260 683 253 71 
519 40 347 100 55 233 432 278 141 
354 665 273 643 546 249 440 507 599 
67 348 558 89 25 251 327 360 241 
221 169 556 596 332 107 436 416 490 
35 669 487 214 184 212 438 481 36 
68 687 451 48 563 575 195 126 610 
449 65 639 705 111 88 710 94 236 
483 312 407 222 172 122 304 210 197 
27 34 576 446 345 641 600 136 186 
485 70 85 391 160 561 2 613 353 
56 311 618 675 98 313 394 463 314 
145 423 499 713 543 46 296 129 321 
404 397 587 41 508 140 628 444 725 
193 216 259 234 42 11 155 203 551 
7 201 61 319 689 714 376 269 604 
698 367 128 263 329 168 477 213 676 
119 261 176 44 369 424 418 131 223 
359 318 306 378 115 530 10 511 350 
149 244 45 317 187 728 709 672 456 
517 520 246 523 139 493 654 684 601 
567 647 371 19 667 403 308 292 153 
390 199 235 305 555 211 629 458 498 
120 392 462 363 614 571 594 402 607 
729 294 26 516 64 80 240 358 679 
232 349 344 224 39 718 699 3 704 
175 257 133 541 535 582 457 372 421 
450 334 255 81 250 459 513 328 351 
460 574 137 277 266 405 572 103 22 
656 568 303 611 102 486 173 6 385 
388 552 58 717 625 183 453 217 655 
301 190 315 428 326 434 307 606 524 
598 383 659 231 16 480 146 230 254 
547 592 4 540 500 566 401 365 398 
439 395 333 198 422 380 299 476 49 
74 265 366 715 580 497 640 152 279 
581 494 32 370 162 342 668 243 670 
325 24 132 38 87 503 192 686 393 
77 573 202 15 322 602 158 539 267 
86 437 3315 109 583 282 608 624 637 
159 452 443 69 711 298 622 215 180 
352 368 47 565 646 495 79 585 182 
505 706 695 482 60 108 309 677 181 
471 649 245 110 455 72 653 170 204 
518 441 502 527 431 716 361 531 638 
615 635 533 121 339 50 467 661 166 
406 105 373 59 288 538 657 29 726 
375 685 719 701 142 130 208 616 542 
316 545 271 472 28 51 272 343 648 
688 410 534 310 412 420 464 20 13 
189 506 5 666 157 590 148 419 399 
579 522 509 280 414 185 626 123 554 
30 515 134 289 3164 724 691 205 112 
411 682 78 90 226 623 448 62 727 
408 619 664 287 188 125 91 178 525 
268 330 468 586 3150 335 364 381 630 
54 355 164 697 632 415 337 135 537 
514 238 33 293 442 118 544 564 84 
612 220 469 3239 163 8 96 430 475 
708 473 426 179 106 427 247 2866 256 
384 465 696 597 73 663 526 389 461 
374 650 445 99 484 3558 549 167 252 
200 114 156 357 2891 147 577 76 489 
488 37 286 491 3510 593 609 113 433 
3346 673 95 297 478 138 284 66 209 
447 603 165 678 386 671 3240 496 225 
479 151 722 3060 83 3278 2894 435 53 
340 470 237 239 124 720 338 562 474 
721 702 3311 652 536 3525 3445 281 658 
3004 290 521 3513 242 3500 331 174 3440 
3427 3280 3023 631 550 3297 101 642 605 
504 3055 3109 553 3136 196 3473 229 690 
429 3509 2878 3081 127 3388 191 693 63 
617 275 3369 3394 382 3516 3027 2901 3538 
270 589 295 2986 595 3973 501 3032 3137 
3494 3252 3485 104 396 3098 2909 570 3206 
510 662 4302 323 3581 3536 377 3303 379 
116 336 52 9 413 703 3222 3569 1 
3251 4251 3019 4422 3367 3044 417 3532 3040 
3007 3154 3273 3448 3426 681 660 1142 557 
3578 300 387 258 620 700 528 82 3486 
2987 3047 621 2969 2942 3419 285 3551 3009 
264 3092 636 3694 3805 584 3726 559 2991 
3444 3345 2937 17 4397 161 917 3424 3986 
2952 3001 2880 578 144 560 1958 341 692 
591 3384 3561 3463 218 356 680 2983 291 
3338 3576 627 3524 3190 3229 31 3452 3108 
3076 3374 2926 177 3334 3541 492 14 3470 
674 3843 3249 3364 117 12 3418 3542 694 
400 2964 57 3029 723 320 3368 651 3391 
3306 3402 143 634 13197 75 150 3140 2921 
3196 97 206 2959 3432 3185 2885 25895 2968 
248 2865 3407 3051 3065 2902 3208 93 3423 
425 2904 3031 3005 2953 3287 3502 3476 3199 
3382 3589 346 92 3562 3103 2961 3506 3102 
3143 3508 3480 2879 3025 2864 3312 154 228 
3244 3128 3050 3351 3335 466 3082 3212 3400 
3331 3293 3066 2873 219 2938 3219 3097 3314 
227 3018 2985 3393 3308 3320 3217 3460 3258 
3145 3371 3430 3276 2945 274 3184 3024 3230 
569 3503 3058 3088 3043 2881 3161 2895 3568 
3326 3234 2870 3496 2989 2958 2946 3215 3204 
3012 3429 3149 3277 2863 3078 2892 3475 3387 
21 3173 3067 3036 3313 2996 3053 3174 3233 
3488 3483 3211 3443 3034 3073 2913 2935 3291 
2994 3421 3464 3236 3134 3458 2967 3584 3017 
3544 3339 3002 3535 3555 2933 3247 3474 3214 
3493 3153 3380 3404 3008 2906 3231 2884 3413 
3379 3543 3010 3449 3332 3526 3061 362 3159 
3026 3560 3268 3435 3300 3395 3080 3223 3091 
3550 3183 3340 2882 3283 3571 3086 3048 2931 
2899 3468 3077 3322 3242 3260 3454 3096 3577 
2900 3062 2898 3580 3114 3362 3267 3527 3469 
3000 3484 3294 3501 3290 3451 3165 3089 3437 
3169 3365 2966 3203 3521 3329 2869 3479 3045 
3175 3016 3420 3084 3147 3115 3459 3218 3333 
3412 2963 3191 3093 3064 3126 3325 3263 2975 
2888 3348 3342 3358 3318 3256 3035 3255 2862 
2976 2934 3415 3309 3559 2903 2957 3487 3237 
3129 3298 3177 3090 3071 3375 3160 3511 3520 
3030 3209 2887 2930 3117 3409 2973 3162 2936 
3422 3194 3046 3195 3213 3241 2940 3033 3224 
2974 3100 3517 3549 3446 2916 3478 2868 3205 
3406 3167 2956 2874 3170 2960 2927 2925 3557 
2971 6157 3389 3189 2988 3588 2893 3068 2867 
3181 3305 2929 2932 3461 3570 3465 3546 3200 
3504 3094 6127 3573 3013 3441 3455 3343 3586 
3572 3193 3015 3156 3130 3107 3537 3049 2910 
3498 3574 3381 3401 2970 3317 2872 3070 3186 
3471 3567 3370 3373 3489 2999 2943 3011 3377 
3250 3127 3271 2883 3282 3566 3074 3264 3259 
3144 3111 3310 3336 2917 3101 3357 3139 3438 
3138 3514 3582 3052 3272 3220 3481 3392 2911 
3042 3533 3275 3085 3197 3180 3038 3354 6177 
2876 3141 2998 6203 6242 3124 3120 3059 3442 
3201 3341 3552 3590 3122 3132 3285 3021 2915 
3133 5869 3202 3411 6077 2979 6441 3121 3363 
3349 3266 3337 3410 2954 3383 3530 3414 3396 
2980 3079 2977 6083 3235 6200 3434 3105 3054 
3457 3359 3307 3113 3288 3497 3006 3087 3428 
3522 5812 3188 3519 2924 3575 3270 3376 7714 
2981 2997 3490 3261 3171 2896 3512 3491 3116 
3565 2912 3477 3279 3243 3302 5956 3020 3163 
3257 2972 3157 3408 3176 3531 3099 6176 6056 
3296 3281 2944 3450 2950 3436 3207 3179 3350 
6153 2920 2965 3152 2928 2886 3507 3187 6073 
2905 3540 5817 3564 5731 5903 3262 4588 3378 
3328 3321 3014 3131 3095 3466 3289 3022 3553 
2875 3397 3238 3439 3361 2907 2992 5986 3327 
3083 3299 3245 5944 6137 5921 3248 3228 3472 
5868 2897 6012 6079 3556 3583 3072 3166 3155 
6146 6072 5940 3286 6049 3158 3069 2990 3390 
3456 3353 5932 6190 2982 2951 6155 6378 3227 
6202 6291 6118 6398 2962 3246 3112 3505 6292 
2939 3075 5935 3360 3529 3292 6348 5894 5852 
6247 3316 5762 2889 3433 2922 3125 3447 5820 
3403 3539 3545 25952 5801 5914 3548 3106 3355 
5739 3274 5834 3104 3482 3168 3226 6327 6082 
5925 6180 6443 6367 6430 6112 3386 6308 2890 
6419 6317 6451 6007 2947 3492 2948 6447 3319 
5848 3330 3182 2949 3232 3057 3587 6107 3253 
3323 2923 2955 3192 3495 5874 5880 3579 5858 
6431 3146 6044 3324 6220 6310 5996 5906 3585 
6402 3563 3366 6318 5751 6184 5761 3462 6302 
5750 5732 3515 3254 2914 3295 3398 3118 5774 
5853 6312 5953 2984 3431 3056 3225 6181 3003 
5999 3216 3210 6115 3344 2995 6204 5833 3518 
6113 3416 2941 2908 3417 6011 5829 3425 5772 
3041 6213 5964 6389 6406 3037 6541 6094 6372 
2978 3063 6033 5959 6099 6078 3119 5796 3110 
6022 3347 6260 6321 5958 3123 5994 6326 3399 
3301 5955 6384 6347 6363 6217 6383 3172 3666 
6152 6399 5841 5938 6186 6274 5855 3135 5725 
5788 6043 6290 5724 6036 5969 6352 5811 6371 
6440 5962 6231 6024 3554 3269 6442 3178 7319 
5803 6175 5837 5840 6143 6080 6285 3284 5981 
2877 5893 5936 5800 6236 6105 6046 6243 6306 
5799 3148 6284 6178 6324 5963 5960 2993 6240 
5911 3151 6087 6064 5948 5784 5980 5967 5790 
6014 5832 5928 6288 5968 6351 6420 6307 5737 
6264 6415 6356 5987 6067 6187 5771 3356 6424 
3198 5875 5930 6385 6147 5939 6403 6272 6219 
6364 5763 3352 6368 5919 6196 6042 5905 5741 
6163 6052 5888 5760 6161 6150 6021 6070 6041 
6434 5789 6309 3028 5860 6265 5847 6114 6336 
6305 5818 5733 6369 5723 3547 5941 5886 6448 
2871 5965 6244 6093 6009 6269 6320 5773 5849 
6215 6429 6111 6393 6120 6335 6182 6198 6039 
6015 6214 3453 5859 5744 6210 5766 6344 6338 
6172 6404 6169 5779 6322 6062 6449 6068 6283 
5863 6097 5823 6254 6133 5729 5917 6395 6237 
6035 6205 6108 5885 6164 5785 6360 5810 6271 
9083 5775 6226 6208 6422 6135 6387 5918 5870 
6432 6075 6171 5927 6074 5770 6060 5854 5866 
6195 6098 6331 6119 5787 6173 5971 6410 6375 
5802 6262 6103 6065 5734 6124 6037 6381 6282 
5913 6032 6218 6391 5879 6028 5931 5843 5998 
5769 6304 6126 5793 5899 5898 6017 5909 6362 
6047 5794 6154 6425 6149 6145 5797 6212 6179 
8698 6192 6189 6374 6156 5871 6339 5752 6168 
6258 5791 5821 5747 6003 5873 8647 6018 6029 
6280 5838 5920 5727 6167 5916 6313 5826 5872 
6268 5778 6296 5890 5989 5937 6411 5951 5862 
6063 6298 5809 6006 6416 6319 6222 6286 6413 
6334 8977 5777 5922 6159 6235 5897 5982 6423 
6122 6407 5857 5997 5901 6130 6418 6004 6234 
6174 6400 6013 5730 5780 6085 6095 5977 5765 
6328 5824 6299 5856 6376 5995 5942 6273 6141 
6333 5825 6325 5876 6034 5764 5976 5946 6439 
5878 6160 5923 5804 6136 6207 9018 6346 6102 
5798 5900 5966 5972 5891 6027 6421 8925 5738 
6267 5742 6373 5748 5851 5755 6224 6005 5827 
5865 5934 6438 6138 6409 6020 6142 5864 6084 
6251 6390 6379 9166 9247 6408 5943 6194 9050 
6132 6008 5754 5743 6345 6358 6092 5781 6414 
6091 8673 5756 6228 6106 10142 6116 5978 9116 
6252 5902 8879 6245 8958 5889 6435 8584 5846 
6444 6426 9245 8609 6232 6100 6225 9990 9124 
5882 6001 5807 6386 6059 5828 6038 6382 5759 
6104 6151 5947 6057 5984 6279 6185 5819 5970 
6081 9175 8965 6340 6076 6066 9009 6191 6294 
5992 8665 8727 5961 8742 5867 5758 6201 9035 
5895 6058 6311 9135 9242 6209 5881 6446 6048 
6278 5816 6293 6197 6428 6055 5952 8975 6289 
5929 8692 6221 5805 8743 6241 6162 5746 6401 
5974 6263 8991 6053 5740 8810 5813 5973 8610 
6349 6089 5728 8976 6396 5808 6405 8717 9256 
5883 6183 6436 8936 6128 8653 6256 6417 6086 
5861 9096 6188 9279 9176 6148 6287 6341 6002 
5842 6366 5983 6303 8744 6295 8861 6323 7799 
6050 6031 9160 8871 9296 9210 6316 8803 6450 
5795 6117 5776 8663 5979 9278 9227 9244 7457 
7206 8652 6239 5926 8718 6096 8887 6139 6355 
8654 9143 8706 5783 8969 6365 6377 5757 8900 
6281 7266 6054 9171 8670 8998 8767 8899 9078 
5850 8926 8745 5736 8862 6199 8866 8628 8795 
8660 6250 5933 8651 9110 5954 5786 6353 9048 
9293 6223 5782 9063 7732 6342 8713 9069 6329 
5990 6131 9023 6101 5839 9041 6255 8721 9066 
8756 9162 8708 5924 6343 6170 5815 6246 6016 
9173 6125 6370 5910 6392 10456 5993 6010 8655 
6069 5767 6019 8838 6277 6216 7068 7438 24185 
5814 8672 6337 9304 6359 10281 8705 5830 5907 
6412 9101 6134 9301 8972 8603 8909 6257 6166 
6314 8617 6829 6026 9112 9004 5831 8944 8630 
6206 8621 6300 6233 6051 5904 8840 8807 8709 
6165 9518 6121 6040 8874 9113 6394 5822 8649 
6238 6380 8729 6061 8928 6248 8674 8604 8930 
5768 6433 5957 8886 8888 5735 8829 6229 5892 
6437 5950 6090 6110 5908 9284 9026 6144 5792 
6276 5887 6297 5836 5835 9047 8599 9827 8595 
6301 8986 8980 5845 9239 7360 5915 6023 6071 
5753 9062 9178 8858 8741 8912 6354 9065 8832 
8784 8964 9216 9270 8864 8827 9264 5844 6230 
9309 8792 9201 6227 9234 9051 9273 6397 6332 
9182 6270 9005 9079 8749 9950 9075 8585 9091 
5985 8634 8914 8678 9188 9133 9014 6315 9121 
9097 8922 5949 8750 6123 6361 5975 8974 9213 
5991 9299 8901 8994 8805 9221 9398 9231 8601 
9269 8780 9012 6140 8808 6266 8629 9155 9044 
8949 8733 9212 9208 8711 8891 8839 8597 9111 
5896 8918 8851 9141 9119 9303 9109 5745 8981 
6261 8734 8754 6388 8774 9128 8689 8587 9099 
9282 8783 6330 8620 8823 8905 8686 9298 8848 
8645 8863 8613 9300 6000 8833 8731 6275 9198 
8719 8985 5945 8859 6193 9203 8815 8730 6253 
8607 8889 6249 9148 8669 8814 9307 8919 9093 
9281 5884 9064 8664 8903 8952 9217 9159 9218 
8898 8987 9087 8798 8793 9001 8962 9265 8714 
6025 8787 8846 8746 6129 6109 9103 8671 8841 
8884 6030 9120 8703 8683 8992 9123 9230 5726 
8637 9104 9052 8612 9157 9215 9267 9150 9126 
9146 8837 8638 8973 9257 8777 9040 8828 8908 
8737 8707 9238 9076 8872 9045 8755 8883 8680 
9194 8822 9130 8712 8775 8753 8927 9053 9080 
8842 8916 8934 8591 9169 9034 9117 8967 8894 
9021 9283 9180 9033 8666 8896 8867 8619 8684 
9276 8954 8631 8768 8881 8738 9115 8675 9271 
8979 8955 9003 9165 9038 9251 8825 8594 8942 
8870 9214 8615 9134 9016 9195 8996 9144 9125 
8699 8701 8824 8728 8910 9025 8700 8611 8592 
8747 9049 9145 9311 9236 9068 9010 8802 11904 
8907 8853 9011 9253 8656 8616 8623 8857 8618 
8586 9000 9280 9039 9156 8788 8759 9060 9290 
8785 9055 8946 8945 8715 8677 8751 9287 8650 
8782 8989 9192 8920 8947 11858 9291 9037 8776 
9249 8966 9232 9225 8816 9031 9090 8800 9017 
8929 8855 8939 9260 8679 9240 9184 9105 8935 
8854 9205 8957 8704 8779 9013 9020 8931 9073 
8904 8890 8819 9189 9163 8667 8940 8924 8844 
9057 9196 9262 8605 9237 8757 9294 9084 8804 
8893 8726 8813 8668 9131 8639 8821 11924 9285 
9059 8790 8997 8794 8762 9252 9186 8956 8772 
9142 9161 9107 9241 11910 9147 9137 9067 9259 
8796 9268 9082 9132 9086 8869 9222 8644 9261 
9275 11490 9226 9302 11596 8781 9263 9254 8626 
11882 8702 8820 8865 8932 12135 8752 9088 11629 
8831 8624 9204 8791 8590 8694 9098 8632 8984 
8636 9172 9100 9200 9243 9102 8589 9228 8875 
8593 9077 8658 9094 9223 9274 8880 8695 9070 
8999 9118 8933 9179 8606 11741 8948 8878 9151 
8641 8770 9224 9209 8716 9185 8938 8735 8614 
8659 8993 9258 8760 9197 8959 8830 8769 9153 
8806 11826 8990 8766 9187 8834 8657 12077 8690 
9295 8687 9024 8856 12165 9158 11626 8906 9272 
12049 8850 11641 8961 9036 8786 8724 11923 8835 
8983 9191 9266 8725 9229 11541 8897 11852 8598 
11907 9310 9250 8811 9193 8662 12006 9085 8943 
9207 9202 11651 12119 8622 8740 8640 8682 8778 
12032 9308 8982 9220 8691 9122 9089 9211 11610 
9028 9154 8817 11811 8877 11874 8971 9114 8722 
8773 9092 9167 9058 11776 8941 9022 8688 12074 
9140 8892 12089 8902 12000 8633 9292 10556 8799 
11970 8685 11941 11870 11972 12144 11729 8913 9108 
11849 8988 11578 11465 12166 11606 9219 8801 8736 
11860 11993 8960 9164 11618 11919 8978 11876 8739 
11785 11992 11797 8895 8748 9027 9206 11535 12053 
11603 8937 11726 11883 9139 11861 9030 9138 9289 
8696 9008 9054 8676 12061 11689 11679 8968 8921 
12064 9056 8882 9297 9081 6458 8885 8600 8860 
8836 12014 9042 8761 8648 9074 9152 11812 8771 
11757 11810 8963 9233 8710 9177 11948 11788 12055 
11997 11718 9246 11857 8661 8849 9072 11524 8845 
9235 11538 11807 11660 11533 8818 11988 11969 12128 
11763 11650 8876 8602 11537 12084 11694 9002 11696 
8627 11487 8917 11504 8923 12030 12106 11867 12689 
3405 11888 12428 9129 8868 9095 8720 8843 8826 
8809 8852 26331 9168 8588 11594 8642 11554 8970 
11846 8950 11717 11829 8681 7149 11805 11598 8635 
11686 11942 8873 12088 9029 11502 12031 12009 11708 
9288 11654 12082 11570 11613 9286 8693 8646 9007 
9149 11831 11839 11825 11697 11720 9183 8847 11607 
11540 12099 11936 9305 11999 11719 8953 12067 11649 
11546 11761 11638 11815 11619 12079 11556 8697 11777 
11616 12154 9061 11996 11935 9374 12456 12062 11545 
8625 12069 8596 12126 9190 8758 11448 12831 11615 
11493 11998 12012 11983 8797 12095 12040 9174 12142 
11902 12156 11597 8915 11944 11734 13530 11590 9255 
11668 12090 12081 9015 11799 8911 12138 11464 9199 
11893 11927 8643 11989 12026 12152 8995 9306 11820 
11896 11949 11982 11833 12002 11844 11516 11664 9181 
11841 11710 11819 12041 12129 11786 9019 10284 11745 
9409 11964 12043 11445 11657 11869 11622 11794 12025 
11690 11744 12028 12035 11791 11503 11659 11940 11758 
11454 11813 12161 11637 11703 11565 11875 12054 11567 
11976 11583 11848 12005 11930 8723 8763 11517 11461 
11513 12059 11966 11886 11994 11684 11987 11514 12167 
11575 11947 11462 11756 11580 11691 12143 11962 11599 
11553 11979 8789 12019 11705 12159 11482 11593 11653 
12016 11965 11447 11747 9277 8812 11630 11938 12058 
11573 11973 11933 11474 9248 11898 12063 11793 11814 
11672 12050 11925 11591 11612 11713 11569 12003 11855 
12124 11764 11774 11929 11715 11847 11492 11737 11916 
11480 11692 11804 12108 12110 12118 12052 12060 12140 
12111 11642 11908 12121 11772 12011 11456 11806 9136 
11614 12029 11977 11662 12148 12120 12150 11995 12104 
11497 11859 12038 11959 12094 11640 11834 11724 11644 
11552 12075 11655 11663 11527 12037 11822 12033 11974 
11515 11802 11558 11783 11658 11968 11728 12045 12147 
11878 11471 11809 11477 11752 11975 11771 12010 11544 
12155 11915 12071 11766 11488 12001 11633 11950 14927 
11817 11458 12066 11760 11890 11560 12023 11880 11521 
11539 11561 11865 11534 11661 12073 11736 11895 12085 
11743 11953 11543 11628 12162 11775 12164 12020 11635 
12174 11551 12048 11835 11550 11491 11586 11499 11762 
11795 11510 11840 11643 11954 11958 11798 11646 11868 
11559 11453 11511 11452 11913 11881 11687 11921 11576 
12083 12131 11952 11897 11536 12013 11900 11716 14690 
11838 11589 11808 11960 11755 11727 11562 11557 11709 
12072 14820 11837 11460 11585 11951 11592 11845 11955 
12070 11789 11828 11918 11928 11866 11522 11800 15032 
11473 11677 11526 14548 11725 11600 11529 11779 12078 
11451 11639 11467 11455 12007 11656 11685 11879 11549 
15103 12107 12113 12115 14892 11901 11873 11678 11862 
12092 11943 11722 11781 11945 11519 11688 12051 11608 
14402 11571 11824 11906 12163 14639 12015 11563 14891 
11581 11520 11739 12057 11871 11446 12171 11587 11494 
11666 11627 11909 14715 11754 11986 11796 11905 11823 
11980 11790 11990 11645 11449 12153 11759 12093 11702 
12151 11917 11851 12123 12139 12065 12173 12125 12157 
11577 11486 12146 11946 11512 11647 12100 11665 14795 
12080 11884 11667 11750 12132 14844 11742 14635 14972 
11564 12170 11485 11740 14785 14383 11669 12172 11816 
11463 11693 12024 14939 11711 11735 14361 14886 14677 
11528 11732 14888 11579 11484 11605 11483 14750 12117 
11624 11978 11842 14796 12091 12169 14804 12056 11738 
12008 14483 14928 11568 11792 14980 11566 11609 11818 
12141 11892 12134 12103 12109 11582 12158 11872 11749 
11733 11778 11863 14359 11730 14540 14938 11963 11675 
11682 11714 11961 11611 11498 11489 11853 11495 14346 
11787 11701 11746 12137 12039 11531 11912 11481 14626 
11887 11706 11748 11469 14462 12021 11681 12102 11506 
12168 14973 14955 14883 11478 11827 11604 11707 12017 
11731 11584 12114 11674 11617 12096 11676 11920 11671 
12116 11903 11854 12122 11602 12098 12018 14350 11476 
14946 12022 11670 14365 11985 12027 11934 14705 14553 
14507 11699 12044 11700 12133 14621 14448 14969 11525 
11984 12832 9769 11588 11500 14525 11911 14971 14431 
11991 14997 11712 12101 11509 11475 11625 12036 14937 
13141 12086 14312 11548 14602 11877 14738 14475 14503 
12105 11470 11971 11769 14582 11523 11864 14989 11914 
11770 11753 11472 14486 12097 14902 12127 14435 11698 
12047 11836 14821 11956 11501 12149 11784 11932 15025 
11939 14451 15031 11967 14740 11751 14433 14413 14372 
14574 11683 14558 14417 14544 11801 14581 11572 14512 
14374 14328 14706 14685 11721 11937 11631 11830 11634 
11632 11695 14467 11894 11466 14445 11468 12042 12112 
14829 14899 12130 14965 14645 14882 15029 11856 14787 
14591 11773 15022 11803 14959 14970 14840 14675 24734 
14510 11450 14858 14926 14459 14355 12136 11680 14508 
11922 14661 14810 14806 11652 11518 14611 15012 14788 
11832 14952 14987 11768 14901 14466 12034 14697 15003 
14392 14716 14940 11843 14391 12160 14620 14655 14407 
15004 14473 14569 14739 14774 14702 14794 11532 14991 
14956 14916 14401 14729 11931 12087 12145 14782 14324 
14924 14559 14877 15006 11899 11459 11723 11574 14691 
14571 14586 14585 14885 14519 11782 14925 14872 11780 
14879 14862 14590 14524 15010 14530 11623 14616 14907 
14722 14497 14485 14708 14399 14923 14313 11479 14777 
11885 14790 14692 14546 14623 11601 14780 14951 14813 
14568 14688 14960 14687 14646 14654 14669 14432 14895 
11508 15019 14689 14852 14779 11821 11704 14529 12076 
11542 14894 14321 14832 14369 14904 14398 11889 11765 
14327 11981 14803 11507 11636 14557 14700 14826 11620 
14484 14555 14440 14864 14434 14368 14802 15002 14367 
14753 14727 14562 14975 14637 15017 14454 11850 14649 
14330 14341 14825 14942 15023 14410 14913 14386 14805 
14998 14815 14824 14566 14517 14533 14749 14799 12068 
14823 14343 14319 14850 14427 14988 14573 14732 11505 