/*--------------------------------*- C++ -*----------------------------------*\
| =========                 |                                                 |
| \\      /  F ield         | OpenFOAM: The Open Source CFD Toolbox           |
|  \\    /   O peration     | Version:  5.x                                   |
|   \\  /    A nd           | Web:      www.OpenFOAM.org                      |
|    \\/     M anipulation  |                                                 |
\*---------------------------------------------------------------------------*/
FoamFile
{
    version     2.0;
    format      ascii;
    class       volVectorField;
    location    "3.25";
    object      Us;
}
// * * * * * * * * * * * * * * * * * * * * * * * * * * * * * * * * * * * * * //

dimensions      [0 1 -1 0 0 0 0];

internalField   nonuniform List<vector> 
10571
(
(-0.120849 0.00577836 0.00156974)
(0.0308825 0.0551942 -0.214899)
(0.141457 -0.0108863 0.0442771)
(-0.0971237 0.0334626 0.0856332)
(0.0388571 0.107519 0.0174512)
(0.0331597 0.148767 -0.0208794)
(0.139789 0.0662386 -0.0423405)
(0.0261532 0.0602333 0.0796962)
(0.0441279 0.0402503 0.165001)
(0.0153011 -0.0173704 0.123116)
(-0.0215174 0.0133094 -0.00342798)
(0.00054251 0.0634917 0.0750606)
(0.196797 0.0707887 0.0800908)
(0.0009096 -0.00704276 0.108257)
(-0.144562 -0.112022 0.124723)
(-0.0468062 -0.0107048 -0.17258)
(-0.0279729 0.004616 0.00711924)
(0.0273253 0.0132722 0.0393899)
(-0.265795 -0.136263 0.132614)
(-0.0624133 -0.072991 0.0172955)
(-0.0356554 0.0219263 -0.0263796)
(-0.0739167 -0.0371809 0.0191346)
(-0.116193 -0.0631482 -0.0777095)
(-0.0102773 -0.0453716 -0.184061)
(-0.0639902 -0.00536512 -0.0490761)
(-0.0374999 0.0413912 -0.416316)
(-0.0664384 -0.0320891 0.119158)
(-0.0522776 -0.047147 -0.0784365)
(0.0810809 -0.0300785 -0.00948792)
(-0.112825 -0.044458 -0.122201)
(-0.0467137 -0.0594864 0.0969357)
(0.0286207 -0.115252 -0.0174938)
(0.0914573 -0.0980193 0.076015)
(0.0597793 0.0469779 0.0126599)
(-0.0847659 -0.119468 -0.221066)
(-0.137131 -0.0175436 0.0441846)
(-0.0620739 -0.016683 0.097553)
(-0.00916826 -0.0584897 -0.0455936)
(0.0698719 0.0160694 -0.0255615)
(0.0190895 0.051912 -0.376571)
(-0.0863128 -0.018553 -0.111293)
(-0.1204 0.0741191 0.137975)
(0.0303297 0.061372 -0.15012)
(0.0651041 0.00890199 -0.0268114)
(-0.0543974 0.144205 -0.249459)
(-0.102559 0.0993716 -0.0770734)
(-0.0344917 0.0412236 -0.290827)
(0.0567801 -0.00413245 -0.311939)
(-0.0601596 -0.0103488 -0.111314)
(-0.0101524 0.0077991 -0.326837)
(-0.0761442 0.0336318 0.252502)
(-0.0609742 -0.08169 -0.159354)
(0.00380092 -0.193498 -0.0989773)
(-0.214599 -0.14002 0.0406742)
(-0.0271068 -0.095921 -0.170841)
(0.0248492 -0.057456 -0.230945)
(0.079582 -0.0661026 -0.121007)
(0.00145061 -0.0147673 -0.0716237)
(-0.0418809 -0.0696946 -0.0819549)
(-0.166064 -0.0293623 -0.149822)
(-0.0111758 0.00383361 -0.191976)
(0.0305927 0.043563 -0.240115)
(0.0876678 0.065433 -0.148395)
(0.0226964 0.107688 -0.245476)
(-0.139146 0.0269956 -0.00796438)
(-0.0542947 0.103572 -0.0149534)
(0.036393 0.0836793 -0.246538)
(0.0851196 0.120713 -0.205416)
(-0.0338997 0.124165 -0.25458)
(-0.0725249 0.0659082 -0.0193018)
(0.00810942 0.061473 -0.247748)
(0.0526074 -0.00082191 -0.224671)
(-0.0722612 -0.0129757 -0.0997318)
(0.006925 -0.0111084 -0.268719)
(-0.0466657 -0.0450811 0.176145)
(-0.0731963 -0.0875234 -0.162717)
(-0.0828865 -0.093069 -0.0880027)
(-0.141349 -0.0995186 0.0306839)
(-0.0161055 -0.00843239 -0.233651)
(-0.0475517 0.0441387 -0.257339)
(-0.064984 -0.00227361 -0.120266)
(-0.0222379 -0.0229705 -0.0680778)
(-0.0342993 -0.1878 -0.00931599)
(0.0104034 -0.111185 -0.0169622)
(0.0238479 0.0461479 -0.241952)
(-0.0104411 0.0989815 -0.273932)
(-0.0510904 0.0866312 -0.200888)
(-0.0548824 0.181993 -0.213037)
(-0.197626 0.0594051 0.196992)
(0.0287739 0.0387791 -0.0649579)
(0.017332 0.051358 -0.209371)
(-0.0196692 0.166299 -0.124633)
(-0.0530808 0.102969 -0.189267)
(-0.0665102 0.0164716 0.0288142)
(0.0474401 0.00906853 -0.20626)
(0.00387078 -0.0026789 -0.189161)
(-0.0782905 -0.00665906 -0.0526929)
(0.0022574 0.0177612 -0.286231)
(-0.0178254 -0.0856669 0.239745)
(-0.130017 -0.0354463 -0.0719613)
(-0.0975056 -0.0320471 -0.110044)
(-0.0158292 -0.116477 0.141109)
(0.0265106 0.0617642 -0.224318)
(-0.114012 0.143633 -0.295918)
(-0.103095 0.0896241 -0.204003)
(-0.0848137 0.0114053 -0.161729)
(0.0166505 -0.0537564 -0.0740461)
(0.123527 -0.0845568 -0.041906)
(0.1066 0.0114016 -0.161469)
(-0.00846857 0.182886 -0.329123)
(-0.0801329 0.115321 -0.237166)
(-0.0669632 0.200024 -0.145304)
(-0.139464 -0.105566 0.35962)
(0.100407 -0.0675113 -0.0251624)
(0.0253731 -0.0141646 -0.113386)
(-0.0920936 0.090525 -0.13777)
(-0.0116895 0.017031 -0.177856)
(-8.6442e-05 -0.0473554 -0.0199751)
(0.0410505 -0.0429399 -0.182992)
(-0.0961924 0.0630082 -0.0363706)
(-0.0187814 0.00821652 -0.0936243)
(-0.0173318 0.0338727 -0.342061)
(-0.00419563 -0.0509474 0.373034)
(0.0426237 -0.0668156 0.0858974)
(-0.0450927 0.0287276 -0.21328)
(0.1168 -0.0107712 0.1422)
(0.099714 0.106265 -0.146374)
(0.031893 0.177689 -0.319692)
(0.0384664 0.167101 -0.316228)
(-0.000638182 0.0646236 -0.199641)
(-0.00504049 0.0033582 -0.00311234)
(0.00688523 0.0660966 -0.246449)
(0.069 -0.238532 0.0276576)
(0.144325 -0.0360674 -0.0496788)
(0.0625975 0.217601 -0.319158)
(0.0880738 0.229755 -0.318115)
(-0.0394989 0.156161 -0.152882)
(-0.00357898 -0.000125149 -0.00179473)
(-0.0561019 -0.171372 0.490425)
(0.0953243 -0.04093 0.0122747)
(-0.143614 0.045616 -0.0240701)
(-0.11334 0.00984412 -0.0672074)
(0.000283087 -0.00188408 -0.192858)
(0.0874614 0.0358068 -0.134442)
(-0.0427414 -0.0182127 -0.0975792)
(-0.195454 0.0830131 -0.0603526)
(-0.0180599 0.000104686 -0.229769)
(-0.044025 0.0439283 -0.360916)
(0.00305444 -0.00211088 0.369232)
(0.0729491 -0.0310226 0.138579)
(0.0970834 0.033294 -0.31294)
(0.124842 0.0712707 0.129188)
(0.0719459 0.134036 -0.121049)
(0.0506095 0.167962 -0.241445)
(0.0724912 0.156832 -0.293493)
(0 0 0)
(-0.0112435 0.00369969 -0.00805927)
(0.0166463 0.110024 -0.185015)
(0.0300374 -0.28404 0.148856)
(0.151735 -0.00105148 0.0300837)
(0.0617269 0.235731 -0.265811)
(0.113648 0.26303 -0.286141)
(0 0 0)
(-0.0145911 0.00181946 -0.0123894)
(0.0350033 -0.105183 0.341815)
(0.16754 -0.0529505 0.162656)
(-0.226421 0.0815958 0.0493671)
(-0.137348 -0.018915 -0.0127943)
(0 0 0)
(-0.0152933 -0.00253293 -0.00483099)
(0.130335 0.0524649 0.0188771)
(-0.219079 0.0933456 -0.0328067)
(-0.127969 0.0884822 -0.0639985)
(0.108151 -0.108563 -0.0566048)
(-0.0366009 0.0479271 -0.298969)
(-0.0944487 0.125188 -0.049558)
(0.067672 0.00643801 0.0778548)
(0.00151314 0.0630904 -0.502323)
(0.0110841 0.036865 -0.00496606)
(0.0647097 0.132335 -0.0739581)
(0.0695979 0.166816 -0.187588)
(0.052482 0.120797 -0.246694)
(0 0 0)
(0 0 0)
(0.0147865 0.114016 -0.144076)
(0.038685 0.119242 0.00313955)
(0.166807 0.110894 0.00557055)
(0.225263 0.219676 -0.156451)
(0 0 0)
(0 0 0)
(0 0 0)
(0.0264997 0.00288124 0.362619)
(0.166112 -0.128703 0.344079)
(-0.243908 0.0631115 0.22349)
(0 0 0)
(0 0 0)
(0 0 0)
(0 0 0)
(-0.200964 0.10409 0.0249567)
(0 0 0)
(0.0693598 -0.0611107 -0.164539)
(-0.0460965 0.0793846 -0.198289)
(-0.103501 0.0229124 -0.00183962)
(0.0604725 0.026526 0.169154)
(-0.00812567 0.0173101 -0.772733)
(0.0259037 0.00872691 -0.0336827)
(0.042528 0.146204 -0.0137509)
(0.0784089 0.152191 -0.218484)
(0 0 0)
(0 0 0)
(0 0 0)
(-0.0278093 0.126774 0.0323531)
(0.0451431 0.136693 0.129035)
(0.197165 0.207867 -0.0466229)
(0 0 0)
(0.0355563 0.16575 -0.619519)
(0 0 0)
(0 0 0)
(0 0 0)
(0 0 0)
(0 0 0)
(0 0 0)
(0 0 0)
(0 0 0)
(-0.205918 0.112769 0.250288)
(0 0 0)
(0 0 0)
(-0.141731 0.0240584 -0.0209718)
(-0.07922 0.00247285 0.0329653)
(0.0646443 0.028672 0.216879)
(-0.0253186 0.0633497 -0.776677)
(0.105875 0.0464681 0.0264097)
(0.0412689 0.114891 0.0596205)
(0 0 0)
(0 0 0)
(0 0 0)
(-0.0245292 0.108657 -0.081069)
(0.0159559 0.150423 0.156848)
(0.15294 0.206211 0.0375976)
(3.86647e-15 1.82579e-14 -6.7641e-14)
(3.86647e-15 1.82579e-14 -6.7641e-14)
(0 0 0)
(0 0 0)
(0 0 0)
(0 0 0)
(0 0 0)
(0 0 0)
(0 0 0)
(0 0 0)
(0 0 0)
(-0.0338391 -0.0514601 -0.638133)
(0 0 0)
(0 0 0)
(-0.0203356 0.067434 -0.661945)
(0 0 0)
(0 0 0)
(0 0 0)
(0 0 0)
(0 0 0)
(0 0 0)
(0 0 0)
(0 0 0)
(0 0 0)
(0 0 0)
(0 0 0)
(0 0 0)
(0 0 0)
(0 0 0)
(0 0 0)
(0 0 0)
(0 0 0)
(0 0 0)
(0 0 0)
(0 0 0)
(0 0 0)
(0 0 0)
(0 0 0)
(0.0068066 0.0689125 -0.637789)
(0 0 0)
(0 0 0)
(0 0 0)
(0 0 0)
(0 0 0)
(0 0 0)
(0 0 0)
(0 0 0)
(0 0 0)
(0 0 0)
(0 0 0)
(0 0 0)
(0 0 0)
(0 0 0)
(0 0 0)
(0 0 0)
(0 0 0)
(0 0 0)
(0 0 0)
(0 0 0)
(0 0 0)
(0 0 0)
(0 0 0)
(0 0 0)
(0 0 0)
(0 0 0)
(0 0 0)
(0 0 0)
(0 0 0)
(0 0 0)
(0 0 0)
(0 0 0)
(0 0 0)
(0 0 0)
(0 0 0)
(0 0 0)
(0 0 0)
(0 0 0)
(0 0 0)
(0 0 0)
(0 0 0)
(0 0 0)
(0 0 0)
(0 0 0)
(0 0 0)
(0 0 0)
(0 0 0)
(0 0 0)
(0 0 0)
(0 0 0)
(0 0 0)
(0 0 0)
(0 0 0)
(0 0 0)
(0 0 0)
(0 0 0)
(0 0 0)
(0 0 0)
(0 0 0)
(0 0 0)
(0 0 0)
(0 0 0)
(0 0 0)
(0 0 0)
(0 0 0)
(0 0 0)
(0 0 0)
(0 0 0)
(0 0 0)
(0 0 0)
(0 0 0)
(0 0 0)
(0 0 0)
(0 0 0)
(0 0 0)
(0 0 0)
(0 0 0)
(0 0 0)
(0 0 0)
(0 0 0)
(0 0 0)
(0 0 0)
(0 0 0)
(0 0 0)
(0 0 0)
(0 0 0)
(0 0 0)
(0 0 0)
(0 0 0)
(0 0 0)
(0 0 0)
(0 0 0)
(0 0 0)
(0 0 0)
(0 0 0)
(0 0 0)
(0 0 0)
(0 0 0)
(0 0 0)
(0 0 0)
(0 0 0)
(0 0 0)
(0 0 0)
(0 0 0)
(0 0 0)
(0 0 0)
(0 0 0)
(0 0 0)
(0 0 0)
(0 0 0)
(0 0 0)
(0 0 0)
(0 0 0)
(0 0 0)
(0 0 0)
(0 0 0)
(0 0 0)
(0 0 0)
(0 0 0)
(0 0 0)
(0 0 0)
(0 0 0)
(0 0 0)
(0 0 0)
(0 0 0)
(0 0 0)
(0 0 0)
(0 0 0)
(0 0 0)
(0 0 0)
(0 0 0)
(0 0 0)
(0 0 0)
(0 0 0)
(0 0 0)
(0 0 0)
(0 0 0)
(0 0 0)
(0 0 0)
(0 0 0)
(0 0 0)
(0 0 0)
(0 0 0)
(0 0 0)
(0 0 0)
(0 0 0)
(0 0 0)
(0 0 0)
(0 0 0)
(0 0 0)
(0 0 0)
(0 0 0)
(0 0 0)
(0 0 0)
(0 0 0)
(0 0 0)
(0 0 0)
(0 0 0)
(0 0 0)
(0 0 0)
(0 0 0)
(0 0 0)
(0 0 0)
(0 0 0)
(0 0 0)
(0 0 0)
(0 0 0)
(0 0 0)
(0 0 0)
(0 0 0)
(0 0 0)
(0 0 0)
(0 0 0)
(0 0 0)
(0 0 0)
(0 0 0)
(0 0 0)
(0 0 0)
(0 0 0)
(0 0 0)
(0 0 0)
(0 0 0)
(0 0 0)
(0 0 0)
(0 0 0)
(0 0 0)
(0 0 0)
(0 0 0)
(0 0 0)
(0 0 0)
(0 0 0)
(0 0 0)
(0 0 0)
(0 0 0)
(0 0 0)
(0 0 0)
(0 0 0)
(0 0 0)
(0 0 0)
(0 0 0)
(0 0 0)
(0 0 0)
(0 0 0)
(0 0 0)
(0 0 0)
(0 0 0)
(0 0 0)
(0 0 0)
(0 0 0)
(0 0 0)
(0 0 0)
(0 0 0)
(0 0 0)
(0 0 0)
(0 0 0)
(0 0 0)
(0 0 0)
(0 0 0)
(0 0 0)
(0 0 0)
(0 0 0)
(0 0 0)
(0 0 0)
(0 0 0)
(0 0 0)
(0 0 0)
(0 0 0)
(0 0 0)
(0 0 0)
(0 0 0)
(0 0 0)
(0 0 0)
(0 0 0)
(0 0 0)
(0 0 0)
(0 0 0)
(0 0 0)
(0 0 0)
(0 0 0)
(0 0 0)
(0 0 0)
(0 0 0)
(0 0 0)
(0 0 0)
(0 0 0)
(0 0 0)
(0 0 0)
(0 0 0)
(0 0 0)
(0 0 0)
(0 0 0)
(0 0 0)
(0 0 0)
(0 0 0)
(0 0 0)
(0 0 0)
(0 0 0)
(0 0 0)
(0 0 0)
(0 0 0)
(0 0 0)
(0 0 0)
(0 0 0)
(0 0 0)
(0 0 0)
(0 0 0)
(0 0 0)
(0 0 0)
(0 0 0)
(0 0 0)
(0 0 0)
(0 0 0)
(0 0 0)
(0 0 0)
(0 0 0)
(0 0 0)
(0 0 0)
(0 0 0)
(0 0 0)
(0 0 0)
(0 0 0)
(0 0 0)
(0 0 0)
(0 0 0)
(0 0 0)
(0 0 0)
(0 0 0)
(0 0 0)
(0 0 0)
(0 0 0)
(0 0 0)
(0 0 0)
(0 0 0)
(0 0 0)
(0 0 0)
(0 0 0)
(0 0 0)
(0 0 0)
(0 0 0)
(0 0 0)
(0 0 0)
(0 0 0)
(0 0 0)
(0 0 0)
(0 0 0)
(0 0 0)
(0 0 0)
(0 0 0)
(0 0 0)
(0 0 0)
(0 0 0)
(0 0 0)
(0 0 0)
(0 0 0)
(0 0 0)
(0 0 0)
(0 0 0)
(0 0 0)
(0 0 0)
(0 0 0)
(0 0 0)
(0 0 0)
(0 0 0)
(0 0 0)
(0 0 0)
(0 0 0)
(0 0 0)
(0 0 0)
(0 0 0)
(0 0 0)
(0 0 0)
(0 0 0)
(0 0 0)
(0 0 0)
(0 0 0)
(0 0 0)
(0 0 0)
(0 0 0)
(0 0 0)
(0 0 0)
(0 0 0)
(0 0 0)
(0 0 0)
(0 0 0)
(0 0 0)
(0 0 0)
(0 0 0)
(0 0 0)
(0 0 0)
(0 0 0)
(0 0 0)
(0 0 0)
(0 0 0)
(0 0 0)
(0 0 0)
(0 0 0)
(0 0 0)
(0 0 0)
(0 0 0)
(0 0 0)
(0 0 0)
(0 0 0)
(0 0 0)
(0 0 0)
(0 0 0)
(0 0 0)
(0 0 0)
(0 0 0)
(0 0 0)
(0 0 0)
(0 0 0)
(0 0 0)
(0 0 0)
(0 0 0)
(0 0 0)
(0 0 0)
(0 0 0)
(0 0 0)
(0 0 0)
(0 0 0)
(0 0 0)
(0 0 0)
(0 0 0)
(0 0 0)
(0 0 0)
(0 0 0)
(0 0 0)
(0 0 0)
(0 0 0)
(0 0 0)
(0 0 0)
(0 0 0)
(0 0 0)
(0 0 0)
(0 0 0)
(0 0 0)
(0 0 0)
(0 0 0)
(0 0 0)
(0 0 0)
(0 0 0)
(0 0 0)
(0 0 0)
(0 0 0)
(0 0 0)
(0 0 0)
(0 0 0)
(0 0 0)
(0 0 0)
(0 0 0)
(0 0 0)
(0 0 0)
(0 0 0)
(0 0 0)
(0 0 0)
(0 0 0)
(0 0 0)
(0 0 0)
(0 0 0)
(0 0 0)
(0 0 0)
(0 0 0)
(0 0 0)
(0 0 0)
(0 0 0)
(0 0 0)
(0 0 0)
(0 0 0)
(0 0 0)
(0 0 0)
(0 0 0)
(0 0 0)
(0 0 0)
(0 0 0)
(0 0 0)
(0 0 0)
(0 0 0)
(0 0 0)
(0 0 0)
(0 0 0)
(0 0 0)
(0 0 0)
(0 0 0)
(0 0 0)
(0 0 0)
(0 0 0)
(0 0 0)
(0 0 0)
(0 0 0)
(0 0 0)
(0 0 0)
(0 0 0)
(0 0 0)
(0 0 0)
(0 0 0)
(0 0 0)
(0 0 0)
(0 0 0)
(0 0 0)
(0 0 0)
(0 0 0)
(0 0 0)
(0 0 0)
(0 0 0)
(0 0 0)
(0 0 0)
(0 0 0)
(0 0 0)
(0 0 0)
(0 0 0)
(0 0 0)
(0 0 0)
(0 0 0)
(0 0 0)
(0 0 0)
(0 0 0)
(0 0 0)
(0 0 0)
(0 0 0)
(0 0 0)
(0 0 0)
(0 0 0)
(0 0 0)
(0 0 0)
(0 0 0)
(0 0 0)
(0 0 0)
(0 0 0)
(0 0 0)
(0 0 0)
(0 0 0)
(0 0 0)
(0 0 0)
(0 0 0)
(0 0 0)
(0 0 0)
(0 0 0)
(0 0 0)
(0 0 0)
(0 0 0)
(0 0 0)
(0 0 0)
(0 0 0)
(0 0 0)
(0 0 0)
(0 0 0)
(0 0 0)
(0 0 0)
(0 0 0)
(0 0 0)
(0 0 0)
(0 0 0)
(0 0 0)
(0 0 0)
(0 0 0)
(0 0 0)
(0 0 0)
(0 0 0)
(0 0 0)
(0 0 0)
(0 0 0)
(0 0 0)
(0 0 0)
(0 0 0)
(0 0 0)
(0 0 0)
(0 0 0)
(0 0 0)
(0 0 0)
(0 0 0)
(0 0 0)
(0 0 0)
(0 0 0)
(0 0 0)
(0 0 0)
(0 0 0)
(0 0 0)
(0 0 0)
(0 0 0)
(0 0 0)
(0 0 0)
(0 0 0)
(0 0 0)
(0 0 0)
(0 0 0)
(0 0 0)
(0 0 0)
(0 0 0)
(0 0 0)
(0 0 0)
(0 0 0)
(0 0 0)
(0 0 0)
(0 0 0)
(0 0 0)
(0 0 0)
(0 0 0)
(0 0 0)
(0 0 0)
(0 0 0)
(0 0 0)
(0 0 0)
(0 0 0)
(0 0 0)
(0 0 0)
(0 0 0)
(0 0 0)
(0 0 0)
(0 0 0)
(0 0 0)
(0 0 0)
(0 0 0)
(0 0 0)
(0 0 0)
(0 0 0)
(0 0 0)
(0 0 0)
(0 0 0)
(0 0 0)
(0 0 0)
(0 0 0)
(0 0 0)
(0 0 0)
(0 0 0)
(0 0 0)
(0 0 0)
(0 0 0)
(0 0 0)
(0 0 0)
(0 0 0)
(0 0 0)
(0 0 0)
(0 0 0)
(0 0 0)
(0 0 0)
(0 0 0)
(0 0 0)
(0 0 0)
(0 0 0)
(0 0 0)
(0 0 0)
(0 0 0)
(0 0 0)
(0 0 0)
(0 0 0)
(0 0 0)
(0 0 0)
(0 0 0)
(0 0 0)
(0 0 0)
(0 0 0)
(0 0 0)
(0 0 0)
(0 0 0)
(0 0 0)
(0 0 0)
(0 0 0)
(0 0 0)
(0 0 0)
(0 0 0)
(0 0 0)
(0 0 0)
(0 0 0)
(0 0 0)
(0 0 0)
(0 0 0)
(0 0 0)
(0 0 0)
(0 0 0)
(0 0 0)
(0 0 0)
(0 0 0)
(0 0 0)
(0 0 0)
(0 0 0)
(0 0 0)
(0 0 0)
(0 0 0)
(0 0 0)
(0 0 0)
(0 0 0)
(0 0 0)
(0 0 0)
(0 0 0)
(0 0 0)
(0 0 0)
(0 0 0)
(0 0 0)
(0 0 0)
(0 0 0)
(0 0 0)
(0 0 0)
(0 0 0)
(0 0 0)
(0 0 0)
(0 0 0)
(0 0 0)
(0 0 0)
(0 0 0)
(0 0 0)
(0 0 0)
(0 0 0)
(0 0 0)
(0 0 0)
(0 0 0)
(0 0 0)
(0 0 0)
(0 0 0)
(0 0 0)
(0 0 0)
(0 0 0)
(0 0 0)
(0 0 0)
(0 0 0)
(0 0 0)
(0 0 0)
(0 0 0)
(0 0 0)
(0 0 0)
(0 0 0)
(0 0 0)
(0 0 0)
(0 0 0)
(0 0 0)
(0 0 0)
(0 0 0)
(0 0 0)
(0 0 0)
(0 0 0)
(0 0 0)
(0 0 0)
(0 0 0)
(0 0 0)
(0 0 0)
(0 0 0)
(0 0 0)
(0 0 0)
(0 0 0)
(0 0 0)
(0 0 0)
(0 0 0)
(0 0 0)
(0 0 0)
(0 0 0)
(0 0 0)
(0 0 0)
(0 0 0)
(0 0 0)
(0 0 0)
(0 0 0)
(0 0 0)
(0 0 0)
(0 0 0)
(0 0 0)
(0 0 0)
(0 0 0)
(0 0 0)
(0 0 0)
(0 0 0)
(0 0 0)
(0 0 0)
(0 0 0)
(0 0 0)
(0 0 0)
(0 0 0)
(0 0 0)
(0 0 0)
(0 0 0)
(0 0 0)
(0 0 0)
(0 0 0)
(0 0 0)
(0 0 0)
(0 0 0)
(0 0 0)
(0 0 0)
(0 0 0)
(0 0 0)
(0 0 0)
(0 0 0)
(0 0 0)
(0 0 0)
(0 0 0)
(0 0 0)
(0 0 0)
(0 0 0)
(0 0 0)
(0 0 0)
(0 0 0)
(0 0 0)
(0 0 0)
(0 0 0)
(0 0 0)
(0 0 0)
(0 0 0)
(0 0 0)
(0 0 0)
(0 0 0)
(0 0 0)
(0 0 0)
(0 0 0)
(0 0 0)
(0 0 0)
(0 0 0)
(0 0 0)
(0 0 0)
(0 0 0)
(0 0 0)
(0 0 0)
(0 0 0)
(0 0 0)
(0 0 0)
(0 0 0)
(0 0 0)
(0 0 0)
(0 0 0)
(0 0 0)
(0 0 0)
(0 0 0)
(0 0 0)
(0 0 0)
(0 0 0)
(0 0 0)
(0 0 0)
(0 0 0)
(0 0 0)
(0 0 0)
(0 0 0)
(0 0 0)
(0 0 0)
(0 0 0)
(0 0 0)
(0 0 0)
(0 0 0)
(0 0 0)
(0 0 0)
(0 0 0)
(0 0 0)
(0 0 0)
(0 0 0)
(0 0 0)
(0 0 0)
(0 0 0)
(0 0 0)
(0 0 0)
(0 0 0)
(0 0 0)
(0 0 0)
(0 0 0)
(0 0 0)
(0 0 0)
(0 0 0)
(0 0 0)
(0 0 0)
(0 0 0)
(0 0 0)
(0 0 0)
(0 0 0)
(0 0 0)
(0 0 0)
(0 0 0)
(0 0 0)
(0 0 0)
(0 0 0)
(0 0 0)
(0 0 0)
(0 0 0)
(0 0 0)
(0 0 0)
(0 0 0)
(0 0 0)
(0 0 0)
(0 0 0)
(0 0 0)
(0 0 0)
(0 0 0)
(0 0 0)
(0 0 0)
(0 0 0)
(0 0 0)
(0 0 0)
(0 0 0)
(0 0 0)
(0 0 0)
(0 0 0)
(0 0 0)
(0 0 0)
(0 0 0)
(0 0 0)
(0 0 0)
(0 0 0)
(0 0 0)
(0 0 0)
(0 0 0)
(0 0 0)
(0 0 0)
(0 0 0)
(0 0 0)
(0 0 0)
(0 0 0)
(0 0 0)
(0 0 0)
(0 0 0)
(0 0 0)
(0 0 0)
(0 0 0)
(0 0 0)
(0 0 0)
(0 0 0)
(0 0 0)
(0 0 0)
(0 0 0)
(0 0 0)
(0 0 0)
(0 0 0)
(0 0 0)
(0 0 0)
(0 0 0)
(0 0 0)
(0 0 0)
(0 0 0)
(0 0 0)
(0 0 0)
(0 0 0)
(0 0 0)
(0 0 0)
(0 0 0)
(0 0 0)
(0 0 0)
(0 0 0)
(0 0 0)
(0 0 0)
(0 0 0)
(0 0 0)
(0 0 0)
(0 0 0)
(0 0 0)
(0 0 0)
(0 0 0)
(0 0 0)
(0 0 0)
(0 0 0)
(0 0 0)
(0 0 0)
(0 0 0)
(0 0 0)
(0 0 0)
(0 0 0)
(0 0 0)
(0 0 0)
(0 0 0)
(0 0 0)
(0 0 0)
(0 0 0)
(0 0 0)
(0 0 0)
(0 0 0)
(0 0 0)
(0 0 0)
(0 0 0)
(0 0 0)
(0 0 0)
(0 0 0)
(0 0 0)
(0 0 0)
(0 0 0)
(0 0 0)
(0 0 0)
(0 0 0)
(0 0 0)
(0 0 0)
(0 0 0)
(0 0 0)
(0 0 0)
(0 0 0)
(0 0 0)
(0 0 0)
(0 0 0)
(0 0 0)
(0 0 0)
(0 0 0)
(0 0 0)
(0 0 0)
(0 0 0)
(0 0 0)
(0 0 0)
(0 0 0)
(0 0 0)
(0 0 0)
(0 0 0)
(0 0 0)
(0 0 0)
(0 0 0)
(0 0 0)
(0 0 0)
(0 0 0)
(0 0 0)
(0 0 0)
(0 0 0)
(0 0 0)
(0 0 0)
(0 0 0)
(0 0 0)
(0 0 0)
(0 0 0)
(0 0 0)
(0 0 0)
(0 0 0)
(0 0 0)
(0 0 0)
(0 0 0)
(0 0 0)
(0 0 0)
(0 0 0)
(0 0 0)
(0 0 0)
(0 0 0)
(0 0 0)
(0 0 0)
(0 0 0)
(0 0 0)
(0 0 0)
(0 0 0)
(0 0 0)
(0 0 0)
(0 0 0)
(0 0 0)
(0 0 0)
(0 0 0)
(0 0 0)
(0 0 0)
(0 0 0)
(0 0 0)
(0 0 0)
(0 0 0)
(0 0 0)
(0 0 0)
(0 0 0)
(0 0 0)
(0 0 0)
(0 0 0)
(0 0 0)
(0 0 0)
(0 0 0)
(0 0 0)
(0 0 0)
(0 0 0)
(0 0 0)
(0 0 0)
(0 0 0)
(0 0 0)
(0 0 0)
(0 0 0)
(0 0 0)
(0 0 0)
(0 0 0)
(0 0 0)
(0 0 0)
(0 0 0)
(0 0 0)
(0 0 0)
(0 0 0)
(0 0 0)
(0 0 0)
(0 0 0)
(0 0 0)
(0 0 0)
(0 0 0)
(0 0 0)
(0 0 0)
(0 0 0)
(0 0 0)
(0 0 0)
(0 0 0)
(0 0 0)
(0 0 0)
(0 0 0)
(0 0 0)
(0 0 0)
(0 0 0)
(0 0 0)
(0 0 0)
(0 0 0)
(0 0 0)
(0 0 0)
(0 0 0)
(0 0 0)
(0 0 0)
(0 0 0)
(0 0 0)
(0 0 0)
(0 0 0)
(0 0 0)
(0 0 0)
(0 0 0)
(0 0 0)
(0 0 0)
(0 0 0)
(0 0 0)
(0 0 0)
(0 0 0)
(0 0 0)
(0 0 0)
(0 0 0)
(0 0 0)
(0 0 0)
(0 0 0)
(0 0 0)
(0 0 0)
(0 0 0)
(0 0 0)
(0 0 0)
(0 0 0)
(0 0 0)
(0 0 0)
(0 0 0)
(0 0 0)
(0 0 0)
(0 0 0)
(0 0 0)
(0 0 0)
(0 0 0)
(0 0 0)
(0 0 0)
(0 0 0)
(0 0 0)
(0 0 0)
(0 0 0)
(0 0 0)
(0 0 0)
(0 0 0)
(0 0 0)
(0 0 0)
(0 0 0)
(0 0 0)
(0 0 0)
(0 0 0)
(0 0 0)
(0 0 0)
(0 0 0)
(0 0 0)
(0 0 0)
(0 0 0)
(0 0 0)
(0 0 0)
(0 0 0)
(0 0 0)
(0 0 0)
(0 0 0)
(0 0 0)
(0 0 0)
(0 0 0)
(0 0 0)
(0 0 0)
(0 0 0)
(0 0 0)
(0 0 0)
(0 0 0)
(0 0 0)
(0 0 0)
(0 0 0)
(0 0 0)
(0 0 0)
(0 0 0)
(0 0 0)
(0 0 0)
(0 0 0)
(0 0 0)
(0 0 0)
(0 0 0)
(0 0 0)
(0 0 0)
(0 0 0)
(0 0 0)
(0 0 0)
(0 0 0)
(0 0 0)
(0 0 0)
(0 0 0)
(0 0 0)
(0 0 0)
(0 0 0)
(0 0 0)
(0 0 0)
(0 0 0)
(0 0 0)
(0 0 0)
(0 0 0)
(0 0 0)
(0 0 0)
(0 0 0)
(0 0 0)
(0 0 0)
(0 0 0)
(0 0 0)
(0 0 0)
(0 0 0)
(0 0 0)
(0 0 0)
(0 0 0)
(0 0 0)
(0 0 0)
(0 0 0)
(0 0 0)
(0 0 0)
(0 0 0)
(0 0 0)
(0 0 0)
(0 0 0)
(0 0 0)
(0 0 0)
(0 0 0)
(0 0 0)
(0 0 0)
(0 0 0)
(0 0 0)
(0 0 0)
(0 0 0)
(0 0 0)
(0 0 0)
(0 0 0)
(0 0 0)
(0 0 0)
(0 0 0)
(0 0 0)
(0 0 0)
(0 0 0)
(0 0 0)
(0 0 0)
(0 0 0)
(0 0 0)
(0 0 0)
(0 0 0)
(0 0 0)
(0 0 0)
(0 0 0)
(0 0 0)
(0 0 0)
(0 0 0)
(0 0 0)
(0 0 0)
(0 0 0)
(0 0 0)
(0 0 0)
(0 0 0)
(0 0 0)
(0 0 0)
(0 0 0)
(0 0 0)
(0 0 0)
(0 0 0)
(0 0 0)
(0 0 0)
(0 0 0)
(0 0 0)
(0 0 0)
(0 0 0)
(0 0 0)
(0 0 0)
(0 0 0)
(0 0 0)
(0 0 0)
(0 0 0)
(0 0 0)
(0 0 0)
(0 0 0)
(0 0 0)
(0 0 0)
(0 0 0)
(0 0 0)
(0 0 0)
(0 0 0)
(0 0 0)
(0 0 0)
(0 0 0)
(0 0 0)
(0 0 0)
(0 0 0)
(0 0 0)
(0 0 0)
(0 0 0)
(0 0 0)
(0 0 0)
(0 0 0)
(0 0 0)
(0 0 0)
(0 0 0)
(0 0 0)
(0 0 0)
(0 0 0)
(0 0 0)
(0 0 0)
(0 0 0)
(0 0 0)
(0 0 0)
(0 0 0)
(0 0 0)
(0 0 0)
(0 0 0)
(0 0 0)
(0 0 0)
(0 0 0)
(0 0 0)
(0 0 0)
(0 0 0)
(0 0 0)
(0 0 0)
(0 0 0)
(0 0 0)
(0 0 0)
(0 0 0)
(0 0 0)
(0 0 0)
(0 0 0)
(0 0 0)
(0 0 0)
(0 0 0)
(0 0 0)
(0 0 0)
(0 0 0)
(0 0 0)
(0 0 0)
(0 0 0)
(0 0 0)
(0 0 0)
(0 0 0)
(0 0 0)
(0 0 0)
(0 0 0)
(0 0 0)
(0 0 0)
(0 0 0)
(0 0 0)
(0 0 0)
(0 0 0)
(0 0 0)
(0 0 0)
(0 0 0)
(0 0 0)
(0 0 0)
(0 0 0)
(0 0 0)
(0 0 0)
(0 0 0)
(0 0 0)
(0 0 0)
(0 0 0)
(0 0 0)
(0 0 0)
(0 0 0)
(0 0 0)
(0 0 0)
(0 0 0)
(0 0 0)
(0 0 0)
(0 0 0)
(0 0 0)
(0 0 0)
(0 0 0)
(0 0 0)
(0 0 0)
(0 0 0)
(0 0 0)
(0 0 0)
(0 0 0)
(0 0 0)
(0 0 0)
(0 0 0)
(0 0 0)
(0 0 0)
(0 0 0)
(0 0 0)
(0 0 0)
(0 0 0)
(0 0 0)
(0 0 0)
(0 0 0)
(0 0 0)
(0 0 0)
(0 0 0)
(0 0 0)
(0 0 0)
(0 0 0)
(0 0 0)
(0 0 0)
(0 0 0)
(0 0 0)
(0 0 0)
(0 0 0)
(0 0 0)
(0 0 0)
(0 0 0)
(0 0 0)
(0 0 0)
(0 0 0)
(0 0 0)
(0 0 0)
(0 0 0)
(0 0 0)
(0 0 0)
(0 0 0)
(0 0 0)
(0 0 0)
(0 0 0)
(0 0 0)
(0 0 0)
(0 0 0)
(0 0 0)
(0 0 0)
(0 0 0)
(0 0 0)
(0 0 0)
(0 0 0)
(0 0 0)
(0 0 0)
(0 0 0)
(0 0 0)
(0 0 0)
(0 0 0)
(0 0 0)
(0 0 0)
(0 0 0)
(0 0 0)
(0 0 0)
(0 0 0)
(0 0 0)
(0 0 0)
(0 0 0)
(0 0 0)
(0 0 0)
(0 0 0)
(0 0 0)
(0 0 0)
(0 0 0)
(0 0 0)
(0 0 0)
(0 0 0)
(0 0 0)
(0 0 0)
(0 0 0)
(0 0 0)
(0 0 0)
(0 0 0)
(0 0 0)
(0 0 0)
(0 0 0)
(0 0 0)
(0 0 0)
(0 0 0)
(0 0 0)
(0 0 0)
(0 0 0)
(0 0 0)
(0 0 0)
(0 0 0)
(0 0 0)
(0 0 0)
(0 0 0)
(0 0 0)
(0 0 0)
(0 0 0)
(0 0 0)
(0 0 0)
(0 0 0)
(0 0 0)
(0 0 0)
(0 0 0)
(0 0 0)
(0 0 0)
(0 0 0)
(0 0 0)
(0 0 0)
(0 0 0)
(0 0 0)
(0 0 0)
(0 0 0)
(0 0 0)
(0 0 0)
(0 0 0)
(0 0 0)
(0 0 0)
(0 0 0)
(0 0 0)
(0 0 0)
(0 0 0)
(0 0 0)
(0 0 0)
(0 0 0)
(0 0 0)
(0 0 0)
(0 0 0)
(0 0 0)
(0 0 0)
(0 0 0)
(0 0 0)
(0 0 0)
(0 0 0)
(0 0 0)
(0 0 0)
(0 0 0)
(0 0 0)
(0 0 0)
(0 0 0)
(0 0 0)
(0 0 0)
(0 0 0)
(0 0 0)
(0 0 0)
(0 0 0)
(0 0 0)
(0 0 0)
(0 0 0)
(0 0 0)
(0 0 0)
(0 0 0)
(0 0 0)
(0 0 0)
(0 0 0)
(0 0 0)
(0 0 0)
(0 0 0)
(0 0 0)
(0 0 0)
(0 0 0)
(0 0 0)
(0 0 0)
(0 0 0)
(0 0 0)
(0 0 0)
(0 0 0)
(0 0 0)
(0 0 0)
(0 0 0)
(0 0 0)
(0 0 0)
(0 0 0)
(0 0 0)
(0 0 0)
(0 0 0)
(0 0 0)
(0 0 0)
(0 0 0)
(0 0 0)
(0 0 0)
(0 0 0)
(0 0 0)
(0 0 0)
(0 0 0)
(0 0 0)
(0 0 0)
(0 0 0)
(0 0 0)
(0 0 0)
(0 0 0)
(0 0 0)
(0 0 0)
(0 0 0)
(0 0 0)
(0 0 0)
(0 0 0)
(0 0 0)
(0 0 0)
(0 0 0)
(0 0 0)
(0 0 0)
(0 0 0)
(0 0 0)
(0 0 0)
(0 0 0)
(0 0 0)
(0 0 0)
(0 0 0)
(0 0 0)
(0 0 0)
(0 0 0)
(0 0 0)
(0 0 0)
(0 0 0)
(0 0 0)
(0 0 0)
(0 0 0)
(0.0878284 -0.00131971 -0.0145454)
(-0.0972118 0.0215994 0.000813729)
(0.0242453 0.0157557 0.00995639)
(-0.0578008 0.029727 0.0350883)
(-0.0881299 0.00963343 -0.0120807)
(-0.103504 0.0136717 0.0134513)
(-0.0447844 0.0549227 0.0130971)
(0.000898117 0.0509317 -0.0373156)
(0.0143348 0.10703 -0.0454363)
(0.0805465 0.0475469 -0.0703426)
(0.185125 0.0329418 -0.0329539)
(0.0952231 0.127749 -0.0416674)
(0.193695 0.111136 -0.0204004)
(0.218406 0.0279491 -0.000881342)
(0.081752 0.04209 0.0373772)
(0.27471 0.0827217 -0.0216)
(0.155462 0.0584699 0.0250212)
(-0.0675631 0.0428735 0.0168046)
(-0.066018 0.062171 0.0106902)
(-0.0551909 0.0436852 0.00751564)
(-0.0327788 0.0504771 -5.31196e-05)
(0.0400711 0.121 0.0314152)
(0.0424143 0.0558588 0.00949395)
(0.0211459 0.0630855 0.0151981)
(0.0410903 0.0384772 0.0133904)
(0.0128314 0.0188554 0.00836281)
(0.0431451 0.176389 -0.0175611)
(0.0234698 0.0767784 -0.00815582)
(0.0616464 0.180048 0.02839)
(0.132145 0.224758 0.0115737)
(0.222886 0.203464 0.00599804)
(0.179269 0.259034 0.0474525)
(0.273702 0.276859 0.0275467)
(0.278442 0.174248 -0.0151125)
(0.0457985 0.0674103 0.027759)
(0.270253 0.231468 -0.0112867)
(0.00713238 0.0561042 0.0138769)
(-0.0397882 0.0304263 0.00707098)
(-0.00782168 0.0329123 -0.000747618)
(-0.0457593 0.0229562 0.00337129)
(-0.0330613 0.0146116 0.000836025)
(-0.000950561 0.0253356 0.00120721)
(-0.00781742 0.00229202 0.0165774)
(-0.0470766 -0.006416 0.00388012)
(-0.0983484 -0.0339145 0.00602531)
(-0.0107212 -0.0183331 0.0103174)
(-0.0954033 -0.0917596 -0.0107284)
(-0.0565771 -0.0753107 -0.056252)
(0.0160209 0.0511354 -0.00341189)
(0.0319101 0.101411 0.00846477)
(0.0223207 0.0315641 -0.00303317)
(0.117027 0.108085 0.0158547)
(0.211431 0.101126 0.0127254)
(0.0599502 0.0218438 0.00317358)
(0.129389 -0.00286507 0.0248303)
(0.149906 0.0539177 -0.00649527)
(-0.004729 0.0112703 0.00296571)
(0.072203 -0.00423074 0.0010747)
(-0.0137981 -0.00104921 -0.00234896)
(-0.0184754 0.0171818 -0.00174423)
(-0.0248685 0.00774256 0.00041112)
(-0.00388884 0.0278528 -0.00597977)
(-0.0272489 0.00698009 -0.00353986)
(-0.117446 -0.0316381 0.0173025)
(-0.20871 -0.0382239 -0.00021897)
(-0.119457 -0.0609965 0.00949124)
(-0.177286 0.016767 0.00963745)
(-0.119937 -0.0349985 -0.0635008)
(-0.0350799 -0.0335173 -0.0825401)
(-0.108926 0.0711309 -0.0337088)
(0.00628036 0.00133108 -0.00332926)
(0.0160572 -0.00573987 -0.00934058)
(0.0702933 -0.0465604 0.0112464)
(0.00460535 -0.0110166 -0.00692761)
(0.0153281 -0.0261202 -0.00740206)
(0.0733988 -0.0932458 -0.00179659)
(-0.0720931 -0.0664419 0.0149044)
(0.0427395 -0.122071 0.0147186)
(-0.0181599 -0.15324 0.00286247)
(-0.126975 -0.02683 0.0155172)
(-0.14378 -0.0694767 0.0219849)
(-0.120091 -0.170965 0.0117261)
(-0.170545 -0.169075 0.0129495)
(-0.12625 -0.16667 0.0105792)
(-0.0541482 -0.0554838 0.00846182)
(-0.0671663 -0.130951 -0.0181959)
(-0.0157925 -0.0618581 -0.0156056)
(-0.0382588 0.0465342 0.00460054)
(-0.0141311 -0.0244282 -0.00463697)
(-0.0540261 -0.0919879 0.00220261)
(-0.0778641 -0.148922 -0.0166406)
(-0.0900044 -0.0732517 -0.0902723)
(-0.0778246 -0.137197 -0.0131657)
(-0.100468 -0.0909599 -0.0481238)
(-0.0464815 -0.0643533 -0.113426)
(-0.0330921 -0.0685873 -0.0689136)
(0.0790645 -0.000184418 -0.0726186)
(-0.0307502 0.0344821 -0.304629)
(-0.160487 0.0501107 0.0571524)
(0.00302999 0.0246023 0.115529)
(-0.125534 0.0713651 0.126783)
(-0.140472 0.0175549 0.0294233)
(-0.124065 0.0576443 0.109175)
(-0.160039 0.0376249 0.103299)
(-0.135246 0.0187217 0.0222422)
(-0.0492492 0.0275649 -0.039)
(-0.0892271 -0.00791513 -0.0226344)
(-0.0794139 -0.0126007 -0.0211544)
(0.00413019 -0.00543849 -0.0791928)
(0.0120574 0.0364792 -0.0804444)
(0.0345034 0.0224358 -0.0916212)
(-0.00414469 0.0736357 -0.151355)
(-0.0152635 0.019962 -0.203149)
(0.120167 0.0443567 -0.115123)
(0.0350742 0.075335 -0.112233)
(0.0787023 0.0180541 -0.0405039)
(-0.0301177 0.0558161 -0.377752)
(-0.04193 0.0595058 -0.335784)
(-0.0436174 0.0055473 -0.171571)
(-0.0324516 -0.0188998 -0.0996637)
(0.0486161 0.0719866 -0.0191274)
(0.0771089 0.182136 0.144954)
(0.0855393 0.130476 0.102263)
(0.0759234 0.0326968 -0.000707609)
(0.01613 0.00428796 -0.0293766)
(0.111174 0.0493885 0.0904705)
(0.0629644 0.0398341 0.0729093)
(0.0570309 0.0944472 0.0710841)
(0.0476048 0.066262 0.0287155)
(0.00182586 0.144837 -0.0705437)
(-0.0118139 0.106965 0.00738675)
(-0.00237562 0.210707 0.0448774)
(-0.0271736 0.0527026 -0.102864)
(-0.0250709 -0.0215059 -0.0638479)
(-0.0446377 0.0803076 0.0443964)
(-0.0273231 -0.0453059 -0.0245896)
(-0.0159106 -0.00519405 -0.18695)
(0.114551 0.130397 0.102272)
(0.0560555 0.0654677 -0.0468742)
(0.0228543 0.0376518 -0.245735)
(-0.0273465 0.0908798 0.0821455)
(-0.0117448 -0.0114343 0.000896978)
(-0.0651874 -0.0501656 -0.0919916)
(-0.0659459 0.0453404 0.0966748)
(-0.0604799 -0.00717406 -0.0386878)
(-0.0117085 -0.00426088 -0.218636)
(-0.0549874 0.0327783 -0.0985571)
(0.0275884 0.0251813 -0.34127)
(0.0154561 0.0321066 -0.376743)
(-0.00843559 0.0610234 -0.240841)
(-0.0149955 -0.0337434 -0.026308)
(-0.0791929 -0.0349414 -0.233533)
(-0.0100727 0.0422603 0.00351804)
(-0.0347898 -0.0153696 -0.0242772)
(-0.0342356 0.0203802 0.00229151)
(-0.0952646 0.0295191 -0.0545079)
(-0.122558 0.093204 0.0073557)
(-0.101585 -0.0351683 -0.243866)
(-0.118531 0.081002 -0.0370126)
(-0.0411683 -0.00969519 0.0557249)
(-0.0360876 -0.0731807 -0.0491312)
(-0.0194876 -0.0114959 -0.0294766)
(0.00596418 -0.0141985 0.00701503)
(-0.00845787 0.0310037 0.046497)
(0.0627709 -0.00542766 -0.0485825)
(-0.00374949 0.0237344 -0.04202)
(-0.0322814 0.0588562 -0.0708052)
(-0.0576224 -0.0340308 -0.00667655)
(-0.104968 0.0109063 -0.12202)
(-0.100804 -0.0735484 0.013245)
(-0.120871 -0.0381199 -0.253011)
(-0.0874405 0.0265913 -0.034599)
(-0.0984571 -0.00343762 0.014941)
(-0.0897339 0.0125529 -0.329252)
(-0.051942 -0.0489063 -0.165292)
(-0.0874265 -0.016203 -0.25206)
(-0.073565 0.000188259 -0.13896)
(0.00415038 -0.00947781 -0.265584)
(-0.0701549 0.0112089 -0.328852)
(0.0289637 -0.0277189 -0.279239)
(-0.0284089 0.0345283 -0.334555)
(-0.0210812 0.0241822 -0.292146)
(-0.136787 0.000182091 -0.0159425)
(-0.120006 0.0273421 0.0589432)
(-0.185262 -0.0193628 0.0345417)
(-0.0988691 -0.00294499 -0.10372)
(-0.0182974 0.0470445 0.0527508)
(-0.169714 -0.0602634 -0.0669001)
(-0.0580447 -0.0245326 -0.0674492)
(0.0136401 -0.00640937 -0.0991985)
(-0.0550775 -0.00574686 -0.0847515)
(-0.0639115 -0.0256812 -0.106198)
(0.00274575 -0.00442246 -0.114235)
(0.0401584 0.017306 -0.115976)
(0.0311143 0.0135804 -0.168073)
(-0.0146227 -0.00177338 -0.232427)
(0.00554357 -0.0118725 -0.228554)
(-0.0503761 0.0603002 -0.3328)
(-0.105866 -0.013222 -0.216719)
(-0.102962 -0.0273312 -0.121315)
(-0.0241798 0.0221278 -0.375565)
(-0.0313933 0.0425987 -0.299292)
(-0.106781 -0.0189195 -0.206453)
(-0.126627 -0.0467087 -0.087434)
(-0.0235272 -0.0680857 -0.167804)
(0.103691 -0.0643612 0.0965338)
(0.0476852 -0.0351056 0.0595112)
(0.0608906 -0.163031 -0.0371307)
(-0.0222041 -0.0938051 -0.220627)
(0.0812563 -0.184101 0.0167152)
(0.0520149 -0.111204 -0.0863155)
(-0.0115789 -0.0245443 -0.162018)
(-0.0319249 -0.0444301 -0.340389)
(-0.00272996 -0.0441567 -0.160022)
(0.0295951 -0.143695 -0.249961)
(0.00260555 -0.13832 -0.174305)
(0.0605191 -0.156695 -0.172809)
(-0.0112588 -0.119748 -0.186648)
(-0.0441596 -0.137042 -0.13705)
(0.0374598 0.042662 -0.0538777)
(0.0157856 0.0441609 -0.179776)
(0.0144444 -0.00347259 -0.0702219)
(0.0572814 0.0163885 -0.0294776)
(0.027333 0.0334028 -0.132265)
(-0.126103 -0.0726903 -0.19675)
(-0.133639 -0.0281614 -0.209292)
(-0.0526293 -0.0877041 -0.130903)
(-0.213295 -0.0511087 -0.130217)
(-0.178626 -0.00668771 -0.154589)
(0.000122902 0.0547217 -0.32581)
(-0.00330166 0.105571 -0.390938)
(0.0138317 0.0888014 -0.323067)
(-0.00572698 0.0812401 -0.263701)
(-0.0165657 0.124431 -0.390104)
(-0.0923514 -0.0660884 -0.218267)
(-0.108882 -0.0379268 -0.122779)
(-0.148983 0.112441 0.0237366)
(-0.0774373 -0.0657012 -0.197353)
(-0.150865 0.141225 0.0141718)
(-0.178829 0.0477671 -0.0900338)
(-0.163614 0.0985869 0.0431897)
(-0.156586 -0.0167466 -0.129135)
(-0.138825 0.0792676 -0.0214355)
(0.0640195 0.0579337 0.0305737)
(0.132389 0.034831 -0.0835724)
(0.0783951 0.0403971 -0.0698932)
(0.10116 0.0752638 -0.104147)
(0.0876471 0.12182 -0.0563484)
(0.126799 0.0654025 -0.150179)
(0.0435525 0.0699729 -0.0879541)
(-0.0399595 0.13522 -0.293037)
(-0.104515 0.021326 -0.13465)
(-0.0973554 -0.0388607 -0.162345)
(-0.0994075 0.0926437 -0.0408654)
(-0.0687466 0.0214615 -0.296231)
(-0.100047 0.115196 -0.0227538)
(-0.0876264 0.109483 -0.0334543)
(-0.0669587 -0.000511718 -0.268165)
(0.0232697 0.0211588 -0.319959)
(-0.048654 0.0222576 -0.34832)
(-0.00973801 0.0682275 -0.285946)
(0.0287106 0.0520724 -0.292951)
(-0.0313637 0.0123706 -0.295711)
(0.0662811 0.0123896 -0.268104)
(-0.0211681 0.0148643 -0.221501)
(0.00178897 -0.00454404 -0.187454)
(-0.0629833 -0.00366627 -0.139633)
(-0.00828414 0.113114 0.113712)
(-0.12705 -0.0600431 -0.100098)
(-0.0467769 -0.0041841 -0.116956)
(-0.0207202 0.0920921 0.109981)
(-0.0841759 -0.0241511 -0.0513373)
(-0.0707351 -0.0296975 -0.129985)
(-0.02767 0.00043025 -0.152614)
(-0.0586926 -0.00796928 -0.114693)
(-0.0835766 -0.0327554 -0.140604)
(-0.074764 -0.00971936 -0.191362)
(-0.0428257 -0.0159109 -0.223366)
(-0.110812 -0.0463535 -0.244667)
(0.019816 -0.0210649 -0.177384)
(0.0148329 -0.021031 -0.10424)
(-0.00369019 0.020582 -0.279539)