/*--------------------------------*- C++ -*----------------------------------*\
| =========                 |                                                 |
| \\      /  F ield         | OpenFOAM: The Open Source CFD Toolbox           |
|  \\    /   O peration     | Version:  5.x                                   |
|   \\  /    A nd           | Web:      www.OpenFOAM.org                      |
|    \\/     M anipulation  |                                                 |
\*---------------------------------------------------------------------------*/
FoamFile
{
    version     2.0;
    format      ascii;
    class       volScalarField;
    location    "0.15";
    object      voidfraction;
}
// * * * * * * * * * * * * * * * * * * * * * * * * * * * * * * * * * * * * * //

dimensions      [0 0 0 0 0 0 0];

internalField   nonuniform List<scalar> 
10571
(
0.976576
0.829653
0.993404
0.992213
0.958775
0.981892
0.991674
0.988924
0.987603
0.915664
0.96667
1
0.997908
1
0.999967
0.959737
0.95931
0.985921
0.99967
0.996655
0.864348
0.942993
0.98543
0.896689
0.966984
0.953424
0.99857
0.995199
0.971789
0.998601
0.989997
0.989904
0.986651
0.971321
0.978561
0.999969
0.989372
0.995916
0.990346
0.977839
0.973207
0.990907
0.993262
0.989708
0.95648
0.98213
0.982804
0.92932
0.976151
0.931439
0.999372
0.996796
0.976166
0.991162
0.984645
0.994249
0.994958
0.946014
0.984574
1
0.99127
0.99412
0.989667
0.96887
0.983944
0.98993
0.993678
0.990053
0.964031
0.972347
0.98714
0.966813
0.974837
0.940641
1
0.996805
0.990433
0.994516
0.98785
0.991505
0.99013
0.965738
0.986043
0.999865
0.991591
0.994565
0.988257
0.974955
0.986529
0.996366
0.991444
0.990919
0.963257
0.971642
0.986703
0.943936
0.993624
0.97452
0.99882
0.998682
0.98573
0.994835
0.996019
0.991208
0.991823
0.970657
0.988235
0.995541
0.992442
0.998142
0.997731
0.9866
0.984399
0.988857
0.997919
0.999028
0.967086
0.981765
0.992603
0.981007
0.993074
0.961354
1
0.998476
0.993053
0.996115
0.991627
0.994676
0.994274
0.985877
0.877464
0.986255
0.998681
0.9962
0.990452
0.988828
0.98366
0.68141
0.988603
0.999243
0.992745
0.99094
0.982718
0.984551
0.991302
0.957785
0.985489
0.927071
0.998684
0.993328
0.986748
0.99733
0.993654
0.989647
0.991845
0.98807
0.960482
0.995491
0.995839
0.993151
0.999698
0.996624
0.992399
0.958809
0.989534
0.991553
0.999083
1
0.977937
0.947855
0.946294
0.993597
0.968739
0.989447
0.886908
0.998481
0.998036
0.991137
0.997702
0.999558
0.991824
0.99142
0.980634
0.995193
0.992522
0.995094
0.99718
0.994305
0.991362
0.974285
0.975357
0.986285
0.996876
0.992411
1
0.97009
0.998736
0.975374
0.993659
0.983313
1
0.938162
1
0.992449
0.993067
0.99902
0.999912
0.998701
0.99738
0.976056
1
1
0.999019
0.999702
0.988654
0.988096
0.97955
0.999972
0.984271
0.996612
0.991978
0.991234
0.972243
0.969333
0.993476
0.973683
1
0.891568
0.991363
0.996414
0.988228
0.999088
0.995764
0.999454
0.995115
0.97728
1
0.997666
0.999737
0.998512
0.995578
0.97453
0.986858
0.997913
0.99485
0.999798
0.941657
0.978162
0.98937
0.979683
1
0.913867
1
0.989488
0.989303
0.998987
0.993377
0.990374
0.99392
0.982949
1
0.996111
0.998547
0.998183
0.995512
0.978592
0.98274
0.991728
0.995408
0.999031
0.9631
0.964651
0.99686
0.970946
1
0.926247
0.998044
0.993108
0.988136
0.997332
0.992339
0.989944
0.987183
0.965719
1
0.99547
0.990894
0.994751
0.990086
0.972866
0.987522
0.992981
0.990503
1
0.936583
0.9602
0.993327
0.982359
1
0.909841
0.997404
0.991588
0.992099
0.998041
0.992933
0.991994
0.991674
0.975969
1
0.987898
0.992221
0.995009
0.994047
0.961699
0.990529
0.992845
0.990552
0.999599
0.94743
0.981378
0.990428
0.969615
1
0.972448
0.998989
0.990777
0.990116
0.998075
0.997276
0.995955
0.991972
0.979415
1
0.998107
0.996969
0.998447
0.994557
0.968558
0.987583
0.994068
0.992448
0.998698
0.964223
0.974061
0.994655
0.991388
1
0.920817
0.999225
0.994899
0.993541
0.998582
0.998558
0.995406
0.992153
0.983137
1
0.998006
0.999215
0.996434
0.993434
0.95595
0.992784
0.993762
0.990253
1
0.944341
0.969454
0.993961
0.980677
1
0.960017
0.998416
0.995
0.987743
0.9974
0.987845
0.997463
0.994964
0.981702
1
0.992699
0.999365
0.997781
0.993965
0.943071
0.987974
0.99482
0.99468
1
0.962404
0.961943
0.995199
0.989568
1
0.970042
0.998989
0.988144
0.990325
0.999966
0.993377
0.989742
0.992323
0.971386
1
0.992024
0.990111
0.99926
0.992052
0.946694
0.98554
0.991335
0.992525
0.997096
0.979693
0.955168
0.995319
0.97178
0.99989
0.977378
0.999933
0.998919
0.991528
0.998244
0.991164
0.994926
0.995541
0.969525
0.99989
1
0.9959
0.999206
0.993483
0.939317
0.982174
0.989114
0.987088
0.997997
0.94099
0.95924
0.996709
0.9909
1
0.970434
0.999326
0.99115
0.991289
0.996083
0.993693
0.995487
0.992727
0.966822
1
0.999966
0.994765
0.998989
0.993531
0.927393
0.991372
0.991388
0.990281
0.999366
0.965
0.970078
0.991547
0.97487
1
0.970434
0.998685
0.992501
0.989637
0.998379
0.994727
0.996523
0.997456
0.981202
1
0.998547
0.994107
0.99734
0.993637
0.906415
0.986413
0.994977
0.992675
1
0.94939
0.976076
0.994928
0.9909
0.993513
0.973685
1
0.996724
0.989997
0.992943
0.981428
0.993614
0.997613
0.991937
1
0.996857
0.99013
0.996415
0.995274
0.899916
0.981962
0.993253
0.994797
1
0.95919
0.975919
0.997313
0.99146
0.99956
0.980177
0.996056
0.975106
0.983688
0.994598
0.98174
0.97948
0.995537
0.980191
1
0.9854
0.977464
0.978058
0.995493
0.890303
0.974118
0.982957
0.993083
0.996028
0.97809
0.939798
0.998974
0.98614
0.998351
0.981185
0.995483
0.995541
0.979182
0.998312
0.991938
0.980239
0.996559
0.972127
1
0.985637
0.990526
0.97443
0.995011
0.854392
0.988186
0.97109
0.98186
0.995694
0.96073
0.950716
0.99523
0.99202
1
0.975642
0.998416
0.993008
0.986272
0.988587
0.983732
0.987946
0.995957
0.96302
0.994723
0.997364
0.987322
0.996852
0.998731
0.821958
0.991553
0.983869
0.977975
0.994325
0.95086
0.972628
0.996468
0.98684
0.996811
0.975197
0.987932
0.995305
0.98393
0.995475
0.980588
0.990409
0.996289
0.964103
0.99989
0.99466
0.98778
0.984725
0.995104
0.778793
0.982505
0.982771
0.986113
0.989986
0.951
0.943708
0.997192
0.98222
1
0.992161
0.992079
0.984395
0.992309
0.995036
0.968536
0.988061
0.990146
0.969065
0.99802
0.997263
0.973418
0.991881
0.991156
0.738045
0.987164
0.976872
0.984783
0.992189
0.91957
0.953189
0.992603
0.95737
0.990543
0.994457
0.998348
0.991319
0.98381
0.995408
0.97986
0.98123
0.986414
0.974104
1
1
0.970556
0.987799
0.985769
0.720392
0.982293
0.974256
0.970444
0.979137
0.88604
0.960011
0.984331
0.95989
0.997911
0.994905
0.998045
0.998379
0.985672
0.995745
0.976536
0.97979
0.980401
0.973641
0.996812
1
0.983218
0.969717
0.959955
0.658365
0.992062
0.968865
0.959431
0.954468
0.83697
0.962952
0.973097
0.94358
0.996922
0.992721
0.998787
0.999324
0.987174
0.998042
0.990924
0.980477
0.967603
0.982634
1
1
0.981003
0.937774
0.823128
0.553413
0.993987
0.968611
0.888983
0.851152
0.68962
0.97414
0.958662
0.92601
0.993624
0.988858
0.998989
1
0.989367
0.986629
0.985559
0.980335
0.965854
0.987903
1
0.998513
0.985315
0.86572
0.564241
0.459132
0.993897
0.970525
0.73403
0.541104
0.57797
0.982038
0.922222
0.781879
1
0.989024
0.99046
0.997264
0.995162
0.988992
0.99778
0.98083
0.974331
0.984297
1
0.997736
0.99298
0.808044
0.483498
0.454368
0.997685
0.991279
0.61595
0.442329
0.542962
0.995316
0.802505
0.573559
0.991643
0.98964
0.979471
0.997838
0.996484
0.982374
0.999073
0.989538
0.988704
0.982746
1
0.996924
0.998211
0.804319
0.484414
0.445771
0.993837
0.998869
0.625859
0.431443
0.522523
0.994271
0.721949
0.541149
0.992082
0.986451
0.989921
0.995338
0.998828
0.990208
0.999779
0.999424
0.994887
0.971153
1
1
0.999592
0.846783
0.517524
0.448613
0.991612
0.998627
0.64
0.426603
0.489272
0.988154
0.610652
0.493129
0.971518
0.988294
0.984526
0.997838
0.994621
0.984129
0.999779
1
0.998445
0.964678
0.99824
0.99902
0.999888
0.916191
0.580587
0.449822
0.990438
0.999289
0.687716
0.437252
0.476042
0.985637
0.575835
0.507969
0.992303
0.981521
0.984864
0.989157
0.99399
0.983352
1
0.999777
0.999253
0.91881
0.993403
0.997769
0.999665
0.964738
0.681231
0.463515
0.988666
0.999415
0.779846
0.483218
0.894718
0.974136
0.575352
0.800827
0.984608
0.985609
0.986786
0.997804
0.986388
0.987608
1
1
0.990166
0.715642
0.990545
1
0.999888
0.962252
0.785653
0.703135
0.98551
0.99782
0.858946
0.707243
1
0.875231
0.555302
1
0.967233
0.89364
0.994067
0.995102
0.896615
0.991186
1
0.999885
0.890984
0.507704
0.948105
0.999054
0.999888
0.913717
0.863822
0.99362
0.973662
0.903414
0.913514
0.972594
1
0.524693
0.963885
1
0.781493
0.596941
0.616351
0.597951
0.514081
0.563375
0.998089
0.969333
0.898068
1
0.759985
0.554099
0.979734
0.860749
0.986321
0.995313
0.479877
0.884566
0.978828
0.999366
0.99797
0.977663
1
1
0.976027
1
0.989853
0.999628
1
0.999291
0.852416
0.886675
0.996248
1
0.992082
0.999662
0.879979
0.947682
0.999287
0.996765
1
0.995595
1
0.999433
1
1
1
1
1
1
1
1
1
1
0.998878
0.999885
1
1
1
1
0.997719
1
0.999433
0.997431
1
1
1
0.999232
0.99391
1
1
1
1
1
1
1
1
1
1
1
1
1
1
1
1
1
0.999562
0.992534
1
1
1
1
0.9944
1
1
1
1
1
1
1
1
1
1
1
1
1
1
1
1
1
1
1
1
1
1
1
0.99517
1
1
1
1
1
1
1
1
1
1
1
1
1
1
1
1
1
1
1
1
1
1
1
1
1
1
1
1
1
1
1
1
1
1
1
1
1
1
1
1
1
1
1
1
1
1
1
1
1
1
1
1
1
1
1
1
1
1
1
1
1
1
1
1
1
1
1
1
1
1
1
1
1
1
1
1
1
1
1
1
1
1
1
1
1
1
1
1
1
1
1
1
1
1
1
1
1
1
1
1
1
1
1
1
1
1
1
1
1
1
1
1
1
1
1
1
1
1
1
1
1
1
1
1
1
1
1
1
1
1
1
1
1
1
1
1
1
1
1
1
1
1
1
1
1
1
1
1
1
1
1
1
1
1
1
1
1
1
1
1
1
1
1
1
1
1
1
1
1
1
1
1
1
1
1
1
1
1
1
1
1
1
1
1
1
1
1
1
1
1
1
1
1
1
1
1
1
1
1
1
1
1
1
1
1
1
1
1
1
1
1
1
1
1
1
1
1
1
1
1
1
1
1
1
1
1
1
1
1
1
1
1
1
1
1
1
1
1
1
1
1
1
1
1
1
1
1
1
1
1
1
1
1
1
1
1
1
1
1
1
1
1
1
1
1
1
1
1
1
1
1
1
1
1
1
1
1
1
1
1
1
1
1
1
1
1
1
1
1
1
1
1
1
1
1
1
1
1
1
1
1
1
1
1
1
1
1
1
1
1
1
1
1
1
1
1
1
1
1
1
1
1
1
1
1
1
1
1
1
1
1
1
1
1
1
1
1
1
1
1
1
1
1
1
1
1
1
1
1
1
1
1
1
1
1
1
1
1
1
1
1
1
1
1
1
1
1
1
1
1
1
1
1
1
1
1
1
1
1
1
1
1
1
1
1
1
1
1
1
1
1
1
1
1
1
1
1
1
1
1
1
1
1
1
1
1
1
1
1
1
1
1
1
1
1
1
1
1
1
1
1
1
1
1
1
1
1
1
1
1
1
1
1
1
1
1
1
1
1
1
1
1
1
1
1
1
1
1
1
1
1
1
1
1
1
1
1
1
1
1
1
1
1
1
1
1
1
1
1
1
1
1
1
1
1
1
1
1
1
1
1
1
1
1
1
1
1
1
1
1
1
1
1
1
1
1
1
1
1
1
1
1
1
1
1
1
1
1
1
1
1
1
1
1
1
1
1
1
1
1
1
1
1
1
1
1
1
1
1
1
1
1
1
1
1
1
1
1
1
1
1
1
1
1
1
1
1
1
1
1
1
1
1
1
1
1
1
1
1
1
1
1
1
1
1
1
1
1
1
1
1
1
1
1
1
1
1
1
1
1
1
1
1
1
1
1
1
1
1
1
1
1
1
1
1
1
1
1
1
1
1
1
1
1
1
1
1
1
1
1
1
1
1
1
1
1
1
1
1
1
1
1
1
1
1
1
1
1
1
1
1
1
1
1
1
1
1
1
1
1
1
1
1
1
1
1
1
1
1
1
1
1
1
1
1
1
1
1
1
1
1
1
1
1
1
1
1
1
1
1
1
1
1
1
1
1
1
1
1
1
1
1
1
1
1
1
1
1
1
1
1
1
1
1
1
1
1
1
1
1
1
1
1
1
1
1
1
1
1
1
1
1
1
1
1
1
1
1
1
1
1
1
1
1
1
1
1
1
1
1
1
1
1
1
1
1
1
1
1
1
1
1
1
1
1
1
1
1
1
1
1
1
1
1
1
1
1
1
1
1
1
1
1
1
1
1
1
1
1
1
1
1
1
1
1
1
1
1
1
1
1
1
1
1
1
1
1
1
1
1
1
1
1
1
1
1
1
1
1
1
1
1
1
1
0.527333
0.673851
0.569028
0.586293
0.656541
0.624761
0.564319
0.522276
0.527813
0.498922
0.52728
0.543492
0.574995
0.577719
0.623328
0.641071
0.851897
0.697127
0.598003
0.934092
0.69726
0.524456
0.517543
0.557895
0.520077
0.518761
0.544587
0.639988
0.615354
0.566582
0.664247
0.651295
0.840953
0.82244
0.936813
0.932702
0.954543
0.994171
0.851164
1
0.983127
0.657274
0.585491
0.823458
0.648372
0.530079
0.558268
0.532134
0.684843
0.644742
0.566234
0.709161
0.911056
0.561966
0.690885
0.989808
1
0.844131
0.976663
1
0.971662
0.994584
0.860171
0.82196
0.635219
0.667749
0.585711
0.558026
0.54078
0.522245
0.557817
0.54149
0.589982
0.520386
0.523708
0.654101
0.857495
0.575717
0.68087
0.917275
0.703601
0.708617
0.630542
0.579729
0.52997
0.548208
0.488954
0.493266
0.523159
0.549161
0.596238
0.556989
0.633449
0.569337
0.623587
0.542511
0.885742
0.944441
0.95879
0.983073
0.962134
0.933496
0.985797
0.966717
0.983654
0.953278
0.966907
0.978858
0.964898
0.933229
0.983848
0.897392
0.953646
0.933051
0.944749
0.958593
0.92927
0.976425
0.979917
0.977613
0.869547
0.973636
0.919419
0.984285
0.953719
0.980909
0.955421
0.855858
0.938572
0.955494
0.951554
0.973107
0.984326
0.958422
0.980801
0.947308
0.890383
0.94866
0.953379
0.923918
0.982778
0.951652
0.964998
0.986269
0.970642
0.916294
0.89635
0.958657
0.948338
0.947185
0.943085
0.976678
0.987402
0.868956
0.925304
0.983391
0.993054
0.939571
0.965372
0.923658
0.966177
0.81916
0.983098
0.958137
0.974973
0.931192
0.952096
0.858596
0.918637
0.962287
0.921752
0.969193
0.971396
0.920913
0.933514
0.958378
0.98664
0.959554
0.946357
0.941059
0.931179
0.948883
0.954657
0.985751
0.9922
0.969264
0.991986
0.959871
0.986096
0.968328
0.986207
0.9893
0.98219
0.976832
0.983656
0.960325
0.952996
0.970048
0.973441
0.977653
0.950339
0.974016
0.982602
0.993424
0.939719
0.996707
0.970394
0.990412
0.956518
0.988282
0.974271
0.94867
0.934143
0.9824
0.957657
0.983939
0.984387
0.961444
0.972811
0.953836
0.931676
0.942909
0.971386
0.954774
0.989924
0.969869
0.969699
0.992639
0.977231
0.947677
0.941858
0.971988
0.961316
0.945141
0.978415
0.983447
0.998353
0.932004
0.965026
0.981601
0.993336
0.949317
0.978795
0.965675
0.976211
0.951926
0.997259
0.976758
0.978492
0.958704
0.962907
0.945997
0.936362
0.974265
0.952651
0.969011
0.987467
0.944213
0.953254
0.964113
0.988416
0.969869
0.963532
0.953133
0.963408
0.959009
0.97604
0.990691
0.984277
0.965754
0.988551
0.990385
0.991852
0.970412
0.98178
0.986854
0.969571
0.97679
0.980607
0.96881
0.964588
0.980608
0.975078
0.982956
0.942575
0.977935
0.973434
0.992787
0.958606
0.996588
0.977536
0.994712
0.948406
0.993505
0.972968
0.956399
0.958091
0.986244
0.96696
0.995178
0.985348
0.978486
0.987309
0.953582
0.939883
0.962187
0.976788
0.948211
0.989993
0.968757
0.969595
0.985254
0.971492
0.953601
0.964843
0.975594
0.965171
0.957244
0.98542
0.979626
0.999066
0.948335
0.979258
0.992736
0.9968
0.936204
0.976933
0.975296
0.979217
0.956957
0.997417
0.952324
0.987711
0.951979
0.959347
0.914761
0.918291
0.979363
0.901126
0.981888
0.97138
0.961202
0.978672
0.973562
0.984247
0.961898
0.977862
0.951873
0.950978
0.964742
0.96923
0.980639
0.972193
0.973835
0.993927
0.991648
0.983038
0.982757
0.984061
0.994975
0.982584
0.990804
0.973362
0.953929
0.977228
0.97582
0.975891
0.99459
0.953026
0.980305
0.977047
0.991327
0.96922
0.996915
0.984134
0.972409
0.969568
0.999044
0.983446
0.952698
0.951267
0.989023
0.981537
0.99081
0.993075
0.986148
0.991314
0.97052
0.969169
0.97253
0.974527
0.984793
0.989295
0.98631
0.988237
0.994399
0.992297
0.988448
0.97172
0.987773
0.985351
0.970424
0.979649
0.994491
0.997505
0.952289
0.978336
0.98672
1
0.968733
0.981273
0.977932
0.982323
0.944738
0.989605
0.977739
0.980675
0.963791
0.963509
0.940989
0.944874
0.988992
0.963798
0.95792
0.984567
0.945237
0.956988
0.966982
0.99064
0.974969
0.964008
0.971912
0.961459
0.957064
0.981529
0.992532
0.99455
0.992523
0.995665
0.994852
0.995093
0.983386
0.996702
0.995424
0.985664
0.981021
0.978637
0.970885
0.969768
0.980982
0.980192
0.991999
0.956315
0.986368
0.977802
0.999805
0.967736
0.992948
0.981368
0.985131
0.965842
0.998103
0.985536
0.956825
0.966059
0.991138
0.981198
0.991673
0.992104
0.984056
0.992186
0.985362
0.969449
0.977313
0.976093
0.956773
0.994184
0.986487
0.989994
0.99391
0.983891
0.98828
0.96769
0.979174
0.965338
0.982965
0.985143
0.981165
0.997297
0.96794
0.97603
0.991129
0.997229
0.950105
0.989495
0.969915
0.988294
0.956288
0.999966
0.971123
0.990071
0.973305
0.97207
0.96159
0.937379
0.978106
0.948857
0.979866
0.981206
0.9865
0.981817
0.977724
0.984383
0.970012
0.982222
0.9716
0.953994
0.975393
0.988125
0.982582
0.991519
0.977899
0.982039
0.991034
0.989998
0.986861
0.989336
0.994604
0.990621
0.987643
0.981932
0.957994
0.961755
0.987085
0.986322
1
0.941355
0.982679
0.981373
0.99987
0.968595
1
0.986469
0.987949
0.965214
0.998853
0.985353
0.947743
0.964989
0.985795
0.990323
0.986885
0.994116
0.977677
0.99167
0.93782
0.980091
0.865872
0.993854
0.97771
0.991997
0.988843
0.56235
0.685165
0.548166
0.963512
0.853733
0.981261
0.858067
0.990698
0.984161
0.985924
0.991849
0.992525
0.879336
0.969047
0.948288
0.993371
0.992962
0.982239
0.969277
0.547237
0.864636
0.60216
0.986609
0.889936
0.973074
0.84216
0.976072
0.98507
1
0.957361
0.985105
0.991639
1
0.944702
0.98032
0.989908
0.984878
0.973047
0.996696
0.985419
0.985797
0.95753
0.983334
0.928843
0.926952
0.992146
0.983208
0.979206
0.995407
0.963013
0.969882
0.980685
0.99136
0.982881
0.998134
0.962939
0.952667
0.952179
0.974492
0.98049
0.992186
0.97988
0.981419
0.988763
0.991696
0.987721
0.991536
0.995606
0.990785
0.985025
0.983653
0.959664
0.978334
0.983367
0.980269
0.999479
0.916652
0.986244
0.984948
0.997752
0.970571
0.998045
0.989618
0.992215
0.958242
0.997203
0.985545
0.971677
0.991245
0.965707
0.991258
0.971323
0.998348
0.996929
1
0.988813
0.978886
0.992821
0.987613
0.975367
0.992275
0.978783
0.990582
0.977662
0.970658
0.966993
0.97432
0.934292
0.966195
0.944178
0.923049
0.974787
0.99859
0.932739
0.969551
0.985455
0.988381
0.991972
0.987333
0.992022
0.974697
0.991671
0.990915
0.975962
0.92942
0.990288
0.968211
0.947707
0.971874
0.96248
0.93541
0.954523
0.981684
0.988639
0.97928
0.982489
0.99967
0.956403
0.98686
0.98442
1
0.951339
0.986072
0.989368
0.989476
0.936011
1
0.980431
0.984239
0.938889
0.967023
0.978684
0.984893
0.984438
0.990996
0.999054
0.914778
0.941716
0.993414
0.958515
0.962634
0.989818
0.951382
0.981761
0.986173
0.990668
0.978198
0.982772
0.96941
0.955664
0.954968
0.985047
0.963031
0.979224
0.984057
0.959161
0.973318
0.991698
0.985367
1
0.985122
0.973282
0.983866
0.96534
0.96663
0.967187
0.981718
0.982027
1
0.925838
0.976594
0.977527
1
0.940497
0.999023
0.990106
0.989022
0.94137
1
0.988876
0.95379
0.997635
0.956453
1
1
1
1
1
0.980452
0.985264
0.975069
0.973368
0.990323
0.960044
0.97801
0.975128
0.972349
0.980592
0.992692
0.987445
0.992105
0.999147
0.985609
0.995714
0.999215
0.999769
0.997808
1
0.977211
0.982959
1
0.973666
0.978389
0.955626
0.98714
0.973452
0.977206
0.98095
0.968776
0.987745
0.996117
0.988666
0.999119
0.999973
1
0.999747
0.999256
0.980954
0.968466
1
0.932888
0.98904
0.989985
1
0.912018
0.99122
0.976285
0.989964
0.934443
0.995924
0.980302
0.988638
0.924215
0.997496
0.983066
1
1
1
1
0.907012
0.888681
0.986254
0.975637
0.977542
0.982447
0.990891
0.985261
0.995391
0.992541
0.97362
0.99583
0.974071
0.955317
0.9358
0.996811
0.964814
0.977042
1
0.969654
0.987279
0.979847
0.968625
1
0.985909
0.986171
0.965364
0.966313
0.962938
0.951654
0.978573
0.984889
1
0.916824
0.980702
0.979943
0.99772
0.934162
1
0.992345
0.991952
0.962676
1
0.983623
0.940613
0.931312
0.971394
0.996811
0.980613
0.98053
1
0.997001
0.98719
0.982372
0.990032
0.977913
0.993171
0.978678
0.987587
1
0.999516
1
1
1
1
1
0.977151
0.987955
1
0.987788
0.982262
0.979955
0.974646
0.989298
0.980083
0.984818
0.964726
0.991741
1
1
1
1
1
1
1
0.974048
0.963654
1
0.936151
0.980198
0.984361
1
0.938628
0.976233
0.992999
0.977303
0.930701
0.999224
0.987152
0.982649
0.94593
0.963166
0.896447
0.931572
0.980482
0.993196
0.97882
0.978732
0.994732
0.968767
0.998134
0.985444
0.968618
1
0.973661
0.947235
0.903466
0.993623
0.981577
0.988249
1
0.972367
0.960177
0.991819
0.990046
1
0.990366
0.976421
0.984236
0.983055
0.953396
0.925674
0.97543
0.978782
0.987887
0.892581
0.976152
0.976876
0.996256
0.946198
0.992162
0.988317
0.993986
0.950512
0.999074
0.985523
0.924357
0.937792
0.980685
0.993622
0.980978
0.983705
0.996811
0.946631
0.98299
0.976455
0.970701
0.972643
0.953567
0.986607
0.987607
1
0.966034
0.980017
0.972218
0.964273
0.978055
0.980595
0.978713
0.980397
0.963167
0.999439
0.952693
0.986497
0.984273
0.996503
0.914164
0.992553
0.983825
0.984785
0.94469
0.998159
0.983846
0.980672
0.952676
0.960013
0.948996
0.917933
0.982689
0.993634
0.982151
0.984112
0.996817
0.984568
1
0.995259
0.989381
1
0.974158
0.914203
0.92884
1
0.955729
0.956939
1
0.957124
0.949917
0.971375
0.959897
1
0.978131
0.967835
0.965561
0.952041
0.914601
0.941419
0.986429
0.982658
1
0.934701
0.982296
0.98686
0.999251
0.93451
0.998417
0.987896
0.99123
0.934348
0.999572
0.982588
0.938399
0.914797
0.972636
1
0.941303
0.976235
1
0.959477
0.976663
0.960754
0.968306
0.972956
0.940991
0.960127
0.980793
1
0.972823
0.981722
0.967978
0.984405
0.97558
0.954331
0.975928
0.9541
0.937778
0.999043
0.889922
0.986528
0.983733
0.999044
0.941223
0.980566
0.983556
0.977558
0.95177
1
0.98153
0.985743
0.942677
0.962915
0.861192
0.842795
0.992751
1
0.952766
0.990848
0.994293
0.984775
1
0.997131
0.986133
0.99989
0.966609
0.92912
0.941178
1
0.973377
0.961302
1
0.980188
0.983286
0.97798
0.967409
0.99956
0.985704
0.97457
0.961241
0.954409
0.954097
0.952217
0.990834
0.988857
0.985356
0.928208
0.989516
0.987189
0.978719
0.948099
1
0.989116
0.986393
0.968201
0.99015
0.985059
0.914486
0.937003
0.978481
1
0.96611
0.978249
1
0.986493
0.961559
0.94698
0.975356
0.968266
0.94026
0.973915
0.977192
1
0.972764
0.969835
0.961649
0.97141
0.960679
0.938782
0.969002
0.954032
0.962054
0.994789
0.952979
0.970577
0.984275
0.980543
0.980877
0.976661
0.980522
0.984163
0.925436
0.993759
0.969415
0.979754
0.933836
0.929256
0.916115
0.9462
0.971881
0.986062
0.97619
0.984325
0.999341
0.993261
0.993196
0.994897
0.990317
0.998573
0.978368
0.922431
0.942154
1
0.982742
0.98916
1
0.978061
0.968419
0.98843
0.977085
1
0.990914
0.975111
0.977691
0.9878
0.920734
0.944695
0.986102
0.982482
0.983893
0.94764
0.98089
0.989096
0.997104
0.967745
0.991928
0.985298
0.989095
0.944534
0.989225
0.986234
0.933552
0.951521
0.977746
1
0.977377
0.988583
1
0.977983
0.959635
0.944327
0.979532
0.956091
0.934865
0.978248
0.978548
1
0.982823
0.976031
0.940867
0.981613
0.969707
0.939768
0.98312
0.973424
0.953195
0.976851
0.96001
0.9753
0.98614
0.987337
0.933013
0.97639
0.98542
0.975981
0.95852
0.999065
0.982216
0.977197
0.977959
0.964714
0.942072
0.926261
0.99402
1
0.983778
0.992752
0.996817
0.978891
1
0.997916
0.992021
1
0.983687
0.965223
0.966687
1
0.982433
0.980197
1
0.981234
0.996881
0.990762
0.98262
1
0.99264
0.978091
0.973368
0.986266
0.958208
0.958278
0.994698
0.996484
0.992516
0.933081
0.988288
0.99279
0.997364
0.962516
0.992257
0.989592
0.991348
0.956953
1
0.992194
0.949699
0.936965
0.981965
1
0.988098
0.979294
1
0.986554
0.959662
0.928928
0.974685
0.96532
0.942021
0.988245
0.991249
1
0.995395
0.987686
0.947465
0.982268
0.964747
0.924825
0.981493
0.974191
0.968262
0.999011
0.95388
0.985319
0.987312
0.998087
0.980708
0.988679
0.987981
0.980024
0.957047
1
0.988377
0.978352
0.95733
0.952531
0.917796
0.924442
0.988251
0.996817
0.976113
0.992359
1
0.996746
1
0.994625
0.994384
1
0.984037
0.912187
0.91839
1
0.980576
0.978381
0.993623
0.976242
0.941652
0.997001
0.981962
1
0.984916
0.979136
0.990519
0.979713
0.929441
0.938636
0.988348
0.986951
0.996974
0.925857
0.976217
0.985521
0.984415
0.964596
0.996507
0.991468
0.987412
0.966844
0.998122
0.990621
0.953618
0.96691
0.977824
1
0.961236
0.975153
1
0.926015
0.966168
0.986138
0.981043
0.963203
0.978107
0.985125
0.983969
1
0.971613
0.968945
0.914716
0.979287
0.949299
0.889658
0.981571
0.973843
0.955288
0.996142
0.977109
0.987347
0.983554
1
0.954273
0.990405
0.989567
0.98121
0.940206
0.998998
0.987432
0.97747
0.957839
0.937829
0.950608
0.950258
0.995953
1
0.975416
0.993295
0.994732
0.992602
1
0.995682
0.993996
1
0.992999
0.942991
0.958602
1
0.978796
0.951251
0.996811
0.979105
0.986556
0.976526
0.958737
1
0.981494
0.956956
0.972044
0.975042
0.969562
0.967124
0.989337
0.987338
0.956563
0.9762
0.989936
0.990526
0.988156
0.953806
0.997232
0.992285
0.989996
0.960325
0.997067
0.982542
0.965371
0.957745
0.971128
1
0.973289
0.973063
1
0.98825
0.969557
0.961385
0.964878
0.968468
0.918919
0.961737
0.964724
1
0.980126
0.981297
0.911199
0.977738
0.95323
0.910759
0.983313
0.949638
0.952777
0.997395
0.945331
0.984956
0.989417
0.975005
0.945331
0.96183
0.982947
0.976345
0.965921
0.999032
0.987645
0.970903
0.964339
0.966534
0.939064
0.904364
0.989158
0.992646
0.953967
0.990245
0.998793
0.994384
1
0.996618
0.9945
0.99989
0.979416
0.980139
0.984179
1
0.980382
0.994974
1
0.983091
0.997184
0.992912
0.979909
0.996812
0.994215
0.992569
0.97427
0.975882
0.990528
0.993522
0.991016
0.991629
0.995511
0.976143
0.988646
0.993624
0.99782
0.969537
0.973608
0.983933
0.993902
0.965052
0.983588
0.992648
0.958788
0.933621
0.993034
1
0.997456
0.990672
1
0.991156
0.968011
0.951701
0.976202
0.964931
0.930475
0.991882
0.994928
1
0.995788
0.99272
0.887124
0.975256
0.934975
0.869663
0.96818
0.968958
0.986748
0.978537
0.977051
0.976392
0.987191
0.991227
0.977672
0.977447
0.9892
0.975157
0.969476
0.998965
0.988531
0.971696
0.962762
0.96318
0.930315
0.915492
0.991392
0.997914
0.959968
0.990305
0.997915
0.984892
1
0.994082
0.99059
0.998903
0.97704
0.988641
0.969682
0.993734
0.987891
0.994036
1
0.982391
0.99252
0.997638
0.993111
1
0.998425
0.995741
0.979993
0.98996
0.985374
0.974993
0.990296
0.991004
0.997625
0.968751
0.988437
0.990524
0.998145
0.972459
0.988698
0.989137
0.984017
0.969435
0.991761
0.992437
0.95361
0.97433
0.996556
1
0.999304
0.993188
1
0.99376
0.969888
0.970184
0.973799
0.975491
0.963917
0.99591
0.994889
1
0.996849
0.992565
0.875474
0.9686
0.932798
0.861751
0.96802
0.970078
0.986467
0.996637
0.970248
0.980115
0.985927
0.993701
0.980313
0.97999
0.985695
0.975346
0.968922
1
0.976415
0.980264
0.946527
0.926265
0.940607
0.965787
0.994685
1
0.958064
0.992448
0.993853
0.987066
1
0.997644
0.989037
0.99978
0.983194
0.98244
0.981528
0.996812
0.981585
0.987255
1
0.983165
0.99255
0.993671
0.993769
1
0.994335
0.989392
0.993866
0.987379
0.988438
0.984884
0.983109
0.986088
0.994697
0.969255
0.99263
0.989661
0.997657
0.982245
0.991862
0.992286
0.989183
0.977349
0.994925
0.993766
0.966636
0.966135
0.990752
1
0.99564
0.987691
0.996811
0.993276
0.973012
0.959632
0.97503
0.968856
0.957087
0.996456
0.997716
1
0.991728
0.992294
0.823857
0.963883
0.917964
0.840175
0.96937
0.989885
0.97768
0.993802
0.991675
0.98529
0.985297
0.995218
0.967268
0.982139
0.990667
0.980605
0.969374
0.999599
0.978124
0.980325
0.973433
0.946362
0.961384
0.969355
0.983845
0.993855
0.972817
0.991814
0.993633
0.993107
0.996598
0.994141
0.986054
0.996268
0.978293
0.971009
0.97017
0.996811
0.985375
0.991856
1
0.98189
0.984193
0.997365
0.99613
1
0.99479
0.99458
0.994981
0.989401
0.991085
0.983979
0.982988
0.990587
0.998438
0.972167
0.978522
0.983552
0.995574
0.988313
0.995915
0.99271
0.990054
0.984656
0.997166
0.992344
0.968804
0.973272
0.991022
1
0.992218
0.991098
1
0.993033
0.963784
0.931583
0.980885
0.967555
0.946194
0.994033
0.992605
0.99813
0.99391
0.989776
0.836164
0.963341
0.913247
0.809177
0.968247
0.986887
0.988909
0.999044
0.983636
0.991586
0.992663
0.997658
0.988918
0.985892
0.986305
0.978264
0.95779
0.999065
0.987826
0.974456
0.972924
0.96968
0.975378
0.97411
0.993568
1
0.978627
0.993869
1
0.989157
0.997805
0.995681
0.991671
1
0.980813
0.95638
0.946676
0.993624
0.981933
0.991069
1
0.979566
0.993035
0.994125
0.990439
0.99989
0.995335
0.995626
0.982919
0.985918
0.965733
0.981123
0.973676
0.976558
0.987215
0.976084
0.986908
0.970888
0.98848
0.988537
0.996178
0.995069
0.9936
0.979881
0.994925
0.993948
0.989087
0.977822
0.973685
0.996812
0.991401
0.989511
1
0.980494
0.970195
0.950056
0.981043
0.973913
0.917154
0.996638
0.992101
1
0.983547
0.978275
0.757377
0.969109
0.88573
0.748831
0.968556
0.991071
0.988422
0.997132
0.98369
0.986593
0.974713
0.997098
0.983969
0.992885
0.989172
0.976045
0.982427
0.997596
0.98688
0.977862
0.966537
0.965758
0.98419
0.977751
0.989672
1
0.969879
0.9926
0.996817
0.991557
1
0.997433
0.989503
1
0.992577
0.964528
0.988012
0.996922
0.974273
0.986195
0.996701
0.973916
0.985676
0.992156
0.98982
1
0.989671
0.992452
0.988357
0.979714
0.983843
0.979658
0.984036
0.982306
0.993461
0.988128
0.988228
0.984923
0.998698
0.971286
0.992225
0.993859
0.976625
0.979206
0.979368
0.99649
0.975796
0.986008
0.985837
1
0.983044
0.990981
1
0.989611
0.962873
0.878551
0.97926
0.946283
0.823857
0.988549
0.989429
0.996811
0.987002
0.989855
0.720676
0.965935
0.877596
0.677272
0.958488
0.985422
0.987793
0.987801
0.990945
0.990072
0.982228
0.994162
0.973901
0.984682
0.989843
0.979511
0.986213
0.996126
0.986179
0.967796
0.979255
0.963658
0.976842
0.976564
0.984085
1
0.948082
0.988643
1
0.997018
1
0.996134
0.989424
0.999561
0.979623
0.973936
0.965779
0.99989
0.975006
0.98892
0.996811
0.983244
0.990339
0.994185
0.993187
1
0.995759
0.992491
0.969672
0.988497
0.97569
0.983911
0.985236
0.980518
0.992843
0.989752
0.986968
0.986384
0.996453
0.985051
0.98804
0.995038
0.989995
0.984603
0.996935
0.992738
0.985868
0.987478
0.99017
1
0.987796
0.988931
0.996811
0.979617
0.945656
0.831247
0.960148
0.925703
0.830788
0.993457
0.994541
0.9989
0.989092
0.992796
0.639033
0.959083
0.838831
0.671227
0.96178
0.986819
0.991628
0.997099
0.967553
0.981962
0.984784
0.993998
0.969454
0.987315
0.973739
0.949294
0.986778
0.991251
0.982792
0.960376
0.987395
0.958896
0.981042
0.990765
0.98795
0.993634
0.963065
0.990999
1
0.990319
1
0.999094
0.987952
1
0.97199
0.978187
0.97937
0.993622
0.980148
0.99252
1
0.9805
0.986345
0.998092
0.99102
0.998681
0.998364
0.990478
0.982988
0.987103
0.981891
0.992268
0.9885
0.977241
0.978074
0.981071
0.986369
0.981289
0.998633
0.985165
0.999045
0.993708
0.982243
0.97915
0.996309
0.992526
0.986011
0.97775
0.987965
1
0.991188
0.988156
0.996811
0.98943
0.912795
0.822997
0.958478
0.933451
0.806473
0.992094
0.994115
1
0.993728
0.995004
0.661889
0.931637
0.801245
0.649023
0.908767
0.987098
0.986814
0.997329
0.976154
0.986592
0.990377
1
0.982788
0.99328
0.980236
0.960511
0.966944
0.989381
0.982548
0.954112
0.975638
0.958616
0.983418
0.983
0.99387
1
0.962988
0.993597
1
0.985052
1
0.99396
0.985008
1
0.981584
0.974076
0.973097
1
0.979839
0.994216
1
0.975045
0.994702
0.99473
0.991794
0.996812
0.995578
0.994697
0.989473
0.985219
0.994568
0.99373
0.987422
0.982158
0.991509
0.991991
0.986399
0.984863
0.999349
0.979829
0.998056
0.994615
0.982152
0.982576
1
0.995885
0.986079
0.986777
0.989629
0.996811
0.985737
0.989008
1
0.985947
0.921721
0.758862
0.969413
0.916382
0.749923
0.99682
0.990824
0.992632
0.992425
0.989737
0.674525
0.919289
0.768074
0.653529
0.911284
0.988423
0.987373
0.999044
0.987516
0.993796
0.977447
1
0.979861
0.994308
0.980114
0.967625
0.970899
0.990817
0.961953
0.955571
0.972755
0.923534
0.988457
0.990555
0.98333
1
0.967363
0.982361
1
0.985168
1
0.996134
0.988533
1
0.973391
0.974076
0.985503
0.996811
0.983673
0.989797
1
0.988391
0.985495
0.996153
0.997755
0.987248
0.999122
0.996594
0.985427
0.990032
0.992129
0.987393
0.989309
0.984807
0.995543
0.990703
0.991732
0.989989
0.998275
0.985446
0.999341
0.994615
0.989966
0.982297
0.996836
0.995794