/*--------------------------------*- C++ -*----------------------------------*\
| =========                 |                                                 |
| \\      /  F ield         | OpenFOAM: The Open Source CFD Toolbox           |
|  \\    /   O peration     | Version:  5.x                                   |
|   \\  /    A nd           | Web:      www.OpenFOAM.org                      |
|    \\/     M anipulation  |                                                 |
\*---------------------------------------------------------------------------*/
FoamFile
{
    version     2.0;
    format      ascii;
    class       volScalarField;
    location    "3.5";
    object      p;
}
// * * * * * * * * * * * * * * * * * * * * * * * * * * * * * * * * * * * * * //

dimensions      [0 2 -2 0 0 0 0];

internalField   nonuniform List<scalar> 
10571
(
97.7769
100.34
102.861
104.153
107.403
102.163
103.467
101.681
98.7131
102.352
97.7999
105.741
106.076
104.98
102.27
101.08
108.595
108.143
106.277
99.5888
98.5102
103.65
100.854
97.2333
91.1157
91.0118
91.6818
91.5189
88.1782
91.9449
90.5531
92.0336
88.4634
84.5725
91.2573
91.8413
83.3989
59.9407
77.3685
81.1023
89.2408
70.532
72.5896
89.0767
81.406
86.9127
84.8878
82.6784
62.8887
55.6562
67.3606
62.7049
33.4621
67.7419
4.75163
4.02604
3.56434
14.3691
64.4544
60.4643
3.24811
2.77549
3.12573
15.9037
27.1986
2.95632
2.97382
11.2625
10.3805
7.5909
12.8389
9.19275
1.65022
1.69287
1.84855
1.77282
1.96452
1.79487
1.59325
1.72293
1.72064
2.19693
1.63589
1.87077
1.93565
2.2975
1.9187
2.23528
2.06547
1.99351
1.97739
2.23752
2.33068
2.42535
2.34274
2.42507
2.42942
2.39987
2.40399
2.43764
2.37633
2.38165
2.78682
2.9014
2.67473
2.31429
2.42508
2.40841
2.75049
2.75967
2.57892
2.33415
2.36463
2.47904
2.50878
2.2911
2.32997
2.35289
2.38065
2.38089
2.48711
2.47365
2.46977
2.48592
2.43029
2.4622
2.44747
2.49533
2.41697
2.3699
2.42071
2.46855
2.4583
2.45736
2.53042
2.40453
2.39707
2.40634
2.4135
2.38975
2.38601
2.34615
2.39185
2.38247
2.40234
2.39398
2.46345
2.46937
2.459
2.46324
2.4364
2.45755
2.4358
2.4526
2.4101
2.39766
2.41999
2.45774
2.44846
2.43578
2.44115
2.4231
2.39917
2.42108
2.42139
2.39695
2.40001
2.33615
2.38583
2.41515
2.39703
2.40036
2.39467
2.44806
2.44334
2.43373
2.44664
2.42724
2.43226
2.4127
2.45883
2.41635
2.40201
2.41908
2.43626
2.43341
2.4482
2.44204
2.45591
2.41477
2.42664
2.42543
2.40406
2.42797
2.3709
2.40153
2.42084
2.40774
2.41301
2.40892
2.4363
2.42918
2.42202
2.43568
2.41838
2.41928
2.40081
2.44665
2.43018
2.41682
2.42178
2.42675
2.42947
2.4506
2.43948
2.46802
2.43652
2.44249
2.42754
2.41147
2.44678
2.40886
2.41584
2.42
2.42765
2.42685
2.4399
2.43045
2.42742
2.43702
2.42837
2.42254
2.41642
2.44458
2.44114
2.42433
2.43176
2.43521
2.452
2.45092
2.46584
2.44776
2.42867
2.42703
2.45662
2.43639
2.43719
2.43628
2.44362
2.44398
2.44724
2.44199
2.44059
2.44792
2.44872
2.443
2.44052
2.45466
2.45266
2.44532
2.4427
2.44493
2.45424
2.4628
2.46306
2.44924
2.44004
2.44425
2.46213
2.4532
2.4541
2.4521
2.45677
2.45611
2.45745
2.45658
2.4581
2.45863
2.4666
2.45909
2.46066
2.46289
2.46737
2.4586
2.45608
2.45609
2.46226
2.4639
2.46419
2.45923
2.45688
2.45702
2.46315
2.46264
2.46119
2.46151
2.46396
2.46292
2.46702
2.46725
2.4734
2.46642
2.47329
2.46481
2.48336
2.46654
2.476
2.46396
2.46813
2.46487
2.46972
2.46728
2.46805
2.46354
2.47019
2.46374
2.4632
2.46612
2.46473
2.46387
2.46519
2.46495
2.47259
2.47454
2.4808
2.47122
2.47642
2.47125
2.49964
2.47274
2.46999
2.46446
2.47476
2.47367
2.47472
2.47128
2.47194
2.46553
2.47693
2.46959
2.46671
2.4667
2.46804
2.46636
2.46643
2.46504
2.47516
2.47943
2.48209
2.482
2.4784
2.47618
2.49824
2.48413
2.46226
2.46288
2.4773
2.48137
2.47661
2.47412
2.4692
2.46356
2.48061
2.47733
2.4709
2.46689
2.46893
2.46939
2.46861
2.46673
2.47957
2.48128
2.48191
2.48603
2.4754
2.47942
2.48667
2.48823
2.45692
2.46231
2.47626
2.48015
2.47695
2.47147
2.46464
2.46122
2.48041
2.47853
2.47549
2.4698
2.46962
2.47316
2.47046
2.47114
2.48847
2.47849
2.47855
2.48083
2.46909
2.47817
2.47239
2.4746
2.45049
2.46441
2.47156
2.47097
2.47367
2.46651
2.46265
2.46054
2.47593
2.47427
2.47543
2.47323
2.4702
2.47539
2.47183
2.47511
2.47415
2.47332
2.47179
2.47043
2.46529
2.4765
2.45675
2.46056
2.44849
2.46621
2.46713
2.46736
2.46809
2.4638
2.46056
2.46365
2.46876
2.46889
2.47046
2.47111
2.47071
2.47487
2.47405
2.47517
2.46362
2.46725
2.46337
2.46062
2.46418
2.47006
2.44449
2.44345
2.45539
2.46858
2.46518
2.46701
2.46029
2.46353
2.46217
2.47081
2.46297
2.46269
2.46604
2.46539
2.47259
2.47234
2.4718
2.4722
2.4573
2.46194
2.45675
2.45291
2.46277
2.45958
2.43514
2.43562
2.4622
2.47156
2.46292
2.4615
2.45652
2.46347
2.46801
2.47998
2.46311
2.45789
2.46527
2.46538
2.47604
2.46918
2.46872
2.47057
2.45755
2.46155
2.45715
2.45084
2.46165
2.45647
2.44143
2.43839
2.46686
2.4745
2.4611
2.45668
2.45203
2.46358
2.47887
2.48735
2.46346
2.45871
2.46912
2.46898
2.48133
2.46891
2.47002
2.47382
2.46569
2.46694
2.46589
2.45901
2.46407
2.46267
2.46211
2.45064
2.47375
2.47848
2.46377
2.45875
2.45606
2.47121
2.49333
2.49184
2.4634
2.46461
2.48067
2.47945
2.49039
2.47188
2.4768
2.4819
2.47803
2.4756
2.47572
2.47279
2.47097
2.47364
2.48188
2.46902
2.48433
2.48399
2.47294
2.46671
2.47288
2.48083
2.50507
2.49728
2.46738
2.47288
2.48863
2.49351
2.49956
2.47631
2.48341
2.49007
2.48964
2.48501
2.48495
2.48638
2.48025
2.48468
2.49636
2.48555
2.49157
2.48969
2.48423
2.47998
2.48476
2.49069
2.50826
2.50092
2.47996
2.47964
2.48993
2.50201
2.50209
2.48285
2.48905
2.4921
2.49909
2.49249
2.48911
2.49621
2.49052
2.49242
2.50243
2.49709
2.49466
2.49423
2.49227
2.49115
2.49553
2.49701
2.50681
2.50187
2.49035
2.48774
2.49101
2.49793
2.50035
2.4906
2.49251
2.4895
2.50747
2.49625
2.4922
2.50259
2.49782
2.49458
2.50287
2.50143
2.49789
2.49751
2.49615
2.49206
2.50176
2.50072
2.50456
2.5021
2.49562
2.49515
2.49288
2.49254
2.49978
2.49764
2.49472
2.49226
2.50971
2.4973
2.49652
2.51296
2.50331
2.49407
2.4988
2.50326
2.50154
2.49943
2.49892
2.49455
2.50341
2.50295
2.50215
2.50251
2.49885
2.50041
2.49715
2.49359
2.50109
2.50262
2.49762
2.49583
2.50496
2.49812
2.49338
2.50853
2.50506
2.49431
2.49447
2.50437
2.50356
2.49995
2.50147
2.49755
2.5029
2.50434
2.49886
2.50213
2.50312
2.50519
2.50223
2.4985
2.50176
2.50551
2.5022
2.5057
2.50125
2.50055
2.49302
2.50262
2.50583
2.4976
2.4946
2.50208
2.50244
2.50063
2.50393
2.49956
2.50347
2.50317
2.4966
2.5006
2.50736
2.50781
2.5031
2.49974
2.50045
2.50519
2.50326
2.50329
2.49843
2.50293
2.49262
2.49609
2.50398
2.50081
2.49784
2.49633
2.50154
2.50011
2.50492
2.50016
2.50271
2.49984
2.49672
2.49902
2.51123
2.50638
2.5015
2.49849
2.49866
2.50811
2.50569
2.50084
2.49721
2.50432
2.49314
2.49211
2.49921
2.50168
2.49839
2.49303
2.49984
2.49922
2.50247
2.49929
2.49912
2.49812
2.49771
2.49849
2.50739
2.50213
2.49886
2.49647
2.49759
2.50345
2.50346
2.49893
2.49683
2.50458
2.49514
2.4933
2.49867
2.50182
2.49724
2.49709
2.49844
2.4983
2.49792
2.49517
2.49828
2.49762
2.49831
2.49908
2.50117
2.49963
2.49765
2.49674
2.49857
2.50062
2.50046
2.49817
2.49551
2.50286
2.49671
2.49153
2.49837
2.50116
2.49795
2.49881
2.49809
2.49819
2.49531
2.49213
2.49788
2.4967
2.49966
2.49993
2.49567
2.49706
2.49807
2.49851
2.50016
2.50141
2.49878
2.49838
2.49564
2.50055
2.49926
2.49245
2.49787
2.49818
2.49906
2.4981
2.49817
2.49857
2.49602
2.49306
2.4937
2.49529
2.50291
2.50167
2.49196
2.49462
2.49798
2.50046
2.50212
2.50169
2.49791
2.49904
2.49706
2.49925
2.50127
2.49576
2.49803
2.49672
2.49954
2.49828
2.49862
2.49955
2.49774
2.4952
2.49159
2.4958
2.50844
2.50469
2.49221
2.49242
2.49657
2.50165
2.50478
2.50048
2.49739
2.49981
2.49876
2.49955
2.50063
2.49825
2.49899
2.49752
2.49977
2.50005
2.49719
2.49762
2.50041
2.49808
2.49454
2.49736
2.51051
2.5058
2.4965
2.49122
2.49649
2.50271
2.50633
2.49911
2.49793
2.50116
2.50068
2.50129
2.50019
2.50121
2.5002
2.50176
2.50113
2.49942
2.49538
2.4979
2.5035
2.50117
2.49704
2.49855
2.50671
2.50383
2.50013
2.49261
2.49818
2.50167
2.50574
2.49873
2.49969
2.50236
2.5023
2.50297
2.5022
2.50215
2.50101
2.50348
2.50334
2.49871
2.49445
2.49873
2.50519
2.50404
2.50096
2.49839
2.50036
2.50064
2.50355
2.49423
2.49975
2.5009
2.5029
2.49943
2.50188
2.50281
2.50334
2.503
2.50509
2.50205
2.50136
2.50238
2.50431
2.49923
2.49544
2.49952
2.50504
2.50431
2.50338
2.49783
2.49404
2.49697
2.50304
2.49757
2.50052
2.49893
2.49724
2.50194
2.50357
2.50206
2.50386
2.50145
2.50496
2.50181
2.50169
2.50026
2.50299
2.50091
2.49828
2.49973
2.50357
2.50307
2.50448
2.49864
2.48955
2.49308
2.50294
2.50034
2.50057
2.4973
2.49337
2.50494
2.50433
2.50116
2.50414
2.50061
2.50273
2.50261
2.50195
2.5001
2.50037
2.50237
2.50019
2.49954
2.50293
2.50213
2.50506
2.49958
2.4888
2.49002
2.50303
2.50103
2.50082
2.49711
2.49352
2.50663
2.5044
2.50099
2.50421
2.50069
2.50176
2.50357
2.50184
2.50059
2.49978
2.50643
2.49937
2.49914
2.50319
2.50264
2.50436
2.4999
2.48959
2.48872
2.50254
2.50021
2.50159
2.49753
2.49532
2.50587
2.50409
2.50125
2.50408
2.50084
2.50215
2.50374
2.50165
2.50073
2.50026
2.50898
2.49594
2.49912
2.50384
2.50269
2.50248
2.5003
2.49059
2.48998
2.50191
2.49906
2.50221
2.49832
2.4972
2.50278
2.50313
2.50193
2.50412
2.50084
2.5026
2.50357
2.50186
2.49828
2.50099
2.50664
2.49343
2.49976
2.50248
2.50101
2.50069
2.50145
2.49288
2.49402
2.50157
2.49784
2.50211
2.49963
2.49923
2.50082
2.50191
2.50299
2.50436
2.50238
2.50332
2.50366
2.50239
2.49579
2.50132
2.5044
2.49355
2.501
2.50105
2.5001
2.49977
2.50272
2.49632
2.49931
2.50175
2.49719
2.50201
2.50112
2.50175
2.50037
2.50147
2.50433
2.50469
2.50526
2.50458
2.50396
2.50293
2.50187
2.50215
2.50306
2.49547
2.50231
2.50212
2.50116
2.49985
2.50311
2.4994
2.50409
2.50375
2.49756
2.50193
2.50208
2.50407
2.50106
2.50213
2.50571
2.50498
2.50756
2.50539
2.50408
2.50366
2.50625
2.50306
2.50219
2.49776
2.50336
2.50868
2.50526
2.50088
2.50269
2.50244
2.50771
2.50611
2.49866
2.50173
2.50226
2.50548
2.50259
2.50312
2.50608
2.50506
2.50727
2.5057
2.50393
2.50445
2.50615
2.50317
2.50135
2.50009
2.50381
2.51191
2.50693
2.50251
2.50239
2.50478
2.50836
2.50752
2.49997
2.50163
2.50212
2.50545
2.50405
2.50377
2.50569
2.50512
2.50619
2.5058
2.50385
2.50512
2.50499
2.50321
2.50031
2.50249
2.50404
2.51074
2.50882
2.50508
2.5021
2.5053
2.50761
2.50833
2.50134
2.50171
2.50254
2.50558
2.50735
2.50422
2.50552
2.50575
2.50576
2.50611
2.50429
2.5059
2.50334
2.50443
2.50028
2.50417
2.50442
2.51002
2.50956
2.50675
2.50291
2.50504
2.50763
2.50851
2.50416
2.50241
2.50408
2.50676
2.51128
2.50594
2.50544
2.50727
2.50653
2.50738
2.50571
2.50706
2.50335
2.50574
2.50188
2.5055
2.50521
2.51087
2.51059
2.50933
2.50505
2.50561
2.50826
2.51026
2.50785
2.50649
2.50808
2.51099
2.51315
2.5103
2.50987
2.50938
2.50829
2.5091
2.50772
2.50857
2.50512
2.50631
2.50422
2.50637
2.50631
2.5118
2.5113
2.51109
2.50679
2.50676
2.50839
2.51235
2.50969
2.50872
2.50932
2.51113
2.51221
2.51178
2.51064
2.51157
2.5102
2.51088
2.50989
2.50982
2.5079
2.50695
2.50691
2.50702
2.50748
2.51261
2.51195
2.51125
2.50785
2.50811
2.5087
2.51331
2.51143
2.50864
2.50863
2.50958
2.51152
2.51043
2.51001
2.51362
2.51365
2.51205
2.51183
2.51079
2.51107
2.50852
2.50896
2.50757
2.50837
2.51365
2.51306
2.51323
2.51043
2.50902
2.5091
2.5136
2.51213
2.50994
2.50728
2.50865
2.51169
2.50978
2.50911
2.51533
2.51601
2.51424
2.51345
2.51135
2.51366
2.5106
2.50964
2.50768
2.5081
2.51517
2.51469
2.51315
2.51177
2.5087
2.50883
2.51442
2.51356
2.51055
2.50783
2.50821
2.51316
2.51072
2.5094
2.51706
2.51789
2.51646
2.51469
2.51101
2.51622
2.51181
2.50875
2.507
2.50634
2.51732
2.51673
2.51336
2.51021
2.50754
2.50698
2.51599
2.51548
2.50989
2.50753
2.50681
2.51395
2.51071
2.50881
2.51817
2.52028
2.51876
2.51593
2.50949
2.51983
2.51425
2.5091
2.50341
2.50289
2.52011
2.51951
2.51485
2.50782
2.503
2.50256
2.51814
2.51652
2.50852
2.50531
2.50282
2.51458
2.50982
2.50631
2.51966
2.52424
2.5215
2.51707
2.50708
2.52461
2.5182
2.50791
2.49709
2.49536
2.52405
2.52311
2.51671
2.50562
2.4952
2.49388
2.52081
2.5167
2.50535
2.49997
2.49549
2.51501
2.50844
2.50232
2.52205
2.53036
2.52453
2.51617
2.50453
2.53066
2.52228
2.50344
2.48491
2.48392
2.52972
2.52775
2.51934
2.50189
2.48307
2.47684
2.52417
2.5178
2.50211
2.49361
2.48347
2.51793
2.50731
2.49729
2.52551
2.53935
2.53008
2.51562
2.501
2.53777
2.52559
2.49589
2.46396
2.45905
2.53668
2.53313
2.52334
2.49682
2.46276
2.44223
2.52878
2.52063
2.50064
2.48258
2.46212
2.52085
2.50754
2.49293
2.52946
2.54701
2.53462
2.51571
2.49549
2.54533
2.52992
2.48556
2.42806
2.40368
2.5448
2.54019
2.52771
2.48926
2.43035
2.36282
2.53468
2.52446
2.49877
2.46624
2.42081
2.52481
2.50916
2.48855
2.53321
2.55213
2.53728
2.51509
2.4867
2.55192
2.53673
2.47476
2.37759
2.25615
2.5527
2.5484
2.5356
2.48148
2.38458
2.18502
2.54229
2.52948
2.49737
2.44774
2.34238
2.53053
2.51214
2.48522
2.53747
2.55616
2.53867
2.5158
2.47651
2.55791
2.54274
2.46684
2.32811
1.87755
2.5594
2.55774
2.54718
2.47564
2.34373
1.90475
-2.01602
2.55064
2.53808
2.49899
2.42774
2.16638
2.53878
2.518
2.48684
2.54287
2.55724
2.54103
2.52225
2.47803
2.55916
2.54994
2.48218
2.31593
1.62386
-0.00128653
2.56359
2.56197
2.54982
2.48796
2.34526
1.85509
0.0418561
2.56067
2.54796
2.50561
2.42586
1.98331
2.54714
2.52783
2.49866
2.54988
2.54695
2.54051
2.53262
2.49807
2.55645
2.54231
2.49813
2.38395
1.87683
0.454573
2.56627
2.56487
2.54991
2.50536
2.41373
1.91456
0.526909
2.57355
2.56324
2.52367
2.46601
2.16478
0.74584
2.56077
2.54181
2.52376
2.55207
2.52976
2.53075
2.53671
2.52834
2.5481
2.52314
2.51026
2.44761
2.10145
0.546589
2.56475
2.56261
2.54742
2.5191
2.47635
2.12499
0.464465
2.57389
2.56829
2.55193
2.49959
2.28791
2.56866
2.55816
2.55022
2.55008
2.53617
2.53165
2.53579
2.54177
2.54604
2.5271
2.51199
2.48366
2.28674
2.56176
2.56022
2.55365
2.5389
2.5255
2.28762
-0.701233
2.573
2.57078
2.57051
2.55124
2.53382
2.5708
2.56559
2.56665
2.55518
2.54557
2.54544
2.54133
2.54657
2.54721
2.53629
2.51938
2.51127
2.48519
2.56023
2.5594
2.55565
2.55117
2.54935
2.53054
2.56851
2.57232
2.57507
2.57638
2.57676
2.57186
2.56985
2.5766
2.56275
2.55349
2.55436
2.55211
2.54726
2.55106
2.54255
2.53831
2.53136
2.5441
2.55951
2.55892
2.55603
2.55397
2.55392
2.56764
2.5668
2.56682
2.56801
2.57099
2.57427
2.56943
2.56943
2.57347
2.55864
2.55807
2.55592
2.54986
2.53903
2.55402
2.54268
2.53674
2.53362
2.5527
2.55889
2.55764
2.55276
2.54932
2.54914
2.56561
2.56426
2.56311
2.56231
2.56365
2.56758
2.56712
2.56569
2.56804
2.54805
2.56007
2.55292
2.54047
2.52925
2.55441
2.53739
2.53329
2.53425
2.55003
2.55758
2.55444
2.54555
2.5441
2.54584
2.55815
2.56021
2.55761
2.55558
2.55771
2.56283
2.56527
2.56262
2.56399
2.54698
2.56147
2.54931
2.53645
2.5331
2.55225
2.52885
2.52652
2.53509
2.54925
2.55481
2.54801
2.53651
2.53546
2.54177
2.55636
2.55302
2.55098
2.55079
2.55394
2.56169
2.56193
2.5605
2.56215
2.5588
2.56533
2.553
2.5436
2.54459
2.54755
2.52178
2.52748
2.5433
2.55708
2.54907
2.53502
2.52592
2.53189
2.54773
2.56161
2.53628
2.5457
2.54995
2.55417
2.56605
2.55625
2.56045
2.5657
2.58253
2.57601
2.56822
2.55739
2.55906
2.54841
2.53257
2.53172
2.55134
2.56756
2.5428
2.51799
2.52097
2.5258
2.55155
2.57252
2.50278
2.53772
2.54647
2.56459
2.57938
2.55638
2.56894
2.58085
2.60073
2.58987
2.58198
2.57016
2.57026
2.56014
2.53846
2.53892
2.55552
2.57496
2.55564
2.52802
2.52479
2.53535
2.55748
2.58201
2.51855
2.54305
2.55795
2.5763
2.59566
2.56487
2.58518
2.60539
152.259
146.473
147.82
143.742
147.279
157.89
161.103
162.98
141.613
153.604
158.96
156.381
135.496
141.857
143.343
131.091
142.675
160.112
169.008
149.594
152.006
170.028
160.107
154.322
164.609
159.953
130.547
129.988
134.447
132.536
126.605
132.276
137.238
124.36
118.791
118.716
113.279
115.225
111.278
124.159
118.016
110.217
139.844
108.821
122.905
160.501
159.365
154.046
133.69
140.043
145.892
145.306
147.463
155.776
154.764
116.19
115.698
121.222
117.09
112.981
109.51
115.211
111.536
112.315
121.264
117.486
133.994
156.212
152.496
159.503
154.005
163.709
158.835
157.406
163.484
123.247
113.061
138.752
121.255
116.353
112.698
123.296
125.438
138.655
158.025
157.113
154.735
154.865
157.566
150.932
146.287
140.545
145.367
145.965
138.861
151.368
98.8916
92.2982
97.4988
100.225
101.692
91.6897
92.206
92.4556
102.625
102.75
91.2783
91.9766
92.0312
104.148
92.0466
98.3747
92.8432
101.262
100.588
102.496
92.6239
92.7601
93.0511
94.6421
109.442
100.947
105.546
92.5319
91.8547
93.5071
92.5259
106.352
91.6951
99.4827
96.9055
101.34
93.5442
92.5362
93.2366
102.351
100.483
91.7074
91.4641
88.1062
103.411
102.861
92.3055
93.1479
92.785
98.0013
98.207
87.9991
84.6844
86.133
103.006
92.6958
109.355
106.83
108.102
94.0844
97.2878
94.2218
95.2546
98.2142
98.4391
98.1373
92.8527
89.1249
89.1094
86.9954
87.4215
103.707
93.978
103.384
97.1498
93.4655
92.9469
91.5762
97.8584
95.9611
91.0863
88.865
90.3066
88.2228
91.237
85.5904
91.384
91.5991
91.5291
87.1438
87.1937
86.9129
91.1373
90.4425
86.4461
85.1618
81.4082
88.3567
75.1193
91.5535
85.8866
91.4238
91.6078
92.0264
84.0977
85.9739
86.1828
87.104
86.3995
89.4967
87.26
76.0805
70.1739
79.5833
70.6846
84.6459
63.1849
91.7303
91.4869
91.5548
87.4284
88.0421
87.6348
83.7488
81.5231
62.4457
64.2972
64.0636
91.1755
90.7998
87.1938
86.1786
83.7191
80.2986
80.4787
65.0847
66.1128
64.1454
89.4151
77.8497
89.8581
87.8936
88.3329
74.5029
69.9542
66.2637
63.7385
83.837
83.8462
81.6985
66.7992
66.2779
66.9999
67.7901
61.8378
87.7672
63.8953
86.1063
86.3273
63.9159
65.0127
70.5139
83.4987
85.3806
65.4754
66.1825
70.3393
65.1455
62.6911
2.96579
65.0025
66.4898
66.7987
3.1846
4.14473
4.40081
62.0706
51.3793
3.17921
4.24368
2.97171
30.1189
2.3571
61.0599
2.93699
65.6579
65.2198
67.6483
2.87605
3.61405
3.41963
5.02733
13.2912
45.6544
17.6178
2.54193
1.83421
2.88456
1.98818
11.1522
1.70664
66.7464
68.4284
68.6926
3.5844
3.3883
4.43155
16.0203
19.9729
1.72536
1.93134
2.02099
63.2827
54.3746
3.39156
3.91978
3.14417
19.4644
14.5512
1.81221
1.95661
1.548
34.8463
2.54495
23.2399
9.28795
11.077
2.47693
2.45426
1.84695
2.08998
10.7858
11.1954
8.90603
1.71532
1.5583
1.57635
1.34552
1.41772
5.3546
1.89422
10.0578
8.76148
1.71648
1.81091
1.6057
11.9485
9.43499
1.81831
1.48495
1.5055
1.3387
1.6834
2.75101
1.64216
1.68063
1.72554
2.76149
2.76277
2.7211
1.73337
1.70706
2.76645
2.74341
2.70882
1.8971
2.5986
1.66544
2.74932
1.75604
1.74878
1.82549
2.7365
2.72432
2.72345
2.7355
2.16895
1.84955
2.13666
2.5388
2.4419
2.57324
2.39402
2.24451
2.43599
1.65637
1.63208
1.73434
2.742
2.74009
2.70522
2.15605
2.0717
2.36603
2.30671
2.29991
1.72681
1.7652
2.73857
2.70376
2.6681
2.14506
2.25565
2.3404
2.31847
2.32136
1.94934
2.54971
2.10186
2.25531
2.27208
2.46258
2.4368
2.41136
2.35441
2.34284
2.368
2.42407
2.25054
2.29489
2.31385
2.31696
2.32488
2.37495
2.36799
2.3676
2.386
2.32037
2.3161
2.31704
2.40516
2.3695
2.32704
2.33045
2.33066
2.35087
2.39236
2.4948
2.41552
2.39205
2.33483
2.49344
2.49483
2.50346
2.36779
2.38545
2.48413
2.48976
2.47955
2.37491
2.47061
2.39988
2.49716
2.35783
2.36012
2.3788
2.51231
2.50935
2.51313
2.50801
2.38172
2.38101
2.34889
2.4778
2.46288
2.44618
2.43153
2.36608
2.40545
2.38303
2.4222
2.33961
2.48656
2.48039
2.49195
2.33701
2.3856
2.33852
2.38104
2.35571
2.36088
2.39058
2.45471
2.45839
2.45121
2.37419
2.3322
2.3755
2.30365
2.36509
2.37917
2.4318
2.33628
2.37889
2.35751
2.43183
2.408
2.4183
2.3886
2.38779
2.40308
2.43262
2.28449
2.33646
2.36616
2.39293
2.35788
2.36035
2.38316
2.3845
2.40311
2.36281
2.37387
2.39572
2.38035
2.40758
2.38742
2.39521
2.41476
2.39481
2.47628
2.47231
2.48738
2.47688
2.47211
2.47197
2.46953
2.46658
2.47152
2.47089
2.47241
2.46397
2.46983
2.44812
2.45505
2.47729
2.47199
2.46703
2.46871
2.46417
2.47723
2.47135
2.47436
2.46742
2.41646
2.41778
2.40289
2.45165
2.43891
2.42048
2.4197
2.38366
2.40786
2.47377
2.48731
2.46647
2.46824
2.48024
2.46435
2.41832
2.41259
2.4662
2.38746
2.43164
2.3995
2.41914
2.42759
2.41458
2.42621
2.42056
2.42697
2.42392
2.42618
2.45073
2.44662
2.46371
2.45005
2.44151
2.46384
2.37954
2.41168
2.38975
2.41182
2.3779
2.42532
2.42524
2.41412
2.42691
2.42044
2.42607
2.41406
2.42724
2.42761
2.42811
2.39048
2.40717
2.39406
2.41735
2.40194
2.41229
2.39819
2.40695
2.40218
2.40698
2.31639
2.36483
2.37387
2.38794
2.366
2.38718
2.3932
2.4072
2.40635
2.38545
2.39214
2.39661
2.39385
2.41041
2.39254
2.39017
2.40027
2.37853
2.46628
2.45555
2.46242
2.46409
2.46061
2.45219
2.45257
2.44976
2.45816
2.46601
2.45521
2.45114
2.45726
2.44197
2.43771
2.46275
2.44881
2.46484
2.4664
2.45956
2.45538
2.45267
2.45197
2.44476
2.42987
2.41378
2.42228
2.43326
2.42688
2.40616
2.41697
2.39647
2.42545
2.39279
2.42232
2.42117
2.42921
2.41887
2.42978
2.46071
2.46957
2.45849
2.44777
2.45204
2.4464
2.42861
2.40128
2.42567
2.39569
2.42028
2.40071
2.4293
2.42679
2.42147
2.42611
2.41612
2.42637
2.4187
2.42658
2.44889
2.43975
2.44668
2.44117
2.43695
2.42247
2.39745
2.42774
2.40467
2.43043
2.39764
2.42679
2.4267
2.41467
2.42771
2.42284
2.42981
2.41761
2.42948
2.43082
2.43226
2.40888
2.418
2.4085
2.423
2.41122
2.41819
2.40798
2.39651
2.4039
2.40765
2.35235
2.39471
2.39235
2.40111
2.42463
2.3866
2.42763
2.42756
2.41674
2.42967
2.40436
2.40471
2.40097
2.40395
2.40185
2.40524
2.40663
2.40099
2.40737
2.40625
2.40564
2.41091
2.3901
2.44319
2.43385
2.4425
2.43825
2.43927
2.43581
2.42991
2.43335
2.4447
2.44571
2.44002
2.43867
2.43526
2.42895
2.4233
2.4365
2.42876
2.44123
2.43812
2.43127
2.43429
2.43191
2.42889
2.4197
2.42357
2.39497
2.40767
2.42069
2.4187
2.38286
2.3939
2.38989
2.42162
2.38156
2.42296
2.41878
2.43069
2.42081
2.43335
2.43588
2.43826
2.43562
2.42692
2.42923
2.4272
2.42682
2.40308
2.43192
2.40378
2.43101
2.40456
2.43267
2.42985
2.41804
2.42871
2.42008
2.43313
2.41965
2.43155
2.43307
2.43395
2.42939
2.42756
2.43171
2.43826
2.41342
2.43756
2.42387
2.44633
2.42067
2.44317
2.433
2.42401
2.43258
2.43239
2.43933
2.43069
2.43695
2.43264
2.43368
2.41265
2.42109
2.41291
2.42692
2.41389
2.42045
2.41142
2.4112
2.41553
2.42075
2.39127
2.4217
2.41956
2.4252
2.4341
2.40333
2.43816
2.43246
2.4255
2.43718
2.41143
2.4131
2.41006
2.41147
2.41321
2.41526
2.41646
2.41523
2.41837
2.41946
2.42347
2.42529
2.41613
2.42895
2.4285
2.43262
2.42788
2.43197
2.43246
2.42952
2.43305
2.43576
2.43004
2.43729
2.43757
2.4288
2.42169
2.424
2.42401
2.42208
2.42674
2.42433
2.41251
2.42833
2.42631
2.42284
2.41083
2.41724
2.38029
2.39164
2.42058
2.42173
2.3889
2.39994
2.39882
2.40556
2.4216
2.42398
2.42153
2.42127
2.42276
2.42023
2.43851
2.41837
2.4412
2.41945
2.43152
2.42442
2.43806
2.4372
2.42766
2.43564
2.43409
2.43859
2.44362
2.43814
2.42567
2.431
2.42792
2.42734
2.43183
2.45763
2.42722
2.45573
2.44401
2.4582
2.42949
2.45452
2.44409
2.43664
2.44059
2.45764
2.45034
2.44449
2.44163
2.43283
2.42961
2.41495
2.4211
2.41062
2.42682
2.41221
2.42118
2.40685
2.42829
2.4301
2.43395
2.42466
2.43657
2.43877
2.44252
2.42668
2.41617
2.41941
2.42179
2.42318
2.4271
2.42848
2.42989
2.43207
2.43312
2.43558
2.43949
2.44019
2.43622
2.43137
2.43652
2.43473
2.43402
2.43552
2.43913
2.44049
2.4389
2.44086
2.43144
2.44337
2.44401
2.43631
2.43141
2.43926
2.42447
2.43012
2.42924
2.42466
2.4149
2.43532
2.43508
2.42925
2.4202
2.43038
2.40755
2.41653
2.43811
2.44061
2.42664
2.43508
2.42146
2.43645
2.42679
2.42594
2.4241
2.43533
2.43232
2.43132
2.43513
2.46057
2.43605
2.43403
2.402
2.43181
2.43524
2.43685
2.43835
2.43958
2.47923
2.42733
2.44246
2.40125
2.43769
2.43078
2.43546
2.4134
2.42685
2.41418
2.43297
2.4222
2.43301
2.42645
2.44441
2.44615
2.44906
2.44648
2.45042
2.45192
2.4542
2.44683
2.42699
2.43634
2.43621
2.43754
2.44457
2.44334
2.44444
2.44638
2.44696
2.45048
2.45219
2.45257
2.45056
2.44325
2.45087
2.44482
2.44793
2.44381
2.45129
2.4554
2.45042
2.44765
2.44224
2.45191
2.45213
2.44843
2.44766
2.45557
2.4383
2.44778
2.44273
2.43592
2.42793
2.44951
2.45105
2.44466
2.43683
2.45192
2.44606
2.45307
2.45879
2.46003
2.46438
2.46681
2.4493
2.46004
2.44462
2.43985
2.44022
2.45328
2.44802
2.4497
2.44438
2.44586
2.45278
2.45337
2.45386
2.44532
2.44376
2.44905
2.45184
2.44869
2.4467
2.44874
2.45623
2.45635
2.45691
2.44218
2.44983
2.4354
2.44255
2.43971
2.44831
2.44783
2.45147
2.45213
2.45561
2.45692
2.45845
2.45908
2.45902
2.46092
2.46149
2.45894
2.4457
2.45401
2.45002
2.45134
2.45801
2.4548
2.4562
2.4575
2.4572
2.46163
2.46107
2.46004
2.4603
2.45833
2.46498
2.45797
2.4621
2.45756
2.46393
2.4674
2.46414
2.45758
2.45463
2.46251
2.46278
2.46061
2.46184
2.46621
2.45614
2.46269
2.45904
2.45302
2.44723
2.46254
2.46575
2.46027
2.45899
2.46548
2.47442
2.47195
2.4708
2.46938
2.47628
2.47416
2.46588
2.46886
2.46087
2.45666
2.45848
2.46677
2.46376
2.46558
2.45928
2.46007
2.46231
2.46326
2.46414
2.45802
2.45498
2.46271
2.46386
2.46139
2.45936
2.461
2.4617
2.46193
2.46334
2.45744
2.46433
2.45864
2.45958
2.46231
2.46452
2.46734
2.46589
2.47006
2.46077
2.46372
2.46405
2.46539
2.46238
2.46589
2.46628
2.46306
2.46017
2.46527
2.45861
2.45938
2.46347
2.46151
2.46153
2.46295
2.46212
2.46527
2.46415
2.46236
2.46443
2.47033
2.47401
2.46851
2.47108
2.46937
2.47109
2.47362
2.47288
2.46757
2.46617
2.47078
2.47134
2.4716
2.46945
2.47229
2.46802
2.47232
2.47046
2.46604
2.46967
2.47122
2.47338
2.47093
2.47761
2.47225
2.47241
2.47442
2.47487
2.47441
2.46984
2.47579
2.47012
2.47106
2.47035
2.46895
2.47076
2.47242
2.47278
2.47477
2.46467
2.46576
2.46474
2.46526
2.46603
2.46872
2.46639
2.47211
2.47212
2.46901
2.46394
2.46405
2.46513
2.46494
2.46517
2.46969
2.47336
2.47378
2.47014
2.47468
2.47417
2.47879
2.47264
2.47697
2.46506
2.46693
2.46812
2.46669
2.46788
2.46726
2.46928
2.46664
2.4689
2.4713
2.46249
2.46238
2.465
2.464
2.46522
2.46482
2.46491
2.46571
2.46594
2.4664
2.4649
2.47626
2.47776
2.47184
2.47503
2.47431
2.47286
2.47621
2.47479
2.4734
2.47688
2.4734
2.47438
2.48113
2.47489
2.47715
2.47568
2.47813
2.47502
2.47496
2.48219
2.47732
2.47643
2.47858
2.48458
2.47592
2.4711
2.47688
2.47776
2.47733
2.47711
2.47898
2.47176
2.4723
2.47371
2.47569
2.47777
2.47445
2.4775
2.47854
2.46489
2.46523
2.46351
2.46376
2.46414
2.47402
2.47072
2.47618
2.47524
2.47322
2.4652
2.46663
2.46491
2.46467
2.46715
2.47559
2.47773
2.4816
2.47464
2.47698
2.47899
2.48694
2.47642
2.47724
2.46985
2.46625
2.46974
2.46712
2.47101
2.46483
2.4698
2.46861
2.47289
2.47423
2.46656
2.46815
2.46752
2.46865
2.46953
2.46715
2.46768
2.46766
2.46853
2.46862
2.46558
2.47907
2.48033
2.47269
2.47759
2.47527
2.47626
2.47919
2.4762
2.47608
2.4839
2.47591
2.47826
2.48501
2.47871
2.47917
2.47992
2.48074
2.47828
2.48167
2.48614
2.48089
2.48042
2.48409
2.48657
2.4779
2.47959
2.47915
2.47758
2.47757
2.47856
2.47688
2.47149
2.46991
2.475
2.47859
2.47908
2.47507
2.47881
2.47866
2.46232
2.46275
2.46237
2.46073
2.46142
2.47651
2.4768
2.47729
2.47674
2.47995
2.46395
2.46631
2.46235
2.46319
2.46488
2.47926
2.47958
2.49072
2.47805
2.47624
2.48101
2.49258
2.47898
2.47569
2.47138
2.46366
2.46955
2.46792
2.47143
2.46478
2.46968
2.46942
2.47478
2.47491
2.47103
2.47152
2.4713
2.47233
2.47302
2.47018
2.4704
2.46948
2.47225
2.47193
2.46864
2.4809
2.48046
2.48446
2.48044
2.47978
2.48689
2.48085
2.48201
2.48071
2.48511
2.48692
2.48324
2.48413
2.47877
2.47716
2.48017
2.47866
2.48175
2.48483
2.48592
2.48042
2.48179
2.48202
2.48318
2.47533
2.47444
2.47163
2.47201
2.47197
2.46885
2.46533
2.46722
2.4645
2.4743
2.47766
2.47629
2.47587
2.47521
2.47317
2.45949
2.46023
2.46277
2.45857
2.45944
2.47542
2.48188
2.47423
2.47359
2.47988
2.46278
2.46337
2.46044
2.46264
2.46261
2.47896
2.47711
2.48613
2.47909
2.47434
2.47876
2.47904
2.47822
2.47277
2.47209
2.46807
2.47029
2.47183
2.47237
2.4717
2.47102
2.46989
2.4746
2.47399
2.4728
2.47371
2.47447
2.47252
2.47386
2.47497
2.47345
2.47127
2.47761
2.47445
2.47345
2.47863
2.47588
2.48314
2.47922
2.47999
2.47751
2.47617
2.47573
2.48282
2.48144
2.48127
2.47872
2.4772
2.47507
2.47241
2.47691
2.47497
2.48027
2.47842
2.47915
2.47601
2.47766
2.47499
2.476
2.46822
2.46241
2.45918
2.46671
2.46492
2.45786
2.45519
2.46218
2.46075
2.47665
2.47272
2.47109
2.47665
2.4706
2.46936
2.45875
2.45944
2.4658
2.45919
2.46004
2.47118
2.47573
2.46898
2.46887
2.4714
2.46356
2.46343
2.46159
2.46513
2.46596
2.47407
2.47026
2.47149
2.47598
2.46994
2.47257
2.46434
2.47274
2.46734
2.47217
2.47445
2.47089
2.47311
2.47228
2.47598
2.47072
2.47036
2.47308
2.47234
2.47218
2.47359
2.47559
2.47203
2.4734
2.47972
2.47524
2.47293
2.48083
2.47552
2.47586
2.47258
2.46924
2.47242
2.47262
2.47119
2.46795
2.46889
2.46681
2.47357
2.47263
2.46833
2.46867
2.46788
2.47025
2.46771
2.47275
2.47029
2.47442
2.4722
2.4737
2.47035
2.47071
2.46963
2.47159
2.46281
2.45599
2.45422
2.46408
2.46154
2.45515
2.45399
2.46051
2.46104
2.47384
2.46908
2.46848
2.47082
2.46731
2.46734
2.45994
2.46154
2.46763
2.46218
2.46385
2.46714
2.4669
2.46601
2.46575
2.46358
2.46762
2.46978
2.4664
2.4705
2.4739
2.4665
2.46408
2.45717
2.46952
2.46524
2.4651
2.45271
2.46635
2.46286
2.47158
2.47531
2.46938
2.46825
2.47042
2.47297
2.46804
2.47159
2.47103
2.46928
2.47188
2.47333
2.47428
2.47168
2.47284
2.48
2.47593
2.47373
2.47789
2.47527
2.47406
2.46594
2.46301
2.46416
2.46528
2.46293
2.46116
2.46217
2.45965
2.46407
2.46356
2.45986
2.46007
2.45987
2.46512
2.46284
2.46773
2.46524
2.46704
2.46696
2.46855
2.46413
2.46356
2.46433
2.46555
2.46145
2.45588
2.45539
2.46357
2.46095
2.45635
2.45634
2.4625
2.46366
2.4676
2.46553
2.46547
2.46438
2.46397
2.46384
2.46483
2.46705
2.47009
2.46859
2.47029
2.46471
2.46199
2.4642
2.46367
2.46145
2.47426
2.47798
2.47566
2.47793
2.48115
2.46357
2.46408
2.45691
2.46379
2.46215
2.46273
2.46207
2.46227
2.46175
2.46911
2.46956
2.46737
2.46507
2.46908
2.46708
2.46721
2.47405
2.46805
2.4673
2.46978
2.47123
2.47085
2.46794
2.46958
2.47556
2.47389
2.46982
2.47373
2.47239
2.47081
2.46095
2.4602
2.45942
2.46026
2.4574
2.4594
2.46018
2.45668
2.45715
2.45701
2.45628
2.45569
2.45544
2.46148
2.46037
2.46338
2.46254
2.46086
2.46218
2.46308
2.46095
2.45942
2.46127
2.462
2.46105
2.45676
2.45811
2.46198
2.46061
2.45699
2.45978
2.46557
2.46661
2.46183
2.46277
2.46294
2.4605
2.46224
2.46271
2.47221
2.47396
2.47289
2.47585
2.47776
2.46224
2.46149
2.46169
2.46066
2.46151
2.48247
2.48422
2.48412
2.48655
2.48723
2.46503
2.46545
2.4674
2.46165
2.46199
2.46337
2.47083
2.46144
2.46255
2.47016
2.46638
2.46866
2.46648
2.4721
2.46742
2.47107
2.4784
2.46707
2.46715
2.4659
2.46815
2.46869
2.46505
2.46766
2.47229
2.4718
2.46875
2.47169
2.47214
2.47146
2.46105
2.46333