/*--------------------------------*- C++ -*----------------------------------*\
| =========                 |                                                 |
| \\      /  F ield         | OpenFOAM: The Open Source CFD Toolbox           |
|  \\    /   O peration     | Version:  5.x                                   |
|   \\  /    A nd           | Web:      www.OpenFOAM.org                      |
|    \\/     M anipulation  |                                                 |
\*---------------------------------------------------------------------------*/
FoamFile
{
    version     2.0;
    format      ascii;
    class       volVectorField;
    location    "7.35";
    object      U;
}
// * * * * * * * * * * * * * * * * * * * * * * * * * * * * * * * * * * * * * //

dimensions      [0 1 -1 0 0 0 0];

internalField   nonuniform List<vector> 
10571
(
(0.108949 0.370883 0.951915)
(0.0603737 0.128779 0.719556)
(-0.0473517 0.887877 1.50669)
(0.0314215 0.943616 1.62913)
(0.245503 0.553357 1.50574)
(0.536221 0.409216 1.18877)
(-0.031984 1.15925 2.24329)
(0.779041 1.55629 2.07439)
(1.22812 1.45903 2.33368)
(-0.25732 -0.00100381 1.57425)
(0.355005 0.616546 1.4468)
(0.489588 0.0910079 2.6024)
(-0.891333 -1.31371 2.20362)
(0.815601 0.199703 2.66275)
(0.769311 1.2687 2.84339)
(0.387771 0.0711587 2.05152)
(-0.288185 -0.573958 1.23275)
(-0.0664272 -0.576313 0.981523)
(0.541941 -0.550433 1.80446)
(1.295 0.264116 2.24083)
(0.0806762 -0.124134 1.30353)
(-0.0631855 -0.21922 1.04535)
(0.456405 -0.269825 1.09026)
(0.800433 -0.131361 2.18529)
(-0.111831 -0.0181111 0.500846)
(-0.0354175 0.119226 0.439238)
(-0.127211 0.0348045 0.910214)
(0.022653 0.0511421 1.57208)
(0.179094 0.0242515 0.948607)
(-0.123883 -0.227139 0.901789)
(0.061139 0.0905964 2.31393)
(0.138712 0.275329 1.30858)
(0.215656 0.216381 1.54678)
(-0.0356618 -0.0393105 1.62114)
(0.00545706 -0.25643 0.676708)
(0.229783 -0.557524 3.32435)
(0.416412 0.358387 1.27818)
(0.300283 0.219882 0.982543)
(0.0859991 -0.134933 1.21437)
(-0.161131 0.214076 1.4967)
(0.229266 0.163343 0.891296)
(0.217888 0.0888285 0.544516)
(-0.154606 -0.177038 0.837723)
(-0.623559 -0.682814 2.15629)
(0.335209 -0.542773 1.41503)
(0.0608102 -0.25206 0.730462)
(0.0832791 -0.294448 0.954132)
(-0.283442 0.0967109 1.40825)
(-0.0289699 0.0324262 0.506892)
(0.180838 -0.0673038 0.315929)
(-0.0455774 -0.401101 1.36627)
(0.259754 -0.0114339 1.36588)
(0.097683 0.153669 1.05179)
(-0.714831 -0.487036 2.34591)
(0.618663 0.34133 1.64056)
(0.55496 0.385133 1.59504)
(-0.05305 0.31077 2.49339)
(-0.174757 0.209207 1.51713)
(0.0535368 0.119938 0.630324)
(-0.276305 0.404524 2.18293)
(0.740762 0.725519 1.79342)
(0.50526 0.447765 2.93503)
(0.0599423 -0.0637128 3.48091)
(-0.260138 0.486555 1.55492)
(0.304248 0.296386 0.862195)
(0.232784 0.143112 1.52455)
(-0.0912942 -0.191021 2.52369)
(0.0796487 -0.278102 1.66201)
(0.364884 -0.381636 1.90494)
(0.111271 -0.0403715 0.270742)
(0.0867082 -0.0739777 0.510714)
(0.0660554 -0.0556138 0.785438)
(0.0402681 0.0644965 0.0317398)
(0.186012 -0.214474 0.362927)
(0.0584888 -0.19735 1.00375)
(0.383192 -0.0352736 1.04719)
(0.164143 0.388437 1.15221)
(0.0692237 -0.180959 1.29613)
(0.540752 0.178371 1.55297)
(0.696078 0.207083 2.52522)
(-0.390947 0.252038 3.23072)
(-0.245281 -0.0789907 1.28245)
(0.131588 0.387051 0.722125)
(0.150425 0.310257 1.15824)
(0.899189 0.39987 3.07263)
(-0.0289826 -0.19092 2.07281)
(0.00201323 -0.495459 2.67929)
(-0.347774 -0.214363 0.713785)
(0.988902 0.518852 1.1997)
(0.253345 -0.860858 1.29571)
(-0.116958 -0.175826 1.40908)
(0.247558 -0.456389 0.808477)
(0.160626 -0.211234 1.87439)
(-0.0364753 -0.138382 0.100036)
(0.0382498 -0.189195 -0.245641)
(0.259598 -0.191281 0.106415)
(0.0147477 -0.0073445 -0.370771)
(0.0470693 -0.00640597 0.324314)
(0.0914408 0.142521 0.906531)
(0.114818 0.541162 0.726214)
(0.379112 0.458255 0.275149)
(0.617868 0.151029 1.9521)
(0.18401 -0.119074 1.54755)
(0.286718 -0.0664008 1.50026)
(-0.210042 0.135361 2.82822)
(-0.0209841 0.303996 0.714569)
(0.0487517 0.114114 0.420803)
(0.0458277 -0.181311 0.769692)
(0.460464 0.120198 1.92727)
(0.00228712 -0.124918 1.77818)
(0.364569 -0.485889 2.22838)
(0.206688 -0.387281 0.949207)
(0.143392 -0.0935497 0.368848)
(0.235379 -0.579627 1.15736)
(0.0501765 0.175734 0.970083)
(0.551914 -0.0119148 0.778467)
(-0.00906605 -0.130797 2.31076)
(0.0333814 0.328909 0.101022)
(-0.0236349 0.233486 -0.239348)
(0.346285 -0.128783 0.214375)
(0.000471048 -0.0140615 -0.214276)
(-0.152575 0.200008 -0.078999)
(0.372549 0.293925 0.568659)
(0.0712072 0.312755 0.578811)
(0.219628 -0.0319225 0.167296)
(0.388723 0.201914 0.785372)
(0.0450545 -0.291528 0.843417)
(0.22745 -0.164759 1.65711)
(0.057823 0.0145284 2.58617)
(0.37113 0.20308 1.47161)
(-0.0164085 0.00732305 -0.00176414)
(-0.0487516 -0.0340771 -0.140967)
(0.414204 0.103193 0.561636)
(0.314552 0.161668 1.98973)
(0.0568512 -0.0571365 1.85151)
(0.386935 -0.402373 2.26146)
(0.445241 -0.556599 1.24757)
(-0.00361416 -0.00299111 -0.000631208)
(-0.214478 -0.371489 0.177985)
(-0.0481231 -0.0658315 1.12508)
(0.076146 0.145065 0.917277)
(0.51806 0.168926 0.829995)
(-0.0174463 -0.00176879 2.49715)
(-0.0453935 0.344925 0.0925798)
(0.105929 0.0214627 0.0287195)
(0.369344 -0.0438328 0.48504)
(-0.164988 -0.0338544 -0.245667)
(-0.0597637 0.169419 -0.217076)
(0.274411 0.114221 0.503978)
(0.133927 0.0064361 0.742171)
(-0.136101 -0.140935 0.180783)
(0.166941 -0.0445172 0.515061)
(0.00889771 -0.298515 1.16194)
(0.0162665 -0.137758 1.74131)
(0.100154 0.013007 2.50311)
(0.486727 0.0469503 1.74065)
(-0.201128 -0.00791617 0.0594585)
(-0.0937426 -0.143627 0.0749414)
(0.338324 0.0707218 0.746823)
(0.112135 0.122326 2.0228)
(0.0859308 -0.0142723 1.77025)
(0.345437 -0.25347 2.19002)
(0.420452 -0.339469 1.54522)
(-0.243323 -0.35126 0.0611138)
(-0.323933 -0.445159 0.0312775)
(-0.17066 0.0863705 1.02866)
(0.0263262 0.0767923 0.72104)
(0.362691 0.0915243 0.93931)
(-0.0972839 0.215567 2.33536)
(-0.295013 -0.135313 -0.399085)
(0.0376651 0.304985 0.168277)
(0.303642 0.023598 0.0452609)
(0.317079 -0.101368 0.666884)
(-0.112889 -0.0343115 -0.324077)
(-0.0268431 0.113976 -0.381939)
(0.174563 -0.0867257 0.654358)
(0.17725 -0.174418 0.935589)
(-0.202904 -0.157484 0.321432)
(0.0527259 -0.163566 0.404659)
(-0.0557605 -0.245632 1.19408)
(-0.131756 -0.0754894 1.54688)
(0.156647 0.0486303 2.45484)
(0.314568 0.000878159 1.76145)
(0.0702588 -0.105184 0.377092)
(-0.0762706 -0.147641 0.205981)
(0.180904 0.0128433 0.873409)
(-0.0288187 0.00808272 1.86164)
(0.107169 0.0183949 1.52522)
(0.367184 -0.150686 2.09328)
(0.288375 -0.133116 1.61439)
(0.01556 -0.235826 0.256322)
(-0.376908 -0.261613 0.125784)
(-0.0449777 0.168174 0.869576)
(-0.0315842 0.0502829 0.622723)
(0.235906 0.108947 1.1721)
(-0.306308 0.199155 1.84356)
(-0.296682 0.0992618 -0.341405)
(0.0679379 0.228304 0.183174)
(0.381772 -0.00669451 0.100665)
(0.250412 -0.10115 0.723076)
(0.0272151 -0.0287553 -0.213469)
(-0.0790646 0.0946583 -0.388766)
(0.0416276 -0.247422 0.802667)
(0.231024 -0.193584 1.09323)
(-0.146489 -0.177953 0.43118)
(-0.0594972 -0.177147 0.505408)
(-0.0809544 -0.236102 1.12643)
(-0.258945 0.0355007 1.32729)
(0.150768 0.0685858 2.2936)
(0.0161728 -0.102396 1.75919)
(0.344112 0.0120232 0.33754)
(-0.0400986 -0.157166 0.265974)
(0.0364332 -0.057981 0.917827)
(-0.20108 -0.151532 1.57702)
(0.0119644 0.0863618 1.30493)
(0.286083 0.0572575 2.05143)
(0.0946215 0.0492956 1.82792)
(0.00524064 0.0332326 0.115489)
(-0.300859 -0.102255 0.112925)
(0.16105 0.214199 0.608286)
(-0.0538729 0.0426411 0.673779)
(0.160019 0.175284 1.45409)
(-0.30832 0.224826 1.73922)
(0.115243 0.105178 0.162383)
(0.369153 -0.0392317 0.17534)
(0.15517 -0.0660259 0.881751)
(0.140635 -0.0351529 -0.149428)
(-0.0363635 0.0685313 -0.293205)
(0.00621424 -0.309055 0.925514)
(0.247047 -0.13161 1.18914)
(-0.15224 -0.131907 0.521878)
(-0.107403 -0.148305 0.627876)
(-0.0305696 -0.274373 1.06546)
(-0.257176 0.0793045 1.18965)
(0.0717158 0.0328357 2.0548)
(-0.2892 -0.115312 1.80041)
(-0.043883 -0.174233 0.394638)
(-0.156055 -0.147338 0.980774)
(-0.156045 -0.181625 1.34028)
(-0.0589195 0.17251 1.18419)
(0.247472 0.248614 2.02929)
(-0.224213 0.120584 1.75797)
(-0.197674 -0.00468471 0.0503307)
(0.174264 0.180552 0.517125)
(-0.125744 0.0258086 0.856023)
(0.0901468 0.260491 1.71095)
(-0.170549 0.328515 1.86477)
(0.155006 0.0241684 0.0979304)
(0.318366 -0.0762026 0.192894)
(0.0334399 -0.0188096 1.13882)
(0.164971 -0.0536624 0.0492071)
(-0.000987363 -0.0224079 -0.0740576)
(0.0468839 -0.257007 1.01725)
(0.24067 -0.110052 1.30165)
(-0.150757 -0.116232 0.638461)
(-0.138339 -0.168825 0.736739)
(0.123844 -0.301623 0.954279)
(-0.148014 0.107899 1.08833)
(0.0598481 0.0107856 1.93848)
(-0.250611 0.00238177 1.78051)
(-0.0272418 -0.170478 0.567762)
(-0.197041 -0.192788 1.03576)
(0.112406 0.029682 1.06078)
(-0.0447158 0.238083 1.12503)
(0.235972 0.308641 2.02835)
(-0.0375116 0.023548 1.75643)
(-0.154526 0.0199821 0.025011)
(0.118839 0.149518 0.528131)
(-0.171641 0.0302042 1.03707)
(0.0573487 0.316154 1.88414)
(-0.144808 0.223881 1.87508)
(0.164635 0.0415133 0.0747205)
(0.250965 -0.0563749 0.179955)
(-0.0737105 0.0222714 1.43468)
(0.138541 -0.0575344 0.281259)
(0.0332119 -0.0603612 0.164152)
(0.0647177 -0.210163 1.08142)
(0.255548 -0.0958395 1.42628)
(-0.0551285 -0.0725896 0.792672)
(-0.144075 -0.208726 0.813609)
(0.166284 -0.230342 0.724786)
(-0.0256404 0.186023 1.01163)
(0.00264528 0.00881982 1.84133)
(-0.204173 0.136177 1.69208)
(-0.0176216 -0.15151 0.706049)
(-0.259933 -0.117882 0.952653)
(0.173652 0.223191 0.823021)
(-0.039936 0.284866 1.13389)
(0.205266 0.321825 2.01726)
(-0.035519 0.00872665 1.64177)
(-0.0613385 0.0566742 0.0715834)
(-0.0126651 0.0960649 0.607765)
(-0.199176 0.0220814 1.21766)
(0.0354654 0.323408 1.98713)
(-0.137475 0.157834 1.93993)
(0.169377 0.0620462 0.0972506)
(0.211996 -0.0601833 0.165919)
(-0.153132 0.0660724 1.72023)
(0.112504 -0.0473633 0.489402)
(0.0842079 -0.102785 0.393155)
(0.0797769 -0.197537 1.11431)
(0.283495 -0.0916741 1.51913)
(0.0714327 -0.0927079 1.00102)
(-0.0300864 -0.106211 0.897457)
(0.177003 -0.118279 0.483016)
(0.0297135 0.242119 0.922056)
(-0.0595768 0.0422472 1.71941)
(-0.149941 0.263879 1.65834)
(-0.0306982 -0.118824 0.836298)
(-0.155275 -0.0703081 0.883637)
(0.0285536 0.236222 0.739517)
(-0.0620138 0.327507 1.19014)
(0.16868 0.298762 2.01235)
(-0.0438316 0.0270903 1.62695)
(0.0207074 0.106598 0.0720729)
(-0.14126 0.0282607 0.720864)
(-0.224443 -0.0114478 1.38187)
(0.00869437 0.313328 2.04829)
(-0.142148 0.149843 1.94736)
(0.176008 0.0796888 0.140345)
(0.19988 -0.0490372 0.170058)
(-0.211256 0.0986446 1.96756)
(0.0997795 -0.0321383 0.653757)
(0.154651 -0.152246 0.545694)
(0.100725 -0.115072 1.15861)
(0.293595 -0.101215 1.53006)
(0.17868 -0.09191 1.16855)
(0.0892035 -0.0787999 0.877095)
(0.186072 -0.0491199 0.346595)
(0.0199173 0.258238 0.862316)
(-0.10247 0.0586615 1.61885)
(-0.120918 0.364311 1.54317)
(-0.0151691 -0.138073 0.828524)
(-0.000290004 -0.143439 0.777499)
(-0.0963341 0.183827 0.749981)
(-0.102257 0.352482 1.21351)
(0.109835 0.272375 1.98995)
(-0.0515853 0.089727 1.64315)
(0.0552419 0.115662 0.106086)
(-0.233315 -0.0179047 0.822536)
(-0.2451 -0.0175131 1.53587)
(-0.0406244 0.299251 2.0856)
(-0.153711 0.161157 1.89258)
(0.190775 0.0890705 0.179347)
(0.204941 -0.0213879 0.204398)
(-0.257225 0.120182 2.17312)
(0.0948075 -0.016968 0.705949)
(0.179152 -0.189116 0.588648)
(0.101777 -0.0194149 1.20845)
(0.282002 -0.0811017 1.51039)
(0.222926 -0.0603243 1.29147)
(0.0396823 -0.178997 0.848785)
(0.110223 -0.0265773 0.30903)
(-0.0301705 0.258663 0.838827)
(-0.148409 0.0504127 1.54358)
(-0.0798345 0.377638 1.2662)
(-0.00923401 -0.202599 0.740131)
(0.00544346 -0.0244746 0.415025)
(-0.167406 0.104834 0.790708)
(-0.140363 0.346199 1.22235)
(0.0506526 0.267429 1.94506)
(-0.0538004 0.145664 1.66431)
(0.0198611 0.0821031 0.184098)
(-0.291424 -0.031953 0.908621)
(-0.274015 -0.00712561 1.65657)
(-0.117514 0.289431 2.10624)
(-0.173083 0.146071 1.77609)
(0.199863 0.0885156 0.204773)
(0.22302 0.00265676 0.286372)
(-0.266642 0.123754 2.32401)
(0.096786 -0.0075244 0.666294)
(0.142043 -0.1923 0.633835)
(0.125188 -0.0159894 1.23871)
(0.265705 -0.0424359 1.45941)
(0.234214 -0.0392792 1.35029)
(-0.0182249 -0.224718 0.796198)
(-0.0286905 -0.0552346 0.336543)
(-0.101152 0.206343 0.823277)
(-0.20564 0.047623 1.46134)
(-0.021863 0.330523 0.925226)
(-0.0234865 -0.177775 0.694872)
(-0.127285 -0.0138298 0.276873)
(-0.247714 0.0173306 0.79315)
(-0.170684 0.317425 1.26645)
(-0.0768706 0.194309 1.90169)
(-0.053702 0.156097 1.69388)
(-0.0259163 0.0519032 0.245564)
(-0.334844 -0.0118784 0.938348)
(-0.311797 0.00978394 1.78053)
(-0.205174 0.289668 2.11623)
(-0.176978 0.140036 1.59908)
(0.189655 0.0797348 0.215524)
(0.223094 0.0151472 0.429124)
(-0.309144 0.156356 2.4471)
(0.112443 -0.0234014 0.606828)
(0.128141 -0.182336 0.703049)
(0.130116 -0.0568183 1.22575)
(0.278501 -0.0120387 1.41207)
(0.222374 -0.0113054 1.37334)
(-0.0198016 -0.20124 0.715053)
(-0.133775 -0.14546 0.384485)
(-0.177153 0.0554914 0.809231)
(-0.237897 0.0391468 1.39757)
(0.0473477 0.280598 0.697259)
(-0.0367747 -0.148801 0.706877)
(-0.19117 -0.0401991 0.288512)
(-0.346183 -0.0622752 0.759993)
(-0.259447 0.285783 1.30605)
(-0.25 0.104322 1.81375)
(-0.0523927 0.15596 1.69812)
(-0.067526 0.0271491 0.320643)
(-0.387635 0.0301376 0.955598)
(-0.338735 0.0440213 1.89096)
(-0.345526 0.285689 2.04415)
(-0.196464 -0.0207783 1.0252)
(0.141275 0.0551015 0.218797)
(0.0769348 0.0522245 0.727047)
(-0.385526 0.211304 2.55338)
(0.146225 -0.0381621 0.611493)
(0.135429 -0.165334 0.777305)
(0.10087 -0.0922459 1.15806)
(0.315989 0.0153301 1.40305)
(0.1853 0.0107169 1.39922)
(-0.033985 -0.146969 0.647413)
(-0.197806 -0.247393 0.442766)
(-0.215602 -0.143917 0.791427)
(-0.224616 0.0583244 1.32758)
(0.124976 0.275177 0.647759)
(-0.0220574 -0.130202 0.801761)
(-0.217211 -0.0381448 0.35018)
(-0.403218 -0.163021 0.681958)
(-0.401977 0.203867 1.28179)
(-0.27831 0.111511 1.6735)
(-0.0492233 0.199049 1.70143)
(-0.0902517 0.00917603 0.418762)
(-0.445252 0.0569931 0.99574)
(-0.378666 0.0856288 1.93108)
(-0.390541 0.227658 1.92537)
(-0.0557042 0.148672 0.612752)
(0.0567326 0.0275218 0.250765)
(-0.130014 0.105975 1.09004)
(-0.462382 0.282536 2.61634)
(0.167405 -0.0493215 0.645565)
(0.125219 -0.159684 0.850261)
(0.0944439 -0.122895 1.10588)
(0.364959 0.0164006 1.44382)
(0.162003 0.0299056 1.40518)
(-0.0295657 -0.123575 0.63758)
(-0.223838 -0.30076 0.5016)
(-0.214514 -0.316798 0.794385)
(-0.134146 0.0625323 1.2462)
(0.161369 0.296628 0.690847)
(0.00128932 -0.113904 0.836884)
(-0.215984 -0.0213695 0.442159)
(-0.375467 -0.259643 0.613534)
(-0.465739 -0.0185813 1.1273)
(-0.218596 0.133991 1.46224)
(-0.0374226 0.206715 1.67526)
(-0.104981 -0.00812629 0.541322)
(-0.472677 0.0483409 1.00265)
(-0.414422 0.135882 1.89764)
(-0.333683 0.225791 1.68379)
(-0.0633015 0.204989 0.614422)
(-0.0519378 0.0220268 0.380155)
(-0.303898 0.133178 1.40715)
(-0.464121 0.283633 2.61659)
(0.125701 -0.0580943 0.682102)
(0.125432 -0.169725 0.945831)
(0.11844 -0.133525 1.09528)
(0.367642 -0.0312164 1.51705)
(0.176503 0.0798576 1.34361)
(-0.0631255 -0.101867 0.647897)
(-0.229926 -0.294833 0.556851)
(-0.195572 -0.383678 0.813637)
(-0.0054826 -0.0238518 1.19941)
(0.174978 0.266441 0.795539)
(0.00518458 -0.0763616 0.825608)
(-0.204714 -0.00248447 0.541272)
(-0.289445 -0.300888 0.578551)
(-0.343434 -0.252328 0.883343)
(-0.200848 0.0588149 1.21286)
(-0.00621267 0.152671 1.66508)
(-0.0866552 0.0120004 0.672588)
(-0.456732 -0.00709785 0.981804)
(-0.396739 0.220302 1.77308)
(-0.293456 0.194278 1.45265)
(-0.123546 0.229101 0.688735)
(-0.112431 0.0184323 0.585982)
(-0.409011 0.154978 1.60108)
(-0.414546 0.253161 2.61277)
(0.0362893 -0.0583402 0.765335)
(0.125882 -0.173058 1.03939)
(0.148746 -0.116824 1.12541)
(0.319667 -0.032497 1.57731)
(0.257964 0.147632 1.14387)
(-0.136444 -0.051494 0.68798)
(-0.233575 -0.261428 0.604791)
(-0.182296 -0.358871 0.840557)
(0.0533216 -0.153653 1.21374)
(0.160548 0.163956 0.951369)
(-0.00177341 0.0224977 0.875682)
(-0.201629 0.0341925 0.595738)
(-0.217486 -0.298504 0.554115)
(-0.188093 -0.299619 0.702351)
(-0.196787 -0.0422189 0.979344)
(0.0160148 0.0503533 1.69332)
(0.00520865 0.0962559 0.786269)
(-0.340247 -0.163668 0.94529)
(-0.242986 0.194961 1.55076)
(-0.0226639 0.226746 1.25612)
(-0.149806 0.200957 0.686432)
(-0.175493 0.00445357 0.855976)
(-0.381251 0.187686 1.65122)
(-0.303975 0.162353 2.56648)
(-0.0329303 -0.0602915 0.902864)
(0.106381 -0.166849 1.11795)
(0.142584 -0.0746862 1.17312)
(0.107032 0.00409157 1.51904)
(0.255561 0.150655 0.946735)
(-0.191419 -0.00829286 0.739816)
(-0.239204 -0.231786 0.647675)
(-0.17768 -0.290489 0.88588)
(0.00155311 -0.252405 1.21719)
(0.192727 0.109447 1.129)
(0.00190322 0.109939 0.980827)
(-0.191415 0.060811 0.614655)
(-0.182456 -0.270328 0.557065)
(-0.102781 -0.249614 0.602432)
(-0.167421 -0.107837 0.817077)
(0.023966 -0.0942364 1.6672)
(0.0791548 0.114025 0.858841)
(-0.196009 -0.250615 0.921235)
(-0.0933127 -0.0358548 1.2106)
(0.24045 0.0801072 1.15542)
(-0.14428 0.106495 0.648279)
(-0.192903 -0.0169255 1.03028)
(-0.218056 0.186545 1.64921)
(-0.142813 0.0368396 2.58928)
(-0.0387141 -0.0498577 1.0129)
(0.0901996 -0.159603 1.20189)
(0.0664968 -0.0429064 1.28229)
(-0.156952 -0.00948289 1.31936)
(0.0949374 0.045301 0.911589)
(-0.225604 0.0151612 0.794728)
(-0.227407 -0.229727 0.69098)
(-0.189557 -0.259091 0.903477)
(-0.121485 -0.299447 1.18825)
(0.175539 0.00545952 1.35289)
(0.0125267 0.191132 1.08798)
(-0.166257 0.0718897 0.638375)
(-0.155451 -0.254968 0.565047)
(-0.0744849 -0.197643 0.569985)
(-0.127316 -0.155976 0.753666)
(-0.0914262 -0.101314 1.56645)
(0.102528 0.101755 0.892388)
(-0.125004 -0.269303 0.887328)
(-0.114815 -0.218589 0.922082)
(0.194948 -0.179561 1.09206)
(-0.0927042 0.00766121 0.614683)
(-0.151562 -0.0401658 1.1013)
(-0.12898 0.108989 1.55738)
(-0.0497079 -0.0369113 2.54772)
(0.00776754 -0.0398348 1.08781)
(0.084593 -0.135189 1.28308)
(-0.064249 -0.0315772 1.44768)
(-0.189129 -0.0721255 1.19816)
(-0.0914351 -0.081609 0.983631)
(-0.212138 0.037961 0.847595)
(-0.187276 -0.235725 0.743108)
(-0.194135 -0.253932 0.908734)
(-0.208362 -0.301583 1.14852)
(-0.0791527 -0.259383 1.50733)
(0.0136129 0.235153 1.16574)
(-0.126404 0.0541314 0.684539)
(-0.116451 -0.24362 0.571389)
(-0.0654415 -0.17782 0.563996)
(-0.0854947 -0.186206 0.757399)
(-0.102826 -0.00797748 1.14176)
(0.10141 0.0777509 0.939193)
(-0.127159 -0.276535 0.867329)
(-0.182442 -0.297402 0.708054)
(-0.0364986 -0.345475 0.915981)
(0.00530038 -0.0738166 0.609759)
(-0.188873 -0.0539018 1.13233)
(-0.210759 0.0849469 1.42874)
(-0.0241824 -0.0709466 2.35834)
(0.10849 -0.0300979 1.20494)
(0.0666479 -0.105882 1.36768)
(-0.14957 -0.0393573 1.57663)
(-0.214991 -0.112829 1.19643)
(-0.198399 -0.122692 1.09488)
(-0.16814 0.0483828 0.900832)
(-0.136484 -0.183067 0.801264)
(-0.173794 -0.250155 0.918074)
(-0.215216 -0.283023 1.11848)
(-0.17715 -0.367841 1.40721)
(0.0124599 0.239802 1.21911)
(-0.104386 0.0236707 0.734784)
(-0.0678532 -0.212108 0.578553)
(-0.0572485 -0.174272 0.568641)
(-0.0720511 -0.181107 0.777898)
(-0.0523014 -0.0505358 0.905226)
(0.105497 0.0628911 1.00936)
(-0.168557 -0.267403 0.847951)
(-0.188359 -0.267335 0.589313)
(-0.133587 -0.42308 0.739909)
(0.0704801 -0.116855 0.657122)
(-0.322165 -0.0641563 1.21149)
(-0.583683 -0.00785129 1.21776)
(-0.264174 0.0906083 1.92811)
(0.164155 -0.0287548 1.35989)
(0.0467218 -0.0884032 1.46188)
(-0.16045 -0.0341534 1.69523)
(-0.206227 -0.123985 1.25011)
(-0.177106 -0.0668665 1.21938)
(-0.149471 0.0138232 0.952035)
(-0.113308 -0.0772393 0.841266)
(-0.154543 -0.214265 0.934397)
(-0.199126 -0.237454 1.10025)
(-0.133282 -0.245141 1.15931)
(0.00933633 0.22476 1.24115)
(-0.112252 0.000937646 0.792794)
(-0.0384392 -0.155839 0.594505)
(-0.0577859 -0.145824 0.568316)
(-0.0799247 -0.139469 0.766952)
(-0.0317972 -0.0990076 0.814147)
(0.108555 0.0505481 1.09489)
(-0.175697 -0.228968 0.819112)
(-0.139713 -0.163143 0.539923)
(-0.103874 -0.233028 0.723687)
(0.0627674 -0.115962 0.677458)
(-0.220022 -0.0636395 1.30124)
(-0.342177 -0.0814055 0.891211)
(-0.10876 -0.037526 1.09449)
(0.166051 -0.0246507 1.51662)
(0.054975 -0.0838394 1.57682)
(-0.149871 -0.0463336 1.79004)
(-0.175044 -0.112217 1.28875)
(-0.0506876 0.0285292 1.30412)
(-0.138755 -0.0239113 0.99708)
(-0.118208 0.0252261 0.846093)
(-0.163718 -0.10982 0.944966)
(-0.205993 -0.14087 1.06121)
(-0.0792047 -0.14206 0.992463)
(0.00423728 0.215377 1.2652)
(-0.153243 0.00238268 0.851662)
(-0.0548674 -0.0960211 0.638518)
(-0.079392 -0.0684365 0.573742)
(-0.0945734 -0.0548705 0.709327)
(-0.0159585 -0.0880699 0.72882)
(0.14422 0.0954805 1.20961)
(-0.160372 -0.175615 0.806944)
(-0.100891 -0.0877027 0.512318)
(-0.0858197 -0.0749622 0.649234)
(0.0483789 -0.0917967 0.628768)
(-0.165106 -0.161605 1.14442)
(-0.0501496 -0.126777 0.669403)
(-0.0297128 -0.0215893 0.691359)
(0.173304 -0.0196361 1.65693)
(0.0678295 -0.110086 1.66728)
(-0.145904 -0.0435245 1.87959)
(-0.139412 -0.0922623 1.27093)
(0.0426995 0.0722806 1.31081)
(-0.131443 -0.0417156 1.03985)
(-0.126073 0.0872107 0.827499)
(-0.146897 0.0339366 0.92359)
(-0.19317 -0.0125718 0.993731)
(-0.0178912 -0.0453889 0.943234)
(-0.00300857 0.206346 1.32398)
(-0.180275 0.0430814 0.914941)
(-0.116359 -0.0471274 0.69646)
(-0.105079 0.00290389 0.586536)
(-0.0761619 0.0230156 0.662742)
(-0.00347775 -0.0591551 0.652941)
(0.155847 0.187906 1.25747)
(-0.120792 -0.0937157 0.87838)
(-0.0713449 -0.0425501 0.513146)
(-0.0731495 0.00161248 0.569178)
(0.0195605 -0.0455735 0.57869)
(-0.234423 -0.187324 0.858653)
(-0.00457103 -0.139571 0.555561)
(-0.0354691 0.000323495 0.563333)
(0.164397 -0.0140534 1.78954)
(0.0776323 -0.140121 1.75138)
(-0.140829 -0.0421201 1.9477)
(-0.0242153 -0.0703513 1.18859)
(0.0871708 0.0732876 1.28593)
(-0.149965 -0.000904559 1.07022)
(-0.145723 0.106044 0.792927)
(-0.0909617 0.124934 0.863659)
(-0.13161 0.0843296 0.929761)
(-0.0415139 0.0243791 0.909177)
(-0.010013 0.187153 1.40971)
(-0.202027 0.107514 0.950628)
(-0.195136 -0.0254722 0.742594)
(-0.120929 0.0399301 0.581976)
(-0.0294419 0.0639463 0.625983)
(0.00458755 -0.0229812 0.601828)
(0.0984045 0.24238 1.24888)
(-0.087377 -0.02364 1.00748)
(-0.0602085 -0.0173925 0.528878)
(-0.0669678 0.0535684 0.532251)
(-0.0141195 0.0183748 0.528112)
(-0.171818 -0.062671 0.861079)
(-0.0232407 -0.054413 0.523693)
(-0.0565294 0.0200025 0.526369)
(0.148164 -0.00798152 1.85179)
(0.0856991 -0.125389 1.82734)
(-0.104454 -0.0470387 2.0391)
(0.0762235 -0.0535609 1.05735)
(0.0980954 0.0921221 1.27191)
(-0.212082 0.109278 1.09916)
(-0.185854 0.103253 0.738927)
(-0.0507594 0.144797 0.763396)
(-0.0559076 0.124213 0.88895)
(-0.0448841 0.10596 0.836066)
(-0.0125868 0.177036 1.51269)
(-0.224128 0.17129 0.981493)
(-0.256204 -0.0448376 0.776267)
(-0.127361 0.0393267 0.563064)
(0.00848692 0.0592839 0.590631)
(0.0183359 0.0364305 0.591194)
(0.0787483 0.268493 1.27137)
(-0.0984157 -0.0442872 1.07171)
(-0.0691518 -0.0106766 0.535055)
(-0.0513439 0.0786515 0.523399)
(-0.0281956 0.0731669 0.514583)
(0.0392199 0.0975227 1.11651)
(-0.0248376 -0.00281275 0.495823)
(-0.0710025 0.0331062 0.525033)
(0.153594 -0.00719398 1.84869)
(0.0706786 -0.113102 1.83749)
(-0.0982759 0.00896593 2.13074)
(0.0577913 -0.0602199 0.995197)
(0.0497237 0.108963 1.31223)
(-0.277878 0.195826 1.11096)
(-0.219616 0.0811954 0.691207)
(-0.0490098 0.105911 0.646916)
(0.00219956 0.116456 0.860891)
(0.00578313 0.110284 0.77991)
(-0.0117392 0.185333 1.6322)
(-0.240276 0.23052 1.03862)
(-0.276033 -0.0933797 0.802505)
(-0.122972 -0.00637223 0.508152)
(0.0206952 0.0298969 0.553048)
(0.0283188 0.0787783 0.620178)
(0.0972138 0.294033 1.33341)
(-0.11372 -0.135872 1.11373)
(-0.085474 -0.01547 0.52496)
(-0.0260444 0.077757 0.515214)
(-0.0362109 0.102211 0.541218)
(0.142887 0.143283 1.35298)
(-0.0259669 -0.00226253 0.476921)
(-0.0752314 0.0365591 0.53766)
(0.184221 -0.00651126 1.87296)
(0.0369131 -0.126568 1.83603)
(-0.173803 0.0395471 2.06448)
(-0.113461 -0.0577433 1.04156)
(-0.0381486 0.127663 1.36858)
(-0.320458 0.263793 1.12657)
(-0.225675 0.0349767 0.676288)
(-0.0555912 0.0339927 0.548527)
(0.0385347 0.0873354 0.833946)
(0.05081 0.0721976 0.770396)
(-0.00415112 0.200563 1.75376)
(-0.240949 0.301898 1.11819)
(-0.241425 -0.12685 0.839187)
(-0.088658 -0.0651979 0.438862)
(0.0159404 -0.00702143 0.513449)
(0.0282785 0.0941576 0.661108)
(0.10741 0.320077 1.414)
(-0.0960145 -0.194392 1.15122)
(-0.0846051 -0.0347599 0.491495)
(-0.0155473 0.0647891 0.494911)
(-0.0436654 0.114505 0.580063)
(0.1896 0.133817 1.55465)
(-0.0504061 -0.0106193 0.449056)
(-0.073397 0.033477 0.538558)
(0.201947 -0.00435641 1.94325)
(-0.0446165 -0.0587613 1.86102)
(-0.116329 0.0537885 1.77017)
(-0.178991 -0.0489049 1.05964)
(-0.0711001 0.083552 1.33398)
(-0.348732 0.356463 1.17884)
(-0.186847 -0.0458227 0.685897)
(-0.0443572 -0.0513708 0.492578)
(0.0564998 0.0500602 0.80733)
(0.0555399 0.0650995 0.790804)
(-0.00277602 0.22598 1.87547)
(-0.19047 0.38958 1.20791)
(-0.106433 -0.160769 0.864053)
(-0.0203198 -0.123082 0.391998)
(0.0196925 -0.0452935 0.484718)
(0.0231572 0.093347 0.696704)
(0.155641 0.339982 1.50408)
(-0.0334905 -0.191123 1.18653)
(-0.0299335 -0.0616413 0.461086)
(-0.00765061 0.032246 0.470813)
(-0.0460551 0.114663 0.614243)
(0.181617 0.0737915 1.69416)
(-0.0328173 -0.0155042 0.41329)
(-0.0511272 0.0196813 0.518749)
(0.18628 -0.00293836 2.03202)
(-0.209208 0.0992902 1.92648)
(-0.170021 0.209149 1.23978)
(-0.108523 -0.0189638 1.02833)
(-0.0540409 0.0252058 1.29687)
(-0.360208 0.461688 1.2749)
(-0.0889154 -0.142387 0.689077)
(-0.0129644 -0.140495 0.488894)
(0.0646543 0.0156933 0.796596)
(0.0410869 0.0783602 0.823205)
(0.0146514 0.241338 1.98023)
(-0.0944887 0.42201 1.30749)
(0.131755 -0.233261 0.813026)
(0.066913 -0.191362 0.38757)
(0.0404404 -0.0778815 0.483267)
(0.0224965 0.0856961 0.733124)
(0.203246 0.317594 1.57942)
(0.159609 -0.146564 1.18954)
(0.0900539 -0.0898196 0.4622)
(0.0265606 -0.0166829 0.466892)
(-0.0400131 0.105171 0.649908)
(0.192532 0.0566049 1.71076)
(0.0848907 -0.0112696 0.40188)
(-0.0103425 0.00246168 0.502013)
(0.174231 0.0113601 2.08895)
(-0.338143 0.254771 1.98508)
(-0.345794 0.183559 0.880802)
(-0.0307771 0.0611289 0.919453)
(-0.02523 0.0203174 1.3016)
(-0.315708 0.499046 1.40348)
(0.0427125 -0.227545 0.662059)
(0.0259028 -0.219952 0.52664)
(0.0740609 -0.00614069 0.81259)
(0.0287764 0.0926665 0.855568)
(0.0297379 0.267003 1.96786)
(0.00516196 0.391825 1.38574)
(0.329225 -0.286759 0.720199)
(0.138985 -0.256187 0.415906)
(0.0569016 -0.0940742 0.513644)
(0.0230678 0.0825736 0.780685)
(0.266826 0.242152 1.59117)
(0.411665 -0.128995 1.06353)
(0.193014 -0.118059 0.489419)
(0.0835433 -0.0559435 0.497128)
(-0.0330104 0.0906573 0.698902)
(0.214303 0.082763 1.63496)
(0.232814 -0.017654 0.452147)
(0.0315466 -0.0110491 0.522075)
(0.13752 0.00666262 2.12286)
(-0.331071 0.329474 1.95228)
(-0.408166 0.0625296 0.725817)
(-0.0452116 -0.0193952 0.789717)
(0.0883256 0.0824687 1.36466)
(-0.25309 0.473349 1.50861)
(0.161726 -0.28939 0.6173)
(0.0658642 -0.281849 0.587324)
(0.0938427 -0.0082005 0.859388)
(0.0212509 0.105736 0.892225)
(0.0326738 0.303222 1.92029)
(0.150994 0.273034 1.50399)
(0.441439 -0.291475 0.628304)
(0.17463 -0.298377 0.467049)
(0.0508284 -0.087082 0.573926)
(0.0229229 0.08918 0.837021)
(0.283769 0.176001 1.51155)
(0.531031 -0.118017 0.890979)
(0.21521 -0.139758 0.538177)
(0.11462 -0.0743087 0.554321)
(-0.0310925 0.0829281 0.762168)
(0.31759 0.114914 1.42495)
(0.319241 -0.0421658 0.564858)
(0.0550129 -0.0169972 0.586001)
(0.0986116 -0.00506298 2.15318)
(-0.170113 0.336459 1.86392)
(-0.323349 0.0294221 0.702737)
(0.0426793 -0.0962679 0.738924)
(0.221229 0.169312 1.4319)
(-0.0685873 0.479177 1.59227)
(0.259141 -0.337677 0.608118)
(0.10836 -0.321751 0.661313)
(0.108197 0.0186753 0.951017)
(0.0279125 0.133555 0.950125)
(0.0284363 0.253591 1.81899)
(0.235326 0.29569 1.52844)
(0.464428 -0.283358 0.594408)
(0.165777 -0.31276 0.529856)
(0.0220307 -0.0634584 0.638485)
(0.025494 0.100537 0.894043)
(0.233156 0.242045 1.41443)
(0.512526 -0.0931104 0.809155)
(0.16771 -0.145666 0.5832)
(0.107 -0.0721311 0.620576)
(-0.0297694 0.0852479 0.830987)
(0.52919 0.169293 1.16173)
(0.267473 -0.0626863 0.71896)
(0.0424207 -0.0096873 0.664819)
(0.101727 -0.0160057 2.16225)
(-0.246569 0.32985 1.60334)
(-0.098256 -0.0557346 0.765533)
(0.182561 -0.154206 0.796879)
(0.291616 0.208024 1.47357)
(0.175289 0.498606 1.5277)
(0.319978 -0.385483 0.658937)
(0.130575 -0.323438 0.758994)
(0.0676634 0.0502606 1.0614)
(0.0222043 0.148783 1.02853)
(0.0533085 -0.0584334 1.37424)
(0.333741 0.154115 1.41128)
(0.375462 -0.288173 0.616303)
(0.118267 -0.298474 0.589633)
(-0.0192203 -0.0372633 0.694138)
(0.0197071 0.113686 0.934408)
(0.315933 0.22525 1.15131)
(0.343852 -0.11315 0.791921)
(0.0846726 -0.139694 0.610219)
(0.0483195 -0.0399465 0.682931)
(-0.0358246 0.0987755 0.897112)
(0.403832 0.0936145 1.10465)
(0.127908 -0.067586 0.817841)
(-0.00421026 0.0104081 0.720386)
(0.115839 -0.0109558 2.15598)
(-0.37294 0.443946 1.44611)
(0.160108 -0.250307 0.832269)
(0.305034 -0.212636 0.917503)
(0.315358 0.207348 1.5287)
(0.124392 0.422094 1.47433)
(0.307936 -0.411533 0.719944)
(0.0924022 -0.279355 0.885891)
(-0.0332493 0.0537527 1.15878)
(0.0245267 0.149647 1.10035)
(-0.000194599 -0.204978 1.12172)
(0.364308 -0.00418773 1.21064)
(0.21587 -0.308312 0.64966)
(0.0543267 -0.261185 0.628917)
(-0.0518852 -0.0245038 0.73306)
(-0.000613267 0.118637 0.93716)
(0.167524 0.0980386 0.900014)
(0.184886 -0.154525 0.761842)
(0.0164522 -0.127127 0.608217)
(-0.0270909 -0.00998008 0.715783)
(-0.0569354 0.109828 0.929919)
(-0.00922325 -0.0544636 1.10306)
(0.004939 -0.0562818 0.816332)
(-0.0631528 0.0393948 0.742881)
(0.158735 0.0129902 2.08203)
(-0.34302 0.332482 1.20491)
(0.282072 -0.361464 0.953809)
(0.403275 -0.230901 1.06921)
(0.327763 0.203777 1.59153)
(0.232947 0.0617614 1.63847)
(0.203115 -0.414413 0.77844)
(-0.00350159 -0.228155 1.02327)
(-0.136736 0.0342299 1.23583)
(0.0135037 0.102014 1.15199)
(0.0112318 -0.0286392 0.986793)
(0.146978 0.0346708 1.00887)
(0.105709 -0.33106 0.643782)
(-0.00376201 -0.203877 0.646935)
(-0.0595895 -0.0246349 0.754788)