/*--------------------------------*- C++ -*----------------------------------*\
| =========                 |                                                 |
| \\      /  F ield         | OpenFOAM: The Open Source CFD Toolbox           |
|  \\    /   O peration     | Version:  5.x                                   |
|   \\  /    A nd           | Web:      www.OpenFOAM.org                      |
|    \\/     M anipulation  |                                                 |
\*---------------------------------------------------------------------------*/
FoamFile
{
    version     2.0;
    format      ascii;
    class       volScalarField;
    location    "5.4";
    object      p;
}
// * * * * * * * * * * * * * * * * * * * * * * * * * * * * * * * * * * * * * //

dimensions      [0 2 -2 0 0 0 0];

internalField   nonuniform List<scalar> 
10571
(
463.695
329.961
384.853
423.445
497.781
239.347
243.114
242.784
399.14
473.069
233.081
219.581
203.699
205.784
250.006
377.376
227.123
206.649
213.079
249.854
301.898
246.445
251.258
270.168
241.362
104.971
97.9762
158.116
231.986
97.2478
105.319
93.289
80.7759
187.739
130.299
132.657
146.321
141.104
120.423
170.222
143.343
133.971
144.339
131.628
147.989
126.717
139.652
156.363
61.8101
77.2292
77.1098
68.5271
58.81
91.5513
86.1549
79.4025
58.2984
57.9169
98.8217
102.43
116.732
103.448
68.9251
61.3121
82.3079
103.388
96.7386
84.4332
78.2237
104.498
111.493
86.8966
59.6924
67.4363
64.776
57.9606
59.3452
81.8154
80.753
67.2046
57.2588
59.3752
66.7317
73.2939
94.5694
82.3323
56.7895
59.2661
63.6445
74.7671
69.343
62.1187
57.9719
81.5135
82.4458
63.7676
57.3219
55.7726
57.1453
55.5098
57.1708
54.013
61.7482
54.4679
55.3808
57.0378
55.2534
54.0497
55.4541
56.8909
54.6002
57.0898
58.7887
53.0085
53.6456
54.986
56.5689
61.8068
53.7999
54.752
55.0922
53.7492
51.8864
53.9429
55.2749
53.5068
50.47
52.7674
54.0915
54.8651
54.0993
53.7477
53.3588
51.0678
51.497
53.4671
54.7728
54.2227
55.0549
51.3154
52.7976
53.7954
54.4276
53.9456
53.4978
53.6973
53.7055
52.8049
52.2644
53.0507
54.1847
52.4686
52.5596
53.2326
53.5917
53.9567
54.0336
52.836
52.8525
52.8961
52.9765
53.1783
53.8166
54.0262
53.2754
52.252
52.624
53.6601
53.9128
54.0605
52.3929
53.5828
53.3701
53.2756
52.4553
52.3147
53.0453
53.7549
52.4619
52.8404
53.0516
53.4139
53.9761
54.1468
52.3528
52.4779
52.8998
52.6334
53.1214
53.8956
54.1064
52.5155
52.435
52.1863
52.7529
53.8174
54.1592
52.0892
52.0451
52.413
53.1617
52.3984
52.2421
52.9793
53.5364
52.421
52.6439
52.829
53.2456
53.6889
54.2429
52.2667
52.1739
52.2764
52.4668
53.0293
53.4833
54.1128
52.4906
52.2351
52.2651
52.6291
52.8655
52.048
52.3089
52.3993
53.2183
52.6665
52.5139
52.9869
53.2787
52.517
52.6535
52.7293
52.9902
52.5778
52.3593
52.4839
52.1105
52.5222
52.8338
52.6406
51.895
51.9507
52.3836
52.5472
52.3693
51.9339
52.3064
52.4762
53.1385
52.9767
52.8792
52.9613
53.0186
52.6236
52.6908
52.6542
52.7228
52.5081
52.4495
52.4941
52.3348
52.5446
52.6075
52.3812
51.8948
52.0159
52.4567
52.3955
52.5073
51.9838
52.3285
52.4517
53.0013
53.0437
53.0409
52.8331
52.7782
52.6335
52.659
52.541
52.5144
52.4902
52.4998
52.4885
52.4609
52.5192
52.4665
52.4246
52.1641
52.2679
52.4649
52.3394
52.4782
52.2618
52.3931
52.4698
52.7049
52.8761
52.8568
52.5908
52.5126
52.561
52.557
52.3881
52.3418
52.3511
52.4793
52.4498
52.4137
52.4275
52.3746
52.3355
52.289
52.3589
52.4113
52.3165
52.4237
52.4072
52.4472
52.4458
52.3569
52.5971
52.5466
52.3024
52.269
52.4327
52.4195
52.2342
52.1943
52.1901
52.3959
52.3535
52.2624
52.2953
52.2726
52.2538
52.2947
52.2905
52.3213
52.2608
52.3528
52.4089
52.4419
52.3947
51.9714
52.3432
52.2209
51.9692
52.0498
52.2382
52.2085
52.1118
52.0652
52.0843
52.2569
52.2076
52.0786
52.1547
52.1622
52.1749
52.2314
52.171
52.2163
52.1784
52.2709
52.3516
52.3805
52.3187
51.6624
52.0834
51.9271
51.6345
51.862
52.0119
51.9448
51.9352
51.9411
52.0221
52.0981
52.0692
51.9267
52.0108
52.034
52.0791
52.0918
52.0216
52.1025
52.0769
52.1818
52.2413
52.2742
52.2077
51.6064
51.8989
51.7376
51.4767
51.7119
51.8784
51.7249
51.6996
51.8184
51.9832
51.9367
51.9097
51.813
51.8721
51.9144
52.0152
51.918
51.8656
51.9948
51.9836
52.1157
52.0977
52.1418
52.088
51.6889
51.8318
51.6911
51.4583
51.6198
51.756
51.5658
51.4822
51.7371
51.9324
51.7741
51.7452
51.7216
51.7755
51.8474
51.9591
51.759
51.7389
51.9007
51.9235
52.0564
51.9558
52.0074
51.9841
51.7385
51.8097
51.7026
51.4278
51.6114
51.673
51.4277
51.3003
51.7028
51.8941
51.6697
51.6228
51.6318
51.719
51.841
51.9231
51.6489
51.6385
51.8177
51.8721
52.0127
51.8225
51.8947
51.8988
51.7586
51.8057
51.6863
51.4144
51.6562
51.7163
51.2761
51.1993
51.7185
51.919
51.6146
51.5421
51.5623
51.671
51.8643
51.9352
51.5974
51.541
51.7458
51.8438
52.0028
51.721
51.8035
51.8373
51.7795
51.7834
51.6565
51.4527
51.7476
51.687
51.1192
51.2726
51.7703
51.975
51.5839
51.5106
51.4773
51.6453
51.9041
52.1966
51.5853
51.462
51.7076
51.8409
52.0291
51.6464
51.7348
51.8285
51.8592
51.7711
51.6748
51.617
51.842
51.6669
51.0255
51.4318
51.7978
51.9609
51.5892
51.5022
51.337
51.7133
51.9674
52.1653
51.567
51.4487
51.7149
51.8431
52.0123
51.603
51.7015
51.8307
51.9075
51.7734
51.7104
51.7289
51.9132
51.6708
50.9919
51.586
51.8864
51.9261
51.623
51.4944
51.2282
51.8079
51.9916
52.0477
51.5756
51.4748
51.7387
51.8424
51.9618
51.5807
51.6985
51.8387
51.8275
51.7397
51.7229
51.7457
51.9203
51.6451
51.134
51.6821
52.0165
51.9217
51.721
51.5747
51.1992
51.8589
51.9405
51.9635
51.5901
51.5092
51.7378
51.921
52.1308
51.5632
51.731
51.8509
51.6647
51.6836
51.6427
51.6777
51.8408
51.6079
51.2422
51.7537
52.0612
51.9192
51.7487
51.6155
51.2098
51.7693
51.9055
51.8956
51.6129
51.5506
51.7406
51.9373
51.9715
51.5435
51.7461
51.8534
51.4338
51.6054
51.4562
51.5326
51.7196
51.647
51.1953
51.8483
51.8937
51.8318
51.7365
51.5183
51.1727
51.6752
51.8675
51.7881
51.6097
51.5501
51.6836
51.8849
51.8398
51.5225
51.6953
51.7959
51.2475
51.4996
51.2406
51.3112
51.5694
51.6057
51.1126
51.8263
51.7038
51.7331
51.5859
51.3044
51.1463
51.6425
51.714
51.7078
51.5299
51.5136
51.6173
51.7023
51.6898
51.4842
51.6268
51.6973
51.1554
51.3575
51.0921
51.0913
51.4214
51.4488
51.0661
51.5784
51.5474
51.6255
51.348
51.0611
51.2405
51.6726
51.5297
51.6512
51.4314
51.4959
51.5957
51.5574
51.6249
51.4576
51.5813
51.6091
51.0911
51.1778
50.9692
50.9774
51.2941
51.2566
51.0264
51.3326
51.4402
51.5163
51.1261
50.8657
51.3636
51.7974
51.4554
51.5783
51.3304
51.4935
51.5869
51.4986
51.6011
51.4479
51.5707
51.5571
51.0207
51.0415
50.8841
50.9001
51.1925
51.1009
50.9314
51.1095
51.3533
51.4202
50.9742
50.7745
51.3717
51.8956
51.4126
51.5334
51.231
51.4284
51.5319
51.4958
51.652
51.4269
51.5622
51.5171
50.9248
50.9607
50.8318
50.831
51.1192
51.0097
50.7912
50.9264
51.2705
51.3315
50.9149
50.7741
51.2225
51.7361
51.32
51.4593
51.1509
51.307
51.4054
51.4558
51.6501
51.3627
51.5031
51.4425
50.8664
50.9311
50.7898
50.7838
51.0734
50.9716
50.6444
50.8048
51.2012
51.2574
50.9053
50.8484
50.976
51.456
51.2228
51.3552
51.1042
51.1684
51.224
51.3368
51.514
51.2813
51.3756
51.3261
50.902
50.9613
50.7716
50.761
51.0716
50.9822
50.5242
50.7213
51.1558
51.2117
50.9398
50.9356
50.7868
51.2064
51.1638
51.2491
51.0882
51.0879
51.0956
51.2383
51.3551
51.2073
51.2603
51.2176
51.02
51.0437
50.8141
50.8155
51.1345
51.0368
50.5191
50.667
51.1516
51.2094
51.0393
51.0242
50.783
51.0097
51.1458
51.1869
51.1159
51.1075
51.0719
51.1899
51.2271
51.1843
51.1855
51.1631
51.1958
51.185
50.9547
50.9604
51.2616
51.1483
50.5786
50.6717
51.197
51.2582
51.176
51.1493
50.8407
50.8806
51.152
51.1601
51.1968
51.1344
51.0821
51.1845
51.1447
51.1749
51.1355
51.1367
51.4206
51.4113
51.1727
51.1734
51.4427
51.348
50.7082
50.7654
51.2941
51.3504
51.3497
51.3095
50.8513
50.809
51.1939
51.1641
51.308
51.0902
51.0843
51.2029
51.1142
51.1734
51.111
51.1432
51.6952
51.6961
51.4295
51.4315
51.6497
51.5889
51.0117
50.9672
51.4306
51.4737
51.5685
51.5221
50.9453
50.7794
51.2604
51.2237
51.4469
51.1123
51.0865
51.2088
51.147
51.2244
51.1122
51.1654
51.9793
52.0022
51.7208
51.7071
51.8232
51.9345
51.3917
51.2699
51.5781
51.6008
51.802
51.7527
51.2253
50.8668
51.3317
51.3291
51.6085
51.297
51.1247
51.197
51.2228
51.3303
51.1545
51.2084
52.1201
52.2776
52.0134
51.8965
51.9
52.2892
51.6874
51.5451
51.7009
51.7198
52.039
51.9687
51.495
51.1257
51.4269
51.4544
51.7613
51.5267
51.1867
51.2197
51.331
51.4788
51.2596
51.2894
52.1151
52.377
52.0542
51.9576
51.9422
52.5787
51.9376
51.735
51.7866
51.8294
52.1765
52.0896
51.6902
51.3964
51.5419
51.5912
51.867
51.677
51.2787
51.3124
51.4657
51.602
51.3939
51.396
52.0773
52.1763
51.9636
51.9579
52.0078
52.245
51.9364
51.7801
51.8612
51.9338
51.9769
51.8374
51.7688
51.594
51.6648
51.7267
51.846
51.7298
51.4268
51.4618
51.6195
51.6936
51.5486
51.5296
52.035
51.9269
51.8688
51.9127
52.0905
51.8199
51.7922
51.8252
51.9543
52.0313
51.536
51.6076
51.8461
51.7353
51.8001
51.86
51.8104
51.783
51.6058
51.6277
51.7716
51.7827
51.7073
51.6839
52.0118
51.8839
51.8691
51.8434
52.1557
51.6503
51.7987
51.9137
52.0593
52.1369
51.5205
51.6995
52.0577
51.8715
51.932
51.9893
51.8372
51.8679
51.7929
51.7963
51.9064
51.907
51.8619
51.8409
52.0201
51.9721
51.9417
51.7862
52.1899
51.6842
51.9363
52.001
52.1548
52.2405
51.6872
51.6444
52.0957
52.0156
52.0282
52.1032
51.9771
52.0651
51.9621
51.9226
52.0037
52.0608
51.9991
51.9793
52.0422
52.1317
52.026
51.7486
52.1909
51.9111
52.0376
52.0493
52.2241
52.3321
51.9512
51.7928
52.0767
52.091
52.0979
52.1896
52.1829
52.2971
52.0755
52.0214
52.0853
52.1729
52.1122
52.0906
52.0497
52.2569
52.0862
51.7261
52.1735
52.1942
52.1137
52.0562
52.2646
52.4008
52.3834
52.2834
52.1612
52.1059
52.1714
52.2586
52.4723
52.5045
52.2186
52.1007
52.1636
52.2611
52.2133
52.1955
52.0212
52.2457
52.0398
51.6772
52.1365
52.3186
52.1177
52.0241
52.2678
52.4333
52.6308
52.4903
52.2104
52.1019
52.2044
52.319
52.6215
52.5789
52.3576
52.2287
52.2575
52.3577
52.2842
52.2842
51.9615
52.1386
51.8866
51.5834
52.0764
52.2959
52.0618
51.9436
52.2325
52.424
52.5452
52.4228
52.1992
52.1088
52.1948
52.3533
52.4151
52.5274
52.3761
52.3054
52.3589
52.4595
52.3387
52.3415
51.8863
52.0345
51.7109
51.4654
52.0005
52.2271
51.9656
51.8329
52.174
52.3926
52.4185
52.3302
52.1665
52.0859
52.1527
52.3519
52.5095
52.4237
52.2822
52.286
52.4062
52.6001
52.3521
52.3739
51.8145
51.9914
51.6331
51.3707
51.9222
52.1531
51.8753
51.7064
52.1087
52.3422
52.2997
52.232
52.1194
52.0466
52.0972
52.3259
52.4532
52.2636
52.2117
52.2473
52.3757
52.4762
52.3591
52.3949
51.7883
52.0161
51.7202
51.3121
51.841
52.0814
51.8033
51.5927
52.0289
52.2812
52.1906
52.1283
52.0549
51.9842
52.0447
52.2796
52.3282
52.2802
52.2033
52.2228
52.3402
52.5276
52.5118
52.4414
51.7792
52.0463
51.8334
51.2894
51.7719
52.0104
51.7227
51.4758
51.9216
52.2072
52.0915
52.0287
51.9552
51.8904
51.9994
52.2301
52.2138
52.1881
52.0888
52.1728
52.3246
52.4237
52.4027
52.4238
51.7439
51.9985
51.855
51.2859
51.7165
51.9296
51.5886
51.3578
51.789
52.1158
51.9999
51.9331
51.8292
51.7597
51.8883
52.1656
52.1027
52.0592
51.9429
52.0444
52.2585
52.2647
52.1839
52.3272
51.6513
51.87
51.684
51.2425
51.6869
51.8372
51.4336
51.2564
51.6635
52.013
51.9161
51.8503
51.6761
51.6286
51.7355
52.0678
51.9983
51.9205
51.7942
51.9147
52.1341
52.1312
51.9909
52.1675
51.574
51.7371
51.3807
51.2321
51.6887
51.7618
51.3497
51.1764
51.551
51.9227
51.8533
51.7856
51.5356
51.5148
51.5733
51.9497
51.915
51.7626
51.6426
51.7753
51.9848
52.0155
51.8279
51.986
51.6999
51.7197
51.2748
51.3216
51.7505
51.7507
51.3319
51.1548
51.4347
51.8329
51.8342
51.7573
51.4501
51.3843
51.4206
51.7784
51.8721
51.6291
51.4843
51.6135
51.827
51.9045
51.6884
51.8338
52.0296
51.8776
51.5036
51.5929
51.9236
51.8245
51.3702
51.2104
51.3428
51.7432
51.8825
51.7846
51.4015
51.2838
51.2393
51.5719
51.8812
51.5444
51.3244
51.4492
51.6172
51.8146
51.5623
51.6807
52.5836
52.1771
51.8962
52.0821
52.2534
51.9752
51.4515
51.308
51.2793
51.6069
51.9881
51.8729
51.3631
51.1761
51.0072
51.2685
51.9375
51.4886
51.1592
51.2482
51.3704
51.7693
51.4346
51.5247
53.3841
52.5929
52.2823
52.8241
52.8029
52.1952
51.5767
51.4992
51.2313
51.4086
52.1311
52.0016
51.3671
51.0582
50.6691
50.8388
52.0284
51.4761
50.9884
50.9859
51.0248
51.7667
51.3197
51.3525
54.8084
53.1043
52.4986
53.977
53.5117
52.4462
51.7186
51.8201
51.1463
50.9166
52.284
52.1411
51.3557
50.9219
50.1709
49.954
52.1223
51.4794
50.8053
50.6342
50.4806
51.7865
51.2235
51.1459
56.5202
53.6188
52.1355
55.4073
54.2735
52.6821
51.7979
52.2028
50.9469
49.875
52.4024
52.2518
51.3138
50.7617
49.2966
47.9785
52.2004
51.4576
50.6181
50.0811
49.5459
51.7953
51.1429
50.9026
55.3617
52.9527
49.5875
54.1168
54.4114
52.8059
51.679
51.7543
50.2928
47.2828
52.4038
52.2777
51.2142
50.4272
48.1656
43.4257
52.2018
51.3718
50.5295
49.4316
47.892
51.7451
51.1153
50.6835
53.7484
53.5302
51.9629
52.6622
53.5852
52.6994
51.7383
50.181
49.0236
40.1874
52.1858
52.0641
51.0045
49.6378
46.9546
38.0637
-32.9738
52.0463
51.1965
50.3898
48.6184
44.4802
51.6339
51.0319
50.5789
52.4647
53.9382
53.0428
51.602
51.0524
52.3843
52.2632
49.1098
46.6493
33.2694
-1.2872
51.7461
51.5601
50.7148
48.9849
45.5233
36.9062
2.5676
51.6689
50.8955
50.1679
47.9175
39.99
51.4463
50.8343
50.4728
50.8438
52.3535
52.2313
50.2167
48.6203
50.7857
51.4159
47.6014
44.0336
33.8913
7.4469
51.2286
50.9201
50.3786
48.5244
45.4892
35.4122
10.3762
51.1389
50.5258
49.7781
48.1192
42.5869
16.1643
51.0545
50.5144
50.3431
49.1622
51.1392
50.9927
48.4378
46.7381
50.2361
49.8188
46.4819
43.3408
35.117
9.60828
50.8313
50.3933
49.9536
47.9855
46.2217
35.9372
12.2267
50.6539
50.2264
49.4848
48.5818
46.9695
50.6479
50.181
50.2358
48.0697
50.8356
50.0536
47.3079
45.9698
50.3238
48.679
45.5645
43.6163
41.593
50.8177
50.1425
49.3249
47.6649
47.0875
41.3259
3.72743
50.2767
49.7337
49.4217
48.9302
49.6813
50.2161
49.9467
50.1317
47.92
50.6606
49.4621
46.9588
46.4791
50.6224
47.8208
45.1482
45.1077
46.5699
50.7403
50.1494
48.647
47.4482
48.0648
48.9096
49.9971
49.3222
49.3536
49.1622
50.5159
49.8331
49.7846
50.0285
48.4467
50.3603
49.2172
47.3756
47.5505
50.3202
47.335
45.6234
46.6921
48.6355
50.4027
49.9079
47.9494
47.3379
48.9302
49.9726
49.6457
49.1534
49.3981
49.5052
50.4194
49.6795
49.7698
50.0702
49.3988
50.2137
49.379
48.3295
48.8266
49.8548
47.235
46.9007
48.0854
49.8566
49.4943
49.4007
47.5766
47.9702
49.6212
50.3592
49.2317
49.2429
49.7169
49.9556
50.5764
49.7267
49.9965
50.3725
50.4512
50.4212
49.979
49.5208
50.1232
49.6974
47.6754
48.2954
49.385
50.7541
49.3919
49.1949
47.6787
49.0755
50.3979
50.9819
49.1424
49.5932
50.3611
50.612
51.0141
49.9555
50.5382
50.892
51.4753
50.9508
50.8904
50.7206
51.2103
49.9855
48.8448
49.7502
50.7501
51.5504
49.5305
49.1504
48.491
50.1393
51.2424
51.5946
49.4373
50.2402
51.1632
51.3808
51.6676
50.5464
51.3186
51.5816
52.3519
51.7749
51.8525
51.7441
51.9944
50.6324
50.1253
50.9156
51.5053
52.1596
50.2356
49.4445
49.9569
51.1593
51.9515
52.3247
49.4406
51.108
52.0647
52.1265
52.4111
51.4171
52.1272
52.2981
53.1147
53.0646
52.7642
52.421
52.5582
51.6892
51.1707
51.4188
51.8926
52.4786
51.9207
50.2713
50.6077
51.3854
51.9942
52.6623
50.2129
51.3577
52.1514
52.5277
52.8377
52.3492
52.7629
52.9147
53.6121
53.636
53.1192
52.7428
52.7338
52.3605
51.7114
51.8319
52.1256
52.5649
52.7911
51.2643
51.3901
51.9225
52.2841
52.7108
51.3099
52.2651
52.612
52.784
52.843
53.3122
52.7162
52.9912
453.999
476.988
473.253
483.1
488.421
505.046
521.254
540.654
341.693
391.523
433.036
363.019
354.472
449.255
454.136
347.338
344.87
481.763
533.108
384.365
465.205
569.465
555.205
534.265
560.518
540.488
327.654
293.788
301.413
306.338
283.008
261.815
245.086
277.35
261.651
248.377
228.782
294.114
369.012
243.22
294.721
474.115
532.602
384.979
470.127
540.605
515.236
481.77
271.928
263.959
249.282
237.953
229.108
235.134
225.677
240.073
225.653
226.17
218.43
224.619
251.274
229.295
247.998
296.302
380.3
268.309
326.089
449.364
443.952
381.171
249.274
251.104
232.123
269.172
279.114
225.373
227.486
263.117
240.724
228.632
244.219
266.897
267.937
264.082
304.977
281.075
289.01
332.816
302.384
315.926
287.832
280.088
291.527
281.167
275.8
281.145
399.126
257.459
458.934
441.333
462.162
361.839
309.87
347.642
471.747
485.295
377.885
371.223
388.272
486.882
378.807
275.799
144.241
365.577
286.162
292.759
188.244
205.158
127.666
113.246
501.57
472.779
503.509
370.05
373.429
333.991
364.51
490.329
351.826
248.78
235.191
223.103
139.786
146.042
137.408
441.074
420.417
330.83
305.827
291.684
223.236
226.965
166.096
162.702
185.911
381.262
331.819
269.318
276.582
240.712
231.708
194.475
216.571
238.417
231.828
188.568
190.91
179.782
167.331
271.483
269.169
275.805
207.412
197.761
220.555
216.204
219.387
250.481
176.084
225.703
226.776
167.538
168.554
177.157
265.31
243.892
212.924
217.504
213.05
223.425
140.581
85.5388
219.597
159.346
200.182
109.865
83.1016
95.0051
235.527
252.277
125.949
121.8
125.992
244.003
113.04
100.559
92.1819
108.186
93.8866
87.1139
85.6754
81.6749
90.0333
85.9535
228.055
197.256
213.841
101.475
89.2489
86.813
75.9415
202.151
72.9998
106.931
114.127
112.554
97.1959
104.184
103.577
174.891
167.992
71.0717
70.4787
75.5108
132.456
145.91
113.617
115.399
120.192
166.897
164.951
80.7768
80.0132
103.152
147.067
110.655
152.818
117.616
111.521
105.491
109.428
91.9025
94.1694
136.222
149.992
148.137
97.7022
112.2
101.829
111.253
107.123
125.566
105.946
130.404
137.157
112.717
116.601
118.881
150.656
138.338
119.123
116.12
120.133
110.786
70.016
65.2108
63.7943
67.4018
66.42
61.0697
63.3848
60.8325
64.2117
60.8675
58.9647
58.4859
58.4529
59.2197
58.5407
83.9411
77.6904
72.9129
83.8777
82.9035
72.9147
67.3719
78.0885
78.9962
57.8122
58.1302
57.2415
58.6973
58.8971
57.642
58.9849
57.1612
59.4283
87.2433
94.4933
94.6382
79.1794
83.2501
84.3186
59.0504
58.3649
59.6307
59.939
59.9199
99.1477
96.7787
81.8454
81.8466
76.7076
60.3335
68.8438
59.7936
60.8321
59.5907
85.0818
71.1107
90.5021
82.2019
85.6377
69.4683
75.2011
76.1356
77.0807
87.2751
75.4465
78.1101
72.7346
61.917
66.3819
63.1796
60.9394
94.4167
83.6474
110.302
110.992
93.7431
101.654
100.402
101.972
114.611
101.799
89.493
104.889
73.6338
63.6726
61.6199
60.6269
60.8902
59.2523
59.1917
59.3267
58.2128
59.2565
59.9437
58.68
58.4292
58.7092
59.4934
58.4447
66.9594
59.6601
62.6888
71.0677
73.642
60.2322
58.7468
61.3346
61.9968
59.0539
58.3142
58.9517
58.3939
58.2642
57.4285
57.9928
59.1471
58.269
70.4644
69.9119
70.7172
60.6951
59.2071
58.1915
59.2945
59.516
58.2986
58.2075
58.469
65.5929
63.4733
58.2644
57.4234
58.0154
60.0342
58.6334
58.2868
58.8124
57.821
63.9961
60.4063
63.9091
69.4036
69.2084
61.3099
59.1348
63.8875
62.8675
57.339
61.2245
59.0728
56.9874
56.9777
58.1028
58.1014
57.4914
73.652
65.274
85.0943
83.6292
70.9893
63.7363
66.462
72.9442
84.0072
58.3038
58.1404
63.4804
57.3794
58.6828
56.2295
57.8283
57.9045
57.2733
56.581
56.2171
56.1738
57.2305
57.4386
56.1605
56.0773
56.3733
57.3487
56.3783
56.0309
54.6075
56.31
55.3981
55.9742
54.2998
54.5081
53.3748
54.5044
57.1251
56.3075
56.8091
56.1396
56.1187
55.3031
55.7186
57.1023
55.863
55.5401
54.6254
54.4794
54.1171
54.0089
54.2729
56.8686
57.2087
55.9476
55.5807
55.2696
55.2863
56.2115
54.359
54.7478
55.2466
57.4594
56.8794
55.93
55.3605
55.7615
57.8038
56.291
56.3473
59.4965
58.3168
56.479
54.4008
56.5522
55.6688
56.0916
55.2788
56.2697
54.1444
55.0087
53.9216
54.759
55.4972
58.6553
55.2128
54.8007
56.8103
56.5933
53.7582
54.3331
54.2001
55.0827
53.582
53.9544
53.7918
54.0018
54.6233
53.6373
55.2906
54.6683
54.8653
54.2013
53.5885
53.8281
55.0152
55.3984
54.2331
54.1899
54.6224
55.4544
54.6923
53.777
53.0742
53.3103
53.0887
52.3518
53.2412
52.744
52.8246
52.0219
55.3349
54.3318
54.9204
54.615
54.7355
53.7696
54.4377
54.7499
54.0822
53.3473
53.698
53.6603
52.9515
53.1603
52.9526
54.0345
54.5824
55.3272
53.9516
52.8123
53.9781
53.205
54.0178
54.1333
54.0351
53.9596
54.0375
53.9487
54.0435
53.9724
54.3543
53.2434
53.2749
53.5284
55.4382
54.5298
53.7941
53.9115
53.2936
53.8324
53.2748
54.0555
54.24
54.0837
53.9015
54.0463
53.9603
54.064
55.17
54.1098
53.3335
55.0438
54.2078
54.0544
52.7783
53.9703
53.4569
54.2552
53.6603
53.9092
53.7486
53.8027
53.5475
53.5077
53.7788
53.7391
52.9237
52.9872
52.9993
52.6588
52.5324
52.3439
53.6438
53.1637
53.4908
53.3795
52.9199
53.5158
53.0076
52.7377
53.5435
52.989
53.2565
53.2073
52.7738
53.0121
53.7052
54.1078
53.415
53.4302
53.7663
54.1852
53.8902
52.6966
52.5531
52.5908
52.6113
52.2483
52.5482
52.5303
52.4749
52.2916
54.2976
53.5566
54.1031
53.9165
54.0162
53.5103
53.9074
54.0738
53.4049
54.269
54.1819
54.0232
54.0192
54.1018
54.0792
52.7411
52.7427
52.5993
52.5733
52.5271
52.4931
53.5802
53.8732
53.9558
53.9791
53.9945
53.8716
53.9499
54.0075
54.0408
54.0565
54.055
54.0617
54.0367
54.0607
52.7921
52.9105
52.5297
52.442
52.4889
53.9527
53.9052
53.8877
53.9054
54.0651
53.8755
54.1883
54.0498
54.0595
54.0734
54.0378
54.0652
54.0687
54.0948
53.2037
52.671
52.5437
53.0101
53.0153
52.7636
52.4049
52.4106
52.7388
53.5427
53.3762
53.2664
53.2
53.3662
53.0169
53.0907
53.9879
53.9435
54.4724
54.0817
54.1095
54.1196
52.538
52.3716
52.4898
52.1145
52.2079
52.4283
52.1659
53.2473
52.9058
52.6311
52.7032
52.3768
52.9579
52.6365
52.5911
53.0505
52.7071
52.9139
53.03
52.7104
52.9452
53.28
53.5614
53.2085
53.1967
53.4446
53.7163
53.5915
52.4703
52.4018
52.443
52.4164
52.2404
52.4126
52.3467
52.3825
52.148
53.8286
53.4759
53.7596
53.6467
53.6899
53.4179
53.6396
54.2973
54.4584
54.0297
54.3829
54.2113
54.1389
54.2564
54.1575
52.4653
52.4416
52.4074
52.4178
52.4025
52.3689
54.1628
53.8797
54.0371
53.8733
54.1241
53.8262
54.0364
54.1032
54.1131
54.1051
54.1928
54.1234
54.1173
54.1005
52.2467
52.2267
52.2743
52.2175
52.1312
54.0822
53.75
54.2686
53.7551
54.0027
53.5358
54.1318
54.1002
54.1164
54.1175
54.112
54.0911
54.1344
54.1217
52.3606
52.2246
52.2804
52.1289
52.4482
52.4961
52.198
52.0781
52.1253
53.244
52.5513
52.9189
52.5956
53.0816
52.3522
52.785
54.5326
53.4162
54.272
54.1487
54.1657
54.1381
52.2325
52.1213
52.27
52.227
52.0501
52.1801
52.231
52.0807
52.1412
52.2388
52.0939
52.269
52.2769
52.6242
52.7416
53.0547
52.7688
53.0023
53.0801
52.8521
53.038
53.1236
53.3799
53.1874
53.1409
53.3462
53.494
53.4111
52.4038
52.4723
52.3053
52.3808
52.2102
52.4964
52.4776
52.436
52.3458
53.5481
53.3331
53.4856
53.4139
53.3912
53.2205
53.2934
53.5442
53.0694
52.4256
52.4116
52.3716
52.4769
52.4492
52.4042
54.1993
53.665
53.9517
53.2613
53.7554
53.4171
53.5717
54.1513
54.139
54.1178
54.1424
54.1409
54.0495
54.1025
52.2512
52.1064
52.3059
52.2854
52.1312
53.8605
53.2771
54.2089
53.0783
53.431
52.9011
53.7012
54.0985
54.1588
54.1302
54.0417
54.0794
54.1406
54.1233
52.1699
52.092
52.1985
52.0907
51.9358
52.2294
52.1616
51.9918
51.8359
52.8719
52.4304
52.7068
52.6293
52.7153
52.4914
52.6641
52.4248
52.0334
51.9651
52.1464
52.1836
52.0112
52.1286
52.1725
52.251
52.3008
52.3049
52.304
52.3015
52.4646
52.8987
53.0403
53.1202
52.9811
53.0971
53.1561
53.1135
53.1468
53.1845
53.2957
53.1907
53.1529
53.205
53.3097
53.1875
52.5551
52.6159
52.7372
52.5292
52.465
52.844
52.9346
52.6368
52.55
53.2367
53.097
53.1362
53.1416
53.0932
52.9824
53.0061
52.9201
52.8754
52.5418
52.4971
52.4417
52.5926
52.5473
52.4819
53.032
52.9859
52.4217
52.675
51.6894
52.3217
52.186
52.4094
52.3613
52.2525
52.8691
52.4125
52.3184
51.3438
52.3107
52.0243
52.0405
51.7975
51.8261
51.766
51.7938
51.533
51.7401
51.7009
52.6536
52.5026
52.6428
52.4473
52.6256
52.4843
52.6312
52.4758
51.8813
51.8167
52.0823
52.1218
51.9064
52.0824
52.1143
52.3204
52.3061
52.3085
52.3366
52.3204
52.4634
53.1549
53.2743
53.1713
53.2105
53.1653
53.1552
53.2827
53.1595
53.0913
53.1043
53.0862
53.023
53.0066
53.0652
52.9524
52.6634
52.7001
53.1024
52.7317
52.6367
53.0368
53.2187
52.7834
52.7275
52.9677
52.8868
52.8902
52.9036
52.8556
52.7928
52.7767
52.7954
52.6998
52.6111
52.585
52.5249
52.6148
52.6033
52.5501
52.6283
52.3505
52.5359
52.5865
52.5797
52.4028
52.3162
52.4804
52.4433
52.3833
52.1189
52.3673
52.43
52.4347
52.4149
52.1521
52.2741
51.6745
51.8146
51.7386
52.0391
52.0099
52.0313
51.9078
52.5918
52.4521
52.6019
52.3586
52.553
52.4256
52.5699
52.4956
51.864
52.0322
52.1584
52.1943
52.1248
52.2355
52.271
52.3553
52.3428
52.3583
52.3736
52.3759
52.459
53.3352
53.2749
53.0934
53.3041
53.1088
52.9814
53.2218
53.0004
52.937
52.8895
52.8674
52.8126
52.7317
52.8274
52.6825
52.7112
52.6864
53.2231
52.8059
52.7708
52.9946
53.1194
52.7911
52.7659
52.7305
52.69
52.6647
52.6439
52.6103
52.5859
52.564
52.6089
52.5244
52.6131
52.6071
52.5611
52.5862
52.5913
52.5548
52.5245
52.4902
52.4206
52.4506
52.4335
52.471
52.4372
52.4998
52.4777
52.4647
52.404
52.4298
52.3815
52.3721
52.4112
52.3652
52.4175
52.2149
52.2177
52.0876
52.2478
52.302
52.3314
52.2182
52.5171
52.4095
52.5313
52.3266
52.4828
52.3977
52.5034
52.4558
52.2032
52.3255
52.2952
52.3269
52.3619
52.33
52.365
52.3941
52.4066
52.4282
52.4076
52.4369
52.4657
53.0983
52.8849
52.8345
53.0493
52.8499
52.6689
52.844
52.6771
52.6588
52.5703
52.5339
52.4975
52.421
52.5328
52.3926
52.6347
52.5654
52.9676
52.7255
52.7296
52.7332
52.802
52.6359
52.6597
52.5003
52.4811
52.4686
52.3851
52.3901
52.3733
52.3771
52.4392
52.3498
52.538
52.5538
52.5303
52.4808
52.504
52.4901
52.3784
52.3733
52.2749
52.3097
52.3111
52.4609
52.4631
52.4443
52.4277
52.4411
52.3355
52.3777
52.2925
52.2958
52.3425
52.4343
52.4251
52.3206
52.3785
52.2793
52.3027
52.3074
52.3921
52.2989
52.4514
52.3853
52.4756
52.2936
52.4193
52.3635
52.4495
52.3886
52.3772
52.3922
52.3421
52.3737
52.4192
52.3434
52.3764
52.4108
52.4454
52.4532
52.4036
52.4519
52.4216
52.6872
52.513
52.5013
52.6426
52.4977
52.3243
52.4571
52.3192
52.3267
52.272
52.1673
52.1423
52.1205
52.2715
52.152
52.4809
52.3836
52.6445
52.5333
52.5566
52.4703
52.4935
52.4257
52.4366
52.2869
52.2632
52.29
52.1586
52.1918
52.1509
52.202
52.2634
52.1829
52.4173
52.4414
52.4287
52.3362
52.3633
52.3503
52.2482
52.2495
52.1285
52.1915
52.1912
52.3837
52.4044
52.3314
52.3229
52.3538
52.2515
52.3096
52.2173
52.2111
52.2764
52.3962
52.351
52.2851
52.377
52.2961
52.2711
52.2526
52.346
52.2844
52.3858
52.3342
52.4133
52.219
52.35
52.2961
52.3738
52.3148
52.3879
52.3627
52.3329
52.3617
52.3872
52.3155
52.3402
52.3874
52.4387
52.4192
52.3638
52.4159
52.3627
52.3546
52.2145
52.1495
52.2835
52.1497
51.9821
52.1333
51.9833
51.9475
51.9689
51.7968
51.7705
51.8305
52.036
51.9347
52.2771
52.1697
52.3485
52.3091
52.3114
52.2112
52.2121
52.1806
52.1878
52.0991
52.0399
52.1126
51.9501
52.0098
51.9267
52.0162
52.1108
52.0423
52.2332
52.2749
52.2623
52.1331
52.1824
52.168
52.1475
52.147
52.0493
52.1158
52.1123
52.2519
52.2928
52.1785
52.1783
52.2228
52.1698
52.2351
52.1273
52.1264
52.1934
52.293
52.2226
52.2096
52.2978
52.2598
52.1719
52.1573
52.2345
52.218
52.3033
52.254
52.3281
52.1292
52.2482
52.2047
52.2789
52.2243
52.3252
52.2747
52.281
52.3007
52.3035
52.2353
52.2557
52.3269
52.3745
52.3328
52.2829
52.3254
52.2669
52.0977
52.0059
51.8442
52.0132
51.8429
51.7517
51.927
51.7419
51.6396
51.7259
51.6014
51.5732
51.6632
51.8598
51.8147
52.0633
51.9744
52.0909
52.0502
52.072
51.9759
51.9892
51.9503
51.9794
51.9253
51.8107
51.922
51.7822
51.8544
51.6965
51.8445
51.9871
51.946
52.0514
52.0899
52.0734
51.9862
52.0022
51.9867
52.0788
52.0735
52.0013
52.0398
52.0373
52.1004
52.1409
52.0175
52.0174
52.0536
52.0851
52.1504
52.044
52.0562
52.112
52.142
52.0564
52.0876
52.1536
52.1552
52.0059
52.0034
52.0644
52.0749
52.1971
52.1511
52.2241
52.0271
52.1533
52.0985
52.1709
52.1455
52.2088
52.1301
52.1779
52.1971
52.1724
52.1169
52.1338
52.2302
52.2637
52.2104
52.176
52.1998
52.1472
51.9443
51.9081
51.7089
51.8767
51.6885
51.7054
51.8507
51.6711
51.5697
51.6358
51.6472
51.6083
51.6375
51.7886
51.7814
51.9087
51.8845
51.9132
51.891
51.9121
51.8524
51.8663
51.8641
51.8617
51.7987
51.5982
51.7876
51.6549
51.7633
51.5271
51.751
51.9143
51.8877
51.9331
51.926
51.9151
51.8843
51.8628
51.8651
52.0024
52.0011
51.9575
51.9674
51.9696
51.9308
51.9697
51.852
51.8415
51.8914
52.0308
52.0843
51.9871
52.0045
52.0629
51.9685
51.8832
51.9278
51.9728
51.9839
51.8329
51.8648
51.8863
51.8962
52.114
52.0488
52.1166
51.9535
52.0792
52.0019
52.0677
52.0886
52.0452
51.9627
52.0512
52.0676
52.0251
51.988
51.9975
52.1191
52.1312
52.0741
52.0631
52.0631
52.0341
51.8869
51.8768
51.7153
51.8379
51.6712
51.7282
51.8301
51.6738
51.6559
51.6687
51.7203
51.6881
51.7145
51.7847
51.7886
51.8716
51.8458
51.8437
51.8574
51.8218
51.818
51.8297
51.839
51.7869
51.7457
51.4882
51.7305
51.6066
51.74
51.4748
51.7123
51.8605
51.8374
51.8266
51.8114
51.8233
51.7789
51.7615
51.7811
51.9389
51.9367
51.9067
51.9125
51.9177
51.7587
51.8194
51.7128
51.6944
51.7547
51.9783
52.0437
51.9363
51.9593
52.0313
51.8059
51.74
51.8045
51.8139
51.8228
51.7002
51.755
51.7565
51.7624
52.0443
51.9585
52.0214
51.8972
52.012
51.918
51.9809
52.0307
51.8878
51.8137
51.9248
51.9269
51.8939
51.8643
51.8646
52.0065
51.9972
51.9484
51.9526
51.9376
51.94
51.8693
51.8619
51.7402
51.8231
51.679
51.7438
51.8132
51.6768
51.7024
51.754
51.7499
51.704
51.7751
51.7864
51.7843
51.8101
51.7673
51.8203
51.8018
51.7536
51.8107
51.8138
51.7687
51.7306
51.7421
51.4826
51.698
51.6253
51.7471
51.5071
51.6898
51.8222
51.8153
51.7398
51.7164
51.7463
51.7068
51.6755
51.7079
51.8991
51.906
51.8985
51.9019
51.9114
51.6556
51.6987
51.6389
51.6323
51.6592
51.96
52.028
51.9224
51.9852
52.0357
51.6874
51.6497
51.7179
51.7077
51.7108
51.6138
51.6934
51.6693
51.6765
51.9855
51.8846
51.944
51.8572
51.9669
51.8573
51.9169
52.0036
51.7652
51.7227
51.8056
51.8005
51.7659
51.7513
51.7455
51.8938
51.881
51.848
51.8439
51.8298
51.8628
51.8554
51.8453
51.7438
51.8005
51.669
51.746
51.7863
51.6594
51.6981
51.7732
51.7663
51.692
51.7627
51.8003
51.8239
51.7291
51.7076
51.8109
51.7464
51.7088
51.7934
51.8077
51.7264
51.6954
51.7604
51.5492
51.7007
51.6977
51.7781
51.6193
51.7297
51.8206
51.8498
51.6901
51.6435
51.6682
51.6865
51.6193
51.6377
51.9146
51.94
51.9526
51.9127
51.9673
51.6114
51.6344
51.5947
51.5879
51.6267
52.0312
52.0592
52.0166
52.1077
52.0845
51.6301
51.6171
51.6961
51.6436
51.6547
51.594
51.6816
51.6262
51.6408
51.9523
51.8353
51.8994
51.8428
51.9438
51.8246
51.8874
52.0146
51.6921
51.6746
51.7089
51.6997
51.6802
51.6772
51.6677
51.8024
51.7827
51.7658
51.7779
51.7429