/*--------------------------------*- C++ -*----------------------------------*\
| =========                 |                                                 |
| \\      /  F ield         | OpenFOAM: The Open Source CFD Toolbox           |
|  \\    /   O peration     | Version:  5.x                                   |
|   \\  /    A nd           | Web:      www.OpenFOAM.org                      |
|    \\/     M anipulation  |                                                 |
\*---------------------------------------------------------------------------*/
FoamFile
{
    version     2.0;
    format      ascii;
    class       volScalarField;
    location    "3";
    object      p;
}
// * * * * * * * * * * * * * * * * * * * * * * * * * * * * * * * * * * * * * //

dimensions      [0 2 -2 0 0 0 0];

internalField   nonuniform List<scalar> 
10571
(
163.354
178.448
154.591
183.446
230.747
140.455
177.491
198.459
232.509
271.022
166.287
158.693
225.552
237.272
277.862
284.326
289.572
377.516
387.95
333.84
308.499
452.578
466.583
412.716
35.6503
38.7942
32.1967
32.1531
45.1884
30.711
41.7549
58.6573
139.273
201.42
47.4649
35.7479
37.7192
88.9674
191.8
234.725
54.1056
91.324
163.892
227.558
234.703
213.348
264.972
255.67
32.9152
30.9238
32.919
34.1636
32.2976
31.3603
27.7424
24.4486
29.4685
61.3865
31.9279
34.5395
26.1566
29.0623
36.4484
107.722
35.2085
34.1126
55.218
95.93
106.285
73.3958
116.718
123.435
28.756
29.1494
29.3783
30.8253
29.3311
29.6937
30.9049
28.2103
25.5473
28.4142
27.0527
32.1434
30.1621
27.8634
26.3508
31.0468
30.2847
28.7738
28.1519
32.783
28.8756
34.269
49.2595
50.2819
27.7184
27.3706
27.5261
28.0608
27.9218
26.4386
30.2016
28.8364
27.8445
27.0994
26.2574
25.2018
28.677
27.559
27.3665
26.7737
26.7349
25.5441
25.0131
25.3922
26.0644
27.9171
29.4639
26.374
26.2971
26.0051
25.5574
26.2699
26.49
25.3939
26.0102
26.8213
26.7701
26.0716
25.218
25.6049
25.0155
24.7172
24.912
25.2036
25.3617
25.2731
24.5331
24.7693
24.8495
25.0608
25.3232
25.3953
25.1105
25.1509
24.9501
25.463
24.8067
24.4208
24.5634
25.2222
23.6512
24.4249
24.7232
24.8773
25.1546
25.1454
25.1024
24.6506
24.6817
24.9386
25.0653
25.1929
24.7808
25.0487
25.0239
24.9724
25.1789
25.1901
24.878
24.9742
25.0998
24.9059
25.2089
24.9984
24.8298
24.9208
25.0644
24.6656
24.0454
24.5964
24.9599
25.108
25.1369
25.0617
24.847
25.1063
25.2165
25.12
25.1488
24.8055
24.8092
25.0227
24.9464
25.1955
25.2719
24.844
25.0208
25.0849
24.9628
25.1098
24.9612
24.8349
24.8908
24.9665
25.0385
24.7296
24.9729
24.9503
25.1716
25.1135
25.0531
24.9135
25.2316
25.1095
25.027
25.064
24.8345
24.8306
25.0073
24.907
24.9594
24.8718
25.0648
25.0885
24.962
25.0642
24.9793
24.9247
24.9378
24.9443
24.9556
24.971
24.9328
24.7769
25.0927
25.0552
24.99
25.1131
24.9898
24.8878
24.9659
24.8401
25.0036
24.8801
24.8619
24.9286
25.0719
24.9655
24.9686
25.0538
24.9948
24.9555
24.9557
24.9425
24.8854
24.9343
24.8356
24.8267
25.0853
25.0529
24.9795
25.0443
24.9375
24.8504
25.0404
24.8434
25.0164
24.9038
24.8831
24.9541
25.0691
24.9848
24.9925
25.0251
25.0193
24.9736
24.9609
24.9253
24.8872
24.9078
24.8384
24.8849
25.0583
25.0112
24.9623
24.9882
24.9258
24.8812
25.0597
24.9281
25.0192
24.9564
24.9234
25.0179
25.0619
25.0025
25.0022
24.9956
25.0164
24.9846
24.9834
24.9318
24.8969
24.9042
24.8876
24.9182
25.0293
24.9812
24.9378
24.9397
24.9298
24.8942
25.0555
24.9711
25.0128
24.9795
24.9491
25.0757
25.0561
25.0062
25.0142
25.0036
25.0099
24.9821
25.0151
24.9707
24.9231
24.8996
24.9289
24.9529
25.0154
24.9747
24.9165
24.9398
24.9543
24.9286
25.0462
24.9938
25.0133
24.9928
24.9787
25.0746
25.0487
25.0164
25.0574
25.0503
25.0135
25.0042
25.0348
25.0217
25.0057
24.9002
24.96
24.9889
25.0284
24.9863
24.9667
24.9724
24.9758
24.9742
25.0512
25.0241
25.0258
25.0121
25.0126
25.0691
25.0503
25.0317
25.1076
25.0982
25.0985
25.0466
25.0599
24.9929
25.1524
24.9107
24.9917
25.0251
25.0551
25.0136
25.0275
24.985
24.994
25.0078
25.0626
25.0712
25.0427
25.0333
25.0424
25.0779
25.0601
25.049
25.0948
25.0747
25.1147
25.0626
25.0646
24.9923
25.2189
24.9309
25.0367
25.0604
25.1035
25.0775
25.0407
24.9793
25.0123
25.0386
25.0812
25.0968
25.0583
25.0579
25.0685
25.0933
25.0717
25.0676
25.0496
25.0245
25.0113
25.0549
25.0728
25.0937
25.1451
24.9594
25.0663
25.092
25.1058
25.1241
25.038
25.0021
25.0334
25.0657
25.1064
25.1008
25.0734
25.0787
25.0917
25.1052
25.0797
25.0853
24.9827
24.9509
24.8683
24.9979
25.0624
24.9878
25.0318
24.9911
25.0614
25.117
25.1381
25.1166
25.0432
25.0409
25.0508
25.0813
25.133
25.0951
25.0921
25.0964
25.1079
25.1146
25.0875
25.0999
24.9309
24.9041
24.7556
24.8843
25.0339
24.9529
24.9622
25.0438
25.0599
25.1375
25.1824
25.121
25.055
25.0352
25.0532
25.082
25.1553
25.0943
25.1108
25.1078
25.1144
25.1242
25.0943
25.1091
24.9152
25.0127
24.81
24.7772
24.9651
25.0085
24.9824
25.0775
25.054
25.147
25.2368
25.1451
25.0793
25.0072
25.0297
25.07
25.1872
25.1129
25.1198
25.1055
25.1087
25.1419
25.1044
25.1129
25.0225
25.2247
25.0505
24.893
24.9166
25.1183
25.0146
25.0704
25.013
25.1286
25.2283
25.1523
25.1015
25.0262
25.0029
25.0565
25.218
25.1331
25.1316
25.1014
25.105
25.164
25.1256
25.1204
25.1472
25.2092
25.2168
25.0749
24.9816
25.1716
25.0207
25.0595
24.9674
25.0872
25.2085
25.142
25.131
25.0634
24.9956
25.05
25.2339
25.1517
25.1408
25.0964
25.1015
25.1886
25.1562
25.139
25.2076
25.2073
25.2374
25.1789
25.0501
25.192
25.0339
25.0718
24.9403
25.0513
25.1849
25.0915
25.1669
25.0723
25.0329
25.0781
25.2353
25.1695
25.1394
25.0966
25.117
25.2118
25.184
25.1665
25.1821
25.2009
25.187
25.1171
24.9729
25.1822
25.0396
25.0461
24.9709
25.0328
25.1511
25.0397
25.1826
25.0729
25.0757
25.1151
25.2244
25.1683
25.1282
25.1276
25.1511
25.2236
25.2049
25.215
25.1535
25.1825
25.1596
25.0265
24.6576
25.1365
25.0121
24.9797
25.1501
25.0755
25.1063
24.9906
25.1856
25.075
25.1174
25.1135
25.2
25.1402
25.0945
25.1525
25.2044
25.2143
25.2005
25.2236
25.0698
25.1414
25.0998
24.9767
24.5223
25.0775
24.9606
24.9985
25.1972
25.1215
25.0632
24.9771
25.165
25.0773
25.1258
25.136
25.1649
25.1024
25.0552
25.1226
25.1682
25.1935
25.1685
25.1705
25.032
25.0868
25.0389
24.9916
24.9158
25.0296
24.8927
24.9831
25.0761
25.3708
25.0279
24.9829
25.0766
25.0468
25.0759
25.1538
25.1309
25.061
25.014
25.0468
25.0765
25.1603
25.1214
25.0878
24.9496
25.0174
24.9667
24.9399
25.0353
24.9832
24.8126
24.9038
24.8948
25.1008
25.0006
24.9876
24.9519
24.9708
24.9887
25.0569
25.1061
25.0233
24.9994
24.9851
25.0069
25.1155
25.0664
25.0213
24.8477
24.9289
24.87
24.8085
24.9029
24.928
24.7182
24.7755
24.7571
24.859
24.9819
24.9805
24.8559
24.9137
24.9218
24.9537
25.0941
25.028
25.027
24.9488
24.9797
25.0936
25.0292
25.0049
24.7429
24.8382
24.7478
24.6763
24.7706
24.8703
24.6166
24.6457
24.6961
24.7868
24.9646
24.9507
24.7954
24.8866
24.8955
24.9027
25.0924
25.0493
25.0121
24.9522
24.9897
25.0943
25.0648
24.9958
24.6604
24.7658
24.6377
24.5757
24.7144
24.8126
24.5198
24.5498
24.6962
24.8009
24.9464
24.9033
24.7445
24.8437
24.8854
24.8915
25.0744
25.0143
25.0004
25.0154
25.0304
25.1023
25.1267
25.1033
24.6396
24.7201
24.5724
24.53
24.7361
24.7619
24.4217
24.4984
24.7216
24.8358
24.9196
24.8542
24.6759
24.7814
24.8693
24.884
25.0512
24.945
24.9889
25.0083
25.0411
25.1382
25.1783
25.1351
24.6523
24.6943
24.5397
24.5276
24.7797
24.7026
24.3277
24.5152
24.7472
24.8688
24.8979
24.8028
24.5726
24.7018
24.8417
24.8712
25.0045
24.8377
24.908
24.9541
25.0122
25.1478
25.122
25.0985
24.7055
24.6906
24.5274
24.5982
24.838
24.6575
24.2748
24.5366
24.7502
24.887
24.8591
24.7337
24.4375
24.6219
24.8129
24.8591
24.9469
24.6878
24.8137
24.8897
24.9666
25.0928
25.0213
25.0338
24.7911
24.7157
24.573
24.6893
24.8594
24.646
24.247
24.5622
24.7538
24.8985
24.8111
24.6558
24.2759
24.5431
24.7927
24.856
24.8603
24.5187
24.7142
24.829
24.922
24.9799
24.9178
24.9657
24.8483
24.7715
24.6634
24.7402
24.8876
24.6744
24.2671
24.6034
24.7845
24.9141
24.7545
24.5672
24.1552
24.4906
24.7857
24.8627
24.7447
24.3371
24.615
24.7824
24.8904
24.8265
24.8164
24.9001
24.913
24.8575
24.7572
24.8044
24.948
24.7239
24.3491
24.6771
24.8395
24.9439
24.7048
24.5026
24.1078
24.4974
24.8031
24.8886
24.6069
24.1823
24.5505
24.763
24.8857
24.6598
24.7085
24.8422
25.0399
24.9684
24.8776
24.9266
25.0173
24.8128
24.4833
24.7821
24.9139
24.9905
24.6921
24.4931
24.149
24.5445
24.8586
24.938
24.503
24.1003
24.5509
24.7773
24.911
24.5156
24.6184
24.8073
25.1681
25.1808
25.0801
25.0635
25.0975
24.9393
24.6581
24.899
24.9969
25.0505
24.7372
24.5465
24.2504
24.6366
24.9391
25.0064
24.4462
24.1545
24.6109
24.8313
24.9711
24.4111
24.6184
24.8376
25.2597
25.2529
25.1764
25.1641
25.1696
25.0788
24.8222
25.0078
25.0739
25.1133
24.8664
24.6616
24.4729
24.7797
25.028
25.0857
24.4148
24.3879
24.7233
24.9129
25.0569
24.4328
24.7046
24.9452
25.3142
25.296
25.2446
25.2264
25.2193
25.3002
25.0587
25.1033
25.1329
25.1675
25.1513
24.9276
24.7906
24.9471
25.104
25.1555
24.4879
24.6227
24.8666
25.0015
25.1474
24.5568
24.8677
25.0642
25.3248
25.4291
25.2804
25.2466
25.2376
25.4381
25.1742
25.148
25.1597
25.1977
25.4426
25.3331
25.1247
25.0765
25.1494
25.1889
24.9218
24.8799
24.9794
25.057
25.1928
24.8555
25.0407
25.1392
25.2889
25.3988
25.2475
25.2237
25.2184
25.3834
25.1566
25.127
25.1509
25.1936
25.5766
25.5419
25.2454
25.1166
25.1412
25.1794
25.1887
25.0063
25.0416
25.0846
25.1801
25.0321
25.1108
25.152
25.2204
25.2699
25.1906
25.1716
25.1677
25.2638
25.1026
25.0625
25.1015
25.1543
25.4133
25.368
25.1698
25.1003
25.0991
25.1352
25.1638
25.0207
25.0233
25.0677
25.128
25.0283
25.0631
25.1251
25.1427
25.1523
25.114
25.1021
25.1029
25.1591
25.009
24.9798
25.0356
25.0972
25.2544
25.1972
25.0646
25.0567
25.0477
25.077
25.0696
24.9648
25.0095
25.0164
25.066
24.9849
25.0126
25.0532
25.0693
25.0221
25.0247
25.0314
25.0515
25.0094
24.9159
24.9131
24.9813
25.0483
25.1158
25.062
24.9724
25.0108
25.0096
25.0287
24.9921
24.9098
24.9796
24.9626
25.0138
24.9084
24.9568
24.9855
25.0118
24.9125
24.9532
24.9806
25.0251
24.8803
24.8638
24.8939
24.948
25.0235
25.0158
24.9673
24.9053
24.9748
24.9873
24.994
24.9411
24.9015
24.9547
24.9405
24.9741
24.8486
24.9015
24.9476
24.9768
24.8358
24.9189
24.9555
25.0184
24.8178
24.8493
24.9098
24.9307
25.0183
24.9599
24.9162
24.8584
24.9491
24.9756
24.9828
24.9093
24.8725
24.9289
24.936
24.9536
24.8534
24.8319
24.9383
24.963
24.8675
24.9194
24.9499
25.0185
24.869
24.8554
24.9327
24.93
25.0189
24.9448
24.9059
24.8328
24.9311
24.9618
24.9756
24.8928
24.7839
24.8886
24.9322
24.94
24.8027
24.8087
24.918
24.9667
24.9502
24.9479
24.954
25.0091
24.9442
24.8798
24.9485
24.9571
25.0235
24.9588
24.922
24.8378
24.92
24.956
24.9735
24.9036
24.786
24.8525
24.9393
24.954
24.8211
24.9371
24.9146
24.979
25.0207
24.9827
24.9656
24.9829
25.003
24.9166
24.9351
24.9546
25.0275
24.9822
24.9447
24.8642
24.909
24.9609
24.9815
24.9335
24.8995
24.8981
24.9537
24.9897
24.938
24.9809
24.9679
24.9911
25.0685
25.0197
24.9704
24.9613
25.0553
24.9379
24.9004
24.9117
25.0115
25.0024
24.9608
24.8889
24.9125
24.9699
24.989
24.9636
24.9765
24.9877
24.9884
25.027
25.0344
25.0261
25.0266
25.0138
25.1068
25.0568
24.9754
24.9386
25.0796
24.9339
24.8666
24.8852
24.9887
25.0155
24.9671
24.9012
24.9313
24.9779
24.9902
24.9834
24.9995
25.0278
25.0101
25.0442
25.087
25.1088
25.1513
25.035
25.1206
25.0829
24.9835
24.9217
25.0732
24.9163
24.8433
24.8431
24.9487
25.0246
24.9708
24.9071
24.9384
24.9626
24.9661
24.997
25.0089
25.0345
25.0181
25.0301
25.0939
25.0984
25.1466
25.0627
25.1257
25.1138
24.997
24.9156
25.0562
24.9132
24.8252
24.7704
24.8893
25.0338
24.9771
24.9136
24.9319
24.9235
24.9171
25.0118
25.021
25.0231
25.0023
24.9954
25.0936
25.0751
25.1324
25.1191
25.1349
25.1431
25.0621
24.9266
25.045
24.914
24.8301
24.681
24.8059
25.0468
24.991
24.9286
24.9227
24.8595
24.8484
25.0374
25.0381
25.0118
24.9717
24.9429
25.1014
25.0589
25.0906
25.1635
25.1487
25.1688
25.119
24.9511
25.0434
24.9129
24.8482
24.5985
24.7021
25.0676
25.0178
24.9522
24.9
24.7725
24.7271
25.0731
25.0661
25.0068
24.9378
24.8725
25.1114
25.0601
25.0546
25.1967
25.147
25.1465
25.1375
24.9704
25.0499
24.9196
24.8413
24.503
24.5389
25.0982
25.0563
24.9755
24.8667
24.6438
24.5306
25.1149
25.0976
25.02
24.8952
24.7713
25.1263
25.0804
25.0313
25.2057
25.1321
25.0867
25.0965
24.9498
25.0643
24.932
24.7898
24.39
24.1692
25.1372
25.1027
25.0026
24.8196
24.4704
24.1302
25.1681
25.1253
25.0638
24.8225
24.602
25.1578
25.1088
25.0058
25.1768
25.1208
25.0166
25.0241
24.8846
25.0929
24.9322
24.6991
24.1766
23.4714
25.1908
25.1526
25.0391
24.7493
24.1998
23.2021
25.2346
25.1746
25.1244
24.7517
24.2909
25.2065
25.138
24.9816
25.1104
25.1221
24.9659
24.9224
24.8001
25.1335
24.9185
24.5624
23.8517
21.8199
25.2698
25.2265
25.0793
24.6621
23.8772
21.0095
25.3142
25.2368
25.1798
24.7068
23.7381
25.2908
25.1924
24.9948
25.0626
25.1128
24.9565
24.8511
24.7136
25.1625
24.9156
24.3734
23.5123
17.7275
25.3678
25.3387
25.1406
24.6149
23.6699
18.2969
-16.4071
25.4022
25.2732
25.1298
24.6218
22.4906
25.3983
25.2741
25.0359
25.0769
25.0433
24.9753
24.8714
24.6909
25.07
24.874
24.4646
23.377
15.7399
-1.02817
25.4306
25.4049
25.0749
24.6918
23.7186
18.6125
1.82373
25.4336
25.2354
25.0678
24.5453
20.5174
25.4584
25.3097
25.1245
25.1539
24.8645
24.9901
24.9915
24.9026
24.7427
24.7402
24.6098
23.8361
19.4088
5.5682
25.2662
25.1781
24.8448
24.7622
24.0722
19.6253
6.00801
25.3464
25.1654
24.9945
24.646
20.9683
6.74953
25.359
25.2042
25.251
25.2626
24.7038
25.0058
25.1368
25.1352
24.314
24.643
24.7173
24.3233
20.8494
6.70554
25.0017
24.805
24.6514
24.7643
24.5961
21.1103
6.11083
25.2136
25.0913
24.9875
24.751
21.7579
25.2585
25.1763
25.2551
25.3602
24.8427
25.1019
25.2684
25.269
24.4018
24.7438
24.9034
24.867
23.2161
24.9039
24.7015
24.6775
24.7975
24.9767
22.8011
-4.03506
25.146
25.0912
24.9556
25.0331
24.3525
25.2265
25.1651
25.2539
25.4163
25.0558
25.2318
25.3845
25.2858
24.8082
24.9934
25.1454
25.321
25.1118
25.0539
24.8228
24.8013
24.9516
25.0885
24.7954
25.1848
25.1677
25.0651
25.1364
25.1792
25.2945
25.2514
25.3364
25.3915
25.2257
25.2872
25.3476
25.2842
25.0573
25.1565
25.274
25.3207
25.3339
25.2556
25.0283
24.9381
25.1407
25.135
25.0934
25.2681
25.2102
25.181
25.0748
25.134
25.3712
25.3577
25.3933
25.3623
25.3367
25.3357
25.31
25.2973
25.2386
25.2158
25.2713
25.3017
25.3309
25.3769
25.1568
25.0261
25.1705
25.1051
25.2091
25.3011
25.1727
25.1162
24.9992
25.1523
25.3391
25.3043
25.3252
25.3848
25.3824
25.3334
25.2991
25.3145
25.2515
25.1726
25.2186
25.2824
25.3312
25.3799
25.1345
24.9793
25.1392
25.1037
25.225
25.2518
25.0977
25.0757
24.9547
25.1859
25.2444
25.2155
25.209
25.4037
25.4022
25.3208
25.3025
25.3443
25.2098
25.1245
25.2032
25.2897
25.3614
25.2996
25.017
24.9568
25.1353
25.1747
25.2498
25.1432
25.0844
25.077
25.0726
25.1797
25.1574
25.1673
25.1831
25.4649
25.4292
25.3389
25.331
25.3946
25.1852
25.0599
25.1886
25.3068
25.4137
25.1993
24.9032
25.033
25.1501
25.2228
25.3131
25.096
25.1185
25.1719
25.1802
25.2433
25.1768
25.2356
25.2847
25.5369
25.4873
25.3958
25.3759
25.44
25.1644
25.1041
25.2233
25.3355
25.4541
25.1091
24.8528
24.9885
25.163
25.2707
25.3812
25.094
25.1667
25.2456
25.3044
25.3579
25.3283
25.4037
25.4481
25.5983
25.5167
25.4525
25.4105
25.4583
25.1617
25.1421
25.2533
25.3541
25.4463
25.0699
24.8346
25.0383
25.1835
25.2946
25.4048
25.1095
25.1951
25.2813
25.3622
25.4288
25.4181
25.548
25.5745
236.053
220.431
236.592
236.275
217.919
236.21
239.663
247.479
241.665
246.58
239.11
251.105
211.773
213.583
215.423
195.444
199.022
228.538
245.929
218.164
239.087
263.862
269.621
259.015
280.678
276.083
244.687
258.109
273.829
253.776
214.803
259.163
259.553
191.793
194.363
218.26
196.225
210.979
228.107
212.405
257.61
246.772
285.501
289.454
289.567
276.781
283.078
280.822
280.837
292.41
315.16
275.621
328.786
314.285
350.435
334.441
313.815
391.918
410.561
292.918
286.955
366.573
328.189
287.852
291.783
310.236
314.387
289.487
286.115
302.473
343.609
377.813
398.892
412.392
463.614
457.695
477.078
504.133
512.783
442.189
394.889
490.523
456.336
356.796
342.639
417.782
372.585
321.9
481.268
514.575
524.214
506.647
510.223
482.796
500.713
444.231
172.26
76.0455
148.811
160.239
144.941
58.0334
62.6583
52.4104
169.548
195.926
55.6214
50.5587
58.0483
213.644
90.3881
155.758
84.0041
173.531
166.47
177.719
83.7561
67.438
68.715
54.8236
244.3
238.687
257.767
127.639
179.127
184.798
215.94
265.213
240.845
147.958
141.251
144.471
85.6001
78.1957
71.7739
276.245
276.439
259.792
268.484
268.827
168.51
218.675
80.3274
78.2277
97.7247
282.49
292.488
274.227
272.023
276.736
261.293
136.498
337.467
337.791
384.186
131.588
137.596
203.758
243.021
324.034
384.098
350.546
290.259
289.599
319.765
302.551
284.997
413.723
285.098
470.071
468.162
329.353
356.107
372.339
442.69
467.557
370.458
358.962
377.674
337.818
36.7179
32.0346
36.404
36.5248
35.7349
35.5559
33.6683
35.1962
35.1586
35.9957
36.9243
36.6726
36.2703
42.3859
35.9265
46.1469
33.8725
33.3597
36.4186
31.7824
32.0911
31.4001
31.6907
33.364
86.3053
82.5659
133.924
33.2982
38.4834
34.1042
45.9904
169.23
89.2499
45.1457
47.4581
43.8158
31.7124
35.3441
33.4324
224.065
229.071
128.785
161.968
168.279
45.6386
45.1584
37.5054
36.4151
35.4814
232.3
237.424
175.42
174.092
178.277
63.4931
42.2197
49.5699
103.007
120.663
40.8687
33.6848
54.1802
52.7195
233.145
245.352
237.558
160.248
169.363
175.586
173.661
170.981
171.325
97.3125
241.283
252.678
128.029
153.59
165.942
265.039
267.628
180.774
184.231
182.646
183.066
30.7117
29.7391
31.7263
30.7708
31.559
29.6143
29.5245
29.6859
33.2411
32.8478
30.1771
30.5116
29.9138
32.537
29.9344
29.992
28.245
30.837
30.167
31.3905
29.8534
29.8617
29.2352
29.1055
31.2776
28.8079
28.7394
30.7127
29.9841
29.1791
28.8802
37.887
29.3768
28.2027
30.5133
29.169
26.5668
27.9326
27.0208
92.8556
106.223
32.3818
40.6403
56.5417
31.0505
31.3553
28.7629
27.8648
29.0482
111.033
111.39
53.3566
61.935
57.6702
34.7678
31.2446
30.8227
38.4896
33.3512
32.3987
29.8319
33.0153
29.0227
106.252
116.138
115.119
50.6471
55.4813
72.0102
69.2926
57.0675
56.5428
38.3727
92.2714
104.494
44.0839
56.531
65.7047
121.928
119.069
74.405
77.5026
76.6008
79.2999
29.0457
28.4289
28.9473
28.8764
28.8264
28.3258
28.2734
28.1263
28.832
28.29
28.1676
27.9466
27.6989
28.458
27.8474
27.8916
27.5178
29.1096
28.6088
28.4617
28.3338
28.4961
27.8029
28.2277
28.4634
28.3525
28.1767
28.4635
27.9132
27.7643
27.6242
28.3481
27.7618
26.6887
26.7818
26.225
26.8971
26.8909
26.3956
28.2679
32.2242
27.4584
26.9553
27.4469
26.4736
27.2752
26.6906
26.3006
26.4706
35.6603
31.2609
26.7828
27.6954
26.1779
28.9906
27.6705
29.282
30.0829
27.543
28.5729
29.0708
28.3225
27.2212
29.0151
43.4989
37.9343
26.0939
25.3344
27.7172
26.3526
25.686
31.4313
28.514
41.3412
46.11
28.6548
32.1465
35.0468
50.0514
51.4414
35.0029
34.3851
37.2484
33.9534
27.672
26.7242
27.638
27.7083
27.5372
27.0046
26.8288
26.8991
27.5473
27.3904
27.1549
27.1385
27.1612
27.5928
27.4024
26.9739
26.556
27.7206
26.8612
27.775
26.5435
26.6283
26.2756
27.0103
27.7802
27.6891
27.3519
27.4964
27.5009
27.8739
27.1929
27.4351
27.2588
26.7086
26.692
26.3306
26.3588
26.2201
26.0857
26.9039
27.03
26.6408
26.5357
26.4903
26.1572
26.2259
25.9548
25.9154
26.0115
26.679
26.2626
26.0834
26.0402
25.6738
26.5074
25.2975
28.1309
26.4801
26.0048
25.0535
25.4368
25.2414
25.05
25.5742
25.451
25.586
25.0993
25.1991
25.436
25.5878
25.675
27.1458
25.4734
29.484
30.2906
26.3862
26.1929
27.1334
28.6953
30.5731
25.7662
25.6018
26.6739
25.2496
26.0222
25.5905
26.2175
25.8642
26.0365
25.5445
25.4507
25.4052
26.2031
26.3879
25.4465
25.2127
25.2795
26.4892
25.1044
26.1867
25.8027
25.6427
25.9071
25.6091
25.6774
25.3386
25.6425
24.8157
26.6158
27.8842
27.1337
24.9201
24.8897
25.9578
25.6136
26.7931
25.1736
26.0259
25.8827
25.8211
25.7057
25.6001
25.5482
25.4222
26.0844
25.6227
25.1523
25.0176
25.1156
25.0366
25.2287
25.2898
25.2249
25.1484
25.2185
25.17
25.177
25.5548
25.1372
25.2665
25.1917
24.851
25.256
25.194
25.1557
25.0303
25.0721
25.093
25.0493
25.1977
25.1845
25.212
25.1707
25.1548
25.1457
25.2491
24.6325
24.7758
24.4282
24.7306
24.8352
24.7266
24.7876
24.7418
24.7612
25.0927
25.2375
25.4011
25.0056
25.0854
25.143
25.2722
25.1661
24.8194
24.7753
25.0557
25.3694
24.9718
24.9552
24.9652
25.1393
25.385
24.996
25.02
24.9055
25.1115
25.345
25.2176
25.1391
25.2442
25.0836
24.9892
25.1253
24.9869
24.8281
24.8169
24.8418
24.8252
24.8541
24.7532
24.9072
25.4771
25.2709
25.2758
25.4278
24.8604
25.3122
25.2211
25.2683
24.9929
24.6537
24.33
24.6591
24.8589
24.9946
24.5846
24.9409
24.8407
25.0637
24.99
25.0863
25.1133
25.1574
25.0866
25.1422
25.4152
25.358
25.3033
25.2182
25.2101
25.1543
25.1395
24.8816
25.1873
24.9288
25.0901
24.9864
25.1651
25.1632
25.1618
25.1628
25.1118
25.1507
25.1349
25.1482
25.1014
24.9845
25.1367
25.1098
25.0655
25.2043
25.0857
25.1394
25.1257
25.167
25.0835
25.1591
25.1989
25.1829
25.1948
25.1558
25.1801
25.1892
25.2143
24.8969
24.9856
24.9715
24.7978
24.7942
24.7895
24.8956
24.8064
24.7598
25.0905
25.1053
25.2146
24.9598
25.0891
25.091
25.175
25.1821
25.2187
25.315
25.201
25.2158
25.2218
24.8132
24.7943
24.8998
24.9202
24.8704
24.8993
24.9341
25.0345
24.9763
24.9974
25.0392
25.0126
25.0884
25.1487
25.1063
24.9973
25.0726
24.9933
25.0184
25.054
25.0089
24.8981
24.9147
24.9486
24.9395
24.946
24.9493
24.9388
25.1803
25.1362
25.1597
25.1679
25.0484
25.1454
25.1083
25.1132
25.0336
24.9799
24.8423
25.0018
24.8877
24.9158
24.8977
24.959
24.9898
25.1041
24.9336
25.1195
25.0821
25.1283
25.1059
25.1414
25.1202
25.1437
25.1023
25.0802
25.1013
25.0953
25.1127
25.0428
25.1525
24.9641
25.1305
25.0461
25.1396
25.1471
25.1128
25.155
25.1325
25.1562
25.1121
25.1745
25.1154
25.1047
25.126
25.1095
25.1063
25.1625
25.0755
25.2049
25.0841
25.1582
25.0706
25.2766
25.1803
25.2414
25.2295
25.1161
25.1701
25.255
25.2461
25.0264
25.0351
24.7402
24.8007
24.7014
24.8129
24.6265
24.7994
24.6822
25.0757
25.0875
25.1492
24.9408
25.0522
25.1123
25.142
25.4288
25.1029
25.4363
25.2552
25.289
25.2652
24.7388
24.757
24.9022
24.9383
24.8473
24.9228
24.9506
25.0466
25.035
25.047
25.0658
25.0592
25.1074
25.0834
25.0691
25.025
25.0478
25.0184
25.0143
25.0399
25.0149
24.9596
24.9566
24.9646
24.9666
24.961
24.9392
24.9481
25.1093
25.0869
25.0844
25.0749
25.0073
25.0876
25.0637
25.0495
24.9915
24.9153
24.8928
24.9249
24.9174
24.9334
24.9038
24.9193
24.8977
24.8753
25.0633
25.0732
25.09
25.0463
25.0577
25.0748
25.1956
24.9951
25.1117
24.8823
25.1423
24.905
25.0281
25.1684
25.1471
25.1882
25.2072
25.1848
25.2082
25.2098
25.1018
25.1029
25.1029
25.0951
25.1044
25.1012
25.0162
25.2489
24.9504
24.9588
24.9277
25.0306
25.1696
25.2065
25.2407
25.1275
25.159
25.2272
25.2343
25.0404
25.0584
24.5931
24.8286
24.713
24.8956
24.6334
24.8821
24.7552
25.0119
25.1043
25.098
24.8812
24.9723
25.0339
25.0222
24.844
24.7895
24.8364
24.9618
24.9654
24.8947
24.9926
24.989
25.0716
25.0566
25.0729
25.0591
25.06
25.0172
25.0488
25.0295
24.9979
25.0257
24.9983
24.9856
25.0143
24.981
24.9609
24.9627
24.9606
24.9555
24.9659
24.9549
24.9622
25.0732
25.0632
25.042
25.0385
24.9936
25.051
25.0316
25.037
25.0111
24.9362
24.9145
24.9149
24.9507
24.9374
24.9206
24.9102
24.88
24.906
25.0286
25.0489
25.0616
25.017
25.0458
25.054
24.8247
25.0221
24.7814
24.7707
24.3729
25.0875
25.107
25.0877
25.0846
25.1117
24.9151
24.7604
24.828
24.5194
24.7751
25.08
25.0987
24.7194
24.9425
24.8037
25.0154
24.8124
25.0027
24.8722
24.9489
24.9563
24.9715
24.8754
24.946
24.9343
24.9593
24.8826
24.8967
24.9578
25.0267
25.0168
24.9403
25.0394
25.0126
25.0373
25.0595
25.0738
25.0372
25.0601
24.9657
25.0254
25.0233
24.9827
25.0148
24.9741
24.9874
25.0176
24.9781
24.9622
24.9712
24.9816
24.9756
24.9788
24.968
24.9726
25.055
25.0472
25.0342
25.0394
25.0259
25.0471
25.0271
25.0353
25.0204
24.9395
24.9173
24.9031
24.9572
24.9413
24.9167
24.9022
24.9211
24.9327
25.0123
25.0441
25.0505
25.0101
25.0366
25.043
24.7974
24.7041
24.8605
24.8349
24.8297
25.0836
25.1171
25.0754
25.0757
25.1107
24.7787
24.8322
24.8724
24.8611
24.8714
25.1071
25.1089
24.9164
25.0603
24.9439
25.0518
25.0115
25.1015
25.0157
24.9325
24.9577
24.9549
24.9325
24.9264
24.9696
24.941
24.9
25.0175
25.0703
25.0568
25.0285
24.9833
25.0736
25.0396
25.0405
25.0637
25.0663
25.0467
25.0657
24.9988
25.0115
25.0012
24.9933
25.0117
24.9865
24.9994
25.0064
24.9956
24.9889
24.9873
24.999
24.9975
24.9954
24.9793
24.9893
25.033
25.0224
25.0061
25.0213
25.0142
25.0025
24.978
25.0072
25.0159
24.9474
24.9282
24.9123
24.9698
24.9608
24.9479
24.931
24.9472
24.9661
25.0054
25.0261
25.0306
24.9984
25.0165
25.0185
24.865
24.8624
24.9001
24.8846
24.8838
25.0598
25.0903
25.0411
25.0416
25.058
24.8789
24.8909
24.8865
24.8936
24.9032
25.0983
25.0737
25.0569
25.1133
25.0516
25.0602
25.0527
25.1076
25.0592
24.9419
24.975
24.9474
24.9701
24.9603
24.9806
24.9652
24.9372
25.1029
25.1168
25.0868
25.0562
25.0526
25.0941
25.0612
25.0484
25.0655
25.06
25.0486
25.0626
25.0012
24.9964
25.0006
25.0019
25.0002
24.996
25.0075
24.9956
25.0001
25.0002
25.004
25.0058
25.0016
25.0121
25.0017
25.0153
25.0173
25.0148
24.9693
24.9985
25.0195
24.9972
24.9775
24.9943
25.0073
24.9767
24.9699
24.9523
24.9997
24.9925
24.9886
24.9702
24.9833
24.9994
24.9937
25.0095
25.0088
24.9991
25.0075
25.0053
24.9029
24.908
24.9357
24.9213
24.9323
25.0261
25.0312
25.0199
25.0121
25.0139
24.9109
24.9132
24.9084
24.9308
24.929
25.0577
25.0453
25.0398
25.0984
25.0615
25.0494
25.0258
25.0941
25.0727
24.9749
24.9875
24.9793
24.9859
24.9844
24.9957
24.9884
24.9625
25.1146
25.1093
25.0917
25.0625
25.0796
25.084
25.0597
25.0431
25.0582
25.0517
25.0388
25.0534
25.0123
25.0159
25.035
25.0262
25.0094
25.0215
25.058
25.0502
25.0596
25.0091
25.0189
25.032
25.0267
25.0289
25.0304
25.0456
25.0151
25.0156
24.984
24.9968
24.9833
25.0209
24.9953
25.0146
24.9578
25.0089
25.0105
24.9892
25.0252
25.0238
25.0326
25.0094
25.0161
25.0336
25.0086
25.0074
25.0026
25.0206
25.0104
25.0021
24.9419
24.9562
24.9714
24.963
24.9779
25.0043
25.0125
25.0188
25.008
25.021
24.9508
24.9528
24.9517
24.9722
24.9794
25.0424
25.0487
25.0223
25.095
25.0916
25.0474
25.0288
25.0968
25.1087
24.9896
25.0045
24.9975
25.0014
24.9947
25.0122
25.0053
24.9958
25.1013
25.0939
25.0758
25.0577
25.068
25.0696
25.0585
25.0374
25.0485
25.0481
25.0386
25.0477
25.0233
25.0688
25.1136
25.0951
25.1112
25.107
25.1373
25.164
25.165
25.0523
25.0436
25.0845
25.081
25.0583
25.0592
25.0739
25.0218
25.0377
25.0459
25.0414
24.9443
25.0799
25.1153
25.0637
24.9746
25.0367
25.0476
25.0245
25.0485
25.0512
25.0573
25.0372
25.0506
25.0641
25.0303
25.0188
25.0057
25.0357
25.0256
25.0116
24.9812
24.9971
25.007
24.9973
25.0152
25.0193
25.029
25.0385
25.0302
25.0376
24.992
25.0056
24.9913
25.0099
25.0266
25.058
25.0667
25.0403
25.0934
25.1157
25.0561
25.0432
25.0855
25.1101
25
25.0208
25.014
25.0224
25.007
25.0291
25.0225
25.028
25.0923
25.0937
25.0725
25.065
25.0703
25.0759
25.0735
25.0424
25.0515
25.0549
25.0469
25.0569
25.0401
25.1512
25.167
25.1673
25.1901
25.2083
25.1735
25.1822
25.1985
25.1025
25.0689
25.1108
25.1036
25.0777
25.0855
25.0885
25.0501
25.0679
25.1612
25.0702
25.0211
25.0908
25.1559
25.0564
25.0472
25.0663
25.065
25.0506
25.0636
25.0754
25.0661
25.0621
25.0729
25.0795
25.0399
25.0427
25.0312
25.0557
25.0754
25.0616
25.0122
25.0323
25.0415
25.0259
25.0493
25.0479
25.0521
25.0801
25.0732
25.0712
25.0252
25.0455
25.0235
25.0385
25.0608
25.0762
25.087
25.0506
25.0806
25.1038
25.0684
25.0572
25.0812
25.0982
25.0158
25.0389
25.0332
25.0455
25.0271
25.0484
25.0439
25.0557
25.0964
25.0961
25.0814
25.0821
25.0852
25.0836
25.0863
25.0524
25.0643
25.0665
25.0594
25.0711
25.0581
25.1634
25.104
25.1518
25.1506
25.1535
25.1098
25.1038
25.0904
25.0917
25.083
25.0741
25.0791
25.0842
25.0865
25.0844
25.0892
25.1073
25.1112
25.0371
25.0248
25.0556
25.031
25.0477
24.959
25.0798
25.0637
25.0697
25.0681
25.0806
25.0693
25.0709
25.0856
25.0899
25.0867
25.1223
25.1013
25.1595
25.1611
25.1658
25.0438
25.0691
25.0757
25.0593
25.0869
25.0953
25.0899
25.1147
25.1064
25.1082
25.0512
25.0726
25.0529
25.0641
25.0836
25.0998
25.1104
25.0671
25.0845
25.097
25.0938
25.0802
25.0909
25.0973
25.0397
25.0587
25.0556
25.0688
25.0526
25.0675
25.0666
25.0808
25.0989
25.1037
25.0861
25.0894
25.1002
25.0888
25.0937
25.0666
25.0781
25.0755
25.074
25.085
25.0768
25.0242
24.9539
25.0428
25.0411
25.0083
24.9591
24.966
24.9179
25.0608
25.0823
25.0176
25.028
25.0758
25.0821
25.076
25.1517
25.1284
24.9573
25.0669
24.8896
24.994
24.8978
25.0445
24.8666
25.0791
25.0653
25.0724
25.0727
25.0777
25.0603
25.0748
25.0936
25.0949
25.2345
25.1502
25.1853
25.1809
25.1854
25.1557
25.0739
25.1018
25.1061
25.0854
25.1131
25.1022
25.1247
25.1277
25.1096
25.1347
25.0746
25.0931
25.0756
25.0829
25.1003
25.1184
25.1278
25.0946
25.1032
25.1054
25.1201
25.1091
25.1173
25.1135
25.0653
25.0758
25.077
25.0879
25.0769
25.0836
25.0862
25.1009
25.1111
25.1195
25.0901
25.0964
25.111
25.0928
25.1003
25.082
25.0927
25.083
25.09
25.1
25.0931
24.906
24.8849
24.8844
24.8989
24.8422
24.8487
24.8635
24.8156
24.9931
25.0609
24.9543
24.9612
25.0399
25.063
25.0506
25.0463
24.9716
24.8644
24.975
24.8671
24.9163
24.8572
24.9124
24.8735
25.0757
25.0588
25.0786
25.0503
25.0715
25.0598
25.0847
25.0962
25.1033
25.0829
25.1667
25.1239
25.012
25.098
25.0931
25.0916
25.1206
25.1285
25.0968
25.1248
25.1356
25.1424
25.1512
25.1671
25.1514
25.0874
25.105
25.083
25.089
25.107
25.1398
25.1532
25.1221
25.1287
25.1205
25.1427
25.1329
25.1366
25.1249
25.0878
25.0906
25.0937
25.1033
25.0952
25.0967
25.0988
25.1124
25.1261
25.132
25.0949
25.1034
25.1192
25.0984
25.1077
25.0987
25.1069
25.0906
25.1054
25.1131
25.1057
24.8924
24.9213
24.8526
24.8676
24.8344
24.8792
24.9106
24.8775
24.9319
25.0124
24.9128
24.9129
24.9688
25.039
25.0095
24.932
24.9159
24.8768
24.8548
24.8984
24.9245
24.9117
24.8563
24.9388
25.0649
25.0587
25.0855
25.0032
25.0505
25.0437
25.0791
25.1075
25.108
24.9943
25.0819
25.0911
25.0043
25.1132
25.1109
25.0971
25.1285
25.1447
25.0978
25.133
25.194
25.1653
25.2171
25.221
25.1842
25.088
25.1074
25.0775
25.0842
25.1034
25.1689
25.1857
25.1436
25.1468
25.1283
25.1702
25.1516
25.1596
25.1349
25.0998
25.1007
25.1013
25.1077
25.1003
25.1026
25.102
25.1128
25.1373
25.1466
25.1023
25.1119
25.1323
25.1095
25.119
25.1108
25.1183
25.0985
25.1147
25.1247
25.1109
24.9866
25.0655
24.9106
24.9697
24.9164