/*--------------------------------*- C++ -*----------------------------------*\
| =========                 |                                                 |
| \\      /  F ield         | OpenFOAM: The Open Source CFD Toolbox           |
|  \\    /   O peration     | Version:  5.x                                   |
|   \\  /    A nd           | Web:      www.OpenFOAM.org                      |
|    \\/     M anipulation  |                                                 |
\*---------------------------------------------------------------------------*/
FoamFile
{
    version     2.0;
    format      ascii;
    class       surfaceScalarField;
    location    "3";
    object      phi;
}
// * * * * * * * * * * * * * * * * * * * * * * * * * * * * * * * * * * * * * //

dimensions      [0 3 -1 0 0 0 0];

internalField   nonuniform List<scalar> 
29271
(
-8.05118e-06
5.39148e-07
9.24261e-07
6.74516e-06
-9.24279e-06
4.55633e-07
2.71984e-06
6.28371e-06
-2.96712e-05
-3.18833e-06
-2.50254e-06
1.06648e-06
4.39111e-06
2.99045e-05
-2.98448e-05
-1.22551e-06
2.83105e-06
-3.5765e-06
2.73543e-06
2.90803e-05
-2.3481e-05
1.02131e-06
-3.65474e-06
1.45435e-06
2.08325e-05
3.82759e-06
-2.43012e-05
-4.24754e-06
-2.96409e-06
-2.64583e-06
4.63672e-06
2.9522e-05
-5.95743e-05
4.99762e-07
-3.60971e-06
-4.0971e-06
-3.05982e-06
6.98412e-05
-4.25205e-05
-5.04747e-06
2.73314e-05
-2.98829e-05
-2.68139e-06
5.28009e-05
-3.45174e-05
8.57713e-07
2.72157e-05
-2.73339e-05
-1.94294e-05
5.32073e-05
-3.28469e-05
9.8481e-06
-2.69573e-05
2.79225e-05
2.21138e-05
-6.14088e-06
1.26099e-06
1.56793e-06
3.42458e-06
-5.10081e-05
-2.3559e-06
5.91992e-06
-2.41521e-06
-6.55373e-06
5.6413e-05
-2.26686e-05
9.46129e-06
-3.71532e-07
7.83632e-07
-7.20805e-06
2.00032e-05
-2.95476e-05
2.46001e-05
5.64523e-06
-1.14567e-05
-1.39005e-05
2.46596e-05
-5.9664e-05
3.90668e-05
1.41037e-05
-1.24265e-05
-3.69754e-05
5.58953e-05
-3.97714e-05
2.04255e-05
1.36144e-05
-2.00831e-05
2.22407e-05
3.57402e-06
-2.60414e-05
1.25501e-06
-1.76834e-06
-5.33085e-06
2.2554e-05
9.33153e-06
-2.38351e-05
1.67738e-06
7.03115e-06
-1.44127e-06
-6.82769e-06
2.33956e-05
-1.93271e-05
9.37079e-06
3.63286e-07
1.54695e-06
-7.46956e-06
1.55156e-05
-1.97755e-05
2.79348e-06
-9.57943e-06
1.12044e-05
1.80873e-05
-2.73028e-06
-1.04478e-05
1.29489e-05
-9.04562e-06
6.59854e-06
-2.06761e-05
2.52272e-06
-2.5582e-06
1.60763e-05
4.90982e-06
-2.33182e-05
-5.27869e-09
3.55056e-06
-2.27476e-06
1.74338e-05
4.61384e-06
-8.12418e-06
5.50652e-06
-2.78031e-06
5.54782e-06
-4.68998e-06
-4.62453e-07
3.64527e-06
1.50757e-06
-2.85264e-06
1.37704e-06
1.34664e-06
2.67814e-07
-6.06472e-06
-2.89503e-06
-3.40282e-05
3.15098e-06
2.06281e-06
3.77742e-05
-7.37854e-06
-3.4964e-05
5.39411e-07
-5.68951e-06
-1.38837e-06
4.8881e-05
-2.42161e-05
1.61176e-06
-6.2052e-06
-4.86498e-06
2.63629e-05
7.31164e-06
-5.3118e-06
-1.27223e-05
-3.97122e-05
6.41914e-06
8.23694e-07
5.05034e-05
-3.31456e-05
-1.54204e-06
0.000312871
-6.22012e-05
-8.8122e-05
-4.47116e-05
-0.000128658
3.0102e-06
5.33731e-06
5.68583e-06
8.52863e-06
4.76324e-06
4.765e-06
9.01432e-06
4.40477e-06
-4.3499e-05
-9.79205e-06
0.00020053
-4.81898e-05
-4.41066e-05
-8.56796e-05
-4.71541e-05
7.69432e-06
3.12693e-06
1.68033e-05
1.71209e-05
-5.51481e-06
-9.80227e-06
0.000122925
3.62892e-06
2.91601e-06
1.48887e-05
4.47843e-06
-5.96583e-06
-3.67971e-06
-3.84121e-06
-5.65007e-05
-2.78787e-05
-4.36024e-05
-3.55509e-05
-2.06625e-05
2.81455e-06
-4.64866e-06
1.72249e-05
-1.73383e-06
-3.99063e-07
1.96815e-06
1.08112e-07
-1.69401e-05
-7.00389e-05
4.04086e-06
1.19907e-05
-1.53997e-05
8.63471e-05
-2.26305e-05
-2.08686e-05
0.000137078
-2.23298e-05
-2.88244e-05
-2.33293e-05
-2.09617e-05
-5.79291e-07
9.60994e-07
-1.79793e-06
1.74075e-06
-2.4392e-05
-1.40825e-05
0.000104225
-2.4216e-05
-3.7187e-05
-1.56872e-05
-2.10832e-05
-2.62751e-06
-1.71936e-06
7.92336e-05
-2.56834e-06
-1.68715e-06
-1.5993e-06
-1.01103e-06
-6.87917e-07
-5.22678e-07
-3.9754e-05
-2.74217e-05
-1.73672e-05
-1.64616e-05
-1.79871e-05
1.2341e-06
9.14911e-08
-6.14374e-08
1.40954e-05
-1.47483e-05
-1.48414e-06
6.788e-08
-4.50413e-06
5.09605e-06
1.55727e-05
-1.2255e-05
-5.2387e-06
6.58949e-05
4.49628e-06
1.72974e-06
1.72757e-05
1.52942e-06
-5.51026e-06
-4.29354e-06
-4.46666e-06
-2.17444e-05
-1.95124e-05
-1.90848e-05
-1.96888e-05
-2.5155e-06
-3.17145e-06
4.47842e-05
-1.60301e-06
-1.55739e-06
-1.36906e-06
-2.91267e-06
-2.50383e-06
-2.2852e-06
-1.35019e-05
-1.26205e-05
-1.4137e-05
-1.29442e-05
-9.54717e-06
-9.44071e-07
-1.66156e-06
7.91794e-06
-5.01446e-06
9.34336e-08
4.04649e-07
4.57529e-06
-1.25126e-05
1.70222e-06
-2.58128e-06
8.30401e-06
-1.37118e-05
1.01732e-06
3.55265e-07
-6.78544e-07
9.84633e-06
-4.55916e-06
1.1566e-06
-2.00742e-07
3.69462e-06
8.51304e-07
3.8064e-07
-5.47045e-07
-7.18984e-07
-2.32693e-07
-2.66098e-06
1.16261e-06
1.71032e-06
2.99703e-07
9.03683e-06
-3.83939e-05
-5.96749e-06
-7.4198e-07
3.57668e-05
-3.27706e-06
-6.08913e-05
-3.99728e-08
2.11072e-06
-1.34262e-06
6.34403e-05
-3.35624e-05
-1.98909e-06
1.01624e-06
-6.18053e-07
3.50801e-05
7.32311e-08
2.41005e-06
-2.59444e-06
-5.64467e-05
2.8016e-06
-7.28128e-06
6.11108e-05
-4.02823e-06
-4.78458e-06
0.000340668
4.06618e-07
-4.85918e-07
-3.14727e-06
-3.18915e-06
2.10312e-06
-5.31018e-06
-1.23303e-06
-8.12824e-06
-2.38018e-05
-5.69047e-06
0.000220964
5.83684e-06
3.81208e-06
-9.59546e-07
-3.65957e-06
-3.89451e-06
-4.33759e-06
0.000109131
7.12096e-06
1.46906e-06
2.27278e-06
-5.61231e-07
-4.29448e-06
-4.1749e-06
-3.60776e-06
-1.44726e-05
2.501e-06
-3.80497e-06
1.20617e-05
7.59832e-07
-1.40664e-07
1.17809e-07
-8.17817e-07
-3.92509e-06
-8.89674e-05
1.00213e-05
1.22136e-05
-1.23084e-05
8.2966e-05
-5.92509e-06
-3.13214e-05
0.00020629
-1.06302e-05
-5.89066e-06
-1.22325e-05
-7.99726e-06
-1.49896e-05
-1.82721e-05
0.000125872
-3.54745e-06
-2.42911e-06
8.0228e-05
-3.47747e-06
-2.78413e-06
-2.67994e-06
-2.03252e-06
-1.71055e-06
-1.66042e-06
-1.17218e-05
6.50329e-07
-1.2544e-06
3.03529e-07
8.47491e-06
-3.07371e-06
-3.70998e-07
-4.05948e-06
-8.08846e-07
1.24733e-06
7.06571e-06
-1.28273e-05
-3.8849e-06
3.91407e-05
1.14386e-05
1.65445e-06
9.35928e-06
1.19333e-06
-4.35805e-06
-3.3004e-06
-3.84222e-06
-1.90004e-06
-2.61993e-06
2.92705e-05
-1.64007e-06
-1.10064e-06
-1.36442e-06
-2.47485e-06
-2.33512e-06
-2.15072e-06
-7.50755e-06
-7.81096e-07
-1.23715e-06
5.19664e-06
-4.77516e-06
-2.16042e-07
2.64836e-07
4.77361e-06
-4.74047e-06
7.36896e-07
-1.53794e-06
1.75083e-06
-6.86334e-06
9.16336e-07
-1.41369e-07
-3.46579e-07
3.81502e-06
-2.97315e-06
7.17323e-07
2.8025e-07
2.04241e-06
-2.59717e-07
2.56405e-08
-2.3164e-06
2.52805e-06
-4.56059e-06
-4.07505e-06
-7.94805e-07
9.4017e-06
3.8743e-06
6.34284e-06
-2.98425e-05
-5.28535e-06
-1.01171e-06
2.59225e-05
6.10226e-08
-5.77168e-05
-1.81709e-07
4.92365e-06
6.96401e-06
4.59498e-05
-3.44445e-05
-3.17636e-07
4.67019e-06
2.08604e-06
3.21116e-05
-4.10573e-06
9.33514e-06
8.68539e-06
-6.31445e-05
-1.00694e-06
-1.11654e-05
5.72963e-05
1.94742e-05
-9.48821e-06
0.000343862
-3.36129e-07
-1.88831e-06
1.76318e-06
1.69801e-06
-1.21434e-06
-8.01888e-06
-4.33259e-07
-4.75037e-06
-5.92083e-06
-1.57612e-05
0.0002829
-4.74761e-06
-7.06217e-06
-4.07039e-06
-4.89943e-06
-4.6803e-06
6.88782e-07
0.000149453
-3.07278e-06
-9.08813e-06
-6.30516e-06
-1.10892e-05
-3.4191e-06
-4.28582e-06
-4.99039e-06
-8.93311e-06
-4.86776e-07
-7.57963e-07
5.50368e-06
5.14775e-07
3.09538e-08
-8.79336e-07
3.34109e-07
5.96895e-06
-6.92755e-05
8.36497e-06
9.1474e-06
-2.85283e-06
4.8647e-05
3.09429e-05
-1.72807e-05
0.000217571
-1.19079e-05
-8.29662e-06
-8.87581e-06
-5.35047e-06
9.9015e-06
-2.01046e-05
0.000151256
-1.23151e-06
-1.78286e-06
9.96819e-05
-5.07273e-07
-2.38024e-06
-5.07099e-07
-1.06784e-06
-4.18963e-07
-9.67821e-07
-7.65281e-06
3.69717e-07
-2.47426e-06
8.39837e-07
7.68601e-06
-5.28841e-07
4.26906e-07
-3.16926e-06
5.58966e-07
2.07793e-06
6.34296e-07
-8.26277e-07
-1.26869e-06
1.64411e-05
5.49942e-06
2.31247e-07
4.97254e-06
4.09418e-07
-1.50776e-06
-8.49023e-07
-1.24199e-06
1.04512e-07
-1.51724e-06
1.24232e-05
-6.55977e-08
9.30588e-07
2.86063e-07
-1.39113e-06
-1.24458e-06
-1.18606e-06
-3.96951e-06
9.39748e-07
-1.15651e-06
2.50793e-06
-4.51401e-06
-7.50077e-07
-2.66461e-08
5.26517e-06
7.94624e-07
2.20321e-07
-6.5927e-07
-1.59334e-06
-1.28567e-06
3.47587e-07
9.20031e-09
-2.64246e-07
-3.24115e-07
-1.25345e-06
6.24496e-07
2.74024e-08
5.85794e-07
-5.11161e-06
-6.23765e-07
-1.60089e-06
7.33272e-06
-1.40992e-05
-4.86601e-06
3.37795e-07
1.85793e-05
4.05835e-06
1.8005e-06
-2.51038e-05
-3.70376e-07
-6.73059e-06
2.63459e-05
4.71337e-06
-3.19856e-05
7.80901e-07
2.45232e-06
1.98965e-06
2.20493e-05
-2.78866e-05
3.17213e-06
5.12958e-06
3.18287e-06
2.2468e-05
-6.066e-06
4.57775e-06
8.66194e-06
-4.81094e-05
-5.01243e-06
-3.68027e-06
4.35624e-05
1.92672e-05
1.08022e-07
0.000290156
4.3955e-06
7.24937e-07
7.14359e-06
6.59905e-06
2.48494e-06
1.34015e-06
6.40448e-06
5.23773e-06
2.23564e-05
6.08501e-06
0.000289568
-5.42526e-06
-5.70567e-06
-2.54339e-06
-2.16752e-06
3.39585e-06
1.48493e-05
0.000160354
-5.95336e-06
-6.42618e-06
-4.90853e-06
-3.98175e-06
3.77543e-06
4.87695e-06
5.82715e-06
-1.34196e-06
-1.78033e-06
2.95246e-06
3.55823e-06
-3.87145e-06
-2.17433e-06
-2.03198e-07
6.24894e-06
4.9981e-06
-3.34617e-05
1.21073e-06
-4.13485e-06
-8.252e-07
3.22129e-05
2.08909e-05
8.98211e-06
0.000192874
-4.12119e-06
-4.08081e-06
1.68935e-06
1.4445e-06
1.91936e-05
5.88792e-06
0.000153151
3.00301e-06
4.81645e-06
8.25633e-05
4.51769e-06
5.11659e-06
8.63317e-06
6.46678e-06
9.89927e-06
8.7085e-06
-5.05338e-06
-2.12787e-06
-6.94917e-08
4.40407e-06
5.84968e-06
-5.79246e-06
9.83067e-07
-4.02919e-06
-2.63954e-07
7.84078e-06
1.26175e-06
3.16735e-06
7.19283e-07
1.4695e-05
1.79141e-06
3.00607e-07
1.61917e-06
7.79192e-07
8.44488e-07
6.18107e-07
8.88613e-07
1.24427e-06
6.24701e-07
1.75214e-05
8.7427e-07
1.10421e-06
-7.09705e-07
3.25529e-07
4.06163e-07
8.76357e-08
-4.40693e-07
-6.77336e-09
1.18606e-06
5.32213e-06
-7.42598e-06
-4.62828e-06
3.01979e-06
8.99918e-06
2.29265e-06
2.56765e-07
-2.1972e-07
-1.79483e-06
1.65562e-06
-9.22175e-08
4.6688e-07
-7.23257e-08
-1.33325e-06
3.37028e-08
1.13331e-06
-5.3072e-07
-6.36527e-07
-9.87186e-06
2.05931e-07
-2.74078e-06
1.24119e-05
-2.24292e-05
-4.64376e-06
1.61367e-06
2.54593e-05
5.86349e-06
3.55094e-06
-2.97478e-05
-1.89416e-06
-9.80335e-06
3.20309e-05
5.27336e-06
-1.77963e-05
-9.50626e-07
1.73151e-06
-6.79676e-06
1.85388e-05
-1.93636e-05
2.30148e-06
1.32169e-06
-1.49688e-06
1.94238e-05
-2.18649e-06
9.92707e-07
6.08931e-06
-4.42778e-05
-6.67321e-06
-1.06877e-06
4.49377e-05
8.19556e-06
7.3005e-06
0.000233659
4.72067e-06
4.05973e-06
5.95482e-06
3.30845e-06
5.59949e-06
4.9506e-06
5.9983e-06
6.40877e-06
2.55447e-05
2.40855e-05
0.000246873
-2.24546e-07
-1.62448e-06
1.47869e-06
1.63028e-06
7.21067e-06
2.22581e-05
0.000139694
-3.94605e-06
-1.32779e-06
-3.52031e-07
-4.2751e-07
7.13607e-06
7.19464e-06
8.4588e-06
-7.32441e-06
-2.413e-06
4.08659e-06
2.41804e-06
1.04434e-05
-4.35513e-07
-2.14112e-09
2.25171e-09
4.34339e-07
-7.25296e-06
-2.12552e-06
9.10715e-07
8.46646e-06
3.55756e-06
-3.53395e-05
-4.22231e-07
-4.75024e-06
4.09405e-07
3.6545e-05
7.96384e-06
1.12339e-05
0.000170412
2.21285e-06
1.98428e-06
3.15769e-06
3.21025e-06
1.62915e-05
2.0508e-05
0.0001484
4.56759e-06
7.27899e-06
7.33502e-05
6.74231e-06
4.95906e-06
5.09685e-06
7.10557e-06
6.61628e-06
5.39609e-06
-9.20651e-06
-3.25875e-06
3.1459e-06
6.62369e-06
7.26325e-06
-1.34172e-08
-1.98727e-07
-2.62744e-09
1.16255e-09
2.10495e-07
-8.9093e-06
1.15614e-06
-1.84775e-06
-1.87898e-06
1.07446e-05
7.35326e-07
-4.75485e-06
6.07701e-07
1.99392e-05
2.66323e-06
1.69237e-06
2.61912e-06
1.79437e-06
7.37412e-07
3.56024e-07
2.74283e-07
-3.51184e-07
1.14601e-06
3.58585e-05
-2.6711e-06
-3.08468e-07
-3.5641e-06
1.04047e-06
1.19386e-06
9.30506e-07
-1.11711e-05
-4.77354e-07
5.56036e-06
1.30159e-05
-1.30035e-05
-4.45012e-06
1.80162e-06
1.56523e-05
1.52658e-06
7.48697e-07
-4.67308e-07
-1.21039e-06
1.18178e-06
-6.20916e-08
4.65312e-07
-3.4265e-07
-9.63371e-08
-3.59583e-07
-2.80327e-06
1.78264e-07
2.98838e-06
-1.39353e-05
-4.03061e-07
6.01876e-07
1.37406e-05
-2.7421e-05
-2.54135e-06
1.54618e-06
2.84162e-05
3.47845e-06
1.06098e-06
-3.38001e-05
1.39217e-08
-5.68201e-06
3.49288e-05
1.91723e-06
-1.9228e-05
-9.83064e-07
1.47714e-06
-2.68439e-06
1.9501e-05
-2.00996e-05
4.16562e-07
1.19079e-06
-1.70357e-06
2.16155e-05
-1.41967e-06
3.15696e-07
3.11931e-06
-4.50453e-05
-3.40338e-06
-7.41316e-07
4.57549e-05
1.40256e-06
-7.80892e-06
0.000216829
6.07063e-06
3.23108e-06
3.51267e-06
2.50748e-06
3.54472e-06
2.78149e-06
8.6972e-07
7.18403e-07
1.65316e-05
1.37747e-05
0.000208083
2.0484e-06
2.14564e-06
2.74341e-06
2.94928e-06
6.28406e-06
1.18036e-05
0.000119051
2.46797e-07
1.03008e-06
9.92318e-07
4.97443e-07
7.0669e-06
3.84003e-06
5.41297e-06
-1.34625e-05
1.42124e-06
5.40253e-06
1.16733e-06
1.17555e-05
-2.09297e-06
1.66024e-06
-7.83352e-07
-1.35383e-06
-1.03242e-06
3.60233e-06
-9.36694e-06
-2.89044e-06
2.03592e-06
1.02214e-05
2.22086e-06
-3.71147e-05
-7.61302e-07
-3.33772e-06
1.53927e-06
3.74536e-05
5.96619e-06
-1.79249e-05
0.000166337
1.82668e-06
1.55118e-06
2.21749e-06
2.62901e-06
1.3616e-05
1.58401e-05
0.000138685
3.65576e-06
5.50442e-06
6.36494e-05
5.17072e-06
2.22961e-06
3.88543e-06
5.2952e-06
4.91849e-06
4.46071e-06
-9.33857e-06
-1.66771e-06
1.48976e-06
3.26148e-06
9.9108e-06
-3.65463e-07
1.38761e-06
9.48799e-07
-1.69364e-06
-1.48734e-06
1.21003e-06
-1.48147e-05
-1.12893e-06
-3.3489e-06
-2.4227e-07
2.11887e-05
-1.65385e-06
-9.69671e-06
-2.01933e-06
7.2807e-06
3.25155e-06
3.42883e-06
4.37221e-06
3.39175e-06
-2.4378e-06
-2.4026e-06
-3.15422e-06
-2.6826e-07
2.09924e-06
3.87006e-05
-3.10684e-06
5.76347e-07
-2.62837e-06
1.87168e-06
2.58452e-06
2.17303e-06
-1.44286e-05
1.83904e-08
4.59432e-06
1.50521e-05
-1.44807e-05
-8.33082e-06
4.93493e-07
3.84463e-06
1.84734e-05
-7.55735e-07
-7.56712e-07
-2.01783e-07
1.71423e-06
8.07678e-07
2.25756e-06
-3.05836e-06
-2.02791e-06
-1.39038e-06
2.63911e-06
-3.39236e-06
1.32393e-06
2.91893e-06
-4.85088e-06
-4.13682e-06
3.04103e-06
5.94645e-06
-1.36679e-05
-1.12718e-06
9.27991e-07
1.38671e-05
-2.89247e-05
-2.07721e-06
1.78906e-06
2.92128e-05
2.27048e-06
-3.69573e-07
-3.5422e-05
1.38387e-06
-3.68648e-06
3.58237e-05
-4.94405e-08
-1.98972e-05
-1.46618e-06
1.63817e-06
-1.05721e-06
2.08319e-05
-2.34787e-05
-8.96852e-09
3.55918e-07
-1.55455e-06
2.56418e-05
-9.55462e-07
1.36332e-08
1.39236e-06
-4.55697e-05
-1.11377e-06
-3.77493e-07
4.56549e-05
6.10965e-06
-1.3171e-05
0.000215386
3.44082e-06
1.32925e-06
3.11189e-06
2.32799e-06
2.84816e-07
-8.92012e-07
-2.91123e-07
-8.06799e-07
3.12581e-06
3.88024e-06
0.000203436
9.21065e-07
9.82421e-07
8.21818e-07
1.02553e-06
9.96441e-07
2.61864e-06
0.000117387
2.84346e-07
-1.49581e-07
4.85554e-07
-1.09153e-06
2.33986e-06
-1.04025e-06
3.46635e-07
-1.41253e-05
-1.17429e-06
8.85928e-07
2.54918e-07
1.51552e-05
-5.21437e-06
1.26227e-06
-3.36907e-07
4.00279e-07
-1.77565e-06
5.66438e-06
-1.08609e-05
-2.30688e-06
1.96062e-06
1.12072e-05
1.08847e-06
-3.73001e-05
-6.8656e-07
-2.208e-06
2.02439e-06
3.70818e-05
2.74278e-06
-1.15606e-05
0.000154877
1.23022e-06
1.29349e-06
2.15375e-06
2.42894e-06
1.02131e-05
1.23971e-05
0.000122698
1.5167e-06
2.30367e-06
5.94432e-05
3.44195e-06
4.66171e-07
1.81338e-06
2.66534e-06
2.35845e-06
2.47231e-06
-1.07718e-05
1.79824e-07
-3.56586e-08
1.11457e-06
1.10297e-05
-2.36005e-06
2.68505e-06
1.1732e-06
-1.5555e-06
-4.63176e-06
4.68906e-06
-2.76021e-05
-2.68272e-06
-2.82614e-06
4.25726e-06
3.23947e-05
-3.54104e-06
-1.27569e-05
-1.50342e-06
9.79381e-06
3.10655e-06
1.1834e-06
3.34468e-06
-8.48736e-07
-2.56546e-06
-8.92471e-07
-3.14135e-06
-5.14565e-07
2.36266e-06
3.61223e-05
-3.41949e-06
-3.23301e-07
-3.20508e-06
2.41521e-06
2.2384e-06
2.66462e-06
-1.66067e-05
1.90567e-07
2.59897e-06
1.56062e-05
-1.99288e-05
-1.99917e-06
1.3598e-06
8.66715e-07
1.97012e-05
-2.28043e-06
1.83258e-06
-2.52502e-06
1.37537e-06
1.5975e-06
2.93091e-06
1.73056e-06
-3.55066e-06
-2.61419e-06
-2.9736e-06
3.76208e-06
-3.89882e-06
2.65341e-06
2.8196e-06
-7.20044e-06
-3.3773e-06
2.45012e-06
8.12692e-06
-1.41282e-05
-1.38767e-06
1.13653e-06
1.43793e-05
-2.93662e-05
-2.0237e-06
1.9376e-06
2.94523e-05
2.17848e-06
-8.23563e-07
-3.60706e-05
1.66221e-06
-3.41309e-06
3.64666e-05
-9.0002e-08
-2.1224e-05
-1.75347e-06
1.5723e-06
-5.4693e-07
2.20421e-05
-2.73292e-05
-3.18888e-09
5.18607e-07
-1.34311e-06
2.89736e-05
-8.16633e-07
-6.80629e-07
1.02809e-06
-4.56008e-05
-3.57358e-07
1.95565e-07
4.54152e-05
6.20791e-06
-1.32235e-05
0.00021273
3.75758e-06
2.14487e-06
4.09588e-06
3.15744e-06
-6.31839e-07
-1.61605e-06
-4.98672e-07
-7.38225e-07
2.7907e-06
-3.26606e-06
0.000207506
1.34152e-07
2.30366e-07
1.02071e-06
1.2281e-06
-1.06398e-06
1.76004e-06
0.000126106
1.31011e-07
-7.72314e-07
7.35454e-07
-1.65799e-06
-6.28295e-07
-3.08818e-06
-1.34416e-06
-2.11071e-05
1.2142e-06
-2.04454e-07
-8.49657e-07
1.9883e-05
-5.25579e-06
-7.68078e-07
2.69855e-06
4.64422e-07
2.8609e-06
-1.13976e-05
-1.6374e-06
1.53859e-06
1.14964e-05
5.02267e-07
-3.71385e-05
-6.07846e-07
-1.91765e-06
2.16213e-06
3.69996e-05
-8.75917e-06
-3.38957e-06
0.000145478
1.67645e-06
1.84361e-06
2.34925e-06
2.45505e-06
1.35725e-06
3.21465e-06
0.000106101
-1.37524e-06
8.61e-07
6.63753e-05
-3.0598e-07
-2.11971e-06
-3.73373e-06
1.56144e-06
6.35972e-07
6.61475e-07
-1.24845e-05
2.43575e-06
-3.54846e-06
-1.768e-06
1.399e-05
-5.55845e-06
-2.05894e-06
2.0787e-06
1.46649e-07
1.52154e-06
3.8705e-06
-3.5812e-05
-3.97629e-06
-6.37133e-07
6.89333e-06
3.82289e-05
-4.69678e-06
-9.48194e-06
8.94031e-07
2.00523e-05
1.49291e-06
-2.62245e-06
1.30079e-06
-3.24732e-06
-1.53663e-06
1.531e-06
-1.97843e-06
-1.59327e-06
1.64853e-06
3.45151e-05
-3.85417e-06
-2.07608e-06
-3.76113e-06
1.89228e-06
1.28373e-06
1.79999e-06
-1.62519e-05
-1.64773e-06
9.84706e-07
1.61827e-05
-1.72028e-05
-3.51673e-06
3.44178e-06
1.72779e-05
1.23641e-06
-1.19042e-06
-7.8187e-07
1.62917e-06
-3.28342e-06
3.13209e-06
-4.36122e-06
2.10969e-06
4.0514e-06
-8.41797e-06
-2.23563e-06
2.5318e-06
8.12043e-06
-1.46936e-05
-1.45967e-06
1.15416e-06
1.49991e-05
-2.96574e-05
-1.90981e-06
1.56324e-06
3.00039e-05
2.32949e-06
-7.2611e-07
-3.68893e-05
1.68207e-06
-3.41212e-06
3.70159e-05
1.61296e-07
-2.29804e-05
-1.72816e-06
1.45441e-06
-5.921e-07
2.3685e-05
-3.06613e-05
-1.03048e-07
7.04353e-07
-1.09044e-06
3.18961e-05
-7.45663e-07
-6.25791e-07
1.15009e-06
-4.50552e-05
-3.23789e-07
4.99227e-07
4.43555e-05
4.49114e-06
-1.32252e-05
0.000213519
3.76174e-06
1.55395e-06
3.65927e-06
2.26318e-06
-7.73729e-07
-1.74328e-06
-2.49493e-07
-5.2661e-07
4.48286e-06
-6.08295e-06
0.000210483
5.32661e-08
3.75049e-07
1.03498e-06
1.65058e-06
-3.26064e-06
3.69771e-06
0.000139493
-3.49024e-07
-2.13675e-06
5.18834e-07
-1.88058e-06
-2.48002e-06
-1.70949e-06
-1.30424e-06
-2.15064e-05
-2.99895e-06
-4.03081e-07
2.16478e-05
-1.154e-05
-1.18061e-06
1.11007e-06
1.16105e-05
-2.07986e-08
-3.65331e-05
-7.08211e-07
-8.90727e-07
2.42751e-06
3.57253e-05
-1.23307e-05
-1.36077e-06
0.000138855
1.14078e-06
8.73788e-07
2.53156e-06
2.54356e-06
-4.45194e-06
-1.11627e-06
9.32552e-05
-3.27313e-06
9.19896e-08
7.57428e-05
-4.16412e-06
-2.13716e-06
-3.28189e-06
7.7217e-07
8.54229e-07
1.0162e-06
-2.09654e-05
4.75629e-07
-5.92508e-06
1.81121e-06
2.13305e-05
-3.95688e-05
-3.719e-06
2.56848e-07
7.9926e-06
4.02454e-05
-5.20705e-06
-2.5222e-06
1.81578e-06
2.71833e-05
-3.84272e-07
-4.19596e-06
2.53188e-07
-4.1818e-06
-9.89446e-07
2.14976e-06
-4.36808e-07
-2.72749e-06
2.73958e-07
3.99968e-05
-3.22801e-06
-2.41474e-06
-3.06041e-06
1.22144e-06
-3.18858e-07
1.13397e-06
-1.65619e-05
-2.52691e-06
4.10458e-07
1.60428e-05
-1.56036e-05
2.50657e-07
3.6761e-06
1.16777e-05
-4.18046e-06
-3.63267e-06
3.01046e-06
6.61844e-06
-5.69884e-06
7.96523e-07
-2.97507e-06
1.1851e-06
6.96625e-06
-7.92392e-06
-1.66768e-06
1.81108e-06
7.78227e-06
-1.52021e-05
-1.31919e-06
1.20623e-06
1.53151e-05
-3.04346e-05
-1.57866e-06
1.19666e-06
3.08166e-05
2.40218e-06
-1.17954e-06
-3.67747e-05
2.56355e-06
-2.9015e-06
3.58901e-05
-5.64992e-08
-2.444e-05
-2.12121e-06
1.63506e-06
-1.71599e-07
2.51542e-05
-3.28902e-05
-1.45901e-07
1.11474e-06
-7.09073e-07
3.35245e-05
-8.94055e-07
-5.98201e-08
1.52232e-06
-4.36908e-05
-8.88027e-07
2.1752e-07
4.28988e-05
5.379e-06
-1.22827e-05
0.000214077
3.07387e-06
1.08034e-06
2.76212e-06
2.02973e-06
-3.11573e-07
-1.3924e-06
-2.38778e-07
-6.56651e-07
9.60527e-06
-7.79786e-06
0.000210507
-3.24027e-08
5.94302e-07
1.09546e-06
1.89025e-06
-6.07493e-07
3.99641e-06
0.000147679
-4.17616e-07
-2.00568e-06
3.59514e-07
-1.95468e-06
9.24961e-07
-3.94228e-07
1.51851e-06
-2.16152e-05
-2.42598e-06
1.56567e-06
2.1868e-05
-1.1762e-05
-8.6918e-07
6.89086e-07
1.19421e-05
1.27915e-07
-3.54256e-05
-3.98208e-07
-1.33155e-06
1.71647e-06
3.53109e-05
-1.01736e-05
-1.71323e-06
0.000133711
1.21779e-06
1.10277e-06
1.42383e-06
1.00336e-06
-5.82409e-06
-5.0427e-06
8.61505e-05
-7.97054e-07
3.52549e-07
7.65629e-05
-2.58993e-06
-2.84939e-07
-2.13089e-06
1.01424e-06
9.3729e-07
8.50917e-07
-2.03519e-05
-3.49979e-07
-1.48323e-06
8.95975e-07
2.04921e-05
-4.07025e-05
-3.0514e-06
5.36108e-07
7.15069e-06
4.07237e-05
-4.65659e-06
2.59593e-06
2.02454e-06
3.32885e-05
-1.56827e-06
-4.64966e-06
-2.74538e-06
-4.52722e-06
-2.96773e-07
1.8751e-06
-5.26735e-07
-2.34758e-06
-9.74593e-07
4.77423e-05
-2.5122e-06
-1.70593e-06
-2.30091e-06
5.00917e-07
-1.22753e-06
3.75532e-07
-1.63802e-05
-2.09512e-06
4.72263e-07
1.6008e-05
-9.30702e-06
-1.86582e-08
1.94373e-06
7.38178e-06
-8.5881e-06
-5.04679e-06
5.44772e-06
1.02117e-05
-8.88355e-06
-1.5404e-06
-9.47096e-07
-8.22123e-09
1.04047e-05
-7.47356e-06
-1.07845e-06
1.1249e-06
7.4266e-06
-1.53623e-05
-9.72613e-07
9.44521e-07
1.53904e-05
-3.12173e-05
-1.43784e-06
1.02241e-06
3.16327e-05
2.18542e-06
-1.21877e-06
-3.44796e-05
2.70084e-06
-1.9608e-06
3.27729e-05
-2.80219e-07
-2.59831e-05
-2.11722e-06
1.72768e-06
2.31009e-08
2.66298e-05
-3.40656e-05
-3.8974e-07
1.30372e-06
-2.82956e-07
3.45177e-05
-1.08315e-06
2.59744e-07
1.56272e-06
-4.19691e-05
-7.62032e-07
1.5286e-09
4.09072e-05
7.46202e-06
-1.29985e-05
0.000215593
2.3703e-06
1.21662e-06
2.20006e-06
2.33654e-06
-5.54889e-07
-1.99264e-06
-2.32604e-07
-1.32372e-06
1.26137e-05
-1.03036e-05
0.000211002
2.1717e-07
8.80769e-07
1.40085e-06
2.15812e-06
7.15426e-08
4.02354e-06
0.000155504
-3.16287e-07
-1.76559e-06
4.75489e-07
-1.69971e-06
1.84212e-06
2.07471e-07
1.95014e-06
-2.20424e-05
-2.82648e-06
2.55875e-06
2.23817e-05
-1.21354e-05
-7.992e-07
5.85279e-07
1.23493e-05
2.43624e-07
-3.51178e-05
-2.9499e-07
-2.14603e-07
9.45472e-07
3.44383e-05
-5.22439e-06
-3.82914e-06
0.000134694
-1.14741e-06
-1.58812e-06
-9.52595e-07
-1.23944e-06
-5.55577e-06
-8.27775e-06
8.44561e-05
-3.42399e-07
4.08473e-07
7.60645e-05
-1.72521e-06
-1.59435e-07
-1.57539e-06
7.71543e-07
9.03665e-07
6.84932e-07
-2.14941e-05
-1.2934e-06
-1.51359e-06
1.31465e-06
2.26441e-05
-4.02081e-05
-2.37299e-06
1.31755e-06
5.10601e-06
3.93259e-05
-3.16839e-06
4.43211e-06
1.35064e-06
4.02168e-05
-3.74268e-06
-4.34045e-06
-3.25463e-06
-4.20663e-06
-7.45421e-07
7.77513e-07
-1.0279e-06
-1.73594e-06
-1.38351e-06
5.27043e-05
-1.74946e-06
-1.16686e-06
-1.59828e-06
1.6072e-07
-1.39239e-06
5.80491e-08
-1.62694e-05
-1.31911e-06
5.76678e-07
1.56843e-05
-6.04518e-06
2.82355e-07
6.42991e-07
5.11983e-06
-1.15687e-05
-5.52316e-06
5.94777e-06
1.24947e-05
-1.21233e-05
-2.25986e-06
-2.41908e-07
-4.46727e-07
1.36883e-05
-7.402e-06
-8.46297e-07
9.47683e-07
7.30097e-06
-1.54467e-05
-5.95916e-07
5.57515e-07
1.54851e-05
-3.19109e-05
-9.95935e-07
9.30261e-07
3.19766e-05
1.81205e-06
-5.79808e-07
-3.08814e-05
1.95924e-06
-1.27364e-06
2.89635e-05
-8.59919e-08
-2.72628e-05
-2.19568e-06
2.03779e-06
-1.30191e-07
2.76369e-05
-3.50977e-05
-4.90703e-07
1.36675e-06
-6.50778e-08
3.56931e-05
-1.4064e-06
3.44975e-07
1.17508e-06
-3.99478e-05
-6.70689e-07
-1.16373e-07
3.92148e-05
8.96295e-06
-1.23046e-05
0.000214128
1.81816e-06
1.43397e-06
1.86657e-06
2.57629e-06
-3.37237e-07
-1.62759e-06
-8.46645e-07
-7.67019e-08
1.33203e-05
-1.04756e-05
0.000212217
3.33215e-07
9.16804e-07
1.53745e-06
2.11534e-06
5.55364e-07
4.27759e-06
0.000161956
-3.00239e-07
-1.54036e-06
3.97471e-07
-1.53778e-06
2.06947e-06
7.25097e-07
2.2215e-06
-2.26726e-05
-2.84304e-06
3.05398e-06
2.3017e-05
-1.25426e-05
-9.43139e-07
8.24093e-07
1.26617e-05
-1.20568e-07
-3.38447e-05
-8.52902e-07
5.61958e-07
1.121e-06
3.31352e-05
3.79685e-06
-3.51554e-06
0.000131697
-2.68842e-06
-2.81206e-06
-1.93547e-06
-2.15272e-06
-2.16595e-06
-8.36483e-06
8.83081e-05
-1.38737e-07
4.04068e-07
7.77989e-05
-1.15297e-06
-3.90897e-08
-1.07176e-06
6.99969e-07
9.3497e-07
7.40791e-07
-2.39165e-05
-2.18829e-06
-1.6809e-06
2.50643e-06
2.51405e-05
-3.84544e-05
-2.08036e-06
1.1483e-06
3.77026e-06
3.77276e-05
-2.1114e-06
5.16712e-06
3.08547e-07
4.55472e-05
-2.82111e-06
-3.64328e-06
-2.14002e-06
-3.34229e-06
-1.01445e-06
-1.87758e-07
-1.17268e-06
-1.39726e-06
-1.05651e-06
5.60688e-05
-1.26214e-06
-9.08514e-07
-1.24661e-06
1.4478e-07
-9.19393e-07
8.34909e-08
-1.58794e-05
-9.93733e-07
6.41639e-07
1.52383e-05
-4.53702e-06
-3.58822e-07
4.75901e-07
4.41994e-06
-1.28763e-05
-4.36797e-06
4.6438e-06
1.2909e-05
-1.51481e-05
-1.71192e-06
-4.62534e-07
-1.31708e-07
1.63977e-05
-7.24248e-06
-9.57647e-07
9.55468e-07
7.24466e-06
-1.5458e-05
-4.62044e-07
5.2622e-07
1.53938e-05
-3.18917e-05
-9.1627e-07
1.13943e-06
3.16685e-05
9.5011e-07
-5.10455e-07
-2.70718e-05
1.79755e-06
-4.36172e-07
2.52707e-05
-1.56284e-07
-2.81547e-05
-2.77722e-06
2.71285e-06
-2.72219e-07
2.86476e-05
-3.64391e-05
-4.76408e-07
1.3921e-06
1.41813e-07
3.72264e-05
-1.84487e-06
1.40666e-07
1.00671e-06
-3.81723e-05
1.08833e-07
3.5038e-07
3.65657e-05
1.16899e-05
-8.25041e-06
0.000204877
1.7453e-06
1.62911e-06
2.21841e-06
2.91875e-06
-1.74186e-06
-4.44034e-07
-1.02445e-06
5.10555e-07
1.32453e-05
-7.61696e-06
0.000214056
3.28513e-07
7.02036e-07
1.51448e-06
1.67747e-06
8.90171e-07
4.52291e-06
0.000168134
-6.23575e-07
-1.53232e-06
-5.91517e-08
-1.53957e-06
2.11537e-06
1.0407e-06
2.25243e-06
-2.33715e-05
-2.63077e-06
3.21117e-06
2.36813e-05
-1.264e-05
-1.1921e-06
1.32279e-06
1.25094e-05
-1.30276e-06
-3.2585e-05
-2.25413e-06
1.62284e-06
2.16935e-06
3.23497e-05
1.34237e-05
1.41861e-06
0.000119722
-2.92642e-06
-3.23312e-06
-2.36618e-06
-2.59192e-06
5.23196e-06
-5.1408e-06
9.40237e-05
1.07904e-07
4.57821e-07
8.46997e-05
-5.40247e-07
2.11231e-07
-5.15575e-07
9.53597e-07
1.049e-06
1.13028e-06
-2.61449e-05
-2.6934e-06
-1.84926e-06
3.72932e-06
2.70662e-05
-3.72974e-05
-2.12018e-06
1.39154e-06
2.75828e-06
3.69334e-05
-1.66564e-06
5.05776e-06
-8.70435e-08
5.11117e-05
-1.93339e-06
-2.46255e-06
-1.56025e-06
-1.94635e-06
-6.00857e-07
-2.44656e-07
-3.68575e-07
-1.18428e-06
-5.06162e-07
6.00844e-05
-1.01994e-06
-6.36733e-07
-1.01212e-06
3.35121e-07
-3.85728e-07
3.11176e-07
-1.54455e-05
-1.00824e-06
7.81993e-07
1.49453e-05
-4.6117e-06
-1.72304e-06
1.15607e-06
5.17866e-06
-1.25131e-05
-2.56505e-06
2.52823e-06
1.24629e-05
-1.74335e-05
-6.14014e-07
-1.00188e-06
2.13329e-07
1.83299e-05
-7.29491e-06
-1.22882e-06
1.11331e-06
7.41042e-06
-1.53547e-05
-6.5495e-07
7.28428e-07
1.52812e-05
-3.12472e-05
-7.59594e-07
1.44863e-06
3.05582e-05
5.13932e-07
-6.22061e-07
-2.39681e-05
1.82494e-06
-1.329e-06
2.35803e-05
-6.22721e-07
-2.92595e-05
-3.22349e-06
3.51791e-06
-1.7858e-07
2.97664e-05
-3.81664e-05
-5.87547e-07
1.54134e-06
4.51237e-07
3.91687e-05
-2.40734e-06
-1.60473e-06
1.3769e-06
-3.48539e-05
-1.1835e-06
2.34493e-06
3.39203e-05
1.48592e-05
-2.69132e-06
0.000178544
2.91429e-06
2.39865e-06
4.49386e-06
4.55458e-06
-2.35394e-09
-4.88771e-07
8.46436e-07
-5.52068e-07
1.4488e-05
-4.22612e-06
0.00021515
3.7626e-07
1.51285e-07
1.91329e-06
1.06315e-06
1.26926e-06
4.72263e-06
0.000175024
-1.12831e-06
-1.45197e-06
-3.93606e-07
-1.39551e-06
2.15863e-06
1.43569e-06
2.38134e-06
-2.40753e-05
-2.33414e-06
3.07094e-06
2.46078e-05
-1.23883e-05
-1.4439e-06
1.51963e-06
1.23126e-05
-1.77408e-06
-3.26791e-05
-2.75946e-06
2.56168e-06
1.43472e-06
3.32162e-05
1.72047e-05
9.16692e-06
0.000102317
-3.0544e-06
-3.03567e-06
-2.919e-06
-2.64915e-06
1.0458e-05
-2.07971e-06
9.8624e-05
3.6888e-07
6.27709e-07
9.4039e-05
-6.39918e-08
5.61906e-07
-6.60464e-10
1.45204e-06
1.28987e-06
1.60564e-06
-2.7838e-05
-2.70087e-06
-1.89731e-06
4.17638e-06
2.86286e-05
-3.65584e-05
-1.73379e-06
1.52983e-06
1.39171e-06
3.58003e-05
-4.29673e-07
4.63442e-06
3.14564e-08
5.89589e-05
-1.57392e-06
-1.0062e-06
-1.35399e-06
-7.22791e-07
3.61543e-07
1.6091e-07
7.8832e-07
-9.82941e-07
-1.98773e-07
6.49864e-05
-8.5656e-07
-3.59951e-07
-8.19511e-07
5.00452e-07
-1.03906e-07
4.73873e-07
-1.54192e-05
-1.22942e-06
1.01017e-06
1.52833e-05
-5.82124e-06
-2.68811e-06
1.95587e-06
6.55348e-06
-1.24138e-05
-1.27429e-06
7.10237e-07
1.30093e-05
-1.90318e-05
2.99125e-07
-1.41364e-06
3.77305e-07
1.95703e-05
-7.60387e-06
-1.57366e-06
1.37471e-06
7.80282e-06
-1.51566e-05
-9.90306e-07
1.03518e-06
1.51117e-05
-2.9788e-05
-1.83395e-06
2.33568e-06
2.92862e-05
1.73725e-06
7.68116e-07
-2.44051e-05
8.87059e-07
-4.47294e-06
2.54856e-05
-4.56881e-07
-3.07549e-05
-3.5911e-06
4.06103e-06
-1.23765e-06
3.19795e-05
-4.03799e-05
-7.50617e-07
1.7944e-06
5.11252e-07
4.15922e-05
-2.76734e-06
-2.23595e-06
1.33074e-06
-3.38408e-05
-1.63002e-06
2.1942e-06
3.41818e-05
1.62453e-05
1.31316e-06
0.000141999
5.01125e-06
4.58743e-06
5.58428e-06
6.25949e-06
1.11587e-06
-1.6849e-06
-1.50173e-08
-1.8717e-06
1.81044e-05
-2.44544e-06
0.00021232
9.55356e-07
-3.44862e-07
2.07335e-06
7.31855e-07
1.78347e-06
4.86896e-06
0.000182415
-1.04278e-06
-1.18332e-06
-3.47213e-08
-9.85968e-07
2.4634e-06
1.94913e-06
2.89576e-06
-2.52498e-05
-1.88142e-06
2.79719e-06
2.61175e-05
-1.22293e-05
-1.3863e-06
1.46999e-06
1.21456e-05
-2.43073e-06
-3.35741e-05
-2.1774e-06
4.10552e-06
8.18357e-07
3.32583e-05
1.7426e-05
1.22455e-05
8.7494e-05
-3.76343e-06
-3.3116e-06
-3.49059e-06
-2.96998e-06
1.16511e-05
-3.72101e-07
0.000102326
4.97583e-07
9.05899e-07
0.000102421
1.20453e-07
8.10632e-07
1.51401e-07
1.93605e-06
1.64016e-06
2.07535e-06
-2.94531e-05
-2.5879e-06
-1.77786e-06
4.16094e-06
3.01555e-05
-3.47959e-05
-9.65051e-07
1.45146e-06
6.69456e-08
3.3561e-05
6.81515e-07
4.33914e-06
2.18503e-07
6.7854e-05
-1.70557e-06
-3.14043e-07
-1.52912e-06
-3.58471e-07
1.01596e-06
4.33902e-07
1.25007e-06
-9.24659e-07
3.86839e-08
7.02053e-05
-7.80277e-07