/*--------------------------------*- C++ -*----------------------------------*\
| =========                 |                                                 |
| \\      /  F ield         | OpenFOAM: The Open Source CFD Toolbox           |
|  \\    /   O peration     | Version:  5.x                                   |
|   \\  /    A nd           | Web:      www.OpenFOAM.org                      |
|    \\/     M anipulation  |                                                 |
\*---------------------------------------------------------------------------*/
FoamFile
{
    version     2.0;
    format      ascii;
    class       volVectorField;
    location    "3";
    object      U;
}
// * * * * * * * * * * * * * * * * * * * * * * * * * * * * * * * * * * * * * //

dimensions      [0 1 -1 0 0 0 0];

internalField   nonuniform List<vector> 
10571
(
(-0.0724794 0.265792 1.4416)
(-0.00999035 0.203016 0.951065)
(0.172796 0.236095 1.61925)
(-0.405903 0.116852 1.5591)
(-0.351484 -0.108285 1.39196)
(-0.224722 0.520617 1.76905)
(0.313829 -0.567077 4.63774)
(-2.27531 0.652647 3.75233)
(-2.24881 -0.966096 3.19531)
(-1.37088 -1.48333 2.8204)
(0.399384 -0.0706523 1.23509)
(-0.252676 -0.804925 2.32978)
(0.0606103 -0.885433 1.92867)
(-0.863363 -1.70508 2.15294)
(-1.06669 -4.25781 4.16893)
(0.261302 -1.56265 1.75191)
(-0.275618 -0.797183 1.57997)
(-0.314138 -0.887972 1.85554)
(0.0633697 -1.01111 1.39837)
(0.356781 -1.02883 0.942589)
(0.574376 -0.859044 1.27412)
(-0.40402 -0.317009 1.49572)
(0.1633 -0.30491 1.32196)
(0.37042 -0.374917 0.944334)
(0.120394 0.125176 1.33403)
(0.0440301 0.0664544 0.171291)
(0.280962 0.48815 2.84798)
(-0.245012 0.0837936 3.19319)
(-0.792599 -0.479324 1.5173)
(1.25712 0.293679 3.05933)
(-0.814023 -0.0459542 4.13738)
(-1.05672 -0.37239 2.57433)
(-0.700628 -0.466119 1.3562)
(-0.505983 -0.539197 1.63518)
(0.0625347 0.119504 0.353485)
(1.47802 -0.607672 4.90027)
(-0.594536 -0.273494 1.97969)
(-0.740792 -0.353671 1.28873)
(-0.526199 -0.228137 1.10764)
(-0.266027 -0.101813 1.17005)
(0.169022 -0.608758 0.834533)
(-0.45355 -0.781263 1.48077)
(-0.322997 -0.490791 0.939134)
(-0.288014 -0.272777 0.823666)
(-0.0305763 0.00871422 0.877745)
(-0.372488 -0.460555 1.20005)
(-0.0758469 -0.357012 1.07204)
(0.0726794 -0.101803 0.87228)
(-0.0621541 -0.0294304 -0.183572)
(-0.0272165 0.0871896 0.0242734)
(-0.675945 0.181888 1.62141)
(0.121275 0.59235 2.56518)
(-0.106037 0.453207 1.46498)
(0.769297 -0.309177 2.35813)
(0.279247 0.471734 4.36339)
(-0.511587 0.176495 3.2187)
(-0.629093 -0.109728 1.91925)
(-0.274252 -0.491786 1.04334)
(0.0111537 0.0558487 -0.236476)
(0.923053 -0.744589 3.68354)
(0.308785 -0.711811 2.58698)
(-0.481333 -0.486459 1.85176)
(-0.457427 -0.270505 1.17962)
(-0.322472 -0.0365189 0.900797)
(0.111687 -0.133038 0.162548)
(-0.403882 -0.808797 1.15102)
(-0.290798 -0.47086 0.798932)
(-0.211021 -0.290975 0.647851)
(-0.0170584 0.0533613 0.916763)
(-0.206073 -0.17979 0.401686)
(-0.102325 -0.209265 0.507642)
(-0.0103488 -0.0654318 0.56186)
(0.00378319 -0.0787474 0.217259)
(-0.173828 0.104805 0.539073)
(-0.523136 -0.183786 1.28289)
(0.295612 0.421805 2.61045)
(0.366448 0.247109 1.43333)
(-0.217539 -0.900718 2.82112)
(0.320498 0.114419 3.45962)
(0.230919 0.239436 2.56931)
(-0.521783 0.434157 1.83616)
(-0.229924 0.00337952 0.718854)
(0.0404726 0.0382778 -0.0767603)
(-0.0541333 -0.450277 3.01595)
(0.541895 -0.494809 2.47076)
(0.368539 -0.748713 1.98765)
(-0.148738 -0.390388 1.92019)
(-0.22098 0.0681212 0.586172)
(-0.0543727 0.0734869 0.0372668)
(-0.0329277 -0.304201 0.441318)
(-0.0410906 -0.272136 0.4872)
(0.0722126 -0.162776 0.369757)
(-0.0172668 0.0946312 0.57376)
(-0.0751983 -0.0428579 -0.144674)
(-0.0337875 -0.0835982 0.038287)
(0.0226151 -0.0652679 0.209907)
(0.165355 -0.0311763 0.912059)
(-0.322975 0.120564 1.13568)
(-0.0238913 -0.454068 1.21447)
(-0.0199618 -0.115348 1.17863)
(0.545708 -0.0753638 1.05699)
(-0.412516 -0.412352 1.97401)
(0.0574796 -0.073934 3.5429)
(0.451996 0.227912 3.03992)
(0.234657 0.387667 1.80949)
(0.150468 0.214003 0.119632)
(-0.00697431 0.440553 0.867291)
(-0.525225 -0.0127085 1.60669)
(0.249634 0.072899 1.80491)
(0.404787 0.0136805 1.31395)
(0.339906 0.263366 0.802025)
(0.119953 0.261148 0.130626)
(-0.213554 -0.0392083 0.354188)
(0.0323895 0.190079 -0.0210874)
(0.0919313 0.135999 0.0530746)
(0.0943728 0.371175 0.0479537)
(-0.141513 0.445458 0.633957)
(-0.0472268 0.0394797 -0.228219)
(0.0458054 0.0211245 -0.157089)
(0.0906225 -0.0458157 -0.066232)
(0.0236769 -0.117067 1.4893)
(-0.357739 0.101178 1.8025)
(-0.23731 -0.668382 1.31895)
(0.147352 -0.529469 0.81834)
(0.191952 -0.348676 0.75855)
(-0.505791 -0.140963 2.01923)
(-0.120871 0.00426919 2.25691)
(0.370202 0.340423 2.75179)
(0.510996 0.347006 1.54946)
(0.39392 0.305649 0.504214)
(0.000747046 -0.000319738 0.000808975)
(-0.0119965 0.317541 1.10108)
(-0.519683 0.121064 1.61741)
(-0.046297 0.2188 1.92492)
(0.291567 0.428897 1.66475)
(0.301192 0.429532 0.885104)
(0.30963 0.31308 0.314538)
(-0.0022971 0.00198061 0.000424787)
(-0.0482757 -0.0869158 0.496153)
(-0.105332 0.201663 0.415324)
(-0.0844615 0.356093 0.430003)
(0.044885 0.620377 0.554247)
(0.035369 0.399328 1.02296)
(-0.0830537 -0.0299023 -0.0993953)
(0.031764 -0.0729706 -0.00644953)
(-0.0518648 0.10792 0.167497)
(0.132691 0.0437665 2.01576)
(-0.228658 0.0854516 2.06186)
(-0.0641342 -0.345677 1.62516)
(0.113565 -0.174988 1.03909)
(0.122705 -0.137689 0.965964)
(-0.177319 -0.0932589 1.99246)
(-0.0587478 -0.137356 2.48083)
(0.128299 0.105626 2.23733)
(0.398587 0.172829 1.44271)
(0.432768 0.0892647 0.644156)
(-0.042211 -0.0788328 0.0982931)
(0.0159061 0.42983 1.44187)
(-0.285367 0.161084 1.62465)
(-0.0482405 -0.077465 1.87017)
(0.264294 0.366098 1.62063)
(0.211603 0.285597 0.895537)
(0.307613 0.140725 0.48424)
(-0.0410418 -0.11508 0.0142972)
(-0.154969 0.149473 0.669634)
(-0.257179 -0.490487 0.0843913)
(-0.115861 0.211497 0.392648)
(0.0558302 0.452979 0.665748)
(0.108159 0.300416 1.1691)
(-0.0236409 0.0418501 0.122877)
(-0.197112 0.00225479 -0.0259444)
(-0.208243 0.0772131 0.109632)
(-0.309088 0.204792 0.499598)
(0.251405 0.0290013 1.99323)
(-0.20549 0.110575 2.13865)
(0.0872735 -0.171845 1.53526)
(0.133637 0.071573 0.86088)
(0.0520962 -0.0631703 0.921744)
(-0.087298 -0.0596011 1.99712)
(0.0515491 -0.1583 2.20356)
(0.123746 0.045786 2.24733)
(0.0123441 0.136597 1.38789)
(0.0932556 0.100592 0.783868)
(-0.0343769 -0.118045 0.257961)
(0.0139957 0.357748 1.59133)
(-0.175613 0.132082 1.64282)
(-0.089739 -0.256324 1.61806)
(0.198879 0.131734 1.38306)
(0.151155 -0.0123509 0.603744)
(0.0637653 0.0256386 0.519795)
(-0.0860278 -0.220802 0.127983)
(-0.10856 0.331283 1.18236)
(-0.102588 -0.153981 0.0388543)
(-0.3417 0.238474 0.39907)
(0.128975 0.245526 0.723154)
(0.00836719 0.214204 1.1546)
(0.293008 0.0272649 0.166331)
(-0.12734 -0.0664197 -0.14495)
(-0.284998 0.103483 0.104573)
(-0.23484 0.175073 0.740458)
(0.301351 0.0118954 2.02596)
(-0.20147 0.131881 2.14722)
(0.136675 -0.192257 1.59795)
(0.153683 0.0162993 0.973434)
(0.0635474 -0.0922128 1.12527)
(-0.0766829 0.0255556 2.01742)
(0.0794112 -0.243907 2.07035)
(0.12157 0.0170171 2.10127)
(0.0307825 0.121564 1.33096)
(-0.170444 0.0448456 0.873861)
(0.10943 -0.0043411 0.204646)
(0.0132846 0.23913 1.64421)
(-0.11975 0.101056 1.6438)
(-0.197702 -0.234074 1.49595)
(-0.0612231 -0.0999748 1.09267)
(0.109211 -0.0436032 0.655812)
(-0.226434 -0.214334 0.658132)
(-0.0969968 0.11863 0.152171)
(0.0922233 0.4523 1.47633)
(0.0972234 0.102171 0.189098)
(-0.426025 0.167555 0.361165)
(0.0485844 0.11995 0.699274)
(-0.167554 0.147176 1.27288)
(0.112756 0.0505818 -0.000904152)
(-0.291484 0.0697932 0.145527)
(-0.19317 0.134803 0.779517)
(0.293621 -0.000570145 2.12652)
(-0.196949 0.122204 2.18236)
(0.126191 -0.204251 1.62474)
(0.14832 -0.0489486 1.02606)
(0.0586302 -0.085754 1.2349)
(-0.0785554 0.0519238 1.97081)
(0.0612375 -0.269161 2.0961)
(0.124493 -0.0621648 2.04569)
(0.0918274 0.129986 1.37355)
(-0.232495 0.0850602 1.05586)
(0.0106826 0.154351 1.65712)
(-0.0399205 0.0818293 1.59086)
(-0.180004 -0.163747 1.41791)
(-0.202793 -0.127738 1.00753)
(0.0597122 0.0219929 0.800715)
(-0.320234 -0.00641256 0.778726)
(0.134726 0.476696 1.56433)
(0.296424 0.0983281 0.229725)
(-0.37382 0.0618974 0.375511)
(-0.0968384 0.0326097 0.695262)
(-0.14101 0.141091 1.12979)
(0.331624 0.141728 0.275635)
(-0.177244 -0.0196525 0.258038)
(-0.152337 0.103634 0.736838)
(0.245782 0.00871179 2.19175)
(-0.170197 0.0945757 2.23028)
(0.190717 -0.186694 1.60106)
(0.159846 -0.0334829 1.08752)
(0.0567081 -0.0430411 1.30046)
(-0.0956072 -0.00960352 1.89796)
(0.0804658 -0.298169 2.1477)
(0.135682 -0.117909 2.09904)
(0.192699 0.121238 1.52137)
(-0.136342 0.176226 1.10347)
(0.00648374 0.0932638 1.69203)
(-0.03872 0.0123328 1.55036)
(-0.092991 -0.0930068 1.34315)
(-0.225829 -0.133485 0.904287)
(0.0185521 0.0424445 0.820689)
(-0.0506817 0.0189527 0.805889)
(0.106386 0.43229 1.59359)
(0.365699 0.0143207 0.334915)
(-0.251923 -0.0641245 0.468564)
(-0.111472 0.0402038 0.709591)
(-0.100995 0.0206681 0.729232)
(0.452053 0.195071 0.482293)
(0.0115701 -0.0629935 0.385472)
(-0.103048 0.0612609 0.68257)
(0.170062 0.0142713 2.19865)
(-0.151685 0.0795153 2.28904)
(0.212803 -0.137365 1.47758)
(0.159533 -0.00508189 1.16045)
(0.0658847 0.0216435 1.34812)
(-0.0924438 -0.0622095 1.8225)
(0.116817 -0.31873 2.14818)
(0.161652 -0.17345 2.12276)
(0.248177 0.100038 1.62481)
(-0.114272 0.231583 1.1184)
(0.00170872 0.0687868 1.75363)
(-0.076457 -0.0214169 1.53627)
(0.00735793 -0.100995 1.33673)
(-0.170937 -0.16403 0.839759)
(-0.0288223 0.0622034 0.8047)
(-0.00532688 0.124247 0.858171)
(0.00269986 0.317761 1.55622)
(0.341059 -0.0501198 0.388288)
(-0.159936 -0.12356 0.532975)
(-0.085603 0.040405 0.692377)
(-0.0166381 -0.0386613 0.500159)
(0.476162 0.149969 0.6137)
(0.0767314 -0.0703884 0.514376)
(-0.0980571 0.0446615 0.672445)
(0.0971524 0.0121538 2.21369)
(-0.103166 0.0516589 2.33347)
(0.121031 -0.0942531 1.31261)
(0.177294 -0.0135494 1.20747)
(0.0819806 0.0498838 1.39035)
(-0.0560092 -0.102883 1.74292)
(0.134554 -0.300074 2.14969)
(0.184247 -0.182008 2.12352)
(0.262752 0.0923536 1.68335)
(-0.0739481 0.256085 1.15396)
(0.00451138 0.0849113 1.80688)
(-0.0512794 0.0290683 1.47846)
(0.174481 -0.1061 1.35504)
(-0.0328824 -0.166012 0.870142)
(-0.0404217 0.0752972 0.807694)
(0.0260444 0.226025 0.969869)
(0.0252737 0.203336 1.49097)
(0.287874 -0.0297321 0.446298)
(-0.0835953 -0.110186 0.574424)
(-0.0818458 0.0384459 0.673922)
(-0.0222378 -0.011307 0.401282)
(0.374024 0.0329194 0.64993)
(0.0429286 -0.0449997 0.622296)
(-0.101338 0.0497813 0.666552)
(0.0760552 0.0146048 2.20943)
(-0.0954047 0.0495749 2.31962)
(0.0969163 0.0148123 1.14388)
(0.237289 -0.0204806 1.24986)
(0.0977298 0.0496637 1.44151)
(-0.0603205 -0.0951992 1.65477)
(0.194794 -0.269675 2.12024)
(0.196588 -0.163079 2.13179)
(0.260999 0.0944893 1.7348)
(-0.0430657 0.253368 1.18993)
(0.0248972 0.124895 1.80187)
(0.0841334 0.200674 1.42606)
(0.283101 -0.0168052 1.30567)
(0.189389 -0.0844916 0.936028)
(-0.00489136 0.0814808 0.842261)
(0.0375989 0.287391 1.05174)
(0.116314 0.134658 1.45503)
(0.218249 0.0586168 0.50905)
(-0.0203196 -0.0775996 0.610787)
(-0.0844652 0.0415141 0.657755)
(-0.0642785 0.109089 0.445503)
(0.233053 -0.0459829 0.62895)
(-0.0132765 -0.00794422 0.707567)
(-0.1163 0.0630917 0.667055)
(0.0955268 0.0178188 2.19653)
(-0.0683519 0.0441244 2.25735)
(0.0807219 -0.00996329 1.03922)
(0.289009 0.0086305 1.29791)
(0.122112 0.0395563 1.51675)
(-0.0624212 0.080574 1.49489)
(0.240905 -0.286007 1.99172)
(0.237995 -0.138511 2.15676)
(0.272287 0.0784238 1.80445)
(-0.00826737 0.234752 1.22991)
(0.0289504 0.17976 1.76498)
(0.16089 0.202538 1.45127)
(0.267326 0.183257 1.12538)
(0.315737 0.00834156 0.969889)
(0.049251 0.103592 0.944675)
(0.0391447 0.296144 1.11345)
(0.141559 0.0692496 1.42196)
(0.145863 0.13332 0.578459)
(0.0297377 -0.0657934 0.659944)
(-0.0834091 0.0519171 0.662844)
(-0.0978132 0.204332 0.566041)
(0.111527 -0.0642568 0.640739)
(-0.0424443 0.0157323 0.761674)
(-0.140187 0.0829961 0.699227)
(0.13556 0.013943 2.1562)
(-0.133973 0.110678 2.14035)
(-0.0840467 -0.236922 1.0992)
(0.328031 -0.0548025 1.37652)
(0.141213 0.0342951 1.60328)
(-0.0635311 0.125595 1.48898)
(0.155338 -0.264726 1.58658)
(0.35252 -0.125028 2.15714)
(0.293821 0.0402887 1.88977)
(0.0364471 0.192058 1.30075)
(0.0299711 0.185549 1.74463)
(0.263864 0.141751 1.48437)
(0.214603 0.29599 0.923282)
(0.367042 0.0542121 1.01363)
(0.0488144 0.137611 1.04258)
(0.056885 0.286866 1.17613)
(0.0763732 -0.0580336 1.33954)
(0.0937599 0.136354 0.665634)
(0.0597805 -0.0519044 0.711978)
(-0.087453 0.0694802 0.704854)
(-0.117656 0.257302 0.694109)
(0.00118455 -0.0437863 0.729418)
(-0.0551132 0.0318414 0.80098)
(-0.150931 0.0934877 0.740274)
(0.228631 0.00488939 2.19808)
(-0.222815 0.171092 2.13273)
(-0.217 -0.320733 1.16526)
(0.301725 -0.0913569 1.46508)
(0.139057 0.0404319 1.70749)
(0.135077 0.0976202 1.50399)
(0.0454632 -0.183136 1.21925)
(0.422398 -0.0753881 2.11352)
(0.296529 0.0216092 1.95793)
(0.0777745 0.143256 1.39206)
(0.0233467 0.196139 1.7427)
(0.337636 0.210313 1.40053)
(0.177936 0.251098 0.82242)
(0.347659 0.075847 1.05888)
(0.0569868 0.173674 1.12287)
(0.0894823 0.273094 1.23782)
(0.0341593 -0.0827576 1.26515)
(0.0700256 0.0763239 0.755415)
(0.0659377 -0.00232498 0.768889)
(-0.0841705 0.084119 0.773789)
(-0.127897 0.284076 0.80343)
(-0.0800128 -0.0210203 0.856387)
(-0.077066 0.0485007 0.842041)
(-0.15206 0.101649 0.793914)
(0.271695 -0.0190987 2.28512)
(-0.196217 0.14286 2.15237)
(-0.174418 -0.302462 1.19189)
(0.0844545 -0.180143 1.43207)
(0.122682 0.065543 1.79083)
(0.424411 -0.0473687 1.42833)
(-0.0276607 -0.102359 1.00631)
(0.400651 0.00417402 2.015)
(0.26914 0.0191093 1.98186)
(0.118611 0.0940653 1.49434)
(0.0198367 0.219146 1.81453)
(0.321628 0.214018 1.18764)
(0.142449 0.165817 0.779719)
(0.294319 0.106825 1.08329)
(0.0803482 0.198349 1.17915)
(0.119307 0.267572 1.307)
(0.0179603 -0.0530141 1.25178)
(0.0404611 0.0164692 0.836119)
(0.0449983 0.050342 0.820219)
(-0.0680492 0.0990736 0.853241)
(-0.134257 0.295803 0.907268)
(-0.137672 -0.0125676 0.961405)
(-0.0997263 0.07263 0.888952)
(-0.146017 0.10228 0.869213)
(0.178522 -0.0359281 2.39723)
(-0.0509327 0.0450082 2.29067)
(-0.0601802 -0.149141 1.25681)
(-0.13322 -0.232225 1.35351)
(0.0857962 -0.000843881 1.84485)
(0.319478 -0.0873895 1.42538)
(-0.0548437 -0.00375465 0.837931)
(0.355704 -0.044232 1.90277)
(0.240343 0.00697227 1.96982)
(0.157248 0.0568307 1.58975)
(0.0262155 0.231448 1.74173)
(0.26108 0.242272 0.943978)
(0.134376 0.106684 0.777107)
(0.253052 0.158838 1.05956)
(0.0842825 0.197794 1.22635)
(0.135831 0.279683 1.38141)
(0.0174131 -0.055011 1.26226)
(0.0329355 -0.0273076 0.907234)
(0.0340174 0.0767138 0.858533)
(-0.0474994 0.0958571 0.930219)
(-0.134258 0.290387 1.01306)
(-0.173951 -0.00695055 1.03544)
(-0.11468 0.0917409 0.938729)
(-0.133322 0.0952315 0.957462)
(0.0498723 -0.0270767 2.4996)
(-0.0133375 0.099424 2.34585)
(0.0419492 0.0565287 1.41054)
(-0.1582 -0.216701 1.3397)
(0.0120057 -0.0930684 1.87616)
(0.0875622 0.136263 1.22537)
(-0.0619101 0.0920029 0.75399)
(0.263098 -0.189553 1.67026)
(0.245743 -0.0191639 1.91915)
(0.177524 0.0331874 1.65551)
(0.0105381 0.0420923 1.61479)
(0.198472 0.282695 0.821427)
(0.14183 0.0860144 0.798135)
(0.212402 0.194646 1.02031)
(0.0582397 0.160289 1.26364)
(0.131157 0.298568 1.45329)
(0.0395433 -0.0434811 1.33074)
(0.0570082 -0.0453205 0.957359)
(0.0290399 0.0795014 0.902624)
(-0.0307496 0.0673418 1.00037)
(-0.125536 0.268745 1.11894)
(-0.198909 0.0120195 1.09617)
(-0.125551 0.100121 0.985105)
(-0.115524 0.0858714 1.04387)
(0.0578644 -0.0145742 2.49398)
(0.0621463 0.121856 2.22571)
(0.207762 0.0872213 1.48721)
(-0.00177894 -0.0255074 1.49599)
(-0.049214 -0.178076 1.94961)
(-0.0364813 0.380747 0.909296)
(-0.100188 0.152217 0.760334)
(0.183385 -0.128231 1.46576)
(0.2589 -0.0466836 1.83297)
(0.200019 0.0128743 1.70743)
(0.0242087 0.0391653 1.32492)
(0.157743 0.29029 0.820598)
(0.124563 0.0775926 0.828715)
(0.150677 0.18236 0.998466)
(0.013155 0.0953111 1.29645)
(0.117234 0.308425 1.5183)
(0.0641445 -0.0409772 1.42982)
(0.0607177 -0.0345364 0.989528)
(-0.0111583 0.07044 0.955523)
(-0.0326703 0.0105541 1.0608)
(-0.116317 0.255922 1.22538)
(-0.214152 0.0169569 1.15132)
(-0.137793 0.0976793 1.02486)
(-0.104574 0.0702709 1.10524)
(0.114868 0.00200694 2.28305)
(0.0752794 0.0563584 1.65006)
(0.371574 -0.032818 1.41654)
(0.288498 0.225498 1.62921)
(-0.155545 -0.0909853 2.13443)
(-0.127683 0.359049 0.798732)
(-0.198121 0.149042 0.806069)
(0.0991975 0.0469865 1.32613)
(0.261424 -0.037339 1.77458)
(0.205698 -0.00774391 1.75246)
(0.0334563 0.181602 1.10637)
(0.101711 0.276048 0.893007)
(0.048312 0.0727473 0.882914)
(0.056167 0.171337 1.01619)
(-0.0287015 0.0537639 1.31414)
(0.10131 0.305712 1.56441)
(0.0632695 -0.0716579 1.54226)
(0.0199333 -0.00922944 1.02836)
(-0.0747016 0.0753586 0.993771)
(-0.0516228 -0.0363878 1.10019)
(-0.134468 0.255092 1.28465)
(-0.234122 0.0112202 1.20624)
(-0.159004 0.088395 1.05281)
(-0.099531 0.0543646 1.11048)
(0.130733 0.00819034 1.91404)
(-0.113902 0.0424734 1.27147)
(0.218833 0.041658 1.28275)
(0.323462 0.386552 1.59757)
(-0.0323327 0.0540356 2.27728)
(-0.240793 0.267207 0.822369)
(-0.336247 0.0706711 0.838735)
(-0.0409099 0.123302 1.23351)
(0.271085 0.00483085 1.75967)
(0.183019 -0.0230197 1.8091)
(0.0248675 0.31909 1.02665)
(0.0303132 0.279719 1.00455)
(-0.102165 0.106814 0.956655)
(-0.0782116 0.193591 1.03516)
(-0.0633287 0.067173 1.32189)
(0.0785432 0.28257 1.59059)
(0.0529421 -0.116372 1.65264)
(-0.0354276 0.027644 1.09957)
(-0.142626 0.123083 1.01544)
(-0.072226 -0.0242382 1.11344)
(-0.141437 0.236662 1.27411)
(-0.261912 0.00308913 1.26375)
(-0.192167 0.0865024 1.07201)
(-0.106299 0.0484546 1.07049)
(0.0921277 -0.0405961 1.8534)
(-0.13314 0.074341 1.1986)
(-0.15446 0.178056 1.09263)
(0.019491 0.484873 1.117)
(0.13829 0.286973 2.3718)
(-0.352763 0.185048 0.883379)
(-0.458986 -0.0386078 0.833152)
(-0.268599 0.0554971 1.12058)
(0.256874 0.0479231 1.77014)
(0.127117 -0.0198147 1.88319)
(0.0126184 0.433956 1.11205)
(-0.0348369 0.244643 1.17238)
(-0.219943 0.156398 1.01854)
(-0.220732 0.234608 1.00382)
(-0.131055 0.169374 1.29826)
(-0.0116357 0.178611 1.5699)
(0.061235 -0.147242 1.76088)
(-0.0698263 0.0698805 1.18139)
(-0.236439 0.205172 1.07206)
(-0.17339 0.136404 1.11224)
(-0.183777 0.292427 1.1384)
(-0.291635 0.00572575 1.33227)
(-0.25138 0.111224 1.11588)
(-0.20527 0.119838 1.03133)
(-0.082683 0.00393945 1.85005)
(-0.202446 0.157726 1.22519)
(-0.26757 0.104769 0.976017)
(-0.0221726 0.192735 0.894203)
(0.332616 0.421791 2.33981)
(-0.403982 0.141988 0.998462)
(-0.512058 -0.133039 0.804661)
(-0.493908 -0.0495068 0.925933)
(0.150491 0.0939175 1.76776)
(0.0518169 0.0767543 1.97068)
(0.00439266 0.489261 1.2711)
(-0.0696723 0.157761 1.37159)
(-0.263 0.160732 1.08446)
(-0.303694 0.206792 0.928513)
(-0.238945 0.380364 1.15823)
(-0.0738899 0.243291 1.3689)
(0.0680763 -0.166904 1.87252)
(-0.101907 0.10555 1.29705)
(-0.335255 0.26591 1.18292)
(-0.299335 0.358636 1.08385)
(-0.227412 0.435838 1.00441)
(-0.319375 0.00375838 1.42482)
(-0.32343 0.134007 1.22216)
(-0.338199 0.227944 1.12017)
(0.0553108 0.0548918 1.32117)
(-0.255998 0.213194 1.29891)
(-0.255201 -0.0184091 0.980548)
(-0.156607 -0.0677566 0.824201)
(0.295388 0.568791 2.21338)
(-0.372453 0.137879 1.15393)
(-0.485756 -0.208246 0.797734)
(-0.568484 -0.111209 0.736431)
(-0.214284 0.180608 1.55812)
(0.102004 0.100294 2.05965)
(0.00206363 0.488868 1.43952)
(-0.0405033 0.0419685 1.59807)
(-0.298455 0.111568 1.1206)
(-0.344873 0.0739198 0.834574)
(-0.30594 0.438099 0.973915)
(-0.0938607 0.488507 1.06943)
(0.0697039 -0.191217 1.98944)
(-0.133982 0.111183 1.4343)
(-0.381683 0.261033 1.27006)
(-0.318939 0.457106 1.04254)
(-0.207549 0.506896 1.01027)
(-0.340106 0.00171847 1.54338)
(-0.366683 0.140173 1.3735)
(-0.415804 0.287926 1.30212)
(0.098052 -0.0214223 1.20921)
(-0.287474 0.21619 1.42195)
(-0.206714 -0.0968749 1.07063)
(-0.306977 -0.196053 0.839941)
(-0.156259 0.193197 1.90542)
(-0.303809 0.120904 1.30965)
(-0.39892 -0.26075 0.83831)
(-0.479134 -0.122456 0.667766)
(-0.492021 0.17884 1.11185)
(0.0642608 0.0302879 1.99417)
(0.00306794 0.450854 1.5827)
(-0.0260472 -0.10466 1.81847)
(-0.374036 0.0261223 1.11128)
(-0.376796 -0.0403424 0.731073)
(-0.357694 0.31937 0.782081)
(-0.115449 0.532569 0.867894)
(0.045579 -0.216358 2.09621)
(-0.148592 0.114151 1.5425)
(-0.379558 0.232615 1.2905)
(-0.305054 0.401324 0.977891)
(-0.198784 0.504487 1.14353)
(-0.357875 -0.0148263 1.66606)
(-0.386398 0.12243 1.52015)
(-0.402693 0.281809 1.4962)
(0.112255 -0.069185 1.42488)
(-0.301683 0.205657 1.56824)
(-0.147707 -0.119893 1.18966)
(-0.279117 -0.236668 0.964046)
(-0.491468 -0.314125 1.62575)
(-0.226611 0.0186548 1.46716)
(-0.312715 -0.293353 0.879434)
(-0.293792 -0.0959439 0.654791)
(-0.366716 0.114048 0.863714)
(-0.126232 0.123098 1.35682)
(0.00490362 0.393243 1.71716)
(-0.0364287 -0.205985 2.00856)
(-0.421235 -0.0768075 1.0823)
(-0.380279 -0.110468 0.605108)
(-0.377979 0.182842 0.60486)
(-0.18558 0.277813 0.653021)
(0.0103401 -0.245523 2.17082)
(-0.153741 0.105236 1.62271)
(-0.359936 0.210645 1.26535)
(-0.240978 0.231474 0.873537)
(-0.166013 0.402397 1.21507)
(-0.371623 -0.0302756 1.78649)
(-0.369672 0.121081 1.63369)
(-0.364095 0.250199 1.62431)
(0.171714 -0.0510737 1.70019)
(-0.278673 0.176839 1.71525)
(-0.0375361 -0.177747 1.30652)
(-0.0297791 -0.186811 1.10001)
(-0.252247 -0.202668 1.62332)
(-0.158317 -0.108471 1.64922)
(-0.266418 -0.339064 0.893505)
(-0.136937 -0.0615231 0.62082)
(-0.18525 0.137413 0.750505)
(0.0464656 0.100925 0.899748)
(0.00300006 0.311578 1.83084)
(-0.0635554 -0.281843 2.16549)
(-0.43582 -0.22401 1.06201)
(-0.356482 -0.140513 0.496166)
(-0.368024 0.121456 0.468139)
(-0.126128 0.228204 0.438505)
(-0.046635 -0.280974 2.22042)
(-0.161119 0.0311727 1.66698)
(-0.335644 0.11266 1.19409)
(-0.143213 0.0653607 0.767952)
(-0.146188 0.314723 1.17063)
(-0.376248 -0.0437778 1.89305)
(-0.352339 0.108642 1.71174)
(-0.28477 0.178423 1.6895)
(0.251508 -0.0166236 1.88696)
(-0.236239 0.127792 1.87566)
(0.0971662 -0.261594 1.40311)
(0.218843 -0.122201 1.17274)
(0.151895 0.0444157 1.65287)
(-0.0901219 -0.212984 1.85383)
(-0.256945 -0.398164 0.8987)
(-0.0406749 -0.00471094 0.560688)
(-0.0957715 0.211278 0.679045)
(0.156331 0.262481 0.732035)
(-0.00189924 0.202846 1.9415)
(-0.0958833 -0.352588 2.29412)
(-0.452538 -0.381712 1.0313)
(-0.315415 -0.124893 0.457285)
(-0.347404 0.124033 0.4019)
(-0.0453644 0.297248 0.331351)
(-0.124013 -0.314699 2.2266)
(-0.188533 -0.0908998 1.63351)
(-0.364447 -0.118702 1.03744)
(-0.223772 -0.0242794 0.684183)
(-0.156549 0.245943 1.02065)
(-0.374262 -0.0547478 1.95188)
(-0.311157 0.0983281 1.73779)
(-0.259955 0.132491 1.60018)
(0.30342 0.000424513 2.00097)
(-0.186858 0.0635582 2.01768)
(0.182402 -0.294164 1.50661)
(0.378538 -0.058759 1.20855)
(0.272743 0.125303 1.64074)
(-0.0289703 -0.315284 2.06261)
(-0.247792 -0.433072 0.914079)
(-0.00186114 0.0872649 0.494594)
(-0.066084 0.297299 0.635634)
(0.195531 0.399022 0.673016)
(-0.0202154 0.0987137 2.05804)
(-0.120464 -0.429063 2.39568)
(-0.472143 -0.456737 1.02253)
(-0.261248 -0.0557957 0.474197)
(-0.333712 0.160831 0.40422)
(-0.00786766 0.383144 0.316261)
(-0.205829 -0.348878 2.19514)
(-0.298233 -0.23197 1.4964)
(-0.453329 -0.221776 0.872745)
(-0.317407 -0.0210014 0.610495)
(-0.125114 0.166985 0.87314)
(-0.366056 -0.0452312 1.96172)
(-0.294073 0.0920646 1.67966)
(-0.160792 0.131168 1.55593)
(0.254087 0.00196094 2.01719)
(-0.11708 0.00558698 2.15016)
(0.248357 -0.273682 1.63756)
(0.459226 -0.00141196 1.24022)
(0.269002 0.17755 1.59025)
(0.00451999 -0.414905 2.26741)
(-0.213728 -0.42785 0.935444)
(0.00473625 0.201057 0.449104)
(-0.0416606 0.382722 0.597755)
(0.213967 0.490182 0.602626)
(-0.0333292 0.0130018 2.19327)
(-0.112896 -0.511063 2.4679)
(-0.495771 -0.463672 1.03899)
(-0.19233 0.0455053 0.513433)
(-0.318587 0.249972 0.442569)
(0.00322405 0.470662 0.364045)
(-0.294303 -0.380124 2.16769)
(-0.455012 -0.345883 1.39453)
(-0.513573 -0.153124 0.765756)
(-0.395964 0.0830797 0.596767)
(-0.0879009 0.11943 0.81004)
(-0.380144 -0.0561609 1.94205)
(-0.281294 0.0165851 1.54398)
(-0.0162722 -0.00446988 1.23961)
(0.190488 0.0196787 1.8399)
(-0.0218478 -0.0317732 2.22926)
(0.308486 -0.20881 1.81572)
(0.498357 0.0482298 1.28286)
(0.305945 0.219046 1.45308)
(0.0381873 -0.513028 2.44297)
(-0.150245 -0.366405 1.00431)
(0.0155387 0.314506 0.435529)
(0.000745239 0.448037 0.54249)
(0.248969 0.567254 0.53092)
(-0.0472496 -0.115181 2.3407)
(-0.108287 -0.606183 2.52203)
(-0.511964 -0.430091 1.07062)
(-0.135569 0.164118 0.5411)
(-0.299989 0.347009 0.476157)
(-0.0108662 0.553217 0.435674)
(-0.360417 -0.417918 2.17285)
(-0.562829 -0.437286 1.3248)
(-0.515905 -0.00626666 0.728129)
(-0.394499 0.232717 0.624067)
(-0.132446 0.222268 0.787449)
(-0.431716 -0.120819 1.87542)
(-0.316525 -0.0737992 1.21331)
(-0.244302 0.128748 1.01379)
(0.300715 0.0254716 1.61787)
(0.0922126 -0.11039 2.25682)
(0.390185 -0.159873 1.98076)
(0.488068 0.115532 1.26036)
(0.256044 0.316759 1.33309)
(0.0773317 -0.583393 2.58795)
(-0.0612949 -0.256053 1.09403)
(0.0617068 0.383924 0.45219)
(0.0666255 0.468999 0.499301)
(0.280029 0.606939 0.515365)
(-0.0764237 -0.277295 2.54722)
(-0.0984176 -0.690267 2.54015)
(-0.515882 -0.364663 1.12893)
(-0.0999176 0.279112 0.552311)
(-0.283114 0.417663 0.492163)
(-0.0344983 0.607299 0.507717)
(-0.395632 -0.471298 2.20004)
(-0.578321 -0.468626 1.25918)
(-0.51088 0.11005 0.720018)
(-0.366821 0.355759 0.629089)
(-0.199193 0.355995 0.750775)
(-0.514934 -0.20088 1.73408)
(-0.496686 -0.0270744 1.02059)
(-0.40602 0.242064 0.878873)
(0.353144 0.0297602 1.47834)
(0.204013 -0.234784 2.27306)
(0.470247 -0.171002 2.0346)
(0.297834 0.305582 1.24254)
(0.198716 0.381838 1.09043)
(0.138691 -0.616633 2.69296)
(0.0748346 -0.112762 1.18879)
(0.14675 0.396885 0.478943)
(0.115403 0.451743 0.482841)
(0.284504 0.602015 0.546357)
(-0.0834593 -0.436563 2.74356)
(-0.0884601 -0.748122 2.53886)
(-0.490992 -0.321101 1.21171)
(-0.0807784 0.370929 0.556434)
(-0.2704 0.453945 0.49361)
(-0.0574032 0.624268 0.570616)
(-0.413469 -0.530664 2.22916)
(-0.562762 -0.465627 1.2136)
(-0.512696 0.168345 0.697176)
(-0.347117 0.419075 0.620753)
(-0.228623 0.41707 0.733332)
(-0.586852 -0.235936 1.54842)
(-0.603123 0.0854353 0.948454)
(-0.4744 0.297685 0.80055)
(0.286268 0.0597805 1.29593)
(0.289415 -0.3343 2.28711)
(0.542601 -0.213041 2.00531)
(0.226548 0.406111 1.21433)
(0.382503 0.320544 0.796123)
(0.207686 -0.644774 2.74445)
(0.251227 0.0398592 1.29854)
(0.241054 0.378796 0.494824)
(0.116484 0.432291 0.484695)
(0.279659 0.590208 0.590947)
(-0.0729078 -0.506365 2.88298)
(-0.076468 -0.776193 2.55906)
(-0.401432 -0.295824 1.36609)
(-0.0675397 0.439441 0.567708)
(-0.243846 0.457438 0.489623)
(-0.0819188 0.598439 0.622503)
(-0.44457 -0.589985 2.23541)
(-0.570265 -0.426068 1.18375)
(-0.489507 0.187201 0.672639)
(-0.340297 0.443856 0.602115)
(-0.238691 0.434173 0.720374)
(-0.697991 -0.31348 1.3749)
(-0.654647 0.159878 0.908342)
(-0.527276 0.338613 0.758574)
(0.437091 0.0474637 0.947597)
(0.326391 -0.369823 2.29937)
(0.589172 -0.143818 1.95545)
(0.398993 0.353913 1.08888)
(0.506154 0.317015 0.678654)
(0.26826 -0.618277 2.77849)
(0.418281 0.167987 1.39364)
(0.306042 0.346269 0.517308)
(0.0876642 0.396565 0.510777)
(0.255672 0.56668 0.640045)
(-0.0667107 -0.550115 2.98099)
(-0.0351175 -0.807018 2.60162)
(-0.209873 -0.197618 1.52368)
(-0.0188485 0.474793 0.600182)
(-0.191533 0.426711 0.494342)
(-0.104684 0.527979 0.661693)
(-0.445647 -0.633393 2.20982)
(-0.579859 -0.323301 1.1802)
(-0.41112 0.2048 0.664574)
(-0.319098 0.44092 0.58197)
(-0.227029 0.422586 0.703285)
(-0.822291 -0.343096 1.23146)
(-0.706292 0.190041 0.837597)
(-0.571772 0.365592 0.710075)
(0.58595 0.0296264 0.741367)
(0.309758 -0.346011 2.31469)
(0.547607 -0.000284212 1.96452)
(0.599572 0.221258 0.895227)
(0.542463 0.325872 0.683223)
(0.313088 -0.57495 2.77358)
(0.555632 0.263309 1.43904)
(0.341794 0.29593 0.563355)
(0.0706537 0.335826 0.56113)
(0.234573 0.522201 0.690941)
(-0.0483353 -0.544751 3.06359)
(0.0437189 -0.785098 2.64786)
(0.0413228 0.0221872 1.63537)
(0.0932999 0.46959 0.665171)
(-0.108017 0.361573 0.52532)
(-0.113716 0.430482 0.690555)
(-0.42003 -0.65114 2.15668)
(-0.544983 -0.237344 1.20876)
(-0.25157 0.247009 0.677413)
(-0.261404 0.405204 0.580827)
(-0.185478 0.381564 0.689139)
(-0.840727 -0.299693 1.15116)
(-0.714045 0.19161 0.761475)
(-0.568794 0.363719 0.646936)
(0.627678 0.0240759 0.747947)
(0.297664 -0.316322 2.27694)
(0.568397 0.0909383 1.93229)
(0.651822 0.105516 0.78071)
(0.511657 0.33884 0.758941)
(0.346699 -0.440983 2.76132)
(0.669044 0.320052 1.41639)
(0.378598 0.212162 0.629275)
(0.070836 0.261678 0.638649)
(0.214539 0.46668 0.756938)
(-0.0329898 -0.504396 3.0684)
(0.114827 -0.747658 2.62729)
(0.247832 0.246533 1.72766)
(0.23309 0.436431 0.729855)
(-0.00348958 0.272735 0.58584)
(-0.0967754 0.321887 0.726301)
(-0.35217 -0.607165 2.03673)
(-0.423814 -0.185254 1.27468)
(-0.0559995 0.282412 0.708211)
(-0.163112 0.334903 0.615582)
(-0.14166 0.322071 0.704106)
(-0.784134 -0.258045 1.10364)
(-0.609843 0.155011 0.722076)
(-0.483925 0.317265 0.580584)
(0.62194 0.021313 0.863322)
(0.285969 -0.172674 2.06769)
(0.695951 0.0522909 1.60403)
(0.602247 0.0109662 0.792079)
(0.459656 0.313146 0.867612)
(0.348507 -0.396374 2.67365)
(0.748743 0.291753 1.36098)
(0.409857 0.0917135 0.703454)
(0.0782741 0.185934 0.746137)
(0.182693 0.414285 0.847378)
(-0.00335114 -0.377928 3.0487)
(0.22845 -0.570919 2.602)
(0.435159 0.369124 1.80597)
(0.378089 0.366626 0.779361)
(0.107473 0.165948 0.673454)
(-0.0556272 0.212287 0.794412)
(-0.217122 -0.564038 1.89279)
(-0.0933541 -0.0373694 1.35035)
(0.163148 0.287913 0.77195)
(0.00727222 0.274017 0.696398)
(-0.107243 0.239799 0.759209)
(-0.6505 -0.196794 1.0095)
(-0.380382 0.177271 0.702363)
(-0.296428 0.24856 0.594464)
(0.602814 0.0259849 1.01253)
(0.336676 -0.250142 1.6563)
(0.654193 -0.18756 1.2561)
(0.52537 -0.0501788 0.892653)
(0.412159 0.264003 0.998324)
(0.240029 -0.203661 2.57466)
(0.770671 0.0935603 1.28605)
(0.425561 -0.0387459 0.786446)
(0.0820659 0.121372 0.882941)