/*--------------------------------*- C++ -*----------------------------------*\
| =========                 |                                                 |
| \\      /  F ield         | OpenFOAM: The Open Source CFD Toolbox           |
|  \\    /   O peration     | Version:  5.x                                   |
|   \\  /    A nd           | Web:      www.OpenFOAM.org                      |
|    \\/     M anipulation  |                                                 |
\*---------------------------------------------------------------------------*/
FoamFile
{
    version     2.0;
    format      ascii;
    class       volVectorField;
    location    "3";
    object      Us;
}
// * * * * * * * * * * * * * * * * * * * * * * * * * * * * * * * * * * * * * //

dimensions      [0 1 -1 0 0 0 0];

internalField   nonuniform List<vector> 
10571
(
(0.0278491 0.0325825 -0.104748)
(-0.0601902 0.104645 -0.0783896)
(0.0163025 0.193716 -0.0528929)
(-0.0374043 0.186025 0.0241395)
(-0.0706095 0.0720081 -0.000280724)
(-0.102696 0.18685 0.098179)
(-0.110329 0.26242 0.237495)
(-0.145349 0.345698 0.180078)
(-0.164387 0.216425 0.136534)
(-0.177744 -0.0967205 0.0209676)
(0.0261353 0.0413074 -0.163844)
(0.0567773 -0.189242 0.211887)
(-0.0390207 -0.169385 0.205558)
(-0.310344 -0.192896 0.232646)
(-0.167112 -0.35306 0.123646)
(-0.0539007 -0.149163 -0.0049377)
(0.0849777 -0.127572 -0.0878294)
(-0.0190743 -0.315679 0.162924)
(-0.175793 -0.279735 0.0451139)
(-0.0254888 -0.184724 -0.0436991)
(0.0503512 -0.111608 -0.0209373)
(-0.0665666 -0.0974528 0.0170625)
(-0.0284097 -0.0905675 0.0260017)
(0.0558518 -0.0574365 0.00381504)
(0.00793861 0.00106593 -0.572979)
(-0.0101987 0.0427806 -0.32914)
(0.00362022 -0.0252663 -0.383721)
(0.0600957 -0.00974522 -0.0892035)
(-0.106485 -0.0186626 -0.0848593)
(0.014204 0.124118 -0.198218)
(-0.0556007 0.176609 0.263237)
(-0.21203 0.115891 0.338393)
(-0.227066 -0.0213868 0.155701)
(-0.0916694 -0.0506479 -0.00267551)
(0.000684783 0.104613 -0.432257)
(0.121692 0.0938311 -0.076295)
(-0.280512 0.0608719 0.479324)
(-0.289068 -0.0421212 0.20709)
(-0.182692 -0.0739026 0.0350953)
(-0.0770133 -0.0205002 0.0105058)
(0.0716026 -0.0641627 -0.221717)
(-0.118518 -0.187768 0.0600938)
(-0.0792045 -0.131456 -0.0921005)
(-0.0703863 -0.0813283 -0.0937997)
(-0.00627225 -0.00835055 -0.0231597)
(-0.0476566 -0.0609874 -0.0999118)
(-0.0247254 -0.0608566 -0.107745)
(0.0105679 -0.0232332 -0.0800387)
(-0.00610806 -0.0113614 -0.485966)
(-0.00838872 -0.0143172 -0.437099)
(-0.069487 -0.0594273 -0.324716)
(0.100846 -0.0610532 -0.241372)
(0.114121 -0.0107139 -0.290209)
(-0.0354243 -0.00519177 -0.243529)
(0.0794292 -0.0227724 0.0937938)
(-0.170598 0.0817342 0.366309)
(-0.168203 0.0135606 0.137336)
(-0.0659827 -0.0257846 -0.140389)
(-0.00852919 0.0740052 -0.381564)
(0.0104195 0.0793175 -0.127026)
(-0.228739 0.160215 0.380964)
(-0.250208 0.062432 0.27297)
(-0.116442 -0.011953 -0.0221777)
(-0.0716386 0.0201096 -0.0894396)
(0.0332264 0.0171866 -0.323259)
(-0.0529672 -0.101339 -0.154037)
(-0.051702 -0.0831028 -0.16794)
(-0.0543173 -0.0400731 -0.130359)
(-0.0164094 0.0125702 -0.0613404)
(-0.0291113 -0.0396503 -0.195237)
(-0.0167506 -0.0345759 -0.192755)
(-0.00536884 -0.0100187 -0.142749)
(-0.0185268 -0.0348544 -0.380336)
(-0.0853546 -0.0150997 -0.39925)
(-0.0378072 -0.109352 -0.214115)
(0.142558 -0.10602 -0.142888)
(0.144502 -0.0299947 -0.22341)
(-0.124044 -0.0691793 -0.231859)
(0.0932681 -0.0780126 0.0671461)
(0.164421 -0.080036 0.156746)
(0.0327502 -0.0159195 0.096712)
(0.0106365 0.0611634 -0.278532)
(0.00548381 0.043784 -0.1986)
(-0.134453 0.0760176 -0.239764)
(0.0655139 -0.0669858 0.0609714)
(0.0605359 0.105509 -0.0671727)
(0.103253 0.10297 -0.16409)
(-0.0349269 0.0727807 -0.171494)
(-0.00982315 0.0802059 -0.286876)
(-0.0105926 -0.0100178 -0.271918)
(0.0274265 0.0282954 -0.25002)
(0.0616629 0.034787 -0.178764)
(-0.022987 0.0503619 -0.0601963)
(-0.0173032 -0.0158233 -0.274332)
(-0.0116086 -0.00879522 -0.243067)
(0.0178181 -0.00703513 -0.162039)
(-0.01124 -0.127056 -0.321985)
(-0.179086 -0.0923605 -0.338286)
(-0.00544435 -0.188992 -0.104066)
(0.101729 -0.140322 -0.111091)
(0.203411 -0.0996444 -0.0925027)
(-0.18273 -0.0254332 -0.234106)
(-0.000212426 -0.111115 -0.00575725)
(0.186773 -0.155494 0.167514)
(0.24622 -0.0819897 0.115617)
(0.0494501 0.0908812 -0.245778)
(0.00329282 0.0762823 -0.107215)
(-0.168079 0.0888454 -0.245011)
(-0.0103612 0.10943 -0.113182)
(0.11473 0.149311 -0.229877)
(0.184651 0.152937 -0.241383)
(0.0693524 0.1384 -0.215154)
(-0.0679519 0.00550762 -0.167607)
(-0.0115041 0.176528 -0.247524)
(0.0756299 0.174278 -0.276401)
(0.130039 0.221508 -0.306207)
(0.185633 0.216867 -0.309441)
(-0.0294869 0.0527869 -0.253483)
(0.036769 0.0492768 -0.244873)
(0.0673894 -0.0385695 -0.151749)
(-0.0477664 0.0788971 -0.203295)
(0 0 0)
(-0.0797165 -0.17771 -0.147108)
(0.111842 -0.190809 -0.0882047)
(0.152334 -0.122666 -0.0917388)
(-0.188502 -0.02397 -0.174191)
(-0.0323693 -0.0484487 -0.0585945)
(0.145426 -0.055899 0.0386426)
(0.233326 -0.0016082 -0.0426653)
(0.154949 0.0759216 -0.120162)
(-0.00141218 0.000463895 -0.000480793)
(-0.0431859 -0.2853 -0.0901242)
(2.01435e-16 -5.38423e-17 2.06503e-16)
(-0.0311264 0.109787 -0.12783)
(0.0951288 0.131332 -0.146553)
(0.171241 0.127036 -0.158008)
(0.243942 0.11783 -0.145761)
(-0.00287947 0.00092168 -0.000578935)
(-0.107867 -0.150018 -0.192701)
(-0.0864081 0.142407 -0.232007)
(-0.0738988 0.0560515 -0.223772)
(-0.0447085 -0.0312821 -0.201811)
(-0.0138211 -0.040663 -0.392365)
(-0.0745889 -0.0178201 -0.186216)
(0.0185733 -0.003891 -0.215428)
(-0.0730826 0.0224014 -0.107166)
(-0.0809807 0.159289 -0.00364703)
(0 0 0)
(0 0 0)
(1.90359e-18 1.52804e-16 4.16308e-17)
(-0.115134 -0.0332263 -0.191238)
(0 0 0)
(-0.0469973 -0.00925989 0.00636176)
(0.121831 -0.0111345 0.0430359)
(0.182122 0.0145718 -0.00963035)
(0.274095 0.0440503 -0.0440912)
(0.0155018 -0.02018 -0.242355)
(-0.0340583 -0.226781 0.0410533)
(0 0 0)
(-0.070987 -0.144512 -0.29839)
(0.0388098 0.0614606 -0.0972526)
(0.0773365 0.0597296 -0.143306)
(-0.019092 -0.0516938 -0.336883)
(0.113861 -0.0840654 -0.42595)
(0 0 0)
(-0.228432 0.00154108 -0.278314)
(-0.1459 0.0186048 -0.276053)
(0 0 0)
(0 0 0)
(0 0 0)
(-0.121422 -0.0274466 -0.181031)
(-0.180032 0.00277655 -0.126157)
(-0.190314 0.113243 -0.134651)
(0 0 0)
(0 0 0)
(0 0 0)
(0 0 0)
(0 0 0)
(0 0 0)
(0 0 0)
(-0.0891259 -0.190366 -0.227859)
(-0.0501151 -0.104893 -0.260235)
(-0.00498455 -0.171522 -0.390727)
(0 0 0)
(0 0 0)
(0 0 0)
(0 0 0)
(-0.139399 -0.0388294 -0.26658)
(-0.0691116 -0.0420626 -0.304965)
(-0.01908 -0.106684 -0.415743)
(0 0 0)
(0 0 0)
(-0.228789 0.0235169 -0.251237)
(-0.179638 0.0446392 -0.23791)
(0 0 0)
(0.0439986 0.0392277 -0.239973)
(0 0 0)
(-0.219105 -0.0716541 -0.15568)
(-0.227222 -0.00262113 -0.18569)
(-0.148449 0.183912 -0.0869845)
(0 0 0)
(0 0 0)
(0 0 0)
(0 0 0)
(0 0 0)
(0 0 0)
(0 0 0)
(0 0 0)
(-0.0501967 -0.129329 -0.191623)
(-0.0152728 -0.140722 -0.194784)
(0 0 0)
(0 0 0)
(0 0 0)
(0 0 0)
(-0.133666 -0.0362856 -0.242913)
(-0.0533089 -0.0325565 -0.238192)
(-0.0397409 -0.0999182 -0.371127)
(0 0 0)
(0 0 0)
(-0.256381 0.0460289 -0.22793)
(-0.157008 0.0586241 -0.157607)
(-0.0715652 0.0337717 -0.20291)
(-0.0320236 0.0527457 -0.119429)
(-0.299335 -0.0473966 -0.122026)
(-0.228899 0.0606519 -0.115779)
(-0.108747 0.0810104 -0.159911)
(0 0 0)
(0 0 0)
(0 0 0)
(0 0 0)
(0 0 0)
(0 0 0)
(0 0 0)
(0 0 0)
(0 0 0)
(0 0 0)
(0 0 0)
(0 0 0)
(0 0 0)
(-0.09747 -0.128264 -0.102495)
(0 0 0)
(-0.0731487 -0.125446 -0.341583)
(0 0 0)
(0 0 0)
(-0.14417 0.0262063 -0.113543)
(-0.109629 0.0463489 -0.106695)
(0.0232201 -0.0702192 -0.296493)
(0 0 0)
(-0.198421 0.0496567 -0.0498496)
(-0.0960986 -0.0276713 -0.0688872)
(0 0 0)
(0 0 0)
(0 0 0)
(0 0 0)
(0 0 0)
(0 0 0)
(0 0 0)
(0 0 0)
(0 0 0)
(0 0 0)
(0 0 0)
(0 0 0)
(0 0 0)
(0 0 0)
(0 0 0)
(0 0 0)
(0 0 0)
(0 0 0)
(0 0 0)
(0 0 0)
(0.058444 -0.0854065 -0.296725)
(0 0 0)
(-0.212804 0.011152 -0.00519437)
(-0.127102 0.124018 0.00539413)
(0 0 0)
(0 0 0)
(0 0 0)
(0 0 0)
(0 0 0)
(0 0 0)
(0 0 0)
(0 0 0)
(0 0 0)
(0 0 0)
(0 0 0)
(0 0 0)
(0 0 0)
(0 0 0)
(0 0 0)
(0 0 0)
(0 0 0)
(0 0 0)
(0 0 0)
(0 0 0)
(0 0 0)
(0 0 0)
(0 0 0)
(-0.0413879 0.00888583 -0.137621)
(0 0 0)
(0 0 0)
(0 0 0)
(0 0 0)
(0 0 0)
(0 0 0)
(0 0 0)
(0 0 0)
(0 0 0)
(0 0 0)
(0 0 0)
(0 0 0)
(0 0 0)
(0 0 0)
(0 0 0)
(0 0 0)
(0 0 0)
(0 0 0)
(0 0 0)
(0 0 0)
(0 0 0)
(0 0 0)
(0 0 0)
(0 0 0)
(0 0 0)
(0 0 0)
(0 0 0)
(0 0 0)
(0 0 0)
(0 0 0)
(0 0 0)
(0 0 0)
(0 0 0)
(0 0 0)
(0 0 0)
(0 0 0)
(0 0 0)
(0 0 0)
(0 0 0)
(0 0 0)
(0 0 0)
(0 0 0)
(0 0 0)
(0 0 0)
(0 0 0)
(0 0 0)
(0 0 0)
(0 0 0)
(0 0 0)
(0 0 0)
(0 0 0)
(0 0 0)
(0 0 0)
(0 0 0)
(0 0 0)
(0 0 0)
(0 0 0)
(0 0 0)
(0 0 0)
(0 0 0)
(0 0 0)
(0 0 0)
(0 0 0)
(0 0 0)
(0 0 0)
(0 0 0)
(0 0 0)
(0 0 0)
(0 0 0)
(0 0 0)
(0 0 0)
(0 0 0)
(0 0 0)
(0 0 0)
(0 0 0)
(0 0 0)
(0 0 0)
(0 0 0)
(0 0 0)
(0 0 0)
(0 0 0)
(0 0 0)
(0 0 0)
(0 0 0)
(0 0 0)
(0 0 0)
(0 0 0)
(0 0 0)
(0 0 0)
(0 0 0)
(0 0 0)
(0 0 0)
(0 0 0)
(0 0 0)
(0 0 0)
(0 0 0)
(0 0 0)
(0 0 0)
(0 0 0)
(0 0 0)
(0 0 0)
(0 0 0)
(0 0 0)
(0 0 0)
(0 0 0)
(0 0 0)
(0 0 0)
(0 0 0)
(0 0 0)
(0 0 0)
(0 0 0)
(0 0 0)
(0 0 0)
(0 0 0)
(0 0 0)
(0 0 0)
(0 0 0)
(0 0 0)
(0 0 0)
(0 0 0)
(0 0 0)
(0 0 0)
(0 0 0)
(0 0 0)
(0 0 0)
(0 0 0)
(0 0 0)
(0 0 0)
(0 0 0)
(0 0 0)
(0 0 0)
(0 0 0)
(0 0 0)
(0 0 0)
(0 0 0)
(0 0 0)
(0 0 0)
(0 0 0)
(0 0 0)
(0 0 0)
(0 0 0)
(0 0 0)
(0 0 0)
(0 0 0)
(0 0 0)
(0 0 0)
(0 0 0)
(0 0 0)
(0 0 0)
(0 0 0)
(0 0 0)
(0 0 0)
(0 0 0)
(0 0 0)
(0 0 0)
(0 0 0)
(0 0 0)
(0 0 0)
(0 0 0)
(0 0 0)
(0 0 0)
(0 0 0)
(0 0 0)
(0 0 0)
(0 0 0)
(0 0 0)
(0 0 0)
(0 0 0)
(0 0 0)
(0 0 0)
(0 0 0)
(0 0 0)
(0 0 0)
(0 0 0)
(0 0 0)
(0 0 0)
(0 0 0)
(0 0 0)
(0 0 0)
(0 0 0)
(0 0 0)
(0 0 0)
(0 0 0)
(0 0 0)
(0 0 0)
(0 0 0)
(0 0 0)
(0 0 0)
(0 0 0)
(0 0 0)
(0 0 0)
(0 0 0)
(0 0 0)
(0 0 0)
(0 0 0)
(0 0 0)
(0 0 0)
(0 0 0)
(0 0 0)
(0 0 0)
(0 0 0)
(0 0 0)
(0 0 0)
(0 0 0)
(0 0 0)
(0 0 0)
(0 0 0)
(0 0 0)
(0 0 0)
(0 0 0)
(0 0 0)
(0 0 0)
(0 0 0)
(0 0 0)
(0 0 0)
(0 0 0)
(0 0 0)
(0 0 0)
(0 0 0)
(0 0 0)
(0 0 0)
(0 0 0)
(0 0 0)
(0 0 0)
(0 0 0)
(0 0 0)
(0 0 0)
(0 0 0)
(0 0 0)
(0 0 0)
(0 0 0)
(0 0 0)
(0 0 0)
(0 0 0)
(0 0 0)
(0 0 0)
(0 0 0)
(0 0 0)
(0 0 0)
(0 0 0)
(0 0 0)
(0 0 0)
(0 0 0)
(0 0 0)
(0 0 0)
(0 0 0)
(0 0 0)
(0 0 0)
(0 0 0)
(0 0 0)
(0 0 0)
(0 0 0)
(0 0 0)
(0 0 0)
(0 0 0)
(0 0 0)
(0 0 0)
(0 0 0)
(0 0 0)
(0 0 0)
(0 0 0)
(0 0 0)
(0 0 0)
(0 0 0)
(0 0 0)
(0 0 0)
(0 0 0)
(0 0 0)
(0 0 0)
(0 0 0)
(0 0 0)
(0 0 0)
(0 0 0)
(0 0 0)
(0 0 0)
(0 0 0)
(0 0 0)
(0 0 0)
(0 0 0)
(0 0 0)
(0 0 0)
(0 0 0)
(0 0 0)
(0 0 0)
(0 0 0)
(0 0 0)
(0 0 0)
(0 0 0)
(0 0 0)
(0 0 0)
(0 0 0)
(0 0 0)
(0 0 0)
(0 0 0)
(0 0 0)
(0 0 0)
(0 0 0)
(0 0 0)
(0 0 0)
(0 0 0)
(0 0 0)
(0 0 0)
(0 0 0)
(0 0 0)
(0 0 0)
(0 0 0)
(0 0 0)
(0 0 0)
(0 0 0)
(0 0 0)
(0 0 0)
(0 0 0)
(0 0 0)
(0 0 0)
(0 0 0)
(0 0 0)
(0 0 0)
(0 0 0)
(0 0 0)
(0 0 0)
(0 0 0)
(0 0 0)
(0 0 0)
(0 0 0)
(0 0 0)
(0 0 0)
(0 0 0)
(0 0 0)
(0 0 0)
(0 0 0)
(0 0 0)
(0 0 0)
(0 0 0)
(0 0 0)
(0 0 0)
(0 0 0)
(0 0 0)
(0 0 0)
(0 0 0)
(0 0 0)
(0 0 0)
(0 0 0)
(0 0 0)
(0 0 0)
(0 0 0)
(0 0 0)
(0 0 0)
(0 0 0)
(0 0 0)
(0 0 0)
(0 0 0)
(0 0 0)
(0 0 0)
(0 0 0)
(0 0 0)
(0 0 0)
(0 0 0)
(0 0 0)
(0 0 0)
(0 0 0)
(0 0 0)
(0 0 0)
(0 0 0)
(0 0 0)
(0 0 0)
(0 0 0)
(0 0 0)
(0 0 0)
(0 0 0)
(0 0 0)
(0 0 0)
(0 0 0)
(0 0 0)
(0 0 0)
(0 0 0)
(0 0 0)
(0 0 0)
(0 0 0)
(0 0 0)
(0 0 0)
(0 0 0)
(0 0 0)
(0 0 0)
(0 0 0)
(0 0 0)
(0 0 0)
(0 0 0)
(0 0 0)
(0 0 0)
(0 0 0)
(0 0 0)
(0 0 0)
(0 0 0)
(0 0 0)
(0 0 0)
(0 0 0)
(0 0 0)
(0 0 0)
(0 0 0)
(0 0 0)
(0 0 0)
(0 0 0)
(0 0 0)
(0 0 0)
(0 0 0)
(0 0 0)
(0 0 0)
(0 0 0)
(0 0 0)
(0 0 0)
(0 0 0)
(0 0 0)
(0 0 0)
(0 0 0)
(0 0 0)
(0 0 0)
(0 0 0)
(0 0 0)
(0 0 0)
(0 0 0)
(0 0 0)
(0 0 0)
(0 0 0)
(0 0 0)
(0 0 0)
(0 0 0)
(0 0 0)
(0 0 0)
(0 0 0)
(0 0 0)
(0 0 0)
(0 0 0)
(0 0 0)
(0 0 0)
(0 0 0)
(0 0 0)
(0 0 0)
(0 0 0)
(0 0 0)
(0 0 0)
(0 0 0)
(0 0 0)
(0 0 0)
(0 0 0)
(0 0 0)
(0 0 0)
(0 0 0)
(0 0 0)
(0 0 0)
(0 0 0)
(0 0 0)
(0 0 0)
(0 0 0)
(0 0 0)
(0 0 0)
(0 0 0)
(0 0 0)
(0 0 0)
(0 0 0)
(0 0 0)
(0 0 0)
(0 0 0)
(0 0 0)
(0 0 0)
(0 0 0)
(0 0 0)
(0 0 0)
(0 0 0)
(0 0 0)
(0 0 0)
(0 0 0)
(0 0 0)
(0 0 0)
(0 0 0)
(0 0 0)
(0 0 0)
(0 0 0)
(0 0 0)
(0 0 0)
(0 0 0)
(0 0 0)
(0 0 0)
(0 0 0)
(0 0 0)
(0 0 0)
(0 0 0)
(0 0 0)
(0 0 0)
(0 0 0)
(0 0 0)
(0 0 0)
(0 0 0)
(0 0 0)
(0 0 0)
(0 0 0)
(0 0 0)
(0 0 0)
(0 0 0)
(0 0 0)
(0 0 0)
(0 0 0)
(0 0 0)
(0 0 0)
(0 0 0)
(0 0 0)
(0 0 0)
(0 0 0)
(0 0 0)
(0 0 0)
(0 0 0)
(0 0 0)
(0 0 0)
(0 0 0)
(0 0 0)
(0 0 0)
(0 0 0)
(0 0 0)
(0 0 0)
(0 0 0)
(0 0 0)
(0 0 0)
(0 0 0)
(0 0 0)
(0 0 0)
(0 0 0)
(0 0 0)
(0 0 0)
(0 0 0)
(0 0 0)
(0 0 0)
(0 0 0)
(0 0 0)
(0 0 0)
(0 0 0)
(0 0 0)
(0 0 0)
(0 0 0)
(0 0 0)
(0 0 0)
(0 0 0)
(0 0 0)
(0 0 0)
(0 0 0)
(0 0 0)
(0 0 0)
(0 0 0)
(0 0 0)
(0 0 0)
(0 0 0)
(0 0 0)
(0 0 0)
(0 0 0)
(0 0 0)
(0 0 0)
(0 0 0)
(0 0 0)
(0 0 0)
(0 0 0)
(0 0 0)
(0 0 0)
(0 0 0)
(0 0 0)
(0 0 0)
(0 0 0)
(0 0 0)
(0 0 0)
(0 0 0)
(0 0 0)
(0 0 0)
(0 0 0)
(0 0 0)
(0 0 0)
(0 0 0)
(0 0 0)
(0 0 0)
(0 0 0)
(0 0 0)
(0 0 0)
(0 0 0)
(0 0 0)
(0 0 0)
(0 0 0)
(0 0 0)
(0 0 0)
(0 0 0)
(0 0 0)
(0 0 0)
(0 0 0)
(0 0 0)
(0 0 0)
(0 0 0)
(0 0 0)
(0 0 0)
(0 0 0)
(0 0 0)
(0 0 0)
(0 0 0)
(0 0 0)
(0 0 0)
(0 0 0)
(0 0 0)
(0 0 0)
(0 0 0)
(0 0 0)
(0 0 0)
(0 0 0)
(0 0 0)
(0 0 0)
(0 0 0)
(0 0 0)
(0 0 0)
(0 0 0)
(0 0 0)
(0 0 0)
(0 0 0)
(0 0 0)
(0 0 0)
(0 0 0)
(0 0 0)
(0 0 0)
(0 0 0)
(0 0 0)
(0 0 0)
(0 0 0)
(0 0 0)
(0 0 0)
(0 0 0)
(0 0 0)
(0 0 0)
(0 0 0)
(0 0 0)
(0 0 0)
(0 0 0)
(0 0 0)
(0 0 0)
(0 0 0)
(0 0 0)
(0 0 0)
(0 0 0)
(0 0 0)
(0 0 0)
(0 0 0)
(0 0 0)
(0 0 0)
(0 0 0)
(0 0 0)
(0 0 0)
(0 0 0)
(0 0 0)
(0 0 0)
(0 0 0)
(0 0 0)
(0 0 0)
(0 0 0)
(0 0 0)
(0 0 0)
(0 0 0)
(0 0 0)
(0 0 0)
(0 0 0)
(0 0 0)
(0 0 0)
(0 0 0)
(0 0 0)
(0 0 0)
(0 0 0)
(0 0 0)
(0 0 0)
(0 0 0)
(0 0 0)
(0 0 0)
(0 0 0)
(0 0 0)
(0 0 0)
(0 0 0)
(0 0 0)
(0 0 0)
(0 0 0)
(0 0 0)
(0 0 0)
(0 0 0)
(0 0 0)
(0 0 0)
(0 0 0)
(0 0 0)
(0 0 0)
(0 0 0)
(0 0 0)
(0 0 0)
(0 0 0)
(0 0 0)
(0 0 0)
(0 0 0)
(0 0 0)
(0 0 0)
(0 0 0)
(0 0 0)
(0 0 0)
(0 0 0)
(0 0 0)
(0 0 0)
(0 0 0)
(0 0 0)
(0 0 0)
(0 0 0)
(0 0 0)
(0 0 0)
(0 0 0)
(0 0 0)
(0 0 0)
(0 0 0)
(0 0 0)
(0 0 0)
(0 0 0)
(0 0 0)
(0 0 0)
(0 0 0)
(0 0 0)
(0 0 0)
(0 0 0)
(0 0 0)
(0 0 0)
(0 0 0)
(0 0 0)
(0 0 0)
(0 0 0)
(0 0 0)
(0 0 0)
(0 0 0)
(0 0 0)
(0 0 0)
(0 0 0)
(0 0 0)
(0 0 0)
(0 0 0)
(0 0 0)
(0 0 0)
(0 0 0)
(0 0 0)
(0 0 0)
(0 0 0)
(0 0 0)
(0 0 0)
(0 0 0)
(0 0 0)
(0 0 0)
(0 0 0)
(0 0 0)
(0 0 0)
(0 0 0)
(0 0 0)
(0 0 0)
(0 0 0)
(0 0 0)
(0 0 0)
(0 0 0)
(0 0 0)
(0 0 0)
(0 0 0)
(0 0 0)
(0 0 0)
(0 0 0)
(0 0 0)
(0 0 0)
(0 0 0)
(0 0 0)
(0 0 0)
(0 0 0)
(0 0 0)
(0 0 0)
(0 0 0)
(0 0 0)
(0 0 0)
(0 0 0)
(0 0 0)
(0 0 0)
(0 0 0)
(0 0 0)
(0 0 0)
(0 0 0)
(0 0 0)
(0 0 0)
(0 0 0)
(0 0 0)
(0 0 0)
(0 0 0)
(0 0 0)
(0 0 0)
(0 0 0)
(0 0 0)
(0 0 0)
(0 0 0)
(0 0 0)
(0 0 0)
(0 0 0)
(0 0 0)
(0 0 0)
(0 0 0)
(0 0 0)
(0 0 0)
(0 0 0)
(0 0 0)
(0 0 0)
(0 0 0)
(0 0 0)
(0 0 0)
(0 0 0)
(0 0 0)
(0 0 0)
(0 0 0)
(0 0 0)
(0 0 0)
(0 0 0)
(0 0 0)
(0 0 0)
(0 0 0)
(0 0 0)
(0 0 0)
(0 0 0)
(0 0 0)
(0 0 0)
(0 0 0)
(0 0 0)
(0 0 0)
(0 0 0)
(0 0 0)
(0 0 0)
(0 0 0)
(0 0 0)
(0 0 0)
(0 0 0)
(0 0 0)
(0 0 0)
(0 0 0)
(0 0 0)
(0 0 0)
(0 0 0)
(0 0 0)
(0 0 0)
(0 0 0)
(0 0 0)
(0 0 0)
(0 0 0)
(0 0 0)
(0 0 0)
(0 0 0)
(0 0 0)
(0 0 0)
(0 0 0)
(0 0 0)
(0 0 0)
(0 0 0)
(0 0 0)
(0 0 0)
(0 0 0)
(0 0 0)
(0 0 0)
(0 0 0)
(0 0 0)
(0 0 0)
(0 0 0)
(0 0 0)
(0 0 0)
(0 0 0)
(0 0 0)
(0 0 0)
(0 0 0)
(0 0 0)
(0 0 0)
(0 0 0)
(0 0 0)
(0 0 0)
(0 0 0)
(0 0 0)
(0 0 0)
(0 0 0)
(0 0 0)
(0 0 0)
(0 0 0)
(0 0 0)
(0 0 0)
(0 0 0)
(0 0 0)
(0 0 0)
(0 0 0)
(0 0 0)
(0 0 0)
(0 0 0)
(0 0 0)
(0 0 0)
(0 0 0)
(0 0 0)
(0 0 0)
(0 0 0)
(0 0 0)
(0 0 0)
(0 0 0)
(0 0 0)
(0 0 0)
(0 0 0)
(0 0 0)
(0 0 0)
(0 0 0)
(0 0 0)
(0 0 0)
(0 0 0)
(0 0 0)
(0 0 0)
(0 0 0)
(0 0 0)
(0 0 0)
(0 0 0)
(0 0 0)
(0 0 0)
(0 0 0)
(0 0 0)
(0 0 0)
(0 0 0)
(0 0 0)
(0 0 0)
(0 0 0)
(0 0 0)
(0 0 0)
(0 0 0)
(0 0 0)
(0 0 0)
(0 0 0)
(0 0 0)
(0 0 0)
(0 0 0)
(0 0 0)
(0 0 0)
(0 0 0)
(0 0 0)
(0 0 0)
(0 0 0)
(0 0 0)
(0 0 0)
(0 0 0)
(0 0 0)
(0 0 0)
(0 0 0)
(0 0 0)
(0 0 0)
(0 0 0)
(0 0 0)
(0 0 0)
(0 0 0)
(0 0 0)
(0 0 0)
(0 0 0)
(0 0 0)
(0 0 0)
(0 0 0)
(0 0 0)
(0 0 0)
(0 0 0)
(0 0 0)
(0 0 0)
(0 0 0)
(0 0 0)
(0 0 0)
(0 0 0)
(0 0 0)
(0 0 0)
(0 0 0)
(0 0 0)
(0 0 0)
(0 0 0)
(0 0 0)
(0 0 0)
(0 0 0)
(0 0 0)
(0 0 0)
(0 0 0)
(0 0 0)
(0 0 0)
(0 0 0)
(0 0 0)
(0 0 0)
(0 0 0)
(0 0 0)
(0 0 0)
(0 0 0)
(0 0 0)
(0 0 0)
(0 0 0)
(0 0 0)
(0 0 0)
(0 0 0)
(0 0 0)
(0 0 0)
(0 0 0)
(0 0 0)
(0 0 0)
(0 0 0)
(0 0 0)
(0 0 0)
(0 0 0)
(0 0 0)
(0 0 0)
(0 0 0)
(0 0 0)
(0 0 0)
(0 0 0)
(0 0 0)
(0 0 0)
(0 0 0)
(0 0 0)
(0 0 0)
(0 0 0)
(0 0 0)
(0 0 0)
(0 0 0)
(0 0 0)
(0 0 0)
(0 0 0)
(0 0 0)
(0 0 0)
(0 0 0)
(0 0 0)
(0 0 0)
(0 0 0)
(0 0 0)
(0 0 0)
(0 0 0)
(0 0 0)
(0 0 0)
(0 0 0)
(0 0 0)
(0 0 0)
(0 0 0)
(0 0 0)
(0 0 0)
(0 0 0)
(0 0 0)
(0 0 0)
(0 0 0)
(0 0 0)
(0 0 0)
(0 0 0)
(0 0 0)
(0 0 0)
(0 0 0)
(0 0 0)
(0 0 0)
(0 0 0)
(0 0 0)
(0 0 0)
(0 0 0)
(0 0 0)
(0 0 0)
(0 0 0)
(0 0 0)
(0 0 0)
(0 0 0)
(0 0 0)
(0 0 0)
(0 0 0)
(0 0 0)
(0 0 0)
(0 0 0)
(0 0 0)
(0 0 0)
(0 0 0)
(0 0 0)
(0 0 0)
(0 0 0)
(0 0 0)
(0 0 0)
(0 0 0)
(0 0 0)
(0 0 0)
(0 0 0)
(0 0 0)
(0 0 0)
(0 0 0)
(0 0 0)
(0 0 0)
(0 0 0)
(0 0 0)
(0 0 0)
(0 0 0)
(0 0 0)
(0 0 0)
(0 0 0)
(0 0 0)
(0 0 0)
(0 0 0)
(0 0 0)
(0 0 0)
(0 0 0)
(0 0 0)
(0 0 0)
(0 0 0)
(0 0 0)
(0 0 0)
(0 0 0)
(0 0 0)
(0 0 0)
(0 0 0)
(0 0 0)
(0 0 0)
(0 0 0)
(0 0 0)
(0 0 0)
(0 0 0)
(0 0 0)
(0 0 0)
(0 0 0)
(0 0 0)
(0 0 0)
(0 0 0)
(0 0 0)
(0 0 0)
(0 0 0)
(0 0 0)
(0 0 0)
(0 0 0)
(0 0 0)
(0 0 0)
(0 0 0)
(0 0 0)
(0 0 0)
(0 0 0)
(0 0 0)
(0 0 0)
(0 0 0)
(0 0 0)
(0 0 0)
(0 0 0)
(0 0 0)
(0 0 0)
(0 0 0)
(0 0 0)
(0 0 0)
(0 0 0)
(0 0 0)
(0 0 0)
(0 0 0)
(0 0 0)
(0 0 0)
(0 0 0)
(0 0 0)
(0 0 0)
(0 0 0)
(0 0 0)
(0 0 0)
(0 0 0)
(0 0 0)
(0 0 0)
(0 0 0)
(0 0 0)
(0 0 0)
(0 0 0)
(0 0 0)
(0 0 0)
(0 0 0)
(0 0 0)
(0 0 0)
(0 0 0)
(0 0 0)
(0 0 0)
(0 0 0)
(0 0 0)
(0 0 0)
(0 0 0)
(0 0 0)
(0 0 0)
(0 0 0)
(0 0 0)
(0 0 0)
(0 0 0)
(0 0 0)
(0 0 0)
(0 0 0)
(0 0 0)
(0 0 0)
(0 0 0)
(0 0 0)
(0 0 0)
(0 0 0)
(0 0 0)
(0 0 0)
(0 0 0)
(0 0 0)
(0 0 0)
(0 0 0)
(0 0 0)
(0 0 0)
(0 0 0)
(0 0 0)
(0 0 0)
(0 0 0)
(0 0 0)
(0 0 0)
(0 0 0)
(0 0 0)
(0 0 0)
(0 0 0)
(0 0 0)
(0 0 0)
(0 0 0)
(0 0 0)
(0 0 0)
(0 0 0)
(0 0 0)
(0 0 0)
(0 0 0)
(0 0 0)
(0 0 0)
(0 0 0)
(0 0 0)
(0 0 0)
(0 0 0)
(0 0 0)
(0 0 0)
(0 0 0)
(0 0 0)
(0 0 0)
(0 0 0)
(0 0 0)
(0 0 0)
(0 0 0)
(0 0 0)
(0 0 0)
(0 0 0)
(0 0 0)
(0 0 0)
(0 0 0)
(0 0 0)
(0 0 0)
(0 0 0)
(0 0 0)
(0 0 0)
(0 0 0)
(0 0 0)
(0 0 0)
(0 0 0)
(0 0 0)
(0 0 0)
(0 0 0)
(0 0 0)
(0 0 0)
(0 0 0)
(0 0 0)
(0 0 0)
(0 0 0)
(0 0 0)
(0 0 0)
(0 0 0)
(0 0 0)
(0 0 0)
(0 0 0)
(0 0 0)
(0 0 0)
(0 0 0)
(0 0 0)
(0 0 0)
(0 0 0)
(0 0 0)
(0 0 0)
(0 0 0)
(0 0 0)
(0 0 0)
(0 0 0)
(0 0 0)
(0 0 0)
(0 0 0)
(0 0 0)
(0 0 0)
(0 0 0)
(0 0 0)
(0 0 0)
(0 0 0)
(0 0 0)
(0 0 0)
(0 0 0)
(0 0 0)
(0 0 0)
(0 0 0)
(0 0 0)
(0 0 0)
(0 0 0)
(0 0 0)
(0 0 0)
(0 0 0)
(0 0 0)
(0 0 0)
(0 0 0)
(0 0 0)
(0 0 0)
(0 0 0)
(0 0 0)
(0 0 0)
(0 0 0)
(0 0 0)
(0 0 0)
(0 0 0)
(0 0 0)
(0 0 0)
(0 0 0)
(0 0 0)
(0 0 0)
(0 0 0)
(0 0 0)
(0 0 0)
(0 0 0)
(0 0 0)
(0 0 0)
(0 0 0)
(0 0 0)
(0 0 0)
(0 0 0)
(0 0 0)
(0 0 0)
(0 0 0)
(0 0 0)
(0 0 0)
(0 0 0)
(0 0 0)
(0 0 0)
(0 0 0)
(0 0 0)
(0 0 0)
(0 0 0)
(0 0 0)
(0 0 0)
(0 0 0)
(0 0 0)
(0 0 0)
(0 0 0)
(0 0 0)
(0 0 0)
(0 0 0)
(0 0 0)
(0 0 0)
(0 0 0)
(0 0 0)
(0 0 0)
(0 0 0)
(0 0 0)
(0 0 0)
(0 0 0)
(0 0 0)
(0 0 0)
(0 0 0)
(0 0 0)
(0 0 0)
(0 0 0)
(0 0 0)
(0 0 0)
(0 0 0)
(0 0 0)
(0 0 0)
(0 0 0)
(0 0 0)
(0 0 0)
(0 0 0)
(0 0 0)
(0 0 0)
(0 0 0)
(0 0 0)
(0 0 0)
(0 0 0)
(0 0 0)
(0 0 0)
(0 0 0)
(0 0 0)
(0 0 0)
(0 0 0)
(0 0 0)
(0 0 0)
(0 0 0)
(0 0 0)
(0 0 0)
(0 0 0)
(0 0 0)
(0 0 0)
(0 0 0)
(0 0 0)
(0 0 0)
(0 0 0)
(0 0 0)
(0 0 0)
(0 0 0)
(0 0 0)
(0 0 0)
(0 0 0)
(0 0 0)
(0 0 0)
(0 0 0)
(0 0 0)
(0 0 0)
(0 0 0)
(0 0 0)
(0 0 0)
(0 0 0)
(0 0 0)
(0 0 0)
(0 0 0)
(0 0 0)
(0 0 0)
(0 0 0)
(0 0 0)
(0 0 0)
(0 0 0)
(0 0 0)
(0 0 0)
(0 0 0)
(0 0 0)
(0 0 0)
(0 0 0)
(0 0 0)
(0 0 0)
(0 0 0)
(0 0 0)
(0 0 0)
(0 0 0)
(0 0 0)
(0 0 0)
(0 0 0)
(0 0 0)
(0 0 0)
(0 0 0)
(0 0 0)
(0 0 0)
(0 0 0)
(0 0 0)
(0 0 0)
(0 0 0)
(0 0 0)
(0 0 0)
(0 0 0)
(0 0 0)
(0 0 0)
(0 0 0)
(0 0 0)
(0 0 0)
(0 0 0)
(0 0 0)
(0 0 0)
(0 0 0)
(0 0 0)
(0 0 0)
(0 0 0)
(0 0 0)
(0 0 0)
(0 0 0)
(0 0 0)
(0 0 0)
(0 0 0)
(0 0 0)
(0 0 0)
(0 0 0)
(0 0 0)
(0 0 0)
(0 0 0)
(0 0 0)
(0 0 0)
(0 0 0)
(0 0 0)
(0 0 0)
(0 0 0)
(0 0 0)
(0 0 0)
(0 0 0)
(0 0 0)
(0 0 0)
(0 0 0)
(0 0 0)
(0 0 0)
(0 0 0)
(0 0 0)
(0 0 0)
(0 0 0)
(0 0 0)
(0 0 0)
(0 0 0)
(0 0 0)
(0 0 0)
(0 0 0)
(0 0 0)
(0 0 0)
(0 0 0)
(0 0 0)
(0 0 0)
(0 0 0)
(0 0 0)
(0 0 0)
(0 0 0)
(0 0 0)
(0 0 0)
(0 0 0)
(0 0 0)
(0 0 0)
(0 0 0)
(0 0 0)
(0 0 0)
(0 0 0)
(0 0 0)
(0 0 0)
(0 0 0)
(0 0 0)
(0 0 0)
(0 0 0)
(0 0 0)
(0 0 0)
(0 0 0)
(0 0 0)
(0 0 0)
(0 0 0)
(0 0 0)
(0 0 0)
(0 0 0)
(0 0 0)
(0 0 0)
(0 0 0)
(0 0 0)
(0 0 0)
(0 0 0)
(-0.0676943 0.0909534 -0.0264776)
(-0.0207895 0.0439255 -0.0454382)
(-0.0770791 0.121134 -0.0361153)
(-0.0447945 0.118265 -0.0296267)
(-0.00555066 0.0370718 -0.0331796)
(-0.0285608 0.0972726 -0.00237463)
(0.00975528 0.0999036 -0.00136123)
(0.0176401 0.0555567 -0.0213444)
(-0.041871 0.0643542 0.00460664)
(-0.0444949 0.0991253 -0.01317)
(-0.101493 0.20062 -0.0150431)
(-0.0485231 0.114966 0.00580503)
(-0.0898386 0.212852 0.0581275)
(-0.13572 0.267778 -0.00107498)
(-0.0988884 0.25997 0.00862238)
(-0.186639 0.373264 0.0571249)
(-0.170189 0.384145 0.0406768)
(-0.0806263 0.232135 0.0203543)
(-0.0340152 0.204235 0.00568252)
(-0.156089 0.369846 0.0260171)
(-0.104857 0.335138 0.0124509)
(-0.0041509 0.130348 -0.0149616)
(-8.19487e-05 0.0708144 -0.0201972)
(-0.0597963 0.263958 -0.00949983)
(-0.0244653 0.106679 -0.00746457)
(-0.00297953 0.011191 -0.00392749)
(-0.0245166 0.0233657 0.0168724)
(0.013515 -0.0493752 -1.85967e-05)
(0.0025797 -0.0531826 0.029172)
(-0.040932 0.0539832 0.0416406)
(-0.0534003 0.0365744 0.0858886)
(-0.0366465 -0.0318752 0.0782602)
(-0.0350524 -0.0432682 0.0909255)
(-0.0244504 0.142962 0.0777872)
(-0.20655 0.454914 0.0501299)
(0.0148993 -0.0562102 0.0552507)
(-0.0849488 -0.0111942 0.0377469)
(-0.197569 0.437624 0.0205108)
(-0.16685 0.361379 0.0133889)
(-0.24888 0.0784847 0.0295318)
(-0.24707 0.0385304 0.0151564)
(-0.142055 0.227168 0.0113389)
(-0.0845916 0.0542882 0.00602651)
(-0.164372 0.0167547 0.0114572)
(-0.0711347 -0.0374837 -0.000561452)
(-0.0201845 -0.0280295 -0.000705405)
(0.0078004 -0.131796 -0.00484291)
(-0.00255781 -0.066625 -0.00458474)
(0.0344169 -0.0427547 -0.0354206)
(0.0736982 -0.124612 0.0154038)
(0.0905249 -0.109269 -0.0591331)
(0.0266667 -0.163688 0.137846)
(-0.0194278 -0.111703 0.113396)
(0.108419 -0.251453 0.0588485)
(0.0143688 -0.278192 0.145832)
(-0.0446954 -0.166979 0.0749632)
(-0.119245 -0.184345 0.0587864)
(-0.096477 -0.266057 0.0921181)
(-0.137378 -0.298887 0.0947466)
(-0.210421 -0.182882 0.0596837)
(-0.192733 -0.280166 0.0427743)
(-0.176932 -0.369735 0.0700626)
(-0.076034 -0.407838 0.0165406)
(-0.115821 -0.180497 -0.000958405)
(-0.0356946 -0.218116 -0.0249766)
(-0.0165347 -0.397721 -0.0127297)
(0.0662694 -0.270485 -0.0118597)
(0.000823364 -0.158256 -0.0155613)
(-0.00105968 -0.0525279 -0.00694869)
(0.0413899 -0.162672 -0.00124578)
(0.0294431 -0.062266 -0.0420762)
(0.0541941 -0.166468 -0.025216)
(0.0304476 -0.304923 0.0385264)
(-0.0195231 -0.0821742 -0.0185421)
(-0.0290964 -0.187155 -0.0074874)
(-0.0703968 -0.335319 0.0798348)
(-0.1609 -0.300585 0.0941067)
(-0.0730014 -0.247103 0.0523724)
(-0.116194 -0.222004 0.0826593)
(-0.160747 -0.318895 0.0400134)
(-0.0362346 -0.315907 -0.0110984)
(-0.0965448 -0.241219 0.0499188)
(0.00858686 -0.229136 0.00867949)
(0.0597867 -0.289477 -0.0245178)
(0.0936853 -0.204074 -0.0103691)
(0.0968677 -0.187949 -0.013019)
(0.0874445 -0.122182 -0.0104442)
(0.0593662 -0.129239 -0.00277049)
(-0.0770915 -0.0947885 0.00725826)
(-0.113123 -0.120005 0.0268265)
(-0.0746396 -0.10144 0.0433979)
(-0.0355898 -0.0447785 0.0263831)
(-0.0297002 -0.0999842 0.030407)
(0.0652416 -0.102387 0.00523475)
(-0.0311655 -0.0427422 0.0120181)
(0.0759603 -0.0926953 0.003465)
(-0.00523248 0.0466262 -0.130079)
(0.0260417 0.0291717 -0.255044)
(0.0110045 0.0299404 -0.143049)
(0.0371874 0.0729721 -0.121922)
(0.0298951 0.105775 -0.0944743)
(0.0185664 0.0227018 -0.248749)
(0.0603458 0.0448399 -0.22454)
(0.0463684 0.0731413 -0.160708)
(0.0055523 0.103894 -0.0371955)
(-0.0163629 0.0678996 -0.0122792)
(0.0215745 0.0313997 -0.226266)
(0.00182849 0.081943 -0.074388)
(-0.0355383 0.0404731 -0.0495519)
(-0.0192443 0.0159383 -0.0193014)
(-0.054702 -0.00976163 -0.0693039)
(-0.147846 0.171254 -0.0498522)
(-0.111248 0.126077 -0.247514)
(-0.0212626 0.154242 -0.0921048)
(-0.0879319 0.191778 -0.0244854)
(-0.0991091 0.263504 0.0964791)
(-0.0105679 0.0716396 -0.207277)
(0.0499355 0.0967306 -0.224091)
(-0.023433 0.160005 -0.128647)
(-0.0347345 0.220273 0.0969064)
(-0.0308916 0.0211201 -0.0232513)
(-0.121228 0.176231 0.0570305)
(-0.094189 0.0574576 0.0468573)
(-0.129452 0.0114023 -0.0408405)
(-0.0938814 -0.0345044 -0.0809025)
(-0.214784 0.045599 0.0920746)
(-0.154095 -0.0127536 0.0270298)
(-0.0679797 -0.0345254 0.0306884)
(-0.0651139 -0.0457865 0.0144641)
(-0.0830223 0.119553 -0.0803429)
(-0.0115207 -0.0113116 -0.150093)
(0.0300686 -0.0461233 -0.0147488)
(-0.0164597 0.134097 -0.359425)
(-0.0177607 0.104117 -0.388846)
(0.0196736 0.11217 -0.327356)
(-0.121209 -0.121831 0.0110327)
(-0.0213286 -0.101164 0.0370582)
(-0.10316 -0.0538493 0.0284324)
(-0.119308 -0.0585079 0.0351208)
(-0.0389109 -0.0553393 0.0974859)
(0.112199 -0.0338448 -0.0738733)
(0.109625 -0.0266225 -0.157053)
(0.00724038 0.083364 -0.299133)
(0.0717407 0.0874607 -0.257297)
(0.0926174 0.0339818 -0.248639)
(0.00274692 -0.0885449 0.0129831)
(0.0111702 -0.150936 -0.00228451)
(-0.0638751 -0.0562699 0.0261419)
(-0.00616684 -0.0250815 0.0570948)
(-0.037311 -0.0564281 0.0197489)
(0.0347773 -0.0138373 -0.122442)
(0.0441522 0.01805 -0.20832)
(0.0804201 -0.263369 0.0356347)
(8.75617e-05 -0.0518422 -0.0795162)
(0.00726515 -0.149305 -0.038614)
(0.0837006 -0.0892777 -0.154115)
(0.046468 -0.238549 0.0416142)
(0.0109998 -0.0400698 -0.146477)
(0.00741204 -0.131444 -0.101391)
(0.0300062 -0.143771 -0.0276487)
(0.0421508 -0.121956 -0.0263281)
(0.0633613 -0.0840512 -0.0227549)
(-0.0650236 -0.116307 -0.0680278)
(-0.0192354 -0.0711763 -0.038659)
(0.00477396 -0.0738983 -0.0640661)
(0.0258165 -0.0423306 -0.038226)
(0.000709747 -0.0356533 -0.0130591)
(-0.0550728 -0.0641725 -0.015655)
(-0.0400937 -0.044807 -0.066499)
(-0.0693304 -0.113709 0.0419163)
(-0.0514616 -0.0396799 0.0549026)
(-0.055001 -0.0767238 -0.0441717)
(-0.0598053 -0.0927967 -0.0273597)
(-0.0444374 -0.0183838 -0.00932163)
(0.0308201 -0.0630317 0.0143995)
(-0.0241073 -0.0301472 0.0407872)
(-0.0249955 -0.0704774 -0.0436659)
(0.0123282 -0.0514613 -0.0411174)
(-0.0166975 -0.00917529 -0.0122252)
(0.0303865 -0.033518 -0.0366951)
(0.00150546 0.0104426 -0.385663)
(-0.0462958 0.022133 -0.493516)
(-0.00473717 -0.00209191 -0.575498)
(-0.0177962 0.0107608 -0.471417)
(-0.00901477 -0.0136112 -0.486579)
(-0.00903503 -0.0064485 -0.548565)
(-0.0505919 -0.00320377 -0.502083)
(-0.0266366 -0.024795 -0.47095)
(0.0212787 -0.00701761 -0.452557)
(0.00747438 -0.00146343 -0.346966)
(-0.00100232 -0.00499529 -0.542161)
(0.013143 -0.0153063 -0.456487)
(0.0372503 0.00855441 -0.478853)
(-0.0472694 -0.00423317 -0.20346)
(0.0358366 0.0291609 -0.456782)
(-0.0457048 0.0588008 -0.435769)
(-0.0194943 0.0374734 -0.492793)
(0.0191017 0.0391497 -0.342582)
(-0.00377814 0.0738506 -0.348265)
(0.0188905 0.125462 0.0187692)
(-0.0114095 0.00853093 -0.462781)
(-0.0437635 -0.00766191 -0.443062)
(-0.0181726 0.00341207 -0.46308)
(0.0401831 0.00489485 -0.291676)
(-0.073869 -0.029301 -0.155252)
(-0.197928 0.00390725 0.092103)
(-0.151144 -0.018144 -0.0535768)
(0.05205 -0.0333562 -0.229859)
(-0.0297961 -0.00886414 -0.216247)
(-0.0921285 -0.053693 0.0885167)
(-0.11549 -0.0351856 -0.112757)
(-0.061265 -0.0507577 -0.0482381)
(-0.0538903 -0.0487794 -0.114411)
(-0.0164538 0.0751819 -0.468602)
(-0.007864 0.0946719 -0.453427)
(-0.0156589 0.0985517 -0.453411)
(-0.0292884 0.0584377 -0.481724)
(-0.0140456 0.0803352 -0.447532)
(-0.023842 0.0775848 -0.457788)
(-0.123485 -0.0482446 0.013877)
(-0.0269448 -0.0366489 0.0721394)
(-0.0596529 -0.0472811 -0.0678437)
(-0.086202 -0.0312448 -0.0474317)
(-0.0236936 -0.0231011 -0.00251641)
(0.0228034 0.101036 -0.40375)
(0.059183 0.0484319 -0.320185)
(0.00383818 0.0897416 -0.427246)
(-0.00115867 0.0984821 -0.434339)
(0.0345161 0.070691 -0.385261)
(-0.0093023 -0.0151537 0.0532563)
(-0.0646739 -0.00888353 0.00491338)
(-0.0557076 0.00111008 -0.0408659)
(-0.0112007 0.000182389 -0.00318363)
(-0.0335869 0.00481209 -0.034264)
(0.0474122 0.0245533 -0.260974)
(0.0352693 0.0379849 -0.315706)
(0.01511 -0.239195 -0.0273884)
(0.00824879 -0.0369183 -0.193631)
(-0.00176663 -0.116511 -0.152759)
(0.0564789 -0.0350879 -0.2856)
(-0.00620667 -0.183595 -0.168504)
(0.0115407 -0.0273921 -0.230728)
(-0.00441983 -0.10725 -0.201142)
(-0.0275785 -0.0432885 -0.0631714)
(-0.0186569 -0.0541728 -0.100142)
(0.00840761 -0.024811 -0.0620316)
(-0.0553404 -0.0535699 -0.114477)
(-0.0278637 -0.0223168 -0.0800358)
(-0.015928 -0.0377901 -0.129666)
(-0.00222854 -0.0125348 -0.0785811)
(-0.00891899 0.00495436 -0.0371102)
(-0.0311919 -0.0445289 -0.122742)
(-0.0307892 -0.039919 -0.169436)
(-0.0478323 -0.0819042 -0.0862613)
(-0.0330786 -0.0169141 -0.0665428)
(-0.0382035 -0.0556451 -0.153927)
(-0.0343218 -0.0628108 -0.145167)
(-0.0226566 -0.0113877 -0.12706)
(-0.0034417 -0.047132 -0.0986699)
(-0.0112497 -0.0127061 -0.0755895)
(-0.0192892 -0.0418451 -0.157119)
(-0.0104528 -0.0295448 -0.144116)
(-0.00881223 -0.00153686 -0.123255)
(-0.00225721 -0.0148502 -0.11811)
(-0.0646621 0.0171224 -0.447526)
(-0.0470089 0.00114245 -0.388187)
(-0.000944014 -0.00425052 -0.487529)
(-0.0552611 -0.0197238 -0.447581)
(-0.0333151 -0.0360699 -0.431543)
(0.00252975 -0.00977255 -0.422704)
(-0.0538424 -0.0255443 -0.394466)
(-0.03634 -0.0484116 -0.382855)
(0.00704097 -0.0212325 -0.437147)
(0.0349968 0.00218289 -0.441244)
(-0.0119476 -0.013895 -0.422534)
(0.00623545 -0.0501615 -0.366737)
(0.0278232 -0.00809557 -0.384818)
(0.0425798 0.0230393 -0.433111)
(0.0365368 0.0145508 -0.382995)
(-0.031772 0.0349792 -0.458666)
(-0.0612728 0.0233281 -0.387526)
(-0.0322033 -0.0381158 -0.40417)
(-0.0361117 -0.0179009 -0.418681)
(0.00389689 -0.0273094 -0.268859)
(-0.0473308 -0.0118192 -0.403851)
(-0.0506908 -0.0505908 -0.32693)
(-0.0787338 -0.0420369 -0.368992)
(-0.0233805 -0.0687383 -0.238899)
(0.0537774 0.0365134 -0.320094)
(-7.44668e-06 -0.0677552 0.0352299)
(-0.0327025 -0.00326352 -0.169635)
(0.115053 -0.00184567 -0.28593)