/*--------------------------------*- C++ -*----------------------------------*\
| =========                 |                                                 |
| \\      /  F ield         | OpenFOAM: The Open Source CFD Toolbox           |
|  \\    /   O peration     | Version:  5.x                                   |
|   \\  /    A nd           | Web:      www.OpenFOAM.org                      |
|    \\/     M anipulation  |                                                 |
\*---------------------------------------------------------------------------*/
FoamFile
{
    version     2.0;
    format      ascii;
    class       surfaceScalarField;
    location    "5.05";
    object      phi;
}
// * * * * * * * * * * * * * * * * * * * * * * * * * * * * * * * * * * * * * //

dimensions      [0 3 -1 0 0 0 0];

internalField   nonuniform List<scalar> 
29271
(
-2.6418e-06
4.66809e-08
3.23769e-07
2.28562e-06
-4.29755e-06
4.5015e-07
8.76874e-07
2.99628e-06
-1.06487e-05
-8.87529e-07
-4.71002e-07
8.08217e-09
5.29326e-07
1.14698e-05
-1.04752e-05
-8.02698e-07
2.80617e-07
-3.89327e-07
-2.22477e-08
1.14089e-05
-1.04953e-05
-2.13582e-07
-1.4351e-06
3.15667e-07
1.08286e-05
9.99632e-07
-1.06926e-05
-9.24633e-07
-4.91714e-07
2.65692e-07
4.56058e-07
1.13872e-05
-9.97866e-06
5.40201e-07
1.13822e-06
-1.02487e-06
-6.83789e-07
1.00089e-05
-1.05206e-05
1.20685e-06
4.84953e-07
-4.26816e-07
-1.09938e-06
1.0355e-05
-1.01427e-05
9.60812e-07
9.96776e-07
-1.32224e-06
8.16621e-09
9.49914e-06
-8.30417e-06
-4.69485e-07
6.43254e-07
7.73232e-06
4.0989e-07
-3.15764e-06
-1.00016e-07
2.29946e-08
3.22574e-06
-1.06459e-05
-4.47312e-07
8.24833e-08
1.88249e-08
-9.30557e-07
1.19224e-05
-9.00376e-06
4.04726e-07
2.18253e-06
-9.15163e-07
5.17456e-07
6.81421e-06
-8.7287e-06
3.47531e-07
2.49446e-07
2.96447e-07
1.55699e-06
6.27828e-06
-1.16631e-05
-7.74846e-07
-5.89476e-07
-1.31144e-07
2.06443e-06
1.10941e-05
-1.05562e-05
-6.58549e-07
-1.47382e-07
1.03342e-06
9.78938e-06
5.3932e-07
-9.71518e-06
-1.75069e-07
1.3979e-06
-1.16304e-07
7.4633e-06
1.14536e-06
-1.03237e-05
4.53456e-07
-6.95172e-07
9.84837e-07
7.90994e-07
8.78954e-06
-1.18877e-05
-3.74516e-06
-1.02432e-06
3.23037e-07
4.32397e-06
1.20102e-05
-1.02203e-05
-6.13346e-07
2.67411e-07
1.21639e-05
-1.69346e-06
9.5825e-08
-3.71365e-06
-3.56874e-07
1.19088e-06
2.89159e-06
-8.47086e-06
-1.03707e-06
1.02982e-06
9.15127e-06
-6.7782e-07
-1.12024e-05
-1.8952e-07
-1.18127e-07
-3.13798e-07
1.27568e-05
-9.32997e-07
-3.79913e-06
-3.20071e-07
6.68233e-07
3.45466e-06
-2.07181e-06
6.33377e-07
-7.71274e-07
2.20438e-06
-2.49377e-06
-2.83056e-06
1.74936e-06
3.57037e-06
-3.87454e-07
2.74861e-06
-1.22921e-05
-2.59077e-06
2.6792e-06
9.84256e-06
6.02665e-07
-1.50667e-05
3.09984e-06
-4.132e-06
1.27461e-06
1.42216e-05
-9.45976e-06
3.73872e-07
5.93633e-07
5.32991e-07
6.50617e-06
1.4531e-06
-1.88389e-06
2.44554e-06
-1.13081e-05
-1.18472e-06
3.61104e-06
8.32012e-06
5.62601e-07
2.89689e-06
3.38869e-05
-7.22365e-06
-6.30769e-06
-4.10984e-06
-4.92384e-06
-4.11423e-06
-3.34467e-06
-1.77917e-06
-1.93454e-06
-8.07884e-07
-1.21884e-06
-8.55195e-07
-7.26817e-07
8.73166e-07
2.91272e-06
3.54507e-05
-7.73509e-06
-8.03053e-06
-6.10332e-06
-6.81128e-06
-3.06037e-06
-3.06167e-06
-2.1586e-06
-1.71316e-06
-3.02337e-07
1.25508e-06
3.53508e-05
-3.23665e-06
-9.7919e-07
-8.27962e-07
-5.06292e-07
-3.36614e-07
1.13231e-07
-5.08774e-08
-7.66929e-06
-5.45667e-06
-8.44457e-06
-8.03553e-06
-6.50905e-06
-1.29654e-07
1.67428e-07
6.15978e-06
-6.3018e-06
-4.75243e-06
5.34908e-06
5.71381e-06
-1.70106e-06
-1.62441e-05
-6.53737e-06
5.24342e-06
1.18548e-05
7.38436e-06
1.31078e-06
9.93067e-07
3.84255e-05
-3.41342e-06
-4.19844e-06
-4.16505e-06
-4.91814e-06
-8.71214e-06
-9.00442e-06
-1.62552e-06
-1.79533e-06
-9.92462e-07
-4.10299e-07
2.82453e-05
-4.93704e-06
-5.88859e-06
-4.9311e-06
-6.86232e-06
-1.08462e-06
3.59246e-06
2.52491e-05
-1.28896e-06
-4.07222e-07
-3.74089e-07
1.07569e-05
-2.09292e-07
2.71311e-07
-7.83192e-06
-9.42914e-06
-1.00464e-05
-8.93553e-06
-9.15541e-06
-1.20791e-06
-1.41615e-06
5.67485e-06
5.01999e-06
-8.22853e-06
-1.44307e-05
1.40805e-05
2.05402e-05
5.26431e-06
-1.72258e-05
1.00436e-06
1.32642e-05
3.44204e-05
-1.45669e-05
-1.71563e-05
-2.07055e-06
-1.58975e-06
8.67024e-06
1.90003e-06
5.45015e-06
-5.35945e-06
-5.55502e-06
-5.62739e-06
-1.1791e-05
-2.03355e-06
5.70564e-06
2.49805e-05
-3.64101e-06
-6.20089e-07
-1.59412e-06
8.91132e-06
3.70246e-06
6.28203e-06
-5.22929e-06
-7.88525e-06
-1.46611e-05
-1.33235e-05
-1.67215e-05
-3.26257e-06
1.33341e-05
8.20892e-06
-4.13892e-06
-8.88324e-06
9.6339e-06
3.39094e-06
-1.09011e-05
-3.5927e-05
4.0363e-05
1.97296e-05
-2.33794e-05
-1.07973e-05
-5.10073e-06
2.12113e-06
4.28619e-05
-4.84706e-06
-1.88755e-05
9.15427e-06
1.45671e-05
-2.19775e-06
-2.60154e-08
-5.2791e-08
2.27764e-06
-3.5034e-06
-8.37969e-07
-2.64416e-07
4.5892e-06
-6.94985e-08
5.76122e-07
-8.88666e-06
-3.37516e-07
7.5958e-07
7.95798e-06
-1.03814e-07
-1.27678e-05
1.17462e-08
5.23912e-07
1.15731e-06
1.11787e-05
-6.55831e-06
-1.59166e-07
1.15853e-06
3.97816e-07
6.74609e-06
-1.58496e-06
1.28419e-07
1.79481e-07
-7.90034e-06
2.94408e-07
3.75205e-07
6.92283e-06
1.84558e-06
2.19852e-06
4.20365e-05
-2.72539e-06
-3.35258e-06
-9.70134e-07
-1.07826e-06
-1.14556e-06
-9.59056e-07
-8.76917e-07
-1.0858e-06
1.06559e-07
1.89585e-06
4.37281e-05
-3.71533e-06
-2.51508e-06
-1.16529e-06
-1.03847e-06
2.88304e-07
-8.26691e-07
3.57386e-05
-4.12979e-07
-8.6366e-08
-6.5813e-07
-2.83796e-07
1.57656e-07
9.18179e-07
6.22584e-07
-6.56627e-06
1.95883e-08
-9.34998e-08
6.94548e-06
-4.72403e-06
-1.42887e-07
7.18026e-07
4.16969e-06
-3.2724e-07
-7.74779e-06
-4.6247e-07
4.99393e-07
3.89691e-07
7.64842e-06
1.60575e-06
-5.38353e-06
4.66013e-05
-5.27399e-07
-3.49115e-07
-9.52386e-07
-3.70631e-07
-6.69424e-07
-5.90929e-06
3.83256e-05
5.759e-08
-8.71608e-07
2.80224e-05
8.68631e-08
2.15863e-07
4.41651e-09
-1.13392e-06
-1.28552e-06
-1.34309e-06
-4.40794e-06
1.64817e-07
-2.95209e-07
-3.73114e-07
4.96904e-06
-4.94481e-06
1.83022e-08
-1.24882e-08
1.49156e-08
5.10897e-06
-1.84897e-07
-1.3621e-06
-3.56716e-06
4.83373e-05
2.39607e-07
4.4308e-07
9.24873e-07
1.43304e-06
-1.15667e-05
-2.10379e-06
-3.74126e-06
-4.20093e-07
-1.22459e-05
5.0799e-05
-1.44586e-06
6.9889e-08
-1.55132e-07
-1.08326e-05
-4.488e-06
-3.57216e-06
-4.76327e-06
-1.86261e-07
-1.85817e-06
5.516e-06
-2.856e-06
3.76991e-07
-9.52503e-07
3.42954e-06
-1.24406e-05
1.51574e-06
-2.68994e-06
1.01535e-05
-5.23952e-05
1.62596e-06
-6.84578e-07
-5.96097e-07
3.9804e-05
-1.90652e-05
1.37558e-06
3.5036e-06
1.42361e-05
-2.54974e-06
-3.47158e-08
-1.08561e-06
3.66637e-06
-4.80952e-06
1.63152e-06
1.9752e-07
2.98048e-06
4.96272e-08
-9.05098e-07
-7.71896e-06
-8.78012e-08
3.71773e-07
8.29046e-06
1.25117e-07
-1.02241e-05
-8.22519e-08
-8.16996e-10
5.41776e-07
9.64029e-06
-6.1986e-06
2.00133e-06
-2.85283e-06
-2.45364e-07
5.19755e-06
2.09791e-06
3.50193e-08
-7.32733e-07
-6.71193e-06
1.41564e-06
-1.91819e-06
7.91219e-06
7.27386e-06
1.05192e-05
5.86991e-05
-1.60165e-06
-1.74416e-06
-5.80139e-06
-6.23832e-06
-3.26876e-06
-2.98672e-06
-6.25143e-06
-6.56325e-06
-1.20231e-05
1.27141e-05
6.46823e-05
-1.72054e-06
-1.94765e-06
-5.11321e-06
-5.58988e-06
-2.17172e-06
6.54466e-06
4.47513e-05
-2.57204e-06
-2.67297e-06
-5.26673e-06
-5.24747e-06
-2.48267e-06
-2.90458e-06
-4.2623e-06
-8.18935e-06
-8.17295e-08
5.21471e-07
5.5779e-06
-4.30037e-06
1.03384e-06
-1.72502e-06
4.99155e-06
4.19765e-07
-7.24857e-06
2.8902e-06
-1.14993e-08
-2.6557e-06
6.6058e-06
8.19002e-06
-2.38652e-07
6.03471e-05
-1.73737e-06
-2.10279e-06
-4.19101e-06
-3.14678e-06
-6.52233e-06
9.04502e-06
5.67071e-05
-3.36785e-06
2.57298e-06
3.99487e-05
-3.03276e-06
-4.37776e-06
-4.44191e-06
2.21389e-06
-1.8454e-06
3.74895e-07
-4.34919e-06
-1.24215e-06
7.46628e-08
2.90201e-06
-7.53181e-07
-5.60918e-06
-5.14099e-08
6.87505e-07
2.95293e-07
3.3133e-06
1.3645e-06
6.47633e-06
4.21601e-07
6.51649e-05
-3.11486e-06
-2.91673e-06
-5.36422e-06
-5.63199e-06
-2.66888e-06
-2.32194e-06
-1.94565e-06
-2.76252e-06
-2.47597e-06
8.25182e-05
-8.70062e-07
-5.51382e-06
-2.92307e-06
2.29739e-07
-1.76586e-06
-1.1633e-07
-5.42625e-06
-2.48815e-06
5.91317e-06
1.81168e-06
-3.74e-06
-2.53539e-06
2.98601e-06
3.28938e-06
-9.95724e-06
-4.59881e-06
4.9544e-06
1.00236e-05
-3.68161e-05
-6.45264e-09
1.42916e-06
-5.48743e-06
3.84048e-05
-1.29446e-05
-4.3836e-06
-3.66102e-07
1.76941e-05
-3.85128e-06
1.53064e-07
6.24584e-08
3.63576e-06
-2.2332e-06
-8.81833e-08
3.97386e-07
1.92399e-06
-3.46446e-07
-1.48232e-07
-6.34899e-06
-1.95231e-07
1.49299e-06
5.54591e-06
-5.45614e-07
-7.86196e-06
1.37559e-08
3.7459e-07
1.90768e-06
6.11155e-06
-1.80375e-06
-1.3571e-06
1.16653e-06
2.68785e-06
-1.47188e-07
-5.46338e-07
-2.09749e-07
-7.08907e-07
-6.44382e-06
2.11668e-06
-3.20269e-07
5.56606e-06
5.45809e-06
9.34596e-06
5.48916e-05
-1.90116e-06
-2.39745e-06
-8.58911e-07
-2.83137e-07
-2.66737e-06
-2.71088e-06
-4.95311e-07
3.17727e-07
-1.64976e-06
8.83323e-06
6.64721e-05
-2.28382e-06
-2.11631e-06
1.62404e-07
7.22543e-07
-8.99344e-07
6.65513e-06
4.12267e-05
-2.66261e-06
-1.74211e-06
-1.02993e-06
-9.73286e-07
-3.62711e-07
1.24852e-06
1.6412e-06
-3.77218e-06
-1.13864e-06
7.13404e-07
3.29807e-06
-4.50805e-06
7.10626e-08
4.42223e-07
3.99476e-06
-1.02381e-06
-4.46342e-06
3.28855e-07
2.05415e-06
7.86819e-08
3.02554e-06
6.52326e-06
1.40777e-06
6.48772e-05
-2.21575e-06
-1.9092e-06
5.99432e-07
4.10335e-07
1.1776e-06
4.37731e-06
6.65086e-05
1.06041e-06
-4.44459e-08
3.88956e-05
1.62085e-06
2.3647e-06
2.24836e-06
2.51552e-07
5.63927e-07
8.20379e-07
3.97619e-06
3.2332e-07
-2.46732e-07
-1.89418e-06
-1.09819e-06
-8.75447e-07
-8.74992e-07
2.33266e-06
9.29276e-07
-1.196e-06
-3.15501e-07
4.97461e-06
-7.61728e-07
6.53112e-05
-2.77601e-06
-2.19285e-06
8.63439e-07
9.16121e-07
-8.45467e-07
1.47366e-06
-3.90233e-07
3.46444e-06
-4.5577e-07
8.71642e-05
-1.65065e-06
4.11598e-06
-5.47211e-08
-5.77019e-07
5.82406e-08
-1.94606e-07
6.79807e-07
3.0621e-08
-4.82307e-07
3.19187e-06
-1.78271e-06
2.1632e-07
1.57327e-06
-6.87864e-09
-5.72555e-06
-3.76829e-07
-7.96917e-07
6.13757e-06
-3.87218e-05
-3.03784e-07
-8.99347e-07
8.82342e-07
3.85868e-05
-1.92845e-05
-1.47126e-07
7.84424e-07
1.86472e-05
-3.76955e-06
1.15986e-07
-9.96318e-08
3.75319e-06
-1.2723e-06
7.91409e-08
4.19373e-07
7.73783e-07
-6.5633e-07
-4.306e-07
-5.32582e-06
3.413e-07
1.30059e-06
4.77086e-06
-7.8612e-07
-6.32706e-06
5.11627e-08
1.5427e-07
4.29892e-07
6.47785e-06
1.19344e-06
-6.80003e-07
1.8827e-07
1.10937e-06
-1.24268e-06
-5.684e-07
-5.13987e-07
-5.15498e-07
-6.10273e-06
6.33129e-07
2.67332e-07
6.23176e-06
4.74052e-06
8.08988e-06
5.25657e-05
-1.60339e-06
-1.0596e-06
-1.95921e-06
-1.79912e-06
-8.00732e-07
-4.56217e-07
-1.54376e-06
-1.28244e-06
-6.76338e-07
6.16325e-06
6.64033e-05
-2.1884e-08
-7.24926e-09
-2.04835e-07
-4.4369e-07
5.9946e-07
4.62234e-06
4.0484e-05
-1.40241e-06
-6.77456e-07
-1.54269e-06
-3.85626e-07
8.32128e-08
-9.83632e-07
-2.46811e-07
-3.00822e-06
4.20184e-07
8.76447e-07
1.64093e-07
2.14695e-06
4.37179e-07
-4.95233e-07
4.12246e-07
-3.54192e-07
-3.73537e-06
-1.8142e-08
3.51779e-07
3.40174e-06
-1.02447e-06
-3.46044e-06
-3.24344e-07
2.46868e-07
5.01215e-07
4.06117e-06
5.38004e-06
1.33772e-06
6.58454e-05
2.55977e-07
2.11392e-07
-1.31591e-07
6.81359e-08
3.41818e-06
2.74869e-06
7.1885e-05
1.4216e-06
-3.47055e-07
4.37688e-05
1.5618e-06
1.33199e-06
1.30777e-06
-2.65833e-07
-6.40548e-07
-1.20237e-06
-1.98168e-06
6.79582e-07
2.23948e-06
-1.88093e-06
2.36514e-06
2.97659e-07
-1.10617e-06
-9.15837e-07
-8.46933e-07
2.57128e-06
4.33795e-08
2.15681e-07
-5.89597e-07
-1.47676e-07
8.13119e-07
-3.34907e-07
3.32457e-06
1.03299e-06
6.22182e-05
3.73973e-07
2.41243e-07
1.91989e-08
7.35876e-08
-5.81114e-07
5.57938e-07
-6.11666e-07
3.09959e-06
2.05228e-07
8.57076e-05
2.40159e-07
2.75957e-06
1.16196e-06
-3.83225e-07
6.29179e-07
-1.82548e-07
-5.71007e-06
2.83105e-06
-1.54878e-06
7.18034e-06
9.73393e-07
1.25747e-06
-1.70929e-06
-5.2157e-07
-7.27063e-06
1.39043e-06
-7.69142e-07
7.68233e-06
-3.86462e-05
1.17615e-07
1.13711e-07
6.90301e-07
3.79298e-05
-1.74436e-05
1.75675e-06
-9.22554e-07
1.66095e-05
-3.61285e-06
-1.54411e-08
1.69737e-07
3.45855e-06
-8.82116e-08
1.4508e-06
-1.18281e-06
-1.79778e-07
-4.4881e-07
-1.31406e-06
-4.11197e-06
1.10721e-06
1.31588e-06
3.45175e-06
-8.05531e-07
-6.65222e-06
-1.92302e-07
-2.24097e-07
1.03893e-06
6.83522e-06
1.33967e-06
3.13746e-07
-1.33946e-06
-1.04568e-07
-5.7401e-07
3.64623e-07
3.14917e-07
-9.90072e-07
-5.85972e-06
1.53247e-06
-4.98038e-08
5.05221e-06
4.74164e-06
5.9206e-06
5.42653e-05
-1.63665e-06
-1.86812e-06
-1.17036e-06
-1.759e-06
-1.56229e-06
-1.41943e-06
-1.64318e-06
-1.30288e-06
1.94051e-07
2.8838e-06
7.013e-05
-6.22855e-07
-4.72428e-07
-7.20018e-07
-2.47621e-07
-9.53136e-07
-1.91958e-06
4.46201e-05
-3.97582e-07
3.47368e-07
-1.79968e-07
3.3089e-07
-6.47531e-08
-9.32364e-07
-1.72955e-07
-1.92399e-06
1.60845e-06
-1.13024e-06
-1.45068e-06
1.94331e-06
4.11326e-07
-5.12349e-07
8.29406e-07
-8.35406e-07
-2.94085e-07
4.01107e-07
-2.72804e-06
-9.19053e-08
7.38573e-07
2.08138e-06
-1.10533e-06
-4.53851e-06
3.93942e-07
7.39094e-07
-6.00762e-07
5.11157e-06
4.23488e-06
-8.39504e-07
6.82315e-05
-2.08275e-07
1.40037e-07
-1.1567e-07
3.23066e-07
3.27736e-06
-2.37652e-06
7.81029e-05
1.41482e-06
-2.71032e-06
5.00697e-05
1.49025e-06
1.19292e-06
1.36695e-06
-2.32813e-06
-2.99969e-06
-2.3699e-06
-3.11646e-06
2.08652e-06
9.71506e-07
-2.1939e-06
3.66714e-06
-3.10566e-06
5.0729e-07
-6.15795e-07
3.21412e-08
-3.59935e-07
3.54195e-06
-1.24633e-06
8.50534e-07
-8.66058e-07
-1.44955e-06
1.71834e-06
9.93063e-07
1.34756e-06
1.66059e-07
6.09331e-05
3.91531e-07
6.42094e-07
5.21371e-07
7.08116e-07
-1.0647e-06
-8.01877e-07
-1.46458e-06
1.52623e-06
-4.68596e-08
8.29128e-05
1.20077e-06
1.28014e-06
1.28933e-06
-1.31429e-06
-2.83975e-07
-1.88553e-06
-9.02044e-06
2.2075e-06
-3.36455e-06
8.99339e-06
-4.12702e-08
2.6613e-06
-3.1444e-06
3.21908e-07
2.02455e-07
8.49434e-07
1.57001e-07
-2.78769e-07
-7.27665e-07
-7.6045e-06
1.74286e-06
-1.20606e-06
7.23376e-06
-3.70039e-05
5.49768e-07
4.25822e-07
1.43782e-06
3.45436e-05
-1.572e-05
3.19849e-06
-1.90738e-06
1.44289e-05
-3.3065e-06
-3.85607e-07
5.59738e-07
3.13237e-06
2.87568e-07
1.39377e-06
-1.38337e-06
-2.97971e-07
-2.1007e-07
-1.47476e-06
-3.18694e-06
1.12938e-06
4.33396e-07
3.309e-06
-9.34511e-07
-6.94897e-06
-4.49775e-07
-1.74291e-07
1.39231e-06
7.11523e-06
-1.80176e-08
3.1028e-07
-1.23567e-06
-5.03866e-07
7.55868e-07
6.91403e-07
1.78291e-06
-1.11924e-06
-4.23725e-06
1.67374e-06
-1.66563e-06
3.56547e-06
3.33391e-06
1.35525e-06
5.80563e-05
-5.27199e-07
-1.73957e-06
-1.98508e-07
-1.56301e-06
-1.37881e-06
-1.09327e-06
-1.29131e-06
-6.88408e-07
1.62343e-07
-8.13219e-07
7.57378e-05
-9.49981e-07
-1.51986e-07
-7.29746e-07
2.08708e-07
-5.75124e-07
-5.61055e-06
4.85566e-05
5.39529e-07
9.63381e-07
7.35082e-07
8.92808e-07
-9.12281e-08
-5.08974e-07
-1.19127e-07
-2.36945e-06
1.06387e-06
-3.7961e-07
-1.49049e-06
2.60056e-06
-7.78831e-07
7.76307e-07
-9.62866e-08
7.82977e-09
-5.61527e-07
6.52507e-07
-1.70181e-06
5.33082e-07
-3.15198e-07
1.48393e-06
-6.13076e-07
-5.18937e-06
1.43569e-06
3.8691e-07
-1.20376e-06
5.1836e-06
1.93878e-06
-6.94602e-06
7.21986e-05
2.2253e-07
5.98155e-07
6.59352e-07
9.15316e-07
2.67534e-06
-6.63307e-06
8.31862e-05
1.13647e-06
-3.87689e-06
5.44179e-05
1.35649e-06
1.03779e-06
7.73798e-07
-2.40768e-06
-3.36306e-06
-1.94033e-06
-4.23486e-06
2.197e-06
5.98485e-07
-2.26166e-06
4.8375e-06
-3.78112e-06
2.8175e-07
-4.90487e-07
5.52879e-08
1.3543e-07
3.79914e-06
-1.92928e-06
6.49667e-07
-9.67492e-07
-1.11985e-06
2.07748e-06
1.28948e-06
-2.32122e-06
-1.55523e-06
5.90355e-05
1.14212e-06
1.32256e-06
1.28086e-06
1.24954e-06
-2.13086e-06
-1.74635e-06
-2.28982e-06
4.98578e-07
-1.04602e-06
7.6789e-05
6.63248e-07
6.88446e-07
4.5489e-07
-1.98241e-06
-7.70248e-07
-1.33697e-06
-9.5816e-06
1.91642e-06
-4.88307e-06
9.16994e-06
-9.13041e-07
1.77146e-06
-2.91927e-06
5.52687e-07
1.50817e-06
9.34695e-07
-3.05462e-07
8.89644e-08
1.1991e-08
-7.30187e-07
-6.68454e-06
2.70392e-06
-3.66708e-06
6.09247e-06
-3.13621e-05
2.95283e-06
-1.82565e-06
1.56744e-06
2.76214e-05
-1.22609e-05
4.0218e-06
-5.65821e-07
8.80493e-06
-2.80088e-06
-5.09001e-07
1.00181e-06
2.30807e-06
2.53266e-07
4.71219e-07
-6.13655e-07
-1.1083e-07
4.09918e-07
-9.82307e-07
-3.73067e-06
3.60011e-07
-5.75412e-07
4.51846e-06
-1.13727e-06
-7.22805e-06
1.50841e-07
-2.16923e-07
1.38883e-06
7.04258e-06
-1.35253e-06
9.75772e-08
-7.35929e-07
-6.33903e-07
2.00304e-06
6.2175e-07
1.78496e-06
-9.9128e-07
-2.9187e-06
1.33921e-06
-1.70505e-06
2.49086e-06
1.27585e-07
-2.74938e-06
6.2429e-05
6.49788e-07
-1.12467e-06
7.99637e-07
-6.4305e-07
-6.13831e-07
-3.45416e-07
-4.57307e-07
-1.61038e-08
-7.40579e-07
-3.90772e-06
7.94234e-05
-5.97256e-07
4.96902e-07
1.16145e-07
1.07452e-06
-4.75836e-07
-6.7319e-06
5.12755e-05
1.15363e-06
1.45244e-06
1.43086e-06
1.28954e-06
-1.23297e-08
-1.20127e-06
-3.6453e-07
-3.14566e-06
1.69537e-06
-7.61765e-07
-1.28223e-06
3.01845e-06
7.28855e-07
-7.0304e-08
6.30551e-07
-7.42959e-07
-5.46143e-07
-1.37414e-06
5.63799e-07
-5.36392e-07
1.34674e-06
1.81781e-07
-5.10748e-06
1.14149e-06
-5.21012e-07
-7.98235e-07
5.10346e-06
-5.83834e-08
-1.07443e-05
7.56228e-05
8.56385e-07
1.00233e-06
1.34786e-06
1.42248e-06
2.35978e-06
-8.16146e-06
8.50217e-05
9.70461e-07
-2.85066e-06
5.57744e-05
6.72158e-07
5.8636e-07
-3.73521e-07
-1.34236e-06
-2.07198e-06
-1.31905e-06
-5.30426e-06
1.57166e-06
5.14634e-07
-1.38101e-06
5.56944e-06
-3.2583e-06
1.11931e-07
-7.42068e-07
1.16512e-06
7.41224e-07
1.9821e-06
-2.26591e-06
3.99511e-07
-1.08254e-06
-4.30271e-07
2.65652e-06
7.22687e-07
-2.68948e-06
-1.95642e-06
5.72146e-05
1.39551e-06
1.32885e-06
1.47481e-06
1.12129e-06
-3.41789e-06
-1.71252e-06
-4.46755e-06
3.34703e-07
-9.12812e-07
6.92075e-05
2.68162e-07
5.05238e-07
1.18516e-07
-9.5052e-07
-1.77382e-06
-8.58894e-07
-9.23741e-06
1.16492e-06
-3.21648e-06
8.77301e-06
-1.2704e-06
5.17636e-07
-8.88965e-07
1.64173e-06
-5.47894e-06
2.4903e-06
-3.45234e-06
4.48457e-06
-2.47629e-05
2.05032e-06
-1.96233e-06
1.46721e-06
2.22949e-05
-5.40053e-06
2.05621e-06
1.491e-07
3.19522e-06
-1.8681e-06
-1.55463e-07
3.91316e-07
1.63225e-06
-1.2251e-07
-5.97591e-07
4.23822e-07
2.96279e-07
9.51027e-07
-2.07746e-07
-5.31813e-06
-3.48256e-07
-1.25757e-06
6.18068e-06
-5.64307e-07
-6.81169e-06
9.06577e-07
-4.88584e-07
1.04483e-07
6.85352e-06
-2.72858e-06
7.56842e-08
-4.61844e-07
-8.54271e-07
3.53279e-06
4.36223e-07
8.66156e-07
-7.9899e-07
-2.26768e-06
1.10431e-06
-1.39153e-06
2.48773e-06
-1.5806e-06
-4.98115e-06
6.35986e-05
1.55302e-06
2.51453e-07
1.62311e-06
1.03983e-06
5.42209e-08
1.71402e-07
9.09531e-08
6.08144e-07
-8.88119e-07
-5.97027e-06
7.87049e-05
8.28394e-07
1.32093e-06
1.79874e-06
2.04819e-06
-1.2534e-06
-5.50837e-06
5.31607e-05
1.41872e-06
1.40744e-06
1.76031e-06
1.45109e-06
-8.10275e-07
-8.59659e-07
-3.79201e-07
-3.00107e-06
7.7571e-07
-1.44071e-06
2.41267e-06
-1.38041e-06
3.1985e-07
-4.09693e-07
1.47025e-06
7.10394e-07
-5.18872e-06
7.66879e-07
-1.21896e-06
-4.07597e-07
5.338e-06
-1.0872e-06
-1.07467e-05
7.58846e-05
1.34681e-06
1.39904e-06
1.89072e-06
1.95441e-06
2.67032e-06
-9.4227e-06
8.47167e-05
-6.98946e-08
-1.6409e-06
5.74035e-05
-5.68591e-07
3.76567e-07
-2.30583e-07
-7.64024e-07
-1.10022e-06
-4.69548e-07
-7.32764e-06
6.73363e-07
-7.75836e-07
-3.07891e-08
7.39101e-06
-3.09525e-06
3.42931e-07
-1.32981e-06
1.93288e-07
3.70229e-06
1.86545e-07
-1.88749e-06
-1.41981e-06
5.48856e-05
1.52794e-06
1.05672e-06
1.95355e-06
9.18571e-07
-4.75608e-06
-1.25682e-06
-4.55431e-06
4.73589e-07
-3.06833e-06
6.52757e-05
1.96961e-07
8.31076e-07
1.28988e-07
-1.05666e-06
-3.7554e-06
-1.1286e-06
-8.64691e-06
8.07704e-07
-1.68245e-06
8.35434e-06
-1.72631e-06
4.67274e-07
-1.52396e-07
1.41143e-06
-3.46457e-06
1.55444e-06
-2.33675e-06
2.82708e-06
-1.91128e-05
-1.23053e-07
8.80008e-07
2.8125e-07
1.50063e-05
-2.07119e-06
1.02771e-06
-5.1575e-07
1.55923e-06
-1.55772e-06
-1.78428e-07
1.42737e-07
1.59342e-06
-3.90662e-07
-1.53762e-06
1.51806e-06
4.10228e-07
1.37856e-06
4.07335e-07
-6.89847e-06
-6.08567e-07
-1.92412e-06
7.64526e-06
2.58825e-07
-7.11815e-06
1.05083e-06
-5.0141e-07
-1.28729e-06
7.5972e-06
-4.37084e-06
1.90985e-07
-1.38648e-07
-9.99954e-07
5.18388e-06
1.34577e-07
-3.4104e-07
-2.11622e-07
-2.91739e-06
6.23996e-07
-7.32186e-07
3.57824e-06
-2.0081e-06
-6.51566e-06
6.15443e-05
2.20722e-06
1.66405e-06
2.42329e-06
2.28039e-06
4.32475e-07
5.004e-07
3.55876e-07
7.14399e-07
5.19133e-07
-6.32319e-06
7.38009e-05
1.89662e-06
1.90186e-06
2.49141e-06
2.41007e-06
-3.00297e-07
-4.44474e-06
5.27193e-05
1.42275e-06
1.36511e-06
1.65387e-06
1.26461e-06
-3.80081e-08
-3.8301e-08
7.55118e-08
-2.09565e-06
3.0678e-07
-7.20959e-07
2.20953e-06
-1.57918e-06
1.49145e-07
-1.76619e-07
1.60666e-06
5.99086e-07
-5.56426e-06
8.28015e-07
-1.52479e-06
-3.67714e-07
6.02967e-06
-1.33304e-06
-8.57716e-06
7.15588e-05
1.68261e-06
1.74046e-06
2.05482e-06
2.24248e-06
3.63012e-06
-8.27483e-06
8.17051e-05
6.54041e-07
-1.05954e-06
5.65352e-05
2.10769e-07
7.09298e-07
2.99508e-07
-9.47758e-08
-6.52825e-07
-1.27918e-08
-7.26898e-06
3.24671e-07
1.31932e-08
1.10878e-07
7.47427e-06
-4.50796e-06
1.31479e-07
-1.68138e-06
7.09162e-07
5.53551e-06
-1.86806e-07
-1.09122e-06
-9.48991e-07
4.92033e-05
2.02633e-06
9.14578e-07
2.29214e-06
7.71896e-07
-3.68049e-06
-7.46379e-07
-2.43268e-06
8.84999e-07
-3.75992e-06
6.13371e-05
3.87982e-07
1.29297e-06
3.1985e-07
-1.10135e-06
-2.62358e-06
-8.28371e-07
-8.52315e-06
9.84882e-07
-9.9079e-07
8.35452e-06
-1.39948e-06
-4.14844e-09
-1.30082e-07
1.53371e-06
-2.76047e-06
7.90983e-07
-2.32898e-06
3.34948e-06
-1.167e-05
-1.57781e-07
2.24753e-06
-4.43592e-06
1.02562e-05
-1.43458e-06
7.35994e-07
-8.22753e-07
1.52134e-06
-1.76359e-06
-3.64321e-07
6.34782e-08
2.06444e-06
-3.75648e-07
-2.25061e-06
2.30764e-06
3.18618e-07
1.53405e-06
8.92349e-07
-8.32614e-06
-6.06628e-07
-2.42245e-06
8.92882e-06
6.5311e-07
-8.20863e-06
8.41208e-07
-3.71954e-07
-1.66192e-06
8.74819e-06
-5.941e-06
2.67602e-07
1.23623e-07
-9.68512e-07
6.55968e-06
-4.13938e-08
-1.42622e-06
7.6313e-07
-4.21699e-06
-2.86319e-07
3.46126e-07
4.82027e-06
-2.28644e-06
-8.46159e-06
5.9754e-05
2.6674e-06
2.35159e-06
2.7137e-06
2.74321e-06
5.59816e-07
3.52586e-07
6.5475e-07
4.95232e-07
1.64978e-06
-5.88499e-06
6.70387e-05
2.07312e-06
1.91471e-06
2.46466e-06
2.25855e-06
3.89541e-07
-3.85623e-06
5.20624e-05
1.20923e-06
1.12721e-06
1.45211e-06
1.01206e-06
2.03767e-07
5.0381e-07
2.65233e-07
-2.69987e-06
-1.45046e-07
-2.32606e-07
3.46707e-06
-1.58158e-06
-4.66438e-07
5.35773e-07
1.51224e-06
-4.65452e-07
-6.71298e-06
3.01588e-07
-5.52499e-07
1.5607e-07
7.27327e-06
-1.14045e-06
-5.36392e-06
6.32107e-05
1.54654e-06
1.76983e-06
1.35578e-06
1.71868e-06
4.60047e-06
-5.06054e-06
7.51398e-05
6.81014e-07
-8.17695e-07
5.59462e-05
3.75052e-07
6.99539e-07
3.08434e-07
1.57752e-07
-3.69686e-07
2.98838e-07
-7.6279e-06
1.35599e-07
-6.02526e-08
6.12081e-07
7.62148e-06
-6.68883e-06
-5.35959e-07
-8.11259e-07
1.27842e-06
7.60693e-06
-8.49309e-07
1.52933e-07
-1.5609e-07
4.21846e-05
1.54003e-06
4.57687e-07
1.18336e-06
2.95682e-07
-1.05567e-06
-5.3781e-08
-7.0934e-07
1.13524e-06
-1.13258e-06
5.50494e-05
3.65393e-07
1.45306e-06
2.58553e-07
-1.69203e-07
-5.38198e-07
7.83173e-09
-8.64827e-06
9.48552e-07
-3.59543e-07
8.37681e-06
-1.77361e-06
-5.12486e-07
2.23694e-07
2.0624e-06
-3.80472e-06
-7.99499e-08
-6.36451e-07
4.36504e-06
-9.85336e-06
3.67725e-08
8.15641e-07
-1.49001e-06
9.35838e-06
-1.69472e-06
4.98105e-08
-2.98292e-07
1.9432e-06
-2.45923e-06
-5.42531e-07
1.17915e-07
2.88384e-06
-3.08324e-07
-2.27836e-06
2.26199e-06
3.24697e-07
8.31088e-07
1.19297e-06
-9.46097e-06
-4.02805e-07
-2.10563e-06
9.94534e-06
8.12178e-07
-9.31074e-06
3.18957e-07
-9.49062e-08
-1.47049e-06
9.745e-06
-7.09239e-06
1.12574e-07
4.41368e-07
-7.21086e-07
7.45345e-06
-1.93914e-07
-1.71564e-06
1.1529e-06
-5.30893e-06
-9.30937e-07
1.14986e-06
5.65274e-06
-2.97794e-06
-9.66088e-06
5.99376e-05
2.58423e-06
2.3729e-06
2.50283e-06
2.66927e-06
9.32872e-07
1.32922e-08
1.08579e-06
2.94047e-07
1.27779e-06
-6.15581e-06
6.19749e-05
1.77612e-06
1.52896e-06
1.91992e-06
1.73882e-06
6.36147e-07
-3.21737e-06
5.07647e-05
9.87823e-07
7.99627e-07
1.24683e-06
6.77333e-07
3.07236e-07
7.45122e-07
3.92684e-07
-4.19397e-06
-5.86692e-07
7.92089e-07
4.62472e-06
-1.50628e-06
-7.76478e-07
7.23205e-07
1.55956e-06
-5.89543e-07
-7.40841e-06
-6.16251e-07
7.27591e-07
8.93703e-07
6.99291e-06
-7.03016e-07
-4.63568e-06
5.83126e-05
6.51444e-08
3.99205e-07
-3.0015e-09
1.14612e-07
4.70362e-06
-4.10994e-06
6.76873e-05
4.98194e-07
-4.80784e-07
5.59383e-05
1.31305e-07
4.44203e-07
3.36469e-08
3.78277e-07
6.57705e-08
4.2351e-07
-7.57841e-06
-4.62423e-07
-2.37809e-07
1.20037e-06
7.57646e-06
-8.26747e-06
-9.10586e-07
4.83784e-07
1.38317e-06
8.48168e-06
-1.17058e-06
8.18636e-07
-1.38475e-08
3.86685e-05
-4.88976e-08
-3.16211e-07
-1.66127e-07
-4.07919e-07
-4.83383e-07
-5.3147e-08
-4.48703e-07
6.9051e-07
-3.60723e-08
4.99348e-05
-1.05721e-07
6.57039e-07
-6.71546e-08
2.90086e-07
7.86978e-08
3.15877e-07
-8.70561e-06
4.19483e-07
1.18594e-07
8.37726e-06
-2.3925e-06
-9.59809e-07
6.80429e-07
2.67188e-06
-4.7059e-06
-6.32877e-07
2.35659e-07
5.08927e-06
-8.87035e-06
7.73948e-08
-1.34329e-07
1.14035e-07
8.77718e-06
-2.21218e-06
-3.27374e-07
7.65842e-08
2.46297e-06
-3.25639e-06
-5.13856e-07
2.34707e-07
3.53554e-06
-3.90666e-07
-1.41054e-06
1.26829e-06
5.32918e-07
3.75267e-07
8.90872e-07
-1.02903e-05
-5.8322e-08
-1.26411e-06
1.03466e-05
4.41953e-07
-1.00895e-05
-2.66596e-07
3.65413e-07
-6.82758e-07
1.02315e-05
-7.77574e-06
-2.52573e-07
7.91764e-07
-2.9506e-07
7.991e-06
-4.59398e-07
-1.63626e-06
1.35939e-06
-5.79321e-06
-1.35234e-06
1.80054e-06
5.62188e-06
-4.14894e-06
-9.39821e-06
6.16381e-05
2.23663e-06
2.05711e-06
2.23208e-06
2.33079e-06
1.10738e-06
-4.52697e-08
1.35076e-06
5.77248e-07
-7.90642e-07
-5.91585e-06
6.0429e-05
1.1381e-06
8.34616e-07
1.25071e-06
8.80045e-07
5.71032e-07
-1.7122e-06
4.82745e-05
7.11597e-07
2.98187e-07
1.06537e-06
3.60937e-08
1.37246e-07
4.75171e-07
1.17095e-07
-4.88179e-06
-1.17537e-06
1.76927e-06
4.85893e-06
-1.62197e-06
-6.41709e-07
6.18339e-07
1.64534e-06
-3.2767e-07
-6.50703e-06
-1.3383e-06
9.39556e-07
1.20693e-06
6.02651e-06
-1.39459e-06
-5.08521e-06
5.7447e-05
-6.80093e-07
-6.44629e-07
-3.24962e-07
-4.03165e-07
2.22186e-06
-4.49667e-06
6.26516e-05
-7.0853e-09
-1.00246e-07
5.62453e-05
-3.08482e-07
-7.84206e-08
-2.92997e-07
3.91296e-07
2.67468e-07
3.31202e-07
-7.80415e-06
-1.09604e-06
-5.22055e-07
1.48234e-06
7.93281e-06
-8.49757e-06
-9.5139e-07
9.99986e-07
1.31504e-06
8.31662e-06
-1.18268e-06
1.10673e-06
-3.38973e-07
3.80561e-05
-9.27263e-07
-8.55936e-07
-8.19544e-07
-8.67803e-07
-6.70122e-07
-4.27681e-07
-6.7221e-07
-1.95505e-07
5.5262e-08
4.64851e-05
-2.70367e-07
1.41077e-08
-1.35969e-07
2.82867e-07
6.89763e-08
2.404e-07
-8.87124e-06
-3.60566e-07
1.16305e-07
8.81975e-06
-2.85705e-06
-9.94896e-07
9.21095e-07
2.93085e-06
-5.42129e-06
-8.5996e-07
3.59479e-07
5.5828e-06
-8.81896e-06
1.09846e-07
-2.79375e-07
2.20822e-07
8.82293e-06
-2.65401e-06
-1.30452e-07
4.25532e-08
2.74191e-06
-3.77023e-06
-4.13851e-07
1.67526e-07
4.01655e-06
-7.93916e-07
-6.57205e-07
3.14876e-07
1.13625e-06
8.05237e-07
5.61759e-07
-1.01266e-05
4.49328e-07
-1.17603e-06
9.48634e-06
-3.9445e-08
-1.02451e-05
-1.16049e-06
1.15236e-06
2.22376e-07
1.00703e-05
-8.31267e-06
-6.50302e-07
1.24156e-06
2.05666e-08
8.62469e-06
-9.23854e-07
-1.22657e-06
1.47223e-06
-5.37124e-06
-2.04316e-06
1.96206e-06
5.20668e-06
-5.65243e-06
-8.59198e-06
6.32374e-05
1.96885e-06
1.73803e-06
1.53303e-06
2.02836e-06
1.4867e-06
5.9944e-07
1.83179e-06
1.45884e-06
-3.15254e-06
-4.79415e-06
6.2312e-05
1.74932e-07
-6.06495e-08
7.14266e-08
2.2559e-07
3.76218e-08
-5.15833e-07
4.62612e-05
5.65707e-07
-5.1045e-07
9.21949e-07
-7.31095e-07
-2.78337e-07
-2.68103e-07
-3.6066e-07
-4.84302e-06
-1.44572e-06
1.65265e-06
4.67372e-06
-1.66759e-06
-3.72025e-07
3.06015e-07
1.7336e-06
-1.21911e-07
-5.67925e-06
-1.89227e-06
6.50114e-07
1.56447e-06
5.47885e-06
-2.68439e-06
-5.51183e-06
5.8139e-05
-5.4449e-07
-7.95583e-07
5.77844e-07
-3.25571e-07
-1.02235e-06
-4.67361e-06
6.0869e-05
-4.6794e-07
-1.35773e-07
5.59195e-05
-4.92897e-07
-3.6873e-07
-3.04507e-07
2.2556e-07
1.23397e-07
2.08484e-07
-8.1718e-06
-9.33747e-07
-5.36373e-07
1.12769e-06
8.04629e-06
-8.11941e-06
-7.03139e-07
1.11455e-06
9.23378e-07
7.8736e-06
-1.08898e-06
2.05553e-06
-7.03074e-07
3.82885e-05
-1.29761e-06
-1.10104e-06
-1.05318e-06
-1.07862e-06
-8.89422e-07
-8.05537e-07
-8.71267e-07
-2.76467e-07
-9.70534e-08
4.42502e-05
-1.18113e-07
2.58459e-07
-4.56987e-08
4.34138e-08
-1.07832e-07
-3.98534e-08
-9.49109e-06
-4.3288e-07
-8.15675e-08
9.5933e-06
-2.96101e-06
-7.17307e-07
7.07078e-07
2.97124e-06
-5.7342e-06
-9.12286e-07
2.03552e-07
5.73986e-06
-8.78111e-06
2.06344e-07
-1.67852e-07
1.49981e-07
8.49558e-06
-2.76087e-06
1.34398e-07
-9.91358e-08
2.72561e-06
-4.22311e-06
-2.21513e-07
1.65641e-07
4.27898e-06
-1.45937e-06
1.43057e-07
-3.72157e-07
1.68847e-06
1.21702e-06
6.55652e-08
-8.28481e-06
9.74968e-07
-6.11234e-07
6.6385e-06
-6.14715e-07
-9.95154e-06
-1.79954e-06
1.50604e-06
9.67853e-07
9.8919e-06
-8.96205e-06
-7.99951e-07
1.53805e-06
3.98492e-07
8.96699e-06
-1.14153e-06
-4.685e-07
6.03309e-07
-5.343e-06
-1.83236e-06
1.45838e-06
5.58218e-06
-6.21666e-06
-5.99583e-06
6.86716e-05
1.77192e-07
9.69647e-07
-1.13557e-07
6.58858e-07
1.57221e-06
1.18954e-06
9.4439e-07
1.38e-06
-4.25942e-06
-3.40432e-06
6.55314e-05
-8.1838e-07
-5.10709e-07
-4.28901e-07
-1.44073e-08
-6.48766e-07
1.79157e-07
4.60509e-05
1.93744e-07
-1.04418e-06
2.03869e-07
-1.04309e-06
-6.18717e-07
-7.46958e-07
-5.24254e-07
-4.52064e-06
-1.25479e-06
9.48382e-07
4.17828e-06
-1.78835e-06
-9.82797e-08
1.49403e-07
1.73723e-06
-1.08308e-07
-5.87513e-06
-1.81915e-06
-2.01417e-07
1.46521e-06
6.5388e-06
-3.19904e-06
-4.72667e-06
5.93079e-05
4.34523e-07
-4.64367e-07
7.73353e-07
1.74702e-08
-2.97884e-06
-4.12875e-06
6.13733e-05
-4.37222e-07
-3.63976e-07
5.42131e-05
-3.00524e-07
-2.3947e-07
-1.20888e-07
1.3658e-07
4.04054e-08
1.91789e-07
-7.96916e-06
-6.06466e-07
-2.95954e-07
6.46174e-07
7.78819e-06
-7.74058e-06
-3.08687e-07
7.55345e-07
3.09407e-07
7.68589e-06
-7.01379e-07
3.60412e-06
-9.01849e-07
3.87624e-05
-1.41915e-06
-1.3341e-06
-1.1275e-06
-1.27834e-06
-9.36978e-07
-9.32822e-07
-8.73962e-07