/*--------------------------------*- C++ -*----------------------------------*\
| =========                 |                                                 |
| \\      /  F ield         | OpenFOAM: The Open Source CFD Toolbox           |
|  \\    /   O peration     | Version:  5.x                                   |
|   \\  /    A nd           | Web:      www.OpenFOAM.org                      |
|    \\/     M anipulation  |                                                 |
\*---------------------------------------------------------------------------*/
FoamFile
{
    version     2.0;
    format      ascii;
    class       volScalarField;
    location    "0.2";
    object      voidfraction;
}
// * * * * * * * * * * * * * * * * * * * * * * * * * * * * * * * * * * * * * //

dimensions      [0 0 0 0 0 0 0];

internalField   nonuniform List<scalar> 
10571
(
0.989246
0.962264
0.988521
0.996455
0.969816
0.991374
0.999064
0.997017
0.995086
0.977603
0.987541
0.998212
0.998114
0.999965
0.989199
0.986929
0.984975
0.999049
0.998183
0.989621
0.941096
0.974186
0.988254
0.968003
0.993783
0.971313
0.996612
0.995324
0.98749
0.99686
0.987054
0.999627
0.989868
0.971542
0.994747
0.9942
0.999781
0.999459
0.993269
0.982856
0.991517
0.993113
0.999067
0.997193
0.972866
0.9629
0.987934
0.982827
0.993655
0.975668
0.995241
1
0.987832
0.995896
0.991787
0.997514
0.981682
0.976292
1
0.996167
0.999162
0.999889
0.984455
0.975335
0.99295
0.990704
0.996793
0.993086
0.963129
0.984675
0.985944
0.963134
0.986704
0.966488
0.995096
0.997478
0.981916
0.995727
0.996129
0.997787
0.985537
0.97377
0.997472
0.999294
0.996192
0.999811
0.986773
0.942983
0.99058
0.989263
0.997262
0.981305
0.960247
0.980888
0.990834
0.988871
0.993624
0.97536
0.998348
0.995674
0.988469
0.997063
0.98756
0.997482
0.984024
0.973767
0.988235
0.997061
0.997867
0.99792
0.990765
0.946029
0.988817
0.993109
0.996962
0.981563
0.97646
0.977467
0.994263
0.971685
0.986477
0.970147
0.99666
0.996072
0.991845
0.994797
0.999517
0.996887
0.988179
0.986495
0.668669
0.9989
0.997058
0.996111
0.99775
0.990034
0.979804
0.491168
0.991941
0.992747
0.996253
0.980087
0.982216
0.97247
0.992812
0.975667
0.99923
0.966728
0.995747
0.995394
0.986296
0.9951
0.997754
0.996608
0.993281
0.985286
1
0.996811
0.999053
0.99428
0.997825
0.992716
0.990982
1
0.99579
0.99499
0.996408
0.989865
0.981191
1
0.978084
0.993175
0.9886
1
0.946507
0.996017
0.998273
0.988072
0.9927
0.990297
0.997562
0.994055
0.968549
1
0.996811
0.998714
0.999137
0.996588
0.992298
0.982903
1
0.994767
0.998199
0.99678
0.990631
0.983378
1
0.975838
0.995289
0.982545
0.994174
0.934577
0.996591
0.996411
0.990596
0.994322
0.999666
0.992013
0.992417
0.989997
1
0.997471
0.999966
0.999462
0.997686
0.994086
0.979074
1
0.991368
0.99482
0.99766
0.996398
0.983001
0.973205
0.991211
0.985722
0.994943
0.930717
0.999764
0.999222
0.995153
0.997196
0.999556
0.994129
0.992649
0.977559
1
0.997396
0.9982
0.997543
0.993779
0.9812
0.994707
0.995822
0.997709
0.996067
0.975291
0.984396
0.99094
0.990052
1
0.931676
1
0.997127
0.99339
0.998818
0.999224
0.998868
0.995208
0.977109
1
0.996855
0.992852
0.996497
0.990496
0.989448
0.994527
0.997474
0.995667
0.992516
0.971261
0.976499
0.988586
0.984528
1
0.936047
0.999022
0.994324
0.989668
0.992806
0.99811
0.998998
0.997667
0.973389
1
0.9976
0.999554
0.993744
0.994478
0.979604
0.994738
0.998784
0.995933
0.994994
0.988254
0.964071
0.995018
0.989709
0.9989
0.95688
1
0.994257
0.984409
0.996927
0.994734
0.995605
0.996491
0.968218
0.994172
0.994963
0.9987
0.998083
0.995153
0.973125
0.990048
0.998474
0.998969
0.996461
0.97228
0.976654
0.996678
0.981307
1
0.96276
1
0.990473
0.997176
0.997974
0.999302
0.994811
0.993324
0.980927
0.997361
0.998614
0.998954
0.997901
0.994715
0.976962
0.992904
0.996632
0.998294
0.998998
0.957222
0.960084
0.99544
0.977316
0.99901
0.956769
0.997101
0.99348
0.993781
0.997433
0.996372
0.993902
0.995239
0.983176
0.997251
0.995403
0.998054
0.998424
0.994609
0.970523
0.990199
0.997646
0.996681
0.996595
0.952533
0.973015
0.9907
0.975776
1
0.956377
0.995954
0.995541
0.991077
0.995508
0.998867
0.996784
0.99494
0.991239
0.993733
0.994355
0.994907
0.995272
0.99191
0.974121
0.994257
0.997133
0.993726
0.994124
0.966324
0.985211
0.99532
0.979136
0.998131
0.962931
0.99545
0.995643
0.996485
0.999966
0.998604
0.998438
0.995255
0.982591
1
0.99804
0.996096
0.994533
0.992672
0.966257
0.994378
0.997141
0.992857
0.997029
0.969189
0.974061
0.996497
0.993208
1
0.978162
0.998214
0.998953
0.993661
0.998379
0.997726
0.997552
0.995723
0.985034
0.998791
0.998378
0.998511
0.995303
0.990029
0.963415
0.988817
0.994125
0.996604
0.992589
0.97816
0.978284
1
0.9951
1
0.961587
0.998483
0.996285
0.995464
0.999966
0.997257
0.997406
0.996624
0.982093
0.99989
1
0.998061
0.997448
0.992145
0.969349
0.994859
0.994262
0.996556
0.997163
0.97977
0.981729
0.999155
0.99237
1
0.97301
0.997843
0.999088
0.997086
1
0.99277
0.9964
0.995974
0.985698
1
0.99902
0.997188
0.997936
0.99356
0.972553
0.989419
0.994234
0.995407
0.997062
0.97746
0.979947
0.997373
0.99055
1
0.992833
0.998618
0.988752
0.995975
0.999021
0.996379
0.993652
0.992319
0.985114
1
0.996147
0.996619
0.997983
0.992603
0.979082
0.996543
0.996677
0.996406
0.998231
0.97879
0.985017
0.997675
0.9993
1
0.981969
0.99882
0.998784
0.996485
0.999358
0.995452
0.996707
0.992929
0.981005
1
0.99804
0.993065
0.997313
0.993616
0.966477
0.992094
0.995522
0.995901
0.995594
0.98124
0.976848
0.997373
0.99027
1
0.982473
1
0.998987
0.991889
0.999932
0.997989
0.997102
0.994572
0.98713
1
0.998107
0.996542
0.9988
0.991853
0.957953
0.9948
0.99297
0.995064
0.999266
0.98278
0.981494
1
0.99321
1
0.992721
0.998618
0.999156
0.993722
0.997434
0.993083
0.996254
0.995941
0.985697
1
0.997972
0.998058
0.999214
0.990049
0.954265
0.99504
0.993455
0.993338
0.993591
0.97641
0.975145
0.999909
0.99209
1
0.994569
0.999427
0.99848
0.997717
0.998818
0.995357
0.996565
0.995921
0.984843
1
0.998412
0.999665
0.999326
0.992968
0.949308
0.993146
0.993673
0.995129
0.996462
0.96591
0.969918
0.998249
0.98649
1
0.967806
0.996966
0.997838
0.998528
0.997062
0.993587
0.994873
0.992638
0.989417
1
0.99902
0.995988
0.999551
0.993041
0.930778
0.997415
0.996729
0.994934
0.994859
0.97669
0.97975
0.999819
0.98887
1
0.973517
0.995146
0.999966
0.998348
0.996286
0.994209
0.99569
0.997048
0.997325
1
0.996418
0.996465
0.999439
0.994857
0.917599
0.996513
0.992591
0.994898
0.996061
0.96192
0.974528
0.998551
0.98362
1
0.959352
0.998112
0.998548
0.994653
1
0.989398
0.99749
0.996337
0.992868
1
0.999966
0.996719
1
0.994666
0.905598
0.993956
0.996063
0.994874
0.999065
0.97921
0.976502
0.995139
0.97081
1
0.975642
0.997708
0.997399
0.993993
0.991795
0.98741
0.99351
0.991826
0.992247
1
0.999966
0.988492
0.999888
0.991687
0.891089
0.993025
0.996148
0.997837
0.997062
0.99006
0.963727
0.996165
0.97501
0.998131
0.988074
0.997843
0.987097
0.99165
0.99399
0.996772
0.992543
0.995049
0.987244
1
0.971544
0.992115
0.999171
0.992798
0.875945
0.988486
0.996112
0.997021
0.999165
0.98292
0.975108
0.997343
0.97536
1
0.996752
0.996427
0.989224
0.99399
0.995745
0.998008
0.998304
0.995436
0.991121
1
0.995302
0.997861
0.996062
0.991302
0.886696
0.994498
0.996637
0.998161
0.998264
0.98075
0.973947
0.999245
0.99216
0.996811
0.994064
0.998146
0.999054
0.996695
0.996049
0.997451
0.998085
0.996826
0.994339
0.998351
0.999054
0.998158
0.999663
0.993815
0.845505
0.997835
0.996184
0.998456
0.998731
0.98551
0.981457
1
0.98859
0.996811
0.994401
0.996056
0.998041
0.998077
0.999021
0.997192
0.994566
0.996701
0.995968
1
0.99902
0.995731
0.998633
0.989831
0.848075
0.996723
0.996261
0.997861
0.994392
0.98628
0.978708
0.998279
0.99391
0.996371
0.993447
0.997067
0.999966
0.998558
0.996184
0.994861
0.990728
0.996159
0.990501
1
0.998242
0.990796
0.995629
0.98367
0.845203
0.996692
0.993568
0.996891
0.995827
0.98747
0.964343
0.999185
0.98124
1
0.998376
0.998011
0.998041
0.996635
0.998379
0.99538
0.994973
0.997048
0.988911
1
1
0.993607
0.979986
0.982912
0.854241
0.997024
0.989579
0.996236
0.994759
0.98187
0.971155
0.998883
0.978227
1
0.997312
0.996696
0.997872
0.995643
0.996421
0.997303
0.993207
0.994059
0.993835
1
0.998344
0.986784
0.994397
0.978259
0.846398
0.998828
0.988925
0.995161
0.992289
0.97914
0.970153
0.999396
0.98131
0.996921
0.995351
0.999022
1
0.996184
0.998041
0.982099
0.992632
0.994096
0.990733
1
0.99902
0.998515
0.994649
0.970452
0.824058
0.995099
0.99314
0.990936
0.993925
0.985088
0.981067
0.992904
0.9678
1
0.99412
0.998685
0.999662
0.997146
0.997704
0.997825
0.995755
0.993211
0.992168
1
0.999831
0.987026
0.988953
0.96738
0.848096
0.997745
0.990322
0.987561
0.982274
0.970386
0.973985
0.993206
0.98257
1
0.998376
0.998045
0.998683
0.997537
0.999223
0.998745
0.996212
0.995218
0.995115
1
1
0.988396
0.990622
0.964057
0.833671
0.998256
0.993128
0.989469
0.96545
0.97599
0.986989
0.991636
0.98187
1
0.992775
0.998651
1
0.997176
0.997265
0.993507
0.992578
0.995747
0.994612
1
1
0.999323
0.998869
0.951869
0.840154
0.997685
0.997501
0.988248
0.968054
0.96108
0.991135
0.98928
0.976127
1
0.996808
0.996696
0.99902
0.997387
0.993719
0.988928
0.998219
0.996349
0.997325
1
1
0.999096
0.997352
0.941347
0.829484
1
0.994489
0.983328
0.935974
0.95905
0.982191
0.977659
0.97445
1
0.998488
0.997809
1
0.996876
0.994833
0.995796
0.999071
0.993163
0.995426
1
1
0.997665
0.993015
0.935794
0.810773
0.998497
0.990871
0.984525
0.95657
0.907739
0.984668
0.976995
0.9678
1
1
0.997742
0.998683
0.997387
0.998751
0.995418
0.99561
0.990303
0.99593
1
0.997702
0.991773
0.996442
0.921725
0.778489
0.999128
0.993277
0.977252
0.963514
0.856568
0.997484
0.965244
0.9531
0.99934
1
0.999023
1
0.998588
0.998075
0.992717
0.993733
0.989076
0.989302
0.99956
1
0.997331
0.994006
0.887509
0.719212
0.998256
0.996576
0.970533
0.870746
0.772707
0.997018
0.939266
0.891837
1
0.997648
0.99882
0.99902
0.999069
0.998041
0.992537
0.988256
0.991664
0.992557
0.99802
0.99902
0.995
0.990173
0.827202
0.618848
0.997685
0.996112
0.93961
0.686413
0.702463
0.994579
0.940655
0.790745
1
0.999216
0.997641
0.99875
0.998799
0.995813
0.997677
0.995425
0.992274
0.99178
0.998901
0.99902
0.998073
0.984551
0.74684
0.531739
0.999158
0.995106
0.885377
0.534624
0.702883
0.997754
0.918501
0.706068
0.996812
0.998376
0.998348
0.99902
0.99979
0.997231
0.999226
0.994642
0.998154
0.999806
1
0.997601
0.999192
0.986092
0.692685
0.500928
0.999699
0.998155
0.84248
0.440988
0.622514
0.995934
0.917383
0.660288
1
0.998376
0.999056
0.998581
0.99997
0.996184
0.999741
0.997348
0.998599
0.997441
1
0.998919
0.999577
0.986553
0.671608
0.504737
0.998377
0.999297
0.835911
0.443291
0.635004
0.995237
0.921514
0.693818
1
0.995687
0.996864
0.99902
0.997686
0.999325
0.999706
0.99929
0.998732
0.994184
0.998131
0.999189
0.999888
0.988299
0.666878
0.500988
0.999699
0.9996
0.830869
0.444963
0.624195
0.996399
0.925313
0.66179
0.996811
0.997256
0.997034
0.997906
0.997987
0.995948
0.99963
0.999777
0.998154
0.994843
0.997251
0.99804
0.999712
0.996399
0.692445
0.510396
0.998948
0.999035
0.837334
0.455112
0.633618
0.993805
0.960437
0.694483
1
1
0.993663
0.999561
0.998768
0.996759
0.998886
0.999881
0.998829
0.993525
0.99868
0.99804
0.999977
0.998087
0.731611
0.568283
0.999128
0.998433
0.861234
0.455713
0.609678
0.996245
0.976751
0.673868
0.997581
0.997872
0.998045
0.998379
0.999129
0.993618
0.999412
0.999071
0.998441
0.983715
0.996811
0.997296
0.999665
0.999756
0.778056
0.627379
1
0.998962
0.89793
0.455813
0.645588
0.994735
0.97941
0.703058
0.99989
0.998936
0.999292
0.998041
0.998228
0.992099
0.999359
0.99967
0.997775
0.995038
0.997471
0.999662
0.999777
0.999888
0.842157
0.694908
0.999459
0.99895
0.939978
0.509991
0.698018
0.994231
0.988557
0.673901
1
0.995465
0.994405
0.995474
0.998798
0.996792
0.998565
0.999885
0.998716
0.988411
1
0.995133
0.999331
1
0.892384
0.770781
0.999188
0.999096
0.971341
0.598286
0.662598
0.990863
0.983363
0.676911
0.99989
1
0.994674
0.994663
0.997657
0.994901
0.999184
0.999904
0.99834
0.966551
1
0.99804
0.999977
0.999888
0.936868
0.812072
0.999128
0.997501
0.990673
0.740291
0.653988
0.991677
0.967998
0.672958
0.996812
0.998824
0.999022
0.998649
0.995194
0.992268
0.999164
0.999758
0.998207
0.952946
0.996702
0.996147
0.999554
0.999996
0.970124
0.812616
0.996513
0.997157
0.99793
0.874619
0.665958
0.987149
0.95577
0.686048
1
0.99636
0.995079
0.991387
0.988315
0.990985
0.999783
0.999724
0.998837
0.915445
0.986035
0.998243
1
0.999892
0.987018
0.815685
0.996813
0.997832
0.999834
0.975031
0.68076
0.980646
0.893517
0.699838
0.990546
0.986391
0.992618
0.99696
0.98651
0.993179
0.999779
0.999927
0.999923
0.791945
0.991863
0.994964
1
1
0.99664
0.861574
0.992063
0.999419
0.999919
0.998164
0.7387
0.920879
0.844457
0.723544
0.9647
0.982079
0.990225
0.99821
0.96452
0.993821
1
0.999962
0.998958
0.705498
0.980647
0.988306
1
1
0.999887
0.921119
0.912575
0.979165
0.999927
0.999032
0.766804
0.693697
0.86018
0.82137
0.815364
0.831243
0.910052
0.999223
0.608362
0.637692
0.999508
1
0.994345
0.800313
0.819857
0.483701
0.997584
1
0.99913
0.97655
0.497538
0.903715
0.982731
1
0.832124
0.879303
0.909307
0.867326
0.935231
0.999048
0.927766
0.889178
1
0.994967
0.960719
0.999862
0.974111
0.979673
0.991642
0.998445
0.961982
0.999891
0.98173
0.930917
1
0.955664
0.940312
0.963523
0.989598
1
0.995863
1
1
1
1
0.999932
1
1
0.955873
0.946907
0.969113
1
1
1
0.963381
0.897031
0.950086
0.99997
1
0.998665
0.975423
0.837391
1
1
1
0.99797
1
1
1
1
1
1
1
0.98924
0.99916
1
1
1
1
0.981853
0.994905
1
1
1
1
0.999764
1
0.998267
1
1
1
1
1
1
1
1
1
1
1
1
1
1
1
1
1
0.99989
0.999518
1
1
1
1
0.999804
0.999004
1
1
0.999124
0.99797
1
1
1
1
1
1
1
1
1
1
1
1
1
1
0.999996
0.999767
0.999806
1
1
1
0.999841
0.999012
1
1
1
1
0.99993
1
1
1
1
1
1
1
1
1
1
1
1
1
1
1
0.999379
1
1
1
1
0.999714
0.99818
0.999626
1
1
0.99797
1
1
1
1
1
1
1
1
1
1
1
1
1
1
0.999512
0.999937
1
1
1
0.999923
0.997053
1
1
0.999185
1
1
1
1
1
1
1
1
1
1
1
1
1
1
1
1
1
1
1
0.999883
1
0.999299
1
1
1
1
1
1
1
1
1
1
1
1
1
1
1
1
1
1
1
1
1
1
1
1
1
1
1
1
1
1
1
1
1
1
1
1
1
1
1
1
1
1
1
1
1
1
1
1
1
1
1
1
1
1
1
1
1
1
1
1
1
1
1
1
1
1
1
1
1
1
1
1
1
1
1
1
1
1
1
1
1
1
1
1
1
1
1
1
1
1
1
1
1
1
1
1
1
1
1
1
1
1
1
1
1
1
1
1
1
1
1
1
1
1
1
1
1
1
1
1
1
1
1
1
1
1
1
1
1
1
1
1
1
1
1
1
1
1
1
1
1
1
1
1
1
1
1
1
1
1
1
1
1
1
1
1
1
1
1
1
1
1
1
1
1
1
1
1
1
1
1
0.609073
0.629186
0.58094
0.58538
0.66127
0.632765
0.615832
0.569504
0.582884
0.597416
0.634478
0.610602
0.646739
0.588744
0.594791
0.638452
0.618168
0.620648
0.561743
0.631871
0.62221
0.558565
0.558013
0.588116
0.594055
0.572961
0.55772
0.68965
0.597308
0.585528
0.640136
0.591297
0.631228
0.730274
0.723773
0.690179
0.793241
0.684873
0.667249
0.754346
0.67392
0.60922
0.550197
0.586719
0.535238
0.571326
0.567434
0.625401
0.721855
0.648429
0.584143
0.645382
0.630976
0.572747
0.63188
0.696853
0.782793
0.699733
0.696699
0.748624
0.660787
0.667455
0.720176
0.575374
0.539028
0.583303
0.553073
0.567893
0.618709
0.580863
0.557097
0.576558
0.628581
0.57166
0.614108
0.657297
0.612935
0.588708
0.57318
0.603027
0.611235
0.600847
0.568612
0.562854
0.568885
0.56869
0.54804
0.534573
0.582244
0.599177
0.588407
0.655359
0.610765
0.596381
0.667822
0.575572
0.966037
0.981397
0.98605
0.987471
0.983229
0.985893
0.98955
0.988349
0.983254
0.984595
0.978787
0.989114
0.990462
0.959156
0.973541
0.960519
0.974562
0.980597
0.973014
0.980652
0.973046
0.968637
0.972129
0.962869
0.973042
0.992773
0.980251
0.990796
0.978931
0.996142
0.989624
0.953742
0.957352
0.971753
0.983177
0.977081
0.983344
0.996924
0.98813
0.973029
0.979014
0.972805
0.976635
0.989389
0.990476
0.969719
0.993848
0.992751
0.979902
0.991054
0.978682
0.993934
0.996924
0.975678
0.945255
0.963791
0.990658
0.976213
0.965375
0.990322
0.995712
0.987664
0.973299
0.963121
0.976291
0.944829
0.997508
0.980731
0.99238
0.964421
0.974539
0.956337
0.94603
0.979756
0.980198
0.977114
0.984865
0.959078
0.970458
0.986587
0.982432
0.985034
0.976677
0.984102
0.963406
0.974612
0.989495
0.988107
0.986099
0.980233
0.994254
0.980822
0.989234
0.990756
0.986424
0.991458
0.992929
0.994572
0.980455
0.98942
0.981226
0.968651
0.981156
0.986163
0.982973
0.982272
0.985771
0.982474
0.984625
0.985719
0.976756
0.987042
0.98023
0.964689
0.980498
0.969401
0.964817
0.986192
1
0.991077
0.991456
1
0.990957
0.98294
0.988309
0.966466
0.979985
0.996847
0.993753
0.98906
0.998154
0.998906
0.989296
1
0.976648
0.984527
1
0.981979
0.980269
0.992711
0.99392
0.986369
0.978926
0.98785
0.994719
0.989315
0.9716
0.972686
0.987825
0.976123
0.998088
0.988645
0.975906
0.971808
0.975705
0.948582
0.969036
0.977102
0.981467
0.96188
0.975734
0.978076
0.976646
0.983931
0.985838
0.981443
0.986433
0.96538
0.978528
0.985549
0.997484
0.992261
0.993531
1
0.99098
0.993279
0.993889
0.993178
0.992098
0.996231
0.996645
0.957586
0.964272
0.991582
0.995973
0.977686
0.986878
0.990492
0.97818
0.986749
0.986732
0.99591
0.98036
0.982169
0.990155
0.979057
0.980953
0.981298
0.98221
0.96645
0.980614
0.984788
1
0.979544
0.993253
0.99045
0.990353
0.957325
0.985984
0.975217
0.959461
0.982407
0.997094
0.988959
0.987706
0.9962
0.988659
1
0.969223
0.968836
1
0.974949
0.991846
0.980738
0.983093
0.984244
0.984809
0.992078
0.984226
0.981668
0.973681
0.971505
0.969081
0.979234
0.985496
0.978591
0.970762
0.983035
0.960884
0.96879
0.948435
0.969492
0.973342
0.984166
0.97141
0.974792
0.981862
0.967881
0.988855
0.98292
0.988164
0.976321
0.981686
0.989548
0.980878
0.993198
0.993592
0.996812
0.997757
0.990317
0.994618
0.997371
0.995603
0.994188
0.990479
0.992406
0.987169
0.988169
0.995404
0.98401
0.984809
0.988565
0.960361
0.98213
0.98702
0.987494
0.985003
0.981489
0.981747
0.987557
0.989144
0.983709
0.990267
0.981554
0.965531
0.993777
0.987252
0.99069
0.989013
0.996702
0.996278
0.939042
0.991191
0.97003
0.936941
0.978885
0.997944
0.98368
0.987577
0.992673
0.987227
0.993289
0.968383
0.938654
0.990489
0.975581
0.983831
0.984518
0.978302
0.98005
0.983019
0.995643
0.996411
0.978124
0.981696
0.968056
0.969263
0.974742
0.977272
0.981867
0.978484
0.973522
0.98347
0.971193
0.973696
0.965559
0.995612
0.987109
0.993024
0.984745
0.984282
0.97499
0.996196
0.988104
0.997586
0.977726
0.989267
0.987802
0.987246
0.993731
0.991523
0.99989
0.992492
0.992641
0.991973
0.991868
0.983179
0.997
0.995893
0.994557
0.9889
0.988786
0.982098
0.977957
0.981323
0.980842
0.960012
0.992121
0.988529
0.993913
0.99009
0.993644
0.982829
0.994239
0.996511
0.978929
0.988855
0.966597
0.975
0.991022
1
0.990886
0.993846
0.996811
0.993852
0.931032
0.921101
0.984315
0.962872
0.920552
0.991973
0.992179
0.99868
0.995062
0.990009
0.935747
0.969764
0.962744
0.901083
0.983446
0.990444
0.993861
0.982268
0.983576
0.98293
0.994798
0.979545
0.980537
0.987739
0.981888
0.978814
0.980182
0.986122
0.975726
0.976292
0.980149
0.977436
0.954454
0.974672
0.98641
0.986281
0.97851
0.978215
0.992976
0.982592
0.988258
0.994684
0.990922
0.999122
0.976509
0.975115
0.988637
0.993512
0.991446
0.994639
0.996811
0.994542
0.990156
0.992604
1
0.993074
0.995635
0.992133
0.99246
0.991908
0.988576
0.994288
0.992089
0.981136
0.995083
0.951493
0.989422
0.98632
0.99873
0.995585
0.972353
0.990274
0.991966
0.995211
0.990725
0.994814
0.980299
0.979632
0.995704
0.996811
0.997819
0.998839
0.996701
0.991518
0.929081
0.99034
0.768111
0.989141
0.995459
0.991997
0.990903
0.516894
0.493054
0.413337
0.99595
0.986133
0.989137
0.946854
0.994516
0.993068
0.994832
0.997303
0.991983
0.774099
0.98524
0.926045
0.985624
0.996944
0.984411
0.995228
0.409472
0.674051
0.485223
0.987668
0.93274
0.999322
0.971826
0.995745
0.995954
0.998482
0.9838
0.986467
0.991639
0.994587
0.983855
0.990402
0.987476
0.980623
0.974676
0.988384
0.98368
0.98445
0.990157
0.973395
0.973762
0.978799
0.972419
0.990671
0.97243
0.991932
0.991549
0.991733
0.998025
0.993022
0.990451
0.98727
0.986339
0.983758
0.971
0.987246
0.993729
0.990429
1
0.994774
0.998243
0.994545
0.995507
0.997582
0.994
0.995547
0.983841
0.991652
0.990386
0.994845
0.988582
0.98933
0.994658
0.933568
0.986753
0.982981
0.99495
0.990371
0.99818
0.990387
0.994439
0.980818
0.998686
0.98683
0.964131
0.999852
0.972412
0.998576
1
1
1
1
0.994619
0.996811
0.995729
0.993768
0.996811
0.996365
0.996092
0.992279
0.995956
0.978608
0.993516
0.984083
0.995473
1
1
1
1
1
1
1
0.997545
0.9945
0.996811
0.997364
0.997018
0.993722
0.974984
0.997831
0.988599
0.993781
0.988436
0.994323
1
1
1
1
1
1
1
0.991977
0.993163
0.992575
0.984024
0.987647
0.996692
0.997624
0.97626
0.992188
0.979568
0.979928
0.971536
0.987096
0.988604
0.977058
0.985723
1
0.982552
1
1
1
1
0.971313
0.957529
0.992659
0.989684
0.977387
0.993897
0.979916
0.993597
0.990782
0.993266
0.989875
0.983759
0.993784
0.979226
0.978181
1
0.994464
0.994942
0.996921
0.994503
0.997123
0.995606
0.996709
0.99989
0.998242
0.997909
0.992211
0.993597
0.993869
0.989759
0.986813
0.984412
0.996319
0.943147
0.983097
0.988704
0.993941
0.993484
0.998046
0.989406
0.987247
0.976516
0.996667
0.992063
0.973736
0.999606
0.97371
1
1
1
1
1
0.997987
0.996811
0.995607
0.993613
0.99989
0.998243
0.988866
0.98022
0.988254
0.976518
0.996046
0.977675
0.987979
1
1
1
1
1
1
1
0.998212
0.99361
1
0.996303
0.997366
0.995115
0.980444
0.996391
0.982914
0.989485
0.974953
0.996264
1
1
1
1
1
1
1
0.992256
0.991907
0.99901
0.980705
0.982893
0.990797
0.99802
0.978398
0.98026
0.986357
0.982726
0.980382
0.996705
0.980153
0.993512
0.971648
1
0.979546
0.999851
1
1
1
0.95515
0.948783
0.993897
0.977722
0.965887
0.99145
0.987379
0.993251
0.986174
0.993205
0.99034
0.986503
0.98721
0.981039
0.992402
0.996811
0.982813
0.991277
0.996811
0.969538
0.989097
0.998151
0.995894
0.998791
0.994697
0.994616
0.995261
0.988492
0.988227
0.986486
0.982858
0.98939
0.997036
0.955695
0.984537
0.993801
0.998762
0.970921
0.992364
0.983244
0.991229
0.976269
0.983555
0.987627
0.991237
0.968738
0.992181
0.992412
0.992457
0.996555
0.990433
0.987368
0.992111
0.982958
0.994908
0.984896
0.998049
0.987468
0.991882
1
1
1
1
1
1
1
0.997333
0.995081
1
0.995061
0.996243
0.990067
0.977859
0.992325
0.983764
0.991026
0.986021
0.996684
1
1
1
1
1
1
1
1
0.996024
0.999043
0.96411
0.987071
0.988933
0.998086
0.976655
0.989676
0.986967
0.994899
0.975577
0.996626
0.98597
0.994654
0.978898
0.96912
0.950043
0.944866
0.99293
0.986281
0.977581
0.987161
0.99144
0.993404
0.990453
0.990095
0.991582
0.992538
0.98648
0.973583
0.962083
0.996152
0.976352
0.997426
0.988015
0.98719
0.996184
0.995334
0.996824
0.99978
0.992638
0.990282
0.993025
0.995398
0.983351
0.974644
0.98373
0.987871
0.997786
0.925177
0.987716
0.981465
1
0.981262
0.994985
0.993294
0.993415
0.985227
0.999669
0.989196
0.970688
0.976206
0.992104
0.997471
0.992973
0.995239
0.990433
0.995305
0.984266
0.987244
0.975419
0.98821
0.969079
0.989758
0.992216
0.996811
0.991698
0.992836
0.986948
0.992575
0.982873
0.980287
0.987592
0.995884
0.997977
0.998086
0.967206
0.989343
0.992332
1
0.971482
0.989677
0.97985
0.983687
0.969272
0.993137
0.981919
0.979637
0.983849
0.977416
0.937941
0.939272
0.995347
1
0.97646
0.990697
0.994732
0.992865
1
0.993236
0.990582
0.993635
0.983962
0.956091
0.957485
0.996921
0.988507
0.992399
0.996811
0.970242
0.973172
0.993821
0.996981
0.989116
0.994911
0.99462
0.996235
0.993657
0.970814
0.968516
0.978401
0.985787
0.998145
0.921652
0.986879
0.982957
0.999967
0.988991
0.997955
0.987654
0.996786
0.975458
0.998715
0.982528
0.970315
0.977042
0.996865
0.997911
0.980101
0.990672
0.986145
0.973984
0.986708
0.987463
0.976597
0.979884
0.983737
0.994062
0.9988
1
0.994092
0.987802
0.974622
0.987827
0.98516
0.976287
0.99524
0.991629
0.993861
0.999373
0.946002
0.99116
0.994287
1
0.966477
0.989829
0.983495
0.985008
0.984921
0.995261
0.990186
0.976107
0.984977
0.988127
0.917583
0.90709
0.991573
0.992537
0.971698
0.993355
0.990232
0.991438
0.991441
0.993236
0.991827
0.989684
0.979629
0.96348
0.953862
1
0.979259
0.98377
0.992523
0.982626
0.989705
0.992216
0.984324
1
0.996456
0.982273
0.986407
0.985221
0.966357
0.955839
0.983016
0.990913
1
0.945848
0.976995
0.985878
0.999056
0.987418
0.999934
0.990477
0.989487
0.975729
0.999045
0.989445
0.95871
0.973081
0.991447
0.994722
0.988431
0.992995
0.9989
0.983525
0.979917
0.98086
0.970745
0.981456
0.958413
0.98464
0.976805
0.99945
0.987882
0.987764
0.972088
0.988974
0.975126
0.95329
0.98065
0.98284
0.989328
0.999967
0.962541
0.990495
0.996272
0.998681
0.957985
0.983472
0.985673
0.990212
0.974072
0.997964
0.987467
0.990059
0.979942
0.968162
0.916815
0.919474
0.995379
0.996817
0.960665
0.995047
0.987707
0.9945
0.993635
0.998309
0.994423
0.988147
0.988099
0.949193
0.958323
0.995822
0.990094
0.985315
1
0.978409
0.986496
0.993185
0.981536
1
0.995972
0.993303
0.989612
0.99261
0.970118
0.970118
0.985772
0.988887
0.999675
0.963992
0.986491
0.985759
0.999284
0.967071
0.989028
0.985419
0.99273
0.977241
0.993245
0.992134
0.966566
0.978034
0.989899
0.996811
0.981284
0.997717
1
0.979467
0.980847
0.977555
0.969996
0.981299
0.964682
0.991608
0.988848
1
0.991245
0.987919
0.967026
0.981226
0.975239
0.961641
0.985559
0.992606
0.984375
0.99967
0.946793
0.991494
0.992784
1
0.965353
0.990768
0.977948
0.985315
0.973609
0.99773
0.980996
0.994436
0.981632
0.963174
0.920874
0.957604
0.988312
0.98683
0.956213
0.986832
0.993634
0.993454
0.983428
0.992602
0.998838
0.99989
0.987118
0.959299
0.96815
1
0.983323
0.970902
1
0.986999
0.986132
0.99373
0.982659
1
0.991186
0.985601
0.987939
0.979991
0.974298
0.976945
0.9873
0.989245
0.998731
0.956825
0.981998
0.987547
0.999252
0.985052
0.997562
0.9905
0.996245
0.979938
0.997792
0.991165
0.984959
0.986987
0.993382
0.99934
0.977862
0.988699
0.996811
0.988371
0.984597
0.969085
0.988253
0.983659
0.976786
0.990487
0.988887
1
0.989851
0.988848
0.956477
0.99005
0.980378
0.956258
0.990708
0.988142
0.98584
0.998846
0.97154
0.992433
0.990409
0.999868
0.976096
0.993553
0.978707
0.991213
0.97728
0.997296
0.989018
0.990027
0.971515
0.958762
0.952496
0.960332
0.990064
0.982
0.971854
0.983993
0.996817
0.992176
0.99583
0.994927
0.995468
0.992866
0.976476
0.951354
0.954072
0.997471
0.992609
0.995125
0.99934
0.991139
0.982983
0.996547
0.989046
1
0.98849
0.990555
0.976436
0.993935
0.973323
0.962666
0.990774
0.989454
0.999675
0.954081
0.98694
0.9885
0.997592
0.979882
0.997133
0.991952
0.997056
0.977409
1
0.99649
0.982231
0.9837
0.989666
1
0.986402
0.987538
1
0.984192
0.982539
0.984158
0.98399
0.983296
0.987348
0.996577
0.989932
1
0.993759
0.988771
0.946368
0.980874
0.965444
0.934388
0.988269
0.987793
0.980888
0.992317
0.977671
0.993946
0.992423
1
0.959954
0.990223
0.982734
0.994527
0.977224
0.99793
0.982581
0.987048
0.980106
0.958833
0.969637
0.9462
0.994805
0.996817
0.983352
0.993627
0.996817
0.992912
0.996598
0.994565
0.989542
0.993525
0.973956
0.945221
0.963551
0.993623
0.980963
0.977382
1
0.98135
0.964725
0.998243
0.983278
1
0.996426
0.991058
0.979573
0.985569
0.976736
0.963153
0.98694
0.987547
0.996323
0.956489
0.989966
0.9871
0.996974
0.97842
0.999967
0.992708
0.996545
0.984096
0.99967
0.992739
0.978873
0.979922
0.982003
0.985266
0.981981
0.977359
0.992303
0.962871
0.989046
0.961275
0.983369
0.985051
0.977007
0.986973
0.984008
1
0.987367
0.988112
0.97791
0.988307
0.967983
0.942411
0.985481
0.981306
0.989119
0.998516
0.977052
0.987135
0.991251
0.999143
0.975646
0.989194
0.991397
0.980906
0.978863
0.993423
0.99213
0.986288
0.982819
0.969195
0.967328
0.948369
0.992178
1
0.978358
0.997916
0.993634
0.997018
1
0.995984
0.991905
1
0.988728
0.974982
0.966476
1
0.982588
0.972658
1
0.989127
0.984618
0.990701
0.976773
1
0.989853
0.974803
0.967576
0.97644
0.970329
0.965311
0.99437
0.99431
0.998048
0.971999
0.989305
0.993981
0.994826
0.992525
1
0.99885
0.995945
0.977188
0.996342
0.993496
0.985236
0.981674
0.978716
0.996921
0.969052
0.98475
1
0.982464
0.982084
0.990428
0.980504
0.985597
0.975578
0.976131
0.976537
0.996371
0.984062
0.972969
0.968786
0.986331
0.970435
0.963844
0.98769
0.97419
0.983609
1
0.967883
0.990799
0.991942
0.997757
0.990945
0.987498
0.986698
0.992033
0.983551
0.989649
0.994815
0.987414
0.985591
0.98628
0.937591
0.93459
0.999426
1
0.979248
0.997372
1
0.995932
0.998902
0.999124
0.99725
0.994733
0.99167
0.966061
0.960621
1
0.982243
0.984681
1
0.983939
0.989643
0.99149
0.966484
1
0.990882
0.982191
0.963052
0.981594
0.971792
0.96552
0.98808
0.992494
0.997495
0.95363
0.98631
0.993445
0.993459
0.985162
0.998715
0.99298
0.994022
0.98601
0.999044
0.993859
0.989924
0.988179
0.984985
1
0.989433
0.987072
1
0.984764
0.985201
0.988558
0.984302
0.989894
0.983829
0.986065
0.988383
0.997251
0.986639
0.989545
0.955707
0.989662
0.966686
0.94747
0.992141
0.978238
0.978654
1
0.979922
0.987621
0.993625
0.998615
0.976882
0.986499
0.989386
0.988387
0.982822
0.993989
0.990847
0.992215
0.987847
0.982844
0.937808
0.938991
0.998822
1
0.979361
0.994804
0.996817
0.995198
1
0.998309
1
1
1
0.966832
0.963614
0.996812
0.990019
0.994914
0.993621
0.99048
0.990036
0.992005
0.990247
1
0.996032
0.987302
0.974558
0.978733
0.974369
0.972834
0.983559
0.987816
0.993526
0.957774
0.97825
0.993922
0.973803
0.981683
0.998089
0.99395
0.994351
0.989321
0.999044
0.99655
0.978736
0.978309
0.989088
1
0.993036
0.992297
1
0.991731
0.984539
0.972281
0.985111
0.978087
0.969411
0.990792
0.989701
1
0.994122
0.984936
0.948355
0.993226
0.971092
0.957131
0.984704
0.981375
0.98333
0.998483
0.985657
0.985926
0.992303
0.997197
0.97801
0.984652
0.991155
0.987506
0.99288
0.995325
0.989199
0.992093
0.987169
0.981794
0.959075
0.96047
0.99695
0.996818
0.977735
0.994804
0.996817
1
1
0.99843
0.99477
1
0.989636
0.975679
0.982297
1
0.994003
0.991795
1
0.989358
0.994368
0.998001
0.98777
1
0.993972
0.985172
0.985153
0.993236
0.986349
0.985163
0.990805
0.990766
0.981132
0.982191
0.98631
0.993206
0.986039
0.988426
0.997529
0.989503
0.996875
0.980609
0.998616
0.987744
0.969993
0.981668
0.993924
1
0.995276
0.990904
1
0.990731
0.979729
0.957212
0.989376
0.982748
0.976563
0.993609
0.990011
1
0.991819
0.987414
0.96187
0.989084
0.974902
0.956471
0.977502
0.991212
0.99421
0.994824
0.986054
0.977998
0.99591
0.998945
0.971029
0.981381
0.987861
0.987688
0.979093
0.994691
0.988711
0.988931
0.990052
0.967999
0.948657
0.955357
0.994685
0.993634
0.981918
0.993053
1
0.999613
0.996817
1
0.998838
1
0.988586
0.986343
0.981528
1
0.991953
0.992886
1
0.990983
0.994731
0.998243
0.994774
1
0.99894
0.991794
0.987311
0.993656
0.970608
0.982864
0.990087
0.990557
0.988939
0.97446
0.99305
0.992163
0.991409
0.988312
0.998089
0.992437
0.996395
0.983365
0.997528
0.991073