/*--------------------------------*- C++ -*----------------------------------*\
| =========                 |                                                 |
| \\      /  F ield         | OpenFOAM: The Open Source CFD Toolbox           |
|  \\    /   O peration     | Version:  5.x                                   |
|   \\  /    A nd           | Web:      www.OpenFOAM.org                      |
|    \\/     M anipulation  |                                                 |
\*---------------------------------------------------------------------------*/
FoamFile
{
    version     2.0;
    format      ascii;
    class       volScalarField;
    location    "1.35";
    object      Ksl;
}
// * * * * * * * * * * * * * * * * * * * * * * * * * * * * * * * * * * * * * //

dimensions      [1 -3 -1 0 0 0 0];

internalField   nonuniform List<scalar> 
10571
(
2425.4
219.466
3366.37
389.699
6483.26
6573.54
863.654
698.745
680.963
632.281
7178.6
2190.46
343.956
1298.32
617.28
2989.86
5197.83
3990.92
1167.92
4243.23
10782.7
7634.99
5797.87
6976
10359.2
6513.52
2914.47
3971.99
3580.1
2731.78
859.887
2957.13
1786.04
6895.51
4867.22
1190.45
1576.63
2527.13
642.293
7171.41
3180.34
1323.85
854.82
647.977
86.4493
3135.4
237.949
376.693
4699.7
6422.59
310.7
1957.27
5415.79
241.707
1157
1602.25
3157.4
1206.66
3205.77
2437.03
2468.7
1277.03
3929.9
3181.08
4059.15
1299.61
543.734
19.4384
1114.93
2340.69
449.019
1045.59
5412.82
8064.01
26.6584
812.281
3069.13
784.966
1829.11
3006.32
1207.57
712.66
1376.86
4663.62
3990.2
5140.96
3188.52
308.053
441.305
3999.59
3998.24
3434
5744.42
8415.37
6597.49
1122.19
8172.37
9447.17
1089.28
1447.81
516.353
2805.75
6115.48
1372.92
346.898
850.641
645.713
751.845
1452.04
1209.9
537.668
617.654
479.705
773.071
939.328
3450.06
6667.97
1769.41
5417.4
5506.58
3153.05
4436.49
897.438
4677.6
850.661
544.378
315.343
1133.79
162.464
792.924
11378.8
189.793
93.3536
41.5466
63.5628
54.902
1105.6
10309.6
335.807
20.9319
56.6848
83.0022
270.426
19.2283
10.7727
72.7712
22.3174
173.516
43.0474
27.0402
724.154
70.9811
28.4595
33.4116
78.6954
102.799
574.474
71.7951
83.0585
21.0712
44.6637
45.0257
31.6249
288.969
64.5139
9.06094
24.8245
27.7439
120.958
221.401
16.9783
10.9652
45.6907
0
62.5884
52.1621
4.88731
22.7394
44.6909
16.3837
20.5059
50.3311
74.3666
8.01236
30.4384
59.0758
13.3489
31.8929
53.7849
42.1349
2.61601
16.0567
5.68819
27.6221
27.7746
64.4595
5.03648
-2.33303e-14
12.6671
11.5508
0.829692
13.171
22.5702
14.1923
12.8483
61.5796
15.8716
25.1668
27.8178
44.5025
0
24.5143
119.545
9.66014
19.8328
47.2736
44.6007
2.86142
10.1972
3.01598
8.65673
14.6004
20.8914
5.73953
0.614439
-4.59788e-13
0
16.6781
21.4955
21.5588
16.8746
21.9864
14.1917
20.5242
45.0406
44.7293
40.5401
24.4342
8.98798
11.6677
24.2657
26.8057
12.3118
1.40558
4.76151
6.03554
6.59859
0
7.84658
17.1277
13.6501
0
11.049
38.9958
21.1614
17.8531
7.34679
23.1207
35.0286
42.5284
28.4084
26.9347
10.0416
15.8573
15.337
10.9156
12.2546
0.613568
4.71449
7.62392
26.7093
0
4.08921
0
0
8.05309
7.21549
9.35802
7.14237
5.71538
7.96593
18.4862
26.1408
25.8914
0
6.60283
3.53561
13.2922
11.9197
13.0188
0.203884
1.32859
5.85737
6.07233
-1.13804e-12
0
0
0
0
0
13.2737
0.144177
5.3309
0
5.77039
11.6039
14.5379
18.8302
0
0
4.02447
8.22487
7.29288
4.05763
0
0.683683
1.46793
0.510568
0
0
10.2108
-5.61468e-14
6.05449
9.66009
4.2003
9.66551
0.640457
7.80988
6.13873
10.31
7.01271
10.0889
0
15.7507
4.06598
8.00189
4.66128
4.25827
0
0
2.89815
0
10.7658
0
0
0.929534
0
8.73764
9.64651
4.39695
2.75441
0
3.09518
4.3287
9.89311
0
0
5.91723
2.6687
3.56047
0.282079
8.30162
0
0
2.16152
0
0
0
4.78791
0
0
0
13.4595
0
0
0
2.08031
2.27983
2.2883
4.31335
0
0
0.0176037
0.634241
0.740279
3.42722
0
0
0
2.18204
18.3264
0
0
0
0
0
5.0453
1.91435
3.78881
0
1.29655
1.16381
1.47417
0
0
0
0
0
4.95113
0
0
0
0
4.34958
5.38584
0
0
0
0
0
10.2725
0
0
0
0.808755
0
0.653005
0
0
0
0
0
0.794775
0
0
0
0
0
0
0
0
0
0
0
0
0
-1.48338e-13
0
0.654037
0.589453
0.0215258
0
0
0
0
0
1.06187
0
0
0
0
0
0
0
0
0
0
0
0
0
3.11935
0
0
1.36725
0.76604
6.8443
0
0
0
0
1.30117
0
0
0
0.698656
0
0
0
0
0
0
0
0
0
0
0
0
0
-1.78041e-14
0
0
0
0
0.693339
0
0
0.213772
0
0
0
0
0
0
8.83652
0
0
0
0
0
0
0
0.702935
0
0
0
0
0
0
0
0
0
0
0
0
0
0
0
0
0
0
0
0
0
0
0
0
0
0
0
0
0
0
0
0
0
0
0.636475
0
0
-7.79095e-13
0
0
0
0
0
0
0
0
0
0
0.798909
0
0
0
0
0
0
0
0
0
0
0
0
0
0
0
0
0
0
0
0
0
0
0
0
0
0
0
0
0
0.0272423
0
0
0
0
0
0
0
0
0
0
0
0
0
0
0
0
0
0
0
0
0
0
0
0.672286
0
0
0
0
0
0
0
0
0
0
0
0
0
0
0
0
0
0
0
0
0
0
0.650868
0
0
0
0
0
0
0
0
0
0
0
0
0
0
5.82116
0
0
0
0
0
0
0
0
0
0
0
0
0
0
0
0
0
0
0
0
0
0
0
0
0
0
0
0
0
0
0
0
0
0
0
0
0
0
0
0
0
0
0
0
0
0
0
0
0
0
0.680821
0
0
0
0
0
0
0
0
0
0
0
0
0
0
0
0
0
0
-4.2075e-13
0
0
0
0
0
0
0
0
0
0
0
0
0
0
0
0
0
0
0
0
0
0
0
0
0
0
0
0
0
0
0
0
0
0
0
0
0
0
0
0
0
0
0
0
0
0
0
0
0
0
0
0
0
0
0
0
0
0
0
0
0
0
0
0
0
0
0
0
0
0
0
0
0
0
0
0
0
0
0
0
0
0
0
0
0
0
0
0
0
0
0
0
0
0
0
0
0
0
0
0
0
0
0
0
0
0
0
0
0
0
0
0
0
0
0
0
0
0
0
0
0
0
0
0
0
0
0
0
0
0
0
0
0
0
0
0
0
0
0
0
0
0
0
0
0
0
0
0
0
0
0
0
0
0
0
0
0
0
0
0
0
0
0
0
0
0
0
0
0
0
0
0
0
0
0
0
0
0
0
0
0
0
0
0
0
0
0
0
0
0
0
0
0
0
0
0
0
0
0
0
0
0
0
0
0
0
0
0
0
0
0
0
0
0
0
0
0
0
0
0
0
0
0
0
0
0
0
0
0
0
0
0
0
0
0
0
0
0
0
0
0
0
0
0
0
0
0
0
0
0
0
0
0
0
0
0
0
0
0
0
0
0
0
0
0
0
0
0
0
0
0
0
0
0
0
0
0
0
0
0
0
0
0
0
0
0
0
0
0
0
0
0
0
0
0
0
0
0
0
0
0
0
0
0
0
0
0
0
0
0
0
0
0
0
0
0
0
0
0
0
0
0
0
0
0
0
0
0
0
0
0
0
0
0
0
0
0
0
0
0
0
0
0
0
0
0
0
0
0
0
0
0
0
0
0
0
0
0
0
0
0
0
0
0
0
0
0
0
0
0
0
0
0
0
0
0
0
0
0
0
0
0
0
0
0
0
0
0
0
0
0
0
0
0
0
0
0
0
0
0
0
0
0
0
0
0
0
0
0
0
0
0
0
0
0
0
0
0
0
0
0
0
0
0
0
0
0
0
0
0
0
0
0
0
0
0
0
0
0
0
0
0
0
0
0
0
0
0
0
0
0
0
0
0
0
0
0
0
0
0
0
0
0
0
0
0
0
0
0
0
0
0
0
0
0
0
0
0
0
0
0
0
0
0
0
0
0
0
0
0
0
0
0
0
0
0
0
0
0
0
0
0
0
0
0
0
0
0
0
0
0
0
0
0
0
0
0
0
0
0
0
0
0
0
0
0
0
0
0
0
0
0
0
0
0
0
0
0
0
0
0
0
0
0
0
0
0
0
0
0
0
0
0
0
0
0
0
0
0
0
0
0
0
0
0
0
0
0
0
0
0
0
0
0
0
0
0
0
0
0
0
0
0
0
0
0
0
0
0
0
0
0
0
0
0
0
0
0
0
0
0
0
0
0
0
0
0
0
0
0
0
0
0
0
0
0
0
0
0
0
0
0
0
0
0
0
0
0
0
0
0
0
0
0
0
0
0
0
0
0
0
0
0
0
0
0
0
0
0
0
0
0
0
0
0
0
0
0
0
0
0
0
0
0
0
0
0
0
0
0
0
0
0
0
0
0
0
0
0
0
0
0
0
0
0
0
0
0
0
0
0
0
0
0
0
0
0
0
0
0
0
0
0
0
0
0
0
0
0
0
0
0
0
0
0
0
0
0
0
0
0
0
0
0
0
0
0
0
0
0
0
0
0
0
0
0
0
0
0
0
0
0
0
0
0
0
0
0
0
0
0
0
0
0
0
0
0
0
0
0
0
0
0
0
0
0
0
0
0
0
0
0
0
0
0
0
0
0
0
0
0
0
0
0
0
0
0
0
0
0
0
0
0
0
0
0
0
0
0
0
0
0
0
0
0
0
0
0
0
0
0
0
0
0
0
0
0
0
0
0
0
0
0
0
0
0
0
0
0
0
0
0
0
0
0
0
0
0
0
0
0
0
0
0
0
0
0
0
0
0
0
0
0
0
0
0
0
0
0
0
0
0
0
0
0
0
0
0
0
0
0
0
0
0
0
0
0
0
0
0
0
0
0
0
0
0
0
0
0
0
0
0
0
0
0
0
0
0
0
0
0
0
0
0
0
0
0
0
0
0
0
0
0
0
0
0
0
0
0
0
0
0
0
0
0
0
0
0
0
0
0
0
0
0
0
0
0
0
0
0
0
0
0
0
0
0
0
0
0
0
0
0
0
0
0
0
0
0
0
0
0
0
0
0
0
0
0
0
0
0
0
0
0
0
0
0
0
0
0
0
0
0
0
0
0
0
0
0
0
0
0
0
0
0
0
0
0
0
0
0
0
0
0
0
0
0
0
0
0
0
0
0
0
0
0
0
0
0
0
0
0
0
0
0
0
0
0
0
0
0
0
0
0
0
0
0
0
0
0
0
0
0
0
0
0
0
0
0
0
0
0
0
0
0
0
0
0
0
0
0
0
0
0
0
0
0
0
0
0
0
0
0
0
0
0
0
0
0
0
0
0
0
0
0
0
0
3608.98
761.826
2115.56
1160.07
1102.06
2139.81
1517.46
4036.75
5694.52
1888.05
2172.79
2898.69
1518.19
2857.72
3973.15
1025.78
2216.09
1347.57
2332.28
4375.54
5990.99
5311.48
8662.41
3269.67
2734.92
1179.93
6783.46
856.783
1470.94
4624.29
2647.26
1244.5
1080.52
796.388
739.995
837.904
3417.7
3732.1
4954.54
5569.43
3281.8
1008.21
627.086
3533.1
2728.1
760.532
1431.92
843.168
2275.98
1550.11
3985.32
949.212
1015.33
3101.95
3301.05
1170.59
4477.77
1422.32
3629.76
5168.25
3249.05
2745.04
5796.7
3537.24
4479.86
2619.74
2979.09
2657.33
766.762
1646.19
4664.81
3835.86
1096.93
4419.59
3484.03
1252.7
2956.66
2873.08
1723.4
1286.88
8682.08
3354.69
6996.1
3543.46
4268.58
8276.75
5967.75
6057.54
6372.57
6826.97
6525.79
6870.34
6719.59
5554.01
7457.31
5372.42
454.478
1374.93
1234.81
996.906
3374.83
6552.05
4234.81
7759.22
2563.87
2938
7594.6
7451.39
8227.31
7531.85
11490.2
4620.55
5689.54
996.375
2676.77
841.027
3454.06
5063.7
3972.03
3390.66
10035.4
1446.31
1954.3
7637.79
11179.2
1971.21
4203.21
930.112
4803.19
7878.29
2859.4
3192.84
8425.93
8088.44
7475.71
1121.97
0
4836.59
5555.47
552.416
7183.35
8267.83
10225
9364.56
9355.26
0
6822.74
6419.64
1389.96
6574.78
7490.61
4263.43
2946.3
6521.81
4967.88
3779.86
4621.82
11189.4
7111.2
7221.27
3707.16
6320.73
808.151
1480.54
4903.1
3203.34
3467.84
9194.61
9073.2
7346.78
9727.79
3409.19
1102.93
3451.13
5776.75
7876.11
758.593
3975.8
2304.09
4407.48
5667.53
7929.11
10265
7750.97
9413.42
8586.1
5647.27
3111.58
8887.05
8020.46
7834.97
1501.96
2204.69
8317.88
2292.34
6745.62
8084.9
7181.43
1627.86
2646.37
5496.28
3942.53
2343.19
653.831
9539.98
2132.96
4262.66
3515.23
6023.63
1413.23
3984.54
7860.56
6779.2
8903
10827.8
7807.37
8307.44
10352.4
8359.52
7809.08
6633.05
3336.31
5045.25
5832.04
2022.6
6183.19
2724.55
1334.41
2045.77
6530.46
1253.88
8762.58
6179.53
2780.19
5288.5
7495.83
3806.34
3906.64
5096.75
4095.47
3146.54
1006.74
1878.86
490.481
587.874
89.2653
487.709
225.461
48.6281
64.8138
151.512
4807.44
2148.92
398.783
1465.47
2511.96
482.495
1702.86
440.024
740.056
211.822
317.787
801.116
231.778
6396.44
5829.92
5049.94
2912.84
1013.17
4424.84
1934.87
878.647
1112.67
1045.49
4381.95
1060.72
1169.14
2159
2326.16
9861.66
10427.8
2214.35
2879.96
755.749
7309.43
1653.77
3622.34
568.798
8383.45
735.905
2931.27
4730.68
4957.65
591.52
893.075
2921.6
1184.89
7942.84
9204.65
8804.8
8635.39
6760.21
9917.16
1192.47
1540.99
823.064
360.563
531.641
3242.56
917.893
1724.44
3278.75
765.085
3209.85
4907.77
708.434
1217.93
4775.31
3347.42
1346.67
3584.84
4033.03
911.395
1335.94
2294.12
7208.3
3972.47
63.9786
55.0824
26.0974
25.4667
655.752
479.407
588.295
3562.52
2166.11
4908.55
781.514
2148.95
3897.68
3096.68
2954.6
1308.76
1831.92
2276.35
3098.83
3907.66
2135.05
5586.06
7519.83
5126.88
2180.14
1392.08
5803.14
3066.5
2136.28
1257.49
1153.38
5938.69
1538.77
1385.89
2451.71
3905.63
11756.4
11697.4
1045.1
3151.16
135.588
9301.83
1699.18
2608.65
48.4721
1946.56
365.863
476.094
1120.76
934.255
524.436
585.883
523.116
387.769
9670.94
3646.65
9731.4
9392.94
2722.12
7808.77
419.89
301.17
829.145
839.596
223.33
1953.2
587.839
1415.64
1304.62
541.976
507.545
4173.75
70.7697
179.519
1488.94
784.812
924.674
525.245
3261.22
6931.35
312.929
369.142
956.349
2203.87
3921.17
1870.44
940.494
6748.2
8298
3088.53
903.442
8425.11
9969.2
5985.09
8147.82
5326.93
10594.4
11515.3
11873.3
3328.44
5971.53
11289.3
5766.84
11499.1
969.713
10444.5
11510.3
8786.54
7566.81
5451.57
9748.68
10128
10266.6
3140.02
2682.7
10359.3
5883.05
4519.64
4850.68
6094.1
11628
11128.3
3789.59
3495.89
995.14
10457.2
8285.33
6241.63
5093.33
822.208
319.822
257.446
466.71
824.92
164.211
382.658
842.283
924.357
10243.2
1069.58
3767.25
8073.27
687.358
870.705
1628.43
70.6812
822.917
2167.92
1034.69
588.083
408.622
300.396
247.79
271.792
28.6851
1042.35
2708.93
943.63
892.117
656.124
533.161
193.094
662.649
176.263
704.652
140.183
409.85
121.631
7682.51
6001.3
6509.64
154.012
859.635
503.949
2737.25
1188.01
202.897
87.795
5417.07
9585.05
72.9102
115.642
195.115
4746.72
9059.96
48.6957
87.5541
93.0847
596.294
5473.5
656.689
2979.8
3025.98
2349.54
50.3201
115.136
28.1989
5000.3
8279.17
81.6981
214.247
1622.19
8068.94
4868.88
3265.93
282.138
1212.39
1509.88
309.157
482.55
284.236
211.441
50.9781
1077.18
170.143
522.962
2155.68
1395.84
404.608
595.669
1350.45
937.776
932.096
244.401
221.469
98.3388
210.258
106.369
3829.45
785.076
6850.46
274.04
2467.73
51.6304
1836.48
11115.1
9668.98
11066.5
10308.8
10820.4
9999.88
10119.1
238.359
236.05
164.572
208.641
192.994
7272.31
651.138
3703.71
89.9697
1964.14
93.4603
2203.6
13159.1
9839.74
11940.2
9490.7
10409.4
9218.8
10001.6
308.652
115.356
105.516
206.201
66.0715
118.713
62.073
114.452
55.2848
106.416
103.44
193.617
76.7257
127.136
64.4448
174.243
64.3481
79.5028
53.8671
17.5355
34.7127
9.23848
6.66638
-3.63737e-13
21.5201
3.28658
13.7447
11.3908
22.3141
60.5159
149.391
27.8674
9.99934
26.7429
12.8424
24.5333
35.1349
13.0266
19.8245
54.8055
11.1858
7.04888
30.9422
521.281
103.336
150.797
62.1586
178.957
144.243
73.175
102.107
144.77
82.276
83.9579
2134.82
352.451
566.413
273.128
852.32
243.961
335.708
361.689
54.1196
127.724
18.1644
187.694
887.984
-3.51093e-13
0
98.9669
114.394
111.774
95.8477
33.2755
72.2457
59.5802
50.2339
26.9031
93.9247
12.5884
46.8711
16.7932
4422.18
276.235
3524.4
2.68409
2.02625
7.36997
3.11864
141.971
102.068
81.1579
87.9431
97.6491
44.8593
40.1603
83.5362
21.0097
40.5834
58.366
35.2042
2790.32
472.128
3440.46
16.7405
0
3.73308
2.99267
62.3643
24.3887
53.2074
19.7498
11.8144
69.9979
39.7492
19.5426
10.0066
107.273
42.772
171.195
71.6367
73.1247
23.1357
47.0319
87.3116
62.6426
41.3268
1109.43
9.72685
4.33361
32.5258
20.3533
6.84392
0
11.6916
7.97047
0
16.6885
0
7.03916
5.10833
0
45.4385
21.0752
9.75669
23.5405
18.2841
13.0995
20.9427
10.8069
8.44565
10.9168
19.09
0.656877
14.1656
11.5788
19.1271
25.3399
67.2782
37.5215
94.2504
70.8069
61.8527
70.3199
81.9153
50.074
121.837
24.1653
148.9
184.778
22.0271
32.0323
28.8631
58.0333
29.989
6.81545
26.7234
0
0
0
0
0
53.1718
47.9311
47.4931
71.7889
34.435
91.4007
16.6297
28.7827
32.098
54.019
15.422
37.2926
8.9706
0
4.80453
2.68138
0
0
2.58085
-1.74142e-13
64.1034
52.4039
31.5971
78.8857
51.4325
14.8616
45.2155
16.4454
34.8994
14.0897
20.2691
3.28439
0.860441
7.6457
2.60512
0
0
8.20541
0
19.1206
10.4286
14.0349
18.9309
9.60841
27.6189
7.27966
6.46869
0
70.6942
15.8446
33.7931
33.1178
25.844
12.0482
18.9431
13.559
18.3014
7.15845
0
13.7745
0
36.5745
-4.47915e-13
2.49372
0
10.0879
7.82237
0
16.99
0
9.9047
8.08659
-7.18452e-13
21.6213
9.07443
48.0974
49.87
24.4963
12.4006
12.8482
18.9972
10.3365
2.20165
12.3969
12.2509
7.36776
12.1005
30.2277
11.1757
31.3407
30.0241
36.4096
60.8224
79.6436
28.2501
34.0113
60.2176
74.3135
15.9028
41.3708
15.7919
24.4947
36.7766
21.1293
36.3918
29.6991
48.4219
28.0969
0
25.1808
27.0563
28.9441
36.8634
6.03941
16.2654
14.9974
28.6891
0
27.9919
7.56958
0
1.56538
0
0
0
0
0
43.8898
26.1829
6.43873
14.8204
16.9624
18.7397
20.4251
13.032
11.6058
11.5746
11.2859
0
0
0
0
3.51235
0
0
0
52.7657
10.7437
18.9989
9.88576
0
6.43918
14.1185
12.0455
4.49725
11.8651
7.96654
8.00877
10.8073
4.08704
0.217006
13.4598
22.1048
11.1898
0
0.883095
15.4973
0
0
4.05352
15.6476
14.0548
0
5.67636
0
9.29968
10.6871
17.7259
0
3.33886
12.6874
0
19.3238
8.08972
12.2141
5.40255
16.9933
13.9082
13.0803
8.07008
7.28262
8.73505
16.2163
24.5886
25.2068
24.1051
4.60858
12.8519
13.2842
10.0225
14.6944
35.3278
19.4204
22.7994
23.3916
21.7877
27.4168
46.4754
26.7655
9.71539
11.9454
22.1704
15.6816
0
27.4109
14.3366
11.511
43.7025
36.9684
0
22.4497
12.9456
4.17232
14.0572
8.709
13.3788
15.4227
15.799
8.46817
12.8652
-4.00371e-14
20.0445
6.77342
14.5851
4.51413
12.7193
5.22851
-4.16516e-14
9.0373
26.2969
4.45038
8.49141
13.4187
10.4959
4.02384
8.11261
8.70504
0
0
0
0
5.53906
0
0
5.78239
12.0539
12.3467
2.74375
0
-1.13846e-12
0
18.0361
0
9.73266
11.2213
0
4.19109
28.7506
3.93344
6.11026
0
12.4194
16.8217
10.7009
0.334743
1.76501
0
11.4642
1.66155
14.141
15.651
3.59757
4.10878
22.6601
3.61161
30.9712
21.9154
16.2586
6.02194
33.2285
43.3696
52.1096
13.5995
19.7702
11.765
12.6818
4.85641
0
0
18.0013
13.5219
8.22329
17.7658
22.4007
12.9038
7.03616
0
0.166108
0.252696
11.8259
11.3487
6.23969
0
17.4929
0
0
0
0
-6.08951e-13
3.54556
0
0
0
1.96058
0
0
0
8.18008
0
7.73372
14.7685
9.11441
0
0
0
0
0
15.6132
12.8066
3.21835
0.252797
5.84396
15.7598
0
1.40759
9.98624
0
5.71493
7.87594
16.1842
10.3017
4.62519
15.4503
14.4679
0
5.53268
15.6722
9.78619
15.6681
0
0
16.1349
4.48782
11.7442
7.64162
22.3783
5.7096
10.1176
23.3477
13.4926
12.9002
9.36136
0
14.319
12.0084
11.3249
35.5112
5.04566
0
0
0
0
4.52199
15.0384
0
-2.73609e-14
6.47621
0
17.319
14.5904
0
3.69484
0
24.7511
13.8534
9.86627
7.80573
0
0
0
0
19.1985
0
5.14346
0
0.392037
0
5.87484
8.75928
0
4.93845
6.16478
6.94967
0.613928
0
0
10.1324
0
0
5.75293
0
0
6.00521
0
0
7.81994
33.8078
1.11132
0
0
0
8.06043
6.94445
0
16.4804
4.82665
0
8.9371
0
0
4.70645
18.2983
7.78335
8.13553
0
6.40074
9.01502
9.93609
0
0
4.4886
5.32864
6.27977
6.30773
12.0158
12.6644
0
16.3698
8.47854
11.2745
10.8867
2.4186
0
6.67451
0
15.9127
6.61423
5.95641
19.0581
0
8.40235
6.95273
3.09068
0
0
4.50837
6.99877
22.1952
5.54835
0
-3.73046e-13
-3.92614e-13
0
9.40476
0
0
0
0
0
0
0
8.91838
0
4.10224
6.30484
0.176883
4.53903
0
0
0
0
4.23403
0
5.77279
0
0
4.01703
-2.23446e-12
0
0
0.798803
0
0
0
14.1277
12.9898
3.26704
0
0
4.09346
6.34499
19.2552
0
0
0
0
0
0
7.70611
4.5567
0
6.65316
-2.15085e-13
0
4.8462
16.2294
0
0
4.37158
0.760705
0
11.8681
0
7.29624
5.51008
0
0
0
0
0
0
9.39382
0
8.89498
19.0108
0
0
7.08083
0
0
0
10.5851
5.44771
12.6862
0
9.56307
0.334024
0
0
0
0
0
0
0
0
0
0
0
6.20138
5.12816
0
8.3773
0
0
0
0
15.9619
0
0
0
5.78633
16.8229
0
5.94171
0
-9.77278e-14
0
0
0
0
0.868517
0
0
3.25491
1.67717
13.8249
14.7501
3.95696
0
0
0
0
0
0
3.21394
0.324844
5.79177
0
3.06718
5.15645
0
7.25417
3.16635
0
6.53309
0
4.32999
3.13606
0
0
0
0
0
0
4.97164
-8.1534e-13
0
0
0
0
5.69597
0
0
0
0
0
0
4.29088
0
0
0
0
0
0
0
0
0
0
0
0
0
0
5.00101
0
0
0
3.45262
0
0
0
16.3203
0
0
0
0
0
0
11.6208
0
0.412509
0
7.15026
0
5.58438
0
0
0
0
2.32515
2.21874
0
4.28076
0
0
10.8125
0
0
9.39301
3.17137
10.568
0
8.15531
0
5.27666
0
0
-1.65254e-13
-1.50164e-14
0
0
0
0
0
0
0
0
10.0639
0
0
0
0
0
0
0
0
0
0
0
0
0
5.20075
0
0
-3.80271e-13
0
0
0
0
0
0
0
0
0
0
4.71901
0
0
0
0
0
0
0
0
0
0
0
0
0
0
0
0
5.87433
0
0
3.57293
11.1861
0
0
0
0
0
2.7968
6.85325
0
0
0
0
0
0
12.1065
5.29241
0
1.07187
8.76957
0
0
2.30201
7.2137
0
0
0
0
0
0
4.43971
0
0
0
0
0
0
0
0
0
0
0
8.42885
0
0
0
0
0
0
0
0
0
0
0
0
0
0
0
0
0
0
0
0
0
0
8.75368
0
0
0
0
7.67051
0
0
0
0
0
0
0
0
19.8533
0
0
0.580191
0
0
11.11
0
0
5.75283
0
5.90161
4.29694
0
0
0
0
0
0
0
0
0
9.97353
0
0
0
0
5.06
0
0
5.09174
0
0
8.28781
0
0
0
0
0
0
0
0
0
0
4.50206
0
5.12275
4.58285
0
0
0
0
0
0
0
0
0
0
0
0
0
0
0
0
0
9.39723
0
0
0
0
0
0.198573
3.21669
0
3.96999
0
0
0
0
0
0
0
0
0
0
0
0
0
0
0
0
0
0
0
0
0.190499
0
0
0
0
0
0
0
0
0
0
0
0
5.32291
0
0
0
0
0
0
0
14.7311
8.99346
0
0
0
0
0
0
0
0
0
0
0
0
0
0
0
0
0
0
0
0
0
0
0
0
0
0
0
0.19441
0
0
0
0
0
0
-1.9851e-13
0
9.06089
0
0
0
0
0
0
0
0
0
0
0
0
0
0
0
6.29073
0
0
0
0
0
0
0
0
0
0
0
0
0
0
0
0
0
0
0
0
0
5.31674
0
0
0
0
0
0
0
4.72211
0
0
0
0
0
0
0
0
0
0
0
0
0
1.12148
1.33554
0
0
0
0
0
0
0
0
0
15.1567
0
0
0
0
0
0
0
0
0
0
0
0
0
0
0
0
0
0
0
0
0
0
0
0
0
1.00572
0
0
0
0
0
0
0
0
0
0
0
0.294682
0
0
0
0
0
0
0
0
0
0
0
0
0
0
0
0
0
0
0
0
4.67396
0
0
4.62784
0
0
0
0
0
0
0
0
3.62593
0
5.62833
0
0
0
0
0
0
0
0
0
0
0
5.51273
0
0
0
5.34954
1.34583
4.44242
0
0
0
0
0
0
0
0
0
0
0
0
0
0
0
0
0
0
0
0
0
0
0
3.67267
0
0
0
6.76652
0
0
0
0
0
0
0
0
0
0
0
0
0
0
0
0
0
0
0
0
0
0
0
0
0
0
0
0
0
0
0
0
0
0
0
0
0
0
0
0
0
0
0
0
0
0
0
4.45244
0
0
0
0
0
0
0
0
0
0
0
0
0
0
0
0
0
0
0
0
0
0
0
10.3596
0
0
0
0
3.86717
2.06713
0
0
0
0
0
0
0
19.5205
0
0
0
0
0
0
0
0
0
0
0
0
0
0
0
0
0
0
0
0
0
0
0
0
0
0
0
0
0
0
0
0
4.33232
0
0
0
0
0
0
0
0
0
0
0
0
0
0
0
0
0
0
0
0
0
0
0
0
0
0
0
0
0
0
0
0
0
0
0
0
0
0
0
0
0
0
0
0
0
0
0
-7.83119e-14
0
0
0
0
0
0
0
0
0
0
0
0
0
0
0
0
0
0
0
0
0
0
0
4.69962
0
0
0
0
0
0
0
0
0
0
0
0
0
0
0
0
0
0
0
0
0
0
0
0
0
15.3671
0
0
0
0
0
0
0
0
0
0
0
0
0
0
0
0
0
0
0
0
0
0
0
0
0
0
0
0
0
0
0
0
13.0934
0
0
0
0
0
0
0
0
0
0
0
0
0
0
0
0
0
0
0
0
0
0
0
0
0
0
0
0
0
0
0
0
0
0
0
0
0
0
0
0
0
0
0
0
0
0
0
0
0
0
0
0
0
0
0
0
0
0
0
0
0
0
0
0
0
0
0
0
0
0
0
0
0
0
0
0
0
0
0
0
0
0
0
0
0
0
0
0
0
0
0
0
0
0
0
0
0
0
0
0
0
0
0
0
0
0
0
0
0
0
0
0
0.208159
0
0
0
0
0
0
0
0
0
0
0
0
0
0
0
0
0
0
0
0
0
0
0
0
0
0
0
0
0
0
0
0
0
0
0
0
0
0
0
0
0
0
0
0
0
0
0
0
0
0
0
0
0
0
0
0
0
0
0
0
0
0
0
0
0
0
0
0
0
0
0
0
0
0
0
0
0
0
0
4.25703
0
0
0
0
0.992263
0
0
0
0
0
0
0
0
0
0
0
0
0
0
0
0
0
0
0
0
0
0
0
0
0
0
0
0
0
0
0
0
0
0
0
0
0
0
0
0
0
0
0
0
0
0
0
0
0
0
16.9929
0
0
0
0
0
4.78898
0
0
0
0
0
0
0
0
0
0
0
0
0
0
0
0
0
0
0
0
0
0
0.165399
0
0
0
9.22875
0
0
0
0
0
0
0
0
0
0
0
0
0
0
0
0
0
0
0
0
0
0
0
0
0
0
0
0
0
0
0
0
0
0
0
0
0
0
10.5694
0
0
0
0
0
0
0
0
0
0
0
0
0
0
0
0
0
0
0
0
4.76136
0
0
0
0
0
0
0
0
0
0
0
0
0
0
0
0
0
0
0
0
0
0
0
0
0
0
0
0
0
0
0
0
0
0
0
0
0
0
0
0
0
0
0
0
0
0
0
0
0
0
0
0
0
0
0
0
0
0
0
0
0
0
0
0
0
0
0
0
0
0
0
0
0
0
0
0
0
0
0
0
0
0
0
0
0
0
0
0
0
0
0
0
0
0
0
0
0
5.44203
0
0
0
0
0
0
0
0
0
0
0
0
0
0
0
0
0
0
0
0
0
0
0
0
0
0
0
0
0
0
0
0
0
0
0
0
0
0
0
0
0
0
0
0
0
0
0
0
0
0
0
0
0
0
0
0
0
0
0
0
0
0
0
0
0
0
0
0
0
0
0
0
0
0
0
0
0
0
0
-5.76385e-13
0
0
0
0
0
0
0
0
0
0
0
0
0
0
0
0
0
0
0
0
0
0
0
0
0
0
0
0
0
0
0
0
0
0
0
0
0
0
0
0
0
0
0
0
0
0
0
0
0
0
0
0
0
0
0
0
0
0
0
0
0
0
0
0
0
0
0
0
0
0
0
0
0
0
0
0
0
0
0
0
0
0
0
0
0
0
0
0
0
0
0
0
0
0
0
0
0
0
0
0
0
0
0
0
0
0
0
0
0
0
0
0
0
0
0
0
0
0
0
0
0
0
0
0
0
0
0
0
0
0
0
0
0
0
0
0
0
0
0
0
0
0
0
0
0
0
0
0
0
0
0
0
0
0
0
0
0
0
0
0
0
0
0
0
0
0
0
0
0
0
0
0
0
0
0
0
0
0
0
0
0
0
0
0
0
0
0
0
0
0
0
0
0
0
0
0
0
0
0
0
0
0
0
0
0
0
0
0
0
0
0
0
0
0
0
0
0
0
0
0
0
0
0
0
0
0
0
0
0
0
0
0
0
0
0
0
0
0
0
0
0
0
0
0
0
0
0
0
0
0
0
0
0
0
0
0
0
0
0
0
0
0
0
0
0
0
0
0
0
0
0
0
0
0
0
0
0
0
0
0
0
0
0
0
0
0
0
0
0
0
0
0
0
0
0
0
0
0
0
0
0
0
0
0
0
0
0
0
0
0
0
0
0
0
0
0
0
0
0
0
0
0
0
0
0
0
0
0
0
0
0
0
0
0
0
0
0
0
0
0
0
0
0
0
0
0
0
0
0
0
0
0
0
0
0
0
0
0
0
0
0
0
0
0
0
0
0
0
0
0
0
0
0
0
0
0
0
0
0
0
0
0
0
0
0
0
0
0
0
0
0
0
0
0
0
0
0
0
0
0
0
0
0
0
0
0
0
0
0
0
0
0
0
0
0
0
0
0
0
0
0
0
0
0
0
0
0
0
0
0
0
0
0
0
0
0
0
0
0
0
0
0
0
0
0
0
0
0
0
0
0
0
0
0
0
0
0
0
0
0
0
0
0
0
0
0
0
0
0
0
0
0
0
0
0
0
0
0
0
0
0
0
0
0
0
0
0
0
0
0
0
0
0
0
0
0
0
0
0
0
0
0
0
0
0
0
0
0
0
0
0
0
0
0
0
0
0
0
0
0
0
0
0
0
0
0
0
0
0
0
0
0
0
0
0
0
0
0
0
0
0
0
0
0
0
0
0
0
0
0
0
0
0
0
0
0
0
0
0
0
0
0
0
0
0
0
0
0
0
0
0
0
0
0
0
0
0
0
0
0
0
0
0
0
0
0
0
0
0
0
0
0
0
0
0
0
0
0
0
0
0
0
0
0
0
0
0
0
0
0
0
0
0
0
0
0
0
0
0
0
0
0
0
0
0
0
0
0
0
0
0
0
0
0
0
0
0
0
0
0
0
0
0
0
0
0
0
0
0
0
0
0
0
0
0
0
0
0
0
0
0
0
0
0
0
0
0
0
0
0
0
0
0
0
0
0
0
0
0
0
0
0
0
0
0
0
0
0
0
0
0
0
0
0
0
0
0
0
0
0
0
0
0
0
0
0
0
0
0
0
0
0
0
0
0
0
0
0
0
0
0
0
0
0
0
0
0
0
0
0
0
0
0
0
0
0
0
0
0
0
0
0
0
0
0
0
0
0
0
0
0
0
0
0
0
0
0
0
0
0
0
0
0
0
0
0
0
0
0
0
0
0
0
0
0
0
0
0
0
0
0
0
0
0
0
0
0
0
0
0
0
0
0
0
0
0
0
0
0
0
0
0
0
0
0
0
0
0
0
0
0
0
0
0
0
0
0
0
0
0
0
0
0
0
0
0
0
0
0
0
0
0
0
0
0
0
0
0
0
0
0
0
0
0
0
0
0
0
0
0
0
0
0
0
0
0
0
0
0
0
0
0
0
0
0
0
0
0
0
0
0
0
0
0
0
0
0
0
0
0
0
0
0
0
0
0
0
0
0
0
0
0
0
0
0
0
0
0
0
0
0
0
0
0
0
0
0
0
0
0
0
0
0
0
0
0
0
0
0
0
0
0
0
0
0
0
0
0
0
0
0
0
0
0
0
0
0
0
0
0
0
0
0
0
0
0
0
0
0
0
0
0
0
0
0
0
0
0
0
0
0
0
0
0
0
0
0
0
0
0
0
0
0
0
0
0
0
0
0
0
0
0
0
0
0
0
0
0
0
0
0
0
0
0
0
0
0
0
0
0
0
0
0
0
0
0
0
0
0
0
0
0
0
0
0
0
0
0
0
0
0
0
0
0
0
0
0
0
0
0
0
0
0
0
0
0
0
0
0
0
0
0
0
0
0
0
0
0
0
0
0
0
0
0
0
0
0
0
0
0
0
0
0
0
0
0
0
0
0
0
0
0
0
0
0
0
0
0
0
0
0
0
0
0
0
0
0
0
0
0
0
0
0
0
0
0
0
0
0
0
0
0
0
0
0
0
0
0
0
0
0
0
0
0
0
0
0
0
0
0
0
0
0
0
0
0
0
0
0
0
0
0
0
0
0
0
0
0
0
0
0
0
0
0
0
0
0
0
0
0
0
0
0
0
0
0
0
0
0
0
0
0
0
0
0
0
0
0
0
0
0
0
0
0
0
0
0
0
0
0
0
0
0
0
0
0
0
0
0
0
0
0
0
0
0
0
0
0
0
0
0
0
0
0
0
0
0
0
0
0
0
0
0
0
0
0
0
0
0
0
0
0
0
0
0
0
0
0
0
0
0
0
0
0
0
0
0
0
0
0
0
0
0
0
0
0
0
0
0
0
0
0
0
0
0
0
0
0
0
0
0
0
0
0
0
0
0
0
0
0
0
0
0
0
0
0
0
0
0
0
0
0
0
0
0
0
0
0
0
0
0
0
0
0
0
0
0
0
0
0
0
0
0
0
0
0
0
0
0
0
0
0
0
0
0
0
0
0
0
0
0
0
0
0
0
0
0
0
0
0
0
0
0
0
0
0
0
0
0
0
0
0
0
0
0
0
0
0
0
0
0
0
0
0
0
0
0
0
0
0
0
0
0
0
0
0
0
0
0
0
0
0
0
0
0
0
0
0
0
0
0
0
0
0
0
0
0
0
0
0
0
0
0
0
0
0
0
0
0
0
0
0
0
0
0
0
0
0
0
0
0
0
0
0
0
0
0
0
0
0
0
0
0
0
0
0
0
0
0
0
0
0
0
0
0
0
0
0
0
0
0
0
0
0
0
0
0
0
0
0
0
0
0
0
0
0
0
0
0
0
0
0
0
0
0
0
0
0
0
0
0
0
0
0
0
0
0
0
0
0
0
0
0
0
0
0
0
0
0
0
0
0
0
0
0
0
0
0
0
0
0
0
0
0
0
0
0
0
0
0
0
0
0
0
0
0
0
0
0
0
0
0
0
0
0
0
0
0
0
0
0
0
0
0
0
0
0
0
0
0
0
0
0
0
0
0
0
0
0
0
0
0
0
0
0
0
0
0
0
0
0
0
0
0
0
0
0
0
0
0
0
0
0
0
0
0
0
0
0
0
0
0
0
0
0
0
0
0
0
0
0
0
0
0
0
0
0
0
0
0
0
0
0
0
0
0
0
0
0
0
0
0
0
0
0
0
0
0
0
0
0
0
0
0
0
0
0
0
0
0
0
0
0
0
0
0
0
0
0
0
0
0
0
0
0
0
0
0
0
0
0
0
0
0
0
0
0
0
0
0
0
0
0
0
0
0
0
0
0
0
0
0
0
0
0
0
0
0
0
0
0
0
0
0
0
0
0
0
0
0
0
0
0
0
0
0
0
0
0
0
0
0
0
0
0
0
0
0
0
0
0
0
0
0
0
0
0
0
0
0
0
0
0
0
0
0
0
0
0
0
0
0
0
0
0
0
0
0
0
0
0
0
0
0
0
0
0
0
0
0
0
0
0
0
0
0
0
0
0
0
0
0
0
0
0
0
0
0
0
0
0
0
0
0
0
0
0
0
0
0
0
0
0
0
0
0
0
0
0
0
0
0
0
0
0
0
0
0
0
0
0
0
0
0
0
0
0
0
0
0
0
0
0
0
0
0
0
0
0
0
0
0
0
0
0
0
0
0
0
0
0
0
0
0
0
0
0
0
0
0
0
0
0
0
0
0
0
0
0
0
0
0
0
0
0
0
0
0
0
0
0
0
0
0
0
0
0
0
0
0
0
0
0
0
0
0
0
0
0
0
0
0
0
0
0
0
0
0
0
0
0
0
0
0
0
0
0
0
0
0
0
0
0
0
0
0
0
0
0
0
0
0
0
0
0
0
0
0
0
0
0
0
0
0
0
0
0
0
0
0
0
0
0
0
0
0
0
0
0
0
0
0
0
0
0
0
0
0
0
0
0
0
0
0
0
0
0
0
0
0
0
0
0
0
0
0
0
0
0
0
0
0
0
0
0
0
0
0
0
0
0
0
0
0
0
0
0
0
0
0
0
0
0
0
0
0
0
0
0
0
0
0
0
0
0
0
0
0
0
0
0
0
0
0
0
0
0
0
0
0
0
0
0
0
0
0
0
0
0
0
0
0
0
0
0
0
0
0
0
0
0
0
0
0
0
0
0
0
0
0
0
0
0
0
0
0
0
0
0
0
0
0
0
0
0
0
0
0
0
0
0
0
0
0
0
0
0
0
0
0
0
0
0
0
0
0
0
0
0
0
0
0
0
0
0
0
0
0
0
0
0
0
0
0
0
0
0
0
0
0
0
0
0
0
0
0
0
0
0
0
0
0
0
0
0
0
0
0
0
0
0
0
0
0
0
0
0
0
0
0
0
0
0
0
0
0
0
0
0
0
0
0
0
0
0
0
0
0
0
0
0
0
0
0
0
0
0
0
0
0
0
0
0
0
0
0
0
0
0
0
0
0
0
0
0
0
0
0
0
0
0
0
0
0
0
0
0
0
0
0
0
0
0
0
0
0
0
0
0
0
0
0
0
0
0
0
0
0
0
0
0
0
0
0
0
0
0
0
0
0
0
0
0
0
0
0
0
0
0
0
0
0
0
0
0
0
0
0
0
0
0
0
0
0
0
0
0
0
0
0
0
0
0
0
0
0
0
0
0
0
0
0
0
0
0
0
0
0
0
0
0
0
0
0
0
0
0
0
0
0
0
0
0
0
0
0
0
0
0
0
0
0
0
0
0
0
0
0
0
0
0
0
0
0
0
0
0
0
0
0
0
0
0
0
0
0
0
0
0
0
0
0
0
0
0
0
0
0
0
0
0
0
0
0
0
0
0
0
0
0
0
0
0
0
0
0
0
0
0
0
0
0
0
0
0
0
0
0
0
0
0
0
0
0
0
0
0
0
0
0
0
0
0
0
0
0
0
0
0
0
0
0
0
0
0
0
0
0
0
0
0
0
0
0
0
0
0
0
0
0
0
0
0
0
0
0
0
0
0
0
0
0
0
0
0
0
0
0
0
0
0
0
0
0
0
0
0
0
0
0
0
0
0
0
0
0
0
0
0
0
0
0
0
0
0
0
0
0
0
0
0
0
0
0
0
0
0
0
0
0
0
0
0
0
0
0
0
0
0
0
0
0
0
0
0
0
0
0
0
0
0
0
0
0
0
0
0
0
0
0
0
0
0
0
0
0
0
0
0
0
0
0
0
0
0
0
0
0
0
0
0
0
0
0
0
0
0
0
0
0
0
0
0
0
0
0
0
0
0
0
0
0
0
0
0
0
0
0
0
0
0
0
0
0
0
0
0
0
0
0
0
0
0
0
0
0
0
0
0
0
0
0
0
0
0
0
0
0
0
0
0
0
0
0
0
0
0
0
0
0
0
0
0
0
0
0
0
0
0
0
0
0
0
0
0
0
0
0
0
0
0
0
0
0
0
0
0
0
0
0
0
0
0
0
0
0
0
0
0
0
0
0
0
0
0
0
0
0
0
0
0
0
0
0
0
0
0
0
0
0
0
0
0
0
0
0
0
0
0
0
0
0
0
0
0
0
0
0
0
0
0
0
0
0
0
0
0
0
0
0
0
0
0
0
0
0
0
0
0
0
0
0
0
0
0
0
0
0
0
0
0
0
0
0
0
0
0
0
0
0
0
0
0
0
0
0
0
0
0
0
0
0
0
0
0
0
0
0
0
0
0
0
0
0
0
0
0
0
0
0
0
0
0
0
0
0
0
0
0
0
0
0
0
0
0
0
0
0
0
0
0
0
0
0
0
0
0
0
0
0
0
0
0
0
0
0
0
0
0
0
0
0
0
0
0
0
0
0
0
0
0
0
0
0
0
0
0
0
0
0
0
0
0
0
0
0
0
0
0
0
0
0
0
0
0
0
0
0
0
0
0
0
0
0
0
0
0
0
0
0
0
0
0
0
0
0
0
0
0
0
0
0
0
0
0
0
0
0
0
0
0
0
0
0
0
0
0
0
0
0
0
0
0
0
0
0
0
0
0
0
0
0
0
0
0
0
0
0
0
0
0
0
0
0
0
0
0
0
0
0
0
0
0
0
0
0
0
0
0
0
0
0
0
0
0
0
0
0
0
0
0
0
0
0
0
0
0
0
0
0
0
0
0
0
0
0
0
0
0
0
0
0
0
0
0
0
0
0
0
0
0
0
0
0
0
0
0
0
0
0
0
0
0
0
0
0
0
0
0
0
0
0
0
0
0
0
0
0
0
0
0
0
0
0
0
0
0
0
0
0
0
0
0
0
0
0
0
0
0
0
0
0
0
0
0
0
0
0
0
0
0
0
0
0
0
0
0
0
0
0
0
0
0
0
0
0
0
0
0
0
0
0
0
0
0
0
0
0
0
0
0
0
0
0
0
0
0
0
0
0
0
0
0
0
0
0
0
0
0
0
0
0
0
0
0
0
0
0
0
0
0
0
0
0
0
0
0
0
0
0
0
0
0
0
0
0
0
0
0
0
0
0
0
0
0
0
0
0
0
0
0
0
0
0
0
0
0
0
0
0
0
0
0
0
0
0
0
0
0
0
0
0
0
0
0
0
0
0
0
0
0
0
0
0
0
0
0
0
0
0
0
0
0
0
0
0
0
0
0
0
0
0
0
0
0
0
0
0
0
0
0
0
0
0
0
0
0
0
0
0
0
0
0
0
0
0
0
0
0
0
0
0
0
0
0
0
0
0
0
0
0
0
0
0
0
0
0
0
0
0
0
0
0
0
0
0
0
0
0
0
0
0
0
0
0
0
0
0
0
0
0
0
0
0
0
0
0
0
0
0
0
0
0
0
0
0
0
0
0
0
0
0
0
0
0
0
0
0
0
0
0
0
0
0
0
0
0
0
0
0
0
0
0
0
0
0
0
0
0
0
0
0
0
0
0
0
0
0
0
0
0
0
0
0
0
0
0
0
0
0
0
0
0
0
0
0
0
0
0
0
0
0
0
0
0
0
0
0
0
0
0
0
0
0
0
0
0
0
0
0
0
0
0
0
0
0
0
0
0
0
0
0
0
0
0
0
0
0
0
0
0
0
0
0
0
0
0
0
0
0
0
0
0
0
0
0
0
0
0
0
0
0
0
0
0
0
0
0
0
0
0
0
0
0
0
0
0
0
0
0
0
0
0
0
0
0
0
0
0
0
0
0
0
0
0
0
0
0
0
0
0
0
0
0
0
0
0
0
0
0
0
0
0
0
0
0
0
0
0
0
0
0
0
0
0
0
0
0
0
0
0
0
0
0
0
0
0
0
0
0
0
0
0
0
0
0
0
0
0
0
0
0
0
0
0
0
0
0
0
0
0
0
0
0
0
0
0
0
0
0
0
0
0
0
0
0
0
0
0
0
0
0
0
0
0
0
0
0
0
0
0
0
0
0
0
0
0
0
0
0
0
0
0
0
0
0
0
0
0
0
0
0
0
0
0
0
0
0
0
0
0
0
0
0
0
0
0
0
0
0
0
0
0
0
0
0
0
0
0
0
0
0
0
0
0
0
0
0
0
0
0
0
0
0
0
0
0
0
0
0
0
0
0
0
0
0
0
0
0
0
0
0
0
0
0
0
0
0
0
0
0
0
0
0
0
0
0
0
0
0
0
0
0
0
0
0
0
0
0
0
0
0
0
0
0
0
0
0
0
0
0
0
0
0
0
0
0
0
0
0
0
0
0
0
0
0
0
0
0
0
0
0
0
0
0
0
0
0
0
0
0
0
0
0
0
0
0
0
0
0
0
0
0
0
0
0
0
0
0
0
0
0
0
0
0
0
0
0
0
0
0
0
0
0
0
0
0
0
0
0
0
0
0
0
0
0
0
0
0
0
0
0
0
0
0
0
0
0
0
0
0
0
0
0
0
0
0
0
0
0
0
0
0
0
0
0
0
0
0
0
0
0
0
0
0
0
0
0
0
0
0
0
0
0
0
0
0
0
0
0
0
0
0
0
0
0
0
0
0
0
0
0
0
0
0
0
0
0
0
0
0
0
0
0
0
0
0
0
0
0
0
0
0
0
0
0
0
0
0
0
0
0
0
0
0
0
0
0
0
0
0
0
0
0
0
0
0
0
0
0
0
0
0
0
0
0
0
0
0
0
0
0
0
0
0
0
0
0
0
0
0
0
0
0
0
0
0
0
0
0
0
0
0
0
0
0
0
0
0
0
0
0
0
0
0
0
0
0
0
0
3101.86
860.243
603.813
3059.81
4918.1
1157.91
3449.7
1363.04
333.403
1458.85
3922.74
4467.14
1588.53
3441.95
2791.83
895.353
756.44
4882.35
2781.97
3464.05
478.004
455.515
791.499
384.339
543.873
1413.08
386.274
651.688
2843.94
1870.03
3454.29
1533.13
2902.4
3839.18
6381.86
1096.13
4181.44
3989.85
1849.43
2869.29
1883.57
4362.37
209.247
4638.75
1923.07
3659.51
798.975
2500.01
4019.67
694.515
1226.73
1779.15
343.805
637.34
4708.2
4619.74
1863.74
2072.62
3683.96
4598.19
3397.55
4525.12
3031.64
4763.48
1600.94
4282.97
223.912
1430.2
479.379
2517.04
4161.18
4845.92
5263.5
4308.34
1591.89
2892.36
548.837
3505.12
3260.14
1671.23
527.951
2547.84
840.221
4254.26
1748.58
594.964
1274.8
2609.35
2825.34
1070.17
1244.64
4718.18
4279.03
3367.57
2448.47
4901.47
2918.88
3126.69
2551.76
3319.91
1770.9
648.91
717.105
1165.31
417.174
621.063
1894.14
1579.27
1377.85
269.44
3635.47
937.701
803.273
623.766
835.577
28.6081
100.185
352.216
290.091
4531.96
962.268
3064.81
810.147
3224.42
425.1
2907.51
253.952
154.217
182.915
857.383
412.652
2463.22
1244.67
204.981
1714.4
2665.46
3712.09
1284.63
1999.37
4599.44
42.9473
115.437
100.23
52.7655
224.049
123.475
182.453
3780.13
1270.83
1209.82
1850.98
3187.05
2708.88
525.768
98.9077
4947.7
1611.77
628.501
515.203
6031.99
5236.68
1700.83
828.456
1459.59
3484.32
4793.22
190.72
623.258
1255.56
3314.42
1660.4
10318.6
7815.36
9318.44
6945.68
808.865
1552.14
413.582
1362.12
359.694
1011.56
337.601
5306.42
5833.51
7801.53
6500.65
5047.37
1244.12
2099.15
2890.43
166.586
287.186
125.379
246.756
260.088
151.798
2789.42
866.6
2771.77
38.426
29.9601
32.5499
65.7452
1968.7
3739.95
411.164
752.276
2565.47
1832.2
2814.55
123.646
122.275
49.8553
43.0803
16.4433
58.3107
16.757
31.3172
412.579
75.3611
110.662
9.37636
162.646
61.1625
24.245
25.7444
21.2853
39.6625
14.9858
48.7108
32.7841
104.429
27.5391
118.202
12.7166
20.8927
4.76821
23.9833
17.6752
53.7726
30.8201
39.4203
34.0965
51.577
23.5063
25.6554
77.4242
47.5154
40.0948
26.4601
116.917
23.7581
18.647
19.259
10.5229
33.58
19.5415
14.7494
12.6464
25.1831
5.78417
31.4483
12.2272
5.23395
9.35554
6.78927
54.5494
62.5061
20.4916
60.3303
22.5434
99.9523
25.3638
11.2737
52.1098
33.8377
91.1194
44.5821
49.7826
11.1232
10.517
14.9254
24.935
17.5671
33.4111
20.242
22.2742
9.11613
16.6346
4.56364
18.8736
23.4872