/*--------------------------------*- C++ -*----------------------------------*\
| =========                 |                                                 |
| \\      /  F ield         | OpenFOAM: The Open Source CFD Toolbox           |
|  \\    /   O peration     | Version:  5.x                                   |
|   \\  /    A nd           | Web:      www.OpenFOAM.org                      |
|    \\/     M anipulation  |                                                 |
\*---------------------------------------------------------------------------*/
FoamFile
{
    version     2.0;
    format      ascii;
    class       volScalarField;
    location    "0.2";
    object      voidfraction;
}
// * * * * * * * * * * * * * * * * * * * * * * * * * * * * * * * * * * * * * //

dimensions      [0 0 0 0 0 0 0];

internalField   nonuniform List<scalar> 
10571
(
0.986584
0.783375
0.879096
0.924127
0.88322
0.879842
0.971912
0.982785
0.854502
0.880677
0.981152
0.948451
0.993415
0.98924
0.857768
0.874511
0.886318
0.899354
0.960515
0.828047
0.825296
0.862639
0.912707
0.883999
0.99925
0.934476
0.998197
0.999345
0.990568
1
0.998804
0.998307
0.991583
0.988896
1
0.999096
0.996832
0.996305
0.990651
0.982627
0.985834
0.99715
0.989895
0.99671
0.960394
0.981358
0.997421
0.972948
1
0.935097
0.992564
0.996169
0.987121
0.996061
0.998433
0.998339
0.991861
0.989203
1
0.998414
0.999166
0.997094
0.987712
0.9824
0.98584
0.99531
0.993849
0.992173
0.975766
0.971348
0.991028
0.973826
1
0.904667
1
0.992433
0.993402
0.996972
0.984184
0.993255
0.993027
0.982966
1
0.990413
0.996962
0.999104
0.991855
0.965155
0.989199
0.995734
0.994677
0.999035
0.932113
0.967077
0.99213
0.963464
1
0.951336
0.999022
0.994525
0.990577
0.999966
0.993923
0.986211
0.988906
0.982538
1
0.991926
0.988408
0.998806
0.993706
0.898958
0.984128
0.991545
0.99315
0.998257
0.968961
0.976228
0.995079
0.978554
1
0.972387
0.998988
0.99316
0.988342
0.998953
0.997039
0.991466
0.99291
0.969899
0.527502
1
0.998715
0.994541
0.998107
0.992951
0.969117
0.428658
0.99558
0.994694
0.993246
0.998107
0.976139
0.98335
0.993929
0.968725
1
0.944323
0.995545
0.996613
0.994699
0.999054
0.99317
0.993943
0.990914
0.980392
1
1
0.998038
0.996856
0.99688
0.988043
0.954877
1
0.994105
0.995455
0.992972
0.99313
0.946684
1
0.978742
0.992752
0.973494
1
0.932559
0.998042
0.997393
0.995794
1
0.99818
0.995727
0.994747
0.986581
1
1
1
0.99532
0.995011
0.991609
0.96764
1
0.994887
0.994217
0.992203
0.998167
0.966441
1
0.96945
0.992934
0.970396
1
0.954125
0.999224
0.99807
0.993459
1
0.997556
0.998055
0.994642
0.979018
1
1
0.99797
0.997502
0.998631
0.995686
0.942206
1
0.991128
0.99437
0.995238
1
0.970341
0.964841
0.994473
0.986492
1
0.9739
0.998887
0.998038
0.991992
0.996655
0.996116
0.997645
0.993558
0.983657
0.994722
0.998816
0.997984
0.998758
0.994758
0.96738
0.990467
0.995381
0.993045
1
0.935343
0.962558
0.995561
0.983116
1
0.988071
0.998617
0.998817
0.990025
0.99902
0.995165
0.998256
0.993815
0.967338
1
0.997227
0.996975
0.99955
0.995508
0.948391
0.997865
0.992908
0.992483
0.999031
0.950126
0.982577
0.994112
0.966395
1
0.94904
0.997842
0.996047
0.996486
0.998176
0.995793
0.996298
0.994582
0.978967
0.99989
0.999662
0.996001
0.997536
0.993011
0.943707
0.992483
0.993098
0.993091
0.999066
0.935744
0.959735
0.994504
0.972349
1
0.960408
0.998517
0.999358
0.991739
0.996589
0.9947
0.997482
0.997238
0.970427
0.99945
0.99902
0.997238
0.99449
0.997731
0.937847
0.988184
0.995465
0.994243
1
0.94575
0.97859
0.992149
0.959323
1
0.985384
0.992347
0.988784
0.982876
0.995069
0.996932
0.994232
0.996176
0.984261
0.996811
0.992428
0.995646
0.997475
0.997572
0.91955
0.980698
0.996592
0.996754
1
0.959112
0.975532
0.995531
0.967654
1
0.987288
1
0.984392
0.989725
0.996082
0.985319
0.994393
0.998009
0.977632
0.996811
0.993104
0.984349
0.989313
0.997779
0.894063
0.991371
0.993342
0.997461
0.999366
0.978087
0.964575
0.995682
0.964364
0.99978
0.977488
1
0.995811
0.987562
0.996724
0.996761
0.985946
0.997605
0.970422
1
0.99902
0.989415
0.963786
0.995854
0.868366
0.99525
0.983994
0.985309
0.999967
0.972695
0.95811
0.990096
0.965624
0.99912
0.967914
0.999022
0.995136
0.994802
0.997468
0.986483
0.991047
0.998312
0.970068
0.996812
0.990503
0.989592
0.985368
0.997049
0.824058
0.988997
0.989853
0.978735
0.99773
0.951754
0.974061
0.994051
0.963588
1
0.980569
0.998685
0.99007
0.99309
0.999629
0.968608
0.983927
0.998692
0.98073
0.99989
0.995336
0.980245
0.98953
0.997532
0.793097
0.989118
0.98185
0.991676
0.996795
0.95576
0.965007
0.992845
0.96549
0.993624
0.990425
0.999966
0.990846
0.990779
0.998649
0.982393
0.975899
0.996676
0.964031
0.998791
0.99902
0.966956
0.979788
0.994573
0.7479
0.992635
0.972233
0.982669
0.997864
0.93721
0.954517
0.989554
0.94666
1
0.982641
0.98372
0.996285
0.9921
0.984839
0.974015
0.988402
0.996079
0.973217
0.995713
0.990233
0.978595
0.974898
0.989231
0.714226
0.996152
0.96765
0.975129
0.986314
0.91285
0.958926
0.982701
0.92937
1
0.992329
0.996225
0.980713
0.993331
0.995746
0.977918
0.978854
0.991495
0.969453
0.994723
0.997161
0.973079
0.970155
0.96674
0.677771
0.98575
0.958799
0.954823
0.968221
0.86028
0.97197
0.980767
0.9538
0.994833
0.991377
0.994438
0.997332
0.995434
0.989431
0.969814
0.974786
0.972599
0.966623
0.996812
0.996046
0.971595
0.93099
0.913011
0.619764
0.990621
0.955004
0.90232
0.916746
0.7193
0.97046
0.97473
0.94631
0.989995
0.981073
0.991843
0.99902
0.990057
0.993146
0.986101
0.97345
0.955621
0.981237
0.993733
0.997905
0.975649
0.913094
0.728471
0.504082
0.994739
0.958404
0.828755
0.776778
0.4911
0.980642
0.969598
0.93546
0.997691
0.993001
0.993932
0.996487
0.987804
0.993585
0.996238
0.983559
0.978822
0.995736
0.998021
0.995167
0.992392
0.91141
0.588017
0.46137
0.988487
0.979545
0.754603
0.446
0.44378
0.991831
0.964435
0.8236
0.988233
0.989978
0.990831
0.987671
0.995675
0.99534
0.99929
0.99082
0.997302
0.992828
0.99989
1
0.999
0.925666
0.583651
0.446498
0.986112
0.993241
0.761286
0.43455
0.43503
0.994541
0.985116
0.522669
0.993622
0.99037
0.99673
0.999358
0.997416
0.991085
0.998997
0.998876
0.99937
0.982788
1
1
1
0.948546
0.613872
0.462881
0.992455
0.995385
0.797804
0.435952
0.4351
0.99125
0.971077
0.449239
0.985924
0.991882
0.980819
0.999662
0.998048
0.989837
0.998722
0.999816
0.99933
0.987556
0.996812
0.99902
1
0.979885
0.668727
0.52246
0.997535
0.998607
0.823685
0.441227
0.43664
0.99849
0.93826
0.453719
0.989993
0.991546
0.986214
0.998412
0.998919
0.977071
0.999119
0.999873
0.998304
0.991588
0.996812
0.999155
0.999438
0.997623
0.756381
0.611995
0.996933
0.998655
0.865171
0.438824
0.43293
0.991406
0.924546
0.462119
0.986257
0.992105
0.985573
0.998987
0.999159
0.988992
0.999668
0.999781
0.999717
0.98213
0.993513
1
0.999346
0.999799
0.857738
0.740705
0.992184
0.99918
0.926115
0.466096
0.45043
0.983663
0.945103
0.448469
0.990326
0.992441
0.991674
0.99902
0.994984
0.980348
0.999779
0.999785
0.999261
0.960064
0.998351
0.99706
0.999173
0.999551
0.947058
0.843027
0.996843
0.999314
0.977438
0.668221
0.462821
0.985947
0.952325
0.453299
0.976799
0.979951
0.988269
0.998514
0.996004
0.989059
1
0.999774
0.99937
0.944904
0.990106
0.998513
0.999327
0.999814
0.993138
0.868406
0.997505
0.999273
0.998856
0.904796
0.470721
0.967637
0.912802
0.478919
0.972621
0.974463
0.997708
0.995743
0.988762
0.990748
1
0.999889
0.999673
0.898261
0.992963
0.999932
0.999846
0.999961
0.999818
0.860075
0.994498
0.999883
0.999883
0.992956
0.521823
0.907052
0.868538
0.649649
0.944026
0.897371
0.993663
0.996081
0.985096
0.993179
0.999889
0.999889
0.999649
0.806796
0.990546
0.998783
0.999885
1
0.999996
0.905115
0.986741
0.999503
1
0.997096
0.673025
0.763507
0.856357
0.85664
0.8257
0.629391
0.739536
0.787911
0.547244
0.678322
0.999889
0.999666
0.997714
0.737122
0.976246
0.81529
0.999954
0.999888
0.988671
0.958981
0.738617
0.980861
0.995363
0.97019
0.913969
0.621905
0.916749
0.95254
0.923801
0.997816
0.974178
0.991589
0.999069
0.978051
0.996028
0.999889
0.965317
0.908613
0.941508
0.851028
0.997835
0.995288
0.926954
0.936491
0.862251
0.940759
0.953553
0.825047
0.99272
0.988849
0.98454
1
1
1
0.997573
0.996825
1
1
0.929434
0.957079
0.947265
1
0.989665
1
0.955198
0.909206
0.962326
0.999093
1
0.963204
0.980288
0.98845
0.99328
1
1
1
1
1
1
1
1
1
0.983266
0.964704
1
1
1
1
0.968637
0.983444
0.999765
1
1
1
1
1
0.991879
1
1
1
1
1
1
1
1
1
1
1
1
1
1
1
1
1
0.999882
1
1
1
1
1
0.99797
1
1
1
1
1
1
1
1
1
1
1
1
1
1
1
1
1
1
1
1
1
1
1
1
1
1
1
1
1
1
1
1
1
1
1
1
1
1
1
1
1
1
1
1
1
1
1
1
1
1
1
1
1
1
1
1
1
1
1
1
1
1
1
1
1
1
1
1
1
1
1
1
1
1
1
1
1
1
1
1
1
1
1
1
1
1
1
1
1
1
1
1
1
1
1
1
1
1
1
1
1
1
1
1
1
1
1
1
1
1
1
1
1
1
1
1
1
1
1
1
1
1
1
1
1
1
1
1
1
1
1
1
1
1
1
1
1
1
1
1
1
1
1
1
1
1
1
1
1
1
1
1
1
1
1
1
1
1
1
1
1
1
1
1
1
1
1
1
1
1
1
1
1
1
1
1
1
1
1
1
1
1
1
1
1
1
1
1
1
1
1
1
1
1
1
1
1
1
1
1
1
1
1
1
1
1
1
1
1
1
1
1
1
1
1
1
1
1
1
1
1
1
1
1
1
1
1
1
1
1
1
1
1
1
1
1
1
1
1
1
1
1
1
1
1
1
1
1
1
1
1
1
1
1
1
1
1
1
1
1
1
1
1
1
1
1
1
1
1
1
1
1
1
1
1
1
1
1
1
1
1
1
1
1
1
1
1
1
1
1
1
1
1
1
1
1
1
1
1
1
1
1
1
1
1
1
1
1
1
1
1
1
1
1
1
1
1
1
1
1
1
1
1
1
1
1
1
1
1
1
1
1
1
1
1
1
1
1
1
1
1
1
1
1
1
1
1
1
1
1
1
1
1
1
1
1
1
1
1
1
1
1
1
1
1
1
1
1
1
1
1
1
1
1
1
1
1
1
1
1
1
1
1
1
1
1
1
1
1
1
1
1
1
1
1
1
1
1
1
1
1
1
1
1
1
1
1
1
1
1
1
1
1
1
1
1
1
1
1
1
1
1
1
1
1
1
1
1
1
1
1
1
1
1
1
1
1
1
1
1
1
1
1
1
1
1
1
1
1
1
1
1
1
1
1
1
1
1
1
1
1
1
1
1
1
1
1
1
1
1
1
1
1
1
1
1
1
1
1
1
1
1
1
1
1
1
1
1
1
1
1
1
1
1
1
1
1
1
1
1
1
1
1
1
1
1
1
1
1
1
1
1
1
1
1
1
1
1
1
1
1
1
1
1
1
1
1
1
1
1
1
1
1
1
1
1
1
1
1
1
1
1
1
1
1
1
1
1
1
1
1
1
1
1
1
1
1
1
1
1
1
1
1
1
1
1
1
1
1
1
1
1
1
1
1
1
1
1
1
1
1
1
1
1
1
1
1
1
1
1
1
1
1
1
1
1
1
1
1
1
1
1
1
1
1
1
1
1
1
1
1
1
1
1
1
1
1
1
1
1
1
1
1
1
1
1
1
1
1
1
1
1
1
1
1
1
1
1
1
1
1
1
1
1
1
1
1
1
1
1
1
1
1
1
1
1
1
1
1
1
1
1
1
1
1
1
1
1
1
1
1
1
1
1
1
1
1
1
1
1
1
1
1
1
1
1
1
1
1
1
1
1
1
1
1
1
1
1
1
1
1
1
1
1
1
1
1
1
1
1
1
1
1
1
1
1
1
1
1
1
1
1
1
1
1
1
1
1
1
1
1
1
1
1
1
1
1
1
1
1
1
1
1
1
1
1
1
1
1
1
1
1
1
1
1
1
1
1
1
1
1
1
1
1
1
1
1
1
1
1
1
1
1
1
1
1
1
1
1
1
1
1
1
1
1
1
1
1
1
1
1
1
1
1
1
1
1
1
1
1
1
1
1
1
1
1
1
1
1
1
1
1
1
1
1
1
1
1
1
1
1
1
1
1
1
1
1
1
1
1
1
1
1
1
1
1
1
1
1
1
1
1
1
1
1
1
1
1
1
1
1
1
1
1
1
1
1
1
1
1
1
1
1
1
1
1
1
1
1
1
1
1
1
1
1
1
1
1
1
1
1
1
1
1
1
1
1
1
1
1
1
1
1
1
1
1
1
1
1
1
0.446954
0.480861
0.444611
0.44715
0.515067
0.443706
0.435148
0.437826
0.466178
0.457723
0.444152
0.449201
0.43179
0.436687
0.439843
0.444232
0.484302
0.447026
0.435285
0.47781
0.447625
0.43085
0.44899
0.422488
0.441299
0.457515
0.442908
0.512426
0.45842
0.423512
0.439184
0.442194
0.493516
0.494316
0.565324
0.5555
0.659663
0.545511
0.465462
0.5957
0.474344
0.432696
0.426461
0.436289
0.431569
0.461455
0.453226
0.458356
0.527751
0.449171
0.455763
0.454331
0.493537
0.425892
0.450235
0.556646
0.6299
0.470003
0.521166
0.549303
0.479258
0.496627
0.451707
0.438694
0.426587
0.43031
0.433876
0.443792
0.481499
0.452083
0.460542
0.441713
0.429803
0.461031
0.451814
0.434263
0.455721
0.434535
0.428401
0.461296
0.440026
0.431086
0.418116
0.430884
0.437884
0.434032
0.470207
0.462606
0.474082
0.449863
0.425434
0.45695
0.430527
0.440522
0.470157
0.438045
0.80485
0.919616
0.975083
0.88765
0.902172
1
0.97426
0.957883
0.915847
0.91225
1
0.989552
0.976786
0.891897
0.983848
0.857423
0.923371
0.84478
0.869234
0.873837
0.920535
0.987664
0.985335
0.999515
0.847998
0.840757
0.85153
0.98873
0.951522
0.996342
0.990015
0.840782
0.944036
0.91083
0.977853
0.897153
0.979347
0.993848
0.948118
0.878894
0.924259
0.978062
0.985161
0.994907
0.926886
0.914504
1
0.966137
0.980148
0.936635
0.895844
0.984315
0.995863
0.98896
0.910802
0.959768
0.852475
0.823958
0.851341
0.986843
0.998171
0.938222
0.97807
0.838712
0.852225
0.825386
0.997565
0.978689
0.9893
0.958475
0.952725
0.785643
0.889107
0.868967
0.950816
0.973539
0.987515
0.990671
0.918585
0.964446
0.990957
0.990151
1
0.978133
0.916687
0.94405
0.994426
0.971023
0.950927
1
0.966132
0.974114
0.976078
0.957427
1
0.97195
0.964152
0.970477
0.980183
0.934602
0.960002
0.980581
0.985541
0.997471
0.941444
0.989369
0.989227
0.993238
0.949633
0.999192
0.980886
0.988466
0.940417
1
0.986463
0.944497
0.946713
0.979822
1
0.961632
0.974142
0.99685
0.978515
0.976603
0.9867
0.984295
0.976723
0.984236
0.963898
0.978525
1
0.982559
0.977723
0.992923
0.987827
0.977858
0.988482
0.993057
0.956499
0.966144
1
0.939641
0.988835
0.987676
0.999811
0.952933
0.986458
0.977332
0.986706
0.95517
0.995665
0.98248
0.982135
0.961016
0.958459
0.879471
0.900818
0.989483
0.990787
0.975649
0.985482
0.989472
0.993968
0.997965
0.995112
0.988274
0.996852
0.975438
0.933927
0.909265
1
0.991074
0.984188
0.996817
0.987433
0.976279
0.986459
0.978997
1
0.990382
0.990011
0.954823
0.977618
0.946867
0.929036
0.989138
0.991839
0.98868
0.908031
0.987374
0.989575
0.995041
0.960108
0.993563
0.986486
0.989633
0.971598
0.995169
0.989374
0.953904
0.940518
0.976397
1
0.989487
0.978177
1
0.962499
0.985386
0.989926
0.984148
0.976788
0.994062
0.986847
0.985663
1
0.973735
0.973537
0.986868
0.988243
0.975564
0.994616
0.990026
0.961649
0.967666
0.995813
0.972275
0.979258
0.984515
0.995395
0.958404
0.976843
0.982638
0.980387
0.947721
1
0.979745
0.983413
0.945723
0.963189
0.921488
0.918919
0.962883
1
0.968216
0.986654
1
0.984436
0.995958
0.994217
0.985818
0.996822
0.949847
0.892068
0.912272
1
0.978475
0.960647
0.996812
0.970757
0.945379
0.993499
0.97197
1
0.984712
0.957891
0.986136
0.981521
0.923934
0.923329
0.979227
0.984215
0.99174
0.935894
0.98234
0.979429
0.966055
0.952257
0.999967
0.984618
0.986866
0.946449
1
0.976048
0.920906
0.949869
0.97735
1
0.956773
0.974622
1
0.952001
0.964224
0.998348
0.982299
0.95374
0.985231
0.966011
0.980896
1
0.961823
0.964583
0.994939
0.98778
0.938502
0.986444
0.981051
0.961041
0.945673
0.997538
0.934194
0.983865
0.989634
0.986268
0.930492
0.986839
0.980797
0.981169
0.953101
0.999799
0.985322
0.989288
0.958529
0.953913
0.929872
0.906608
0.993124
1
0.975495
0.99094
0.993635
0.998297
1
0.996316
0.994653
1
0.979827
0.953235
0.948421
0.998901
0.965794
0.966999
0.994722
0.983939
0.976227
0.9751
0.955155
1
0.983666
0.967066
0.975299
0.968584
0.953333
0.957439
0.992363
0.98743
0.988616
0.968693
0.989664
0.992283
0.995313
0.955236
0.999371
0.985112
0.982779
0.950536
0.991578
0.982034
0.944073
0.951035
0.965674
1
0.973113
0.977358
1
0.976256
0.90074
0.945583
0.96723
0.905142
0.880903
0.962956
0.975994
1
0.978005
0.97026
0.932766
0.980853
0.92735
0.888113
0.978196
0.948104
0.955494
0.98741
0.937398
0.98523
0.988754
0.989377
0.950836
0.989041
0.984559
0.982472
0.968688
1
0.986037
0.984052
0.979244
0.982193
0.88624
0.896169
0.991212
0.984086
0.978433
0.992839
0.996817
0.996782
1
0.998248
0.991892
1
0.973634
0.974348
0.964727
1
0.985098
0.983523
1
0.990826
0.988793
0.988118
0.970274
1
0.992998
0.97198
0.987294
0.978374
0.972972
0.975339
0.985647
0.993384
0.96861
0.965608
0.99095
0.996602
0.9758
0.968595
0.995554
0.98813
0.99556
0.974736
0.998044
0.989538
0.954477
0.954926
0.98893
1
0.990095
0.992103
1
0.995487
0.879601
0.962066
0.725319
0.974789
0.993542
0.963879
0.98414
0.433592
0.433413
0.418847
0.957774
0.858582
0.912633
0.763751
0.990456
0.985671
1
0.990182
0.987142
0.714056
0.977909
0.871128
0.960728
0.969443
0.981153
0.987024
0.409608
0.496823
0.418705
0.908976
0.748812
0.956729
0.84037
0.971328
0.979768
0.991422
0.977668
0.98786
0.994406
0.992243
0.98768
0.977201
0.983494
0.972174
0.965355
0.998058
0.989049
0.982675
0.955042
0.956789
0.896449
0.95438
0.990484
0.996598
0.974095
0.98622
1
0.987309
0.993854
0.99997
0.990451
0.99989
0.958245
0.957616
0.932939
0.996921
0.991871
0.992791
0.99989
0.991213
0.993337
0.995484
0.990665
1
0.999121
0.989004
0.982866
0.994365
0.969905
0.947472
0.987023
0.987631
0.993876
0.949756
0.985824
0.98918
0.996319
0.97452
0.997405
0.984265
0.991974
0.978986
0.991643
0.973631
0.961599
0.9977
0.969352
0.998723
1
0.996578
1
1
0.988426
1
0.992972
0.983432
1
0.991972
0.993006
0.970189
0.984645
0.989626
0.991067
0.970092
0.982425
1
1
1
1
1
1
1
0.992545
0.989156
1
0.993273
0.987529
0.971037
0.98676
0.994578
0.947631
0.978672
0.985564
0.993807
1
1
1
1
1
1
1
0.971954
0.98821
0.98548
0.98273
0.984559
0.987969
0.98551
0.982617
0.98583
0.985359
0.979135
0.958771
0.997249
0.987315
0.973072
0.967876
1
0.956199
0.998823
1
1
1
0.949692
0.950742
0.987734
1
0.986525
0.993353
1
0.991695
1
0.995983
0.987353
1
0.982889
0.922482
0.933637
1
0.982696
0.982252
1
0.980335
0.986825
0.997606
0.99698
1
0.995182
0.989506
0.986091
0.992066
0.949701
0.946775
0.991039
0.987452
0.98951
0.941522
0.987053
0.989359
0.994332
0.969683
0.996463
0.988851
0.994676
0.980727
0.994378
0.989437
0.974187
0.999064
0.965628
1
1
1
1
1
0.989239
1
0.986762
0.984361
1
0.982794
0.995407
0.971837
0.986603
0.976766
0.994998
0.967201
0.98304
1
1
1
1
1
1
1
0.990454
0.988188
1
0.988879
0.987335
0.976623
0.981091
0.992192
0.957478
0.972609
0.982495
0.995935
1
1
1
1
1
1
1
0.981443
0.969722
0.991254
0.961184
0.99128
0.987819
0.996205
0.955053
0.98574
0.991392
0.983578
0.973788
0.999966
0.990403
0.981662
0.968504
0.999411
0.958331
1
1
1
1
0.950113
0.924435
0.990665
1
0.973631
0.984894
1
0.993639
1
0.991122
0.993444
1
0.976307
0.938168
0.949393
1
0.978904
0.977921
0.996811
0.984595
0.978557
0.996273
0.98408
1
0.993666
0.9859
0.991358
0.973288
0.948796
0.957088
0.987623
0.989866
0.994886
0.95788
0.990261
0.985963
0.988699
0.954626
0.995358
0.991592
0.994062
0.972704
0.994196
0.987176
0.966902
0.963352
0.977355
1
0.970555
0.983046
1
0.967073
0.991347
0.978304
0.978343
0.97866
0.99226
0.968433
0.969255
1
1
1
1
1
1
1
0.987151
0.981797
1
0.98297
0.981914
0.962957
0.982643
0.997228
0.955327
0.955938
0.97734
0.995318
1
1
1
1
1
1
1
0.975792
0.963933
0.995709
0.962647
0.976716
0.989624
0.990299
0.956123
0.979745
0.990513
0.982527
0.970009
1
0.991515
0.977243
0.972237
0.964668
0.928003
0.926115
0.993232
1
0.969218
0.988037
1
0.992279
1
0.994715
0.992281
1
0.976743
0.963336
0.975117
1
0.990905
0.961749
1
0.982314
0.975198
0.99194
0.9744
1
0.986791
0.974252
0.989258
0.981521
0.955695
0.964544
0.980674
0.988586
0.968057
0.982022
0.990652
0.99562
0.991243
0.961963
0.987446
0.978
0.993294
0.961354
0.991534
0.98868
0.958272
0.958482
0.9928
0.9989
0.977828
0.987459
1
0.990277
0.949927
0.966396
0.976133
0.952225
0.915044
0.972881
0.979978
1
0.981729
0.985981
0.926936
0.978085
0.960591
0.867345
0.977286
0.953958
0.976003
0.983368
0.965012
0.972873
0.989024
0.985683
0.961076
0.974631
0.990001
0.975363
0.958898
1
0.990638
0.979911
0.968319
0.936255
0.941999
0.941371
0.986677
1
0.960237
0.982178
1
0.986274
1
0.995622
0.99314
1
0.983122
0.975327
0.98627
1
0.985682
0.978439
0.995712
0.992222
0.995761
0.98234
0.97631
0.997911
0.991337
0.984556
0.981595
0.991356
0.992547
0.969351
0.994158
0.992432
0.989389
0.976647
0.993979
0.995918
0.99681
0.972591
0.979419
0.984809
0.994714
0.981972
0.983463
0.993229
0.957423
0.963016
0.984479
1
0.988763
0.996323
1
0.994367
0.948651
0.926197
0.974079
0.966695
0.945167
0.987335
0.982148
1
0.991032
0.992759
0.85198
0.975226
0.946596
0.8294
0.98154
0.964912
0.98012
0.989972
0.978513
0.979142
0.994287
0.99126
0.981158
0.979204
0.991122
0.9792
0.977297
0.999967
0.994057
0.984284
0.968882
0.96508
0.940951
0.930038
0.987495
0.996817
0.959
0.986831
1
0.987215
1
0.990911
0.992331
1
0.9832
0.964107
0.939018
0.992523
0.98487
0.993278
0.991533
0.984716
0.976473
0.995336
0.98684
1
0.996668
0.994697
0.984594
0.988358
0.974785
0.955212
0.983255
0.992134
0.999056
0.939576
0.983525
0.986921
0.987212
0.973432
0.990645
0.996342
0.996065
0.979437
0.997595
0.994707
0.970238
0.970354
0.993033
1
0.984282
0.993227
1
0.97444
0.965884
0.93433
0.970474
0.963244
0.936299
0.997122
0.996631
0.99967
0.986215
0.993185
0.826377
0.972455
0.932783
0.786013
0.966989
0.979422
0.974191
0.997461
0.986782
0.98886
0.985027
0.998351
0.980764
0.984865
0.992837
0.979451
0.968762
0.999967
0.992011
0.979814
0.952086
0.915472
0.954944
0.952356
0.983479
1
0.95869
0.993748
1
0.98687
1
0.991998
0.980247
1
0.966117
0.9455
0.967593
0.996811
0.980537
0.975989
1
0.973882
0.983316
0.989308
0.987188
1
0.977768
0.972169
0.983198
0.961238
0.963292
0.973114
0.985143
0.972471
0.976572
0.982864
0.985892
0.986951
0.981584
0.959654
0.996936
0.998397
0.987262
0.965664
1
0.995885
0.972162
0.970968
0.987073
1
0.976348
0.992917
0.993843
0.987795
0.956489
0.904168
0.976276
0.946165
0.899107
0.970916
0.982343
0.99978
0.97331
0.985711
0.7849
0.973561
0.92605
0.72346
0.969221
0.977679
0.960101
0.994526
0.962429
0.981717
0.985147
0.986612
0.955229
0.969095
0.991216
0.97665
0.957107
1
0.998627
0.980511
0.966995
0.974446
0.950747
0.953756
0.991121
1
0.966201
0.995258
1
0.979046
1
0.986804
0.981796
1
0.971715
0.973029
0.97275
0.993623
0.979028
0.992763
0.99912
0.987115
0.993399
0.990429
0.979059
1
0.991701
0.990981
0.964444
0.990867
0.982378
0.981612
0.986491
0.985133
0.991963
0.985664
0.995297
0.991748
0.991215
0.976004
0.978944
0.987928
0.983777
0.963416
0.968926
0.984781
0.96523
0.960402
0.987577
1
0.997365
0.996091
1
0.993731
0.945288
0.898343
0.97263
0.946799
0.863248
0.988488
0.989158
1
0.989851
0.992488
0.712595
0.964652
0.912019
0.685781
0.952493
0.966379
0.982422
0.983512
0.965129
0.967369
0.99098
0.995219
0.973453
0.968913
0.995272
0.980663
0.963264
0.999032
0.996278
0.981666
0.976715
0.964153
0.958653
0.941163
0.993054
1
0.973751
0.996919
1
0.986327
1
0.995803
0.980014
1
0.977456
0.992125
0.979719
0.997691
0.99021
0.991098
0.996811
0.988934
0.993763
0.990368
0.993071
1
0.990701
0.994697
0.975042
0.981595
0.993871
0.984398
0.991134
0.989185
0.990629
0.972616
0.989996
0.988321
0.996258
0.974093
0.996968
0.990772
0.988554
0.978645
0.979372
0.988049
0.951449
0.963482
0.992066
1
0.992399
0.995704
0.99989
0.992974
0.957665
0.84994
0.967049
0.96178
0.845429
0.991033
0.993959
0.996921
0.997395
0.999032
0.676118
0.971311
0.868879
0.649742
0.957334
0.985282
0.975726
0.991822
0.984533
0.976329
0.988335
0.997824
0.983689
0.976057
0.996583
0.98048
0.984232
0.997463
0.995211
0.971785
0.977168
0.985788
0.941233
0.922903
0.9791
1
0.942895
0.984688
1
0.985863
1
0.996829
0.978697
0.998793
0.954632
0.974562
0.962575
0.996811
0.991565
0.992218
0.987245
0.986109
0.990432
0.994275
0.993768
1
0.995214
0.995742
0.980549
0.982641
0.984816
0.985094
0.984394
0.988143
0.994859
0.976984
0.98074
0.981827
0.986237
0.986232
0.982206
0.991649
0.987652
0.988367
0.992256
0.991196
0.980971
0.967959
0.994814
1
0.991187
0.993575
0.996811
0.99358
0.949101
0.804614
0.965188
0.9455
0.783711
0.99385
0.997367
0.994282
0.99385
0.996012
0.661721
0.956753
0.853189
0.630509
0.950984
0.990583
0.993094
0.998087
0.979808
0.968096
0.993596
0.997098
0.992295
0.975694
0.989903
0.965308
0.966938
0.997963
0.98792
0.971754
0.971516
0.960793
0.944311
0.972645
0.985866
1
0.967556
0.988131
1
0.964366
1
0.983664
0.976567
1
0.979346
0.959929
0.968776
0.991972
0.980731
0.993308
0.998461
0.982549
0.989402
0.997759
0.996942
0.996922
0.993549
0.98955
0.997769
0.987871
0.970956
0.973948
0.986224
0.980279
0.988842
0.971663
0.984332
0.976164
0.992938
0.979204
0.997694
0.990559
0.993211
0.995955
0.994101
0.994585
0.97572
0.979856
0.990364
0.996371
0.985949
0.987963
0.997251
0.983827
0.934237
0.772477
0.963915
0.920088
0.769422
0.994396
0.989391
1
0.990516
0.985826
0.677419
0.953338
0.825088
0.667345
0.931444
0.990513
0.989607
0.996307
0.991
0.97624
0.980546
0.99779
0.979809
0.982442
0.971414
0.96637
0.95981
0.998164
0.980997
0.97428
0.981296
0.96388
0.974043
0.971318
0.988735
1
0.959503
0.989701
1
0.977221
1
0.986745
0.971033
1
0.9664
0.970243
0.970449
0.994723
0.985608
0.986922
0.993512
0.986803
0.989249
0.991127
0.985835
0.996921
0.993063
0.989044
0.991704
0.975737
0.989344
0.982237
0.990146
0.989813
0.992225
0.979839
0.981368
0.984029
0.997136
0.990277
0.994234
0.995945
0.991198
0.988875
0.997495
0.997186
0.990624
0.977757
0.992918
1
0.985981
0.991175
0.996921
0.971467
0.926429
0.755204
0.975504
0.913219
0.770523
0.983066
0.984085
0.99945
0.986972
0.99365
0.630158
0.927056
0.76756
0.636794
0.911029
0.987375
0.987165
0.996604
0.990776
0.984776
0.987791
0.998054
0.986726
0.983562
0.9878
0.973066
0.966153
0.99616
0.975164
0.965363
0.973037
0.953644
0.969429
0.974953
0.981187
0.996818
0.961123
0.97816
0.996817
0.988266
1
0.991664
0.97052
1
0.939569
0.976378
0.975115
0.993624
0.988587
0.992704
0.993621
0.982391
0.984585
0.994549
0.992376
0.996811
0.994305
0.98916
0.982922
0.986473
0.991085
0.988158
0.989967
0.98302
0.973389
0.980007
0.989724
0.979114
0.994305
0.988257
0.988864
0.992498
0.99396
0.988647
0.993903
0.990195
0.985311
0.992513
0.995937
0.996702
0.99455
0.985213
0.996811
0.993669
0.910866
0.759219
0.959017
0.916314
0.739661
0.982068
0.986177
0.994831
0.990849
0.998296
0.662548
0.905624
0.730941
0.630336
0.881777
0.981724
0.986608
0.994329
0.980595
0.98644
0.99095
0.99723
0.989877
0.982321
0.978406
0.96653
0.972651
0.990516
0.978093
0.962079
0.991973
0.947552
0.980902
0.976772
0.988827
1
0.945905
0.975895
1
0.965302
0.996818
0.991544
0.976137
0.997475
0.951753
0.971358
0.978673
0.989335
0.985801
0.988798
0.994722
0.988894
0.989401
0.995609
0.990208
0.99978
0.998879
0.98765
0.977764
0.986054
0.978966
0.986556
0.985893
0.978047
0.996844
0.983535
0.988467
0.984058
0.996778
0.993988
0.97618
0.991984
0.991286
0.990501
0.992584
0.992647
0.966846
0.981598
0.987926
0.993624
0.989463
0.988814
0.996591
0.986794
0.902092
0.72391
0.968206
0.897035
0.693337
0.991519
0.994463
0.997581
0.996091
0.993068
0.609035
0.843726
0.702215
0.596151
0.815869
0.993723
0.984514
0.995648
0.983579
0.988076
0.984904
0.999044
0.988187
0.990706
0.960593
0.955283
0.984009
0.983437
0.968757
0.947574
0.980216
0.904768
0.98643
0.995732
0.986471
0.999341
0.975297
0.987677
0.99572
0.96778
0.997476
0.984054
0.970287
0.996817
0.939359
0.992823
0.983619
0.990545
0.981391
0.991221
0.99989
0.986339
0.989007
0.995881
0.991368
0.994282
0.993881
0.990633
0.987729
0.990589
0.990946
0.997005
0.992693
0.991183
0.991216
0.983758
0.992391
0.983135
0.984249
0.991403
0.99094
0.987083
0.988523
0.992469
0.982071
0.988622
0.974747
0.983209
0.98514
0.998901
0.997154
0.990749
0.9989
0.993851
0.893702
0.73785
0.972864
0.890023
0.715706
0.991186
0.992411
0.992412
0.990092
0.994927
0.599585
0.75744
0.659277
0.604285
0.701518
0.993443
0.992188
0.998945
0.978347
0.9954
0.985988
1
0.986332
0.993642
0.958123
0.927619
0.988303
0.942965
0.914509
0.917681
0.977786
0.808835
0.995873
0.989715
0.986048
0.997915
0.969879
0.987163
1
0.97835
1
0.979435
0.982182
1
0.943841
0.972333
0.977976
1
0.989168
0.988526
0.996811
0.982391
0.994609
0.995881
0.992452
0.998571
0.992094
0.995084
0.993934
0.9855
0.98837
0.973318
0.995837
0.975872
0.998146
0.982975
0.993769
0.987634
0.996746
0.988649
0.991566
0.986901
0.989845
0.994774
0.989684
0.988259
0.986079
0.984608
0.994157
0.996262
0.991522
0.99071
0.994171
0.990943
0.891069
0.680976
0.98019
0.878674
0.68094
0.996213
0.996128
1
0.999121
0.997599
0.581783
0.610534
0.545612
0.549544
0.503215
0.996234
0.984932
0.999967
0.982622
0.98862
0.989535
0.999077
0.97992
0.990616
0.881628
0.871168
0.939934
0.866495
0.761192
0.841049
0.880675
0.561931
0.994333
0.996222
0.989581
0.997915
0.968524
0.987224
1
0.97568
0.998354
0.9714
0.978926
0.996927
0.936418
0.97972
0.987315
0.998681
0.990637
0.997366
0.996811
0.99288
0.996487
0.994549
0.98893
0.993733
0.996577
0.998877
0.978805
0.988916
0.985302
0.987324
0.991285
0.990855
0.997137
0.987792
0.9926
0.990793
1
0.996853
0.999769
0.994131
0.981402
0.983704
1
0.99646
0.983209
0.978244
0.992376
1
0.994731
0.99106
0.993623
0.991126
0.871522
0.677345
0.982555
0.861878
0.697663
0.995456
0.996825
1
0.99294
0.995507
0.53838
0.463783
0.484047
0.534595
0.457289
0.98382
0.993861
0.999967
0.987516
0.991435
0.992031
0.998054
0.990662
0.994581
0.570768
0.76021
0.827035
0.613811
0.464902
0.645089
0.636994
0.465788
0.994613
0.993913
0.99544
1
0.980603
0.990304
0.993635
0.968632
1
0.964695
0.946463
1
0.909459
0.989895
0.987873
0.996811
0.991254
0.995609
1
0.983092
0.994278
0.996244
0.998413
0.987686
0.99576
0.994
0.992052
0.996724
0.988299
0.977083
0.993202
0.988352
0.99782
0.997592
0.993289
0.988201
0.996258
0.987862
0.999967
0.995462
0.994051
0.983197
0.999044
0.990105
0.985171
0.975721
0.992454
0.993622
0.997365
0.99702
1
0.997365
0.879329
0.690106
0.998062
0.891536
0.750143
0.995184
0.997871
0.997911
0.998061
0.99481
0.492668
0.44946
0.458102
0.495133
0.445323
0.993933
0.99393
0.997758
0.991001
0.990103
0.989235
0.997131
0.992182
0.989586
0.443154
0.462692
0.478505
0.434425
0.436069
0.433772
0.44803
0.444991
0.987406
0.988527
0.985806
0.996817
0.991366
0.988462
1
0.915423
1
0.977138
0.84884
1
0.657653
0.981114
0.997979
0.996701
0.989939
0.990764
0.996812
0.987813
0.992946
0.991459
0.99551
0.993844
0.994336
0.991058
0.988009
0.995956
0.988788
0.98328
0.993801
0.993655
0.993624
0.990871
0.993499
0.99565
0.999675
0.975784
1
0.995311
0.994832
0.985668
0.999044
0.996308
0.980693
0.977332
0.991138
1
0.987675
0.991098
0.996811
0.992307
0.923627
0.826407
0.987944
0.956481
0.872266
0.997183
0.995199
0.996921
0.998212
0.995856
0.49091
0.441292
0.458586
0.498431
0.443697
0.997978
0.994279
0.997132
0.995108
0.994129
0.992843
0.999011
0.992462
0.994823
0.429978
0.431715
0.430983
0.437397
0.425573
0.430244
0.42785
0.420062
0.993984
0.994333
0.985987
0.993634
0.994502
0.985774
0.980465
0.790726
1
0.982151
0.750133
0.996817
0.473489
0.99331
0.974421
0.996811
0.985955
0.992734
0.982958
0.990016
0.990401
0.996608
0.995587
0.982081
0.994427
0.997484
0.997978
0.991635
0.984606
0.983911
0.992932
0.986922
0.988354
0.985326
0.989395
0.987695
0.992515
0.978984
0.999045
0.992437
0.996515
0.968079
1
0.990316
0.973278
0.98132
0.996594
0.990432
0.996608
0.993615
0.996812
0.994579
0.968894
0.922224
0.987517
0.982568
0.957862
0.995092
0.992605
1
0.992881
0.993223
0.521567
0.444158
0.480206
0.571638
0.454811
0.994002
1
0.998945
0.989709
0.989588
0.993565
0.99812
0.993981
0.994006
0.429703
0.428949
0.428441
0.436061
0.427129
0.432555
0.423215
0.439109
0.988176
0.985309
0.982666
0.983316
0.995703
0.990697
0.974978
0.715288
0.980685
0.944128
0.665489
0.957196
0.450732
0.981393
0.989336
0.991532
0.985489
0.994882
0.974165
0.980229
0.992946
0.993306
0.991716
0.986808
0.994548
0.993381
0.990101
0.986544
0.985654
0.982444
0.988829
0.988115
0.993494
0.990535
0.99308
0.991925
0.996192
0.984324
0.999374
0.995825
0.997386
0.989827
0.998088
0.993222
0.976705