# Probe 0 (0 0 0.01)
#       Probe             0
#        Time
       0.0001       9497.68
       0.0002       66.9473
       0.0003       101.407
       0.0004       103.704
       0.0005       107.537
       0.0006       111.298
       0.0007       114.029
       0.0008       115.697
       0.0009       116.485
        0.001       116.232
       0.0011       103.714
       0.0012       98.3829
       0.0013       94.7365
       0.0014       91.9256
       0.0015       89.7849
       0.0016       88.1111
       0.0017       86.7684
       0.0018       85.7674
       0.0019       84.9361
        0.002       84.2077
       0.0021       107.367
       0.0022       107.411
       0.0023       107.528
       0.0024       107.665
       0.0025       107.844
       0.0026       108.045
       0.0027       108.299
       0.0028       108.531
       0.0029       108.856
        0.003       109.192
       0.0031       123.565
       0.0032       123.697
       0.0033        124.16
       0.0034       124.707
       0.0035        125.27
       0.0036       125.865
       0.0037       126.501
       0.0038       127.137
       0.0039       127.802
        0.004       128.445
       0.0041       127.351
       0.0042       128.968
       0.0043       131.158
       0.0044       133.258
       0.0045       135.285
       0.0046       137.275
       0.0047       139.192
       0.0048       141.098
       0.0049       142.974
        0.005       144.825
       0.0051       137.078
       0.0052       137.915
       0.0053       140.077
       0.0054        142.25
       0.0055       144.432
       0.0056       146.553
       0.0057       148.648
       0.0058       150.693
       0.0059       152.588
        0.006       154.425
       0.0061        150.73
       0.0062       152.941
       0.0063       156.076
       0.0064       159.216
       0.0065       162.342
       0.0066       165.365
       0.0067       168.278
       0.0068       171.163
       0.0069       173.942
        0.007        176.58
       0.0071       191.685
       0.0072       205.912
       0.0073       220.861
       0.0074       235.749
       0.0075       250.559
       0.0076       265.369
       0.0077       280.183
       0.0078       295.096
       0.0079       310.185
        0.008       325.649
       0.0081       353.826
       0.0082       373.887
       0.0083       394.749
       0.0084       416.847
       0.0085       440.492
       0.0086       465.357
       0.0087       491.793
       0.0088       519.919
       0.0089        549.54
        0.009       581.099
       0.0091        634.29
       0.0092       679.668
       0.0093       725.907
       0.0094       770.831
       0.0095        817.67
       0.0096       863.848
       0.0097       909.663
       0.0098       954.726
       0.0099       999.014
         0.01       1042.12
       0.0101       1079.85
       0.0102       1113.91
       0.0103       1147.19
       0.0104       1179.63
       0.0105       1211.04
       0.0106       1241.67
       0.0107       1271.97
       0.0108       1302.15
       0.0109       1332.53
        0.011       1362.28
       0.0111       1339.09
       0.0112       1322.64
       0.0113       1308.29
       0.0114       1293.54
       0.0115       1279.24
       0.0116       1265.62
       0.0117       1252.46
       0.0118       1239.88
       0.0119       1227.69
        0.012       1216.01
       0.0121        1174.7
       0.0122       1137.56
       0.0123       1102.88
       0.0124       1070.63
       0.0125       1040.69
       0.0126       1013.38
       0.0127       988.605
       0.0128       966.392
       0.0129       946.943
        0.013       930.276
       0.0131       918.152
       0.0132       910.844
       0.0133       906.271
       0.0134       904.351
       0.0135       905.059
       0.0136       908.492
       0.0137       914.792
       0.0138       923.913
       0.0139       935.805
        0.014       950.135
       0.0141       954.599
       0.0142       963.728
       0.0143       974.637
       0.0144       987.124
       0.0145        1001.2
       0.0146       1016.78
       0.0147       1034.09
       0.0148       1053.29
       0.0149        1074.5
        0.015       1097.79
       0.0151       1085.87
       0.0152        1081.8
       0.0153       1079.03
       0.0154        1077.1
       0.0155       1076.01
       0.0156       1075.92
       0.0157       1076.66
       0.0158       1078.44
       0.0159       1080.87
        0.016       1083.94
       0.0161       1046.51
       0.0162       1015.51
       0.0163       987.054
       0.0164       961.074
       0.0165       937.544
       0.0166       916.532
       0.0167       897.949
       0.0168       881.863
       0.0169        868.72
        0.017       858.441
       0.0171        840.53
       0.0172        829.67
       0.0173       822.245
       0.0174       817.872
       0.0175       816.591
       0.0176       818.351
       0.0177       823.117
       0.0178       830.883
       0.0179       841.566
        0.018       855.011
       0.0181        854.16
       0.0182        858.58
       0.0183       864.731
       0.0184       872.429
       0.0185       881.814
       0.0186       892.961
       0.0187       905.974
       0.0188       921.084
       0.0189        938.35
        0.019       958.098
       0.0191       939.608
       0.0192       928.928
       0.0193       919.214
       0.0194       910.195
       0.0195       901.701
       0.0196       894.221
       0.0197       887.351
       0.0198       881.024
       0.0199       875.657
         0.02       871.317
       0.0201        838.91
       0.0202       813.186
       0.0203       791.311
       0.0204       772.883
       0.0205       757.505
       0.0206       745.492
       0.0207       736.232
       0.0208       731.095
       0.0209       728.913
        0.021       729.985
       0.0211       721.975
       0.0212        721.23
       0.0213       723.045
       0.0214       727.327
       0.0215        733.72
       0.0216       742.462
       0.0217       753.392
       0.0218         766.5
       0.0219       781.724
        0.022       799.164
       0.0221       788.021
       0.0222       784.197
       0.0223       781.871
       0.0224       780.779
       0.0225       781.076
       0.0226       782.887
       0.0227       785.886
       0.0228       790.075
       0.0229       795.693
        0.023       802.511
       0.0231       769.282
       0.0232       744.322
       0.0233       721.693
       0.0234       701.501
       0.0235       683.802
       0.0236       668.546
       0.0237       655.646
       0.0238       645.188
       0.0239       637.404
        0.024       632.209
       0.0241       611.649
       0.0242       599.016
       0.0243       589.284
       0.0244       582.105
       0.0245       577.402
       0.0246       574.843
       0.0247       574.455
       0.0248       575.969
       0.0249       579.445
        0.025       584.608
       0.0251       573.698
       0.0252       568.984
       0.0253        565.28
       0.0254       562.441
       0.0255       560.181
       0.0256       558.643
       0.0257       557.817
       0.0258       557.597
       0.0259       557.959
        0.026       558.815
       0.0261       531.674
       0.0262       510.989
       0.0263        492.62
       0.0264        476.28
       0.0265       461.873
       0.0266       449.205
       0.0267       438.232
       0.0268       428.787
       0.0269       420.875
        0.027       414.399
       0.0271       397.447
       0.0272       386.632
       0.0273       377.881
       0.0274       370.792
       0.0275       365.265
       0.0276       361.068
       0.0277       358.152
       0.0278       356.311
       0.0279       355.667
        0.028       356.033
       0.0281       348.441
       0.0282       345.562
       0.0283       343.434
       0.0284       341.774
       0.0285       340.645
       0.0286       339.769
       0.0287       339.296
       0.0288       338.996
       0.0289       338.973
        0.029       339.127
       0.0291        321.48
       0.0292       309.942
       0.0293       300.445
       0.0294       292.416
       0.0295       285.799
       0.0296       280.262
       0.0297       275.752
       0.0298       272.008
       0.0299       269.264
         0.03       267.346
       0.0301       257.998
       0.0302       253.356
       0.0303         250.1
       0.0304       248.019
       0.0305       247.126
       0.0306       247.158
       0.0307        248.15
       0.0308       250.041
       0.0309       252.819
        0.031       256.455
       0.0311       255.339
       0.0312       258.948
       0.0313       263.263
       0.0314       268.212
       0.0315       273.835
       0.0316       280.046
       0.0317       286.887
       0.0318       294.176
       0.0319       302.096
        0.032       310.453
       0.0321       305.938
       0.0322       306.862
       0.0323       308.641
       0.0324       311.349
       0.0325       314.883
       0.0326       319.297
       0.0327       323.978
       0.0328        329.26
       0.0329       335.297
        0.033       341.786
       0.0331       337.799
       0.0332       339.848
       0.0333       343.319
       0.0334       347.982
       0.0335       354.362
       0.0336       361.135
       0.0337       369.611
       0.0338       379.402
       0.0339       390.671
        0.034       403.264
       0.0341       404.939
       0.0342       414.906
       0.0343       426.479
       0.0344       438.341
       0.0345       451.042
       0.0346        464.24
       0.0347       478.157
       0.0348       492.852
       0.0349       508.461
        0.035        524.57
       0.0351       511.197
       0.0352       506.161
       0.0353       502.377
       0.0354       500.155
       0.0355       499.582
       0.0356       500.471
       0.0357       502.844
       0.0358       506.829
       0.0359       512.861
        0.036       520.758
       0.0361       505.358
       0.0362       497.554
       0.0363       492.137
       0.0364       488.871
       0.0365       488.085
       0.0366        488.87
       0.0367       492.173
       0.0368       497.539
       0.0369       505.296
        0.037       515.466
       0.0371       505.152
       0.0372       503.702
       0.0373       504.048
       0.0374       505.846
       0.0375        509.11
       0.0376       513.776
       0.0377       519.854
       0.0378       526.821
       0.0379       535.927
        0.038       545.921
       0.0381       526.585
       0.0382       515.749
       0.0383       506.822
       0.0384        500.29
       0.0385        495.54
       0.0386       492.526
       0.0387       491.562
       0.0388       492.561
       0.0389        495.73
        0.039       501.035
       0.0391        482.87
       0.0392       473.591
       0.0393       466.941
       0.0394       462.756
       0.0395        461.08
       0.0396       461.645
       0.0397       464.614
       0.0398       469.711
       0.0399       477.292
         0.04       487.372
       0.0401       475.425
       0.0402       471.741
       0.0403       469.938
       0.0404       469.474
       0.0405       470.796
       0.0406       473.517
       0.0407       477.753
       0.0408       483.579
       0.0409       490.813
        0.041       499.455
       0.0411       480.385
       0.0412        469.32
       0.0413       460.485
       0.0414       453.676
       0.0415       448.836
       0.0416       445.975
       0.0417       445.084
       0.0418       446.287
       0.0419       449.514
        0.042       454.881
       0.0421        440.18
       0.0422       433.514
       0.0423        429.25
       0.0424       427.191
       0.0425       427.294
       0.0426       429.506
       0.0427       433.785
       0.0428       440.395
       0.0429       449.355
        0.043       460.914
       0.0431       446.655
       0.0432       441.873
       0.0433       438.851
       0.0434       437.557
       0.0435       438.048
       0.0436       439.992
       0.0437        443.48
       0.0438       448.592
       0.0439       455.292
        0.044       463.737
       0.0441       443.905
       0.0442       433.035
       0.0443       424.532
       0.0444       418.271
       0.0445       414.236
       0.0446       412.218
       0.0447       412.361
       0.0448       414.518
       0.0449       418.766
        0.045       424.926
       0.0451       410.554
       0.0452       404.497
       0.0453       400.439
       0.0454       398.156
       0.0455       397.753
       0.0456       399.334
       0.0457       402.666
       0.0458       408.061
       0.0459       415.427
        0.046       424.977
       0.0461       411.496
       0.0462       406.216
       0.0463       402.537
       0.0464       400.369
       0.0465       399.701
       0.0466       400.483
       0.0467       402.632
       0.0468       406.537
       0.0469        412.06
        0.047       419.563
       0.0471       401.825
       0.0472       393.178
       0.0473       387.003
       0.0474       383.076
       0.0475       381.217
       0.0476       381.397
       0.0477       383.494
       0.0478       387.526
       0.0479       393.081
        0.048       400.952
       0.0481       387.035
       0.0482       381.617
       0.0483       378.222
       0.0484       376.826
       0.0485         377.4
       0.0486       379.834
       0.0487       384.148
       0.0488       390.298
       0.0489       398.489
        0.049       408.777
       0.0491        392.96
       0.0492       385.222
       0.0493       379.023
       0.0494       374.376
       0.0495       371.324
       0.0496       369.799
       0.0497        369.89
       0.0498       371.712
       0.0499       375.208
         0.05       380.533
       0.0501       366.827
       0.0502       360.634
       0.0503       356.276
       0.0504        353.61
       0.0505       352.486
       0.0506       352.897
       0.0507       354.896
       0.0508       358.672
       0.0509       364.483
        0.051         372.6
       0.0511       360.371
       0.0512       356.373
       0.0513       354.178
       0.0514       353.631
       0.0515       354.611
       0.0516       357.154
       0.0517       361.255
       0.0518       366.929
       0.0519       374.198
        0.052       383.731
       0.0521       366.412
       0.0522        358.52
       0.0523       352.736
       0.0524       348.952
       0.0525       347.051
       0.0526       346.862
       0.0527       348.348
       0.0528        351.43
       0.0529       356.182
        0.053       362.745
       0.0531       348.199
       0.0532       341.669
       0.0533       336.997
       0.0534       334.031
       0.0535       332.728
       0.0536       333.147
       0.0537       335.293
       0.0538       339.219
       0.0539       344.803
        0.054        352.07
       0.0541       339.741
       0.0542       334.522
       0.0543       330.724
       0.0544       328.435
       0.0545       327.589
       0.0546       328.386
       0.0547       330.848
       0.0548       335.154
       0.0549       341.358
        0.055       349.584
       0.0551        335.73
       0.0552       329.751
       0.0553       325.273
       0.0554       322.046
       0.0555       320.469
       0.0556       320.268
       0.0557       321.594
       0.0558       324.632
       0.0559       329.657
        0.056       336.836
       0.0561       325.529
       0.0562       321.665
       0.0563       319.134
       0.0564       317.854
       0.0565       317.805
       0.0566       319.065
       0.0567       321.557
       0.0568       325.615
       0.0569       331.296
        0.057       338.939
       0.0571        325.77
       0.0572       320.749
       0.0573       317.403
       0.0574       315.653
       0.0575       315.339
       0.0576       316.293
       0.0577       318.472
       0.0578       321.986
       0.0579       326.727
        0.058       333.125
       0.0581       318.688
       0.0582       312.776
       0.0583       308.748
       0.0584       306.174
       0.0585       305.216
       0.0586       305.702
       0.0587       307.717
       0.0588       311.385
       0.0589       316.506
        0.059       323.131
       0.0591       310.313
       0.0592        304.62
       0.0593       300.134
       0.0594       297.333
       0.0595         296.1
       0.0596       296.343
       0.0597       298.366
       0.0598       302.165
       0.0599       307.881
         0.06       315.526
       0.0601       304.283
       0.0602       299.779
       0.0603       296.195
       0.0604       293.655
       0.0605       292.176
       0.0606       292.167
       0.0607       293.382
       0.0608       296.543
       0.0609       301.546
        0.061       308.641
       0.0611       297.379
       0.0612       292.868
       0.0613       289.377
       0.0614       286.868
       0.0615       285.414
       0.0616       285.127
       0.0617       286.081
       0.0618       288.605
       0.0619       292.863
        0.062       299.171
       0.0621       288.566
       0.0622       285.072
       0.0623         282.7
       0.0624       281.492
       0.0625       281.106
       0.0626       281.525
       0.0627       283.032
       0.0628       285.564
       0.0629       289.386
        0.063       294.681
       0.0631       283.675
       0.0632       280.268
       0.0633        277.98
       0.0634       276.816
       0.0635       276.659
       0.0636        277.43
       0.0637       279.054
       0.0638       281.809
       0.0639       285.448
        0.064       290.346
       0.0641       278.041
       0.0642       272.783
       0.0643       268.786
       0.0644       266.349
       0.0645       265.088
       0.0646       265.035
       0.0647       266.266
       0.0648       268.778
       0.0649       272.584
        0.065        277.41
       0.0651       267.107
       0.0652       263.333
       0.0653       260.367
       0.0654       258.794
       0.0655       258.281
       0.0656        258.89
       0.0657       260.803
       0.0658        264.26
       0.0659       269.114
        0.066       275.475
       0.0661       264.311
       0.0662       259.292
       0.0663        255.22
       0.0664       252.022
       0.0665       250.128
       0.0666       249.419
       0.0667       250.114
       0.0668       252.337
       0.0669       256.336
        0.067       262.154
       0.0671        253.38
       0.0672       250.522
       0.0673       248.031
       0.0674       245.985
       0.0675       244.594
       0.0676       243.921
       0.0677       244.278
       0.0678       245.838
       0.0679       248.859
        0.068        253.77
       0.0681       246.219
       0.0682       244.638
       0.0683       243.347
       0.0684       242.181
       0.0685       241.221
       0.0686       240.647
       0.0687       240.606
       0.0688       241.248
       0.0689       242.943
        0.069       245.914
       0.0691       237.125
       0.0692       234.603
       0.0693       232.701
       0.0694       231.503
       0.0695       230.886
       0.0696       230.797
       0.0697       231.254
       0.0698        232.42
       0.0699       234.524
         0.07       237.604
       0.0701       229.449
       0.0702       227.438
       0.0703       226.078
       0.0704       225.417
       0.0705       225.319
       0.0706       225.894
       0.0707       227.113
       0.0708       228.818
       0.0709        231.03
        0.071       234.015
       0.0711       224.432
       0.0712       220.866
       0.0713       218.184
       0.0714       216.378
       0.0715        215.48
       0.0716       215.423
       0.0717       216.149
       0.0718       217.706
       0.0719        219.96
        0.072       222.859
       0.0721       214.536
       0.0722       211.871
       0.0723       209.688
       0.0724        208.19
       0.0725       207.344
       0.0726       207.135
       0.0727       207.884
       0.0728       209.692
       0.0729       212.497
        0.073        216.48
       0.0731       209.208
       0.0732       207.002
       0.0733       205.049
       0.0734       203.492
       0.0735       202.453
       0.0736       201.961
       0.0737       202.327
       0.0738       203.628
       0.0739       206.035
        0.074       209.571
       0.0741       202.877
       0.0742        201.22
       0.0743       199.649
       0.0744       198.282
       0.0745       197.168
       0.0746        196.48
       0.0747       196.449
       0.0748       197.196
       0.0749       199.039
        0.075       202.207
       0.0751       196.147
       0.0752       194.977
       0.0753       193.814
       0.0754       192.811
       0.0755       191.873
       0.0756       191.178
       0.0757       190.942
       0.0758       191.314
       0.0759       192.496
        0.076       194.737
       0.0761        188.92
       0.0762       188.044
       0.0763       187.141
       0.0764       186.388
       0.0765       185.802
       0.0766       185.364
       0.0767       185.228
       0.0768       185.385
       0.0769       186.098
        0.077       187.613
       0.0771       181.691
       0.0772       180.368
       0.0773       179.251
       0.0774       178.313
       0.0775       177.644
       0.0776       177.246
       0.0777       177.037
       0.0778       177.084
       0.0779       177.499
        0.078       178.299
       0.0781       172.793
       0.0782       171.966
       0.0783       171.431
       0.0784       171.166
       0.0785       171.164
       0.0786        171.41
       0.0787       171.908
       0.0788       172.692
       0.0789       173.684
        0.079       174.879
       0.0791       169.199
       0.0792       167.911
       0.0793       166.939
       0.0794       166.414
       0.0795       166.057
       0.0796       166.095
       0.0797       166.518
       0.0798       167.338
       0.0799       168.655
         0.08       170.451
       0.0801       164.728
       0.0802       163.263
       0.0803       161.996
       0.0804       161.043
       0.0805       160.408
       0.0806       160.193
       0.0807       160.513
       0.0808        161.39
       0.0809       162.968
        0.081       165.283
       0.0811       160.634
       0.0812       159.876
       0.0813       159.032
       0.0814       158.224
       0.0815       157.491
       0.0816       157.015
       0.0817       156.985
       0.0818       157.444
       0.0819       158.577
        0.082       160.458
       0.0821       155.674
       0.0822        154.71
       0.0823       153.658
       0.0824       152.679
       0.0825       151.744
       0.0826       150.934
       0.0827       150.476
       0.0828       150.549
       0.0829       151.207
        0.083       152.679
       0.0831       148.648
       0.0832       148.516
       0.0833       148.166
       0.0834       147.841
       0.0835       147.506
       0.0836       147.191
       0.0837       147.024
       0.0838       147.145
       0.0839       147.748
        0.084       148.937
       0.0841       144.827
       0.0842       144.452
       0.0843       144.017
       0.0844       143.552
       0.0845       143.048
       0.0846       142.536
       0.0847       142.044
       0.0848       141.662
       0.0849       141.516
        0.085       141.588
       0.0851       137.722
       0.0852       137.487
       0.0853       137.262
       0.0854        137.12
       0.0855       136.938
       0.0856       136.784
       0.0857       136.633
       0.0858       136.488
       0.0859       136.429
        0.086       136.531
       0.0861       133.639
       0.0862       133.666
       0.0863       133.556
       0.0864       133.542
       0.0865       133.607
       0.0866       133.713
       0.0867       133.925
       0.0868       134.172
       0.0869       134.528
        0.087       135.114
       0.0871       131.353
       0.0872        130.85
       0.0873       130.407
       0.0874       130.147
       0.0875       130.023
       0.0876       130.008
       0.0877       130.123
       0.0878       130.462
       0.0879       130.965
        0.088       131.832
       0.0881       128.347
       0.0882       127.978
       0.0883       127.534
       0.0884       127.068
       0.0885       126.684
       0.0886       126.457
       0.0887       126.472
       0.0888       126.738
       0.0889       127.397
        0.089       128.417
       0.0891       125.084
       0.0892       124.911
       0.0893         124.6
       0.0894       124.277
       0.0895       123.945
       0.0896       123.649
       0.0897       123.487
       0.0898       123.558
       0.0899       123.939
         0.09       124.655
       0.0901       121.596
       0.0902       121.436
       0.0903       121.138
       0.0904       120.771
       0.0905       120.347
       0.0906       119.949
       0.0907       119.538
       0.0908       119.358
       0.0909       119.476
        0.091       119.984
       0.0911        117.61
       0.0912        117.73
       0.0913       117.673
       0.0914       117.506
       0.0915       117.303
       0.0916       117.104
       0.0917       116.885
       0.0918       116.675
       0.0919       116.625
        0.092       116.734
       0.0921       114.093
       0.0922       114.159
       0.0923        114.08
       0.0924       113.951
       0.0925       113.801
       0.0926       113.546
       0.0927        113.36
       0.0928       113.178
       0.0929       113.037
        0.093       113.018
       0.0931       110.376
       0.0932       110.256
       0.0933         110.1
       0.0934       110.045
       0.0935       110.018
       0.0936       110.019
       0.0937        110.08
       0.0938       110.161
       0.0939       110.313
        0.094       110.645
       0.0941       108.514
       0.0942       108.567
       0.0943       108.603
       0.0944       108.674
       0.0945       108.715
       0.0946       108.841
       0.0947       108.959
       0.0948       109.104
       0.0949       109.333
        0.095       109.664
       0.0951         107.3
       0.0952        106.86
       0.0953        106.41
       0.0954       106.034
       0.0955       105.776
       0.0956       105.601
       0.0957       105.612
       0.0958       105.762
       0.0959        106.04
        0.096       106.463
       0.0961       104.283
       0.0962       104.491
       0.0963        104.53
       0.0964       104.543
       0.0965        104.53
       0.0966       104.517
       0.0967       104.522
       0.0968       104.606
       0.0969       104.796
        0.097        105.12
       0.0971       103.273
       0.0972       103.393
       0.0973       103.252
       0.0974       103.007
       0.0975       102.683
       0.0976       102.327
       0.0977       101.976
       0.0978       101.725
       0.0979       101.588
        0.098       101.643
       0.0981        99.958
       0.0982       100.195
       0.0983       100.244
       0.0984       100.196
       0.0985       100.127
       0.0986       100.049
       0.0987        99.933
       0.0988       99.8072
       0.0989        99.656
        0.099        99.578
       0.0991        98.027
       0.0992       98.4199
       0.0993       98.5823
       0.0994       98.6593
       0.0995       98.6725
       0.0996       98.6128
       0.0997       98.4758
       0.0998        98.342
       0.0999       98.2173
          0.1        98.117
       0.1001       96.3822
       0.1002       96.2847
       0.1003       96.1635
       0.1004       96.1036
       0.1005       96.1145
       0.1006       96.1754
       0.1007       96.2849
       0.1008       96.4151
       0.1009       96.6188
        0.101       96.8713
       0.1011       95.3731
       0.1012       95.6958
       0.1013       95.7829
       0.1014       95.8373
       0.1015       95.9012
       0.1016       95.9717
       0.1017       96.0691
       0.1018       96.2177
       0.1019       96.3256
        0.102        96.445
       0.1021       94.7393
       0.1022       94.6773
       0.1023       94.4589
       0.1024        94.221
       0.1025       94.0115
       0.1026       93.8072
       0.1027       93.6639
       0.1028       93.5876
       0.1029        93.613
        0.103       93.7076
       0.1031       92.7995
       0.1032       93.3583
       0.1033       93.5747
       0.1034       93.6045
       0.1035       93.5561
       0.1036       93.4348
       0.1037       93.2992
       0.1038       93.1542
       0.1039       93.0007
        0.104       92.7639
       0.1041       91.7555
       0.1042       92.2913
       0.1043       92.5081
       0.1044       92.5543
       0.1045       92.4748
       0.1046       92.3734
       0.1047       92.2201
       0.1048       92.0415
       0.1049       91.8721
        0.105       91.7699
       0.1051       90.6791
       0.1052       90.9668
       0.1053       91.0822
       0.1054        91.105
       0.1055       91.0981
       0.1056        91.081
       0.1057       91.0436
       0.1058       90.9969
       0.1059       90.9293
        0.106       90.8106
       0.1061       89.6588
       0.1062       89.9792
       0.1063        90.134
       0.1064       90.2338
       0.1065        90.296
       0.1066       90.3766
       0.1067       90.5131
       0.1068       90.5695
       0.1069       90.7748