# Probe 0 (0 0 0.01)
#       Probe             0
#        Time
       0.0001             (0.0441895 0.017966 2.23108)
       0.0002             (0.0501801 0.024264 2.25113)
       0.0003             (0.0472914 0.0239725 2.26533)
       0.0004             (0.042919 0.0221005 2.28843)
       0.0005             (0.0370303 0.0191735 2.34144)
       0.0006             (0.0299431 0.0150463 2.43887)
       0.0007             (0.0222559 0.00958084 2.59151)
       0.0008             (0.0144213 0.00328513 2.81169)
       0.0009             (0.00627781 -0.00407232 3.12136)
        0.001             (-0.00249935 -0.0127318 3.55869)
       0.0011             (-0.00729166 -0.0158647 3.60617)
       0.0012             (-0.0112246 -0.0183144 3.65926)
       0.0013             (-0.0141032 -0.0200848 3.70597)
       0.0014             (-0.016269 -0.0213618 3.74525)
       0.0015             (-0.0179465 -0.0222515 3.77835)
       0.0016             (-0.0192418 -0.0229739 3.8067)
       0.0017             (-0.0203185 -0.0235495 3.83127)
       0.0018             (-0.0211117 -0.024038 3.85285)
       0.0019             (-0.0218056 -0.02446 3.87189)
        0.002             (-0.022375 -0.0248286 3.88885)
       0.0021             (-0.0220817 -0.0244462 3.89276)
       0.0022             (-0.0217608 -0.0240668 3.8938)
       0.0023             (-0.0214902 -0.0237738 3.89461)
       0.0024             (-0.0212483 -0.0235291 3.89552)
       0.0025             (-0.0210265 -0.0233132 3.8965)
       0.0026             (-0.0208032 -0.0231464 3.89751)
       0.0027             (-0.0206252 -0.0230212 3.89848)
       0.0028             (-0.0204191 -0.0227654 3.89944)
       0.0029             (-0.0202756 -0.0225698 3.90026)
        0.003             (-0.0199817 -0.022391 3.90104)
       0.0031             (-0.0192645 -0.0219565 3.92716)
       0.0032             (-0.0183312 -0.021387 3.95613)
       0.0033             (-0.0174518 -0.0207456 3.98544)
       0.0034             (-0.0165697 -0.0200363 4.01472)
       0.0035             (-0.015628 -0.0194126 4.04396)
       0.0036             (-0.0146583 -0.0187646 4.07328)
       0.0037             (-0.0136175 -0.0180559 4.10228)
       0.0038             (-0.0125942 -0.017293 4.13103)
       0.0039             (-0.0115868 -0.016541 4.15961)
        0.004             (-0.0105624 -0.0157466 4.18795)
       0.0041             (-0.00873163 -0.0143116 4.19931)
       0.0042             (-0.00707417 -0.0130916 4.2091)
       0.0043             (-0.00550004 -0.0120248 4.21886)
       0.0044             (-0.00395392 -0.0109281 4.22871)
       0.0045             (-0.00247188 -0.00986526 4.23874)
       0.0046             (-0.000989792 -0.00880994 4.24888)
       0.0047             (0.000464785 -0.00775576 4.25907)
       0.0048             (0.00191792 -0.00671705 4.26932)
       0.0049             (0.003378 -0.00568785 4.27962)
        0.005             (0.0048336 -0.00464023 4.28997)
       0.0051             (0.0042346 -0.00501116 4.29716)
       0.0052             (0.00374065 -0.00527698 4.30399)
       0.0053             (0.00340555 -0.00541056 4.31057)
       0.0054             (0.00315362 -0.00551831 4.31687)
       0.0055             (0.00294935 -0.00558842 4.32287)
       0.0056             (0.00279471 -0.00565151 4.32852)
       0.0057             (0.00266484 -0.00567717 4.33379)
       0.0058             (0.00252989 -0.00569214 4.33862)
       0.0059             (0.00239019 -0.00572197 4.34302)
        0.006             (0.00224618 -0.00575051 4.34691)
       0.0061             (0.00157968 -0.00631293 4.33921)
       0.0062             (0.000945528 -0.00677098 4.32949)
       0.0063             (0.000392763 -0.0071436 4.31919)
       0.0064             (-0.000141228 -0.00748682 4.30849)
       0.0065             (-0.000675046 -0.00781398 4.29738)
       0.0066             (-0.0011912 -0.0081543 4.28587)
       0.0067             (-0.0017918 -0.00848936 4.27371)
       0.0068             (-0.00240339 -0.00886365 4.26114)
       0.0069             (-0.00303049 -0.00923431 4.24812)
        0.007             (-0.0036784 -0.00960046 4.2346)
       0.0071             (0.00248512 -0.00390734 4.22202)
       0.0072             (0.0106241 0.00379814 4.21072)
       0.0073             (0.0194081 0.0121457 4.2001)
       0.0074             (0.0283988 0.0206582 4.19028)
       0.0075             (0.0373502 0.0291732 4.18098)
       0.0076             (0.0462278 0.0376578 4.17231)
       0.0077             (0.0550002 0.0460345 4.16421)
       0.0078             (0.0637418 0.0544655 4.15736)
       0.0079             (0.0724516 0.0628796 4.1522)
        0.008             (0.0811346 0.0712632 4.14892)
       0.0081             (0.0862767 0.0737765 4.06267)
       0.0082             (0.0876157 0.073028 3.98296)
       0.0083             (0.0876761 0.0711458 3.91005)
       0.0084             (0.0877384 0.0689117 3.84313)
       0.0085             (0.0881025 0.0667408 3.78256)
       0.0086             (0.0890558 0.0649032 3.72847)
       0.0087             (0.0906957 0.0635252 3.68071)
       0.0088             (0.0929412 0.0623367 3.63926)
       0.0089             (0.0954952 0.0611975 3.6041)
        0.009             (0.0981963 0.0603252 3.57507)
       0.0091             (0.11036 0.069338 3.52561)
       0.0092             (0.124716 0.0803341 3.48405)
       0.0093             (0.138912 0.0911101 3.44887)
       0.0094             (0.151979 0.100979 3.41798)
       0.0095             (0.163522 0.10939 3.39759)
       0.0096             (0.172382 0.115714 3.38478)
       0.0097             (0.179932 0.120269 3.37962)
       0.0098             (0.185691 0.123765 3.38185)
       0.0099             (0.189306 0.125587 3.39066)
         0.01             (0.191002 0.125736 3.40564)
       0.0101             (0.178737 0.114245 3.42699)
       0.0102             (0.165727 0.102303 3.45466)
       0.0103             (0.153166 0.0907819 3.48665)
       0.0104             (0.140762 0.0798525 3.52248)
       0.0105             (0.128873 0.0696844 3.56158)
       0.0106             (0.117621 0.0602764 3.60417)
       0.0107             (0.107224 0.051673 3.65042)
       0.0108             (0.0977222 0.0439482 3.7005)
       0.0109             (0.0888834 0.0370478 3.75469)
        0.011             (0.0812841 0.0309601 3.81165)
       0.0111             (0.0727032 0.0271794 3.85717)
       0.0112             (0.0656489 0.0242999 3.91216)
       0.0113             (0.0593291 0.0216969 3.97075)
       0.0114             (0.0538663 0.0194308 4.0311)
       0.0115             (0.0485872 0.0172938 4.09274)
       0.0116             (0.0435033 0.0152688 4.15555)
       0.0117             (0.0384964 0.0134477 4.21902)
       0.0118             (0.033713 0.0116384 4.28318)
       0.0119             (0.0292805 0.010043 4.34738)
        0.012             (0.0250538 0.00854657 4.41176)
       0.0121             (0.0271935 0.00974369 4.46079)
       0.0122             (0.0291575 0.010796 4.50903)
       0.0123             (0.0308452 0.0118402 4.55714)
       0.0124             (0.0321799 0.0129356 4.60588)
       0.0125             (0.0335067 0.0141019 4.65522)
       0.0126             (0.0351529 0.0154461 4.70567)
       0.0127             (0.0373255 0.0174427 4.75715)
       0.0128             (0.0401907 0.0198105 4.81008)
       0.0129             (0.0439715 0.0228097 4.86495)
        0.013             (0.0489648 0.026842 4.92247)
       0.0131             (0.0482874 0.0257792 4.92826)
       0.0132             (0.0477967 0.0239473 4.91225)
       0.0133             (0.0485448 0.0224355 4.88527)
       0.0134             (0.0508539 0.0214729 4.85276)
       0.0135             (0.0546151 0.0211298 4.81717)
       0.0136             (0.0593494 0.021899 4.77979)
       0.0137             (0.0653727 0.0240372 4.74033)
       0.0138             (0.072528 0.0271101 4.70268)
       0.0139             (0.0803958 0.0301358 4.66254)
        0.014             (0.0880013 0.0328895 4.62265)
       0.0141             (0.0976804 0.0389534 4.56629)
       0.0142             (0.108124 0.0465414 4.50698)
       0.0143             (0.119034 0.0546671 4.44671)
       0.0144             (0.130139 0.0624587 4.387)
       0.0145             (0.141115 0.0694885 4.32987)
       0.0146             (0.151635 0.0760012 4.27627)
       0.0147             (0.161878 0.0821818 4.22755)
       0.0148             (0.172351 0.0881806 4.1851)
       0.0149             (0.1837 0.0939142 4.14886)
        0.015             (0.195159 0.099462 4.11843)
       0.0151             (0.192197 0.0964772 4.11657)
       0.0152             (0.185032 0.0907232 4.13428)
       0.0153             (0.176338 0.084327 4.15954)
       0.0154             (0.167439 0.0777405 4.19275)
       0.0155             (0.158479 0.0709478 4.23416)
       0.0156             (0.149643 0.0638942 4.28416)
       0.0157             (0.141117 0.0563749 4.343)
       0.0158             (0.132319 0.048081 4.41134)
       0.0159             (0.122872 0.038961 4.48975)
        0.016             (0.112541 0.0288999 4.57898)
       0.0161             (0.10875 0.0262857 4.64505)
       0.0162             (0.108211 0.0284882 4.69061)
       0.0163             (0.108586 0.0333152 4.72086)
       0.0164             (0.109781 0.0403301 4.73926)
       0.0165             (0.111792 0.0488698 4.74741)
       0.0166             (0.114468 0.0589478 4.74687)
       0.0167             (0.117962 0.0703487 4.7387)
       0.0168             (0.122415 0.0830446 4.72372)
       0.0169             (0.128277 0.0974359 4.70235)
        0.017             (0.135062 0.113428 4.67488)
       0.0171             (0.138495 0.123403 4.62323)
       0.0172             (0.141518 0.130798 4.55152)
       0.0173             (0.144591 0.136191 4.46328)
       0.0174             (0.147984 0.140814 4.36223)
       0.0175             (0.153329 0.146532 4.25701)
       0.0176             (0.158832 0.151335 4.14087)
       0.0177             (0.164449 0.154668 4.0165)
       0.0178             (0.169744 0.157096 3.88491)
       0.0179             (0.174078 0.158758 3.74841)
        0.018             (0.177047 0.1596 3.60786)
       0.0181             (0.17575 0.157902 3.46863)
       0.0182             (0.172091 0.154689 3.33622)
       0.0183             (0.166707 0.150602 3.21039)
       0.0184             (0.16065 0.145744 3.09059)
       0.0185             (0.154305 0.140495 2.97602)
       0.0186             (0.148046 0.134945 2.8662)
       0.0187             (0.141971 0.129479 2.76079)
       0.0188             (0.136036 0.124018 2.66427)
       0.0189             (0.130577 0.118323 2.5764)
        0.019             (0.125758 0.112991 2.49612)
       0.0191             (0.117935 0.106811 2.43869)
       0.0192             (0.108677 0.0999344 2.39154)
       0.0193             (0.0986443 0.0925558 2.35091)
       0.0194             (0.088132 0.085143 2.31489)
       0.0195             (0.0775372 0.0777849 2.28158)
       0.0196             (0.0668859 0.0705043 2.25039)
       0.0197             (0.0564038 0.0634604 2.2217)
       0.0198             (0.0462474 0.0567241 2.19645)
       0.0199             (0.0369198 0.0504943 2.17346)
         0.02             (0.028409 0.045028 2.14976)
       0.0201             (0.0240221 0.0430226 2.13447)
       0.0202             (0.0236946 0.0442577 2.12287)
       0.0203             (0.0263138 0.0474074 2.11549)
       0.0204             (0.0311001 0.0518372 2.11171)
       0.0205             (0.0383129 0.0583653 2.11212)
       0.0206             (0.047626 0.0662981 2.11562)
       0.0207             (0.0587603 0.075276 2.12156)
       0.0208             (0.0714999 0.0853586 2.12924)
       0.0209             (0.0858023 0.0964837 2.1384)
        0.021             (0.101411 0.107785 2.14826)
       0.0211             (0.111403 0.113972 2.15326)
       0.0212             (0.118808 0.117465 2.15657)
       0.0213             (0.124619 0.119087 2.15937)
       0.0214             (0.129225 0.119177 2.16195)
       0.0215             (0.13293 0.117937 2.16443)
       0.0216             (0.135988 0.115595 2.16695)
       0.0217             (0.13849 0.112296 2.16931)
       0.0218             (0.14053 0.108299 2.17172)
       0.0219             (0.142159 0.103902 2.17464)
        0.022             (0.144107 0.0994102 2.17781)
       0.0221             (0.143492 0.0941776 2.18408)
       0.0222             (0.141934 0.0891256 2.19298)
       0.0223             (0.139835 0.0842204 2.20398)
       0.0224             (0.13735 0.0794399 2.21684)
       0.0225             (0.134823 0.0747605 2.2317)
       0.0226             (0.132463 0.0701806 2.24868)
       0.0227             (0.130211 0.0655732 2.26767)
       0.0228             (0.127931 0.0607665 2.28869)
       0.0229             (0.125567 0.0555878 2.31174)
        0.023             (0.123258 0.0500823 2.33718)
       0.0231             (0.11929 0.0445962 2.36037)
       0.0232             (0.115358 0.0396395 2.3826)
       0.0233             (0.112138 0.0354825 2.40384)
       0.0234             (0.109934 0.0320719 2.42415)
       0.0235             (0.108891 0.0295115 2.44354)
       0.0236             (0.108947 0.0280019 2.46161)
       0.0237             (0.110453 0.027631 2.47835)
       0.0238             (0.113792 0.0282844 2.49409)
       0.0239             (0.118987 0.0300057 2.50869)
        0.024             (0.126147 0.0329777 2.52227)
       0.0241             (0.132887 0.0353713 2.53123)
       0.0242             (0.140699 0.0379625 2.53854)
       0.0243             (0.149494 0.0405413 2.54424)
       0.0244             (0.159141 0.0428889 2.54841)
       0.0245             (0.169564 0.0449382 2.55124)
       0.0246             (0.180695 0.0466543 2.55273)
       0.0247             (0.192495 0.0478821 2.55319)
       0.0248             (0.204855 0.0484195 2.5529)
       0.0249             (0.217757 0.0481952 2.55209)
        0.025             (0.231228 0.0472511 2.55098)
       0.0251             (0.240942 0.0449777 2.54992)
       0.0252             (0.248944 0.0417801 2.5494)
       0.0253             (0.255936 0.0381819 2.54955)
       0.0254             (0.26235 0.0344458 2.55031)
       0.0255             (0.268519 0.0306549 2.55176)
       0.0256             (0.274711 0.0268237 2.5543)
       0.0257             (0.281078 0.02311 2.558)
       0.0258             (0.287647 0.0196476 2.56292)
       0.0259             (0.294453 0.0164028 2.56916)
        0.026             (0.301503 0.0134977 2.57679)
       0.0261             (0.303813 0.0105622 2.58434)
       0.0262             (0.304155 0.00815093 2.59128)
       0.0263             (0.303407 0.00605703 2.59814)
       0.0264             (0.302135 0.00429772 2.60483)
       0.0265             (0.300795 0.00289891 2.6115)
       0.0266             (0.299673 0.00194575 2.61814)
       0.0267             (0.298941 0.00139278 2.62484)
       0.0268             (0.298856 0.00137075 2.63169)
       0.0269             (0.299566 0.00180318 2.63878)
        0.027             (0.301117 0.00266732 2.6461)
       0.0271             (0.301842 0.00410517 2.6523)
       0.0272             (0.303192 0.00618025 2.65879)
       0.0273             (0.305435 0.00866228 2.66569)
       0.0274             (0.308323 0.0114153 2.67289)
       0.0275             (0.312377 0.0144465 2.68045)
       0.0276             (0.317666 0.017693 2.68852)
       0.0277             (0.324163 0.0207535 2.69717)
       0.0278             (0.331298 0.023964 2.70634)
       0.0279             (0.339164 0.0272292 2.71654)
        0.028             (0.34808 0.0303144 2.72782)
       0.0281             (0.355506 0.0316614 2.73759)
       0.0282             (0.36262 0.0315489 2.74629)
       0.0283             (0.369426 0.0308031 2.75474)
       0.0284             (0.376058 0.0296813 2.76323)
       0.0285             (0.382687 0.0282864 2.7719)
       0.0286             (0.389374 0.0266575 2.78059)
       0.0287             (0.396133 0.0249251 2.78955)
       0.0288             (0.402987 0.0232372 2.79898)
       0.0289             (0.409937 0.0216535 2.80888)
        0.029             (0.416839 0.020218 2.81929)
       0.0291             (0.420406 0.0186734 2.82869)
       0.0292             (0.4222 0.0173134 2.83709)
       0.0293             (0.422739 0.0161356 2.84465)
       0.0294             (0.422364 0.0151196 2.85147)
       0.0295             (0.421342 0.0142911 2.85767)
       0.0296             (0.419887 0.0136593 2.86331)
       0.0297             (0.41814 0.013222 2.86847)
       0.0298             (0.416273 0.0129588 2.87319)
       0.0299             (0.414316 0.0128775 2.87744)
         0.03             (0.412247 0.012976 2.88135)
       0.0301             (0.409178 0.0131751 2.88528)
       0.0302             (0.405948 0.0136382 2.88942)
       0.0303             (0.402688 0.0143277 2.89378)
       0.0304             (0.399562 0.0152018 2.89838)
       0.0305             (0.396536 0.0162007 2.90306)
       0.0306             (0.393753 0.0173216 2.90785)
       0.0307             (0.391261 0.0185287 2.9128)
       0.0308             (0.389093 0.0198153 2.91791)
       0.0309             (0.387269 0.0211567 2.92319)
        0.031             (0.38575 0.0224919 2.92848)
       0.0311             (0.383117 0.0231767 2.93345)
       0.0312             (0.380071 0.023441 2.93848)
       0.0313             (0.376768 0.0234354 2.94374)
       0.0314             (0.373293 0.0232421 2.94927)
       0.0315             (0.369683 0.022936 2.95512)
       0.0316             (0.365939 0.0225566 2.96134)
       0.0317             (0.362081 0.0221686 2.96791)
       0.0318             (0.358141 0.0218481 2.97486)
       0.0319             (0.354154 0.0215788 2.98216)
        0.032             (0.350124 0.021409 2.98987)
       0.0321             (0.343342 0.0213813 2.99662)
       0.0322             (0.334996 0.0216008 3.00245)
       0.0323             (0.325804 0.0220467 3.00756)
       0.0324             (0.316101 0.0227319 3.01198)
       0.0325             (0.306109 0.0236177 3.01584)
       0.0326             (0.295995 0.0246943 3.01924)
       0.0327             (0.285986 0.0259477 3.02225)
       0.0328             (0.276281 0.0273615 3.02494)
       0.0329             (0.266972 0.0289434 3.02736)
        0.033             (0.258212 0.0306738 3.02953)
       0.0331             (0.249291 0.0323697 3.02954)
       0.0332             (0.24016 0.0343175 3.0287)
       0.0333             (0.231033 0.0365691 3.02728)
       0.0334             (0.222288 0.0388546 3.02528)
       0.0335             (0.214024 0.041204 3.02279)
       0.0336             (0.206397 0.043677 3.01986)
       0.0337             (0.199415 0.0462556 3.01653)
       0.0338             (0.193058 0.0489071 3.01281)
       0.0339             (0.18739 0.0515132 3.00875)
        0.034             (0.182422 0.0541873 3.00434)
       0.0341             (0.176004 0.0560381 2.99981)
       0.0342             (0.169 0.0573922 2.99483)
       0.0343             (0.161685 0.0583405 2.98956)
       0.0344             (0.154262 0.0589566 2.98407)
       0.0345             (0.146881 0.0593359 2.97849)
       0.0346             (0.139614 0.0595094 2.97287)
       0.0347             (0.132565 0.0595217 2.96726)
       0.0348             (0.125865 0.059411 2.96166)
       0.0349             (0.119486 0.0591576 2.95609)
        0.035             (0.113429 0.0588102 2.95087)
       0.0351             (0.107507 0.0584438 2.94645)
       0.0352             (0.101795 0.0581402 2.94231)
       0.0353             (0.0962631 0.0579739 2.9384)
       0.0354             (0.0910302 0.0578838 2.93476)
       0.0355             (0.0861334 0.0578164 2.9314)
       0.0356             (0.081581 0.0578627 2.92833)
       0.0357             (0.0774052 0.0580406 2.92555)
       0.0358             (0.0736628 0.0583245 2.92306)
       0.0359             (0.0703229 0.0587309 2.92091)
        0.036             (0.0673763 0.0592628 2.91907)
       0.0361             (0.0644282 0.0595907 2.91719)
       0.0362             (0.0617389 0.0599538 2.91544)
       0.0363             (0.0593696 0.0603721 2.91386)
       0.0364             (0.0573501 0.0608378 2.91245)
       0.0365             (0.0556903 0.0613591 2.91114)
       0.0366             (0.0543983 0.061919 2.90989)
       0.0367             (0.0534517 0.0625331 2.90869)
       0.0368             (0.0528521 0.0631842 2.90767)
       0.0369             (0.0525714 0.0638582 2.90682)
        0.037             (0.0525877 0.0645637 2.90609)
       0.0371             (0.052035 0.0647179 2.904)
       0.0372             (0.0512728 0.0645667 2.90148)
       0.0373             (0.0503786 0.0642264 2.89862)
       0.0374             (0.0494317 0.063741 2.89549)
       0.0375             (0.0484775 0.0631616 2.89211)
       0.0376             (0.0475322 0.0624961 2.88853)
       0.0377             (0.0466512 0.0618201 2.88479)
       0.0378             (0.0458623 0.0611499 2.88089)
       0.0379             (0.0451522 0.0604967 2.87687)
        0.038             (0.0445586 0.0598761 2.87273)
       0.0381             (0.0436535 0.059268 2.86816)
       0.0382             (0.042655 0.0587655 2.86341)
       0.0383             (0.0416276 0.0583482 2.85853)
       0.0384             (0.0406608 0.0580047 2.85353)
       0.0385             (0.0397983 0.0577498 2.84842)
       0.0386             (0.0390748 0.0576004 2.84325)
       0.0387             (0.0385086 0.0575603 2.83832)
       0.0388             (0.0381032 0.0576193 2.83332)
       0.0389             (0.0378762 0.0577853 2.82821)
        0.039             (0.0378375 0.0580602 2.82301)
       0.0391             (0.037404 0.0580772 2.81798)
       0.0392             (0.0369961 0.0580803 2.81294)
       0.0393             (0.0366555 0.05809 2.80792)
       0.0394             (0.0363963 0.0581167 2.80291)
       0.0395             (0.0362097 0.0581484 2.79795)
       0.0396             (0.0361001 0.0581794 2.79304)
       0.0397             (0.0353807 0.0575438 2.78861)
       0.0398             (0.0347079 0.0568746 2.7841)
       0.0399             (0.0340745 0.0561737 2.77945)
         0.04             (0.0334485 0.0554206 2.77475)
       0.0401             (0.032259 0.0542905 2.77022)
       0.0402             (0.0306958 0.0529101 2.7657)
       0.0403             (0.0289282 0.0513804 2.76118)
       0.0404             (0.0270215 0.049745 2.75664)
       0.0405             (0.0250239 0.0480315 2.75212)
       0.0406             (0.0230624 0.0462661 2.74777)
       0.0407             (0.0210999 0.0444735 2.74348)
       0.0408             (0.0191311 0.0426555 2.73924)
       0.0409             (0.0171697 0.0408365 2.73508)
        0.041             (0.0152425 0.0390587 2.73103)
       0.0411             (0.0132548 0.0373784 2.72714)
       0.0412             (0.0112541 0.035761 2.72332)
       0.0413             (0.00927987 0.0342126 2.71957)
       0.0414             (0.00737125 0.0327352 2.71592)
       0.0415             (0.00556616 0.0313322 2.71236)
       0.0416             (0.00387217 0.0300127 2.70891)
       0.0417             (0.00228876 0.0287847 2.70558)
       0.0418             (0.000832336 0.0276289 2.70234)
       0.0419             (-0.00048617 0.0265482 2.69921)
        0.042             (-0.00166055 0.0255401 2.69617)
       0.0421             (-0.00284052 0.0245454 2.69306)
       0.0422             (-0.00392096 0.0236009 2.68994)
       0.0423             (-0.00487726 0.022722 2.68685)
       0.0424             (-0.00569328 0.0219143 2.6838)
       0.0425             (-0.00636105 0.0211732 2.68077)
       0.0426             (-0.00688649 0.0205028 2.67779)
       0.0427             (-0.00727924 0.0199087 2.67481)
       0.0428             (-0.0075406 0.0193614 2.67192)
       0.0429             (-0.00768111 0.0188763 2.66908)
        0.043             (-0.00768276 0.0184582 2.6663)
       0.0431             (-0.00819033 0.0177123 2.6628)
       0.0432             (-0.00887448 0.0168642 2.65903)
       0.0433             (-0.0096494 0.0159522 2.65505)
       0.0434             (-0.0104546 0.0150133 2.65087)
       0.0435             (-0.0112634 0.0140669 2.64652)
       0.0436             (-0.0120261 0.0131188 2.642)
       0.0437             (-0.0127243 0.0121691 2.6373)
       0.0438             (-0.0133472 0.0112914 2.63245)
       0.0439             (-0.0137812 0.0105691 2.62776)
        0.044             (-0.0140103 0.0099998 2.62327)
       0.0441             (-0.0144072 0.00940813 2.61921)
       0.0442             (-0.0147512 0.00890151 2.61542)
       0.0443             (-0.0150641 0.00847328 2.61184)
       0.0444             (-0.0153244 0.00811196 2.60846)
       0.0445             (-0.015537 0.00781603 2.60526)
       0.0446             (-0.0156852 0.00758206 2.60225)
       0.0447             (-0.01577 0.00741021 2.59941)
       0.0448             (-0.0158006 0.00727828 2.59669)
       0.0449             (-0.0157746 0.00714698 2.59408)
        0.045             (-0.0157037 0.00703286 2.59155)
       0.0451             (-0.0156544 0.00689291 2.58924)
       0.0452             (-0.0156204 0.00671982 2.58698)
       0.0453             (-0.0155935 0.00651482 2.5848)
       0.0454             (-0.0155477 0.00628973 2.58268)
       0.0455             (-0.0154754 0.00604996 2.58065)
       0.0456             (-0.0154159 0.00579468 2.57869)
       0.0457             (-0.015344 0.00552854 2.57677)
       0.0458             (-0.015253 0.00525457 2.57491)
       0.0459             (-0.0151504 0.00497477 2.57309)
        0.046             (-0.0150314 0.00468698 2.57132)
       0.0461             (-0.0150771 0.00433545 2.56962)
       0.0462             (-0.0152161 0.00394993 2.56798)
       0.0463             (-0.0154218 0.00354956 2.56642)
       0.0464             (-0.0156487 0.00314395 2.56493)
       0.0465             (-0.0158786 0.00274349 2.56354)
       0.0466             (-0.0161084 0.0023583 2.56224)
       0.0467             (-0.0163294 0.00199308 2.56104)
       0.0468             (-0.0165393 0.00165123 2.55993)
       0.0469             (-0.0167338 0.00134069 2.55891)
        0.047             (-0.0169112 0.00106517 2.55799)
       0.0471             (-0.017134 0.000791621 2.55714)
       0.0472             (-0.017342 0.000564835 2.55638)
       0.0473             (-0.0175035 0.000363429 2.55572)
       0.0474             (-0.0176224 0.000188914 2.55516)
       0.0475             (-0.0176915 4.77321e-05 2.55469)
       0.0476             (-0.0177147 -6.527e-05 2.55431)
       0.0477             (-0.0176917 -0.000154058 2.554)
       0.0478             (-0.0176289 -0.000219467 2.55376)
       0.0479             (-0.0175239 -0.00026356 2.55359)
        0.048             (-0.0173806 -0.0002941 2.55348)
       0.0481             (-0.0173629 -0.00040941 2.55343)
       0.0482             (-0.0173966 -0.000560151 2.55342)
       0.0483             (-0.0174591 -0.000729229 2.55346)
       0.0484             (-0.0175191 -0.000910536 2.55354)
       0.0485             (-0.0175704 -0.00109403 2.55366)
       0.0486             (-0.0176122 -0.00127471 2.55382)
       0.0487             (-0.0176368 -0.00145035 2.55402)
       0.0488             (-0.0176372 -0.00161876 2.55427)
       0.0489             (-0.0176177 -0.00177993 2.55457)
        0.049             (-0.0175822 -0.00193915 2.5549)
       0.0491             (-0.017688 -0.00214346 2.55521)
       0.0492             (-0.0178479 -0.00237055 2.55553)
       0.0493             (-0.0180285 -0.00260145 2.55589)
       0.0494             (-0.0182195 -0.00282676 2.55627)
       0.0495             (-0.018404 -0.00305761 2.55668)
       0.0496             (-0.0185806 -0.00327609 2.55714)
       0.0497             (-0.0187344 -0.00348463 2.5577)
       0.0498             (-0.0188678 -0.00368294 2.55832)
       0.0499             (-0.018988 -0.00385834 2.55899)
         0.05             (-0.0190787 -0.00401515 2.55969)
       0.0501             (-0.0191982 -0.00420914 2.56037)
       0.0502             (-0.0193079 -0.00440238 2.56108)
       0.0503             (-0.0194042 -0.00459628 2.56179)
       0.0504             (-0.0194943 -0.00479019 2.56248)
       0.0505             (-0.0195717 -0.00498801 2.5632)
       0.0506             (-0.0196512 -0.00519785 2.5639)
       0.0507             (-0.019731 -0.00541698 2.56457)
       0.0508             (-0.019806 -0.00565542 2.56519)
       0.0509             (-0.0198726 -0.00591519 2.56577)
        0.051             (-0.0199299 -0.00618557 2.56631)
       0.0511             (-0.0201167 -0.00654446 2.56668)
       0.0512             (-0.0203549 -0.00693091 2.567)
       0.0513             (-0.0206389 -0.00733298 2.56728)
       0.0514             (-0.0209483 -0.00775008 2.56755)
       0.0515             (-0.0212853 -0.00818207 2.56779)
       0.0516             (-0.0216303 -0.0086184 2.56801)
       0.0517             (-0.0219879 -0.00905503 2.56821)
       0.0518             (-0.0223565 -0.00948882 2.56839)
       0.0519             (-0.0227168 -0.00991327 2.56855)
        0.052             (-0.0230666 -0.0103213 2.56869)
       0.0521             (-0.0234227 -0.0107186 2.56887)
       0.0522             (-0.0237826 -0.0110998 2.56905)
       0.0523             (-0.0241302 -0.0114588 2.56924)
       0.0524             (-0.0244498 -0.0117927 2.56944)
       0.0525             (-0.0247376 -0.0120965 2.56967)
       0.0526             (-0.0249886 -0.0123697 2.56992)
       0.0527             (-0.0251567 -0.0126142 2.57016)
       0.0528             (-0.0252532 -0.0128319 2.57042)
       0.0529             (-0.0253078 -0.0130243 2.57069)
        0.053             (-0.025325 -0.0131869 2.57099)
       0.0531             (-0.0253761 -0.0133531 2.57124)
       0.0532             (-0.0254173 -0.013506 2.5715)
       0.0533             (-0.025446 -0.0136462 2.57175)