/*--------------------------------*- C++ -*----------------------------------*\
| =========                 |                                                 |
| \\      /  F ield         | OpenFOAM: The Open Source CFD Toolbox           |
|  \\    /   O peration     | Version:  5.x                                   |
|   \\  /    A nd           | Web:      www.OpenFOAM.org                      |
|    \\/     M anipulation  |                                                 |
\*---------------------------------------------------------------------------*/
FoamFile
{
    version     2.0;
    format      ascii;
    class       volVectorField;
    location    "6.35";
    object      Us;
}
// * * * * * * * * * * * * * * * * * * * * * * * * * * * * * * * * * * * * * //

dimensions      [0 1 -1 0 0 0 0];

internalField   nonuniform List<vector> 
10571
(
(-0.0568175 0.00623232 -0.0810215)
(0.100271 -0.0661378 -0.0223542)
(0.104339 -0.0684144 0.097991)
(-0.158564 0.176199 0.059818)
(-0.0804404 0.046352 -0.019509)
(0.159265 -0.161736 0.00795669)
(0.186788 -0.278264 0.0996909)
(-0.0939627 -0.0115654 0.0957176)
(-0.289845 -0.0212934 0.106095)
(-0.0693284 -0.0894661 -0.0259174)
(0.0243793 -0.0731557 -0.026782)
(0.151055 -0.114882 -0.057242)
(0.253918 -0.228733 0.105194)
(0.019187 -0.11107 0.109845)
(-0.197616 -0.0422919 -0.0184983)
(-0.0380098 0.00153043 -0.0277002)
(0.0555242 -0.0423155 -0.076002)
(0.192724 -0.0776988 -0.0615783)
(-0.00991499 -0.0289086 0.165368)
(-0.195184 0.110928 0.0729096)
(-0.0677786 0.100705 0.00839349)
(0.172964 0.0503913 -0.00817191)
(0.0670478 0.0341526 0.118027)
(-0.0999708 0.0562464 0.0992833)
(-0.0177395 0.00755238 -0.197818)
(0.0829986 -0.0831722 -0.0591519)
(-0.0864332 -0.0563391 0.0950941)
(-0.0899372 0.00999865 -0.12883)
(-0.0607178 -0.0127829 -0.12233)
(0.0519696 -0.100548 0.00197196)
(-0.013264 -0.0944723 0.0165756)
(-0.0249881 -0.109335 -0.104736)
(-0.0312104 -0.0510578 -0.168228)
(-0.0149065 -0.0480979 -0.0844138)
(0.0161811 0.0706975 -0.0237237)
(-0.0173603 0.0438075 0.0271356)
(0.0161182 -0.0254906 -0.101266)
(0.0808433 -0.00579883 -0.0580665)
(-0.0179268 0.028935 -0.15762)
(-0.0230259 0.0253557 -0.131871)
(-0.00633313 0.0284814 -0.094787)
(0.0176746 -0.0047929 -0.100359)
(0.120138 0.0321487 0.2596)
(-0.0910291 0.10215 0.0931096)
(-0.0659452 0.0950303 -0.0977649)
(0.0154817 0.0130504 -0.0141985)
(0.046378 -0.0565606 0.278285)
(0.0475198 -0.0048956 0.14785)
(0.141436 0.0292771 -0.189139)
(0.0405989 -0.0673891 -0.0711659)
(-0.158727 -0.0861511 0.215787)
(-0.0807754 -0.0552619 -0.0557137)
(-0.0203169 -0.030137 -0.164822)
(-0.0347366 -0.0636476 -0.00839555)
(-0.0803596 -0.00318679 -0.0373118)
(0.0333824 -0.0503807 -0.133423)
(0.0108258 -0.0670862 -0.170167)
(-0.0086666 -0.0387171 -0.113093)
(-0.01343 0.116415 -0.0521127)
(-0.0664517 0.0525527 -0.0585513)
(-0.00745889 -0.0900026 -0.227569)
(0.0450204 -0.108817 -0.20205)
(0.0155914 -0.0494566 -0.212692)
(-0.00508639 -0.00780957 -0.187033)
(-0.20661 -0.144723 -0.446809)
(-0.0810648 -0.176997 -0.311169)
(0.0847085 0.0760565 0.0631674)
(0.114164 0.0791967 0.0127877)
(-0.0316567 0.0349289 -0.207208)
(-0.0374172 0.00783036 0.175593)
(0.0465372 0.0972492 0.301965)
(0.0996164 0.097216 0.160138)
(0.289529 0.0223039 -0.132572)
(-0.00285247 -0.0429322 -0.0274538)
(-0.162002 -0.137486 0.312653)
(-0.0230017 -0.179606 0.174658)
(-0.00413833 -0.00761168 -0.154797)
(-0.0543265 -0.0409223 -0.0307424)
(0.0484174 0.00382715 -0.0845766)
(0.0906039 -0.091372 -0.183098)
(0.00332476 -0.0501499 -0.127755)
(-0.00947598 -0.0154347 -0.0972012)
(0 0 0)
(0 0 0)
(-0.0491341 -0.223621 -0.299945)
(0.0458981 -0.232403 -0.289949)
(0.0663472 -0.169246 -0.2645)
(0.0145116 -0.0683943 -0.192993)
(-0.236497 -0.190695 -0.334465)
(-0.121582 -0.168232 -0.292893)
(0.0153504 -0.134876 -0.18181)
(0 0 0)
(0.052407 -0.128687 -0.283949)
(0 0 0)
(0 0 0)
(0 0 0)
(0.223221 0.0246509 -0.194365)
(-0.000648663 -0.0490691 0.0659889)
(-0.0766976 -0.164209 0.231284)
(0.188614 -0.129575 -0.00688638)
(0.0400145 0.017327 -0.141439)
(0 0 0)
(0 0 0)
(-0.148862 -0.0607572 -0.112615)
(0.00299885 -0.000871903 -0.110364)
(0.00498832 0.0124944 -0.103968)
(0 0 0)
(0 0 0)
(-0.0521757 -0.232817 -0.19943)
(0.0280879 -0.23258 -0.231924)
(0.101012 -0.214408 -0.242829)
(-0.000643912 -0.0756629 -0.0988948)
(0 0 0)
(-0.145157 -0.144103 -0.149587)
(0.0162611 -0.189132 -0.188951)
(0 0 0)
(0.106317 -0.200713 -0.216512)
(-0.174992 -0.0873811 -0.0768054)
(0 0 0)
(0 0 0)
(0.191684 0.0351768 -0.108949)
(0 0 0)
(0.144221 -0.109485 -0.0780076)
(0.274337 -0.140511 -0.0839089)
(0.0381338 0.0670598 -0.0789076)
(0 0 0)
(0 0 0)
(0 0 0)
(-0.0733392 0.104652 -0.0541146)
(0.0269462 0.0319038 -0.0934889)
(-0.00639677 0.00251871 -0.00195973)
(0 0 0)
(0 0 0)
(-0.054621 -0.237713 -0.153678)
(-0.00777286 -0.226642 -0.161021)
(0.136796 -0.223183 -0.125679)
(0.0350904 0.0838265 -0.0874994)
(-0.001797 -0.000257202 -0.000575726)
(0 0 0)
(-0.10404 -0.158432 -0.0695203)
(-0.0071819 -0.164709 -0.108442)
(0.0848268 -0.175362 -0.148981)
(0.151015 -0.201415 -0.103266)
(-0.177819 -0.0921368 0.00807686)
(0 0 0)
(0 0 0)
(-0.02984 0.0123793 0.0816374)
(0 0 0)
(0 0 0)
(0 0 0)
(-0.0409738 0.0502756 -0.0173449)
(0 0 0)
(0 0 0)
(0 0 0)
(-0.0387797 0.0925122 0.0241607)
(0.0182381 0.0810713 -0.00647484)
(0 0 0)
(0 0 0)
(0 0 0)
(0 0 0)
(0 0 0)
(0 0 0)
(0 0 0)
(0 0 0)
(0 0 0)
(-0.104298 -0.118479 0.0533181)
(-0.0172926 -0.096699 0.0296756)
(0.0929713 -0.1621 0.0146421)
(0.182907 -0.181185 -0.0193691)
(0 0 0)
(-0.21975 -0.0775013 0.116268)
(-0.0416192 -0.0599445 0.0815894)
(-2.44782e-14 2.42287e-14 -5.11002e-14)
(0 0 0)
(0 0 0)
(0 0 0)
(0 0 0)
(-0.0291668 0.028439 0.0996697)
(0 0 0)
(0 0 0)
(0 0 0)
(0 0 0)
(0 0 0)
(0 0 0)
(0 0 0)
(0 0 0)
(0 0 0)
(0 0 0)
(0 0 0)
(0 0 0)
(0 0 0)
(0 0 0)
(0 0 0)
(0.0336012 -0.0629399 0.169488)
(0 0 0)
(0 0 0)
(0 0 0)
(-0.201161 -0.0474384 0.212424)
(-0.0719357 -0.0259568 0.204865)
(0.0554985 -0.0494927 0.244431)
(0 0 0)
(0 0 0)
(0 0 0)
(0 0 0)
(0 0 0)
(0 0 0)
(0 0 0)
(0 0 0)
(0 0 0)
(0 0 0)
(0 0 0)
(0 0 0)
(0 0 0)
(0 0 0)
(0 0 0)
(0 0 0)
(0 0 0)
(0 0 0)
(0 0 0)
(0 0 0)
(0 0 0)
(0 0 0)
(0 0 0)
(0 0 0)
(0 0 0)
(0 0 0)
(0 0 0)
(0 0 0)
(0 0 0)
(0 0 0)
(0 0 0)
(0 0 0)
(0 0 0)
(0 0 0)
(0 0 0)
(0 0 0)
(0 0 0)
(0 0 0)
(0 0 0)
(0 0 0)
(0 0 0)
(0 0 0)
(0 0 0)
(0 0 0)
(0 0 0)
(0 0 0)
(0 0 0)
(0 0 0)
(0 0 0)
(0 0 0)
(0 0 0)
(0 0 0)
(0 0 0)
(0 0 0)
(0 0 0)
(0 0 0)
(0 0 0)
(0 0 0)
(0 0 0)
(0 0 0)
(0 0 0)
(0 0 0)
(0 0 0)
(0 0 0)
(0 0 0)
(0 0 0)
(0 0 0)
(0 0 0)
(0 0 0)
(0 0 0)
(0 0 0)
(0 0 0)
(0 0 0)
(0 0 0)
(0 0 0)
(0 0 0)
(0 0 0)
(0 0 0)
(0 0 0)
(0 0 0)
(0 0 0)
(0 0 0)
(0 0 0)
(0 0 0)
(0 0 0)
(0 0 0)
(0 0 0)
(0 0 0)
(0 0 0)
(0 0 0)
(0 0 0)
(0 0 0)
(0 0 0)
(0 0 0)
(0 0 0)
(0 0 0)
(0 0 0)
(0 0 0)
(0 0 0)
(0 0 0)
(0 0 0)
(0 0 0)
(0 0 0)
(0 0 0)
(0 0 0)
(0 0 0)
(0 0 0)
(0 0 0)
(0 0 0)
(0 0 0)
(0 0 0)
(0 0 0)
(0 0 0)
(0 0 0)
(0 0 0)
(0 0 0)
(0 0 0)
(0 0 0)
(0 0 0)
(0 0 0)
(0 0 0)
(0 0 0)
(0 0 0)
(0 0 0)
(0 0 0)
(0 0 0)
(0 0 0)
(0 0 0)
(0 0 0)
(0 0 0)
(0 0 0)
(0 0 0)
(0 0 0)
(0 0 0)
(0 0 0)
(0 0 0)
(0 0 0)
(0 0 0)
(0 0 0)
(0 0 0)
(0 0 0)
(0 0 0)
(0 0 0)
(0 0 0)
(0 0 0)
(0 0 0)
(0 0 0)
(0 0 0)
(0 0 0)
(0 0 0)
(0 0 0)
(0 0 0)
(0 0 0)
(0 0 0)
(0 0 0)
(0 0 0)
(0 0 0)
(0 0 0)
(0 0 0)
(0 0 0)
(0 0 0)
(0 0 0)
(0 0 0)
(0 0 0)
(0 0 0)
(0 0 0)
(0 0 0)
(0 0 0)
(0 0 0)
(0 0 0)
(0 0 0)
(0 0 0)
(0 0 0)
(0 0 0)
(0 0 0)
(0 0 0)
(0 0 0)
(0 0 0)
(0 0 0)
(0 0 0)
(0 0 0)
(0 0 0)
(0 0 0)
(0 0 0)
(0 0 0)
(0 0 0)
(0 0 0)
(0 0 0)
(0 0 0)
(0 0 0)
(0 0 0)
(0 0 0)
(0 0 0)
(0 0 0)
(0 0 0)
(0 0 0)
(0 0 0)
(0 0 0)
(0 0 0)
(0 0 0)
(0 0 0)
(0 0 0)
(0 0 0)
(0 0 0)
(0 0 0)
(0 0 0)
(0 0 0)
(0 0 0)
(0 0 0)
(0 0 0)
(0 0 0)
(0 0 0)
(0 0 0)
(0 0 0)
(0 0 0)
(0 0 0)
(0 0 0)
(0 0 0)
(0 0 0)
(0 0 0)
(0 0 0)
(0 0 0)
(0 0 0)
(0 0 0)
(0 0 0)
(0 0 0)
(0 0 0)
(0 0 0)
(0 0 0)
(0 0 0)
(0 0 0)
(0 0 0)
(0 0 0)
(0 0 0)
(0 0 0)
(0 0 0)
(0 0 0)
(0 0 0)
(0 0 0)
(0 0 0)
(0 0 0)
(0 0 0)
(0 0 0)
(0 0 0)
(0 0 0)
(0 0 0)
(0 0 0)
(0 0 0)
(0 0 0)
(0 0 0)
(0 0 0)
(0 0 0)
(0 0 0)
(0 0 0)
(0 0 0)
(0 0 0)
(0 0 0)
(0 0 0)
(0 0 0)
(0 0 0)
(0 0 0)
(0 0 0)
(0 0 0)
(0 0 0)
(0 0 0)
(0 0 0)
(0 0 0)
(0 0 0)
(0 0 0)
(0 0 0)
(0 0 0)
(0 0 0)
(0 0 0)
(0 0 0)
(0 0 0)
(0 0 0)
(0 0 0)
(0 0 0)
(0 0 0)
(0 0 0)
(0 0 0)
(0 0 0)
(0 0 0)
(0 0 0)
(0 0 0)
(0 0 0)
(0 0 0)
(0 0 0)
(0 0 0)
(0 0 0)
(0 0 0)
(0 0 0)
(0 0 0)
(0 0 0)
(0 0 0)
(0 0 0)
(0 0 0)
(0 0 0)
(0 0 0)
(0 0 0)
(0 0 0)
(0 0 0)
(0 0 0)
(0 0 0)
(0 0 0)
(0 0 0)
(0 0 0)
(0 0 0)
(0 0 0)
(0 0 0)
(0 0 0)
(0 0 0)
(0 0 0)
(0 0 0)
(0 0 0)
(0 0 0)
(0 0 0)
(0 0 0)
(0 0 0)
(0 0 0)
(0 0 0)
(0 0 0)
(0 0 0)
(0 0 0)
(0 0 0)
(0 0 0)
(0 0 0)
(0 0 0)
(0 0 0)
(0 0 0)
(0 0 0)
(0 0 0)
(0 0 0)
(0 0 0)
(0 0 0)
(0 0 0)
(0 0 0)
(0 0 0)
(0 0 0)
(0 0 0)
(0 0 0)
(0 0 0)
(0 0 0)
(0 0 0)
(0 0 0)
(0 0 0)
(0 0 0)
(0 0 0)
(0 0 0)
(0 0 0)
(0 0 0)
(0 0 0)
(0 0 0)
(0 0 0)
(0 0 0)
(0 0 0)
(0 0 0)
(0 0 0)
(0 0 0)
(0 0 0)
(0 0 0)
(0 0 0)
(0 0 0)
(0 0 0)
(0 0 0)
(0 0 0)
(0 0 0)
(0 0 0)
(0 0 0)
(0 0 0)
(0 0 0)
(0 0 0)
(0 0 0)
(0 0 0)
(0 0 0)
(0 0 0)
(0 0 0)
(0 0 0)
(0 0 0)
(0 0 0)
(0 0 0)
(0 0 0)
(0 0 0)
(0 0 0)
(0 0 0)
(0 0 0)
(0 0 0)
(0 0 0)
(0 0 0)
(0 0 0)
(0 0 0)
(0 0 0)
(0 0 0)
(0 0 0)
(0 0 0)
(0 0 0)
(0 0 0)
(0 0 0)
(0 0 0)
(0 0 0)
(0 0 0)
(0 0 0)
(0 0 0)
(0 0 0)
(0 0 0)
(0 0 0)
(0 0 0)
(0 0 0)
(0 0 0)
(0 0 0)
(0 0 0)
(0 0 0)
(0 0 0)
(0 0 0)
(0 0 0)
(0 0 0)
(0 0 0)
(0 0 0)
(0 0 0)
(0 0 0)
(0 0 0)
(0 0 0)
(0 0 0)
(0 0 0)
(0 0 0)
(0 0 0)
(0 0 0)
(0 0 0)
(0 0 0)
(0 0 0)
(0 0 0)
(0 0 0)
(0 0 0)
(0 0 0)
(0 0 0)
(0 0 0)
(0 0 0)
(0 0 0)
(0 0 0)
(0 0 0)
(0 0 0)
(0 0 0)
(0 0 0)
(0 0 0)
(0 0 0)
(0 0 0)
(0 0 0)
(0 0 0)
(0 0 0)
(0 0 0)
(0 0 0)
(0 0 0)
(0 0 0)
(0 0 0)
(0 0 0)
(0 0 0)
(0 0 0)
(0 0 0)
(0 0 0)
(0 0 0)
(0 0 0)
(0 0 0)
(0 0 0)
(0 0 0)
(0 0 0)
(0 0 0)
(0 0 0)
(0 0 0)
(0 0 0)
(0 0 0)
(0 0 0)
(0 0 0)
(0 0 0)
(0 0 0)
(0 0 0)
(0 0 0)
(0 0 0)
(0 0 0)
(0 0 0)
(0 0 0)
(0 0 0)
(0 0 0)
(0 0 0)
(0 0 0)
(0 0 0)
(0 0 0)
(0 0 0)
(0 0 0)
(0 0 0)
(0 0 0)
(0 0 0)
(0 0 0)
(0 0 0)
(0 0 0)
(0 0 0)
(0 0 0)
(0 0 0)
(0 0 0)
(0 0 0)
(0 0 0)
(0 0 0)
(0 0 0)
(0 0 0)
(0 0 0)
(0 0 0)
(0 0 0)
(0 0 0)
(0 0 0)
(0 0 0)
(0 0 0)
(0 0 0)
(0 0 0)
(0 0 0)
(0 0 0)
(0 0 0)
(0 0 0)
(0 0 0)
(0 0 0)
(0 0 0)
(0 0 0)
(0 0 0)
(0 0 0)
(0 0 0)
(0 0 0)
(0 0 0)
(0 0 0)
(0 0 0)
(0 0 0)
(0 0 0)
(0 0 0)
(0 0 0)
(0 0 0)
(0 0 0)
(0 0 0)
(0 0 0)
(0 0 0)
(0 0 0)
(0 0 0)
(0 0 0)
(0 0 0)
(0 0 0)
(0 0 0)
(0 0 0)
(0 0 0)
(0 0 0)
(0 0 0)
(0 0 0)
(0 0 0)
(0 0 0)
(0 0 0)
(0 0 0)
(0 0 0)
(0 0 0)
(0 0 0)
(0 0 0)
(0 0 0)
(0 0 0)
(0 0 0)
(0 0 0)
(0 0 0)
(0 0 0)
(0 0 0)
(0 0 0)
(0 0 0)
(0 0 0)
(0 0 0)
(0 0 0)
(0 0 0)
(0 0 0)
(0 0 0)
(0 0 0)
(0 0 0)
(0 0 0)
(0 0 0)
(0 0 0)
(0 0 0)
(0 0 0)
(0 0 0)
(0 0 0)
(0 0 0)
(0 0 0)
(0 0 0)
(0 0 0)
(0 0 0)
(0 0 0)
(0 0 0)
(0 0 0)
(0 0 0)
(0 0 0)
(0 0 0)
(0 0 0)
(0 0 0)
(0 0 0)
(0 0 0)
(0 0 0)
(0 0 0)
(0 0 0)
(0 0 0)
(0 0 0)
(0 0 0)
(0 0 0)
(0 0 0)
(0 0 0)
(0 0 0)
(0 0 0)
(0 0 0)
(0 0 0)
(0 0 0)
(0 0 0)
(0 0 0)
(0 0 0)
(0 0 0)
(0 0 0)
(0 0 0)
(0 0 0)
(0 0 0)
(0 0 0)
(0 0 0)
(0 0 0)
(0 0 0)
(0 0 0)
(0 0 0)
(0 0 0)
(0 0 0)
(0 0 0)
(0 0 0)
(0 0 0)
(0 0 0)
(0 0 0)
(0 0 0)
(0 0 0)
(0 0 0)
(0 0 0)
(0 0 0)
(0 0 0)
(0 0 0)
(0 0 0)
(0 0 0)
(0 0 0)
(0 0 0)
(0 0 0)
(0 0 0)
(0 0 0)
(0 0 0)
(0 0 0)
(0 0 0)
(0 0 0)
(0 0 0)
(0 0 0)
(0 0 0)
(0 0 0)
(0 0 0)
(0 0 0)
(0 0 0)
(0 0 0)
(0 0 0)
(0 0 0)
(0 0 0)
(0 0 0)
(0 0 0)
(0 0 0)
(0 0 0)
(0 0 0)
(0 0 0)
(0 0 0)
(0 0 0)
(0 0 0)
(0 0 0)
(0 0 0)
(0 0 0)
(0 0 0)
(0 0 0)
(0 0 0)
(0 0 0)
(0 0 0)
(0 0 0)
(0 0 0)
(0 0 0)
(0 0 0)
(0 0 0)
(0 0 0)
(0 0 0)
(0 0 0)
(0 0 0)
(0 0 0)
(0 0 0)
(0 0 0)
(0 0 0)
(0 0 0)
(0 0 0)
(0 0 0)
(0 0 0)
(0 0 0)
(0 0 0)
(0 0 0)
(0 0 0)
(0 0 0)
(0 0 0)
(0 0 0)
(0 0 0)
(0 0 0)
(0 0 0)
(0 0 0)
(0 0 0)
(0 0 0)
(0 0 0)
(0 0 0)
(0 0 0)
(0 0 0)
(0 0 0)
(0 0 0)
(0 0 0)
(0 0 0)
(0 0 0)
(0 0 0)
(0 0 0)
(0 0 0)
(0 0 0)
(0 0 0)
(0 0 0)
(0 0 0)
(0 0 0)
(0 0 0)
(0 0 0)
(0 0 0)
(0 0 0)
(0 0 0)
(0 0 0)
(0 0 0)
(0 0 0)
(0 0 0)
(0 0 0)
(0 0 0)
(0 0 0)
(0 0 0)
(0 0 0)
(0 0 0)
(0 0 0)
(0 0 0)
(0 0 0)
(0 0 0)
(0 0 0)
(0 0 0)
(0 0 0)
(0 0 0)
(0 0 0)
(0 0 0)
(0 0 0)
(0 0 0)
(0 0 0)
(0 0 0)
(0 0 0)
(0 0 0)
(0 0 0)
(0 0 0)
(0 0 0)
(0 0 0)
(0 0 0)
(0 0 0)
(0 0 0)
(0 0 0)
(0 0 0)
(0 0 0)
(0 0 0)
(0 0 0)
(0 0 0)
(0 0 0)
(0 0 0)
(0 0 0)
(0 0 0)
(0 0 0)
(0 0 0)
(0 0 0)
(0 0 0)
(0 0 0)
(0 0 0)
(0 0 0)
(0 0 0)
(0 0 0)
(0 0 0)
(0 0 0)
(0 0 0)
(0 0 0)
(0 0 0)
(0 0 0)
(0 0 0)
(0 0 0)
(0 0 0)
(0 0 0)
(0 0 0)
(0 0 0)
(0 0 0)
(0 0 0)
(0 0 0)
(0 0 0)
(0 0 0)
(0 0 0)
(0 0 0)
(0 0 0)
(0 0 0)
(0 0 0)
(0 0 0)
(0 0 0)
(0 0 0)
(0 0 0)
(0 0 0)
(0 0 0)
(0 0 0)
(0 0 0)
(0 0 0)
(0 0 0)
(0 0 0)
(0 0 0)
(0 0 0)
(0 0 0)
(0 0 0)
(0 0 0)
(0 0 0)
(0 0 0)
(0 0 0)
(0 0 0)
(0 0 0)
(0 0 0)
(0 0 0)
(0 0 0)
(0 0 0)
(0 0 0)
(0 0 0)
(0 0 0)
(0 0 0)
(0 0 0)
(0 0 0)
(0 0 0)
(0 0 0)
(0 0 0)
(0 0 0)
(0 0 0)
(0 0 0)
(0 0 0)
(0 0 0)
(0 0 0)
(0 0 0)
(0 0 0)
(0 0 0)
(0 0 0)
(0 0 0)
(0 0 0)
(0 0 0)
(0 0 0)
(0 0 0)
(0 0 0)
(0 0 0)
(0 0 0)
(0 0 0)
(0 0 0)
(0 0 0)
(0 0 0)
(0 0 0)
(0 0 0)
(0 0 0)
(0 0 0)
(0 0 0)
(0 0 0)
(0 0 0)
(0 0 0)
(0 0 0)
(0 0 0)
(0 0 0)
(0 0 0)
(0 0 0)
(0 0 0)
(0 0 0)
(0 0 0)
(0 0 0)
(0 0 0)
(0 0 0)
(0 0 0)
(0 0 0)
(0 0 0)
(0 0 0)
(0 0 0)
(0 0 0)
(0 0 0)
(0 0 0)
(0 0 0)
(0 0 0)
(0 0 0)
(0 0 0)
(0 0 0)
(0 0 0)
(0 0 0)
(0 0 0)
(0 0 0)
(0 0 0)
(0 0 0)
(0 0 0)
(0 0 0)
(0 0 0)
(0 0 0)
(0 0 0)
(0 0 0)
(0 0 0)
(0 0 0)
(0 0 0)
(0 0 0)
(0 0 0)
(0 0 0)
(0 0 0)
(0 0 0)
(0 0 0)
(0 0 0)
(0 0 0)
(0 0 0)
(0 0 0)
(0 0 0)
(0 0 0)
(0 0 0)
(0 0 0)
(0 0 0)
(0 0 0)
(0 0 0)
(0 0 0)
(0 0 0)
(0 0 0)
(0 0 0)
(0 0 0)
(0 0 0)
(0 0 0)
(0 0 0)
(0 0 0)
(0 0 0)
(0 0 0)
(0 0 0)
(0 0 0)
(0 0 0)
(0 0 0)
(0 0 0)
(0 0 0)
(0 0 0)
(0 0 0)
(0 0 0)
(0 0 0)
(0 0 0)
(0 0 0)
(0 0 0)
(0 0 0)
(0 0 0)
(0 0 0)
(0 0 0)
(0 0 0)
(0 0 0)
(0 0 0)
(0 0 0)
(0 0 0)
(0 0 0)
(0 0 0)
(0 0 0)
(0 0 0)
(0 0 0)
(0 0 0)
(0 0 0)
(0 0 0)
(0 0 0)
(0 0 0)
(0 0 0)
(0 0 0)
(0 0 0)
(0 0 0)
(0 0 0)
(0 0 0)
(0 0 0)
(0 0 0)
(0 0 0)
(0 0 0)
(0 0 0)
(0 0 0)
(0 0 0)
(0 0 0)
(0 0 0)
(0 0 0)
(0 0 0)
(0 0 0)
(0 0 0)
(0 0 0)
(0 0 0)
(0 0 0)
(0 0 0)
(0 0 0)
(0 0 0)
(0 0 0)
(0 0 0)
(0 0 0)
(0 0 0)
(0 0 0)
(0 0 0)
(0 0 0)
(0 0 0)
(0 0 0)
(0 0 0)
(0 0 0)
(0 0 0)
(0 0 0)
(0 0 0)
(0 0 0)
(0 0 0)
(0 0 0)
(0 0 0)
(0 0 0)
(0 0 0)
(0 0 0)
(0 0 0)
(0 0 0)
(0 0 0)
(0 0 0)
(0 0 0)
(0 0 0)
(0 0 0)
(0 0 0)
(0 0 0)
(0 0 0)
(0 0 0)
(0 0 0)
(0 0 0)
(0 0 0)
(0 0 0)
(0 0 0)
(0 0 0)
(0 0 0)
(0 0 0)
(0 0 0)
(0 0 0)
(0 0 0)
(0 0 0)
(0 0 0)
(0 0 0)
(0 0 0)
(0 0 0)
(0 0 0)
(0 0 0)
(0 0 0)
(0 0 0)
(0 0 0)
(0 0 0)
(0 0 0)
(0 0 0)
(0 0 0)
(0 0 0)
(0 0 0)
(0 0 0)
(0 0 0)
(0 0 0)
(0 0 0)
(0 0 0)
(0 0 0)
(0 0 0)
(0 0 0)
(0 0 0)
(0 0 0)
(0 0 0)
(0 0 0)
(0 0 0)
(0 0 0)
(0 0 0)
(0 0 0)
(0 0 0)
(0 0 0)
(0 0 0)
(0 0 0)
(0 0 0)
(0 0 0)
(0 0 0)
(0 0 0)
(0 0 0)
(0 0 0)
(0 0 0)
(0 0 0)
(0 0 0)
(0 0 0)
(0 0 0)
(0 0 0)
(0 0 0)
(0 0 0)
(0 0 0)
(0 0 0)
(0 0 0)
(0 0 0)
(0 0 0)
(0 0 0)
(0 0 0)
(0 0 0)
(0 0 0)
(0 0 0)
(0 0 0)
(0 0 0)
(0 0 0)
(0 0 0)
(0 0 0)
(0 0 0)
(0 0 0)
(0 0 0)
(0 0 0)
(0 0 0)
(0 0 0)
(0 0 0)
(0 0 0)
(0 0 0)
(0 0 0)
(0 0 0)
(0 0 0)
(0 0 0)
(0 0 0)
(0 0 0)
(0 0 0)
(0 0 0)
(0 0 0)
(0 0 0)
(0 0 0)
(0 0 0)
(0 0 0)
(0 0 0)
(0 0 0)
(0 0 0)
(0 0 0)
(0 0 0)
(0 0 0)
(0 0 0)
(0 0 0)
(0 0 0)
(0 0 0)
(0 0 0)
(0 0 0)
(0 0 0)
(0 0 0)
(0 0 0)
(0 0 0)
(0 0 0)
(0 0 0)
(0 0 0)
(0 0 0)
(0 0 0)
(0 0 0)
(0 0 0)
(0 0 0)
(0 0 0)
(0 0 0)
(0 0 0)
(0 0 0)
(0 0 0)
(0 0 0)
(0 0 0)
(0 0 0)
(0 0 0)
(0 0 0)
(0 0 0)
(0 0 0)
(0 0 0)
(0 0 0)
(0 0 0)
(0 0 0)
(0 0 0)
(0 0 0)
(0 0 0)
(0 0 0)
(0 0 0)
(0 0 0)
(0 0 0)
(0 0 0)
(0 0 0)
(0 0 0)
(0 0 0)
(0 0 0)
(0 0 0)
(0 0 0)
(0 0 0)
(0 0 0)
(0 0 0)
(0 0 0)
(0 0 0)
(0 0 0)
(0 0 0)
(0 0 0)
(0 0 0)
(0 0 0)
(0 0 0)
(0 0 0)
(0 0 0)
(0 0 0)
(0 0 0)
(0 0 0)
(0 0 0)
(0 0 0)
(0 0 0)
(0 0 0)
(0 0 0)
(0 0 0)
(0 0 0)
(0 0 0)
(0 0 0)
(0 0 0)
(0 0 0)
(0 0 0)
(0 0 0)
(0 0 0)
(0 0 0)
(0 0 0)
(0 0 0)
(0 0 0)
(0 0 0)
(0 0 0)
(0 0 0)
(0 0 0)
(0 0 0)
(0 0 0)
(0 0 0)
(0 0 0)
(0 0 0)
(0 0 0)
(0 0 0)
(0 0 0)
(0 0 0)
(0 0 0)
(0 0 0)
(0 0 0)
(0 0 0)
(0 0 0)
(0 0 0)
(0 0 0)
(0 0 0)
(0 0 0)
(0 0 0)
(0 0 0)
(0 0 0)
(0 0 0)
(0 0 0)
(0 0 0)
(0 0 0)
(0 0 0)
(0 0 0)
(0 0 0)
(0 0 0)
(0 0 0)
(0 0 0)
(0 0 0)
(0 0 0)
(0 0 0)
(0 0 0)
(0 0 0)
(0 0 0)
(0 0 0)
(0 0 0)
(0 0 0)
(0 0 0)
(0 0 0)
(0 0 0)
(0 0 0)
(0 0 0)
(0 0 0)
(0 0 0)
(0 0 0)
(0 0 0)
(0 0 0)
(0 0 0)
(0 0 0)
(0 0 0)
(0 0 0)
(0 0 0)
(0 0 0)
(0 0 0)
(0 0 0)
(0 0 0)
(0 0 0)
(0 0 0)
(0 0 0)
(0 0 0)
(0 0 0)
(0 0 0)
(0 0 0)
(0 0 0)
(0 0 0)
(0 0 0)
(0 0 0)
(0 0 0)
(0 0 0)
(0 0 0)
(0 0 0)
(0 0 0)
(0 0 0)
(0 0 0)
(0 0 0)
(0 0 0)
(0 0 0)
(0 0 0)
(0 0 0)
(0 0 0)
(0 0 0)
(0 0 0)
(0 0 0)
(0 0 0)
(0 0 0)
(0 0 0)
(0 0 0)
(0 0 0)
(0 0 0)
(0 0 0)
(0 0 0)
(0 0 0)
(0 0 0)
(0 0 0)
(0 0 0)
(0 0 0)
(0 0 0)
(0 0 0)
(0 0 0)
(0 0 0)
(0 0 0)
(0 0 0)
(0 0 0)
(0 0 0)
(0 0 0)
(0 0 0)
(0 0 0)
(0 0 0)
(0 0 0)
(0 0 0)
(0 0 0)
(0 0 0)
(0 0 0)
(0 0 0)
(0 0 0)
(0 0 0)
(0 0 0)
(0 0 0)
(0 0 0)
(0 0 0)
(0 0 0)
(0 0 0)
(0 0 0)
(0 0 0)
(0 0 0)
(0 0 0)
(0 0 0)
(0 0 0)
(0 0 0)
(0 0 0)
(0 0 0)
(0 0 0)
(0 0 0)
(0 0 0)
(0 0 0)
(0 0 0)
(0 0 0)
(0 0 0)
(0 0 0)
(0 0 0)
(0 0 0)
(0 0 0)
(0 0 0)
(0 0 0)
(0 0 0)
(0 0 0)
(0 0 0)
(0 0 0)
(0 0 0)
(0 0 0)
(0 0 0)
(0 0 0)
(0 0 0)
(0 0 0)
(0 0 0)
(0 0 0)
(0 0 0)
(0 0 0)
(0 0 0)
(0 0 0)
(0 0 0)
(0 0 0)
(0 0 0)
(0 0 0)
(0 0 0)
(0 0 0)
(0 0 0)
(0 0 0)
(0 0 0)
(0 0 0)
(0 0 0)
(0 0 0)
(0 0 0)
(0 0 0)
(0 0 0)
(0 0 0)
(0 0 0)
(0 0 0)
(0 0 0)
(0 0 0)
(0 0 0)
(0 0 0)
(0 0 0)
(0 0 0)
(0 0 0)
(0 0 0)
(0 0 0)
(0 0 0)
(0 0 0)
(0 0 0)
(0 0 0)
(0 0 0)
(0 0 0)
(0 0 0)
(0 0 0)
(0 0 0)
(0 0 0)
(0 0 0)
(0 0 0)
(0 0 0)
(0 0 0)
(0 0 0)
(0 0 0)
(0 0 0)
(0 0 0)
(0 0 0)
(0 0 0)
(0 0 0)
(0 0 0)
(0 0 0)
(0 0 0)
(0 0 0)
(0 0 0)
(0 0 0)
(0 0 0)
(0 0 0)
(0 0 0)
(0 0 0)
(0 0 0)
(0 0 0)
(0 0 0)
(0 0 0)
(0 0 0)
(0 0 0)
(0 0 0)
(0 0 0)
(0 0 0)
(0 0 0)
(0 0 0)
(0 0 0)
(0 0 0)
(0 0 0)
(0 0 0)
(0 0 0)
(0 0 0)
(0 0 0)
(0 0 0)
(0 0 0)
(0 0 0)
(0 0 0)
(0 0 0)
(0 0 0)
(0 0 0)
(0 0 0)
(0 0 0)
(0 0 0)
(0 0 0)
(0 0 0)
(0 0 0)
(0 0 0)
(0 0 0)
(0 0 0)
(0 0 0)
(0 0 0)
(0 0 0)
(0 0 0)
(0 0 0)
(0 0 0)
(0 0 0)
(0 0 0)
(0 0 0)
(0 0 0)
(0 0 0)
(0 0 0)
(0 0 0)
(0 0 0)
(0 0 0)
(0 0 0)
(0 0 0)
(0 0 0)
(0 0 0)
(0 0 0)
(0 0 0)
(0 0 0)
(0 0 0)
(0 0 0)
(0 0 0)
(0 0 0)
(0 0 0)
(0 0 0)
(0 0 0)
(0 0 0)
(0 0 0)
(0 0 0)
(0 0 0)
(0 0 0)
(0 0 0)
(0 0 0)
(0 0 0)
(0 0 0)
(0 0 0)
(0 0 0)
(0 0 0)
(0 0 0)
(0 0 0)
(0 0 0)
(0 0 0)
(0 0 0)
(0 0 0)
(0 0 0)
(0 0 0)
(0 0 0)
(0 0 0)
(0 0 0)
(0 0 0)
(0 0 0)
(0 0 0)
(0 0 0)
(0 0 0)
(0 0 0)
(0 0 0)
(0 0 0)
(0 0 0)
(0 0 0)
(0 0 0)
(0 0 0)
(0 0 0)
(0 0 0)
(0 0 0)
(0 0 0)
(0 0 0)
(0 0 0)
(0 0 0)
(0 0 0)
(0 0 0)
(0 0 0)
(0 0 0)
(0 0 0)
(0 0 0)
(0 0 0)
(0 0 0)
(0 0 0)
(0 0 0)
(0 0 0)
(0 0 0)
(0 0 0)
(0 0 0)
(0 0 0)
(0 0 0)
(0 0 0)
(0 0 0)
(0 0 0)
(0 0 0)
(0 0 0)
(0 0 0)
(0 0 0)
(0 0 0)
(0 0 0)
(0 0 0)
(0 0 0)
(0 0 0)
(0 0 0)
(0 0 0)
(0 0 0)
(0 0 0)
(0 0 0)
(0 0 0)
(0 0 0)
(0 0 0)
(0 0 0)
(0 0 0)
(0 0 0)
(0 0 0)
(0 0 0)
(0 0 0)
(0 0 0)
(0 0 0)
(0 0 0)
(0 0 0)
(0 0 0)
(0 0 0)
(0 0 0)
(0 0 0)
(0 0 0)
(0 0 0)
(0 0 0)
(0 0 0)
(0 0 0)
(0 0 0)
(0 0 0)
(0 0 0)
(0 0 0)
(0 0 0)
(0 0 0)
(0 0 0)
(0 0 0)
(0 0 0)
(0 0 0)
(0 0 0)
(0 0 0)
(0 0 0)
(0 0 0)
(0 0 0)
(0 0 0)
(0 0 0)
(0 0 0)
(0 0 0)
(0 0 0)
(0 0 0)
(0 0 0)
(0 0 0)
(0 0 0)
(0 0 0)
(0 0 0)
(0 0 0)
(0.0299205 -0.0206203 0.00866015)
(-0.0749308 0.0156027 -0.0134615)
(-0.0409056 -0.00294868 0.0186289)
(-0.085891 0.0352476 0.0121016)
(-0.0457857 0.0161943 -0.0172412)
(-0.0722218 0.0603752 -0.0043561)
(-0.0436989 0.0704263 -0.0130189)
(-0.0202157 0.0175118 -0.0123042)
(0.0513538 -0.0445265 -0.0156618)
(0.0890264 -0.0390374 -0.00534217)
(0.122947 -0.0454989 0.0237214)
(0.133944 -0.0696024 -0.00680837)
(0.205978 -0.14251 0.0381599)
(0.0335652 -0.0381342 0.0317328)
(-0.0590423 0.0283324 0.0283867)
(0.0948792 -0.132082 0.0607592)
(-0.0294867 -0.0408366 0.036055)
(-0.111704 0.0871563 0.0465491)
(-0.150191 0.120014 0.0452164)
(-0.111399 0.0244083 0.0557734)
(-0.170849 0.0857043 0.085998)
(-0.0733684 0.0350891 0.00408476)
(-0.0309839 -0.0240832 0.00667988)
(-0.174062 0.0269851 0.0629564)
(-0.116359 -0.0668817 0.0173849)
(-0.0671385 -0.076299 0.00248889)
(0.0587616 -0.110169 0.00223481)
(0.0127692 -0.0964124 -0.0021156)
(0.0456517 -0.192238 -0.00784405)
(0.148414 -0.155609 0.00208537)
(0.157328 -0.247088 0.0246831)
(0.147236 -0.251777 -0.0328609)
(0.191618 -0.270253 -0.00757269)
(0.0727532 -0.178658 0.0429703)
(0.0107713 -0.0818272 0.0345515)
(0.101042 -0.176682 0.0221493)
(0.0298907 -0.0681623 0.0284712)
(-0.052411 -0.0272797 0.0368744)
(-0.124535 -0.00161701 0.046367)
(-0.0360432 -0.03612 0.0292592)
(-0.118819 -0.0394461 0.0407324)
(-0.212084 -0.0371667 0.0595843)
(-0.207293 -0.0960305 0.0171148)
(-0.237163 -0.0662947 0.0526863)
(-0.199499 -0.0797154 0.00135029)
(-0.105049 -0.108174 -0.00724091)
(-0.0665768 -0.0696121 -0.0155309)
(-0.0223876 -0.0353692 -0.0190614)
(0.00592241 -0.117212 -0.0233074)
(0.0375868 -0.18054 -0.036105)
(0.0401644 -0.103117 -0.0300649)
(0.156034 -0.221746 -0.0347154)
(0.246379 -0.251556 -0.0175787)
(0.135816 -0.153035 -0.0352168)
(0.228453 -0.190945 -0.0242232)
(0.174036 -0.185995 0.0171537)
(0.0442341 -0.0614175 0.0214284)
(0.280434 -0.190054 -0.0127018)
(0.12212 -0.0602261 0.0294323)
(-0.045508 -0.0364073 0.0225678)
(-0.142808 -0.0546024 0.0560858)
(-0.0283268 -0.0187869 0.0234516)
(-0.152371 -0.0152908 0.0474056)
(-0.241717 -0.0517732 0.0307457)
(-0.174979 -0.0253349 -0.0179899)
(-0.248186 0.0182785 0.0145798)
(-0.168828 0.0702443 -0.0200387)
(-0.0525546 -0.000683013 -0.0179101)
(-0.0232501 -0.0181319 -0.0156278)
(-0.0796384 0.0942946 -0.0152874)
(0.017076 -0.0400154 -0.0247558)
(0.079204 -0.0576943 -0.0308372)
(0.194236 -0.106526 -0.0443464)
(0.0489756 -0.00155 -0.0276435)
(0.131479 -4.08823e-05 -0.0350114)
(0.299173 -0.127691 -0.0314806)
(0.202885 -0.0492718 0.010999)
(0.251707 -0.0157559 -0.0317742)
(0.311542 -0.0345626 -0.0133897)
(0.00820443 0.00661701 0.0242737)
(-0.158459 0.0320002 0.0657685)
(0.07428 0.0346337 0.00142003)
(-0.132185 0.10166 0.0359481)
(-0.211318 0.102254 0.0272929)
(-0.150169 0.141084 -0.0103569)
(-0.15712 0.135567 0.0171241)
(-0.109012 0.103361 0.0034511)
(-0.075448 0.0934159 -0.00287144)
(0.11449 0.034978 -0.0215994)
(0.201712 0.0301621 -0.0108093)
(0.206334 0.0125411 -0.00278413)
(0.0605299 0.00996052 -0.00349821)
(0.0853426 0.0300904 -0.0188052)
(-0.0622746 0.0454544 -2.31618e-05)
(0.0425019 0.00917414 0.00292638)
(-0.0804056 0.0618455 0.00914083)
(0.08595 -0.0412108 -0.031187)
(0.0946412 -0.0484079 -0.041732)
(-0.108204 0.0205092 -0.0822453)
(-0.0473005 0.0154642 -0.0152308)
(-0.125705 0.0637454 -0.0344109)
(-0.0750651 0.0141281 -0.153825)
(0.00850307 -0.0236375 -0.0619681)
(-0.0997747 0.0388087 -0.139346)
(-0.0752016 0.0679023 -0.0695718)
(-0.043638 0.0571278 -0.0655006)
(-0.0459441 0.00381913 -0.151777)
(-0.065526 0.0457016 -0.154047)
(-0.043995 0.0302819 -0.128084)
(-0.0231847 0.0138577 -0.044084)
(-0.0296495 -0.0024424 -0.0902857)
(0.0825537 -0.0927064 -0.0200303)
(0.066381 -0.0954462 -0.0246714)
(0.161968 -0.062023 0.0069243)
(0.141206 -0.0913005 -0.0115302)
(0.2411 -0.129478 0.035833)
(0.0944668 -0.0804639 -0.0449514)
(0.142066 -0.0806712 -0.0244636)
(0.110463 -0.0995376 -0.0313357)
(0.17294 -0.116515 -0.00140676)
(-0.04187 -0.0385969 0.0115167)
(-0.207451 0.0604777 0.0765775)
(-0.126355 -0.0629263 0.00460125)
(-0.0727471 0.0169737 -0.0654289)
(-0.0267866 -0.0588067 -0.0438456)
(-0.196006 0.0411688 0.0381385)
(-0.0927833 -0.0525344 -0.0425091)
(-0.0610236 -0.088395 -0.00698143)
(-0.0422071 -0.0645067 -0.0395661)
(0.0849199 -0.14176 -0.00191654)
(0.0464258 -0.134098 0.00476841)
(0.0723664 -0.168486 -0.00642088)
(0.0596777 -0.106041 -0.00366054)
(0.0305363 -0.0167818 -0.00531475)
(0.0671419 -0.0589095 -0.00787566)
(-0.0544776 -0.0606104 -0.0335131)
(-0.0173041 -0.0430107 0.0123843)
(-0.033104 -0.060275 -0.0629106)
(-0.0252805 -0.0396042 -0.0780171)
(-0.00499768 -0.0205643 -0.0251379)
(0.0581889 -0.0914784 -0.0721383)
(0.0367284 -0.0488058 -0.0691354)
(0.0348703 0.0258225 -0.0186804)
(0.0577971 0.0335901 -0.0574144)
(0.0210111 0.0254727 -0.0835431)
(-0.00853228 -0.0134356 0.0146153)
(-0.0472284 0.0718073 -0.00999526)
(-0.0281815 0.0188909 -0.0826337)
(-0.0057199 0.00277809 -0.0233118)
(-0.0363061 0.0780752 -0.0714645)
(0.0111567 -0.0230712 -0.0611939)
(0.00868386 0.0166612 -0.0738067)
(0.121562 -0.0716042 -0.107532)
(0.0349476 0.00562224 -0.0704559)
(0.103771 0.01285 -0.103281)
(0.0146522 -0.00447398 -0.112065)
(0.037384 -0.0187171 -0.155562)
(0.00937397 0.000959593 -0.116143)
(0.0535607 0.0122071 -0.16076)
(-0.148266 0.127526 0.0149108)
(-0.164229 0.0986775 0.107446)
(-0.127662 0.113702 0.0477484)
(-0.12637 0.118686 0.0782211)
(-0.130321 0.121102 -0.0263701)
(-0.0991811 0.072756 0.137254)
(-0.105008 0.0945188 0.0485807)
(-0.0699215 0.106083 -0.0468523)
(0.115162 0.0502207 -0.0734378)
(0.0748714 0.030156 -0.133737)
(0.204965 0.0317897 0.0978287)
(0.152841 0.0247787 0.133011)
(0.0894738 0.0431782 -0.0251675)
(0.085183 -0.00797379 0.172487)
(0.0926615 -0.00670782 0.216065)
(-0.0781012 0.0445197 0.128474)
(0.0790126 0.0319926 0.12263)
(0.0407744 -0.0259159 0.231882)
(-0.0190617 0.003961 0.185833)
(0.0272559 -0.0120035 0.262792)
(-0.0349355 0.0133994 0.129501)
(0.131785 -0.081971 -0.0845728)
(0.146678 -0.107291 -0.0911156)
(0.0331811 0.0157247 -0.228605)
(0.077506 -0.0702534 -0.0382495)
(-0.0722518 -0.0100509 -0.192313)
(0.183123 -0.00574359 -0.192406)
(0.14333 -0.104412 -0.00961186)
(-0.0714922 -0.0778682 -0.0761542)
(-0.0522502 0.0241639 -0.210609)
(-0.0431508 0.0120686 -0.171725)
(0.0493634 0.0166163 -0.225088)
(-0.0277991 0.00779633 -0.223922)
(-0.0239377 0.00118569 -0.19992)
(-0.0234757 -0.0140239 -0.137922)
(-0.0233945 -0.0182463 -0.177989)
(0.0425145 -0.074976 -0.0373214)
(0.0210204 -0.0446601 -0.0441387)
(0.116313 -0.0930678 -0.0523788)
(0.0768595 -0.0981317 -0.046349)
(0.109184 -0.111127 -0.029753)
(0.0644119 -0.08066 -0.0749982)
(0.0809637 -0.102071 -0.0625671)
(0.0364023 -0.087648 -0.0551577)
(0.0362355 -0.109677 -0.0350797)
(-0.0374789 -0.0558806 -0.116852)
(-0.122607 -0.0179975 -0.0964518)
(-0.0536881 -0.0468345 -0.0899233)
(-0.0402587 -0.0317357 -0.160185)
(-0.0360822 -0.0467822 -0.131078)
(-0.0511108 -0.0462612 -0.148867)
(-0.0342607 -0.0517016 -0.12048)
(-0.0284151 -0.0503484 -0.0698789)
(-0.0190472 -0.0407976 -0.0896826)
(0.0292464 -0.0669172 -0.00711413)
(0.00399992 0.0345972 0.00597411)
(0.0155298 -0.0115651 0.00901469)
(0.00130076 -0.0252358 -0.0220401)
(-0.00619776 0.0590447 -0.0195515)
(-0.0193866 0.0309618 -0.00515249)
(-0.00962454 -0.0291325 -0.108231)
(-0.00240034 -0.0078014 -0.0597266)
(-0.00790832 -0.0395316 -0.103425)
(-0.00388605 -0.0268944 -0.131135)
(-0.0033759 -0.00864157 -0.0849537)
(0.0146693 0.0873905 -0.0396778)
(0.0110628 0.0794285 -0.0688322)
(0.00724649 0.0978722 -0.0457482)
(-0.0168685 0.111037 -0.0443301)
(-0.00125988 0.144243 -0.0540946)
(-0.00338098 0.00941926 -0.0634104)
(-0.0349266 0.0716769 -0.123318)
(-0.0126466 0.0135416 -0.165373)
(-0.00438322 0.00403164 -0.0949781)
(-0.0252823 0.0474829 -0.161368)
(0.0133773 0.0436932 -0.0496098)
(0.0083013 0.0690299 -0.0180709)
(0.00158522 0.00935271 -0.173044)
(-0.0214174 -0.0252514 -0.131341)
(0.00415605 -0.0139615 -0.193338)
(-0.0315722 0.0595279 -0.0918888)
(-0.0845714 -0.0692323 -0.249626)
(-0.104567 -0.0908369 -0.203946)
(-0.10024 -0.0841856 -0.291195)
(-0.111785 0.0878255 -0.0608699)
(-0.0240943 0.0553573 0.200062)
(-0.0893168 0.0832426 0.0467616)
(0.160945 0.13122 0.0788182)
(-0.0892412 0.0818866 -0.136499)
(0.155541 0.200312 0.113808)
(-0.0869378 0.0812395 -0.0773239)
(-0.0467211 0.0704825 -0.151072)
(0.0154583 -0.00412304 -0.184079)
(-0.0615461 -0.054773 -0.291562)
(-0.00072895 -0.0454315 0.256331)
(0.00529476 -0.0403427 0.270208)
(-0.044253 0.000383358 0.172418)
(0.000394082 -0.0131156 0.236768)
(0.00516964 -0.0101283 0.218497)
(0.0329061 -0.0105864 0.205124)
(0.00214738 -0.0359443 0.283725)
(0.0424539 0.00600774 0.286345)
(0.0518306 0.0497335 0.205936)
(0.0161492 -0.00704037 0.248742)
(0.109539 0.0421474 0.100813)
(0.144907 -0.113624 -0.0700316)
(0.134851 -0.105026 -0.062925)
(0.218763 -0.0014 -0.0684819)
(0.130832 -0.113596 0.0268307)
(-0.0785398 -0.113928 0.0218671)
(0.204907 -0.0413341 -0.0181907)
(0.108879 -0.103552 0.0414689)
(-0.0412641 -0.149224 0.100171)
(-0.0121396 0.000153571 -0.184926)
(-0.00675654 0.00523966 -0.203697)
(0.232357 0.0260412 -0.126724)
(0.00970117 -0.0192989 -0.123066)
(0.00628339 0.016423 -0.193981)
(-0.0115365 -0.0125795 -0.17761)
(-0.00566063 -0.00123959 -0.16869)
(0.00342579 -0.0199171 -0.0430116)
(-0.00716158 -0.00448283 -0.0390636)
(0.0367174 -0.107753 -0.0322207)
(0.0036901 -0.071676 -0.0518983)
(-0.0209041 -0.117069 -0.0150995)
(0.0172581 -0.0580117 -0.0605085)
(0.0189495 -0.122898 -0.0131698)
(-0.0241861 -0.061191 -0.0384546)
(-0.0595438 -0.124295 0.000246823)
(-0.0213747 -0.0298141 -0.131989)
(-0.0146044 -0.0427258 -0.14887)
(-0.0154838 -0.0392256 -0.130231)
(-0.012221 -0.0162296 -0.158782)
(-0.0108429 -0.0153507 -0.130047)
(0.00403974 -0.0330011 -0.139059)
(-0.00717708 -0.0273304 -0.127312)
(-0.0101633 -0.0315784 -0.10323)
(-0.00992615 -0.0223827 -0.104269)
(-0.0101382 4.84423e-05 -0.0320638)
(-0.0153073 0.0633557 -0.0304199)
(-0.0389295 0.0440905 -0.0255148)
(-0.0279545 0.013579 -0.0362674)
(-0.0209128 0.0641875 -0.0347176)
(-0.0575133 0.0456012 -0.040182)
(0.00033999 -0.0339058 -0.141695)
(-0.00286376 -0.00700974 -0.100054)
(-0.00915064 -0.0275737 -0.104958)
(0.00181214 -0.0388294 -0.137362)
(-0.00254167 -0.0193587 -0.103566)
(-0.059339 0.117686 -0.0670027)
(-0.0591752 0.174566 -0.0903246)
(-0.0494105 0.118842 -0.0526002)
(-0.0894822 0.0904279 -0.0970497)
(0 0 0)
(0.000264176 -0.00366183 -0.123434)
(-0.0192059 0.0200663 -0.192113)
(0.00487407 -0.0366882 -0.19814)
(0.00237813 -0.022379 -0.135934)
(-0.00998602 -0.0275435 -0.221942)
(-0.31693 -0.119952 -0.43769)
(-0.31693 -0.119952 -0.43769)
(-0.147154 -0.181371 -0.368808)
(-0.204013 -0.108628 -0.431353)
(-0.170927 -0.115786 -0.401118)
(-0.31693 -0.119952 -0.43769)
(-0.157272 -0.18139 -0.356723)
(-0.207489 -0.113769 -0.398033)
(-0.183973 -0.119181 -0.366874)
(-0.0616923 0.0397955 -0.214829)
(0.163309 0.194655 0.109492)
(0 0 0)
(0.13665 0.00664534 -0.131994)
(-0.0274208 -0.0455367 -0.235137)
(0 0 0)
(0 0 0)
(0.0101628 -0.028183 -0.255743)
(-0.133497 -0.0783307 -0.340079)
(-0.155098 -0.0781731 -0.339243)
(-0.00265858 0.0156351 0.21467)
(0.00500508 0.0171809 0.189661)