/*--------------------------------*- C++ -*----------------------------------*\
| =========                 |                                                 |
| \\      /  F ield         | OpenFOAM: The Open Source CFD Toolbox           |
|  \\    /   O peration     | Version:  5.x                                   |
|   \\  /    A nd           | Web:      www.OpenFOAM.org                      |
|    \\/     M anipulation  |                                                 |
\*---------------------------------------------------------------------------*/
FoamFile
{
    version     2.0;
    format      ascii;
    class       volScalarField;
    location    "2";
    object      p;
}
// * * * * * * * * * * * * * * * * * * * * * * * * * * * * * * * * * * * * * //

dimensions      [0 2 -2 0 0 0 0];

internalField   nonuniform List<scalar> 
10571
(
210.755
217.759
216.599
214.871
213.691
213.597
221.255
215.902
207.995
246.875
222.84
234.353
256.478
263.966
275.713
330.984
295.976
304.057
312.549
321.99
329.906
320.923
332.014
335.066
32.9268
145.661
117.46
97.4696
105.398
180.494
181.287
157.563
142.662
109.469
177.314
203.61
197.623
206.908
193.937
176.712
251.381
241.831
232.339
235.359
205.136
286.507
285.647
257.64
28.7227
25.6982
23.8068
25.2393
22.882
110.789
34.0847
39.1712
27.3633
22.7739
126.756
119.567
54.7674
61.2086
31.0131
59.1208
156.025
129.369
104.593
75.7893
72.5478
184.312
168.336
124.399
26.0762
24.7421
24.23
27.1909
24.1543
19.1225
19.6935
20.6559
21.1372
23.5733
50.7602
24.6908
23.2686
25.3313
22.972
23.6837
60.9833
35.7452
28.1102
23.5151
24.0455
81.424
70.0634
29.5119
24.1619
24.038
23.7183
22.8473
23.7319
23.8008
24.1147
23.536
23.8963
23.5677
22.8811
23.2358
23.6181
23.5237
25.0562
23.769
22.9391
23.3717
23.4214
24.6227
24.0155
24.3575
24.2556
24.0404
24.0557
23.9939
23.9278
23.7763
23.8973
23.4965
24.0019
23.7417
23.3747
23.19
23.3113
22.5553
23.0319
23.4957
23.2592
23.4615
23.5172
23.3864
23.1696
23.6235
23.3221
23.1772
23.3787
23.5334
23.4843
23.4675
23.8067
23.9449
23.7195
23.5332
23.585
23.6931
23.7678
23.3622
23.1021
23.3612
23.3046
22.9067
23.1345
23.4535
23.3515
23.001
23.2931
23.3617
23.2565
23.4467
23.2567
22.9739
23.2581
23.3471
23.3853
23.3492
23.1891
23.5399
23.6763
23.4597
23.3761
23.5024
23.6409
23.5455
23.1581
23.1127
23.362
23.0799
23.4533
23.3214
23.3178
23.1037
23.0229
23.3363
23.2986
23.2616
23.3737
23.1523
22.9833
23.2081
23.2952
23.3476
23.2529
23.1109
23.4393
23.3953
23.2916
23.3362
23.5237
23.4963
23.1451
22.9914
23.222
23.3894
23.2724
23.7653
23.4604
23.0589
22.8802
23.107
23.3389
23.3352
23.3568
23.2744
23.1149
23.0379
23.0303
23.3361
23.2129
23.1234
23.4017
23.2931
23.1912
23.3241
23.5345
23.2905
22.8506
22.8987
23.3716
23.2996
23.6314
23.3853
22.8188
22.8164
23.2467
23.3105
23.4097
23.2554
23.1403
23.1359
23.0791
23.3351
23.2723
23.2123
23.455
23.3315
23.2221
23.408
23.5935
23.2495
22.8853
22.981
23.4857
23.4629
23.5433
23.3403
22.9091
22.9575
23.3988
23.323
23.4427
23.3344
23.2996
23.3
23.3457
23.4038
23.3817
23.3667
23.5752
23.528
23.4186
23.5471
23.698
23.4534
23.1782
23.3203
23.661
23.6749
23.63
23.4766
23.2165
23.2636
23.5825
23.5438
23.5735
23.508
23.4993
23.5346
23.5477
23.5375
23.5188
23.5431
23.7514
23.7578
23.6804
23.7449
23.8258
23.6681
23.5142
23.6799
23.8694
23.843
23.8262
23.7113
23.5265
23.6206
23.7824
23.7215
23.7785
23.7375
23.7197
23.7339
23.739
23.7563
23.7125
23.7306
23.9014
23.905
23.8795
23.9021
23.93
23.8841
23.8333
23.9658
24.0147
24.0053
23.9198
23.934
23.7641
23.9154
23.9361
23.8918
23.9672
23.9358
23.9131
23.9238
23.9063
23.9577
23.9156
23.9183
23.9792
23.9264
23.9979
23.984
23.965
23.9553
23.9975
24.062
24.0413
24.0816
23.9952
24.0596
23.9805
24.0606
24.0375
24.0173
24.0615
24.0808
24.0406
24.0734
24.0326
24.1502
24.0868
24.0751
23.961
23.9148
23.9636
23.9534
23.9673
23.9499
24.1166
24.0546
24.0863
24.1246
24.0755
24.0603
24.1032
24.1206
24.1086
24.1037
24.0949
24.1804
24.1229
24.1413
24.1098
24.3286
24.2266
24.189
23.9084
23.972
23.916
23.879
23.9858
24.0436
24.1646
24.0755
24.0979
24.1398
24.1214
24.125
24.1319
24.1773
24.1758
24.157
24.094
24.2401
24.2055
24.2017
24.1691
24.4164
24.3286
24.2691
23.9479
23.9823
23.7971
23.8945
23.9952
24.0787
24.119
24.05
24.0026
24.1337
24.0795
24.1139
24.1696
24.2217
24.2093
24.1784
24.0742
24.2309
24.2596
24.254
24.2162
24.4142
24.3928
24.3523
24.1095
24.0407
23.7508
23.9251
24.1248
24.0036
24.0322
24.0416
23.931
24.0927
24.0616
24.0576
24.1264
24.1964
24.222
24.1872
24.0535
24.1842
24.2732
24.2872
24.2729
24.3435
24.397
24.378
24.4307
24.2453
24.1905
24.276
24.4782
24.0578
24.0981
24.1167
23.9357
24.0519
24.0569
24.0094
24.0362
24.0819
24.2451
24.1996
24.046
24.1383
24.2323
24.3186
24.3102
24.2853
24.3209
24.3528
24.6893
24.4372
24.7717
24.6183
24.9289
24.1362
24.1535
24.0934
23.9573
24.026
24.0731
23.9999
23.9586
23.8783
24.238
24.2271
24.0575
24.1152
24.179
24.2985
24.313
24.2099
24.2433
24.304
24.9661
24.4521
24.8345
24.8183
24.7823
24.1361
24.133
23.9649
23.8445
24.0762
24.0865
23.9935
23.9483
23.7758
24.1715
24.2252
24.0878
24.1185
24.1418
24.2671
24.2707
24.1737
24.2068
24.2622
24.8832
24.3717
24.5897
24.5768
24.3721
24.0834
24.105
23.9022
23.7701
24.1024
24.0949
23.9751
23.9498
23.8941
24.0933
24.0992
24.1174
24.1313
24.1346
24.2183
24.2092
24.1571
24.1601
24.2221
24.17
24.2725
24.3004
24.1348
23.9666
24.0574
24.0727
24.0137
23.8552
24.1339
24.1068
23.9503
23.978
24.0333
24.0564
24.0296
24.1381
24.1343
24.1369
24.17
24.1477
24.1599
24.1473
24.2035
23.726
24.2009
24.0878
23.7291
23.5938
24.0682
24.0496
24.1587
24.0796
24.483
24.1072
23.9325
24.0095
24.137
24.0992
24.1036
24.155
24.1265
24.1425
24.1602
24.1556
24.1656
24.1509
24.1955
23.4897
24.1691
23.993
23.4044
23.2317
24.101
24.0235
24.1932
24.2089
24.5426
24.1286
23.9318
24.0092
24.1827
24.1997
24.1924
24.1609
24.1286
24.1912
24.1481
24.1938
24.1875
24.1617
24.1584
23.5786
24.1816
24.033
23.3374
23.4361
24.1232
23.9507
24.0745
24.0411
24.219
24.2082
23.9606
23.9562
24.219
24.2244
24.2123
24.1883
24.1682
24.2286
24.258
24.2998
24.2416
24.2048
24.1708
23.9436
24.2378
24.1814
23.6644
23.7703
24.1555
23.8966
23.9293
23.978
23.9968
24.2846
24.0644
23.8961
24.1706
24.2245
24.1908
24.2651
24.2134
24.2752
24.4932
24.5271
24.3143
24.3013
24.3108
24.3335
24.2877
24.3082
24.1765
24.0849
24.2572
23.8766
23.99
23.8594
23.9243
24.3542
24.1634
23.8502
24.0649
24.2507
24.1611
24.3552
24.2516
24.2903
24.4997
24.495
24.387
24.3995
24.4519
24.566
24.2779
24.3401
24.4587
24.3351
24.3046
23.8887
23.9942
23.9165
24.0971
24.454
24.3898
23.8538
23.9637
24.2137
24.2006
24.5117
24.3181
24.2633
24.3449
24.3846
24.4625
24.4473
24.4522
24.5404
24.2283
24.2965
24.4612
24.9226
24.2512
23.875
23.9036
24.0934
24.2297
24.4927
24.5334
23.9674
23.8795
24.127
24.1665
24.6553
24.3396
24.2226
24.2558
24.2863
24.5482
24.4917
24.3971
24.3396
24.1735
24.152
24.2624
24.6204
24.2109
23.8104
23.8557
24.0151
24.1528
24.4724
24.4624
24.097
23.855
24.0314
24.1191
24.6285
24.4008
24.2034
24.2076
24.2657
24.6591
24.542
24.3293
24.1671
24.1022
23.8957
24.0982
24.2921
24.1443
23.7385
23.8296
23.8926
24.0715
24.4232
24.3781
24.179
23.8385
23.9242
24.0411
24.573
24.3669
24.2043
24.1405
24.1832
24.5345
24.5086
24.2893
24.1444
24.0167
23.7299
24.0826
24.1798
24.048
23.7197
23.8523
23.8423
24.0463
24.3338
24.2848
24.1778
23.8595
23.8356
23.9709
24.4852
24.3287
24.2074
24.052
24.09
24.3989
24.5127
24.2409
24.2124
23.9881
23.8356
24.1775
24.2158
23.9733
23.7284
23.9006
23.8588
24.0638
24.2385
24.1868
24.1585
23.9439
23.7652
23.9306
24.3884
24.3226
24.1856
23.9388
24.0076
24.3954
24.5071
24.3142
24.2299
24.0309
24.09
24.2421
24.2527
23.9515
23.8417
23.9204
23.9452
24.1031
24.163
24.1046
24.1338
24.022
23.8081
23.9522
24.3095
24.4105
24.101
23.9905
23.9955
24.4073
24.3238
24.4657
24.1156
24.0703
24.2195
24.1533
24.2218
23.9677
23.9504
23.8931
24.0514
24.1603
24.1147
24.0539
24.0799
24.0041
23.9635
24.0242
24.2355
24.3693
24.1283
24.1045
24.0531
24.3978
24.2065
24.3367
23.9573
24.0683
24.1009
23.892
24.1562
23.9868
23.9755
23.8776
24.1078
24.2221
24.0843
24.0192
24.0202
23.9177
24.0608
24.1336
24.1482
24.1421
24.1432
24.0645
24.1221
24.3048
24.1835
24.2617
23.8867
24.0475
23.9852
23.7252
24.1018
23.9843
23.9109
23.8656
24.0924
24.2561
24.0577
23.9785
23.9084
23.8513
24.0346
24.1774
24.0645
23.9121
24.0252
24.013
24.1414
24.1673
24.1097
24.1258
23.9215
24.0266
23.9377
23.7354
24.0743
23.9782
23.8327
23.8438
24.0504
24.2435
24.0355
23.9403
23.8164
23.8304
23.967
24.15
23.993
23.7566
23.8792
23.9534
24.0606
24.0331
23.9801
23.9751
24.0292
24.0221
23.9446
23.8055
24.0714
23.9758
23.7777
23.8124
24.0024
24.2052
24.0355
23.9271
23.749
23.8199
23.9025
24.0898
23.9453
23.6763
23.8099
23.8768
23.9652
23.9411
23.8826
23.8788
24.1536
24.0408
24.0012
23.8988
24.0977
23.9771
23.7763
23.7966
23.9711
24.1447
24.0584
23.9498
23.7038
23.7885
23.8363
24.0138
23.9416
23.6507
23.7723
23.7867
23.8888
23.8942
23.8504
23.8347
24.2538
24.0741
24.0763
24.0219
24.1402
23.9865
23.8175
23.8224
23.9886
24.0964
24.1093
23.9996
23.7184
23.7861
23.8397
23.9665
23.9797
23.6744
23.7853
23.7451
23.8592
23.8927
23.8825
23.8521
24.3096
24.1124
24.1446
24.1598
24.1949
24.0311
23.88
23.9134
24.0393
24.1151
24.1829
24.0695
23.7914
23.847
23.9301
23.9869
24.0389
23.7481
23.8561
23.8242
23.9393
23.924
23.9443
23.9058
24.3509
24.1617
24.1963
24.2518
24.2859
24.1079
23.9813
24.0347
24.1032
24.1897
24.2575
24.1462
23.8918
23.9667
24.0357
24.1085
24.1043
23.8439
23.9344
23.9574
24.0824
23.9796
23.9958
23.9783
24.3852
24.2227
24.2392
24.3073
24.3512
24.1971
24.0882
24.1416
24.158
24.2835
24.3142
24.2121
23.9993
24.0521
24.0786
24.1755
24.1633
23.9469
23.9971
24.0277
24.1335
24.0422
24.0349
24.0385
24.4068
24.2796
24.2689
24.3557
24.5284
24.2733
24.1581
24.1981
24.3275
24.332
24.3322
24.2502
24.0845
24.0756
24.0882
24.1615
24.2062
24.0379
24.0716
24.0722
24.118
24.1003
24.0757
24.0871
24.404
24.2996
24.2751
24.3668
24.5875
24.307
24.1766
24.2445
24.5712
24.377
24.3132
24.2629
24.1344
24.1129
24.176
24.1308
24.2365
24.1116
24.1389
24.1439
24.1425
24.1513
24.1305
24.1316
24.3876
24.297
24.2654
24.3557
24.5747
24.2975
24.1645
24.312
24.5641
24.4793
24.2931
24.2717
24.1665
24.1826
24.2472
24.2053
24.2673
24.1861
24.2107
24.1913
24.1752
24.1951
24.1854
24.184
24.3576
24.2884
24.2524
24.3288
24.5578
24.2792
24.1403
24.3083
24.3997
24.641
24.3064
24.2838
24.1804
24.2219
24.1974
24.2934
24.2949
24.2444
24.2705
24.2437
24.2078
24.2322
24.2372
24.2453
24.3228
24.2861
24.2427
24.2942
24.496
24.2718
24.1362
24.2691
24.3674
24.6687
24.3495
24.3163
24.195
24.2161
24.1232
24.4034
24.3273
24.2633
24.2828
24.237
24.2423
24.2464
24.2491
24.2678
24.2913
24.2975
24.2448
24.2609
24.4212
24.2818
24.1647
24.2587
24.357
24.5797
24.3828
24.3414
24.2151
24.2387
24.2292
24.4616
24.3643
24.2789
24.2711
24.2297
24.286
24.2363
24.254
24.2837
24.2751
24.3207
24.2605
24.2348
24.3564
24.3065
24.2219
24.2509
24.2928
24.4855
24.3985
24.3557
24.2388
24.252
24.2401
24.3962
24.3805
24.2792
24.2877
24.2307
24.334
24.2545
24.2859
24.3306
24.2808
24.3502
24.2747
24.2275
24.302
24.3382
24.2709
24.2424
24.2395
24.317
24.4104
24.3798
24.2812
24.2401
24.1768
24.1575
24.3813
24.3157
24.3244
24.2694
24.3091
24.3267
24.3534
24.3808
24.2973
24.378
24.2694
24.2391
24.2596
24.375
24.3077
24.2392
24.1982
24.2029
24.4295
24.4043
24.3387
24.2235
24.2153
24.0362
24.4181
24.3997
24.3626
24.318
24.3104
24.4273
24.4231
24.4828
24.2952
24.3966
24.2401
24.2513
24.231
24.3991
24.3302
24.2427
24.181
24.1586
24.4715
24.4337
24.389
24.2275
24.2822
24.0918
24.483
24.4837
24.4637
24.324
24.3351
24.5276
24.5207
24.4811
24.2825
24.3935
24.2043
24.2497
24.2045
24.4119
24.337
24.2378
24.1586
24.1347
24.5114
24.464
24.4257
24.2714
24.2908
24.1763
24.5429
24.5354
24.5546
24.4157
24.3736
24.6099
24.5772
24.5171
24.2621
24.3839
24.1936
24.2377
24.1699
24.4117
24.3219
24.2136
24.1071
24.0949
24.5337
24.4829
24.4441
24.3093
24.2677
24.2052
24.5957
24.5539
24.5654
24.5183
24.4278
24.6077
24.6071
24.5817
24.226
24.3711
24.2111
24.2031
24.1113
24.4073
24.2841
24.1632
24.0028
23.9991
24.5559
24.5025
24.4478
24.3079
24.2205
24.1304
24.5955
24.5451
24.522
24.4862
24.369
24.6196
24.6152
24.5825
24.1664
24.3536
24.2273
24.1507
24.0137
24.3949
24.2682
24.0796
23.8285
23.7923
24.6287
24.5565
24.4322
24.2534
24.0731
23.8392
24.6106
24.5433
24.4811
24.3748
24.1391
24.6718
24.6252
24.5495
24.0859
24.3233
24.208
24.0679
23.8771
24.3615
24.2408
23.9562
23.5203
23.3085
24.5944
24.4328
24.3955
24.194
23.8491
22.9792
24.5557
24.6106
24.5021
24.2597
23.8037
24.707
24.649
24.5444
23.9999
24.2713
24.1636
23.965
23.7186
24.2916
24.1964
23.8152
23.084
21.9765
24.428
24.294
24.4006
24.1246
23.5123
20.8903
24.5131
24.8104
24.5889
24.1387
23.3006
24.8052
24.6537
24.5745
23.9164
24.2164
24.0996
23.8633
23.5655
24.2823
24.171
23.7242
22.5766
18.6555
24.399
24.2719
24.5828
24.0794
23.2319
18.293
-16.74
24.5053
24.8635
24.754
24.1609
22.1462
24.8491
24.692
24.6085
23.8452
24.1728
24.0351
23.78
23.5215
24.243
24.1471
23.7971
22.4321
17.1186
0.652628
24.5015
24.2667
24.444
24.096
22.9349
18.1403
1.76599
24.3517
24.509
24.6153
24.0371
20.6712
24.6699
24.6876
24.5047
23.7949
24.0982
23.955
23.7253
23.6061
24.1182
23.8734
23.4564
22.5239
19.2467
5.86926
24.3634
24.1206
23.9702
23.6234
22.4679
18.2339
5.68871
24.1317
24.1506
24.0845
23.6254
19.9798
6.21883
24.3802
24.4573
24.3876
23.7195
23.9353
23.7963
23.6263
23.6703
23.8758
23.6537
22.9009
22.3924
19.6335
7.23053
24.077
24.0342
23.7523
23.0407
22.0524
17.2046
2.79862
24.068
23.9424
23.6994
23.0228
19.4233
24.1044
24.0226
23.8183
23.584
23.7144
23.5546
23.4399
23.5172
23.5781
23.3314
22.7428
22.1848
21.6518
23.8521
23.8109
23.5198
22.8432
21.8187
17.5751
-7.14258
23.9925
23.6877
23.3824
22.7118
20.7975
23.8597
23.656
23.3217
23.4077
23.5149
23.3159
23.2257
23.2593
23.5457
22.7302
22.4707
21.8803
22.1896
23.6137
23.6538
23.247
22.7285
21.7862
20.1096
23.9021
23.4753
23.155
22.5768
21.737
23.6422
23.4039
23.0188
23.2719
23.4444
23.154
23.0714
23.0847
23.4976
22.4716
22.3351
21.7964
22.2978
23.6753
23.5404
23.0798
22.7433
21.9863
21.4504
23.7601
23.3823
23.095
22.5785
22.3749
23.552
23.307
22.9359
23.3219
23.3187
23.0981
23.1034
23.1473
23.1125
22.4329
22.3731
21.9689
22.632
23.5731
23.4173
23.0849
22.9039
22.2884
22.2684
23.6509
23.4203
23.1634
22.7497
22.8387
23.6085
23.3863
23.0979
23.5885
23.0386
23.18
23.3464
23.4781
22.9414
22.4362
22.4694
22.4062
23.1759
23.4648
23.3696
23.2245
23.1275
22.8179
22.9793
23.6448
23.5783
23.402
23.1123
23.4084
23.8204
23.6464
23.4777
24.1212
22.8932
23.4548
23.8007
24.0406
22.801
22.6476
22.8608
23.1099
23.963
23.4493
23.3844
23.4668
23.4664
23.4555
23.7045
23.7556
23.8785
23.8001
23.624
24.0341
24.1829
24.0897
24.0389
24.8914
22.8956
24.0416
24.487
24.7816
22.6737
22.7201
23.278
23.8632
24.7231
23.6213
23.5112
23.8126
23.8777
24.0446
24.397
24.0211
24.2968
24.3352
24.2011
24.621
24.6439
24.6327
24.6386
25.7886
23.9162
24.9646
25.307
25.5177
22.97
23.0185
23.6405
24.4117
25.3919
24.0131
23.8151
23.7805
23.9318
24.2114
24.8597
24.4702
24.4701
24.5132
24.6673
25.0846
25.1993
25.1794
25.3331
26.336
24.9081
25.6202
25.7956
25.81
23.6755
23.9401
24.3
24.8497
25.5771
24.5367
24.1908
24.0571
24.1426
24.4743
25.0448
24.8301
24.7925
24.7952
24.9368
25.3282
25.4197
25.4864
25.513
219.806
215.169
216.038
215.83
215.566
217.772
214.711
212.88
217.672
224.196
224.947
226.351
228.919
218.647
216.933
222.471
218.071
216.277
215.308
216.212
215.453
214.873
219.168
214.925
223.398
241.051
216.997
222.219
219.49
226.501
230.081
234.274
245.469
226.726
226.796
248.476
251.608
226.921
230.725
253.333
257.195
235.872
251.812
282.164
313.247
301.886
382.503
383.993
238.382
236.274
271.562
252.347
264.379
279.71
283.01
267.799
269.536
286.459
289.047
272.94
277.388
293.335
299.699
284.546
321.103
305.986
333.792
393.281
387.513
385.124
299.387
307.669
301.447
312.04
314.079
312.061
315.104
326.306
329.973
319.571
324.325
334.321
337.258
326.966
348.738
339.098
347.014
369.498
318.297
329.669
334.182
331.871
339.346
341.091
335.131
339.764
216.654
207.684
214.455
216.266
215.67
190.433
208.312
199.508
212.796
211.217
168.526
175.697
178.246
211.951
197.151
200.603
189.071
218.133
213.322
223.453
194.729
202.012
192.758
210.435
214.878
208.458
216.323
204.636
199.213
207.358
198.228
216.057
178.551
200.557
200.437
204.925
189.759
189.036
190.65
305.41
303.875
182.679
218.898
213.844
222.827
238.76
206.862
214.201
221.806
320.881
328.76
248.557
233.675
260.121
276.553
261.12
300.595
304.681
309.995
284.082
289.636
297.709
304.687
332.858
335.906
333.89
296.978
289.12
309.109
293.127
272.001
311.287
307.564
329.804
329.751
310.215
320.187
324.11
335.29
330.714
321.757
319.237
323.459
313.426
99.292
30.372
39.6462
80.5512
53.867
23.1004
25.507
22.0401
37.2855
37.1761
23.5028
23.0129
22.6927
51.8041
24.2994
177.755
162.326
122.404
168.383
161.136
72.5453
39.0158
139.698
77.9771
95.6271
184.716
134.567
28.6602
31.8514
60.5355
38.451
100.442
35.7088
179.932
174.34
174.725
167.532
161.777
163.086
147
144.484
40.396
83.1824
89.4364
189.829
196.904
151.002
156.507
165.77
164.554
194.685
114.329
107.216
132.869
227.839
188.417
255.776
275.456
281.534
204.317
207.816
228.054
234.083
220.964
246.033
228.119
157.821
146.404
174.419
157.2
135.77
292.306
248.1
289.037
297.722
240.558
237.765
243.367
272.945
293.979
228.889
212.587
234.377
192.584
24.1088
25.0324
27.0513
24.1182
26.5751
26.7656
25.2845
27.0371
28.8039
28.817
27.893
28.3389
28.4676
26.1905
26.5959
127.503
38.189
24.0324
51.4322
27.2152
22.9532
24.5361
21.2649
23.5278
23.2428
23.3108
22.3903
24.9986
24.832
23.96
23.9919
22.7015
24.1237
145.552
145.839
147.826
94.5468
120.955
115.732
30.6638
43.343
23.0236
22.1317
24.1917
126.886
129.208
103.449
94.2497
87.6301
58.4566
73.8727
25.4103
28.4459
32.0639
143.875
96.7111
155.958
171.914
178.374
107.741
105.503
120.201
124.852
72.9639
103.221
86.1434
29.0399
27.0733
41.3065
30.9357
30.3631
185.847
130.196
180.457
180.542
130.377
126.455
126.656
151.177
173.685
114.386
95.6901
120.179
66.3706
24.5429
24.248
25.356
24.6626
25.0683
24.2936
24.1326
24.0892
25.4885
25.8457
24.7096
24.1274
24.5411
25.2249
24.3725
19.3363
23.5876
24.2064
23.2049
24.0443
24.3405
24.0184
24.65
23.8907
24.3947
23.8329
24.1412
23.6358
23.9192
23.3979
23.7824
24.1872
23.7652
25.5494
71.4113
43.3527
17.0194
16.6401
16.5527
23.0043
22.963
23.6072
23.3794
23.4463
33.29
39.5621
20.7653
20.6277
21.8683
23.5758
24.0812
23.8119
23.7784
23.624
50.0426
22.9797
62.2502
71.0267
76.4883
24.8766
29.4897
27.2325
33.4615
23.6452
24.7014
23.9148
24.8872
24.3197
24.1724
24.4806
24.293
81.1494
35.2074
78.5373
80.7112
36.4486
37.6858
44.4766
52.9979
75.0057
37.9093
27.2538
42.8913
24.3618
24.2179
24.1646
24.029
24.1193
24.07
24.0815
24.1343
24.1643
24.0285
24.3451
24.1079
24.0793
24.3797
24.2452
24.3067
25.0121
24.5172
24.0618
24.1928
23.7859
23.9657
24.0896
23.878
23.8047
23.8766
23.5646
23.6988
23.8958
23.8927
23.7075
23.6009
23.5688
23.4582
23.1269
21.0474
22.385
24.6086
23.829
24.0203
23.0284
23.5368
23.3376
22.9578
23.0977
22.8317
22.8894
22.9419
22.6353
23.0399
23.8479
23.7233
23.6279
23.4785
23.5603
22.9293
23.2547
23.0252
22.9082
23.1691
23.4291
23.5288
23.639
23.6377
23.8631
24.0658
23.9303
23.7833
23.3843
23.7278
23.6327
23.6298
23.9862
23.8303
24.2659
26.5568
23.7914
23.6318
23.6593
23.8903
25.6041
23.5491
23.5806
23.522
23.7199
24.0856
23.9963
24.0977
24.0576
24.1209
23.9939
23.9347
23.9914
24.0323
24.3275
23.9455
23.9052
24.1708
24.2739
24.1174
23.9262
23.7724
24.1086
23.8526
23.8204
24.0286
24.0492
23.9233
23.8149
23.7908
23.6
23.4402
23.7366
23.6439
23.3796
23.331
23.2146
23.0181
23.9511
23.3768
23.2694
23.6062
23.0915
23.2043
22.9242
23.071
23.4038
23.1317
23.1341
23.1254
23.0579
23.3731
23.2587
23.3886
23.3186
23.3966
23.3005
23.4591
22.5777
23.019
22.5605
22.7253
23.0993
23.5778
23.3651
23.2577
23.3048
23.2421
23.2316
23.1885
23.3933
23.3568
23.3572
23.3522
23.4146
23.3025
23.3522
23.0916
23.1883
23.3053
23.2816
23.3926
23.3544
23.3698
23.4407
23.4561
23.226
23.4431
23.4168
22.9317
23.169
23.2692
23.2905
23.2294
23.4853
23.4401
23.5236
23.5055
23.4306
23.461
23.4553
23.3793
23.4983
23.3539
23.3222
23.3554
23.293
23.9119
23.7841
23.8597
23.7509
23.8479
23.7366
23.5939
23.7288
23.7551
23.9862
23.6587
23.6286
23.8174
23.9329
23.7841
23.8253
23.895
23.905
23.9154
23.7722
23.8192
23.7797
23.8515
23.7153
23.5543
23.22
23.2899
23.5128
23.5366
23.1678
23.3107
23.3123
23.077
23.5171
23.527
23.2996
23.3499
23.2999
23.2989
23.6985
23.4073
23.5117
23.8321
23.7605
23.7312
23.3299
23.1631
23.2761
23.3804
23.4313
23.1972
23.2498
23.3591
23.2996
23.3567
23.3101
23.3255
23.2643
23.3494
22.9238
23.1619
23.2545
23.1224
23.2011
23.4257
23.2276
23.3522
23.3287
23.4188
23.1971
23.4114
23.3761
23.33
23.3541
23.331
23.38
23.2841
23.355
23.2218
23.2437
23.3439
23.3656
23.428
23.2418
23.3279
23.3566
23.4164
23.1216
23.1636
23.2067
22.9805
23.0915
23.1042
23.1225
23.3341
23.2455
23.4809
23.3487
23.3002
23.3402
23.4086
23.3964
23.4366
23.4404
23.365
23.3983
23.3948
23.2966
23.3505
23.3047
23.2321
23.3156
23.1327
23.6089
23.4615
23.6265
23.527
23.6159
23.5439
23.4536
23.5227
23.5348
23.6945
23.4752
23.4741
23.6185
23.688
23.6351
23.9447
23.8777
23.658
23.7686
23.6379
23.5041
23.4992
23.6692
23.5053
23.5621
23.1978
23.3663
23.5092
23.5874
23.2684
23.4138
23.6609
23.687
23.647
23.7968
23.224
23.2349
23.3001
23.3375
23.8752
23.7673
23.7682
23.814
23.6621
23.6848
23.3897
23.2367
23.2372
23.3103
23.2976
23.2404
23.2033
23.2326
23.185
23.3312
23.1101
23.3566
23.1992
23.3542
23.3309
23.246
23.619
23.477
23.3169
23.4063
23.1835
23.3643
23.3473
23.3664
23.1379
23.2863
23.378
23.2573
23.3446
23.3268
23.4093
23.2688
23.3685
23.2437
23.298
23.3251
23.3745
23.4105
23.3037
23.3187
23.3997
23.4125
23.0853
23.0854
23.0826
23.0054
23.085
23.0906
23.0832
23.4777
23.1107
23.4123
23.3421
23.3082
23.3513
23.4027
23.4026
23.3694
23.3683
23.341
23.3433
23.3415
23.1586
23.2765
23.2199
23.1343
23.2486
23.1055
23.3535
23.3276
23.4831
23.3753
23.4533
23.4341
23.3249
23.4026
23.4396
23.5789
23.4163
23.4203
23.5565
23.6093
23.5937
23.6987
23.5454
23.3984
23.5441
23.3767
23.3375
23.327
23.4225
23.2874
23.6004
23.3284
23.4366
23.5312
23.6001
23.3779
23.443
23.5796
23.3826
23.69
23.609
23.5739
23.5518
23.6107
23.5419
23.6567
23.2412
23.1963
23.3239
23.8641
23.186
23.1357
23.3254
23.2112
23.3882
23.4227
23.4183
23.3849
23.5093
23.5863
23.3964
23.7392
23.6144
23.4389
23.3084
23.128
23.3363
23.311
23.2941
23.0854
23.2519
23.4487
23.3079
23.3742
23.4544
23.4938
23.3704
23.3998
23.3667
23.4207
23.3082
23.4305
23.4047
23.3934
23.2936
23.466
23.4099
23.074
23.107
23.0854
23.0743
23.1012
23.1387
23.1184
22.9833
23.3914
23.3873
23.3212
23.3231
23.3306
23.3131
23.3189
23.1404
23.2367
23.2406
23.1703
23.252
23.1582
23.3089
23.3257
23.3976
23.3071
23.3743
23.3868
23.3234
23.3751
23.4136
23.5368
23.4166
23.4245
23.5256
23.5836
23.5872
23.4465
23.4018
23.263
23.3372
23.2245
23.2777
23.2684
23.3097
23.1968
23.6
23.4144
23.456
23.5573
23.605
23.4725
23.5019
23.3353
23.4474
23.4699
23.6346
23.5338
23.4316
23.583
23.4898
23.2217
23.4103
23.3526
23.2176
22.8257
23.564
23.4572
23.5589
23.5162
23.4646
23.4173
23.0909
23.2245
23.1208
23.1764
23.4488
23.4734
23.2836
23.5028
23.4345
23.4237
23.2918
23.5246
23.4734
23.1861
23.1978
23.1957
23.2106
23.2686
23.2767
23.2784
23.2315
23.3991
23.4346
23.3205
23.3246
23.3581
23.3486
23.3552
23.2259
23.2746
23.3129
23.2841
23.3256
23.2866
23.3744
23.4584
23.4068
23.3706
23.399
23.4507
23.4487
23.443
23.455
23.5386
23.5059
23.5034
23.5757
23.604
23.6352
23.4565
23.5452
23.3197
23.3657
23.2405
23.4284
23.4135
23.4525
23.337
23.6225
23.5447
23.558
23.6371
23.6627
23.606
23.6125
23.5548
23.639
23.4658
23.5184
23.4732
23.5495
23.5274
23.5021
23.3387
23.2184
23.5785
23.4996
23.4819
23.5219
23.5113
23.5699
23.5518
23.5597
23.335
23.3
23.4454
23.4621
23.4222
23.5145
23.5738
23.3149
23.5557
23.5127
23.4881
23.3588
23.614
23.5719
23.3583
23.3567
23.3643
23.4215
23.4587
23.4466
23.4526
23.4458
23.4781
23.5384
23.3963
23.3968
23.4558
23.4589
23.4533
23.3809
23.3875
23.4365
23.4357
23.4411
23.4485
23.5606
23.657
23.5284
23.5506
23.5164
23.626
23.652
23.6102
23.5691
23.6294
23.6602
23.6584
23.7108
23.6859
23.7568
23.6181
23.6774
23.5151
23.5211
23.43
23.6383
23.6273
23.6
23.5389
23.7271
23.6849
23.6841
23.764
23.7949
23.7706
23.7701
23.7116
23.7794
23.6298
23.5792
23.557
23.6967
23.6661
23.6388
23.6364
23.6418
23.7597
23.7489
23.7629
23.6039
23.6566
23.7241
23.6889
23.7635
23.564
23.535
23.6315
23.6593
23.6447
23.6709
23.7699
23.4558
23.6947
23.6524
23.6567
23.5408
23.7876
23.7425
23.5611
23.5435
23.554
23.6304
23.6548
23.6381
23.65
23.6462
23.6183
23.7262
23.5387
23.5464
23.6267
23.6146
23.6244
23.5317
23.5262
23.602
23.6138
23.6156
23.6339
23.7563
23.8477
23.7245
23.7469
23.7114
23.8171
23.838
23.8117
23.756
23.8146
23.8348
23.8453
23.9074
23.8323
23.8931
23.7681
23.8234
23.7758
23.6971
23.6636
23.8742
23.8759
23.8117
23.7643
23.855
23.8431
23.8546
23.8802
23.909
23.9033
23.9272
23.8406
23.9009
23.7637
23.7783
23.7342
23.8307
23.8704
23.8251
23.8468
23.8734
23.9279
23.9297
23.9676
23.7977
23.8503
23.8856
23.8662
23.9216
23.7591
23.7443
23.8072
23.8523
23.8272
23.8701
23.9487
23.6834
23.8856
23.8326
23.87
23.7649
23.9788
23.9165
23.7423
23.7285
23.7378
23.8325
23.8292
23.8169
23.8225
23.8249
23.8133
23.9141
23.7295
23.7406
23.8461
23.82
23.8272
23.7236
23.7219
23.8052
23.8023
23.8109
23.8246
23.8804
23.8889
23.892
23.9064
23.8909
23.9368
23.95
23.937
23.9178
23.965
23.9505
23.9758
23.9939
23.9383
23.9677
23.8078
23.8419
23.8509
23.8705
23.7849
23.8986
23.7862
23.9008
23.7862
23.9534
23.9552
23.9763
23.9607
23.9834
23.9775
23.9973
23.9648
24.0059
23.8338
23.9152
23.863
23.8409
23.9377
23.8703
23.998
24.0386
24.0506
24.0499
24.0892
23.9069
23.9666
23.9572
23.9455
23.996
23.935
23.9065
23.9609
24.0022
23.9702
23.9996
24.0345
23.8505
24.0527
23.9961
24.0284
23.9295
24.1025
24.0632
23.9119
23.9036
23.909
24.0053
23.9889
23.9781
23.9852
23.9752
24.023
24.1491
23.9377
23.95
24.0548
24.0387
24.0443
23.9159
23.9174
23.9989
23.9941
24.0047
23.9978
23.9161
24.0068
23.9602
23.9917
23.9588
23.971
24.0429
23.9659
24.0053
23.9984
23.9823
23.9986
23.9836
23.9772
23.9752
23.9271
23.9792
23.8008
23.949
23.8592
23.945
23.9351
23.9653
23.964
23.9995
23.9687
24.0074
23.9606
24.0041
23.9486
24.0044
24.0278
24.0489
23.9083
23.9723
23.9253
23.9819
24.0195
23.9985
24.0903
24.1196
24.1061
24.1265
24.1434
23.9828
24.0346
24.0383
24.0342
24.0749
24.0545
24.0195
24.0663
24.0997
24.0599
24.0667
24.0911
24.0071
24.1501
24.1335
24.0797
24.0737
24.197
24.215
24.0419
24.0366
24.0401
24.1184
24.077
24.0778
24.0806
24.0747
24.2732
24.3883
24.136
24.1466
24.2486
24.2227
24.2393
24.0827
24.0883
24.1626
24.1595
24.1693
24.1375
24.1282
24.1305
23.9737
24.0757
23.9643
23.9725
24.0241
23.9661
23.9652
23.9606
23.9315
23.9244
23.9339
23.9743
23.9814
24.003
24.025
24.0347
23.9258
24.0269
23.9014
24.0335
23.912
24.1026
24.0048
23.9921
24.0109
23.9792
24.0043
24.0548
24.014
24.0666
24.0814
24.0414
24.0711
24.0571
24.0804
24.1121
24.1029
24.1546
24.1645
24.136
24.1758
24.1817
24.0736
24.1009
24.102
24.1037
24.109
24.1367
24.0961
24.1339
24.1642
24.1281
24.0988
24.108
24.125
24.2409
24.2844
24.0983
24.1501
24.2576
24.3142
24.1067
24.1161
24.1184
24.1695
24.1406
24.1459
24.1511
24.14
24.3965
24.3953
24.2964
24.3122
24.3892
24.3544
24.3673
24.2285
24.2336
24.2812
24.2905
24.2929
24.2234
24.0176
23.9266
23.9694
23.9152
23.9735
23.9607
23.886
23.9572
23.8914
23.9207
23.9126
23.8923
23.9379
23.9855
24.0037
24.0599
24.0738
24.0349
23.9867
24.1438
23.9891
23.9548
24.0309
24.114
23.9969
24.0898
24.0088
23.9843
23.9969
24.0808
23.9906
24.088
24.0816
24.103
24.1291
24.1299
24.0986
24.1251
24.1299
24.1842
24.1866
24.1397
24.1796
24.1801
24.1207
24.11
24.1065
24.1091
24.1005
24.1839
24.1549
24.1694
24.1932
24.1777
24.1181
24.1175
24.148
24.2444
24.3139
24.0848
24.1227
24.2233
24.2881
24.1726
24.1841
24.1846
24.2303
24.1977
24.2234
24.2175
24.1935
24.392
24.3788
24.3931
24.4085
24.4148
24.404
24.4212
24.342
24.3434
24.3635
24.39
24.3874
24.3149
23.8814
23.9129
23.9763
23.8954
23.9705
23.9993
23.9304
23.9963
23.9371
23.9803
24.004
24.0066
24.0524
24.0183
24.0713
24.0568
24.0136
23.9011
24.0334
24.0693
23.9971
23.9004
24.0259
24.0211
24.0055
23.9872
23.9698
24.0342
24.0313
23.8958
23.9582
24.0597
24.0339
24.0718
24.1034
24.1106
24.0477
24.0816
24.0848
24.1616
24.1632
24.1171
24.1359
24.1381
24.0903
24.0838
24.0719
24.0749
24.0619
24.1993
24.1957
24.182
24.2014
24.2137
24.1097
24.1074
24.1059
24.1923
24.2586
24.0653
24.0863
24.1608
24.2271
24.2242
24.2583
24.2468
24.2704
24.2571
24.2806
24.2818
24.2462
24.3603
24.3403
24.4162
24.4248
24.3923
24.4241
24.4218
24.4313
24.4167
24.4026
24.4529
24.4354
24.3749
23.9554
24.028
24.0314
24.0085
24.0386
24.0839
24.1403
24.0995
24.1202
24.1661
24.232
24.2509
24.3221
24.1781
24.3536
24.0143
24.0756
23.9168
24.0456
24.0049
24.125
23.9905
24.1017
24.0495
24.0959
23.8972
23.9705
24.2752
24.2141
23.9993
24.0394
24.0177
24.0388
24.038
24.0681
24.0667
24.0474
24.0633
24.0547
24.1112
24.1126
24.0716
24.0951
24.0981
24.0573
24.0364
24.0556
24.0472
24.0254
24.2003
24.2359
24.1884
24.1985
24.2447
24.0961
24.0838
24.0657
24.1372
24.1921
24.0451
24.0455
24.1189
24.1554
24.2859
24.306
24.3079
24.2981
24.3084
24.3256
24.3257
24.2931
24.3029
24.2686
24.3826
24.3923
24.3113
24.3288
24.3396
24.4551
24.43
24.3599
24.4149
24.3941
24.374
24.193
24.3989
24.2433
24.3193
24.2251
24.4964
24.5553
24.4493
24.4404
24.5393
24.6157
24.6361
24.7284
24.5429
24.7553
24.1584
24.2323
24.1663
24.193
24.1544
24.3622
24.3667
24.2776
24.2502
24.36
24.2188
24.1403
24.7194
24.5087
24.575
24.291
24.0937
24.1782
24.078
24.0725
24.0587
24.117
24.0846
24.0689
24.1014
24.0978
24.0331
24.1155
24.1128
24.0419
24.0236
24.0636
24.0398
24.0285
24.2003
24.2559
24.2063
24.207
24.2578
24.0828
24.0845
24.0371
24.1042
24.126
24.0483
24.0379
24.0967
24.1077
24.3318
24.3283
24.3383
24.3139
24.3423
24.3272
24.3425
24.319
24.2386
24.2078
24.2833
24.295
24.2515
24.2349
24.2587
24.3692
24.3519
24.285
24.3145
24.3084
24.3265
24.5849
24.7197
24.6962
24.7834
24.6331
24.9507
24.9315