/*--------------------------------*- C++ -*----------------------------------*\
| =========                 |                                                 |
| \\      /  F ield         | OpenFOAM: The Open Source CFD Toolbox           |
|  \\    /   O peration     | Version:  5.x                                   |
|   \\  /    A nd           | Web:      www.OpenFOAM.org                      |
|    \\/     M anipulation  |                                                 |
\*---------------------------------------------------------------------------*/
FoamFile
{
    version     2.0;
    format      ascii;
    class       surfaceScalarField;
    location    "2";
    object      phi;
}
// * * * * * * * * * * * * * * * * * * * * * * * * * * * * * * * * * * * * * //

dimensions      [0 3 -1 0 0 0 0];

internalField   nonuniform List<scalar> 
29271
(
-6.33814e-06
-2.22492e-06
1.3031e-06
7.2594e-06
-8.40296e-06
1.51344e-06
3.22673e-06
3.69945e-06
-3.76604e-05
4.97157e-06
-1.43161e-05
2.31379e-05
-1.26308e-05
3.64978e-05
-3.64895e-05
-2.48982e-06
-1.09124e-05
3.7636e-06
-1.14524e-05
5.75806e-05
-4.56638e-05
1.48589e-06
-7.56257e-06
-7.69609e-06
5.68512e-05
2.58535e-06
-3.44641e-05
-1.45771e-06
9.50034e-06
-7.46063e-06
-1.58447e-05
4.97268e-05
-3.79135e-05
1.9958e-05
-6.65566e-06
5.51872e-06
-3.06803e-05
4.97727e-05
-3.92519e-05
3.31084e-05
3.33315e-06
-5.68065e-06
-5.15418e-05
6.00328e-05
-3.81765e-05
1.71201e-05
4.72462e-06
-1.5789e-05
-2.59019e-05
5.80226e-05
-1.24688e-05
2.24016e-06
-5.78462e-06
9.33435e-06
6.71085e-06
-5.18772e-06
1.11133e-05
-1.00808e-05
4.16622e-06
-4.53999e-05
3.11113e-05
4.36455e-05
-2.25688e-05
-4.31884e-05
3.64002e-05
-4.05158e-05
3.74367e-05
7.27743e-06
-4.49284e-06
-2.14814e-05
2.17759e-05
-4.37958e-05
5.15883e-05
5.60172e-06
-1.23921e-05
-3.03523e-05
2.93502e-05
-5.2972e-05
3.17934e-05
2.72274e-05
-1.87522e-05
-4.01232e-05
5.28266e-05
-2.05662e-05
2.18379e-06
2.04325e-07
-1.08554e-06
1.42718e-05
4.99177e-06
-1.77819e-05
9.50029e-06
-7.20644e-06
-1.71815e-05
1.05037e-05
2.21658e-05
-1.51597e-05
4.01533e-06
1.55509e-05
-2.73263e-06
-1.11851e-05
9.51114e-06
-1.64933e-05
1.84094e-05
1.01479e-06
-1.10255e-06
-1.25798e-05
1.07514e-05
-2.65213e-05
-1.59738e-06
-9.7111e-06
1.44678e-05
2.26332e-05
7.28683e-07
-5.27202e-06
1.28818e-06
-9.55969e-07
4.9096e-06
-1.98049e-05
1.43791e-05
-1.10257e-05
1.08554e-05
5.63931e-06
-2.06541e-05
2.81214e-06
-7.76617e-07
1.15897e-06
1.23225e-05
5.13708e-06
-6.04317e-06
2.7432e-06
-1.4653e-06
4.62332e-06
-8.30183e-06
-6.08321e-07
-8.39247e-07
9.62991e-06
-3.56817e-06
2.75426e-06
-4.36455e-06
5.20843e-06
1.91643e-06
-1.56303e-06
-3.00245e-05
7.43605e-08
-2.80291e-06
3.23997e-05
6.44428e-06
-6.81334e-05
-5.75899e-06
2.35604e-06
-1.44472e-05
7.95392e-05
-5.16858e-05
4.80666e-06
1.19027e-06
-7.49309e-06
5.19189e-05
1.26299e-06
6.62214e-06
1.5672e-05
-5.83e-05
-4.96892e-06
-6.16741e-06
4.71422e-05
2.63893e-05
-1.36635e-05
0.000189423
-5.46491e-05
-7.72229e-05
-4.71571e-05
-3.68383e-05
3.77694e-06
5.31343e-06
1.02066e-05
8.90722e-06
-3.66748e-06
-4.37739e-06
-3.36718e-06
-3.07295e-06
1.37541e-05
-2.71759e-05
0.000241091
-7.66652e-05
-7.16631e-05
-4.00826e-05
-4.84182e-05
5.72861e-06
4.44186e-06
1.12076e-05
1.41709e-05
2.85629e-06
-9.82783e-06
0.000131448
-1.5047e-06
3.79859e-07
3.48228e-06
3.86865e-06
1.94311e-06
6.11155e-06
2.90597e-06
-7.81048e-05
-2.01837e-05
-1.81705e-05
-1.14501e-05
-1.2602e-05
8.03247e-07
-3.26873e-06
1.77379e-05
-4.10791e-06
4.78835e-06
-5.72751e-06
4.99027e-06
3.18153e-06
-1.41355e-05
4.6229e-06
-3.74065e-07
-1.97884e-06
8.68393e-06
3.21219e-06
-1.00942e-05
4.20444e-05
-1.35719e-05
-1.45393e-05
-8.23745e-06
-9.52422e-06
-1.11579e-06
-6.79452e-07
-6.68592e-07
-4.89289e-07
6.72034e-06
-8.47285e-06
5.98236e-05
-2.1408e-05
-3.61191e-05
-1.18542e-05
-1.26535e-05
2.34691e-06
-1.69353e-06
7.38164e-05
2.23584e-06
2.74597e-06
2.58088e-06
-1.43215e-06
-5.07867e-07
-7.21901e-07
-4.19549e-05
-1.01453e-05
-1.9327e-05
-1.10509e-05
-1.32436e-05
1.75056e-06
3.23909e-06
-2.6265e-06
1.32274e-05
-1.04076e-05
2.37765e-06
-5.6143e-07
-4.14968e-06
9.37906e-06
3.36197e-06
3.76152e-06
-2.29069e-06
2.41971e-05
-6.46965e-07
-9.30524e-07
-2.01832e-07
-4.74698e-07
-2.03465e-06
-1.17308e-06
-1.29663e-06
-7.96365e-06
-6.35943e-06
-7.73375e-06
-6.94687e-06
1.43759e-06
-2.04963e-06
2.85869e-05
1.66883e-06
2.37489e-06
1.88059e-06
-1.66306e-06
-1.25425e-06
-1.12294e-06
-8.33898e-06
-8.33919e-06
-9.14478e-06
-8.74731e-06
-1.10575e-05
1.64342e-06
-1.81982e-06
1.0978e-05
-5.65534e-06
1.43707e-06
-2.04487e-06
6.22304e-06
-8.58721e-06
-1.13999e-06
-3.40763e-07
7.95276e-06
-1.05296e-05
-7.18661e-07
2.41358e-06
-1.94437e-06
8.72941e-06
-4.30753e-06
1.92154e-06
-1.54832e-06
3.92323e-06
-1.1586e-05
2.41439e-06
-4.00321e-06
1.3178e-05
-8.89814e-06
3.62784e-06
-7.79481e-06
1.2918e-05
2.1118e-06
-3.93339e-06
-3.49979e-05
4.9835e-06
-8.88637e-06
4.07223e-05
1.16601e-05
-8.71339e-05
-1.41266e-06
1.48012e-06
-1.47416e-05
9.01479e-05
-5.04583e-05
1.02002e-06
-4.41111e-07
-3.4502e-06
5.30874e-05
2.42178e-07
8.76132e-06
-1.3995e-05
-3.75923e-05
1.05006e-05
-3.55915e-06
3.58845e-05
9.19597e-06
-1.05244e-05
0.000159402
1.48915e-05
1.12866e-05
8.92749e-06
8.06474e-06
-2.38769e-06
-3.01024e-06
-4.29723e-06
-2.12635e-06
1.75147e-05
-1.25646e-05
0.000178767
1.39117e-05
1.65851e-05
1.67216e-05
1.93521e-05
7.53373e-06
-1.53825e-06
0.000116037
4.05246e-06
3.96687e-06
3.47366e-06
1.84028e-06
2.45961e-06
8.55642e-06
2.58113e-06
-2.63327e-05
2.8439e-06
-6.0487e-06
3.68733e-05
-5.40261e-06
-4.17782e-06
2.44962e-07
9.2136e-06
-1.13865e-06
-7.02133e-06
1.33199e-06
1.77517e-06
-1.45159e-06
6.50441e-06
2.94134e-06
-1.0321e-05
4.62324e-05
-2.28793e-06
-2.02452e-06
-1.44351e-06
-1.57678e-06
9.49731e-06
-8.02814e-06
4.87311e-05
6.87721e-07
-1.29475e-06
8.37047e-05
9.50173e-08
1.01925e-06
3.98269e-07
-1.02127e-06
-1.02876e-06
-7.84649e-07
-1.4122e-05
2.21868e-06
1.43017e-06
-1.78639e-06
1.29473e-05
-8.33186e-06
8.17711e-07
2.15289e-07
-1.34478e-06
6.80672e-06
1.83693e-06
4.79789e-06
-1.23537e-06
1.65047e-05
-9.3248e-07
-8.06074e-07
-6.63775e-07
-7.03939e-07
-1.19838e-06
-9.39603e-07
-9.46855e-07
2.3688e-06
-1.48107e-06
1.69444e-05
2.03838e-06
6.74006e-06
2.73951e-06
-1.50251e-06
-1.24101e-06
-1.2499e-06
-1.29845e-05
1.02499e-06
-2.13525e-06
1.51688e-05
-7.17358e-06
4.95238e-07
-6.37806e-07
7.25662e-06
-7.00021e-06
-4.33717e-07
4.44676e-07
5.85178e-06
-7.36306e-06
-9.02439e-07
2.05399e-06
-9.78746e-07
5.70918e-06
-3.62575e-06
1.99399e-06
-1.6481e-06
3.27909e-06
-1.64415e-05
2.22221e-06
-6.14637e-06
2.03657e-05
-2.11629e-05
2.52619e-06
-5.95318e-06
2.45899e-05
3.08447e-06
3.53558e-06
-4.20959e-05
-2.89131e-06
-6.91461e-06
4.52818e-05
1.18021e-05
-8.46905e-05
1.9579e-06
4.53148e-06
-7.234e-06
7.36331e-05
-6.07877e-05
-4.94384e-06
9.36883e-06
7.39535e-08
6.7527e-05
-1.12382e-05
6.96289e-06
-1.53712e-05
-3.93843e-05
5.6678e-06
-7.50315e-06
4.9628e-05
1.64404e-05
-1.61403e-05
0.000195084
4.73073e-06
2.21545e-06
-2.17111e-06
-2.38671e-06
-5.86754e-06
-9.71181e-06
-9.52503e-06
-1.32659e-05
-5.04037e-06
-1.17647e-05
0.000190215
3.4705e-06
7.16933e-06
3.34281e-06
7.81491e-06
6.12423e-06
-9.46881e-06
0.000124003
-1.64196e-06
-1.87415e-06
-1.32499e-06
-6.88578e-06
8.55162e-07
3.17706e-06
-1.96754e-06
-4.57222e-05
-6.37549e-07
2.87346e-06
4.96111e-05
-1.16858e-05
-2.17279e-06
3.8228e-06
1.0196e-05
-1.35025e-06
-7.4006e-06
2.1761e-06
1.01264e-06
-1.77229e-06
7.3344e-06
4.44478e-06
-1.18207e-05
3.89675e-05
-1.02353e-06
-7.64987e-07
1.2999e-06
-1.0108e-06
1.8353e-05
-4.77007e-06
2.78283e-05
3.16338e-06
-5.63936e-06
0.000107057
2.68601e-06
9.77919e-07
3.47868e-08
-2.96308e-06
-6.77821e-06
-5.94952e-06
-1.28099e-05
9.36553e-07
2.81957e-06
-1.83259e-06
1.40497e-05
-5.40497e-06
5.54451e-07
2.57761e-07
-4.7519e-07
3.86941e-06
1.19854e-06
3.47027e-06
-9.03006e-07
7.0231e-06
-1.00347e-06
-8.56351e-07
-5.22298e-07
-5.10045e-07
-9.58938e-07
-4.37288e-07
-6.18031e-07
1.05109e-05
-1.13587e-06
-8.0752e-06
3.34127e-06
9.2058e-06
4.55354e-06
-1.07045e-06
-9.62954e-07
-7.22462e-07
-2.07692e-05
7.24248e-06
-3.99207e-06
2.23903e-05
-7.0491e-06
3.89316e-07
-5.03881e-07
7.15186e-06
-4.54698e-06
-3.4095e-07
4.23376e-07
3.61228e-06
-4.29832e-06
-7.05882e-07
1.94612e-06
-8.1984e-07
2.74205e-06
-2.73719e-06
1.98658e-06
-2.08715e-06
2.76362e-06
-2.13779e-05
1.17566e-06
-1.40115e-06
2.16034e-05
-2.42698e-05
5.72227e-06
-5.87631e-06
2.44246e-05
1.6031e-06
-6.78788e-07
-4.56754e-05
-6.68131e-07
-5.09838e-07
4.5929e-05
3.91598e-06
-6.96665e-05
7.00416e-08
3.26969e-06
-5.50889e-06
6.79196e-05
-7.27584e-05
-4.72282e-06
8.40672e-06
6.38832e-07
7.62034e-05
-7.76769e-06
2.76803e-06
-9.7541e-07
-4.73598e-05
3.85438e-06
-3.07055e-07
4.20199e-05
2.2015e-05
-6.45062e-06
0.000195513
-6.46105e-07
-2.12212e-06
1.39104e-06
1.54477e-06
-6.53752e-06
-3.39825e-06
-5.74948e-06
-4.75731e-07
-1.94704e-06
-6.49121e-06
0.000193684
3.36242e-06
7.90094e-06
5.43409e-06
1.02863e-05
5.36468e-06
-1.11486e-05
0.000124778
-2.6949e-07
-4.16063e-06
2.81588e-06
-2.62232e-06
-5.89395e-07
6.84185e-06
1.04614e-06
-5.06517e-05
-1.72578e-07
3.72293e-06
5.24678e-05
-8.30735e-06
3.45262e-06
-4.21737e-06
9.07209e-06
6.99631e-06
-6.75214e-06
3.45333e-07
-4.13895e-06
1.12997e-06
2.41948e-06
4.3067e-09
-1.06475e-06
2.69219e-05
2.14591e-06
1.33045e-06
2.51065e-06
6.68358e-07
9.33964e-06
-8.84929e-07
1.28867e-05
3.24319e-06
-9.35565e-07
8.42575e-05
2.8508e-06
7.35486e-06
8.31728e-06
-2.25127e-06
1.30365e-06
1.1075e-06
-1.52159e-05
-4.529e-07
-2.64424e-07
-1.47564e-06
2.0652e-05
-3.38252e-06
1.55704e-06
-2.59669e-07
4.10149e-07
3.56519e-06
-1.89018e-06
4.09917e-06
1.29639e-07
7.13927e-06
-2.64127e-07
-1.53177e-07
-1.52261e-06
-8.59699e-07
-3.56644e-07
-9.81716e-07
-1.27175e-06
5.46945e-06
-4.88254e-08
-1.56282e-05
2.01317e-06
2.34795e-06
1.03415e-06
1.94605e-08
-1.43426e-07
7.52853e-08
-1.58092e-05
9.97169e-06
7.18006e-07
9.65339e-06
-8.29343e-06
2.90309e-06
-5.74856e-06
1.11403e-05
-3.11154e-06
-1.03056e-07
1.05499e-07
3.24813e-06
-1.17089e-06
-3.16768e-07
1.29275e-06
-4.53714e-07
5.99793e-07
-4.19084e-06
2.94107e-08
-1.2735e-06
5.43748e-06
-2.16887e-05
5.48472e-07
-7.09879e-07
2.18501e-05
-2.43537e-05
5.03622e-06
-5.01219e-06
2.43296e-05
1.08233e-06
-1.35519e-06
-4.68119e-05
7.73153e-07
-1.27808e-06
4.75897e-05
2.87972e-06
-6.75189e-05
-1.1521e-06
3.19504e-06
-4.43669e-06
6.70329e-05
-8.01485e-05
-3.74282e-06
8.50523e-06
-6.373e-07
8.31227e-05
-7.09924e-06
9.67995e-07
-5.31455e-06
-3.9426e-05
4.40502e-06
2.25393e-06
3.71136e-05
2.62718e-05
-5.8559e-06
0.000176233
1.97056e-06
1.04523e-06
3.08218e-06
3.43325e-06
-5.06405e-06
-1.16865e-06
-3.05974e-06
-1.3747e-06
7.35698e-06
-2.01116e-06
0.000191043
3.23949e-06
7.03349e-06
4.85606e-06
8.43821e-06
4.1506e-06
-3.31318e-06
0.000134202
1.49584e-06
-2.60348e-06
2.81673e-06
-4.09669e-06
-5.64989e-07
1.26312e-06
-1.21491e-06
-5.34281e-05
-3.65288e-06
8.73722e-06
-3.52671e-06
5.6021e-05
-8.27528e-09
-6.15295e-09
1.88492e-08
-8.23373e-09
-1.11065e-05
-5.92516e-07
-9.32448e-07
1.26322e-05
2.61388e-06
-2.00687e-06
-2.63062e-06
-1.47102e-06
1.3573e-06
2.13732e-06
1.55039e-05
-1.61467e-06
1.6842e-05
-1.15143e-06
-2.79736e-06
-2.47233e-06
-3.2441e-06
7.49384e-06
-3.40049e-06
2.22861e-05
3.69692e-06
-4.27898e-08
7.0069e-05
5.02194e-06
3.09329e-06
3.49825e-06
1.63388e-06
4.52072e-07
1.0156e-06
-2.8826e-05
-3.94607e-07
3.88096e-06
2.37267e-06
2.66639e-05
8.60653e-09
-1.28753e-07
-6.6301e-09
-1.33599e-08
1.35537e-07
-1.13194e-06
-6.42135e-09
6.43323e-07
-2.84373e-06
1.22538e-06
2.11338e-06
1.44358e-05
-6.82121e-07
-3.21017e-06
-1.543e-06
-8.27927e-07
-1.97798e-06
-1.32763e-06
1.02532e-07
-1.49935e-07
7.05072e-07
2.5485e-06
-1.30662e-06
-8.49174e-06
1.41216e-06
2.51128e-06
1.05794e-06
-6.47614e-07
-1.15385e-06
-5.22966e-07
-5.52989e-06
3.79193e-06
1.96567e-07
4.04711e-06
-1.62367e-05
2.12376e-06
-4.60801e-06
1.87213e-05
-2.09431e-06
1.24288e-06
-1.81489e-07
3.49912e-07
-6.27473e-07
-1.2315e-06
1.24207e-06
-3.4791e-07
-3.41807e-07
-6.05404e-06
-1.11704e-06
8.76424e-07
6.28954e-06
-2.21999e-05
1.38313e-07
-7.42242e-07
2.28038e-05
-2.39705e-05
3.82998e-06
-2.9201e-06
2.30604e-05
1.02481e-06
-1.18053e-06
-4.87401e-05
9.90339e-07
-1.77808e-06
4.96836e-05
2.67651e-06
-6.70461e-05
-1.30617e-06
2.83797e-06
-3.98963e-06
6.68274e-05
-8.56549e-05
-3.57545e-06
9.63535e-06
-6.56723e-07
8.73469e-05
-7.0952e-06
3.57668e-07
-2.38062e-06
-3.48514e-05
2.68229e-06
1.47764e-06
3.27144e-05
3.36511e-05
-1.35703e-05
0.000158599
2.85766e-06
2.46572e-06
3.34132e-06
4.61821e-06
-3.92929e-06
-4.20819e-06
-3.91744e-06
-3.67469e-06
1.21168e-05
-5.51921e-06
0.000199217
2.75894e-06
5.6969e-06
3.88929e-06
6.53438e-06
9.92592e-07
3.09036e-06
0.000151541
8.70526e-07
-4.45235e-06
1.98987e-06
-4.87593e-06
-1.94627e-06
8.94777e-07
-1.78545e-06
-6.26611e-05
6.08766e-06
7.42567e-06
2.10635e-06
4.8034e-05
-6.35354e-08
4.98044e-07
2.59672e-06
-4.44409e-06
-5.73758e-07
1.98662e-06
-1.34194e-05
-3.08183e-06
3.01377e-06
1.34875e-05
-1.63138e-06
-5.02033e-06
-1.38693e-06
2.06954e-06
-2.44421e-06
8.41331e-06
2.26554e-05
-1.64065e-05
1.23805e-05
-3.70484e-06
-3.89698e-06
-3.85704e-06
-3.89889e-06
1.48542e-05
-1.03677e-05
3.49357e-05
1.30623e-06
-6.91004e-07
8.25132e-05
2.29541e-06
5.18906e-07
1.63835e-06
1.05888e-06
-1.13707e-06
5.10639e-07
-2.97608e-05
-9.34385e-07
1.13626e-07
4.7226e-07
3.14155e-05
3.19327e-07
-1.72976e-06
1.40182e-06
-2.09354e-06
3.6346e-06
-1.53244e-06
1.83088e-06
-1.30469e-06
2.78219e-06
-2.17243e-06
-4.70273e-06
3.56678e-06
1.87259e-05
-1.4221e-06
-2.23377e-05
-2.99883e-06
-2.16721e-06
-3.41883e-06
-2.6344e-06
-9.22001e-07
-1.13536e-06
-1.30614e-06
3.23957e-06
-2.46265e-06
-2.07039e-06
1.54507e-06
3.03013e-06
1.58568e-06
-1.26122e-06
-2.55519e-06
-1.18449e-06
-4.38149e-06
2.08427e-06
-1.06151e-06
5.9073e-06
-1.71481e-05
-5.1319e-06
-2.13547e-06
2.30573e-06
2.21087e-05
-2.59984e-06
7.12583e-07
-1.05765e-07
1.99197e-06
7.3533e-07
9.4146e-07
-4.2155e-07
-2.67727e-06
1.6996e-07
-2.02251e-06
2.15893e-06
-1.18823e-06
-1.58081e-06
-6.25735e-06
-6.77402e-07
3.04678e-07
6.63028e-06
-2.34485e-05
-6.50414e-07
1.19302e-07
2.39797e-05
-2.23579e-05
3.84297e-06
-3.39566e-06
2.19072e-05
2.92132e-07
-1.18806e-06
-5.07971e-05
1.12603e-06
-1.40886e-06
5.19758e-05
1.50273e-06
-6.68026e-05
-1.71975e-06
2.78022e-06
-2.18698e-06
6.64263e-05
-8.83898e-05
-3.6307e-06
9.40028e-06
5.34003e-07
8.8424e-05
-6.33775e-06
7.14792e-07
-3.59824e-06
-3.12446e-05
3.49477e-06
6.83712e-07
2.99496e-05
3.87585e-05
-2.25927e-05
0.000145533
3.53118e-06
4.25955e-06
3.88358e-06
5.74197e-06
-5.10739e-06
-5.51571e-06
-4.97107e-06
-4.9225e-06
1.60216e-05
-6.50746e-06
0.000216759
1.39774e-06
3.53681e-06
2.63752e-06
4.12973e-06
1.0889e-06
1.10601e-05
0.00016809
-4.96245e-07
-5.8583e-06
2.88807e-07
-6.03036e-06
-1.32129e-06
1.83373e-06
-1.09276e-06
-4.732e-05
-4.16849e-06
1.06421e-06
3.749e-06
4.77641e-05
-2.99601e-06
1.73436e-06
5.07161e-07
-2.15792e-06
-2.30512e-06
5.21753e-06
-1.3287e-05
-3.76049e-06
4.40372e-06
1.26436e-05
-4.37434e-06
-1.09775e-05
-1.91764e-06
3.69262e-06
2.21017e-06
1.13667e-05
1.89335e-05
-2.43636e-05
1.19141e-05
-4.10296e-06
-4.28286e-06
-3.61405e-06
-4.6963e-06
7.76857e-06
-1.7871e-05
5.74641e-05
-8.93724e-07
-3.89032e-07
0.000104181
-5.49917e-07
-1.6408e-06
-8.76617e-07
9.64475e-07
-2.81417e-07
8.275e-07
-3.38953e-05
-1.7139e-06
-1.13424e-06
8.86415e-07
3.49633e-05
4.45658e-06
1.01255e-06
7.71472e-07
-4.12979e-07
2.10664e-06
-7.93426e-06
6.24832e-06
-3.42023e-06
4.56444e-06
2.22091e-06
-7.05081e-06
-2.56262e-06
1.38774e-05
-1.65701e-06
-3.51614e-05
-4.41781e-06
-3.72654e-06
-5.20695e-06
-4.19116e-06
-2.23503e-06
-1.68371e-06
-2.29906e-06
1.34326e-06
-3.13374e-06
-3.12281e-08
5.53114e-07
6.54728e-07
3.76107e-07
-1.54175e-06
-3.02315e-06
-1.26133e-06
-8.48955e-06
-1.1532e-07
-1.43474e-06
1.09938e-05
-2.36205e-05
-2.85651e-07
1.55378e-06
-7.10237e-07
2.30623e-05
-3.11182e-06
-1.51362e-06
-5.34468e-07
1.58151e-06
3.57839e-06
4.44281e-06
-5.92019e-07
1.05924e-06
-6.56605e-06
2.37008e-06
-1.91855e-06
1.62964e-06
-1.44941e-06
-3.76549e-06
-6.6407e-06
-2.10192e-07
4.54044e-07
6.39546e-06
-2.43503e-05
-8.97078e-07
7.18984e-07
2.45284e-05
-2.17127e-05
2.60818e-06
-2.89994e-06
2.20047e-05
-4.19188e-07
-5.172e-07
-5.29253e-05
9.59465e-07
-6.89694e-07
5.35919e-05
6.0027e-07
-6.62449e-05
-1.83019e-06
2.48431e-06
-8.99285e-07
6.58898e-05
-8.77919e-05
-3.22702e-06
7.77963e-06
1.54872e-06
8.66139e-05
-4.92334e-06
1.44679e-06
-2.74315e-06
-2.93423e-05
2.56137e-06
-1.36185e-06
2.94391e-05
3.46961e-05
-2.47829e-05
0.000139083
3.25588e-06
4.17537e-06
2.9804e-06
4.98063e-06
-4.45627e-06
-5.24854e-06
-4.368e-06
-4.7827e-06
1.64008e-05
-1.18215e-06
0.000231387
2.63998e-07
1.05013e-06
1.53453e-06
2.00151e-06
1.97276e-06
1.87306e-05
0.00018204
-1.79148e-06
-5.16334e-06
-9.10248e-07
-6.76617e-06
-9.27775e-07
-1.19043e-06
-1.50293e-06
-6.09985e-05
-1.63614e-07
6.40248e-06
3.28836e-06
5.34441e-05
-1.1399e-05
-6.13483e-06
3.29756e-06
7.24795e-06
6.98837e-06
-1.03919e-05
-1.37314e-06
4.99157e-06
6.77351e-06
-3.76973e-06
-1.00279e-05
2.90437e-07
3.14925e-06
2.96675e-06
7.39119e-06
4.17507e-06
-2.69329e-05
2.11997e-05
-2.57917e-06
-4.52255e-06
-1.30993e-06
-2.89897e-06
-8.39983e-06
-1.79578e-05
8.68147e-05
-3.79817e-06
1.01283e-06
0.000124212
-2.55472e-06
-4.73805e-06
-4.74181e-06
2.12105e-06
1.63123e-06
1.36804e-06
-3.61541e-05
-2.19742e-06
-2.14999e-06
2.74404e-06
3.39593e-05
6.88313e-06
-3.35322e-06
5.00199e-07
8.26706e-07
-6.63855e-07
-4.19296e-06
7.31172e-06
-6.04754e-06
6.43555e-06
5.49871e-06
-8.03213e-06
-5.16631e-06
7.74409e-06
-2.05748e-06
-4.08989e-05
-5.12343e-06
-4.73321e-06
-5.08224e-06
-4.85085e-06
-2.52793e-06
-2.04873e-06
-2.51569e-06
-6.74481e-07
-2.80576e-06
2.02653e-06
-6.86669e-07
-1.04118e-06
-9.01327e-07
-1.52732e-06
-2.90081e-06
-1.73389e-06
-1.4318e-05
-1.99703e-06
-5.42281e-07
1.71957e-05
-1.89582e-05
-5.09835e-06
2.8472e-06
2.12093e-05
7.84873e-06
-2.87574e-06
1.37095e-06
-8.40054e-06
4.827e-06
-4.83452e-07
-7.60636e-07
-4.32691e-07
-5.95598e-06
-5.78962e-06
-6.15667e-07
1.48114e-06
4.92691e-06
-2.45537e-05
-7.68431e-07
8.40379e-07
2.44818e-05
-2.23222e-05
1.39979e-06
-1.1185e-06
2.20413e-05
-1.39537e-06
3.3878e-07
-5.38904e-05
2.49651e-07
6.66678e-07
5.40306e-05
3.39682e-07
-6.5488e-05
-1.30359e-06
1.95518e-06
-2.06749e-07
6.47035e-05
-8.53141e-05
-2.5924e-06
6.49256e-06
1.37325e-06
8.36085e-05
-3.56783e-06
6.36938e-07
-1.82663e-06
-2.98343e-05
1.90814e-06
-1.51058e-06
3.06264e-05
2.46517e-05
-1.40656e-05
0.00013564
1.53695e-06
2.5733e-06
5.23774e-07
2.82468e-06
-3.5741e-06
-3.715e-06
-3.49786e-06
-3.81395e-06
1.04165e-05
7.4645e-06
0.000239301
-1.00532e-06
-8.49823e-07
2.40545e-07
4.71245e-07
-2.32006e-06
2.13007e-05
0.000194668
-2.63771e-06
-6.73552e-06
-1.18635e-06
-5.8317e-06
-2.47543e-06
-4.86129e-07
-1.83995e-06
-4.8579e-05
-8.90593e-06
5.18115e-06
4.99838e-05
-3.6044e-06
-1.3095e-06
3.26264e-06
1.65126e-06
-1.3714e-06
-4.7255e-06
3.02674e-07
-5.8971e-07
2.75117e-06
3.63277e-06
-1.42943e-05
-1.73492e-05
3.59753e-05
1.89426e-06
-1.11731e-06
2.12311e-06
-9.77541e-08
-2.15686e-05
-1.00505e-05
0.000111604
-6.10809e-06
1.8948e-06
0.000137289
-5.98046e-06
-5.69607e-06
-4.66394e-06
1.76242e-06
3.00655e-06
2.43952e-06
-4.07804e-05
-2.56454e-06
-5.69891e-06
4.12801e-06
3.88077e-05
8.47248e-06
-7.11855e-06
6.23e-06
6.53111e-06
-8.75848e-06
-5.35656e-06
-4.41038e-09
-1.50378e-06
-3.52064e-05
-4.04673e-06
-4.27293e-06
-4.03464e-06
-4.38314e-06
-1.76938e-06
-1.40944e-06
-1.61719e-06
-2.42988e-06
-2.49318e-06
9.1779e-06
-1.84204e-06
-2.54319e-06
-2.0957e-06
-1.38439e-06
-2.46422e-06
-1.95367e-06
-2.06871e-05
-2.71377e-06
3.28962e-07
2.25369e-05
-2.06197e-05
6.03285e-07
3.1636e-06
1.68529e-05
8.98204e-06
-2.61795e-06
1.33125e-06
-9.19928e-06
7.5554e-06
1.84436e-07
-1.51707e-06
6.10719e-08
-8.77702e-06
-4.04084e-06
-7.41384e-07
1.62405e-06
3.15963e-06
-2.435e-05
-6.10574e-07
7.65517e-07
2.4195e-05
-2.13651e-05
8.09918e-07
-9.10368e-08
2.06463e-05
-2.19695e-06
6.65168e-07
-5.3526e-05
-4.60335e-07
2.57325e-06
5.29448e-05
2.23818e-07
-6.34774e-05
-2.26985e-07
1.10298e-06
6.14201e-07
6.17634e-05
-8.17802e-05
-2.12763e-06
5.44472e-06
1.35963e-06
7.97487e-05
-2.64527e-06
-2.29303e-06
1.96089e-07
-3.07786e-05
4.01715e-07
2.05026e-06
3.04236e-05
1.2139e-05
2.19623e-06
0.000136504
-1.77649e-06
-3.26963e-07
-3.33871e-06
-9.66097e-07
-2.10067e-06
-2.30208e-06
-2.16267e-06
-2.22584e-06
4.56741e-06
1.43554e-05
0.00023909
-2.12785e-06
-2.18206e-06
-1.24989e-06
-1.01378e-06
1.06269e-06
2.16004e-05
0.000188916
-2.92404e-06
-5.40068e-06
-2.02553e-06
-4.87354e-06
2.19204e-07
1.42439e-06
1.2362e-06
-4.97302e-05
-4.47905e-06
5.42762e-06
4.98443e-05
-4.55874e-07
-2.03277e-06
2.47781e-06
1.08379e-08
-9.09318e-08
-3.37336e-06
-2.23149e-06
-3.22945e-06
3.77985e-06
5.14538e-06
-2.6476e-05
-3.08355e-06
4.97061e-05
5.1053e-06
3.99446e-06
5.01369e-06
3.9116e-06
-2.56158e-05
1.30611e-06
0.000123793
-4.43115e-06
2.32202e-06
0.000137999
-3.66396e-06
-3.91866e-06
-3.38028e-06
2.48344e-06
3.30181e-06
2.5617e-06
-3.54852e-05
-2.62143e-06
-3.04384e-06
3.77364e-06
3.29457e-05
8.75018e-06
-7.03147e-06
4.94676e-06
7.14744e-06
-7.96708e-06
-5.84583e-06
-6.36822e-06
-2.52195e-07
-1.86165e-05
-2.28713e-06
-3.51126e-06
-2.76649e-06
-3.69128e-06
-2.19677e-07
-2.90615e-07
-2.8662e-07
-3.83162e-06
-9.83903e-07
2.13859e-05
-2.6029e-06
-3.40498e-06
-2.61458e-06
-1.03392e-06
-9.69229e-07
-1.82899e-06
-2.53239e-05
-3.0304e-06
8.73576e-07
2.59712e-05
-1.5876e-05
-1.10237e-06
1.76066e-06
1.52177e-05
9.56729e-06
-2.97758e-06
2.07948e-06
-8.92139e-06
9.86968e-06
2.00662e-08
-1.02737e-06
-5.75544e-08
-9.78873e-06
-2.22552e-06
-3.94592e-07
7.05862e-07
1.91614e-06
-2.4022e-05
-5.50063e-07
7.92763e-07
2.37793e-05
-1.95409e-05
8.50831e-07
4.54389e-07
1.8236e-05
-2.30891e-06
7.75834e-07
-5.17973e-05
-1.47002e-06
4.00527e-06
5.07952e-05
-1.97132e-07
-5.95513e-05
9.46401e-07
9.8006e-08
1.97823e-06
5.67258e-05
-7.76251e-05
-1.92078e-06
4.10128e-06
1.75064e-06
7.54505e-05
-1.75655e-06
-4.49129e-06
4.00852e-07
-2.95095e-05
-4.49265e-07
5.64906e-06
2.84002e-05
2.30333e-06
1.41e-05
0.000142274
-5.11307e-06
-4.27583e-06
-5.87761e-06
-4.16342e-06
-8.9763e-07
-9.56058e-07
-5.9144e-07
-2.9832e-07
1.84122e-06
2.28712e-05
0.000230616
-4.21461e-06
-4.23349e-06
-2.83152e-06
-2.65555e-06
1.60066e-06
2.24199e-05
0.000176209
-3.64193e-06
-4.5003e-06
-2.29223e-06
-3.94108e-06
1.43552e-06
1.61557e-06
1.85232e-06
-5.00348e-05
-3.18721e-06
4.69781e-06
5.01249e-05
1.50853e-07
-2.63346e-06
2.53008e-06
-4.74802e-08
1.01833e-06
-6.97834e-06
-4.87387e-06
-4.47935e-06
5.9454e-06
9.36783e-06
-3.12895e-05
7.58648e-06
6.17697e-05
6.5389e-06
5.9073e-06
7.07347e-06
6.21974e-06
-2.5071e-05
9.84468e-06
0.000130601
-3.25718e-06
2.19512e-06
0.000136921
-2.8262e-06
-3.07783e-06
-2.80122e-06
2.46284e-06
3.19825e-06
2.53341e-06
-3.11128e-05
-2.87385e-06
-2.45504e-06
3.18086e-06
3.00037e-05
6.63638e-06
-6.18514e-06
4.02229e-06
6.58421e-06
-3.74139e-06
-7.31636e-06
-1.01383e-05
1.10667e-06
3.28839e-06
-1.26059e-06
-2.60555e-06
-1.78574e-06
-3.09466e-06
1.36294e-06
8.21998e-07
1.27486e-06
-4.27291e-06
5.20082e-07
3.45991e-05
-2.77567e-06
-3.52353e-06
-2.65629e-06
-2.63785e-07
3.9702e-08
-5.74387e-07
-2.76436e-05
-2.91301e-06
1.13912e-06
2.73397e-05
-1.46045e-05
-1.12016e-06
1.50145e-06
1.42232e-05
8.56401e-06
-2.70332e-06
2.30646e-06
-7.06027e-06
9.75592e-06
-5.3169e-07
-2.96121e-07
-1.38494e-07
-8.26953e-06
-1.89488e-06
-4.30821e-07
1.90024e-07
2.13589e-06
-2.35253e-05
-6.41682e-07
8.61137e-07
2.33059e-05
-1.67974e-05
9.58435e-07
1.32019e-06
1.45187e-05
-1.91782e-06
9.8346e-07
-4.9566e-05
-2.45913e-06
4.48485e-06
4.84746e-05
-5.02178e-07
-5.38262e-05
1.66716e-06
-5.99683e-07
1.83372e-06
5.14272e-05
-7.36851e-05
-1.75848e-06
2.87954e-06
1.68609e-06
7.21148e-05
-1.2368e-06
-5.91747e-06
1.60028e-06
-2.69628e-05
-9.87809e-07
7.22348e-06
2.50443e-05
-9.22341e-06
1.99552e-05
0.000151101
-6.24744e-06
-5.72083e-06
-6.04455e-06
-4.65642e-06
6.92517e-07
5.28086e-07
7.11644e-07
1.17791e-06
-9.43652e-07
2.6627e-05
0.000211711
-4.60587e-06
-4.67432e-06
-3.28148e-06
-3.43978e-06
1.75841e-06
2.0017e-05
0.000158817
-3.1863e-06
-3.28105e-06
-2.10025e-06
-2.75063e-06
1.90464e-06
1.8771e-06
2.20961e-06
-4.99739e-05
-1.91265e-06
4.21438e-06
4.94305e-05
-5.16651e-07
-3.46871e-06
2.78099e-06
1.20437e-06
1.04685e-06
-1.16114e-05
-6.50223e-06
-4.58614e-06
7.98875e-06
1.36642e-05
-3.28856e-05
1.57794e-05
7.27976e-05
6.91052e-06
5.82042e-06
7.12684e-06
6.17564e-06
-2.17946e-05
1.48954e-05
0.000131242
-2.57123e-06
1.99224e-06
0.000135135
-2.4037e-06
-2.46566e-06
-2.31974e-06
2.36735e-06
2.93506e-06
2.47342e-06
-2.92144e-05
-3.24024e-06
-2.59274e-06
3.42279e-06
2.90533e-05
1.24182e-06
-4.61262e-06
3.96387e-06
6.31148e-06
2.11071e-06
-9.01526e-06
-1.00476e-05
2.30259e-06
2.63091e-05
-1.48703e-06
-2.21913e-06
-1.8084e-06
-2.18397e-06
3.14514e-06
2.27831e-06
2.77883e-06
-4.09316e-06
1.65551e-06
4.69543e-05
-2.43045e-06
-3.19851e-06
-2.32418e-06
8.9104e-07
1.27792e-06
7.14402e-07
-2.8439e-05
-2.5418e-06
1.08275e-06
2.77971e-05
-1.39884e-05
-1.27676e-06
1.50715e-06
1.3758e-05
5.74327e-06
-2.6137e-06
2.76268e-06
-3.58909e-06
6.75928e-06
-1.37412e-06
2.9545e-07
2.46293e-08
-4.04973e-06
-2.19166e-06
1.02253e-07
-3.59548e-07
2.44937e-06
-2.31003e-05
-6.46262e-07
8.27208e-07
2.29194e-05
-1.13029e-05
3.45588e-06
-1.06117e-06
8.90822e-06
-1.43689e-06
8.81269e-08
-4.79528e-05
-2.35084e-06
3.85745e-06
4.77949e-05
-2.30906e-07
-4.92414e-05
2.38445e-06
-9.40404e-07
1.04703e-06
4.69813e-05
-7.09682e-05
-1.88739e-06
2.24904e-06
1.93672e-06
7.00606e-05
-1.39074e-06
-2.67465e-06
1.26717e-07
-2.17277e-05
1.12104e-06
5.5277e-06
1.76269e-05
-1.80199e-05
2.05826e-05
0.000157961
-5.1784e-06
-4.79463e-06
-4.46135e-06
-2.89044e-06
1.56351e-06
1.8213e-06
1.46805e-06
3.04954e-06
-5.19704e-06
1.99184e-05
0.000187902
-3.35132e-06
-3.69617e-06
-7.85035e-07
-1.09973e-06
1.89098e-06
1.19771e-05
0.000141013
-2.55186e-06
-1.65163e-06
-1.37812e-06
-1.26155e-06
1.76474e-06
1.95644e-06
1.86111e-06
-4.84857e-05
-7.14613e-07
3.79931e-06
4.7292e-05
-1.60517e-06
-2.78266e-06
2.57512e-06
1.8127e-06
-2.43213e-07
-1.52695e-05
-6.58879e-06
-1.98254e-06
8.69283e-06
1.53912e-05
-3.10553e-05
2.25863e-05
8.52195e-05
5.75704e-06
3.53875e-06
5.3048e-06
2.02912e-06
-2.02283e-05
1.61269e-05
0.000124206
-2.36952e-06
1.32853e-06
0.000128788
-2.21887e-06
-2.28849e-06
-2.17925e-06
1.85787e-06
2.18782e-06
1.77758e-06
-2.90781e-05
-3.16045e-06
-2.71166e-06
3.44527e-06
2.91354e-05
-4.99627e-06
-2.38188e-06
3.85352e-06
3.88532e-06
8.31378e-06
-8.67448e-06
-6.10523e-06
3.06684e-06
4.93944e-05
-2.56158e-06
-1.96706e-06
-2.54041e-06
-1.55116e-06
4.01742e-06
3.34219e-06
3.79999e-06
-3.51341e-06
1.97051e-06
5.97477e-05
-1.89652e-06
-2.69816e-06
-1.81508e-06
1.64601e-06
1.96526e-06
1.56968e-06
-2.86118e-05
-2.13447e-06
9.06707e-07
2.76546e-05
-1.34116e-05
-1.12902e-06
1.50642e-06
1.30342e-05
1.44535e-06
-2.51898e-06
3.10538e-06
1.03697e-06
1.65637e-06
-1.81581e-06
9.91053e-07
-2.97615e-07
1.43651e-06
-2.74561e-06
3.1781e-07
-8.60393e-07
3.28975e-06
-2.2831e-05
-5.04194e-07
4.75937e-07
2.28593e-05
-7.52844e-06
-6.31623e-08
8.68087e-07
6.72352e-06
-9.51054e-07
-2.88929e-07
-4.81733e-05
-2.2755e-06
2.80051e-06
4.88883e-05
6.6535e-07
-4.51452e-05
2.50372e-06
-4.90043e-07
-1.74346e-06
4.42096e-05
-6.98581e-05
-1.82746e-06
2.02934e-06
1.8645e-06
6.98276e-05
-2.03591e-06
-1.58126e-06
2.28438e-06
-1.44696e-05
-5.82547e-07
2.53539e-06
1.18136e-05
-1.43542e-05
2.36253e-05
0.000157555
-3.89341e-06
-2.18358e-06
-3.91952e-06
-1.4672e-07
2.19247e-07
1.06e-06
-7.90615e-07
7.89502e-07
-4.00253e-06
1.07389e-05
0.000163136
2.33605e-07
-9.5478e-08
2.0263e-06
1.51144e-06
1.7291e-06
5.63504e-06
0.000130232
-2.11866e-06
-6.57553e-07
-1.08266e-06
-2.61415e-07
1.03303e-06
1.64344e-06
8.58057e-07
-4.61329e-05
8.60752e-08
2.82017e-06
4.49558e-05
-2.18671e-06
-2.00493e-06
1.38401e-06
2.80763e-06
9.62717e-07
-1.37726e-05
-4.56789e-06
-2.9263e-07
6.59552e-06
1.10749e-05
-1.82298e-05
3.05632e-05
9.65828e-05
6.81946e-07
-9.84241e-07
4.65314e-07
-2.34288e-07
-1.67959e-05
1.57024e-05
0.000117809
-2.2335e-06
4.9747e-07
0.000121868
-2.07981e-06
-1.98651e-06
-1.90337e-06
1.03487e-06
1.35304e-06
1.07748e-06
-2.9123e-05
-2.54512e-06
-2.505e-06
2.95399e-06
2.89857e-05
-1.15078e-05
-1.04819e-06
1.87952e-06
7.95003e-07
1.42813e-05
-4.39991e-06
-5.97287e-07
3.69087e-06
6.87982e-05
-2.65313e-06
-1.01431e-06
-1.2435e-06
-2.66732e-07
4.42324e-06
4.16222e-06
4.65791e-06
-2.88229e-06
2.42696e-06
7.18524e-05
-1.04524e-06
-1.78652e-06
-6.82772e-07
2.05691e-06
2.6622e-06
2.25111e-06
-2.82053e-05
-1.59517e-06
2.82064e-07
2.71336e-05
-1.27908e-05
-8.70278e-07
9.13551e-07
1.27475e-05
-3.64353e-06
-2.25541e-06
3.16043e-06
6.43002e-06
-4.31502e-06
-2.17523e-06
1.72706e-06
-3.46265e-07
7.53641e-06
-3.86786e-06
9.17418e-07
-1.64299e-06
4.59289e-06
-2.29808e-05
-4.27481e-07
2.50371e-07
2.31579e-05
-5.65838e-06
-6.35042e-07
1.89248e-06
4.40094e-06
-1.55215e-06
-2.40774e-06
-5.02576e-05
-1.25338e-06
3.31045e-06
5.21604e-05
1.46341e-06
-4.38462e-05
1.7151e-06
-2.60533e-07
-2.80979e-06
4.3738e-05
-6.99573e-05
-1.66835e-06
1.2979e-06
1.68543e-06
7.00251e-05
-1.38275e-06
-2.48573e-06
2.97195e-06
-8.84814e-06
-1.33201e-06
3.58688e-06
6.10704e-06
4.06646e-06
2.72581e-05
0.000136525
-4.40655e-06
-6.55637e-07
-3.21666e-06
1.9361e-07
-2.09821e-06
-1.52476e-06
3.36389e-07
1.07695e-06
6.45927e-06
1.3524e-05
0.000142957
1.05822e-06
3.6205e-07
1.58226e-06
1.2599e-06
1.49431e-06
3.7821e-06
0.000131602
-2.33973e-06
-9.90496e-08
-4.63927e-07
4.57793e-07
3.35695e-07
1.51589e-06
4.05978e-07
-4.40049e-05
7.69023e-07
1.57616e-06
4.3154e-05
-3.51495e-06
-1.3318e-06
6.31575e-07
4.21518e-06
1.80645e-06
-9.0247e-06
-4.58442e-06
-1.49332e-06
4.59567e-06
8.70033e-06
-4.81373e-06
3.52324e-05
9.27007e-05
-6.32781e-07
-4.57694e-07
1.16059e-06
6.514e-07
-9.36815e-06
2.07813e-05
0.000115106
-1.61287e-06
-3.66389e-08
0.000119248
-1.46484e-06
-1.19085e-06
-1.08812e-06
6.33729e-07
1.03765e-06
7.55985e-07
-2.89811e-05
-1.64837e-06
-1.91593e-06
1.75248e-06
2.91801e-05
-1.68852e-05
2.90271e-07
-9.26735e-07
-4.2237e-08
1.94788e-05
-1.91488e-06
3.61254e-06
3.86345e-06
8.22791e-05
-5.88289e-07
1.8245e-07
2.72774e-07
4.6516e-07