/*--------------------------------*- C++ -*----------------------------------*\
| =========                 |                                                 |
| \\      /  F ield         | OpenFOAM: The Open Source CFD Toolbox           |
|  \\    /   O peration     | Version:  5.x                                   |
|   \\  /    A nd           | Web:      www.OpenFOAM.org                      |
|    \\/     M anipulation  |                                                 |
\*---------------------------------------------------------------------------*/
FoamFile
{
    version     2.0;
    format      ascii;
    class       volVectorField;
    location    "2";
    object      U;
}
// * * * * * * * * * * * * * * * * * * * * * * * * * * * * * * * * * * * * * //

dimensions      [0 1 -1 0 0 0 0];

internalField   nonuniform List<vector> 
10571
(
(0.267642 0.129015 2.0658)
(0.0183556 0.0969931 0.562349)
(1.26264 -0.935035 2.91803)
(0.442984 -0.0658184 3.22488)
(-0.397398 -0.140677 3.48612)
(-0.874708 -0.267051 1.43398)
(0.650007 -2.45531 2.66028)
(-0.326038 -3.51177 3.05976)
(-0.742343 -2.21201 2.40776)
(-0.22351 -0.576485 0.949713)
(0.0577445 -1.19307 1.42253)
(-2.38783 -4.15129 3.42258)
(-0.457245 -2.45971 1.60829)
(-0.565194 -3.69665 2.27127)
(-2.53109 -4.01206 3.59548)
(-0.115986 -0.238753 1.14507)
(-0.886863 -1.3008 0.865231)
(-0.304869 -1.15438 0.855355)
(-0.102929 -1.26867 0.950782)
(-0.124787 -1.07625 1.14663)
(0.048069 -0.155815 0.843915)
(-0.821566 -0.234176 1.01998)
(-0.147745 -0.0509671 1.06517)
(0.219936 -0.111653 0.810623)
(0.135967 -0.0451507 1.86072)
(0.299767 -0.27346 0.757937)
(0.0418279 -0.355534 1.31438)
(0.56827 -0.963629 2.5264)
(0.017303 -0.693074 1.90273)
(-0.910943 -0.79174 2.56051)
(0.4267 -0.852561 2.26002)
(0.656398 -1.04007 3.03087)
(0.464117 -0.351568 1.53029)
(0.122296 -0.33276 1.44548)
(-0.314031 -0.179438 1.14819)
(-0.181261 -0.296874 0.662665)
(0.086294 -0.319093 0.801162)
(0.205179 -0.372701 1.03448)
(0.357482 -0.215452 1.22941)
(0.229588 -0.323983 1.17491)
(-0.263388 -0.488753 0.72196)
(0.100299 -0.275249 0.535959)
(0.241218 -0.196716 0.639282)
(0.226802 -0.29766 0.953993)
(0.192717 -0.241867 1.17528)
(0.0385516 -0.32294 0.770409)
(0.246375 -0.350887 0.72299)
(0.279445 -0.183833 0.853594)
(-0.290149 -0.080509 1.48401)
(0.314784 -0.833211 1.15905)
(0.397804 -0.360417 2.73893)
(0.243302 -1.43172 4.84351)
(-0.0554116 -0.169559 2.94265)
(1.30531 -0.904337 2.20319)
(0.270495 -0.394766 2.0432)
(0.357233 -0.499991 2.46571)
(0.378328 -0.0909845 2.03337)
(0.548288 -0.710106 2.50919)
(-0.0469346 0.444865 1.31663)
(0.226074 -0.198021 0.643342)
(0.183811 -0.325842 0.539928)
(0.196142 -0.254981 0.759622)
(0.230945 -0.0596736 1.18869)
(0.0940687 -0.27449 1.16497)
(-0.0664026 -0.261689 0.683986)
(0.158508 -0.28694 0.479278)
(0.296638 -0.236813 0.519053)
(0.256133 -0.341665 1.0382)
(0.0646005 -0.0824133 1.3583)
(0.0733471 -0.217173 0.737588)
(0.249011 -0.256959 0.612919)
(0.299996 -0.197034 0.75037)
(-0.266739 -0.237499 2.60188)
(0.475345 -0.0374926 1.6036)
(-0.169255 -0.340732 1.84803)
(0.0914326 -0.689266 3.00273)
(0.895166 0.0653015 2.40801)
(0.997547 -0.664041 3.24382)
(0.578267 -0.163321 2.95721)
(0.0993433 -0.134299 2.89618)
(-0.339966 0.212385 2.004)
(0.874977 0.0591026 2.40099)
(0.308827 0.316569 1.09801)
(0.164947 -0.241877 0.438708)
(0.157724 -0.471555 1.0269)
(0.114378 -0.212073 1.00745)
(0.416058 -0.479719 1.95388)
(0.186746 -0.182537 0.892976)
(-0.0201278 -0.132652 0.406105)
(0.13433 -0.115517 0.142812)
(0.170449 -0.116519 0.155868)
(1.04785 -0.413232 1.74595)
(-0.0369998 -0.0304708 1.20833)
(0.0654783 -0.149742 0.48655)
(0.216881 -0.185498 0.340413)
(0.355386 -0.0831129 0.378965)
(-0.0911115 0.0136774 3.16266)
(0.597285 -0.281405 1.82613)
(0.0302645 -0.225815 2.08013)
(0.1276 -0.389785 3.24554)
(0.763378 0.0762057 2.99987)
(-0.0102335 -0.09329 1.66191)
(0.49551 -0.215393 1.8038)
(0.151146 -0.196143 1.87656)
(-0.221941 -0.0742624 1.13822)
(0.501483 0.178766 2.50564)
(-0.0703827 -0.57663 1.23789)
(-0.423365 -0.0666488 -0.0151344)
(-0.0137651 -0.0483829 0.291916)
(0.00150179 -0.0339026 0.0487737)
(0.390911 -0.274011 0.890222)
(0.0149847 0.0412399 0.595355)
(-0.0597747 0.0447181 0.514986)
(0.0837403 0.00164321 0.271411)
(0.121522 -0.00304766 -0.206414)
(0.682358 0.0524393 0.506063)
(0.198612 -0.26342 0.794567)
(0.0177469 -0.0175145 0.384538)
(0.0837149 -0.0383121 0.0299071)
(0.172302 0.014194 0.465888)
(-0.0426437 0.0234487 3.11613)
(0.558069 -0.229367 1.78977)
(0.151707 -0.132081 2.04298)
(0.168899 -0.275503 2.90203)
(0.676083 0.0673812 3.14253)
(0.34126 0.132901 1.71969)
(0.483119 -0.26881 1.77239)
(0.347031 -0.124206 1.81642)
(-0.113065 -0.05709 1.35218)
(0.323095 0.238839 2.56469)
(-0.00897112 0.00469358 -0.00257466)
(-0.105953 0.325783 1.73015)
(-0.122544 0.273556 0.0662944)
(0.403604 0.0236911 0.222093)
(0.0821084 0.0324742 0.27253)
(0.192218 -0.0498653 0.768672)
(0.217893 -0.0196958 1.14219)
(-0.00145618 -0.00173401 -0.000757584)
(0.0498409 -0.221642 0.155218)
(0.267493 -0.0712519 0.0335504)
(0.227876 -0.120431 -0.112852)
(0.153273 0.0223266 0.170861)
(0.150145 0.00466129 1.34861)
(-0.0778556 -0.0530374 -0.00459371)
(0.155067 -0.0542637 -0.0895306)
(-0.12662 0.0794597 0.60756)
(0.00462445 0.011613 3.1883)
(0.433328 -0.156143 1.73359)
(0.148639 -0.118464 2.17276)
(0.149021 -0.240792 2.93821)
(0.677707 0.111741 3.40572)
(0.258224 0.0271426 1.46619)
(0.637824 -0.2998 1.6987)
(0.449472 -0.138384 1.94325)
(-0.056757 0.135018 1.59507)
(0.194195 0.246462 2.41542)
(-0.422052 -0.0873419 0.00838651)
(0.000438127 0.637094 1.95839)
(0.13182 -0.0323448 0.30573)
(0.439163 -0.214157 0.13854)
(0.327216 -0.0373248 0.236558)
(0.130045 -0.0170975 0.873009)
(0.133963 0.0257474 1.4731)
(-0.154048 0.197134 -0.0402192)
(0.209233 -0.196834 -0.148748)
(0.282537 -0.320985 -0.119553)
(0.379206 -0.312182 -0.0636469)
(0.123625 -0.0644217 0.228219)
(0.105745 0.0290756 1.40108)
(-0.226755 0.0939746 0.113121)
(-0.0851222 -0.0132929 -0.11591)
(0.270206 -0.0653506 -0.0585539)
(-0.103908 0.0832399 0.604707)
(0.124592 0.0340646 3.40601)
(0.405458 -0.217327 1.64241)
(0.118043 -0.0187854 2.24653)
(0.15405 -0.109918 2.95022)
(0.61625 0.188382 3.49354)
(0.322048 -0.0347477 1.33209)
(0.737786 -0.400186 1.47826)
(0.526357 -0.110802 2.1053)
(0.0489374 0.2824 1.79064)
(0.0635211 0.34162 2.4207)
(-0.201932 -0.0408214 0.0178678)
(0.0137393 0.590106 1.87513)
(0.254409 0.124356 0.516236)
(0.321188 -0.422981 0.117971)
(0.295273 -0.108233 0.436439)
(-0.0334912 0.121471 1.02885)
(-0.0707343 0.0908172 1.64042)
(0.00862086 0.083698 -0.283224)
(0.280128 0.22101 -0.265079)
(0.248257 -0.377988 -0.341804)
(0.231422 -0.461113 0.0119119)
(0.0160381 -0.0793697 0.434762)
(-0.116489 0.0682 1.4039)
(0.103069 0.0836295 0.210224)
(0.0846783 -0.0150809 -0.291451)
(0.228464 -0.0787874 -0.122048)
(-0.0794352 0.0641361 0.610187)
(0.202578 0.0449404 3.5049)
(0.284522 -0.207576 1.58659)
(0.0520857 0.0800239 2.32724)
(0.149203 -0.0105961 2.91283)
(0.510476 0.221476 3.42349)
(0.213643 -0.164367 1.27308)
(0.639096 -0.391828 1.36885)
(0.53725 0.00700724 2.26846)
(0.112237 0.392427 1.9611)
(0.0720016 0.427051 2.39827)
(0.495721 0.430642 0.400948)
(0.141086 0.249066 1.21598)
(0.198457 5.14472e-06 0.384134)
(0.109601 -0.465469 0.104979)
(0.0205229 -0.0474397 0.711098)
(-0.231594 0.304721 1.309)
(-0.284801 0.205194 1.74245)
(0.115467 -0.0051949 -0.233662)
(0.41744 0.408457 -0.304909)
(0.205345 -0.409037 -0.425018)
(0.0583977 -0.513992 -0.0105386)
(-0.0851565 -0.00914948 0.701041)
(-0.191965 0.0689297 1.49918)
(0.146764 -0.0411568 -0.414732)
(0.0239787 -0.0348416 -0.201136)
(-0.148745 0.0611691 0.510199)
(0.210684 0.0405718 3.51165)
(0.161382 -0.155341 1.63993)
(-0.0498987 0.191791 2.37123)
(0.118038 0.0173944 2.87064)
(0.406323 0.212733 3.30567)
(0.154656 -0.173662 1.31994)
(0.506872 -0.215387 1.38648)
(0.359491 0.131187 2.40672)
(0.105493 0.426905 2.04917)
(0.0272418 0.470878 2.44874)
(0.0745212 0.374029 0.336421)
(0.0352817 0.000277469 0.157115)
(-0.196233 -0.270877 0.291012)
(-0.287297 0.131523 1.06189)
(-0.324073 0.367682 1.42852)
(-0.339578 0.265318 1.46496)
(0.430476 0.472293 -0.346946)
(0.0968472 -0.267458 -0.435613)
(-0.103228 -0.436786 0.0496973)
(-0.155004 0.0726547 0.956625)
(-0.0957402 0.105455 1.51713)
(0.141011 -0.0474289 -0.463071)
(-0.0823174 -0.0299482 -0.3347)
(-0.163071 0.0498624 0.349223)
(0.199204 0.0349004 3.47603)
(0.106765 -0.162671 1.53683)
(-0.0979175 0.271859 2.35052)
(0.0187804 0.0573158 2.7601)
(0.30839 0.179148 3.16449)
(0.0238792 0.0804327 1.3691)
(0.321358 0.0792906 1.38402)
(0.112434 0.204672 2.46335)
(0.0873327 0.436126 2.04122)
(0.0894494 0.429801 2.5055)
(0.0103488 0.427364 0.0092023)
(-0.0896651 0.150874 0.17785)
(-0.460892 -0.00809197 0.463738)
(-0.429046 0.281233 1.23772)
(-0.343564 0.355387 1.46192)
(-0.224043 0.251229 1.37009)
(0.394948 0.512719 -0.33836)
(-0.0154036 -0.0685001 -0.295044)
(-0.227844 -0.227836 0.157484)
(-0.233677 0.12143 1.14111)
(-0.0642314 0.0812722 1.39464)
(0.19107 -0.00377066 -0.473309)
(-0.0820431 0.0087075 -0.392561)
(-0.077685 0.00957739 0.174576)
(0.204952 0.0325756 3.42903)
(0.088101 -0.162274 1.38457)
(-0.144746 0.252788 2.25763)
(-0.0680581 0.114282 2.57415)
(0.211134 0.167141 3.00081)
(-0.0509731 0.347535 1.2508)
(0.106461 0.316632 1.39891)
(-0.0195161 0.378758 2.41453)
(0.0839118 0.462264 1.95742)
(0.107707 0.343556 2.52267)
(-0.00903341 0.514227 -0.0389015)
(-0.207056 0.32921 0.376513)
(-0.591974 0.158992 0.578811)
(-0.46055 0.385857 1.31792)
(-0.322183 0.349831 1.45756)
(-0.145927 0.253147 1.19332)
(0.348496 0.540495 -0.209363)
(-0.0882049 0.134323 -0.0855373)
(-0.284188 -0.034852 0.305034)
(-0.252563 0.120939 1.19365)
(-0.0575548 0.0855293 1.30698)
(0.187935 0.0412692 -0.408196)
(-0.0134606 0.0636955 -0.35277)
(-0.0176606 0.00499542 0.186186)
(0.225272 0.0258087 3.35368)
(0.0977279 -0.110656 1.19646)
(-0.190809 0.199902 2.14987)
(-0.114051 0.121585 2.30718)
(0.154642 0.156235 2.85031)
(-0.073031 0.497385 1.17061)
(-0.125937 0.398945 1.46882)
(-0.165894 0.505833 2.24111)
(0.118726 0.391941 1.77356)
(0.11426 0.285203 2.51527)
(-0.0157425 0.603117 0.129543)
(-0.198975 0.472299 0.566511)
(-0.619989 0.269535 0.673265)
(-0.476541 0.395406 1.35404)
(-0.237901 0.325405 1.44449)
(-0.118363 0.294624 1.14255)
(0.322355 0.588819 0.00797153)
(-0.0903214 0.305632 0.16282)
(-0.285257 0.108612 0.435997)
(-0.231889 0.112396 1.22793)
(-0.0681288 0.0926888 1.26923)
(0.171036 0.0970286 -0.233409)
(0.0783032 0.117025 -0.198995)
(0.0557709 -0.0347165 0.210894)
(0.22849 0.0107849 3.28949)
(0.258433 -0.149306 0.689746)
(-0.142028 0.155944 2.09369)
(-0.159135 0.0491216 2.11256)
(0.158213 0.138609 2.74986)
(0.188609 0.309831 0.842505)
(-0.266273 0.313903 1.54131)
(-0.332223 0.352681 1.99248)
(0.127363 0.194046 1.55448)
(0.133998 0.235832 2.4174)
(0.0243874 0.524318 0.241192)
(0.0362131 0.559216 0.688438)
(-0.528877 0.362623 0.789554)
(-0.500259 0.31676 1.30151)
(-0.196724 0.228432 1.40191)
(-0.118183 0.29407 1.14558)
(0.219596 0.525279 0.259507)
(-0.00357825 0.44217 0.401)
(-0.228107 0.1995 0.55828)
(-0.197302 0.0895609 1.22596)
(-0.0766787 0.0768362 1.20425)
(0.19315 0.112396 0.00784483)
(0.127369 0.112585 0.00982983)
(0.0967702 -0.0407585 0.273156)
(0.200096 -0.0125823 3.26084)
(-0.14685 0.0190931 0.514862)
(-0.152422 0.118089 2.12929)
(-0.158247 -0.086049 1.95321)
(0.195909 0.11217 2.72971)
(-0.161112 0.143974 0.581132)
(-0.228901 0.25963 1.59308)
(-0.264795 0.156451 1.73309)
(0.10668 0.0915704 1.40195)
(0.133839 0.175165 2.29834)
(-0.00171275 0.371334 0.351534)
(-0.0619174 0.472147 0.52878)
(-0.216987 0.522965 0.947426)
(-0.390978 0.203534 1.18897)
(-0.188868 0.10811 1.31068)
(-0.11382 0.251665 1.14124)
(0.0250887 0.121107 0.509146)
(0.0916488 0.524823 0.634442)
(-0.113888 0.287344 0.69282)
(-0.181782 0.054977 1.2005)
(-0.0485601 0.0606364 1.16026)
(0.194729 0.140776 0.272428)
(0.169662 0.12567 0.25316)
(0.164744 -0.0538319 0.388141)
(0.182088 -0.0189706 3.29796)
(-0.265955 0.082314 0.351702)
(-0.00555459 0.172217 2.23662)
(-0.0787738 -0.167214 1.92299)
(0.184615 0.102806 2.73442)
(-0.310451 0.222368 0.332604)
(0.0232136 0.253803 1.55467)
(0.101951 0.176666 1.54139)
(0.116428 0.0981264 1.36529)
(0.105415 0.0901789 2.19744)
(-0.0195322 0.261393 0.553957)
(-0.205313 0.383154 0.378352)
(0.0137778 0.64066 0.96597)
(-0.170229 0.281116 1.1793)
(-0.143703 0.0383792 1.25613)
(-0.0804279 0.159343 1.13868)
(-0.112357 -0.0587708 0.710256)
(0.104341 0.554904 0.807433)
(0.0234198 0.382532 0.81868)
(-0.137896 0.0277251 1.21564)
(-0.0408698 0.0592726 1.1581)
(0.0787193 0.158216 0.501755)
(0.167185 0.158569 0.50144)
(0.232008 -0.0422176 0.569379)
(0.208373 0.0020389 3.33874)
(-0.192051 0.118861 0.264692)
(0.201816 0.132032 2.37015)
(0.0987856 -0.0624364 1.93477)
(0.0873606 0.0684195 2.78266)
(-0.305108 0.37139 0.203129)
(0.113259 0.284424 1.15822)
(0.362065 0.366383 1.34208)
(0.16456 0.156475 1.39477)
(0.0975523 0.0291764 2.13269)
(-0.0218216 0.215993 0.735986)
(-0.120607 0.335882 0.507441)
(0.017525 0.653818 0.899596)
(0.110212 0.52023 1.17251)
(-0.065336 0.0353011 1.26349)
(-0.0191715 0.0558426 1.16491)
(-0.211863 -0.0904404 0.906575)
(0.00927598 0.549747 0.91922)
(0.117898 0.489906 0.97994)
(-0.0849921 0.0314803 1.27403)
(-0.0199184 0.0354497 1.14341)
(-0.0661896 0.141878 0.732424)
(0.129418 0.216394 0.764564)
(0.253517 -0.0580465 0.75036)
(0.264078 0.0219115 3.28375)
(-0.239636 0.240646 0.0722558)
(0.336007 -0.0965951 2.31019)
(0.213707 0.119721 2.06483)
(-0.0380524 0.00712251 2.882)
(-0.22873 0.502219 0.242659)
(0.018365 0.446509 0.619426)
(0.341659 0.611407 1.05369)
(0.203757 0.271013 1.50118)
(0.0734794 -0.0328544 2.11945)
(-0.035281 0.0990401 0.858852)
(0.0307751 0.166012 0.806792)
(-0.013824 0.641972 0.714215)
(0.22146 0.693758 1.11731)
(0.0822782 0.126094 1.32425)
(0.0626145 -0.036481 1.2193)
(-0.282496 -0.17474 1.09597)
(-0.0941875 0.530733 1.03289)
(0.145384 0.577893 1.13457)
(-0.0164908 0.0670107 1.35385)
(0.00785921 0.0251279 1.19329)
(-0.174089 0.126523 0.979794)
(0.103964 0.262475 1.03234)
(0.244017 -0.0668464 0.952187)
(0.230659 0.00873999 3.18584)
(-0.242686 0.341289 -0.144103)
(0.311982 0.00836181 2.07484)
(0.186331 0.177968 2.24366)
(-0.110524 0.127731 2.86332)
(-0.0170798 0.31876 0.5438)
(0.0500759 0.618841 0.379875)
(0.277833 0.77415 0.801105)
(0.227571 0.49417 1.57408)
(0.032253 -0.0500335 2.13454)
(-0.0225701 -0.123939 0.995319)
(0.110392 -0.0244069 1.05087)
(0.0555509 0.636048 0.641751)
(0.219591 0.788314 1.0881)
(0.20389 0.309925 1.43418)
(0.122297 -0.0384473 1.30246)
(-0.31204 -0.237692 1.20331)
(-0.14193 0.500809 1.15177)
(0.106378 0.585216 1.30798)
(0.0442085 0.148057 1.45763)
(0.0243509 0.0337814 1.31253)
(-0.240324 0.0829484 1.17731)
(0.0468519 0.246466 1.25942)
(0.229891 -0.049986 1.19884)
(0.127247 0.00851459 2.89439)
(-0.168983 0.268047 -0.0985484)
(-0.286271 0.384755 1.4901)
(-0.296645 0.341451 2.16765)
(-0.00656742 0.297733 2.70958)
(0.186224 0.145096 0.789316)
(0.217862 0.660647 0.332338)
(0.332186 0.816039 0.712278)
(0.282057 0.820086 1.61702)
(0.00648661 0.00246313 2.16229)
(-0.016502 -0.279645 0.99891)
(0.158746 -0.154564 1.14101)
(0.154562 0.562186 0.662721)
(0.193179 0.779913 1.12972)
(0.195439 0.527065 1.57682)
(0.133218 0.0222713 1.41321)
(-0.301991 -0.27124 1.2363)
(-0.120334 0.379159 1.27958)
(0.0190116 0.453869 1.48075)
(0.0656038 0.269801 1.60867)
(0.0529319 0.0269018 1.51567)
(-0.216789 0.0740902 1.37038)
(-0.041295 0.160142 1.43804)
(0.133814 -0.0279055 1.39191)
(-0.0535311 -0.0348574 2.66472)
(-0.110154 0.162705 0.0538801)
(-0.370702 0.61887 0.821188)
(-0.170921 0.516361 1.70511)
(0.108641 0.441382 2.1105)
(0.277143 0.0726536 0.847099)
(0.382939 0.569512 0.368784)
(0.367219 0.691721 0.731705)
(0.341103 0.996652 1.75188)
(0.0539341 0.240513 2.24181)
(-0.034682 -0.35827 0.944245)
(0.122678 -0.190756 1.16464)
(0.140567 0.435098 0.727493)
(0.0615016 0.587997 1.33057)
(0.0500379 0.649046 1.77155)
(0.0668934 0.0527695 1.56116)
(-0.267761 -0.286774 1.21809)
(-0.0745097 0.19965 1.37869)
(-0.0479217 0.229322 1.67455)
(-0.0101066 0.328713 1.82073)
(0.0609125 0.0224126 1.72831)
(-0.186194 0.0513798 1.4916)
(-0.0769646 0.0723199 1.51792)
(0.106619 -0.004032 1.61867)
(0.116491 0.0777037 2.3423)
(-0.0288571 0.0803795 0.0816494)
(-0.0906955 0.417914 0.502843)
(0.457198 0.55432 1.05035)
(0.55778 0.492034 1.65273)
(0.304542 0.0574215 0.892849)
(0.435885 0.43438 0.40079)
(0.201038 0.326586 0.854279)
(0.270233 0.992861 1.97336)
(0.0482467 0.44357 2.32721)
(-0.0594563 -0.374838 0.947301)
(-0.0188415 -0.172409 1.19907)
(-0.0373165 0.300221 0.84098)
(-0.120441 0.24889 1.57589)
(-0.124151 0.620031 1.98906)
(-0.123898 0.200113 1.6591)
(-0.251275 -0.261725 1.20134)
(-0.081264 0.0607467 1.41732)
(-0.0530186 0.046295 1.8173)
(-0.0859559 0.297491 2.01519)
(0.00878914 0.0410774 1.88768)
(-0.107039 0.0252912 1.53673)
(-0.110701 0.00601173 1.4476)
(0.0744696 -0.00926281 1.78191)
(0.355354 0.159699 0.764587)
(0.0597708 0.0247636 0.039141)
(0.101573 0.237112 0.258985)
(0.506416 0.134546 0.776835)
(0.698912 0.431424 1.65186)
(0.344351 0.0001071 0.894385)
(0.416617 0.308599 0.450769)
(-0.0345348 -0.0373316 0.989421)
(0.0118571 0.811126 2.13395)
(0.0702683 0.549565 2.61296)
(-0.0735473 -0.368153 1.00486)
(-0.1693 -0.153956 1.23301)
(-0.244938 0.233692 0.936892)
(-0.22823 0.0487377 1.62471)
(-0.151817 0.482893 2.21068)
(-0.166111 0.330216 1.58838)
(-0.266862 -0.20716 1.20994)
(-0.110963 0.0292191 1.42584)
(-0.0471498 -0.0429619 1.86605)
(-0.127202 0.212162 2.21082)
(-0.0369596 0.0935136 2.01846)
(-0.0226051 0.0100505 1.51385)
(-0.0302273 -0.000529824 1.35798)
(0.0656422 -0.0380998 1.84715)
(0.251369 0.092623 0.181363)
(0.10568 -0.00226283 -0.00850013)
(0.178401 0.146213 0.0714022)
(0.467734 -0.234799 0.675293)
(0.641695 0.314362 1.7278)
(0.412355 -0.0941994 0.83578)
(0.394564 0.220326 0.53121)
(-0.159618 -0.228964 1.05201)
(-0.264013 0.279203 2.14713)
(0.0454016 0.276806 2.81939)
(-0.0934538 -0.383043 1.11156)
(-0.282452 -0.127162 1.27187)
(-0.366322 0.255594 0.976025)
(-0.331455 0.000502416 1.52461)
(-0.0617309 0.262322 2.32332)
(-0.00484118 0.338876 1.50259)
(-0.269312 -0.151475 1.2566)
(-0.159242 0.0653764 1.41233)
(-0.0439867 -0.0531206 1.86378)
(-0.106348 0.12482 2.36518)
(-0.00190923 0.0688504 2.1652)
(0.0153951 0.033038 1.42681)
(0.103159 -0.0031 1.3642)
(0.0829407 -0.0611523 1.82509)
(0.0513021 0.0642059 0.0174537)
(0.0961926 -0.0037087 -0.0360139)
(0.171544 0.131308 -0.0502738)
(0.344592 -0.384705 0.722401)
(0.53347 0.295154 1.84047)
(0.453316 -0.196591 0.754581)
(0.409806 0.188282 0.628321)
(-0.165074 -0.239386 1.0494)
(-0.271651 -0.25798 2.14138)
(-0.197516 0.0804963 2.56786)
(-0.0951996 -0.401543 1.25229)
(-0.290468 -0.105802 1.31051)
(-0.383403 0.308606 0.997482)
(-0.430546 0.0476635 1.32891)
(-0.0203404 0.00277014 2.1819)
(0.058884 0.0177259 1.58495)
(-0.287301 -0.138846 1.3314)
(-0.261292 0.0677215 1.41813)
(-0.0557192 -0.0270975 1.83243)
(-0.061479 0.0315157 2.43305)
(0.0259494 -0.0502643 2.22927)
(-0.00175428 0.0576822 1.37096)
(0.189192 -0.00923134 1.37711)
(0.0867415 -0.053157 1.72168)
(-0.187841 0.0244367 0.0220659)
(0.046336 0.0149296 -0.0287442)
(0.130357 0.157426 -0.0922591)
(0.126808 -0.384054 0.864348)
(0.149636 0.0900762 2.04539)
(0.467186 -0.310237 0.629856)
(0.454642 0.208169 0.731866)
(-0.101104 -0.033569 0.997555)
(-0.111177 -0.431354 2.12268)
(-0.182457 -0.182609 2.10377)
(-0.0236829 -0.544402 1.20192)
(-0.210016 -0.148706 1.34853)
(-0.317961 0.346969 1.05522)
(-0.437814 0.180532 1.16078)
(-0.0736105 -0.229518 1.87022)
(0.0619438 -0.353891 1.48624)
(-0.309334 -0.171657 1.42371)
(-0.372901 0.0210922 1.44247)
(-0.177723 0.0643094 1.76356)
(-0.0483184 0.0184181 2.43677)
(0.0252602 -0.0593546 2.19504)
(-0.0498618 0.0652637 1.35834)
(0.188392 -0.00382811 1.34225)
(0.120277 -0.0240844 1.73951)
(-0.393822 -0.0110344 0.0461781)
(-0.0141557 0.0418383 0.0216542)
(0.0676965 0.19642 -0.0233665)
(-0.23042 -0.194163 1.00521)
(-0.431808 -0.44157 2.52016)
(0.49203 -0.403658 0.455945)
(0.524104 0.204422 0.875333)
(-0.0558898 0.320304 0.912515)
(-0.0545933 -0.382635 2.07534)
(-0.00389977 -0.400636 1.9922)
(-0.000124881 -0.576078 0.737621)
(-0.0225374 -0.309131 1.42876)
(-0.226241 0.369892 1.1494)
(-0.372054 0.391039 1.09353)
(-0.178448 -0.178015 1.57813)
(0.0977865 -0.422127 1.33698)
(-0.345864 -0.222145 1.47732)
(-0.49345 0.0312942 1.49434)
(-0.418644 0.181508 1.69827)
(-0.0665116 0.0176763 2.33699)
(0.0767107 -0.133899 2.08601)
(-0.119575 0.0554411 1.39281)
(0.0286107 0.0251187 1.3731)
(0.0602144 0.0720653 1.83288)
(-0.463113 -0.0638313 0.0860987)
(-0.0727293 0.0632743 0.12812)
(0.037904 0.217787 0.151692)
(-0.542122 0.122979 0.999708)
(-0.59868 -0.515896 2.78642)
(0.46188 -0.556924 0.303886)
(0.636985 0.0806129 1.01886)
(-0.0111627 0.595911 0.91065)
(-0.10203 0.0423255 1.79836)
(0.23337 -0.363801 2.08135)
(-0.0521054 -0.498133 0.39838)
(0.17332 -0.541412 1.50202)
(-0.237987 0.374635 1.24987)
(-0.311417 0.593461 1.1455)
(-0.280867 0.192554 1.38137)
(0.115303 -0.0593772 1.28307)
(-0.30513 -0.316304 1.51564)
(-0.591881 0.0497114 1.62384)
(-0.557015 0.303385 1.68982)
(-0.263121 -0.0398886 2.03388)
(0.00832894 -0.214067 1.48469)
(-0.198756 0.0300039 1.47129)
(-0.288237 0.11197 1.53407)
(-0.220056 0.199174 1.85363)
(-0.407022 -0.0863198 0.223199)
(-0.126155 0.0800672 0.2526)
(0.068512 0.195668 0.372041)
(-0.665487 0.412942 0.784771)
(-0.571333 -0.361186 2.77392)
(0.373428 -0.560746 0.228818)
(0.70163 -0.0944639 1.12828)
(0.0639473 0.747661 1.05103)
(-0.164993 0.671974 1.36205)
(0.233742 -0.0945514 2.10075)
(-0.0598959 -0.41365 0.287736)
(0.345801 -0.553317 1.43003)
(-0.314984 0.277265 1.34597)
(-0.259363 0.687491 1.26492)
(-0.322119 0.563386 1.30963)
(-0.0146854 0.443263 1.15759)
(-0.230242 -0.355176 1.53926)
(-0.653326 -0.0324481 1.7909)
(-0.549218 0.391745 1.76915)
(-0.359359 0.373361 1.65018)
(-0.110139 0.276191 1.45348)
(-0.223237 -0.0070889 1.60944)
(-0.437101 0.123527 1.7607)
(-0.431697 0.302993 1.92797)
(-0.29086 -0.0685173 0.345035)
(-0.195123 0.124503 0.310434)
(0.133583 0.115025 0.569094)
(-0.470898 0.463581 0.704785)
(-0.0751989 -0.00930446 2.70826)
(0.313869 -0.278908 0.284207)
(0.622781 -0.296548 1.27013)
(0.191145 0.668646 1.26509)
(-0.119438 0.911539 1.22601)
(-0.00358204 0.612737 1.35537)
(-0.0502372 -0.397822 0.321266)
(0.268864 -0.720768 1.16132)
(-0.289758 -0.00874122 1.45252)
(-0.237944 0.62391 1.37584)
(-0.317224 0.712674 1.33659)
(-0.042829 0.649955 1.10232)
(-0.109742 -0.430289 1.50306)
(-0.60459 -0.186956 1.85909)
(-0.533687 0.362135 1.84369)
(-0.390643 0.5234 1.54675)
(-0.190325 0.419589 1.66183)
(-0.182872 -0.0914964 1.70817)
(-0.487389 0.0991176 1.99067)
(-0.485757 0.329881 2.08401)
(-0.183238 -0.0389118 0.344121)
(-0.249785 0.1921 0.301293)
(0.174448 0.0837711 0.743719)
(-0.0829279 0.338183 0.869569)
(-0.294121 0.446735 1.61452)
(0.198845 -0.05097 0.309262)
(0.618063 -0.571786 1.39489)
(0.392444 0.372693 1.50949)
(-0.0363242 0.903377 1.25848)
(0.0225082 0.715985 0.906224)
(-0.0391167 -0.294126 0.354879)
(0.107503 -0.533849 0.785566)
(-0.14217 -0.314024 1.61935)
(-0.316333 0.399986 1.49542)
(-0.299506 0.677642 1.39135)
(-0.0424648 0.53918 1.14339)
(-0.0843558 -0.319092 1.2989)
(-0.402001 -0.355435 1.92976)
(-0.543409 0.192724 1.92753)
(-0.412424 0.487227 1.54765)
(-0.203981 0.364701 1.68843)
(-0.0527984 -0.0722976 1.76909)
(-0.405649 0.00749952 2.18991)
(-0.454026 0.321481 2.23841)
(-0.146686 -0.0250925 0.2335)
(-0.253273 0.242376 0.265308)
(0.161006 0.132724 0.880518)
(0.215545 0.142345 1.09372)
(-0.179348 0.22887 0.89806)
(0.0897686 0.0883619 0.324989)
(0.704328 -0.66033 1.48627)
(0.472437 0.04159 1.66168)
(0.170152 0.689438 1.41789)
(0.0483114 0.516663 0.776148)
(-0.0268166 -0.125628 0.37487)
(0.0529436 -0.322526 0.563515)
(0.0494457 -0.478029 1.78036)
(-0.374391 0.160748 1.61571)
(-0.27215 0.492395 1.49448)
(-0.0650384 0.460614 1.12426)
(-0.156007 -0.0289576 0.993821)
(-0.164451 -0.409707 2.07982)
(-0.484479 -0.0100394 2.04533)
(-0.463757 0.290349 1.5492)
(-0.216798 0.352873 1.44356)
(0.247545 -0.279295 1.61306)
(-0.253222 -0.198127 2.29969)
(-0.406717 0.250674 2.3579)
(-0.147677 -0.0348153 0.154032)
(-0.246657 0.275444 0.191692)
(0.0486269 0.0918197 0.899346)
(0.337537 -0.103365 1.21617)
(0.108995 0.0906851 0.710634)
(0.0954539 0.203057 0.321596)
(0.696654 -0.66321 1.60878)
(0.41097 -0.213912 1.75877)
(0.320176 0.446423 1.54893)
(0.0981194 0.389013 0.785908)
(0.000206985 0.0291247 0.356541)
(0.116129 -0.0733344 0.518715)
(0.191782 -0.540864 1.8988)
(-0.293394 -0.0612972 1.75439)
(-0.256625 0.380229 1.54622)
(-0.0560075 0.469672 1.0749)
(-0.00571835 -0.0729193 0.767515)
(0.0386157 -0.465441 2.15002)
(-0.338091 -0.203661 2.19428)
(-0.452904 0.161223 1.57007)
(-0.217542 0.402866 1.23646)
(0.347033 -0.0404996 1.21311)
(-0.0363849 -0.232928 2.3938)
(-0.323419 0.216721 2.48876)
(-0.123792 -0.0387514 0.190576)
(-0.277228 0.312625 0.112499)
(-0.0700039 -0.120566 0.849331)
(0.337562 -0.3241 1.23536)
(0.263898 -0.00529316 0.753005)
(0.0767955 0.304686 0.284535)
(0.667176 -0.748411 1.69334)
(0.369145 -0.432709 1.82423)
(0.424649 0.246453 1.61134)
(0.141747 0.328783 0.858293)
(0.020882 0.17846 0.295099)
(0.20504 0.0958588 0.49219)
(0.279973 -0.621256 1.99132)
(-0.161878 -0.321363 1.93376)
(-0.242575 0.291166 1.56102)
(-0.0131848 0.515423 1.0363)
(0.170414 0.0104779 0.572221)
(0.16313 -0.504857 2.09779)
(-0.162097 -0.466168 2.34912)
(-0.354926 0.0550818 1.63648)
(-0.237476 0.472449 1.10741)
(0.26817 0.0951443 1.07963)
(0.17258 -0.368476 2.27667)
(-0.158807 0.0316201 2.61384)
(-0.0615846 -0.0249249 0.32761)
(-0.336935 0.344269 0.0902729)
(-0.21864 -0.316891 0.833661)
(0.344558 -0.402042 1.22408)
(0.326449 -0.0812417 0.928375)
(-0.00163074 0.379984 0.260443)
(0.636595 -0.850609 1.64694)
(0.372973 -0.610275 1.88153)
(0.472749 0.0924256 1.65978)
(0.173899 0.289887 0.959115)
(0.026707 0.303909 0.238732)
(0.231028 0.219118 0.442159)
(0.365929 -0.736583 1.95803)
(-0.0253009 -0.533647 2.11349)
(-0.189436 0.109494 1.58514)
(0.0216541 0.541326 1.01377)
(0.211861 0.119919 0.491979)
(0.236906 -0.401159 1.98294)
(0.00118781 -0.65133 2.41861)
(-0.223154 -0.178045 1.84602)
(-0.24494 0.503358 1.00042)
(0.251542 0.194246 1.0932)
(0.269446 -0.275079 1.61333)
(0.323912 -0.313726 2.7575)
(-0.0313999 -0.00235266 0.467111)
(-0.357079 0.350157 0.123888)
(-0.407749 -0.162368 0.83208)
(0.36945 -0.34443 1.23956)
(0.279039 -0.147823 1.15672)
(-0.0921661 0.428867 0.2565)
(0.47412 -0.900703 1.45226)
(0.370072 -0.640268 1.99332)
(0.455362 -0.0621738 1.74765)
(0.207011 0.248019 1.07894)
(0.0283089 0.398973 0.210818)
(0.205624 0.334167 0.403999)
(0.405275 -0.782038 1.75477)
(0.133858 -0.642038 2.23158)
(-0.00457231 -0.253917 1.74007)
(0.032794 0.507479 1.01821)
(0.241374 0.218985 0.449174)
(0.366661 -0.0879506 1.5271)
(0.107543 -0.659628 2.35014)
(0.135323 -0.679808 2.26658)
(-0.211474 0.44644 0.967602)
(0.289131 0.285705 1.00526)
(0.537976 -0.0693353 1.36016)
(0.472939 -0.461515 1.84605)
(-0.108068 0.0124125 0.510169)
(-0.327538 0.320636 0.156362)
(-0.447405 0.0983344 0.701291)
(0.343602 -0.108142 1.31289)
(0.1134 -0.236612 1.3749)
(-0.167169 0.451013 0.271631)
(0.185744 -0.621019 1.26939)
(0.381744 -0.587244 2.11521)
(0.440572 -0.193622 1.86978)
(0.250667 0.16463 1.23611)
(0.0276986 0.458563 0.206743)
(0.14695 0.425834 0.396971)
(0.29221 -0.586839 1.40437)
(0.282316 -0.651068 2.30804)
(0.142999 -0.501225 1.96502)
(0.0663851 0.367439 1.14298)
(0.285071 0.315058 0.415576)
(0.436933 0.00888911 1.14568)
(0.304161 -0.521377 2.15199)
(0.292497 -0.810677 2.36012)
(-0.0659984 0.172374 1.24944)
(0.320084 0.180186 0.928325)
(0.662759 -0.0416243 1.24215)
(0.570636 -0.252835 1.34286)
(-0.279067 -0.00826548 0.516548)
(-0.305398 0.286642 0.161056)
(-0.352531 0.165904 0.497636)
(0.116394 -0.0584913 1.35832)
(-0.0499916 -0.33591 1.52913)
(-0.192808 0.4495 0.287634)
(-0.018033 -0.143072 1.2183)
(0.403409 -0.528186 2.18184)
(0.406813 -0.284472 2.02084)
(0.262116 0.0472495 1.44916)
(0.0254529 0.481876 0.223793)
(0.0824149 0.479814 0.412234)
(0.138639 -0.321719 1.1798)
(0.367643 -0.627682 2.31385)
(0.207721 -0.555473 2.17873)
(0.0881524 0.192245 1.40914)
(0.330398 0.389876 0.38168)
(0.474651 -0.0506894 0.933327)
(0.518762 -0.359362 1.89169)
(0.363845 -0.734762 2.32924)
(0.159095 -0.192251 1.80246)
(0.398216 0.117698 0.793486)
(0.693849 -0.0922208 1.12117)
(0.618499 -0.278904 1.29672)
(-0.437732 -0.0366982 0.533977)
(-0.293532 0.264142 0.182132)
(-0.358135 0.215673 0.348448)
(-0.112068 -0.0874816 1.37526)
(-0.138893 -0.403659 1.64634)
(-0.22545 0.434521 0.286454)
(-0.0882366 0.137355 1.15065)
(0.42176 -0.465704 2.18619)
(0.359434 -0.318122 2.16926)
(0.237096 -0.0600969 1.69525)
(0.0299928 0.470549 0.239749)
(0.0292609 0.508717 0.438451)
(0.0593481 -0.195545 1.12026)
(0.382322 -0.601468 2.26356)
(0.209254 -0.502627 2.37341)
(0.0993909 0.0390136 1.75482)
(0.347519 0.446605 0.350136)
(0.497065 -0.100371 0.795282)
(0.48562 -0.315225 1.70001)
(0.466588 -0.588375 2.28173)
(0.222314 -0.35209 2.22292)
(0.525645 0.202118 0.669846)
(0.655473 -0.142281 1.02809)
(0.587496 -0.29356 1.39811)
(-0.562552 -0.0653235 0.531203)
(-0.27335 0.252227 0.219294)
(-0.407935 0.25443 0.276854)
(-0.299514 -0.0747062 1.43126)
(-0.209204 -0.433016 1.75163)
(-0.260677 0.417118 0.287537)
(-0.123277 0.18199 1.05126)
(0.41877 -0.402691 2.12011)
(0.321095 -0.328189 2.29371)
(0.203281 -0.145571 1.91882)
(0.0254861 0.447494 0.221566)
(-0.0587892 0.539476 0.478967)
(0.0348932 -0.170384 1.09822)
(0.369919 -0.484456 2.18061)
(0.216337 -0.411205 2.53445)
(0.121738 -0.076807 2.11165)
(0.339124 0.485714 0.322452)
(0.47134 -0.145094 0.696839)
(0.36372 -0.320814 1.55459)
(0.488029 -0.456154 2.19169)
(0.2188 -0.380334 2.5359)
(0.591698 0.231142 0.568587)
(0.553841 -0.103116 0.937237)
(0.456622 -0.245008 1.42406)
(-0.66644 -0.089746 0.478953)
(-0.23376 0.228124 0.26464)
(-0.464314 0.282624 0.268297)
(-0.425494 -0.000913083 1.44842)
(-0.289985 -0.423686 1.82879)
(-0.266657 0.417666 0.335513)
(-0.248193 0.133079 0.946736)
(0.362689 -0.407278 2.01244)
(0.279098 -0.327824 2.38253)
(0.15736 -0.194082 2.09905)
(0.0242998 0.400917 0.23031)
(-0.180684 0.56076 0.520001)