/*--------------------------------*- C++ -*----------------------------------*\
| =========                 |                                                 |
| \\      /  F ield         | OpenFOAM: The Open Source CFD Toolbox           |
|  \\    /   O peration     | Version:  5.x                                   |
|   \\  /    A nd           | Web:      www.OpenFOAM.org                      |
|    \\/     M anipulation  |                                                 |
\*---------------------------------------------------------------------------*/
FoamFile
{
    version     2.0;
    format      ascii;
    class       volVectorField;
    location    "2";
    object      Us;
}
// * * * * * * * * * * * * * * * * * * * * * * * * * * * * * * * * * * * * * //

dimensions      [0 1 -1 0 0 0 0];

internalField   nonuniform List<vector> 
10571
(
(0.124835 0.0148272 0.0266174)
(0.0175254 -0.00817328 -0.0826984)
(0.10309 0.0058397 0.0548862)
(0.190902 0.0621224 0.095071)
(0.150173 0.0883918 0.110888)
(-0.0498182 0.0707294 -0.0427384)
(0.104788 -0.265008 0.0844682)
(0.166122 -0.554533 0.194762)
(0.103651 -0.202957 0.142406)
(-0.0278467 -0.0586668 0.0395856)
(-0.0167047 -0.164418 0.0405443)
(-0.146877 -0.362121 0.0449644)
(-0.0328301 -0.486835 0.013835)
(0.0963051 -0.509982 0.0177882)
(0.211265 -0.464767 0.111144)
(0.0399852 -0.140064 0.0753476)
(-0.210291 -0.240513 -0.0463879)
(-0.0275417 -0.212843 -0.103877)
(0.0993755 -0.194819 -0.0998116)
(0.263224 -0.172872 -0.054085)
(0.0815477 -0.133662 0.0475076)
(-0.0814667 -0.050229 -0.0856818)
(0.116974 -0.0412704 -0.0847786)
(0.229993 -0.0959692 -0.0495729)
(0.0525727 -0.0159492 0.0801377)
(0.129148 -0.122227 -0.0695696)
(0.128228 -0.0344716 0.161481)
(0.154426 -0.00187868 0.22327)
(0.147804 0.0715798 0.227616)
(0.0944525 -0.0833635 0.0542269)
(0.244925 -0.111539 0.240619)
(0.34839 -0.0674771 0.353518)
(0.221465 -0.00875683 0.340783)
(0.0435143 -0.0388504 0.174267)
(-0.0145917 -0.0215717 0.130672)
(-0.0376571 -0.0862384 0.00496988)
(0.107698 -0.156558 -0.0567743)
(0.201101 -0.114223 -0.0498374)
(0.222033 -0.0757972 0.201616)
(0.0965367 -0.102458 0.22896)
(-0.0605693 -0.121624 0.0110975)
(0.0724201 -0.0889759 -0.154023)
(0.142173 -0.068473 -0.134914)
(0.188343 -0.112867 -0.00172165)
(0.0897621 -0.143605 0.179747)
(0.0281164 -0.0467709 -0.085772)
(0.121316 -0.057964 -0.0954526)
(0.160785 -0.0899706 -0.0268472)
(0.140254 0.0486863 -0.508874)
(0.19883 -0.241443 -0.0415547)
(-0.00417035 -0.21735 -0.107447)
(0.0513259 -0.179737 0.0581292)
(0.126233 -0.0877851 -0.200704)
(0.216899 -0.218962 -0.0465241)
(0.176439 -0.166155 0.202326)
(0.285186 -0.09516 0.339831)
(0.252383 -0.00772198 0.335899)
(0.188409 -0.168966 0.235935)
(-0.0146693 0.0900211 0.284559)
(0.108153 -0.12277 -0.128332)
(0.0877952 -0.0963767 -0.122106)
(0.122244 -0.0450568 -0.118373)
(0.216213 0.0445411 0.285984)
(0.16247 -0.0816341 0.424877)
(0.0176446 -0.0485744 -0.10183)
(0.0840053 -0.0529994 -0.201802)
(0.127821 -0.0577977 -0.173431)
(0.153607 -0.0726566 0.0420941)
(0.0633558 -0.0902311 0.30033)
(0.0500984 -0.0148552 -0.152275)
(0.112197 -0.0361704 -0.154203)
(0.120163 -0.0687007 -0.0456748)
(0 0 0)
(0 0 0)
(-0.0707596 -0.119676 -0.19434)
(0.0384148 -0.135468 -0.0949691)
(0.159524 -0.120687 -0.16524)
(0.191891 -0.22326 -0.0800836)
(0.0373982 -0.054311 0.0535175)
(0.110921 -0.0181108 0.0967691)
(0.0798713 -0.0121789 0.0299657)
(-0.0556055 -0.0718518 -0.155697)
(0.0266866 -0.0393419 -0.104123)
(0.0724485 -0.0922379 -0.194203)
(0.0810194 -0.057701 -0.21702)
(0.0994308 -0.0443706 -0.275901)
(0.147491 0.0938808 0.2586)
(0.183814 -0.117115 0.597937)
(0.0519943 0.00866235 -0.199067)
(0.079714 -0.0163814 -0.239721)
(0.129817 -0.027962 -0.242993)
(0.214904 -0.0741344 -0.0934127)
(0.010508 -0.00268149 0.337012)
(0.0569668 0.00212849 -0.208387)
(0.0902056 -0.0195358 -0.197892)
(0.116938 -0.0518435 -0.0531652)
(0 0 0)
(0.126767 -0.059355 -0.726891)
(0.104747 0.0109699 -0.700083)
(0.0212898 -0.125421 -0.0994925)
(-0.121319 -0.170737 -0.114856)
(-0.334667 -0.0977632 -0.255664)
(-0.157567 -0.110112 -0.240942)
(0.0318005 -0.0961372 -0.236729)
(0.00432599 -0.100462 -0.268693)
(-0.068539 -0.0603339 -0.129355)
(0 0 0)
(0 0 0)
(0.0736214 -0.0288816 -0.325979)
(0.129409 -0.0253167 -0.359886)
(0.115517 -0.0309198 -0.327681)
(-0.0583268 0.0424334 -0.196536)
(-0.000886676 0.0263146 -0.266512)
(0.0843329 0.021524 -0.282736)
(0.133321 0.00396921 -0.324055)
(0.101214 0.0272576 -0.340632)
(-0.0590798 0.0883872 -0.0670416)
(0.0247455 0.00285324 -0.24191)
(0.0708271 -0.00473412 -0.239162)
(-0.0403693 0.0139723 -0.0574619)
(0 0 0)
(0.0313335 -0.0441681 -0.843662)
(0.12317 0.0449345 -0.681158)
(0 0 0)
(0.173817 -0.182667 -0.323864)
(0 0 0)
(-0.0962874 -0.125563 -0.24009)
(0.0610575 -0.168524 -0.21509)
(0.102924 -0.147243 -0.2243)
(-0.0409072 0.0347565 -0.0984647)
(-0.00593515 0.0040539 -0.00313758)
(0.0204687 -0.0592424 -0.691971)
(0 0 0)
(0.0577752 -0.00727722 -0.577242)
(0.125387 -0.0452195 -0.335626)
(0.136588 -0.0464545 -0.265808)
(-0.0125096 0.0121019 -0.16581)
(-0.00291394 -0.00120014 -0.00122058)
(0 0 0)
(0.00773206 -0.0399863 -0.523679)
(0.0834256 -0.00153512 -0.311718)
(0.120873 -0.0107209 -0.287274)
(-0.0557738 0.0830053 -0.0857897)
(-0.129915 -0.0364235 -0.329957)
(0.00285206 0.021576 -0.304459)
(-0.0624185 0.0643414 -0.0122899)
(0 0 0)
(0.0616716 -0.0697849 -0.745572)
(0.140559 -0.0156017 -0.707345)
(0 0 0)
(0 0 0)
(0 0 0)
(0.029938 -0.167061 -0.422222)
(0.094291 -0.187315 -0.145061)
(0.126415 -0.150013 -0.140051)
(0.253278 -0.177398 -0.161398)
(0.229958 -0.123641 -0.329041)
(0 0 0)
(0 0 0)
(-0.0928498 -0.105053 -0.305996)
(0.0204437 -0.0839241 -0.233405)
(0.0632096 -0.0284293 -0.149173)
(0.0226642 -0.0109495 -0.061564)
(0 0 0)
(-0.103084 -0.180934 -0.443602)
(0.0192987 -0.0423684 -0.519783)
(-0.0390278 0.0133364 -0.144952)
(0.0461333 -0.00344093 -0.153652)
(-0.0190022 0.110075 0.0104837)
(0.0824665 -0.00584744 -0.253111)
(-0.157084 -0.0519599 -0.287644)
(-0.0284127 0.0156291 -0.210681)
(-0.128018 0.0715708 0.0637206)
(0 0 0)
(0.0285285 -0.091155 -0.742213)
(0.150499 -0.0146448 -0.694236)
(0 0 0)
(0 0 0)
(-0.0298166 -0.0690859 -0.719098)
(0 0 0)
(-0.0369477 -0.120043 -0.0781189)
(0.146625 -0.161762 -0.108503)
(0 0 0)
(0 0 0)
(-0.0157015 -0.0577519 -0.693272)
(0 0 0)
(0.0190293 0.00685018 -0.643616)
(-0.0312258 -0.0689392 -0.0746712)
(-0.00901523 -0.0171295 -0.0531716)
(-0.0534825 -0.183192 -0.163657)
(0.0688136 -0.185114 -0.221553)
(-0.235886 -0.198194 -0.241171)
(-0.161916 -0.00994417 -0.201336)
(-0.154414 -0.00476175 0.0377977)
(-0.0783422 0.0656143 -0.0746305)
(-0.0460704 0.0895194 -0.0321553)
(0 0 0)
(-0.163097 -0.0975545 -0.259449)
(-0.118819 -0.0174946 -0.0727714)
(-0.0951139 0.0691934 0.0990265)
(0 0 0)
(0.0860285 -0.0724739 -0.671879)
(0.0841593 -0.0563869 -0.693106)
(0 0 0)
(0 0 0)
(0 0 0)
(0.0473989 -0.0407916 -0.63047)
(0 0 0)
(0 0 0)
(0 0 0)
(0 0 0)
(0 0 0)
(-1.91026e-15 -1.60326e-15 -7.49003e-14)
(0 0 0)
(0.0394223 -0.0952503 -0.0512631)
(0.0367651 -0.0554556 0.070516)
(0 0 0)
(0 0 0)
(-0.250872 -0.191591 -0.316394)
(-0.14458 -0.0528584 -0.129803)
(-0.186833 -0.00595562 0.122264)
(-0.111173 0.0149548 0.13654)
(-0.0461091 0.0606835 0.0317842)
(-0.182538 -0.0918295 -0.198077)
(-0.143977 0.0311299 -0.0157491)
(-0.12327 0.0412953 0.147524)
(0 0 0)
(0.0918335 -0.0460677 -0.725038)
(0 0 0)
(0 0 0)
(0 0 0)
(-0.00694029 -0.0717852 -0.673036)
(-0.273578 -0.054539 -0.0739272)
(0 0 0)
(0 0 0)
(0 0 0)
(0 0 0)
(0 0 0)
(0 0 0)
(0.0218304 0.0201354 -0.485466)
(-0.104119 -0.0257504 0.204847)
(0 0 0)
(-0.123797 -0.366486 -0.186224)
(-0.221506 0.00760748 -0.070168)
(-0.192167 0.0171717 0.149686)
(-0.0893217 -0.158067 0.308884)
(0 0 0)
(-0.212747 -0.0620259 -0.0969583)
(-1.55237e-14 5.14598e-15 5.52595e-15)
(-0.135062 0.044935 0.171399)
(0 0 0)
(1.07917e-14 -8.03702e-15 -7.50968e-14)
(0 0 0)
(0 0 0)
(0 0 0)
(0 0 0)
(0 0 0)
(0 0 0)
(0.108577 -0.0348315 -0.354628)
(0 0 0)
(0 0 0)
(0 0 0)
(0 0 0)
(0 0 0)
(-0.139327 -0.101358 0.377244)
(0 0 0)
(0 0 0)
(-0.21155 0.0241465 0.00892578)
(-0.16752 0.0147628 0.213011)
(0 0 0)
(0 0 0)
(-0.208268 -0.0667737 -0.0850967)
(-0.179571 0.0731139 0.152775)
(-0.103861 0.0194372 0.248998)
(0 0 0)
(0.104163 -0.0702393 -0.655308)
(0 0 0)
(0 0 0)
(0 0 0)
(-0.0160859 -0.0722157 -0.647059)
(0 0 0)
(0 0 0)
(0.108577 -0.0348315 -0.354628)
(0 0 0)
(0 0 0)
(-3.26282e-15 -3.18063e-15 -6.47452e-14)
(0 0 0)
(0 0 0)
(-0.0850038 -0.103146 0.315497)
(0 0 0)
(0 0 0)
(-0.155766 -0.165616 -0.0271366)
(-0.141946 -0.0133653 0.221255)
(-0.128816 -0.0385507 0.303592)
(0 0 0)
(-0.186324 -0.0819251 -0.0225886)
(-0.186701 0.131872 0.19991)
(-0.107643 0.0551917 0.324831)
(0 0 0)
(0 0 0)
(0 0 0)
(0 0 0)
(0 0 0)
(1.21928e-15 -8.91524e-15 -6.96603e-14)
(0 0 0)
(0 0 0)
(0 0 0)
(0 0 0)
(0 0 0)
(0 0 0)
(0 0 0)
(0 0 0)
(-0.102658 -0.0711512 0.367547)
(0 0 0)
(0 0 0)
(-0.204314 -0.0711926 0.0858396)
(-0.077507 0.0208656 0.378307)
(0 0 0)
(0 0 0)
(-0.212714 -0.101498 0.0341154)
(-0.150359 -0.0269431 0.231287)
(-0.111782 0.0477893 0.368994)
(0 0 0)
(0 0 0)
(0 0 0)
(0 0 0)
(0 0 0)
(0 0 0)
(0 0 0)
(0 0 0)
(0 0 0)
(0 0 0)
(0 0 0)
(1.96205e-15 -6.37666e-15 -5.77964e-14)
(0 0 0)
(0 0 0)
(-0.0826971 -0.127294 0.51202)
(0 0 0)
(0 0 0)
(-0.190784 -0.169422 0.059074)
(-0.123679 0.0436561 0.395359)
(-0.084691 -0.0152074 0.463352)
(0 0 0)
(-0.170143 -0.146809 0.0958065)
(0 0 0)
(-0.176228 -0.00400451 0.270814)
(0 0 0)
(0 0 0)
(0 0 0)
(0 0 0)
(0 0 0)
(0 0 0)
(0 0 0)
(0 0 0)
(0 0 0)
(0 0 0)
(0 0 0)
(-0.0155648 -0.0587248 -0.499789)
(0 0 0)
(-0.151267 0.0373745 0.316942)
(-0.062917 -0.0670096 0.617224)
(0 0 0)
(0 0 0)
(-0.194766 -0.064495 0.254526)
(-0.149544 0.0136338 0.467594)
(-0.0190039 -0.0584335 0.505937)
(0.0393192 -0.0713029 0.506467)
(-0.193605 -0.0870265 0.141899)
(-1.74947e-14 -1.3901e-14 3.62143e-14)
(-0.122282 0.105364 0.501736)
(0 0 0)
(0 0 0)
(0 0 0)
(0 0 0)
(0 0 0)
(0 0 0)
(0 0 0)
(0 0 0)
(0 0 0)
(0 0 0)
(0 0 0)
(-0.0058502 -0.0642011 -0.476002)
(0 0 0)
(0 0 0)
(-0.0425739 -0.0894197 0.667833)
(0 0 0)
(-0.0298741 -0.00570341 -0.460454)
(-0.227434 -0.0676782 0.290341)
(-0.147886 0.023833 0.529539)
(0 0 0)
(0 0 0)
(-0.233639 -0.068309 0.23451)
(-1.41352e-14 3.14606e-16 3.83935e-14)
(-1.09935e-14 1.52742e-14 5.70496e-14)
(0 0 0)
(0 0 0)
(0 0 0)
(0 0 0)
(0 0 0)
(0 0 0)
(0 0 0)
(0 0 0)
(0 0 0)
(0 0 0)
(0 0 0)
(0 0 0)
(0 0 0)
(0 0 0)
(0 0 0)
(0 0 0)
(-0.0218363 -0.0117172 -0.433782)
(-0.225453 0.0195675 0.45254)
(-0.149794 0.028427 0.538959)
(0 0 0)
(0.0105515 -0.0115259 0.667879)
(-0.20126 -0.0838923 0.280305)
(-0.188605 0.0817792 0.502491)
(-0.125117 0.0277221 0.5662)
(0 0 0)
(0 0 0)
(0 0 0)
(0 0 0)
(0 0 0)
(0 0 0)
(0 0 0)
(0 0 0)
(0 0 0)
(0 0 0)
(-2.63361e-15 -7.54797e-15 -4.91938e-14)
(0 0 0)
(0 0 0)
(0 0 0)
(-0.0280273 -0.0224713 0.679491)
(0 0 0)
(0 0 0)
(-0.196923 0.104738 0.549989)
(-0.124143 0.103744 0.5974)
(0 0 0)
(0 0 0)
(-0.221848 -0.0616043 0.392828)
(-0.19396 0.0589226 0.471559)
(-0.130988 0.0805038 0.677831)
(0 0 0)
(0 0 0)
(0 0 0)
(0 0 0)
(0 0 0)
(0 0 0)
(0 0 0)
(0 0 0)
(0 0 0)
(0 0 0)
(0 0 0)
(0 0 0)
(0 0 0)
(0 0 0)
(-0.0280273 -0.0224713 0.679491)
(0 0 0)
(0 0 0)
(0 0 0)
(-0.0882481 0.0326566 0.719096)
(0 0 0)
(0 0 0)
(-0.219354 -0.131417 0.427393)
(-0.235813 -0.00340125 0.659209)
(-0.145122 0.0667158 0.633046)
(0 0 0)
(0 0 0)
(0 0 0)
(0 0 0)
(0 0 0)
(0 0 0)
(0 0 0)
(0 0 0)
(0 0 0)
(0 0 0)
(0 0 0)
(0 0 0)
(0 0 0)
(0 0 0)
(0 0 0)
(0 0 0)
(-0.0180849 -0.0371808 -0.372601)
(-0.224594 0.0497556 0.674203)
(-0.106381 0.0784885 0.546496)
(-8.12822e-15 5.13668e-16 1.02044e-13)
(0 0 0)
(0 0 0)
(-0.200768 0.032513 0.589653)
(-0.135471 0.0770076 0.696683)
(0 0 0)
(0 0 0)
(0 0 0)
(0 0 0)
(0 0 0)
(0 0 0)
(0 0 0)
(0 0 0)
(0 0 0)
(0 0 0)
(0 0 0)
(0 0 0)
(0 0 0)
(0 0 0)
(0 0 0)
(0 0 0)
(-1.84168e-15 -1.51837e-15 -3.60799e-14)
(-0.224662 0.105607 0.745476)
(-0.180098 0.121787 0.810474)
(0 0 0)
(0 0 0)
(-0.295023 0.126342 0.690446)
(-0.206658 0.0958061 0.745493)
(-0.102157 0.136865 0.8096)
(0 0 0)
(0 0 0)
(0 0 0)
(0 0 0)
(0 0 0)
(0 0 0)
(0 0 0)
(0 0 0)
(0 0 0)
(0 0 0)
(0 0 0)
(0 0 0)
(0 0 0)
(0 0 0)
(0 0 0)
(0 0 0)
(0 0 0)
(0.0283873 0.0115226 -0.236713)
(0 0 0)
(0 0 0)
(0 0 0)
(0.0597378 0.0410195 -0.238617)
(-0.185005 0.0495341 0.764955)
(-0.106017 0.126482 0.848839)
(0 0 0)
(0 0 0)
(0 0 0)
(0 0 0)
(0 0 0)
(0 0 0)
(0 0 0)
(0 0 0)
(0 0 0)
(0 0 0)
(0 0 0)
(0 0 0)
(0 0 0)
(0 0 0)
(0 0 0)
(0 0 0)
(0 0 0)
(-0.250689 0.0962376 0.821443)
(-0.15245 0.0362313 0.913811)
(0 0 0)
(0 0 0)
(0 0 0)
(-0.193861 0.107118 0.823939)
(0 0 0)
(0 0 0)
(0 0 0)
(0 0 0)
(0 0 0)
(0 0 0)
(0 0 0)
(0 0 0)
(0 0 0)
(0 0 0)
(0 0 0)
(0 0 0)
(0 0 0)
(0 0 0)
(0 0 0)
(0 0 0)
(0 0 0)
(0 0 0)
(0 0 0)
(-0.178314 0.0654456 0.923136)
(0 0 0)
(0 0 0)
(0 0 0)
(-0.20536 0.0657113 0.866321)
(0 0 0)
(0 0 0)
(0 0 0)
(0 0 0)
(0 0 0)
(0 0 0)
(0 0 0)
(0 0 0)
(0 0 0)
(0 0 0)
(0 0 0)
(0 0 0)
(0 0 0)
(0 0 0)
(0 0 0)
(0 0 0)
(0 0 0)
(0 0 0)
(0 0 0)
(0 0 0)
(-0.122893 0.0516628 1.04037)
(0 0 0)
(0 0 0)
(-0.223273 0.0562024 0.919452)
(-1.85078e-14 1.07182e-14 1.10483e-13)
(0 0 0)
(0 0 0)
(0 0 0)
(0 0 0)
(0 0 0)
(0 0 0)
(0 0 0)
(0 0 0)
(0 0 0)
(0 0 0)
(0 0 0)
(0 0 0)
(0 0 0)
(0 0 0)
(0 0 0)
(0 0 0)
(0 0 0)
(0 0 0)
(0 0 0)
(0 0 0)
(0 0 0)
(0 0 0)
(0 0 0)
(0 0 0)
(0 0 0)
(0 0 0)
(0 0 0)
(0 0 0)
(0 0 0)
(0 0 0)
(0 0 0)
(0 0 0)
(0 0 0)
(0 0 0)
(0 0 0)
(0 0 0)
(0 0 0)
(0 0 0)
(0 0 0)
(0 0 0)
(0 0 0)
(0 0 0)
(0 0 0)
(0 0 0)
(0 0 0)
(0 0 0)
(0 0 0)
(0 0 0)
(0 0 0)
(0 0 0)
(0 0 0)
(0 0 0)
(0 0 0)
(0 0 0)
(0 0 0)
(0 0 0)
(0 0 0)
(0 0 0)
(0 0 0)
(0 0 0)
(0 0 0)
(0 0 0)
(0 0 0)
(0 0 0)
(0 0 0)
(0 0 0)
(0 0 0)
(0 0 0)
(0 0 0)
(0 0 0)
(0 0 0)
(0 0 0)
(0 0 0)
(0 0 0)
(0 0 0)
(0 0 0)
(0 0 0)
(0 0 0)
(0 0 0)
(0 0 0)
(0 0 0)
(0 0 0)
(0 0 0)
(0 0 0)
(0 0 0)
(0 0 0)
(0 0 0)
(0 0 0)
(0 0 0)
(0 0 0)
(0 0 0)
(0 0 0)
(0 0 0)
(0 0 0)
(0 0 0)
(0 0 0)
(0 0 0)
(0 0 0)
(0 0 0)
(0 0 0)
(0 0 0)
(0 0 0)
(0 0 0)
(0 0 0)
(0 0 0)
(0 0 0)
(0 0 0)
(0 0 0)
(0 0 0)
(0 0 0)
(0 0 0)
(0 0 0)
(0 0 0)
(0 0 0)
(0 0 0)
(0 0 0)
(0 0 0)
(0 0 0)
(0 0 0)
(0 0 0)
(0 0 0)
(0 0 0)
(0 0 0)
(0 0 0)
(0 0 0)
(0 0 0)
(0 0 0)
(0 0 0)
(0 0 0)
(0 0 0)
(0 0 0)
(0 0 0)
(0 0 0)
(0 0 0)
(0 0 0)
(0 0 0)
(0 0 0)
(0 0 0)
(0 0 0)
(0 0 0)
(0 0 0)
(0 0 0)
(0 0 0)
(0 0 0)
(0 0 0)
(0 0 0)
(0 0 0)
(0 0 0)
(0 0 0)
(0 0 0)
(0 0 0)
(0 0 0)
(0 0 0)
(0 0 0)
(0 0 0)
(0 0 0)
(0 0 0)
(0 0 0)
(0 0 0)
(0 0 0)
(0 0 0)
(0 0 0)
(0 0 0)
(0 0 0)
(0 0 0)
(0 0 0)
(0 0 0)
(0 0 0)
(0 0 0)
(0 0 0)
(0 0 0)
(0 0 0)
(0 0 0)
(0 0 0)
(0 0 0)
(0 0 0)
(0 0 0)
(0 0 0)
(0 0 0)
(0 0 0)
(0 0 0)
(0 0 0)
(0 0 0)
(0 0 0)
(0 0 0)
(0 0 0)
(0 0 0)
(0 0 0)
(0 0 0)
(0 0 0)
(0 0 0)
(0 0 0)
(0 0 0)
(0 0 0)
(0 0 0)
(0 0 0)
(0 0 0)
(0 0 0)
(0 0 0)
(0 0 0)
(0 0 0)
(0 0 0)
(0 0 0)
(0 0 0)
(0 0 0)
(0 0 0)
(0 0 0)
(0 0 0)
(0 0 0)
(0 0 0)
(0 0 0)
(0 0 0)
(0 0 0)
(0 0 0)
(0 0 0)
(0 0 0)
(0 0 0)
(0 0 0)
(0 0 0)
(0 0 0)
(0 0 0)
(0 0 0)
(0 0 0)
(0 0 0)
(0 0 0)
(0 0 0)
(0 0 0)
(0 0 0)
(0 0 0)
(0 0 0)
(0 0 0)
(0 0 0)
(0 0 0)
(0 0 0)
(0 0 0)
(0 0 0)
(0 0 0)
(0 0 0)
(0 0 0)
(0 0 0)
(0 0 0)
(0 0 0)
(0 0 0)
(0 0 0)
(0 0 0)
(0 0 0)
(0 0 0)
(0 0 0)
(0 0 0)
(0 0 0)
(0 0 0)
(0 0 0)
(0 0 0)
(0 0 0)
(0 0 0)
(0 0 0)
(0 0 0)
(0 0 0)
(0 0 0)
(0 0 0)
(0 0 0)
(0 0 0)
(0 0 0)
(0 0 0)
(0 0 0)
(0 0 0)
(0 0 0)
(0 0 0)
(0 0 0)
(0 0 0)
(0 0 0)
(0 0 0)
(0 0 0)
(0 0 0)
(0 0 0)
(0 0 0)
(0 0 0)
(0 0 0)
(0 0 0)
(0 0 0)
(0 0 0)
(0 0 0)
(0 0 0)
(0 0 0)
(0 0 0)
(0 0 0)
(0 0 0)
(0 0 0)
(0 0 0)
(0 0 0)
(0 0 0)
(0 0 0)
(0 0 0)
(0 0 0)
(0 0 0)
(0 0 0)
(0 0 0)
(0 0 0)
(0 0 0)
(0 0 0)
(0 0 0)
(0 0 0)
(0 0 0)
(0 0 0)
(0 0 0)
(0 0 0)
(0 0 0)
(0 0 0)
(0 0 0)
(0 0 0)
(0 0 0)
(0 0 0)
(0 0 0)
(0 0 0)
(0 0 0)
(0 0 0)
(0 0 0)
(0 0 0)
(0 0 0)
(0 0 0)
(0 0 0)
(0 0 0)
(0 0 0)
(0 0 0)
(0 0 0)
(0 0 0)
(0 0 0)
(0 0 0)
(0 0 0)
(0 0 0)
(0 0 0)
(0 0 0)
(0 0 0)
(0 0 0)
(0 0 0)
(0 0 0)
(0 0 0)
(0 0 0)
(0 0 0)
(0 0 0)
(0 0 0)
(0 0 0)
(0 0 0)
(0 0 0)
(0 0 0)
(0 0 0)
(0 0 0)
(0 0 0)
(0 0 0)
(0 0 0)
(0 0 0)
(0 0 0)
(0 0 0)
(0 0 0)
(0 0 0)
(0 0 0)
(0 0 0)
(0 0 0)
(0 0 0)
(0 0 0)
(0 0 0)
(0 0 0)
(0 0 0)
(0 0 0)
(0 0 0)
(0 0 0)
(0 0 0)
(0 0 0)
(0 0 0)
(0 0 0)
(0 0 0)
(0 0 0)
(0 0 0)
(0 0 0)
(0 0 0)
(0 0 0)
(0 0 0)
(0 0 0)
(0 0 0)
(0 0 0)
(0 0 0)
(0 0 0)
(0 0 0)
(0 0 0)
(0 0 0)
(0 0 0)
(0 0 0)
(0 0 0)
(0 0 0)
(0 0 0)
(0 0 0)
(0 0 0)
(0 0 0)
(0 0 0)
(0 0 0)
(0 0 0)
(0 0 0)
(0 0 0)
(0 0 0)
(0 0 0)
(0 0 0)
(0 0 0)
(0 0 0)
(0 0 0)
(0 0 0)
(0 0 0)
(0 0 0)
(0 0 0)
(0 0 0)
(0 0 0)
(0 0 0)
(0 0 0)
(0 0 0)
(0 0 0)
(0 0 0)
(0 0 0)
(0 0 0)
(0 0 0)
(0 0 0)
(0 0 0)
(0 0 0)
(0 0 0)
(0 0 0)
(0 0 0)
(0 0 0)
(0 0 0)
(0 0 0)
(0 0 0)
(0 0 0)
(0 0 0)
(0 0 0)
(0 0 0)
(0 0 0)
(0 0 0)
(0 0 0)
(0 0 0)
(0 0 0)
(0 0 0)
(0 0 0)
(0 0 0)
(0 0 0)
(0 0 0)
(0 0 0)
(0 0 0)
(0 0 0)
(0 0 0)
(0 0 0)
(0 0 0)
(0 0 0)
(0 0 0)
(0 0 0)
(0 0 0)
(0 0 0)
(0 0 0)
(0 0 0)
(0 0 0)
(0 0 0)
(0 0 0)
(0 0 0)
(0 0 0)
(0 0 0)
(0 0 0)
(0 0 0)
(0 0 0)
(0 0 0)
(0 0 0)
(0 0 0)
(0 0 0)
(0 0 0)
(0 0 0)
(0 0 0)
(0 0 0)
(0 0 0)
(0 0 0)
(0 0 0)
(0 0 0)
(0 0 0)
(0 0 0)
(0 0 0)
(0 0 0)
(0 0 0)
(0 0 0)
(0 0 0)
(0 0 0)
(0 0 0)
(0 0 0)
(0 0 0)
(0 0 0)
(0 0 0)
(0 0 0)
(0 0 0)
(0 0 0)
(0 0 0)
(0 0 0)
(0 0 0)
(0 0 0)
(0 0 0)
(0 0 0)
(0 0 0)
(0 0 0)
(0 0 0)
(0 0 0)
(0 0 0)
(0 0 0)
(0 0 0)
(0 0 0)
(0 0 0)
(0 0 0)
(0 0 0)
(0 0 0)
(0 0 0)
(0 0 0)
(0 0 0)
(0 0 0)
(0 0 0)
(0 0 0)
(0 0 0)
(0 0 0)
(0 0 0)
(0 0 0)
(0 0 0)
(0 0 0)
(0 0 0)
(0 0 0)
(0 0 0)
(0 0 0)
(0 0 0)
(0 0 0)
(0 0 0)
(0 0 0)
(0 0 0)
(0 0 0)
(0 0 0)
(0 0 0)
(0 0 0)
(0 0 0)
(0 0 0)
(0 0 0)
(0 0 0)
(0 0 0)
(0 0 0)
(0 0 0)
(0 0 0)
(0 0 0)
(0 0 0)
(0 0 0)
(0 0 0)
(0 0 0)
(0 0 0)
(0 0 0)
(0 0 0)
(0 0 0)
(0 0 0)
(0 0 0)
(0 0 0)
(0 0 0)
(0 0 0)
(0 0 0)
(0 0 0)
(0 0 0)
(0 0 0)
(0 0 0)
(0 0 0)
(0 0 0)
(0 0 0)
(0 0 0)
(0 0 0)
(0 0 0)
(0 0 0)
(0 0 0)
(0 0 0)
(0 0 0)
(0 0 0)
(0 0 0)
(0 0 0)
(0 0 0)
(0 0 0)
(0 0 0)
(0 0 0)
(0 0 0)
(0 0 0)
(0 0 0)
(0 0 0)
(0 0 0)
(0 0 0)
(0 0 0)
(0 0 0)
(0 0 0)
(0 0 0)
(0 0 0)
(0 0 0)
(0 0 0)
(0 0 0)
(0 0 0)
(0 0 0)
(0 0 0)
(0 0 0)
(0 0 0)
(0 0 0)
(0 0 0)
(0 0 0)
(0 0 0)
(0 0 0)
(0 0 0)
(0 0 0)
(0 0 0)
(0 0 0)
(0 0 0)
(0 0 0)
(0 0 0)
(0 0 0)
(0 0 0)
(0 0 0)
(0 0 0)
(0 0 0)
(0 0 0)
(0 0 0)
(0 0 0)
(0 0 0)
(0 0 0)
(0 0 0)
(0 0 0)
(0 0 0)
(0 0 0)
(0 0 0)
(0 0 0)
(0 0 0)
(0 0 0)
(0 0 0)
(0 0 0)
(0 0 0)
(0 0 0)
(0 0 0)
(0 0 0)
(0 0 0)
(0 0 0)
(0 0 0)
(0 0 0)
(0 0 0)
(0 0 0)
(0 0 0)
(0 0 0)
(0 0 0)
(0 0 0)
(0 0 0)
(0 0 0)
(0 0 0)
(0 0 0)
(0 0 0)
(0 0 0)
(0 0 0)
(0 0 0)
(0 0 0)
(0 0 0)
(0 0 0)
(0 0 0)
(0 0 0)
(0 0 0)
(0 0 0)
(0 0 0)
(0 0 0)
(0 0 0)
(0 0 0)
(0 0 0)
(0 0 0)
(0 0 0)
(0 0 0)
(0 0 0)
(0 0 0)
(0 0 0)
(0 0 0)
(0 0 0)
(0 0 0)
(0 0 0)
(0 0 0)
(0 0 0)
(0 0 0)
(0 0 0)
(0 0 0)
(0 0 0)
(0 0 0)
(0 0 0)
(0 0 0)
(0 0 0)
(0 0 0)
(0 0 0)
(0 0 0)
(0 0 0)
(0 0 0)
(0 0 0)
(0 0 0)
(0 0 0)
(0 0 0)
(0 0 0)
(0 0 0)
(0 0 0)
(0 0 0)
(0 0 0)
(0 0 0)
(0 0 0)
(0 0 0)
(0 0 0)
(0 0 0)
(0 0 0)
(0 0 0)
(0 0 0)
(0 0 0)
(0 0 0)
(0 0 0)
(0 0 0)
(0 0 0)
(0 0 0)
(0 0 0)
(0 0 0)
(0 0 0)
(0 0 0)
(0 0 0)
(0 0 0)
(0 0 0)
(0 0 0)
(0 0 0)
(0 0 0)
(0 0 0)
(0 0 0)
(0 0 0)
(0 0 0)
(0 0 0)
(0 0 0)
(0 0 0)
(0 0 0)
(0 0 0)
(0 0 0)
(0 0 0)
(0 0 0)
(0 0 0)
(0 0 0)
(0 0 0)
(0 0 0)
(0 0 0)
(0 0 0)
(0 0 0)
(0 0 0)
(0 0 0)
(0 0 0)
(0 0 0)
(0 0 0)
(0 0 0)
(0 0 0)
(0 0 0)
(0 0 0)
(0 0 0)
(0 0 0)
(0 0 0)
(0 0 0)
(0 0 0)
(0 0 0)
(0 0 0)
(0 0 0)
(0 0 0)
(0 0 0)
(0 0 0)
(0 0 0)
(0 0 0)
(0 0 0)
(0 0 0)
(0 0 0)
(0 0 0)
(0 0 0)
(0 0 0)
(0 0 0)
(0 0 0)
(0 0 0)
(0 0 0)
(0 0 0)
(0 0 0)
(0 0 0)
(0 0 0)
(0 0 0)
(0 0 0)
(0 0 0)
(0 0 0)
(0 0 0)
(0 0 0)
(0 0 0)
(0 0 0)
(0 0 0)
(0 0 0)
(0 0 0)
(0 0 0)
(0 0 0)
(0 0 0)
(0 0 0)
(0 0 0)
(0 0 0)
(0 0 0)
(0 0 0)
(0 0 0)
(0 0 0)
(0 0 0)
(0 0 0)
(0 0 0)
(0 0 0)
(0 0 0)
(0 0 0)
(0 0 0)
(0 0 0)
(0 0 0)
(0 0 0)
(0 0 0)
(0 0 0)
(0 0 0)
(0 0 0)
(0 0 0)
(0 0 0)
(0 0 0)
(0 0 0)
(0 0 0)
(0 0 0)
(0 0 0)
(0 0 0)
(0 0 0)
(0 0 0)
(0 0 0)
(0 0 0)
(0 0 0)
(0 0 0)
(0 0 0)
(0 0 0)
(0 0 0)
(0 0 0)
(0 0 0)
(0 0 0)
(0 0 0)
(0 0 0)
(0 0 0)
(0 0 0)
(0 0 0)
(0 0 0)
(0 0 0)
(0 0 0)
(0 0 0)
(0 0 0)
(0 0 0)
(0 0 0)
(0 0 0)
(0 0 0)
(0 0 0)
(0 0 0)
(0 0 0)
(0 0 0)
(0 0 0)
(0 0 0)
(0 0 0)
(0 0 0)
(0 0 0)
(0 0 0)
(0 0 0)
(0 0 0)
(0 0 0)
(0 0 0)
(0 0 0)
(0 0 0)
(0 0 0)
(0 0 0)
(0 0 0)
(0 0 0)
(0 0 0)
(0 0 0)
(0 0 0)
(0 0 0)
(0 0 0)
(0 0 0)
(0 0 0)
(0 0 0)
(0 0 0)
(0 0 0)
(0 0 0)
(0 0 0)
(0 0 0)
(0 0 0)
(0 0 0)
(0 0 0)
(0 0 0)
(0 0 0)
(0 0 0)
(0 0 0)
(0 0 0)
(0 0 0)
(0 0 0)
(0 0 0)
(0 0 0)
(0 0 0)
(0 0 0)
(0 0 0)
(0 0 0)
(0 0 0)
(0 0 0)
(0 0 0)
(0 0 0)
(0 0 0)
(0 0 0)
(0 0 0)
(0 0 0)
(0 0 0)
(0 0 0)
(0 0 0)
(0 0 0)
(0 0 0)
(0 0 0)
(0 0 0)
(0 0 0)
(0 0 0)
(0 0 0)
(0 0 0)
(0 0 0)
(0 0 0)
(0 0 0)
(0 0 0)
(0 0 0)
(0 0 0)
(0 0 0)
(0 0 0)
(0 0 0)
(0 0 0)
(0 0 0)
(0 0 0)
(0 0 0)
(0 0 0)
(0 0 0)
(0 0 0)
(0 0 0)
(0 0 0)
(0 0 0)
(0 0 0)
(0 0 0)
(0 0 0)
(0 0 0)
(0 0 0)
(0 0 0)
(0 0 0)
(0 0 0)
(0 0 0)
(0 0 0)
(0 0 0)
(0 0 0)
(0 0 0)
(0 0 0)
(0 0 0)
(0 0 0)
(0 0 0)
(0 0 0)
(0 0 0)
(0 0 0)
(0 0 0)
(0 0 0)
(0 0 0)
(0 0 0)
(0 0 0)
(0 0 0)
(0 0 0)
(0 0 0)
(0 0 0)
(0 0 0)
(0 0 0)
(0 0 0)
(0 0 0)
(0 0 0)
(0 0 0)
(0 0 0)
(0 0 0)
(0 0 0)
(0 0 0)
(0 0 0)
(0 0 0)
(0 0 0)
(0 0 0)
(0 0 0)
(0 0 0)
(0 0 0)
(0 0 0)
(0 0 0)
(0 0 0)
(0 0 0)
(0 0 0)
(0 0 0)
(0 0 0)
(0 0 0)
(0 0 0)
(0 0 0)
(0 0 0)
(0 0 0)
(0 0 0)
(0 0 0)
(0 0 0)
(0 0 0)
(0 0 0)
(0 0 0)
(0 0 0)
(0 0 0)
(0 0 0)
(0 0 0)
(0 0 0)
(0 0 0)
(0 0 0)
(0 0 0)
(0 0 0)
(0 0 0)
(0 0 0)
(0 0 0)
(0 0 0)
(0 0 0)
(0 0 0)
(0 0 0)
(0 0 0)
(0 0 0)
(0 0 0)
(0 0 0)
(0 0 0)
(0 0 0)
(0 0 0)
(0 0 0)
(0 0 0)
(0 0 0)
(0 0 0)
(0 0 0)
(0 0 0)
(0 0 0)
(0 0 0)
(0 0 0)
(0 0 0)
(0 0 0)
(0 0 0)
(0 0 0)
(0 0 0)
(0 0 0)
(0 0 0)
(0 0 0)
(0 0 0)
(0 0 0)
(0 0 0)
(0 0 0)
(0 0 0)
(0 0 0)
(0 0 0)
(0 0 0)
(0 0 0)
(0 0 0)
(0 0 0)
(0 0 0)
(0 0 0)
(0 0 0)
(0 0 0)
(0 0 0)
(0 0 0)
(0 0 0)
(0 0 0)
(0 0 0)
(0 0 0)
(0 0 0)
(0 0 0)
(0 0 0)
(0 0 0)
(0 0 0)
(0 0 0)
(0 0 0)
(0 0 0)
(0 0 0)
(0 0 0)
(0 0 0)
(0 0 0)
(0 0 0)
(0 0 0)
(0 0 0)
(0 0 0)
(0 0 0)
(0 0 0)
(0 0 0)
(0 0 0)
(0 0 0)
(0 0 0)
(0 0 0)
(0 0 0)
(0 0 0)
(0 0 0)
(0 0 0)
(0 0 0)
(0 0 0)
(0 0 0)
(0 0 0)
(0 0 0)
(0 0 0)
(0 0 0)
(0 0 0)
(0 0 0)
(0 0 0)
(0 0 0)
(0 0 0)
(0 0 0)
(0 0 0)
(0 0 0)
(0 0 0)
(0 0 0)
(0 0 0)
(0 0 0)
(0 0 0)
(0 0 0)
(0 0 0)
(0 0 0)
(0 0 0)
(0 0 0)
(0 0 0)
(0 0 0)
(0 0 0)
(0 0 0)
(0 0 0)
(0 0 0)
(0 0 0)
(0 0 0)
(0 0 0)
(0 0 0)
(0 0 0)
(0 0 0)
(0 0 0)
(0 0 0)
(0 0 0)
(0 0 0)
(0 0 0)
(0 0 0)
(0 0 0)
(0 0 0)
(0 0 0)
(0 0 0)
(0 0 0)
(0 0 0)
(0 0 0)
(0 0 0)
(0 0 0)
(0 0 0)
(0 0 0)
(0 0 0)
(0 0 0)
(0 0 0)
(0 0 0)
(0 0 0)
(0 0 0)
(0 0 0)
(0 0 0)
(0 0 0)
(0 0 0)
(0 0 0)
(0 0 0)
(0 0 0)
(0 0 0)
(0 0 0)
(0 0 0)
(0 0 0)
(0 0 0)
(0 0 0)
(0 0 0)
(0 0 0)
(0 0 0)
(0 0 0)
(0 0 0)
(0 0 0)
(0 0 0)
(0 0 0)
(0 0 0)
(0 0 0)
(0 0 0)
(0 0 0)
(0 0 0)
(0 0 0)
(0 0 0)
(0 0 0)
(0 0 0)
(0 0 0)
(0 0 0)
(0 0 0)
(0 0 0)
(0 0 0)
(0 0 0)
(0 0 0)
(0 0 0)
(0 0 0)
(0 0 0)
(0 0 0)
(0 0 0)
(0 0 0)
(0 0 0)
(0 0 0)
(0 0 0)
(0 0 0)
(0 0 0)
(0 0 0)
(0 0 0)
(0 0 0)
(0 0 0)
(0 0 0)
(0 0 0)
(0 0 0)
(0 0 0)
(0 0 0)
(0 0 0)
(0 0 0)
(0 0 0)
(0 0 0)
(0 0 0)
(0 0 0)
(0 0 0)
(0.00753667 -0.000667921 -0.00188297)
(0.0207212 0.00545795 -0.00356696)
(0.00620161 0.0139718 -0.00512396)
(0.0264174 0.0168057 -0.00756229)
(0.0394427 0.0185564 -0.00633023)
(0.0780299 0.0325759 -0.0069048)
(0.106248 0.0519726 -0.00473348)
(0.0884811 0.0509509 -0.00905326)
(-0.0131041 0.00886565 -0.00413668)
(0.00319761 0.000388281 -0.0037466)
(0.00510288 0.00100493 -0.00256581)
(-0.0171192 0.0162222 -0.0120871)
(0.0289268 0.0368506 -0.0098648)
(0.0256334 0.037993 -0.00528528)
(0.0547982 0.0569163 -0.004012)
(0.0623764 0.0739058 -0.0089136)
(0.0893496 0.0993102 -0.00470721)
(0.10035 0.0736367 -0.00774578)
(0.151668 0.0834562 -0.00478031)
(0.110489 0.127042 -0.00502378)
(0.154867 0.136753 -0.00629766)
(0.160948 0.0888832 -0.0355522)
(0.0669585 0.0439693 -0.0212945)
(0.182591 0.128264 -0.0624942)
(0.0348068 -0.00789079 -0.0045529)
(-0.0167853 -0.0443105 -0.000978378)
(-0.00991488 0.00607028 -0.00145183)
(0.00381361 -0.031733 0.00327968)
(-0.00285342 -0.0269715 0.00419668)
(-0.0166006 0.0206878 -0.0027532)
(0.0466697 0.0491282 -0.00158037)
(-0.0487777 -0.105383 0.0189583)
(-0.0397668 -0.276757 0.0335804)
(0.0883565 -0.058972 0.00896033)
(0.11252 -0.0824949 0.0208742)
(0.0201412 -0.302438 0.0560458)
(0.0727025 -0.276353 0.0523303)
(0.135158 -0.0872978 0.0208379)
(0.144254 -0.176307 0.024247)
(0.116487 -0.288764 0.0437768)
(0.156257 -0.350636 0.0296658)
(0.115308 -0.261403 0.0167697)
(-0.0495727 -0.227174 0.0446294)
(0.11049 -0.299713 0.0209861)
(0.0176421 -0.253847 0.0341818)
(-0.0625052 -0.121344 0.000826084)
(-0.0548324 -0.177118 0.028107)
(-0.0398042 -0.0941804 0.0212123)
(-0.00122436 -0.0535692 -0.000307371)
(-0.0117464 -0.148434 0.0118958)
(-0.0638133 -0.189197 0.00379886)
(-0.135525 -0.341432 0.019366)
(-0.109434 -0.425491 0.0381335)
(-0.146812 -0.32422 0.000661631)
(-0.130855 -0.401699 -0.0330717)
(-0.0800853 -0.563305 -0.00558605)
(-0.0155956 -0.566684 -0.0023867)
(-0.0555084 -0.393158 -0.0217967)
(0.0108478 -0.388381 -0.0284419)
(0.0599291 -0.535841 -0.0269944)
(0.117808 -0.514714 -0.0271242)
(0.0693633 -0.377886 -0.0339566)
(0.146932 -0.371392 -0.0359444)
(0.136058 -0.441169 -0.0164823)
(0.0217561 -0.239372 0.0471027)
(0.186478 -0.351574 -0.0278435)
(0.0657639 -0.20816 0.0333225)
(-0.0195417 -0.133722 0.0422973)
(-0.0172839 -0.0866189 0.0231159)
(0.00685594 -0.0821497 0.0235402)
(-0.0632181 -0.133786 -0.00700191)
(-0.112719 -0.182525 -0.0167353)
(-0.101681 -0.211089 -0.036309)
(-0.0572081 -0.0770546 -0.009031)
(-0.0822372 -0.102989 -0.0131413)
(-0.0571133 -0.241026 -0.047701)
(0.0163797 -0.251622 -0.0485512)
(-0.079086 -0.137211 -0.0494105)
(0.0182386 -0.139454 -0.0809308)
(0.0832559 -0.237556 -0.0583629)
(0.158117 -0.235691 -0.0331746)
(0.0786018 -0.131415 -0.0592478)
(0.165191 -0.127452 -0.0341916)
(0.224859 -0.235664 -0.0316456)
(0.110634 -0.161621 0.0130346)
(0.201005 -0.130805 -0.00990369)
(0.122636 -0.119229 -0.00215319)
(0.0407343 -0.0783844 0.00341494)
(-0.044989 -0.0361351 -0.0100911)
(-0.0597176 -0.0439782 -0.0201681)
(0.0136022 -0.0332551 -0.0591232)
(0.000260646 -0.00490977 -0.0116266)
(0.0745331 -0.0299805 -0.0459932)
(0.123042 -0.0497411 -0.0129022)
(0.0242521 -0.0084994 -0.00757586)
(0.163802 -0.0799659 -0.00708783)
(0.0548757 -0.0280478 -0.0223677)
(0.0732187 -0.0316482 0.0131562)
(0.114229 -0.00337543 0.0117632)
(0.0592774 0.0130279 0.0588697)
(0.119369 0.0103081 0.0406418)
(0.0921594 -0.00892475 0.0591252)
(0.0789632 -0.00272401 0.106523)
(0.108126 -0.00398736 0.103502)
(0.165365 0.0295375 0.0405699)
(0.189743 0.0599073 0.0503065)
(0.0897889 0.00329527 0.0462148)
(0.133759 0.00847693 0.0580877)
(0.137745 0.0398836 0.083851)
(0.168924 0.0849619 0.0601799)
(0.114935 0.0729166 0.117422)
(-0.0723785 0.085589 -0.0295321)
(-0.0278435 0.0476481 0.0744273)
(0.0697605 -0.0278477 -0.040153)
(-0.0180317 0.0364869 -0.0697579)
(0.0804525 0.0243252 -0.0446045)
(0.0461821 -0.0409603 -0.0767697)
(0.0945114 -0.0413567 -0.0293337)
(0.0621203 -0.0507349 -0.0412293)
(0.116663 -0.0405947 -0.0240002)
(0.103231 0.0754681 0.0720014)
(0.197394 0.140367 0.118873)
(0.0629131 0.0544809 0.0691454)
(0.175904 0.119676 0.205356)
(0.10911 0.112986 0.134537)
(0.229101 0.17451 0.28447)
(0.0701356 0.106679 0.158271)
(0.00339472 -0.00031861 0.0277443)
(0.0161902 0.0334228 0.0802091)
(-0.101454 0.0983679 0.00452692)
(-0.0389903 -0.190539 0.0758022)
(-0.116135 -0.0349738 0.0490326)
(-0.0891735 0.0869727 0.0932363)
(-0.00704031 -0.0777612 0.128465)
(-0.119107 -0.0606108 0.151119)
(-0.00586763 -0.116111 0.0632757)
(-0.0135909 -0.0813999 0.0383038)
(0.00185902 -0.0353658 0.0950539)
(0.0270932 -0.0922595 0.124656)
(-0.000545725 -0.0744906 0.0703082)
(-0.055948 -0.218278 0.0715226)
(-0.114098 -0.207831 0.0209585)
(-0.0149579 -0.0836011 0.07623)
(-0.0483269 -0.114639 0.0921584)
(-0.0533817 -0.107376 0.0370017)
(0.00866716 -0.0925513 0.0375317)
(0.0540659 -0.138035 0.0677003)
(0.0710714 -0.122819 0.141698)
(0.0228843 -0.0951839 0.0826281)
(0.0660971 -0.132439 0.121099)
(-0.135724 -0.202255 -0.0107902)
(-0.0722723 -0.115075 0.0352756)
(-0.112261 -0.233389 -0.0975725)
(-0.213577 -0.18027 -0.0394017)
(-0.13945 -0.149261 -0.0810854)
(-0.103779 -0.153371 -0.000549186)
(-0.0347312 -0.191026 -0.0925203)
(-0.11399 -0.143115 -0.0180258)
(-0.0533793 -0.140163 -0.0760677)
(0.178959 -0.19239 0.0288029)
(0.266245 -0.127328 -0.0511503)
(0.195592 -0.166385 -0.00169682)
(0.233961 -0.125048 -0.038473)
(0.174044 -0.182755 0.101756)
(0.230731 -0.127971 -0.0275505)
(0.1822 -0.169533 0.0574326)
(0.0916028 -0.146818 0.117372)
(-0.138159 -0.0579891 -0.0652507)
(-0.0541753 -0.0821625 -0.0370142)
(0.0229519 -0.0593626 -0.112534)
(0.0778587 -0.0168351 -0.0495134)
(-0.0125448 -0.0573374 -0.0816882)
(0.0411016 -0.0642679 -0.08607)
(0.0711623 -0.0286333 -0.0187318)
(0.19359 -0.0565178 -0.063591)
(0.129743 -0.0159239 -0.0477132)
(0.123631 -0.06434 -0.0680684)
(0.175574 -0.0695128 -0.0595476)
(0.118445 -0.0251968 -0.0135994)
(0.19153 -0.097863 -0.0291971)
(0.111115 -0.0531834 0.0323969)
(0.133617 -0.0828124 0.0475569)
(0.054063 -0.0152054 0.0608501)
(0.0845458 -0.0254839 0.109372)
(0.0578285 -0.037289 0.0833417)
(0.0367728 -0.0551546 -0.0508854)
(0.0799803 -0.0507486 0.0982006)
(0.0468231 -0.0789954 -0.000871677)
(0.0746365 -0.0367316 0.0402921)
(0.083506 -0.00606642 0.0950023)
(0.00512505 -0.0259959 0.0887935)
(0.0414467 -0.105342 -0.160217)
(0.0269733 -0.0963308 -0.0859349)
(0.0474335 0.0162111 0.109246)
(-0.000215691 -0.0375611 0.0335038)
(0.080595 -0.0641284 0.121016)
(0.154647 -0.15224 0.0994094)
(0.164087 -0.112153 -0.0106492)
(0.143643 -0.140996 -0.0223272)
(0.186381 -0.153704 -0.025599)
(0.190692 -0.196192 -0.0586005)
(0.203868 -0.182279 0.0246915)
(0.204673 -0.223013 -0.0523076)
(0.229251 -0.224092 -0.0429592)
(0.0850691 0.0956429 0.137792)
(0.247092 0.138827 0.37413)
(0.113501 0.112397 0.249519)
(0.118503 0.0178937 0.181162)
(0.0639824 0.029094 0.04454)
(0.21817 0.0909286 0.388326)
(0.177064 0.0547578 0.271648)
(0.0370421 0.0420342 0.1548)
(0.126201 0.00546757 0.102169)
(-0.0653991 0.0654875 0.254612)
(0.0241789 -0.00253496 0.229742)
(-0.113912 -0.0357349 0.269345)
(0.0318263 -0.014815 0.367061)
(0.0130998 0.0441893 0.370349)
(-0.0831848 0.00753129 0.428598)
(0.0706013 -0.0851556 0.207135)
(-0.00701608 -0.0748827 0.163933)
(0.1283 -0.0952874 0.261764)
(0.121885 -0.09284 0.321558)
(0.0293067 -0.0927205 0.265455)
(-0.0518688 -0.0503386 0.111683)
(-0.0353821 -0.0684516 0.0701817)