/*--------------------------------*- C++ -*----------------------------------*\
| =========                 |                                                 |
| \\      /  F ield         | OpenFOAM: The Open Source CFD Toolbox           |
|  \\    /   O peration     | Version:  5.x                                   |
|   \\  /    A nd           | Web:      www.OpenFOAM.org                      |
|    \\/     M anipulation  |                                                 |
\*---------------------------------------------------------------------------*/
FoamFile
{
    version     2.0;
    format      ascii;
    class       surfaceScalarField;
    location    "2.95";
    object      phi;
}
// * * * * * * * * * * * * * * * * * * * * * * * * * * * * * * * * * * * * * //

dimensions      [0 3 -1 0 0 0 0];

internalField   nonuniform List<scalar> 
29271
(
-1.16861e-05
-1.72893e-06
6.55277e-06
6.91629e-06
-1.00695e-05
1.74414e-06
1.91113e-07
8.41096e-06
-3.37453e-05
-4.20394e-06
-2.60291e-06
2.57398e-06
1.61887e-05
2.17895e-05
-3.90139e-05
-1.1704e-05
-2.32739e-06
-1.22877e-06
1.52244e-05
3.90497e-05
-3.58102e-05
-1.9489e-06
3.71271e-06
3.41379e-06
2.95274e-05
1.10522e-06
-3.46587e-05
-1.63449e-06
-6.56509e-06
1.12632e-05
-3.82678e-07
3.19777e-05
-4.07e-05
-1.50382e-05
-7.31466e-06
-1.02588e-05
2.41166e-07
7.30705e-05
-4.3563e-05
-1.06047e-05
1.08196e-05
-9.51237e-06
7.42792e-06
4.54325e-05
-3.96534e-05
-4.15771e-06
9.37371e-06
-8.71119e-06
2.29639e-06
4.08522e-05
-2.95564e-05
2.70558e-06
-5.18154e-06
2.27658e-05
9.27651e-06
-8.19102e-06
1.40207e-07
2.45634e-06
5.76826e-06
-3.65532e-05
-7.04798e-06
1.30584e-06
1.16298e-05
-1.83692e-06
3.25024e-05
-2.44482e-05
3.2584e-07
-6.5593e-06
5.56303e-06
-2.27906e-06
2.73977e-05
-4.97767e-05
-1.25218e-05
6.78853e-06
-1.54912e-05
8.70535e-06
6.22958e-05
-3.88929e-05
-4.12356e-06
1.57407e-05
-1.15017e-05
2.85508e-06
3.59224e-05
-3.25232e-05
-6.2139e-07
-1.56544e-06
4.62707e-06
2.23235e-05
7.75941e-06
-3.10154e-05
-5.00831e-06
9.02644e-06
2.53136e-06
2.44814e-05
-1.55107e-08
-5.81036e-05
-1.42364e-05
5.57643e-06
8.59821e-06
-9.03868e-06
6.7204e-05
-5.27665e-05
1.51294e-05
-9.94293e-06
-1.48355e-06
-2.00086e-05
6.90723e-05
-5.18132e-05
-9.99383e-06
-8.04703e-06
5.18434e-05
3.55803e-06
1.44526e-05
-1.12408e-05
-2.44624e-06
4.44518e-06
9.22367e-06
-3.51903e-05
1.93266e-06
-1.534e-05
2.85895e-05
2.00074e-05
-2.15566e-05
4.86016e-06
1.44661e-06
-1.2351e-06
9.57658e-06
6.90836e-06
-6.34507e-06
9.94168e-07
7.74796e-07
4.48858e-06
-5.77105e-06
7.31486e-07
-9.03591e-07
6.02323e-06
-5.65476e-06
1.38697e-06
3.00881e-06
1.55991e-06
1.08897e-06
3.45538e-06
-2.04665e-05
-5.08846e-06
1.96651e-06
1.9044e-05
1.92291e-06
-3.56901e-05
4.91804e-06
-3.70738e-06
5.02659e-06
2.753e-05
-2.7537e-05
1.65684e-06
-2.54814e-06
7.11783e-07
2.6143e-05
1.57352e-06
-2.8012e-06
-2.55877e-06
-4.52684e-05
-1.03656e-05
-4.23144e-06
6.52254e-05
-7.25561e-06
-3.32012e-06
0.000189059
-8.87393e-05
-4.63935e-05
-3.12246e-05
-6.02295e-05
-2.17875e-06
-4.25013e-06
8.33356e-06
-1.39171e-06
6.32876e-06
5.60284e-06
1.99582e-05
1.57012e-05
-7.79574e-06
-1.04889e-05
0.000219228
-4.8557e-05
-5.1833e-05
-3.82014e-05
-3.94157e-05
-1.46566e-05
-7.63641e-06
-5.46396e-06
-2.43486e-06
-5.38299e-06
5.30405e-06
0.000169994
-5.23228e-06
-4.66465e-06
-9.88336e-07
-1.23365e-06
-4.85664e-06
-4.2836e-06
-3.77219e-06
-4.67946e-05
-4.0309e-05
-3.30879e-05
-3.24881e-05
-1.9118e-05
-1.34942e-06
1.46041e-07
1.52618e-05
-3.21948e-06
2.95513e-08
2.32302e-06
9.94142e-07
-1.4743e-06
-4.09876e-05
7.44344e-06
-8.67749e-06
-3.2014e-06
4.68974e-05
-6.24125e-06
-2.00597e-05
0.000206076
-3.68618e-05
-7.32466e-05
-5.22268e-05
-5.15307e-05
3.05022e-06
3.15775e-06
1.14447e-05
1.31178e-05
4.44118e-06
-3.89015e-05
0.000343411
-6.54738e-05
-5.10428e-05
-0.000127977
-8.11868e-05
-5.88494e-06
-1.90575e-06
0.000164715
-6.03138e-06
-4.11793e-06
-4.04494e-06
2.79403e-07
-1.31081e-06
8.53072e-07
-3.49438e-05
-3.03386e-05
-4.00591e-05
-2.74652e-05
-1.90392e-05
-1.0588e-06
-1.7949e-06
3.4066e-06
1.26013e-05
-2.41115e-05
-1.13541e-06
-1.86869e-06
-2.3273e-06
2.75394e-05
1.90343e-06
-8.41657e-06
-1.22573e-07
0.000144818
2.01136e-06
2.96788e-06
1.12042e-05
1.80831e-05
-7.71881e-07
4.05976e-06
6.41596e-07
-6.51723e-05
-2.95541e-05
-5.98187e-05
-3.99898e-05
1.95805e-06
9.35036e-07
0.000107387
2.61911e-06
1.75321e-05
6.26591e-06
9.38367e-07
1.6151e-06
1.47242e-06
-6.77403e-05
-7.97026e-05
-1.31624e-05
-2.74362e-05
-4.36794e-05
6.43906e-07
-1.08919e-06
4.4177e-05
-9.34926e-06
-2.59775e-06
3.94263e-06
8.1687e-06
-2.17654e-05
1.23765e-06
-1.95035e-06
2.24883e-05
-9.90725e-06
-1.60952e-07
3.66691e-07
-3.58874e-08
1.06724e-05
-5.8363e-06
4.56914e-07
-6.77285e-07
6.06371e-06
-6.40636e-06
-4.45234e-06
2.61511e-06
8.24043e-06
-1.27457e-06
2.16269e-07
-5.28222e-06
6.29272e-06
4.22347e-06
5.04254e-06
-1.76115e-05
-2.05701e-06
-9.59175e-06
1.99942e-05
5.30194e-06
-1.88769e-05
3.85761e-07
1.00486e-06
-8.07419e-07
1.29918e-05
-2.75198e-05
7.37931e-07
-2.67542e-06
-5.73979e-07
2.9656e-05
3.75289e-07
1.51811e-05
1.62413e-05
-7.74165e-05
-1.55818e-05
-6.82464e-06
6.84006e-05
3.73323e-05
3.17456e-07
0.000101642
1.08622e-05
1.7861e-07
1.06399e-05
2.16716e-06
1.18548e-05
7.63438e-06
3.79135e-06
2.63827e-06
1.48921e-05
-4.73465e-05
0.00026783
3.47966e-07
2.90465e-06
3.76357e-06
1.41689e-05
-5.25162e-06
-3.22822e-05
0.000244818
-5.21537e-07
6.21928e-07
-7.02144e-07
-4.2189e-06
-5.03327e-06
-5.29835e-06
-7.24583e-06
-1.09691e-05
1.08389e-06
-4.90421e-07
5.37931e-06
-2.07291e-07
6.20506e-07
-2.88282e-06
2.35341e-06
9.51937e-06
-5.26138e-05
-9.8515e-06
-1.13716e-05
4.28415e-06
6.00334e-05
1.35427e-05
-3.79188e-07
0.000141908
7.54414e-06
1.27793e-05
9.28573e-06
2.17127e-05
7.94129e-05
-1.46759e-05
0.00024487
-1.99779e-07
-1.557e-05
0.000280179
-9.17971e-07
-2.71434e-06
-4.59836e-06
-1.30097e-05
-1.6167e-05
-1.51565e-05
-9.89357e-06
-3.40605e-07
-3.49974e-06
3.30359e-06
1.02305e-05
-3.6355e-05
2.54522e-06
-6.77394e-06
-1.12894e-05
4.04378e-05
1.14353e-05
3.57291e-07
-9.16991e-07
8.92415e-05
1.60731e-05
1.41418e-05
1.872e-05
8.0255e-06
-2.70365e-08
-1.50875e-06
3.32788e-07
2.51917e-05
5.35378e-07
3.24075e-05
3.77567e-06
2.54927e-05
3.69069e-06
1.82003e-07
1.22103e-06
5.72007e-07
-6.07695e-05
1.33842e-05
-7.25835e-06
6.42655e-05
-6.52883e-06
-5.10408e-06
7.27165e-06
4.39934e-06
-2.51922e-05
9.64134e-06
-5.51428e-06
2.01159e-05
-1.09939e-05
4.94988e-07
1.14243e-07
5.6962e-07
1.03504e-05
-4.75796e-06
3.03263e-06
-1.25803e-06
2.90871e-06
-9.95986e-06
-1.81941e-06
2.20557e-06
9.57141e-06
-1.6986e-05
-4.99366e-07
-1.09816e-05
2.84393e-05
4.60535e-06
7.73833e-07
-2.91811e-05
-6.91827e-07
-1.07499e-05
3.52436e-05
1.62457e-06
-1.29801e-05
2.32316e-07
-1.84013e-06
-3.44363e-06
1.6407e-05
-3.18782e-05
1.96421e-06
-2.11477e-06
-3.87482e-06
3.32525e-05
2.6511e-06
5.17873e-06
1.63272e-05
-4.58348e-05
-3.87296e-06
3.91032e-06
2.42915e-05
1.67164e-05
6.84368e-06
5.87289e-05
3.44646e-06
3.31587e-07
2.75163e-06
8.71201e-07
8.97049e-07
1.1229e-06
2.64687e-06
7.28549e-06
9.21769e-06
-2.67364e-05
0.000265846
3.4163e-06
1.23973e-05
5.33992e-06
1.50647e-05
-1.94386e-06
-7.93045e-05
0.000318575
5.03248e-06
2.84676e-06
9.89644e-06
5.78514e-06
-3.72196e-06
-1.12698e-06
-2.0029e-06
-1.30931e-07
1.45847e-06
-3.61289e-06
3.85239e-07
-8.50226e-06
2.46076e-06
-9.7473e-06
1.57771e-05
1.02743e-05
-6.90208e-05
-3.44703e-06
-7.32207e-06
-5.33144e-06
7.4847e-05
-6.90872e-06
8.22897e-06
0.000105859
6.31715e-06
1.19532e-05
1.08635e-05
1.24392e-05
5.38081e-05
1.16806e-05
0.000145736
5.41596e-06
-9.50497e-06
0.000254303
4.84706e-06
7.38247e-06
6.0387e-06
-8.89673e-06
-1.95117e-06
-2.95163e-06
-6.88722e-06
6.84872e-06
1.24448e-06
-3.13225e-06
7.34224e-06
-4.33142e-05
4.54751e-06
-1.3078e-05
-2.48732e-06
4.50304e-05
9.30162e-06
1.09121e-06
2.22104e-08
7.23227e-05
8.29428e-06
5.985e-07
8.59809e-06
7.34406e-07
9.49036e-07
2.02623e-06
2.83371e-06
8.48969e-06
3.27834e-06
2.11236e-05
-4.82839e-07
1.52288e-06
-2.70382e-07
1.46714e-06
7.29873e-06
2.75215e-06
-5.66372e-05
1.59797e-05
3.72627e-06
3.59159e-05
-2.57512e-06
1.5526e-07
-6.94948e-07
3.15416e-06
-1.26225e-05
-4.24905e-09
2.16168e-06
1.0509e-05
-1.2389e-05
-1.53774e-06
-8.35912e-07
1.92105e-06
1.61199e-05
-2.34408e-06
-1.47129e-06
5.60769e-07
2.90778e-06
-9.16282e-06
3.46227e-06
-4.79972e-06
1.05056e-05
-3.35789e-05
1.24558e-06
1.54746e-06
3.07347e-05
-2.37471e-06
-7.78706e-06
-4.12229e-05
-2.4714e-07
-1.23593e-06
5.28677e-05
3.56109e-06
-2.50405e-05
8.58359e-06
-1.14416e-05
-5.75145e-06
3.00888e-05
-2.88772e-05
1.11448e-05
-1.73641e-06
-8.66073e-06
2.38022e-05
4.32739e-06
-2.67516e-06
6.05785e-06
-1.70526e-05
-3.07007e-06
-4.46683e-06
2.12068e-05
-8.975e-06
7.97589e-06
5.28169e-05
7.52291e-07
4.69074e-07
-1.33805e-06
-1.1454e-06
1.43474e-06
2.99486e-06
1.64652e-06
2.09708e-06
-1.58232e-05
-6.96483e-06
0.000255964
4.75804e-06
6.01927e-06
7.01943e-06
5.89865e-06
3.91031e-08
-3.45045e-05
0.000299987
8.44729e-06
7.16605e-06
9.26825e-06
7.08779e-06
3.25872e-07
2.87435e-06
2.06077e-06
-2.74554e-06
-4.91843e-07
-2.32204e-06
5.58677e-06
-1.9478e-05
1.96973e-06
-4.88031e-06
2.23886e-05
1.3545e-05
-7.82483e-05
8.48038e-06
-8.05352e-06
-5.31684e-06
6.95932e-05
-7.8005e-06
1.15947e-05
9.70758e-05
1.92363e-06
5.63993e-06
1.21274e-06
4.18826e-06
5.36732e-06
1.30182e-05
0.000112585
3.3129e-06
5.04436e-07
0.000192998
2.97075e-06
4.43769e-06
5.20654e-06
2.14971e-06
1.05312e-05
3.05468e-06
-7.53252e-06
3.201e-06
2.3844e-06
-8.36879e-07
6.09691e-06
-4.72156e-05
6.60543e-06
-9.40358e-06
6.25272e-06
4.46351e-05
-8.74091e-07
1.02493e-06
3.22669e-07
8.05898e-05
2.1989e-06
-7.01518e-07
1.80619e-06
-1.64117e-06
-6.90482e-07
5.92161e-07
4.15966e-07
1.05973e-06
3.8129e-06
3.01816e-05
-9.36732e-07
-2.48654e-06
-3.73709e-06
2.58531e-06
2.96763e-06
1.71995e-06
-2.30054e-05
-2.20439e-06
2.3677e-06
2.44062e-05
-4.67777e-06
-3.60214e-07
4.33363e-07
4.62144e-06
-1.16904e-05
-1.48866e-06
-1.3093e-06
1.48105e-05
-2.40111e-05
1.62729e-06
-3.68586e-06
1.42075e-06
2.84618e-05
-4.27923e-06
-3.5519e-06
3.50119e-06
4.13235e-06
-1.1586e-05
3.60455e-06
-4.13832e-06
1.2125e-05
-2.52315e-05
-4.64477e-06
7.73917e-06
2.21039e-05
-4.13002e-06
-6.81027e-06
-6.42733e-05
-5.32946e-08
5.71743e-06
6.95495e-05
7.26649e-07
-3.30959e-05
7.38415e-06
-5.84116e-06
-3.51928e-06
3.43455e-05
-2.32111e-05
3.12509e-06
-2.03757e-06
-7.54943e-06
2.70347e-05
2.63828e-06
-3.18359e-06
2.07842e-06
-2.69165e-05
3.01197e-07
-3.29336e-06
3.10139e-05
-3.13432e-05
1.38918e-05
6.97963e-05
-3.734e-06
-2.3642e-06
-3.48215e-06
-2.35079e-06
2.11522e-06
2.33091e-06
3.33092e-06
4.62597e-06
-2.31638e-05
1.97649e-05
0.000216957
2.5653e-06
2.36661e-06
2.97239e-06
3.1585e-06
2.70247e-06
3.10264e-06
0.000231974
7.65314e-06
6.8399e-06
9.33099e-06
6.37522e-06
1.90514e-06
1.88656e-06
5.05371e-06
-7.95497e-06
-9.21726e-07
8.23416e-07
2.56902e-07
1.04989e-05
-1.94294e-07
2.14421e-08
2.46287e-08
1.46901e-07
-2.46046e-05
1.39026e-06
-2.45164e-06
2.5666e-05
3.35317e-06
-6.25152e-05
3.20431e-06
-3.55444e-06
-1.97525e-06
6.14874e-05
-5.11997e-06
3.07438e-06
0.000104021
6.40137e-07
3.31421e-06
1.21321e-06
3.8249e-06
-1.82903e-06
1.27891e-05
0.00011627
1.15217e-06
8.78549e-06
0.00015795
3.36039e-06
2.7147e-06
2.48143e-06
6.45037e-06
8.18491e-06
3.1921e-06
-1.03244e-05
-1.76085e-06
-6.87567e-07
3.07609e-06
1.08489e-05
-5.47387e-08
-2.38136e-07
4.78854e-08
5.71402e-08
1.87004e-07
-4.74651e-05
-3.10408e-06
-1.93439e-06
2.719e-06
5.06128e-05
-8.28163e-07
1.13372e-06
1.46491e-06
8.86475e-05
9.37865e-07
-1.62322e-06
8.72475e-08
-4.4321e-06
3.74664e-07
-9.69883e-07
-1.95656e-06
-4.51041e-06
3.19059e-06
5.14943e-05
-4.47225e-06
-3.36165e-06
-4.84983e-06
2.41595e-06
2.29628e-06
1.90137e-06
-3.41386e-05
-4.60748e-06
6.08536e-06
3.69358e-05
-4.8535e-06
7.24806e-07
1.47629e-07
3.96359e-06
-1.53005e-05
1.03896e-07
9.77576e-07
1.5684e-05
-3.03158e-05
1.4795e-06
-1.86955e-06
2.60935e-06
3.12871e-05
-4.5337e-06
-3.0625e-06
8.61998e-07
6.71409e-06
-1.05974e-05
2.48125e-06
4.39228e-07
7.6851e-06
-2.07762e-05
-4.97227e-06
4.96674e-06
2.07855e-05
-3.76913e-06
-1.47974e-06
-7.10486e-05
8.6288e-07
7.27085e-06
6.81637e-05
-4.83752e-06
-3.54477e-05
2.59881e-06
-2.63811e-06
1.90265e-06
3.84218e-05
-3.10075e-05
-1.04335e-06
-3.30577e-06
-2.72046e-06
3.37185e-05
4.35853e-06
-3.1134e-06
9.19141e-07
-3.50619e-05
1.0804e-06
-1.53601e-06
3.77117e-05
-2.08031e-05
1.1156e-05
8.66742e-05
-4.31079e-06
-4.74173e-06
-4.4683e-06
-4.85802e-06
1.69038e-06
3.53241e-06
1.81241e-06
4.11296e-06
-7.26729e-06
1.40825e-05
0.000183624
1.97693e-07
1.03717e-06
1.93627e-06
2.54382e-06
3.40177e-06
1.38301e-05
0.00017867
3.73066e-06
2.05074e-06
4.04177e-06
1.05273e-06
5.51555e-06
5.66103e-06
6.75204e-06
-1.24252e-05
-1.75583e-06
2.64755e-06
2.62817e-06
1.23071e-05
-1.41873e-07
-1.64948e-07
-2.71386e-07
1.01147e-07
6.75654e-08
4.09494e-07
-2.57145e-05
6.25189e-07
-8.07547e-07
2.58969e-05
1.05886e-06
-6.20822e-05
1.14397e-06
-9.59813e-07
-9.12055e-07
6.17513e-05
-8.41117e-06
3.35239e-07
0.000120828
-8.53514e-07
1.72216e-06
-2.49643e-07
1.80537e-06
-2.96852e-06
1.10356e-05
0.000113874
2.41457e-06
7.12983e-06
0.000136677
2.90353e-06
1.06429e-06
2.31014e-06
4.84168e-06
6.96327e-06
4.50746e-06
-1.35477e-05
-2.57784e-06
2.1956e-06
2.47622e-06
1.38683e-05
-1.4404e-07
-4.6077e-09
-1.48196e-07
3.10842e-08
-8.97615e-08
3.55521e-07
-5.18144e-05
-4.01608e-06
9.41416e-07
2.91828e-06
5.27246e-05
-7.53727e-07
-1.07529e-06
-2.18795e-06
0.000105168
-2.19547e-06
-3.44889e-06
-1.36672e-06
-1.5971e-06
-2.06687e-06
-9.25362e-07
-1.32185e-06
-3.95193e-06
1.80106e-06
6.71498e-05
-3.97076e-06
-2.27906e-06
-3.2133e-06
1.88084e-06
2.00617e-06
2.03186e-06
-3.7801e-05
-2.94433e-06
8.05807e-06
3.58652e-05
-3.40689e-06
-4.87909e-06
-2.0045e-06
2.10658e-06
8.18658e-06
3.10173e-08
8.10067e-07
-7.51582e-07
-9.02039e-08
-1.50451e-05
1.31905e-07
-1.44487e-06
1.41701e-05
-3.08616e-05
2.88415e-06
-2.13503e-06
1.91634e-06
2.99972e-05
-9.11767e-06
-5.0997e-06
3.0103e-06
1.12057e-05
-6.30756e-06
-1.55664e-07
-2.97192e-07
6.75827e-06
-2.17097e-05
-3.79149e-06
2.77228e-06
2.27289e-05
-2.44624e-06
9.30386e-07
-6.43905e-05
-1.90053e-07
4.18375e-06
6.19127e-05
-3.67436e-06
-4.27646e-05
2.11823e-06
-2.74499e-06
1.5512e-06
4.55146e-05
-3.48911e-05
9.26563e-07
-1.96488e-06
-2.54591e-06
3.47424e-05
3.73291e-06
-1.81863e-06
4.25007e-07
-3.99491e-05
1.12668e-06
-1.36783e-06
4.15839e-05
-8.29151e-06
6.247e-06
0.000102068
-5.08437e-06
-5.62806e-06
-4.00245e-06
-4.07206e-06
6.016e-07
2.41037e-06
-2.39307e-08
2.44909e-06
-9.59739e-06
5.19577e-06
0.00017808
1.68817e-07
6.0354e-07
2.61723e-07
6.19733e-07
2.24042e-06
7.86432e-07
0.000159776
1.86504e-06
3.03943e-07
1.80867e-06
1.72531e-07
3.59883e-06
-2.0887e-06
6.09376e-07
-1.54671e-05
-1.61032e-06
2.52168e-06
2.5371e-06
1.42591e-05
-1.35606e-06
7.98752e-07
-1.56442e-06
1.4377e-06
-1.07818e-06
1.76221e-06
-2.61448e-05
-2.6323e-07
1.43407e-07
2.62647e-05
1.2789e-07
-6.07634e-05
-3.06043e-07
6.25322e-07
6.83148e-07
5.96331e-05
-7.93466e-06
-6.04173e-06
0.00014231
-1.56544e-06
1.14262e-07
-6.44079e-07
8.37182e-07
-9.37152e-06
3.041e-06
0.000117466
4.42867e-07
3.14358e-06
0.000115163
7.24433e-07
5.12305e-07
1.07314e-06
2.03328e-06
3.40856e-06
1.59073e-06
-1.38124e-05
-1.56451e-06
6.12524e-07
4.09324e-07
1.4798e-05
-1.29907e-06
7.48935e-07
-3.72261e-07
-1.32949e-06
1.27096e-07
2.1248e-06
-5.41533e-05
-4.70562e-06
1.86328e-06
3.02828e-06
5.55078e-05
-1.54049e-06
-2.7949e-06
-3.4146e-07
0.000108997
-1.82218e-06
-1.66389e-06
-2.17059e-08
-1.48848e-06
-1.39283e-06
5.73512e-08
-4.0224e-07
-3.33561e-06
2.06721e-06
7.0722e-05
-3.36942e-06
-1.82432e-06
-2.78829e-06
1.49819e-06
2.5886e-06
1.83756e-06
-3.58568e-05
-2.08195e-06
4.97864e-06
3.27681e-05
-1.01207e-05
1.38918e-07
-1.85741e-06
2.39855e-06
9.44954e-06
-7.19759e-07
-6.75326e-07
-1.29664e-06
6.86568e-07
2.00516e-06
-1.44629e-05
-1.02122e-06
-3.23214e-07
1.54659e-05
-2.92469e-05
2.61962e-06
-3.48658e-06
2.52689e-06
2.96541e-05
-1.23273e-05
-3.14857e-06
3.37624e-06
1.20982e-05
-7.87859e-06
-1.56374e-07
-9.73874e-07
9.00884e-06
-2.34178e-05
-2.01451e-06
1.72271e-06
2.37096e-05
-1.08897e-07
-6.28305e-07
-6.11424e-05
-7.04484e-07
8.29832e-07
6.17542e-05
-4.00173e-07
-4.64054e-05
2.31529e-06
-2.60867e-06
9.68063e-08
4.70021e-05
-3.4238e-05
2.84827e-06
-2.492e-06
-3.10563e-06
3.42582e-05
2.72919e-06
-1.33262e-06
8.64822e-08
-4.24786e-05
1.89095e-06
-1.47411e-06
4.33079e-05
-7.86139e-06
1.61563e-06
0.000112392
-2.40253e-06
-3.14415e-06
-9.91556e-07
-8.71471e-07
-2.94959e-07
1.61557e-06
-1.70789e-07
2.18179e-06
-1.17254e-05
5.23877e-06
0.00017545
-2.2367e-07
-8.73123e-08
7.77796e-07
7.88362e-07
-2.27534e-06
7.5252e-07
0.000149515
1.23153e-06
1.44599e-06
2.48247e-06
1.70452e-06
-1.08781e-07
-4.67443e-06
-2.02251e-06
-1.42675e-05
4.54062e-06
-3.37481e-06
-1.84419e-08
1.08448e-05
3.92006e-07
2.4526e-06
-5.62786e-07
-1.83882e-06
-4.43227e-07
-2.62704e-05
-1.13031e-06
1.3372e-06
2.60635e-05
-6.87472e-07
-5.85573e-05
-3.62783e-07
1.10974e-06
1.05833e-06
5.74395e-05
-7.95405e-06
-8.71229e-06
0.000162707
-1.86641e-06
-6.68162e-07
-3.48681e-07
7.68068e-07
-1.31724e-05
1.06419e-06
0.000126859
-8.06739e-07
1.30639e-06
0.000103915
-5.06633e-07
-1.6646e-06
-2.43565e-06
9.48143e-07
1.67613e-06
3.11244e-07
-1.67769e-05
-1.85723e-06
-3.59808e-07
-2.98581e-07
1.84858e-05
-3.60467e-06
2.04491e-06
7.54052e-07
-1.50645e-06
-1.93848e-06
4.25064e-06
-5.7351e-05
-5.32001e-06
1.65159e-06
3.4428e-06
5.95963e-05
-2.0197e-06
-2.39087e-06
-2.32031e-07
0.000105943
-1.7508e-07
-1.59643e-06
7.0509e-07
-1.36429e-06
-2.53561e-07
-3.831e-07
3.2065e-08
-2.31635e-06
1.96618e-06
7.01334e-05
-2.41084e-06
-1.16363e-06
-1.63108e-06
1.56735e-06
1.92239e-06
1.32789e-06
-3.12791e-05
-9.55151e-07
3.26486e-06
2.79594e-05
-6.99476e-06
3.52296e-07
-1.64471e-06
8.29444e-06
-1.64503e-05
-1.10925e-06
-3.18004e-07
1.76455e-05
-3.13278e-05
2.47708e-06
-3.80219e-06
2.39162e-06
3.22274e-05
-1.19172e-05
-3.17197e-06
2.39291e-06
1.26969e-05
-1.0255e-05
2.30073e-07
-1.3092e-06
1.13341e-05
-2.39462e-05
-1.40561e-06
1.03938e-06
2.43124e-05
2.33984e-06
-2.95223e-07
-6.28602e-05
-1.04954e-06
-1.68347e-06
6.35486e-05
4.18654e-07
-4.72818e-05
2.13309e-06
-1.77365e-06
-6.51823e-07
4.71555e-05
-3.47594e-05
2.89434e-06
-2.5447e-06
-3.11213e-06
3.53436e-05
2.17829e-06
-9.4606e-07
-5.49552e-07
-4.45524e-05
1.85381e-06
-1.79939e-06
4.59936e-05
-7.3907e-06
-1.49751e-06
0.000118786
-2.96759e-07
-8.33789e-07
1.55992e-07
2.99868e-07
-2.66128e-07
1.41186e-06
-2.33909e-07
2.25756e-06
-8.38977e-06
4.65057e-06
0.000166985
6.0175e-07
5.88953e-07
1.70298e-06
1.92022e-06
-3.7931e-06
-2.02501e-07
0.000141311
2.06683e-06
2.24997e-06
3.33317e-06
3.04282e-06
-3.14703e-06
-1.61387e-06
-2.12253e-06
-1.0591e-05
3.57474e-06
-4.51689e-06
7.73492e-06
-2.5789e-05
-1.32876e-06
1.54873e-06
2.55691e-05
-5.05133e-07
-5.65342e-05
6.09603e-08
4.81982e-07
9.35498e-07
5.55609e-05
-7.48023e-06
-9.05056e-06
0.000178566
-1.4449e-06
-5.20849e-07
1.79102e-07
9.61351e-07
-1.091e-05
2.34509e-06
0.000132594
-3.23752e-06
2.45882e-07
0.000101992
-2.819e-06
-2.78365e-06
-1.64703e-06
1.93263e-09
7.15289e-07
3.3492e-07
-2.78258e-05
4.85339e-07
-3.23149e-06
-5.30472e-07
2.78649e-05
-6.21373e-05
-5.47701e-06
2.12439e-06
3.75781e-06
6.42813e-05
-2.54921e-06
-1.01862e-06
-4.31101e-07
0.000101189
-1.62079e-07
-1.3808e-06
3.2288e-07
-1.3893e-06
2.72481e-08
-4.5041e-07
1.85706e-07
-1.21354e-06
1.84355e-06
6.79757e-05
-1.16148e-06
-2.64554e-07
-6.1707e-07
1.52522e-06
1.78918e-06
1.58289e-06
-2.64566e-05
-2.82871e-07
1.51221e-06
2.42596e-05
-8.08216e-06
2.42692e-06
-1.5393e-06
7.19638e-06
-1.93895e-05
5.9577e-07
-3.00821e-06
2.13709e-05
-3.25222e-05
2.84188e-06
-2.89441e-06
1.74668e-06
3.26716e-05
-1.40773e-05
-2.84408e-06
1.8234e-06
1.50969e-05
-1.22135e-05
1.58353e-07
-9.03339e-07
1.29585e-05
-2.47513e-05
-1.38487e-06
9.01639e-07
2.52345e-05
2.97904e-06
4.40173e-07
-6.36792e-05
-1.03297e-06
-2.16986e-06
6.34628e-05
7.89792e-07
-4.70262e-05
1.69013e-06
-1.12576e-06
-1.1331e-06
4.68051e-05
-3.65804e-05
2.41757e-06
-2.3203e-06
-2.9088e-06
3.79237e-05
1.46828e-06
-6.51639e-07
-1.26382e-06
-4.74966e-05
2.18675e-06
-1.6455e-06
4.88708e-05
-6.83416e-06
-3.70281e-06
0.000124968
4.18878e-07
-1.39005e-07
6.23011e-07
7.32372e-07
-4.80436e-07
1.55996e-06
-7.63762e-07
2.40348e-06
-3.06024e-06
3.44874e-06
0.000153554
9.94745e-07
1.1391e-06
1.88065e-06
2.19358e-06
-1.00635e-06
-7.70076e-07
0.000131174
2.48119e-06
2.895e-06
3.14565e-06
2.79586e-06
-1.2328e-06
-7.62156e-07
-4.69342e-07
-7.31832e-06
2.87938e-06
-4.55934e-06
7.99348e-06
-2.53502e-05
-1.38332e-06
1.68199e-06
2.50515e-05
-3.56492e-07
-5.49531e-05
-1.29999e-07
2.39557e-07
9.35096e-07
5.42649e-05
-5.3825e-06
-8.72697e-06
0.000190299
-1.39452e-06
-7.03245e-07
1.24393e-07
6.46134e-07
-6.23301e-06
3.31256e-06
0.000133581
-1.78577e-06
-7.68373e-07
0.000101365
-8.67614e-07
-1.18229e-06
-6.18021e-07
-3.62367e-07
-1.16089e-07
-6.76169e-07
-2.64969e-05
9.80038e-07
-3.42973e-08
-1.27799e-06
2.50434e-05
-6.57668e-05
-5.61724e-06
3.17485e-06
4.92184e-06
6.62914e-05
-3.00406e-06
1.69009e-06
-4.87359e-07
9.86907e-05
-1.54402e-06
-2.04594e-06
-1.34854e-06
-2.38527e-06
8.89155e-08
-3.14392e-07
1.17553e-07
-6.53381e-07
1.73764e-06
6.64381e-05
-6.4526e-08
-6.1291e-08
3.11432e-07
1.70526e-06
1.80934e-06
1.75573e-06
-2.35019e-05
7.46317e-08
-1.70949e-07
2.21765e-05
-8.29136e-06
1.88151e-06
-2.64155e-06
9.05212e-06
-2.3092e-05
1.176e-06
-3.14542e-06
2.4574e-05
-3.29771e-05
2.8952e-06
-2.68505e-06
1.28624e-06
3.32183e-05
-1.58031e-05
-1.75175e-06
1.33985e-06
1.62148e-05
-1.36113e-05
-7.51413e-08
-5.46279e-07
1.42327e-05
-2.5727e-05
-1.5257e-06
1.06073e-06
2.6192e-05
2.90421e-06
6.62121e-07
-6.31447e-05
-9.31844e-07
-2.32443e-06
6.28346e-05
9.61004e-07
-4.67271e-05
1.4914e-06
-9.01111e-07
-1.37933e-06
4.65552e-05
-3.94273e-05
1.84734e-06
-1.90992e-06
-2.44495e-06
4.08543e-05
1.08056e-06
-5.15795e-07
-1.51963e-06
-4.99945e-05
2.80783e-06
-1.60703e-06
5.08291e-05
-4.69963e-06
-4.26056e-06
0.000129143
1.06179e-06
4.92686e-07
1.20875e-06
1.24512e-06
-1.29456e-06
1.45674e-06
-1.51284e-06
2.12824e-06
6.31765e-07
3.92829e-06
0.00013816
9.39196e-07
1.24782e-06
1.73964e-06
2.20771e-06
-6.66043e-07
-8.94545e-07
0.000124186
2.14757e-06
2.35173e-06
2.73162e-06
2.19248e-06
-5.65065e-09
-6.1233e-07
3.74607e-07
-8.91904e-06
2.17514e-06
-3.6249e-06
9.70275e-06
-2.46221e-05
-1.52921e-06
2.06943e-06
2.40819e-05
-5.90962e-07
-5.35054e-05
-2.6e-07
5.09176e-07
1.5379e-06
5.23093e-05
-2.56332e-06
-6.06856e-06
0.000195923
-1.31452e-06
-8.95046e-07
2.35849e-07
7.21506e-07
-2.59906e-06
3.78962e-06
0.000133755
-7.80274e-07
-1.07939e-06
0.000102781
-7.97838e-07
-3.4452e-07
-5.53707e-07
-7.41744e-07
3.82585e-08
-6.50534e-07
-2.36259e-05
2.10904e-06
1.32226e-06
-2.74765e-06
2.2162e-05
-6.63028e-05
-5.51939e-06
3.85808e-06
5.76214e-06
6.57937e-05
-3.59174e-06
2.10065e-06
-2.25542e-08
0.000100561
-2.68839e-06
-2.6123e-06
-2.14628e-06
-2.71949e-06
-5.56265e-08
4.87062e-08
1.55933e-07
-4.40157e-07
1.63361e-06
6.36608e-05
6.98333e-07
4.80987e-07
1.00572e-06
1.64219e-06
1.86381e-06
1.78308e-06
-2.23633e-05
-3.20268e-08
-6.78998e-07
2.15547e-05
-9.12541e-06
2.10021e-06
-8.82837e-07
7.90511e-06
-2.58806e-05
1.44761e-06
-2.82392e-06
2.72344e-05
-3.34714e-05
2.80773e-06
-2.41201e-06
1.39284e-06
3.33164e-05
-1.65374e-05
-8.76807e-07
5.93578e-07
1.68207e-05
-1.48433e-05
-1.64015e-07
-4.14348e-07
1.54217e-05
-2.65999e-05
-1.57105e-06
1.14491e-06
2.70261e-05
2.78068e-06
5.9185e-07
-6.25232e-05
-7.33117e-07
-2.30994e-06
6.21938e-05
1.0831e-06
-4.65207e-05
1.12721e-06
-6.54283e-07
-1.51435e-06
4.6479e-05
-4.23503e-05
1.37041e-06
-1.59762e-06
-1.94094e-06
4.37464e-05
7.72119e-07
-5.30779e-07
-2.04315e-06
-5.14923e-05
3.44547e-06
-1.22783e-06
5.18486e-05
-8.78572e-07
-5.34487e-06
0.000131435
1.5244e-06
9.70275e-07
1.70643e-06
1.7913e-06
-2.08817e-06
7.48056e-07
-2.26037e-06
1.53916e-06
3.39369e-06
5.49633e-06
0.000122875
8.46156e-07
1.17505e-06
1.56501e-06
1.92983e-06
-3.97506e-07
-4.85753e-07
0.000118701
1.74997e-06
1.91615e-06
2.38257e-06
1.90362e-06
7.68517e-07
-1.14647e-07
1.15642e-06
-1.0518e-05
1.65488e-06
-2.84747e-06
1.13131e-05
-2.34154e-05
-1.56119e-06
2.18458e-06
2.2792e-05
-1.08575e-06
-5.12453e-05
-3.54246e-07
7.07546e-07
2.03398e-06
4.99438e-05
2.25538e-07
-6.19231e-06
0.000195027
-6.74569e-07
-3.13738e-07
1.10003e-06
1.40654e-06
3.98994e-06
3.17688e-06
0.00013231
2.09629e-07
-3.56201e-07
0.000105908
2.798e-07
3.39116e-07
6.64501e-07
-6.68977e-07
5.68497e-07
-6.58263e-07
-2.07133e-05
2.6257e-06
1.85384e-06
-2.78138e-06
1.92248e-05
-6.53697e-05
-5.69298e-06
4.29053e-06
6.24526e-06
6.45273e-05
-4.00042e-06
1.40216e-06
-8.47383e-07
0.000108844
-3.26623e-06
-2.59728e-06
-2.53195e-06
-3.12862e-06
-8.00909e-07
-1.87337e-06
-8.30802e-07
3.41098e-08
1.26774e-06
6.07041e-05
9.805e-07
6.74259e-07
9.27426e-07
1.33245e-06
1.04648e-06
1.27282e-06
-2.21799e-05
6.87814e-07
-1.43641e-07
2.13136e-05
-6.73051e-06
1.56713e-06
-1.48092e-06
6.64472e-06
-2.83399e-05
2.18808e-06
-2.97879e-06
2.82832e-05
-3.31492e-05
2.55583e-06
-1.95059e-06
1.37421e-06
3.24375e-05
-1.72324e-05
-5.5378e-07
6.99117e-08
1.77163e-05
-1.59516e-05
-2.13444e-07
-2.80065e-07
1.64452e-05
-2.74828e-05
-1.43241e-06
9.97448e-07
2.79177e-05
2.69883e-06
7.36981e-07
-6.17954e-05
-4.94673e-07
-2.34172e-06
6.11959e-05
1.0044e-06
-4.66411e-05
5.97996e-07
-3.87073e-07
-1.39039e-06
4.68161e-05
-4.52336e-05
1.0386e-06
-1.41921e-06
-1.58799e-06
4.65939e-05
6.08347e-07
-1.23284e-07
-2.43601e-06
-5.19135e-05
3.955e-06
-1.26142e-06
5.17792e-05
1.82873e-06
-6.19806e-06
0.000132781
1.72878e-06
1.26517e-06
1.94964e-06
2.13666e-06
-2.75025e-06
2.58834e-07
-2.80736e-06
1.24207e-06
3.78843e-06
6.01485e-06
0.000110664
6.27963e-07
8.85843e-07
1.25375e-06
1.46888e-06
-1.2507e-07
-7.23362e-07
0.000114477
1.41644e-06
1.61292e-06
2.13349e-06
1.60553e-06
9.3021e-07
1.12758e-07
1.0496e-06
-1.19686e-05
1.35183e-06
-2.00264e-06
1.24944e-05
-2.22219e-05
-1.32953e-06
2.11803e-06
2.14334e-05
-1.40461e-06
-4.88506e-05
-1.49578e-07
4.11681e-07
2.05423e-06
4.79389e-05
9.58172e-07
-1.02003e-05
0.000193078
9.4896e-08
3.25892e-07
2.17338e-06
2.39834e-06
8.03244e-06
-6.87525e-07
0.000131938
8.92989e-07
-3.21819e-07
0.000109597
1.45733e-06
1.15166e-06
1.6353e-06
-6.96356e-07
1.62853e-07
-6.62132e-07
-1.8429e-05
1.75069e-06
1.4364e-06
-2.51656e-06
1.86514e-05
-6.33141e-05
-5.94523e-06
4.75546e-06
6.90363e-06
6.1959e-05
-4.35883e-06
6.16703e-06
-3.95983e-06
0.000120177
-3.84436e-06
-4.506e-06
-2.75217e-06
-5.60058e-06
-1.25302e-06
-4.39871e-06
-1.38562e-06
3.90041e-07
1.45517e-07
6.15691e-05
1.09709e-06
9.06107e-07
9.70233e-07
4.9083e-07
3.71541e-07
2.43144e-07
-2.12254e-05
1.41777e-06
-1.00066e-07
1.99759e-05
-7.1734e-06
1.7183e-06
-2.39844e-06
7.85355e-06
-2.68387e-05
2.90823e-06
-3.31775e-06
2.32884e-05
-3.21163e-05
1.0607e-06
-1.57808e-06
9.29224e-07
3.185e-05
-1.81751e-05
-1.27208e-07
-1.8499e-08
1.83208e-05
-1.68978e-05
-1.76433e-07
-2.35948e-07
1.73102e-05
-2.83836e-05
-1.52161e-06
1.01242e-06
2.88928e-05
2.4353e-06
1.00826e-06
-6.05756e-05
-3.82894e-07
-2.30128e-06
5.98163e-05
8.12004e-07
-4.71447e-05
1.01236e-07
1.51341e-08
-1.13357e-06
4.73499e-05
-4.80858e-05
7.37019e-07
-1.21498e-06
-1.30437e-06
4.94236e-05
4.44478e-07
4.52596e-07
-2.18097e-06
-5.12173e-05
4.15092e-06
-1.4199e-06
5.02147e-05
4.47185e-06
-4.75945e-06
0.000133128
1.49684e-06
1.1387e-06
1.55052e-06
1.88231e-06
-3.35921e-06
-9.05975e-08
-3.48613e-06
8.08059e-07
2.60893e-06
6.03844e-06
0.000103725
3.09207e-07
4.66057e-07
8.99168e-07
1.08918e-06
-1.72204e-07
-2.85829e-06
0.000113136
1.22389e-06
1.37995e-06
1.97578e-06
1.42525e-06
4.91354e-07
-7.13898e-09
4.91027e-07
-1.32668e-05
1.527e-06
-2.3989e-06
1.39665e-05
-2.05713e-05
-8.37191e-07
1.61242e-06
1.9796e-05
-1.04477e-06
-4.73146e-05
5.97159e-08
-2.44783e-07
2.01019e-06
4.65342e-05
1.5693e-06
-1.11549e-05
0.000191786
6.53476e-07
7.29143e-07
2.29229e-06
2.44363e-06
8.94584e-06
-3.15456e-06
0.000133755
1.3876e-06
-1.39714e-06
0.000113791
1.98962e-06
1.8212e-06
2.2489e-06
-1.23768e-06
-1.49755e-06
-1.42199e-06
-1.9192e-05
1.94757e-06
1.69134e-06
-3.22642e-06
2.01671e-05
-6.0414e-05
-5.88132e-06
4.91369e-06
7.80897e-06
5.83149e-05
-4.74228e-06
1.58492e-05
-2.95607e-06
0.000127571
-4.81355e-06
-7.51995e-06
-3.52943e-06
-7.50398e-06
-3.2742e-06
-5.26017e-07
-4.27529e-06
1.17894e-06
-7.90609e-07
7.20778e-05
1.68119e-06
2.45199e-06
1.97244e-06
-4.33802e-07
-2.43761e-06
-1.4366e-06
-1.98187e-05
1.87521e-06
-1.06145e-06
1.87867e-05
-8.64174e-06
2.40345e-06
-2.89133e-06
9.12962e-06
-2.1087e-05
-2.85824e-06
-4.899e-07
2.14791e-05
-3.24068e-05
-7.49871e-07
2.40023e-07
-1.26913e-07
3.22529e-05
-1.79906e-05
9.34762e-07
-7.73156e-08
1.71332e-05
-1.77078e-05
-1.23948e-07
-2.62876e-07
1.80947e-05
-2.9365e-05
-1.58579e-06
1.18991e-06
2.97608e-05
2.2263e-06
1.02873e-06
-5.90856e-05
-3.96416e-07
-2.09358e-06
5.83206e-05
8.00171e-07
-4.75515e-05
-2.3111e-07
3.77606e-07
-9.2931e-07
4.75341e-05
-5.09396e-05
5.09634e-07
-9.49588e-07
-1.09966e-06
5.22894e-05
1.89852e-07
6.68351e-07
-2.63143e-06
-4.92321e-05
4.69653e-06
-1.78373e-06
4.82824e-05
7.7687e-06
-3.47213e-06
0.0001336
1.22183e-06
9.84733e-07
1.35373e-06
1.7054e-06
-4.20109e-06
-8.91303e-07
-4.25416e-06
-6.87924e-07
1.56204e-06
5.1922e-06
0.000102723
1.11906e-07
2.02229e-07
7.82928e-07
9.19506e-07
-5.23039e-07
-5.8148e-06
0.000115298
1.12312e-06
1.26889e-06
1.98494e-06
1.45506e-06
2.44581e-08
-2.79745e-07
1.61283e-07
-1.49721e-05
1.89832e-06
-3.24388e-06
1.57946e-05
-1.88745e-05
-9.26135e-07
1.84869e-06
1.79519e-05
-9.8316e-07
-4.6129e-05
3.09384e-07
-4.68882e-07
2.01512e-06
4.52565e-05
2.31655e-06
-6.18324e-06
0.000188457
3.93051e-07
6.30921e-07
1.35994e-06
1.33963e-06
7.99091e-06
-5.71991e-06
0.000138992
1.90428e-06
-3.15923e-06
0.000117764
2.43239e-06
2.26535e-06
2.53675e-06
-2.44834e-06
-2.73873e-06
-2.58862e-06
-2.13679e-05
2.75728e-06
2.21228e-06
-4.47242e-06
2.2775e-05
-5.64299e-05
-5.68957e-06
4.39567e-06
7.77722e-06
5.45917e-05
-4.64508e-06
2.26808e-05
1.39291e-06
0.000128204
-5.36907e-06
-8.53495e-06
-4.77046e-06
-8.89217e-06
-2.93438e-06
1.94976e-06
-2.3385e-06
3.25353e-06
-3.29704e-06
8.60593e-05
3.37961e-06
4.59051e-06
4.08636e-06
-2.562e-06
-3.3895e-06
-3.08213e-06