/*--------------------------------*- C++ -*----------------------------------*\
| =========                 |                                                 |
| \\      /  F ield         | OpenFOAM: The Open Source CFD Toolbox           |
|  \\    /   O peration     | Version:  5.x                                   |
|   \\  /    A nd           | Web:      www.OpenFOAM.org                      |
|    \\/     M anipulation  |                                                 |
\*---------------------------------------------------------------------------*/
FoamFile
{
    version     2.0;
    format      ascii;
    class       surfaceScalarField;
    location    "1.6";
    object      phi;
}
// * * * * * * * * * * * * * * * * * * * * * * * * * * * * * * * * * * * * * //

dimensions      [0 3 -1 0 0 0 0];

internalField   nonuniform List<scalar> 
29271
(
-1.21344e-05
3.44364e-06
-2.06544e-06
1.07708e-05
-1.82898e-05
-3.32544e-06
-2.60927e-06
2.42565e-05
-2.34318e-05
-4.92006e-06
1.0013e-06
1.37912e-06
1.1229e-05
1.47425e-05
-2.00348e-05
-7.31655e-06
1.30668e-06
-2.01263e-06
1.20197e-05
1.60376e-05
-1.70616e-05
-2.97569e-06
2.41133e-06
7.48235e-06
1.06075e-05
-4.63889e-07
-2.31827e-05
-4.98174e-06
-4.66667e-06
7.87696e-06
1.00528e-05
1.49014e-05
-3.51382e-05
-2.17672e-05
-1.10473e-05
2.67474e-06
3.1848e-05
3.34299e-05
-3.10368e-05
-1.69153e-05
2.27932e-06
3.79928e-06
1.13037e-05
3.05698e-05
-3.73296e-05
-1.4306e-05
-1.39915e-05
2.65534e-05
1.17183e-05
2.73554e-05
-2.46853e-05
-4.85299e-06
3.3889e-06
4.47704e-05
-1.88341e-05
-6.22195e-06
-3.18328e-06
4.81961e-06
4.50785e-06
-2.64841e-05
-6.20691e-06
-1.13428e-05
4.76798e-06
1.16361e-05
2.76297e-05
-4.99619e-05
-1.89936e-05
3.29617e-06
-1.23819e-05
6.57716e-06
7.1464e-05
-2.0231e-05
-6.15482e-06
5.76612e-06
5.571e-07
4.5816e-06
1.5481e-05
-2.9938e-05
-8.96144e-06
-7.88468e-06
2.035e-05
8.04964e-06
1.83845e-05
-6.13739e-05
1.04325e-06
8.75802e-06
-1.7751e-05
0.000101514
-3.21904e-05
-2.98409e-05
-1.21753e-07
-8.36354e-06
-4.55111e-06
4.03507e-05
2.52659e-06
-4.5935e-05
1.01372e-05
-1.45681e-06
-8.49436e-06
-3.30727e-06
4.90562e-05
-2.37802e-05
-5.04513e-06
6.27822e-06
-3.58612e-07
8.09817e-06
1.48075e-05
-4.09567e-05
2.1399e-05
1.29182e-05
2.37012e-05
-9.72811e-06
-7.33359e-06
-1.45144e-05
2.04406e-05
-3.07369e-05
2.48099e-05
-1.75145e-05
1.30038e-06
-6.80234e-07
1.17738e-05
4.96156e-06
-4.01276e-05
-6.0342e-07
-6.38379e-06
-1.27702e-07
5.69823e-05
-9.73974e-06
-1.03129e-05
-1.00879e-05
7.23949e-06
1.3083e-05
-6.06094e-06
-3.3011e-07
3.01878e-06
3.48392e-06
-2.4359e-05
4.85234e-06
4.56619e-06
1.52989e-05
-4.45876e-06
-3.92151e-06
-1.33887e-05
3.19282e-06
3.94655e-06
1.46296e-05
-5.66188e-06
-1.70368e-05
-9.89424e-07
2.88767e-07
4.55888e-06
1.88404e-05
-9.28372e-06
-2.29022e-06
1.33847e-06
3.14292e-06
7.96633e-06
-8.73771e-07
-5.3627e-06
-1.65169e-06
-1.13961e-05
2.27796e-06
5.99294e-06
1.01396e-05
2.83695e-06
3.01679e-05
0.000139941
-2.42711e-05
-4.67187e-05
-6.93969e-05
-3.34523e-05
-2.61393e-06
-2.4067e-06
-1.17194e-06
2.57312e-06
-4.43156e-07
1.02841e-06
3.21065e-07
3.60638e-06
9.49529e-07
9.82512e-06
7.23408e-05
-2.83046e-05
-1.77218e-05
-1.74817e-05
-1.45122e-05
-2.08931e-06
-1.87238e-06
1.55212e-06
1.51459e-07
-2.54278e-06
6.45963e-06
0.00012683
-2.34056e-06
-1.85733e-06
-1.33106e-06
-1.10393e-06
1.46339e-06
-1.49169e-06
-1.32585e-06
-2.12331e-05
-4.81462e-05
-1.64267e-05
-3.6004e-05
-5.79423e-05
-7.50518e-07
5.81571e-06
5.04003e-05
-3.70274e-06
-2.43935e-06
3.14036e-06
3.00212e-06
-1.09736e-06
-2.51895e-05
-7.75441e-06
-7.55898e-06
1.04281e-05
3.11721e-05
1.39769e-05
1.34492e-05
0.000118917
-8.29878e-05
-2.36595e-05
-4.87751e-05
-2.1938e-05
7.62884e-06
1.7336e-05
1.52173e-05
2.10029e-05
-2.91258e-06
-1.12728e-05
9.34363e-05
-1.53851e-05
-1.47482e-05
-1.3018e-05
-1.22975e-05
-1.94398e-06
-2.02877e-06
0.000120831
-4.44674e-06
-6.23655e-06
-8.35258e-06
-2.6745e-06
-2.01418e-07
2.52563e-08
-1.73897e-05
-2.75408e-05
-1.64819e-05
-3.00125e-05
-0.000112037
2.69649e-07
1.0448e-05
-1.02177e-05
0.000109593
-5.75395e-05
-4.14812e-06
-6.12416e-06
1.30564e-05
7.2552e-05
-1.77966e-05
-1.1159e-05
-2.55421e-07
0.000135292
8.56471e-06
9.18312e-06
1.40605e-05
2.08504e-05
-1.93506e-06
3.70233e-06
-8.0588e-07
-4.65166e-05
-2.9982e-05
-3.57543e-05
-5.17955e-05
-1.77271e-06
-1.77709e-06
7.76039e-05
-2.17923e-06
1.61825e-06
1.2405e-06
-7.66174e-06
-1.47116e-06
-4.17163e-06
-1.2114e-05
-1.33989e-05
-2.78062e-05
-3.05418e-05
-1.73479e-05
-1.79236e-06
-1.17828e-06
1.6517e-05
-2.00732e-05
7.78284e-06
-4.37972e-07
1.29005e-05
-1.1415e-05
2.01815e-06
-5.52984e-06
1.48348e-05
-6.3847e-05
5.70285e-06
-6.94267e-06
7.68768e-06
5.56221e-05
-1.50041e-05
-2.0514e-06
2.54628e-06
1.45552e-05
-1.54476e-06
-7.04008e-07
2.3917e-06
-2.93773e-08
-8.45149e-06
2.02572e-06
1.80321e-06
4.7461e-06
-2.85126e-06
-5.09669e-06
-1.50467e-05
9.5203e-06
1.16944e-07
1.33574e-05
-6.83158e-06
-2.54118e-05
-1.31535e-05
5.65073e-06
8.42588e-07
3.89036e-05
-7.80773e-06
-2.51739e-06
5.9183e-07
4.73017e-06
6.20204e-06
-1.19891e-06
-3.45275e-06
-4.02684e-07
-8.96603e-06
1.82721e-07
5.69886e-06
6.93988e-06
1.71197e-05
6.6544e-06
9.94511e-05
1.33487e-07
7.10894e-06
7.10847e-07
3.21406e-06
2.15602e-07
1.54969e-06
5.08879e-07
3.27413e-06
1.1409e-05
9.09743e-06
7.09369e-05
1.70807e-07
-8.17688e-07
-7.98488e-07
-5.37487e-07
-1.10767e-06
1.10079e-05
0.000179107
-7.02558e-06
-5.82364e-06
-8.01587e-06
-1.00902e-05
-4.9963e-06
-4.83618e-06
-9.98076e-06
-4.94034e-05
-5.35856e-08
-6.7087e-06
5.50801e-05
-2.14339e-06
-2.72931e-07
1.04944e-06
1.38737e-06
-4.64416e-06
-4.85843e-05
-1.30035e-06
-1.31109e-05
5.16989e-07
6.71227e-05
4.59213e-05
2.18267e-06
5.99432e-05
4.03629e-06
8.05315e-06
1.49883e-06
3.93612e-06
5.39154e-06
-1.02389e-05
0.000153302
-1.75491e-05
-3.04465e-06
0.00020185
-1.08035e-05
-1.3953e-05
-1.34067e-05
1.87723e-06
-5.12701e-06
-2.61246e-06
-9.5802e-05
8.3393e-07
-1.31218e-05
1.54847e-05
7.50561e-05
-8.57594e-05
-4.50781e-06
-1.49436e-06
2.09831e-05
8.54957e-05
-1.47172e-05
6.78759e-06
3.91034e-06
9.97499e-05
3.00672e-06
6.34296e-06
-2.50792e-07
1.59586e-06
-2.38216e-07
1.14411e-05
5.12916e-06
1.15541e-05
-6.69472e-06
5.37243e-05
6.4014e-06
1.1041e-05
7.48093e-06
-3.11996e-06
-4.10509e-06
-2.12947e-06
-2.00149e-05
6.09222e-06
-5.87593e-06
2.83081e-05
-1.33983e-05
-1.13658e-05
3.74275e-06
2.09982e-05
-2.33887e-05
-6.87728e-06
-2.934e-06
3.70433e-05
-5.06512e-05
9.04528e-06
-2.15211e-06
-2.12357e-06
3.91869e-05
-9.16184e-06
5.5911e-06
-3.24745e-06
6.85745e-06
-2.92017e-08
-2.16161e-06
-9.23403e-07
3.08809e-06
-2.6444e-06
9.07861e-07
3.55513e-07
1.34142e-06
-2.23782e-07
-4.07964e-06
-1.32846e-05
1.00765e-05
-1.61631e-06
9.12782e-06
7.99422e-06
-4.51929e-05
-1.97193e-05
2.23653e-05
-1.58129e-06
3.6134e-05
-8.47043e-06
-2.73703e-06
8.85917e-06
3.28895e-06
1.58112e-05
-1.67519e-05
-2.66684e-06
-1.15252e-06
-6.1527e-06
2.31496e-07
-1.02274e-07
9.84284e-06
2.04804e-05
8.88765e-06
8.83788e-05
-9.56711e-07
-1.44684e-06
-1.07786e-06
-1.4416e-06
-1.83306e-06
-3.71364e-06
-3.5088e-06
-4.31717e-06
1.25882e-05
1.39097e-05
8.19186e-05
-4.08408e-06
-5.78428e-06
-3.0166e-06
-4.11423e-06
-3.36983e-06
1.05796e-05
0.000211186
-4.65508e-06
-5.68274e-06
-2.89455e-06
-3.46941e-06
-5.73198e-06
-2.21392e-06
-2.05334e-06
-6.13236e-05
-4.40764e-06
-2.33567e-06
6.46973e-05
-8.67129e-07
6.07687e-07
-4.93811e-07
7.52556e-07
-4.74124e-06
-7.97483e-05
1.45906e-05
2.92935e-06
-6.33844e-06
7.3308e-05
3.62404e-05
-4.82076e-07
6.30557e-05
-9.64831e-06
-1.05911e-05
-4.27162e-06
-5.47223e-06
1.53951e-05
2.58541e-06
0.000185472
-4.53612e-06
-2.9406e-06
0.000241851
-7.97557e-06
-1.75182e-06
-3.68141e-06
-2.43887e-07
3.26909e-06
3.83426e-06
-5.14699e-05
4.92833e-08
-2.61241e-06
1.12307e-05
3.82662e-05
-8.06329e-05
-3.3778e-06
5.53378e-06
1.78811e-05
7.55312e-05
-1.49354e-05
9.74486e-06
6.91703e-06
0.00010919
-6.5476e-06
-7.11176e-06
-8.85005e-06
-1.19754e-05
2.39159e-06
4.3222e-06
1.18687e-06
6.73984e-06
-7.66001e-07
5.8486e-05
3.34775e-06
2.86974e-06
9.7398e-07
-8.45888e-07
-2.21056e-06
-2.54029e-06
-3.26151e-05
6.20049e-06
-5.25552e-06
3.54694e-05
-2.71316e-05
-8.04149e-06
6.14117e-06
2.90319e-05
-5.32405e-05
-1.47693e-05
1.06211e-05
6.4305e-05
-2.57818e-05
1.85973e-07
1.64016e-06
3.13643e-06
2.00532e-05
-9.45784e-06
8.49275e-07
-2.97228e-06
1.15804e-05
-6.93496e-06
-2.02198e-06
5.10193e-07
8.44536e-06
-7.688e-07
8.91037e-08
-2.45911e-08
6.23343e-07
8.50652e-07
8.92559e-09
-4.66278e-06
7.5232e-07
1.06389e-06
1.987e-06
2.21714e-06
-2.55073e-05
-3.48321e-06
8.57052e-06
2.34993e-06
1.5853e-05
-1.87531e-05
-2.60164e-06
8.06597e-06
5.05503e-06
1.89084e-05
-1.06747e-05
1.02876e-06
-9.63785e-07
-2.04347e-05
4.14916e-06
-1.02326e-05
2.64531e-05
2.12523e-05
1.41669e-05
8.58355e-05
-1.2851e-06
-3.61326e-06
-2.33646e-06
-4.86894e-06
-5.35941e-06
-6.10589e-06
-3.47066e-06
-5.83611e-06
4.36458e-06
1.27166e-05
9.31128e-05
-2.13816e-06
-2.5707e-06
1.46872e-07
-2.46116e-06
-4.42168e-07
1.17793e-05
0.000213345
-3.88043e-06
-3.37568e-06
-1.7484e-06
-2.00283e-06
-1.78422e-06
3.14051e-06
5.19651e-07
-6.61524e-05
-1.30352e-06
-4.68964e-07
6.74834e-05
-9.23818e-07
2.57129e-07
-3.53626e-07
1.02006e-06
-2.30583e-06
-5.24511e-05
1.11708e-05
9.45669e-06
2.0754e-06
3.2054e-05
2.34975e-05
-8.78836e-07
8.04887e-05
-4.69237e-06
-8.48975e-06
-5.56138e-06
-7.14116e-06
1.0608e-05
1.86183e-05
0.00019246
-2.64298e-06
2.81321e-06
0.000246741
-1.52286e-06
-6.79199e-07
2.61253e-06
4.42045e-06
6.44734e-06
6.04817e-06
-3.00839e-05
-8.6557e-07
-4.83561e-06
6.03933e-06
2.71028e-05
-6.83905e-05
-2.9285e-06
7.92258e-06
1.60065e-05
5.80862e-05
-1.06963e-05
7.6674e-06
3.79445e-06
0.000138592
-1.11658e-05
-1.21087e-05
-8.96718e-06
-1.25415e-05
3.0138e-07
3.22563e-06
-4.8619e-07
1.01602e-06
-7.45092e-07
8.49626e-05
-1.37264e-06
9.07226e-07
-1.51108e-06
1.19937e-06
-5.41297e-07
8.56671e-07
-4.01896e-05
1.17488e-06
6.84671e-07
4.21593e-05
-2.9623e-05
-6.35853e-06
5.34333e-06
3.06382e-05
-7.05185e-05
-1.65842e-05
1.76247e-05
7.32724e-05
-2.52952e-05
-7.58874e-06
1.22509e-06
-2.50376e-06
3.34175e-05
-1.17467e-05
-2.08728e-06
9.9136e-07
1.28426e-05
-7.3831e-06
-5.54563e-08
1.09869e-06
6.33887e-06
-5.70549e-07
-4.48849e-08
3.3211e-08
4.7907e-07
-7.77925e-07
-2.37625e-07
3.83401e-07
2.7066e-07
2.53168e-06
-2.17019e-06
-3.91348e-06
-1.62757e-05
-8.57879e-07
2.23774e-06
3.84633e-06
1.4963e-05
-1.71047e-05
-1.17215e-06
3.61942e-06
3.4872e-06
1.42453e-05
-3.07512e-06
4.47199e-07
5.52758e-07
-2.4479e-05
4.08527e-06
6.10513e-06
1.32887e-05
2.02029e-05
1.5096e-05
8.90519e-05
-3.69013e-06
-5.61233e-06
-4.52144e-06
-4.80461e-06
-3.29727e-06
-5.83875e-06
-5.70787e-06
-5.04296e-06
7.61506e-06
1.22294e-05
0.000100328
-1.53527e-06
-2.71021e-06
-9.80113e-07
-1.63109e-06
1.57373e-06
1.34045e-05
0.000216144
-2.47681e-06
-1.72988e-06
-1.46597e-06
-2.45418e-06
-1.20042e-06
5.34447e-08
-8.88219e-07
-6.85484e-05
-2.819e-06
5.43099e-06
-6.17129e-06
7.36814e-05
5.36886e-07
-1.67521e-08
6.2681e-08
-5.86855e-07
-7.84103e-07
-2.80646e-07
5.92014e-07
4.53456e-07
-1.08988e-06
-2.173e-05
-1.09711e-05
2.16919e-06
6.71617e-06
2.49056e-05
1.68916e-05
-3.85828e-06
9.00934e-05
-3.37698e-06
-2.04775e-06
-1.52664e-06
-5.90751e-07
1.89487e-05
1.50185e-05
0.000187614
-1.97042e-06
4.45942e-06
0.000258089
3.14404e-06
-9.04958e-07
1.2906e-06
5.73206e-06
5.86603e-06
3.38835e-06
-2.64705e-05
-1.34925e-06
-2.94998e-06
7.84519e-06
2.09542e-05
2.89338e-09
1.0704e-07
-1.26936e-08
-2.77181e-08
-8.57326e-08
-5.0881e-05
7.63338e-07
1.55153e-06
1.09833e-05
4.50357e-05
-7.45287e-06
7.79203e-06
3.22954e-06
0.000155217
-6.68543e-06
-1.14205e-05
-4.1338e-06
-1.05163e-05
-1.34937e-06
3.38309e-06
-7.82599e-07
2.61934e-07
-1.81851e-06
0.000113151
-2.44746e-06
2.11818e-06
-1.9285e-06
-6.5615e-07
-1.36053e-06
4.52936e-07
-4.61923e-05
1.33209e-06
2.79028e-06
4.67912e-05
-3.69452e-05
-2.49132e-06
1.80267e-06
3.76338e-05
-7.4534e-05
-1.48601e-05
1.72946e-05
7.53291e-05
-4.02881e-05
-9.89207e-06
4.91129e-06
-3.39621e-06
4.68466e-05
-1.43518e-05
-2.29791e-06
1.00557e-06
1.56441e-05
-5.26294e-06
4.7229e-07
6.01738e-07
4.18771e-06
-3.38111e-07
-4.26368e-07
3.95091e-07
3.08995e-07
-1.66696e-06
1.0708e-06
3.02308e-06
-2.15365e-06
2.82133e-06
-3.0946e-06
-2.54387e-06
-1.28736e-05
1.17987e-06
4.50808e-07
3.25175e-06
1.0535e-05
-1.16078e-05
3.79911e-08
2.28992e-06
1.80053e-06
8.94407e-06
-1.46474e-06
-3.76357e-07
5.01402e-07
-5.39918e-06
1.05136e-06
5.57847e-07
3.66493e-06
1.07171e-05
1.36762e-05
8.95299e-05
-3.44388e-06
-3.92833e-06
-2.47528e-06
-2.52259e-06
-3.31401e-06
-7.39468e-06
1.0192e-06
-2.81165e-06
6.63705e-06
1.00122e-05
9.85991e-05
-1.51237e-06
-1.63312e-06
-6.09571e-07
-4.48295e-07
3.71862e-07
1.04293e-05
0.000218404
-1.93112e-06
-1.60996e-06
-9.48168e-07
-1.00964e-06
-1.25979e-06
9.88272e-07
-6.53915e-07
-7.93087e-05
9.54095e-06
6.24798e-06
1.27409e-06
6.26176e-05
1.59601e-06
-1.22304e-06
3.72385e-06
-3.94837e-06
1.44474e-06
-1.59319e-06
-2.71595e-07
-5.62678e-07
5.07843e-07
2.17845e-07
-4.11091e-07
-2.62698e-05
-7.77124e-06
2.17132e-06
1.27999e-05
1.9481e-05
1.35405e-05
-8.51306e-06
0.000103284
-2.18813e-06
-1.06738e-06
-1.07822e-06
-2.08429e-07
2.40936e-05
3.08381e-06
0.000183989
-8.49992e-08
3.53428e-06
0.000265818
3.64628e-06
1.67359e-06
4.51047e-06
4.46687e-06
4.64006e-06
4.40772e-06
-2.21436e-05
-2.03861e-06
-2.65224e-06
2.41798e-06
2.43315e-05
1.24152e-06
-2.4491e-06
1.55297e-06
-2.22577e-06
2.9022e-06
-1.02181e-06
-4.22835e-05
2.60823e-06
9.81174e-07
8.06271e-06
4.19266e-05
-1.12952e-05
8.38811e-06
2.70826e-06
0.000160959
-3.96373e-06
-9.20075e-06
-3.17986e-06
-8.21821e-06
-1.96688e-06
2.81927e-06
-1.64153e-06
1.53422e-06
-4.2648e-06
0.000136557
-2.19797e-06
3.36907e-06
-1.69479e-06
-2.51868e-06
-4.15782e-06
-2.00275e-06
-4.91184e-05
2.63288e-06
3.17555e-06
4.83784e-05
-3.18696e-05
-1.11519e-05
-1.92938e-07
4.18072e-06
3.90338e-05
-1.24337e-06
8.47244e-07
-1.09664e-06
1.49277e-06
-7.58552e-05
-1.39549e-05
1.72774e-05
7.52409e-05
-5.34101e-05
-1.06185e-05
6.17044e-06
-3.53101e-06
5.71244e-05
-1.76038e-05
-2.69786e-06
7.27159e-07
1.95745e-05
-3.25196e-06
6.77607e-07
5.58952e-08
2.5151e-06
-4.10769e-07
-9.26055e-07
7.65507e-07
5.03509e-07
-1.00176e-06
1.20449e-06
3.30768e-06
-1.30804e-06
1.82625e-06
-4.02862e-06
-1.39704e-06
-8.87136e-06
1.30285e-06
1.58676e-07
1.77315e-06
7.03372e-06
-7.19581e-06
-2.21906e-07
2.0069e-06
5.84957e-07
6.24303e-06
-1.41717e-06
-1.01891e-06
1.13104e-06
-4.35076e-06
-1.88967e-06
1.4857e-06
4.6426e-06
1.7964e-06
1.01928e-05
7.65587e-05
-2.64607e-06
-2.61434e-06
-2.08452e-06
-1.99795e-06
2.43062e-06
2.15325e-06
2.77967e-06
2.96139e-06
5.75491e-06
6.94936e-06
9.10422e-05
-1.07567e-06
-9.9919e-07
-6.73142e-07
-6.02993e-07
1.31419e-06
7.27968e-06
0.000216272
-1.12805e-06
-7.06561e-07
-1.69992e-07
2.05926e-07
-4.47372e-07
1.4551e-06
8.39744e-08
-6.13126e-05
-8.34254e-08
1.29644e-06
2.27054e-06
5.91432e-05
8.89224e-07
-4.05247e-08
-9.44231e-07
-1.63689e-07
2.17376e-06
-1.91454e-06
-2.98593e-07
-7.13437e-07
5.53253e-07
4.11826e-07
-6.07514e-07
-1.28283e-05
-3.50583e-06
-2.88371e-07
7.77045e-06
9.45953e-06
9.45747e-06
-1.4202e-05
0.000114278
8.24542e-07
-3.76529e-07
3.06327e-06
4.31907e-07
2.26236e-05
-6.82338e-06
0.000184595
2.00757e-06
1.82886e-06
0.000266591
5.67811e-06
3.73082e-06
5.69697e-06
3.72618e-06
2.92373e-06
3.53782e-06
-2.74906e-05
-2.10678e-06
-3.15714e-07
1.40559e-06
3.0515e-05
3.35712e-07
-4.07123e-06
9.06212e-07
-1.71694e-06
3.66114e-06
8.85104e-07
-4.20084e-05
1.41308e-06
1.90634e-06
6.68996e-06
4.20895e-05
-1.00904e-05
9.59006e-06
2.09608e-06
0.00016204
-4.08925e-06
-8.26378e-06
-3.24267e-06
-7.86464e-06
-2.59565e-06
1.71408e-06
-2.62758e-06
2.1947e-06
-6.33193e-06
0.000156057
-1.85372e-06
3.8547e-06
-1.49846e-06
-3.78712e-06
-6.07752e-06
-3.23404e-06
-5.01535e-05
2.7838e-06
2.19297e-06
4.92003e-05
-4.02358e-05
-8.23452e-07
-6.48566e-07
3.15783e-06
3.855e-05
-3.45079e-06
-1.36542e-06
-3.74133e-06
2.64425e-06
5.91329e-06
-7.43332e-05
-1.20985e-05
1.57592e-05
7.27687e-05
-6.08269e-05
-1.00782e-05
6.04057e-06
-3.79661e-06
6.23292e-05
-2.14531e-05
-2.56194e-06
1.0013e-06
2.30138e-05
-1.89105e-06
7.46509e-07
-1.04268e-07
1.24752e-06
-2.03364e-07
-3.51634e-07
1.08998e-06
-5.27575e-07
-4.09247e-07
4.49573e-07
4.33214e-06
-5.95279e-07
9.5828e-07
-4.73547e-06
-6.5242e-07
-5.37241e-06
5.66839e-07
3.59651e-07
1.39814e-06
3.7002e-06
-6.13174e-06
-2.62035e-07
6.12023e-07
1.63274e-07
6.71634e-06
-1.09787e-06
-2.19642e-06
1.12209e-06
-4.47295e-06
-2.7015e-06
3.39409e-06
4.85469e-06
-2.37733e-07
7.89793e-06
5.95224e-05
-1.16407e-06
-1.36986e-06
-7.7374e-07
-9.65438e-07
3.18291e-06
3.4152e-06
3.29889e-06
3.75226e-06
1.73506e-06
4.66688e-06
8.95417e-05
-1.57949e-06
-1.28695e-06
-1.22411e-06
-1.04859e-06
6.09163e-07
5.31307e-06
0.000218702
-5.78956e-07
1.00048e-06
1.62064e-07
3.40823e-07
-1.23021e-06
-3.44302e-06
-2.86788e-06
-7.11562e-05
7.44386e-06
2.19989e-06
2.75704e-07
6.18459e-05
3.82716e-06
2.93462e-07
-4.17604e-07
-3.46344e-07
-3.35667e-06
-5.07131e-07
-1.27035e-06
9.26995e-07
7.93373e-07
5.18405e-07
-9.06948e-06
-3.99674e-06
-3.17048e-06
5.4844e-06
1.02339e-05
8.41695e-06
-1.47705e-05
0.000119754
3.30309e-06
-5.98444e-08
4.26174e-06
1.27127e-06
1.95437e-05
-1.00767e-05
0.000188212
2.82706e-06
9.3395e-07
0.000270886
4.95105e-06
1.98047e-06
1.19901e-06
4.1316e-06
2.32598e-06
2.21325e-06
-3.44796e-05
-1.76003e-06
8.57989e-07
1.42576e-06
3.67829e-05
-4.41474e-06
3.15357e-06
-3.20707e-06
5.17122e-06
-5.55842e-06
4.85544e-06
-4.13842e-05
6.55489e-09
2.03565e-06
6.7471e-06
4.02126e-05
-7.61768e-06
9.24915e-06
1.26906e-06
0.00016297
-3.2631e-06
-7.62717e-06
-1.78223e-06
-7.30584e-06
-3.28182e-06
6.23782e-07
-3.58189e-06
2.20858e-06
-7.15384e-06
0.000173586
-1.81763e-06
3.94116e-06
-1.44539e-06
-3.85224e-06
-6.79426e-06
-3.44367e-06
-5.14085e-05
1.88274e-06
1.26191e-06
5.14064e-05
-2.97634e-05
-4.82106e-06
-1.48013e-07
3.47325e-05
-7.10167e-05
-9.76765e-06
1.30949e-05
6.89585e-05
-6.40264e-05
-8.393e-06
4.5065e-06
-3.69353e-06
6.44526e-05
-2.42684e-05
-2.41404e-06
1.4832e-06
2.51993e-05
-4.27722e-07
5.52906e-07
4.56012e-07
-5.80949e-07
1.34007e-06
-4.78512e-07
8.46699e-07
-1.70961e-06
-6.63843e-07
6.1134e-07
4.90388e-06
-6.27101e-07
6.41841e-07
-4.86612e-06
-1.07595e-06
-2.40868e-06
1.74021e-07
1.88891e-07
2.02327e-06
1.09846e-06
-7.72313e-06
-1.51321e-07
-1.14809e-06
6.28258e-09
8.71628e-06
2.99979e-07
-1.88573e-06
2.1712e-06
-4.98483e-06
-3.41935e-06
2.78104e-06
5.33766e-06
4.85314e-07
3.13781e-06
4.19238e-05
4.75385e-08
-1.86983e-07
1.05395e-07
4.27819e-08
3.44419e-06
3.42733e-06
3.45939e-06
3.63581e-06
-5.04266e-07
3.50473e-06
9.50693e-05
-2.3455e-06
-1.96648e-06
-2.12868e-06
-1.60213e-06
-5.31027e-06
3.16461e-06
0.000228289
-1.10296e-07
9.06914e-07
1.40844e-06
2.05206e-06
-4.7585e-06
-3.35901e-06
-4.08563e-06
-5.52634e-05
-5.71855e-07
-1.67579e-06
5.22008e-05
-1.42881e-06
-1.766e-06
7.97828e-07
2.39724e-06
1.17475e-06
-1.21248e-05
-3.35e-06
-3.78258e-06
3.93646e-06
1.41461e-05
9.11813e-06
-1.29798e-05
0.00011674
3.3938e-06
7.86129e-07
3.91252e-06
1.92107e-06
1.71966e-05
-9.80957e-06
0.000193448
-2.91139e-07
1.53048e-07
0.00028486
-1.75998e-06
8.31417e-07
2.91798e-07
1.85518e-06
2.46923e-06
2.8373e-06
-5.22652e-05
-3.23289e-07
-9.76833e-07
-7.47768e-07
5.40219e-05
-3.91734e-05
-1.71601e-06
1.29775e-06
6.28021e-06
3.83853e-05
-5.07378e-06
9.28148e-06
-4.06927e-07
0.000165875
-1.45562e-06
-6.87994e-06
-4.24342e-07
-5.98589e-06
-4.14376e-06
-1.63116e-06
-4.23835e-06
2.10583e-06
-6.83095e-06
0.000189563
-1.62199e-06
4.254e-06
-1.23477e-06
-3.43489e-06
-6.41403e-06
-3.32834e-06
-5.46333e-05
1.1875e-06
1.11394e-06
5.45907e-05
-3.46239e-05
3.45655e-06
1.88163e-06
2.92858e-05
-6.63774e-05
-6.51093e-06
9.57359e-06
6.29078e-05
-6.51165e-05
-6.38736e-06
2.94893e-06
-3.49678e-06
6.52208e-05
-2.58849e-05
-2.53603e-06
2.10789e-06
2.6313e-05
1.23809e-06
5.42089e-07
-1.35981e-07
-1.64347e-06
1.94033e-06
-1.19441e-06
1.27676e-06
-2.02259e-06
-1.04473e-06
9.18762e-07
4.76135e-06
-7.81488e-07
8.19645e-07
-4.67354e-06
-1.06596e-06
-1.05296e-07
2.97372e-07
-9.66829e-07
2.27716e-06
-4.36451e-07
-9.55814e-06
1.40593e-06
-3.16499e-06
-1.24313e-06
1.00133e-05
2.54703e-06
-1.23062e-06
3.02413e-06
-5.54966e-06
-3.74918e-06
2.24493e-06
5.2604e-06
-3.72037e-07
1.25869e-06
2.82231e-05
2.85394e-07
3.36062e-07
2.43361e-07
4.68172e-07
2.96574e-06
2.86548e-06
2.96968e-06
2.68014e-06
-3.81335e-06
1.48919e-06
0.000104488
-2.47316e-06
-1.85522e-06
-1.94269e-06
-1.19545e-06
-2.40478e-06
1.75208e-06
0.000224218
1.16374e-06
2.47816e-06
2.45624e-06
2.7875e-06
-3.09846e-06
-2.29387e-06
-2.58287e-06
-4.92333e-05
2.11104e-06
-1.96406e-06
4.66816e-05
-3.13299e-06
-2.0033e-06
1.34984e-06
3.78917e-06
9.00893e-07
-1.6031e-05
-2.73777e-06
-3.02971e-06
3.31983e-06
1.75778e-05
9.7218e-06
-8.90161e-06
0.000107985
2.70611e-06
1.41449e-06
2.97237e-06
2.10033e-06
1.8107e-05
-8.61282e-06
0.000195165
2.97867e-06
2.86503e-07
0.000285059
1.77082e-06
4.35704e-06
2.27241e-06
2.65867e-06
2.5353e-06
2.80033e-06
-5.45996e-05
3.66362e-07
3.56678e-06
-2.26482e-06
5.59099e-05
-3.8372e-05
-9.61407e-07
2.33923e-07
3.94502e-06
3.91277e-05
-3.97315e-06
8.72743e-06
-1.37181e-06
0.000168503
-6.54108e-07
-5.13621e-06
-7.63899e-08
-4.27468e-06
-3.71138e-06
-1.39524e-06
-3.6374e-06
2.26928e-06
-6.14053e-06
0.000203336
-1.38383e-06
4.47814e-06
-1.06178e-06
-3.04027e-06
-5.85041e-06
-2.92866e-06
-5.78396e-05
2.1105e-06
9.83387e-07
5.73015e-05
-2.86834e-05
5.21823e-07
-7.32944e-07
2.88945e-05
-5.79673e-05
-4.87022e-06
8.23514e-06
5.32306e-05
-6.54404e-05
-5.25292e-06
1.7846e-06
-2.665e-06
6.54332e-05
-2.64919e-05
-2.49019e-06
2.54462e-06
2.64375e-05
1.96482e-06
5.98311e-07
-4.41405e-07
-2.12151e-06
2.08387e-06
-1.49443e-06
1.42172e-06
-2.00995e-06
-1.14893e-06
1.2174e-06
4.69255e-06
-1.04567e-06
8.40895e-07
-4.55625e-06
-5.71437e-07
-9.42908e-08
1.18314e-06
-3.08168e-06
1.25526e-06
1.30901e-06
-1.03065e-05
2.47303e-06
-4.41089e-06
-2.52686e-06
1.05575e-05
4.21379e-06
-1.23476e-06
3.37883e-06
-4.94126e-06
-3.88198e-06
2.11801e-06
4.56116e-06
-5.05043e-06
-4.93261e-07
2.19346e-05
3.37061e-07
8.06564e-07
2.28008e-07
5.92043e-07
2.73639e-06
2.40322e-06
2.40949e-06
2.3194e-06
-1.18909e-05
-1.36801e-06
0.000114087
-9.00975e-07
-4.10702e-07
-4.80588e-07
4.01336e-07
-3.12676e-06
1.60312e-06
0.000212843
1.84906e-06
2.64135e-06
2.77343e-06
2.49291e-06
-2.90414e-06
-3.22987e-06
-2.61471e-06
-4.38969e-05
2.4669e-06
-1.85291e-06
4.01565e-05
-4.44384e-06
-1.85837e-06
1.18591e-06
5.1163e-06
9.42558e-07
-1.90172e-05
-2.35895e-06
-2.43728e-06
2.67078e-06
2.02001e-05
8.60526e-06
-6.0339e-06
9.78667e-05
1.85897e-06
1.27484e-06
2.2209e-06
1.6988e-06
1.68567e-05
-6.80241e-06
0.000192348
4.2048e-06
2.18456e-07
0.000283193
2.18863e-06
4.43912e-06
2.16573e-06
2.35196e-06
2.3354e-06
2.42177e-06
-5.87141e-05
3.37033e-07
4.15975e-06
-2.77073e-06
6.11928e-05
-4.06246e-05
2.41211e-07
-1.54243e-07
1.51681e-06
4.17506e-05
-2.72983e-06
6.61091e-06
-6.50383e-07
0.000171895
-6.71353e-07
-3.96432e-06
7.35839e-08
-3.22872e-06
-3.36282e-06
-6.66721e-07
-3.56612e-06
2.18674e-06
-5.26244e-06
0.000213728
-1.41114e-06
4.19879e-06
-1.27497e-06
-2.30793e-06
-4.55167e-06
-2.16124e-06
-6.0524e-05
2.27555e-06
8.56092e-07
5.97976e-05
-2.91854e-05
1.04152e-06
-1.25658e-06
2.94004e-05
-4.89344e-05
-2.68376e-06
4.62609e-06
4.63418e-05
-6.50046e-05
-2.93929e-06
1.43983e-07
-1.48586e-06
6.40233e-05
-2.62154e-05
-2.40623e-06
2.76264e-06
2.5859e-05
2.07498e-06
7.46156e-07
-8.88914e-07
-1.9319e-06
1.69552e-06
-1.87638e-06
1.31678e-06
-1.13584e-06
-9.43407e-07
1.57711e-06
4.35945e-06
-1.80203e-06
6.90674e-07
-3.8818e-06
1.74448e-07
-2.24229e-06
2.47523e-06
-3.97261e-06
1.82314e-07
3.38291e-06
-1.04891e-05
2.63028e-06
-4.08987e-06
-2.48304e-06
1.01635e-05
4.26822e-06
-9.31467e-07
2.88051e-06
-3.92377e-06
-2.96776e-06
1.5068e-06
3.43569e-06
-8.28481e-06
-1.21516e-06
2.20837e-05
2.49442e-07
7.47929e-07
3.27162e-08
4.0511e-07
2.06905e-06
2.1562e-06
1.72183e-06
1.96858e-06
-1.83256e-05
-2.6891e-06
0.000122578
5.14979e-07
8.41339e-07
1.11416e-06
1.76894e-06
-3.88967e-06
2.48533e-06
0.000198968
1.5921e-06
1.81733e-06
2.22084e-06
1.30888e-06
-2.96698e-06
-4.40229e-06
-2.61599e-06
-3.64915e-05
1.4156e-06
-1.12023e-06
3.23065e-05
-5.81096e-06
-1.51413e-06
9.05832e-07
6.41926e-06
1.05366e-06
-2.12915e-05
-1.94388e-06
-2.28139e-06
2.33868e-06
2.21244e-05
8.79974e-06
-6.02193e-06
9.14583e-05
1.16195e-06
1.57189e-07
1.3449e-06
-2.48629e-07
1.43864e-05
-3.16897e-06
0.000187241
3.87832e-06
1.74179e-07
0.000281965
1.89665e-06
3.79258e-06
1.91597e-06
2.02373e-06
2.32996e-06
2.08861e-06
-6.33478e-05
7.49853e-07
4.713e-06
-2.98987e-06
6.47532e-05
-4.27896e-05
-8.33899e-08
-2.4018e-07
1.11238e-06
4.39524e-05
-1.95163e-06
3.90615e-06
-3.9704e-07
0.000172963
-3.5956e-07
-2.17621e-06
6.12539e-07
-1.3854e-06
-3.54194e-06
-5.44143e-07
-3.20479e-06
1.77871e-06
-3.25885e-06
0.000220385
-1.69734e-06
3.71053e-06
-1.62184e-06
-1.33266e-06
-2.30659e-06
-1.19093e-06
-6.27415e-05
2.03917e-06
8.68342e-07
6.17869e-05
-2.97182e-05
1.29903e-06
-1.59589e-06
3.00151e-05
-4.45877e-05
6.74522e-08
5.07085e-07
4.36162e-05
-6.26617e-05
-4.97019e-07
-1.09299e-06
-5.92988e-07
6.15858e-05
-2.54861e-05
-2.38622e-06
2.70614e-06
2.51662e-05
1.74057e-06
8.80194e-07
-1.06629e-06
-1.55377e-06
2.20883e-07
-1.36132e-06
3.04939e-07
8.35583e-07
-5.82538e-07
1.75043e-06
3.32915e-06
-2.31935e-06
3.98762e-07
-2.57646e-06
8.11727e-07
-3.96369e-06
3.0418e-06
-3.75849e-06
-7.39808e-07
4.60846e-06
-9.77401e-06
1.8875e-06
-3.17718e-06
-1.96552e-06
9.46093e-06
3.56827e-06
-4.61987e-07
2.09019e-06
-2.84208e-06
-2.3723e-06
1.00786e-06
2.57831e-06
-9.30334e-06
-2.03418e-06
2.67339e-05
2.03869e-07
4.89275e-07
-2.39846e-07
3.23565e-07
1.74335e-06
1.57444e-06
1.42005e-06
1.17259e-06
-1.7857e-05
-2.09645e-06
0.00012581
1.44572e-06
1.53685e-06
2.1641e-06
2.27135e-06
-3.83537e-06
2.20707e-06
0.000185076
1.24712e-06
9.95087e-07
1.75527e-06
8.57594e-07
-2.18106e-06
-3.32055e-06
-1.6904e-06
-2.78586e-05
-1.2932e-07
-1.49151e-07
2.43021e-05
-7.19169e-06
-7.05521e-07
-1.84659e-07
8.07924e-06
1.4936e-06
-2.26469e-05
-1.34409e-06
-2.23594e-06
1.91328e-06
2.28201e-05
1.07196e-05
-6.97582e-06
8.89024e-05
2.44276e-07
-1.9221e-06
1.74286e-07
-1.71853e-06
1.35002e-05
7.48096e-07
0.000181616
3.60349e-06
1.37507e-07
0.000280642
2.00652e-06
3.70062e-06
2.14206e-06
1.59606e-06
2.3159e-06
1.52869e-06
-6.62026e-05
1.49624e-06
4.47747e-06
-3.61137e-06
6.74437e-05
-4.52325e-05
8.10946e-08
-6.87895e-07
6.10897e-07
4.65516e-05
-1.32328e-06
1.941e-06
-4.84862e-07
0.000170101
-9.17075e-09
-6.24722e-07
7.24321e-07
-5.93632e-08
-2.79687e-06
-5.79801e-07
-2.22435e-06
1.13031e-06
-1.07526e-06
0.000224603
-1.95844e-06
3.10013e-06
-1.64501e-06
-3.83933e-07
-3.75655e-07
-3.21795e-07
-6.46186e-05
1.53465e-06
9.18559e-07
6.34332e-05
-3.02589e-05
1.72466e-06
-1.84689e-06
3.03812e-05
-4.28267e-05
1.35293e-06
-1.1406e-06
4.21295e-05
-6.07639e-05
5.02333e-07
-1.69499e-06
4.09955e-07
6.04713e-05
-2.49519e-05
-2.38011e-06
2.4552e-06
2.48768e-05
1.40276e-06
8.716e-07
-1.21915e-06
-1.0556e-06
-1.92727e-06
-7.19426e-07
-2.58684e-07
2.90474e-06
-4.08122e-07
1.22875e-06
2.0984e-06
-1.82844e-06
2.84075e-07
-1.37466e-06
1.38366e-06
-5.30643e-06
2.72259e-06
-3.30331e-06
-1.66977e-06
6.17326e-06
-9.25042e-06
1.62596e-06
-2.64124e-06
-1.78067e-06
8.93408e-06
3.11229e-06
-1.44371e-07
1.68144e-06
-2.32165e-06
-1.97851e-06
4.09486e-07
2.3536e-06
-1.0733e-05
-3.33472e-06
3.44919e-05
1.35538e-07
4.2452e-07
-2.60235e-07
4.25243e-07
1.67025e-06
1.27248e-06
1.65622e-06
9.85819e-07
-1.54706e-05
-8.51582e-07
0.000123459
1.72847e-06
1.58918e-06
2.39008e-06
2.23262e-06
-2.06787e-06
-2.20135e-07
0.000169786
1.29244e-06
1.25928e-06
1.9662e-06
1.41325e-06
-1.07806e-06
-1.85379e-06
-8.91658e-07
-2.18999e-05
1.2222e-06
-2.82186e-06
2.14317e-05
-8.82902e-06
2.25696e-07
-9.87003e-07
9.59032e-06
1.71686e-06
-2.25853e-05
-8.1361e-07
-1.71557e-06
1.29347e-06
2.21042e-05
1.16783e-05
-9.33927e-06
9.00946e-05
-1.00865e-06
-2.56338e-06
-1.23924e-06
-2.05474e-06
1.15542e-05
3.0161e-06
0.000177872
3.29898e-06
-2.20069e-08
0.000277235
2.12245e-06
3.22098e-06
2.12815e-06
9.6426e-07
2.04122e-06
9.86747e-07
-6.86406e-05
3.37633e-06
4.11091e-06
-4.62037e-06
6.90727e-05
-4.79794e-05
-1.91782e-07
-5.59918e-07
3.20359e-07
4.9227e-05
-8.16209e-07
1.25301e-06
-5.76741e-07
0.000165138
-3.2767e-07
4.95737e-09
1.6261e-07
-4.76827e-07
-2.03982e-06
-6.64102e-07
-1.71118e-06
4.48804e-07
2.47777e-07
0.000227405
-1.62473e-06
2.31382e-06
-1.08013e-06
2.15146e-07
6.81793e-07
2.64994e-07
-6.62023e-05
1.00975e-06
9.42441e-07
6.46769e-05
-3.03736e-05
2.20472e-06
-2.04847e-06
3.02173e-05
-4.13412e-05
1.56399e-06
-1.36018e-06
4.05606e-05
-6.0428e-05
8.38677e-07
-1.81321e-06
1.0778e-06
6.05725e-05
-2.48853e-05
-2.14501e-06
2.06029e-06
2.497e-05
6.63451e-07
9.5782e-07
-1.27532e-06
-3.4595e-07
-3.76734e-06
4.10232e-09
-8.0274e-07
4.56619e-06
-4.03324e-07
6.05034e-07
8.41219e-07
-1.34691e-06
3.02827e-07
1.14971e-09
1.82246e-06
-7.08322e-06
2.28284e-06
-2.80263e-06
-2.12688e-06
7.90743e-06
-8.54954e-06
1.67827e-06
-2.44942e-06
-1.98571e-06
8.57821e-06
2.72819e-06
3.34109e-07
1.46946e-06
-2.61036e-06
-2.12793e-06
-3.43974e-07
3.27871e-06
-1.28995e-05
-5.18286e-06
4.35816e-05
2.27831e-07
5.18131e-07
-1.01251e-07
5.62626e-07
2.64358e-06
1.2208e-06
2.79839e-06
1.12258e-06
-1.51496e-05
-4.09795e-07
0.000118096
1.79367e-06
1.54552e-06
2.42129e-06
2.26225e-06
-1.52602e-06
-3.77219e-06
0.000154464
1.86466e-06
2.18297e-06
2.61089e-06
2.32392e-06
-8.26623e-07
-1.82176e-06
-8.63537e-07
-2.17685e-05
3.14978e-06
-5.58427e-06
2.2677e-05
-1.02279e-05
9.82115e-07
-1.47386e-06
1.07214e-05
1.6188e-06
-2.1252e-05
5.47433e-07
-7.3237e-07
-3.96569e-07
2.02147e-05
8.7253e-06
-1.1636e-05
9.53862e-05
-1.78083e-06
-2.43699e-06
-1.50647e-06
-1.83948e-06
6.49227e-06
3.46764e-06
0.000176228
2.43185e-06
-3.4065e-07
0.000269207
1.84434e-06
2.14236e-06
1.67002e-06
5.95384e-07
1.71552e-06
6.89031e-07
-6.89586e-05
4.79957e-06
4.00602e-06
-5.17062e-06
6.77555e-05
-4.98929e-05
-1.6682e-09
2.66188e-08
-2.36811e-07
4.99528e-05
1.52014e-07
1.56225e-06
-6.67697e-07
0.000162122
-1.35575e-06
-1.38832e-06
-1.10459e-06
-1.88671e-06
-1.66621e-06
-7.48889e-07
-1.36407e-06
-4.65968e-07
7.21503e-07