/*--------------------------------*- C++ -*----------------------------------*\
| =========                 |                                                 |
| \\      /  F ield         | OpenFOAM: The Open Source CFD Toolbox           |
|  \\    /   O peration     | Version:  5.x                                   |
|   \\  /    A nd           | Web:      www.OpenFOAM.org                      |
|    \\/     M anipulation  |                                                 |
\*---------------------------------------------------------------------------*/
FoamFile
{
    version     2.0;
    format      ascii;
    class       volScalarField;
    location    "10";
    object      p;
}
// * * * * * * * * * * * * * * * * * * * * * * * * * * * * * * * * * * * * * //

dimensions      [0 2 -2 0 0 0 0];

internalField   nonuniform List<scalar> 
10571
(
129.11
179.077
156.56
140.523
133.082
187.218
185.803
168.379
139.383
108.536
181.469
203.904
201.06
187.638
144.854
134.565
219.74
220.499
209.099
180.568
159.417
236.621
234.621
209.39
116.856
154.767
117.029
109.9
17.5161
168.148
96.101
11.0719
3.02667
9.31816
169.358
171.496
64.7324
9.77286
20.402
50.033
166.816
55.8456
15.1011
58.2325
59.9971
118.194
91.5101
70.9602
25.6492
98.9603
58.5948
9.03817
8.12202
133.008
16.9576
5.47046
9.57775
8.16214
166.606
122.825
8.55661
6.06091
6.99112
7.64975
78.6888
8.74617
5.52865
6.59076
7.3125
19.9581
8.69304
6.68831
6.73083
28.8185
7.7927
6.86543
7.43218
52.7277
5.60046
7.78473
8.4366
7.70551
92.7409
50.9965
6.28025
8.44044
7.59548
7.54534
13.3769
7.1892
7.40271
7.22125
7.39018
7.12535
7.42353
7.24189
6.93554
7.04245
7.03351
6.86647
7.35903
6.81853
6.79949
7.35748
7.69382
7.70608
20.746
7.32297
6.88727
7.5148
7.71207
7.50896
7.2962
6.96442
7.14244
7.33316
7.40957
7.33635
7.32071
7.28467
7.08884
7.01613
6.91211
6.94664
7.36456
7.00487
6.70432
7.15437
7.57694
7.59656
7.52488
7.08434
7.06447
6.84115
7.13817
7.53937
7.59916
7.53773
7.06835
6.85939
7.07727
7.35018
7.41579
6.74014
7.10037
7.26547
7.19326
7.08274
7.04437
7.0768
7.42338
6.98273
6.88642
7.1604
7.59298
7.51382
7.52446
7.0337
7.00835
6.85863
7.18637
7.45269
7.5522
7.52979
7.02359
6.9292
7.16949
7.36852
7.42
7.5139
6.9154
7.15252
7.2725
7.20766
7.2173
7.19234
7.16346
7.38824
7.07988
7.0401
7.22172
7.53257
7.52177
7.52266
7.05634
6.99514
6.94729
7.25132
7.39713
7.50548
7.51704
7.05185
7.03462
7.24649
7.39313
7.45434
7.50039
7.04134
7.22289
7.29474
7.23931
7.29961
7.2692
7.21768
7.34344
7.17337
7.12539
7.25389
7.4537
7.45201
7.51339
7.15256
7.08867
7.08479
7.2911
7.36003
7.43346
7.50856
7.15295
7.17264
7.28721
7.36795
7.37659
7.16435
7.28137
7.31739
7.30711
7.33004
7.29132
7.24953
7.3269
7.25358
7.18266
7.27266
7.40558
7.37404
7.26893
7.21964
7.19833
7.31281
7.3458
7.34306
7.27156
7.25561
7.31497
7.34077
7.31757
7.31066
7.33465
7.33937
7.37128
7.35531
7.33439
7.35659
7.34707
7.31338
7.25777
7.36704
7.37704
7.36641
7.35762
7.30967
7.28435
7.35908
7.33653
7.34248
7.35864
7.31661
7.35444
7.33173
7.35053
7.42852
7.36786
7.35173
7.39111
7.3863
7.36034
7.40845
7.38118
7.36182
7.29566
7.46782
7.3568
7.36135
7.41819
7.36362
7.34271
7.39221
7.33376
7.32698
7.4154
7.37171
7.39217
7.34015
7.34993
7.44445
7.40469
7.39303
7.38736
7.38882
7.36479
7.39211
7.38557
7.39246
7.30565
7.4421
7.32859
7.3369
7.4477
7.39153
7.35975
7.38626
7.32086
7.27531
7.44146
7.39047
7.39958
7.34445
7.32993
7.43918
7.4305
7.41378
7.37562
7.38572
7.3555
7.36662
7.36507
7.39374
7.31347
7.37729
7.29773
7.3058
7.45224
7.40316
7.34971
7.37117
7.30067
7.23715
7.44098
7.38286
7.38815
7.3405
7.32355
7.43149
7.42511
7.39982
7.37153
7.38884
7.36862
7.35729
7.34446
7.38095
7.31641
7.34225
7.28615
7.30087
7.4397
7.3933
7.33748
7.35232
7.30789
7.25706
7.42651
7.36975
7.3758
7.33184
7.3096
7.42178
7.4008
7.38159
7.35697
7.38737
7.37416
7.34359
7.33269
7.37161
7.34549
7.31622
7.29311
7.31065
7.41647
7.37403
7.33509
7.32695
7.30282
7.30334
7.40849
7.35273
7.35963
7.33229
7.3417
7.40724
7.37747
7.36769
7.34468
7.35917
7.35844
7.32676
7.32859
7.35964
7.36161
7.30347
7.3046
7.31997
7.40127
7.36659
7.34704
7.31063
7.29803
7.3118
7.39725
7.35425
7.33425
7.33206
7.32205
7.38334
7.35444
7.355
7.33509
7.31118
7.30517
7.31782
7.32831
7.35633
7.37409
7.30725
7.31541
7.32928
7.39355
7.36904
7.35358
7.3028
7.294
7.30927
7.39146
7.35577
7.31902
7.31767
7.31876
7.37175
7.33998
7.34357
7.3298
7.30896
7.27288
7.31522
7.32908
7.36547
7.36508
7.31164
7.32118
7.33713
7.40149
7.38114
7.34357
7.29943
7.28495
7.31321
7.39045
7.33604
7.30067
7.29904
7.31873
7.35183
7.32137
7.3342
7.32937
7.33997
7.27645
7.31508
7.32786
7.37674
7.35141
7.31334
7.32162
7.34079
7.41044
7.4024
7.33709
7.29462
7.27793
7.32101
7.38573
7.30619
7.28936
7.29358
7.32233
7.33292
7.31103
7.32595
7.32253
7.34731
7.28689
7.31259
7.32137
7.38088
7.34348
7.31028
7.31875
7.3378
7.40525
7.40061
7.31823
7.29782
7.29596
7.33205
7.3673
7.28879
7.30331
7.32304
7.34167
7.31645
7.31087
7.34665
7.30615
7.32801
7.28735
7.30072
7.30936
7.34206
7.32423
7.3006
7.312
7.32693
7.38287
7.3632
7.30264
7.30055
7.30722
7.33698
7.33376
7.28355
7.32677
7.34491
7.3348
7.30721
7.31708
7.40731
7.28682
7.28584
7.27073
7.28272
7.29537
7.27912
7.29663
7.28769
7.29731
7.31148
7.35217
7.32245
7.28358
7.29243
7.30216
7.32279
7.30769
7.2716
7.31472
7.31694
7.32141
7.30056
7.30875
7.33964
7.26838
7.23832
7.22397
7.26078
7.28243
7.21109
7.26438
7.27346
7.28634
7.29718
7.32001
7.2836
7.26077
7.27573
7.28885
7.30325
7.29307
7.24742
7.26855
7.28803
7.30391
7.27485
7.2656
7.26661
7.25488
7.19722
7.1691
7.24489
7.27462
7.12452
7.23116
7.26261
7.28043
7.28694
7.29563
7.24438
7.23808
7.26248
7.27883
7.28839
7.27598
7.21657
7.2354
7.26714
7.28477
7.25043
7.23439
7.23993
7.25498
7.17955
7.18555
7.24901
7.27355
7.01595
7.21029
7.26235
7.27727
7.2817
7.27317
7.20452
7.21548
7.25701
7.27306
7.2797
7.25485
7.1918
7.22429
7.26062
7.27433
7.23253
7.22771
7.25109
7.26721
7.19386
7.2964
7.2654
7.2786
6.9438
7.22974
7.26754
7.27899
7.28026
7.23662
7.17316
7.19826
7.25638
7.26881
7.27708
7.24053
7.18824
7.22936
7.26337
7.27145
7.22498
7.24039
7.27073
7.27932
7.253
7.36651
7.27647
7.28271
6.94797
7.25427
7.27078
7.2772
7.28008
7.19679
7.13966
7.20011
7.25733
7.26704
7.27849
7.23536
7.20094
7.24488
7.26821
7.27226
7.23051
7.26403
7.28283
7.28668
7.27473
7.33227
7.27714
7.28025
6.9937
7.23627
7.27451
7.27176
7.27911
7.15863
7.08291
7.21205
7.26192
7.26669
7.27835
7.23307
7.21575
7.26715
7.27335
7.2754
7.24229
7.28852
7.29372
7.29385
7.23359
7.31607
7.28235
7.28203
7.04069
7.19822
7.2759
7.27929
7.28193
7.1257
7.02969
7.22963
7.26769
7.27289
7.27866
7.20093
7.22592
7.28731
7.27989
7.2808
7.25559
7.30941
7.30402
7.30199
7.43292
7.31917
7.28933
7.28712
7.13697
7.2307
7.28204
7.29314
7.28986
7.15242
7.06458
7.26007
7.2776
7.28324
7.28517
7.20129
7.24332
7.30799
7.28947
7.28992
7.27915
7.33554
7.3132
7.3088
7.37173
7.32438
7.29936
7.29712
7.22932
7.29977
7.2943
7.29904
7.29764
7.2039
7.17245
7.29537
7.28944
7.29532
7.29759
7.23704
7.27056
7.32445
7.3031
7.30312
7.30061
7.3494
7.32816
7.3151
7.39636
7.34178
7.31296
7.30433
7.43262
7.34259
7.30275
7.31083
7.31149
7.29507
7.27393
7.32725
7.29584
7.30462
7.31374
7.24498
7.28711
7.33105
7.31202
7.31747
7.32405
7.35603
7.33846
7.31957
7.40876
7.34796
7.31852
7.30506
7.41351
7.33741
7.30821
7.30843
7.31632
7.38793
7.31336
7.33128
7.2971
7.30036
7.31096
7.28761
7.30193
7.32441
7.30386
7.31604
7.34413
7.35558
7.33255
7.32548
7.36941
7.34413
7.32039
7.30618
7.3621
7.32619
7.31766
7.29633
7.31016
7.35675
7.29619
7.32291
7.29904
7.29013
7.30501
7.28711
7.32813
7.31698
7.2881
7.30381
7.35395
7.34442
7.31517
7.32918
7.34729
7.33682
7.32772
7.31295
7.3369
7.31846
7.32129
7.29125
7.30369
7.31541
7.28092
7.3117
7.30345
7.28299
7.29736
7.25916
7.35515
7.31911
7.2813
7.28738
7.35554
7.33066
7.29674
7.32973
7.34303
7.33452
7.3275
7.31528
7.3407
7.32332
7.32063
7.29057
7.30254
7.31752
7.29477
7.2995
7.30245
7.27953
7.29442
7.29756
7.34817
7.31764
7.28556
7.28533
7.34718
7.32218
7.29551
7.33036
7.36038
7.3375
7.3191
7.31144
7.35953
7.33757
7.31544
7.2914
7.30395
7.34115
7.31873
7.3125
7.29436
7.27875
7.29459
7.33444
7.33894
7.30789
7.29004
7.29218
7.34611
7.31831
7.30541
7.3315
7.37369
7.33937
7.32346
7.31007
7.37748
7.34523
7.30753
7.29115
7.30217
7.36453
7.34611
7.32077
7.28295
7.27856
7.295
7.33222
7.33397
7.29531
7.29426
7.29938
7.34316
7.30867
7.31445
7.33208
7.36464
7.33915
7.32944
7.31277
7.36914
7.34097
7.29788
7.28839
7.2979
7.36877
7.34882
7.32117
7.27215
7.28
7.29796
7.32565
7.32369
7.28484
7.29839
7.30601
7.34178
7.29844
7.31951
7.33033
7.35572
7.33902
7.32531
7.32001
7.35325
7.33029
7.28966
7.28735
7.30754
7.37213
7.36009
7.3163
7.26695
7.28737
7.30545
7.3291
7.31335
7.27941
7.30255
7.31267
7.33986
7.29088
7.32194
7.32783
7.34832
7.33364
7.32119
7.32753
7.33892
7.30555
7.28715
7.29179
7.32036
7.36945
7.3505
7.29695
7.27135
7.30004
7.31522
7.33808
7.30089
7.27769
7.30919
7.32188
7.33605
7.28715
7.32673
7.32466
7.34035
7.32593
7.31741
7.33305
7.32217
7.28006
7.28902
7.29919
7.33137
7.34888
7.32794
7.27051
7.27913
7.31478
7.32578
7.3342
7.28022
7.28381
7.31985
7.33259
7.32236
7.29066
7.33692
7.32092
7.33221
7.31965
7.31404
7.33531
7.30247
7.26372
7.28903
7.30927
7.33889
7.32762
7.30218
7.24716
7.2897
7.33132
7.33439
7.31796
7.25738
7.29504
7.34061
7.344
7.30178
7.30188
7.36066
7.31909
7.32702
7.31717
7.31291
7.33065
7.28475
7.25541
7.29179
7.32049
7.33573
7.30764
7.28175
7.25278
7.30368
7.34176
7.34597
7.30189
7.24354
7.31472
7.35431
7.35408
7.2829
7.32358
7.37587
7.31884
7.32428
7.31826
7.31336
7.3266
7.27185
7.25886
7.29665
7.32469
7.32781
7.28676
7.26403
7.2706
7.31719
7.34722
7.34563
7.28104
7.24504
7.32617
7.3547
7.3548
7.27124
7.35239
7.38932
7.31919
7.32333
7.31895
7.31499
7.3222
7.26615
7.26716
7.30289
7.32199
7.33104
7.26991
7.24648
7.28455
7.3303
7.34401
7.34052
7.24487
7.25689
7.33096
7.35145
7.34506
7.27426
7.36524
7.37187
7.31788
7.32159
7.31637
7.31929
7.31787
7.26875
7.27798
7.30738
7.31391
7.32647
7.2641
7.24799
7.29187
7.33085
7.33203
7.33335
7.21608
7.27154
7.3446
7.34386
7.33865
7.29234
7.36504
7.35955
7.31082
7.31473
7.30734
7.31605
7.31256
7.27673
7.28816
7.31016
7.30344
7.31564
7.26823
7.25874
7.29539
7.31748
7.31727
7.32307
7.2133
7.28962
7.33787
7.33309
7.32996
7.32397
7.3588
7.35151
7.29942
7.30485
7.29154
7.30319
7.30575
7.28651
7.28991
7.30291
7.29669
7.30612
7.27817
7.2695
7.29753
7.30287
7.3025
7.31184
7.23158
7.28743
7.32207
7.32161
7.31955
7.32831
7.34344
7.33586
7.28485
7.30074
7.28345
7.28672
7.29951
7.29457
7.28982
7.29053
7.29208
7.29952
7.29182
7.28743
7.29351
7.28761
7.29277
7.30224
7.26531
7.29018
7.31
7.3107
7.30981
7.33452
7.33683
7.32125
7.28365
7.29921
7.27374
7.26705
7.29532
7.30316
7.29545
7.28147
7.29045
7.29647
7.30735
7.30476
7.2943
7.2778
7.28821
7.2958
7.30544
7.2917
7.29659
7.30194
7.30279
7.33375
7.32331
7.3114
7.29404
7.30777
7.28534
7.26928
7.2974
7.31602
7.30584
7.27883
7.29315
7.29774
7.32279
7.31826
7.3054
7.2775
7.28847
7.29424
7.32365
7.29288
7.28509
7.29674
7.29969
7.32368
7.30961
7.30287
7.31644
7.32702
7.31491
7.30149
7.30762
7.33304
7.32324
7.2877
7.30254
7.30301
7.34362
7.34174
7.31833
7.28175
7.29379
7.29615
7.3342
7.29614
7.2819
7.29557
7.29991
7.31947
7.3028
7.29804
7.32929
7.34923
7.34174
7.32349
7.32008
7.34638
7.33489
7.30662
7.31241
7.30925
7.35815
7.35205
7.33032
7.29264
7.29978
7.29971
7.34077
7.30239
7.28728
7.29601
7.30149
7.31069
7.29875
7.2969
7.33213
7.36193
7.34825
7.3262
7.32611
7.35429
7.34091
7.31594
7.31385
7.312
7.3239
7.31949
7.33296
7.30199
7.3024
7.30049
7.33467
7.31133
7.29233
7.29467
7.30366
7.30774
7.29783
7.29845
7.33434
7.35799
7.34587
7.32649
7.32488
7.34725
7.33625
7.3116
7.30467
7.30759
7.30206
7.29132
7.32561
7.30327
7.29675
7.29707
7.33491
7.32053
7.29369
7.29415
7.30443
7.31545
7.30277
7.30331
7.33879
7.35923
7.34988
7.32953
7.32189
7.35116
7.33939
7.30583
7.29037
7.29521
7.32456
7.3083
7.32169
7.30091
7.28278
7.2864
7.35479
7.33578
7.29783
7.29367
7.30062
7.33412
7.31252
7.31137
7.34394
7.36812
7.3581
7.33413
7.31563
7.37277
7.35409
7.3025
7.26586
7.26892
7.38758
7.37417
7.35272
7.29795
7.26166
7.26142
7.41313
7.37154
7.30543
7.29266
7.28605
7.36307
7.327
7.32226
7.3476
7.38442
7.36434
7.33756
7.30204
7.4002
7.36687
7.29727
7.21758
7.20293
7.44485
7.43117
7.38962
7.29923
7.22263
7.18958
7.47306
7.40689
7.32134
7.28273
7.24853
7.399
7.34524
7.33342
7.34937
7.40983
7.37282
7.3356
7.27696
7.42346
7.37548
7.28524
7.1299
7.04825
7.47678
7.46556
7.40614
7.29175
7.1424
6.993
7.50071
7.42509
7.33089
7.25438
7.16353
7.43044
7.36737
7.33803
7.35358
7.42899
7.38904
7.33118
7.24431
7.43562
7.38292
7.26153
7.00885
6.64723
7.48697
7.47659
7.41541
7.26982
7.03283
6.48417
7.50466
7.44047
7.33969
7.20375
6.97487
7.46645
7.39794
7.34185
7.36927
7.44555
7.41726
7.33771
7.21312
7.43179
7.40013
7.23087
6.87997
5.54599
7.48316
7.47041
7.42284
7.24079
6.91834
5.70222
-3.70383
7.5049
7.4556
7.35057
7.1492
6.5218
7.48828
7.42239
7.3569
7.40083
7.48204
7.45709
7.35662
7.20885
7.43047
7.42166
7.25137
6.86053
4.90038
-0.0322643
7.479
7.45419
7.42861
7.27751
6.88764
5.59802
0.475753
7.50189
7.46933
7.36632
7.14907
5.98103
7.49434
7.44081
7.38614
7.4491
7.55038
7.50778
7.38363
7.26612
7.47312
7.45231
7.31106
7.04202
5.66069
1.41997
7.49245
7.44903
7.42935
7.33957
7.01212
5.68476
1.61961
7.50052
7.48153
7.40812
7.24302
6.38343
2.10276
7.49719
7.45564
7.43004
7.48396
7.54527
7.51415
7.4197
7.38526
7.47946
7.45548
7.35993
7.25194
6.07351
1.68489
7.52225
7.47031
7.43325
7.38608
7.20426
6.15539
1.48028
7.50344
7.48434
7.45591
7.3396
6.59489
7.49687
7.47099
7.45896
7.51757
7.51112
7.50063
7.48719
7.50434
7.41186
7.44688
7.39048
7.3735
6.70436
7.49382
7.45089
7.43733
7.42174
7.36217
6.59561
-1.9151
7.49865
7.48037
7.47615
7.438
7.22919
7.49377
7.47956
7.47704
7.51821
7.48601
7.48213
7.49502
7.56363
7.43714
7.41403
7.39633
7.41445
7.31819
7.48885
7.45443
7.43646
7.43164
7.42554
7.24648
7.4914
7.47657
7.48011
7.46812
7.44495
7.48934
7.48153
7.48732
7.49634
7.47137
7.4668
7.47824
7.51368
7.45317
7.39995
7.41048
7.44566
7.44767
7.49359
7.47115
7.43556
7.44351
7.45729
7.43629
7.48644
7.47
7.47885
7.47899
7.48514
7.48405
7.48187
7.49115
7.48683
7.46528
7.46293
7.47109
7.49051
7.44359
7.41261
7.42867
7.46406
7.47841
7.48526
7.45815
7.43521
7.45449
7.47169
7.4727
7.4796
7.46536
7.47914
7.48398
7.49476
7.47959
7.48249
7.49235
7.48606
7.46957
7.46817
7.47384
7.48618
7.44741
7.42896
7.44497
7.46523
7.48564
7.46363
7.43517
7.4249
7.46099
7.47831
7.48265
7.4621
7.46005
7.48041
7.48526
7.49803
7.47263
7.48349
7.49349
7.48804
7.47808
7.47657
7.4798
7.48855
7.45562
7.4438
7.45782
7.4768
7.49031
7.45225
7.4321
7.42588
7.4685
7.4852
7.49297
7.43623
7.45499
7.48274
7.4854
7.49824
7.46863
7.48616
7.49569
7.49006
7.48924
7.48542
7.48554
7.49058
7.46786
7.45642
7.46773
7.48549
7.4955
7.45223
7.43732
7.44187
7.47313
7.49033
7.49954
7.40882
7.45142
7.48592
7.49044
7.50227
7.47291
7.49437
7.50176
7.49669
7.49929
7.49403
7.49047
7.49416
7.48101
7.47384
7.48053
7.49354
7.50048
7.46751
7.45
7.45448
7.47383
7.49163
7.50343
7.41636
7.45438
7.48429
7.49607
7.50694
7.49282
7.51346
7.51307
7.50638
7.50472
7.49915
7.49517
7.49728
7.4893
7.48048
7.48454
7.49514
7.50288
7.48628
7.46575
7.46355
7.47933
7.49337
7.50673
7.44774
7.47829
7.49958
7.50383
7.51357
7.52072
7.53321
7.52624
182.569
146.713
174.851
162.772
144.634
149.703
149.763
145.043
193.996
196.862
194.736
195.467
209.37
183.893
170.455
199.115
180.403
159.883
155.757
171.033
164.828
148.744
144.382
156.48
147.762
140.129
192.762
190.997
203.404
204.894
199.889
207.985
201.154
192.96
190.016
200.144
200.44
183.834
175.878
195.065
185.516
163.983
150.796
169.365
149.408
145.837
149.599
147.539
206.127
226.402
232.59
216.133
210.389
223.229
220.407
210.611
211.488
221.122
221.902
205.124
193.098
214.594
199.737
171.818
143.827
179.573
170.642
167.176
162.941
192.279
232.117
231.902
231.047
242.316
254.244
232.612
233.175
254.7
256.214
226.265
215.335
252.365
248.881
205.894
212.738
245.101
227.392
204.013
262.868
276.515
284.901
283.876
287.044
277.988
286.121
255.528
163.311
149.542
131.665
152.004
136.287
128.496
137.873
128.206
132.266
133.978
124.052
125.629
123.045
131.341
113.733
180.633
173.187
172.073
182.693
185.432
169.843
159.303
177.621
174.184
123.881
139.015
121.139
105.898
78.9856
88.8872
52.7992
109.512
43.1889
180.975
177.528
182.624
174.809
173.688
173.798
119.504
113.085
44.6849
75.7054
76.8534
192.434
210.046
173.061
174.573
192.437
124.359
146.262
99.6828
88.5824
100.824
216.069
201.758
220.604
221.796
226.901
206.794
204.821
198.406
192.653
169.338
197.171
182.921
134.886
117.541
133.312
122.478
108.068
230.967
186.216
240.961
235.431
182.314
178.263
174.83
222.844
230.57
164.05
151.985
165.341
141.194
132.188
111.545
121.026
122.57
119.481
103.258
101.051
102.474
115.891
86.9111
97.8967
83.4199
14.0684
38.4225
7.86873
168.048
164.37
136.828
165.834
139.271
136.715
112.96
153.161
95.7051
9.14822
10.7745
8.53911
6.15141
6.32689
6.30414
6.49522
8.29384
6.59973
170.134
171.194
169.839
167.973
169.862
169.112
23.9893
31.4475
5.86473
7.5773
11.1483
168.258
172.223
168.937
167.26
155.999
46.8232
56.2442
18.9977
20.5318
24.2635
171.94
138.4
151.165
152.327
137.006
121.588
95.6786
103.352
82.4494
61.0953
65.1878
62.1949
10.7835
19.646
10.0427
12.3881
22.8893
128.69
74.8506
108.423
105.226
62.8368
52.3966
50.8367
78.8342
96.427
36.3639
17.2473
41.0746
10.475
75.4362
37.6681
48.6068
65.2959
55.1292
7.89897
25.2728
10.4152
11.5802
6.11312
5.3236
5.13225
7.89689
7.90872
7.88521
143.168
103.885
79.327
115.404
68.9226
63.0229
46.3949
78.6747
49.84
8.12896
9.02898
8.30533
7.66869
7.6985
8.36773
7.85658
8.24144
7.82011
155.492
169.654
164.181
124.264
155.159
138.066
7.45066
7.77352
7.70615
7.49713
7.69671
156.416
127.233
141.611
121.542
92.8293
8.47529
7.71314
7.20734
7.26914
7.05039
100.687
64.4574
47.0256
56.9176
33.0483
40.4398
12.8741
18.2593
8.30415
6.96447
6.61953
6.53164
7.09503
6.9097
7.2319
7.0489
6.98005
28.7635
7.82309
13.1796
14.8553
7.26644
7.00529
6.98526
7.0885
8.72769
6.92676
6.93824
6.75424
7.20658
7.84181
6.72696
6.27483
7.11842
6.33433
6.77547
6.8022
6.78312
6.83308
7.61132
6.92524
6.86932
7.31975
7.64591
7.50135
61.3287
26.5508
12.1899
42.8266
19.8871
7.67409
6.71403
10.645
7.06971
7.74399
7.79065
7.72401
7.39068
7.74425
7.56609
7.72307
7.75198
7.74744
79.9582
104.329
90.6767
39.14
54.3805
47.0354
7.68824
7.75474
7.75289
7.72089
7.75913
80.0456
59.2623
51.5563
44.3038
32.8906
7.60721
7.53151
7.42571
7.47514
7.47232
34.6106
15.9754
7.478
8.20096
7.08178
8.34667
7.49972
7.61865
7.56368
7.24995
7.21007
7.24869
7.27807
7.31929
7.28038
7.31303
7.38025
7.16978
7.50184
7.12583
7.1526
7.2793
7.17936
7.1777
7.2754
7.41454
7.07078
7.09307
7.16142
7.23156
7.0511
6.95195
6.8924
7.0739
6.87475
6.97875
6.97593
6.92776
6.91664
7.23737
7.02148
7.00295
7.25102
7.42329
7.39295
7.82677
7.09315
7.0534
6.91697
6.88829
7.13326
6.99996
7.21264
7.05902
7.66482
7.43387
7.67791
7.35119
7.57041
7.38874
7.59173
7.67637
7.59788
9.49333
19.4584
11.7841
6.98512
7.62053
6.95208
7.68283
7.71042
7.65071
7.621
7.60567
15.2585
13.6618
7.99495
7.11893
7.21016
7.56388
7.50013
7.5575
7.56279
7.51188
8.44401
7.06038
7.11278
7.27701
7.45486
6.99708
6.87564
6.96559
6.94076
7.37694
7.3156
7.34222
7.36173
7.40157
7.32339
7.359
7.43254
7.44004
7.28162
7.16244
7.15713
7.03749
7.01954
7.05678
7.19755
7.28984
7.15341
7.16015
7.15655
7.26865
6.92799
7.00874
7.05775
6.9707
6.97577
7.10637
7.01823
7.01656
7.05649
7.26597
7.14762
7.10033
7.26511
7.39076
7.40367
7.12508
7.04708
6.88721
7.09423
6.92026
7.02359
6.96652
7.05405
6.97553
7.51428
7.38666
7.52786
7.38842
7.50241
7.39434
7.51249
7.51949
7.47146
7.13685
7.11838
7.15529
6.98029
7.04647
7.02551
7.55369
7.59049
7.61559
7.5156
7.54247
7.51351
7.54335
7.52543
7.53084
7.52531
7.52329
7.52385
7.52049
7.5228
7.07094
7.05447
7.05276
7.03409
7.02484
7.58374
7.49566
7.48858
7.57506
7.5365
7.48684
7.58945
7.5329
7.53586
7.52975
7.53233
7.53005
7.52799
7.53481
7.06921
7.02068
6.96275
6.98955
6.91795
7.02794
6.9192
6.99056
6.93348
7.39453
7.31772
7.3548
7.36057
7.38395
7.315
7.3403
7.38379
6.87511
6.93208
6.83232
6.92164
6.91734
6.88054
6.9136
7.14012
7.12155
7.11189
7.1465
7.1387
7.26615
7.11875
7.20903
7.15009
7.1051
7.06997
7.18825
7.17812
7.12833
7.14629
7.26703
7.20941
7.17966
7.28356
7.4081
7.39547
7.06752
7.1077
7.06847
7.08705
7.0493
7.15573
7.17206
7.14145
7.12425
7.49733
7.43684
7.52905
7.41817
7.47723
7.46233
7.52614
7.52214
7.50414
7.55587
7.5481
7.52242
7.52125
7.53018
7.52283
7.00215
7.05021
7.0483
7.00466
7.04911
7.0397
7.52908
7.47553
7.53594
7.52456
7.52911
7.49087
7.51949
7.52227
7.51789
7.51888
7.52414
7.5206
7.51721
7.5155
7.02579
7.02798
7.03393
7.0257
7.04268
7.52886
7.51233
7.57052
7.53743
7.51383
7.50499
7.53034
7.52579
7.53087
7.52879
7.51991
7.51813
7.51772
7.51841
7.04247
7.04944
6.92573
6.98584
6.93735
7.01826
6.87617
6.98617
6.92959
7.37228
7.31395
7.33871
7.39485
7.3665
7.31871
7.33852
7.53716
7.44292
7.55076
7.5219
7.49529
7.5122
6.9287
6.95446
6.97557
7.0114
6.96734
7.02008
7.05606
7.17674
7.184
7.18641
7.20505
7.22339
7.284
7.26834
7.30814
7.21995
7.23123
7.18461
7.25223
7.27111
7.22857
7.19049
7.29048
7.20471
7.20441
7.28702
7.37396
7.34659
7.15728
7.20725
7.23871
7.19191
7.19309
7.26662
7.29028
7.23331
7.23584
7.44453
7.42446
7.49377
7.3634
7.40944
7.36219
7.44793
7.54021
7.52662
7.47947
7.51055
7.52888
7.52172
7.52264
7.51975
7.04519
7.0755
7.07247
7.09886
7.11653
7.11179
7.52089
7.49531
7.50987
7.48771
7.50705
7.47782
7.50154
7.51915
7.51693
7.51464
7.51852
7.51804
7.51199
7.5139
7.05203
7.06952
7.09422
7.09566
7.10403
7.50594
7.48397
7.49747
7.47441
7.49346
7.45314
7.47914
7.51901
7.50968
7.51271
7.50685
7.51549
7.50506
7.51828
7.07706
7.11583
6.94253
7.03032
6.9857
7.09244
7.01318
7.08675
7.05002
7.36114
7.32191
7.34279
7.37866
7.36536
7.3284
7.35025
7.56197
7.4198
7.55287
7.52274
7.50658
7.52474
7.01496
7.07401
7.06995
7.10357
7.09936
7.1175
7.14788
7.23786
7.25861
7.25471
7.26341
7.28835
7.30838
7.33437
7.34423
7.28826
7.29919
7.26269
7.30224
7.31127
7.28557
7.23039
7.28686
7.28071
7.25877
7.29397
7.32796
7.32048
7.24731
7.27676
7.32405
7.26611
7.26458
7.31756
7.33835
7.28935
7.288
7.37604
7.30855
7.3986
7.33217
7.35406
7.28384
7.36484
7.41897
7.37798
7.15933
7.16604
7.16462
7.2112
7.21768
7.21837
7.49889
7.45342
7.49088
7.41092
7.47001
7.42193
7.46498
7.51485
7.50265
7.51047
7.5067
7.51043
7.5
7.50602
7.15328
7.15447
7.21242
7.21175
7.20723
7.46793
7.40837
7.51092
7.38538
7.42841
7.35092
7.469
7.51296
7.50745
7.5147
7.50037
7.50959
7.50745
7.51402
7.16824
7.2238
7.09424
7.16018
7.1204
7.2131
7.18471
7.22353
7.18929
7.3681
7.33773
7.36293
7.35498
7.36791
7.34377
7.36793
7.31438
7.14648
7.21431
7.17656
7.2029
7.23094
7.23363
7.25623
7.28474
7.3138
7.30878
7.31494
7.33874
7.32923
7.34702
7.34994
7.30365
7.31818
7.29642
7.31105
7.33019
7.30577
7.28246
7.30722
7.34236
7.31361
7.33085
7.3254
7.33841
7.30126
7.32176
7.34179
7.30799
7.30263
7.34146
7.34443
7.32352
7.31342
7.34135
7.27773
7.34864
7.33171
7.34674
7.28308
7.35335
7.35806
7.35669
7.25783
7.26828
7.26847
7.29791
7.30959
7.31114
7.40295
7.45397
7.36249
7.36641
7.3153
7.26556
7.26241
7.31741
7.31194
7.3094
7.39386
7.31179
7.32757
7.22896
7.30938
7.28196
7.32821
7.24673
7.28393
7.24692
7.31838
7.29966
7.33245
7.29844
7.36826
7.33733
7.3602
7.33501
7.36296
7.32157
7.34806
7.34037
7.29516
7.35438
7.28587
7.29904
7.37869
7.32904
7.32756
7.34101
7.371
7.35564
7.36169
7.37844
7.33813
7.35814
7.36749
7.33253
7.35029
7.32736
7.35408
7.36527
7.35118
7.35192
7.35576
7.38543
7.37905
7.37599
7.35669
7.37095
7.34613
7.36997
7.35355
7.34049
7.32765
7.37343
7.36557
7.36097
7.3473
7.36258
7.31162
7.36579
7.36638
7.37686
7.35178
7.38129
7.36254
7.37045
7.33475
7.34549
7.34577
7.36711
7.37156
7.37137
7.36125
7.35507
7.36551
7.35451
7.3581
7.34862
7.35109
7.39187
7.3783
7.3868
7.33561
7.32621
7.33818
7.34591
7.33399
7.36918
7.40272
7.34049
7.37446
7.34036
7.39092
7.37446
7.40803
7.37686
7.36085
7.32539
7.34488
7.33319
7.36284
7.34572
7.35881
7.35283
7.40244
7.42981
7.36004
7.35239
7.44454
7.37504
7.37418
7.38048
7.38401
7.3838
7.39571
7.39769
7.3722
7.37369
7.3764
7.36599
7.36876
7.36481
7.36595
7.36887
7.3618
7.38624
7.38877
7.39301
7.38935
7.39688
7.387
7.39534
7.39011
7.40423
7.37526
7.38099
7.36698
7.38938
7.38179
7.39391
7.37845
7.39
7.36999
7.3902
7.38954
7.39363
7.37167
7.38882
7.37362
7.36843
7.39185
7.39171
7.3901
7.40963
7.40489
7.40218
7.34771
7.35326
7.3537
7.33704
7.34262
7.39976
7.41497
7.43645
7.4143
7.43613
7.33197
7.32566
7.30376
7.31248
7.30013
7.42723
7.44523
7.40242
7.42964
7.40347
7.43282
7.42303
7.44565
7.41986
7.36913
7.36657
7.37503
7.34336
7.37006
7.38024
7.38676
7.34112
7.43909
7.44514
7.38578
7.39348
7.44036
7.39123
7.40105
7.41451
7.41844
7.41958
7.4259
7.4305
7.40915
7.3783
7.37858
7.35934
7.3678
7.35342
7.36111
7.37064
7.3578
7.38763
7.39444
7.37785
7.38141
7.38857
7.39112
7.38234
7.41129
7.41229
7.38157
7.40012
7.3814
7.38856
7.37776
7.40068
7.37951
7.38631
7.36675
7.37648
7.37606
7.37371
7.35731
7.36037
7.35702
7.34431
7.41877
7.41254
7.40858
7.4208
7.41496
7.41028
7.31595
7.32043
7.32016
7.29854
7.30225
7.42313
7.4486
7.45207
7.42712
7.45337
7.2849
7.28399
7.25081
7.26197
7.28044
7.4541
7.45658
7.43646
7.45194
7.42777
7.44427
7.44068
7.45377
7.42999
7.36465
7.38511
7.38841
7.3421
7.35463
7.3828
7.38384
7.3273
7.44687
7.4475
7.39746
7.4123
7.43669
7.41226
7.43734
7.43303
7.44128
7.43499
7.43498
7.45065
7.40901
7.37791
7.38214
7.36594
7.37218
7.36357
7.36924
7.37989
7.37144
7.37681
7.38109
7.37433
7.37531
7.37273
7.37291
7.36388
7.40956
7.40701
7.37577
7.39891
7.37813
7.3859
7.3797
7.39615
7.37962
7.35992
7.34593
7.34524
7.35412
7.3481
7.33412
7.3328
7.33226
7.32241
7.41839
7.41398
7.40854
7.41335
7.41044
7.40408
7.2867
7.28826
7.30014
7.27774
7.27927
7.42709
7.45076
7.44829
7.42301
7.44368
7.25114
7.28389
7.24013
7.255
7.28999
7.45278
7.44501
7.43936
7.44908
7.4263
7.43518
7.43352
7.44196
7.41944
7.34614
7.37832
7.37359
7.33444
7.33807
7.37195
7.36352
7.31346
7.44417
7.43928
7.41587
7.44411
7.42738
7.40486
7.42704
7.42471
7.44487
7.41327
7.41174
7.43528
7.3902
7.38862
7.39256
7.37534
7.38674
7.37926
7.37606
7.38524
7.3796
7.37242
7.36462
7.36512
7.36546
7.35727
7.35597
7.34932
7.40301
7.40083
7.38711
7.39228
7.38402
7.38939
7.39188
7.39047
7.38742
7.33877
7.32551
7.32276
7.33716
7.33205
7.32103
7.3162
7.31708
7.31516
7.40727
7.40444
7.3973
7.40081
7.39658
7.38993
7.27701
7.28016
7.30534
7.28206
7.28695
7.41535
7.43394
7.42777
7.40524
7.42317
7.27211
7.30723
7.28414
7.29571
7.32848
7.43431
7.42265
7.42524
7.43124
7.40786
7.4173
7.41636
7.4194
7.39428
7.33181
7.36554
7.35784
7.33484
7.33484
7.36175
7.35438
7.32928
7.43281
7.42587
7.39016
7.41083
7.41751
7.38208
7.39801
7.40024
7.42334
7.38959
7.39039
7.411
7.37392
7.39837
7.39817
7.37159
7.38027
7.37285
7.36392
7.37482
7.3634
7.35894
7.34974
7.35007
7.35138
7.34344
7.3443
7.34031
7.39914
7.3951
7.39679
7.38979
7.38603
7.37846
7.39183
7.38448
7.38152
7.32881
7.31958
7.31343
7.32976
7.32691
7.31823
7.31223
7.31663
7.3185
7.39399
7.38973
7.38391
7.38729
7.38465
7.37922
7.28697
7.29482
7.31551
7.29321
7.30277
7.39546
7.41372
7.40799
7.38777
7.40612
7.31471
7.33064
7.31134
7.32453
7.32579
7.41201
7.40438
7.40716
7.40848
7.38464
7.4019
7.39973
7.40075
7.3831
7.33276
7.35756
7.34391
7.33287
7.32243
7.35762
7.33857
7.32951
7.41168
7.39746
7.37536
7.38424
7.39351
7.37088
7.37327
7.38045
7.39446
7.36566
7.37037
7.37893
7.36235
7.37775
7.34517
7.3535
7.36181
7.351
7.34212
7.34488
7.33764
7.34308
7.33815
7.33936
7.33535
7.3337
7.33745
7.33541
7.3862
7.37483
7.36327
7.37471
7.36639
7.33315
7.32423
7.36001
7.34493
7.3276
7.31846
7.31401
7.32813
7.32857
7.31849
7.3156
7.32222
7.32558
7.3811
7.38017
7.37501
7.37612
7.37664
7.37115
7.3004
7.31098
7.32462
7.30773
7.31762
7.38274
7.39966
7.3962
7.38017
7.39529
7.32535
7.31985
7.31023
7.3223
7.3145
7.39912
7.39597
7.39277
7.39532
7.38282
7.39372
7.3902
7.39308
7.38494
7.3217
7.35218
7.33532
7.32545
7.3202
7.34501
7.33351
7.31996
7.38778
7.38305
7.36869
7.36757
7.37736
7.36915
7.36534
7.36132
7.36263
7.34719
7.35439
7.34961
7.34799
7.3102
7.27876
7.33144
7.32857
7.32583
7.32352
7.31475
7.31751
7.32957
7.33079
7.33168
7.32583
7.32887
7.33406
7.33346
7.36485
7.35958
7.28626
7.34367
7.32637
7.30404
7.25181
7.33415
7.31397
7.3303
7.31954
7.31881
7.32869
7.33209
7.32005
7.32175
7.32955
7.33295
7.37459
7.37546
7.36982
7.37814
7.37821
7.37265
7.31425
7.32283
7.33369
7.31903
7.32683
7.38067
7.39408
7.39525
7.38534
7.39564
7.32103
7.3099
7.30991
7.32143
7.30635
7.395
7.39584
7.388
7.39247
7.38562
7.39069
7.38725
7.39244
7.38481
7.31817
7.33858
7.33123
7.30727
7.31616
7.32859
7.32742
7.31801
7.3807
7.37808
7.36886
7.36522
7.36371
7.36221
7.36306
7.35053
7.34076
7.33063
7.34609
7.3351
7.33914
7.26429
7.27192
7.31892
7.30716
7.3132
7.31749
7.3096
7.31222
7.32386
7.32762
7.32955
7.32293
7.32664
7.33294
7.33211
7.36288
7.37378
7.24943
7.33547
7.31619
7.32416
7.27645
7.34533
7.32885
7.33335
7.32087
7.32498
7.32898
7.33392
7.32115
7.32737
7.33602
7.33803
7.38475
7.38415
7.37932
7.39359
7.39032
7.38721
7.32171
7.33006
7.33949
7.32387
7.33335
7.39303
7.39865
7.40756
7.40014
7.40172
7.32377
7.30507
7.31738
7.3261
7.30706
7.39668
7.39633
7.38426
7.39313
7.38132
7.38908
7.38091
7.39284
7.37703
7.31387
7.31916
7.32257
7.29351
7.31379
7.3113
7.31851
7.32081
7.37576
7.36845
7.35368
7.35665
7.34185
7.34307
7.34899
7.34046
7.32813
7.3143
7.33499
7.32169
7.32865
7.30083
7.33251
7.31776
7.31817
7.3134
7.31803
7.32787
7.31468
7.32144
7.32543
7.32738
7.31816
7.32323
7.33018
7.32692
7.38481
7.39155
7.30466
7.3549
7.33451
7.34744
7.32415
7.35696
7.32366
7.33275
7.32079
7.3288
7.32539
7.3301
7.31859
7.32801
7.33894
7.33779
7.40148
7.39626
7.39576
7.4062
7.40187
7.4032
7.32639
7.337
7.34039
7.32815
7.34003
7.40455
7.40363
7.4101
7.40541
7.40459
7.32933
7.31025
7.32521
7.33372
7.31777
7.39441
7.39078
7.37204
7.38909
7.36868
7.37954
7.35783
7.38099
7.35622
7.31316
7.31185
7.32034
7.30412
7.31936
7.31692
7.33008
7.32818
7.36228
7.35337
7.33212
7.33858
7.32379
7.32416
7.33165
7.33228
7.31939
7.31082
7.33275
7.32001
7.33039
7.35001
7.35009
7.31637
7.33409
7.31357