/*--------------------------------*- C++ -*----------------------------------*\
| =========                 |                                                 |
| \\      /  F ield         | OpenFOAM: The Open Source CFD Toolbox           |
|  \\    /   O peration     | Version:  5.x                                   |
|   \\  /    A nd           | Web:      www.OpenFOAM.org                      |
|    \\/     M anipulation  |                                                 |
\*---------------------------------------------------------------------------*/
FoamFile
{
    version     2.0;
    format      ascii;
    class       surfaceScalarField;
    location    "10";
    object      phi;
}
// * * * * * * * * * * * * * * * * * * * * * * * * * * * * * * * * * * * * * //

dimensions      [0 3 -1 0 0 0 0];

internalField   nonuniform List<scalar> 
29271
(
-5.71101e-06
-2.29364e-06
-7.38198e-07
8.69663e-06
-7.0289e-06
6.97739e-06
-4.34054e-06
4.49265e-06
-1.75234e-05
2.01689e-06
-1.18601e-05
9.81412e-06
-7.0772e-06
2.46297e-05
-1.92448e-05
6.42148e-06
-8.52817e-07
-9.72199e-07
-8.60466e-06
2.3253e-05
-2.03432e-05
-6.03403e-07
3.44827e-06
8.27821e-07
1.86614e-05
-1.9909e-06
-1.52578e-05
5.37968e-06
3.55296e-06
-1.7883e-07
-7.41481e-06
1.39188e-05
-2.07958e-05
1.02983e-05
-8.59366e-06
6.94677e-06
-1.15035e-05
2.36478e-05
-1.66834e-05
5.4676e-06
-3.97641e-06
2.17142e-06
-2.40749e-06
1.54283e-05
-1.62184e-05
-1.27128e-06
-1.74359e-06
1.51352e-06
6.82506e-07
1.70373e-05
-1.51598e-05
-1.34671e-06
-5.80259e-07
1.82177e-05
-1.26016e-06
-6.78839e-06
4.94108e-06
-1.16643e-05
1.33745e-05
-1.73313e-05
4.68729e-06
9.88513e-06
1.45402e-07
-1.03722e-05
1.29857e-05
-1.71007e-05
8.73048e-06
-1.61145e-06
1.00354e-06
-6.39621e-06
1.53744e-05
-1.38328e-05
1.30448e-06
-2.14325e-06
2.54164e-06
-1.35005e-06
1.34799e-05
-1.91141e-05
-1.63024e-07
-4.12241e-06
6.2196e-06
-4.78175e-06
2.19617e-05
-1.88622e-05
2.403e-06
1.60619e-06
-2.18433e-06
1.66391e-05
3.98289e-07
-1.72868e-05
1.0165e-06
3.51672e-07
-1.14033e-06
1.1263e-05
5.79595e-06
-1.61496e-05
-7.87598e-07
4.44023e-06
1.06139e-06
-2.92851e-06
1.43641e-05
-1.69656e-05
2.36237e-06
-2.37062e-06
4.18904e-06
-2.43846e-06
1.52233e-05
-2.02425e-05
2.35163e-06
-4.14515e-06
1.70393e-05
9.38148e-06
-4.38483e-06
-4.99971e-06
1.21796e-06
-9.38252e-07
4.52352e-06
-1.09493e-05
-1.67602e-07
2.35139e-07
9.60567e-06
1.12642e-06
-1.36448e-05
-8.06332e-07
1.55489e-06
-6.88834e-07
1.20226e-05
1.56247e-06
-5.26114e-06
1.94681e-06
-9.26423e-07
4.17899e-06
-1.69466e-05
-3.27333e-06
4.95645e-06
1.52969e-05
-4.66127e-06
5.03385e-06
-4.73167e-06
4.43274e-06
-3.17939e-06
-4.45909e-06
-2.2789e-05
3.23674e-06
8.15564e-06
1.90351e-05
-4.60119e-06
-2.02303e-05
-4.49496e-06
5.53107e-06
4.77353e-06
1.90219e-05
-1.70449e-05
-1.56311e-06
9.09225e-07
1.49528e-06
1.85956e-05
-2.39212e-06
2.02445e-06
-2.80004e-06
-1.22454e-05
3.42783e-06
-1.0282e-06
1.06213e-05
2.62664e-05
3.87008e-06
5.7756e-05
-2.13967e-05
-1.21529e-05
-1.86119e-05
-9.45925e-06
6.83304e-07
-3.1841e-06
-7.79883e-07
-5.25663e-06
-4.52283e-06
-5.88706e-06
-3.57651e-06
-3.74801e-06
-7.83964e-07
3.06225e-06
9.99022e-05
-1.67202e-05
-1.58515e-05
-1.50202e-05
-1.50519e-05
-4.2266e-06
-2.08528e-06
-2.59871e-06
-4.35975e-06
-3.19833e-06
-1.90844e-05
0.00016205
-5.6253e-07
-2.9954e-07
-7.75154e-06
-6.747e-06
-3.21741e-06
-1.36302e-05
-4.82415e-06
-2.12586e-05
-2.45782e-05
-2.16742e-05
-3.60083e-05
-1.99826e-05
1.25276e-06
-6.17561e-06
2.17856e-05
-1.82619e-05
9.94881e-07
-3.22521e-06
2.04955e-05
1.47846e-08
-9.35594e-06
5.51956e-08
2.34163e-06
2.43136e-07
6.70119e-06
1.42729e-05
2.33837e-07
5.83901e-05
-1.63438e-05
-1.01401e-05
-1.44422e-05
-1.07932e-05
-5.8736e-06
-4.37726e-06
-3.64627e-06
-3.41036e-06
-9.64641e-06
-4.94914e-06
9.93456e-05
-1.54336e-05
-1.60089e-05
-1.62185e-05
-1.9754e-05
-2.43094e-06
-2.48099e-06
0.000114807
-2.28846e-06
-1.75706e-06
-1.90325e-06
-1.71643e-06
-3.70551e-07
-5.73406e-07
-2.56549e-05
-4.89959e-05
-3.30012e-05
-2.23644e-05
-1.23713e-05
1.58046e-06
3.74026e-07
1.63862e-07
7.82199e-06
-8.89968e-06
-9.67555e-07
1.647e-06
1.45896e-06
7.57478e-06
-8.13506e-07
4.92823e-06
-9.60277e-07
6.00736e-05
-3.19554e-06
-2.65146e-06
-2.73747e-06
-2.29742e-06
-1.22612e-06
-6.1725e-07
-7.68441e-07
-1.41805e-05
-1.28076e-05
-1.16694e-05
-1.16565e-05
-1.46536e-06
-2.32557e-06
6.94993e-05
-9.42013e-07
-9.4902e-07
-6.63971e-07
-2.00386e-06
-1.94044e-06
-1.37754e-06
-1.449e-05
-1.74014e-05
-1.32352e-05
-1.27258e-05
-1.41525e-05
-4.0027e-07
-7.08944e-07
1.13153e-05
-4.79887e-06
1.65506e-07
1.41076e-07
4.44105e-06
-9.52144e-06
-1.04221e-06
8.67777e-07
8.69112e-06
-1.1217e-05
-7.63081e-07
1.09756e-06
-8.14014e-07
9.37099e-06
-3.82475e-06
5.10901e-07
-1.89481e-07
3.52231e-06
-9.87895e-06
-1.25395e-06
3.61248e-06
7.58414e-06
-3.76232e-06
2.08613e-06
-1.52327e-06
3.27219e-06
-4.95231e-07
-2.11078e-06
-1.31228e-05
9.12819e-07
7.72988e-06
7.0861e-06
-2.1877e-06
-1.81722e-05
-6.47806e-06
6.03516e-06
3.81641e-06
1.69864e-05
-1.92436e-05
2.57922e-06
-2.40339e-06
-4.03463e-07
2.19437e-05
-2.47245e-06
1.45567e-06
-3.91098e-06
-1.0034e-05
4.28391e-06
-3.47374e-07
8.55275e-06
5.52634e-05
6.80355e-06
5.04216e-05
-2.09695e-05
-6.7095e-06
-6.7946e-06
-2.24359e-06
-4.77798e-06
-4.72364e-06
-4.2606e-06
-4.2531e-06
3.66113e-05
1.79704e-05
0.00012437
-4.88411e-06
-6.78913e-06
-4.10404e-06
-8.00824e-06
-3.562e-06
5.71616e-06
0.000187709
-2.7995e-06
-1.15598e-06
1.66731e-06
3.39421e-06
5.62976e-07
1.85434e-06
5.27501e-06
-1.54996e-05
4.98392e-07
-2.2546e-06
1.36938e-05
-1.41468e-05
-1.19049e-06
8.78271e-06
6.74883e-06
-3.93665e-06
-6.81296e-06
-8.8624e-07
3.74951e-06
1.57338e-06
6.31295e-06
2.60429e-05
2.84329e-08
5.90602e-05
-5.69639e-06
-5.01651e-06
-4.94603e-06
-4.27892e-06
4.69147e-06
-7.96859e-06
0.000146636
-1.0559e-06
1.56933e-06
0.000126616
-6.57778e-07
-3.03218e-06
-1.88553e-06
1.47486e-06
9.04235e-07
1.28142e-06
-5.15484e-06
-1.4946e-07
-7.02327e-07
6.77459e-07
4.27327e-06
-6.90736e-06
-1.90349e-06
2.3172e-06
1.84652e-06
6.27349e-06
-1.62636e-06
8.60863e-06
2.17545e-07
6.03559e-05
-2.63813e-06
-2.16047e-06
-2.14645e-06
-2.15862e-06
-5.31324e-08
1.32624e-07
-5.58848e-08
-2.21152e-06
-1.41255e-06
0.000103822
-1.33812e-06
-5.6276e-06
-5.8987e-06
-2.12514e-06
-4.98729e-06
-1.00815e-05
-1.05995e-05
-1.91361e-06
9.54302e-07
1.09167e-05
-4.25956e-06
-6.97712e-07
3.30941e-07
4.41211e-06
-8.00192e-06
-1.00759e-06
9.11736e-07
8.25954e-06
-7.50291e-06
-3.47887e-07
1.13497e-06
-1.2435e-07
5.42763e-06
-3.92043e-06
-6.00179e-08
-7.7284e-07
4.75473e-06
-7.46325e-06
-7.70206e-07
-1.16763e-07
8.34735e-06
-2.89347e-06
1.79544e-06
-1.29781e-06
2.46925e-06
6.90041e-07
-1.33844e-06
-6.7425e-06
2.51352e-06
-1.24366e-06
6.12105e-06
-6.47523e-07
-1.59606e-05
-3.32326e-06
8.82112e-07
2.71075e-06
1.63385e-05
-2.44788e-05
2.22837e-06
-1.85414e-06
-4.07907e-06
2.70012e-05
1.18235e-06
7.71678e-07
-2.3482e-06
-7.29055e-06
2.74291e-06
-2.07001e-07
6.33117e-06
3.9026e-05
7.67826e-07
3.46867e-05
-1.45787e-06
-1.8001e-06
-2.09869e-06
-5.76359e-06
-3.2489e-06
-3.48355e-06
-3.1854e-06
-3.02086e-06
2.74248e-05
1.09219e-05
0.000131246
-1.71953e-06
-3.71383e-06
-1.00033e-07
-6.63407e-07
2.80875e-06
1.31523e-05
0.000176733
1.07234e-06
3.34844e-06
3.13555e-06
4.24215e-06
3.69219e-06
3.12261e-06
3.82651e-06
-1.42671e-05
-2.83958e-07
1.60944e-06
1.57504e-05
-3.5391e-06
-5.56251e-07
2.20379e-06
1.98528e-06
-2.68251e-06
-5.42271e-06
-4.71928e-07
2.96925e-06
1.22717e-06
4.38073e-06
2.71181e-05
-1.3208e-05
6.29009e-05
-3.92386e-06
-4.12472e-06
-4.24552e-06
-4.68891e-06
1.04009e-05
4.44512e-06
0.00016983
6.16776e-07
3.11423e-06
0.000130324
1.66034e-06
1.84539e-06
2.82019e-06
2.6514e-06
4.65329e-06
2.48299e-06
-3.27594e-06
-1.65045e-06
-1.58092e-06
9.83148e-07
6.14094e-06
-5.06637e-06
-2.11582e-06
4.47633e-06
2.81484e-06
1.67816e-06
-1.78714e-06
4.48245e-06
5.89497e-07
5.90305e-05
-4.59194e-06
-4.4565e-06
-4.01536e-06
-5.17126e-06
-1.05568e-07
7.07917e-07
6.781e-07
-2.98985e-06
2.10528e-09
0.00010764
-1.29275e-06
3.24173e-07
1.56169e-06
7.21052e-07
2.53462e-06
4.24836e-06
-9.66123e-06
-1.94369e-06
5.37003e-07
1.11923e-05
-5.02955e-06
-4.71396e-07
4.60046e-07
5.0409e-06
-8.1227e-06
-1.8701e-06
1.16795e-06
9.40964e-06
-1.20489e-07
-2.27109e-07
1.05724e-06
6.49483e-07
-1.35702e-06
-2.9046e-06
-1.46041e-07
9.43637e-07
2.10701e-06
-7.89994e-06
3.20233e-06
-3.09024e-06
7.78784e-06
-1.60806e-06
1.62562e-06
-1.94248e-07
1.7891e-07
-3.33126e-07
-4.12719e-06
-6.43295e-06
4.05542e-06
1.40548e-06
5.43237e-06
-1.19271e-06
-1.84344e-05
2.3412e-07
-3.68123e-06
1.55731e-06
2.15169e-05
-2.91421e-05
4.55792e-06
-4.29129e-06
-5.33834e-06
3.02176e-05
3.99621e-06
1.99593e-07
-1.65207e-06
-6.60929e-06
2.2231e-06
-1.55535e-07
5.99419e-06
2.54366e-05
-6.61565e-06
4.15034e-05
-1.99752e-06
-2.487e-06
-2.10314e-06
-1.73049e-06
-3.84838e-06
-3.97669e-06
-5.36177e-06
-4.13267e-06
7.79175e-06
4.94662e-06
0.000139969
8.66225e-07
5.97016e-08
1.26562e-06
1.7831e-06
2.17577e-06
8.58471e-06
0.000154601
2.5411e-06
3.32625e-06
4.11143e-06
3.26383e-06
1.84839e-06
2.32515e-06
1.74688e-06
-1.69742e-05
4.55978e-07
1.2727e-06
1.74213e-05
-1.12508e-06
-3.60842e-08
8.2597e-07
3.70065e-07
-1.2589e-06
-3.14996e-06
-1.40288e-07
1.96197e-06
2.10957e-07
2.37623e-06
1.16181e-05
-1.69189e-05
7.17054e-05
-3.61558e-06
-3.39209e-06
-1.51831e-06
-1.59336e-06
7.4361e-06
7.44698e-06
0.000171512
2.58954e-06
3.74428e-06
0.000117663
4.68803e-06
2.87356e-06
5.39957e-06
2.10696e-06
4.78516e-06
2.49458e-06
-9.99552e-06
-6.4478e-07
3.69172e-07
-1.17119e-06
1.40319e-05
-2.12761e-07
-1.35197e-07
3.92059e-08
-1.49492e-06
1.40382e-06
3.99847e-07
-8.77743e-07
-1.19758e-06
4.6996e-05
9.96711e-09
-9.68767e-07
9.20559e-07
6.39988e-07
-5.85558e-07
-1.65532e-06
-1.1699e-06
-5.52224e-07
1.14241e-06
0.000106926
2.73201e-07
-2.9483e-07
-9.45621e-08
2.98985e-06
9.44033e-07
2.87507e-06
-1.39431e-05
5.00502e-07
1.67862e-06
1.4956e-05
-5.55597e-06
4.7923e-07
-1.58402e-06
6.66075e-06
-1.0447e-05
-1.88284e-06
3.89218e-06
7.24283e-06
-4.64006e-06
-1.25486e-06
-1.31762e-06
6.34713e-08
8.29148e-06
-7.39068e-07
-1.52652e-07
-5.59948e-08
9.47715e-07
-7.81456e-06
4.47868e-06
-4.45099e-06
7.78688e-06
3.41264e-06
1.71736e-07
1.39261e-06
-4.97692e-06
-1.00872e-06
-1.96741e-06
-5.92754e-06
1.06219e-07
9.3185e-07
7.8656e-06
4.35724e-07
-2.4115e-05
4.53959e-06
-6.31598e-06
5.75357e-07
2.48803e-05
-3.04149e-05
5.34728e-06
-4.29864e-06
-5.9502e-06
2.95159e-05
5.80052e-06
-1.74324e-06
-2.67748e-06
-4.10903e-06
4.74068e-06
4.32048e-07
3.35701e-06
1.34727e-05
-8.71544e-06
5.99818e-05
-1.33932e-06
-2.41423e-06
5.23943e-09
-2.91001e-06
-4.94686e-06
-4.21924e-06
-3.72966e-06
-3.68158e-06
-2.26124e-06
6.23202e-06
0.000145564
-7.36741e-08
1.21338e-06
6.92347e-07
2.07472e-06
1.12684e-06
6.73118e-06
0.000131237
3.77527e-06
3.06389e-06
4.36126e-06
1.86239e-06
8.46777e-07
-4.9072e-07
-1.7422e-07
-1.71623e-05
9.8138e-07
3.80529e-06
-3.58461e-06
1.70871e-05
-2.52205e-07
3.60925e-09
-2.73681e-08
2.76039e-07
9.42002e-08
-5.08502e-07
9.08132e-07
-4.92163e-07
-2.25634e-06
-3.38376e-06
7.4446e-07
2.30218e-06
-1.31248e-06
3.90595e-06
4.81579e-07
-1.54749e-05
8.65264e-05
-1.31083e-06
-1.84698e-06
-1.69889e-06
-3.68646e-06
-1.8549e-06
1.2202e-05
0.000167878
1.18647e-06
3.41465e-06
0.000104838
3.57216e-06
6.68344e-08
1.40114e-06
2.15639e-06
3.97098e-06
1.93303e-06
-1.68181e-05
4.89501e-07
2.03868e-06
2.57019e-06
1.29062e-05
3.30747e-09
-4.52609e-07
1.71815e-09
1.68617e-08
4.30722e-07
-2.78701e-06
-9.25026e-07
1.63219e-06
4.3659e-07
2.22301e-07
1.42095e-06
-7.58638e-06
-8.46104e-07
4.80013e-05
-7.45559e-07
1.67685e-07
-2.48235e-06
-8.43241e-07
-1.67916e-06
-9.15054e-07
-1.55e-06
-2.30856e-06
2.47709e-06
0.000105557
-1.04741e-06
-1.80818e-06
-8.89288e-07
3.59558e-06
2.71332e-06
3.25208e-06
-1.6807e-05
-2.56902e-07
2.43688e-06
1.57331e-05
-9.00829e-06
8.84989e-07
-1.56107e-06
9.68437e-06
-4.59707e-06
8.38421e-08
-7.97944e-07
4.46522e-06
-1.15009e-05
1.14934e-06
-2.9286e-06
1.15698e-06
1.46003e-05
-2.27134e-06
-1.63117e-06
7.56285e-07
3.14623e-06
-7.88498e-06
4.34375e-06
-4.53559e-06
8.07681e-06
4.7424e-06
-2.97309e-06
1.30538e-06
-3.07468e-06
-2.69862e-06
2.40641e-06
-1.09987e-05
-4.48876e-06
1.35049e-06
1.44292e-05
1.7498e-06
-2.49316e-05
6.79104e-06
-7.78517e-06
-8.51603e-07
2.50275e-05
-2.73461e-05
4.99611e-06
-3.55337e-06
-4.64727e-06
2.40931e-05
6.45751e-06
2.96128e-06
-3.82321e-07
-3.09041e-06
1.9419e-06
-4.72063e-06
3.29018e-06
4.87821e-06
-6.46751e-06
7.56826e-05
1.59463e-07
-2.26742e-06
-9.93051e-07
-2.11489e-06
-2.03188e-06
-2.76827e-06
-1.75368e-06
-2.34179e-06
-7.66834e-06
7.24664e-06
0.000147128
2.19175e-07
8.32574e-07
1.23814e-06
1.44665e-06
-1.5038e-07
4.98419e-06
0.000110193
2.99111e-06
1.42043e-06
2.30134e-06
7.17168e-07
-6.15548e-08
4.62105e-07
7.11833e-07
-1.82057e-05
2.60824e-06
2.89978e-06
5.70907e-07
1.19764e-05
-1.14082e-06
6.6747e-07
-1.43295e-06
7.0835e-08
3.7037e-09
1.83177e-06
1.03e-06
-6.23325e-07
8.23576e-07
-1.2309e-06
-2.25359e-06
-2.79264e-06
4.26007e-06
3.50724e-06
-2.47732e-06
-2.43755e-07
-1.07991e-05
-1.10272e-05
0.000106284
-1.26927e-06
-2.13607e-06
-6.43529e-07
-3.50008e-07
-1.04676e-05
1.55379e-05
0.000159255
-1.22685e-06
2.9472e-06
9.20246e-05
-6.08916e-07
-4.97208e-07
-1.04721e-06
2.15619e-06
3.24329e-06
2.36361e-06
-1.24946e-05
-6.7401e-07
-5.17285e-07
1.11898e-06
1.13401e-05
-7.17539e-07
1.6488e-07
9.95919e-07
-1.01083e-06
1.22735e-07
4.44839e-07
4.81502e-06
-9.37478e-07
2.21024e-06
5.71508e-07
-7.90934e-06
1.25005e-06
-1.53143e-05
-1.85639e-07
5.16511e-05
4.5758e-08
1.20009e-07
1.78925e-06
1.4175e-06
-9.72856e-07
-4.5219e-07
-1.12454e-06
-2.92008e-06
3.50771e-06
9.87536e-05
-1.01207e-06
-2.56487e-06
-1.04804e-06
3.81615e-06
3.64113e-06
3.60731e-06
-1.52861e-05
-4.43356e-07
2.62781e-06
1.31287e-05
-9.03647e-06
-4.7461e-06
-1.40307e-07
1.1157e-06
1.28072e-05
-8.72671e-07
4.36345e-07
-5.96714e-07
1.03304e-06
-4.68724e-06
5.59751e-07
-1.64536e-06
5.58721e-06
-1.63629e-05
3.04658e-06
-3.24789e-06
2.54077e-06
1.75311e-05
-3.93332e-06
-1.05493e-06
2.93079e-07
4.69518e-06
-8.26833e-06
3.44075e-06
-3.44388e-06
8.27145e-06
9.66755e-07
-3.27083e-06
1.16393e-06
1.14014e-06
-3.26381e-06
3.39772e-06
-1.71966e-05
-5.44862e-06
3.17572e-06
1.93356e-05
1.34159e-06
-2.50801e-05
6.36677e-06
-6.11852e-06
-1.26002e-06
2.47503e-05
-2.06882e-05
2.49109e-06
-2.43387e-06
-1.48822e-06
1.81262e-05
3.99299e-06
3.15456e-06
7.91757e-07
-2.84325e-06
2.58197e-07
-4.44006e-06
3.07879e-06
-1.12586e-06
-2.41461e-06
8.78879e-05
-1.61094e-06
-2.06047e-06
-2.5136e-06
-1.47813e-06
-3.99643e-07
-8.2337e-07
-8.542e-08
3.0671e-07
-1.26158e-05
5.41787e-06
0.000148867
7.05564e-07
6.33134e-07
1.62058e-06
1.374e-06
4.6841e-08
6.64718e-06
8.86451e-05
1.84373e-07
-7.59054e-08
6.00136e-07
2.25321e-07
6.02399e-07
-9.6654e-08
7.98264e-07
-9.92217e-06
-1.43486e-06
7.59605e-07
2.77976e-06
7.8645e-06
-1.6803e-06
-4.52833e-07
-6.81785e-07
5.73658e-07
1.36924e-06
8.72018e-07
1.5211e-06
-3.50064e-07
2.67548e-07
-1.43858e-06
-1.21426e-06
2.1706e-06
3.99637e-06
3.1159e-07
-3.50535e-06
-1.75895e-06
-1.84093e-05
-4.29769e-06
0.000112246
2.07215e-06
3.86573e-06
3.81669e-06
4.57599e-06
-1.55926e-05
1.47795e-05
0.000147077
-9.08838e-07
1.8045e-06
7.96392e-05
-1.52576e-06
-6.55159e-07
-1.35368e-06
2.25583e-06
1.51511e-06
2.30796e-06
-1.14041e-05
-2.99686e-06
-1.1781e-07
2.9219e-06
1.0688e-05
-6.49457e-07
-1.67847e-06
4.06434e-07
1.63911e-07
6.62129e-07
1.09545e-06
8.44803e-06
4.95715e-07
-2.89654e-06
-1.68435e-06
-7.09728e-06
2.73442e-06
-2.2016e-05
3.06198e-07
5.17135e-05
5.14115e-06
4.06045e-06
5.17484e-06
4.42124e-06
-4.00504e-07
-3.32864e-07
-7.1469e-07
-3.1135e-06
3.45846e-06
8.68042e-05
-1.54164e-06
-3.07182e-06
-1.74996e-06
3.62401e-06
3.50737e-06
3.6e-06
-1.27198e-05
-1.61984e-06
1.16419e-06
1.18665e-05
-1.39194e-05
-2.41207e-06
3.24924e-06
-7.7189e-07
1.38542e-05
-1.83608e-06
-2.10612e-07
-1.1658e-06
1.3024e-06
1.9101e-06
-6.48762e-06
2.1025e-06
-3.21322e-06
7.90453e-06
-1.78389e-05
3.48318e-06
-2.64059e-06
2.51946e-06
1.79353e-05
-5.55133e-06
-4.32534e-07
-1.87592e-07
6.17146e-06
-7.55253e-06
1.79281e-06
-4.53682e-07
6.2134e-06
-2.95799e-06
-3.08055e-06
1.51677e-06
4.52181e-06
-3.40982e-06
3.09596e-06
-2.0787e-05
-4.66434e-06
3.82206e-06
2.19431e-05
2.40076e-08
-2.44847e-05
4.91285e-06
-3.78393e-06
-1.02375e-06
2.43555e-05
-1.66684e-05
4.78781e-07
-8.15133e-07
-5.8396e-07
1.58511e-05
1.73761e-06
2.58257e-06
1.19625e-06
-3.84487e-06
-1.00428e-06
-4.18992e-06
5.26025e-06
-2.20305e-06
-1.5454e-06
9.64122e-05
-2.89665e-06
-1.84304e-06
-3.07098e-06
-8.58399e-07
5.85474e-07
1.2628e-06
3.29758e-07
1.71527e-06
-1.01518e-05
3.6992e-06
0.000147029
1.12413e-06
1.07226e-06
2.16477e-06
1.72653e-06
-6.86255e-08
7.76645e-06
7.02052e-05
3.12482e-07
2.02602e-07
9.46107e-07
-3.45956e-07
7.98858e-07
-1.07531e-06
-2.48552e-07
-8.61181e-06
-6.33958e-08
1.90429e-07
1.64547e-06
6.77068e-06
-1.23206e-07
6.06864e-08
3.82662e-07
-1.15387e-07
-2.04756e-07
1.0295e-06
5.51415e-07
-9.96951e-07
-5.83965e-07
1.55797e-06
4.5372e-07
3.89141e-06
-3.63151e-06
-3.67653e-06
1.40493e-06
-1.90665e-05
-1.9633e-06
0.000109196
5.21095e-06
5.47022e-06
6.08911e-06
5.76417e-06
-1.50683e-05
1.31753e-05
0.000133603
-1.06956e-06
7.83645e-07
7.3622e-05
-1.37042e-06
-2.26776e-06
-2.77313e-06
2.35692e-06
1.37038e-06
1.68521e-06
-1.02921e-05
-3.04096e-06
-5.54464e-07
3.60498e-06
9.21294e-06
-1.91998e-06
6.94469e-07
7.42669e-07
2.03042e-08
-1.46485e-06
1.92738e-06
6.28264e-06
2.39114e-06
-4.40488e-06
-2.89118e-06
-4.56387e-06
3.18615e-06
-2.15844e-05
1.47821e-07
4.9945e-05
5.87464e-06
5.51628e-06
5.69895e-06
5.56601e-06
-5.75056e-07
-2.79415e-07
-5.59602e-07
-3.44246e-06
2.66615e-06
7.84842e-05
-1.42046e-06
-3.5136e-06
-1.13438e-06
2.63637e-06
2.51306e-06
1.60625e-06
-1.25711e-05
-3.07244e-06
-5.74415e-07
1.35592e-05
-1.19932e-05
-5.11159e-06
4.16819e-06
1.29366e-05
-8.72758e-06
3.11644e-06
-4.12673e-06
9.88569e-06
-1.80511e-05
3.57348e-06
-2.58682e-06
2.2558e-06
1.74748e-05
-6.29323e-06
8.91323e-07
-2.84629e-07
5.68653e-06
-5.17048e-06
1.43424e-06
-1.1697e-06
4.90594e-06
-5.72998e-06
-2.50089e-06
1.56217e-06
6.66859e-06
-2.55943e-06
2.74194e-06
-2.26861e-05
-3.94563e-06
3.50356e-06
2.29457e-05
1.28739e-06
-2.37849e-05
3.77668e-06
-1.77997e-06
-1.29843e-06
2.17992e-05
-1.56823e-05
-5.20638e-07
4.25811e-07
-5.46934e-09
1.57129e-05
6.96686e-08
1.84025e-06
8.97651e-07
-6.86257e-06
-8.81223e-07
-3.59204e-06
8.59793e-06
-2.99256e-06
5.66702e-07
0.000103531
-3.21884e-06
-1.86243e-06
-3.34412e-06
-1.36251e-06
6.39169e-07
2.01592e-06
1.8686e-07
2.25343e-06
-3.29703e-06
4.9152e-06
0.000135703
1.08541e-06
1.05593e-06
2.07668e-06
2.49643e-06
-2.82178e-07
9.30731e-06
5.97013e-05
-4.02101e-08
-9.27583e-07
-2.52367e-07
-1.25512e-06
-2.37936e-07
4.17946e-07
4.76976e-07
-5.85734e-06
-1.30582e-06
1.19141e-06
5.68957e-06
6.61445e-08
1.00753e-06
-1.66544e-06
5.91757e-07
2.30966e-06
-3.2302e-06
3.39324e-06
-4.54152e-06
-3.11636e-06
5.18518e-06
-1.61904e-05
7.44616e-07
0.00010246
5.62085e-06
5.27901e-06
6.24843e-06
5.59998e-06
-1.06788e-05
1.45034e-05
0.000118503
-3.33593e-06
1.63325e-06
7.54205e-05
-3.06909e-06
-2.63328e-06
-2.32255e-06
1.53747e-06
3.06944e-06
1.95065e-06
-1.22214e-05
-1.75749e-06
-3.74474e-06
2.69902e-06
1.16887e-05
2.58715e-06
2.55694e-06
-4.42437e-06
-3.36216e-06
-4.88192e-07
3.13063e-06
-1.88659e-05
3.3397e-07
4.7787e-05
5.33368e-06
5.55386e-06
5.13984e-06
5.49586e-06
-2.52742e-07
1.60681e-07
3.41921e-09
-3.74251e-06
2.41553e-06
7.59596e-05
-8.27812e-07
-3.18448e-06
-1.18707e-06
1.08253e-06
2.20107e-06
1.40482e-06
-1.56752e-05
-3.2683e-06
-2.61802e-07
1.70961e-05
-1.28292e-05
-1.10551e-06
2.93563e-06
1.09991e-05
-1.07507e-05
4.50805e-06
-5.33665e-06
1.19133e-05
-1.62951e-05
3.58856e-06
-1.3886e-06
2.1741e-06
1.43365e-05
-4.53825e-06
2.04322e-06
-1.11887e-06
3.61389e-06
-5.00959e-06
1.14991e-06
-1.18493e-06
5.04461e-06
-7.47091e-06
-2.48589e-06
1.5055e-06
8.4513e-06
-3.61331e-07
3.37691e-06
-2.23072e-05
-4.08604e-06
2.18902e-06
2.11886e-05
3.32097e-06
-1.89272e-05
2.89964e-06
-7.43958e-08
-3.5134e-06
1.62944e-05
-1.57241e-05
-1.52097e-06
1.95984e-06
1.60167e-06
1.51124e-05
-1.42885e-06
8.71078e-07
4.29565e-07
-1.01603e-05
-4.72974e-07
-2.52256e-06
1.18552e-05
-8.52808e-06
5.57099e-06
0.000109294
-3.38329e-06
-2.62363e-06
-2.99992e-06
-1.42175e-06
1.07453e-06
2.58475e-06
1.14476e-06
2.81797e-06
1.95374e-08
9.69641e-06
0.000110154
1.5582e-06
1.68865e-06
2.82474e-06
1.23383e-06
8.94729e-07
1.31909e-05
5.09518e-05
-2.02539e-06
-2.23431e-06
-2.46139e-06
-2.2567e-06
1.2325e-06
9.40787e-07
1.48797e-06
-5.49876e-06
-1.05698e-06
1.89846e-06
5.55202e-06
-1.21907e-06
1.45863e-06
-1.9583e-06
1.71875e-06
2.84459e-06
-7.13338e-06
2.32826e-06
-4.665e-06
-2.2732e-06
8.89873e-06
-1.4964e-05
6.54097e-06
9.5316e-05
5.29146e-06
4.7477e-06
5.84776e-06
5.25108e-06
-6.01797e-06
1.95368e-05
9.97166e-05
-1.54599e-06
3.19104e-06
7.56983e-05
-1.42766e-06
-1.10819e-06
-1.29137e-06
2.17513e-06
4.37464e-06
2.52753e-06
-1.0748e-05
-1.93316e-06
-1.93977e-06
2.7294e-06
1.03456e-05
-1.53206e-06
2.54506e-06
-4.12762e-06
-3.34379e-06
3.72043e-06
2.73798e-06
-1.58733e-05
5.99189e-07
4.86568e-05
4.70315e-06
5.02415e-06
4.77054e-06
4.91861e-06
5.14714e-07
4.24319e-07
5.89788e-07
-2.95761e-06
2.60138e-06
7.61638e-05
-1.09176e-06
-1.91205e-06
-1.05326e-06
2.4639e-06
2.69981e-06
2.70897e-06
-1.87524e-05
-2.27777e-06
2.31014e-06
1.89534e-05
-1.06894e-05
-1.42739e-06
1.33676e-06
1.078e-05
-1.27458e-05
4.76597e-06
-5.10935e-06
1.36884e-05
-1.25233e-05
3.08175e-06
-1.79434e-06
1.84341e-06
1.19938e-05
-3.32716e-06
4.48299e-08
-5.08884e-07
3.79121e-06
-4.8269e-06
7.79827e-07
-2.85349e-07
4.33243e-06
-9.40835e-06
-2.14729e-06
1.39062e-06
1.0165e-05
-3.40024e-07
2.93379e-06
-2.04368e-05
-3.56659e-06
1.13428e-06
2.02753e-05
5.28208e-07
-1.46927e-05
2.68681e-06
-4.65139e-07
-1.44756e-06
1.33904e-05
-1.40979e-05
-1.86392e-06
1.42545e-06
2.79289e-06
1.25417e-05
-7.98239e-07
-8.75633e-08
3.33897e-07
-1.36081e-05
-8.35648e-07
-1.42693e-06
1.56244e-05
-1.25946e-05
8.5227e-06
0.000111134
-2.59678e-06
-1.50527e-06
-2.1957e-06
-9.7358e-07
1.77119e-06
2.69063e-06
1.8959e-06
3.14626e-06
-1.33737e-06
1.46022e-05
8.53735e-05
9.82882e-07
-9.79735e-07
1.12563e-07
-1.1947e-06
4.80723e-07
1.46523e-05
4.22239e-05
-3.40977e-06
-2.30953e-06
-3.00126e-06
-1.68172e-06
1.03517e-06
4.60271e-07
1.16433e-06
-5.54868e-06
-8.4324e-07
1.78814e-06
5.0845e-06
-2.22937e-06
1.66613e-06
-2.27534e-06
2.83858e-06
3.11365e-06
-1.06798e-05
1.26205e-06
-4.39098e-06
-1.46788e-06
1.2163e-05
-1.49961e-05
9.19653e-06
9.07963e-05
4.69573e-06
4.3277e-06
5.033e-06
4.78559e-06
-4.60946e-06
2.18163e-05
8.21158e-05
-4.96436e-07
3.91523e-06
7.39813e-05
-8.96137e-07
-1.82708e-08
-6.78874e-07
2.49889e-06
4.70249e-06
2.73298e-06
-1.01945e-05
-2.28373e-06
-1.73857e-06
3.14774e-06
1.05726e-05
-5.99416e-06
2.45574e-06
-3.87757e-06
-2.99848e-06
8.22907e-06
2.1854e-06
-1.41524e-05
2.49262e-07
5.28977e-05
4.3247e-06
4.50531e-06
4.49111e-06
4.57505e-06
5.2211e-07
4.30667e-08
3.97399e-07
-1.86661e-06
2.84972e-06
7.56956e-05
-7.45258e-07
-7.70363e-07
-5.33294e-07
3.05845e-06
2.96982e-06
3.16962e-06
-1.98975e-05
-1.19367e-06
3.2654e-06
1.98744e-05
-1.10887e-05
-1.21918e-06
8.20754e-07
1.14871e-05
-1.44545e-05
3.90772e-06
-4.36817e-06
1.51642e-05
-1.21521e-05
2.88325e-06
-2.55779e-06
1.70296e-06
1.29734e-05
-4.73914e-06
-1.46066e-06
3.47322e-07
5.85248e-06
-3.78184e-06
3.09964e-07
2.38316e-07
3.23356e-06
-1.07997e-05
-1.48392e-06
9.87128e-07
1.12965e-05
-1.27565e-06
1.97635e-06
-2.01868e-05
-2.31823e-06
1.85093e-06
1.99534e-05
-1.2039e-06
-1.21795e-05
1.66662e-06
-9.99637e-07
2.0432e-06
1.06733e-05
-1.09827e-05
-6.90137e-07
-6.25124e-07
1.9138e-06
9.46809e-06
9.16061e-07
-6.35786e-07
2.53693e-07
-1.76677e-05
-9.22685e-07
-6.53166e-07
1.96256e-05
-1.00614e-05
8.27979e-06
0.000113159
-2.29133e-06
-2.11978e-06
-2.45614e-06
-1.96419e-06
1.75048e-06
2.38548e-06
1.61496e-06
2.83614e-06
-9.78747e-07
1.59894e-05
6.95944e-05
-2.1894e-06
-2.58875e-06
-2.31199e-06
-2.20284e-06
-4.60193e-08
1.23768e-05
3.38245e-05
-2.649e-06
-1.20542e-06
-1.83078e-06
-8.32238e-07
7.10031e-07
4.82233e-08
8.49124e-07
-4.51097e-06
-1.90458e-07
9.72628e-07
3.68278e-06
-3.38501e-06
1.84219e-06
-2.37116e-06
3.91399e-06
3.29352e-06
-1.356e-05
6.50831e-07
-4.00526e-06
-1.08476e-06
1.47057e-05
-1.18015e-05
7.48477e-06
8.75921e-05
3.83306e-06
3.68819e-06
4.23934e-06
4.04013e-06
-1.6206e-06
1.93787e-05
6.85457e-05
6.95871e-07
3.684e-06
6.94347e-05
-2.84584e-08
1.42005e-06
5.69012e-07
2.42585e-06
4.19798e-06
2.33848e-06
-1.15214e-05
-1.63741e-06
-1.26727e-06
1.78355e-06
1.33384e-05
-1.0641e-05
2.22918e-06
-3.43883e-06
-2.859e-06
1.27907e-05
1.91889e-06
-1.26829e-05
-4.95553e-07
5.87313e-05
3.72717e-06
4.08368e-06
3.88061e-06
4.12427e-06
-1.98909e-07
-6.0246e-07
-1.84714e-07
-1.05376e-06
2.77941e-06
7.26465e-05
-5.1844e-07
-2.19962e-07
-6.01608e-07
3.05286e-06
3.0815e-06
3.22482e-06
-2.09115e-05
-1.26117e-07
3.02936e-06
2.06384e-05
-1.20704e-05
-4.2714e-07
-2.0997e-07
1.27076e-05
-1.58668e-05
3.53748e-06
-4.55065e-06
1.63845e-05
-1.44416e-05
2.99717e-06
-2.87246e-06
1.10293e-06
1.59934e-05
-6.91158e-06
-1.62556e-06
7.3435e-07
7.80279e-06
-2.80545e-06
-5.52553e-07
7.55209e-07
2.6028e-06
-1.15695e-05
-6.49597e-07
5.91296e-07
1.16278e-05
-1.65061e-06
8.88889e-07
-1.96418e-05
-8.431e-07
2.12494e-06
1.91217e-05
-1.96897e-06
-9.44403e-06
4.59029e-07
-9.56031e-07
3.1133e-06
8.79671e-06
-8.22664e-06
1.69296e-07
-9.62902e-07
4.76556e-07
7.30765e-06
1.23604e-06
-9.32794e-07
1.41561e-07
-2.1328e-05
-4.92295e-07
-6.58787e-08
2.26774e-05
-4.1739e-06
7.15389e-06
0.000112784
-2.3911e-06
-2.47011e-06
-2.02639e-06
-1.41636e-06
1.04814e-06
1.72031e-06
8.69638e-07
2.0615e-06
2.25676e-06
1.53513e-05
6.01482e-05
-3.59017e-06
-2.87465e-06
-3.39834e-06
-2.47264e-06
-9.72222e-08
8.0841e-06
2.89967e-05
-1.03119e-06
-2.00507e-07
-4.38949e-07
6.88377e-08
4.85417e-07
-2.06873e-07
4.20871e-07
-3.20022e-06
6.35485e-07
-5.97799e-07
3.06532e-06
-4.3987e-06
1.81883e-06
-2.37278e-06
4.95264e-06
3.28256e-06
-1.58448e-05
5.44451e-07
-3.73486e-06
-1.24285e-06
1.69955e-05
-6.39142e-06
4.26898e-06
8.421e-05
3.23594e-06
2.87509e-06
3.43809e-06
3.10931e-06
2.31766e-06
1.53076e-05
5.98803e-05
1.63099e-06
2.81993e-06
6.67206e-05
4.95971e-07
1.75436e-06
4.74909e-08
1.62473e-06
3.15339e-06
1.58895e-06
-1.51618e-05
6.58349e-09
4.88486e-07
-1.21972e-07
1.64197e-05
-1.49197e-05
2.01096e-06
-2.8916e-06
-2.8129e-06
1.66497e-05
1.96351e-06
-1.07968e-05
-9.98797e-07
6.33322e-05
2.95421e-06
3.50462e-06
3.11331e-06
3.52649e-06
-5.61001e-07
-7.89878e-07
-2.84161e-07
-9.28882e-07
2.57662e-06
6.98215e-05
-9.66259e-07
-5.06415e-07
-1.1772e-06
2.70959e-06
2.83811e-06
2.79031e-06
-2.15677e-05
1.03308e-07
2.31902e-06
2.10364e-05
-1.324e-05
7.1343e-07
-8.39607e-07
1.33662e-05
-1.71433e-05
3.50132e-06
-5.01827e-06
1.76614e-05
-1.77271e-05
3.31665e-06
-3.4706e-06
1.69126e-06
1.87664e-05
-8.45729e-06
-1.74402e-06
1.33007e-06
8.87125e-06
-2.50525e-06
-3.58387e-07
4.52715e-07
2.41093e-06
-1.16496e-05
-6.35222e-07
5.12315e-07
1.17725e-05
-1.34269e-06
6.4744e-07
-1.81143e-05
2.98627e-07
2.00107e-06
1.65099e-05
-1.85171e-06
-8.88893e-06
-6.55011e-07
-9.18565e-07
3.11693e-06
9.1973e-06
-6.63928e-06
7.69312e-07
-1.21021e-06
-6.15727e-07
6.29803e-06
1.39788e-06
-9.93939e-07
-9.5889e-08
-2.3686e-05
-4.71475e-08
3.12158e-07
2.45108e-05
2.01554e-08
7.50926e-06
0.000108933
-1.94522e-06
-1.74757e-06
-1.83079e-06
-1.66798e-06
5.32507e-07
9.62515e-07
5.90409e-07
1.42772e-06
4.36494e-06
1.43463e-05
5.33189e-05
-3.83024e-06
-2.69344e-06
-3.35191e-06
-1.98618e-06
-2.23233e-07
2.77685e-06
2.86563e-05
2.66255e-07
6.39364e-07
7.03171e-07
7.87161e-07
1.36809e-07
-3.81268e-07
2.8877e-10
-3.20151e-06
1.39544e-06
-2.01587e-06
3.59872e-06
-5.48463e-06
1.7388e-06
-2.19449e-06
5.94032e-06
2.82197e-06
-1.81056e-05
3.99983e-07
-2.9819e-06
-1.29879e-06
1.91643e-05
-3.11491e-06
3.28542e-06
8.19704e-05
2.4381e-06
2.06281e-06
2.74169e-06
2.3357e-06
3.97723e-06
1.24775e-05
5.46569e-05
1.60636e-06
1.54649e-06
6.47278e-05
-3.10524e-07
1.68752e-06
1.08107e-08
9.98454e-07
2.06826e-06
1.13958e-06
-1.73652e-05
1.44826e-06
1.74357e-06
-2.10596e-06
1.78856e-05
-1.82516e-05
1.63069e-06
-2.21632e-06
-2.50293e-06
1.94438e-05
1.89639e-06
-8.2317e-06
-7.76805e-07
6.66445e-05
2.08262e-06
2.86545e-06
2.20005e-06
2.73201e-06
-4.55648e-07
-3.09354e-07
-1.3341e-07
-1.40485e-06
2.33086e-06
6.91768e-05
-1.36387e-06
-8.04931e-07
-1.30593e-06
2.4636e-06
2.48947e-06
2.48613e-06
-2.16275e-05
-5.99083e-07
1.68094e-06
2.06872e-05
-1.31448e-05
1.38409e-06
-5.29957e-07
1.22907e-05
-1.82338e-05
3.34927e-06
-4.54941e-06
1.86571e-05
-1.99854e-05
3.27051e-06
-3.69758e-06
2.11344e-06
2.06299e-05
-9.19249e-06
-2.15746e-06
1.82811e-06
9.52184e-06
-2.29195e-06
2.92502e-07
-2.13693e-07
2.21314e-06
-1.21041e-05
-1.54907e-06
9.98e-07
1.26552e-05
-1.46551e-06
5.22776e-07
-1.47149e-05
1.31929e-07
2.11704e-06
1.34087e-05
-6.51611e-07
-9.49603e-06
7.68149e-08
-1.23897e-06
1.99464e-06
9.31516e-06
-6.16533e-06
1.29051e-06
-1.42891e-06
-1.50993e-06
6.29706e-06
1.5166e-06
-1.12885e-06
-1.43337e-07
-2.5245e-05
-1.30324e-07
6.77938e-07
2.59696e-05
5.83967e-07
1.11343e-05
0.000101759
-2.00769e-06
-2.63521e-06
-1.80048e-06
-2.05716e-06
6.27194e-07
7.16181e-07
1.00539e-06
1.60714e-06
3.70436e-06
1.20407e-05
4.74973e-05
-3.6342e-06
-1.72247e-06
-3.07499e-06
-9.0786e-07
-3.98529e-07
-2.66469e-06
3.05459e-05
1.32085e-06
1.39412e-06
1.65963e-06
1.48441e-06
-1.84932e-07
-5.23389e-07
-2.72774e-07
-4.03598e-06
1.90247e-06
-2.78861e-06
4.52359e-06
-6.2834e-06
1.5682e-06
-1.88472e-06
6.59992e-06
2.36379e-06
-2.01756e-05
-1.30572e-07
-2.42916e-06
-8.33856e-07
2.12054e-05
-4.26373e-07
6.50209e-06
8.00468e-05
1.85261e-06
1.2161e-06
2.33946e-06
1.57408e-06
4.31166e-06
9.29925e-06
5.26604e-05
1.50742e-06
5.18064e-07
6.03253e-05
4.65147e-07
1.4667e-06
9.04429e-07
3.20599e-07
8.94521e-07
-2.74417e-08
-1.81426e-05
2.10283e-06
2.15819e-06
-2.59845e-06
1.79874e-05
-2.04309e-05
1.15753e-06
-1.43059e-06
-1.88333e-06
2.10235e-05
1.56382e-06
-3.19194e-06
5.07013e-08
7.00095e-05
9.88259e-07
1.81969e-06
1.15496e-06
1.59843e-06
2.485e-07
-3.88366e-08
5.07263e-07
-1.01636e-06
1.988e-06
6.9663e-05
-9.76244e-07
1.09931e-07
-3.82269e-07