/*--------------------------------*- C++ -*----------------------------------*\
| =========                 |                                                 |
| \\      /  F ield         | OpenFOAM: The Open Source CFD Toolbox           |
|  \\    /   O peration     | Version:  5.x                                   |
|   \\  /    A nd           | Web:      www.OpenFOAM.org                      |
|    \\/     M anipulation  |                                                 |
\*---------------------------------------------------------------------------*/
FoamFile
{
    version     2.0;
    format      ascii;
    class       volVectorField;
    location    "10";
    object      U;
}
// * * * * * * * * * * * * * * * * * * * * * * * * * * * * * * * * * * * * * //

dimensions      [0 1 -1 0 0 0 0];

internalField   nonuniform List<vector> 
10571
(
(0.102994 0.204655 1.49014)
(0.325386 -0.158325 1.00833)
(0.803686 -0.648848 1.94971)
(-0.0713146 -0.874531 1.77958)
(0.388319 -0.0898896 1.54937)
(-0.458905 -0.590443 1.64864)
(0.732265 -1.34636 2.05346)
(0.359792 -0.455067 1.48342)
(0.283193 0.0274875 1.32207)
(0.129347 0.00750638 1.69093)
(-0.322219 -0.542815 2.4573)
(-0.431634 -0.822506 1.42581)
(0.0402131 -0.617507 1.41267)
(0.303152 -0.15041 1.14854)
(0.670311 -0.0622046 1.50798)
(0.13311 -0.30328 1.54496)
(-0.1308 -0.178084 1.10331)
(0.0268132 -0.300691 1.32729)
(0.373729 -0.254081 1.33005)
(0.493517 -0.460198 1.51004)
(0.0479307 -0.115662 0.842848)
(-0.0218365 -0.0424809 1.02067)
(0.143094 -0.0389714 1.04327)
(0.152621 -0.159031 0.857217)
(0.771451 0.149849 3.93986)
(0.479231 -0.309808 0.800198)
(0.335622 0.742255 1.557)
(0.682983 0.470551 1.60294)
(0.251029 0.217796 0.746625)
(0.330378 -0.151422 0.971951)
(0.475184 0.0574034 0.852994)
(0.670585 0.304037 1.55882)
(-0.345068 -0.325031 3.36772)
(-0.251916 -0.502869 1.6256)
(-0.307838 -0.00463299 2.93635)
(0.0976278 0.0203941 0.742463)
(0.408691 0.0902417 0.734943)
(0.269216 -0.045573 1.55575)
(-0.388604 -0.301112 1.909)
(-0.102405 -0.0370033 0.870564)
(0.17968 0.185854 0.672719)
(0.292601 -0.07257 0.792923)
(0.0101897 -0.242279 0.883197)
(-0.126908 -0.149277 1.16077)
(-0.0148932 -0.00155497 0.912481)
(0.162082 -0.178137 1.03658)
(0.147432 -0.278624 0.945855)
(0.0413792 -0.0451001 0.817554)
(0.384799 0.235354 1.21961)
(0.219315 -0.178196 0.570402)
(0.20935 0.0695147 0.794088)
(0.821491 0.192328 1.35298)
(-0.195326 -0.212322 0.577368)
(0.54069 -0.147863 0.761197)
(0.656825 0.34169 0.999103)
(1.89657 0.551092 1.90683)
(-0.254175 0.0174312 1.65795)
(-0.296133 -0.306509 0.391057)
(0.613548 0.378221 1.84605)
(0.51766 0.222408 0.616561)
(0.841723 0.110849 1.103)
(0.574421 0.17407 2.00232)
(-0.302194 0.126477 1.94194)
(-0.0481546 0.0626493 0.341227)
(0.35116 0.300789 0.609799)
(0.406197 -0.090792 1.2147)
(0.0841976 -0.440875 1.76274)
(-0.264961 0.137818 0.937745)
(-0.00820979 0.10835 0.674629)
(0.176445 0.00284874 0.738399)
(0.0517595 -0.0537506 0.461087)
(0.084775 -0.0120458 0.906317)
(0.271125 -0.01473 1.1491)
(0.190997 -0.15632 0.369278)
(0.209042 -0.163216 0.439628)
(0.325644 0.232472 0.541465)
(-0.0477563 -0.375408 1.07974)
(0.404279 -0.0782246 0.685202)
(0.617576 0.295968 0.848185)
(1.1139 0.242456 1.06785)
(-0.175728 0.0363369 1.84491)
(0.312041 0.0156825 0.800322)
(0.171456 0.187439 0.821804)
(0.42748 0.154492 0.50956)
(0.90779 -0.238624 0.91692)
(0.246392 0.181207 1.4382)
(0.0368496 0.382758 1.40112)
(0.0727273 0.168145 0.0417879)
(0.298804 0.260528 0.286211)
(0.17236 -0.189341 0.915878)
(0.0138389 -0.0547555 0.957568)
(-0.316315 0.146247 0.3817)
(-0.0551637 0.0257807 0.37435)
(0.120358 0.127206 0.55647)
(0.0865738 0.0397227 -0.387311)
(-0.192078 0.0209443 0.196504)
(-0.402353 -0.0619944 1.1456)
(0.043658 0.00374899 0.289767)
(0.409835 0.084286 0.136485)
(-0.176431 0.26108 0.917135)
(-0.259039 -0.423246 1.16658)
(0.231724 -0.0249664 0.653711)
(0.412851 0.127145 0.198278)
(0.502921 -0.00211466 1.32778)
(-0.253527 0.00281007 1.84951)
(0.240738 0.012747 0.83153)
(0.0623553 0.0371502 0.250858)
(0.164492 0.0365436 0.197626)
(0.370843 -0.339767 0.569543)
(0.0585046 0.17591 1.71877)
(0.15992 0.336714 1.27408)
(0.110633 0.0426924 0.454868)
(0.0376182 -0.0827685 -0.0268789)
(0.0105498 -0.272032 0.457293)
(-0.0434661 0.0448801 1.11775)
(-0.0127532 0.237172 0.621352)
(0.0823519 -0.0712134 0.548151)
(0.268462 0.00755699 0.659163)
(0.0718833 0.119949 0.216851)
(0.12817 0.0215788 -0.0173108)
(-0.645679 -0.0834244 1.11164)
(-0.00459346 0.102847 -0.308684)
(0.240805 0.0858383 0.260041)
(-0.451871 0.0913232 1.08616)
(-0.357003 -0.421764 1.19088)
(0.337327 0.121941 0.119351)
(0.396145 0.0616121 0.526541)
(0.0953059 0.0241673 1.50761)
(-0.179589 -0.0408585 1.63136)
(0.114256 -0.0831922 0.792953)
(0.00534591 -0.00497096 0.00487987)
(0.0176498 0.0936306 0.0345436)
(0.257192 -0.0771952 0.109385)
(0.216297 -0.334688 0.78937)
(-0.202558 0.170026 1.81818)
(0.115194 0.2815 1.24359)
(0.0173006 0.0297698 0.623631)
(0.00121896 0.000105425 0.000300647)
(0.120496 -0.0475183 0.0840504)
(-0.057962 -0.208438 0.54933)
(-0.206931 0.21467 1.18268)
(-0.101967 0.246414 0.716386)
(0.0856591 -0.0150081 0.708869)
(-0.00338628 -0.0025368 0.349376)
(-0.0868303 0.150166 0.533393)
(0.0589899 0.102677 0.247324)
(-0.633153 -0.0889848 1.14072)
(-0.18848 0.22459 -0.281068)
(-0.213934 0.224998 0.564939)
(-0.578047 -0.0411988 1.10122)
(-0.340082 -0.3269 1.01523)
(0.229561 -0.319995 0.148232)
(0.355336 0.0176294 0.729044)
(-0.174383 0.0875303 1.52096)
(-0.0621631 -0.0361041 1.30406)
(0.030888 0.0762366 0.685403)
(0.00941145 0.0164597 0.0622888)
(0.020013 0.116368 -0.164867)
(0.302484 -0.287531 0.0669015)
(-0.0563608 -0.231297 0.986015)
(-0.290841 0.159744 1.72755)
(-0.0641409 0.202873 1.08869)
(-0.059396 0.083661 0.537692)
(-0.133435 -0.00697573 0.00592574)
(0.189924 -0.0714496 -0.289792)
(-0.230297 -0.129878 0.500057)
(-0.308805 0.332465 1.11715)
(-0.103887 0.256026 0.625344)
(0.0163796 0.0979073 0.796257)
(-0.10856 0.030798 0.0601985)
(0.00309715 0.047094 0.255801)
(-0.222934 0.177148 0.675184)
(0.071739 0.0566702 0.390085)
(-0.508325 -0.060422 1.19263)
(-0.185074 0.208452 0.0127002)
(-0.332648 0.266871 0.804572)
(-0.537022 -0.0641113 1.1021)
(-0.22623 -0.144676 0.750205)
(0.0937221 -0.330861 0.11999)
(0.247311 0.011886 0.822228)
(-0.278283 0.0184418 1.51145)
(-0.118398 0.0671728 1.09001)
(0.0469844 0.197471 0.443131)
(0.0287172 0.0418355 0.0526201)
(-0.0110932 0.0394223 -0.238108)
(0.0946496 -0.281764 -0.0911699)
(-0.310585 -0.101909 1.15579)
(-0.289837 0.166838 1.58047)
(-0.242971 0.152118 0.945113)
(0.0280387 0.233945 0.511401)
(0.0122479 0.0921213 0.0273326)
(-0.101903 -0.162175 -0.29439)
(-0.419182 -0.0210962 0.577155)
(-0.359579 0.310891 0.980635)
(-0.0988968 0.161177 0.525978)
(-0.124991 0.229766 0.817758)
(0.238902 0.0490456 0.139939)
(-0.128628 0.0579697 0.360894)
(-0.214584 0.174697 0.70427)
(0.089694 0.0601915 0.540822)
(-0.226714 0.0229154 0.995602)
(-0.165174 0.202818 0.273071)
(-0.295395 0.252761 0.937122)
(-0.398929 -0.0290023 1.06992)
(-0.0947266 -0.0143454 0.633201)
(-0.0126015 -0.301851 0.195049)
(0.185671 0.00811688 0.9131)
(-0.243469 -0.0491372 1.50764)
(-0.0622723 0.08123 0.880049)
(0.00821645 0.100718 0.323886)
(0.0235293 -0.0130297 -0.00368952)
(-0.0168289 -0.155966 -0.114188)
(-0.194668 -0.283295 0.0359235)
(-0.41236 -0.0598231 1.13896)
(-0.208473 0.178231 1.42477)
(-0.276627 0.187432 0.831581)
(0.00999218 0.281308 0.469364)
(0.00173455 -0.0709826 0.0971599)
(-0.2219 -0.211203 -0.210013)
(-0.442615 0.0137104 0.539851)
(-0.329049 0.242941 0.852175)
(-0.155351 0.0262814 0.57061)
(-0.171951 0.223229 0.900516)
(-0.221745 0.0268087 0.465848)
(-0.233686 0.125754 0.707257)
(0.10818 -0.00761059 0.571349)
(-0.0889114 -0.0325786 0.702945)
(-0.125254 0.154877 0.455781)
(-0.25486 0.200853 1.01029)
(-0.256409 -0.0566333 1.03377)
(0.00340303 0.0641409 0.612963)
(-0.0121158 -0.259771 0.335229)
(0.0936413 0.0495519 1.01812)
(-0.174513 -0.0470454 1.4621)
(0.0980291 0.106947 0.677056)
(-0.0191949 0.0379824 0.282485)
(-0.0411492 -0.188858 0.032252)
(-0.244083 -0.238957 0.191421)
(-0.404398 -0.024794 1.08165)
(-0.11968 0.225211 1.30575)
(-0.197016 0.225154 0.778207)
(-0.201611 0.117833 0.449381)
(-0.234878 -0.220596 -0.04952)
(-0.399562 0.0610057 0.50592)
(-0.270644 0.241837 0.805541)
(-0.218848 0.101473 0.722954)
(-0.0743354 0.181965 0.967198)
(-0.353613 0.0311921 0.577629)
(-0.222095 0.105115 0.611116)
(0.149777 -0.0926736 0.355731)
(-0.0685695 -0.0226951 0.725351)
(-0.111858 0.105717 0.582242)
(-0.285016 0.0101659 0.95388)
(-0.0942088 -0.271999 0.756394)
(0.127168 0.0915891 0.613323)
(0.00870163 -0.177626 0.482817)
(-0.099163 0.0957585 1.06853)
(-0.164862 -0.00830112 1.30478)
(0.165854 0.201386 0.577258)
(0.0146096 0.0696424 0.279243)
(-0.0402596 -0.229799 0.216414)
(-0.262267 -0.149699 0.356297)
(-0.350541 0.107727 0.993494)
(-0.137079 0.335084 1.11494)
(-0.0486754 0.27167 0.804246)
(-0.0944591 0.138724 0.407304)
(-0.222226 -0.204659 0.111396)
(-0.353235 0.115953 0.507289)
(-0.207727 0.312821 0.807779)
(-0.174269 0.232053 0.829377)
(-0.041908 0.111764 0.959535)
(-0.366287 0.0354285 0.661401)
(-0.173497 0.0958448 0.475365)
(0.0895247 -0.0418693 0.309724)
(-0.0696958 0.0120548 0.660204)
(-0.0968112 0.0640266 0.710066)
(-0.246739 -0.0389408 0.890235)
(-0.1074 -0.0291676 0.61051)
(0.0913068 0.143031 0.525955)
(-0.00882313 -0.0851589 0.640525)
(-0.209763 0.115101 1.09659)
(-0.184817 0.0746059 0.926476)
(0.119679 0.230957 0.494719)
(-0.0100278 0.0667797 0.273897)
(-0.0559388 -0.230366 0.362974)
(-0.261668 -0.0543208 0.503851)
(-0.312168 0.193646 0.92244)
(-0.181045 0.401857 0.907307)
(0.0315653 0.301785 0.800991)
(-0.0416605 0.203277 0.398361)
(-0.210166 -0.173346 0.28343)
(-0.335973 0.121392 0.521863)
(-0.16582 0.335056 0.80185)
(-0.0834108 0.288769 0.868192)
(-0.0330983 0.0705022 1.019)
(-0.296745 -0.0109607 0.74692)
(-0.175723 0.110581 0.491267)
(0.00952792 0.0447879 0.481549)
(0.0218433 0.00454466 0.499007)
(-0.0674365 0.0264873 0.810601)
(-0.167898 0.083658 0.876616)
(-0.0638706 0.145482 0.50279)
(-0.0446308 0.0731143 0.396767)
(-0.0212453 -0.0113726 0.818708)
(-0.212369 0.113915 1.11472)
(-0.104818 0.187906 0.745575)
(0.0549352 0.161648 0.387393)
(-0.0334661 0.0132449 0.203574)
(-0.0602686 -0.22616 0.520472)
(-0.255673 -0.00869408 0.622809)
(-0.260374 0.18358 0.887049)
(-0.127348 0.340466 0.744012)
(0.07973 0.294971 0.751344)
(0.0441068 0.134988 0.477923)
(-0.190036 -0.154933 0.462344)
(-0.302631 0.074882 0.581573)
(-0.147851 0.30669 0.783824)
(-0.0054263 0.270422 0.907759)
(0.02316 -0.00735219 1.13369)
(-0.286822 -0.0661304 0.807932)
(-0.180643 0.11479 0.60326)
(-0.0283349 0.0636284 0.670969)
(0.0898413 0.00597119 0.381782)
(-0.0283677 0.00329465 0.848762)
(-0.0809843 0.112913 0.856328)
(-0.0222804 0.185054 0.394324)
(-0.0591479 0.00657108 0.301129)
(-0.018066 0.0461477 0.969805)
(-0.170721 0.110906 1.13486)
(0.0398036 0.254089 0.647307)
(0.0224251 0.0717507 0.317701)
(-0.019847 -0.0527564 0.154697)
(-0.0707942 -0.188743 0.669431)
(-0.245075 -0.0249791 0.721063)
(-0.19967 0.14333 0.85925)
(-0.00636762 0.267645 0.63821)
(0.0891972 0.231881 0.717659)
(0.120753 0.0142253 0.626272)
(-0.166814 -0.149599 0.621404)
(-0.247181 0.0102566 0.645069)
(-0.135297 0.246592 0.74575)
(0.00193775 0.214601 0.934)
(0.0546966 -0.114439 1.21708)
(-0.306506 -0.0867212 0.875592)
(-0.215845 0.115109 0.71952)
(-0.0935803 0.0878434 0.792486)
(0.0402055 0.00109047 0.351056)
(-0.0364698 0.016517 0.850815)
(-0.0609959 0.120252 0.770366)
(-0.00994761 0.167423 0.395992)
(-0.070065 -0.0470978 0.252026)
(0.00232308 0.0809031 1.06117)
(-0.134709 0.108454 1.11775)
(0.13366 0.276815 0.565456)
(0.00259633 -0.00349812 0.299556)
(-0.0176452 -0.117318 0.169298)
(-0.0715174 -0.15604 0.818008)
(-0.2041 -0.0285574 0.81948)
(-0.163873 0.151408 0.832952)
(0.065203 0.220956 0.568579)
(0.0708472 0.110806 0.69776)
(0.119507 -0.104154 0.700585)
(-0.134341 -0.128993 0.741232)
(-0.178638 -0.0283322 0.681532)
(-0.11222 0.204399 0.724451)
(-0.0609057 0.137929 0.925973)
(0.044542 -0.109788 1.18623)
(-0.283077 -0.0485395 0.925115)
(-0.222956 0.109628 0.80223)
(-0.153575 0.121473 0.851378)
(-0.0463779 -0.00563008 0.321355)
(-0.102841 0.0663466 0.895439)
(-0.0145491 0.159386 0.610173)
(-0.0505499 0.0571826 0.418534)
(-0.0861908 -0.0949142 0.243724)
(0.00112491 0.0996273 1.1238)
(-0.127409 0.153845 1.06398)
(0.143305 0.255352 0.502731)
(-0.0164913 -0.0768375 0.311189)
(-0.022955 -0.16147 0.213533)
(-0.0615738 -0.123902 0.923944)
(-0.166262 0.0143801 0.911297)
(-0.0988258 0.218761 0.82123)
(0.0864335 0.166396 0.533075)
(0.0573724 -0.0231572 0.660933)
(0.118307 -0.133822 0.7085)
(-0.0947374 -0.103061 0.815901)
(-0.0754483 0.0125756 0.723758)
(-0.0353564 0.154634 0.723426)
(-0.0535197 0.098134 0.90899)
(-0.0134244 0.0326615 0.920199)
(-0.245406 0.0111806 0.992814)
(-0.188942 0.105767 0.84662)
(-0.104064 0.0903921 0.920149)
(-0.093478 -0.0151383 0.307665)
(-0.14619 0.102807 1.00086)
(-0.0782874 0.179603 0.521325)
(-0.0461449 -0.00809766 0.382844)
(-0.0967337 -0.11863 0.266252)
(-0.00343113 0.11245 1.19439)
(-0.0320003 0.214076 0.957971)
(0.115677 0.143979 0.4565)
(-0.027752 -0.132982 0.336557)
(-0.0330266 -0.195475 0.26042)
(-0.0559188 -0.0793836 1.00759)
(-0.143511 0.070255 1.00203)
(0.0169428 0.264551 0.798161)
(0.120087 0.122615 0.535719)
(0.0568569 -0.11873 0.617468)
(0.0795043 -0.147878 0.691216)
(-0.0786508 -0.0685715 0.846957)
(0.0370972 0.106737 0.763146)
(0.096605 0.110217 0.742246)
(0.0461354 0.0420429 0.865511)
(0.0451285 -0.0175256 0.832752)
(-0.123671 -0.0367289 1.06794)
(-0.0520078 0.0844837 0.883592)
(0.00405444 0.0273857 0.959533)
(-0.094503 -0.0254965 0.311958)
(-0.0258944 -0.00446673 1.17216)
(-0.115462 0.124861 0.4792)
(-0.0565342 -0.0591613 0.358145)
(-0.100092 -0.125211 0.308111)
(-0.00767393 0.0835868 1.24844)
(0.0381444 0.122387 0.778646)
(0.0825342 -0.00429546 0.424056)
(-0.0267698 -0.158805 0.370705)
(-0.0433014 -0.214512 0.309396)
(-0.046691 -0.0473052 1.04723)
(-0.112988 0.105659 1.07028)
(0.100851 0.271939 0.711671)
(0.143462 0.0606616 0.532508)
(0.045474 -0.172482 0.582797)
(0.0469511 -0.177931 0.679426)
(-0.0707311 -0.00962339 0.87328)
(0.126009 0.174275 0.788486)
(0.194473 0.0806821 0.767979)
(0.118273 0.0356614 0.828663)
(0.0838354 -0.112815 0.837476)
(-0.0602806 -0.0145088 1.01821)
(0.0894761 0.0499895 0.950775)
(0.0698769 -0.010777 0.969244)
(-0.08644 -0.0338244 0.34784)
(0.16119 -0.166989 1.3311)
(-0.0299188 0.0606485 0.560261)
(-0.0565665 -0.097872 0.361772)
(-0.0935353 -0.12168 0.366609)
(-0.082979 0.0257595 1.24284)
(0.00418056 0.00674333 0.572331)
(0.030304 -0.103749 0.405247)
(-0.0201952 -0.173619 0.405945)
(-0.0505141 -0.222376 0.369381)
(-0.0547653 -0.00588474 1.06933)
(-0.125528 0.140857 1.08672)
(0.0882465 0.214945 0.596063)
(0.098488 -0.0535783 0.520576)
(0.0252794 -0.223482 0.549889)
(0.0229953 -0.218676 0.664656)
(-0.051287 0.0787233 0.913583)
(0.17753 0.184995 0.806545)
(0.221557 0.0322713 0.781548)
(0.171429 0.000639594 0.819106)
(0.132646 -0.195762 0.843217)
(0.0252517 0.0596169 0.987865)
(0.178339 0.025882 1.02439)
(0.126513 -0.0292027 1.03967)
(-0.0799914 -0.0395685 0.420177)
(0.237399 -0.262234 1.39074)
(0.11883 0.0301274 0.750785)
(-0.0495405 -0.116241 0.383047)
(-0.08101 -0.112401 0.437922)
(-0.128799 -0.0654454 1.18633)
(-0.0716077 -0.0422352 0.459206)
(-0.0393372 -0.153973 0.397468)
(-0.0194083 -0.18714 0.446527)
(-0.0555133 -0.221067 0.444757)
(-0.0597598 0.036711 1.15254)
(-0.134339 0.152496 1.00379)
(-0.00587077 0.0886421 0.499161)
(-0.0146693 -0.169856 0.487556)
(0.00766265 -0.278337 0.507379)
(0.0150154 -0.274186 0.622381)
(-0.0155562 0.139308 0.934766)
(0.190215 0.161971 0.805392)
(0.167151 -0.0302967 0.777112)
(0.171172 -0.0705367 0.804275)
(0.14487 -0.243941 0.856608)
(0.108792 0.0827916 1.02339)
(0.218573 0.00179369 1.08008)
(0.151987 -0.0609964 1.10351)
(-0.0795606 -0.033697 0.508216)
(0.236542 -0.295894 1.45985)
(0.196759 0.0473729 0.948748)
(-0.0367834 -0.102259 0.420998)
(-0.0720384 -0.0927381 0.51269)
(-0.139451 -0.174134 1.11069)
(-0.142054 -0.0326813 0.433746)
(-0.0907965 -0.147517 0.392722)
(-0.0381658 -0.188627 0.485492)
(-0.058351 -0.197675 0.533578)
(-0.0488576 0.0644662 1.24794)
(-0.133548 0.116806 0.849827)
(-0.106584 -0.000545967 0.449254)
(-0.116004 -0.201108 0.438588)
(-0.00932457 -0.284808 0.481419)
(0.0303344 -0.315367 0.588271)
(0.00604221 0.166704 0.946387)
(0.15399 0.0923998 0.795923)
(-0.0480208 -0.128135 0.735492)
(0.117557 -0.309489 0.716733)
(0.171982 -0.31217 0.812038)
(0.126947 0.0795394 1.07422)
(0.206401 -0.0281648 1.11779)
(0.195961 -0.10653 1.0642)
(-0.078047 -0.0202687 0.566572)
(0.234451 -0.302896 1.56399)
(0.192949 0.0878321 1.09063)
(-0.0129785 -0.0486077 0.452741)
(-0.0678305 -0.071151 0.571116)
(-0.14558 -0.199629 1.06293)
(-0.192409 0.00720616 0.438402)
(-0.112856 -0.0868305 0.386643)
(-0.0572941 -0.156511 0.508263)
(-0.0581735 -0.148736 0.598999)
(-0.0487503 0.0698942 1.33961)
(-0.161572 0.0464719 0.738569)
(-0.161768 -0.0223712 0.42744)
(-0.14147 -0.159847 0.403575)
(-0.0446459 -0.193371 0.453715)
(0.0130058 -0.265187 0.601564)
(0.0219287 0.156737 0.965669)
(0.0585982 0.0167432 0.818793)
(-0.184492 -0.123717 0.676727)
(0.0158586 -0.25725 0.520769)
(0.157571 -0.307442 0.769192)
(0.13357 0.0527907 1.09337)
(0.156165 -0.00527493 1.10531)
(0.0174784 -0.111129 0.773565)
(-0.0782746 -0.0142876 0.574783)
(0.233159 -0.289656 1.67697)
(0.137217 0.130883 1.17715)
(-0.0147436 -0.00293313 0.46286)
(-0.0646661 -0.0516922 0.597)
(-0.147388 -0.176129 1.0457)
(-0.203352 0.0592527 0.437822)
(-0.116321 0.000992616 0.369253)
(-0.055502 -0.0973806 0.513577)
(-0.0586521 -0.0950858 0.606801)
(-0.0420977 0.0651266 1.41995)
(-0.177062 0.0109779 0.69409)
(-0.187382 -0.0130084 0.419151)
(-0.120888 -0.105802 0.384827)
(-0.0400607 -0.0997588 0.406467)
(-0.0264943 -0.131525 0.577277)
(-0.00551525 0.089726 0.984792)
(0.0253359 0.0112716 0.879303)
(-0.203879 -0.0928385 0.631661)
(-0.0701062 -0.0896756 0.372172)
(0.0204741 -0.0865529 0.650715)
(0.116252 0.0198793 1.1095)
(-0.0388403 -0.0159846 1.09038)
(-0.00742476 -0.00531054 0.501633)
(-0.0747867 -0.0126419 0.556288)
(0.250928 -0.296855 1.77528)
(0.101806 0.175201 1.23394)
(-0.0202697 0.0159527 0.453601)
(-0.0522412 -0.0288491 0.595968)
(-0.145527 -0.168228 1.07118)
(-0.187466 0.111505 0.427706)
(-0.101259 0.0478777 0.3485)
(-0.0403994 -0.0243363 0.514207)
(-0.0501025 -0.057938 0.573909)
(-0.0343313 0.0421768 1.45961)
(-0.17627 -0.0132573 0.678782)
(-0.207648 -0.0142877 0.407769)
(-0.101093 -0.0854174 0.369852)
(-0.0150979 -0.0601462 0.380573)
(-0.0301414 -0.055024 0.523366)
(-0.0537515 0.0235119 1.01381)
(0.033579 0.0242759 0.949581)
(-0.162241 -0.101151 0.596097)
(-0.0582372 -0.0777674 0.288847)
(-0.0106356 0.000847025 0.497389)
(0.118344 0.0108586 1.1772)
(-0.0509764 0.0128495 1.08166)
(0.0457603 -0.000598835 0.439225)
(-0.0644461 -0.01207 0.528024)
(0.266874 -0.285099 1.83547)
(0.139102 0.192671 1.27647)
(0.00159933 0.01447 0.452752)
(-0.0254525 -0.0166768 0.57793)
(-0.14187 -0.156652 1.16402)
(-0.167252 0.152075 0.407081)
(-0.0783986 0.0474356 0.337657)
(-0.0186558 0.0249784 0.508519)
(-0.0304077 -0.0258471 0.545151)
(-0.0262177 -0.014924 1.45052)
(-0.182044 -0.0432493 0.670512)
(-0.21893 -0.0303557 0.397382)
(-0.0950105 -0.0948357 0.356931)
(-0.000555997 -0.0512834 0.376602)
(-0.0196623 -0.0175291 0.488556)
(-0.083836 -0.0064876 1.04824)
(0.0356752 0.0204626 0.98595)
(-0.0842387 -0.149617 0.539384)
(-0.0202581 -0.0999338 0.243219)
(-0.0220825 0.0341463 0.435422)
(0.172474 0.0211827 1.18984)
(0.0933705 0.0251477 1.08399)
(0.112564 -0.0394361 0.438121)
(-0.0472368 -0.0129625 0.515858)
(0.30198 -0.302826 1.8698)
(0.2476 0.1479 1.23183)
(0.0337734 0.00701024 0.466363)
(-0.000559834 -0.0362017 0.560315)
(-0.0645197 -0.142571 1.35023)
(-0.139896 0.177651 0.390603)
(-0.045168 0.0155115 0.350243)
(0.00420811 0.0292702 0.505269)
(-0.00563578 0.0107586 0.527835)
(-0.0271788 -0.105842 1.3965)
(-0.216812 -0.0474557 0.670669)
(-0.207192 -0.0496318 0.390549)
(-0.0765797 -0.119284 0.34619)
(0.00890307 -0.0624567 0.378844)
(-0.00651172 0.00698368 0.474162)
(-0.0891406 0.00375764 1.06312)
(0.0239562 0.00838546 0.986085)
(-0.0366 -0.195145 0.493356)
(0.00949666 -0.116705 0.239679)
(-0.032162 0.0553049 0.428035)
(0.229254 0.0504039 1.17344)
(0.199767 -0.000887969 1.07095)
(0.159536 -0.0872136 0.413387)
(-0.0339057 -0.0139995 0.537379)
(0.338063 -0.299927 1.8853)
(0.31351 0.107162 1.02061)
(0.0681372 0.00698111 0.47861)
(0.0264209 -0.0333203 0.542023)
(0.0842979 -0.153949 1.53447)
(-0.0936293 0.176457 0.39285)
(-0.00711454 -0.00973247 0.375252)
(0.0468347 0.0145631 0.518797)
(0.0167362 0.0422568 0.534943)
(-0.0416897 -0.173301 1.36181)
(-0.274572 0.00912854 0.721996)
(-0.162754 -0.0785997 0.386371)
(-0.035725 -0.147593 0.341164)
(0.038732 -0.0850828 0.386211)
(0.00104711 0.0315987 0.482558)
(-0.0462679 0.0361232 1.04442)
(-0.00107177 -0.0434205 0.980601)
(-0.00192857 -0.223783 0.451204)
(0.0312737 -0.128508 0.259368)
(-0.0407853 0.0744447 0.435919)
(0.241857 0.0594545 1.13715)
(0.217629 -0.0220704 1.0425)
(0.175246 -0.10811 0.348232)
(-0.00797633 -0.00885474 0.570133)
(0.237412 -0.145404 1.89205)
(0.317896 0.135574 0.743066)
(0.131086 -0.00704392 0.458814)
(0.0580642 -0.0397248 0.560008)
(0.121823 -0.111565 1.60961)
(-0.0306841 0.15044 0.407592)
(0.0335989 -0.00610894 0.39564)
(0.075679 0.0346329 0.536805)
(0.0298587 0.0516093 0.573791)
(-0.0618612 -0.197632 1.39568)
(-0.291754 0.0948644 0.866512)
(-0.110426 -0.105734 0.387501)
(0.00757841 -0.164859 0.343752)
(0.0857846 -0.0865667 0.413991)
(0.011865 0.0379493 0.512408)
(-0.034844 -0.00913024 0.984808)
(0.0117089 -0.143394 0.939676)
(0.026556 -0.229369 0.41674)
(0.0510371 -0.136041 0.293322)
(-0.0313582 0.0822291 0.449795)
(0.226865 0.0627581 1.04769)
(0.168513 -0.0666632 1.00201)
(0.169395 -0.101909 0.298062)
(-0.00550129 -0.0080249 0.577295)
(0.00725187 -0.140946 2.02335)
(0.22041 0.0830952 0.542659)
(0.106767 0.00461804 0.452692)
(0.0254257 -0.0222903 0.634409)
(0.0412682 -0.00166999 1.66351)
(0.0228541 0.125465 0.407305)
(0.0618394 0.00883934 0.421125)
(0.0721813 0.0626092 0.564605)
(0.0337097 0.0346325 0.609745)
(-0.0507279 -0.186032 1.46959)
(-0.234783 0.171761 1.07847)
(-0.0611422 -0.120019 0.38779)
(0.0229497 -0.16174 0.350864)
(0.106294 -0.0453367 0.473211)
(0.0136316 0.0483284 0.561962)
(-0.0427941 -0.0297896 0.938341)
(0.083556 -0.185041 0.853584)
(0.0363997 -0.213895 0.38968)
(0.0767559 -0.123448 0.333554)
(-0.0379989 0.0792736 0.493951)
(0.213758 0.0950054 0.966138)
(0.125546 -0.0958993 0.895543)
(0.142046 -0.0823327 0.286823)
(-0.030475 -0.00562299 0.554499)
(-0.0619084 0.0186952 2.24891)
(0.0742618 0.0394594 0.474115)
(-0.0227018 0.0910545 0.453856)
(-0.00232525 0.0734188 0.616708)
(0.0963951 0.143548 1.72101)
(0.0555563 0.109311 0.416705)
(0.0690868 0.0150729 0.474786)
(0.0407469 0.0554901 0.594083)
(0.0209523 0.033661 0.632641)
(-0.042467 -0.173884 1.46521)
(-0.123843 0.225498 1.29605)
(-0.0289171 -0.101851 0.408407)
(0.00343631 -0.128681 0.372248)
(0.0382148 0.0206515 0.535756)
(0.00219912 0.0472842 0.607719)
(-0.0242512 0.0762007 0.929923)
(0.148786 -0.157198 0.757958)
(0.0142115 -0.1849 0.374982)
(0.0791391 -0.0537627 0.383949)
(-0.0414984 0.0706693 0.51036)
(0.215996 0.098814 0.909781)
(0.15484 -0.0872515 0.765691)
(0.0882425 -0.0469187 0.314935)
(-0.0772458 -0.00406413 0.461649)
(0.158458 0.17336 1.6356)
(0.031201 0.0381438 0.499448)
(-0.0652894 0.037963 0.443496)
(-0.0590961 -0.015868 0.516709)
(0.0315881 0.344383 1.84286)
(0.0637481 0.0786525 0.471687)
(0.0371955 0.00535071 0.55486)
(-0.012241 0.0315601 0.598525)
(0.0273723 0.0575058 0.640641)
(-0.0498344 -0.0511704 1.42148)
(-0.0168107 0.317825 1.4085)
(-0.0290144 -0.0656314 0.471325)
(-0.0606095 -0.0366983 0.436008)
(-0.0751968 0.0633006 0.531034)
(-0.00235355 0.0839754 0.619005)
(0.017043 0.205286 0.94298)
(0.170935 -0.106809 0.712772)
(-0.047263 -0.119191 0.403966)
(0.00643349 0.038283 0.448844)
(-0.0295625 0.0739099 0.533607)
(0.21281 0.0836419 0.905179)
(0.163848 -0.0970319 0.608151)
(0.0139567 -0.000371564 0.363428)
(-0.0920005 -0.0130758 0.467689)
(0.132255 -0.132935 0.921887)
(0.00563231 0.00579336 0.535036)
(-0.0853575 -0.0431801 0.456934)
(-0.120411 -0.0889837 0.439081)
(-0.0275097 0.348631 1.80454)
(0.056013 0.017035 0.583056)
(-0.0221845 0.0147939 0.579669)
(-0.030023 0.033429 0.562808)
(0.0273417 0.0415282 0.596838)
(-0.03325 0.156486 1.54757)
(0.114698 0.561648 1.26613)
(-0.0528608 -0.0510029 0.569351)
(-0.0961887 0.0257664 0.482269)
(-0.116423 0.0997637 0.481163)
(-0.0318395 0.0694929 0.600979)
(0.084608 0.320949 1.01624)
(0.162928 -0.0716359 0.721748)
(-0.119662 -0.0369538 0.485329)
(-0.0963938 0.102269 0.47522)
(-0.058346 0.115525 0.543815)
(0.197931 0.0664136 0.957592)
(0.109918 -0.0905137 0.544455)
(-0.0751734 0.0553658 0.434377)
(-0.0421106 -0.0011678 0.486698)
(0.0949436 -0.138539 0.813505)
(-0.0211061 -0.0205729 0.57263)
(-0.0762807 -0.0389622 0.50214)
(-0.0768051 -0.0208484 0.436243)
(0.122982 0.347401 1.40046)
(0.0478071 -0.0240829 0.690344)
(-0.0516148 0.0316513 0.564306)
(-0.0238837 0.0756727 0.464184)
(-0.00428803 -0.0208519 0.516978)
(0.0444282 0.363625 1.59478)
(0.261118 0.636937 1.05846)
(-0.0782369 -0.0646678 0.667592)
(-0.0989086 0.0483446 0.511828)
(-0.0820374 0.14597 0.434504)
(-0.0491686 0.08521 0.480922)
(0.21197 0.438251 1.10437)
(0.136991 -0.0562894 0.781122)
(-0.149629 -0.00501989 0.57851)
(-0.119318 0.15104 0.485922)
(-0.102568 0.168496 0.43315)
(0.19675 0.0307473 1.00471)
(0.0442704 -0.0733633 0.613482)
(-0.130145 0.0914581 0.541394)
(0.00750194 0.00448582 0.427083)
(-0.0245585 0.0123686 0.840801)
(-0.0335183 0.0011617 0.60037)
(-0.00850138 -0.0191115 0.564756)
(0.0507779 0.0673622 0.416189)
(0.0760207 0.248898 1.07958)
(0.0385963 -0.0110712 0.744126)
(-0.0350151 0.042387 0.553096)
(-0.0159225 0.117696 0.381222)
(0.0151617 0.0660949 0.466933)
(0.0566669 0.377803 1.28683)
(0.196305 0.393417 0.986)
(-0.0810478 -0.0638127 0.739481)
(-0.0763325 0.0581933 0.525833)
(-0.0329524 0.151576 0.409549)
(-0.042889 0.167581 0.381381)
(0.282126 0.456922 1.28404)
(0.118201 -0.062912 0.880561)
(-0.105423 -0.0360446 0.659677)
(-0.0714732 0.173724 0.504594)
(-0.101903 0.187951 0.394831)
(0.21315 0.0282772 1.02342)
(0.00460443 -0.0602873 0.733651)
(-0.132681 0.0989389 0.655543)
(-0.00240964 -0.0073631 0.418581)
(-0.0818037 0.0727397 0.819978)
(0.0051597 0.0518599 0.580774)
(0.00173475 -0.021322 0.586238)
(0.123162 0.0601507 0.375098)
(-0.00984063 0.0810317 0.996499)
(0.0366915 0.030493 0.744157)
(0.0431228 0.0808851 0.507845)
(-0.0238523 0.124288 0.333778)
(0.0491496 0.138872 0.435515)
(0.045929 0.310987 1.04884)
(-0.0242429 0.118337 0.972919)
(-0.0573646 -0.0242619 0.772827)
(-0.0152156 0.093724 0.548027)
(0.0118803 0.122065 0.420468)
(-0.0578691 0.182969 0.334837)
(0.276313 0.396233 1.4128)
(0.104635 -0.0721058 0.944161)
(-0.0117866 -0.0703895 0.720407)
(0.00331307 0.123384 0.554645)
(-0.0950511 0.186739 0.413752)
(0.222972 0.06946 1.03954)
(0.0214697 -0.060586 0.858522)
(-0.123631 0.094912 0.759897)
(0.0116355 -0.010125 0.463645)
(-0.0805802 0.080669 0.814401)
(0.0178971 0.0622103 0.539972)
(-0.00355842 -0.0434645 0.51315)
(0.147997 0.063418 0.374548)
(-0.0204546 -0.0640986 0.986456)
(0.0541769 0.073654 0.710683)
(0.0651324 0.0969915 0.455919)
(-0.0495686 0.107697 0.320248)
(0.0615721 0.165475 0.428039)
(0.0237177 0.228153 0.898775)
(-0.112573 -0.0544852 0.961014)
(-0.0161683 0.0506267 0.767708)
(0.0393175 0.143125 0.585609)
(0.0509749 0.0740685 0.47328)
(-0.0479661 0.15205 0.337825)
(0.169832 0.233747 1.46709)
(0.0963858 -0.0681618 0.960757)
(0.0682383 -0.0703764 0.778725)
(0.0923602 0.0267005 0.626096)
(-0.0548956 0.106269 0.46003)
(0.217269 0.0996517 1.06728)
(0.101416 -0.0718251 0.967318)
(-0.0770101 0.0465166 0.814346)
(0.0297897 0.00547798 0.448571)
(-0.0723448 0.0582284 0.812671)
(0.038795 0.0361448 0.548298)
(0.0458636 -0.0469621 0.414386)
(0.149691 0.0871001 0.383916)
(0.0109548 -0.10345 0.99237)
(0.070171 0.082747 0.684973)
(0.0244702 0.0844884 0.423482)
(-0.0813116 0.0747345 0.331968)
(0.0547905 0.179058 0.415652)
(-0.00482437 0.125127 0.891771)
(-0.0996244 -0.17428 1.05066)
(0.0117029 0.122848 0.752676)
(0.0499313 0.171292 0.613356)
(0.0716303 0.0174176 0.547125)
(-0.0164163 0.0683535 0.409119)
(0.0064091 -0.0519235 1.46229)
(0.0935584 -0.0482034 0.950241)
(0.109171 -0.0535736 0.835241)
(0.144681 -0.058327 0.708473)
(0.0145243 0.00189096 0.516835)
(0.217086 0.0896094 1.06856)
(0.188598 -0.0516704 1.01248)
(0.0707978 -0.0362281 0.841962)
(0.0703228 0.00833602 0.3836)
(-0.00468268 0.0304268 0.750211)
(0.0671162 0.024817 0.571607)
(0.0870837 -0.0496661 0.362293)
(0.143128 0.0893963 0.377126)
(0.00729091 -0.0623987 0.993215)
(0.0659906 0.0841196 0.676234)
(-0.0418349 0.0595523 0.404671)
(-0.10528 0.0347795 0.359939)
(0.00821879 0.156641 0.38761)
(-0.00785343 0.0849564 0.953564)
(0.00958582 -0.182132 1.08966)
(0.0265438 0.182448 0.762422)
(0.0391359 0.182132 0.636582)
(0.0660056 -0.0376312 0.612459)
(0.0182885 -0.0445969 0.520114)
(-0.0583542 -0.112083 1.34867)
(0.0771864 0.0424684 0.913611)
(0.121014 -0.0394728 0.88223)
(0.164843 -0.107096 0.780447)
(0.0771251 -0.0915031 0.595873)
(0.214137 0.073077 1.01862)
(0.247681 -0.04102 1.02664)
(0.202915 -0.0959688 0.878839)
(0.0970184 0.00415316 0.386497)
(-0.000829991 0.026826 0.591275)
(0.0412734 0.0226918 0.523512)
(0.091766 -0.0639387 0.34708)
(0.118581 0.0847118 0.360883)
(0.0518064 0.0676831 0.899219)
(0.0386936 0.0985585 0.671754)
(-0.0807909 0.0354406 0.401985)
(-0.123751 -0.0260289 0.400327)
(-0.0238874 0.040121 0.411096)
(-0.00601393 0.139687 1.03019)
(0.123212 -0.0138501 1.12951)
(0.0418303 0.237248 0.78965)
(0.0383832 0.176876 0.662084)
(0.0464164 -0.0743765 0.657412)
(0.0370777 -0.131108 0.598635)
(-0.0475322 -0.0628479 1.21637)
(0.0643753 0.13585 0.903467)
(0.113034 -0.0420688 0.921739)
(0.161712 -0.125364 0.829718)
(0.11355 -0.157016 0.667377)
(0.204267 0.0966507 0.980996)
(0.282434 -0.0391379 1.04302)
(0.260384 -0.116313 0.929634)
(0.102317 0.00149495 0.414057)
(-0.0480024 0.0379051 0.509351)
(-0.0281402 -0.0242018 0.432113)