/*--------------------------------*- C++ -*----------------------------------*\
| =========                 |                                                 |
| \\      /  F ield         | OpenFOAM: The Open Source CFD Toolbox           |
|  \\    /   O peration     | Version:  5.x                                   |
|   \\  /    A nd           | Web:      www.OpenFOAM.org                      |
|    \\/     M anipulation  |                                                 |
\*---------------------------------------------------------------------------*/
FoamFile
{
    version     2.0;
    format      ascii;
    class       volVectorField;
    location    "10";
    object      Us;
}
// * * * * * * * * * * * * * * * * * * * * * * * * * * * * * * * * * * * * * //

dimensions      [0 1 -1 0 0 0 0];

internalField   nonuniform List<vector> 
10571
(
(-0.0500262 -0.0245522 0.0288508)
(0.0545504 -0.023739 -0.0279624)
(-0.00271926 -0.0724037 0.0878227)
(-0.0923001 -0.0763252 0.0611328)
(0.0469811 0.0158739 0.0649945)
(-0.0302554 -0.08612 0.0021816)
(-0.0918315 -0.153067 0.0860921)
(-0.020996 -0.0341744 0.067485)
(0.0214365 0.0447734 -0.0013158)
(0.0792625 0.124024 0.0770855)
(-0.0761097 -0.0151021 -0.00226025)
(-0.106712 -0.0273623 0.0363842)
(-0.0517378 -0.00823746 0.0448952)
(0.0248465 0.0225288 -0.00408044)
(0.129115 0.134533 0.0263397)
(0.0677524 0.101733 0.121016)
(0.00331451 0.0794937 0.0351042)
(-0.00226496 0.123622 0.0465665)
(0.0694094 0.118371 0.00498597)
(0.182934 0.0672475 0.108547)
(0.0247218 0.0163088 0.0682718)
(0.0564323 0.0612798 0.0916384)
(0.0645365 0.0420894 0.0905084)
(0.0531576 -0.0196357 0.0487158)
(-0.0140413 0.029073 0.218929)
(0.0593669 -0.0387552 0.0504945)
(-0.0400646 0.0720391 0.151865)
(0.0350522 0.0799381 0.150577)
(0.0168847 0.0532086 0.0640494)
(0.0532592 -0.017544 0.0821316)
(0.0679708 0.01708 0.125579)
(0.0275003 0.0474075 0.0664134)
(-0.0885515 0.00560947 -0.0533196)
(-0.0499409 -0.0367261 -0.0432524)
(0.0394282 0.0380381 0.0995417)
(0.0335564 0.0491816 0.0715444)
(0.0638637 0.00611487 0.04134)
(-0.0194648 0.00279876 -0.0308788)
(-0.0415549 0.0697498 0.151329)
(-0.0259611 0.101534 0.222727)
(0.0667527 0.0866828 0.0645527)
(0.0419347 0.0109598 0.0813482)
(-0.0238931 -0.0471816 0.0510477)
(0.0300357 0.0141528 0.215213)
(-0.0111169 0.036582 0.170274)
(0.0706311 0.0364714 0.190405)
(0.015256 -0.0208052 0.121049)
(-0.00560221 -0.000428794 0.0534866)
(0.0775173 0.0217089 0.139141)
(0.0758532 -0.058272 0.0407567)
(0.0855537 0.0131639 0.141378)
(0.089069 0.0890539 0.149318)
(0.59592 -0.0619084 -0.118213)
(0.117369 -0.018761 0.124529)
(0.172795 0.0678939 0.150789)
(0.207224 0.068415 0.0776828)
(-0.190961 -0.123466 -0.14075)
(0 0 0)
(0.0673812 0.0891202 0.123389)
(0.117985 0.045916 0.077621)
(0.154048 0.0158915 0.0463712)
(0.179029 0.0103943 -0.00744163)
(-0.0885771 0.0661877 0.205514)
(-0.0308174 0.0617723 0.159504)
(0.0849946 0.0886159 0.0422156)
(0.0383624 -0.0138006 0.0778132)
(-0.00886374 -0.0916824 0.0539803)
(-0.166591 0.10992 0.174585)
(0.00143077 0.0962504 0.243623)
(0.0874912 0.0463962 0.258406)
(0.00671872 -0.0300674 0.0545174)
(-0.0196294 0.00948807 0.0534234)
(0.253673 -0.0585343 0.0412096)
(0.071842 -0.0538324 -0.0302497)
(0.154317 -0.0406299 0.0785118)
(0.379254 -0.0173629 -0.0307726)
(0 0 0)
(0.103681 -0.00628922 0.0439893)
(0.18372 0.0836208 0.119076)
(0.316674 0.151735 0.0469022)
(0 0 0)
(0 0 0)
(0.0235673 0.0468539 0.0209902)
(0.11821 0.0459321 0.0303018)
(0.196432 0.0290534 -0.0106596)
(0.107149 -0.0792083 -0.330097)
(0 0 0)
(0 0 0)
(0.096246 0.0876897 -0.027709)
(-0.082664 -0.140934 -0.261907)
(-0.0104761 -0.0669921 -0.331277)
(0 0 0)
(0 0 0)
(0.0930706 0.0615267 0.381745)
(-0.00875166 -0.0515785 -0.350154)
(0 0 0)
(0 0 0)
(0.0523607 -0.0418851 -0.169252)
(0 0 0)
(0 0 0)
(0 0 0)
(0.0604375 -0.00977742 -0.0422826)
(0 0 0)
(0 0 0)
(0 0 0)
(0 0 0)
(0.0107284 0.0322614 -0.0647701)
(0.0850738 0.0357016 -0.0244173)
(0.118463 -0.123662 -0.346239)
(0 0 0)
(0 0 0)
(0 0 0)
(-0.080163 -0.10594 -0.190445)
(-0.0803612 -0.114191 -0.210497)
(0 0 0)
(0 0 0)
(0 0 0)
(-0.0741297 -0.0646425 -0.176215)
(0.00756941 -0.0461203 -0.174929)
(0 0 0)
(0 0 0)
(0.0592269 -0.0413987 -0.258612)
(0 0 0)
(0 0 0)
(0 0 0)
(0.0743445 0.0836486 -0.296858)
(0.216371 0.0666693 -0.286495)
(0 0 0)
(0 0 0)
(0 0 0)
(-4.10141e-05 0.000132269 1.94443e-05)
(0.0124974 0.0879123 -0.192527)
(0.0104367 -0.167816 -0.00253819)
(0 0 0)
(0 0 0)
(0 0 0)
(0 0 0)
(-1.0463e-06 2.80587e-06 9.08281e-07)
(0.174342 0.102236 -0.209202)
(0.0176013 -0.12505 -0.184905)
(0 0 0)
(0 0 0)
(0 0 0)
(-0.0870552 -0.0320037 -0.140215)
(0.0324835 -0.0279373 -0.0847889)
(0 0 0)
(0 0 0)
(0 0 0)
(0 0 0)
(0 0 0)
(0 0 0)
(0 0 0)
(0 0 0)
(0 0 0)
(0 0 0)
(0 0 0)
(0 0 0)
(0.00829719 0.103247 -0.215236)
(0.1343 -0.033969 -0.191898)
(0 0 0)
(0 0 0)
(0 0 0)
(0 0 0)
(0 0 0)
(0.0953341 0.194235 -0.199733)
(-0.00410754 -0.0795166 -0.133991)
(0 0 0)
(0 0 0)
(0 0 0)
(0 0 0)
(0 0 0)
(0 0 0)
(0 0 0)
(0 0 0)
(0 0 0)
(0 0 0)
(0 0 0)
(0 0 0)
(0 0 0)
(0 0 0)
(0 0 0)
(0 0 0)
(0 0 0)
(0 0 0)
(0 0 0)
(0.0526544 0.0906111 -0.138033)
(0 0 0)
(0 0 0)
(0 0 0)
(0 0 0)
(0 0 0)
(0 0 0)
(0 0 0)
(0 0 0)
(0 0 0)
(0 0 0)
(0 0 0)
(0 0 0)
(0 0 0)
(0 0 0)
(0 0 0)
(0.0815652 -0.0698662 -0.0470556)
(0 0 0)
(0 0 0)
(0 0 0)
(0 0 0)
(0 0 0)
(0 0 0)
(0 0 0)
(0 0 0)
(0 0 0)
(0 0 0)
(0 0 0)
(0 0 0)
(0 0 0)
(0 0 0)
(0 0 0)
(0 0 0)
(0 0 0)
(0 0 0)
(0 0 0)
(0 0 0)
(0 0 0)
(0 0 0)
(0 0 0)
(0 0 0)
(0 0 0)
(0.0610599 -0.0799759 0.00920293)
(0 0 0)
(0 0 0)
(0 0 0)
(0 0 0)
(0 0 0)
(0 0 0)
(0 0 0)
(0 0 0)
(0 0 0)
(0.0628169 0.118887 0.025193)
(0 0 0)
(0 0 0)
(0 0 0)
(0 0 0)
(0 0 0)
(0 0 0)
(0 0 0)
(0 0 0)
(0 0 0)
(0 0 0)
(0 0 0)
(0 0 0)
(0 0 0)
(0 0 0)
(0 0 0)
(0 0 0)
(0 0 0)
(0 0 0)
(0 0 0)
(0 0 0)
(0 0 0)
(0 0 0)
(0 0 0)
(0 0 0)
(0 0 0)
(0 0 0)
(0 0 0)
(0 0 0)
(0 0 0)
(0 0 0)
(0 0 0)
(0 0 0)
(0 0 0)
(0 0 0)
(0 0 0)
(0 0 0)
(0 0 0)
(0.0678159 -0.0665269 0.170796)
(0 0 0)
(0 0 0)
(0 0 0)
(0 0 0)
(0 0 0)
(0 0 0)
(0 0 0)
(0 0 0)
(0 0 0)
(0 0 0)
(0 0 0)
(0 0 0)
(0 0 0)
(0 0 0)
(0 0 0)
(0 0 0)
(0 0 0)
(0 0 0)
(0 0 0)
(0 0 0)
(0 0 0)
(0 0 0)
(0 0 0)
(0 0 0)
(0 0 0)
(0 0 0)
(0 0 0)
(0 0 0)
(0 0 0)
(0 0 0)
(0 0 0)
(0 0 0)
(0 0 0)
(0 0 0)
(0 0 0)
(0 0 0)
(0 0 0)
(0 0 0)
(0 0 0)
(0 0 0)
(0 0 0)
(0 0 0)
(0 0 0)
(0 0 0)
(0 0 0)
(0 0 0)
(0 0 0)
(0 0 0)
(0 0 0)
(0 0 0)
(0 0 0)
(0 0 0)
(0 0 0)
(0 0 0)
(0 0 0)
(0 0 0)
(0 0 0)
(0 0 0)
(0 0 0)
(0 0 0)
(0 0 0)
(0 0 0)
(0 0 0)
(0 0 0)
(0 0 0)
(0 0 0)
(0 0 0)
(0 0 0)
(0 0 0)
(0 0 0)
(0 0 0)
(0 0 0)
(0 0 0)
(0 0 0)
(0 0 0)
(0 0 0)
(0 0 0)
(0 0 0)
(0 0 0)
(0 0 0)
(0 0 0)
(0 0 0)
(0 0 0)
(0 0 0)
(0 0 0)
(0 0 0)
(0 0 0)
(0 0 0)
(0 0 0)
(0 0 0)
(0 0 0)
(0 0 0)
(0 0 0)
(0 0 0)
(0 0 0)
(0 0 0)
(0 0 0)
(0 0 0)
(0 0 0)
(0 0 0)
(0 0 0)
(0 0 0)
(0 0 0)
(0 0 0)
(0 0 0)
(0 0 0)
(0 0 0)
(0 0 0)
(0 0 0)
(0 0 0)
(0 0 0)
(0 0 0)
(0 0 0)
(0 0 0)
(0 0 0)
(0 0 0)
(0 0 0)
(0 0 0)
(0 0 0)
(0 0 0)
(0 0 0)
(0 0 0)
(0 0 0)
(0 0 0)
(0 0 0)
(0 0 0)
(0 0 0)
(0 0 0)
(0 0 0)
(0 0 0)
(0 0 0)
(0 0 0)
(0 0 0)
(0 0 0)
(0 0 0)
(0 0 0)
(0 0 0)
(0 0 0)
(0 0 0)
(0 0 0)
(0 0 0)
(0 0 0)
(0 0 0)
(0 0 0)
(0 0 0)
(0 0 0)
(0 0 0)
(0 0 0)
(0 0 0)
(0 0 0)
(0 0 0)
(0 0 0)
(0 0 0)
(0 0 0)
(0 0 0)
(0 0 0)
(0 0 0)
(0 0 0)
(0 0 0)
(0 0 0)
(0 0 0)
(0 0 0)
(0 0 0)
(0 0 0)
(0 0 0)
(0 0 0)
(0 0 0)
(0 0 0)
(0 0 0)
(0 0 0)
(0 0 0)
(0 0 0)
(0 0 0)
(0 0 0)
(0 0 0)
(0 0 0)
(0 0 0)
(0 0 0)
(0 0 0)
(0 0 0)
(0 0 0)
(0 0 0)
(0 0 0)
(0 0 0)
(0 0 0)
(0 0 0)
(0 0 0)
(0 0 0)
(0 0 0)
(0 0 0)
(0 0 0)
(0 0 0)
(0 0 0)
(0 0 0)
(0 0 0)
(0 0 0)
(0 0 0)
(0 0 0)
(0 0 0)
(0 0 0)
(0 0 0)
(0 0 0)
(0 0 0)
(0 0 0)
(0 0 0)
(0 0 0)
(0 0 0)
(0 0 0)
(0 0 0)
(0 0 0)
(0 0 0)
(0 0 0)
(0 0 0)
(0 0 0)
(0 0 0)
(0 0 0)
(0 0 0)
(0 0 0)
(0 0 0)
(0 0 0)
(0 0 0)
(0 0 0)
(0 0 0)
(0 0 0)
(0 0 0)
(0 0 0)
(0 0 0)
(0 0 0)
(0 0 0)
(0 0 0)
(0 0 0)
(0 0 0)
(0 0 0)
(0 0 0)
(0 0 0)
(0 0 0)
(0 0 0)
(0 0 0)
(0 0 0)
(0 0 0)
(0 0 0)
(0 0 0)
(0 0 0)
(0 0 0)
(0 0 0)
(0 0 0)
(0 0 0)
(0 0 0)
(0 0 0)
(0 0 0)
(0 0 0)
(0 0 0)
(0 0 0)
(0 0 0)
(0 0 0)
(0 0 0)
(0 0 0)
(0 0 0)
(0 0 0)
(0 0 0)
(0 0 0)
(0 0 0)
(0 0 0)
(0 0 0)
(0 0 0)
(0 0 0)
(0 0 0)
(0 0 0)
(0 0 0)
(0 0 0)
(0 0 0)
(0 0 0)
(0 0 0)
(0 0 0)
(0 0 0)
(0 0 0)
(0 0 0)
(0 0 0)
(0 0 0)
(0 0 0)
(0 0 0)
(0 0 0)
(0 0 0)
(0 0 0)
(0 0 0)
(0 0 0)
(0 0 0)
(0 0 0)
(0 0 0)
(0 0 0)
(0 0 0)
(0 0 0)
(0 0 0)
(0 0 0)
(0 0 0)
(0 0 0)
(0 0 0)
(0 0 0)
(0 0 0)
(0 0 0)
(0 0 0)
(0 0 0)
(0 0 0)
(0 0 0)
(0 0 0)
(0 0 0)
(0 0 0)
(0 0 0)
(0 0 0)
(0 0 0)
(0 0 0)
(0 0 0)
(0 0 0)
(0 0 0)
(0 0 0)
(0 0 0)
(0 0 0)
(0 0 0)
(0 0 0)
(0 0 0)
(0 0 0)
(0 0 0)
(0 0 0)
(0 0 0)
(0 0 0)
(0 0 0)
(0 0 0)
(0 0 0)
(0 0 0)
(0 0 0)
(0 0 0)
(0 0 0)
(0 0 0)
(0 0 0)
(0 0 0)
(0 0 0)
(0 0 0)
(0 0 0)
(0 0 0)
(0 0 0)
(0 0 0)
(0 0 0)
(0 0 0)
(0 0 0)
(0 0 0)
(0 0 0)
(0 0 0)
(0 0 0)
(0 0 0)
(0 0 0)
(0 0 0)
(0 0 0)
(0 0 0)
(0 0 0)
(0 0 0)
(0 0 0)
(0 0 0)
(0 0 0)
(0 0 0)
(0 0 0)
(0 0 0)
(0 0 0)
(0 0 0)
(0 0 0)
(0 0 0)
(0 0 0)
(0 0 0)
(0 0 0)
(0 0 0)
(0 0 0)
(0 0 0)
(0 0 0)
(0 0 0)
(0 0 0)
(0 0 0)
(0 0 0)
(0 0 0)
(0 0 0)
(0 0 0)
(0 0 0)
(0 0 0)
(0 0 0)
(0 0 0)
(0 0 0)
(0 0 0)
(0 0 0)
(0 0 0)
(0 0 0)
(0 0 0)
(0 0 0)
(0 0 0)
(0 0 0)
(0 0 0)
(0 0 0)
(0 0 0)
(0 0 0)
(0 0 0)
(0 0 0)
(0 0 0)
(0 0 0)
(0 0 0)
(0 0 0)
(0 0 0)
(0 0 0)
(0 0 0)
(0 0 0)
(0 0 0)
(0 0 0)
(0 0 0)
(0 0 0)
(0 0 0)
(0 0 0)
(0 0 0)
(0 0 0)
(0 0 0)
(0 0 0)
(0 0 0)
(0 0 0)
(0 0 0)
(0 0 0)
(0 0 0)
(0 0 0)
(0 0 0)
(0 0 0)
(0 0 0)
(0 0 0)
(0 0 0)
(0 0 0)
(0 0 0)
(0 0 0)
(0 0 0)
(0 0 0)
(0 0 0)
(0 0 0)
(0 0 0)
(0 0 0)
(0 0 0)
(0 0 0)
(0 0 0)
(0 0 0)
(0 0 0)
(0 0 0)
(0 0 0)
(0 0 0)
(0 0 0)
(0 0 0)
(0 0 0)
(0 0 0)
(0 0 0)
(0 0 0)
(0 0 0)
(0 0 0)
(0 0 0)
(0 0 0)
(0 0 0)
(0 0 0)
(0 0 0)
(0 0 0)
(0 0 0)
(0 0 0)
(0 0 0)
(0 0 0)
(0 0 0)
(0 0 0)
(0 0 0)
(0 0 0)
(0 0 0)
(0 0 0)
(0 0 0)
(0 0 0)
(0 0 0)
(0 0 0)
(0 0 0)
(0 0 0)
(0 0 0)
(0 0 0)
(0 0 0)
(0 0 0)
(0 0 0)
(0 0 0)
(0 0 0)
(0 0 0)
(0 0 0)
(0 0 0)
(0 0 0)
(0 0 0)
(0 0 0)
(0 0 0)
(0 0 0)
(0 0 0)
(0 0 0)
(0 0 0)
(0 0 0)
(0 0 0)
(0 0 0)
(0 0 0)
(0 0 0)
(0 0 0)
(0 0 0)
(0 0 0)
(0 0 0)
(0 0 0)
(0 0 0)
(0 0 0)
(0 0 0)
(0 0 0)
(0 0 0)
(0 0 0)
(0 0 0)
(0 0 0)
(0 0 0)
(0 0 0)
(0 0 0)
(0 0 0)
(0 0 0)
(0 0 0)
(0 0 0)
(0 0 0)
(0 0 0)
(0 0 0)
(0 0 0)
(0 0 0)
(0 0 0)
(0 0 0)
(0 0 0)
(0 0 0)
(0 0 0)
(0 0 0)
(0 0 0)
(0 0 0)
(0 0 0)
(0 0 0)
(0 0 0)
(0 0 0)
(0 0 0)
(0 0 0)
(0 0 0)
(0 0 0)
(0 0 0)
(0 0 0)
(0 0 0)
(0 0 0)
(0 0 0)
(0 0 0)
(0 0 0)
(0 0 0)
(0 0 0)
(0 0 0)
(0 0 0)
(0 0 0)
(0 0 0)
(0 0 0)
(0 0 0)
(0 0 0)
(0 0 0)
(0 0 0)
(0 0 0)
(0 0 0)
(0 0 0)
(0 0 0)
(0 0 0)
(0 0 0)
(0 0 0)
(0 0 0)
(0 0 0)
(0 0 0)
(0 0 0)
(0 0 0)
(0 0 0)
(0 0 0)
(0 0 0)
(0 0 0)
(0 0 0)
(0 0 0)
(0 0 0)
(0 0 0)
(0 0 0)
(0 0 0)
(0 0 0)
(0 0 0)
(0 0 0)
(0 0 0)
(0 0 0)
(0 0 0)
(0 0 0)
(0 0 0)
(0 0 0)
(0 0 0)
(0 0 0)
(0 0 0)
(0 0 0)
(0 0 0)
(0 0 0)
(0 0 0)
(0 0 0)
(0 0 0)
(0 0 0)
(0 0 0)
(0 0 0)
(0 0 0)
(0 0 0)
(0 0 0)
(0 0 0)
(0 0 0)
(0 0 0)
(0 0 0)
(0 0 0)
(0 0 0)
(0 0 0)
(0 0 0)
(0 0 0)
(0 0 0)
(0 0 0)
(0 0 0)
(0 0 0)
(0 0 0)
(0 0 0)
(0 0 0)
(0 0 0)
(0 0 0)
(0 0 0)
(0 0 0)
(0 0 0)
(0 0 0)
(0 0 0)
(0 0 0)
(0 0 0)
(0 0 0)
(0 0 0)
(0 0 0)
(0 0 0)
(0 0 0)
(0 0 0)
(0 0 0)
(0 0 0)
(0 0 0)
(0 0 0)
(0 0 0)
(0 0 0)
(0 0 0)
(0 0 0)
(0 0 0)
(0 0 0)
(0 0 0)
(0 0 0)
(0 0 0)
(0 0 0)
(0 0 0)
(0 0 0)
(0 0 0)
(0 0 0)
(0 0 0)
(0 0 0)
(0 0 0)
(0 0 0)
(0 0 0)
(0 0 0)
(0 0 0)
(0 0 0)
(0 0 0)
(0 0 0)
(0 0 0)
(0 0 0)
(0 0 0)
(0 0 0)
(0 0 0)
(0 0 0)
(0 0 0)
(0 0 0)
(0 0 0)
(0 0 0)
(0 0 0)
(0 0 0)
(0 0 0)
(0 0 0)
(0 0 0)
(0 0 0)
(0 0 0)
(0 0 0)
(0 0 0)
(0 0 0)
(0 0 0)
(0 0 0)
(0 0 0)
(0 0 0)
(0 0 0)
(0 0 0)
(0 0 0)
(0 0 0)
(0 0 0)
(0 0 0)
(0 0 0)
(0 0 0)
(0 0 0)
(0 0 0)
(0 0 0)
(0 0 0)
(0 0 0)
(0 0 0)
(0 0 0)
(0 0 0)
(0 0 0)
(0 0 0)
(0 0 0)
(0 0 0)
(0 0 0)
(0 0 0)
(0 0 0)
(0 0 0)
(0 0 0)
(0 0 0)
(0 0 0)
(0 0 0)
(0 0 0)
(0 0 0)
(0 0 0)
(0 0 0)
(0 0 0)
(0 0 0)
(0 0 0)
(0 0 0)
(0 0 0)
(0 0 0)
(0 0 0)
(0 0 0)
(0 0 0)
(0 0 0)
(0 0 0)
(0 0 0)
(0 0 0)
(0 0 0)
(0 0 0)
(0 0 0)
(0 0 0)
(0 0 0)
(0 0 0)
(0 0 0)
(0 0 0)
(0 0 0)
(0 0 0)
(0 0 0)
(0 0 0)
(0 0 0)
(0 0 0)
(0 0 0)
(0 0 0)
(0 0 0)
(0 0 0)
(0 0 0)
(0 0 0)
(0 0 0)
(0 0 0)
(0 0 0)
(0 0 0)
(0 0 0)
(0 0 0)
(0 0 0)
(0 0 0)
(0 0 0)
(0 0 0)
(0 0 0)
(0 0 0)
(0 0 0)
(0 0 0)
(0 0 0)
(0 0 0)
(0 0 0)
(0 0 0)
(0 0 0)
(0 0 0)
(0 0 0)
(0 0 0)
(0 0 0)
(0 0 0)
(0 0 0)
(0 0 0)
(0 0 0)
(0 0 0)
(0 0 0)
(0 0 0)
(0 0 0)
(0 0 0)
(0 0 0)
(0 0 0)
(0 0 0)
(0 0 0)
(0 0 0)
(0 0 0)
(0 0 0)
(0 0 0)
(0 0 0)
(0 0 0)
(0 0 0)
(0 0 0)
(0 0 0)
(0 0 0)
(0 0 0)
(0 0 0)
(0 0 0)
(0 0 0)
(0 0 0)
(0 0 0)
(0 0 0)
(0 0 0)
(0 0 0)
(0 0 0)
(0 0 0)
(0 0 0)
(0 0 0)
(0 0 0)
(0 0 0)
(0 0 0)
(0 0 0)
(0 0 0)
(0 0 0)
(0 0 0)
(0 0 0)
(0 0 0)
(0 0 0)
(0 0 0)
(0 0 0)
(0 0 0)
(0 0 0)
(0 0 0)
(0 0 0)
(0 0 0)
(0 0 0)
(0 0 0)
(0 0 0)
(0 0 0)
(0 0 0)
(0 0 0)
(0 0 0)
(0 0 0)
(0 0 0)
(0 0 0)
(0 0 0)
(0 0 0)
(0 0 0)
(0 0 0)
(0 0 0)
(0 0 0)
(0 0 0)
(0 0 0)
(0 0 0)
(0 0 0)
(0 0 0)
(0 0 0)
(0 0 0)
(0 0 0)
(0 0 0)
(0 0 0)
(0 0 0)
(0 0 0)
(0 0 0)
(0 0 0)
(0 0 0)
(0 0 0)
(0 0 0)
(0 0 0)
(0 0 0)
(0 0 0)
(0 0 0)
(0 0 0)
(0 0 0)
(0 0 0)
(0 0 0)
(0 0 0)
(0 0 0)
(0 0 0)
(0 0 0)
(0 0 0)
(0 0 0)
(0 0 0)
(0 0 0)
(0 0 0)
(0 0 0)
(0 0 0)
(0 0 0)
(0 0 0)
(0 0 0)
(0 0 0)
(0 0 0)
(0 0 0)
(0 0 0)
(0 0 0)
(0 0 0)
(0 0 0)
(0 0 0)
(0 0 0)
(0 0 0)
(0 0 0)
(0 0 0)
(0 0 0)
(0 0 0)
(0 0 0)
(0 0 0)
(0 0 0)
(0 0 0)
(0 0 0)
(0 0 0)
(0 0 0)
(0 0 0)
(0 0 0)
(0 0 0)
(0 0 0)
(0 0 0)
(0 0 0)
(0 0 0)
(0 0 0)
(0 0 0)
(0 0 0)
(0 0 0)
(0 0 0)
(0 0 0)
(0 0 0)
(0 0 0)
(0 0 0)
(0 0 0)
(0 0 0)
(0 0 0)
(0 0 0)
(0 0 0)
(0 0 0)
(0 0 0)
(0 0 0)
(0 0 0)
(0 0 0)
(0 0 0)
(0 0 0)
(0 0 0)
(0 0 0)
(0 0 0)
(0 0 0)
(0 0 0)
(0 0 0)
(0 0 0)
(0 0 0)
(0 0 0)
(0 0 0)
(0 0 0)
(0 0 0)
(0 0 0)
(0 0 0)
(0 0 0)
(0 0 0)
(0 0 0)
(0 0 0)
(0 0 0)
(0 0 0)
(0 0 0)
(0 0 0)
(0 0 0)
(0 0 0)
(0 0 0)
(0 0 0)
(0 0 0)
(0 0 0)
(0 0 0)
(0 0 0)
(0 0 0)
(0 0 0)
(0 0 0)
(0 0 0)
(0 0 0)
(0 0 0)
(0 0 0)
(0 0 0)
(0 0 0)
(0 0 0)
(0 0 0)
(0 0 0)
(0 0 0)
(0 0 0)
(0 0 0)
(0 0 0)
(0 0 0)
(0 0 0)
(0 0 0)
(0 0 0)
(0 0 0)
(0 0 0)
(0 0 0)
(0 0 0)
(0 0 0)
(0 0 0)
(0 0 0)
(0 0 0)
(0 0 0)
(0 0 0)
(0 0 0)
(0 0 0)
(0 0 0)
(0 0 0)
(0 0 0)
(0 0 0)
(0 0 0)
(0 0 0)
(0 0 0)
(0 0 0)
(0 0 0)
(0 0 0)
(0 0 0)
(0 0 0)
(0 0 0)
(0 0 0)
(0 0 0)
(0 0 0)
(0 0 0)
(0 0 0)
(0 0 0)
(0 0 0)
(0 0 0)
(0 0 0)
(0 0 0)
(0 0 0)
(0 0 0)
(0 0 0)
(0 0 0)
(0 0 0)
(0 0 0)
(0 0 0)
(0 0 0)
(0 0 0)
(0 0 0)
(0 0 0)
(0 0 0)
(0 0 0)
(0 0 0)
(0 0 0)
(0 0 0)
(0 0 0)
(0 0 0)
(0 0 0)
(0 0 0)
(0 0 0)
(0 0 0)
(0 0 0)
(0 0 0)
(0 0 0)
(0 0 0)
(0 0 0)
(0 0 0)
(0 0 0)
(0 0 0)
(0 0 0)
(0 0 0)
(0 0 0)
(0 0 0)
(0 0 0)
(0 0 0)
(0 0 0)
(0 0 0)
(0 0 0)
(0 0 0)
(0 0 0)
(0 0 0)
(0 0 0)
(0 0 0)
(0 0 0)
(0 0 0)
(0 0 0)
(0 0 0)
(0 0 0)
(0 0 0)
(0 0 0)
(0 0 0)
(0 0 0)
(0 0 0)
(0 0 0)
(0 0 0)
(0 0 0)
(0 0 0)
(0 0 0)
(0 0 0)
(0 0 0)
(0 0 0)
(0 0 0)
(0 0 0)
(0 0 0)
(0 0 0)
(0 0 0)
(0 0 0)
(0 0 0)
(0 0 0)
(0 0 0)
(0 0 0)
(0 0 0)
(0 0 0)
(0 0 0)
(0 0 0)
(0 0 0)
(0 0 0)
(0 0 0)
(0 0 0)
(0 0 0)
(0 0 0)
(0 0 0)
(0 0 0)
(0 0 0)
(0 0 0)
(0 0 0)
(0 0 0)
(0 0 0)
(0 0 0)
(0 0 0)
(0 0 0)
(0 0 0)
(0 0 0)
(0 0 0)
(0 0 0)
(0 0 0)
(0 0 0)
(0 0 0)
(0 0 0)
(0 0 0)
(0 0 0)
(0 0 0)
(0 0 0)
(0 0 0)
(0 0 0)
(0 0 0)
(0 0 0)
(0 0 0)
(0 0 0)
(0 0 0)
(0 0 0)
(0 0 0)
(0 0 0)
(0 0 0)
(0 0 0)
(0 0 0)
(0 0 0)
(0 0 0)
(0 0 0)
(0 0 0)
(0 0 0)
(0 0 0)
(0 0 0)
(0 0 0)
(0 0 0)
(0 0 0)
(0 0 0)
(0 0 0)
(0 0 0)
(0 0 0)
(0 0 0)
(0 0 0)
(0 0 0)
(0 0 0)
(0 0 0)
(0 0 0)
(0 0 0)
(0 0 0)
(0 0 0)
(0 0 0)
(0 0 0)
(0 0 0)
(0 0 0)
(0 0 0)
(0 0 0)
(0 0 0)
(0 0 0)
(0 0 0)
(0 0 0)
(0 0 0)
(0 0 0)
(0 0 0)
(0 0 0)
(0 0 0)
(0 0 0)
(0 0 0)
(0 0 0)
(0 0 0)
(0 0 0)
(0 0 0)
(0 0 0)
(0 0 0)
(0 0 0)
(0 0 0)
(0 0 0)
(0 0 0)
(0 0 0)
(0 0 0)
(0 0 0)
(0 0 0)
(0 0 0)
(0 0 0)
(0 0 0)
(0 0 0)
(0 0 0)
(0 0 0)
(0 0 0)
(0 0 0)
(0 0 0)
(0 0 0)
(0 0 0)
(0 0 0)
(0 0 0)
(0 0 0)
(0 0 0)
(0 0 0)
(0 0 0)
(0 0 0)
(0 0 0)
(0 0 0)
(0 0 0)
(0 0 0)
(0 0 0)
(0 0 0)
(0 0 0)
(0 0 0)
(0 0 0)
(0 0 0)
(0 0 0)
(0 0 0)
(0 0 0)
(0 0 0)
(0 0 0)
(0 0 0)
(0 0 0)
(0 0 0)
(0 0 0)
(0 0 0)
(0 0 0)
(0 0 0)
(0 0 0)
(0 0 0)
(0 0 0)
(0 0 0)
(0 0 0)
(0 0 0)
(0 0 0)
(0 0 0)
(0 0 0)
(0 0 0)
(0 0 0)
(0 0 0)
(0 0 0)
(0 0 0)
(0 0 0)
(0 0 0)
(0 0 0)
(0 0 0)
(0 0 0)
(0 0 0)
(0 0 0)
(0 0 0)
(0 0 0)
(0 0 0)
(0 0 0)
(0 0 0)
(0 0 0)
(0 0 0)
(0 0 0)
(0 0 0)
(0 0 0)
(0 0 0)
(0 0 0)
(0 0 0)
(0 0 0)
(0 0 0)
(0 0 0)
(0 0 0)
(0 0 0)
(0 0 0)
(0 0 0)
(0 0 0)
(0 0 0)
(0 0 0)
(0 0 0)
(0 0 0)
(0 0 0)
(0 0 0)
(0 0 0)
(0 0 0)
(0 0 0)
(0 0 0)
(0 0 0)
(0 0 0)
(0 0 0)
(0 0 0)
(0 0 0)
(0 0 0)
(0 0 0)
(0 0 0)
(0 0 0)
(0 0 0)
(0 0 0)
(0 0 0)
(0 0 0)
(0 0 0)
(0 0 0)
(0 0 0)
(0 0 0)
(0 0 0)
(0 0 0)
(0 0 0)
(0 0 0)
(0 0 0)
(0 0 0)
(0 0 0)
(0 0 0)
(0 0 0)
(0 0 0)
(0 0 0)
(0 0 0)
(0 0 0)
(0 0 0)
(0 0 0)
(0 0 0)
(0 0 0)
(0 0 0)
(0 0 0)
(0 0 0)
(0 0 0)
(0 0 0)
(0 0 0)
(0 0 0)
(0 0 0)
(0 0 0)
(0 0 0)
(0 0 0)
(0 0 0)
(0 0 0)
(0 0 0)
(0 0 0)
(0 0 0)
(0 0 0)
(0 0 0)
(0 0 0)
(0 0 0)
(0 0 0)
(0 0 0)
(0 0 0)
(0 0 0)
(0 0 0)
(0 0 0)
(0 0 0)
(0 0 0)
(0 0 0)
(0 0 0)
(0 0 0)
(0 0 0)
(0 0 0)
(0 0 0)
(0 0 0)
(0 0 0)
(0 0 0)
(0 0 0)
(0 0 0)
(0 0 0)
(0 0 0)
(0 0 0)
(0 0 0)
(0 0 0)
(0 0 0)
(0 0 0)
(0 0 0)
(0 0 0)
(0 0 0)
(0 0 0)
(0 0 0)
(0 0 0)
(0 0 0)
(0 0 0)
(0 0 0)
(0 0 0)
(0 0 0)
(0 0 0)
(0 0 0)
(0 0 0)
(0 0 0)
(0 0 0)
(0 0 0)
(0 0 0)
(0 0 0)
(0 0 0)
(0 0 0)
(0 0 0)
(0 0 0)
(0 0 0)
(0 0 0)
(0 0 0)
(0 0 0)
(0 0 0)
(0 0 0)
(0 0 0)
(0 0 0)
(0 0 0)
(0 0 0)
(0 0 0)
(0 0 0)
(0 0 0)
(0 0 0)
(0 0 0)
(0 0 0)
(0 0 0)
(0 0 0)
(0 0 0)
(0 0 0)
(0 0 0)
(0 0 0)
(0 0 0)
(0 0 0)
(0 0 0)
(0 0 0)
(0 0 0)
(0 0 0)
(0 0 0)
(0 0 0)
(0 0 0)
(0 0 0)
(0 0 0)
(0 0 0)
(0 0 0)
(0 0 0)
(0 0 0)
(0 0 0)
(0 0 0)
(0 0 0)
(0 0 0)
(0 0 0)
(0 0 0)
(0 0 0)
(0 0 0)
(0 0 0)
(0 0 0)
(0 0 0)
(0 0 0)
(0 0 0)
(0 0 0)
(0 0 0)
(0 0 0)
(0 0 0)
(0 0 0)
(0 0 0)
(0 0 0)
(0 0 0)
(0 0 0)
(0 0 0)
(0 0 0)
(0 0 0)
(0 0 0)
(0 0 0)
(0 0 0)
(0 0 0)
(0 0 0)
(0 0 0)
(0 0 0)
(0 0 0)
(0 0 0)
(0 0 0)
(0 0 0)
(0 0 0)
(0 0 0)
(0 0 0)
(0 0 0)
(0 0 0)
(0 0 0)
(0 0 0)
(0 0 0)
(0 0 0)
(0 0 0)
(0 0 0)
(0 0 0)
(0 0 0)
(0 0 0)
(0 0 0)
(0 0 0)
(0 0 0)
(0 0 0)
(0 0 0)
(0 0 0)
(0 0 0)
(0 0 0)
(0 0 0)
(0 0 0)
(0 0 0)
(0 0 0)
(0 0 0)
(0 0 0)
(0 0 0)
(0 0 0)
(0 0 0)
(0 0 0)
(0 0 0)
(0 0 0)
(0 0 0)
(0 0 0)
(0 0 0)
(0 0 0)
(0 0 0)
(0 0 0)
(0 0 0)
(0 0 0)
(0 0 0)
(0 0 0)
(0 0 0)
(0 0 0)
(0 0 0)
(0 0 0)
(0 0 0)
(0 0 0)
(0 0 0)
(0 0 0)
(0 0 0)
(0 0 0)
(0 0 0)
(0 0 0)
(0 0 0)
(0 0 0)
(0 0 0)
(0 0 0)
(0 0 0)
(0 0 0)
(0 0 0)
(0 0 0)
(0 0 0)
(0 0 0)
(0 0 0)
(0 0 0)
(0 0 0)
(0 0 0)
(0 0 0)
(0 0 0)
(0 0 0)
(0 0 0)
(0 0 0)
(0 0 0)
(0 0 0)
(0 0 0)
(0 0 0)
(0 0 0)
(0 0 0)
(0 0 0)
(0 0 0)
(0 0 0)
(0 0 0)
(0 0 0)
(0 0 0)
(0 0 0)
(0 0 0)
(0.00879947 -0.012679 0.00274596)
(0.00795018 -0.0121204 0.00681888)
(0.00962561 -0.0214998 0.00210159)
(0.00248317 -0.030438 0.0062077)
(0.00308066 -0.00801337 0.00386727)
(-0.0033171 -0.0197722 0.00439758)
(-0.000989496 -0.00421168 -0.000671621)
(-0.000436671 -0.000586211 -0.0015619)
(0.000930641 -0.00826914 -0.00360975)
(0.00403178 -0.00929381 0.00115832)
(0.0110714 -0.0270848 0.00230221)
(0.000186996 -0.0208477 0.00320824)
(-0.008266 -0.0445037 0.000655876)
(0.00537423 -0.0391776 0.0064475)
(-0.0123893 -0.0516858 0.00930178)
(-0.0109741 -0.0770136 0.00663471)
(-0.0108037 -0.0844927 0.00501747)
(-0.0206834 -0.0514762 0.00544677)
(-0.00114224 -0.035147 -0.00267666)
(0.000257433 -0.08442 -0.00681305)
(0.0303397 -0.0498518 -0.016004)
(0.0192487 -0.00222236 -0.00471186)
(0.0232873 0.0119968 -0.00236404)
(0.086006 0.00136895 -0.0171368)
(0.0853179 0.043298 -0.00418)
(0.0457833 0.0418626 0.00252096)
(-0.0118928 -0.0215714 0.00124956)
(-0.0141058 -0.0261487 0.00507745)
(-0.0296671 -0.0350221 0.001038)
(-0.023093 -0.0364885 0.00116283)
(-0.024698 -0.0506721 -0.00541337)
(-0.0417407 -0.0431178 -0.00110293)
(-0.0496612 -0.0586928 -0.0215597)
(-0.031509 -0.0809802 -0.0177488)
(-0.0119879 -0.0931363 -0.0177389)
(-0.0404488 -0.0639801 -0.0322186)
(0.00964196 -0.0398104 -0.0220271)
(0.0319568 -0.0680956 -0.0200639)
(0.0842001 -0.00998111 -0.0208396)
(0.0748783 -0.00337662 -0.0251271)
(0.120782 0.0432835 -0.0228733)
(0.125067 0.0409733 -0.0227549)
(0.148043 0.0948666 -0.00978632)
(0.1647 0.0949228 -0.022623)
(0.196304 0.146926 -0.0107027)
(0.063093 0.077519 0.00905279)
(0.0849944 0.10934 0.0202491)
(0.0186682 0.0342606 0.0171441)
(-0.0138499 -0.0172702 0.0052653)
(-0.0319225 -0.0271545 0.00172173)
(-0.00410267 -0.0125718 -0.00402943)
(-0.0459363 -0.0305628 -0.0144556)
(-0.0396687 -0.0302937 -0.0266186)
(-0.0153082 0.00181896 -0.0158119)
(-0.0154603 0.0191324 -0.0359037)
(-0.0152453 -0.0202622 -0.0244056)
(0.0325387 0.00896922 -0.0235204)
(0.00523692 0.0303533 -0.0340937)
(0.0535767 0.0588351 -0.0307409)
(0.103522 0.0433547 -0.0263549)
(0.168141 0.0855036 -0.0229285)
(0.129589 0.0835533 -0.0254141)
(0.213238 0.109227 -0.0232977)
(0.225767 0.134059 -0.0177167)
(0.226228 0.166101 -0.0131489)
(0.277423 0.145891 -0.0233045)
(0.200674 0.110264 0.00856986)
(0.0790369 0.0934982 0.0331437)
(0.0140837 0.0271644 0.0139595)
(0.0469826 0.0452914 0.0279347)
(-0.00151344 -0.003598 -0.00305864)
(-0.00410571 0.026676 -0.00762809)
(0.00171129 0.0631705 -0.0358812)
(0.00427644 0.0217108 -0.000978721)
(0.0170664 0.0605165 0.00276252)
(0.0269041 0.0782951 -0.0328018)
(0.0768089 0.0985416 -0.0269265)
(0.0525874 0.101458 0.00253215)
(0.0933146 0.12386 8.5113e-05)
(0.151772 0.114172 -0.0282701)
(0.230418 0.12409 -0.0190509)
(0.137785 0.104564 0.0063585)
(0.156493 0.050579 0.0198359)
(0.224527 0.079652 0.0102912)
(0.0935152 0.0130693 0.0252199)
(0.101777 -0.010154 0.0260826)
(0.0409378 -0.0142366 0.0154516)
(0.0211865 0.00224057 0.014478)
(0.0138655 0.0182844 0.00100392)
(0.0219984 0.0266355 0.0115072)
(0.0474624 0.0444942 0.021767)
(0.0213276 -0.00201176 0.000693367)
(0.0726899 0.0218425 0.0211924)
(0.070758 -0.00788872 0.0172265)
(0.0311196 -0.00896631 0.0064629)
(0.0512067 -0.019022 0.0168298)
(-0.0242745 0.0232931 -0.00491683)
(-0.0169036 0.0152696 -0.0024332)
(-0.0518942 -0.00836826 0.0311617)
(-0.0384453 0.033844 0.00320508)
(-0.0489186 -0.0074317 -0.000165316)
(-0.0547489 0.0204305 0.0442319)
(-0.0494686 0.0334942 0.0184471)
(-0.068783 0.0145938 0.0228046)
(-0.069106 -0.0512594 0.0419917)
(-0.0314453 -0.0193346 0.0490999)
(-0.0309201 -0.0113971 0.0711322)
(-0.0274347 -0.0207348 0.0699551)
(0.00584812 0.00929681 0.0912381)
(0.00114256 0.00706511 0.0475149)
(0.0194873 0.0230944 0.0780781)
(0.0284629 -0.0492384 -0.0554241)
(0.0374281 -0.059819 -0.0673744)
(0.0336856 -0.00559386 0.0206845)
(0.0563184 -0.0529761 -0.021053)
(0.0125702 -0.0851168 0.0552325)
(0.0331712 -0.022709 -0.0114403)
(0.0101192 0.00395131 0.0305934)
(0.0584817 -0.0316885 0.000410645)
(0.0203307 -0.0437533 0.116439)
(0.0455028 0.0389846 0.0523553)
(0.0432692 0.026703 0.0499452)
(0.0678785 0.0577171 0.0435995)
(0.0258376 0.0455035 0.0762976)
(0.0255644 0.0351921 0.0495453)
(-0.00223624 0.0506154 0.0459089)
(0.00946363 0.0416584 0.0284943)
(0.053852 0.0797198 0.0471947)
(0.0151477 0.0298649 0.0316861)
(0.0226318 -0.048247 -0.0698259)
(-0.0595663 -0.0129545 -0.0370296)
(-0.0579543 -0.00761517 -0.052973)
(0.0212815 -0.0551892 -0.0632764)
(-0.00261619 0.0122893 0.0433848)
(-0.0153148 0.017727 -0.069844)
(0.0994987 0.158633 0.126218)
(0.0316649 0.0933767 0.130692)
(0.0093988 0.0583096 0.0440816)
(0.0298824 0.137986 0.152487)
(0.013401 0.0987147 0.188757)
(-0.0888887 -0.00596195 -0.0243717)
(-0.0272566 -0.00175723 -0.00264563)
(-0.0227159 0.0285832 0.0349337)
(-0.035026 0.0372284 -0.0341087)
(-0.00390213 0.0395411 0.00243001)
(0.0171386 0.0647576 0.100137)
(0.040329 0.0559977 0.102319)
(0.0285029 0.111395 0.192683)
(-0.0057575 0.0737622 0.170405)
(0.00952638 0.0602877 0.170675)
(0.00780921 0.0274725 0.00588044)
(0.0237341 0.0506197 0.0263566)
(-0.00271629 0.115376 0.0450379)
(0.0436641 0.0674407 0.0324587)
(0.0486134 0.0981627 0.0623072)
(0.0347309 0.0901933 0.057078)
(0.0328254 0.10122 0.0657459)
(0.060944 0.0743362 0.0646428)
(0.0670265 0.089482 0.100201)
(0.0863143 0.0227907 0.0968321)
(0.0940802 -0.00509848 0.0816299)
(0.0408559 -0.0167771 0.0512736)
(0.115306 0.0339206 0.180706)
(0.0522936 0.0319219 0.174167)
(0.0536197 -0.0131209 0.110288)
(0.0304087 -0.00918772 0.10092)
(0.00600803 0.0228866 0.129526)
(0.0544008 0.0488413 0.059124)
(0.0665985 0.0531146 0.109349)
(0.0586784 0.070965 0.100553)
(0.0489842 0.0151809 0.0797215)
(0.0597722 0.0558827 0.150282)
(0.0451741 0.0439787 0.152875)
(0.0407073 0.00957115 0.132255)
(0.0660037 0.0012908 0.0696796)
(0.0430534 0.00752934 0.0809407)
(0.0306728 0.0122327 0.117683)
(0.0293388 -0.00603042 0.0831029)
(0.0286179 0.00453969 0.110471)
(0.0271032 -0.0165623 0.0575615)
(-0.000687848 0.0107494 0.0466197)
(0.0464873 -0.0136324 0.0598237)
(-0.0430277 0.0200035 0.0931042)
(-0.0383184 0.0341973 0.0704291)
(-0.0566433 0.0203822 0.0861373)
(0.0264467 0.00730433 0.116281)
(0.029129 0.0160394 0.0982094)
(0.0255907 0.0243007 0.136024)
(0.0398971 0.0445717 0.163909)
(0.0564992 0.0420321 0.113706)
(0.0407058 0.046075 0.193173)
(0.0735081 0.0934476 0.167285)
(0.0669655 0.0463984 0.107007)
(0.0416055 0.0307032 0.0651954)
(0.0451075 0.034671 0.0644753)
(0.101289 -0.090976 0.0224196)
(0.102362 -0.0780901 0.0571571)
(0.0147613 0.0130447 0.0775235)
(0.111101 -0.0418364 0.0749647)
(0.0615743 -0.0164185 0.177356)
(0.0771366 -0.0550133 0.0621256)
(0.0631049 -0.00640788 0.100418)
(0.119125 -0.0481973 0.0885926)
(0.109104 -0.00995615 0.198635)
(0.00637116 0.0221223 0.0417236)
(-0.00775301 0.064372 0.0537131)
(-0.0227734 0.0294887 0.026521)
(0.0235767 0.0559319 0.062585)
(0.00367302 0.0189492 0.0366205)
(0.0175324 0.0794683 0.0666765)
(0 0 0)
(-0.0110498 -0.00162251 0.0224077)
(0 0 0)
(0.0700319 -0.0726347 0.0105992)
(0.0460684 0.00521776 0.155403)
(0.088845 0.0229655 0.00147166)
(0.0793474 -0.0674387 0.0674847)
(0.0908284 0.0729154 0.187685)
(0.1231 0.0230057 0.0627348)
(-0.0319853 0.0914335 0.139074)
(-0.00540072 0.0830809 0.187805)
(-0.0820686 -0.198525 -0.234758)
(-0.0579731 0.018828 0.0578891)
(0.00175654 0.0630463 0.126446)
(0.0572517 0.0842178 0.00740552)
(0.039409 0.083754 0.0325375)
(0.0828972 0.0948342 0.135667)
(0.0963834 0.0997822 0.0625657)
(0.0583404 0.0993499 0.0422145)
(-0.0268217 0.0795411 0.190844)
(-0.0110028 0.0672497 0.221482)
(-0.0339203 0.0941345 0.20749)
(-0.0152722 0.079457 0.153368)
(-0.0227944 0.0833688 0.23431)
(0.0466006 0.0772737 0.0433647)
(0.0564837 0.0909929 0.0361796)
(0.0682445 0.0758079 0.0725707)
(0.0747146 0.0749674 0.0775863)
(0.0860102 0.0805729 0.122578)
(0.077504 0.0851453 0.0554214)
(0.0776395 0.0649882 0.0657617)
(0.0795687 0.0776268 0.0754242)
(0.0997858 0.0761754 0.129465)
(0.00915838 0.0416559 0.240657)
(-0.00446336 0.00293517 0.114314)
(0.00283564 0.0147043 0.147774)
(-0.054227 0.0577294 0.197804)
(-0.017018 0.0788941 0.277156)
(-0.0588622 0.0390518 0.0982687)
(-0.0421974 0.0576099 0.143257)
(-0.0244385 0.0588318 0.205516)
(0.0809972 0.056406 0.147707)
(0.0953304 0.0574599 0.16805)
(0.0391372 0.0146913 0.193155)
(0.0247653 0.0033307 0.175059)
(0.081483 0.031617 0.223279)
(0.0311398 0.00468838 0.21435)
(0.0283984 0.00258514 0.20376)
(0.00463943 -0.0178615 0.0832036)
(0.00877276 -0.00613539 0.122484)
(0.00944201 -0.0337692 0.107821)
(-0.00451311 -0.0211889 0.0733456)
(0.00115792 -0.00353176 0.104916)
(-0.023399 0.00791539 0.0575057)
(0.0891148 -0.0400609 0.0517402)
(0.102058 -0.0528873 0.0326044)
(0.0763133 0.00117886 0.109667)
(0.104247 -0.0202388 0.0946243)
(0.101576 0.008106 0.136464)
(0.147801 -0.0176252 0.0913525)
(0.133575 -0.0413124 0.0794687)
(0.160204 -0.0206127 0.121835)
(0.0827292 0.0637031 0.149531)
(0.0800609 0.0641117 0.116162)
(0.168594 0.00844851 0.106595)
(0.190197 0.00601354 0.102263)
(0.336247 0.000695847 0.00171291)
(0 0 0)
(0 0 0)
(0.0729773 -0.0647101 0.0546758)
(0.049158 -0.0533379 0.0222021)
(0.103611 -0.029946 0.0863231)
(0.103744 -0.0500654 0.074769)
(0.123248 -0.00791158 0.142978)
(0.0756027 -0.056562 0.00959151)
(0.123619 -0.0469414 0.047242)
(0.0908832 -0.0435838 0.0395906)
(0.131246 -0.0100615 0.09367)
(0 0 0)
(0 0 0)
(0 0 0)
(0 0 0)
(0 0 0)
(0 0 0)
(0 0 0)
(0 0 0)
(0 0 0)
(0.0766859 -0.0483059 0.0922491)
(0.0699485 0.0623692 0.164126)
(0.123075 0.0208266 0.112791)
(0.0588106 -0.0309935 0.0604938)
(0.0395242 0.0406985 0.0967801)
(0.097549 0.0180572 0.0926305)
(-0.0727292 -0.0568534 -0.040364)
(0.00147019 -0.021979 -0.0190661)
(0 0 0)
(-0.0176202 -0.0917268 -0.182483)
(0.0355742 -0.0502065 -0.217508)
(0.102867 0.088296 0.0829343)
(0.0630655 0.0944968 0.0342509)
(0.0379121 0.0704943 0.074614)
(0.0877785 0.0707304 0.0565017)
(0.0596589 0.0801546 0.0130329)
(-0.00660688 0.0410808 0.074495)
(0.00570257 0.0996876 0.260144)
(-0.0448163 0.0303156 0.043377)
(-0.0162421 -0.0364905 -0.0670286)
(0.0466851 0.09872 0.256685)
(0.0586216 0.0872778 0.0191264)
(0.0515867 0.0799358 -0.00446529)
(0.0851374 0.0630045 0.0529994)
(0.0892871 0.0836825 0.0648807)
(0.106209 0.0837035 0.133035)
(0.0907887 0.0904408 0.0181385)
(0.101165 0.0667418 0.0326129)
(0.0941535 0.0942724 0.0511198)
(0.111846 0.100139 0.131447)
(-0.0315452 0.15059 0.262105)
(-0.107568 0.0793508 0.0929496)
(-0.0624944 0.159882 0.142934)
(-0.326241 0.202534 0.145818)
(-0.0563657 0.19574 0.231424)
(0 0 0)
(0 0 0)
(0.0758866 0.160131 0.249499)
(0.107998 0.0649724 0.184181)
(0.115086 0.0790039 0.202028)
(0.00875622 0.00564839 0.2393)
(0.0218277 0.00388196 0.262299)
(0.104357 0.0519317 0.302756)
(0.0408108 -0.010505 0.286569)
(0.0659169 -0.00973571 0.315547)
(0.0106441 -0.0268092 0.0585481)
(-0.0116244 0.00593801 0.100145)
(-0.0128326 -0.0452037 -0.181424)
(0 0 0)
(0.0552178 -0.0303274 0.143118)
(0 0 0)
(0.103823 -0.0567491 0.00934353)
(0.107418 -0.0641009 -0.0281134)
(0.217636 -0.0563391 0.0627238)
(0.148422 -0.0617299 0.0563625)
(0.205907 -0.0622674 0.0832956)
(0 0 0)
(0.146365 -0.0809443 0.0298261)
(0 0 0)
(0.320374 -0.0338625 0.031124)
(0 0 0)
(0 0 0)
(0 0 0)
(0 0 0)
(0 0 0)
(0 0 0)
(0.0390042 -0.0403478 -0.0204463)
(0.0380266 -0.0307685 -0.0721351)
(0.118898 -0.0513149 0.00619002)
(0.0893349 -0.0405392 -0.00950006)
(0.134594 -0.0206479 0.0514459)
(0.0683598 -0.0463407 -0.0722199)
(0.107643 -0.0554753 -0.0332023)
(0.076486 -0.035038 -0.0560397)
(0.11032 -0.0236192 0.0144081)
(0 0 0)
(0 0 0)
(0 0 0)
(0 0 0)
(0 0 0)
(0 0 0)
(0 0 0)
(0 0 0)
(0 0 0)
(0.0431543 -0.0207215 0.010297)
(0.0148727 0.0246147 0.0303867)
(0.0643509 0.0187259 0.0387066)
(0.0382313 -0.0121709 -0.043369)
(0.0111423 0.0168488 -0.0276925)
(0.048477 0.0179183 -0.018242)
(-0.0285849 0.0137039 -0.411097)