/*--------------------------------*- C++ -*----------------------------------*\
| =========                 |                                                 |
| \\      /  F ield         | OpenFOAM: The Open Source CFD Toolbox           |
|  \\    /   O peration     | Version:  5.x                                   |
|   \\  /    A nd           | Web:      www.OpenFOAM.org                      |
|    \\/     M anipulation  |                                                 |
\*---------------------------------------------------------------------------*/
FoamFile
{
    version     2.0;
    format      ascii;
    class       volVectorField;
    location    "4.3";
    object      U;
}
// * * * * * * * * * * * * * * * * * * * * * * * * * * * * * * * * * * * * * //

dimensions      [0 1 -1 0 0 0 0];

internalField   nonuniform List<vector> 
10571
(
(-0.496625 -0.0890298 1.79951)
(0.218674 -0.0435295 0.849833)
(0.228075 -0.159614 1.18563)
(-0.378586 -0.338875 1.8911)
(-0.0841771 -0.235777 1.24293)
(0.594662 0.3753 1.65415)
(1.18544 1.14771 3.38082)
(-1.26174 1.6395 4.30019)
(-1.29002 -0.175578 2.00151)
(-0.158124 -0.376424 1.07941)
(0.498994 0.389243 1.1367)
(1.88996 -0.152293 3.27844)
(1.10229 -1.7131 3.97852)
(-2.56796 -1.92567 4.70413)
(-1.48078 -0.853112 1.57713)
(-0.140378 -0.328135 1.07751)
(0.0379017 -0.630475 1.93595)
(0.272892 -2.55455 3.85356)
(-1.12391 -1.62441 2.05554)
(-0.514091 -0.597324 1.08172)
(-0.0193011 -0.157531 1.17403)
(-0.547869 -0.5246 1.49758)
(-0.451868 -0.234349 1.07107)
(-0.100024 -0.0986281 1.17176)
(0.185366 -0.3134 4.17104)
(0.133618 -0.0681243 0.30319)
(0.0950545 -0.980652 3.27797)
(-0.0538216 -0.528722 0.990939)
(0.235336 -1.44107 3.21298)
(-0.0338755 -0.485605 1.19078)
(-0.00534422 -0.428136 2.10787)
(0.164919 -0.160247 1.98881)
(0.0698042 -0.208505 0.917787)
(-0.0542349 -0.541486 1.39916)
(-0.0543342 -0.141953 0.764943)
(-0.0812641 -0.314425 2.63817)
(0.402688 0.189512 3.12453)
(-0.0967163 -0.0409063 3.20815)
(-0.0126582 0.0210158 0.637147)
(-0.145458 0.113791 0.75346)
(0.139327 0.19465 1.02525)
(-0.255791 -0.42721 2.06647)
(-0.0426541 -0.285519 1.06307)
(-0.00707112 -0.158501 0.787273)
(0.0653121 0.0598329 0.98384)
(-0.297112 -0.225218 0.757629)
(-0.0553078 -0.209711 0.581687)
(0.0820405 -0.118614 0.920508)
(0.504736 0.33381 3.17658)
(-0.0889639 0.121478 0.0487563)
(0.61198 -0.345906 3.35583)
(0.0124218 0.02771 1.119)
(-1.05394 0.179282 2.58247)
(0.461514 0.268322 1.53589)
(0.0244068 -0.285842 2.4537)
(0.0590502 -0.421437 4.73782)
(-0.0157078 0.115575 0.619486)
(-0.0801075 0.314145 0.813016)
(0.0419201 -0.153407 0.319244)
(-0.00566832 -0.323369 3.10857)
(0.0531258 -0.331941 5.39344)
(0.11251 -0.138719 4.10156)
(0.195806 0.129415 0.767531)
(0.0666099 0.294604 0.866506)
(0.31983 -0.339112 1.07642)
(-0.000912244 -0.563836 2.20078)
(0.128078 0.027751 0.561829)
(0.231985 0.0835004 0.86013)
(-0.05023 0.233883 1.57402)
(-0.250691 -0.117679 0.369081)
(0.150502 -0.122719 0.134604)
(0.499973 -0.107292 0.78026)
(0.0264918 0.131164 0.341364)
(-0.0142143 0.00587235 -0.255775)
(0.55932 0.16339 3.26946)
(0.227136 1.20133 2.18196)
(0.0451302 0.303079 0.64778)
(0.342352 -0.00611185 1.21323)
(0.261586 -0.680828 2.8309)
(-0.0323946 -0.536019 3.8854)
(0.367174 0.291916 0.667272)
(-0.0197856 0.15774 0.00214195)
(-0.00745354 -0.0939776 -0.229083)
(0.298542 -0.801517 1.83968)
(0.141889 -0.606791 4.37644)
(0.356637 0.156194 2.62592)
(0.906139 -0.139427 0.750018)
(-0.175921 -0.108641 0.536474)
(-0.187122 -0.0787191 0.269079)
(0.408666 0.0609559 0.946487)
(0.26741 0.307758 0.297279)
(0.351053 -0.0504278 0.597717)
(-0.0702955 0.309472 1.50155)
(0.0620039 0.00657592 -0.19126)
(0.197033 -0.0486143 -0.199644)
(0.214138 0.0642469 0.797444)
(0.0901844 0.045667 -0.124167)
(-0.0116497 -0.00262799 -0.240951)
(0.368789 -0.142578 2.91723)
(0.640199 0.493524 2.91885)
(0.285898 0.230051 0.186165)
(0.0412672 -0.240589 1.46167)
(0.0200032 -0.873042 2.99323)
(0.586699 -0.337869 3.15741)
(1.31052 0.0617165 1.20004)
(0.116815 -0.0267591 0.100805)
(-0.0052361 -0.046707 -0.161873)
(0.0361417 -0.876617 2.02993)
(0.121909 0.0420873 2.48198)
(0.836316 0.754636 2.20539)
(1.00997 0.238105 1.11732)
(-0.419443 -0.0651238 0.715662)
(-0.0413315 0.0393921 -0.184695)
(0.488461 0.607527 0.90659)
(0.443616 0.770665 0.731261)
(-0.23638 -0.121082 0.713562)
(-0.0748276 0.484138 1.73933)
(0.102127 0.0184138 -0.239512)
(0.110757 0.180428 0.048347)
(-0.114959 0.0534439 1.08524)
(0.0356792 0.0335781 -0.116686)
(-0.00561462 -0.00762646 -0.177084)
(0.458337 -0.865747 2.63188)
(0.945479 0.0273781 3.45703)
(0.481069 -0.0423868 0.373926)
(-0.256217 0.0932531 1.73063)
(0.118037 -0.224746 1.72588)
(0.284779 -0.010533 1.51302)
(1.08896 0.152028 1.18022)
(0.455904 -0.0386462 0.876496)
(-0.00816438 0.00472321 -0.00241952)
(-0.00553755 0.00557336 -0.139905)
(0.0999455 0.148398 2.33644)
(0.210036 0.412554 2.1005)
(0.483909 0.651772 1.54413)
(0.823735 0.317178 1.26664)
(-0.0107166 0.0681145 0.990345)
(-0.006819 -0.00274454 -0.00181033)
(0.0395976 0.00319052 -0.188162)
(0.155034 0.48343 0.949218)
(0.328119 0.663779 0.90027)
(-0.129527 0.126195 1.00286)
(-0.0136212 0.479521 1.83425)
(-0.0286874 0.00911197 0.0828732)
(-0.154587 0.357498 0.649937)
(-0.223352 0.183318 1.12206)
(-0.0853202 -0.0364786 0.030743)
(0.0189605 -0.0108868 -0.135446)
(0.0723389 -0.384943 2.01517)
(0.893711 -0.0173177 3.78366)
(0.658882 -0.378342 1.19497)
(-0.129032 0.0271146 1.38153)
(0.249099 -0.105056 2.07749)
(0.0682199 0.175772 1.91891)
(0.243885 0.474734 1.03626)
(0.398993 0.121485 1.04061)
(-0.103775 -0.134014 0.139114)
(0.000341065 0.0231135 -0.130329)
(0.252968 0.308553 1.46025)
(0.177031 0.271275 2.18695)
(0.109582 0.172053 1.60085)
(0.390727 0.195599 1.33332)
(0.402458 0.160865 1.18551)
(-0.0173278 0.0211886 0.0602405)
(-0.145084 0.0866912 0.229304)
(0.100406 0.0446115 0.988808)
(0.0111979 0.318653 1.01459)
(-0.264856 0.200073 1.25718)
(0.064658 0.456755 1.72956)
(-0.00846825 0.06938 0.18482)
(-0.308631 -0.0803371 0.278882)
(-0.268864 0.376397 0.936787)
(-0.223267 0.190129 1.30305)
(-0.0123529 -0.10718 0.627358)
(-0.0165884 0.0383392 -0.0641214)
(-0.107798 -0.240806 1.75853)
(0.606753 0.0441437 3.7899)
(0.726648 -0.140421 1.60791)
(0.071021 -0.0965212 1.09408)
(0.163286 -0.0852482 1.86456)
(-0.0182177 0.213544 1.57486)
(-0.0552015 0.157149 1.0196)
(-0.042211 0.217277 1.24085)
(0.0219835 -0.0668917 0.217084)
(0.0169642 0.0306881 -0.0822329)
(0.28197 0.369649 1.61919)
(0.136937 0.217653 1.96073)
(-0.117329 0.0587597 1.30279)
(0.0544036 0.0114713 1.27294)
(0.113847 0.0972227 1.24085)
(-0.117889 -0.069475 0.0445501)
(-0.353231 -0.235043 0.32946)
(-0.0627657 -0.0104984 0.967733)
(-0.279852 0.241061 1.06814)
(-0.3604 0.203769 1.29166)
(-0.10042 0.310842 1.52624)
(0.134655 0.0443567 0.270658)
(-0.555731 0.00530975 0.369672)
(-0.406732 0.286641 1.00317)
(-0.349568 0.178962 1.34896)
(0.0456964 -0.00960662 0.901365)
(-0.0584404 0.0834968 0.00593952)
(-0.184303 -0.204065 1.72928)
(0.456405 -0.106927 3.33884)
(0.382925 -0.124307 1.69523)
(0.202837 -0.0770499 0.704855)
(0.0556095 -0.143451 1.71301)
(-0.0889836 0.162237 1.52485)
(-0.165294 0.118766 1.04726)
(-0.163046 0.119803 1.35558)
(0.387146 0.286969 0.427704)
(-0.0615941 -0.381878 -0.022294)
(0.250511 0.327478 1.66603)
(0.0350748 0.189812 1.92837)
(-0.156592 0.0481492 1.34223)
(-0.17349 0.0809841 1.15997)
(-0.250553 -0.0058537 1.14262)
(-0.268117 0.083913 0.130708)
(-0.520062 -0.402563 0.448033)
(-0.253465 0.0378094 1.02223)
(-0.445024 0.201306 1.09238)
(-0.404493 0.202451 1.23111)
(-0.286942 0.243455 1.54674)
(-0.662546 -0.0560459 0.516821)
(-0.564261 0.15623 0.99148)
(-0.390331 0.169923 1.14364)
(0.0102798 0.00721369 1.03344)
(-0.0488452 0.0691182 0.100785)
(-0.25312 -0.195143 1.80698)
(0.349829 -0.14058 3.10978)
(0.20316 -0.139956 1.70151)
(0.108974 -0.0202748 0.40101)
(-0.0334419 -0.168489 1.68815)
(-0.138105 0.0529792 1.62031)
(-0.180092 0.14147 1.11948)
(-0.211665 0.198186 1.57248)
(-0.1007 -0.531964 0.285833)
(0.211484 0.22522 1.67417)
(-0.0331189 0.175728 1.99663)
(-0.22789 0.0157014 1.4324)
(-0.190781 0.139029 1.20094)
(-0.589317 0.0741083 1.13086)
(-0.581632 -0.454634 0.579761)
(-0.35125 0.0497026 1.13463)
(-0.510185 0.158953 1.12468)
(-0.359897 0.237571 1.20376)
(-0.170872 0.247585 1.4644)
(-0.680965 -0.158107 0.632302)
(-0.545079 0.0502279 0.921865)
(-0.339565 0.155752 0.856651)
(-0.074741 -0.0696846 1.20464)
(-0.128417 0.106131 0.315224)
(-0.185103 -0.125636 1.62242)
(0.253389 -0.0557274 3.06727)
(0.101846 -0.135825 1.68395)
(0.207139 -0.0193753 0.441358)
(-0.0771639 -0.215107 1.74373)
(-0.162797 0.0706998 1.61462)
(-0.193393 0.189831 1.08763)
(-0.00838172 0.309638 1.5235)
(-0.0778894 -0.49912 0.391302)
(0.18469 0.162443 1.65823)
(-0.079632 0.128091 2.06216)
(-0.289188 0.012991 1.48902)
(-0.218793 0.176102 1.1986)
(-0.262752 0.0782396 1.02414)
(-0.561746 -0.435154 0.730721)
(-0.383752 0.0414942 1.20661)
(-0.532666 0.138263 1.14788)
(-0.311132 0.249559 1.13873)
(-0.128836 -0.000583664 1.12324)
(-0.569111 -0.189452 0.690424)
(-0.409682 -0.0399124 0.793776)
(-0.293551 0.137707 0.687896)
(-0.158493 -0.140676 1.42719)
(-0.142973 0.0955398 0.372073)
(-0.164912 -0.0775509 1.66612)
(0.134514 -0.0541441 3.01238)
(-0.049075 -0.105656 1.46884)
(0.315667 -0.0571022 0.649585)
(-0.107168 -0.224763 1.79946)
(-0.191592 0.127891 1.56935)
(-0.280425 0.278607 1.02096)
(0.0891809 0.397615 1.3433)
(-0.0808942 -0.458442 0.469262)
(0.159364 0.138303 1.59574)
(-0.105934 0.097897 2.10682)
(-0.31808 0.0833877 1.50029)
(-0.288891 0.182703 1.17895)
(-0.232155 0.0902051 0.967588)
(-0.48969 -0.389747 0.878045)
(-0.385349 0.0415879 1.31093)
(-0.538788 0.156403 1.15389)
(-0.32261 0.19613 1.07921)
(0.0281698 -0.116289 0.804723)
(-0.443979 -0.20785 0.652532)
(-0.316378 -0.0276805 0.754874)
(-0.226691 0.103692 0.539364)
(-0.224063 -0.058242 1.48064)
(-0.210179 0.111064 0.576757)
(-0.195829 -0.0251794 1.70622)
(0.0706153 -0.0651613 3.04497)
(0.0718563 0.0368854 0.998056)
(0.275604 -0.0905359 0.869234)
(-0.168317 -0.191369 1.81537)
(-0.311583 0.27469 1.48469)
(-0.459807 0.240592 0.929094)
(0.0308365 0.306073 1.20031)
(-0.0714107 -0.438617 0.557815)
(0.121175 0.0885293 1.37747)
(-0.120454 0.122834 2.12829)
(-0.360011 0.227707 1.54212)
(-0.327316 0.139417 1.19688)
(-0.19743 0.0518163 0.984574)
(-0.374676 -0.315683 1.02478)
(-0.37624 0.0735692 1.45674)
(-0.523321 0.175236 1.17584)
(-0.286424 -0.0171154 0.894263)
(0.0436872 -0.0375419 0.607981)
(-0.340084 -0.119625 0.617294)
(-0.246232 0.0103556 0.726959)
(-0.0818925 0.0164263 0.480909)
(-0.320452 -0.0670295 1.34248)
(-0.28265 0.207354 0.836119)
(-0.19503 -0.000940479 1.79804)
(-0.0470566 -0.0589586 3.01703)
(-0.0639515 0.0572869 0.743685)
(0.233451 -0.082741 1.09244)
(-0.240244 -0.139206 1.86591)
(-0.377869 0.361199 1.50714)
(-0.49197 0.0530861 0.84333)
(-0.200611 -0.0377333 0.741757)
(-0.026807 -0.394124 0.620765)
(0.0624856 0.0299124 1.12016)
(-0.135453 0.164732 2.16952)
(-0.353404 0.28037 1.64308)
(-0.301667 -0.0361964 1.21849)
(-0.17606 0.0472623 0.871342)
(-0.302201 -0.256224 1.13648)
(-0.35203 0.108142 1.56087)
(-0.461307 0.158056 1.2074)
(-0.144185 -0.0178 0.699436)
(0.0107078 -0.0357147 0.4982)
(-0.131451 -0.026908 0.681268)
(-0.116288 0.0272969 0.671938)
(0.0768964 -0.0599533 0.461427)
(-0.309661 -0.0863156 1.38393)
(-0.3799 0.335103 1.09573)
(-0.249726 0.122725 1.87523)
(-0.327189 0.0223851 2.89704)
(-0.202453 0.0943697 0.610948)
(0.188184 -0.0540641 1.29711)
(-0.234665 -0.0478167 1.93027)
(-0.37009 0.373749 1.59923)
(-0.319334 -0.241647 0.837737)
(-0.122907 -0.103213 0.452531)
(-0.00877305 -0.30269 0.692064)
(0.0385343 -0.0443089 0.987423)
(-0.136492 0.192914 2.21064)
(-0.305335 0.254687 1.7604)
(-0.150853 -0.267709 1.07713)
(-0.0624625 -0.0329147 0.60726)
(-0.275674 -0.215057 1.22413)
(-0.316723 0.136244 1.63426)
(-0.298153 0.109587 1.20972)
(-0.122796 0.0432769 0.509848)
(-0.0322028 0.0169236 0.386186)
(0.0236138 -0.0115151 0.710211)
(0.0186993 0.023299 0.639034)
(0.167208 -0.0851391 0.456033)
(-0.406013 -0.0804347 1.23259)
(-0.42512 0.415574 1.31709)
(-0.377931 0.173164 2.04834)
(-0.33647 0.122517 2.58567)
(-0.221889 0.0590539 0.608067)
(0.170085 -0.000862126 1.48105)
(-0.179704 0.0292156 2.00038)
(-0.351414 0.408608 1.63738)
(-0.205061 -0.350117 0.759596)
(-0.0677122 -0.129683 0.358964)
(-0.0135197 -0.238841 0.792689)
(0.0270586 -0.127778 0.998821)
(-0.124363 0.204704 2.25439)
(-0.290933 0.248088 1.84358)
(-0.00465202 -0.219188 0.813306)
(0.0175156 -0.123923 0.43944)
(-0.284166 -0.222029 1.25008)
(-0.276686 0.151848 1.67184)
(-0.146362 0.0794614 1.19087)
(-0.0808873 -0.0336797 0.368021)
(-0.0185958 -0.0794022 0.245492)
(0.0644922 -0.0133962 0.690112)
(0.075882 0.0269819 0.618749)
(0.208829 -0.0968221 0.43763)
(-0.45934 -0.0777891 0.994863)
(-0.451697 0.431604 1.56196)
(-0.482536 0.176655 2.1691)
(-0.330395 0.274086 2.03668)
(-0.224204 -0.121863 0.645729)
(0.129694 0.0398515 1.63011)
(-0.164536 0.0516488 2.09958)
(-0.318212 0.461992 1.60437)
(-0.178411 -0.33464 0.654185)
(-0.0713548 -0.148772 0.340014)
(-0.0300438 -0.187733 0.926532)
(0.00699223 -0.199433 1.08974)
(-0.122099 0.199804 2.2963)
(-0.256699 0.232882 1.893)
(0.0497204 -0.178245 0.63166)
(0.0109738 -0.201568 0.387631)
(-0.301979 -0.241895 1.21268)
(-0.234788 0.137802 1.68823)
(-0.0785502 0.104247 1.17015)
(0.036393 -0.162031 0.281304)
(0.112047 -0.244443 0.166554)
(0.0485557 -0.0248991 0.68024)
(0.0859259 0.0339048 0.610554)
(0.217932 -0.0982959 0.412461)
(-0.432578 -0.101971 0.961798)
(-0.418881 0.412671 1.74294)
(-0.647378 0.191525 2.17374)
(-0.169642 -0.0224183 1.22582)
(-0.238575 -0.206439 0.54127)
(0.0836746 0.045668 1.78786)
(-0.199292 0.118541 2.18763)
(-0.287569 0.458579 1.59845)
(-0.139122 -0.275209 0.562529)
(-0.086066 -0.171129 0.31914)
(-0.0441089 -0.0968491 1.07209)
(-0.0166122 -0.239448 1.2021)
(-0.119259 0.20142 2.34053)
(-0.216255 0.168823 1.92634)
(0.0787234 -0.181504 0.539294)
(-0.0156808 -0.201314 0.366876)
(-0.266947 -0.232078 1.14026)
(-0.206155 0.114364 1.7261)
(-0.0517802 0.100239 1.08977)
(0.0840503 -0.16583 0.26038)
(0.0931796 -0.180565 0.111755)
(0.00282176 -0.0342943 0.682176)
(0.0864824 0.030709 0.609855)
(0.215133 -0.104278 0.386941)
(-0.285825 -0.0774421 1.06857)
(-0.442086 0.396425 1.95567)
(-0.712403 0.113293 2.06444)
(-0.376395 0.0303402 0.764132)
(-0.309716 -0.20664 0.412268)
(-0.0133726 0.0652905 1.98835)
(-0.17369 0.185557 2.3211)
(-0.289284 0.447788 1.57684)
(-0.040064 -0.228358 0.470403)
(-0.0834977 -0.189989 0.281977)
(-0.0416155 -0.0142204 1.17164)
(-0.0198165 -0.235447 1.31822)
(-0.0728059 0.195059 2.39304)
(-0.222327 0.111549 1.97296)
(0.123953 -0.197776 0.462973)
(-0.0227556 -0.161315 0.321531)
(-0.176837 -0.171302 1.11073)
(-0.191432 0.0885469 1.77876)
(-0.0103348 0.105902 1.04097)
(0.113529 -0.135333 0.237738)
(0.0731645 -0.124202 0.0991968)
(-0.00466532 -0.0371145 0.682569)
(0.0776598 0.0151173 0.591226)
(0.210853 -0.125645 0.32325)
(-0.147801 -0.11251 1.22554)
(-0.402137 0.337646 2.16455)
(-0.588652 0.0249179 1.70889)
(-0.441943 0.116068 0.577262)
(-0.31439 -0.15727 0.315626)
(-0.0922345 0.0991338 2.19346)
(-0.0824971 0.124993 2.47131)
(-0.3184 0.388718 1.4841)
(0.0628223 -0.194516 0.379832)
(-0.0670617 -0.197747 0.265827)
(-0.0207783 0.0691864 1.25238)
(0.00912071 -0.190558 1.42148)
(0.0196039 0.153317 2.49413)
(-0.219586 -0.0046306 2.05906)
(0.19162 -0.186379 0.391975)
(0.0307689 -0.119958 0.285768)
(-0.0883072 -0.0833077 1.15375)
(-0.191419 0.0545667 1.81592)
(0.017817 0.18819 0.984243)
(0.103496 -0.1311 0.173958)
(0.0607056 -0.0750519 0.139854)
(0.00166376 -0.0315421 0.683124)
(0.0573232 0.0091352 0.556012)
(0.219766 -0.10152 0.288076)
(0.0642092 -0.0275142 1.43052)
(-0.307085 0.242302 2.31563)
(-0.410375 0.0191142 1.40853)
(-0.389858 0.166868 0.461294)
(-0.286441 -0.0858152 0.25917)
(-0.1054 0.0858305 2.3327)
(-0.017644 0.00861549 2.52386)
(-0.326643 0.144255 1.45248)
(0.126178 -0.157706 0.268484)
(-0.0733572 -0.183219 0.277001)
(-0.0101295 0.136021 1.32885)
(0.0451665 -0.125344 1.50059)
(0.0282303 0.119862 2.56603)
(-0.208363 -0.247956 2.04432)
(0.258752 -0.0838592 0.344727)
(0.0900842 -0.0818951 0.288959)
(0.0328709 0.00978583 1.24528)
(-0.184776 0.0530602 1.83928)
(0.0207697 0.292332 0.820664)
(0.0665093 -0.112428 0.120051)
(0.0358365 -0.000436777 0.23877)
(0.00672271 -0.0127082 0.697113)
(0.0262677 0.0453613 0.54528)
(0.238931 -0.077694 0.324083)
(0.159116 -0.0370096 1.39045)
(-0.218362 0.1467 2.41299)
(-0.297016 0.0391638 1.24354)
(-0.299713 0.193367 0.445512)
(-0.232783 -0.0342136 0.223198)
(-0.0581819 0.0429667 2.36956)
(0.0346724 -0.0630558 2.55908)
(-0.271725 -0.186513 1.5275)
(0.0965241 -0.106982 0.168085)
(-0.103927 -0.12258 0.267054)
(-0.0125721 0.171281 1.37963)
(0.0836767 -0.0671242 1.56629)
(-0.00901278 0.0875034 2.56925)
(-0.203703 -0.47983 1.74801)
(0.240466 -0.0125464 0.271775)
(0.0591638 -0.0509547 0.320586)
(0.121409 0.0984309 1.35919)
(-0.141778 0.068064 1.85486)
(0.00464762 0.326286 0.631762)
(-0.0397296 -0.0728923 0.143127)
(-0.0234453 0.0774936 0.337722)
(0.0108883 0.0158772 0.7444)
(0.00645287 0.0465299 0.546387)
(0.242245 -0.0666076 0.390562)
(0.0804201 0.0517742 0.739497)
(-0.113063 0.0751293 2.49841)
(-0.195709 0.094779 1.26727)
(-0.21513 0.0610615 0.636516)
(-0.181416 0.00161065 0.222183)
(0.0450819 -0.0485891 2.27874)
(0.0484607 -0.0990577 2.59506)
(-0.216432 -0.331809 1.60575)
(0.0148511 -0.0601834 0.1131)
(-0.0965066 -0.0595109 0.174032)
(-0.0187781 0.188882 1.42383)
(0.113141 -0.0792225 1.60334)
(-0.106084 0.0279816 2.59265)
(-0.107194 -0.366508 1.50881)
(0.100155 -0.0350075 0.201364)
(-0.00348455 -0.0183968 0.355458)
(0.161405 0.183725 1.49671)
(-0.0427868 0.025136 1.86168)
(-0.0247953 0.329718 0.512774)
(-0.154407 0.0282332 0.173053)
(-0.0294945 0.0902494 0.386889)
(0.0379035 0.0431452 0.804153)
(0.000305612 0.0490292 0.558534)
(0.231634 -0.0567249 0.466635)
(-0.0973574 0.0166447 0.361452)
(-0.0685249 0.058092 2.57691)
(-0.158718 0.0767831 1.34876)
(-0.084222 -0.190079 0.90474)
(-0.133258 0.0188959 0.22176)
(0.137229 -0.0431919 2.14181)
(0.0389614 -0.113605 2.6261)
(-0.206505 -0.371105 1.58784)
(-0.0390866 -0.0814829 0.080244)
(-0.117068 -0.074002 0.0363626)
(-0.0141055 0.159097 1.43872)
(0.147616 -0.0583132 1.60472)
(-0.21557 0.0151282 2.6361)
(0.00461251 0.106105 1.15806)
(-0.0119691 -0.0560956 0.195825)
(-0.0814169 0.0688507 0.340465)
(0.150094 0.176609 1.64183)
(0.00281371 -0.0358697 1.80143)
(-0.0391719 0.331391 0.516542)
(-0.1669 0.00772127 0.194487)
(-0.0405894 0.106431 0.378714)
(0.107596 0.0706357 0.845869)
(0.0130251 0.083859 0.61242)
(0.230873 -0.0609146 0.567059)
(-0.218013 -0.0304242 0.509053)
(-0.0536678 0.0621547 2.64216)
(-0.153428 0.0471125 1.37965)
(-0.0674096 -0.341659 1.12118)
(-0.104728 0.00246123 0.259687)
(0.232881 0.0457914 2.08106)
(0.048363 -0.112069 2.68231)
(-0.187199 -0.339279 1.51525)
(-0.0792726 -0.135576 0.062495)
(-0.117011 -0.283337 -0.0758827)
(0.0201154 0.0165526 1.29166)
(0.14913 -0.0362819 1.642)
(-0.295895 0.0572138 2.5851)
(-0.0395905 0.346037 0.845592)
(-0.12703 -0.132275 0.204971)
(-0.10313 -0.112357 0.232724)
(0.054246 0.130219 1.7578)
(-0.0334251 -0.0462804 1.73951)
(-0.0542036 0.26401 0.593319)
(-0.0739942 -0.082804 0.277061)
(-0.137499 0.0457493 0.261466)
(0.20623 0.0807102 0.877767)
(0.0867045 0.0519369 0.7193)
(0.279117 -0.10681 0.638915)
(-0.299604 -0.0928624 0.724111)
(-0.0393011 0.0738019 2.70854)
(-0.136959 0.0885316 1.39167)
(-0.1879 -0.453566 1.18968)
(-0.163294 -0.0748459 0.418318)
(0.297197 0.0605132 2.09581)
(0.0140289 -0.0720869 2.77849)
(-0.0238699 -0.18621 1.2897)
(-0.11907 -0.120594 0.0849249)
(-0.0859063 -0.297921 -0.0453171)
(0.00626273 -0.15164 1.12374)
(0.0546851 -0.0131464 1.73759)
(-0.337671 0.126807 2.54407)
(-0.0414875 0.399216 0.662071)
(-0.126946 -0.154079 0.182921)
(0.0381835 -0.342688 -0.00803032)
(-0.0557563 0.0979771 1.8134)
(-0.0653366 -0.0379691 1.74266)
(-0.0094623 0.14089 0.673743)
(0.0884268 -0.152038 0.32326)
(0.144132 -0.286293 -0.0200519)
(0.295561 0.0703227 0.896665)
(0.198328 0.0164138 0.778543)
(0.360671 -0.172705 0.618763)
(-0.259643 -0.127129 1.07389)
(-0.0541665 0.0875445 2.80507)
(-0.156072 0.112863 1.46913)
(-0.285402 -0.538821 1.21218)
(-0.261655 -0.179348 0.633287)
(0.268544 0.058202 2.11327)
(-0.101315 -0.0173449 2.83022)
(0.0293075 -0.089528 0.901947)
(-0.211106 -0.125817 0.0916068)
(-0.0730425 -0.334302 -0.0538084)
(-0.0222614 -0.250785 1.11035)
(-0.0540992 -0.0427697 1.81592)
(-0.314359 0.177683 2.56156)
(0.0073532 0.289976 0.528514)
(-0.0486621 -0.134047 0.167275)
(0.0880054 -0.354291 -0.0639426)
(-0.122249 0.0345073 1.75951)
(-0.0653358 -0.00285238 1.75852)
(0.102751 0.0108162 0.715592)
(0.191985 -0.234068 0.356185)
(0.238084 -0.38712 -0.0644303)
(0.341384 0.0630478 0.891145)
(0.308115 0.0123984 0.779732)
(0.418382 -0.218377 0.52908)
(-0.206843 -0.113829 1.42446)
(-0.102886 0.106837 2.89196)
(-0.284907 0.105084 1.62925)
(-0.314237 -0.575068 1.23977)
(-0.28824 -0.252896 0.87148)
(0.0621737 0.0976027 2.25377)
(-0.156269 0.000134198 2.81129)
(-0.0717414 -0.0780042 0.641143)
(-0.305805 -0.096591 0.0541684)
(-0.0545507 -0.382046 -0.08909)
(-0.0289039 -0.274928 1.14868)
(-0.100383 -0.0942284 1.81505)
(-0.267497 0.236535 2.54081)
(0.0664741 0.125054 0.431382)
(0.00448585 -0.14363 0.191125)
(0.12578 -0.389278 -0.0538831)
(-0.160645 -0.0728438 1.64322)
(-0.00845374 0.093754 1.76672)
(0.224341 -0.072054 0.714903)
(0.260285 -0.27933 0.393834)
(0.282866 -0.43255 -0.0421983)
(0.339642 0.0778554 0.887248)
(0.398536 0.0084412 0.743527)
(0.440715 -0.234999 0.443936)
(-0.106266 -0.106334 1.73968)
(-0.144971 0.130741 2.94614)
(-0.30243 0.0427934 1.75385)
(-0.24463 -0.568941 1.24805)
(-0.168973 -0.168488 1.15241)
(-0.119115 0.148102 2.45132)
(-0.184098 0.0177731 2.76133)
(-0.161463 -0.0204546 0.503707)
(-0.366983 -0.0279167 0.0118271)
(-0.043996 -0.398715 -0.117505)
(-0.0226829 -0.210665 1.17577)
(-0.112395 -0.102303 1.77779)
(-0.216535 0.259051 2.47055)
(0.0917925 0.0555261 0.365008)
(0.0445062 -0.155687 0.234058)
(0.148985 -0.423706 -0.0185472)
(-0.170805 -0.114629 1.58899)
(0.102149 0.205942 1.72428)
(0.302865 -0.099672 0.688169)
(0.316174 -0.282338 0.421827)
(0.306512 -0.457214 0.00538372)
(0.2945 0.11518 0.890611)
(0.452493 -0.0109755 0.696545)
(0.437156 -0.227833 0.386943)
(0.0184981 -0.0664383 2.02787)
(-0.143878 0.123677 2.94694)
(-0.167202 0.0152317 1.85958)
(0.061522 -0.351833 1.23458)
(-0.1051 -0.0348027 1.25699)
(-0.197846 0.127802 2.59344)
(-0.200858 0.0143793 2.63691)
(-0.189315 0.135957 0.490565)
(-0.39146 0.0398347 -0.00181266)
(-0.0654459 -0.385308 -0.121681)
(-0.0140588 -0.122137 1.23022)
(-0.099406 -0.0550161 1.77942)
(-0.164692 0.18863 2.42545)
(0.0841071 0.0918024 0.346707)
(0.0920568 -0.154128 0.297096)
(0.160815 -0.451813 0.0107131)
(-0.157383 -0.0629798 1.60622)
(0.208094 0.295467 1.59954)
(0.326431 -0.0960421 0.676184)
(0.356355 -0.258757 0.460963)
(0.312631 -0.458925 0.062506)
(0.242581 0.146049 0.893578)
(0.446356 -0.0348733 0.679675)
(0.420256 -0.20798 0.351812)
(0.0453454 -0.0520467 1.9971)
(-0.11828 0.099101 2.90319)
(-0.0417125 0.100881 1.92265)
(0.319739 0.00749294 1.34232)
(-0.0571224 0.102854 1.13125)
(-0.190737 0.0651566 2.65737)
(-0.161491 -0.0491871 2.53312)
(-0.170117 0.321372 0.519078)
(-0.364441 0.0735236 0.0244471)
(-0.084325 -0.375269 -0.0987455)
(-0.00457366 -0.0824344 1.33917)
(-0.0961139 0.0262308 1.85593)
(-0.0806885 -0.03354 2.26717)
(0.0604335 0.196862 0.390731)
(0.141879 -0.142708 0.365364)
(0.164423 -0.463924 0.046172)
(-0.154922 0.0461852 1.65747)
(0.25303 0.319525 1.41464)
(0.306636 -0.0730842 0.6883)
(0.371218 -0.222391 0.52076)
(0.308611 -0.447442 0.119229)
(0.219633 0.136792 0.91545)
(0.381022 -0.07323 0.689457)
(0.401216 -0.181018 0.334445)
(0.134006 -0.0522846 1.9729)
(-0.0867606 0.0651174 2.80203)
(0.0764258 0.0711084 1.93576)
(0.387716 0.127172 1.51343)
(-0.070738 0.296967 0.782988)
(-0.124218 0.0155897 2.66385)
(-0.0456119 -0.1927 2.54489)
(-0.140966 0.466258 0.579151)
(-0.301248 0.0363287 0.0771355)
(-0.0946401 -0.38122 -0.0560892)
(-0.010586 -0.120901 1.51318)
(-0.188402 -0.06498 1.95277)
(-0.0462459 -0.0462111 2.0407)
(0.0254589 0.293128 0.460039)
(0.182261 -0.145097 0.41356)
(0.159893 -0.464578 0.0915061)
(-0.142186 0.1306 1.71251)
(0.202986 0.262174 1.26383)
(0.266938 -0.00682159 0.742692)
(0.375223 -0.184908 0.588258)
(0.301999 -0.433441 0.168408)
(0.196137 0.107782 0.93821)
(0.318019 -0.0816447 0.694256)
(0.383328 -0.161861 0.338998)
(0.166085 -0.00214585 1.93354)
(-0.0681053 0.0641008 2.70659)
(0.0881789 -0.0885512 1.95512)
(0.408322 0.106484 1.65435)
(-0.163764 0.188298 0.334435)
(-0.0451852 -0.0336234 2.64426)
(0.072281 -0.37034 2.51014)
(-0.106342 0.574082 0.641151)
(-0.236252 -0.00250335 0.126124)
(-0.10609 -0.393157 -0.00677334)
(-0.028057 -0.18306 1.78308)
(-0.294163 -0.205929 1.99634)
(-0.0478884 0.15839 1.73683)
(-0.016124 0.372255 0.523959)
(0.206153 -0.147488 0.436192)
(0.147753 -0.460118 0.136378)
(-0.0929199 0.143397 1.78121)
(0.105289 0.191455 1.18325)
(0.240505 0.0602162 0.785056)
(0.37678 -0.151814 0.646139)
(0.293857 -0.420152 0.212484)
(0.165978 0.112323 0.962095)
(0.27225 -0.0615912 0.700423)
(0.367048 -0.148686 0.359076)
(0.247226 0.0535331 1.70748)
(0.0301567 0.0931661 2.5626)
(0.062984 -0.210872 2.05293)
(0.393786 0.103425 1.73609)
(-0.123457 0.178204 0.191439)
(0.00455752 -0.101721 2.64091)
(0.0923 -0.428588 2.36583)
(-0.0683326 0.66487 0.686693)
(-0.160082 -0.0139924 0.17677)
(-0.114309 -0.402688 0.0401714)
(-0.0313687 -0.199802 2.12554)
(-0.3348 -0.229559 1.94863)
(-0.0478189 0.300089 1.43366)
(-0.0490117 0.4492 0.584505)
(0.220616 -0.137608 0.446176)
(0.130235 -0.449043 0.1743)
(-0.0451631 0.0724165 1.85763)
(0.0270716 0.126351 1.14926)
(0.225158 0.0940973 0.827579)
(0.368817 -0.123282 0.695064)
(0.285075 -0.410306 0.249887)
(0.128536 0.117935 0.982705)
(0.242742 -0.0338147 0.714692)
(0.350498 -0.141038 0.387928)
(0.361889 0.01699 1.59854)
(0.0365474 0.0876274 2.34324)
(0.0294443 -0.252381 2.17458)
(0.367271 0.0509574 1.77799)
(-0.0652426 0.249989 0.208832)
(0.0103279 -0.132173 2.70874)
(0.0709611 -0.297234 2.18269)
(-0.0615215 0.762594 0.70597)
(-0.0598298 -0.0337512 0.237337)
(-0.124877 -0.408466 0.0983102)
(-0.00655571 -0.13403 2.41742)
(-0.246103 -0.120975 1.86903)
(-0.036911 0.342622 1.23216)
(-0.0696737 0.509019 0.65668)
(0.241552 -0.128123 0.454305)
(0.118377 -0.432657 0.207603)
(-0.0275396 0.0302258 1.9032)
(-0.00264363 0.0736752 1.12498)
(0.230126 0.0825987 0.886685)
(0.352676 -0.100898 0.736665)
(0.275798 -0.401033 0.284062)
(0.110644 0.121522 0.987529)
(0.229809 -0.00907693 0.737119)
(0.334549 -0.13759 0.416406)
(0.380813 0.0107911 1.54801)
(-0.0887626 0.0809808 2.26206)
(-0.0385769 -0.181284 2.21953)
(0.215158 0.0665498 1.74011)
(-0.0535298 0.215426 0.333698)
(0.035298 -0.0612334 2.77845)
(-0.0237412 0.137611 1.83493)
(-0.121925 0.802935 0.749632)
(0.0417565 -0.0883313 0.295693)
(-0.141555 -0.411205 0.175098)
(0.00570156 0.029394 2.5526)
(-0.121227 0.072737 1.84525)
(-0.0248146 0.337354 1.14865)
(-0.0406373 0.504444 0.746959)
(0.277478 -0.137108 0.459973)
(0.119949 -0.416932 0.245618)
(-0.00337421 0.0638164 1.91675)
(0.0100948 0.0548451 1.10145)
(0.249383 0.0453493 0.951102)
(0.340358 -0.0870834 0.768378)
(0.267195 -0.388339 0.322962)
(0.125402 0.128976 0.977002)
(0.234858 0.010103 0.765973)
(0.319894 -0.134425 0.445032)
(-0.0350577 -0.0272103 1.30989)
(-0.170498 0.065888 2.329)
(-0.0871952 -0.149599 2.23775)
(-0.153079 0.451533 1.26949)
(-0.156628 0.0225741 0.479861)
(0.022613 0.0103048 2.85397)
(-0.0999724 0.454157 1.63887)
(-0.156312 0.711429 0.796603)
(0.0922891 -0.164706 0.334672)
(-0.163236 -0.412058 0.257317)
(0.00293328 0.167976 2.60508)
(-0.0966632 0.177296 1.83407)
(-0.0162093 0.334369 1.14445)
(0.107208 0.369388 0.866538)
(0.323697 -0.160034 0.470235)
(0.139215 -0.404484 0.300634)
(0.0683287 0.217998 1.94666)
(0.0522847 0.0522753 1.09113)
(0.269545 0.0229899 0.998712)
(0.32547 -0.0611696 0.791004)
(0.26285 -0.381287 0.371512)
(0.17933 0.147474 0.971423)
(0.255161 0.0193 0.798653)
(0.311813 -0.132566 0.479995)
(-0.249824 -0.00111791 1.25869)
(-0.192184 0.0841177 2.43946)
(-0.104544 -0.0791834 2.31091)
(-0.34227 0.455722 0.967721)
(-0.25361 -0.154664 0.46151)
(0.0221674 0.118825 2.92139)
(-0.0676024 0.589797 1.58148)
(0.0310892 0.366758 0.850023)
(0.132085 -0.215325 0.386728)
(-0.170417 -0.400064 0.331583)
(-0.00435698 0.256582 2.61924)
(-0.133528 0.311029 1.85347)
(0.00343511 0.357087 1.1475)
(0.323794 0.183243 0.908159)
(0.334603 -0.168393 0.498258)
(0.170028 -0.386831 0.387921)
(0.0858055 0.359191 2.01386)
(0.0881258 0.0873685 1.10224)
(0.305013 0.0385519 1.02224)
(0.323766 -0.0315645 0.797842)
(0.265835 -0.390158 0.440909)
(0.232015 0.159572 0.985849)
(0.292019 0.0172949 0.844508)
(0.318503 -0.13715 0.533416)
(-0.416088 0.0943294 0.742626)
(-0.212556 0.128617 2.53479)
(-0.120047 0.139457 2.41017)
(-0.405505 0.360015 0.827209)
(-0.267008 -0.263702 0.435033)
(0.00606901 0.140423 2.86799)
(0.0217091 0.588216 1.52677)
(0.331196 -0.0194635 0.848098)
(0.195867 -0.236542 0.483635)
(-0.14515 -0.348944 0.436859)
(-0.0114965 0.342116 2.63204)
(-0.203914 0.373436 1.90676)
(0.0820159 0.382995 1.13662)
(0.438736 0.0448773 0.823723)
(0.315309 -0.176405 0.561555)
(0.195321 -0.372563 0.504387)
(0.166032 0.366352 2.15806)
(0.155284 0.177514 1.13564)
(0.390313 0.0528536 1.01839)
(0.363536 -0.0357223 0.792082)
(0.276166 -0.410519 0.551042)
(0.289551 0.185544 1.02745)
(0.350285 0.00462055 0.910305)
(0.347163 -0.145633 0.619401)
(-0.495633 -0.0142932 0.481332)
(-0.192239 0.102083 2.62596)
(-0.120824 0.309418 2.48129)
(-0.325313 0.214121 0.798383)
(-0.181101 -0.32083 0.469817)
(-0.0593377 0.0888067 2.76456)
(0.165589 0.410307 1.35408)
(0.445415 -0.18416 0.786955)
(0.255391 -0.227769 0.619377)
(-0.105192 -0.274417 0.587304)
(0.00199462 0.397418 2.71716)
(-0.188724 0.325066 1.89398)
(0.2257 0.325546 1.09466)
(0.481537 -0.0963338 0.723904)
(0.307892 -0.199568 0.64986)
(0.194239 -0.386038 0.664284)
(0.245482 0.322179 2.22797)
(0.333741 0.2284 1.1483)
(0.517357 0.0235499 0.986153)
(0.440991 -0.0973826 0.81665)
(0.29227 -0.436186 0.705569)
(0.364443 0.198851 1.09067)