/*--------------------------------*- C++ -*----------------------------------*\
| =========                 |                                                 |
| \\      /  F ield         | OpenFOAM: The Open Source CFD Toolbox           |
|  \\    /   O peration     | Version:  5.x                                   |
|   \\  /    A nd           | Web:      www.OpenFOAM.org                      |
|    \\/     M anipulation  |                                                 |
\*---------------------------------------------------------------------------*/
FoamFile
{
    version     2.0;
    format      ascii;
    class       surfaceScalarField;
    location    "7";
    object      phi;
}
// * * * * * * * * * * * * * * * * * * * * * * * * * * * * * * * * * * * * * //

dimensions      [0 3 -1 0 0 0 0];

internalField   nonuniform List<scalar> 
29271
(
-6.35865e-06
1.22734e-06
1.31225e-06
3.91183e-06
-8.93786e-06
-4.25908e-06
7.14786e-06
6.19065e-06
-2.31048e-05
-8.11324e-06
5.77896e-06
-4.12037e-06
1.0032e-05
1.95274e-05
-2.553e-05
-7.1449e-06
-1.17161e-07
2.08305e-06
1.57819e-05
1.49272e-05
-2.28718e-05
-6.30539e-06
1.28203e-05
6.82854e-06
1.36984e-05
-4.1701e-06
-2.82857e-05
-9.66907e-06
-3.71058e-06
1.44269e-06
7.66766e-06
3.2555e-05
-2.28668e-05
-1.4156e-05
9.16998e-06
-9.11463e-06
1.10688e-05
2.58986e-05
-2.63687e-05
-1.8483e-05
-1.36873e-06
1.03401e-05
5.54766e-06
3.03326e-05
-2.62075e-05
-7.67681e-06
-7.28141e-06
8.42115e-06
3.92782e-06
2.88167e-05
-2.36438e-05
-6.2251e-06
1.49325e-05
2.57055e-05
-1.0761e-05
-7.26311e-06
-2.20576e-06
3.85167e-06
5.64116e-06
-2.69439e-05
-4.91337e-06
-4.5724e-06
3.7486e-06
2.94984e-06
2.97312e-05
-2.60615e-05
-1.24248e-05
1.1206e-06
-6.55787e-06
1.12724e-05
3.26512e-05
-1.76916e-05
-3.47305e-06
7.5004e-06
-6.92273e-07
4.16845e-06
1.01881e-05
-2.88958e-05
-4.96473e-06
1.86288e-07
4.51169e-06
1.65372e-06
2.75089e-05
-2.57518e-05
-3.52687e-06
2.46814e-06
-4.70522e-06
3.88134e-05
-7.29766e-06
-2.29811e-05
-5.31606e-06
7.00874e-06
2.23595e-06
2.18483e-05
-2.79586e-06
-2.72307e-05
-1.03421e-05
-7.3462e-06
1.02273e-05
4.52364e-06
3.01681e-05
-2.42709e-05
-4.89865e-06
3.56453e-06
-8.8059e-06
1.98598e-06
3.24249e-05
-2.06262e-05
-1.58639e-06
1.49729e-06
1.62656e-05
-5.51053e-07
5.00068e-06
-1.0661e-05
2.2667e-06
-1.80432e-06
1.02273e-05
-2.19459e-05
-3.54375e-06
5.05679e-06
2.07202e-05
-2.83111e-07
-2.78846e-05
1.71686e-06
-8.94886e-06
3.45132e-06
3.24195e-05
-7.54241e-07
-1.04167e-05
-4.58997e-06
5.85203e-06
9.16633e-06
-3.32852e-06
8.51874e-08
5.39997e-07
2.79307e-06
-5.40341e-06
6.66137e-07
2.791e-07
4.51563e-06
-2.49895e-06
-1.7936e-06
-1.61335e-05
-1.04514e-06
9.59412e-07
2.05118e-05
1.90619e-07
-1.30313e-05
1.07328e-06
-1.53108e-06
-4.39892e-07
1.37383e-05
-1.13726e-05
9.97685e-07
-2.53902e-06
-9.69752e-07
1.27617e-05
1.12193e-06
1.50291e-07
-3.15529e-06
-3.07032e-05
9.31417e-06
1.43744e-06
2.29566e-05
-5.8196e-06
6.83755e-06
5.60721e-05
-2.12215e-05
-6.0896e-06
-1.9829e-05
-6.81851e-06
3.05442e-07
1.73411e-08
2.45225e-06
1.46429e-06
-2.97709e-06
-2.82786e-06
-1.20578e-07
-1.44527e-06
-3.73697e-06
8.6642e-06
8.40104e-05
-2.69381e-05
-3.7467e-05
-1.02429e-05
-2.35218e-05
-2.95044e-07
2.5551e-07
1.77821e-06
1.67392e-06
-2.39179e-06
1.06142e-06
8.67523e-05
1.34688e-08
-2.72038e-07
8.5269e-07
7.38852e-07
-1.02458e-06
-2.17344e-06
-2.41808e-06
-3.04159e-05
-1.92016e-05
-1.9279e-05
-1.59792e-05
-2.66917e-05
-6.49297e-06
6.57164e-06
2.42886e-05
-2.24237e-06
-3.48198e-07
1.35163e-06
1.2564e-06
-3.77689e-06
-3.22915e-05
-3.67646e-06
7.65914e-06
2.6956e-06
2.93901e-05
8.38756e-06
4.02606e-06
0.000167083
-3.59882e-05
-1.86426e-05
-3.96913e-05
-4.9674e-05
-8.94826e-06
-8.50792e-06
-6.06615e-06
-5.14038e-06
-7.6027e-06
-1.1378e-05
0.000130547
-1.12577e-05
-3.28015e-05
-1.95217e-05
-3.09334e-05
-2.63165e-06
-2.70473e-06
9.52151e-05
-3.80669e-06
-5.34499e-06
-3.6333e-06
-5.18208e-08
-3.04848e-07
1.00347e-07
-2.31633e-05
-2.27865e-05
-1.90972e-05
-1.83316e-05
-4.39091e-05
-2.36447e-06
9.8229e-07
3.58416e-06
3.90755e-05
-2.23887e-05
-3.71642e-06
6.47288e-06
3.23591e-06
1.86461e-05
-2.2498e-06
1.08616e-05
-1.20857e-06
0.000170443
-4.96944e-06
-2.35918e-06
-2.23748e-06
-1.05003e-06
-1.6634e-06
5.02417e-08
-7.40154e-07
-2.92501e-05
-5.54743e-05
-3.00975e-05
-4.8279e-05
-3.35691e-06
-5.51667e-06
0.000142074
-1.28685e-06
-3.1432e-08
7.41263e-07
-4.92819e-06
-4.75237e-06
-2.51198e-06
-3.71121e-05
-2.40917e-05
-3.8918e-05
-2.08254e-05
-1.84095e-05
-2.38483e-06
-1.76428e-06
1.6497e-05
-8.04424e-06
-6.47959e-07
1.97023e-06
6.73231e-06
-1.99235e-05
1.05792e-06
-1.40439e-06
1.90656e-05
-3.09393e-05
9.23863e-07
1.49935e-06
-5.39282e-07
2.35387e-05
-5.9628e-06
1.68353e-06
-4.02366e-07
4.68995e-06
-2.2547e-06
-3.99578e-07
6.23008e-07
2.05742e-06
-4.12713e-06
1.44392e-06
-1.21626e-06
3.97903e-06
-6.43862e-07
-5.6793e-06
-2.66395e-05
3.29662e-06
-5.06877e-06
3.47348e-05
1.52102e-06
-1.73068e-05
-7.51306e-07
3.16978e-07
-5.22686e-06
2.1447e-05
-1.39865e-05
6.96118e-07
-1.74593e-06
-1.22801e-06
1.58607e-05
4.03637e-07
2.47068e-06
5.11336e-07
-2.02488e-05
2.09743e-06
-2.1618e-06
1.73312e-05
6.92932e-06
-2.60489e-05
7.51373e-05
7.18914e-06
3.64565e-06
1.05556e-05
4.52516e-06
-9.19811e-06
-7.76296e-06
-4.66505e-06
-4.23506e-06
3.96843e-06
-1.43944e-05
8.84264e-05
2.68334e-06
1.87052e-06
3.66104e-06
4.72449e-06
-4.51856e-06
-1.54685e-06
9.99312e-05
5.81133e-07
5.93335e-07
3.71975e-06
1.61051e-06
-5.73119e-06
-1.64137e-06
-2.27721e-06
-2.26493e-05
1.22097e-06
-3.59003e-06
2.06854e-05
-1.03037e-06
-2.79587e-08
-2.53225e-07
1.32194e-06
4.67431e-07
-2.77341e-05
1.77193e-06
1.58668e-06
-9.41404e-07
2.48495e-05
3.40137e-05
-2.48277e-05
0.000147417
-5.83025e-06
-6.11566e-06
-2.64262e-06
-9.8066e-07
2.00012e-05
-1.35886e-05
0.000143753
-5.68606e-06
-1.91969e-06
0.000125888
-3.18877e-06
-1.67079e-06
-3.69972e-07
-2.98743e-07
1.18426e-07
7.97026e-07
-3.25426e-05
6.88185e-07
-6.92659e-06
3.63678e-06
2.94581e-05
-1.40011e-05
3.78639e-07
2.4446e-06
-8.92448e-07
1.04389e-05
1.63139e-06
1.58876e-05
-1.55874e-06
0.00014005
-2.99577e-06
-1.51532e-06
1.37456e-06
-1.66078e-07
-2.58404e-06
-1.25305e-06
-1.62325e-06
1.55217e-06
-2.52998e-06
0.000138621
2.05074e-06
3.8707e-06
3.2802e-06
-4.87517e-07
-1.41155e-06
-5.73111e-07
-1.54469e-05
9.37241e-07
-6.11511e-07
1.47536e-05
-7.80244e-06
-2.34717e-06
3.57892e-07
9.80034e-06
-2.04097e-05
2.05151e-06
-4.37312e-06
2.11736e-05
-1.80957e-05
2.16334e-07
1.9333e-06
-1.3361e-06
1.47522e-05
-4.79642e-06
-1.94595e-07
-5.56688e-07
5.52426e-06
-2.46007e-06
-6.32304e-07
-9.97676e-07
4.02567e-06
-4.02605e-06
9.48419e-07
-1.27086e-06
4.30918e-06
3.23558e-06
-3.82205e-06
-4.63416e-05
5.77584e-06
-1.14857e-05
5.26379e-05
5.0442e-06
-2.23959e-05
-4.53498e-06
5.18072e-06
-3.65183e-06
2.03577e-05
-2.36539e-05
-2.53509e-06
2.48237e-06
1.81223e-06
2.50301e-05
-3.13575e-06
3.04023e-06
3.08535e-06
-1.78711e-05
-2.21742e-06
-2.56697e-06
1.65299e-05
6.49263e-06
-2.14174e-05
8.61551e-05
6.04431e-06
1.86017e-06
5.12688e-06
2.20929e-06
-4.71375e-06
-4.93062e-06
-6.2386e-07
-1.06549e-06
2.36201e-06
-1.22417e-05
9.44088e-05
1.91639e-06
4.1105e-06
1.26051e-06
3.10242e-06
-8.1317e-07
4.02132e-06
0.000139712
-2.5173e-06
-3.79847e-06
-1.09105e-05
-9.68177e-06
-1.41349e-06
-7.62354e-06
-4.68154e-06
-1.98794e-05
5.02537e-07
-2.70841e-06
2.13116e-05
-2.16377e-06
3.10801e-07
-1.79236e-06
3.55586e-06
5.38962e-06
-2.25572e-05
1.54481e-06
-2.94512e-06
-4.40716e-07
1.90086e-05
2.70522e-05
-8.04617e-06
0.00011018
-1.66379e-06
-1.86235e-06
-1.19726e-08
3.52041e-07
2.99239e-05
-2.70158e-06
0.000131342
1.88065e-06
5.72929e-07
0.000159306
2.69938e-06
8.52619e-07
-6.86115e-07
4.9834e-07
-2.63159e-08
-5.26462e-06
-3.17495e-05
-1.71211e-07
-2.99651e-06
4.31555e-06
3.24823e-05
-1.06082e-05
2.37691e-06
-4.69801e-06
-4.11935e-07
1.34507e-05
-1.09489e-07
2.44305e-05
-1.17618e-06
0.000107101
7.254e-07
4.10754e-07
1.2107e-06
4.29747e-07
-5.73226e-07
-4.86933e-07
-6.78529e-08
4.06067e-06
-1.74368e-06
0.000113198
3.60811e-06
2.30339e-05
1.95302e-05
-9.22853e-07
-7.09146e-07
2.95039e-07
-1.70538e-05
1.9845e-06
1.99885e-07
1.9503e-05
-1.07104e-05
-2.05379e-06
-5.61902e-08
1.28211e-05
-2.00463e-05
9.7183e-07
2.60366e-07
1.76699e-05
-1.41296e-05
-2.42423e-06
3.70518e-06
-2.40793e-06
1.35129e-05
-6.46917e-06
3.45441e-07
-2.63826e-06
8.61818e-06
-4.24184e-06
-9.04203e-07
2.35921e-06
2.78683e-06
-4.97059e-06
-2.00184e-06
-2.65793e-08
6.8228e-06
5.94599e-06
-4.06156e-07
-5.11912e-05
3.79488e-06
-5.0648e-06
4.69213e-05
-3.09389e-06
-1.94902e-05
-2.09781e-06
1.59636e-06
1.3551e-06
2.17305e-05
-2.28219e-05
-2.587e-06
6.47173e-07
6.53472e-06
2.02356e-05
-2.00859e-06
3.14423e-07
4.30399e-06
-1.58511e-05
-1.93181e-06
-3.20246e-07
1.34847e-05
-9.13519e-06
-4.90335e-06
9.19539e-05
3.20134e-06
1.40694e-06
8.13527e-07
-1.98152e-06
2.11126e-06
1.8914e-06
-1.82492e-07
9.79324e-07
-2.60811e-05
1.11203e-05
0.000119405
-2.7811e-06
-2.70267e-06
-6.94205e-06
-6.74443e-06
-6.23068e-06
8.34077e-06
0.000138922
-8.10097e-06
-5.04691e-06
-2.14626e-06
1.40681e-08
-5.55783e-06
-3.44545e-06
-3.11799e-06
-1.6954e-05
-2.66719e-06
-1.51389e-06
1.49052e-05
-5.30847e-06
1.22044e-07
-2.1121e-06
6.89455e-06
2.73051e-06
-1.636e-05
3.56378e-07
-2.89692e-06
1.96264e-07
1.59737e-05
6.23952e-06
-4.65285e-08
9.55695e-05
4.88576e-07
4.76237e-07
1.29391e-06
1.25512e-06
8.77169e-06
2.94844e-06
0.000136981
-2.95764e-06
-1.31845e-06
0.000195035
-4.57607e-06
-1.51128e-06
-2.88563e-06
-3.85133e-06
7.77569e-07
-2.2933e-06
-3.00604e-05
4.34909e-07
-1.90691e-06
3.23475e-06
2.534e-05
-1.62665e-05
2.66939e-06
-3.9043e-06
-1.88934e-07
1.80259e-05
-3.35509e-07
7.60691e-06
-3.79282e-07
9.47002e-05
5.12394e-07
7.72706e-07
1.16605e-06
1.15693e-06
3.06483e-07
2.36533e-07
9.75303e-07
1.34891e-05
7.85896e-07
9.91587e-05
1.15541e-05
3.41054e-06
3.51474e-06
1.43343e-07
-4.05148e-06
-4.25155e-06
-2.92534e-05
1.15547e-05
3.56054e-07
2.95133e-05
-1.53923e-05
3.22654e-07
-3.07047e-06
1.81401e-05
-1.47238e-05
9.30647e-07
1.06898e-06
1.23246e-05
-1.33477e-05
-1.25389e-06
3.15629e-06
-4.29369e-07
1.26605e-05
-1.20322e-05
-7.94902e-07
-2.18447e-06
1.50115e-05
-1.37361e-06
8.96327e-07
-4.68048e-07
9.45335e-07
-7.05944e-06
-1.22527e-06
3.56174e-06
4.72491e-06
-1.70301e-06
-7.2027e-07
-4.3703e-05
2.99612e-06
-8.58508e-07
4.39886e-05
-3.28754e-06
-2.32113e-05
-1.42908e-06
-2.4996e-06
5.96071e-06
2.44668e-05
-1.75331e-05
5.3383e-07
-2.67576e-07
2.47868e-07
1.39117e-05
3.10726e-06
-4.42075e-06
2.32867e-06
-1.06553e-05
5.4462e-07
3.90024e-06
8.30253e-06
-1.82006e-05
1.87638e-05
0.00010215
-3.90231e-07
-3.59304e-06
-1.36727e-07
-2.14866e-06
-1.4063e-06
-1.25684e-06
-1.07086e-06
-7.56345e-07
-2.46384e-05
1.77138e-05
0.00012489
-5.77543e-06
-5.51195e-06
-3.20326e-06
-2.27061e-06
-1.32136e-06
6.03413e-06
0.000116055
-6.66778e-07
-5.78696e-07
1.3057e-07
-1.24578e-06
-2.69005e-06
-4.96484e-07
-9.37304e-07
-1.42196e-05
-1.7278e-06
1.73132e-06
-2.23011e-07
1.31177e-05
-4.80142e-08
-3.79058e-09
4.68885e-09
3.93317e-08
-9.69314e-06
-1.13342e-06
-3.13473e-07
1.114e-05
1.00524e-06
-1.66185e-05
-3.48937e-06
5.19667e-07
2.4223e-06
1.61606e-05
-9.83399e-06
4.10101e-06
0.000133307
-2.80593e-06
-9.27011e-07
-5.72108e-06
-3.78628e-06
-9.48817e-06
5.75347e-06
0.000148596
-1.43304e-06
1.15904e-06
0.000194451
-3.74803e-06
1.03281e-06
-1.80145e-06
-3.32068e-07
2.77079e-06
-5.17867e-07
-2.19533e-05
-6.68547e-07
-7.36915e-07
6.40042e-06
1.55253e-05
1.75607e-09
-1.46273e-08
-1.67751e-09
-9.15286e-09
1.77639e-08
-2.02344e-05
1.53899e-06
-1.17887e-06
-3.63165e-07
2.19133e-05
-1.67585e-06
-1.01278e-05
-1.54972e-06
0.000133568
1.49701e-07
-1.48205e-06
-3.61665e-06
-4.50242e-06
-1.58145e-06
-5.73335e-06
-6.32276e-06
-1.14604e-06
-2.67131e-06
9.81934e-05
9.54821e-07
-1.68312e-06
1.28537e-08
-1.37171e-06
7.12678e-07
1.78275e-06
-2.98683e-05
-1.33158e-06
1.88755e-06
2.93253e-05
-2.12144e-05
-1.42662e-06
2.47343e-06
2.01675e-05
-1.13494e-05
1.37568e-06
-1.67837e-06
1.00687e-05
-9.49458e-06
4.07959e-07
-5.56277e-07
-9.97621e-08
7.07135e-06
-1.50141e-05
-4.14755e-06
3.64085e-06
1.55208e-05
-8.23675e-07
1.46753e-06
-1.1494e-06
5.05546e-07
-2.75365e-06
-3.3512e-06
4.11673e-06
1.98813e-06
-2.37143e-06
1.46852e-06
-4.50487e-05
4.69484e-07
-5.421e-07
4.60242e-05
-1.64778e-06
-2.61478e-05
1.92073e-06
-4.89577e-06
3.37512e-06
2.73955e-05
-1.04222e-05
2.49493e-07
-9.00427e-07
4.44226e-07
6.99845e-06
3.63045e-06
-3.86242e-06
-3.9864e-07
-6.95079e-06
9.44958e-07
3.82292e-06
6.44398e-06
-1.7435e-05
4.75847e-06
0.000114019
7.64675e-07
-1.49169e-06
1.28836e-06
2.27058e-07
-2.5847e-07
-4.58107e-07
8.48959e-07
-1.1333e-07
-2.1307e-05
1.35582e-05
0.00012401
-2.99699e-06
-2.28543e-06
-1.83777e-06
-1.68581e-06
-1.13442e-06
3.56702e-06
9.61953e-05
-2.4802e-07
-4.24202e-07
2.91793e-07
5.67263e-08
-7.50665e-07
-1.96913e-06
-8.36213e-07
-1.02731e-05
1.32187e-06
2.06686e-06
4.08275e-07
5.34167e-06
-5.54235e-07
5.81879e-07
-1.8758e-06
1.62365e-06
-1.68544e-06
1.90994e-06
-1.1837e-05
-7.18938e-07
-2.36674e-07
1.27926e-05
9.76182e-07
-1.3702e-05
-3.10464e-06
-3.58427e-08
2.6076e-06
1.32587e-05
-1.01195e-05
6.21007e-06
0.000133269
-3.34932e-07
8.71358e-07
3.87241e-06
4.29649e-06
-1.03861e-05
1.07218e-05
0.000151699
5.97862e-07
1.12808e-06
0.00018438
-1.22694e-07
6.90166e-07
4.43266e-07
-2.62237e-07
1.75804e-06
-9.81129e-07
-1.54272e-05
7.53894e-07
1.40147e-06
-5.05805e-07
1.43755e-05
-1.01516e-06
2.85502e-06
-1.25816e-06
1.04156e-07
-3.02064e-06
2.33478e-06
-2.26417e-05
2.36519e-06
-1.00172e-06
-3.77393e-06
2.47463e-05
3.05831e-07
-8.56551e-06
1.62467e-06
0.000132678
1.48171e-08
1.11987e-06
3.50279e-06
3.14516e-06
-3.30094e-07
4.29863e-06
2.28988e-06
-2.93154e-06
2.35782e-06
9.61763e-05
-2.09762e-07
-2.71104e-06
-2.19875e-07
2.80973e-06
2.34624e-06
2.73182e-06
-3.03775e-05
-3.1778e-06
2.70716e-06
2.90447e-05
-1.52982e-05
-3.99643e-06
3.222e-06
1.20099e-06
1.48716e-05
1.80962e-06
-1.03651e-07
-2.97352e-07
-1.40862e-06
-5.34566e-06
6.77782e-07
-5.49861e-07
6.84241e-06
-9.98495e-06
2.34946e-06
-4.93879e-06
4.51303e-07
1.44808e-05
-1.57397e-05
-4.167e-06
4.08296e-06
1.58238e-05
-8.07981e-08
-2.38025e-07
5.97799e-07
-2.78976e-07
-1.79782e-06
-4.61927e-06
4.4219e-06
1.99518e-06
-9.39551e-07
2.15824e-06
-4.67811e-05
-8.237e-08
-1.06667e-06
4.67114e-05
-2.46817e-06
-2.82593e-05
2.94042e-06
-3.27048e-06
2.99019e-06
2.80673e-05
-4.97555e-06
6.10333e-07
-1.29931e-06
-2.1886e-07
4.01938e-06
1.864e-06
-2.83741e-06
-1.54503e-08
-7.36801e-06
-5.34977e-07
1.57291e-06
9.18294e-06
-1.97689e-05
-1.90614e-06
0.000127906
1.85978e-06
3.28924e-07
1.80507e-06
1.51202e-06
1.60762e-06
-7.05291e-07
1.97193e-06
-5.92055e-07
-2.05258e-05
1.11274e-05
0.000121931
-2.18365e-06
-2.20088e-06
-2.02314e-06
-1.88457e-06
-1.90606e-06
-2.0794e-06
7.96721e-05
8.60466e-07
9.80684e-07
1.32734e-06
6.92885e-07
-9.44761e-07
-1.85207e-06
-1.08162e-06
-4.2127e-06
1.29905e-06
-3.73883e-07
-2.63456e-06
4.01603e-06
-2.48487e-06
4.06942e-07
-3.48293e-07
5.67125e-07
-1.94257e-07
2.05335e-06
-1.41664e-05
-3.40908e-07
-7.45614e-07
1.52529e-05
-1.09477e-06
-1.5039e-05
-8.64232e-07
-1.18573e-06
7.21593e-07
1.74621e-05
-1.29114e-05
4.09474e-06
0.000127582
3.16997e-06
3.09313e-06
3.52842e-06
2.80596e-06
-1.39442e-05
1.00072e-05
0.000153852
-1.89168e-07
2.33565e-07
0.000170095
-6.05279e-07
-2.05152e-07
-7.1713e-07
-1.42169e-06
1.29914e-06
-1.32186e-07
-1.29792e-05
4.62422e-06
8.81936e-07
-3.94515e-06
1.1229e-05
-2.30489e-06
-1.16385e-07
-2.96846e-07
-1.42289e-07
9.17909e-07
1.9425e-06
-2.67835e-05
3.66301e-06
-2.53693e-06
-3.77941e-06
2.79903e-05
1.44648e-06
-1.17318e-05
3.69309e-06
0.000124644
2.64103e-06
3.03778e-06
3.01177e-06
3.32702e-06
2.21787e-06
3.48279e-06
2.4484e-06
-5.41659e-06
1.75794e-06
0.000100932
-1.02319e-06
-5.95341e-06
-1.86135e-06
2.37198e-06
1.52815e-06
2.11581e-06
-2.89577e-05
-5.07537e-06
2.43012e-06
2.64199e-05
-1.11574e-05
1.17286e-06
3.64634e-06
-1.08129e-06
7.41949e-06
1.35026e-06
-1.30765e-06
1.45236e-06
-8.85538e-07
-6.09421e-07
-1.03916e-05
1.72675e-06
-7.45778e-07
1.31037e-05
-1.82497e-05
2.52067e-06
-4.87286e-06
1.25774e-06
2.1102e-05
-1.57343e-05
-2.82987e-06
3.18432e-06
1.53799e-05
5.10736e-07
-1.23206e-06
1.33131e-06
-6.09989e-07
-2.62943e-06
-5.17697e-06
4.05147e-06
3.75493e-06
-4.4651e-07
3.0011e-06
-4.47568e-05
9.24895e-07
1.70557e-06
3.95718e-05
-2.96324e-06
-2.7305e-05
1.17783e-06
-9.7018e-07
4.15368e-06
2.59069e-05
-3.57431e-06
1.34498e-06
-4.33322e-07
-6.07243e-07
3.16237e-06
1.07525e-07
-2.33548e-06
3.88473e-07
-1.15993e-05
-1.40135e-06
6.5431e-07
1.42934e-05
-2.01426e-05
-3.14836e-06
0.000145096
3.48108e-07
6.99245e-07
-4.67186e-07
1.64463e-06
2.00737e-06
-7.41862e-07
2.40396e-06
2.06171e-07
-2.06016e-05
9.84137e-06
0.000125466
-3.71977e-06
-2.69579e-06
-4.18518e-06
-2.3162e-06
-2.43123e-06
-8.14805e-06
7.24931e-05
1.48372e-06
8.67285e-07
1.8242e-06
8.08439e-07
-2.03141e-06
-3.3786e-06
-2.41692e-06
-4.71829e-06
6.8162e-07
-1.52233e-06
-7.53931e-07
3.8817e-06
-1.48553e-06
5.63693e-07
-1.5806e-08
-2.3633e-07
1.17396e-06
-1.5525e-05
-4.42984e-07
1.18815e-06
1.47798e-05
-3.21256e-06
-2.03319e-05
2.70209e-07
1.23006e-08
6.53769e-08
2.31966e-05
-1.60618e-05
1.22392e-06
0.000132295
2.36658e-06
6.44966e-07
2.89649e-06
1.06835e-06
-2.04376e-05
8.11654e-06
0.000159952
-1.14677e-06
3.06538e-07
0.00014631
-1.23333e-06
-1.8725e-06
-2.03856e-06
4.1629e-07
1.21432e-06
-4.47164e-07
-9.77681e-06
1.03476e-06
-3.72481e-07
-5.04837e-07
8.4726e-06
-1.2554e-06
-5.50599e-07
1.08336e-07
1.17744e-07
1.00172e-06
5.78205e-07
-2.94136e-05
-4.58764e-07
9.179e-07
-1.42751e-06
2.99027e-05
4.79286e-07
-1.22313e-05
2.42661e-06
0.000123398
8.91335e-07
2.83988e-06
8.23594e-07
2.88547e-06
1.6374e-06
1.82162e-06
1.37563e-06
-6.61892e-06
1.32814e-06
0.000109311
-3.23675e-06
-5.26019e-06
-3.93998e-06
1.96315e-06
1.36524e-06
1.90612e-06
-2.52372e-05
-5.57737e-06
1.77661e-06
2.27255e-05
-4.61581e-06
-2.42797e-06
4.00301e-06
3.04078e-06
-1.56095e-05
1.74573e-06
-1.08458e-06
1.73749e-05
-2.34269e-05
2.38225e-06
-4.65154e-06
1.63212e-06
2.53922e-05
-1.49867e-05
-2.58741e-06
3.40864e-06
1.41655e-05
5.33298e-07
-5.75898e-08
-9.42699e-08
-3.81438e-07
-5.38933e-06
-2.71471e-06
1.16939e-06
6.93466e-06
-7.66614e-07
7.48723e-06
-3.14769e-05
-2.15324e-06
4.49842e-06
2.24111e-05
-1.21753e-06
-2.29689e-05
-4.15816e-06
4.13307e-06
6.18741e-06
1.80241e-05
-2.85794e-06
1.82083e-06
1.41323e-07
-7.05227e-07
2.24414e-06
-6.4313e-07
-1.5413e-06
4.39392e-07
-1.71562e-05
-2.05002e-06
8.02377e-07
1.95057e-05
-1.71835e-05
5.97582e-06
0.000165677
-3.50337e-06
-2.33449e-06
-5.69126e-06
-5.03064e-06
2.35016e-06
3.21596e-07
2.68093e-06
1.83406e-06
-1.9167e-05
9.25983e-06
0.000137915
-6.60939e-06
-3.58989e-06
-6.53953e-06
-2.98607e-06
-2.56958e-06
-8.86358e-06
6.49824e-05
1.32426e-06
6.73207e-07
2.16538e-06
1.43044e-06
-2.70393e-06
-1.43041e-06
-1.68214e-06
-4.07295e-06
1.73963e-06
-2.16005e-06
1.92379e-06
-1.25747e-05
4.63515e-08
2.71702e-06
9.81129e-06
-2.07081e-06
-2.58849e-05
1.48804e-07
-4.37708e-07
3.4496e-07
2.78997e-05
-1.55031e-05
1.53943e-06
0.000145328
2.21975e-06
6.57613e-08
3.15073e-06
1.47024e-06
-2.25654e-05
7.97096e-06
0.000168304
-2.53925e-06
3.58553e-07
0.000121139
-1.59309e-06
-1.56782e-06
-5.02542e-07
-1.38195e-06
1.97864e-06
-1.0107e-06
-1.03003e-05
8.57307e-07
-1.13306e-06
-6.51769e-07
8.68857e-06
-3.0394e-05
-4.21482e-06
2.91388e-06
8.07481e-07
3.11932e-05
-3.05726e-07
-7.59845e-06
1.23058e-06
0.000126696
-1.03672e-06
1.92906e-06
-4.33405e-07
1.76083e-06
7.35198e-07
1.07645e-06
5.7822e-07
-4.16403e-06
1.26216e-06
0.000116864
-3.90558e-06
-2.27972e-06
-2.8934e-06
1.97427e-06
9.83505e-07
1.84176e-06
-2.14701e-05
-2.49664e-06
7.29787e-07
1.94315e-05
-1.83772e-06
4.71372e-07
2.65462e-07
1.10089e-06
-1.87395e-05
1.24455e-06
-5.62518e-07
1.9288e-05
-2.75812e-05
1.70968e-06
-4.6158e-06
1.69133e-06
3.00581e-05
-1.30379e-05
-2.51095e-06
3.53884e-06
1.20101e-05
2.86894e-07
1.09683e-07
-3.34612e-08
-3.63116e-07
-7.4783e-06
2.35327e-06
-1.57745e-06
6.70248e-06
-1.4118e-06
4.64461e-07
-1.56291e-05
-4.14103e-07
5.58404e-06
1.14065e-05
-1.18519e-06
-1.36652e-05
-3.29424e-06
1.03891e-06
6.99972e-06
1.0106e-05
-1.47812e-06
1.45551e-06
-8.83782e-07
-5.778e-07
2.42556e-08
1.45995e-06
-3.84155e-07
-6.13264e-08
-2.12001e-05
-1.39195e-06
1.23532e-06
2.18022e-05
-1.22281e-05
1.40802e-05
0.000190216
-7.61225e-06
-1.02868e-05
-7.34392e-06
-9.68642e-06
2.27947e-06
1.39674e-06
2.18024e-06
2.68201e-06
-1.45122e-05
1.0283e-05
0.000152657
-8.21635e-06
-4.13185e-06
-7.29713e-06
-3.09545e-06
-1.69569e-06
-6.05753e-06
5.61293e-05
1.41884e-06
9.73812e-07
1.57654e-06
1.55125e-06
-1.11298e-06
-1.4976e-06
-8.1569e-07
-1.09358e-06
2.68796e-06
-3.70977e-06
4.19701e-07
-7.5544e-06
-1.20152e-07
1.99199e-06
5.68257e-06
-7.96928e-07
-2.95691e-05
-5.3492e-07
-1.23003e-06
1.14158e-06
3.09894e-05
-1.19156e-05
1.99949e-06
0.000160295
2.30631e-06
7.25786e-07
3.4968e-06
2.50042e-06
-1.76175e-05
7.2442e-06
0.000177044
-9.38909e-07
8.30024e-07
9.99268e-05
-5.94778e-07
-5.38024e-07
-2.03011e-07
-1.12634e-06
1.09654e-06
-9.87975e-07
-6.98055e-06
1.64396e-06
5.98522e-07
-1.51117e-06
5.31034e-06
-3.21559e-05
-3.36372e-06
2.59601e-06
1.62299e-06
3.27071e-05
-1.40648e-06
-2.19121e-06
8.43556e-07
0.000129412
-1.65385e-06
1.01741e-06
-6.85407e-07
7.4009e-07
5.05905e-08
9.69118e-07
1.92782e-07
-1.32657e-06
6.3443e-08
0.000121437
-9.41955e-07
3.05785e-07
4.4754e-07
1.52281e-06
-5.10099e-07
9.19e-07
-1.95531e-05
-2.46278e-07
2.74273e-07
1.90285e-05
-9.2142e-07
1.6814e-06
-1.66933e-06
9.09347e-07
-1.93147e-05
7.33807e-07
5.2798e-07
1.88965e-05
-3.26809e-05
-3.9327e-07
-1.69275e-06
2.67988e-07
3.45623e-05
-1.12373e-05
-4.0237e-07
8.47725e-07
1.07919e-05
6.45301e-07
4.2588e-07
-3.72427e-08
-1.03394e-06
-5.44314e-06
2.99668e-06
-1.88917e-06
4.33564e-06
-2.14577e-06
-3.5544e-06
-9.05719e-06
2.7308e-06
4.73745e-06
7.2891e-06
-1.94268e-06
-7.78775e-06
-1.76327e-06
-9.35648e-07
6.30268e-06
6.12666e-06
1.36314e-06
9.98014e-07
-2.26704e-06
6.18e-08
-2.60073e-06
2.44482e-06
3.49196e-07
-8.60039e-07
-2.15682e-05
2.06494e-07
1.22174e-06
2.06508e-05
-9.971e-06
9.68688e-06
0.000211879
-6.48643e-06
-9.74662e-06
-5.31007e-06
-7.28301e-06
1.44624e-06
1.58089e-06
1.68554e-06
2.73419e-06
-1.07852e-05
8.2231e-06
0.00016462
-7.4847e-06
-3.56157e-06
-5.8497e-06
-2.47648e-06
-1.77758e-06
-5.63726e-06
5.09525e-05
7.96686e-07
1.51378e-06
7.51362e-07
1.82162e-06
-6.75887e-07
-1.73465e-06
-6.66561e-07
2.2748e-07
3.44021e-06
-4.39759e-06
-1.04768e-06
-4.39233e-06
2.67704e-07
2.45681e-07
3.87895e-06
4.19142e-07
-3.23782e-05
-1.13215e-06
-1.61739e-06
1.61174e-06
3.30969e-05
-7.54428e-06
-2.26707e-06
0.000169081
2.44403e-06
1.68122e-06
3.48916e-06
3.09792e-06
-8.87014e-06
1.58107e-06
0.000185012
3.4588e-08
-1.15116e-06
9.0973e-05
1.40574e-07
1.38955e-07
3.27865e-07
-1.77555e-06
-1.16325e-06
-2.10565e-06
-4.18526e-06
2.42703e-06
9.41997e-07
-2.67721e-06
3.52803e-06
-3.30986e-05
-1.99033e-06
2.04604e-06
1.73959e-06
3.30905e-05
-1.78719e-06
1.17276e-07
5.32611e-07
0.000127612
-1.337e-06
1.58915e-07
-6.23689e-08
-9.11609e-08
-3.16598e-07
6.2222e-07
-9.08637e-08
7.60635e-07
-1.41571e-06
0.000119299
1.68184e-06
2.02897e-06
2.33398e-06
-9.09425e-08
-1.08647e-06
-3.75768e-07
-2.00925e-05
1.52211e-06
-1.80857e-06
1.99884e-05
-8.25496e-07
2.48259e-06
-2.45839e-06
8.01304e-07
-1.85695e-05
-7.45948e-08
1.0513e-06
1.81254e-05
-3.56924e-05
-1.82141e-06
2.72015e-06
-1.95248e-06
3.53304e-05
-1.07901e-05
1.96754e-06
-2.28457e-06
1.11071e-05
1.46991e-06
5.27266e-07
-1.33932e-07
-1.86324e-06
-3.47921e-06
2.25603e-06
-1.57897e-06
2.80215e-06
-1.87859e-06
-4.12794e-06
-6.11116e-06
3.67542e-06
3.21384e-06
5.22844e-06
-1.8768e-06
-5.17555e-06
-1.70865e-06
-8.45008e-07
5.03089e-06
4.57511e-06
3.72421e-06
8.72403e-07
-2.91233e-06
4.47833e-07
-4.7345e-06
2.60238e-06
2.84899e-07
-8.8312e-07
-1.98493e-05
1.22849e-07
1.10161e-06
1.9223e-05
-9.54444e-06
-2.43484e-06
0.000231631
-3.0758e-06
-5.70931e-06
-2.23415e-06
-3.58552e-06
1.43031e-06
1.28313e-06
1.83745e-06
2.28189e-06
-8.72789e-06
-1.50326e-07
0.0001768
-5.35252e-06
-2.41874e-06
-3.77546e-06
-1.29971e-06
-1.93284e-06
-8.08024e-06
5.04751e-05
4.76154e-07
1.83472e-06
5.7823e-07
1.95926e-06
-5.35799e-07
-1.90805e-06
-6.41884e-07
1.83163e-06
3.80855e-06
-4.94889e-06
-2.62413e-06
-3.8825e-06
6.5238e-07
-8.65357e-07
4.09548e-06
1.36681e-06
-3.33127e-05
-1.16378e-06
-1.58446e-06
1.81262e-06
3.28815e-05
-4.18398e-06
-8.21006e-06
0.000170791
1.74089e-06
1.54248e-06
2.47121e-06
2.4944e-06
-2.49919e-06
-6.57085e-06
0.000189748
8.04663e-07
-3.22933e-06
8.98017e-05
8.50371e-07
7.50167e-07
6.4356e-07
-3.06917e-06
-2.93459e-06
-3.22386e-06
-3.0605e-06
3.05064e-06
1.32386e-06
-3.49042e-06
2.98109e-06
-3.31299e-05
-1.30318e-06
1.39582e-06
2.20245e-06
3.30146e-05
-2.17981e-06
1.74208e-06
1.43705e-07
0.000121166
-7.50032e-07
-7.16673e-07
2.49774e-07
-1.07689e-06
-8.06848e-07
3.49835e-07
-8.98904e-07
1.55767e-06
-1.64868e-06
0.000111228
2.68701e-06
2.41272e-06
2.81072e-06
-1.29916e-06
-1.59542e-06
-1.68264e-06
-2.12297e-05
2.44388e-06
-3.37974e-06
2.04939e-05
-8.00229e-07
2.8578e-06
-2.89982e-06
8.42242e-07
-1.80534e-05
-1.20913e-06
1.54758e-06
1.78587e-05
-3.45168e-05
-1.94695e-06
4.18841e-06
-1.78872e-06
3.24154e-05
-1.14123e-05
3.63458e-06
-3.61958e-06
1.13973e-05
2.21501e-06
5.65365e-07
-3.02261e-07
-2.47811e-06
-2.33923e-06
1.93472e-06
-1.74618e-06
2.15069e-06
-8.2695e-07
-4.0194e-06
-4.53281e-06
3.89821e-06
1.93046e-06
3.55048e-06
-1.25905e-06
-4.59623e-06
-2.28402e-06
-2.19492e-07
3.47792e-06
4.88087e-06
5.54769e-06
9.83603e-07
-2.88391e-06
1.28884e-07
-5.94755e-06
2.17129e-06
-3.24764e-07
1.07896e-07
-1.88477e-05
-1.20332e-06
1.70637e-06
1.85615e-05
-6.52414e-06
-9.40354e-06
0.000249088
-1.55637e-06
-3.07081e-06
-1.17748e-06
-1.06524e-06
1.46615e-06
5.59677e-07
1.64204e-06
1.67217e-06
-5.84549e-06
-1.37949e-05
0.00019256
-2.5919e-06
-4.38201e-07
-1.08848e-06
1.47505e-06
-1.76686e-06
-1.04512e-05
5.42797e-05
6.76421e-07
1.96755e-06
8.5587e-07
1.8226e-06
-3.61051e-07
-1.79297e-06
-6.00421e-07
3.34104e-06
3.52044e-06
-4.86034e-06
-3.76801e-06
-4.33111e-06
6.36711e-07
-8.49345e-07
4.54375e-06
1.46989e-06
-3.2222e-05
-1.58386e-06
-1.05179e-06
2.0547e-06
3.13331e-05
2.05682e-07
-9.81092e-06
0.000169022
1.80535e-07
2.53038e-07
8.64615e-07
6.72691e-07
4.45051e-07
-1.26309e-05
0.000188345
1.26553e-06
-4.30654e-06
9.068e-05
1.1548e-06
1.14772e-06
8.48662e-07
-3.76176e-06
-3.55604e-06
-3.67684e-06
-2.82177e-06
3.16784e-06
1.59336e-06
-3.67306e-06
2.99916e-06
-3.28179e-05
-1.29145e-06
1.32585e-06
2.86982e-06
3.22527e-05
-2.33896e-06
4.87853e-06
3.81611e-07
0.000113741
-1.03767e-06
-2.02281e-06
-4.11801e-07
-2.37667e-06
-1.17025e-06
5.61975e-07
-1.18865e-06
1.82993e-06
-2.14671e-06
0.000102929
2.87365e-06
2.48832e-06
2.65612e-06
-2.33725e-06
-2.26316e-06
-2.55395e-06
-2.11481e-05
2.66348e-06
-4.11641e-06
2.01244e-05
-9.03876e-07
2.85374e-06
-2.90637e-06
9.56512e-07
-1.79336e-05
-2.63209e-06
2.87025e-06
1.8077e-05
-3.0123e-05
-1.77555e-06
4.03743e-06
-1.60649e-06
2.73209e-05
-1.10198e-05
4.32614e-06
-3.7065e-06
1.04001e-05
2.63092e-06
7.07287e-07
-7.00388e-07
-2.63782e-06
-2.16668e-06
1.33877e-06
-1.54488e-06
2.3728e-06
4.3217e-07
-2.6009e-06
-2.42734e-06
3.67794e-06
-1.08513e-06
2.00325e-06
3.61689e-08
-5.53384e-06
-2.80513e-06
3.13219e-07
1.82452e-06
6.16506e-06
5.99675e-06
1.38321e-06
-2.4958e-06
-5.44074e-07
-5.46756e-06
1.12749e-06
-6.78421e-07
7.011e-07
-1.84036e-05
-1.90566e-06
1.92182e-06
1.83647e-05
-5.06646e-08
-7.0764e-06
0.000250561
8.36624e-07
-8.73802e-07
2.8142e-06
1.35705e-06
7.82156e-07
-4.30774e-07
8.73038e-07
2.95635e-07
-1.69004e-06
-2.12915e-05
0.00020732
-9.05573e-07
2.54751e-06
1.42669e-06
5.10281e-06
-1.32673e-06
-1.02604e-05
6.08275e-05
9.498e-07
1.74315e-06
1.31796e-06
1.35259e-06
-1.05261e-07
-1.43848e-06
-4.70458e-07
4.11165e-06
2.72139e-06
-4.18627e-06
-3.9735e-06
-4.74685e-06
4.51322e-07
-6.71368e-07
4.96689e-06
1.25379e-06
-3.04392e-05
-1.48536e-06
-2.01618e-07
1.55101e-06
2.93213e-05
6.09281e-06
-4.6907e-06
0.000165831
-1.44985e-06
-1.86471e-06
-7.79562e-07
-1.19316e-06
3.48405e-06
-1.31026e-05
0.000182764
1.66482e-06
-4.1312e-06
9.21303e-05
1.39808e-06
1.52228e-06
1.18108e-06
-3.56398e-06
-2.98461e-06
-3.31315e-06
-2.96989e-06
2.8676e-06
1.67705e-06
-3.34657e-06
3.43663e-06
-3.13618e-05
-1.63731e-06
1.62387e-06
3.35846e-06
3.00234e-05
-2.00654e-06
8.42569e-06
1.11452e-06
0.000108481
-1.90147e-06
-3.04449e-06
-1.30458e-06
-3.10946e-06
-4.75781e-07
1.20496e-06
-3.39996e-07
1.96963e-06
-2.22689e-06
9.77472e-05
2.71604e-06
2.45001e-06
2.41459e-06
-2.35087e-06
-2.15398e-06
-2.3138e-06
-2.04319e-05
2.56561e-06
-3.73525e-06
1.94399e-05
-1.02628e-06
2.42765e-06
-2.60168e-06
1.20031e-06
-1.82163e-05
-3.71094e-06
4.43684e-06
1.8605e-05
-2.49565e-05
-2.50757e-06
3.9176e-06
-1.82187e-06
2.31414e-05
-9.61315e-06
3.81225e-06
-3.12095e-06
8.92185e-06
2.45377e-06
9.63629e-07
-1.33193e-06
-2.08547e-06
-2.67195e-06
7.88412e-07
-1.20564e-06
3.08918e-06
8.04893e-07
-3.27242e-07
-2.13875e-06
1.93202e-06
-2.98853e-06
2.71761e-06
1.66652e-06
-7.31192e-06
-2.57057e-06
8.41038e-07
-1.31775e-06
8.69268e-06
4.56078e-06
1.92294e-06
-1.84188e-06
-1.4637e-06
-3.01166e-06
-1.66488e-07
-5.17166e-07
1.43503e-06
-1.83823e-05
-2.88708e-06
1.79817e-06
1.85533e-05
4.95409e-06
2.90864e-06
0.000237434
2.54174e-06
-2.68864e-07
1.77314e-06
1.34216e-06
5.91184e-07
-1.44168e-06
9.15705e-07
-1.8913e-07
2.37555e-06
-2.1581e-05
0.000216997
1.11228e-06
4.10323e-06
3.78934e-06
5.47742e-06
-4.58772e-07
-8.00565e-06
6.83475e-05
9.0495e-07
1.25862e-06
1.08129e-06
7.00299e-07
2.95347e-07
-9.33004e-07
1.25551e-08
3.76907e-06
1.82214e-06
-3.1941e-06
-2.85588e-06
-5.24857e-06
3.87538e-07
-7.84015e-07
5.64505e-06
1.70838e-06
-2.82419e-05
-1.44888e-06
-2.03786e-07
1.20588e-06
2.69803e-05
8.64737e-06
5.87782e-06
0.000159579
-1.99115e-06
-2.06469e-06
-8.2839e-07
-4.80357e-07
6e-06
-1.1027e-05
0.000174858
1.99816e-06
-2.62257e-06
9.24093e-05
1.68948e-06
1.83518e-06
1.47526e-06
-2.73146e-06
-1.41316e-06
-2.51547e-06
-3.621e-06
2.38196e-06
1.65782e-06
-2.84841e-06
4.42778e-06
-2.85319e-05
-1.75489e-06
1.10474e-06
3.91217e-06
2.7385e-05
-2.11511e-06
9.72718e-06
2.05654e-06
0.000107036
-1.67997e-06
-2.97207e-06
-4.61226e-07
-2.80945e-06
7.21886e-07
2.06746e-06
6.725e-07