/*--------------------------------*- C++ -*----------------------------------*\
| =========                 |                                                 |
| \\      /  F ield         | OpenFOAM: The Open Source CFD Toolbox           |
|  \\    /   O peration     | Version:  5.x                                   |
|   \\  /    A nd           | Web:      www.OpenFOAM.org                      |
|    \\/     M anipulation  |                                                 |
\*---------------------------------------------------------------------------*/
FoamFile
{
    version     2.0;
    format      ascii;
    class       volVectorField;
    location    "7";
    object      U;
}
// * * * * * * * * * * * * * * * * * * * * * * * * * * * * * * * * * * * * * //

dimensions      [0 1 -1 0 0 0 0];

internalField   nonuniform List<vector> 
10571
(
(-0.139669 0.186823 1.10843)
(-0.251192 0.33861 1.07852)
(-0.631974 0.60958 2.47388)
(0.175968 0.663511 1.33926)
(0.531824 0.391286 1.09062)
(0.341256 0.696486 1.31619)
(-1.11568 1.1986 2.27588)
(0.506253 0.804585 2.67816)
(0.615719 0.383922 1.8605)
(0.861295 0.614543 2.2863)
(0.242411 0.295579 1.39294)
(0.287123 0.271275 1.04127)
(-0.584449 0.974025 2.12819)
(-0.233881 0.331729 1.62594)
(0.306236 0.351378 1.95502)
(0.737701 -0.0476323 2.09621)
(0.268704 0.23944 1.14771)
(0.820684 0.597763 2.14931)
(-0.663497 0.617125 2.53121)
(-0.130244 0.185489 1.28651)
(0.164968 -0.137191 1.84437)
(0.347766 0.00659187 1.64599)
(-0.419215 0.266827 1.62027)
(-0.371501 0.276095 2.07409)
(-0.0345056 0.0676171 0.882928)
(0.0258476 0.0385256 0.711296)
(-0.0482107 0.216865 1.4068)
(-0.197882 -0.083858 1.06822)
(-0.165377 -0.155608 0.929799)
(0.567961 -0.0146534 1.35587)
(-0.0881476 -0.201935 0.941698)
(-0.101704 -0.0890641 1.66533)
(-0.0650622 -0.0604741 1.69541)
(-0.310196 0.483024 2.18921)
(0.0606245 0.0733006 0.375459)
(0.377349 0.297065 1.30048)
(0.318649 0.337081 1.83617)
(-0.0392616 0.244382 2.13537)
(-0.146914 0.0613067 1.9622)
(-0.201988 0.169782 1.81912)
(0.414573 0.251195 0.911145)
(0.194775 0.0113255 1.90863)
(0.111239 -0.345364 2.55284)
(-0.234872 -0.240861 1.28532)
(-0.12113 0.0776186 1.12485)
(-0.110729 -0.130314 1.12976)
(-0.0489876 -0.308771 1.077)
(0.0175531 -0.110705 0.729232)
(0.106351 0.05851 0.528543)
(0.114245 -0.0934988 0.619178)
(0.681308 -0.153235 1.79796)
(0.0676086 -0.557443 1.40285)
(-0.159803 -0.162174 0.680702)
(-0.130318 -0.318539 1.19177)
(0.274927 -0.596619 1.36861)
(0.16784 -0.300468 0.874605)
(-0.112261 -0.0323264 0.603198)
(-0.530365 -0.332396 1.79804)
(-0.0187154 0.00216891 0.366226)
(-0.0391043 -0.103508 1.4578)
(0.836315 -0.817595 2.75667)
(0.752536 -0.487431 2.07194)
(-0.0119748 -0.036934 0.617269)
(-0.724579 0.195083 1.9142)
(0.00575267 -0.13241 0.731166)
(0.343981 -0.241441 2.69624)
(0.526538 -0.129646 2.11963)
(0.122925 -0.260389 1.18592)
(-0.0316284 0.295203 1.33458)
(-0.314211 -0.13284 1.39615)
(0.187536 -0.344671 0.980367)
(0.0274344 0.0244697 0.871426)
(0.221042 -0.0658076 0.704827)
(0.0758351 -0.108558 0.583126)
(0.711014 -0.888523 3.03503)
(0.324542 -0.533397 1.39942)
(0.014276 0.162766 0.773095)
(-0.477263 -0.426299 1.43189)
(0.16797 -0.372847 0.93284)
(0.223187 -0.287711 1.4973)
(-0.0795091 0.261829 2.43326)
(-0.129936 -0.170933 2.02029)
(-0.143865 -0.101842 0.895916)
(-0.661659 -0.150297 1.59573)
(0.468974 -0.614306 1.69635)
(0.613817 -0.183124 1.44005)
(0.715961 -0.0576319 2.69493)
(-0.241718 0.184105 2.1115)
(-0.330185 -0.0464149 0.997472)
(0.426012 -0.067521 1.84927)
(0.591844 -0.0549946 1.35002)
(0.286738 0.0439185 1.28097)
(-0.0905206 0.18766 1.98907)
(-0.0942966 -0.249009 1.64961)
(0.42489 -0.349233 1.06108)
(0.39957 -0.020525 1.00522)
(0.217773 0.0308382 0.554527)
(-0.1779 -0.0228448 0.759217)
(0.25499 -0.557407 2.46613)
(0.0563718 0.0405869 1.04603)
(0.0202248 0.179238 0.902717)
(-0.2645 -0.0476864 1.26915)
(-0.0321795 -0.169389 1.64868)
(-0.381906 0.34362 1.59743)
(-0.443881 0.259325 1.37517)
(-0.531089 0.0509375 0.616596)
(-0.171262 -0.017162 1.45276)
(-0.416762 -0.0108277 1.12648)
(-0.00726416 -0.0247169 1.20229)
(0.230723 0.0814612 2.27751)
(0.122659 0.0148233 2.06812)
(-0.485534 0.0763975 0.896593)
(-0.486418 0.0346111 1.14242)
(-0.00374374 0.00396067 1.11959)
(0.285284 0.0244813 2.0829)
(1.44287 -0.0209923 1.36506)
(0.0165062 -0.162569 1.35723)
(0.00341259 -0.111741 1.24588)
(0.218195 0.00598078 0.920471)
(0.209198 0.124217 1.32553)
(-0.15661 -0.00536366 0.133249)
(-0.0948524 0.131807 0.429201)
(0.130915 -0.115442 1.9648)
(-0.064017 0.3227 1.0445)
(-0.158254 0.0550407 0.606125)
(-0.0610641 0.32971 0.328582)
(-0.112292 0.174311 1.00554)
(-0.469273 0.352788 1.15137)
(-0.433737 0.161561 1.41092)
(0.0141507 0.178183 0.725668)
(-0.00341938 0.00158296 -0.00187198)
(-0.071941 0.177465 1.47006)
(-0.131006 0.202331 0.696585)
(0.0101399 0.370817 1.98734)
(-0.280957 0.190411 1.52442)
(-0.0511682 0.0903569 2.046)
(-0.212455 0.0727811 0.717972)
(0.0010144 -0.000449218 -0.0011022)
(-0.160439 0.0236077 0.712228)
(-0.10417 -0.199171 2.09708)
(-0.199102 0.0324552 0.942045)
(-0.0265695 0.103973 1.27528)
(-0.21075 0.172838 1.56526)
(-0.107094 -0.0734599 1.02267)
(0.0864141 -0.246935 0.100134)
(-0.298998 0.256055 1.39583)
(-0.165089 -0.0286384 0.102165)
(-0.202996 0.242446 0.161257)
(-0.0342831 0.00347741 1.98364)
(-0.375276 0.247413 1.17777)
(-0.149705 0.0854125 0.328763)
(0.0649133 0.295936 0.287664)
(-0.153991 0.00679985 0.993063)
(-0.436263 0.248206 1.24624)
(-0.317685 0.076101 1.1974)
(0.0726633 0.0420753 0.309012)
(0.103991 -0.0561972 0.0387807)
(-0.0314084 0.101736 1.77848)
(-0.103892 0.236077 0.588737)
(-0.14152 0.183957 1.17363)
(-0.259618 0.233046 1.4428)
(-0.102675 0.0533008 2.09344)
(0.158488 -0.130319 0.701365)
(0.0985378 -0.194698 0.0832803)
(-0.253473 -0.200795 0.960186)
(-0.208848 0.0452868 1.28172)
(-0.1618 0.100984 0.98611)
(-0.187861 0.145897 1.32735)
(-0.118648 0.0297466 1.05931)
(-0.0624776 -0.0338156 -0.120372)
(0.0315028 0.124551 0.270821)
(-0.213428 0.158375 0.500106)
(-0.27939 0.245965 1.44613)
(0.105377 0.000829628 -0.0199305)
(-0.227109 0.263732 0.136548)
(0.0108633 0.0059017 2.06986)
(-0.405709 0.274046 1.23873)
(-0.177521 0.0251229 0.167758)
(0.0300793 0.157365 0.36132)
(-0.185808 -0.106607 1.22509)
(-0.469017 0.140271 1.27284)
(-0.217192 -0.0995275 0.958673)
(-0.0886729 -0.137819 0.213591)
(0.00747119 -0.014439 0.102)
(-0.0925825 0.0361258 2.12746)
(0.0650783 0.0823628 0.710384)
(-0.181867 0.0500344 1.27864)
(-0.291873 0.231913 1.56346)
(-0.157797 0.0119415 2.02735)
(0.0552705 -0.380817 0.549322)
(-0.020234 0.0270024 0.0978647)
(-0.207876 -0.220042 1.05825)
(-0.232619 0.105864 1.31252)
(-0.242987 0.0888515 1.06675)
(-0.381221 0.0830401 1.21023)
(-0.130221 0.0255576 0.520692)
(-0.152725 0.0640636 -0.0764988)
(-0.0680899 0.31548 0.607616)
(-0.264399 0.120191 0.777131)
(-0.192761 0.129831 1.40754)
(0.182306 0.0406181 -0.081508)
(-0.235787 0.218482 0.23224)
(0.0609726 0.233106 1.91283)
(-0.240789 0.309433 1.19254)
(-0.122633 -0.0298085 0.134718)
(-0.0411679 0.105991 0.56061)
(-0.189438 -0.0270008 1.37675)
(-0.462736 0.148232 1.2539)
(-0.204152 -0.256102 0.824358)
(-0.171327 -0.0804688 0.165722)
(-0.0466639 -0.0373449 0.0676684)
(-0.0480217 0.126387 2.217)
(0.179483 -0.0149691 0.957623)
(-0.183555 -0.0736034 1.3398)
(-0.38848 0.179891 1.6375)
(-0.223415 -0.0280838 1.78147)
(-0.0376789 -0.121832 0.443694)
(-0.011694 0.0443015 0.0520069)
(0.18177 -0.0992912 1.18243)
(-0.19825 0.11372 1.31851)
(-0.27411 0.0767129 1.11284)
(-0.500887 0.0861709 1.0267)
(-0.18485 0.172911 0.284229)
(-0.0787052 0.210084 0.833107)
(-0.253476 0.0808261 0.961557)
(-0.25789 0.107353 1.34695)
(0.0245433 0.0129263 -0.0571202)
(-0.0614653 0.0158644 0.456722)
(-0.59409 0.254815 1.17411)
(0.449699 0.224938 0.943543)
(-0.0402932 -0.0599264 0.108855)
(-0.0844322 0.11095 0.808714)
(-0.156885 0.279993 1.56631)
(-0.423465 0.196454 1.28334)
(-0.176292 -0.260013 0.737936)
(-0.133414 -0.146439 0.136297)
(0.0959884 0.069865 1.55257)
(0.11709 -0.0114053 1.18363)
(-0.158297 -0.0526399 1.38149)
(-0.390065 0.140688 1.66391)
(-0.278056 -0.0415998 1.40139)
(-0.0757414 -0.0749885 0.354002)
(0.328773 0.0066995 1.1932)
(-0.0635069 0.0976509 1.31997)
(-0.225076 0.104674 1.18116)
(-0.268152 0.0939546 0.846714)
(0.0246794 -0.0490872 0.103095)
(-0.0626967 0.0903196 0.965385)
(-0.260557 0.0595426 1.1248)
(-0.314579 0.154498 1.13433)
(0.00187259 -0.00958477 -0.0383618)
(0.131539 -0.129944 0.532887)
(-0.189164 0.0854363 0.561197)
(0.279309 0.161203 0.489371)
(-0.0785222 -0.0102403 0.0352036)
(-0.0217227 0.11068 0.955162)
(-0.107415 0.468683 1.76856)
(-0.339832 0.255236 1.44902)
(-0.109784 -0.165937 0.628068)
(-0.117431 -0.224037 0.0491622)
(0.0838964 0.100625 0.925287)
(0.0438409 0.0322434 1.32783)
(-0.113855 0.00617505 1.529)
(-0.316541 0.125113 1.72873)
(-0.227215 -0.0375775 1.13009)
(0.0228243 -0.0553502 0.245418)
(0.246244 0.0975003 1.27068)
(0.0155317 0.0555496 1.34961)
(-0.100426 0.0987222 1.2773)
(-0.0488607 0.125788 0.805962)
(0.113219 -0.176306 0.0755012)
(-0.0625589 0.0656273 0.96404)
(-0.0931683 -0.0461815 1.33298)
(-0.0459442 0.0713621 0.991623)
(-0.049867 -0.0194675 -0.120127)
(0.150994 -0.11507 0.345289)
(0.249953 0.100919 0.361958)
(0.0422001 0.187533 0.305084)
(-0.143958 0.0385701 -0.076549)
(0.123326 0.0715539 0.929878)
(-0.0745256 0.369566 1.96982)
(-0.303051 0.23768 1.61293)
(-0.0336665 -0.117045 0.541284)
(-0.160872 -0.27441 -0.0213128)
(0.00134127 0.108477 0.573819)
(0.00618242 0.0860458 1.44879)
(-0.081052 -0.0482339 1.67003)
(-0.20035 0.066935 1.84531)
(-0.0804149 -0.0807016 0.974467)
(0.033799 -0.138109 0.163602)
(0.201987 0.117473 1.2967)
(0.0245662 -0.0362798 1.36188)
(-0.0206184 -0.0186877 1.28399)
(0.12074 -0.0558278 0.861416)
(0.131864 -0.228367 0.0647422)
(0.0164189 0.0720895 0.918717)
(0.173204 -0.12566 1.41115)
(0.221061 -0.0470664 0.998083)
(-0.062674 -0.021663 -0.242233)
(0.0928121 -0.104358 0.224187)
(0.331289 0.098981 0.25686)
(0.0503013 0.157128 0.210476)
(-0.164964 0.0348332 -0.166421)
(0.114957 0.0619133 0.860397)
(-0.064832 0.0637696 2.20873)
(-0.289989 0.0780736 1.70658)
(0.0124511 -0.14138 0.517269)
(-0.182152 -0.312685 -0.106766)
(-0.042454 0.0562171 0.569483)
(-0.038262 0.0809818 1.46276)
(-0.0231029 -0.154133 1.7085)
(-0.134812 -0.0790863 1.9031)
(0.0375979 -0.166433 0.94101)
(0.0496301 -0.206469 0.132509)
(0.181351 0.142936 1.29696)
(0.0600428 -0.1424 1.30957)
(0.00798163 -0.153066 1.2211)
(0.184288 -0.213364 0.901097)
(0.136275 -0.254241 0.0655933)
(0.120078 0.0763151 0.900602)
(0.247871 -0.0656739 1.32305)
(0.338306 -0.130983 1.04781)
(-0.0716826 -0.0227203 -0.340146)
(0.0786741 -0.121035 0.160241)
(0.330692 0.0144131 0.180383)
(0.115386 0.0716518 0.201172)
(-0.136456 0.000389897 -0.218703)
(-0.0218616 0.120302 0.825047)
(-0.00144427 -0.158492 2.41342)
(-0.234547 -0.282025 1.85118)
(0.0481295 -0.163617 0.542878)
(-0.176853 -0.302804 -0.178587)
(-0.0429964 0.0565346 0.634766)
(-0.0562771 0.10676 1.39989)
(0.0962135 -0.17687 1.7014)
(-0.0888085 -0.208036 1.91279)
(0.0826225 -0.242751 0.953824)
(0.0756973 -0.221991 0.126166)
(0.17883 0.163503 1.27778)
(0.145681 -0.174666 1.23456)
(0.0476197 -0.21458 1.11762)
(0.192365 -0.280427 0.890898)
(0.125752 -0.247632 0.0755775)
(0.24906 0.112414 0.906116)
(0.183315 -0.0917633 1.12797)
(0.348373 -0.176549 0.979741)
(-0.0935661 -0.027228 -0.381356)
(0.0743477 -0.102702 0.165568)
(0.224056 -0.0790074 0.109087)
(0.141108 -0.0527968 0.237424)
(-0.0657178 -0.0693324 -0.209278)
(-0.0897878 0.144474 0.810434)
(0.147034 -0.182448 2.52108)
(-0.143583 -0.525172 2.01895)
(0.0874749 -0.12873 0.600118)
(-0.15252 -0.242104 -0.2052)
(-0.0349785 0.0802196 0.694066)
(-0.0266899 0.0645522 1.31667)
(0.241768 -0.0644352 1.68774)
(-0.0170487 -0.242233 1.88389)
(0.107109 -0.267186 0.976349)
(0.105453 -0.202089 0.134152)
(0.18219 0.153692 1.20433)
(0.23321 -0.106677 1.16985)
(0.0995028 -0.183379 1.04529)
(0.182602 -0.251359 0.861962)
(0.105688 -0.206187 0.0905288)
(0.348443 0.154641 0.926053)
(0.208328 -0.117293 0.937524)
(0.291574 -0.160178 0.842067)
(-0.128703 -0.0322556 -0.326674)
(0.0469694 -0.0697916 0.209017)
(0.00734952 -0.0893427 0.104222)
(0.144617 -0.215904 0.345528)
(0.00494956 -0.16811 -0.137275)
(-0.173545 0.127947 0.815437)
(0.246814 -0.057948 2.49816)
(-0.0635041 -0.516271 2.13425)
(0.135863 -0.0366881 0.684355)
(-0.0953922 -0.167012 -0.164722)
(-0.0396188 0.0974888 0.777101)
(-0.0704311 0.0641337 1.21779)
(0.234321 0.160651 1.67205)
(0.0666981 -0.251771 1.81163)
(0.125562 -0.248685 0.9823)
(0.128997 -0.171166 0.163656)
(0.144492 0.193906 1.09165)
(0.248782 0.0252375 1.13345)
(0.129158 -0.101943 1.00944)
(0.159916 -0.109968 0.827857)
(0.0864279 -0.152902 0.131332)
(0.389147 0.191573 0.959404)
(0.243945 -0.108114 0.850314)
(0.243838 -0.122691 0.744132)
(-0.167284 -0.0408937 -0.177714)
(0.0215492 -0.0530501 0.291277)
(-0.101183 0.00604742 0.165768)
(0.151517 -0.294355 0.464023)
(0.0123744 -0.244691 -0.0120623)
(-0.198792 0.0163671 0.816886)
(0.234719 0.211312 2.28315)
(0.0067205 -0.29791 2.23158)
(0.197029 0.0272389 0.767399)
(-0.0241725 -0.110966 -0.0700519)
(-0.0527081 0.112109 0.91794)
(-0.219763 0.154873 1.10426)
(0.101575 0.394935 1.57638)
(0.12833 -0.220835 1.72822)
(0.164644 -0.166152 0.982376)
(0.140628 -0.136898 0.219267)
(0.0534788 0.26052 1.05909)
(0.200854 0.157957 1.13841)
(0.136977 0.00416676 0.993614)
(0.143943 0.0348079 0.818027)
(0.0705002 -0.10957 0.201085)
(0.396075 0.21459 1.02585)
(0.258673 -0.104894 0.846449)
(0.217026 -0.0886032 0.731138)
(-0.213345 -0.0494341 -0.018724)
(0.00851612 -0.0303366 0.39722)
(-0.0889328 0.0806858 0.288872)
(0.0337393 -0.249469 0.508958)
(-0.029047 -0.269863 0.115088)
(-0.200522 -0.0409289 0.786446)
(0.0461415 0.307614 1.79514)
(0.140111 0.0311648 2.23066)
(0.252901 0.00237593 0.817646)
(0.0241616 -0.0901278 0.0600393)
(-0.0534186 0.150671 1.10704)
(-0.278709 0.232538 1.05549)
(-0.0476326 0.462311 1.41939)
(0.173709 -0.0557409 1.66534)
(0.215061 -0.0336702 0.980751)
(0.134736 -0.0984764 0.309295)
(0.00565038 0.305782 1.13078)
(0.130015 0.206737 1.18461)
(0.134129 0.117559 1.00571)
(0.144949 0.114012 0.840436)
(0.0541633 -0.0740398 0.301906)
(0.379388 0.225114 1.14325)
(0.241207 -0.0798027 0.916338)
(0.196651 -0.0624388 0.800027)
(-0.242669 -0.0578392 0.122793)
(-3.94788e-05 0.00349771 0.483543)
(-0.108081 0.0970382 0.408082)
(-0.0968001 -0.270606 0.50676)
(-0.0617388 -0.249558 0.231989)
(-0.197518 0.0093865 0.727661)
(-0.196842 0.177336 1.4325)
(0.213113 0.104882 2.05708)
(0.271835 -0.0718674 0.814185)
(0.0523335 -0.0869504 0.216705)
(-0.0555347 0.177014 1.31129)
(-0.250111 0.288805 1.04913)
(-0.190271 0.371405 1.28772)
(0.207604 0.231297 1.52739)
(0.223752 0.0311416 0.977048)
(0.113202 -0.0649856 0.420686)
(0.0176685 0.352232 1.27065)
(0.0844131 0.155509 1.23709)
(0.118466 0.177236 1.05518)
(0.15702 0.148473 0.896875)
(0.0374319 -0.0454231 0.42157)
(0.366109 0.214429 1.29101)
(0.206315 -0.0306918 1.04049)
(0.18063 -0.0475775 0.9364)
(-0.237201 -0.0616227 0.271229)
(-0.00946651 0.0170651 0.538627)
(-0.0933859 0.0782517 0.541106)
(-0.168468 -0.309634 0.501137)
(-0.066829 -0.212771 0.357547)
(-0.159892 0.0231659 0.726053)
(-0.326028 0.0929386 1.17599)
(0.209369 0.00232583 1.62753)
(0.248305 -0.1168 0.789136)
(0.0507763 -0.0810478 0.364581)
(-0.058728 0.199574 1.52773)
(-0.256618 0.262541 0.996696)
(-0.256479 0.240101 1.14259)
(0.164034 0.295411 1.34906)
(0.194925 0.0198225 0.970119)
(0.0894963 -0.0400742 0.536947)
(0.022913 0.326643 1.41637)
(0.0669696 0.0892815 1.27428)
(0.0994404 0.158177 1.13698)
(0.144149 0.132858 0.975993)
(0.0200476 -0.0231802 0.533621)
(0.356136 0.205823 1.41946)
(0.181889 -0.00235748 1.191)
(0.168785 -0.043824 1.09267)
(-0.193473 -0.0555472 0.418313)
(0.0239104 -0.0232956 0.615389)
(-0.00414735 0.100816 0.662305)
(-0.164561 -0.263499 0.531411)
(-0.0589681 -0.161219 0.4812)
(-0.11519 -0.0418022 0.779339)
(-0.232754 0.0455013 0.960356)
(0.175608 -0.0842785 1.22581)
(0.194046 -0.11521 0.790084)
(0.0296782 -0.0737977 0.488063)
(-0.0178084 0.17319 1.68782)
(-0.211963 0.142288 0.972258)
(-0.199222 0.14349 0.993655)
(0.0882923 0.177679 1.16826)
(0.136197 -0.0328301 0.951011)
(0.0725939 -0.0278134 0.640979)
(0.00504637 0.246132 1.56318)
(0.0720311 0.0575789 1.27149)
(0.115036 0.113501 1.19034)
(0.118194 0.0856101 1.04314)
(0.0111452 -0.0129427 0.623137)
(0.304908 0.152419 1.5126)
(0.173032 -0.000529274 1.3289)
(0.156838 -0.0474635 1.23807)
(-0.126951 -0.042954 0.54985)
(0.184534 -0.207673 0.703135)
(0.0830557 0.023995 0.712891)
(-0.0823484 -0.202656 0.615905)
(-0.0438534 -0.10738 0.580799)
(0.0125381 -0.110362 0.91182)
(-0.0290585 -0.0332522 0.808944)
(0.122271 -0.0958474 1.01538)
(0.119377 -0.100441 0.805493)
(0.0056656 -0.0667486 0.580634)
(-0.0126861 0.111353 1.61927)
(-0.026281 0.0274973 1.03816)
(-0.0327698 0.0908376 0.869425)
(0.0651945 0.0744278 1.03698)
(0.113892 -0.0575857 0.940949)
(0.0673214 -0.02915 0.721276)
(0.11772 0.191506 1.65168)
(0.100958 0.0220267 1.23934)
(0.161771 0.0773742 1.20633)
(0.107059 0.0429289 1.08655)
(0.0129322 -0.0135197 0.695364)
(0.235038 0.0819094 1.51239)
(0.167673 0.00637245 1.43241)
(0.14717 -0.0497056 1.36938)
(-0.0479174 -0.032838 0.712279)
(0.291218 -0.372457 0.789176)
(0.185163 -0.192469 0.825698)
(-0.011573 -0.182023 0.74466)
(-0.0212731 -0.0370783 0.645679)
(0.229374 -0.229636 0.792548)
(0.0845445 -0.114901 0.762347)
(0.0299452 -0.0915357 0.919136)
(0.0526395 -0.0882379 0.811664)
(-0.0108109 -0.0597229 0.649771)
(-0.00820287 -0.00975805 1.32857)
(0.0813364 -0.0323055 1.17598)
(0.150708 0.0596608 0.782408)
(0.108325 0.033289 0.974422)
(0.107971 -0.0704017 0.944534)
(0.0714107 -0.0367015 0.786032)
(0.0777628 0.0791238 1.65159)
(0.16325 -0.0164708 1.18092)
(0.201455 0.0471193 1.20402)
(0.10132 0.0183505 1.12948)
(0.0183809 -0.0169083 0.758287)
(0.223649 0.0791902 1.46573)
(0.160865 0.0247802 1.52439)
(0.145567 -0.0508064 1.49364)
(0.0201428 -0.0168286 0.937332)
(0.277056 -0.312813 0.946649)
(0.195878 -0.21981 0.977585)
(-0.0205216 -0.206425 0.893648)
(0.0189894 0.0346148 0.671914)
(0.292516 -0.28401 0.554736)
(0.0771437 -0.142509 0.784738)
(-0.0697031 -0.0809076 0.868483)
(0.00531683 -0.0709616 0.807485)
(-0.0192565 -0.0523725 0.704702)
(0.00187916 -0.00267769 1.24387)
(0.0683388 -0.0513687 1.2042)
(0.269895 0.0316639 0.745686)
(0.153891 0.0143564 0.973136)
(0.100584 -0.0828341 0.967785)
(0.0734058 -0.0431361 0.843366)
(-0.00959583 -0.100683 1.59427)
(0.249283 -0.0092682 1.11201)
(0.225068 0.0262633 1.20992)
(0.0655338 -0.00896903 1.18452)
(0.0278791 -0.0150113 0.809214)
(0.219089 0.100789 1.44996)
(0.16321 0.0405283 1.61827)
(0.156836 -0.0532902 1.6112)
(0.137828 0.0103965 1.11493)
(0.0153431 0.0667405 0.977018)
(-0.0265566 -0.100466 1.0752)
(0.0171222 -0.174185 0.974246)
(0.0832031 0.109102 0.68491)
(0.140824 0.0266412 0.524552)
(-0.0611714 -0.119085 0.839841)
(-0.113412 -0.044423 0.844986)
(-0.024789 -0.0455849 0.8072)
(-0.0227039 -0.0452665 0.751556)
(0.00563284 0.0333282 1.15325)
(0.162432 -0.106317 1.01472)
(0.285733 0.0249588 0.748996)
(0.154006 0.00328165 0.998398)
(0.0790736 -0.0897017 1.02128)
(0.0685118 -0.0457555 0.89188)
(0.0398146 -0.0157537 1.42341)
(0.321604 0.0178742 1.073)
(0.22628 0.00911304 1.23778)
(-0.0141787 -0.0600421 1.25461)
(0.045247 -0.00763833 0.855278)
(0.204766 0.103639 1.47883)
(0.17634 0.0475378 1.7047)
(0.174263 -0.0583113 1.71456)
(0.199089 0.0189364 1.07815)
(-0.120135 0.176911 0.86426)
(-0.0603613 -0.0660849 1.15768)
(0.14573 0.126251 0.866641)
(0.118706 0.165844 0.740833)
(0.105521 0.262058 0.604034)
(-0.199604 -0.0393252 0.862934)
(-0.0963594 0.0115518 0.854037)
(-0.0428038 -0.0188881 0.820159)
(-0.0197539 -0.0304372 0.793497)
(-0.0205101 -0.0349699 1.16262)
(0.306445 0.109004 0.664574)
(0.197607 0.0333973 0.794292)
(0.0822749 -0.0044911 1.06076)
(0.0572475 -0.078155 1.06951)
(0.0574417 -0.0417914 0.925123)
(0.128383 0.200076 1.19624)
(0.346866 0.030829 1.07342)
(0.18302 -0.0211789 1.30399)
(-0.0942324 -0.10722 1.33326)
(0.0492135 0.0074839 0.907825)
(0.225631 0.0884921 1.51364)
(0.197416 0.0459477 1.79134)
(0.171591 -0.0470897 1.80309)
(0.202773 0.0302983 0.840142)
(0.0039353 0.100635 0.642906)
(-0.0832259 0.142013 1.21517)
(0.144386 0.213246 0.742337)
(0.0410991 0.105843 0.848505)
(0.115787 0.310763 0.639403)
(-0.227819 0.020691 0.898803)
(-0.0735991 0.0509242 0.873815)
(-0.0562156 0.00303017 0.837911)
(-0.0126465 -0.00673322 0.828292)
(-0.0287185 -0.0685974 1.18671)
(0.213532 0.244141 0.584751)
(0.0120413 0.0701312 0.886204)
(0.00624777 0.00285711 1.10187)
(0.0464473 -0.0492854 1.09344)
(0.0333267 -0.0377017 0.93727)
(0.208835 0.208671 0.972251)
(0.337306 0.03395 1.08777)
(0.104494 -0.0571764 1.39319)
(-0.115119 -0.11084 1.4048)
(0.0190295 0.0312637 0.952001)
(0.262046 0.08168 1.55804)
(0.221102 0.0407107 1.87864)
(0.162051 -0.030517 1.89931)
(0.0676729 0.00369635 0.703391)
(-0.0540018 0.0668917 0.458311)
(0.00925532 0.234113 1.1835)
(0.00540187 0.0806997 0.691408)
(0.00487611 0.024467 0.886619)
(-0.00641876 0.279707 0.572635)
(-0.194377 0.0451331 0.997355)
(-0.0717673 0.0569292 0.875497)
(-0.0669559 0.0196004 0.844871)
(-0.0100184 0.0193191 0.854283)
(0.0502921 -0.0265081 0.921265)
(0.0726979 0.223896 0.589496)
(-0.0597803 0.106373 0.960668)
(-0.0115875 0.017918 1.11136)
(0.0399767 -0.0150274 1.1008)
(0.0055028 -0.0365889 0.92535)
(0.160381 0.198849 0.829615)
(0.275101 0.00830658 1.12014)
(0.0253748 -0.0926529 1.47501)
(-0.10559 -0.0782062 1.45423)
(-0.0160105 0.0537073 0.976668)
(0.292305 0.0914227 1.61136)
(0.238831 0.0400153 1.96541)
(0.158236 -0.0241164 2.00028)
(-0.0230254 -0.00883998 0.649824)
(-0.0504634 0.0782257 0.308668)
(0.0119531 0.192279 1.21203)
(-0.0498063 0.0120878 0.622444)
(-0.000801019 -0.00180974 0.848224)
(-0.106057 0.224337 0.482608)
(-0.131067 0.0799827 1.07675)
(-0.0953703 0.0530809 0.87166)
(-0.0726659 0.0281161 0.838312)
(-0.0170389 0.0448498 0.862111)
(0.0141554 0.0519513 0.621358)
(-0.0274704 0.210521 0.597259)
(-0.0501782 0.143199 1.01304)
(-0.00313414 0.043841 1.12542)
(0.0342653 0.0100925 1.11275)
(-0.0206323 -0.0336066 0.893762)
(0.0918993 0.192097 0.785228)
(0.152406 -0.0229601 1.1524)
(-0.0177109 -0.123876 1.52175)
(-0.101367 -0.0531252 1.49144)
(-0.0430683 0.0760177 0.986847)
(0.285457 0.104725 1.6676)
(0.242276 0.0390907 2.03952)
(0.156825 -0.0237731 2.093)
(-0.05828 -0.0023639 0.602948)
(-0.0488463 0.0556342 0.238064)
(0.0138559 0.182327 1.21414)
(-0.0159311 0.00130304 0.573871)
(-0.00550025 -0.0145503 0.793788)
(-0.166197 0.2081 0.417231)
(-0.0842547 0.135552 1.05721)
(-0.138243 0.0465882 0.851463)
(-0.0735539 0.0263476 0.819345)
(-0.0440384 0.0484017 0.846349)
(-0.00111912 0.0667098 0.529284)
(-0.0667294 0.244347 0.638375)
(-0.031844 0.201276 1.04187)
(-0.00203267 0.100465 1.15769)
(0.0347262 0.0195454 1.13043)
(-0.0434784 -0.0192524 0.846308)
(0.0564695 0.19622 0.800705)
(0.062821 0.0151667 1.17367)
(-0.0180163 -0.143021 1.53971)
(-0.0960512 -0.0477677 1.53517)
(-0.0708277 0.10489 0.98031)
(0.223243 0.102642 1.70968)
(0.249068 0.0355975 2.08479)
(0.159438 -0.0313961 2.17214)
(-0.0199244 -0.00150131 0.547749)
(-0.0431428 0.031476 0.256179)
(0.0208809 0.115821 1.07391)
(0.0122372 0.00463386 0.592696)
(-0.0145484 -0.0297524 0.764329)
(-0.174298 0.206513 0.399492)
(-0.0787612 0.198503 0.953649)
(-0.137487 0.0474795 0.828365)
(-0.0644251 0.0226399 0.785001)
(-0.0652618 0.0232125 0.806374)
(-0.000353271 0.131907 0.529471)
(-0.137745 0.283107 0.71872)
(-0.0425085 0.281345 1.06617)
(-0.0364605 0.153596 1.19596)
(0.0390152 0.0180574 1.13609)
(-0.0519833 -0.0054772 0.791828)
(0.0373667 0.210094 0.856564)
(0.0342778 0.0938537 1.21501)
(0.00903807 -0.150115 1.55822)
(-0.0752528 -0.0400608 1.60017)
(-0.0872461 0.127548 0.961197)
(0.131912 0.0951803 1.73793)
(0.26095 0.0346813 2.11717)
(0.165223 -0.0357252 2.24268)
(0.0179228 -0.00771175 0.534523)
(-0.0316335 0.0250034 0.281208)
(-0.0296582 -0.15534 0.716853)
(-0.0282107 0.00744884 0.650148)
(-0.01194 -0.0343913 0.739375)
(-0.174161 0.170993 0.433659)
(-0.127028 0.189825 0.806017)
(-0.104495 0.0581271 0.786359)
(-0.0473539 0.0235097 0.7571)
(-0.0568622 -0.000787685 0.76314)
(0.00428503 0.175674 0.614297)
(-0.210998 0.301294 0.780851)
(-0.102464 0.338252 1.0933)
(-0.0972491 0.154363 1.2253)
(0.0444821 0.0038469 1.12525)
(-0.043423 -0.00540286 0.745532)
(0.0545462 0.220709 0.937848)
(0.0412351 0.156977 1.27085)
(0.0591928 -0.143842 1.59667)
(-0.0237982 -0.0271437 1.67668)
(-0.0819983 0.133068 0.950329)
(0.0577399 0.109526 1.76479)
(0.269901 0.0464583 2.14232)
(0.174124 -0.045678 2.31294)
(0.0128199 -0.0102594 0.538263)
(-0.0349133 0.049482 0.256889)
(-0.00597875 -0.0536112 0.539373)
(-0.0342395 -0.0201876 0.668685)
(-0.0132166 -0.0305643 0.71842)
(-0.143555 0.157681 0.480822)
(-0.169967 0.162342 0.66224)
(-0.0740625 0.0680934 0.7287)
(-0.0239722 0.0263504 0.737139)
(-0.0371727 -0.0176705 0.737607)
(0.00296214 0.166914 0.712432)
(-0.247698 0.292738 0.844851)
(-0.211798 0.322694 1.0996)
(-0.131951 0.101595 1.22541)
(0.0469648 -0.0423521 1.07365)
(-0.0273727 -0.0136295 0.720146)
(0.0825995 0.222911 1.04038)
(0.0347673 0.187989 1.32325)
(0.088177 -0.11612 1.61527)
(0.0506375 -0.0284599 1.74815)
(-0.0469192 0.109504 0.983533)
(0.0330815 0.132794 1.80202)
(0.261453 0.0647007 2.16678)
(0.183422 -0.0541147 2.3792)
(-0.00955083 -0.0248783 0.567937)
(-0.0234376 0.0507837 0.226709)
(0.0151252 0.0409831 0.45638)
(-0.0137975 -0.0833568 0.622008)
(-0.0311287 -0.00934027 0.716383)
(-0.105911 0.139502 0.521489)
(-0.172218 0.167157 0.565173)
(-0.0640229 0.0738116 0.66066)
(-0.00528174 0.0374347 0.728824)
(-0.0210292 -0.026926 0.735444)
(-0.0175472 0.179759 0.798574)
(-0.26934 0.227499 0.918183)
(-0.31285 0.227269 1.0794)
(-0.12142 0.0470318 1.175)
(0.0414912 -0.0758349 1.01831)
(-0.0186076 -0.0208399 0.716595)
(0.110804 0.208147 1.156)
(0.0203203 0.19114 1.36026)
(0.0846844 -0.0755018 1.60174)
(0.0966453 -0.0135597 1.78423)
(-0.00751998 0.0633661 1.07901)
(0.0333859 0.147238 1.85323)
(0.23443 0.0791889 2.19121)
(0.18933 -0.0563122 2.44724)
(-0.0292175 -0.0274458 0.601104)
(0.00167182 0.0298996 0.21575)
(0.0274686 0.101408 0.388319)
(-0.039324 -0.0860189 0.541504)
(-0.0289962 0.0328565 0.714102)
(-0.0688639 0.0913801 0.583838)
(-0.1516 0.165512 0.529181)
(-0.0600761 0.0822863 0.593679)
(0.000231735 0.0574755 0.725004)
(-0.0120054 -0.027578 0.750745)
(-0.0267816 0.173957 0.875437)
(-0.298027 0.101908 0.999923)
(-0.346807 0.0921243 1.02582)
(-0.103383 0.0300492 1.07434)
(0.029126 -0.0838894 0.97489)
(-0.0175437 -0.0229472 0.722807)
(0.129161 0.185392 1.27292)
(0.0286968 0.185962 1.37546)
(0.0330585 0.00502482 1.55454)
(0.100044 0.00592074 1.80307)
(0.0175927 0.0201859 1.18378)
(0.0329134 0.141317 1.913)
(0.185615 0.0930231 2.21109)
(0.191273 -0.0544834 2.51738)
(-0.0440693 -0.01699 0.617616)
(0.0347307 -0.00271978 0.227587)
(0.0380082 0.126571 0.327366)
(-0.0454821 -0.00349876 0.460319)
(-0.0138032 0.0366978 0.697654)
(-0.0197035 0.00240379 0.657575)
(-0.114522 0.143771 0.532418)
(-0.0388861 0.0855389 0.543055)
(0.00118283 0.0793539 0.717077)
(-0.00661023 -0.0194793 0.775646)
(-0.0221895 0.147728 0.936268)
(-0.310705 -0.0151202 1.06792)
(-0.329439 -0.016157 0.951538)
(-0.10403 0.045829 0.966558)
(0.00615115 -0.0688223 0.938817)
(-0.0174986 -0.0220783 0.734906)
(0.144345 0.176209 1.36971)
(0.0708928 0.168871 1.382)
(-0.0143629 0.0541897 1.52334)
(0.0882107 0.0265748 1.80715)
(0.0327812 -0.0197756 1.26607)
(0.0234907 0.112857 1.97727)
(0.136797 0.0978788 2.24172)
(0.19251 -0.0463675 2.59564)
(-0.0314625 -0.0018921 0.617615)
(0.0611901 -0.0388601 0.246447)
(0.0663058 0.0671699 0.321291)
(0.00369656 0.0488314 0.409909)
(0.00617007 -0.00707894 0.68788)
(0.0357509 -0.0818667 0.707233)
(-0.0355231 0.0997811 0.546789)
(0.0112002 0.0751449 0.512081)
(0.0119523 0.0932779 0.706148)
(-0.00490414 -0.00406944 0.803507)
(-0.0173607 0.133406 1.01753)
(-0.309267 -0.0849668 1.12072)
(-0.304465 -0.0832515 0.868802)
(-0.104756 0.0663968 0.870196)
(-0.0158432 -0.0369082 0.909683)
(-0.0167623 -0.0142463 0.751816)
(0.184325 0.174774 1.44547)
(0.123321 0.0943377 1.36574)
(-0.0231375 0.0584459 1.52045)
(0.060449 0.0455136 1.80172)
(0.0275292 -0.0535546 1.29898)
(0.0112329 0.0856177 2.02863)
(0.0988412 0.101903 2.28081)
(0.183291 -0.0374947 2.67128)
(-0.0037104 0.00142802 0.610728)
(0.0710573 -0.0607717 0.273446)
(0.123531 -0.00932375 0.335059)
(0.0579187 0.0371467 0.412595)
(0.0232982 -0.0421775 0.690229)
(0.109982 -0.144669 0.699132)
(0.0861317 0.0447616 0.544032)
(0.0839175 0.0502917 0.50071)
(0.0374668 0.0946218 0.703615)
(-0.00596894 0.0192946 0.835162)
(-0.00408503 0.116526 1.05364)
(-0.281222 -0.110275 1.13506)
(-0.26753 -0.128343 0.80899)
(-0.090952 0.0774371 0.790885)
(-0.0215363 -0.00607226 0.889129)
(-0.0155831 0.000965856 0.772138)
(0.228122 0.137582 1.49299)
(0.109196 -0.074414 1.30012)
(-0.0158052 0.0341858 1.53531)
(0.0242972 0.0701966 1.80145)
(0.00132938 -0.0647835 1.25863)
(0.0100197 0.101511 2.05104)
(0.0875701 0.0920862 2.31729)
(0.175047 -0.0287879 2.74274)
(0.028131 -0.00286977 0.616437)
(0.0579688 -0.0650973 0.311493)
(0.14093 -0.0463687 0.352506)
(0.104562 0.00809701 0.430692)
(0.0403714 -0.0475913 0.703759)
(0.156919 -0.217951 0.62891)
(0.221259 -0.000997394 0.520062)
(0.159175 0.0142071 0.505375)
(0.0747344 0.0782778 0.724043)
(-0.001199 0.0392047 0.866919)
(-0.00721408 0.123921 1.05623)
(-0.203567 -0.122154 1.14646)
(-0.193214 -0.143532 0.788608)
(-0.0694427 0.0707193 0.744908)
(-0.00727122 0.00552165 0.874452)
(-0.012073 0.0156379 0.79304)
(0.246842 0.143013 1.56819)
(0.0208215 -0.229631 1.19266)
(-0.0328304 -0.0708071 1.56365)
(-0.0175382 0.09575 1.82392)
(-0.00626817 -0.0421547 1.15527)
(0.0119643 0.117465 2.02116)
(0.100385 0.0590915 2.32922)
(0.149159 -0.0313322 2.80307)
(0.0509292 -0.00910009 0.64383)
(0.022371 -0.0394041 0.345739)
(0.130566 -0.0662874 0.364056)
(0.12459 -0.0155063 0.460225)
(0.0565159 -0.0477208 0.729325)
(0.149699 -0.237049 0.524251)
(0.303349 -0.0252198 0.514305)
(0.204256 -0.0202681 0.530617)
(0.0971885 0.0484501 0.773911)
(0.00739489 0.0525111 0.908115)
(-0.00268589 0.0781194 1.06772)
(-0.170967 -0.128402 1.12604)
(-0.0325889 -0.103331 0.79481)
(-0.0492842 0.0570537 0.743266)