/*--------------------------------*- C++ -*----------------------------------*\
| =========                 |                                                 |
| \\      /  F ield         | OpenFOAM: The Open Source CFD Toolbox           |
|  \\    /   O peration     | Version:  5.x                                   |
|   \\  /    A nd           | Web:      www.OpenFOAM.org                      |
|    \\/     M anipulation  |                                                 |
\*---------------------------------------------------------------------------*/
FoamFile
{
    version     2.0;
    format      ascii;
    class       volVectorField;
    location    "7";
    object      Us;
}
// * * * * * * * * * * * * * * * * * * * * * * * * * * * * * * * * * * * * * //

dimensions      [0 1 -1 0 0 0 0];

internalField   nonuniform List<vector> 
10571
(
(-0.128652 0.0133891 -0.0371171)
(0.0118053 0.0309028 -0.0449009)
(-0.10542 0.114727 0.104648)
(-0.165018 0.114994 0.00266899)
(-0.0638655 0.0181527 -0.0695933)
(0.10665 -0.0764172 -0.0785241)
(0.0160875 -0.0647411 0.0303267)
(-0.121976 0.121706 0.0606116)
(-0.122833 0.0446334 -0.0385076)
(-0.0274165 0.0242485 -0.113016)
(0.0359784 -0.00234564 -0.106304)
(0.110841 -0.00631999 -0.112154)
(0.136405 -0.0333385 -0.0343193)
(-0.164877 0.00774451 0.0558818)
(-0.159306 0.0113242 -0.0583941)
(-0.0324519 0.0146348 -0.0887067)
(0.0785838 0.0364469 -0.084113)
(0.100839 -0.0357719 -0.0676075)
(-0.0711721 -0.0716341 -0.0154724)
(-0.12641 0.009477 -0.0734753)
(-0.0471589 0.0481466 -0.0899067)
(-0.0594458 -0.035476 -0.112267)
(-0.0736841 -0.0308418 -0.117259)
(-0.0608797 0.0226015 -0.111502)
(-0.110879 0.00362975 -0.0223011)
(0.0147109 0.0027724 0.0434393)
(-0.0808224 0.111871 0.189712)
(-0.21634 0.0320299 0.0823199)
(-0.125988 -0.0553481 -0.0221081)
(0.0491976 -0.0495254 0.0826713)
(-0.0139056 -0.0745279 0.205419)
(-0.18296 -0.0142719 0.197547)
(-0.108235 0.0133517 0.0868083)
(-0.0875893 0.0204028 0.0602364)
(0.0078451 0.018479 0.021592)
(0.0654717 -0.012334 0.0579634)
(0.112875 -0.117733 0.143803)
(-0.103637 -0.0589391 0.190178)
(-0.0932133 0.0832186 0.117698)
(-0.112249 0.0695184 0.0385977)
(0.0292624 -0.0194205 0.0298357)
(-0.025676 -0.0846173 0.120743)
(-0.0641411 -0.0557315 0.159393)
(-0.0913871 0.0471383 0.038768)
(-0.0658465 0.106434 0.0422711)
(-0.11737 -0.0461447 0.00852956)
(-0.0572839 -0.0449069 0.00646603)
(-0.0626076 0.0315015 0.013264)
(-0.0431914 -0.000172511 -0.0538459)
(0.0104227 0.008606 0.079219)
(0.0252337 0.0589765 0.288403)
(-0.155592 -0.070212 0.114897)
(-0.121254 -0.0514399 -0.0675762)
(-0.0231185 -0.0259908 0.237939)
(-0.0191248 -0.144484 0.376216)
(-0.101066 -0.0624212 0.208951)
(-0.112663 0.0549077 0.0321905)
(-0.0608188 -0.00247587 0.115262)
(0.00407537 0.0171208 0.0909678)
(-0.0217637 -0.0195536 0.243558)
(0.0651958 -0.188057 0.350602)
(-0.0380415 -0.0588854 0.28028)
(-0.0696384 0.0861439 0.0905877)
(-0.0901892 0.109219 0.181344)
(-0.0244672 -0.0542254 0.203245)
(-0.0597025 -0.0803701 0.333031)
(-0.0276592 0.0211785 0.296318)
(-0.0627207 0.0877637 0.177386)
(-0.0663904 0.112926 0.137937)
(-0.126696 -0.0425758 0.181796)
(-0.0608057 -0.00851154 0.200622)
(-0.0529005 0.0348897 0.181515)
(-0.0053408 -0.0772506 -0.0527866)
(-0.0459804 0.0364246 0.0890236)
(-0.0991946 0.00698565 0.304856)
(-0.0100199 -0.147203 0.213556)
(0 0 0)
(-0.119825 -0.0225773 0.360853)
(-0.0784805 -0.111089 0.41384)
(-0.0282815 -0.0579279 0.262706)
(-0.096994 0.0689358 0.0330485)
(-0.0410628 0.0319382 -0.00418459)
(-0.0151835 0.0147179 0.158571)
(-0.140603 -0.0205636 0.426824)
(-0.0509394 -0.112279 0.418521)
(0.00505186 -0.00860801 0.313744)
(-0.0234269 0.0851453 0.117206)
(-0.0765056 0.106084 0.0609353)
(-0.0854643 -0.0569565 0.34587)
(-0.0674164 -0.0258876 0.430712)
(0.0236029 0.0709296 0.309472)
(0.0338985 0.0841703 0.211891)
(-0.0694624 0.119908 0.183163)
(-0.0817524 -0.0414205 0.372525)
(0.0216946 -0.00436754 0.331636)
(0.0377728 0.00760071 0.270876)
(0 0 0)
(-0.19165 -0.0348975 0.0685344)
(-0.159914 -0.0974537 0.225103)
(-0.00798681 -0.0663668 0.183988)
(0 0 0)
(-0.232749 0.0198997 0.331419)
(-0.136563 -0.0274518 0.375614)
(-0.0106914 -0.0203405 0.328013)
(0 0 0)
(-0.0596088 0.0144948 -0.514172)
(-0.126323 0.0156238 0.44606)
(-0.254824 0.0126819 0.426048)
(-0.124835 0.0192569 0.373543)
(-0.010958 0.0660433 0.29678)
(0 0 0)
(-0.0911545 0.0318198 -0.307158)
(-0.213453 0.0223794 0.448083)
(-0.0864116 0.0590467 0.398942)
(0.00642625 0.128955 0.274666)
(0 0 0)
(0 0 0)
(-0.0584871 -0.0123134 0.367842)
(0.0448847 0.0687818 0.345192)
(0 0 0)
(0 0 0)
(-0.0315393 0.103066 -0.420879)
(-0.174351 -0.0564813 0.387038)
(0 0 0)
(0 0 0)
(0 0 0)
(-0.139759 0.0840598 0.350864)
(0 0 0)
(0 0 0)
(-0.0491319 0.0458582 -0.126864)
(-0.00349385 0.00149559 -0.00197012)
(0 0 0)
(0 0 0)
(-0.167384 0.0536115 0.348996)
(0 0 0)
(0 0 0)
(-0.0822534 -0.0563323 -0.178678)
(-0.00221716 -0.000544068 -0.00135847)
(0 0 0)
(-0.104183 0.0933378 0.401024)
(0 0 0)
(0 0 0)
(0 0 0)
(-0.0912363 0.120874 0.367717)
(0 0 0)
(0 0 0)
(0 0 0)
(0 0 0)
(0 0 0)
(0 0 0)
(0 0 0)
(0 0 0)
(0 0 0)
(0 0 0)
(0 0 0)
(0 0 0)
(0 0 0)
(0 0 0)
(0 0 0)
(0 0 0)
(0 0 0)
(0 0 0)
(0 0 0)
(0 0 0)
(0 0 0)
(0 0 0)
(0 0 0)
(0 0 0)
(0 0 0)
(0 0 0)
(0 0 0)
(0 0 0)
(0 0 0)
(0 0 0)
(0 0 0)
(0 0 0)
(0 0 0)
(0 0 0)
(0 0 0)
(0 0 0)
(0 0 0)
(0 0 0)
(0 0 0)
(0 0 0)
(0 0 0)
(0 0 0)
(0 0 0)
(0 0 0)
(0 0 0)
(-0.0294586 0.158186 -0.607126)
(0 0 0)
(0 0 0)
(0 0 0)
(0 0 0)
(0 0 0)
(0 0 0)
(0 0 0)
(0 0 0)
(0 0 0)
(0 0 0)
(0 0 0)
(0 0 0)
(0 0 0)
(0 0 0)
(0 0 0)
(0 0 0)
(0 0 0)
(0 0 0)
(0 0 0)
(0 0 0)
(0 0 0)
(0 0 0)
(0 0 0)
(0 0 0)
(0 0 0)
(0 0 0)
(0 0 0)
(0 0 0)
(0 0 0)
(0 0 0)
(0 0 0)
(0 0 0)
(0 0 0)
(0 0 0)
(0 0 0)
(0 0 0)
(0 0 0)
(0 0 0)
(0 0 0)
(0 0 0)
(0 0 0)
(0 0 0)
(0 0 0)
(0 0 0)
(0 0 0)
(0 0 0)
(0 0 0)
(0 0 0)
(0 0 0)
(0 0 0)
(0 0 0)
(0 0 0)
(0 0 0)
(0 0 0)
(0 0 0)
(0 0 0)
(0 0 0)
(0 0 0)
(0 0 0)
(0 0 0)
(0 0 0)
(0 0 0)
(0 0 0)
(0 0 0)
(0 0 0)
(0 0 0)
(0 0 0)
(0 0 0)
(0 0 0)
(0 0 0)
(0 0 0)
(0 0 0)
(0 0 0)
(0 0 0)
(0 0 0)
(0 0 0)
(0 0 0)
(0 0 0)
(0 0 0)
(0 0 0)
(0 0 0)
(0 0 0)
(0 0 0)
(0 0 0)
(0 0 0)
(0 0 0)
(0 0 0)
(0 0 0)
(0 0 0)
(0 0 0)
(0 0 0)
(0 0 0)
(0 0 0)
(0 0 0)
(0 0 0)
(0 0 0)
(0 0 0)
(0 0 0)
(0 0 0)
(0 0 0)
(0 0 0)
(0 0 0)
(0 0 0)
(0 0 0)
(0 0 0)
(0 0 0)
(0 0 0)
(0 0 0)
(0 0 0)
(0 0 0)
(0 0 0)
(0 0 0)
(0 0 0)
(0 0 0)
(0 0 0)
(0 0 0)
(0 0 0)
(0 0 0)
(0 0 0)
(0 0 0)
(0 0 0)
(0 0 0)
(0 0 0)
(0 0 0)
(0 0 0)
(0 0 0)
(0 0 0)
(0 0 0)
(0 0 0)
(0 0 0)
(0 0 0)
(0 0 0)
(0 0 0)
(0 0 0)
(0 0 0)
(0 0 0)
(0 0 0)
(0 0 0)
(0 0 0)
(0 0 0)
(0 0 0)
(0 0 0)
(0 0 0)
(0 0 0)
(0 0 0)
(0 0 0)
(0 0 0)
(0 0 0)
(0 0 0)
(0 0 0)
(0 0 0)
(0 0 0)
(0 0 0)
(0 0 0)
(0 0 0)
(0 0 0)
(0 0 0)
(0 0 0)
(0 0 0)
(0 0 0)
(0 0 0)
(0 0 0)
(0 0 0)
(0 0 0)
(0 0 0)
(0 0 0)
(0 0 0)
(0 0 0)
(0 0 0)
(0 0 0)
(0 0 0)
(0 0 0)
(0 0 0)
(0 0 0)
(0 0 0)
(0 0 0)
(0 0 0)
(0 0 0)
(0 0 0)
(0 0 0)
(0 0 0)
(0 0 0)
(0 0 0)
(0 0 0)
(0 0 0)
(0 0 0)
(0 0 0)
(0 0 0)
(0 0 0)
(0 0 0)
(0 0 0)
(0 0 0)
(0 0 0)
(0 0 0)
(0 0 0)
(0 0 0)
(0 0 0)
(0 0 0)
(0 0 0)
(0 0 0)
(0 0 0)
(0 0 0)
(0 0 0)
(0 0 0)
(0 0 0)
(0 0 0)
(0 0 0)
(0 0 0)
(0 0 0)
(0 0 0)
(0 0 0)
(0 0 0)
(0 0 0)
(0 0 0)
(0 0 0)
(0 0 0)
(0 0 0)
(0 0 0)
(0 0 0)
(0 0 0)
(0 0 0)
(0 0 0)
(0 0 0)
(0 0 0)
(0 0 0)
(0 0 0)
(0 0 0)
(0 0 0)
(0 0 0)
(0 0 0)
(0 0 0)
(0 0 0)
(0 0 0)
(0 0 0)
(0 0 0)
(0 0 0)
(0 0 0)
(0 0 0)
(0 0 0)
(0 0 0)
(0 0 0)
(0 0 0)
(0 0 0)
(0 0 0)
(0 0 0)
(0 0 0)
(0 0 0)
(0 0 0)
(0 0 0)
(0 0 0)
(0 0 0)
(0 0 0)
(0 0 0)
(0 0 0)
(0 0 0)
(0 0 0)
(0 0 0)
(0 0 0)
(0 0 0)
(0 0 0)
(0 0 0)
(0 0 0)
(0 0 0)
(0 0 0)
(0 0 0)
(0 0 0)
(0 0 0)
(0 0 0)
(0 0 0)
(0 0 0)
(0 0 0)
(0 0 0)
(0 0 0)
(0 0 0)
(0 0 0)
(0 0 0)
(0 0 0)
(0 0 0)
(0 0 0)
(0 0 0)
(0 0 0)
(0 0 0)
(0 0 0)
(0 0 0)
(0 0 0)
(0 0 0)
(0 0 0)
(0 0 0)
(0 0 0)
(0 0 0)
(0 0 0)
(0 0 0)
(0 0 0)
(0 0 0)
(0 0 0)
(0 0 0)
(0 0 0)
(0 0 0)
(0 0 0)
(0 0 0)
(0 0 0)
(0 0 0)
(0 0 0)
(0 0 0)
(0 0 0)
(0 0 0)
(0 0 0)
(0 0 0)
(0 0 0)
(0 0 0)
(0 0 0)
(0 0 0)
(0 0 0)
(0 0 0)
(0 0 0)
(0 0 0)
(0 0 0)
(0 0 0)
(0 0 0)
(0 0 0)
(0 0 0)
(0 0 0)
(0 0 0)
(0 0 0)
(0 0 0)
(0 0 0)
(0 0 0)
(0 0 0)
(0 0 0)
(0 0 0)
(0 0 0)
(0 0 0)
(0 0 0)
(0 0 0)
(0 0 0)
(0 0 0)
(0 0 0)
(0 0 0)
(0 0 0)
(0 0 0)
(0 0 0)
(0 0 0)
(0 0 0)
(0 0 0)
(0 0 0)
(0 0 0)
(0 0 0)
(0 0 0)
(0 0 0)
(0 0 0)
(0 0 0)
(0 0 0)
(0 0 0)
(0 0 0)
(0 0 0)
(0 0 0)
(0 0 0)
(0 0 0)
(0 0 0)
(0 0 0)
(0 0 0)
(0 0 0)
(0 0 0)
(0 0 0)
(0 0 0)
(0 0 0)
(0 0 0)
(0 0 0)
(0 0 0)
(0 0 0)
(0 0 0)
(0 0 0)
(0 0 0)
(0 0 0)
(0 0 0)
(0 0 0)
(0 0 0)
(0 0 0)
(0 0 0)
(0 0 0)
(0 0 0)
(0 0 0)
(0 0 0)
(0 0 0)
(0 0 0)
(0 0 0)
(0 0 0)
(0 0 0)
(0 0 0)
(0 0 0)
(0 0 0)
(0 0 0)
(0 0 0)
(0 0 0)
(0 0 0)
(0 0 0)
(0 0 0)
(0 0 0)
(0 0 0)
(0 0 0)
(0 0 0)
(0 0 0)
(0 0 0)
(0 0 0)
(0 0 0)
(0 0 0)
(0 0 0)
(0 0 0)
(0 0 0)
(0 0 0)
(0 0 0)
(0 0 0)
(0 0 0)
(0 0 0)
(0 0 0)
(0 0 0)
(0 0 0)
(0 0 0)
(0 0 0)
(0 0 0)
(0 0 0)
(0 0 0)
(0 0 0)
(0 0 0)
(0 0 0)
(0 0 0)
(0 0 0)
(0 0 0)
(0 0 0)
(0 0 0)
(0 0 0)
(0 0 0)
(0 0 0)
(0 0 0)
(0 0 0)
(0 0 0)
(0 0 0)
(0 0 0)
(0 0 0)
(0 0 0)
(0 0 0)
(0 0 0)
(0 0 0)
(0 0 0)
(0 0 0)
(0 0 0)
(0 0 0)
(0 0 0)
(0 0 0)
(0 0 0)
(0 0 0)
(0 0 0)
(0 0 0)
(0 0 0)
(0 0 0)
(0 0 0)
(0 0 0)
(0 0 0)
(0 0 0)
(0 0 0)
(0 0 0)
(0 0 0)
(0 0 0)
(0 0 0)
(0 0 0)
(0 0 0)
(0 0 0)
(0 0 0)
(0 0 0)
(0 0 0)
(0 0 0)
(0 0 0)
(0 0 0)
(0 0 0)
(0 0 0)
(0 0 0)
(0 0 0)
(0 0 0)
(0 0 0)
(0 0 0)
(0 0 0)
(0 0 0)
(0 0 0)
(0 0 0)
(0 0 0)
(0 0 0)
(0 0 0)
(0 0 0)
(0 0 0)
(0 0 0)
(0 0 0)
(0 0 0)
(0 0 0)
(0 0 0)
(0 0 0)
(0 0 0)
(0 0 0)
(0 0 0)
(0 0 0)
(0 0 0)
(0 0 0)
(0 0 0)
(0 0 0)
(0 0 0)
(0 0 0)
(0 0 0)
(0 0 0)
(0 0 0)
(0 0 0)
(0 0 0)
(0 0 0)
(0 0 0)
(0 0 0)
(0 0 0)
(0 0 0)
(0 0 0)
(0 0 0)
(0 0 0)
(0 0 0)
(0 0 0)
(0 0 0)
(0 0 0)
(0 0 0)
(0 0 0)
(0 0 0)
(0 0 0)
(0 0 0)
(0 0 0)
(0 0 0)
(0 0 0)
(0 0 0)
(0 0 0)
(0 0 0)
(0 0 0)
(0 0 0)
(0 0 0)
(0 0 0)
(0 0 0)
(0 0 0)
(0 0 0)
(0 0 0)
(0 0 0)
(0 0 0)
(0 0 0)
(0 0 0)
(0 0 0)
(0 0 0)
(0 0 0)
(0 0 0)
(0 0 0)
(0 0 0)
(0 0 0)
(0 0 0)
(0 0 0)
(0 0 0)
(0 0 0)
(0 0 0)
(0 0 0)
(0 0 0)
(0 0 0)
(0 0 0)
(0 0 0)
(0 0 0)
(0 0 0)
(0 0 0)
(0 0 0)
(0 0 0)
(0 0 0)
(0 0 0)
(0 0 0)
(0 0 0)
(0 0 0)
(0 0 0)
(0 0 0)
(0 0 0)
(0 0 0)
(0 0 0)
(0 0 0)
(0 0 0)
(0 0 0)
(0 0 0)
(0 0 0)
(0 0 0)
(0 0 0)
(0 0 0)
(0 0 0)
(0 0 0)
(0 0 0)
(0 0 0)
(0 0 0)
(0 0 0)
(0 0 0)
(0 0 0)
(0 0 0)
(0 0 0)
(0 0 0)
(0 0 0)
(0 0 0)
(0 0 0)
(0 0 0)
(0 0 0)
(0 0 0)
(0 0 0)
(0 0 0)
(0 0 0)
(0 0 0)
(0 0 0)
(0 0 0)
(0 0 0)
(0 0 0)
(0 0 0)
(0 0 0)
(0 0 0)
(0 0 0)
(0 0 0)
(0 0 0)
(0 0 0)
(0 0 0)
(0 0 0)
(0 0 0)
(0 0 0)
(0 0 0)
(0 0 0)
(0 0 0)
(0 0 0)
(0 0 0)
(0 0 0)
(0 0 0)
(0 0 0)
(0 0 0)
(0 0 0)
(0 0 0)
(0 0 0)
(0 0 0)
(0 0 0)
(0 0 0)
(0 0 0)
(0 0 0)
(0 0 0)
(0 0 0)
(0 0 0)
(0 0 0)
(0 0 0)
(0 0 0)
(0 0 0)
(0 0 0)
(0 0 0)
(0 0 0)
(0 0 0)
(0 0 0)
(0 0 0)
(0 0 0)
(0 0 0)
(0 0 0)
(0 0 0)
(0 0 0)
(0 0 0)
(0 0 0)
(0 0 0)
(0 0 0)
(0 0 0)
(0 0 0)
(0 0 0)
(0 0 0)
(0 0 0)
(0 0 0)
(0 0 0)
(0 0 0)
(0 0 0)
(0 0 0)
(0 0 0)
(0 0 0)
(0 0 0)
(0 0 0)
(0 0 0)
(0 0 0)
(0 0 0)
(0 0 0)
(0 0 0)
(0 0 0)
(0 0 0)
(0 0 0)
(0 0 0)
(0 0 0)
(0 0 0)
(0 0 0)
(0 0 0)
(0 0 0)
(0 0 0)
(0 0 0)
(0 0 0)
(0 0 0)
(0 0 0)
(0 0 0)
(0 0 0)
(0 0 0)
(0 0 0)
(0 0 0)
(0 0 0)
(0 0 0)
(0 0 0)
(0 0 0)
(0 0 0)
(0 0 0)
(0 0 0)
(0 0 0)
(0 0 0)
(0 0 0)
(0 0 0)
(0 0 0)
(0 0 0)
(0 0 0)
(0 0 0)
(0 0 0)
(0 0 0)
(0 0 0)
(0 0 0)
(0 0 0)
(0 0 0)
(0 0 0)
(0 0 0)
(0 0 0)
(0 0 0)
(0 0 0)
(0 0 0)
(0 0 0)
(0 0 0)
(0 0 0)
(0 0 0)
(0 0 0)
(0 0 0)
(0 0 0)
(0 0 0)
(0 0 0)
(0 0 0)
(0 0 0)
(0 0 0)
(0 0 0)
(0 0 0)
(0 0 0)
(0 0 0)
(0 0 0)
(0 0 0)
(0 0 0)
(0 0 0)
(0 0 0)
(0 0 0)
(0 0 0)
(0 0 0)
(0 0 0)
(0 0 0)
(0 0 0)
(0 0 0)
(0 0 0)
(0 0 0)
(0 0 0)
(0 0 0)
(0 0 0)
(0 0 0)
(0 0 0)
(0 0 0)
(0 0 0)
(0 0 0)
(0 0 0)
(0 0 0)
(0 0 0)
(0 0 0)
(0 0 0)
(0 0 0)
(0 0 0)
(0 0 0)
(0 0 0)
(0 0 0)
(0 0 0)
(0 0 0)
(0 0 0)
(0 0 0)
(0 0 0)
(0 0 0)
(0 0 0)
(0 0 0)
(0 0 0)
(0 0 0)
(0 0 0)
(0 0 0)
(0 0 0)
(0 0 0)
(0 0 0)
(0 0 0)
(0 0 0)
(0 0 0)
(0 0 0)
(0 0 0)
(0 0 0)
(0 0 0)
(0 0 0)
(0 0 0)
(0 0 0)
(0 0 0)
(0 0 0)
(0 0 0)
(0 0 0)
(0 0 0)
(0 0 0)
(0 0 0)
(0 0 0)
(0 0 0)
(0 0 0)
(0 0 0)
(0 0 0)
(0 0 0)
(0 0 0)
(0 0 0)
(0 0 0)
(0 0 0)
(0 0 0)
(0 0 0)
(0 0 0)
(0 0 0)
(0 0 0)
(0 0 0)
(0 0 0)
(0 0 0)
(0 0 0)
(0 0 0)
(0 0 0)
(0 0 0)
(0 0 0)
(0 0 0)
(0 0 0)
(0 0 0)
(0 0 0)
(0 0 0)
(0 0 0)
(0 0 0)
(0 0 0)
(0 0 0)
(0 0 0)
(0 0 0)
(0 0 0)
(0 0 0)
(0 0 0)
(0 0 0)
(0 0 0)
(0 0 0)
(0 0 0)
(0 0 0)
(0 0 0)
(0 0 0)
(0 0 0)
(0 0 0)
(0 0 0)
(0 0 0)
(0 0 0)
(0 0 0)
(0 0 0)
(0 0 0)
(0 0 0)
(0 0 0)
(0 0 0)
(0 0 0)
(0 0 0)
(0 0 0)
(0 0 0)
(0 0 0)
(0 0 0)
(0 0 0)
(0 0 0)
(0 0 0)
(0 0 0)
(0 0 0)
(0 0 0)
(0 0 0)
(0 0 0)
(0 0 0)
(0 0 0)
(0 0 0)
(0 0 0)
(0 0 0)
(0 0 0)
(0 0 0)
(0 0 0)
(0 0 0)
(0 0 0)
(0 0 0)
(0 0 0)
(0 0 0)
(0 0 0)
(0 0 0)
(0 0 0)
(0 0 0)
(0 0 0)
(0 0 0)
(0 0 0)
(0 0 0)
(0 0 0)
(0 0 0)
(0 0 0)
(0 0 0)
(0 0 0)
(0 0 0)
(0 0 0)
(0 0 0)
(0 0 0)
(0 0 0)
(0 0 0)
(0 0 0)
(0 0 0)
(0 0 0)
(0 0 0)
(0 0 0)
(0 0 0)
(0 0 0)
(0 0 0)
(0 0 0)
(0 0 0)
(0 0 0)
(0 0 0)
(0 0 0)
(0 0 0)
(0 0 0)
(0 0 0)
(0 0 0)
(0 0 0)
(0 0 0)
(0 0 0)
(0 0 0)
(0 0 0)
(0 0 0)
(0 0 0)
(0 0 0)
(0 0 0)
(0 0 0)
(0 0 0)
(0 0 0)
(0 0 0)
(0 0 0)
(0 0 0)
(0 0 0)
(0 0 0)
(0 0 0)
(0 0 0)
(0 0 0)
(0 0 0)
(0 0 0)
(0 0 0)
(0 0 0)
(0 0 0)
(0 0 0)
(0 0 0)
(0 0 0)
(0 0 0)
(0 0 0)
(0 0 0)
(0 0 0)
(0 0 0)
(0 0 0)
(0 0 0)
(0 0 0)
(0 0 0)
(0 0 0)
(0 0 0)
(0 0 0)
(0 0 0)
(0 0 0)
(0 0 0)
(0 0 0)
(0 0 0)
(0 0 0)
(0 0 0)
(0 0 0)
(0 0 0)
(0 0 0)
(0 0 0)
(0 0 0)
(0 0 0)
(0 0 0)
(0 0 0)
(0 0 0)
(0 0 0)
(0 0 0)
(0 0 0)
(0 0 0)
(0 0 0)
(0 0 0)
(0 0 0)
(0 0 0)
(0 0 0)
(0 0 0)
(0 0 0)
(0 0 0)
(0 0 0)
(0 0 0)
(0 0 0)
(0 0 0)
(0 0 0)
(0 0 0)
(0 0 0)
(0 0 0)
(0 0 0)
(0 0 0)
(0 0 0)
(0 0 0)
(0 0 0)
(0 0 0)
(0 0 0)
(0 0 0)
(0 0 0)
(0 0 0)
(0 0 0)
(0 0 0)
(0 0 0)
(0 0 0)
(0 0 0)
(0 0 0)
(0 0 0)
(0 0 0)
(0 0 0)
(0 0 0)
(0 0 0)
(0 0 0)
(0 0 0)
(0 0 0)
(0 0 0)
(0 0 0)
(0 0 0)
(0 0 0)
(0 0 0)
(0 0 0)
(0 0 0)
(0 0 0)
(0 0 0)
(0 0 0)
(0 0 0)
(0 0 0)
(0 0 0)
(0 0 0)
(0 0 0)
(0 0 0)
(0 0 0)
(0 0 0)
(0 0 0)
(0 0 0)
(0 0 0)
(0 0 0)
(0 0 0)
(0 0 0)
(0 0 0)
(0 0 0)
(0 0 0)
(0 0 0)
(0 0 0)
(0 0 0)
(0 0 0)
(0 0 0)
(0 0 0)
(0 0 0)
(0 0 0)
(0 0 0)
(0 0 0)
(0 0 0)
(0 0 0)
(0 0 0)
(0 0 0)
(0 0 0)
(0 0 0)
(0 0 0)
(0 0 0)
(0 0 0)
(0 0 0)
(0 0 0)
(0 0 0)
(0 0 0)
(0 0 0)
(0 0 0)
(0 0 0)
(0 0 0)
(0 0 0)
(0 0 0)
(0 0 0)
(0 0 0)
(0 0 0)
(0 0 0)
(0 0 0)
(0 0 0)
(0 0 0)
(0 0 0)
(0 0 0)
(0 0 0)
(0 0 0)
(0 0 0)
(0 0 0)
(0 0 0)
(0 0 0)
(0 0 0)
(0 0 0)
(0 0 0)
(0 0 0)
(0 0 0)
(0 0 0)
(0 0 0)
(0 0 0)
(0 0 0)
(0 0 0)
(0 0 0)
(0 0 0)
(0 0 0)
(0 0 0)
(0 0 0)
(0 0 0)
(0 0 0)
(0 0 0)
(0 0 0)
(0 0 0)
(0 0 0)
(0 0 0)
(0 0 0)
(0 0 0)
(0 0 0)
(0 0 0)
(0 0 0)
(0 0 0)
(0 0 0)
(0 0 0)
(0 0 0)
(0 0 0)
(0 0 0)
(0 0 0)
(0 0 0)
(0 0 0)
(0 0 0)
(0 0 0)
(0 0 0)
(0 0 0)
(0 0 0)
(0 0 0)
(0 0 0)
(0 0 0)
(0 0 0)
(0 0 0)
(0 0 0)
(0 0 0)
(0 0 0)
(0 0 0)
(0 0 0)
(0 0 0)
(0 0 0)
(0 0 0)
(0 0 0)
(0 0 0)
(0 0 0)
(0 0 0)
(0 0 0)
(0 0 0)
(0 0 0)
(0 0 0)
(0 0 0)
(0 0 0)
(0 0 0)
(0 0 0)
(0 0 0)
(0 0 0)
(0 0 0)
(0 0 0)
(0 0 0)
(0 0 0)
(0 0 0)
(0 0 0)
(0 0 0)
(0 0 0)
(0 0 0)
(0 0 0)
(0 0 0)
(0 0 0)
(0 0 0)
(0 0 0)
(0 0 0)
(0 0 0)
(0 0 0)
(0 0 0)
(0 0 0)
(0 0 0)
(0 0 0)
(0 0 0)
(0 0 0)
(0 0 0)
(0 0 0)
(0 0 0)
(0 0 0)
(0 0 0)
(0 0 0)
(0 0 0)
(0 0 0)
(0 0 0)
(0 0 0)
(0 0 0)
(0 0 0)
(0 0 0)
(0 0 0)
(0 0 0)
(0 0 0)
(0 0 0)
(0 0 0)
(0 0 0)
(0 0 0)
(0 0 0)
(0 0 0)
(0 0 0)
(0 0 0)
(0 0 0)
(0 0 0)
(0 0 0)
(0 0 0)
(0 0 0)
(0 0 0)
(0 0 0)
(0 0 0)
(0 0 0)
(0 0 0)
(0 0 0)
(0 0 0)
(0 0 0)
(0 0 0)
(0 0 0)
(0 0 0)
(0 0 0)
(0 0 0)
(0 0 0)
(0 0 0)
(0 0 0)
(0 0 0)
(0 0 0)
(0 0 0)
(0 0 0)
(0 0 0)
(0 0 0)
(0 0 0)
(0 0 0)
(0 0 0)
(0 0 0)
(0 0 0)
(0 0 0)
(0 0 0)
(0 0 0)
(0 0 0)
(0 0 0)
(0 0 0)
(0 0 0)
(0 0 0)
(0 0 0)
(0 0 0)
(0 0 0)
(0 0 0)
(0 0 0)
(0 0 0)
(0 0 0)
(0 0 0)
(0 0 0)
(0 0 0)
(0 0 0)
(0 0 0)
(0 0 0)
(0 0 0)
(0 0 0)
(0 0 0)
(0 0 0)
(0 0 0)
(0 0 0)
(0 0 0)
(0 0 0)
(0 0 0)
(0 0 0)
(0 0 0)
(0 0 0)
(0 0 0)
(0 0 0)
(0 0 0)
(0 0 0)
(0 0 0)
(0 0 0)
(0 0 0)
(0 0 0)
(0 0 0)
(0 0 0)
(0 0 0)
(0 0 0)
(0 0 0)
(0 0 0)
(0 0 0)
(0 0 0)
(0 0 0)
(0 0 0)
(0 0 0)
(0 0 0)
(0 0 0)
(0 0 0)
(0 0 0)
(0 0 0)
(0 0 0)
(0 0 0)
(0 0 0)
(0 0 0)
(0 0 0)
(0 0 0)
(0 0 0)
(0 0 0)
(0 0 0)
(0 0 0)
(0 0 0)
(0 0 0)
(0 0 0)
(0 0 0)
(0 0 0)
(0 0 0)
(0 0 0)
(0 0 0)
(0 0 0)
(0 0 0)
(0 0 0)
(0 0 0)
(0 0 0)
(0 0 0)
(0 0 0)
(0 0 0)
(0 0 0)
(0 0 0)
(0 0 0)
(0 0 0)
(0 0 0)
(0 0 0)
(0 0 0)
(0 0 0)
(0 0 0)
(0 0 0)
(0 0 0)
(0 0 0)
(0 0 0)
(0 0 0)
(0 0 0)
(0 0 0)
(0 0 0)
(0 0 0)
(0 0 0)
(0 0 0)
(0 0 0)
(0 0 0)
(0 0 0)
(0 0 0)
(0 0 0)
(0 0 0)
(0 0 0)
(0 0 0)
(0 0 0)
(0 0 0)
(0 0 0)
(0 0 0)
(0 0 0)
(0 0 0)
(0 0 0)
(0 0 0)
(0 0 0)
(0 0 0)
(0 0 0)
(0 0 0)
(0 0 0)
(0 0 0)
(0 0 0)
(0 0 0)
(0 0 0)
(0 0 0)
(0 0 0)
(0 0 0)
(0 0 0)
(0 0 0)
(0 0 0)
(0 0 0)
(0 0 0)
(0 0 0)
(0 0 0)
(0 0 0)
(0 0 0)
(0 0 0)
(0 0 0)
(0 0 0)
(0 0 0)
(0 0 0)
(0 0 0)
(0 0 0)
(0 0 0)
(0 0 0)
(0 0 0)
(0 0 0)
(0 0 0)
(0 0 0)
(0 0 0)
(0 0 0)
(0 0 0)
(0 0 0)
(0 0 0)
(0 0 0)
(0 0 0)
(0 0 0)
(0 0 0)
(0 0 0)
(0 0 0)
(0 0 0)
(0 0 0)
(0 0 0)
(0 0 0)
(0 0 0)
(0 0 0)
(0 0 0)
(0 0 0)
(0 0 0)
(0 0 0)
(0 0 0)
(0 0 0)
(0 0 0)
(0 0 0)
(0 0 0)
(0 0 0)
(0 0 0)
(0 0 0)
(0 0 0)
(0 0 0)
(0 0 0)
(0 0 0)
(0 0 0)
(0 0 0)
(0 0 0)
(0 0 0)
(0 0 0)
(0 0 0)
(0 0 0)
(0 0 0)
(0 0 0)
(0 0 0)
(0 0 0)
(0 0 0)
(0 0 0)
(0 0 0)
(0 0 0)
(0 0 0)
(0 0 0)
(0 0 0)
(0 0 0)
(0 0 0)
(0 0 0)
(0 0 0)
(0 0 0)
(0 0 0)
(0 0 0)
(0 0 0)
(0 0 0)
(0 0 0)
(0 0 0)
(0 0 0)
(0 0 0)
(0 0 0)
(0 0 0)
(0 0 0)
(0 0 0)
(0 0 0)
(0 0 0)
(0 0 0)
(0 0 0)
(0 0 0)
(0 0 0)
(0 0 0)
(0 0 0)
(0 0 0)
(0 0 0)
(0 0 0)
(0 0 0)
(0 0 0)
(0 0 0)
(0 0 0)
(0 0 0)
(0 0 0)
(0 0 0)
(0 0 0)
(0 0 0)
(0 0 0)
(0 0 0)
(0 0 0)
(0 0 0)
(0 0 0)
(0 0 0)
(0 0 0)
(0 0 0)
(0 0 0)
(0 0 0)
(0 0 0)
(0 0 0)
(0 0 0)
(0 0 0)
(0 0 0)
(0 0 0)
(0 0 0)
(0 0 0)
(0 0 0)
(0 0 0)
(0 0 0)
(0 0 0)
(0 0 0)
(0 0 0)
(0 0 0)
(0 0 0)
(0 0 0)
(0 0 0)
(0 0 0)
(0 0 0)
(0 0 0)
(0 0 0)
(0 0 0)
(0 0 0)
(0 0 0)
(0 0 0)
(0 0 0)
(0 0 0)
(0 0 0)
(0 0 0)
(0 0 0)
(0 0 0)
(0 0 0)
(0 0 0)
(0 0 0)
(0 0 0)
(0 0 0)
(0 0 0)
(0 0 0)
(0 0 0)
(0 0 0)
(0 0 0)
(0 0 0)
(0 0 0)
(0 0 0)
(0 0 0)
(0 0 0)
(0 0 0)
(0 0 0)
(0 0 0)
(0 0 0)
(0 0 0)
(0 0 0)
(0 0 0)
(0 0 0)
(0 0 0)
(0 0 0)
(0 0 0)
(0 0 0)
(0 0 0)
(0 0 0)
(0 0 0)
(0 0 0)
(0 0 0)
(0 0 0)
(0 0 0)
(0 0 0)
(0 0 0)
(0 0 0)
(0 0 0)
(0 0 0)
(0 0 0)
(0 0 0)
(0 0 0)
(0 0 0)
(0 0 0)
(0 0 0)
(0 0 0)
(0 0 0)
(0 0 0)
(0 0 0)
(0 0 0)
(0 0 0)
(0 0 0)
(0 0 0)
(0 0 0)
(0 0 0)
(0 0 0)
(0 0 0)
(0 0 0)
(0 0 0)
(0 0 0)
(0 0 0)
(0 0 0)
(0 0 0)
(0 0 0)
(0 0 0)
(0 0 0)
(0 0 0)
(0 0 0)
(0 0 0)
(0 0 0)
(0 0 0)
(0 0 0)
(0 0 0)
(0 0 0)
(0 0 0)
(0 0 0)
(0 0 0)
(0 0 0)
(0 0 0)
(0 0 0)
(0 0 0)
(0 0 0)
(0 0 0)
(0 0 0)
(0 0 0)
(0 0 0)
(0 0 0)
(0 0 0)
(0 0 0)
(0 0 0)
(0 0 0)
(0 0 0)
(0 0 0)
(0 0 0)
(0 0 0)
(0 0 0)
(0 0 0)
(0 0 0)
(0 0 0)
(0 0 0)
(0 0 0)
(0 0 0)
(0 0 0)
(0 0 0)
(0 0 0)
(-0.022704 0.0139865 -0.00375117)
(-0.0381492 0.0122807 -0.0133694)
(-0.0530102 0.0149992 0.00228656)
(-0.0644012 0.0141555 -0.00650013)
(-0.0240711 0.0177565 -0.0147495)
(-0.0530116 0.0481035 -0.023522)
(-0.0299425 0.0435693 -0.0359191)
(-0.00494342 0.0243946 -0.0310859)
(0.0156467 -0.00647102 -0.00889161)
(-0.00426753 0.014953 -0.00718222)
(-0.0123248 0.0278707 5.64198e-07)
(0.0320821 0.00820646 -0.00308331)
(0.0238728 0.0275244 0.00145551)
(-0.0243407 0.0175621 -0.00153295)
(-0.0302556 0.0230265 -0.00453795)
(-0.0015857 0.0163728 0.00217869)
(-0.00623553 0.0112485 -0.00566231)
(-0.0565222 0.117835 -0.0238805)
(-0.0481584 0.106647 -0.0230961)
(-0.0441274 0.100586 -0.0270276)
(-0.0652668 0.112083 -0.00522398)
(-0.0119951 0.0444695 -0.0208685)
(-0.000711786 0.0154246 -0.0209451)
(-0.0464259 0.0588037 -0.0272349)
(-0.00561099 0.00815327 -0.0237367)
(0.00589285 0.000992156 -0.005385)
(0.0452666 -0.0447474 -0.0192308)
(0.0108697 -0.0144965 -0.00784364)
(0.038377 -0.0361826 -0.033556)
(0.0915781 -0.0400505 -0.00965259)
(0.0565125 -0.00433194 0.0100744)
(0.0910052 -0.0462191 -0.0233921)
(0.111895 -0.064963 -0.00734019)
(-0.0158965 0.00219264 0.000615291)
(-0.0277987 0.0172817 -0.000855121)
(-0.00715521 -0.0194972 -0.000761389)
(-0.0554116 0.0268388 0.00299852)
(-0.0449736 0.012595 -0.00566222)
(-0.0551407 0.0174658 0.00303387)
(-0.0640033 0.00399339 -0.00150508)
(-0.0553447 -0.00389375 -0.00242041)
(-0.0511024 0.0206313 -0.00483641)
(-0.0403225 -0.00399121 -0.0211112)
(-0.0578653 -0.00333053 -0.00746171)
(-0.0517608 -0.00547226 -0.026131)
(0.000674365 -0.00250499 -0.020319)
(0.00643822 -0.00279499 -0.0182493)
(0.00324846 -0.000331656 0.00156519)
(0.010038 -0.0044381 -0.007736)
(0.0328778 -0.00305551 -0.028087)
(0.0317333 0.00600032 -0.00633387)
(0.0872544 -0.0142282 -0.0277158)
(0.109138 -0.0316132 -0.00691777)
(0.0710211 0.00638469 -0.00791985)
(0.104189 -0.0092839 -0.00697548)
(0.0242564 -0.0163393 -0.0018686)
(-0.0644051 0.0178048 0.00435759)
(0.0480615 -0.00319127 -0.00143774)
(-0.0412249 0.0164966 0.000661084)
(-0.0716659 0.0104249 0.00331691)
(-0.0828645 -0.0180969 -0.00650677)
(-0.0586129 0.021143 0.00423052)
(-0.0965358 0.00154809 -0.00446684)
(-0.0902657 -0.0248996 -0.0245411)
(-0.0581194 -0.00212035 -0.0360191)
(-0.12586 -0.00928625 -0.0412883)
(-0.0584631 0.00309441 -0.0372329)
(-0.00163673 0.000240961 -0.0231136)
(0.00492213 0.000692776 0.0016788)
(-0.0102691 0.0070621 -0.022475)
(0.0161205 0.00127152 -0.00564507)
(0.0350431 0.00353377 -0.00314409)
(0.0580965 -0.00874801 -0.00406996)
(0.0119955 -0.000865843 -0.00483045)
(0.0226298 -0.00477219 -0.00337363)
(0.0464293 -0.0187741 0.000840757)
(-0.0314696 0.0100223 0.00300842)
(0.023217 -0.0154643 -0.00142935)
(-0.00472291 0.000282069 -0.00194377)
(-0.0492764 0.0233388 0.00188728)
(-0.0826604 0.0122154 0.00107622)
(-0.0310274 0.014625 0.00171827)
(-0.0649563 0.00970323 -0.00926056)
(-0.107339 0.00732806 -0.030527)
(-0.0452787 0.0143399 -0.026736)
(-0.0629728 0.0163331 -0.0206983)
(-0.0295011 0.0137296 -0.0138221)
(-0.0108617 1.00894e-05 -0.021498)
(0.00963955 -0.00365032 -0.00771455)
(0.00801998 -0.00639636 -0.00255572)
(-0.00272444 -0.00124555 -0.00123652)
(-0.00103489 -0.000237041 -0.000129911)
(-0.0065146 0.00241414 4.67384e-05)
(-0.0366236 0.00383849 -0.0216997)
(-0.0013473 0.000675638 -0.00222049)
(-0.0291753 0.00781288 -0.0228904)
(-0.0709393 0.076859 -0.00530481)
(-0.0737067 0.0699986 -0.00874332)
(-0.134145 0.0414744 0.000420783)
(-0.167686 0.0942259 0.0587492)
(-0.169378 0.0785645 0.0234124)
(-0.10304 0.0219836 -0.00284073)
(-0.113228 0.0894633 0.0436939)
(-0.133615 0.0707594 0.0146849)
(-0.137842 0.0473768 -0.0541654)
(-0.094684 0.00641199 -0.0832837)
(-0.109845 0.00415804 -0.014054)
(-0.146429 0.0244003 -0.0339674)
(-0.130631 -0.0280332 -0.0668874)
(-0.0606649 -0.00678945 -0.0786836)
(-0.0997256 -0.0397341 -0.0593189)
(0.0506686 -0.0553339 -0.0813779)
(0.0261001 -0.015588 -0.0224148)
(-0.00848529 0.0903742 0.0139592)
(0.0705339 -0.0158639 -0.0277075)
(0.0815988 0.0400274 0.0274404)
(0.00712349 0.00721261 -0.0137252)
(-0.0303706 0.0812076 0.0170938)
(0.06363 -0.0224339 0.00183012)
(0.0942966 0.0126861 0.0425413)
(-0.0179544 0.0060688 -0.0866776)
(-0.0944049 0.0365769 -0.0736349)
(-0.0239937 0.0117073 -0.0980592)
(-0.107409 -0.0315035 -0.0533523)
(-0.0722261 -0.036953 -0.0543463)
(-0.132143 -0.0168093 -0.0509362)
(-0.0852133 -0.0144265 -0.0557701)
(0.0115391 -0.00689298 -0.105621)
(-0.0474016 0.00623971 0.00709714)
(0.0567678 -0.0706002 -0.10594)
(0.0332632 -0.0200459 -0.0877377)
(0.0522533 -0.0438427 -0.120994)
(0.0254838 -0.0204289 -0.0119873)
(0.0285607 0.00369795 -0.039003)
(0.0348835 -0.0133962 -0.0227302)
(-0.0248035 0.0249726 -0.0887299)
(0 0 0)
(-0.039311 0.0296553 -0.0655439)
(-0.0563868 0.0355902 -0.0963894)
(0 0 0)
(0.0562358 0.0022504 -0.121645)
(0.059335 0.0455586 -0.0863614)
(0.0218535 0.0188566 -0.0455727)
(0.0374551 0.00489517 -0.0245747)
(0.0363845 0.0151077 -0.0257231)
(0.020516 -0.0267555 -0.0531655)
(-0.0597659 0.0432517 -0.100573)
(-0.0730216 0.0474396 -0.0665751)
(0.00306841 0.0110422 -0.0170126)
(-0.0746728 0.0768474 -0.0882021)
(0.0443226 0.0383874 -0.112277)
(0.0190495 0.008806 -0.0462422)
(0.100462 0.00623703 -0.0545276)
(0.0386214 0.0226809 -0.102634)
(0.0398571 -0.00649864 -0.0919442)
(0.0546487 0.00963878 -0.0409502)
(0.0879291 -0.0178241 -0.0354132)
(0.0228306 0.0112621 -0.0569456)
(0.0138467 -0.0231341 -0.0609999)
(-0.0825623 0.0467193 -0.0833638)
(-0.0925763 0.0207651 -0.0800046)
(-0.0662876 0.0413349 -0.0791314)
(-0.114106 0.0155521 -0.0856695)
(-0.0914272 0.0685847 -0.0949889)
(-0.0877151 0.012531 -0.0897188)
(-0.0719366 0.0493733 -0.0999274)
(-0.0586508 0.0728984 -0.0816071)
(-0.00816724 -0.0160178 -0.134676)
(-0.0435097 -0.0263591 -0.0812469)
(-0.0674684 -0.0192295 -0.0994405)
(-0.0669405 -0.0143841 -0.109383)
(-0.0997085 -0.0385712 -0.0719333)
(-0.0862916 -0.0306475 -0.0695914)
(-0.077023 -0.0153979 -0.0713015)
(-0.0629257 -0.0180461 -0.118196)
(-0.0595732 -0.00777503 -0.0981533)
(-0.0564356 -0.0324263 -0.0615368)
(-0.0421792 -0.0106703 -0.079485)
(-0.060978 -0.0104792 -0.0592161)
(-0.0445417 0.00953584 -0.0900864)
(-0.0165075 0.0469971 0.0433478)
(-0.0080749 0.0324424 0.0450677)
(-0.107784 0.0207236 0.000319222)
(-0.0685261 0.078883 0.0508129)
(-0.118219 0.064906 0.0298497)
(-0.0861652 0.0147056 -0.0171071)
(-0.0484229 0.0586736 0.0514627)
(-0.093771 0.0459029 0.0316769)
(-0.146234 0.0159694 -0.0193693)
(-0.131006 -0.0354245 -0.0503578)
(-0.0841315 -0.00188579 -0.0407455)
(-0.118422 0.00420127 -0.027617)
(-0.106744 -0.0307173 -0.0567072)
(-0.104418 -0.0536688 -0.0390083)
(-0.0940366 -0.042874 -0.0522026)
(0.0182556 -0.00236904 0.041133)
(0.00746115 0.016186 0.087043)
(0.0265716 0.0523491 0.0877633)
(0.0492836 -0.0235429 0.069256)
(0.0918625 -0.0052344 0.115215)
(0.0149592 0.00658894 0.0762881)
(0.0440966 0.0420076 0.130587)
(0.0357791 -0.00940731 0.132912)
(0.105764 -0.0258046 0.210459)
(-0.0879454 -0.0516807 0.011222)
(-0.145382 -0.0211019 0.0130022)
(-0.112477 -0.0138062 0.03192)
(-0.12452 -0.0514157 -0.039895)
(-0.0789972 -0.058493 0.0108746)
(-0.140985 -0.0349453 0.0196167)
(-0.109119 -0.0424132 0.0616223)
(-0.0760235 0.0139068 0.0878212)
(-0.0649462 -0.00281083 0.112954)
(0.0120222 -0.00483238 0.0434113)
(0.00695708 0.0190446 0.0262796)
(0.0154806 -0.000569521 0.0352605)
(-0.000266467 0.0166093 0.111305)
(0.00227394 0.0248889 0.0687924)
(-0.00342284 0.020439 0.11079)
(-0.10221 0.0129301 0.0104518)
(0 0 0)
(-0.0288337 0.00930802 0.117332)
(-0.0531834 0.00940415 0.105553)
(-0.0222615 0.024892 0.270281)
(0.0200523 0.00623219 0.0301487)
(0.0257417 0.0031925 0.0367332)
(0.00419974 0.0192862 0.0688224)
(0.00610934 0.0125226 0.105206)
(0.015159 -0.0061664 0.112215)
(0 0 0)
(-0.105373 0.114138 0.0235723)
(-0.0852096 0.0882945 0.138054)
(-0.0428333 0.0306019 0.30665)
(-0.0486815 0.136423 0.119407)
(0.00862982 -0.00271205 0.0208777)
(-0.000716851 -0.0187919 0.102083)
(0.0543409 -0.0484672 0.0424492)
(0.0109028 -0.0115617 0.00904768)
(-0.00421617 -0.0397924 0.0160392)
(0.00480382 -0.0364602 0.119404)
(0.0257469 -0.069386 0.119162)
(-0.00110995 -0.0255023 0.0997676)
(-0.024934 -0.0506269 0.0997332)
(-0.0735932 0.0860461 0.0386747)
(-0.0899502 0.0552666 0.0219076)
(-0.0713979 0.0700612 0.0200017)
(-0.0811977 0.0927078 0.116369)
(-0.068014 0.113687 0.109238)
(-0.0781359 0.0709448 0.105344)
(-0.0728548 0.0776192 0.099664)
(-0.0587189 0.109048 0.101809)
(-0.0573455 -0.032882 -0.00926848)
(-0.0732984 -0.0381152 0.0776627)
(-0.103578 -0.0397579 0.0132846)
(-0.0903897 -0.014125 0.0132753)
(-0.131336 -0.0435863 0.0860835)
(-0.112116 -0.035027 0.0876635)
(-0.0893161 -0.0151329 0.0840743)
(-0.037619 -0.00860566 0.0104778)
(-0.0695831 -0.0045367 0.0147821)
(-0.0623262 -0.0297532 0.0995439)
(-0.0694277 0.0263604 0.10588)
(-0.070608 -0.00669029 0.101826)
(-0.0691915 0.0395406 0.0958794)
(-0.0154992 0.0257973 0.0391204)
(-0.0379075 0.0304243 0.0325775)
(-0.0517499 0.00757088 -0.0351814)
(-0.0480508 0.0437762 0.0439788)
(-0.0751698 0.0259632 0.0269785)
(-0.0313465 -0.00489599 -0.0557721)
(-0.0674479 0.0324967 0.0259811)
(-0.080627 -0.0193751 0.012943)
(-0.0783063 -0.00892524 -0.0301035)
(-0.0735492 -0.0295133 -0.0499397)
(0.000846419 -0.0231369 -0.0848224)
(-0.0422764 -0.0983874 -0.0189527)
(0.0902556 -0.0425504 -0.110418)
(-0.0841387 -0.0397385 -0.0585288)
(-0.0931604 -0.0401244 -0.0576469)
(-0.00120051 0.0192552 0.0978873)
(-0.0119822 0.0258475 0.095476)
(0.0355242 0.0293786 0.148939)
(0.0224463 0.00122592 0.16688)
(0.0945871 -0.0387726 0.298256)
(-0.0113268 0.0206574 0.0778473)
(-0.0104207 0.0299601 0.158863)
(-0.00204565 0.0111662 0.190455)
(0.0538211 -0.0592225 0.370754)
(-0.0861147 -0.0565355 -0.0434583)
(-0.135268 -0.00663961 -0.0179899)
(-0.113917 -0.00586434 -0.00278213)
(-0.125854 -0.0629942 -0.0956583)
(-0.0873817 -0.0390513 -0.0861114)
(-0.125178 -0.017234 -0.0499722)
(-0.105496 -0.0152959 -0.0620156)
(-0.0468705 -0.0190555 0.0709697)
(-0.0328868 -0.0109268 -0.00494308)
(-0.00640868 0.0262534 0.142043)
(-0.00120645 0.0254678 0.0908849)
(-0.0101747 0.0261331 0.161671)
(-0.0203622 0.0307696 0.16617)
(-0.00476744 0.0263274 0.109787)
(-0.0332942 0.0280408 0.210709)
(-0.0937018 0.0201765 0.130157)
(-0.0365509 0.0128742 0.297274)
(-0.0422168 0.0168203 0.0429283)
(-0.082844 0.0454421 0.0732208)
(-0.0159472 0.030527 0.172304)
(-0.000528179 0.00857445 0.159965)
(0.00563406 -0.0202939 0.159298)
(-0.00305621 0.0129529 0.111795)
(-0.0205755 0.00607964 0.217093)
(-0.0108481 -0.0263464 0.204274)
(-0.0448883 0.0675493 0.334451)
(-0.0634909 0.147676 0.162531)
(-0.0860417 0.12301 0.133211)
(-0.0288111 0.0882503 0.228466)
(-0.0566539 0.148957 0.153724)
(-0.0136447 -0.0383652 0.149548)
(-0.0229575 -0.0427246 0.178493)
(-0.0154312 -0.0773 0.216785)
(-0.0198198 -0.0457488 0.187121)
(-0.0436735 -0.0588008 0.199626)
(-0.049235 -0.0655883 0.273196)
(-0.0655296 -0.0757024 0.327254)
(-0.0441694 -0.0613492 0.243035)
(-0.0683187 -0.0688305 0.300954)
(-0.0684794 0.0965408 0.139644)
(-0.0565683 0.0658217 0.204169)
(-0.058319 0.0667095 0.150468)
(-0.0150599 0.0776135 0.206494)
(-0.0574796 0.0876697 0.170785)
(-0.0123238 0.0523255 0.247703)
(-0.0391439 0.0514849 0.189346)
(-0.0742813 0.111064 0.164295)
(-0.0750901 -0.0404908 0.1686)
(-0.0768951 -0.0468681 0.26596)
(-0.104365 -0.0301069 0.189008)
(-0.0722369 -0.0164334 0.172275)
(-0.104768 -0.0442314 0.282902)
(-0.0774581 -0.0197934 0.288554)
(-0.0340782 -0.0121992 0.264538)
(-0.0535929 0.0298984 0.203076)
(-0.0689878 -0.00740947 0.184742)
(-0.0192787 -0.000349578 0.289229)
(-0.00483071 0.0246891 0.254009)
(-0.0432312 -0.0170771 0.282999)