# Probe 0 (0 0 0.01)
#       Probe             0
#        Time
       0.0001        1899.5
       0.0002       1.95238
       0.0003       9.72567
       0.0004       10.6418
       0.0005       11.6275
       0.0006       12.4567
       0.0007       13.0137
       0.0008        13.333
       0.0009       13.4458
        0.001       13.4079
       0.0011       10.5971
       0.0012       9.31747
       0.0013        8.4351
       0.0014       7.76005
       0.0015       7.19393
       0.0016       6.71746
       0.0017       6.30654
       0.0018       5.95252
       0.0019       5.64502
        0.002       5.37869
       0.0021       7.06598
       0.0022       6.92586
       0.0023       6.79436
       0.0024        6.6703
       0.0025       6.55649
       0.0026       6.45421
       0.0027       6.36325
       0.0028       6.28252
       0.0029       6.21101
        0.003       6.14778
       0.0031       6.08391
       0.0032       6.01148
       0.0033       5.94832
       0.0034       5.89997
       0.0035       5.85948
       0.0036       5.82528
       0.0037       5.79579
       0.0038       5.77069
       0.0039       5.75102
        0.004       5.73237
       0.0041        6.0447
       0.0042       6.09495
       0.0043       6.13619
       0.0044       6.16726
       0.0045       6.19265
       0.0046        6.2146
       0.0047       6.23462
       0.0048       6.25344
       0.0049       6.27145
        0.005       6.28891
       0.0051       6.02402
       0.0052       6.02532
       0.0053       6.03751
       0.0054       6.05331
       0.0055       6.06586
       0.0056       6.08358
       0.0057       6.10166
       0.0058       6.11459
       0.0059       6.13447
        0.006       6.15434
       0.0061       5.89201
       0.0062       5.91507
       0.0063       5.93994
       0.0064       5.96414
       0.0065       5.98837
       0.0066       6.01165
       0.0067        6.0371
       0.0068       6.05487
       0.0069       6.08052
        0.007       6.10117
       0.0071       5.85752
       0.0072       5.85789
       0.0073       5.85803
       0.0074       5.86366
       0.0075       5.87134
       0.0076        5.8816
       0.0077       5.89321
       0.0078       5.90592
       0.0079       5.91976
        0.008       5.93417
       0.0081       5.74712
       0.0082        5.8023
       0.0083       5.86108
       0.0084       5.91738
       0.0085       5.97175
       0.0086       6.02434
       0.0087       6.07629
       0.0088       6.12746
       0.0089       6.17832
        0.009       6.22842
       0.0091       6.07169
       0.0092       6.14056
       0.0093       6.21062
       0.0094         6.276
       0.0095       6.33996
       0.0096       6.40126
       0.0097       6.46076
       0.0098       6.51931
       0.0099       6.57691
         0.01       6.63374
       0.0101       6.35984
       0.0102       6.40455
       0.0103       6.45964
       0.0104       6.51787
       0.0105       6.57895
       0.0106       6.64178
       0.0107        6.7094
       0.0108       6.77506
       0.0109        6.8432
        0.011         6.911
       0.0111       6.61192
       0.0112       6.65636
       0.0113       6.71402
       0.0114        6.7738
       0.0115        6.8384
       0.0116       6.90308
       0.0117       6.96882
       0.0118       7.03664
       0.0119        7.1033
        0.012       7.16994
       0.0121       6.92355
       0.0122       6.99419
       0.0123       7.06677
       0.0124       7.14111
       0.0125       7.21623
       0.0126        7.2927
       0.0127       7.36881
       0.0128       7.44471
       0.0129        7.5201
        0.013       7.59559
       0.0131       7.43654
       0.0132       7.52155
       0.0133       7.60678
       0.0134       7.69569
       0.0135       7.78683
       0.0136       7.87874
       0.0137       7.97144
       0.0138       8.06502
       0.0139       8.15867
        0.014       8.25403
       0.0141       8.19712
       0.0142        8.3137
       0.0143       8.42747
       0.0144        8.5384
       0.0145       8.64563
       0.0146       8.75277
       0.0147       8.85933
       0.0148       8.96474
       0.0149       9.06967
        0.015         9.174
       0.0151       9.12929
       0.0152       9.24251
       0.0153       9.35536
       0.0154       9.46954
       0.0155       9.58434
       0.0156       9.69985
       0.0157       9.81533
       0.0158       9.93247
       0.0159       10.0499
        0.016       10.1671
       0.0161       10.2093
       0.0162       10.3566
       0.0163       10.5019
       0.0164       10.6464
       0.0165       10.7907
       0.0166       10.9355
       0.0167         11.08
       0.0168       11.2248
       0.0169       11.3696
        0.017       11.5145
       0.0171       11.6095
       0.0172       11.7605
       0.0173       11.9106
       0.0174       12.0588
       0.0175       12.2059
       0.0176       12.3526
       0.0177       12.4988
       0.0178       12.6444
       0.0179       12.7899
        0.018        12.935
       0.0181       13.0538
       0.0182       13.2151
       0.0183       13.3751
       0.0184       13.5361
       0.0185        13.697
       0.0186       13.8585
       0.0187       14.0202
       0.0188       14.1818
       0.0189       14.3434
        0.019       14.5056
       0.0191       14.6937
       0.0192       14.9039
       0.0193       15.1052
       0.0194       15.3046
       0.0195       15.5022
       0.0196       15.6989
       0.0197       15.8948
       0.0198       16.0904
       0.0199       16.2852
         0.02       16.4804
       0.0201       16.7657
       0.0202       17.0755
       0.0203       17.3955
       0.0204       17.7226
       0.0205       18.0542
       0.0206       18.3913
       0.0207       18.7287
       0.0208       19.0674
       0.0209       19.4065
        0.021       19.7459
       0.0211       20.0339
       0.0212          20.3
       0.0213        20.556
       0.0214       20.8062
       0.0215       21.0521
       0.0216       21.2951
       0.0217       21.5374
       0.0218        21.778
       0.0219       22.0183
        0.022       22.2593
       0.0221       22.6406
       0.0222       22.9716
       0.0223       23.2964
       0.0224        23.619
       0.0225       23.9412
       0.0226       24.2635
       0.0227       24.5868
       0.0228        24.911
       0.0229       25.2367
        0.023       25.5643
       0.0231       25.9342
       0.0232       26.2938
       0.0233       26.6599
       0.0234       27.0293
       0.0235       27.4036
       0.0236       27.7842
       0.0237        28.175
       0.0238       28.5661
       0.0239       28.9635
        0.024       29.3673
       0.0241       29.8703
       0.0242       30.3125
       0.0243       30.7599
       0.0244       31.2094
       0.0245       31.6671
       0.0246       32.1298
       0.0247        32.599
       0.0248       33.0741
       0.0249       33.5565
        0.025        34.046
       0.0251       34.7442
       0.0252       35.3637
       0.0253       35.9864
       0.0254       36.6164
       0.0255       37.2528
       0.0256        37.896
       0.0257       38.5464
       0.0258       39.2084
       0.0259       39.8786
        0.026       40.5592
       0.0261       41.4999
       0.0262       42.3427
       0.0263       43.1925
       0.0264       44.0525
       0.0265       44.9227
       0.0266       45.8021
       0.0267       46.6942
       0.0268       47.5944
       0.0269       48.5083
        0.027       49.4346
       0.0271       50.6171
       0.0272       51.7135
       0.0273       52.8208
       0.0274       53.9416
       0.0275       55.0749
       0.0276       56.2218
       0.0277       57.3802
       0.0278       58.5517
       0.0279       59.7359
        0.028        60.935
       0.0281       62.2312
       0.0282        63.437
       0.0283       64.6526
       0.0284       65.8792
       0.0285       67.1134
       0.0286        68.359
       0.0287       69.6096
       0.0288       70.8707
       0.0289       72.1369
        0.029       73.4114
       0.0291       74.6703
       0.0292       75.8893
       0.0293       77.1075
       0.0294       78.3289
       0.0295       79.5475
       0.0296       80.7672
       0.0297       81.9882
       0.0298       83.2096
       0.0299        84.431
         0.03       85.6523
       0.0301       86.8871
       0.0302        88.049
       0.0303       89.2006
       0.0304       90.3446
       0.0305       91.4849
       0.0306       92.5657
       0.0307       93.7011
       0.0308       94.8304
       0.0309       95.9548
        0.031       97.0717
       0.0311       98.2486
       0.0312       99.3149
       0.0313       100.367
       0.0314        101.41
       0.0315       102.442
       0.0316       103.464
       0.0317       104.478
       0.0318        105.48
       0.0319       106.474
        0.032       107.455
       0.0321       108.695
       0.0322        109.65
       0.0323       110.595
       0.0324        111.53
       0.0325       112.453
       0.0326       113.367
       0.0327       114.268
       0.0328       115.161
       0.0329       116.046
        0.033       116.917
       0.0331        118.23
       0.0332       119.093
       0.0333       119.947
       0.0334       120.791
       0.0335       121.623
       0.0336       122.446
       0.0337       123.254
       0.0338       124.052
       0.0339       124.841
        0.034       125.623
       0.0341       126.748
       0.0342       127.516
       0.0343       128.269
       0.0344       129.013
       0.0345       129.746
       0.0346       130.469
       0.0347       131.181
       0.0348       131.885
       0.0349       132.579
        0.035       133.265
       0.0351       134.307
       0.0352        134.99
       0.0353       135.675
       0.0354       136.353
       0.0355       137.019
       0.0356        137.68
       0.0357       138.333
       0.0358       138.978
       0.0359       139.616
        0.036       140.244
       0.0361       140.409
       0.0362       140.925
       0.0363       141.434
       0.0364       141.932
       0.0365       142.424
       0.0366       142.907
       0.0367       143.382
       0.0368       143.846
       0.0369       144.306
        0.037       144.762
       0.0371       144.856
       0.0372       145.179
       0.0373       145.503
       0.0374       145.827
       0.0375       146.148
       0.0376       146.466
       0.0377       146.782
       0.0378       147.097
       0.0379       147.444
        0.038       147.754
       0.0381       147.357
       0.0382        147.41
       0.0383       147.476
       0.0384       147.543
       0.0385       147.614
       0.0386        147.68
       0.0387       147.753
       0.0388       147.823
       0.0389       147.896
        0.039       147.968
       0.0391       147.487
       0.0392       147.307
       0.0393       147.135
       0.0394       146.969
       0.0395       146.807
       0.0396       146.653
       0.0397       146.495
       0.0398       146.341
       0.0399       146.182
         0.04       146.029
       0.0401       145.535
       0.0402       145.167
       0.0403       144.801
       0.0404       144.435
       0.0405       144.068
       0.0406       143.705
       0.0407        143.34
       0.0408       142.968
       0.0409       142.596
        0.041       142.228
       0.0411       141.701
       0.0412       141.204
       0.0413       140.709
       0.0414       140.213
       0.0415       139.724
       0.0416       139.238
       0.0417       138.754
       0.0418        138.27
       0.0419       137.789
        0.042       137.309
       0.0421       136.678
       0.0422       136.075
       0.0423       135.473
       0.0424       134.875
       0.0425       134.275
       0.0426       133.681
       0.0427       133.088
       0.0428       132.499
       0.0429       131.912
        0.043       131.328
       0.0431       130.683
       0.0432       130.025
       0.0433        129.37
       0.0434       128.716
       0.0435       128.069
       0.0436       127.424
       0.0437       126.785
       0.0438       126.147
       0.0439       125.515
        0.044       124.887
       0.0441       124.228
       0.0442       123.575
       0.0443       122.926
       0.0444       122.283
       0.0445       121.645
       0.0446       121.013
       0.0447       120.385
       0.0448       119.762
       0.0449       119.144
        0.045       118.531
       0.0451       117.866
       0.0452       117.251
       0.0453       116.643
       0.0454       116.042
       0.0455       115.448
       0.0456       114.859
       0.0457       114.278
       0.0458       113.703
       0.0459       113.133
        0.046       112.571
       0.0461       111.969
       0.0462        111.44
       0.0463       110.921
       0.0464        110.41
       0.0465       109.906
       0.0466       109.411
       0.0467       108.921
       0.0468       108.436
       0.0469       107.959
        0.047       107.488
       0.0471       107.033
       0.0472       106.575
       0.0473       106.121
       0.0474       105.673
       0.0475       105.231
       0.0476       104.798
       0.0477       104.371
       0.0478        103.95
       0.0479       103.536
        0.048       103.129
       0.0481       102.719
       0.0482        102.33
       0.0483       101.949
       0.0484       101.575
       0.0485       101.208
       0.0486       100.849
       0.0487       100.495
       0.0488       100.149
       0.0489       99.8104
        0.049       99.4772
       0.0491        99.089
       0.0492       98.7669
       0.0493       98.4561
       0.0494        98.153
       0.0495       97.8567
       0.0496       97.5695
       0.0497       97.2904
       0.0498        97.019
       0.0499       96.7547
         0.05          96.5
       0.0501       96.2891
       0.0502       96.0585
       0.0503        95.832
       0.0504       95.6146
       0.0505        95.402
       0.0506       95.1982
       0.0507       95.0001
       0.0508       94.8086
       0.0509       94.6266
        0.051       94.4511
       0.0511       94.1944
       0.0512       94.0438
       0.0513       93.9061
       0.0514        93.778
       0.0515       93.6587
       0.0516        93.548
       0.0517       93.4423
       0.0518       93.3445
       0.0519       93.2534
        0.052       93.1694
       0.0521       93.0905
       0.0522       93.0005
       0.0523       92.9166
       0.0524       92.8371
       0.0525        92.765
       0.0526       92.7014
       0.0527       92.6414
       0.0528       92.5914
       0.0529       92.5459
        0.053       92.5074
       0.0531       92.4331
       0.0532       92.3679
       0.0533        92.304
       0.0534       92.2512
       0.0535       92.2018
       0.0536       92.1564
       0.0537       92.1176
       0.0538       92.0861
       0.0539       92.0576
        0.054       92.0363
       0.0541       91.9577
       0.0542       91.9217
       0.0543       91.8923
       0.0544       91.8697
       0.0545       91.8503
       0.0546       91.8382
       0.0547       91.8273
       0.0548       91.8254
       0.0549       91.8267
        0.055       91.8321
       0.0551       91.8225
       0.0552       91.8269
       0.0553        91.839
       0.0554       91.8536
       0.0555       91.8717
       0.0556       91.8987
       0.0557       91.9236
       0.0558       91.9585
       0.0559       91.9912
        0.056       92.0358
       0.0561       92.0584
       0.0562        92.087
       0.0563        92.121
       0.0564       92.1558
       0.0565       92.1957
       0.0566        92.238
       0.0567       92.2861
       0.0568       92.3361
       0.0569       92.3882
        0.057       92.4437
       0.0571       92.5345
       0.0572       92.5844
       0.0573       92.6307
       0.0574       92.6837
       0.0575        92.736
       0.0576       92.7941
       0.0577       92.8513
       0.0578       92.9154
       0.0579       92.9779
        0.058       93.0442
       0.0581       92.9858
       0.0582       93.0293
       0.0583       93.0764
       0.0584       93.1278
       0.0585       93.1831
       0.0586       93.2357
       0.0587       93.2931
       0.0588       93.3493
       0.0589       93.4083
        0.059       93.4675
       0.0591       93.5187
       0.0592       93.5582
       0.0593       93.5918
       0.0594       93.6384
       0.0595       93.6744
       0.0596       93.7215
       0.0597       93.7628
       0.0598        93.809
       0.0599       93.8538
         0.06       93.9046
       0.0601       93.9922
       0.0602       94.0378
       0.0603       94.0738
       0.0604       94.1175
       0.0605       94.1626
       0.0606       94.2131
       0.0607       94.2645
       0.0608       94.3142
       0.0609       94.3757
        0.061       94.4351
       0.0611       94.4006
       0.0612       94.4518
       0.0613       94.5199
       0.0614       94.5802
       0.0615       94.6474
       0.0616       94.7126
       0.0617        94.784
       0.0618       94.8531
       0.0619       94.9308
        0.062       95.0066
       0.0621       95.0671
       0.0622       95.1413
       0.0623        95.226
       0.0624       95.3099
       0.0625       95.4077
       0.0626       95.5001
       0.0627       95.5991
       0.0628       95.6986
       0.0629       95.8037
        0.063        95.913
       0.0631       96.0861
       0.0632       96.2197
       0.0633       96.3551
       0.0634        96.496
       0.0635       96.6417
       0.0636       96.7983
       0.0637       96.9522
       0.0638       97.1161
       0.0639       97.2808
        0.064       97.4528
       0.0641       97.6444
       0.0642       97.8329
       0.0643       98.0252
       0.0644        98.224
       0.0645       98.4288
       0.0646       98.6352
       0.0647       98.8486
       0.0648       99.0648
       0.0649        99.286
        0.065       99.5119
       0.0651       99.6503
       0.0652        99.842
       0.0653       100.041
       0.0654       100.241
       0.0655       100.446
       0.0656       100.652
       0.0657       100.861
       0.0658       101.075
       0.0659       101.293
        0.066       101.513
       0.0661       101.621
       0.0662       101.786
       0.0663       101.954
       0.0664       102.122
       0.0665       102.294
       0.0666       102.463
       0.0667       102.638
       0.0668        102.81
       0.0669       102.986
        0.067       103.164
       0.0671        103.33
       0.0672       103.437
       0.0673       103.547
       0.0674       103.662
       0.0675       103.776
       0.0676       103.891
       0.0677       104.008
       0.0678       104.124
       0.0679       104.243
        0.068       104.361
       0.0681        104.31
       0.0682       104.341
       0.0683       104.374
       0.0684       104.402
       0.0685       104.433
       0.0686       104.458
       0.0687       104.487
       0.0688       104.511
       0.0689       104.538
        0.069       104.562
       0.0691       104.571
       0.0692       104.517
       0.0693       104.456
       0.0694       104.397
       0.0695       104.331
       0.0696       104.269
       0.0697         104.2
       0.0698       104.135
       0.0699       104.063
         0.07       103.995
       0.0701       103.783
       0.0702       103.637
       0.0703        103.49
       0.0704       103.343
       0.0705       103.195
       0.0706       103.047
       0.0707       102.897
       0.0708       102.747
       0.0709       102.595
        0.071       102.442
       0.0711       102.281
       0.0712       102.057
       0.0713       101.829
       0.0714       101.601
       0.0715       101.371
       0.0716        101.14
       0.0717       100.909
       0.0718       100.675
       0.0719        100.44
        0.072       100.206
       0.0721        99.812
       0.0722       99.5136
       0.0723       99.2191
       0.0724       98.9226
       0.0725       98.6251
       0.0726        98.327
       0.0727        98.027
       0.0728       97.7276
       0.0729       97.4291
        0.073        97.128
       0.0731       96.8287
       0.0732       96.4925
       0.0733        96.153
       0.0734       95.8162
       0.0735       95.4772
       0.0736       95.1404
       0.0737       94.8034
       0.0738       94.4708
       0.0739       94.1369
        0.074       93.8037
       0.0741       93.3266
       0.0742       92.9558
       0.0743       92.5877
       0.0744       92.2219
       0.0745       91.8552
       0.0746       91.4916
       0.0747       91.1277
       0.0748       90.7692
       0.0749       90.4108
        0.075       90.0557
       0.0751       89.8347
       0.0752       89.4938
       0.0753       89.1549
       0.0754        88.822
       0.0755       88.4935
       0.0756       88.1702
       0.0757       87.8493
       0.0758       87.5338
       0.0759       87.2222
        0.076       86.9142
       0.0761       86.4804
       0.0762       86.1721
       0.0763       85.8724
       0.0764       85.5782
       0.0765       85.2881
       0.0766       85.0038
       0.0767       84.7235
       0.0768       84.4467
       0.0769        84.175
        0.077       83.9089
       0.0771       83.6414
       0.0772       83.4056
       0.0773       83.1809
       0.0774        82.962
       0.0775       82.7485
       0.0776       82.5401
       0.0777       82.3361
       0.0778       82.1383
       0.0779       81.9442
        0.078       81.7556
       0.0781       81.6508
       0.0782       81.5025
       0.0783       81.3587
       0.0784       81.2227
       0.0785        81.093
       0.0786       80.9678
       0.0787       80.8475
       0.0788       80.7302
       0.0789       80.6179
        0.079       80.5094
       0.0791       80.3468
       0.0792       80.2548
       0.0793       80.1717
       0.0794       80.0922
       0.0795       80.0162
       0.0796        79.942
       0.0797       79.8712
       0.0798       79.8035
       0.0799       79.7358
         0.08       79.6722
       0.0801       79.7642
       0.0802       79.7365
       0.0803       79.7037
       0.0804       79.6743
       0.0805       79.6462
       0.0806       79.6191
       0.0807        79.592
       0.0808       79.5665
       0.0809       79.5401
        0.081       79.5159
       0.0811       79.4025
       0.0812       79.3578
       0.0813       79.3168
       0.0814       79.2743
       0.0815       79.2354
       0.0816       79.1945
       0.0817       79.1507
       0.0818       79.1117
       0.0819       79.0711
        0.082       79.0255
       0.0821       78.9932
       0.0822       78.9394
       0.0823       78.8853
       0.0824       78.8378
       0.0825       78.7871
       0.0826       78.7407
       0.0827       78.6949
       0.0828       78.6444
       0.0829       78.5982
        0.083       78.5504
       0.0831       78.3673
       0.0832       78.2309
       0.0833       78.0912
       0.0834       77.9482
       0.0835        77.802
       0.0836       77.6519
       0.0837       77.4996
       0.0838        77.345
       0.0839       77.1878
        0.084       77.0283
       0.0841       76.7565
       0.0842       76.5592
       0.0843       76.3642
       0.0844       76.1684
       0.0845        75.971
       0.0846       75.7722
       0.0847       75.5726
       0.0848       75.3718
       0.0849       75.1693
        0.085       74.9647
       0.0851       74.6994
       0.0852       74.4619
       0.0853       74.2218
       0.0854       73.9844
       0.0855       73.7413
       0.0856       73.5021
       0.0857       73.2545
       0.0858       73.0138
       0.0859       72.7619
        0.086       72.5207
       0.0861        72.341
       0.0862       72.1008
       0.0863       71.8289
       0.0864       71.5947
       0.0865         71.31
       0.0866       71.0916
       0.0867       70.7833
       0.0868       70.5924
       0.0869       70.2394
        0.087       70.1068
       0.0871       69.6636
       0.0872       69.6252
       0.0873       69.0276
       0.0874        69.192
       0.0875        68.315
       0.0876        68.747
       0.0877       67.7117
       0.0878       68.2326
       0.0879       67.1228
        0.088       67.7051
       0.0881       66.7333
       0.0882       67.3596
       0.0883        66.253
       0.0884       66.8361
       0.0885       65.7898
       0.0886       66.3178
       0.0887        65.323
       0.0888       65.8109
       0.0889        64.848
        0.089       65.3143
       0.0891       64.2916
       0.0892       64.7461
       0.0893       63.7858
       0.0894       64.2527
       0.0895       63.2832
       0.0896       63.7636
       0.0897       62.7855
       0.0898       63.2752
       0.0899       62.2948
         0.09       62.7852
       0.0901       61.6536
       0.0902       62.1598
       0.0903       61.2103
       0.0904       61.7232
       0.0905        60.783
       0.0906       61.2978
       0.0907       60.3659
       0.0908       60.8799
       0.0909       59.9545
        0.091       60.4688
       0.0911       59.7466
       0.0912       60.2794
       0.0913         59.42
       0.0914       59.9159
       0.0915       59.0982
       0.0916       59.5616
       0.0917       58.7759
       0.0918        59.217
       0.0919       58.4535
        0.092        58.884
       0.0921        58.072
       0.0922       58.5085
       0.0923       57.7723
       0.0924        58.207
       0.0925       57.4863
       0.0926       57.9099
       0.0927       57.2116
       0.0928       57.6143
       0.0929       56.9481
        0.093       57.3225
       0.0931       56.6452
       0.0932       57.0029
       0.0933       56.4188
       0.0934       56.7607
       0.0935       56.1885
       0.0936       56.5333
       0.0937       55.9546
       0.0938       56.3153
       0.0939       55.7225
        0.094       56.1047
       0.0941       55.5835
       0.0942       56.0136
       0.0943       55.4152
       0.0944       55.8501
       0.0945        55.266
       0.0946       55.6819
       0.0947       55.1301
       0.0948       55.5099
       0.0949       55.0049
        0.095       55.3365
       0.0951        54.856
       0.0952       55.1447
       0.0953       54.7608
       0.0954        55.019
       0.0955       54.6692
       0.0956       54.8914
       0.0957       54.5858
       0.0958       54.7614
       0.0959       54.5078
        0.096       54.6334
       0.0961       54.4801
       0.0962       54.5769
       0.0963       54.4697
       0.0964       54.4927
       0.0965       54.4519
       0.0966       54.4348
       0.0967       54.4116
       0.0968       54.3925
       0.0969       54.3692
        0.097       54.3495
       0.0971       54.2275
       0.0972       54.2033
       0.0973       54.1828
       0.0974       54.1615
       0.0975       54.1361
       0.0976       54.1135
       0.0977       54.0894
       0.0978       54.0615
       0.0979       54.0358
        0.098       54.0071
       0.0981       54.0069
       0.0982       53.9886
       0.0983       53.9699
       0.0984       53.9486
       0.0985       53.9297
       0.0986       53.9105
       0.0987       53.8859
       0.0988       53.8645
       0.0989        53.842
        0.099        53.815
       0.0991       53.9138
       0.0992       53.9073
       0.0993       53.8976
       0.0994       53.8851
       0.0995       53.8747
       0.0996       53.8634
       0.0997       53.8511
       0.0998       53.8368
       0.0999       53.8204
          0.1       53.8049
       0.1001       53.6631
       0.1002       53.6364
       0.1003       53.6133
       0.1004       53.5858
       0.1005       53.5599
       0.1006       53.5271
       0.1007       53.4979
       0.1008       53.4628
       0.1009       53.4307
        0.101       53.3922
       0.1011       53.3548
       0.1012       53.3068
       0.1013        53.258
       0.1014       53.2087
       0.1015        53.158
       0.1016       53.1059
       0.1017       53.0518
       0.1018       52.9965
       0.1019       52.9396
        0.102       52.8811
       0.1021       52.8561
       0.1022        52.791
       0.1023       52.7173
       0.1024       52.6469
       0.1025       52.5739
       0.1026       52.4994
       0.1027       52.4232
       0.1028       52.3453
       0.1029       52.2659
        0.103       52.1845
       0.1031       52.0505
       0.1032       51.9717
       0.1033       51.8949
       0.1034       51.8172
       0.1035       51.7391
       0.1036       51.6591
       0.1037        51.579
       0.1038       51.4984
       0.1039       51.4165
        0.104       51.3347
       0.1041       51.2597
       0.1042       51.1573
       0.1043       51.0538
       0.1044       50.9486
       0.1045       50.8427
       0.1046       50.7354
       0.1047       50.6268
       0.1048       50.5168
       0.1049       50.4046
        0.105       50.2928
       0.1051       50.1558
       0.1052       50.0327
       0.1053       49.9102
       0.1054       49.7863
       0.1055       49.6621
       0.1056       49.5367
       0.1057       49.4108
       0.1058       49.2836
       0.1059       49.1557
        0.106       49.0281
       0.1061       48.8991
       0.1062       48.7726
       0.1063       48.6467
       0.1064       48.5203
       0.1065       48.3943
       0.1066       48.2676
       0.1067       48.1407
       0.1068       48.0131
       0.1069       47.8852