/*--------------------------------*- C++ -*----------------------------------*\
| =========                 |                                                 |
| \\      /  F ield         | OpenFOAM: The Open Source CFD Toolbox           |
|  \\    /   O peration     | Version:  5.x                                   |
|   \\  /    A nd           | Web:      www.OpenFOAM.org                      |
|    \\/     M anipulation  |                                                 |
\*---------------------------------------------------------------------------*/
FoamFile
{
    version     2.0;
    format      ascii;
    class       volScalarField;
    location    "7.1";
    object      p;
}
// * * * * * * * * * * * * * * * * * * * * * * * * * * * * * * * * * * * * * //

dimensions      [0 2 -2 0 0 0 0];

internalField   nonuniform List<scalar> 
10571
(
245.878
243.301
251.575
243.306
209.017
241.778
234.42
234.482
208.652
85.7357
241.453
237.871
231.352
217.505
192.563
38.7315
231.31
226.723
215.673
187.83
68.699
208.498
197.144
187.706
106.317
79.894
99.7943
53.3294
35.3594
87.3738
33.2939
22.8119
16.0879
20.0342
125.759
121.103
26.9199
12.7473
19.1709
24.1818
63.4853
25.4648
13.7035
28.5844
25.9905
28.357
18.895
28.3646
33.4365
19.3615
18.3919
22.3188
22.8718
17.4813
17.0186
18.9531
22.7821
22.7497
28.93
18.1898
17.3301
21.4289
20.7438
23.7826
20.0975
18.6657
21.8071
20.5063
23.0529
20.3253
21.3298
21.3085
19.9362
19.1555
19.0845
18.7846
19.2997
19.2372
20.75
19.4311
18.6954
21.5738
19.8125
19.475
20.7366
19.935
17.4418
21.4589
19.7309
20.5276
20.6513
19.165
20.0522
20.1778
20.6488
20.5567
17.9278
18.9778
19.2662
18.3003
17.1417
19.0441
19.6512
18.2198
16.9464
18.5037
18.8857
19.0442
19.7452
18.1819
16.8017
17.8248
19.1823
20.6832
18.3596
17.1048
16.6185
20.2384
19.8117
19.3515
15.5362
18.7502
18.5574
16.3255
14.3227
18.8876
19.3953
17.3232
15.4988
15.194
14.0636
18.5929
18.6832
19.5404
17.1477
15.0543
14.8157
14.1863
18.7034
20.5684
14.7202
13.8626
14.2179
19.5726
18.6016
14.2487
13.7618
15.0532
13.2541
13.345
13.8626
18.2248
16.4128
14.9095
13.6913
13.7209
14.019
18.0342
18.2051
16.7777
14.446
13.5977
14.0188
14.2027
17.9869
15.3937
13.159
13.8174
14.1785
14.2108
17.1176
13.2358
13.7195
13.4815
13.1966
13.5384
13.4555
13.7035
12.8302
12.5161
12.7392
13.6266
13.7983
13.786
15.1809
15.0521
12.4875
12.9248
13.7093
13.924
14.07
13.5954
12.4709
13.3018
13.7493
14.086
14.1951
12.977
13.3396
13.7001
13.4131
13.2541
13.4062
13.3899
13.5788
13.1556
13.3167
13.3357
13.8314
13.7244
14.2448
13.0604
12.9692
13.2026
13.3546
13.8722
13.8422
14.145
13.0869
13.3457
13.4021
13.626
13.6821
13.2073
13.3463
13.5934
13.4339
13.3316
13.4063
13.3681
13.5224
13.2423
13.4386
13.4448
13.7426
13.1672
13.0953
13.1657
13.3294
13.4326
13.7714
13.5615
13.1735
13.2192
13.3273
13.4047
13.3784
13.2653
13.3408
13.4686
13.3996
13.3594
13.3829
13.3173
13.4485
13.2898
13.3389
13.3415
13.4852
13.1286
13.1458
13.1669
13.249
13.3589
13.5082
13.3635
13.1676
13.2503
13.3204
13.3143
13.4227
13.2729
13.328
13.39
13.3717
13.3519
13.3377
13.2793
13.4075
13.3049
13.302
13.305
13.3943
13.3412
13.195
13.1655
13.2226
13.3618
13.4208
13.4652
13.1606
13.2447
13.292
13.3061
13.4243
13.2764
13.3167
13.3463
13.3572
13.3499
13.3158
13.2587
13.3695
13.34
13.2898
13.2893
13.3662
13.3554
13.2606
13.2393
13.2496
13.3532
13.3882
13.4341
13.2138
13.2421
13.2575
13.2769
13.4046
13.2791
13.2965
13.3087
13.3027
13.2817
13.2687
13.2171
13.3038
13.3459
13.2449
13.2398
13.3087
13.3058
13.2959
13.3093
13.2643
13.311
13.3569
13.3684
13.2555
13.2394
13.2313
13.2375
13.3723
13.2786
13.2745
13.2737
13.2416
13.2004
13.1673
13.1935
13.2286
13.2332
13.1831
13.1701
13.2356
13.2535
13.2695
13.2895
13.243
13.2715
13.326
13.3067
13.257
13.2246
13.1979
13.2015
13.3281
13.2695
13.2561
13.235
13.1568
12.9713
12.9498
13.1159
13.1551
13.1183
13.0961
13.1108
13.1759
13.1995
13.2108
13.2184
13.2069
13.2161
13.271
13.2523
13.2283
13.194
13.1448
13.1315
13.2526
13.2512
13.2346
13.1741
13.0559
12.8527
12.8402
13.0457
13.0911
13.0041
13.0274
13.0473
13.0952
13.1344
13.1538
13.1499
13.1292
13.1224
13.1466
13.1654
13.2007
13.1536
13.0634
13.0061
13.1356
13.2284
13.2191
13.0959
12.9997
12.8353
12.8393
13.0094
13.0089
12.9063
12.9479
12.9383
12.9749
13.0694
13.128
13.1006
13.0473
12.9573
12.9575
13.0486
13.1974
13.1174
12.9936
12.8257
13.0041
13.2102
13.2045
13.0458
12.9788
12.8928
12.8598
12.9546
12.9876
12.8806
12.8206
12.8051
12.936
13.0742
13.1567
13.1054
12.977
12.8457
12.8501
12.9884
13.2416
13.1281
12.996
12.751
12.9341
13.2178
13.1866
13.0978
12.9885
12.9946
12.8795
12.9244
13.0183
12.9631
12.7781
12.761
13.0451
13.1972
13.244
13.1783
12.9923
12.8664
12.875
13.1396
13.3406
13.2159
13.0694
12.898
13.033
13.2807
13.2137
13.2371
13.0173
13.1407
12.9395
12.8662
13.1454
13.1063
12.8734
12.8751
13.2861
13.4195
13.3662
13.2906
13.1185
13.0095
13.1699
13.499
13.4592
13.3583
13.2042
13.1567
13.2647
13.398
13.2978
13.3015
13.1432
13.357
13.1209
12.9726
13.3284
13.2923
12.9971
13.0053
13.4139
13.364
13.4882
13.4173
13.2951
13.209
13.4553
13.5962
13.5535
13.4971
13.3641
13.3718
13.4431
13.5277
13.4227
13.3282
13.3716
13.627
13.384
13.137
13.3126
13.5008
13.0954
13.0443
13.4656
13.6425
13.5835
13.5274
13.4441
13.3627
13.5521
13.3868
13.6063
13.5923
13.504
13.5146
13.4569
13.6265
13.5605
13.4351
13.7429
13.8482
13.7915
13.4398
12.9654
13.6429
13.3974
13.214
13.4679
13.5768
13.637
13.5971
13.5433
13.4834
13.5298
13.2925
13.6356
13.641
13.6072
13.5773
13.4462
13.6775
13.6479
13.5743
14.2973
13.9013
14.0977
14.0362
13.4521
13.6883
13.6248
13.5868
13.5845
13.5406
13.6629
13.6348
13.5988
13.5906
13.569
13.4129
13.655
13.6534
13.6706
13.601
13.5226
13.6976
13.6942
13.661
14.2862
13.8562
14.1007
14.1517
14.0416
13.7121
13.6854
13.7321
13.6575
13.6375
13.6886
13.662
13.6207
13.6456
13.5699
13.5617
13.6739
13.6589
13.7106
13.6588
13.6696
13.7036
13.7097
13.7201
14.0975
13.8326
13.9845
14.0184
13.968
13.7189
13.7041
13.7521
13.6754
13.7048
13.7141
13.6845
13.6478
13.6633
13.5563
13.6257
13.6972
13.6743
13.7039
13.6707
13.6786
13.7101
13.7088
13.7175
13.9589
13.8387
13.8854
13.9089
13.8758
13.736
13.7162
13.7467
13.683
13.7347
13.7356
13.7126
13.6802
13.6726
13.6107
13.6804
13.7238
13.6958
13.6953
13.673
13.6758
13.7264
13.7161
13.707
13.8875
13.8401
13.8339
13.8433
13.8322
13.7762
13.7367
13.7335
13.7088
13.755
13.7584
13.7449
13.717
13.7002
13.6821
13.7299
13.7524
13.7342
13.7165
13.6975
13.7249
13.7511
13.737
13.7275
13.8529
13.8319
13.8165
13.8171
13.8171
13.7972
13.7604
13.7345
13.7456
13.7715
13.7763
13.7686
13.7553
13.7396
13.7455
13.7762
13.7822
13.7681
13.7511
13.7394
13.7725
13.7695
13.7769
13.7652
13.8384
13.8193
13.8156
13.8107
13.8012
13.7959
13.7772
13.7538
13.7774
13.7881
13.7903
13.7829
13.7754
13.7675
13.7913
13.8064
13.8019
13.7811
13.7832
13.7908
13.8152
13.7884
13.8109
13.8255
13.8364
13.8146
13.8153
13.8124
13.7871
13.8008
13.7849
13.7809
13.7961
13.8001
13.7896
13.7825
13.7837
13.7802
13.8058
13.8217
13.8078
13.7944
13.7955
13.8225
13.8342
13.8084
13.8231
13.8514
13.8453
13.8204
13.8166
13.8207
13.781
13.8152
13.798
13.7946
13.8022
13.8068
13.8127
13.8035
13.7874
13.7875
13.8085
13.8256
13.7957
13.8159
13.8038
13.8346
13.8427
13.8245
13.8216
13.8464
13.8551
13.8285
13.8219
13.8338
13.7962
13.8363
13.8142
13.7939
13.8033
13.8094
13.8343
13.8374
13.7867
13.7856
13.8063
13.8229
13.7893
13.8243
13.8081
13.8371
13.8434
13.8254
13.8212
13.8439
13.8571
13.8272
13.8323
13.8393
13.8164
13.8362
13.8235
13.7951
13.8044
13.8131
13.8356
13.8707
13.7863
13.7686
13.8054
13.8198
13.8109
13.8172
13.8106
13.8334
13.8374
13.8218
13.8229
13.8421
13.8546
13.8166
13.842
13.839
13.8336
13.7976
13.8173
13.8049
13.8109
13.8192
13.8399
13.8542
13.812
13.7753
13.8113
13.823
13.8275
13.8242
13.8126
13.8308
13.8354
13.8241
13.8256
13.8398
13.8507
13.8191
13.8381
13.8371
13.8464
13.7826
13.8082
13.8158
13.8239
13.8308
13.833
13.825
13.8072
13.8039
13.8284
13.835
13.8286
13.8304
13.8182
13.8324
13.841
13.8318
13.8353
13.844
13.8511
13.8296
13.8267
13.8384
13.8564
13.7953
13.8082
13.8258
13.8426
13.8468
13.8316
13.827
13.8299
13.8414
13.8503
13.8515
13.8419
13.831
13.8306
13.8453
13.8553
13.8491
13.8494
13.8542
13.8693
13.8533
13.8291
13.8471
13.8653
13.8157
13.8184
13.8457
13.8644
13.8644
13.8347
13.8325
13.8707
13.8524
13.8672
13.8662
13.8499
13.8459
13.8504
13.8593
13.87
13.8677
13.8636
13.8669
13.9009
13.8821
13.8695
13.8925
13.8847
13.8432
13.8599
13.8832
13.8774
13.879
13.8459
13.841
13.8649
13.8533
13.8769
13.8766
13.8521
13.8588
13.8678
13.8729
13.8794
13.8744
13.8742
13.8779
13.9186
13.9004
13.9035
13.911
13.893
13.8775
13.9077
13.9019
13.8903
13.8904
13.8807
13.8709
13.8662
13.8683
13.882
13.8842
13.8594
13.8704
13.8796
13.8825
13.8855
13.8741
13.8795
13.885
13.9179
13.9134
13.9139
13.9174
13.9038
13.8957
13.9149
13.91
13.8988
13.8985
13.894
13.8936
13.8788
13.88
13.8842
13.8905
13.8802
13.8783
13.8847
13.8873
13.8919
13.8756
13.8813
13.8883
13.9172
13.9142
13.9169
13.9131
13.9069
13.8963
13.907
13.9093
13.9023
13.9033
13.9029
13.9045
13.8835
13.8868
13.8867
13.8971
13.9083
13.8881
13.887
13.8897
13.8993
13.886
13.8863
13.8899
13.9077
13.9078
13.9068
13.9094
13.9073
13.9007
13.9115
13.9081
13.9047
13.9069
13.9099
13.9068
13.8815
13.8905
13.8896
13.9053
13.921
13.8969
13.8874
13.8935
13.9067
13.9031
13.8927
13.894
13.9079
13.9103
13.9044
13.9081
13.9074
13.9126
13.9223
13.9107
13.9077
13.9099
13.9172
13.9088
13.8891
13.8935
13.8923
13.9148
13.9138
13.9008
13.8897
13.8971
13.9118
13.9248
13.9063
13.9033
13.9073
13.9121
13.9085
13.9087
13.9076
13.9148
13.9237
13.9135
13.91
13.9118
13.9256
13.9123
13.8993
13.8933
13.8949
13.9208
13.9188
13.8899
13.887
13.8964
13.9143
13.9317
13.9099
13.914
13.906
13.898
13.9059
13.9049
13.9064
13.8928
13.9116
13.916
13.9096
13.9112
13.9205
13.9048
13.8896
13.8901
13.8961
13.9201
13.9219
13.8786
13.8643
13.8935
13.9138
13.9218
13.8974
13.9094
13.902
13.854
13.8971
13.9007
13.9039
13.8451
13.8885
13.915
13.91
13.9083
13.9023
13.8842
13.8802
13.8884
13.8997
13.914
13.9194
13.8681
13.8478
13.8859
13.9139
13.9091
13.8795
13.8979
13.8973
13.8295
13.889
13.8937
13.8991
13.8163
13.8692
13.9074
13.9088
13.9043
13.8837
13.8649
13.8757
13.893
13.9041
13.9077
13.9134
13.857
13.8437
13.887
13.9148
13.896
13.8654
13.8894
13.8907
13.8558
13.8838
13.885
13.8946
13.8306
13.8572
13.8953
13.9037
13.8998
13.8767
13.8522
13.8693
13.8974
13.9025
13.9016
13.9045
13.8493
13.8456
13.8877
13.9093
13.8843
13.859
13.8845
13.8847
13.8794
13.8806
13.8762
13.8864
13.8475
13.8549
13.8824
13.8958
13.8932
13.8709
13.8387
13.8598
13.8975
13.8975
13.8958
13.8911
13.8432
13.8464
13.8843
13.9022
13.8737
13.8549
13.8846
13.8753
13.8895
13.876
13.8696
13.8765
13.8732
13.8526
13.8714
13.8842
13.8852
13.8628
13.8292
13.8472
13.8919
13.8909
13.8897
13.8763
13.8348
13.8447
13.8801
13.8924
13.8618
13.8505
13.8814
13.88
13.8797
13.866
13.8682
13.8675
13.8854
13.836
13.865
13.8704
13.8748
13.854
13.8245
13.8328
13.8752
13.8775
13.8798
13.8616
13.8266
13.8398
13.8705
13.8779
13.8504
13.8436
13.8714
13.8939
13.8589
13.8526
13.8668
13.864
13.8576
13.8206
13.8552
13.8548
13.8617
13.838
13.8101
13.8188
13.8504
13.8547
13.8625
13.848
13.8189
13.8266
13.8518
13.8589
13.8406
13.8344
13.8558
13.8803
13.8403
13.8397
13.854
13.8648
13.8361
13.8141
13.8358
13.8374
13.8485
13.8313
13.801
13.8109
13.8257
13.8259
13.8392
13.8376
13.8144
13.8096
13.8305
13.8338
13.8324
13.822
13.8354
13.8622
13.8279
13.8308
13.8411
13.8685
13.8187
13.8084
13.8081
13.821
13.8354
13.8262
13.808
13.7976
13.8036
13.797
13.8104
13.8322
13.8072
13.79
13.7973
13.8002
13.8227
13.8077
13.8093
13.855
13.8238
13.8274
13.833
13.8637
13.8109
13.7928
13.7822
13.7935
13.8158
13.8249
13.8127
13.7822
13.7795
13.7607
13.7733
13.8297
13.7966
13.7662
13.7675
13.7591
13.8132
13.793
13.7824
13.8583
13.8307
13.8332
13.8328
13.8461
13.8147
13.7926
13.7666
13.7552
13.7794
13.8312
13.8203
13.7804
13.7535
13.7106
13.7187
13.8355
13.7941
13.7453
13.7322
13.7092
13.8155
13.7821
13.7553
13.8732
13.8532
13.8506
13.8433
13.8288
13.8355
13.8087
13.7663
13.7077
13.7215
13.8658
13.8438
13.7984
13.7308
13.6484
13.637
13.8613
13.8131
13.7295
13.6851
13.6324
13.8305
13.7769
13.7258
13.9014
13.8975
13.8814
13.8651
13.8209
13.874
13.8368
13.7739
13.6284
13.614
13.9169
13.8937
13.8419
13.7215
13.553
13.4621
13.9145
13.8587
13.7148
13.6171
13.4987
13.86
13.7794
13.6935
13.9403
13.9665
13.9284
13.8967
13.8178
13.938
13.8909
13.7834
13.4931
13.3704
13.991
13.9663
13.9013
13.7231
13.4084
13.054
14.0003
13.9243
13.724
13.5044
13.2348
13.9082
13.7962
13.6609
13.9893
14.0512
13.9894
13.9365
13.8138
14.0283
13.9542
13.8042
13.3079
12.738
14.0933
14.0782
13.9807
13.7355
13.2206
12.1398
14.0953
14.0136
13.7517
13.3927
12.7311
13.9734
13.8298
13.6446
14.0476
14.14
14.06
13.9841
13.8077
14.1206
14.0208
13.8072
13.1073
11.0681
14.1867
14.1643
14.0572
13.7406
13.0379
10.7772
-7.69184
14.2104
14.1379
13.854
13.3008
11.6039
14.0431
13.8899
13.6732
14.114
14.2278
14.1303
14.0439
13.8257
14.2327
14.0805
13.8576
13.1051
9.50744
0.380734
14.2775
14.2359
14.0957
13.8043
13.0205
10.2399
0.6506
14.2531
14.2336
13.9688
13.3927
10.3896
14.0919
13.9631
13.7676
14.1883
14.2808
14.1875
14.1243
13.9047
14.3184
14.1653
13.9565
13.3516
10.519
2.59117
14.3634
14.3122
14.154
13.9167
13.1906
10.2728
3.11993
14.284
14.292
14.0951
13.654
11.3479
3.74156
14.1278
14.0515
13.9182
14.2695
14.2842
14.2137
14.2034
14.0531
14.3459
14.205
13.9912
13.5387
10.7473
2.69922
14.3844
14.3677
14.2683
14.0753
13.5091
10.9793
2.3613
14.3222
14.2882
14.2363
13.977
13.0174
14.2587
14.1448
14.099
14.3554
14.3125
14.2462
14.307
14.246
14.3312
14.2288
14.0921
13.7427
12.2516
14.373
14.3649
14.2888
14.121
13.6818
11.1968
-3.78079
14.3543
14.2677
14.2613
14.0031
13.8259
14.389
14.3073
14.2489
14.3652
14.3181
14.307
14.3312
14.3108
14.3122
14.2349
14.1598
13.9027
13.6988
14.341
14.3188
14.2402
14.1159
13.8237
13.3061
14.353
14.2757
14.2093
13.992
14.1425
14.3915
14.2954
14.2629
14.3648
14.3194
14.3256
14.3372
14.3384
14.2993
14.2287
14.1812
14.0647
14.1564
14.3014
14.2841
14.2008
14.1473
14.0296
14.1153
14.3307
14.2936
14.2231
14.1098
14.3444
14.3516
14.3119
14.3091
14.3628
14.3141
14.3301
14.3434
14.3515
14.2869
14.2307
14.2249
14.1976
14.3412
14.2803
14.256
14.211
14.2114
14.1974
14.3848
14.3074
14.301
14.3157
14.2989
14.4737
14.3503
14.3742
14.4518
14.3682
14.3084
14.3312
14.3494
14.3783
14.2834
14.2486
14.2735
14.3025
14.4202
14.275
14.2431
14.2372
14.2741
14.3432
14.4753
14.2978
14.3165
14.3788
14.4185
14.5244
14.3657
14.405
14.5126
14.3933
14.313
14.3441
14.3644
14.4119
14.2936
14.2893
14.3259
14.3803
14.4666
14.2937
14.2769
14.2991
14.3552
14.4284
14.4973
14.3169
14.379
14.4371
14.4902
14.5416
14.3979
14.4509
14.5381
14.4361
14.3295
14.3679
14.3952
14.454
14.3185
14.3353
14.3703
14.4263
14.4989
14.3347
14.3294
14.3584
14.4059
14.4619
14.5061
14.3758
14.432
14.4704
14.5011
14.5305
14.4601
14.494
14.5327
14.4913
14.3601
14.3828
14.4291
14.5048
14.3414
14.35
14.3798
14.4448
14.5195
14.3745
14.3721
14.3831
14.4097
14.4555
14.5147
14.4229
14.4593
14.4761
14.5026
14.5253
14.5317
14.543
14.5275
14.5303
14.4007
14.4068
14.4601
14.5442
14.3633
14.3713
14.4044
14.4661
14.5364
14.4043
14.3953
14.4066
14.4295
14.4695
14.5193
14.445
14.4805
14.4898
14.5046
14.5256
14.5783
14.567
14.5336
287.267
272.148
285.729
279.368
265.75
271.644
259.917
248.632
269.507
279.9
282.668
270.558
261.288
275.697
263.935
256.646
254.245
259.761
253.617
251.951
249.926
247.789
233.67
247.655
242.161
210.528
266.266
255.335
260.452
255.959
247.725
249.648
243.803
238.981
246.715
237.696
236.517
250.404
249.074
246.741
248.628
243.754
232.618
238.591
218.99
198.067
173.79
120.019
253.361
256.19
252.341
246.289
239.933
245.572
238.89
235.123
236.136
234.331
237.165
244.454
250.698
245.727
259.426
238.358
212.891
250.116
220.869
142.284
85.801
150.993
252.716
250.742
241.424
248.8
249.729
234.785
237.807
238.959
239.232
248.517
270.09
253.7
273.229
274.922
236.637
288.772
247.243
173.98
251.238
253.536
255.415
253.281
267.174
278.443
257.858
276.304
251.811
172.892
250.464
258.195
255.319
196.533
190.521
195.365
247.371
236.212
190.683
181.321
168.157
215.106
126.841
244.071
178.738
249.306
244.631
247.66
166.319
167.83
174.827
184.588
184.704
220.508
181.55
92.3211
61.5925
128.43
69.7623
137.411
37.0456
243.296
242.985
243.624
192.205
202.612
201.804
46.8929
27.6327
22.5851
20.8559
20.1233
241.433
238.054
201.413
200.293
190.641
23.5665
44.6861
22.7263
23.0923
22.7631
233.503
173.143
230.801
223.664
224.198
167.687
193.119
141.366
148.922
118.96
189.436
160.003
71.0856
49.0208
79.7647
70.1988
31.0967
212.593
122.402
206.819
185.494
124.621
91.7253
58.6701
179.047
175.234
37.7223
42.4426
28.0904
73.3325
79.9508
27.8319
120.978
111.64
120.582
65.8797
49.8287
61.3998
90.1767
81.235
52.8396
44.5058
34.9279
52.6815
29.1159
92.7781
35.2823
65.6662
70.7914
69.5795
29.234
22.1811
23.6278
20.4267
24.4721
42.2182
21.8761
24.9315
21.2672
22.1705
20.2262
20.8023
21.96
105.969
123.169
118.416
40.7501
57.5296
45.5104
22.5207
22.7902
22.2247
23.0641
22.753
123.263
113.513
61.359
53.1692
47.8211
24.5473
23.5805
24.392
23.9253
23.9102
88.2915
34.8272
99.0369
36.6117
43.3056
24.0016
22.2571
21.4265
20.2133
28.357
34.1482
36.2631
20.5672
23.3779
23.3158
26.0448
25.4493
27.377
19.3821
23.2733
20.8414
19.7005
19.7504
20.0893
20.9491
18.1477
20.6847
20.2228
20.8038
21.908
19.3708
19.8882
35.207
22.3376
27.7035
23.4007
19.9497
20.0962
29.6587
24.0364
23.2392
20.7004
20.6258
24.834
21.6547
20.2638
19.7397
18.5086
18.463
18.2728
19.6947
19.7109
19.774
19.8488
22.1751
20.2802
22.122
20.4985
22.1234
18.7505
21.889
22.4347
21.9174
20.6111
25.7077
22.1808
19.8802
20.6859
20.1775
22.9344
22.7761
22.5665
22.8919
22.6891
24.1114
23.2249
21.6558
20.3027
20.3745
23.1519
23.6992
22.9695
22.5297
23.3322
21.5852
20.5931
19.184
20.7631
19.6605
20.4285
19.7769
20.445
19.8199
22.1262
21.8268
22.8851
19.641
20.938
20.4642
21.0035
21.194
20.0949
20.17
20.6339
20.8098
20.1722
20.3222
20.5214
21.0441
21.6343
20.8662
20.8846
21.2167
20.748
19.3274
19.1428
20.1425
19.2239
19.0788
18.8871
18.9705
18.6446
18.9011
19.1398
18.6369
18.2645
18.4985
19.9889
18.553
19.1751
19.0509
19.2951
19.1688
19.482
19.0549
19.1699
19.0551
19.2573
21.1554
18.0047
19.9239
18.3414
19.0161
17.6002
18.2707
20.7016
18.9607
19.0088
19.5147
19.3495
18.7427
18.9407
18.841
22.0242
22.0842
19.8894
20.2409
21.0937
19.1687
19.3125
19.1115
18.7927
18.9896
21.4858
21.4562
19.6151
20.3525
18.8406
19.7668
19.4193
19.5599
19.7672
19.7392
19.4412
19.388
19.6329
19.8274
19.5613
19.781
19.7403
18.5904
18.2351
19.0456
18.296
18.6032
20.101
20.2184
20.1983
20.3269
20.2041
20.0599
20.2042
20.9707
20.7319
20.3132
20.9004
20.397
20.2495
19.0041
18.9135
18.2501
18.83
18.545
17.6889
18.6644
18.4222
18.0225
17.4255
17.0254
17.0823
15.3483
16.583
15.4017
18.9445
18.8432
19.1505
18.9227
19.1211
18.9402
19.0734
18.8021
19.0281
17.6202
17.2047
17.7627
15.6774
16.2913
17.1929
16.9367
18.0465
17.0192
18.553
18.6934
18.551
18.4489
18.4655
18.359
18.4842
19.672
16.9458
16.7695
15.2368
18.648
18.8946
18.7947
18.5848
18.8132
18.9854
16.9797
16.0509
15.2096
15.3214
19.1894
19.0266
19.295
19.5681
19.9044
18.9613
19.1511
19.3758
19.7435
16.0913
18.1937
16.5936
14.2617
14.4028
15.7319
15.1576
14.638
20.237
19.9668
19.908
20.0175
20.0657
19.7456
19.8356
20.415
19.8347
19.4104
19.322
19.4658
17.3063
18.7928
17.0015
16.567
17.9483
17.2347
15.0087
15.4305
14.6454
14.7953
14.3723
14.259
13.7563
14.1835
14.7488
14.3336
18.6919
17.8461
19.1782
18.663
19.0623
18.1058
17.3305
18.4091
17.5686
14.8441
16.4558
15.0059
13.8932
14.1994
14.1774
13.7823
15.2584
13.9645
18.3599
18.2708
18.2002
18.1071
17.9309
17.9614
13.8155
15.2338
14.9668
14.0921
13.9099
14.0993
14.0147
14.1839
14.1716
14.2903
14.0321
14.1146
14.1057
14.3261
18.5468
18.6635
18.3743
18.4454
18.4548
14.9809
14.3721
14.2613
14.1362
14.0389
14.1142
14.1839
14.3283
14.2018
14.284
14.1562
14.3534
14.1795
14.2647
18.8048
18.4737
18.9066
19.0031
19.2371
18.3856
18.6474
18.3936
18.4808
14.1774
13.8817
14.2243
13.9086
14.2014
13.8415
14.3029
14.2101
19.3531
18.6213
19.5778
19.7231
18.7549
19.1853
19.0814
16.3439
18.6669
15.6995
13.4118
16.5336
13.692
14.2021
13.5385
13.9619
14.0128
13.8708
13.5817
13.6583
13.6623
13.7471
14.0224
13.5928
13.6188
13.7738
14.0438
13.8287
16.1209
13.8657
13.6926
16.4126
13.589
13.5294
13.5978
13.3562
13.0914
13.9823
13.3697
13.7572
13.7887
13.9021
13.5133
13.7858
13.7699
14.1755
13.9228
14.5324
14.0038
14.0891
13.9418
14.0186
17.1742
17.366
17.6466
15.1244
16.1964
16.556
14.125
13.7973
14.1995
13.7893
14.2117
13.8591
14.178
14.1389
14.1719
14.2336
13.8444
14.0567
14.009
14.15
18.277
18.1685
17.1847
17.6739
17.3717
14.2194
14.1639
14.3293
13.9578
14.1662
14.0547
14.2486
14.2875
14.1983
14.2492
14.1182
14.2083
14.1144
14.2231
17.8988
16.4961
18.5566
17.2117
17.269
16.7898
16.6463
15.46
15.2632
14.087
13.8458
14.1341
13.7767
14.0263
13.8743
14.0466
14.364
14.1422
14.3885
14.2331
14.1875
14.2136
17.3888
15.0397
16.3578
15.5789
14.1818
13.1658
13.253
13.4662
13.5152
13.3474
13.3586
13.2979
13.7238
13.3799
13.3363
13.5029
13.5278
13.5191
13.4546
13.4419
13.4503
13.4769
13.5651
13.428
13.419
13.4786
13.6921
13.6223
13.4975
13.1374
13.4159
13.2488
13.382
13.209
13.3145
13.1924
13.3103
13.8114
13.5967
13.6954
13.6285
13.7036
13.5885
13.6163
14.031
14.6913
13.8826
14.7036
13.9852
14.0573
14.1672
14.206
13.3805
14.3665
13.9494
12.9906
13.166
12.9937
14.243
13.9107
14.143
13.7801
14.3548
13.8942
14.1609
14.0666
13.9251
14.1362
13.985
14.2446
13.9449
14.2123
15.0406
15.047
13.5115
13.0826
13.1512
14.1318
13.965
14.2177
13.9048
14.1612
13.8937
14.2203
14.185
14.1302
14.1979
14.0749
14.2282
14.1278
14.2436
14.4065
13.2853
13.1268
13.3213
13.0988
12.9157
13.0834
12.9771
13.1602
13.9736
13.8358
13.9453
13.7096
13.899
13.7694
13.8545
14.4004
13.9108
14.3586
14.2014
14.219
14.2331
13.1298
13.1366
13.1366
13.2324
13.082
13.1782
13.2045
13.3418
13.3162
13.3331
13.3295
13.3143
13.6519
13.349
13.3706
13.421
13.428
13.4149
13.4167
13.4293
13.4013
13.4005
13.459
13.4248
13.3939
13.4553
13.5836
13.5602
13.1413
13.1876
13.3033
13.1924
13.2607
13.2994
13.3285
13.2321
13.2669
13.6335
13.5642
13.6078
13.5519
13.6107
13.5122
13.6056
13.5564
13.1809
13.016
13.0296
13.042
13.0534
13.0641
13.0371
14.7574
13.7976
14.1971
13.4778
14.8214
13.6168
14.1274
14.3362
14.1426
14.3697
14.4341
14.4274
14.2449
14.4042
13.0199
13.0299
13.0636
13.0204
13.0519
14.2386
13.8114
14.3413
13.7246
14.1782
13.5776
14.1942
14.3022
14.1984
14.3042
14.196
14.294
14.2073
14.2858
13.1096
13.11
13.2107
13.1382
13.176
13.0812
13.1842
13.1237
13.1726
13.793
13.6839
13.7485
13.5166
13.697
13.5861
13.6732
13.4511
13.1945
13.1982
13.235
13.247
13.2348
13.2592
13.2695
13.3268
13.341
13.3473
13.3305
13.3443
13.5299
13.3841
13.3823
13.4156
13.4243
13.3999
13.4039
13.4117
13.393
13.3905
13.4453
13.4218
13.3817
13.4279
13.5325
13.498
13.2353
13.2709
13.3557
13.2725
13.2973
13.3522
13.3642
13.2973
13.3246
13.587
13.4616
13.5967
13.4844
13.5714
13.4178
13.5915
13.1346
13.3046
13.1297
13.0948
13.0766
13.188
13.1248
13.1105
13.3982
14.0696
13.0749
13.2037
11.8638
13.0725
13.0854
13.1258
13.1182
13.1095
14.1176
13.1884
13.3516
12.1654
13.106
13.1468
13.147
13.1804
13.173
13.2188
13.1523
13.1689
13.1611
13.1874
13.6149
13.4973
13.5964
13.3427
13.5493
13.4433
13.5434
13.4117
13.2289
13.2217
13.2675
13.2705
13.2653
13.2688
13.2764
13.3239
13.3365
13.3339
13.3184
13.3354
13.4213
13.371
13.3598
13.3904
13.3931
13.3833
13.3793
13.3779
13.3755
13.3674
13.4141
13.3828
13.3579
13.4045
13.4629
13.439
13.2987
13.3162
13.3583
13.3142
13.3367
13.3571
13.353
13.325
13.3358
13.5557
13.3754
13.5789
13.4244
13.5471
13.3523
13.5557
13.417
13.4667
13.2338
13.1611
13.1467
13.2683
13.1968
13.1849
13.2805
12.8383
13.2535
13.3903
13.3668
13.1411
13.1321
13.1666
13.1594
13.1562
12.9962
13.1862
13.4361
13.4294
13.3051
13.1561
13.165
13.1509
13.184
13.1906
13.158
13.1466
13.1925
13.1952
13.4982
13.4055
13.4953
13.3097
13.4617
13.3794
13.4656
13.4267
13.2312
13.2349
13.274
13.2824
13.2739
13.2808
13.288
13.3164
13.3305
13.323
13.3079
13.3266
13.3657
13.3539
13.3489
13.3697
13.3669
13.3666
13.3619
13.3563
13.3554
13.3532
13.397
13.3654
13.3485
13.3818
13.4204
13.4033
13.3244
13.3286
13.3482
13.3283
13.3295
13.3527
13.3406
13.3252
13.3305
13.5334
13.3403
13.5297
13.3914
13.5169
13.3336
13.5056
13.4695
13.4513
13.2949
13.2359
13.2217
13.3122
13.2748
13.2558
13.4278
13.4027
13.3669
13.416
13.3881
13.1887
13.1903
13.229
13.2255
13.2267
13.4536
13.3778
13.4603
13.4453
13.3969
13.1845
13.2149
13.1536
13.2065
13.2113
13.1861
13.174
13.2264
13.2344
13.4362
13.3576
13.4449
13.2935
13.4157
13.3343
13.4282
13.4179
13.2459
13.2586
13.2862
13.2906
13.2777
13.2882
13.2908
13.2957
13.3201
13.3078
13.2828
13.3131
13.3278
13.3409
13.3232
13.3523
13.3439
13.3454
13.3292
13.321
13.3248
13.3449
13.3603
13.3377
13.3341
13.3456
13.3825
13.3594
13.3298
13.3211
13.3302
13.3256
13.3272
13.324
13.3107
13.3217
13.3092
13.4873
13.3175
13.4739
13.3408
13.4547
13.2867
13.4379
13.4191
13.3841
13.3301
13.312
13.2884
13.3368
13.3367
13.318
13.3914
13.383
13.3315
13.3683
13.374
13.256
13.2549
13.2848
13.2803
13.2748
13.4248
13.3927
13.3991
13.4157
13.3838
13.2425
13.2636
13.1986
13.2446
13.2477
13.239
13.2196
13.2605
13.2582
13.3967
13.3119
13.4083
13.2558
13.3785
13.2895
13.3889
13.3891
13.2666
13.2734
13.2878
13.2888
13.2799
13.2855
13.285
13.2703
13.3019
13.2854
13.2587
13.2917
13.2907
13.2862
13.2339
13.2973
13.2869
13.2943
13.2657
13.2508
13.2643
13.3005
13.3231
13.2688
13.2722
13.29
13.3297
13.2922
13.2998
13.2606
13.279
13.3045
13.298
13.2584
13.2447
13.2587
13.2614
13.4157
13.2469
13.3938
13.2636
13.3751
13.2071
13.3448
13.3523
13.3187
13.3161
13.3363
13.323
13.2745
13.3098
13.2964
13.3511
13.3497
13.2808
13.3314
13.3264
13.2902
13.2835
13.2891
13.2833
13.2787
13.3948
13.372
13.3371
13.3684
13.358
13.2742
13.2733
13.234
13.2694
13.2647
13.2619
13.2425
13.2709
13.2636
13.3626
13.2695
13.3688
13.2182
13.3502
13.248
13.3515
13.3534
13.2763
13.2757
13.2819
13.2802
13.2757
13.2771
13.2744
13.2467
13.2818
13.2654
13.2345
13.2737
13.256
13.1412
13.0268
13.2304
13.1767
13.2249
13.1779
13.0644
13.1687
13.2518
13.2584
13.206
13.2163
13.2202
13.2586
13.2284
13.2135
13.1596
13.171
13.2005
13.1866
13.0873
13.0246
13.1248
13.0829
13.3293
13.1731
13.295
13.1956
13.2861
13.1412
13.249
13.2799
13.2392
13.2349
13.2693
13.2588
13.1937
13.2268
13.2189
13.3024
13.3024
13.2277
13.2682
13.276
13.2646
13.264
13.2413
13.2379
13.2426
13.3409
13.3378
13.2805
13.3203
13.3175
13.2625
13.2455
13.2413
13.2649
13.2592
13.2436
13.2312
13.2547
13.2482
13.3294
13.2245
13.3267
13.1711
13.2893
13.1902
13.2903
13.2951
13.2704
13.2619
13.2705
13.2665
13.2618
13.2627
13.2568
13.2203
13.2647
13.2456
13.2027
13.2542
13.2084
12.9261
12.835
13.1105
12.947
13.1029
13.0441
12.8943
13.0394
13.1636
13.1776
13.1059
13.1054
13.1409
13.19
13.148
13.0944
13.0223
12.8983
13.0439
12.9706
12.8972
12.8146
12.9555
12.8612
13.2423
13.1071
13.2105
13.1198
13.1969
13.068
13.1692
13.2026
13.1686
13.1495
13.1852
13.1774
13.106
13.1435
13.1353
13.2324
13.2415
13.1676
13.1928
13.2064
13.2082
13.2189
13.1798
13.1775
13.1949
13.288
13.2884
13.215
13.2467
13.2471
13.2267
13.2075
13.215
13.2423
13.2347
13.2119
13.1945
13.2317
13.2199
13.2341
13.1443
13.2399
13.0756
13.1696
13.089
13.1829
13.1983
13.2509
13.24
13.253
13.2441
13.2407
13.243
13.2318
13.1819
13.2417
13.2257
13.1629
13.2298
13.1355
12.8098
12.8453
12.9998
12.901
12.9914
12.9766
12.9263
12.9654
13.056
13.0964
13.0166
13.0234
13.0568
13.1061
13.0595
12.955
12.9093
12.7709
12.8738
12.7775
12.8327
12.76
12.8115
12.7301
13.1503
13.0226
13.1266
13.0486
13.1042
12.9712
13.0801
13.127
13.086
13.0693
13.1064
13.0951
13.0272
13.0813
13.0743
13.1461
13.1658
13.1004
13.1007
13.1267
13.1511
13.1767
13.1331
13.1297
13.1628
13.2008
13.1917
13.109
13.1536
13.1284
13.1936
13.1837
13.1762
13.2217
13.2069
13.1933
13.1602
13.2197
13.1985
13.0989
13.0291
13.1191
12.9197
13.0312
12.9618
13.0542
13.0693
13.2286
13.223
13.2328
13.2195
13.2192
13.2266
13.2107
13.1525
13.2173
13.2157
13.1624
13.207
13.0623
12.8954
12.9523
12.9713
12.9534
12.9589
12.9594
12.9853
12.9491
13.0032
13.0441
12.9851
12.986
13.0306
13.0257
13.0067
12.8911
12.9036
12.7724
12.7869
12.718
12.8573
12.7971
12.7912
12.73
13.0544
12.9201
13.0275
12.9937
13.0275
12.8765
12.9852
13.05
13.0153
13.0006
13.0687
13.0682
12.9964
13.0769
13.0744
13.0694
13.0946
13.0567
13.0603
13.0838
13.1247
13.1647
13.1297
13.1256
13.1735
13.1028
13.0623
13.0015
13.0616
13.0115
13.1872
13.1977
13.1543
13.2252
13.1982
13.2077
13.1564
13.2416
13.2077
12.9619
12.9204
12.9975
12.7541
12.9086
12.9258
12.9678
12.9533
13.2212
13.2325
13.223
13.2062
13.2091
13.2273
13.2073
13.1804
13.1956
13.1956
13.231
13.1883
13.0582
13.007
13.0479
12.9415
13.0166
12.933
12.947
13.0459
12.9346
12.9744
12.9989
12.982
12.9731
12.9777
12.9896
12.9925
12.9337
12.9811
12.8245
12.8206
12.7582
12.9382
12.8499
12.8612
12.7847
13.0298
12.8583
12.9799
12.9861
13.0322
12.8644
13.0164
13.0204
13.0678
13.0163
13.1042
13.0992
13.0583
13.1461
13.1421
13.0773
13.115
13.1223
13.1543
13.2113
13.155
13.203
13.1913
13.1897
13.241
13.0469
12.9873
13.0385
13.1091
13.0159
13.2304
13.2719
13.1779
13.2725
13.2336
13.2813
13.2051
13.3134
13.2692
12.8907
12.9635
12.9808
12.8059
12.9049
13.0286
13.0179
12.9598
13.2524
13.2868
13.2374
13.2223
13.238
13.254
13.2389
13.2731
13.1913
13.1884
13.2909
13.1987
13.1334
13.0854
13.1217
12.9686
13.0719
12.9573
12.9919
13.097
12.9883
12.9733
12.9776
12.9949
12.975
12.9865
13.019
13.055
13.041
13.1125
12.8934
12.9166
12.8032
13.0611
12.9463
12.9796
12.8306
13.0732
12.8877
13.0748
13.0734
13.1485
12.9214
13.1575
13.1377
13.2395
13.1217
13.2126
13.2055
13.1987
13.2819
13.2731
13.2599
13.3203
13.3252
13.4253
13.4977
13.244
13.2931
13.3017
13.3013
13.3464
13.2216
13.0818
13.2896
13.3797
13.2005
13.3316
13.3909
13.2603
13.369
13.3251
13.3982
13.3158
13.4267
13.3848
12.9745
13.116
13.0841
13.0362
13.0832
13.1887
13.1588
13.1447
13.3327
13.3905
13.2861
13.2815
13.3247
13.3187
13.3163
13.2999
13.226
13.2439
13.2965
13.2535
13.3074
13.1679
13.2359
13.0272
13.1333
13.0285
13.0925