/*--------------------------------*- C++ -*----------------------------------*\
| =========                 |                                                 |
| \\      /  F ield         | OpenFOAM: The Open Source CFD Toolbox           |
|  \\    /   O peration     | Version:  5.x                                   |
|   \\  /    A nd           | Web:      www.OpenFOAM.org                      |
|    \\/     M anipulation  |                                                 |
\*---------------------------------------------------------------------------*/
FoamFile
{
    version     2.0;
    format      ascii;
    class       volVectorField;
    location    "4.2";
    object      U;
}
// * * * * * * * * * * * * * * * * * * * * * * * * * * * * * * * * * * * * * //

dimensions      [0 1 -1 0 0 0 0];

internalField   nonuniform List<vector> 
10571
(
(-0.0104692 0.431506 3.22432)
(0.00826754 0.00394207 0.786341)
(0.215244 -0.241153 1.2253)
(0.456176 -0.445605 3.64378)
(-0.911757 -0.202458 1.93812)
(-0.119877 0.146032 3.43406)
(0.146872 0.183936 2.83983)
(0.221544 -0.607512 3.91683)
(-1.8775 -0.551836 3.75725)
(-0.328891 0.106721 2.18806)
(0.654453 0.128176 2.16157)
(-0.979934 -2.21867 3.91335)
(-0.0740989 -0.916884 3.09109)
(-0.0970735 -1.6785 3.19755)
(-0.272281 -0.45213 3.45968)
(-0.261969 -0.327054 2.19472)
(-0.102852 -0.329005 0.845231)
(0.400139 -0.335429 3.91208)
(-0.979973 -1.26411 2.98595)
(-0.0286143 -1.03007 1.74716)
(-0.22862 -0.259961 0.946966)
(-0.52419 -0.221271 2.77276)
(-0.484218 -0.352456 1.96747)
(0.0138621 -0.285654 0.824586)
(-0.322316 -0.0295857 2.89221)
(0.147792 -0.00663778 1.24218)
(-0.173897 -0.0791385 2.22068)
(-0.327206 -0.921461 3.52064)
(-0.138599 -0.360142 0.553483)
(-1.20364 -1.39247 4.42421)
(-0.0279373 -0.686405 1.85308)
(-0.552608 -1.03264 4.60219)
(-0.543245 -0.458047 1.66131)
(-0.233617 -0.0766638 0.645363)
(-0.0642822 -0.264937 0.853321)
(-0.718416 -1.22452 3.86769)
(0.0942452 -0.357837 2.16436)
(0.181951 -0.975141 4.06047)
(-0.922427 -0.133382 4.25352)
(-0.260921 0.100107 0.579917)
(-0.191192 -0.192739 0.116219)
(0.145076 -1.30004 4.23199)
(-0.0661561 -1.0475 2.25558)
(0.126411 -1.14044 2.9004)
(0.0391225 -0.0672424 -0.12981)
(-0.0944152 -1.48815 3.05519)
(0.0598671 -0.268222 0.523695)
(0.158411 -0.142715 0.122278)
(0.0376529 0.212021 3.32199)
(0.198876 -0.033049 1.38314)
(0.256867 0.287953 3.08738)
(-0.244881 -1.28858 3.97979)
(-0.218106 -0.46677 0.668259)
(-1.06108 -1.27505 4.78748)
(-0.41316 -0.685808 2.13228)
(-0.836693 -1.03229 4.15447)
(-0.515386 -0.876419 2.06714)
(-0.182549 -0.420415 0.435425)
(0.0485746 -0.0328201 1.28137)
(-1.38422 -0.321309 3.6422)
(-0.114307 -0.676404 2.00941)
(-0.159129 -0.94238 4.09127)
(-0.948 -0.215584 3.71095)
(-0.162695 0.277445 0.356414)
(-0.272854 -0.2486 0.13509)
(-0.377129 -0.992299 3.1608)
(-0.000696233 -0.241845 1.16863)
(-0.138046 -0.520952 2.33635)
(0.0908428 -0.115852 -0.128939)
(-0.0459139 -0.0612178 0.534469)
(-0.0477972 0.00707248 0.00735456)
(0.010232 -0.00543479 -0.169348)
(0.0725882 0.114862 3.50971)
(0.193546 -0.403992 1.94424)
(0.251763 -0.368706 4.46262)
(-0.0961971 -1.59901 4.5343)
(0.683814 -0.130518 1.36774)
(-0.516106 -1.01961 5.02406)
(-0.492885 -0.617971 2.17003)
(-0.525075 -0.799497 3.62327)
(0.0300587 -0.533021 0.951513)
(-0.0447289 -0.213952 0.302776)
(0.0739976 -0.00733952 1.48297)
(-0.548321 -0.14086 2.53723)
(-0.449128 -0.9694 2.21268)
(-0.828632 -0.726828 3.88444)
(-0.492948 -0.983047 3.62741)
(0.0438948 0.107889 0.324172)
(-0.435818 -0.259464 0.506244)
(-0.113084 0.454594 2.14655)
(-0.122444 0.242226 0.906126)
(-0.329416 0.263466 2.02079)
(0.0464615 -0.108596 0.0534145)
(0.0434203 0.0949512 0.232757)
(-0.0579694 0.062279 -0.025713)
(-0.0477609 0.060899 -0.0414488)
(-0.415314 0.0725859 4.01634)
(0.628846 -0.531949 2.38973)
(-0.237075 -0.662171 5.01137)
(-0.24003 -1.29873 4.37008)
(1.20238 0.649373 2.67617)
(0.419277 -1.02768 4.86421)
(-0.599217 -0.760848 2.04184)
(-0.120257 -0.952759 3.04613)
(0.784179 -1.22805 2.2003)
(0.375636 -0.253889 0.745049)
(-0.403648 -0.322821 2.28471)
(-0.200614 -0.154652 1.32959)
(-0.704838 -0.20636 2.30735)
(-1.02169 0.0418903 4.84316)
(0.380159 -0.624302 2.67891)
(0.190043 -0.209097 0.247137)
(-0.147402 0.190782 0.550569)
(-0.0181182 0.493455 1.17935)
(-0.132568 0.374135 0.512545)
(-0.135335 0.466519 1.27003)
(0.016587 0.00640064 0.113268)
(0.354077 0.580034 1.21995)
(-0.0451437 0.191427 0.127466)
(-0.0320534 0.139945 0.0645681)
(-0.582296 0.27075 2.7621)
(0.370587 -0.321467 2.31905)
(-0.241899 -0.473298 5.88242)
(-0.136416 -0.535859 5.0221)
(0.663915 0.852287 3.23472)
(0.458081 -0.138488 5.18597)
(-0.458 -0.612176 2.20532)
(-0.0224524 -0.756216 1.82515)
(0.508495 -0.754894 1.58985)
(1.27757 -0.119073 1.6162)
(-0.00993734 0.00840153 0.000415092)
(0.148238 -0.574925 2.6238)
(0.622394 -0.398066 2.70042)
(-0.299441 -0.045305 0.862459)
(-0.244899 0.06359 2.0966)
(0.428057 0.00986703 1.0257)
(0.308868 -0.0523039 0.349785)
(-0.00348376 -0.00305477 -0.00172412)
(0.327433 -0.10743 0.696209)
(0.0780015 0.308302 2.03366)
(-0.170945 1.08956 1.17829)
(0.10896 0.177154 0.620274)
(0.0544431 0.0350894 0.128597)
(0.358033 0.512204 1.30181)
(0.295044 0.297259 0.813)
(0.373796 -0.195668 0.738878)
(-0.218811 -0.0694015 1.68979)
(-0.0655113 -0.0254004 2.53132)
(-0.300319 -0.455695 6.30543)
(-0.0298231 -0.288215 5.00493)
(0.57592 0.551322 2.91788)
(0.295109 -0.286692 4.9631)
(0.0961255 -0.0237737 2.14155)
(-0.0690889 -0.37218 2.27871)
(-0.282806 -0.160887 1.81491)
(0.882066 -0.0616272 2.04606)
(0.176144 0.0806774 0.207699)
(-0.062686 -0.0834714 1.2917)
(0.570698 -0.287147 2.59445)
(0.198808 -0.317994 1.8087)
(-0.139741 -0.118935 2.67776)
(-0.104257 -0.315581 1.87044)
(0.620427 -0.0596842 0.619307)
(0.143576 0.0191249 0.0998377)
(-0.142392 -0.01112 0.431223)
(0.0111156 -0.317741 1.50651)
(-0.0559757 0.101497 0.941669)
(0.125416 0.155407 0.647532)
(0.151818 -0.121156 0.194236)
(-0.0914557 0.00395914 0.116792)
(-0.0438916 -0.315401 1.30988)
(0.15777 -0.285419 0.927087)
(0.550343 -0.324965 0.66336)
(-0.131144 -0.210712 2.28784)
(-0.0857289 0.0973566 2.63472)
(-0.315716 -0.505227 6.35078)
(0.0516614 -0.470798 5.09868)
(0.500647 0.26917 3.07104)
(0.216951 -0.34206 4.91228)
(0.108641 -0.0869709 1.85281)
(-0.117717 -0.249952 1.71675)
(-0.303261 -0.190416 1.50858)
(0.251178 0.105655 1.87775)
(0.197929 0.176664 0.293621)
(-0.0607563 -0.231224 1.24783)
(0.397305 -0.255624 2.64382)
(0.262162 -0.298924 0.965316)
(-0.177758 -0.188633 2.54597)
(-0.283294 -0.177466 0.936258)
(-0.276161 0.213289 0.521217)
(-0.0568552 -0.0152368 0.169819)
(-0.254875 -0.293641 0.446816)
(-0.0521742 -0.291197 1.38918)
(0.0305509 -0.345502 0.737754)
(0.101217 -0.491966 0.503129)
(-0.00177771 -0.294548 0.383237)
(-0.183854 -0.0252286 0.0537066)
(-0.310001 -0.278485 0.665483)
(0.0729139 -0.180337 0.454708)
(0.278931 -0.171656 0.249093)
(-0.0930999 -0.115604 2.76891)
(-0.104347 0.173226 2.95463)
(-0.277694 -0.481614 6.34152)
(0.0404217 -0.620337 4.86789)
(0.418126 0.144177 3.04704)
(0.23833 -0.344679 4.86306)
(0.0865968 -0.0957724 1.89533)
(-0.142875 -0.260871 1.72683)
(-0.302633 -0.157131 1.57333)
(0.00702197 0.283256 1.96431)
(0.229426 0.268785 0.332406)
(-0.0459531 -0.419061 1.66477)
(0.350681 -0.248362 2.42727)
(0.185166 -0.254826 1.16176)
(-0.201306 -0.152084 2.47532)
(-0.241748 -0.0598813 1.04865)
(-0.258734 0.313668 0.77055)
(-0.202257 0.0390891 0.0964748)
(-0.285682 -0.277393 0.536647)
(-0.0586836 -0.30881 1.35203)
(-0.00302356 -0.16725 0.737429)
(-0.0961408 -0.0537837 0.58361)
(-0.150769 0.0305901 0.634996)
(-0.189278 -0.0642069 0.35959)
(-0.00741054 -0.0606014 0.237567)
(-0.0132311 0.00540635 0.161634)
(-0.116685 -0.0870792 3.36475)
(-0.154727 0.199977 3.27615)
(-0.276978 -0.414077 6.32278)
(0.0333106 -0.581359 4.61229)
(0.415676 0.134143 3.15869)
(0.243154 -0.325086 4.84014)
(0.0724918 -0.0669641 2.02551)
(-0.170222 -0.256577 1.80125)
(-0.250434 -0.088897 1.72617)
(-0.0921288 0.23327 2.0268)
(0.00933942 -0.40506 1.74962)
(0.269313 -0.186781 2.3043)
(0.0336727 -0.214065 1.30392)
(-0.202011 -0.137729 2.552)
(-0.0891813 -0.0351819 1.04693)
(-0.409039 0.148961 0.922256)
(-0.284763 -0.253596 0.581955)
(-0.0256569 -0.324593 1.21222)
(-0.0717109 -0.000756183 0.76169)
(-0.182197 -0.0362318 0.518081)
(-0.0826625 0.0475145 0.681284)
(-0.131879 -0.0176774 0.151322)
(-0.0474581 -0.0752418 0.101542)
(-0.115011 0.0405373 0.0878735)
(-0.0947502 -0.0292978 3.70297)
(-0.171022 0.215251 3.56486)
(-0.280042 -0.349703 6.27262)
(0.0341867 -0.539471 4.48613)
(0.392693 0.15265 3.26304)
(0.220717 -0.283434 4.83698)
(0.0578782 -0.0429451 2.13268)
(-0.184874 -0.233713 1.80084)
(-0.224741 -0.06272 1.77759)
(-0.069219 0.273821 1.97234)
(0.047263 -0.21041 1.73329)
(0.163199 -0.117615 2.23243)
(-0.0325127 -0.206482 1.29548)
(-0.191114 -0.121627 2.55658)
(-0.0521916 -0.0517656 1.01627)
(-0.173363 -0.0419181 0.981452)
(-0.234587 -0.194373 0.625524)
(0.0360918 -0.253438 1.03139)
(-0.0732604 0.0105395 0.771964)
(-0.167112 -0.119793 0.421472)
(0.0152654 -0.0598858 0.590878)
(-0.138125 -0.0130355 0.0553947)
(-0.0721279 -0.0609814 0.0324043)
(0.00435943 -0.0208865 -0.0770935)
(-0.0613769 -0.0129239 3.83748)
(-0.158568 0.224598 3.81735)
(-0.265753 -0.299334 6.23902)
(0.0181583 -0.498577 4.32741)
(0.34142 0.162995 3.28104)
(0.188826 -0.253692 4.82734)
(0.0415875 -0.0356542 2.20002)
(-0.18857 -0.214086 1.76555)
(-0.19656 -0.0461217 1.79776)
(-0.0751435 0.277466 1.82946)
(0.0597553 -0.112183 1.72457)
(0.0504469 -0.0890995 2.12277)
(-0.0750897 -0.207676 1.28607)
(-0.176187 -0.105152 2.51574)
(-0.0299283 -0.0869616 0.993584)
(-0.115255 -0.159419 0.965465)
(-0.177378 -0.112834 0.69391)
(0.0668902 -0.175509 0.894461)
(-0.0526189 0.00649203 0.774383)
(-0.0307387 -0.151135 0.348354)
(0.0961442 -0.192196 0.578185)
(-0.0835898 -0.0133288 -0.0151752)
(-0.0544258 -0.00782617 -0.0180439)
(0.100898 -0.074181 -0.267186)
(-0.041556 -0.0154095 3.97402)
(-0.143079 0.226492 4.03232)
(-0.254894 -0.260574 6.19118)
(0.00627134 -0.456566 4.17121)
(0.325357 0.150971 3.3712)
(0.175858 -0.231056 4.79409)
(0.0502557 -0.037877 2.29196)
(-0.194284 -0.228238 1.72551)
(-0.169954 -0.0355478 1.81299)
(-0.0325342 0.257267 1.80784)
(0.0454489 -0.107322 1.74823)
(0.0167646 -0.0740341 2.0715)
(-0.0897269 -0.210021 1.26597)
(-0.126146 -0.0846075 2.40301)
(0.037889 -0.11748 0.972379)
(-0.0825453 -0.161041 0.952527)
(-0.104912 -0.0332086 0.770147)
(0.0550183 -0.131813 0.782026)
(-0.0156281 -0.00728955 0.735109)
(0.107317 -0.0866181 0.297555)
(0.0875282 -0.194259 0.555699)
(-0.0463181 -0.0276358 -0.0801345)
(-0.0464142 0.0481526 -0.0638466)
(0.116405 -0.0710234 -0.37233)
(-0.0239635 -0.00297044 4.09115)
(-0.133071 0.224358 4.21706)
(-0.253244 -0.224417 6.16385)
(0.0133566 -0.427067 4.01496)
(0.34019 0.111758 3.48337)
(0.170635 -0.21203 4.75701)
(0.0659214 -0.0500029 2.38771)
(-0.20058 -0.253359 1.70623)
(-0.132024 -0.0457575 1.82539)
(-0.00720639 0.250723 1.82638)
(0.0441307 -0.0952743 1.75947)
(0.0119321 -0.0751797 2.0053)
(-0.0733846 -0.213344 1.23026)
(-0.0801684 -0.063009 2.29621)
(0.104181 -0.14435 0.967352)
(-0.0950364 -0.127536 0.970818)
(-0.0151869 0.048128 0.826525)
(0.0389453 -0.114368 0.68782)
(0.0465602 -0.0181123 0.630522)
(0.194926 -0.0255759 0.24228)
(0.0246694 -0.0843371 0.582571)
(-0.0247382 -0.0404657 -0.131726)
(-0.053786 0.0907288 -0.098195)
(0.0653517 -0.0347449 -0.375575)
(-0.00923424 -0.00502789 4.1636)
(-0.127895 0.219103 4.38287)
(-0.257799 -0.193955 6.14978)
(0.0116848 -0.403692 3.8136)
(0.365025 0.0978303 3.59396)
(0.16439 -0.195693 4.70802)
(0.0942612 -0.0537243 2.53945)
(-0.20816 -0.283553 1.69225)
(-0.108371 -0.0511982 1.8281)
(0.0218149 0.25728 1.88742)
(0.0299859 -0.0610737 1.75887)
(0.0820621 -0.107037 1.88515)
(-0.00493039 -0.197317 1.20294)
(-0.0501883 -0.0625778 2.18208)
(0.133563 -0.15937 0.95084)
(-0.087798 -0.0111497 0.942222)
(0.0556798 -0.0121023 0.827623)
(0.0374214 -0.120448 0.626375)
(0.0766947 -0.0118532 0.525162)
(0.209896 -0.0133946 0.169817)
(-0.0949861 0.130558 0.629914)
(-0.010302 -0.0433016 -0.162142)
(-0.0550897 0.0990455 -0.11825)
(-0.00845979 0.0121825 -0.299845)
(-0.00569739 -0.0113742 4.24485)
(-0.125357 0.214348 4.53671)
(-0.257495 -0.169873 6.13888)
(0.00908793 -0.364407 3.57144)
(0.374153 0.121498 3.66215)
(0.15979 -0.181066 4.648)
(0.149061 -0.0489563 2.72201)
(-0.205764 -0.288891 1.68824)
(-0.11122 -0.0533073 1.82522)
(0.0339367 0.288944 1.87629)
(0.0267804 -0.00134699 1.83219)
(0.101133 -0.110953 1.61455)
(0.0564553 -0.155099 1.21719)
(-0.0152863 -0.0806281 2.06206)
(0.146349 -0.149797 0.936068)
(-0.0652796 0.096571 0.929021)
(0.0798631 -0.0744138 0.744281)
(0.0458161 -0.130799 0.582481)
(0.0607464 0.0135434 0.455893)
(0.153655 -0.0195363 0.124145)
(-0.122159 0.24521 0.672319)
(-0.00364135 -0.0436553 -0.176618)
(-0.0696337 0.0997742 -0.122863)
(-0.0641458 0.0370752 -0.216316)
(-0.0130338 -0.00898771 4.32665)
(-0.124141 0.214782 4.67809)
(-0.255542 -0.1459 6.12708)
(-0.00302859 -0.31648 3.29432)
(0.371862 0.164999 3.73044)
(0.161309 -0.179535 4.57794)
(0.209654 -0.0458676 2.88315)
(-0.191094 -0.276846 1.7103)
(-0.126225 -0.038756 1.82302)
(0.0132354 0.301845 1.75789)
(0.00745349 0.0566307 1.91631)
(-0.0224742 -0.104802 1.34822)
(0.0680323 -0.120914 1.24058)
(0.00305294 -0.068155 1.9662)
(0.163704 -0.124805 0.898711)
(-0.0383383 0.15857 0.966982)
(0.0756735 -0.0481326 0.632778)
(0.0547283 -0.127811 0.557891)
(0.0266791 0.0508363 0.422788)
(0.0777552 -0.0374008 0.117351)
(-0.106793 0.271861 0.71341)
(0.00247143 -0.0486995 -0.166764)
(-0.0893325 0.10638 -0.110371)
(-0.0894567 0.0444674 -0.165594)
(-0.0196702 -0.00214047 4.40125)
(-0.122908 0.214675 4.8125)
(-0.251809 -0.122037 6.12312)
(0.00327909 -0.288783 3.0015)
(0.334802 0.199998 3.7665)
(0.16315 -0.180381 4.50529)
(0.267525 -0.0500471 3.05169)
(-0.155105 -0.286115 1.76856)
(-0.127379 -0.00682928 1.85027)
(0.00800712 0.265932 1.6115)
(-0.0309926 0.114336 1.99757)
(-0.0649841 -0.106721 1.16428)
(0.0161154 -0.105083 1.26247)
(-0.00311072 -0.0291358 1.82881)
(0.172406 -0.10327 0.863819)
(-0.00422792 0.170671 1.04035)
(0.077786 -0.0167431 0.557603)
(0.0660807 -0.117101 0.549101)
(-0.0172014 0.0795777 0.407511)
(0.0335827 -0.0635983 0.127721)
(-0.0872113 0.277837 0.779897)
(0.00312743 -0.0476035 -0.13996)
(-0.105826 0.106994 -0.0861384)
(-0.104969 0.0494058 -0.131218)
(-0.0177564 0.0127483 4.44814)
(-0.123892 0.215052 4.94363)
(-0.252278 -0.0961298 6.13307)
(0.00500503 -0.264287 2.74523)
(0.293027 0.214192 3.79517)
(0.161792 -0.166648 4.44479)
(0.296983 -0.0555782 3.20354)
(-0.132409 -0.343566 1.81701)
(-0.0828109 0.0316176 1.89127)
(0.0395014 0.19613 1.51176)
(-0.0568426 0.114609 2.05787)
(0.0276913 -0.0814797 1.07648)
(-0.14779 -0.077464 1.30613)
(-0.0259406 -0.0503906 1.60215)
(0.140579 -0.0843137 0.837549)
(0.00966787 0.192902 1.13208)
(0.0178099 -0.00564354 0.532511)
(0.0852663 -0.102318 0.558552)
(-0.0616468 0.0725342 0.402761)
(-0.00957535 -0.0836117 0.140482)
(-0.0921539 0.289771 0.836102)
(-0.00217413 -0.0436258 -0.103566)
(-0.113283 0.0983047 -0.0514951)
(-0.12554 0.0541792 -0.110401)
(0.00575108 0.0264853 4.46436)
(-0.124933 0.216058 5.06189)
(-0.257073 -0.0674135 6.1505)
(-0.0211746 -0.243633 2.59164)
(0.257517 0.217518 3.81105)
(0.158992 -0.143337 4.39183)
(0.327008 -0.050769 3.36165)
(-0.100205 -0.397638 1.89211)
(-0.0480402 0.0765115 1.93641)
(0.0675642 0.171297 1.4626)
(-0.0658906 0.131619 2.14935)
(0.0795128 -0.0538889 1.03405)
(-0.244746 -0.0299938 1.35822)
(-0.0788712 -0.114508 1.32194)
(0.0315916 -0.0338267 0.837992)
(-0.00631738 0.246407 1.18609)
(-0.0679975 -0.00605432 0.525659)
(0.0969566 -0.0884824 0.582344)
(-0.10283 0.0266796 0.402502)
(-0.0568854 -0.0912206 0.151402)
(-0.110592 0.302536 0.8717)
(-0.013576 -0.0310315 -0.0616249)
(-0.112323 0.0876841 -0.0121998)
(-0.153394 0.0605503 -0.100199)
(0.0506554 0.0297229 4.48644)
(-0.125145 0.218249 5.16508)
(-0.263496 -0.0400746 6.16553)
(-0.0709955 -0.237444 2.53369)
(0.218869 0.216504 3.80395)
(0.152934 -0.12639 4.3453)
(0.397143 -0.0548184 3.49899)
(-0.0207159 -0.392385 1.99866)
(-0.0446279 0.121807 1.94015)
(0.0798705 0.176494 1.42365)
(-0.0701368 0.211962 2.29882)
(0.0879281 -0.0657517 1.02206)
(-0.221164 0.032985 1.4204)
(-0.161753 -0.112163 1.11411)
(-0.109809 0.0391767 0.850458)
(-0.0273322 0.299904 1.17256)
(-0.104549 -0.0325598 0.509527)
(0.0751405 -0.077264 0.613524)
(-0.137822 -0.0203609 0.405613)
(-0.104167 -0.0778988 0.158238)
(-0.123227 0.30689 0.873824)
(-0.0326939 -0.0110609 -0.0148859)
(-0.107392 0.0829692 0.0221324)
(-0.17604 0.0692242 -0.0960538)
(0.0810062 0.0262742 4.52978)
(-0.125031 0.218592 5.26497)
(-0.261646 -0.0221715 6.17483)
(-0.122016 -0.209813 2.53512)
(0.191459 0.207677 3.80988)
(0.160114 -0.11786 4.28568)
(0.517929 -0.100144 3.55725)
(0.0971922 -0.338907 2.16512)
(-0.048229 0.160601 1.93853)
(0.0744035 0.186785 1.35794)
(-0.0605205 0.293249 2.4685)
(0.112441 -0.103261 1.04286)
(-0.142957 0.0840406 1.48904)
(-0.236664 -0.0392909 1.01143)
(-0.212543 0.10304 0.850523)
(-0.0524794 0.343413 1.10534)
(-0.110474 -0.0742803 0.493436)
(0.00157442 -0.0624792 0.66881)
(-0.163051 -0.0359573 0.413104)
(-0.140773 -0.0530535 0.173421)
(-0.134339 0.310293 0.848898)
(-0.0578069 0.0132464 0.0258327)
(-0.104365 0.0837341 0.0447389)
(-0.183295 0.0730371 -0.0961108)
(0.0916835 0.0217785 4.57939)
(-0.130725 0.212794 5.36529)
(-0.255165 -0.00961204 6.17989)
(-0.161075 -0.161077 2.57803)
(0.179281 0.194833 3.80624)
(0.173634 -0.114727 4.20232)
(0.605431 -0.144468 3.5633)
(0.185142 -0.276142 2.31438)
(-0.0208312 0.195331 1.93656)
(0.0478032 0.179288 1.23412)
(-0.0454485 0.339334 2.60701)
(0.153656 -0.164138 1.07859)
(-0.073055 0.107868 1.56703)
(-0.289072 0.0610137 0.97834)
(-0.271502 0.150639 0.837959)
(-0.0694912 0.366881 1.012)
(-0.136013 -0.134039 0.47574)
(-0.0842119 -0.0488354 0.727397)
(-0.178486 -0.0253945 0.426855)
(-0.154132 -0.0256331 0.199323)
(-0.146662 0.293627 0.779123)
(-0.0793059 0.0304634 0.0618708)
(-0.102351 0.0855362 0.0616028)
(-0.17317 0.0687117 -0.0955262)
(0.0770476 0.0167933 4.63196)
(-0.14236 0.208171 5.46979)
(-0.245101 0.00899178 6.17824)
(-0.160568 -0.118911 2.62452)
(0.171714 0.178467 3.79217)
(0.198476 -0.107297 4.13218)
(0.620207 -0.153413 3.57601)
(0.217636 -0.203313 2.43307)
(0.0206955 0.233101 1.92139)
(0.0530101 0.171987 1.08912)
(-0.0230958 0.346947 2.62328)
(0.230996 -0.230226 1.09253)
(-0.0611952 0.122604 1.65065)
(-0.320545 0.154512 0.997333)
(-0.294582 0.19218 0.823924)
(-0.0598113 0.346198 0.922959)
(-0.174659 -0.18961 0.462434)
(-0.156116 -0.033096 0.768218)
(-0.185076 -0.00354338 0.449041)
(-0.149099 0.00419593 0.229459)
(-0.146066 0.260036 0.661509)
(-0.0879125 0.0456818 0.0967793)
(-0.100453 0.0856575 0.0777658)
(-0.152647 0.0595642 -0.0896142)
(0.0448466 0.0105044 4.67861)
(-0.157896 0.2078 5.57318)
(-0.235371 0.0301545 6.16908)
(-0.132834 -0.107401 2.63143)
(0.142261 0.180874 3.74974)
(0.257916 -0.0815239 4.07857)
(0.606899 -0.143181 3.58698)
(0.200874 -0.117419 2.50257)
(0.0293709 0.287676 1.88972)
(0.0670049 0.187152 0.960644)
(0.197776 0.0872895 1.94247)
(0.271262 -0.287901 1.14463)
(-0.0783179 0.152109 1.74712)
(-0.35077 0.224938 1.05609)
(-0.280163 0.223812 0.79489)
(-0.0584143 0.303414 0.847968)
(-0.207378 -0.219521 0.457424)
(-0.197308 -0.0181309 0.791632)
(-0.183206 0.0210732 0.476955)
(-0.133152 0.0325522 0.260498)
(-0.128872 0.224503 0.537787)
(-0.0890717 0.0596801 0.131536)
(-0.0929054 0.0834216 0.0977757)
(-0.124275 0.0486446 -0.0749617)
(0.00507102 -0.00254056 4.72295)
(-0.169496 0.210596 5.66615)
(-0.232962 0.0528875 6.14763)
(-0.13032 -0.116986 2.62311)
(0.113565 0.17434 3.69867)
(0.328275 -0.0420992 4.0604)
(0.556199 -0.0973418 3.62537)
(0.143505 -0.026498 2.52618)
(-0.0143427 0.332006 1.80917)
(0.0723235 0.20816 0.875465)
(0.0574914 -0.268845 0.868477)
(0.110211 -0.272802 1.25164)
(-0.122303 0.208895 1.83358)
(-0.374213 0.264546 1.10646)
(-0.241064 0.224538 0.766852)
(-0.062736 0.265705 0.790081)
(-0.239392 -0.220986 0.457728)
(-0.203858 0.00178194 0.808011)
(-0.160762 0.0396672 0.51135)
(-0.110132 0.0436597 0.295472)
(-0.108811 0.196918 0.454484)
(-0.0829115 0.0764761 0.172473)
(-0.0762945 0.0814232 0.123583)
(-0.0947378 0.0373324 -0.0502744)
(-0.0310738 -0.0126586 4.76037)
(-0.176084 0.213902 5.7437)
(-0.239595 0.0786496 6.1157)
(-0.158678 -0.118457 2.64147)
(0.0815017 0.120697 3.6193)
(0.359349 0.00756884 4.04498)
(0.474834 -0.0391189 3.66964)
(0.0453842 0.0677144 2.50524)
(-0.0820709 0.308442 1.65038)
(0.065262 0.215928 0.834447)
(-0.00647256 -0.28977 0.745173)
(-0.0268541 -0.173485 1.3823)
(-0.176726 0.253998 1.89382)
(-0.375988 0.26921 1.15057)
(-0.216014 0.19131 0.738867)
(-0.067544 0.234646 0.734664)
(-0.243865 -0.193956 0.465872)
(-0.184303 0.0150687 0.813999)
(-0.120034 0.0493234 0.551041)
(-0.0829609 0.0380612 0.335454)
(-0.0965929 0.170595 0.414179)
(-0.0722265 0.0871942 0.218776)
(-0.0580767 0.0791586 0.156692)
(-0.0647791 0.026485 -0.0172797)
(-0.0705018 -0.0217357 4.78982)
(-0.175492 0.21258 5.79877)
(-0.242667 0.10105 6.0731)
(-0.17256 -0.129349 2.67673)
(0.0722555 0.0548982 3.60606)
(0.350748 0.0450056 3.9838)
(0.416344 -0.0180364 3.72407)
(-0.097882 0.150586 2.46218)
(-0.103429 0.199948 1.481)
(0.0467494 0.180412 0.822408)
(-0.0146 -0.351867 0.800356)
(-0.0958586 -0.0858796 1.57711)
(-0.201842 0.285473 1.93944)
(-0.347487 0.240054 1.19936)
(-0.193165 0.151071 0.704004)
(-0.0823224 0.206291 0.679077)
(-0.197334 -0.122319 0.510909)
(-0.133871 0.00708217 0.821145)
(-0.0778181 0.0522638 0.590309)
(-0.0524936 0.0245403 0.37608)
(-0.0827072 0.129244 0.389686)
(-0.0639995 0.0890806 0.266113)
(-0.0438615 0.0774235 0.192546)
(-0.0390171 0.0169737 0.0170035)
(-0.116682 -0.0353391 4.81778)
(-0.165437 0.206454 5.84157)
(-0.235069 0.116351 6.03125)
(-0.176463 -0.198818 2.7202)
(0.00764108 0.0129429 3.61775)
(0.330143 0.0647266 3.90763)
(0.371648 -0.0044323 3.82218)
(-0.23326 0.16963 2.41722)
(-0.0878886 0.0565716 1.32957)
(0.0341013 0.0751466 0.803682)
(-0.0279164 -0.384877 0.975592)
(-0.171068 -0.0687322 1.7675)
(-0.183719 0.300446 1.96979)
(-0.292041 0.206903 1.25348)
(-0.159025 0.120537 0.662588)
(-0.0901998 0.162501 0.603148)
(-0.160552 -0.0698599 0.556999)
(-0.10038 -0.0159618 0.838105)
(-0.0481611 0.0586542 0.627114)
(-0.0186773 0.0102364 0.409326)
(-0.0606526 0.0792713 0.36939)
(-0.0626996 0.0853797 0.30772)
(-0.0379449 0.078112 0.226448)
(-0.0169669 0.00746874 0.0467578)
(-0.1511 -0.0481367 4.85814)
(-0.147831 0.196046 5.88113)
(-0.213021 0.118669 6.00059)
(-0.130978 -0.279783 2.80576)
(-0.0559045 -0.017347 3.72461)
(0.325937 0.0726628 3.81244)
(0.329264 0.0199224 3.94014)
(-0.280524 0.111133 2.36849)
(-0.0763261 -0.0308072 1.18929)
(0.0371535 -0.0293846 0.728638)
(-0.0934791 -0.426444 1.23232)
(-0.302085 -0.164038 1.85771)
(-0.12287 0.275568 1.98653)
(-0.243565 0.19519 1.29393)
(-0.113453 0.0879573 0.616358)
(-0.0770425 0.110826 0.519701)
(-0.162948 -0.091337 0.581056)
(-0.106286 -0.0336797 0.8506)
(-0.0402224 0.0725529 0.651393)
(0.0128948 0.00283047 0.43038)
(-0.0407902 0.0376647 0.352303)
(-0.0712883 0.0781272 0.338996)
(-0.0409921 0.0824748 0.255693)
(0.00187745 -0.00036494 0.0721532)
(-0.16422 -0.0538188 4.90172)
(-0.125793 0.184224 5.91949)
(-0.190769 0.111928 5.98411)
(-0.1171 -0.315512 2.91706)
(-0.0377233 0.0182533 3.73404)
(0.318377 0.0657958 3.72196)
(0.317277 0.0185774 4.03435)
(-0.249526 0.0219773 2.29055)
(-0.0890327 -0.012991 1.04929)
(0.0214737 -0.0563517 0.607745)
(-0.128302 -0.375813 1.50478)
(-0.400122 -0.271792 1.89904)
(-0.0941876 0.24887 2.02276)
(-0.230013 0.201113 1.30384)
(-0.0689923 0.0483829 0.567198)
(-0.0494257 0.0695424 0.442682)
(-0.190867 -0.183106 0.568545)
(-0.159719 -0.0489446 0.851986)
(-0.0500637 0.0882839 0.656841)
(0.0368046 0.00182202 0.432445)
(-0.0314741 0.0201325 0.338078)
(-0.0875131 0.0736684 0.35857)
(-0.0490293 0.0875762 0.278468)
(0.0189724 -0.00650725 0.0938794)
(-0.150436 -0.0474997 4.94567)
(-0.108353 0.177614 5.96392)
(-0.179996 0.0941407 5.98461)
(-0.211907 -0.265516 3.08653)
(-0.188339 0.0472647 3.70847)
(0.307742 0.0421278 3.64851)
(0.319702 -0.0363961 4.07227)
(-0.220149 -0.00122022 2.18285)
(-0.119878 0.0870439 0.907559)
(-0.0137368 0.00825781 0.492008)
(-0.125475 -0.322218 1.7151)
(-0.423254 -0.327862 1.91472)
(-0.109559 0.249393 2.03911)
(-0.252708 0.214013 1.28998)
(-0.0188356 0.0165657 0.530059)
(-0.0197713 0.0444175 0.384493)
(-0.226727 -0.241283 0.54047)
(-0.240715 -0.0585763 0.837882)
(-0.0674285 0.110193 0.640237)
(0.0505434 0.005287 0.416069)
(-0.0306142 0.0254096 0.329845)
(-0.0995989 0.0729509 0.365861)
(-0.0554871 0.0920848 0.294849)
(0.0344609 -0.0113818 0.113088)
(-0.0950819 -0.035493 4.98202)
(-0.101246 0.17616 6.01536)
(-0.160245 0.0737645 5.99634)
(-0.172631 -0.180601 3.2675)
(-0.270353 0.0161535 3.83374)
(0.305764 0.0173243 3.62022)
(0.278291 -0.133438 4.06168)
(-0.2515 0.102145 2.08596)
(-0.137967 0.220246 0.777366)
(-0.0217667 0.0727124 0.388217)
(-0.123781 -0.270532 1.89233)
(-0.427618 -0.352825 1.93665)
(-0.181575 0.255341 2.02984)
(-0.331902 0.230764 1.24477)
(0.0368095 0.0135067 0.506706)
(0.00456643 0.0347048 0.350069)
(-0.25438 -0.274766 0.528173)
(-0.296875 -0.0566739 0.8114)
(-0.0878436 0.140881 0.606793)
(0.0559568 0.00831381 0.388842)
(-0.0350517 0.0470705 0.330178)
(-0.105115 0.0753983 0.369931)
(-0.0590139 0.0979245 0.309408)
(0.0502908 -0.0160435 0.135679)
(-0.0561827 -0.0234379 4.97054)
(-0.101279 0.175729 6.07046)
(-0.139182 0.0549045 6.01183)
(-0.0783431 -0.161188 3.29786)
(-0.098026 0.14789 3.91316)
(0.306066 0.0157891 3.63463)
(0.216688 -0.15355 4.03867)
(-0.391142 0.421734 2.02663)
(-0.135367 0.318984 0.728889)
(0.00583467 0.12404 0.325977)
(-0.109622 -0.204279 2.05579)
(-0.437813 -0.346528 1.99762)
(-0.346098 0.207824 1.98476)
(-0.40784 0.256994 1.19629)
(0.0849514 0.0423142 0.489872)
(0.0252447 0.0420024 0.343792)
(-0.2671 -0.278551 0.5467)
(-0.323251 -0.0535022 0.774483)
(-0.104511 0.174409 0.571329)
(0.0548609 0.000986571 0.365065)
(-0.0427046 0.0771405 0.346021)
(-0.103264 0.0756307 0.377196)
(-0.0595455 0.105569 0.327353)
(0.0675863 -0.021237 0.164515)
(-0.0233919 -0.032824 4.91759)
(-0.10902 0.179274 6.11792)
(-0.111642 0.0643734 5.99943)
(0.194622 -0.162946 3.19669)
(-0.113377 0.0878861 3.72742)
(0.305206 0.0241006 3.72024)
(0.113553 -0.0916134 4.02768)
(-0.490235 0.679885 2.05479)
(-0.103277 0.299065 0.744115)
(0.0345159 0.142663 0.336688)
(-0.0980382 -0.19393 2.12561)
(-0.449012 -0.301904 2.16754)
(-0.504781 0.127062 1.96791)
(-0.437343 0.295966 1.14096)
(0.124087 0.0543037 0.464628)
(0.039812 0.0591091 0.366341)
(-0.256868 -0.245463 0.614796)
(-0.319209 -0.0581182 0.733404)
(-0.108576 0.190749 0.540863)
(0.0527826 -0.0222536 0.356016)
(-0.0510125 0.111636 0.382396)
(-0.0950141 0.0730673 0.384495)
(-0.0537301 0.111608 0.350898)
(0.0855996 -0.0276718 0.199557)
(-0.00638983 -0.0274344 4.81436)
(-0.142679 0.205575 6.16812)
(-0.135247 0.0974518 5.97601)
(0.237374 -0.00818156 3.04151)
(-0.32298 0.264879 2.82423)
(0.23381 0.0426106 3.92853)
(-0.0651135 -0.0196654 4.03731)
(-0.484675 0.81091 2.08873)
(0.0290261 0.160347 0.77396)
(0.053539 0.0999804 0.368523)
(-0.0771319 -0.204646 2.1068)
(-0.387097 -0.265837 2.38148)
(-0.632705 0.0833554 2.0015)
(-0.387225 0.324561 1.051)
(0.145022 0.0374644 0.438935)
(0.0374113 0.0830675 0.404979)
(-0.216403 -0.183383 0.730947)
(-0.296821 -0.0633782 0.691397)
(-0.105363 0.176618 0.523465)
(0.0496121 -0.0575094 0.359044)
(-0.0593992 0.133599 0.434777)
(-0.0767421 0.0717713 0.382043)
(-0.0343973 0.110765 0.37728)
(0.105782 -0.0367714 0.235531)
(0.0324462 -0.00777608 4.71117)
(-0.207613 0.265077 6.20234)
(-0.209104 0.154848 5.93305)
(0.0249608 0.280453 3.04305)
(0.0767876 0.450248 1.45351)
(0.118155 0.109858 4.19431)
(-0.188102 0.0712457 4.10526)
(-0.407779 0.890414 2.03851)
(0.170259 0.0592001 0.754911)
(0.0756536 0.0610749 0.410531)
(-0.0510286 -0.118362 1.97113)
(-0.319083 -0.197647 2.60208)
(-0.709577 0.133275 2.05624)
(-0.279307 0.319275 0.946285)
(0.137127 0.00742186 0.423377)
(0.0273392 0.114942 0.457178)
(-0.159566 -0.0875033 0.885618)
(-0.255587 -0.0484574 0.66735)
(-0.0775298 0.119996 0.516268)
(0.0459009 -0.09376 0.363033)
(-0.0626331 0.1363 0.492104)
(-0.0428522 0.0749308 0.366845)
(0.00741302 0.0983603 0.397522)
(0.128118 -0.0484626 0.269262)
(0.0332528 -0.0159772 4.54197)
(-0.304436 0.35529 6.19572)
(-0.289544 0.21463 5.77463)
(0.14218 0.393811 2.99232)
(0.212299 0.429001 0.849435)
(-0.0400233 0.27217 4.48551)
(-0.240621 0.322798 4.18693)
(-0.294958 0.936326 1.95468)
(0.266585 0.0200576 0.742906)
(0.105877 0.0583147 0.47141)
(-0.0425941 0.118587 1.86354)
(-0.294395 -0.0428156 2.81094)
(-0.729936 0.3218 2.14251)
(-0.167147 0.281062 0.892805)
(0.103538 -0.0418062 0.438805)
(0.0151837 0.145048 0.524188)
(-0.0933259 0.0404432 1.06843)
(-0.185208 0.0162807 0.681667)
(-0.0193855 0.0424293 0.52114)
(0.0427455 -0.128636 0.370809)
(-0.0617224 0.124836 0.549479)
(0.00592126 0.0877034 0.350717)
(0.0770316 0.0770872 0.40375)
(0.152791 -0.0633103 0.301256)
(0.0614757 0.156465 4.02218)
(-0.43903 0.483266 6.10366)
(-0.433079 0.357428 5.53346)
(0.23852 0.582027 2.81395)
(0.193606 0.369592 0.835302)
(-0.20371 0.49051 4.75861)
(-0.365852 0.827416 4.16007)
(-0.224515 0.879661 1.97015)
(0.30017 -0.0154662 0.737028)
(0.15292 0.0518 0.586861)
(-0.049176 0.322804 1.92947)
(-0.298112 0.192785 3.01274)
(-0.715741 0.572899 2.30119)
(-0.0400561 0.196215 0.865525)
(0.0605444 -0.110119 0.47724)
(0.00546538 0.155419 0.598213)
(-0.017468 0.196755 1.30348)
(-0.0824373 0.117132 0.744488)
(0.0658928 -0.0452016 0.538933)
(0.049438 -0.157363 0.382117)
(-0.0559195 0.10113 0.606126)
(0.081629 0.118335 0.34711)
(0.174235 0.0538146 0.401214)
(0.181418 -0.0834882 0.332394)
(-0.251935 0.0212172 2.18757)
(-0.571138 0.593155 5.93677)
(-0.570048 0.41246 5.05564)
(-0.138346 0.896171 2.41018)
(0.000169111 0.117947 1.0015)
(-0.354051 0.733638 5.03235)
(-0.495728 1.1134 4.00575)
(-0.0857713 0.503624 2.02764)
(0.269179 -0.0817066 0.741927)
(0.151575 0.0463783 0.695831)
(-0.0465464 0.484177 2.19155)
(-0.299134 0.461409 3.25522)
(-0.647671 0.694984 2.52058)
(0.0759222 0.0754075 0.83584)
(0.00412519 -0.175286 0.542111)
(0.00373782 0.138324 0.667797)