/*--------------------------------*- C++ -*----------------------------------*\
| =========                 |                                                 |
| \\      /  F ield         | OpenFOAM: The Open Source CFD Toolbox           |
|  \\    /   O peration     | Version:  5.x                                   |
|   \\  /    A nd           | Web:      www.OpenFOAM.org                      |
|    \\/     M anipulation  |                                                 |
\*---------------------------------------------------------------------------*/
FoamFile
{
    version     2.0;
    format      ascii;
    class       volScalarField;
    location    "8";
    object      p;
}
// * * * * * * * * * * * * * * * * * * * * * * * * * * * * * * * * * * * * * //

dimensions      [0 2 -2 0 0 0 0];

internalField   nonuniform List<scalar> 
10571
(
189.16
152.491
157.732
197.999
221.223
152.794
157.617
191.938
218.098
216.323
150.914
152.613
155.406
179.119
202.117
200.198
157.901
165.277
178.632
191.389
183.201
181.456
196.748
189.451
139.077
140.915
141.351
129.602
117.417
142.823
136.307
81.9546
95.0066
123.409
145.578
144.847
109.771
22.7325
18.9566
93.0366
97.511
25.3643
16.7107
19.0549
21.3251
77.7841
80.4225
56.3601
76.2627
97.6072
104.608
21.9139
30.8026
100.672
42.6245
16.3893
17.8741
57.4355
25.0912
62.3613
8.61713
5.93772
5.80181
10.1243
5.47919
5.46744
6.25154
7.03206
7.5469
7.69387
7.2372
6.64139
13.3762
6.99162
8.78891
15.6357
17.3045
6.43835
6.69745
7.10959
6.65502
14.8373
6.30805
5.89578
4.98981
7.4744
7.00754
6.98387
6.89655
7.03432
7.49687
7.42438
7.16517
7.08823
7.09815
7.30229
6.87807
7.02165
7.20097
6.7364
6.59611
6.87807
6.73306
6.18685
6.54109
6.69518
6.70072
6.6431
7.05236
7.07919
6.65932
6.78358
6.80247
6.9581
7.23049
6.97755
6.77745
6.90121
7.03759
7.23944
6.78546
6.8172
6.87881
6.65459
6.64857
6.75384
6.79484
6.77379
6.64858
6.70897
6.74007
6.78382
6.71079
6.88609
6.90014
6.66739
6.78682
6.75254
6.80287
6.86526
6.83085
6.7541
6.69523
7.00007
7.06583
7.05493
6.82704
6.81861
6.82882
6.77377
6.7375
6.7653
6.61996
6.72512
6.64124
6.72763
6.74872
6.85475
6.77127
6.72544
6.8407
6.70418
6.72431
6.74128
6.8787
6.87242
6.73666
6.64373
6.71997
6.8019
7.01725
6.95041
6.88288
6.84278
6.87875
6.82546
6.82793
6.79878
6.83939
6.56456
6.71596
6.6479
6.73392
6.75095
6.92483
6.86717
6.69411
6.77129
6.71259
6.73393
6.7102
6.96296
6.88878
6.78282
6.71287
6.77213
6.74854
6.97352
6.73368
6.8009
6.82436
6.88918
6.83827
6.81256
6.80109
6.87337
6.63081
6.68483
6.70174
6.7513
6.77445
6.95263
6.96346
6.70827
6.71411
6.71937
6.74504
6.72864
7.01272
6.89855
6.78456
6.74896
6.782
6.94074
6.83273
6.79817
6.80059
6.84009
6.80748
6.78639
6.7957
6.83999
6.68778
6.67264
6.74522
6.76013
6.91136
6.92493
6.76
6.69515
6.7392
6.79686
6.97231
6.85643
6.77313
6.76279
6.79497
6.87966
6.80653
6.81365
6.78779
6.81043
6.77249
6.76192
6.79012
6.80429
6.70095
6.68886
6.75978
6.78283
6.84744
6.8441
6.7737
6.70794
6.76516
6.79813
6.86057
6.79763
6.75656
6.78693
6.78536
6.80229
6.77729
6.79769
6.78702
6.78301
6.75405
6.74991
6.79313
6.76179
6.70304
6.70258
6.77668
6.78409
6.79113
6.77206
6.74998
6.7467
6.79451
6.81596
6.76546
6.76132
6.76698
6.81791
6.82475
6.73178
6.7798
6.80668
6.79982
6.76031
6.75515
6.76499
6.8091
6.71829
6.7097
6.72423
6.7922
6.77515
6.7463
6.70784
6.72446
6.76586
6.82961
6.83318
6.74027
6.73957
6.76266
6.82534
6.90715
6.73069
6.78311
6.81105
6.80434
6.76515
6.7756
6.78465
6.83989
6.70004
6.72524
6.75314
6.79945
6.79007
6.71858
6.65879
6.73658
6.78217
6.82705
6.83254
6.73174
6.7145
6.73535
6.80015
6.88096
6.74932
6.77006
6.78978
6.79974
6.78855
6.78379
6.78946
6.8229
6.70945
6.74642
6.76648
6.81465
6.81638
6.7372
6.70414
6.7696
6.79202
6.80847
6.82221
6.72632
6.72309
6.73902
6.81284
6.85027
6.75594
6.76495
6.77866
6.80576
6.81871
6.7821
6.78855
6.78615
6.73572
6.76043
6.77501
6.80345
6.80989
6.78362
6.76866
6.78484
6.79823
6.82316
6.81463
6.76439
6.77375
6.74955
6.85646
6.83944
6.77515
6.78238
6.82718
6.82202
6.84641
6.79914
6.8046
6.80156
6.76698
6.77525
6.78668
6.79158
6.80617
6.8279
6.82472
6.81361
6.80477
6.82015
6.81632
6.82651
6.83046
6.81888
6.90362
6.86628
6.8096
6.81858
6.87461
6.83249
6.85967
6.83019
6.82285
6.82837
6.78018
6.80128
6.78496
6.79719
6.80843
6.85137
6.84485
6.8801
6.81568
6.79749
6.81946
6.861
6.87753
6.83894
6.83607
6.8406
6.85552
6.84549
6.83892
6.84044
6.86482
6.85533
6.82652
6.85257
6.79001
6.82873
6.78441
6.81369
6.82027
6.85822
6.83917
6.91089
6.80559
6.83163
6.82865
6.86764
6.88415
6.81311
6.80044
6.83543
6.89152
6.85022
6.85365
6.86602
6.86928
6.87022
6.84048
6.87646
6.7986
6.83473
6.81191
6.83506
6.83806
6.86355
6.83025
6.88155
6.8065
6.86713
6.84211
6.85904
6.8389
6.78253
6.81418
6.85144
6.86791
6.83556
6.88557
6.89826
6.88616
6.88496
6.87087
6.89856
6.82228
6.83119
6.84708
6.83577
6.85163
6.87426
6.8335
6.83665
6.84604
6.86787
6.85646
6.85281
6.81531
6.7671
6.87863
6.87254
6.84769
6.80252
6.9091
6.91569
6.8914
6.88241
6.90084
6.90209
6.85379
6.84344
6.85359
6.8455
6.86789
6.88856
6.85146
6.81468
6.93574
6.87056
6.87199
6.85719
6.81307
6.76052
6.9174
6.8783
6.83473
6.73757
6.88409
6.90763
6.883
6.87679
6.90588
6.89605
6.86888
6.85093
6.88831
6.86598
6.89216
6.89858
6.87693
6.8337
6.97374
6.8418
6.87532
6.86851
6.80926
6.81586
6.90885
6.85793
6.82729
6.70028
6.8163
6.89548
6.8825
6.87464
6.87865
6.88462
6.8786
6.85874
6.88957
6.85624
6.88989
6.90017
6.89189
6.85535
6.92091
6.82264
6.86152
6.88263
6.8368
6.91002
6.91108
6.82646
6.84308
6.79111
6.78541
6.89536
6.88591
6.86712
6.86127
6.87658
6.88681
6.8669
6.88508
6.87089
6.88421
6.90565
6.89658
6.86887
6.88227
6.84824
6.85499
6.89474
6.8736
6.91314
6.92087
6.80696
6.86195
6.82016
6.81264
6.89964
6.89349
6.87042
6.85637
6.86115
6.88892
6.87771
6.89639
6.88097
6.88377
6.91582
6.9
6.87818
6.8715
6.87643
6.85796
6.90213
6.87907
6.85619
6.84313
6.82438
6.86289
6.7904
6.78051
6.87339
6.90021
6.8803
6.84723
6.83471
6.89594
6.88959
6.89681
6.87716
6.88447
6.93063
6.90737
6.8827
6.86699
6.88292
6.86929
6.90736
6.86927
6.80902
6.755
6.8489
6.85777
6.74999
6.7611
6.84971
6.90974
6.89065
6.81184
6.8254
6.90691
6.88555
6.87955
6.88496
6.89181
6.94418
6.91737
6.89057
6.87152
6.88642
6.89384
6.91444
6.87717
6.82342
6.63551
6.85627
6.86925
6.80054
6.71673
6.86029
6.92146
6.90132
6.80967
6.85685
6.92089
6.88177
6.87044
6.90183
6.90204
6.94973
6.92484
6.89725
6.87884
6.91475
6.91667
6.92239
6.90023
6.82393
6.7423
6.90937
6.89447
6.8831
6.79255
6.89565
6.93616
6.91804
6.85093
6.8975
6.93291
6.8846
6.87396
6.91809
6.91205
6.94666
6.92901
6.90226
6.90498
6.9425
6.9309
6.93077
6.92376
6.84475
6.9697
6.96324
6.92714
6.86301
6.92611
6.94657
6.95425
6.94179
6.90262
6.92835
6.94416
6.89688
6.88372
6.9242
6.92084
6.94447
6.93335
6.91304
6.93076
6.95493
6.94281
6.9388
6.9421
6.9372
7.04327
6.98542
6.96148
6.99402
7.32976
6.97827
6.9826
6.97623
6.95191
6.94259
6.95758
6.90366
6.90177
6.92792
6.93024
6.94525
6.94022
6.92699
6.93759
6.95441
6.95101
6.94364
6.94367
6.95844
7.03797
6.99011
6.97419
7.05927
7.32275
6.97289
6.99696
7.00636
6.95551
6.94356
6.96367
6.92905
6.92148
6.93021
6.94069
6.94772
6.9451
6.93293
6.93288
6.94757
6.95417
6.94463
6.94091
6.95092
6.98632
6.98041
6.96671
7.01335
7.07841
6.95103
6.97684
6.98312
6.93693
6.93697
6.95875
6.93793
6.92301
6.93166
6.94852
6.95055
6.94553
6.93198
6.92295
6.94272
6.9549
6.94448
6.93659
6.93614
6.95818
6.96876
6.95341
6.97188
6.98653
6.93822
6.94817
6.94827
6.92236
6.93021
6.94776
6.92765
6.9299
6.93506
6.95888
6.95018
6.94484
6.92842
6.91792
6.94387
6.95886
6.944
6.93406
6.93141
6.9469
6.96302
6.94556
6.94756
6.9443
6.93632
6.94966
6.92623
6.91291
6.92917
6.94985
6.9248
6.94176
6.93982
6.97281
6.95198
6.94359
6.9324
6.92661
6.95034
6.96727
6.94496
6.93273
6.94123
6.94944
6.96512
6.94696
6.94973
6.9385
6.94133
6.93236
6.92785
6.94191
6.9294
6.93414
6.91668
6.97522
6.94284
6.98402
6.943
6.93659
6.94115
6.94511
6.9605
6.97747
6.94356
6.93476
6.95258
6.9584
6.97338
6.95484
6.96006
6.9531
6.94499
6.906
6.93233
6.94793
6.92998
6.91029
6.95781
7.00345
6.93987
6.98097
6.9377
6.93155
6.95496
6.95737
6.9689
6.98545
6.94046
6.93412
6.96208
6.96751
6.98229
6.95638
6.96644
6.96357
6.948
6.90752
6.94322
6.94916
6.92787
6.90139
7.00047
6.97351
6.92495
6.96089
6.9364
6.93135
6.96955
6.95583
6.9696
6.97969
6.93974
6.94142
6.96502
6.97084
6.98681
6.95888
6.96706
6.97016
6.95228
6.92441
6.95103
6.95143
6.93245
6.89074
6.98827
6.93693
6.90072
6.94383
6.9493
6.9404
6.96563
6.94966
6.96312
6.96715
6.94937
6.95615
6.96387
6.97011
6.9818
6.96547
6.96768
6.97502
6.95902
6.9467
6.95658
6.95553
6.9386
6.92247
6.96335
6.92011
6.88339
6.93583
6.96618
6.96353
6.95566
6.94325
6.95054
6.95688
6.9697
6.96032
6.96026
6.96775
6.97972
6.976
6.97212
6.98119
6.96786
6.95948
6.96459
6.96257
6.94124
6.9299
6.96086
6.91374
6.88286
6.9378
7.00737
6.98591
6.93832
6.94007
6.93412
6.94855
7.00929
6.95332
6.96017
6.96739
6.97794
6.98403
6.97786
6.98936
6.97788
6.97729
6.9741
6.97214
6.95747
6.93672
6.98282
6.91692
6.89223
6.94436
7.05379
7.04427
6.95372
6.93821
6.92154
6.94431
7.05289
6.97131
6.96569
6.96262
6.97497
7.00047
6.98647
6.99947
6.98539
6.99099
6.98103
6.98002
6.97516
6.98046
6.9915
6.92883
6.90945
6.96529
7.01365
7.01257
6.98725
6.92716
6.90519
6.94918
6.99635
6.9818
6.95943
6.94966
6.97226
7.00455
6.9882
7.00569
6.98838
6.98903
6.98098
6.98248
6.98315
6.9858
6.97963
6.93843
6.93346
6.99661
6.98274
6.95146
6.98048
6.91283
6.89178
6.96177
6.9654
6.95725
6.94252
6.94068
6.97094
6.99157
6.97685
6.9981
6.98715
6.98326
6.9766
6.98064
6.98459
6.98128
6.96215
6.94463
6.95749
7.01
6.97544
6.95731
6.95449
6.89644
6.89308
6.98323
6.96336
6.93997
6.92405
6.93456
6.97045
6.97816
6.95829
6.98114
6.9835
6.97971
6.97214
6.97673
6.98292
6.98011
6.95253
6.95044
6.96742
6.99512
6.97238
6.96558
6.93935
6.89967
6.91139
6.98674
6.95759
6.91648
6.90414
6.93494
6.96878
6.95271
6.93838
6.9661
6.97941
6.97832
6.9706
6.97259
6.98062
6.97899
6.94678
6.94583
6.96704
6.97946
6.96936
6.96686
6.93851
6.9178
6.91394
6.97476
6.95016
6.90216
6.89489
6.93258
6.96145
6.94078
6.92975
6.95396
6.97697
6.97842
6.96939
6.96996
6.97916
6.97356
6.94653
6.93468
6.96132
6.97397
6.96989
6.95869
6.94462
6.93778
6.919
6.9677
6.95328
6.90662
6.89466
6.93193
6.96236
6.93756
6.91944
6.94384
6.97954
6.98441
6.97144
6.97062
6.98187
6.97469
6.94781
6.93057
6.95716
6.97867
6.97674
6.95914
6.95132
6.95426
6.9332
6.96267
6.95959
6.93571
6.91481
6.94176
6.97327
6.92958
6.91493
6.94603
6.99041
6.99805
6.98442
6.97904
6.99126
6.98677
6.96058
6.94213
6.95988
6.98968
6.98457
6.96862
6.97627
6.96878
6.95753
6.96924
6.9612
6.97167
6.94199
6.96878
6.97995
6.94027
6.93337
6.96301
7.01087
7.01451
7.00633
6.99859
7.0071
7.00009
6.97676
6.96653
6.98401
7.00577
6.98812
6.97417
6.99973
6.98839
6.98928
6.99371
6.95902
6.99112
7.0004
6.9905
6.97987
6.96021
6.97716
7.00152
7.03077
7.02462
7.02208
7.01765
7.02012
7.00628
6.98439
6.9923
7.00634
7.01916
6.98631
6.96641
6.99292
7.01279
7.01147
7.02281
6.96124
7.01524
7.0425
7.04632
7.03415
7.01731
7.03819
7.05792
7.03834
7.02695
7.02592
7.02539
7.02445
7.00533
6.98291
6.99674
7.00943
7.02385
6.98476
6.95458
6.97712
7.00892
7.01815
7.03248
6.96859
7.01677
7.04766
7.05979
7.05439
7.0418
7.06565
7.0839
7.0342
7.02657
7.02332
7.02337
7.02211
7.00413
6.97766
6.99197
7.0013
7.0197
6.99119
6.95593
6.97244
6.99793
7.00848
7.02532
6.9818
7.01562
7.03735
7.04233
7.04456
7.03923
7.05624
7.06572
7.02756
7.02789
7.0207
7.01793
7.01486
7.00835
6.98223
6.98522
6.98615
7.01018
7.00658
6.97087
6.9726
6.99532
6.99791
7.0127
7.00029
7.0209
7.02967
7.02509
7.0304
7.03839
7.04474
7.04675
7.02283
7.03398
7.0219
7.01275
7.00482
7.01807
6.98997
6.98146
6.96812
6.9951
7.02787
6.99371
6.98088
6.99285
6.98706
6.99686
7.0251
7.02847
7.02834
7.01578
7.01907
7.04341
7.04114
7.03982
7.02013
7.04688
7.02856
7.00862
6.99041
7.03372
6.99819
6.97503
6.94767
6.97293
7.05321
7.02119
6.99754
6.98954
6.97156
6.97394
7.05187
7.0394
7.02859
7.00779
7.00459
7.05208
7.04263
7.03658
7.01969
7.06813
7.04163
7.0065
6.97092
7.06042
7.01406
6.97066
6.91853
6.93747
7.09615
7.05512
7.0174
6.98446
6.94793
6.93708
7.07542
7.0528
7.03105
6.99903
6.98201
7.06194
7.04709
7.03625
7.02347
7.10052
7.06274
7.00951
6.94701
7.09595
7.03326
6.9745
6.88383
6.87168
7.13401
7.09744
7.03755
6.98124
6.90818
6.85897
7.1009
7.06737
7.03125
6.98284
6.94189
7.07239
7.0508
7.03304
7.03753
7.14629
7.09684
7.01697
6.92129
7.1451
7.05498
6.96803
6.82404
6.73064
7.17119
7.13954
7.05848
6.97658
6.83754
6.6754
7.12176
7.08288
7.03019
6.95165
6.86205
7.08216
7.05066
7.0195
7.07687
7.21179
7.15099
7.04655
6.90433
7.21184
7.09187
6.93472
6.73339
6.36685
7.20661
7.17232
7.07501
6.95873
6.73936
6.19392
7.14346
7.09421
7.02914
6.90858
6.69492
7.09318
7.05347
7.0064
7.15514
7.27673
7.22446
7.10657
6.91047
7.2639
7.14039
6.92549
6.60522
5.29499
7.24049
7.2091
7.08246
6.93071
6.62361
5.49146
-3.5395
7.17134
7.10958
7.03048
6.84931
6.29168
7.10616
7.05921
6.99748
7.23322
7.31481
7.28219
7.17483
6.96905
7.29395
7.16765
6.98593
6.5877
4.68356
0.173693
7.26509
7.23875
7.08636
6.95452
6.61364
5.31771
0.414834
7.20116
7.12618
7.03447
6.83845
5.73296
7.12584
7.07236
7.0086
7.26633
7.32834
7.30302
7.21854
7.08119
7.30401
7.17078
7.03192
6.70786
5.37164
1.3693
7.26732
7.24829
7.11549
6.9948
6.75945
5.29148
1.61315
7.22543
7.14363
7.0535
6.90922
6.06859
1.95308
7.15278
7.10189
7.05874
7.27482
7.32122
7.28716
7.2351
7.14424
7.29898
7.1698
7.0927
6.8916
5.67096
1.51436
7.26293
7.23431
7.13145
7.0698
6.93486
5.83296
1.37694
7.26426
7.14668
7.11965
6.99439
6.43944
7.17471
7.13696
7.12537
7.2676
7.29378
7.25825
7.22836
7.19008
7.26427
7.16947
7.14667
7.06772
6.42953
7.2536
7.22385
7.13765
7.13913
7.10081
6.45778
-1.9972
7.27446
7.13457
7.16733
7.10834
7.09566
7.18172
7.16225
7.17357
7.25119
7.26019
7.232
7.21511
7.21139
7.22451
7.16184
7.17511
7.16889
7.10087
7.22408
7.18412
7.13736
7.17285
7.16735
7.1421
7.21447
7.11028
7.17891
7.18555
7.22776
7.17623
7.17141
7.19208
7.2297
7.22923
7.20705
7.20161
7.21236
7.18741
7.15306
7.17476
7.20468
7.21649
7.19694
7.15023
7.1531
7.18843
7.19522
7.25084
7.17231
7.12816
7.17764
7.20415
7.23969
7.19746
7.17599
7.19898
7.21153
7.20998
7.18669
7.1874
7.20604
7.17137
7.14442
7.17324
7.20646
7.22908
7.19786
7.15488
7.15915
7.19597
7.20796
7.25913
7.17138
7.12916
7.17396
7.20988
7.23876
7.15966
7.16491
7.20447
7.19983
7.20785
7.18071
7.17551
7.19769
7.18581
7.15312
7.17255
7.20167
7.22682
7.22525
7.18501
7.17932
7.20214
7.20828
7.25144
7.19938
7.16008
7.18107
7.21685
7.24078
7.18829
7.19519
7.21048
7.1949
7.21449
7.18791
7.17229
7.1916
7.20887
7.17729
7.17802
7.20412
7.22715
7.25373
7.21758
7.20452
7.20198
7.22181
7.25231
7.23192
7.1905
7.19817
7.2263
7.25174
7.20946
7.19631
7.219
7.19426
7.21567
7.19623
7.17852
7.19038
7.22741
7.19601
7.19498
7.21298
7.23521
7.26533
7.23679
7.2152
7.21915
7.23681
7.2523
7.25439
7.21479
7.23452
7.24623
7.26217
7.22932
7.20989
7.2479
7.19293
7.21356
7.1976
7.18384
7.20022
7.22969
7.20905
7.20252
7.21126
7.25268
7.2612
7.24142
7.2235
7.21371
7.23038
7.26148
7.2642
7.24178
7.23931
7.25786
7.27267
7.26172
7.24142
7.28237
7.19657
7.21402
7.19665
7.19028
7.21752
7.23018
7.21208
7.20682
7.22698
7.27594
7.25879
7.24289
7.2273
7.22031
7.23873
7.27851
7.2672
7.2489
7.24483
7.26134
7.28636
7.27815
7.26409
7.29959
185.202
205.95
182.772
214.864
225.441
228.227
236.221
242.746
161.857
181.947
199.851
170.89
175.708
191.343
202.677
177.185
193.535
217.127
230.464
208.534
223.892
246.504
251.806
240.207
253.753
250.174
158.651
156.302
157.372
161.439
163.695
155.858
159.581
170.465
187.473
162.682
180.663
203.579
219.225
200.628
216.838
232.056
242.866
228.848
234.293
244.81
236.567
227.25
155.524
158.004
158.954
157.251
159.832
159.588
160.807
165.461
177.415
165.433
176.4
195.099
210.304
191.052
205.954
219.715
222.57
215.484
219.645
220.884
214.818
215.998
165.099
169.418
169.012
178.931
191.743
173.457
179.297
198.034
202.748
192.288
208.344
212.692
224.293
217.059
221.515
227.402
216.739
213.825
202.689
219.807
229.898
227.387
237.277
237.219
232.699
226.643
148.015
145.849
159.631
151.146
166.73
144.751
146.859
148.3
201.069
211.783
152.734
171.715
183.366
217.265
183.72
152.94
149.128
154.602
154.42
157.15
146.117
146.517
147.152
149.453
222.549
219.841
225.2
182.289
179.274
185.525
178.038
218.662
174.983
152.497
151.404
152.364
149.051
149.55
149.769
211.202
203.204
177.881
177.897
172.118
152.377
153.365
149.985
149.95
151.097
194.949
189.832
165.324
166.467
144.236
155.077
147.511
160.835
161.134
165.882
146.995
154.284
138.107
140.391
186.334
190.373
183.341
135.166
124.19
128.348
116.492
124.319
172.054
137.218
190.767
189.726
140.304
144.963
142.482
195.468
192.324
144.494
137.295
142.424
130.066
144.322
136.557
142.561
144.931
142.4
138.165
135.938
131.678
137.803
129.071
120.622
102.383
79.7339
122.646
70.8146
140.386
127.207
142.248
139.469
140.376
127.297
129.58
127.285
127.101
123.072
109.964
120.556
58.1667
76.6953
64.6786
83.119
116.817
84.2236
142.966
144.544
145.285
128.714
125.127
131.083
118.65
112.906
86.5464
74.3122
71.3053
144.484
135.137
118.21
115.977
63.4637
98.7816
56.6463
36.9765
50.2623
11.2352
103.535
15.5289
110.591
67.3279
74.001
13.302
27.363
7.75485
9.77386
12.7385
42.0757
15.3445
5.43341
5.40632
7.66614
6.91192
6.17814
71.8639
11.6687
82.0754
81.1182
20.0437
28.3536
31.2356
70.7276
80.1942
31.1571
18.5862
31.628
9.04941
112.87
59.4733
108.565
106.406
93.6076
50.4862
56.4206
42.8056
55.3875
38.6434
32.5794
19.0086
18.8261
38.2556
22.8011
91.9019
14.6139
101.984
96.8668
101.543
34.8404
47.0121
28.0923
51.14
43.1426
37.4567
56.1753
20.9468
26.7773
21.1026
34.4536
61.8878
40.5519
89.2387
55.7558
82.139
12.4852
7.29223
8.68189
38.9385
37.9369
33.6892
12.877
10.1811
25.7719
7.40251
5.93277
6.25975
5.22649
17.9555
6.70232
6.73555
7.00704
7.34742
5.4904
6.65449
6.91238
5.71745
5.96053
6.86095
6.57228
6.88606
6.74349
7.53485
6.65132
7.54071
7.42352
7.36469
7.25981
7.49061
7.48584
6.48093
6.7991
7.60295
8.65404
6.48662
6.45584
6.47035
6.90848
7.75702
6.42274
6.42932
6.50792
7.0848
7.82777
6.31884
11.3863
8.02472
8.47707
6.39543
6.26873
6.32542
11.1877
14.7807
6.73139
6.74772
7.77304
16.6011
10.0347
5.92185
6.8174
7.49833
6.44962
7.85024
6.52404
6.35803
6.67809
6.2214
20.0581
15.1296
21.0357
12.877
13.0701
10.1712
11.9185
22.3536
11.6064
5.63851
5.83638
5.80818
6.93177
7.0135
7.05198
6.87896
6.72367
7.27041
6.61311
6.7932
6.29297
6.68132
6.76938
6.70327
6.66766
6.97381
7.07813
6.83425
6.89957
6.89164
6.84551
6.78472
6.91941
6.84032
6.74382
6.82198
6.74806
6.82034
6.68103
7.21306
7.32613
7.29654
7.21954
7.08854
7.22622
7.21024
6.92774
6.97033
6.82913
7.01993
7.01911
6.8411
6.83742
6.91904
7.10968
7.14888
7.04393
7.14005
7.14037
7.29681
7.21031
6.86115
7.02763
7.23538
7.02631
6.72249
6.82748
6.71222
6.83313
6.69611
6.77598
6.76796
6.74515
6.65008
6.69249
6.88178
6.81358
7.15216
6.9715
7.04467
6.84268
6.9034
6.82233
6.86849
6.98951
6.67095
7.01284
6.66321
6.63418
6.64926
6.68345
7.20642
6.7031
6.88647
6.7695
6.8045
6.80929
6.76205
6.77328
6.63826
6.72514
6.62725
6.65149
6.63684
6.69831
6.68808
6.73107
6.72504
6.73461
6.79383
6.74409
6.75986
6.65395
6.67958
6.79447
6.82824
6.68289
6.81884
6.67803
6.79167
6.70124
6.83149
6.70633
6.91473
7.09809
7.10003
6.83341
6.84549
6.97825
6.98682
6.73396
6.83549
6.88201
6.87947
6.94593
6.95445
6.93969
7.00921
7.13097
7.15713
7.06076
7.14351
7.23603
7.16742
6.87751
6.8124
6.89208
6.92697
6.86665
6.84041
6.83838
6.82446
6.75503
6.74818
6.78705
6.75657
6.76683
6.73434
6.7659
6.80025
6.81243
6.84326
6.79034
6.79893
6.80055
6.79292
6.77439
6.74922
6.72024
6.67399
6.74269
6.64314
6.73169
6.71104
6.75173
6.72638
6.71623
6.80416
6.80665
6.78407
6.82066
6.8407
6.80017
6.72478
6.67301
6.75165
6.70413
6.73408
6.65742
6.69951
6.74033
6.72422
6.74867
6.75002
6.73897
6.73289
6.74046
6.77067
6.77823
6.82628
6.81167
6.81861
6.83277
6.67293
6.68578
6.72914
6.72911
6.70146
6.76458
6.77788
6.79804
6.82547
6.74734
6.78145
6.78578
6.8474
6.86152
6.89621
6.75338
6.85757
6.77992
6.83411
6.8132
6.89341
6.8627
6.81367
6.88759
6.87513
6.67327
6.75861
6.83106
6.80851
6.67944
6.91517
6.95879
6.98324
7.02621
7.01843
6.99541
7.02504
7.13129
7.21368
7.05162
7.08627
7.12228
6.95912
6.83078
6.83434
6.88884
6.84677
6.86704
6.88134
6.8294
6.83989
6.80278
6.80988
6.83556
6.81557
6.81099
6.80625
6.81022
6.83171
6.85863
6.79257
6.78097
6.72598
6.84854
6.80889
6.81569
6.74533
6.79739
6.78248
6.80978
6.76554
6.80224
6.78928
6.82274
6.77097
6.77787
6.77638
6.78326
6.77232
6.75313
6.76532
6.7449
6.84435
6.87322
6.82651
6.86582
6.91485
6.86089
6.75329
6.66696
6.74387
6.72864
6.75914
6.68426
6.75771
6.74098
6.7328
6.74472
6.74367
6.73557
6.72195
6.73988
6.85145
6.87803
6.88892
6.87759
6.91874
6.75776
6.74077
6.79564
6.72874
6.76515
6.74786
6.77461
6.76253
6.79921
6.81723
6.71701
6.75538
6.74861
6.79286
6.92438
6.95209
6.86211
6.92758
6.92334
6.92617
6.90671
6.95671
6.96188
6.69771
6.79312
6.75652
6.66847
6.70216
6.75639
6.72455
6.7547
6.74947
6.80399
6.82286
6.76339
6.80873
6.97929
6.98846
6.98373
6.98732
7.00008
6.96714
6.95099
6.96768
7.00267
6.77591
6.90498
6.82762
6.83335
6.86612
6.88033
6.8765
6.85155
6.84916
6.86645
6.86184
6.86177
6.82732
6.82257
6.83313
6.82723
6.81554
6.82025
6.81015
6.89291
6.90768
6.83786
6.85255
6.77836
6.89722
6.85757
6.87768
6.80992
6.81788
6.82492
6.82518
6.79761
6.80014
6.81748
6.80852
6.7806
6.79913
6.77739
6.80403
6.77402
6.75782
6.77645
6.76623
6.88247
6.92188
6.88465
6.89909
6.91809
6.89612
6.78057
6.69697
6.78149
6.74302
6.79063
6.71245
6.80023
6.74294
6.73336
6.74833
6.76004
6.76244
6.74038
6.75898
6.91004
6.93476
6.94975
6.93053
6.94875
6.77978
6.7552
6.7779
6.73908
6.79351
6.76478
6.7637
6.7584
6.73444
6.79038
6.7173
6.76547
6.7238
6.78814
6.97188
6.99412
6.92833
6.9829
6.9914
6.99576
6.9432
6.99559
7.00184
6.74911
6.7429
6.73275
6.73968
6.77654
6.74677
6.76554
6.79903
6.77995
6.78168
6.80739
6.73962
6.80074
6.98732
6.9836
6.95456
6.93546
6.94979
6.94089
6.93775
6.8874
6.73368
6.79243
6.89245
6.78272
6.78767
6.88206
6.87011
6.85812
6.86604
6.86356
6.84247
6.85876
6.85384
6.82052
6.80898
6.81092
6.80771
6.79839
6.80277
6.79529
6.89909
6.8762
6.86245
6.88181
6.83098
6.86523
6.84904
6.86428
6.83979
6.79885
6.81321
6.79418
6.79853
6.79773
6.80041
6.78201
6.77561
6.75595
6.89884
6.91385
6.89824
6.88226
6.90446
6.88862
6.81234
6.73146
6.81387
6.74299
6.81364
6.75037
6.82285
6.77907
6.75639
6.77742
6.78964
6.78406
6.78845
6.79046
6.93319
6.95477
6.93585
6.92569
6.94296
6.8104
6.77305
6.82553
6.76014
6.80811
6.77086
6.83704
6.78504
6.72859
6.80886
6.77173
6.78909
6.75849
6.80201
6.98974
6.96806
6.95942
6.99157
6.97966
7.0062
6.933
6.96416
6.93222
6.78573
6.76204
6.79829
6.75655
6.79706
6.77252
6.81157
6.78683
6.97351
6.94388
6.92176
6.93487
6.91932
6.90369
6.92479
6.88641
6.83101
6.83327
6.87007
6.84686
6.81298
6.84462
6.82561
6.82432
6.83609
6.83164
6.80693
6.81647
6.80771
6.79271
6.78657
6.79327
6.78018
6.77817
6.79
6.7879
6.85414
6.83981
6.83501
6.84632
6.83901
6.82081
6.82153
6.82671
6.8338
6.79861
6.78601
6.77857
6.79211
6.79828
6.77422
6.77647
6.77008
6.77942
6.858
6.88684
6.86753
6.8418
6.85916
6.84361
6.76172
6.84927
6.77433
6.75672
6.73183
6.90755
6.91249
6.88047
6.87938
6.87228
6.86128
6.78325
6.79291
6.762
6.79052
6.92989
6.89137
6.87778
6.92281
6.87588
6.92049
6.8299
6.86441
6.83832
6.80391
6.7688
6.81141
6.77599
6.79947
6.76262
6.80828
6.8036
6.88745
6.84126
6.87598
6.89973
6.84317
6.84639
6.86239
6.84159
6.82535
6.78589
6.82458
6.80061
6.80428
6.81358
6.80267
6.7932
6.8008
6.78896
6.78336
6.78935
6.77669
6.7721
6.77529
6.78517
6.76973
6.77546
6.78925
6.79239
6.82459
6.80794
6.80686
6.81269
6.8213
6.79868
6.79207
6.80038
6.80327
6.79608
6.76808
6.77712
6.78966
6.79503
6.76735
6.77851
6.78467
6.78569
6.82672
6.83365
6.82617
6.80639
6.81469
6.81327
6.77729
6.78629
6.78533
6.7828
6.79268
6.84826
6.83245
6.8177
6.8188
6.79854
6.79447
6.78906
6.80535
6.80378
6.80203
6.85055
6.81145
6.78418
6.82153
6.81273
6.80791
6.75008
6.79498
6.7977
6.79014
6.76106
6.80572
6.79945
6.78911
6.77106
6.81025
6.78788
6.81048
6.78795
6.81533
6.81784
6.75923
6.79084
6.79749
6.81454
6.78193
6.77951
6.81105
6.77508
6.7999
6.7944
6.79054
6.77816
6.78207
6.77081
6.77923
6.77906
6.77062
6.77421
6.77861
6.79244
6.78201
6.78407
6.80006
6.80747
6.78905
6.76671
6.77694
6.78481
6.78129
6.7677
6.76584
6.76507
6.76063
6.79887
6.77195
6.78476
6.80029
6.80826
6.77801
6.79349
6.7863
6.78984
6.78327
6.79782
6.79845
6.75767
6.77962
6.78009
6.78187
6.79097
6.78013
6.78239
6.78985
6.79249
6.77056
6.76771
6.76779
6.74937
6.81346
6.82722
6.82611
6.82173
6.85009
6.78074
6.76149
6.74118
6.7769
6.7925
6.73618
6.78212
6.76226
6.7909
6.80987
6.78723
6.82233
6.82803
6.84691
6.79355
6.84241
6.87191
6.77774
6.77462
6.78077
6.78682
6.72408
6.77802
6.76885
6.80806
6.77214
6.7794
6.81368
6.76744
6.81142
6.78929
6.78712
6.78673
6.7807
6.77629
6.79592
6.78756
6.78615
6.78875
6.7895
6.80385
6.79466
6.79019
6.81453
6.82254
6.74797
6.73688
6.76416
6.75028
6.74544
6.75797
6.76686
6.74202
6.73441
6.82053
6.78786
6.80602
6.82494
6.83004
6.79925
6.81774
6.79602
6.80372
6.73496
6.76142
6.76195
6.71677
6.74565
6.74569
6.78515
6.79067
6.77744
6.7899
6.79565
6.74506
6.72842
6.72862
6.72489
6.71014
6.82713
6.85863
6.83613
6.83287
6.85504
6.75187
6.741
6.82081
6.74721
6.7608
6.7409
6.81607
6.73398
6.73479
6.88925
6.79141
6.86291
6.81212
6.92581
6.77627
6.86459
6.90456
6.75357
6.74128
6.77397
6.75788
6.74121
6.7719
6.75735
6.81721
6.76244
6.7785
6.80629
6.76409
6.80171
6.78937
6.79473
6.80353
6.79413
6.79809
6.80758
6.79541
6.80787
6.79869
6.7857
6.80275
6.79789
6.78255
6.82118
6.81222
6.73213
6.7332
6.77433
6.74087
6.727
6.77491
6.78353
6.744
6.72458
6.83834
6.81221
6.82969
6.84289
6.84413
6.82678
6.84054
6.81734
6.82667
6.70354
6.73494
6.73424
6.69794
6.73161
6.73069
6.79945
6.80534
6.80662
6.80737
6.81291
6.71223
6.69645
6.72178
6.71541
6.69826
6.83344
6.84852
6.82794
6.83202
6.8427
6.72932
6.72313
6.77303
6.72566
6.71962
6.72383
6.73585
6.72563
6.71579
6.92276
6.76165
6.83432
6.81342
6.89904
6.74092
6.80499
6.86178
6.73741
6.73928
6.77214
6.76919
6.75271
6.77056
6.77096
6.80034
6.76414
6.76447
6.79996
6.76022
6.78058
6.8022
6.8108
6.80729
6.79587
6.81207
6.80406
6.79682
6.80979
6.79653
6.78244
6.7997
6.79918
6.788
6.80603
6.79947
6.74197
6.75512
6.79391
6.75139
6.7312
6.80271
6.8054
6.76191
6.74959
6.83226
6.82308
6.8382
6.80242
6.81799
6.80567
6.83016
6.83086
6.82593
6.70162
6.73599
6.73326
6.7124
6.74759
6.74097
6.80962
6.81562
6.81432
6.80526
6.81317
6.73393
6.71723
6.7599
6.7597
6.7513
6.82597
6.83466
6.81879
6.82124
6.82899
6.72778
6.7459
6.7137
6.73695
6.72843
6.7387
6.70326
6.75575
6.74962
6.86439
6.73659
6.79911
6.8191
6.8294
6.76979
6.80319
6.83917
6.7459
6.75835
6.76766
6.76389
6.76362
6.77084
6.77241
6.80419
6.75315
6.77127
6.80815
6.75696
6.7935
6.82087
6.83225
6.80305
6.80069
6.8062
6.8073
6.80874
6.80689
6.8037
6.79789
6.81417
6.81257
6.80748
6.79739
6.80243
6.77267
6.79062
6.81942
6.77768
6.777
6.83382
6.83436
6.79306
6.80406
6.80842
6.7878
6.81764
6.78921
6.80589
6.78495
6.81086
6.81516
6.80919
6.72711
6.76299
6.75209
6.74429
6.77984
6.76684
6.80292
6.80768
6.80666
6.80374
6.80671
6.78564
6.78856
6.80715
6.80959
6.82237
6.81659
6.82588
6.81465
6.81553
6.82645
6.77435
6.80625
6.71453
6.78281
6.78168
6.79589
6.78158
6.80902
6.81448
6.82246
6.82712
6.89187
6.90414
6.88526
6.92379
7.1214
6.85373
6.77875
6.80225
6.78397
6.78788
6.79107
6.79189
6.79286
6.81397
6.78057
6.79711
6.82559
6.81404
6.856
6.84461
6.85615
6.81569
6.82113
6.81386
6.82658
6.83507
6.82515
6.82219
6.81634
6.82851
6.82974
6.82369
6.81263
6.82262
6.8077
6.82084
6.84696
6.80621
6.82511
6.85443
6.8562
6.8135
6.83841
6.81085
6.791
6.81049
6.81515
6.81913
6.80304
6.81454
6.81009
6.81294
6.76192
6.79505
6.78073
6.77887
6.80763
6.79153
6.80589
6.80789
6.806
6.80809
6.8098
6.83044
6.85077
6.84286
6.84341
6.87093
6.81604
6.82908
6.81769
6.81738
6.82867
6.83573
6.8575
6.8518
6.83626
6.84578
6.8475
6.89377
6.85603
6.86769
6.92087
6.91156
7.15577
6.87458
6.88413
6.80426
6.9797
6.85558
6.82499
6.84472
6.8078
6.81998
6.83322
6.82959
6.85527
6.84532
6.84528
6.83581
6.86005
6.86331
6.86385
6.86599
6.87372
6.83903
6.84926
6.8395
6.85051
6.86204
6.853
6.83378
6.83003
6.83595
6.8369
6.83639
6.83285
6.84351
6.83013
6.83694
6.86363
6.81658
6.84402
6.86262
6.86936
6.81724
6.84408
6.82939
6.81435
6.81896
6.84069
6.84041
6.82343
6.82557
6.81826
6.8254
6.79397
6.81723
6.80025
6.80553
6.82564
6.80878
6.80984
6.81224
6.81374
6.81198
6.81557
6.8485
6.87886
6.85574
6.84915
6.88213
6.81941
6.8282
6.82228
6.82308
6.82893
6.8693
6.87483
6.89918
6.87071
6.87791
6.86717
6.88866
6.87716
6.88246
6.84732
6.76055
6.86114
6.80589
6.83001
6.78392
6.83314
6.83341
6.85927
6.86587
6.8468
6.8866
6.87268
6.8498
6.90266
6.86525
6.86921
6.84753
6.87135
6.86782
6.8399
6.88002
6.8866
6.85895
6.87295
6.86335
6.86625
6.88315
6.8708
6.84109
6.84631
6.85035
6.84674
6.86087
6.85455
6.86716
6.84333
6.85162
6.87313
6.81958
6.84213
6.86659
6.87376
6.82512
6.83916
6.85311
6.83176
6.8344
6.86407
6.86589
6.84016
6.84281
6.83333
6.8414
6.81515
6.83361
6.81708
6.82374
6.8416
6.82459
6.81457
6.82155
6.82863
6.81882
6.82717
6.84842
6.88254
6.86049
6.84809
6.88225
6.83056
6.83408
6.83516
6.83763
6.84085
6.87615
6.87476
6.87189
6.87618
6.87839
6.86424
6.8562
6.86992
6.86955
6.82639
6.83335
6.85374
6.80041
6.82759
6.89239
6.89068
6.84179
6.86598
6.86594
6.84985
6.90498
6.88985
6.84238
6.88808
6.87383
6.86366
6.84589
6.85771
6.85174
6.87127
6.89355
6.89879
6.87354
6.89339
6.87682
6.8799
6.90086
6.87872
6.85465
6.87915
6.88323
6.86558
6.89867
6.88185
6.8973
6.86215
6.87409
6.87108
6.83623
6.83728
6.87696
6.8709
6.84707
6.83888
6.87964
6.85008
6.85116
6.88911
6.89326
6.85913
6.85823
6.8503
6.85928
6.83329
6.84997
6.83186
6.84626
6.85928
6.84027
6.82428
6.83521
6.84621
6.83145
6.84402
6.84918
6.88235
6.86808
6.85244
6.88311
6.84604
6.85009
6.84928
6.85436
6.86047
6.872
6.86939
6.83847
6.86065
6.85482
6.85459
6.82308
6.85223
6.84052
6.83219
6.95814
6.92295
6.84493
6.84255
6.99091
6.93311
6.86202
6.85726
6.84523
6.84373
6.87134
6.85299
6.84557
6.85731
6.8323
6.8395
6.82539
6.82215
6.82786
6.89761
6.8997
6.897
6.88636
6.90033