/*--------------------------------*- C++ -*----------------------------------*\
| =========                 |                                                 |
| \\      /  F ield         | OpenFOAM: The Open Source CFD Toolbox           |
|  \\    /   O peration     | Version:  5.x                                   |
|   \\  /    A nd           | Web:      www.OpenFOAM.org                      |
|    \\/     M anipulation  |                                                 |
\*---------------------------------------------------------------------------*/
FoamFile
{
    version     2.0;
    format      ascii;
    class       surfaceScalarField;
    location    "8";
    object      phi;
}
// * * * * * * * * * * * * * * * * * * * * * * * * * * * * * * * * * * * * * //

dimensions      [0 3 -1 0 0 0 0];

internalField   nonuniform List<scalar> 
29271
(
-3.22525e-06
3.22063e-06
-2.7576e-06
2.67793e-06
-6.55745e-06
3.64525e-07
1.76421e-07
6.07435e-06
-1.67418e-05
-2.87562e-07
9.30379e-07
-1.04275e-05
1.06874e-06
2.54578e-05
-1.91726e-05
-8.58643e-07
1.30722e-05
-7.50247e-06
2.11087e-06
1.23507e-05
-1.29996e-05
4.74995e-08
-6.76787e-07
8.66195e-07
1.02775e-05
2.4852e-06
-1.60823e-05
-2.8668e-06
-1.28017e-06
-2.52921e-06
4.40579e-06
1.83527e-05
-1.98455e-05
-6.15553e-06
8.6782e-06
-1.58378e-05
7.76077e-06
2.53999e-05
-1.68739e-05
-2.14691e-06
1.21314e-05
-7.12033e-06
2.04231e-06
1.19675e-05
-1.5708e-05
-9.55772e-07
4.92573e-06
-2.20567e-06
1.38252e-06
1.25612e-05
-1.28892e-05
-6.79373e-07
2.0152e-06
1.10885e-05
4.04257e-07
-5.65665e-06
-9.7922e-07
-1.5628e-06
8.20504e-06
-2.20386e-05
1.32901e-06
5.97195e-07
-3.8837e-06
-6.08868e-06
3.00848e-05
-2.15927e-05
2.08572e-06
8.40027e-06
-1.44635e-05
-1.38965e-05
3.94666e-05
-1.60961e-05
-2.28366e-06
8.73672e-06
-4.1898e-06
1.53861e-06
1.22943e-05
-1.44754e-05
-2.24235e-06
2.08086e-06
-1.7991e-06
2.33287e-06
1.41031e-05
-1.83722e-05
-3.0935e-06
-1.40488e-06
5.04326e-06
1.69279e-05
8.99374e-07
-1.42809e-05
5.27651e-07
-1.70325e-06
-1.66722e-06
1.16963e-05
5.42744e-06
-2.0997e-05
6.29036e-06
1.6542e-05
-1.33992e-05
-8.48841e-06
2.00522e-05
-2.10534e-05
4.38282e-07
9.54366e-06
-4.7473e-06
-2.95899e-06
1.87778e-05
-1.81308e-05
-1.84936e-06
5.98794e-07
1.79137e-05
-1.45974e-06
2.92742e-06
-6.36651e-06
-2.19275e-06
1.45458e-06
7.04441e-06
-1.19047e-05
7.11898e-07
-1.34562e-06
9.24096e-06
3.2163e-06
-1.56597e-05
5.47303e-07
-2.35059e-07
-2.02501e-07
1.36645e-05
1.88542e-06
-5.90428e-06
-2.30126e-07
8.87641e-08
5.87956e-06
-3.03838e-06
-2.03204e-06
1.0389e-06
3.96897e-06
-6.15244e-06
-7.3491e-07
1.10912e-06
5.8436e-06
-5.99305e-06
-1.55161e-06
-3.17403e-05
3.7095e-06
6.89933e-06
2.86761e-05
-1.04921e-06
-9.48983e-06
-1.67642e-06
8.41586e-07
8.17789e-07
1.05561e-05
-1.00904e-05
-5.14372e-07
-3.37884e-07
7.64848e-07
1.00934e-05
8.44149e-08
1.08638e-06
-5.78368e-07
-1.94278e-05
2.40291e-06
-1.36257e-06
1.78794e-05
1.51263e-05
1.28774e-05
8.52697e-05
-2.05752e-05
-1.1889e-05
-4.20703e-05
-1.22934e-05
-3.69368e-06
-1.42901e-06
-3.09809e-06
-1.83013e-06
-3.14724e-06
-5.11226e-06
-2.76861e-06
-5.36649e-06
-2.08401e-06
1.22314e-05
4.5021e-05
-1.0791e-05
-9.88716e-06
-8.18387e-06
-8.117e-06
-1.46755e-06
-1.19146e-06
-3.84532e-07
-1.94989e-08
-7.06361e-07
1.66517e-05
2.12292e-05
-5.42479e-07
-6.84329e-07
3.37528e-07
-4.09694e-07
-5.37704e-07
-2.7481e-07
-2.75382e-07
-1.02703e-05
-9.67599e-06
-8.30614e-06
-8.61919e-06
-1.11918e-05
2.75216e-07
4.95632e-07
9.73517e-06
-7.05652e-06
-2.51499e-07
2.08732e-06
5.24204e-06
-1.92814e-06
-3.20781e-05
-9.6347e-07
9.77336e-06
2.45884e-06
2.27375e-05
2.06678e-05
1.3882e-05
0.000119941
-4.64637e-05
-2.07578e-05
-2.71538e-05
-1.53807e-05
-1.39877e-05
-7.53157e-06
-7.28255e-06
-3.05562e-06
-8.38641e-07
1.92284e-06
9.20069e-05
-1.42767e-05
-1.34688e-05
-1.61912e-05
-1.62553e-05
-3.38897e-06
1.65141e-06
8.01082e-05
-3.12392e-06
-2.54021e-06
-2.78653e-06
2.43898e-06
5.09111e-06
9.21584e-06
-1.61646e-05
-1.80432e-05
-1.84324e-05
-1.82127e-05
-1.39124e-05
-1.54978e-06
-2.24333e-06
4.61138e-06
9.70514e-06
-1.32425e-05
-8.42993e-07
6.11521e-07
2.47633e-06
1.5897e-05
-4.8994e-06
2.76126e-06
-9.16705e-07
8.13857e-05
-2.92797e-06
-1.60762e-06
-8.98201e-07
-5.35259e-07
-1.01191e-06
-2.57781e-07
-4.12404e-07
-1.85389e-05
-1.67996e-05
-1.25967e-05
-1.3762e-05
-2.44961e-07
-1.65237e-06
7.76986e-05
-3.06818e-08
2.4454e-06
3.87438e-08
-1.5592e-06
-1.14378e-06
-8.56238e-07
-1.83593e-05
-1.76327e-05
-1.717e-05
-1.68494e-05
-1.81798e-05
-5.92788e-07
-9.37725e-07
2.11168e-05
-8.01248e-06
-3.07427e-06
1.48765e-06
9.62412e-06
-9.50724e-06
5.62046e-08
-2.41196e-07
8.72241e-06
-1.3473e-05
-1.91283e-07
8.55706e-07
-1.48871e-07
1.13051e-05
-6.0707e-06
8.49431e-07
-4.82472e-07
5.64082e-06
-2.72823e-06
-1.35461e-06
2.71964e-06
1.39827e-06
-6.11344e-06
-9.29679e-07
8.80246e-07
6.24423e-06
-7.48128e-07
-6.15311e-07
-2.24722e-05
6.05324e-06
1.58885e-06
1.61936e-05
-5.50698e-06
-1.54155e-05
-5.51222e-06
1.06124e-06
2.89732e-06
2.24761e-05
-1.22667e-05
-1.54249e-06
-1.83576e-06
6.14586e-08
1.24763e-05
3.10722e-06
-7.77789e-07
1.4498e-06
-1.7516e-05
-4.68977e-07
1.22067e-06
1.60923e-05
9.35886e-06
2.23697e-05
7.39013e-05
-4.54037e-06
-1.7026e-06
-2.35075e-06
-4.96008e-07
-4.06437e-06
-5.01206e-06
-1.19409e-06
-9.99887e-07
5.09315e-08
3.38783e-05
3.17414e-05
-1.21523e-06
-1.33904e-06
-3.04356e-06
-5.69291e-06
-1.54239e-06
2.64953e-05
4.57176e-06
-1.77354e-06
-1.44411e-06
-1.79141e-06
-1.34155e-06
-6.91973e-07
-9.2868e-07
-2.73259e-07
-7.85231e-06
-1.20007e-06
2.35693e-06
5.23129e-06
-5.11031e-06
-1.50405e-06
4.34006e-07
6.11901e-06
1.40221e-06
-1.88857e-05
-3.84039e-06
-5.64289e-07
5.00893e-06
1.68792e-05
1.4262e-05
8.74308e-06
0.00012871
-4.728e-06
-1.72053e-06
-2.24826e-06
-7.07843e-07
-5.03302e-06
2.31872e-05
0.000121993
-1.98917e-06
9.51874e-06
7.9776e-05
-4.18872e-06
-3.46718e-06
-7.06373e-06
1.03257e-05
1.00915e-05
8.56735e-06
-7.93241e-06
-2.85316e-06
-3.17915e-06
5.57825e-06
6.39729e-06
-1.94766e-05
-4.55864e-07
-6.02975e-07
1.10408e-06
2.38551e-05
-4.42376e-06
-2.24029e-06
-2.75953e-07
0.00011229
-6.39146e-07
-1.85722e-07
-4.87451e-06
-4.11261e-06
1.83765e-07
-6.32719e-06
-3.68931e-06
-1.79059e-06
8.52175e-07
0.000111234
-2.26005e-06
-3.77158e-06
-5.79667e-06
8.10942e-07
-4.33435e-07
-1.99123e-07
-2.63591e-05
-3.36662e-06
8.22643e-06
2.92274e-05
-1.07094e-05
-4.33476e-06
5.64759e-06
9.39809e-06
-8.33234e-06
2.23777e-06
-3.09607e-07
6.12169e-06
-9.33405e-06
-1.59423e-07
2.73252e-07
-1.66806e-08
1.00891e-05
-6.26704e-06
-2.62746e-06
-3.22322e-07
9.18462e-06
-3.15005e-07
9.68724e-09
3.98727e-07
-7.0367e-08
-6.49299e-06
-6.38553e-07
1.13989e-06
6.00684e-06
-7.4798e-08
4.34989e-07
-1.06011e-05
-8.28078e-07
2.73762e-07
1.07953e-05
-7.07472e-07
-3.504e-05
-2.83162e-07
-6.29806e-06
1.19688e-05
3.03599e-05
-5.72514e-06
-5.17802e-07
3.46799e-07
1.1276e-06
4.69971e-07
4.29857e-06
-1.23978e-06
2.09841e-06
-1.52063e-05
-1.20031e-06
2.09764e-06
1.34503e-05
-5.84179e-07
2.38184e-05
6.33332e-05
-1.44316e-06
-4.4139e-06
-2.49771e-06
-2.84242e-06
1.15719e-06
8.37925e-07
-2.02502e-06
-1.43916e-06
2.33839e-07
2.63223e-05
5.05902e-05
-1.8118e-05
-1.19543e-05
-1.09527e-05
-4.96424e-06
8.10977e-08
1.49734e-05
-4.39508e-06
-1.73926e-06
-1.56408e-06
-1.42525e-06
-1.4667e-06
3.89046e-07
1.4991e-07
-1.97521e-07
-2.84353e-06
-1.07083e-06
3.38807e-06
6.59903e-07
-7.28043e-06
1.36729e-07
-5.87574e-07
7.73128e-06
-1.55265e-06
-1.44736e-05
-1.15435e-06
2.77294e-06
1.05366e-07
1.43023e-05
3.73294e-06
4.05622e-06
0.000163906
-3.30125e-06
-4.95766e-06
-4.65166e-06
-6.25631e-06
-2.62215e-06
3.36418e-05
0.000121029
-4.11849e-07
8.90383e-06
5.77436e-05
-1.01572e-06
8.52831e-07
1.24977e-06
7.29404e-06
1.00193e-05
7.49157e-06
-5.50478e-06
-1.64713e-06
1.27898e-06
-1.83114e-06
7.29222e-06
-2.40702e-05
1.54116e-06
1.797e-06
-1.93837e-06
2.20033e-05
6.67022e-07
-1.13343e-05
2.54587e-07
0.000126883
-2.59716e-06
-2.69414e-07
7.30867e-07
4.06599e-06
-2.49433e-06
1.74505e-06
-6.37973e-07
-3.63409e-06
4.1567e-06
0.00012235
-4.53954e-06
-1.03855e-06
-2.42916e-06
4.41319e-06
7.45156e-06
6.81117e-06
-3.0639e-05
-3.32206e-06
8.98292e-06
3.02478e-05
-5.26924e-06
2.74174e-06
4.16073e-07
2.1152e-06
-5.47374e-07
2.66645e-06
-3.29829e-06
1.43385e-06
-1.25025e-05
4.06539e-06
-7.35112e-06
2.57508e-06
1.73699e-05
-1.04115e-05
-8.40527e-06
6.80297e-06
1.20128e-05
-1.08158e-07
-1.12113e-06
1.05249e-06
1.7687e-07
-5.27835e-06
-2.55834e-07
6.60652e-07
4.87353e-06
-1.18379e-07
-7.98753e-07
-1.36225e-05
-4.31383e-07
3.25365e-06
1.17173e-05
9.77182e-07
-1.99925e-05
2.61505e-06
-3.02946e-07
4.3412e-07
1.62691e-05
1.50665e-07
-5.87918e-07
7.31706e-07
5.03733e-07
1.45509e-07
-9.43694e-07
-1.26459e-06
-1.64027e-06
-1.25727e-05
2.54759e-06
1.23926e-07
1.2806e-05
1.1166e-05
2.17967e-05
5.99903e-05
-4.79373e-06
-2.17955e-06
-4.62648e-06
-1.57336e-06
-4.51448e-06
-4.15249e-06
-4.13342e-06
-3.64621e-06
-3.25171e-06
2.49847e-05
5.66708e-05
-4.43828e-06
-3.40245e-06
-4.85131e-06
-3.95557e-06
-1.00633e-07
6.21889e-06
-1.45992e-06
-1.15394e-06
-1.22655e-06
-1.97064e-06
-2.02666e-06
-2.78031e-06
-8.5767e-07
-2.28934e-06
1.26284e-06
-1.27402e-06
1.95229e-06
-2.05608e-06
-6.83514e-06
1.87969e-07
6.89339e-07
5.95783e-06
-1.56881e-06
-1.36031e-05
4.14703e-07
1.68993e-06
-2.23054e-06
1.52978e-05
7.66898e-06
1.41797e-05
0.000166425
-1.95915e-06
-3.25853e-06
1.46786e-06
1.17922e-06
1.04539e-05
2.72208e-05
0.000116008
1.00942e-06
5.45561e-06
5.12082e-05
2.29769e-06
1.35747e-06
2.73086e-06
3.16467e-06
4.96714e-06
2.22529e-06
-1.04263e-05
-3.00559e-08
1.68379e-06
-2.85972e-06
1.26417e-05
-2.08462e-05
4.19972e-06
-3.03387e-06
-4.64804e-06
1.97946e-05
4.53378e-06
-1.15116e-05
1.18362e-06
0.000127146
4.22776e-06
5.40648e-06
6.48374e-06
5.52751e-06
2.78364e-07
1.52214e-06
7.98671e-07
-6.45497e-07
6.84054e-06
0.000112957
-1.70898e-06
1.75922e-06
-5.20935e-07
5.97645e-06
7.26684e-06
6.13456e-06
-3.13014e-05
6.34796e-07
7.40417e-06
2.80725e-05
-1.46922e-06
1.92348e-06
-2.40999e-06
1.95723e-06
-4.11793e-06
2.94821e-06
-4.35195e-06
6.70527e-06
-2.26281e-05
5.40748e-06
-7.68824e-06
5.07602e-06
2.66734e-05
-1.43406e-05
-7.06156e-06
4.83305e-06
1.65691e-05
9.53661e-07
-1.96557e-06
1.72227e-06
-7.10356e-07
-4.49669e-06
2.47374e-07
6.25374e-07
3.62394e-06
-3.58677e-07
-1.25322e-06
-7.75219e-06
1.17656e-06
3.70227e-06
4.48527e-06
-2.50367e-06
-1.63631e-05
-1.73433e-06
1.88096e-06
3.99763e-06
1.47225e-05
-2.08523e-06
-2.55585e-06
2.29606e-06
1.57653e-06
2.34404e-06
-1.57555e-06
9.12641e-08
-2.33114e-06
-1.31191e-05
3.23063e-06
-2.15989e-06
1.42882e-05
6.4237e-06
2.42518e-05
5.41168e-05
-4.78075e-06
-2.35788e-06
-3.6588e-06
-3.6568e-06
-3.32248e-06
-2.70584e-06
-2.8448e-06
-1.47463e-06
6.36142e-06
2.66919e-05
4.51795e-05
-5.55339e-06
-3.15329e-06
-3.45604e-06
-2.97557e-06
-1.23231e-06
3.29557e-06
1.63316e-05
-1.88392e-06
-2.78905e-06
-2.15754e-06
-2.54823e-06
-1.29965e-06
-1.76586e-06
-1.04908e-06
9.72664e-07
-5.98738e-07
-1.12559e-06
-3.75668e-06
3.27603e-06
1.79128e-07
-1.04277e-08
1.74285e-08
-1.86106e-07
-5.8416e-06
2.77909e-06
-2.875e-06
5.9375e-06
2.55279e-07
-1.84151e-05
4.24702e-06
-1.2235e-06
-5.20802e-06
2.03443e-05
4.85552e-06
1.94944e-05
0.000153863
2.6528e-06
2.6667e-06
3.4931e-06
3.6512e-06
1.8386e-05
2.174e-05
0.000107429
2.08794e-06
2.35345e-06
5.53512e-05
4.35418e-06
2.46937e-06
4.23861e-06
9.81983e-07
1.51761e-06
-4.64525e-07
-1.29157e-05
2.95636e-06
1.6344e-06
-1.43681e-06
1.18497e-05
8.87281e-09
-2.4361e-07
-2.17377e-09
-1.38254e-07
3.74933e-07
-1.91971e-05
5.50879e-06
-5.73038e-06
-3.98238e-06
1.89149e-05
4.48618e-06
-7.38068e-06
1.42544e-06
0.000127332
5.94703e-06
5.01058e-06
6.28042e-06
4.80487e-06
1.02766e-06
1.29636e-06
8.96476e-07
1.73153e-06
4.53001e-06
0.000107971
1.47446e-07
2.67238e-06
3.60469e-07
3.86546e-06
3.17659e-06
2.86192e-06
-2.62887e-05
2.75157e-06
3.89361e-06
2.37285e-05
-4.28249e-06
2.5967e-06
-5.46964e-06
7.1468e-06
-9.32845e-06
3.57797e-06
-4.39904e-06
1.1575e-05
-3.03599e-05
4.31699e-06
-5.82735e-06
4.67656e-06
3.17237e-05
-1.8349e-05
-3.95171e-06
3.06053e-06
1.92402e-05
4.50372e-07
-2.31117e-06
1.82646e-06
3.434e-08
-3.0882e-06
5.3607e-06
-5.43658e-06
3.16408e-06
9.73727e-07
-3.61135e-06
-3.19117e-06
1.62015e-06
7.99544e-07
3.40911e-06
5.23672e-09
-1.25573e-05
-2.31665e-06
3.97193e-06
1.08798e-06
9.8088e-06
-2.556e-06
-1.99763e-06
3.88896e-06
1.78633e-06
3.41251e-06
-4.53417e-06
5.54706e-06
-3.32721e-06
-1.52942e-05
3.68714e-06
-6.56252e-06
1.59497e-05
6.59474e-06
2.27878e-05
5.07791e-05
-2.54599e-06
-5.85947e-06
-6.84218e-07
-5.06878e-06
-3.32975e-06
-2.23982e-06
-3.93721e-06
-2.37968e-06
1.56981e-06
2.92435e-05
3.9377e-05
-4.48088e-06
-4.34088e-06
-4.81798e-06
-4.7763e-06
-2.72362e-06
1.49076e-06
3.09654e-05
-2.14982e-06
-1.22253e-06
-2.45047e-06
-1.24169e-06
-1.07712e-06
-2.90944e-06
-7.80073e-07
-5.0944e-06
3.28559e-06
-2.76652e-06
-3.22838e-06
5.0801e-06
-6.39231e-07
1.53542e-06
1.51859e-06
-6.72337e-07
-3.75181e-06
2.00937e-06
-5.79708e-06
3.47369e-06
-3.11223e-06
5.43561e-06
-1.07995e-07
-2.1178e-05
6.73839e-06
-1.1337e-06
-5.56041e-06
2.12417e-05
2.77358e-06
1.72925e-05
0.000145675
2.50094e-06
2.58486e-06
2.81747e-06
3.00667e-06
1.79057e-05
2.02521e-05
0.000101288
3.23375e-06
3.05505e-07
6.09631e-05
4.07922e-06
3.49105e-06
3.93338e-06
-6.58269e-07
4.55677e-07
-1.05567e-06
-1.24419e-05
4.05434e-06
1.30069e-06
-2.34696e-06
1.26676e-05
-1.03424e-06
4.85025e-06
9.84855e-07
-2.25059e-06
-3.99729e-06
1.44702e-06
-1.88025e-05
3.08396e-06
-5.03887e-06
-2.4929e-06
1.92517e-05
3.99857e-06
-1.83921e-06
1.01325e-06
0.0001252
5.07731e-06
3.8172e-06
5.44573e-06
3.34098e-06
5.90694e-07
1.0434e-06
9.35128e-07
3.18667e-06
1.43667e-06
0.000111106
1.26614e-06
4.03618e-06
1.57629e-06
1.67823e-06
8.02966e-07
1.29403e-06
-2.26158e-05
2.72609e-06
1.42242e-06
2.19595e-05
-8.64889e-06
2.25862e-07
-4.40738e-06
1.80721e-06
1.10232e-05
2.17337e-06
8.70728e-07
-1.16298e-06
-1.88112e-06
-1.35305e-05
2.58694e-06
-3.23643e-06
1.51933e-05
-3.13862e-05
2.15e-06
-1.82245e-06
2.29473e-06
3.02006e-05
-2.0202e-05
-2.20592e-06
1.20274e-06
2.12052e-05
-5.15793e-07
-1.853e-06
1.5281e-06
8.40695e-07
-3.25074e-06
6.33713e-06
-6.50692e-06
3.42053e-06
2.87526e-06
-5.75488e-06
-4.06397e-06
5.30051e-06
-2.7719e-06
4.41497e-06
-5.5033e-07
-7.49246e-06
-4.61387e-06
4.37851e-06
2.06536e-06
6.2128e-06
-3.7419e-06
-1.58506e-06
3.05562e-06
1.53772e-06
4.69751e-06
-3.96388e-06
6.5075e-06
-4.0035e-06
-1.56241e-05
5.85446e-06
-6.90176e-06
1.41674e-05
1.02664e-05
1.43066e-05
5.07731e-05
9.31716e-07
-2.58392e-06
1.18145e-06
-1.58661e-06
-5.87862e-06
-4.60823e-06
-6.95266e-06
-5.07006e-06
-1.67134e-06
2.79429e-05
4.09218e-05
-4.82329e-06
-4.61145e-06
-4.04276e-06
-4.07252e-06
-2.94798e-06
-4.08943e-07
3.92e-05
-1.37307e-06
1.08676e-07
-9.48346e-07
2.68983e-07
-9.06655e-07
-2.59486e-06
-1.10372e-06
-6.13886e-06
1.80305e-06
-1.65655e-06
-3.75747e-06
6.80185e-06
-2.59906e-06
5.57199e-07
2.00012e-07
5.03414e-07
-2.05835e-06
3.39679e-06
-4.64754e-06
2.38306e-06
-1.45725e-06
3.72172e-06
-9.70678e-07
-2.07679e-05
6.51931e-06
2.6336e-07
-4.9336e-06
1.98895e-05
1.87737e-06
1.29772e-05
0.000139444
1.21186e-06
1.51448e-06
1.13765e-06
1.81875e-06
1.4412e-05
1.79705e-05
9.87261e-05
2.94312e-06
-8.43879e-07
6.83384e-05
3.14883e-06
2.29591e-06
2.41602e-06
-1.50045e-06
-3.06047e-07
-1.52576e-06
-1.30554e-05
5.00387e-06
1.53143e-06
-3.91751e-06
1.33807e-05
-1.12873e-06
2.80576e-06
-2.30197e-07
1.96829e-07
-1.93166e-06
2.88e-07
-1.99093e-05
1.56676e-06
-3.68303e-06
-9.2576e-07
1.94189e-05
3.53246e-06
8.79704e-07
7.50152e-07
0.000122905
4.23443e-06
1.98565e-06
4.48449e-06
2.54356e-07
6.62852e-07
9.94716e-07
1.02572e-06
3.91496e-06
7.61882e-07
0.000112189
2.54111e-06
4.59948e-06
3.00236e-06
1.05334e-06
9.23666e-07
9.71151e-07
-2.30043e-05
2.8633e-06
-1.77528e-07
2.33896e-05
-1.22977e-05
2.96826e-06
-2.9601e-06
6.48478e-07
1.1641e-05
2.7857e-06
-2.20473e-07
3.62356e-07
-6.80065e-07
-2.24752e-06
-1.67824e-05
9.7043e-07
-1.27925e-06
1.78414e-05
-2.97482e-05
3.38071e-07
-2.66142e-07
6.2887e-07
2.98093e-05
-2.18558e-05
-2.65248e-07
1.69171e-07
2.19519e-05
-8.5359e-07
-4.97561e-07
4.85704e-07
8.65447e-07
-3.62248e-06
5.01459e-06
-5.05514e-06
3.66303e-06
2.65357e-06
-5.29518e-06
-4.5726e-06
5.84333e-06
-3.72352e-06
5.09439e-06
-2.91092e-07
-5.90738e-06
-5.25399e-06
4.10491e-06
1.06997e-06
6.2776e-06
-6.06849e-06
-7.23085e-08
-4.70088e-07
1.89776e-07
8.41951e-06
-1.9984e-06
4.84274e-06
-2.86986e-06
-1.13887e-05
5.96709e-06
-4.90212e-06
8.35081e-06
1.5247e-05
5.80473e-06
5.22657e-05
2.31754e-06
4.95709e-07
2.17944e-06
7.40813e-07
-7.79338e-06
-6.59996e-06
-7.52058e-06
-6.36393e-06
-5.28485e-07
2.27894e-05
4.55018e-05
-3.12923e-06
-3.09404e-06
-2.83325e-06
-2.53751e-06
-2.02587e-06
-5.82292e-06
4.81586e-05
1.85214e-07
1.19699e-06
6.32969e-07
1.14721e-06
-1.08668e-06
-2.41792e-06
-1.29611e-06
-9.18779e-06
3.77489e-06
-1.30692e-06
-3.89654e-06
8.59049e-06
-4.06925e-06
-8.8449e-07
1.5317e-06
1.35221e-06
2.06983e-06
-3.24513e-06
1.78772e-06
-1.40273e-06
2.86014e-06
-1.06244e-06
-1.80781e-05
4.68993e-06
2.32344e-06
-3.22947e-06
1.53566e-05
2.28797e-06
6.57167e-06
0.000138112
-8.41697e-07
2.48642e-07
-1.00448e-06
-1.25129e-07
1.04444e-05
1.19759e-05
0.000101383
1.27319e-06
-1.82816e-06
7.66372e-05
1.62055e-06
9.9975e-07
3.62889e-07
-1.83954e-06
-1.47149e-06
-2.79448e-06
-1.36811e-05
4.34869e-06
1.0116e-06
-3.55856e-06
1.31526e-05
5.56682e-07
-1.65911e-06
-1.83754e-06
1.50102e-06
1.65824e-06
-2.19284e-07
-1.73151e-05
2.42449e-07
-3.02224e-07
2.00364e-06
1.41677e-05
1.20353e-06
4.85421e-06
6.22319e-07
0.000121575
2.36108e-06
-1.69457e-06
1.73715e-06
-2.06765e-06
3.59222e-07
9.74534e-07
7.5494e-07
3.79528e-06
2.5919e-08
0.000113169
3.13304e-06
4.63193e-06
3.37084e-06
3.90032e-07
6.22505e-08
4.40001e-07
-2.51038e-05
2.77375e-06
-8.56602e-07
2.51538e-05
-8.21747e-06
1.59936e-06
-1.96097e-06
8.57908e-06
-1.92861e-05
-2.23844e-06
1.91084e-06
2.02361e-05
-3.05573e-05
-1.34592e-06
8.70008e-07
-2.55191e-07
3.13144e-05
-2.20983e-05
8.20182e-07
-9.95498e-07
2.22736e-05
-1.04701e-06
3.8693e-07
-7.10518e-07
1.3706e-06
-3.61849e-06
9.28121e-07
-7.84427e-07
3.4748e-06
-4.35346e-07
-2.9893e-06
-6.31997e-06
3.84771e-06
-1.63096e-06
7.52786e-06
2.28798e-07
-6.88299e-06
-3.51192e-06
1.86581e-06
6.79639e-07
7.62066e-06
-1.04992e-05
1.67069e-06
-2.44155e-06
-1.50409e-06
1.20709e-05
7.03205e-07
1.88369e-06
-1.91241e-06
-6.22275e-06
3.75902e-06
-2.76789e-06
5.26034e-06
1.8654e-05
2.16056e-06
5.28302e-05
1.52543e-06
6.79284e-07
4.3399e-07
5.48078e-07
-6.7533e-06
-6.40036e-06
-5.74074e-06
-5.6714e-06
2.97319e-06
1.24688e-05
5.45421e-05
-2.01213e-06
-1.41906e-06
-1.67471e-06
-7.22325e-07
-2.41249e-06
-9.91746e-06
5.95345e-05
1.64798e-06
2.32053e-06
2.4694e-06
2.69084e-06
-1.83608e-06
-1.92937e-06
-1.43602e-06
-8.99938e-06
3.04888e-06
-4.8156e-06
8.35361e-06
-2.15235e-06
1.11253e-06
-2.32589e-07
1.27241e-06
-1.89355e-06
-1.2287e-05
2.52846e-06
3.1625e-06
-1.20083e-06
9.69039e-06
4.84161e-06
7.25929e-07
0.000142588
-2.40578e-06
-1.99159e-06
-1.70362e-06
-1.78194e-06
8.7854e-06
1.52121e-06
0.000108387
9.61492e-08
-2.95873e-06
8.67846e-05
-5.66951e-07
5.51742e-07
-9.08917e-08
-3.13989e-06
-2.32517e-06
-2.84574e-06
-1.63132e-05
3.41024e-06
4.72068e-07
-2.1676e-06
1.46946e-05
-1.12377e-05
-4.11368e-08
1.69069e-06
6.64516e-07
8.33445e-06
5.89136e-07
9.41659e-06
6.30673e-07
0.000118461
-1.15761e-06
-2.97787e-06
-1.37641e-06
-2.06779e-06
2.31782e-07
7.09848e-07
4.30803e-07
3.63308e-06
-8.60651e-07
0.000111203
3.26092e-06
4.46244e-06
3.47307e-06
-1.13866e-07
-8.9756e-07
-5.32075e-08
-2.65999e-05
2.29141e-06
-1.56325e-06
2.65461e-05
-7.04645e-06
1.63267e-06
2.97853e-07
5.11593e-06
-2.09989e-05
-3.38723e-06
4.13683e-06
2.088e-05
-3.27496e-05
-2.71121e-06
1.77592e-06
-1.02121e-06
3.38454e-05
-2.25415e-05
1.51761e-06
-1.55698e-06
2.25808e-05
-1.62955e-06
1.07493e-06
-1.2358e-06
1.79042e-06
-3.01906e-06
-2.10016e-06
2.85383e-06
2.26539e-06
-1.33198e-06
-2.98514e-07
-7.67454e-06
1.41462e-06
5.78168e-07
7.31225e-06
5.14883e-07
-8.31523e-06
-1.5673e-06
-6.00281e-08
9.34501e-08
9.33423e-06
-1.31669e-05
2.2529e-06
-2.46725e-06
-2.59474e-06
1.41245e-05
1.85151e-06
-1.65672e-06
4.47892e-08
-4.9116e-06
2.03611e-06
-2.33525e-07
4.72095e-06
1.8866e-05
1.29241e-06
5.23611e-05
-7.46567e-08
1.73663e-07
-2.70438e-07
3.14769e-07
-4.9773e-06
-5.42747e-06
-4.50074e-06
-4.92716e-06
4.51392e-06
3.17823e-06
6.70182e-05
-1.01761e-06
-1.13244e-07
-5.01525e-07
3.30121e-07
-1.27314e-06
-1.26734e-05
6.67574e-05
3.13955e-06
3.20584e-06
3.74436e-06
3.06225e-06
-6.19849e-07
-9.58523e-07
-3.36174e-07
-8.07683e-06
3.09288e-06
-4.45509e-06
8.1659e-06
-5.31665e-07
2.96772e-07
1.51506e-07
8.33871e-08
-1.79319e-06
-8.16303e-06
1.40602e-06
2.52348e-06
-1.43277e-06
7.45949e-06
6.63557e-06
-3.78581e-07
0.000146967
-2.51474e-06
-3.02633e-06
-1.71268e-06
-2.09024e-06
9.21362e-06
-5.98459e-06
0.000114972
8.29179e-07
-3.25671e-06
9.07315e-05
5.68014e-07
1.12358e-06
1.07302e-06
-2.73728e-06
-2.36045e-06
-2.64599e-06
-1.18851e-05
3.14697e-06
1.52078e-06
-1.79133e-06
9.83789e-06
-5.6723e-06
2.0519e-07
1.45237e-06
-1.06519e-06
3.13577e-06
1.94417e-06
1.25226e-05
7.76589e-07
0.000110892
-2.91073e-06
-1.54568e-06
-2.23893e-06
-6.20421e-07
3.1504e-07
6.44322e-07
2.47583e-07
3.38489e-06
-1.37181e-06
0.000106887
3.19311e-06
4.26056e-06
3.32283e-06
-2.97342e-07
-1.28978e-06
-3.48093e-07
-2.81456e-05
2.37926e-06
-2.0544e-06
2.79489e-05
-5.137e-06
-5.03403e-08
-4.39389e-07
5.62673e-06
-2.05682e-05
-2.76773e-06
4.09252e-06
2.002e-05
-3.51803e-05
-2.97694e-06
2.52002e-06
-1.72843e-06
3.59939e-05
-2.25246e-05
1.93999e-06
-1.84645e-06
2.24311e-05
-1.9269e-06
1.28501e-06
-1.53125e-06
2.17314e-06
-1.32476e-06
-2.86478e-06
3.69492e-06
4.94621e-07
-1.11921e-06
6.48014e-07
-6.62664e-06
3.07123e-07
8.79814e-07
5.91089e-06
1.2488e-06
-1.052e-05
-6.9338e-08
-1.44847e-06
-9.77513e-07
1.17665e-05
-1.4879e-05
1.99979e-06
-1.68024e-06
-2.90415e-06
1.52917e-05
2.17192e-06
-2.14664e-06
1.70582e-07
-4.52682e-06
2.08837e-06
1.97855e-07
4.21665e-06
1.27433e-05
1.61525e-06
5.52179e-05
-4.09275e-07
-4.77472e-08
-5.91755e-07
-7.46699e-08
-3.71214e-06
-4.62519e-06
-3.49514e-06
-4.2594e-06
9.94534e-07
-2.58965e-06
7.88576e-05
3.98104e-08
6.8013e-07
4.99556e-07
1.27944e-06
-8.64521e-07
-1.44347e-05
7.04509e-05
3.7406e-06
2.89642e-06
4.22091e-06
2.90882e-06
-3.71208e-07
-5.85588e-07
-2.0963e-07
-8.60975e-06
1.7998e-06
-3.59606e-06
9.54149e-06
1.40814e-07
-3.17182e-07
4.14157e-07
-2.37789e-07
-1.57931e-06
-7.31369e-06
1.20084e-06
2.19973e-06
-1.74189e-06
7.23433e-06
5.64745e-06
-2.92648e-07
0.000150581
-2.44947e-06
-2.35939e-06
-1.55028e-06
-9.93979e-07
7.32024e-06
-7.39192e-06
0.000118101
1.01113e-06
-3.27889e-06
9.07634e-05
9.01954e-07
1.10373e-06
8.54115e-07
-2.87744e-06
-2.01425e-06
-2.84677e-06
-9.0804e-06
2.91225e-06
1.44708e-06
-3.23736e-06
8.96956e-06
-1.08617e-06
8.14189e-08
5.86946e-07
-1.36953e-06
-3.88444e-07
2.17578e-06
1.53088e-05
2.53566e-07
0.000102042
-3.27078e-06
-7.4374e-07
-1.86411e-06
-4.98714e-07
7.25592e-08
-4.93651e-07
-2.06176e-07
3.16514e-06
-1.26918e-06
0.000104009
3.16764e-06
3.92251e-06
3.27911e-06
-2.416e-07
-1.051e-06
-1.78223e-07
-2.92285e-05
2.37535e-06
-2.07328e-06
2.88127e-05
-5.92907e-06
2.00588e-06
-1.64716e-06
5.57035e-06
-1.94096e-05
-1.31332e-06
1.97753e-06
1.8999e-05
-3.63531e-05
-2.07108e-06
2.79889e-06
-1.77009e-06
3.61262e-05
-2.24616e-05
1.99038e-06
-2.14544e-06
2.26166e-05
-2.54716e-06
1.11228e-06
-1.559e-06
2.99389e-06
-2.38892e-09
-2.56932e-06
2.61873e-06
-4.7022e-08
-1.15616e-06
1.08227e-06
-5.24767e-06
-1.07328e-06
1.41981e-06
4.97504e-06
1.58587e-06
-1.26341e-05
1.86918e-06
-2.60734e-06
-1.39212e-06
1.31785e-05
-1.52695e-05
1.75303e-06
-6.97578e-07
-2.86184e-06
1.45026e-05
2.57334e-06
-5.21875e-07
-3.96456e-07
-3.79988e-06
2.39581e-06
-1.08044e-06
3.40285e-06
2.76275e-06
1.82104e-06
6.22652e-05
-7.0108e-07
-6.61792e-07
-8.53502e-07
-8.61003e-07
-1.97346e-06
-2.81789e-06
-1.53464e-06
-2.22768e-06
-3.50475e-06
-5.16421e-06
8.54373e-05
6.68477e-07
1.27578e-06
1.10166e-06
1.80617e-06
-1.20017e-07
-1.54555e-05
6.9115e-05
3.6644e-06
2.76755e-06
3.96072e-06
2.66813e-06
-1.19184e-07
3.5776e-07
1.07334e-07
-1.05929e-05
1.63028e-09
-3.79855e-07
1.08511e-05
2.80553e-07
-5.29342e-07
5.59827e-07
-3.11038e-07
-1.32169e-06
-7.23224e-06
1.73934e-06
1.84246e-06
-2.20629e-06
7.17841e-06
3.22609e-06
6.50852e-07
0.000151972
-1.77973e-06
-1.1232e-06
-8.6366e-07
3.20043e-07
3.82707e-06
-5.19364e-06
0.00011753
6.39781e-07
-2.79655e-06
8.68285e-05
2.85958e-07
6.22977e-07
1.85671e-07
-2.98223e-06
-1.65112e-06
-1.998e-06
-9.74047e-06
1.08682e-06
2.74547e-07
-1.59761e-06
1.06165e-05
1.22128e-06
-3.88892e-08
-1.03778e-06
-8.76132e-07
-1.40524e-06
2.13676e-06
1.48436e-05
-7.37923e-07
9.40036e-05
-1.315e-06
-7.20954e-07
-7.32605e-07
-8.13344e-07
-4.84509e-07
-7.38491e-07
-6.11645e-07
2.61327e-06
-6.00096e-07
0.000103192
2.78911e-06
3.14033e-06
2.73902e-06
1.66664e-07
-5.71316e-07
1.89678e-07
-3.04593e-05
9.93405e-07
-1.46876e-06
3.07514e-05
-4.92478e-06
1.56333e-06
-1.11787e-06
4.47932e-06
-1.8277e-05
-1.79997e-07
6.66671e-07
1.70524e-05
-3.55425e-05
-1.43089e-06
2.26506e-06
-7.60179e-07
3.48684e-05
-2.28997e-05
1.88365e-06
-2.20401e-06
2.322e-05
-3.39327e-06
4.92988e-07
-7.40985e-07
3.64127e-06
-1.13172e-07
-1.94866e-06
1.60702e-06
4.54808e-07
-1.40334e-06
7.36313e-07
-4.95257e-06
-1.35138e-06
1.59859e-06
5.37239e-06
1.37899e-06
-1.35824e-05
2.62236e-06
-3.36747e-06
-1.05416e-06
1.40027e-05
-1.31785e-05
7.58842e-07
-6.39336e-07
-1.81714e-06
1.16895e-05
3.18659e-06
5.4452e-07
-1.7028e-07
-3.08411e-06
1.42267e-06
-1.99463e-06
3.28183e-06
-3.35663e-06
2.15385e-06
6.85366e-05
-5.55204e-07
-1.23412e-06
-3.52176e-07
-1.14745e-06
-1.46202e-07
-1.30792e-06
3.10192e-07
-6.35764e-07
-6.70363e-06
-3.95073e-06
8.84694e-05
7.02149e-07
1.21814e-06
1.05828e-06
1.28703e-06
5.15696e-07
-1.30727e-05
6.78513e-05
2.68071e-06
1.58331e-06
1.67232e-06
3.77995e-07
1.45713e-07
4.34062e-07
2.2296e-07
-1.05211e-05
-1.70355e-06
2.79613e-06
9.94419e-06
3.18824e-07
-5.18641e-07
4.81362e-07
-2.81546e-07
-5.5436e-07
-6.95116e-06
2.41658e-06
8.47503e-07
-2.38985e-06
6.63129e-06
-9.05945e-07
2.62745e-06
0.000148452
-6.62824e-07
8.39778e-07
1.33496e-06
2.44007e-06
7.42488e-07
-2.7964e-06
0.000114727
2.47916e-08
-2.03572e-06
8.09423e-05
-2.36425e-07
-1.65968e-08
-2.8385e-07
-1.65902e-06
-3.1669e-07
-1.92054e-06
-1.16547e-05
-1.56907e-06
-5.86249e-07
1.54659e-06
1.22882e-05
1.56535e-06
-5.94157e-07
-4.61853e-07
-5.05833e-07
-1.65552e-06
1.65201e-06
8.87113e-06
-1.95459e-07
9.07155e-05
-7.56114e-07
-4.29499e-07
-6.77865e-07
-4.90685e-07
-3.80395e-07
8.71933e-08
-1.12726e-07
-2.86687e-08
-8.47975e-07
0.000107884
1.66808e-06
-3.17053e-07
1.55423e-06
2.64473e-07
-1.05352e-06
1.4403e-07
-3.32345e-05
-1.01013e-06
-8.41019e-07
3.30213e-05
-4.45841e-06
-5.17906e-07
2.30072e-07
4.74625e-06
-1.53718e-05
2.87324e-07
1.00395e-06
1.38851e-05
-3.42263e-05
-1.51509e-06
1.77527e-06
-5.63966e-07
3.36821e-05
-2.36059e-05
1.79705e-06
-2.10137e-06
2.39102e-05
-3.69422e-06
2.60483e-07
-1.71623e-07
3.60536e-06
-8.4132e-07
-1.71404e-06
1.22071e-06
1.33465e-06
-8.93867e-07
-1.83829e-08
-5.92878e-06
-2.26839e-07
5.41056e-07
6.52682e-06
1.0835e-06
-1.46131e-05
1.67528e-06
-2.80328e-06
-7.99132e-07
1.54567e-05
-1.0146e-05
-7.90785e-07
-1.27293e-07
6.42941e-07
8.46022e-06
1.96094e-06
1.00546e-06
3.63167e-07
-3.79724e-06
1.86641e-07
-2.38933e-06
4.63131e-06
-4.74038e-06
2.54539e-06
7.10347e-05
6.56261e-08
-1.43297e-06
3.31862e-08
-1.02882e-06
9.16843e-07
-3.44594e-07
1.02552e-06
4.62095e-07
-7.91044e-06
-1.1302e-06
9.01668e-05
3.88902e-07
3.84058e-07
8.74175e-07
9.55744e-07
3.70129e-07
-1.07792e-05
6.94402e-05
-5.39077e-08
-2.06745e-07
2.5088e-07
1.48313e-07
2.28557e-07
2.9656e-07
2.46094e-07
-9.2862e-06
-2.1186e-06
3.18319e-06
8.59174e-06
1.4372e-07
-4.99257e-07
2.87637e-07
6.78994e-08
6.49678e-07
-6.40863e-06
3.13035e-06
-1.16275e-06
-2.17255e-06
5.96391e-06
-4.49719e-06
3.81035e-06
0.000142969
1.31905e-06
2.07992e-06
2.40761e-06
2.90856e-06
-1.53074e-06
-1.25149e-06
0.000111882
-2.24034e-07
-1.05015e-06
7.81845e-05
-4.83141e-07
-1.84858e-07
-5.15222e-07
-2.89425e-06
-5.40857e-07
-3.65961e-06
-1.30644e-05
-2.08529e-06
-9.41753e-07
2.18149e-06
1.36859e-05
1.60102e-06
-8.94345e-07
-8.54719e-08
-1.52598e-07
-9.69025e-07
5.0042e-07
-3.27099e-06
5.74179e-07
9.48781e-05
1.24333e-07
4.1236e-07
3.17257e-07
3.42711e-07
1.08157e-07
8.10164e-07
2.29616e-07
-3.43522e-06
-1.24913e-06
0.000111477
7.92113e-08
-2.5421e-06
2.36834e-07
-4.79539e-08
-9.20192e-07
-2.36846e-07
-3.42596e-05
-2.04058e-06
-2.57267e-07
3.20721e-05
-5.15985e-06
-1.0767e-06
7.35057e-07
5.5015e-06
-1.26866e-05
1.96192e-07
8.64539e-07
1.22e-05
-3.30961e-05
-1.47413e-06
2.03764e-06
-7.31027e-07
3.20145e-05
-2.41467e-05
2.10158e-06
-2.12465e-06
2.41698e-05
-3.40639e-06
4.29093e-07
-2.26224e-07
3.20352e-06
-1.83412e-06
-1.81547e-06
1.21176e-06
2.43783e-06
8.40463e-08
-1.02281e-07
-6.8987e-06
1.85014e-07
-4.94018e-07
7.22594e-06
9.73872e-07
-1.6336e-05
6.14412e-07
-1.21592e-06
-9.22754e-07
1.68864e-05
-7.32942e-06
-1.18943e-06
4.99579e-07
3.58529e-07
6.95889e-06
7.01841e-07
1.4967e-06
1.06494e-06
-5.35326e-06
-6.03612e-07
-2.61322e-06
6.00845e-06
-2.84632e-06
1.8586e-06
7.07288e-05
3.36625e-07
-1.12061e-06
5.58343e-07
-5.90645e-07
6.71524e-07
2.77466e-07
4.60075e-07
7.00833e-07
-6.95897e-06
1.5202e-07
9.10993e-05
3.0078e-07
4.8032e-07
9.37517e-07
1.30948e-06
3.23298e-07
-1.07672e-05
6.85194e-05
3.98506e-07
5.83971e-07
1.88357e-06
8.40821e-07
2.13762e-07
2.89747e-07
1.95406e-07
-7.95101e-06
-9.9658e-07
1.4746e-06
7.79629e-06
-3.18543e-07
-8.18674e-07
5.60723e-07
5.76493e-07
6.07676e-07
-5.49198e-06
3.00372e-06
-1.44112e-06
-1.64256e-06
4.96426e-06
-4.86969e-06
4.08985e-06
0.00013813
1.31934e-06
1.52711e-06
2.44852e-06
2.18238e-06
-1.86719e-06
-1.66357e-06
0.000110695
-1.00028e-07
-2.95249e-06
7.99263e-05
-4.2494e-07
-2.17785e-08
-4.92086e-07
-4.12985e-06
-2.67027e-06
-3.58482e-06
-1.42229e-05
-1.00988e-06
-6.44491e-07
1.32812e-06
1.44491e-05
1.26991e-07
-9.1754e-07
-2.37654e-07
3.54416e-07
1.09556e-06
-4.21768e-07
-8.42701e-06
1.38961e-06
0.000100024
5.68816e-07
7.51613e-07
8.09823e-07
6.3164e-07
4.09399e-07
1.91767e-06
8.92244e-07
-4.71981e-06