/*--------------------------------*- C++ -*----------------------------------*\
| =========                 |                                                 |
| \\      /  F ield         | OpenFOAM: The Open Source CFD Toolbox           |
|  \\    /   O peration     | Version:  5.x                                   |
|   \\  /    A nd           | Web:      www.OpenFOAM.org                      |
|    \\/     M anipulation  |                                                 |
\*---------------------------------------------------------------------------*/
FoamFile
{
    version     2.0;
    format      ascii;
    class       volVectorField;
    location    "8";
    object      U;
}
// * * * * * * * * * * * * * * * * * * * * * * * * * * * * * * * * * * * * * //

dimensions      [0 1 -1 0 0 0 0];

internalField   nonuniform List<vector> 
10571
(
(-0.390467 0.0235939 0.929563)
(0.012249 -0.0116694 0.778448)
(-0.47356 -0.23954 1.58175)
(-0.940634 0.0868727 1.4622)
(-0.0895388 -0.0226952 0.912118)
(-0.0891931 0.199948 1.00108)
(-1.4054 0.480231 2.06474)
(-0.891577 0.181878 1.16313)
(-0.270034 0.0783516 1.26374)
(0.0193229 0.0843942 1.26783)
(0.00582717 0.175382 1.45658)
(-0.249966 -0.310734 1.19569)
(-1.32609 -0.608504 1.99791)
(-0.553062 0.252847 1.25829)
(-0.132462 0.313242 1.20772)
(0.115512 0.386744 1.47356)
(-0.106504 -0.133875 1.02693)
(-0.841016 -0.872691 2.17501)
(-0.46762 -0.106339 1.93728)
(-0.0948762 0.256167 1.5477)
(-0.0959817 0.207202 1.29298)
(-0.165205 -0.135045 1.11939)
(-0.0455118 0.00935975 1.13124)
(0.00102322 0.00283948 1.07725)
(0.194625 0.0557395 1.27083)
(-0.0593504 0.0944206 0.642826)
(0.260963 0.498363 2.02828)
(0.140161 0.0891071 0.937157)
(-0.0307101 0.0875873 0.868667)
(0.0588148 -0.160743 1.12941)
(0.461869 0.283851 1.42941)
(0.0924132 0.224 0.624583)
(-0.0919402 0.213477 0.65839)
(-0.162707 -0.0052612 1.13598)
(0.096677 0.0703678 1.47461)
(0.191565 0.200054 1.75502)
(0.479236 0.482516 0.979176)
(0.45086 0.334911 1.19322)
(-0.287258 0.522736 1.4102)
(-0.401314 0.420061 0.995011)
(0.067523 0.442965 1.07748)
(0.188524 0.164236 0.884154)
(0.0617226 -0.0794544 1.20746)
(-0.0649053 0.0178833 1.14782)
(-0.139984 0.40693 1.01555)
(-0.0328818 -0.168286 1.04899)
(0.077037 -0.157817 1.08365)
(0.078201 -0.0819714 1.1168)
(0.325048 0.210471 0.512289)
(-0.0955648 0.0901858 0.92497)
(0.464049 0.114924 1.31395)
(0.546731 0.602686 1.18563)
(-0.361943 0.110197 0.972801)
(-0.208329 0.109369 1.38265)
(0.345353 0.396685 0.872049)
(0.155807 0.262811 0.838584)
(-0.108535 0.200417 0.261482)
(-0.225266 0.282712 0.679965)
(0.00732219 0.437685 1.11582)
(-0.239287 0.600536 1.00886)
(0.486098 0.5821 1.95425)
(0.28603 1.02574 2.15125)
(-0.363045 1.03574 1.71314)
(-0.254126 0.438364 0.50454)
(-0.122016 0.584252 1.68077)
(0.109075 0.000474477 1.93588)
(-0.175561 0.0613806 1.73342)
(-0.000598283 0.765071 1.1636)
(-0.195932 0.430339 0.894949)
(-0.0758266 -0.0596763 0.860357)
(0.0245962 0.0370709 0.666918)
(0.00885819 0.122843 1.15924)
(0.0121896 0.0296294 0.00115738)
(-0.0614751 0.0686836 0.858169)
(-0.067841 -0.00190269 0.558254)
(0.128412 0.210345 2.03395)
(0.04596 0.0931569 0.12686)
(-0.15216 0.152884 1.24246)
(-0.0255427 0.358724 1.26536)
(0.000770936 0.511566 0.461334)
(-0.0222824 0.250687 0.0559784)
(-0.0139116 0.223304 0.155087)
(-0.0799609 0.107748 1.25008)
(0.18523 -0.029555 1.06926)
(0.237725 0.501764 2.17405)
(-0.0460425 0.746087 1.05495)
(-0.0469569 0.636182 0.501569)
(0.0191387 0.084762 0.158679)
(-0.0696429 -0.18343 0.856107)
(-0.173945 -0.275036 1.20173)
(-0.210251 0.429464 1.21911)
(-0.209668 0.712747 1.32624)
(0.128878 -0.187904 0.261634)
(-0.194915 0.161274 -0.0897395)
(-0.362094 0.149665 0.493407)
(-0.612997 0.452049 0.990977)
(0.159347 0.0370013 0.156933)
(0.0039704 -0.00720752 0.216712)
(0.16058 0.0951066 0.369104)
(-0.133483 -0.13408 0.945636)
(0.10307 0.0403756 -0.0478924)
(0.108148 0.0439928 0.467478)
(0.266056 0.281937 0.715067)
(0.0559318 0.468076 0.862947)
(-0.162252 0.213714 -0.0896779)
(0.0524401 0.193407 -0.10107)
(0.0142828 0.0637695 0.902918)
(0.0928616 -0.0655502 0.615621)
(0.135812 0.513448 1.56844)
(0.117965 0.499682 1.24015)
(0.177916 0.0486898 0.593027)
(-0.0186703 -0.139567 0.48428)
(-0.180436 -0.381433 0.784593)
(-0.31731 -0.0448239 1.29722)
(-0.0827048 0.402843 1.23656)
(0.00690124 0.587927 1.34039)
(0.173572 -0.14064 0.118309)
(-0.228045 0.163907 0.266601)
(-0.434787 0.410473 0.999363)
(-0.440781 0.417721 1.42852)
(0.314411 0.0434732 -0.129847)
(0.0187728 0.0500651 0.292929)
(0.160197 0.207443 0.237726)
(0.250944 0.301324 0.660239)
(0.182688 0.132583 0.0354254)
(0.153867 -0.0477862 0.606224)
(0.115347 0.367292 0.518536)
(0.100564 0.462264 0.425846)
(0.0799996 0.182863 0.0630458)
(-0.168882 -0.111488 0.0688424)
(-0.00995973 0.00329516 -0.00432567)
(-0.049339 -0.402637 0.852467)
(0.0585236 -0.384612 0.849407)
(-0.0487591 0.499429 1.57681)
(0.212321 0.499 1.18505)
(0.351801 -0.0558487 0.583613)
(0.0191668 -0.161104 0.521478)
(0.000982593 -0.00156205 0.000596754)
(-0.331154 -0.244044 0.746883)
(-0.303574 0.146051 1.37556)
(0.0270963 0.216726 1.11789)
(0.180659 0.295904 1.13225)
(0.32092 -0.171829 0.386767)
(-0.263239 0.109471 0.516417)
(-0.320953 0.337873 1.25521)
(-0.315375 0.21787 1.73969)
(0.322138 0.0365001 -0.0407294)
(0.291352 -0.318567 0.232872)
(0.21926 0.0491368 0.132886)
(0.295318 -0.00653036 0.506096)
(0.314222 0.107706 0.090838)
(0.254942 -0.431601 0.698607)
(0.166151 0.376693 0.514872)
(0.0723882 0.498225 0.422538)
(-0.0363894 0.0837781 0.275306)
(-0.242087 -0.170902 0.225634)
(-0.107851 -0.14998 0.0376071)
(-0.0424757 -0.524112 0.808325)
(0.0682349 -0.477908 0.950491)
(-0.0868172 0.439489 1.53874)
(0.198072 0.566412 1.05466)
(0.371557 -0.0186988 0.630064)
(0.179955 -0.23498 0.593002)
(-0.157062 -0.302927 0.0431474)
(-0.255152 -0.204273 0.741234)
(-0.261273 0.168085 1.34744)
(0.185238 0.0996195 1.22996)
(0.255856 0.0642988 1.00099)
(0.304116 -0.170219 0.670294)
(-0.238218 -0.0744862 -0.147305)
(-0.177125 0.0465754 0.717826)
(-0.0963572 0.11245 1.18069)
(-0.158929 0.113662 1.90209)
(0.237089 0.0286204 0.104821)
(0.337244 -0.35949 0.24607)
(0.442279 -0.178461 0.194864)
(0.32468 0.0524691 0.282696)
(0.236418 0.132452 0.148935)
(0.384946 -0.485267 0.671702)
(0.384242 0.170968 0.51642)
(-0.00378191 0.455913 0.393325)
(-0.0675417 0.0343245 0.395363)
(-0.254797 -0.225233 0.342923)
(-0.0611408 -0.0759254 0.1009)
(-0.00572929 -0.322676 0.585112)
(0.16511 -0.449487 0.910251)
(-0.0637214 0.346434 1.44287)
(0.145386 0.54708 1.01107)
(0.324925 -0.0442291 0.691198)
(0.140863 -0.326058 0.621927)
(-0.0630337 -0.190288 0.0224487)
(-0.159774 -0.190228 0.784528)
(-0.249193 0.12376 1.31032)
(0.280005 0.0789409 1.19409)
(0.301908 -0.0339216 1.03813)
(0.138718 -0.255783 0.723924)
(-0.0411711 0.0265926 -0.184525)
(-0.0559419 0.023257 0.866968)
(0.0375372 0.0486579 1.2153)
(-0.0195375 0.0239681 1.99627)
(0.0732448 0.012684 0.114704)
(0.259463 -0.287102 0.266287)
(0.440471 -0.231784 0.207331)
(0.374139 0.0259831 0.264929)
(0.0438509 0.0484731 0.279851)
(0.294233 -0.378075 0.419314)
(0.53535 -0.0363873 0.534074)
(0.0164059 0.354596 0.432475)
(-0.0300689 -0.0402374 0.491563)
(-0.208264 -0.266306 0.373058)
(0.101922 0.074886 0.138391)
(-0.0196654 -0.22094 0.438971)
(0.237975 -0.349223 0.737338)
(-0.024988 0.245813 1.40468)
(0.12394 0.462836 1.0156)
(0.246664 -0.167453 0.815646)
(-0.00457523 -0.311444 0.655939)
(0.0709196 0.081441 -0.0422254)
(0.167 0.00225119 0.612851)
(-0.144991 0.00229365 1.28346)
(0.31424 -0.0238145 1.18554)
(0.295132 -0.0704104 1.11363)
(0.0130772 -0.242643 0.656451)
(0.145889 0.0551634 1.00098)
(0.118846 0.0396625 1.19945)
(0.106274 -0.0304161 2.03397)
(-0.0342507 -0.0181321 0.173908)
(0.00378365 -0.0216221 0.263447)
(0.288652 -0.0454915 0.312014)
(0.252501 0.023631 0.322093)
(-0.134035 -0.0855684 0.445971)
(0.132158 -0.198742 0.240253)
(0.528357 -0.0499108 0.523233)
(0.128553 0.217173 0.50335)
(0.00177355 -0.15293 0.566617)
(-0.162827 -0.301299 0.393025)
(0.0111598 -0.153612 0.244785)
(0.224253 -0.150552 0.473284)
(0.0259462 0.129155 1.41389)
(0.146977 0.233017 1.0703)
(0.193944 -0.225219 0.892197)
(-0.0341928 -0.225103 0.567265)
(0.121208 -0.0299092 0.377577)
(0.0207734 -0.0954638 1.26071)
(0.314584 -0.153748 1.18568)
(0.298231 -0.13222 1.16901)
(-0.0537298 -0.00469184 0.454247)
(0.269975 0.0950956 1.05954)
(0.191331 0.0135068 1.30441)
(0.16556 -0.059664 2.04735)
(-0.131285 -0.0273454 0.247602)
(-0.152417 0.169878 0.20023)
(0.0977819 0.0916605 0.333917)
(0.116135 -0.0063202 0.382894)
(-0.156404 -0.148347 0.534016)
(0.0663217 0.0571618 0.212395)
(0.505484 -0.00952448 0.519098)
(0.156782 0.122621 0.595776)
(0.0199815 -0.250765 0.671435)
(-0.111982 -0.278528 0.400807)
(-0.000930445 -0.0756879 0.0339543)
(0.149175 -0.106536 0.337764)
(0.0553783 0.0578917 1.44759)
(0.167285 -0.00415332 1.14589)
(0.166951 -0.213765 0.94778)
(0.0038789 -0.236662 0.414191)
(-0.0359121 -0.143441 0.172309)
(0.156866 -0.07164 1.22405)
(0.292831 -0.182051 1.1551)
(0.283717 -0.167863 1.22871)
(0.00762405 0.0312177 0.471832)
(0.274699 0.0962683 1.01654)
(0.250515 -0.00982134 1.40738)
(0.183076 -0.0718419 2.05048)
(-0.157807 -0.034998 0.290375)
(-0.197368 0.222719 0.0620128)
(0.0130758 0.118584 0.274944)
(-0.0232517 -0.0885351 0.494944)
(-0.131131 -0.148795 0.595152)
(0.121807 0.0753937 0.191679)
(0.381162 0.0421236 0.518218)
(0.0574862 0.0170601 0.745723)
(-0.0102611 -0.300576 0.739349)
(-0.0728971 -0.217749 0.447523)
(0.00125386 -0.0126719 -0.0306326)
(0.106177 -0.126778 0.31947)
(0.0513546 0.0175322 1.48457)
(0.137204 -0.0964899 1.18646)
(0.113258 -0.224666 0.973198)
(0.0324662 -0.238216 0.34644)
(-0.0936877 -0.150319 0.0110701)
(0.285799 -0.0325527 1.12719)
(0.284469 -0.147272 1.10903)
(0.257879 -0.165415 1.26923)
(0.0941415 -0.180104 0.543463)
(0.16212 0.0278223 0.975601)
(0.239754 -0.0164797 1.42632)
(0.206236 -0.0750351 2.05352)
(-0.138315 -0.0403901 0.394727)
(-0.172011 0.169253 -0.00711642)
(-0.0486068 0.163987 0.222794)
(-0.161798 -0.117813 0.571348)
(-0.136009 -0.142694 0.593603)
(0.200607 -0.0611516 0.15716)
(0.15495 0.0658251 0.584102)
(-0.0636874 -0.0676956 0.840899)
(-0.039342 -0.297204 0.745028)
(0.00888322 0.0193263 0.554301)
(0.00922669 0.0207952 -0.044277)
(0.0884616 -0.161056 0.3144)
(0.00330159 0.000118678 1.53409)
(0.102722 -0.099218 1.19964)
(0.0257925 -0.262296 0.943194)
(0.0439317 -0.093269 0.399451)
(-0.067141 -0.0953318 -0.0451456)
(0.325312 0.0141545 1.01692)
(0.230757 -0.0765608 1.0683)
(0.205943 -0.10241 1.32931)
(0.1072 -0.152455 0.412871)
(0.0718212 -0.0911751 0.901406)
(0.182506 0.011053 1.38025)
(0.222457 -0.0746324 2.09233)
(-0.00540816 -0.0161295 0.509373)
(-0.144773 0.121182 0.0182876)
(-0.0327528 0.183992 0.222318)
(-0.23371 -0.0839316 0.606103)
(-0.163717 -0.0620439 0.484102)
(0.182291 -0.123347 0.134556)
(0.039169 0.0620241 0.666142)
(-0.160099 -0.081672 0.86986)
(-0.0554468 -0.223546 0.71457)
(0.072679 0.193519 0.523279)
(0.0109606 0.028191 -0.0457958)
(0.0218162 -0.189551 0.29511)
(-0.100623 0.0174039 1.53871)
(0.0641048 -0.0462175 1.17854)
(-0.0427497 -0.253545 0.874685)
(0.0274888 0.126444 0.468385)
(0.0131335 -0.0245771 -0.0602238)
(0.24942 0.0594418 0.955001)
(0.0813606 -0.0528585 1.10607)
(0.0113484 -0.0292895 1.45932)
(0.0459498 0.0215095 0.41411)
(0.0572732 -0.0507981 0.732021)
(0.138611 -0.0324517 1.33568)
(0.227206 -0.0757732 2.16469)
(0.0620253 -0.00529093 0.525102)
(-0.142171 0.116906 0.0786847)
(0.0518324 0.104254 0.27333)
(-0.184738 -0.0689227 0.657122)
(-0.0200307 0.0194374 0.356807)
(0.1151 -0.130545 0.183496)
(0.0427266 0.0615164 0.703238)
(-0.212716 -0.0679677 0.898118)
(-0.0439842 -0.177076 0.718109)
(0.0523254 0.200767 0.450978)
(0.00417022 0.0380417 -0.00636699)
(-0.0903363 -0.233662 0.271065)
(-0.166437 0.0330226 1.44732)
(0.00186235 0.0321438 1.13772)
(-0.0583088 -0.227746 0.832058)
(0.0154505 0.174017 0.525533)
(0.0470215 0.0446414 -0.0507016)
(0.0697526 0.0850176 0.972332)
(-0.197353 -0.0828699 1.16244)
(-0.198613 0.0556529 1.44255)
(-0.0332202 0.0884532 0.487839)
(0.0643328 0.022119 0.620321)
(0.188054 -0.060981 1.28839)
(0.246866 -0.0996152 2.20512)
(0.0362789 -0.0136946 0.472167)
(-0.15506 0.127704 0.155263)
(0.0562146 -0.0217512 0.311454)
(-0.0729346 -0.0835051 0.736422)
(0.021231 0.0232409 0.273382)
(0.026376 -0.177148 0.251823)
(0.119467 0.0365058 0.707662)
(-0.215602 -0.046463 0.913165)
(-0.0166926 -0.182548 0.73086)
(0.0409573 0.0960495 0.393963)
(0.00522435 0.0945904 0.064714)
(-0.0881358 -0.22507 0.225996)
(-0.142527 0.0317733 1.41081)
(-0.0217623 0.0518433 1.12215)
(-0.0419629 -0.2192 0.833757)
(0.0131263 0.102154 0.568004)
(0.02993 0.0718721 0.0182836)
(0.00575521 0.102365 1.0409)
(-0.334347 -0.120024 1.20247)
(-0.255336 -0.146152 1.28594)
(-0.00655801 0.0593391 0.537696)
(0.0801206 0.0929671 0.625793)
(0.190671 -0.0177666 1.18853)
(0.242497 -0.0980253 2.20396)
(0.0363737 -0.0217237 0.423656)
(-0.190983 0.145573 0.245286)
(-0.000626614 -0.126331 0.340611)
(-0.0364287 -0.0586209 0.75861)
(0.0320388 -0.0236061 0.317309)
(-0.0590909 -0.174497 0.306025)
(0.156092 -0.0770133 0.704704)
(-0.185116 -0.0129777 0.913377)
(-0.00761382 -0.182782 0.711714)
(0.0427436 0.0690967 0.405936)
(0.0119256 0.176257 0.137463)
(-0.0225639 -0.136989 0.203914)
(-0.00989797 0.0455958 1.37993)
(-0.00433802 0.0502873 1.12201)
(0.014671 -0.175363 0.834568)
(0.00913605 0.0674841 0.568348)
(0.0273778 0.0734472 0.120285)
(0.0419841 0.141031 1.07875)
(-0.337636 -0.120482 1.24733)
(-0.261904 -0.120571 1.02385)
(-0.0111437 0.0747153 0.581704)
(0.107735 0.205685 0.697692)
(0.191119 -0.0294069 1.14204)
(0.202799 -0.0448241 2.24213)
(0.0568029 -0.0198757 0.385232)
(-0.235614 0.160009 0.346537)
(-0.0680335 -0.181165 0.388072)
(0.0364303 -0.00771023 0.722839)
(0.0276158 -0.0615641 0.408435)
(-0.13364 -0.028381 0.358077)
(0.0585435 -0.230841 0.664736)
(-0.0971006 0.0172407 0.936708)
(-0.0122041 -0.220832 0.656092)
(0.0634252 0.0776041 0.44841)
(0.017717 0.251292 0.191465)
(0.0688692 -0.0394825 0.213254)
(0.10448 0.0268891 1.19728)
(0.0743276 0.0213987 1.15434)
(0.0414596 -0.161096 0.805667)
(0.00794583 0.0729034 0.556341)
(0.071708 0.0691155 0.203534)
(0.15828 0.219145 1.07319)
(-0.274962 -0.105432 1.31082)
(-0.150524 -0.0225866 0.881533)
(-0.0626604 0.152687 0.554073)
(0.118662 0.20987 0.769015)
(0.213224 -0.0408776 1.15623)
(0.222027 -0.106212 2.30567)
(0.0265165 -0.0296352 0.386399)
(-0.25319 0.175771 0.456028)
(-0.0955231 -0.192284 0.453253)
(0.0744423 -0.0583891 0.660752)
(0.0239303 -0.0719946 0.491795)
(-0.134235 0.0873102 0.36694)
(-0.0604015 -0.282665 0.613358)
(0.0124516 -0.0526714 0.979378)
(-0.0078435 -0.258122 0.640634)
(0.0912924 0.104835 0.48882)
(0.0206688 0.303857 0.228532)
(0.122015 0.0294571 0.228038)
(0.0307322 -0.0317497 0.966099)
(0.142255 -0.0262774 1.2198)
(0.0336256 -0.201915 0.751782)
(0.0150593 0.108771 0.542305)
(0.101103 0.0698279 0.259762)
(0.20349 0.226581 1.08155)
(-0.136493 -0.152946 1.39282)
(-0.102886 -0.0426391 0.841969)
(-0.109499 0.208532 0.519193)
(0.00985075 -0.0586852 0.702765)
(0.293399 -0.0463984 1.17307)
(0.218862 -0.109062 2.30656)
(-0.0831799 -0.0367716 0.413083)
(-0.280817 0.23809 0.519281)
(-0.10167 -0.122928 0.541404)
(0.0448646 -0.167174 0.640782)
(0.0464504 -0.105215 0.563339)
(-0.145728 0.133701 0.343573)
(-0.133308 -0.24904 0.561466)
(0.0920357 -0.20743 0.942797)
(0.00697813 -0.257247 0.657005)
(0.110507 0.130822 0.54551)
(0.0212558 0.332457 0.264968)
(0.131815 0.0596538 0.246335)
(-0.0896412 -0.0867732 0.791726)
(0.147881 -0.0324412 1.23264)
(-0.000401638 -0.211927 0.659221)
(0.0311783 0.137807 0.544213)
(0.0923624 0.0650702 0.297713)
(0.191799 0.200908 1.09735)
(-0.0588446 -0.251144 1.48665)
(-0.0654209 -0.0286388 0.849357)
(-0.149918 0.247476 0.48097)
(-0.0296612 -0.0831905 0.502256)
(0.323902 -0.0810489 1.14626)
(0.16258 -0.0392852 2.33369)
(-0.236235 -0.0492563 0.401096)
(-0.295923 0.235161 0.553414)
(-0.233913 0.0665706 0.553249)
(0.0267407 -0.171002 0.663008)
(0.112975 -0.0748068 0.674528)
(-0.214972 0.203172 0.380239)
(-0.149807 -0.151486 0.534984)
(0.0976759 -0.286071 0.807989)
(0.0355857 -0.168737 0.680578)
(0.131446 0.198017 0.617281)
(0.0168171 0.328705 0.330748)
(0.124376 0.0608719 0.276742)
(-0.170131 -0.114416 0.674583)
(0.141312 -0.0221111 1.21527)
(-0.0335721 -0.112536 0.586078)
(0.0168327 0.255007 0.534195)
(0.0428031 0.0477624 0.341432)
(0.064498 0.132899 1.0772)
(0.0158803 -0.26575 1.60988)
(-0.0262531 0.033438 0.888386)
(-0.18989 0.292164 0.488852)
(0.0101918 0.00231168 0.437182)
(0.30103 -0.0967476 1.02717)
(0.0605242 0.0512599 2.45071)
(-0.242889 -0.0362357 0.416271)
(-0.242483 0.194519 0.622567)
(-0.242123 0.0954337 0.472802)
(-0.158886 -0.0132971 0.61384)
(0.140009 0.0160579 0.692006)
(-0.226321 0.21747 0.456491)
(-0.14425 -0.0396239 0.564508)
(0.0622886 -0.244102 0.729114)
(0.00644527 0.0739482 0.700235)
(0.135464 0.293965 0.640548)
(0.0153376 0.239136 0.433076)
(0.102286 0.0489694 0.337735)
(-0.194275 -0.118582 0.625245)
(0.0835567 -0.0485951 1.13633)
(-0.0620074 0.0253816 0.584063)
(-0.0443767 0.302451 0.529171)
(-0.0208395 0.0219143 0.399323)
(-0.154406 0.0670854 0.956657)
(0.105653 -0.129921 1.68243)
(-0.017946 0.120202 0.958737)
(-0.205521 0.271049 0.519298)
(0.0292818 0.0304716 0.418409)
(0.28315 0.0357472 0.985356)
(-0.0222557 0.0659054 2.5906)
(-0.171831 -0.017657 0.384225)
(-0.101964 0.113059 0.649959)
(-0.140507 0.0829721 0.435812)
(-0.251663 0.0543605 0.448645)
(-0.0430377 -0.00385012 0.481284)
(-0.173661 0.169408 0.534423)
(-0.0914692 0.0188964 0.621843)
(0.0146252 -0.131062 0.769311)
(-0.0573402 0.153366 0.700147)
(0.0405808 0.229929 0.586218)
(0.000805877 0.0712623 0.522227)
(0.0705323 0.0189501 0.434157)
(-0.192626 -0.117074 0.628174)
(-0.0635618 -0.106237 1.00404)
(-0.0750276 0.116914 0.61597)
(-0.0621772 0.178842 0.516432)
(-0.0650593 -0.00573678 0.465245)
(-0.262565 0.0335976 0.841979)
(0.0798709 0.0958797 1.63239)
(0.0498402 0.1968 1.03287)
(-0.147121 0.154724 0.50529)
(0.0121341 0.0385696 0.424696)
(0.0902911 0.225827 1.14684)
(-0.0164356 0.0229258 2.74101)
(-0.137431 -0.0253885 0.348713)
(-0.0438323 0.0598909 0.588335)
(-0.0821856 0.0579331 0.466518)
(-0.236802 -0.00816297 0.363224)
(-0.170433 -0.0853378 0.338)
(-0.0604169 0.112914 0.591176)
(-0.00520468 0.0299364 0.696543)
(-0.0519276 -0.0433859 0.827867)
(-0.0636646 0.132249 0.676808)
(-0.000611839 0.0420063 0.496183)
(-0.0176553 -0.0234632 0.57105)
(0.0186567 -0.0162848 0.541015)
(-0.189677 -0.0875914 0.664644)
(-0.139859 -0.0366875 0.897171)
(-0.0494604 0.164062 0.607686)
(0.0142706 0.0730459 0.492173)
(-0.093802 -0.0299823 0.528371)
(-0.293854 -0.00869194 0.755171)
(-0.10671 0.210929 1.42999)
(0.105391 0.103524 1.03775)
(-0.0857978 0.0777872 0.484674)
(-0.0310824 0.0345924 0.480765)
(-0.052296 0.29365 1.29086)
(0.0939569 -0.141355 2.80729)
(-0.118946 -0.0378483 0.37765)
(-0.0371179 0.0492459 0.563357)
(-0.0813866 -0.0166219 0.53245)
(-0.211418 -0.119299 0.367949)
(-0.193207 -0.123104 0.288817)
(0.029535 0.0622602 0.640144)
(0.0194392 0.0139282 0.770256)
(-0.105874 -0.0354286 0.810468)
(-0.0332971 0.00345661 0.525408)
(-0.00686233 -0.0918506 0.378571)
(-0.0214953 -0.0835484 0.600084)
(-0.067239 -0.0559738 0.646051)
(-0.208382 -0.0141803 0.712543)
(-0.155334 0.0903206 0.782842)
(-0.0283349 0.167155 0.590513)
(0.0390749 0.0621058 0.48709)
(-0.111932 -0.0443705 0.588087)
(-0.273712 -0.0395043 0.736565)
(-0.203407 0.140006 1.22471)
(0.0152056 -0.0422748 0.977293)
(-0.0243965 0.0447193 0.521205)
(-0.0479703 0.0199145 0.554324)
(-0.0149906 0.246035 1.37194)
(0.190508 -0.197624 2.67217)
(-0.076909 -0.0422316 0.545814)
(-0.0288769 0.0435625 0.583464)
(-0.0673234 -0.0730741 0.598114)
(-0.179877 -0.225325 0.42553)
(-0.193113 -0.103904 0.260659)
(0.0562516 0.0313327 0.654289)
(-0.033786 -0.0187612 0.817225)
(-0.154263 -0.100405 0.708114)
(-0.0363579 -0.0454567 0.408652)
(-0.0225092 -0.115412 0.321135)
(-0.0313985 -0.11269 0.643451)
(-0.139236 -0.0795802 0.728742)
(-0.235 0.0247336 0.728248)
(-0.158911 0.140442 0.68225)
(-0.0398517 0.1002 0.571265)
(4.74209e-05 0.0464524 0.465044)
(-0.111372 -0.0460413 0.652575)
(-0.222512 -0.0527153 0.746188)
(-0.167727 0.0282093 1.07047)
(-0.139394 -0.073576 0.893328)
(0.0614723 -0.00378399 0.592283)
(-0.0498305 0.000947115 0.611772)
(0.0991066 0.230244 1.45802)
(0.217814 -0.138895 2.66457)
(0.0738809 0.00695694 0.779096)
(-0.0218265 0.0291522 0.629725)
(-0.0586932 -0.123532 0.6734)
(-0.127505 -0.264806 0.477857)
(-0.119091 -0.0154697 0.22068)
(0.0393495 0.0114184 0.68126)
(-0.147383 -0.0751608 0.825554)
(-0.178029 -0.177735 0.566164)
(-0.0541675 -0.000558168 0.351337)
(0.00625358 -0.0635041 0.318207)
(-0.0384751 -0.118411 0.715797)
(-0.180577 -0.0839694 0.786056)
(-0.252255 0.0205659 0.72228)
(-0.184914 0.0673565 0.604065)
(-0.119863 -0.0400539 0.4968)
(0.0110284 -0.0768288 0.408985)
(-0.0961501 -0.041743 0.720185)
(-0.17599 -0.0680592 0.755746)
(-0.1084 -0.053441 0.977488)
(-0.145037 -0.0988581 0.835688)
(0.080842 -0.0584432 0.611415)
(-0.0728907 -0.021122 0.656476)
(0.131242 0.151053 1.63022)
(0.136001 -0.0313892 2.7428)
(0.216302 0.0239447 0.830935)
(-0.0138806 0.0094013 0.683294)
(-0.038357 -0.162329 0.778016)
(0.0121664 -0.177461 0.539807)
(0.0412964 0.101843 0.223205)
(-0.0264572 -0.0149685 0.765369)
(-0.211682 -0.135436 0.797798)
(-0.16405 -0.196747 0.491583)
(-0.0372985 0.0690694 0.332541)
(0.0295676 -0.00608866 0.335351)
(-0.0419868 -0.110903 0.808544)
(-0.200261 -0.0714857 0.832913)
(-0.269311 -0.0299381 0.709863)
(-0.23401 -0.0684987 0.534485)
(-0.171589 -0.107375 0.4494)
(0.00978715 -0.113586 0.360768)
(-0.079726 -0.0401567 0.79095)
(-0.170982 -0.0992456 0.761543)
(-0.161479 -0.126126 0.884907)
(-0.094789 -0.189586 0.723145)
(0.0810462 -0.113545 0.557589)
(-0.120466 -0.0358694 0.712494)
(-0.0355252 -0.000760222 1.64933)
(0.0852816 -0.0156496 2.86189)
(0.29193 0.0167463 0.767762)
(0.0206717 -0.0325061 0.739508)
(0.0289919 -0.173656 0.847234)
(0.149852 -0.0242509 0.641337)
(0.174007 0.182687 0.239605)
(-0.0559969 -0.042134 0.849779)
(-0.205669 -0.179184 0.788683)
(-0.125378 -0.167892 0.479419)
(-0.000440002 0.134989 0.356457)
(0.0407848 0.037718 0.345889)
(-0.0389483 -0.103092 0.915018)
(-0.201069 -0.061105 0.881918)
(-0.244387 -0.1365 0.706026)
(-0.250499 -0.140894 0.513783)
(-0.171785 -0.121495 0.445476)
(0.0221554 -0.00200891 0.357972)
(-0.0594907 -0.0424285 0.86596)
(-0.203577 -0.136888 0.768606)
(-0.283152 -0.203727 0.761509)
(-0.122784 -0.309073 0.654333)
(0.0160392 -0.103862 0.421847)
(-0.142974 -0.0384899 0.777784)
(-0.221969 -0.10956 1.39807)
(-0.049673 0.122102 2.90372)
(0.28586 0.028664 0.706506)
(0.0411825 -0.0429227 0.788552)
(0.0682262 -0.157666 0.864305)
(0.19469 0.107005 0.674848)
(0.220282 0.196525 0.263163)
(-0.040256 -0.0246375 0.913701)
(-0.151957 -0.207938 0.800838)
(-0.0291066 -0.0750929 0.516551)
(0.0316938 0.180211 0.404961)
(0.0507761 0.0661393 0.355871)
(-0.0287337 -0.0776703 1.00657)
(-0.155871 -0.0567315 0.944793)
(-0.186628 -0.19546 0.722603)
(-0.225132 -0.168193 0.520576)
(-0.120914 -0.0590829 0.471963)
(0.0242425 0.0674584 0.355852)
(-0.035089 -0.0486921 0.930917)
(-0.231733 -0.155742 0.776834)
(-0.338019 -0.246972 0.666061)
(-0.183056 -0.318778 0.578578)
(-0.019413 0.00142144 0.374914)
(-0.133416 -0.0367737 0.833966)
(-0.414494 -0.0786992 1.05877)
(-0.154112 0.181116 2.79041)
(0.24194 0.0191351 0.603432)
(0.0461089 -0.0338231 0.798437)
(0.12853 -0.0936061 0.853684)
(0.25487 0.153456 0.658563)
(0.204459 0.166526 0.307125)
(-0.0149759 -0.016339 0.936005)
(-0.0825602 -0.200043 0.799504)
(0.0800239 0.0335452 0.569384)
(0.0602965 0.192188 0.463239)
(0.0620506 0.0727564 0.368462)
(-0.0177284 -0.0384983 1.05782)
(-0.0975387 -0.0279836 1.00058)
(-0.13187 -0.215678 0.745433)
(-0.16229 -0.150741 0.551067)
(-0.0331417 0.0302851 0.512936)
(0.0279261 0.0947922 0.359154)
(-0.0166873 -0.055106 0.97142)
(-0.229987 -0.152649 0.785687)
(-0.320578 -0.222197 0.619794)
(-0.14411 -0.201333 0.518301)
(-0.0364359 0.0825177 0.369101)
(-0.11378 -0.0308393 0.880813)
(-0.422495 -0.044156 0.930984)
(-0.209408 -0.148986 2.04037)
(0.267571 0.0346847 0.453999)
(0.0167934 0.0605133 0.75631)
(0.103532 0.0119605 0.83665)
(0.317372 0.245296 0.581242)
(0.139048 0.120096 0.355479)
(0.0530307 0.00986269 0.908686)
(-0.00495892 -0.127869 0.81671)
(0.157397 0.0840793 0.643529)
(0.0913283 0.175954 0.52318)
(0.0741805 0.0611764 0.381462)
(-0.0110891 -0.0208266 1.06689)
(-0.0465357 0.0288509 1.04725)
(-0.0928249 -0.191465 0.769792)
(-0.105001 -0.109941 0.586147)
(0.0193692 0.0642945 0.529408)
(0.0339084 0.112611 0.379304)
(-0.00659685 -0.0611722 1.00022)
(-0.19311 -0.116968 0.791021)
(-0.244772 -0.129987 0.583345)
(-0.0891141 -0.0275158 0.502596)
(-0.0567695 0.133879 0.373128)
(-0.0787563 -0.0170477 0.911254)
(-0.266961 -0.045443 0.92785)
(-0.261142 -0.0154877 0.833239)
(0.179234 0.0317304 0.350615)
(-0.0786037 0.0955739 0.511282)
(0.178941 0.129094 0.661725)
(0.297443 0.197132 0.467059)
(0.0879514 0.0760375 0.399312)
(0.0718148 0.082856 0.896304)
(0.0648255 -0.042074 0.874382)
(0.191778 0.0517662 0.734234)
(0.122924 0.14917 0.581373)
(0.0821504 0.044173 0.403822)
(-0.00937303 -0.0298339 1.04879)
(-0.00970809 0.0742084 1.07132)
(-0.0565212 -0.13699 0.808743)
(-0.0733053 -0.0873986 0.596647)
(0.0450253 0.0645924 0.53096)
(0.0344 0.127344 0.404406)
(-0.0152903 -0.0642027 1.01869)
(-0.113697 -0.0759365 0.792513)
(-0.189341 -0.0699655 0.559066)
(-0.0565197 0.0601592 0.469067)
(-0.0752834 0.161833 0.379244)
(-0.0527853 -0.00467086 0.932016)
(-0.139133 -0.0535513 0.920809)
(-0.191397 0.0954769 0.507703)
(0.0810206 0.0130858 0.274857)
(-0.072353 0.0157272 0.397297)
(0.111975 0.0491656 0.424249)
(0.18768 0.0313979 0.402529)
(0.0488663 0.0345267 0.437552)
(0.0364335 0.0939815 0.916598)
(0.119845 -0.0175863 0.932984)
(0.194347 0.0107349 0.829682)
(0.154966 0.137601 0.634046)
(0.0849478 0.0409549 0.437572)
(-0.00675616 -0.0669332 1.01668)
(0.032823 0.0947611 1.06509)
(-0.00430533 -0.0932567 0.861905)
(-0.043818 -0.0770303 0.594152)
(0.0624157 0.0515044 0.525522)
(0.027523 0.133632 0.427644)
(-0.0296727 -0.0580012 1.02986)
(-0.0340762 -0.0769267 0.796992)
(-0.14139 -0.0721465 0.547004)
(-0.04408 0.090697 0.432881)
(-0.0799511 0.168778 0.38669)
(-0.0194067 -0.00403625 0.94786)
(-0.0767745 -0.0490809 0.914201)
(-0.166044 0.112019 0.451288)
(0.0137439 -0.00297887 0.241158)
(-0.0331444 -0.0136009 0.368183)
(0.034547 0.0399397 0.27707)
(0.0992651 -0.0885626 0.315269)
(0.00996747 -0.00399246 0.493416)
(0.0574326 0.0974265 0.952476)
(0.165146 -0.0266775 0.999206)
(0.189634 0.0372635 0.905044)
(0.190925 0.13927 0.671486)
(0.0911282 0.0468207 0.485253)
(-0.00269008 -0.0768191 0.998985)
(0.0529646 0.0762818 1.04437)
(0.0510295 -0.071944 0.908194)
(0.000161727 -0.0497203 0.613175)
(0.0872291 0.035299 0.531657)
(0.0180605 0.128259 0.452963)
(-0.0337829 -0.0484692 1.02312)
(0.0173235 -0.0946242 0.789419)
(-0.0812444 -0.109405 0.547085)
(-0.0351167 0.0816445 0.404467)
(-0.066032 0.158409 0.406996)
(-0.00171569 -0.0152634 0.938068)
(0.00198579 -0.0490531 0.927419)
(-0.101425 0.0890772 0.497131)
(-0.033344 -0.00770409 0.234922)
(0.00829583 -0.00101953 0.3942)
(0.00450017 0.0295918 0.222554)
(0.0605475 -0.132001 0.247044)
(-0.000538246 -0.034293 0.563013)
(0.078003 0.158103 0.875447)
(0.173842 0.015211 1.05535)
(0.182306 0.09264 0.901962)
(0.220831 0.106248 0.692569)
(0.109722 0.0278221 0.553992)
(0.00111107 -0.0508336 1.0057)
(0.0603164 0.0526918 1.05896)
(0.0725302 -0.0709842 0.944884)
(0.0847866 0.041661 0.673023)
(0.121115 0.0366398 0.563859)
(0.0143397 0.105654 0.493759)
(-0.0349619 -0.045671 0.986532)
(0.0286886 -0.102126 0.771028)
(-0.0387387 -0.113522 0.558302)
(-0.011952 0.0448148 0.417658)
(-0.0413808 0.13785 0.445069)
(0.0254527 -0.0145502 0.896559)
(0.0554036 -0.0499132 0.857977)
(0.00971303 0.0197948 0.608009)
(-0.0534986 -0.00632264 0.2341)
(0.0105434 0.0240916 0.347848)
(-0.00812777 0.0211384 0.235239)
(0.0482162 -0.0718866 0.248434)
(-0.012622 -0.022355 0.633084)
(0.00530898 0.160925 0.786388)
(0.112065 0.0714965 1.06909)
(0.180672 0.104282 0.836966)
(0.238432 0.0578615 0.696135)
(0.138841 -0.0172744 0.642375)
(0.00173916 0.0205465 1.04897)
(0.0492887 0.0301699 1.11412)
(0.0600738 -0.0568427 0.984058)
(0.14093 0.134202 0.712622)
(0.148724 0.0502852 0.619744)
(0.0303678 0.0667752 0.56573)
(-0.0323553 -0.0545452 0.945088)
(0.0215664 -0.0951477 0.761789)
(0.00104766 -0.0595207 0.589791)
(0.0255594 -0.00122231 0.482481)
(-0.0177342 0.116524 0.503781)
(0.0225325 -0.0413469 0.822337)
(0.0531232 -0.0475722 0.769488)
(0.0641817 -0.0330573 0.664883)
(-0.0543794 -0.00326832 0.22727)
(0.0457331 -0.00113711 0.28444)
(0.00963678 0.0314671 0.267835)
(0.0422604 0.000883569 0.261324)
(-0.0199893 0.0320909 0.675422)
(-0.106067 0.0917975 0.777254)
(-0.00648929 0.0596208 1.02299)
(0.184823 0.107387 0.684667)
(0.233277 0.0460615 0.69465)
(0.150376 -0.0541838 0.740792)
(0.00141899 0.0307103 1.05611)
(0.0473904 0.0158173 1.17638)
(0.0223038 0.0174456 1.02146)
(0.156273 0.188021 0.717298)
(0.158029 0.0488205 0.675873)
(0.0630398 0.0385094 0.662578)
(-0.0323445 -0.0493169 0.909825)
(0.00797603 -0.0406595 0.77006)
(0.052853 0.0189235 0.647233)
(0.0547901 -0.0226812 0.568967)
(-0.00906699 0.098456 0.584126)
(0.0110198 -0.0734849 0.724756)
(0.00911904 -0.0519688 0.685231)
(0.0675101 -0.0484305 0.648915)
(-0.044005 -0.00166634 0.221371)
(0.123523 -0.0737005 0.27394)
(0.0482089 0.00911703 0.31459)
(0.0393526 0.034101 0.262469)
(-0.0357018 0.0633761 0.676265)
(-0.155222 0.0508033 0.764192)
(-0.0841206 0.0298175 0.834598)
(0.140727 0.156751 0.557247)
(0.185895 0.0447057 0.712475)
(0.0855073 -0.08128 0.842375)
(0.00408463 0.0243595 1.04997)
(0.0166688 0.0579146 1.21046)
(-0.0358144 0.179411 0.9903)
(0.150059 0.197775 0.706722)
(0.153368 0.031529 0.723483)
(0.0886434 -0.0212316 0.762669)
(-0.0472809 -0.0329679 0.899771)
(-0.00416441 0.0951107 0.807126)
(0.0931808 0.0577351 0.70502)
(0.0856647 -0.0145419 0.657135)
(-0.00238256 0.048825 0.638724)
(0.0204441 -0.0016057 0.662856)
(0.0415429 -0.0170971 0.645849)
(0.0735123 -0.050843 0.614058)
(-0.0310748 -0.0018953 0.222265)
(0.17085 -0.128771 0.298693)
(0.088013 -0.010706 0.367956)