/*--------------------------------*- C++ -*----------------------------------*\
| =========                 |                                                 |
| \\      /  F ield         | OpenFOAM: The Open Source CFD Toolbox           |
|  \\    /   O peration     | Version:  5.x                                   |
|   \\  /    A nd           | Web:      www.OpenFOAM.org                      |
|    \\/     M anipulation  |                                                 |
\*---------------------------------------------------------------------------*/
FoamFile
{
    version     2.0;
    format      ascii;
    class       volVectorField;
    location    "8";
    object      Us;
}
// * * * * * * * * * * * * * * * * * * * * * * * * * * * * * * * * * * * * * //

dimensions      [0 1 -1 0 0 0 0];

internalField   nonuniform List<vector> 
10571
(
(-0.0254915 -0.0198173 0.0270559)
(0.0260524 -0.0114284 -0.0782471)
(0.0230696 -0.0457909 -0.0121451)
(-0.0751596 -0.07634 0.0684994)
(0.00417653 -0.00682577 0.0465634)
(0.0534059 0.00619615 -0.0613792)
(-0.15075 -0.0139595 0.0299272)
(-0.0895143 -0.0256439 0.0121151)
(0.0290912 -0.0613386 0.0295673)
(0.0139773 -0.0175181 0.0692341)
(0.0184027 0.0598305 -0.0628705)
(0.0521111 0.0734739 -0.0414008)
(-0.100716 0.0904411 0.0491248)
(-0.0405357 0.0989875 0.0270859)
(-0.00984965 0.118279 0.0147213)
(0.00606828 0.0943713 0.0589484)
(0.0644579 0.100537 0.0427663)
(0.0374949 0.153555 0.0860907)
(0.00479081 0.218847 0.125436)
(-0.0811461 0.23526 0.117958)
(-0.0701518 0.142002 0.0640002)
(0.0171759 0.0297588 0.0934531)
(-0.0060333 0.0772965 0.125665)
(-0.0452158 0.0545986 0.106889)
(0.0507445 -0.010796 0.0497675)
(-0.0180498 0.040667 -0.0637864)
(0.0960911 0.0857424 -0.0296715)
(0.0499941 0.0296622 0.110159)
(0.00620971 0.0201767 0.0615895)
(0.00685042 0.048051 0.04465)
(0.0892882 0.142653 0.133615)
(0.00624733 0.0688981 -0.0167267)
(-0.0264681 0.0476211 -0.0322455)
(-0.00266183 0.0121144 0.0701641)
(0.0186297 0.104085 0.120518)
(0.0489303 0.154092 0.155124)
(0.135098 0.157066 0.174327)
(0.0881455 0.0799817 0.0450533)
(-0.0533329 0.114062 0.000774047)
(-0.0634753 0.0911935 -0.0227958)
(0.0582648 0.116753 0.153739)
(0.0687163 0.0707701 0.183062)
(0.0430354 0.076144 0.272124)
(-0.0661574 0.13739 0.220837)
(-0.0699639 0.113848 0.0468154)
(0.0245827 0.0244267 0.176727)
(0.0127624 0.0437601 0.284221)
(-0.0317943 0.0302759 0.261798)
(0.0430012 0.011922 -0.122926)
(-0.0567341 0.0761835 -0.0130384)
(0.0477929 0.107359 -0.0177971)
(0.108722 0.128279 0.154701)
(0.0115894 0.0751875 -0.0193296)
(-0.0525461 0.170643 0.123934)
(0.0799686 0.21379 0.11763)
(-0.0152071 0.162888 -0.0551918)
(-0.0380682 0.110311 -0.0939187)
(-0.00249937 0.0744514 -0.0548211)
(0.0107884 0.18596 0.163587)
(-0.000937421 0.234972 0.221544)
(0.14431 0.191387 0.195574)
(0.072122 0.0895068 -0.128099)
(-0.0246589 0.0845432 -0.187444)
(-0.0465741 0.0749968 -0.1037)
(0.0220225 0.205033 0.237625)
(0.0340397 0.00214679 0.198475)
(0.0375161 0.0449119 0.352512)
(0.157653 0.111946 0.373176)
(0.07238 -0.152334 -0.37847)
(-0.0331311 -0.00684778 0.122242)
(0.0177245 0.0515854 0.350463)
(0.0203083 0.054264 0.356467)
(0.0210217 0.00709806 -0.200392)
(-0.0422558 0.0472747 -0.0670872)
(-0.0225451 0.0321656 -0.139706)
(-0.00275709 0.0479745 -0.140967)
(0.104253 0.0737746 -0.184595)
(-0.0779558 0.128634 0.0751312)
(-0.0430126 0.220721 0.0276536)
(-0.0014301 0.207741 -0.119917)
(0.0101757 0.140193 -0.151093)
(0.0203394 0.11724 -0.118549)
(0 0 0)
(-0.0473755 0.202357 0.174488)
(0.082342 0.280882 0.111293)
(0.0427622 -0.12153 -0.318828)
(0.104142 -0.158194 -0.345091)
(0.145771 -0.213446 -0.349018)
(0 0 0)
(0 0 0)
(0.0346872 -0.119588 -0.280866)
(0 0 0)
(0.0788542 -0.15879 -0.297198)
(-0.100923 -0.0414411 -0.402982)
(0.0477071 -0.0285666 -0.258728)
(0.145357 -0.00808992 -0.15215)
(0.0361922 0.0229417 -0.251773)
(0 0 0)
(0 0 0)
(0.0346802 0.01296 -0.0690151)
(0.104897 0.0406616 -0.169581)
(0 0 0)
(-0.0384939 0.192929 -0.0160836)
(0.0183878 0.169003 -0.0510381)
(0.0561465 0.113541 -0.166782)
(0.0640569 0.151833 -0.180264)
(0 0 0)
(0 0 0)
(0 0 0)
(0.0520663 -0.148004 -0.270081)
(0.122799 -0.162286 -0.259011)
(-0.0356587 -0.0353173 -0.27877)
(0 0 0)
(-0.0643041 -0.0563714 -0.316705)
(0.043637 -0.12371 -0.232669)
(0.0910226 -0.124666 -0.25608)
(0.0893128 -0.161976 -0.220385)
(-0.108137 -0.0248248 -0.359151)
(0 0 0)
(0 0 0)
(0 0 0)
(0 0 0)
(0 0 0)
(0 0 0)
(0 0 0)
(0 0 0)
(0 0 0)
(0 0 0)
(0 0 0)
(0.0361683 0.159363 -0.183368)
(-0.00116797 0.000465143 -0.00024782)
(0 0 0)
(0 0 0)
(0 0 0)
(0 0 0)
(0.137161 -0.169083 -0.193843)
(0 0 0)
(-0.000189663 -1.70931e-05 -6.6807e-05)
(0 0 0)
(-0.0409093 -0.0619283 -0.197963)
(0.0386258 -0.0954085 -0.141353)
(0.102246 -0.1193 -0.163027)
(0.137457 -0.140749 -0.151637)
(0 0 0)
(0 0 0)
(0 0 0)
(0 0 0)
(0 0 0)
(0 0 0)
(0 0 0)
(0 0 0)
(0 0 0)
(0 0 0)
(0 0 0)
(0 0 0)
(0 0 0)
(0 0 0)
(0 0 0)
(0 0 0)
(0 0 0)
(0 0 0)
(0 0 0)
(0 0 0)
(0 0 0)
(0 0 0)
(-0.0132555 -0.0759889 -0.0995211)
(0.0579049 -0.0774029 -0.0419407)
(6.66223e-14 -6.6225e-14 -2.58947e-14)
(0 0 0)
(0 0 0)
(0 0 0)
(0.0244079 -0.0452641 -0.0762337)
(0 0 0)
(0 0 0)
(0 0 0)
(0 0 0)
(0 0 0)
(0 0 0)
(0 0 0)
(0 0 0)
(0 0 0)
(0 0 0)
(0 0 0)
(0 0 0)
(0 0 0)
(0 0 0)
(0 0 0)
(0 0 0)
(0 0 0)
(0 0 0)
(0 0 0)
(0 0 0)
(0 0 0)
(0 0 0)
(0 0 0)
(0 0 0)
(0 0 0)
(0 0 0)
(0.0226882 -0.0279089 0.0402971)
(0 0 0)
(0 0 0)
(0 0 0)
(0 0 0)
(0 0 0)
(0 0 0)
(0 0 0)
(0 0 0)
(0 0 0)
(0 0 0)
(0 0 0)
(0 0 0)
(0 0 0)
(0 0 0)
(0 0 0)
(0 0 0)
(0 0 0)
(0 0 0)
(0 0 0)
(0 0 0)
(0 0 0)
(0 0 0)
(0 0 0)
(0 0 0)
(0 0 0)
(0 0 0)
(0 0 0)
(0 0 0)
(0 0 0)
(0 0 0)
(0 0 0)
(0 0 0)
(0 0 0)
(0 0 0)
(0 0 0)
(0 0 0)
(0 0 0)
(0 0 0)
(0 0 0)
(0 0 0)
(0 0 0)
(0 0 0)
(0 0 0)
(0 0 0)
(0 0 0)
(0 0 0)
(0 0 0)
(0 0 0)
(0 0 0)
(0 0 0)
(0 0 0)
(0 0 0)
(0 0 0)
(0 0 0)
(0 0 0)
(0 0 0)
(0 0 0)
(0 0 0)
(0 0 0)
(0 0 0)
(0 0 0)
(0 0 0)
(0 0 0)
(0 0 0)
(0 0 0)
(0 0 0)
(0 0 0)
(0 0 0)
(0 0 0)
(0 0 0)
(0 0 0)
(0 0 0)
(0 0 0)
(0 0 0)
(0 0 0)
(0 0 0)
(0 0 0)
(0 0 0)
(0 0 0)
(0 0 0)
(0 0 0)
(0 0 0)
(0 0 0)
(0 0 0)
(0 0 0)
(0 0 0)
(0 0 0)
(0 0 0)
(0 0 0)
(0 0 0)
(0 0 0)
(0 0 0)
(0 0 0)
(0 0 0)
(0 0 0)
(0 0 0)
(0 0 0)
(0 0 0)
(0 0 0)
(0 0 0)
(0 0 0)
(0 0 0)
(0 0 0)
(0 0 0)
(0 0 0)
(0 0 0)
(0 0 0)
(0 0 0)
(0 0 0)
(0 0 0)
(0 0 0)
(0 0 0)
(0 0 0)
(0 0 0)
(0 0 0)
(0 0 0)
(0 0 0)
(0 0 0)
(0 0 0)
(0 0 0)
(0 0 0)
(0 0 0)
(0 0 0)
(0 0 0)
(0 0 0)
(0 0 0)
(0 0 0)
(0 0 0)
(0 0 0)
(0 0 0)
(0 0 0)
(0 0 0)
(0 0 0)
(0 0 0)
(0 0 0)
(0 0 0)
(0 0 0)
(0 0 0)
(0 0 0)
(0 0 0)
(0 0 0)
(0 0 0)
(0 0 0)
(0 0 0)
(0 0 0)
(0 0 0)
(0 0 0)
(0 0 0)
(0 0 0)
(0 0 0)
(0 0 0)
(0 0 0)
(0 0 0)
(0 0 0)
(0 0 0)
(0 0 0)
(0 0 0)
(0 0 0)
(0 0 0)
(0 0 0)
(0 0 0)
(0 0 0)
(0 0 0)
(0 0 0)
(0 0 0)
(0 0 0)
(0 0 0)
(0 0 0)
(0 0 0)
(0 0 0)
(0 0 0)
(0 0 0)
(0 0 0)
(0 0 0)
(0 0 0)
(0 0 0)
(0 0 0)
(0 0 0)
(0 0 0)
(0 0 0)
(0 0 0)
(0 0 0)
(0 0 0)
(0 0 0)
(0 0 0)
(0 0 0)
(0 0 0)
(0 0 0)
(0 0 0)
(0 0 0)
(0 0 0)
(0 0 0)
(0 0 0)
(0 0 0)
(0 0 0)
(0 0 0)
(0 0 0)
(0 0 0)
(0 0 0)
(0 0 0)
(0 0 0)
(0 0 0)
(0 0 0)
(0 0 0)
(0 0 0)
(0 0 0)
(0 0 0)
(0 0 0)
(0 0 0)
(0 0 0)
(0 0 0)
(0 0 0)
(0 0 0)
(0 0 0)
(0 0 0)
(0 0 0)
(0 0 0)
(0 0 0)
(0 0 0)
(0 0 0)
(0 0 0)
(0 0 0)
(0 0 0)
(0 0 0)
(0 0 0)
(0 0 0)
(0 0 0)
(0 0 0)
(0 0 0)
(0 0 0)
(0 0 0)
(0 0 0)
(0 0 0)
(0 0 0)
(0 0 0)
(0 0 0)
(0 0 0)
(0 0 0)
(0 0 0)
(0 0 0)
(0 0 0)
(0 0 0)
(0 0 0)
(0 0 0)
(0 0 0)
(0 0 0)
(0 0 0)
(0 0 0)
(0 0 0)
(0 0 0)
(0 0 0)
(0 0 0)
(0 0 0)
(0 0 0)
(0 0 0)
(0 0 0)
(0 0 0)
(0 0 0)
(0 0 0)
(0 0 0)
(0 0 0)
(0 0 0)
(0 0 0)
(0 0 0)
(0 0 0)
(0 0 0)
(0 0 0)
(0 0 0)
(0 0 0)
(0 0 0)
(0 0 0)
(0 0 0)
(0 0 0)
(0 0 0)
(0 0 0)
(0 0 0)
(0 0 0)
(0 0 0)
(0 0 0)
(0 0 0)
(0 0 0)
(0 0 0)
(0 0 0)
(0 0 0)
(0 0 0)
(0 0 0)
(0 0 0)
(0 0 0)
(0 0 0)
(0 0 0)
(0 0 0)
(0 0 0)
(0 0 0)
(0 0 0)
(0 0 0)
(0 0 0)
(0 0 0)
(0 0 0)
(0 0 0)
(0 0 0)
(0 0 0)
(0 0 0)
(0 0 0)
(0 0 0)
(0 0 0)
(0 0 0)
(0 0 0)
(0 0 0)
(0 0 0)
(0 0 0)
(0 0 0)
(0 0 0)
(0 0 0)
(0 0 0)
(0 0 0)
(0 0 0)
(0 0 0)
(0 0 0)
(0 0 0)
(0 0 0)
(0 0 0)
(0 0 0)
(0 0 0)
(0 0 0)
(0 0 0)
(0 0 0)
(0 0 0)
(0 0 0)
(0 0 0)
(0 0 0)
(0 0 0)
(0 0 0)
(0 0 0)
(0 0 0)
(0 0 0)
(0 0 0)
(0 0 0)
(0 0 0)
(0 0 0)
(0 0 0)
(0 0 0)
(0 0 0)
(0 0 0)
(0 0 0)
(0 0 0)
(0 0 0)
(0 0 0)
(0 0 0)
(0 0 0)
(0 0 0)
(0 0 0)
(0 0 0)
(0 0 0)
(0 0 0)
(0 0 0)
(0 0 0)
(0 0 0)
(0 0 0)
(0 0 0)
(0 0 0)
(0 0 0)
(0 0 0)
(0 0 0)
(0 0 0)
(0 0 0)
(0 0 0)
(0 0 0)
(0 0 0)
(0 0 0)
(0 0 0)
(0 0 0)
(0 0 0)
(0 0 0)
(0 0 0)
(0 0 0)
(0 0 0)
(0 0 0)
(0 0 0)
(0 0 0)
(0 0 0)
(0 0 0)
(0 0 0)
(0 0 0)
(0 0 0)
(0 0 0)
(0 0 0)
(0 0 0)
(0 0 0)
(0 0 0)
(0 0 0)
(0 0 0)
(0 0 0)
(0 0 0)
(0 0 0)
(0 0 0)
(0 0 0)
(0 0 0)
(0 0 0)
(0 0 0)
(0 0 0)
(0 0 0)
(0 0 0)
(0 0 0)
(0 0 0)
(0 0 0)
(0 0 0)
(0 0 0)
(0 0 0)
(0 0 0)
(0 0 0)
(0 0 0)
(0 0 0)
(0 0 0)
(0 0 0)
(0 0 0)
(0 0 0)
(0 0 0)
(0 0 0)
(0 0 0)
(0 0 0)
(0 0 0)
(0 0 0)
(0 0 0)
(0 0 0)
(0 0 0)
(0 0 0)
(0 0 0)
(0 0 0)
(0 0 0)
(0 0 0)
(0 0 0)
(0 0 0)
(0 0 0)
(0 0 0)
(0 0 0)
(0 0 0)
(0 0 0)
(0 0 0)
(0 0 0)
(0 0 0)
(0 0 0)
(0 0 0)
(0 0 0)
(0 0 0)
(0 0 0)
(0 0 0)
(0 0 0)
(0 0 0)
(0 0 0)
(0 0 0)
(0 0 0)
(0 0 0)
(0 0 0)
(0 0 0)
(0 0 0)
(0 0 0)
(0 0 0)
(0 0 0)
(0 0 0)
(0 0 0)
(0 0 0)
(0 0 0)
(0 0 0)
(0 0 0)
(0 0 0)
(0 0 0)
(0 0 0)
(0 0 0)
(0 0 0)
(0 0 0)
(0 0 0)
(0 0 0)
(0 0 0)
(0 0 0)
(0 0 0)
(0 0 0)
(0 0 0)
(0 0 0)
(0 0 0)
(0 0 0)
(0 0 0)
(0 0 0)
(0 0 0)
(0 0 0)
(0 0 0)
(0 0 0)
(0 0 0)
(0 0 0)
(0 0 0)
(0 0 0)
(0 0 0)
(0 0 0)
(0 0 0)
(0 0 0)
(0 0 0)
(0 0 0)
(0 0 0)
(0 0 0)
(0 0 0)
(0 0 0)
(0 0 0)
(0 0 0)
(0 0 0)
(0 0 0)
(0 0 0)
(0 0 0)
(0 0 0)
(0 0 0)
(0 0 0)
(0 0 0)
(0 0 0)
(0 0 0)
(0 0 0)
(0 0 0)
(0 0 0)
(0 0 0)
(0 0 0)
(0 0 0)
(0 0 0)
(0 0 0)
(0 0 0)
(0 0 0)
(0 0 0)
(0 0 0)
(0 0 0)
(0 0 0)
(0 0 0)
(0 0 0)
(0 0 0)
(0 0 0)
(0 0 0)
(0 0 0)
(0 0 0)
(0 0 0)
(0 0 0)
(0 0 0)
(0 0 0)
(0 0 0)
(0 0 0)
(0 0 0)
(0 0 0)
(0 0 0)
(0 0 0)
(0 0 0)
(0 0 0)
(0 0 0)
(0 0 0)
(0 0 0)
(0 0 0)
(0 0 0)
(0 0 0)
(0 0 0)
(0 0 0)
(0 0 0)
(0 0 0)
(0 0 0)
(0 0 0)
(0 0 0)
(0 0 0)
(0 0 0)
(0 0 0)
(0 0 0)
(0 0 0)
(0 0 0)
(0 0 0)
(0 0 0)
(0 0 0)
(0 0 0)
(0 0 0)
(0 0 0)
(0 0 0)
(0 0 0)
(0 0 0)
(0 0 0)
(0 0 0)
(0 0 0)
(0 0 0)
(0 0 0)
(0 0 0)
(0 0 0)
(0 0 0)
(0 0 0)
(0 0 0)
(0 0 0)
(0 0 0)
(0 0 0)
(0 0 0)
(0 0 0)
(0 0 0)
(0 0 0)
(0 0 0)
(0 0 0)
(0 0 0)
(0 0 0)
(0 0 0)
(0 0 0)
(0 0 0)
(0 0 0)
(0 0 0)
(0 0 0)
(0 0 0)
(0 0 0)
(0 0 0)
(0 0 0)
(0 0 0)
(0 0 0)
(0 0 0)
(0 0 0)
(0 0 0)
(0 0 0)
(0 0 0)
(0 0 0)
(0 0 0)
(0 0 0)
(0 0 0)
(0 0 0)
(0 0 0)
(0 0 0)
(0 0 0)
(0 0 0)
(0 0 0)
(0 0 0)
(0 0 0)
(0 0 0)
(0 0 0)
(0 0 0)
(0 0 0)
(0 0 0)
(0 0 0)
(0 0 0)
(0 0 0)
(0 0 0)
(0 0 0)
(0 0 0)
(0 0 0)
(0 0 0)
(0 0 0)
(0 0 0)
(0 0 0)
(0 0 0)
(0 0 0)
(0 0 0)
(0 0 0)
(0 0 0)
(0 0 0)
(0 0 0)
(0 0 0)
(0 0 0)
(0 0 0)
(0 0 0)
(0 0 0)
(0 0 0)
(0 0 0)
(0 0 0)
(0 0 0)
(0 0 0)
(0 0 0)
(0 0 0)
(0 0 0)
(0 0 0)
(0 0 0)
(0 0 0)
(0 0 0)
(0 0 0)
(0 0 0)
(0 0 0)
(0 0 0)
(0 0 0)
(0 0 0)
(0 0 0)
(0 0 0)
(0 0 0)
(0 0 0)
(0 0 0)
(0 0 0)
(0 0 0)
(0 0 0)
(0 0 0)
(0 0 0)
(0 0 0)
(0 0 0)
(0 0 0)
(0 0 0)
(0 0 0)
(0 0 0)
(0 0 0)
(0 0 0)
(0 0 0)
(0 0 0)
(0 0 0)
(0 0 0)
(0 0 0)
(0 0 0)
(0 0 0)
(0 0 0)
(0 0 0)
(0 0 0)
(0 0 0)
(0 0 0)
(0 0 0)
(0 0 0)
(0 0 0)
(0 0 0)
(0 0 0)
(0 0 0)
(0 0 0)
(0 0 0)
(0 0 0)
(0 0 0)
(0 0 0)
(0 0 0)
(0 0 0)
(0 0 0)
(0 0 0)
(0 0 0)
(0 0 0)
(0 0 0)
(0 0 0)
(0 0 0)
(0 0 0)
(0 0 0)
(0 0 0)
(0 0 0)
(0 0 0)
(0 0 0)
(0 0 0)
(0 0 0)
(0 0 0)
(0 0 0)
(0 0 0)
(0 0 0)
(0 0 0)
(0 0 0)
(0 0 0)
(0 0 0)
(0 0 0)
(0 0 0)
(0 0 0)
(0 0 0)
(0 0 0)
(0 0 0)
(0 0 0)
(0 0 0)
(0 0 0)
(0 0 0)
(0 0 0)
(0 0 0)
(0 0 0)
(0 0 0)
(0 0 0)
(0 0 0)
(0 0 0)
(0 0 0)
(0 0 0)
(0 0 0)
(0 0 0)
(0 0 0)
(0 0 0)
(0 0 0)
(0 0 0)
(0 0 0)
(0 0 0)
(0 0 0)
(0 0 0)
(0 0 0)
(0 0 0)
(0 0 0)
(0 0 0)
(0 0 0)
(0 0 0)
(0 0 0)
(0 0 0)
(0 0 0)
(0 0 0)
(0 0 0)
(0 0 0)
(0 0 0)
(0 0 0)
(0 0 0)
(0 0 0)
(0 0 0)
(0 0 0)
(0 0 0)
(0 0 0)
(0 0 0)
(0 0 0)
(0 0 0)
(0 0 0)
(0 0 0)
(0 0 0)
(0 0 0)
(0 0 0)
(0 0 0)
(0 0 0)
(0 0 0)
(0 0 0)
(0 0 0)
(0 0 0)
(0 0 0)
(0 0 0)
(0 0 0)
(0 0 0)
(0 0 0)
(0 0 0)
(0 0 0)
(0 0 0)
(0 0 0)
(0 0 0)
(0 0 0)
(0 0 0)
(0 0 0)
(0 0 0)
(0 0 0)
(0 0 0)
(0 0 0)
(0 0 0)
(0 0 0)
(0 0 0)
(0 0 0)
(0 0 0)
(0 0 0)
(0 0 0)
(0 0 0)
(0 0 0)
(0 0 0)
(0 0 0)
(0 0 0)
(0 0 0)
(0 0 0)
(0 0 0)
(0 0 0)
(0 0 0)
(0 0 0)
(0 0 0)
(0 0 0)
(0 0 0)
(0 0 0)
(0 0 0)
(0 0 0)
(0 0 0)
(0 0 0)
(0 0 0)
(0 0 0)
(0 0 0)
(0 0 0)
(0 0 0)
(0 0 0)
(0 0 0)
(0 0 0)
(0 0 0)
(0 0 0)
(0 0 0)
(0 0 0)
(0 0 0)
(0 0 0)
(0 0 0)
(0 0 0)
(0 0 0)
(0 0 0)
(0 0 0)
(0 0 0)
(0 0 0)
(0 0 0)
(0 0 0)
(0 0 0)
(0 0 0)
(0 0 0)
(0 0 0)
(0 0 0)
(0 0 0)
(0 0 0)
(0 0 0)
(0 0 0)
(0 0 0)
(0 0 0)
(0 0 0)
(0 0 0)
(0 0 0)
(0 0 0)
(0 0 0)
(0 0 0)
(0 0 0)
(0 0 0)
(0 0 0)
(0 0 0)
(0 0 0)
(0 0 0)
(0 0 0)
(0 0 0)
(0 0 0)
(0 0 0)
(0 0 0)
(0 0 0)
(0 0 0)
(0 0 0)
(0 0 0)
(0 0 0)
(0 0 0)
(0 0 0)
(0 0 0)
(0 0 0)
(0 0 0)
(0 0 0)
(0 0 0)
(0 0 0)
(0 0 0)
(0 0 0)
(0 0 0)
(0 0 0)
(0 0 0)
(0 0 0)
(0 0 0)
(0 0 0)
(0 0 0)
(0 0 0)
(0 0 0)
(0 0 0)
(0 0 0)
(0 0 0)
(0 0 0)
(0 0 0)
(0 0 0)
(0 0 0)
(0 0 0)
(0 0 0)
(0 0 0)
(0 0 0)
(0 0 0)
(0 0 0)
(0 0 0)
(0 0 0)
(0 0 0)
(0 0 0)
(0 0 0)
(0 0 0)
(0 0 0)
(0 0 0)
(0 0 0)
(0 0 0)
(0 0 0)
(0 0 0)
(0 0 0)
(0 0 0)
(0 0 0)
(0 0 0)
(0 0 0)
(0 0 0)
(0 0 0)
(0 0 0)
(0 0 0)
(0 0 0)
(0 0 0)
(0 0 0)
(0 0 0)
(0 0 0)
(0 0 0)
(0 0 0)
(0 0 0)
(0 0 0)
(0 0 0)
(0 0 0)
(0 0 0)
(0 0 0)
(0 0 0)
(0 0 0)
(0 0 0)
(0 0 0)
(0 0 0)
(0 0 0)
(0 0 0)
(0 0 0)
(0 0 0)
(0 0 0)
(0 0 0)
(0 0 0)
(0 0 0)
(0 0 0)
(0 0 0)
(0 0 0)
(0 0 0)
(0 0 0)
(0 0 0)
(0 0 0)
(0 0 0)
(0 0 0)
(0 0 0)
(0 0 0)
(0 0 0)
(0 0 0)
(0 0 0)
(0 0 0)
(0 0 0)
(0 0 0)
(0 0 0)
(0 0 0)
(0 0 0)
(0 0 0)
(0 0 0)
(0 0 0)
(0 0 0)
(0 0 0)
(0 0 0)
(0 0 0)
(0 0 0)
(0 0 0)
(0 0 0)
(0 0 0)
(0 0 0)
(0 0 0)
(0 0 0)
(0 0 0)
(0 0 0)
(0 0 0)
(0 0 0)
(0 0 0)
(0 0 0)
(0 0 0)
(0 0 0)
(0 0 0)
(0 0 0)
(0 0 0)
(0 0 0)
(0 0 0)
(0 0 0)
(0 0 0)
(0 0 0)
(0 0 0)
(0 0 0)
(0 0 0)
(0 0 0)
(0 0 0)
(0 0 0)
(0 0 0)
(0 0 0)
(0 0 0)
(0 0 0)
(0 0 0)
(0 0 0)
(0 0 0)
(0 0 0)
(0 0 0)
(0 0 0)
(0 0 0)
(0 0 0)
(0 0 0)
(0 0 0)
(0 0 0)
(0 0 0)
(0 0 0)
(0 0 0)
(0 0 0)
(0 0 0)
(0 0 0)
(0 0 0)
(0 0 0)
(0 0 0)
(0 0 0)
(0 0 0)
(0 0 0)
(0 0 0)
(0 0 0)
(0 0 0)
(0 0 0)
(0 0 0)
(0 0 0)
(0 0 0)
(0 0 0)
(0 0 0)
(0 0 0)
(0 0 0)
(0 0 0)
(0 0 0)
(0 0 0)
(0 0 0)
(0 0 0)
(0 0 0)
(0 0 0)
(0 0 0)
(0 0 0)
(0 0 0)
(0 0 0)
(0 0 0)
(0 0 0)
(0 0 0)
(0 0 0)
(0 0 0)
(0 0 0)
(0 0 0)
(0 0 0)
(0 0 0)
(0 0 0)
(0 0 0)
(0 0 0)
(0 0 0)
(0 0 0)
(0 0 0)
(0 0 0)
(0 0 0)
(0 0 0)
(0 0 0)
(0 0 0)
(0 0 0)
(0 0 0)
(0 0 0)
(0 0 0)
(0 0 0)
(0 0 0)
(0 0 0)
(0 0 0)
(0 0 0)
(0 0 0)
(0 0 0)
(0 0 0)
(0 0 0)
(0 0 0)
(0 0 0)
(0 0 0)
(0 0 0)
(0 0 0)
(0 0 0)
(0 0 0)
(0 0 0)
(0 0 0)
(0 0 0)
(0 0 0)
(0 0 0)
(0 0 0)
(0 0 0)
(0 0 0)
(0 0 0)
(0 0 0)
(0 0 0)
(0 0 0)
(0 0 0)
(0 0 0)
(0 0 0)
(0 0 0)
(0 0 0)
(0 0 0)
(0 0 0)
(0 0 0)
(0 0 0)
(0 0 0)
(0 0 0)
(0 0 0)
(0 0 0)
(0 0 0)
(0 0 0)
(0 0 0)
(0 0 0)
(0 0 0)
(0 0 0)
(0 0 0)
(0 0 0)
(0 0 0)
(0 0 0)
(0 0 0)
(0 0 0)
(0 0 0)
(0 0 0)
(0 0 0)
(0 0 0)
(0 0 0)
(0 0 0)
(0 0 0)
(0 0 0)
(0 0 0)
(0 0 0)
(0 0 0)
(0 0 0)
(0 0 0)
(0 0 0)
(0 0 0)
(0 0 0)
(0 0 0)
(0 0 0)
(0 0 0)
(0 0 0)
(0 0 0)
(0 0 0)
(0 0 0)
(0 0 0)
(0 0 0)
(0 0 0)
(0 0 0)
(0 0 0)
(0 0 0)
(0 0 0)
(0 0 0)
(0 0 0)
(0 0 0)
(0 0 0)
(0 0 0)
(0 0 0)
(0 0 0)
(0 0 0)
(0 0 0)
(0 0 0)
(0 0 0)
(0 0 0)
(0 0 0)
(0 0 0)
(0 0 0)
(0 0 0)
(0 0 0)
(0 0 0)
(0 0 0)
(0 0 0)
(0 0 0)
(0 0 0)
(0 0 0)
(0 0 0)
(0 0 0)
(0 0 0)
(0 0 0)
(0 0 0)
(0 0 0)
(0 0 0)
(0 0 0)
(0 0 0)
(0 0 0)
(0 0 0)
(0 0 0)
(0 0 0)
(0 0 0)
(0 0 0)
(0 0 0)
(0 0 0)
(0 0 0)
(0 0 0)
(0 0 0)
(0 0 0)
(0 0 0)
(0 0 0)
(0 0 0)
(0 0 0)
(0 0 0)
(0 0 0)
(0 0 0)
(0 0 0)
(0 0 0)
(0 0 0)
(0 0 0)
(0 0 0)
(0 0 0)
(0 0 0)
(0 0 0)
(0 0 0)
(0 0 0)
(0 0 0)
(0 0 0)
(0 0 0)
(0 0 0)
(0 0 0)
(0 0 0)
(0 0 0)
(0 0 0)
(0 0 0)
(0 0 0)
(0 0 0)
(0 0 0)
(0 0 0)
(0 0 0)
(0 0 0)
(0 0 0)
(0 0 0)
(0 0 0)
(0 0 0)
(0 0 0)
(0 0 0)
(0 0 0)
(0 0 0)
(0 0 0)
(0 0 0)
(0 0 0)
(0 0 0)
(0 0 0)
(0 0 0)
(0 0 0)
(0 0 0)
(0 0 0)
(0 0 0)
(0 0 0)
(0 0 0)
(0 0 0)
(0 0 0)
(0 0 0)
(0 0 0)
(0 0 0)
(0 0 0)
(0 0 0)
(0 0 0)
(0 0 0)
(0 0 0)
(0 0 0)
(0 0 0)
(0 0 0)
(0 0 0)
(0 0 0)
(0 0 0)
(0 0 0)
(0 0 0)
(0 0 0)
(0 0 0)
(0 0 0)
(0 0 0)
(0 0 0)
(0 0 0)
(0 0 0)
(0 0 0)
(0 0 0)
(0 0 0)
(0 0 0)
(0 0 0)
(0 0 0)
(0 0 0)
(0 0 0)
(0 0 0)
(0 0 0)
(0 0 0)
(0 0 0)
(0 0 0)
(0 0 0)
(0 0 0)
(0 0 0)
(0 0 0)
(0 0 0)
(0 0 0)
(0 0 0)
(0 0 0)
(0 0 0)
(0 0 0)
(0 0 0)
(0 0 0)
(0 0 0)
(0 0 0)
(0 0 0)
(0 0 0)
(0 0 0)
(0 0 0)
(0 0 0)
(0 0 0)
(0 0 0)
(0 0 0)
(0 0 0)
(0 0 0)
(0 0 0)
(0 0 0)
(0 0 0)
(0 0 0)
(0 0 0)
(0 0 0)
(0 0 0)
(0 0 0)
(0 0 0)
(0 0 0)
(0 0 0)
(0 0 0)
(0 0 0)
(0 0 0)
(0 0 0)
(0 0 0)
(0 0 0)
(0 0 0)
(0 0 0)
(0 0 0)
(0 0 0)
(0 0 0)
(0 0 0)
(0 0 0)
(0 0 0)
(0 0 0)
(0 0 0)
(0 0 0)
(0 0 0)
(0 0 0)
(0 0 0)
(0 0 0)
(0 0 0)
(0 0 0)
(0 0 0)
(0 0 0)
(0 0 0)
(0 0 0)
(0 0 0)
(0 0 0)
(0 0 0)
(0 0 0)
(0 0 0)
(0 0 0)
(0 0 0)
(0 0 0)
(0 0 0)
(0 0 0)
(0 0 0)
(0 0 0)
(0 0 0)
(0 0 0)
(0 0 0)
(0 0 0)
(0 0 0)
(0 0 0)
(0 0 0)
(0 0 0)
(0 0 0)
(0 0 0)
(0 0 0)
(0 0 0)
(0 0 0)
(0 0 0)
(0 0 0)
(0 0 0)
(0 0 0)
(0 0 0)
(0 0 0)
(0 0 0)
(0 0 0)
(0 0 0)
(0 0 0)
(0 0 0)
(0 0 0)
(0 0 0)
(0 0 0)
(0 0 0)
(0 0 0)
(0 0 0)
(0 0 0)
(0 0 0)
(0 0 0)
(0 0 0)
(0 0 0)
(0 0 0)
(0 0 0)
(0 0 0)
(0 0 0)
(0 0 0)
(0 0 0)
(0 0 0)
(0 0 0)
(0 0 0)
(0 0 0)
(0 0 0)
(0 0 0)
(0 0 0)
(0 0 0)
(0 0 0)
(0 0 0)
(0 0 0)
(0 0 0)
(0 0 0)
(0 0 0)
(0 0 0)
(0 0 0)
(0 0 0)
(0 0 0)
(0 0 0)
(0 0 0)
(0 0 0)
(0 0 0)
(0 0 0)
(0 0 0)
(0 0 0)
(0 0 0)
(0 0 0)
(0 0 0)
(0 0 0)
(0 0 0)
(0 0 0)
(0 0 0)
(0 0 0)
(0 0 0)
(0 0 0)
(0 0 0)
(0 0 0)
(0 0 0)
(0 0 0)
(0 0 0)
(0 0 0)
(0 0 0)
(0 0 0)
(0 0 0)
(0 0 0)
(0 0 0)
(0 0 0)
(0 0 0)
(0 0 0)
(0 0 0)
(0 0 0)
(0 0 0)
(0 0 0)
(0 0 0)
(0 0 0)
(0 0 0)
(0 0 0)
(0 0 0)
(0 0 0)
(0 0 0)
(0 0 0)
(0 0 0)
(0 0 0)
(0 0 0)
(0 0 0)
(0 0 0)
(0 0 0)
(0 0 0)
(0 0 0)
(0 0 0)
(0 0 0)
(0 0 0)
(0 0 0)
(0 0 0)
(0 0 0)
(0 0 0)
(0 0 0)
(0 0 0)
(0 0 0)
(0 0 0)
(0 0 0)
(0 0 0)
(0 0 0)
(0 0 0)
(0 0 0)
(0 0 0)
(0 0 0)
(0 0 0)
(0 0 0)
(0 0 0)
(0 0 0)
(0 0 0)
(0 0 0)
(0 0 0)
(0 0 0)
(0 0 0)
(0 0 0)
(0 0 0)
(0 0 0)
(0 0 0)
(0 0 0)
(0 0 0)
(0 0 0)
(0 0 0)
(0 0 0)
(0 0 0)
(0 0 0)
(0 0 0)
(0 0 0)
(0 0 0)
(0 0 0)
(0 0 0)
(0 0 0)
(0 0 0)
(0 0 0)
(0 0 0)
(0 0 0)
(0 0 0)
(0 0 0)
(0 0 0)
(0 0 0)
(0 0 0)
(0 0 0)
(0 0 0)
(0 0 0)
(0 0 0)
(0 0 0)
(0 0 0)
(0 0 0)
(0 0 0)
(0 0 0)
(0 0 0)
(0 0 0)
(0 0 0)
(0 0 0)
(0 0 0)
(0 0 0)
(0 0 0)
(0 0 0)
(0 0 0)
(0 0 0)
(0 0 0)
(0 0 0)
(0 0 0)
(0 0 0)
(0 0 0)
(0 0 0)
(0 0 0)
(0 0 0)
(0 0 0)
(0 0 0)
(0 0 0)
(0 0 0)
(0 0 0)
(0 0 0)
(0 0 0)
(0 0 0)
(0 0 0)
(0 0 0)
(0 0 0)
(0 0 0)
(0 0 0)
(0 0 0)
(0 0 0)
(0 0 0)
(0 0 0)
(0 0 0)
(0 0 0)
(0 0 0)
(0 0 0)
(0 0 0)
(0 0 0)
(0 0 0)
(0 0 0)
(0 0 0)
(0 0 0)
(0 0 0)
(0 0 0)
(0 0 0)
(0 0 0)
(0 0 0)
(0 0 0)
(0 0 0)
(0.00163663 -0.00307726 -0.00122966)
(-0.0281603 -0.00119222 0.00556768)
(-0.00576585 -0.00191437 0.000387767)
(-0.027098 -0.00484454 0.00700343)
(-0.0270879 -0.00659796 0.00313349)
(-0.0413027 -0.0126986 0.00223691)
(-0.0415728 0.000388295 -0.0164437)
(-0.0155611 -0.00456866 -0.00446623)
(0.00339901 0.00952467 -0.0133302)
(-0.0027647 0.00466267 -0.00406986)
(0.000196782 0.00463629 -0.00428702)
(0.00291451 0.00810039 -0.010043)
(-0.0181348 0.0101231 -0.000300398)
(-0.0114382 0.00271084 0.000543556)
(-0.038911 -0.000927904 0.00443972)
(-0.0377315 0.00769961 0.00175113)
(-0.0685174 0.00781347 0.00172283)
(-0.0694687 -0.0254459 0.00331602)
(-0.0566208 -0.0460573 -0.00105854)
(-0.0799523 -0.01177 -0.00888303)
(-0.0422219 -0.0422037 -0.0279428)
(-0.00515143 -0.0218195 -0.00825679)
(-0.00133366 -0.00300839 -0.00453623)
(0.00631708 -0.0269154 -0.004531)
(0.0231293 -0.0212758 0.0106667)
(0.00218428 -0.00339355 -0.00153943)
(0.0058507 0.0143997 -0.00359794)
(0.00426196 0.00266929 -0.00450395)
(0.0132101 0.00726723 -0.00566374)
(-0.00179493 0.0209526 -0.00116819)
(-0.0264516 0.0147944 4.84286e-07)
(0.0080228 0.0242387 -0.00510152)
(-0.023663 0.0294 0.000903222)
(-0.0667312 0.0225733 0.00527968)
(-0.135231 0.028858 -0.00197503)
(-0.10696 0.0501141 0.00578067)
(-0.183882 0.0641236 -0.0142772)
(-0.133602 0.0119149 -0.0176017)
(-0.0619195 -0.00864748 -0.0220141)
(-0.139207 0.0541551 -0.0225129)
(-0.0848104 0.0516054 -0.0265331)
(0.0018903 -0.0203353 -0.0230076)
(0.0318089 -0.0197876 -0.0100652)
(-0.0166765 0.0467049 -0.0287736)
(0.0364206 0.0367308 -0.0236081)
(0.0113924 -0.0102457 -0.000264956)
(0.0400601 0.0294938 -0.00473071)
(0.00997596 0.0292358 -0.00146678)
(0.00195795 0.00558906 -0.00326915)
(0.010388 0.016759 -0.004855)
(0.022475 0.0215728 -0.00702226)
(0.0128516 0.0289101 -0.00804254)
(-0.0263668 0.0520557 -0.00221831)
(0.0337718 0.0320291 -0.00719985)
(-0.00340179 0.079449 -0.00403194)
(-0.0927146 0.0723666 0.00546843)
(-0.171121 0.103933 -0.0156621)
(-0.0743221 0.112494 -0.0051399)
(-0.136425 0.146905 -0.0223272)
(-0.132078 0.114418 -0.0247432)
(-0.0816192 0.124195 -0.0294298)
(-0.114413 0.167 -0.0251544)
(-0.0732033 0.188235 -0.0230545)
(-0.0106705 0.127287 -0.0264593)
(0.0381094 0.12361 -0.028458)
(-0.0323372 0.196371 -0.0172963)
(0.00385659 0.180854 -0.0130625)
(0.021316 0.0888712 -0.00695059)
(8.94646e-06 0.0549869 -0.00266429)
(-0.0131116 0.117325 -0.00200224)
(0.0158389 0.0103883 -0.00589087)
(0.0370143 0.0321836 -0.00798291)
(0.059939 0.0674612 -0.0175587)
(0.00279699 0.00920064 -0.00605739)
(0.0158538 0.0320656 0.000620826)
(-0.0198549 0.124664 -0.0345223)
(-0.0837953 0.177202 -0.0285415)
(0.020124 0.0568662 0.000899647)
(-0.0189762 0.129732 0.00585417)
(-0.0888386 0.224842 -0.0204215)
(-0.0689565 0.245599 0.00295555)
(-0.0474165 0.189776 0.025342)
(-0.0584722 0.190416 0.0390355)
(-0.0586101 0.238802 0.0105659)
(-0.0449939 0.175023 0.0142168)
(-0.0510851 0.142181 0.0344503)
(-0.0336897 0.0924078 0.0214678)
(-0.036987 0.0946106 0.00609926)
(-0.0124656 -0.00392336 -0.00141493)
(-0.0182263 -0.00595233 0.00324211)
(-0.00554105 0.0297533 0.0170527)
(-0.00290756 -0.00774136 -0.00224563)
(-0.00318519 0.0604557 0.028323)
(-0.00254256 0.0511289 0.0247483)
(0.00278546 9.33459e-05 0.00319302)
(-0.00963585 0.0362564 0.0187508)
(0.0311631 -0.0325664 -0.0487112)
(0.00248172 0.0222735 -0.107328)
(-0.0389162 -0.0293768 0.0244577)
(0.0269262 -0.0266796 -0.0264807)
(0.00505084 -0.0500429 0.00205256)
(-0.0116158 -0.0387606 0.049578)
(0.0712866 0.0414815 -0.102749)
(0.0181479 -0.0576037 0.0096918)
(-0.0318578 -0.0388277 0.0344325)
(-0.0242295 -0.00513094 0.0416244)
(0.00145052 -0.0154244 0.0530336)
(0.00133792 -0.0283211 0.0468748)
(0.00590673 0.0056921 0.0366719)
(-0.00700013 0.00193206 0.0250064)
(0.00517423 0.0060955 0.0213139)
(0.02529 -0.0104585 -0.101241)
(0.00638909 0.0110879 -0.0869906)
(0.0367534 -0.012811 -0.0747732)
(0.0432525 -0.0187784 -0.0874967)
(0.0535707 -0.00743622 -0.0562327)
(0.0187208 0.000385957 -0.128921)
(0.021023 0.0236091 -0.116906)
(0.00800633 0.00806654 -0.0735181)
(0.0263082 0.0163534 -0.0487172)
(0.00539651 0.00248162 0.0344536)
(0.0344183 -0.0484664 0.0745644)
(0.0236966 -0.0174141 0.07641)
(0.00722499 0.00386807 0.0554252)
(0.00755097 0.00773191 0.0381209)
(0.0259871 -0.0220162 0.0967503)
(0.0154714 -0.00864408 0.104803)
(0.00538927 -0.00780477 0.0596007)
(0.000578375 -0.00486699 0.0848427)
(0.0307534 -0.00384904 -0.077918)
(0.0114045 0.049247 -0.0801817)
(0.0108921 0.0513529 -0.0686545)
(0.00967355 0.0248616 -0.0272017)
(0.00170909 0.0549948 -0.00725586)
(0.00461019 0.0597866 0.00315871)
(0.0366 0.0123733 0.0465587)
(0.0103793 0.0358932 0.0640125)
(0.00540239 -0.00536291 0.0788551)
(0.0020081 0.0195368 0.0335401)
(0.00167906 0.0302716 0.0483608)
(0.0220522 0.0719019 -0.0463249)
(0.0382162 0.101061 -0.00683391)
(0.0144214 0.0649288 0.0225519)
(0.0414933 0.0920748 0.0433632)
(0.0432623 0.112365 0.0808952)
(-0.00760027 0.0674657 0.0910334)
(-0.0352258 0.143092 0.0646693)
(-0.0405075 0.090795 0.031104)
(-0.0159487 0.0586083 0.0633819)
(-0.0615714 0.140066 0.0408362)
(0.0476093 0.090729 0.0213207)
(0.0470072 0.0813359 0.0807601)
(0.0855928 0.134515 0.0694902)
(0.044786 0.049452 0.0586369)
(0.0507037 0.0702044 0.0869121)
(0.0595901 0.0940732 0.107807)
(0.0724114 0.130073 0.128499)
(0.0445 0.0473478 0.0912485)
(0.0496651 0.0631221 0.128585)
(-0.089826 0.186241 0.0955212)
(-0.084794 0.156869 0.139719)
(-0.0906248 0.116782 0.0970275)
(-0.0757256 0.185893 0.165883)
(-0.100789 0.159445 0.117764)
(-0.07957 0.12134 0.221648)
(-0.0945312 0.105424 0.158144)
(-0.0835392 0.138044 0.0631286)
(0.0244064 0.0204398 0.0686598)
(0.0302371 0.0249063 0.109472)
(0.00926286 0.0580175 0.113049)
(0.00322437 0.00663163 0.0814432)
(0.0314502 0.044904 0.1434)
(0.0245637 0.0658941 0.182793)
(0.0160292 0.0138932 0.132106)
(-0.0249432 0.0679212 0.118658)
(-0.00580959 0.0143206 0.0886981)
(-0.000510954 0.0682338 0.212253)
(-0.0255256 0.0566556 0.209147)
(0.00233907 0.0154398 0.147625)
(-0.0486474 0.0514263 0.192601)
(-0.0189816 0.0711476 -0.0725313)
(-0.0132814 0.0721021 -0.0414243)
(0.151501 0.017824 0.0112956)
(0.0590596 0.0523709 -0.0950521)
(0.0847672 0.0527909 -0.0469922)
(0.0876689 0.0245315 -0.0731159)
(0.0339044 0.0435923 -0.0755903)
(0.0645354 0.0908548 -0.0831494)
(0.0517619 0.0164462 0.0373706)
(0.0337594 0.0248254 0.0290425)
(0.0701302 0.0115578 -0.05801)
(0.0713343 0.072164 -0.00473579)
(0.0544757 0.0503452 0.0166159)
(0.0170868 0.01308 0.0153787)
(0.0280015 0.0229725 0.00662498)
(-0.0246539 0.0521507 -0.00393695)
(-0.0468157 0.0905416 0.039136)
(-0.00332287 0.0789581 -0.085099)
(-0.0190526 0.0513104 -0.0136844)
(0.0108006 0.0808979 -0.0173559)
(-0.0399039 0.0638182 -0.0234875)
(-0.0266034 0.0969084 -0.0346413)
(-0.04328 0.0918794 0.029086)
(-0.0154193 0.117111 0.0288377)
(0.00939057 0.0128704 0.0276524)
(0.00752996 0.0174984 0.109821)
(0.00336456 0.017161 0.106667)
(0.000221408 0.0358637 0.0612881)
(0.0215177 0.0329307 -0.00858034)
(-0.0309494 0.0201818 0.0829332)
(-0.00907556 0.0349614 0.00271751)
(0.00261338 0.00464056 0.0877702)
(0.00504165 0.0272524 0.0175533)
(-0.0129032 0.0606784 0.0413851)
(-0.00804342 0.0953613 0.0760164)
(-0.0111585 0.0946366 0.0848283)
(-0.0359439 0.120465 0.0972222)
(-0.0172828 0.151929 0.127849)
(-0.0285946 0.171723 0.151906)
(-0.0104609 0.0387462 0.00385757)
(0.00198087 0.0379905 0.0167293)
(-0.00118432 0.0399825 0.00109124)
(-0.0122704 0.0661172 -0.0302845)
(0.003595 0.0492859 -0.0140473)
(0.042026 0.141624 0.143669)
(0.0478804 0.144037 0.151421)
(0.0143545 0.158427 0.151468)
(0.0203576 0.208449 0.189654)
(0.0434078 0.19081 0.187663)
(-0.0192551 0.0602355 0.0196358)
(-0.0701901 0.12116 -0.0119237)
(-0.0575842 0.0827557 -0.0701404)
(-0.0165829 0.0583289 -0.0273742)
(-0.061251 0.0683241 -0.0777584)
(0.0523687 0.110873 0.116899)
(0.0505744 0.151749 0.175407)
(0.0674459 0.125655 0.190922)
(0.0484721 0.0579896 0.12346)
(0.044033 0.0614041 0.167066)
(0.0360743 0.157052 0.207757)
(0.043862 0.146013 0.222531)
(0.0221364 0.0758585 0.195555)
(0.010398 0.0650466 0.213135)
(-0.0884338 0.125258 0.138787)
(-0.0556521 0.0865679 0.294988)
(-0.0730135 0.0794555 0.21203)
(-0.0471988 0.108774 0.280685)
(-0.0873028 0.112601 0.134815)
(-0.0221738 0.0602586 0.333255)
(-0.0487085 0.0637268 0.254053)
(-0.057214 0.0834962 -0.0156405)
(0.0184659 0.0134781 0.14104)
(-0.018328 0.00420472 0.171006)
(0.0324354 0.0446628 0.237594)
(0.0214999 0.00711227 0.201792)
(0.00367188 0.0105307 0.180836)
(0.0262728 0.0307487 0.260285)
(0.023912 0.00770058 0.246278)
(-0.00848086 0.0328641 0.287011)
(0.0125338 0.00539935 0.213449)
(0.0155288 0.0322707 0.326084)
(0.000336398 0.0277705 0.325986)
(0.00868756 0.00690297 0.256863)
(-0.00764351 0.031237 0.303811)
(-0.0152237 0.0466582 -0.0591744)
(-0.02395 0.0309632 -0.105333)
(0.0372554 0.0137272 -0.136946)
(0.0198014 0.0380848 -0.101636)
(0.0392985 0.0713468 -0.129645)
(0.0177359 0.00665014 -0.176119)
(0.0049444 0.0252316 -0.145873)
(0.0224418 0.0399329 -0.180276)
(0.0577275 0.070227 -0.0872198)
(0.0594834 0.0682405 -0.0390495)
(0.0235142 0.00709652 -0.161184)
(0.0356671 0.0501526 -0.16642)
(0.0552761 0.0577599 -0.133727)
(0.0444086 0.0494418 -0.0343885)
(0.0693228 0.0578408 -0.132695)
(-0.0572739 0.111538 0.0457704)
(-0.0562511 0.0987086 0.0285243)
(-0.0391719 0.0957693 -0.0357194)
(-0.0643881 0.122066 0.043819)
(-0.0389512 0.14158 0.0478461)
(-0.0570704 0.0685171 -0.0461961)
(-0.0466744 0.073737 -0.0771461)
(-0.071371 0.113158 0.0130557)
(-0.0652382 0.131335 0.0113769)
(0.0409546 0.0572564 -0.073127)
(-0.0390319 0.0577292 -0.0339469)
(0.00325564 0.0743469 -0.0923897)
(0.079902 0.0800173 -0.160185)
(0.0648441 0.0659325 -0.151078)
(0.0172027 0.088187 -0.106413)
(0.0292817 0.0857052 -0.124131)
(0.0114279 0.0601071 -0.0734921)
(0.030077 0.0757085 -0.110019)
(-0.0508813 0.157457 0.098312)
(-0.0157549 0.16211 0.126762)
(-0.0385703 0.199718 0.15649)
(-0.0584526 0.13555 0.0823493)
(-0.0227291 0.158533 0.143324)
(-0.0444978 0.176432 0.154345)
(-0.015908 0.0876535 -0.0590331)
(0.00191164 0.0597021 -0.0414956)
(0.00821853 0.0985475 -0.0893095)
(-0.0081271 0.116418 -0.0864499)
(0.00680802 0.0758116 -0.05106)
(-0.000103109 0.216873 0.19911)
(0.0312363 0.214631 0.214404)
(-0.0200581 0.194038 0.178896)
(-0.0225935 0.2109 0.192068)
(0.00681712 0.226146 0.225166)
(-0.0169027 0.0581624 -0.0530125)
(-0.0303288 -0.0698889 -0.240716)
(-0.0110165 0.045447 -0.136688)
(-0.00971937 0.0473801 -0.0490704)
(0.034524 -0.187598 -0.349474)
(0.0342694 0.214195 0.220387)
(0 0 0)
(0.0239146 0.171992 0.240107)
(-0.0107912 0.0853579 0.247158)
(-0.0430785 0.0382396 0.239295)
(0 0 0)
(0 0 0)
(0 0 0)
(0 0 0)
(0 0 0)
(0.0400643 0.0750524 0.36509)
(0 0 0)
(0 0 0)
(0 0 0)
(0 0 0)
(0 0 0)
(0.0866763 -0.170004 -0.334859)
(-0.0945273 -0.0235919 0.174254)
(0 0 0)
(0.0222135 0.0346672 0.262474)
(0.0223297 0.018333 0.297439)
(-0.0883885 -0.0280636 -0.400598)
(0.0353027 0.0327159 0.296444)
(0.0557007 0.0330277 0.380919)
(0.0219461 0.0519339 0.357286)
(0.0174691 0.0121893 0.307024)
(0.0490073 0.0647938 0.363792)
(0.11308 0.065667 0.13341)
(0.0272822 0.032173 0.385535)
(0 0 0)
(-0.0120874 0.0185055 -0.143493)
(-0.00848934 -0.00552601 -0.178702)
(0.0125568 0.00590459 -0.210029)
(0.00677207 0.0110984 -0.177445)
(0.0187423 0.0204897 -0.209069)
(0.016966 0.00450825 -0.228989)
(0.0139704 0.00201131 -0.191385)
(0.0196608 0.00638203 -0.223717)
(0.0347403 0.0281607 -0.216135)
(0.0630502 0.0352509 -0.200285)
(0.0296846 0.00797733 -0.235262)
(0.0422108 0.00581744 -0.235534)
(0.0677187 0.0202287 -0.236016)
(0.082155 0.0449606 -0.205695)
(0.0799115 0.0437001 -0.228956)
(-0.0567171 0.0852874 0.0189547)
(0 0 0)
(-0.0337026 0.038185 -0.108539)
(-0.0662654 0.0841602 -0.00716101)
(-0.0763391 0.0865862 -0.0191346)