/*--------------------------------*- C++ -*----------------------------------*\
| =========                 |                                                 |
| \\      /  F ield         | OpenFOAM: The Open Source CFD Toolbox           |
|  \\    /   O peration     | Version:  5.x                                   |
|   \\  /    A nd           | Web:      www.OpenFOAM.org                      |
|    \\/     M anipulation  |                                                 |
\*---------------------------------------------------------------------------*/
FoamFile
{
    version     2.0;
    format      ascii;
    class       volScalarField;
    location    "1.15";
    object      Ksl;
}
// * * * * * * * * * * * * * * * * * * * * * * * * * * * * * * * * * * * * * //

dimensions      [1 -3 -1 0 0 0 0];

internalField   nonuniform List<scalar> 
10571
(
0
83.1588
75.1182
8998.52
12867.8
97.9512
317.788
12381.4
11838.2
12680
10060.3
268.862
6779.73
13663
11780.4
10661.7
100.843
10920.2
13095.6
9767.23
8795.35
11894.1
13001.9
10419
14.7827
44.8922
49.7104
33.7563
1226.05
140.07
49.4396
2376.56
5302.07
9470.79
1361.91
23.9824
3035.15
10703.3
9177.82
12459.1
59.1402
8288.73
12789.9
13279.5
12616.8
687.186
13274.1
13622.6
0
34.071
51.8499
48.8308
1915.41
209.475
145.457
300.962
233.967
64.0961
378.962
389.53
2107.07
2526.06
124.437
130.778
511.293
8903.32
9455.28
8520.74
2129.94
1188.82
9985.89
13148.5
390.725
59.4692
31.3442
63.5675
464.696
48.1771
132.197
181.631
123.657
51.081
72.1434
795.972
1259.02
649.91
20.47
108.697
3138.7
7459.02
3040.17
161.134
-4.17458e-13
747.041
2427.27
10638.1
2115.3
115.595
89.9263
255.75
441.114
80.2445
100.279
158.564
95.8164
59.4742
61.2637
38.3946
646.226
400.16
14.3447
146.724
9433.4
6218.28
742.153
13.971
0
158.364
7191.42
421.682
311.058
159.343
119.936
83.1649
409.665
61.5896
95.6278
330.736
137.997
34.6644
14898.6
120.961
5.96358
347.738
314.87
9.44065
11.447
7969.98
10164.1
2815.22
37.8238
8.08861
0
1355.03
1161.28
0
458.518
728.876
70.4117
271.094
17.4145
19.9621
180.393
440.481
15.8323
9.37207
13.2957
84.0367
3.75454
296.296
49.7358
6.69766
0
0
8632.71
757.444
2.75366
3.26195
0
0
2225.1
8.46942
0.959426
151.998
1895.54
52.1722
228.664
9.7055
9.5379
349.156
28.863
3.69855
9.29005
0
73.0214
0
209.477
3.53717
1.941
0
0
2239.97
212.119
2.27821
3.95987
6.50861
0
133.172
5.23871
0
0
9845.51
432.465
9.62502
15.5386
12.6782
197.661
3.41661
5.0134
13.2912
0
39.7227
15.1779
134.088
2.7905
-6.87415e-14
0
0
253.624
55.9156
2.30848
0
0
831.493
0
0
0
254.255
0.0276716
2.14679
3.99504
12.0591
41.6943
4.40824
2.86218
0
0
1.36274
62.4539
1.88025
0.361243
-3.46142e-13
102.782
39.3332
1.99198
0
0
475.201
0.110208
6.07553
0
4.45587
0
0
6.03289
708.496
13.2609
5.10533
5.57719
-4.65552e-13
403.48
17.4155
34.2335
1.43002
1.14178
0
371.23
41.9529
0
0
-4.23312e-14
256.444
3.77209
0
0
0
3.96596
0
3.78299
33.5003
4.80391
4.08115
1.04495
0
1710.45
242.565
7.49096
1.64258
2.20848
0
275.665
12.0994
1.13666
4.45157
0
32.4622
1.80263
0
0
0
0
0
0
0
2.05328
4.57679
2.05004
0
630.099
154.063
2.49557
0.694022
2.23522
7.22788
116.511
3.16297
0.359034
0
0
6.59816
3.9162
0
0
0
0
0
0
4.42494
0.21795
1.50498
1.95504
0
32.0724
2.08375
0.035855
2.56106
-2.27269e-14
0
36.4827
1.77154
0.685186
0
0
4.96752
0
0
0
7.20382
0
0
0
0
2.37347
1.0017
0
0
0
0
2.11182
2.16693
0
0
12.2959
-2.06192e-14
0.562941
4.5774
0
0
0
0
0
2.49977
0
0
0
0
0.496891
2.93904
0
0
0
0
1.04678
0.536575
1.03034
0
1.28827
0.571942
0.555108
1.42313
0
0
0
-6.59683e-13
0
0
0
0
0
0
-1.1123e-14
0.481279
0
0
0
0
1.04191
1.04387
0.507607
0
3.00038
1.67144
0
0
0
0
0
0
0
0
3.97877
0
0
0
0.507734
0
0
0
0
0
0
0.500889
0
0
3.55579
0.528432
0.531716
0
0
0
0
0
0
0
0
0
0
0
0
0
0
0
0
0
0
0.154191
0
0
3.54318
0.493118
0.514904
0
0
0
0
0
0
0
0
0
0
0
0
0
0
0
0
0
0.966474
0.313018
0
0
0.139624
0
0.169132
0
0
0
0
0
0
0
0
0
0
0
0
0
0
0
0
0
0.4698
0
0.404056
0
0
0.475944
0.308989
0
0
4.90619
0
0
0
0
0
0
0
0
0
0
0
0
0
0
0
0
0
0
0
0.921581
0
0
0
0
0
0
0
0
0
0
0
0
0
0
0
0
0
0
0
0
0
0
0
0
0
0
0
0
0
0
0
0
0
0
0
0
0
0
0
0
0
0
0
0
0
0
0
0
0
0
0
0
0
0
0
0
0
0
0
0
0
0
0
0
0
0
0
0
0
0
0
0
0
0
0
0
0
0
0
0
0
0
0
0
0
0
0
0
0
0
0
0
0
0
0
0
0
0
0
0
0
0
0
0
0
0
0
0
0
0
0
0
0
0
0
0
0
0
0
0
0
0
0
0
0
0
0
0
0
0
0
0
0
0
0
0
0
0
0
0
0
0
0
0
0
0
0
0
0
0
0
0
0
0
0
0
0
0
0
0
0
0
0
0
0
0
0
0
0
0
0
0
0
0
0
0
0
0
0
0
0
0
0
0
0
0
0
0
0
0
0
0
0
0
0
0
0
0
0
0
0
0
0
0
0
0
0
0
0
0
0
0
0
0
0
0
0
0
0
0
0
0
0
0
0
0
0
0
0
0
0
0
0
0
0
0
0
0
0
0
0
0
0
0
0
0
0
0
0
0
0
0
0
0
0
0
0
0
0
0
0
0
0
0
0
0
0
0
0
0
0
0
0
0
0
0
0
0
0
0
0
0
0
0
0
0
0
0
0
0
0
0
0
0
0
0
0
0
0
0
0
0
0
0
0
0
0
0
0
0
0
0
0
0
0
0
0
0
0
0
0
0
0
0
0
0
0
0
0
0
0
0
0
0
0
0
0
0
0
0
0
0
0
0
0
0
0
0
0
0
0
0
0
0
0
0
0
0
0
0
0
0
0
0
0
0
0
0
0
0
0
0
0
0
0
0
0
0
0
0
0
0
0
0
0
0
0
0
0
0
0
0
0
0
0
0
0
0
0
0
0
0
0
0
0
0
0
0
0
0
0
0
0
0
0
0
0
0
0
0
0
0
0
0
0
0
0
0
0
0
0
0
0
0
0
0
0
0
0
0
0
0
0
0
0
0
0
0
0
0
0
0
0
0
0
0
0
0
0
0
0
0
0
0
0
0
0
0
0
0
0
0
0
0
0
0
0
0
0
0
0
0
0
0
0
0
0
0
0
0
0
0
0
0
0
0
0
0
0
0
0
0
0
0
0
0
0
0
0
0
0
0
0
0
0
0
0
0
0
0
0
0
0
0
0
0
0
0
0
0
0
0
0
0
0
0
0
0
0
0
0
0
0
0
0
0
0
0
0
0
0
0
0
0
0
0
0
0
0
0
0
0
0
0
0
0
0
0
0
0
0
0
0
0
0
0
0
0
0
0
0
0
0
0
0
0
0
0
0
0
0
0
0
0
0
0
0
0
0
0
0
0
0
0
0
0
0
0
0
0
0
0
0
0
0
0
0
0
0
0
0
0
0
0
0
0
0
0
0
0
0
0
0
0
0
0
0
0
0
0
0
0
0
0
0
0
0
0
0
0
0
0
0
0
0
0
0
0
0
0
0
0
0
0
0
0
0
0
0
0
0
0
0
0
0
0
0
0
0
0
0
0
0
0
0
0
0
0
0
0
0
0
0
0
0
0
0
0
0
0
0
0
0
0
0
0
0
0
0
0
0
0
0
0
0
0
0
0
0
0
0
0
0
0
0
0
0
0
0
0
0
0
0
0
0
0
0
0
0
0
0
0
0
0
0
0
0
0
0
0
0
0
0
0
0
0
0
0
0
0
0
0
0
0
0
0
0
0
0
0
0
0
0
0
0
0
0
0
0
0
0
0
0
0
0
0
0
0
0
0
0
0
0
0
0
0
0
0
0
0
0
0
0
0
0
0
0
0
0
0
0
0
0
0
0
0
0
0
0
0
0
0
0
0
0
0
0
0
0
0
0
0
0
0
0
0
0
0
0
0
0
0
0
0
0
0
0
0
0
0
0
0
0
0
0
0
0
0
0
0
0
0
0
0
0
0
0
0
0
0
0
0
0
0
0
0
0
0
0
0
0
0
0
0
0
0
0
0
0
0
0
0
0
0
0
0
0
0
0
0
0
0
0
0
0
0
0
0
0
0
0
0
0
0
0
0
0
0
0
0
0
0
0
0
0
0
0
0
0
0
0
0
0
0
0
0
0
0
0
0
0
0
0
0
0
0
0
0
0
0
0
0
0
0
0
0
0
0
0
0
0
0
0
0
0
0
0
0
0
0
0
0
0
0
0
0
0
0
0
0
0
0
0
0
0
0
0
0
0
0
0
0
0
0
0
0
0
0
0
0
0
0
0
0
0
0
0
0
0
0
0
0
0
0
0
0
0
0
0
0
0
0
0
0
0
0
0
0
0
0
0
0
0
0
0
0
0
0
0
0
0
0
0
0
0
0
0
0
0
0
0
0
0
0
0
0
0
0
0
0
0
0
0
0
0
0
0
0
0
0
0
0
0
0
0
0
0
0
0
0
0
0
0
0
0
0
0
0
0
0
0
0
0
0
0
0
0
0
0
0
0
0
0
0
0
0
0
0
0
0
0
0
0
0
0
0
0
0
0
0
0
0
0
0
0
0
0
0
0
0
0
0
0
0
0
0
0
0
0
0
0
0
0
0
0
0
0
0
0
0
0
0
0
0
0
0
0
0
0
0
0
0
0
0
0
0
0
0
0
0
0
0
0
0
0
0
0
0
0
0
0
0
0
0
0
0
0
0
0
0
0
0
0
0
0
0
0
0
0
0
0
0
0
0
0
0
0
0
0
0
0
0
0
0
0
0
0
0
0
0
0
0
0
0
0
0
0
0
0
0
0
0
0
0
0
0
0
0
0
0
0
0
0
0
0
0
0
0
0
0
0
0
0
0
0
0
0
0
0
0
0
0
0
0
0
0
0
0
0
0
0
0
0
0
0
0
0
0
0
0
0
0
0
0
0
0
0
7506
2353.88
3616.72
4090.2
3973.96
9784.83
9593.15
8877.38
5301.93
7375.99
5458.59
4360.5
2310.95
4551.64
8121.27
6888.34
11168.3
9708.94
7364.28
9252.03
6238.63
9323.16
9788.85
7580.38
10012.3
10352.4
4602.05
10373.8
8560.77
2673.86
3926.61
4674.07
8194.94
8984.01
10797.2
11376
11310.9
10046.4
8309.8
10328.5
7877.39
7183.64
9206.88
7083.11
7532.12
10301.5
9371.05
8662.93
9552.59
9743.99
10309.4
7360.94
9488.58
6669.32
7740.36
11433.5
11458.7
11289
11038.7
9406.73
7335.16
8435.04
6777.51
5971.87
5063.52
4845.24
5399.51
5148.16
7298.75
5083.34
11221.5
4890.2
6805.92
8644.08
8748.11
11715.2
11575.2
11864.5
11846.5
8643.48
5488.52
7886.63
5360.96
4239.62
4684.85
4842.72
5763.79
6026.29
11993.6
11471.5
11603.2
10805.2
8300.77
6443.22
9070.13
5870.36
61.9293
43.0062
0
20.9892
47.0108
0
6.23191
2.90106
1687.43
9304.5
0
209.465
2700.95
11989.7
4751.2
130.583
81.3144
94.0421
139.56
116.141
37.3773
46.4619
97.3468
56.5267
12817.7
12253.9
12180.3
6666.77
12457.2
11726.9
12340.5
12349.7
12506.3
138.191
2529.91
1027.19
72.1118
99.3751
131.438
12505.9
11527.7
11829.4
13009.1
11200.5
6253.33
5532.26
2699.33
1634.51
2137.72
11379
9030.17
13396.9
11445.7
12131
1244.12
333.409
445.993
258.634
849.7
41.7224
619.331
88.9731
180.644
9235.6
9783.09
8782.88
13047.5
12967.7
12613.6
13286.3
13352.6
4127.55
217.632
14245.8
13247
4568.61
11988.8
11398
11332.4
13814.2
13825.8
12700
13984.1
13086
32.532
20.1274
1.32323
5.20047
13.2892
0
28.8403
25.048
8.02251
40.2378
0
5.63028
20.0306
64.6121
136.565
161.817
148.246
86.0946
68.2498
76.8745
21.8321
94.3969
151.789
108.04
10812.6
5305.51
11803.3
860.675
5028.68
889.335
1511.2
10896.5
820.745
155.022
89.3136
163.284
125.198
158.349
264.59
11757.9
7535.2
329.064
668.939
1366.59
1306.39
3001.98
703.333
1325.67
4008.41
8291.74
10886.7
2938.14
2652.54
6667.46
693.087
1662.53
934.184
94.83
390.698
228.046
2486.95
86.1112
1108.54
13210.1
12840.2
13217.6
12457.5
12443.5
12896.9
12628.7
10599.8
65.2411
139.384
8453.83
7476.96
902.958
6909.07
4893.23
12669.4
13013.2
12504.7
12009.3
11986.9
13432.9
18.9602
63.6185
0
41.6074
25.6364
0
39.8439
13.1277
17.8175
210.027
0
35.5192
1022.11
2893.93
5232.61
157.912
70.1458
108.111
94.7887
113.232
13.2272
101.064
104.57
81.9808
626.284
702.751
134.059
1302.59
237.154
464.738
97.4789
23.7389
74.9021
161.939
92.9199
295.408
126.951
167.774
293.135
100.288
25.2589
37.5696
132.127
18.4938
1557.47
4979.7
103.717
1025.99
5902.91
35.957
133.438
100.172
37.5459
14.9969
2494.35
4540.26
2848.12
150.821
1453.5
1183.89
4440.96
239.016
2037.93
5360.68
12063.7
10672.5
1271.18
248.558
10185.9
5165.5
18.5421
192.767
157.199
3457.65
735.926
1137.3
1562.59
110.381
11440.7
3429.33
4568.01
10826.1
219.397
12469.7
52.9399
174.893
529.036
163.283
163.39
1586.27
405.125
429.154
258.943
1325.04
1110.6
1217.31
655.758
993.945
382.929
65.5934
76.1607
104.132
73.3964
140.302
83.4352
79.5266
88.5893
197.484
263.004
388.276
120.231
402.67
162.819
409.795
152.237
89.3932
46.0632
58.1512
172.028
118.064
46.509
263.332
45.7835
156.221
58.0891
42.7376
112.946
120.406
572.558
7093.98
96.511
172.393
6005.14
31.8225
10.0779
157.132
95.1352
15.2792
7353
8718
6682.81
731.826
2545.01
7523.32
8426.58
2493.25
2995.67
6.35884
4397.96
205.054
16.1329
5.11098
576.891
8.94649
0
154.331
100.261
615.625
15.9544
305.11
371.737
31.9648
9623.23
41.631
3950.74
8584.62
277.574
6074.18
270.962
354.321
1896.44
521.999
683.052
2834.2
723.193
662.922
810.047
324.596
1193.27
201.258
259.561
456.685
486.81
113.895
28.9833
114.012
72.0994
109.644
137.396
159.769
87.9079
124.177
161.462
566.541
112.215
642.163
89.3159
721.716
106.714
45.2687
8.14464
51.6818
270.616
19.4125
63.3342
201.47
48.8839
153.583
151.781
37.8739
175.519
433.665
32.1694
3313.16
175.67
23.6977
1638.81
153.261
1.55241
81.5849
455.937
14.6991
9978.17
11303.3
9050.45
7456.21
4613.68
10111.8
9100.91
9855.2
6497.29
-8.26815e-14
29.1533
10.6939
4.97424
0
11.0223
7.85058
0
31.1766
66.4202
880.539
356.128
128.147
3336.19
3695.27
6811.09
2332.9
7642.22
761.151
6980.32
4.93082
451.955
1001.26
1485.29
798.233
417.39
732.049
907.504
234.376
119.882
587.194
398.073
177.28
1091.14
504.034
88.7891
53.931
131.598
194.664
127.288
77.0046
337.688
234.037
167.644
64.4533
63.8112
818.437
26.6389
115.7
19.9968
388.16
12.542
8.35239
0
39.6752
85.4792
25.9894
63.2548
133.786
39.0396
1768.1
67.7773
2438.32
22.4236
127.464
13.1579
18.8408
21620
8907.56
18895
2825.6
60556.9
1129.02
7106.39
26.2779
534.058
106.552
21.9412
179.259
1613.64
5.45502
594.77
0
4.4514
0.24484
1.94492
14774.5
18558.1
31815.1
517.082
5755.58
245.836
7142.41
25513.7
44062.1
9363.25
10427.6
8393.82
9958.01
8298.17
10516.6
9591.52
0
10.0719
0
4.21506
4.33258
8.06389
0
0
371.826
2674.2
6972.18
6839.84
4827.5
1225.15
790.297
6.85645
2317.04
5.97473
11.2884
19.487
3.28829
1863.66
2285.49
615.565
759.198
205.822
1009.95
484.072
186.013
220.541
139.098
853.603
450.262
19.6812
14.2577
5.68771
339.602
215.614
528.347
315.494
72.493
919.43
631.401
363.499
83.1568
9.92504
71.3346
23.1948
9.07078
13.4167
22.7968
26.9555
7.20183
-6.51734e-13
7.97098
0
0.393638
50.9817
0
0
55.702
100.929
21.2143
50.4961
120.878
5.46624
9.46117
5.21664
3.91124
5.07125
0.480711
0
8.24968
323.112
0
6.11468
0
0
0
0
21.281
50.8217
54.2762
41.8177
37.655
0
0
0
0.0923378
3.69091
0
0
0
0
7.2816
0
0
0
0
11480.4
3404.73
5783.9
12488.2
9927.67
5783.25
3066.88
16193.4
11423.8
0
0.186166
0
13.5637
0
0
0
0
0
0
0
0
0
9426.74
8907.01
29.7575
24.3477
383.144
6.31828
0
6.9816
0
5.37476
0
0
0
2554.82
3981.39
587.938
381.367
497.539
62.743
601.898
362.148
189.786
8.49072
0
2.09025
5.08936
11.7034
2.93003
234.205
141.614
537.21
273.353
46.5867
5930.88
755.5
248.308
52.1656
22.3339
20.7697
12.6178
15.6294
12.7967
20.831
12.491
25.4581
5.65834
18.7202
0
0
0
0
0
41.2861
49.6901
10.8931
69.7306
23.378
16.1647
0
0
-3.80546e-13
24.7557
3.50993
5.11599
0
0
0
0
0
0
0
0
16.1359
21.262
80.5514
15.9135
21.1888
0
0
0
0
0
0
0
0
0
0
0
0
0
0
814.145
334.835
751.267
16872.9
17605.6
740.862
180.372
18848.1
10289.1
0.141736
0
0
5.8184
0
0
0
0
0
0
0
0
0
10074.5
9321.51
26.6251
24.0219
301.403
24.2091
-4.95542e-13
0
0
7.85545
0
3.87223
0
2499.76
95.1166
12.9432
325.988
10.094
0
4.49943
0.249345
4.89066
4.89545
0
4.09195
5.12603
0
9.98203
202.254
298.939
2647.41
337.407
84.0874
3853.52
520.806
524.177
993.269
7.24237
4.0491
16.053
7.79047
7.87801
16.5939
7.87277
0
7.9691
13.6407
-4.23049e-14
10.5657
56.0256
0
8.55836
0
8.86818
2.33481
6.23611
0
8.62588
0
0
0
0
0
0
0
0
14.8888
11.7627
40.2363
10.8249
12.5335
4.64242
0
0
4.37637
0
0
0
0
0
0
0
0
0
0
255.765
253.143
40.8507
17823.5
2862.19
113.557
32.2116
9254.4
943.276
0
0
0
0
0
0
0
0
49893.2
39402.1
41.3061
18.3976
705.759
49.8316
8.1536
0
6.80415
1.90444
0
13.4266
0
5.95774
0
0
0
6.69622
0
0
0
4.15968
7.31553
0
0
5.58352
9.97661
0
570.776
1418.39
20.8435
773.868
729.37
33.0156
4.64977
866.967
157.68
7.4902
4.54894
3.96862
9.52666
9.12898
8.33877
2.03741
0
0
136.459
-6.31272e-13
51.7038
334.403
116.978
57.5979
4.55226
0
11.1756
2.90542
14.4207
4.73914
0.531967
18.0534
6.27631
50.078
0
0
4.49788
0
0
359.402
610.864
53.9632
3781.06
575.067
185.09
71.1524
2715.51
481.083
0
0
0
2.05171
0
3.79328
0
9.73041
25834.2
6222.83
33.6693
44.9099
443.517
52.3203
12.1955
1.92264
-1.16262e-12
0
4.37034
0
0
0
0
0
0
0
0
4.40238
0
4.20019
0
0
4.13785
0
0
0
1425.8
100.721
2.41615
129.938
7.62846
0
0
8.85917
3.78527
2.36505
4.31129
9.63943
0
11.8666
12.2468
10.7571
0
0
882.486
728.828
219.077
995.663
676.061
458.872
4.10253
-9.43708e-13
4.72917
-2.80674e-13
0
68.8845
362.394
839.449
179.112
755.336
0
0
0
0
0
1400.69
1442.49
196.38
2202.35
454.871
526.766
236.046
1439.3
308.976
0
0
0
4.49385
0
0
0
0
2480.74
614.7
11.2982
25.6268
103.267
7.83138
0
1.56225
0
3.88776
0
0
0
0
0
0
0
0
0
0
0
0.150341
0
0
0
0.177171
0
0
16.9847
6.04972
-2.61116e-13
5.86755
0
10.5491
0
0
-2.44865e-13
0
4.09276
0.133792
0
0
3.99105
0
0
0
186.522
2039.83
695.85
16.4779
901.536
361.277
7.30735
12.3847
0
0
0
463.052
1041.77
2227.61
614.639
283.69
0
4.91374
4.11999
0
5.36731
396.394
140.42
108.477
465.868
142.739
155.354
25.6652
156.253
97.2803
0.278454
0
7.0794
0
0
0
0
0.282381
255.832
125.398
3.85293
0
13.2359
0
0
0
0
2.56402
0
0
0
0
0
0
0
0
0
0
0
0
5.50529
0
0
0
0
0
8.32774
0
3.94321
0
3.58822
0
0
0
0
0
3.8837
0
0
0
0
0
0
0
4.27383
60.6396
50.2369
3.39965
37.8822
17.6237
1.04723
0
0
2.69699
0
485.407
123.017
50.4606
83.8855
43.4313
-5.64225e-14
4.66317
-2.61813e-13
0
4.77547
53.5817
19.8547
36.9231
54.6577
61.2613
54.112
10.2019
55.5586
20.2003
0
0
0
1.70676
0
0
0
0
36.8076
2.08672
2.50563
13.8049
4.95693
3.81732
0
0
0
0
0
0
0
0
0
0
0
0
0
0
0
0
0
0
0
0
0
0
0
0
0
0
0.186266
0
0
0
0
0
0
0
0
0
0
0
0
0
0
0
0.690549
0
0
0
3.30504
0
4.00516
0
0
8.57628
0.790086
0
3.214
0
0
4.57664
0
0
0
0
7.50071
6.97102
4.64727
13.3051
2.48227
5.73994
0
1.12266
0
0
0
0
0
0
0
0
16.2594
6.62242
0
0
0
0
0
0
0
0
0
0
0
0
0
0
0
0
0
0
0
0
0
0
0
0
0
0
0
9.01316
0.12998
0
0
0
0
3.99635
0
0
0
0
0
0
0
0
0
0
0
0
0
0
0
0
0
0
0
0
0
3.02029
0
3.56974
2.81226
4.31447
0
0
0
0
0
5.47587
0
4.85803
0
0
2.77104
-3.5208e-13
0
0
0
0
0
0
0
0
0
0
18.3323
0
3.94341
0
0
0
0
0
0
0
0
0
9.11627
0
0
0
0
0
0
0
0
0
0
0
0
0
0
0
0
0
0.325879
2.34494
0.303334
-7.33333e-13
4.06545
0
0
0
0
0
0
0
0
0
0
0
0
0
3.41983
0
0
0
0
0
0
0
0
0
0.306252
11.2135
3.39506
0
0
0
0
0
0
8.04514
-3.19172e-14
0
0
0
0
0
0
0
0.153213
0
0
2.75094
0
0
0
0
0
0
0
0
0
0
0
0
0
0
0
0
0
0
0
0
0
0
0
0
0
0
0
0
0
0
0
0
0
0
0
0
0
0
0
0
0
0
0
0
0
0
0
0
0
0
0
0
0
0
0
0
0
0
0
0
0
6.98944
0
6.98814
1.17568
0
0
0
0
0
0
8.19098
0
0
4.89997
9.28535
4.69069
0
2.65767
0.149114
0
0
0
0
0
0
0
0
5.94758
0
0
0
0
0
0
0
0
0
0
0
0
0
0
0
0
0
0
0
0
0
0
0
0
0
0
0
0
0
0
0
0
0
0
0
0
0
0
0
0
0
0
0
0
0
0
0
0
0
0
0
0
0
0
0
0
0.884584
0
0
2.81471
0
0
0
0
0
0
0
0
0
0
2.78562
3.49135
0.122523
0
7.77692
0
0
0
0
0
0
0
0
2.63018
0
0
0
0
0
0
0
0
0
0
0
0
0
0
0
0
0
0
0
0
0
0
0
0
0
0
0
0
0
0
0
0
0
0
0
0
0
0
0
0
0
0
0
0
0
5.20661
0
0
0
0
0
0
0
0
0
0
0
0
0
0
0
0
0
0
0
0
0
0
3.99621
0
3.71055
6.58873
3.90997
0
0
0
0
0
0
0
0
0
0
0
0
0
0
0
0
0
0
0
0
0
0
0
0
0
0
0
0
0
0
0
0
0
0
0
0
0
0
0
0
0
0
0
0
0
0
0
0
0
0
3.39497
0
0
0
0
0
0
0
0
0
0
0
0
0
0
0
0
0
0
0
0
0
0
0
0
0
0
0
0
1.55625
8.34691
1.17672
3.21211
3.78345
6.20436
2.5768
0
0
0
0
0
0
0
0
15.5416
0
0
0
0
0
0
0
0
0
0
0
0
0
0
0
0
0
0
0
0
0
0
0
0
0
0
0
0
0
0
0
0
0
0
0
0
0
0
0
0
0
0
0
0
0
0
0
0
0
0
0
0
0
0
0
0
0
0
0
0
0
0
0
0
0
0
0
0
0
0
0
0
0
0
0
0
0
0
0
0
0
0
0
0
0
0
0
0
0
0
0
0
0
0
0
0
0
0
0
0
0
0
0
0
0
0
0
0
0
0
0
0
0
0
0
0
0
0
0
0
0
0
0
0
0
0
0
0
0
0
0
0
0
0
0
0
0
0
0
0
0
0
0
0
0
0
0
0
0
0
0
0
0
0
3.39806
0.20484
3.33374
0
3.35193
0
0
0
0
0
0
0
0
0
0
0
0
0
0
0
0
0
0
0
0
0
0
0
0
0
0
0
0
0
0
0
0
0
0
0
0
0
0
0
0
0
0
0
0
0
0
0
0
0
0
0
0
0
0
0
0
0
0
0
0
0
0
0
0
0
0
0
0
0
0
0
0
0
0
0
0
0
0
0
0
0
0
0
0
0
0
0
0
0
0
0
0
4.93179
3.00732
0
0
0
0
0
0
0
0
0
0
0
0
0
0
0
0
0
0
0
0
0
0
0
0
0
0
0
0
0
0
0
0
0
0
0
0
0
0
0
0
0
0
0
0
0
0
0
0
0
0
0
0
0
0
0
0
0
0
0
0
0
0
0
0
0
0
0
0
0
0
3.72005
0
0
2.24338
0
0
0
0
0
0
0
0
0
3.29597
0
0
0
0
0
0
0
0
0
0
0
0
0
0
0
0
0
0
0
0
0
0
0
0
0
0
0
0
0
0
0
0
0
0
0
0
0
0
0
0
0
0
0
0
0
0
0
0
0
0
0
0
0
0
0
0
0
0
0
0
0
0
0
0
0
0
0
0
0
0
0
0
0
0
0
0
0
0
0
0
0
0
0
0
0
10.1167
0
0
0
0
0
0
0
0
0
0
0
0
0
0
0
0
0
0
0
0
0
0
0
0
0
0
0
0
0
0
0
0
0
0
0
0
0
0
0
0
0
0
0
0
0
0
0
0
0
0
0
0
0
0
0
0
0
0
0
0
0
0
0
0
0
0
0
0
0
0
0
0
0
0
0
0
0
0
0
0
0
0
0
0
0
0
0
0
0
0
0
0
0
0
0
0
0
0
0
0
0
0
0
0
0
0
0
0
0
0
0
0
0
0
0
0
0
0
0
0
0
0
0
0
0
0
0
0
0
0
0
0
0
0
0
0
0
0
0
0
0
0
0
0
0
0
0
0
0
0
0
0
0
0
0
0
0
0
0
0
0
0
0
0
0
0
0
0
0
0
0
0
0
0
0
0
0
0
0
0
0
0
0
0
0
0
0
0
0
0
0
0
0
0
0
0
0
0
0
0
0
0
0
0
0
0
0
0
0
0
0
0
0
0
0
0
0
0
0
0
0
0
0
0
0
0
0
0
0
0
0
0
0
0
0
0
0
0
0
0
0
0
0
0
0
0
0
0
0
0
0
0
0
0
0
0
0
0
0
0
0
0
0
0
0
0
0
0
0
0
0
0
0
0
0
0
0
0
0
0
0
0
0
0
0
0
0
0
0
0
0
0
0
0
0
0
0
0
0
0
0
0
0
0
0
0
0
0
0
0
0
0
0
0
0
0
0
0
0
0
0
0
0
0
0
0
0
0
0
0
0
0
0
0
0
0
0
0
0
0
0
0
0
0
0
0
0
0
0
0
0
0
0
0
0
0
0
0
0
0
0
0
0
0
0
0
0
0
0
0
0
0
0
0
0
0
0
0
0
0
0
0
0
0
0
0
0
0
0
0
0
0
0
0
0
0
0
0
0
0
0
0
0
0
0
0
0
0
0
0
0
0
0
0
0
0
0
0
0
0
0
0
0
0
0
0
0
0
0
0
0
0
0
0
0
0
0
0
0
0
0
0
0
0
0
0
0
0
0
0
0
0
0
0
0
0
0
0
0
0
0
0
0
0
0
0
0
0
0
0
0
0
0
0
0
0
0
0
0
0
0
0
0
0
0
0
0
0
0
0
0
0
0
0
0
0
0
0
0
0
0
0
0
0
0
0
0
0
0
0
0
0
0
0
0
0
0
0
0
0
0
0
0
0
0
0
0
0
0
0
0
0
0
0
0
0
0
0
0
0
0
0
0
0
0
0
0
0
0
0
0
0
0
0
0
0
0
0
0
0
0
0
0
0
0
0
0
0
0
0
0
0
0
0
0
0
0
0
0
0
0
0
0
0
0
0
0
0
0
0
0
0
0
0
0
0
0
0
0
0
0
0
0
0
0
0
0
0
0
0
0
0
0
0
0
0
0
0
0
0
0
0
0
0
0
0
0
0
0
0
0
0
0
0
0
0
0
0
0
0
0
0
0
0
0
0
0
0
0
0
0
0
0
0
0
0
0
0
0
0
0
0
0
0
0
0
0
0
0
0
0
0
0
0
0
0
0
0
0
0
0
0
0
0
0
0
0
0
0
0
0
0
0
0
0
0
0
0
0
0
0
0
0
0
0
0
0
0
0
0
0
0
0
0
0
0
0
0
0
0
0
0
0
0
0
0
0
0
0
0
0
0
0
0
0
0
0
0
0
0
0
0
0
0
0
0
0
0
0
0
0
0
0
0
0
0
0
0
0
0
0
0
0
0
0
0
0
0
0
0
0
0
0
0
0
0
0
0
0
0
0
0
0
0
0
0
0
0
0
0
0
0
0
0
0
0
0
0
0
0
0
0
0
0
0
0
0
0
0
0
0
0
0
0
0
0
0
0
0
0
0
0
0
0
0
0
0
0
0
0
0
0
0
0
0
0
0
0
0
0
0
0
0
0
0
0
0
0
0
0
0
0
0
0
0
0
0
0
0
0
0
0
0
0
0
0
0
0
0
0
0
0
0
0
0
0
0
0
0
0
0
0
0
0
0
0
0
0
0
0
0
0
0
0
0
0
0
0
0
0
0
0
0
0
0
0
0
0
0
0
0
0
0
0
0
0
0
0
0
0
0
0
0
0
0
0
0
0
0
0
0
0
0
0
0
0
0
0
0
0
0
0
0
0
0
0
0
0
0
0
0
0
0
0
0
0
0
0
0
0
0
0
0
0
0
0
0
0
0
0
0
0
0
0
0
0
0
0
0
0
0
0
0
0
0
0
0
0
0
0
0
0
0
0
0
0
0
0
0
0
0
0
0
0
0
0
0
0
0
0
0
0
0
0
0
0
0
0
0
0
0
0
0
0
0
0
0
0
0
0
0
0
0
0
0
0
0
0
0
0
0
0
0
0
0
0
0
0
0
0
0
0
0
0
0
0
0
0
0
0
0
0
0
0
0
0
0
0
0
0
0
0
0
0
0
0
0
0
0
0
0
0
0
0
0
0
0
0
0
0
0
0
0
0
0
0
0
0
0
0
0
0
0
0
0
0
0
0
0
0
0
0
0
0
0
0
0
0
0
0
0
0
0
0
0
0
0
0
0
0
0
0
0
0
0
0
0
0
0
0
0
0
0
0
0
0
0
0
0
0
0
0
0
0
0
0
0
0
0
0
0
0
0
0
0
0
0
0
0
0
0
0
0
0
0
0
0
0
0
0
0
0
0
0
0
0
0
0
0
0
0
0
0
0
0
0
0
0
0
0
0
0
0
0
0
0
0
0
0
0
0
0
0
0
0
0
0
0
0
0
0
0
0
0
0
0
0
0
0
0
0
0
0
0
0
0
0
0
0
0
0
0
0
0
0
0
0
0
0
0
0
0
0
0
0
0
0
0
0
0
0
0
0
0
0
0
0
0
0
0
0
0
0
0
0
0
0
0
0
0
0
0
0
0
0
0
0
0
0
0
0
0
0
0
0
0
0
0
0
0
0
0
0
0
0
0
0
0
0
0
0
0
0
0
0
0
0
0
0
0
0
0
0
0
0
0
0
0
0
0
0
0
0
0
0
0
0
0
0
0
0
0
0
0
0
0
0
0
0
0
0
0
0
0
0
0
0
0
0
0
0
0
0
0
0
0
0
0
0
0
0
0
0
0
0
0
0
0
0
0
0
0
0
0
0
0
0
0
0
0
0
0
0
0
0
0
0
0
0
0
0
0
0
0
0
0
0
0
0
0
0
0
0
0
0
0
0
0
0
0
0
0
0
0
0
0
0
0
0
0
0
0
0
0
0
0
0
0
0
0
0
0
0
0
0
0
0
0
0
0
0
0
0
0
0
0
0
0
0
0
0
0
0
0
0
0
0
0
0
0
0
0
0
0
0
0
0
0
0
0
0
0
0
0
0
0
0
0
0
0
0
0
0
0
0
0
0
0
0
0
0
0
0
0
0
0
0
0
0
0
0
0
0
0
0
0
0
0
0
0
0
0
0
0
0
0
0
0
0
0
0
0
0
0
0
0
0
0
0
0
0
0
0
0
0
0
0
0
0
0
0
0
0
0
0
0
0
0
0
0
0
0
0
0
0
0
0
0
0
0
0
0
0
0
0
0
0
0
0
0
0
0
0
0
0
0
0
0
0
0
0
0
0
0
0
0
0
0
0
0
0
0
0
0
0
0
0
0
0
0
0
0
0
0
0
0
0
0
0
0
0
0
0
0
0
0
0
0
0
0
0
0
0
0
0
0
0
0
0
0
0
0
0
0
0
0
0
0
0
0
0
0
0
0
0
0
0
0
0
0
0
0
0
0
0
0
0
0
0
0
0
0
0
0
0
0
0
0
0
0
0
0
0
0
0
0
0
0
0
0
0
0
0
0
0
0
0
0
0
0
0
0
0
0
0
0
0
0
0
0
0
0
0
0
0
0
0
0
0
0
0
0
0
0
0
0
0
0
0
0
0
0
0
0
0
0
0
0
0
0
0
0
0
0
0
0
0
0
0
0
0
0
0
0
0
0
0
0
0
0
0
0
0
0
0
0
0
0
0
0
0
0
0
0
0
0
0
0
0
0
0
0
0
0
0
0
0
0
0
0
0
0
0
0
0
0
0
0
0
0
0
0
0
0
0
0
0
0
0
0
0
0
0
0
0
0
0
0
0
0
0
0
0
0
0
0
0
0
0
0
0
0
0
0
0
0
0
0
0
0
0
0
0
0
0
0
0
0
0
0
0
0
0
0
0
0
0
0
0
0
0
0
0
0
0
0
0
0
0
0
0
0
0
0
0
0
0
0
0
0
0
0
0
0
0
0
0
0
0
0
0
0
0
0
0
0
0
0
0
0
0
0
0
0
0
0
0
0
0
0
0
0
0
0
0
0
0
0
0
0
0
0
0
0
0
0
0
0
0
0
0
0
0
0
0
0
0
0
0
0
0
0
0
0
0
0
0
0
0
0
0
0
0
0
0
0
0
0
0
0
0
0
0
0
0
0
0
0
0
0
0
0
0
0
0
0
0
0
0
0
0
0
0
0
0
0
0
0
0
0
0
0
0
0
0
0
0
0
0
0
0
0
0
0
0
0
0
0
0
0
0
0
0
0
0
0
0
0
0
0
0
0
0
0
0
0
0
0
0
0
0
0
0
0
0
0
0
0
0
0
0
0
0
0
0
0
0
0
0
0
0
0
0
0
0
0
0
0
0
0
0
0
0
0
0
0
0
0
0
0
0
0
0
0
0
0
0
0
0
0
0
0
0
0
0
0
0
0
0
0
0
0
0
0
0
0
0
0
0
0
0
0
0
0
0
0
0
0
0
0
0
0
0
0
0
0
0
0
0
0
0
0
0
0
0
0
0
0
0
0
0
0
0
0
0
0
0
0
0
0
0
0
0
0
0
0
0
0
0
0
0
0
0
0
0
0
0
0
0
0
0
0
0
0
0
0
0
0
0
0
0
0
0
0
0
0
0
0
0
0
0
0
0
0
0
0
0
0
0
0
0
0
0
0
0
0
0
0
0
0
0
0
0
0
0
0
0
0
0
0
0
0
0
0
0
0
0
0
0
0
0
0
0
0
0
0
0
0
0
0
0
0
0
0
0
0
0
0
0
0
0
0
0
0
0
0
0
0
0
0
0
0
0
0
0
0
0
0
0
0
0
0
0
0
0
0
0
0
0
0
0
0
0
0
0
0
0
0
0
0
0
0
0
0
0
0
0
0
0
0
0
0
0
0
0
0
0
0
0
0
0
0
0
0
0
0
0
0
0
0
0
0
0
0
0
0
0
0
0
0
0
0
0
0
0
0
0
0
0
0
0
0
0
0
0
0
0
0
0
0
0
0
0
0
0
0
0
0
0
0
0
0
0
0
0
0
0
0
0
0
0
0
0
0
0
0
0
0
0
0
0
0
0
0
0
0
0
0
0
0
0
0
0
0
0
0
0
0
0
0
0
0
0
0
0
0
0
0
0
0
0
0
0
0
0
0
0
0
0
0
0
0
0
0
0
0
0
0
0
0
0
0
0
0
0
0
0
0
0
0
0
0
0
0
0
0
0
0
0
0
0
0
0
0
0
0
0
0
0
0
0
0
0
0
0
0
0
0
0
0
0
0
0
0
0
0
0
0
0
0
0
0
0
0
0
0
0
0
0
0
0
0
0
0
0
0
0
0
0
0
0
0
0
0
0
0
0
0
0
0
0
0
0
0
0
0
0
0
0
0
0
0
0
0
0
0
0
0
0
0
0
0
0
0
0
0
0
0
0
0
0
0
0
0
0
0
0
0
0
0
0
0
0
0
0
0
0
0
0
0
0
0
0
0
0
0
0
0
0
0
0
0
0
0
0
0
0
0
0
0
0
0
0
0
0
0
0
0
0
0
0
0
0
0
0
0
0
0
0
0
0
0
0
0
0
0
0
0
0
0
0
0
0
0
0
0
0
0
0
0
0
0
0
0
0
0
0
0
0
0
0
0
0
0
0
0
0
0
0
0
0
0
0
0
0
0
0
0
0
0
0
0
0
0
0
0
0
0
0
0
0
0
0
0
0
0
0
0
0
0
0
0
0
0
0
0
0
0
0
0
0
0
0
0
0
0
0
0
0
0
0
0
0
0
0
0
0
0
0
0
0
0
0
0
0
0
0
0
0
0
0
0
0
0
0
0
0
0
0
0
0
0
0
0
0
0
0
0
0
0
0
0
0
0
0
0
0
0
0
0
0
0
0
0
0
0
0
0
0
0
0
0
0
0
0
0
0
0
0
0
0
0
0
0
0
0
0
0
0
0
0
0
0
0
0
0
0
0
0
0
0
0
0
0
0
0
0
0
0
0
0
0
0
0
0
0
0
0
0
0
0
0
0
0
0
0
0
0
0
0
0
0
0
0
0
0
0
0
0
0
0
0
0
0
0
0
0
0
0
0
0
0
0
0
0
0
0
0
0
0
0
0
0
0
0
0
0
0
0
0
0
0
0
0
0
0
0
0
0
0
0
0
0
0
0
0
0
0
0
0
0
0
0
0
0
0
0
0
0
0
0
0
0
0
0
0
0
0
0
0
0
0
0
0
0
0
0
0
0
0
0
0
0
0
0
0
0
0
0
0
0
0
0
0
0
0
0
0
0
0
0
0
0
0
0
0
0
0
0
0
0
0
0
0
0
0
0
0
0
0
0
0
0
0
0
0
0
0
0
0
0
0
0
0
0
0
0
0
0
0
0
0
0
0
0
0
0
0
0
0
0
0
0
0
0
0
0
0
0
0
0
0
0
0
0
0
0
0
0
0
0
0
0
0
0
0
0
0
0
0
0
0
0
0
0
0
0
0
0
0
0
0
0
0
0
0
0
0
0
0
0
0
0
0
0
0
0
0
0
0
0
0
0
0
0
0
0
0
0
0
0
0
0
0
0
0
0
0
0
0
0
0
0
0
0
0
0
0
0
0
0
0
0
0
0
0
0
0
0
0
0
0
0
0
0
0
0
0
0
0
0
0
0
0
0
0
0
0
0
0
0
0
0
0
0
0
0
0
0
0
0
0
0
0
0
0
0
0
0
0
0
0
0
0
0
0
0
0
0
0
0
0
0
0
0
0
0
0
0
0
0
0
0
0
0
0
0
0
0
0
0
0
0
0
0
0
0
0
0
0
0
0
0
0
0
0
0
0
0
0
0
0
0
0
0
0
0
0
0
0
0
0
0
0
0
0
0
0
0
0
0
0
0
0
0
0
0
0
0
0
0
0
0
0
0
0
0
0
0
0
0
0
0
0
0
0
0
0
0
0
0
0
0
0
0
0
0
0
0
0
0
0
0
0
0
0
0
0
0
0
0
0
0
0
0
0
0
0
0
0
0
0
0
0
0
0
0
0
0
0
0
0
0
0
0
0
0
0
0
0
0
0
0
0
0
0
0
0
0
0
0
0
0
0
0
0
0
0
0
0
0
0
0
0
0
0
0
0
0
0
0
0
0
0
0
0
0
0
0
0
0
0
0
0
0
0
0
0
0
0
0
0
0
0
0
0
0
0
0
0
0
0
0
0
0
0
0
0
0
0
0
0
0
0
0
0
0
0
0
0
0
0
0
0
0
0
0
0
0
0
0
0
0
0
0
0
0
0
0
0
0
0
0
0
0
0
0
0
0
0
0
0
0
0
0
0
0
0
0
0
0
0
0
0
0
0
0
0
0
0
0
0
0
0
0
0
0
0
0
0
0
0
0
0
0
0
0
0
0
0
0
0
0
0
0
0
0
0
0
0
0
0
0
0
0
0
0
0
0
0
0
0
0
0
0
0
0
0
0
0
0
0
0
0
0
0
0
0
0
0
0
0
0
0
0
0
0
0
0
0
0
0
0
0
0
0
0
0
0
0
0
0
0
0
0
0
0
0
0
0
0
0
0
0
0
0
0
0
0
0
0
0
0
0
0
0
0
0
0
0
0
0
0
0
0
0
0
0
0
0
0
0
0
0
0
0
0
0
0
0
0
0
0
0
0
0
0
0
0
0
0
0
0
0
0
0
0
0
0
0
0
0
0
0
0
0
0
0
0
0
0
0
0
0
0
0
0
0
0
0
0
0
0
0
0
0
0
0
0
0
0
0
0
0
0
0
0
0
0
0
0
0
0
0
0
0
0
0
0
0
0
0
0
0
0
0
0
0
0
0
0
0
0
0
0
0
0
0
0
0
0
0
0
0
0
0
0
0
0
0
0
0
0
0
0
0
0
0
0
0
0
0
0
0
0
0
0
0
0
0
0
0
0
0
0
0
0
0
0
0
0
0
0
0
0
0
0
0
0
0
0
0
0
0
0
0
0
0
0
0
0
0
0
0
0
0
0
0
0
0
0
0
0
0
0
0
0
0
0
0
0
0
0
0
0
0
0
0
0
0
0
0
0
0
0
0
0
0
0
0
0
0
0
0
0
0
0
0
0
0
0
0
0
0
0
0
0
0
0
0
0
0
0
0
0
0
0
0
0
0
0
0
0
0
0
0
0
0
0
0
0
0
0
0
0
0
0
0
0
0
0
0
0
0
0
0
0
0
0
0
0
0
0
0
0
0
0
0
0
0
0
0
0
0
0
0
0
0
0
0
0
0
0
0
0
0
0
0
0
0
0
0
0
0
0
0
0
0
0
0
0
0
0
0
0
0
0
0
0
0
0
0
0
0
0
0
0
0
0
0
0
0
0
0
0
0
0
0
0
0
0
0
0
0
0
0
0
0
0
0
0
0
0
0
0
0
0
0
0
0
0
0
0
0
0
0
0
0
0
0
0
0
0
0
0
0
0
0
0
0
0
0
0
0
0
0
0
0
0
0
0
0
0
0
0
0
0
0
0
0
0
0
0
0
0
0
0
0
0
0
0
0
0
0
0
0
0
0
0
0
0
0
0
0
0
0
0
0
0
0
0
0
0
0
0
0
0
0
0
0
0
0
0
0
0
0
0
0
0
0
0
0
0
0
0
0
0
0
0
0
0
0
0
0
0
0
0
0
0
0
0
0
0
0
0
0
0
0
0
0
0
0
0
0
0
0
0
0
0
0
0
0
0
0
0
0
0
0
0
0
0
0
0
0
0
0
0
0
0
0
0
0
0
0
0
0
0
0
0
0
0
0
0
0
0
0
0
0
0
0
0
0
0
0
0
0
0
0
0
0
0
0
0
0
0
0
0
0
0
0
0
0
0
0
0
0
0
0
0
0
0
0
0
0
0
0
0
0
0
0
0
0
0
0
0
0
0
0
0
0
0
0
0
0
0
0
0
0
0
0
0
0
0
0
0
0
0
0
0
0
0
0
0
0
0
0
0
0
0
0
0
0
0
0
0
0
0
0
0
0
0
0
0
0
0
0
0
0
0
0
0
0
0
0
0
0
0
0
0
0
0
0
0
0
0
0
0
0
0
0
0
0
0
0
0
0
0
0
0
0
0
0
0
0
0
0
0
0
0
0
0
0
0
0
0
0
0
0
0
0
0
0
0
0
0
0
0
0
0
0
0
0
0
0
0
0
0
0
0
0
0
0
0
0
0
0
0
0
0
0
0
0
0
0
0
0
0
0
0
0
0
0
0
0
0
0
0
0
0
0
0
0
0
0
0
0
0
0
0
0
0
0
0
0
0
0
0
0
0
0
0
0
0
0
0
0
0
0
0
0
0
0
0
0
0
0
0
0
0
0
0
0
0
0
0
0
0
0
0
0
0
0
0
0
0
0
0
0
0
0
0
0
0
0
0
0
0
661.076
252.819
4004.51
34.5633
31.8652
184.186
248.518
12529.7
11724.5
12455.1
1785.37
4780.24
3958.59
5926.53
38.4748
50.0877
408.24
83.8877
40.3709
31.6357
84.5635
5877.14
2276.66
10046.8
9.55689
380.222
28.1684
1035.54
12663.3
13401.8
12785
4730.09
11033.2
8713.69
13097.5
12691.1
12352
12226.9
13284.8
13296.5
13670.7
13884.8
618.241
256.711
315.844
28.4938
364.671
41.6376
271.085
13528.9
8383.1
14485.5
1852.77
7486.08
2269.77
11026.9
12328.5
12887
11618.8
12347.4
13359.7
13336.6
13269.9
10873.4
10901
10299.1
13809.7
13809.9
13851.5
13853.1
14435.1
11599.1
14327.4
4977.53
12283.9
5836.78
13181.5
11112.4
12933.1
11074
13289.1
13043.2
13484.5
12979.4
20.887
220.51
86.3498
44.5172
19.026
170.108
94.8739
46.6455
94.3964
137.625
33.1768
77.9291
62.8711
74.8439
50.9406
54.4103
42.7999
214.115
95.4093
81.3305
104.401
459.421
85.1846
500.575
118.446
322.16
223.048
1062.54
72.1805
147.548
36.0568
31.192
37.3261
125.89
39.1278
128.743
73.1024
48.2148
38.0718
237.52
67.4772
108.011
87.8793
338.025
303.583
63.4815
53.127
315.702
58.9059
563.025
477.521
2034.21
778.437
617.113
1157.22
2859.82
35.121
81.7491
50.4167
38.4438
37.063
53.2471
62.2184
232.448
68.3399
128.757
228.313
165.065
29.7423
214.048
76.8072
99.8063
53
32.1557
74.0513
20.9273
18.1099
112.94
4021.08
2942.06
252.787
14.0036
5555.02
1832.74
158.594
59.3952
51.8178
163.023
188.786
68.5799
74.8839
113.99
88.6507
149.164
74.9257
181.281
155.737
108.916
36.5173
25.1875
14.8312
59.6893
80.449
29.4258
12.6691
19.6145
3513.62
936.794
9.11582
0.91072
1758.66
542.499
130.11
59.2792
121.604
58.2885
20.9918
97.4418
122.603
324.745
129.237
128.021
61.4406
1086.3
65.4942
968.815
149.647
23.2696
17.9307
28.0138
102.626
7.95489
3.6424
5.65902
748.725
283.489
6.95699
7.7054
345.742
84.3618
67.9305
68.0643
117.909
77.6955
56.3583
55.8608
64.6879
493.142
282.728
1397.06
417.214
38.3742
802.038
90.0797
111.546
9.29105
23.5717
4.33813
76.2604
26.0248
21.0094
18.6366
43.6356
4.86154
7.8228
7.68548
0.294918
11.7794
333.373
31.0924
655.572
190.953
301.706
276.42
517.618
8.21605
519.258
17.409
5.0523
4.46191
38.6261
3.33102
90.5482
20.7995
20.8913
19.6742
65.6113
18.6121
30.3972
4.89284
0
2.60379
13.6355
33.8335
0
24.6755
23.2664
375.484
66.6929
49.8033
0
380.457
5.94765
4.28003
7.88026
5.65636
4.91099
0
16.4321
0
37.4589
5.93708
64.3566
5.95883
386.109
0.146283
211.332
63.8384
0
42.3644
8.43765
128.899
4.5897
86.0571
0
29.4854
3.61092
0
7.08607
2.2647
8.29318
0
4.25749
4.12393
3.17149
4.18298
4.31292
0
727.454
5.90978
285.974
225.373
726.283
5.68914
306.568
131.243
0
92.8619
4.83043
173.989
3.8903
74.1122
0
3.5301
1.62293
0
0
0
3.03075
2.86523
8.67857
0
0
1.6658
0
12.5578
292.66
36.4611
463.825
408.289
44.2419
350.215
215.283
207.256
35.5559
235.268
52.1922
455.248
87.0946
359.96
0
4.38659
0
0
0
0
4.61305
0
8.66241
6.83577
0
4.16174
4.25185
8.11743
6.06323
595.851
94.3653
3.22098
3.86639
148.497
29.6889
134.265
148.652
112.864
295.053
37.3035
222.611
61.2496
0
0
0
0
0
0
0
8.38447
1.06355
3.82145
0
4.00627
3.22373
1.3483
6.82516
8.95484
8.87038
3.2299
3.76301
13.5582
3.00481
20.1249
210.43
27.2952
45.8272
7.08988
49.5433
19.0325
0
4.32187
0
0
0
0
4.09737
0
0
2.49814
0
0
3.80691
0
2.86585
0.119921
5.98761
4.30518
0
0
0
4.22006
19.3048
0
4.45591
0
1.53524
0.347237
0
0
0
0
0
0
0
0
0
3.5997
0
0
0
-1.39252e-13
0
0
3.36146
0
4.30686
0
0.874978
0
4.55546
0
0
0
0
0
0
0
0
0
0
0
0
0
0
0
0
0
0
0
4.28711
0
8.48752
0
0.155687
0
0
4.30087
4.2712
0
-1.01133e-14
-3.13375e-13
0
0
0
0
0
0
0
0
0
0
0
0
0
0
3.72841
0
0
0
0
0
0
0
0
0
0
0
0
0
0
8.82383
0
0
0
0
0
0
0
0
0
0
0
0
0
0
0
0
0
0
0
0
0
1.75798
0
0
0
7.1614
0
4.50276
0
0
0
0
0
0
0
0
0
0
0
0
0
0
0
0
0
0
0
0
0
2.87035
0
0
4.45996
1.52924
0
0
0
0
0
0
0
0
0
0
0
0
0
0
0
0
0
0
0
0
0
0
0
0
0
2.64142
0
0
0
0
0
0
0
0
0
0
0
0
0
0
0
0
0
0
0
0
0
0
0
0
0
0
0
0
0
0
0
0
0
0
0
0
0
0
0
0
0
0
0
0
0
0
0
0
0
0
0
0
0
0
0
0
0
0
0
0
0
0