/*--------------------------------*- C++ -*----------------------------------*\
| =========                 |                                                 |
| \\      /  F ield         | OpenFOAM: The Open Source CFD Toolbox           |
|  \\    /   O peration     | Version:  5.x                                   |
|   \\  /    A nd           | Web:      www.OpenFOAM.org                      |
|    \\/     M anipulation  |                                                 |
\*---------------------------------------------------------------------------*/
FoamFile
{
    version     2.0;
    format      ascii;
    class       volScalarField;
    location    "0.4";
    object      Ksl;
}
// * * * * * * * * * * * * * * * * * * * * * * * * * * * * * * * * * * * * * //

dimensions      [1 -3 -1 0 0 0 0];

internalField   nonuniform List<scalar> 
10571
(
11365.9
13052.9
8261.38
6840.92
10971.3
5407.77
4088.99
11968
11609.9
11289
10899.2
5443.94
7507.61
12288
12540.9
12908.8
5589.46
9674.77
12141.6
13707.8
14462.6
8017.01
12732.9
13979.3
12005.2
14646.6
12215.1
8610.82
10068.1
12409.5
1417.14
35.8714
49.2322
297.676
12426.9
8533.93
772.734
75.7112
830.001
150.057
10646.7
955.46
17.185
5368
9603.36
9925.05
23.7329
407.894
10862.4
1302.97
11522.1
10711.7
11539
9322.97
3125.99
1047.98
268.762
130.219
11214.3
12342.5
1121.85
62.4126
430.107
41.2247
12123.6
664.942
12.5375
1498.82
712.15
4794.7
0
11.6405
66.9238
44.4347
34.3986
341.967
92.9637
50.3356
431.866
332.093
68.5137
69.3438
96.2572
1232.72
140.038
19.6699
377.683
46.2229
728.619
49.0235
4.8343
1281.61
304.64
19.5228
0
10.3886
14.066
18.5108
6.45754
10.9772
26.6331
20.7508
2.36775
0.218059
20.2651
79.0465
51.9696
0
0.846609
1.74474
260.746
69.4285
11.1831
10.0581
10.4459
1532.82
160.005
6.42575
5.8591
0
34.7923
11.7294
21.2264
4.2007
23.8378
16.247
3.47005
0.682961
4.17143
33.6801
10499.1
36.6985
3.64847
2.32587
15.1636
182.418
18.6034
10278.5
21.8761
15.3749
9.01545
1845.72
159.911
14.4808
0
9.24761
22.2628
12.6628
18.4256
4.53311
11.3854
35.0812
1.76726
0
2.6268
16.5475
1.64885
0
0
0.831624
29.2233
118.181
8.13827
2.08946
4.57117
11.4232
13.4107
1903.84
135.811
0
37.0694
0
21.7921
4.61647
38.8769
24.1163
10.7661
6.28911
15.9735
6.61321
0
8.00909
21.0127
0
0
0
0
32.727
62.0822
13.9687
0
12.9765
7.30883
17.7779
1998.12
92.5636
0
27.5235
4.72484
53.33
9.80054
13.0793
6.18455
10.1293
10.6506
19.2352
7.55325
0.970019
2.2454
10.4895
0
18.2404
-5.2757e-15
0.950708
38.8189
32.773
-2.92904e-15
0
13.1632
6.43074
24.5473
1785.58
129.321
30.3718
9.11092
208.271
0
34.5645
13.5849
17.6894
1.8921
90.4907
16.739
1.42008
1.59461
25.9629
0.893872
0
2.164
34.5743
24.5484
12.9069
3.3408
8.87528
30.4355
1121.13
133.334
24.3423
207.448
311.714
10.2589
27.5665
28.3613
18.8017
0
108.488
24.2647
1.47888
2.03131
0.33207
9.129
12.5875
2.19175
29.7628
18.2504
3.44151
5.17484
0.764322
22.6276
640.689
295.322
-6.72608e-15
152.385
297.79
28.6629
7.1333
24.6064
51.4644
0
44.0401
50.4924
5.1161
0.28556
29.9003
3.7345
15.1903
2.98854
33.7558
14.0888
7.20176
0
3.91657
21.3526
485.206
369.871
22.0957
124.921
502.608
16.5845
25.5472
68.3643
45.1554
1.87285
157.271
50.1877
9.952
1.57727
51.4105
38.7065
31.5526
9.09232
32.7869
22.4012
23.6926
0
3.17817
15.8745
384.454
434.206
12.1485
109.117
537.639
30.6221
471.181
763.658
33.7483
15.1762
124.486
34.6825
12.9157
2.32866
116.991
0
28.3123
15.3082
27.097
17.4246
33.6388
3.69264
1.57387
23.566
192.313
572.775
7.63363
111.414
604.463
0
2748.67
863.709
11.6246
188.648
151.508
18.5656
47.2803
66.3615
921.758
-1.1799e-15
12.8865
12.1516
30.5254
18.0209
317.5
7.08068
-2.29798e-17
23.0319
104.538
585.73
6.71456
205.451
620.959
69.744
255.296
69.8855
1298.91
3703.77
256.445
20.7753
22.3005
60.8926
3092.5
0
6.4525
12.6303
33.2655
24.3492
467.213
28.9416
1.82698
21.1265
47.2738
526.302
5.59368
431.796
412.194
435.21
45.1032
67.7081
-7.10458e-15
74.588
384.361
14.6632
58.6023
40.7066
149.81
17.9117
9.11191
7.32976
26.0117
20.2709
58.6827
13.7044
1.7204
16.1356
62.3627
308.542
33.8802
430.94
310.354
0.946086
39.5066
21.7963
0
39.9605
287.281
23.2417
13.5638
37.5482
64.9934
10.5602
64.7413
14.4457
26.6545
21.3509
51.2499
6.17868
7.65406
18.9791
72.5048
171.303
967.352
233.523
141.266
29.0525
26.6353
52.3754
0
3.93683
38.8507
31.6491
16.8455
32.6847
43.6694
0
6.65256
9.58772
29.3267
25.2727
42.62
5.51942
16.679
23.7121
51.1363
244.388
708.316
48.3895
101.514
0
15.9659
4.24392
33.7338
0
12.4909
43.537
12.4738
40.5946
43.6194
0
1.91232
10.3777
18.7417
35.4519
47.6754
-1.90771e-16
19.3062
16.1614
48.2318
172.635
111.825
75.3761
41.144
0
28.4954
7.1204
0
5.70868
7.38516
79.7187
13.6673
26.9278
30.1825
21.6523
68.3119
18.7985
15.3528
41.5091
22.2052
84.7273
51.3642
15.4246
63.9968
201.674
88.9606
109.806
96.4398
0
45.36
4.0782
0
3.862
17.9218
54.5081
14.4128
20.7478
11.1796
0
139.843
96.8189
13.1711
45.4377
54.6245
454.698
133.222
16.2038
46.0028
120.758
8.78931
79.0132
35.008
12.5846
57.5117
48.9305
-2.1572e-15
6.68088
8.28001
31.7174
22.6084
26.9235
12.0429
0
24.4401
65.2498
8.50197
57.4643
50.9764
16.9902
23.8664
44.912
46.5171
130.323
11.0111
88.2536
27.6255
0
23.8584
110.308
-2.53103e-15
6.62006
7.85312
5.74117
21.109
16.972
8.5712
281.899
36.314
22.8376
23.7088
55.6018
30.1606
18.9997
18.224
54.1369
65.8245
137.978
26.5713
57.2737
68.6145
-7.06536e-15
0
5.23565
0
22.8031
9.58181
3.16832
20.4879
16.1261
3.50721
18.4761
22.6111
2.38293
34.0947
65.0603
23.6943
22.9036
8.74195
42.9587
98.5903
104.436
23.8781
43.8381
53.2767
29.516
0
5.40025
0
3.55546
5.08358
1.28719
12.9671
20.5132
16.1955
58.0613
5.72854
3.56674
29.8742
59.3938
34.2732
0
9.87486
47.4532
66.1282
97.6226
7.17759
55.0634
26.8162
17.6958
0
7.18817
0
3.88302
0
2.10306
13.4673
20.6827
1.02362
36.7965
0
3.60228
39.774
68.8837
14.7181
0
7.79672
37.2143
62.9476
60.2246
14.5195
40.1231
58.6515
45.7607
0
0.947453
3.56768
3.42659
0
0
10.4629
24.2751
2.02749
0
0
2.76039
25.4183
51.7977
18.1192
0
2.79064
39.2744
24.6296
67.6748
4.78594
12.2944
40.8065
0
0
0
5.07438
4.32078
0
0.66427
4.44803
22.0323
11.6134
0
0
0.747242
18.3031
37.248
29.103
0
2.59362
28.879
56.1246
58.249
0
58.0083
18.2324
0
0
8.71579
11.9855
29.279
0
0.688301
3.09119
16.9093
10.2852
0
0
0.0183802
19.7262
25.2645
25.777
0
2.199
27.2008
43.9844
52.6278
0
45.9416
27.9259
0
0
0
0.15122
8.65071
0
0
3.07717
14.5504
5.85633
0
0
1.44857
6.42529
25.581
24.0085
0
0.643786
12.9402
24.0584
61.0168
3.28044
18.4619
16.9648
0
0
0
11.3609
19.1666
0
0
3.76384
9.43864
5.2419
0
0
0
3.49448
24.0267
22.0962
0
0.185991
13.106
9.99987
37.7086
0
21.8028
43.9752
0
0
0
19.2749
24.9548
0
148.901
13.5102
16.1037
-4.49748e-15
0
0
7.98742
7.13346
12.5649
21.6182
0
9.48999
6.60653
20.6462
58.119
20.6348
47.7392
35.4444
0
0
0
11.8503
0
0
0.501484
14.4949
10.2141
0
0
0
10.5728
7.83772
5.13706
30.0765
0
32.2315
20.3334
1.68272
61.6769
0
40.7429
42.1984
0
0
0
0
0
0
0
18.1425
2.31812
24.0596
0
0
0.657248
4.13063
5.04205
31.419
0
0.075343
15.7869
3.83849
109.074
0
-1.57815e-15
83.6391
0
0
0
0
0
0
0
68.2177
38.8208
58.5958
0
0
0
7.94693
37.8116
14.4485
0
0
11.7703
0
-1.21899e-14
0
0
-7.65982e-15
0
0
0
0
0
0
0
6.4225
39.4475
-5.11814e-15
0
0
0
0.836583
8.52931
0
0
0
2.43032
18.3534
-1.45057e-16
0
0
0
0
0
0
0
0
0
0
0
0
0
0
0
0
0
0
0
0
0
0
0
0
0
0
0
0
0
0
0
0
0
0
0
0
0
0
0
0
0
0
0
0
0
0
0
0
0
0
0
0
0
0
0
0
0
0
0
0
0
0
0
0
0
0
0
0
0
0
0
0
0
0
0
0
0
0
0
0
0
0
0
0
0
0
0
0
0
0
0
0
0
0
0
0
0
0
0
0
0
0
0
0
0
0
0
0
0
0
0
0
0
0
0
0
0
0
0
0
0
0
0
0
0
0
0
0
0
0
0
0
0
0
0
0
0
0
0
0
0
0
0
0
0
0
0
0
0
0
0
0
0
0
0
0
0
0
0
0
0
0
0
0
0
0
0
0
0
0
0
0
0
0
0
0
0
0
0
0
0
0
0
0
0
0
0
0
0
0
0
0
0
0
0
0
0
0
0
0
0
0
0
0
0
0
0
0
0
0
0
0
0
0
0
0
0
0
0
0
0
0
0
0
0
0
0
0
0
0
0
0
0
0
0
0
0
0
0
0
0
0
0
0
0
0
0
0
0
0
0
0
0
0
0
0
0
0
0
0
0
0
0
0
0
0
0
0
0
0
0
0
0
0
0
0
0
0
0
0
0
0
0
0
0
0
0
0
0
0
0
0
0
0
0
0
0
0
0
0
0
0
0
0
0
0
0
0
0
0
0
0
0
0
0
0
0
0
0
0
0
0
0
0
0
0
0
0
0
0
0
0
0
0
0
0
0
0
0
0
0
0
0
0
0
0
0
0
0
0
0
0
0
0
0
0
0
0
0
0
0
0
0
0
0
0
0
0
0
0
0
0
0
0
0
0
0
0
0
0
0
0
0
0
0
0
0
0
0
0
0
0
0
0
0
0
0
0
0
0
0
0
0
0
0
0
0
0
0
0
0
0
0
0
0
0
0
0
0
0
0
0
0
0
0
0
0
0
0
0
0
0
0
0
0
0
0
0
0
0
0
0
0
0
0
0
0
0
0
0
0
0
0
0
0
0
0
0
0
0
0
0
0
0
0
0
0
0
0
0
0
0
0
0
0
0
0
0
0
0
0
0
0
0
0
0
0
0
0
0
0
0
0
0
0
0
0
0
0
0
0
0
0
0
0
0
0
0
0
0
0
0
0
0
0
0
0
0
0
0
0
0
0
0
0
0
0
0
0
0
0
0
0
0
0
0
0
0
0
0
0
0
0
0
0
0
0
0
0
0
0
0
0
0
0
0
0
0
0
0
0
0
0
0
0
0
0
0
0
0
0
0
0
0
0
0
0
0
0
0
0
0
0
0
0
0
0
0
0
0
0
0
0
0
0
0
0
0
0
0
0
0
0
0
0
0
0
0
0
0
0
0
0
0
0
0
0
0
0
0
0
0
0
0
0
0
0
0
0
0
0
0
0
0
0
0
0
0
0
0
0
0
0
0
0
0
0
0
0
0
0
0
0
0
0
0
0
0
0
0
0
0
0
0
0
0
0
0
0
0
0
0
0
0
0
0
0
0
0
0
0
0
0
0
0
0
0
0
0
0
0
0
0
0
0
0
0
0
0
0
0
0
0
0
0
0
0
0
0
0
0
0
0
0
0
0
0
0
0
0
0
0
0
0
0
0
0
0
0
0
0
0
0
0
0
0
0
0
0
0
0
0
0
0
0
0
0
0
0
0
0
0
0
0
0
0
0
0
0
0
0
0
0
0
0
0
0
0
0
0
0
0
0
0
0
0
0
0
0
0
0
0
0
0
0
0
0
0
0
0
0
0
0
0
0
0
0
0
0
0
0
0
0
0
0
0
0
0
0
0
0
0
0
0
0
0
0
0
0
0
0
0
0
0
0
0
0
0
0
0
0
0
0
0
0
0
0
0
0
0
0
0
0
0
0
0
0
0
0
0
0
0
0
0
0
0
0
0
0
0
0
0
0
0
0
0
0
0
0
0
0
0
0
0
0
0
0
0
0
0
0
0
0
0
0
0
0
0
0
0
0
0
0
0
0
0
0
0
0
0
0
0
0
0
0
0
0
0
0
0
0
0
0
0
0
0
0
0
0
0
0
0
0
0
9107.52
9361.42
10009.1
8187.96
9391.81
5531.86
6679.08
8750.8
4046.9
9702.42
9251.81
7797.35
7581.4
6724.89
809.105
2890.8
1024.2
917.813
1693.38
2071.2
5151.54
5867
8139.63
6507.88
7634.12
8556.74
1258.19
4141.89
4938.72
5013.8
4730.6
5023.06
2888.43
1091.98
2028.52
1850.04
3738.71
5222.57
7134.83
7049.19
8565.86
8353.47
9219.09
9319.64
10041.5
8940.35
10630.4
10377.4
3895.41
4605.8
4878.38
3822.19
1910.87
1726.98
2549.95
3014
5693.17
4006.39
6731.45
7833.52
9648.09
8985.8
10511.9
10494.4
10746.2
10877.1
11326.6
11511.2
10577.9
11870.5
4841.74
3811.05
2855.23
5451.16
3682.61
4783.2
7907.57
4343.98
7558.69
9850.71
11316.5
9830.59
11116.8
11860
11980.8
11399.3
12314.8
11835.4
5943.33
5848.79
7528.58
8059.87
9739.64
10953.4
9542.57
11742.2
13258
13506.7
12177.9
10614.5
11280.6
12385.2
11936
11809
9953.02
10050.8
12765.2
11495.7
10766.2
11131
11857.1
6643.5
14359.6
11032.9
7243.99
7541.13
13705
12570.3
12319.4
11209.2
10790
12936
11928.3
11361.3
11495.3
4120.92
8293.49
10909.8
9489.09
6059.15
11589.5
9291.05
12531.3
13907
12002.1
12435.9
10940.1
5850.92
4104.58
6527.12
8938.27
8195.1
13531.1
11979.8
10900.5
11421.8
13394.2
7121.6
6742.82
10521.1
7859.79
11345
3784.05
6088.11
5147.39
8106.63
5333.05
9953.2
8423.82
13635.1
13549.4
14649.1
11891.3
12706.8
11631.6
13016.5
12785.2
8583.54
9703.47
11259.9
9859.83
9703.14
8255.8
10611.3
12815.5
11944.9
4239.02
5664.3
8882.12
10283.6
13435.6
12788.4
12025.5
12221.1
11917.3
11743.6
11920.3
12423.8
12020.1
11369.1
12071.7
11785.3
11364.8
11682.7
11297.6
13828.7
11483.9
12987.8
13201.3
12301.1
12262.4
12806.4
12830.5
12659.8
10704.2
242.872
1915.65
10529.1
9864.27
469.988
669.628
1391.2
231.966
12833.8
12745.1
12267.1
11603.1
12419.7
13193.5
75.4986
183.662
165.839
64.7135
-3.70903e-15
11737.4
10939.6
12169.2
12195.4
11303.1
104.274
3193.69
17.3822
0
242.186
11949
11742.4
6008.63
10876.6
9678.49
11697.5
10421.6
11398.1
11235
12227.3
3267.09
10674.8
2303.34
12893.2
430.42
4586.28
2743.68
9888.09
10727.3
2809.26
4860.36
9127.75
785.056
795.036
20.5182
395.898
4.69224
-1.44073e-15
18.4698
0.610764
4614.68
118.938
10995.3
8838.93
12237.8
1853.27
1198.94
5037.19
12736.8
11476.3
3214.74
6288.34
5538.8
11029.4
2227.6
1101.34
82.7365
5614.24
3775.98
9059.82
14.0662
258.305
116.444
1036.43
6186.19
3252.63
859.639
1854.34
494.807
2079.85
276.234
534.118
253.369
3228.95
6818.85
8386.4
108.605
569.548
1093.04
50.1236
20.2884
41.7924
17.166
25.1727
12329.3
11182.9
3192.59
6957.99
9779.99
0.943698
62.9903
10.548
34.7701
36.7573
11525.9
9362.24
11379.3
11233.3
11716.7
9763.26
6909.75
9858.35
11279.3
17872.1
119.207
1894.04
1289.86
7412.65
77.9282
1145.11
494.445
10595
6209.62
217.49
206.175
421.192
18.5696
33.9976
0
12.9952
0
0
1.00476
11.7465
12.1436
0
22.2859
16.9607
160.525
18.3697
32.7599
69.3168
108.989
165.056
26.0412
20.3382
45.6403
92.902
50.7609
110.767
93.9307
12.9585
62.7638
42.3516
27.9195
13.7975
42.7594
26.4823
185.948
226.264
82.4527
40.1801
155.336
43.2027
64.2886
87.2879
188.411
16.3263
42.2796
36.6534
26.554
12.2559
15.0032
58.6576
20.1771
51.9469
68.2468
66.3318
370.67
950.419
33.3583
4.3995
25.9043
19.0663
37.2659
50.7084
0
66.2478
833.841
82.7948
349.995
955.594
1309.16
9.44256
33.5635
63.6057
71.3349
6272.22
48.8032
901.488
1324.4
5022.22
38.6172
787.235
241.459
672.289
64.0807
6.90902
0
0.694617
0
0
7.54053
0
0.296815
7.39323
0
0
13.1583
39.1842
18.6504
24.0244
26.741
31.3776
21.3012
27.4438
16.8838
11.5135
13.777
10.4781
10.1477
40.8803
21.7947
32.0991
34.4795
23.1366
19.5169
21.1801
0.177435
49.6816
48.6139
65.0205
79.7303
48.3006
212.025
3.92972
40.8205
27.0945
54.5321
55.7841
39.7612
28.026
17.3557
33.0583
42.3607
46.1
12.5344
104.948
164.055
47.4103
40.652
362.617
14.8213
10.643
20.7414
7.33296
22.469
81.4644
68.2559
36.4135
249.892
12.338
31.457
15.7176
6.60261
15.4829
33.5825
16.8826
0.170665
7.8401
26.8501
4567.49
41.0777
872.672
1752.95
3709.49
29.6223
746.873
109.574
28.5227
57.782
0
0
26.5519
0.405848
0
0
0
0
0
0
28.2203
26.7375
25.0368
28.0224
7.10219
16.4724
46.7333
57.2076
56.7918
21.6206
5.65079
27.8209
-6.58482e-15
1.8012
55.5186
35.9078
14.8088
18.4451
21.6814
43.6076
23.631
24.4984
9.1812
48.9683
35.9108
9.44462
7.25724
39.6176
64.1486
0
6.86314
46.909
48.4366
44.1604
31.3752
48.0596
5.90187
47.6191
70.5826
39.5007
294.026
37.9073
1130.6
4.85334
19.9694
9.36795
16.4774
14716.8
9311.4
13634.9
46.1772
350.427
157.851
956.23
17.9849
9.89465
36.5575
19.9754
12.3609
845.302
45.4212
134.118
12.5521
6.84596
39.3923
23.4351
16186
6466.26
15139.2
172.09
1016.44
63.3892
377.758
9.60267
9.5716
2.81292
8.16461
21.0111
4.92887
5.72093
0
10.7969
3345.48
54.6735
891.24
3131.58
2961.84
28.0736
843.252
143.945
27.8649
48.4398
-2.50576e-16
0
13.0734
0
0
0
0
0
5.48443
0
16.9143
12.8253
56.0911
42.2941
50.8238
29.8957
4.1245
28.1033
35.9376
7.69705
16.8422
5.16989
8.27095
5.29046
17.4847
10.7255
12.4221
45.2438
42.2888
32.0356
23.2894
-1.55083e-16
32.3375
26.9657
5.79966
3.45264
2.89036
5.72853
10.6265
0
4.42451
0
30.8916
0
18.2698
0
13.8662
0
0.193218
5.10899
25.3908
23.6362
31.5752
18.8338
21.2433
18.4233
4.42349
17.1093
6.12489
6.70148
0
7.46023
31.9673
1.5415
1.35399
6.59544
0
4.96052
2.53532
3.88024
22.3344
14.2946
0
3.48205
-6.09155e-15
18.2348
21.6665
14.5501
0.827591
5.60558
17.9582
13.976
2.60551
0
2.00275
0
2.73529
0
0
0
24.1523
-5.31606e-15
17.8403
17.1545
8.57764
0
15.1078
18.8439
2159.45
65.7441
1207.09
1889.37
1646.81
73.7192
1240.43
0
136.462
0.28034
0
0
0
11.4037
64.967
0
0
33.6663
0
0
-4.48347e-15
0
9.08917
0
0
35.7732
23.7715
28.3851
0.909073
31.357
27.8766
100.224
12.046
46.5457
13.0736
15.3352
0
6.71049
5.76325
17.4848
10.5614
16.0716
18.2581
22.5405
22.3893
26.8616
11.3798
34.5103
21.0321
38.7837
9.51761
8.35322
8.33567
10.4383
56.8395
-5.5767e-15
-4.94115e-15
0
0
14.5954
0
4.64591
0
0
0
9.79373
7.99069
54.411
16.38
46.008
71.2038
0.690815
2.11899
4.48005
1.33936
0
9.90524
-8.10639e-16
0
0
0
0
0
0
0
23.4742
0
23.5016
0.741385
0
11.1562
29.3739
11.9607
9.53359
5.87607
49.5196
7.73606
2.08271
0
1.73031
0
0
0
0
-3.20783e-15
0
3.71346
17.6688
14.072
0.264446
10.2996
46.235
11.2457
1463.64
79.8694
1689.74
1812.98
1140.16
141.118
1797.24
4.17409
104.026
0
0
0
0
35.4331
11.9433
4.68586
0
37.9056
22.4961
0
0
0
0
10.8854
0
83.2855
36.1916
25.9609
19.6684
22.4179
33.1915
0
14.6353
80.3166
23.143
1.95633
0
17.0011
11.7
11.171
11.2838
0.413383
21.7047
25.8124
29.726
11.3074
30.583
24.7016
29.8879
9.38301
36.0032
7.2096
11.9223
10.6179
-1.82906e-14
8.49078
14.8795
26.6995
8.77588
19.6596
-4.93308e-15
38.5658
16.6383
0
35.0181
0
-5.717e-15
0
7.79035
0
20.5265
0.573344
0
0
0
0
0
0
0
-4.7649e-16
6.82235
44.7678
30.4683
6.88468
-1.46196e-15
48.3658
-4.98441e-15
14.8262
10.7008
32.9682
25.4933
0
0
0
0
0
0
0
0
0
5.95202
52.7944
23.623
17.5011
5.05266
14.4662
1.50308
990.38
178.73
2458.75
1504.43
828.339
236.427
2850.88
118.729
12.6534
28.844
8.26156
10.7266
39.5333
102.532
51.8961
22.7247
0
64.3644
152.031
89.0901
241.447
13.4863
26.9706
0
52.0951
18.0812
31.5019
25.2282
33.7177
25.3871
-7.23903e-15
22.2949
22.2937
0
-9.72204e-15
0
15.2505
11.6795
17.972
70.4016
13.4355
0
24.0866
58.6914
43.6196
9.36762
-6.01625e-15
8.94787
3.5452
27.9719
0
17.1325
27.3748
21.3108
32.2206
0
41.8318
35.0165
17.6346
46.8903
-4.82342e-15
0
-2.15627e-15
0
0
33.6827
3.49175
9.8323
25.7947
13.2913
21.2842
48.6394
9.26401
45.0037
31.8381
0
25.4266
6.58927
14.7
2.15124
0
12.7314
9.13904
0.23559
746.196
233.086
2963.82
788.716
727.728
182.938
3132.7
174.148
7.32336
12.7065
136.299
139.259
14.7572
100.403
67.0164
313.18
308.509
224.814
285.555
258.742
327.797
-1.87201e-14
0
40.4131
34.5468
69.967
56.8511
62.4992
47.9092
15.1306
0
15.8855
10.8164
10.5329
11.0603
11.2616
11.6995
36.8097
21.1695
39.7459
13.7901
3.33858
35.3481
41.1642
25.6403
-7.88099e-15
6.40374
1.87957
5.4549
16.5355
0
23.0115
53.6513
26.6286
19.3893
68.6138
31.9033
12.0491
-1.51337e-14
29.2997
0
35.2614
18.4418
0
-1.57714e-14
46.2592
20.5122
30.3441
49.5817
15.679
14.6004
42.5909
5.74785
15.866
71.6849
0.461008
0
6.17915
18.2401
0
5.21484
6.18287
-1.40708e-14
0
687.404
194.489
2583.97
600.586
667.839
200.56
3464.14
293.745
0
0
93.9718
86.2377
0
35.6655
78.6656
226.989
166.79
131.125
287.725
141.603
377.251
22.4238
13.1142
19.7223
132.644
58.5925
0
165.324
56.7204
28.3841
13.1196
25.1714
25.087
9.55722
0
0
51.6441
53.2676
29.6167
43.3878
35.793
40.6421
39.661
57.8681
35.307
26.155
0
12.4832
5.27174
10.353
12.3763
0.219279
72.5917
78.6143
32.7431
36.0665
26.2608
48.9112
-1.28856e-14
31.1308
0
0
35.2458
0
22.7309
25.2586
13.2707
8.31889
7.36824
8.41184
28.3942
111.962
5.99612
-2.5908e-14
91.4498
0
0
12.3798
0
0
0
0
0
0
569.924
214.492
3801.92
371.259
531.231
212.631
3597.2
424.844
0
0
22.2908
58.6951
30.0121
14.3072
5.95518
300.386
65.3165
107.97
289.628
118.372
580.294
12.757
82.477
14.3808
200.127
48.9863
47.7333
316.625
53.7314
30.6479
9.78495
-5.14508e-15
32.9461
36.8811
11.0809
8.75438
73.0642
68.3026
62.3835
96.3166
71.6197
190.22
153.889
262.811
256.48
7.92623
-9.63733e-16
13.0019
0
29.9649
0
34.9777
74.4065
120.457
18.5983
0
24.2018
8.5314
0
19.0168
8.15899
14.8338
35.114
9.87555
47.1685
15.5003
26.5918
-1.12524e-14
19.594
0
51.9092
154.265
26.8727
5.04489
217.051
0
0
0
0
0
-1.10491e-16
0
9.00796
0
485.738
198.74
3207.5
325.99
498.225
240.724
2929.26
469.829
38.33
-1.13605e-14
-4.52703e-15
13.1719
9.69907
31.9072
50.8315
264.196
74.4953
91.5413
297.195
113.531
546.881
358.138
2255.88
17.8467
634.533
61.4862
16.1064
3147.05
102.191
31.2955
8.56417
29.7298
24.7505
14.1617
2.67719
7.99961
138.408
177.378
908.053
473.607
264.023
759.422
4345.03
1325.33
663.063
27.8117
6.27563
30.1509
9.9876
96.5273
4.77608
39.706
113.278
375.108
40.4332
0
18.3092
17.1632
19.2054
21.5156
49.8385
86.3889
469.4
204.741
234.524
18.7078
18.7485
0.944842
15.9866
14.4006
91.3981
335.146
114.533
159.093
469.036
0
0
0
0
6.02714
1.1071
0
0
6.51324
471.099
297.875
1765.83
171.939
374.918
359.991
853.423
657.902
12.7518
1.03521
5.41264
23.9599
21.7676
-4.69252e-15
30.3376
370.601
143.15
132.921
379.1
170.565
674.296
1727.49
550.368
0
4869.09
653.831
0
1194.27
1763.54
16.3855
13.4836
0
30.7329
245.65
96.5221
1242.01
473.402
2419.35
2745.79
2093.18
762.384
1076.88
330.105
1703.67
418.022
597.364
12.3066
423.019
1845.34
1952.18
250.493
2228.94
674.378
2147.13
10.1669
0
7.40335
1224.25
0
20.8969
544.396
555.442
2229.43
1086.6
855.888
13.8142
43.2744
0.621199
21.1165
26.6544
875.524
707.026
607.433
1837.86
508.214
21.8913
26.6273
6.329
9.61578
0.526704
13.2761
-3.6557e-15
20.3601
3.42296
451.357
366.875
651.068
89.5986
433.227
319.278
413.17
574.554
24.4469
-8.07257e-15
5.13987
28.128
18.6965
15.3859
48.5363
496.753
383.788
329.356
553.936
518.755
596.351
209.083
82.6998
147.599
152.939
660.126
428.323
112.239
298.471
888.535
1993.11
236.695
1225.72
1317.82
2588.27
902.64
1583.58
21.6732
146.255
956.692
457.025
95.0248
93.2543
285.023
393.673
3137.19
539.098
2684.03
296.319
1074.64
295.688
396.957
2260.02
848.036
1438.54
0
4.67661
386.044
21.0157
4.80934
912.131
769.639
627.43
260.452
527.622
5.71457
32.437
6.06441
11.5915
21.2909
1872.19
279.039
150.454
700.56
127.975
56.169
15.6475
0
0
9.33737
17.6422
13.1197
8.85533
16.3268
258.055
273.281
217.863
55.7444
162.62
196.175
223.824
485.097
7.74523
-3.53784e-15
36.535
150.823
16.3625
128.221
464.378
503.275
918.503
499.172
425.446
1700.81
345.456
16.5076
7.99425
338.42
29.1636
76.3087
82.6758
16.8362
46.533
282.795
100.823
217.557
19.0594
13.3515
110.067
21.5494
21.012
-7.09259e-15
135.013
269.734
248.501
14.879
38.6628
35.394
160.081
173.217
54.4192
118.146
54.2738
2.11179
58.2325
55.9874
91.6063
40.6259
661.125
0
697.193
182.752
48.5645
703.238
137.495
302.956
62.4558
140.84
58.1876
21.3868
21.5397
25.342
83.3736
7.07057
168.151
163.762
18.0492
76.7951
215.625
8.14125
0
0
2.30636
0.541556
17.8308
6.5521
21.6676
16.3945
64.6952
145.251
164.089
32.4664
130.697
180.712
153.556
246.508
11.5341
15.7956
406.36
1080.63
197.982
831.619
1772.05
298.542
1867.62
309.251
167.323
1213.29
193.141
-7.53292e-15
22.1869
16.2483
11.309
25.7042
15.8426
54.6504
39.281
4.1549
-7.42036e-15
1.72449
-6.15966e-16
0
1.18139
0.128333
10.2002
7.96749
11.7102
6.10928
116.285
32.4725
24.0334
2.5017
35.4788
5.27269
30.9654
31.2832
81.0914
5.12934
44.4147
23.8382
31.3635
37.9341
6.47781
15.7566
8.36497
5.62628
0
4.04961
57.7898
68.9025
65.2029
42.5255
12.1132
42.1418
12.9737
-7.07398e-15
11.8357
7.93195
83.3557
224.983
30.2492
22.8614
144.118
11.1125
5.92115
0.272886
0
5.55193
5.85102
0
0
26.6725
99.3326
164.355
133.718
47.1297
52.9929
159.258
125.285
146.303
125.174
565.49
778.646
1146.89
1172.88
338.145
546.784
90.357
454.332
82.2313
69.6615
230.376
137.651
8.65899
17.6075
15.4527
11.8453
40.3018
14.7381
28.7125
37.7535
0
0
-1.18446e-14
0
0
0
0
0
18.452
21.8016
10.6645
14.8738
20.162
13.015
6.87514
4.14052
5.31254
56.1985
24.851
0.8613
5.24872
29.1148
25.7112
44.063
22.964
16.014
0
0.145577
5.91337
0
0
43.7566
47.9795
45.9874
32.6642
12.4708
0
7.76139
0
0
0
91.6531
145.009
65.2065
59.7727
123.983
0
0
15.4691
30.2824
169.944
13.9393
6.57931
52.0262
254.81
90.7526
125.269
134.957
40.1394
90.173
97.4004
90.6546
161.155
864.922
665.936
113.4
235.874
209.747
72.4509
164.372
69.1747
157.681
64.8443
61.9474
138.687
97.3187
6.7695
35.3366
30.3752
19.0375
20.5962
78.9356
50.9196
28.1455
10.6714
0
12.3264
0
0
0
0
16.6785
22.0043
20.2802
8.5622
13.8985
41.0923
25.3398
9.67374
7.64233
17.5051
8.27638
11.9791
0
-5.26394e-15
31.6339
18.4507
16.5136
8.89972
16.4117
0
4.13649
6.77399
0
-1.06631e-15
41.9159
41.0848
20.2759
9.47924
35.4623
0
0
43.945
10.3972
7.90719
125.713
119.318
36.2175
74.4726
104.305
0
0
6.66397
216.669
208.177
19.0102
6.65498
138.443
215.684
66.6344
84.1017
98.5372
48.4916
103.26
98.4772
130.397
181.161
511.165
152.764
70.2769
90.9653
81.7691
70.4893
124.129
61.436
51.4953
124.092
87.2995
151.478
62.171
39.7141
38.8374
49.7665
71.8462
60.1005
-2.1966e-14
106.634
38.2822
0
0
0
0
0
0
0
15.3278
1.68508
24.6736
13.5538
0.136992
34.9247
37.7239
10.1619
4.62427
11.2239
22.2676
26.7298
0.768451
12.1258
14.0252
5.45369
7.61429
25.5935
23.5521
0
7.26621
21.1795
0
6.82118
31.4923
32.5903
17.0112
26.2329
-1.2955e-14
4.04559
5.609
17.5821
1.32512
23.4498
40.6493
131.607
36.4183
33.252
48.0454
57.7348
33.3823
7.12764
151.348
197.777
32.3687
1.12886
204.318
134.375
94.7769
87.1583
90.2836
26.7083
81.2061
120.682
91.5257
268.311
111.171
80.1274
83.1871
25.5904
21.0681
71.4422
60.8727
78.4563
55.4468
67.69
95.1591
116.944
72.5942
122.697
97.7309
0
105.697
24.6407
0
95.2333
19.0937
0
4.6323
1.92918
0
5.89966
0
12.9171
9.47717
15.442
33.3407
10.0968
0
97.6091
33.9585
4.42975
0
13.5974
4.2264
12.2967
0
6.33287
4.29295
13.6711
18.1572
16.2483
21.1012
0
18.144
37.4578
0
27.2094
17.8827
0
10.2531
12.8521
0
12.5533
50.7412
0
15.1834
80.5165
3.43471
53.6901
58.0492
35.8027
113.815
41.9432
80.3671
363.166
242.733
146.424
51.3873
82.923
43.6666
37.0387
116.681
136.769
92.0705
70.6615
58.0339
132.811
102.43
168.318
73.0655
46.986
95.5366
45.3051
21.2372
68.0607
36.7688
51.7992
95.3831
126.082
36.2506
46.817
24.5545
12.7353
3.95904
0
64.7335
11.2765
0
5.90045
-2.976e-15
0
9.33766
0
0
-8.27584e-15
-3.07036e-15
0
0
0
55.6008
15.3157
0
46.3022
54.6816
15.1207
7.92193
8.8481
11.7041
8.36535
5.06772
13.0114
14.9031
13.096
-7.06247e-15
0
9.60954
69.5081
170.067
23.8005
440.916
184.35
19.7482
61.1208
20.824
26.6149
29.7703
38.9474
72.8746
289.56
181.001
50.5127
48.3231
79.8165
30.3667
61.6902
54.2754
52.6352
46.8888
43.1749
44.5643
28.4409
46.1715
8.56889
18.3477
28.1047
102.075
105.122
84.3383
91.5213
113.594
126.952
48.0945
181.734
28.1821
13.0098
59.356
26.7806
8.99705
37.1995
46.2197
54.5772
33.354
76.4408
44.7485
124.006
112.373
0
0
0
0
0
0
0
0
0
19.9803
32.0337
5.70983
7.77508
0
0
7.27098
10.6579
109.641
22.9936
207.833
0
2.94886
5.3799
70.1694
17.8123
12.6272
12.8615
7.00642
7.18607
15.6557
22.7415
0
9.455
28.6325
406.665
106.61
46.7563
16.689
24.6889
15.746
0.475385
10.4179
32.9181
14.1785
121.502
55.0338
37.6907
34.5808
30.1575
45.429
97.3966
53.6856
90.0575
72.4504
49.9771
66.017
37.1692
0.981348
32.5744
53.2329
174.639
9.62076
4.71034
65.5056
125.208
84.1582
53.1613
72.0738
139.607
95.725
93.7347
8.61225
8.27153
39.5725
40.7929
10.9777
47.6887
37.5066
69.8814
60.6691
88.3894
77.0918
38.3568
83.8151
0
0
0
0
0
0
0
0
3.59191
7.84411
81.5519
7.07476
10.5296
0
16.2856
31.3668
15.4234
0
0.332865
-4.09229e-15
0
0
4.74015
0
18.7153
13.4541
10.6393
9.15073
8.17885
9.00719
21.0393
12.8258
23.2542
8.27525
0
10.6277
8.20484
30.4908
6.58345
30.7201
40.0067
8.32808
22.0092
35.8675
29.8171
29.4033
19.3672
56.2627
29.7259
29.8124
94.9921
28.9046
14.3644
70.5357
78.4596
57.8134
13.3679
-4.25909e-16
0
19.4334
0
0
0
58.9122
80.846
127.046
81.6088
63.8438
95.6235
77.0289
114.553
-5.19102e-15
0
28.3873
12.7126
8.67343
46.8574
30.9091
47.3759
48.9741
45.4589
44.5159
52.4952
50.5566
0
0
0
0
0
15.4765
0
0
5.18926
9.27325
34.3919
9.87462
21.0413
7.6975
0.713407
25.8703
14.765
0
0
4.69747
0
2.99049
3.83808
-3.33007e-15
0
17.8773
4.34318
3.92291
0.603895
9.77646
8.07654
9.4469
0
-5.03884e-15
30.6223
6.2956
7.2395
28.7962
1.64945
16.8753
15.2495
5.33513
15.1477
0
38.7441
150.93
36.0651
37.3998
34.5565
45.7197
72.2813
34.3455
15.1543
78.8675
20.8642
-3.98792e-15
0
0
0
0
0
0
0
78.0942
84.8522
77.3449
54.0032
72.8281
61.5057
77.5219
82.7481
0
0
31.5383
13.1963
14.5255
50.7272
33.9544
45.7953
78.5015
29.8951
29.9059
13.2135
83.2725
0
0
32.1284
0
0
21.8976
0
0
22.0439
6.17697
25.8244
3.67818
0
-2.46475e-16
7.91059
3.3664
11.244
8.32597
0
0
0
-3.14245e-15
0
0
19.4658
10.6444
12.4978
12.2324
9.68007
24.5951
20.0734
14.4511
-4.46473e-15
14.7781
-1.30947e-14
4.83506
15.6513
0
9.67272
15.7545
52.6598
13.9096
13.6421
35.064
13.7715
33.6556
0
1.81262
-5.83258e-15
33.5292
56.0731
9.34416
30.5211
57.2965
0
0
0
0
0
0
0
0
0
53.195
98.8619
125.006
49.3215
50.6989
81.4013
54.5577
50.8311
0
0
45.2056
59.42
3.25054
28.6908
-1.21022e-14
70.3513
87.9
69.7151
24.089
34.3113
48.0378
0
0
4.05232
0
7.55851
0
0
14.8347
15.6412
13.3524
8.245
7.11496
8.92361
19.4795
7.79806
23.3233
3.25665
3.04132
0
0
0
0
0
0
16.2251
14.8868
7.0545
0
8.16744
14.638
22.1071
20.2751
5.01592
29.2379
0
0
5.73212
0
0
20.7239
2.07252
21.5266
4.11691
12.8263
0
0
0
0
0
-1.35165e-14
58.0354
9.51137
51.0561
60.6203
0
0
0
0
0
0
0
0
0
77.2901
56.1876
59.299
59.035
45.6972
79.3929
82.3539
116.688
0
0
33.8693
24.822
-1.48286e-15
39.2678
2.72889
40.7872
43.9728
48.3534
32.9748
21.6517
50.1253
0
0
0
0
18.6233
0
0
18.5486
9.8522
31.2137
0
3.46774
8.88571
50.5815
8.47135
0
9.55161
0
0
0
0
0
0
0
16.5115
15.1517
7.67168
13.1589
3.90571
25.7425
36.4232
0
21.1239
-4.05438e-15
0
0
0
0
0
8.70189
34.3543
14.6426
8.25395
27.9404
0
0
0
0
0
7.97256
64.1994
23.9273
10.2111
33.746
0
0
0
0
0
0
0
0
0
64.641
41.7997
85.2853
37.0375
42.3178
45.8822
84.5969
64.0572
0
0
28.2533
0
0.143473
40.8718
27.1381
32.4337
20.9315
26.4124
45.1924
40.5652
25.3188
0
0
0
0
9.76561
0
0
0
7.05769
10.6898
0
3.58803
7.62597
34.8518
24.4221
0
0
0
0
0
0
0
0
4.64911
32.8777
27.4424
27.3982
25.0277
75.6865
23.896
13.8514
32.5415
46.9117
0
0
0
0
0
0
8.24291
14.6924
6.77904
11.016
0
0
0
0
0
0
35.9919
40.2654
21.413
5.08767
20.609
0
0
0
0
0
0
0
0
0
51.8289
44.2304
56.4393
27.056
37.2412
21.3212
26.3422
65.2847
0
0
26.5764
51.8453
-4.66327e-16
11.41
22.3394
34.6368
25.855
40.845
63.2006
36.9927
45.5243
0
0
0
0
0
0
0
0
12.2821
2.38509
0
3.1108
4.75102
-8.24609e-16
0
0
0
0
0
0
0
1.40069
0
9.67984
67.9891
11.8077
37.5168
26.6327
94.5377
0.17092
38.1585
50.9338
7.25814
0
0
0
0
0
0
9.41564
0
0
11.9038
0
0
0
0
0
0
12.3157
24.5788
20.0878
32.4835
26.2135
0
0
0
0
0
0
0
0
0
56.522
30.827
46.9011
33.4372
46.8258
24.9285
42.6961
22.886
0
0
32.1518
27.6969
6.10642
9.99213
62.4438
10.2419
55.7849
37.5005
1.42902
42.0531
27.1025
0
0
0
0
0
0
0
0
0.715189
0
0
0
0
0
0
0
0
0
0
4.50904
0
0
0
-4.16493e-15
59.2968
0
50.6453
27.055
28.2557
4.324
12.7903
5.79591
0
0
0
0
0
0
0
3.88339
0
5.26085
4.12043
0
0
0
0
0
0
14.1181
36.3217
7.07
28.4882
39.9081
0
0
0
0
0
0
0
0
0
49.9425
34.5173
61.9113
11.5364
56.1811
15.6354
31.68
70.378
0
0
1.17278
83.6468
0
19.9103
39.7172
19.8016
104.941
19.4615
22.3147
49.5818
21.0185
0
0
0
0
0
0
0
0
0
0
0
0
0
0
0
0
0
0
0
0.342198
0
0
0
4.39465
0
11.6747
4.15933
12.9465
0
5.35314
10.8651
8.7059
14.1363
0
0
0
0
0
0
9.47791
0
0
21.563
42.8788
0
0
0
0
0
15.1122
32.846
29.609
14.5875
41.8834
0
0
0
0
0
0
0
0
0
41.3332
33.0596
23.3834
17.0075
37.7436
25.8615
53.4157
55.4405
0
0
49.8115
-1.69009e-14
-3.09734e-15
31.3749
0
13.7679
33.4505
51.1399
21.8819
-1.21906e-14
60.2398
0
0
0
0
0
0
0
0
0
0
0
0
0
0
0
0
0
0
0
0
0
0
0
0
0
0
0.917187
0
0
10.663
4.36292
-1.0215e-15
16.6459
0
0
0
0
0
0
19.3282
26.7267
0
38.7161
25.2116
0
0
0
0
0
39.5959
42.0239
18.2675
57.4731
61.1269
0
0
0
0
0
0
0
0
0
42.2612
44.5997
45.9103
4.76701
35.5296
17.7338
41.8893
95.7173
0
0
3.3704
0
0
0
0
46.2231
6.45496
18.8973
61.7605
0
41.8874
0
0
0
0
0
0
0
0
0
0
0
0
0
0
0
0
0
0
0
0
0
0
0
0
0
5.36013
1.07028
0
0
5.03248
9.70626
20.4649
24.574
0
0
0
0
0
0
36.8708
4.79055
37.7492
26.9582
106.202
0
0
0
0
0
34.4391
48.9182
38.4847
36.7461
59.4353
0
0
0
0
0
0
0
0
0
17.7497
26.5909
43.2579
0
14.3065
19.5024
30.6383