/*--------------------------------*- C++ -*----------------------------------*\
| =========                 |                                                 |
| \\      /  F ield         | OpenFOAM: The Open Source CFD Toolbox           |
|  \\    /   O peration     | Version:  5.x                                   |
|   \\  /    A nd           | Web:      www.OpenFOAM.org                      |
|    \\/     M anipulation  |                                                 |
\*---------------------------------------------------------------------------*/
FoamFile
{
    version     2.0;
    format      ascii;
    class       volScalarField;
    location    "0.4";
    object      voidfraction;
}
// * * * * * * * * * * * * * * * * * * * * * * * * * * * * * * * * * * * * * //

dimensions      [0 0 0 0 0 0 0];

internalField   nonuniform List<scalar> 
10571
(
0.449422
0.416236
0.533545
0.612302
0.473698
0.663031
0.760419
0.467063
0.470704
0.474848
0.45352
0.660277
0.587576
0.450154
0.458357
0.450459
0.6167
0.51573
0.45748
0.448345
0.422949
0.547425
0.444676
0.420591
0.432076
0.407053
0.432957
0.529816
0.461086
0.430895
0.875657
0.995763
0.992622
0.954776
0.42619
0.51526
0.928421
0.989948
0.882342
0.979359
0.454678
0.899261
0.997471
0.609555
0.477888
0.472801
0.996303
0.938868
0.442492
0.776303
0.414226
0.455585
0.434655
0.434284
0.694028
0.865582
0.960279
0.979674
0.443243
0.410618
0.855727
0.991814
0.930628
0.993026
0.418643
0.899518
0.998232
0.771845
0.866124
0.583051
1
0.998056
0.984506
0.993007
0.979948
0.910642
0.979607
0.984693
0.923273
0.948242
0.990324
0.990882
0.96758
0.697245
0.974298
0.997671
0.930878
0.992499
0.818581
0.991915
0.999415
0.76488
0.924344
0.995009
1
0.99797
0.996812
0.997312
0.998685
0.997465
0.995514
0.996118
0.999556
0.999927
0.997382
0.988757
0.990434
1
0.99985
0.99977
0.942617
0.986723
0.997565
0.998585
0.99871
0.728069
0.956254
0.999264
0.999155
1
0.991644
0.998376
0.995445
0.999018
0.995741
0.997128
0.999329
0.999887
0.999483
0.995184
0.543177
0.993622
0.999222
0.99964
0.998209
0.955944
0.996261
0.426451
0.99567
0.997802
0.99866
0.712127
0.955846
0.997638
1
0.997546
0.994723
0.99832
0.996287
0.999018
0.998253
0.993917
0.999674
1
0.999639
0.997461
0.999284
1
1
0.999876
0.996414
0.96935
0.998342
0.999232
0.999128
0.998357
0.997986
0.677577
0.957788
1
0.993689
1
0.993985
0.998901
0.995127
0.995072
0.997867
0.998828
0.99706
0.998775
1
0.998866
0.996988
1
1
1
1
0.99565
0.98576
0.998685
1
0.997684
0.998928
0.997008
0.691159
0.968604
1
0.995354
0.999124
0.985617
0.997911
0.998376
0.998853
0.998036
0.998282
0.996688
0.998653
0.999887
0.999673
0.998327
1
0.996811
1
0.999888
0.994639
0.992291
1
1
0.997654
0.999017
0.995926
0.718489
0.955066
0.995005
0.999094
0.947576
1
0.995799
0.997537
0.996718
0.999699
0.985201
0.997112
0.999775
0.999759
0.995615
0.99989
1
0.999664
0.994911
0.993796
0.997415
0.999429
0.998649
0.994501
0.777044
0.95392
0.996167
0.963278
0.921956
0.997911
0.996696
0.994334
0.996654
1
0.98132
0.995903
0.999777
0.999692
0.999922
0.9989
0.998073
0.999665
0.995418
0.995817
0.999303
0.999128
0.999883
0.995776
0.835292
0.912109
1
0.972311
0.922358
0.994173
0.99916
0.995246
0.991587
1
0.991995
0.991674
0.999221
0.999956
0.994771
0.99956
0.997634
0.999554
0.99472
0.997038
0.99864
1
0.999414
0.99607
0.866405
0.892044
0.996632
0.976176
0.868883
0.996701
0.996752
0.986818
0.9925
0.9997
0.972104
0.991754
0.998511
0.999774
0.990582
0.993623
0.995234
0.998661
0.994927
0.995481
0.995435
1
0.999532
0.997057
0.896547
0.87771
0.998142
0.977504
0.861446
0.993843
0.928097
0.860732
0.994662
0.997386
0.978014
0.994601
0.998146
0.99962
0.977128
1
0.995775
0.997815
0.995791
0.996871
0.993591
0.999549
0.99977
0.995755
0.950655
0.860113
0.998839
0.974817
0.840299
1
0.671621
0.841483
0.998041
0.968936
0.97045
0.997184
0.993261
0.99072
0.827569
1
0.998039
0.998311
0.995458
0.996932
0.943343
0.999128
1
0.996034
0.975027
0.869079
0.999264
0.949663
0.837292
0.993513
0.938905
0.98375
0.82139
0.662021
0.947317
0.996921
0.996937
0.991503
0.674598
1
0.99902
0.998277
0.995172
0.99615
0.913292
0.995701
0.999742
0.996349
0.989116
0.879719
0.99911
0.896579
0.890221
0.935559
0.987513
0.984293
1
0.981042
0.91275
0.997818
0.992183
0.994189
0.957932
0.997471
0.998614
0.999019
0.996264
0.99692
0.986333
0.998016
0.999766
0.997384
0.987381
0.921923
0.994696
0.899619
0.920243
0.99989
0.990033
0.995011
1
0.988464
0.935238
0.996528
0.998139
0.994637
0.98546
0.998351
0.990639
0.998081
0.996236
0.996802
0.989297
0.999128
0.998938
0.997029
0.986547
0.95352
0.850236
0.943392
0.96171
0.993734
0.993336
0.987697
1
0.998799
0.987372
0.995254
0.997667
0.995089
0.987442
1
0.99902
0.998727
0.995876
0.99621
0.991143
0.999339
0.997731
0.99626
0.990687
0.93742
0.867074
0.987682
0.97305
1
0.995856
0.998989
0.992299
1
0.996151
0.993377
0.998288
0.993781
0.989302
1
0.999797
0.998635
0.997348
0.994565
0.99069
1
0.997311
0.997392
0.991154
0.95219
0.966901
0.981855
0.98845
1
0.992441
0.998146
1
0.998258
0.998042
0.987822
0.9981
0.995856
0.992712
0.996812
0.989726
0.997569
0.997812
0.993568
0.995617
0.988396
0.99276
0.997542
0.988483
0.94442
0.98192
0.974003
0.97487
1
0.987289
0.999056
1
0.998949
0.995442
0.991343
0.997989
0.996793
0.99748
1
0.979486
0.987419
0.99813
0.992862
0.989269
0.939458
0.980046
0.997445
0.991388
0.96458
0.997909
0.980617
0.9909
0.996922
0.984321
0.988708
1
0.998168
0.998109
0.994861
0.99683
0.995885
0.997364
1
0.996113
0.991096
0.998792
0.990799
0.990206
0.997565
0.996334
0.992937
0.991655
0.96087
0.997522
0.979319
0.99258
1
0.993001
0.973403
1
0.998228
0.998379
0.999081
0.996995
0.99727
0.998139
0.95789
0.994289
0.996796
0.99662
0.991168
0.993864
0.996964
0.997133
0.991442
0.98855
0.96031
0.995006
0.987199
0.98243
1
1
0.998685
1
0.999129
0.999055
0.9995
0.99706
0.997432
0.999263
0.996812
0.996451
0.999662
0.995098
0.989437
0.995405
0.996303
0.998611
0.993071
0.981807
0.97116
0.994773
0.990188
0.98656
0.992522
1
0.998685
1
0.999129
0.999021
0.999798
0.998116
0.996773
0.996627
0.990322
0.999054
0.999481
0.995636
0.990082
0.992866
1
0.998405
0.992189
0.987883
0.97326
0.998413
0.988437
0.99251
0.995711
1
0.998213
1
0.999129
1
0.999668
0.998035
0.996765
0.999922
0.993624
1
0.999477
0.994103
0.988173
0.996856
1
0.998704
0.993758
0.98815
0.98334
0.996632
0.991486
0.98467
0.9989
1
0.999798
0.999223
0.999279
1
1
0.998473
0.996123
0.999574
1
1
0.999592
0.99607
0.990921
0.99604
1
0.999507
0.993281
0.994993
0.98026
0.998877
0.997283
0.98971
1
1
1
0.998818
0.999129
1
0.999889
0.999348
0.996478
0.997597
1
1
0.999888
0.997166
0.993227
0.993743
1
0.999548
0.994906
0.988617
0.9832
1
0.987197
0.99524
1
1
0.998045
0.99723
0.994263
1
0.999889
0.999547
0.997213
0.997751
1
1
0.999996
0.996918
0.995286
0.994136
1
0.999629
0.995149
0.991287
0.98334
1
0.989613
0.99258
1
1
1
0.999966
0.998257
1
1
0.999555
0.997642
0.998721
1
1
0.999777
0.998989
0.995185
0.994135
1
0.999883
0.99772
0.99506
0.97914
0.999729
0.995592
0.99552
1
1
1
0.997264
0.996034
1
1
0.999447
0.998469
0.998876
1
1
1
0.999431
0.995448
0.995043
1
0.999976
0.997655
0.997797
0.98712
1
0.994475
0.98789
1
1
1
0.995406
0.994652
1
0.974984
0.99807
0.997423
1
1
1
0.998781
0.998846
0.997576
0.994891
1
0.998264
0.998771
0.99566
0.97914
0.994735
0.987801
0.98957
1
1
1
0.997061
1
1
0.999912
0.997874
0.99834
1
1
1
0.998354
0.998761
0.998914
0.99208
1
0.994117
0.996204
0.999633
0.97865
1
0.989915
0.98677
1
1
1
1
1
1
1
0.997306
0.999624
0.994533
1
1
0.999896
0.999334
0.998983
0.991415
1
0.999992
0.997073
0.999132
0.957999
1
1
0.968566
1
1
1
1
1
1
1
0.989692
0.993538
0.985926
1
1
1
0.998707
0.992477
0.995919
1
1
0.997772
1
1
1
1
1
1
1
1
1
1
1
1
0.998995
0.993207
1
1
1
1
0.999864
0.998261
1
1
1
0.999531
0.996128
1
1
1
1
1
1
1
1
1
1
1
1
1
1
1
1
1
1
1
1
1
1
1
1
1
1
1
1
1
1
1
1
1
1
1
1
1
1
1
1
1
1
1
1
1
1
1
1
1
1
1
1
1
1
1
1
1
1
1
1
1
1
1
1
1
1
1
1
1
1
1
1
1
1
1
1
1
1
1
1
1
1
1
1
1
1
1
1
1
1
1
1
1
1
1
1
1
1
1
1
1
1
1
1
1
1
1
1
1
1
1
1
1
1
1
1
1
1
1
1
1
1
1
1
1
1
1
1
1
1
1
1
1
1
1
1
1
1
1
1
1
1
1
1
1
1
1
1
1
1
1
1
1
1
1
1
1
1
1
1
1
1
1
1
1
1
1
1
1
1
1
1
1
1
1
1
1
1
1
1
1
1
1
1
1
1
1
1
1
1
1
1
1
1
1
1
1
1
1
1
1
1
1
1
1
1
1
1
1
1
1
1
1
1
1
1
1
1
1
1
1
1
1
1
1
1
1
1
1
1
1
1
1
1
1
1
1
1
1
1
1
1
1
1
1
1
1
1
1
1
1
1
1
1
1
1
1
1
1
1
1
1
1
1
1
1
1
1
1
1
1
1
1
1
1
1
1
1
1
1
1
1
1
1
1
1
1
1
1
1
1
1
1
1
1
1
1
1
1
1
1
1
1
1
1
1
1
1
1
1
1
1
1
1
1
1
1
1
1
1
1
1
1
1
1
1
1
1
1
1
1
1
1
1
1
1
1
1
1
1
1
1
1
1
1
1
1
1
1
1
1
1
1
1
1
1
1
1
1
1
1
1
1
1
1
1
1
1
1
1
1
1
1
1
1
1
1
1
1
1
1
1
1
1
1
1
1
1
1
1
1
1
1
1
1
1
1
1
1
1
1
1
1
1
1
1
1
1
1
1
1
1
1
1
1
1
1
1
1
1
1
1
1
1
1
1
1
1
1
1
1
1
1
1
1
1
1
1
1
1
1
1
1
1
1
1
1
1
1
1
1
1
1
1
1
1
1
1
1
1
1
1
1
1
1
1
1
1
1
1
1
1
1
1
1
1
1
1
1
1
1
1
1
1
1
1
1
1
1
1
1
1
1
1
1
1
1
1
1
1
1
1
1
1
1
1
1
1
1
1
1
1
1
1
1
1
1
1
1
1
1
1
1
1
1
1
1
1
1
1
1
1
1
1
1
1
1
1
1
1
1
1
1
1
1
1
1
1
1
1
1
1
1
1
1
1
1
1
1
1
1
1
1
1
1
1
1
1
1
1
1
1
1
1
1
1
1
1
1
1
1
1
1
1
1
1
1
1
1
1
1
1
1
1
1
1
1
1
1
1
1
1
1
1
1
1
1
1
1
1
1
1
1
1
1
1
1
1
1
1
1
1
1
1
1
1
1
1
1
1
1
1
1
1
1
1
1
1
1
1
1
1
1
1
1
1
1
1
1
1
1
1
1
1
1
1
1
1
1
1
1
1
1
1
1
1
1
1
1
1
1
1
1
1
1
1
1
1
1
1
1
1
1
1
1
1
1
1
1
1
1
1
1
1
1
1
1
1
1
1
1
1
1
1
1
1
1
1
1
1
1
1
1
1
1
1
1
1
1
1
1
1
1
1
1
1
1
1
1
1
1
1
1
1
1
1
1
1
1
1
1
1
1
1
1
1
1
1
1
1
1
1
1
1
1
1
1
1
1
1
1
1
1
1
1
1
1
1
1
1
1
1
1
1
1
1
1
1
1
1
1
1
1
1
1
1
1
1
1
1
1
1
1
1
1
1
1
1
1
1
1
1
1
1
1
1
1
1
1
1
1
1
1
1
1
1
1
1
1
1
1
1
1
1
1
1
1
1
1
1
1
1
1
1
1
1
1
1
1
1
1
1
1
1
1
1
1
1
1
1
1
1
1
1
1
1
1
1
1
1
1
1
1
1
1
1
1
1
1
1
1
1
1
1
1
1
1
1
1
1
1
1
1
1
1
1
1
1
1
1
1
1
1
1
1
1
1
1
1
1
1
1
1
1
1
1
1
1
1
1
1
1
1
1
1
1
1
1
1
1
1
1
1
1
1
0.486183
0.489487
0.475899
0.524323
0.484741
0.61802
0.556773
0.498422
0.640997
0.477793
0.498227
0.527337
0.558333
0.59936
0.91796
0.810037
0.895268
0.901965
0.833934
0.80665
0.707169
0.607585
0.522908
0.631808
0.550269
0.516119
0.836001
0.644718
0.624657
0.648856
0.68623
0.662093
0.800716
0.886403
0.806834
0.812112
0.746641
0.693219
0.62207
0.608994
0.553923
0.56895
0.532835
0.534744
0.51517
0.517921
0.480057
0.483413
0.673712
0.659875
0.624121
0.741151
0.808121
0.828764
0.79649
0.769956
0.651113
0.710457
0.619258
0.581704
0.523003
0.542556
0.503654
0.507075
0.495969
0.486893
0.470109
0.465248
0.468419
0.453714
0.615782
0.69528
0.765658
0.577821
0.691719
0.669997
0.575047
0.689243
0.582035
0.522327
0.480185
0.523014
0.477881
0.463866
0.44939
0.459535
0.434106
0.446115
0.569994
0.591181
0.555503
0.524431
0.504827
0.476376
0.495195
0.449172
0.416937
0.409344
0.433713
0.468085
0.4497
0.436889
0.441084
0.441019
0.480563
0.47907
0.419289
0.44839
0.46726
0.45569
0.440159
0.572703
0.400474
0.46052
0.569897
0.569803
0.414642
0.431336
0.437674
0.461456
0.469433
0.444263
0.458213
0.462229
0.447226
0.755566
0.536661
0.471968
0.485647
0.598465
0.437812
0.493063
0.433494
0.404009
0.437444
0.448711
0.491545
0.611882
0.709234
0.580115
0.50415
0.514585
0.405178
0.43393
0.448692
0.481471
0.445031
0.585995
0.584369
0.485589
0.519447
0.438075
0.771542
0.579089
0.654204
0.527245
0.693048
0.468673
0.53137
0.441454
0.443645
0.416608
0.460706
0.439447
0.458601
0.427845
0.44414
0.502671
0.486438
0.470519
0.516885
0.493319
0.544059
0.458372
0.445782
0.460515
0.714164
0.635675
0.50905
0.474683
0.418992
0.411713
0.422756
0.433708
0.43332
0.441099
0.435199
0.419725
0.432203
0.43974
0.420463
0.422911
0.427611
0.432314
0.425921
0.414261
0.43915
0.425455
0.424811
0.432476
0.420713
0.420326
0.423048
0.413221
0.449837
0.9653
0.797471
0.444064
0.44886
0.924602
0.88606
0.807661
0.956551
0.435839
0.425851
0.434954
0.444804
0.429802
0.416688
0.987728
0.970182
0.974774
0.990244
1
0.437431
0.450274
0.427858
0.43025
0.440196
0.984346
0.73963
0.996828
1
0.961265
0.426869
0.435353
0.629703
0.447808
0.488339
0.428778
0.462033
0.431363
0.43176
0.433283
0.731041
0.462786
0.732027
0.429513
0.926983
0.629874
0.729605
0.467064
0.441138
0.756094
0.611672
0.476293
0.872212
0.843383
0.997573
0.93326
0.999111
1
0.996093
0.999932
0.575393
0.973947
0.427916
0.45197
0.41536
0.692554
0.750472
0.516632
0.406973
0.424525
0.610803
0.485804
0.524168
0.427206
0.679279
0.804857
0.987224
0.517868
0.601627
0.436987
0.998382
0.928057
0.971183
0.771106
0.534988
0.678594
0.861787
0.729977
0.894964
0.759974
0.954816
0.920354
0.962902
0.664342
0.509432
0.457351
0.976519
0.872015
0.765619
0.992363
0.996934
0.99335
0.997555
0.996701
0.422962
0.437196
0.627679
0.467938
0.452647
0.999891
0.98928
0.998552
0.994946
0.993235
0.42128
0.457337
0.423406
0.424116
0.41856
0.431342
0.49577
0.436711
0.432148
0.478088
0.97202
0.744202
0.775648
0.520051
0.97969
0.788471
0.891802
0.430512
0.518606
0.95068
0.950508
0.891326
0.995722
0.993862
1
0.996832
1
1
0.999781
0.997974
0.997981
1
0.996373
0.991614
0.950159
0.996702
0.993308
0.985868
0.956793
0.956041
0.994394
0.995338
0.989241
0.977846
0.988494
0.982323
0.98461
0.9974
0.987841
0.987755
0.995633
0.997366
0.991932
0.994315
0.966805
0.958776
0.987126
0.991675
0.974068
0.992877
0.990722
0.986934
0.973641
0.997256
0.993626
0.988392
0.99559
0.998131
0.997276
0.992252
0.997467
0.992967
0.990748
0.990044
0.870363
0.761549
0.993843
0.999061
0.994581
0.996809
0.993638
0.991484
1
0.987458
0.805137
0.982286
0.888557
0.782126
0.716678
0.995493
0.994665
0.984085
0.981847
0.550862
0.986727
0.804832
0.748118
0.572999
0.988009
0.799207
0.939905
0.83688
0.98447
0.998492
1
0.999613
1
1
0.998877
1
0.99997
0.998876
1
1
0.997979
0.994006
0.996702
0.995163
0.994399
0.994722
0.995859
0.9947
0.996062
0.997057
0.996812
0.997606
0.997598
0.99065
0.995532
0.99401
0.993174
0.996077
0.996277
0.995186
0.999944
0.990832
0.991121
0.986329
0.98705
0.992948
0.970559
0.999367
0.993472
0.996105
0.992174
0.99203
0.994221
0.99524
0.996921
0.994368
0.992646
0.993622
0.998001
0.9849
0.9749
0.993678
0.993036
0.937619
0.99682
0.997716
0.995932
0.998485
0.995508
0.985813
0.987555
0.992972
0.947225
0.997595
0.993234
0.996652
0.998715
0.996794
0.993886
0.996362
0.999967
0.998369
0.995338
0.595452
0.987654
0.797351
0.713103
0.617939
0.990437
0.800638
0.968228
0.994823
0.989715
1
1
0.995508
0.99997
1
1
1
1
1
1
0.997686
0.995887
0.996096
0.995162
0.998568
0.99685
0.992193
0.988774
0.988884
0.994969
0.998876
0.993513
1
0.999651
0.988481
0.993582
0.996796
0.99589
0.996045
0.992163
0.995018
0.996751
0.998292
0.991417
0.992574
0.998379
0.998964
0.994201
0.989157
1
0.999022
0.993025
0.992932
0.99295
0.994271
0.993512
0.999122
0.992065
0.990543
0.993972
0.929584
0.993786
0.800976
0.999267
0.997167
0.997873
0.997219
0.404627
0.442182
0.412725
0.976975
0.868813
0.930421
0.759846
0.996485
0.997986
0.994062
0.996364
0.997521
0.817881
0.990714
0.961546
0.998054
0.99873
0.990576
0.995312
0.406551
0.524793
0.372311
0.930816
0.759323
0.973149
0.858592
0.997977
0.998116
0.99967
0.998369
0.996488
0.999038
0.999043
1
0.998214
0.627588
0.981449
0.783986
0.695291
0.653042
0.98944
0.783836
0.958668
0.995032
0.991604
1
1
0.997754
1
1
1
1
1
0.998874
1
0.995867
0.997978
0.990659
0.993183
0.989974
0.994336
0.99934
0.994658
0.992701
0.998272
0.99663
0.998681
0.998091
0.998955
0.997214
0.997913
0.997562
0.991152
0.992688
0.994605
0.995277
1
0.994486
0.995559
0.998892
0.999459
0.999663
0.999142
0.998257
1
0.99936
1
0.994889
1
0.996805
1
0.997617
1
0.99995
0.998384
0.995587
0.996811
0.995123
0.996594
0.996811
0.997122
0.998296
0.997057
0.998894
0.998902
1
0.998487
0.993461
0.999275
0.999497
0.997756
1
0.999148
0.999171
0.999031
0.996
0.99725
1
0.999424
1
0.99634
0.994448
0.996806
0.999931
0.998838
0.995579
0.997007
0.999065
1
0.999276
1
0.999031
1
1
1
0.995605
1
0.996625
0.997124
0.998436
1
0.997243
0.996912
0.690609
0.979989
0.747195
0.696896
0.721348
0.976571
0.748148
1
0.956784
0.999706
1
1
1
0.997971
0.989015
1
1
0.994385
1
1
1
1
0.998248
1
1
0.989873
0.996027
0.995539
0.99989
0.993961
0.994246
0.990544
0.997677
0.990096
0.997152
0.997019
1
0.998364
0.998877
0.996662
0.997982
0.997422
0.996586
0.995954
0.996423
0.994657
0.9986
0.994036
0.9969
0.993094
0.998385
0.999057
0.999154
0.998286
0.990336
1
1
1
1
0.997243
1
0.998579
1
1
1
0.998181
0.9989
0.991427
0.997058
0.991532
0.988368
0.99993
0.999654
0.999111
0.999813
1
0.998342
1
1
1
1
1
1
1
1
0.996182
1
0.997251
0.999879
1
0.997716
0.992657
0.997328
0.998133
0.998832
0.988051
0.998296
0.999665
1
0.999442
1
1
1
1
1
1
0.99934
0.996793
0.997729
0.99994
0.998416
0.991449
0.998153
0.734191
0.972842
0.715615
0.700255
0.768032
0.956714
0.696588
0.999067
0.965038
1
1
1
1
0.993913
0.997971
0.999214
1
0.993727
0.996193
1
1
1
1
0.997789
1
0.978404
0.994493
0.996027
0.995712
0.99551
0.992761
1
0.997252
0.982797
0.995272
0.999613
1
0.996545
0.997831
0.997979
0.997838
0.99993
0.996169
0.995595
0.995619
0.99785
0.996247
0.995685
0.995768
0.998339
0.99391
0.999226
0.998132
0.998252
1
0.998832
0.997682
0.995086
0.99839
0.996555
1
0.993033
0.996903
1
0.993457
1
1
1
0.998733
1
0.996585
0.999966
1
1
1
1
1
1
1
1
0.998877
0.992632
0.995182
0.998877
1
0.988301
1
0.996883
0.997672
0.991612
0.994343
1
1
1
1
1
1
1
1
1
0.999043
0.990437
0.996185
0.997083
0.999406
0.997356
0.999667
0.777506
0.946665
0.655326
0.738803
0.800037
0.934324
0.647762
0.959327
0.997901
0.995312
0.99864
0.998903
0.993573
0.983596
0.991549
0.994995
1
0.988192
0.969588
0.984746
0.940526
0.997979
0.995957
1
0.989589
0.996093
0.993842
0.995201
0.993065
0.994849
1
0.995493
0.995728
1
1
1
0.997283
0.99791
0.996854
0.990136
0.997493
1
0.995806
0.991656
0.99248
0.998373
1
0.998452
0.999429
0.995113
1
0.997329
0.995094
0.996069
0.993884
1
0.992125
0.993962
0.996811
0.991065
1
1
1
1
1
0.994697
0.999458
0.99868
0.995849
0.997831
0.995844
0.988384
0.998189
0.99117
0.992349
1
0.996024
0.998977
0.9973
0.999667
1
0.998021
0.998369
0.99997
0.80614
0.934567
0.64435
0.814032
0.806064
0.949383
0.65958
0.94102
0.998811
0.997971
0.978459
0.97816
0.997716
0.984081
0.989574
0.937688
0.95018
0.960201
0.942253
0.957862
0.920863
1
1
0.991533
0.992957
0.985313
0.989334
0.986998
0.989826
0.997153
1
0.996812
0.998001
0.998878
0.997978
0.997978
0.99798
0.993592
0.996375
0.9941
0.997396
0.999608
0.993949
0.993803
0.995444
1
0.999044
0.999697
0.999129
0.996743
1
0.996252
0.990035
0.995185
0.996362
0.988344
0.994064
0.997755
1
0.9947
1
0.993677
0.996823
1
1
0.992365
0.996631
0.994832
0.991789
0.997367
0.996841
0.989383
0.998912
0.996816
0.982933
0.99993
1
0.999043
0.996738
1
0.999128
0.999044
1
1
0.810392
0.944716
0.653973
0.838028
0.817072
0.944128
0.62816
0.910744
1
1
0.985048
0.98661
1
0.994141
0.987598
0.950257
0.971139
0.975783
0.933377
0.973772
0.901087
0.997979
0.997282
0.996152
0.972062
0.987222
1
0.96533
0.988009
0.994881
0.997368
0.995162
0.995184
0.998142
1
1
0.990597
0.990388
0.994698
0.993207
0.993622
0.995184
0.992901
0.990407
0.993362
0.994664
1
0.997823
0.999429
0.997809
0.998089
0.99994
0.986027
0.985177
0.994156
0.993622
0.995306
0.991331
1
0.994458
1
1
0.993723
1
0.995709
0.995849
0.997754
0.998571
0.998818
0.998645
0.993626
0.973731
0.999426
1
0.977399
1
1
0.998087
1
1
1
1
1
1
0.836645
0.939934
0.629494
0.893461
0.848872
0.940872
0.640308
0.877126
1
1
0.996315
0.990452
0.995432
0.997614
0.999012
0.928037
0.986831
0.978319
0.924126
0.974538
0.852008
0.997003
0.984667
0.996811
0.95616
0.989584
0.990324
0.929345
0.988555
0.994578
0.998142
1
0.99373
0.992374
0.999163
0.998118
0.986626
0.987253
0.988438
0.983554
0.98718
0.972
0.971694
0.955013
0.955196
0.99837
1
0.997792
1
0.993931
1
0.993495
0.985871
0.975026
0.996865
1
0.995821
0.998491
1
0.996881
0.998487
0.996809
0.99341
0.998245
0.990978
0.997334
0.995741
1
0.996819
1
0.989338
0.963303
0.995042
0.999231
0.950444
1
1
1
1
1
1
1
0.998369
1
0.864269
0.943511
0.659174
0.918173
0.865201
0.932504
0.666048
0.87937
0.993913
1
1
0.997805
0.998529
0.994715
0.991549
0.926253
0.984416
0.979104
0.916724
0.975087
0.849752
0.93414
0.705547
0.996701
0.862676
0.98698
0.996811
0.592283
0.977503
0.993337
0.998181
0.994283
0.995124
0.996865
0.99993
0.997978
0.975064
0.967681
0.829927
0.920662
0.953765
0.861626
0.567269
0.781563
0.884623
0.993706
0.999044
0.994191
0.998227
0.97932
0.999242
0.991528
0.976284
0.914087
0.993266
1
0.996941
0.997097
0.996811
0.996517
0.991497
0.983277
0.909129
0.964926
0.957423
0.997001
0.997096
0.99989
0.997546
0.997793
0.980657
0.926671
0.978987
0.966589
0.904134
1
1
1
1
0.999304
0.99982
1
1
0.998941
0.880998
0.917239
0.749008
0.955928
0.904179
0.903556
0.811629
0.84898
0.997971
0.99986
0.999124
0.99572
0.996709
1
0.994622
0.897397
0.967185
0.968626
0.893447
0.953247
0.827491
0.757747
0.886261
1
0.606988
0.868831
1
0.824485
0.753952
0.99685
0.997136
1
0.994397
0.959782
0.98271
0.781509
0.897262
0.655774
0.724762
0.717391
0.856673
0.824275
0.924608
0.727282
0.907496
0.882212
0.997891
0.918945
0.722016
0.721037
0.964115
0.687214
0.857216
0.679383
0.998026
1
0.998758
0.809856
1
0.99679
0.908128
0.900877
0.683088
0.818131
0.85137
0.997758
0.993301
0.99989
0.996819
0.995973
0.833058
0.869834
0.896089
0.738763
0.899762
0.996652
0.996024
0.999044
0.998369
0.999939
0.997986
1
0.996682
0.999425
0.892742
0.905595
0.842378
0.979667
0.900094
0.91581
0.897085
0.874189
0.996082
1
0.999124
0.994732
0.997135
0.997403
0.989793
0.865405
0.907373
0.919165
0.861377
0.87368
0.851715
0.948636
0.979022
0.977459
0.960068
0.878611
0.940734
0.971754
0.9392
0.862612
0.707713
0.964596
0.846165
0.834948
0.688995
0.856524
0.803996
0.992547
0.963098
0.811922
0.891748
0.974128
0.976008
0.921796
0.906032
0.649611
0.923815
0.714081
0.940245
0.830903
0.954164
0.912893
0.708905
0.846232
0.809817
1
0.999122
0.905799
0.996811
0.999122
0.844519
0.862042
0.884051
0.942474
0.891746
0.999121
0.99516
0.99934
0.998728
0.996864
0.75316
0.941615
0.96762
0.861963
0.971001
0.991699
0.997698
1
1
0.998487
0.997384
0.998054
0.998594
0.997397
0.937433
0.931438
0.942637
0.989249
0.961075
0.951626
0.942128
0.888051
0.998741
1
0.99396
0.966525
0.997174
0.977922
0.899027
0.86951
0.783687
0.885104
0.891511
0.735727
0.905134
0.995958
0.997979
0.949192
0.992919
0.983074
0.986148
0.995937
0.98913
0.944451
0.976115
0.964602
0.995093
0.996787
0.972527
0.993866
0.994498
1
0.966818
0.927373
0.938775
0.99636
0.990324
0.990674
0.958638
0.954811
0.990049
0.968955
0.983989
0.999438
0.98952
0.990864
0.974531
0.987759
0.858633
1
0.887745
0.956108
0.992523
0.896086
0.966468
0.930137
0.982791
0.966867
0.981849
0.99691
0.996864
0.996261
0.988153
0.998954
0.959883
0.961973
0.996131
0.977361
0.950567
0.998814
1
1
0.999775
0.999909
0.997384
0.999044
0.996682
0.997366
0.983648
0.962417
0.957663
0.993823
0.969101
0.953698
0.961293
0.93448
0.998111
0.998041
0.92824
0.780236
0.967556
0.852434
0.712494
0.922832
0.705277
0.926842
0.955698
0.79733
0.94603
1
0.994912
0.996812
0.997369
0.994097
0.996811
0.987345
0.990824
0.99894
1
0.99989
1
1
0.999442
0.99993
0.997423
0.998119
0.997065
0.998332
0.970721
0.99216
0.994069
0.999374
0.991083
0.99837
0.994069
0.990801
0.976116
0.998371
0.99097
0.993012
0.990484
0.988949
0.998104
0.997911
0.998244
0.998336
1
0.99897
0.986956
0.980086
0.981512
0.99065
0.9967
0.993941
0.998141
1
0.998273
0.998877
0.977249
0.94839
0.993924
0.994176
0.963916
0.998675
0.999163
0.999967
1
0.999122
0.999188
1
1
0.995883
0.978253
0.959599
0.964627
0.991151
0.987765
0.960741
0.967385
0.962677
0.980482
0.911984
0.857441
0.797978
0.805073
0.924392
0.866627
0.978623
0.886979
0.977802
0.982296
0.937762
0.964148
0.997979
0.995818
0.996812
0.997292
0.990645
0.996811
0.993421
0.991096
1
1
1
1
1
1
1
1
0.995124
0.994669
0.997259
0.996714
0.99496
0.996735
0.998212
0.999024
0.998371
0.989161
0.993617
0.9997
0.99837
0.994694
0.994735
0.98692
0.993633
0.995279
1
0.999909
0.998258
1
1
0.989108
0.98746
0.987166
0.992191
0.996919
1
0.998877
1
1
1
0.979342
0.965703
0.987119
0.987249
0.968363
1
1
0.997758
0.995613
0.974878
0.998076
0.999044
0.992632
0.960041
0.979046
0.96802
0.964571
0.992687
0.980076
0.975094
0.974224
0.958616
0.849803
0.867277
0.970286
0.93383
0.947803
0.979127
0.948846
0.982496
0.952926
0.984477
0.985473
0.963009
0.974791
0.998397
0.991358
0.992963
0.995512
0.994914
0.981416
0.987888
0.993247
0.999122
1
0.996921
1
1
1
1
0.99596
0.994358
0.995088
0.997855
0.999382
0.989416
0.993619
0.997527
0.998243
0.995112
0.998089
0.997066
1
1
0.994068
0.995612
0.996293
0.997551
0.995395
1
0.999122
0.998258
1
1
0.990681
0.99043
0.994921
0.997912
0.991637
1
1
0.993622
0.998818
0.998877
0.973079
0.969651
0.99241
0.983622
0.97301
1
1
0.999044
0.969802
0.964137
0.997384
0.999044
0.979861
0.959462
0.98414
0.979176
0.971916
0.990817
0.976659
0.974456
0.963993
0.950283
0.891579
0.957317
0.979887
0.971462
0.980641
0.980699
0.960162
0.985052
0.983758
0.972215
0.979275
0.957196
0.984035
0.990245
0.989544
0.987247
0.982243
0.985196
1
0.973026
0.99037
1
1
1
1
1
1
1
0.9961
0.999582
0.993651
0.996545
0.999967
0.990647
0.990324
0.997408
0.999056
0.996741
0.99519
0.993829
0.99985
0.996797
0.997133
0.998699
0.997971
0.993983
0.993808
1
0.999122
0.994001
1
0.998819
0.993888
0.992409
0.996085
0.994401
1
0.999424
0.999303
0.997471
0.999818
0.996631
0.99088
0.967715
0.992864
0.993075
0.987415
0.992048
0.995257
0.999011
0.976041
0.960202
0.99552
0.999802
0.967826
0.971602
0.978101
0.977596
0.973555
0.995158
0.982731
0.970077
0.974903
0.930186
0.973137
0.97992
0.980733
0.992536
0.995625
0.981485
0.981343
0.981604
0.98639
0.983995
0.977533
0.967955
0.980533
0.968779
0.974073
1
0.971294
0.993552
1
0.973026
0.995003
1
0.998877
0.99989
1
0.99849
1
0.996654
0.997632
0.995959
0.991254
0.997498
1
0.972167
0.991433
0.998868
1
0.996516
0.999045
0.997187
1
0.99837
0.999044
0.997065
0.995523
0.995942
0.994505
1
0.996639
0.991368
1
0.995214
0.996218
1
0.997674
0.997307
1
0.998182
0.99303
1
0.997728
0.988693
0.999451
0.9892
0.988358
0.997142
0.971732
0.994071
0.98856
0.952392
0.961137
0.969703
0.992753
0.988061
0.993194
0.992523
0.973068
0.967807
0.974516
0.987044
0.987491
0.968556
0.971059
0.954134
0.98041
0.988807
0.978196
0.987378
0.995432
0.985049
0.990452
0.989157
0.977174
0.971611
0.991051
0.987708
0.993418
0.997003
0.999303
1
0.981197
0.996882
1
0.999071
1
1
0.997755
1
1
1
1
1
1
1
0.986014
0.996217
1
0.986447
0.986429
0.996216
0.999219
0.997696
0.997463
0.998124
0.998648
0.996853
0.996803
0.997186
1
1
0.997755
0.989334
0.971929
0.995201
0.934581
0.969774
0.995915
0.987239
0.995503
0.994462
0.993619
0.994245
0.989663
0.958655
0.974033
0.992564
0.99022
0.981303
0.994436
0.987249
0.986369
0.992607
0.993233
0.993769
0.992352
0.99431
0.992963
0.998747
0.996794
0.994006
0.976118
0.974617
0.975985
0.983871
0.974737
0.969073
0.986321
0.948392
0.993074
0.996782
0.985232
0.993085
0.998142
0.991513
0.987928
0.987453
0.990343
0.982665
0.989153
0.969269
0.97206
1
1
1
1
1
1
1
1
1
0.999303
0.998681
0.998607
0.998103
1
1
0.99798
0.997562
0.974724
0.994787
0.960279
1
0.999311
0.998838
0.986853
0.995786
0.997134
0.997338
0.998257
0.99837
0.996539
0.995552
1
0.997971
0.99404
0.932154
0.981558
0.990633
0.996702
0.99573
0.996762
0.99989
0.997751
0.99316
0.996919
0.981826
0.991599
0.993622
0.994758
0.995469
0.99044
0.975845
0.988691
0.981313
0.981684
0.992677
0.990233
0.994395
0.999888
0.993039
0.99161
0.974473
0.998256
0.999273
0.985543
0.97106
0.977285
0.989949
0.983616
0.967036
0.973942
0.974231
0.997971
0.997971
0.990125
0.990451
0.997561
0.988522
0.990452
0.98358
0.984197
0.980701
0.982684
0.990561
0.977942
1
1
1
1
1
1
1
1
0.999122
0.998142
0.996812
0.998243
0.997368
1
0.995956
0.993106
0.996935
1
0.99994
1
1
1
0.998957
1
0.998371
0.997265
0.998064
0.997807
0.998145
0.998088
0.995794
0.997272
0.995313
0.998491
1
0.998092
0.99911
0.993622
0.998819
0.993646
0.991529
0.998178
0.995279
0.992519
0.995305
0.995432
0.996811
0.991001
0.995353
0.994066
0.979483
0.994436
0.996812
0.983426
0.988353
0.99114
0.997956
1
1
0.996752
1
1
1
0.986
0.980848
0.964684
0.985307
0.985416
0.977497
0.978633
0.967859
1
1
0.993537
0.996817
0.998142
0.988764
0.996817
0.990047
0.988587
0.990577
0.989812
0.987488
0.987186
1
1
1
1
1
0.996262
1
1
0.998819
0.997716
0.991535
0.997638
0.994813
0.998048
0.999861
0.994358
0.996657
1
1
0.999057
1
0.999311
0.999136
1
1
0.996837
0.999123
0.999159
0.999944
0.998088
0.998426
0.997971
1
1
0.993622
0.998849
0.99911
0.993734
0.999697
0.99652
0.99681
0.998876
0.996853
1
0.993759
0.976846
0.993514
0.99379
0.994462
0.99044
0.981651
0.993015
0.996812
0.980406
0.996652
1
1
1
1
1
1
1
1
0.981669
0.979024
0.978415
0.989648
0.983005
0.984795
0.978125
0.977872
1
1
0.99245
0.996817
0.996709
0.988583
0.991659
0.98935
0.980905
0.993537
0.993066
0.996927
0.979343
1
1
0.992302
1
1
0.994613
1
1
0.999122
0.99849
0.993514
0.999122
1
1
0.997978
0.999234
0.997631
0.998083
1
1
1
1
1
1
0.996067
0.997924
0.99761
0.997386
0.998033
0.995254
0.996096
0.997272
1
0.997136
1
0.999122
0.99702
1
0.998243
0.996853
0.988889
0.997093
0.997246
0.992629
0.997668
0.994386
1
0.999697
1
0.992967
0.986297
0.998428
0.993625
0.98482
1
1
1
1
1
1
1
1
1
0.987434
0.976684
0.962819
0.990416
0.987918
0.979534
0.984512
0.985365
1
1
0.98919
0.985952
0.999264
0.992781
1
0.983968
0.994403
0.98493
0.994189
0.991549
0.987116
1
1
0.99901
1
0.998214
1
1
0.996518
0.996305
0.996633
0.997911
0.998213
0.997832
0.99526
0.998117
0.995054
0.999304
0.999311
1
1
1
1
1
1
0.996797
0.997134
0.998729
1
0.998426
0.997265
0.995945
0.997972
0.9993
0.994388
1
1
0.998878
1
1
0.995643
0.99956
0.995503
0.999122
0.997249
1
1
1
1
1
1
0.986451
0.997974
0.989228
0.983465
1
1
1
1
1
1
1
1
1
0.981608
0.985804
0.982427
0.98858
0.988742
0.979899
0.976881
0.966529
1
1
0.991967
0.997476
1
0.990395
0.999342
0.990899
0.990012
0.989521
0.992253
0.994732
0.986835
1
1
1
1
0.99561
1
1
0.995609
0.997577
0.992182
1
0.999121
0.997755
0.98822
0.997978
1
0.99798
1
1
1
1
1
1
1
0.996741
0.997134
0.998548
0.997386
0.999326
0.995221
0.993131
1
0.995592
1
1
1
1
1
1
0.998215
0.99681
0.996898
0.998245
0.993619
1
1
1
1
1
0.998352
0.982929
0.994648
0.997802
0.990087
1
1
1
1
1
1
1
1
1
0.983926
0.988722
0.974233
0.992086
0.989138
0.988414
0.973942
0.980043
1
1
0.992963
1
0.999961
0.989943
0.993635
0.992138
0.99517
0.9939
0.989077
0.990234
0.993418
1
1
1
1
0.997669
1
1
1
0.998274
0.997368
1
0.999121
0.998142
0.991914
0.995328
1
1
1
1
1
1
1
1
0.999089
0.993482
0.994926
0.994796
0.995042
0.98533
0.995617
0.997368
0.993284
0.989367
1
1
1
1
1
1
0.998245
0.99681
0.998527
0.99767
1
1
1
1
1
1
0.996813
0.988387
0.995071
0.998681
0.993727
1
1
1
1
1
1
1
1
1
0.986427
0.988144