/*--------------------------------*- C++ -*----------------------------------*\
| =========                 |                                                 |
| \\      /  F ield         | OpenFOAM: The Open Source CFD Toolbox           |
|  \\    /   O peration     | Version:  5.x                                   |
|   \\  /    A nd           | Web:      www.OpenFOAM.org                      |
|    \\/     M anipulation  |                                                 |
\*---------------------------------------------------------------------------*/
FoamFile
{
    version     2.0;
    format      ascii;
    class       volScalarField;
    location    "2.45";
    object      Ksl;
}
// * * * * * * * * * * * * * * * * * * * * * * * * * * * * * * * * * * * * * //

dimensions      [1 -3 -1 0 0 0 0];

internalField   nonuniform List<scalar> 
10571
(
6328.11
7984.14
671.964
179.045
227.434
1312.05
848.288
379.707
991.688
75.8435
45.0087
1528.23
15.4718
1329.37
830.887
4335.69
3437.85
1309.12
725.895
1792.78
7794.26
4109.26
8319.58
7252.36
6296.64
5464.1
4241.93
5570.11
6937.98
2820.21
5041.73
6910.36
1464.35
1549.56
3947.38
1747.46
3384.44
3256.47
4035.7
3304
5571.41
2329.29
3576.79
7668.58
10257.5
6373.8
805.691
11469.9
10232.2
11249.5
10998.4
5883.03
4291.29
4606.71
10193.7
5692.66
1702.92
1202.4
6141.55
1150.27
4275.92
4382.73
3433.61
6196.05
763.525
688.316
609.207
1655.23
804.226
883.24
248.081
179.175
7906.49
12619.3
8602.17
312.159
767.976
7391
2695.18
2747.56
3228.39
5035.63
3496.1
912.327
3191.56
3405.27
2697.32
2830.02
453.342
768.19
608.576
1138.75
54.2368
708.49
1199.74
133.229
5153.04
784.678
603.053
63.0971
276.881
852.439
352.122
1179.31
950.214
2683.42
3677.44
1277.44
439.632
1619.96
610.425
433.849
284.541
399.602
294.406
67.5081
16.8077
459.995
138.542
56.643
1147.26
783.691
309.752
15.2886
22.8449
97.646
71.4342
160.449
78.0929
88.5682
6416.81
1163.55
37.7602
304.116
911.074
156.324
140.762
9552.1
273.597
178.407
600.834
90.4241
3.45308
257.762
303.297
174.64
38.4222
299.275
24.333
29.4829
73.3407
145.188
25.7141
58.3315
17.986
7.22939
0
248.233
95.829
313.634
205.827
34.703
0
0
182.286
182.571
75.1261
0
11.1409
79.7066
205.678
109.702
0
0
187.599
0
530.77
89.1011
55.959
3.89288
1.23165
1.36544
0
0
88.0541
89.9868
85.8872
1.57405
0.0247309
0
0
457.606
231.093
5.06458
0
0
0
172.59
0
0
0
4.75969
0
0
0
51.1099
2.32739
-6.871e-14
1.39768
0
0
250.383
20.9988
1.07804
0.515261
0
0
0
69.3334
7.64612
0.770349
0
41.011
41.6429
0
0
0
0
0
0
0
47.2564
3.42423
1.0038
0.0250982
5.09054
79.5719
37.6683
4.6062
0.339401
0
0
42.2127
5.17832
4.26915
0
9.74804
0
0
0
0
0
0
0
0
21.0311
0.951988
2.7408
1.29006
0
11.4046
52.3195
2.74211
0
2.21613
2.27068
12.3911
1.50234
2.57764
0
5.67588
0
0
0
0
0
0
0
0
0.265261
1.11074
1.40576
-2.13726e-13
1.61831
76.7867
17.6364
4.29187
0.578563
1.22421
5.76052
15.4044
3.01647
2.37761
0
0
0
2.67332
0.581023
0
12.0082
0
0
0
-1.66218e-12
0.884194
1.58478
0.641466
0
0
11.7278
1.64783
0
0
0.727229
8.41687
0
0
0
0
1.36044
0
0
0
7.48869
0
0
0
0
-1.3796e-14
0
0.438636
5.2104
0
4.74109
0.4982
0.917167
0.69041
11.5059
0
1.39013
1.87433
0
26.7642
0
6.034
0.798904
0
0
0
0
0
0
0.234339
0.636635
0
0
0
0
0
1.81609
1.16989
0
0
0.161072
1.39741
0
48.969
0
0
0
0
0
4.95825
0
0
0
0
0
0.659786
0
0
0
0
-1.99229e-13
4.63213
0
0
0
0.134156
0
0
0
5.98124
16.6402
0
7.48304
0
0
0
9.54246
0
0
0
0
0
0
0
1.23018
2.68794
5.18887
0
0.76577
1.2185
6.28351
25.0015
0
0
0
0
0
0
0
0
4.90372
0
0.633748
0
0
0
0
0
1.22431
0.680585
0
2.98637
1.56492
0.69756
0
20.1825
2.84285
0
0
0
0
0
0
0
0
0
0
0
0
0
0
0
0
1.30558
0
0
0
3.49107
9.16173
15.8349
0
0
0
0
7.82827
0
0
0
4.96197
0
0
0
0
0
1.65445
0
0.621577
0
5.41555
0
0
0
0
0
0
0
10.2618
0
0
0
0
0
0
0
0
0
0
0
0
0
0
0
0
0
0
1.41135
6.24955
0
0
0
0
0
5.47603
0
0
0
4.22661
0
0
0
0
0
0
0.158547
0.617129
0
0
0
0
0
0
0
0
0
0
0
0
0
0
0
5.04397
0
0
0
0
0
0
0.506432
0
0
0
0
0
2.14039
6.39527
0
0
0
0
0
0
0
0
0
0
0
0
0.599047
0
14.1338
0
0.641603
0
0
0
4.20107
0
0.718488
0
0
0
0
0
0
0
0
0
0
0
0
0
0
0
5.31172
1.60344
0
0
0
0
0
0
0
0
0
0
0
11.4574
0
0
0
0
0
0
0
0
0
0
0
0
0.658948
0
0
0
0
0
0
0
0
0
0
0
0
0
0
0
0
0
0
0
0
0
0
0
0
0
0
0
0
0.651147
0
0
0
0
0
0
0
0
0
0
0
0
0
0
0
0
0
0
0
0
0
0
4.29331
0
1.46423
0
0
0
0
0
0
0
0
0
0
0
0
0
0
0
0
0
0
0
0
0
0
1.78659
0
0
0
0
0
0
0
0
0
0
0
0
0
0
0
0
2.20223
0
0.484838
0
0
0
0
0.810868
0
0
0
0
0
0
0
0
0
0
0
0
0
0
0
0
1.61194
0
0.230014
0
0
0
0
-6.02323e-15
0
0
0
0
0
0
0
0
0
0
0
0
0
0
0
0
0
0
0
0
0
0
0
0.0195694
0
0
0
0
0
0
0
0
0
0
0
0
0
0
0
0
0
0
0
0
0
0
4.65533
0
0
0
0
0
0
0
0
0
0
0
0
4.00967
0
0
0
0
0
0
0
0
0
0
0
0
0
0
0
0
0
0
0
0
0
0
0
0
0
0
0
0
0
0
0
0
0
0
0
0
0
0
0
0
0
0
0
0
0
0
0
0
0
0
0
0
0
0
0
0
0
0
0
0
0
0
0
0
0
0
0
0
0
0
0
0
0
0
0
0
0
0
0
0
0
0
0
0.756337
0
0
0
0
0
0
0
0
0
0
0
0
0
0
0
0
0
0
0
0
0
0
0
0
0.757091
0
0
0
0
0
0
0
0
0
0
0
0
0
0
0
0
0
0
0
0
0
0
0
0
0
0
0
0
0
0
0
0
0
0
0
0
0
0
0
0
0
0
0
0
0
0
0
0
0
0
0
0
0
0
0
0
0
0
0
0
0
0
0
0
0
0
0
0
0
0
0
0
0
0
0
0
0
0
0
0
0
0
0
0
0
0
0
0
0
0
0
0
0
0
0
0
0
0
0
0
0
0
0
0
0
0
0
0
0
0
0
0
0
0
0
0
0
0
0
0
0
0
0
0
0
0
0
0
0
0
0
0
0
0
0
0
0
0
0
0
0
0
0
0
0
0
0
0
0
0
0
0
0
0
0
0
0
0
0
0
0
0
0
0
0
0
0
0
0
0
0
0
0
0
0
0
0
0
0
0
0
0
0
0
0
0
0
0
0
0
0
0
0
0
0
0
0
0
0
0
0
0
0
0
0
0
0
0
0
0
0
0
0
0
0
0
0
0
0
0
0
0
0
0
0
0
0
0
0
0
0
0
0
0
0
0
0
0
0
0
0
0
0
0
0
0
0
0
0
0
0
0
0
0
0
0
0
0
0
0
0
0
0
0
0
0
0
0
0
0
0
0
0
0
0
0
0
0
0
0
0
0
0
0
0
0
0
0
0
0
0
0
0
0
0
0
0
0
0
0
0
0
0
0
0
0
0
0
0
0
0
0
0
0
0
0
0
0
0
0
0
0
0
0
0
0
0
0
0
0
0
0
0
0
0
0
0
0
0
0
0
0
0
0
0
0
0
0
0
0
0
0
0
0
0
0
0
0
0
0
0
0
0
0
0
0
0
0
0
0
0
0
0
0
0
0
0
0
0
0
0
0
0
0
0
0
0
0
0
0
0
0
0
0
0
0
0
0
0
0
0
0
0
0
0
0
0
0
0
0
0
0
0
0
0
0
0
0
0
0
0
0
0
0
0
0
0
0
0
0
0
0
0
0
0
0
0
0
0
0
0
0
0
0
0
0
0
0
0
0
0
0
0
0
0
0
0
0
0
0
0
0
0
0
0
0
0
0
0
0
0
0
0
0
0
0
0
0
0
0
0
0
0
0
0
0
0
0
0
0
0
0
0
0
0
0
0
0
0
0
0
0
0
0
0
0
0
0
0
0
0
0
0
0
0
0
0
0
0
0
0
0
0
0
0
0
0
0
0
0
0
0
0
0
0
0
0
0
0
0
0
0
0
0
0
0
0
0
0
0
0
0
0
0
0
0
0
0
0
0
0
0
0
0
0
0
0
0
0
0
0
0
0
0
0
0
0
0
0
0
0
0
0
0
0
0
0
0
0
0
0
0
0
0
0
0
0
0
0
0
0
0
0
0
0
0
0
0
0
0
0
0
0
0
0
0
0
0
0
0
0
0
0
0
0
0
0
0
0
0
0
0
0
0
0
0
0
0
0
0
0
0
0
0
0
0
0
0
0
0
0
0
0
0
0
0
0
0
0
0
0
0
0
0
0
0
0
0
0
0
0
0
0
0
0
0
0
0
0
0
0
0
0
0
0
0
0
0
0
0
0
0
0
0
0
0
0
0
0
0
0
0
0
0
0
0
0
0
0
0
0
0
0
0
0
0
0
0
0
0
0
0
0
0
0
0
0
0
0
0
0
0
0
0
0
0
0
0
0
0
0
0
0
0
0
0
0
0
0
0
0
0
0
0
0
0
0
0
0
0
0
0
0
0
0
0
0
0
0
0
0
0
0
0
0
0
0
0
0
0
0
0
0
0
0
0
0
0
0
0
0
0
0
0
0
0
0
0
0
0
0
0
0
0
0
0
0
0
0
0
0
0
0
0
0
0
0
0
0
0
0
0
0
0
0
0
0
0
0
0
0
0
0
0
0
0
0
0
0
0
0
0
0
0
0
0
0
0
0
0
0
0
0
0
0
0
0
0
0
0
0
0
0
0
0
0
0
0
0
0
0
0
0
0
0
0
0
0
0
0
0
0
0
0
0
0
0
0
0
0
0
0
0
0
0
0
0
0
0
0
0
0
5651.38
6168.98
6069.98
8950.45
5686.34
8595.87
8958.11
7964.66
8494.21
7918.33
5634.22
7512.39
3938.82
5581.06
10842.6
4774.83
8789.22
10262.6
10766.7
10240.6
10275.4
8064.9
5134.77
8587.18
4707.35
4075.89
1952.77
1142.53
2301.64
4153.34
6757.15
5617.41
4465.74
7240.39
8014.74
2696.45
5353.3
9528.53
10147.2
6695.86
7680.83
7821.76
3681
4149.75
836.529
2472.93
4333.45
4242.25
3794.58
6619.1
5194.16
3053.22
1007.57
1009.85
1087.29
316.589
875.875
301.801
402.696
4369.44
5522.47
413.831
309.445
932.743
582.996
536
952.817
1648.52
2919.58
3157.71
4850.44
3011.76
1603.25
2957.31
1490.77
381.513
682.813
1700.33
1717.84
125.922
412.054
894.128
1675.63
1147.71
1482.11
2501.38
1880.27
3670.05
3093.04
3633.32
2547.99
2159.58
1690.71
1150.37
1503.55
1303.48
2489.06
1354.36
5312.54
1619.9
3063.68
4530.35
424.911
2014.51
4503.56
5240.17
5600.42
6596.61
5200.59
1916.42
3818.02
9738.91
7101.37
1739.81
5757.68
1425.93
3013.78
642.775
1418.69
1238.64
3168.55
522.448
1332.67
1676.17
5633.27
795.018
5226.03
3815.56
8644.34
1624.38
160.758
255.206
1472.75
531.639
397.71
1667.43
926.714
6361.84
5124.16
5942.52
778.095
3100.74
257.053
1855.52
6955.89
1556.17
6015.52
6497.38
5266.83
8577.64
4620.67
9009.47
5292.32
5391.49
7418.67
1599.55
6132.88
7414.45
9422.27
4968.05
5477.47
6566.07
7530.43
9947.88
10200.1
12067.7
10471.4
6236.59
11533.9
8270.6
6781.12
10209.3
10983.6
11708.6
5566.91
7510.79
9082.58
8761.05
11556.1
12083.7
4157.83
7768.12
8061.77
4116.88
6723.87
9912.25
8050.99
10744.3
8685.99
4534.06
8738.84
11284.6
9379.02
2270.79
9386.13
8237.22
10222.3
3130.34
3384.53
2768.49
8875.55
8176.98
8055.31
7024.11
10667.4
2147.63
6119.46
9416.24
8890.6
4445.06
2000.41
6806.42
3857.26
4011.79
3999
1371.25
6740.75
6795.63
5424.95
361.251
936.293
782.343
1045.65
317.784
6213.24
9910.42
7030.73
6814.9
3420.16
2794.96
8372.23
3509.47
2446.5
8373.4
8988.36
1017.83
1330.14
5817.49
3362.44
1058.8
1575.84
1037.57
1669.25
8759.53
10564.7
11744
4170.67
3168.48
1720.93
1317.83
8139.29
5122.6
1196.38
3058.83
7410.6
1173.13
414.028
1730.71
5373.54
3545.42
185.217
944.878
818.838
860.498
11842.3
12607.4
10609.6
11150.5
12230.3
11801.7
11457.5
12404.9
12439.6
9033.4
9854.42
8727.88
1135.13
5910.03
829.38
11169.5
11809
11018.2
10634.4
10962.3
12364.1
11065.5
11293.7
12317.2
3501.02
4470.77
909.872
961.868
983.231
1696.16
1058.03
1591.93
1486.38
9174.54
9316.28
5649.85
8885.3
8474.65
3144.84
1479.61
1587.15
1983
4795.03
5170.68
1448.79
448.196
4205.34
703.046
493.551
3454.25
6184.37
7579.34
5685.34
929.373
830.929
1076.22
1231.95
1172.16
1362.04
716.047
1653.47
829.942
618.032
460.661
357.379
653.064
784.761
973.512
634.559
793.052
38.4873
1191.86
1230.57
253.345
1614.61
753.008
489.821
2000.9
394.396
871.896
423.425
614.6
1407.53
286.474
11621.7
9086.04
9475.56
10909.5
10528.9
6685.3
2084.82
3484.91
2903.22
337.298
6278.01
1063.79
390.872
1495.42
1448.88
11580.1
11202.5
9688.04
11515.8
9129.1
10052.3
3467.55
9942.4
1324.75
500.632
378.883
982.683
815.571
1714.94
153.421
402.883
3786.71
3538.7
7762.66
5712.92
1518.95
8098.82
5491.97
2417.87
9134.73
7418.52
8092.03
3866.17
1899.07
723.433
729.816
3086.78
1260.8
1187.77
3372.82
251.969
807.343
144.302
181.108
1563.36
1868.77
1718.32
999.934
281.234
246.129
522.53
1017.44
255.907
2109.49
595.589
223.584
386.185
174.883
64.1093
40.7513
27.2092
900.457
852.962
1081.31
1152.23
766.566
878.769
666.052
588.708
574.831
342.706
67.6176
362.066
17.25
1275.5
569.216
1255.02
143.158
961.826
127.942
78.5798
240.188
861.935
315.292
3506.99
682.872
179.09
1034.51
430.761
6360.82
1307.4
830.082
1065.14
273.099
768.149
236.905
154.286
411.503
1513.15
101.768
204.57
120.963
1448.74
252.296
765.172
1985.91
2427.47
6843.63
3881.49
4190.39
849.098
1101.59
510.304
416.313
293.311
368.832
142.611
394.943
1352.13
1514.99
2811.06
444.956
914.245
181.01
139.402
348.818
499.196
63.9106
1523.53
1133.01
1147.1
1001.81
210.527
317.574
589.192
867.021
200.807
0
26.0278
12.1674
58.1914
5.71083
6.12624
26.7557
0
656.885
554.085
278.185
570.279
422.004
242.34
683.231
62.9953
733.693
195.069
128.849
752.353
35.5048
297.196
217.886
2.52247
58.3423
68.8204
0
25.004
38.6654
630.725
207.912
429.061
457.86
606.473
224.331
305.066
427.698
177.018
130.672
179.758
154.503
475.083
108.733
184.676
25.2925
957.156
136.538
2817.05
45.966
280.673
62.9601
614.171
3233.2
385.65
155.473
793.639
272.605
95.2359
348.871
327.593
1267.3
38.3119
2392.78
2.87042
12.9094
5.88195
27.3218
14641.7
9249.93
10742.3
959.56
9711.86
1445.01
9350.63
305.302
380.841
346.29
271.04
235.699
3672.98
189.824
2937.04
4.49331
128.602
0.355916
585.554
14376.8
11405.1
8855.24
2992.85
11666.1
6957.83
12111.9
911.641
569.924
326.236
714.407
235.231
256.195
167.847
595.576
152.355
8.91174
31.9924
0
56.7156
4.33546
12.1812
0
22.1215
411.921
431.637
211.759
540.929
246.675
193.496
316.291
792.272
1086.47
375.886
343.251
602.99
34.5964
128.262
36.2078
0
7.25851
69.596
0
8.42035
21.0699
199.207
435.715
0
185.085
281.559
284.757
957.187
204.134
243.784
40.5032
203.678
24.2884
228.131
34.814
101.506
3.90216
215.7
388.146
4.90532
1752.52
230.109
393.344
3.71334
0
10.9104
5.7422
4.1322
0
0
0
0
110.34
175.114
286.161
152.415
173.932
109.9
0
0
0
0
0
17.8653
0
130.106
0
128.939
0
0
0
0
171.172
126.646
109.631
115.175
198.063
0
0
3.78408
5.54236
6.47021
0
0
150.456
102.721
552.163
0
0
0
0
441.799
392.173
100.151
578.97
95.0253
231.628
151.07
570.65
167.383
0
0
0
0
0
0
0
0
0
0
189.75
0
0
441.651
730.898
160.672
198.406
249.28
103.646
130.539
23.7616
159.017
37.5816
0
25.6096
0
16.7668
17.7955
0
0
0
0
0
0
95.4723
186.001
0
0
7.21513
74.1265
0
291.006
410.278
24.8483
80.0828
3.41777
61.2332
4.16664
64.3893
12.0987
6.62672
0
0
0
0
0
4.10968
0
0
0
0
0
0
0
0
188.13
162.161
89.0965
184.712
114.516
103.353
0
10.1144
11.2432
0
0
5.35361
-2.52777e-12
0
0
0
0
0
0
0
65.952
336.602
140.554
56.1065
100.859
5.09263
0.0954616
4.7813
0
0
0
0
0
0
0
0
0
0
0
439.068
204.569
620.446
328.364
360.276
343.1
317.172
302.771
485.571
0
0
0
0
0
0
0
0
0
0
0
0
0
711.101
254.713
100.735
77.987
156.984
50.519
-4.0617e-12
5.60246
0
0
0
0
0
0
0
0
0
0
0
0
0
0
0
0
0
0
0
0
334.635
46.9017
0
83.804
4.33079
6.12563
0
35.7364
5.9457
0
0
-5.18601e-13
0
0
0
0
0
0
297.326
217.283
128.487
113.782
153.624
158.531
5.01204
-3.47904e-13
0
4.06131
0.148511
0
0
0
0
0
0
0
0
0
94.6148
110.349
137.9
94.6869
67.4696
0
0
0
0
0
0
0
0
0
0
0
0
0
0
172.853
84.8142
22.7838
67.8177
36.3094
68.1268
14.4455
45.3857
33.6129
0
0
0
0
7.72901
0
0
0
8.56519
27.0936
12.5214
30.8178
0
5.27702
0
0
7.3317
0
0
0
0
0
11.1741
0
0
0
0
0
0
0
0
0
0
0
0
0
20.0789
25.5274
0
17.2161
16.3332
0
0
2.97495
1.18289
0
0
0
0
0
0
0
0
0
6.07687
83.2823
114.18
7.5558
48.1957
45.1734
14.1389
0
0
-6.27215e-13
0
87.5938
64.3183
21.3145
71.9711
57.0083
0
0
0
0
0
40.9667
12.1315
7.23867
36.9853
8.6081
35.1845
5.31147
21.6603
0.9333
7.96818
0
12.1773
0
0
0
0
16.4528
10.6834
9.70159
0
0
5.79516
5.67866
0
0
0
0
8.49108
0
0
0
0
0
0
0
0
0
0
0
0
0
0
0
0
0
0
6.87847
0
5.2225
0.0808323
0
0
4.31405
0
0
0
0
4.89228
0
0
0
0
0
11.6319
38.8319
51.1834
0
29.9998
12.8264
0
17.4336
0
4.68014
20.6234
42.5559
44.9746
0
29.6125
23.083
0
17.1429
3.70364
0
8.48128
42.1733
9.05632
4.80204
0
3.50984
17.8191
14.0542
5.87872
0.350992
0
0
0
0
0
0
0
16.4572
0
9.96664
0
0
0
0
0
0
0
0.891564
0
0
0
0
0
0
0
0
0
0
0
0
0
0
0
0
0
0
5.81235
0
0
-4.81287e-13
5.45746
0
0
0
-1.45932e-12
0
0
0
0
0
0
0
0
0
4.24708
17.9805
8.58951
0
8.66461
0.925874
8.48708
0.598968
2.79974
11.9131
0
38.2514
14.1705
0.0871977
0
0
0
8.43708
11.3589
37.7195
0
5.95484
0
5.53278
6.47373
13.8991
5.77793
8.01249
0
2.76668
0
0
0
0
0
6.69686
0
0
0.300936
0
0
0
5.31382
5.77843
0
14.0282
0
-4.2008e-13
5.48006
0
16.182
0
0
0
0
0
0
0
0
0
0
0
0
0
0
0
9.2752
0
0
0
0
-2.37242e-12
0
0
0
0
0
4.44373
0
0
0
0
0
0
0
0
3.54709
0
0
10.6689
4.45332
0
0
4.26942
0
2.22855
0
0
0
1.53911
11.5877
0
0
16.7927
16.9225
0
4.6499
4.74352
0
0
-4.53055e-14
3.48159
0
0
7.19835
6.50129
0
6.37058
9.6404
1.3323
26.6837
16.5651
0
0
0
0
0
0
0
0
0
0
0
0
0
0
0
0
5.52051
0
0
5.43137
0
0
0
0
0
0
0
0
13.785
15.6514
0
0
0
-8.66785e-14
0
1.16501
0
0
0
0
0
0
0
0
0
0
4.78788
0
8.40318
0
0
2.35987
3.50774
0
0
3.91402
13.4397
0
0
0
0
0
15.3915
25.5704
11.5209
19.8894
8.35431
0
0
1.8316
0
0
0
0
0
0
4.71219
4.57791
13.2694
0
0
0
13.1007
22.7428
0
0
0
0
0
0
0
7.95058
0
0
0.557306
0
0
0
0
0
0
0
0
0
0
0
0
0
0
0
0
0
9.15035
9.14839
0
0
5.5864
0
0
0
0
0
0
0
0
0
0
0
0
0
4.9841
0
3.64098
0
0
0
0.151908
0
0
0
0
0
0
0
0
0
9.53011
0
5.51337
15.2512
1.45487
0
0
0
7.93114
0
0
0
0
0
0
0
10.2854
0
0
12.6662
2.72775
0
0
0
0
0
0
0
0
7.80941
0
0
0
0
15.6425
0
0
0
0
0
0
0
0
0
0
0
0
0
0
0
0
0
0.414964
0
0
0
0
0
0
0
0
0
0
0
0
0
0
0
0
0
3.71789
0
22.9689
0
0
13.042
0
0
-8.79156e-13
0
0
0
0
0
-3.35277e-13
8.35568
3.7657
9.73086
8.70038
0
0
0
0
0
0
0
0
0
14.3669
0
0
0
0.176421
6.2604
25.7515
21.1172
0
0
0
14.084
0
0
21.5391
0
7.81498
0
0
0
0
0
0
0
7.80763
0
0
0.188945
0
0
0
0
0
0
0
0
0
4.66681
0
0.136406
0
-6.05838e-13
0
-1.3506e-13
0
0
0
0
5.13307
0
0
0
0
0
0
14.0128
0
0
-4.64124e-12
4.02156
4.10509
0
0
4.0101
0
4.39857
0
0
2.90693
0
0
6.2668
0
15.2746
8.24611
0
0
0
8.52227
0
2.11199
0
0
0
20.9602
0
12.6694
0
2.59223
0
0
26.4322
0
0
0
0
0
0
0
0
0
0
0
0
0
0
0
0
0
0
0
0
0
0
0
0
0
0
0
0
6.25967
0
0
0
0
0
0
0
0
0
0
0
0
0
0
0
0
0
4.8844
0
0
12.454
0
3.74303
4.10599
0
0
0
0
0
4.41467
0
0
0
0
19.5059
0
0
0
0
0
0
0
0
0
0
0
5.71378
5.07557
6.29188
25.5485
0
13.7144
0
25.4483
15.8169
0
0
0
0
4.96728
0
0
0
0
0
8.00353
0
0
0
8.62607
0
0
0
0
0
0
0
0
0
0
0
0
0
0
9.43414
0
0
0
0
0
0.179007
0
0
0
0
0
0
0
0
0
0
0.258053
0
1.39149
4.80747
0
0.28871
0
0
0
0
0
3.51989
6.40431
0
3.8247
3.82058
0
5.68696
0
0
4.19793
0
0
0
0
0
0
0
0
0
0
4.13246
0
6.20916
0
0
24.9038
0
0
0
0
0
0
0
0
0
0
0
0
0
0
0
0
0
0
0
0
0
0
0
0
0
0
0
0
0
9.93393
0
0
0
0
0
0
0
0
0
0
0
0
0
0
0
0
0
0
0
0
0
0
4.30674
0
0
0
0
0
0
4.53943
0
0
0
0
6.65652
0
0
0
0
8.61692
0
0
0
0
0
0
0
0
4.14334
0
0
6.94602
2.18626
0
0
0
0
0
0
0
6.11445
0
11.5032
0
0
10.6743
0
0
0
0
0
0
0
0
0
0
0
0
0
0
0
0
0
0
0
0
4.25748
0
0
0
-3.01598e-13
0
0
0
0
0
0
0
0
0
0
0
0
0
5.53927
0
0
0
0
0
0
0
4.05582
0
0
4.12089
4.91483
0
0
0
0
0
2.84034
2.3285
0
0
0
3.89392
0
0
0
6.95297
0
0
0
0
0
0
0
0
0
0
0
0
0
0
5.19581
0
0
7.92771
0
0
0
0
0
0
0
0
0
0
0
0
0
0
0
0
0
4.38769
16.3055
1.44896
0
0
0.984493
0.246243
0
0
0
0
0
0
0
0
0
0
0
0
0
4.30101
0
0
0
0
0
0
0
0
5.02481
0
15.1004
5.86412
5.17734
0
0
0
0
0
0
0
0
0
0
2.29798
0
5.17265
0
0
0
0
0
0
0
0
0
0
0
0
0
0
0
0
0
0
0
0
22.4145
0
8.3807
-9.94366e-13
0
0
0
0
0
0
0
0
0
0
0
0
0
0
0
0
0
4.67939
6.79848
0
0
0
0
0
0
0
0
0
0
0
0
0
0
0
0
0
4.41557
0
0
0
0
0
5.566
-1.37989e-13
0
4.18793
0
0
0
0
0
7.87575
0
0
0
0
0
0
0
0
0
0
0
12.3249
0
6.80137
0
0
0
0
0
0
0
0
0
0
7.94593
0
0
0.285883
0
0
0
0
0
0
0
0
0
0
0
0
0
0
0
0
0
0
0.404436
0
0
0
0
0
3.77766
0
0
0
0
0
0
0
0
0
0
0
0.949176
0
0
0
3.70205
0
0
0
0
0
10.876
7.46498
12.9961
4.17329
0
0
0
0
0
0
0
0
0
0
0
0
0
0
0
0
0
0
0
0
0
0
0
0
0
0
0
0
0
0
7.66272
0
0
0
0
0
0
0
0
0
0
0
0
0
0
0
0
0
0
0
0
8.77858
0
0
0
0
0
0
0
0
0
0
0
0
0
0
0
0
0
2.32379
0
2.38272
3.571
0
3.39906
0
0
0
0
0
9.62396
0
0
1.45564
0
0
0
0
0
0
0
0
0
0
0.215258
0
0
0
0
6.74627
2.08934
0
0
0
0
0
0
26.8622
0
0
0
0
0
0
0
0
0
0
0
0
0
0
0
0
0
0
0
0
0
0
0
0
0
0
0
0
0
0
0
0
0
0
0
0
0
0
0
0
0
0
0
0
0
0
0
0
0
0
0
0
0
0
0
0
0
0
0
0
1.43384
0
0
0
0
0
0
19.9947
0
0
0
0
6.12375
0
0
0
0
0
0
0
0
0
0
0
0
0
0
0
0
0
0
0
0
0
0
0
0
0
0
0
0
0
0
0
0
0
0
0
0
0
0
0
0
0
0
0
0
0
0
0
0
0
0
0
0
0
0
0
0
0
0
0
0
0
3.96216
0
0
0
0
0
0
4.25101
0
4.05111
5.40975
0
0
0
0
0
10.267
10.4709
1.70126
0.347614
0
0.788921
0
7.28658
0
0
0
0
6.40827
0
0
0
0
0
13.4125
0
0
0
0
0
0
0
0
0
0
0
0
0
0
0
0
0
0
0
0
0
0
0
0
0
0
0
0
0
0
0
0
0
0
0
0
0
0
0
0
0
0
0
0
0
0
0
0
0
0
0
0
0
0
0
4.0031
0
0
-4.50715e-13
0
0
0
0
0
0
-1.20842e-13
0
5.96061
0
5.22531
0
0
0
0
0
0
0
0
0
0
0
0
0.387678
0
0
0
0
6.08003
0
0
0
0
0
0
0
0
0
0
0
0
0
0
0
0
0
0
0
0
0
0
0
0
0
0
0
0
0
0
0
0
0
0
0
0
0
0
0
0
0
0
7.84935
0
6.07277
-4.48364e-14
0
0
0
0
0
0
0
8.26673
0
0
0
0
0
0
0
10.6908
-2.35787e-12
3.6512
0
5.33013
0
0
0
0
0
0
0
0
0
0
0
0
0
0
0.217347
0
0
0
0
0
0
0
0
0
0
0
0
0
0
0
0
0
0
0
0
0
0
0
0
0
0
0
0
0
0
0
0
0
0
0
0
0
0
0
0
0
0
0
0
1.18003
3.99857
0
0
-4.44165e-13
0
0
0
0
0
0
0
0.628971
1.59298
0
0
0
0
0
0
0
0
0.238389
0
5.16037
0
0
0
0
0
0
0
0
0
0
0
0
0
0
0
0
0
0
0
0
0
0
0
0
0
0
0
0
0
0
0
0
0
0
0
0
0
0
0
0
0
0
0
0
0
0
0
0
0
0
0
0
0
0
0
0
0
0
0
0
0
0
0
0
0
0
0
0
0
2.41387
0
0
0
0
0
0
0
0
0
0
0
0
0
0
0
0
0
0
0
0
0
0
0
0
0
0
0
0
0
0
0
0
0
0
0
0
0
0
0
0
0
0
0
0
0
0
0
0
0
0
0
0
0
0
0
0
0
0
0
0
0
0
0
0
0
0
0
0
0
0
0
0
0
0
0
0
0
0
0
0
0
0
0
0
0
16.2463
0
0
0
7.5893
0
0
0
0
0
0
0
0
0
0
0
5.17033
0
0
0
0
0
0
0
0
0
0
0
0
0
0
0
0
0
0
0
0
0
0
0
0
0
0
0
0
0
0
0
0
0
0
0
0
0
0
0
0
0
0
0
0
0
0
0
0
0
0
0
0
0
0
0
0
0
0.307955
0
3.98539
0
0
0
0
0
4.48297
0
0
0
0
0
0
0
0
0
0
0
0
9.57694
0
0
1.39709
0
4.21287
0
0
0
0
0
0
0
0
0
0
0
0
0
0
0
0
0
0
0
0
0
0
0
0
0
0
0
0
0
0
0
0
0
0
0
0
0
0
0
0
0
0
0
0
0
0
0
0
0
0
0
0
0
0
0
0
4.02598
0
0
0
0
0
0
0
0
0
0
0
0
0
0
0
0
0
0
10.9933
0
0
0
-6.15608e-14
0
0
0
0
0
0
0
0
0
0
0
0
0
0
0
0
0
0
0
0
0
0
0
0
0
0
0
0
0
0
0
0
0
0
0
0
0
0
0
0
0
0
0
0
0
0
0
0
0
0
0
0
0
0
0
0
0
0
0
0
0
0
0
0
0
0
0
0
0
0
10.3665
0
0
1.20909
0
0
0
0
0
0
0
0
0
0
0
5.50653
0
0
0
0
0
0
0
0
0
0
0
0
0
0
0
0
0
0
0
0
0
0
0
0
0
0
0
0
0
0
0
0
0
0
0
0
0
0
0
0
0
0
0
0
0
0
0
0
0
0
0
0
0
0
0
0
0
0
0
0
0
0
0
0
0
0
0
0
0
0
0
0
0
0
0
0
0
0
0
0
0
0
0
0
0
0
0
0
0
0
0
0
0
0
0
0
0
0
0
0
0
0
0
0
0
0
0
0
0
0
0
0
0
0
0
0
0
0
0
0
0
0
0
0
0
0
0
0
0
0
0
0
0
0
0
0
0
0
0
0
0
0
0
0
0
0
0
0
0
0
0
0
0
0
0
0
0
0
0
0
0
0
0
0
0
0
0
0
0
0
0
0
0
0
0
0
0
0
0
0
0
0
0
0
0
0
0
0
0
0
0
0
0
0
0
0
0
0
0
0
0
0
0
0
0
0
0
0
0
0
0
0
0
0
0
0
0
0
0
0
0
0
0
0
0
0
0
0
0
0
0
0
0
0
0
0
0
0
0
0
0
0
0
0
0
0
0
0
0
0
0
0
0
0
0
0
0
0
0
0
0
0
0
0
0
0
0
0
0
0
0
0
0
0
0
0
0
0
0
0
0
0
0
0
0
0
0
0
0
0
0
0
0
0
0
0
0
0
0
0
0
0
0
0
0
0
0
0
0
0
0
0
0
0
0
0
0
0
0
0
0
0
0
0
0
0
0
0
0
0
0
0
0
0
0
0
0
0
0
0
0
0
0
0
0
0
0
0
0
0
0
0
0
0
0
0
0
0
0
0
0
0
0
0
0
0
0
0
0
0
0
0
0
0
0
0
0
0
0
0
0
0
0
0
0
0
0
0
0
0
0
0
0
0
0
0
0
0
0
0
0
0
0
0
0
0
0
0
0
0
0
0
0
0
0
0
0
0
0
0
0
0
0
0
0
0
0
0
0
0
0
0
0
0
0
0
0
0
0
0
0
0
0
0
0
0
0
0
0
0
0
0
0
0
0
0
0
0
0
0
0
0
0
0
0
0
0
0
0
0
0
0
0
0
0
0
0
0
0
0
0
0
0
0
0
0
0
0
0
0
0
0
0
0
0
0
0
0
0
0
0
0
0
0
0
0
0
0
0
0
0
0
0
0
0
0
0
0
0
0
0
0
0
0
0
0
0
0
0
0
0
0
0
0
0
0
0
0
0
0
0
0
0
0
0
0
0
0
0
0
0
0
0
0
0
0
0
0
0
0
0
0
0
0
0
0
0
0
0
0
0
0
0
0
0
0
0
0
0
0
0
0
0
0
0
0
0
0
0
0
0
0
0
0
0
0
0
0
0
0
0
0
0
0
0
0
0
0
0
0
0
0
0
0
0
0
0
0
0
0
0
0
0
0
0
0
0
0
0
0
0
0
0
0
0
0
0
0
0
0
0
0
0
0
0
0
0
0
0
0
0
0
0
0
0
0
0
0
0
0
0
0
0
0
0
0
0
0
0
0
0
0
0
0
0
0
0
0
0
0
0
0
0
0
0
0
0
0
0
0
0
0
0
0
0
0
0
0
0
0
0
0
0
0
0
0
0
0
0
0
0
0
0
0
0
0
0
0
0
0
0
0
0
0
0
0
0
0
0
0
0
0
0
0
0
0
0
0
0
0
0
0
0
0
0
0
0
0
0
0
0
0
0
0
0
0
0
0
0
0
0
0
0
0
0
0
0
0
0
0
0
0
0
0
0
0
0
0
0
0
0
0
0
0
0
0
0
0
0
0
0
0
0
0
0
0
0
0
0
0
0
0
0
0
0
0
0
0
0
0
0
0
0
0
0
0
0
0
0
0
0
0
0
0
0
0
0
0
0
0
0
0
0
0
0
0
0
0
0
0
0
0
0
0
0
0
0
0
0
0
0
0
0
0
0
0
0
0
0
0
0
0
0
0
0
0
0
0
0
0
0
0
0
0
0
0
0
0
0
0
0
0
0
0
0
0
0
0
0
0
0
0
0
0
0
0
0
0
0
0
0
0
0
0
0
0
0
0
0
0
0
0
0
0
0
0
0
0
0
0
0
0
0
0
0
0
0
0
0
0
0
0
0
0
0
0
0
0
0
0
0
0
0
0
0
0
0
0
0
0
0
0
0
0
0
0
0
0
0
0
0
0
0
0
0
0
0
0
0
0
0
0
0
0
0
0
0
0
0
0
0
0
0
0
0
0
0
0
0
0
0
0
0
0
0
0
0
0
0
0
0
0
0
0
0
0
0
0
0
0
0
0
0
0
0
0
0
0
0
0
0
0
0
0
0
0
0
0
0
0
0
0
0
0
0
0
0
0
0
0
0
0
0
0
0
0
0
0
0
0
0
0
0
0
0
0
0
0
0
0
0
0
0
0
0
0
0
0
0
0
0
0
0
0
0
0
0
0
0
0
0
0
0
0
0
0
0
0
0
0
0
0
0
0
0
0
0
0
0
0
0
0
0
0
0
0
0
0
0
0
0
0
0
0
0
0
0
0
0
0
0
0
0
0
0
0
0
0
0
0
0
0
0
0
0
0
0
0
0
0
0
0
0
0
0
0
0
0
0
0
0
0
0
0
0
0
0
0
0
0
0
0
0
0
0
0
0
0
0
0
0
0
0
0
0
0
0
0
0
0
0
0
0
0
0
0
0
0
0
0
0
0
0
0
0
0
0
0
0
0
0
0
0
0
0
0
0
0
0
0
0
0
0
0
0
0
0
0
0
0
0
0
0
0
0
0
0
0
0
0
0
0
0
0
0
0
0
0
0
0
0
0
0
0
0
0
0
0
0
0
0
0
0
0
0
0
0
0
0
0
0
0
0
0
0
0
0
0
0
0
0
0
0
0
0
0
0
0
0
0
0
0
0
0
0
0
0
0
0
0
0
0
0
0
0
0
0
0
0
0
0
0
0
0
0
0
0
0
0
0
0
0
0
0
0
0
0
0
0
0
0
0
0
0
0
0
0
0
0
0
0
0
0
0
0
0
0
0
0
0
0
0
0
0
0
0
0
0
0
0
0
0
0
0
0
0
0
0
0
0
0
0
0
0
0
0
0
0
0
0
0
0
0
0
0
0
0
0
0
0
0
0
0
0
0
0
0
0
0
0
0
0
0
0
0
0
0
0
0
0
0
0
0
0
0
0
0
0
0
0
0
0
0
0
0
0
0
0
0
0
0
0
0
0
0
0
0
0
0
0
0
0
0
0
0
0
0
0
0
0
0
0
0
0
0
0
0
0
0
0
0
0
0
0
0
0
0
0
0
0
0
0
0
0
0
0
0
0
0
0
0
0
0
0
0
0
0
0
0
0
0
0
0
0
0
0
0
0
0
0
0
0
0
0
0
0
0
0
0
0
0
0
0
0
0
0
0
0
0
0
0
0
0
0
0
0
0
0
0
0
0
0
0
0
0
0
0
0
0
0
0
0
0
0
0
0
0
0
0
0
0
0
0
0
0
0
0
0
0
0
0
0
0
0
0
0
0
0
0
0
0
0
0
0
0
0
0
0
0
0
0
0
0
0
0
0
0
0
0
0
0
0
0
0
0
0
0
0
0
0
0
0
0
0
0
0
0
0
0
0
0
0
0
0
0
0
0
0
0
0
0
0
0
0
0
0
0
0
0
0
0
0
0
0
0
0
0
0
0
0
0
0
0
0
0
0
0
0
0
0
0
0
0
0
0
0
0
0
0
0
0
0
0
0
0
0
0
0
0
0
0
0
0
0
0
0
0
0
0
0
0
0
0
0
0
0
0
0
0
0
0
0
0
0
0
0
0
0
0
0
0
0
0
0
0
0
0
0
0
0
0
0
0
0
0
0
0
0
0
0
0
0
0
0
0
0
0
0
0
0
0
0
0
0
0
0
0
0
0
0
0
0
0
0
0
0
0
0
0
0
0
0
0
0
0
0
0
0
0
0
0
0
0
0
0
0
0
0
0
0
0
0
0
0
0
0
0
0
0
0
0
0
0
0
0
0
0
0
0
0
0
0
0
0
0
0
0
0
0
0
0
0
0
0
0
0
0
0
0
0
0
0
0
0
0
0
0
0
0
0
0
0
0
0
0
0
0
0
0
0
0
0
0
0
0
0
0
0
0
0
0
0
0
0
0
0
0
0
0
0
0
0
0
0
0
0
0
0
0
0
0
0
0
0
0
0
0
0
0
0
0
0
0
0
0
0
0
0
0
0
0
0
0
0
0
0
0
0
0
0
0
0
0
0
0
0
0
0
0
0
0
0
0
0
0
0
0
0
0
0
0
0
0
0
0
0
0
0
0
0
0
0
0
0
0
0
0
0
0
0
0
0
0
0
0
0
0
0
0
0
0
0
0
0
0
0
0
0
0
0
0
0
0
0
0
0
0
0
0
0
0
0
0
0
0
0
0
0
0
0
0
0
0
0
0
0
0
0
0
0
0
0
0
0
0
0
0
0
0
0
0
0
0
0
0
0
0
0
0
0
0
0
0
0
0
0
0
0
0
0
0
0
0
0
0
0
0
0
0
0
0
0
0
0
0
0
0
0
0
0
0
0
0
0
0
0
0
0
0
0
0
0
0
0
0
0
0
0
0
0
0
0
0
0
0
0
0
0
0
0
0
0
0
0
0
0
0
0
0
0
0
0
0
0
0
0
0
0
0
0
0
0
0
0
0
0
0
0
0
0
0
0
0
0
0
0
0
0
0
0
0
0
0
0
0
0
0
0
0
0
0
0
0
0
0
0
0
0
0
0
0
0
0
0
0
0
0
0
0
0
0
0
0
0
0
0
0
0
0
0
0
0
0
0
0
0
0
0
0
0
0
0
0
0
0
0
0
0
0
0
0
0
0
0
0
0
0
0
0
0
0
0
0
0
0
0
0
0
0
0
0
0
0
0
0
0
0
0
0
0
0
0
0
0
0
0
0
0
0
0
0
0
0
0
0
0
0
0
0
0
0
0
0
0
0
0
0
0
0
0
0
0
0
0
0
0
0
0
0
0
0
0
0
0
0
0
0
0
0
0
0
0
0
0
0
0
0
0
0
0
0
0
0
0
0
0
0
0
0
0
0
0
0
0
0
0
0
0
0
0
0
0
0
0
0
0
0
0
0
0
0
0
0
0
0
0
0
0
0
0
0
0
0
0
0
0
0
0
0
0
0
0
0
0
0
0
0
0
0
0
0
0
0
0
0
0
0
0
0
0
0
0
0
0
0
0
0
0
0
0
0
0
0
0
0
0
0
0
0
0
0
0
0
0
0
0
0
0
0
0
0
0
0
0
0
0
0
0
0
0
0
0
0
0
0
0
0
0
0
0
0
0
0
0
0
0
0
0
0
0
0
0
0
0
0
0
0
0
0
0
0
0
0
0
0
0
0
0
0
0
0
0
0
0
0
0
0
0
0
0
0
0
0
0
0
0
0
0
0
0
0
0
0
0
0
0
0
0
0
0
0
0
0
0
0
0
0
0
0
0
0
0
0
0
0
0
0
0
0
0
0
0
0
0
0
0
0
0
0
0
0
0
0
0
0
0
0
0
0
0
0
0
0
0
0
0
0
0
0
0
0
0
0
0
0
0
0
0
0
0
0
0
0
0
0
0
0
0
0
0
0
0
0
0
0
0
0
0
0
0
0
0
0
0
0
0
0
0
0
0
0
0
0
0
0
0
0
0
0
0
0
0
0
0
0
0
0
0
0
0
0
0
0
0
0
0
0
0
0
0
0
0
0
0
0
0
0
0
0
0
0
0
0
0
0
0
0
0
0
0
0
0
0
0
0
0
0
0
0
0
0
0
0
0
0
0
0
0
0
0
0
0
0
0
0
0
0
0
0
0
0
0
0
0
0
0
0
0
0
0
0
0
0
0
0
0
0
0
0
0
0
0
0
0
0
0
0
0
0
0
0
0
0
0
0
0
0
0
0
0
0
0
0
0
0
0
0
0
0
0
0
0
0
0
0
0
0
0
0
0
0
0
0
0
0
0
0
0
0
0
0
0
0
0
0
0
0
0
0
0
0
0
0
0
0
0
0
0
0
0
0
0
0
0
0
0
0
0
0
0
0
0
0
0
0
0
0
0
0
0
0
0
0
0
0
0
0
0
0
0
0
0
0
0
0
0
0
0
0
0
0
0
0
0
0
0
0
0
0
0
0
0
0
0
0
0
0
0
0
0
0
0
0
0
0
0
0
0
0
0
0
0
0
0
0
0
0
0
0
0
0
0
0
0
0
0
0
0
0
0
0
0
0
0
0
0
0
0
0
0
0
0
0
0
0
0
0
0
0
0
0
0
0
0
0
0
0
0
0
0
0
0
0
0
0
0
0
0
0
0
0
0
0
0
0
0
0
0
0
0
0
0
0
0
0
0
0
0
0
0
0
0
0
0
0
0
0
0
0
0
0
0
0
0
0
0
0
0
0
0
0
0
0
0
0
0
0
0
0
0
0
0
0
0
0
0
0
0
0
0
0
0
0
0
0
0
0
0
0
0
0
0
0
0
0
0
0
0
0
0
0
0
0
0
0
0
0
0
0
0
0
0
0
0
0
0
0
0
0
0
0
0
0
0
0
0
0
0
0
0
0
0
0
0
0
0
0
0
0
0
0
0
0
0
0
0
0
0
0
0
0
0
0
0
0
0
0
0
0
0
0
0
0
0
0
0
0
0
0
0
0
0
0
0
0
0
0
0
0
0
0
0
0
0
0
0
0
0
0
0
0
0
0
0
0
0
0
0
0
0
0
0
0
0
0
0
0
0
0
0
0
0
0
0
0
0
0
0
0
0
0
0
0
0
0
0
0
0
0
0
0
0
0
0
0
0
0
0
0
0
0
0
0
0
0
0
0
0
0
0
0
0
0
0
0
0
0
0
0
0
0
0
0
0
0
0
0
0
0
0
0
0
0
0
0
0
0
0
0
0
0
0
0
0
0
0
0
0
0
0
0
0
0
0
0
0
0
0
0
0
0
0
0
0
0
0
0
0
0
0
0
0
0
0
0
0
0
0
0
0
0
0
0
0
0
0
0
0
0
0
0
0
0
0
0
0
0
0
0
0
0
0
0
0
0
0
0
0
0
0
0
0
0
0
0
0
0
0
0
0
0
0
0
0
0
0
0
0
0
0
0
0
0
0
0
0
0
0
0
0
0
0
0
0
0
0
0
0
0
0
0
0
0
0
0
0
0
0
0
0
0
0
0
0
0
0
0
0
0
0
0
0
0
0
0
0
0
0
0
0
0
0
0
0
0
0
0
0
0
0
0
0
0
0
0
0
0
0
0
0
0
0
0
0
0
0
0
0
0
0
0
0
0
0
0
0
0
0
0
0
0
0
0
0
0
0
0
0
0
0
0
0
0
0
0
0
0
0
0
0
0
0
0
0
0
0
0
0
0
0
0
0
0
0
0
0
0
0
0
0
0
0
0
0
0
0
0
0
0
0
0
0
0
0
0
0
0
0
0
0
0
0
0
0
0
0
0
0
0
0
0
0
0
0
0
0
0
0
0
0
0
0
0
0
0
0
0
0
0
0
0
0
0
0
0
0
0
0
0
0
0
0
0
0
0
0
0
0
0
0
0
0
0
0
0
0
0
0
0
0
0
0
0
0
0
0
0
0
0
0
0
0
0
0
0
0
0
0
0
0
0
0
0
0
0
0
0
0
0
0
0
0
0
0
0
0
0
0
0
0
0
0
0
0
0
0
0
0
0
0
0
0
0
0
0
0
0
0
0
0
0
0
0
0
0
0
0
0
0
0
0
0
0
0
0
0
0
0
0
0
0
0
0
0
0
0
0
0
0
0
0
432.078
567.511
149.613
581.556
1554.56
541.841
366.684
446.845
66.6402
340.76
1197.08
1658.27
367.996
1462.5
558.8
455.066
980.343
1617.58
841.01
955.801
1922.62
398.017
134.911
474.648
1732.27
1737.55
413.359
239.942
268.332
1833.59
474.482
2639.07
2861.05
2838.07
2513.67
339.781
482.89
1386.67
1632.4
3518.9
1964.43
4003.95
1170.38
3172.8
3040.91
1893.2
2167.78
905.632
1832.81
79.9706
100.709
324.897
1142.59
366.277
4470.01
1612.7
1165.23
422.53
213.905
891.516
981.053
448.402
922.865
3294.26
907.73
4454.48
3943.73
5224.9
5052.93
8106.51
1065.47
4369.63
4809.58
9821.5
6105.69
9860.67
8240.45
1134.32
4533.43
4947.32
1950.64
5195.67
4446.72
6701.95
6318.22
3653.88
4916.43
9008.2
10730.1
9214.66
10038
5925.26
3990.57
3979.71
9986.44
8704.01
9144.94
9227.24
1986.4
1317.83
1716.04
3557.95
3416.29
2005.48
4010.01
733.72
2048.72
927.429
2403.56
1442.88
1432.14
504.212
12044.8
11245.4
11798.3
11364.8
11564.8
11062.9
11293.1
2132.18
4866.66
5933.6
1331.67
512.126
967.292
1176.85
8308.26
2036.66
8608.88
7432.73
10514.9
3258.24
8346.23
2152.67
769.982
514.037
990.32
3199.76
551.39
628.498
7332.63
3094.66
4829.25
1175.66
1156.82
879.523
955.166
357.126
554.023
54.8502
69.7632
44.1524
498.174
0.681888
4247.65
3296.49
4461.96
4558.12
222.974
3649.6
780.094
5695.19
569.842
5061.7
3390.77
5686.11
987.068
5554.15
807.802
1138.15
418.169
366.404
495.016
990.644
464.552
55.5144
248.019
60.4569
52.2456
17.5489
158.492
142.417
91.8919
1238.15
157.264
38.6077
494.813
10.0189
109.555
252.997
447.824
2018.52
39.9461
31.2544
72.9228
294.526
475.247
432.92
797.154
132.519
661.585
73.1867
516.169
48.6239
167.723
105.527
15.0127
54.8781
514.902
207.447
332.529
53.6896
13.5877
101.63
30.0965
111.41
20.7602
36.8815
34.985
124.47
86.3093
41.6532
66.1599
101.843
630.061
19.5521
92.517
4.3316
217.028
4.82593
9.40378
22.8866
870.09
890.924
670.796
177.972
52.198
593.989
8.01953
220.105
102.12
121.211
4.26015
249.152
154.619
110.794
95.3934
93.6899
307.7
309.829
87.3029
310.048
4.3524
3.92996
-5.82443e-13
4.87648
6.0241
0
0
631.441
12.7574
13.0695
0
0
7.11675
0
4.21318
19.4805
8.55874
68.4119
4.93045
17.3769
10.1327
113.412
373.045
580.96
11.0472
7.36897
367.283
163.771
0
4.26228
4.57145
0
0
0.177109
0
0
-1.11604e-12
0
0
0
0
0
1.5615
12.7835
5.76539
61.5721
28.971
21.6255
19.2308
5.6135
45.7393
0
37.3075
6.91596
57.1323
11.5447
0
4.41625
0
0
0
1.52911
0
0
0
0
0
0
0
5.83209
28.1348
65.6582
25.0849
37.2908
28.0798
76.682
38.6118
9.31734
54.1545
10.3719
53.5644
12.4593
63.9132
7.83368
0
4.18322
0
0
0
0
0
0
0
-1.28126e-12
0
0
0
0
5.5876
48.8659
15.5269
0
0
12.2942
3.40663
6.36378
28.194
13.5085
6.20633
10.6838
36.7575
0.822882
0
0
0
0
0
0
0
0
0
0
0
0
0
0
0
22.9054
0
14.7809
5.60597
5.99918
0
17.4605
20.4813
11.2229
8.86489
18.2371
8.66639
16.7425
0
0
0
0
0
0
0
0
0
0
0
0
0
0
5.44875
0
0
4.95504
0
0
1.73762
6.91954
3.94336
31.925
7.77923
-4.79732e-13
6.88619
1.05116
0
5.44295
0
0
0
-1.3215e-12
0
0
0
0
0
0
0.239821
0
0
4.2723
3.30928
0
2.518
0
0
11.3172
17.3558
3.91649
0
0
1.5926
0
0
0
0
0
0
0
0
0
5.14229
0
0
0
0
0
3.83002
0
0
0
3.70384
0
0
0
0
4.95453
0
0
0
0
0
0
0
0
0
0
0
0
0
0
0
0
0
0
0
0
0
0
0
0
0
0
0
0
0
0
0
0
0
0
0
0
0
0
0
0
0
0
0
0
0
0
0
0
0
4.9116
0
0
0
0
0
0
0
0
0
0
0
0
0
0
0
0
0
0
0
0
0
0
0
0
0
0
0
0
0
0
0
0
0
0
0
0
0
0
0
0
0
0
0
0
0
0
0
0
0
0
0
0
0
0
0
0
0
4.82606
0
0
0
0
0
0
0
0
0
0
0
0
0
0
0
0
0
0
0
0
0
0
0
3.90193
0
0
0
-1.0298e-12
0
0
5.04847
0
-6.6122e-13
0
0
0
0
0
0
0
0
0
0
0
0
0
0
0
0
0
0
0