/*--------------------------------*- C++ -*----------------------------------*\
| =========                 |                                                 |
| \\      /  F ield         | OpenFOAM: The Open Source CFD Toolbox           |
|  \\    /   O peration     | Version:  5.x                                   |
|   \\  /    A nd           | Web:      www.OpenFOAM.org                      |
|    \\/     M anipulation  |                                                 |
\*---------------------------------------------------------------------------*/
FoamFile
{
    version     2.0;
    format      ascii;
    class       volScalarField;
    location    "0.25";
    object      voidfraction;
}
// * * * * * * * * * * * * * * * * * * * * * * * * * * * * * * * * * * * * * //

dimensions      [0 0 0 0 0 0 0];

internalField   nonuniform List<scalar> 
10571
(
0.999681
0.982055
0.987892
0.997121
0.984837
0.986319
0.992811
0.987792
0.986715
0.969663
0.994037
0.997242
0.99026
0.937122
0.989265
0.981955
0.979904
0.993436
0.98675
0.981043
0.967294
0.984878
0.981357
0.974457
0.993032
0.985762
0.995618
0.997101
0.993423
0.994
0.999891
0.999217
0.99288
0.988087
0.993676
0.9971
0.99916
0.998162
0.990929
0.971245
0.996864
0.9986
0.996717
0.996107
0.991973
0.993565
0.997134
0.992707
0.991357
0.982319
0.997554
0.999042
0.993368
0.997749
0.999782
0.999247
0.994467
0.985514
0.99814
1
0.99967
0.998599
0.992606
0.975066
0.993957
0.997619
0.99758
0.997489
0.985418
0.988209
0.995694
0.983129
0.987913
0.982824
0.996876
1
0.990523
0.996871
0.999783
0.99912
0.995168
0.989795
0.994725
0.99963
0.999851
0.998683
0.994605
0.982547
0.99631
0.99641
0.99625
0.992981
0.970535
0.985299
0.990834
0.986422
0.989666
0.9776
0.997034
1
0.984857
0.997401
0.999755
0.998635
0.993111
0.982897
0.99989
0.999662
0.999271
0.998841
0.994377
0.972121
0.996543
0.995267
0.996135
0.993195
0.976391
0.980255
0.987893
0.989838
0.998571
0.984933
0.999021
0.999458
0.986258
0.996554
0.999283
0.998244
0.98765
0.987992
0.649232
0.997141
0.99513
0.999698
0.998005
0.992675
0.985662
0.475142
0.989625
0.994909
0.996073
0.991007
0.987847
0.989275
0.996527
0.984503
0.996812
0.972273
0.995038
0.998882
0.986718
0.99635
0.986345
0.998061
0.98932
0.990517
1
1
0.999053
0.998677
0.998401
0.993909
0.991397
0.999232
0.990496
0.995734
0.996078
0.993912
0.989902
1
0.991869
0.994383
0.993076
0.994174
0.973281
0.993688
0.99587
0.99315
0.993342
0.99277
0.998678
0.991315
0.98498
1
0.992412
0.996109
0.999776
0.998788
0.99441
0.994705
1
0.992421
0.993189
0.996344
0.997081
0.989009
1
0.984822
0.993296
0.988968
0.996812
0.949924
0.99541
0.992788
0.996413
0.993579
0.998496
0.997074
0.992582
0.991879
1
0.994722
0.999019
0.999006
0.99818
0.99244
0.989958
1
0.994256
0.992391
0.996516
0.985219
0.994472
0.979478
0.990909
0.985022
0.990435
0.962362
0.998347
0.9955
0.996508
0.998986
0.998556
0.99615
0.994745
0.988441
1
0.998376
0.999034
0.997848
0.993438
0.987776
0.994226
0.991045
0.995142
0.993445
0.987433
0.982189
0.990789
0.993345
0.998901
0.968638
0.996762
0.99564
0.997506
0.996453
0.99424
0.996182
0.995253
0.991241
0.99978
0.998817
0.998682
0.998637
0.993081
0.986567
0.997384
0.992629
0.993713
0.986402
0.987165
0.976305
0.994565
0.996289
0.991974
0.959176
0.997134
0.995777
0.994503
0.99723
0.995789
0.995001
0.996015
0.989386
1
0.999358
0.999196
0.99866
0.993465
0.984015
0.998557
0.993926
0.993713
0.992992
0.985387
0.979054
0.993478
0.99531
1
0.977208
0.993358
0.998682
0.996365
0.997129
0.999119
0.997666
0.996657
0.988372
0.996811
0.99902
0.998984
0.998331
0.993812
0.977237
0.998286
0.994121
0.99542
0.99536
0.98971
0.96926
0.993749
0.993839
0.993733
0.9678
0.998753
0.993176
0.99309
0.998683
0.999557
0.994332
0.995275
0.990231
1
1
0.998773
0.998021
0.994451
0.984309
0.99537
0.995934
0.994975
0.995593
0.975845
0.974603
0.996075
0.993979
0.995602
0.985944
0.998685
0.997399
0.995524
0.998041
0.999447
0.995767
0.994701
0.989029
1
1
0.999515
0.998598
0.994326
0.987
0.995069
0.997291
0.996301
0.995426
0.970525
0.968331
0.995622
0.99783
0.997581
0.981408
1
0.993818
0.98609
0.9974
0.997276
0.998177
0.995618
0.987168
0.996811
0.998614
0.998661
0.998165
0.9945
0.978172
0.992303
0.996766
0.998059
0.996761
0.978996
0.97952
0.995622
0.99825
0.996151
0.981129
0.993562
0.995677
0.991497
0.996083
0.998543
0.998108
0.995901
0.991741
0.99967
0.998175
0.997484
0.998296
0.99469
0.986213
0.991372
0.997472
0.996046
0.999032
0.97059
0.9741
0.999698
0.993978
0.990436
0.986001
0.99609
0.997906
0.996185
0.996488
0.99625
0.998281
0.993898
0.991392
1
0.99608
0.999292
0.997282
0.993884
0.980014
0.988246
0.997351
0.996992
1
0.98775
0.990284
0.994898
0.99804
1
0.980569
0.996023
0.99902
0.997146
0.993179
0.998958
0.996891
0.996499
0.995039
1
0.997263
0.999381
0.998521
0.993722
0.987576
0.994198
0.997658
0.998516
0.998231
0.97585
0.984129
0.998249
0.99419
1
0.967074
0.992079
0.99902
0.996516
0.998312
0.998821
0.995882
0.996381
0.989574
0.996702
0.99902
0.998669
0.998203
0.994261
0.99208
0.997445
0.996855
0.999232
0.99566
0.9867
0.982851
0.994807
0.99587
0.997581
0.965342
0.997202
0.99902
0.996605
0.998953
0.99818
0.994704
0.997314
0.993526
0.996922
0.999189
0.998565
0.998711
0.994168
0.98673
0.997685
0.995143
0.998763
0.996929
0.98586
0.986643
0.994746
0.99797
0.996812
0.965619
0.997843
0.998818
0.997717
0.997434
0.998955
0.997406
0.996644
0.985889
0.993733
0.998648
0.998769
0.997863
0.993957
0.980654
0.998076
0.99658
0.99922
0.991888
0.98761
0.975687
0.996317
0.99076
0.996812
0.976034
0.996865
0.997061
0.997567
0.998818
0.999229
0.998285
0.997944
0.991859
1
0.998006
0.998685
0.998308
0.993665
0.981077
0.997295
0.995191
0.997841
0.998097
0.98607
0.983817
0.988829
0.99153
0.99934
0.977994
0.99609
0.996048
0.993421
0.998616
0.997593
0.997962
0.997076
0.991899
1
0.998243
0.99715
0.997901
0.993162
0.983828
0.992455
0.994799
0.99658
0.996428
0.99048
0.969144
0.99683
0.99867
0.996811
0.98897
0.997067
0.996825
0.99159
0.999021
0.998989
0.998442
0.996874
0.990502
0.996812
0.997094
0.998219
0.996089
0.994131
0.98005
0.992966
0.996956
0.993499
0.996829
0.99328
0.969105
0.999547
0.99538
1
0.995185
0.998247
0.996724
0.993331
0.997569
0.998489
0.99863
0.996458
0.987207
0.996481
0.998885
0.998158
0.996964
0.992619
0.986156
0.99008
0.99637
0.996996
0.994826
0.99335
0.980951
0.998249
0.99993
0.996811
0.995185
0.998382
0.999493
0.993302
0.999662
0.998455
0.998104
0.997488
0.986742
0.99967
0.997601
0.99855
0.998014
0.993199
0.974337
0.994739
0.995934
0.996398
0.997129
0.98971
0.989316
0.99997
0.9979
0.994722
0.996361
0.998989
0.99946
0.997507
0.999021
0.999283
0.998795
0.994911
0.989495
0.996922
0.997364
0.998677
0.99789
0.993592
0.980412
0.996993
0.997141
0.996418
0.996428
0.99335
0.983431
1
0.9979
0.996922
0.981913
0.992416
0.996149
0.995044
0.999055
0.999203
0.998714
0.993765
0.992635
0.998681
0.999662
0.999354
0.997886
0.993187
0.975425
0.995941
0.997186
0.998201
0.998064
0.97907
0.989161
1
1
0.996812
0.992833
0.996461
0.99821
0.987264
0.998683
0.997558
0.998089
0.992452
0.99178
0.996812
0.998107
0.999219
0.997832
0.993223
0.965842
0.997715
0.997323
0.998512
0.996829
0.9874
0.986644
1
0.99797
1
0.996024
0.999022
0.996115
0.996244
0.997163
0.993648
0.996373
0.992601
0.997402
1
0.998682
0.998454
0.998378
0.993535
0.983071
0.995971
0.995768
0.99941
0.994926
0.98376
0.987806
1
0.99727
1
0.997816
0.994135
0.995068
0.995583
0.998548
0.99834
0.995567
0.991503
0.994107
0.996811
1
0.999262
0.997851
0.990811
0.979898
0.996512
0.994545
0.997081
0.996128
0.99307
0.994116
1
0.9979
0.996921
0.992385
0.994067
0.996487
0.998107
0.999325
0.997196
0.996865
0.994217
0.99496
1
0.994829
0.999777
0.99679
0.99039
0.974911
0.997294
0.995635
0.997069
0.993891
0.99118
0.985754
0.996678
0.99797
0.992192
0.995687
0.996662
1
0.997626
0.999966
0.994823
0.995805
0.994108
0.998488
0.996151
0.998783
0.998719
0.997599
0.992198
0.95886
0.995881
0.99396
0.996612
0.996962
0.99552
0.982772
0.997947
0.9951
0.996811
0.982697
0.995854
1
0.997867
0.997636
0.995586
0.995959
0.99397
0.994378
0.992304
1
0.995811
0.997537
0.989454
0.967384
0.998286
0.995829
0.997324
0.998531
0.99111
0.987649
0.997584
1
1
0.980737
0.997067
0.997838
0.997716
0.999021
0.997677
0.996093
0.992311
0.998449
0.992853
0.99804
0.998061
0.998192
0.987391
0.966716
0.99507
0.996988
0.996301
0.997096
0.9937
0.97685
0.997252
0.98978
1
0.989974
0.998011
1
0.997687
1
0.9952
0.998108
0.99099
0.997131
0.99956
0.99831
0.997623
0.998866
0.983698
0.961994
0.996993
0.996237
0.99757
0.99743
0.9979
0.98339
1
0.97991
1
0.990033
0.99791
0.99902
0.998077
0.999325
0.993919
0.99863
0.994193
0.99717
1
1
0.999196
0.999566
0.982073
0.958486
0.996633
0.996225
0.997219
0.996528
0.995169
0.989664
0.998762
0.99356
1
0.987681
0.995718
0.999966
0.996516
0.9974
0.992663
0.996884
0.994362
0.995929
1
1
0.997696
0.999071
0.98326
0.947701
0.997174
0.996249
0.997922
0.992923
0.99321
0.991752
0.997252
0.9979
1
0.983253
0.997269
1
0.994533
0.998244
0.994972
0.99683
0.990643
0.99531
1
1
0.998027
0.999547
0.984918
0.949005
0.997084
0.99463
0.99751
0.996729
0.9979
0.984399
0.993025
0.99636
1
0.995128
0.997607
0.998987
0.995344
0.997805
0.988753
0.995406
0.992428
0.992247
1
1
0.994877
0.999005
0.982689
0.950849
0.995941
0.99675
0.998144
0.994626
0.9979
0.98885
0.999124
0.99727
1
0.996472
0.998045
0.996893
0.999009
0.99821
0.996673
0.997908
0.995194
0.993294
1
1
0.994973
0.997487
0.982592
0.937972
0.997505
0.995773
0.998274
0.988083
0.99664
0.989159
0.997917
0.99664
1
0.997144
0.997
1
0.995855
0.997569
0.998703
0.996711
0.993615
0.996628
1
1
0.997223
0.998753
0.980995
0.933922
0.997144
0.996915
0.997392
0.992189
0.9937
0.991096
1
0.99027
1
0.992329
0.996899
0.99642
0.990779
0.991727
0.999042
0.996055
0.993191
0.995116
1
0.997094
0.994423
0.998684
0.977493
0.947736
0.996513
0.995328
0.997255
0.989885
0.99888
0.985905
0.999124
0.994539
1
0.993112
0.998652
0.994258
0.993061
0.996285
0.998077
0.996604
0.992315
0.998449
1
0.972657
0.996773
0.998258
0.974194
0.937115
0.998858
0.996285
0.996879
0.988984
0.99706
0.982072
0.998248
0.992509
0.99989
0.995073
0.997843
0.997197
0.996516
0.999797
0.994998
0.998403
0.994201
0.998876
1
0.994694
0.997342
0.998207
0.967919
0.925106
0.998978
0.997149
0.996123
0.989952
0.973607
0.982614
0.997796
0.9916
1
0.998376
0.996022
0.998716
0.997176
0.996691
0.995006
0.998473
0.99332
0.995929
1
0.996857
0.998485
0.998405
0.965617
0.925166
0.999699
0.996677
0.994025
0.978335
0.984738
0.978587
0.991756
0.99601
1
0.998152
0.999966
0.997872
0.994531
0.998312
0.997051
0.99749
0.993316
1
1
0.99804
0.998735
0.997386
0.961629
0.956793
0.99997
0.997577
0.994223
0.991187
0.980535
0.989197
0.995893
0.99314
1
0.995743
0.999056
0.99706
0.997596
0.998345
0.998894
0.996573
0.99435
0.997674
1
0.99902
0.992927
0.993302
0.954588
0.952137
0.997024
0.997117
0.991478
0.979804
0.982778
0.995005
0.995138
0.971087
1
0.999384
0.999022
0.997635
1
0.994125
0.997745
0.995115
0.995235
0.997325
0.996811
0.996147
0.9957
0.992488
0.94987
0.963243
0.998256
0.99597
0.988046
0.961344
0.97431
0.995315
0.992752
0.991739
0.998681
1
0.999023
1
0.995824
0.998244
0.989504
0.996715
0.99368
0.99841
1
0.99929
0.996434
0.990552
0.946316
0.962971
0.998286
0.995914
0.989918
0.982341
0.97998
0.995316
0.988496
0.99055
1
0.999664
0.996427
1
1
0.999358
0.994842
0.997897
0.989043
0.998449
1
0.999425
0.994023
0.992899
0.936997
0.956048
0.998286
0.99549
0.990815
0.970824
0.95352
0.996128
0.988558
0.98691
1
0.996752
0.999933
1
0.996515
0.999055
0.998775
0.992747
0.991761
0.998139
1
0.999932
0.981999
0.994552
0.921916
0.962154
0.997505
0.998223
0.988094
0.969923
0.97921
0.990205
0.980948
0.983198
1
0.99944
0.998989
1
0.998258
0.998616
0.999229
0.993625
0.994903
0.997713
1
0.999358
0.996527
0.994517
0.912986
0.96282
0.997445
0.998066
0.986712
0.952798
0.97032
0.979713
0.988828
0.984458
1
0.998376
0.998045
0.99973
0.999129
0.999662
0.999123
0.998806
0.996224
0.998876
1
1
0.997919
0.995629
0.886892
0.962336
1
0.995809
0.985564
0.929598
0.95618
0.989509
0.996347
0.9699
1
0.999664
0.999562
1
1
0.999021
0.999405
0.999083
0.996426
1
1
1
0.998346
0.990243
0.870124
0.959615
1
0.99633
0.983251
0.884366
0.95961
0.990323
0.990067
0.98103
1
0.998376
0.999022
1
1
0.999358
0.999573
0.998695
0.996563
0.996743
1
1
0.999154
0.997108
0.854812
0.960277
0.99997
0.996742
0.980619
0.85893
0.939009
0.990555
0.993871
0.96857
1
1
0.999022
0.99902
0.998257
1
0.999359
0.999332
0.997694
0.99624
1
1
0.999508
0.998293
0.852106
0.933976
1
0.996943
0.971455
0.773957
0.932294
0.996748
0.991214
0.94125
1
1
1
1
0.99997
0.998312
0.998676
0.999482
0.998345
0.997636
1
0.99902
0.999496
0.998835
0.844073
0.892438
1
0.997771
0.963294
0.671235
0.90773
0.998877
0.991575
0.958406
1
0.998376
0.998247
1
1
1
0.996233
0.996799
0.997588
0.993844
1
1
0.998773
0.99904
0.839259
0.839232
1
0.998183
0.954459
0.63204
0.922637
0.999613
0.988675
0.925646
0.996811
0.99944
0.998044
0.99902
0.999129
0.999358
0.997319
0.995826
0.997528
0.994242
1
0.999053
0.998945
0.999182
0.837731
0.789952
1
0.997948
0.937865
0.633464
0.873642
1
0.988495
0.913134
0.99956
1
0.999966
0.998681
0.999128
0.998074
0.996832
0.994683
0.998754
0.998709
1
0.999357
0.999267
0.997914
0.828939
0.723305
0.997384
0.997687
0.919326
0.588002
0.831132
0.998877
0.981126
0.884416
1
1
0.999022
0.999797
0.999426
1
0.998531
0.995587
0.998978
0.998794
1
1
0.998651
0.997408
0.852382
0.664718
1
0.998436
0.998701
0.913554
0.6451
0.875477
0.999845
0.978619
0.861643
0.996812
1
0.998042
1
0.998063
1
0.998646
0.992936
0.99908
1
0.998001
1
0.999797
0.998551
0.996809
0.866227
0.669748
1
0.999128
0.998117
0.911915
0.527545
0.842996
1
0.980492
0.850984
1
1
0.999798
0.997055
0.999099
0.99902
0.999049
0.994695
0.997869
0.995814
0.994779
1
1
0.998876
0.996207
0.922617
0.762717
0.944763
1
0.999372
0.909617
0.541899
0.605084
1
0.999303
0.981277
0.851064
1
1
0.997098
0.999662
0.99913
0.99902
0.999038
0.994745
0.997345
0.989681
0.993086
0.996811
0.999019
0.998967
0.996964
0.953685
0.863318
0.591809
1
0.999417
0.912613
0.603267
0.547132
0.998877
0.987041
0.879801
0.99934
1
0.999966
0.997464
0.998256
0.998683
0.998606
0.997375
0.994606
0.958735
1
0.997396
0.999359
0.996719
0.95039
0.734685
0.490729
0.999128
0.999522
0.923912
0.580818
0.485391
1
0.996527
0.884385
1
0.999944
1
0.999088
0.997898
0.999021
0.99862
0.996043
0.993743
0.941125
1
0.999053
0.998304
0.998546
0.93751
0.632141
1
0.998751
0.935421
0.622163
0.512679
0.998916
0.996709
0.866669
1
1
0.998045
0.99902
0.999279
1
0.997107
0.996197
0.992953
0.92331
1
0.999831
0.998445
0.997065
0.931696
0.619948
0.999098
0.998788
0.943511
0.621491
0.583916
0.997755
0.992784
0.878365
1
1
1
0.998514
0.997026
0.999021
0.995441
0.993985
0.991283
0.902753
1
0.99902
0.995691
0.99313
0.934533
0.657752
0.999639
0.996562
0.966367
0.617517
0.640388
0.994386
0.99535
0.877538
0.996812
0.998376
0.999023
0.993355
0.998679
0.998583
0.992948
0.986451
0.9866
0.904298
1
0.997064
0.990055
0.984697
0.932687
0.730259
1
0.994725
0.978028
0.591674
0.695084
0.994774
0.995441
0.899925
0.997474
0.997877
0.999029
0.997754
0.998264
1
0.976075
0.95557
0.980031
0.972518
0.99989
0.995103
0.977127
0.947053
0.927742
0.748914
0.994281
0.985485
0.958989
0.635517
0.733234
0.995516
0.99373
0.939939
0.993021
0.986106
0.992846
0.996927
0.99675
0.997186
0.891718
0.903122
0.979604
0.994774
0.991495
0.993395
0.92757
0.836424
0.901704
0.774487
0.974107
0.943467
0.942225
0.706113
0.757203
0.995155
0.988352
0.974055
0.955954
0.861105
0.973411
0.957382
0.987458
0.986849
0.849561
0.739857
0.993141
0.993793
0.82672
0.980038
0.904845
0.78986
0.901589
0.56333
0.702467
0.876176
0.760444
0.712494
0.451307
0.97856
0.9904
0.896231
0.919184
0.976077
0.940707
0.923254
0.80268
0.907775
0.987334
0.990796
0.876674
0.633555
0.993386
0.9356
0.999029
0.846493
0.50908
0.451139
1
0.986028
0.724256
0.501328
0.446781
0.847357
0.673353
0.464213
0.615878
0.734378
0.590077
0.624529
0.709124
0.628728
0.639692
0.619214
0.627069
0.652061
0.633049
0.644376
0.674482
0.614468
0.618619
0.723057
0.624977
0.625235
0.586814
0.599144
0.594859
0.583624
0.603649
0.612066
0.625639
0.629003
0.606418
0.696327
0.631398
0.6048
0.657247
0.614192
0.614143
0.706018
0.625953
0.598646
0.530444
0.544631
0.592602
0.512333
0.575454
0.614546
0.591251
0.578952
0.568833
0.608494
0.56926
0.614961
0.715593
0.647094
0.637379
0.63438
0.584255
0.571277
0.644573
0.570234
0.523753
0.662283
0.595711
0.515292
0.58501
0.552632
0.587792
0.577977
0.580258
0.581746
0.565368
0.570071
0.646401
0.577314
0.618744
0.568496
0.668312
0.609618
0.641847
0.674012
0.610415
0.603455
0.568183
0.592449
0.586238
0.581348
0.576455
0.59272
0.600179
0.556599
0.592488
0.555067
0.620433
0.626878
0.61211
0.618905
0.599318
0.601847
0.678116
0.589261
0.98253
0.986739
1
0.987471
0.988153
0.996924
0.994249
0.993628
0.992027
0.993199
0.991833
0.993928
0.993898
0.987145
0.991516
0.974782
0.995603
0.984412
0.98324
0.989955
0.976939
0.988343
0.985778
0.99364
0.979224
0.987375
0.986147
0.993384
0.981028
0.9982
0.986235
0.982267
0.97563
0.981337
0.981686
0.987853
0.987482
0.993742
0.993655
0.976829
0.991584
0.984756
0.971197
0.989707
0.990326
0.985508
0.997348
0.995842
0.99302
0.99361
0.978713
0.979315
0.982072
0.984965
0.983397
0.992708
0.994258
0.973079
0.98669
0.995527
0.994426
0.988563
0.992725
0.977199
0.971388
0.980551
0.995875
0.982642
0.990631
0.976214
0.985918
0.982697
0.990576
0.973034
0.971256
0.983423
0.988826
0.990565
0.979947
0.973388
0.989427
0.992324
0.995971
0.990135
0.98617
0.990471
0.999571
0.995103
0.993409
0.996199
0.991533
0.996306
0.994358
0.99315
0.991637
0.998286
0.998903
0.992983
0.992713
0.994445
0.993266
0.991003
0.987928
0.99262
0.968348
0.986095
0.993375
0.99575
0.985632
0.996677
0.99068
0.995119
0.9885
0.99755
0.9862
0.98417
0.976909
0.993115
0.998392
0.990214
0.992401
0.994026
0.992435
0.979212
0.978119
0.982778
0.982802
0.988802
0.996315
0.993591
0.991203
0.994827
0.996709
0.98188
0.989188
0.972374
0.974791
0.98638
0.99424
0.994959
0.996196
0.992681
0.986881
0.995495
0.996228
0.980987
0.985142
0.987019
0.99194
0.978463
0.996621
0.985371
0.981665
0.973185
0.978579
0.989133
0.992071
0.989998
0.995715
0.987862
0.98643
0.989146
0.994079
0.993787
0.992741
0.986111
0.994356
0.982964
0.992543
0.989926
0.990263
0.99682
0.99401
0.983316
0.994603
0.989601
0.996795
0.995516
0.991878
0.994754
0.997647
0.998618
0.996664
0.988683
0.994028
0.991795
0.991722
0.992909
0.989397
0.990322
0.994225
0.989631
0.990597
0.999067
0.985442
0.994802
0.983978
0.999053
0.991662
0.988355
0.987727
0.99659
1
0.997724
0.992828
0.9955
0.994634
0.981942
0.977771
0.990759
0.991488
0.989004
0.997483
0.994863
1
0.995718
0.994021
0.986759
0.990356
0.983981
0.964402
0.986624
0.993021
0.997983
0.996071
0.991092
0.987674
0.9945
0.997257
0.996188
0.993134
0.979479
0.988304
0.970222
0.997814
0.98342
0.986864
0.97396
0.987776
0.973714
0.985975
0.987438
0.974544
0.978721
0.98322
0.981039
0.993736
0.996832
0.99241
0.989605
0.990904
0.985261
0.987884
0.994356
0.984065
0.994396
0.992897
0.993624
0.994237
0.995612
0.995132
0.989252
0.989228
0.991281
0.993266
0.985509
0.982706
0.995964
0.989415
0.98918
0.991676
0.988241
0.993449
0.988416
0.98702
0.9949
0.987306
0.995044
0.986763
0.992997
0.965237
0.997593
0.991207
0.977641
0.988673
0.996135
0.996373
0.993773
0.99323
0.995053
0.994492
0.987863
0.969719
0.990817
0.972366
0.978229
0.998246
0.992072
0.994283
0.99885
0.994
0.989548
0.987974
0.973935
0.986335
0.982809
0.992264
0.993933
0.996356
0.991402
0.988911
0.997386
0.996937
0.995332
0.982725
0.980218
0.986666
0.977455
0.994585
0.983763
0.987644
0.979858
0.975766
0.987275
0.988877
0.98848
0.973781
0.985715
0.977983
0.971027
0.992683
0.98223
0.987681
0.99225
0.985406
0.986902
0.993379
0.985293
0.993623
0.994854
0.995095
0.980868
0.994388
0.9947
0.998122
0.994966
0.993843
0.99597
0.992677
0.985696
0.989668
0.994915
0.987879
0.992572
0.990021
0.991641
0.981182
0.989634
0.990018
0.99515
0.97545
0.992915
0.987944
0.989685
0.981936
0.99747
0.9926
0.994664
0.994586
0.991409
0.996811
0.999061
0.991408
0.991423
0.990188
0.977196
0.960396
0.985436
0.984083
0.942389
0.995426
0.992953
0.988894
0.995213
0.995082
0.961551
0.988153
0.980169
0.938801
0.986332
0.998814
0.998047
1
0.988413
0.990194
0.993746
0.99449
0.986556
0.9845
0.985234
0.984331
0.975483
0.991747
0.97723
0.990407
0.980149
0.987681
0.987407
0.981878
0.98629
0.979038
0.990165
0.988941
0.991439
0.991432
0.995501
0.98686
0.993211
0.986063
0.993619
0.986756
0.994214
0.996261
0.99191
0.995245
0.991643
0.996052
0.997365
0.995544
0.993295
1
0.997969
0.997287
0.991762
0.994559
0.991989
0.997771
0.995206
0.992788
0.997786
0.984261
0.985136
0.993503
0.993909
0.98413
0.994317
0.991996
0.991513
0.990533
0.995885
0.9916
0.987033
0.986683
0.994736
0.994722
0.99691
0.994078
0.993622
0.99067
0.935305
0.986305
0.821859
0.99134
0.996459
0.984211
0.994748
0.462346
0.49251
0.399868
0.999812
0.974476
0.990277
0.924605
0.995485
0.998412
1
0.998788
0.988962
0.822083
0.989443
0.941816
0.991605
0.997665
0.991067
0.998786
0.385629
0.669748
0.477597
0.989325
0.910119
0.997853
0.966563
0.99407
0.99393
0.996833
0.989368
0.988132
0.992902
0.989471
0.97733
0.986345
0.983828
0.989714
0.977427
0.990939
0.987798
0.99045
0.980756
0.992121
0.982928
0.988735
0.987947
0.983976
0.988654
0.983773
0.97783
0.987658
0.984197
0.990695
0.98521
0.993086
0.993555
0.993866
0.99031
0.989885
0.9928
0.995881
0.996702
0.996981
0.99791
0.996939
1
1
0.995545
0.995547
0.989901
0.989148
0.992337
0.995332
0.988402
0.988406
0.994039
0.96936
0.986753
0.988227
0.993028
0.978686
0.997068
0.993966
0.988427
0.989493
0.994171
0.993196
0.990257
1
0.988794
1
1
1
1
1
0.993265
0.993622
0.997365
0.998568
1
0.997607
0.998296
0.99079
0.993586
0.982887
0.993447
0.990134
0.99629
1
1
1
1
1
1
1
0.994758
0.995159
0.99989
0.996606
0.999961
0.998896
0.993105
0.99874
0.989286
0.998021
0.993311
0.99969
1
1
0.999276
1
1
1
1
0.989954
0.990512
0.990529
0.986837
0.986527
0.986977
0.989339
0.989536
0.98913
0.990348
0.992374
0.980825
0.995993
0.984357
0.987981
0.989076
1
0.993479
1
1
1
1
0.984327
0.990554
0.992719
0.99133
0.989661
0.988096
0.974539
0.987582
0.98727
0.990397
0.99422
0.991441
0.993226
0.991216
0.969119
0.987906
0.997097
0.995911
0.996811
0.996129
0.998455
0.995849
0.996942
1
0.996788
1
0.988804
0.994084
0.994636
0.992964
0.991758
0.994248
0.991269
0.963031
0.979711
0.993741
0.996873
0.9951
0.994274
0.993959
0.997173
0.995249
0.996196
0.993391
0.988312
0.998571
0.990967
1
1
1
1
1
0.993071
0.996811
0.996486
0.989819
1
0.995517
0.995442
0.993106
0.998667
0.990047
0.998712
0.995592
0.996978
1
1
1
1
1
1
1
0.997151
0.993455
0.996811
0.99797
0.995933
0.997304
0.98676
0.99594
0.986225
0.994191
0.986561
0.999014
1
1
1
1
1
1
1
0.982349
0.995465
0.992112
0.991505
0.987102
0.991338
0.984522
0.993474
0.992643
0.991832
0.99042
0.982922
0.99144
0.993602
0.992446
0.997886
0.998674
0.991771
1
1
1
1
0.989995
0.967745
0.989909
0.992976
0.982537
0.990332
0.981343
0.989139
0.994623
0.990669
0.990457
0.996818
0.989866
0.986477
0.981458
0.984167
0.992142
0.999122
0.997361
0.993729
0.992852
0.998485
0.997444
0.993624
0.996727
0.997443
0.999861
0.999582
0.988296
0.990735
0.976984
0.989002
0.996547
0.941076
0.984088
0.987394
0.996548
0.98963
0.998419
0.9956
0.992736
0.995265
0.998566
0.995153
0.992599
0.99156
0.995432
0.996811
0.998213
0.996826
0.9989
0.996516
0.997285
0.991571
0.994837
0.988469
0.998504
0.992279
0.993134
1
1
1
1
1
1
1
0.999394
0.996127
0.998131
0.998455
1
0.990246
0.984983
0.998977
0.985277
0.994804
0.99119
1
1
1
1
1
1
1
1
0.99986
0.989884
0.991485
0.993362
0.991583
0.990497
0.991124
0.999606
0.989312
0.990544
0.990989
0.986107
0.997841
0.990122
0.99276
0.989253
0.981527
0.985307
0.974392
0.993021
0.986391
0.986138
0.98852
0.988696
0.993753
0.983649
0.99387
0.995733
0.992318
0.987811
0.982156
0.988012
0.996152
0.997175
0.99473
1
0.99524
1
0.997243
0.997754
1
0.996486
0.997599
0.99707
0.995607
0.988575
0.993313
0.98382
0.990464
0.994334
0.97463
0.97738
0.992461
0.995279
0.997812
0.993457
0.997997
0.998527
0.994495
0.995998
0.993627
0.99249
0.99
0.99191
1
0.999364
0.995858
0.996811
0.996486
0.986883
0.987608
0.985806
0.988486
0.97401
0.999152
0.997754
0.993732
0.999939
0.998877
0.989719
0.990779
0.986741
0.969814
0.982637
0.997628
0.99428
0.992476
0.991844
0.988283
0.995279
0.991786
0.995106
0.987497
0.986638
0.990578
0.985567
0.992233
0.986294
0.984386
0.985599
0.997997
0.967536
0.956343
0.991813
0.987269
0.970303
0.991633
0.981342
0.995967
0.987051
0.996588
0.995969
0.990014
0.995658
0.989127
0.986339
0.994832
0.99702
0.998486
0.993513
0.991254
0.996488
0.998788
0.998374
0.991095
0.997486
0.996633
0.998675
0.997212
0.992407
0.99596
0.977262
0.993087
0.995248
0.95559
0.984513
0.990704
0.997169
0.992867
0.992909
0.993797
0.995435
0.978097
0.995783
0.982588
0.990662
0.979415
0.99551
1
0.999122
0.998181
1
0.997274
0.983703
0.988444
0.986981
0.987204
0.988352
0.998303
0.997754
0.99879
0.998576
0.999613
0.976365
0.988333
0.98776
0.988034
0.984404
0.997977
0.993931
0.99073
0.992013
0.988769
0.997384
0.991887
0.992969
0.984774
0.989048
0.985647
0.985768
0.987818
0.986224
0.991975
0.992376
0.980026
0.964598
0.968657
0.989428
0.990452
0.971815
0.990003
0.993634
0.99845
0.993196
0.994021
0.991323
0.990014
0.99461
0.990452
0.99324
0.991533
0.993422
0.998062
1
0.992416
0.99782
0.996426
0.999265
0.998241
0.996365
1
0.997909
0.994702
0.99596
0.997283
0.975407
0.988291
0.995021
0.972896
0.988887
0.993922
0.998178
0.985003
0.995224
0.99223
0.995554
0.986516
0.9972
0.991985
0.987355
0.980702
0.995665
1
0.994791
0.999806
0.993622
0.998243
0.988598
0.99043
0.987174
0.987355
0.990428
1
0.997018
1
0.999
0.997909
0.971319
0.985957
0.985221
0.975491
0.979218
0.997977
0.995954
0.998021
0.973846
0.983321
0.998557
0.994559
0.985376
0.980536
0.980613
0.989878
0.989041
0.992323
0.989358
0.992765
0.993389
0.990414
0.958582
0.968307
0.991966
0.987379
0.970228
0.989218
0.990342
0.993261
0.991879
0.992421
0.995894
0.996817
0.99629
0.98181
0.968568
0.996811
0.99021
0.993005
0.990434
0.969354
0.993308
0.998274
0.998065
0.996811
0.996547
0.99849
0.9901
0.996654
0.99394
0.991711
0.987929
0.995025
0.994533
0.980904
0.985772
0.988798
0.995998
0.989099
0.997727
0.989896
0.994863
0.982692
0.997562
0.991892
0.98727
0.990556
0.99551
0.996811
0.994034
0.993266
1
0.997365
0.98003
0.991088
0.987905
0.987078
0.968643
0.997667
0.997793
1
0.997304
0.997754
0.978897
0.986374
0.987393
0.97549
0.98552
0.998396
0.997559
0.990239
0.987851
0.981021
0.998948
0.98958
0.991282
0.992675
0.988593
0.996169
0.988302
0.998998
0.988988
0.998206
0.993614
0.989778
0.970406
0.962361
0.991634
0.993634
0.971351
0.995198
0.998244
0.997831
0.993635
0.994142
0.997599
0.997366
0.993979
0.975747
0.974841
1
0.978757
0.992945
1
0.982859
0.989705
0.995941
0.997677
0.99978
0.992095
0.997058
0.994213
0.995538
0.984746
0.987184
0.992512
0.991271
0.997722
0.984936
0.986012
0.987279
0.996258
0.986737
0.999802
0.991075
0.997206
0.982748
0.998913
0.988442
0.991255
0.992234
0.992647
0.996152
0.982829
0.987538
0.985926
0.973441
0.987593
0.977666
0.987284
0.985716
0.963474
0.999818
0.997328
0.998461
0.99791
0.997018
0.96494
0.982423
0.986092
0.973843
0.978318
0.994699
0.979702
0.995219
0.987008
0.987226
0.992754
0.992515
0.991113
0.988286
0.986303
0.989419
0.989036
0.997596
0.979225
0.997659
0.987566
0.979766
0.962921
0.956344
0.99701
0.992647
0.975725
0.988735
0.992537
0.996553
0.994513
0.995259
0.997444
0.999781
0.99797
0.988501
0.991637
0.996811
0.988856
0.981893
1
0.983439
0.985315
0.990368
0.996632
0.996921
0.996456
1
0.995259
0.985499
0.984258
0.981194
0.985263
0.990318
0.996779
0.981072
0.989307
0.99285
0.996584
0.985108
0.999044
0.989501
0.993511
0.994436
0.996408
0.983299
0.993914
0.984679
0.992724
0.9989
0.988129
0.983513
0.980978
0.974803
0.98033
0.975687
0.990347
0.989984
0.987238
0.99791
0.994192
0.996701
0.995365
0.985479
0.981646
0.979248
0.988844
0.969777
0.982771
0.979144
0.985282
0.995746
0.985995
0.994097
0.993837
0.994955
0.994263
0.989345
0.988621
0.996473
0.988188
0.996895
0.989384
0.995166
0.994235
0.969405
0.98132
0.973555
0.99402
0.992427
0.98552
0.996738
0.984525
0.999264
0.996817
0.994927
0.998915
0.99561
0.993909
0.976653
0.996097
1
0.982046
0.986586
0.996152
0.982278
0.990159
0.998062
0.997484
0.99934
0.993791
0.998839
0.985499
0.982222
0.981124
0.993871
0.989876
0.992939
0.994957
0.985552
0.995567
0.993416
0.996291
0.9864
0.996507
0.996339
0.993421
0.991908
0.99855
0.99646
0.993914
0.995942
0.988118
0.990434
0.989067
0.992182
0.993623
0.989158
0.989893
0.976457
0.993138
0.990074
0.980197
0.997152
0.984163
0.996921
0.991517
0.992836
0.961095
0.986526
0.978323
0.987581
0.985675
0.983469
0.990235
0.992844
0.986726
0.993401
0.988335
0.997923
0.986726
0.998002
0.992709
0.997598
0.992992
0.996127
0.991001
0.998723
0.987001
0.965904
0.988596
0.973275
0.991332
0.98683
0.978939
0.989369
0.987269
0.998877
0.996817
0.995924
0.998877
1
0.993209
0.994146
0.986409
0.997471
0.988624
0.996033
0.996812
0.992803
0.996488
0.996668
0.995935
0.994284
0.99785
0.994001
0.984451
0.975325
0.988647
0.990666
0.989848
0.996276
0.996422
0.983703
0.987178
0.997021
0.997917
0.989714
0.999802
0.994674
0.993211
0.998371
0.99621
0.994161
0.992653
0.998881
0.994776
0.994722
0.994489
0.997252
0.995712
0.998031
0.988046
0.986797
0.995
0.990045
0.990319
0.990398
0.984474
0.995492
0.987334
0.990319
0.983843
0.988499
0.98821
0.990219
0.978903
0.991699
0.978169
0.999011
0.989594
0.996489
0.992182
0.999934
0.995838
0.992704
0.984868
0.996625
0.992256
0.998865
0.988317
0.996747
0.982201
0.97564
0.977891
0.972857
0.99399
0.991438
0.974525
0.989792
0.987271
0.998838
0.99056
0.998943
0.994501
0.993636
0.98964
0.991568
0.993936
1
0.987581
0.994127
0.993621
0.99524
0.997638
0.997759
0.998529
0.99989
0.993245
0.993109
0.989683
0.989821
0.996587
0.987044
0.99383
0.993715
0.99756
0.986727
0.992811
0.99562
0.997462
0.987522
0.998287
0.993736
0.994803
0.997809
0.995156
0.996158
0.993213
1
0.992918
1
0.99676
0.993381
1
0.995638
0.992706
0.984047
0.996202
0.994432
0.991199
0.992003
0.994889
0.996811
0.990274
0.997328
0.987031
0.98339
0.985399
0.993186
0.984823
0.992886
0.991699
1
0.992632
0.994976
0.988423
0.998648
0.9892
0.991342
0.987983
0.99696
0.991129
0.997095