/*--------------------------------*- C++ -*----------------------------------*\
| =========                 |                                                 |
| \\      /  F ield         | OpenFOAM: The Open Source CFD Toolbox           |
|  \\    /   O peration     | Version:  5.x                                   |
|   \\  /    A nd           | Web:      www.OpenFOAM.org                      |
|    \\/     M anipulation  |                                                 |
\*---------------------------------------------------------------------------*/
FoamFile
{
    version     2.0;
    format      ascii;
    class       volVectorField;
    location    "4.35";
    object      U;
}
// * * * * * * * * * * * * * * * * * * * * * * * * * * * * * * * * * * * * * //

dimensions      [0 1 -1 0 0 0 0];

internalField   nonuniform List<vector> 
10571
(
(1.08523 0.596363 1.50564)
(-0.356407 0.420937 1.71333)
(-0.135941 0.969004 1.70675)
(0.81781 0.708537 3.10507)
(-0.301217 -0.822129 2.26631)
(-0.917363 -0.634621 2.94765)
(-0.576607 -0.737313 3.11284)
(-2.33164 -0.862392 3.25423)
(-0.842459 -0.764063 2.13368)
(-0.0341647 0.055057 1.07672)
(0.510607 0.279508 3.15219)
(-0.649276 -1.40597 2.89029)
(-1.05289 -2.39883 3.93563)
(-1.77093 0.0321926 2.40752)
(-0.458424 0.332408 1.76537)
(0.159902 -0.299898 1.34546)
(0.0429425 -0.271726 0.829044)
(0.226344 -0.704019 1.33604)
(-1.00041 -1.94344 3.22065)
(-0.766564 -0.460721 3.49784)
(-0.0344922 -0.0204515 1.33193)
(-0.110859 -0.31816 1.02087)
(0.0696543 -0.351691 0.792698)
(0.218331 -0.144474 1.29323)
(-0.0788438 0.0217075 0.271846)
(0.147748 -0.0809123 0.157875)
(0.250689 0.180773 1.10136)
(-0.0249966 0.276408 1.94777)
(0.108051 0.706199 1.48092)
(1.14868 0.277835 3.42437)
(-0.554322 -0.564038 3.27983)
(0.263739 -0.282014 1.70461)
(0.284819 -0.112407 1.82607)
(-0.139043 -0.631358 2.02197)
(0.127133 0.0161776 1.89605)
(0.703335 0.337485 2.24015)
(-0.581352 -0.562234 1.66146)
(0.162595 -0.0795323 1.41712)
(0.654202 -0.154776 1.68874)
(0.0742281 0.523793 2.51826)
(-0.122582 -0.934749 1.12098)
(-0.0759934 -0.238088 1.97602)
(0.79101 0.655985 2.40283)
(0.347629 0.0263302 1.27159)
(0.238577 0.312746 2.40929)
(0.115217 0.0275325 0.961147)
(0.847284 -0.232764 1.06798)
(0.225587 -0.113468 1.11288)
(0.0192923 0.00330476 0.157412)
(-0.12012 -0.0314642 0.229086)
(0.0506611 -0.157972 0.404501)
(0.332323 0.10906 2.81875)
(0.465304 0.577866 2.31551)
(-0.0863581 0.239025 3.37284)
(-0.251887 0.823334 5.05489)
(0.398759 -0.139689 1.56989)
(0.260817 0.234894 1.90956)
(-0.380928 -0.150261 0.875176)
(0.118148 -0.045513 0.647556)
(0.345785 0.25897 4.37125)
(-0.258241 -0.755472 2.84911)
(0.261399 0.00902615 1.07354)
(0.419921 -0.0694032 1.0697)
(-0.225573 0.304507 1.5886)
(-0.0855953 -0.338366 0.280132)
(0.0724583 -0.112927 0.52023)
(0.476393 0.13751 1.20006)
(0.547711 -0.106334 1.28261)
(-0.154317 0.282341 3.20398)
(0.0457097 -0.0277977 0.174225)
(0.749052 -0.165068 0.639208)
(1.58299 -0.607958 2.27554)
(0.05515 0.028046 0.234331)
(0.282345 -0.451734 0.879337)
(0.003728 -0.268997 0.562894)
(-0.329202 -0.285569 2.0536)
(-0.841909 -0.542035 2.15408)
(-0.13395 0.321287 3.67391)
(0.289115 0.217925 3.62339)
(0.358988 0.051646 1.33955)
(-0.0460524 0.840727 2.34077)
(-0.110258 0.058277 0.182051)
(-0.0317108 0.0403217 -0.0635047)
(0.322339 0.522561 5.23732)
(0.549648 0.0120054 3.05035)
(0.257836 0.235242 1.00846)
(0.157481 0.652622 2.41734)
(-0.381452 0.341509 1.9235)
(0.0955578 -0.056222 0.129668)
(0.18222 -0.0468617 0.61312)
(0.304936 0.07141 0.72591)
(-0.0763723 -0.389232 1.7686)
(-0.203496 -0.107625 3.40845)
(0.00528641 -0.0487892 -0.051697)
(0.189231 -0.0737607 0.107892)
(0.698021 -0.531641 1.63069)
(0.103432 0.131973 0.549609)
(0.547739 -0.394664 1.01376)
(-0.0862715 -0.568573 1.45532)
(-0.561984 -0.640817 1.52587)
(-0.365105 -0.871991 1.86091)
(0.13235 -0.210631 2.64562)
(0.267547 -0.427062 3.15413)
(0.193272 0.1684 1.34052)
(0.0648492 0.23008 1.18801)
(0.00426037 -0.0586292 -0.0884921)
(-0.00334423 0.00778672 -0.13361)
(0.137558 0.708128 5.87984)
(0.551338 0.286844 2.14784)
(0.377099 0.181618 1.04802)
(-0.0222125 0.300303 1.84161)
(-0.0165335 0.0677464 1.73052)
(0.0102919 0.133621 0.296302)
(0.100842 0.143135 0.421463)
(-0.0936569 -0.468841 1.96611)
(-0.881415 -0.94855 3.36131)
(-0.199415 0.103438 2.38653)
(0.00914986 -0.0173676 -0.216396)
(0.0252252 -0.128002 0.0929709)
(0.281786 0.0791696 0.118051)
(0.276986 0.0645346 0.739704)
(0.00979277 -0.0528854 0.394565)
(0.100027 -0.43005 2.16721)
(0.145144 -0.0498244 2.15319)
(0.406098 0.0546004 1.81293)
(0.179533 0.400452 3.35587)
(0.120321 -0.188768 2.14492)
(0.286033 0.0354544 1.30261)
(0.158149 -0.000104483 2.17444)
(-0.0656878 -0.0590729 0.58634)
(-0.00147666 0.00294091 -0.00142114)
(0.0470115 -0.0593361 -0.111862)
(-0.422805 -0.077782 5.08721)
(0.119439 0.115552 1.24207)
(0.315486 -0.0368882 1.27059)
(-0.153999 -0.058961 2.74662)
(0.062517 -0.444469 1.92882)
(0.0171061 -0.00076653 0.00259443)
(-0.0365242 0.20513 0.697239)
(-0.0420573 0.179541 0.730194)
(-0.305921 -0.272252 1.37486)
(-1.07041 -0.966859 4.21022)
(-0.148804 0.035748 1.25641)
(0.0397923 -0.00326785 -0.14337)
(-0.055752 -0.0224376 -0.13971)
(0.00799237 0.12346 -0.13451)
(0.0882746 -0.00225803 0.109719)
(-0.0271695 0.010469 0.092602)
(0.116982 0.108526 2.53287)
(0.340464 0.449085 2.38866)
(0.589855 0.356366 1.39529)
(-0.0212965 0.372036 3.207)
(0.263377 0.0968512 2.48868)
(-0.0381183 0.19793 1.43771)
(0.107013 0.110896 1.90455)
(0.281762 0.156126 0.689644)
(-0.0329421 0.0239905 -0.00370352)
(-0.0117335 -0.0341726 -0.213315)
(-0.236366 0.0095399 4.83157)
(0.0776387 -0.0082908 1.91498)
(-0.0737333 -0.0513894 1.50691)
(-0.146171 -0.179276 2.94791)
(0.153085 -0.469304 2.03299)
(-0.108616 -0.0928694 0.011253)
(0.156647 0.12109 0.942361)
(0.0791718 -0.211078 0.902089)
(-0.375781 -0.226654 1.69912)
(-0.968766 -0.681799 4.05892)
(0.208458 -0.100109 0.21313)
(0.34957 -0.0077477 0.149225)
(0.130663 0.00316709 -0.0992437)
(-0.0159387 -0.00837087 -0.0330665)
(0.187366 -0.130738 0.325783)
(0.0672464 -0.0231208 -0.132957)
(-0.0786025 0.0430904 0.121708)
(0.174681 0.259241 2.41154)
(0.250885 0.527596 2.32244)
(0.414046 0.467928 1.44726)
(-0.133982 0.209748 3.15742)
(0.195063 0.101599 2.15299)
(-0.0721705 0.1837 1.41789)
(0.0770201 0.177826 1.71425)
(0.142487 0.151329 0.687339)
(-0.00758887 -0.0309792 0.166565)
(0.00451279 0.00474753 -0.0619022)
(-0.180258 0.144106 4.51776)
(0.0611291 0.0848424 1.33102)
(-0.01675 0.0171598 1.46121)
(-0.112314 -0.127543 2.86693)
(0.0950977 -0.25453 1.98519)
(0.0448681 -0.098484 0.234551)
(-0.0504851 0.137616 0.907788)
(0.174016 0.0463868 0.759036)
(-0.329328 -0.120663 1.76369)
(-0.568158 -0.374872 2.957)
(-0.229954 -0.055918 0.510875)
(-0.29672 0.0749633 -0.251024)
(0.174976 0.150074 -0.139807)
(0.105268 -0.0132094 -0.0182022)
(0.0923741 -0.16381 0.314091)
(0.0518483 -0.0324683 -0.0545833)
(-0.0731841 0.101659 0.216249)
(0.172832 0.128402 2.22372)
(0.195999 0.452434 2.26557)
(0.191541 0.327414 1.29388)
(-0.24248 0.130237 3.01346)
(0.276034 0.0350722 2.08634)
(-0.0371089 0.158143 1.50991)
(0.0645731 0.165251 1.74769)
(0.0558027 0.200995 0.905893)
(-0.0589532 -0.118907 0.115802)
(0.043968 0.0798565 -0.0046704)
(-0.244089 0.121859 4.32159)
(0.160219 0.150916 1.34638)
(0.0166232 0.110647 1.53386)
(-0.0795062 -0.0198548 2.83615)
(0.0546896 -0.0817655 2.1416)
(0.0456753 0.0301847 0.155595)
(-0.178055 0.229425 1.13465)
(0.204002 0.178539 0.84868)
(-0.229773 -0.033097 1.8491)
(-0.548347 -0.321022 2.85741)
(-0.253796 0.210204 0.880853)
(0.107442 0.180882 0.0232168)
(0.235626 0.00219236 -0.0921739)
(0.0204571 -0.115195 0.364363)
(0.0625472 0.0174494 0.074009)
(0.0848142 -0.12616 0.273219)
(0.131064 0.0266494 2.14931)
(0.153703 0.327594 2.16211)
(0.0851402 0.146027 1.06694)
(-0.44033 -0.0360262 2.92846)
(0.207619 0.00360074 2.09888)
(-0.0430759 0.114173 1.6777)
(0.0622302 0.121725 1.75325)
(-0.167829 0.0515298 1.066)
(-0.0428819 0.0772561 0.124972)
(-0.267013 0.11703 3.96552)
(0.0425674 0.167624 1.33386)
(-0.00659663 0.139265 1.67291)
(-0.027015 0.0117287 2.8192)
(-0.0835809 0.136856 1.98466)
(-0.051227 0.278059 1.26833)
(0.175988 0.157 0.884662)
(-0.19838 0.000712682 1.96126)
(-0.478081 -0.198721 2.63547)
(-0.17566 0.281027 0.962913)
(0.17011 0.18956 0.0712981)
(0.264774 0.082314 0.0536796)
(-0.0510549 -0.0145617 0.345272)
(0.0630025 0.0257099 0.0339909)
(0.0886985 -0.0963036 0.50833)
(0.0690436 0.0292199 2.05379)
(0.11423 0.244776 2.01705)
(0.0833187 0.063815 0.985519)
(-0.301929 -0.115306 2.63768)
(0.105889 0.0018008 2.01781)
(-0.0682819 0.0782475 1.74454)
(0.0810013 0.0443936 1.83882)
(-0.0721428 0.0978335 1.11364)
(-0.0263845 0.0899942 0.68042)
(-0.0999717 0.135603 3.43513)
(-0.044523 0.0859558 1.23711)
(-0.0144048 0.120285 1.71587)
(0.0421962 -0.000593693 2.86734)
(0.0550377 0.152663 1.98641)
(0.0399021 0.208668 1.44899)
(0.18954 0.131047 0.881373)
(-0.20069 0.00879384 2.05893)
(-0.406027 -0.110717 2.55477)
(-0.150869 0.210208 1.04341)
(0.165181 0.179763 0.129066)
(0.275058 0.0913793 0.251793)
(-0.0218615 0.0296133 0.357562)
(0.203482 0.0178092 0.0215582)
(0.152411 -0.164591 0.649004)
(0.0572267 0.0170338 1.93096)
(0.0966586 0.199636 1.90939)
(0.0802361 0.059902 0.951614)
(-0.281344 -0.101048 2.45309)
(0.0435054 -0.00164881 1.8736)
(-0.0675241 0.0445039 1.75839)
(0.0748389 0.019001 1.84847)
(-0.0843665 0.0918608 1.1572)
(0.00766913 0.0677164 0.807084)
(-0.0717714 0.11338 3.32775)
(0.000502966 0.0450804 1.18083)
(-0.0154697 0.0835313 1.71712)
(0.0714273 -0.00116212 2.85781)
(0.0785718 0.13291 1.97623)
(0.0720736 0.138016 1.5402)
(0.237103 0.110559 0.885721)
(-0.17979 -0.00411463 2.12068)
(-0.326171 -0.0727441 2.4978)
(-0.145823 0.216994 1.11096)
(0.176253 0.142521 0.178375)
(0.25527 0.0943218 0.458674)
(0.0607162 0.0129163 0.42523)
(0.325756 0.0157324 0.117089)
(0.2194 -0.239371 0.818204)
(0.0350785 -0.0254849 1.81239)
(0.0969298 0.169442 1.8016)
(0.0549744 0.0431425 0.975596)
(-0.251214 -0.126508 2.31212)
(-0.0188848 -0.031726 1.76966)
(-0.0489805 0.0108983 1.73501)
(0.054643 0.0143433 1.85111)
(-0.136304 0.0717205 1.1786)
(-0.00966482 0.0646104 0.892727)
(-0.0570002 0.0720995 3.17082)
(0.0499687 -0.0242698 1.12309)
(-0.026 0.045334 1.70024)
(0.102599 -0.00166499 2.81563)
(0.102571 0.0865446 2.01706)
(0.0966357 0.130159 1.47759)
(0.259768 0.0996691 0.89689)
(-0.127708 -0.0267012 2.16734)
(-0.26091 -0.0662764 2.46057)
(-0.145605 0.257723 1.13977)
(0.199197 0.1151 0.215828)
(0.214794 0.108359 0.699718)
(0.0507843 -0.00583379 0.479335)
(0.374577 0.0150075 0.273403)
(0.245565 -0.289502 0.986468)
(0.052082 -0.114226 1.7302)
(0.100159 0.146885 1.65251)
(0.036062 0.0467175 1.05968)
(-0.210105 -0.173563 2.26397)
(-0.0670552 -0.06645 1.65856)
(-0.0353493 -0.0316476 1.71381)
(0.0427022 -0.00660856 1.87546)
(-0.169793 0.038079 1.18311)
(-0.00807235 0.0534605 1.03825)
(-0.0386078 -0.0185677 3.02408)
(0.131178 -0.0943629 1.06643)
(-0.0232131 0.00238816 1.6761)
(0.0876861 -0.0181264 2.75159)
(0.0899063 0.048134 2.00279)
(0.0884437 -0.0392056 1.11623)
(0.271135 0.0867786 0.892085)
(-0.100769 -0.0137578 2.21162)
(-0.220482 -0.0459457 2.44413)
(-0.207776 0.355003 1.10078)
(0.201699 0.0861395 0.24025)
(0.1264 0.14348 1.00343)
(-0.0249434 0.0341485 0.545394)
(0.404274 0.0154201 0.438411)
(0.273683 -0.329583 1.15746)
(0.116817 -0.191314 1.66294)
(0.104897 0.115516 1.53894)
(0.0266985 0.0402901 1.16297)
(-0.18913 -0.20005 2.22713)
(-0.0816198 -0.0745892 1.57734)
(-0.0374586 -0.0449818 1.71737)
(0.0356613 -0.0318883 1.91371)
(-0.155663 -0.018724 1.23405)
(-2.31296e-05 0.0687471 1.15942)
(-0.0480151 -0.10889 2.84564)
(0.203674 -0.111272 1.00612)
(0.00461323 -0.0412991 1.67679)
(0.0420823 -0.00816669 2.69275)
(0.011492 -0.107237 1.77719)
(-0.0536114 -0.0305602 0.879648)
(0.277992 0.0437406 0.859637)
(-0.0928418 0.0205286 2.24709)
(-0.199317 -0.0259375 2.42129)
(-0.22282 0.332874 0.852215)
(0.182679 0.0429635 0.273009)
(0.0162634 0.178941 1.33363)
(-0.0874722 0.0776042 0.667974)
(0.427408 0.0187201 0.61214)
(0.282381 -0.343786 1.31356)
(0.133478 -0.230681 1.63862)
(0.103631 0.0922716 1.47221)
(0.0262647 0.039199 1.27141)
(-0.15295 -0.23566 2.22046)
(-0.0776237 -0.0570525 1.53176)
(-0.0451414 -0.0398574 1.7229)
(0.0505615 -0.0495131 1.95059)
(-0.114903 0.00362974 1.30203)
(-0.00897124 0.0354813 1.23314)
(-0.107586 -0.125859 2.64673)
(0.200191 -0.0977536 0.964969)
(0.0266484 -0.0623954 1.71772)
(0.0234743 -0.0174806 2.66237)
(-0.00573641 -0.0896129 1.45324)
(-0.0458316 0.122933 0.873868)
(0.247148 -0.0581845 0.820212)
(-0.0799869 0.0272045 2.28879)
(-0.18426 -0.0256509 2.42132)
(-0.101762 0.244396 0.755671)
(0.16866 -0.00620746 0.348004)
(-0.0296545 0.175232 1.59802)
(-0.0310365 0.0671442 0.735791)
(0.438418 0.0214254 0.769028)
(0.276001 -0.335651 1.47015)
(0.146174 -0.23963 1.6313)
(0.106456 0.0654106 1.46113)
(0.0155136 0.0433336 1.38455)
(-0.116641 -0.257856 2.21838)
(-0.0290047 -0.0342037 1.49664)
(-0.070635 -0.00730102 1.71972)
(0.0824097 -0.0689938 1.97631)
(-0.045621 0.0416132 1.34904)
(-0.0202402 -0.0224898 1.3683)
(-0.160423 -0.0949165 2.48988)
(0.113892 -0.064047 0.947716)
(0.0124029 -0.0506836 1.76122)
(0.005691 -0.0560084 2.60333)
(0.0397689 0.0866918 1.29287)
(0.0529461 0.183529 0.924766)
(0.157693 -0.118227 0.828233)
(-0.0734169 0.0103804 2.34785)
(-0.17092 -0.0267633 2.42227)
(-0.068915 0.212564 0.808811)
(0.160834 -0.0228901 0.421184)
(-0.00355514 0.137316 1.74387)
(0.106015 0.0229662 0.796345)
(0.434949 0.0203062 0.926837)
(0.26781 -0.329827 1.61017)
(0.162963 -0.229285 1.60638)
(0.136649 0.0128525 1.49439)
(-0.0125362 0.03737 1.50493)
(-0.0783276 -0.266564 2.19704)
(0.0829507 -0.0161694 1.45033)
(-0.0881087 0.0248641 1.71925)
(0.109136 -0.0910276 1.97818)
(0.0182019 0.0270798 1.42766)
(-0.00168594 0.0240575 1.39178)
(-0.103146 -0.0918682 2.30929)
(0.0583196 -0.0410365 0.974772)
(-0.0122878 -0.0373281 1.78272)
(-0.00706085 -0.0391101 2.51545)
(0.0707792 0.164148 1.23904)
(0.186838 0.241075 0.910452)
(0.0636222 -0.1359 0.890766)
(-0.0610996 0.00793333 2.38102)
(-0.15037 -0.0167579 2.40504)
(-0.0853276 0.198429 0.867746)
(0.161749 0.00526482 0.484253)
(0.000434702 0.0966383 1.81947)
(0.170511 -0.0428773 0.853217)
(0.425921 0.0235917 1.07582)
(0.248659 -0.317209 1.7519)
(0.190591 -0.212256 1.58087)
(0.169309 -0.01721 1.54338)
(-0.0482427 0.0251185 1.63868)
(-0.0481583 -0.261022 2.14268)
(0.126556 -0.0180151 1.40497)
(-0.0776272 0.0412495 1.73334)
(0.110424 -0.107142 1.96326)
(0.0421076 0.000573769 1.50815)
(-0.00803295 -0.033661 1.3013)
(0.012783 -0.096631 2.09138)
(0.0573178 -0.0406569 1.05889)
(-0.0282599 -0.0518186 1.80604)
(-0.0032753 0.0502297 2.41049)
(0.082175 0.165216 1.23563)
(0.205811 0.243761 0.782523)
(0.0098973 -0.15249 0.975857)
(-0.0486545 0.00997786 2.38037)
(-0.0840214 -0.00491187 2.37352)
(-0.0647042 0.150357 0.912525)
(0.190021 0.0450827 0.571949)
(-0.00720349 0.0717281 1.83074)
(0.197729 -0.102041 0.886811)
(0.411143 0.0206728 1.21709)
(0.23146 -0.302544 1.85357)
(0.22869 -0.194446 1.57184)
(0.198362 -0.0310121 1.59499)
(-0.0739626 0.0182738 1.77616)
(-0.0122581 -0.210499 2.07899)
(0.113079 -0.0447166 1.36248)
(-0.0522491 0.0715275 1.76605)
(0.0835886 -0.121524 1.92629)
(0.0360317 -0.0214524 1.56632)
(-0.046166 -0.0447811 1.14115)
(0.174334 -0.0706491 1.92221)
(0.0366529 -0.0507581 1.22249)
(-0.0686028 -0.0946971 1.83882)
(0.00723559 0.118432 2.28627)
(0.101391 0.11462 1.28984)
(0.128311 0.255533 0.620321)
(0.017954 -0.163349 1.0367)
(-0.0405025 -0.00817903 2.36686)
(-0.0345275 0.0219194 2.34896)
(0.0123191 0.074189 1.00575)
(0.237177 0.0825333 0.684855)
(0.0195781 0.0211386 1.72879)
(0.188948 -0.125635 0.971468)
(0.38465 0.0178145 1.35708)
(0.208859 -0.290053 1.93486)
(0.221014 -0.17321 1.57865)
(0.204407 -0.028859 1.63877)
(-0.0906926 0.0155243 1.91133)
(0.0133553 -0.244317 2.05009)
(0.0980381 -0.0661728 1.36083)
(-0.0505899 0.0912732 1.81014)
(0.0578666 -0.138922 1.89647)
(0.035452 -0.0370331 1.60898)
(-0.00432903 0.100558 0.962417)
(0.20642 -0.271434 1.68878)
(0.046126 -0.0451713 1.35217)
(-0.120121 -0.128907 1.86602)
(0.0238793 0.0787842 2.14254)
(0.10642 0.0319718 1.37892)
(0.0625913 0.208739 0.597921)
(0.0765368 -0.141067 1.06017)
(-0.0422354 -0.0219888 2.36727)
(-0.00916437 0.0762047 2.33529)
(0.0865404 -0.0105761 1.15891)
(0.284741 0.116809 0.787517)
(0.0744189 -0.101639 1.42509)
(0.11343 -0.0873799 1.10024)
(0.362374 0.0142481 1.48904)
(0.187912 -0.264055 1.99881)
(0.199308 -0.149899 1.57689)
(0.200126 -0.0280103 1.6742)
(-0.104379 0.01943 2.04639)
(0.0208834 -0.262629 1.97961)
(0.06605 -0.0691554 1.3895)
(-0.0674343 0.0961464 1.87126)
(0.0507695 -0.157253 1.88871)
(0.0574533 -0.0509632 1.65974)
(-0.000795137 0.170155 1.03725)
(0.0153122 -0.0228068 1.11375)
(0.0610867 -0.00678316 1.42755)
(-0.160113 -0.150468 1.90233)
(0.0318072 -0.0343239 1.99342)
(0.0881563 -0.0203134 1.45774)
(0.0619086 0.180444 0.645928)
(0.14038 -0.0799085 1.07205)
(-0.0519828 -0.0241986 2.38703)
(-0.0328348 0.117974 2.29095)
(0.0713935 -0.0397335 1.31084)
(0.301673 0.118703 0.854969)
(0.0933542 -0.0872159 1.25432)
(0.0382627 -0.0270622 1.24873)
(0.341308 0.0157297 1.61655)
(0.192973 -0.2504 2.06857)
(0.19056 -0.154322 1.57451)
(0.167184 -0.0275978 1.69362)
(-0.117348 0.0162943 2.17153)
(0.0109505 -0.323369 1.91862)
(-0.0124979 -0.0955245 1.39281)
(-0.0718092 0.103758 1.92346)
(0.0516722 -0.164405 1.89325)
(0.0904309 -0.0575567 1.72495)
(0.0214865 0.226217 1.06919)
(0.116141 -0.0643946 0.697055)
(0.0444088 0.0530423 1.46745)
(-0.198931 -0.157019 1.9469)
(0.0223021 -0.129485 1.84677)
(0.0447422 -0.0276846 1.49506)
(0.0703346 0.169587 0.685387)
(0.134196 -0.00528768 1.11132)
(-0.102174 -0.0362271 2.41864)
(-0.0324099 0.101073 2.1932)
(0.00660095 -0.00230989 1.3517)
(0.280695 0.0882153 0.893692)
(0.115293 -0.0739581 1.21477)
(0.0569619 -0.0418232 1.39555)
(0.34272 0.0188364 1.73043)
(0.206026 -0.257922 2.10776)
(0.199534 -0.180452 1.58471)
(0.160996 -0.0152753 1.7235)
(-0.133614 0.0225438 2.28597)
(-0.0374183 -0.183493 1.72428)
(-0.129081 -0.18753 1.32831)
(-0.0535784 0.118606 1.93591)
(0.0496427 -0.15744 1.8974)
(0.110195 -0.0612765 1.79422)
(0.0380894 0.208819 0.774127)
(0.127845 -0.0206439 0.581523)
(-0.025555 0.116561 1.46114)
(-0.217798 -0.131147 1.98783)
(0.00450263 -0.170961 1.72085)
(-0.00992873 -0.0162882 1.48094)
(0.0282402 0.157789 0.749877)
(0.0592123 0.113315 1.2084)
(-0.180744 -0.0350779 2.42544)
(0.00667152 0.0735157 2.07064)
(-0.0307594 0.0391888 1.28282)
(0.196042 0.0417325 0.919628)
(0.171073 -0.0906242 1.19262)
(0.143713 -0.0917612 1.46975)
(0.365103 0.0215784 1.8374)
(0.21079 -0.237516 2.11589)
(0.157691 -0.221247 1.60131)
(0.133414 0.0551767 1.7964)
(-0.141167 0.0266043 2.3916)
(0.0500258 -0.026292 1.52042)
(-0.208904 -0.266702 1.28213)
(0.00123267 0.122418 1.90872)
(0.0474446 -0.130678 1.91745)
(0.107325 -0.0531089 1.85213)
(0.0153485 0.11827 0.608899)
(0.0917757 0.07436 0.541918)
(-0.147133 0.158426 1.35183)
(-0.189438 -0.0912636 2.01459)
(-0.00231803 -0.186301 1.63439)
(-0.0362526 0.00522028 1.42866)
(-0.0591292 0.11116 0.84785)
(-0.0332343 0.209127 1.29065)
(-0.213995 -0.040001 2.40442)
(0.0222028 -0.0115289 1.98722)
(-0.027211 0.0532708 1.21556)
(0.114184 0.0906978 0.934632)
(0.21923 -0.053986 1.16821)
(0.217822 -0.111653 1.43248)
(0.375522 0.0203254 1.94056)
(0.201847 -0.240013 2.11509)
(0.119332 -0.244094 1.65981)
(0.104965 0.113631 1.8551)
(-0.147375 0.0393459 2.47073)
(0.151943 -0.133791 1.38907)
(-0.283194 -0.269635 1.23975)
(0.0743807 0.0378909 1.87062)
(0.0732736 -0.117318 1.95902)
(0.0949247 -0.0422547 1.88926)
(-0.014683 -0.0273891 0.597919)
(0.048837 0.0152822 0.537958)
(-0.223881 0.158453 1.17433)
(-0.10026 -0.0342372 2.01621)
(0.0188116 -0.205877 1.59858)
(-0.0368341 0.0312338 1.38022)
(-0.141267 0.0376379 0.973537)
(-0.118327 0.245101 1.30236)
(-0.215279 -0.075535 2.35674)
(0.0340586 -0.115355 1.90132)
(-0.0223007 0.0612681 1.19166)
(0.0424582 0.175197 1.00413)
(0.261012 0.00174814 1.1703)
(0.246626 -0.095727 1.38443)
(0.347021 0.0234575 2.0131)
(0.224432 -0.253574 2.14124)
(0.0992227 -0.18126 1.70021)
(0.0441375 0.155374 1.85974)
(-0.133417 0.0517124 2.54152)
(0.0814084 -0.145476 1.38954)
(-0.309302 -0.17083 1.1671)
(0.0244143 -0.186311 1.7832)
(0.160368 -0.0940768 2.05575)
(0.0893254 -0.0423771 1.92491)
(-0.0448541 -0.211911 0.599108)
(0.0153935 -0.0680232 0.546918)
(-0.20581 0.154191 1.01576)
(-0.0105651 0.0348996 1.94149)
(0.0775882 -0.225094 1.60122)
(-0.0329723 0.0344668 1.35426)
(-0.180351 -0.0441161 1.10766)
(-0.158751 0.263383 1.25155)
(-0.188988 -0.0884174 2.2452)
(0.0774532 -0.176204 1.81455)
(-0.0312843 0.0768186 1.19876)
(-0.00556826 0.23459 1.11702)
(0.294348 0.0432684 1.18153)
(0.216052 -0.0753907 1.4006)
(0.297963 0.0278863 2.0721)
(0.226324 -0.24907 2.14264)
(-0.0323354 -0.108976 1.76868)
(0.00251631 0.113706 1.84495)
(-0.116039 0.0675509 2.59845)
(-0.135264 -0.0118994 1.58451)
(-0.2305 0.0635318 1.03313)
(-0.0961911 -0.294919 1.57403)
(0.235184 -0.0401431 2.141)
(0.0988486 -0.0323134 1.99472)
(-0.0489852 -0.316545 0.566264)
(-0.00112051 -0.049749 0.560179)
(-0.105801 0.169388 0.908741)
(0.0308121 0.117046 1.75888)
(0.190769 -0.185136 1.62071)
(-0.00210967 0.0185572 1.37642)
(-0.139066 -0.132375 1.20381)
(-0.129534 0.294014 1.1987)
(-0.132365 0.0213691 2.10155)
(0.130251 -0.177349 1.72549)
(-0.027808 0.0986042 1.21863)
(-0.0265194 0.258255 1.23557)
(0.244366 0.0587407 1.24986)
(0.101922 -0.0136293 1.44837)
(0.180142 0.0225687 2.12637)
(0.156515 -0.223228 2.15106)
(-0.160603 0.0501278 1.91424)
(-0.11075 0.0126122 1.86302)
(-0.105692 0.0884244 2.64484)
(-0.19401 0.140376 1.71189)
(-0.073273 0.26812 0.912921)
(-0.081138 -0.121035 1.37613)
(0.226468 0.0107244 2.16331)
(0.0851137 -0.0185071 2.0622)
(-0.030929 -0.253095 0.537564)
(-0.00910315 0.0675553 0.612423)
(0.0355 0.204615 0.873519)
(0.0721833 0.212014 1.52546)
(0.286457 -0.058471 1.65751)
(0.0773353 0.00974162 1.481)
(-0.0520463 -0.184944 1.19916)
(-0.0618543 0.307416 1.18776)
(-0.0891816 0.162109 2.00621)
(0.168519 -0.105421 1.66596)
(-0.0221376 0.142309 1.2904)
(-0.0397081 0.239672 1.35189)
(0.0762082 0.11173 1.4686)
(0.0888791 0.0174662 1.50535)
(0.132805 0.0238041 2.12523)
(0.0943797 -0.230715 2.15167)
(-0.171156 0.188402 1.98699)
(-0.252559 0.0766967 1.90026)
(-0.0811388 0.110018 2.64214)
(-0.131033 0.242873 1.68738)
(0.105714 0.39551 0.851638)
(0.10454 0.258918 1.16318)
(0.209737 0.0629538 2.15869)
(0.0874351 -0.0100858 2.11314)
(-0.0173362 -0.0308918 0.574872)
(0.0108593 0.220891 0.674143)
(0.156488 0.235541 0.889245)
(0.139021 0.290159 1.38891)
(0.304478 0.0874149 1.71588)
(0.125221 0.0289938 1.60988)
(-0.00566818 -0.169466 1.09398)
(-0.0169359 0.275112 1.24461)
(-0.0809731 0.237926 1.9743)
(0.159843 -0.0600201 1.68141)
(-0.0351119 0.179003 1.42063)
(-0.0584282 0.164433 1.49121)
(-0.0271108 0.174732 1.71511)
(0.102208 0.0215579 1.60283)
(0.086114 0.00497511 2.04252)
(0.0658053 -0.206495 1.99404)
(-0.118778 0.304877 1.8954)
(-0.30826 0.0845498 1.66035)
(-0.0370438 0.165391 2.61134)
(-0.0307917 0.23815 1.62924)
(0.21193 0.417757 0.841551)
(0.26078 0.423276 1.10924)
(0.232267 0.174905 2.16999)
(0.0876543 -0.00958404 2.167)
(-0.00892309 0.192524 0.730683)
(0.0580777 0.367573 0.734342)
(0.229731 0.195727 0.974099)
(0.174391 0.309647 1.36964)
(0.27661 0.190619 1.79816)
(0.132982 0.0655846 1.72845)
(0.0273239 -0.0650333 1.04226)
(0.0147456 0.139137 1.38619)
(-0.0868538 0.249647 1.9736)
(0.138281 -0.0204054 1.74509)
(-0.048626 0.196234 1.58367)
(-0.0507082 0.0624264 1.6216)
(-0.0871343 0.188381 1.88686)
(0.102942 -0.00623628 1.68282)
(0.207725 0.0207762 1.9148)
(-0.0955258 0.133852 1.84818)
(-0.0512465 0.275787 1.51051)
(0.0157186 0.257658 1.59995)
(0.0249874 0.159732 2.51609)
(0.0576605 0.309624 1.44918)
(0.187862 0.33737 0.854048)
(0.311358 0.427145 1.12171)
(0.249102 0.350739 2.22073)
(0.0882486 0.00887863 2.24038)
(0.000564495 0.294734 0.930703)
(0.0927114 0.443102 0.806357)
(0.270826 0.102324 1.10842)
(0.172333 0.285424 1.38868)
(0.231701 0.243228 1.90844)
(0.12522 0.0977916 1.84611)
(0.0395727 0.0264695 1.09952)
(0.0227734 -0.00924459 1.4933)
(-0.096221 0.242116 1.98412)
(0.106652 0.0297129 1.84021)
(-0.0561081 0.205105 1.74134)
(-0.0448898 0.00413164 1.72501)
(-0.115182 0.181599 1.98532)
(0.0897719 -0.0298525 1.70446)
(0.306309 0.0268372 1.65079)
(-0.0237854 0.123046 1.71165)
(0.0530258 0.0865866 1.21541)
(0.403563 0.294704 1.43318)
(0.0574495 0.0666069 2.36875)
(0.0600794 0.370127 1.14113)
(0.0724247 0.151436 0.818509)
(0.284938 0.305582 1.15346)
(0.23708 0.450888 2.26605)
(0.0946029 0.0763176 2.30831)
(0.00661941 0.289543 1.13086)
(0.0858639 0.432387 0.887456)
(0.283615 0.0364205 1.21338)
(0.104401 0.181966 1.46959)
(0.176961 0.275445 2.03305)
(0.108648 0.126601 1.96291)
(0.0419879 0.0736695 1.21338)
(0.0113444 -0.123837 1.56322)
(-0.117421 0.204045 1.99637)
(0.0684139 0.0730963 1.94266)
(-0.0604777 0.207945 1.87492)
(-0.0855412 -0.0224912 1.82175)
(-0.145475 0.174457 2.06002)
(0.0553806 -0.0118321 1.71519)
(0.30028 0.0131596 1.54294)
(0.00929761 0.0665441 1.3224)
(0.0450958 -0.00983359 1.01663)
(0.271383 0.0767828 1.21928)
(0.132866 0.118704 2.29526)
(-0.0194872 0.297656 0.947486)
(0.0277151 0.04467 0.746508)
(0.193469 0.0191998 1.15999)
(0.225909 0.484893 2.30397)
(0.0925443 0.150197 2.38052)
(0.00763077 0.267787 1.2858)
(0.103714 0.338726 0.984538)
(0.223225 0.0136033 1.2836)
(0.029221 0.111468 1.51388)
(0.121594 0.29993 2.14558)
(0.0843351 0.146587 2.06877)
(0.0256746 0.0560697 1.31715)
(-0.0122715 -0.192394 1.61698)
(-0.124782 0.116151 2.00192)
(0.0308813 0.10666 2.02738)
(-0.0639899 0.20279 1.97956)
(-0.150762 -0.0685942 1.87585)
(-0.206734 0.115265 2.08393)
(-0.0406383 0.0330645 1.76902)
(0.288502 0.0121832 1.4617)
(-0.0796172 0.166952 1.00613)
(0.070057 0.0100569 0.911195)
(0.1193 -0.182772 1.15713)
(0.222467 0.219388 2.19891)
(-0.0248661 0.162386 0.87642)
(0.0486185 0.0142127 0.677149)
(0.125002 -0.0838757 1.10289)
(0.216217 0.470151 2.36453)
(0.0813194 0.19794 2.49138)
(0.012708 0.191339 1.3822)
(0.155909 0.186927 1.07168)
(0.100616 0.00791267 1.34593)
(0.00526306 0.101166 1.49795)
(0.0849052 0.298219 2.23986)
(0.0655368 0.151216 2.15324)
(-0.00535291 0.00473876 1.4058)
(-0.0369198 -0.201953 1.66053)
(-0.110935 0.0550173 2.01671)
(0.0150322 0.130129 2.09262)
(-0.0629243 0.191234 2.05594)
(-0.161409 -0.10893 1.86283)
(-0.189276 0.0415876 2.01664)
(-0.123798 0.0750167 1.83298)
(0.268263 -0.00103604 1.43894)
(-0.0539024 0.0697742 0.826421)
(0.148243 0.117165 0.870411)
(0.0939523 -0.281386 1.12989)
(0.294151 0.249141 2.12408)
(0.0488003 6.82014e-06 0.861642)
(0.100724 0.0105072 0.637033)
(0.077502 -0.0495155 0.969399)
(0.199792 0.426686 2.42053)
(0.0516536 0.210359 2.6343)
(0.00690995 0.0716864 1.35868)
(0.184855 0.0381879 1.10138)
(0.00787316 0.00202383 1.4105)
(-0.000872471 0.131948 1.43981)
(0.0836657 0.290598 2.31744)
(0.0578367 0.137514 2.21714)
(-0.028865 -0.0304897 1.4522)
(-0.0515336 -0.152529 1.7062)
(-0.0959095 0.0385058 2.0434)
(0.017676 0.144928 2.15441)
(-0.0605918 0.177565 2.11241)
(-0.113562 -0.0867944 1.80746)
(-0.148827 -0.0047395 1.9756)
(-0.193768 0.123707 1.91239)
(0.279724 -0.00302352 1.47353)
(0.0440243 -0.0598652 0.807271)
(0.215765 0.104812 0.832984)
(-0.0786159 -0.299957 1.11591)
(0.30323 0.253133 2.07847)
(0.0881155 -0.117361 0.864731)
(0.15599 -0.00554099 0.614953)
(0.0529569 -0.0560731 0.82047)
(0.180288 0.390447 2.47262)
(0.0204399 0.194026 2.77995)
(0.015075 -0.0546779 1.19153)
(0.155319 -0.0438132 1.10695)
(-0.0133742 -0.00451227 1.44326)
(0.0257002 0.152073 1.39277)
(0.088883 0.280306 2.37091)
(0.0618728 0.116313 2.27309)
(-0.0255843 -0.0593327 1.43745)
(-0.0512251 -0.0860598 1.75194)
(-0.0886591 0.0491636 2.08633)
(0.0230378 0.152193 2.21555)
(-0.0570717 0.162527 2.15716)
(-0.0998701 -0.0324837 1.77817)
(-0.144974 -0.00755646 1.99103)
(-0.227209 0.149558 2.00112)
(0.256303 -0.0106407 1.51034)
(0.103144 -0.12803 0.827722)
(0.293574 0.0510691 0.830274)
(-0.113194 -0.232994 1.03569)
(0.291269 0.203082 2.05077)
(0.0939695 -0.184425 0.861261)
(0.189238 -0.0399076 0.595714)
(0.0349413 -0.125085 0.729117)
(0.148537 0.333583 2.55465)
(-0.0160887 0.170405 2.90966)
(-0.00191273 -0.0955473 0.993468)
(0.0885115 -0.0979716 1.12093)
(5.27414e-05 -0.00489201 1.43862)
(0.0830704 0.122759 1.33365)
(0.0806242 0.259177 2.40176)
(0.0774177 0.0882828 2.32531)
(-0.0112022 -0.047393 1.3622)
(-0.0537358 -0.0399525 1.7842)
(-0.0867031 0.0680887 2.1188)
(0.0187967 0.163061 2.27371)
(-0.0533626 0.156037 2.20525)
(-0.140069 0.00214494 1.8074)
(-0.190426 0.0318067 2.05436)
(-0.242958 0.159715 2.06214)
(0.267719 -0.0413768 1.64769)
(0.159506 -0.181215 0.850182)
(0.391179 -0.0105646 0.831944)
(0.128105 -0.131005 1.00263)
(0.277945 0.171576 2.03935)
(0.0924118 -0.207201 0.812754)
(0.190309 -0.0788164 0.577049)
(0.0122439 -0.172115 0.699745)
(0.122442 0.288849 2.61279)
(-0.0480305 0.14236 3.02536)
(-0.0197302 -0.070705 0.897034)
(0.0428339 -0.134086 1.12821)
(0.0394515 0.00260213 1.37442)
(0.123845 0.0626709 1.2458)
(0.0816006 0.222434 2.41703)
(0.0952001 0.060313 2.37007)
(-0.00457372 -0.0357894 1.29003)
(-0.0656765 -0.020757 1.79483)
(-0.0889982 0.0837557 2.12539)
(0.00373962 0.182449 2.32653)
(-0.049824 0.156237 2.25601)
(-0.234284 0.0255209 1.88537)
(-0.237655 0.0502848 2.09303)
(-0.246093 0.166625 2.11529)
(0.303685 -0.015342 1.76337)
(0.207156 -0.230948 0.834635)
(0.438941 -0.0336379 0.811133)
(0.339484 -0.0382793 1.06838)
(0.267172 0.140223 2.01229)
(0.068415 -0.225915 0.732659)
(0.165135 -0.103704 0.563087)
(0.00489419 -0.174468 0.701258)
(0.110524 0.258417 2.65724)
(-0.0761028 0.108987 3.1167)
(-0.0219655 -0.0492807 0.855117)
(0.018469 -0.149756 1.12124)
(0.0308031 -0.0131839 1.27029)
(0.126545 -0.00463759 1.14584)
(0.104394 0.158296 2.41814)
(0.11423 0.0316579 2.40274)
(-0.0302013 -0.0860311 1.28349)
(-0.0775392 -0.0249141 1.79325)
(-0.0931476 0.0882839 2.11651)
(-0.00121676 0.193757 2.36427)
(-0.0473596 0.164598 2.31197)
(-0.296782 -0.0037818 1.95891)
(-0.271676 0.0520084 2.09804)
(-0.243208 0.171862 2.1716)
(0.283625 -0.015131 1.85366)
(0.222634 -0.251821 0.803809)
(0.419012 0.0504099 0.789108)
(0.312765 0.0138113 1.16427)
(0.26253 0.100566 2.02694)