/*--------------------------------*- C++ -*----------------------------------*\
| =========                 |                                                 |
| \\      /  F ield         | OpenFOAM: The Open Source CFD Toolbox           |
|  \\    /   O peration     | Version:  5.x                                   |
|   \\  /    A nd           | Web:      www.OpenFOAM.org                      |
|    \\/     M anipulation  |                                                 |
\*---------------------------------------------------------------------------*/
FoamFile
{
    version     2.0;
    format      ascii;
    class       surfaceScalarField;
    location    "6.85";
    object      phi;
}
// * * * * * * * * * * * * * * * * * * * * * * * * * * * * * * * * * * * * * //

dimensions      [0 3 -1 0 0 0 0];

internalField   nonuniform List<scalar> 
29271
(
-5.22171e-06
-1.10447e-06
-7.73638e-08
6.3394e-06
-6.72654e-06
-6.81648e-07
-2.99013e-07
7.70128e-06
-1.45163e-05
2.01947e-07
-1.60039e-06
2.3044e-06
3.44898e-07
1.32654e-05
-1.65877e-05
1.64565e-06
-2.03694e-06
1.34507e-06
-1.451e-06
1.70849e-05
-1.90938e-05
-1.68372e-08
4.26082e-07
-6.51072e-07
2.02813e-05
-9.45585e-07
-1.6346e-05
1.23877e-06
2.31736e-07
-1.03426e-06
1.99237e-06
1.39174e-05
-2.01648e-05
-1.88471e-06
-1.75046e-06
1.26089e-06
1.39562e-06
2.11435e-05
-1.64796e-05
1.43689e-06
-8.66153e-07
9.86971e-07
-2.01127e-06
1.69332e-05
-1.83236e-05
9.74194e-07
-1.40373e-06
1.45342e-06
-1.5069e-06
1.88066e-05
-1.59416e-05
-2.59255e-07
-6.87299e-07
1.79753e-05
-1.21596e-06
-6.86267e-06
-1.65775e-06
1.24757e-06
7.23893e-06
-1.91135e-05
1.49332e-06
-5.15073e-06
-3.78773e-06
1.81855e-06
2.47401e-05
-2.02657e-05
4.90031e-07
5.26485e-06
-4.32269e-06
-3.59921e-07
1.91934e-05
-1.40387e-05
3.6003e-06
1.83154e-06
-2.22959e-07
-2.75371e-06
1.15836e-05
-1.76411e-05
2.50345e-06
-1.02329e-06
2.03631e-06
-2.22973e-06
1.63544e-05
-1.82234e-05
2.10287e-06
3.21421e-06
-3.40197e-06
1.87296e-05
-2.4214e-06
-1.52378e-05
-1.161e-07
-1.35986e-06
1.56591e-06
1.43925e-05
7.55347e-07
-1.91184e-05
6.21153e-06
2.78458e-06
-4.42464e-06
-1.11874e-08
1.45581e-05
-1.63015e-05
2.67631e-06
2.1272e-06
-8.42652e-07
8.99431e-07
1.14412e-05
-1.41622e-05
2.41821e-06
-1.48075e-06
1.20683e-05
2.27812e-06
-1.12173e-06
-6.71488e-06
2.33131e-06
-2.97706e-06
7.22221e-06
-1.59992e-05
2.68281e-06
-5.34421e-06
2.04552e-05
-1.82674e-06
-1.7408e-05
3.71393e-06
-7.91766e-06
1.3959e-05
1.3368e-05
-5.71519e-06
-4.99032e-06
4.23492e-07
8.76055e-07
3.60852e-06
-9.46706e-06
-3.00209e-06
-3.70258e-06
1.61497e-05
-1.16247e-05
6.83054e-07
-4.22073e-06
1.51805e-05
1.71666e-06
-3.19058e-06
-1.26077e-05
3.66417e-06
-2.5199e-06
1.29374e-05
7.00002e-06
-1.55509e-05
-1.95487e-06
2.6726e-06
-3.91755e-06
1.17507e-05
-2.27199e-05
3.58277e-07
-2.24213e-07
-1.25043e-06
2.5871e-05
-2.0347e-06
7.95517e-06
-7.08329e-07
-1.1824e-05
1.19476e-06
-5.8641e-06
9.24648e-06
1.50003e-05
-1.56865e-05
9.63785e-05
-2.12815e-05
-1.81724e-05
-2.36782e-05
-2.09237e-05
1.44719e-06
1.72191e-06
2.53444e-06
3.33415e-06
-5.14394e-06
-8.06753e-06
-3.49949e-06
-3.96332e-06
6.57276e-06
-1.27596e-05
8.58784e-05
-1.77111e-05
-1.72145e-05
-1.89369e-05
-1.61906e-05
8.74742e-07
9.43285e-07
1.33421e-06
2.20962e-06
5.50145e-07
-1.27121e-05
0.000111366
1.13089e-06
1.2357e-06
-3.5607e-06
-2.65395e-06
8.06024e-08
-4.14131e-06
-3.57518e-06
-2.07047e-05
-1.92005e-05
-2.08552e-05
-2.03874e-05
-2.06551e-05
2.41756e-07
-6.08254e-06
2.7029e-05
-5.95123e-06
4.04137e-06
-2.55702e-06
4.5179e-06
1.22405e-07
-2.24823e-05
5.3846e-06
3.38847e-06
-3.48707e-06
1.70739e-05
1.38904e-05
-1.05564e-05
5.44322e-05
-1.65488e-05
-1.2036e-05
-1.57708e-05
-9.5531e-06
-6.27206e-06
-7.4808e-06
-2.79967e-06
-2.99145e-06
1.24161e-05
-1.33622e-05
4.9686e-05
-1.15524e-05
-1.15994e-05
-1.25023e-05
-1.19551e-05
1.53018e-06
-4.59282e-06
6.98891e-05
1.26271e-06
1.32128e-06
1.33024e-06
-3.78135e-06
-3.28756e-06
-2.5988e-06
-1.52553e-05
-1.53509e-05
-1.54769e-05
-1.52859e-05
-1.88847e-05
7.92588e-06
4.41141e-06
-5.0004e-06
1.3078e-05
-1.64812e-05
4.06734e-07
6.72438e-07
4.43799e-07
1.41656e-05
7.92664e-07
1.06411e-05
-7.27218e-06
3.95156e-05
-3.30497e-06
-4.51575e-06
-2.59704e-06
-4.21539e-06
-3.36779e-06
-3.72428e-06
-1.7231e-06
-9.90028e-06
-5.76746e-06
-8.21185e-06
-6.11294e-06
2.57213e-06
-3.2832e-06
3.16394e-05
2.76966e-06
3.3005e-06
2.89392e-06
-2.17105e-06
-1.967e-06
-1.748e-06
-9.00614e-06
-8.77634e-06
-1.0361e-05
-8.58397e-06
-1.13462e-05
3.03077e-06
-2.74826e-06
9.04302e-06
-7.55433e-06
2.82605e-06
-2.88329e-06
7.57011e-06
-2.91733e-05
6.52211e-06
-8.84371e-06
2.42693e-05
-1.00531e-05
-2.00482e-06
3.23388e-06
-3.58561e-06
9.12642e-06
-3.45582e-06
2.45854e-06
-2.31707e-06
3.32253e-06
-1.89679e-05
-8.16765e-07
1.54521e-06
1.82395e-05
-1.4297e-05
4.49162e-06
-3.45809e-06
1.33355e-05
1.31175e-06
-3.57554e-06
-1.52184e-05
3.60667e-06
-2.54036e-06
1.64159e-05
1.96183e-06
-1.07323e-05
-2.74982e-06
-1.79321e-07
-2.90115e-06
1.46007e-05
-2.58674e-05
1.62402e-07
-1.35808e-06
2.01344e-06
2.2902e-05
2.14766e-06
8.50356e-07
-1.64732e-06
-9.05552e-06
1.52156e-06
-3.49193e-06
1.18229e-05
1.33244e-05
-1.21704e-05
9.62737e-05
2.96414e-06
3.20667e-06
1.7273e-06
1.5306e-06
-1.75625e-06
-2.85665e-06
-3.42143e-06
-2.44353e-06
-6.50172e-06
-1.40869e-05
0.000121415
2.12785e-06
2.68189e-06
-3.60861e-06
-2.82499e-06
-5.30344e-06
-1.14449e-05
0.000140957
-4.12474e-06
-1.7792e-06
-2.45222e-06
-4.25821e-07
-3.50542e-06
-4.96726e-06
-2.0893e-06
-2.82566e-05
6.14178e-06
-7.88252e-06
2.46956e-05
-3.80828e-06
1.76691e-06
-1.30449e-06
3.39726e-06
-8.17804e-07
-1.44332e-05
3.53886e-06
2.73108e-06
-3.12434e-06
1.21053e-05
8.98956e-06
-1.48851e-05
6.19579e-05
-3.81598e-06
-4.48191e-06
-2.4104e-06
-3.0923e-06
1.15371e-05
-1.09943e-05
4.40459e-05
1.52833e-06
-1.80326e-06
7.10334e-05
4.32519e-06
2.16886e-06
2.70766e-06
-3.40561e-06
-2.028e-06
-4.54518e-06
-9.94316e-06
8.89765e-07
-7.07027e-07
-1.23151e-06
1.25203e-05
-1.37018e-05
-4.25956e-09
1.711e-06
-2.95208e-06
1.25821e-05
2.36508e-06
1.09551e-05
-6.43794e-06
4.25803e-05
-3.89341e-06
-5.92938e-06
-2.59734e-06
-3.01815e-06
-2.68535e-06
-2.61512e-06
-1.7283e-06
2.03688e-06
-2.69556e-06
2.94036e-05
1.96093e-06
5.10931e-06
2.62232e-06
-2.57273e-06
-2.28817e-06
-1.97646e-06
-7.70281e-06
5.44465e-06
-1.76821e-06
4.25999e-06
-7.7433e-06
2.49903e-06
-4.8449e-06
1.0021e-05
-1.93318e-05
-6.61169e-06
5.56164e-06
1.42716e-05
-8.99687e-06
-2.90805e-06
3.31284e-06
-2.29354e-06
8.19006e-06
-2.99575e-06
2.74205e-06
-1.94443e-06
2.21258e-06
-1.68287e-05
-1.78482e-07
1.39822e-06
1.56089e-05
-1.21544e-05
-9.71574e-07
1.6619e-06
1.14633e-05
2.29636e-06
-2.28696e-06
-1.65511e-05
3.29179e-06
-2.01472e-06
1.52646e-05
8.23004e-07
-1.49124e-05
-2.38098e-06
5.10152e-07
-5.19542e-07
1.64798e-05
-2.10244e-05
-1.2094e-06
-1.34819e-06
1.12477e-06
2.10353e-05
1.42187e-06
2.66046e-06
3.57747e-06
-1.16361e-05
-3.11537e-06
-3.13868e-06
1.16523e-05
4.62458e-06
-8.2772e-06
0.000102065
8.61144e-07
8.52568e-07
1.31235e-06
1.51308e-06
-7.72878e-07
-1.45395e-07
-3.03031e-06
-2.7296e-06
-2.83033e-06
-9.50116e-06
0.000126168
2.50186e-06
-8.56582e-07
7.40864e-06
3.14962e-06
-2.59568e-06
-9.36951e-06
0.000138836
-3.06699e-07
3.08146e-06
2.68563e-06
4.57598e-06
-2.31198e-07
8.14466e-08
1.36943e-06
-2.07677e-05
5.33082e-06
-6.20229e-06
1.90435e-05
-2.66193e-06
1.25744e-06
-4.96944e-07
1.95172e-06
-3.38304e-07
-1.15789e-05
3.32834e-06
1.00987e-06
-2.50009e-06
1.00791e-05
3.71199e-06
-9.05468e-06
6.85355e-05
-1.68543e-06
-8.53558e-07
-4.06074e-06
-2.91236e-06
-5.14885e-06
-4.59925e-06
4.80048e-05
2.58789e-06
2.00459e-07
4.56823e-05
2.4614e-06
2.66815e-06
2.38617e-06
-1.74019e-06
2.60923e-06
-3.40405e-07
-1.42989e-05
3.60931e-06
2.22772e-06
-4.93839e-06
1.59881e-05
-1.09725e-05
1.92658e-07
1.37373e-06
-1.84894e-06
8.59916e-06
2.65592e-06
6.14178e-06
-1.89956e-06
4.06652e-05
-2.06271e-06
-2.51164e-06
-1.77687e-06
-1.55783e-06
-1.41136e-06
-1.00151e-06
-1.05986e-06
1.61925e-06
-3.53982e-07
3.12433e-05
1.37628e-06
-4.36506e-07
-7.26505e-07
-3.62851e-07
-1.29933e-06
-1.13516e-07
-2.64865e-06
4.24854e-06
-1.01778e-06
1.2376e-06
-1.25847e-05
2.60823e-06
-4.66641e-06
1.46434e-05
-1.08247e-05
-1.87304e-06
3.21673e-06
7.73519e-06
-7.58346e-06
-2.08596e-06
1.40404e-06
-9.27204e-07
8.8386e-06
-1.56836e-06
1.51882e-06
-5.24556e-07
5.8703e-07
-1.47963e-05
6.81033e-07
-3.73825e-07
1.44891e-05
-9.80777e-06
2.9884e-06
-2.54575e-06
9.36513e-06
3.65777e-06
-1.8897e-06
-1.52975e-05
1.9343e-06
-5.22059e-06
1.68157e-05
2.60227e-06
-1.97498e-05
-7.20568e-07
-5.04205e-07
-4.40367e-06
2.27759e-05
-2.29446e-05
-5.53744e-07
-1.98543e-06
-5.10887e-07
2.49459e-05
1.04878e-06
2.64187e-06
1.83998e-07
-1.12541e-05
-1.45013e-08
-4.20116e-06
1.26439e-05
3.36695e-06
-1.41716e-05
8.87691e-05
5.43017e-06
4.81985e-06
7.31194e-06
7.37239e-06
-2.51427e-07
-7.22509e-07
4.35706e-07
-2.95175e-07
-5.0663e-07
-1.25415e-05
0.0001223
6.41119e-06
2.47777e-06
7.6973e-06
3.69666e-06
1.52256e-06
-4.79612e-06
0.000123479
1.49554e-06
3.89183e-06
2.14698e-06
3.96113e-06
1.65898e-06
2.67022e-06
2.29874e-06
-1.93853e-05
4.01732e-06
-4.14927e-06
2.10398e-05
-1.81254e-06
2.00533e-06
-1.11932e-06
9.265e-07
-9.76386e-07
-9.62908e-06
4.03853e-06
1.50977e-06
-1.90371e-06
6.96087e-06
1.70872e-05
-2.51419e-06
4.48029e-05
-1.53805e-06
-4.76138e-08
-1.37484e-06
-2.05147e-06
8.96847e-06
-3.13031e-06
4.67123e-05
1.80916e-06
1.65717e-06
3.78748e-05
2.29197e-06
1.52903e-06
3.00576e-06
3.65891e-07
8.85498e-07
4.35384e-07
-1.75519e-05
2.95658e-06
7.66114e-07
-3.10381e-06
1.87421e-05
-7.09603e-06
-7.67795e-07
5.78811e-07
-3.02165e-07
7.54549e-06
4.16848e-08
7.29858e-06
1.68029e-07
4.91413e-05
-1.7346e-06
-1.00151e-06
-4.65883e-06
-3.60008e-06
-7.68107e-07
-3.25138e-06
-3.44238e-06
-7.54448e-08
-6.28684e-07
3.44065e-05
1.18099e-06
-4.3641e-07
1.89287e-06
1.01156e-07
-1.21278e-06
1.83366e-07
2.52995e-07
2.18861e-06
-4.75751e-08
-8.12302e-07
-1.68012e-05
1.26327e-06
-3.86953e-06
1.94074e-05
-6.17212e-06
-9.63636e-07
7.77441e-07
6.53867e-06
-1.00147e-05
-1.22323e-06
2.98808e-06
-1.67031e-07
7.78824e-06
1.56437e-07
2.13464e-06
-3.64622e-06
1.3529e-06
-1.45306e-05
6.34019e-07
-8.21917e-07
1.47185e-05
-9.21086e-06
1.69488e-06
-1.87045e-06
9.38643e-06
4.50789e-06
-1.10527e-08
-1.89038e-05
1.05789e-06
-7.09028e-06
2.04393e-05
3.95625e-06
-2.61573e-05
2.27077e-07
-1.63621e-06
-5.28263e-06
2.88928e-05
-2.64709e-05
-1.94112e-07
-2.43836e-06
-1.01171e-07
2.689e-05
2.31452e-06
3.37959e-06
-2.26079e-06
-1.56126e-05
2.0881e-06
-5.9165e-06
1.83222e-05
3.78925e-06
-1.99162e-05
8.41081e-05
7.03815e-06
6.56487e-06
6.70473e-06
7.15491e-06
-1.06349e-06
-2.3528e-06
-1.18074e-06
-2.0777e-06
-2.92268e-06
-1.1973e-05
0.000126652
5.34867e-06
1.74663e-06
5.34322e-06
1.89457e-06
1.84404e-06
-2.2741e-06
0.000112825
4.18898e-07
3.04014e-06
5.63309e-07
1.38632e-06
1.54714e-06
2.33814e-07
9.71694e-07
-2.1807e-05
2.49938e-06
4.72792e-06
-6.89254e-06
2.33163e-05
6.80986e-08
-5.04087e-08
1.38588e-07
-1.56276e-07
-6.65196e-07
2.37811e-06
-1.14086e-06
-5.72048e-07
-2.62614e-06
-5.94993e-06
5.71567e-06
4.15159e-06
-4.5029e-06
3.21171e-06
1.98972e-05
-1.05559e-05
3.11847e-05
-4.07568e-06
-3.68245e-06
-3.9718e-06
-3.90935e-06
8.61992e-06
-5.79363e-06
5.18102e-05
3.03449e-07
-2.05819e-07
4.46476e-05
1.40906e-06
-3.82627e-07
-2.09413e-07
8.7415e-08
-8.80352e-07
-5.48714e-07
-1.91313e-05
2.6516e-06
1.18833e-06
1.07056e-06
1.45242e-05
-9.93111e-09
6.5789e-08
-1.91155e-09
-1.34577e-08
-4.05122e-08
-1.66263e-06
9.64063e-08
4.89415e-07
-1.36809e-06
2.65355e-07
2.17954e-06
1.34704e-05
6.48048e-07
2.20587e-05
-4.35161e-07
-3.71519e-07
-1.41095e-07
1.66532e-07
1.5047e-06
6.82243e-07
1.00256e-06
-1.80538e-07
-1.14569e-06
3.41406e-05
4.16473e-06
1.80056e-06
4.4937e-06
-4.2577e-07
-5.34266e-07
-2.30056e-07
9.49362e-07
9.49065e-07
-2.40309e-06
1.18306e-07
-2.52413e-05
2.63227e-06
-4.59307e-06
2.72021e-05
-2.76682e-06
-1.5382e-06
4.00256e-06
9.50537e-07
-6.40261e-06
-3.59565e-06
5.19091e-06
-1.79338e-06
5.45505e-06
-2.90742e-06
3.77199e-06
-4.47741e-06
3.61283e-06
-1.50281e-05
5.22646e-07
-8.93967e-07
1.53994e-05
-1.02287e-05
-7.96681e-07
-2.35431e-07
1.12608e-05
3.63834e-06
1.16757e-06
-2.20023e-05
-8.33584e-07
-5.90125e-06
2.39312e-05
3.18113e-06
-3.10196e-05
2.3446e-06
-3.57094e-06
-2.85569e-06
3.19205e-05
-2.65647e-05
-2.6712e-07
-2.14303e-06
4.5295e-07
2.5223e-05
3.2989e-06
1.98378e-06
-1.29066e-06
-2.08216e-05
1.61411e-06
-3.94435e-06
2.24587e-05
3.23508e-06
-2.07933e-05
8.56861e-05
5.54382e-06
5.60012e-06
4.97453e-06
5.52633e-06
-1.63915e-06
-1.74089e-06
-1.51605e-06
-7.68413e-07
-7.81134e-06
-6.65684e-06
0.000138556
2.67294e-06
-1.95771e-07
2.68651e-06
6.35191e-07
-2.75965e-07
3.45566e-06
0.000104371
-1.47366e-06
-4.2335e-07
-1.07173e-06
-9.06031e-07
4.90927e-07
-1.57428e-07
1.00493e-06
-2.74098e-05
5.87893e-06
2.83085e-06
-1.56957e-06
1.99937e-05
3.01367e-06
-2.90091e-06
4.46687e-07
-2.7007e-06
4.82219e-06
-2.68093e-06
1.53495e-06
1.20072e-06
-1.04485e-07
-2.63118e-06
-2.80521e-06
-8.68245e-07
4.15783e-06
3.60009e-06
-3.942e-06
-1.42468e-07
1.76929e-05
-1.61848e-05
2.57258e-05
-3.87814e-06
-4.70838e-06
-3.29428e-06
-4.96174e-06
3.74188e-06
-5.27924e-06
6.43836e-05
-1.30381e-06
-1.44522e-06
5.96112e-05
-9.45671e-07
-1.54463e-06
-7.84272e-07
-4.53366e-07
-9.98321e-07
-2.90767e-07
-1.49494e-05
1.98941e-06
-1.88386e-06
-7.88929e-07
1.4329e-05
-6.07762e-07
-5.36219e-06
2.31207e-06
-2.10907e-06
4.2429e-06
1.52404e-06
1.89408e-06
6.79352e-07
1.65309e-06
-2.37354e-06
-5.28964e-06
3.43665e-06
1.14975e-05
-2.67798e-06
9.02986e-06
-2.97309e-06
-1.32035e-06
-3.07213e-06
-8.40823e-07
-1.68488e-06
-1.17034e-06
-9.13876e-07
2.34426e-06
-1.46033e-06
3.38789e-05
3.20402e-06
3.23864e-06
2.97532e-06
-9.65079e-07
-1.1983e-06
-1.65856e-06
-1.99998e-06
2.57158e-06
-2.98808e-06
3.31552e-06
-2.53425e-05
-6.58933e-06
-3.03303e-06
2.67308e-06
3.2292e-05
-1.32724e-06
9.82012e-07
-2.61689e-07
6.06919e-07
-8.65938e-08
6.20551e-07
-6.01728e-07
-2.61021e-06
-4.56071e-06
-7.65759e-07
3.06694e-06
-1.81477e-06
2.61397e-06
-4.17893e-06
3.16892e-06
-2.9488e-06
3.95882e-06
-1.58091e-05
5.32615e-07
-8.12245e-07
1.60887e-05
-1.22359e-05
-2.60005e-06
1.40058e-06
1.34353e-05
2.07644e-06
2.81563e-06
-2.63006e-05
-3.72336e-06
-3.53287e-06
2.86647e-05
2.41167e-06
-3.19036e-05
4.66004e-06
-4.79465e-06
-1.39197e-06
3.10185e-05
-2.36189e-05
-3.42078e-08
-2.75872e-06
9.01489e-08
2.24991e-05
3.82253e-06
-1.53403e-06
-9.23062e-07
-2.23511e-05
1.58963e-06
2.38835e-06
2.08302e-05
1.66957e-06
-1.56603e-05
9.28841e-05
3.45227e-06
3.65604e-06
2.29098e-06
3.45414e-06
-1.93658e-06
-7.92438e-07
-2.10446e-06
-1.22729e-06
-9.63065e-06
-1.15804e-06
0.000148514
8.66065e-07
-7.02619e-07
1.68407e-06
6.52935e-07
-2.85707e-07
5.76542e-06
9.19777e-05
-2.07676e-06
-9.43079e-07
-4.15717e-07
-4.49621e-07
7.1575e-07
-3.8719e-07
8.39207e-07
-1.95542e-05
-3.30944e-06
7.91987e-07
2.87568e-06
1.89102e-05
3.12574e-06
-8.34701e-07
-6.13093e-07
-7.24795e-07
2.8519e-06
-3.80506e-06
3.16753e-06
-1.88257e-06
1.81266e-06
-3.09762e-06
-2.52907e-06
5.1644e-07
-2.79011e-06
3.11617e-06
2.29951e-06
-6.12936e-07
8.91246e-06
-1.2771e-05
3.00288e-05
-2.8871e-06
-5.30641e-06
-2.67855e-06
-5.23269e-06
-3.58913e-06
-1.8858e-06
7.76129e-05
-1.63605e-06
-8.10413e-07
6.94953e-05
-1.21031e-06
-1.47923e-06
-1.80099e-06
-2.4479e-07
-2.08111e-07
-3.17857e-07
-1.43241e-05
-1.29374e-06
-4.96343e-07
-4.71457e-07
1.49495e-05
-1.58772e-06
-3.44675e-06
-1.72105e-07
3.8003e-07
3.46109e-06
1.36545e-06
7.4359e-06
-1.21099e-06
3.20142e-06
-3.06698e-07
-8.52789e-06
-5.91757e-07
1.0608e-05
-4.99808e-07
-4.20877e-07
-3.42515e-06
-1.62858e-06
-4.47387e-06
-2.64342e-06
-2.81026e-07
-6.19612e-07
-3.5677e-07
3.11572e-06
-4.34791e-07
3.43107e-05
2.40145e-06
3.24197e-06
2.41063e-06
-1.15276e-06
-3.87996e-07
-9.03837e-07
-4.87728e-06
2.75521e-06
-1.49099e-06
5.91837e-06
-3.46738e-05
7.72113e-07
2.87766e-08
3.19919e-08
3.38417e-05
-1.46663e-06
-2.02928e-06
-8.51124e-07
2.15357e-06
2.19347e-06
3.91425e-06
4.94106e-07
-2.70188e-07
-4.63798e-06
-1.32108e-06
-1.99954e-07
8.90705e-07
-4.17834e-07
6.1337e-07
-3.19843e-06
2.12231e-06
-1.27039e-06
2.34651e-06
-1.61007e-05
6.60025e-07
-5.75175e-07
1.60158e-05
-1.46757e-05
-5.19791e-06
4.36989e-06
1.55037e-05
5.54455e-07
5.07321e-06
-3.02109e-05
-5.30284e-06
-1.18534e-06
3.10714e-05
1.95914e-06
-3.00297e-05
4.89864e-06
-4.19344e-06
-1.80938e-06
2.91747e-05
-2.24553e-05
-4.96613e-07
-1.80545e-06
-5.84199e-07
2.20246e-05
3.31694e-06
-6.03748e-06
-5.96502e-07
-1.83467e-05
1.60445e-06
7.79696e-06
1.55792e-05
-4.60942e-06
-5.57971e-06
0.00010216
1.36612e-06
1.6501e-06
9.82838e-07
1.72947e-06
-1.40187e-06
-1.0893e-06
-1.07764e-06
-1.24687e-06
-1.3108e-05
4.94051e-06
0.000149549
2.60865e-07
-1.24381e-07
1.2977e-06
1.08858e-06
-5.43306e-07
9.2564e-06
7.7277e-05
-1.16366e-06
-1.01072e-06
-1.28607e-06
-1.94708e-06
2.94714e-07
-1.64155e-06
-3.65987e-07
-2.3261e-05
-5.38996e-07
1.56514e-06
2.91219e-06
1.87793e-05
5.06394e-06
-1.18116e-06
5.86915e-07
-1.43248e-06
-3.03721e-06
2.74621e-06
-3.30831e-06
2.79581e-06
-2.2337e-06
-1.94421e-06
3.2517e-07
-7.6613e-06
2.80666e-06
6.34002e-06
1.33658e-07
-4.8798e-06
-2.669e-06
4.52596e-05
-1.98484e-06
-4.52035e-06
-2.21959e-06
-4.53692e-06
-1.48064e-05
2.35661e-06
9.01234e-05
-1.93424e-06
4.13632e-07
7.29583e-05
-2.50585e-06
-1.87386e-06
-4.45853e-06
4.85858e-07
1.06603e-06
-2.06077e-07
-1.5679e-05
-2.75467e-06
2.82842e-07
9.50043e-07
1.52665e-05
-1.6392e-06
-4.30201e-07
-2.0944e-06
2.22295e-06
1.40701e-07
1.80016e-06
9.09481e-06
-2.48736e-06
4.62558e-06
1.34519e-06
-8.96571e-06
-3.61251e-06
5.44312e-06
-3.73959e-07
7.17915e-06
-4.78286e-06
-3.08328e-06
-4.86316e-06
-2.92469e-06
1.91187e-08
8.10223e-10
2.95891e-07
1.75357e-06
1.93642e-07
3.76691e-05
1.54418e-06
7.64374e-07
1.14369e-06
-2.46137e-07
-2.44459e-07
-4.67508e-07
-7.35834e-06
1.13895e-06
-4.58672e-07
8.84526e-06
-2.85769e-05
-4.92909e-06
2.46131e-06
3.10446e-05
5.29606e-06
-1.88624e-08
-1.77412e-07
-5.47375e-06
-1.02538e-08
1.6659e-07
4.09768e-07
-7.71994e-08
-2.95264e-07
-1.46846e-06
1.60593e-06
-9.07239e-07
7.69773e-07
-1.58877e-05
3.2851e-07
1.97675e-07
1.53615e-05
-1.57288e-05
-6.08511e-06
6.36486e-06
1.5449e-05
-4.98633e-07
5.23045e-06
-3.11622e-05
-4.76774e-06
1.78388e-07
3.10198e-05
1.67634e-06
-2.84615e-05
3.95208e-06
-2.67095e-06
-2.45224e-06
2.79563e-05
-2.04001e-05
-1.81679e-06
2.94176e-07
1.58941e-06
1.81616e-05
2.17162e-06
-8.98031e-06
2.02593e-06
-1.24349e-05
-4.77933e-07
9.94717e-06
9.92007e-06
-1.51646e-05
3.1639e-06
0.000111632
-1.44787e-08
-1.8342e-07
-6.28512e-07
1.37149e-07
9.05338e-07
1.80581e-07
1.42255e-06
7.09681e-07
-1.59033e-05
9.18016e-06
0.000138876
6.10632e-07
-1.74648e-08
1.75185e-06
-1.13348e-07
-1.54149e-06
1.17061e-05
6.28971e-05
-2.3049e-06
-2.27519e-06
-1.99508e-06
-2.23835e-06
-1.18952e-06
-1.37888e-06
-3.06139e-07
-1.36751e-05
-1.07257e-06
1.61697e-06
1.15893e-05
1.71368e-06
-3.4852e-06
3.00432e-06
-1.2328e-06
-1.64021e-06
-4.22411e-07
-8.52345e-06
2.24555e-06
7.11514e-06
1.22538e-06
-1.69721e-05
5.71279e-06
6.45221e-05
-3.95307e-07
-2.45909e-06
2.15149e-07
-2.20007e-06
-1.92967e-05
6.93041e-06
9.46978e-05
-3.13338e-06
1.02246e-06
7.61399e-05
-5.30558e-06
-2.70739e-06
-4.10297e-06
5.01753e-07
1.41843e-06
1.53452e-06
-2.02507e-05
-3.46373e-06
-3.08959e-06
3.9159e-06
1.97547e-05
8.41469e-06
-2.76771e-06
4.24585e-06
1.72899e-06
-7.3135e-06
-4.30833e-06
-2.05221e-06
9.24015e-07
2.05492e-05
-3.2535e-06
-1.81336e-06
-3.11772e-06
-1.89269e-06
1.40896e-06
8.3708e-07
1.30217e-06
-5.27754e-07
5.60934e-07
4.29983e-05
1.88803e-07
-8.74047e-07
-3.56842e-07
2.71878e-07
2.53446e-07
3.26282e-08
-1.08338e-05
-5.47714e-07
1.02908e-07
1.17733e-05
-2.99158e-05
3.94078e-07
3.98501e-06
2.55367e-05
5.41417e-06
-7.3282e-07
7.21276e-07
-4.47861e-06
7.36256e-07
-2.10164e-07
8.38195e-07
-3.01819e-07
-5.01533e-07
-2.82531e-07
1.12619e-06
-1.04024e-06
1.96576e-07
-1.38855e-05
1.49595e-07
1.9048e-06
1.18311e-05
-1.40549e-05
-4.37901e-06
7.66335e-06
1.07706e-05
-7.49066e-07
3.59983e-06
-3.04802e-05
-3.35784e-06
9.70069e-07
3.00172e-05
-3.42248e-07
-2.77266e-05
2.49576e-06
-1.01842e-06
-1.45108e-06
2.80425e-05
-1.61166e-05
-2.70718e-06
2.09701e-06
2.91667e-06
1.3899e-05
-8.88819e-08
-9.39155e-06
2.48518e-06
-8.64671e-06
-1.78128e-06
8.74496e-06
8.58941e-06
-2.11348e-05
9.31895e-06
0.000119122
-1.4596e-06
-1.30644e-06
-1.65152e-06
-7.51329e-07
2.47451e-06
1.73303e-06
2.7818e-06
2.50549e-06
-1.42144e-05
1.12073e-05
0.000121887
9.45526e-07
-1.74707e-06
1.52835e-06
-1.86526e-06
-1.06086e-06
1.22868e-05
5.06593e-05
-2.85612e-06
-2.70337e-06
-3.22137e-06
-3.14271e-06
-2.65936e-08
-6.17151e-07
-6.35095e-07
-9.30056e-06
-1.32188e-06
1.64223e-06
7.91935e-06
8.25192e-07
-2.85363e-06
2.47771e-06
-4.49269e-07
-8.59864e-07
-2.09963e-06
-7.22687e-06
2.02731e-07
6.35687e-06
3.62677e-06
-2.2352e-05
1.1314e-05
7.93662e-05
1.93729e-06
-4.30354e-07
3.00844e-06
9.97561e-07
-1.86259e-05
9.2563e-06
9.29226e-05
-1.30206e-06
4.49839e-07
7.30784e-05
-2.96798e-06
-1.19886e-06
-2.45945e-06
1.80957e-06
3.86324e-07
2.00491e-06
-1.77542e-05
-3.6732e-06
-8.83206e-07
4.87564e-06
1.61329e-05
6.0853e-06
-2.06881e-06
3.31529e-06
1.52548e-06
-4.73688e-06
-4.12039e-06
-7.17683e-06
1.69418e-06
3.68433e-05
-1.98132e-06
-8.00414e-07
-1.39382e-06
-1.0342e-06
2.43616e-06
1.29154e-06
1.98457e-06
-1.66727e-06
6.79295e-07
4.8529e-05
-9.37943e-07
-1.55657e-06
-1.17396e-06
4.73334e-07
4.88075e-07
2.43773e-07
-1.32172e-05
-1.28587e-06
-2.65703e-07
1.35514e-05
-2.42854e-05
-2.65569e-06
3.46424e-06
2.34769e-05
3.74177e-06
-1.23874e-06
1.57061e-06
-2.37945e-06
3.7306e-07
-6.50285e-07
1.34522e-06
-7.08843e-07
3.20147e-07
-3.01836e-07
8.41056e-07
-1.2258e-06
6.86576e-07
-1.01556e-05
-6.97882e-07
1.92951e-06
8.92398e-06
-7.10697e-06
-3.47899e-06
5.63039e-06
4.95557e-06
-1.6718e-06
-8.28422e-08
-3.00774e-05
2.42423e-07
1.61406e-06
2.99755e-05
-2.59615e-06
-2.85895e-05
-1.4825e-07
1.74376e-06
9.02496e-07
2.86877e-05
-1.15509e-05
-3.89345e-06
4.29604e-06
4.54788e-06
9.66107e-06
-3.06066e-06
-6.6103e-06
2.76323e-06
-8.90517e-06
-2.84161e-06
6.66213e-06
8.93171e-06
-1.93955e-05
1.17636e-05
0.000126556
-2.23816e-06
-2.29601e-06
-3.31169e-06
-1.68775e-06
2.47341e-06
2.04805e-06
2.54086e-06
2.6694e-06
-1.02366e-05
1.28055e-05
0.000105887
1.23388e-07
-3.16122e-06
4.61881e-07
-3.38891e-06
3.46564e-07
1.25975e-05
4.60893e-05
-4.65993e-06
-3.98144e-06
-5.28337e-06
-4.31624e-06
-4.91216e-07
6.12057e-07
-4.90598e-07
-7.08878e-06
-3.36108e-06
3.81689e-06
6.97954e-06
5.38266e-08
-2.2459e-06
1.80981e-06
3.82258e-07
2.77332e-07
-5.07636e-06
-5.77791e-06
-1.39752e-06
5.63226e-06
6.3422e-06
-2.33265e-05
1.44966e-05
8.91189e-05
2.97598e-06
1.56427e-06
3.6446e-06
2.65584e-06
-1.57254e-05
9.98823e-06
8.81388e-05
-8.94071e-07
-6.14876e-07
7.14161e-05
-1.4755e-06
-9.17304e-07
-1.20156e-06
1.93194e-06
-2.58442e-07
1.96428e-06
-1.42676e-05
-3.60676e-06
-4.3825e-07
4.57081e-06
1.28478e-05
2.82803e-06
-1.24143e-06
1.76275e-06
1.29878e-06
-5.89434e-07
-4.0587e-06
-8.59609e-06
2.2208e-06
5.14872e-05
-7.28427e-07
-2.35078e-07
-2.58673e-07
-3.95433e-07
2.92137e-06
2.13101e-06
2.79326e-06
-2.05456e-06
8.84247e-07
5.3477e-05
-1.34964e-06
-1.62678e-06
-1.29421e-06
6.58912e-07
8.01673e-07
4.24457e-07
-1.46475e-05
-1.35797e-06
-1.35018e-06
1.46862e-05
-2.30571e-05
-2.92674e-06
2.88369e-06
2.31002e-05
1.24805e-06
-1.57505e-06
2.21441e-06
3.33396e-07
-1.12721e-06
-1.2767e-06
1.77033e-06
-9.76282e-07
2.49411e-06
-1.02809e-06
1.00522e-06
-1.51609e-06
1.53896e-06
-8.03795e-06
-1.74077e-06
2.05654e-06
7.72218e-06
-4.04857e-06
-3.20564e-06
3.42323e-06
3.83098e-06
-3.45123e-06
5.36306e-07
-2.80384e-05
1.7707e-06
5.04802e-06
2.41346e-05
-2.80637e-06
-2.80705e-05
-2.4289e-06
4.61988e-06
2.94979e-06
2.57361e-05
-8.82275e-06
-4.97349e-06
4.56482e-06
5.92162e-06
9.11884e-06
-5.80904e-06
-3.75447e-06
2.82417e-06
-8.5335e-06
-3.05887e-06
4.4636e-06
8.05907e-06
-7.95714e-06
1.46909e-05
0.00012927
-4.88236e-06
-3.25094e-06
-5.46729e-06
-3.15947e-06
2.04455e-06
1.35502e-06
2.10289e-06
1.81016e-06
1.72687e-07
1.63147e-05
9.8482e-05
-2.29142e-06
-5.5336e-06
-3.42675e-06
-5.78754e-06
1.1858e-06
1.39033e-05
5.12598e-05
-6.4191e-06
-4.57522e-06
-6.26834e-06
-4.34855e-06
1.70584e-07
1.05852e-06
2.95192e-07
-6.91374e-06
-3.82389e-06
4.73156e-06
7.19188e-06
-8.19059e-07
-1.72284e-06
1.30639e-06
1.23551e-06
7.57681e-07
-7.24147e-06
-4.30083e-06
-1.54294e-06
4.78192e-06
7.54564e-06
-1.9816e-05
1.76125e-05
9.74877e-05
2.204e-06
1.67331e-06
2.51124e-06
2.13705e-06
-1.13825e-05
1.1208e-05
8.48121e-05
-3.86228e-07
-7.52562e-07
7.19294e-05
-2.52318e-07
-2.11772e-07
1.60894e-07
1.79716e-06
1.75676e-07
1.47662e-06
-1.18954e-05
-4.00224e-06
-7.18963e-07
4.32345e-06
1.19069e-05
-1.86009e-06
-3.59777e-07
4.19257e-07
9.22137e-07
4.53964e-06
-3.66117e-06
-6.34071e-06
2.78059e-06
6.36804e-05
-4.35348e-07
-2.44931e-07
-2.10979e-07
-3.04977e-07
3.55039e-06
2.95128e-06
3.67394e-06
-1.83224e-06
1.24001e-06
5.93595e-05
-1.06752e-06
-1.38276e-06
-9.18807e-07
9.60159e-07
1.23672e-06
7.492e-07
-1.55007e-05
-6.70845e-07
-1.9222e-06
1.5509e-05
-2.34351e-05
-2.44976e-06
1.69844e-06
2.41864e-05
-1.91537e-06
-1.68841e-06
2.59847e-06
3.7859e-06
-3.86793e-06
-1.67313e-06
2.09562e-06
-1.09064e-06
5.77609e-06
-1.99586e-06
1.21505e-06
-1.84631e-06
2.62712e-06
-7.79404e-06
-2.12723e-06
2.24023e-06
7.68104e-06
-3.96107e-06
-3.24682e-06
3.01632e-06
4.19157e-06
-1.57328e-06
2.39508e-06
-1.93801e-05
-3.20133e-07
3.45812e-06
1.54203e-05
-3.32706e-06
-2.17494e-05
-3.011e-06
5.1332e-06
5.45019e-06
1.75041e-05
-9.90387e-06
-4.40038e-06
3.19806e-06
5.40433e-06
1.00843e-05
-4.3824e-06
-2.56014e-06
1.89199e-06
-8.00543e-06
-1.93463e-06
2.55345e-06
8.05476e-06
3.9087e-06
2.13179e-05
0.000124767
-6.11805e-06
-5.67533e-06
-5.13516e-06
-5.25031e-06
6.30371e-07
3.91524e-07
-1.53531e-07
5.86989e-07
8.91756e-06
2.18968e-05
9.80714e-05
-6.69077e-06
-7.18549e-06
-6.35968e-06
-6.25906e-06
1.26132e-06
1.37767e-05
6.15201e-05
-6.25068e-06
-4.00918e-06
-5.39402e-06
-3.57572e-06
7.60146e-07
1.08912e-06
9.99542e-07
-7.3772e-06
-3.40323e-06
4.1444e-06
7.89736e-06
-1.5855e-06
-1.41498e-06
1.157e-06
1.84347e-06
1.46531e-07
-7.62669e-06
-2.65788e-06
-9.09823e-07
3.49447e-06
7.55339e-06
-9.76746e-06
2.30249e-05
0.000103937
5.88745e-07
2.66614e-07
4.46484e-07
3.09227e-07
-5.46244e-06
1.34015e-05
8.90024e-05
4.85485e-07
-1.26193e-07
7.56768e-05
1.12468e-06
9.13063e-07
1.44114e-06
1.82313e-07
9.81357e-07
-4.34982e-07
-1.24617e-05
-3.44211e-06
-6.03852e-07
2.86217e-06
1.4131e-05
-7.09641e-06
4.68977e-07
-4.16723e-07
1.98674e-07
9.41459e-06
-2.5691e-06
-2.03239e-06
3.68735e-06
7.42582e-05
-8.22159e-07
-3.99733e-07
-7.21303e-07
-3.96286e-07
4.36172e-06
4.07231e-06
4.69761e-06
-1.49603e-06
1.53883e-06
6.86643e-05
-3.81333e-07
-1.2075e-06
-3.38144e-07
1.22004e-06
1.63528e-06
1.09325e-06
-1.63836e-05
-3.52916e-07
-1.67097e-06
1.67853e-05
-2.52555e-05
-1.00753e-06
-4.36336e-08
2.63066e-05
-5.65922e-06
-8.89788e-07
2.40841e-06
7.82794e-06
-7.62505e-06
-1.86947e-06
2.39702e-06
-1.13884e-06
9.77517e-06
-3.20841e-06
1.38617e-06
-2.12183e-06
3.94407e-06
-6.8998e-06
-5.39172e-07
2.05986e-06
5.37911e-06
-4.36841e-06
-3.02248e-06
2.94008e-06
4.45081e-06
-1.62581e-06
2.19115e-06
-1.28382e-05
-1.26478e-06
2.52501e-06
1.10127e-05
-3.21526e-06
-1.43893e-05
-7.24424e-07
2.10062e-06
4.25466e-06
1.19737e-05
-9.58491e-06
-2.24281e-06
1.71396e-06
3.31044e-06
8.73773e-06
-1.93441e-06
-2.48543e-06
9.28021e-07
-7.95639e-06
-4.78222e-07
2.07898e-06
7.91304e-06
8.30547e-06
2.34349e-05
0.000113948
-4.25955e-06
-5.45374e-06
-3.21228e-06
-3.69414e-06
-8.40516e-07
-1.2431e-06
-6.86868e-07
-1.53107e-06
9.88379e-06
2.20733e-05
9.60482e-05
-6.55683e-06
-5.74783e-06
-5.01968e-06
-4.30414e-06
1.35981e-06
1.1826e-05
6.76111e-05
-4.66617e-06
-2.86035e-06
-3.56362e-06
-2.23719e-06
1.19473e-06
1.40847e-06
1.33109e-06
-8.23231e-06
-1.38631e-06
2.35667e-06
8.62175e-06
-1.97898e-06
-1.19736e-06
1.17213e-06
2.00422e-06
-1.38647e-06
-7.51162e-06
-1.75796e-06
1.41982e-06
1.8113e-06
7.42493e-06
1.7967e-07
2.61547e-05
0.000107721
-2.10307e-06
-1.4503e-06
-2.05094e-06
-1.07895e-06
7.16479e-07
1.45024e-05
9.60365e-05
1.43358e-06
1.32476e-07
8.17571e-05
1.65496e-06
1.85833e-06
1.65491e-06
-5.59366e-07
9.84694e-07
-6.97382e-07
-1.68465e-05
-2.12671e-06
-1.81877e-07
9.00028e-08
2.04987e-05
-1.12471e-05
1.21835e-06
-7.19053e-07
-1.20425e-06
1.26551e-05
-7.03059e-07
7.01097e-07
4.23039e-06
8.31209e-05
-1.15861e-06
-2.51593e-07
-7.94148e-07
-1.2925e-08
4.93453e-06
4.42705e-06
5.21625e-06
-1.46745e-06
1.72911e-06
8.03998e-05
1.25692e-08
-1.07428e-06
-6.14667e-08
1.25138e-06
1.87836e-06
1.19966e-06
-1.81488e-05
-4.63328e-07
-1.1673e-06
1.84445e-05
-2.71326e-05
1.56504e-06
-1.91433e-06
2.74819e-05
-9.79432e-06
5.1806e-07
1.86448e-06
1.16422e-05
-1.1922e-05
-1.81192e-06
2.53899e-06
-1.13761e-06
1.40616e-05
-4.62899e-06
1.50255e-06
-2.2157e-06
5.34214e-06
-3.96311e-06
6.68898e-07
2.11864e-07
3.08235e-06
-4.52511e-06
-2.83362e-06
2.71122e-06
4.6475e-06
-9.95969e-07
2.22609e-06
-9.7389e-06
-1.60461e-06
1.26007e-06
8.85332e-06
-1.71271e-06
-1.0141e-05
5.51074e-07
2.01961e-07
2.6457e-06
8.455e-06
-7.75179e-06
-1.20813e-06
6.84951e-07
2.07094e-06
6.69336e-06
-4.89324e-07
-2.29051e-06
3.19469e-07
-7.96194e-06
2.16395e-08
1.83312e-06
8.07821e-06
1.33616e-05
2.05319e-05
9.50487e-05
-1.94347e-06
-2.52967e-06
-1.44024e-06
-1.42269e-06
-1.10027e-06
-2.91116e-06
-9.80863e-07
-2.6664e-06
1.3521e-05
1.91663e-05
9.05872e-05
-4.26491e-06
-3.60176e-06
-3.25664e-06
-2.74133e-06
1.93116e-06
1.01016e-05
7.08748e-05
-3.01815e-06
-1.453e-06
-2.24653e-06
-8.38784e-07
1.76117e-06
1.99558e-06
2.02426e-06
-8.85866e-06
2.45839e-07
1.04689e-06
9.49708e-06
-1.98884e-06
-9.45737e-07
9.77209e-07
1.95737e-06
-2.12012e-06
-7.56506e-06
-9.38016e-07
2.64159e-06
1.9136e-07
7.79025e-06
6.36332e-06
2.61171e-05
0.00010428
-2.82473e-06
-1.90507e-06
-2.3668e-06
-1.41058e-06
4.24673e-06
1.44837e-05
0.000102836
2.19753e-06
-2.83895e-08
9.23599e-05
1.55404e-06
2.66158e-06
1.57102e-06
-2.18852e-06
1.11486e-06
-3.13657e-06
-2.45419e-05
-9.71495e-07
3.97637e-07
-1.50716e-06
2.88205e-05
-1.3709e-05
1.51796e-06
-6.7401e-07
-2.49374e-06
1.44366e-05
9.22192e-07
2.04622e-06
4.10128e-06
8.89664e-05
-9.30697e-07
5.02915e-07