/*--------------------------------*- C++ -*----------------------------------*\
| =========                 |                                                 |
| \\      /  F ield         | OpenFOAM: The Open Source CFD Toolbox           |
|  \\    /   O peration     | Version:  5.x                                   |
|   \\  /    A nd           | Web:      www.OpenFOAM.org                      |
|    \\/     M anipulation  |                                                 |
\*---------------------------------------------------------------------------*/
FoamFile
{
    version     2.0;
    format      ascii;
    class       volScalarField;
    location    "0.05";
    object      Ksl;
}
// * * * * * * * * * * * * * * * * * * * * * * * * * * * * * * * * * * * * * //

dimensions      [1 -3 -1 0 0 0 0];

internalField   nonuniform List<scalar> 
10571
(
97.7819
448.577
0
0
30.0599
0
0
0
0
66.5058
105.113
0
0
0
0
38.5083
40.2267
0
0
0
402.869
60.3463
18.191
286.233
754.098
1385.93
0
0
146.896
0
0
0
0
279.289
826.154
0
0
0
0
139.215
154.998
0
0
0
1383.69
269.131
56.3798
1400.56
995.677
1870.42
252.287
198.116
380.847
247.918
276.999
194.909
200.59
532.54
957.892
224.601
191.905
132.488
135.532
289.871
393.031
250.18
126.819
3.46566
1774.04
457.33
358.055
1942.61
366.076
687.594
116.969
99.4657
231.588
127.418
243.152
178.055
221.669
406.209
410.39
129.148
169.665
178.624
221.567
279.98
211.613
179.679
165.417
189.461
783.437
167.416
374.478
810.725
77.9674
528.684
46.4276
65.9204
96.2425
21.4259
139.665
127.857
132.306
299.889
239.764
63.7434
121.186
117.674
113.483
235.267
85.8392
127.999
96.516
190.855
385.847
90.5789
95.313
536.757
48.0006
658.295
0.132648
7.83866
75.9579
-2.71403e-16
76.3215
96.4119
93.8005
253.822
0
47.58
0.987587
92.7898
95.8077
95.9877
57.743
0
79.4767
85.1747
74.6308
138.165
419.12
88.8494
84.8989
331.269
20.6408
301.366
130.132
34.1055
301.024
68.0998
101.293
71.4022
54.7934
210.854
0
1.27074
21.1732
79.6071
75.1121
40.2361
29.3122
0
293.654
89.0702
71.89
15.1774
384.161
0
119.209
117.602
182.788
8.8808
207.562
239.746
118.747
350.863
233.653
4.86832
15.4611
14.8586
154.688
0
8.23466
125.136
11.1018
10.5385
24.7359
101.598
0
380.154
29.4112
26.9416
79.7646
411.956
0
312.697
221.993
287.043
27.0783
298.369
190.223
336.308
238.465
165.034
82.3914
49.741
16.9586
321.691
122.919
8.76985
328.373
45.5846
0.959216
2.95704
14.705
91.4369
297.927
66.1599
57.1466
123.089
455.598
166.706
211.854
163.833
35.3119
143.903
131.216
73.4034
243.01
126.117
69.7002
78.3645
110.123
734.128
0.159738
118.759
75.6392
88.5838
122.179
1000.38
211.492
157.234
172.295
229.52
629.535
216.579
254.503
144.422
140.119
296.571
208.575
337.162
303.388
173.342
232.365
439.014
2001.87
3372.82
82.3855
292.648
353.567
1047.85
3327.46
6707.61
390.645
923.71
2094.03
208.158
2384.98
288.701
147.385
505.057
151.082
464.731
28.773
87.6515
451.423
20.3476
6577.18
10222.3
11962.8
7105.92
24.6891
50.9003
9542.39
13937.5
13415.2
6459.1
256.607
11361.8
13848.7
14271.4
10111.1
4677.94
10473.4
11588.9
10052
11108
13831.1
17159.5
16395.2
14138.8
13642.8
14735
12332.3
10914
9499.05
16288.4
14879.6
14203.9
10644.6
11028.2
16599.4
13968
12173.1
16619.5
8571.28
13921.8
15829.4
9704.41
2527.54
4345.08
7853.06
5831.18
6501.13
8536.93
2355.29
1254.71
450.493
0.351278
3480.85
7031.34
1423.29
671.626
78.2857
146.931
2708.54
770.561
134.884
3.87342
0
79.8186
4.74816
0
0
0
0
0
0
0
0
0
0
0
0
0
0
0
0
0
0
0
0
0
0
0
0
0
0
0
0
0
0
0
0
0
0
0
0
0
0
0
0
0
0
0
0
0
0
0
0
0
0
0
0
0
0
0
0
0
0
0
0
0
0
0
0
0
0
0
0
0
0
0
0
0
0
0
0
0
0
0
0
0
0
0
0
0
0
0
0
0
0
0
0
0
0
0
0
0
0
0
0
0
0
0
0
0
0
0
0
0
0
0
0
0
0
0
0
0
0
0
0
0
0
0
0
0
0
0
0
0
0
0
0
0
0
0
0
0
0
0
0
0
0
0
0
0
0
0
0
0
0
0
0
0
0
0
0
0
0
0
0
0
0
0
0
0
0
0
0
0
0
0
0
0
0
0
0
0
0
0
0
0
0
0
0
0
0
0
0
0
0
0
0
0
0
0
0
0
0
0
0
0
0
0
0
0
0
0
0
0
0
0
0
0
0
0
0
0
0
0
0
0
0
0
0
0
0
0
0
0
0
0
0
0
0
0
0
0
0
0
0
0
0
0
0
0
0
0
0
0
0
0
0
0
0
0
0
0
0
0
0
0
0
0
0
0
0
0
0
0
0
0
0
0
0
0
0
0
0
0
0
0
0
0
0
0
0
0
0
0
0
0
0
0
0
0
0
0
0
0
0
0
0
0
0
0
0
0
0
0
0
0
0
0
0
0
0
0
0
0
0
0
0
0
0
0
0
0
0
0
0
0
0
0
0
0
0
0
0
0
0
0
0
0
0
0
0
0
0
0
0
0
0
0
0
0
0
0
0
0
0
0
0
0
0
0
0
0
0
0
0
0
0
0
0
0
0
0
0
0
0
0
0
0
0
0
0
0
0
0
0
0
0
0
0
0
0
0
0
0
0
0
0
0
0
0
0
0
0
0
0
0
0
0
0
0
0
0
0
0
0
0
0
0
0
0
0
0
0
0
0
0
0
0
0
0
0
0
0
0
0
0
0
0
0
0
0
0
0
0
0
0
0
0
0
0
0
0
0
0
0
0
0
0
0
0
0
0
0
0
0
0
0
0
0
0
0
0
0
0
0
0
0
0
0
0
0
0
0
0
0
0
0
0
0
0
0
0
0
0
0
0
0
0
0
0
0
0
0
0
0
0
0
0
0
0
0
0
0
0
0
0
0
0
0
0
0
0
0
0
0
0
0
0
0
0
0
0
0
0
0
0
0
0
0
0
0
0
0
0
0
0
0
0
0
0
0
0
0
0
0
0
0
0
0
0
0
0
0
0
0
0
0
0
0
0
0
0
0
0
0
0
0
0
0
0
0
0
0
0
0
0
0
0
0
0
0
0
0
0
0
0
0
0
0
0
0
0
0
0
0
0
0
0
0
0
0
0
0
0
0
0
0
0
0
0
0
0
0
0
0
0
0
0
0
0
0
0
0
0
0
0
0
0
0
0
0
0
0
0
0
0
0
0
0
0
0
0
0
0
0
0
0
0
0
0
0
0
0
0
0
0
0
0
0
0
0
0
0
0
0
0
0
0
0
0
0
0
0
0
0
0
0
0
0
0
0
0
0
0
0
0
0
0
0
0
0
0
0
0
0
0
0
0
0
0
0
0
0
0
0
0
0
0
0
0
0
0
0
0
0
0
0
0
0
0
0
0
0
0
0
0
0
0
0
0
0
0
0
0
0
0
0
0
0
0
0
0
0
0
0
0
0
0
0
0
0
0
0
0
0
0
0
0
0
0
0
0
0
0
0
0
0
0
0
0
0
0
0
0
0
0
0
0
0
0
0
0
0
0
0
0
0
0
0
0
0
0
0
0
0
0
0
0
0
0
0
0
0
0
0
0
0
0
0
0
0
0
0
0
0
0
0
0
0
0
0
0
0
0
0
0
0
0
0
0
0
0
0
0
0
0
0
0
0
0
0
0
0
0
0
0
0
0
0
0
0
0
0
0
0
0
0
0
0
0
0
0
0
0
0
0
0
0
0
0
0
0
0
0
0
0
0
0
0
0
0
0
0
0
0
0
0
0
0
0
0
0
0
0
0
0
0
0
0
0
0
0
0
0
0
0
0
0
0
0
0
0
0
0
0
0
0
0
0
0
0
0
0
0
0
0
0
0
0
0
0
0
0
0
0
0
0
0
0
0
0
0
0
0
0
0
0
0
0
0
0
0
0
0
0
0
0
0
0
0
0
0
0
0
0
0
0
0
0
0
0
0
0
0
0
0
0
0
0
0
0
0
0
0
0
0
0
0
0
0
0
0
0
0
0
0
0
0
0
0
0
0
0
0
0
0
0
0
0
0
0
0
0
0
0
0
0
0
0
0
0
0
0
0
0
0
0
0
0
0
0
0
0
0
0
0
0
0
0
0
0
0
0
0
0
0
0
0
0
0
0
0
0
0
0
0
0
0
0
0
0
0
0
0
0
0
0
0
0
0
0
0
0
0
0
0
0
0
0
0
0
0
0
0
0
0
0
0
0
0
0
0
0
0
0
0
0
0
0
0
0
0
0
0
0
0
0
0
0
0
0
0
0
0
0
0
0
0
0
0
0
0
0
0
0
0
0
0
0
0
0
0
0
0
0
0
0
0
0
0
0
0
0
0
0
0
0
0
0
0
0
0
0
0
0
0
0
0
0
0
0
0
0
0
0
0
0
0
0
0
0
0
0
0
0
0
0
0
0
0
0
0
0
0
0
0
0
0
0
0
0
0
0
0
0
0
0
0
0
0
0
0
0
0
0
0
0
0
0
0
0
0
0
0
0
0
0
0
0
0
0
0
0
0
0
0
0
0
0
0
0
0
0
0
0
0
0
0
0
0
0
0
0
0
0
0
0
0
0
0
0
0
0
0
0
0
0
0
0
0
0
0
0
0
0
0
0
0
0
0
0
0
0
0
0
0
0
0
0
0
0
0
0
0
0
0
0
0
0
0
0
0
0
0
0
0
0
0
0
0
0
0
0
0
0
0
0
0
0
0
0
0
0
0
0
0
0
0
0
0
0
0
0
0
0
0
0
0
0
0
0
0
0
0
0
0
0
0
0
0
0
0
0
0
0
0
0
0
0
0
0
0
0
0
0
0
0
0
0
0
0
0
0
0
0
0
0
0
0
0
0
0
0
0
0
0
0
0
0
0
0
0
0
0
0
0
0
0
0
0
0
0
0
0
0
0
0
0
0
0
0
0
0
0
0
0
0
0
0
0
0
0
0
0
0
0
0
0
0
0
0
0
0
0
0
0
0
0
0
0
0
0
0
0
0
0
0
0
0
0
0
0
0
0
0
0
0
0
0
0
0
0
0
0
0
0
0
0
0
707.93
616.12
288.262
44.8913
514.386
64.8289
193.102
658.169
714.073
660.508
53.5371
43.0239
0
0
0
0
0
0
0
0
0
46.3614
723.702
0
42.2221
663.057
232.785
560.237
79.442
0
0
0
0
0
0
0
0
0
0
0
0
0
0
0
0
245.175
80.3837
540.738
597.607
37.0116
219.222
0
0
0
0
0
0
0
0
0
0
0
0
0
0
0
0
61.7002
531.153
251.556
662.289
40.7046
0
632.951
57.8789
0
0
0
0
0
0
0
0
0
43.3052
71.5803
650.084
826.332
625.455
219.379
63.1381
624.7
52.4153
181.907
561.935
646.313
290.717
784.077
90.0094
32.775
6.34394
234.096
92.1942
20.9544
10.2599
33.807
301.09
44.5161
67.4802
245.647
616.522
275.432
798.535
46.4888
41.5355
0
896.949
111.41
118.832
0
343.737
0
59.566
89.7489
797.849
0
109.071
368.139
834.574
27.7248
151.347
18.6826
72.3855
321.711
34.324
44.1366
182.253
131.684
44.5824
330.758
22.5731
28.1748
277.033
28.8227
68.6231
146.623
59.8872
48.0551
343.31
138.205
255.82
765.284
0
425.925
41.2115
79.0936
0
852.132
103.287
67.4057
38.3126
466.109
0
101.589
116.6
891.911
798.757
199.109
812.623
15.3785
88.9764
61.731
37.0319
228.615
52.123
41.7922
22.6344
78.7178
208.185
626.973
1421.52
1593.16
544.37
257.424
32.6091
1164.18
376.199
254.633
69.8946
202.332
1354.18
316.66
301.899
1907.37
1892.49
1699.49
2016.69
155.757
181.657
0
1936
239.779
282.193
16.4225
1157.69
0
145.435
252.067
1206.05
0
201.265
1287.65
1624
206.368
636.594
47.6223
307.771
1855.59
266.948
82.5731
634.762
402.683
123.363
767.235
77.2046
223.568
1428.64
330.313
322.92
610.968
268.913
171.618
881.446
392.531
1567.9
2090.71
0
1431.29
173.112
268.385
0
1415
214.094
142.545
134.136
1112.16
0
180.97
126.5
1243.38
1513.88
1544.12
1486.17
42.3999
498.19
282.162
214.989
1554.67
145.323
573.033
253.934
276.465
1374.88
1385.59
1279.11
1335.34
1188
315.045
784.732
717.381
272.305
407.84
486.745
490.79
731.338
323.209
280.359
1687.67
1219.45
2017.77
1263.01
364.702
447.204
307.615
1360.96
255.533
271.008
256.054
1282.88
208.835
317.488
387.112
939.028
434.455
351.664
1756.33
1374.39
321.558
1262.16
679.682
196.725
682.376
391.153
279.193
1264.58
487.381
443.373
1564.6
559.531
383.073
718.295
325.482
235.51
1274.07
449.519
400.136
1473.08
463.148
1693.33
1303.37
242.173
1526.5
323.696
331.532
341.1
1112.76
304.527
292.116
259.919
1638.66
364.709
509.374
530.093
1036.96
1183.95
1770.49
1547.24
443.618
1050.77
355.436
405.071
806.528
369.137
876.379
358.787
318.59
657.508
1322.71
818.531
696.541
596.695
162.736
358.278
635.853
179.911
366.379
270.152
227.78
551.168
279.703
189.545
790.511
607.335
919.334
782.216
188.158
188.36
172.873
562.43
120.714
170.581
106.611
699.331
193.035
198.048
123.473
478.369
42.3928
121.887
957.091
770.831
152.903
452.962
293.558
109.977
622.876
316.87
282.938
1579.53
342.943
167.137
1105.95
260.463
188.969
393.999
301.019
183.618
1074.74
369.374
210.795
798.43
291.568
808.66
650.71
185.661
835.022
226.861
103.441
49.8379
587.756
124.52
302.841
308.364
717.087
100.798
206.522
132.916
513.495
571.191
825.349
836.01
375.647
813.196
283.144
342.414
633.869
249.816
516.974
367.138
222.425
297.707
834.248
394.953
407.321
147.402
102.039
27.7219
232.706
96.5368
301.208
65.366
48.4475
186.525
185.921
157.107
489.728
378.804
628.731
348.377
55.207
47.3026
61.8069
441.106
95.7885
90.9519
105.254
322.976
171.336
133.988
109.96
442.707
55.1817
95.7141
526.518
482.779
94.5132
207.379
67.7344
84.7253
177.334
242.285
220.968
851.491
247.916
51.0929
280.015
93.1543
68.6252
161.111
174.553
81.9732
668.23
287.164
50.3035
256.26
235.741
565.984
284.216
94.3018
349.466
86.8007
124.662
112.534
352.21
104.953
175.014
170.055
367.373
14.8194
89.0786
98.8883
398.646
405.49
423.71
483.062
76.5747
206.439
211.571
364.695
308.747
61.6826
95.2172
335.367
144.451
68.7778
355.241
441.701
455.383
11.5001
127.11
32.3378
97.8706
162.612
266.856
77.5753
55.575
88.2627
209.427
177.922
448.571
360.322
640.336
334.416
122.131
117.86
2.72716
413.156
152.169
182.396
25.2328
438.425
92.5912
68.8416
129.276
458.921
9.48957
103.254
377.393
454.583
109.775
23.5287
74.8848
141.368
62.4398
216.116
69.6671
77.8487
192.633
186.578
75.9833
86.4694
128.154
0
0
0
0
0
0
0
96.4345
71.4328
107.627
219.47
150.663
193.634
219.74
45.668
66.9032
130.668
192.779
25.6505
0
0
0
0
0
0
0
386.602
356.469
45.221
498.777
101.488
159.83
4.6357
405.858
208.368
135.521
158.145
366.38
0
69.2664
174.563
364.322
378.753
490.666
498.887
51.2056
33.0551
238.538
129.046
62.0744
60.8153
12.8382
111.368
112.507
12.8573
352.12
228.502
229.639
51.9364
269.894
223.447
0.237314
259.672
247.195
205.018
134.946
0.252224
219.224
172.138
326.582
155.756
196.1
235.445
369.24
327.698
180.312
347.469
305.083
309.842
98.4111
483.642
149.866
136.999
257.29
278.593
70.304
189.629
345.278
0.531172
572.854
15.2566
0
0
0
0
256.876
13.2547
184.774
217.953
28.3271
260.668
46.736
24.705
106.997
314.016
49.6701
110.507
206.376
0
0
0
0
0
0
0
198.3
141.433
-6.93015e-15
262.508
180.495
142.085
212.732
21.2334
24.1583
188.085
260.745
38.6921
0
0
0
0
0
0
0
272.634
173.608
154.211
294.416
279.778
270.17
51.995
262.215
277.967
131.411
171.886
317.518
161.576
205.811
365.651
287.425
-2.29709e-15
577.242
7.2664
0
0
0
404.967
210.059
170.259
0
132.968
153.484
0
111.537
0
158.603
201.849
0
163.051
142.026
166.899
36.9309
309.554
255.392
3.68226
228.284
213.035
317.124
237.183
0.732735
232.792
192.656
206.007
236.748
147.128
215.103
414.758
447.298
273.191
279.417
208.184
229.717
181.546
412.167
112.801
249.182
225.257
270.282
125.943
280.916
401.675
17.8863
502.637
15.0811
0
0
0
0
288.46
85.4401
291.407
177.03
-1.82502e-14
246.108
52.5771
79.3374
109.634
257.621
93.7476
34.0867
233.22
0
0
0
-2.38856e-15
0
4.22938
12.7487
299.99
210.568
0.577496
201.298
199.543
129.08
233.558
39.5392
18.5036
209.218
247.723
91.3688
0
0
0
0
14.5338
2.68431
1.23029
234.299
159.369
139.495
344.343
370.482
228.176
156.043
229.216
312.402
185.038
204.994
244.146
89.3765
184.782
322.355
353.447
2.94406
436.198
8.12723
0
0
0
501.518
261.015
244.759
0
220.391
154.137
0
219.819
0
143.739
230.465
0
264.166
217.048
278.66
9.5076
269.278
306.309
29.6164
205.284
111.303
283.938
214.579
29.8377
125.39
146.24
200.896
203.604
219.875
172.416
228.478
193.505
135.775
222.118
303.186
298.417
133.16
281.192
175.084
213.71
160.267
361.541
94.7953
202.317
335.904
574.93
225.962
45.4671
320.602
166.547
18.1767
139.387
158.793
81.1696
473.391
548.195
1077.15
294.441
3673.97
77.8118
89.4756
167.591
7607.69
889.342
3400.6
1329.76
284.391
217.556
9.06696
146.454
123.566
448.244
301.275
228.914
205.591
3649.39
572.094
1082.73
148.181
159.513
108.025
3102.95
1442.79
8088.86
787.115
219.087
220.655
278.414
305.305
324.903
202.122
110.757
316.237
258.542
185.349
196.033
242.313
133.352
245.244
301.155
247.05
621.065
326.159
295.176
219.175
2.8373
248.95
289.791
59.8886
237.64
22.5303
235.849
263.817
24.7253
189.859
169.532
201.698
33.9971
223.858
116.017
97.2415
128.346
134.543
122.25
185.289
49.9898
107.239
152.688
304.825
187.336
177.547
130.885
169.953
130.227
110.978
126.844
150.107
137.686
147.866
424.441
89.0251
217.991
206.255
269.935
59.7072
211.741
507.542
699.07
174.168
27.0375
111.243
171.044
14.8205
171.711
1005.22
1758.07
1643.63
3597.19
3779.66
101.762
133.441
16.0521
132.24
122.904
1481.05
980.527
3803.02
2137.49
2341.92
177.932
108.316
121.407
208.272
302.018
151.058
97.7383
189.889
246.369
295.62
267.514
267.333
244.44
390.66
413.16
359.786
996.156
238.857
222.471
225.177
79.7313
268.515
230.578
134.18
239.202
51.0225
230.623
323.31
90.7894
252.854
350.747
245.503
120.373
324.995
307.252
125.349
228.631
134.307
320.859
252.575
89.023
154.121
251.317
361.471
471.261
294.172
203.989
333.867
313.125
154.32
125.295
124.124
103.347
73.9975
364.856
196.908
216.092
389.027
758.809
170.423
669.831
897.874
3512.45
291.545
124.839
273.538
151.69
33.6232
96.1233
6309.21
1357.58
6015.46
6386.64
477.893
299.091
260.225
63.8497
93.8626
140.567
1483.71
4281.77
6731.37
727.942
6212.78
264.565
225.792
319.34
396.796
302.819
224.888
166.315
338.652
436.487
755.775
466.46
641.659
1939.07
3677.93
2930.65
2807.91
4398.65
238.772
488.559
154.375
92.7512
829.385
1100.8
297.835
341.032
27.7431
950.924
2184.86
86.6915
2492.8
586.504
2324.49
74.5585
351.349
135.454
1995.42
1855.26
1245.35
134.599
472.773
2231.06
2323.26
4621.66
1521.51
6556.24
501.774
2391.45
181.329
179
58.9564
1877.97
1129.02
1281.8
607.335
2414.08
173.301
3160.19
9127.81
9307.98
9860.44
14323.1
6910.5
11243.8
242.017
158.888
95.8955
1721.98
1859.79
1487.64
6186.03
354.442
11012.8
8738.24
218.555
75.4026
273.755
1549.81
1396.31
2358.3
325.847
8676.75
8914.22
349.142
10606.8
662.864
3621.55
42.5834
983.144
718.441
4220.6
5785.47
6333.43
10476.2
13541.8
13892.2
10097
17077.9
16194.7
16338.3
12469.6
12365.3
2455.82
10037.2
8171.99
3433.84
13049.6
16098.2
10776.3
11339.8
5204.11
16990.1
14020.3
12250.1
12226.6
10053.1
12232.7
10050.2
11174.8
14277.5
11167.2
13954.6
15948.3
15723
13802.5
11126.6
15910.8
13093.4
11181.6
10599.8
9010.95
11504.6
13401.4
13009.6
12334.1
12350.7
16429.4
16184.6
16441.8
12071.7
17114.9
16413.6
12362
8067.09
14167
6995.55
11834.8
2822.1
11544.9
9911.47
13920.4
14067.6
10596.8
16069.1
11433.7
1806.18
2557.22
2850.48
2188.35
15231.4
13255.2
10201.1
16394.5
13051.5
1160.32
9757.98
2756.69
1812.48
1373.52
11830.5
12318.6
16841.9
12729.9
16190
15264
15510.9
11054.1
11804.5
12200.7
13819.9
9865.32
3106.77
1043.79
1717.67
382.191
334.152
12538.2
7374.76
16704.7
10229.9
6078.21
4712.33
2365.43
12905.7
10443.8
2889.71
1865.2
1730.29
1145.69
3956.84
23.456
3176.11
6612.24
6018.95
0
91.3975
47.0966
4565.28
2180.04
0
25.9637
0.186185
1499.5
0
4261.59
48.4488
6738.86
6619.6
8654.74
35.7744
45.5092
29.0394
128.01
223.536
1239.44
133.271
0
0
0
0
0
0
6174.27
3477.25
6218.88
95.0291
22.1972
32.4653
9.40139
333.14
0
0
0
5898.48
3375.64
7.25751
30.6466
10.6683
478.943
0
0
0
0
2260.19
1.96941
2683.53
1363.13
709.751
0.0579822
0.0523643
0
0
0
0
0
0
0
0
0
0
159.691
0
35.5162
0
0
0
0
0
0
0
0
0
0
0
0
0
0
0
0
0
0
0
0
0
0
0
0
0
0
0
0
0
0
0
0
0
0
0
0
0
0
0
0
0
0
0
0
0
0
0
0
0
0
0
0
0
0
0
0
0
0
0
0
0
0
0
0
0
0
0
0
0
0
0
0
0
0
0
0
0
0
0
0
0
0
0
0
0
0
0
0
0
0
0
0
0
0
0
0
0
0
0
0
0
0
0
0
0
0
0
0
0
0
0
0
0
0
0
0
0
0
0
0
0
0
0
0
0
0
0
0
0
0
0
0
0
0
0
0
0
0
0
0
0
0
0
0
0
0
0
0
0
0
0
0
0
0
0
0
0
0
0
0
0
0
0
0
0
0
0
0
0
0
0
0
0
0
0
0
0
0
0
0
0
0
0
0
0
0
0
0
0
0
0
0
0
0
0
0
0
0
0
0
0
0
0
0
0
0
0
0
0
0
0
0
0
0
0
0
0
0
0
0
0
0
0
0
0
0
0
0
0
0
0
0
0
0
0
0
0
0
0
0
0
0
0
0
0
0
0
0
0
0
0
0
0
0
0
0
0
0
0
0
0
0
0
0
0
0
0
0
0
0
0
0
0
0
0
0
0
0
0
0
0
0
0
0
0
0
0
0
0
0
0
0
0
0
0
0
0
0
0
0
0
0
0
0
0
0
0
0
0
0
0
0
0
0
0
0
0
0
0
0
0
0
0
0
0
0
0
0
0
0
0
0
0
0
0
0
0
0
0
0
0
0
0
0
0
0
0
0
0
0
0
0
0
0
0
0
0
0
0
0
0
0
0
0
0
0
0
0
0
0
0
0
0
0
0
0
0
0
0
0
0
0
0
0
0
0
0
0
0
0
0
0
0
0
0
0
0
0
0
0
0
0
0
0
0
0
0
0
0
0
0
0
0
0
0
0
0
0
0
0
0
0
0
0
0
0
0
0
0
0
0
0
0
0
0
0
0
0
0
0
0
0
0
0
0
0
0
0
0
0
0
0
0
0
0
0
0
0
0
0
0
0
0
0
0
0
0
0
0
0
0
0
0
0
0
0
0
0
0
0
0
0
0
0
0
0
0
0
0
0
0
0
0
0
0
0
0
0
0
0
0
0
0
0
0
0
0
0
0
0
0
0
0
0
0
0
0
0
0
0
0
0
0
0
0
0
0
0
0
0
0
0
0
0
0
0
0
0
0
0
0
0
0
0
0
0
0
0
0
0
0
0
0
0
0
0
0
0
0
0
0
0
0
0
0
0
0
0
0
0
0
0
0
0
0
0
0
0
0
0
0
0
0
0
0
0
0
0
0
0
0
0
0
0
0
0
0
0
0
0
0
0
0
0
0
0
0
0
0
0
0
0
0
0
0
0
0
0
0
0
0
0
0
0
0
0
0
0
0
0
0
0
0
0
0
0
0
0
0
0
0
0
0
0
0
0
0
0
0
0
0
0
0
0
0
0
0
0
0
0
0
0
0
0
0
0
0
0
0
0
0
0
0
0
0
0
0
0
0
0
0
0
0
0
0
0
0
0
0
0
0
0
0
0
0
0
0
0
0
0
0
0
0
0
0
0
0
0
0
0
0
0
0
0
0
0
0
0
0
0
0
0
0
0
0
0
0
0
0
0
0
0
0
0
0
0
0
0
0
0
0
0
0
0
0
0
0
0
0
0
0
0
0
0
0
0
0
0
0
0
0
0
0
0
0
0
0
0
0
0
0
0
0
0
0
0
0
0
0
0
0
0
0
0
0
0
0
0
0
0
0
0
0
0
0
0
0
0
0
0
0
0
0
0
0
0
0
0
0
0
0
0
0
0
0
0
0
0
0
0
0
0
0
0
0
0
0
0
0
0
0
0
0
0
0
0
0
0
0
0
0
0
0
0
0
0
0
0
0
0
0
0
0
0
0
0
0
0
0
0
0
0
0
0
0
0
0
0
0
0
0
0
0
0
0
0
0
0
0
0
0
0
0
0
0
0
0
0
0
0
0
0
0
0
0
0
0
0
0
0
0
0
0
0
0
0
0
0
0
0
0
0
0
0
0
0
0
0
0
0
0
0
0
0
0
0
0
0
0
0
0
0
0
0
0
0
0
0
0
0
0
0
0
0
0
0
0
0
0
0
0
0
0
0
0
0
0
0
0
0
0
0
0
0
0
0
0
0
0
0
0
0
0
0
0
0
0
0
0
0
0
0
0
0
0
0
0
0
0
0
0
0
0
0
0
0
0
0
0
0
0
0
0
0
0
0
0
0
0
0
0
0
0
0
0
0
0
0
0
0
0
0
0
0
0
0
0
0
0
0
0
0
0
0
0
0
0
0
0
0
0
0
0
0
0
0
0
0
0
0
0
0
0
0
0
0
0
0
0
0
0
0
0
0
0
0
0
0
0
0
0
0
0
0
0
0
0
0
0
0
0
0
0
0
0
0
0
0
0
0
0
0
0
0
0
0
0
0
0
0
0
0
0
0
0
0
0
0
0
0
0
0
0
0
0
0
0
0
0
0
0
0
0
0
0
0
0
0
0
0
0
0
0
0
0
0
0
0
0
0
0
0
0
0
0
0
0
0
0
0
0
0
0
0
0
0
0
0
0
0
0
0
0
0
0
0
0
0
0
0
0
0
0
0
0
0
0
0
0
0
0
0
0
0
0
0
0
0
0
0
0
0
0
0
0
0
0
0
0
0
0
0
0
0
0
0
0
0
0
0
0
0
0
0
0
0
0
0
0
0
0
0
0
0
0
0
0
0
0
0
0
0
0
0
0
0
0
0
0
0
0
0
0
0
0
0
0
0
0
0
0
0
0
0
0
0
0
0
0
0
0
0
0
0
0
0
0
0
0
0
0
0
0
0
0
0
0
0
0
0
0
0
0
0
0
0
0
0
0
0
0
0
0
0
0
0
0
0
0
0
0
0
0
0
0
0
0
0
0
0
0
0
0
0
0
0
0
0
0
0
0
0
0
0
0
0
0
0
0
0
0
0
0
0
0
0
0
0
0
0
0
0
0
0
0
0
0
0
0
0
0
0
0
0
0
0
0
0
0
0
0
0
0
0
0
0
0
0
0
0
0
0
0
0
0
0
0
0
0
0
0
0
0
0
0
0
0
0
0
0
0
0
0
0
0
0
0
0
0
0
0
0
0
0
0
0
0
0
0
0
0
0
0
0
0
0
0
0
0
0
0
0
0
0
0
0
0
0
0
0
0
0
0
0
0
0
0
0
0
0
0
0
0
0
0
0
0
0
0
0
0
0
0
0
0
0
0
0
0
0
0
0
0
0
0
0
0
0
0
0
0
0
0
0
0
0
0
0
0
0
0
0
0
0
0
0
0
0
0
0
0
0
0
0
0
0
0
0
0
0
0
0
0
0
0
0
0
0
0
0
0
0
0
0
0
0
0
0
0
0
0
0
0
0
0
0
0
0
0
0
0
0
0
0
0
0
0
0
0
0
0
0
0
0
0
0
0
0
0
0
0
0
0
0
0
0
0
0
0
0
0
0
0
0
0
0
0
0
0
0
0
0
0
0
0
0
0
0
0
0
0
0
0
0
0
0
0
0
0
0
0
0
0
0
0
0
0
0
0
0
0
0
0
0
0
0
0
0
0
0
0
0
0
0
0
0
0
0
0
0
0
0
0
0
0
0
0
0
0
0
0
0
0
0
0
0
0
0
0
0
0
0
0
0
0
0
0
0
0
0
0
0
0
0
0
0
0
0
0
0
0
0
0
0
0
0
0
0
0
0
0
0
0
0
0
0
0
0
0
0
0
0
0
0
0
0
0
0
0
0
0
0
0
0
0
0
0
0
0
0
0
0
0
0
0
0
0
0
0
0
0
0
0
0
0
0
0
0
0
0
0
0
0
0
0
0
0
0
0
0
0
0
0
0
0
0
0
0
0
0
0
0
0
0
0
0
0
0
0
0
0
0
0
0
0
0
0
0
0
0
0
0
0
0
0
0
0
0
0
0
0
0
0
0
0
0
0
0
0
0
0
0
0
0
0
0
0
0
0
0
0
0
0
0
0
0
0
0
0
0
0
0
0
0
0
0
0
0
0
0
0
0
0
0
0
0
0
0
0
0
0
0
0
0
0
0
0
0
0
0
0
0
0
0
0
0
0
0
0
0
0
0
0
0
0
0
0
0
0
0
0
0
0
0
0
0
0
0
0
0
0
0
0
0
0
0
0
0
0
0
0
0
0
0
0
0
0
0
0
0
0
0
0
0
0
0
0
0
0
0
0
0
0
0
0
0
0
0
0
0
0
0
0
0
0
0
0
0
0
0
0
0
0
0
0
0
0
0
0
0
0
0
0
0
0
0
0
0
0
0
0
0
0
0
0
0
0
0
0
0
0
0
0
0
0
0
0
0
0
0
0
0
0
0
0
0
0
0
0
0
0
0
0
0
0
0
0
0
0
0
0
0
0
0
0
0
0
0
0
0
0
0
0
0
0
0
0
0
0
0
0
0
0
0
0
0
0
0
0
0
0
0
0
0
0
0
0
0
0
0
0
0
0
0
0
0
0
0
0
0
0
0
0
0
0
0
0
0
0
0
0
0
0
0
0
0
0
0
0
0
0
0
0
0
0
0
0
0
0
0
0
0
0
0
0
0
0
0
0
0
0
0
0
0
0
0
0
0
0
0
0
0
0
0
0
0
0
0
0
0
0
0
0
0
0
0
0
0
0
0
0
0
0
0
0
0
0
0
0
0
0
0
0
0
0
0
0
0
0
0
0
0
0
0
0
0
0
0
0
0
0
0
0
0
0
0
0
0
0
0
0
0
0
0
0
0
0
0
0
0
0
0
0
0
0
0
0
0
0
0
0
0
0
0
0
0
0
0
0
0
0
0
0
0
0
0
0
0
0
0
0
0
0
0
0
0
0
0
0
0
0
0
0
0
0
0
0
0
0
0
0
0
0
0
0
0
0
0
0
0
0
0
0
0
0
0
0
0
0
0
0
0
0
0
0
0
0
0
0
0
0
0
0
0
0
0
0
0
0
0
0
0
0
0
0
0
0
0
0
0
0
0
0
0
0
0
0
0
0
0
0
0
0
0
0
0
0
0
0
0
0
0
0
0
0
0
0
0
0
0
0
0
0
0
0
0
0
0
0
0
0
0
0
0
0
0
0
0
0
0
0
0
0
0
0
0
0
0
0
0
0
0
0
0
0
0
0
0
0
0
0
0
0
0
0
0
0
0
0
0
0
0
0
0
0
0
0
0
0
0
0
0
0
0
0
0
0
0
0
0
0
0
0
0
0
0
0
0
0
0
0
0
0
0
0
0
0
0
0
0
0
0
0
0
0
0
0
0
0
0
0
0
0
0
0
0
0
0
0
0
0
0
0
0
0
0
0
0
0
0
0
0
0
0
0
0
0
0
0
0
0
0
0
0
0
0
0
0
0
0
0
0
0
0
0
0
0
0
0
0
0
0
0
0
0
0
0
0
0
0
0
0
0
0
0
0
0
0
0
0
0
0
0
0
0
0
0
0
0
0
0
0
0
0
0
0
0
0
0
0
0
0
0
0
0
0
0
0
0
0
0
0
0
0
0
0
0
0
0
0
0
0
0
0
0
0
0
0
0
0
0
0
0
0
0
0
0
0
0
0
0
0
0
0
0
0
0
0
0
0
0
0
0
0
0
0
0
0
0
0
0
0
0
0
0
0
0
0
0
0
0
0
0
0
0
0
0
0
0
0
0
0
0
0
0
0
0
0
0
0
0
0
0
0
0
0
0
0
0
0
0
0
0
0
0
0
0
0
0
0
0
0
0
0
0
0
0
0
0
0
0
0
0
0
0
0
0
0
0
0
0
0
0
0
0
0
0
0
0
0
0
0
0
0
0
0
0
0
0
0
0
0
0
0
0
0
0
0
0
0
0
0
0
0
0
0
0
0
0
0
0
0
0
0
0
0
0
0
0
0
0
0
0
0
0
0
0
0
0
0
0
0
0
0
0
0
0
0
0
0
0
0
0
0
0
0
0
0
0
0
0
0
0
0
0
0
0
0
0
0
0
0
0
0
0
0
0
0
0
0
0
0
0
0
0
0
0
0
0
0
0
0
0
0
0
0
0
0
0
0
0
0
0
0
0
0
0
0
0
0
0
0
0
0
0
0
0
0
0
0
0
0
0
0
0
0
0
0
0
0
0
0
0
0
0
0
0
0
0
0
0
0
0
0
0
0
0
0
0
0
0
0
0
0
0
0
0
0
0
0
0
0
0
0
0
0
0
0
0
0
0
0
0
0
0
0
0
0
0
0
0
0
0
0
0
0
0
0
0
0
0
0
0
0
0
0
0
0
0
0
0
0
0
0
0
0
0
0
0
0
0
0
0
0
0
0
0
0
0
0
0
0
0
0
0
0
0
0
0
0
0
0
0
0
0
0
0
0
0
0
0
0
0
0
0
0
0
0
0
0
0
0
0
0
0
0
0
0
0
0
0
0
0
0
0
0
0
0
0
0
0
0
0
0
0
0
0
0
0
0
0
0
0
0
0
0
0
0
0
0
0
0
0
0
0
0
0
0
0
0
0
0
0
0
0
0
0
0
0
0
0
0
0
0
0
0
0
0
0
0
0
0
0
0
0
0
0
0
0
0
0
0
0
0
0
0
0
0
0
0
0
0
0
0
0
0
0
0
0
0
0
0
0
0
0
0
0
0
0
0
0
0
0
0
0
0
0
0
0
0
0
0
0
0
0
0
0
0
0
0
0
0
0
0
0
0
0
0
0
0
0
0
0
0
0
0
0
0
0
0
0
0
0
0
0
0
0
0
0
0
0
0
0
0
0
0
0
0
0
0
0
0
0
0
0
0
0
0
0
0
0
0
0
0
0
0
0
0
0
0
0
0
0
0
0
0
0
0
0
0
0
0
0
0
0
0
0
0
0
0
0
0
0
0
0
0
0
0
0
0
0
0
0
0
0
0
0
0
0
0
0
0
0
0
0
0
0
0
0
0
0
0
0
0
0
0
0
0
0
0
0
0
0
0
0
0
0
0
0
0
0
0
0
0
0
0
0
0
0
0
0
0
0
0
0
0
0
0
0
0
0
0
0
0
0
0
0
0
0
0
0
0
0
0
0
0
0
0
0
0
0
0
0
0
0
0
0
0
0
0
0
0
0
0
0
0
0
0
0
0
0
0
0
0
0
0
0
0
0
0
0
0
0
0
0
0
0
0
0
0
0
0
0
0
0
0
0
0
0
0
0
0
0
0
0
0
0
0
0
0
0
0
0
0
0
0
0
0
0
0
0
0
0
0
0
0
0
0
0
0
0
0
0
0
0
0
0
0
0
0
0
0
0
0
0
0
0
0
0
0
0
0
0
0
0
0
0
0
0
0
0
0
0
0
0
0
0
0
0
0
0
0
0
0
0
0
0
0
0
0
0
0
0
0
0
0
0
0
0
0
0
0
0
0
0
0
0
0
0
0
0
0
0
0
0
0
0
0
0
0
0
0
0
0
0
0
0
0
0
0
0
0
0
0
0
0
0
0
0
0
0
0
0
0
0
0
0
0
0
0
0
0
0
0
0
0
0
0
0
0
0
0
0
0
0
0
0
0
0
0
0
0
0
0
0
0
0
0
0
0
0
0
0
0
0
0
0
0
0
0
0
0
0
0
0
0
0
0
0
0
0
0
0
0
0
0
0
0
0
0
0
0
0
0
0
0
0
0
0
0
0
0
0
0
0
0
0
0
0
0
0
0
0
0
0
0
0
0
0
0
0
0
0
0
0
0
0
0
0
0
0
0
0
0
0
0
0
0
0
0
0
0
0
0
0
0
0
0
0
0
0
0
0
0
0
0
0
0
0
0
0
0
0
0
0
0
0
0
0
0
0
0
0
0
0
0
0
0
0
0
0
0
0
0
0
0
0
0
0
0
0
0
0
0
0
0
0
0
0
0
0
0
0
0
0
0
0
0
0
0
0
0
0
0
0
0
0
0
0
0
0
0
0
0
0
0
0
0
0
0
0
0
0
0
0
0
0
0
0
0
0
0
0
0
0
0
0
0
0
0
0
0
0
0
0
0
0
0
0
0
0
0
0
0
0
0
0
0
0
0
0
0
0
0
0
0
0
0
0
0
0
0
0
0
0
0
0
0
0
0
0
0
0
0
0
0
0
0
0
0
0
0
0
0
0
0
0
0
0
0
0
0
0
0
0
0
0
0
0
0
0
0
0
0
0
0
0
0
0
0
0
0
0
0
0
0
0
0
0
0
0
0
0
0
0
0
0
0
0
0
0
0
0
0
0
0
0
0
0
0
0
0
0
0
0
0
0
0
0
0
0
0
0
0
0
0
0
0
0
0
0
0
0
0
0
0
0
0
0
0
0
0
0
0
0
0
0
0
0
0
0
0
0
0
0
0
0
0
0
0
0
0
0
0
0
0
0
0
0
0
0
0
0
0
0
0
0
0
0
0
0
0
0
0
0
0
0
0
0
0
0
0
0
0
0
0
0
0
0
0
0
0
0
0
0
0
0
0
0
0
0
0
0
0
0
0
0
0
0
0
0
0
0
0
0
0
0
0
0
0
0
0
0
0
0
0
0
0
0
0
0
0
0
0
0
0
0
0
0
0
0
0
0
0
0
0
0
0
0
0
0
0
0
0
0
0
0
0
0
0
0
0
0
0
0
0
0
0
0
0
0
0
0
0
0
0
0
0
0
0
0
0
0
0
0
0
0
0
0
0
0
0
0
0
0
0
0
0
0
0
0
0
0
0
0
0
0
0
0
0
0
0
0
0
0
0
0
0
0
0
0
0
0
0
0
0
0
0
0
0
0
0
0
0
0
0
0
0
0
0
0
0
0
0
0
0
0
0
0
0
0
0
0
0
0
0
0
0
0
0
0
0
0
0
0
0
0
0
0
0
0
0
0
0
0
0
0
0
0
0
0
0
0
0
0
0
0
0
0
0
0
0
0
0
0
0
0
0
0
0
0
0
0
0
0
0
0
0
0
0
0
0
0
0
0
0
0
0
0
0
0
0
0
0
0
0
0
0
0
0
0
0
0
0
0
0
0
0
0
0
0
0
0
0
0
0
0
0
0
0
0
0
0
0
0
0
0
0
0
0
0
0
0
0
0
0
0
0
0
0
0
0
0
0
0
0
0
0
0
0
0
0
0
0
0
0
0
0
0
0
0
0
0
0
0
0
0
0
0
0
0
0
0
0
0
0
0
0
0
0
0
0
0
0
0
0
0
0
0
0
0
0
0
0
0
0
0
0
0
0
0
0
0
0
0
0
0
0
0
0
0
0
0
0
0
0
0
0
0
0
0
0
0
0
0
0
0
0
0
0
0
0
0
0
0
0
0
0
0
0
0
0
0
0
0
0
0
0
0
0
0
0
0
0
0
0
0
0
0
0
0
0
0
0
0
0
0
0
0
0
0
0
0
0
0
0
0
0
0
0
0
0
0
0
0
0
0
0
0
0
0
0
0
0
0
0
0
0
0
0
0
0
0
0
0
0
0
0
0
0
0
0
0
0
0
0
0
0
0
0
0
0
0
0
0
0
0
0
0
0
0
0
0
0
0
0
0
0
0
0
0
0
0
0
0
0
0
0
0
0
0
0
0
0
0
0
0
0
0
0
0
0
0
0
0
0
0
0
0
0
0
0
0
0
0
0
0
0
0
0
0
0
0
0
0
0
0
0
0
0
0
0
0
0
0
0
0
0
0
0
0
0
0
0
0
0
0
0
0
0
0
0
0
0
0
0
0
0
0
0
0
0
0
0
0
0
0
0
0
0
0
0
0
0
0
0
0
0
0
0
0
0
0
0
0
0
0
0
0
0
0
0
0
0
0
0
0
0
0
0
0
0
0
0
0
0
0
0
0
0
0
0
0
0
0
0
0
0
0
0
0
0
0
0
0
0
0
0
0
0
0
0
0
0
0
0
0
0
0
0
0
0
0
0
0
0
0
0
0
0
0
0
0
0
0
0
0
0
0
0
0
0
0
0
0
0
0
0
0
0
0
0
0
0
0
0
0
0
0
0
0
0
0
0
0
0
0
0
0
0
0
0
0
0
0
0
0
0
0
0
0
0
0
0
0
0
0
0
0
0
0
0
0
0
0
0
0
0
0
0
0
0
0
0
0
0
0
0
0
0
0
0
0
0
0
0
0
0
0
0
0
0
0
0
0
0
0
0
0
0
0
0
0
0
0
0
0
0
0
0
0
0
0
0
0
0
0
0
0
0
0
0
0
0
0
0
0
0
0
0
0
0
0
0
0
0
0
0
0
0
0
0
0
0
0
0
0
0
0
0
0
0
0
0
0
0
0
0
0
0
0
0
0
0
0
0
0
0
0
0
0
0
0
0
0
0
0
0
0
0
0
0
0
0
0
0
0
0
0
0
0
0
0
0
0
0
0
0
0
0
0
0
0
0
0
0
0
0
0
0
0
0
0
0
0
0
0
0
0
0
0
0
0
0
0
0
0
0
0
0
0
0
0
0
0
0
0
0
0
0
0
0
0
0
0
0
0
0
0
0
0
0
0
0
0
0
0
0
0
0
0
0
0
0
0
0
0
0
0
0
0
0
0
0
0
0
0
0
0
0
0
0
0
0
0
0
0
0
0
0
0
0
0
0
0
0
0
0
0
0
0
0
0
0
0
0
0
0
0
0
0
0
0
0
0
0
0
0
0
0
0
0
0
0
0
0
0
0
0
0
0
0
0
0
0
0
0
0
0
0
0
0
0
0
0
0
0
0
0
0
0
0
0
0
0
0
0
0
0
0
0
0
0
0
0
0
0
0
0
0
0
0
0
0
0
0
0
0
0
0
0
0
0
0
0
0
0
0
0
0
0
0
0
0
0
0
0
0
0
0
0
0
0
0
0
0
0
0
0
0
0
0
0
0
0
0
0
0
0
0
0
0
0
0
0
0
0
0
0
0
0
0
0
0
0
0
0
0
0
0
0
0
0
0
0
0
0
0
0
0
0
0
0
0
0
0
0
0
0
0
0
0
0
0
0
0
0
0
0
0
0
0
0
0
0
0
0
0
0
0
0
0
0
0
0
0
0
0
0
0
0
0
0
0
0
0
0
0
0
0
0
0
0
0
0
0
0
0
0
0
0
0
0
0
0
0
0
0
0
0
0
0
0
0
0
0
0
0
0
0
0
0
0
0
0
0
0
0
0
0
0
0
0
0
0
0
0
0
0
0
0
0
0
0
0
0
0
0
0
0
0
0
0
0
0
0
0
0
0
0
0
0
0
0
0
0
0
0
0
0
0
0
0
0
0
0
0
0
0
0
0
0
0
0
0
0
0
0
0
0
0
0
0
0
0
0
0
0
0
0
0
0
0
0
0
0
0
0
0
0
0
0
0
0
0
0
0
0
0
0
0
0
0
0
0
0
0
0
0
0
0
0
0
0
0
0
0
0
0
0
0
0
0
0
0
0
0
0
0
0
0
0
0
0
0
0
0
0
0
0
0
0
0
0
0
0
0
0
0
0
0
0
0
0
0
0
0
0
0
0
0
0
0
0
0
0
0
0
0
0
0
0
0
0
0
0
0
0
0
0
0
0
0
0
0
0
0
0
0
0
0
0
0
0
0
0
0
0
0
0
0
0
0
0
0
0
0
0
0
0
0
0
0
0
0
0
0
0
0
0
0
0
0
0
0
0
0
0
0
0
0
0
0
0
0
0
0
0
0
0
0
0
0
0
0
0
0
0
0
0
0
0
0
0
0
0
0
0
0
0
0
0
0
0
0
0
0
0
0
0
0
0
0
0
0
0
0
0
0
0
0
0
0
0
0
0
0
0
0
0
0
0
0
0
0
0
0
0
0
0
0
0
0
0
0
0
0
0
0
0
0
0
0
0
0
0
0
0
0
0
0
0
0
0
0
0
0
0
0
0
0
0
0
0
0
0
0
0
0
0
0
0
0
0
0
0
0
0
0
18.6948
0
0
0
0
0
0
0
0
0
0
0
0
0
22.7643
0
0
0
0
0
0
0
0
3.59072
0
245.432
238.324
239.775
248.1
366.103
278.348
506.213
199.933
199.481
184.377
227.118
203.031
420.16
367.869
246.513
277.482
353.763
143.784
237.136
256.211
458.192
219.342
151.85
168.861
222.587
401.47
155.55
284.085
145.062
198.818
267.118
55.1239
50.5196
71.3958
12.7956
111.429
189.778
180.02
25.2078
38.462
43.3372
32.2975
127.812
151.59
226.88
106.721
79.4347
63.4844
72.0448
202.019
116.308
159.922
37.2508
35.3461
52.8624
43.749
69.3776
47.3345
188.084
88.6379
71.3147
146.234
134.311
53.0331
117.368
94.6577
48.1274
39.1932
97.2411
77.6122
44.4916
58.2357
132.299
92.4855
98.0798
63.0907
173.204
126.058
34.9343
76.4443
26.1547
116.999
43.7885
90.5528
3.0963
0.122357
24.0157
20.7077
0.53572
-1.6623e-14
-1.36939e-16
10.1681
32.2386
41.5543
13.5338
5.2665
-1.41392e-16
0
0
0
10.8516
11.5255
9.72686
11.1363
-3.96575e-14
9.19303
0.237907
24.264
33.6181
-2.24522e-15
11.5961
-1.48154e-16
73.9202
103.729
185.406
187.808
112.025
59.0161
4.11858
51.9525
133.771
110.144
138.945
97.0821
8.8301
28.8769
96.4013
41.5756
208.866
167.372
71.6331
110.257
21.6489
190.669
76.7441
131.043
82.9481
11.4564
130.282
14.8484
175.183
115.208
5.33397
159.604
165.036
155.601
75.7252
157.264
15.7288
72.352
205.066
143.468
80.9815
85.7984
119.055
190.867
24.3446
180.545
141.633
182.041
93.2529
29.3476
154.785
49.4867
189.832
65.0584
176.889
137.107
313.779
308.427
276.48
80.378
49.397
50.6603
120.431
236.662
283.857
265.221
42.1519
78.1669
70.6341
114.153
289.818
314.832
266.195
105.489
37.6311
59.7071
82.4685
249.914
265.183
285.853
41.2115
81.5629
48.2069
71.1137
125.643
132.732
53.534
74.8247
132.062
133.642
142.474
84.4103
58.6754
58.4042
124.453
80.0832
162.2
122.829
135.558
126.13
97.5001
92.4968
143.334
150.57
179.424
44.578
82.5811
69.6369
132.04
170.14
131.521
123.385
280.3
239.103
319.233
60.0843
40.5124
60.0797
65.0577
271.56
302.084
330.227
54.6648
109.319
33.7821
69.2413
164.015
201.196
221.236
62.21
73.4619
62.7453
79.5621
275.41
292.369
311.763
23.0826
58.6788
47.4181
23.6064
89.6
16.0773
59.8453
629.699
550.476
393.458
742.326
83.3386
47.8657
129.016
1531.18
4610.83
2186.1
5436.01
28.7343
29.9195
7.30794
784.041
366.654
599.241
621.062
21.4084
81.9453
95.0545
763.369
1026.37
1900.86
2572.21
15215.9
10777.8
13479.7
16399.9
15932.2
14855.6
14980.8
17093.4
15016.1
16705.3
15470.8
15362.8
15117.3
15884.3
11140.2
14811.5
12977.3
16200.2
14945.3
16474.1
14671.8
14429.4
17326
15993.8
15709
14727.7
16073.2
15235.2
7234.24
8068.81
7055.92
176.12
193.236
180.864
192.92
2979.29
5798.52
3002.91
111.167
0.62846
84.059
0.566773
8522.52
7923.35
7523.99
162.688
226.823
220.233
188.849
6497.8
5431.88
5216.54
150.269
146.494
53.1002
62.9367
0
0
0
0
0
0
0
0
0
0
0
0
0
0
0
0
0
0
0
0
0
0
0
0
0
0
0
0
0
0
0
0
0
0
0
0
0
0
0
0
0
0
0
0
0
0
0
0
0
0
0
0
0
0
0
0
0
0
0
0
0
0
0
0
0
0
0
0
0
0
0
0
0
0
0
0
0
0
0
0
0
0
0
0
0
0
0
0
0
0
0
0
0
0
0
0
0
0
0
0
0
0
0
0
0
0
0
0
0
0
0
0
0
0
0
0
0
0
0
0
0
0
0
0
0
0
0
0
0
0
0
0
0
0
0
0
0
0
0
0
0
0
0
0
0
0
0
0
0
0
0
0
0
0
0
0
0
0
0
0
0
0
0
0
0
0
0
0
0
0
0
0
0
0
0
0
0
0
0
0
0
0
0
0
0
0
0
0
0
0
0
0
0
0
0
0
0
0
0
0
0
0
0
0
0
0
0
0
0
0
0
0
0
0
0
0
0
0
0
0
0
0
0
0
0
0
0
0
0
0
0
0
0
0
0
0
0
0
0
0
0
0
0
0
0
0
0
0
0
0
0
0
0
0
0
0
0