/*--------------------------------*- C++ -*----------------------------------*\
| =========                 |                                                 |
| \\      /  F ield         | OpenFOAM: The Open Source CFD Toolbox           |
|  \\    /   O peration     | Version:  5.x                                   |
|   \\  /    A nd           | Web:      www.OpenFOAM.org                      |
|    \\/     M anipulation  |                                                 |
\*---------------------------------------------------------------------------*/
FoamFile
{
    version     2.0;
    format      ascii;
    class       volScalarField;
    location    "0.05";
    object      p;
}
// * * * * * * * * * * * * * * * * * * * * * * * * * * * * * * * * * * * * * //

dimensions      [0 2 -2 0 0 0 0];

internalField   nonuniform List<scalar> 
10571
(
351.968
352.158
351.414
351.301
351.741
351.378
351.14
351.073
351.175
351.923
351.883
351.272
351.054
350.98
351.074
351.73
351.702
351.137
351.028
351.203
351.97
351.793
351.532
351.933
351.104
350.592
350.79
350.878
350.843
350.729
351.093
350.89
350.748
351.159
351.069
350.84
350.878
350.848
350.597
350.993
350.788
350.81
350.523
350.639
350.658
351.07
351.088
350.71
349.316
349.217
349.695
349.77
349.458
349.497
349.938
349.87
349.889
349.646
349.218
349.699
349.823
350.011
349.898
349.909
349.299
349.694
349.659
350.016
349.505
349.654
349.864
349.616
347.452
347.427
347.254
347.264
347.393
347.445
347.503
347.786
347.829
347.846
347.449
347.294
347.765
348.017
348.051
347.863
347.379
347.666
347.908
347.997
347.805
347.826
347.975
347.94
346.544
346.722
346.689
346.648
346.757
346.653
346.105
346.393
346.362
346.686
346.559
346.601
346.398
346.521
346.505
346.592
346.82
346.43
346.561
346.761
346.805
346.873
346.753
346.84
346.108
346.173
346.11
346.066
346.254
346.09
345.596
345.742
345.719
346.093
345.758
346.116
346.074
345.729
345.8
345.853
346.451
346.159
346.329
345.849
346.048
346.166
346.223
346.146
346.1
346.344
345.561
345.557
345.875
345.864
345.785
345.883
345.202
345.326
345.462
345.817
345.789
345.57
345.788
345.271
345.382
345.601
345.815
345.912
345.759
345.444
345.693
345.973
345.911
345.911
345.614
345.806
345.893
344.945
344.766
344.991
345.33
345.094
345.063
344.814
344.971
345.368
345.675
346.029
344.932
345.309
344.9
345.055
345.554
345.77
346.03
345.021
345.134
345.452
345.697
345.912
346.094
345.247
345.308
345.568
344.173
344.138
344.112
344.185
344.411
344.117
344.174
344.473
345.232
345.323
345.958
344.141
344.235
344.453
344.945
345.505
345.623
346.142
344.354
344.884
345.396
345.59
345.54
344.727
345.055
345.25
343.758
343.547
343.624
343.772
343.974
343.588
343.31
343.535
344.929
344.398
343.746
343.771
343.687
344.553
345.872
344.914
343.859
344.294
345.323
345.531
345.138
344.352
344.833
345.222
343.416
343.24
343.191
343.247
343.524
343.166
343.105
343.447
345.164
337.589
343.31
343.181
343.79
346.151
346.457
312.216
343.46
344.957
347.302
346.062
342.203
344.029
344.977
345.244
343.2
342.916
343.052
343.032
342.685
343.019
336.826
334.499
321.823
284.323
343.088
343.143
334.58
341.407
303.538
227.931
342.832
335.578
333.33
347.79
301.63
341.696
344.021
330.504
318.161
324.684
342.628
344.768
265.873
342.564
157.984
83.1813
54.9881
89.8256
321.401
346.331
94.2036
47.6399
42.3983
85.4448
318.934
63.5721
40.4354
63.0025
51.3233
148.876
75.576
59.1008
46.1604
46.5726
48.5371
47.2502
45.8289
47.8184
51.8797
49.0678
45.0683
45.4006
47.55
47.4074
49.6684
46.2021
43.3903
44.7349
45.8858
46.6673
43.8947
44.0658
45.2669
44.2538
44.249
44.3488
46.8695
46.7445
47.1584
46.8712
46.2935
47.2616
47.4317
47.2741
47.4514
47.6617
46.9847
47.1337
47.5399
46.7987
46.4988
47.4627
46.9753
47.2951
46.753
45.8311
46.5499
47.3808
46.0645
46.1283
46.6813
47.3831
47.2296
47.0673
47.1055
47.3345
48.6231
47.682
47.336
47.056
46.9255
47.247
48.0814
46.9887
46.6767
45.6809
47.3601
47.477
46.9451
46.3442
46.1986
47.3693
46.9221
46.5859
47.2514
47.5353
47.4292
47.2621
47.1795
47.4985
47.9659
47.2368
47.0049
46.1065
47.1934
47.3941
47.6987
46.9128
46.3563
44.322
47.4676
47.305
46.9731
46.6558
46.0667
47.3861
47.0884
46.9241
47.847
47.5306
47.4576
47.3556
47.2344
47.5233
47.5488
47.1589
46.9311
46.3852
47.9654
47.4573
47.5659
47.1556
46.5179
45.8563
47.4974
47.3504
47.1992
46.9621
46.5691
47.4436
47.2458
47.16
47.5249
47.5302
47.4588
47.3412
47.3432
47.5093
47.5009
47.3344
47.2634
47.0809
47.6519
47.4468
47.662
47.4089
47.4317
48.3976
47.5194
47.4993
47.4401
47.3337
47.4666
47.5172
47.4262
47.3965
47.5287
47.5897
47.5311
47.4225
47.5169
47.563
47.5499
47.4765
47.6006
48.0532
47.6236
47.5339
47.7024
47.5815
47.9322
50.9384
47.5858
47.632
47.6111
47.6755
48.161
47.6052
47.5815
47.6064
47.667
47.6993
47.6663
47.5916
47.6885
47.6779
47.6945
47.6536
47.7161
48.1798
47.7247
47.6674
47.7951
47.7937
47.8565
49.3421
47.7072
47.7612
47.7432
47.8027
48.2153
47.7117
47.7129
47.7574
47.8162
47.8223
47.8131
47.7917
47.8323
47.8165
47.8646
47.8662
47.8143
48.0995
47.8579
47.8229
47.9199
47.9381
47.9468
48.457
47.8438
47.8795
47.8874
47.9127
48.1184
47.8332
47.8302
47.8738
47.9162
47.9127
47.9155
47.9194
47.9295
47.9241
47.9566
47.9885
47.9239
48.0612
47.9545
47.9509
48.0178
48.0297
48.0154
48.1753
47.9459
47.9527
47.9874
47.9818
48.0797
47.9239
47.9261
47.9578
47.9688
47.964
47.9673
47.977
47.9802
47.9767
47.9989
48.0268
47.9822
48.049
47.9967
48.004
48.0494
48.0644
48.0393
48.0926
47.9915
47.9918
48.0166
48.0199
48.0631
47.9762
47.9819
48.0018
47.9934
47.9894
47.992
48.0002
48.002
47.9991
48.0123
48.0351
48.0011
48.0408
48.0112
48.0183
48.0498
48.0633
48.0419
48.0622
48.0081
48.0076
48.0249
48.0288
48.0499
48.0008
48.0066
48.0176
48.0037
48.0006
48.0024
48.0082
48.0096
48.0069
48.0139
48.0304
48.0111
48.0325
48.0141
48.0188
48.0391
48.0491
48.0344
48.0443
48.0127
48.0119
48.0238
48.0277
48.0387
48.0102
48.0151
48.0209
48.0065
48.0042
48.0053
48.0093
48.0105
48.008
48.0114
48.0225
48.0115
48.0241
48.0123
48.0151
48.0274
48.0339
48.0252
48.0309
48.0118
48.0111
48.019
48.0225
48.0283
48.0117
48.0154
48.0187
48.0053
48.0036
48.0043
48.007
48.008
48.0059
48.0073
48.0142
48.0082
48.0158
48.0085
48.0101
48.0169
48.0212
48.0164
48.0201
48.0086
48.0077
48.0127
48.0159
48.0189
48.0093
48.0119
48.0139
48.0019
48.0008
48.0012
48.003
48.0037
48.0021
48.0023
48.0064
48.0033
48.0083
48.0037
48.0047
48.0082
48.0105
48.0083
48.011
48.004
48.0028
48.0064
48.0089
48.0105
48.0048
48.0067
48.0079
47.9974
47.9966
47.9968
47.998
47.9985
47.9973
47.9968
47.9993
47.9978
48.0012
47.9983
47.9989
48.0003
48.0015
48.0009
48.0029
47.9987
47.9975
47.9999
48.002
48.0028
47.9995
48.0008
48.0015
47.9921
47.9916
47.9917
47.9924
47.9929
47.992
47.9911
47.9925
47.9919
47.9944
47.9926
47.9929
47.9932
47.9936
47.9938
47.9955
47.993
47.9918
47.9933
47.9951
47.9955
47.9937
47.9945
47.9949
47.9864
47.9861
47.9862
47.9866
47.987
47.9863
47.9852
47.9861
47.9858
47.9879
47.9867
47.9869
47.9865
47.9866
47.987
47.9886
47.987
47.9857
47.9866
47.9884
47.9886
47.9876
47.988
47.9883
47.9805
47.9803
47.9803
47.9807
47.9809
47.9805
47.9792
47.9798
47.9797
47.9815
47.9807
47.9808
47.98
47.9802
47.9803
47.9819
47.9809
47.9796
47.98
47.9818
47.9819
47.9813
47.9816
47.9817
47.9745
47.9743
47.9743
47.9746
47.9747
47.9744
47.973
47.9734
47.9733
47.9752
47.9746
47.9747
47.9735
47.9737
47.9738
47.9754
47.9747
47.9733
47.9736
47.9753
47.9754
47.975
47.9752
47.9753
47.9684
47.9683
47.9683
47.9684
47.9685
47.9683
47.9668
47.967
47.967
47.9688
47.9684
47.9685
47.9671
47.9673
47.9674
47.969
47.9685
47.967
47.9673
47.9689
47.9689
47.9687
47.9688
47.9689
47.9622
47.9621
47.9621
47.9622
47.9623
47.9621
47.9606
47.9607
47.9607
47.9624
47.9622
47.9622
47.9608
47.9608
47.961
47.9625
47.9623
47.9608
47.9609
47.9625
47.9625
47.9624
47.9625
47.9625
47.956
47.9559
47.9559
47.956
47.956
47.9559
47.9544
47.9544
47.9545
47.9561
47.956
47.956
47.9545
47.9545
47.9546
47.9562
47.956
47.9545
47.9546
47.9561
47.9561
47.9561
47.9561
47.9561
47.9497
47.9497
47.9497
47.9497
47.9497
47.9497
47.9481
47.9481
47.9482
47.9498
47.9497
47.9498
47.9482
47.9482
47.9482
47.9498
47.9498
47.9482
47.9483
47.9498
47.9498
47.9498
47.9498
47.9498
47.9434
47.9435
47.9435
47.9434
47.9434
47.9435
47.9419
47.9418
47.9419
47.9435
47.9435
47.9435
47.9419
47.9419
47.9419
47.9435
47.9435
47.9419
47.9419
47.9435
47.9435
47.9435
47.9435
47.9435
47.9372
47.9372
47.9372
47.9372
47.9371
47.9373
47.9356
47.9355
47.9355
47.9371
47.9373
47.9373
47.9356
47.9356
47.9356
47.9371
47.9373
47.9357
47.9356
47.9371
47.9371
47.9372
47.9372
47.9371
47.9309
47.931
47.931
47.9309
47.9308
47.931
47.9294
47.9293
47.9292
47.9308
47.9311
47.9311
47.9294
47.9293
47.9292
47.9308
47.931
47.9294
47.9293
47.9308
47.9308
47.931
47.9309
47.9308
47.9246
47.9248
47.9247
47.9246
47.9245
47.9249
47.9232
47.923
47.9228
47.9244
47.9249
47.9249
47.9232
47.923
47.9228
47.9244
47.9248
47.9231
47.923
47.9244
47.9244
47.9247
47.9246
47.9245
47.9183
47.9186
47.9185
47.9183
47.9181
47.9187
47.917
47.9167
47.9164
47.9179
47.9188
47.9187
47.917
47.9166
47.9164
47.9179
47.9187
47.9169
47.9167
47.9181
47.9179
47.9185
47.9183
47.9181
47.912
47.9125
47.9123
47.912
47.9116
47.9126
47.9108
47.9103
47.9099
47.9114
47.9127
47.9126
47.9108
47.9102
47.9099
47.9114
47.9126
47.9107
47.9103
47.9116
47.9114
47.9123
47.912
47.9117
47.9056
47.9064
47.9061
47.9056
47.9051
47.9066
47.9046
47.9039
47.9033
47.9048
47.9068
47.9067
47.9047
47.9038
47.9033
47.9047
47.9066
47.9046
47.9039
47.9051
47.9048
47.9061
47.9056
47.9052
47.8992
47.9005
47.9
47.8992
47.8985
47.9008
47.8985
47.8973
47.8965
47.8979
47.901
47.9008
47.8986
47.8974
47.8965
47.8979
47.9007
47.8985
47.8974
47.8984
47.898
47.8999
47.8992
47.8987
47.8928
47.8948
47.894
47.8928
47.8917
47.8951
47.8925
47.8907
47.8894
47.8908
47.8955
47.8952
47.8925
47.8908
47.8894
47.8907
47.8951
47.8925
47.8908
47.8915
47.8909
47.8939
47.8928
47.892
47.8864
47.8894
47.8882
47.8863
47.8846
47.8899
47.8867
47.8839
47.8818
47.8831
47.8904
47.89
47.8866
47.884
47.8818
47.883
47.8898
47.8867
47.8841
47.8844
47.8834
47.888
47.8863
47.8851
47.8799
47.8844
47.8826
47.8797
47.8771
47.8852
47.8812
47.8769
47.8737
47.8748
47.8859
47.8854
47.8811
47.877
47.8736
47.8747
47.8851
47.8811
47.8771
47.8767
47.8753
47.8824
47.8797
47.8778
47.8733
47.8801
47.8774
47.873
47.869
47.8813
47.876
47.8696
47.8645
47.8654
47.8824
47.8816
47.876
47.8696
47.8644
47.8652
47.8811
47.8759
47.8699
47.8685
47.8663
47.8771
47.8732
47.8702
47.8667
47.877
47.8729
47.8663
47.86
47.8787
47.8715
47.8616
47.8538
47.8545
47.8805
47.8791
47.8714
47.8617
47.8537
47.8541
47.8784
47.8715
47.8624
47.8591
47.8557
47.8725
47.8665
47.8618
47.86
47.8756
47.8694
47.8593
47.8496
47.8781
47.8679
47.853
47.8408
47.8408
47.8806
47.8787
47.8677
47.8531
47.8408
47.8403
47.8776
47.8682
47.8544
47.8485
47.843
47.8688
47.8598
47.8525
47.8534
47.8768
47.8675
47.8523
47.8373
47.8803
47.8657
47.843
47.8239
47.8236
47.8839
47.8808
47.8651
47.8428
47.8239
47.8225
47.8795
47.8664
47.8456
47.8351
47.8267
47.8667
47.8528
47.8418
47.8471
47.8817
47.8682
47.8452
47.822
47.8866
47.8656
47.8317
47.8013
47.7992
47.8919
47.8874
47.8645
47.831
47.8012
47.7975
47.8856
47.8672
47.8356
47.8185
47.8048
47.8665
47.8461
47.8289
47.8415
47.8923
47.8727
47.8381
47.8022
47.899
47.8691
47.8178
47.7692
47.7656
47.9065
47.9
47.8671
47.8162
47.7688
47.7624
47.8976
47.872
47.8248
47.7955
47.774
47.8707
47.8397
47.8131
47.8379
47.9111
47.8831
47.8321
47.7761
47.9199
47.8769
47.8008
47.7221
47.7126
47.9304
47.9211
47.8749
47.7978
47.7215
47.7074
47.9182
47.8831
47.813
47.7654
47.7287
47.8794
47.8349
47.7934
47.8383
47.9416
47.9026
47.8285
47.741
47.9529
47.8935
47.779
47.6493
47.6322
47.9668
47.9539
47.8897
47.774
47.6484
47.6216
47.9508
47.9033
47.8011
47.7201
47.6595
47.8991
47.8327
47.7687
47.8465
47.9882
47.9356
47.8302
47.6939
48.0019
47.9226
47.752
47.5348
47.4924
48.0202
48.0026
47.9134
47.7425
47.534
47.4715
47.9999
47.9365
47.7909
47.6595
47.5504
47.929
47.8374
47.7387
47.8691
48.0561
47.9878
47.8422
47.6328
48.0713
47.9648
47.7178
47.3427
47.2555
48.0948
48.0714
47.9516
47.702
47.3427
47.1999
48.0704
47.9952
47.7866
47.5632
47.3705
47.9836
47.8526
47.7052
47.9163
48.1511
48.066
47.8723
47.5581
48.1663
48.0308
47.6754
47.0383
46.7986
48.1947
48.1657
48.0108
47.6498
47.0437
46.613
48.1674
48.0806
47.795
47.439
47.0642
48.0584
47.891
47.6762
48.0037
48.2771
48.1779
47.9338
47.4786
48.2893
48.1227
47.6275
46.5928
45.8694
48.3224
48.2873
48.092
47.5902
46.6054
45.1739
48.2939
48.2003
47.8311
47.2741
46.5011
48.175
47.9608
47.6669
48.1481
48.4358
48.3275
48.0425
47.4219
48.4421
48.2499
47.5739
46.0165
43.5511
48.4775
48.4386
48.2087
47.5257
46.0443
41.6146
48.4512
48.3595
47.9056
47.1054
45.3784
48.33
48.0888
47.7124
48.3604
48.6226
48.5159
48.2183
47.4603
48.6216
48.4199
47.5591
45.5123
36.9216
48.6554
48.6169
48.369
47.5248
45.5372
37.082
-28.047
48.6349
48.5583
48.0539
46.9613
42.7542
48.5288
48.2768
47.8617
48.6339
48.8238
48.7338
48.4738
47.7043
48.8161
48.6245
47.8583
45.6037
32.3324
0.924728
48.8434
48.8113
48.5712
47.8525
45.6212
36.4542
5.74996
48.8314
48.7885
48.2888
47.0622
39.1087
48.7565
48.5406
48.1748
48.9235
49.0164
48.9556
48.7799
48.2137
49.0037
48.8598
48.2994
46.6644
37.3058
10.7183
49.023
49.0003
48.8162
48.297
46.5636
37.177
12.9527
49.0182
49.0199
48.6441
47.6188
40.7564
13.1569
48.984
48.8288
48.6177
49.1535
49.1773
49.1477
49.0427
48.7392
49.1617
49.0965
48.6748
47.7578
39.1903
10.7651
49.1743
49.1594
49.0666
48.6876
47.7388
39.557
11.3669
49.1748
49.1861
49.0365
48.2825
43.0078
49.1764
49.0958
49.01
49.3058
49.2937
49.2828
49.2331
49.0925
49.2791
49.2603
49.0103
48.5269
43.597
49.2864
49.2774
49.2435
49.0383
48.5646
42.9356
-14.0571
49.2892
49.2932
49.2482
48.877
47.2339
49.3052
49.2737
49.2512
49.3859
49.3654
49.3618
49.3527
49.2874
49.3543
49.3533
49.3031
49.0511
48.0507
49.3601
49.3542
49.3424
49.3085
49.0687
47.329
49.3611
49.3663
49.3621
49.1949
48.856
49.3756
49.3778
49.3589
49.4228
49.4061
49.4045
49.4066
49.3832
49.3999
49.4054
49.3968
49.2963
49.0721
49.4023
49.3987
49.4018
49.3926
49.3024
48.9299
49.402
49.4082
49.4102
49.3437
49.2695
49.4132
49.418
49.41
49.4378
49.4271
49.4271
49.4297
49.4231
49.424
49.4296
49.4297
49.3978
49.3349
49.4239
49.423
49.4278
49.4285
49.3942
49.3105
49.4243
49.4293
49.4313
49.4126
49.3922
49.4318
49.4341
49.4331
49.4439
49.4375
49.4378
49.4401
49.439
49.4355
49.4381
49.4399
49.4302
49.4126
49.435
49.4351
49.4369
49.439
49.4299
49.408
49.4356
49.4389
49.4413
49.4351
49.4303
49.4398
49.4415
49.4424
49.4464
49.4426
49.4429
49.4447
49.4454
49.4415
49.4434
49.4455
49.4439
49.4385
49.4408
49.4411
49.4428
49.4442
49.4428
49.4373
49.4414
49.4435
49.4453
49.4441
49.4434
49.4436
49.445
49.4463
49.4475
49.4451
49.4454
49.4466
49.4477
49.4444
49.4458
49.4469
49.4468
49.4464
49.4439
49.4441
49.445
49.4461
49.4466
49.4462
49.4443
49.446
49.4468
49.4472
49.4479
49.4455
49.4466
49.4477
49.4479
49.4463
49.4464
49.4473
49.4485
49.4458
49.4461
49.4467
49.448
49.4491
49.4455
49.4455
49.4457
49.4464
49.4477
49.4491
49.4457
49.4461
49.4468
49.4481
49.4494
49.4465
49.4473
49.4483
49.448
49.4467
49.4467
49.4475
49.4485
49.4463
49.4465
49.4472
49.4485
49.4498
49.4461
49.446
49.4462
49.4469
49.4483
49.4499
49.4462
49.4465
49.4471
49.4484
49.4495
49.4469
49.4474
49.4484
351.552
351.498
351.52
351.575
351.453
351.63
351.278
351.416
351.53
351.517
351.667
351.648
351.387
351.421
351.351
351.258
351.205
351.348
351.371
351.188
351.216
351.605
351.52
351.367
351.693
351.612
351.362
351.549
351.661
351.383
351.244
351.34
351.199
351.154
351.111
351.107
351.048
351.091
351.109
351.027
351.047
351.22
351.462
351.138
351.338
351.629
351.805
351.653
351.504
351.568
351.282
351.313
351.164
351.336
351.182
351.073
351.018
351.08
351.025
351
351.022
351.005
351.025
351.115
351.317
351.147
351.394
351.754
351.597
351.558
351.393
351.583
351.316
351.429
351.661
351.174
351.097
351.397
351.272
351.07
351.105
351.233
351.29
351.271
351.619
351.58
351.429
351.713
351.405
351.414
351.572
351.472
351.5
351.188
351.348
351.342
352
351.355
351.885
351.692
351.633
351.633
351.457
351.521
351.664
351.71
351.639
351.496
351.444
352.01
351.386
352.028
351.362
351.769
351.804
351.344
351.168
351.313
351.405
351.165
352.087
351.323
351.803
351.345
351.233
351.135
351.315
352.135
351.309
351.659
351.904
351.628
351.382
351.55
351.445
351.713
351.958
351.616
351.356
351.457
351.629
351.646
351.565
351.449
351.391
351.984
351.815
351.43
351.523
351.535
351.983
351.311
351.273
352.121
351.768
351.278
351.093
351.175
351.331
351.69
351.641
352.081
350.967
351.214
351.19
351.078
351.249
352.032
351.389
351.587
351.803
351.485
351.428
351.554
351.654
351.803
351.386
351.296
351.558
351.222
350.739
350.196
351.225
351.016
351.259
350.626
350.284
351.068
351.134
351.037
350.263
350.63
350.451
350.802
350.196
350.765
350.225
350.751
350.831
350.888
350.036
350.139
350.18
350.659
350.601
350.872
350.801
350.27
350.118
350.638
350.296
350.728
350.237
350.928
351.121
351.151
350.212
350.377
350.863
350.942
350.933
350.491
350.581
350.43
351.117
350.95
350.186
350.632
350.248
350.965
351.069
350.514
350.382
350.409
350.735
350.121
350.823
350.528
350.801
350.196
350.564
350.058
350.216
350.734
350.678
350.506
350.244
350.279
350.228
350.181
350.122
350.738
350.268
351.145
351.173
350.48
350.825
350.527
350.959
351.132
350.651
350.479
350.365
350.237
349.473
348.365
349.503
349.215
349.828
348.244
348.183
348.205
349.517
349.364
348.182
348.222
348.194
349.407
348.333
349.353
348.309
349.27
349.206
349.983
348.151
348.173
348.083
348.502
349.379
350.286
349.597
348.317
348.439
348.9
348.565
349.58
348.61
349.098
349.287
349.67
348.103
348.126
348.131
350.077
349.873
348.69
348.987
349.035
349.434
349.135
348.127
348.129
348.135
349.704
349.614
348.897
348.859
348.723
349.307
348.299
350.06
349.327
349.467
348.222
348.713
348.418
348.494
349.743
349.808
349.514
349.354
348.801
348.846
348.674
348.647
349.636
348.593
350.026
349.708
348.538
348.874
348.867
349.681
349.56
348.867
348.688
348.79
348.769
347.513
346.979
347.473
347.463
347.401
346.798
346.976
346.755
347.445
347.427
346.871
346.858
346.88
347.514
347.008
347.54
346.995
347.382
347.382
347.396
347.034
346.936
346.938
346.894
347.623
347.428
347.639
346.997
347.12
346.99
347.124
347.731
347.101
347.437
347.464
347.4
346.973
346.885
346.835
347.765
347.868
347.195
347.127
347.091
347.448
347.477
346.919
346.899
346.956
347.845
347.904
347.199
347.147
347.285
347.531
347.052
347.423
347.639
347.636
346.995
347.011
347.132
347.118
347.77
347.689
347.818
347.326
347.21
347.198
347.287
347.215
347.793
347.199
347.882
347.947
347.282
347.092
347.114
347.872
347.915
347.18
347.215
347.15
347.286
346.643
346.426
346.481
346.649
346.507
346.238
346.425
346.284
346.586
346.634
346.311
346.348
346.449
346.692
346.447
346.631
346.436
346.712
346.669
346.627
346.466
346.539
346.511
346.271
346.82
346.678
346.777
346.476
346.51
346.333
346.452
346.679
346.355
346.71
346.511
346.557
346.478
346.252
346.302
346.6
346.474
346.327
346.262
345.615
346.572
346.632
346.297
346.348
346.436
346.516
346.796
346.24
345.688
346.445
346.717
346.488
346.787
346.829
346.854
346.577
346.41
346.587
346.618
346.782
346.896
346.913
346.427
346.49
346.624
346.604
346.503
346.842
346.558
346.736
346.705
346.506
346.393
346.351
346.814
346.733
346.419
346.562
346.409
346.587
346.186
345.856
346.056
346.207
346.056
345.876
345.966
345.875
346.127
346.199
345.888
345.907
345.945
346.173
345.908
346.16
345.827
346.304
346.296
346.047
345.85
346.079
346.044
346.021
346.173
346.047
346.191
346.084
345.928
345.82
346.012
346.072
345.818
346.243
346.063
346.062
346.025
345.859
345.864
345.605
346.422
346.404
345.879
345.572
346.081
345.958
346.148
346.064
346.259
345.704
346.099
345.877
346.14
346.138
346.269
345.887
345.916
346.024
346.49
346.27
345.715
346.08
346.023
346.048
345.657
346.267
345.859
346.184
345.935
346.144
345.776
346.108
346.259
345.942
346.072
346.262
346.37
346.11
345.932
345.931
346.117
346.309
346.454
346.347
345.874
346.124
346.23
346.128
345.965
346.234
345.946
346.042
346.05
345.888
345.92
345.904
346.302
346.129
345.952
346.105
345.964
346.083
345.49
345.153
345.496
345.612
345.491
345.179
345.237
345.143
345.546
345.657
345.296
345.275
345.398
345.578
345.349
345.529
345.189
345.663
345.654
345.743
345.174
345.197
345.22
345.304
345.663
345.69
345.879
345.43
345.469
345.459
345.71
345.769
345.857
345.702
346.084
345.867
346.048
346.013
346.107
345.653
345.564
345.543
345.249
345.299
345.23
345.734
345.876
345.822
345.681
345.898
345.825
345.904
346.076
345.886
346.074
345.918
346.131
345.917
346.101
345.569
345.693
345.299
345.257
345.398
345.878
345.955
345.806
345.824
345.908
345.832
345.997
346.091
345.805
346.099
345.924
346.096
345.923
346.122
345.586
345.334
345.735
345.651
345.787
345.378
345.462
345.409
345.455
346.045
346.057
345.934
345.904
345.926
345.788
345.746
345.936
345.887
346.182
346.074
346.045
346.118
345.626
345.448
345.713
345.697
345.476
345.475
345.483
345.951
345.785
345.58
345.742
345.561
345.748
344.781
344.484
344.881
344.836
344.821
344.53
344.495
344.527
344.915
345.042
344.564
344.518
344.67
345.085
344.72
344.804
344.488
344.745
344.745
344.905
344.498
344.421
344.375
344.494
345.232
345.266
345.435
344.764
344.902
344.998
345.029
345.644
346.205
345.35
346.243
346.053
346.165
346.072
346.193
344.838
344.889
344.834
344.483
344.473
344.493
346.16
345.725
346.162
345.608
346.307
345.606
346.376
346.19
346.023
346.183
346.046
346.199
346.066
346.298
344.85
345.028
344.561
344.523
344.651
346.141
345.822
346.248
345.631
346.376
345.756
346.378
346.197
346.03
346.187
346.057
346.314
345.943
346.172
345.005
344.679
345.283
345.058
345.112
344.722
345.017
344.748
344.762
345.729
345.541
345.621
345.681
345.602
345.402
345.502
346.314
345.786
346.359
346.19
346.095
346.22
345.163
344.808
345.199
345.252
344.912
345.005
345.047
345.467
345.33
345.156
345.287
345.171
345.354
344.208
343.828
344.124
344.135
344.076
343.849
343.847
343.767
344.102
344.289
343.895
343.831
344.003
344.382
344.135
344.125
343.781
344.186
344.146
344.115
343.752
343.797
343.78
343.744
344.604
344.599
344.651
344.182
344.362
344.174
344.331
344.86
344.4
344.121
344.058
344.031
343.82
343.762
343.695
346.364
345.515
346.628
344.743
346.226
345.029
345.305
346.228
346.064
346.29
345.704
346.162
345.981
346.409
344.109
344.23
343.833
343.766
343.91
346.671
345.59
346.452
345.268
345.418
345.185
346.329
346.373
345.878
346.21
346.195
346.484
345.752
346.154
344.353
344.024
344.554
344.458
344.483
344.046
344.113
344.137
344.237
345.472
345.307
345.369
345.534
345.327
345.299
345.322
345.285
344.59
344.343
344.85
344.894
344.556
344.632
344.735
345.177
345.031
344.934
345.093
344.918
345.22
343.588
343.529
343.747
343.639
343.7
343.619
343.543
343.629
343.726
343.829
343.664
343.67
343.659
343.904
343.7
343.56
343.47
343.526
343.495
343.523
343.519
343.51
343.494
343.382
344.067
343.834
344.029
343.735
343.829
343.628
343.805
344.087
343.495
343.627
343.652
343.627
343.478
343.524
343.526
344.566
344.919
342.675
338.118
328.645
343.684
343.771
343.628
343.613
343.65
344.563
344.973
337.82
329.292
342.579
343.786
343.679
343.874
343.898
343.988
343.722
343.738
343.78
343.732
345.268
345.327
345.343
345.622
345.293
345.365
345.34
344.769
344.104
343.892
344.464
344.587
344.154
344.346
344.455
345.067
344.883
344.816
345.088
344.823
345.232
343.281
343.047
343.358
343.339
343.333
343.121
343.087
343.084
343.371
343.389
343.09
343.033
343.063
343.419
342.957
343.232
342.971
343.253
343.223
343.064
343.007
342.988
342.946
342.775
343.565
343.414
343.495
342.8
342.882
342.917
343.153
342.404
339.011
343.203
343.256
343.191
342.976
342.978
342.962
313.75
300.383
319.854
274.292
266.74
343.276
343.343
343.039
343.016
343.117
300.872
334.193
271.126
264.521
312.557
343.416
343.093
343.48
343.498
343.57
342.937
342.852
342.953
343.109
345.197
345.532
345.109
347.552
343.987
346.152
344.241
333.2
343.692
343.273
344.386
344.328
343.893
344.691
344.31
345.166
344.762
345.67
345.853
345.558
345.597
343.01
343.081
343.123
342.986
343.122
344.433
344.019
345.117
343.173
343.229
344.105
344.753
341.441
342.7
334.646
342.96
342.475
343.071
343.006
342.903
343.794
344.656
344.368
344.489
341.5
343.971
341.811
340.723
323.991
343.438
324.644
322.344
264.274
342.945
343.089
343.084
344.04
344.401
344.915
232.469
227.564
221.15
176.776
180.4
343.164
342.999
344.808
345.275
344.005
222.922
268.747
166.802
173.785
187.278
342.911
341.588
343.238
342.767
343.553
343.319
343.309
337.675
339.156
329.907
339.012
325.336
234.691
208.838
214.941
210.719
191.542
342.501
323.746
342.455
340.134
310.02
295.575
289.41
337.263
341.877
270.336
227.6
275.235
203.171
321.174
160.397
321.21
329.114
338.631
143.735
173.918
154.567
333.968
301.709
124.237
119.857
87.4622
263.47
79.2943
318.849
170.185
338.62
337.061
341.152
158.932
175.503
178.698
207.275
209.181
259.694
164.325
75.7054
54.8979
56.5628
47.3331
111.339
46.5606
330.244
320.482
337.48
171.962
149.927
160.817
92.0354
118.309
45.7173
48.3188
59.3156
339.8
323.288
146.112
143.625
117.985
110.179
62.7205
44.8394
57.4262
42.4946
306.928
98.2735
305.636
271.149
241.775
83.3417
79.866
67.8748
54.4475
49.9534
53.7286
52.4222
43.328
42.471
43.6865
41.6047
41.4336
194.055
49.6877
109.925
107.921
46.823
46.6916
46.0556
63.8876
83.4264
44.1794
44.1971
43.3461
43.0453
46.6076
42.4382
47.8584
46.5688
47.0497
43.0503
42.6031
43.3889
46.2634
45.2864
43.395
43.8704
45.1183
43.6865
44.6783
47.4898
42.3518
47.4036
47.9359
49.7944
42.243
42.8294
42.8775
43.7482
42.8598
46.6486
44.0757
44.7106
46.5485
46.6473
47.0036
44.4613
47.6187
47.3394
47.7669
47.2934
42.9037
42.8943
43.2729
46.0961
43.0676
47.7325
48.1218
45.6013
46.5246
46.1135
42.9742
43.5313
44.1883
41.8174
44.8606
48.0011
44.1836
46.9281
44.0754
44.609
47.8557
43.1767
44.9183
45.2036
46.4392
45.5573
46.7355
44.4356
44.1721
44.7053
45.4199
45.7086
45.4786
46.1518
46.8238
43.5618
47.0291
44.9485
44.237
47.0389
46.6351
46.656
44.4657
43.8201
45.6978
46.0353
46.0064
46.0071
46.7806
47.091
47.0048
46.429
46.7089
47.1559
46.8631
46.9279
46.4751
47.169
46.9505
46.6632
47.1256
47.008
47.2917
46.7982
47.2958
46.629
46.7075
47.6303
47.391
46.974
47.0773
47.5925
47.6959
47.2192
47.3465
46.9063
47.3843
47.1737
47.3356
47.7684
47.4643
46.7311
47.0432
46.9082
47.0872
47.3363
47.0896
48.0736
48.3391
47.4662
47.829
48.9763
46.7092
47.0858
47.1879
46.9567
47.148
47.9185
46.6608
46.3692
47.4977
46.4008
47.2216
47.387
47.5005
47.5977
47.4342
47.2272
47.4273
47.5583
47.4663
46.1141
45.806
46.1822
46.0797
46.312
46.1005
46.3145
46.346
47.7332
47.5319
46.7991
47.0022
47.3412
47.0218
47.2259
46.2167
46.3859
46.5269
46.4416
46.8545
46.3346
47.197
47.5415
46.8608
47.0624
46.9559
46.9109
47.3468
47.052
46.6868
47.0856
46.8668
46.8898
47.1269
47.3429
47.3177
47.3845
47.6537
47.1658
47.2635
47.4666
47.4915
47.4083
47.4751
47.5218
47.2205
47.1174
47.2564
47.164
47.179
47.0721
47.1499
47.1835
46.909
47.2025
47.0199
47.0649
47.4136
47.0647
47.1253
47.1911
48.0129
46.4005
46.0156
46.1152
46.9531
47.1838
47.014
47.0635
47.2932
46.3341
46.0959
44.8655
45.3267
45.6648
47.4142
47.4767
47.4044
47.464
47.4733
47.4359
47.4477
47.4613
47.4738
46.4281
46.3906
46.4696
46.5283
46.5103
46.6244
46.5996
46.0986
47.4832
47.4645
47.2194
47.4077
47.3605
47.2705
47.3355
46.7058
47.1846
47.0244
46.8955
47.1655
46.7778
47.6389
47.5769
47.2888
47.4614
47.1847
47.6001
47.4933
47.4125
47.151
47.1951
47.7022
47.4559
47.2845
47.2646
47.2651
47.6666
47.6072
47.5153
47.5443
47.5375
47.5366
47.5276
47.5481
47.5178
47.1575
47.0182
47.0476
47.2035
47.1539
47.0191
47.0091
46.7324
46.6851
47.49
47.1916
47.1711
47.5144
47.6871
47.4125
45.0198
44.6776
46.2006
44.3293
44.0321
47.1739
47.3619
47.7165
47.4259
47.4518
44.584
45.2895
44.5242
44.5889
45.3332
47.4669
47.4802
47.4616
47.4636
47.4659
47.486
47.4723
47.4691
47.4611
46.5674
46.7939
46.7129
46.8219
46.6645
46.9367
46.8338
46.2316
47.4435
47.4453
47.3195
47.3151
47.4117
47.3673
47.3428
47.043
47.1528
47.1643
47.153
47.1926
47.0426
47.5372
47.5152
47.6396
47.5014
47.5004
47.5688
47.4961
47.5021
47.566
47.3608
47.6411
47.5142
47.3966
47.2976
47.3351
47.5756
47.5562
47.5193
47.5366
47.4826
47.5258
47.5096
47.5256
47.4477
47.1803
47.0858
47.0453
47.2765
47.2392
47.1785
47.1303
46.7798
46.9486
47.5572
47.9757
47.648
47.5684
47.8279
47.6576
44.0599
43.5945
46.6568
44.5117
44.4678
47.6368
47.5338
47.8071
47.6334
47.5583
45.1132
45.8344
47.4035
46.381
46.7135
47.5098
47.5273
47.4753
47.479
47.4575
47.5044
47.4896
47.4953
47.4692
46.8176
47.067
46.9847
47.1341
47.0302
47.2032
47.1519
47.0142
47.4597
47.4839
47.4137
47.3871
47.4814
47.4557
47.4324
47.2511
47.2661
47.3382
47.3447
47.3525
47.2765
47.5065
47.5294
47.5202
47.4971
47.4926
47.5211
47.522
47.5076
47.4752
47.4236
47.5045
47.4846
47.4663
47.3891
47.4598
47.5473
47.5607
47.5111
47.5232
47.4259
47.5539
47.5302
47.5391
47.4226
47.3372
47.3144
47.2799
47.4241
47.4407
47.4273
47.4308
47.2558
47.578
47.5643
47.673
47.6098
47.5709
47.6143
47.5886
46.138
46.2359
47.6537
47.8858
48.4978
47.5809
47.5698
47.604
47.569
47.5932
47.3141
47.4387
49.9885
51.5079
48.0486
47.5438
47.569
47.5043
47.5213
47.4889
47.5459
47.5166
47.5562
47.5153
47.2908
47.3525
47.3494
47.5375
47.5213
47.4892
47.5168
47.8507
47.514
47.5488
47.4989
47.4864
47.5621
47.5502
47.5442
47.4362
47.4403
47.509
47.5193
47.5216
47.5078
47.5688
47.6213
47.5549
47.5653
47.5475
47.6101
47.622
47.6056
47.5277
47.5241
47.5939
47.5902
47.5962
47.5324
47.6101
47.5931
47.6396
47.5656
47.5799
47.4596
47.6384
47.6173
47.63
47.5329
47.5537
47.5259
47.5858
47.6047
47.654
47.5984
47.7048
47.8079
47.9216
47.5966
47.6205
47.6021
47.643
47.6528
47.6421
48.8038
49.993
48.1804
48.8208
49.6588
47.5961
47.6317
47.6671
47.6476
47.6837
53.4168
48.4664
50.1666
51.5676
48.4977
47.6074
47.6612
47.5363
47.6025
47.5516
47.6401
47.5855
47.6575
47.6077
47.7399
47.604
47.6691
47.7597
47.8895
47.6966
47.7827
48.2929
47.5903
47.6418
47.5982
47.5978
47.6535
47.6511
47.655
47.5963
47.5954
47.6483
47.6677
47.6617
47.6879
47.6862
47.7547
47.677