/*--------------------------------*- C++ -*----------------------------------*\
| =========                 |                                                 |
| \\      /  F ield         | OpenFOAM: The Open Source CFD Toolbox           |
|  \\    /   O peration     | Version:  5.x                                   |
|   \\  /    A nd           | Web:      www.OpenFOAM.org                      |
|    \\/     M anipulation  |                                                 |
\*---------------------------------------------------------------------------*/
FoamFile
{
    version     2.0;
    format      ascii;
    class       volVectorField;
    location    "0.05";
    object      Us;
}
// * * * * * * * * * * * * * * * * * * * * * * * * * * * * * * * * * * * * * //

dimensions      [0 1 -1 0 0 0 0];

internalField   nonuniform List<vector> 
10571
(
(0.013701 0.0131703 -0.0900851)
(0.00343132 -0.00169123 -0.118501)
(0 0 0)
(0 0 0)
(0.0226327 0.0553556 -0.0954233)
(0 0 0)
(0 0 0)
(0 0 0)
(0 0 0)
(-0.022779 0.00718478 -0.0881264)
(0.0236806 0.00525585 -0.0849584)
(0 0 0)
(0 0 0)
(0 0 0)
(0 0 0)
(-0.0478735 0.00635086 -0.0572617)
(0.0432712 0.00305667 -0.0990456)
(0 0 0)
(0 0 0)
(0 0 0)
(-0.00130427 -0.012581 -0.122357)
(-0.0207475 -0.0285253 -0.0792644)
(0.0173092 -0.0140717 -0.0481634)
(0.0253606 -0.0208678 -0.112867)
(0.0189346 0.00665032 0.0294833)
(-0.0061678 -0.00933067 0.0241426)
(0 0 0)
(0 0 0)
(0.0402392 0.0157842 0.052505)
(0 0 0)
(0 0 0)
(0 0 0)
(0 0 0)
(-0.0126349 -0.0151607 0.0448937)
(0.00235428 0.0135583 0.0407228)
(0 0 0)
(0 0 0)
(0 0 0)
(0 0 0)
(-0.0422223 0.00530591 0.0571063)
(-0.000677162 0.0374204 0.0559794)
(0 0 0)
(0 0 0)
(0 0 0)
(-0.00292202 0.00264036 0.0186347)
(-0.0363256 0.0190201 0.0656164)
(0.0303977 -0.0157439 0.0686222)
(0.0527038 -0.0127525 0.0283399)
(0.0239041 -0.0308203 0.169499)
(-0.0344838 -0.0360936 0.159562)
(-0.0666068 -0.0890574 0.252936)
(0.0630609 -0.0791143 0.262446)
(0.0995757 -0.0489584 0.210713)
(-0.0844124 -0.0674927 0.256766)
(-0.00488498 -0.0182917 0.301168)
(0.0613796 -0.0190041 0.315161)
(0.120317 -0.0223606 0.317336)
(0.0287702 -0.0161952 0.185479)
(-0.0259692 0.0163632 0.174451)
(-0.0769705 0.0500365 0.257802)
(-0.00722193 0.0510179 0.321435)
(0.0647293 0.0477223 0.329215)
(0.11708 0.0510503 0.323428)
(0.0371395 0.0133101 0.203031)
(-0.0480876 0.0889375 0.20614)
(-0.0158495 0.0994943 0.312716)
(0.0659107 0.0898138 0.32375)
(0.105939 0.0958147 0.2951)
(0.00218966 0.0141704 0.15062)
(-0.046999 0.0725959 0.198563)
(0.0455578 0.0865794 0.22283)
(0.0604031 0.0135925 0.167747)
(0.0202799 -0.015916 0.290537)
(-0.0158062 -0.0182591 0.273159)
(-0.0622332 -0.0870482 0.369479)
(0.0576107 -0.0724988 0.381052)
(0.0961929 -0.0436142 0.339544)
(-0.0830044 -0.0655394 0.367583)
(-0.00380241 -0.0188779 0.396732)
(0.0595379 -0.0139333 0.401686)
(0.125177 -0.0152874 0.396861)
(0.0428017 -0.00896517 0.320565)
(-0.0360873 0.0155593 0.300621)
(-0.0716355 0.0435194 0.37561)
(-0.00107305 0.0492124 0.400558)
(0.0639409 0.0446126 0.398949)
(0.121498 0.0456625 0.400874)
(0.0592051 0.0233431 0.337308)
(-0.0406494 0.0757036 0.324172)
(-0.0108159 0.0993128 0.399422)
(0.0621659 0.0912881 0.395194)
(0.103894 0.0846199 0.384172)
(-0.0102842 -0.00957137 0.275881)
(-0.0426547 0.0620745 0.322545)
(0.0439058 0.0974559 0.336218)
(0.0534854 0.00768946 0.28046)
(0.0173555 -0.0254893 0.421445)
(-0.0068534 -0.00820414 0.389154)
(-0.0589409 -0.0811212 0.448352)
(0.0548686 -0.0582575 0.457083)
(0.0758147 -0.00461147 0.418212)
(-0.0772977 -0.0566366 0.454504)
(0.00366501 -0.0125677 0.502276)
(0.0607577 -0.0102652 0.496641)
(0.12711 -0.012369 0.50877)
(0.0581465 0.0070633 0.455352)
(-0.0269742 0.0104862 0.427951)
(-0.0496855 0.038956 0.453001)
(0.00332034 0.0478654 0.48997)
(0.0629216 0.0441842 0.496741)
(0.124181 0.0436948 0.516036)
(0.0920318 0.0095042 0.477542)
(-0.0147341 0.0807451 0.42608)
(-0.00728705 0.0989623 0.49995)
(0.0593327 0.0861054 0.505951)
(0.102654 0.0789865 0.499861)
(0.00505386 0.00423953 0.409942)
(-0.0449162 0.0658362 0.453067)
(0.0350985 0.052271 0.448032)
(0.0595307 0.00399854 0.416041)
(0.0292593 -0.04523 0.578435)
(-0.0425689 -0.048275 0.548441)
(-0.0431209 -0.0628392 0.553693)
(0.0574596 -0.031124 0.561477)
(0.0793273 -0.0104161 0.560616)
(9.93258e-17 8.68112e-17 -5.62424e-16)
(0.0170546 -0.00119507 0.600256)
(0.0623166 0.000722993 0.628786)
(0.135235 -0.0017612 0.654605)
(0.0530689 0.0168184 0.599283)
(0 0 0)
(-0.021932 0.00546589 0.557631)
(-0.0273187 0.03638 0.547512)
(0.0151002 0.0461085 0.622505)
(0.0621333 0.0397105 0.643778)
(0.130258 0.0339293 0.671571)
(0.123519 0.00193369 0.620468)
(0 0 0)
(-0.0242422 0.0709451 0.564809)
(0.00297574 0.0951444 0.633078)
(0.0578468 0.0788412 0.653191)
(0.100195 0.0701479 0.640958)
(0.0331132 -0.0204882 0.559223)
(-0.00788556 0.00266464 0.569807)
(0.0388547 0.06186 0.586631)
(0.0387718 0.00583524 0.560656)
(0.0126814 0.000458739 0.721888)
(-0.0020952 -0.0098713 0.688748)
(-0.029694 -0.0416066 0.714454)
(0.0420184 -0.0610533 0.715206)
(0.0736977 0.00530674 0.713555)
(-0.0287852 -0.0399578 0.71702)
(0.0186545 -0.00610261 0.783751)
(0.0612531 0.00549769 0.816509)
(0.158427 0.00193111 0.846623)
(0.0540677 0.0366888 0.740631)
(0 0 0)
(0.00978814 0.00818166 0.716344)
(-0.054829 0.0335873 0.709954)
(0.0223044 0.0418214 0.81719)
(0.0646733 0.0302838 0.841683)
(0.141218 0.032849 0.854847)
(0.0619862 -0.00408844 0.769916)
(0 0 0)
(0.00368545 0.052179 0.703322)
(-0.000842887 0.0894898 0.814486)
(0.0564574 0.0677091 0.836296)
(0.102813 0.073701 0.780292)
(0.0602111 -0.0244573 0.724063)
(0 0 0)
(-0.0116429 -0.00981584 0.707424)
(0.0353802 0.0308307 0.718726)
(0.0277385 -0.0188239 0.698472)
(0.0227232 0.0352115 0.869389)
(0.00144513 -0.00941413 0.825567)
(-0.0248304 -0.0330558 0.851991)
(0.0310959 -0.0177439 0.858354)
(0.0781934 0.00116557 0.849809)
(-0.030331 -0.0400858 0.850705)
(0.0152018 -0.00496937 0.906665)
(0.054646 0.0164786 0.900714)
(0.209853 0.00529131 0.928669)
(0.080025 0.0615777 0.928173)
(0 0 0)
(-0.00371192 0.00703866 0.825217)
(-0.0234682 0.0206566 0.863407)
(0.0299849 0.0329648 0.888786)
(0.0543351 0.020988 0.895512)
(0.222848 0.0244457 0.933973)
(0.211227 0.00299801 0.926319)
(0 0 0)
(0.00348771 0.0498771 0.842089)
(-0.00148566 0.0455853 0.909913)
(0.0470883 0.0081461 0.924726)
(0.084828 0.010771 0.880489)
(0.0755706 -0.0396131 0.882511)
(0 0 0)
(-0.0120797 0.00883773 0.86387)
(0.0285301 -0.0425733 0.859538)
(0.0345566 -0.0130349 0.853868)
(0.0288891 0.0267732 1.03108)
(0.00157353 -0.0147563 0.981778)
(-0.0354727 -0.0438023 0.968227)
(0.0344771 -0.024614 0.98243)
(0.0919724 -0.00535443 1.00196)
(-0.0404977 -0.0444818 0.964562)
(0.00951836 -0.00902227 1.11024)
(0.0507462 0.0134909 1.11654)
(0.130449 0.00514182 1.14865)
(0.115004 0.115959 1.06023)
(0.497911 0.226684 0.0441701)
(0.0332185 0.00465544 0.98537)
(-0.0271076 0.0207641 0.972664)
(0.0232847 0.0308564 1.09667)
(0.0674703 0.0357655 1.17187)
(0.195247 0.0183468 1.18674)
(0.186159 -0.0350274 1.11378)
(0.533872 -0.129915 0.0620019)
(-0.00667012 0.0608443 0.98639)
(-0.0024213 0.0329219 1.10783)
(0.0426958 -0.00641067 1.10939)
(0.0890048 0.0140359 1.01788)
(0.110123 -0.0470839 1.04573)
(-0.0102788 -0.0239243 1.01069)
(0.0292432 -0.0434821 1.00581)
(0.0191219 -0.0369187 1.00464)
(0.0293936 0.0297024 1.18461)
(0.0119368 0.0067337 1.15227)
(-0.0291919 -0.0431187 1.15884)
(0.0289623 -0.012457 1.15193)
(0.0844841 0.0114884 1.16735)
(-0.0328041 -0.0404879 1.15022)
(0.0164119 -0.00212105 1.2436)
(0.0482232 0.00695487 1.27642)
(0.182138 8.12923e-05 1.34959)
(0.111851 0.0709507 1.1979)
(0.025451 0.0356866 1.21265)
(-0.0172059 0.0216378 1.16024)
(0.0163574 0.0331076 1.2768)
(0.0515291 0.0277528 1.32388)
(0.173792 0.0325376 1.39117)
(-0.0801535 -0.076699 1.01639)
(0.00424201 0.0561239 1.15472)
(-0.000965389 0.0542055 1.30343)
(0.0489381 0.0305457 1.33785)
(0.0835391 0.0189502 1.21009)
(0.120319 -0.0540826 1.22159)
(-0.00191518 -0.0209814 1.18163)
(0.0265971 -0.0473193 1.18284)
(0.0108675 -0.0233014 1.19441)
(0.0178289 0.0265786 1.38967)
(0.0147199 -0.00290899 1.34698)
(-0.0169729 -0.028977 1.31413)
(0.0252793 -0.00750773 1.32957)
(0.0726313 0.0110822 1.38048)
(-0.0229894 -0.0286464 1.31143)
(0.0167019 0.0075339 1.55546)
(0.0320271 0.013781 1.58889)
(0.101943 0.0116937 1.62023)
(0.0376942 0.0773759 1.40559)
(0.015384 0.0038498 1.39289)
(0.000209881 0.0196545 1.31729)
(0.0176644 0.0101269 1.58633)
(0.0327937 0.0076832 1.62879)
(0.0922368 0.0284225 1.62385)
(-0.0298978 -0.0217539 1.36021)
(0.0115786 0.0511428 1.3648)
(0.0137559 0.0343572 1.64059)
(0.0501893 0.0249271 1.66999)
(0.0645772 0.00542055 1.4381)
(0.0537464 -0.0716461 1.39787)
(0.0149971 -0.00661457 1.41679)
(0.0265162 -0.0370804 1.38497)
(0.0039279 -0.0265639 1.4312)
(0.0139872 0.0111411 1.68173)
(0.0205243 0.0100986 1.63802)
(-0.00991461 -0.0292575 1.55323)
(0.0327939 -0.00780451 1.62147)
(0.0670254 0.039647 1.66992)
(-0.0217505 -0.0199854 1.57527)
(0.0567265 0.0379495 1.79557)
(0.0767073 0.0462196 1.76017)
(0.071637 0.0432225 1.73269)
(0.0401977 0.0883703 1.72471)
(0.0118191 0.0263775 1.70193)
(0.00267962 0.0230536 1.54785)
(0.0629943 0.0439068 1.76994)
(0.0643619 0.0340336 1.72974)
(0.0499329 0.0231774 1.71072)
(-0.0442936 0.0214501 1.6605)
(0.0288823 0.0521393 1.6516)
(0.0606553 0.0321428 1.76183)
(0.0499917 0.0131091 1.73018)
(0.0452159 -0.00027519 1.7313)
(0.0429763 -0.0409564 1.66488)
(0.0495918 -0.00750787 1.75197)
(0.0399647 -0.0177128 1.73742)
(0.0206043 -0.0325253 1.62185)
(0.0600825 0.00372313 1.92781)
(0.0068183 -0.00784814 1.91679)
(0.0211958 -0.0139072 1.94928)
(0.0619866 0.00503742 1.91987)
(0.080677 0.0443333 1.86958)
(-0.00177287 0.00498366 1.94596)
(0.0684546 0.0485844 1.82567)
(0.0638337 0.0439802 1.78644)
(0.0512335 0.0502595 1.77673)
(0.0617358 0.0815265 1.79932)
(0.00605647 0.0184095 1.94208)
(0.0137728 0.0381285 1.92983)
(0.0664457 0.0398226 1.79332)
(0.0577175 0.0314961 1.75231)
(0.0455082 0.0246757 1.74939)
(0.0192728 0.0287236 1.78158)
(0.0322193 0.0602215 1.90195)
(0.0664626 0.0297933 1.79168)
(0.058063 0.0192749 1.75263)
(0.0506771 0.0110359 1.74182)
(0.04718 -0.00224699 1.72613)
(0.0710472 0.0219049 1.78329)
(0.0571139 0.00627728 1.75455)
(0.0481956 -0.00328854 1.69817)
(0.0557673 -0.0176359 1.90092)
(-0.018078 -0.0217437 1.91316)
(0.0284557 -0.00230782 1.93101)
(0.0658035 0.0230246 1.89737)
(0.099014 0.0492274 1.86546)
(0.00730709 0.0110923 1.92935)
(0.0703253 0.0495973 1.83479)
(0.0663477 0.0557693 1.80613)
(0.0583059 0.0623224 1.79637)
(0.0649211 0.0737627 1.79764)
(-0.0174861 0.0446165 1.90537)
(0.0260643 0.03941 1.91173)
(0.0769329 0.0399695 1.80824)
(0.0657393 0.0370804 1.77137)
(0.050899 0.0363916 1.76405)
(-0.112679 0.0293587 2.08589)
(0.0459986 0.0716839 1.89563)
(0.0800295 0.0343513 1.80519)
(0.0695005 0.0240521 1.76575)
(0.0598504 0.0147449 1.75144)
(0 0 0)
(0.0887253 0.0541623 1.82108)
(0.0698286 0.0228479 1.77124)
(0 0 0)
(0 0 0)
(0 0 0)
(0 0 0)
(0 0 0)
(0 0 0)
(0 0 0)
(0 0 0)
(0 0 0)
(0 0 0)
(0 0 0)
(0 0 0)
(0 0 0)
(0 0 0)
(0 0 0)
(0 0 0)
(0 0 0)
(0 0 0)
(0 0 0)
(0 0 0)
(0 0 0)
(0 0 0)
(0 0 0)
(0 0 0)
(0 0 0)
(0 0 0)
(0 0 0)
(0 0 0)
(0 0 0)
(0 0 0)
(0 0 0)
(0 0 0)
(0 0 0)
(0 0 0)
(0 0 0)
(0 0 0)
(0 0 0)
(0 0 0)
(0 0 0)
(0 0 0)
(0 0 0)
(0 0 0)
(0 0 0)
(0 0 0)
(0 0 0)
(0 0 0)
(0 0 0)
(0 0 0)
(0 0 0)
(0 0 0)
(0 0 0)
(0 0 0)
(0 0 0)
(0 0 0)
(0 0 0)
(0 0 0)
(0 0 0)
(0 0 0)
(0 0 0)
(0 0 0)
(0 0 0)
(0 0 0)
(0 0 0)
(0 0 0)
(0 0 0)
(0 0 0)
(0 0 0)
(0 0 0)
(0 0 0)
(0 0 0)
(0 0 0)
(0 0 0)
(0 0 0)
(0 0 0)
(0 0 0)
(0 0 0)
(0 0 0)
(0 0 0)
(0 0 0)
(0 0 0)
(0 0 0)
(0 0 0)
(0 0 0)
(0 0 0)
(0 0 0)
(0 0 0)
(0 0 0)
(0 0 0)
(0 0 0)
(0 0 0)
(0 0 0)
(0 0 0)
(0 0 0)
(0 0 0)
(0 0 0)
(0 0 0)
(0 0 0)
(0 0 0)
(0 0 0)
(0 0 0)
(0 0 0)
(0 0 0)
(0 0 0)
(0 0 0)
(0 0 0)
(0 0 0)
(0 0 0)
(0 0 0)
(0 0 0)
(0 0 0)
(0 0 0)
(0 0 0)
(0 0 0)
(0 0 0)
(0 0 0)
(0 0 0)
(0 0 0)
(0 0 0)
(0 0 0)
(0 0 0)
(0 0 0)
(0 0 0)
(0 0 0)
(0 0 0)
(0 0 0)
(0 0 0)
(0 0 0)
(0 0 0)
(0 0 0)
(0 0 0)
(0 0 0)
(0 0 0)
(0 0 0)
(0 0 0)
(0 0 0)
(0 0 0)
(0 0 0)
(0 0 0)
(0 0 0)
(0 0 0)
(0 0 0)
(0 0 0)
(0 0 0)
(0 0 0)
(0 0 0)
(0 0 0)
(0 0 0)
(0 0 0)
(0 0 0)
(0 0 0)
(0 0 0)
(0 0 0)
(0 0 0)
(0 0 0)
(0 0 0)
(0 0 0)
(0 0 0)
(0 0 0)
(0 0 0)
(0 0 0)
(0 0 0)
(0 0 0)
(0 0 0)
(0 0 0)
(0 0 0)
(0 0 0)
(0 0 0)
(0 0 0)
(0 0 0)
(0 0 0)
(0 0 0)
(0 0 0)
(0 0 0)
(0 0 0)
(0 0 0)
(0 0 0)
(0 0 0)
(0 0 0)
(0 0 0)
(0 0 0)
(0 0 0)
(0 0 0)
(0 0 0)
(0 0 0)
(0 0 0)
(0 0 0)
(0 0 0)
(0 0 0)
(0 0 0)
(0 0 0)
(0 0 0)
(0 0 0)
(0 0 0)
(0 0 0)
(0 0 0)
(0 0 0)
(0 0 0)
(0 0 0)
(0 0 0)
(0 0 0)
(0 0 0)
(0 0 0)
(0 0 0)
(0 0 0)
(0 0 0)
(0 0 0)
(0 0 0)
(0 0 0)
(0 0 0)
(0 0 0)
(0 0 0)
(0 0 0)
(0 0 0)
(0 0 0)
(0 0 0)
(0 0 0)
(0 0 0)
(0 0 0)
(0 0 0)
(0 0 0)
(0 0 0)
(0 0 0)
(0 0 0)
(0 0 0)
(0 0 0)
(0 0 0)
(0 0 0)
(0 0 0)
(0 0 0)
(0 0 0)
(0 0 0)
(0 0 0)
(0 0 0)
(0 0 0)
(0 0 0)
(0 0 0)
(0 0 0)
(0 0 0)
(0 0 0)
(0 0 0)
(0 0 0)
(0 0 0)
(0 0 0)
(0 0 0)
(0 0 0)
(0 0 0)
(0 0 0)
(0 0 0)
(0 0 0)
(0 0 0)
(0 0 0)
(0 0 0)
(0 0 0)
(0 0 0)
(0 0 0)
(0 0 0)
(0 0 0)
(0 0 0)
(0 0 0)
(0 0 0)
(0 0 0)
(0 0 0)
(0 0 0)
(0 0 0)
(0 0 0)
(0 0 0)
(0 0 0)
(0 0 0)
(0 0 0)
(0 0 0)
(0 0 0)
(0 0 0)
(0 0 0)
(0 0 0)
(0 0 0)
(0 0 0)
(0 0 0)
(0 0 0)
(0 0 0)
(0 0 0)
(0 0 0)
(0 0 0)
(0 0 0)
(0 0 0)
(0 0 0)
(0 0 0)
(0 0 0)
(0 0 0)
(0 0 0)
(0 0 0)
(0 0 0)
(0 0 0)
(0 0 0)
(0 0 0)
(0 0 0)
(0 0 0)
(0 0 0)
(0 0 0)
(0 0 0)
(0 0 0)
(0 0 0)
(0 0 0)
(0 0 0)
(0 0 0)
(0 0 0)
(0 0 0)
(0 0 0)
(0 0 0)
(0 0 0)
(0 0 0)
(0 0 0)
(0 0 0)
(0 0 0)
(0 0 0)
(0 0 0)
(0 0 0)
(0 0 0)
(0 0 0)
(0 0 0)
(0 0 0)
(0 0 0)
(0 0 0)
(0 0 0)
(0 0 0)
(0 0 0)
(0 0 0)
(0 0 0)
(0 0 0)
(0 0 0)
(0 0 0)
(0 0 0)
(0 0 0)
(0 0 0)
(0 0 0)
(0 0 0)
(0 0 0)
(0 0 0)
(0 0 0)
(0 0 0)
(0 0 0)
(0 0 0)
(0 0 0)
(0 0 0)
(0 0 0)
(0 0 0)
(0 0 0)
(0 0 0)
(0 0 0)
(0 0 0)
(0 0 0)
(0 0 0)
(0 0 0)
(0 0 0)
(0 0 0)
(0 0 0)
(0 0 0)
(0 0 0)
(0 0 0)
(0 0 0)
(0 0 0)
(0 0 0)
(0 0 0)
(0 0 0)
(0 0 0)
(0 0 0)
(0 0 0)
(0 0 0)
(0 0 0)
(0 0 0)
(0 0 0)
(0 0 0)
(0 0 0)
(0 0 0)
(0 0 0)
(0 0 0)
(0 0 0)
(0 0 0)
(0 0 0)
(0 0 0)
(0 0 0)
(0 0 0)
(0 0 0)
(0 0 0)
(0 0 0)
(0 0 0)
(0 0 0)
(0 0 0)
(0 0 0)
(0 0 0)
(0 0 0)
(0 0 0)
(0 0 0)
(0 0 0)
(0 0 0)
(0 0 0)
(0 0 0)
(0 0 0)
(0 0 0)
(0 0 0)
(0 0 0)
(0 0 0)
(0 0 0)
(0 0 0)
(0 0 0)
(0 0 0)
(0 0 0)
(0 0 0)
(0 0 0)
(0 0 0)
(0 0 0)
(0 0 0)
(0 0 0)
(0 0 0)
(0 0 0)
(0 0 0)
(0 0 0)
(0 0 0)
(0 0 0)
(0 0 0)
(0 0 0)
(0 0 0)
(0 0 0)
(0 0 0)
(0 0 0)
(0 0 0)
(0 0 0)
(0 0 0)
(0 0 0)
(0 0 0)
(0 0 0)
(0 0 0)
(0 0 0)
(0 0 0)
(0 0 0)
(0 0 0)
(0 0 0)
(0 0 0)
(0 0 0)
(0 0 0)
(0 0 0)
(0 0 0)
(0 0 0)
(0 0 0)
(0 0 0)
(0 0 0)
(0 0 0)
(0 0 0)
(0 0 0)
(0 0 0)
(0 0 0)
(0 0 0)
(0 0 0)
(0 0 0)
(0 0 0)
(0 0 0)
(0 0 0)
(0 0 0)
(0 0 0)
(0 0 0)
(0 0 0)
(0 0 0)
(0 0 0)
(0 0 0)
(0 0 0)
(0 0 0)
(0 0 0)
(0 0 0)
(0 0 0)
(0 0 0)
(0 0 0)
(0 0 0)
(0 0 0)
(0 0 0)
(0 0 0)
(0 0 0)
(0 0 0)
(0 0 0)
(0 0 0)
(0 0 0)
(0 0 0)
(0 0 0)
(0 0 0)
(0 0 0)
(0 0 0)
(0 0 0)
(0 0 0)
(0 0 0)
(0 0 0)
(0 0 0)
(0 0 0)
(0 0 0)
(0 0 0)
(0 0 0)
(0 0 0)
(0 0 0)
(0 0 0)
(0 0 0)
(0 0 0)
(0 0 0)
(0 0 0)
(0 0 0)
(0 0 0)
(0 0 0)
(0 0 0)
(0 0 0)
(0 0 0)
(0 0 0)
(0 0 0)
(0 0 0)
(0 0 0)
(0 0 0)
(0 0 0)
(0 0 0)
(0 0 0)
(0 0 0)
(0 0 0)
(0 0 0)
(0 0 0)
(0 0 0)
(0 0 0)
(0 0 0)
(0 0 0)
(0 0 0)
(0 0 0)
(0 0 0)
(0 0 0)
(0 0 0)
(0 0 0)
(0 0 0)
(0 0 0)
(0 0 0)
(0 0 0)
(0 0 0)
(0 0 0)
(0 0 0)
(0 0 0)
(0 0 0)
(0 0 0)
(0 0 0)
(0 0 0)
(0 0 0)
(0 0 0)
(0 0 0)
(0 0 0)
(0 0 0)
(0 0 0)
(0 0 0)
(0 0 0)
(0 0 0)
(0 0 0)
(0 0 0)
(0 0 0)
(0 0 0)
(0 0 0)
(0 0 0)
(0 0 0)
(0 0 0)
(0 0 0)
(0 0 0)
(0 0 0)
(0 0 0)
(0 0 0)
(0 0 0)
(0 0 0)
(0 0 0)
(0 0 0)
(0 0 0)
(0 0 0)
(0 0 0)
(0 0 0)
(0 0 0)
(0 0 0)
(0 0 0)
(0 0 0)
(0 0 0)
(0 0 0)
(0 0 0)
(0 0 0)
(0 0 0)
(0 0 0)
(0 0 0)
(0 0 0)
(0 0 0)
(0 0 0)
(0 0 0)
(0 0 0)
(0 0 0)
(0 0 0)
(0 0 0)
(0 0 0)
(0 0 0)
(0 0 0)
(0 0 0)
(0 0 0)
(0 0 0)
(0 0 0)
(0 0 0)
(0 0 0)
(0 0 0)
(0 0 0)
(0 0 0)
(0 0 0)
(0 0 0)
(0 0 0)
(0 0 0)
(0 0 0)
(0 0 0)
(0 0 0)
(0 0 0)
(0 0 0)
(0 0 0)
(0 0 0)
(0 0 0)
(0 0 0)
(0 0 0)
(0 0 0)
(0 0 0)
(0 0 0)
(0 0 0)
(0 0 0)
(0 0 0)
(0 0 0)
(0 0 0)
(0 0 0)
(0 0 0)
(0 0 0)
(0 0 0)
(0 0 0)
(0 0 0)
(0 0 0)
(0 0 0)
(0 0 0)
(0 0 0)
(0 0 0)
(0 0 0)
(0 0 0)
(0 0 0)
(0 0 0)
(0 0 0)
(0 0 0)
(0 0 0)
(0 0 0)
(0 0 0)
(0 0 0)
(0 0 0)
(0 0 0)
(0 0 0)
(0 0 0)
(0 0 0)
(0 0 0)
(0 0 0)
(0 0 0)
(0 0 0)
(0 0 0)
(0 0 0)
(0 0 0)
(0 0 0)
(0 0 0)
(0 0 0)
(0 0 0)
(0 0 0)
(0 0 0)
(0 0 0)
(0 0 0)
(0 0 0)
(0 0 0)
(0 0 0)
(0 0 0)
(0 0 0)
(0 0 0)
(0 0 0)
(0 0 0)
(0 0 0)
(0 0 0)
(0 0 0)
(0 0 0)
(0 0 0)
(0 0 0)
(0 0 0)
(0 0 0)
(0 0 0)
(0 0 0)
(0 0 0)
(0 0 0)
(0 0 0)
(0 0 0)
(0 0 0)
(0 0 0)
(0 0 0)
(0 0 0)
(0 0 0)
(0 0 0)
(0 0 0)
(0 0 0)
(0 0 0)
(0 0 0)
(0 0 0)
(0 0 0)
(0 0 0)
(0 0 0)
(0 0 0)
(0 0 0)
(0 0 0)
(0 0 0)
(0 0 0)
(0 0 0)
(0 0 0)
(0 0 0)
(0 0 0)
(0 0 0)
(0 0 0)
(0 0 0)
(0 0 0)
(0 0 0)
(0 0 0)
(0 0 0)
(0 0 0)
(0 0 0)
(0 0 0)
(0 0 0)
(0 0 0)
(0 0 0)
(0 0 0)
(0 0 0)
(0 0 0)
(0 0 0)
(0 0 0)
(0 0 0)
(0 0 0)
(0 0 0)
(0 0 0)
(0 0 0)
(0 0 0)
(0 0 0)
(0 0 0)
(0 0 0)
(0 0 0)
(0 0 0)
(0 0 0)
(0 0 0)
(0 0 0)
(0 0 0)
(0 0 0)
(0 0 0)
(0 0 0)
(0 0 0)
(0 0 0)
(0 0 0)
(0 0 0)
(0 0 0)
(0 0 0)
(0 0 0)
(0 0 0)
(0 0 0)
(0 0 0)
(0 0 0)
(0 0 0)
(0 0 0)
(0 0 0)
(0 0 0)
(0 0 0)
(0 0 0)
(0 0 0)
(0 0 0)
(0 0 0)
(0 0 0)
(0 0 0)
(0 0 0)
(0 0 0)
(0 0 0)
(0 0 0)
(0 0 0)
(0 0 0)
(0 0 0)
(0 0 0)
(0 0 0)
(0 0 0)
(0 0 0)
(0 0 0)
(0 0 0)
(0 0 0)
(0 0 0)
(0 0 0)
(0 0 0)
(0 0 0)
(0 0 0)
(0 0 0)
(0 0 0)
(0 0 0)
(0 0 0)
(0 0 0)
(0 0 0)
(0 0 0)
(0 0 0)
(0 0 0)
(0 0 0)
(0 0 0)
(0 0 0)
(0 0 0)
(0 0 0)
(0 0 0)
(0 0 0)
(0 0 0)
(0 0 0)
(0 0 0)
(0 0 0)
(0 0 0)
(0 0 0)
(0 0 0)
(0 0 0)
(0 0 0)
(0 0 0)
(0 0 0)
(0 0 0)
(0 0 0)
(0 0 0)
(0 0 0)
(0 0 0)
(0 0 0)
(0 0 0)
(0 0 0)
(0 0 0)
(0 0 0)
(0 0 0)
(0 0 0)
(0 0 0)
(0 0 0)
(0 0 0)
(0 0 0)
(0 0 0)
(0 0 0)
(0 0 0)
(0 0 0)
(0 0 0)
(0 0 0)
(0 0 0)
(0 0 0)
(0 0 0)
(0 0 0)
(0 0 0)
(0 0 0)
(0 0 0)
(0 0 0)
(0 0 0)
(0 0 0)
(0 0 0)
(0 0 0)
(0 0 0)
(0 0 0)
(0 0 0)
(0 0 0)
(0 0 0)
(0 0 0)
(0 0 0)
(0 0 0)
(0 0 0)
(0 0 0)
(0 0 0)
(0 0 0)
(0 0 0)
(0 0 0)
(0 0 0)
(0 0 0)
(0 0 0)
(0 0 0)
(0 0 0)
(0 0 0)
(0 0 0)
(0 0 0)
(0 0 0)
(0 0 0)
(0 0 0)
(0 0 0)
(0 0 0)
(0 0 0)
(0 0 0)
(0 0 0)
(0 0 0)
(0 0 0)
(0 0 0)
(0 0 0)
(0 0 0)
(0 0 0)
(0 0 0)
(0 0 0)
(0 0 0)
(0 0 0)
(0 0 0)
(0 0 0)
(0 0 0)
(0 0 0)
(0 0 0)
(0 0 0)
(0 0 0)
(0 0 0)
(0 0 0)
(0 0 0)
(0 0 0)
(0 0 0)
(0 0 0)
(0 0 0)
(0 0 0)
(0 0 0)
(0 0 0)
(0 0 0)
(0 0 0)
(0 0 0)
(0 0 0)
(0 0 0)
(0 0 0)
(0 0 0)
(0 0 0)
(0 0 0)
(0 0 0)
(0 0 0)
(0 0 0)
(0 0 0)
(0 0 0)
(0 0 0)
(0 0 0)
(0 0 0)
(0 0 0)
(0 0 0)
(0 0 0)
(0 0 0)
(0 0 0)
(0 0 0)
(0 0 0)
(0 0 0)
(0 0 0)
(0 0 0)
(0 0 0)
(0 0 0)
(0 0 0)
(0 0 0)
(0 0 0)
(0 0 0)
(0 0 0)
(0 0 0)
(0 0 0)
(0 0 0)
(0 0 0)
(0 0 0)
(0 0 0)
(0 0 0)
(0 0 0)
(0 0 0)
(0 0 0)
(0 0 0)
(0 0 0)
(0 0 0)
(0 0 0)
(0 0 0)
(0 0 0)
(0 0 0)
(0 0 0)
(0 0 0)
(0 0 0)
(0 0 0)
(0 0 0)
(0 0 0)
(0 0 0)
(0 0 0)
(0 0 0)
(0 0 0)
(0 0 0)
(0 0 0)
(0 0 0)
(0 0 0)
(0 0 0)
(0 0 0)
(0 0 0)
(0 0 0)
(0 0 0)
(0 0 0)
(0 0 0)
(0 0 0)
(0 0 0)
(0 0 0)
(0 0 0)
(0 0 0)
(0 0 0)
(0 0 0)
(0 0 0)
(0 0 0)
(0 0 0)
(0 0 0)
(0 0 0)
(0 0 0)
(0 0 0)
(0 0 0)
(0 0 0)
(0 0 0)
(0 0 0)
(0 0 0)
(0 0 0)
(0 0 0)
(0 0 0)
(0 0 0)
(0 0 0)
(0 0 0)
(0 0 0)
(0 0 0)
(0 0 0)
(0 0 0)
(0 0 0)
(0 0 0)
(0 0 0)
(0 0 0)
(0 0 0)
(0 0 0)
(0 0 0)
(0 0 0)
(0 0 0)
(0 0 0)
(0 0 0)
(0 0 0)
(0 0 0)
(0 0 0)
(0 0 0)
(0 0 0)
(0 0 0)
(0 0 0)
(0 0 0)
(0 0 0)
(0 0 0)
(0 0 0)
(0 0 0)
(0 0 0)
(0 0 0)
(0 0 0)
(0 0 0)
(0 0 0)
(0 0 0)
(0 0 0)
(0 0 0)
(0 0 0)
(0 0 0)
(0 0 0)
(0 0 0)
(0 0 0)
(0 0 0)
(0 0 0)
(0 0 0)
(0 0 0)
(0 0 0)
(0 0 0)
(0 0 0)
(0 0 0)
(0 0 0)
(0 0 0)
(0 0 0)
(0 0 0)
(0 0 0)
(0 0 0)
(0 0 0)
(0 0 0)
(0 0 0)
(0 0 0)
(0 0 0)
(0 0 0)
(0 0 0)
(0 0 0)
(0 0 0)
(0 0 0)
(0 0 0)
(0 0 0)
(0 0 0)
(0 0 0)
(0 0 0)
(0 0 0)
(0 0 0)
(0 0 0)
(0 0 0)
(0 0 0)
(0 0 0)
(0 0 0)
(0 0 0)
(0 0 0)
(0 0 0)
(0 0 0)
(0 0 0)
(0 0 0)
(0 0 0)
(0 0 0)
(0 0 0)
(0 0 0)
(0 0 0)
(0 0 0)
(0 0 0)
(0 0 0)
(0 0 0)
(0 0 0)
(0 0 0)
(0 0 0)
(0 0 0)
(0 0 0)
(0 0 0)
(0 0 0)
(0 0 0)
(0 0 0)
(0 0 0)
(0 0 0)
(0 0 0)
(0 0 0)
(0 0 0)
(0 0 0)
(0 0 0)
(0 0 0)
(0 0 0)
(0 0 0)
(0 0 0)
(0 0 0)
(0 0 0)
(0 0 0)
(0 0 0)
(0 0 0)
(0 0 0)
(0 0 0)
(0 0 0)
(0 0 0)
(0 0 0)
(0 0 0)
(0 0 0)
(0 0 0)
(0 0 0)
(0 0 0)
(0 0 0)
(0 0 0)
(0 0 0)
(0 0 0)
(0 0 0)
(0 0 0)
(0 0 0)
(0 0 0)
(0 0 0)
(0 0 0)
(0 0 0)
(0 0 0)
(0 0 0)
(0 0 0)
(0 0 0)
(0 0 0)
(0 0 0)
(0 0 0)
(0 0 0)
(0 0 0)
(0 0 0)
(0 0 0)
(0 0 0)
(0 0 0)
(0 0 0)
(0 0 0)
(0 0 0)
(0 0 0)
(0 0 0)
(0 0 0)
(0 0 0)
(0 0 0)
(0 0 0)
(0 0 0)
(0 0 0)
(0 0 0)
(0 0 0)
(0 0 0)
(0 0 0)
(0 0 0)
(0 0 0)
(0 0 0)
(0 0 0)
(0 0 0)
(0 0 0)
(0 0 0)
(0 0 0)
(0 0 0)
(0 0 0)
(0 0 0)
(0 0 0)
(0 0 0)
(0 0 0)
(0 0 0)
(0 0 0)
(0 0 0)
(0 0 0)
(0 0 0)
(0 0 0)
(0 0 0)
(0 0 0)
(0 0 0)
(0 0 0)
(0 0 0)
(0 0 0)
(0 0 0)
(0 0 0)
(0 0 0)
(0 0 0)
(0 0 0)
(0 0 0)
(0 0 0)
(0 0 0)
(0 0 0)
(0 0 0)
(0 0 0)
(0 0 0)
(0 0 0)
(0 0 0)
(0 0 0)
(0 0 0)
(0 0 0)
(0 0 0)
(0 0 0)
(0 0 0)
(0 0 0)
(0 0 0)
(0 0 0)
(0 0 0)
(0 0 0)
(0 0 0)
(0 0 0)
(0 0 0)
(0 0 0)
(0 0 0)
(0 0 0)
(0 0 0)
(0 0 0)
(0 0 0)
(0 0 0)
(0 0 0)
(0 0 0)
(0 0 0)
(0 0 0)
(0 0 0)
(0 0 0)
(0 0 0)
(0 0 0)
(0 0 0)
(0 0 0)
(0 0 0)
(0 0 0)
(0 0 0)
(0 0 0)
(0 0 0)
(0 0 0)
(0 0 0)
(0 0 0)
(0 0 0)
(0 0 0)
(0 0 0)
(0 0 0)
(0 0 0)
(0 0 0)
(0 0 0)
(0 0 0)
(0 0 0)
(0 0 0)
(0 0 0)
(0 0 0)
(0 0 0)
(0 0 0)
(0 0 0)
(0 0 0)
(0 0 0)
(0 0 0)
(0 0 0)
(0 0 0)
(0 0 0)
(0 0 0)
(0 0 0)
(0 0 0)
(0 0 0)
(0 0 0)
(0 0 0)
(0 0 0)
(0 0 0)
(0 0 0)
(0 0 0)
(0 0 0)
(0 0 0)
(0 0 0)
(0 0 0)
(0 0 0)
(0 0 0)
(0 0 0)
(0 0 0)
(0 0 0)
(0 0 0)
(0 0 0)
(0 0 0)
(0 0 0)
(0 0 0)
(0 0 0)
(0 0 0)
(0 0 0)
(0 0 0)
(0 0 0)
(0 0 0)
(0 0 0)
(0 0 0)
(0 0 0)
(0 0 0)
(0 0 0)
(0 0 0)
(0 0 0)
(0 0 0)
(0 0 0)
(0 0 0)
(0 0 0)
(0 0 0)
(0 0 0)
(0 0 0)
(0 0 0)
(0 0 0)
(0 0 0)
(0 0 0)
(0 0 0)
(0 0 0)
(0 0 0)
(0 0 0)
(0 0 0)
(0 0 0)
(0 0 0)
(0 0 0)
(0 0 0)
(0 0 0)
(0 0 0)
(0 0 0)
(0 0 0)
(0 0 0)
(0 0 0)
(0 0 0)
(0 0 0)
(0 0 0)
(0 0 0)
(0 0 0)
(0 0 0)
(0 0 0)
(0 0 0)
(0 0 0)
(0 0 0)
(0 0 0)
(0 0 0)
(0 0 0)
(0 0 0)
(0 0 0)
(0 0 0)
(0 0 0)
(0 0 0)
(0 0 0)
(0 0 0)
(0 0 0)
(0 0 0)
(0 0 0)
(0 0 0)
(0 0 0)
(0 0 0)
(0 0 0)
(0 0 0)
(0 0 0)
(0 0 0)
(0 0 0)
(0 0 0)
(0 0 0)
(0 0 0)
(0 0 0)
(0 0 0)
(0 0 0)
(0 0 0)
(0 0 0)
(0 0 0)
(0 0 0)
(0 0 0)
(0 0 0)
(0 0 0)
(0 0 0)
(0 0 0)
(0 0 0)
(0 0 0)
(0 0 0)
(0 0 0)
(0 0 0)
(0 0 0)
(0 0 0)
(0 0 0)
(0 0 0)
(0 0 0)
(0 0 0)
(0 0 0)
(0 0 0)
(0 0 0)
(0 0 0)
(0 0 0)
(0 0 0)
(0 0 0)
(0 0 0)
(0 0 0)
(0 0 0)
(0 0 0)
(0 0 0)
(0 0 0)
(0 0 0)
(0 0 0)
(0 0 0)
(0 0 0)
(0 0 0)
(0 0 0)
(0 0 0)
(0 0 0)
(0 0 0)
(0 0 0)
(0 0 0)
(0 0 0)
(0 0 0)
(0 0 0)
(0 0 0)
(0 0 0)
(0 0 0)
(0 0 0)
(0 0 0)
(0 0 0)
(0 0 0)
(0 0 0)
(0 0 0)
(0 0 0)
(0 0 0)
(0 0 0)
(0 0 0)
(0 0 0)
(0 0 0)
(0 0 0)
(0 0 0)
(0 0 0)
(0 0 0)
(0 0 0)
(0 0 0)
(0 0 0)
(0 0 0)
(0 0 0)
(0 0 0)
(0 0 0)
(0 0 0)
(0 0 0)
(0 0 0)
(0 0 0)
(0 0 0)
(0 0 0)
(0 0 0)
(0 0 0)
(0 0 0)
(0 0 0)
(0 0 0)
(0 0 0)
(0 0 0)
(0 0 0)
(0 0 0)
(0 0 0)
(0 0 0)
(0 0 0)
(0 0 0)
(0 0 0)
(0 0 0)
(0 0 0)
(0 0 0)
(0 0 0)
(0 0 0)
(0 0 0)
(0 0 0)
(0 0 0)
(0 0 0)
(0 0 0)
(0 0 0)
(0 0 0)
(0 0 0)
(0 0 0)
(0 0 0)
(0.0160367 0.0288339 -0.0267938)
(0.000768842 0.0306112 -0.0201201)
(0.00673233 0.0384693 -0.0208406)
(0.0122094 0.0453511 -0.0086501)
(-0.00295748 0.0288314 -0.00893572)
(-0.00782454 0.041276 -0.0107587)
(-0.00635019 0.032533 -0.0116867)
(-0.012228 0.0287739 -0.0211991)
(0.0352522 0.0233584 -0.0267016)
(0.0264984 0.0238746 -0.0401462)
(0.0250322 0.0215442 -0.00843255)
(0.0261152 0.0260551 -0.0284881)
(0 0 0)
(0 0 0)
(0 0 0)
(0 0 0)
(0 0 0)
(0 0 0)
(0 0 0)
(0 0 0)
(0 0 0)
(-0.0145197 0.0311854 -0.0275851)
(-0.0214208 0.026091 -0.0245258)
(0 0 0)
(-0.0307765 0.027374 -0.0291556)
(-0.0295152 0.024516 -0.0328949)
(0.0359759 0.00826427 -0.0124262)
(0.0288995 0.00304902 -0.0216691)
(0.0408333 0.00712636 -0.0276989)
(0 0 0)
(0 0 0)
(0 0 0)
(0 0 0)
(0 0 0)
(0 0 0)
(0 0 0)
(0 0 0)
(0 0 0)
(0 0 0)
(0 0 0)
(0 0 0)
(0 0 0)
(0 0 0)
(0 0 0)
(0 0 0)
(-0.0333076 0.019281 -0.0133677)
(-0.036545 0.0126391 -0.0319395)
(-0.0198118 0.00230378 -0.0211174)
(0.0242397 -0.00376921 -0.0125322)
(0.0446843 -0.00211177 -0.0176147)
(0.0282559 -0.00487017 -0.0188801)
(0 0 0)
(0 0 0)
(0 0 0)
(0 0 0)
(0 0 0)
(0 0 0)
(0 0 0)
(0 0 0)
(0 0 0)
(0 0 0)
(0 0 0)
(0 0 0)
(0 0 0)
(0 0 0)
(0 0 0)
(0 0 0)
(-0.0396073 -0.0170065 -0.0048514)
(-0.0279019 -0.00538481 -0.0278023)
(-0.0366559 -0.0123446 -0.0111876)
(0.0315246 -0.020102 -0.0218288)
(0.0283421 -0.030168 -0.004514)
(0 0 0)
(0.0275596 -0.0240515 -0.0326001)
(0.0291011 -0.0259699 -0.0314423)
(0 0 0)
(0 0 0)
(0 0 0)
(0 0 0)
(0 0 0)
(0 0 0)
(0 0 0)
(0 0 0)
(0 0 0)
(-0.031125 -0.0360369 -0.044011)
(-0.0200229 -0.034131 -0.0226742)
(-0.0246 -0.0258315 -0.0338427)
(-0.0275343 -0.0218134 -0.0346263)
(0.0224618 -0.0352388 -0.0138194)
(0.012371 -0.0292404 -0.0125113)
(0.00270836 -0.0449426 -0.032512)
(0.00770613 -0.0238215 -0.0225038)
(0.00254489 -0.0394778 -0.0285618)
(-0.00465126 -0.0312841 -0.0169349)
(-0.00877733 -0.0306036 -0.0269979)
(-0.0168752 -0.031832 -0.0254355)
(0.00237521 0.0145783 -0.118961)
(-0.0156972 0.00234044 -0.0416195)
(0.0122386 0.0062917 -0.087568)
(-0.0133715 0.0241238 -0.0750739)
(-0.00382154 0.019548 -0.0583218)
(0.010188 0.0172679 -0.0314499)
(-0.0312634 0.0163031 -0.0111285)
(-0.0120415 0.0285696 0.0234481)
(0.00512675 0.033742 -0.0782321)
(0.0488043 0.0238267 -0.0775503)
(0.0159024 0.0118262 -0.0234104)
(0.0308751 0.0245643 0.00721603)
(0.054091 0.0318428 -0.00977174)
(0.029684 0.0290286 -0.115215)
(0.0444777 0.0202214 -0.0374239)
(0.018803 -0.0124109 -0.108754)
(0.0112671 -0.0203705 -0.0408486)
(0.0188662 0.0243325 -0.0969268)
(0.0217526 0.0049979 -0.086416)
(0 0 0)
(-0.00118552 -0.00673239 -0.0469957)
(-0.0147423 0.000456153 -0.012204)
(-0.00431859 -0.0259898 -0.014653)
(0 0 0)
(0.00881384 0.0254101 -0.123265)
(0 0 0)
(-0.00357267 0.0379135 -0.0915226)
(0.0364439 0.0231022 -0.0148007)
(0.0223212 0.021068 -0.0462302)
(0 0 0)
(0.00176552 0.0134997 -0.0176804)
(0.00140104 0.0169579 -0.121871)
(0.0151974 0.0156689 -0.0457331)
(0.0387204 -0.0282504 -0.0839913)
(0.0133471 -0.00158621 -0.101478)
(0.027748 -0.00860358 -0.0579369)
(0.0194927 -0.0405865 -0.0013954)
(0.00661927 -0.00285002 -0.0221685)
(0.0177467 -0.000682141 -0.00681259)
(-0.0262436 0.00143167 -0.0638751)
(-0.011389 0.0144436 -0.102243)
(-0.0236947 0.00388487 -0.0219215)
(-0.045633 0.00337991 0.00369966)
(-0.020325 0.0141926 -0.0417581)
(0.0126498 0.0102981 -0.0636181)
(0.0363193 0.0370771 -0.0889565)
(0.0121315 0.00203912 -0.0284487)
(0.0236879 0.0172995 0.0132196)
(0.0392505 0.0441183 -0.00202634)
(-0.0199691 0.00649527 -0.0917841)
(-0.0318397 0.0103754 -0.0925415)
(-0.0360886 0.0146003 -0.0159672)
(-0.0172743 0.00982056 -0.0364353)
(-0.0434096 0.0205474 -0.0229578)
(0.0218254 0.0210685 -0.114659)
(0.0163939 0.0323364 -0.0429802)
(0 0 0)
(0.0128164 0.00909033 -0.124533)
(0.036352 -0.0111072 -0.101635)
(0.0164701 0.0262297 -0.0255791)
(0 0 0)
(0.0122481 0.0165438 -0.0501217)
(0.013245 -0.00162804 -0.0219757)
(-0.00615287 -0.0281196 -0.0931159)
(-0.0114103 -0.0333413 -0.0775859)
(0.00564731 -0.0103444 -0.124334)
(0 0 0)
(-0.0053714 -0.00167175 -0.0270486)
(0.0234308 -0.0137271 -0.0193596)
(0.0128861 -0.011483 -0.0502115)
(0.00186884 -0.00845035 -0.0500741)
(0.00836804 -0.0148782 -0.116137)
(-0.00577864 0.000892626 -0.0422818)
(-0.0053813 -0.0305135 -0.058477)
(0.0170865 -0.00585999 -0.0980043)
(-0.0270232 -0.0135802 -0.0135402)
(-0.00785457 -0.026854 0.00358748)
(0.0098189 -0.00563151 -0.033459)
(0.033573 -0.029398 -0.0863456)
(0.00532841 0.00455948 -0.0935566)
(0.0251765 -0.0258494 0.0098428)
(0.0430957 -0.020376 -0.00644672)
(0.00992902 -0.010537 -0.0198854)
(0.0370268 -0.0156313 -0.0384444)
(-0.0249621 -0.00164689 0.0321409)
(-0.0432776 -0.0186292 0.106011)
(0.00728352 -0.00601142 0.0421675)
(-0.0495335 -0.0135743 0.0652008)
(-0.00890523 0.0206285 0.0642952)
(0.00602602 -0.0325335 0.112003)
(-0.0576407 -0.0408158 0.135583)
(-0.0155841 -0.049062 0.147878)
(0.0373637 0.0124657 0.0709194)
(0.0681493 0.00416579 0.0620469)
(0.0183297 -0.023727 0.109905)
(0.044978 -0.0486069 0.146095)
(0.0612075 -0.0147616 0.126167)
(0.0571819 0.00976779 0.0300532)
(0.061035 -0.00387119 0.0992294)
(-0.00122899 -0.0354296 0.0315741)
(-0.01067 -0.0505109 0.103638)
(-0.023139 -0.00902067 0.0567809)
(-0.0211755 -0.0325618 0.0570643)
(0 0 0)
(-0.0206949 -0.0224254 0.0926054)
(-0.0464032 -0.0430269 0.137859)
(-0.0517707 -0.0684002 0.141461)
(-0.098433 -0.10227 0.216173)
(0.0290516 0.0240739 0.0232612)
(0 0 0)
(0.00813564 0.011595 0.044573)
(0.0772583 -0.0101764 0.127123)
(0.037225 0.0129312 0.0870574)
(0 0 0)
(0.0409901 -0.00274505 0.11771)
(0.0101139 0.00899761 0.0207861)
(0.0113337 0.00191532 0.0871076)
(-0.0174345 -0.0611593 0.0758572)
(-0.0112057 0.00160899 0.0426997)
(0.00931752 -0.0114911 0.060332)
(-0.0356188 -0.0667858 0.13705)
(-0.0313689 0.000542411 0.111142)
(-0.0630172 -0.0201942 0.143681)
(-0.0406171 0.00600239 0.0624714)
(-0.0140023 0.0157522 0.010999)
(0.00396855 -0.0161031 0.111908)
(-0.0207867 0.00832467 0.132636)
(-0.00292844 0.0169343 0.0951779)
(0.00480206 0.0288035 0.080746)
(0.00306436 0.0577802 0.0605206)
(-0.023894 0.0144988 0.106859)
(-0.0566958 0.0362698 0.14006)
(-0.0220108 0.0583695 0.129)
(-0.0126531 -0.00202766 0.0196953)
(-0.0125568 0.0301116 0.0463164)
(-0.0180313 0.0142073 0.129651)
(-0.00468208 0.00482172 0.0935014)
(0.000268433 0.0328153 0.115815)
(0.00712235 0.0547777 0.0328738)
(-0.0050105 0.0601653 0.098229)
(0 0 0)
(0.010861 0.0198978 0.0225666)
(-0.019324 0.027437 0.0551589)
(-0.0313502 0.0808579 0.137)
(0 0 0)
(0.00286218 0.0266821 0.0890413)
(-0.0274142 0.0546435 0.124413)
(-0.00858453 -0.00329618 0.0483339)
(0.0301075 -0.00969947 0.047826)
(0.0164614 -0.0183527 0.0185884)
(0 0 0)
(0.00763612 -0.00552422 0.101786)
(0.0430602 -0.00455263 0.121585)
(0.0202437 -0.00996631 0.0761303)
(-0.00126611 0.0124427 0.0810362)
(-0.0120458 0.00861264 0.0287866)
(-0.0140392 0.0111675 0.0942996)
(0.00509054 -0.0460528 0.0648107)
(0.00714922 0.00246384 0.0388247)
(-0.042604 0.0315595 0.12646)
(-0.0130905 0.0474702 0.14027)
(0.00730474 0.0259171 0.109329)
(0.0645452 -0.00373345 0.0643952)
(0.0149089 -0.00855598 0.0334755)
(0.0409806 0.0436893 0.139797)
(0.0625243 0.0145468 0.121522)
(0.0210113 0.0307382 0.116402)
(0.0506585 -0.00895032 0.0901201)
(-0.0415096 -0.0313066 0.164642)
(-0.0420318 -0.0207851 0.221629)
(0.0076218 -0.0265911 0.16823)
(-0.061064 -0.0606512 0.201172)
(-0.00893031 -0.10259 0.218369)
(0.00704762 -0.041593 0.237654)