/*--------------------------------*- C++ -*----------------------------------*\
| =========                 |                                                 |
| \\      /  F ield         | OpenFOAM: The Open Source CFD Toolbox           |
|  \\    /   O peration     | Version:  5.x                                   |
|   \\  /    A nd           | Web:      www.OpenFOAM.org                      |
|    \\/     M anipulation  |                                                 |
\*---------------------------------------------------------------------------*/
FoamFile
{
    version     2.0;
    format      ascii;
    class       volScalarField;
    location    "0.85";
    object      Ksl;
}
// * * * * * * * * * * * * * * * * * * * * * * * * * * * * * * * * * * * * * //

dimensions      [1 -3 -1 0 0 0 0];

internalField   nonuniform List<scalar> 
10571
(
11461.5
7536.9
11167.1
453.459
7209.57
10828.3
139.236
615.912
3694.06
5686
8660.66
3799.24
1508.09
5911.62
8825.24
8621
5243.1
4252.71
4193.37
9931.19
12568.6
6960.34
4437.58
13141.6
12646.7
14944.5
12630.8
7792.19
7244.45
10922.5
3711.77
1632.25
1288.65
119.94
12829.8
3726.54
753.854
134.775
821.823
354.331
10377.2
123.379
64.5492
532.55
1491.72
1042.15
407.542
6916.9
3453.18
619.011
166.294
421.044
229.894
7339.45
1499.27
991.246
1376.51
145.607
11974.2
459.279
103.445
350.342
2342.8
717.795
69.1521
77.9202
337.139
3149.34
612.23
64.1269
673.036
4138.68
372.868
246.849
132.523
58.029
157.871
92.4918
326.681
204.606
865.307
293.422
2507.01
34.8583
190.652
260.358
2024.87
645.808
40.4144
140.226
428.081
7055.37
503.412
115.024
333.451
3432.39
132.098
134.365
154.838
255.571
116.114
141.515
137.122
262.032
724.472
444.288
27.5348
71.3837
287.862
375.225
1429.21
2262.09
13.6702
124.893
484.18
6865.2
956.535
129.572
261.907
2147.11
172.693
142.232
92.2153
294.358
361.295
114.705
106.713
359.444
284.452
3618.72
10673.1
72.6155
57.3833
246.633
790.392
927.582
6650.32
10774.2
23.7814
86.5325
350.707
3315.2
3459.95
62.8827
193.038
1534.42
117.922
128.485
81.3676
42.1154
153.783
108.445
69.5774
301.352
357.518
2624.83
9895.16
109.796
146.888
170.659
437.657
1070.98
4643.45
9865.97
36.2648
75.1265
238.211
374.266
5921.46
11871.1
67.5195
58.1063
985.451
4.33161
130.658
53.1589
43.9998
50.677
18.6249
49.1838
96.785
134.85
529.976
0
313.362
67.7384
116.06
82.3834
192.426
5585.05
1.52436
32.1895
168.064
132.344
36.498
3644.76
136.858
106.652
88.6819
238.163
80.4967
79.3804
53.993
34.9268
42.2347
55.6957
28.5612
31.4139
22.6921
861.986
0
25.3977
65.6155
49.9096
43.3507
24.161
492.53
0
14.9666
119.667
58.4996
50.2233
368.113
72.6464
48.6258
61.2391
19.6744
83.5753
54.8103
28.8936
39.8952
35.1135
39.2284
22.5105
11.6436
762.066
81.0142
10.1139
18.7131
32.0162
15.2796
460.798
30.0014
84.2682
29.8983
44.7285
279.917
68.8148
10.8808
52.1307
38.9809
44.0692
43.1769
38.9128
31.7919
63.1267
34.1391
18.756
7.42778
549.917
81.107
17.2723
20.6213
22.3231
7.28717
273.423
59.5137
48.4264
24.6947
12.7929
145.738
72.5056
45.5536
16.7608
20.983
34.0758
34.7575
36.1835
34.3865
37.056
36.6448
13.7114
10.9346
311.728
0
37.5032
24.7895
21.9898
6.73812
137.389
32.2868
28.0185
21.5048
20.886
210.125
54.7674
30.8359
18.317
17.7196
20.616
29.6188
17.3666
28.2701
34.0838
29.0468
12.9721
16.4597
104.725
12.7139
15.3252
28.4334
10.3976
7.15995
100.693
64.2587
21.2288
14.1452
9.06407
177.753
37.5973
59.1647
35.6872
17.2537
3.80541
8.28129
7.3575
42.4806
27.7804
10.2355
10.7852
13.0056
23.7445
137.256
17.4508
25.0422
6.01996
7.85925
64.0706
13.8556
21.1602
11.3055
8.45592
152.026
23.5628
34.6995
15.6338
10.8797
25.4628
0.537059
4.73915
29.6712
11.2948
6.0746
7.14245
9.32367
26.594
65.5887
16.6209
12.8413
3.90051
6.39831
22.244
11.6529
14.668
11.2665
8.41474
110.624
27.4384
7.84614
11.2188
0
9.55271
5.88729
7.98911
13.1831
5.8778
7.36974
5.12049
11.3997
20.8892
45.3946
131.835
4.09963
4.0205
11.2229
25.5919
0.283936
6.97205
7.17817
0
66.6307
0.422827
24.8746
0.489225
0
3.67238
5.6068
10.736
17.8313
0
8.24345
9.43783
7.80546
20.1895
67.9611
27.9917
2.84652
3.13576
9.40966
10.1489
4.88362
8.25673
3.57726
8.58029
137.049
16.9519
3.72009
0.297736
0
16.1495
0.354568
10.4794
14.1814
7.66118
8.54178
8.9898
12.3533
22.8892
21.6874
12.3075
1.70039
5.24525
6.43899
14.5605
18.7101
8.24246
2.55156
4.47041
140.33
18.8111
8.77191
20.6502
-2.1335e-13
7.87295
0
5.92358
13.8632
2.24321
10.0728
10.2585
7.63053
20.2091
20.7837
14.8981
5.19788
2.05581
3.57655
23.2852
0
8.19648
3.69441
4.344
104.09
15.6875
0
12.3821
0
0
1.45808
0.902906
8.80028
12.6139
8.01293
8.40331
6.02659
19.0681
-8.96054e-13
12.5122
0.968249
2.3386
4.86208
18.1388
19.756
3.86564
3.68143
0.132271
93.0466
16.9954
5.96855
1.09605
15.3759
33.8742
5.12809
0.668221
9.02025
-7.60314e-13
5.20943
8.38537
8.85023
20.2449
7.50127
12.9591
6.93345
2.62363
3.73845
12.3244
14.1857
4.46223
4.88092
4.71072
36.7876
20.5486
0.844989
15.4668
15.2987
7.29305
0
0
-2.8787e-14
15.4022
3.31193
4.3498
13.2836
8.98298
0
6.61198
8.99237
3.46421
3.55422
18.7347
3.99296
3.81606
4.45077
5.40422
50.7396
-7.1081e-13
5.16466
56.9634
1.14506
0
5.0598
0
5.16592
7.42045
6.60917
7.12253
9.66816
0
0
17.6177
7.87872
8.40536
4.58692
11.034
6.61482
2.95604
10.0381
12.5698
16.5754
6.80798
0
1.27538
0
0
0
0
7.95351
0.254755
2.78984
2.25955
8.45485
1.24321
41.8508
3.59687
2.99288
2.17392
5.90175
15.0819
6.52531
9.52171
4.42096
10.5066
11.6735
6.13185
15.0711
43.8181
0
0
-1.87941e-14
9.19016
4.19317
-1.24715e-13
1.99066
3.9163
3.59696
0
0
8.2958
4.41445
5.39888
7.97713
0
0
7.63476
5.53711
4.77156
7.50932
17.9356
9.62721
21.8339
0
4.81726
7.75058
4.63377
3.87885
0
3.98336
4.00474
4.52089
4.65814
0
9.55239
4.61089
2.70148
5.91633
14.2482
6.27208
6.10296
5.7521
5.27314
23.4128
7.02657
16.1528
21.9146
0
0
0
0
0
0
3.35995
2.74419
0.997877
0
0
0
1.99587
3.50209
4.01597
5.68937
6.51158
2.99868
2.05129
0
12.5628
1.15937
2.08068
3.1917
0
0
0
-6.5248e-13
3.89501
8.79905
1.33375
1.39368
3.38985
3.42989
0
0
1.50545
2.87084
3.89046
0
-4.63978e-13
4.35753
4.1821
15.9052
-1.72074e-13
0
4.95512
22.9729
0
0
0
0
0
4.9584
0.609671
2.17481
0.396232
0
0
6.07341
1.43004
1.58788
2.79559
8.17641
6.51066
3.59856
4.64894
4.15457
7.25807
0
4.77627
0
0
4.77104
0
3.8766
0
0
1.37613
1.68636
0
0
0.887626
0
0
0.438129
1.24528
2.77156
6.90436
3.56205
5.32549
8.48369
7.31491
0
3.85654
11.6766
0
0
4.31249
0
0
0
1.36568
2.09592
0.541844
0.887549
0
0
1.19626
0.404687
2.18199
2.36723
-4.56622e-13
3.18469
1.62148
2.73555
0
0
0.772681
9.98222
0
0
0
0
0
4.34177
0.455345
0
0.648687
0
0
3.60343
1.52829
1.69978
2.10482
0.41719
4.01711
4.13168
0.554972
0
6.34862
0
3.48197
17.9357
0
0
0
0
0
0
0.445846
0
0
0
0
0
0.750797
0.818229
1.27535
0
0
1.17512
1.69596
4.26186
0
0
-1.10994e-13
0
0
0
0
0
0
0
0
0
0
0
0
0
1.28384
0.401792
0
0
0
2.6743
0.546494
0
0
0
0
10.5262
0
0
0
0
0
0
0
0
0
0
0
0
0.387426
1.3013
0
0
0
1.54421
1.68485
4.32066
0
0
0
10.3848
0
0
0
0
0
0
0
0
0
0
0
0
0
0
0
0
0
1.39143
0
0
0
4.93143
1.69248
0
0
0
0
0
0
0
0
0
0
0
0
0
0
0
0
0
2.28099
0.681059
0.0211327
0
0
0
0
0
0
0
0
0
0
0
0
0
0
0
0
0
0
0
0
0
0
0.665981
0.389845
0
0
0
0
0
0
0
0
0
0
0
0
0
0
0
0
0
0
0
0
0
0
1.37053
0
0
0
2.30999
4.67963
0
0
0
0
0
0
0
0
0
0
0
0
0
0
0
0
0
0
0
0
0
0
0
0
0
0
0
0
0
0
0
0
0
0
0
0
0
0
0
0
0
0
0
0
0
0
0
0
0
0
0
0
0
0
0
0
0
0
0
0
0
0
0
0
0
0
0
0
0
0
0
0
0
0
0
0
0
0
0
0
0
0
0
0
0
0
0
0
0
0
0
0
0
0
0
0
0
0
0
0
0
0
0
0
0
0
0
0
0
0
0
0
0
0
0
0
0
0
0
0
0
0
0
0
0
0
0
0
0
0
0
0
0
0
0
0
0
0
0
0
0
0
0
0
0
0
0
0
0
0
0
0
0
0
0
0
0
0
0
0
0
0
0
0
0
0
0
0
0
0
0
0
0
0
0
0
0
0
0
0
0
0
0
0
0
0
0
0
0
0
0
0
0
0
0
0
0
0
0
0.689403
0
0
0
0
0
0
0
0
0
0
0
0
0
0
0
0
0
0
0
0
0
0
0
0
0
0
0
0
0
0
0
0
0
0
0
0
0
0
0
0
0
0
0
0
0
0
0
0
0
0
0
0
0
0
0
0
0
0
0
0
0
0
0
0
0
0
0
0
0
0
0
0
0
0
0
0
0
0
0
0
0
0
0
0
0
0
0
0
0
0
0
0
0
0
0
0
0
0
0
0
0
0
0
0
0
0
0
0
0
0
0
0
0
0
0
0
0
0
0
0
0
0
0
0
0
0
0
0
0
0
0
0
0
0
0
0
0
0
0
0
0
0
0
0
0
0
0
0
0
0
0
0
0
0
0
0
0
0
0
0
0
0
0
0
0
0
0
0
0
0
0
0
0
0
0
0
0
0
0
0
0
0
0
0
0
0
0
0
0
0
0
0
0
0
0
0
0
0
0
0
0
0
0
0
0
0
0
0
0
0
0
0
0
0
0
0
0
0
0
0
0
0
0
0
0
0
0
0
0
0
0
0
0
0
0
0
0
0
0
0
0
0
0
0
0
0
0
0
0
0
0
0
0
0
0
0
0
0
0
0
0
0
0
0
0
0
0
0
0
0
0
0
0
0
0
0
0
0
0
0
0
0
0
0
0
0
0
0
0
0
0
0
0
0
0
0
0
0
0
0
0
0
0
0
0
0
0
0
0
0
0
0
0
0
0
0
0
0
0
0
0
0
0
0
0
0
0
0
0
0
0
0
0
0
0
0
0
0
0
0
0
0
0
0
0
0
0
0
0
0
0
0
0
0
0
0
0
0
0
0
0
0
0
0
0
0
0
0
0
0
0
0
0
0
0
0
0
0
0
0
0
0
0
0
0
0
0
0
0
0
0
0
0
0
0
0
0
0
0
0
0
0
0
0
0
0
0
0
0
0
0
0
0
0
0
0
0
0
0
0
0
0
0
0
0
0
0
0
0
0
0
0
0
0
0
0
0
0
0
0
0
0
0
0
0
0
0
0
0
0
0
0
0
0
0
0
0
0
0
0
0
0
0
0
0
0
0
0
0
0
0
0
0
0
0
0
0
0
0
0
0
0
0
0
0
0
0
0
0
0
0
0
0
0
0
0
0
0
0
0
0
0
0
0
0
0
0
0
0
0
0
0
0
0
0
0
0
0
0
0
0
0
0
0
0
0
0
0
0
0
0
0
0
0
0
0
0
0
0
0
0
0
0
0
0
0
0
0
0
0
0
0
0
0
0
0
0
0
0
0
0
0
0
0
0
0
0
0
0
0
0
0
0
0
0
0
0
0
0
0
0
0
0
0
0
0
0
0
0
0
0
0
0
0
0
0
0
0
0
0
0
0
0
0
0
0
0
0
0
0
0
0
0
0
0
0
0
0
0
0
0
0
0
0
0
0
0
0
0
0
0
0
0
0
0
0
0
0
0
0
0
0
0
0
0
0
0
0
0
0
0
0
0
0
0
0
0
0
0
0
0
0
0
0
0
0
0
0
0
0
0
0
0
0
4188.36
5830.73
5263.19
6990.54
4070.83
7036.58
7050.82
6719.35
2755.42
2895.66
4905.06
3440.55
5709.51
7021.33
4331.59
3846.19
1065.19
2240.43
396.163
173.45
0
1667.55
4264.5
45.6102
2902.27
5691.6
1061.41
2219.64
1653.61
4136.96
2386.31
4079.64
1988.67
565.372
46.6864
265.375
94.3903
0
170.475
137.258
662.48
1187.84
4349.9
4881.26
7948.41
6684.8
8330.29
7736.22
1659.78
3970.31
5386.9
4401.33
3061.56
3013.99
869.947
256.576
464.517
616.561
1131.97
801.119
1380.48
1909.2
4456.46
5141.09
9008.43
6427.42
9630.98
7486.33
4926.34
9575.57
6506.12
4299.7
1156.76
6001.82
2523.09
1550.99
2946.32
1605.21
3721.02
3922.13
6567.17
6609.1
9467.71
9539.79
10455.3
10626.6
10758.2
10961.2
4560.64
3353.44
4869.34
6258.6
8060.05
10083.2
7537.56
10489.9
8595.15
14359.4
10294.5
11574.5
12164.5
12764.6
13026.8
12820.5
10213
10196.9
12038.8
11733.3
11180.1
10807.3
12591.8
5255.85
12391.5
10799.6
9574.85
10717.6
13735.3
13151.9
12837.8
11739.9
10195.8
2061.09
8254.74
10050
11359.2
4051.92
3856.35
7815.35
2902.12
6327.53
6280.23
9246.36
12370.2
14389.8
12585.1
7828.11
8076.14
785.483
377.289
761.292
9855.61
8722.27
11957.9
11354
10812.4
8243.09
9766.44
383.101
773.443
1408.17
10906.4
11672.5
2086.06
8927.79
4370.49
9551.88
4710.73
10864.1
7182.11
12720.8
12804.9
13239.1
499.45
8230.15
7394.99
11617.2
6639.95
9073.64
11044
5069.24
6263.98
5995.22
1290.52
1526.63
11159.2
5100.16
389.56
4081.86
327.624
11363.6
14233
5673.91
13186.5
12102.6
12151.1
13960.7
6482.07
10230.3
11912.7
11479.4
11929.2
11951.8
8975.99
13281.8
2707.22
14360
15203.7
13527.6
13286.1
11993.9
11990.6
5117.05
11939.5
8460.81
3115.67
1507.54
809.94
1248.93
263.716
1791.23
258.62
273.019
156.07
12075.3
13816.3
11672.6
11495.8
12474.3
10464.1
121.773
1.06992
135.928
254.952
0
11449.7
10756.3
11955.1
9593.34
9945.96
0
681.448
766.673
0
364.733
12790.1
9864.42
1179.53
12778.1
4403.59
3844.01
327.093
1905.48
345.987
7627.8
4527.39
5970.2
1497.97
8872.57
4752.47
4075.02
862.311
5729.95
100.995
236.24
140.943
137.491
82.5083
70.0936
1734.7
154.783
448.446
1647.51
135.511
6164.86
221.826
141.045
2824.52
172.132
933.85
127.203
91.7012
58.0645
2126.03
773.672
161.828
101.721
46.5999
162.129
83.8109
8816.18
826.777
187.793
2885.62
807.139
129.218
153.126
162.402
222.054
144.582
1491.77
197.869
152.88
123.671
1036.04
303.604
131.453
94.7696
11295.6
11426.9
7958.93
5179.68
12882.9
4244.36
734.155
0
172.776
1044.2
0
4267.58
3113.47
11804.5
1033.91
383.536
0
195.056
549.977
0
301.613
686.545
98.2423
40.1319
-5.06264e-13
25.7802
33.8688
5.17843
33.3221
33.4734
8165.69
5153.42
4753.81
5108.93
6640.87
5672.57
5189.46
560.025
120.391
95.0526
76.0645
44.9817
107.612
142.736
103.255
1432.98
381.623
476.456
915.092
574.035
4497.08
281.939
152.704
450.136
248.141
340.976
669.673
219.552
552.842
205.834
67.8711
532.312
708.709
166.836
82.8088
65.3348
159.361
127.374
209.681
167.25
113.993
148.611
146.213
110.686
103.431
144.622
928.279
321.374
197.413
180.479
722.754
214.655
39.9708
69.9131
255.713
5499.72
777.705
76.5156
158.55
92.4446
890.549
0.815724
347.221
1016.64
8.29837
294.974
88.9078
185.412
104.479
32.7803
16.7935
416.641
1019.99
80.5241
704.251
32.1648
25.027
9.86298
25.3841
41.1926
29.6044
7.62398
55.33
34.4171
6786.78
5209.63
5655.86
8187.23
7697.46
4321.47
5742.68
899.35
90.5918
97.9174
70.9354
39.7323
55.9092
126.877
147.238
733.028
407.907
386.018
659.877
506.949
2354.94
126.268
64.6799
214.415
104.302
167.945
95.2351
41.4992
97.2324
213.121
324.936
170.648
218.121
394.451
220.021
422.416
68.5481
123.158
112.981
148.24
143.31
91.428
123.164
147.491
81.3593
124.189
763.803
196.607
255.794
284.707
588.597
533.208
44.1438
320.664
77.009
12.1905
45.9044
83.5048
43.917
74.9376
1886.43
178.467
1125.84
4189.43
759.195
40.5503
44.006
21.6462
41.7949
21.3688
281.127
1471.49
4778.21
804.198
2872.69
46.5379
0
2.34971
12.4514
43.8302
20.0436
0.508657
44.4426
29.4785
8630.22
2868.83
6783.19
5657.35
9053.39
1782.31
6518.62
2022.05
15.8611
54.9139
66.7977
93.3556
129.463
73.1171
50.1739
723.809
395.169
247.396
700.884
374.033
1705.83
70.0484
33.6345
105.279
53.4761
95.5246
62.947
80.6043
71.6097
147.228
346.886
84.2718
99.5161
151.423
329.607
253.324
97.1946
153.082
81.1411
107.064
71.6758
81.6681
122.057
75.7541
53.6834
1224.83
561.789
1476.7
251.23
457.795
375.951
699.914
1335.1
2541.67
88.6803
73.4632
71.8027
84.1462
93.9598
91.9918
3776.11
5883.49
7807.13
5669.15
9431.03
2274.04
9547.68
12095
10292.5
11428
10156.1
10560.4
9769.86
10869.3
51.0848
29.3442
56.571
82.6516
59.0853
7487.08
6127.8
3460.34
3825.96
9529.69
9320.3
8732.41
11854.8
10340.1
11279.4
10170.7
10590.2
10488.9
10204
31.9708
44.4206
0
12.7982
48.3736
16.5965
8.37792
58.2753
57.1909
9359.96
799.573
7136.79
1536.57
9440.16
369.225
3957.85
4359.31
61.9201
37.0402
74.0273
32.1957
133.397
59.567
31.5239
722.171
159.128
120.047
548.463
194.797
1661.1
76.9322
29.5626
42.044
90.3788
70.7877
18.4375
76.4409
46.4511
56.175
42.6484
44.6614
35.7965
27.4621
136.732
46.7005
125.394
99.9559
93.2548
95.5911
52.1807
55.2373
71.9012
86.3496
67.1252
190.998
87.1856
434.779
47.2074
91.7533
93.8404
139.905
1676.18
8894.41
276.505
159.736
58802.7
20970.6
233.829
664.668
84.6169
81.2389
161.197
89.2315
104.41
115.364
6589.93
1333.26
6918.1
500.89
377.461
1360.58
882.386
10970
9724.98
9894.84
330.655
1168.35
635.049
2668.94
51.0158
47.4399
58.091
49.6691
48.2581
9975.15
12193.3
8781.94
4083.69
1618.61
15795.9
2205.35
10054.9
9908.12
10276.3
2924.37
6494.45
6727.11
9236.49
60.5049
74.4899
31.7881
13.0006
29.975
32.5705
41.0064
6.0791
52.9436
6534.95
244.372
1262.71
113.758
1224.99
272.213
477.407
8865.71
7256.42
1957.49
11959
8319.45
9285.68
90.2069
30.7998
59.0847
75.8072
79.8717
98.2168
54.0751
395.513
45.6651
48.9349
202.563
131.681
736.374
24.5538
84.6544
82.9341
56.6474
38.8107
41.2758
68.6873
45.1627
43.7782
72.728
66.3381
19.6571
80.6555
94.7102
75.9054
53.4286
79.8918
80.2115
84.7186
72.1502
73.9329
53.3769
76.1709
44.0282
84.206
97.6097
69.4219
60.6626
135.15
106.65
115.114
333.847
18.232
654.562
10.0949
0
0
0
0
57.9975
86.0072
48.8528
66.2106
56.4067
88.8501
158.041
1711.27
531.51
1213.63
247.095
2435.78
729.799
0
0
0
0
0
0
0
82.1423
29.6131
255.387
96.8544
61.3892
724.169
11738.4
477.491
3209.23
724.11
2974.87
254.584
75.4553
33.4701
479.494
0
0
0
0
69.4808
43.1528
65.8095
46.2169
83.4206
17.2747
63.6279
49.7699
57.6395
165.089
140.558
180.72
59.1021
68.5544
82.0922
160.103
56.9079
811.287
2.86811
864.097
0
0
42.6668
109.154
49.5032
72.4052
78.0358
56.9099
24.2567
145.418
76.6327
54.7533
81.7189
6.81174
151.056
69.0502
45.041
85.9554
34.2468
49.391
37.3227
64.8663
34.6504
62.9642
32.7641
7.0826
45.9516
27.326
76.6036
88.6285
18.3524
60.0638
76.2925
82.4945
89.1917
45.3656
79.7153
54.5904
95.7059
189.082
34.4033
124.032
65.0868
166.936
33.7879
82.7552
755.372
1148.95
49.7659
56.3069
57.6048
21.7967
72.2533
39.1267
261.614
709.757
901.105
915.866
282.766
680.442
869.407
0
0
0
0
0
0
0
54.393
103.838
115.023
28.6319
94.4934
911.72
769.183
269.809
594.418
853.056
630.156
259.233
0
0
0
0
0
0
0
76.2667
71.0075
40.456
31.5983
49.1312
0
16.1547
49.2955
69.1764
62.0236
53.0478
98.9184
44.0779
66.3008
54.5153
63.0208
469.511
122.062
90.5954
45.5913
49.3237
41.9907
46.5414
49.4393
91.944
0.727891
28.3556
48.4984
42.6085
59.5098
56.135
17.9474
22.8532
71.5821
19.8187
24.4936
43.0453
60.016
36.9649
25.0509
36.5277
31.3209
29.6242
51.3619
28.119
48.5097
17.5889
72.685
66.3609
46.7883
46.5071
51.3988
86.3117
76.5376
133.308
17.8561
84.0271
32.4805
82.8815
6.61189
81.0764
1660.75
1713.68
15.9727
176.933
74.0388
37.4671
40.4166
51.8248
646.118
1289.12
642.428
536.379
5220.61
44.8477
70.7381
162.142
29.0944
54.8009
1114.78
419.947
340.932
2793.88
354.849
34.6721
55.0733
24.7232
65.801
97.7177
61.3471
18.4447
94.7536
81.2624
36.3762
32.7108
53.9248
18.5703
34.7084
32.6362
27.967
132.977
58.7183
87.5968
42.2558
70.0734
37.965
63.1895
0
10.8774
41.1712
35.4305
30.7318
50.3993
38.8344
24.3175
12.6142
29.4604
26.1589
35.6523
16.4381
13.0338
11.0922
38.5832
23.4361
0.828519
28.4809
26.6036
16.4222
11.8156
58.8829
113.7
33.0784
53.4691
40.0034
9.16537
17.6248
45.562
20.7478
88.063
30.9923
55.9443
35.4058
57.179
20.7569
39.4805
1333.14
453.209
44.7375
41.0058
28.2734
22.93
20.6519
37.5152
441.652
1556.11
460.119
359.345
5640.64
53.0193
20.6211
59.3309
50.576
24.8967
7326.53
315.536
159.362
3536.96
219.064
15.6354
33.5404
22.2706
63.1004
67.7469
51.4009
34.5339
58.7097
44.326
38.7728
43.7542
20.7036
11.2834
25.4611
26.3769
35.8733
127.437
57.2704
37.6543
112.082
94.3747
79.3057
74.7477
69.9257
51.8484
56.6401
37.5065
27.5967
45.3537
11.8076
16.7963
47.1996
17.5918
11.1096
13.2994
0
26.1801
43.8781
11.5366
37.386
0
26.7055
13.151
31.5183
34.7091
83.8898
24.372
35.7187
65.0878
16.581
47.2068
44.4065
52.5492
51.3481
37.9725
35.0761
30.8074
14.2654
34.7357
8.64021
26.6204
164.956
115.351
73.7039
0
30.4297
61.3051
78.5547
24.2001
231.735
3741.18
139.018
130.825
1384.15
24.1634
69.1923
45.8432
14.1162
10.3227
2985.59
174.413
130.607
1578.92
164.276
64.647
37.1488
13.1861
24.0918
79.5808
29.3747
0
76.6073
25.1782
30.2655
4.56615
44.3841
5.90832
12.0835
11.4134
28.4235
138.233
111.418
67.0657
142.277
0.774326
29.9453
80.0491
98.8281
47.026
14.3172
102.945
63.733
84.8736
33.2902
36.6606
86.6051
38.9543
13.0742
9.07459
0
20.6853
44.7437
10.7976
17.0036
56.8431
15.0952
34.4817
23.0251
15.9088
48.7502
34.6158
22.0906
15.4632
29.5364
9.0012
28.286
-2.45811e-14
28.0507
21.998
8.92993
22.969
13.0537
21.2975
18.4029
13.0386
76.0834
11.6772
50.6073
5.04773
43.4181
68.7521
41.0219
32.7367
78.6949
1544.99
65.9518
48.9636
280.41
15.0288
17.8891
0
13.9719
8.46926
1030.17
123.288
62.1579
815.143
93.8257
73.6659
63.0571
3.36425
56.7823
23.3854
35.1269
28.4967
82.2912
38.5833
18.4705
5.6378
29.0541
12.3769
19.452
12.0674
15.9313
117.296
49.6775
16.6584
93.6171
81.9792
14.45
57.8504
21.0243
33.5197
65.3745
35.2838
33.4586
77.7005
10.8215
13.1497
-9.86473e-14
7.18877
36.9931
40.6265
33.2114
14.0615
9.29579
10.222
16.5216
10.3619
34.1879
6.28865
42.8965
-2.66599e-13
11.4882
22.9884
14.8116
11.3466
7.18561
24.9151
0
16.2353
5.35637
13.6345
6.62003
31.3467
15.0001
0
9.49826
8.94802
21.5612
30.3954
63.4922
104.798
63.0849
30.0811
41.5496
32.3101
29.7609
231.7
68.4858
25.2893
83.9095
49.5404
11.5784
17.541
16.1269
21.7849
194.657
70.7144
33.0632
211.615
62.8916
30.3936
12.9929
1.73745
45.0235
15.4344
0
0.182467
11.5817
25.6508
17.1695
16.3135
35.0997
3.44273
13.7782
8.17882
42.8802
178.841
11.6826
12.3256
43.4222
56.7429
13.9085
43.3929
7.36437
35.917
40.5743
20.3359
1.0263
12.835
19.7535
15.465
18.3555
18.5069
7.96962
19.8629
50.6493
22.9052
4.85413
13.2169
15.1981
33.5689
15.5662
19.7474
2.85676
39.6273
33.3577
2.06018
24.4703
10.6586
5.26488
12.7503
7.93397
8.53357
10.2909
25.6914
10.5358
18.3454
0.160806
15.9904
21.8985
22.536
19.1015
52.3787
28.1695
58.5297
27.4066
21.3791
26.06
27.7556
9.75478
60.117
11.4035
25.5983
66.2922
56.0249
17.2953
67.1482
25.9966
47.1026
90.3428
53.0157
22.5982
49.9803
54.0365
27.2596
3.12502
16.3082
13.2898
19.0594
7.50548
0
30.3049
6.47203
21.2385
7.60483
27.2695
7.69214
18.193
9.40767
27.6121
60.8687
24.9293
12.8078
33.5684
21.3727
26.8823
33.2532
-4.9868e-13
2.14477
51.7349
9.50405
13.0951
0
11.0613
7.58306
14.59
0
29.4942
17.7601
17.3526
6.26383
14.6155
20.1628
18.4888
0
13.7981
-1.86716e-13
14.1163
17.2241
23.203
11.5956
3.80127
10.7286
4.99965
9.66256
4.70049
-5.89953e-13
14.069
38.8914
20.2576
11.8688
10.713
27.7455
14.3802
17.0064
24.1304
38.6097
22.051
19.6631
21.2725
13.6659
20.4003
15.0969
21.4538
37.4883
12.1963
14.3704
38.7547
56.3787
39.6806
42.6484
103.654
32.0295
47.2578
45.1587
23.9742
34.2886
40.9494
8.59527
47.4915
21.3178
10.4663
0
20.8081
18.192
20.6923
-1.00617e-13
25.1035
9.59647
23.1826
5.18428
6.56781
12.5276
40.4941
91.714
0
11.9816
5.13973
21.2824
31.5538
21.7341
0
4.33384
12.543
7.46856
14.5308
25.8089
18.3434
16.8895
4.89761
-1.60044e-12
1.38725
4.07846
0
4.65535
8.72497
8.24979
6.82257
0
11.1235
8.32265
0
0
24.2364
-1.85752e-13
4.6205
7.82838
9.19363
0
24.4531
25.3937
6.66815
7.50547
0
5.80361
5.99397
8.2736
14.3587
10.3263
21.0534
9.74035
2.23521
19.3377
25.3681
14.3547
0
18.9996
14.0923
5.40656
7.76207
23.1855
58.2292
34.6766
27.2603
0
13.115
6.76756
37.1587
25.5255
27.5654
47.004
27.2508
14.666
0
19.314
10.8184
6.85699
13.9317
12.1431
21.2548
19.7985
12.3807
8.63602
20.5594
-2.46192e-14
14.0289
15.7201
21.0878
62.839
24.6661
12.5433
11.8356
20.0423
8.41458
25.4853
0.711638
12.618
0
4.8269
8.06282
0
0
44.4144
10.4203
0
-9.62859e-14
-3.34547e-14
30.6675
12.3064
4.21567
8.65997
0
9.33003
4.52652
26.7337
32.6662
0.397892
0
26.6719
14.1997
1.41468
10.8613
16.2086
4.50355
0.142397
9.82323
21.7833
4.80847
8.31515
0
-2.85354e-14
4.60833
28.9445
16.516
10.6832
0.411006
20.8203
17.7543
7.84338
0
5.89111
12.5523
13.8914
22.4728
16.9724
4.7946
26.4875
9.22374
22.6657
13.7377
11.9018
15.447
32.1875
9.67541
5.45172
31.1539
0
18.517
27.8028
37.823
44.1671
13.2185
8.04192
11.1825
2.57574
23.0898
6.37537
28.7854
4.36186
24.606
0
63.8865
114.176
0
0
4.87919
57.9006
13.2867
20.0781
0.599773
11.934
25.3425
15.3782
0
23.0031
0
0
9.95024
-2.05983e-12
10.8639
0.952656
0.653652
5.26907
9.34046
9.78708
6.03689
0
0.882013
6.1461
20.4499
0
23.0164
0
20.4275
8.92395
4.45052
15.4122
2.84636
4.09969
2.73932
21.6658
4.76796
7.26869
12.7415
0.253293
4.74061
4.2763
15.4482
3.0283
-2.24962e-13
0
0
6.97524
20.6386
5.93334
15.8742
6.25916
18.3083
18.5106
15.5135
13.3307
19.6185
23.1209
6.26771
0.294796
51.5667
52.8578
20.1644
60.1338
51.4109
0
28.7281
0
10.5618
11.9775
12.4516
17.4593
33.7735
15.1944
29.6403
0
72.4
0
14.7319
8.75875
59.6366
134.122
39.0686
15.1974
0
35.4064
34.0358
4.93347
20.9268
7.12051
3.54315
11.5941
6.69419
51.4324
0
0
0
15.8574
14.3451
4.99128
0
-7.26368e-13
0.141908
10.536
5.70095
0
4.29364
5.87519
8.37874
21.5966
49.1267
1.31766
17.0957
7.08088
15.817
0
0.326335
6.28349
-1.24383e-14
13.87
4.76501
0
3.46116
7.25299
4.67133
3.66155
0
0
14.7224
0
0
0.224713
0
0
16.6587
3.05579
14.3327
16.6621
14.8775
5.41488
8.79004
13.419
15.2544
22.8447
31.7338
39.2898
21.285
24.8415
19.0183
28.0447
0
14.663
24.0295
17.163
6.57327
0
22.4298
6.24005
43.2467
17.3573
41.9321
8.59719
30.8174
13.8793
64.9215
25.6
13.2068
23.8353
9.97723
36.1876
5.51602
6.64655
-4.07038e-13
4.31529
12.0008
9.25826
20.6981
69.3138
27.1967
35.8601
16.536
0
0
8.00695
0
18.7726
14.831
0
5.85413
0
4.27994
13.5367
11.4552
0
0
0
5.6295
4.45377
0
1.09166
2.65989
0.219837
1.11835
7.12505
14.4263
10.5772
0.248001
6.93169
7.56587
3.53345
0
0
21.2634
0
5.7232
0
0
0
14.0989
20.5326
4.59509
19.3283
42.3238
2.92694
2.94006
1.55234
14.67
0
0
17.2629
21.0294
23.0162
34.5105
21.5537
15.3418
1.11624
9.26396
12.684
11.0438
4.82859
16.1298
9.10113
22.0778
18.0458
61.9576
18.7751
19.4897
13.7434
25.4862
20.1578
12.1605
10.3229
12.8608
17.7595
6.68357
0
0
6.31348
3.94944
4.83266
18.601
0
19.2389
0.410406
0
-1.1973e-13
3.6642
0
0
0
0
2.76958
9.61544
0
5.57209
1.83282
-4.08983e-14
0
0
1.00726
8.12513
4.38595
6.5636
0
0
4.93814
4.82319
7.31128
8.94645
2.56844
0
6.27242
9.06204
6.51469
13.4866
0
4.6252
0
0.201396
0
0
16.9335
10.0581
10.9237
0
11.3651
10.4652
0.255435
8.51431
0
6.87026
9.10581
54.0781
21.7222
11.6664
13.491
32.9825
0
0
7.51974
21.7336
0
21.8321
7.15153
19.5117
0
10.0249
11.3314
29.3936
0
19.6059
8.48292
34.0982
41.9161
0
0
0
0
12.6053
1.6773
7.39956
19.5866
0
0
10.7945
2.60241
44.6375
0
0
0
10.9532
0
0
0
6.63875
4.18013
0
0
0
5.46579
0.333673
0
-2.53395e-13
0
0
-5.63713e-13
4.67145
0
8.02974
4.3652
-7.64997e-14
7.20393
7.09143
6.78087
0
13.9577
4.32686
0.117444
0
0
6.80972
0
16.0652
12.9214
-2.42567e-12
7.77035
5.64436
10.8616
8.26001
0.116871
0
17.7204
7.44138
-7.80401e-13
6.06591
0
9.43759
20.2392
7.55794
10.36
22.8799
0
-6.98295e-14
14.9044
0
8.72432
6.7717
1.2161
2.3482
11.7141
14.7681
30.3151
21.292
14.1562
14.5769
6.7613
41.3394
1.17391
12.9365
-3.03368e-13
7.86918
36.2246
-2.43266e-13
18.5954
33.8203
10.3612
19.7564
10.6143
14.8672
0
32.9481
0
0
0
0
1.3669
0
0
0
4.22547
5.30529
14.2602
0
5.47036
0
0.376337
22.0915
0
0
2.56187
0
0
0
5.90699
4.48772
6.72776
1.76369
0
7.88788
0
2.91816
3.88949
7.02586
0
8.05428
0
5.43628
5.80211
0
6.21649
6.26195
1.41219
14.1976
6.19149
10.7731
1.22828
0
0
10.9044
16.0351
10.8111
7.24243
10.0554
18.9435
3.63295
13.9707
13.4575
7.14598
3.33143
19.3152
5.31016
7.39025
0
5.35029
28.9035
11.3889
34.2196
2.67327
17.7212
5.83953
8.46564
18.7345
26.7199
24.5395
4.79566
-7.02126e-14
9.24857
10.1158
17.2087
14.8081
18.2763
0.684813
16.0723
17.7032
-4.27207e-14
9.08775
0
0
0
0
0
0
0
0
0
0
-1.73305e-13
0
0
0
0
0
4.04173
4.25821
0.642496
7.49294
0
0
5.58837
0
0.138174
2.93257
4.01324
2.2293
4.37405
4.56907
0
0
7.9473
0
5.43374
0
37.0233
4.30972
1.04987
0
5.7731
4.46826
0
0
0
0
16.0604
0
-4.00275e-14
4.19043
6.13444
10.6669
5.66942
13.4059
13.1204
7.18347
0
12.7274
17.7979
0
4.94609
6.65007
7.72442
11.5572
5.10538
15.4376
14.0435
13.2784
19.6116
23.8711
0
13.2901
11.4078
15.5214
0.304101
6.13145
18.4988
19.2834
16.677
5.07107
6.60498
0
10.9952
0
0
0
2.12982
0
0
1.80863
0
0
5.22259
0
0
0
0
1.79929
0
0
5.45786
0
0
0
0
0
4.11331
0
0
3.18279
6.91059
6.83939
0
0
-3.21149e-14
0
0
0
11.7935
0
0
0
3.17704
-1.02219e-12
3.78004
9.2134
-2.14266e-13
12.2873
7.74269
0
3.30859
8.53379
0
6.23147
3.28545
0
5.0488
0
0
0
0
14.1107
6.84223
14.1069
-1.23987e-12
5.32621
9.33011
0.738561
10.9367
0.130613
15.1717
4.11684
14.363
13.9975
9.08902
0.333042
5.00046
0
11.5753
0
0
14.9768
16.8069
7.79033
7.56366
0
11.1456
9.22022
0
0
3.42091
0
0
0
0
-1.45471e-14
4.98889
0
0
3.27834
0
4.59877
0
0
0
0
3.4485
0
0
1.24505
7.24488
0
0
0
0.502685
0
0
0
0
0
0
0
0
-2.49085e-14
0
0
0
0
0
5.95219
0
0
0
0
0
0
0
17.9454
2.89316
0.350071
3.98949
0
0
6.80355
11.4408
6.12027
12.3985
0
0
1.03431
7.26967
11.3703
29.263
1.58639
13.6325
9.7567
6.0422
2.35187
12.9629
10.4986
5.27121
11.5911
26.9594
1.95794
0
17.2873
0
0
4.16863
0
14.2378
0
23.0144
0
0
0
0
0
4.03329
4.09252
1.71761
0
0
0
2.48343
0
0
0
0
4.2229
4.34002
7.26959
5.0016
1.28474
2.8658
0
0.14922
0.67358
0
0
0
0
10.9645
0
13.2658
0
0
-7.42069e-14
0
0
1.80027
0.692025
0.109015
0.961257
0
0
10.4294
0
10.6741
4.26259
9.33501
6.78983
1.23852
10.6429
6.92462
0
14.3323
7.29658
21.9414
19.0045
5.80529
9.17332
0.323847
1.02453
3.56754
8.8155
18.1668
10.5153
7.06531
11.0535
0
7.51621
12.9484
0
13.9126
30.5016
0
0
2.24755
12.4627
0
0
8.20305
17.1586
0
0
0
0
0
0
0
0
0
0
0
0
0
0
0
0
0
0
0
0
0
0
0
0
0
0
0
0
0
0
0
0
0
0
4.16061
0
1.63415
0
0
0
2.79454
0
0
0
0
0
0
0
0
0
0
2.47774
5.53107
0
-7.08144e-14
13.6535
12.9377
3.90413
0
12.4891
0
0
0
4.57895
0
7.87455
0
0
7.50021
3.95864
5.27787
0
0
4.46764
5.23944
0
0
-4.50202e-13
12.9825
0
0
9.63073
12.3069
16.6678
10.1115
0
0
0.942317
0
0
18.2086
0
0
0.51851
0
0
0
0
0
0
0
0
0
0
0
6.23133
0
0
0
0
0
0
0
6.95219
0.84519
0
0
0
6.30596
0
4.91275
6.09465
0
0
0
0
0
0
0
5.2471
-8.4087e-13
21.6595
4.79385
7.77636
0
5.61749
2.1351
0
6.9418
0
0
-6.99244e-13
0
6.5809
4.96053
5.56542
0
7.97878
3.29758
4.27104
6.16595
5.64744
-1.09989e-13
12.7835
13.0865
0
7.38223
0
5.10116
-4.13769e-13
0
0
0
12.0022
33.0328
3.7574
0
17.4984
38.6656
0
0
0
0.156646
0
0
0
0
0
0
0
0
0
0
0
0
0
0
0
0
0
0
0
0
0
3.18994
0
0
0
0
0
0
0
0
0
0
0
21.2126
3.17
1.86043
0
0
0
0
0
0
0
4.77616
0
0
7.94875
1.96991
-2.0477e-13
0
0
0
0
-4.41704e-13
3.84567
12.623
0
0.337619
17.3371
6.94869
14.0909
6.60468
0
7.05868
4.04732
12.5165
0
0
0
5.10467
-1.90451e-12
0
0
13.0928
5.94058
0
9.99198
6.01202
-7.186e-14
-7.25465e-13
0
0
0
0
0
0
0
0
0
0
0
0
0
0
0
0
0
0
0
0
0
0
0
0
0
0
0
0
0
0
0
0
0
0
0
0.829196
0
0
4.77917
0
0
0
0
0
0
0
0
0
0
0
3.30471
0
0
0
0
0
2.2579
0.374454
0
0
0
8.74601
-1.05684e-13
0
0
-5.64744e-13
0
1.21343
4.09811
6.43793
0
0
0
5.73931
0
0
0
0
0
0.480771
4.79457
0
0
1.53066
0
0
0
0
0
0
0
0
0
0
0
0
0
0
0
0
0
0
0
0
0
0
0
0
0
0
0
0
0
0
0
0
0
0
0
4.7763
0
0
0
0
0
0
0
0
0
7.35226
0
2.12995
3.76814
0
0
0
0
2.70793
0
0
-7.38552e-13
0
1.32125
0
5.29783
0
5.83275
1.6333
3.88796
0
4.23107
0
0
0
0
0
0
5.16169
0
0
0
0
12.2477
0
9.33363
5.96694
0
0
0
0
0
0
0
0
0
0
0
0
0
0
0
0
0
0
0
0
0
0
0
0
0
0
0
0
0
0
0
0
0
0
0
0
0
0
0
6.02199
4.63749
0
0
0
0
0
0
0
0
0
0
0
0
0
0
0
0
-1.40641e-12
0
0
0
0
0
10.6037
0
3.33961
6.58565
0
0
0
0.990801
0
0
0
0
0
0
0
-5.83848e-13
13.5492
6.20838
0
0
6.01797
0
0
0
0
0
0
0
0
0
0
0
0
0
0
0
0
0
0
0
0
0
0
0
0
0
0
0
0
0
0
0
0
0
0
0
10.9469
9.05927
0
-8.56202e-13
0
0
0
0
0
0
0
0
7.16267
0
0
7.1646
0
0
2.26213
0
0
9.68962
0
0
0
6.33445
0
0
10.4399
0
0
0
0
0
0
0
0
0
0
0
0
0
-7.4114e-13
10.465
0
5.86775
0
4.87308
0
0
0
0
0
0
0
0
0
0
0
0
0
0
0
0
0
0
0
0
0
0
0
0
4.82567
0
0
0
0
0
0
0
0
0
0
0
0
0
0
0
0
0
0
0
0
0
0
0
0
0
0
0
0
0
0
0
0
0
0
0
0
0
1.54517
7.11495
0
0
0
0
0
0
0
0
0
0
12.9172
0
0
0
0
0
0
0
0
2.43541
0
0
0
0
0
0
0
0
0
0
0
0
0
0
0
0
0
0
0
0
0
0
0
0
0
0
0
0
0
0
0
0
0
0
0
0
0
0
0
0
0
0
0
0
0
0
0
0
0
0
0
0
0
0
0
0
0
0
-9.40641e-13
0.641081
0
0
5.64226
0
0
-2.19074e-13
0
0
0
0
0
0
0
0
0
0
0
0
0
0
0
0
0
0
0
0
0
0
0
0
0
0
0
0
0
0
0
0
0
0
0
0
0
0
0
0
0
0
0
0
0
0
0
0
0
0
0
0
0
0
0
0
0
0
0
0
0
0
0
0
0
0
0
0
0
0
0
0
0
0
0
12.7979
0
0
0
6.85632
0
6.2139
0
3.47761
0
0
0
0
0
0
0
0
0
0
0
0
0
0
0
0
0
0
0
0
0
0
0
0
0
0
0
0
0
0
0
0
0
0
0
0
0
0
0
0
0
0
0
0
0
0
0
0
0
0
0
0
0
0
0
0
0
0
0
0
0
0
0
0
0
0
0
0
0
0
0
0
0
0
0
0
0
0
10.4053
0
0
0
0
0
0
0
0
0
0
0
0
0
0
0
0
0
11.134
0
0
0
0
0
0
0
0
0
0
0
0
0
0
0
0