/*--------------------------------*- C++ -*----------------------------------*\
| =========                 |                                                 |
| \\      /  F ield         | OpenFOAM: The Open Source CFD Toolbox           |
|  \\    /   O peration     | Version:  5.x                                   |
|   \\  /    A nd           | Web:      www.OpenFOAM.org                      |
|    \\/     M anipulation  |                                                 |
\*---------------------------------------------------------------------------*/
FoamFile
{
    version     2.0;
    format      ascii;
    class       volScalarField;
    location    "0.85";
    object      voidfraction;
}
// * * * * * * * * * * * * * * * * * * * * * * * * * * * * * * * * * * * * * //

dimensions      [0 0 0 0 0 0 0];

internalField   nonuniform List<scalar> 
10571
(
0.446547
0.541893
0.468295
0.94858
0.542666
0.472126
0.984853
0.934193
0.75539
0.648043
0.520606
0.766709
0.853002
0.626134
0.522338
0.548131
0.636038
0.733036
0.724032
0.523714
0.449418
0.563654
0.736795
0.433661
0.40785
0.382759
0.411449
0.534399
0.526939
0.442212
0.746477
0.845563
0.846999
0.984337
0.404644
0.762229
0.924759
0.983826
0.878862
0.952525
0.447819
0.98561
0.991258
0.914227
0.792814
0.852224
0.945175
0.507361
0.631974
0.892419
0.970751
0.937476
0.965982
0.498101
0.842263
0.882117
0.810818
0.981672
0.412172
0.942046
0.98845
0.95859
0.720585
0.895535
0.983529
0.991628
0.95728
0.656039
0.888691
0.990437
0.904271
0.597663
0.926378
0.949424
0.974507
0.989574
0.977598
0.979546
0.951327
0.970626
0.86514
0.962867
0.668988
0.995055
0.977976
0.965257
0.734176
0.888053
0.99334
0.984936
0.942984
0.507072
0.904328
0.984293
0.945665
0.632681
0.975046
0.972784
0.972596
0.958263
0.983261
0.970834
0.977728
0.959577
0.873215
0.930032
0.993623
0.990845
0.965297
0.945933
0.778503
0.705407
0.998016
0.986395
0.92815
0.520735
0.829667
0.983313
0.955798
0.694145
0.972624
0.973508
0.98377
0.952664
0.951766
0.977668
0.982694
0.943408
0.945505
0.622848
0.417058
0.987244
0.992594
0.966838
0.874981
0.823544
0.513669
0.413682
0.996993
0.990234
0.941455
0.635518
0.624082
0.991946
0.967473
0.744959
0.982301
0.977203
0.986297
0.992956
0.97708
0.980365
0.988563
0.947616
0.930936
0.683216
0.428836
0.984055
0.981901
0.9747
0.91593
0.802217
0.566319
0.422635
0.995639
0.991298
0.955819
0.909667
0.528727
0.373771
0.991404
0.990034
0.805438
0.99934
0.977707
0.991528
0.992721
0.991828
0.996857
0.991806
0.981684
0.970803
0.853726
1
0.956893
0.991508
0.98119
0.981439
0.948771
0.550668
0.999527
0.99621
0.97968
0.972965
0.990156
0.657567
0.952473
0.986254
0.985626
0.935765
0.987578
0.986165
0.991023
0.99421
0.992857
0.990639
0.995215
0.993974
0.995096
0.796528
1
0.996371
0.991711
0.991186
0.989431
0.993312
0.862753
1
0.998256
0.984366
0.987179
0.987224
0.882196
0.990358
0.992268
0.983622
0.996812
0.984822
0.991161
0.995094
0.993045
0.994459
0.993439
0.995589
0.997435
0.804327
0.988344
0.998749
0.99659
0.992161
0.995307
0.863009
0.996512
0.988396
0.993086
0.988572
0.909237
0.990552
0.998218
0.986969
0.993623
0.991543
0.99285
0.993679
0.994501
0.989663
0.994133
0.996317
0.998364
0.836883
0.988454
0.997701
0.996046
0.99475
0.997947
0.902574
0.992903
0.993046
0.994518
0.996292
0.94601
0.989624
0.993085
0.996079
0.996812
0.994064
0.994133
0.993885
0.994323
0.993785
0.99364
0.997366
0.997675
0.896382
1
0.995301
0.995124
0.994817
0.9981
0.947574
0.996091
0.995921
0.995233
0.99456
0.929871
0.991831
0.99532
0.9958
0.997251
0.996416
0.995078
0.996926
0.994953
0.994495
0.994715
0.997547
0.996459
0.962908
0.998681
0.998039
0.99436
0.997557
0.998026
0.960368
0.992093
0.996846
0.996717
0.99773
0.93945
0.994193
0.9907
0.992789
0.996811
0.99944
0.998382
0.998615
0.992579
0.995407
0.99815
0.997935
0.997205
0.991355
0.980428
0.997701
0.994799
0.998656
0.997945
0.976146
0.998226
0.996859
0.997566
0.997897
0.94651
0.996245
0.994353
0.997269
0.998131
0.995464
0.999933
0.99902
0.994502
0.998041
0.998924
0.998622
0.997965
0.991355
0.990544
0.997837
0.997315
0.999133
0.998322
0.991414
0.998557
0.997836
0.997526
0.998064
0.962404
0.995509
0.998551
0.99797
1
0.998376
0.998989
0.998581
0.997506
0.999021
0.998672
0.998983
0.997427
0.993487
0.993623
0.982153
0.999108
0.999102
0.997236
0.991777
0.99994
0.998987
0.998375
1
0.979416
0.999923
0.996195
0.99986
1
0.999384
0.999022
0.998075
0.996545
1
0.998485
0.998166
0.998175
0.994068
0.990545
0.996113
0.999454
0.999322
0.997678
0.996493
0.999309
0.99872
0.999305
0.997964
0.955815
0.99698
0.999426
0.99993
1
0.996752
0.999933
0.998041
0.997296
0.998683
0.998344
0.998215
0.996947
0.993176
0.996921
0.998378
0.999642
0.99885
0.998427
0.995283
0.997685
0.998752
0.999406
0.999032
0.95842
0.996671
0.998521
0.99622
1
0.998376
1
0.99902
0.997297
0.999662
0.998058
0.997924
0.998122
0.993488
0.996922
0.99804
0.998988
0.999551
0.999096
0.993652
1
0.998764
0.999232
0.999032
0.96682
0.997445
1
0.99797
1
1
0.999798
0.999797
0.998228
0.998042
0.998478
0.998231
0.998502
0.994574
1
0.99831
0.999804
0.999477
0.998748
0.994438
0.997445
0.999402
0.999244
0.999933
0.97207
0.997135
0.998943
0.99972
0.996812
0.993169
0.999022
0.999865
0.998228
1
0.998947
0.998208
0.997751
0.99403
0.999011
0.99804
0.998623
0.9994
0.99906
0.996252
0.998256
0.99933
0.998969
0.999032
0.99048
0.996593
0.999698
0.99727
0.996812
0.998376
1
1
1
0.99767
0.999298
0.999052
0.996571
0.99748
1
0.99902
0.998108
0.999206
0.999084
0.99471
0.999459
0.99941
0.999107
0.998698
0.98439
1
0.999124
0.98985
0.99978
1
0.999022
1
0.998858
0.998717
0.998604
0.998403
0.997452
1
1
0.997398
0.998311
0.998056
0.998873
0.996856
0.999128
0.999544
0.997898
0.99743
0.99503
0.998877
1
0.99979
1
1
1
1
0.998228
0.999932
0.999401
0.999505
0.997751
0.999612
0.993623
0.999358
0.999335
0.999489
0.9985
0.995647
0.999128
0.998599
0.999058
0.997763
0.99699
0.998839
0.997373
0.99188
1
1
1
0.998075
0.999099
1
0.999557
0.999087
0.999027
1
1
0.998716
0.998996
0.998653
0.997921
1
1
0.998841
0.998791
0.998999
0.99797
0.997058
0.998309
0.99601
1
0.998936
0.998382
0.99902
0.999129
1
0.999115
0.999033
0.998708
0.998876
1
0.998479
0.998958
0.999326
0.998464
0.995919
0.999158
0.999055
0.998747
0.998865
0.99377
0.9988
0.997162
0.99594
1
1
1
1
1
1
0.999226
0.999336
0.999713
1
1
1
0.99955
0.999102
0.998938
0.998277
0.999128
0.999532
0.999531
1
0.99643
0.999768
0.999547
0.99951
1
1
1
1
0.999099
0.998413
0.999691
0.99967
0.999035
0.998915
1
1
0.999669
0.999288
0.998966
1
1
0.999322
0.999175
0.996528
1
1
0.999124
0.99545
1
1
1
1
1
0.999055
0.999859
0.999444
0.999883
1
1
0.99902
0.999665
0.99959
0.99923
0.99737
0.999128
0.999415
0.999066
0.999065
0.99797
1
0.999124
1
1
0.99944
1
0.999156
1
1
0.999668
0.999555
1
1
0.99989
1
1
0.999888
0.999672
0.999123
0.999128
0.999495
0.998824
0.998097
0.99797
1
0.999124
0.99755
1
1
0.999056
1
1
1
0.999668
0.999444
0.999842
0.99969
1
1
0.999704
0.999884
0.999392
0.999123
1
0.999455
0.999648
0.999132
1
1
0.999819
0.99797
1
1
1
1
1
0.999021
0.999889
1
0.999806
1
1
0.999358
0.999627
0.999551
0.999412
0.999819
0.999429
0.999326
0.999883
1
0.99797
1
0.999155
0.99636
1
1
1
1
1
1
0.999889
1
1
1
1
1
0.999815
0.999779
0.999643
1
1
0.99981
0.999644
0.999032
1
1
1
1
1
1
1
1
1
1
1
1
1
1
1
1
0.999669
0.999888
1
1
1
0.999556
0.999883
1
1
1
1
0.99797
1
1
1
1
1
1
1
1
1
1
1
1
0.999896
0.999659
1
1
1
0.999742
0.999652
0.999032
1
1
1
0.99797
1
1
1
1
1
1
1
1
1
1
1
1
1
1
1
1
1
0.999766
1
1
1
0.998877
0.999698
1
1
1
1
1
1
1
1
1
1
1
1
1
1
1
1
1
0.999549
0.999883
0.999996
1
1
1
1
1
1
1
1
1
1
1
1
1
1
1
1
1
1
1
1
1
1
0.999883
0.999887
1
1
1
1
1
1
1
1
1
1
1
1
1
1
1
1
1
1
1
1
1
1
0.999766
1
1
1
0.999613
0.999124
1
1
1
1
1
1
1
1
1
1
1
1
1
1
1
1
1
1
1
1
1
1
1
1
1
1
1
1
1
1
1
1
1
1
1
1
1
1
1
1
1
1
1
1
1
1
1
1
1
1
1
1
1
1
1
1
1
1
1
1
1
1
1
1
1
1
1
1
1
1
1
1
1
1
1
1
1
1
1
1
1
1
1
1
1
1
1
1
1
1
1
1
1
1
1
1
1
1
1
1
1
1
1
1
1
1
1
1
1
1
1
1
1
1
1
1
1
1
1
1
1
1
1
1
1
1
1
1
1
1
1
1
1
1
1
1
1
1
1
1
1
1
1
1
1
1
1
1
1
1
1
1
1
1
1
1
1
1
1
1
1
1
1
1
1
1
1
1
1
1
1
1
1
1
1
1
1
1
1
1
1
1
1
1
1
1
1
1
1
1
1
1
1
1
1
1
1
1
1
0.999889
1
1
1
1
1
1
1
1
1
1
1
1
1
1
1
1
1
1
1
1
1
1
1
1
1
1
1
1
1
1
1
1
1
1
1
1
1
1
1
1
1
1
1
1
1
1
1
1
1
1
1
1
1
1
1
1
1
1
1
1
1
1
1
1
1
1
1
1
1
1
1
1
1
1
1
1
1
1
1
1
1
1
1
1
1
1
1
1
1
1
1
1
1
1
1
1
1
1
1
1
1
1
1
1
1
1
1
1
1
1
1
1
1
1
1
1
1
1
1
1
1
1
1
1
1
1
1
1
1
1
1
1
1
1
1
1
1
1
1
1
1
1
1
1
1
1
1
1
1
1
1
1
1
1
1
1
1
1
1
1
1
1
1
1
1
1
1
1
1
1
1
1
1
1
1
1
1
1
1
1
1
1
1
1
1
1
1
1
1
1
1
1
1
1
1
1
1
1
1
1
1
1
1
1
1
1
1
1
1
1
1
1
1
1
1
1
1
1
1
1
1
1
1
1
1
1
1
1
1
1
1
1
1
1
1
1
1
1
1
1
1
1
1
1
1
1
1
1
1
1
1
1
1
1
1
1
1
1
1
1
1
1
1
1
1
1
1
1
1
1
1
1
1
1
1
1
1
1
1
1
1
1
1
1
1
1
1
1
1
1
1
1
1
1
1
1
1
1
1
1
1
1
1
1
1
1
1
1
1
1
1
1
1
1
1
1
1
1
1
1
1
1
1
1
1
1
1
1
1
1
1
1
1
1
1
1
1
1
1
1
1
1
1
1
1
1
1
1
1
1
1
1
1
1
1
1
1
1
1
1
1
1
1
1
1
1
1
1
1
1
1
1
1
1
1
1
1
1
1
1
1
1
1
1
1
1
1
1
1
1
1
1
1
1
1
1
1
1
1
1
1
1
1
1
1
1
1
1
1
1
1
1
1
1
1
1
1
1
1
1
1
1
1
1
1
1
1
1
1
1
1
1
1
1
1
1
1
1
1
1
1
1
1
1
1
1
1
1
1
1
1
1
1
1
1
1
1
1
1
1
1
1
1
1
1
1
1
1
1
1
1
1
1
1
1
1
1
1
1
1
1
1
1
1
1
1
1
1
1
1
1
1
1
1
1
1
1
1
1
1
1
1
1
1
1
1
1
1
1
1
1
1
1
1
1
1
1
1
1
1
1
1
1
1
1
1
1
1
1
1
1
1
1
1
1
1
1
1
1
1
1
1
1
1
1
1
1
1
1
1
1
1
1
1
1
1
1
1
1
1
1
1
1
1
1
1
1
1
1
1
1
1
1
1
1
1
1
1
1
1
1
1
1
1
1
1
1
1
1
1
1
1
1
1
1
1
1
1
1
1
1
1
1
1
1
1
1
1
1
1
1
1
1
1
1
1
1
1
1
1
1
1
1
1
1
1
1
1
1
1
1
1
1
1
1
1
1
1
1
1
1
1
1
1
1
1
1
1
1
1
1
1
1
1
1
1
1
1
1
1
1
1
1
1
1
1
1
1
1
1
1
1
1
1
0.664714
0.603584
0.649716
0.592086
0.709541
0.586738
0.548086
0.547571
0.726005
0.729027
0.657339
0.727421
0.673795
0.618469
0.754406
0.767304
0.872241
0.7909
0.954553
0.97272
1
0.815791
0.647563
0.994012
0.773009
0.603544
0.866671
0.780487
0.817226
0.740154
0.805925
0.759641
0.809919
0.932506
0.991908
0.96025
0.987514
1
0.977057
0.982344
0.920127
0.864237
0.694684
0.671499
0.552178
0.582301
0.542745
0.55552
0.807984
0.72434
0.644518
0.726902
0.774029
0.788007
0.89415
0.965693
0.94301
0.922938
0.880627
0.906904
0.861838
0.822329
0.728495
0.691808
0.533991
0.654555
0.527951
0.589279
0.677294
0.518614
0.572629
0.687988
0.874494
0.57484
0.80033
0.839198
0.79399
0.83925
0.724173
0.733272
0.630003
0.600806
0.537238
0.54266
0.490321
0.492219
0.474911
0.470931
0.631401
0.727441
0.659622
0.580086
0.551423
0.50909
0.541238
0.478551
0.519965
0.399351
0.474178
0.454322
0.438902
0.4126
0.422252
0.416761
0.474839
0.460913
0.42385
0.428014
0.435139
0.443052
0.414454
0.618801
0.425473
0.470257
0.490784
0.474802
0.408053
0.420724
0.421342
0.434249
0.461534
0.805024
0.528115
0.469603
0.436142
0.74605
0.729056
0.536501
0.785629
0.587678
0.589858
0.502035
0.427182
0.38969
0.42396
0.565267
0.551946
0.912108
0.953434
0.899194
0.493852
0.511832
0.434028
0.448072
0.447009
0.545901
0.52344
0.955351
0.903147
0.855994
0.446146
0.424246
0.818165
0.487719
0.693707
0.47998
0.701395
0.440007
0.543834
0.453068
0.452149
0.435842
0.942819
0.526707
0.553279
0.442387
0.57597
0.483091
0.436112
0.667181
0.596411
0.577713
0.853074
0.813839
0.478614
0.671604
0.955084
0.68292
0.953566
0.438678
0.391
0.580855
0.403246
0.425497
0.419879
0.377128
0.547577
0.446084
0.422416
0.42917
0.417856
0.412595
0.46274
0.395907
0.695119
0.390257
0.371399
0.404695
0.407854
0.42468
0.419676
0.606154
0.418497
0.488255
0.698807
0.855034
0.904819
0.834948
0.960954
0.820522
0.967429
0.96185
0.978549
0.425824
0.396693
0.43314
0.427943
0.411013
0.444261
0.983513
0.999893
0.981905
0.966464
1
0.433947
0.440328
0.417323
0.455731
0.447685
1
0.893462
0.897321
1
0.939906
0.40257
0.443732
0.874751
0.399701
0.628124
0.617887
0.958509
0.736393
0.939456
0.512436
0.594183
0.553935
0.782708
0.481276
0.575621
0.597002
0.843142
0.557841
0.979904
0.965123
0.974933
0.978683
0.98803
0.989255
0.765573
0.975789
0.935769
0.768703
0.980355
0.530029
0.958161
0.968875
0.664561
0.967896
0.836964
0.966303
0.978644
0.985804
0.722299
0.858958
0.961366
0.977326
0.9914
0.970227
0.987141
0.467014
0.843005
0.966972
0.689955
0.875289
0.971818
0.968048
0.964785
0.955239
0.980082
0.823622
0.974493
0.978638
0.984147
0.852505
0.959783
0.983086
0.988564
0.422294
0.41983
0.481462
0.553049
0.40343
0.582394
0.90917
1
0.977614
0.863593
1
0.58334
0.640873
0.425822
0.79048
0.906685
1
0.966918
0.911004
1
0.949319
0.848185
0.977401
0.99459
1
0.99615
0.993693
0.999282
0.994786
0.995513
0.508087
0.554774
0.571637
0.555336
0.51999
0.544382
0.557047
0.899625
0.980858
0.985626
0.989831
0.993226
0.984939
0.981563
0.986191
0.789604
0.946468
0.92765
0.839051
0.918354
0.576145
0.943875
0.969828
0.911535
0.952389
0.935771
0.877311
0.958727
0.902984
0.962779
0.988981
0.906676
0.888897
0.975579
0.988017
0.990586
0.964855
0.971518
0.959112
0.964297
0.976029
0.969655
0.971744
0.976779
0.979828
0.981408
0.850038
0.956966
0.971417
0.976712
0.874254
0.969589
0.995249
0.99189
0.934987
0.550846
0.829207
0.982011
0.953715
0.976636
0.864463
0.99989
0.950609
0.834439
0.998687
0.926397
0.981631
0.948219
0.979231
0.994388
0.99802
0.929784
0.818699
0.990052
0.880874
0.994215
0.995885
0.998753
0.996179
0.994501
0.995643
0.999045
0.992071
0.995553
0.506451
0.552796
0.533044
0.503724
0.483893
0.592775
0.535444
0.845281
0.986506
0.986219
0.990651
0.994734
0.992838
0.983631
0.980246
0.867556
0.938243
0.93756
0.881081
0.921213
0.685848
0.976095
0.987523
0.9569
0.980537
0.968664
0.981198
0.992376
0.982375
0.966164
0.955271
0.971965
0.965636
0.94626
0.970484
0.944289
0.985582
0.974784
0.979065
0.969945
0.973784
0.98247
0.97759
0.971128
0.98519
0.982995
0.867011
0.970559
0.965497
0.962128
0.900734
0.927922
0.993832
0.959064
0.982663
0.996811
0.99128
0.983048
0.991753
0.986553
0.75208
0.976546
0.813783
0.600285
0.877996
0.993124
0.992489
0.996811
0.993486
0.99667
0.963915
0.791541
0.569264
0.861054
0.66552
0.992467
1
0.99967
0.998313
0.994613
0.997384
0.999934
0.994094
0.996307
0.469158
0.652513
0.502976
0.553671
0.455632
0.729067
0.515536
0.724538
0.997831
0.992793
0.991574
0.987159
0.983312
0.990633
0.992537
0.867095
0.935914
0.958678
0.872405
0.937227
0.735706
0.987383
0.994075
0.981417
0.990672
0.98316
0.989444
0.98649
0.987521
0.97754
0.951515
0.987027
0.984662
0.97791
0.955319
0.96505
0.981122
0.971229
0.985497
0.979408
0.987235
0.985045
0.978484
0.985456
0.990652
0.850126
0.907296
0.815906
0.96433
0.930318
0.933353
0.895226
0.832378
0.71889
0.983124
0.985925
0.987763
0.984478
0.984605
0.985581
0.613403
0.535049
0.488482
0.556964
0.44625
0.705372
0.446979
0.390884
0.42142
0.413541
0.419004
0.416787
0.422812
0.414474
0.992758
0.995818
0.991423
0.988667
0.991751
0.49008
0.531733
0.6164
0.609119
0.449528
0.459001
0.447659
0.402476
0.424121
0.4043
0.413439
0.416838
0.408032
0.419333
0.995535
0.994
1
0.998369
0.994187
0.997955
0.999043
0.992799
0.993188
0.449666
0.831604
0.503455
0.754563
0.457417
0.908202
0.617772
0.581045
0.991744
0.995242
0.990575
0.99572
0.983001
0.992355
0.995829
0.865402
0.972345
0.979336
0.893716
0.967406
0.732447
0.987313
0.994981
0.993403
0.984748
0.988066
0.996812
0.987264
0.992156
0.991484
0.993337
0.992745
0.994455
0.995857
0.979453
0.992835
0.977707
0.982305
0.983847
0.982803
0.99127
0.990086
0.987682
0.984084
0.988924
0.96554
0.983621
0.923602
0.992425
0.98071
0.981939
0.970331
0.76162
0.457349
0.933169
0.948873
0.401737
0.383476
0.915418
0.802181
0.985252
0.986804
0.9751
0.985097
0.984164
0.982248
0.512284
0.773633
0.519562
0.891376
0.916843
0.764859
0.830133
0.421122
0.427654
0.431201
0.893676
0.75252
0.830757
0.644771
0.993091
0.99361
0.991642
0.993424
0.993726
0.456619
0.439946
0.44704
0.604776
0.756474
0.494037
0.708428
0.426895
0.412636
0.4141
0.638704
0.500523
0.49407
0.437043
0.991907
0.990721
0.996469
0.998369
0.996427
0.99618
0.995511
0.999325
0.993732
0.547465
0.937375
0.774789
0.968929
0.78937
0.932635
0.879509
0.429665
0.546252
0.706057
0.37986
0.459029
0.424181
0.988245
0.995942
0.992508
0.990013
0.989739
0.987492
0.992976
0.919631
0.992538
0.991786
0.956241
0.978821
0.829942
0.995957
0.986686
0.986587
0.99098
0.99361
0.993183
0.98889
0.992731
0.993182
0.989083
0.989777
0.996939
0.987648
0.985535
0.98782
0.990456
0.986136
0.986514
0.984918
0.987914
0.986781
0.990979
0.986468
0.992735
0.982176
0.981846
0.98424
0.990014
0.969065
0.979735
0.973504
0.905188
0.994729
0.834797
0.996209
1
1
1
1
0.990555
0.987134
0.992669
0.989548
0.991532
0.987186
0.956194
0.702748
0.863905
0.760418
0.931892
0.691546
0.81312
1
1
1
1
1
1
1
0.989515
0.996243
0.963381
0.987515
0.992254
0.833066
0.51088
0.885516
0.690084
0.819656
0.690648
0.921179
0.977005
0.986553
0.855756
1
1
1
1
0.991489
0.994558
0.992673
0.994487
0.989978
0.997925
0.993103
0.993981
0.993067
0.951078
0.963628
0.948711
0.983865
0.97731
0.978098
0.954139
0.983746
0.812871
0.998514
0.78707
1
1
0.994542
0.985727
0.993625
0.990452
0.989778
0.992598
0.996817
0.969513
0.988369
0.990971
0.982465
0.998903
0.960163
0.988568
0.992472
0.986256
0.994387
0.992004
0.993623
0.989627
0.994397
0.990424
0.995081
0.998901
0.992818
0.995584
0.987247
0.985842
0.996935
0.989969
0.987293
0.985575
0.985472
0.99227
0.986815
0.990255
0.984498
0.95704
0.993138
0.970376
0.9893
0.96017
0.993962
0.978716
0.814439
0.761341
0.992181
0.991643
0.99173
0.996632
0.989333
0.994275
0.928444
0.822252
0.790853
0.793129
0.920453
0.827734
0.802133
1
1
1
1
1
1
1
0.993091
0.987065
0.983506
0.996243
0.98811
0.792302
0.818471
0.925467
0.840752
0.804588
0.840147
0.929379
1
1
1
1
1
1
1
0.990582
0.99114
0.995214
0.996175
0.994066
1
0.99802
0.993981
0.991583
0.979996
0.986162
0.969899
0.98846
0.978425
0.985063
0.980409
0.868188
0.983837
0.987476
0.993987
0.993635
0.994269
0.993837
0.993525
0.981416
0.99989
0.995531
0.98972
0.994074
0.984869
0.99066
0.997282
0.996921
0.988311
0.996699
0.996042
0.992763
0.990218
0.994152
0.995933
0.994283
0.995244
0.995509
0.991839
0.995537
0.99185
0.997144
0.987595
0.988437
0.992446
0.992551
0.991401
0.984624
0.987108
0.966675
0.99648
0.978304
0.994377
0.978486
0.998776
0.977845
0.738187
0.767098
0.997407
0.973389
0.989308
0.994426
0.993622
0.992549
0.829068
0.750047
0.817229
0.839083
0.557344
0.994273
0.991015
0.976798
0.996182
0.992991
0.768559
0.869747
0.885823
0.601007
0.88631
0.995675
0.993233
0.997096
0.991956
0.987859
0.992813
0.997856
0.988244
0.989737
0.988167
0.991066
0.984213
0.995179
0.988619
0.991569
0.991416
0.950965
0.991674
0.987547
0.994411
0.990561
0.994734
0.991452
1
0.997751
0.993635
0.994565
0.994032
0.992538
0.990546
0.995958
0.997979
0.996811
0.995743
0.994246
0.996811
0.997717
0.998244
0.993578
0.995897
0.99989
0.995729
0.995742
0.997142
0.997978
0.990736
0.982238
0.994308
0.990525
0.993165
0.998376
0.996915
0.991806
0.99616
0.977927
0.994261
0.984143
0.993903
0.985117
0.996212
0.98939
0.799241
0.862043
0.993459
0.993622
0.995881
0.996555
0.996811
0.99476
0.861068
0.580944
0.849394
0.881873
0.626276
0.993213
0.997328
0.991313
0.993425
0.996786
0.649393
0.892427
0.93635
0.687782
0.923218
0.997977
0.995815
0.997394
0.992181
0.991221
0.993806
0.995844
0.992351
0.993976
0.9874
0.988779
0.993505
0.996896
0.991923
0.993282
0.989721
0.954743
0.991464
0.994263
0.984474
0.987269
0.98854
0.989338
0.990452
0.990237
0.99155
0.994021
0.994693
0.993196
0.99734
0.997282
0.992612
0.996811
0.998065
0.997941
1
0.995589
0.992733
0.998243
0.993923
1
0.995608
0.997755
0.994632
0.994005
0.986278
0.99589
0.993769
0.988678
0.997201
0.992104
0.992901
0.991002
0.990921
0.990957
0.99361
0.991686
0.997387
0.991854
0.998386
0.992439
0.934048
0.963013
0.989008
1
0.995609
0.990711
0.988014
0.996487
0.918611
0.66736
0.946488
0.949994
0.763681
0.996849
0.991055
0.993622
0.998425
0.998645
0.722862
0.934
0.951884
0.75348
0.939899
0.991908
0.995257
0.998417
0.996794
0.989375
0.996482
1
0.989763
0.99661
0.99055
0.998663
0.986895
0.998398
0.996188
0.997234
0.991355
0.949059
0.983349
0.989716
0.979371
0.99989
0.995432
0.988191
0.986281
0.991479
0.997915
0.984298
0.988613
0.987489
0.993209
0.994355
0.985852
0.993623
0.997756
0.998486
1
0.996556
0.99243
0.998274
0.997097
0.990434
0.997365
0.994
0.995956
0.997211
0.991363
0.99394
0.996495
0.997378
0.994533
0.998376
0.995118
1
0.994827
0.994999
0.998419
0.993677
0.997717
0.995336
0.99654
0.996611
0.971392
0.995663
0.992259
0.99923
0.993792
0.989473
0.993623
0.995215
0.969197
0.780279
0.976703
0.981329
0.892396
0.99791
0.997677
1
0.998213
0.998877
0.804025
0.952193
0.976237
0.82469
0.965427
0.990723
0.991839
0.999571
0.992407
0.996822
0.995701
0.99657
0.988751
0.994703
0.994083
0.998571
0.991636
0.996795
0.993777
0.997385
0.995479
0.957503
0.992024
0.997272
0.985291
0.988366
0.997755
0.990637
0.996817
0.993958
0.990232
0.994414
0.993958
0.988147
0.99797
0.997979
1
0.9989
0.993732
0.992612
0.993952
0.997717
0.998486
0.998334
0.997329
0.998131
0.994336
0.998877
0.992331
1
0.99798
0.99596
0.997394
0.998004
0.998568
0.99552
1
0.997259
0.999056
0.996965
0.998781
0.992406
0.997386
1
0.998089
0.99767
0.992235
0.990485
0.99017
0.984057
0.990915
0.99524
0.993623
0.995306
0.989106
0.920236
0.978717
0.991012
0.962044
0.993638
0.99849
0.997471
0.997879
0.997173
0.921197
0.973053
0.98836
0.928342
0.97704
0.995954
0.998256
0.999802
0.993476
0.997821
1
0.999967
0.998369
0.996489
0.994936
0.996443
0.990562
0.999232
0.995912
0.998206
0.988753
0.941749
0.998111
0.997971
0.992933
0.991549
0.997716
0.992842
0.998902
0.993648
0.993854
0.996678
0.999613
0.997915
0.995939
0.997282
0.996655
0.996701
0.998646
0.996488
0.990434
0.996479
0.999092
0.997547
0.997368
0.993623
0.997335
0.996632
0.999442
0.99261
0.994288
0.999652
0.995687
0.998093
0.999089
0.997816
0.999131
0.99857
0.998113
0.994437
0.998221
0.995613
0.99997
0.996741
0.995782
0.995008
0.993914
0.984259
0.995472
0.991204
0.995972
0.996633
0.995932
0.995881
0.996732
0.979867
0.99624
0.991315
0.974587
0.992669
0.997754
0.990434
0.996577
0.993921
0.96571
0.979751
0.992593
0.982416
0.980796
0.996373
0.999581
0.998087
0.997975
0.997397
0.999068
1
0.995613
0.999122
0.993807
0.998206
0.992823
0.998097
0.995058
0.998024
0.993275
0.978016
0.995942
0.997971
0.994352
0.996817
0.995509
0.994473
1
0.999613
0.991659
0.998551
0.997637
1
0.99797
0.998397
0.997561
1
0.994776
0.996639
0.996811
0.998878
0.997154
0.996487
0.996671
1
0.997425
1
0.997281
0.996654
0.996169
0.998328
0.999131
0.998272
0.999056
0.998936
0.999101
1
0.997527
0.991964
0.995947
0.997095
0.997927
0.994043
0.997199
0.995885
0.993354
0.988667
0.996555
0.996811
0.99679
0.997755
0.996811
0.997668
0.993494
0.987348
0.995852
0.995431
0.984598
0.992638
0.994773
0.993623
0.986155
0.995741
0.983185
0.984397
0.992412
0.98901
0.985365
0.998884
0.993792
0.997461
0.998425
1
0.997444
0.997758
0.996794
1
0.993502
0.997993
0.994235
0.998831
0.998322
0.997476
0.990562
0.969335
1
0.997971
0.999124
0.996817
0.994425
0.996315
1
0.999225
0.997915
0.998822
0.997366
0.99572
0.996639
0.997143
0.999094
1
0.999768
0.999152
1
0.99911
0.998244
0.998486
0.998877
1
0.99791
0.998916
1
1
0.996239
1
0.999191
0.9986
0.998438
1
0.995746
0.995739
0.998731
0.99837
1
0.998487
0.998798
0.998371
0.997199
0.997338
0.993913
0.997272
0.999574
0.996701
0.996184
0.997794
1
0.997365
0.99546
0.997249
0.997791
0.992647
0.980859
0.995154
0.996399
1
0.998243
0.999109
0.987361
0.991636
0.991838
0.985274
0.991368
0.997977
1
0.997659
0.998369
0.999122
0.998226
0.998483
0.996738
0.997397
0.996431
0.998267
0.995082
1
0.995974
0.996899
0.994745
0.97879
0.995942
0.997971
0.998127
0.996817
0.99849
0.995621
0.99989
0.997753
1
0.999155
0.998645
1
1
0.992055
0.997979
1
1
1
0.994721
0.997755
0.999122
0.998244
1
0.9989
0.999121
0.995548
0.994005
0.99993
1
0.99596
0.997125
0.999702
0.998146
0.996752
0.999101
0.99997
0.998178
0.995447
0.999044
0.997852
1
1
0.999044
0.992527
0.995942
0.997832
0.999961
0.996812
0.997396
0.998878
1
0.999122
0.995975
0.995709
0.993333
0.994644
0.99912
0.996486
0.998877
0.996811
0.998212
0.998335
0.995494
0.989237
0.996826
0.998132
0.99036
1
0.997628
0.996505
0.994713
0.994098
0.998226
0.999044
0.998313
0.999667
0.993961
0.998814
0.993502
0.999032
0.993593
1
0.985416
0.962887
1
1
0.999124
0.990563
0.997715
0.996496
0.99989
0.997986
0.995721
0.997312
1
0.995939
1
1
0.997979
1
0.997911
0.999879
0.99989
0.998878
0.998274
0.998244
0.9988
1
0.999818
0.998877
0.995957
1
0.99596
1
0.996197
0.99857
0.999122
0.996808
0.999401
0.999136
0.999675
0.995168
0.999045
0.998124
0.997266
0.999944
0.999044
0.998911
0.995523
0.99916
1
1
1
0.998877
0.996811
0.999122
0.995583
0.99769
0.994378
0.994764
0.994718
0.998213
0.997445
0.996811
0.999121
0.999961
0.984067
0.982929
0.993499
0.979775
0.983891
1
0.995955
1
0.998369
0.998456
0.998557
0.997757
0.995107
0.997881
0.992497
1
0.983387
1
0.995759
0.998236
0.985812
0.958336
0.993914
0.997901
1
0.993745
0.993882
0.999124
0.996926
0.998877
0.999342
0.998067
0.998877
0.991109
1
1
1
0.996921
0.997756
0.999122
1
1
0.99997
0.99785
0.998878
1
0.999121
0.998877
0.998327
0.995677
0.991642
0.999721
0.997005
0.998689
0.99717
1
0.99994
0.998957
1
0.996797
0.999045
1
0.999279
0.99837
0.999044
0.999122
1
1
0.997794
1
1
0.999961
1
1
0.995068
0.9989
0.995386
0.995006
0.996809
0.999243
0.998761
0.99802
0.997788
0.996979
0.989891
0.987419
0.99368
0.991976
0.993998
0.995955
1
0.998088
0.996626
0.997518
0.999128
1
0.996737
0.999122
0.989355
0.996595
0.990168
0.998063
0.992342
0.997385
0.984738
0.993628
0.997971
0.996221
0.998248
0.993524
0.999109
0.998822
1
0.999264
0.997476
0.998399
0.99663
0.988037
0.995238
0.993241
0.998048
1
1
0.998274
1
0.996246
0.997335
1
0.998877
1
0.999122
0.997368
0.99763
1
1
1
0.998742
0.999136
1
0.999776
0.999431
0.99994
0.999805
0.99837
0.996936
0.997368
0.99994
0.99837
0.998352
0.999122
1
1
0.996633
1
0.999122
1
1
1
0.995613
0.99362
0.998566
0.994159
0.987238
0.999576
0.999613
0.99978
0.998121
1
1
0.994735
0.99368
0.993405
0.989583
0.997279
0.997977
0.999802
0.998706
0.998245
0.998557
0.999373
0.997863
0.998819
0.994601
0.996474
0.985139
0.996126
0.995301
0.997172
0.993726
0.994538
0.998041
0.997971
0.997675
0.996817
0.998877
1
1
0.998877
0.999341
0.999124
0.996669
1
0.996569
0.99993
1
1
0.999265
1
1
1
1
0.999425
0.998065
1
0.998819
0.999613
1
1
1
0.999861
0.998263
0.999136
0.999219
1
1
0.999195
0.998894
0.99837
0.998056
0.999274
1
0.99837
0.998088
0.998275
0.996222
1
0.999265
1
0.99997
1
1
0.997395
0.997216
0.9967
1
0.996489
0.996809
0.99997
0.998916
1
0.999121
0.998877
0.983078
0.993574
0.996281
0.995823
0.990435
1
1
0.999044
0.996682
1
0.997173
0.999044
0.9973
1
0.997651
0.99769
0.992937
1
0.99524
0.998267
0.991804
0.988656
1
1
1
1
0.997754
0.999698
0.998573
0.996631
1
1
0.998102
0.999341
0.991807
1
1
1
0.997756
1
1
1
0.998546
0.999182
1
1
1
0.998877
0.99993
1
1
1
1
1
0.999057
1
0.998262
0.999136
1
0.99837
0.998386
0.998306
1
0.996741
0.999044
0.99997
1
1
0.998878
1
0.997638
0.997987
1
0.998849
0.998245
0.99681
0.99779
0.99997
1
0.997365
0.998877
1
0.999121
1
0.997253
0.993613
0.998004
0.996812
0.993456
1
1
0.998088
1
0.99882
0.999128
0.99967
0.999719
0.998395
0.996462
0.993951
0.995084
0.997095
0.996461
0.998662
0.990221
0.99958
0.997971
1
0.99855
0.992975
1
0.996859
0.993635
0.998257
0.996379
0.998248
0.997404
1
0.993838
1
1
1
1
0.999697
1
1
1
0.999091
0.998916
0.996812
1
0.998877
1
0.99993
0.99596
1
1
0.999494
1
1
1
0.998838
0.999056
0.99837
0.999671
1
0.998317
1
0.999374
0.998941
0.997972
1
0.998646
1
0.999122
0.999032
1
0.999001
0.998245
0.99967
0.99589
0.998245
0.996919
0.999818
1
1
0.998394
0.997792
0.996923
0.997755
0.997037
0.994724
0.998877
0.997978
0.997977
0.999044
0.99955
0.997397
0.999308
0.999044
1
0.999243
0.992619
0.997659
0.991807
0.999432
0.995698
0.998814
0.998022
0.995238
0.995942
0.996432
0.999124
1
0.998568
0.998248
0.996817
0.997367
0.996817
0.999879
0.997172
0.996817
1
0.997979
1
1
1
1
1
1
1
1
1
1
1
1
1
1
1
1
0.999132
0.999136
0.99987
0.998376
1
1
0.999056
1
0.999967
0.999304
0.999129
0.999438
0.998748
0.99885
1
1
0.998878
1
0.999122
1
0.993622
0.999303
0.999697
1
0.998217
0.998759
1
1
1
1
0.997697
1
1
0.998839
0.998246
0.996812
0.998567
0.997978
0.997977
0.999044
1
0.998245
0.997685
1
0.999437
0.999092
0.998078
0.997629
0.9987
0.996727
0.996552
0.99705
0.995139
0.993628
1
0.998041
0.998097
0.996817
0.999961
0.998943
0.996817
0.996592
0.996817
0.999124
0.998838
1
0.997969
1
1
1
0.999613
1
1
0.999613
1
1
0.998877
1
1
1
1
0.999582
1
1
0.998832
1
1
1
1
1
0.999089
1
1
0.999123
0.998438
0.99837
1
1
1
1
1
1
0.998062
1
1
1
0.999153
1
0.998876
0.997337
1
0.998243
0.998877
1
0.999424
0.9988
1
0.998258
0.999123
1
0.99849
1
1
1
1
0.998002
0.999098
0.998087
1
0.999122
0.997651
0.999696
0.997231
0.999967
0.996156
0.999088
0.996382
0.996289
0.998671
0.99993
0.999124
1
0.998026
1
1
0.997289
0.996817
0.998581
0.998644
1
0.997969
0.997979
1
1
0.999265
1
1
1
1
1
0.998877
1
1
0.999265
1
0.998954
1
1
1
1
0.999252
1
1
0.999702
0.998438
1
1
1
0.99988
1
1
1
1
1
1
1
1
1
1
1
1
1
1
0.998245
1
1
1
1
1
1
1
0.99489
0.999123
0.99989
0.998877
1
1
0.999044
0.998369
0.999122
0.998256
1
1
0.999818
0.998231
0.997446
0.992428
0.999666
0.996491
0.997902
0.998304
0.9993
0.997971
0.998391
0.999124
0.996817
0.995509
0.999698
1
0.996863
1
1
0.999225
1
0.997059
1
0.995958
1
1
1
1
1
0.999122
0.999122
0.999613
1
1
1
0.999442
1
1
1
1
0.999136
0.999057
0.998376
0.999131
0.999702
0.999382
1
0.999967
0.999697
1
1
1
1
0.996643
1
0.997717
1
1
1
1
1
0.999425
0.99978
0.999961
0.999697
1
1
0.99849
1
0.998243
0.999264
0.997143
0.997987
0.999698
0.996812
0.997909
1
0.997977
0.999011
0.996794
0.997367
0.999128
0.998747
0.999944
0.999818
0.999085
0.998146
0.995084
0.997696
0.99823
0.997658
1
0.997969
0.998041
1
0.997675
0.994183
1
1
0.999451
0.997754
1
1
0.998489
0.996817
1
1
1
1
1
1
1
1
1
1
1
1
1
1
1
1
1
1
1
1
1
1
1
1
1
1
1
1
1
1
1
1
1
1
0.999265
1
0.999697
1
1
1
0.999123
1
1
1
1
1
1
1
1
1
1
0.999265
0.998246
1
1
0.997977
0.997977
0.999341
1
0.998214
1
1
1
0.999152
1
0.998237
1
1
0.998108
0.999118
0.998587
1
1
0.9993
0.999124
1
1
1
0.996818
1
1
0.998279
0.997715
0.996818
0.997969
1
1
0.99989
1
1
0.996921
1
1
0.999879
1
1
1
1
1
1
1
1
1
1
1
0.998936
1
1
1
1
1
1
1
0.99837
0.999802
1
1
1
0.998878
1
0.999122
0.998877
1
1
1
1
1
1
1
0.999152
1
0.996921
0.999152
0.9988
1
0.998142
0.999244
1
0.997599
1
1
1
1
0.999153
0.999308
0.999175
1
0.998819
0.999115
0.999088
0.998418
0.998764
1
0.997202
0.996722
1
0.998601
1
0.999124
1
1
1
1
0.997754
0.993634
0.999305
1
0.996817
0.992017
1
1
1
0.999961
1
1
1
1
1
1
1
1
1
1
1
1
1
1
1
1
1
1
1
1
1