/*--------------------------------*- C++ -*----------------------------------*\
| =========                 |                                                 |
| \\      /  F ield         | OpenFOAM: The Open Source CFD Toolbox           |
|  \\    /   O peration     | Version:  5.x                                   |
|   \\  /    A nd           | Web:      www.OpenFOAM.org                      |
|    \\/     M anipulation  |                                                 |
\*---------------------------------------------------------------------------*/
FoamFile
{
    version     2.0;
    format      ascii;
    class       volVectorField;
    location    "5.55";
    object      U;
}
// * * * * * * * * * * * * * * * * * * * * * * * * * * * * * * * * * * * * * //

dimensions      [0 1 -1 0 0 0 0];

internalField   nonuniform List<vector> 
10571
(
(-8.57136e-05 0.184562 1.35454)
(0.0629643 -0.012974 0.802619)
(0.198136 0.044997 1.52271)
(-0.709659 0.0871955 2.54955)
(-0.03529 -0.0540622 1.14504)
(0.131278 0.0242958 1.18232)
(0.0575786 -0.159982 2.47548)
(-0.234607 -0.30383 1.88841)
(-0.043319 0.00751333 1.34518)
(-0.00832584 0.0479571 1.23927)
(0.155438 0.146807 1.3414)
(-0.056655 0.0464551 1.51227)
(-0.117246 -0.116855 1.7883)
(-0.0631384 -0.102381 1.06626)
(0.304585 0.125204 1.45555)
(0.189552 0.232049 1.46823)
(-0.100198 -0.0719381 1.20497)
(-0.11251 -0.0736434 1.33153)
(0.149573 0.148909 1.18901)
(0.424619 0.338483 1.64267)
(0.0254878 0.0269993 1.48975)
(0.0667069 0.158229 1.35334)
(0.378556 0.505162 1.28576)
(0.000147398 0.178416 1.03723)
(0.0449169 0.0241001 1.12572)
(0.0731474 0.100528 0.658327)
(-0.340022 -0.0061347 1.34308)
(0.322409 0.00508017 1.5127)
(0.311506 0.255927 1.09089)
(0.401684 0.253962 1.09368)
(0.0504829 0.299423 1.85529)
(0.0685032 0.175173 1.51631)
(-0.186776 0.0420297 1.01718)
(-0.221644 0.0575332 0.965926)
(0.219766 0.217107 1.43322)
(0.39944 -0.0394736 1.61575)
(-0.32527 0.147803 2.3816)
(0.0542033 -0.00759367 0.686734)
(0.423837 0.0810504 2.05311)
(-0.0122986 0.327816 1.24071)
(0.198195 -0.127577 1.03015)
(0.0612846 -0.0150287 0.812685)
(0.0689318 0.036174 0.59104)
(0.41546 -0.0167727 2.5124)
(-0.00924209 0.0604403 1.70497)
(0.0476038 -0.136959 0.829545)
(-0.0398132 -0.259255 0.757968)
(0.693689 -0.489045 1.04497)
(0.0142934 0.0932342 0.775782)
(0.0367473 0.0189975 0.0904481)
(-0.00120959 0.116951 1.67303)
(0.0652089 0.0101947 0.94494)
(-0.0930262 0.402723 1.2748)
(0.514634 -0.120217 1.08087)
(0.288762 -0.227749 1.66186)
(0.499972 -0.126924 2.28381)
(-0.264907 0.0128745 1.56048)
(-0.121347 0.0589421 0.515461)
(0.0510473 0.0958977 0.0624934)
(0.388263 0.0615612 2.07593)
(0.112823 0.164545 0.371827)
(0.0582313 0.138789 0.150691)
(-0.0921661 -0.0709876 0.274488)
(-0.217983 0.544999 1.60464)
(-0.26858 0.429264 0.961558)
(0.169506 0.601512 1.29015)
(-0.210421 0.21389 0.587219)
(0.328572 0.459698 2.49898)
(0.233012 0.0763517 1.38114)
(0.211868 0.281108 1.37069)
(-0.020838 0.238006 1.39055)
(-0.577374 0.633298 0.795123)
(-0.0182091 -0.00384153 -0.23075)
(-0.111389 0.138243 -0.0546207)
(0.0501471 0.188745 0.963377)
(0.0775265 0.204366 0.665885)
(0.169787 0.138955 0.322901)
(-0.0578215 -0.0935324 0.171128)
(-0.0097483 0.157306 0.45984)
(0.182305 0.188348 0.801912)
(0.205433 0.373769 0.772283)
(0.0628714 0.194495 0.100156)
(0.121516 0.301601 0.334149)
(-0.495605 0.307669 0.751348)
(0.0406871 0.146054 0.000785737)
(0.14423 0.371682 0.382305)
(-0.309495 0.269712 1.10955)
(-0.0492376 -0.206158 0.678961)
(-0.14545 0.873954 1.05231)
(0.129645 0.396058 0.613167)
(0.174223 -0.0449762 0.446061)
(0.00460923 0.0759299 1.94553)
(-0.186293 0.231382 0.874877)
(0.106894 0.0236054 0.960214)
(0.094407 -0.142872 0.922263)
(-0.158718 0.192833 1.24216)
(-0.00553919 -0.0238706 -0.266012)
(-0.119208 0.111536 -0.206577)
(0.0877074 0.0506774 1.27003)
(0.039662 0.0316977 1.25882)
(0.183107 -0.0235868 0.132645)
(0.0186331 0.00697506 0.352775)
(-0.0405621 0.407609 0.574843)
(0.0874251 0.367633 0.998966)
(0.197302 0.299489 0.840309)
(0.230768 0.0957572 0.169857)
(0.0394634 0.123916 0.816501)
(-0.211701 0.217321 0.620741)
(-0.133252 -0.0314218 0.144609)
(0.0392628 0.185138 0.369814)
(-0.157573 0.178529 0.781599)
(-0.20614 0.176553 0.962437)
(0.0861367 0.560297 1.39354)
(0.116629 0.252383 0.688873)
(0.0276458 -0.0690175 0.580233)
(0.0271062 -0.0117444 1.64669)
(0.100708 0.0725317 1.06932)
(0.049718 0.206104 1.09103)
(0.152754 -0.180994 1.17793)
(-0.0320753 0.0471378 1.21899)
(0.0875308 0.00894159 -0.192024)
(-0.0935483 0.0674865 -0.194985)
(0.180569 0.0151031 1.46452)
(0.123638 -0.107374 1.13088)
(0.0720011 0.121994 0.0895706)
(-0.29055 0.218176 0.529114)
(-0.0324413 0.429216 0.133328)
(0.108774 0.258126 0.78934)
(0.175309 0.251934 0.752168)
(0.277053 0.160507 0.261985)
(-0.00977625 0.0149285 0.0168474)
(0.0381865 0.0180655 1.07491)
(-0.041755 0.19014 0.363245)
(-0.183498 -0.0649503 0.00474245)
(0.0463427 0.0617254 0.417048)
(-0.0693982 0.104999 0.91985)
(-0.0103589 0.100886 0.967069)
(0.00123113 0.00111662 0.000691895)
(0.118689 0.335625 1.39454)
(0.148978 0.138993 0.676804)
(-0.0767277 -0.0704657 0.75649)
(0.0207309 0.0213867 1.68853)
(0.056878 0.100471 1.27171)
(0.0441262 0.258568 1.10253)
(0.180779 -0.157367 1.27239)
(-0.0541726 0.0502098 1.3369)
(0.130995 -0.0659974 -0.102376)
(-0.116735 0.0658442 -0.00257065)
(0.148582 -0.0295596 1.43633)
(0.190337 0.00209283 1.18058)
(-0.00158009 0.0105442 0.168126)
(-0.311783 0.167616 0.364902)
(-0.110641 0.107718 0.182216)
(-0.0436445 0.13847 0.53972)
(0.160786 0.197578 0.606023)
(0.0259594 0.172794 0.28968)
(-0.130278 0.155599 -0.0591498)
(0.00254243 -0.0426523 1.15417)
(-0.118125 0.162716 0.379157)
(0.0179571 -0.186548 0.295393)
(-0.0780816 0.0220973 0.497995)
(-0.021509 0.0188776 0.98893)
(0.0549788 0.133213 1.02401)
(-0.19978 0.132934 0.055457)
(0.173807 0.0480637 1.2753)
(0.198838 0.0102019 0.69142)
(-0.1393 -0.128965 0.893275)
(0.0310972 0.00436083 1.66666)
(0.0597514 0.120331 1.26392)
(-0.0496201 0.0967884 0.179479)
(0.0554955 0.221 1.11133)
(0.195076 -0.099529 1.36908)
(-0.0566367 0.0494731 1.40883)
(-0.0778164 -0.0560658 0.105155)
(0.0948403 -0.156186 0.152386)
(0.0955875 0.0932889 1.33083)
(0.123096 -0.023215 1.21157)
(0.0297273 -0.197755 0.236147)
(-0.182027 0.0332686 0.368438)
(-0.0864363 -0.0507204 0.203759)
(-0.147214 0.156453 0.450699)
(0.133921 0.22637 0.555349)
(-0.0515641 0.18971 0.385049)
(-0.226863 -0.0633728 -0.138809)
(-0.0155808 -0.0796122 1.13966)
(-0.0606741 -0.0735169 0.551338)
(0.0613312 -0.187095 0.252179)
(-0.135812 -0.0194967 0.611423)
(0.000211126 -0.0545863 1.02717)
(0.0435427 0.140845 1.03236)
(0.0266602 0.146766 0.110526)
(0.11599 -0.146576 1.02506)
(0.187723 0.0358417 0.673603)
(-0.153177 -0.168088 0.971951)
(0.0311562 -0.073155 1.57066)
(-0.0420418 0.0376382 1.22141)
(0.305183 0.117959 0.277474)
(0.0530803 0.127017 1.11458)
(0.186851 -0.0773885 1.35632)
(0.121622 -0.0880381 1.40028)
(-0.120418 -0.0682791 0.219105)
(0.157706 -0.182927 0.342012)
(0.0568843 0.10068 1.26338)
(0.0670734 -0.0708394 1.23463)
(-0.0325796 -0.203575 0.262357)
(-0.115222 0.0281743 0.380698)
(-0.0700394 0.00676805 0.274471)
(-0.13596 0.163505 0.331547)
(0.0811838 0.207443 0.478032)
(-0.195558 0.0563819 0.400891)
(-0.0999679 -0.297904 -0.263043)
(-0.0198157 -0.0765081 1.15785)
(-0.0198539 -0.137311 0.716464)
(0.0619417 -0.182657 0.34796)
(-0.169185 -0.0520815 0.708213)
(-0.0536381 -0.103095 1.09398)
(0.0129037 0.0968017 1.07858)
(0.237126 -0.143584 0.196516)
(0.0261629 -0.156376 0.781499)
(0.163533 0.047921 0.690843)
(-0.16751 -0.124509 1.04151)
(0.0338447 -0.266841 1.52763)
(-0.0414957 -0.108358 1.35846)
(0.00850088 -0.0879949 1.03687)
(0.164813 -0.134085 1.13282)
(0.29999 -0.225529 1.17121)
(-0.16359 -0.076257 0.431964)
(0.146524 -0.161155 0.355922)
(0.0236683 0.0925808 1.22937)
(0.0212568 -0.169045 1.18578)
(-0.138494 -0.151512 0.294014)
(-0.0377761 -0.0317558 0.394613)
(-6.45805e-06 0.0242104 0.362332)
(-0.102518 0.0633739 0.286857)
(-0.0172711 0.075898 0.483368)
(-0.314447 -0.17821 0.355614)
(-0.0166971 -0.0110177 1.23741)
(-0.0361201 -0.170667 0.819746)
(0.0604545 -0.145723 0.433992)
(-0.168979 -0.0704886 0.810282)
(-0.0404152 -0.10526 1.22012)
(-0.142485 0.0438524 1.08941)
(0.0297979 -0.124954 0.683719)
(0.141389 0.0246411 0.722968)
(-0.169102 -0.0449134 1.11536)
(-0.014892 -0.293811 1.47187)
(0.102558 -0.155637 1.55468)
(-0.0167459 -0.0832734 0.915949)
(0.177728 -0.0771957 0.960124)
(0.187056 -0.134187 0.970204)
(-0.15387 -0.0473173 0.64814)
(0.0700189 -0.140456 0.409071)
(-0.0329771 0.0776221 1.249)
(-4.07591e-06 -0.165005 1.16759)
(-0.0565397 -0.0789685 0.338876)
(-0.0281234 -0.155516 0.455229)
(0.0783637 0.00708206 0.430213)
(-0.0498197 -0.0264179 0.315125)
(-0.0884159 0.0023893 0.455815)
(-0.0367634 -0.17349 0.183785)
(-0.0139605 0.0645321 1.25345)
(-0.0418054 -0.157053 0.770377)
(0.0598358 -0.108222 0.469392)
(-0.143496 -0.0749664 0.851076)
(-0.0511286 -0.0814816 1.28535)
(0.0276047 0.0229189 1.08394)
(0.0506142 -0.0546998 0.646553)
(0.141486 0.00131038 0.732987)
(-0.11628 0.0163288 1.12026)
(0.0630556 -0.252097 1.32781)
(0.107054 -0.197263 1.65713)
(0.0126678 -0.0284745 0.767585)
(0.128145 -0.00941133 0.934072)
(0.156949 -0.113061 0.834735)
(-0.0875974 -0.0245341 0.752478)
(-0.00324073 -0.09412 0.534091)
(-0.0334948 0.0291764 1.23295)
(0.0202196 -0.105256 1.14805)
(0.0593145 0.011248 0.39889)
(-0.00183135 -0.141502 0.499968)
(0.139628 -0.0140482 0.46405)
(-0.00412651 -0.0742846 0.374851)
(-0.092246 -0.012779 0.426045)
(0.0413226 -0.140848 0.141979)
(0.00152774 0.113288 1.22765)
(0.0537503 -0.0733567 0.648898)
(0.0709374 -0.0648443 0.488939)
(-0.118182 -0.0691127 0.858476)
(-0.0725172 -0.06824 1.29418)
(0.0192847 0.0499763 1.02453)
(0.136516 0.0403817 0.516386)
(0.140381 -0.00774597 0.750169)
(-0.0566474 0.0456398 1.06915)
(0.10122 -0.0780075 1.20734)
(0.017588 -0.143656 1.72874)
(0.0223394 0.0197423 0.68133)
(0.0288006 0.0511055 0.975806)
(0.151162 -0.0872984 0.697559)
(-0.0465326 -0.0311597 0.812958)
(-0.0415627 -0.026171 0.565527)
(-0.00360997 -0.00647804 1.27686)
(0.0282973 -0.0833779 1.12876)
(-0.0141558 0.0782147 0.408794)
(0.00269585 0.0208507 0.488144)
(0.196661 -0.0112307 0.480045)
(0.0521027 -0.109087 0.451534)
(-0.0607607 -0.00223928 0.442649)
(0.0248589 -0.0757305 0.124204)
(0.00608283 0.143774 1.14662)
(0.129141 -0.0666758 0.591215)
(0.116742 -0.0269529 0.511207)
(-0.0877634 -0.0454526 0.860773)
(-0.105145 -0.0534499 1.27421)
(0.0217967 0.0661784 1.01966)
(0.169452 0.0698345 0.374366)
(0.115013 -0.01495 0.77194)
(-0.0333669 0.0628391 1.01107)
(0.0615541 -0.0184817 1.14085)
(0.00394939 -0.103212 1.71557)
(-0.0474227 0.0266141 0.689708)
(-0.038181 0.0657475 0.988627)
(0.143316 -0.0559828 0.614397)
(-0.0523269 -0.035873 0.832688)
(0.0635171 -0.0243942 0.448205)
(0.0306861 -0.0239197 1.31429)
(0.0129313 -0.0648254 1.1606)
(-0.0192546 0.0597004 0.329314)
(0.0914801 0.0182276 0.411737)
(0.226202 0.00689842 0.495647)
(0.0900887 -0.11624 0.515528)
(0.0174984 0.0479531 0.480616)
(0.00185635 -0.0263364 0.137398)
(0.010512 0.117806 1.10465)
(0.205208 -0.0563091 0.4931)
(0.173948 -0.0148261 0.559418)
(-0.052254 -0.0191647 0.880849)
(-0.121337 0.00105637 1.2387)
(0.0446561 0.0752252 0.996618)
(0.128562 0.0303343 0.355799)
(0.0536764 -0.0369771 0.79108)
(-0.0537308 0.0754803 0.976387)
(0.0480068 0.0512962 1.12931)
(0.0203557 -0.125621 1.65809)
(-0.132957 0.00911194 0.743418)
(-0.107727 0.0539399 0.950295)
(0.0748064 -0.0261157 0.572463)
(-0.0272278 -0.0247608 0.842785)
(0.0992909 -0.0978177 0.366296)
(0.0250517 -0.0577804 1.36281)
(0.00971971 -0.0174147 1.17308)
(0.0437208 -0.0289729 0.295322)
(0.174346 -0.0336355 0.339102)
(0.21371 0.0313144 0.511024)
(0.0812666 -0.099343 0.560783)
(0.0485906 0.0957187 0.486764)
(-0.0105566 -0.0146161 0.15591)
(0.00965055 0.0166624 0.809334)
(0.262361 -0.0246231 0.387015)
(0.185217 -0.038992 0.631682)
(-0.035856 -0.0185304 0.921656)
(-0.094341 0.011956 1.22489)
(0.09043 0.0679316 0.94543)
(0.0449743 -0.0458095 0.412216)
(-0.00773908 -0.0638737 0.804999)
(-0.130554 0.0667986 0.970461)
(-0.0559733 0.115025 1.14035)
(-0.0105843 -0.0652868 1.58938)
(-0.166878 -0.013723 0.776384)
(-0.164179 0.0507801 0.893956)
(-0.0736374 0.0530124 0.604539)
(0.0120569 0.0108712 0.770624)
(0.0692379 -0.076037 0.34101)
(0.0417155 -0.118115 1.4072)
(-0.0475234 -0.0167569 1.10533)
(0.0844566 -0.0198791 0.334017)
(0.119414 -0.0405317 0.311026)
(0.1536 0.0613972 0.534456)
(0.0509163 -0.0928224 0.588293)
(0.0445713 0.120405 0.493537)
(-0.0232985 -0.0373834 0.186345)
(0.00911884 -0.0224957 0.50824)
(0.197242 -0.0475799 0.351078)
(0.119965 -0.0848583 0.716205)
(-0.0459323 -0.0541808 0.955776)
(-0.0660823 -0.01421 1.18503)
(0.12602 0.0525313 0.931044)
(-0.0315157 -0.104774 0.466396)
(-0.0432949 -0.0750279 0.813494)
(-0.215382 0.0230023 0.971259)
(-0.131011 0.104089 1.14868)
(-0.0823155 0.0789611 1.41159)
(-0.167973 -0.0202017 0.7765)
(-0.17566 0.0448562 0.886107)
(-0.161802 0.111932 0.646829)
(0.225203 0.0190892 0.680017)
(-0.0201612 0.0183424 0.356366)
(0.0010471 -0.125537 1.42204)
(-0.0273203 -0.0543687 1.07181)
(0.119252 0.0330122 0.403157)
(0.0547448 -0.0163068 0.309364)
(0.0867319 0.0577397 0.566303)
(0.0338048 -0.0984101 0.601164)
(0.0254746 0.118641 0.523986)
(-0.0451679 -0.0871167 0.250563)
(-0.000475049 -0.0328925 0.393248)
(0.127726 -0.0637837 0.333214)
(0.0179856 -0.118098 0.785374)
(-0.0472904 -0.102921 0.962479)
(-0.0908042 -0.0863582 1.15816)
(0.0883836 -0.0907668 0.88456)
(-0.0708011 -0.131397 0.499095)
(-0.0520693 -0.0674784 0.810371)
(-0.224058 -0.00586232 0.973418)
(-0.195442 9.94907e-05 1.10465)
(-0.0550423 0.0934517 1.24437)
(-0.160091 -0.0215543 0.752013)
(-0.138105 0.028229 0.894598)
(-0.116672 0.110306 0.655045)
(0.31708 0.00399863 0.709298)
(-0.0747548 0.0782437 0.406885)
(0.043482 -0.0870084 1.25608)
(0.0279469 -0.0889295 1.11371)
(0.143813 0.0844537 0.480158)
(0.014703 -5.71085e-05 0.350121)
(0.029906 0.0215221 0.618208)
(0.0195764 -0.0944674 0.619738)
(-0.0064345 0.084665 0.613013)
(-0.0564806 -0.127068 0.333732)
(-0.00695577 -0.0267172 0.365723)
(0.0723463 -0.0696543 0.353841)
(-0.0537227 -0.124853 0.819103)
(-0.0215862 -0.123386 0.944481)
(-0.085253 -0.160912 1.16192)
(0.0464888 -0.190766 0.823113)
(-0.0873798 -0.130812 0.52843)
(-0.0655915 -0.043601 0.78197)
(-0.181192 -0.0172171 0.971652)
(-0.212808 -0.0892363 0.952721)
(0.0311553 -0.124707 0.926659)
(-0.162028 -0.00689507 0.702348)
(-0.0687131 -0.0170923 0.890112)
(0.010019 0.0344552 0.647328)
(0.265578 0.00145635 0.716373)
(-0.0733194 0.0665964 0.442192)
(0.00481915 0.106641 0.929701)
(0.0940916 -0.0975295 1.21084)
(0.146263 0.105497 0.548959)
(-0.0155789 -0.0105701 0.412404)
(-0.0188226 -0.015591 0.679553)
(-0.0141914 -0.0791105 0.667166)
(-0.0393186 0.0248037 0.701413)
(-0.0543678 -0.153473 0.391882)
(-0.0109137 -0.0137079 0.386241)
(0.0307719 -0.0717284 0.40374)
(-0.0790659 -0.104666 0.816259)
(-0.0016313 -0.108271 0.910417)
(-0.0493517 -0.181231 1.1542)
(0.0437996 -0.158254 0.820245)
(-0.0917873 -0.115588 0.565294)
(-0.0932371 -0.0144004 0.727012)
(-0.110141 -0.0154936 0.900609)
(-0.0561614 -0.0626631 0.828179)
(0.00338884 -0.0274789 0.658639)
(-0.165518 -0.0168372 0.677848)
(-0.0453931 0.0168512 0.824563)
(0.0510639 -0.00209977 0.63659)
(0.187539 0.00600474 0.701705)
(-0.060723 0.0398442 0.470084)
(-0.106976 0.0387218 0.751821)
(0.119276 -0.0729115 1.20574)
(0.126759 0.100872 0.60945)
(-0.0458438 -0.0233506 0.473561)
(-0.0592454 -0.0374079 0.728101)
(-0.0556271 -0.0728264 0.728823)
(-0.0585001 -0.0424187 0.774014)
(-0.0516279 -0.176547 0.418646)
(-0.011948 0.0017012 0.433954)
(0.0102185 -0.0641252 0.46056)
(-0.0989409 -0.0591177 0.792887)
(-0.0273505 -0.0815755 0.882954)
(-0.0416248 -0.171806 1.13942)
(-0.0231436 -0.05442 0.793794)
(-0.0965457 -0.102725 0.60352)
(-0.113099 0.00772576 0.695521)
(-0.0997883 0.0138484 0.804084)
(0.0175463 -0.0112503 0.786939)
(-0.0316801 0.0730368 0.479708)
(-0.155337 -0.0342775 0.673374)
(-0.0636104 0.0366259 0.748598)
(0.0263933 0.00613988 0.632561)
(0.172908 0.00710986 0.775057)
(-0.0462805 0.0244776 0.529004)
(-0.140794 -0.0359296 0.67986)
(0.137714 -0.0370324 0.990017)
(0.088575 0.0795587 0.682772)
(-0.0656139 -0.0313641 0.532289)
(-0.0833329 -0.0457866 0.751464)
(-0.0806008 -0.0704076 0.762085)
(-0.0397502 -0.0968248 0.817024)
(-0.0253878 -0.160385 0.470882)
(-0.0114806 0.0129304 0.494134)
(0.00241058 -0.0479068 0.519832)
(-0.129788 -0.00656397 0.773132)
(-0.109544 -0.0307255 0.824806)
(-0.0494704 -0.133814 1.09967)
(-0.0174746 -0.0265763 0.595304)
(-0.0998541 -0.0922532 0.647813)
(-0.126721 0.0303308 0.693999)
(-0.123397 0.0543708 0.744534)
(-0.00383169 0.0115489 0.771209)
(-0.0277377 0.0927454 0.405873)
(-0.148164 -0.0325135 0.691921)
(-0.106962 0.0433502 0.711922)
(-0.0881175 0.0516173 0.63353)
(0.177696 -0.000849727 0.869065)
(-0.0216762 0.014826 0.587497)
(-0.0899017 -0.0607788 0.667055)
(0.0629859 -0.0389814 0.79814)
(0.0498973 0.0431798 0.750768)
(-0.057458 -0.0349147 0.584116)
(-0.0904254 -0.0417932 0.750412)
(-0.0852039 -0.0638385 0.759846)
(-0.00418511 -0.118516 0.805263)
(0.033559 -0.0507037 0.602904)
(-0.00838525 0.00929227 0.551493)
(0.00548979 -0.038581 0.58461)
(-0.14281 0.0457806 0.766737)
(-0.171559 0.0370907 0.743814)
(-0.0465734 -0.0416235 0.934961)
(0.0484042 -0.0575567 0.467841)
(-0.0975352 -0.0766385 0.704847)
(-0.126774 0.0517094 0.716211)
(-0.145011 0.0865024 0.709078)
(-0.0608224 0.107137 0.721163)
(-0.0257327 0.0873729 0.359187)
(-0.139168 -0.0232651 0.739607)
(-0.138416 0.0619023 0.723714)
(-0.141798 0.0903362 0.628362)
(0.169873 -0.00993443 0.961717)
(0.00783848 -0.00977205 0.611714)
(-0.0213762 -0.0634565 0.649773)
(-0.0126322 -0.0482142 0.731943)
(0.0358223 0.0147481 0.794568)
(-0.0228824 -0.0501152 0.626568)
(-0.0861999 -0.0168472 0.725811)
(-0.0759876 -0.0304141 0.711373)
(0.0191277 -0.0915736 0.762332)
(0.0646031 0.0333194 0.710425)
(-0.00277425 -0.0313015 0.589189)
(0.0126658 -0.0496993 0.632326)
(-0.112571 0.0884285 0.777677)
(-0.169056 0.0985125 0.671369)
(-0.0342353 0.0420445 0.723328)
(0.0565399 -0.0319733 0.42816)
(-0.0938723 -0.0608931 0.765605)
(-0.103422 0.0666723 0.758188)
(-0.140841 0.0984697 0.687094)
(-0.034078 0.166472 0.641125)
(-0.0196613 0.0827184 0.35858)
(-0.133453 -0.0169901 0.806717)
(-0.151718 0.0743895 0.769262)
(-0.136298 0.105942 0.666781)
(0.150325 -0.0194498 1.05048)
(0.0298266 -0.0346305 0.624399)
(0.0364961 -0.0503969 0.639139)
(-0.0473322 -0.0468377 0.719526)
(0.0423088 -0.00181072 0.833793)
(-0.00179753 -0.0699664 0.650954)
(-0.0552849 0.00960735 0.697854)
(-0.0450207 0.00876637 0.627193)
(0.00665058 -0.00516129 0.673886)
(0.0774798 0.0874392 0.776647)
(-0.00352898 -0.0729368 0.615086)
(0.0110106 -0.0699245 0.652038)
(-0.0591085 0.109999 0.802826)
(-0.109843 0.126468 0.627925)
(-0.0326906 0.0741848 0.597397)
(0.0321361 0.0223446 0.438032)
(-0.0929527 -0.0496417 0.818085)
(-0.0712941 0.0597154 0.800751)
(-0.103323 0.0943545 0.674746)
(-0.00027975 0.1334 0.595734)
(-0.0179095 0.0815684 0.386157)
(-0.128214 -0.00797469 0.884348)
(-0.142486 0.0733307 0.823564)
(-0.103313 0.0953248 0.727911)
(0.132975 -0.0381423 1.16581)
(0.0339714 -0.0419008 0.643795)
(0.0599632 -0.02275 0.623942)
(-0.059077 -0.0408554 0.713026)
(0.0580194 -0.0093804 0.855272)
(0.00685611 -0.0947476 0.66263)
(-0.0241745 -7.30921e-05 0.684113)
(-0.0195551 0.0040394 0.581084)
(-0.0326047 0.0324931 0.612485)
(0.0761077 0.122527 0.807534)
(-0.0112532 -0.0805826 0.658053)
(-0.000744006 -0.099518 0.64946)
(-0.0127352 0.104819 0.819181)
(-0.0312613 0.119468 0.612537)
(-0.0283413 0.0787095 0.540273)
(0.00396585 0.0620009 0.458175)
(-0.0757191 -0.0502188 0.859284)
(-0.0502903 0.0289802 0.826492)
(-0.0350081 0.0723205 0.666581)
(0.0157088 0.0986799 0.586294)
(-0.0249888 0.0892984 0.41288)
(-0.112366 -0.007864 0.957347)
(-0.112926 0.0677643 0.858869)
(-0.0907572 0.0869356 0.789745)
(0.120559 -0.049249 1.31362)
(0.0114276 -0.0038173 0.678981)
(0.0295586 0.00580745 0.595684)
(-0.0548704 -0.0161841 0.707743)
(0.0664852 -0.000921861 0.842676)
(-0.00642971 -0.130458 0.684717)
(-0.00124892 -0.0370667 0.668345)
(-0.00310576 -0.0217386 0.561537)
(-0.0661495 0.0187242 0.574913)
(0.0756188 0.14056 0.82216)
(-0.0123545 -0.0393956 0.757244)
(-0.0154463 -0.140816 0.627779)
(0.016815 0.0662524 0.804757)
(0.0370283 0.0937314 0.606347)
(-0.012189 0.0697847 0.521751)
(-0.0154899 0.079589 0.473499)
(-0.0485588 -0.0515312 0.887761)
(-0.0390533 -0.00760205 0.826887)
(0.000412508 0.0495673 0.658274)
(0.0249098 0.0824855 0.606121)
(-0.0337392 0.10315 0.437064)
(-0.108377 -0.00845254 1.00002)
(-0.0828382 0.0607882 0.885466)
(-0.0996384 0.081413 0.858926)
(0.0859649 -0.0302101 1.35537)
(-0.0310828 0.0369119 0.706082)
(-0.0170436 0.00456369 0.60108)
(-0.0105221 0.0287809 0.698878)
(0.0670271 0.0196856 0.802729)
(0.000376566 -0.111943 0.745066)
(0.0169105 -0.0833041 0.648459)
(0.0086373 -0.0495934 0.559465)
(-0.0874533 -0.017169 0.556913)
(0.0782614 0.146532 0.840068)
(0.00115141 -0.000910243 0.837655)
(0.00911648 -0.160486 0.598211)
(0.0374672 0.00259793 0.757521)
(0.0801923 0.0624521 0.594765)
(0.00545779 0.050139 0.518612)
(-0.0236674 0.0788036 0.485466)
(-0.0416904 -0.0539638 0.8873)
(-0.0277999 -0.0350995 0.803284)
(0.00230186 0.0295923 0.636833)
(0.0340793 0.0774757 0.637055)
(-0.043749 0.113952 0.4514)
(-0.118989 0.0228647 1.03569)
(-0.0722715 0.0620817 0.892547)
(-0.0719761 0.0699825 0.940419)
(-0.000508958 0.0243835 1.15832)
(-0.0738318 0.0449184 0.756046)
(-0.0551639 -0.0209657 0.642476)
(0.0245552 0.0156818 0.691763)
(0.0867597 0.0275395 0.76649)
(0.0294618 -0.0718292 0.805417)
(0.0411994 -0.119534 0.634219)
(0.0165969 -0.0763329 0.567043)
(-0.0987551 -0.0581771 0.55506)
(0.0735745 0.1384 0.866346)
(0.00216167 -0.001657 0.840581)
(0.0542697 -0.127569 0.578095)
(0.0575627 -0.0405689 0.710157)
(0.0949252 0.0285317 0.581068)
(0.0138803 0.0137476 0.518829)
(-0.0194236 0.0597899 0.496037)
(-0.0201693 -0.0696391 0.832398)
(-0.0194602 -0.0560178 0.770774)
(-0.0112422 0.00716882 0.600063)
(0.0369751 0.0677192 0.664867)
(-0.0513991 0.108383 0.447244)
(-0.0820056 0.035274 1.08362)
(-0.0502158 0.0724696 0.889541)
(-0.0254558 0.0552459 1.07775)
(-0.0182146 0.0034649 0.976038)
(-0.11768 0.070847 0.854087)
(-0.0639302 -0.0522611 0.685293)
(0.0401424 -0.0477532 0.69426)
(0.0985898 0.0189714 0.761825)
(0.0135297 -0.0325741 0.837951)
(0.0773693 -0.135132 0.630768)
(0.0252878 -0.10609 0.583249)
(-0.107415 -0.103592 0.56636)
(0.04102 0.103078 0.895316)
(0.00262158 -0.0180011 0.729754)
(0.0597998 -0.0858063 0.577942)
(0.086715 -0.0635156 0.67303)
(0.0887872 -0.0103198 0.570527)
(0.0168495 -0.0360706 0.520065)
(-0.00716998 0.0235362 0.511472)
(-0.00874277 -0.103915 0.760674)
(-0.0118823 -0.072581 0.751677)
(-0.0271558 -0.0156231 0.568739)
(0.0287953 0.0266496 0.684269)
(-0.0429976 0.0641996 0.428236)
(-0.0680513 -0.0121361 1.07644)
(0.0399222 -0.00490779 0.928687)
(0.00834426 -0.014596 1.12779)
(-0.0109819 -0.00625176 0.957464)
(-0.104654 0.0945077 0.902538)
(-0.00623625 -0.0972624 0.718046)
(0.0601201 -0.10487 0.716658)
(0.0965467 -0.00546666 0.794157)
(0.0371984 0.0405504 0.832256)
(0.113406 -0.134871 0.631073)
(0.0437553 -0.135746 0.609829)
(-0.107874 -0.156402 0.591689)
(-0.00820016 0.0646437 0.893396)
(-0.00184162 0.000635436 0.682265)
(0.0604643 -0.0238859 0.625904)
(0.112847 -0.0753616 0.650455)
(0.0722921 -0.0490702 0.561387)
(0.0213803 -0.0824976 0.526778)
(0.00132751 -0.0177659 0.526177)
(-0.0127511 -0.140602 0.679628)
(0.0147684 -0.0829207 0.749106)
(-0.0478728 -0.030416 0.550707)
(-0.0139082 -0.0639076 0.67007)
(-0.00465487 0.00551803 0.420421)
(-0.0845677 -0.0859616 0.958751)
(0.0715339 -0.0856021 0.852777)
(0.0902659 -0.0688404 1.09019)
(0.0257774 -0.0117391 1.01934)
(-0.0819167 0.0747343 0.899106)
(0.0852192 -0.130888 0.749651)
(0.0880449 -0.141302 0.772318)
(0.0947147 -0.036928 0.876675)
(0.073152 0.0523785 0.745927)
(0.126699 -0.129522 0.625642)
(0.0737787 -0.150673 0.646221)
(-0.0804424 -0.211391 0.644769)
(-0.0869147 0.00818288 0.837761)
(0.0100284 0.0863663 0.651208)
(0.0821756 0.030489 0.697044)
(0.120214 -0.0891802 0.641571)
(0.0574472 -0.0832621 0.551124)
(0.0289726 -0.10523 0.533665)
(0.00635175 -0.0485476 0.526264)
(0.0287572 -0.117299 0.621477)
(0.0647945 -0.0941428 0.750214)
(-0.063462 -0.0416302 0.547824)
(-0.0476473 -0.151107 0.588166)
(0.0188703 -0.0258368 0.436671)
(-0.078031 -0.0658019 0.811868)
(0.0117218 -0.0536854 0.729812)
(0.0925992 -0.0672785 1.08597)
(0.0204794 -0.00619989 1.11873)
(0.0402964 -0.0514747 0.917746)
(0.158823 -0.136634 0.822075)
(0.0975108 -0.141752 0.848868)
(0.0891687 -0.025071 0.972912)
(0.0576621 0.0430684 0.614404)
(0.117717 -0.1179 0.61197)
(0.099088 -0.129186 0.682949)
(-0.0192097 -0.233316 0.730241)
(-0.104682 -0.0888565 0.787276)
(0.0119991 0.14223 0.615635)
(0.0579206 0.0878081 0.709504)
(0.10754 -0.101572 0.63345)
(0.0502137 -0.100184 0.542238)
(0.0364872 -0.103307 0.529606)
(0.0142079 -0.0800268 0.498145)
(0.0749273 0.0138925 0.650508)
(0.0865365 -0.103616 0.753522)
(-0.0651827 -0.0490089 0.551632)
(-0.0305484 -0.163795 0.508378)
(0.00673967 -0.0193295 0.441798)
(-0.0687248 -0.0444666 0.730322)
(-0.0904863 -0.0207902 0.647058)
(0.0269311 0.0311406 1.09808)
(0.0311798 -0.00253615 1.18326)
(0.0602445 -0.0552877 0.83712)
(0.260722 -0.135922 0.915681)
(0.121665 -0.0944741 0.916515)
(0.0754978 -0.0176246 1.06512)
(0.0235176 0.0342451 0.535039)
(0.074226 -0.0598651 0.578867)
(0.10592 -0.05044 0.705307)
(0.0393825 -0.159183 0.81491)
(-0.0108163 -0.0975691 0.807304)
(0.0101165 0.157231 0.613271)
(-0.044764 0.108544 0.664488)
(0.0694535 -0.0991238 0.616926)
(0.0433041 -0.0889248 0.537813)
(0.0431121 -0.0651259 0.508543)
(0.0332111 -0.0804029 0.453783)
(0.101431 0.113418 0.716364)
(0.0895957 -0.109552 0.757765)
(-0.0574997 -0.037725 0.557557)
(-0.0173162 -0.0825973 0.490435)
(-0.0142927 0.00795438 0.406397)
(-0.0582113 -0.0400695 0.716188)
(-0.132159 -0.00902298 0.620994)
(-0.0735174 -0.00250244 0.892163)
(0.0372305 0.0115275 1.25505)
(0.0813085 -0.00659269 0.475355)
(0.259565 -0.0736313 1.0082)
(0.0347768 -0.0313685 0.974064)
(0.0617175 0.0290239 1.15829)
(-0.0160589 0.0377421 0.494339)
(0.0063533 0.0563298 0.545878)
(0.0822907 0.0980738 0.677231)
(0.0543156 0.00654106 0.839656)
(0.0892402 -0.00145604 0.862455)
(0.00763946 0.151864 0.636297)
(-0.100557 0.0955313 0.637761)
(0.0223406 -0.0622546 0.617829)
(0.0157373 -0.0172148 0.546789)
(0.03073 0.0147836 0.487666)
(0.05542 -0.0109145 0.432077)
(0.115821 0.146619 0.758593)
(0.0871431 -0.109347 0.761162)
(-0.0592897 0.0184656 0.574193)
(-0.024711 0.0181924 0.479471)
(-0.0299318 0.0585274 0.374342)
(-0.0533793 -0.0308983 0.727585)
(-0.118465 0.00405091 0.613929)
(-0.106442 0.0342731 0.616681)
(0.0291323 0.0160163 1.2468)
(-0.0207833 0.0709277 0.357117)
(0.0547662 0.131145 0.982743)
(-0.0417629 0.0275715 1.03465)
(0.0414965 0.0557781 1.15661)
(-0.0641889 0.0634938 0.500563)
(-0.068671 0.160282 0.551236)
(0.0430457 0.215078 0.620609)
(0.0471109 0.169675 0.784837)
(0.140861 0.0750863 0.876581)
(0.00614906 0.13667 0.673808)
(-0.100337 0.100248 0.640244)
(-0.0114491 -0.0132952 0.658245)
(-0.0345037 0.0794782 0.567004)
(-0.00479058 0.0893489 0.475929)
(0.0558306 0.0994607 0.442781)
(0.111192 0.165865 0.789985)
(0.0779873 -0.103168 0.775919)
(-0.0844427 0.080461 0.616147)
(-0.0451849 0.0914406 0.471781)
(-0.0522177 0.123821 0.378372)
(-0.0583704 -0.0184938 0.755781)
(-0.121416 0.0268906 0.628114)
(-0.119069 0.077773 0.569572)
(0.0315264 0.0235497 1.14545)
(-0.0997297 0.105709 0.405138)
(-0.152193 0.331946 0.766435)
(0.0691371 0.175563 1.00427)
(0.0450175 0.0882859 1.10929)
(-0.0926654 0.0887554 0.54813)
(-0.13497 0.178853 0.599775)
(-0.018275 0.25555 0.592031)
(0.0197204 0.258884 0.693264)
(0.158461 0.122151 0.875673)
(0.0089352 0.145729 0.701546)
(-0.0715963 0.13683 0.683991)
(-0.0299476 0.000640119 0.730437)
(-0.0856369 0.130467 0.600327)
(-0.054424 0.139467 0.468175)
(0.0270885 0.208293 0.45089)
(0.105624 0.165001 0.82273)
(0.0546038 -0.0930556 0.818611)
(-0.109884 0.104343 0.676947)
(-0.0697486 0.134851 0.4811)
(-0.0817003 0.186001 0.413366)
(-0.071885 -0.0185248 0.792733)
(-0.13412 0.0554317 0.675857)
(-0.134948 0.095439 0.610008)
(-0.00444975 0.0400248 0.724656)
(-0.0801904 0.0771791 0.471562)
(-0.130004 0.216383 0.65082)
(-0.0274509 0.216883 0.768051)
(0.0938596 0.107846 1.12281)
(-0.076891 0.117068 0.578853)
(-0.160929 0.129972 0.672186)
(-0.102179 0.218771 0.59518)
(-0.0540733 0.270608 0.598453)
(0.171945 0.239252 0.865037)
(0.00989187 0.175774 0.729866)
(-0.0730166 0.164658 0.750677)
(-0.0434848 -0.0254601 0.806035)
(-0.115551 0.116772 0.647623)
(-0.0962835 0.15604 0.468238)
(-0.016259 0.296215 0.452551)
(0.105301 0.160476 0.880208)
(0.0213592 -0.0935743 0.861556)
(-0.123812 0.0808637 0.73782)
(-0.0920421 0.152947 0.507249)
(-0.107568 0.225113 0.467104)
(-0.088345 -0.0268903 0.82793)
(-0.142905 0.0641733 0.736631)
(-0.149009 0.10307 0.673724)
(-0.00148351 0.00555328 0.528021)
(-0.0538592 0.0528038 0.473793)
(-0.0685209 0.0862297 0.618904)
(-0.117953 0.1268 0.629304)
(0.0478773 0.103473 1.04684)
(-0.0496165 0.118919 0.584057)
(-0.155879 0.0720335 0.741538)
(-0.139764 0.157481 0.615638)
(-0.119861 0.223564 0.531593)
(0.126901 0.302361 0.849138)
(0.00494158 0.187362 0.780556)
(-0.129585 0.153358 0.820263)
(-0.0590966 -0.0665828 0.867496)
(-0.120928 0.0525365 0.705544)
(-0.111352 0.141978 0.474453)
(-0.054662 0.309989 0.46336)
(0.0904836 0.123258 0.95673)
(-0.0221038 -0.104676 0.89682)
(-0.135874 0.0302113 0.767229)
(-0.0911049 0.115932 0.544656)
(-0.113903 0.222492 0.509407)
(-0.10351 -0.034166 0.85383)
(-0.147151 0.0524645 0.777304)
(-0.145442 0.0944964 0.721106)
(0.0181555 -0.00053294 0.486945)
(-0.0339132 0.0339459 0.438472)
(-0.0117518 0.0179838 0.599489)
(-0.0706239 0.0686882 0.614208)
(-0.0209776 0.116818 0.772724)
(-0.032208 0.0491327 0.600189)
(-0.135233 0.0222225 0.803628)
(-0.122856 0.0980016 0.642494)
(-0.122012 0.160162 0.502698)
(0.0154087 0.231762 0.728351)
(-0.00783197 0.158873 0.900338)
(-0.150968 0.0726937 0.877889)
(-0.0690171 -0.10021 0.912498)
(-0.112114 -0.00928892 0.755824)
(-0.103156 0.0951347 0.486841)
(-0.0691546 0.241068 0.466085)