/*--------------------------------*- C++ -*----------------------------------*\
| =========                 |                                                 |
| \\      /  F ield         | OpenFOAM: The Open Source CFD Toolbox           |
|  \\    /   O peration     | Version:  5.x                                   |
|   \\  /    A nd           | Web:      www.OpenFOAM.org                      |
|    \\/     M anipulation  |                                                 |
\*---------------------------------------------------------------------------*/
FoamFile
{
    version     2.0;
    format      ascii;
    class       volVectorField;
    location    "5.55";
    object      Us;
}
// * * * * * * * * * * * * * * * * * * * * * * * * * * * * * * * * * * * * * //

dimensions      [0 1 -1 0 0 0 0];

internalField   nonuniform List<vector> 
10571
(
(0.0427608 0.0155653 0.065436)
(0.0280118 0.0050711 -0.0499032)
(0.099264 0.00891022 0.0490655)
(0.0139912 -0.0277696 0.103016)
(-0.00448207 -0.00690673 0.0885855)
(0.0689552 0.0639725 0.0102583)
(-0.0469382 -0.0398622 0.154483)
(-0.0576422 -0.154886 0.0942096)
(-0.00898703 -0.0489491 0.0388797)
(0.00156402 0.0140534 -0.00174851)
(-0.0135451 0.0334186 0.0643)
(-0.0326165 -0.010816 0.105964)
(-0.12807 -0.0960461 0.109875)
(-0.0248459 -0.0737025 -0.0469652)
(0.1607 0.0198903 0.0257843)
(0.0614625 0.0427581 0.105008)
(-0.0489709 -0.0626004 0.025419)
(-0.0871351 -0.0623007 -0.0139038)
(0.0483694 0.0224926 -0.0881954)
(0.18461 0.0212123 0.0497297)
(0.041463 -0.0345433 0.0858161)
(0.00351077 0.0569847 0.0397777)
(0.0845457 0.0943741 0.0498995)
(0.0303434 0.0257815 0.0841133)
(0.0341887 0.00845181 0.0617313)
(0.00474804 0.0182695 -0.146534)
(0.0236483 -0.0223524 0.066533)
(0.103325 0.00280211 0.236245)
(0.0585334 0.038909 0.134911)
(0.0963477 0.0220697 -0.0282539)
(0.0343745 -0.0157575 0.226737)
(-0.0340178 -0.0229091 0.0203712)
(-0.0343953 0.000111288 -0.06076)
(-0.0170738 0.0297317 -0.0517225)
(-0.0127758 0.0286551 -0.19819)
(0.0290554 -0.0256126 0.153176)
(0.0100968 -0.028275 -0.0303727)
(0.00616172 0.0091863 -0.18658)
(0.0405134 0.0129733 -0.0184826)
(0.0941866 0.0384507 0.300299)
(0.0224198 -0.0314944 -0.0774428)
(0.0181525 0.00770733 -0.141871)
(0.0286695 0.0345141 -0.197382)
(0.0951255 -0.0815058 0.0750057)
(0.0514111 -0.0287049 0.176523)
(-0.00312075 0.0052885 -0.116109)
(-0.00356042 0.0221557 -0.15266)
(0.0801479 -0.0718736 -0.179212)
(0.0177674 0.0218591 -0.149162)
(-0.00298021 0.017153 -0.258545)
(-0.0242965 -0.0771423 -0.0442539)
(0.0522658 -0.0295635 0.186101)
(0.0975733 0.0353768 -0.192758)
(0.0236741 0.00906168 -0.27567)
(0.0399132 -0.0153313 -0.185336)
(0.0330228 0.0717584 -0.249571)
(0.0210984 0.0354143 -0.240322)
(-0.0416154 0.0749882 -0.205811)
(-0.00738999 0.0401649 -0.246319)
(-0.00782118 -0.0548168 -0.129647)
(0.0286471 0.100559 -0.305014)
(0.0158183 0.128618 -0.319713)
(-0.00946541 -0.00245034 -0.259441)
(-0.00629301 0.0440238 -0.240031)
(-0.0511029 0.0968211 -0.261576)
(0.0275895 0.154834 -0.30388)
(-0.0185406 0.133033 -0.258485)
(-0.0515672 0.032564 -0.205327)
(-0.00453566 0.026689 -0.148793)
(0.0124993 0.0264114 -0.23167)
(-0.0326269 0.126585 -0.190007)
(-0.103424 0.0740173 -0.235196)
(-0.00552107 -0.00133735 -0.405602)
(-0.0632694 0.0499217 -0.344202)
(-0.068066 -0.089264 -0.154233)
(-0.0147657 -0.00603269 -0.183962)
(0.0591571 0.0249131 -0.360937)
(-0.0759391 -0.0124983 -0.26116)
(-0.0192459 0.0878027 -0.302587)
(0.0253982 0.108258 -0.371537)
(0.103613 0.111067 -0.32739)
(0.0580133 0.108385 -0.316196)
(0.0195489 0.214889 -0.258262)
(-0.109383 0.0688212 -0.217267)
(-0.0213452 0.130933 -0.346616)
(0.0173544 0.148639 -0.390232)
(-0.0218689 -0.00806036 -0.184015)
(-0.0117288 -0.0851646 -0.109782)
(-0.145778 0.208414 -0.422594)
(-0.0367247 0.205285 -0.412069)
(-0.0408574 0.0633702 -0.182148)
(-0.0316761 0.0112584 -0.136514)
(-0.0156353 0.00567093 -0.0968511)
(-0.0600482 0.301522 -0.417112)
(0 0 0)
(0 0 0)
(0.000963077 -0.00927936 -0.325771)
(-0.0628652 0.0581785 -0.31892)
(-0.0512045 -0.0690581 -0.0940219)
(0.000693599 -0.0258753 -0.147564)
(0.0684067 0.00575799 -0.307964)
(-0.117814 0.0466267 -0.240824)
(-0.0556394 0.11067 -0.308472)
(0.0315933 0.0647179 -0.270182)
(0.121985 0.0668923 -0.284025)
(0.134592 0.0837664 -0.281992)
(0.00930816 0.251485 -0.266811)
(-0.128394 0.163026 -0.347848)
(-0.052746 0.14611 -0.358724)
(0 0 0)
(0 0 0)
(-0.0182735 -0.000791962 -0.249322)
(0 0 0)
(-0.0532239 0.175648 -0.365695)
(0 0 0)
(0 0 0)
(0 0 0)
(0 0 0)
(0 0 0)
(0 0 0)
(0.0180884 0.00670219 -0.253953)
(-0.0610213 0.0556664 -0.252426)
(-0.0911577 -0.0165156 -0.147862)
(0.0141099 -0.0645867 -0.224524)
(2.34188e-14 4.4177e-14 -1.32104e-13)
(-0.172303 0.0961224 -0.235197)
(-0.0613764 0.077751 -0.221392)
(0.0178067 0.0265877 -0.224608)
(0 0 0)
(0 0 0)
(-0.000549065 0.000199686 -0.000116171)
(0 0 0)
(0 0 0)
(0.00408031 0.121833 -0.347474)
(0 0 0)
(0 0 0)
(0 0 0)
(-0.000196451 -5.33414e-05 -6.84461e-05)
(0 0 0)
(0 0 0)
(0 0 0)
(0 0 0)
(0 0 0)
(0 0 0)
(0 0 0)
(0 0 0)
(0.064021 0.0163178 -0.189969)
(-0.0807025 0.0732147 -0.165389)
(-0.05233 -0.0255974 -0.0787856)
(0 0 0)
(0 0 0)
(-0.1605 0.065548 -0.149537)
(-0.0704616 0.0467065 -0.163251)
(0 0 0)
(0 0 0)
(0 0 0)
(0 0 0)
(0 0 0)
(0 0 0)
(0 0 0)
(0 0 0)
(0 0 0)
(0 0 0)
(0 0 0)
(0 0 0)
(0 0 0)
(0 0 0)
(0 0 0)
(0 0 0)
(0 0 0)
(0 0 0)
(0 0 0)
(0 0 0)
(0 0 0)
(0 0 0)
(0 0 0)
(0 0 0)
(0 0 0)
(0 0 0)
(0 0 0)
(0 0 0)
(0 0 0)
(0 0 0)
(0 0 0)
(0 0 0)
(0 0 0)
(0 0 0)
(0 0 0)
(0 0 0)
(0 0 0)
(0 0 0)
(0 0 0)
(0 0 0)
(0 0 0)
(0 0 0)
(0 0 0)
(0 0 0)
(0 0 0)
(0 0 0)
(0 0 0)
(0 0 0)
(0 0 0)
(0 0 0)
(0 0 0)
(0 0 0)
(0 0 0)
(0 0 0)
(0 0 0)
(0 0 0)
(0 0 0)
(0 0 0)
(0 0 0)
(0 0 0)
(0 0 0)
(0 0 0)
(0 0 0)
(0 0 0)
(0 0 0)
(0 0 0)
(0 0 0)
(0 0 0)
(0 0 0)
(0 0 0)
(0 0 0)
(0 0 0)
(0 0 0)
(0 0 0)
(0 0 0)
(0 0 0)
(0 0 0)
(0 0 0)
(0 0 0)
(0 0 0)
(0 0 0)
(0 0 0)
(0 0 0)
(0 0 0)
(0 0 0)
(0 0 0)
(0 0 0)
(0 0 0)
(0 0 0)
(0 0 0)
(0 0 0)
(0 0 0)
(0 0 0)
(0 0 0)
(0 0 0)
(0 0 0)
(0 0 0)
(0 0 0)
(0 0 0)
(0 0 0)
(0 0 0)
(0 0 0)
(0 0 0)
(0 0 0)
(0 0 0)
(0 0 0)
(0 0 0)
(0 0 0)
(0 0 0)
(0 0 0)
(0 0 0)
(0 0 0)
(0 0 0)
(0 0 0)
(0 0 0)
(0 0 0)
(0 0 0)
(0 0 0)
(0 0 0)
(0 0 0)
(0 0 0)
(0 0 0)
(0 0 0)
(0 0 0)
(0 0 0)
(0 0 0)
(0 0 0)
(0 0 0)
(0 0 0)
(0 0 0)
(0 0 0)
(0 0 0)
(0 0 0)
(0 0 0)
(0 0 0)
(0 0 0)
(0 0 0)
(0 0 0)
(0 0 0)
(0 0 0)
(0 0 0)
(0 0 0)
(0 0 0)
(0 0 0)
(0 0 0)
(0 0 0)
(0 0 0)
(0 0 0)
(0 0 0)
(0 0 0)
(0 0 0)
(0 0 0)
(0 0 0)
(0 0 0)
(0 0 0)
(0 0 0)
(0 0 0)
(0 0 0)
(0 0 0)
(0 0 0)
(0 0 0)
(0 0 0)
(0 0 0)
(0 0 0)
(0 0 0)
(0 0 0)
(0 0 0)
(0 0 0)
(0 0 0)
(0 0 0)
(0 0 0)
(0 0 0)
(0 0 0)
(0 0 0)
(0 0 0)
(0 0 0)
(0 0 0)
(0 0 0)
(0 0 0)
(0 0 0)
(0 0 0)
(0 0 0)
(0 0 0)
(0 0 0)
(0 0 0)
(0 0 0)
(0 0 0)
(0 0 0)
(0 0 0)
(0 0 0)
(0 0 0)
(0 0 0)
(0 0 0)
(0 0 0)
(0 0 0)
(0 0 0)
(0 0 0)
(0 0 0)
(0 0 0)
(0 0 0)
(0 0 0)
(0 0 0)
(0 0 0)
(0 0 0)
(0 0 0)
(0 0 0)
(0 0 0)
(0 0 0)
(0 0 0)
(0 0 0)
(0 0 0)
(0 0 0)
(0 0 0)
(0 0 0)
(0 0 0)
(0 0 0)
(0 0 0)
(0 0 0)
(0 0 0)
(0 0 0)
(0 0 0)
(0 0 0)
(0 0 0)
(0 0 0)
(0 0 0)
(0 0 0)
(0 0 0)
(0 0 0)
(0 0 0)
(0 0 0)
(0 0 0)
(0 0 0)
(0 0 0)
(0 0 0)
(0 0 0)
(0 0 0)
(0 0 0)
(0 0 0)
(0 0 0)
(0 0 0)
(0 0 0)
(0 0 0)
(0 0 0)
(0 0 0)
(0 0 0)
(0 0 0)
(0 0 0)
(0 0 0)
(0 0 0)
(0 0 0)
(0 0 0)
(0 0 0)
(0 0 0)
(0 0 0)
(0 0 0)
(0 0 0)
(0 0 0)
(0 0 0)
(0 0 0)
(0 0 0)
(0 0 0)
(0 0 0)
(0 0 0)
(0 0 0)
(0 0 0)
(0 0 0)
(0 0 0)
(0 0 0)
(0 0 0)
(0 0 0)
(0 0 0)
(0 0 0)
(0 0 0)
(0 0 0)
(0 0 0)
(0 0 0)
(0 0 0)
(0 0 0)
(0 0 0)
(0 0 0)
(0 0 0)
(0 0 0)
(0 0 0)
(0 0 0)
(0 0 0)
(0 0 0)
(0 0 0)
(0 0 0)
(0 0 0)
(0 0 0)
(0 0 0)
(0 0 0)
(0 0 0)
(0 0 0)
(0 0 0)
(0 0 0)
(0 0 0)
(0 0 0)
(0 0 0)
(0 0 0)
(0 0 0)
(0 0 0)
(0 0 0)
(0 0 0)
(0 0 0)
(0 0 0)
(0 0 0)
(0 0 0)
(0 0 0)
(0 0 0)
(0 0 0)
(0 0 0)
(0 0 0)
(0 0 0)
(0 0 0)
(0 0 0)
(0 0 0)
(0 0 0)
(0 0 0)
(0 0 0)
(0 0 0)
(0 0 0)
(0 0 0)
(0 0 0)
(0 0 0)
(0 0 0)
(0 0 0)
(0 0 0)
(0 0 0)
(0 0 0)
(0 0 0)
(0 0 0)
(0 0 0)
(0 0 0)
(0 0 0)
(0 0 0)
(0 0 0)
(0 0 0)
(0 0 0)
(0 0 0)
(0 0 0)
(0 0 0)
(0 0 0)
(0 0 0)
(0 0 0)
(0 0 0)
(0 0 0)
(0 0 0)
(0 0 0)
(0 0 0)
(0 0 0)
(0 0 0)
(0 0 0)
(0 0 0)
(0 0 0)
(0 0 0)
(0 0 0)
(0 0 0)
(0 0 0)
(0 0 0)
(0 0 0)
(0 0 0)
(0 0 0)
(0 0 0)
(0 0 0)
(0 0 0)
(0 0 0)
(0 0 0)
(0 0 0)
(0 0 0)
(0 0 0)
(0 0 0)
(0 0 0)
(0 0 0)
(0 0 0)
(0 0 0)
(0 0 0)
(0 0 0)
(0 0 0)
(0 0 0)
(0 0 0)
(0 0 0)
(0 0 0)
(0 0 0)
(0 0 0)
(0 0 0)
(0 0 0)
(0 0 0)
(0 0 0)
(0 0 0)
(0 0 0)
(0 0 0)
(0 0 0)
(0 0 0)
(0 0 0)
(0 0 0)
(0 0 0)
(0 0 0)
(0 0 0)
(0 0 0)
(0 0 0)
(0 0 0)
(0 0 0)
(0 0 0)
(0 0 0)
(0 0 0)
(0 0 0)
(0 0 0)
(0 0 0)
(0 0 0)
(0 0 0)
(0 0 0)
(0 0 0)
(0 0 0)
(0 0 0)
(0 0 0)
(0 0 0)
(0 0 0)
(0 0 0)
(0 0 0)
(0 0 0)
(0 0 0)
(0 0 0)
(0 0 0)
(0 0 0)
(0 0 0)
(0 0 0)
(0 0 0)
(0 0 0)
(0 0 0)
(0 0 0)
(0 0 0)
(0 0 0)
(0 0 0)
(0 0 0)
(0 0 0)
(0 0 0)
(0 0 0)
(0 0 0)
(0 0 0)
(0 0 0)
(0 0 0)
(0 0 0)
(0 0 0)
(0 0 0)
(0 0 0)
(0 0 0)
(0 0 0)
(0 0 0)
(0 0 0)
(0 0 0)
(0 0 0)
(0 0 0)
(0 0 0)
(0 0 0)
(0 0 0)
(0 0 0)
(0 0 0)
(0 0 0)
(0 0 0)
(0 0 0)
(0 0 0)
(0 0 0)
(0 0 0)
(0 0 0)
(0 0 0)
(0 0 0)
(0 0 0)
(0 0 0)
(0 0 0)
(0 0 0)
(0 0 0)
(0 0 0)
(0 0 0)
(0 0 0)
(0 0 0)
(0 0 0)
(0 0 0)
(0 0 0)
(0 0 0)
(0 0 0)
(0 0 0)
(0 0 0)
(0 0 0)
(0 0 0)
(0 0 0)
(0 0 0)
(0 0 0)
(0 0 0)
(0 0 0)
(0 0 0)
(0 0 0)
(0 0 0)
(0 0 0)
(0 0 0)
(0 0 0)
(0 0 0)
(0 0 0)
(0 0 0)
(0 0 0)
(0 0 0)
(0 0 0)
(0 0 0)
(0 0 0)
(0 0 0)
(0 0 0)
(0 0 0)
(0 0 0)
(0 0 0)
(0 0 0)
(0 0 0)
(0 0 0)
(0 0 0)
(0 0 0)
(0 0 0)
(0 0 0)
(0 0 0)
(0 0 0)
(0 0 0)
(0 0 0)
(0 0 0)
(0 0 0)
(0 0 0)
(0 0 0)
(0 0 0)
(0 0 0)
(0 0 0)
(0 0 0)
(0 0 0)
(0 0 0)
(0 0 0)
(0 0 0)
(0 0 0)
(0 0 0)
(0 0 0)
(0 0 0)
(0 0 0)
(0 0 0)
(0 0 0)
(0 0 0)
(0 0 0)
(0 0 0)
(0 0 0)
(0 0 0)
(0 0 0)
(0 0 0)
(0 0 0)
(0 0 0)
(0 0 0)
(0 0 0)
(0 0 0)
(0 0 0)
(0 0 0)
(0 0 0)
(0 0 0)
(0 0 0)
(0 0 0)
(0 0 0)
(0 0 0)
(0 0 0)
(0 0 0)
(0 0 0)
(0 0 0)
(0 0 0)
(0 0 0)
(0 0 0)
(0 0 0)
(0 0 0)
(0 0 0)
(0 0 0)
(0 0 0)
(0 0 0)
(0 0 0)
(0 0 0)
(0 0 0)
(0 0 0)
(0 0 0)
(0 0 0)
(0 0 0)
(0 0 0)
(0 0 0)
(0 0 0)
(0 0 0)
(0 0 0)
(0 0 0)
(0 0 0)
(0 0 0)
(0 0 0)
(0 0 0)
(0 0 0)
(0 0 0)
(0 0 0)
(0 0 0)
(0 0 0)
(0 0 0)
(0 0 0)
(0 0 0)
(0 0 0)
(0 0 0)
(0 0 0)
(0 0 0)
(0 0 0)
(0 0 0)
(0 0 0)
(0 0 0)
(0 0 0)
(0 0 0)
(0 0 0)
(0 0 0)
(0 0 0)
(0 0 0)
(0 0 0)
(0 0 0)
(0 0 0)
(0 0 0)
(0 0 0)
(0 0 0)
(0 0 0)
(0 0 0)
(0 0 0)
(0 0 0)
(0 0 0)
(0 0 0)
(0 0 0)
(0 0 0)
(0 0 0)
(0 0 0)
(0 0 0)
(0 0 0)
(0 0 0)
(0 0 0)
(0 0 0)
(0 0 0)
(0 0 0)
(0 0 0)
(0 0 0)
(0 0 0)
(0 0 0)
(0 0 0)
(0 0 0)
(0 0 0)
(0 0 0)
(0 0 0)
(0 0 0)
(0 0 0)
(0 0 0)
(0 0 0)
(0 0 0)
(0 0 0)
(0 0 0)
(0 0 0)
(0 0 0)
(0 0 0)
(0 0 0)
(0 0 0)
(0 0 0)
(0 0 0)
(0 0 0)
(0 0 0)
(0 0 0)
(0 0 0)
(0 0 0)
(0 0 0)
(0 0 0)
(0 0 0)
(0 0 0)
(0 0 0)
(0 0 0)
(0 0 0)
(0 0 0)
(0 0 0)
(0 0 0)
(0 0 0)
(0 0 0)
(0 0 0)
(0 0 0)
(0 0 0)
(0 0 0)
(0 0 0)
(0 0 0)
(0 0 0)
(0 0 0)
(0 0 0)
(0 0 0)
(0 0 0)
(0 0 0)
(0 0 0)
(0 0 0)
(0 0 0)
(0 0 0)
(0 0 0)
(0 0 0)
(0 0 0)
(0 0 0)
(0 0 0)
(0 0 0)
(0 0 0)
(0 0 0)
(0 0 0)
(0 0 0)
(0 0 0)
(0 0 0)
(0 0 0)
(0 0 0)
(0 0 0)
(0 0 0)
(0 0 0)
(0 0 0)
(0 0 0)
(0 0 0)
(0 0 0)
(0 0 0)
(0 0 0)
(0 0 0)
(0 0 0)
(0 0 0)
(0 0 0)
(0 0 0)
(0 0 0)
(0 0 0)
(0 0 0)
(0 0 0)
(0 0 0)
(0 0 0)
(0 0 0)
(0 0 0)
(0 0 0)
(0 0 0)
(0 0 0)
(0 0 0)
(0 0 0)
(0 0 0)
(0 0 0)
(0 0 0)
(0 0 0)
(0 0 0)
(0 0 0)
(0 0 0)
(0 0 0)
(0 0 0)
(0 0 0)
(0 0 0)
(0 0 0)
(0 0 0)
(0 0 0)
(0 0 0)
(0 0 0)
(0 0 0)
(0 0 0)
(0 0 0)
(0 0 0)
(0 0 0)
(0 0 0)
(0 0 0)
(0 0 0)
(0 0 0)
(0 0 0)
(0 0 0)
(0 0 0)
(0 0 0)
(0 0 0)
(0 0 0)
(0 0 0)
(0 0 0)
(0 0 0)
(0 0 0)
(0 0 0)
(0 0 0)
(0 0 0)
(0 0 0)
(0 0 0)
(0 0 0)
(0 0 0)
(0 0 0)
(0 0 0)
(0 0 0)
(0 0 0)
(0 0 0)
(0 0 0)
(0 0 0)
(0 0 0)
(0 0 0)
(0 0 0)
(0 0 0)
(0 0 0)
(0 0 0)
(0 0 0)
(0 0 0)
(0 0 0)
(0 0 0)
(0 0 0)
(0 0 0)
(0 0 0)
(0 0 0)
(0 0 0)
(0 0 0)
(0 0 0)
(0 0 0)
(0 0 0)
(0 0 0)
(0 0 0)
(0 0 0)
(0 0 0)
(0 0 0)
(0 0 0)
(0 0 0)
(0 0 0)
(0 0 0)
(0 0 0)
(0 0 0)
(0 0 0)
(0 0 0)
(0 0 0)
(0 0 0)
(0 0 0)
(0 0 0)
(0 0 0)
(0 0 0)
(0 0 0)
(0 0 0)
(0 0 0)
(0 0 0)
(0 0 0)
(0 0 0)
(0 0 0)
(0 0 0)
(0 0 0)
(0 0 0)
(0 0 0)
(0 0 0)
(0 0 0)
(0 0 0)
(0 0 0)
(0 0 0)
(0 0 0)
(0 0 0)
(0 0 0)
(0 0 0)
(0 0 0)
(0 0 0)
(0 0 0)
(0 0 0)
(0 0 0)
(0 0 0)
(0 0 0)
(0 0 0)
(0 0 0)
(0 0 0)
(0 0 0)
(0 0 0)
(0 0 0)
(0 0 0)
(0 0 0)
(0 0 0)
(0 0 0)
(0 0 0)
(0 0 0)
(0 0 0)
(0 0 0)
(0 0 0)
(0 0 0)
(0 0 0)
(0 0 0)
(0 0 0)
(0 0 0)
(0 0 0)
(0 0 0)
(0 0 0)
(0 0 0)
(0 0 0)
(0 0 0)
(0 0 0)
(0 0 0)
(0 0 0)
(0 0 0)
(0 0 0)
(0 0 0)
(0 0 0)
(0 0 0)
(0 0 0)
(0 0 0)
(0 0 0)
(0 0 0)
(0 0 0)
(0 0 0)
(0 0 0)
(0 0 0)
(0 0 0)
(0 0 0)
(0 0 0)
(0 0 0)
(0 0 0)
(0 0 0)
(0 0 0)
(0 0 0)
(0 0 0)
(0 0 0)
(0 0 0)
(0 0 0)
(0 0 0)
(0 0 0)
(0 0 0)
(0 0 0)
(0 0 0)
(0 0 0)
(0 0 0)
(0 0 0)
(0 0 0)
(0 0 0)
(0 0 0)
(0 0 0)
(0 0 0)
(0 0 0)
(0 0 0)
(0 0 0)
(0 0 0)
(0 0 0)
(0 0 0)
(0 0 0)
(0 0 0)
(0 0 0)
(0 0 0)
(0 0 0)
(0 0 0)
(0 0 0)
(0 0 0)
(0 0 0)
(0 0 0)
(0 0 0)
(0 0 0)
(0 0 0)
(0 0 0)
(0 0 0)
(0 0 0)
(0 0 0)
(0 0 0)
(0 0 0)
(0 0 0)
(0 0 0)
(0 0 0)
(0 0 0)
(0 0 0)
(0 0 0)
(0 0 0)
(0 0 0)
(0 0 0)
(0 0 0)
(0 0 0)
(0 0 0)
(0 0 0)
(0 0 0)
(0 0 0)
(0 0 0)
(0 0 0)
(0 0 0)
(0 0 0)
(0 0 0)
(0 0 0)
(0 0 0)
(0 0 0)
(0 0 0)
(0 0 0)
(0 0 0)
(0 0 0)
(0 0 0)
(0 0 0)
(0 0 0)
(0 0 0)
(0 0 0)
(0 0 0)
(0 0 0)
(0 0 0)
(0 0 0)
(0 0 0)
(0 0 0)
(0 0 0)
(0 0 0)
(0 0 0)
(0 0 0)
(0 0 0)
(0 0 0)
(0 0 0)
(0 0 0)
(0 0 0)
(0 0 0)
(0 0 0)
(0 0 0)
(0 0 0)
(0 0 0)
(0 0 0)
(0 0 0)
(0 0 0)
(0 0 0)
(0 0 0)
(0 0 0)
(0 0 0)
(0 0 0)
(0 0 0)
(0 0 0)
(0 0 0)
(0 0 0)
(0 0 0)
(0 0 0)
(0 0 0)
(0 0 0)
(0 0 0)
(0 0 0)
(0 0 0)
(0 0 0)
(0 0 0)
(0 0 0)
(0 0 0)
(0 0 0)
(0 0 0)
(0 0 0)
(0 0 0)
(0 0 0)
(0 0 0)
(0 0 0)
(0 0 0)
(0 0 0)
(0 0 0)
(0 0 0)
(0 0 0)
(0 0 0)
(0 0 0)
(0 0 0)
(0 0 0)
(0 0 0)
(0 0 0)
(0 0 0)
(0 0 0)
(0 0 0)
(0 0 0)
(0 0 0)
(0 0 0)
(0 0 0)
(0 0 0)
(0 0 0)
(0 0 0)
(0 0 0)
(0 0 0)
(0 0 0)
(0 0 0)
(0 0 0)
(0 0 0)
(0 0 0)
(0 0 0)
(0 0 0)
(0 0 0)
(0 0 0)
(0 0 0)
(0 0 0)
(0 0 0)
(0 0 0)
(0 0 0)
(0 0 0)
(0 0 0)
(0 0 0)
(0 0 0)
(0 0 0)
(0 0 0)
(0 0 0)
(0 0 0)
(0 0 0)
(0 0 0)
(0 0 0)
(0 0 0)
(0 0 0)
(0 0 0)
(0 0 0)
(0 0 0)
(0 0 0)
(0 0 0)
(0 0 0)
(0 0 0)
(0 0 0)
(0 0 0)
(0 0 0)
(0 0 0)
(0 0 0)
(0 0 0)
(0 0 0)
(0 0 0)
(0 0 0)
(0 0 0)
(0 0 0)
(0 0 0)
(0 0 0)
(0 0 0)
(0 0 0)
(0 0 0)
(0 0 0)
(0 0 0)
(0 0 0)
(0 0 0)
(0 0 0)
(0 0 0)
(0 0 0)
(0 0 0)
(0 0 0)
(0 0 0)
(0 0 0)
(0 0 0)
(0 0 0)
(0 0 0)
(0 0 0)
(0 0 0)
(0 0 0)
(0 0 0)
(0 0 0)
(0 0 0)
(0 0 0)
(0 0 0)
(0 0 0)
(0 0 0)
(0 0 0)
(0 0 0)
(0 0 0)
(0 0 0)
(0 0 0)
(0 0 0)
(0 0 0)
(0 0 0)
(0 0 0)
(0 0 0)
(0 0 0)
(0 0 0)
(0 0 0)
(0 0 0)
(0 0 0)
(0 0 0)
(0 0 0)
(0 0 0)
(0 0 0)
(0 0 0)
(0 0 0)
(0 0 0)
(0 0 0)
(0 0 0)
(0 0 0)
(0 0 0)
(0 0 0)
(0 0 0)
(0 0 0)
(0 0 0)
(0 0 0)
(0 0 0)
(0 0 0)
(0 0 0)
(0 0 0)
(0 0 0)
(0 0 0)
(0 0 0)
(0 0 0)
(0 0 0)
(0 0 0)
(0 0 0)
(0 0 0)
(0 0 0)
(0 0 0)
(0 0 0)
(0 0 0)
(0 0 0)
(0 0 0)
(0 0 0)
(0 0 0)
(0 0 0)
(0 0 0)
(0 0 0)
(0 0 0)
(0 0 0)
(0 0 0)
(0 0 0)
(0 0 0)
(0 0 0)
(0 0 0)
(0 0 0)
(0 0 0)
(0 0 0)
(0 0 0)
(0 0 0)
(0 0 0)
(0 0 0)
(0 0 0)
(0 0 0)
(0 0 0)
(0 0 0)
(0 0 0)
(0 0 0)
(0 0 0)
(0 0 0)
(0 0 0)
(0 0 0)
(0 0 0)
(0 0 0)
(0 0 0)
(0 0 0)
(0 0 0)
(0 0 0)
(0 0 0)
(0 0 0)
(0 0 0)
(0 0 0)
(0 0 0)
(0 0 0)
(0 0 0)
(0 0 0)
(0 0 0)
(0 0 0)
(0 0 0)
(0 0 0)
(0 0 0)
(0 0 0)
(0 0 0)
(0 0 0)
(0 0 0)
(0 0 0)
(0 0 0)
(0 0 0)
(0 0 0)
(0 0 0)
(0 0 0)
(0 0 0)
(0 0 0)
(0 0 0)
(0 0 0)
(0 0 0)
(0 0 0)
(0 0 0)
(0 0 0)
(0 0 0)
(0 0 0)
(0 0 0)
(0 0 0)
(0 0 0)
(0 0 0)
(0 0 0)
(0 0 0)
(0 0 0)
(0 0 0)
(0 0 0)
(0 0 0)
(0 0 0)
(0 0 0)
(0 0 0)
(0 0 0)
(0 0 0)
(0 0 0)
(0 0 0)
(0 0 0)
(0 0 0)
(0 0 0)
(0 0 0)
(0 0 0)
(0 0 0)
(0 0 0)
(0 0 0)
(0 0 0)
(0 0 0)
(0 0 0)
(0 0 0)
(0 0 0)
(0 0 0)
(0 0 0)
(0 0 0)
(0 0 0)
(0 0 0)
(0 0 0)
(0 0 0)
(0 0 0)
(0 0 0)
(0 0 0)
(0 0 0)
(0 0 0)
(0 0 0)
(0 0 0)
(0 0 0)
(0 0 0)
(0 0 0)
(0 0 0)
(0 0 0)
(0 0 0)
(0 0 0)
(0 0 0)
(0 0 0)
(0 0 0)
(0 0 0)
(0 0 0)
(0 0 0)
(0 0 0)
(0 0 0)
(0 0 0)
(0 0 0)
(0 0 0)
(0 0 0)
(0 0 0)
(0 0 0)
(0 0 0)
(0 0 0)
(0 0 0)
(0 0 0)
(0 0 0)
(0 0 0)
(0 0 0)
(0 0 0)
(0 0 0)
(0 0 0)
(0 0 0)
(0 0 0)
(0 0 0)
(0 0 0)
(0 0 0)
(0 0 0)
(0 0 0)
(0 0 0)
(0 0 0)
(0 0 0)
(0 0 0)
(0 0 0)
(0 0 0)
(0 0 0)
(0 0 0)
(0 0 0)
(0 0 0)
(0 0 0)
(0 0 0)
(0 0 0)
(0 0 0)
(0 0 0)
(0 0 0)
(0 0 0)
(0 0 0)
(0 0 0)
(0 0 0)
(0 0 0)
(0 0 0)
(0 0 0)
(0 0 0)
(0 0 0)
(0 0 0)
(0 0 0)
(0 0 0)
(0 0 0)
(0 0 0)
(0 0 0)
(0 0 0)
(0 0 0)
(0 0 0)
(0 0 0)
(0 0 0)
(0 0 0)
(0 0 0)
(0 0 0)
(0 0 0)
(0 0 0)
(0 0 0)
(0 0 0)
(0 0 0)
(0 0 0)
(0 0 0)
(0 0 0)
(0 0 0)
(0 0 0)
(0 0 0)
(0 0 0)
(0 0 0)
(0 0 0)
(0 0 0)
(0 0 0)
(0 0 0)
(0 0 0)
(0 0 0)
(0 0 0)
(0 0 0)
(0 0 0)
(0 0 0)
(0 0 0)
(0 0 0)
(0 0 0)
(0 0 0)
(0 0 0)
(0 0 0)
(0 0 0)
(0 0 0)
(0 0 0)
(0 0 0)
(0 0 0)
(0 0 0)
(0 0 0)
(0 0 0)
(0 0 0)
(0 0 0)
(0 0 0)
(0 0 0)
(0 0 0)
(0 0 0)
(0 0 0)
(0 0 0)
(0 0 0)
(0 0 0)
(0 0 0)
(0 0 0)
(0 0 0)
(0 0 0)
(0 0 0)
(0 0 0)
(0 0 0)
(0 0 0)
(0 0 0)
(0 0 0)
(0 0 0)
(0 0 0)
(0 0 0)
(0 0 0)
(0 0 0)
(0 0 0)
(0 0 0)
(0 0 0)
(0 0 0)
(0 0 0)
(0 0 0)
(0 0 0)
(0 0 0)
(0 0 0)
(0 0 0)
(0 0 0)
(0 0 0)
(0 0 0)
(0 0 0)
(0 0 0)
(0 0 0)
(0 0 0)
(0 0 0)
(0 0 0)
(0 0 0)
(0 0 0)
(0 0 0)
(0 0 0)
(0 0 0)
(0 0 0)
(0 0 0)
(0 0 0)
(0 0 0)
(0 0 0)
(0 0 0)
(0 0 0)
(0 0 0)
(0 0 0)
(0 0 0)
(0 0 0)
(0 0 0)
(0 0 0)
(0 0 0)
(0 0 0)
(0 0 0)
(0 0 0)
(0 0 0)
(0 0 0)
(0 0 0)
(0 0 0)
(0 0 0)
(0 0 0)
(0 0 0)
(0 0 0)
(0 0 0)
(0 0 0)
(0 0 0)
(0 0 0)
(0 0 0)
(0 0 0)
(0 0 0)
(0 0 0)
(0 0 0)
(0 0 0)
(0 0 0)
(0 0 0)
(0 0 0)
(0 0 0)
(0 0 0)
(0 0 0)
(0 0 0)
(0 0 0)
(0 0 0)
(0 0 0)
(0 0 0)
(0 0 0)
(0 0 0)
(0 0 0)
(0 0 0)
(0 0 0)
(0 0 0)
(0 0 0)
(0 0 0)
(0 0 0)
(0 0 0)
(0 0 0)
(0 0 0)
(0 0 0)
(0 0 0)
(0 0 0)
(0 0 0)
(0 0 0)
(0 0 0)
(0 0 0)
(0 0 0)
(0 0 0)
(0 0 0)
(0 0 0)
(0 0 0)
(0 0 0)
(0 0 0)
(0 0 0)
(0 0 0)
(0 0 0)
(0 0 0)
(0 0 0)
(0 0 0)
(0 0 0)
(0 0 0)
(0 0 0)
(0 0 0)
(0 0 0)
(0 0 0)
(0 0 0)
(0 0 0)
(0 0 0)
(0 0 0)
(0 0 0)
(0 0 0)
(0 0 0)
(0 0 0)
(0 0 0)
(0 0 0)
(0 0 0)
(0 0 0)
(0 0 0)
(0 0 0)
(0 0 0)
(0 0 0)
(0 0 0)
(0 0 0)
(0 0 0)
(0 0 0)
(0 0 0)
(0 0 0)
(0 0 0)
(0 0 0)
(0 0 0)
(0 0 0)
(0 0 0)
(0 0 0)
(0 0 0)
(0 0 0)
(0 0 0)
(0 0 0)
(0 0 0)
(0 0 0)
(0 0 0)
(0 0 0)
(0 0 0)
(0 0 0)
(0 0 0)
(0 0 0)
(0 0 0)
(0 0 0)
(0 0 0)
(0 0 0)
(0 0 0)
(0 0 0)
(0 0 0)
(0 0 0)
(0 0 0)
(0 0 0)
(0 0 0)
(0 0 0)
(0 0 0)
(0 0 0)
(0 0 0)
(0 0 0)
(0 0 0)
(0 0 0)
(0 0 0)
(0 0 0)
(0 0 0)
(0 0 0)
(0 0 0)
(0 0 0)
(0 0 0)
(0 0 0)
(0 0 0)
(0 0 0)
(0 0 0)
(0 0 0)
(0 0 0)
(0 0 0)
(0 0 0)
(0 0 0)
(0 0 0)
(0 0 0)
(0 0 0)
(0 0 0)
(0 0 0)
(0 0 0)
(0 0 0)
(0 0 0)
(0 0 0)
(0 0 0)
(0 0 0)
(0 0 0)
(0 0 0)
(0 0 0)
(0 0 0)
(0 0 0)
(0 0 0)
(0 0 0)
(0 0 0)
(0 0 0)
(0 0 0)
(0 0 0)
(0 0 0)
(0 0 0)
(0 0 0)
(0 0 0)
(0 0 0)
(0 0 0)
(0 0 0)
(0 0 0)
(0 0 0)
(0 0 0)
(0 0 0)
(0 0 0)
(0 0 0)
(0 0 0)
(0 0 0)
(0 0 0)
(0 0 0)
(0 0 0)
(0 0 0)
(0 0 0)
(0 0 0)
(0 0 0)
(0 0 0)
(0 0 0)
(0 0 0)
(0 0 0)
(0 0 0)
(0 0 0)
(0 0 0)
(0 0 0)
(0 0 0)
(0 0 0)
(0 0 0)
(0 0 0)
(0 0 0)
(0 0 0)
(0 0 0)
(0 0 0)
(0 0 0)
(0 0 0)
(0 0 0)
(0 0 0)
(0 0 0)
(0 0 0)
(0 0 0)
(0 0 0)
(0.0129179 -0.00322203 -0.00170507)
(-0.00491407 0.00875605 -0.0140537)
(0.00921368 0.0107694 -0.00326718)
(0.00126632 0.0168526 -0.00715077)
(-0.00708164 0.00947533 -0.0186202)
(-0.0150122 0.011967 -0.0202069)
(-0.0171676 0.00274447 -0.00565673)
(-0.0133349 -0.00971951 -0.00265796)
(0.0106158 0.0154517 -0.0127021)
(0.0295064 -0.00114279 -0.0130392)
(0.051248 0.00381596 -0.00580333)
(0.0409352 0.017337 -0.0137765)
(0.0802313 0.0165016 0.000564466)
(0.032136 0.0141613 0.00414223)
(0.00727117 -0.00531394 0.00320323)
(0.0153987 -0.0164809 0.00842101)
(-0.0185448 -0.0460558 0.0102406)
(-0.0273541 -0.0352272 -0.0100351)
(-0.0514314 -0.0492283 0.00833256)
(-0.036428 -0.0928664 0.012866)
(-0.057002 -0.0882371 0.0114232)
(-0.0155256 -0.0386659 0.0209773)
(-0.0112412 -0.0190143 0.00713627)
(-0.0296895 -0.0531539 0.0451578)
(-0.00948298 -0.0293805 0.0223283)
(-0.00589814 -0.00858921 0.00991094)
(0.0141466 0.0344525 -0.00956969)
(-0.0080093 0.0309955 0.00576392)
(-0.0158948 0.0503253 0.00692501)
(0.0293267 0.0508129 0.0119537)
(0.0207336 0.0112925 0.0111939)
(-0.0279945 0.0462758 0.0439567)
(-0.0485554 -0.00647973 0.0394291)
(-0.0238909 -0.0348542 0.0110951)
(-0.0541211 -0.12005 0.00273999)
(-0.0911351 -0.0978054 0.0190864)
(-0.0940884 -0.160765 -0.0188937)
(-0.0602162 -0.154378 -0.0128675)
(-0.024499 -0.0804431 0.00338298)
(-0.031814 -0.140621 -0.0190235)
(0.0433444 -0.0756007 -0.0133553)
(-0.00904589 -0.0148902 0.0183146)
(-0.0027034 0.0140614 0.0196122)
(0.0778296 0.010799 0.00958356)
(0.0565676 0.0679697 0.022212)
(-0.00474854 0.00632264 0.01077)
(0.0194377 0.0466551 0.00993296)
(0.0029977 0.0283332 0.00244662)
(-0.00584096 0.0228601 0.0139526)
(-0.0283196 0.0278793 0.0295194)
(-0.0234974 -0.00925665 0.026086)
(-0.0637824 0.00375913 0.0571137)
(-0.0874173 -0.0276191 0.0577762)
(-0.0803526 -0.0182646 0.0505143)
(-0.112309 -0.0392431 0.0565998)
(-0.115673 -0.0886332 0.0258148)
(-0.0911045 -0.114935 -0.0179124)
(-0.119524 -0.0611295 0.0244621)
(-0.0752263 -0.0674762 -0.0122803)
(-0.00344843 -0.086838 -0.0295704)
(0.100813 -0.054316 -0.0307943)
(0.0155479 -0.0296037 -0.0285563)
(0.125788 -0.00898082 -0.0305336)
(0.17165 0.00483497 0.00639302)
(0.128178 0.0723038 0.0418591)
(0.210897 0.0163672 0.00539743)
(0.153272 0.0354688 0.0437539)
(0.033012 0.047056 0.0300339)
(-0.00186625 0.0308304 0.0101199)
(0.0397595 0.0237635 0.0283982)
(-0.0292294 -0.0207051 0.0102653)
(-0.0677865 -0.0281684 0.0166019)
(-0.110037 -0.0264511 0.0281913)
(-0.0289392 -0.0195084 0.00357372)
(-0.0434244 0.00484385 0.00156305)
(-0.0973178 -0.0168389 0.00415673)
(-0.0366143 -0.00120284 -0.0149464)
(-0.0405476 0.041388 0.00154707)
(0.00312059 0.0640155 -0.0034239)
(0.0470719 0.0383885 -0.022766)
(0.134504 0.0566568 -0.0145688)
(0.0582956 0.0824779 -0.0044771)
(0.0987544 0.079821 0.0117625)
(0.175048 0.056754 0.0229704)
(0.0924478 0.0191102 0.0357113)
(0.0744911 0.0492049 0.0263494)
(0.0307218 0.0066562 0.0180485)
(0.0245958 0.006499 0.0232732)
(-0.00563119 0.012904 0.00686435)
(-0.00528547 0.0297878 0.0126227)
(0.0161024 0.0431894 0.0111496)
(0.0124552 0.011385 0.0112076)
(0.0410609 0.0498912 0.0175961)
(0.041264 0.0241251 0.0206914)
(0.0133625 0.0107265 0.0205593)
(0.0268332 0.0190951 0.0169614)
(0.0517258 -0.0142433 0.0151265)
(0.0149038 -0.00329209 -0.00616579)
(0.0446569 0.0150485 0.0531053)
(0.0655433 -0.00826509 0.0638069)
(0.0574827 0.00342952 0.0823451)
(0.038188 0.00267932 0.069533)
(0.027604 -0.00487159 0.0638542)
(0.0515607 -0.00143268 0.11262)
(0.0383555 0.0110184 0.0866128)
(0.0190037 0.0101604 0.08582)
(0.0422639 0.00981202 0.0777944)
(0.0640119 0.011912 0.12438)
(0.039422 0.0172635 0.1102)
(0.00603437 0.00583272 0.0671562)
(0.0225845 0.0171733 0.0751241)
(0.0104917 0.0223747 -0.0567552)
(0.0157599 0.0168586 -0.111445)
(0.065807 0.015424 -0.00725385)
(0.0523636 0.0427688 -0.0533524)
(0.100895 0.0659899 0.0362479)
(0.0165642 0.012427 -0.105563)
(0.0361381 0.0254664 -0.0402771)
(0.054947 0.0366878 -0.101361)
(0.0731529 0.0420929 0.0360368)
(-0.00646335 -0.00248036 0.0403645)
(-0.0200456 -0.0465957 0.100658)
(-0.0123966 -0.00872306 0.0433265)
(0.0194068 0.0164195 0.111572)
(0.00623218 0.0132962 0.0384904)
(0.00116352 -0.0179292 0.135443)
(-0.00612709 0.0113662 0.0420052)
(-0.0040581 -0.00244814 0.0107657)
(-0.00103289 0.00691348 -0.00142028)
(0.0147119 0.0469819 -0.0538138)
(-0.0270506 0.0474003 0.0328243)
(-0.0199816 0.0565007 -0.00299067)
(0.0272965 0.0287868 -0.108841)
(-0.065146 0.0503929 -0.0143279)
(0.0122977 0.0291153 -0.0457597)
(0.0267748 0.0505469 0.0114263)
(0.00721639 0.0383048 0.0150677)
(-0.00477224 0.0133815 -0.0246765)
(0.0162243 0.0402986 0.00375348)
(0.00917375 0.0374667 0.0101584)
(-0.0333742 0.0209955 0.0607279)
(-0.0287128 -0.0264333 0.0629143)
(-0.0412005 0.0472411 0.0686412)
(-0.00969068 0.0226368 0.0541298)
(-0.0318889 -0.0122296 0.085607)
(0.010107 0.0324504 0.0643544)
(0.0503665 -0.0100045 0.106681)
(0.0595292 0.0324258 0.202022)
(0.0106277 0.042762 0.123097)
(0.0475804 -0.0206085 0.206083)
(-0.0317297 -0.0468555 0.0266164)
(-0.0390345 -0.0310804 0.0181906)
(-0.0782606 -0.0818268 0.0357728)
(-0.030955 -0.0348592 -0.00617523)
(-0.0328388 -0.0222537 -0.0172324)
(-0.0171428 -0.0572319 0.0142221)
(-0.0209303 -0.0971294 0.0254483)
(-0.0170347 -0.0223278 -0.0453657)
(-0.00401449 -0.0383943 -0.0635706)
(0.107755 -0.0262454 0.102968)
(0.0986095 0.0499288 0.0743111)
(0.0541454 -0.0245801 0.0594683)
(0.141756 -0.0414818 0.0560689)
(0.0952657 -0.0563383 0.147936)
(0.123841 -0.0388939 0.0721674)
(0.0739542 -0.0618565 0.0830181)
(0.031726 -0.0425417 0.14544)
(0.00408744 0.0144199 0.0117839)
(0.00627101 0.0208972 -0.0596906)
(0.0288974 0.0772071 0.017908)
(0.0402041 0.0239623 0.0648879)
(-0.00355205 0.0347041 -0.0681114)
(0.00985016 0.0545509 -0.0599309)
(0.0342166 0.0214991 0.0153045)
(0.0817679 0.0732557 0.0964883)
(0.0604476 0.0210259 0.0931817)
(0.0702032 0.067018 -0.0471469)
(0.121724 0.0722506 0.100827)
(0.0870421 0.0388603 0.124815)
(0.0973956 -0.00701961 0.128991)
(-0.0125589 0.00808605 -0.0210306)
(-0.043662 0.0227791 -0.0880306)
(0.0191205 0.000760206 0.0554896)
(-0.00346527 -0.00270914 0.0571269)
(0.0317576 0.000314732 0.113508)
(-0.000495979 0.00566927 0.0200832)
(-0.0397927 -0.0114823 0.0331884)
(0.0154957 -0.00666302 0.100263)
(0.0595875 0.0180949 0.13943)
(0.0474732 0.0203488 0.115734)
(0.0328741 0.00235801 0.0344426)
(0.0550284 -0.0041752 0.135803)
(0.0632561 0.00584619 0.120555)
(0.0389241 0.0288007 0.0667664)
(0.054057 0.0366534 0.037061)
(0.00878533 0.0128573 -0.165651)
(0.00778029 0.0232864 -0.218506)
(0.0113221 0.0202434 -0.061576)
(0.0533522 0.0329104 -0.141822)
(0.0644637 0.0145934 0.049015)
(0.00236743 0.0298084 -0.177703)
(-0.00746782 -0.0130239 -0.0931446)
(0.0559556 0.0346813 -0.206491)
(0.0526203 -0.0229707 -0.0395049)
(0.0257328 0.0272517 0.0326348)
(0.0421265 0.0253598 0.174536)
(-0.0126529 0.0467759 0.0441127)
(0.114091 0.0532387 0.109101)
(0.0327793 0.0707379 -0.0779601)
(0.0958646 0.0615522 0.184064)
(-0.0439293 0.0872419 -0.0726202)
(-0.00229039 0.0268383 -0.0201219)
(-0.017448 0.0438321 -0.0992312)
(0.0246678 0.0258016 -0.157077)
(-0.0353487 0.0367208 -0.175777)
(0.0400814 0.024453 -0.1224)
(0.023209 0.0367345 -0.210086)
(-0.0237874 0.0358298 -0.241822)
(0.0271552 0.0385325 -0.21361)
(-0.00890554 0.0628439 -0.0472481)
(0.0232977 0.0672258 -0.0163503)
(-0.0378315 0.048439 -0.0998653)
(-0.0252955 0.0796702 -0.131377)
(-0.0021726 0.0998169 -0.114432)
(0.0457334 0.0251204 -0.107291)
(0.0269155 0.00233875 -0.156288)
(-0.00135143 0.016895 -0.257936)
(0.0171083 0.0116524 -0.229044)
(-0.00362743 0.0154727 -0.238742)
(0.0354688 0.0814611 0.196941)
(0.0797955 -0.0134676 0.293857)
(0.0633972 0.110995 0.130506)
(-0.0102962 0.143477 -0.147477)
(0.0278047 0.0391384 -0.0381092)
(-0.0116331 -0.00499423 -0.133856)
(-0.000346181 0.0264703 -0.213965)
(0.0308561 -0.0738064 -0.0261511)
(0.0108283 0.00709957 -0.0990066)
(0.0229503 -0.00646882 -0.109586)
(0.00402964 0.0224158 -0.176888)
(0.0319294 0.0243646 -0.166131)
(0.0130279 0.026803 -0.129363)
(0.0258192 0.0452959 -0.140382)
(0.086638 -0.050791 0.174611)
(0.0972268 -0.140087 -0.039252)
(0.0936654 -0.0939586 0.0853293)
(0 0 0)
(-0.0192417 0.0223779 -0.193514)
(-0.0719772 0.0218209 -0.202444)
(0 0 0)
(-0.00897092 0.0177533 -0.208768)
(0.0111845 0.0143295 -0.110241)
(0.0167304 0.0183086 -0.113111)
(-0.0146915 0.0147858 -0.124524)
(-0.0226228 0.00624637 -0.128821)
(0.00650347 0.00735539 -0.109993)
(-0.0245 0.0200867 -0.130421)
(-0.0330562 0.00717846 -0.116501)
(0.026629 -0.0132931 -0.163728)
(-0.0137214 0.0106856 -0.112197)
(-0.0376399 0.0498709 -0.150733)
(-0.0585946 0.0382487 -0.177557)
(-0.0287207 0.0107421 -0.107854)
(-0.0419695 0.0191962 -0.226828)
(-0.054357 0.0368979 -0.384951)
(-0.0595412 0.0339504 -0.399258)
(-0.0375351 0.0330681 -0.157017)
(-0.074296 -0.039732 -0.153924)
(-0.014866 -0.0238211 0.0471754)
(-0.0203261 0.000669276 -0.435486)
(-0.059797 -0.0195544 -0.303438)
(-0.0242122 0.00774685 -0.337019)
(0.0339629 -0.0403983 0.0604094)
(0.076606 -0.0228131 -0.0419965)
(-0.0069046 0.000526363 -0.437487)
(-0.00243812 0.013162 -0.367112)
(0.02526 0.0150925 -0.403362)
(0.0492593 0.0241617 -0.344302)
(0.0332835 0.02041 -0.42372)
(-0.00671988 0.0300617 -0.272987)
(-0.0241435 0.0420322 -0.307909)
(-0.0235093 -0.0735209 -0.244959)
(0.0234142 0.0252674 -0.275071)
(0.0349677 -0.22671 -0.166463)
(-0.0361649 0.0289951 -0.327465)
(-0.051206 -0.0201243 -0.287358)
(-0.0179431 0.00490169 -0.303907)
(0.0123331 -0.245275 -0.139072)
(0.0598018 0.0609541 -0.371326)
(0.102145 0.0808936 0.00791454)
(0.0377691 0.0879969 -0.345937)
(0.0630642 0.0346747 -0.35998)
(0.0578278 0.0600787 -0.383051)
(0.0299478 0.00593394 -0.154822)
(0.061136 0.0897362 -0.387989)
(0.00643034 0.068307 -0.274113)
(0.0488819 0.0934332 -0.379871)
(0.00959457 0.0346643 -0.270232)
(-0.0105887 0.0405135 -0.263777)
(-0.0172526 0.0342211 -0.272219)
(-0.0304373 0.0402026 -0.305627)
(-0.0226749 0.074284 -0.233825)
(-0.0610077 0.0477634 -0.279018)
(-0.0320628 0.0519998 -0.213856)
(-0.00439662 0.0686777 -0.201639)
(0.00732154 0.101034 -0.329275)
(0.025554 0.0609109 -0.264163)
(0.0181537 0.0887408 -0.234487)
(-0.0402291 0.0350058 -0.243402)
(-0.0459522 0.0440859 -0.228142)
(-0.00250626 0.104467 -0.189181)
(-0.103875 0.0685659 -0.220946)
(-0.0911965 0.110994 -0.238461)
(-0.0184722 0.047634 -0.229507)
(-0.0371164 0.00726943 -0.138765)
(-0.0070152 -0.0203053 -0.171302)
(-0.00399384 0.0512933 -0.195971)
(-0.0218815 -0.0231322 -0.0596344)
(-0.0242788 0.0481439 -0.216172)
(0 0 0)
(0.000579497 0.128634 -0.244809)
(-0.0100277 0.0825714 -0.261722)
(0.00838906 0.13194 -0.231052)
(-0.0699384 0.1417 -0.291658)
(-0.0146825 0.140999 -0.236909)
(0 0 0)
(-0.0729537 0.222867 -0.431892)
(-0.0616948 -0.00471835 -0.16131)
(-0.116419 0.0551447 -0.205516)
(0 0 0)
(-0.081168 -0.0151471 -0.145146)
(-0.0527018 -0.0163386 -0.150681)
(-0.0944121 0.0407562 -0.158757)
(-0.0568117 0.0296153 -0.138861)
(-0.0204846 0.0112936 -0.0751582)
(1.28093e-14 -6.75526e-15 -4.9056e-14)
(0 0 0)
(0.0266609 0.0717487 -0.275665)
(-0.0343527 0.162178 -0.164173)
(-3.68289e-14 1.78813e-13 -2.46987e-13)
(-0.0578028 0.30789 -0.458634)
(0 0 0)
(-0.087866 0.0582016 -0.196926)
(-0.0386206 0.0823169 -0.206534)
(-0.0626631 0.233861 -0.311526)
(-0.00968162 0.309961 -0.267858)
(-0.0759263 -0.234415 -0.100002)
(-0.0878521 0.0710832 -0.181374)
(-0.0578033 0.0327271 -0.378937)
(-0.0554497 0.0312861 -0.360107)
(-0.0156799 0.00215063 -0.407927)
(-0.0571471 -0.00758838 -0.297536)
(-0.0332053 0.0071381 -0.312049)
(-0.0132254 0.000684289 -0.379035)