/*--------------------------------*- C++ -*----------------------------------*\
| =========                 |                                                 |
| \\      /  F ield         | OpenFOAM: The Open Source CFD Toolbox           |
|  \\    /   O peration     | Version:  5.x                                   |
|   \\  /    A nd           | Web:      www.OpenFOAM.org                      |
|    \\/     M anipulation  |                                                 |
\*---------------------------------------------------------------------------*/
FoamFile
{
    version     2.0;
    format      ascii;
    class       surfaceScalarField;
    location    "0.4";
    object      phi;
}
// * * * * * * * * * * * * * * * * * * * * * * * * * * * * * * * * * * * * * //

dimensions      [0 3 -1 0 0 0 0];

internalField   nonuniform List<scalar> 
29271
(
-1.39888e-05
-6.44371e-07
6.49326e-06
8.12628e-06
-2.12369e-05
2.42234e-06
5.13544e-06
1.36786e-05
-4.34503e-05
-4.88236e-06
-2.47034e-06
-2.34147e-06
1.2334e-06
5.1911e-05
-4.35198e-05
2.21727e-06
3.83034e-06
-7.00291e-07
-1.39369e-06
3.95662e-05
-4.46672e-05
-7.89489e-07
-1.71769e-06
-2.86493e-06
4.85317e-05
1.50767e-06
-4.35852e-05
-3.54168e-06
-4.77093e-06
-7.48364e-07
-4.75314e-07
5.31215e-05
-4.45883e-05
3.01488e-06
2.78238e-06
-3.45084e-06
-3.04117e-06
4.5283e-05
-4.42964e-05
-2.14986e-06
5.08501e-07
-2.04735e-07
3.18573e-06
4.29567e-05
-4.04187e-05
1.30805e-06
5.30756e-06
-8.04784e-07
2.27719e-06
3.23306e-05
-4.01233e-05
-1.96111e-06
-1.34692e-06
3.83403e-05
5.11524e-06
-1.33797e-05
8.07159e-07
1.19867e-05
5.97912e-07
-4.46676e-05
1.02017e-06
3.00152e-06
-4.78495e-06
-8.48425e-07
4.62793e-05
-4.42281e-05
5.28011e-08
8.6796e-08
2.70487e-06
2.69327e-06
3.86904e-05
-4.37746e-05
-3.38143e-06
-3.94733e-06
2.94384e-06
-4.65491e-06
5.28144e-05
-4.87345e-05
-4.69013e-06
1.30398e-06
-5.61696e-06
-4.12938e-06
6.1867e-05
-4.78913e-05
1.90339e-06
-9.39577e-06
-4.56647e-06
5.32902e-05
6.65999e-06
-4.46505e-05
-3.75116e-06
1.3134e-06
-3.2729e-06
4.91604e-05
1.20072e-06
-4.57108e-05
2.87272e-06
-2.21829e-06
-4.83532e-06
-1.70883e-07
5.00626e-05
-4.47589e-05
6.05589e-06
2.53322e-06
-2.88426e-06
-1.81176e-06
4.08658e-05
-4.09482e-05
-2.00072e-06
-8.14735e-07
2.99496e-05
8.25256e-06
5.56155e-06
-1.64069e-05
1.44389e-06
3.23235e-06
1.18007e-05
-4.07747e-05
-1.54058e-06
-3.10034e-06
4.15588e-05
3.89206e-06
-4.51182e-05
4.26048e-06
-4.15287e-06
-3.9803e-06
4.90992e-05
-1.08337e-07
-1.64233e-05
2.7471e-06
8.43162e-07
1.28506e-05
-4.99217e-06
1.38329e-06
-4.83643e-06
8.44587e-06
-9.04035e-06
-7.31734e-07
1.31553e-06
8.46107e-06
-8.6936e-08
-3.81011e-07
-5.43276e-05
5.70883e-07
6.52838e-08
5.41594e-05
1.04723e-06
-3.63854e-05
3.0512e-07
-1.94663e-06
1.90087e-06
3.50788e-05
-5.02833e-05
1.45306e-06
-2.38214e-07
-1.68106e-06
4.94993e-05
1.2502e-06
-1.35662e-06
4.61057e-07
-5.62152e-05
3.47849e-07
1.61846e-06
5.51445e-05
-8.10359e-06
-2.72158e-07
0.000199201
-4.64892e-05
-3.52517e-05
-3.69438e-05
-4.52777e-05
-2.10871e-06
-3.26514e-06
-4.52473e-06
-4.53107e-06
-1.09073e-06
-3.12363e-06
-3.75837e-06
-4.46005e-06
-2.66527e-05
-3.81077e-06
0.000208775
-3.97587e-05
-5.15341e-05
-4.11887e-05
-4.17416e-05
-2.34048e-06
-2.91635e-06
-3.55753e-06
-3.37784e-06
-5.62272e-06
-1.83117e-05
0.000189646
2.26593e-06
2.05769e-07
3.86066e-06
1.90105e-06
-4.51424e-06
-4.91946e-06
-4.66798e-06
-3.00796e-05
-5.20238e-05
-3.86266e-05
-6.57658e-05
-4.17395e-05
1.93856e-06
-4.87822e-06
3.90571e-05
1.7554e-06
-6.06206e-08
-1.3086e-05
1.13904e-05
2.39667e-06
-4.57741e-05
2.42267e-07
1.68329e-06
-1.93776e-06
4.33896e-05
-1.69094e-05
-2.05605e-05
0.000207314
-3.59163e-05
-4.28525e-05
-4.14198e-05
-3.83941e-05
-3.13531e-06
-1.5134e-06
-4.80919e-06
-2.07589e-06
-3.60842e-05
-8.77517e-06
0.000240233
-5.43945e-05
-6.79141e-05
-4.10611e-05
-5.27244e-05
7.10157e-07
9.33163e-07
0.000138288
-2.53106e-06
3.37429e-06
2.87361e-06
2.29035e-06
7.59743e-06
5.83049e-06
-6.69479e-05
-4.72028e-05
-5.61304e-05
-4.3481e-05
-5.02558e-05
7.36477e-06
1.32597e-05
-2.70079e-06
3.30423e-05
-5.35e-05
2.90523e-06
-2.68116e-06
-9.75592e-07
5.28568e-05
1.39474e-06
-5.70807e-06
-4.99095e-06
0.000184345
3.26599e-07
-2.49544e-06
6.21536e-07
-2.51701e-06
5.452e-07
-6.51808e-06
-5.41837e-07
-4.6785e-05
-3.49593e-05
-5.35948e-05
-4.82889e-05
-8.61879e-06
6.03416e-07
0.000181007
-3.58739e-06
-1.24351e-05
-8.24228e-06
-3.26476e-06
-2.5172e-06
-6.23946e-06
-3.55444e-05
-3.94495e-05
-3.88814e-05
-3.73137e-05
-2.59449e-05
-1.00288e-05
6.32361e-07
2.76556e-05
-9.12861e-06
-4.26288e-06
7.79513e-06
5.59867e-06
-4.38516e-05
1.67661e-06
8.96906e-09
3.71773e-05
-5.26909e-05
8.34167e-07
-6.05504e-08
-3.93242e-07
5.29139e-05
-1.44867e-05
-1.84394e-06
1.47381e-06
1.48563e-05
-1.07749e-05
-1.14426e-06
2.65656e-07
1.1652e-05
-6.94839e-06
-2.51305e-07
2.26931e-06
4.93213e-06
-6.10597e-07
-1.25617e-06
-5.28087e-05
8.65884e-07
1.14951e-06
5.26601e-05
2.97389e-07
-3.45675e-05
-1.33209e-07
-1.77037e-06
1.33333e-06
3.48404e-05
-4.90915e-05
2.07083e-06
-1.47837e-06
-2.88128e-06
4.93101e-05
2.07016e-06
-1.882e-06
-5.3354e-07
-5.28171e-05
1.72899e-06
1.45124e-06
5.20524e-05
-8.36919e-06
-4.21592e-06
0.000220841
-1.94556e-06
-2.22849e-06
-4.89463e-07
-1.4058e-07
-1.6056e-06
-2.23113e-06
-1.89381e-07
-2.24649e-07
-1.8441e-05
-4.61695e-06
0.000227867
-2.59132e-06
-2.08711e-06
-1.68305e-07
4.4378e-07
-4.88316e-06
-1.72132e-05
0.00018872
4.08939e-06
3.03076e-06
6.1057e-06
4.54882e-06
-4.98118e-06
-4.32527e-06
-3.88716e-06
-3.77619e-05
5.54706e-06
-1.00668e-05
3.74007e-05
-1.42135e-05
-1.368e-07
-3.19912e-07
1.46701e-05
-2.15783e-07
-4.26247e-05
-1.45664e-07
1.68979e-06
-1.97263e-06
4.3269e-05
-1.72227e-05
-1.09756e-05
0.000231188
-2.51884e-06
-6.90983e-07
7.76451e-07
2.54228e-06
-2.79083e-05
-6.94458e-06
0.000253247
-1.89546e-07
5.61272e-06
7.0368e-05
-2.87646e-07
2.88025e-07
1.75577e-07
4.97361e-06
6.98919e-06
5.23645e-06
-2.16016e-05
6.58584e-06
5.74763e-06
8.43153e-09
9.07019e-06
-5.11216e-05
2.75711e-06
-2.28413e-06
-1.74729e-06
5.03148e-05
2.08111e-06
-9.58569e-06
-5.14865e-06
0.00019092
1.0037e-06
-1.30408e-06
2.94541e-06
1.11655e-07
-1.45155e-06
-3.43172e-06
-6.88957e-07
-1.01479e-05
-9.72316e-07
0.000197735
-6.20323e-06
-6.33589e-06
-4.82533e-06
-3.41777e-06
1.57836e-07
-1.51317e-06
-2.89701e-05
-9.57051e-06
4.59096e-06
2.94145e-05
-4.89598e-06
-4.88737e-06
6.21661e-06
3.57122e-06
-2.95893e-05
1.82119e-06
-1.25307e-06
2.38753e-05
-5.03643e-05
7.96691e-08
5.71862e-07
-8.9103e-07
4.96315e-05
-1.6156e-05
-5.49829e-06
3.78122e-06
1.78731e-05
-1.24758e-05
-5.48838e-07
-3.03566e-07
1.33292e-05
-3.91901e-06
-4.18976e-07
8.65629e-07
3.4733e-06
-3.93553e-07
-4.1942e-07
-5.30404e-05
7.33921e-07
-3.08858e-08
5.31503e-05
-1.3647e-08
-3.59062e-05
-2.5611e-07
-1.75232e-06
9.89767e-07
3.69385e-05
-4.99038e-05
2.3568e-06
-1.92605e-06
-3.31477e-06
5.03325e-05
2.45533e-06
-1.24087e-06
-5.0071e-08
-5.23304e-05
4.1952e-07
7.11004e-07
5.24908e-05
-8.65636e-06
-6.35599e-06
0.000232124
2.81439e-07
-5.65269e-07
1.1002e-06
1.59152e-06
-2.39638e-08
-1.16909e-06
1.27633e-06
1.23747e-06
-1.2425e-05
-6.24867e-06
0.000236309
-1.11479e-06
-6.39172e-07
1.32159e-06
2.00724e-06
-4.24569e-06
-1.52719e-05
0.000185183
4.72992e-06
4.33226e-06
6.40803e-06
5.35779e-06
-4.24652e-06
-3.74632e-06
-2.20547e-06
-3.76519e-05
6.04418e-06
-1.03769e-05
3.77405e-05
-1.51537e-05
-2.60513e-07
-4.72697e-07
1.5887e-05
-1.9788e-07
-4.523e-05
3.14928e-08
6.73005e-07
-1.56603e-06
4.62894e-05
-1.78792e-05
-6.91528e-06
0.000242137
-5.02851e-07
1.17635e-06
2.74366e-06
4.07185e-06
-1.74982e-05
-4.59247e-06
0.000251209
6.00586e-09
4.74212e-06
1.87046e-05
-1.03308e-07
1.47282e-06
8.50454e-07
3.31154e-06
5.29078e-06
3.3229e-06
2.93876e-07
5.27681e-06
2.12221e-06
-1.262e-06
-6.4249e-06
-5.03876e-05
2.6577e-06
-2.51617e-06
-2.381e-06
5.06968e-05
1.9303e-06
-9.77894e-06
-3.16876e-06
0.000191101
2.20815e-06
5.47283e-07
3.74894e-06
1.65182e-06
-8.78332e-07
-1.45275e-06
2.60873e-08
-6.86928e-06
-1.67717e-07
0.000204553
-4.55005e-06
-3.83331e-06
-3.74921e-06
-1.76009e-06
2.48943e-07
-5.08542e-07
-3.13241e-05
-5.47273e-06
5.03607e-06
2.96336e-05
-2.3461e-06
-1.94143e-06
3.08785e-06
1.19952e-06
-1.92756e-05
2.45037e-06
-1.40462e-06
1.50614e-05
-5.03564e-05
-3.04268e-07
1.48516e-07
-4.03118e-07
5.07476e-05
-1.95936e-05
-5.20769e-06
3.67209e-06
2.11292e-05
-1.37267e-05
-3.21533e-07
2.86604e-07
1.37617e-05
-3.39e-06
-5.08878e-07
1.21216e-07
3.77734e-06
-1.79228e-07
4.96763e-07
-5.30646e-05
5.71298e-07
-2.72697e-07
5.24485e-05
-6.90985e-07
-3.93385e-05
-2.45596e-07
-1.59855e-06
3.24737e-07
4.15489e-05
-5.13241e-05
2.33627e-06
-2.04531e-06
-3.50596e-06
5.18359e-05
2.70319e-06
-6.44361e-07
-5.69458e-08
-5.32904e-05
-3.22008e-07
2.94547e-07
5.40192e-05
-8.2685e-06
-7.92693e-06
0.00024207
8.83617e-07
-8.40584e-08
9.36723e-07
1.64134e-06
8.68767e-07
-5.49332e-07
1.30128e-06
1.25103e-06
-9.496e-06
-5.96074e-06
0.000240644
-5.4836e-07
1.69485e-07
1.18535e-06
2.04736e-06
-2.37198e-06
-1.37875e-05
0.000172772
4.45028e-06
4.76776e-06
5.76239e-06
5.48577e-06
-1.68372e-06
-9.45296e-07
1.23695e-06
-3.76471e-05
5.68169e-06
-8.09318e-06
3.76868e-05
-1.65137e-05
-2.03342e-07
-6.00723e-08
1.67787e-05
-2.74157e-07
-4.8523e-05
2.85974e-07
-9.9758e-08
-1.24519e-06
4.98561e-05
-1.59218e-05
-6.00109e-06
0.00024747
3.83958e-07
1.8377e-06
2.74341e-06
3.69793e-06
-1.03778e-05
-3.72736e-06
0.000243432
1.51645e-06
3.28428e-06
-2.10803e-05
7.79576e-07
1.92769e-06
8.54987e-07
1.66787e-06
3.70686e-06
1.88194e-06
8.84995e-06
3.80006e-06
-1.30092e-07
-8.53833e-07
-1.01496e-05
-5.1085e-05
2.59486e-06
-2.52252e-06
-2.05971e-06
5.12249e-05
1.84746e-06
-7.70332e-06
-1.71411e-06
0.000188429
2.08967e-06
1.24947e-06
3.28105e-06
1.47221e-06
-9.32996e-07
-7.28951e-07
-3.42474e-07
-4.45483e-06
-5.2618e-07
0.000209332
-3.56374e-06
-2.20069e-06
-3.08549e-06
-1.29093e-06
-4.94686e-07
-5.93732e-07
-2.98064e-05
-2.49184e-06
3.57317e-06
2.75545e-05
-1.253e-06
-1.28157e-06
4.98231e-07
2.03608e-06
-1.21563e-05
2.19818e-06
-1.67627e-06
9.92107e-06
-5.1966e-05
-5.64262e-07
6.53983e-08
-6.55003e-07
5.25937e-05
-2.24692e-05
-4.20081e-06
3.41222e-06
2.32578e-05
-1.37002e-05
-9.99421e-08
9.26363e-08
1.37113e-05
-4.44931e-06
-8.40873e-07
-1.12167e-07
5.40362e-06
6.70241e-08
1.04984e-06
-5.14695e-05
4.13359e-07
-2.74319e-07
5.02136e-05
-1.03462e-06
-4.4164e-05
-2.28848e-07
-1.45859e-06
5.85612e-07
4.63005e-05
-5.20867e-05
2.33433e-06
-1.92211e-06
-2.67153e-06
5.17251e-05
2.62091e-06
6.57099e-08
-2.08245e-07
-5.49138e-05
-5.14825e-07
-1.20825e-07
5.5692e-05
-7.66712e-06
-7.59123e-06
0.000253109
4.47221e-07
-3.33114e-07
5.92638e-07
1.19653e-06
9.8865e-07
-7.57619e-07
1.13921e-06
9.46086e-07
-7.31749e-06
-4.40442e-06
0.000243256
-1.04934e-06
9.04957e-08
6.78557e-07
1.72313e-06
-5.00774e-07
-1.14976e-05
0.000158637
3.63582e-06
4.54256e-06
4.10999e-06
2.67299e-06
1.68833e-06
-6.62754e-07
2.82959e-06
-3.57511e-05
3.94821e-06
7.30479e-06
-1.28388e-05
3.68362e-05
-3.10578e-07
-1.84659e-08
2.88152e-09
3.2663e-07
-1.71034e-05
-2.27786e-07
-4.10555e-08
1.73723e-05
-2.21915e-07
-5.16308e-05
3.88754e-07
-2.65704e-07
-1.21048e-06
5.29401e-05
-1.36082e-05
-6.16037e-06
0.000252848
1.56417e-07
1.41528e-06
2.09265e-06
3.13481e-06
-3.92896e-06
-4.58718e-06
0.000233935
2.22217e-06
2.10389e-06
-5.01123e-05
1.46524e-06
1.96798e-06
2.20744e-06
6.90439e-07
2.44936e-06
4.9888e-07
1.27293e-05
2.59983e-06
1.36367e-06
-2.84328e-06
-1.16274e-05
-7.1538e-09
-6.78305e-07
-1.27697e-09
-1.35317e-07
8.20964e-07
-5.13936e-05
2.30112e-06
-2.15801e-06
-1.63401e-06
5.13684e-05
1.51614e-06
-6.02157e-06
-1.10411e-06
0.000185181
1.71924e-06
7.85433e-07
2.82113e-06
1.01781e-06
-1.13319e-06
-4.07416e-07
-5.89149e-07
-2.60635e-06
-1.16756e-06
0.000211753
-2.92417e-06
-9.3371e-07
-2.00462e-06
-1.4511e-06
-9.77313e-07
-9.64545e-07
-2.69693e-05
-7.1168e-07
2.19273e-06
2.49858e-05
-3.45704e-06
-6.43249e-07
-1.05908e-06
5.15767e-06
-8.99129e-06
1.43446e-06
-1.72937e-06
8.18226e-06
-5.35059e-05
-2.73977e-07
2.52551e-08
-9.07876e-07
5.34949e-05
-2.40594e-05
-3.00008e-06
2.94106e-06
2.41185e-05
-1.36744e-05
-1.27043e-07
4.29209e-07
1.3372e-05
-6.44445e-06
-6.43911e-07
-1.85297e-07
7.27372e-06
2.29909e-07
1.23845e-06
-4.89628e-05
8.83148e-08
-2.42493e-07
4.76486e-05
-1.19946e-06
-4.85605e-05
-1.4374e-07
-1.1633e-06
1.19089e-06
4.98761e-05
-5.14087e-05
1.73966e-06
-1.81276e-06
-1.92637e-06
5.122e-05
2.1882e-06
3.91474e-07
-1.92853e-07
-5.62499e-05
-3.81251e-07
-2.32393e-07
5.66649e-05
-5.96868e-06
-6.42314e-06
0.000263085
1.8427e-07
-8.02737e-07
5.10613e-07
8.95719e-07
7.80039e-07
-9.10478e-07
9.92111e-07
7.66634e-07
-5.7273e-06
-4.39164e-06
0.00024752
-1.49586e-06
-2.7398e-07
3.14866e-07
1.34065e-06
3.39387e-07
-8.29278e-06
0.000141854
2.68797e-06
2.91632e-06
3.43954e-06
2.7522e-06
2.93894e-06
1.2476e-06
3.02645e-06
-4.09725e-05
1.03629e-05
7.5862e-06
-3.21651e-06
2.65793e-05
-3.3855e-06
2.85458e-06
-3.19691e-06
-5.61409e-07
-1.17334e-06
5.46258e-06
-1.76454e-05
-1.00805e-07
-9.83346e-08
1.78445e-05
-2.2174e-07
-5.5016e-05
5.0933e-07
-3.53002e-07
-1.26689e-06
5.63483e-05
-1.38444e-05
-5.31441e-06
0.000259068
2.32637e-07
1.0694e-06
2.18113e-06
3.03294e-06
-3.60589e-06
-4.19931e-06
0.000223505
3.03688e-07
1.58627e-06
-6.58854e-05
1.51337e-06
-1.20558e-06
-6.95734e-08
-3.24743e-08
1.55086e-06
2.27894e-07
1.50913e-05
4.71938e-07
6.08204e-08
8.85828e-08
-1.54089e-05
-2.97433e-06
-7.57196e-07
-8.39623e-07
3.85436e-07
8.7393e-07
3.31178e-06
-5.13981e-05
1.81613e-06
-1.66775e-06
-1.3808e-06
5.13496e-05
1.28096e-06
-4.1676e-06
-6.07436e-07
0.000180406
1.29313e-06
4.08457e-07
2.39682e-06
7.63662e-07
-8.53032e-07
4.29624e-07
-2.03378e-07
-1.64889e-06
-1.13259e-06
0.000212709
-1.82426e-06
-1.74994e-07
-1.51829e-06
-1.29987e-06
-8.30375e-07
-8.93579e-07
-2.42062e-05
4.99376e-07
1.6436e-06
2.20006e-05
-6.20693e-06
2.11273e-06
-3.42528e-06
3.07547e-06
4.44062e-06
-1.03797e-06
-2.14724e-06
1.17611e-06
2.0091e-06
-7.72157e-06
7.55597e-07
-8.64834e-07
7.22374e-06
-5.38207e-05
-2.94711e-07
-1.98763e-07
-6.05694e-07
5.37873e-05
-2.38307e-05
-2.04026e-06
2.52477e-06
2.33464e-05
-1.31887e-05
-1.42701e-07
5.16294e-07
1.28156e-05
-7.93669e-06
-7.29216e-08
-4.61067e-07
8.47054e-06
-2.0779e-07
6.20785e-07
-4.69253e-05
-1.57073e-08
-2.45209e-07
4.67732e-05
-1.37324e-06
-5.139e-05
-6.53644e-08
-1.14084e-06
1.28161e-06
5.26879e-05
-5.16406e-05
1.33544e-06
-1.99612e-06
-1.44312e-06
5.18812e-05
1.86318e-06
6.24639e-07
-6.00374e-07
-5.72226e-05
-2.77223e-08
-3.15066e-07
5.75411e-05
-4.84818e-06
-6.55938e-06
0.000271769
6.57422e-07
-7.66126e-07
1.02677e-06
1.02117e-06
5.6606e-07
-1.11931e-06
7.65796e-07
5.71512e-07
-3.40329e-06
-4.08628e-06
0.00025057
-1.69993e-06
-4.49068e-07
3.98919e-07
1.34157e-06
2.16133e-06
-4.99941e-06
0.000126878
2.00268e-06
2.10945e-06
3.05604e-06
2.0649e-06
1.90358e-06
1.74362e-06
1.52991e-06
-2.28408e-05
6.03252e-07
3.80122e-06
5.3731e-07
2.00604e-05
-6.90702e-06
-2.44793e-07
-2.14533e-06
-6.53466e-07
2.25455e-06
7.69606e-06
-1.78563e-05
1.23138e-08
-5.83253e-08
1.79018e-05
-2.08977e-07
-5.78325e-05
5.5027e-07
-4.0512e-07
-1.12854e-06
5.90249e-05
-1.28829e-05
-4.47942e-06
0.000263287
3.20715e-07
9.77264e-07
2.39222e-06
2.89377e-06
-7.41695e-06
-3.18813e-06
0.000217141
-3.97413e-06
9.55476e-07
-6.61451e-05
-2.27076e-06
-4.77663e-06
-3.15436e-06
-3.06947e-07
1.1038e-06
2.66871e-07
1.3584e-05
-1.55051e-06
-4.94348e-06
9.69768e-07
-1.20339e-05
-3.37461e-06
-2.87372e-06
5.1991e-06
-2.23714e-06
6.39433e-07
2.64694e-06
-5.1695e-05
1.14321e-06
-1.22219e-06
-8.21923e-07
5.16082e-05
9.87739e-07
-2.72216e-06
3.16243e-07
0.000173069
9.0729e-07
4.30143e-07
2.14094e-06
7.72697e-07
-3.16634e-07
1.12384e-06
2.05248e-07
-1.20974e-06
-1.03452e-06
0.0002147
-1.59963e-06
-4.51909e-07
-1.08776e-06
-1.08461e-06
-6.12389e-07
-8.21294e-07
-2.12852e-05
3.7159e-07
8.21478e-07
1.98379e-05
-2.65782e-06
1.36244e-06
-3.30927e-06
3.14054e-06
1.4654e-06
-3.18608e-06
1.75425e-06
-2.48511e-06
1.12258e-06
2.79656e-06
-7.2401e-06
7.04217e-07
-4.67125e-07
7.3193e-06
-5.42549e-05
-2.70338e-07
-3.12094e-07
-4.64799e-07
5.42676e-05
-2.31062e-05
-1.75154e-06
2.05569e-06
2.28023e-05
-1.25575e-05
-8.35845e-08
1.01549e-07
1.25395e-05
-8.8704e-06
4.29953e-08
-3.76765e-07
9.20409e-06
-7.04731e-09
3.97085e-07
-4.69438e-05
-1.85788e-07
-3.71792e-07
4.71114e-05
-1.06423e-06
-5.44179e-05
7.33761e-08
-1.0711e-06
9.73236e-07
5.55066e-05
-5.24912e-05
1.2675e-06
-2.1444e-06
-1.39186e-06
5.3079e-05
1.68089e-06
4.50504e-07
-5.13036e-07
-5.81425e-05
-1.54488e-07
-5.57652e-07
5.89172e-05
-5.26606e-06
-6.55574e-06
0.000279365
9.28978e-07
-5.79147e-07
1.183e-06
1.33333e-06
5.72048e-07
-1.00492e-06
9.80355e-07
8.12266e-07
-2.59058e-06
-3.85856e-06
0.000251396
-1.44312e-06
-3.63088e-07
6.26153e-07
1.53765e-06
1.23568e-06
-4.24014e-06
0.000121081
2.15209e-06
2.70242e-06
3.38936e-06
1.72909e-06
-2.31478e-07
-1.3314e-06
-2.19884e-06
-2.61947e-05
1.87092e-06
3.05245e-06
7.42628e-07
2.17644e-05
-1.10021e-05
-2.64174e-06
1.96379e-06
5.43911e-06
6.24089e-06
-1.80763e-05
2.05197e-08
-4.0609e-07
1.84619e-05
-1.60112e-07
-6.082e-05
6.97744e-07
-4.75658e-07
-1.24908e-06
6.20071e-05
-1.33839e-05
-3.53039e-06
0.000266827
5.14556e-07
9.33576e-07
2.63042e-06
2.7401e-06
-9.69905e-06
-1.38826e-06
0.000210985
-5.96032e-06
7.31043e-07
-6.13567e-05
-4.96408e-06
-5.4212e-06
-5.08823e-06
-9.15651e-08
1.24938e-06
8.17331e-07
9.57903e-06
-1.00901e-06
-7.31295e-06
9.58792e-07
-8.17618e-06
-2.60813e-06
-3.35066e-06
6.96923e-06
-3.33877e-06
-3.50167e-07
2.6785e-06
-5.15759e-05
7.40422e-07
-8.72065e-07
-4.14962e-07
5.13933e-05
7.29162e-07
-2.89838e-06
5.38738e-07
0.000167475
7.07114e-07
4.3479e-07
1.90639e-06
5.43395e-07
-1.96223e-07
9.8211e-07
4.53795e-08
-1.83519e-06
-6.68424e-07
0.000219209
-1.49934e-06
-1.63138e-06
-1.41412e-06
-8.08981e-07
-2.67663e-07
-6.6993e-07
-1.97633e-05
-1.09456e-06
5.13742e-07
1.924e-05
-7.42836e-07
6.37443e-07
2.88244e-07
-1.78665e-07
-7.85051e-06
7.91946e-07
-3.78038e-07
7.97502e-06
-5.46065e-05
-1.87026e-07
-5.77115e-07
-1.83726e-07
5.4886e-05
-2.22235e-05
-1.37235e-06
1.94007e-06
2.1656e-05
-1.25894e-05
-5.47623e-09
-3.08242e-07
1.29032e-05
-9.40409e-06
-2.13756e-07
-3.44554e-08
9.65206e-06
4.85884e-07
4.13892e-07
-4.71086e-05
1.74697e-08
-6.31149e-07
4.68225e-05
-5.56778e-07
-5.67675e-05
1.91892e-07
-1.07023e-06
7.41206e-07
5.74614e-05
-5.3932e-05
1.2044e-06
-2.05879e-06
-1.47127e-06
5.44302e-05
1.82754e-06
3.49043e-07
-3.71856e-08
-5.98485e-05
-4.11416e-07
-4.61401e-07
6.04094e-05
-5.57694e-06
-5.21329e-06
0.000283188
1.02888e-06
-3.97926e-07
1.34403e-06
1.72659e-06
9.49457e-07
-6.05502e-07
1.46284e-06
1.45868e-06
-4.28291e-06
-3.4573e-06
0.000252978
-1.30867e-06
-4.88985e-07
7.87046e-07
1.59167e-06
-2.08702e-06
-1.95088e-06
0.000119224
1.89967e-06
1.28237e-06
3.73135e-06
2.06865e-06
-4.12781e-06
-5.70627e-07
-2.67145e-06
-2.17882e-05
-3.01432e-06
9.64903e-07
2.17507e-05
-1.89223e-05
1.55413e-07
-5.01117e-07
1.9268e-05
9.61583e-08
-6.35367e-05
7.1836e-07
-7.49224e-07
-1.02761e-06
6.4499e-05
-1.36079e-05
-2.65521e-06
0.000270618
6.4835e-07
9.3314e-07
2.74598e-06
2.93141e-06
-9.50853e-06
-9.37725e-07
0.000204366
-3.50349e-06
9.57721e-07
-6.92737e-05
-2.13262e-06
-1.40342e-06
-1.36962e-06
9.99976e-07
1.45375e-06
1.45538e-06
5.49914e-06
-7.18173e-07
-6.48403e-06
3.41805e-06
-5.21847e-06
-5.15469e-05
5.67876e-07
-8.06654e-07
-3.78683e-07
5.17219e-05
4.42409e-07
-4.2279e-06
1.46841e-07
0.000167195
4.14903e-07
1.04911e-07
1.54749e-06
2.23718e-07
-6.43534e-07
3.92621e-07
-3.33465e-07
-2.99945e-06
-5.95199e-07
0.000223718
-1.65103e-06
-1.62017e-06
-1.35366e-06
-7.26873e-07
-1.8468e-07
-5.44325e-07
-2.04165e-05
-2.7521e-06
9.18502e-07
2.02084e-05
1.35949e-06
-5.01476e-06
4.69942e-06
-1.04415e-06
-8.28727e-06
5.2181e-07
-1.04237e-08
7.92296e-06
-5.55818e-05
-2.0592e-07
-5.77683e-07
-1.83742e-07
5.59539e-05
-2.12336e-05
-1.52065e-06
1.90742e-06
2.08467e-05
-1.30812e-05
3.06594e-08
-1.14004e-07
1.31644e-05
-1.0016e-05
-2.05356e-07
-9.197e-08
1.03125e-05
8.58549e-07
5.58279e-07
-4.64822e-05
2.9239e-08
-6.57074e-07
4.56933e-05
-4.25921e-07
-5.83635e-05
1.38145e-07
-8.43069e-07
7.71255e-07
5.87231e-05
-5.48599e-05
1.21726e-06
-1.29728e-06
-1.62026e-06
5.49643e-05
1.59593e-06
3.5743e-07
3.45757e-07
-6.0912e-05
-4.62962e-07
-2.54276e-07
6.09261e-05
-5.3049e-06
-3.52964e-06
0.000283851
1.03128e-06
-3.59426e-07
1.20053e-06
1.85085e-06
1.06812e-06
-2.65471e-07
1.7027e-06
1.94257e-06
-4.86206e-06
-2.73377e-06
0.000254246
-1.2371e-06
-2.5603e-07
7.68654e-07
1.74722e-06
-2.43171e-07
-4.56489e-07
0.000109283
2.04452e-06
1.61061e-06
3.47589e-06
1.97667e-06
-2.20488e-06
2.97154e-07
-1.42155e-06
-2.14137e-05
-7.61666e-07
5.78929e-07
2.13538e-05
-1.94708e-05
1.21029e-07
-3.47463e-07
1.96948e-05
9.17234e-08
-6.57152e-05
3.7442e-07
-8.23024e-07
-6.13796e-07
6.66858e-05
-1.21298e-05
-2.07351e-06
0.000273986
6.15458e-07
1.00342e-06
2.70315e-06
2.98336e-06
-6.9363e-06
-1.08533e-06
0.000197525
-2.22414e-06
1.1531e-06
-7.59114e-05
-1.5628e-06
-1.1622e-06
-8.1264e-07
1.13002e-06
1.51933e-06
1.20424e-06
5.97939e-06
-9.35917e-07
4.1001e-07
2.94415e-06
-1.06218e-05
-5.19385e-05
6.7053e-07
-7.17572e-07
-3.11328e-07
5.17855e-05
5.11414e-07
-4.45517e-06
-1.96557e-07
0.000168472
3.84811e-07
-1.41269e-07
1.58901e-06
9.50732e-08
-5.80366e-07
1.05913e-07
-1.52826e-07
-2.4629e-06
-6.35976e-07
0.000226661
-1.44589e-06
-9.71864e-07
-1.15906e-06
-8.00072e-07
-2.58511e-07
-7.48526e-07
-2.09963e-05
-1.83407e-06
9.71756e-07
2.05488e-05
1.13948e-06
-2.58794e-06
2.51118e-06
-1.06194e-06
-7.53732e-06
2.31799e-07
2.90803e-07
6.81836e-06
-5.68683e-05
-2.358e-07
-5.16442e-07
-1.95875e-07
5.71805e-05
-2.03294e-05
-1.17943e-06
1.74075e-06
1.97679e-05
-1.33174e-05
-3.79029e-08
-2.09173e-07
1.35643e-05
-1.06745e-05
-4.13466e-08
-4.34553e-07
1.11505e-05
9.81029e-07
6.63596e-07
-4.44229e-05
2.38867e-07
-6.68077e-07
4.32075e-05
-4.37463e-07
-5.96297e-05
-6.15164e-08
-7.22594e-07
7.4288e-07
6.01084e-05
-5.55317e-05
7.95731e-07
-9.45754e-07
-1.61758e-06
5.61415e-05
1.15784e-06
2.64063e-07
4.6601e-07
-6.15226e-05
-1.1699e-06
-3.63747e-07
6.23261e-05
-4.6147e-06
-2.41462e-06
0.000281778
9.07304e-07
-2.41478e-07
1.20737e-06
2.00745e-06
1.40256e-06
-1.64409e-07
1.81422e-06
2.16971e-06
-4.35398e-06
-1.49206e-06
0.000254936
-1.39183e-06
-3.70389e-07
6.7687e-07
1.62635e-06
2.18433e-07
1.32713e-07
9.68868e-05
1.90252e-06
1.55548e-06
3.22523e-06
1.73649e-06
-1.13948e-06
6.05717e-07
-1.94852e-07
-2.16387e-05
-3.56844e-07
6.03949e-07
2.16098e-05
-1.99469e-05
1.4329e-07
-2.18638e-07
2.00222e-05
1.82647e-07
-6.79754e-05
2.35559e-07
-7.63479e-07
-3.30791e-07
6.86515e-05
-1.13115e-05
-1.4927e-06
0.000277739
3.98137e-07
9.04826e-07
2.44055e-06
2.89339e-06
-5.64013e-06
-9.34118e-07
0.000191295
-8.40524e-07
9.46159e-07
-8.11428e-05
-9.05478e-07
-6.98887e-07
-5.13366e-07
4.7213e-07
1.04103e-06
2.22941e-07
1.42314e-05
-6.05805e-07
1.94378e-07
1.06213e-06
-1.57227e-05
-5.19157e-05
3.65706e-07
-5.10745e-07
-9.44267e-08
5.20435e-05
1.11704e-07
-4.45618e-06
-4.55871e-07
0.000170825
3.19283e-07
-2.00515e-07
1.58167e-06
-7.99786e-08
-4.33176e-07
-1.2241e-08
-1.08396e-07
-2.09139e-06
-5.44456e-07
0.0002289
-1.56815e-06
-6.65681e-07
-1.11802e-06
-7.66261e-07
-1.94907e-07
-6.8064e-07
-2.11452e-05
-8.20781e-07
5.89736e-07
2.02311e-05
3.68761e-07
-1.08394e-06
5.1893e-07
1.96063e-07
-6.29621e-06
-2.92379e-08
4.51678e-07
5.41851e-06
-5.77414e-05
-1.8932e-07
-6.61096e-07
1.91274e-09
5.80454e-05
-1.95471e-05
-1.40938e-06
1.59395e-06
1.93621e-05
-1.37401e-05
-1.99475e-08
-1.30813e-07
1.3892e-05
-1.15339e-05
2.6678e-07
-5.1067e-07
1.17762e-05
7.70458e-07
6.29872e-07
-4.21204e-05
1.11505e-07
-5.23404e-07
4.1132e-05
-6.43815e-07
-6.10772e-05
-1.65941e-07
-6.85647e-07
7.54254e-07
6.18184e-05
-5.68072e-05
9.22415e-07
-6.62769e-07
-1.5466e-06
5.71179e-05
9.76251e-07
3.84435e-07
4.47818e-07
-6.32346e-05
-1.2967e-06
-2.28369e-07
6.39275e-05
-4.88934e-06
-1.24413e-06
0.000279664
7.7181e-07
-1.4307e-07
9.19642e-07
1.70043e-06
1.48228e-06
-1.34831e-08
1.65905e-06
1.87119e-06
-3.74346e-06
-7.32515e-07
0.000254259
-1.48474e-06
-5.0263e-07
6.81586e-07
1.56963e-06
8.24507e-07
-1.42464e-07
8.23021e-05
1.83206e-06
1.40816e-06
3.18794e-06
1.7172e-06
-4.29254e-08
1.17019e-06
8.86609e-07
-2.16724e-05
-3.66034e-07
1.17024e-06
2.16927e-05
-2.00116e-05
2.70663e-07
-2.16241e-07
1.99572e-05
-1.44878e-07
-6.96453e-05
1.53001e-07
-5.19461e-07
-1.28112e-07
7.02847e-05
-1.03158e-05
-3.15769e-07
0.000281181
1.53924e-07
7.65935e-07
2.30509e-06
2.71978e-06
-5.18343e-06
-3.84576e-07
0.000185815
-6.05619e-07
3.64846e-07
-8.36916e-05
-5.89426e-07
-4.86551e-07
-5.0042e-07
-5.72228e-07
3.86538e-07
-7.74265e-07
1.59755e-05
-8.14134e-07
-4.11018e-07
3.11009e-07
-1.5667e-05
-5.21478e-05
3.18572e-07
-3.47913e-07
3.60131e-07
5.19526e-05
-1.35644e-07
-5.16795e-06
-4.35573e-07
0.000174866
2.36904e-07
-2.35753e-07
1.51142e-06
-7.72041e-09
-3.27967e-07
6.94339e-08
6.56148e-10
-1.8042e-06
-5.67168e-07
0.000230637
-1.66509e-06
-6.59516e-07
-1.03161e-06
-7.34566e-07
-1.87384e-07
-6.40304e-07
-2.04576e-05
-4.60776e-07
3.3513e-08
1.94455e-05
-9.3436e-07
3.04228e-07
-8.94758e-07
1.52481e-06
-4.89983e-06
-2.32599e-07
3.25899e-07
4.37147e-06
-5.8961e-05
-9.40654e-08
-1.06091e-06
-2.92014e-08
5.95781e-05
-1.91365e-05
-1.62454e-06
2.09597e-06
1.86651e-05
-1.42219e-05
-1.39644e-07
-8.33714e-08
1.44449e-05
-1.19547e-05
2.90846e-07
-5.35228e-07
1.21995e-05
7.30486e-07
4.82063e-07
-4.03795e-05
6.32576e-08
-5.99214e-07
3.97029e-05
-5.97091e-07
-6.30485e-05
-3.66894e-07
-5.0463e-07
7.18246e-07
6.37989e-05
-5.76996e-05
8.20899e-07
-4.63564e-07
-1.49406e-06
5.8098e-05
7.38259e-07
5.00239e-07
6.77756e-07
-6.46093e-05
-1.36211e-06
-3.86764e-07
6.51802e-05
-5.82522e-06
-1.67402e-06
0.00027946
5.03788e-07
-1.39329e-07
8.03554e-07
1.56237e-06
1.4149e-06
6.95952e-08
1.63936e-06
1.84828e-06
-3.68122e-06
-6.24408e-07
0.000252455
-1.45788e-06
-4.86675e-07
7.17218e-07
1.51219e-06
1.12562e-06
-9.32345e-07
6.73158e-05
1.77949e-06
1.42846e-06
3.06189e-06
1.51487e-06
8.20859e-07
1.25019e-06
1.25603e-06
-2.17491e-05
-3.20986e-07
1.49295e-06
2.17028e-05
-1.98338e-05
1.81054e-07
-2.80958e-07
1.99335e-05
-6.07793e-08
-7.08305e-05
1.13963e-07
-2.39008e-07
2.84517e-07
7.07318e-05
-9.53975e-06
-1.09004e-07
0.000283538
-6.02963e-08
7.46031e-07
2.1154e-06
2.81659e-06
-5.28029e-06
-7.30732e-07
0.000181662
-6.96214e-07
-4.41285e-07
-8.36832e-05
-7.25874e-07
-5.1718e-07
-7.31068e-07
-1.51652e-06
-2.6394e-07
-1.32896e-06
1.46928e-05
-1.08905e-06
-5.95129e-07
3.15662e-08
-1.37364e-05
-5.19523e-05
1.27411e-07
-1.14547e-07
6.21111e-07
5.17206e-05
-4.02272e-07
-5.69915e-06
-5.73742e-07
0.000179788
9.73236e-08
-1.73156e-07
1.40018e-06
4.45686e-08
-2.5378e-07
5.59117e-08
7.08619e-08
-1.94224e-06
-4.83987e-07
0.000231667
-1.5559e-06
-8.96791e-07
-1.17334e-06
-6.81008e-07
-1.23776e-07
-6.02273e-07
-1.95964e-05
-7.17773e-07
-5.06129e-07
1.84368e-05
-1.95839e-06
9.80908e-07
-1.16388e-06
2.13817e-06
-4.235e-06
-4.6257e-07
4.8443e-07
3.63985e-06
-6.0472e-05
1.94403e-07
-1.61373e-06
2.93209e-07
6.11141e-05
-1.81267e-05
-1.40084e-06
2.08032e-06
1.7445e-05
-1.46347e-05
-1.25563e-07
-9.84069e-08
1.48587e-05
-1.24557e-05
5.51153e-07
-6.44704e-07
1.25487e-05
1.07463e-06
4.74494e-07
-3.93251e-05
-8.74616e-08
-1.24543e-06
3.91089e-05
-4.13243e-07
-6.49894e-05
-1.91612e-07
-5.67126e-07
4.14943e-07
6.57464e-05
-5.86763e-05
5.98629e-07
-4.26117e-07
-1.49047e-06
5.92722e-05
7.22082e-07
3.84475e-07
8.29513e-07
-6.56408e-05
-1.37589e-06
-2.4514e-07
6.60479e-05
-5.74861e-06
-2.33516e-07
0.000277247
4.48216e-07
-3.3906e-07
1.07572e-06
1.4372e-06
1.4726e-06
2.10226e-07
1.70222e-06
2.18827e-06
-3.86281e-06
-3.65982e-07
0.000250877
-1.55193e-06
-5.38881e-07
6.47352e-07
1.50132e-06
1.06003e-06
-1.26733e-06
5.36805e-05
1.53006e-06
1.13775e-06
2.73974e-06
1.19288e-06
1.0435e-06
1.07885e-06
1.25703e-06
-2.15963e-05
-3.51353e-07
1.65e-06
2.13578e-05
-2.02344e-05
6.8766e-08
-4.11338e-07
2.0577e-05
2.33009e-08
-7.12103e-05
-1.8432e-07
-5.47827e-07
1.96452e-07
7.17227e-05
-9.24534e-06
4.62656e-07
0.000285586
8.88077e-08
8.59241e-07
2.45733e-06
3.09632e-06
-5.41403e-06
-1.04679e-06
0.000178511
-8.66948e-07
-1.0171e-06
-8.17072e-05
-9.85327e-07
-8.37283e-07
-9.02836e-07
-1.88217e-06
-7.25432e-07
-1.44021e-06
1.28133e-05
-8.72655e-07
-3.44379e-07
1.73749e-07
-1.2637e-05
-5.18252e-05
3.23508e-07
-2.25764e-07
1.96853e-07
5.18342e-05
-3.03675e-07
-5.96732e-06
-4.27038e-07
0.000184873
1.0541e-07
-1.49837e-07
1.51109e-06
8.84841e-08
-1.7406e-07
1.86475e-07
2.0421e-07
-2.22516e-06
-5.10079e-07
0.000232254
-1.62735e-06
-1.04275e-06
-1.19513e-06
-6.69002e-07
5.51132e-08
-3.86672e-07
-1.8319e-05
-6.98972e-07
-6.66172e-07
1.64418e-05
-2.16678e-06
9.50788e-07
-9.04352e-07
2.11951e-06
-3.49999e-06
-7.31383e-07
4.22426e-07
3.38205e-06
-6.20896e-05
4.8629e-07
-1.9406e-06
3.98199e-07
6.26357e-05
-1.69891e-05
-1.16027e-06
1.75943e-06
1.63903e-05
-1.50008e-05
-8.40748e-08
-8.87717e-08
1.51736e-05
-1.27888e-05
3.03923e-07
-4.83058e-07
1.29684e-05
1.22705e-06
6.60838e-07
-3.9587e-05
-4.21183e-07
-1.77996e-06
3.99003e-05
-1.68595e-07
-6.67001e-05
-2.63212e-07
-3.95706e-07
1.32207e-07
6.73954e-05
-6.00292e-05
6.88628e-07
-4.71118e-07
-1.41483e-06
6.04249e-05
8.01632e-07
2.99058e-07
7.21079e-07
-6.64515e-05
-1.37279e-06
-1.51076e-07
6.69552e-05
-5.26354e-06
1.1589e-06
0.000271214
7.57709e-07
-5.04686e-07
1.43777e-06
1.61793e-06
1.69762e-06
3.53793e-07
2.16304e-06
2.61463e-06
-3.49857e-06
-1.33841e-07
0.000249034
-1.5139e-06
-5.74976e-07
7.12379e-07
1.5881e-06
9.89441e-07
-9.55584e-07
4.16556e-05
1.32581e-06
8.18313e-07
2.41029e-06
9.22502e-07
8.96365e-07
1.0678e-06
1.05143e-06
-2.12861e-05
-2.28252e-07
1.10033e-06
2.14037e-05
-2.08341e-05
-1.51034e-07
-6.48781e-08
2.105e-05
2.48456e-07
-7.27877e-05
-3.16952e-07
-7.13968e-07
2.87187e-07
7.3283e-05
-8.1757e-06
1.60709e-06
0.000285987
3.31063e-07
9.00474e-07
2.81921e-06
3.27578e-06
-5.52641e-06
-1.08572e-06
0.000176814
-1.01893e-06
-1.06365e-06
-8.02895e-05
-1.05249e-06
-8.47531e-07
-8.32175e-07
-1.4497e-06
-7.07755e-07
-9.27446e-07
1.25817e-05
-4.98425e-07
-3.51285e-07
1.31691e-07
-1.28826e-05
-5.2105e-05
3.58932e-07
-3.79112e-07
4.58611e-09
5.23377e-05
-2.17089e-07
-5.77865e-06
-5.34476e-07
0.000190723
1.48949e-07