/*--------------------------------*- C++ -*----------------------------------*\
| =========                 |                                                 |
| \\      /  F ield         | OpenFOAM: The Open Source CFD Toolbox           |
|  \\    /   O peration     | Version:  5.x                                   |
|   \\  /    A nd           | Web:      www.OpenFOAM.org                      |
|    \\/     M anipulation  |                                                 |
\*---------------------------------------------------------------------------*/
FoamFile
{
    version     2.0;
    format      ascii;
    class       surfaceScalarField;
    location    "4.85";
    object      phi;
}
// * * * * * * * * * * * * * * * * * * * * * * * * * * * * * * * * * * * * * //

dimensions      [0 3 -1 0 0 0 0];

internalField   nonuniform List<scalar> 
29271
(
-6.91447e-06
5.25368e-07
1.66915e-06
4.86563e-06
-8.31822e-06
9.20239e-07
2.68605e-06
4.94868e-06
-2.00771e-05
-5.98033e-06
2.13942e-06
-3.42192e-06
8.12826e-06
1.92116e-05
-3.39689e-05
-3.69894e-06
1.95924e-06
1.59947e-06
9.35545e-06
2.47537e-05
-2.31448e-05
-2.59619e-06
1.18438e-06
1.06044e-06
2.65115e-05
-3.01531e-06
-3.47338e-05
-1.0362e-05
-9.62795e-06
6.74238e-06
-7.03061e-07
4.86844e-05
-2.67042e-05
-1.53385e-06
-4.23208e-07
-6.1515e-07
-4.57266e-06
3.3849e-05
-2.57154e-05
-3.75131e-06
5.55008e-06
-3.97362e-06
-2.95262e-06
3.08429e-05
-1.95416e-05
-2.74195e-08
-2.2965e-06
1.13004e-05
-2.06904e-06
1.26342e-05
-2.87802e-05
-7.90144e-06
4.38647e-06
5.18858e-05
-1.9607e-05
-9.04105e-06
4.88947e-06
-3.94785e-06
8.05378e-06
-2.55432e-05
3.42427e-06
8.74255e-06
-3.03157e-06
-1.02836e-05
2.66915e-05
-2.06108e-05
1.05324e-05
2.20263e-06
1.01463e-06
-7.42118e-06
1.42823e-05
-2.90414e-05
5.02951e-06
-2.8831e-06
4.14667e-06
-7.85045e-06
3.05988e-05
-2.97601e-05
3.12511e-06
6.8809e-07
3.66622e-06
-4.16073e-06
2.64414e-05
-2.6661e-05
7.43125e-06
6.66303e-06
-6.32366e-06
2.72101e-05
-8.31965e-06
-1.94283e-05
4.02375e-06
-2.52784e-06
-4.5503e-06
1.45979e-05
7.8848e-06
-1.73257e-05
4.73433e-07
5.48345e-06
1.79001e-06
-2.83913e-06
1.24179e-05
-1.61071e-05
6.28873e-06
-3.86557e-06
5.23249e-06
-4.06998e-06
1.25214e-05
-2.8075e-05
4.60873e-06
-7.65486e-06
2.87373e-05
7.12355e-06
-4.7397e-06
-1.01281e-05
2.26499e-06
-4.88553e-06
1.27585e-05
-2.02607e-05
-1.26757e-06
4.87565e-06
1.75904e-05
-9.31435e-07
-2.20359e-05
-4.13783e-06
3.83154e-06
8.44626e-06
1.40332e-05
-1.3731e-07
-5.72066e-06
5.49412e-06
-4.32872e-06
4.66881e-06
-2.6339e-06
-3.4854e-07
1.81204e-06
1.18535e-06
-4.30705e-06
9.10198e-07
-2.7851e-06
6.17098e-06
-6.64192e-06
-5.35684e-07
-1.7831e-05
-1.72448e-06
3.38989e-06
2.33432e-05
-3.68466e-06
-1.69201e-05
9.18994e-07
5.47706e-06
4.08812e-06
1.01205e-05
-3.1046e-05
-5.4999e-06
-2.81368e-07
2.27476e-06
4.10849e-05
-6.53243e-06
1.22456e-05
-6.49155e-06
-3.70504e-05
2.45365e-05
-1.37774e-05
2.05373e-05
1.36863e-05
-3.14172e-05
0.000230961
-5.77979e-05
-6.34362e-05
-3.80661e-05
-4.20641e-05
6.69233e-06
-3.64459e-06
2.20139e-05
1.35189e-05
-1.43736e-05
-8.42893e-06
-1.21757e-05
-1.54685e-05
1.48405e-05
-1.30166e-05
6.58782e-05
-2.62644e-05
-1.04648e-05
-1.98852e-05
-1.31305e-05
-1.54354e-06
3.04332e-06
3.6234e-06
1.06057e-05
8.45911e-06
-1.58223e-05
8.17758e-05
-2.86267e-06
-1.48909e-06
-1.12039e-06
-2.57519e-06
5.48345e-06
4.47135e-06
3.53058e-06
-9.73875e-06
-2.38975e-05
-1.33887e-05
-1.79852e-05
-6.25431e-05
-4.76142e-06
9.52685e-06
6.62361e-05
-6.98388e-06
-1.3844e-06
2.5407e-06
5.82865e-06
-5.89958e-06
-3.02408e-05
2.21716e-05
2.07272e-06
-1.8682e-05
3.0578e-05
1.31032e-06
-2.12657e-05
2.15674e-05
-5.69396e-06
-9.18941e-06
-8.58221e-06
-7.7135e-06
-4.03749e-07
3.76508e-07
-1.91805e-06
9.51364e-08
5.82735e-05
-1.0999e-05
4.91261e-05
-2.4501e-05
-4.25821e-05
-8.73484e-06
-3.22888e-05
1.82305e-06
-2.00341e-05
0.000248971
4.73695e-06
8.92992e-07
-2.41942e-06
-1.61974e-05
-1.83147e-05
-1.98051e-05
-3.14586e-05
-2.39754e-05
-5.11741e-05
-3.05936e-05
-3.2415e-05
-4.13674e-06
-6.53317e-06
1.94876e-06
4.29592e-05
-9.63761e-06
2.4383e-06
-2.53992e-06
-3.88473e-06
4.05906e-06
9.56489e-06
9.62045e-06
-4.59122e-06
1.61369e-05
8.62659e-08
-7.17039e-09
4.69818e-07
1.40378e-07
-4.63504e-06
-2.68685e-06
-2.92349e-06
-8.58024e-06
-7.87521e-06
-8.16039e-06
-8.25985e-06
2.41131e-05
-8.46735e-06
6.76266e-06
5.31384e-06
2.51242e-05
4.25653e-06
-5.68575e-06
-5.93014e-06
-4.43042e-06
-9.0561e-06
-1.37562e-05
-1.01435e-05
-9.47944e-06
-3.85589e-05
1.69472e-05
-1.51646e-05
4.08552e-05
-1.22576e-05
2.29307e-07
-9.96316e-07
1.30224e-05
-1.31277e-05
9.47191e-07
-8.79665e-07
8.56786e-06
-1.08815e-05
-1.01284e-06
7.07164e-06
-1.38549e-05
1.02102e-05
-3.59587e-06
6.98233e-06
-4.28816e-06
9.73997e-07
-3.44897e-07
-2.29643e-07
5.20053e-07
3.07778e-08
-1.20033e-05
-5.1666e-06
-3.0457e-07
1.74767e-05
7.85235e-07
-1.28042e-06
-3.93307e-05
8.47809e-06
-1.7581e-05
4.89288e-05
3.83414e-07
-8.0896e-06
-1.14032e-05
6.02127e-06
-1.29241e-06
1.43806e-05
-4.64399e-05
3.35475e-07
5.63171e-06
-3.97901e-06
5.11376e-05
-6.68589e-06
9.45216e-06
-3.25815e-06
-1.5532e-05
1.00665e-05
-1.17935e-05
1.1065e-05
4.61541e-05
-1.61219e-05
0.000219092
1.63982e-05
7.88415e-06
1.53939e-05
6.83305e-06
-1.63007e-05
-2.57727e-05
-1.12553e-05
-1.13435e-05
1.4059e-05
1.83381e-06
7.72222e-05
5.18606e-07
6.97324e-06
5.12155e-06
6.30392e-06
3.16943e-06
-2.77596e-05
0.000107825
2.09169e-06
1.33412e-07
2.80011e-06
3.5016e-07
2.14405e-06
2.9583e-06
2.12218e-06
-6.56466e-05
-3.32275e-06
8.1679e-06
6.39681e-05
-4.32089e-06
3.53146e-06
-1.74622e-06
2.5369e-06
-7.44984e-06
-1.84275e-05
8.17696e-06
1.1559e-05
-4.21596e-06
1.03573e-05
5.93965e-06
-2.08231e-05
3.01795e-05
-3.97536e-06
-1.10872e-06
-3.29562e-06
-1.47078e-06
2.33829e-05
-4.76173e-06
3.82784e-05
1.45723e-06
-1.04327e-05
0.00026206
-2.20006e-06
7.83659e-06
3.52755e-06
-1.14951e-05
-7.86593e-07
-5.37325e-06
-5.04281e-05
-2.99832e-06
-2.26575e-06
1.66841e-06
5.5481e-05
-4.49204e-07
6.44293e-07
-1.07153e-06
-1.96859e-06
-6.74422e-07
3.51946e-06
4.10661e-06
-2.24481e-06
8.19379e-07
-2.23982e-07
-3.61344e-07
-2.55832e-07
-3.95398e-07
-2.29421e-06
-1.86227e-06
-1.97435e-06
1.19852e-05
-3.46557e-06
-3.80296e-07
4.14767e-07
5.01218e-06
-8.92365e-08
-2.64114e-06
-2.7539e-06
-1.97448e-06
-3.3131e-05
1.6609e-05
-4.53043e-06
2.2605e-05
-1.66185e-05
6.01251e-06
-1.01583e-05
2.0763e-05
-5.73214e-06
3.63831e-07
-5.3426e-07
3.70256e-06
-7.10363e-06
-6.50388e-07
2.81457e-06
-2.69188e-06
4.16575e-06
2.24189e-07
1.57151e-06
-1.45706e-06
-3.11834e-07
4.87424e-08
-3.10416e-07
1.06214e-07
6.48099e-08
-2.24653e-05
-1.01945e-05
4.15303e-06
2.84968e-05
4.83983e-06
-5.85092e-07
-5.58249e-05
1.38369e-05
-1.29175e-05
5.06508e-05
2.16887e-06
-2.35777e-05
-1.37515e-05
1.07278e-05
-5.00366e-06
2.94361e-05
-5.42883e-05
4.77441e-06
3.76861e-06
-5.70532e-06
5.70778e-05
-5.62719e-06
2.75423e-06
-2.78851e-06
-8.41487e-06
6.67753e-06
-2.59373e-06
4.36535e-06
2.97176e-05
-3.92875e-06
0.000211225
4.73909e-06
2.27919e-06
5.7608e-07
4.43251e-06
-9.48492e-06
-1.00261e-05
-6.39304e-06
-4.04423e-06
8.89505e-06
3.56032e-06
8.4843e-05
2.02736e-06
2.7997e-06
2.32396e-06
2.49042e-06
1.98548e-06
-2.73354e-05
0.000129924
2.91952e-06
1.10093e-06
4.0138e-06
1.04481e-06
1.80307e-08
2.38066e-06
6.68723e-07
-6.1914e-05
-3.06883e-07
3.46693e-06
6.07336e-05
-1.21742e-06
9.35516e-07
-6.7631e-07
9.60798e-07
-3.41333e-06
-5.6416e-06
2.14173e-06
4.72188e-06
-7.46679e-07
2.938e-06
5.78882e-06
-8.68752e-06
3.75886e-05
-2.80636e-06
-1.49242e-06
-2.77896e-06
-1.36149e-06
1.01224e-05
-1.4015e-05
5.15202e-05
4.17449e-06
1.339e-06
0.000226546
1.18901e-06
6.28732e-06
3.94554e-06
-2.18726e-06
2.73496e-06
8.18268e-07
-6.45359e-05
3.21079e-07
-4.06457e-07
-1.62494e-06
7.04207e-05
8.10503e-07
2.14833e-07
-5.8125e-08
-6.25677e-07
-7.92439e-07
4.50905e-07
7.19956e-06
-1.20255e-06
-8.91561e-06
-4.28716e-07
-4.27128e-07
-4.1161e-07
-4.3154e-07
-1.19103e-06
-1.04362e-06
-1.0159e-06
-5.56687e-07
-2.26973e-06
1.42078e-06
1.04695e-07
-5.25746e-07
1.04646e-06
-1.93882e-06
-2.03035e-06
-2.44638e-06
-1.8338e-05
-6.1974e-07
4.17676e-06
1.55633e-05
-2.21575e-05
3.8419e-06
-1.83532e-06
2.0165e-05
-1.89738e-06
6.54049e-08
-3.42807e-08
7.17402e-07
-1.74201e-06
-6.62891e-07
1.58182e-06
-1.12504e-06
-3.21613e-07
-4.90673e-07
-7.41802e-07
-1.56971e-06
2.81796e-06
-1.5521e-06
2.00506e-06
-4.46574e-06
4.01272e-06
-3.2907e-05
-6.86609e-06
7.12412e-06
3.2591e-05
1.80665e-06
-1.64953e-06
-3.71287e-05
9.32294e-06
-3.00243e-07
2.79489e-05
5.93169e-06
-3.08118e-05
-1.22956e-05
1.05869e-05
-4.45014e-06
3.1039e-05
-6.02877e-05
3.96768e-06
4.84591e-06
-3.86586e-06
6.2487e-05
-7.14699e-06
-6.31959e-06
7.78991e-08
-5.80767e-06
1.13127e-07
4.62489e-07
1.14737e-05
1.32258e-05
-7.44932e-06
0.000213196
-4.76389e-07
2.66814e-06
4.32681e-07
1.99901e-06
-2.8726e-06
-3.61248e-06
-2.42693e-06
-3.45922e-06
-9.50397e-06
1.06898e-05
9.83611e-05
4.36945e-07
-8.90707e-07
3.51437e-07
-1.37573e-06
2.32924e-06
-1.67464e-05
0.000124425
2.94821e-06
-6.44679e-07
3.58945e-06
1.33988e-07
-4.92238e-07
3.32676e-06
1.55024e-06
-6.07692e-05
1.6325e-06
-2.67217e-07
6.17325e-05
-1.31914e-06
-1.04997e-08
-4.49433e-07
1.73489e-06
3.20528e-08
-7.04373e-07
5.86008e-07
1.02196e-06
-4.91326e-07
-4.44321e-07
-7.7271e-06
-7.38584e-06
4.47185e-05
-1.32477e-06
-3.21126e-07
2.44357e-06
-2.63902e-07
-4.93429e-06
-4.4622e-06
6.38793e-05
3.45759e-06
1.98838e-06
0.000182537
2.22417e-06
4.79864e-06
3.4866e-06
1.0979e-06
3.42888e-06
1.84564e-06
-7.50679e-05
2.67149e-06
4.05811e-06
-1.8165e-06
7.36124e-05
9.90916e-07
4.04436e-07
-1.21108e-08
-2.79593e-07
-1.41925e-06
3.15599e-07
2.65914e-06
-5.01917e-07
-1.66274e-05
-1.37107e-07
-2.00468e-07
-1.08869e-07
-1.71443e-07
-4.70181e-07
-4.03052e-07
-3.40121e-07
-1.70428e-06
-5.10496e-07
5.7035e-06
-1.46501e-07
-1.08461e-06
-2.56089e-07
-1.33887e-06
-6.41144e-07
-4.0378e-07
-1.64375e-05
-3.21817e-06
2.10389e-06
1.78359e-05
-1.84102e-05
-1.40771e-06
1.33206e-06
1.8488e-05
3.74144e-07
8.42608e-09
1.42876e-07
-9.78074e-07
2.75203e-06
-5.37924e-07
2.14332e-06
-4.61003e-07
-4.40693e-06
-4.4232e-06
-4.50692e-07
-3.69304e-07
5.24465e-06
-6.74452e-06
5.40525e-06
-8.02442e-06
9.36355e-06
-2.70212e-05
-1.10941e-06
7.4858e-06
2.06406e-05
2.36304e-07
-1.43205e-06
-2.68442e-05
4.62736e-06
-8.20586e-07
2.42332e-05
4.71016e-06
-2.86679e-05
-5.41286e-06
5.21574e-06
-1.34588e-06
2.55008e-05
-6.41681e-05
1.86879e-06
4.91145e-06
-2.16499e-06
6.53801e-05
-5.82728e-06
-8.0362e-06
-7.32157e-07
-2.09054e-05
8.96214e-07
1.34413e-06
2.74335e-05
7.91824e-06
-2.61751e-06
0.000216336
3.83945e-07
1.65869e-07
-1.39829e-07
-3.44148e-07
-1.94963e-06
-3.00017e-06
-1.59592e-06
-1.96055e-06
-1.6078e-05
1.13449e-05
0.000113342
-1.9006e-07
-1.73953e-06
6.83589e-07
-1.0831e-06
1.48211e-06
-5.57966e-06
0.000113623
1.38791e-06
-5.88902e-07
1.97412e-06
-1.33973e-06
-6.11197e-07
-1.48643e-07
-1.85184e-06
-6.32145e-05
-3.89442e-07
1.47547e-05
-1.61656e-05
6.6497e-05
-3.53329e-07
-1.78896e-08
-5.8829e-08
4.30294e-07
-3.14222e-06
-6.16589e-07
3.37905e-07
3.41972e-06
-1.27707e-06
1.89529e-06
2.52262e-06
-8.12439e-07
-6.27426e-07
-1.70097e-06
-1.12079e-05
-5.75484e-06
5.19579e-05
2.0384e-06
7.92433e-07
2.48201e-06
1.79297e-06
-9.08737e-06
-3.35897e-07
7.34396e-05
1.54321e-06
1.97752e-06
0.000160142
1.76132e-06
3.27342e-07
-5.72687e-07
1.35692e-06
1.79859e-06
-4.63936e-07
-6.99744e-05
2.4337e-06
7.91137e-06
1.06156e-05
5.05569e-05
1.53568e-08
-1.38415e-06
2.43885e-09
-8.7115e-09
1.37241e-06
2.39692e-06
1.06493e-06
-1.77635e-07
1.35268e-07
-3.76352e-06
3.44027e-07
-5.37902e-06
-1.10596e-07
-1.57438e-05
4.23259e-08
-4.4744e-08
5.48565e-08
-1.42851e-07
-1.58589e-07
-1.95785e-07
-7.04093e-07
-3.70224e-06
-6.28125e-07
1.60659e-05
-2.44802e-06
-3.72985e-06
-2.72249e-06
-9.16563e-07
-8.81919e-07
-1.04811e-06
-2.07425e-05
-2.50657e-06
1.96407e-06
1.95603e-05
-2.23853e-05
-1.86226e-06
2.06794e-06
2.21802e-05
1.52774e-06
9.39595e-08
-3.42638e-08
-1.70104e-06
4.57873e-06
-2.27655e-07
-1.67747e-06
-4.03412e-08
-3.26139e-06
-5.13626e-06
-2.47089e-06
3.35199e-06
4.25532e-06
-9.96096e-06
3.83789e-06
-3.8374e-06
9.96016e-06
-1.67049e-05
-2.21216e-06
4.29049e-06
1.46298e-05
-3.90279e-07
6.78971e-07
-2.1451e-05
9.41473e-07
9.26954e-07
1.92938e-05
2.37616e-06
-2.41512e-05
-1.70777e-06
2.24815e-06
-1.61042e-06
2.28451e-05
-6.51279e-05
1.03371e-06
3.46891e-06
-1.5809e-06
6.45246e-05
-2.31841e-06
-6.64669e-06
1.17099e-06
-3.19931e-05
-5.3857e-07
2.25658e-06
3.57508e-05
3.92126e-06
-1.13353e-06
0.000217254
-1.73455e-07
-1.04007e-06
5.61769e-07
-7.12011e-08
-7.16376e-07
-1.56994e-06
-2.18516e-07
-4.78609e-07
-1.23294e-05
1.01784e-05
0.000117613
6.71474e-07
-1.18586e-06
1.85695e-06
4.58437e-07
3.90166e-07
-6.33929e-06
0.000108909
7.06205e-07
-1.0218e-06
1.55966e-06
-1.07212e-06
-1.42949e-06
4.75543e-07
-8.84388e-07
-7.3633e-05
1.10985e-05
1.05407e-05
-3.62184e-06
5.60058e-05
-2.65408e-06
5.24328e-06
-5.67139e-07
-3.94811e-06
-4.29161e-06
6.21766e-06
-3.3587e-06
-8.97079e-09
-5.92978e-07
3.96007e-06
8.7571e-07
1.65091e-07
2.20694e-06
-2.18606e-06
-2.06013e-06
9.98452e-07
-7.82745e-06
-6.28018e-06
5.51173e-05
2.52226e-06
2.12007e-06
2.76292e-06
2.40945e-06
-1.07982e-05
4.88639e-07
8.61002e-05
-8.59551e-07
-6.02711e-07
0.000154641
-1.63138e-06
-8.62312e-07
-2.56395e-06
-1.25619e-06
-2.42434e-06
-1.43609e-06
-4.96775e-05
2.25357e-06
-2.02552e-06
6.39062e-07
4.79508e-05
-1.25535e-06
3.23478e-06
2.0663e-06
-2.1537e-06
-1.83677e-06
-5.52627e-08
3.9251e-06
8.42009e-07
-1.29617e-06
-2.17543e-06
-3.40073e-06
2.10522e-06
-8.65403e-06
-1.39624e-06
-1.2017e-05
1.54997e-06
9.19177e-07
1.89881e-06
1.47189e-06
-1.90318e-06
-1.88638e-06
-2.00694e-06
-3.86308e-06
-8.20625e-07
2.27701e-05
-2.92602e-06
-1.7725e-06
-2.87862e-06
-1.2145e-06
-5.93565e-07
-8.00701e-07
-1.72872e-05
-1.43417e-06
1.10659e-06
1.3149e-05
-1.87817e-05
-1.01837e-05
9.52356e-07
1.70569e-06
2.63074e-05
1.29746e-07
-1.09974e-06
2.74992e-07
6.95002e-07
1.44626e-06
6.73516e-07
-1.07217e-06
-2.44378e-06
2.29201e-06
1.66248e-06
-2.92526e-06
5.81216e-07
-2.43107e-06
-2.95908e-06
-1.75077e-06
3.04268e-06
1.66714e-06
-9.80013e-06
3.53595e-06
-3.34324e-06
9.60741e-06
-1.4371e-05
-3.54494e-06
2.86772e-06
1.50496e-05
-7.0461e-07
1.1538e-06
-1.80454e-05
-8.98509e-08
8.14679e-07
1.68714e-05
2.72233e-06
-2.17929e-05
-1.19448e-07
6.21448e-07
-2.59451e-06
2.11631e-05
-6.40207e-05
1.38092e-06
2.09121e-06
-1.59534e-06
6.34907e-05
-1.34674e-06
-5.05351e-06
1.95418e-06
-3.86005e-05
-1.60577e-06
2.47291e-06
4.08327e-05
1.89533e-06
1.56043e-06
0.000213097
1.1104e-07
-1.02299e-06
1.5448e-07
-5.87509e-07
6.05809e-07
-5.21846e-07
1.13837e-06
8.23989e-07
-1.03798e-05
8.41523e-06
0.000116937
1.46747e-06
1.93618e-07
2.01959e-06
8.54989e-07
2.16603e-07
-9.0828e-06
0.000111673
3.77841e-07
-1.60479e-06
1.01889e-06
-2.02026e-06
-9.02086e-07
-4.35351e-07
-7.12167e-07
-5.5376e-05
1.53497e-06
3.13065e-06
-3.77084e-06
5.46979e-05
-1.0744e-05
2.36799e-06
-4.63431e-06
4.27669e-06
-4.45749e-06
1.31911e-05
-4.34916e-06
5.56928e-07
-5.91021e-07
4.38325e-06
2.20345e-06
-2.71812e-06
1.63669e-06
-3.06199e-06
-2.47416e-06
4.41413e-06
-8.83959e-06
-7.39281e-06
6.14809e-05
2.62084e-06
2.74849e-06
2.89009e-06
3.16975e-06
-1.50054e-05
2.19775e-06
9.84834e-05
-2.03819e-06
-3.17936e-06
0.000148942
-3.08292e-06
-1.90024e-06
-3.76058e-06
-1.55628e-06
-1.91085e-06
-9.61054e-07
-4.72189e-05
3.43364e-06
-1.67014e-06
-1.57993e-06
4.49971e-05
1.25391e-06
3.59005e-06
1.91466e-06
-2.67705e-06
-7.93993e-07
-3.28757e-06
2.8111e-06
9.3121e-07
-2.02509e-06
-2.58569e-06
-1.49758e-06
2.36605e-06
-6.44103e-06
-1.93357e-06
-1.2886e-05
2.31591e-06
1.91182e-06
2.12095e-06
1.43285e-06
-2.25061e-06
-1.56879e-06
-2.1114e-06
-4.32167e-07
-4.60569e-07
2.45789e-05
-2.01742e-06
1.1041e-07
-1.80649e-06
-6.66986e-07
-3.7086e-07
-4.07984e-07
-1.09316e-05
-4.42905e-07
-2.15099e-06
9.91401e-06
-2.71658e-05
-3.43324e-07
4.43258e-06
-2.50544e-06
2.5582e-05
5.40017e-07
1.40001e-07
7.16204e-07
-8.56354e-07
-5.39868e-07
3.7936e-06
1.04387e-06
-1.49729e-06
-5.27339e-06
3.1523e-06
1.28299e-06
-1.1171e-06
3.63771e-07
-4.14252e-06
-2.01113e-07
6.04955e-07
6.86693e-07
-1.09049e-06
-9.36773e-06
3.45169e-06
-3.17851e-06
9.09455e-06
-1.61658e-05
-4.0881e-06
3.29632e-06
1.69575e-05
-1.08632e-06
1.79298e-06
-1.58007e-05
-9.17659e-07
1.16968e-06
1.4842e-05
2.70162e-06
-2.07589e-05
1.11776e-06
-1.19354e-06
-2.57132e-06
2.07043e-05
-6.28534e-05
1.15628e-06
1.03021e-06
-1.13328e-06
6.16668e-05
1.33456e-07
-4.52355e-06
2.93217e-06
-4.26083e-05
-2.69363e-06
2.76226e-06
4.41311e-05
1.03547e-06
4.80084e-06
0.000206579
-4.62906e-07
-1.90735e-06
-7.33423e-07
-1.50552e-06
1.50258e-06
3.28757e-07
1.87457e-06
1.58513e-06
-1.20557e-05
5.59857e-06
0.000117912
1.71472e-06
7.77373e-07
2.39675e-06
1.62833e-06
-1.61546e-06
-7.92146e-06
0.000124045
1.23405e-07
-1.49097e-06
3.64645e-07
-2.83236e-06
-1.43048e-06
-6.08197e-06
-3.54315e-06
-6.94063e-05
7.67063e-06
2.95005e-06
-4.61546e-06
6.17856e-05
-1.51888e-05
-7.70049e-06
7.78486e-06
6.83642e-06
8.26798e-06
-3.99752e-06
-2.34952e-07
7.29914e-07
3.50255e-06
2.7212e-06
-5.96244e-06
9.11155e-07
-3.76205e-06
-1.56849e-06
7.66063e-06
-1.23111e-05
-2.61909e-06
6.68031e-05
3.18899e-06
3.83783e-06
3.49768e-06
3.88442e-06
-1.83487e-05
4.44931e-06
0.00010567
-2.93328e-06
-2.05044e-06
0.000145898
-4.17926e-06
-4.47285e-06
-6.86168e-06
-4.62137e-07
-1.28599e-06
-9.80098e-07
-4.29563e-05
3.90769e-06
-1.92845e-06
-7.71824e-07
3.88156e-05
3.3818e-06
-5.83039e-06
2.33567e-06
-2.22468e-06
3.56497e-06
-1.22737e-06
5.08284e-07
-1.44985e-06
-9.8702e-07
1.74654e-06
1.91791e-07
-9.75126e-09
-7.59846e-06
-6.71719e-07
-9.10854e-06
2.58974e-06
4.84667e-07
2.3076e-06
-4.91419e-07
-1.3767e-06
-3.86053e-07
-1.25416e-06
-7.84148e-08
3.4589e-08
2.45052e-05
-1.35073e-06
-4.72289e-07
-1.4232e-06
-7.9928e-09
8.28202e-08
1.39774e-07
-1.09895e-05
-1.18314e-06
-2.27393e-06
1.23178e-05
-2.14278e-05
-6.58252e-06
5.07655e-06
2.29338e-05
6.13378e-06
-2.56384e-07
-5.16264e-07
-6.03285e-06
5.08331e-06
7.36353e-07
-2.97594e-07
1.51726e-07
-5.63921e-06
2.06875e-06
9.3195e-07
-2.28816e-07
-2.77189e-06
-8.97254e-06
3.23903e-06
-3.18773e-06
8.92123e-06
-1.71868e-05
-3.43771e-06
3.21402e-06
1.74104e-05
-1.65206e-06
1.18512e-06
-1.41754e-05
-9.16213e-07
1.76911e-06
1.37894e-05
2.67519e-06
-2.06777e-05
1.75577e-06
-1.73747e-06
-2.55888e-06
2.05431e-05
-6.01046e-05
1.19561e-06
6.54893e-07
-8.10728e-07
5.83171e-05
7.47732e-07
-4.64082e-06
4.04011e-06
-4.52153e-05
-3.61692e-06
3.62686e-06
4.58061e-05
2.08588e-06
8.04147e-06
0.000194816
-1.26809e-06
-2.73532e-06
-1.27617e-06
-2.06442e-06
2.24176e-06
1.5594e-06
2.30956e-06
2.8686e-06
-7.35094e-06
3.21144e-06
0.000115562
2.04714e-06
1.44113e-06
2.77263e-06
2.3154e-06
-7.13044e-06
-5.86089e-06
0.000145845
-3.85957e-07
-2.52446e-06
9.04641e-07
-1.78711e-06
-4.21205e-06
-4.69354e-06
-3.46042e-06
-5.94582e-05
-1.62399e-06
-3.87772e-06
5.78295e-05
-3.59426e-06
-2.09088e-06
1.43649e-06
4.24866e-06
2.81612e-06
-9.27889e-06
-5.19246e-07
-4.1706e-06
-3.37975e-07
1.14906e-05
-1.32713e-05
1.70405e-06
6.94786e-05
4.02865e-06
4.68114e-06
4.09195e-06
4.13148e-06
-1.71146e-05
5.02311e-06
0.000107702
-5.65074e-06
-1.38454e-06
0.000147865
-7.12347e-06
-4.75928e-06
-5.38045e-06
-5.02491e-07
-2.23756e-07
8.20342e-08
-4.39304e-05
1.80918e-06
-7.4382e-06
3.65783e-06
4.02508e-05
-8.90033e-07
-3.31946e-06
-5.18177e-07
4.04669e-06
2.26592e-06
-1.58494e-06
-1.11298e-05
7.11767e-07
7.78667e-10
2.9607e-06
-3.71119e-07
2.20774e-06
-1.28196e-06
-4.5177e-07
5.78544e-07
-6.29375e-07
-3.12367e-06
5.48378e-07
2.80102e-05
-1.54197e-06
-5.02212e-06
-1.99731e-06
5.96219e-07
4.15072e-07
5.13759e-07
-1.43933e-05
-3.7122e-06
-1.37611e-06
1.49734e-05
-2.13946e-05
-9.53018e-07
5.65613e-06
1.66915e-05
5.56081e-06
-1.62882e-06
1.04615e-06
-4.26639e-06
6.08695e-06
1.96403e-07
1.37745e-08
1.8233e-07
-5.93108e-06
3.20251e-06
5.56039e-07
-5.13806e-07
-3.24474e-06
-8.89226e-06
2.72036e-06
-2.77752e-06
8.94941e-06
-1.77639e-05
-2.4295e-06
2.22081e-06
1.79726e-05
-1.74244e-06
5.77096e-07
-1.36043e-05
-6.53347e-07
1.61186e-06
1.38111e-05
2.17478e-06
-2.0326e-05
1.38385e-06
-7.08307e-07
-2.38597e-06
1.98617e-05
-5.69168e-05
1.55571e-06
8.95272e-07
-1.16722e-06
5.55159e-05
1.17092e-07
-4.29141e-06
4.5002e-06
-4.54116e-05
-3.7968e-06
4.61627e-06
4.43833e-05
4.37057e-08
8.64916e-06
0.000176298
-6.67348e-07
-2.21269e-06
1.08599e-07
-8.70966e-07
2.95942e-06
3.05515e-06
3.08415e-06
4.36886e-06
1.2809e-06
-4.95458e-07
0.000106582
2.14666e-06
1.71137e-06
2.4173e-06
1.96198e-06
-2.41798e-06
-7.51219e-06
0.000158195
3.42151e-07
-1.16225e-06
1.59406e-06
-5.47014e-07
-5.34201e-08
-1.72036e-06
4.07146e-07
-5.61943e-05
1.36912e-06
-3.54278e-06
5.595e-05
-5.13825e-06
-3.67209e-06
2.80114e-06
6.0092e-06
1.6772e-06
-1.37347e-05
-3.14796e-06
-3.77001e-06
2.43136e-06
1.65441e-05
-1.16322e-05
4.71718e-06
7.00571e-05
3.8418e-06
4.17516e-06
3.65707e-06
3.31156e-06
-1.51486e-05
2.86818e-06
0.000107855
-4.04748e-06
-1.38538e-06
0.00014845
-5.70566e-06
-3.94517e-06
-5.66456e-06
-8.27444e-07
-6.96806e-07
-9.73465e-07
-3.51011e-05
1.11591e-06
-5.12838e-06
2.85623e-06
3.22098e-05
-3.50602e-06
-5.07532e-06
4.84342e-07
5.96631e-06
5.5439e-06
-3.41321e-06
-1.03573e-05
1.55983e-06
1.10948e-05
2.4716e-06
-1.36143e-06
1.45761e-06
-1.77027e-06
3.21935e-07
1.42253e-06
-1.21392e-07
-7.12733e-06
8.6018e-07
3.44754e-05
-1.61531e-06
-6.70724e-06
-1.48525e-06
9.78231e-07
4.89597e-07
6.52788e-07
-1.55113e-05
-6.92799e-06
-2.41011e-07
1.41676e-05
-1.3916e-05
-1.87002e-07
4.03982e-06
1.00632e-05
2.99603e-06
-2.96392e-06
2.76689e-06
-1.23917e-06
5.63691e-06
-6.5311e-07
3.71519e-07
1.72333e-07
-4.66748e-06
2.89294e-06
-7.49532e-08
-5.91129e-07
-2.22686e-06
-9.01114e-06
2.4395e-06
-2.38264e-06
8.95429e-06
-1.81667e-05
-1.69996e-06
1.28438e-06
1.85823e-05
-1.55331e-06
1.18472e-07
-1.44676e-05
-1.72547e-07
2.92511e-07
1.57825e-05
1.39966e-06
-1.93218e-05
-1.27417e-08
5.46354e-07
-1.60541e-06
1.89939e-05
-5.46346e-05
1.09081e-06
7.11267e-07
-7.83333e-07
5.38084e-05
-1.92595e-07
-3.3639e-06
4.00384e-06
-4.29132e-05
-3.49248e-06
4.52938e-06
4.12363e-05
1.87398e-06
1.02287e-05
0.000145668
1.10134e-06
-9.5873e-08
1.29452e-06
1.00912e-06
3.20163e-06
3.58884e-06
3.4037e-06
5.02467e-06
3.20119e-06
-3.80439e-06
0.000103156
1.70372e-06
1.0988e-06
1.76182e-06
1.33917e-06
-1.60503e-06
-9.23989e-06
0.000170194
4.25052e-07
-1.49899e-07
1.77935e-06
5.34081e-07
2.85797e-07
-1.26873e-06
4.42012e-07
-5.64574e-05
1.92131e-06
-3.98766e-06
5.69187e-05
-6.76235e-06
-4.21944e-06
3.61138e-06
7.3704e-06
6.80408e-07
-1.90891e-05
-5.194e-06
-2.68909e-06
5.10092e-06
2.11908e-05
-4.75929e-06
7.28197e-06
6.85181e-05
2.56172e-06
2.52327e-06
2.26157e-06
1.89857e-06
-1.01863e-05
1.26215e-06
0.000108215
-3.49899e-06
-2.04739e-06
0.000147905
-3.87705e-06
-3.53295e-06
-2.05003e-06
-1.17585e-06
-1.95623e-06
-7.42141e-07
-3.03391e-05
2.08165e-06
4.35514e-08
-3.62484e-06
2.83398e-05
-7.44209e-06
-6.25613e-06
1.86033e-06
7.52538e-06
9.72417e-06
-5.41166e-06
-5.30453e-06
1.90403e-06
2.22319e-05
1.04397e-06
-2.2211e-06
2.53214e-07
-2.3949e-06
4.59192e-07
1.93639e-06
4.68595e-07
-5.25021e-06
6.72135e-07
3.69558e-05
-4.70884e-07
-2.42908e-06
-4.54995e-07
7.70282e-07
2.16259e-07
4.2369e-07
-1.38882e-05
-5.28589e-06
-7.19393e-07
1.25959e-05
-5.4695e-06
2.92527e-06
5.51219e-07
1.99301e-06
-6.63586e-07
-4.087e-06
4.09571e-06
2.55891e-06
3.86504e-06
-1.41541e-06
8.34385e-07
-2.30404e-08
-2.58884e-06
1.8245e-06
4.48364e-07
-8.68075e-07
-1.40479e-06
-8.70895e-06
1.87769e-06
-1.60354e-06
8.4348e-06
-1.91106e-05
-1.04914e-06
7.96257e-07
1.93635e-05
-1.41581e-06
-8.88036e-07
-1.72646e-05
9.33033e-07
1.4426e-07
1.84911e-05
1.47229e-07
-1.88721e-05
-1.46832e-06
1.4059e-06
2.15884e-07
1.85714e-05
-5.33721e-05
4.41149e-07
5.88707e-07
1.23754e-07
5.24701e-05
-2.5162e-07
-1.70588e-06
3.39422e-06
-3.93556e-05
-3.55321e-06
3.78433e-06
3.74361e-05
7.52077e-06
1.26145e-05
0.000113177
7.33643e-07
-6.3309e-08
-1.05158e-07
-2.58753e-07
2.65812e-06
3.45788e-06
2.3682e-06
3.56498e-06
8.34719e-07
-4.12528e-06
0.000112934
4.84133e-07
5.83711e-08
-4.75556e-08
5.38329e-07
-1.98768e-06
-1.19173e-05
0.000184622
1.61416e-07
1.18095e-06
1.90357e-06
1.91379e-06
-1.23075e-06
-1.96125e-06
-1.65648e-06
-5.75677e-05
2.88911e-06
-4.9451e-06
5.7636e-05
-7.91299e-06
-4.18995e-06
3.66156e-06
8.44138e-06
3.03673e-07
-2.24465e-05
-5.89426e-06
-1.40341e-06
6.69375e-06
2.27467e-05
2.04411e-06
7.50143e-06
6.91743e-05
7.97117e-07
8.65778e-07
1.45526e-07
6.04338e-07
-3.61655e-06
1.18497e-06
0.000108565
-2.67014e-06
-2.54548e-06
0.000141915
-3.10199e-07
-1.78204e-06
-2.69482e-07
-3.21883e-07
-1.48362e-06
-1.61375e-07
-2.44187e-05
2.32826e-06
1.19902e-07
-1.06129e-06
2.03616e-05
-1.18303e-05
-6.63307e-06
2.89641e-06
8.3087e-06
1.39279e-05
-6.66972e-06
-2.96836e-06
2.13319e-06
3.35005e-05
-2.3452e-07
-2.70162e-06
-3.10126e-07
-2.64597e-06
4.66441e-07
2.12092e-06
3.72966e-07
-1.16022e-06
2.77642e-07
3.63526e-05
-1.87638e-07
-4.0481e-07
-2.92094e-07
5.31164e-07
-3.38787e-08
8.96295e-08
-1.24514e-05
-1.96728e-06
-1.05517e-06
1.17681e-05
-3.32728e-07
-5.35891e-07
1.11887e-06
-2.50247e-07
-4.46145e-06
-4.69845e-06
5.13091e-06
6.16218e-06
1.47304e-06
-2.16356e-06
1.13499e-06
-1.7452e-07
7.68639e-09
1.15495e-06
5.09748e-07
-8.01641e-07
-8.63058e-07
-8.33133e-06
7.00771e-07
-5.86963e-07
8.21753e-06
-1.93361e-05
-1.84787e-07
3.99754e-07
1.91211e-05
-1.06991e-06
-1.81432e-06
-1.8728e-05
2.19513e-06
1.49109e-06
1.7926e-05
-9.91265e-08
-1.78066e-05
-3.10555e-06
1.99302e-06
1.7646e-06
1.72536e-05
-5.22717e-05
-8.33448e-07
9.64674e-07
8.80595e-07
5.1976e-05
-7.16062e-07
-5.24671e-07
3.39638e-06
-3.48509e-05
-2.57383e-06
3.34018e-06
3.12129e-05
6.13122e-06
1.2399e-05
9.90543e-05
-1.14709e-06
-1.63737e-06
-1.52161e-06
-1.25177e-06
8.23983e-07
6.71656e-07
-3.95146e-07
4.95937e-08
-3.96066e-07
-3.99048e-06
0.000125089
-9.2467e-07
-7.22596e-07
-4.79726e-07
4.89839e-07
-1.97925e-06
-1.60442e-05
0.000199109
9.51856e-07
2.8041e-06
2.66657e-06
3.64862e-06
-2.36403e-06
-2.12515e-06
-2.4415e-06
-5.77898e-05
3.9843e-06
-5.62988e-06
5.74561e-05
-8.92589e-06
-3.97658e-06
3.61897e-06
9.28351e-06
-4.44822e-07
-2.20615e-05
-5.71732e-06
6.77316e-07
6.89683e-06
2.06495e-05
2.55623e-06
6.93882e-06
7.2448e-05
-7.46496e-07
1.24422e-07
-3.51503e-07
6.0376e-07
2.11708e-06
1.27279e-06
0.000103741
4.58752e-07
-1.15908e-06
0.000125352
1.02113e-06
1.05344e-06
4.16214e-07
1.80855e-07
5.35884e-07
1.28753e-07
-1.7283e-05
2.00791e-06
8.44042e-09
-6.30863e-07
1.63562e-05
-1.58527e-05
-6.45298e-06
3.0684e-06
8.50543e-06
1.75444e-05
-6.81253e-06
-4.59921e-06
2.20723e-06
4.56256e-05
-5.81651e-07
-2.77649e-06
-1.0796e-08
-2.59262e-06
4.23807e-07
2.30821e-06
4.35227e-07
-7.83529e-07
5.87308e-08
3.54903e-05
-5.09395e-07
-4.26657e-07
-7.35239e-07
2.02423e-07
-1.248e-07
-1.45621e-07
-1.22255e-05
-1.44043e-06
3.96734e-07
1.13266e-05
6.28279e-07
-1.63409e-06
1.78154e-06
-7.75735e-07
-8.05653e-06
-5.11527e-06
5.5888e-06
9.79023e-06
-1.34377e-06
-2.35902e-06
8.9681e-07
-1.97451e-07
3.06216e-06
6.70568e-07
-2.34295e-07
-1.53308e-07
-2.82965e-07
-7.87393e-06
-5.61107e-07
1.05531e-06
7.37973e-06
-1.85814e-05
8.47257e-07
-2.48082e-07
1.79822e-05
-7.58182e-08
-1.97354e-06
-1.67242e-05
1.38171e-06
1.46936e-06
1.59225e-05
-8.04585e-07
-1.71049e-05
-1.94999e-06
9.51775e-07
1.57235e-06
1.73354e-05
-5.24519e-05
-2.1856e-06
-1.68839e-07
1.56912e-06
5.30879e-05
1.49346e-07
-2.67602e-07
1.52894e-06
-2.72103e-05
-4.30704e-07
2.35655e-06
2.40231e-05
-4.044e-06
9.86379e-06
9.46269e-05
-1.35243e-06
-1.11864e-06
-1.046e-06
-3.27437e-07
2.92486e-07
-1.2166e-07
1.18606e-06
1.09522e-06
-1.54545e-06
-2.54941e-06
0.000125715
-9.66345e-07
-3.9192e-07
-6.3379e-08
8.4697e-07
-1.54663e-06
-1.3342e-05
0.00020196
8.2128e-07
3.8722e-06
2.23933e-06
4.54224e-06
-7.55562e-07
-1.1366e-06
9.09815e-07
-5.66689e-05
4.53439e-06
-5.71056e-06
5.62985e-05
-9.4101e-06
-3.36523e-06
3.48151e-06
9.29382e-06
-1.14755e-06
-1.91679e-05
-4.12686e-06
3.5846e-07
5.43535e-06
1.86485e-05
-5.0386e-06
5.64281e-06
7.48752e-05
6.95695e-07
1.33445e-06
2.21578e-06
2.58648e-06
1.99702e-06
3.18779e-06
9.09686e-05
2.39138e-06
2.6833e-06
9.76111e-05
1.48704e-06
2.14204e-06
7.41298e-07
1.55035e-06
3.80803e-06
1.59276e-06
-1.43715e-05
2.33223e-06
1.85759e-06
3.31438e-07
1.22416e-05
-1.93797e-05
-5.88163e-06
2.22162e-06
7.99451e-06
2.11048e-05
-6.05964e-06
-8.88806e-06
2.39535e-06
5.77469e-05
1.69541e-07
-2.51474e-06
1.23418e-06
-2.31497e-06
4.18829e-07
2.44244e-06
5.78919e-07
-1.43115e-06
-2.67426e-08
3.64929e-05
-1.46396e-06
-1.39137e-06
-1.79646e-06
-7.15126e-08
-1.55074e-07
-3.66578e-07
-1.10871e-05
-9.0005e-07
3.49859e-06
9.74076e-06
7.05873e-07
-1.94564e-06
1.58607e-06
-3.46301e-07
-1.1793e-05
-5.32034e-06
5.95927e-06
1.35494e-05
-4.76164e-06
-2.57504e-06
5.95421e-07
-1.69312e-07
6.88384e-06
-2.16066e-07
-1.59793e-06
7.19858e-07
1.09414e-06
-6.78712e-06
-8.00058e-07
1.3285e-06
6.25868e-06
-1.76445e-05
2.03191e-07
-3.10452e-07
1.77518e-05
8.4493e-07
1.65405e-06
-1.58827e-05
-3.16083e-06
6.11513e-08
1.64834e-05
-6.62731e-07
-1.75065e-05
2.98721e-06
-2.57318e-06
1.18045e-07
1.76372e-05
-5.35192e-05
-1.48793e-06
-1.61198e-06
1.71507e-06
5.30441e-05
1.85994e-06
-2.29374e-07
1.66985e-06
-2.20156e-05
-2.59807e-06
1.81985e-06
2.13534e-05
-2.1068e-05
6.49003e-06
9.00593e-05
-3.09586e-07
8.28204e-08
-1.80733e-08
7.83498e-07
4.09854e-06
3.62088e-06
5.30204e-06
5.58533e-06
-4.02814e-06
3.23055e-06
0.00010653
-4.18127e-07
-1.26541e-06
8.58772e-07
-2.60772e-07
4.68068e-08
1.39844e-06
0.000181253
-4.04334e-07
3.71824e-06
1.6147e-07
3.69409e-06
3.65477e-06
-1.57488e-07
4.56629e-06
-5.60256e-05
4.08097e-06
-4.01789e-06
5.60093e-05
-9.04881e-06
-2.41703e-06
2.50277e-06
8.96307e-06
4.7337e-07
-1.89786e-05
-2.90397e-06
-2.494e-06
3.94985e-06
1.99533e-05
-2.03634e-05
5.57416e-06
7.82209e-05
3.94248e-06
3.67139e-06
5.33995e-06
4.97976e-06
-9.88753e-06
7.0014e-06
7.67218e-05
1.65993e-06
5.49159e-06
6.8075e-05
3.95539e-07
6.95943e-07
-1.32681e-07
3.75101e-06
5.6996e-06
3.48604e-06
-9.51259e-06
1.51728e-06
7.47253e-07
1.11041e-06
7.79757e-06
-2.29067e-05
-4.91356e-06
9.29597e-07
7.48532e-06
2.45669e-05
-5.16158e-06
-1.18228e-05
2.52218e-06
6.93322e-05
1.32847e-06
-2.19732e-06
2.31948e-06
-2.02467e-06
4.83229e-07