/*--------------------------------*- C++ -*----------------------------------*\
| =========                 |                                                 |
| \\      /  F ield         | OpenFOAM: The Open Source CFD Toolbox           |
|  \\    /   O peration     | Version:  5.x                                   |
|   \\  /    A nd           | Web:      www.OpenFOAM.org                      |
|    \\/     M anipulation  |                                                 |
\*---------------------------------------------------------------------------*/
FoamFile
{
    version     2.0;
    format      ascii;
    class       volScalarField;
    location    "10";
    object      p;
}
// * * * * * * * * * * * * * * * * * * * * * * * * * * * * * * * * * * * * * //

dimensions      [0 2 -2 0 0 0 0];

internalField   nonuniform List<scalar> 
10571
(
169.812
229.708
230.134
174.679
164.353
198.927
213.41
204.773
191.874
215.115
194.448
194.402
205.667
211.036
205.444
213.217
196.687
199.841
205.758
207.511
214.687
199.849
201.447
218.429
170.185
141.382
148.705
163.114
159.663
183.523
138.347
149.558
155.827
150.424
192.6
189.526
171.928
187.841
186.349
187.351
195.71
194.393
197.437
193.98
184.707
197.849
193.497
187.39
80.8774
17.5752
56.2784
58.9644
152.42
80.0132
31.8693
38.0129
115.137
131.492
167.693
176.13
40.7209
42.5942
85.5611
122.593
181.698
97.83
143.424
118.487
96.0795
85.2986
152.953
127.137
12.409
15.5305
14.5782
12.871
17.5025
11.3271
14.0932
11.0318
42.3644
107.559
95.1595
130.628
10.1742
15.259
18.4942
48.883
83.1309
13.9839
16.2399
19.4696
15.3223
13.537
21.7084
16.2556
14.1277
14.2043
14.0337
14.0558
13.7109
13.4146
14.8001
12.7629
12.6073
16.9643
13.8423
13.7679
13.9279
14.5651
13.1726
13.5777
12.3545
12.486
12.6481
13.7454
14.3245
14.5349
13.8915
14.0459
13.8814
13.9657
13.9082
13.7896
13.4992
13.5833
14.3537
13.5777
13.0589
13.5638
13.6137
13.6138
13.6827
14.1417
14.2833
13.5827
13.5368
13.5816
13.4291
13.881
13.872
13.6936
13.7231
13.8412
13.6317
13.7396
13.804
13.8706
13.8488
13.6138
13.5942
13.5577
13.8551
13.4856
13.4046
13.5305
13.5803
13.6249
13.6064
13.8813
13.8916
13.558
13.5713
13.5933
13.5486
13.5655
13.6779
13.5596
13.6616
13.5998
13.7527
13.6361
13.665
13.8068
13.7166
13.7545
13.7615
13.7343
13.4405
13.5646
13.4379
13.3951
13.5287
13.5357
13.7009
13.6569
13.739
13.74
13.5575
13.5981
13.5881
13.6179
13.4086
13.6854
13.5826
13.6216
13.5976
13.5651
13.6319
13.6456
13.708
13.5144
13.5673
13.7136
13.8539
13.4122
13.4522
13.5915
13.4317
13.5737
13.5395
13.6349
13.5882
13.6116
13.7623
13.6135
13.6223
13.6291
13.5944
13.4292
13.72
13.5685
13.6038
13.5251
13.6254
13.6316
13.569
13.4065
13.4798
13.5257
13.6113
13.4459
13.3933
13.6724
13.4171
13.3946
13.5842
13.5485
13.5169
13.7167
13.6007
13.6701
13.5511
13.4338
13.6621
13.5291
13.5779
13.507
13.6418
13.6219
13.4888
13.3757
13.434
13.4449
13.5131
13.4599
13.3657
13.6128
13.3837
13.3756
13.5332
13.52
13.4677
13.6154
13.5665
13.5461
13.5198
13.3959
13.5829
13.5142
13.5869
13.467
13.6
13.5736
13.436
13.4654
13.4405
13.3868
13.4112
13.4863
13.3686
13.5566
13.3492
13.365
13.5352
13.5102
13.4394
13.5408
13.5363
13.5889
13.5129
13.349
13.547
13.5258
13.5758
13.3819
13.5233
13.5269
13.4164
13.5389
13.4709
13.3305
13.3535
13.5273
13.4099
13.4824
13.3419
13.3193
13.5692
13.5311
13.4743
13.4961
13.4922
13.5457
13.5338
13.4083
13.5156
13.5216
13.5481
13.372
13.4868
13.5078
13.4247
13.6008
13.5104
13.3168
13.3834
13.5967
13.4917
13.4044
13.3506
13.3631
13.5843
13.5878
13.5847
13.4711
13.4469
13.4455
13.5792
13.6529
13.4846
13.4805
13.4998
13.5085
13.5053
13.5006
13.4511
13.6574
13.5413
13.3372
13.4676
13.6649
13.5566
13.3648
13.4032
13.4566
13.6389
13.6349
13.6316
13.4634
13.385
13.3197
13.6462
13.8072
13.4663
13.4362
13.4312
13.6594
13.5669
13.5003
13.4825
13.6726
13.5415
13.3677
13.5644
13.6789
13.5736
13.398
13.4825
13.6028
13.6751
13.6527
13.613
13.447
13.3869
13.346
13.6806
13.7487
13.4874
13.4111
13.429
13.7169
13.6456
13.5203
13.5135
13.6455
13.5186
13.4127
13.6295
13.6377
13.5298
13.4819
13.6087
13.7091
13.6694
13.6266
13.5599
13.4871
13.5131
13.516
13.6454
13.5946
13.5194
13.4783
13.5138
13.6289
13.6626
13.5795
13.5609
13.6158
13.5104
13.4832
13.6867
13.5935
13.4347
13.5745
13.7995
13.7916
13.6082
13.568
13.4647
13.5539
13.6576
13.6398
13.5346
13.4045
13.543
13.5905
13.6119
13.4768
13.5952
13.6238
13.6453
13.6475
13.5432
13.5771
13.746
13.6
13.3715
13.6219
13.9115
13.8015
13.5923
13.5346
13.3948
13.5757
13.7265
13.7198
13.4266
13.284
13.5531
13.6573
13.6977
13.4119
13.5078
13.6311
13.766
13.7777
13.6452
13.6932
13.7918
13.6695
13.4164
13.6805
13.8798
13.8263
13.6426
13.5765
13.4098
13.6364
13.7583
13.7916
13.4389
13.3114
13.6134
13.7109
13.7739
13.4628
13.4885
13.6496
13.8381
13.889
13.8172
13.7857
13.8209
13.7913
13.5864
13.7456
13.8413
13.8496
13.7436
13.6951
13.526
13.7101
13.7869
13.8292
13.5811
13.512
13.6906
13.77
13.822
13.6321
13.5734
13.7171
13.847
13.9021
13.8711
13.8171
13.838
13.8718
13.7359
13.7909
13.8294
13.855
13.7771
13.7786
13.6956
13.7749
13.8138
13.8477
13.7909
13.7314
13.768
13.8149
13.8486
13.7951
13.7071
13.7973
13.8439
13.895
13.8604
13.8248
13.8346
13.8874
13.8009
13.8127
13.8123
13.8449
13.8802
13.9046
13.8368
13.8225
13.8304
13.848
13.9016
13.8199
13.7984
13.8299
13.8567
13.8722
13.7769
13.8468
13.8371
13.8894
13.8477
13.8232
13.8212
13.887
13.817
13.8034
13.7875
13.8118
13.8935
13.9091
13.8806
13.8327
13.8305
13.8399
13.895
13.8185
13.7915
13.8285
13.8512
13.8625
13.7891
13.8552
13.8287
13.8694
13.8287
13.8174
13.7989
13.8588
13.8092
13.8023
13.7779
13.7816
13.9081
13.8955
13.8505
13.8292
13.8242
13.8315
13.8856
13.779
13.7796
13.8228
13.8418
13.8096
13.7835
13.8449
13.8299
13.8392
13.8087
13.814
13.7929
13.8335
13.7985
13.8097
13.7823
13.7865
13.8546
13.8495
13.8125
13.8245
13.8213
13.8256
13.8465
13.7514
13.7656
13.8181
13.8357
13.7574
13.7794
13.8332
13.8361
13.8271
13.8039
13.8104
13.806
13.8084
13.7905
13.8137
13.8088
13.8187
13.8044
13.7964
13.7879
13.8211
13.8209
13.829
13.7654
13.7262
13.7586
13.818
13.8352
13.7017
13.7805
13.8252
13.8373
13.8291
13.8155
13.8077
13.8258
13.7912
13.7821
13.8157
13.8331
13.817
13.7659
13.7584
13.7813
13.8249
13.8235
13.8378
13.6878
13.7026
13.7753
13.8226
13.838
13.6989
13.7923
13.8316
13.8447
13.8349
13.838
13.8079
13.8406
13.7884
13.778
13.8254
13.8523
13.8236
13.7381
13.7442
13.7824
13.8233
13.8357
13.8453
13.6416
13.7134
13.7977
13.8373
13.842
13.7428
13.7985
13.8259
13.8719
13.8322
13.8408
13.8442
13.8595
13.7931
13.7775
13.833
13.848
13.817
13.7655
13.7587
13.7911
13.8214
13.8435
13.8433
13.7099
13.726
13.8079
13.8483
13.8434
13.7786
13.8091
13.8367
13.884
13.8251
13.8295
13.8646
13.8767
13.797
13.7736
13.8273
13.8319
13.8403
13.8
13.7899
13.7995
13.8123
13.8295
13.8386
13.8465
13.7861
13.8033
13.8375
13.8397
13.8692
13.8198
13.8348
13.8537
13.8155
13.8092
13.8307
13.8557
13.7943
13.7685
13.8062
13.8139
13.8351
13.8093
13.7968
13.7939
13.7864
13.8079
13.8229
13.8642
13.7762
13.7805
13.8144
13.8235
13.804
13.8105
13.8189
13.7931
13.8052
13.7872
13.7722
13.8099
13.7878
13.7604
13.7781
13.7955
13.8175
13.8031
13.7907
13.7774
13.7667
13.7919
13.8041
13.8256
13.7514
13.7531
13.7923
13.8066
13.7567
13.7757
13.7967
13.7282
13.7929
13.7691
13.7336
13.759
13.7778
13.7572
13.7599
13.7785
13.8027
13.7922
13.7809
13.7673
13.7547
13.7827
13.7887
13.7968
13.7493
13.7467
13.7795
13.7931
13.7421
13.7683
13.7805
13.7288
13.7792
13.7621
13.733
13.757
13.7634
13.7501
13.758
13.768
13.79
13.7798
13.7683
13.7634
13.7425
13.7741
13.777
13.7802
13.758
13.7503
13.7748
13.7836
13.7513
13.7711
13.7781
13.7754
13.764
13.7555
13.7655
13.7768
13.7453
13.74
13.7612
13.7524
13.7774
13.7648
13.7539
13.763
13.7357
13.762
13.7682
13.7681
13.7633
13.7615
13.7686
13.7737
13.7733
13.787
13.7835
13.7672
13.7438
13.7385
13.7639
13.7735
13.7242
13.7291
13.7538
13.738
13.7624
13.7462
13.7351
13.7474
13.7374
13.7475
13.759
13.7541
13.7737
13.7853
13.7611
13.7609
13.8102
13.8092
13.7926
13.7251
13.716
13.7082
13.7369
13.751
13.6962
13.7024
13.7328
13.7203
13.7409
13.7236
13.7131
13.7213
13.7503
13.7244
13.7433
13.7333
13.7639
13.7987
13.7539
13.7412
13.8063
13.8604
13.7985
13.669
13.6773
13.66
13.6864
13.7138
13.6603
13.6661
13.7009
13.6906
13.7149
13.696
13.6876
13.6964
13.74
13.6934
13.7218
13.7062
13.7198
13.7623
13.7245
13.7168
13.7594
13.817
13.7617
13.59
13.6266
13.5893
13.6011
13.6593
13.6189
13.6204
13.6469
13.6662
13.6906
13.6639
13.656
13.6593
13.6932
13.6629
13.6967
13.6739
13.6708
13.6823
13.6764
13.685
13.6872
13.6668
13.6755
13.5045
13.5676
13.4864
13.4891
13.5834
13.5717
13.5666
13.5705
13.6462
13.6646
13.629
13.619
13.6136
13.6256
13.6272
13.6651
13.638
13.6293
13.6121
13.6332
13.6443
13.6117
13.5086
13.5893
13.4141
13.5053
13.3359
13.3647
13.5194
13.5256
13.5086
13.4798
13.619
13.6307
13.5971
13.5832
13.5726
13.5629
13.5866
13.6264
13.6055
13.5959
13.5594
13.6199
13.6085
13.5553
13.3705
13.5345
13.3748
13.4612
13.216
13.2658
13.4974
13.4942
13.4518
13.3955
13.5854
13.5933
13.5729
13.557
13.5471
13.5228
13.5508
13.5861
13.5835
13.577
13.4977
13.6057
13.5708
13.5507
13.3872
13.5334
13.3978
13.4634
13.2231
13.2455
13.5004
13.4854
13.4173
13.3348
13.5626
13.564
13.5614
13.5455
13.5364
13.5071
13.5393
13.5584
13.5757
13.5811
13.48
13.5899
13.5455
13.5855
13.559
13.6059
13.453
13.5116
13.3218
13.2755
13.5046
13.4999
13.4146
13.295
13.5289
13.5457
13.5629
13.5493
13.5341
13.5004
13.5263
13.5481
13.5806
13.5973
13.5625
13.6134
13.5555
13.621
13.6971
13.7517
13.5137
13.5809
13.4467
13.3298
13.512
13.532
13.4427
13.2835
13.4802
13.5309
13.5768
13.5624
13.5413
13.4811
13.4966
13.5509
13.5935
13.6061
13.604
13.6586
13.6074
13.6317
13.7095
13.8821
13.584
13.6465
13.5621
13.4107
13.5209
13.5755
13.4936
13.3001
13.4264
13.514
13.5993
13.5833
13.5566
13.4784
13.4704
13.5436
13.6108
13.6094
13.6349
13.5516
13.6134
13.6279
13.6591
13.6849
13.641
13.6973
13.641
13.5042
13.5422
13.621
13.5571
13.3372
13.3787
13.5007
13.6275
13.6099
13.5754
13.4937
13.4327
13.5482
13.6307
13.6204
13.6496
13.501
13.6498
13.6241
13.6314
13.6378
13.7076
13.7329
13.6866
13.5858
13.5773
13.6616
13.6105
13.41
13.3599
13.5041
13.6589
13.6411
13.5965
13.5184
13.2974
13.4829
13.6533
13.6309
13.5946
13.4301
13.474
13.6237
13.6117
13.5773
13.7527
13.7575
13.7253
13.6763
13.6255
13.6966
13.6537
13.4862
13.4012
13.5193
13.6941
13.6755
13.6246
13.5502
13.2737
13.4072
13.6789
13.6458
13.5582
13.3666
13.2431
13.6355
13.6053
13.5261
13.8116
13.7761
13.7526
13.7566
13.6599
13.728
13.6878
13.5865
13.4821
13.5439
13.7314
13.7136
13.6695
13.5897
13.3144
13.3865
13.708
13.6751
13.5954
13.4653
13.327
13.6661
13.6307
13.5572
13.8075
13.793
13.7722
13.7568
13.6697
13.7585
13.7349
13.6606
13.5934
13.6132
13.768
13.7532
13.715
13.64
13.5413
13.5593
13.7413
13.712
13.6653
13.6042
13.6171
13.7044
13.6759
13.6351
13.8222
13.814
13.802
13.7618
13.6828
13.7878
13.7807
13.6826
13.7519
13.7109
13.8011
13.7896
13.756
13.7026
13.7206
13.7056
13.7754
13.7426
13.724
13.7237
13.7643
13.7381
13.7223
13.7136
13.8488
13.8357
13.8359
13.7953
13.716
13.8171
13.8155
13.7287
13.8521
13.7921
13.8322
13.8196
13.7834
13.7572
13.801
13.7541
13.808
13.7719
13.7644
13.7934
13.7712
13.77
13.7603
13.7699
13.867
13.854
13.8581
13.8242
13.8019
13.8441
13.8413
13.7801
13.9128
13.8748
13.8637
13.8477
13.8054
13.7828
13.8567
13.9455
13.8357
13.8071
13.7964
13.8389
13.8661
13.8009
13.7897
13.807
13.8587
13.8664
13.86
13.8211
13.8328
13.8632
13.8479
13.7843
13.8746
13.9376
13.8961
13.8782
13.8132
13.7697
13.8375
13.9395
13.8631
13.8371
13.8162
13.8472
13.8816
13.8276
13.8115
13.8234
13.82
13.8741
13.8407
13.78
13.7788
13.883
13.8465
13.7567
13.7872
13.853
13.9221
13.9033
13.8344
13.7486
13.7745
13.8536
13.8951
13.8672
13.8164
13.819
13.8327
13.8493
13.8251
13.8216
13.7685
13.8806
13.8197
13.7415
13.6942
13.9076
13.8412
13.7198
13.6753
13.7181
13.9641
13.952
13.8518
13.7427
13.7068
13.7432
13.9248
13.8664
13.8015
13.7816
13.7687
13.8649
13.8247
13.8091
13.7471
13.8837
13.8089
13.7215
13.6176
13.9146
13.8287
13.6728
13.5482
13.5799
14.0182
13.9746
13.8505
13.7315
13.6248
13.6243
13.9672
13.8539
13.778
13.7326
13.6969
13.885
13.8207
13.7957
13.7328
13.8908
13.8175
13.7059
13.5465
13.8976
13.8231
13.5999
13.3807
13.3716
14.0316
13.9916
13.8633
13.6874
13.51
13.4249
14.0069
13.8328
13.735
13.6713
13.5996
13.9163
13.8113
13.7769
13.7228
13.9239
13.8429
13.707
13.4523
13.9319
13.8199
13.5081
13.1177
12.9947
14.0608
14.0475
13.8722
13.6041
13.3176
12.9973
14.0667
13.8037
13.6881
13.5784
13.4432
13.9524
13.7966
13.7493
13.7232
13.9973
13.8754
13.6674
13.3294
14.0404
13.8173
13.3847
12.7565
12.0822
14.1109
14.1136
13.8484
13.4363
13.0074
11.8693
14.1207
13.7509
13.6189
13.4153
13.1304
13.9482
13.7614
13.7456
13.7406
14.1176
13.9281
13.6502
13.2222
14.2277
13.8073
13.243
12.3325
9.85726
14.1737
14.1652
13.7555
13.242
12.5325
9.98807
-10.2965
14.0915
13.6675
13.5788
13.201
12.4278
13.8115
13.6891
13.8125
13.7873
14.274
14.012
13.6654
13.1789
14.4116
13.7624
13.198
12.1013
8.63145
-0.026396
14.2144
14.1309
13.6002
13.181
12.2567
9.48904
0.607201
13.9284
13.5265
13.5998
13.0319
11.0774
13.5528
13.6363
13.7998
13.8598
14.3399
14.1173
13.7136
13.2708
14.291
13.7373
13.1782
12.416
10.0505
2.71305
14.1295
13.9907
13.3866
13.2537
12.469
9.50503
2.22095
13.6974
13.4313
13.6677
13.2237
11.2402
3.1167
13.467
13.6032
13.7705
13.9201
14.4405
14.2149
13.7753
13.4908
14.1719
13.6583
13.2229
12.9724
11.2472
4.07536
13.9216
13.7456
13.2848
13.3559
13.0272
10.5437
1.84951
13.5421
13.4624
13.6591
13.3652
11.8987
13.4268
13.6085
13.7434
13.908
14.4098
14.1228
13.7519
13.704
13.9526
13.4148
13.3083
13.399
13.2072
13.7773
13.6003
13.2925
13.4474
13.4108
12.0123
-2.69421
13.4928
13.498
13.6465
13.5948
13.2242
13.4586
13.6023
13.7406
13.7471
14.0522
13.832
13.5306
13.7138
13.7324
13.2611
13.3195
13.5376
14.0147
13.7104
13.5321
13.2542
13.4581
13.5737
13.3566
13.5441
13.5124
13.656
13.6792
13.7786
13.5729
13.6569
13.7673
13.5806
13.7837
13.5517
13.3814
13.6711
13.607
13.1962
13.2981
13.5814
13.9528
13.7075
13.5361
13.2755
13.4902
13.6412
13.7279
13.6251
13.5645
13.695
13.739
13.9497
13.6675
13.7255
13.811
13.4629
13.6258
13.4038
13.3163
13.6613
13.5803
13.2155
13.3243
13.6437
13.9642
13.7569
13.6029
13.3842
13.5528
13.6916
13.8176
13.7224
13.6557
13.7453
13.789
13.996
13.755
13.7981
13.854
13.4658
13.5938
13.3607
13.3343
13.7088
13.6345
13.3099
13.4066
13.7244
13.9847
13.8422
13.7123
13.5453
13.646
13.7634
13.8736
13.8341
13.7534
13.827
13.8637
14.0474
13.8572
13.8794
13.9289
13.523
13.6412
13.3843
13.3213
13.8107
13.7333
13.4632
13.5656
13.8656
14.0431
13.9474
13.84
13.6988
13.7634
13.8821
13.9691
13.9518
13.8591
13.9093
13.9552
14.1104
13.9621
13.9649
14.0201
13.5258
13.7412
13.4751
13.3147
13.9744
13.8567
13.6044
13.7273
14.0236
14.1848
14.0606
13.9603
13.8248
13.8842
14.0211
14.115
14.061
13.951
14.0239
14.0576
14.2042
14.0682
14.0528
14.1171
13.5841
13.8942
13.6534
13.5201
14.2112
13.9857
13.7713
13.7572
14.0779
14.4004
14.1674
14.0598
13.9107
13.8938
14.0651
14.289
14.1482
14.0223
14.0207
14.1275
14.281
14.1473
14.1344
14.1918
13.7478
13.9683
13.7953
13.7538
14.4154
14.0414
13.8642
13.869
14.1858
14.5691
14.2082
14.1048
13.9612
13.9648
14.1407
14.3908
14.1889
14.0596
14.0607
14.1576
14.3282
14.1665
14.1589
14.2133
292.461
185.617
259.672
200.504
176.111
178.295
176.989
174.782
223.758
286.71
318.874
251.968
269.361
314.506
273.465
262.039
252.27
204.02
195.481
217.966
202.516
193.435
200.705
217.329
240.766
252.735
208.479
205.536
202.125
210.207
225.061
204.471
216.25
225.535
224.384
214.369
217.505
212.601
206.133
212.84
208.437
206.989
246.78
204.194
213.599
262.3
231.348
220.061
210.948
203.719
201.303
199.928
206.609
198.122
200.448
210.862
213.864
206.188
210.512
212.833
211.062
211.461
210.019
209.158
215.545
210.31
221.149
219.9
217.843
219.741
199.834
199.32
199.867
200.255
200.542
203.588
207.065
202.989
204.922
209.345
208.611
207.63
214.259
217.403
228.712
252.058
236.642
222.75
201.984
205.314
207.046
211.394
214.491
246.899
219.721
258.45
228.022
185.006
173.049
198.756
174.758
173.679
181.044
171.87
169.168
166.719
171.596
170.934
167.89
164.278
165.862
202.284
195.194
241.361
206.362
219.171
187.433
189.903
191.659
197.437
162.009
171.15
165.924
163.678
163.001
161.789
158.697
187.671
158.298
199.842
195.405
197.514
196.715
197.398
197.685
211.6
209.914
174.701
201.596
207.695
196.141
195.865
197.163
197.624
198.138
211.341
214.435
210.059
208.393
210.291
196.287
198.275
197.77
197.274
198.199
197.571
197.493
197.529
198.39
214.96
211.585
217.653
204.944
209.15
200.253
207.17
209.802
198.499
199.469
201.081
199.583
201.472
203.186
202.665
205.427
199.924
202.08
199.756
200.994
201.135
141.003
91.4175
169.007
150.882
159.653
134.685
109.07
125.045
168.366
164.145
158.149
152.356
157.107
161.878
157.431
173.905
131.406
139.197
161.616
151.578
78.0679
80.4852
98.7173
74.1997
158.059
156.896
154.761
156.933
152.404
151.037
149.225
153.055
147.372
185.956
191.031
192.213
165.435
179.436
179.826
171.935
175.757
139.473
150.039
152.827
194.915
195.866
184.043
186.129
189.323
183.638
187.538
159.928
158.182
156.34
196.33
191.809
195.355
196.132
196.723
192.001
190.438
193.641
193.474
184.688
185.197
182.085
167.671
150.112
159.339
148.252
149.369
197.263
190.471
197.686
195.359
178.734
175.165
174.967
190.684
192.492
178.163
178.24
180.047
166.891
39.225
15.5498
78.259
64.8716
75.3887
21.8055
25.3643
23.7883
80.9433
128.32
17.0237
17.5192
25.634
150.44
70.8968
61.2611
16.5092
23.4719
24.0724
19.0919
14.5376
14.1737
13.8947
14.2763
148.519
143.4
142.106
99.2209
128.697
113.12
136.092
138.93
132.271
119.498
158.116
158.104
50.351
121.825
119.329
130.746
131.615
125.076
113.042
108.141
169.555
175.423
140.055
146.364
151.269
125.872
110.768
86.7594
92.0389
60.7926
179.58
148.023
177.74
179.139
171.743
152.136
146.101
117.369
95.5483
98.1291
114.238
97.0658
59.0212
37.4085
52.936
39.1832
41.9208
130.825
37.8933
100.905
98.0365
23.3907
29.9858
33.0984
151.269
149.305
99.4994
94.1071
71.7553
62.1988
14.6746
14.481
12.5496
13.9464
12.6775
14.4986
14.2793
14.5152
12.5401
9.81572
14.6719
14.8403
14.4672
11.5682
12.7007
14.4542
14.7465
15.1279
15.4342
15.9539
14.7644
14.6279
15.1644
15.1408
37.684
41.7046
105.797
11.7065
12.7825
13.1723
22.6285
111.951
37.5173
14.9327
68.4843
55.7609
12.4506
21.1446
15.3254
79.6731
74.4106
59.7803
42.8681
39.0439
104.965
104.663
37.357
40.5958
39.8085
56.0752
19.236
19.1015
26.1847
13.6051
88.6432
26.7887
74.2079
34.1741
19.5123
16.6107
13.6252
13.0768
11.5884
14.7007
16.3163
14.7596
13.3377
13.6458
13.4094
13.9078
13.706
14.3621
13.1591
13.2197
14.6352
14.5224
13.858
14.2706
23.1031
19.1197
12.7709
12.8917
13.4466
13.1558
14.2757
14.1196
13.8228
14.1023
13.7697
13.9014
13.9973
13.9131
14.1963
14.6832
13.9325
13.9335
14.0558
14.1831
13.8962
14.3251
14.059
14.3311
14.409
14.4853
14.0264
14.0673
13.9961
14.1867
13.5212
12.3262
11.9701
13.5805
14.0156
13.0842
13.7271
12.9513
13.3295
13.4861
13.1637
13.0941
13.7276
13.4663
13.4315
17.8616
16.686
12.7913
13.6785
13.0591
13.8819
14.1946
13.2701
13.216
13.1877
15.0191
14.0291
13.4706
13.234
13.7517
13.0373
13.2466
12.4297
12.7951
12.4784
13.3427
13.2763
13.3962
13.0073
14.1626
13.9668
14.1758
13.7534
13.9206
13.7905
13.8642
13.9371
13.4929
13.4536
13.9789
14.0587
14.0801
13.7728
13.7194
13.9881
14.1011
13.7138
13.8154
13.6425
13.8328
14.033
14.003
13.8834
13.9611
13.8704
13.8153
13.9258
13.8104
13.8254
13.7992
13.8313
13.7683
13.7763
13.6027
13.5747
13.9633
13.918
13.9723
13.8993
14.1134
13.9065
14.0208
13.8993
14.0499
13.8639
13.1668
13.8348
13.4986
13.7893
13.2499
13.6675
13.6779
13.4996
13.8759
13.677
13.5951
13.9246
13.6369
13.5987
13.5352
13.5526
13.7776
13.4886
13.4763
13.5091
13.5039
13.6227
13.5895
13.5814
13.5715
13.656
13.5561
13.5564
13.597
13.5786
13.6113
13.5861
13.5659
13.7567
13.6874
13.5862
13.5381
13.529
13.6407
13.5247
13.6137
13.6214
13.6505
13.5862
13.633
13.6014
13.6095
13.5533
13.5501
13.3952
13.5077
13.3271
13.4743
13.4498
13.5194
13.4985
13.7792
13.7428
13.7868
13.6182
13.7114
13.6964
13.7306
13.6884
13.4463
13.5458
13.789
13.6657
13.8525
13.8596
13.7473
13.7647
13.5737
13.6521
13.7375
13.6045
13.7003
13.9733
13.8822
13.7859
13.8918
13.7524
13.7716
13.8386
13.7257
13.7726
13.7658
13.809
13.8068
13.8012
13.7246
13.8914
13.8471
13.7462
14.0209
13.8698
13.936
13.8029
13.9104
13.7781
13.8111
13.7366
13.4044
13.6739
13.6735
13.6858
13.5396
13.6876
13.6037
13.4303
13.6507
13.5668
13.6113
13.6337
13.5964
13.6249
13.8408
13.6532
13.6028
13.7187
13.7079
13.6542
13.5518
13.5324
13.5817
13.52
13.5583
13.5169
13.5488
13.5988
13.564
13.566
13.5323
13.5837
13.5183
13.5621
13.5969
13.5836
13.6776
13.6576
13.6369
13.6317
13.6136
13.5709
13.5809
13.5576
13.5899
13.5602
13.5816
13.6042
13.594
13.5679
13.5847
13.5759
13.5908
13.576
13.6279
13.5321
13.519
13.5428
13.6039
13.6092
13.5313
13.5021
13.6331
13.6585
13.6758
13.5541
13.605
13.6422
13.6439
13.5714
13.6258
13.5881
13.5931
13.583
13.5902
13.6157
13.6175
13.7912
13.7199
13.6298
13.6655
13.63
13.7007
13.642
13.6199
13.68
13.6489
13.652
13.7563
13.6333
13.6997
13.7393
13.6773
13.6282
13.6437
13.6228
13.82
13.8872
13.7709
13.7946
13.9372
13.955
14.0848
13.6835
13.606
13.7484
13.6817
13.698
13.6128
13.6179
13.5978
13.6051
13.6672
13.6312
13.6599
13.8526
13.6894
13.6739
13.6137
13.6383
13.5787
13.598
13.5965
13.5869
13.6185
13.5836
13.627
13.6712
13.7125
13.6668
13.6029
13.6582
13.631
13.5843
13.5294
13.5586
13.5229
13.5919
13.5413
13.5876
13.5982
13.5162
13.5743
13.5364
13.6063
13.526
13.5921
13.6811
13.6575
13.6746
13.6582
13.6433
13.5974
13.6073
13.6168
13.6077
13.6215
13.5844
13.6249
13.5995
13.5971
13.6055
13.5971
13.6145
13.5998
13.6153
13.6346
13.6175
13.6233
13.5226
13.4621
13.6087
13.6039
13.5041
13.4361
13.6083
13.6316
13.6229
13.5864
13.6085
13.6291
13.618
13.6074
13.605
13.6267
13.6008
13.6044
13.608
13.568
13.5299
13.5732
13.5777
13.5334
13.522
13.5491
13.6903
13.672
13.6323
13.6995
13.6824
13.6421
13.5477
13.4965
13.5927
13.5947
13.574
13.5631
13.5586
13.5385
13.7206
13.8523
13.6324
13.6252
13.7048
14.0767
13.8347
13.5304
13.4977
13.5047
13.5232
13.5354
13.4499
13.4403
13.4667
13.5109
13.6525
13.6152
13.5464
13.7083
13.5934
13.5645
13.4851
13.5658
13.5686
13.5343
13.5938
13.5966
13.5238
13.5753
13.5814
13.6948
13.5628
13.6536
13.5164
13.6308
13.5598
13.6837
13.6338
13.5715
13.6197
13.5941
13.6396
13.6393
13.6352
13.6306
13.6205
13.6165
13.602
13.5941
13.706
13.644
13.6947
13.6357
13.7686
13.5961
13.7132
13.6389
13.6188
13.6279
13.681
13.6575
13.6491
13.6392
13.6033
13.5819
13.5704
13.5015
13.4178
13.5729
13.5345
13.4957
13.3942
13.5991
13.6241
13.6146
13.5486
13.5922
13.6187
13.6036
13.5726
13.4893
13.4657
13.514
13.548
13.5154
13.5066
13.5478
13.709
13.6758
13.6347
13.6968
13.6745
13.6274
13.4672
13.45
13.5329
13.5195
13.5018
13.5069
13.4898
13.4835
13.5614
13.6211
13.5244
13.5172
13.5774
13.6691
13.5886
13.465
13.4597
13.4187
13.4208
13.4915
13.3706
13.3962
13.4012
13.4684
13.5336
13.5693
13.4414
13.5575
13.4942
13.5953
13.4364
13.5618
13.5729
13.5162
13.5481
13.5569
13.5138
13.5216
13.5183
13.614
13.9783
13.3623
13.5351
13.2482
13.5644
13.5702
13.5341
13.541
13.557
13.9771
13.5615
13.5667
13.3262
13.5889
13.5588
13.5464
13.5031
13.4767
13.3691
13.5332
13.4779
13.4617
13.351
13.6023
13.6019
13.6032
13.5191
13.5951
13.5782
13.6039
13.5936
13.4544
13.4419
13.4929
13.5258
13.4924
13.4878
13.5276
13.6795
13.6577
13.6349
13.6634
13.644
13.6027
13.4481
13.456
13.4909
13.4769
13.4683
13.4779
13.4691
13.454
13.479
13.5464
13.4616
13.4475
13.5158
13.5392
13.4978
13.4642
13.4819
13.3935
13.4156
13.4593
13.4164
13.4094
13.4488
13.4626
13.4524
13.5949
13.4306
13.4603
13.3867
13.5004
13.361
13.5187
13.4177
13.5138
13.5189
13.5126
13.5153
13.5234
13.5244
13.5003
13.4479
13.3765
13.517
13.5466
13.5356
13.5453
13.5487
13.5358
13.5364
13.5121
13.6066
13.5813
13.5844
13.6183
13.5314
13.5193
13.4645
13.457
13.3458
13.5123
13.4605
13.4573
13.3471
13.5805
13.5529
13.5824
13.5206
13.5758
13.538
13.5611
13.582
13.4282
13.4071
13.4685
13.5126
13.4261
13.4496
13.4776
13.6225
13.623
13.563
13.5853
13.5776
13.5445
13.4708
13.4871
13.4729
13.4736
13.4432
13.4747
13.4808
13.4401
13.4179
13.4813
13.4232
13.3985
13.4526
13.4623
13.4367
13.505
13.5253
13.4343
13.48
13.4738
13.5062
13.4591
13.5059
13.4851
13.3104
13.4035
13.2247
13.3734
13.2324
13.3548
13.061
13.2986
13.1792
13.5246
13.5202
13.5179
13.5322
13.5202
13.5073
13.5324
13.5379
13.3352
13.5274
13.5305
13.5306
13.5314
13.5332
13.5354
13.5355
13.5715
13.6059
13.5774
13.5527
13.5808
13.5175
13.5251
13.4667
13.4646
13.3603
13.5204
13.4845
13.4846
13.4012
13.5688
13.5282
13.5516
13.5276
13.5555
13.5172
13.5414
13.5643
13.3875
13.3887
13.4249
13.4561
13.3484
13.3923
13.427
13.5481
13.5296
13.4988
13.5204
13.5057
13.5169
13.5096
13.5344
13.4861
13.4967
13.4456
13.496
13.5118
13.4579
13.3864
13.4355
13.4168
13.3847
13.4324
13.423
13.4248
13.5458
13.5704
13.4881
13.5324
13.5033
13.5695
13.5164
13.5601
13.5238
13.1907
13.3212
12.9666
13.357
13.2126
13.2974
12.9939
13.1454
13.1733
13.546
13.5425
13.5334
13.5726
13.5663
13.5601
13.4873
13.5018
13.3266
13.4246
13.4468
13.5545
13.5476
13.5824
13.5733
13.5679
13.5302
13.551
13.5035
13.4949
13.5154
13.5383
13.5568
13.5078
13.5144
13.4569
13.5532
13.5358
13.5499
13.5095
13.5363
13.512
13.5266
13.5032
13.5255
13.5037
13.5165
13.5325
13.4213
13.4774
13.3809
13.4186
13.4345
13.3976
13.4292
13.5053
13.4911
13.4896
13.5025
13.4874
13.5028
13.5601
13.5846
13.5133
13.53
13.4748
13.5286
13.5478
13.4923
13.3908
13.4368
13.4348
13.4011
13.4515
13.438
13.4629
13.5984
13.6268
13.5467
13.5889
13.5496
13.6318
13.5728
13.6163
13.577
13.2803
13.2793
13.1261
13.4225
13.3654
13.3133
13.2725
13.2453
13.34
13.6003
13.5921
13.5912
13.6283
13.6177
13.6179
13.3674
13.3867
13.4047
13.3222
13.3054
13.5954
13.5884
13.6085
13.6149
13.6042
13.4487
13.4622
13.3741
13.3943
13.4003
13.5823
13.6117
13.5827
13.5885
13.5668
13.6123
13.6279
13.6315
13.6258
13.5137
13.4991
13.5034
13.4581
13.4887
13.4893
13.4871
13.4651
13.5383
13.6002
13.4483
13.4851
13.5885
13.5236
13.5483
13.5061
13.5035
13.5325
13.5169
13.5245
13.4982
13.6056
13.6202
13.5447
13.563
13.5086
13.5566
13.5744
13.5224
13.4175
13.4687
13.4653
13.4326
13.4864
13.4929
13.5263
13.6511
13.6695
13.5925
13.6386
13.6021
13.6712
13.6027
13.6539
13.6158
13.4506
13.3415
13.4261
13.5183
13.5411
13.3949
13.6014
13.4544
13.5557
13.6521
13.6392
13.6377
13.6697
13.6609
13.6563
13.3028
13.258
13.525
13.347
13.3054
13.6331
13.628
13.6598
13.6553
13.6475
13.3417
13.3503
13.3089
13.3147
13.3453
13.6426
13.6676
13.6625
13.6725
13.661
13.6722
13.7027
13.6959
13.6854
13.4551
13.4779
13.4707
13.4199
13.4253
13.4689
13.4608
13.4128
13.6484
13.6838
13.6092
13.626
13.6989
13.6673
13.6856
13.5328
13.5647
13.6058
13.5529
13.6009
13.5046
13.6224
13.6116
13.563
13.5785
13.5319
13.5664
13.5759
13.5373
13.4518
13.5098
13.497
13.4675
13.5275
13.5591
13.5884
13.6796
13.6779
13.6004
13.6576
13.6171
13.6648
13.5849
13.6499
13.6014
13.6186
13.4684
13.7433
13.6002
13.6638
13.5638
13.7955
13.6525
13.7188
13.6827
13.6759
13.6727
13.6832
13.6843
13.6719
13.4412
13.4121
13.6741
13.5353
13.5225
13.6732
13.6578
13.6749
13.6713
13.6605
13.3449
13.3974
13.4232
13.4142
13.4741
13.6858
13.6882
13.7299
13.6969
13.6987
13.6757
13.7269
13.6839
13.6903
13.411
13.4663
13.4629
13.435
13.423
13.4855
13.4814
13.4646
13.7046
13.6982
13.6918
13.7075
13.695
13.6745
13.6955
13.5699
13.6454
13.6614
13.5781
13.6631
13.5463
13.5928
13.5777
13.5684
13.5691
13.5399
13.5743
13.5654
13.5434
13.4858
13.5522
13.5335
13.5049
13.5794
13.6161
13.6428
13.6676
13.6525
13.5635
13.6311
13.5714
13.6233
13.5487
13.6072
13.5312
13.6825
13.5889
13.7626
13.651
13.6983
13.6226
13.7324
13.7217
13.7563
13.6737
13.6671
13.6556
13.6637
13.6376
13.6334
13.6061
13.6061
13.7444
13.6723
13.6838
13.6611
13.6379
13.6526
13.6357
13.6043
13.5093
13.5467
13.5952
13.5894
13.6079
13.6493
13.604
13.6873
13.6488
13.6529
13.5944
13.5978
13.5923
13.5784
13.4554
13.521
13.5167
13.5333
13.497
13.5625
13.5574
13.5628
13.654
13.5863
13.6316
13.6532
13.5498
13.576
13.5943
13.5812
13.6684
13.6349
13.5722
13.641
13.6081
13.5731
13.5987
13.5922
13.5641
13.5554
13.6237
13.5718
13.576
13.5282
13.6135
13.5979
13.5586
13.6515
13.677
13.7112
13.6369
13.6217
13.5428
13.5919
13.4933
13.623
13.5562
13.5836
13.4703
13.7303
13.6487
13.7503
13.7159
13.7587
13.6778
13.7794
13.7984
13.8298
13.6501
13.644
13.6183
13.6286
13.6147
13.6082
13.7421
13.7626
13.816
13.7982
13.8287
13.6093
13.5792
13.5865
13.5979
13.5483
13.6488
13.6545
13.6809
13.7
13.6983
13.5628
13.5175
13.4939
13.5286
13.4871
13.4758
13.3794
13.4651
13.3802
13.5561
13.6015
13.6076
13.6279
13.6082
13.6318
13.6499
13.6571
13.5064
13.4292
13.5166
13.5284
13.4299
13.4642
13.4715
13.5563
13.6009
13.5467
13.5389
13.5514
13.6294
13.6379
13.682
13.6728
13.5959
13.6112
13.7295
13.6378
13.6621
13.598
13.6945
13.7057
13.6522
13.737
13.7461
13.7753
13.6291
13.6646
13.5897
13.6004
13.4771
13.6977
13.6491
13.6412
13.5156
13.7831
13.7055
13.7944
13.7712
13.8025
13.7348
13.8095
13.8432
13.8475
13.6308
13.595
13.6043
13.6637
13.6588
13.6348
13.8204
13.8637
13.8087
13.8369
13.872
13.5836
13.5338
13.6139
13.5954
13.5378
13.7472
13.7321
13.7583
13.7904
13.765
13.4836
13.4689
13.2758
13.4188
13.2989
13.4073
13.2218
13.3953
13.2884
13.653
13.656
13.6885
13.6838
13.6995
13.6804
13.7213
13.7375
13.3782
13.3732
13.4239
13.4332
13.4228
13.4202
13.4153
13.5271
13.5133
13.4839
13.5237
13.4908
13.6359
13.7421
13.8093
13.778
13.7055
13.7202
13.8214
13.7834
13.7752
13.7164
13.7723
13.8132
13.7719
13.7984
13.7963
13.8126
13.7161
13.7681
13.736
13.7003
13.5869
13.8479
13.8127
13.774
13.6813
13.8189
13.7633
13.8286
13.8072
13.8346
13.7905
13.8462
13.8664
13.8791
13.7142
13.6886
13.6945
13.7642
13.7155
13.7404
13.8455
13.8676
13.832
13.8445
13.8639
13.6355
13.5703
13.6819
13.6891
13.6276
13.8246
13.7995
13.812
13.8442
13.8242
13.4847
13.5459
13.2321
13.4369
13.3428
13.4994
13.3273
13.5286
13.4723
13.7388
13.7051
13.7461
13.7397
13.7678
13.7277
13.7669
13.8004
13.4223
13.5213
13.4474
13.445
13.5449
13.511
13.4948
13.5404
13.4965
13.5205
13.5743
13.5217
13.6795
13.8683
13.9006
13.8463