/*--------------------------------*- C++ -*----------------------------------*\
| =========                 |                                                 |
| \\      /  F ield         | OpenFOAM: The Open Source CFD Toolbox           |
|  \\    /   O peration     | Version:  5.x                                   |
|   \\  /    A nd           | Web:      www.OpenFOAM.org                      |
|    \\/     M anipulation  |                                                 |
\*---------------------------------------------------------------------------*/
FoamFile
{
    version     2.0;
    format      ascii;
    class       surfaceScalarField;
    location    "10";
    object      phi;
}
// * * * * * * * * * * * * * * * * * * * * * * * * * * * * * * * * * * * * * //

dimensions      [0 3 -1 0 0 0 0];

internalField   nonuniform List<scalar> 
29271
(
-1.10684e-05
-1.21576e-05
6.99318e-06
1.62323e-05
-7.22899e-06
-1.23938e-06
5.53635e-06
3.00241e-06
-1.4438e-05
2.78617e-06
-1.24848e-06
3.76782e-06
3.95e-06
5.18249e-06
-2.60657e-05
6.90213e-06
-9.35697e-06
9.30178e-06
-8.40214e-06
2.76209e-05
-2.36991e-05
-1.23027e-06
1.96541e-06
-1.16491e-06
3.06279e-05
-6.49904e-06
-3.05876e-05
-1.55552e-05
2.36456e-06
-1.20622e-05
2.22633e-05
3.35771e-05
-2.25231e-05
-9.86081e-06
7.4899e-06
3.24867e-07
1.15098e-05
1.30593e-05
-2.60447e-05
8.36404e-06
-5.97868e-06
1.02391e-05
-3.56427e-06
1.69844e-05
-3.01217e-05
1.4841e-05
-3.46567e-06
-6.80344e-06
-1.66228e-05
4.21727e-05
-1.42913e-05
1.6989e-06
2.22399e-07
8.5374e-06
3.8311e-06
-5.51424e-06
-1.33515e-06
4.15591e-06
2.66449e-06
-2.64587e-05
2.80085e-06
-8.09562e-06
-1.38671e-05
-1.93116e-06
4.75517e-05
-2.37018e-05
-1.06685e-05
1.56928e-05
-7.41437e-06
9.74554e-06
1.63462e-05
-1.87254e-05
1.64674e-06
1.99281e-09
5.7163e-06
4.21067e-06
7.14967e-06
-2.73135e-05
1.74516e-05
-3.0483e-06
-9.50129e-06
-8.70116e-06
3.11126e-05
-2.63859e-05
1.48032e-06
-5.22876e-08
-2.64497e-06
1.60259e-05
1.15769e-05
-2.57005e-05
5.22512e-06
-1.15168e-05
-6.13798e-06
3.36119e-05
4.51829e-06
-2.72e-05
1.42976e-05
-7.48968e-06
-1.32229e-05
6.5961e-06
2.70189e-05
-2.68667e-05
-8.95579e-06
8.02848e-06
-6.19477e-06
1.21291e-05
2.18597e-05
-2.24372e-05
-1.122e-05
-4.57995e-06
1.94132e-05
7.38246e-06
1.14414e-05
-7.64822e-06
1.49027e-06
1.97541e-06
4.2307e-06
-1.98371e-05
6.51995e-06
-7.91289e-06
1.94103e-05
1.81677e-06
-2.63003e-05
4.54124e-06
-5.71624e-06
-2.59158e-06
3.40631e-05
-3.99618e-06
-5.21551e-06
9.57822e-07
2.88264e-06
1.32607e-06
-1.73366e-05
-2.9045e-06
1.19681e-05
8.298e-06
-3.17943e-06
-6.1389e-07
-6.86714e-07
4.43812e-06
-7.41276e-07
9.2002e-07
-3.49977e-06
-2.47314e-07
4.94942e-07
3.0734e-06
-6.0416e-06
-1.90821e-05
9.41825e-07
4.70848e-06
4.06255e-06
1.54108e-05
-4.64961e-05
-1.21307e-05
8.38803e-06
1.76174e-06
6.02132e-05
-1.17362e-05
2.62801e-06
-9.65306e-07
-2.47457e-05
2.84659e-06
1.9618e-06
1.82746e-05
3.17352e-07
5.06749e-08
4.74262e-05
-9.11957e-06
-6.85385e-06
-1.41901e-05
-7.67628e-06
-8.59733e-07
-9.04409e-07
-5.65545e-07
-4.45064e-07
-1.20507e-06
-3.70271e-06
-2.50208e-07
-2.0217e-06
-2.13138e-06
-3.20538e-06
9.51491e-05
-1.30127e-05
-2.95987e-05
-9.65081e-06
-2.63624e-05
-2.02235e-06
-3.89499e-06
-1.22653e-06
-3.72657e-06
5.83801e-07
-1.91531e-05
0.000155516
6.70377e-06
3.20831e-06
2.47104e-06
1.90508e-06
-6.4048e-07
3.78905e-06
7.96488e-09
-3.84303e-05
-1.55666e-05
-6.93094e-05
-3.32169e-05
-8.76679e-06
-1.0663e-06
-3.76437e-06
1.41264e-05
-1.91225e-06
8.19782e-09
-1.04009e-06
2.91085e-06
-3.36454e-06
-7.06351e-05
-5.62077e-06
1.95079e-06
-8.9425e-06
8.66121e-05
-2.20138e-06
-3.20554e-06
7.1542e-05
-1.19553e-05
-5.586e-06
-2.05052e-05
-7.17201e-06
-3.79425e-06
-5.53359e-06
-3.75906e-06
-7.77898e-06
-1.57564e-06
-7.81277e-07
5.07879e-05
-4.13923e-06
-1.09606e-05
-6.67362e-06
-3.20643e-05
4.98003e-07
-9.11055e-08
5.50216e-05
3.24738e-07
3.86143e-07
5.19546e-07
2.45676e-07
3.88398e-07
4.08525e-07
-2.4853e-05
-1.64194e-05
-3.02292e-05
-6.92868e-06
-1.21612e-05
1.34723e-06
1.75421e-06
-2.76626e-07
9.83436e-06
-3.88326e-05
-5.67276e-07
-3.81068e-06
-3.10034e-06
3.46175e-05
1.16935e-05
4.03387e-06
-4.2268e-07
9.59155e-05
3.50864e-06
7.7864e-07
5.57413e-07
-7.49985e-07
3.94049e-07
-2.6966e-07
4.24503e-08
-2.26571e-05
-1.29413e-05
-3.46277e-05
-3.67678e-05
1.5047e-06
3.09272e-06
0.000101848
2.35784e-06
2.16505e-06
2.78261e-06
3.05621e-06
4.13006e-06
2.93573e-06
-2.05816e-05
-3.68869e-05
-3.29927e-05
-3.01593e-05
-1.14204e-05
7.29828e-07
1.01843e-06
1.10857e-05
-3.81111e-06
-2.33113e-07
1.51228e-07
3.93253e-06
-1.62681e-05
2.93233e-07
5.24594e-07
1.5043e-05
-3.83438e-05
-2.83105e-06
3.06842e-06
6.6309e-07
4.05361e-05
-1.28197e-06
5.07438e-08
-1.21128e-06
2.36737e-06
-4.59688e-06
9.39125e-08
4.63464e-07
4.13693e-06
-5.97507e-06
-1.79538e-06
-1.38662e-07
7.96267e-06
-1.04557e-06
2.8704e-06
-2.25537e-06
-9.93685e-07
1.19633e-06
2.27904e-07
-3.66996e-06
-1.8055e-05
-2.6291e-07
-3.88512e-06
6.61308e-06
1.92599e-05
-4.76865e-05
-4.24724e-06
7.3392e-06
9.2198e-06
3.14134e-05
3.96141e-06
3.93043e-06
-3.26184e-06
-2.05804e-05
7.47141e-06
-1.1144e-05
2.35844e-05
-5.37042e-06
7.40739e-07
6.3995e-05
-9.29017e-07
-2.34554e-06
-5.74001e-07
-1.27281e-06
-1.23769e-06
-3.56608e-06
9.71394e-07
-2.98537e-06
-4.67003e-05
1.28677e-06
0.000137761
-2.33392e-06
-3.45701e-06
4.19448e-06
-9.72238e-07
-5.25941e-06
1.65573e-05
0.000161822
-1.55896e-05
-1.70612e-05
-6.93633e-06
-1.45744e-05
-2.38242e-06
-4.90143e-06
-2.85886e-06
-2.50278e-05
-1.1675e-05
3.81944e-06
2.76391e-05
-3.56734e-06
4.84313e-07
-8.2275e-07
3.87849e-06
-5.14118e-06
-8.63039e-05
8.22067e-06
2.15356e-05
-6.82901e-06
6.85178e-05
2.16521e-06
-6.25792e-06
0.000155091
-1.82337e-05
-2.78271e-05
-1.44821e-05
-1.81722e-05
-7.20851e-06
-1.27445e-05
7.41929e-05
-1.10244e-06
-5.70079e-07
6.71021e-05
-9.22458e-07
-9.73582e-07
-6.06899e-07
1.65917e-07
4.68297e-07
8.09459e-07
-9.14846e-06
-9.82973e-07
-1.25923e-06
1.40303e-06
8.8852e-06
-2.71519e-05
7.81778e-08
3.36674e-06
5.17107e-07
1.93592e-05
3.83072e-06
-3.7135e-06
1.4801e-06
9.82026e-05
-1.05123e-05
-2.85402e-06
-3.2714e-06
-1.63551e-06
9.32468e-07
6.27958e-06
4.74969e-06
1.30427e-06
4.64752e-07
7.4661e-05
2.14483e-06
2.5188e-06
2.55415e-06
2.11845e-07
9.95116e-07
5.35462e-07
-1.2061e-05
9.37771e-07
-2.63919e-07
1.21213e-05
-4.57405e-06
-9.83465e-07
-1.93462e-07
5.7773e-06
-1.54127e-05
-1.77673e-06
-1.53838e-06
2.02286e-05
-4.39383e-05
6.55793e-06
-1.47597e-06
1.28916e-06
3.8032e-05
-3.8728e-06
9.79908e-07
-1.79787e-06
4.70338e-06
-4.48409e-06
-8.55051e-07
-3.7844e-07
5.72147e-06
-1.53866e-05
-4.46573e-06
7.3137e-08
1.97795e-05
-1.51364e-07
2.9792e-06
4.66454e-06
-2.21463e-07
1.08154e-06
-8.35245e-06
3.5001e-06
-2.19923e-05
-1.31592e-06
-1.03356e-06
-4.68118e-06
2.55228e-05
-2.59327e-05
4.62789e-06
-2.40819e-06
-2.71387e-06
2.25252e-05
3.90173e-06
8.71426e-06
-2.2634e-06
-2.68347e-05
-4.45605e-07
-1.05279e-05
3.13573e-05
-3.2401e-05
1.95016e-05
8.27023e-05
-1.92241e-06
-1.47713e-06
-1.88403e-06
-2.22902e-06
2.51159e-06
-3.43656e-06
4.98185e-06
-2.35218e-06
-5.64362e-05
-4.15439e-07
0.000171232
-1.84189e-06
-1.91771e-06
-2.27464e-06
-2.98632e-06
-5.00672e-06
1.50344e-05
0.000102576
-1.32565e-06
-2.68661e-06
3.54259e-06
-2.59597e-07
-2.39751e-06
-2.51131e-06
-1.57982e-06
-2.39709e-05
-2.88598e-06
5.09314e-06
1.68343e-05
-4.30256e-06
9.15739e-07
-1.24259e-06
4.59969e-06
1.18493e-06
-4.07076e-05
6.6058e-06
8.54504e-06
2.91824e-07
2.408e-05
3.18434e-05
2.74353e-06
0.000179161
-1.09692e-05
-1.20085e-05
-8.84989e-06
-7.32835e-06
-9.14606e-06
-3.05411e-06
0.000117821
-1.38182e-06
8.90964e-07
6.55548e-05
-6.15364e-07
-1.03154e-06
5.48888e-07
1.74479e-06
2.23611e-06
5.04358e-06
-9.48921e-06
-2.06139e-06
-2.28778e-06
3.86747e-06
8.5891e-06
-1.82596e-05
-7.74815e-07
8.18609e-07
4.54571e-06
1.75302e-05
-3.86015e-06
-4.65594e-07
5.859e-06
9.50501e-05
-1.78655e-06
-3.16087e-07
-7.10685e-07
-3.19955e-07
1.12063e-06
2.81527e-06
-3.00058e-07
2.04713e-07
9.39544e-07
6.55509e-05
5.32128e-07
8.81344e-07
8.18676e-07
3.23253e-07
8.32532e-07
1.05815e-06
-1.39347e-05
8.71269e-07
1.38611e-07
1.40205e-05
-7.06023e-06
-1.08153e-06
1.04283e-07
8.10161e-06
-2.87313e-05
5.30347e-07
-4.84484e-06
3.88508e-05
-2.88193e-05
6.33905e-06
-1.16473e-06
2.13311e-06
2.24514e-05
-5.80209e-06
-7.78066e-08
-6.0953e-07
6.47935e-06
-5.75274e-06
1.55116e-06
-1.34164e-06
5.54338e-06
-2.08873e-05
-1.31145e-06
1.21994e-06
2.09785e-05
-1.83534e-06
-7.30211e-07
9.96867e-06
9.52036e-07
1.43419e-06
-9.78935e-06
1.66158e-06
-2.70853e-05
-2.22074e-06
3.68427e-06
-7.68906e-07
2.47291e-05
-2.50049e-05
-6.60961e-07
1.6263e-07
2.86924e-06
2.48291e-05
-2.1951e-06
1.59198e-06
6.07762e-06
-3.79704e-05
-1.08438e-05
-6.94454e-07
4.18391e-05
-2.51256e-05
1.69602e-05
5.68108e-05
-8.27967e-08
1.06901e-06
-3.09855e-07
1.02717e-06
8.33111e-06
5.63669e-06
9.33023e-06
9.05526e-06
-2.4491e-05
8.53863e-06
0.000183519
-5.10451e-06
-6.10669e-06
-4.67428e-06
-5.57482e-06
6.74065e-07
3.07095e-06
8.09487e-05
4.81687e-07
-6.08145e-07
-3.52737e-06
-3.72651e-06
2.52645e-07
3.01617e-07
2.17796e-07
-1.14286e-05
1.36403e-06
6.42587e-07
1.01288e-05
-4.27263e-06
-2.1658e-07
-1.25302e-07
4.41138e-06
2.73875e-07
-1.60931e-05
-1.58025e-06
2.11295e-06
1.74619e-06
1.35404e-05
2.85087e-05
9.90377e-06
0.000174327
-6.5102e-06
-4.67934e-06
-2.58846e-06
-2.83982e-06
-3.03395e-06
3.35359e-06
0.000154549
-3.5157e-07
-8.7459e-07
7.14803e-05
-6.3525e-08
-7.37625e-08
-1.78614e-06
7.41034e-07
-2.5447e-06
-9.3523e-07
-5.13661e-06
-1.1331e-06
-1.46628e-06
3.56786e-06
3.81656e-06
-1.72552e-05
-1.43079e-06
3.85391e-07
3.86225e-06
1.74748e-05
-3.03645e-06
-2.76567e-06
1.1322e-07
0.000125865
-1.10237e-06
2.87052e-07
-2.70748e-06
1.44572e-07
-4.09502e-06
-3.93161e-06
-6.85373e-06
-3.61287e-06
-2.74355e-06
9.72193e-05
-2.91231e-06
-5.23381e-06
-4.06342e-06
-1.25383e-06
-5.70902e-06
-5.55166e-06
-1.50697e-05
-2.39794e-06
-1.01538e-06
1.39956e-05
-1.19486e-05
-2.55644e-06
1.41348e-06
1.30906e-05
-4.25717e-05
6.25254e-06
-5.25009e-06
4.16812e-05
-2.31151e-05
2.2793e-06
8.33834e-08
-2.45225e-06
2.04611e-05
-7.87161e-06
8.33381e-07
2.81531e-07
6.75815e-06
-4.92316e-06
1.78395e-06
-4.60679e-07
3.59971e-06
-1.99464e-05
2.85013e-07
1.60393e-06
1.80583e-05
-2.59062e-06
-1.84332e-06
8.4878e-06
2.67084e-07
2.33647e-06
-6.65741e-06
2.3859e-07
-1.96258e-05
-2.56879e-07
3.38312e-06
1.53266e-06
1.47283e-05
-2.51838e-05
-1.98192e-06
-1.1701e-06
6.02878e-06
2.47948e-05
-2.48777e-06
-2.42181e-06
8.78901e-06
-4.3235e-05
-1.1914e-05
4.96897e-06
4.38129e-05
-1.22793e-05
1.13925e-05
2.89083e-05
-6.71101e-07
-1.16466e-08
-6.86469e-07
1.13491e-07
8.37746e-06
8.00674e-06
6.9744e-06
6.68639e-06
-1.00256e-05
1.38137e-05
0.000189254
-6.21797e-06
-6.6622e-06
-4.16166e-06
-4.76063e-06
-2.53207e-06
-1.3918e-06
0.000103886
-3.93961e-06
-5.34177e-06
-4.31601e-06
-6.12361e-06
-3.69484e-06
-1.59639e-06
-4.02683e-06
-9.06294e-06
-2.99068e-06
-4.31895e-07
-4.08802e-07
1.03622e-05
-3.94954e-09
-1.66575e-08
2.41419e-08
-4.46602e-09
-5.80621e-06
-2.53278e-06
1.89419e-06
6.44481e-06
-2.32034e-07
-1.41514e-05
-3.11034e-06
-1.24196e-06
2.77385e-06
1.59619e-05
7.69701e-06
6.71406e-06
0.000162016
1.75891e-06
5.34583e-07
3.95867e-06
3.03993e-06
6.67454e-06
1.06308e-05
0.000158754
-2.45213e-07
-3.58789e-06
8.39964e-05
-1.75431e-08
5.83703e-07
6.1011e-07
-1.51756e-06
-1.85466e-06
-1.20437e-06
-3.51907e-06
1.122e-06
-1.18911e-06
-1.61708e-06
4.95804e-06
2.45505e-09
1.68549e-07
-1.06673e-08
-5.90368e-08
-1.07574e-07
-1.67603e-05
-2.62474e-06
1.3372e-06
2.01186e-06
1.875e-05
-2.714e-06
-3.78442e-06
-5.05987e-06
0.000145024
-1.24825e-06
3.17488e-06
1.02436e-06
5.12472e-06
-5.42941e-06
-4.25815e-06
-1.98847e-06
-2.01829e-06
-1.75299e-06
0.000103943
-4.90053e-07
1.01176e-06
1.14731e-06
-1.13931e-06
1.50352e-06
1.86123e-06
-1.25209e-05
-2.13888e-06
-3.16665e-06
1.22202e-05
-1.26469e-05
2.64742e-06
4.73406e-07
9.52547e-06
-3.62459e-05
7.64152e-06
-4.30758e-06
2.78547e-05
-1.39589e-05
-6.80463e-07
2.62771e-07
-4.80216e-07
1.31038e-05
-4.91761e-06
1.85909e-06
-4.27558e-07
3.48891e-06
-1.83959e-06
2.85673e-06
-1.13638e-06
1.18311e-07
-1.63273e-05
-2.30727e-07
1.36303e-06
1.51954e-05
-3.1184e-06
-4.93835e-07
4.11972e-06
-2.19753e-06
3.50074e-06
-1.8107e-06
-9.77147e-07
-1.07818e-05
2.77451e-06
-2.25745e-07
8.63497e-07
8.34668e-06
-2.26359e-05
-3.41871e-06
1.23018e-06
6.61628e-06
1.97013e-05
-1.49317e-06
-3.61862e-06
6.56607e-06
-4.35233e-05
-6.81881e-06
5.45027e-06
4.19443e-05
-6.2126e-06
1.44656e-05
1.95753e-05
-3.26273e-06
-1.79513e-06
-3.39915e-06
-1.92666e-06
4.06143e-06
3.37878e-06
2.14795e-06
1.87552e-06
-3.43244e-06
1.84088e-05
0.000184234
-4.47823e-06
-6.5482e-06
-1.90282e-07
-4.95163e-06
1.13657e-06
1.8365e-06
0.000118272
-5.42545e-06
-6.02114e-06
-4.84183e-06
-4.99173e-06
-1.90853e-06
2.17367e-06
2.23657e-07
-1.5148e-05
-6.29824e-06
2.00323e-06
4.89646e-06
1.56831e-05
2.44949e-06
-3.60063e-06
4.07661e-06
-4.76592e-06
3.59154e-06
-1.7511e-06
-6.88014e-06
-2.84517e-06
2.05711e-06
7.6682e-06
4.88471e-07
-1.87622e-05
-3.04296e-06
-2.79949e-06
2.38415e-06
2.17321e-05
8.23639e-07
5.41343e-06
0.000150582
4.47716e-06
4.03794e-06
5.75033e-06
5.39725e-06
9.68269e-06
1.63171e-05
0.000151987
8.9458e-07
-1.23343e-06
9.1845e-05
1.55033e-06
1.47492e-06
1.77224e-06
-2.87262e-07
-1.7391e-07
-3.26824e-07
-7.63453e-06
-5.81299e-07
-2.08031e-07
-1.86256e-06
1.1181e-05
-2.44553e-07
-2.35629e-06
8.74864e-07
-9.55699e-07
9.35886e-07
1.74579e-06
-2.29533e-05
-2.14774e-06
-4.00722e-07
-6.55129e-07
2.79825e-05
-1.82565e-06
-2.90144e-06
-3.77907e-06
0.000153757
6.47213e-07
4.51577e-06
1.70902e-06
4.10602e-06
-2.26839e-06
-2.99355e-06
-2.35511e-06
1.40952e-06
2.74436e-06
0.000100527
1.12237e-06
2.5283e-06
8.52107e-07
2.42003e-06
3.24738e-06
2.50674e-06
-1.32077e-05
1.12484e-06
-1.60696e-06
1.38659e-05
-6.72847e-06
-6.13705e-07
-8.13336e-07
1.52201e-06
6.63148e-06
-6.10344e-08
-3.98111e-07
3.83044e-07
7.36887e-08
-1.92363e-05
5.72462e-06
-3.51309e-06
1.32481e-05
-1.53062e-05
5.42654e-07
-1.17844e-06
1.575e-06
1.71113e-05
-2.97031e-06
9.14398e-07
-7.17267e-07
2.77269e-06
9.71802e-07
1.80385e-06
-1.59096e-06
-1.18469e-06
-1.48639e-05
-1.77583e-06
1.98171e-06
1.4658e-05
-1.80641e-06
2.37273e-06
-2.73282e-07
-4.82818e-06
3.2639e-06
1.27124e-06
-1.58706e-06
-6.90173e-06
5.65128e-06
-1.87392e-06
-4.87392e-07
5.19881e-06
-1.5811e-05
-4.4501e-06
4.53027e-06
6.776e-06
1.00836e-05
-1.12879e-06
-3.56366e-06
3.29667e-06
-4.04555e-05
-1.93362e-06
3.45991e-06
3.91962e-05
-6.75607e-06
1.51224e-05
2.39256e-05
-3.82486e-06
-3.20441e-06
-3.13022e-06
-2.92115e-06
6.32057e-07
9.65108e-09
-1.96903e-07
-8.07712e-08
2.79924e-06
2.08671e-05
0.00016718
-1.43822e-07
-6.30146e-06
-1.24147e-06
-5.68195e-06
3.0536e-06
9.30382e-06
0.000126087
-6.88173e-06
-5.28342e-06
-6.67673e-06
-5.28746e-06
1.78565e-06
2.72068e-06
2.24947e-06
-1.65962e-05
-5.63594e-06
1.42537e-06
6.73204e-06
1.71283e-05
6.90832e-07
-1.58857e-07
-6.58037e-07
6.98568e-08
1.5441e-06
-1.48789e-06
-8.63631e-06
-2.12237e-06
1.34945e-06
9.40923e-06
1.05799e-06
-2.48898e-05
-1.11555e-06
-3.22361e-06
6.01006e-07
2.75699e-05
-2.35886e-06
9.40119e-06
0.000138161
4.89313e-06
4.47914e-06
5.6923e-06
5.43657e-06
1.19423e-05
2.04168e-05
0.000138136
2.47076e-06
8.98393e-08
0.000101826
2.14488e-06
2.84892e-06
2.07838e-06
3.48644e-07
8.26473e-07
4.57493e-07
-1.48953e-05
-3.71576e-06
1.79169e-06
4.4528e-07
1.88448e-05
-1.79599e-06
-5.46949e-07
-4.84649e-07
7.65437e-07
2.00812e-07
1.86134e-06
-3.35913e-05
-3.79463e-07
-1.12047e-06
-3.86278e-06
3.86253e-05
3.28736e-07
-4.96027e-06
-2.11522e-06
0.000165825
4.58742e-07
3.91062e-06
1.62609e-06
3.82349e-06
-1.8984e-06
-1.78671e-06
-1.72558e-06
1.59066e-06
4.00872e-06
9.92794e-05
-5.64075e-08
2.12107e-06
-2.21033e-07
2.7447e-06
3.98468e-06
2.53219e-06
-1.52991e-05
1.61505e-06
-4.45353e-07
1.58099e-05
-6.1131e-06
-1.23079e-07
-2.15117e-08
6.17512e-07
5.64112e-06
-1.33371e-07
-4.28162e-07
-8.53912e-07
8.5015e-07
5.65296e-07
-9.63688e-06
3.52466e-06
-3.72025e-06
7.7189e-06
-1.79692e-05
2.6297e-06
-1.66936e-06
2.87208e-06
1.81455e-05
-2.68713e-06
3.43198e-07
-4.0136e-07
2.74281e-06
9.8285e-07
-1.71127e-07
-2.08987e-08
-7.90824e-07
-1.4172e-05
-1.55046e-06
2.13336e-06
1.35891e-05
1.04789e-06
1.75613e-06
-1.92539e-06
-3.29082e-06
4.70861e-07
1.94132e-06
-6.112e-07
-3.15412e-06
4.69664e-06
-2.97014e-06
1.24828e-06
7.90539e-07
-3.7428e-06
-5.25002e-06
3.909e-06
6.12617e-06
-1.46356e-06
4.21198e-07
-2.06335e-06
1.2244e-06
-3.85371e-05
4.627e-07
9.19327e-07
3.7994e-05
-8.56644e-06
1.07284e-05
3.34327e-05
-2.40688e-06
-2.49363e-06
-1.93831e-06
-1.98411e-06
-8.04212e-07
-6.99955e-07
-1.07934e-06
-2.62625e-07
5.71546e-06
1.79715e-05
0.000146526
-2.0888e-06
-5.09275e-06
-1.40558e-06
-3.01216e-06
3.05336e-06
1.11091e-05
0.000134372
-6.9354e-06
-4.57909e-06
-5.47767e-06
-4.88475e-06
2.81605e-06
2.03806e-07
2.12529e-06
-2.31187e-05
-2.79794e-06
1.75549e-06
5.16835e-06
2.20462e-05
3.38225e-06
-2.74725e-07
1.24268e-06
-2.37804e-06
-1.97217e-06
-9.96361e-06
-8.11089e-07
4.86656e-07
1.02884e-05
1.25296e-06
-2.99828e-05
7.87974e-07
-3.17295e-06
-8.35813e-07
3.19507e-05
-8.67336e-06
1.00724e-05
0.000128398
4.78356e-06
4.02111e-06
5.60753e-06
4.67942e-06
8.68045e-06
2.13954e-05
0.000117358
3.02802e-06
5.15233e-07
0.000111289
1.74664e-06
2.1564e-06
-5.88276e-07
1.20761e-06
1.26501e-06
9.95791e-07
-2.13771e-05
-3.61483e-06
2.62382e-06
1.93684e-06
2.34593e-05
-2.37402e-06
1.75955e-07
-2.57666e-06
2.15105e-06
5.90366e-07
2.03331e-06
-4.32478e-05
1.32502e-06
-1.61536e-06
-5.30574e-06
4.67814e-05
2.06255e-06
-9.08269e-06
-8.98432e-07
0.000177277
9.36934e-07
4.46873e-06
1.81564e-06
4.49481e-06
-1.17152e-06
-8.3527e-07
-1.10783e-06
9.45612e-07
3.74273e-06
9.96211e-05
-8.16317e-07
1.34781e-06
-8.45281e-07
2.12009e-06
3.4538e-06
2.02259e-06
-1.73876e-05
6.61916e-07
1.83953e-07
1.80026e-05
-5.06031e-06
-2.87198e-06
8.54084e-07
7.07848e-06
-6.58529e-06
4.18502e-06
-4.99331e-06
6.49537e-06
-1.77988e-05
3.57928e-06
-2.12031e-06
2.78415e-06
1.72984e-05
-3.22031e-06
-2.69765e-07
-1.86949e-07
3.67755e-06
5.6597e-07
-1.18275e-06
1.05453e-06
-4.37745e-07
-1.29994e-05
-1.03759e-06
1.03023e-06
1.30068e-05
2.28745e-06
1.10586e-06
-1.23171e-06
-2.02368e-06
-9.38294e-07
8.00376e-07
-3.53773e-07
1.24496e-06
2.43974e-06
-1.30532e-06
8.54738e-07
-2.88036e-06
5.28493e-06
-3.0704e-06
3.1622e-06
2.87074e-06
-7.69694e-06
-5.50522e-07
-2.40952e-07
-1.71527e-07
-3.73695e-05
1.91435e-06
-7.79964e-07
3.66476e-05
-8.56115e-06
4.52776e-06
4.39652e-05
-5.90157e-07
-8.28593e-07
2.04509e-08
5.82832e-07
-1.94721e-06
-1.11593e-06
-2.14273e-06
-4.77768e-07
5.84865e-06
8.09373e-06
0.00012477
-9.76311e-07
-1.46451e-06
7.76892e-07
9.16316e-07
-6.66007e-07
1.18535e-05
0.00014437
-4.94199e-06
-4.51182e-06
-3.20643e-06
-3.80908e-06
8.13102e-08
2.48082e-07
8.03073e-07
-2.16313e-05
-5.09451e-06
2.9756e-06
2.30842e-05
-1.05148e-05
1.74153e-07
-3.74203e-07
1.07153e-05
1.32268e-06
-3.39077e-05
1.93048e-06
-2.9727e-06
-1.86605e-06
3.54933e-05
-1.56824e-05
3.84321e-06
0.000127661
4.53327e-06
3.20107e-06
5.35973e-06
4.00988e-06
-1.22914e-07
1.33601e-05
9.65323e-05
-7.31933e-07
7.44601e-07
0.000122707
-2.43057e-06
-1.31116e-07
-1.7143e-06
1.15375e-06
1.92325e-06
1.49921e-06
-3.08224e-05
-2.68167e-06
-3.36065e-06
3.71912e-06
3.24137e-05
-4.94497e-05
2.00762e-06
-1.23669e-06
-5.15048e-06
5.10367e-05
2.7925e-06
-1.26843e-05
-7.3046e-07
0.000184959
1.07838e-06
4.71875e-06
2.25445e-06
4.60113e-06
-1.24705e-06
-6.54818e-07
-1.17521e-06
-4.9733e-08
2.01004e-06
9.52328e-05
-1.15784e-06
5.92801e-07
-1.18373e-06
1.3028e-06
2.02943e-06
1.52036e-06
-1.96674e-05
-2.05795e-08
4.90231e-07
1.98926e-05
-7.95419e-06
-1.1474e-06
1.92833e-06
7.17326e-06
-6.76503e-06
4.25539e-06
-5.58991e-06
7.36909e-06
-1.63698e-05
3.97956e-06
-2.52714e-06
2.54937e-06
1.43781e-05
-4.27365e-06
-9.16555e-07
6.64009e-07
4.52775e-06
4.08174e-07
-1.59685e-06
1.5678e-06
-3.79122e-07
-1.35889e-05
9.70036e-07
-1.9712e-06
1.459e-05
2.75774e-06
-1.02985e-07
-1.23787e-06
-1.7331e-06
-2.19508e-06
2.5113e-06
3.29304e-07
3.48549e-06
2.04601e-06
-6.51463e-07
-1.39504e-06
-3.81431e-06
8.68687e-06
-3.44981e-06
3.13086e-06
2.68234e-06
-9.56712e-06
-1.48314e-06
2.1067e-06
-9.23325e-07
-3.56819e-05
2.389e-06
-2.46536e-06
3.45749e-05
-4.61444e-06
-2.35131e-06
5.37499e-05
7.97182e-07
1.15037e-06
8.76883e-07
1.39861e-06
-2.78781e-06
-1.19544e-06
-2.72132e-06
-3.37482e-07
8.12701e-06
2.15762e-06
0.000109636
3.61709e-07
-5.65619e-07
8.9456e-07
-4.55803e-07
1.04429e-06
1.09172e-05
0.000149455
-4.07e-06
-3.425e-06
-3.58736e-06
-3.11705e-06
1.85588e-06
1.0898e-06
2.33398e-06
-2.44319e-05
-3.36273e-06
2.31825e-06
2.65206e-05
-1.0761e-05
7.33595e-07
-7.97851e-07
1.08252e-05
1.21678e-06
-3.68681e-05
2.69283e-06
-2.47952e-06
-2.37338e-06
3.78114e-05
-1.60164e-05
-3.61377e-06
0.000129942
4.07176e-06
2.47172e-06
4.9724e-06
3.48224e-06
-2.07724e-06
-1.18375e-07
8.4869e-05
5.10427e-07
1.26501e-06
0.000127423
-1.77517e-06
1.02739e-06
-1.77323e-06
1.22916e-06
2.25224e-06
1.3882e-06
-3.2548e-05
-1.87936e-06
-3.53033e-07
2.72755e-06
3.25633e-05
-5.2032e-05
1.73697e-06
-7.94365e-07
-4.15704e-06
5.23325e-05
2.91386e-06
-1.30432e-05
-6.55346e-07
0.000186584
1.09692e-06
4.31275e-06
2.34722e-06
4.05025e-06
-1.49651e-06
-5.68459e-07
-1.2823e-06
-5.35829e-07
5.91077e-07
8.26264e-05
-1.45425e-06
-6.1277e-09
-1.38938e-06
6.149e-07
7.86965e-07
8.37455e-07
-2.16304e-05
-1.74248e-07
8.71502e-07
2.16624e-05
-7.12381e-06
-1.03116e-06
1.10698e-06
7.04824e-06
-8.56007e-06
3.61932e-06
-5.89891e-06
1.01843e-05
-1.22549e-05
4.476e-06
-3.2976e-06
2.46573e-06
9.20182e-06
-4.41939e-06
-1.16078e-06
1.35241e-06
4.2288e-06
3.23716e-07
-2.15201e-06
2.08281e-06
-2.54518e-07
-1.55338e-05
2.82589e-06
-3.73329e-06
1.64412e-05
3.19707e-06
-1.44888e-06
-3.89342e-06
-5.52916e-07
-2.97026e-06
5.6684e-06
2.34839e-07
3.6568e-06
8.93109e-07
2.25229e-07
-1.31882e-06
-3.69115e-06
1.07299e-05
-3.44036e-06
3.04258e-06
2.43741e-06
-1.12563e-05
-1.5132e-06
3.518e-06
-1.08025e-06
-3.34768e-05
2.11447e-06
-3.56814e-06
3.24927e-05
-1.26741e-06
-1.00355e-05
6.36784e-05
1.83589e-06
1.87157e-06
2.0076e-06
2.2288e-06
-2.97734e-06
-7.75872e-07
-2.82539e-06
9.20035e-09
9.57528e-06
-2.32229e-06
0.000103414
2.76706e-07
-1.60623e-06
3.63681e-07
-1.33273e-06
9.40467e-07
5.7794e-06
0.000155338
-2.323e-06
-2.08646e-06
-1.74182e-06
-1.846e-06
2.01945e-06
8.04069e-07
2.1467e-06
-2.86287e-05
-1.53606e-06
3.62676e-07
3.07426e-05
-1.09287e-05
9.79546e-07
-1.03196e-06
1.09822e-05
1.31624e-06
-3.87066e-05
3.25625e-06
-2.41288e-06
-2.66312e-06
3.92101e-05
-1.35849e-05
-8.65528e-06
0.000128562
3.71849e-06
1.99745e-06
4.72623e-06
3.14225e-06
-3.00233e-06
-6.55209e-06
7.85163e-05
5.2714e-07
6.26202e-07
0.000129943
-2.02404e-06
5.25219e-07
-1.62442e-06
4.67877e-07
1.31479e-06
4.44114e-07
-3.28865e-05
-2.82751e-07
4.40572e-08
1.05944e-06
3.25929e-05
-5.24147e-05
1.33003e-06
-6.97832e-07
-3.16087e-06
5.209e-05
2.85335e-06
-9.93225e-06
3.00136e-08
0.000180378
9.8694e-07
3.21656e-06
2.16607e-06
2.65776e-06
-1.01505e-06
8.43584e-08
-6.43226e-07
-4.18647e-07
4.12595e-07
6.56204e-05
-9.42259e-07
3.6996e-07
-7.45114e-07
6.5925e-07
4.3493e-07
7.50965e-07
-2.2816e-05
-3.61976e-08
9.36392e-07
2.21234e-05
-7.30148e-06
8.61191e-08
-2.31659e-07
7.44734e-06
-1.23732e-05
2.1638e-06
-4.8944e-06
1.51338e-05
-7.08432e-06
4.13205e-06
-3.77384e-06
2.04887e-06
5.08983e-06
-4.08263e-06
-1.44607e-06
1.76887e-06
3.76008e-06
9.38311e-08
-2.57059e-06
2.40929e-06
6.74655e-08
-1.72121e-05
3.59354e-06
-4.32729e-06
1.79458e-05
3.53177e-06
-2.14918e-06
-7.11577e-06
8.09607e-07
-4.00829e-06
8.93185e-06
-1.39664e-07
3.28937e-06
-2.5259e-07
6.8707e-07
-7.02094e-07
-2.88209e-06
1.14148e-05
-3.30901e-06
1.8949e-06
2.53348e-06
-1.12754e-05
-1.25875e-06
4.14951e-06
-1.12062e-06
-3.17866e-05
1.81906e-06
-4.31149e-06
3.12502e-05
-1.02272e-06
-1.8033e-05
7.30131e-05
3.36268e-06
3.19083e-06
3.6096e-06
3.76105e-06
-2.59981e-06
-1.04479e-07
-2.186e-06
6.87176e-07
8.59341e-06
-4.27984e-06
0.0001009
-5.36465e-08
-1.44965e-06
1.0268e-07
-1.42145e-06
5.38815e-07
-1.13569e-06
0.000166988
-1.57279e-06
-1.00391e-06
-2.0015e-06
-6.60295e-07
1.43684e-06
2.84107e-07
1.05753e-06
-3.25319e-05
2.1189e-06
-3.06808e-06
3.40199e-05
-1.09526e-05
1.20014e-06
-1.15815e-06
1.09106e-05
1.57065e-06
-3.94757e-05
3.77606e-06
-2.73748e-06
-2.79048e-06
3.96569e-05
-8.69127e-06
-1.43016e-05
0.00012117
3.44035e-06
1.5216e-06
4.57453e-06
2.81632e-06
-2.48863e-06
-7.06335e-06
7.50971e-05
6.863e-08
-3.97732e-07
0.000130794
-1.49974e-06
-3.61845e-09
-1.63011e-06
-4.99344e-07
2.15629e-07
-7.29526e-07
-3.24595e-05
8.91787e-07
1.07042e-06
-1.00111e-06
3.15671e-05
-5.16315e-05
8.47838e-07
-5.73353e-07
-2.16775e-06
5.0877e-05
2.64773e-06
-5.38485e-06
8.43645e-07
0.000162101
8.63552e-07
1.98626e-06
2.21405e-06
2.04942e-06
8.10135e-08
8.27549e-07
4.9504e-07
3.37501e-07
3.57224e-07
4.97881e-05
-2.06862e-07
1.10595e-06
-1.01146e-07
8.3219e-07
1.96619e-07
8.6258e-07
-2.27183e-05
2.50586e-07
6.93508e-07
2.1714e-05
-7.26504e-06
1.55317e-06
-7.82106e-07
6.49397e-06
-1.76862e-05
2.90628e-07
-1.81173e-06
2.00509e-05
-3.80162e-06
2.75715e-06
-3.24014e-06
1.62634e-06
3.01549e-06
-3.23395e-06
-1.33012e-06
1.81365e-06
2.7509e-06
-2.08404e-07
-2.73691e-06
2.58018e-06
3.65129e-07
-1.86145e-05
4.04084e-06
-4.62461e-06
1.91983e-05
3.82699e-06
-2.52351e-06
-1.05059e-05
1.71685e-06
-4.78881e-06
1.22744e-05
-1.2837e-07
2.03843e-06
-1.01731e-06
7.04824e-07
-7.22172e-07
-8.754e-07
1.08207e-05
-2.78248e-06
-4.68659e-07
2.94047e-06
-9.91569e-06
-5.94345e-07
4.46747e-06
-7.57525e-07
-3.09039e-05
1.1788e-06
-4.66261e-06
3.06778e-05
-2.90883e-06
-2.27526e-05
7.98998e-05
4.6745e-06
4.45039e-06
4.92941e-06
4.93254e-06
-1.45957e-06
6.21982e-07
-7.02276e-07
1.32768e-06
5.2845e-06
-3.89751e-06
9.94393e-05
-5.46664e-08
-1.46842e-06
8.62186e-08
-1.39816e-06
-1.09254e-08
-3.83375e-06
0.000177807
-1.47413e-06
-1.36648e-07
-1.25729e-06
-1.10352e-07
6.287e-07
-2.1707e-07
8.76955e-07
-3.50275e-05
3.49444e-06
-3.9349e-06
3.5457e-05
-1.09346e-05
1.21141e-06
-1.36219e-06
1.10851e-05
1.79865e-06
-3.98951e-05
4.12824e-06
-3.07621e-06
-2.93346e-06
3.99779e-05
-3.63501e-06
-1.70651e-05
0.000108155
3.08187e-06
1.15223e-06
4.11156e-06
2.61637e-06
-7.82006e-07
-4.78979e-06
7.31364e-05
-5.51286e-08
-7.7913e-07
0.000131349
-1.22188e-06
1.4731e-07
-9.85614e-07
-1.167e-06
-7.18579e-08
-1.03718e-06
-3.01592e-05
2.50477e-06
9.13214e-07
-1.60047e-06
2.82865e-05
-5.03113e-05
7.00977e-07
-1.01825e-06
-1.48334e-06
4.96718e-05
2.44006e-06
-2.59757e-06
1.55667e-06
0.000132368
1.1097e-06
1.98514e-06
3.06155e-06
2.6636e-06
1.2511e-06
1.86589e-06
1.77155e-06
2.63276e-07
3.23769e-07
3.9977e-05
-1.75889e-07
6.24479e-07
-2.62787e-07
9.58073e-07
-1.45331e-07
8.38183e-07
-2.22267e-05
-1.10515e-07
4.67551e-07
2.13538e-05
-5.22009e-06
9.44764e-07
5.01274e-07
3.77405e-06
-2.18919e-05
-3.45038e-07
1.57939e-07
2.36357e-05
-2.87078e-06
1.63358e-06
-3.07353e-06
1.19794e-06
3.43655e-06
-2.30656e-06
-1.64393e-06
1.983e-06
1.96749e-06
-5.4192e-07
-2.71159e-06
2.44751e-06
8.06008e-07
-1.98157e-05
4.30012e-06
-5.01187e-06
2.05274e-05
3.95091e-06
-2.56698e-06
-1.40994e-05
1.8441e-06
-5.07022e-06
1.59415e-05
1.68344e-07
-2.45481e-07
-1.25999e-06
7.56063e-07
-1.18726e-06
1.76832e-06
8.38663e-06
-2.29002e-06
-1.49327e-06
2.47372e-06
-6.7036e-06
-3.73463e-07
4.76399e-06
-2.84457e-07
-3.07022e-05
-1.245e-08
-4.66723e-06
3.09024e-05
-8.81538e-06
-2.01934e-05
8.3093e-05
5.14083e-06
4.83606e-06
5.19047e-06
5.2218e-06
5.21383e-07
1.20577e-06
1.60877e-06
2.09057e-06
-2.9083e-07
-2.07598e-06
9.37565e-05
6.30741e-07
-1.04885e-06
8.28035e-07
-1.17568e-06
-2.89261e-07
-1.44049e-06
0.000181154
-1.29472e-06
-4.31843e-07
-1.14115e-06
-5.38499e-07
8.80368e-07
-7.79965e-07
1.39757e-06
-3.54602e-05
2.45009e-06
-2.29038e-06
3.50112e-05
-1.13102e-05
1.13303e-06
-1.42534e-06
1.16025e-05
2.02372e-06
-4.02866e-05
4.07477e-06
-3.43446e-06
-3.10761e-06
4.07301e-05
-3.70639e-06
-1.17765e-05
9.26413e-05
2.90699e-06
1.44208e-06
3.78217e-06
2.67204e-06
-9.00483e-07
-1.65293e-07
6.84198e-05
6.45398e-07
-5.769e-07
0.000128851
-3.74261e-07
8.45489e-07
-5.37732e-07
-4.1974e-07
5.15216e-07
5.96744e-08
-2.65162e-05
1.68159e-06
-1.04748e-07
2.34119e-07
2.53506e-05
-4.94771e-05
8.7724e-07
-2.26489e-06
-1.06358e-06
4.94427e-05
2.48568e-06
-5.87314e-06
2.92402e-06
0.000102398
2.41706e-06
2.96777e-06
4.07483e-06
3.36802e-06
2.50803e-06
3.0186e-06
2.78815e-06
-9.24061e-07
2.52981e-07
3.59128e-05
-1.08883e-06
-7.03942e-07
-1.32351e-06
1.12016e-06
-1.91656e-07
8.84619e-07
-2.18822e-05
-1.18821e-06
1.02456e-06
2.05449e-05
-2.65992e-06
-1.17057e-06
1.93233e-06
1.89816e-06
-2.50795e-05
-2.45617e-07
1.47883e-06
2.67703e-05
-4.40449e-06
7.53811e-07
-2.89327e-06
5.99774e-07
6.19716e-06
-1.67834e-06
-2.1844e-06
2.2943e-06
1.56845e-06
-1.05286e-06
-2.59018e-06
2.291e-06
1.35204e-06
-2.11602e-05
4.47229e-06
-5.06988e-06
2.17578e-05
3.62146e-06
-2.46102e-06
-1.78945e-05
1.83462e-06
-4.75654e-06
1.9656e-05
4.67869e-07
-2.94669e-06
-1.58111e-06
1.22945e-06
-1.75581e-06
4.58628e-06
4.72437e-06
-1.99958e-06
-8.67163e-07
1.43475e-06
-2.46456e-06
-8.27818e-07
4.6726e-06
2.91171e-07
-3.15329e-05
-1.45334e-06
-4.40818e-06
3.24307e-05
-1.83474e-05
-1.36458e-05
8.24643e-05
4.81434e-06
4.6121e-06
4.72265e-06
4.9029e-06
3.03015e-06
2.77484e-06
3.71545e-06
4.04942e-06
-8.39832e-06
1.58017e-06
7.87003e-05
1.75316e-06
7.33846e-08
2.0843e-06
-3.83888e-07
-1.87477e-06
4.44279e-06
0.000173883
-8.75873e-07
-6.44514e-07
-1.30057e-06
-9.44257e-07
1.36824e-06
-2.67689e-06
1.37859e-06
-3.35129e-05
4.9695e-07
8.9207e-07
3.02491e-05
-1.19482e-05
9.37185e-07
-1.28128e-06
1.22923e-05
1.98978e-06
-4.14437e-05
3.97398e-06
-3.49111e-06
-3.22486e-06
4.21959e-05
-1.08244e-05
-5.52086e-06
8.31518e-05
3.03482e-06
1.98834e-06
3.92616e-06
3.2396e-06
-6.78094e-06
8.0501e-06
5.79065e-05
4.05898e-07
1.37173e-06
0.000119843
-5.81501e-07
-2.66683e-07
-7.43656e-07
1.41438e-06
3.17157e-06
1.89807e-06
-2.45075e-05
-1.42357e-06
-7.25668e-07
3.45161e-06
2.36111e-05
-5.00086e-05
9.33185e-07
-3.25429e-06
-6.38655e-07
5.03929e-05
2.57543e-06
-1.47397e-05
2.77475e-06
8.56258e-05
3.56678e-06
3.86787e-06
4.92757e-06
4.07562e-06
2.21983e-06
2.63162e-06
1.92691e-06
-2.395e-06
6.37009e-07
3.51381e-05
-2.31614e-06