/*--------------------------------*- C++ -*----------------------------------*\
| =========                 |                                                 |
| \\      /  F ield         | OpenFOAM: The Open Source CFD Toolbox           |
|  \\    /   O peration     | Version:  5.x                                   |
|   \\  /    A nd           | Web:      www.OpenFOAM.org                      |
|    \\/     M anipulation  |                                                 |
\*---------------------------------------------------------------------------*/
FoamFile
{
    version     2.0;
    format      ascii;
    class       volVectorField;
    location    "10";
    object      Us;
}
// * * * * * * * * * * * * * * * * * * * * * * * * * * * * * * * * * * * * * //

dimensions      [0 1 -1 0 0 0 0];

internalField   nonuniform List<vector> 
10571
(
(0.146964 -0.00365024 -0.164502)
(-0.0671768 0.0819037 -0.0614799)
(0.00921339 0.0556284 -0.142745)
(0.133707 0.0255772 -0.12619)
(0.165805 0.0554638 -0.0333169)
(-0.0530937 0.168187 -0.0668691)
(-0.0161684 0.0991775 -0.0774238)
(0.138297 -0.0130841 -0.0511309)
(0.203849 -0.0956987 0.0621951)
(-0.00328353 -0.0116602 0.0346064)
(-0.00716659 0.0790071 -0.0363921)
(-0.0831732 0.0214866 -0.0438112)
(-0.0918326 0.0979475 -0.0411941)
(0.0329945 0.0618619 -0.0727893)
(0.104883 -0.019981 -0.0138831)
(0.0250254 -0.0627903 0.0217338)
(-0.00716996 -0.00162581 -0.068753)
(-0.054726 0.158654 -0.0408031)
(0.00628163 0.197687 -0.0436425)
(-0.0422472 0.0660097 0.000977399)
(-0.0350985 0.0260748 -0.00421315)
(0.0694747 0.0401814 -0.0118715)
(0.0774857 0.0587469 0.0256835)
(-0.0447597 0.0341028 -0.00563742)
(0.0697631 0.0314299 -0.154249)
(-0.108985 0.0993241 -0.123952)
(-0.0419388 0.0900417 -0.365367)
(0.103057 0.168899 -0.168692)
(0.220073 0.160103 -0.0699479)
(-0.103674 0.131703 0.0437382)
(0.00817932 0.139162 -0.213431)
(0.101986 0.140159 0.0566556)
(0.118635 0.0292618 0.220887)
(0.028813 0.0259555 0.105362)
(-0.00230263 0.0617081 0.0710604)
(-0.0427901 0.0278689 0.138568)
(-0.0146817 0.183913 0.0442917)
(-0.0169876 0.0635482 0.0753089)
(-0.0251939 -0.00177752 0.127165)
(0.0125006 -0.00897541 0.135453)
(-0.0235955 0.0191545 0.137542)
(0.012473 0.132241 0.2523)
(0.0273052 0.101802 0.22455)
(-0.0202417 0.0416339 0.0911717)
(-0.00808243 0.000589942 0.0387096)
(0.0316502 0.00141031 0.21154)
(0.11919 0.0234141 0.187856)
(0.00634635 0.0109256 0.059872)
(0.0248999 0.0210991 -0.317471)
(-0.112266 0.125319 -0.0957427)
(-0.0839946 0.0797037 -0.490204)
(0.0729513 0.225368 -0.17491)
(0.135458 0.190157 0.207663)
(-0.0814867 0.10007 0.191101)
(-0.0539048 0.0997153 -0.41684)
(0.00468667 0.130067 0.153268)
(0.0180148 0.155576 0.347091)
(0.0605458 0.233814 0.188441)
(0.00502907 0.0879155 0.253193)
(0.0149213 0.0335392 0.378952)
(-0.0345222 0.165673 0.0599007)
(-0.0589558 0.0214405 0.111683)
(-0.0789268 0.0086875 0.151145)
(-0.0296357 0.0389582 0.180968)
(0.0139007 0.0427356 0.379383)
(-0.0150694 0.0868575 0.348149)
(-0.0281028 0.00185071 0.307623)
(-0.0629964 -0.0228989 0.133786)
(-0.00265123 -0.00430579 0.0207407)
(-0.0522505 -0.0233918 0.29141)
(-0.109921 0.000174944 0.373524)
(-0.0206214 0.00935144 0.107795)
(0.0121341 0.0200299 -0.672636)
(-0.0607184 0.0917456 -0.720804)
(-0.0619277 0.0471551 -0.632758)
(-0.0288615 0.0107454 -0.605145)
(-0.054392 0.0232012 0.0294856)
(-0.0553105 0.0359731 0.279768)
(-0.0182144 0.0892415 -0.661749)
(-0.0805587 0.101738 -0.0951855)
(-0.0206016 0.172577 0.383274)
(0.0368031 0.19713 0.336783)
(0.0064055 0.100106 0.336122)
(-0.0113903 0.137687 0.517599)
(0.0119351 0.117121 0.193451)
(-0.0902922 0.0159468 0.0375619)
(-0.0921307 0.0748292 0.22037)
(-0.0466215 0.090756 0.208546)
(0.0383559 0.172401 0.498689)
(-0.0632564 0.0662509 0.399238)
(-0.0623477 -0.0230137 0.30487)
(-0.0167435 -0.0460441 0.104888)
(-0.013498 -0.00804852 -0.0105334)
(-0.124467 0.109092 -0.00890495)
(-0.167798 0.0268794 0.249756)
(-0.00412488 0.00457791 0.0326246)
(0.0139445 0.0101702 -0.981261)
(-0.0594543 0.0295084 -0.767644)
(-0.0240311 0.0396926 -0.736899)
(0 0 0)
(0 0 0)
(0 0 0)
(-0.0173252 0.0618117 -0.818856)
(-0.0898815 0.0853361 -0.450521)
(-0.021751 0.120852 0.355952)
(0.0168569 0.0890387 0.314345)
(-0.0373741 0.122991 0.380251)
(-0.0442319 0.170447 0.451834)
(0.0506504 0.0251675 0.259827)
(-0.131862 0.140362 -0.218784)
(-0.0773718 0.150416 0.264889)
(-0.027454 0.11367 0.169833)
(0.00373999 0.276419 0.527224)
(-0.0683725 0.0185432 0.182505)
(-0.0492201 0.0207426 0.242618)
(-0.0406751 0.0621684 -0.398596)
(-0.00139168 0.133084 -0.301189)
(-0.186806 -0.0438976 -0.458221)
(-0.109328 0.0727873 -0.43311)
(-0.0898052 0.00499543 -0.448082)
(0.0228683 -0.00972537 -0.992882)
(-0.0285132 0.0500877 -0.743494)
(-0.0316054 0.0398448 -0.689914)
(0.003855 0.023306 -0.819724)
(0.0551135 0.0560498 -0.932553)
(0 0 0)
(-0.0255634 0.0439865 -0.869698)
(-0.0436802 0.0179163 -0.577205)
(-0.0592963 0.0652727 0.373199)
(0.0831943 0.0414648 0.346031)
(-0.00800285 0.00383353 -0.00248873)
(0.0234487 0.189395 -0.40029)
(-0.0583088 0.0500183 -0.822049)
(-0.266515 -0.0133844 -0.558197)
(-0.081791 0.0337105 -0.430436)
(-0.0564596 0.0707132 -0.270676)
(-0.00229582 0.0315441 -0.264955)
(-0.00369667 -0.00164545 -0.00164095)
(0 0 0)
(-0.132564 -0.132514 -0.390858)
(-0.127382 0.101601 -0.427563)
(-0.057555 0.121839 -0.38137)
(-0.0507823 0.0961887 -0.269559)
(-0.160017 -0.0923903 -0.426145)
(-0.132216 0.017022 -0.455894)
(-0.118405 0.0226017 -0.38758)
(0.0436651 -0.0139411 -0.921782)
(-0.0182732 0.05837 -0.802778)
(2.70328e-15 1.82178e-15 -4.95228e-13)
(-0.00663889 0.00557553 -0.938797)
(1.38602e-14 1.30915e-14 -5.31083e-13)
(-0.0244898 0.0604151 -0.837979)
(-0.0101566 0.0671334 -0.708396)
(-0.107138 0.0316242 -0.270565)
(0 0 0)
(0.0174266 0.162118 -0.489044)
(0 0 0)
(0 0 0)
(0.0420665 0.0554356 -0.884041)
(0 0 0)
(-0.119612 0.041238 -0.279454)
(-0.066692 0.0375278 -0.291126)
(-0.0409562 -0.0623816 -0.28879)
(0.120207 -0.112922 -0.406866)
(0 0 0)
(-0.158856 -0.0563974 -0.381274)
(-0.109335 0.0976032 -0.375805)
(-0.0636291 0.130534 -0.311641)
(-0.0314557 0.0838335 -0.302025)
(0.0220817 -0.0674803 -0.294174)
(-0.180037 -0.100734 -0.39614)
(-0.119667 0.0772523 -0.392618)
(-0.101136 0.0838588 -0.334337)
(1.5804e-14 -1.39875e-14 -4.86142e-13)
(0 0 0)
(-0.00832104 -0.0102457 -0.869826)
(0 0 0)
(0 0 0)
(0 0 0)
(-0.0193106 0.0542523 -0.548522)
(0 0 0)
(0 0 0)
(0 0 0)
(0.133652 -0.173604 -0.2829)
(0 0 0)
(0 0 0)
(-0.198063 0.0679616 -0.358787)
(-0.129542 0.03672 -0.309233)
(-0.089531 0.0185258 -0.252691)
(0 0 0)
(0.12421 -0.112535 -0.335947)
(0 0 0)
(-0.182169 -0.094717 -0.355413)
(-0.133543 0.0815014 -0.324926)
(-0.109123 0.0883025 -0.248842)
(-0.067126 0.0351585 -0.214381)
(0 0 0)
(-0.17106 -0.130686 -0.340967)
(-0.143018 0.1641 -0.349426)
(-0.140365 0.162159 -0.257718)
(0 0 0)
(0 0 0)
(-0.0222707 -0.00718241 -0.844013)
(0.0286757 0.0320307 -0.592367)
(0 0 0)
(0 0 0)
(-0.0102924 0.0608766 -0.879176)
(0 0 0)
(0 0 0)
(0 0 0)
(0 0 0)
(0.0464311 0.0649455 -0.739397)
(3.99371e-14 2.88537e-14 -4.44373e-13)
(0 0 0)
(-0.168397 0.0748135 -0.290881)
(-0.0570752 0.0571878 -0.23378)
(-0.0196629 -0.0502468 -0.246603)
(0.0937531 -0.153192 -0.206897)
(0 0 0)
(-0.17103 -0.00277339 -0.346502)
(-0.139798 0.110057 -0.295731)
(-0.0826695 0.122694 -0.245717)
(-0.00965813 0.010634 -0.261749)
(-0.208361 -0.136603 -0.288911)
(-0.172082 0.0622412 -0.323342)
(-0.154674 0.0734895 -0.215365)
(0 0 0)
(0 0 0)
(0 0 0)
(0 0 0)
(0 0 0)
(0 0 0)
(0 0 0)
(0 0 0)
(-0.0540844 -0.00506559 -0.0507553)
(0 0 0)
(0.0189817 0.0612249 -0.783084)
(0 0 0)
(0 0 0)
(-0.12247 0.0692766 -0.257643)
(-0.103641 -0.00205866 -0.154366)
(-0.0466548 0.0304787 -0.235769)
(0 0 0)
(-0.206078 -0.0377877 -0.263153)
(-0.159322 0.108246 -0.229653)
(-0.0923983 0.0891244 -0.209016)
(-4.92497e-14 2.12827e-14 -8.02483e-14)
(0 0 0)
(-0.194613 0.0373946 -0.293468)
(-0.174384 0.0450765 -0.199124)
(0 0 0)
(0 0 0)
(0 0 0)
(0 0 0)
(0 0 0)
(0 0 0)
(-0.0124176 0.0393292 -0.817318)
(0 0 0)
(0 0 0)
(0 0 0)
(3.0759e-14 4.59753e-14 -4.19726e-13)
(0.0800698 0.0314346 -0.776725)
(0 0 0)
(-0.109923 0.0604556 -0.176352)
(-0.0972711 0.0523768 -0.155093)
(-0.0403389 0.0160222 -0.0594244)
(0 0 0)
(-0.212726 -0.103014 -0.240867)
(-0.127434 0.0918996 -0.216662)
(0 0 0)
(-0.028976 0.0209339 -0.140671)
(0 0 0)
(-0.182859 -0.00545263 -0.256131)
(-0.157369 0.0709612 -0.154215)
(0 0 0)
(0 0 0)
(0 0 0)
(0 0 0)
(0 0 0)
(-0.0475261 0.0490515 -0.784003)
(-0.0124176 0.0393292 -0.817318)
(0 0 0)
(0 0 0)
(0 0 0)
(0.0390619 0.0770916 -0.767519)
(0 0 0)
(0 0 0)
(0 0 0)
(-0.105395 -0.0526551 -0.0179834)
(-0.0097272 -0.116665 -0.0523787)
(0 0 0)
(0 0 0)
(0 0 0)
(0 0 0)
(-0.0460934 0.0256796 -0.0967474)
(0 0 0)
(-0.170989 -0.0342971 -0.186885)
(-0.14299 0.0557318 -0.160248)
(0 0 0)
(0 0 0)
(0 0 0)
(0 0 0)
(0 0 0)
(0 0 0)
(0 0 0)
(0 0 0)
(0 0 0)
(0 0 0)
(0.00669238 0.105303 -0.753824)
(0.0423065 0.0698498 -0.803437)
(0 0 0)
(0 0 0)
(-0.105395 -0.0526551 -0.0179834)
(0 0 0)
(0 0 0)
(0 0 0)
(0 0 0)
(0 0 0)
(0 0 0)
(0 0 0)
(-0.165968 -0.065055 -0.120937)
(-0.161907 0.0255439 0.00331244)
(0 0 0)
(0 0 0)
(0 0 0)
(0 0 0)
(0 0 0)
(0 0 0)
(0 0 0)
(0 0 0)
(0 0 0)
(0 0 0)
(-0.00549178 0.0922943 -0.768836)
(0 0 0)
(0 0 0)
(0 0 0)
(0 0 0)
(0 0 0)
(0 0 0)
(0 0 0)
(0 0 0)
(0 0 0)
(0 0 0)
(0 0 0)
(0 0 0)
(0 0 0)
(0 0 0)
(0 0 0)
(0 0 0)
(0 0 0)
(0 0 0)
(0 0 0)
(0 0 0)
(0 0 0)
(0 0 0)
(0 0 0)
(0 0 0)
(0 0 0)
(0 0 0)
(0 0 0)
(0 0 0)
(0 0 0)
(0 0 0)
(0 0 0)
(0 0 0)
(0 0 0)
(0 0 0)
(0 0 0)
(0 0 0)
(0 0 0)
(0 0 0)
(0 0 0)
(0 0 0)
(0 0 0)
(0 0 0)
(0 0 0)
(0 0 0)
(0 0 0)
(0 0 0)
(0 0 0)
(0 0 0)
(0 0 0)
(0 0 0)
(0 0 0)
(0 0 0)
(0 0 0)
(0 0 0)
(0 0 0)
(0 0 0)
(0 0 0)
(0 0 0)
(0 0 0)
(0 0 0)
(0 0 0)
(0 0 0)
(0 0 0)
(0.00256686 0.0063453 -0.681969)
(0 0 0)
(0 0 0)
(0 0 0)
(0 0 0)
(0 0 0)
(0 0 0)
(0 0 0)
(0 0 0)
(0 0 0)
(0 0 0)
(0 0 0)
(0 0 0)
(0 0 0)
(0 0 0)
(0 0 0)
(0 0 0)
(0 0 0)
(0 0 0)
(0 0 0)
(0 0 0)
(0 0 0)
(0 0 0)
(0 0 0)
(0 0 0)
(0 0 0)
(0 0 0)
(0 0 0)
(0 0 0)
(0 0 0)
(0 0 0)
(0 0 0)
(0.0380381 0.0936565 -0.724139)
(0 0 0)
(0 0 0)
(0 0 0)
(0 0 0)
(0 0 0)
(0 0 0)
(0 0 0)
(0 0 0)
(0 0 0)
(0 0 0)
(0 0 0)
(0 0 0)
(0 0 0)
(0 0 0)
(0 0 0)
(0 0 0)
(0 0 0)
(0 0 0)
(0 0 0)
(0 0 0)
(0 0 0)
(0 0 0)
(0 0 0)
(0 0 0)
(0 0 0)
(0 0 0)
(0 0 0)
(0 0 0)
(0 0 0)
(0 0 0)
(0 0 0)
(0 0 0)
(0 0 0)
(0 0 0)
(0 0 0)
(0 0 0)
(0 0 0)
(0 0 0)
(0 0 0)
(0 0 0)
(0 0 0)
(0 0 0)
(0.0289333 0.0651259 -0.732861)
(0 0 0)
(0 0 0)
(0 0 0)
(0 0 0)
(-0.0225827 0.107714 -0.727886)
(0 0 0)
(0 0 0)
(0 0 0)
(0 0 0)
(0 0 0)
(0 0 0)
(0 0 0)
(0 0 0)
(0 0 0)
(0 0 0)
(0 0 0)
(0 0 0)
(0 0 0)
(0 0 0)
(0 0 0)
(0 0 0)
(0 0 0)
(0 0 0)
(0 0 0)
(0 0 0)
(0 0 0)
(0 0 0)
(0 0 0)
(0 0 0)
(0 0 0)
(0 0 0)
(0 0 0)
(0 0 0)
(0 0 0)
(0 0 0)
(0 0 0)
(0 0 0)
(0 0 0)
(0 0 0)
(0 0 0)
(0 0 0)
(0 0 0)
(0 0 0)
(0 0 0)
(0 0 0)
(0 0 0)
(0 0 0)
(-1.11755e-14 3.98809e-14 -3.88966e-13)
(0 0 0)
(0 0 0)
(0 0 0)
(0 0 0)
(0.0151516 0.113305 -0.670763)
(0 0 0)
(0 0 0)
(0 0 0)
(0 0 0)
(0 0 0)
(0 0 0)
(0 0 0)
(0 0 0)
(0 0 0)
(0 0 0)
(0 0 0)
(0 0 0)
(0 0 0)
(0 0 0)
(0 0 0)
(0 0 0)
(0 0 0)
(0 0 0)
(0 0 0)
(0 0 0)
(0 0 0)
(0 0 0)
(0 0 0)
(0 0 0)
(0 0 0)
(0 0 0)
(0 0 0)
(0 0 0)
(0 0 0)
(0 0 0)
(0 0 0)
(0 0 0)
(0 0 0)
(0 0 0)
(0 0 0)
(0 0 0)
(0 0 0)
(0 0 0)
(0 0 0)
(0 0 0)
(0 0 0)
(0 0 0)
(0 0 0)
(0 0 0)
(0 0 0)
(0 0 0)
(0 0 0)
(0 0 0)
(0 0 0)
(0 0 0)
(0 0 0)
(0 0 0)
(0 0 0)
(0 0 0)
(0 0 0)
(0 0 0)
(0 0 0)
(0 0 0)
(0 0 0)
(0 0 0)
(0 0 0)
(0 0 0)
(0 0 0)
(0 0 0)
(0 0 0)
(0 0 0)
(0 0 0)
(0 0 0)
(0 0 0)
(0 0 0)
(0 0 0)
(0 0 0)
(0 0 0)
(0 0 0)
(0 0 0)
(0 0 0)
(0 0 0)
(0 0 0)
(0 0 0)
(0 0 0)
(0 0 0)
(0 0 0)
(0 0 0)
(0 0 0)
(0 0 0)
(0 0 0)
(0 0 0)
(0 0 0)
(0 0 0)
(0 0 0)
(0 0 0)
(0 0 0)
(0 0 0)
(0 0 0)
(0 0 0)
(0 0 0)
(0 0 0)
(0 0 0)
(0 0 0)
(0 0 0)
(0 0 0)
(0 0 0)
(0 0 0)
(0 0 0)
(0 0 0)
(0 0 0)
(0 0 0)
(0 0 0)
(0 0 0)
(0 0 0)
(0 0 0)
(0 0 0)
(0 0 0)
(0 0 0)
(0 0 0)
(0 0 0)
(0 0 0)
(0 0 0)
(0 0 0)
(0 0 0)
(0 0 0)
(0 0 0)
(0 0 0)
(0 0 0)
(0 0 0)
(0 0 0)
(0 0 0)
(0 0 0)
(0 0 0)
(0 0 0)
(0 0 0)
(0 0 0)
(0 0 0)
(0 0 0)
(0 0 0)
(0 0 0)
(0 0 0)
(0 0 0)
(0 0 0)
(0 0 0)
(0 0 0)
(0 0 0)
(0 0 0)
(0 0 0)
(0 0 0)
(0 0 0)
(0 0 0)
(0 0 0)
(0 0 0)
(0 0 0)
(0 0 0)
(0 0 0)
(0 0 0)
(0 0 0)
(0 0 0)
(0 0 0)
(0 0 0)
(0 0 0)
(0 0 0)
(0 0 0)
(0 0 0)
(0 0 0)
(0 0 0)
(0 0 0)
(0 0 0)
(0 0 0)
(0 0 0)
(0 0 0)
(0 0 0)
(0 0 0)
(0 0 0)
(0 0 0)
(0 0 0)
(0 0 0)
(0 0 0)
(0 0 0)
(0 0 0)
(0 0 0)
(0 0 0)
(0 0 0)
(0 0 0)
(0 0 0)
(0 0 0)
(0 0 0)
(0 0 0)
(0 0 0)
(0 0 0)
(0 0 0)
(0 0 0)
(0 0 0)
(0 0 0)
(0 0 0)
(0 0 0)
(0 0 0)
(0 0 0)
(0 0 0)
(0 0 0)
(0 0 0)
(0 0 0)
(0 0 0)
(0 0 0)
(0 0 0)
(0 0 0)
(0 0 0)
(0 0 0)
(0 0 0)
(0 0 0)
(0 0 0)
(0 0 0)
(0 0 0)
(0 0 0)
(0 0 0)
(0 0 0)
(0 0 0)
(0 0 0)
(0 0 0)
(0 0 0)
(0 0 0)
(0 0 0)
(0 0 0)
(0 0 0)
(0 0 0)
(0 0 0)
(0 0 0)
(0 0 0)
(0 0 0)
(0 0 0)
(0 0 0)
(0 0 0)
(0 0 0)
(0 0 0)
(0 0 0)
(0 0 0)
(0 0 0)
(0 0 0)
(0 0 0)
(0 0 0)
(0 0 0)
(0 0 0)
(0 0 0)
(0 0 0)
(0 0 0)
(0 0 0)
(0 0 0)
(0 0 0)
(0 0 0)
(0 0 0)
(0 0 0)
(0 0 0)
(0 0 0)
(0 0 0)
(0 0 0)
(0 0 0)
(0 0 0)
(0 0 0)
(0 0 0)
(0 0 0)
(0 0 0)
(0 0 0)
(0 0 0)
(0 0 0)
(0 0 0)
(0 0 0)
(0 0 0)
(0 0 0)
(0 0 0)
(0 0 0)
(0 0 0)
(0 0 0)
(0 0 0)
(0 0 0)
(0 0 0)
(0 0 0)
(0 0 0)
(0 0 0)
(0 0 0)
(0 0 0)
(0 0 0)
(0 0 0)
(0 0 0)
(0 0 0)
(0 0 0)
(0 0 0)
(0 0 0)
(0 0 0)
(0 0 0)
(0 0 0)
(0 0 0)
(0 0 0)
(0 0 0)
(0 0 0)
(0 0 0)
(0 0 0)
(0 0 0)
(0 0 0)
(0 0 0)
(0 0 0)
(0 0 0)
(0 0 0)
(0 0 0)
(0 0 0)
(0 0 0)
(0 0 0)
(0 0 0)
(0 0 0)
(0 0 0)
(0 0 0)
(0 0 0)
(0 0 0)
(0 0 0)
(0 0 0)
(0 0 0)
(0 0 0)
(0 0 0)
(0 0 0)
(0 0 0)
(0 0 0)
(0 0 0)
(0 0 0)
(0 0 0)
(0 0 0)
(0 0 0)
(0 0 0)
(0 0 0)
(0 0 0)
(0 0 0)
(0 0 0)
(0 0 0)
(0 0 0)
(0 0 0)
(0 0 0)
(0 0 0)
(0 0 0)
(0 0 0)
(0 0 0)
(0 0 0)
(0 0 0)
(0 0 0)
(0 0 0)
(0 0 0)
(0 0 0)
(0 0 0)
(0 0 0)
(0 0 0)
(0 0 0)
(0 0 0)
(0 0 0)
(0 0 0)
(0 0 0)
(0 0 0)
(0 0 0)
(0 0 0)
(0 0 0)
(0 0 0)
(0 0 0)
(0 0 0)
(0 0 0)
(0 0 0)
(0 0 0)
(0 0 0)
(0 0 0)
(0 0 0)
(0 0 0)
(0 0 0)
(0 0 0)
(0 0 0)
(0 0 0)
(0 0 0)
(0 0 0)
(0 0 0)
(0 0 0)
(0 0 0)
(0 0 0)
(0 0 0)
(0 0 0)
(0 0 0)
(0 0 0)
(0 0 0)
(0 0 0)
(0 0 0)
(0 0 0)
(0 0 0)
(0 0 0)
(0 0 0)
(0 0 0)
(0 0 0)
(0 0 0)
(0 0 0)
(0 0 0)
(0 0 0)
(0 0 0)
(0 0 0)
(0 0 0)
(0 0 0)
(0 0 0)
(0 0 0)
(0 0 0)
(0 0 0)
(0 0 0)
(0 0 0)
(0 0 0)
(0 0 0)
(0 0 0)
(0 0 0)
(0 0 0)
(0 0 0)
(0 0 0)
(0 0 0)
(0 0 0)
(0 0 0)
(0 0 0)
(0 0 0)
(0 0 0)
(0 0 0)
(0 0 0)
(0 0 0)
(0 0 0)
(0 0 0)
(0 0 0)
(0 0 0)
(0 0 0)
(0 0 0)
(0 0 0)
(0 0 0)
(0 0 0)
(0 0 0)
(0 0 0)
(0 0 0)
(0 0 0)
(0 0 0)
(0 0 0)
(0 0 0)
(0 0 0)
(0 0 0)
(0 0 0)
(0 0 0)
(0 0 0)
(0 0 0)
(0 0 0)
(0 0 0)
(0 0 0)
(0 0 0)
(0 0 0)
(0 0 0)
(0 0 0)
(0 0 0)
(0 0 0)
(0 0 0)
(0 0 0)
(0 0 0)
(0 0 0)
(0 0 0)
(0 0 0)
(0 0 0)
(0 0 0)
(0 0 0)
(0 0 0)
(0 0 0)
(0 0 0)
(0 0 0)
(0 0 0)
(0 0 0)
(0 0 0)
(0 0 0)
(0 0 0)
(0 0 0)
(0 0 0)
(0 0 0)
(0 0 0)
(0 0 0)
(0 0 0)
(0 0 0)
(0 0 0)
(0 0 0)
(0 0 0)
(0 0 0)
(0 0 0)
(0 0 0)
(0 0 0)
(0 0 0)
(0 0 0)
(0 0 0)
(0 0 0)
(0 0 0)
(0 0 0)
(0 0 0)
(0 0 0)
(0 0 0)
(0 0 0)
(0 0 0)
(0 0 0)
(0 0 0)
(0 0 0)
(0 0 0)
(0 0 0)
(0 0 0)
(0 0 0)
(0 0 0)
(0 0 0)
(0 0 0)
(0 0 0)
(0 0 0)
(0 0 0)
(0 0 0)
(0 0 0)
(0 0 0)
(0 0 0)
(0 0 0)
(0 0 0)
(0 0 0)
(0 0 0)
(0 0 0)
(0 0 0)
(0 0 0)
(0 0 0)
(0 0 0)
(0 0 0)
(0 0 0)
(0 0 0)
(0 0 0)
(0 0 0)
(0 0 0)
(0 0 0)
(0 0 0)
(0 0 0)
(0 0 0)
(0 0 0)
(0 0 0)
(0 0 0)
(0 0 0)
(0 0 0)
(0 0 0)
(0 0 0)
(0 0 0)
(0 0 0)
(0 0 0)
(0 0 0)
(0 0 0)
(0 0 0)
(0 0 0)
(0 0 0)
(0 0 0)
(0 0 0)
(0 0 0)
(0 0 0)
(0 0 0)
(0 0 0)
(0 0 0)
(0 0 0)
(0 0 0)
(0 0 0)
(0 0 0)
(0 0 0)
(0 0 0)
(0 0 0)
(0 0 0)
(0 0 0)
(0 0 0)
(0 0 0)
(0 0 0)
(0 0 0)
(0 0 0)
(0 0 0)
(0 0 0)
(0 0 0)
(0 0 0)
(0 0 0)
(0 0 0)
(0 0 0)
(0 0 0)
(0 0 0)
(0 0 0)
(0 0 0)
(0 0 0)
(0 0 0)
(0 0 0)
(0 0 0)
(0 0 0)
(0 0 0)
(0 0 0)
(0 0 0)
(0 0 0)
(0 0 0)
(0 0 0)
(0 0 0)
(0 0 0)
(0 0 0)
(0 0 0)
(0 0 0)
(0 0 0)
(0 0 0)
(0 0 0)
(0 0 0)
(0 0 0)
(0 0 0)
(0 0 0)
(0 0 0)
(0 0 0)
(0 0 0)
(0 0 0)
(0 0 0)
(0 0 0)
(0 0 0)
(0 0 0)
(0 0 0)
(0 0 0)
(0 0 0)
(0 0 0)
(0 0 0)
(0 0 0)
(0 0 0)
(0 0 0)
(0 0 0)
(0 0 0)
(0 0 0)
(0 0 0)
(0 0 0)
(0 0 0)
(0 0 0)
(0 0 0)
(0 0 0)
(0 0 0)
(0 0 0)
(0 0 0)
(0 0 0)
(0 0 0)
(0 0 0)
(0 0 0)
(0 0 0)
(0 0 0)
(0 0 0)
(0 0 0)
(0 0 0)
(0 0 0)
(0 0 0)
(0 0 0)
(0 0 0)
(0 0 0)
(0 0 0)
(0 0 0)
(0 0 0)
(0 0 0)
(0 0 0)
(0 0 0)
(0 0 0)
(0 0 0)
(0 0 0)
(0 0 0)
(0 0 0)
(0 0 0)
(0 0 0)
(0 0 0)
(0 0 0)
(0 0 0)
(0 0 0)
(0 0 0)
(0 0 0)
(0 0 0)
(0 0 0)
(0 0 0)
(0 0 0)
(0 0 0)
(0 0 0)
(0 0 0)
(0 0 0)
(0 0 0)
(0 0 0)
(0 0 0)
(0 0 0)
(0 0 0)
(0 0 0)
(0 0 0)
(0 0 0)
(0 0 0)
(0 0 0)
(0 0 0)
(0 0 0)
(0 0 0)
(0 0 0)
(0 0 0)
(0 0 0)
(0 0 0)
(0 0 0)
(0 0 0)
(0 0 0)
(0 0 0)
(0 0 0)
(0 0 0)
(0 0 0)
(0 0 0)
(0 0 0)
(0 0 0)
(0 0 0)
(0 0 0)
(0 0 0)
(0 0 0)
(0 0 0)
(0 0 0)
(0 0 0)
(0 0 0)
(0 0 0)
(0 0 0)
(0 0 0)
(0 0 0)
(0 0 0)
(0 0 0)
(0 0 0)
(0 0 0)
(0 0 0)
(0 0 0)
(0 0 0)
(0 0 0)
(0 0 0)
(0 0 0)
(0 0 0)
(0 0 0)
(0 0 0)
(0 0 0)
(0 0 0)
(0 0 0)
(0 0 0)
(0 0 0)
(0 0 0)
(0 0 0)
(0 0 0)
(0 0 0)
(0 0 0)
(0 0 0)
(0 0 0)
(0 0 0)
(0 0 0)
(0 0 0)
(0 0 0)
(0 0 0)
(0 0 0)
(0 0 0)
(0 0 0)
(0 0 0)
(0 0 0)
(0 0 0)
(0 0 0)
(0 0 0)
(0 0 0)
(0 0 0)
(0 0 0)
(0 0 0)
(0 0 0)
(0 0 0)
(0 0 0)
(0 0 0)
(0 0 0)
(0 0 0)
(0 0 0)
(0 0 0)
(0 0 0)
(0 0 0)
(0 0 0)
(0 0 0)
(0 0 0)
(0 0 0)
(0 0 0)
(0 0 0)
(0 0 0)
(0 0 0)
(0 0 0)
(0 0 0)
(0 0 0)
(0 0 0)
(0 0 0)
(0 0 0)
(0 0 0)
(0 0 0)
(0 0 0)
(0 0 0)
(0 0 0)
(0 0 0)
(0 0 0)
(0 0 0)
(0 0 0)
(0 0 0)
(0 0 0)
(0 0 0)
(0 0 0)
(0 0 0)
(0 0 0)
(0 0 0)
(0 0 0)
(0 0 0)
(0 0 0)
(0 0 0)
(0 0 0)
(0 0 0)
(0 0 0)
(0 0 0)
(0 0 0)
(0 0 0)
(0 0 0)
(0 0 0)
(0 0 0)
(0 0 0)
(0 0 0)
(0 0 0)
(0 0 0)
(0 0 0)
(0 0 0)
(0 0 0)
(0 0 0)
(0 0 0)
(0 0 0)
(0 0 0)
(0 0 0)
(0 0 0)
(0 0 0)
(0 0 0)
(0 0 0)
(0 0 0)
(0 0 0)
(0 0 0)
(0 0 0)
(0 0 0)
(0 0 0)
(0 0 0)
(0 0 0)
(0 0 0)
(0 0 0)
(0 0 0)
(0 0 0)
(0 0 0)
(0 0 0)
(0 0 0)
(0 0 0)
(0 0 0)
(0 0 0)
(0 0 0)
(0 0 0)
(0 0 0)
(0 0 0)
(0 0 0)
(0 0 0)
(0 0 0)
(0 0 0)
(0 0 0)
(0 0 0)
(0 0 0)
(0 0 0)
(0 0 0)
(0 0 0)
(0 0 0)
(0 0 0)
(0 0 0)
(0 0 0)
(0 0 0)
(0 0 0)
(0 0 0)
(0 0 0)
(0 0 0)
(0 0 0)
(0 0 0)
(0 0 0)
(0 0 0)
(0 0 0)
(0 0 0)
(0 0 0)
(0 0 0)
(0 0 0)
(0 0 0)
(0 0 0)
(0 0 0)
(0 0 0)
(0 0 0)
(0 0 0)
(0 0 0)
(0 0 0)
(0 0 0)
(0 0 0)
(0 0 0)
(0 0 0)
(0 0 0)
(0 0 0)
(0 0 0)
(0 0 0)
(0 0 0)
(0 0 0)
(0 0 0)
(0 0 0)
(0 0 0)
(0 0 0)
(0 0 0)
(0 0 0)
(0 0 0)
(0 0 0)
(0 0 0)
(0 0 0)
(0 0 0)
(0 0 0)
(0 0 0)
(0 0 0)
(0 0 0)
(0 0 0)
(0 0 0)
(0 0 0)
(0 0 0)
(0 0 0)
(0 0 0)
(0 0 0)
(0 0 0)
(0 0 0)
(0 0 0)
(0 0 0)
(0 0 0)
(0 0 0)
(0 0 0)
(0 0 0)
(0 0 0)
(0 0 0)
(0 0 0)
(0 0 0)
(0 0 0)
(0 0 0)
(0 0 0)
(0 0 0)
(0 0 0)
(0 0 0)
(0 0 0)
(0 0 0)
(0 0 0)
(0 0 0)
(0 0 0)
(0 0 0)
(0 0 0)
(0 0 0)
(0 0 0)
(0 0 0)
(0 0 0)
(0 0 0)
(0 0 0)
(0 0 0)
(0 0 0)
(0 0 0)
(0 0 0)
(0 0 0)
(0 0 0)
(0 0 0)
(0 0 0)
(0 0 0)
(0 0 0)
(0 0 0)
(0 0 0)
(0 0 0)
(0 0 0)
(0 0 0)
(0 0 0)
(0 0 0)
(0 0 0)
(0 0 0)
(0 0 0)
(0 0 0)
(0 0 0)
(0 0 0)
(0 0 0)
(0 0 0)
(0 0 0)
(0 0 0)
(0 0 0)
(0 0 0)
(0 0 0)
(0 0 0)
(0 0 0)
(0 0 0)
(0 0 0)
(0 0 0)
(0 0 0)
(0 0 0)
(0 0 0)
(0 0 0)
(0 0 0)
(0 0 0)
(0 0 0)
(0 0 0)
(0 0 0)
(0 0 0)
(0 0 0)
(0 0 0)
(0 0 0)
(0 0 0)
(0 0 0)
(0 0 0)
(0 0 0)
(0 0 0)
(0 0 0)
(0 0 0)
(0 0 0)
(0 0 0)
(0 0 0)
(0 0 0)
(0 0 0)
(0 0 0)
(0 0 0)
(0 0 0)
(0 0 0)
(0 0 0)
(0 0 0)
(0 0 0)
(0 0 0)
(0 0 0)
(0 0 0)
(0 0 0)
(0 0 0)
(0 0 0)
(0 0 0)
(0 0 0)
(0 0 0)
(0 0 0)
(0 0 0)
(0 0 0)
(0 0 0)
(0 0 0)
(0 0 0)
(0 0 0)
(0 0 0)
(0 0 0)
(0 0 0)
(0 0 0)
(0 0 0)
(0 0 0)
(0 0 0)
(0 0 0)
(0 0 0)
(0 0 0)
(0 0 0)
(0 0 0)
(0 0 0)
(0 0 0)
(0 0 0)
(0 0 0)
(0 0 0)
(0 0 0)
(0 0 0)
(0 0 0)
(0 0 0)
(0 0 0)
(0 0 0)
(0 0 0)
(0 0 0)
(0 0 0)
(0 0 0)
(0 0 0)
(0 0 0)
(0 0 0)
(0 0 0)
(0 0 0)
(0 0 0)
(0 0 0)
(0 0 0)
(0 0 0)
(0 0 0)
(0 0 0)
(0 0 0)
(0 0 0)
(0 0 0)
(0 0 0)
(0 0 0)
(0 0 0)
(0 0 0)
(0 0 0)
(0 0 0)
(0 0 0)
(0 0 0)
(0 0 0)
(0 0 0)
(0 0 0)
(0 0 0)
(0 0 0)
(0 0 0)
(0 0 0)
(0 0 0)
(0 0 0)
(0 0 0)
(0 0 0)
(0 0 0)
(0 0 0)
(0 0 0)
(0 0 0)
(0 0 0)
(0 0 0)
(0 0 0)
(0 0 0)
(0 0 0)
(0 0 0)
(0 0 0)
(0 0 0)
(0 0 0)
(0 0 0)
(0 0 0)
(0 0 0)
(0 0 0)
(0 0 0)
(0 0 0)
(0 0 0)
(0 0 0)
(0 0 0)
(0 0 0)
(0 0 0)
(0 0 0)
(0 0 0)
(0 0 0)
(0 0 0)
(0 0 0)
(0 0 0)
(0 0 0)
(0 0 0)
(0 0 0)
(0 0 0)
(0 0 0)
(0 0 0)
(0 0 0)
(0 0 0)
(0 0 0)
(0 0 0)
(0 0 0)
(0 0 0)
(0 0 0)
(0 0 0)
(0 0 0)
(0 0 0)
(0 0 0)
(0 0 0)
(0 0 0)
(0 0 0)
(0 0 0)
(0 0 0)
(0 0 0)
(0 0 0)
(0 0 0)
(0 0 0)
(0 0 0)
(0 0 0)
(0 0 0)
(0 0 0)
(0 0 0)
(0 0 0)
(0 0 0)
(0 0 0)
(0 0 0)
(0 0 0)
(0 0 0)
(0 0 0)
(0 0 0)
(0 0 0)
(0 0 0)
(0 0 0)
(0 0 0)
(0 0 0)
(0 0 0)
(0 0 0)
(0 0 0)
(0 0 0)
(0 0 0)
(0 0 0)
(0 0 0)
(0 0 0)
(0 0 0)
(0 0 0)
(0 0 0)
(0 0 0)
(0 0 0)
(0 0 0)
(0 0 0)
(0 0 0)
(0 0 0)
(0 0 0)
(0 0 0)
(0 0 0)
(0 0 0)
(0 0 0)
(0 0 0)
(0 0 0)
(0 0 0)
(0 0 0)
(0 0 0)
(0 0 0)
(0 0 0)
(0 0 0)
(0 0 0)
(0 0 0)
(0 0 0)
(0 0 0)
(0 0 0)
(0 0 0)
(0 0 0)
(0 0 0)
(0 0 0)
(0 0 0)
(0 0 0)
(0 0 0)
(0 0 0)
(0 0 0)
(0 0 0)
(0 0 0)
(0 0 0)
(0 0 0)
(0 0 0)
(0 0 0)
(0 0 0)
(0 0 0)
(0 0 0)
(0 0 0)
(0 0 0)
(0 0 0)
(0 0 0)
(0 0 0)
(0 0 0)
(0 0 0)
(0 0 0)
(0 0 0)
(0 0 0)
(0 0 0)
(0 0 0)
(0 0 0)
(0 0 0)
(0 0 0)
(0 0 0)
(0 0 0)
(0 0 0)
(0 0 0)
(0 0 0)
(0 0 0)
(0 0 0)
(0 0 0)
(0 0 0)
(0 0 0)
(0 0 0)
(0 0 0)
(0 0 0)
(0 0 0)
(0 0 0)
(0 0 0)
(0 0 0)
(0 0 0)
(0 0 0)
(0 0 0)
(0 0 0)
(0 0 0)
(0 0 0)
(0 0 0)
(0 0 0)
(0 0 0)
(0 0 0)
(0 0 0)
(0 0 0)
(0 0 0)
(0 0 0)
(0 0 0)
(0 0 0)
(0 0 0)
(0 0 0)
(0 0 0)
(0 0 0)
(0 0 0)
(0 0 0)
(0 0 0)
(0 0 0)
(0 0 0)
(0 0 0)
(0 0 0)
(0 0 0)
(0 0 0)
(0 0 0)
(0 0 0)
(0 0 0)
(0 0 0)
(0 0 0)
(0 0 0)
(0 0 0)
(0 0 0)
(0 0 0)
(0 0 0)
(0 0 0)
(0 0 0)
(0 0 0)
(0 0 0)
(0 0 0)
(0 0 0)
(0 0 0)
(0 0 0)
(0 0 0)
(0 0 0)
(0 0 0)
(0 0 0)
(0 0 0)
(0 0 0)
(0 0 0)
(0 0 0)
(0 0 0)
(0.0204519 0.0073586 -0.0253226)
(0.0486253 -0.0483426 0.0128415)
(0.0646166 -0.0334974 -0.0199016)
(0.0812009 -0.0603928 -0.0140987)
(0.0295158 -0.0144921 0.00722463)
(0.0620603 -0.0218102 0.0025578)
(0.0322422 -0.00528053 -0.00107795)
(0.0301781 -0.00297187 -0.00145425)
(-0.0252109 0.0485602 -0.000484622)
(-0.029673 0.0689479 -0.0161929)
(-0.0188492 0.069558 -0.0228219)
(-0.0339741 0.0930574 8.21253e-05)
(-0.024283 0.104981 -0.00277493)
(0.0283863 0.0407072 -0.0276102)
(0.0856902 0.00762664 -0.0245932)
(0.00880905 0.0773818 -0.0097406)
(0.0619475 0.0494034 -0.0170201)
(0.10203 -0.0147044 -0.00335589)
(0.0621947 0.00147758 -0.000444534)
(0.0996205 -0.00231491 -0.00186)
(0.0681285 0.00334402 0.00440065)
(0.0421711 0.00608006 0.0006687)
(0.0170924 0.00463036 0.00249749)
(0.0523512 0.00701214 0.0076646)
(0.0109474 -0.00596114 0.0114231)
(-0.0113344 -0.000152843 0.00112082)
(-0.0117399 0.0362946 0.000211267)
(0.00934791 -0.0055313 -0.0117794)
(-0.00112138 -0.0117408 -0.00442968)
(-0.0338653 0.0408909 0.00412995)
(-0.024039 0.0433256 0.00278221)
(-0.0391285 0.00548198 -0.00242114)
(-0.0248673 0.0188987 -0.00262222)
(0.00427546 0.045758 -0.00551993)
(0.0444609 0.0211576 -0.0143245)
(-0.0084806 0.0147282 -0.00691633)
(0.0276745 0.00478265 -0.0162234)
(0.0986516 -0.0219274 -0.00840015)
(0.0747401 -0.0249589 0.00559058)
(0.0863255 -0.0188482 -0.0110687)
(0.14384 -0.0474044 -0.00158559)
(0.0418267 -0.0142327 0.00700244)
(0.00319066 -0.0118115 0.0137084)
(0.0843096 -0.0117751 0.00563374)
(0.00526648 -0.00905689 -0.00355494)
(-0.0168757 -0.00986485 0.00748745)
(0.00753827 -0.00122679 -0.00816073)
(-0.000813467 -0.0155146 -0.00906816)
(0.00244853 0.00164813 -0.00726931)
(0.0071599 0.00177229 -0.00375937)
(0.0106411 0.00231445 -0.00345175)
(-0.0182399 0.01758 -0.00255129)
(-0.0387281 0.0423342 -0.00779439)
(-0.0110071 0.00650531 -0.00800259)
(-0.0614891 0.0579504 -0.00660722)
(-0.0281559 0.0434727 -0.0087726)
(0.00879931 0.058247 -0.0116546)
(-0.0434859 0.0742749 -0.00717379)
(-0.000624189 0.0976765 -0.0078038)
(0.0590787 0.0437911 -0.0117944)
(0.0914757 0.0170236 -0.00614311)
(0.0504517 0.0945869 -0.0111032)
(0.0812371 0.0800979 -0.011549)
(0.070679 -0.0116856 -0.00231856)
(0.0274121 -0.0327268 -0.00860124)
(0.0060547 0.0125958 -0.00650976)
(-0.0514467 -0.0209056 -0.0202609)
(-0.00621772 -0.00142587 -0.0182287)
(-0.0027063 -0.00659127 -0.00901666)
(-0.0547529 -6.09482e-05 -0.040369)
(0.00640996 -0.000765145 -0.00314688)
(0.00852499 -0.00615171 -0.00274044)
(-0.0178756 0.0297598 -0.00627304)
(0.00420367 -0.00334883 -0.00177319)
(0.00565047 -0.000479254 -0.00191563)
(-0.011294 0.0701524 -0.00753403)
(0.00889622 0.114419 -0.00560883)
(0.0222547 0.0201496 -0.000699733)
(0.0213869 0.0426425 0.00614947)
(0.0422981 0.118594 -0.000275068)
(0.0204454 0.0607564 0.00668641)
(0.0128829 0.0282278 0.00597574)
(-0.0152979 0.00831727 0.00354407)
(-0.0319228 -0.0075964 -0.00579323)
(-0.0366609 -0.0105041 -0.0101537)
(-0.0337307 0.00650251 0.00278915)
(-0.0163788 -0.000751857 -0.0100584)
(-0.0223285 -0.00201957 -0.015815)
(0.000889767 -0.00539927 -0.00314652)
(0.00156288 -0.00534886 -0.00383309)
(-0.00070555 -0.00742143 -0.00331221)
(-0.00528067 -0.00353311 -0.00460596)
(-0.00680436 -0.00256108 -0.00120977)
(-0.0176401 -0.0023874 0.00207393)
(-0.00478572 -0.00245597 -0.00198111)
(-0.0279776 0.00422675 -0.0049479)
(-0.00770844 0.01199 -0.0944838)
(-0.0439307 0.0311277 -0.182473)
(0.0990237 0.00610348 -0.166057)
(0.0384202 -0.0219209 -0.146893)
(0.0630044 -0.0019844 -0.178978)
(0.0247265 0.0235124 -0.140865)
(-0.0237777 0.021051 -0.272099)
(0.00203719 0.0753205 -0.286153)
(0.141159 0.0216947 -0.161519)
(0.171919 0.038644 -0.145701)
(0.0572777 0.0462492 -0.0900109)
(0.091269 0.0958916 -0.179667)
(0.171813 0.100516 -0.119226)
(0.145127 0.0363241 -0.0529725)
(0.203259 0.094907 -0.135201)
(-0.0601922 0.0964573 -0.0809089)
(-0.0564179 0.0923868 -0.0643947)
(-0.0496084 0.0783167 -0.0991314)
(-0.0767629 0.136028 -0.0710121)
(-0.057141 0.146214 -0.0831631)
(-0.0899158 0.0944864 -0.108908)
(-0.0808881 0.0825629 -0.186127)
(-0.10513 0.110668 -0.105605)
(-0.0960294 0.122164 -0.175879)
(0.0814217 0.0597447 0.0113065)
(0.200456 -0.00145178 0.0242405)
(0.0737524 -0.00139443 0.0588316)
(0.221366 0.139893 -0.117743)
(0.237406 0.161637 -0.088113)
(0.259448 0.0757791 -0.0413334)
(0.144653 -0.0538442 0.0987472)
(0.0119224 0.0181984 -0.000338662)
(0.0285404 0.0218222 0.0275932)
(-0.0191682 0.0985035 -0.104364)
(-0.00169953 0.0834474 -0.0663885)
(-0.0266218 0.0746807 -0.0616362)
(-0.0467819 0.108364 -0.0315454)
(-0.0084291 0.0895378 -0.0318171)
(-0.0107745 0.114206 -0.000744429)
(-0.0097453 -0.051486 0.0367024)
(-0.00426301 -0.0384172 0.0454309)
(0.0219503 -0.00691707 0.0657369)
(-0.00347999 -0.0307745 0.0667834)
(-0.01222 -0.00985955 0.0710794)
(-0.0436783 0.0290467 -0.0300832)
(-0.0141251 0.0332374 -0.0415799)
(-0.00532729 0.0752234 -0.0205142)
(-0.0221945 0.0564704 0.0142359)
(-0.00963342 0.0105172 0.0194443)
(0.00409347 -0.0535336 0.0365194)
(-0.0452434 0.0159153 0.0140459)
(0.0266672 -0.0312782 0.066391)
(0.00602918 -0.0220751 0.0630755)
(-0.015285 0.00677435 0.0509274)
(-0.0127729 -0.0229924 -0.0698152)
(-0.0168736 -0.0220323 0.00753874)
(-0.0935974 0.137572 -0.028392)
(0.0122404 0.0107644 -0.0704223)
(0.0300231 0.034302 -0.0534685)
(-0.0191029 0.0177378 0.0284768)
(-0.0257959 0.0804606 0.0450481)
(0.00732412 0.0161916 -0.00150235)
(0.031951 0.056915 0.0272163)
(-0.0539162 0.0231304 0.00813343)
(-0.0644731 0.0482063 0.0139565)
(-0.0657394 0.0344437 -0.0239536)
(-0.0167904 0.0768795 0.027237)
(-0.0286334 0.0236982 0.0151947)
(-0.0365196 0.0519303 0.0184749)
(-0.0305365 0.0289085 -0.0176756)
(-0.0180851 0.0131117 0.00997092)
(0.0502201 0.0399376 -0.0404347)
(0.0501004 0.0550787 0.0324832)
(0.0903938 0.0564528 0.0103663)
(0.0822642 0.00452875 -0.00820841)
(0.0767906 0.0483784 0.0702378)
(0.100965 0.0379248 0.0881691)
(0.0779707 0.010803 0.0457325)
(-0.0171467 0.0632403 0.0366271)
(0.0972233 0.00989543 0.0222188)
(0.144663 0.0477617 0.0868493)
(0.0266805 0.0565565 0.0742049)
(0.103277 0.00788499 0.0485191)
(-0.0160596 0.0208467 0.0184077)
(-0.0771432 0.0488128 -0.240301)
(-0.10174 0.0650825 -0.300735)
(-0.00197218 0.0225897 -0.232689)
(-0.0460408 0.0408102 -0.330908)
(-0.00523228 0.0856257 -0.333087)
(-0.0210694 0.0219504 -0.317732)
(-0.0647477 0.0476317 -0.394461)
(-0.012408 0.0764708 -0.40457)
(0.0995098 0.123734 -0.158787)
(0.169161 0.117569 -0.0426771)
(0.0429124 0.0243841 -0.218366)
(0.0800836 0.141153 -0.214036)
(0.156018 0.159873 -0.0288669)
(0.210655 0.120289 -0.0249028)
(0.187786 0.13385 0.115994)
(-0.075737 0.106472 0.0301592)
(-0.0740222 0.10555 0.0953166)
(-0.109944 0.100597 -0.249931)
(-0.127651 0.117573 -0.0688976)
(-0.129562 0.124132 -0.232489)
(-0.120738 0.116896 -0.117281)
(-0.131884 0.115268 -0.304271)
(-0.129018 0.13063 -0.0280463)
(-0.149627 0.133738 -0.268937)
(0.200315 0.16769 -0.0550611)
(0.212455 0.199235 0.0112294)
(0.225108 0.17827 -0.00369937)
(0.179906 0.196444 0.168594)
(0.166064 0.159606 0.0744067)
(0.202366 0.217792 0.128885)
(0.222675 0.192619 0.108189)
(0.0872048 0.120239 0.0307448)
(0.153922 0.215859 0.0927553)
(-0.07011 0.107794 0.0772506)
(-0.011283 0.0869582 0.0679698)
(-0.0258077 0.102241 0.102892)
(-0.0704777 0.113159 0.16672)
(-0.0121605 0.0969832 0.163734)
(-0.0415328 0.0994152 0.209298)
(-0.00124652 0.0128826 0.12178)
(-0.00834957 0.0142912 0.119974)
(0.0369202 0.123548 0.134762)
(0.00755038 0.0693387 0.163886)
(0.00721771 0.045932 0.150531)
(-0.0167718 0.059503 0.112458)
(-0.00351171 1.67767e-05 0.118983)
(0.000506031 0.0673516 0.164689)
(-0.0242464 0.0551137 0.215756)
(0.003282 0.0140778 0.227777)
(-0.00138289 -0.00693735 0.132657)
(-0.0155977 -0.00599888 0.102205)
(-0.00359041 0.0120199 0.163772)
(0.000132677 0.0198022 0.167438)
(-0.00749589 -0.00612364 0.098845)
(-0.0108354 -0.0154974 0.118524)
(0.00266179 -0.00441309 0.228801)
(0.0118263 0.0699655 0.150404)
(0.00281486 0.0162659 0.135819)
(0.0331069 0.062161 0.162278)
(-0.00778331 0.0125323 0.263331)
(0.00656092 0.0832622 0.278831)
(0.0165072 3.00884e-05 0.27414)
(0.00424722 0.029198 0.306141)
(-0.014958 0.00350891 0.0440989)
(-0.00562114 0.0358936 0.0662617)
(-0.0103267 0.0111855 0.00878571)
(-0.0360758 0.0161866 0.129265)
(-0.0144456 0.00385193 0.0350363)
(0.00182247 0.010781 0.105481)
(-0.00233563 0.00322369 0.0121771)
(-0.00183635 -0.00335201 0.0270161)
(0.0354475 0.0158582 0.182189)
(0.00524569 -0.00767955 0.264222)
(0.0543209 0.00822286 0.204105)
(-0.00149353 -0.0051206 0.131965)
(-0.0386942 -0.027413 0.262628)
(-0.0407975 -0.0235444 0.260037)
(-0.0935064 -0.0185903 0.147424)
(0.0625005 0.0557587 0.163274)
(0.0393553 -0.00402032 0.133602)
(0.0343538 0.0108554 0.313667)
(0.0345258 0.0605955 0.259966)
(-0.0807391 -0.00941583 0.185838)
(0.00164017 0.013579 0.107738)
(-0.114062 0.0817264 -0.368883)