/*--------------------------------*- C++ -*----------------------------------*\
| =========                 |                                                 |
| \\      /  F ield         | OpenFOAM: The Open Source CFD Toolbox           |
|  \\    /   O peration     | Version:  5.x                                   |
|   \\  /    A nd           | Web:      www.OpenFOAM.org                      |
|    \\/     M anipulation  |                                                 |
\*---------------------------------------------------------------------------*/
FoamFile
{
    version     2.0;
    format      ascii;
    class       volVectorField;
    location    "3.3";
    object      U;
}
// * * * * * * * * * * * * * * * * * * * * * * * * * * * * * * * * * * * * * //

dimensions      [0 1 -1 0 0 0 0];

internalField   nonuniform List<vector> 
10571
(
(0.667296 0.479111 1.49003)
(-0.0611767 0.382297 0.89469)
(0.330422 0.939456 1.18505)
(0.685688 1.59262 1.96445)
(1.51076 1.6408 3.00481)
(0.344129 1.434 2.04115)
(1.15465 3.20941 3.74105)
(0.991782 2.00685 2.51073)
(0.164765 1.82171 4.10922)
(0.239575 -0.842584 3.92898)
(0.581246 0.016635 1.40744)
(0.625737 0.333951 2.61694)
(0.631785 3.28095 4.40038)
(1.14979 1.75307 4.0093)
(-0.852395 0.618755 3.61002)
(-0.0566865 -0.334033 1.45476)
(0.309918 -0.120957 0.932078)
(1.54663 0.723813 3.55259)
(0.0430566 0.043875 2.87414)
(-0.693934 0.755016 3.17194)
(-0.234377 0.95139 1.16822)
(0.616953 -0.647713 2.04718)
(0.018182 0.444753 2.57458)
(0.171647 0.344789 1.45218)
(0.0365004 0.135202 0.392944)
(0.0634326 0.131753 0.414184)
(0.138817 0.653323 0.872725)
(0.0203724 0.674593 1.05762)
(0.459741 0.775008 2.5667)
(0.306516 0.198491 1.30907)
(0.216661 0.343327 3.15021)
(-0.202352 0.678966 4.83451)
(-0.183827 -0.13625 2.14032)
(0.481603 -0.309911 3.76261)
(-0.0311447 0.0937129 0.359341)
(0.761871 0.24059 1.53634)
(-0.00371349 0.459842 5.27637)
(-0.101256 0.308973 4.22548)
(0.0468239 0.0071682 1.77593)
(-0.245764 0.147329 1.57297)
(0.321893 0.150897 0.709549)
(-0.365028 -0.470911 4.09384)
(-0.593221 -0.773019 3.03243)
(-1.24906 -0.924815 4.41512)
(0.0716377 -0.0466215 0.0794687)
(-0.6191 -0.342859 0.941993)
(-0.0346562 -1.18584 2.30787)
(-0.789275 0.222656 2.32873)
(0.0316998 0.0483181 -0.143068)
(0.0295534 0.0164801 -0.0336979)
(-0.0316204 0.212049 0.0334211)
(-0.505158 0.328422 0.601939)
(-0.967168 0.339207 1.80883)
(0.891579 -0.583062 0.906069)
(-0.0913996 0.0245742 3.04258)
(-0.642782 0.338291 4.39713)
(-0.8972 0.323061 2.22101)
(-0.130565 -0.41963 3.61202)
(-0.113786 0.0900627 0.210692)
(0.806516 0.352568 0.983686)
(-0.15079 0.247547 5.56036)
(-0.174484 0.484881 5.04775)
(0.0670989 0.457635 2.24022)
(-0.383018 0.669157 0.384665)
(0.00222034 -0.126796 1.50693)
(-0.203252 -0.204547 4.26995)
(-0.391954 -0.111668 3.83681)
(-0.431851 -0.447851 4.1506)
(-0.284944 0.89086 1.26072)
(0.0602677 0.100348 1.06403)
(-0.0520545 -0.17267 1.03457)
(0.025388 -0.0268657 0.630167)
(0.0229665 0.00681173 -0.311655)
(0.00929045 -0.0470614 -0.0942818)
(-0.0184215 0.0354038 0.0453344)
(-0.784919 0.0300273 0.907781)
(-0.342148 -0.0878835 0.584379)
(0.201196 0.0263015 0.595024)
(-0.195447 0.0081686 3.36709)
(-0.670707 0.2774 4.48626)
(-0.943517 0.695206 1.85926)
(-0.492706 0.280138 1.53096)
(0.0448789 0.0964982 -0.0829181)
(0.460354 0.258581 0.907657)
(-0.482574 0.291158 5.79087)
(-0.12647 0.506558 4.7112)
(0.20421 0.446032 1.97787)
(-0.116872 0.541239 0.183611)
(-0.00381697 -0.295641 1.85261)
(-0.195473 0.0631885 4.18219)
(-0.320781 0.215735 3.42748)
(0.00558125 0.279327 2.45931)
(-0.668246 1.13293 1.88148)
(0.283694 0.363387 1.21635)
(0.123842 0.182795 1.23755)
(-0.209518 0.0831346 1.01304)
(0.0221945 0.000572554 -0.316516)
(-0.00890496 -0.0191262 -0.079354)
(0.0959286 0.016961 0.297616)
(-0.475237 0.109483 0.982006)
(0.000265527 -0.0535203 0.620092)
(-0.0264419 0.0802752 0.286037)
(-0.29072 -0.0401587 3.90831)
(-0.524629 0.160396 4.58705)
(-0.753489 0.711116 1.88992)
(-0.213298 0.133701 0.98647)
(-0.00818926 -0.00207916 -0.266842)
(0.056962 -0.513155 0.914327)
(-0.493963 0.256573 5.78718)
(0.124416 0.392498 3.935)
(0.266383 0.443035 2.252)
(-0.0156157 0.309114 0.244347)
(-0.0328732 -0.290962 1.77317)
(-0.0866955 0.223052 3.92395)
(-0.0981643 0.377185 3.43027)
(0.0296849 0.327038 2.6118)
(-0.43991 0.833018 2.0304)
(0.349709 0.321807 1.46834)
(0.112716 0.137905 1.72179)
(-0.177387 0.119829 1.67866)
(0.02725 0.00147051 -0.296159)
(-0.0183979 -0.0181174 -0.100783)
(0.202676 -0.0185056 0.330972)
(-0.20828 0.154113 0.942911)
(-0.082322 0.0306163 0.207296)
(-0.0770681 0.0850025 0.408233)
(-0.304221 -0.184262 4.16065)
(-0.430316 0.14593 4.49327)
(-0.386615 0.730382 1.63962)
(0.102301 0.347896 0.345168)
(0.00594848 0.00454994 -7.09618e-05)
(-0.0134696 0.0112144 -0.155384)
(-0.154432 -0.610017 1.2132)
(-0.353076 0.194241 5.33355)
(0.240559 0.397825 4.03509)
(0.261219 0.443556 2.08437)
(0.143042 0.191555 0.469045)
(0.000246277 0.00213743 -0.00158085)
(-0.172478 0.119089 1.54494)
(-0.00184806 0.394766 3.52392)
(-0.0170531 0.294152 3.45727)
(0.134453 0.31844 2.56022)
(-0.0406455 0.518545 2.14248)
(0.349481 0.321238 1.82156)
(0.104757 0.118092 2.32053)
(-0.089327 0.0778232 2.11831)
(0.0257745 -0.00660666 -0.250601)
(0.00505082 -0.00934474 -0.115744)
(0.184975 -0.09757 0.360805)
(-0.110389 -0.0280637 1.08947)
(0.0757974 0.0224424 -0.190691)
(-0.136896 0.325059 0.839149)
(-0.307018 -0.211609 4.13273)
(-0.140445 0.0677249 4.44336)
(0.265707 0.306171 1.13361)
(0.19786 0.104477 0.0218808)
(0.100305 0.211878 0.150381)
(0.00923613 0.0987795 -0.138842)
(-0.499703 -0.142207 1.47481)
(-0.314806 0.290053 5.04378)
(0.314404 0.409676 3.89408)
(0.298331 0.357591 1.74806)
(0.473049 0.205144 0.692169)
(0.117864 0.14873 0.153443)
(-0.081557 0.150976 1.72863)
(-0.0524454 0.465327 3.53216)
(0.0212248 0.185238 3.49117)
(0.184323 0.248079 2.67187)
(0.255611 0.366538 2.26257)
(-0.354707 0.0115675 0.00951423)
(0.277092 0.301929 2.27421)
(0.101988 0.0785495 2.68406)
(-0.031213 0.0198436 2.48635)
(0.380981 0.0227219 0.020492)
(-0.00771115 -0.00449711 -0.12051)
(0.179562 -0.474978 0.74276)
(0.256824 -0.267337 0.883999)
(-0.0552494 0.0207252 -0.0064976)
(-0.5503 0.329535 1.1888)
(-0.209001 -0.136439 3.98409)
(0.111979 0.0477012 3.66902)
(0.492204 0.164396 1.09757)
(0.0819272 0.0491094 0.170832)
(-0.393615 0.164715 0.126154)
(-0.000138609 0.0780959 0.0116877)
(-0.414177 0.195264 1.56844)
(-0.201346 0.427274 4.25155)
(0.409066 0.473421 3.5625)
(0.313872 0.305761 1.77928)
(0.302842 0.169137 0.834516)
(-0.000454019 0.0892778 0.343545)
(0.0099113 0.16435 1.75311)
(-0.0390222 0.493206 3.6224)
(0.0383469 0.142394 3.57345)
(0.225232 0.104192 2.79975)
(0.179435 0.13092 2.07877)
(0.427783 0.183762 0.413424)
(0.240342 0.195493 2.59239)
(0.12104 0.0371211 2.93436)
(0.0411697 -0.0294807 2.76384)
(0.544913 -0.0126111 0.271586)
(-0.0113834 -0.0198758 -0.0481964)
(-0.0840818 -0.628678 0.926581)
(0.500779 -0.501639 1.01685)
(0.184237 0.0436499 0.227358)
(-0.625279 0.144045 1.21869)
(-0.116589 0.0660287 2.8108)
(0.261788 0.106154 3.13609)
(0.434932 0.160567 1.26214)
(-0.679538 -0.234307 0.418779)
(-0.589469 -0.568684 -0.430698)
(-0.0216212 0.0730948 0.122754)
(-0.499974 0.290901 2.00719)
(-0.104191 0.51331 3.92077)
(0.390845 0.443625 3.59018)
(0.256517 0.274581 1.86674)
(0.0735751 0.157522 1.04349)
(-0.0394997 -0.366163 0.352875)
(-0.0271246 0.188899 1.99263)
(-0.0184984 0.436421 3.67608)
(0.0606037 0.0553629 3.60911)
(0.271122 -0.023734 2.92191)
(0.0462202 -0.0481971 2.29588)
(0.230794 0.111887 2.83951)
(0.139562 0.013174 3.10142)
(0.0916044 -0.0380346 2.9224)
(0.350805 -0.0249838 0.667795)
(-0.111315 0.132893 0.0558749)
(-0.0445522 -0.0481882 0.918469)
(0.377756 -0.254351 1.01361)
(0.237871 0.0928311 0.546205)
(-0.0829397 0.112823 1.11941)
(-0.0112028 0.18652 2.87719)
(0.172962 0.136608 3.11291)
(0.189392 0.0713047 1.29613)
(-0.692636 -0.496263 0.652422)
(-0.0461913 0.0461948 0.242554)
(-0.202352 0.254813 2.08981)
(-0.0491085 0.397638 3.8891)
(0.323554 0.35902 3.55979)
(0.253314 0.247187 1.92431)
(-0.131721 -0.0170729 1.33643)
(-0.0620754 0.157622 2.25361)
(-0.0230513 0.307474 3.71229)
(0.0941735 -0.00409962 3.61717)
(0.307467 -0.101903 3.05404)
(0.110093 -0.0630578 2.53736)
(0.224629 0.0898189 3.03228)
(0.163351 0.00428843 3.20565)
(0.127733 -0.0710733 3.03443)
(0.202541 0.0721467 0.583162)
(-0.190774 0.20142 0.25869)
(-0.2692 0.266417 0.540226)
(0.374242 0.23184 0.738675)
(0.018446 -0.0343882 0.768617)
(-0.0496597 0.0769408 0.915455)
(0.0462013 0.291658 2.61463)
(0.144576 0.181262 2.94065)
(0.142234 0.0461368 1.41176)
(-0.374682 -0.330264 0.661144)
(-0.0309144 -0.0616738 0.483734)
(-0.142321 0.217109 2.01403)
(0.00741174 0.341919 3.6861)
(0.288174 0.299894 3.47574)
(0.296395 0.23615 2.0508)
(0.204277 -0.0858779 1.38743)
(-0.124329 0.127397 2.47632)
(-0.0103597 0.253397 3.71552)
(0.127549 -0.0210915 3.64107)
(0.33052 -0.139841 3.17656)
(0.1487 -0.144066 2.55389)
(0.211245 0.090267 3.17837)
(0.174362 0.00409323 3.27437)
(0.154886 -0.0825972 3.11054)
(-0.0530468 0.0204679 0.123379)
(-0.126827 0.106113 0.249406)
(-0.093917 0.1282 0.381384)
(0.174554 0.243429 0.60329)
(-0.175912 -0.156251 0.840031)
(-0.0225234 -0.0363369 0.715116)
(0.0495312 0.283161 2.48138)
(0.179784 0.180317 2.7881)
(0.180788 0.0620408 1.55411)
(-0.277232 -0.330467 0.784796)
(-0.0301736 -0.0626849 0.587614)
(-0.118206 0.197526 1.94882)
(0.0184564 0.329048 3.52415)
(0.298846 0.28696 3.40859)
(0.348914 0.208987 2.18224)
(0.255639 -0.0650798 1.52703)
(-0.157662 0.086057 2.63968)
(0.00676153 0.252618 3.71633)
(0.156473 -0.0050707 3.6672)
(0.338326 -0.159852 3.27863)
(0.154835 -0.162322 2.62439)
(0.195591 0.08931 3.27909)
(0.176345 -0.00136638 3.32641)
(0.176259 -0.0859738 3.17269)
(-0.134325 -0.0155236 -0.0575354)
(-0.111345 0.0757992 0.243782)
(-0.108514 0.0789155 0.292282)
(-0.141899 0.0794867 0.547229)
(-0.229688 -0.190116 0.790348)
(-0.0217625 0.10392 0.602699)
(0.0705506 0.271935 2.50489)
(0.21572 0.149284 2.754)
(0.225968 0.0799234 1.67085)
(-0.242601 -0.371448 0.941686)
(-0.0401347 -0.0320393 0.779365)
(-0.0726571 0.223976 1.8455)
(0.0217622 0.314736 3.4928)
(0.302514 0.28639 3.38705)
(0.373859 0.177246 2.29483)
(0.258677 -0.0971602 1.69991)
(-0.164057 0.0786981 2.74521)
(0.0150521 0.238576 3.7273)
(0.180647 0.016591 3.6812)
(0.337211 -0.164102 3.35569)
(0.160493 -0.167736 2.70287)
(0.180596 0.0877778 3.35371)
(0.169891 -0.00726536 3.37685)
(0.191707 -0.0840234 3.2261)
(-0.203126 -0.0322634 -0.0573406)
(-0.149475 0.131911 0.296156)
(-0.232815 0.11855 0.336851)
(-0.279184 -0.00161383 0.479955)
(-0.239736 -0.18751 0.701462)
(-0.0970529 0.270369 0.605572)
(0.0910832 0.2851 2.4753)
(0.25459 0.177758 2.6877)
(0.23503 0.0785243 1.75341)
(-0.193727 -0.398434 1.10311)
(-0.0307683 -0.0100722 0.980589)
(-0.046654 0.252001 1.77385)
(0.0534849 0.309067 3.44245)
(0.301775 0.286648 3.35646)
(0.377615 0.135889 2.38736)
(0.257932 -0.14551 1.88872)
(-0.169189 0.073199 2.84143)
(0.0215317 0.224361 3.72994)
(0.201159 0.0335857 3.69477)
(0.3328 -0.161235 3.41475)
(0.157755 -0.17483 2.78548)
(0.163899 0.080288 3.41709)
(0.153525 -0.00731988 3.42774)
(0.199643 -0.0760862 3.27931)
(-0.170864 -0.0311441 -0.0389044)
(-0.181997 0.186762 0.30467)
(-0.308374 0.214743 0.380967)
(-0.395051 0.0847594 0.36421)
(-0.196784 -0.124037 0.664594)
(-0.0916291 0.272503 0.575596)
(0.073227 0.252185 2.37409)
(0.32121 0.195363 2.58382)
(0.180633 0.0384274 1.82512)
(-0.120651 -0.416858 1.27538)
(-0.0415849 -0.0151396 1.17603)
(-0.0634985 0.243183 1.70454)
(0.0787976 0.328792 3.39387)
(0.291005 0.277314 3.30861)
(0.372947 0.137655 2.47208)
(0.259579 -0.196482 2.08237)
(-0.184141 0.0606887 2.93816)
(0.019603 0.219354 3.72929)
(0.206983 0.0455659 3.70643)
(0.320417 -0.156886 3.46072)
(0.160291 -0.182329 2.87374)
(0.148506 0.0717055 3.47316)
(0.135013 -0.000345278 3.48207)
(0.203866 -0.0680247 3.33848)
(-0.10246 -0.0385697 -0.0427109)
(-0.169542 0.175461 0.29851)
(-0.37976 0.173102 0.369863)
(-0.486806 0.039171 0.260213)
(-0.186788 -0.125017 0.667268)
(-0.039203 0.265861 0.564744)
(0.206158 0.196829 2.24849)
(0.308198 0.164376 2.51272)
(0.0967751 0.00837296 1.83519)
(-0.0564154 -0.441511 1.44021)
(-0.0412538 -0.033972 1.35461)
(-0.0917117 0.21787 1.63001)
(0.0954792 0.346348 3.32477)
(0.286127 0.272972 3.27449)
(0.368158 0.151659 2.55455)
(0.263915 -0.234018 2.26155)
(-0.204128 0.0517238 3.03687)
(0.0178061 0.212507 3.73317)
(0.20802 0.0534423 3.71476)
(0.304613 -0.152942 3.49919)
(0.160239 -0.185421 2.97087)
(0.130169 0.0675608 3.53111)
(0.116494 0.0120073 3.53738)
(0.201349 -0.0594194 3.40244)
(-0.0402776 -0.0424013 -0.00765861)
(-0.159745 0.167482 0.315429)
(-0.444521 0.0215177 0.48358)
(-0.509074 -0.0508669 0.260914)
(-0.229093 -0.154276 0.569369)
(-0.0548672 0.286523 0.634029)
(0.271421 0.249566 1.97855)
(0.267698 0.174323 2.44308)
(0.0587074 0.0161897 1.80166)
(-0.0345773 -0.468219 1.58825)
(-0.0585722 -0.049535 1.55053)
(-0.0449244 0.194579 1.52901)
(0.127025 0.352507 3.20604)
(0.269974 0.256816 3.20921)
(0.350768 0.133357 2.61343)
(0.272423 -0.258151 2.42676)
(-0.221866 0.0391431 3.1334)
(0.01599 0.202979 3.74223)
(0.203449 0.0647667 3.73237)
(0.288368 -0.146462 3.54071)
(0.151057 -0.182964 3.07584)
(0.112516 0.0651192 3.58671)
(0.0996837 0.0240719 3.59299)
(0.194037 -0.051779 3.4661)
(0.0164269 -0.0376969 0.0347907)
(-0.166533 0.183844 0.318886)
(-0.314054 -0.0541344 0.658313)
(-0.445049 -0.0317151 0.308362)
(-0.300137 -0.147128 0.435686)
(-0.118753 0.305202 0.762377)
(-0.0883684 0.271553 1.59603)
(0.276863 0.253562 2.32733)
(0.0808721 0.0429126 1.76881)
(-0.0202464 -0.479178 1.70321)
(-0.0659353 -0.0698003 1.78444)
(-0.0124233 0.224313 1.45594)
(0.120012 0.385599 3.11959)
(0.237058 0.252962 3.14805)
(0.325611 0.133181 2.66967)
(0.27537 -0.26093 2.55532)
(-0.231396 0.0228518 3.22992)
(0.00758618 0.203145 3.75039)
(0.190647 0.0759388 3.75238)
(0.269924 -0.135932 3.58534)
(0.139028 -0.17006 3.17898)
(0.0945206 0.06463 3.64412)
(0.0856932 0.0326992 3.64794)
(0.186492 -0.0485317 3.52971)
(0.0541516 -0.0270924 0.0514271)
(-0.147223 0.187232 0.28606)
(-0.106378 -0.0813961 0.76778)
(-0.315998 0.0450211 0.367566)
(-0.316294 -0.136054 0.339712)
(-0.149858 0.256993 0.941798)
(-0.439025 0.234177 1.26038)
(0.201674 0.306157 2.03748)
(0.134819 0.0722517 1.67706)
(0.0518901 -0.44179 1.81088)
(-0.0747836 -0.0927494 1.99661)
(-0.046945 0.239498 1.47222)
(0.0248707 0.415194 3.01285)
(0.212215 0.271733 3.1449)
(0.314552 0.157718 2.74179)
(0.265011 -0.240398 2.66709)
(-0.224936 0.00264515 3.31681)
(-0.0125182 0.211455 3.75945)
(0.17924 0.0850882 3.76545)
(0.251005 -0.125475 3.62884)
(0.126747 -0.154259 3.27278)
(0.0724071 0.0678027 3.69691)
(0.0751009 0.0412938 3.70235)
(0.178485 -0.0453211 3.59888)
(0.0755805 -0.0198547 0.0527315)
(-0.0900279 0.140562 0.262412)
(-0.0641165 -0.053958 0.701378)
(-0.185589 0.032749 0.461431)
(-0.263987 -0.0764402 0.269038)
(-0.104256 0.167704 1.16743)
(-0.47891 0.151651 1.05774)
(-0.0149649 0.191847 1.68125)
(0.121875 0.0991089 1.60634)
(0.0954166 -0.333674 1.94972)
(-0.0941075 -0.139221 2.18536)
(-0.16023 0.249846 1.57071)
(-0.0570325 0.385706 2.90841)
(0.147662 0.296563 3.15962)
(0.28196 0.165433 2.80218)
(0.252547 -0.206311 2.78767)
(-0.215684 -0.025601 3.39259)
(-0.0339961 0.204791 3.77437)
(0.160179 0.0898688 3.78713)
(0.23586 -0.116125 3.67529)
(0.114871 -0.1371 3.36793)
(0.048098 0.0703671 3.75685)
(0.0597936 0.04974 3.76115)
(0.171959 -0.0415929 3.65998)
(0.0876455 -0.0186318 0.0646646)
(-0.0128997 0.0735325 0.274771)
(-0.060735 -0.0312911 0.588217)
(-0.107106 -0.0575429 0.549123)
(-0.158878 -0.016585 0.219933)
(-0.0264767 0.086669 1.37985)
(-0.392293 0.0463402 0.947925)
(-0.215916 0.0183251 1.41597)
(0.0162018 0.104355 1.53987)
(0.100367 -0.250765 2.12478)
(-0.104424 -0.192681 2.3574)
(-0.221475 0.20627 1.70241)
(-0.0920389 0.312845 2.82475)
(0.0601817 0.304323 3.12216)
(0.208846 0.156997 2.83969)
(0.236932 -0.16936 2.89623)
(-0.206332 -0.0621106 3.45354)
(-0.0722389 0.166622 3.79026)
(0.133945 0.065063 3.80811)
(0.225171 -0.106372 3.71918)
(0.112155 -0.125527 3.45966)
(0.0282835 0.0624283 3.8108)
(0.0372563 0.0557009 3.82086)
(0.162547 -0.0392198 3.72242)
(0.0982428 -0.0166833 0.0948841)
(0.0504183 0.0254832 0.299032)
(-0.0377079 -0.0431804 0.544349)
(-0.101588 -0.130051 0.577355)
(-0.0699157 -0.0027673 0.19754)
(0.0444845 0.0145701 1.54187)
(-0.262468 -0.0391815 0.943561)
(-0.326832 -0.113034 1.19653)
(-0.108991 0.0214859 1.4382)
(0.0352643 -0.208829 2.2682)
(-0.110015 -0.257526 2.49294)
(-0.225966 0.0999774 1.827)
(-0.114451 0.290279 2.68443)
(0.049758 0.30442 3.04182)
(0.168171 0.137043 2.85701)
(0.209324 -0.15706 2.95877)
(-0.200467 -0.100794 3.48512)
(-0.0996719 0.140163 3.7655)
(0.125124 0.0322848 3.80108)
(0.218007 -0.10394 3.74525)
(0.114394 -0.125621 3.5275)
(0.00803005 0.0514945 3.84044)
(0.0178528 0.0608133 3.86262)
(0.152475 -0.041471 3.76648)
(0.110806 -0.0139008 0.137367)
(0.0986746 -0.00614693 0.317119)
(-0.00555841 -0.0571528 0.560369)
(-0.119865 -0.157677 0.550791)
(-0.0290338 -0.00154316 0.210855)
(0.0971169 -0.0712299 1.68073)
(-0.0994683 -0.0458444 0.969351)
(-0.317492 -0.183635 1.05275)
(-0.127104 -0.0649697 1.32484)
(-0.0197269 -0.221813 2.37945)
(-0.108207 -0.349672 2.58636)
(-0.272392 -0.0290144 1.94657)
(-0.157338 0.335284 2.42357)
(0.0943813 0.304871 2.90113)
(0.169716 0.127303 2.8564)
(0.183453 -0.153098 2.98839)
(-0.208018 -0.132641 3.49611)
(-0.1193 0.142384 3.70981)
(0.128606 0.0246154 3.78417)
(0.21974 -0.106908 3.76173)
(0.120419 -0.131202 3.57337)
(-0.0113631 0.0463192 3.85697)
(0.00428996 0.0680864 3.8917)
(0.14332 -0.0429943 3.79712)
(0.127713 -0.0110539 0.183589)
(0.12564 -0.026836 0.324147)
(0.0189058 -0.065642 0.618393)
(-0.131739 -0.158367 0.490843)
(-0.0126069 -0.00832931 0.25088)
(0.144096 -0.145615 1.82788)
(0.0556101 0.0113427 0.995247)
(-0.187799 -0.184127 0.961432)
(-0.0883503 -0.0905172 1.23361)
(-0.0301142 -0.264355 2.50957)
(-0.122123 -0.447896 2.68992)
(-0.358345 -0.143641 2.03839)
(-0.246733 0.326868 2.15734)
(0.100761 0.295405 2.73354)
(0.187365 0.122181 2.85994)
(0.173159 -0.156189 3.0224)
(-0.225026 -0.147867 3.51591)
(-0.153469 0.148848 3.70242)
(0.139618 0.0348524 3.76801)
(0.2254 -0.107641 3.77521)
(0.130231 -0.138632 3.6163)
(-0.0255713 0.0531113 3.879)
(-0.00373465 0.0743924 3.91861)
(0.137073 -0.0430033 3.82334)
(0.150618 -0.00858942 0.221648)
(0.12248 -0.028846 0.331427)
(0.0207852 -0.072226 0.691831)
(-0.138493 -0.144507 0.42544)
(-0.022593 -0.0121481 0.297306)
(0.164656 -0.168802 1.95649)
(0.159311 0.0748703 1.01191)
(-0.020343 -0.138576 0.903535)
(-0.0523584 -0.0618033 1.19364)
(-0.0101132 -0.318438 2.66713)
(-0.133043 -0.522664 2.83513)
(-0.388135 -0.174087 2.07716)
(-0.317445 0.260085 1.94419)
(0.0579483 0.303164 2.49931)
(0.244452 0.116202 2.86247)
(0.175574 -0.170631 3.07152)
(-0.242369 -0.152234 3.5586)
(-0.196961 0.173185 3.68483)
(0.158732 0.0587125 3.73581)
(0.2348 -0.104013 3.79267)
(0.140852 -0.144429 3.66472)
(-0.0361829 0.0578825 3.90266)
(-0.0081747 0.0806807 3.94737)
(0.134298 -0.0403118 3.85699)
(0.174025 -0.00597467 0.248375)
(0.0838423 -0.00326347 0.343975)
(-0.00595213 -0.0768529 0.74976)
(-0.130854 -0.118503 0.368636)
(-0.0494832 -0.0113646 0.342784)
(0.165676 -0.0821268 2.04383)
(0.208046 0.122061 1.02376)
(0.101409 -0.0716012 0.855544)
(-0.0426596 -0.0175925 1.19433)
(0.0148759 -0.351832 2.81599)
(-0.136005 -0.554185 2.99546)
(-0.382896 -0.153823 2.08453)
(-0.301334 0.212633 1.7617)
(0.0155169 0.325 2.21537)
(0.314017 0.100071 2.86559)
(0.190865 -0.190759 3.14556)
(-0.262342 -0.159756 3.62902)
(-0.217273 0.20563 3.61873)
(0.159128 0.101251 3.70154)
(0.246056 -0.0849101 3.81736)
(0.151033 -0.1479 3.72389)
(-0.0436951 0.0585011 3.93)
(-0.0108193 0.0823248 3.97796)
(0.14423 -0.0465632 3.90253)
(0.196892 -0.00387448 0.270985)
(0.0280024 0.0377558 0.356804)
(-0.0451462 -0.0765809 0.782306)
(-0.125057 -0.0828728 0.322897)
(-0.0916585 -0.0184909 0.373491)
(0.185125 0.0775573 2.05084)
(0.21513 0.149958 1.02295)
(0.138981 -0.00812947 0.81038)
(-0.0632057 0.0130677 1.22234)
(0.0469965 -0.351654 2.94746)
(-0.131063 -0.557398 3.16659)
(-0.360068 -0.0744316 2.09426)
(-0.239849 0.200311 1.61787)
(-0.045609 0.340114 1.96445)
(0.329798 0.0835155 2.86858)
(0.205391 -0.217595 3.24876)
(-0.288879 -0.178491 3.71528)
(-0.232216 0.202465 3.53939)
(0.159772 0.138875 3.67495)
(0.25909 -0.0686848 3.84097)
(0.163352 -0.156935 3.79038)
(-0.048977 0.0623752 3.97046)
(-0.0159573 0.085636 4.01546)
(0.156412 -0.0447662 3.95413)
(0.219351 -0.00297882 0.288236)
(-0.0204114 0.0633292 0.366254)
(-0.0794272 -0.081674 0.801498)
(-0.137448 -0.0448782 0.290239)
(-0.149635 -0.0336057 0.379871)
(0.210637 0.187894 1.99291)
(0.194942 0.159122 1.00599)
(0.0848579 0.0382026 0.775479)
(-0.115043 0.00969405 1.25708)
(0.0531529 -0.349208 3.06875)
(-0.122405 -0.539802 3.33742)
(-0.314352 0.0155865 2.13816)
(-0.197455 0.217372 1.53429)
(-0.156222 0.34844 1.76192)
(0.316178 0.0567996 2.87685)
(0.195886 -0.25002 3.34785)
(-0.323892 -0.204865 3.80745)
(-0.26955 0.189243 3.45208)
(0.177835 0.148865 3.62656)
(0.273352 -0.0674603 3.85613)
(0.174468 -0.173794 3.85316)
(-0.0499793 0.0667327 4.01537)
(-0.0213302 0.0896622 4.05954)
(0.170551 -0.0462391 4.01228)
(0.234784 -0.00356469 0.304207)
(-0.0572023 0.0768188 0.369991)
(-0.113499 -0.0898584 0.818328)
(-0.161213 -0.0105964 0.276269)
(-0.224322 -0.0564025 0.359725)
(0.235892 0.257256 1.90749)
(0.140711 0.157732 0.982111)
(-0.0497562 0.0909962 0.742818)
(-0.18672 -0.0132374 1.27589)
(0.0460435 -0.353641 3.15199)
(-0.102233 -0.514452 3.49365)
(-0.251063 0.0459873 2.24251)
(-0.184023 0.242869 1.50576)
(-0.260768 0.362631 1.58286)
(0.307055 -0.00416548 2.86093)
(0.162178 -0.280581 3.41997)
(-0.357646 -0.235092 3.89111)
(-0.299819 0.187905 3.37009)
(0.161546 0.145285 3.53164)
(0.285749 -0.0751404 3.86365)
(0.181389 -0.195872 3.9021)
(-0.0500484 0.0673169 4.0605)
(-0.0281142 0.0940133 4.10444)
(0.18433 -0.0503547 4.07416)
(0.243417 -0.00562137 0.323622)
(-0.0800321 0.092375 0.362832)
(-0.1361 -0.105634 0.840832)
(-0.186593 0.0148153 0.284042)
(-0.306571 -0.0778795 0.325307)
(0.269447 0.263349 1.88653)
(0.097677 0.148356 0.9805)
(-0.169845 0.133855 0.721925)
(-0.278455 0.000576211 1.26649)
(0.0118391 -0.361574 3.18932)
(-0.082419 -0.514595 3.63834)
(-0.195556 0.00681289 2.39507)
(-0.16929 0.249978 1.50211)
(-0.30074 0.379548 1.44166)
(0.295784 -0.0691211 2.76848)
(0.129262 -0.313808 3.45396)
(-0.385915 -0.264687 3.95545)
(-0.317166 0.171738 3.3144)
(0.124393 0.142305 3.43051)
(0.289472 -0.0765437 3.85782)
(0.186436 -0.214173 3.93249)
(-0.0517246 0.0625941 4.10947)
(-0.0366906 0.10154 4.14623)
(0.196669 -0.0522777 4.12547)
(0.252362 -0.00839282 0.352144)
(-0.080301 0.100764 0.340148)
(-0.131024 -0.129146 0.874812)
(-0.194906 0.0264033 0.318414)
(-0.37095 -0.0951719 0.303202)
(0.31573 0.221317 1.94739)
(0.0888573 0.132291 0.996559)
(-0.265354 0.161416 0.719099)
(-0.388441 0.0808087 1.21804)
(-0.0206576 -0.354623 3.16683)
(-0.069663 -0.532711 3.75239)
(-0.152029 -0.0662733 2.57043)
(-0.139988 0.229933 1.50364)
(-0.294478 0.373592 1.3509)
(0.220688 -0.0523926 2.68055)
(0.11491 -0.330033 3.47753)
(-0.395636 -0.292795 3.99825)
(-0.353952 0.142409 3.27008)
(0.0927969 0.137259 3.33181)
(0.275873 -0.0629352 3.83566)
(0.187411 -0.222909 3.95457)
(-0.0545188 0.0484386 4.1539)
(-0.0524049 0.104607 4.18201)
(0.200095 -0.0501123 4.17001)
(0.268717 -0.0101086 0.394031)
(-0.0434808 0.0775593 0.32121)
(-0.0947575 -0.156778 0.926125)
(-0.163099 0.0232504 0.380294)
(-0.372876 -0.0868713 0.332794)
(0.405612 0.0907637 2.09273)
(0.141893 0.0905975 1.04672)
(-0.337884 0.165238 0.754727)
(-0.498786 0.177633 1.12376)
(-0.0679697 -0.318723 3.05775)
(-0.0563871 -0.553816 3.83094)
(-0.0694324 -0.169967 2.7472)
(-0.0835063 0.173175 1.49981)
(-0.29561 0.360551 1.31364)
(0.0923656 -0.0232728 2.62689)
(0.0988392 -0.305461 3.47981)
(-0.397967 -0.325075 4.00895)
(-0.3949 0.114709 3.22618)
(0.0234186 0.130533 3.20363)
(0.243664 -0.0447395 3.8152)
(0.180787 -0.231398 3.96697)
(-0.0594426 0.029428 4.18427)
(-0.0649651 0.104227 4.20368)
(0.200524 -0.04783 4.20344)
(0.295345 -0.00894196 0.448585)
(0.0185636 0.0231598 0.354185)
(-0.0414052 -0.187564 1.00208)
(-0.0924335 0.0114991 0.460853)
(-0.290363 -0.0411314 0.422692)
(0.545366 -0.101733 2.10666)
(0.292637 -0.00219745 1.17048)
(-0.382147 0.140057 0.845575)
(-0.567576 0.219803 1.02311)
(-0.151124 -0.256457 2.87366)
(-0.034135 -0.589069 3.81141)
(0.0505311 -0.28632 2.89402)
(-0.00571388 0.105324 1.50683)
(-0.317526 0.348896 1.3221)
(-0.0816719 -0.0191804 2.62242)
(0.050217 -0.243291 3.43433)
(-0.380272 -0.346656 3.9885)
(-0.401428 0.0556574 3.19199)
(-0.0578464 0.114973 3.07413)
(0.199278 -0.0386848 3.78831)
(0.168333 -0.227088 3.95774)
(-0.0677248 0.00250925 4.2025)
(-0.0780931 0.0920121 4.20823)
(0.19181 -0.0497729 4.21706)
(0.328544 -0.0044696 0.513051)
(0.0593784 -0.0296792 0.460697)
(0.0083088 -0.212172 1.10502)
(0.000126301 -3.85302e-05 0.54931)
(-0.164538 0.0251961 0.517478)
(0.751675 -0.260953 1.86047)
(0.47342 -0.128783 1.34722)
(-0.366772 0.0822363 0.998548)
(-0.553717 0.20096 0.963503)
(-0.524202 -0.0940006 2.3952)
(-0.0161612 -0.546984 3.73938)
(0.134956 -0.428177 3.00481)
(0.0944497 0.0212935 1.5619)
(-0.426727 0.308503 1.40326)
(-0.312831 0.0187633 2.61828)
(-0.070799 -0.0674042 3.30023)
(-0.346466 -0.351377 3.91167)
(-0.372598 -0.038256 3.14953)
(-0.120528 0.0872151 2.97642)
(0.146341 -0.0472907 3.74035)
(0.142837 -0.196716 3.90561)
(-0.07027 -0.0186227 4.18736)
(-0.0835741 0.0759184 4.189)
(0.181483 -0.0489362 4.20459)
(0.353852 0.00172342 0.58716)
(0.0531814 -0.0426241 0.597354)
(0.0194478 -0.228286 1.21138)
(0.0895106 -0.017154 0.645398)
(-0.0364499 0.0859271 0.578548)
(0.847217 -0.335817 1.4948)
(0.650262 -0.263331 1.54852)
(-0.26447 -0.00631991 1.22215)
(-0.44446 0.212343 0.958495)
(-0.542971 -0.391398 1.4845)
(-0.00789059 -0.455113 3.64562)
(0.331174 -0.445621 3.15239)
(0.265275 -0.0800519 1.68905)
(-0.574902 0.247593 1.56546)
(-0.524701 0.0461476 2.56116)
(-0.233869 0.0795151 3.18515)
(-0.284551 -0.344878 3.81462)
(-0.352238 -0.103864 3.08018)
(-0.150878 0.0778362 2.90543)
(0.0854319 -0.0432813 3.67629)
(0.095312 -0.162357 3.85434)
(-0.0647829 -0.0244996 4.13532)
(-0.0789015 0.0534269 4.1461)
(0.163932 -0.0483343 4.16277)
(0.355599 0.00830438 0.667192)
(0.0190231 -0.0276582 0.733019)
(-0.00464954 -0.235018 1.28737)
(0.16053 -0.0299511 0.737723)
(0.0551405 0.128356 0.620677)
(0.718641 -0.350012 1.28423)
(0.777545 -0.366232 1.75579)
(-0.139472 -0.105086 1.47947)
(-0.217216 0.262762 1.02109)
(-0.328124 -0.255218 1.04284)
(0.0203071 -0.265212 3.62707)
(0.457069 -0.429066 3.14075)
(0.530146 -0.186549 1.8582)
(-0.631501 0.186206 1.77427)
(-0.604887 0.0370592 2.51554)
(-0.28158 0.305353 2.93316)
(-0.19665 -0.294407 3.62181)
(-0.34461 -0.0985394 2.98646)
(-0.144145 0.0921246 2.87262)
(0.01237 -0.0516489 3.63333)
(0.0505249 -0.0894376 3.77451)
(-0.0517654 -0.0291783 4.05758)
(-0.066414 0.0187328 4.09015)
(0.143798 -0.0462945 4.10703)
(0.329399 0.0141129 0.744789)
(-0.0201062 -0.00458346 0.85615)
(-0.0482412 -0.238238 1.31076)
(0.199546 -0.0351919 0.81223)
(0.100725 0.146495 0.659726)
(0.506432 -0.236762 1.25763)
(0.767456 -0.402234 1.98459)
(-0.0471504 -0.174727 1.71843)
(-0.0331532 0.275386 1.08035)
(-0.194118 -0.0991245 0.854978)
(0.0491198 -0.341366 3.11032)
(0.730293 -0.263641 2.99195)
(0.801046 -0.271066 2.03166)
(-0.573464 0.124295 2.0379)
(-0.569559 0.00233132 2.52773)
(-0.637869 0.352297 2.14827)
(-0.101553 -0.216272 3.45457)
(-0.270095 -0.0568801 2.89725)
(-0.124432 0.101378 2.87426)
(-0.0470842 -0.0403331 3.61107)
(-0.0350584 0.000942787 3.75026)
(-0.0278228 -0.0449379 3.98377)
(-0.0277685 -0.0180478 4.03433)
(0.134974 -0.0498071 4.0507)
(0.276017 0.0180826 0.813704)
(-0.0454801 0.00865051 0.953234)
(-0.087121 -0.243284 1.28272)
(0.19913 -0.0519033 0.874849)
(0.104974 0.135938 0.701882)
(0.255699 -0.0321318 1.28363)
(0.589734 -0.372533 2.23449)
(0.0238003 -0.194732 1.88407)
(0.0751825 0.229946 1.14473)
(-0.142163 -0.0825111 0.72958)
(0.0281903 -0.309255 2.03976)
(0.901982 -0.384381 2.41955)
(0.935292 -0.277925 2.2411)
(-0.511017 0.0959451 2.33383)
(-0.466469 -0.0731416 2.50924)
(-0.2246 0.0187506 1.79166)
(0.159349 -0.0446036 3.22755)
(-0.0322761 -0.0236375 2.85072)
(-0.120203 0.103624 2.90468)
(-0.0873118 -0.0545775 3.6167)
(-0.0554045 -0.0895386 3.73906)
(0.000265345 -0.0311477 3.91815)
(0.0126679 -0.057714 3.98531)
(0.126532 -0.0500593 3.99661)
(0.206397 0.0169843 0.879053)
(-0.0471136 0.000531455 1.0394)
(-0.0983718 -0.237521 1.25549)
(0.166395 -0.0784944 0.941942)
(0.0711986 0.0929556 0.764439)
(0.0438143 0.0651898 1.27612)
(0.330238 -0.372967 2.39094)
(0.11765 -0.206044 1.95316)
(0.125485 0.121741 1.21556)
(-0.131773 -0.1274 0.684502)
(0.0278617 0.162856 1.46136)
(0.471186 -0.0984997 1.80574)
(0.820095 -0.252489 2.52026)
(-0.438559 0.050663 2.63658)
(-0.401659 -0.0452937 2.44072)
(-0.0366755 -0.271578 1.69795)
(0.460178 0.12121 3.23407)
(0.17389 -0.0229472 2.92268)
(-0.160501 0.0934278 3.01975)
(-0.0931671 -0.114459 3.58445)
(-0.00052967 -0.140819 3.59649)
(0.0625587 -0.0463959 3.85771)
(0.0561633 -0.0782115 3.93866)
(0.153395 -0.0697562 3.94362)
(0.137494 0.0105653 0.959441)
(-0.0252233 -0.0268084 1.14818)
(-0.0951972 -0.202682 1.27256)
(0.110967 -0.105714 1.02418)
(0.0131456 0.0206804 0.856104)
(-0.137264 0.019625 1.25924)
(0.0715529 -0.474519 2.33568)
(0.2362 -0.249633 1.94491)
(0.151478 -0.0369484 1.29964)
(-0.128864 -0.184028 0.724151)
(0.0437676 0.276667 1.08081)
(0.168572 0.180877 1.49697)
(0.485307 -0.416318 2.79169)
(-0.212221 -0.118516 2.86756)
(-0.225022 0.0181438 2.45029)
(0.0241265 -0.279675 1.70884)
(0.716398 0.320635 2.61849)
(0.166319 -0.0619157 3.03542)
(-0.142098 -0.0117382 3.21906)
(-0.214863 -0.186351 3.5214)
(-0.1809 0.0840533 3.1162)
(0.0671828 -0.0450954 3.82203)
(0.139035 -0.117846 3.90401)
(0.146798 -0.0779888 3.86173)
(0.0683302 -0.000577305 1.06931)
(0.0127853 -0.0613176 1.30689)
(-0.0870792 -0.150062 1.35213)
(0.0357791 -0.139162 1.12927)
(-0.0541997 -0.0611346 0.985032)
(-0.277373 -0.0899088 1.30838)
(-0.123796 -0.558241 2.17886)
(0.297857 -0.323761 1.90496)