/*--------------------------------*- C++ -*----------------------------------*\
| =========                 |                                                 |
| \\      /  F ield         | OpenFOAM: The Open Source CFD Toolbox           |
|  \\    /   O peration     | Version:  5.x                                   |
|   \\  /    A nd           | Web:      www.OpenFOAM.org                      |
|    \\/     M anipulation  |                                                 |
\*---------------------------------------------------------------------------*/
FoamFile
{
    version     2.0;
    format      ascii;
    class       volVectorField;
    location    "2.55";
    object      Us;
}
// * * * * * * * * * * * * * * * * * * * * * * * * * * * * * * * * * * * * * //

dimensions      [0 1 -1 0 0 0 0];

internalField   nonuniform List<vector> 
10571
(
(0.0616885 0.0241072 -0.048336)
(0.0796966 -0.036357 -0.0785196)
(0.0704804 0.00533788 0.051339)
(-0.111685 -0.0442713 0.0178059)
(-0.08044 -0.119298 -0.0145174)
(-0.0673724 -0.117757 0.112144)
(-0.148104 -0.203022 0.0483332)
(-0.282314 -0.145657 -0.0421399)
(-0.157141 -0.164638 -0.0779077)
(-0.0447286 -0.147594 -0.0613961)
(0.00637943 -0.0911603 -0.0707997)
(-0.0124178 -0.261797 0.0138167)
(-0.131738 -0.289318 -0.091036)
(-0.224702 -0.106269 -0.119562)
(-0.145831 -0.0637101 -0.116802)
(-0.0124565 -0.0475195 -0.0881938)
(-0.0473516 -0.123282 -0.0409744)
(-0.0751939 -0.185276 -0.195464)
(-0.106328 -0.0942717 -0.137517)
(-0.0909976 0.0058219 -0.141252)
(-0.0334328 0.0499664 -0.137655)
(-0.0659276 -0.0611546 -0.220685)
(0.00116684 -0.0464463 -0.22933)
(-0.0238451 0.0158812 -0.119099)
(0.0772554 0.00841138 -0.015642)
(0.113356 -0.133289 -0.0736037)
(-0.0832181 -0.109027 0.145419)
(-0.0785682 -0.052361 0.19741)
(-0.0952006 -0.0611214 0.150711)
(-0.0512529 -0.291673 0.190379)
(-0.307834 -0.296245 0.196906)
(-0.214683 -0.189909 0.265071)
(-0.0465037 -0.23745 0.18029)
(-0.0512901 -0.183658 0.0619328)
(0.0122057 -0.0869543 -0.0426421)
(0.0501399 -0.191488 0.0110055)
(-0.0965051 -0.263622 0.0660271)
(-0.0787768 -0.205493 0.123201)
(-0.0352625 -0.152138 0.109457)
(0.00408186 -0.162635 -0.00965034)
(-0.0456321 -0.145497 -0.118123)
(-0.04639 -0.164247 -0.0364967)
(0.00336914 -0.137952 -0.0023517)
(-0.0288499 -0.0987037 -0.0714068)
(0.00785262 -0.072565 -0.0171704)
(-0.0434328 -0.063342 -0.10563)
(0.0109065 -0.0267264 -0.108564)
(0.0572824 -0.0900187 -0.0649859)
(0.110085 -0.00952665 0.0736993)
(0.070189 -0.0703932 0.0837651)
(-0.112034 -0.199633 0.261438)
(-0.121922 -0.151485 0.370415)
(-0.100918 -0.112053 0.299491)
(0.0789211 -0.226993 0.267931)
(-0.230536 -0.324351 0.36913)
(-0.0911699 -0.273428 0.34536)
(0.00764816 -0.256385 0.211697)
(-0.0341659 -0.200819 0.163815)
(0.000527074 -0.032345 0.0245574)
(-0.0206533 -0.205111 0.143871)
(-0.0708175 -0.23104 0.18956)
(-0.0502069 -0.228419 0.225164)
(0.0363947 -0.2628 0.236228)
(0.0529694 -0.256199 0.144375)
(-0.0268957 -0.113715 0.0277056)
(-0.0096494 -0.137652 0.0528159)
(-0.0104419 -0.16992 0.161243)
(0.0069915 -0.168008 0.0856798)
(0.0590778 -0.126736 0.131803)
(-0.0338173 -0.116117 0.00152199)
(0.0247783 -0.0877568 0.0288747)
(0.0458138 -0.062006 0.0595863)
(0.0554264 0.00121739 0.19518)
(0.0685998 -0.06741 0.153209)
(-0.106119 -0.189506 0.395317)
(-0.0504355 -0.111722 0.540747)
(0.0418939 -0.0355433 0.475634)
(0.0392201 -0.133583 0.414281)
(-0.0470839 -0.309567 0.415194)
(0.0542589 -0.176322 0.346651)
(0.0680639 -0.193206 0.267095)
(-0.00702204 -0.183439 0.270249)
(0.00725644 0.0873558 0.015017)
(-0.102151 -0.108422 0.25071)
(0.0316769 -0.130047 0.220504)
(0.0327648 -0.134915 0.220863)
(0.049534 -0.234685 0.25272)
(0.0297211 -0.245174 0.222317)
(-0.00913263 -0.084951 -0.0312507)
(0.0269346 -0.0661074 0.0372255)
(-0.0148175 -0.139737 0.144149)
(-0.00208995 -0.223201 0.278133)
(0.10535 -0.223524 0.313446)
(0.0269648 -0.0388779 -0.0220561)
(0.0343089 -0.0722872 0.131172)
(0.0275313 -0.0733422 0.218936)
(0.0715269 -0.00872229 0.228896)
(0.0644828 -0.0679023 0.192174)
(-0.001385 -0.13875 0.550982)
(0.0979484 -0.147975 0.596624)
(0.276374 -0.024823 0.574828)
(-0.0656075 -0.0565053 0.496317)
(0.103517 -0.217291 0.360756)
(0.187321 -0.0566228 0.333048)
(0.209483 -0.088109 0.30931)
(-0.0798703 -0.193507 0.335494)
(0.00332541 0.0970004 -0.207871)
(-0.123753 0.0210434 0.148159)
(0.058972 -0.0416168 0.161994)
(0.0898791 -0.0647983 0.208922)
(0.0510824 -0.189084 0.252679)
(0.0423244 -0.219559 0.212705)
(0.0121477 0.124121 -0.316181)
(0.0578405 0.0842429 -0.040154)
(-0.00593619 -0.0981979 0.145946)
(0.0206124 -0.117637 0.224786)
(0.0732866 -0.130137 0.240632)
(0.136722 0.00602599 -0.124028)
(0.0375234 -0.0338485 0.0873159)
(0.0478308 -0.043743 0.147729)
(0.0879488 -0.0389657 0.380609)
(0.0133413 -0.121782 0.288249)
(0.0971549 -0.242178 0.579313)
(0.168916 -0.24752 0.572457)
(0.383537 -0.179163 0.215223)
(-0.127839 -0.134259 0.296506)
(0.0960883 -0.105705 0.25592)
(0.240649 -0.0225254 0.357776)
(0.45469 0.0761553 0.249189)
(-0.0258311 0.0148964 -0.143474)
(-0.00252822 0.00148424 -0.00115384)
(-0.0259823 0.0665 -0.186182)
(-0.0951152 0.0940466 -0.117628)
(0.025645 -0.00842046 0.0609961)
(0 0 0)
(0 0 0)
(-0.0616495 -0.0185448 -0.166492)
(-0.00313159 -0.000676645 -0.00124511)
(0.0271258 0.126116 -0.293432)
(0.0679375 0.125021 -0.156621)
(0 0 0)
(0 0 0)
(0 0 0)
(0 0 0)
(0 0 0)
(0 0 0)
(0.0733085 -0.0386615 0.748894)
(-0.010169 -0.0267681 -0.172425)
(0 0 0)
(0.151216 -0.25807 0.470865)
(0 0 0)
(0 0 0)
(0.076641 0.0335015 0.503722)
(0 0 0)
(0 0 0)
(0 0 0)
(0 0 0)
(0.0158612 0.027937 -0.188831)
(0.0189259 0.0558117 -0.495513)
(0.126998 0.0566194 -0.237182)
(0 0 0)
(0 0 0)
(0 0 0)
(0 0 0)
(0.125828 0.110891 -0.199758)
(0 0 0)
(0 0 0)
(0 0 0)
(0 0 0)
(0 0 0)
(0 0 0)
(0 0 0)
(0 0 0)
(0 0 0)
(0.108185 0.0578807 -0.071464)
(0 0 0)
(0 0 0)
(0 0 0)
(0 0 0)
(0 0 0)
(0 0 0)
(0 0 0)
(0 0 0)
(0 0 0)
(0.0245832 0.0353354 -0.0758864)
(0 0 0)
(0 0 0)
(0 0 0)
(0 0 0)
(0 0 0)
(0 0 0)
(-6.35533e-14 -3.52891e-14 3.20625e-14)
(0 0 0)
(0 0 0)
(0 0 0)
(0 0 0)
(0 0 0)
(0 0 0)
(0 0 0)
(0 0 0)
(0 0 0)
(0 0 0)
(0 0 0)
(0 0 0)
(0 0 0)
(0 0 0)
(0 0 0)
(0 0 0)
(0 0 0)
(0 0 0)
(0 0 0)
(0 0 0)
(0 0 0)
(0 0 0)
(0 0 0)
(0 0 0)
(0 0 0)
(0 0 0)
(0 0 0)
(0 0 0)
(0 0 0)
(0 0 0)
(0 0 0)
(0 0 0)
(0 0 0)
(0 0 0)
(0 0 0)
(0 0 0)
(0 0 0)
(0 0 0)
(0 0 0)
(0 0 0)
(0 0 0)
(0 0 0)
(0 0 0)
(0 0 0)
(0 0 0)
(0 0 0)
(0 0 0)
(0 0 0)
(0 0 0)
(0 0 0)
(0 0 0)
(0 0 0)
(0 0 0)
(0 0 0)
(0 0 0)
(0 0 0)
(0 0 0)
(0 0 0)
(0 0 0)
(0 0 0)
(0 0 0)
(0 0 0)
(0 0 0)
(0 0 0)
(0 0 0)
(0 0 0)
(0 0 0)
(0 0 0)
(0 0 0)
(0 0 0)
(0 0 0)
(0 0 0)
(0 0 0)
(0 0 0)
(0 0 0)
(0 0 0)
(0 0 0)
(0 0 0)
(0 0 0)
(0 0 0)
(0 0 0)
(0 0 0)
(0 0 0)
(0 0 0)
(0 0 0)
(0 0 0)
(0 0 0)
(0 0 0)
(0 0 0)
(0 0 0)
(0 0 0)
(0 0 0)
(0 0 0)
(0 0 0)
(0 0 0)
(0 0 0)
(0 0 0)
(0 0 0)
(0 0 0)
(0 0 0)
(0 0 0)
(0 0 0)
(0 0 0)
(0 0 0)
(0 0 0)
(0 0 0)
(0 0 0)
(0 0 0)
(0 0 0)
(0 0 0)
(0 0 0)
(0 0 0)
(0 0 0)
(0 0 0)
(0 0 0)
(0 0 0)
(0 0 0)
(0 0 0)
(0 0 0)
(0 0 0)
(0 0 0)
(0 0 0)
(0 0 0)
(0 0 0)
(0 0 0)
(0 0 0)
(0 0 0)
(0 0 0)
(0 0 0)
(0 0 0)
(0 0 0)
(0 0 0)
(0 0 0)
(0 0 0)
(0 0 0)
(0 0 0)
(0 0 0)
(0 0 0)
(0 0 0)
(0 0 0)
(0 0 0)
(0 0 0)
(0 0 0)
(0 0 0)
(0 0 0)
(0 0 0)
(0 0 0)
(0 0 0)
(0 0 0)
(0 0 0)
(0 0 0)
(0 0 0)
(0 0 0)
(0 0 0)
(0 0 0)
(0 0 0)
(0 0 0)
(0 0 0)
(0 0 0)
(0 0 0)
(0 0 0)
(0 0 0)
(0 0 0)
(0 0 0)
(0 0 0)
(0 0 0)
(0 0 0)
(0 0 0)
(0 0 0)
(0 0 0)
(0 0 0)
(0 0 0)
(0 0 0)
(0 0 0)
(0 0 0)
(0 0 0)
(0 0 0)
(0 0 0)
(0 0 0)
(0 0 0)
(0 0 0)
(0 0 0)
(0 0 0)
(0 0 0)
(0 0 0)
(0 0 0)
(0 0 0)
(0 0 0)
(0 0 0)
(0 0 0)
(0 0 0)
(0 0 0)
(0 0 0)
(0 0 0)
(0 0 0)
(0 0 0)
(0 0 0)
(0 0 0)
(0 0 0)
(0 0 0)
(0 0 0)
(0 0 0)
(0 0 0)
(0 0 0)
(0 0 0)
(0 0 0)
(0 0 0)
(0 0 0)
(0 0 0)
(0 0 0)
(0 0 0)
(0 0 0)
(0 0 0)
(0 0 0)
(0 0 0)
(0 0 0)
(0 0 0)
(0 0 0)
(0 0 0)
(0 0 0)
(0 0 0)
(0 0 0)
(0 0 0)
(0 0 0)
(0 0 0)
(0 0 0)
(0 0 0)
(0 0 0)
(0 0 0)
(0 0 0)
(0 0 0)
(0 0 0)
(0 0 0)
(0 0 0)
(0 0 0)
(0 0 0)
(0 0 0)
(0 0 0)
(0 0 0)
(0 0 0)
(0 0 0)
(0 0 0)
(0 0 0)
(0 0 0)
(0 0 0)
(0 0 0)
(0 0 0)
(0 0 0)
(0 0 0)
(0 0 0)
(0 0 0)
(0 0 0)
(0 0 0)
(0 0 0)
(0 0 0)
(0 0 0)
(0 0 0)
(0 0 0)
(0 0 0)
(0 0 0)
(0 0 0)
(0 0 0)
(0 0 0)
(0 0 0)
(0 0 0)
(0 0 0)
(0 0 0)
(0 0 0)
(0 0 0)
(0 0 0)
(0 0 0)
(0 0 0)
(0 0 0)
(0 0 0)
(0 0 0)
(0 0 0)
(0 0 0)
(0 0 0)
(0 0 0)
(0 0 0)
(0 0 0)
(0 0 0)
(0 0 0)
(0 0 0)
(0 0 0)
(0 0 0)
(0 0 0)
(0 0 0)
(0 0 0)
(0 0 0)
(0 0 0)
(0 0 0)
(0 0 0)
(0 0 0)
(0 0 0)
(0 0 0)
(0 0 0)
(0 0 0)
(0 0 0)
(0 0 0)
(0 0 0)
(0 0 0)
(0 0 0)
(0 0 0)
(0 0 0)
(0 0 0)
(0 0 0)
(0 0 0)
(0 0 0)
(0 0 0)
(0 0 0)
(0 0 0)
(0 0 0)
(0 0 0)
(0 0 0)
(0 0 0)
(0 0 0)
(0 0 0)
(0 0 0)
(0 0 0)
(0 0 0)
(0 0 0)
(0 0 0)
(0 0 0)
(0 0 0)
(0 0 0)
(0 0 0)
(0 0 0)
(0 0 0)
(0 0 0)
(0 0 0)
(0 0 0)
(0 0 0)
(0 0 0)
(0 0 0)
(0 0 0)
(0 0 0)
(0 0 0)
(0 0 0)
(0 0 0)
(0 0 0)
(0 0 0)
(0 0 0)
(0 0 0)
(0 0 0)
(0 0 0)
(0 0 0)
(0 0 0)
(0 0 0)
(0 0 0)
(0 0 0)
(0 0 0)
(0 0 0)
(0 0 0)
(0 0 0)
(0 0 0)
(0 0 0)
(0 0 0)
(0 0 0)
(0 0 0)
(0 0 0)
(0 0 0)
(0 0 0)
(0 0 0)
(0 0 0)
(0 0 0)
(0 0 0)
(0 0 0)
(0 0 0)
(0 0 0)
(0 0 0)
(0 0 0)
(0 0 0)
(0 0 0)
(0 0 0)
(0 0 0)
(0 0 0)
(0 0 0)
(0 0 0)
(0 0 0)
(0 0 0)
(0 0 0)
(0 0 0)
(0 0 0)
(0 0 0)
(0 0 0)
(0 0 0)
(0 0 0)
(0 0 0)
(0 0 0)
(0 0 0)
(0 0 0)
(0 0 0)
(0 0 0)
(0 0 0)
(0 0 0)
(0 0 0)
(0 0 0)
(0 0 0)
(0 0 0)
(0 0 0)
(0 0 0)
(0 0 0)
(0 0 0)
(0 0 0)
(0 0 0)
(0 0 0)
(0 0 0)
(0 0 0)
(0 0 0)
(0 0 0)
(0 0 0)
(0 0 0)
(0 0 0)
(0 0 0)
(0 0 0)
(0 0 0)
(0 0 0)
(0 0 0)
(0 0 0)
(0 0 0)
(0 0 0)
(0 0 0)
(0 0 0)
(0 0 0)
(0 0 0)
(0 0 0)
(0 0 0)
(0 0 0)
(0 0 0)
(0 0 0)
(0 0 0)
(0 0 0)
(0 0 0)
(0 0 0)
(0 0 0)
(0 0 0)
(0 0 0)
(0 0 0)
(0 0 0)
(0 0 0)
(0 0 0)
(0 0 0)
(0 0 0)
(0 0 0)
(0 0 0)
(0 0 0)
(0 0 0)
(0 0 0)
(0 0 0)
(0 0 0)
(0 0 0)
(0 0 0)
(0 0 0)
(0 0 0)
(0 0 0)
(0 0 0)
(0 0 0)
(0 0 0)
(0 0 0)
(0 0 0)
(0 0 0)
(0 0 0)
(0 0 0)
(0 0 0)
(0 0 0)
(0 0 0)
(0 0 0)
(0 0 0)
(0 0 0)
(0 0 0)
(0 0 0)
(0 0 0)
(0 0 0)
(0 0 0)
(0 0 0)
(0 0 0)
(0 0 0)
(0 0 0)
(0 0 0)
(0 0 0)
(0 0 0)
(0 0 0)
(0 0 0)
(0 0 0)
(0 0 0)
(0 0 0)
(0 0 0)
(0 0 0)
(0 0 0)
(0 0 0)
(0 0 0)
(0 0 0)
(0 0 0)
(0 0 0)
(0 0 0)
(0 0 0)
(0 0 0)
(0 0 0)
(0 0 0)
(0 0 0)
(0 0 0)
(0 0 0)
(0 0 0)
(0 0 0)
(0 0 0)
(0 0 0)
(0 0 0)
(0 0 0)
(0 0 0)
(0 0 0)
(0 0 0)
(0 0 0)
(0 0 0)
(0 0 0)
(0 0 0)
(0 0 0)
(0 0 0)
(0 0 0)
(0 0 0)
(0 0 0)
(0 0 0)
(0 0 0)
(0 0 0)
(0 0 0)
(0 0 0)
(0 0 0)
(0 0 0)
(0 0 0)
(0 0 0)
(0 0 0)
(0 0 0)
(0 0 0)
(0 0 0)
(0 0 0)
(0 0 0)
(0 0 0)
(0 0 0)
(0 0 0)
(0 0 0)
(0 0 0)
(0 0 0)
(0 0 0)
(0 0 0)
(0 0 0)
(0 0 0)
(0 0 0)
(0 0 0)
(0 0 0)
(0 0 0)
(0 0 0)
(0 0 0)
(0 0 0)
(0 0 0)
(0 0 0)
(0 0 0)
(0 0 0)
(0 0 0)
(0 0 0)
(0 0 0)
(0 0 0)
(0 0 0)
(0 0 0)
(0 0 0)
(0 0 0)
(0 0 0)
(0 0 0)
(0 0 0)
(0 0 0)
(0 0 0)
(0 0 0)
(0 0 0)
(0 0 0)
(0 0 0)
(0 0 0)
(0 0 0)
(0 0 0)
(0 0 0)
(0 0 0)
(0 0 0)
(0 0 0)
(0 0 0)
(0 0 0)
(0 0 0)
(0 0 0)
(0 0 0)
(0 0 0)
(0 0 0)
(0 0 0)
(0 0 0)
(0 0 0)
(0 0 0)
(0 0 0)
(0 0 0)
(0 0 0)
(0 0 0)
(0 0 0)
(0 0 0)
(0 0 0)
(0 0 0)
(0 0 0)
(0 0 0)
(0 0 0)
(0 0 0)
(0 0 0)
(0 0 0)
(0 0 0)
(0 0 0)
(0 0 0)
(0 0 0)
(0 0 0)
(0 0 0)
(0 0 0)
(0 0 0)
(0 0 0)
(0 0 0)
(0 0 0)
(0 0 0)
(0 0 0)
(0 0 0)
(0 0 0)
(0 0 0)
(0 0 0)
(0 0 0)
(0 0 0)
(0 0 0)
(0 0 0)
(0 0 0)
(0 0 0)
(0 0 0)
(0 0 0)
(0 0 0)
(0 0 0)
(0 0 0)
(0 0 0)
(0 0 0)
(0 0 0)
(0 0 0)
(0 0 0)
(0 0 0)
(0 0 0)
(0 0 0)
(0 0 0)
(0 0 0)
(0 0 0)
(0 0 0)
(0 0 0)
(0 0 0)
(0 0 0)
(0 0 0)
(0 0 0)
(0 0 0)
(0 0 0)
(0 0 0)
(0 0 0)
(0 0 0)
(0 0 0)
(0 0 0)
(0 0 0)
(0 0 0)
(0 0 0)
(0 0 0)
(0 0 0)
(0 0 0)
(0 0 0)
(0 0 0)
(0 0 0)
(0 0 0)
(0 0 0)
(0 0 0)
(0 0 0)
(0 0 0)
(0 0 0)
(0 0 0)
(0 0 0)
(0 0 0)
(0 0 0)
(0 0 0)
(0 0 0)
(0 0 0)
(0 0 0)
(0 0 0)
(0 0 0)
(0 0 0)
(0 0 0)
(0 0 0)
(0 0 0)
(0 0 0)
(0 0 0)
(0 0 0)
(0 0 0)
(0 0 0)
(0 0 0)
(0 0 0)
(0 0 0)
(0 0 0)
(0 0 0)
(0 0 0)
(0 0 0)
(0 0 0)
(0 0 0)
(0 0 0)
(0 0 0)
(0 0 0)
(0 0 0)
(0 0 0)
(0 0 0)
(0 0 0)
(0 0 0)
(0 0 0)
(0 0 0)
(0 0 0)
(0 0 0)
(0 0 0)
(0 0 0)
(0 0 0)
(0 0 0)
(0 0 0)
(0 0 0)
(0 0 0)
(0 0 0)
(0 0 0)
(0 0 0)
(0 0 0)
(0 0 0)
(0 0 0)
(0 0 0)
(0 0 0)
(0 0 0)
(0 0 0)
(0 0 0)
(0 0 0)
(0 0 0)
(0 0 0)
(0 0 0)
(0 0 0)
(0 0 0)
(0 0 0)
(0 0 0)
(0 0 0)
(0 0 0)
(0 0 0)
(0 0 0)
(0 0 0)
(0 0 0)
(0 0 0)
(0 0 0)
(0 0 0)
(0 0 0)
(0 0 0)
(0 0 0)
(0 0 0)
(0 0 0)
(0 0 0)
(0 0 0)
(0 0 0)
(0 0 0)
(0 0 0)
(0 0 0)
(0 0 0)
(0 0 0)
(0 0 0)
(0 0 0)
(0 0 0)
(0 0 0)
(0 0 0)
(0 0 0)
(0 0 0)
(0 0 0)
(0 0 0)
(0 0 0)
(0 0 0)
(0 0 0)
(0 0 0)
(0 0 0)
(0 0 0)
(0 0 0)
(0 0 0)
(0 0 0)
(0 0 0)
(0 0 0)
(0 0 0)
(0 0 0)
(0 0 0)
(0 0 0)
(0 0 0)
(0 0 0)
(0 0 0)
(0 0 0)
(0 0 0)
(0 0 0)
(0 0 0)
(0 0 0)
(0 0 0)
(0 0 0)
(0 0 0)
(0 0 0)
(0 0 0)
(0 0 0)
(0 0 0)
(0 0 0)
(0 0 0)
(0 0 0)
(0 0 0)
(0 0 0)
(0 0 0)
(0 0 0)
(0 0 0)
(0 0 0)
(0 0 0)
(0 0 0)
(0 0 0)
(0 0 0)
(0 0 0)
(0 0 0)
(0 0 0)
(0 0 0)
(0 0 0)
(0 0 0)
(0 0 0)
(0 0 0)
(0 0 0)
(0 0 0)
(0 0 0)
(0 0 0)
(0 0 0)
(0 0 0)
(0 0 0)
(0 0 0)
(0 0 0)
(0 0 0)
(0 0 0)
(0 0 0)
(0 0 0)
(0 0 0)
(0 0 0)
(0 0 0)
(0 0 0)
(0 0 0)
(0 0 0)
(0 0 0)
(0 0 0)
(0 0 0)
(0 0 0)
(0 0 0)
(0 0 0)
(0 0 0)
(0 0 0)
(0 0 0)
(0 0 0)
(0 0 0)
(0 0 0)
(0 0 0)
(0 0 0)
(0 0 0)
(0 0 0)
(0 0 0)
(0 0 0)
(0 0 0)
(0 0 0)
(0 0 0)
(0 0 0)
(0 0 0)
(0 0 0)
(0 0 0)
(0 0 0)
(0 0 0)
(0 0 0)
(0 0 0)
(0 0 0)
(0 0 0)
(0 0 0)
(0 0 0)
(0 0 0)
(0 0 0)
(0 0 0)
(0 0 0)
(0 0 0)
(0 0 0)
(0 0 0)
(0 0 0)
(0 0 0)
(0 0 0)
(0 0 0)
(0 0 0)
(0 0 0)
(0 0 0)
(0 0 0)
(0 0 0)
(0 0 0)
(0 0 0)
(0 0 0)
(0 0 0)
(0 0 0)
(0 0 0)
(0 0 0)
(0 0 0)
(0 0 0)
(0 0 0)
(0 0 0)
(0 0 0)
(0 0 0)
(0 0 0)
(0 0 0)
(0 0 0)
(0 0 0)
(0 0 0)
(0 0 0)
(0 0 0)
(0 0 0)
(0 0 0)
(0 0 0)
(0 0 0)
(0 0 0)
(0 0 0)
(0 0 0)
(0 0 0)
(0 0 0)
(0 0 0)
(0 0 0)
(0 0 0)
(0 0 0)
(0 0 0)
(0 0 0)
(0 0 0)
(0 0 0)
(0 0 0)
(0 0 0)
(0 0 0)
(0 0 0)
(0 0 0)
(0 0 0)
(0 0 0)
(0 0 0)
(0 0 0)
(0 0 0)
(0 0 0)
(0 0 0)
(0 0 0)
(0 0 0)
(0 0 0)
(0 0 0)
(0 0 0)
(0 0 0)
(0 0 0)
(0 0 0)
(0 0 0)
(0 0 0)
(0 0 0)
(0 0 0)
(0 0 0)
(0 0 0)
(0 0 0)
(0 0 0)
(0 0 0)
(0 0 0)
(0 0 0)
(0 0 0)
(0 0 0)
(0 0 0)
(0 0 0)
(0 0 0)
(0 0 0)
(0 0 0)
(0 0 0)
(0 0 0)
(0 0 0)
(0 0 0)
(0 0 0)
(0 0 0)
(0 0 0)
(0 0 0)
(0 0 0)
(0 0 0)
(0 0 0)
(0 0 0)
(0 0 0)
(0 0 0)
(0 0 0)
(0 0 0)
(0 0 0)
(0 0 0)
(0 0 0)
(0 0 0)
(0 0 0)
(0 0 0)
(0 0 0)
(0 0 0)
(0 0 0)
(0 0 0)
(0 0 0)
(0 0 0)
(0 0 0)
(0 0 0)
(0 0 0)
(0 0 0)
(0 0 0)
(0 0 0)
(0 0 0)
(0 0 0)
(0 0 0)
(0 0 0)
(0 0 0)
(0 0 0)
(0 0 0)
(0 0 0)
(0 0 0)
(0 0 0)
(0 0 0)
(0 0 0)
(0 0 0)
(0 0 0)
(0 0 0)
(0 0 0)
(0 0 0)
(0 0 0)
(0 0 0)
(0 0 0)
(0 0 0)
(0 0 0)
(0 0 0)
(0 0 0)
(0 0 0)
(0 0 0)
(0 0 0)
(0 0 0)
(0 0 0)
(0 0 0)
(0 0 0)
(0 0 0)
(0 0 0)
(0 0 0)
(0 0 0)
(0 0 0)
(0 0 0)
(0 0 0)
(0 0 0)
(0 0 0)
(0 0 0)
(0 0 0)
(0 0 0)
(0 0 0)
(0 0 0)
(0 0 0)
(0 0 0)
(0 0 0)
(0 0 0)
(0 0 0)
(0 0 0)
(0 0 0)
(0 0 0)
(0 0 0)
(0 0 0)
(0 0 0)
(0 0 0)
(0 0 0)
(0 0 0)
(0 0 0)
(0 0 0)
(0 0 0)
(0 0 0)
(0 0 0)
(0 0 0)
(0 0 0)
(0 0 0)
(0 0 0)
(0 0 0)
(0 0 0)
(0 0 0)
(0 0 0)
(0 0 0)
(0 0 0)
(0 0 0)
(0 0 0)
(0 0 0)
(0 0 0)
(0 0 0)
(0 0 0)
(0 0 0)
(0 0 0)
(0 0 0)
(0 0 0)
(0 0 0)
(0 0 0)
(0 0 0)
(0 0 0)
(0 0 0)
(0 0 0)
(0 0 0)
(0 0 0)
(0 0 0)
(0 0 0)
(0 0 0)
(0 0 0)
(0 0 0)
(0 0 0)
(0 0 0)
(0 0 0)
(0 0 0)
(0 0 0)
(0 0 0)
(0 0 0)
(0 0 0)
(0 0 0)
(0 0 0)
(0 0 0)
(0 0 0)
(0 0 0)
(0 0 0)
(0 0 0)
(0 0 0)
(0 0 0)
(0 0 0)
(0 0 0)
(0 0 0)
(0 0 0)
(0 0 0)
(0 0 0)
(0 0 0)
(0 0 0)
(0 0 0)
(0 0 0)
(0 0 0)
(0 0 0)
(0 0 0)
(0 0 0)
(0 0 0)
(0 0 0)
(0 0 0)
(0 0 0)
(0 0 0)
(0 0 0)
(0 0 0)
(0 0 0)
(0 0 0)
(0 0 0)
(0 0 0)
(0 0 0)
(0 0 0)
(0 0 0)
(0 0 0)
(0 0 0)
(0 0 0)
(0 0 0)
(0 0 0)
(0 0 0)
(0 0 0)
(0 0 0)
(0 0 0)
(0 0 0)
(0 0 0)
(0 0 0)
(0 0 0)
(0 0 0)
(0 0 0)
(0 0 0)
(0 0 0)
(0 0 0)
(0 0 0)
(0 0 0)
(0 0 0)
(0 0 0)
(0 0 0)
(0 0 0)
(0 0 0)
(0 0 0)
(0 0 0)
(0 0 0)
(0 0 0)
(0 0 0)
(0 0 0)
(0 0 0)
(0 0 0)
(0 0 0)
(0 0 0)
(0 0 0)
(0 0 0)
(0 0 0)
(0 0 0)
(0 0 0)
(0 0 0)
(0 0 0)
(0 0 0)
(0 0 0)
(0 0 0)
(0 0 0)
(0 0 0)
(0 0 0)
(0 0 0)
(0 0 0)
(0 0 0)
(0 0 0)
(0 0 0)
(0 0 0)
(0 0 0)
(0 0 0)
(0 0 0)
(0 0 0)
(0 0 0)
(0 0 0)
(0 0 0)
(0 0 0)
(0 0 0)
(0 0 0)
(0 0 0)
(0 0 0)
(0 0 0)
(0 0 0)
(0 0 0)
(0 0 0)
(0 0 0)
(0 0 0)
(0 0 0)
(0 0 0)
(0 0 0)
(0 0 0)
(0 0 0)
(0 0 0)
(0 0 0)
(0 0 0)
(0 0 0)
(0 0 0)
(0 0 0)
(0 0 0)
(0 0 0)
(0 0 0)
(0 0 0)
(0 0 0)
(0 0 0)
(0 0 0)
(0 0 0)
(0 0 0)
(0 0 0)
(0 0 0)
(0 0 0)
(0 0 0)
(0 0 0)
(0 0 0)
(0 0 0)
(0 0 0)
(0 0 0)
(0 0 0)
(0 0 0)
(0 0 0)
(0 0 0)
(0 0 0)
(0 0 0)
(0 0 0)
(0 0 0)
(0 0 0)
(0 0 0)
(0 0 0)
(0 0 0)
(0 0 0)
(0 0 0)
(0 0 0)
(0 0 0)
(0 0 0)
(0 0 0)
(0 0 0)
(0 0 0)
(0 0 0)
(0 0 0)
(0 0 0)
(0 0 0)
(0 0 0)
(0 0 0)
(0 0 0)
(0 0 0)
(0 0 0)
(0 0 0)
(0 0 0)
(0 0 0)
(0 0 0)
(0 0 0)
(0 0 0)
(0 0 0)
(0 0 0)
(0 0 0)
(0 0 0)
(0 0 0)
(0 0 0)
(0 0 0)
(0 0 0)
(0 0 0)
(0 0 0)
(0 0 0)
(0 0 0)
(0 0 0)
(0 0 0)
(0 0 0)
(0 0 0)
(0 0 0)
(0 0 0)
(0 0 0)
(0 0 0)
(0 0 0)
(0 0 0)
(0 0 0)
(0 0 0)
(0 0 0)
(0 0 0)
(0 0 0)
(0 0 0)
(0 0 0)
(0 0 0)
(0 0 0)
(0 0 0)
(0 0 0)
(0 0 0)
(0 0 0)
(0 0 0)
(0 0 0)
(0 0 0)
(0 0 0)
(0 0 0)
(0 0 0)
(0 0 0)
(0 0 0)
(0 0 0)
(0 0 0)
(0 0 0)
(0 0 0)
(0 0 0)
(0 0 0)
(0 0 0)
(0 0 0)
(0 0 0)
(0 0 0)
(0 0 0)
(0 0 0)
(0 0 0)
(0 0 0)
(0 0 0)
(0 0 0)
(0 0 0)
(0 0 0)
(0 0 0)
(0 0 0)
(0 0 0)
(0 0 0)
(0 0 0)
(0 0 0)
(0 0 0)
(0 0 0)
(0 0 0)
(0 0 0)
(0 0 0)
(0 0 0)
(0 0 0)
(0 0 0)
(0 0 0)
(0 0 0)
(0 0 0)
(0 0 0)
(0 0 0)
(0 0 0)
(0 0 0)
(0 0 0)
(0 0 0)
(0 0 0)
(0 0 0)
(0 0 0)
(0 0 0)
(0 0 0)
(0 0 0)
(0 0 0)
(0 0 0)
(0 0 0)
(0 0 0)
(0 0 0)
(0 0 0)
(0 0 0)
(0 0 0)
(0 0 0)
(0 0 0)
(0 0 0)
(0 0 0)
(0 0 0)
(0 0 0)
(0 0 0)
(0 0 0)
(0 0 0)
(0 0 0)
(0 0 0)
(0 0 0)
(0 0 0)
(0 0 0)
(0 0 0)
(0 0 0)
(0 0 0)
(0 0 0)
(0 0 0)
(0 0 0)
(0 0 0)
(0 0 0)
(0 0 0)
(0 0 0)
(0 0 0)
(0 0 0)
(0 0 0)
(0 0 0)
(0 0 0)
(0 0 0)
(0 0 0)
(0 0 0)
(0 0 0)
(0 0 0)
(0 0 0)
(0 0 0)
(0 0 0)
(0 0 0)
(0 0 0)
(0 0 0)
(0 0 0)
(0 0 0)
(0 0 0)
(0 0 0)
(0 0 0)
(0 0 0)
(0 0 0)
(0 0 0)
(0 0 0)
(0 0 0)
(0 0 0)
(0 0 0)
(0 0 0)
(0 0 0)
(0 0 0)
(0 0 0)
(0 0 0)
(0 0 0)
(0 0 0)
(0 0 0)
(0 0 0)
(0 0 0)
(0 0 0)
(0 0 0)
(0 0 0)
(0 0 0)
(0 0 0)
(0 0 0)
(0 0 0)
(0 0 0)
(0 0 0)
(0 0 0)
(0 0 0)
(0 0 0)
(0 0 0)
(0 0 0)
(0 0 0)
(0 0 0)
(0 0 0)
(0 0 0)
(0 0 0)
(0 0 0)
(0 0 0)
(0 0 0)
(0 0 0)
(0 0 0)
(0 0 0)
(0 0 0)
(0 0 0)
(0 0 0)
(0 0 0)
(0 0 0)
(0 0 0)
(0 0 0)
(0 0 0)
(0 0 0)
(0 0 0)
(0 0 0)
(0 0 0)
(0 0 0)
(0 0 0)
(0 0 0)
(0 0 0)
(0 0 0)
(0 0 0)
(0 0 0)
(0 0 0)
(0 0 0)
(0 0 0)
(0 0 0)
(0 0 0)
(0 0 0)
(0 0 0)
(0 0 0)
(0 0 0)
(0 0 0)
(0 0 0)
(0 0 0)
(0 0 0)
(0 0 0)
(0 0 0)
(0 0 0)
(0 0 0)
(0 0 0)
(0 0 0)
(0 0 0)
(0 0 0)
(0 0 0)
(0 0 0)
(0 0 0)
(0 0 0)
(0 0 0)
(0 0 0)
(0 0 0)
(0 0 0)
(0 0 0)
(0 0 0)
(0 0 0)
(0 0 0)
(0 0 0)
(0 0 0)
(0 0 0)
(0 0 0)
(0 0 0)
(0 0 0)
(0 0 0)
(0 0 0)
(0 0 0)
(0 0 0)
(0 0 0)
(0 0 0)
(0 0 0)
(0 0 0)
(0 0 0)
(0 0 0)
(0 0 0)
(0 0 0)
(0 0 0)
(0 0 0)
(0 0 0)
(0 0 0)
(0 0 0)
(0 0 0)
(0 0 0)
(0 0 0)
(0 0 0)
(0 0 0)
(0 0 0)
(0 0 0)
(0 0 0)
(0 0 0)
(0 0 0)
(0 0 0)
(0 0 0)
(0 0 0)
(0 0 0)
(0 0 0)
(0 0 0)
(0 0 0)
(0 0 0)
(0 0 0)
(0 0 0)
(0 0 0)
(0 0 0)
(0 0 0)
(0 0 0)
(0 0 0)
(0 0 0)
(0 0 0)
(0 0 0)
(0 0 0)
(0 0 0)
(0 0 0)
(0 0 0)
(0 0 0)
(0 0 0)
(0 0 0)
(0 0 0)
(0 0 0)
(0 0 0)
(0 0 0)
(0 0 0)
(0 0 0)
(0 0 0)
(0 0 0)
(0 0 0)
(0 0 0)
(0 0 0)
(0 0 0)
(0 0 0)
(0 0 0)
(0 0 0)
(0 0 0)
(0 0 0)
(0 0 0)
(0 0 0)
(0 0 0)
(0 0 0)
(0 0 0)
(0 0 0)
(0 0 0)
(0 0 0)
(0 0 0)
(0 0 0)
(0 0 0)
(0 0 0)
(0 0 0)
(0 0 0)
(0 0 0)
(0 0 0)
(0 0 0)
(0 0 0)
(0 0 0)
(0 0 0)
(0 0 0)
(0 0 0)
(0 0 0)
(0 0 0)
(0 0 0)
(0 0 0)
(0 0 0)
(0 0 0)
(0 0 0)
(0 0 0)
(0 0 0)
(0 0 0)
(0 0 0)
(0 0 0)
(0 0 0)
(0 0 0)
(0 0 0)
(0 0 0)
(0 0 0)
(0.0656817 0.00904356 -0.0322612)
(0.0532052 0.0183362 -0.0221565)
(0.11432 0.0180411 -0.0259626)
(0.1249 0.00533318 -0.0288554)
(0.0450736 0.0318402 -0.0222439)
(0.0629448 0.0597609 -0.0405165)
(-0.0167383 0.0140847 -0.0377785)
(-0.0273075 -0.0102466 -0.00941391)
(0.00422369 0.0242852 -0.0218472)
(0.046621 0.0161359 -0.0245753)
(0.0883614 -0.0181979 0.00430402)
(-0.00924774 0.0220587 -0.00178189)
(-0.0299741 -0.0968492 0.0273248)
(0.093675 -0.033857 0.00747178)
(0.0530157 -0.0797872 -0.00626483)
(0.00477162 -0.0930067 0.0146756)
(-0.0423672 -0.0838437 -0.00383081)
(-0.12366 -0.0755486 -0.0661592)
(-0.132887 -0.0917499 -0.0571779)
(-0.175506 -0.0991949 -0.0197611)
(-0.155888 -0.107845 0.0021047)
(-0.0852588 -0.0622265 -0.00721819)
(-0.0560452 -0.039754 -0.00995182)
(-0.115467 -0.121374 0.0234204)
(-0.0854288 -0.0808673 -0.0117357)
(-0.0530401 -0.0551342 -0.00856533)
(-0.0248134 0.0154017 0.00400382)
(-0.0189817 -0.0394224 0.00764374)
(-0.0345015 -0.044585 0.0110179)
(-0.0536915 -0.0116327 0.0259561)
(-0.0282538 -0.0900486 0.0427001)
(-0.0279085 -0.119335 0.0208441)
(-0.0246453 -0.105157 0.015925)
(-0.0710394 -0.0944729 0.00932043)
(-0.164873 -0.071443 0.0022976)
(-0.084468 -0.128371 0.00849393)
(-0.19817 -0.156289 -0.0183248)
(-0.204935 -0.100926 -0.0043311)
(-0.165816 -0.0993668 0.00240104)
(-0.207596 -0.0931111 -0.018643)
(-0.166582 -0.0802726 -0.0245313)
(-0.112294 -0.102416 0.000476415)
(-0.0725361 -0.0953083 -0.00479252)
(-0.118962 -0.0682995 -0.020673)
(-0.0572834 -0.0567463 -0.00401308)
(-0.0457484 -0.0683064 -0.0100098)
(-0.0253662 -0.0453751 -0.00710586)
(-0.012319 -0.027291 -0.00689409)
(-0.0110455 -0.0372329 0.00192951)
(-0.00208459 -0.0976563 0.00124635)
(0.0108661 -0.114468 -0.0160734)
(0.0173821 -0.167072 0.0119713)
(-0.0150032 -0.141599 0.0152388)
(0.0209918 -0.160054 -0.00449255)
(0.00581847 -0.175379 -0.00142923)
(-0.0996091 -0.133217 0.0173272)
(-0.174786 -0.157369 -0.0486938)
(-0.0607065 -0.158224 0.00103973)
(-0.133641 -0.112164 -0.00587763)
(-0.177673 -0.0991027 -0.0481285)
(-0.163921 -0.0515372 -0.0793122)
(-0.128819 -0.104389 -0.0425832)
(-0.141376 -0.0345011 -0.0609232)
(-0.117742 -0.032759 -0.0467144)
(-0.0604028 -0.0210418 -0.01352)
(-0.11365 -0.000291627 -0.0857381)
(-0.0621051 0.010586 -0.0461564)
(-0.021292 -0.00873499 -0.00814299)
(-0.00611613 -0.00803488 -0.00947936)
(-0.0245328 0.00621054 -0.00475057)
(-0.00659464 -0.0691013 -0.0295012)
(-0.0179568 -0.0878439 -0.0130043)
(-0.0199738 -0.13543 -0.0255412)
(-0.018632 -0.0352093 -0.0168967)
(-0.0164269 -0.0416728 -0.0212613)
(-0.0405804 -0.138673 -0.0407775)
(-0.0669028 -0.105236 -0.0183192)
(-0.0515802 -0.0604877 -0.0252569)
(-0.0468267 -0.07618 -0.0347637)
(-0.0953284 -0.0688546 -0.0198379)
(-0.0710914 -0.0577449 -0.0431597)
(-0.0318054 -0.0520321 -0.0320578)
(-0.050065 -0.010967 -0.020325)
(-0.064875 -0.00516535 -0.0383644)
(-0.0371854 0.0112813 -0.0232617)
(-0.0209744 -0.00475649 -0.0284406)
(-0.00362564 0.00540928 -0.0117413)
(-0.0156283 0.000429276 -0.0136255)
(-0.0113671 0.00292972 -0.00674132)
(-0.0485733 -0.0111507 -0.0179502)
(-0.0414764 -0.0112643 -0.0299205)
(-0.0283372 -0.00299371 -0.0178442)
(-0.00069688 -0.0145564 -0.0481221)
(-0.0227885 0.0155737 -0.00823427)
(-0.00381249 -0.00813251 -0.0447599)
(-0.0203588 0.0104675 -0.0139801)
(0.0602481 -0.0177868 -0.0902632)
(0.0524588 -0.0246474 -0.111929)
(0.0654252 0.00802495 -0.00320856)
(0.0576292 0.00793842 -0.056036)
(0.0606039 0.00719039 0.0403486)
(0.0513737 0.00624866 0.00218674)
(-0.0105036 -0.00458014 -0.0358989)
(0.0145204 0.0193488 0.079857)
(0.0587923 0.0317895 0.00520552)
(0.0409356 0.0153075 -0.003352)
(0.0606195 0.0132055 -0.0328091)
(0.0485932 0.0289323 0.0524331)
(0.0180953 0.0206578 0.0585683)
(-0.0100372 -0.0353616 -0.0124193)
(-0.0200766 -0.0134857 0.0440876)
(0.0729762 -0.0602024 -0.0575243)
(0.121895 -0.178452 -0.054096)
(0.0907706 -0.0202163 -0.00439835)
(0.0419919 -0.038499 0.0130474)
(-0.0160047 -0.0806124 0.083449)
(0.118495 -0.117448 -0.105593)
(0.0609667 -0.0867359 0.0212621)
(0.0329595 -0.204519 0.0562742)
(-0.0652975 -0.161691 0.126693)
(-0.0778587 -0.104327 -0.0278747)
(-0.163078 -0.196052 -0.0277896)
(-0.0757169 -0.130748 -0.0518998)
(-0.0742455 -0.0654165 0.0756453)
(-0.070984 -0.0710519 0.0431089)
(-0.166958 -0.200302 0.0550629)
(-0.0815575 -0.100343 0.04436)
(-0.0609004 -0.0984374 -0.052638)
(-0.0589557 -0.0997968 0.0164558)
(0.0259333 -0.0347645 0.031148)
(0.0341011 -0.0987782 -0.103914)
(-0.0030021 -0.14465 0.0103361)
(0.0561537 -0.149934 0.049792)
(0.0240478 -0.101613 -0.100122)
(0.0450389 -0.161124 0.00340646)
(-0.0131375 -0.0944856 -0.100344)
(-0.0112872 -0.0770962 -0.0969334)
(-0.0527375 -0.139512 0.00118842)
(-0.0165366 -0.128802 -0.0517595)
(-0.00959245 -0.0887466 -0.061732)
(-0.00551229 -0.198721 0.0134621)
(-0.00582692 -0.12233 -0.0655368)
(0.000566043 -0.0999225 -0.0816047)
(0.0272603 -0.105135 -0.0238339)
(-0.00993733 -0.0850388 -0.0961383)
(-0.0046882 -0.0554336 -0.102437)
(-0.0384119 0.0331861 -0.12768)
(-0.0120302 -0.0765351 -0.0722557)
(0.00654394 -0.0781755 -0.0763082)
(-0.0185022 -0.0309486 -0.0886105)
(-0.0280608 -0.0852667 -0.0830332)
(-0.0388788 -0.0996565 -0.137183)
(-0.077382 -0.172029 -0.161659)
(-0.0660199 -0.0786518 -0.088369)
(-0.0802915 -0.115857 -0.182352)
(-0.0460378 -0.150198 -0.150522)
(-0.0382853 -0.18093 -0.173588)
(-0.0768136 -0.108699 -0.210422)
(-0.0824543 -0.133262 -0.213767)
(-0.0543396 0.0455341 -0.133286)
(-0.0425944 0.00163823 -0.154545)
(-0.0425669 0.0477343 -0.134983)
(-0.0463059 -0.0574341 -0.120464)
(-0.0343927 -0.00588608 -0.0870914)
(-0.0130056 -0.041967 -0.162948)
(-0.0260448 0.00166361 -0.1308)
(-0.0211433 0.00713548 -0.0924671)
(-0.0645441 -0.0613533 -0.195902)
(-0.0796203 -0.0867759 -0.198295)
(-0.039424 -0.0328206 -0.219472)
(-0.0394242 -0.0241932 -0.215418)
(-0.0326798 -0.115632 -0.184522)
(0.00466201 -0.0766944 -0.174876)
(0.00732344 -0.0209466 -0.136386)
(0.0111489 -0.0456622 -0.203083)
(0.0135048 -0.0195969 -0.228774)
(0.0270315 -0.0595663 -0.206367)
(0.0424343 -0.0767967 -0.169996)
(0.0262952 -0.015048 -0.202503)
(0.0328386 -0.044323 -0.165579)
(0.0158804 -0.000241299 -0.113367)
(0.00570368 -0.00408629 -0.0381477)
(0.0538692 0.000937578 -0.0106784)
(-0.0124808 -0.0305786 0.0108425)
(0.00157466 0.000508046 0.120676)
(0.0814368 -0.0141388 -0.0132041)
(-0.0131599 -0.0700952 0.0855935)
(0.00260823 -0.0611092 0.191878)
(0.0395984 0.00177787 0.116482)
(0.000222665 0.0108021 0.11913)
(0.10749 0.00149234 0.0173952)
(0.0379615 -0.0365325 0.212344)
(-0.00744299 -0.00410865 0.179658)
(-0.0405625 -0.0200786 0.0982877)
(-0.0509245 -0.0278846 0.146568)
(0.111401 -0.175323 -0.0381388)
(0.069811 -0.126083 -0.0207707)
(0.00809011 -0.15569 0.0996656)
(0.031588 -0.256738 0.0939353)
(-0.130412 -0.242495 0.175475)
(0.0850438 -0.0953983 0.0169321)
(-0.0292835 -0.178918 0.173847)
(0.0052866 -0.245088 0.160257)
(-0.184114 -0.285372 0.24429)
(-0.0820272 -0.0802818 0.106814)
(-0.127819 -0.194588 0.163936)
(-0.0919854 -0.152204 0.119808)
(-0.115134 -0.0979165 0.214524)
(-0.0969732 -0.103439 0.15255)
(-0.107104 -0.23276 0.23861)
(-0.0851067 -0.195153 0.172132)
(-0.0656213 -0.12533 0.0787439)
(-0.0627083 -0.147604 0.122381)
(0.130948 -0.194355 0.0590476)
(0.0161317 -0.0944387 -0.0752781)
(0.0870614 -0.13201 0.0165321)
(0.0878077 -0.158117 0.0710104)
(0.00643455 -0.0613813 -0.0139597)
(0.057083 -0.133926 0.0806006)
(-0.00851848 -0.189898 0.0154159)
(-0.0180189 -0.128318 -0.00274297)
(-0.0365746 -0.208114 0.11352)
(-0.000497603 -0.229726 0.0810209)
(-0.0172145 -0.16087 0.0683431)
(0.0276786 -0.10488 -0.00507054)
(-0.0312321 -0.114012 -0.0727358)
(0.00258828 -0.0613796 0.0102874)
(0.00599488 -0.10658 0.0417915)
(-0.0291517 -0.103676 -0.00286935)
(0.0198154 -0.140645 -0.00590959)
(0.00501007 -0.106414 -0.0335209)
(0.0401409 -0.236346 0.0613387)
(0.0316211 -0.180862 0.0516334)
(0.0456351 -0.173475 0.051745)
(-0.0469892 -0.109029 -0.112389)
(-0.0410872 -0.0960042 -0.0261507)
(-0.0574811 -0.193883 -0.0863902)
(-0.0583983 -0.103969 -0.106334)
(-0.0709789 -0.113258 -0.111193)
(-0.0372233 -0.135711 -0.0185255)
(-0.0374758 -0.180825 -0.0365442)
(-0.035045 -0.0928648 -0.0460106)
(-0.0481016 -0.116271 -0.0737114)
(-0.00569863 -0.0548398 -0.0425768)
(0.0280595 -0.0890705 -0.10088)
(-0.0058417 -0.0203052 -0.0733128)
(0.00331864 -0.125317 0.00517779)
(0.0175957 -0.0636279 0.0347471)
(0.0592448 -0.103602 -0.0227448)
(0.0246826 -0.0509035 0.00559331)
(0.032398 -0.0988688 0.0638141)
(-0.0749189 -0.0649672 -0.107265)
(-0.0610873 -0.0597971 -0.082598)
(0.00274582 -0.0617458 -0.118605)
(0.00884333 -0.0206161 -0.125902)
(-0.0403373 -0.0505307 -0.0813956)
(0.00435752 -0.05657 -0.0811381)
(0.0181511 -0.0235202 0.0241352)
(0.0536062 -0.0832654 -0.120197)
(0.0194189 -0.021195 -0.157358)
(0.0137984 -0.024064 -0.0931409)
(0.0253164 -0.0180476 -0.0398604)
(0.0334809 -0.0167755 -0.0522186)
(0.0595317 -0.0573243 0.0123621)
(0.0131847 -0.00806063 0.0454686)
(0.0150789 -0.0134622 0.0987547)
(0.0681882 -0.0211316 0.0250847)
(-0.0333408 -0.0879813 0.172866)
(-0.00963841 -0.116935 0.244473)
(0.0373455 -0.026031 0.0901281)
(-0.033516 -0.0723193 0.182706)
(-0.0093793 -0.11741 0.246849)
(0.0415486 -0.0670594 0.27569)
(0.00316848 -0.0162133 0.242786)
(0.0720949 -0.0121662 0.14205)
(0.0544762 -0.0427353 0.305227)
(0.0356857 -0.00786628 0.318089)
(-0.0485591 -0.0288709 0.214489)
(-0.00667172 -0.0212897 0.298682)
(0.0209861 -0.0565196 0.00426758)
(-0.0191532 0.0109868 0.0823832)
(-0.0561368 -0.182783 0.26618)
(0.00469329 -0.209982 0.236895)
(-0.214361 -0.310342 0.33169)
(0.0618226 -0.0623267 0.123277)
(-0.044589 -0.170784 0.334923)
(0.037925 -0.171028 0.308966)
(-0.210579 -0.31312 0.425244)
(-0.0831384 -0.0962449 0.200472)
(-0.0708549 -0.25122 0.290257)
(-0.0678368 -0.181071 0.219048)
(-0.0422799 -0.0824655 0.387831)
(-0.0444794 -0.062663 0.264219)
(-0.0329559 -0.210671 0.364869)
(-0.0429301 -0.139965 0.288378)
(-0.0591519 -0.138736 0.160371)
(-0.048858 -0.118977 0.221637)
(0.0345087 -0.0922164 0.0872349)
(0.00344834 -0.0231402 0.0234977)
(0.0257028 -0.0900291 0.116493)
(-0.0129846 -0.00460416 0.13588)
(-0.000503378 0.013423 0.0395148)
(-0.0126607 -0.0217083 0.150731)
(-0.0127604 -0.229706 0.13672)
(-0.0207224 -0.183248 0.119855)
(-0.0249784 -0.18688 0.209475)
(-0.00671838 -0.223265 0.182439)
(-0.0205262 -0.18747 0.146286)
(0.0067215 -0.079474 0.0689397)
(-0.0104378 -0.0773036 0.0247106)
(0.0013989 -0.00566346 0.0248757)
(-0.0098736 -0.048234 0.0810435)
(-0.0148475 -0.0535553 0.0287255)
(0.0345198 -0.20173 0.120174)
(0.0639031 -0.21268 0.141647)
(0.0470173 -0.251864 0.195708)
(0.033791 -0.201229 0.169967)
(0.0796543 -0.243777 0.222228)
(-0.0265594 -0.0694057 0.00157247)
(-0.0228498 -0.056432 -0.00243513)
(0.0273051 -0.154278 0.0381343)
(-0.0215382 -0.072132 0.0017026)
(-8.03074e-05 -0.106164 -0.0033028)
(-0.0266842 -0.116395 0.00248236)
(-0.00563012 -0.140583 0.0587362)
(-0.0250461 -0.0711228 -0.0488433)
(-0.0053736 -0.0911408 -0.0278838)
(0.0392373 -0.114885 0.103037)
(0.0377889 -0.107817 0.0552128)
(0.0505048 -0.0789633 0.0794685)