/*--------------------------------*- C++ -*----------------------------------*\
| =========                 |                                                 |
| \\      /  F ield         | OpenFOAM: The Open Source CFD Toolbox           |
|  \\    /   O peration     | Version:  5.x                                   |
|   \\  /    A nd           | Web:      www.OpenFOAM.org                      |
|    \\/     M anipulation  |                                                 |
\*---------------------------------------------------------------------------*/
FoamFile
{
    version     2.0;
    format      ascii;
    class       volScalarField;
    location    "1.8";
    object      p;
}
// * * * * * * * * * * * * * * * * * * * * * * * * * * * * * * * * * * * * * //

dimensions      [0 2 -2 0 0 0 0];

internalField   nonuniform List<scalar> 
10571
(
119.415
120.348
121.191
121.866
123.371
119.43
118.912
117.089
116.858
119.14
110.752
116.465
114.864
116.064
115.757
116.493
115.369
112.695
114.188
113.504
113.459
112.097
112.139
113.117
98.4672
94.8513
100.571
101.261
93.4594
97.4076
88.9291
86.2114
85.9032
85.3417
96.806
96.4113
83.2281
70.605
86.0091
88.2104
89.5756
84.499
88.9457
95.7255
88.8805
88.0874
90.1172
88.811
14.2015
6.77062
17.1109
22.0284
10.5847
13.3196
3.35935
3.05367
3.13434
8.09069
11.1205
15.7077
3.04962
2.69473
3.19975
13.1744
9.50263
3.09246
3.30834
19.0418
14.0605
9.60327
18.1291
14.2182
2.24047
2.37772
2.22143
2.16506
2.28495
2.26772
1.77252
1.87078
1.85341
2.28732
2.33853
2.28151
1.92363
2.14894
1.87266
2.17869
2.40358
1.8818
1.85761
2.08651
2.19024
2.37352
2.22433
2.24452
2.36885
2.36927
2.3686
2.37296
2.34868
2.35348
2.59813
2.65659
2.52279
2.26395
2.37447
2.37525
2.65507
2.71503
2.5182
2.28145
2.36133
2.47877
2.504
2.22116
2.31234
2.33438
2.35718
2.341
2.3759
2.35875
2.36572
2.37688
2.35447
2.34546
2.35548
2.41088
2.37446
2.34039
2.38836
2.36447
2.37112
2.42807
2.48927
2.41807
2.36626
2.37807
2.35835
2.34407
2.38555
2.2951
2.347
2.34848
2.37691
2.35634
2.37126
2.35589
2.34989
2.36549
2.35802
2.34716
2.34288
2.36643
2.37502
2.374
2.39113
2.36454
2.3613
2.37679
2.40121
2.41555
2.38646
2.39529
2.35553
2.3546
2.38924
2.33449
2.36711
2.38992
2.36245
2.38176
2.37166
2.37145
2.36825
2.34942
2.3709
2.36656
2.36407
2.37293
2.39252
2.39269
2.38382
2.38676
2.38281
2.37403
2.41012
2.42116
2.42735
2.39758
2.39584
2.37386
2.39888
2.411
2.37949
2.39286
2.39675
2.38494
2.39933
2.39573
2.39005
2.39422
2.37527
2.38942
2.38972
2.39356
2.40061
2.41083
2.4065
2.39769
2.39111
2.40714
2.40272
2.43519
2.43872
2.43493
2.4131
2.40596
2.40105
2.43099
2.42635
2.41443
2.40656
2.41174
2.4156
2.4155
2.40788
2.41447
2.40405
2.40826
2.41468
2.43324
2.41923
2.41831
2.42035
2.40556
2.42372
2.41092
2.44054
2.4348
2.43358
2.4214
2.4184
2.44376
2.43338
2.4308
2.4173
2.42779
2.42475
2.42592
2.41335
2.42574
2.41805
2.41659
2.42817
2.44977
2.42188
2.42326
2.4302
2.41469
2.42906
2.42157
2.43737
2.4311
2.42973
2.41794
2.42642
2.43809
2.4367
2.43441
2.42524
2.43166
2.4291
2.43027
2.4151
2.42635
2.41632
2.41869
2.42699
2.4379
2.4222
2.43156
2.43721
2.4231
2.42984
2.4328
2.43239
2.43111
2.42795
2.42404
2.43561
2.43083
2.43554
2.43384
2.42706
2.43185
2.43065
2.42746
2.4162
2.42694
2.4238
2.42375
2.42478
2.43253
2.41784
2.43379
2.44525
2.42926
2.42867
2.4306
2.42413
2.43022
2.4277
2.42394
2.44098
2.42419
2.43112
2.42704
2.42538
2.42977
2.42793
2.42557
2.4253
2.42905
2.43603
2.43167
2.42703
2.42746
2.4246
2.4303
2.44917
2.43173
2.42732
2.4274
2.42159
2.42444
2.42822
2.42412
2.43492
2.41802
2.42541
2.41867
2.42338
2.42572
2.42594
2.42431
2.44241
2.4283
2.44011
2.43348
2.42815
2.42479
2.4325
2.42683
2.43523
2.43034
2.4256
2.4252
2.42072
2.41697
2.42565
2.42276
2.42561
2.40988
2.4196
2.41506
2.42087
2.42006
2.42235
2.42182
2.44358
2.42609
2.43567
2.43345
2.4292
2.42167
2.42981
2.42309
2.41733
2.42578
2.42166
2.42116
2.42068
2.41526
2.41372
2.41982
2.41667
2.40587
2.41336
2.41564
2.41872
2.41745
2.41786
2.41952
2.4268
2.42193
2.42668
2.42383
2.42301
2.41699
2.42402
2.4249
2.40577
2.41975
2.41515
2.41072
2.41698
2.41698
2.40196
2.41351
2.40805
2.40893
2.4128
2.41533
2.41839
2.42008
2.41821
2.41882
2.38969
2.41609
2.41331
2.40247
2.418
2.4098
2.41322
2.42447
2.4027
2.41519
2.40992
2.40064
2.41396
2.41609
2.3983
2.41034
2.40406
2.41622
2.4199
2.41728
2.41994
2.42649
2.42283
2.42049
2.3886
2.4131
2.40891
2.39847
2.41931
2.40812
2.4042
2.40826
2.40466
2.41312
2.41104
2.40163
2.41078
2.41456
2.40296
2.4117
2.41175
2.42508
2.42654
2.42152
2.423
2.42932
2.42739
2.42377
2.41931
2.4146
2.41248
2.41238
2.41985
2.41388
2.40026
2.39264
2.40814
2.41368
2.41657
2.41121
2.40338
2.41292
2.41166
2.41552
2.4219
2.43462
2.43017
2.42766
2.42641
2.42973
2.4305
2.42726
2.47594
2.41946
2.41611
2.40963
2.41812
2.42239
2.40534
2.38991
2.41081
2.41646
2.42246
2.41768
2.40434
2.41414
2.42327
2.42069
2.42596
2.44751
2.43627
2.43027
2.42935
2.43321
2.43381
2.4316
2.43581
2.4264
2.42233
2.41529
2.42049
2.42976
2.42061
2.40291
2.41515
2.42184
2.43032
2.42315
2.41752
2.42138
2.43364
2.42656
2.42718
2.45755
2.44633
2.43628
2.43323
2.43947
2.43799
2.43781
2.43651
2.4348
2.43284
2.43073
2.42934
2.43603
2.43907
2.42277
2.42275
2.42909
2.44031
2.43246
2.43546
2.43172
2.43992
2.43451
2.43013
2.4546
2.45087
2.44327
2.43864
2.44439
2.44245
2.44335
2.44448
2.44317
2.44414
2.44657
2.43894
2.44113
2.45349
2.44251
2.43194
2.43707
2.44931
2.44204
2.44638
2.44663
2.44424
2.44221
2.4386
2.44826
2.44986
2.44548
2.44284
2.44642
2.44544
2.44587
2.45039
2.44982
2.45227
2.45683
2.44457
2.44588
2.46218
2.45467
2.44097
2.44338
2.45573
2.45166
2.45098
2.45648
2.44853
2.4481
2.44944
2.4454
2.44917
2.44701
2.44611
2.44822
2.44874
2.44763
2.45375
2.45425
2.4564
2.45681
2.44697
2.45268
2.46517
2.45872
2.44641
2.44803
2.46017
2.45891
2.45557
2.45893
2.45139
2.45191
2.45701
2.44689
2.45084
2.44873
2.44936
2.45059
2.45137
2.44973
2.45545
2.45694
2.45819
2.45607
2.4509
2.45905
2.463
2.45815
2.4498
2.45216
2.46365
2.46237
2.45808
2.45951
2.45285
2.45458
2.45899
2.45063
2.45129
2.44918
2.45201
2.45292
2.45311
2.45153
2.45569
2.45814
2.45794
2.45515
2.45291
2.46207
2.4582
2.45529
2.45241
2.45611
2.46788
2.46657
2.45989
2.45911
2.45399
2.45632
2.45984
2.45375
2.45207
2.4506
2.45437
2.45453
2.45381
2.45258
2.45477
2.45801
2.45687
2.45269
2.45322
2.46122
2.45282
2.45214
2.45319
2.46003
2.46981
2.46765
2.4573
2.45833
2.45504
2.45759
2.46014
2.45506
2.454
2.45187
2.45664
2.45596
2.45487
2.45352
2.4546
2.45793
2.4556
2.4512
2.45457
2.46015
2.44964
2.45244
2.45333
2.46082
2.46584
2.46561
2.45815
2.45789
2.45586
2.45906
2.45961
2.45556
2.45556
2.45251
2.45868
2.45705
2.45592
2.45422
2.45544
2.45691
2.45505
2.45254
2.45613
2.459
2.45052
2.45258
2.45539
2.46104
2.45929
2.46188
2.46149
2.45633
2.45633
2.46113
2.45686
2.45261
2.45562
2.45207
2.45975
2.45653
2.45593
2.45423
2.45684
2.45549
2.4546
2.45404
2.45799
2.45457
2.44901
2.45178
2.45674
2.46019
2.44482
2.45073
2.46105
2.45571
2.45721
2.4624
2.45156
2.45042
2.45537
2.45186
2.45954
2.45588
2.45504
2.45416
2.45779
2.45437
2.45485
2.45506
2.45926
2.44611
2.4481
2.45468
2.46364
2.46035
2.42756
2.43447
2.45839
2.45574
2.45845
2.46047
2.44795
2.45078
2.45649
2.45165
2.46031
2.45552
2.45489
2.45513
2.45872
2.4552
2.45512
2.45564
2.45752
2.44456
2.44911
2.45914
2.47094
2.46247
2.431
2.42563
2.45552
2.45596
2.46113
2.45925
2.44968
2.45381
2.45749
2.45344
2.4608
2.45581
2.45664
2.45765
2.45987
2.45884
2.45548
2.45659
2.45445
2.45718
2.45206
2.46089
2.4669
2.46267
2.46991
2.44956
2.4532
2.45632
2.46628
2.46099
2.45575
2.45776
2.45905
2.45792
2.46392
2.45721
2.45833
2.46145
2.46198
2.46253
2.45831
2.45819
2.45396
2.46517
2.45573
2.45988
2.46247
2.46451
2.48134
2.46285
2.45012
2.45732
2.47237
2.46503
2.45953
2.46101
2.46122
2.46359
2.46792
2.45887
2.46028
2.46546
2.46459
2.46428
2.46036
2.46057
2.45612
2.46652
2.46021
2.45954
2.46204
2.46808
2.47227
2.46461
2.44831
2.46063
2.47509
2.46839
2.46147
2.46298
2.46217
2.46827
2.47056
2.46034
2.46193
2.46856
2.4664
2.46549
2.46339
2.46341
2.46199
2.46702
2.46615
2.46177
2.46403
2.47009
2.46767
2.46439
2.45449
2.46355
2.47424
2.47059
2.46359
2.4635
2.46171
2.47123
2.47189
2.46272
2.46305
2.47051
2.46806
2.46705
2.46608
2.46674
2.46756
2.46747
2.47243
2.46941
2.46568
2.4701
2.46649
2.4639
2.46384
2.46692
2.47221
2.47105
2.46625
2.46547
2.46081
2.47174
2.47257
2.46602
2.46443
2.47071
2.47023
2.46891
2.46922
2.47001
2.46977
2.46736
2.47291
2.47442
2.4676
2.46937
2.4665
2.46322
2.46915
2.47121
2.47059
2.47094
2.46882
2.46876
2.46178
2.47114
2.47197
2.47057
2.46664
2.47042
2.47213
2.47007
2.47317
2.47121
2.47093
2.46692
2.47268
2.4746
2.46847
2.46909
2.46723
2.46345
2.46974
2.47187
2.46946
2.4707
2.47048
2.47192
2.46574
2.47094
2.47156
2.47515
2.46972
2.47019
2.47374
2.47038
2.47466
2.47448
2.47147
2.46709
2.47188
2.4738
2.4685
2.46963
2.46851
2.46445
2.46952
2.47074
2.46879
2.4711
2.47091
2.47531
2.47004
2.47022
2.4711
2.47755
2.47234
2.47066
2.47434
2.47014
2.47241
2.47362
2.47075
2.46755
2.46951
2.47246
2.46834
2.47047
2.47082
2.46696
2.46982
2.47089
2.46837
2.47133
2.47207
2.47846
2.47228
2.4702
2.47096
2.47899
2.47506
2.47239
2.4736
2.4699
2.46934
2.47187
2.46968
2.46876
2.4682
2.47186
2.46763
2.4714
2.4733
2.47016
2.47
2.47169
2.46862
2.47149
2.4727
2.47938
2.47335
2.47211
2.47222
2.47768
2.47632
2.47434
2.47312
2.47003
2.46746
2.47059
2.46928
2.47096
2.46963
2.47074
2.46771
2.47228
2.47416
2.47211
2.4707
2.47181
2.46999
2.47242
2.47237
2.47719
2.47417
2.47403
2.4741
2.47628
2.47671
2.47549
2.47034
2.4705
2.46568
2.46814
2.46945
2.47343
2.47155
2.4695
2.46903
2.47293
2.47455
2.47276
2.47113
2.47153
2.47204
2.47345
2.47219
2.47451
2.47536
2.47545
2.47525
2.4753
2.47558
2.4765
2.46612
2.47218
2.46499
2.46758
2.47023
2.47548
2.47284
2.4689
2.47076
2.4736
2.47458
2.47351
2.47169
2.47062
2.47303
2.47426
2.47323
2.47291
2.47655
2.47472
2.47561
2.47457
2.47448
2.47566
2.46989
2.47509
2.47011
2.47015
2.4716
2.47608
2.47374
2.46816
2.47274
2.47396
2.47637
2.47472
2.47211
2.47055
2.473
2.47465
2.47458
2.47244
2.47692
2.47592
2.47522
2.47405
2.47409
2.47494
2.47927
2.47725
2.47758
2.47282
2.47325
2.4761
2.4742
2.46922
2.47445
2.47492
2.47642
2.47509
2.4722
2.47127
2.473
2.47446
2.47537
2.47342
2.47611
2.47537
2.47481
2.47421
2.47422
2.47485
2.47832
2.47778
2.47723
2.47412
2.47468
2.47714
2.47435
2.47208
2.47559
2.47583
2.47724
2.47667
2.47358
2.47189
2.47269
2.47419
2.47586
2.47387
2.47436
2.47402
2.47413
2.47446
2.47437
2.47419
2.47734
2.47785
2.47641
2.47492
2.47589
2.47756
2.47455
2.4739
2.47634
2.4761
2.47733
2.47668
2.4734
2.47245
2.47212
2.47374
2.47579
2.47345
2.47295
2.47212
2.47277
2.47435
2.47365
2.47278
2.47689
2.47789
2.4769
2.47563
2.47662
2.47758
2.47441
2.47449
2.47657
2.47622
2.47706
2.47651
2.47473
2.47312
2.47182
2.47326
2.47576
2.47391
2.47252
2.47068
2.47148
2.47442
2.4729
2.47102
2.47713
2.4781
2.4779
2.47627
2.47693
2.47799
2.47522
2.47534
2.47616
2.47561
2.47763
2.47736
2.47885
2.47411
2.47208
2.47314
2.47648
2.47402
2.4727
2.46909
2.47142
2.47511
2.47285
2.46974
2.47772
2.47845
2.47847
2.47705
2.47683
2.47852
2.47551
2.47616
2.4766
2.47509
2.47868
2.47873
2.482
2.4758
2.4727
2.4733
2.47781
2.4746
2.47355
2.46957
2.47242
2.47635
2.47421
2.47053
2.47839
2.47907
2.4789
2.4779
2.47655
2.47914
2.47713
2.47664
2.47602
2.47438
2.48025
2.47975
2.48247
2.47739
2.47353
2.47315
2.47948
2.47646
2.4757
2.47057
2.4736
2.47797
2.47647
2.47307
2.47901
2.48017
2.4799
2.47867
2.47594
2.48045
2.47978
2.47666
2.47446
2.4727
2.48266
2.48179
2.48258
2.4779
2.4728
2.47182
2.4817
2.47952
2.47781
2.47115
2.47366
2.48007
2.47922
2.47571
2.47991
2.48196
2.48145
2.47897
2.47466
2.48307
2.48179
2.47549
2.46991
2.46952
2.48699
2.48523
2.48298
2.47754
2.4706
2.46832
2.48466
2.4828
2.47885
2.47165
2.47183
2.48227
2.48163
2.47814
2.48151
2.48456
2.48319
2.47984
2.47266
2.48632
2.48498
2.47566
2.46295
2.46272
2.49045
2.48828
2.48374
2.47639
2.46511
2.46043
2.48826
2.48644
2.47969
2.47179
2.4671
2.48501
2.48371
2.48014
2.48348
2.48848
2.48537
2.48177
2.47004
2.48942
2.48649
2.47742
2.45332
2.45147
2.49381
2.49194
2.48543
2.47407
2.45467
2.4446
2.49286
2.49065
2.48121
2.4706
2.45805
2.48856
2.48585
2.48218
2.48743
2.49496
2.48893
2.48404
2.4664
2.49503
2.48581
2.47597
2.43868
2.42725
2.49917
2.49729
2.48811
2.47062
2.43744
2.4105
2.49924
2.496
2.48319
2.4674
2.44055
2.49373
2.48849
2.48283
2.49339
2.50623
2.49567
2.48699
2.46184
2.50504
2.48915
2.46956
2.41547
2.37551
2.50722
2.50471
2.49211
2.46479
2.41092
2.33137
2.5076
2.50291
2.486
2.46177
2.41028
2.50116
2.49251
2.4834
2.50078
2.51646
2.50435
2.49093
2.45727
2.51507
2.49389
2.45861
2.3846
2.23988
2.5168
2.51283
2.4972
2.45717
2.37195
2.1492
2.51742
2.51038
2.49165
2.45317
2.35133
2.50993
2.49942
2.4862
2.5099
2.52378
2.51357
2.49836
2.45754
2.52279
2.50133
2.45463
2.35986
1.87073
2.52542
2.52289
2.50415
2.45451
2.34068
1.86215
-2.01519
2.52577
2.51882
2.49955
2.44441
2.2163
2.51997
2.51011
2.49477
2.51939
2.53033
2.52457
2.50867
2.46773
2.52899
2.51347
2.47338
2.364
1.69874
0.0744028
2.5318
2.52954
2.51374
2.47946
2.33864
1.87902
0.0403147
2.53155
2.52711
2.51171
2.44626
2.06138
2.53021
2.52345
2.51197
2.52833
2.53681
2.53497
2.51972
2.49241
2.53539
2.53055
2.49709
2.40401
1.92509
0.47169
2.53659
2.53504
2.52495
2.50372
2.39841
1.93144
0.469077
2.53677
2.53627
2.52672
2.47766
2.20542
0.699007
2.53734
2.53553
2.52988
2.53797
2.54201
2.54266
2.53368
2.52411
2.54063
2.54246
2.51918
2.45445
2.06015
0.506116
2.54084
2.53967
2.54188
2.52677
2.47191
2.13074
0.39725
2.54176
2.54214
2.5377
2.49823
2.23937
2.54361
2.54341
2.53504
2.54804
2.54605
2.54779
2.54747
2.5482
2.54484
2.5457
2.5402
2.50784
2.24816
2.54495
2.54436
2.55591
2.55275
2.53804
2.29098
-1.01043
2.54601
2.54972
2.55123
2.52938
2.44078
2.54848
2.54986
2.54584
2.55333
2.54832
2.54886
2.55353
2.55941
2.5484
2.54811
2.55513
2.5379
2.46784
2.54953
2.54978
2.56363
2.56767
2.56597
2.49788
2.55005
2.55911
2.56241
2.55237
2.52938
2.55487
2.556
2.5555
2.55778
2.54825
2.55149
2.55728
2.55842
2.55087
2.55333
2.55596
2.54423
2.53144
2.55336
2.55384
2.56436
2.56724
2.56257
2.54305
2.55433
2.5598
2.56015
2.55806
2.5497
2.55787
2.55848
2.55873
2.55891
2.55231
2.55574
2.55788
2.55831
2.55312
2.55287
2.5532
2.55009
2.55183
2.55584
2.55561
2.56044
2.55969
2.56268
2.55562
2.55594
2.55866
2.55869
2.55851
2.55649
2.55833
2.55855
2.55923
2.56007
2.557
2.55815
2.55863
2.55887
2.55548
2.553
2.5525
2.55449
2.55842
2.55688
2.55647
2.55695
2.55747
2.56039
2.55932
2.55608
2.55643
2.55608
2.55837
2.55901
2.55764
2.55781
2.55885
2.56126
2.56058
2.55939
2.55933
2.55936
2.55739
2.55262
2.5544
2.55752
2.56037
2.5576
2.5564
2.55477
2.55666
2.56027
2.56095
2.55545
2.55605
2.55656
2.55823
2.56031
2.55768
2.55805
2.55939
2.5627
2.56309
2.56101
2.56016
2.55929
2.55897
2.55433
2.55695
2.55756
2.56173
2.55873
2.55666
2.55621
2.55791
2.55847
2.56235
2.55522
2.55741
2.55772
2.55876
2.56193
2.55959
2.56041
2.56185
2.56456
2.56653
2.56445
2.56211
2.56047
2.5608
2.55738
2.5584
2.5549
2.56312
2.55996
2.55744
2.55628
2.55735
2.5563
2.56385
2.55712
2.5576
2.55826
2.55992
2.56481
2.56139
2.56363
2.56645
2.56746
2.57122
2.56784
2.5646
2.56189
2.56345
2.56095
2.56061
2.55902
2.56681
2.56183
2.55893
2.55821
2.55904
2.55931
2.56788
2.55855
2.55919
2.56051
2.5638
2.57005
2.56412
2.56632
2.5703
137.68
136.197
136.014
135.528
134.901
139.434
139.993
143.807
134.103
139.049
137.308
136.925
133.921
133.783
134.111
133.644
139.603
136.721
140.941
141.745
143.702
146.949
149.27
143.026
151.049
149.052
131.995
125.663
132.122
133.888
134.37
132.617
137.058
135.07
131.932
128.607
125.275
129.159
128.834
123.68
123.022
129.349
135.751
121.618
125.14
143.478
140.237
142.886
121.423
133.785
132.486
134.411
134.484
138.421
131.391
123.74
122.172
120.754
120.539
120.999
121.123
119.869
119.783
121.798
128.242
122.057
130.109
140.385
142.156
142.278
137.788
143.464
135.051
144.592
144.144
121.489
119.989
129.697
125.404
119.423
120.423
124.736
129.7
127.642
143.534
146.482
149.897
148.457
147.469
140.521
135.21
134.295
137.541
139.956
133.381
149.587
120.394
109.248
119.202
120.809
121.678
111.163
111.458
112.432
122.708
122.301
111.465
111.803
110.991
122.379
108.631
117.805
108.165
121.061
119.95
120.929
108.47
110.632
109.739
112.258
123.391
120.747
122.377
108.393
106.04
109.928
106.92
121.297
104.192
116.926
112.185
116.268
108.935
106.309
107.196
117.754
114.826
104.507
105.269
100.512
114.596
113.454
105.765
104.675
103.132
113.451
114.557
103.074
98.9466
100.225
113.319
100.409
114.08
114.947
114.507
100.517
104.457
98.9708
100.409
113.483
113.778
113.419
107.232
100.117
100.298
96.5584
98.1278
113.011
98.4372
112.131
108.012
98.7542
99.7812
97.0246
111.572
107.823
99.1801
98.6463
96.2332
97.6212
97.034
76.8355
98.8898
98.6195
99.8377
79.4535
79.2849
80.356
98.601
96.4955
79.5284
78.2884
74.8006
93.6053
69.6196
95.5889
75.3567
97.0617
96.0229
99.3232
71.723
76.5255
75.4675
79.0856
90.145
96.4732
90.4758
71.3193
63.9971
72.599
63.2309
86.4927
56.8435
96.6241
97.0786
96.5397
76.9555
81.307
78.161
87.8138
84.7173
56.6669
62.2463
60.8851
95.6137
93.2919
81.8675
78.2716
75.2734
85.8042
88.3869
66.3853
63.9871
69.1009
90.3023
71.9575
92.5416
87.1809
88.5387
70.4791
70.1842
66.8142
66.4078
90.9555
90.2467
88.4512
74.328
75.1975
72.2483
73.3323
69.5927
87.4196
65.779
89.4971
89.0393
69.1557
72.7529
75.3778
89.9869
89.892
74.9608
74.3937
79.1485
71.3071
8.74589
2.11604
13.9668
14.1287
16.3825
2.13348
2.232
2.36775
18.3777
15.7135
2.08355
2.43268
2.26907
9.40991
2.03196
6.34513
1.94732
11.7703
10.069
13.7993
1.97668
2.20726
2.11941
2.29892
4.18771
14.8866
6.69923
2.03628
1.78396
2.20102
1.81901
4.77382
1.7258
10.4058
10.1906
12.6588
2.03556
1.87919
2.16274
11.3931
14.2503
1.52719
1.93155
1.65055
14.1549
12.6202
1.85807
2.19009
2.04012
14.737
15.1006
2.02441
1.70421
1.88173
7.89684
1.86217
12.0611
4.85952
7.36081
1.85189
1.92507
1.72007
1.71147
16.9206
16.5747
13.9108
2.10693
2.07382
2.09746
1.83578
1.84186
5.44794
1.84227
13.9188
12.8797
1.66326
1.9203
1.53062
18.2479
16.8472
2.07886
2.00523
1.79861
1.93449
2.34399
2.39131
2.2649
2.28502
2.24543
2.40019
2.39077
2.40254
2.21199
2.25715
2.40509
2.41489
2.39764
2.30722
2.3752
2.38754
2.35582
2.31756
2.34044
2.28823
2.37539
2.37793
2.3554
2.36266
2.37014
2.21012
2.30544
2.33759
2.32321
2.31645
2.2542
2.35759
2.2805
2.31974
2.33708
2.30203
2.34804
2.37866
2.35729
2.15695
2.12604
2.23399
2.21168
2.23406
2.30342
2.33862
2.38916
2.37121
2.37461
2.13379
2.16018
2.25462
2.25429
2.27158
2.42396
2.364
2.29027
2.46
2.39752
2.33861
2.32686
2.32909
2.29424
2.1818
2.21105
2.23764
2.27143
2.29873
2.33491
2.35532
2.31844
2.40883
2.27372
2.2597
2.27323
2.29769
2.28641
2.34363
2.22415
2.20767
2.33759
2.34847
2.34527
2.37192
2.37949
2.37756
2.37178
2.37936
2.3712
2.37114
2.37853
2.36994
2.36559
2.36869
2.37128
2.36794
2.37055
2.36327
2.36441
2.3539
2.35171
2.37409
2.35528
2.35752
2.36957
2.37423
2.35112
2.35244
2.34927
2.31147
2.31206
2.35699
2.35046
2.29795
2.29115
2.30059
2.2972
2.35002
2.3657
2.35872
2.34915
2.3627
2.35826
2.27269
2.31663
2.29787
2.31113
2.25107
2.36858
2.367
2.36994
2.36529
2.36642
2.3354
2.29696
2.30837
2.265
2.32259
2.36885
2.36501
2.34043
2.35959
2.34251
2.37131
2.33265
2.36789
2.33585
2.31144
2.34098
2.37476
2.24239
2.32823
2.34063
2.37286
2.33145
2.34915
2.33803
2.35255
2.39244
2.34091
2.34622
2.38118
2.34365
2.38673
2.36178
2.35432
2.38441
2.34455
2.36672
2.36096
2.37166
2.37161
2.36965
2.37135
2.36326
2.36783
2.37005
2.37298
2.37459
2.36649
2.36588
2.35598
2.35126
2.34523
2.34556
2.36404
2.34303
2.34497
2.35477
2.35973
2.33829
2.33272
2.35438
2.30503
2.32868
2.3503
2.35341
2.30053
2.3316
2.31926
2.32086
2.34551
2.35995
2.35734
2.35004
2.36027
2.35657
2.3875
2.35438
2.42037
2.35691
2.39581
2.34696
2.37566
2.39649
2.38344
2.3921
2.39033
2.39689
2.39659
2.39326
2.36104
2.36167
2.36225
2.35805
2.35774
2.42714
2.34663
2.37797
2.36716
2.38326
2.36009
2.39132
2.39682
2.38673
2.3968
2.39946
2.39931
2.39043
2.39738
2.35666
2.35247
2.3275
2.36072
2.34351
2.35092
2.31304
2.34696
2.32231
2.35553
2.36581
2.37927
2.31231
2.35726
2.36011
2.37564
2.34777
2.34323
2.33574
2.36351
2.37267
2.3498
2.35384
2.36194
2.36716
2.38283
2.37324
2.36958
2.37796
2.35849
2.35729
2.35766
2.36896
2.35978
2.36631
2.36549
2.35649
2.36314
2.36563
2.36541
2.36933
2.36741
2.36551
2.35674
2.3598
2.35188
2.35898
2.35717
2.34355
2.32361
2.3582
2.35298
2.34989
2.32055
2.35813
2.31998
2.3528
2.35962
2.35943
2.33153
2.3491
2.34185
2.38771
2.34982
2.38571
2.38806
2.39815
2.38525
2.3985
2.35649
2.3636
2.35907
2.36486
2.37001
2.36521
2.39937
2.35785
2.3914
2.37617
2.38872
2.36618
2.39491
2.39566
2.38626
2.39144
2.38693
2.39385
2.38239
2.39246
2.36009
2.35905
2.37144
2.36809
2.36488
2.39882
2.37502
2.3987
2.39139
2.40541
2.38111
2.40125
2.39859
2.38831
2.39762
2.39466
2.39931
2.39354
2.39954
2.35446
2.35946
2.31299
2.35411
2.33722
2.35749
2.32333
2.35601
2.33368
2.38151
2.37426
2.3875
2.35769
2.38978
2.38
2.39249
2.40686
2.38092
2.41074
2.39793
2.39321
2.40011
2.34821
2.35328
2.36067
2.36701
2.36903
2.36854
2.37348
2.37999
2.38359
2.39029
2.38812
2.3901
2.38337
2.36489
2.3765
2.36653
2.36123
2.36469
2.37392
2.36885
2.37016
2.37274
2.3694
2.37946
2.38048
2.37621
2.36631
2.37504
2.37044
2.38353
2.35986
2.36362
2.33506
2.38018
2.36946
2.38048
2.36043
2.36844
2.34161
2.35816
2.37492
2.37719
2.35821
2.36805
2.35864
2.38637
2.36939
2.39122
2.38454
2.39827
2.3883
2.40101
2.37581
2.38022
2.37685
2.38678
2.39011
2.38922
2.39418
2.37179
2.39397
2.38549
2.39709
2.37154
2.39533
2.39711
2.38012
2.39412
2.38791
2.40022
2.38419
2.3976
2.37982
2.3731
2.39562
2.39389
2.38304
2.40897
2.39384
2.41066
2.40481
2.41411
2.40219
2.416
2.40094
2.39648
2.40233
2.40017
2.40549
2.401
2.40605
2.3716
2.38347
2.35105
2.37377
2.36153
2.3863
2.37955
2.38778
2.38397
2.3996
2.39304
2.40311
2.39992
2.40847
2.40595
2.41053
2.41457
2.3973
2.41916
2.40244
2.39968
2.40582
2.37235
2.38899
2.38067
2.38562
2.39809
2.39324
2.39861
2.3968
2.39916
2.40797
2.40552
2.40722
2.40669
2.39416
2.40616
2.38525
2.38128
2.37949
2.39763
2.39523
2.3908
2.39088
2.38531
2.40021
2.40059
2.39677
2.38907
2.40199
2.39896
2.41244
2.38525
2.39895
2.39093
2.40579
2.40104
2.41196
2.42005
2.39056
2.38278
2.38506
2.40316
2.40482
2.40527
2.40644
2.38756
2.40195
2.39857
2.39989
2.39971
2.41316
2.4097
2.40814
2.40412
2.38833
2.40715
2.4008
2.40613
2.40293
2.40964
2.40396
2.39332
2.402
2.39997
2.40452
2.40685
2.40368
2.40754
2.399
2.41696
2.42018
2.41446
2.42275
2.40857
2.42531
2.41812
2.42307
2.40747
2.42327
2.40921
2.40279
2.40866
2.41802
2.41323
2.40862
2.40877
2.39775
2.41024
2.4041
2.40474
2.40679
2.41202
2.42037
2.41489
2.42099
2.4134
2.41736
2.41737
2.42512
2.41916
2.42512
2.4231
2.41196
2.40721
2.41845
2.40659
2.41152
2.42219
2.41594
2.42127
2.41471
2.41471
2.42122
2.42184
2.42017
2.42179
2.41344
2.41823
2.40959
2.40718
2.40219
2.41892
2.41426
2.41119
2.40776
2.4076
2.41219
2.41142
2.41661
2.41271
2.4202
2.42233
2.42902
2.41469
2.4197
2.43704
2.42154
2.42316
2.42601
2.44277
2.41571
2.42309
2.41816
2.4231
2.42309
2.43739
2.42794
2.41363
2.42161
2.42599
2.41918
2.4163
2.43561
2.42714
2.42317
2.4144
2.43456
2.41064
2.41072
2.38703
2.42667
2.4244
2.42752
2.42839
2.42939
2.44712
2.40194
2.41511
2.3799
2.40899
2.41944
2.42652
2.42524
2.42253
2.42833
2.42249
2.42807
2.42763
2.43351
2.42275
2.4294
2.42604
2.43344
2.42504
2.43196
2.42789
2.4224
2.42554
2.43041
2.4215
2.42602
2.43067
2.42546
2.42738
2.42555
2.42357
2.42704
2.42698
2.42607
2.42909
2.41921
2.41821
2.42213
2.4166
2.41525
2.42134
2.41627
2.41555
2.41251
2.42485
2.41434
2.41493
2.43088
2.42441
2.42604
2.43187
2.43186
2.42522
2.43061
2.44204
2.42676
2.42362
2.43149
2.43773
2.42717
2.44492
2.43197
2.42863
2.42862
2.45023
2.4337
2.42613
2.42886
2.43955
2.43249
2.42785
2.43814
2.43592
2.43213
2.41626
2.41963
2.41872
2.42156
2.42444
2.42862
2.4324
2.4299
2.4295
2.43505
2.41661
2.41526
2.4222
2.42239
2.41925
2.43189
2.43589
2.43232
2.43168
2.4368
2.43116
2.43782
2.4359
2.44007
2.42667
2.43362
2.42898
2.43583
2.42777
2.43373
2.42963
2.42665
2.43369
2.43583
2.42768
2.42824
2.43191
2.42891
2.43012
2.4265
2.42888
2.43045
2.42628
2.43135
2.42916
2.41749
2.41825
2.4201
2.41576
2.41646
2.41999
2.41687
2.41886
2.41725
2.43116
2.41542
2.41678
2.42737
2.42661
2.4257
2.42998
2.42744
2.4217
2.43022
2.42894
2.42624
2.42183
2.42785
2.41954
2.42921
2.4485
2.43359
2.425
2.42948
2.44051
2.43284
2.42983
2.42994
2.43577
2.43773
2.43398
2.4332
2.43502
2.43232
2.42506
2.42757
2.42669
2.42726
2.4297
2.43037
2.43669
2.42945
2.43082
2.4373
2.42398
2.4204
2.42428
2.42473
2.42187
2.43818
2.4384
2.44062
2.43917
2.44126
2.43916
2.44223
2.44088
2.44103
2.4275
2.43254
2.42991
2.4319
2.42643
2.43111
2.42885
2.42629
2.43694
2.43703
2.42921
2.43114
2.43144
2.42951
2.43137
2.42777
2.43236
2.42944
2.43014
2.43178
2.42614
2.42086
2.42501
2.42107
2.41961
2.42093
2.42379
2.42516
2.4245
2.415
2.42312
2.41828
2.4178
2.41952
2.4247
2.42398
2.42517
2.42387
2.42496
2.42564
2.41016
2.42823
2.42898
2.42424
2.40535
2.43004
2.42536
2.43116
2.42614
2.43042
2.40924
2.42788
2.42914
2.42793
2.43103
2.43133
2.42955
2.42898
2.42839
2.42749
2.42899
2.43114
2.43078
2.43016
2.43187
2.43013
2.43636
2.42789
2.42903
2.4341
2.42465
2.4239
2.42401
2.42475
2.42542
2.43707
2.43477
2.44104
2.44007
2.43898
2.43885
2.43755
2.43739
2.43596
2.42449
2.42815
2.42676
2.42319
2.42239
2.426
2.42445
2.42444
2.43588
2.4339
2.4292
2.43071
2.42812
2.42879
2.43015
2.4296
2.43083
2.42717
2.42873
2.42947
2.42513
2.42948
2.43242
2.42666
2.43276
2.42937
2.43048
2.44025
2.43332
2.42741
2.42026
2.4354
2.44166
2.42516
2.42527
2.4285
2.42352
2.42345
2.43135
2.4241
2.4066
2.42896
2.43054
2.4252
2.4091
2.42996
2.40001
2.42534
2.42781
2.43012
2.40302
2.42634
2.42728
2.4283
2.42661
2.42664
2.42625
2.4239
2.42538
2.42519
2.4312
2.43281
2.4317
2.43161
2.43133
2.42816
2.43234
2.42664
2.42726
2.43022
2.42528
2.42629
2.42385
2.42515
2.42697
2.43179
2.42864
2.43271
2.43352
2.43206
2.43027
2.42716
2.4295
2.4275
2.42023
2.42384
2.42278
2.41594
2.41887
2.42235
2.42268
2.42195
2.43098
2.4272
2.42783
2.42875
2.42297
2.42645
2.42638
2.42716
2.42783
2.42441
2.42519
2.42616
2.42309
2.43359
2.4339
2.4348
2.44573
2.43491
2.43848
2.45159
2.43747
2.4485
2.42992
2.44432
2.44475
2.4325
2.43134
2.43238
2.42354
2.42379
2.42758
2.42647
2.41236
2.42739
2.42518
2.42741
2.41774
2.43001
2.40897
2.42854
2.42928
2.43035
2.42284
2.43245
2.42939
2.43058
2.42142
2.42409
2.4238
2.41949
2.42269
2.42222
2.42985
2.42818
2.42901
2.42699
2.4252
2.4263
2.42687
2.424
2.42477
2.42334
2.42424
2.42641
2.42208
2.42286
2.42452
2.42506
2.42129
2.42103
2.42506
2.42218
2.42102
2.41495
2.42061
2.41692
2.41923
2.42128
2.42361
2.41533
2.42027
2.42129
2.42473
2.41982
2.42264
2.41797
2.42393
2.42347
2.41788
2.4214
2.42111
2.42271
2.42404
2.4202
2.42016
2.42197
2.42063
2.43333
2.43184
2.43963
2.45592
2.43755
2.43852
2.45132
2.43408
2.43908
2.43157
2.4396
2.4306
2.4264
2.43188
2.42793
2.42399
2.42354
2.42332
2.42794
2.42506
2.42435
2.42196
2.42766
2.43114
2.4294
2.43903
2.4331
2.42632
2.42739
2.4456
2.43177
2.4308
2.42872
2.41783
2.42102
2.4206
2.41624
2.41908
2.41898
2.42271
2.42162
2.42289
2.41932
2.41857
2.42233
2.41926
2.41852
2.41888
2.41436
2.42005
2.42089
2.4166
2.41673
2.41732
2.41761
2.4142
2.40835
2.41647
2.41139
2.41228
2.40319
2.41289
2.40678
2.42137
2.42069
2.42505
2.41553
2.42212
2.41995
2.42487
2.41833
2.4146
2.41236
2.41987
2.41956
2.41716
2.41857
2.41862
2.41745
2.41991
2.41688
2.41617
2.41879
2.41891
2.42834
2.42278
2.43245
2.43837
2.42956
2.41813
2.42257
2.41781
2.41696
2.41747
2.40717
2.40061
2.40929
2.42197
2.4163
2.42224
2.42002
2.42054
2.42601
2.43406
2.419
2.41847
2.42266
2.43294
2.42441
2.43979
2.42806
2.41977
2.42103
2.43093
2.42255
2.42558
2.42182
2.41474
2.41712
2.41729
2.41323
2.41528
2.41564
2.41597
2.41568
2.41722
2.41324
2.41318
2.41525
2.41026
2.41205
2.41188
2.40737
2.41349
2.41474
2.41129
2.4111
2.41311
2.41165
2.41057
2.40045
2.41027
2.40475
2.40491
2.4007
2.40876
2.4048
2.42265
2.41896
2.4232
2.41583
2.42286
2.41766
2.42069
2.41884
2.41234
2.41344
2.4197
2.41977
2.42315
2.42206
2.42178
2.41753
2.41939
2.42009
2.41908
2.4209
2.41928
2.41667
2.41216
2.40078
2.40723
2.40578
2.39704
2.39543
2.40762
2.38788
2.40614
2.38593
2.39297
2.4083
2.41384
2.41433
2.41737
2.41491
2.4156
2.41889
2.42822
2.41393
2.41336
2.41524
2.42145
2.41914
2.42691
2.42092
2.41793
2.41829
2.42351
2.41843
2.41927
2.41731
2.41204
2.41348
2.41407
2.41177
2.41213
2.41271
2.41096
2.41158
2.41381
2.40956
2.41062
2.40945
2.40633
2.40955
2.40867
2.40733
2.41044
2.41273
2.41041
2.41065
2.41326
2.41178
2.41475
2.40564
2.40904
2.40649
2.40602
2.41365
2.4102
2.40864
2.42269
2.41768
2.4196
2.42023
2.4233
2.41806
2.41945
2.42129
2.41601
2.41847
2.4247
2.42435
2.42904
2.42633
2.42617
2.42194
2.42311
2.4253
2.4243
2.42534
2.42203
2.41072
2.4108
2.3932
2.39745
2.41038
2.39166
2.40402
2.40092
2.40357
2.41241
2.39001
2.40419
2.41446
2.41597
2.41727
2.41354
2.41379
2.41271
2.41276
2.4146
2.41325
2.41306
2.41213
2.41016
2.41855
2.42195
2.41777
2.41996
2.41862
2.42012
2.41694
2.41635
2.41587
2.41269
2.4117
2.41209
2.41459
2.41212
2.41203
2.409
2.41078
2.413
2.40955
2.41156
2.40997
2.40974
2.41362
2.41258
2.41241
2.41237
2.4146
2.41345
2.41451
2.4164
2.41737
2.41938
2.42221
2.41319
2.4114
2.41757
2.42855
2.41656
2.41489
2.42503
2.41924
2.42136
2.42565
2.42763
2.42055
2.42352
2.42488
2.42069
2.4228
2.42653
2.42757
2.42983
2.42686
2.42861
2.42639
2.42745
2.42924
2.42837
2.42928
2.42552
2.41408
2.41866
2.42723
2.41092
2.40066
2.46611
2.41879
2.42478
2.40274
2.41605
2.46521
2.42421
2.42093
2.41865
2.42053
2.41545
2.41799
2.41448
2.41321
2.40941
2.41671
2.41674
2.41551
2.4112
2.41859
2.41798
2.4165
2.41888
2.41814
2.41543
2.41604
2.41593
2.41625
2.41732
2.41382
2.41313
2.42053
2.41659
2.41562
2.41092
2.41329
2.41467
2.41266
2.41519
2.41533
2.41476
2.41944
2.41777
2.41642
2.41737
2.41832
2.41802
2.4204
2.42046
2.42051
2.42171
2.43234
2.42066
2.42018
2.42454
2.43344
2.42391
2.42436
2.42973
2.42216
2.42582
2.42933
2.43076
2.42442
2.42768
2.42785
2.4252
2.42788
2.42646
2.42986
2.43095
2.42695
2.43142
2.42978
2.43083
2.43224
2.43143
2.43265
2.42932
2.42262
2.42557
2.47109
2.424
2.43623
2.44665
2.4264