/*--------------------------------*- C++ -*----------------------------------*\
| =========                 |                                                 |
| \\      /  F ield         | OpenFOAM: The Open Source CFD Toolbox           |
|  \\    /   O peration     | Version:  5.x                                   |
|   \\  /    A nd           | Web:      www.OpenFOAM.org                      |
|    \\/     M anipulation  |                                                 |
\*---------------------------------------------------------------------------*/
FoamFile
{
    version     2.0;
    format      ascii;
    class       volVectorField;
    location    "1.8";
    object      U;
}
// * * * * * * * * * * * * * * * * * * * * * * * * * * * * * * * * * * * * * //

dimensions      [0 1 -1 0 0 0 0];

internalField   nonuniform List<vector> 
10571
(
(0.0125051 0.183207 1.27209)
(0.0144769 0.0352783 0.638272)
(0.00896962 0.0191785 1.12117)
(-0.0197029 0.0702486 1.22247)
(-0.00275593 0.0527984 0.869438)
(-0.0719498 0.062071 1.00543)
(0.0993753 0.125875 0.972427)
(0.0768901 0.177039 1.14282)
(-0.0225651 0.19851 1.11017)
(-0.0767145 0.0759949 0.93098)
(0.0207708 0.133302 2.09135)
(-0.0198193 0.0669236 1.07398)
(0.0221112 0.230198 1.19559)
(0.100599 0.32958 1.18052)
(0.0625251 0.175652 1.2435)
(0.0383517 0.0285103 0.91319)
(0.0134561 0.00139871 0.731402)
(0.0338153 0.0299238 1.2594)
(0.0863791 0.310364 1.28097)
(0.0307335 0.0260834 1.15756)
(-0.0342198 -0.0120767 0.485154)
(0.0258316 -0.0543911 0.902094)
(-0.00517561 0.0830348 0.827502)
(-0.0227111 -0.0346939 0.415533)
(0.0200947 0.0137337 1.04442)
(-0.0247397 -0.0126839 0.702132)
(-0.0736468 -0.0340363 0.936999)
(0.082541 -0.0208779 0.952047)
(0.120229 -0.0163123 0.847084)
(-0.0053561 -0.026433 0.911443)
(0.0247148 0.0233868 0.450584)
(0.0149557 0.0494226 0.441555)
(0.0348982 -0.0161997 0.436841)
(-0.0190404 -0.0191063 0.920474)
(0.123459 0.0435403 1.3218)
(0.0113578 0.0805419 0.956487)
(0.0633657 -0.00209271 0.429523)
(-0.000128994 -0.0223906 0.417492)
(-0.0219325 -0.0136728 0.443695)
(0.0254905 -0.0356436 0.854305)
(-0.00263865 0.119266 0.877344)
(-0.0112163 -0.0137996 0.416749)
(0.0127074 -0.057775 0.459754)
(0.000492734 -0.0471364 0.856264)
(0.0780883 -0.0529586 0.91224)
(-0.049213 -0.101577 1.03805)
(0.00240738 -0.0442773 1.02199)
(0.0420899 0.0332182 0.813871)
(-0.00741793 -0.0318042 0.562732)
(-0.0222819 -0.0180431 0.451651)
(-0.0278966 -0.00263302 0.535213)
(0.00806096 0.00600345 0.588696)
(0.0669873 -0.0163648 0.47475)
(-0.00424171 -0.0213996 0.523163)
(0.0650363 0.060283 0.805452)
(0.00355071 0.0733874 0.789695)
(-0.0363487 0.0225111 0.840398)
(-0.0312364 -0.0594352 0.623116)
(-0.0194193 -0.0207885 0.522511)
(0.00558312 -0.0111136 0.554105)
(0.0922552 -0.0116794 0.911433)
(-0.00540367 -0.0230187 0.863229)
(-0.0534123 -0.0661984 0.693678)
(-0.0464984 -0.0268224 0.485019)
(-0.00954034 0.0386914 0.444906)
(0.028368 -0.0638198 0.841245)
(-0.0421646 -0.0784809 0.612781)
(-0.0381925 -0.0562504 0.506543)
(0.0316527 -0.0100356 0.649827)
(-0.0489995 -0.0353304 0.531098)
(-0.0146774 -0.0509186 0.574863)
(0.0278438 0.00939678 0.466018)
(0.0199601 -0.0252438 0.623722)
(0.0191119 0.0186606 0.239154)
(0.102202 0.0735716 0.43996)
(0.00804431 0.0723767 0.53305)
(-0.0576855 0.0903356 0.205046)
(0.104547 0.0730663 0.34055)
(0.341542 0.333882 1.05925)
(-0.0092758 0.307507 1.06114)
(-0.281995 0.341325 1.01846)
(-0.00344672 0.0838358 0.415206)
(-0.0120323 0.00798892 0.573642)
(0.101859 -0.00714313 0.405625)
(0.302832 -0.0423722 1.10534)
(-0.00320359 -0.03577 1.00165)
(-0.24683 -0.298161 0.9972)
(-0.0339448 0.000169586 0.282274)
(0.0901331 -0.0571463 0.225952)
(0.324658 -0.336959 1.0002)
(-0.253731 -0.306292 0.990077)
(-0.152049 -0.190582 0.413007)
(0.0284006 -0.00632631 0.581122)
(0.0971529 -0.0840383 0.302976)
(0.0390474 -0.0891496 0.46503)
(0.0218509 -0.0320727 0.483066)
(0.0192986 0.0183241 0.442083)
(-0.0147445 0.0618737 0.086711)
(0.0776354 0.122639 0.149198)
(-0.0338491 0.109419 0.219279)
(-0.0478568 0.137274 -0.0261355)
(0.053772 0.103768 0.239132)
(0.121461 0.131216 0.629253)
(0.0193318 0.0919851 0.7091)
(-0.0770502 0.167738 0.663142)
(-0.0432008 0.163369 0.320483)
(0.0254574 0.0164063 0.403823)
(0.0834248 -0.0257658 0.217537)
(0.0969194 0.0109197 0.78655)
(0.0403844 0.0272117 0.792182)
(-0.0261586 -0.109798 0.630798)
(-0.101939 -0.0274677 -0.0190294)
(0.0591556 -0.0471298 0.104584)
(0.186481 -0.139442 0.655502)
(-0.106251 -0.087937 0.612892)
(-0.00139969 0.0205228 -0.0188919)
(-0.00672884 -0.112837 0.290297)
(0.0655622 -0.0939793 0.091965)
(0.0645851 -0.0716821 -0.0168256)
(-0.0787501 0.0127805 0.14608)
(0.0352799 0.0213564 0.376868)
(0.0640505 -0.0237542 -0.0504864)
(0.0573005 0.114879 0.11671)
(-0.0762879 0.12188 0.296294)
(-0.0732657 0.0527839 -0.0882537)
(0.0860014 0.057344 0.293468)
(0.0564712 0.0848906 0.756067)
(0.0229549 0.0259468 0.861258)
(-0.0258691 0.0945893 0.769544)
(0.0775124 0.0739061 0.234008)
(-0.0905608 0.0603149 -0.024736)
(0.00333053 -0.0484519 0.309787)
(0.0979759 -0.0618994 0.29623)
(0.0185359 0.0248539 0.919139)
(0.0385007 0.0399693 0.923063)
(0.0433987 -0.0427903 0.709515)
(0.10798 -0.0539108 0.14896)
(0.146502 0.0405115 0.127866)
(0.0403556 -0.0695794 0.0565687)
(0.133158 -0.0798669 0.740487)
(-0.062947 -0.0133318 0.702237)
(0.101471 0.10617 0.197263)
(0.0510022 0.0261333 -0.00303768)
(0.0563278 0.112288 0.136677)
(0.00918022 0.0711647 0.155431)
(0.0133665 0.0530574 0.0363256)
(0.14205 0.0223763 0.370116)
(0.0803504 -0.0606625 -0.0724353)
(0.0481855 0.0637434 0.102563)
(-0.0697379 0.0989444 0.356976)
(-0.0961313 -0.0393548 -0.0599182)
(0.126878 -0.0802227 0.289987)
(-0.00937996 0.00259839 0.792203)
(-0.00128808 -0.0511056 0.879533)
(-0.0148679 0.0033576 0.742347)
(-0.0452393 -0.0150171 0.12523)
(-0.0689793 0.0172596 -0.0162894)
(-0.00309359 -0.10622 0.304997)
(0.00465546 -0.112613 0.328701)
(-0.0583272 0.0244683 0.91296)
(0.0222817 0.0354324 0.910649)
(0.0574612 -0.00118117 0.691615)
(0.0263585 -0.0347674 0.212343)
(0.0558995 0.0482901 0.128595)
(0.0106327 -0.0242082 0.024445)
(0.0296812 -0.0392377 0.707428)
(-0.0231682 0.0171981 0.697709)
(0.0737743 0.0957222 0.298841)
(0.0176999 0.0187817 0.0688519)
(0.0398777 0.0121096 0.0489581)
(0.0145626 0.089362 0.132035)
(0.0297932 0.0524258 0.229866)
(-0.00552538 0.042347 0.0865441)
(0.13591 0.00416357 0.374325)
(0.0604146 -0.0596249 -0.0728303)
(0.0311633 -0.0309813 0.143513)
(-0.0550138 0.0276466 0.393424)
(-0.0677351 -0.033746 -0.0288448)
(0.0776242 -0.107138 0.326888)
(-0.0641932 -0.0845897 0.764546)
(0.00309068 -0.114097 0.824372)
(0.0095116 -0.0671057 0.712738)
(-0.034461 -0.00687678 0.0950682)
(-0.0332835 -0.052083 -0.0324691)
(0.00416015 -0.0738321 0.313738)
(-0.114101 -0.0920853 0.320268)
(-0.0968667 0.0302076 0.834936)
(0.021997 0.0307801 0.827828)
(0.0609669 0.00609784 0.65484)
(0.0167751 -0.00657932 0.268269)
(0.0624713 -0.0139015 0.141775)
(-0.0303811 0.0144207 0.0452398)
(-0.0536882 0.00202409 0.645202)
(0.0110213 0.0319834 0.654024)
(0.0550623 0.0669214 0.314869)
(-0.0065474 0.00705748 0.123635)
(0.0728049 -0.00192326 0.0426345)
(0.015327 0.0940969 0.13765)
(0.0533622 0.0414993 0.278468)
(-0.0236031 0.0458103 0.141228)
(0.116291 -0.00355309 0.424448)
(0.0188219 -0.0335423 -0.0424115)
(0.0135446 -0.113472 0.224746)
(-0.0552645 -0.0176545 0.421062)
(-0.0286714 -0.0329159 0.0139332)
(0.003467 -0.0675827 0.3951)
(-0.0846822 -0.12344 0.690486)
(-0.00151946 -0.119131 0.735501)
(0.0148255 -0.0877264 0.685322)
(-0.0155639 -0.0566061 0.0851904)
(0.00270239 -0.104566 -0.0690311)
(-0.00776479 -0.0239653 0.277274)
(-0.13469 -0.0931865 0.364746)
(-0.117105 -0.0350416 0.697878)
(0.0204269 0.0225227 0.697149)
(0.0421707 0.00327072 0.614846)
(0.0290911 -0.036887 0.328557)
(0.0676767 -0.0488495 0.112403)
(-0.0149622 0.0422442 0.122147)
(-0.0447293 0.0228084 0.566216)
(0.0388005 0.0306182 0.601479)
(0.0696223 0.0301757 0.298703)
(-0.0366492 -0.00256417 0.212658)
(0.0200528 0.0959481 0.166042)
(0.0487947 0.0400265 0.344927)
(-0.0158665 0.0463065 0.212715)
(0.121105 -0.0119529 0.530783)
(-0.00148048 -0.00426893 -0.00559196)
(0.0299436 -0.151953 0.327853)
(-0.0711435 -0.0291235 0.453558)
(-0.0203158 -0.0234084 0.0778365)
(-0.0249377 -0.0547609 0.398645)
(-0.040235 -0.11565 0.643773)
(-0.0295023 -0.0695736 0.67307)
(0.00865948 -0.06446 0.618785)
(-0.0363376 -0.0597816 0.0925652)
(-0.00048338 0.0615828 0.235007)
(-0.0309345 -0.0406946 0.473938)
(-0.0780303 -0.0877581 0.59064)
(-0.00244025 0.00729389 0.629581)
(0.0281937 0.00635541 0.581822)
(-0.0349299 0.00836493 0.320999)
(0.024846 0.0525444 0.203603)
(0.023472 0.0145546 0.46216)
(0.0407409 0.0143815 0.575265)
(0.0606586 -0.0157477 0.293314)
(-0.028105 -0.004319 0.255446)
(-0.00114363 0.0609689 0.207264)
(-0.00282341 0.0337063 0.403777)
(-0.0417262 0.0230363 0.232821)
(0.140517 -0.00712237 0.662886)
(0.00860873 0.00275038 0.0166335)
(0.0609294 -0.126971 0.392253)
(-0.0582041 -0.0377518 0.490987)
(-0.0178298 0.000203271 0.117324)
(-0.039552 -0.0621609 0.285311)
(0.0537193 -0.0927874 0.625307)
(-0.0372462 -0.0282175 0.656094)
(0.0122184 -0.00215234 0.563651)
(0.0154975 -0.0312182 0.109804)
(0.00814618 0.122899 0.265881)
(0.00895174 0.0525852 0.563368)
(0.00372877 -0.0754343 0.539646)
(-0.0184053 -0.0115068 0.601057)
(0.0220082 0.00643836 0.58093)
(0.0167578 0.00408949 0.344862)
(0.0360637 0.0693127 0.257877)
(0.0834643 -0.00690067 0.407599)
(0.0186018 0.00101621 0.573854)
(0.0376129 -0.0235911 0.295496)
(-0.0297932 -0.0131112 0.247999)
(-0.0270698 0.00931835 0.253674)
(-0.0503684 0.0261502 0.443896)
(-0.0112699 0.0227938 0.188206)
(0.111363 -0.0203941 0.763748)
(0.0138093 0.000619224 0.00806788)
(0.00417317 -0.0524742 0.397127)
(-0.0115153 -0.0511289 0.550966)
(-0.00683709 0.0346899 0.121768)
(-0.0168889 -0.00880314 0.213185)
(0.122412 -0.0775167 0.640238)
(-0.0333188 -0.0236366 0.660995)
(0.0196578 0.0274742 0.521092)
(0.0249637 -0.0465252 0.139353)
(0.00680767 0.114422 0.321534)
(0.00199033 0.132304 0.500278)
(0.0669469 -0.0642918 0.541601)
(-0.021526 -0.0288947 0.602333)
(0.0210053 0.0111756 0.584883)
(0.0136248 0.0134828 0.361752)
(0.02496 0.0727771 0.296328)
(0.114672 -0.0357482 0.398798)
(-0.0382538 -0.0256979 0.577294)
(0.0170583 -0.0188172 0.30713)
(-0.0202888 0.0174249 0.211682)
(-0.0467652 -0.029079 0.287733)
(-0.0676622 0.0255952 0.447529)
(0.0258589 0.0291866 0.185374)
(0.0419606 -0.00579328 0.854803)
(0.0140461 -0.0069499 0.00323347)
(-0.0758358 0.0374925 0.386439)
(-0.0176926 -0.0463336 0.578368)
(0.00815279 0.0564042 0.126115)
(0.0032321 0.0387069 0.213365)
(0.168979 -0.0482017 0.635116)
(-0.0327865 -0.0452318 0.680246)
(0.0309859 0.0449462 0.489648)
(0.00861925 -0.0563945 0.145051)
(0.00214945 0.0768499 0.350494)
(0.0128736 0.102669 0.422806)
(0.109723 -0.0586094 0.559199)
(-0.0135893 -0.046838 0.62449)
(0.0190963 0.0226803 0.582394)
(0.0185919 0.00713677 0.387749)
(0.0155471 0.0337816 0.307033)
(0.124135 -0.0547074 0.408943)
(-0.0658951 -0.0439347 0.57115)
(0.0157671 -0.0122552 0.330542)
(-0.0112251 0.0430607 0.208026)
(-0.0664759 -0.0514793 0.283207)
(-0.0590251 0.0205911 0.435869)
(0.0346914 0.0112597 0.189623)
(-0.00867062 0.00289306 0.854665)
(0.0208689 -0.0183596 0.011354)
(-0.0447131 0.0970323 0.369216)
(-0.0444504 0.0219601 0.525199)
(0.0107299 0.0169784 0.142585)
(0.035386 0.0378494 0.235814)
(0.168718 -0.00696026 0.620128)
(-0.0583771 -0.0624086 0.745767)
(0.0235441 0.104173 0.45311)
(-0.0105768 -0.0497282 0.149764)
(-0.000728618 0.0325526 0.365206)
(0.0295091 0.0398062 0.41371)
(0.136315 -0.0236188 0.562875)
(-0.00393718 -0.0459165 0.653148)
(0.0176425 0.056239 0.578966)
(0.0402055 0.00312157 0.399603)
(0.013614 -9.82448e-05 0.277929)
(0.127208 -0.0517202 0.424067)
(-0.0697406 -0.0478619 0.56552)
(0.0243518 0.0022784 0.377467)
(-0.00724563 0.0532737 0.215215)
(-0.0792215 -0.0584084 0.244991)
(-0.0289127 0.00713704 0.404774)
(0.0308444 0.000814253 0.184081)
(-0.0461373 -0.0154894 0.828914)
(0.0241534 -0.0252917 0.0163122)
(-0.00168778 0.10277 0.339187)
(-0.0451958 0.0179436 0.49306)
(0.0186039 -0.0518878 0.167026)
(0.0563377 0.0194692 0.264466)
(0.0950021 0.0625991 0.613269)
(-0.0689993 -0.00773367 0.809487)
(-0.0223486 0.165182 0.385357)
(-0.0233464 -0.0264776 0.166935)
(-0.000668622 0.00659581 0.349748)
(0.0619074 0.0253953 0.406534)
(0.126766 0.0450455 0.571015)
(0.000630294 -0.0115498 0.690859)
(0.0186071 0.0911751 0.596943)
(0.0411323 0.0145713 0.39022)
(0.00623144 -0.0238172 0.253348)
(0.127692 -0.0239255 0.450973)
(-0.0703137 -0.0420318 0.56756)
(0.0289057 0.0299149 0.440383)
(0.010068 0.0382579 0.247222)
(-0.0719986 -0.0442951 0.206596)
(-0.0156152 0.00234924 0.370782)
(0.0223921 0.00128206 0.183912)
(-0.0555622 -0.00906422 0.818865)
(0.0169929 -0.0251983 0.0193788)
(-0.0145249 0.059197 0.324893)
(-0.0354326 -0.110047 0.459849)
(0.0239469 -0.0477588 0.195682)
(0.0529261 0.018106 0.270081)
(-0.00911668 0.148371 0.585822)
(-0.0281264 0.11888 0.828705)
(-0.0579088 0.147499 0.334483)
(-0.0168029 -0.0153502 0.181845)
(0.00228785 -0.00069384 0.311172)
(0.0951006 0.0219572 0.376717)
(0.074625 0.121697 0.600296)
(0.0110338 0.0698522 0.748539)
(0.024404 0.0889711 0.62994)
(0.00844399 -0.00186886 0.360415)
(-0.0216908 -0.0456168 0.234079)
(0.0997072 0.0297103 0.509239)
(-0.0644116 -0.0103683 0.592687)
(0.0231098 0.0328668 0.487186)
(0.0273863 0.00230733 0.298325)
(-0.0561401 -0.0137038 0.184718)
(-0.0175957 0.00109651 0.333399)
(0.020469 0.000185699 0.196283)
(-0.0312396 -0.00509067 0.88986)
(0.00608258 -0.0161143 0.0238084)
(-0.0229813 0.00906028 0.298038)
(-0.0225497 -0.100692 0.424248)
(0.0212974 0.0284611 0.178128)
(0.0453024 0.0163075 0.247421)
(-0.0366243 0.169365 0.558631)
(-0.00170505 0.175855 0.785605)
(-0.0683447 0.0520878 0.323436)
(-0.00180838 -0.0211105 0.191355)
(0.00433049 -0.0170963 0.263697)
(0.0875881 -0.00675926 0.366321)
(0.0180999 0.164071 0.639146)
(0.0247587 0.128116 0.787558)
(0.0388224 0.0594053 0.687671)
(-0.00985873 -0.0384921 0.339842)
(-0.0596562 -0.0609851 0.210409)
(0.0512921 0.0406206 0.56093)
(-0.0370136 0.0341492 0.647848)
(0.0183483 0.0111396 0.509552)
(0.0373114 -0.03713 0.319056)
(-0.0370131 0.0168226 0.180796)
(-0.0163129 0.00246682 0.314088)
(0.0281597 -0.00849534 0.214911)
(-0.00846808 -0.00218294 1.00196)
(-0.00100508 -0.00440944 0.0316551)
(0.00538814 -0.0239558 0.262796)
(0.0232947 0.0427595 0.351847)
(0.0216319 0.0717369 0.139684)
(0.0314249 0.0146152 0.223875)
(-0.0339279 0.167242 0.553107)
(-0.013343 0.172202 0.734383)
(-0.065472 -0.0300464 0.32945)
(0.00552272 -0.0354778 0.203534)
(-0.000317933 -0.0415778 0.234064)
(0.0479782 -0.0461076 0.373859)
(-0.0129364 0.168132 0.681511)
(0.0447718 0.144867 0.810985)
(0.0471582 0.0327531 0.716018)
(-0.00241783 -0.0664655 0.333403)
(-0.0919288 -0.0667787 0.185297)
(-0.00107625 -0.0116388 0.588336)
(-0.018085 0.0370674 0.689055)
(0.0214918 -0.00534667 0.511219)
(0.0393293 -0.0576074 0.304882)
(-0.0199095 0.037355 0.174893)
(-0.0112995 0.00695972 0.315297)
(0.0343384 -0.0177629 0.23374)
(0.00774892 -0.0467474 1.04766)
(-0.00791706 0.0028334 0.0490637)
(0.0112101 -0.0136533 0.255048)
(0.0630635 0.139844 0.304041)
(0.0322308 0.0866033 0.111673)
(0.000885818 -0.00462938 0.219531)
(-0.0188962 0.156823 0.55547)
(-0.032361 0.157401 0.72499)
(-0.0591919 -0.0671035 0.335612)
(0.00161947 -0.0560277 0.221412)
(-0.00892227 -0.0596833 0.240473)
(-0.00496873 -0.0957365 0.392588)
(-0.00427391 0.137479 0.713977)
(0.0664488 0.12651 0.831372)
(0.0430023 0.0184162 0.721045)
(0.0183898 -0.0808015 0.336064)
(-0.098843 -0.0583866 0.183098)
(-0.0622134 -0.0748411 0.578665)
(-0.020817 0.0154519 0.708415)
(0.0211353 -0.00376663 0.496887)
(0.047612 -0.0675527 0.275377)
(-0.00609257 0.0541957 0.163694)
(-0.0104194 0.0125027 0.322183)
(0.0322693 -0.0206268 0.243906)
(0.0467651 0.0165063 0.982164)
(-0.0152801 0.00435244 0.0818139)
(0.0062479 -0.00560329 0.274979)
(0.0690058 0.150732 0.306581)
(0.0373398 0.0860684 0.0939108)
(-0.0220693 -0.0418498 0.218772)
(-0.0071194 0.126926 0.552794)
(-0.0549432 0.125276 0.745637)
(-0.0397061 -0.0786691 0.338935)
(-0.0131481 -0.0757359 0.239691)
(-0.0123134 -0.0611824 0.273881)
(-0.036869 -0.115436 0.423614)
(0.01368 0.0666277 0.746762)
(0.0639268 0.0826158 0.8645)
(0.0327864 0.0152263 0.7134)
(0.0385581 -0.0813121 0.343026)
(-0.0518343 -0.0361272 0.206026)
(-0.111796 -0.0846672 0.544314)
(-0.0319496 -0.00395713 0.696941)
(0.0108058 0.0187048 0.479554)
(0.0538622 -0.0749686 0.252978)
(-0.00119144 0.0595059 0.153159)
(-0.0127204 0.0193448 0.325855)
(0.0290346 -0.0196041 0.240095)
(0.0485418 0.0633809 0.342049)
(-0.0218659 0.00599676 0.12551)
(-0.00676427 -0.0209691 0.296946)
(0.0416177 0.0476845 0.342302)
(0.0412437 0.0709417 0.0869024)
(-0.0191119 -0.0591168 0.203798)
(-0.00850286 0.0500202 0.548267)
(-0.0789349 0.0774737 0.743686)
(-0.0067163 -0.0708246 0.34131)
(-0.02833 -0.0841905 0.256688)
(-0.0101606 -0.0492621 0.312083)
(-0.0697463 -0.0787473 0.466071)
(-0.00380608 0.00744544 0.769363)
(0.0217041 0.0254568 0.897286)
(0.0260152 0.00269631 0.685153)
(0.0542057 -0.0721027 0.351735)
(-0.000585308 -0.0156566 0.225876)
(-0.118359 -0.044296 0.505271)
(-0.0228043 -0.0112872 0.658059)
(0.0192 0.0259549 0.462655)
(0.0428598 -0.0604439 0.253451)
(-0.000225332 0.054039 0.152084)
(-0.0114593 0.0301265 0.33522)
(0.0192703 -0.0113061 0.21851)
(0.013319 0.00271127 0.224463)
(-0.0261396 0.00846884 0.169966)
(-0.0310925 -0.0414193 0.310655)
(0.0343941 -0.0276166 0.34779)
(0.0434768 0.0393804 0.09865)
(0.00500216 -0.0536849 0.189609)
(-0.0209731 -0.0225807 0.541267)
(-0.0817202 0.00256676 0.7133)
(0.0250061 -0.0478654 0.34926)
(-0.0372108 -0.0825294 0.276262)
(-0.00975983 -0.0401945 0.353808)
(-0.106836 -0.0331812 0.500662)
(-0.041065 -0.0416193 0.75839)
(-0.0160767 -0.015646 0.895569)
(0.0391977 -0.0398956 0.634583)
(0.0623231 -0.0605955 0.367296)
(0.037658 0.0119984 0.236765)
(-0.0790704 0.00428848 0.449368)
(0.0309384 -0.000809863 0.581592)
(0.0552238 0.00563865 0.444933)
(0.0272942 -0.0341519 0.273393)
(0.00386706 0.0359022 0.164601)
(-0.0137343 0.0355444 0.36473)
(0.0113324 -0.000256899 0.206501)
(-0.00500203 -0.00515634 0.237358)
(-0.0288692 0.00981011 0.211345)
(-0.0509775 -0.0391692 0.321895)
(0.0150492 -0.0329297 0.355698)
(0.0312711 0.00226509 0.127204)
(0.0231862 -0.0386886 0.189449)
(-0.0369704 -0.0478429 0.531012)
(-0.054035 -0.0821067 0.665494)
(0.0502326 -0.0182659 0.372612)
(-0.0424374 -0.0740666 0.303937)
(-0.010721 -0.0354563 0.407543)
(-0.131255 -0.0110266 0.527076)
(-0.0721887 -0.0738834 0.710102)
(-0.021083 -0.0334367 0.857464)
(0.059179 -0.0698061 0.595264)
(0.0628391 -0.0504878 0.390648)
(0.0541832 0.0428388 0.246364)
(-0.0298537 0.00505302 0.397815)
(0.0571233 0.00526797 0.526786)
(0.0809885 -0.0195141 0.43011)
(0.0136575 -0.00689666 0.304069)
(0.0155311 0.0176295 0.18294)
(-0.023797 0.0312141 0.402918)
(0.0039872 0.00630876 0.20395)
(-0.00935607 -0.00291816 0.266364)
(-0.0317515 0.00935472 0.249489)
(-0.0601551 -0.0260372 0.335681)
(-0.0176645 -0.0157799 0.354095)
(0.00639346 -0.0229738 0.159308)
(0.0279145 -0.0280331 0.200379)
(-0.0447868 -0.0394142 0.523082)
(-0.00605503 -0.105858 0.619307)
(0.0714261 0.0136833 0.411608)
(-0.0439839 -0.0646357 0.337199)
(-0.0106858 -0.0310333 0.464828)
(-0.127707 -0.015549 0.551794)
(-0.0880733 -0.0638855 0.660635)
(-0.0117092 -0.0434489 0.765929)
(0.0724097 -0.0727646 0.564507)
(0.0594011 -0.0426439 0.418139)
(0.0546759 0.0642538 0.254074)
(0.0017785 -0.0119984 0.364389)
(0.0535511 -0.000965744 0.494622)
(0.0745462 -0.0247795 0.416977)
(0.00380952 0.0175572 0.335172)
(0.0307124 0.00973872 0.203932)
(-0.0200368 0.0142951 0.427566)
(-0.000456145 0.00553024 0.203222)
(0.00154704 -0.000104839 0.296146)
(-0.0334463 0.00737045 0.283071)
(-0.0504301 -0.0305408 0.354057)
(-0.0280475 -0.018559 0.312427)
(-0.0215978 -0.0350172 0.184619)
(0.0302573 -0.0289915 0.21741)
(-0.0344679 -0.020199 0.503482)
(0.0469275 -0.0600158 0.590969)
(0.0883146 0.045468 0.455994)
(-0.0305568 -0.0522762 0.374988)
(-0.00873364 -0.0329598 0.510467)
(-0.0734867 -0.0391138 0.561637)
(-0.0732318 -0.0215414 0.640755)
(-0.00072655 -0.0315264 0.687399)
(0.0759224 -0.0521882 0.54903)
(0.0530112 -0.0355174 0.450593)
(0.0408754 0.0638511 0.249599)
(0.0202818 -0.0180882 0.352098)
(0.0448516 -0.00925713 0.483955)
(0.0544116 -0.0236524 0.409808)
(-0.00154774 0.0329435 0.366643)
(0.0411525 0.00905348 0.233205)
(0.00724291 -0.0213072 0.414035)
(0.00281358 0.00177758 0.205028)
(0.0162036 0.000162819 0.308101)
(-0.0299271 0.00514935 0.311807)
(-0.0318348 -0.0478804 0.373546)
(-0.0273323 0.00189201 0.279746)
(-0.038965 -0.034783 0.202387)
(0.0289619 -0.0321847 0.235895)
(0.01508 -0.0227054 0.467061)
(0.0886694 -0.0113708 0.574385)
(0.0987793 0.0659689 0.492324)
(-0.0153074 -0.0453609 0.408504)
(-0.00497346 -0.0366602 0.537666)
(-0.0188434 -0.0414602 0.544099)
(-0.0171785 0.0258446 0.625483)
(0.0187289 0.000295858 0.644517)
(0.0744505 -0.0146793 0.55248)
(0.0471117 -0.0226073 0.48686)
(0.00695074 0.0545548 0.235376)
(0.0341458 -0.0109027 0.354619)
(0.0425122 -0.0100554 0.487293)
(0.038183 -0.0212064 0.416453)
(-0.00647717 0.0425483 0.394638)
(0.0385829 0.0114217 0.266724)
(0.0208919 -0.0307251 0.378835)
(0.00705006 -0.000335838 0.211523)
(0.0224902 -0.00147882 0.306072)
(-0.0276713 0.0083538 0.33646)
(-0.022109 -0.0452195 0.389636)
(-0.0346844 0.017994 0.273145)
(-0.0459431 -0.0342741 0.216306)
(0.030485 -0.0175275 0.251698)
(0.0676793 -0.0327401 0.420031)
(0.109968 0.00972599 0.562017)
(0.0985364 0.0708257 0.515088)
(-0.0141499 -0.0488105 0.423904)
(-0.0044434 -0.0417075 0.545431)
(-0.0229144 -0.0240596 0.52846)
(0.0381766 0.0429961 0.603743)
(0.0451085 0.0281117 0.62955)
(0.0712733 0.011181 0.571)
(0.043192 -0.00898003 0.521208)
(-0.0111342 0.0351518 0.220277)
(0.034775 -0.0043819 0.360853)
(0.0365679 -0.00861973 0.506806)
(0.0193381 -0.0127853 0.442057)
(-0.0120659 0.0491099 0.415556)
(0.0203633 0.0181454 0.29607)
(0.014553 -0.0107194 0.362824)
(0.00890133 -0.000121888 0.218173)
(0.0192303 -0.00343514 0.299981)
(-0.0302275 0.0156055 0.352561)
(-0.0251064 -0.00482208 0.405058)
(-0.0551107 0.0142756 0.283779)
(-0.0473585 -0.0377972 0.219988)
(0.0441003 0.0110525 0.258095)
(0.0827542 -0.033138 0.391228)
(0.112314 0.0124743 0.551969)
(0.0831297 0.0608892 0.531014)
(-0.0247794 -0.0633728 0.413426)
(-0.00522945 -0.0519489 0.546956)
(-0.0254775 -0.00949005 0.460202)
(0.0648632 0.0381306 0.586365)
(0.0651213 0.0392116 0.630457)
(0.0688562 0.0269908 0.596726)
(0.0427119 -0.00217162 0.550397)
(-0.0188671 0.00941425 0.217684)
(0.0285764 -0.0067488 0.364979)
(0.023831 -0.0174648 0.524733)
(0.0138778 -0.00410251 0.470186)
(-0.0143452 0.0519613 0.435759)
(-0.00805102 0.0171682 0.316074)
(-0.00253902 0.00662259 0.362401)
(0.0101486 0.000912988 0.225219)
(0.0153238 -0.00524753 0.292019)
(-0.0270096 0.0222456 0.354254)
(-0.027778 0.0204517 0.409246)
(-0.0812016 0.00192977 0.294211)
(-0.0454222 -0.0447612 0.217059)
(0.0525659 0.0334504 0.246679)
(0.0776906 -0.0333279 0.383391)
(0.107265 0.010167 0.548443)
(0.0337086 0.031239 0.545711)
(-0.0298091 -0.0760946 0.384668)
(-0.0115978 -0.0843787 0.543332)
(-0.0263285 0.0149792 0.386754)
(0.0642807 0.0196849 0.574939)
(0.077101 0.0390637 0.640745)
(0.0732169 0.0393946 0.619948)
(0.0485624 0.00202552 0.577295)
(-0.0323954 -0.0154614 0.229832)
(0.0120712 -0.0168281 0.362262)
(0.00969272 -0.0356784 0.531329)
(0.0143007 0.000298161 0.494263)
(-0.0161269 0.056351 0.460577)
(-0.0362761 0.0135258 0.332576)
(-0.0126609 0.0196145 0.357503)
(0.00717989 0.00198983 0.237592)
(0.0145181 -0.00570651 0.290305)
(-0.0135019 0.0273503 0.330577)
(-0.0269078 0.0208454 0.409537)
(-0.0987134 -0.0134241 0.305015)
(-0.0432544 -0.0485881 0.215746)
(0.0500894 0.0499275 0.226989)
(0.0582865 -0.0463775 0.386083)
(0.104222 0.010521 0.551035)
(-0.0304072 0.000218432 0.551552)
(-0.0143656 -0.0666742 0.364586)
(-0.0109833 -0.106443 0.555307)
(-0.0315495 0.0279939 0.349088)
(0.0353944 -0.0294791 0.544264)
(0.088757 0.032933 0.648972)
(0.0827155 0.0394247 0.635593)
(0.0474289 0.00206144 0.59412)
(-0.0456985 -0.0277628 0.251385)
(-0.00527006 -0.0212582 0.349671)
(0.000905385 -0.0492607 0.526921)
(0.0145178 0.0030783 0.514774)
(-0.0214253 0.0633721 0.48801)
(-0.0635455 -0.0143479 0.329248)
(-0.0119657 0.0205894 0.34014)
(-0.00538578 0.00594838 0.256677)
(0.0216078 -0.005757 0.30199)
(-0.00984026 0.0279685 0.29178)
(-0.0296699 -0.0049364 0.412249)
(-0.103727 -0.0238081 0.326766)
(-0.0436549 -0.0506198 0.22067)
(0.0352273 0.0587157 0.21101)
(0.0405268 -0.0548909 0.386139)
(0.0988299 0.0225041 0.560459)
(-0.0668691 -0.0155242 0.549428)
(0.0116177 -0.0453544 0.360028)
(-0.0124715 -0.0905335 0.570034)
(-0.0496664 0.0183856 0.345277)
(0.00268266 -0.069775 0.487403)
(0.0981911 0.0227245 0.647559)
(0.0847483 0.0215537 0.653566)
(0.0198096 -0.0101352 0.593477)
(-0.0491309 -0.0273335 0.267274)
(-0.0139474 -0.0178626 0.33759)
(-0.00074057 -0.0506172 0.518967)
(0.0121865 0.00675778 0.532533)
(-0.0280444 0.0637314 0.507586)
(-0.0626333 -0.0455054 0.303253)
(-0.0218496 0.0161257 0.315003)
(-0.0246733 0.0150938 0.271976)
(0.0337004 -0.00460157 0.324379)
(-0.0115467 0.0274289 0.255252)
(-0.0348081 -0.030331 0.416796)
(-0.0938186 -0.0284645 0.359753)
(-0.0461118 -0.0485815 0.235055)
(0.0138484 0.0612122 0.19675)
(0.0363996 -0.0483451 0.384463)
(0.0664563 0.040462 0.575153)
(-0.0711082 -0.0248321 0.54056)
(0.0383495 -0.0287261 0.364768)
(-0.025564 -0.0608594 0.651721)
(-0.0462248 -0.00567558 0.360298)
(0.00278243 -0.0535809 0.432053)
(0.0959093 0.00757421 0.647597)
(0.0686265 0.00579287 0.685566)
(-0.0236112 -0.0286415 0.570418)
(-0.0465805 -0.0268177 0.263603)
(-0.0184716 -0.0131047 0.335382)
(-0.00155601 -0.036929 0.508577)
(0.0133116 0.00979466 0.548831)
(-0.0321045 0.0608312 0.505859)
(-0.0398082 -0.044404 0.286613)
(-0.0397395 0.0136693 0.288818)
(-0.0412811 0.0228206 0.275353)
(0.0459525 -0.00338569 0.354193)
(-0.0134464 0.0247863 0.222928)
(-0.0322501 -0.0472192 0.420467)
(-0.073891 -0.0337262 0.400899)
(-0.0470559 -0.0395707 0.26642)
(0.0060244 0.0478475 0.18159)
(0.0302458 -0.0286227 0.384877)
(0.00577986 0.0350029 0.585876)
(-0.0507173 -0.0440944 0.50175)
(0.0596274 -0.0237636 0.370325)
(0.0103023 -0.00061993 0.750844)
(0.0241393 -0.005367 0.35764)
(0.0258672 -0.017214 0.395333)
(0.0836009 -0.0112996 0.655996)
(0.043519 0.0216069 0.709419)
(-0.0136662 -0.0214617 0.553137)
(-0.0298737 -0.0238822 0.25531)
(-0.0263215 -0.00680594 0.345288)
(-0.0262918 -0.00573047 0.491468)
(0.0226844 0.0149317 0.568014)
(-0.0279317 0.049393 0.472369)
(-0.0135967 -0.02279 0.289819)
(-0.0495178 0.00890564 0.274084)
(-0.0556756 0.029639 0.271306)
(0.0557296 -0.00303598 0.389005)
(-0.0154733 0.0187277 0.203962)
(-0.00629903 -0.0599176 0.427199)
(-0.0476099 -0.0536618 0.443205)
(-0.0343425 -0.0182141 0.314845)
(0.0283764 0.0200816 0.182695)
(0.0310528 -0.0141829 0.390782)
(-0.0377544 0.0140471 0.583469)
(-0.0294286 -0.0598447 0.416814)
(0.0609409 -0.0261452 0.382011)
(0.004795 0.0230013 0.73988)
(0.116362 0.0292088 0.31277)
(0.0499879 0.00413826 0.388965)
(0.0729485 -0.0165935 0.663761)
(0.0257116 0.0476888 0.707805)
(0.0137859 -0.00920889 0.551555)
(-0.0131391 -0.018878 0.26622)
(-0.0466184 -0.00399124 0.372253)
(-0.0674142 0.0130418 0.471455)
(0.0273782 0.0325159 0.586771)
(-0.0112805 0.0371386 0.445137)
(0.00254157 0.00239876 0.307144)
(-0.0475104 0.00712657 0.272138)
(-0.0638777 0.030949 0.264858)
(0.0559183 -0.00209293 0.423917)
(-0.0148497 0.0132174 0.202584)
(0.0132277 -0.0199193 0.435541)
(-0.0201006 -0.0774763 0.47877)
(-0.00701131 0.00909668 0.372146)
(0.0541499 0.00314438 0.214819)
(0.0343139 -0.00292694 0.411514)
(-0.0612637 -0.00300497 0.577862)
(-0.0308696 -0.0448514 0.353123)
(0.0368136 -0.0355239 0.396275)
(0.00401501 0.0811896 0.63617)
(0.138621 0.0448286 0.299093)
(0.0596351 0.00826031 0.402215)
(0.0577336 -0.00820602 0.672005)
(0.0141917 0.0530533 0.68657)
(0.0410277 -0.0104782 0.553903)
(-0.0142079 -0.0240591 0.29507)
(-0.0634974 -0.0108419 0.399725)
(-0.0982001 0.012911 0.450326)
(0.0154095 0.0534999 0.595746)
(0.00540631 0.0249918 0.448794)
(0.00805324 0.0181776 0.327705)
(-0.026607 0.00943847 0.280995)
(-0.057795 0.0244369 0.258303)
(0.0413609 -0.000843534 0.455356)
(-0.0144685 0.0126151 0.210969)
(0.0222017 0.0270893 0.417687)
(-0.00445238 -0.0870948 0.498524)
(0.0168896 0.0335361 0.412809)
(0.0425879 0.00336188 0.241994)
(0.0283714 -9.48339e-06 0.443291)
(-0.0754117 -0.0218222 0.575254)
(-0.0273054 -0.0147551 0.315278)
(-0.0112005 -0.0541158 0.400864)
(0.0184666 0.0295546 0.429839)
(0.0897953 0.0276203 0.316454)
(0.0518389 0.00807788 0.422933)
(0.0215212 -0.00239993 0.684168)
(-0.000623976 0.0376311 0.64834)
(0.0563247 -0.0193949 0.540386)
(-0.0267159 -0.0349067 0.320464)
(-0.0647723 -0.0185656 0.420887)
(-0.110946 0.00355709 0.432743)
(-0.00133192 0.063481 0.588843)
(0.0121313 0.0163937 0.47645)
(0.0114836 0.0249029 0.342693)
(-0.00104631 0.0127049 0.291781)
(-0.0416479 0.0135221 0.25499)
(0.0274849 -0.0036216 0.490018)
(-0.017039 0.0163611 0.21606)
(0.00816817 0.0137837 0.401241)
(0.00209385 -0.0902829 0.513318)
(0.0257048 0.0471067 0.418672)
(0.0221094 0.00270572 0.249048)
(-0.00235485 -0.000546928 0.467306)
(-0.0775101 -0.0471586 0.564418)
(-0.00882984 0.0163025 0.303644)
(-0.0471711 -0.0563088 0.404909)
(0.00664847 0.0111435 0.331582)
(0.0508263 0.0179861 0.326654)
(0.0152119 0.01431 0.456608)
(-0.030603 -0.00904398 0.688082)
(-0.00895739 0.0217034 0.603238)
(0.0476574 -0.0379143 0.518148)
(-0.0386361 -0.0404487 0.333902)
(-0.0547471 -0.0120259 0.436886)
(-0.103616 -0.00943354 0.421239)
(-0.0160453 0.0581995 0.567966)
(0.00974687 0.00794253 0.49537)
(0.0134843 0.0269065 0.349094)
(0.0242694 0.0106173 0.298779)
(-0.0235097 0.00266717 0.256999)
(0.0236246 -0.00482541 0.528664)
(-0.0246165 0.0251178 0.213867)
(-0.0163635 -0.0128008 0.398547)
(0.00185167 -0.0838247 0.515828)
(0.0319612 0.0568909 0.393579)
(0.0003719 0.00942758 0.253656)
(-0.0425192 0.0176072 0.463771)
(-0.0620585 -0.0595172 0.538679)
(0.0167419 0.0400673 0.309926)
(-0.0554469 -0.0429431 0.417578)
(0.00142035 -0.00135369 0.310261)
(0.0280217 0.017999 0.344535)
(-0.0326534 0.0323216 0.486786)