/*--------------------------------*- C++ -*----------------------------------*\
| =========                 |                                                 |
| \\      /  F ield         | OpenFOAM: The Open Source CFD Toolbox           |
|  \\    /   O peration     | Version:  5.x                                   |
|   \\  /    A nd           | Web:      www.OpenFOAM.org                      |
|    \\/     M anipulation  |                                                 |
\*---------------------------------------------------------------------------*/
FoamFile
{
    version     2.0;
    format      ascii;
    class       volVectorField;
    location    "0.55";
    object      Us;
}
// * * * * * * * * * * * * * * * * * * * * * * * * * * * * * * * * * * * * * //

dimensions      [0 1 -1 0 0 0 0];

internalField   nonuniform List<vector> 
10571
(
(-0.0495171 0.00629085 -0.007784)
(-0.0329465 0.0102773 0.0293821)
(-0.0998569 -0.0567378 0.0201847)
(-0.0973012 -0.0782139 0.122095)
(-0.118784 -0.209926 0.0624925)
(-0.0792129 -0.0383533 0.0334684)
(-0.159533 -0.0268636 0.0338521)
(-0.231204 -0.110898 0.043982)
(-0.388525 -0.142448 -0.154165)
(-0.109292 -0.163859 -0.202669)
(0.0161739 -0.0120285 -0.00966327)
(-0.0894536 -0.0125436 0.00915513)
(-0.133644 0.0053868 0.0436533)
(-0.328657 0.120127 0.147237)
(-0.383738 -0.0314482 -0.637723)
(-0.0620238 0.0212756 -0.484377)
(-0.028352 -0.0170521 0.0243721)
(-0.0946809 0.00613565 0.0370354)
(-0.154166 0.105281 0.211833)
(-0.322682 0.198685 0.0278871)
(-0.011856 0.189402 -0.415356)
(-0.0781854 -0.00727311 0.0132512)
(-0.0850216 0.0420866 -0.00713385)
(-0.0554804 0.0434947 0.0558441)
(-0.0695312 -0.0680239 -0.0777722)
(-0.0862577 0.016772 -0.451235)
(-0.105966 -0.0177596 -0.0058421)
(-0.195294 -0.177212 0.0407248)
(-0.0972295 -0.102187 -0.270278)
(-0.14797 -0.0205642 0.0213425)
(-0.183413 -0.00883382 -0.302729)
(-0.0719842 0.0128274 -1.86575)
(-0.115028 0.0270906 -2.35533)
(-0.147796 -0.110717 -2.25776)
(-0.0817649 -0.104685 0.11419)
(-0.120627 -0.0061453 0.0374103)
(-0.15286 -0.00388541 0.0241828)
(-0.0963652 -0.0152217 -0.55237)
(-0.0285367 -0.0223418 -2.46261)
(-0.104943 -0.0362815 -2.41332)
(-0.108595 -0.0335786 -0.140699)
(-0.134262 0.0222791 -0.0132882)
(-0.119864 0.0440301 -0.0331024)
(0.00449769 0.0732311 -1.77677)
(-0.066646 0.0438509 -2.40252)
(-0.0833554 0.0491804 -0.00786858)
(-0.0894708 0.0491931 -0.0301838)
(0.011798 0.118675 -0.115127)
(-0.0485195 -0.0143346 -0.862186)
(-0.00760622 -0.0370982 -0.892131)
(-0.0803349 -0.0530038 -0.915251)
(-0.253653 -0.108288 -1.50948)
(-0.196485 -0.107329 -1.84858)
(-0.0620061 0.0192463 -0.837473)
(-0.151066 -0.0104058 -1.37697)
(-0.063986 0.0151427 -2.0622)
(-0.0754066 0.0199157 -2.34224)
(-0.110893 -0.105484 -2.37919)
(0 0 0)
(-0.108 -0.010721 -0.724522)
(-0.155259 0.0184647 -1.11075)
(-0.0942495 0.0522648 -1.93305)
(-0.0286628 -0.0214111 -2.44249)
(-0.0859079 -0.0372369 -2.46463)
(-0.0520261 -0.03464 -0.936961)
(-0.113725 -0.0039567 -0.893311)
(-0.116149 0.0766426 -1.20346)
(-0.0712511 0.0249667 -2.24274)
(-0.0416825 -0.00920275 -2.45836)
(-0.00213386 0.0236526 -0.853159)
(-0.0767428 0.0361022 -0.963628)
(2.21599e-18 -1.84298e-16 1.28271e-15)
(-0.10396 -0.0328297 -0.758963)
(0.0105904 -0.0166713 -1.08163)
(-0.093762 0.0060267 -0.750234)
(-0.262886 -0.0621492 -1.53551)
(-0.160992 -0.0390489 -1.89995)
(-0.17702 0.0176176 -0.721821)
(-0.147156 0.00867258 -1.27202)
(-0.0510333 0.0180183 -2.07542)
(-0.0564349 0.0271027 -2.31528)
(-0.120038 -0.0645864 -2.3893)
(0 0 0)
(-0.0503892 -0.0171092 -0.644761)
(-0.165313 -0.0161206 -1.11822)
(-0.0620778 0.0526995 -1.82256)
(-0.0311592 -0.0324693 -2.42895)
(-0.0339033 -0.0360327 -2.50105)
(-0.060454 -0.0318752 -0.937088)
(-0.081565 0.0134124 -0.855652)
(-0.0925939 0.0433249 -1.25506)
(-0.0573041 -0.0210597 -2.24572)
(-0.0157461 0.00870045 -2.48388)
(-0.0262782 -0.0465816 -1.09622)
(-0.104253 0.011577 -0.906854)
(-0.117766 0.0604959 -1.34724)
(-0.158301 -0.109782 -0.937948)
(-0.0235242 0.0139526 -1.20711)
(-0.184641 -0.0742124 -1.24854)
(-0.146137 -0.127956 -1.39085)
(-0.111269 -0.00870188 -1.94426)
(-0.0888225 0.0293844 -0.636775)
(-0.139117 0.0172635 -1.41378)
(-0.0409711 0.0303936 -2.05891)
(-0.0278909 0.0203976 -2.28168)
(-0.0711582 -0.0725209 -2.2954)
(0 0 0)
(-0.0368632 -0.00235726 -0.468033)
(-0.100927 0.0260701 -1.13137)
(-0.0382286 0.0282842 -1.8549)
(-0.0173993 -0.025333 -2.38184)
(-0.0249445 -0.0453575 -2.48375)
(-0.140197 -0.0484607 -0.847346)
(-0.0979021 0.0324273 -0.929906)
(-0.0766768 0.0925927 -1.29003)
(-0.0471619 -0.0194421 -2.19553)
(-0.0215957 -0.00712908 -2.43237)
(-0.0371062 -0.0126293 -1.02782)
(-0.125966 0.045591 -0.843554)
(-0.149072 -0.0183911 -1.22568)
(-0.359788 0.0903285 -1.22388)
(0.011703 0.0698126 -1.05705)
(-0.130493 -0.0758545 -1.01049)
(-0.19131 -0.0342576 -1.1845)
(-0.064523 -0.0162598 -2.0472)
(-1.15203e-17 -4.66259e-17 6.43399e-16)
(-0.115736 0.00269631 -1.23854)
(-0.020147 0.0497982 -2.0111)
(-0.0417709 0.012333 -2.26794)
(-0.0397872 -0.0834557 -2.43199)
(0.0184711 -0.0127718 0.0104608)
(0.0234897 0.0208057 -0.577701)
(-0.116154 -0.0615806 -0.562584)
(-0.128869 0.0383652 -1.03643)
(-0.019291 0.0131737 -1.70982)
(-0.019103 -0.0417161 -2.30881)
(-0.00945081 -0.0524013 -2.47856)
(0.0072441 0.000896209 0.00344951)
(-0.000224511 -0.0313512 -0.767154)
(-0.0750849 0.0323456 -0.755348)
(-0.0713473 0.0376917 -1.13837)
(-0.068981 -0.0744039 -2.16178)
(-0.0241918 -0.0142531 -2.41713)
(-0.0549588 0.0445136 -0.884082)
(-0.117086 0.000815607 -0.63479)
(-0.0685659 0.0668154 -1.41594)
(-0.316921 -0.165377 -1.35419)
(-0.0368625 0.00572116 -1.07509)
(-0.148855 -0.0753285 -0.794457)
(-0.21036 -0.000182454 -1.51988)
(-0.0561692 0.0447927 -2.1577)
(0.165546 0.100135 -0.360273)
(-0.145174 -0.0265029 -1.1838)
(-0.0175714 0.0742356 -1.90872)
(-0.0164218 0.0100183 -2.18525)
(-0.0152845 -0.0617345 -2.38953)
(0.0829663 -0.0270955 -0.070798)
(0 0 0)
(-0.066751 -0.017151 -0.447948)
(-0.10154 0.0478989 -1.1043)
(-0.000938705 0.0120236 -1.67601)
(-0.0164553 -0.0448028 -2.23602)
(-0.0095566 -0.0521057 -2.46976)
(0.536064 0.289572 0.479072)
(-0.0334259 0.0115801 -0.591799)
(-0.0655846 -0.000849036 -0.855424)
(-0.0745249 0.0607211 -1.10182)
(-0.0368543 -0.024366 -2.14694)
(-0.0139872 -0.0048808 -2.3937)
(0.171328 0.147765 0.25163)
(-0.142599 0.0275251 -0.760991)
(-0.134398 0.0591709 -0.686399)
(-0.133959 0.0297799 -1.69153)
(-0.259425 0.00904245 -0.876503)
(0 0 0)
(-0.0121766 0.0438413 -0.634369)
(-0.17956 0.0233951 -1.50457)
(-0.023847 0.0329579 -2.11384)
(-0.0225403 -0.0369727 -0.363985)
(-0.0998761 0.00551668 -1.17425)
(-0.00688103 0.0406083 -1.87645)
(-0.0144704 0.0233099 -2.16822)
(-0.0493031 -0.0659168 -2.35112)
(0 0 0)
(0 0 0)
(0 0 0)
(-0.0970931 0.0247055 -1.00575)
(-0.0175725 0.0148536 -1.66575)
(-0.0289172 -0.0536643 -2.21823)
(-0.00279182 -0.0530733 -2.44227)
(0.402028 0.618969 0.618727)
(-0.0383802 -0.0202847 -0.779327)
(-0.0219818 -0.00092087 -0.748849)
(-0.0501362 0.0430767 -1.2059)
(-0.0560942 -0.0950056 -1.9786)
(-0.0102144 -0.00260084 -2.36397)
(0 0 0)
(0.00534403 -0.0376069 -0.960001)
(-0.12513 0.0313587 -0.678744)
(-0.11208 -0.0214574 -1.56251)
(-0.0983645 0.0799556 -0.886291)
(-0.00352624 0.0102669 -1.09208)
(-0.0597393 0.00867585 -0.580045)
(-0.190526 0.0534443 -1.69597)
(-0.0283962 0.0207702 -2.12094)
(-0.0453593 0.00666927 -0.634315)
(-0.0969396 0.0176006 -1.1287)
(0.00238818 0.0715266 -1.78833)
(-0.00853092 -0.0018773 -2.11794)
(-0.0252942 -0.0661033 -2.30752)
(0 0 0)
(0 0 0)
(-0.0466135 -0.0113872 -0.355744)
(-0.0835624 0.0177349 -0.856486)
(-0.00136321 0.0137514 -1.63564)
(-0.00634003 -0.0569391 -2.12491)
(-0.0030055 -0.0498668 -2.41091)
(0 0 0)
(-0.0398053 -0.0103417 -0.558386)
(-0.0616634 0.0228544 -0.746274)
(-0.0602258 0.0661827 -1.19626)
(-0.0242145 -0.0341629 -1.92136)
(-0.00958896 -0.0108455 -2.33643)
(-0.0693567 -0.0536464 -0.720115)
(-0.0351829 -0.0329248 -0.676371)
(-0.0516043 0.00584753 -1.04881)
(-0.24427 -0.0602113 -1.12378)
(-0.0264682 -0.0874161 -0.666694)
(-0.20202 -0.0166414 -0.90298)
(-0.114418 -0.0100745 -1.64986)
(-0.0618024 0.0733735 -2.01331)
(-0.460061 -0.0576863 -0.777852)
(-0.101645 0.0556498 -0.961233)
(-0.00570325 0.0378381 -1.79781)
(0.0129426 0.0221317 -2.02651)
(-0.0123875 -0.0926189 -2.263)
(0 0 0)
(0.0983399 -0.0257211 -0.447278)
(-0.0624051 0.018138 -0.808752)
(0.0158572 0.0271251 -1.68095)
(-0.00611394 -0.0417903 -2.11817)
(-0.00277552 -0.0524379 -2.36622)
(0.016174 -0.0157432 -0.692229)
(-0.0509412 0.024161 -0.834738)
(-0.0403757 -0.0105382 -1.08265)
(-0.0353915 -0.0468444 -1.86941)
(-0.0172243 -0.0309614 -2.2835)
(-0.0198319 -0.0252816 -1.4643)
(-0.068429 0.0319822 -0.813387)
(-0.0886949 0.0211895 -1.37084)
(-0.142767 0.0244523 -0.913315)
(-0.011537 0.181073 -0.943204)
(-0.26839 0.0827159 -0.858197)
(-0.155401 0.100217 -1.58653)
(-0.0271979 0.0227658 -2.07343)
(-0.0602405 0.00255057 -0.389476)
(-0.0974532 0.0870695 -1.15815)
(-0.00330814 0.0984813 -1.72456)
(0.00264664 0.00117067 -2.00364)
(-0.0578831 -0.0791214 -2.20952)
(0 0 0)
(-0.175731 -0.170638 -0.482752)
(-0.0752277 0.0555829 -0.855613)
(0.0214416 -0.0576323 -1.52353)
(-0.00766002 -0.0714733 -2.07398)
(0.00323424 -0.0508537 -2.33612)
(-0.0624964 -0.0584844 -0.568761)
(-0.00275873 -0.0523763 -1.05188)
(0.04701 -0.0503311 -1.28082)
(-0.0254276 -0.0692477 -1.74592)
(-0.00598352 -0.0270159 -2.25699)
(-0.0306981 -0.0240829 -1.25534)
(0.157275 0.0114565 -1.43403)
(-0.00126532 0.114287 -1.24009)
(-0.191003 0.00348069 -1.28368)
(-0.122531 0.0333477 -0.868844)
(-0.141239 -0.0522542 -0.833609)
(-0.0772683 -0.0205094 -1.46685)
(-0.0610581 -0.0111677 -2.11833)
(-0.168611 -0.0100408 -0.386759)
(-0.0886317 0.0334004 -1.1239)
(-0.00478281 0.0680727 -1.67467)
(0.0123633 -0.0698116 -1.93319)
(-0.0444444 -0.0377791 -2.14569)
(0 0 0)
(-0.21371 -0.0694628 -0.601927)
(-0.0352886 -0.118975 -1.00537)
(0.0958366 -0.110939 -1.4483)
(0.0122016 -0.0697113 -1.97683)
(0.00347233 -0.0545316 -2.2959)
(-0.0807422 -0.18475 -0.855564)
(-0.00678377 -0.118041 -1.20329)
(0.105335 -0.0986966 -1.30154)
(0.0697314 -0.0752228 -1.53363)
(0.0341421 -0.0321798 -2.11884)
(-0.0142403 -0.069543 -1.39959)
(0.12509 -0.0125448 -1.20549)
(0.0828943 -0.134096 -1.34967)
(-0.220072 -0.011532 -1.1049)
(-0.0289667 0.0281562 -0.965563)
(-0.246699 -0.046713 -0.832701)
(-0.0804979 0.114889 -1.43599)
(-0.0241547 0.0256486 -1.9766)
(3.17719e-16 2.40939e-17 7.67258e-16)
(-0.0811688 0.0576228 -1.07267)
(0.0377807 0.0360315 -1.52845)
(0.013817 -0.055051 -1.92883)
(-0.0694005 -0.0261579 -2.0618)
(0 0 0)
(-0.0199389 -0.00279934 -0.313485)
(-0.0354722 -0.0515244 -0.983845)
(0.103326 -0.209786 -1.34436)
(0.0383511 -0.132259 -1.83057)
(0.00265087 -0.0634165 -2.24383)
(-0.0988982 -0.160231 -0.932994)
(0.0108563 -0.12761 -1.2825)
(0.11152 -0.126049 -1.29355)
(0.172942 -0.133586 -1.46281)
(0.0139686 -0.0378175 -2.06679)
(-0.0466149 -0.0369555 -1.48022)
(0.0539616 -0.0250992 -1.31506)
(0.421417 -0.0790167 -1.17531)
(-0.0870723 -0.134397 -1.39262)
(0 0 0)
(-0.248313 0.0505301 -1.05228)
(-0.0805468 0.15156 -1.5218)
(-0.0157129 -0.00198267 -2.01662)
(-9.25736e-17 8.25561e-18 2.31149e-16)
(-0.0523931 -0.0199526 -0.95713)
(0.0417614 -0.00403383 -1.50756)
(0.0301069 -0.0908852 -1.83617)
(0.0133883 -0.0784375 -2.02552)
(0 0 0)
(-0.0394719 -0.00922479 -0.333494)
(-0.0361707 -0.110317 -0.998445)
(0.106311 -0.16328 -1.31726)
(0.0212246 -0.105403 -1.83803)
(0.00310412 -0.0494735 -2.20432)
(-0.100489 -0.159574 -1.15255)
(0.00408797 -0.133906 -1.36905)
(0.0873803 -0.1271 -1.36181)
(0.134796 -0.185143 -1.37806)
(0.0234935 -0.156803 -1.65735)
(0.00228886 -0.0204899 -1.69996)
(0.0430628 -0.0434945 -1.33902)
(0.173909 -0.128528 -1.13247)
(-0.0954942 -0.0460286 -1.32929)
(-8.10354e-17 -2.43954e-16 5.08367e-16)
(-0.259242 -0.00753806 -0.963653)
(-0.0830074 0.0502891 -1.35489)
(-0.0172549 0.00667134 -1.95754)
(-0.00449005 -0.00696968 -0.279587)
(-0.0538228 0.0413214 -0.871101)
(0.0788012 0.00271764 -1.44904)
(0.0138393 -0.0919561 -1.80151)
(-0.0216844 -0.0694689 -1.96721)
(0 0 0)
(-0.0204919 -0.0575826 -0.223583)
(-0.0288685 -0.122095 -0.887325)
(0.0686354 -0.159077 -1.26396)
(0.0194963 -0.115341 -1.75646)
(-0.000517733 -0.0386576 -2.16132)
(-0.0264308 -0.130872 -1.06533)
(0.0295688 -0.105647 -1.51008)
(0.0992667 -0.126144 -1.4324)
(0.15812 -0.142711 -1.40816)
(0.0240495 -0.0801373 -1.82917)
(-0.0197104 -0.0157228 -1.79028)
(0.0795385 -0.0362066 -1.67018)
(0.155197 -0.151649 -1.2464)
(-0.0484026 0.0399443 -1.2439)
(-0.0294201 0.00614027 -0.953611)
(-0.125469 0.100227 -0.820229)
(0.0671927 0.0300854 -1.23343)
(-0.002663 0.0506894 -1.86672)
(-0.115656 -0.0416302 -0.480354)
(-0.00816594 -0.0284052 -0.777678)
(0.0962403 -0.0910961 -1.29718)
(0.0382767 -0.0864623 -1.6734)
(-0.0667151 -0.0373328 -1.79027)
(0.0096532 -0.0249127 -0.476082)
(-0.0639737 -0.0275623 -0.205296)
(0.038819 -0.164625 -0.94219)
(0.0768344 -0.166363 -1.23377)
(0.0109405 -0.124396 -1.72781)
(-0.00366141 -0.0272635 -2.11706)
(-0.0672261 -0.151531 -1.0227)
(0.03384 -0.091558 -1.46065)
(0.0984088 -0.110987 -1.43843)
(0.100104 -0.138109 -1.35538)
(0.0844688 -0.103727 -1.56554)
(0.0250671 0.017465 -1.94735)
(0.0586229 -0.0365513 -1.70105)
(0.110111 -0.0451632 -1.31251)
(0.0597108 -0.0560998 -1.88006)
(0.0101809 0.0384779 -0.619811)
(-0.126972 0.0925511 -1.09053)
(0.0454083 0.113745 -2.09001)
(0.241522 0.0937842 -1.81155)
(0.0372748 0.0451912 -0.579988)
(-0.0154556 0.0487847 -0.899049)
(0.120668 0.173855 -1.5447)
(0.0596734 -0.112351 -1.61696)
(-0.0498312 0.0275739 -1.57348)
(0.0128378 -0.277195 -0.90246)
(-0.0319902 -0.00733837 -0.245191)
(0.0135843 -0.12235 -0.933951)
(0.0748221 -0.131839 -1.19854)
(0.00607802 -0.124823 -1.68615)
(-0.00275613 0.0095178 -2.07511)
(-0.0535404 -0.172575 -0.856675)
(0.004571 -0.091595 -1.37227)
(0.077698 -0.0872118 -1.46435)
(0.109548 -0.128099 -1.35026)
(0.0625864 -0.0785952 -1.60502)
(0.00207206 -0.0167081 -1.90043)
(0.059166 -0.0435571 -1.73925)
(0.0509817 -0.0225018 -1.30532)
(0.0539645 0.0415958 -1.72249)
(-0.0618012 -0.0642547 -1.24207)
(-0.0937676 0.0718482 -1.39936)
(-0.0548231 0.0321384 -2.17804)
(0.277586 0.102834 -1.73939)
(0.0176307 0.173542 -1.70633)
(0.0691389 0.234431 -1.28592)
(0.118972 0.193451 -1.49478)
(0.109153 -0.0430758 -1.49969)
(0.0544127 -0.0619396 -1.65008)
(0.115727 -0.0571293 -0.461529)
(-0.0186909 -0.192547 -0.49674)
(0.00356154 -0.07341 -0.881822)
(0.065149 -0.110689 -1.17266)
(-0.00521771 -0.124099 -1.66291)
(-0.0222628 0.0563168 -2.03805)
(-0.0210762 -0.109635 -0.823601)
(0.0156806 -0.0385151 -1.34897)
(0.045143 -0.0718342 -1.40802)
(0.0488518 -0.119077 -1.40756)
(0.0253209 -0.09032 -1.72241)
(0.0712719 -0.0114259 -1.82435)
(0.058836 -0.0243315 -1.748)
(0.148346 -0.0616092 -1.2167)
(0.0353101 0.0302111 -1.78917)
(-0.0147499 0.0406993 -1.46896)
(0.0544752 0.0795241 -1.50156)
(-0.0478561 0.0349382 -2.14199)
(0.159506 0.129062 -1.71215)
(0.100039 0.0587624 -1.92632)
(0.06111 0.241122 -1.25006)
(0.109639 0.210808 -1.47148)
(0.175755 0.0975346 -1.44988)
(0.123815 0.0721023 -1.56967)
(0 0 0)
(-0.0406034 0.101829 -0.636619)
(0.0238866 0.00526891 -0.874553)
(0.0633675 -0.0870613 -1.17929)
(0.0179375 -0.112398 -1.52183)
(-0.0262594 0.0648257 -1.96506)
(-0.148767 -0.0508497 -1.09063)
(0.0347978 -0.0373656 -1.28072)
(-0.0252576 -0.0668869 -1.41558)
(-0.0415685 -0.0978558 -1.50721)
(0.0114377 -0.0416859 -1.74764)
(0.0211173 0.0277993 -1.68172)
(0.0442515 -0.0305555 -1.70976)
(0.036038 -0.00297319 -1.43047)
(-0.0768804 -6.78206e-05 -2.14434)
(0.00636619 0.0533476 -1.65829)
(-0.0078666 0.100855 -1.7288)
(-0.0856091 0.0349083 -2.10479)
(0.139102 0.137005 -1.59824)
(-0.0363215 0.0879301 -2.06374)
(0.0861429 0.261945 -1.10421)
(0.0967517 0.207396 -1.43093)
(0.193665 0.136707 -1.37025)
(0.0677576 0.0780302 -1.49207)
(-0.0271543 0.350441 -1.12274)
(0.0505191 0.294805 -1.00711)
(0.0640908 0.0590664 -0.807672)
(0.0772574 0.0104745 -1.14398)
(0.0347958 -0.0452653 -1.45415)
(-0.0125056 0.084077 -1.86722)
(-0.0433688 -0.119941 -0.950403)
(0.041645 -0.0153702 -1.15359)
(-0.0220292 -0.0692632 -1.36678)
(-0.0361815 -0.0711678 -1.60692)
(-0.0231671 0.0440493 -1.79743)
(0.0360077 0.00628201 -1.7895)
(0.0544641 -0.0540486 -1.73649)
(-0.0227548 -0.0189457 -1.48234)
(-0.11497 -0.0178489 -2.13769)
(-0.101012 0.105123 -1.93664)
(-0.0285492 0.0542614 -1.92354)
(-0.0975873 0.0196145 -2.02026)
(0.0620703 0.0575926 -1.61068)
(-0.065276 0.116152 -2.00273)
(0.0996597 0.213587 -1.04604)
(0.061509 0.181291 -1.39494)
(0.136291 0.140094 -1.35446)
(0.141801 0.114872 -1.41128)
(-0.0440758 0.301309 -1.1502)
(0.041831 0.311848 -1.05874)
(0.0877401 0.194169 -0.825644)
(0.0843226 0.0830792 -1.07038)
(0.0596591 0.0550068 -1.38415)
(0.00244086 0.0958968 -1.82408)
(0.00476053 0.305558 -0.63998)
(0.0434974 -0.00632756 -1.22984)
(0.00146945 -0.040641 -1.35044)
(-0.0364338 -0.0407844 -1.57773)
(-0.0331592 0.0992131 -1.73419)
(-0.0258512 0.0283571 -1.62598)
(0.0724041 0.00263757 -1.63981)
(0.000979957 -0.00134604 -1.56563)
(-0.192697 -0.0591889 -2.07481)
(-0.0615908 0.0949922 -2.02725)
(-0.0658926 0.0158137 -1.9648)
(-0.0560196 -0.00384605 -1.90926)
(-0.021054 0.0274675 -1.7886)
(-0.0718159 0.0896819 -1.94526)
(0.085768 0.192606 -1.04013)
(0.0591679 0.149278 -1.3447)
(0.0956604 0.128185 -1.34679)
(0.071026 0.0656831 -1.41839)
(0.036332 0.312326 -0.933971)
(0.0612267 0.219663 -1.05059)
(0.0725265 0.114066 -0.707796)
(0.0925129 0.137412 -1.00621)
(0.0673817 0.0962659 -1.31246)
(0.00131448 0.0999154 -1.78662)
(0.024823 0.168329 -0.605541)
(0.0550977 -0.00364775 -1.17626)
(0.00647514 -0.0335579 -1.35787)
(-0.0292621 -0.0566028 -1.53844)
(-0.0145868 0.0655904 -1.66209)
(0.0162908 0.0093912 -1.58118)
(0.07202 -0.017961 -1.66649)
(0.00247872 0.00110897 -1.59846)
(-0.105829 -0.00640114 -2.05108)
(-0.0572221 0.0597052 -2.09266)
(-0.0623384 0.0118393 -1.94204)
(-0.147311 -0.0453158 -1.90084)
(-0.0958752 -0.00895755 -1.9873)
(-0.078054 0.0606623 -1.88175)
(0.106339 0.159051 -0.963509)
(0.072653 0.14077 -1.22827)
(0.0410195 0.120737 -1.37125)
(0.0383252 0.0744414 -1.36458)
(0.0328352 0.285095 -1.02452)
(0.00108242 0.0882902 -0.950474)
(0.0749237 0.211767 -0.668551)
(0.0874893 0.163507 -0.949304)
(0.0776204 0.150089 -1.20494)
(0.00765326 0.109349 -1.7277)
(0.0779288 0.194717 -0.518849)
(0.0268132 0.0132963 -1.01351)
(0.0277538 0.0202162 -1.18891)
(-0.0297102 -0.0406549 -1.51562)
(-0.0253741 0.0704891 -1.61817)
(-0.034905 0.0186023 -1.54655)
(0.0934361 -0.0206837 -1.56531)
(-0.0426253 -0.00477203 -1.52463)
(-0.0763353 -0.0280729 -1.99594)
(-0.0344123 0.0225709 -2.038)
(-0.0212542 -0.00520713 -1.92427)
(-0.108821 -0.0757375 -1.80766)
(-0.109601 -0.041445 -1.98088)
(-0.0621304 0.0325081 -1.73405)
(0.088713 0.110071 -0.983051)
(0.0727864 0.122224 -1.18607)
(-0.047321 0.0740315 -1.4869)
(-0.00615437 0.0352748 -1.59504)
(-0.114179 0.0819106 -1.15202)
(0.142887 0.0789572 -0.82635)
(0.104388 0.254742 -0.653837)
(0.112707 0.188762 -0.876417)
(0.0670761 0.138303 -1.17519)
(-0.0066279 0.104913 -1.65277)
(0.0557194 0.237351 -0.509996)
(0.060151 0.106657 -0.969047)
(-0.00619135 0.0194223 -1.14278)
(-0.0362113 -0.0334025 -1.3948)
(-0.0376454 0.0795385 -1.54948)
(0.00283538 -0.014354 -1.60558)
(0.0354449 -0.0736473 -1.42174)
(-0.00289202 -0.000742736 -1.44661)
(-0.0576259 0.0240021 -1.9414)
(-0.0149211 0.0204064 -1.96501)
(0.000297256 -0.00245689 -1.84079)
(-0.099176 -0.0755553 -1.79717)
(-0.111525 -0.077497 -1.99717)
(0.0485242 -0.00123705 -1.66153)
(0.0653575 0.104537 -1.101)
(0.0466497 0.0909473 -1.15465)
(-0.0673567 0.0672367 -1.51277)
(-0.0150723 0.0411931 -1.77243)
(0.00778024 0.100106 -0.707342)
(0.0634145 0.137155 -0.675964)
(0.0888247 0.238652 -0.614502)
(0.134965 0.197931 -0.756395)
(0.02838 0.12897 -1.15995)
(0.0486246 0.104141 -1.49247)
(0.0023835 0.316793 -0.41222)
(0.0470888 0.0739693 -0.934912)
(0.0551134 0.047485 -1.03773)
(-0.00557966 0.0305947 -1.2334)
(-0.065883 0.0764593 -1.48111)
(0.00238571 0.00516399 -1.39182)
(0.107209 -0.0193498 -1.48981)
(-0.00773877 -0.00624153 -1.41498)
(-0.0902396 -0.0377283 -1.8906)
(0.0256026 -0.0508686 -1.90999)
(0.00254913 0.0284865 -1.88867)
(-0.104488 -0.0894884 -1.74137)
(-0.118412 -0.0869224 -1.9351)
(-0.0641067 0.0142506 -1.52153)
(0.0411852 0.0752228 -1.098)
(0.00872108 0.0796938 -1.19962)
(-0.0660923 0.0412006 -1.54522)
(-0.0239596 0.0505683 -1.76059)
(-0.0734851 0.0564499 -0.615238)
(0.0156205 0.0703241 -0.767638)
(0.0829211 0.190824 -0.566009)
(0.0684616 0.142682 -0.840443)
(0.0290594 0.145021 -1.16833)
(-0.00693314 0.0971013 -1.46479)
(0.078566 0.159076 -0.381051)
(0.0644475 0.0871946 -0.880269)
(0.0391773 0.00452776 -1.04711)
(-0.0546605 0.000705799 -1.25444)
(-0.0427562 0.0242416 -1.40615)
(0.0692623 0.000895409 -1.49231)
(0.101342 -0.0250036 -1.36508)
(-0.0257263 0.0176392 -1.40385)
(-0.0122356 0.0218829 -1.70569)
(0.045776 -0.0612113 -1.88894)
(-0.0115175 -0.00903052 -1.78025)
(-0.0868022 -0.0621947 -1.76081)
(-0.130456 -0.0884518 -1.92358)
(0.0334698 -0.0346787 -1.43037)
(0.0395695 0.0633343 -1.12468)
(-0.0312057 0.0532489 -1.20231)
(-0.0562937 0.0288056 -1.55433)
(-0.0136268 -0.0553347 -1.6814)
(-0.0411669 0.182592 -0.407897)
(0.0700378 0.0620281 -0.265476)
(0.0971731 0.147779 -0.5676)
(0.0575486 0.101359 -0.802698)
(0.0114055 0.14228 -1.18044)
(-0.0164222 0.0726055 -1.41154)
(0.0829109 0.203627 -0.369168)
(0.0751937 0.0367145 -0.943072)
(0.0539191 0.0108547 -0.992192)
(-0.00699966 0.0639118 -1.13127)
(-0.0484676 0.0835649 -1.35767)
(0.0430116 -0.00873679 -1.46922)
(0.0664582 -0.0289433 -1.27509)
(-0.0216937 -0.0384254 -1.26785)
(-0.0866659 0.0124706 -1.75873)
(0.101572 0.068656 -1.70833)
(0.0114934 -0.0194133 -1.78966)
(-0.0832445 -0.0725873 -1.71687)
(-0.14512 -0.0982737 -1.93905)
(-0.0414068 0.0867343 -1.70865)
(0.0131002 0.0605528 -1.08162)
(-0.0142864 0.0416452 -1.20123)
(-0.0274004 0.0233773 -1.53112)
(-0.0470141 -0.117844 -1.66513)
(-0.000703407 -0.0596855 -0.43074)
(0.0738848 0.0576154 -0.611768)
(0.080839 0.136514 -0.519618)
(0.0790414 0.10637 -0.722671)
(0.0404948 0.139631 -1.16636)
(0.0472586 0.0456389 -1.33124)
(0.109603 0.159335 -0.267961)
(0.0661515 0.0607741 -0.797725)
(0.0421441 0.00296457 -0.903578)
(-0.00381875 -0.0207404 -1.07526)
(-0.0470359 0.0422946 -1.3276)
(0.057882 -0.0170259 -1.47808)
(0.0483418 0.0182409 -1.19744)
(-0.0333624 0.0190964 -1.26398)
(-0.0918913 0.0487698 -1.70019)
(-0.0292102 -0.028791 -1.64508)
(-0.00745594 -0.0353884 -1.70018)
(-0.0788974 -0.0898247 -1.65589)
(-0.143989 -0.104697 -1.94842)
(0.0963631 -0.103143 -1.12638)
(-0.0107517 0.0353719 -1.03064)
(-0.0311642 0.023996 -1.22458)
(-0.0163334 -0.00556619 -1.51332)
(-0.0514337 -0.108241 -1.59475)
(0.124636 -0.105962 -0.26474)
(0.0211625 0.0701546 -0.421299)
(0.0406598 0.0962046 -0.526977)
(0.0555435 0.10418 -0.726967)
(0.0593366 0.127066 -1.1404)
(0.0464496 0.0358949 -1.22011)
(0.065406 0.0721935 -0.346876)
(0.0633988 0.0269237 -0.841064)
(0.0369919 0.0333945 -0.860044)
(0.0783579 0.0674149 -0.92406)
(-0.0207216 0.0396249 -1.23778)
(0.0635335 0.0772451 -1.37189)
(0.0991753 -0.00856391 -1.08881)
(0.0188508 0.0232185 -1.14235)
(-0.0171201 -0.0677201 -1.63603)
(3.0966e-17 2.08417e-17 1.48258e-15)
(0.0321013 0.0161092 -1.666)
(-0.0687003 -0.0891056 -1.60721)
(-0.145026 -0.106532 -1.93827)
(0.0751519 -0.0121951 -1.13084)
(-0.00584247 0.0265608 -0.985865)
(-0.0348122 0.0182819 -1.29626)
(-0.0343151 -0.0323348 -1.60403)
(-0.0906008 -0.137293 -1.79801)
(0.0745928 0.155368 -0.414094)
(0.0603011 0.0400849 -0.508995)
(0.0656454 0.0809941 -0.531776)
(0.0275373 0.100581 -0.823846)
(0.0763023 0.126688 -1.06487)
(-0.0390836 0.00184153 -1.18686)
(0.0538622 0.181259 -0.296302)
(0.0995884 0.0808653 -0.696779)
(0.0375151 0.0561126 -0.842165)
(0.103306 0.143029 -0.847692)
(-0.00424643 0.071742 -1.16599)
(0.108036 0.036627 -1.3514)
(0.077174 0.0246448 -1.07961)
(-0.0372337 -0.00391809 -1.10867)
(-0.0167181 -0.181128 -1.44649)
(0.0905923 -0.0331624 -1.50451)
(0.0360002 0.00562041 -1.61787)
(-0.0561815 -0.0773722 -1.53381)
(-0.143445 -0.104743 -1.90957)
(0.0443304 0.0588762 -1.32363)
(-0.0213703 0.0135525 -0.970832)
(-0.0496246 0.00249724 -1.36853)
(-0.0287454 -0.0556756 -1.58388)
(-0.073536 -0.177787 -1.86132)
(0.241649 0.0391173 -0.392179)
(-0.0193918 0.0445193 -0.360942)
(0.025056 0.0715799 -0.60269)
(0.0489156 0.10802 -0.803289)
(0.0661809 0.099929 -1.07128)
(0.0038793 0.0127426 -1.25547)
(0.0374608 0.143181 -0.236751)
(0.0893572 0.012304 -0.735456)
(0.0792994 0.0806639 -0.752329)
(0.0605628 0.116015 -0.965013)
(0.00246357 0.0371798 -1.16116)
(0.0488641 0.0331939 -1.1692)
(0.0653522 -0.0628583 -0.879648)
(0.0137551 -0.0148169 -1.05708)
(0.0705291 -0.042773 -1.53691)
(0.0729382 -0.0632616 -1.45068)
(0.00691363 -0.0251271 -1.59998)
(0.0258526 -0.0658072 -1.5336)
(-0.124492 -0.089391 -1.8986)
(-0.0271385 -0.176862 -0.642274)
(-0.0280957 0.0178798 -1.01683)
(-0.0649429 -0.00665519 -1.42693)
(-0.0669638 -0.0922048 -1.61221)
(-0.0543067 -0.165836 -1.8699)
(-0.0456948 0.121082 -0.723932)
(-0.0234894 0.0352531 -0.402006)
(0.0123196 0.0763661 -0.538351)
(0.0445255 0.0999075 -0.777143)
(0.0580494 0.0629039 -1.09674)
(-0.000705937 0.0168009 -1.36519)
(0.0295683 0.00651949 -0.350982)
(0.0913649 0.0541613 -0.616824)
(0.0692156 0.0893074 -0.735854)
(0.0206588 0.06709 -0.975473)
(-0.022632 0.0167839 -1.12797)
(0.128255 0.0759073 -1.24382)
(0.0515519 0.00416119 -0.903911)
(-0.0205961 -0.0003829 -0.997551)
(0.100097 -0.0160102 -1.48914)
(0.102247 -0.062523 -1.43055)
(0.0176009 -0.0283357 -1.48759)
(-0.0336574 -0.0886783 -1.46416)
(-0.110261 -0.0754122 -1.86364)
(0.0323569 -0.105621 -0.746934)
(-0.0801112 0.0192185 -1.13322)
(-0.0829544 -0.00678063 -1.42111)
(-0.071728 -0.103131 -1.58357)
(-0.0433316 -0.126281 -1.85833)
(-0.0321425 0.0512237 -0.650507)
(0.122293 0.0379509 -0.43858)
(0.0133583 0.0542078 -0.534123)
(0.0274748 0.0877815 -0.831695)
(0.00623738 0.0315496 -1.13756)
(-0.0534556 -0.0377114 -1.52164)
(0.032025 0.144532 -0.173314)
(0.121116 0.010051 -0.759389)
(0.072386 0.0534765 -0.72742)
(0.0781245 0.0490465 -0.930446)
(0.0238471 0.0226535 -1.12949)
(0.110993 0.0650292 -1.08557)
(0.0912778 -0.0395894 -0.911614)
(0.0447878 -0.0107792 -0.920101)
(0.0766044 0.040133 -1.36677)
(0.0811151 -0.158669 -1.22422)
(0.111067 0.0070142 -1.52544)
(0.000564934 -0.0199635 -1.39436)
(-0.0948615 -0.0730991 -1.84015)
(0.0352875 -0.0659593 -0.718504)
(-0.08616 0.0186767 -1.08505)
(-0.0644084 -0.0216586 -1.35758)
(-0.0509981 -0.0857223 -1.55856)
(-0.0469579 -0.0955598 -1.8452)
(0 0 0)
(-0.0333712 -0.0122317 -0.231793)
(0.0458576 0.0375073 -0.437512)
(0.0401525 0.0667516 -0.821115)
(0.0100057 0.00480544 -1.09602)
(-0.0244417 -0.0933397 -1.58078)
(0.0474687 -0.0346725 -0.398937)
(0.101637 0.0323324 -0.651528)
(0.128657 0.0317921 -0.724124)
(0.0517997 0.0169233 -0.931856)
(-0.0250268 -0.00696658 -1.09082)
(0.148775 -0.00494297 -1.09339)
(0.119518 0.0856808 -0.843797)
(0.000792314 -0.0895593 -0.91397)
(0.0224143 0.0264937 -1.4198)
(0.0953459 -0.0822246 -1.33569)
(0.102163 -0.00317791 -1.43846)
(0.0269443 -0.04149 -1.39484)
(-0.0663476 -0.0382333 -1.72853)
(-0.0721782 -0.0995538 -0.798713)
(-0.0767912 -0.00962809 -1.01875)
(-0.062562 -0.0191034 -1.31478)
(-0.0143627 -0.09081 -1.39378)
(-0.0356784 -0.100043 -1.81227)
(-0.0113331 0.0636055 -0.478649)
(-0.0109233 0.0240643 -0.268318)
(0.0365507 -0.0157531 -0.517656)
(0.0406064 0.0331676 -0.798358)
(0.0134222 -0.00166367 -1.08657)
(-0.0113888 -0.0969231 -1.59493)
(-0.0177102 0.00908002 -0.235156)
(0.121278 0.00882949 -0.729588)
(0.122199 0.0553538 -0.683242)
(0.0921309 0.0282922 -0.86414)
(-0.028371 -0.030629 -0.995084)
(0.153608 -0.0769399 -0.96342)
(0.127581 -0.00609652 -0.796605)
(0.0701789 -0.0502091 -0.897644)
(0.113089 -0.0166341 -1.38071)
(0.146677 -0.0824325 -1.18272)
(0.174826 -0.0389697 -1.37048)
(0.0138903 -0.0754106 -1.33415)
(-0.0521599 -0.0481856 -1.66965)
(-0.0230458 -0.0651297 -0.678869)
(-0.0852464 0.00973203 -1.01534)
(-0.0330836 -0.0123628 -1.27183)
(-0.00983456 -0.0605799 -1.39821)
(-0.0564744 -0.0864495 -1.74423)
(0.0315723 -0.00954201 -0.226884)
(-0.000109983 -0.13224 -0.288798)
(0.0304648 -0.0405522 -0.468503)
(0.0524566 -0.007895 -0.786502)
(-0.00336371 -0.0391771 -1.04255)
(-0.0187845 -0.101419 -1.57414)
(0.0294154 -0.0744748 -0.32306)
(0.119694 0.0177766 -0.77154)
(0.153769 0.000179378 -0.730514)
(0.0717287 -0.0183638 -0.862402)
(-0.0137574 0.0401575 -0.989873)
(0.106141 0.104596 -1.14079)
(0.155727 0.00813753 -0.83603)
(0.113151 -0.00941773 -0.714617)
(0.145936 0.00615191 -1.26611)
(0.143396 -0.106077 -1.18838)
(0.153354 -0.0666241 -1.29689)
(-0.0228434 -0.00800609 -1.3725)
(-0.0612111 -0.026729 -1.5905)
(0.0372714 -0.122464 -0.666185)
(-0.0995699 0.00763478 -1.01789)
(-0.0418555 -0.0212184 -1.20468)
(-0.0255683 -0.0926462 -1.40455)
(-0.0466865 -0.104126 -1.71008)
(0 0 0)
(-0.021729 -0.0899695 -0.15991)
(0.0650261 -0.0546261 -0.522604)
(0.0655858 -0.018016 -0.70913)
(0.0673846 -0.045091 -0.953947)
(-0.016533 -0.0961816 -1.55704)
(0.0298848 -0.0878149 -0.331175)
(0.172716 -0.000189447 -0.704307)
(0.145468 0.0402597 -0.688356)
(0.106905 0.00431928 -0.86767)
(-0.0112645 -0.0769724 -0.900747)
(0.155721 -0.0642197 -0.830184)
(0.216259 0.0956624 -0.731735)
(0.146254 -0.069694 -0.838595)
(0.0435014 0.0449723 -1.08044)
(0.132802 -0.154062 -1.12001)
(0.148991 -0.143939 -1.15263)
(-0.0480651 -0.00836082 -1.36222)
(-0.0348732 -0.0182928 -1.51673)
(-0.00171361 -0.0646195 -0.730646)
(-0.0892452 -0.029197 -0.915585)
(-0.010971 0.0188956 -1.19713)
(0.0172397 -0.0856175 -1.19356)
(-0.0452351 -0.0942202 -1.65988)
(0 0 0)
(0.114535 -0.0356741 -0.126202)
(0.0807661 -0.0249231 -0.413359)
(0.0993286 -0.0360626 -0.659345)
(0.0729878 -0.0664323 -0.87545)
(-0.0202019 -0.0774548 -1.51449)
(-0.00818822 -0.137193 -0.495347)
(0.173036 0.0311064 -0.690613)
(0.163338 0.0466427 -0.655068)
(0.171398 -0.0172814 -0.772289)
(-0.0318558 -0.0581235 -0.989443)
(0.100253 0.143902 -0.673785)
(0.1995 0.0754801 -0.783841)
(0.070133 -0.050817 -0.8013)
(-0.0428378 -0.040446 -1.25818)
(0.162966 -0.145259 -1.11403)
(0.192293 -0.148092 -1.12248)
(-0.0639313 -0.0352696 -1.26412)
(-0.072395 -0.00760705 -1.48608)
(0.0338586 -0.0671101 -0.819493)
(-0.00608402 -0.0417655 -0.745191)