/*--------------------------------*- C++ -*----------------------------------*\
| =========                 |                                                 |
| \\      /  F ield         | OpenFOAM: The Open Source CFD Toolbox           |
|  \\    /   O peration     | Version:  5.x                                   |
|   \\  /    A nd           | Web:      www.OpenFOAM.org                      |
|    \\/     M anipulation  |                                                 |
\*---------------------------------------------------------------------------*/
FoamFile
{
    version     2.0;
    format      ascii;
    class       surfaceScalarField;
    location    "4.2";
    object      phi;
}
// * * * * * * * * * * * * * * * * * * * * * * * * * * * * * * * * * * * * * //

dimensions      [0 3 -1 0 0 0 0];

internalField   nonuniform List<scalar> 
29271
(
-1.67827e-05
1.93699e-05
-1.39697e-05
1.13725e-05
-1.06283e-05
3.05353e-07
2.48157e-06
8.06106e-06
-3.8547e-05
-8.7868e-06
-8.50724e-06
-1.01227e-05
-4.1863e-06
7.015e-05
-2.87094e-05
-1.41474e-07
2.10714e-05
-7.72332e-06
3.95972e-06
1.15431e-05
-2.30476e-05
-5.72551e-07
-6.29691e-07
5.2957e-06
1.53827e-05
3.57148e-06
-4.09864e-05
-3.31897e-06
7.14469e-06
8.28203e-08
-1.79948e-06
3.88773e-05
-5.05215e-05
7.4582e-06
-8.34962e-06
-6.33494e-06
-1.25901e-05
7.03379e-05
-4.32739e-05
-5.69717e-06
2.11099e-05
-1.06026e-05
6.32427e-06
3.21395e-05
-4.17394e-05
-9.99415e-06
5.73319e-06
-4.63399e-06
2.43432e-05
2.62912e-05
-1.94011e-05
-3.40798e-06
7.59012e-06
1.34441e-05
1.977e-06
-6.6551e-06
-2.25342e-07
-6.43585e-06
1.32972e-05
-5.30216e-05
8.61986e-06
9.07628e-06
-2.96037e-06
-8.88682e-06
4.71727e-05
-2.79601e-05
1.56974e-05
2.58533e-06
-4.16163e-06
-1.51844e-05
2.90233e-05
-2.78451e-05
3.38058e-06
3.06285e-06
-1.38271e-06
-1.0591e-05
3.33754e-05
-3.65046e-05
-1.38502e-05
-3.70036e-07
-4.19571e-06
-9.05728e-06
6.39779e-05
-5.9986e-05
-9.02595e-06
-9.77943e-06
-4.81595e-07
6.75337e-05
1.17393e-05
-2.4329e-05
3.72264e-06
-5.32601e-07
-5.82841e-06
2.11751e-05
5.79231e-06
-6.27373e-05
-7.57995e-06
8.76606e-06
-1.39552e-07
-2.03417e-05
8.20325e-05
-6.81335e-05
8.99716e-06
1.58604e-05
-2.5455e-05
-2.359e-05
9.2321e-05
-3.77298e-05
1.07961e-06
-6.13645e-06
2.53307e-05
8.91139e-06
8.54451e-06
-6.89066e-06
2.32234e-06
-6.76497e-07
5.40822e-06
-1.88729e-05
2.14809e-06
-1.25131e-06
1.05201e-05
7.62121e-06
-2.87555e-05
-1.31779e-06
4.20924e-06
-3.05285e-06
1.66204e-05
1.22965e-05
-1.08051e-05
4.45712e-06
-1.99795e-06
8.46073e-06
-4.06878e-06
-1.24359e-06
3.2738e-06
2.18364e-06
-8.85442e-06
-1.76781e-06
4.113e-06
6.72118e-06
-9.94461e-06
7.9056e-06
-8.97473e-05
-1.32665e-06
3.25777e-06
8.98551e-05
-6.21795e-06
-1.38589e-05
-2.75628e-06
-2.75687e-06
6.24383e-06
1.93462e-05
-1.02959e-05
-8.16513e-07
-5.704e-07
3.93188e-06
5.63645e-06
2.11452e-06
-3.63737e-06
6.17751e-06
-4.01218e-05
-1.43138e-05
8.86085e-07
5.10094e-05
1.29003e-05
1.38514e-05
0.000219864
-6.62731e-05
-8.62329e-05
-6.79204e-05
-6.10937e-05
-1.17011e-06
-2.17974e-06
6.62006e-06
8.09054e-06
3.28384e-06
3.4142e-06
8.82632e-06
8.01975e-06
1.34015e-06
-1.61979e-06
0.000143269
-3.65554e-05
-2.01006e-05
-5.53947e-05
-6.23486e-05
1.72217e-06
5.39401e-07
2.86007e-05
1.34476e-05
-2.15197e-06
2.75972e-05
0.00014327
-3.99886e-06
-4.26462e-06
-2.70533e-06
-2.95496e-06
-4.06054e-06
-2.15251e-06
-3.12895e-06
-2.53222e-05
-2.09767e-05
-6.98867e-05
-2.79237e-05
-1.01428e-05
-1.96056e-06
3.84947e-06
6.28029e-06
-1.29783e-05
7.29986e-07
7.20513e-06
5.06006e-06
2.51626e-06
-4.01934e-05
-1.89259e-06
-1.07336e-05
-2.98351e-07
5.06017e-05
8.63602e-07
2.58927e-06
0.000114853
-3.34018e-05
-2.64144e-05
-2.28135e-05
-3.46645e-05
1.83534e-06
1.83577e-06
5.33314e-06
3.83578e-06
2.48722e-05
7.4992e-07
0.000120805
-3.93902e-05
-5.0282e-05
-3.51109e-05
-2.24005e-05
-6.66095e-06
-8.15198e-07
0.000325904
-5.42784e-06
-1.04244e-05
-6.55557e-06
2.53675e-06
2.43295e-06
1.25344e-05
-9.00866e-05
-7.3936e-05
-4.5402e-05
-5.16299e-05
-6.23963e-05
-3.21929e-06
-8.51962e-06
6.85798e-06
6.06163e-05
-2.21467e-05
1.06658e-05
-9.31666e-06
-3.5113e-06
1.9404e-05
4.90486e-06
3.569e-06
-7.98564e-07
0.000204581
1.69933e-06
1.61031e-06
1.95133e-06
2.30334e-06
-9.04791e-07
-1.9433e-07
-3.34738e-07
-8.73402e-05
-0.000100883
-1.06153e-05
-1.20541e-05
1.13283e-06
-2.83183e-06
0.000181399
2.46457e-06
4.02599e-06
7.04373e-06
-2.85672e-06
-1.64202e-06
-1.42745e-06
-9.604e-05
-3.39674e-05
-2.37889e-05
-2.91933e-05
-2.11202e-05
3.51117e-06
-1.08678e-06
1.90134e-05
-4.87707e-06
-3.01104e-06
3.85144e-06
4.21509e-06
-7.23677e-06
8.5786e-07
-7.1113e-07
6.2708e-06
-1.28715e-05
-3.61241e-07
1.78768e-06
-1.68472e-06
1.02979e-05
-7.42398e-06
3.09817e-06
-2.20117e-06
6.66642e-06
-4.88615e-07
1.07811e-07
9.77365e-07
-5.10507e-07
-3.33939e-06
1.60392e-06
1.56117e-06
1.73074e-07
-8.33337e-06
-4.39732e-07
-9.6577e-05
-7.45159e-06
7.39819e-06
0.000105404
-3.09822e-06
-3.32148e-05
9.77325e-06
-3.07313e-06
-8.83461e-06
3.84475e-05
-1.6004e-06
-3.44224e-07
-2.84201e-07
1.09216e-06
6.27553e-07
5.09109e-07
-6.69688e-06
-1.88144e-05
-6.92759e-05
7.60541e-06
5.69806e-06
8.14837e-05
-5.78723e-06
9.19213e-06
0.000211582
2.37902e-06
8.57043e-07
-2.0873e-06
1.06932e-06
2.60703e-06
2.56947e-06
-2.55137e-06
3.39125e-08
-2.64763e-05
1.89218e-06
0.000141502
1.10357e-05
-1.17349e-06
1.01169e-05
5.85084e-07
-2.84213e-06
1.2664e-05
0.000115602
-2.61169e-07
-6.3473e-08
3.20916e-06
4.39063e-07
-5.07074e-06
-2.83185e-06
-4.05115e-06
-3.46668e-06
-4.11219e-07
-4.23942e-07
1.57604e-06
-2.22251e-06
-1.99477e-06
2.85695e-06
1.34975e-06
-4.4898e-06
-7.10948e-05
-2.30736e-06
-5.30023e-06
1.96494e-06
8.12272e-05
-1.11042e-05
-1.80439e-06
0.000132446
2.13392e-06
2.00315e-06
1.76922e-07
1.93239e-07
-1.08254e-05
2.81328e-06
0.000119605
-1.23989e-05
4.56463e-06
0.000322586
-8.87112e-06
-6.16643e-06
-4.98894e-06
1.07706e-05
1.27667e-05
9.47973e-06
-5.15761e-05
-1.33243e-06
-1.64695e-06
7.64374e-06
3.45128e-05
-1.97708e-05
-8.63476e-06
1.64462e-07
-6.53501e-07
2.88497e-05
4.49232e-08
-1.23245e-05
-1.80445e-06
0.000233371
1.62631e-06
9.10741e-07
-7.98704e-06
-4.11175e-06
-2.09261e-06
-2.459e-06
-2.35175e-06
-2.23972e-06
-1.29449e-06
0.000186071
-4.4845e-07
-2.98555e-06
-3.64271e-06
-9.32061e-07
-1.6982e-06
-9.41527e-07
-2.76024e-05
-9.95489e-06
-1.77084e-06
4.1653e-05
-3.62685e-06
-8.60762e-06
8.56196e-06
3.63904e-06
-5.70593e-06
4.4344e-07
-6.67809e-07
4.22654e-06
-9.26569e-06
-4.25171e-07
1.62586e-06
-1.31367e-06
8.08418e-06
-5.65627e-06
4.00721e-06
-2.22647e-06
3.89988e-06
7.59381e-07
-2.59177e-07
-1.70778e-06
1.1905e-06
1.43602e-06
-1.54685e-06
2.17751e-06
-2.05458e-06
-1.64777e-06
2.15988e-06
-0.000105984
-4.22505e-06
1.33264e-05
9.6371e-05
1.05002e-05
-3.83705e-05
1.04948e-06
6.40244e-06
-9.72631e-06
3.01447e-05
-4.97829e-06
4.79643e-07
5.30256e-06
-5.17823e-06
1.24568e-05
-8.0825e-06
-5.00861e-06
-5.50423e-06
-7.75337e-05
1.40106e-05
6.0348e-06
6.80011e-05
-2.97256e-05
2.51106e-05
0.000305874
-1.28937e-05
-1.03696e-05
-1.67876e-05
-1.26937e-05
-7.70565e-06
-8.71571e-06
-9.54495e-06
-1.09665e-05
-3.81989e-05
2.19617e-05
0.00013686
1.1424e-06
-4.46434e-06
-1.79121e-06
-3.73282e-06
-2.25778e-07
7.10897e-06
4.95585e-05
3.35288e-06
4.72731e-06
2.80184e-06
1.07822e-05
-1.12937e-06
7.49738e-07
-3.23419e-07
2.7613e-07
1.71741e-06
-1.70669e-06
-5.23608e-07
-7.13635e-07
2.28505e-08
1.08325e-07
5.79046e-07
-9.6137e-06
-8.13218e-05
-5.44626e-06
1.57592e-05
7.38082e-06
7.32417e-05
-2.42484e-05
-2.57203e-06
0.000217661
-7.80289e-06
-8.66325e-06
-7.73666e-06
-9.08073e-06
-3.95407e-05
1.35665e-05
0.000143293
-5.86542e-06
1.06351e-05
0.000266144
-3.42965e-06
-4.19982e-06
-2.75276e-06
7.34173e-06
1.43024e-05
7.97851e-06
-2.31522e-05
-1.44894e-07
-6.71275e-07
4.025e-06
1.4078e-05
-2.95099e-05
-9.52295e-06
1.39107e-05
2.8037e-06
2.70845e-05
-4.76608e-06
-1.59273e-05
-5.45045e-07
0.000272388
-1.01279e-05
-3.34796e-06
-8.39596e-06
-2.26007e-06
-9.72761e-07
6.87453e-07
-6.99289e-07
-1.17477e-05
1.23622e-06
0.000216255
-8.31439e-06
-9.69328e-06
-8.8967e-06
7.5929e-07
2.24111e-06
1.87083e-06
-6.14078e-05
-1.3917e-05
2.57124e-06
7.1641e-05
-3.24412e-06
-2.49524e-06
3.99657e-06
1.69352e-06
-2.37604e-06
-1.18124e-06
4.75504e-07
2.5573e-06
-6.30545e-06
8.45732e-07
-9.60483e-07
-2.25486e-08
7.67897e-06
-2.2478e-06
-5.18644e-09
7.80263e-07
1.42129e-06
-5.30824e-06
-2.4924e-06
9.60718e-08
7.69339e-06
2.25956e-06
-1.22346e-06
1.16903e-06
-2.21285e-06
1.72882e-06
3.58895e-06
-8.18991e-05
-1.05386e-06
1.51003e-05
6.25349e-05
6.8937e-06
-1.74121e-05
-7.10951e-07
6.97813e-06
-4.19183e-06
8.44304e-06
-1.84579e-05
-3.63136e-06
4.25784e-06
5.61401e-07
2.31413e-05
-5.87126e-06
-4.28198e-06
6.79692e-07
-5.908e-05
6.42783e-06
4.70772e-06
5.15468e-05
1.47497e-06
4.3876e-05
0.000351962
-1.84129e-05
-1.47717e-05
-1.89152e-05
-1.38095e-05
-6.53027e-06
-1.03309e-05
-2.44422e-06
-6.22435e-06
-1.002e-06
1.32143e-05
0.000134008
-4.53719e-06
-1.69526e-06
-1.94757e-06
2.94022e-07
1.59886e-06
5.39776e-06
1.61137e-05
7.82454e-07
4.60532e-06
6.39138e-06
7.03964e-06
4.90645e-07
5.82475e-06
3.1194e-07
1.16483e-06
1.44426e-06
-2.05257e-06
1.01481e-06
-9.34417e-07
-4.24716e-07
6.26411e-07
7.30774e-07
-5.38292e-06
-6.58336e-05
-4.36735e-06
1.19337e-05
4.70538e-06
5.89447e-05
-7.39927e-06
2.55783e-05
0.000273495
-9.26831e-06
-1.05012e-05
-4.28065e-06
-6.08682e-06
-2.12723e-05
2.40454e-05
0.000146335
-5.99058e-07
8.99275e-06
0.000220292
-3.50136e-07
-1.82195e-07
2.51105e-06
3.80486e-06
1.08966e-05
4.90395e-06
-5.62687e-06
-8.91359e-08
9.42641e-07
3.23024e-06
9.44064e-07
-2.44763e-05
-2.39528e-06
7.76402e-06
2.09221e-06
2.25188e-05
-5.50345e-06
-1.34764e-05
5.69106e-06
0.000292481
-7.01161e-06
-1.18718e-06
-2.86815e-06
3.52826e-08
4.69126e-06
9.87683e-06
9.73352e-06
-1.43973e-05
4.17722e-06
0.000255885
-1.22682e-05
-1.03435e-05
-1.11079e-05
3.7634e-06
6.51117e-06
4.60429e-06
-8.04158e-05
-7.12073e-06
6.13908e-06
7.5993e-05
-1.32335e-06
-1.19385e-06
4.82896e-07
2.00796e-06
-3.51272e-06
-2.10082e-06
2.31745e-06
8.93176e-06
-1.17891e-05
1.38476e-06
-4.8493e-06
5.46435e-07
1.88845e-05
-1.58844e-06
-3.60554e-06
3.17587e-06
1.99686e-06
-7.9005e-06
-3.40561e-06
4.61173e-06
6.68685e-06
2.23994e-06
-3.7984e-07
3.73241e-07
-2.21966e-06
3.10905e-06
2.99731e-06
-3.59217e-05
1.94554e-06
1.39696e-05
1.39003e-05
-1.62434e-06
-7.59338e-06
-6.71718e-06
6.50978e-06
2.07767e-06
7.34745e-06
-3.22359e-05
-4.61777e-06
2.64839e-07
4.38137e-06
3.52331e-05
-3.02564e-06
-1.75837e-06
1.61249e-06
-4.58705e-05
6.95166e-08
4.40033e-06
4.15466e-05
2.90077e-05
5.45371e-05
0.000345892
-2.2108e-05
-1.63324e-05
-2.14049e-05
-7.08951e-06
-1.9229e-06
-6.30225e-06
-3.79746e-07
-1.93513e-06
1.14459e-05
1.35602e-05
0.000159173
-2.99662e-06
-6.2298e-06
-4.06925e-06
-7.86693e-06
6.98683e-07
1.17434e-06
2.59048e-05
-2.71696e-06
5.43725e-06
-5.36875e-06
1.83822e-06
-5.71515e-08
6.74793e-07
-2.56142e-08
-4.97446e-06
-6.53164e-07
4.58415e-07
-2.61703e-07
6.12959e-06
3.49847e-08
-1.74477e-09
-3.50826e-10
-3.78879e-08
-8.65012e-08
-8.13792e-07
9.49316e-07
-8.77379e-08
-2.97203e-06
-5.55902e-05
-3.52689e-06
6.00317e-06
2.34922e-06
5.37367e-05
9.31031e-07
3.85079e-05
0.000308339
-7.1624e-06
-5.97852e-06
-3.10568e-06
-3.49913e-06
-8.02483e-06
1.24203e-05
0.000156431
1.00886e-07
4.6417e-06
0.00019874
1.90877e-06
9.40088e-07
2.13815e-06
1.20236e-06
3.89902e-06
-1.29521e-07
6.97121e-07
-4.43663e-07
-4.2708e-07
1.03734e-06
-7.62831e-07
6.68738e-09
-6.30599e-08
2.68839e-09
-2.07143e-09
5.22668e-08
-2.26597e-05
-6.27346e-07
3.62831e-06
3.15154e-06
2.16028e-05
-5.09562e-06
-1.45448e-05
9.44726e-06
0.000310152
-3.62032e-06
-7.07353e-07
-1.40878e-06
3.89233e-07
8.90772e-06
1.12374e-05
1.11365e-05
-1.03468e-05
3.87701e-06
0.000275668
-9.45075e-06
-8.15927e-06
-6.68213e-06
2.71427e-06
3.3345e-06
2.80529e-06
-7.61242e-05
-5.58154e-06
3.00311e-06
7.29975e-05
-3.2574e-06
1.84672e-06
-1.10013e-06
2.47276e-06
-1.79513e-05
-1.85404e-06
1.82319e-06
2.74264e-05
-2.7758e-05
2.39014e-06
-5.72571e-06
2.03535e-06
3.29353e-05
-1.84433e-06
-3.2455e-06
3.90669e-06
1.179e-06
-5.01576e-06
-8.3225e-07
3.07377e-06
2.77674e-06
2.21153e-06
4.49274e-07
-8.4381e-07
-1.81239e-06
5.8254e-07
-9.1547e-09
-1.51976e-06
5.4896e-07
3.01956e-06
-2.62214e-06
-4.35256e-06
-6.01922e-06
-1.40631e-06
1.81538e-06
4.57468e-06
5.38802e-06
-3.49863e-05
-4.25367e-06
1.87401e-06
5.81151e-06
3.24878e-05
-9.33348e-07
-2.00123e-06
2.98975e-06
-3.815e-05
-1.84439e-06
6.19719e-06
3.28087e-05
2.17898e-05
4.73922e-05
0.000323864
-1.47249e-05
-6.77567e-06
-8.3112e-06
-5.87867e-06
-2.03545e-06
-4.53798e-06
-2.32479e-06
-2.56577e-06
1.37518e-05
1.71448e-05
0.000173229
-6.35592e-06
-6.69237e-06
-4.70148e-06
-5.41298e-06
1.30728e-06
1.00526e-05
3.88321e-05
-5.28318e-06
-3.86383e-07
-5.12995e-06
-1.83943e-06
7.51525e-07
1.02682e-06
3.25235e-07
-8.47655e-06
5.60702e-07
-5.43502e-07
2.83221e-06
6.93442e-06
4.40426e-07
-4.58065e-06
4.67698e-06
-4.1775e-06
5.40331e-06
-1.76256e-06
-4.90595e-07
-2.03665e-06
6.80434e-07
1.82588e-06
1.15974e-06
-5.17848e-05
-5.69119e-06
2.05383e-06
4.71159e-06
4.95509e-05
6.77439e-06
4.17946e-05
0.000321873
-4.82197e-06
-5.10724e-06
-2.40326e-06
-2.37922e-06
-1.50568e-06
1.00846e-05
0.000171771
-3.93537e-08
1.29367e-06
0.000198429
1.5689e-06
-7.43418e-08
1.13691e-06
6.079e-07
3.08022e-06
1.2841e-06
-1.07696e-06
-4.13335e-07
-1.84874e-07
-2.04595e-06
3.68177e-06
-1.53794e-07
-4.13108e-06
1.06183e-06
-1.24721e-06
1.873e-06
2.59725e-06
-1.98978e-05
-6.07834e-07
1.62575e-06
2.12329e-06
1.98361e-05
-3.07957e-06
-1.6001e-05
9.16083e-06
0.000327917
-2.24886e-06
1.12517e-06
-4.7458e-07
2.51602e-06
9.58624e-06
9.82427e-06
1.0542e-05
-1.00809e-05
1.96171e-06
0.000283036
-3.74256e-06
-7.04803e-06
-3.02516e-06
2.531e-06
2.57483e-06
3.54459e-06
-7.2939e-05
-5.66128e-06
1.19861e-06
6.86145e-05
-1.06371e-06
2.34787e-08
-6.32258e-07
3.24847e-07
1.33002e-06
1.86038e-07
-6.09916e-07
8.0627e-07
-4.43437e-07
-3.66842e-05
1.25403e-06
1.79022e-06
4.2799e-05
-3.79204e-05
2.80664e-07
-1.36241e-06
-6.38335e-08
4.10277e-05
-4.24391e-07
-1.47036e-06
1.30478e-06
5.57652e-07
-8.78257e-07
5.25823e-07
4.9561e-07
-1.43547e-07
1.16053e-06
-3.05156e-07
-3.03637e-07
-5.73286e-07
-1.6079e-06
2.65106e-07
3.43423e-06
-9.08106e-07
2.40418e-06
-3.58751e-06
-2.10709e-06
-5.47655e-06
2.14331e-06
-1.63361e-06
1.92151e-06
5.15242e-06
-2.85321e-05
-4.15735e-06
3.13235e-06
6.176e-06
2.35586e-05
-1.7751e-07
-1.07345e-06
7.67867e-07
-2.65277e-05
1.07212e-06
5.25234e-06
2.05088e-05
1.43616e-05
4.28612e-05
0.000307501
-6.93099e-06
-7.34015e-06
-7.95522e-06
-6.32032e-06
-2.55058e-06
-3.69893e-06
-3.18602e-06
-2.87678e-06
1.3181e-05
1.79516e-05
0.000174363
-4.81012e-06
-5.56881e-06
-3.16573e-06
-4.36078e-06
1.99553e-06
1.41808e-05
5.00981e-05
-6.50747e-06
-3.49943e-06
-5.97697e-06
-3.68127e-06
1.24949e-06
2.46948e-06
1.68492e-06
-7.76033e-06
-4.56714e-06
2.46181e-07
5.64098e-06
8.43585e-06
4.68279e-06
-5.57083e-07
6.61304e-07
-6.07263e-07
2.16609e-06
-6.34584e-06
-3.08226e-06
-2.23742e-06
1.28768e-06
4.03154e-06
7.3853e-07
-4.97021e-05
-6.80362e-06
1.39618e-06
4.79029e-06
4.95808e-05
7.74637e-06
3.94785e-05
0.000328762
-3.59315e-06
-4.19917e-06
-1.44899e-06
-2.01122e-06
2.81236e-06
1.12748e-05
0.000183382
1.37691e-06
2.32951e-06
0.000195248
2.04229e-06
1.79299e-06
2.04777e-06
2.59214e-06
4.72934e-06
3.26296e-06
-5.35708e-06
-4.53055e-06
8.80934e-07
2.69517e-06
7.68844e-06
-4.40047e-06
-1.92913e-06
-4.29717e-07
7.20062e-07
5.89073e-07
5.45018e-06
-2.13826e-05
-6.91523e-07
4.68947e-07
3.38415e-07
2.36356e-05
-2.36875e-06
-1.55722e-05
8.90687e-06
0.000339352
-1.51879e-06
2.88e-06
3.44495e-07
3.64959e-06
9.77601e-06
9.29594e-06
1.02815e-05
-8.02242e-06
1.5214e-06
0.000284785
-2.2018e-06
-5.18681e-06
-1.94967e-06
3.39862e-06
2.10999e-06
4.28403e-06
-6.66866e-05
-3.50977e-06
2.74636e-06
6.17571e-05
-1.64152e-06
-1.19716e-06
1.52394e-06
-1.20866e-06
2.51867e-06
-3.70572e-07
-4.12003e-07
5.10787e-07
-5.88564e-07
8.60569e-07
-4.77977e-05
3.60914e-06
1.5523e-06
5.15436e-05
-4.49647e-05
-1.45067e-06
2.69554e-06
-1.80075e-06
4.7042e-05
-9.71722e-07
-6.11456e-07
-8.52254e-07
2.43687e-06
5.85693e-07
8.87903e-07
-7.34957e-07
-7.38639e-07
1.19021e-06
-1.59266e-06
2.88274e-06
-2.48022e-06
-1.40391e-06
1.04616e-06
4.3625e-06
-1.73996e-06
2.65572e-06
-4.92052e-06
-6.70427e-09
-4.68438e-06
1.84852e-06
-1.75563e-06
6.49216e-07
3.94897e-06
-1.78859e-05
-5.17899e-07
9.70773e-07
3.15276e-06
1.31428e-05
1.13748e-06
-3.83689e-06
3.72482e-07
-1.59575e-05
1.75619e-06
4.82446e-06
1.28412e-05
1.17759e-05
4.12152e-05
0.000294437
-7.16898e-06
-7.15383e-06
-6.33867e-06
-6.60145e-06
-3.15353e-06
-4.15568e-06
-2.65816e-06
-2.69723e-06
1.00018e-05
1.86846e-05
0.000171763
-3.87435e-06
-4.14007e-06
-3.12357e-06
-3.1723e-06
2.27246e-06
1.45043e-05
5.86088e-05
-5.43615e-06
-3.58865e-06
-3.68853e-06
-4.08398e-06
9.46537e-07
3.34162e-07
2.31016e-07
-1.34417e-05
-3.98567e-06
2.86622e-06
5.77554e-06
1.1058e-05
7.72231e-06
-1.18458e-09
-3.2084e-07
-3.46596e-06
-3.93433e-06
-4.86612e-06
-8.9522e-07
2.42345e-07
5.519e-06
1.76394e-07
-4.9039e-05
-4.84791e-06
1.41004e-06
3.74763e-06
4.85529e-05
8.09913e-06
3.70558e-05
0.000333225
-2.98115e-06
-3.50507e-06
-7.3547e-07
-1.1803e-06
3.66547e-06
1.44343e-05
0.000192066
1.12776e-06
3.64113e-06
0.000194032
1.38261e-06
1.67469e-07
-5.04464e-07
4.1218e-06
5.5627e-06
3.88721e-06
-9.39636e-06
-5.25834e-06
9.28564e-07
4.6378e-06
1.02161e-05
-6.05516e-06
3.25202e-06
-8.66277e-07
8.59865e-07
-1.63288e-06
4.44244e-06
-2.66246e-05
7.46124e-07
-1.04265e-06
-1.79898e-06
3.02758e-05
-1.55571e-06
-1.29941e-05
8.56714e-06
0.000344474
-9.29874e-07
3.89491e-06
1.14184e-06
4.43324e-06
9.20704e-06
8.73663e-06
9.87697e-06
-6.52961e-06
1.53438e-06
0.000288082
-1.51122e-06
-4.03033e-06
-9.894e-07
3.59054e-06
2.24542e-06
3.83399e-06
-6.15025e-05
-3.27806e-06
3.38371e-06
5.85083e-05
-3.87006e-06
-5.94065e-06
3.34694e-06
6.46377e-06
-5.52717e-05
3.90059e-06
1.90268e-06
5.80356e-05
-5.04797e-05
-2.63541e-06
3.67478e-06
-2.31968e-06
5.32944e-05
-5.05792e-06
2.03823e-07
-3.56689e-06
8.42162e-06
8.47322e-07
7.37113e-07
-6.74266e-07
-9.10169e-07
3.78729e-06
-1.65263e-06
2.23864e-06
-4.3733e-06
-1.0993e-06
9.26524e-07
5.7902e-06
-7.77538e-07
1.86016e-06
-6.70006e-06
-3.21322e-07
-2.71891e-06
8.55557e-07
-4.44295e-07
9.98408e-07
1.63056e-06
-1.05856e-05
9.29767e-07
-1.07394e-06
1.24734e-06
9.04019e-06
4.42232e-07
-3.20384e-06
1.79295e-07
-1.06666e-05
6.60125e-07
4.14278e-06
8.88826e-06
7.60653e-06
3.75591e-05
0.000272197
-4.32206e-06
-4.92264e-06
-2.69851e-06
-2.70353e-06
-1.86685e-06
-3.51099e-06
-6.72726e-07
-2.22839e-06
5.6953e-06
1.85782e-05
0.000165169
-3.03554e-06
-3.52079e-06
-1.32824e-06
-2.18871e-06
-1.21863e-06
1.24728e-05
6.66293e-05
-3.04085e-06
-3.36813e-06
-1.75141e-06
-2.31385e-06
-1.66932e-06
-7.83295e-07
-6.52475e-07
-1.06045e-05
-4.81623e-06
2.84844e-06
1.13536e-05
-6.05293e-06
-1.03127e-07
-3.20362e-07
6.47642e-06
1.64686e-07
-4.88259e-05
-4.22368e-06
8.85685e-07
3.22229e-06
4.87769e-05
7.21171e-06
3.51533e-05
0.000333733
-2.23194e-06
-2.64455e-06
-1.22023e-07
-3.1554e-07
4.35996e-06
1.24358e-05
0.00020106
-1.35983e-06
3.78002e-06
0.000196624
-1.27662e-06
-1.98329e-07
-3.35674e-08
3.61177e-06
5.8463e-06
3.87085e-06
-1.49008e-05
-2.37611e-06
-2.69926e-06
2.94137e-06
1.56749e-05
-3.43214e-05
2.71907e-06
-2.28908e-06
-3.72129e-06
3.8389e-05
-7.76252e-07
-1.19718e-05
8.1058e-06
0.00034666
-4.13165e-07
4.44879e-06
1.75942e-06
4.82958e-06
8.85751e-06
8.14526e-06
9.20564e-06
-5.6445e-06
1.22736e-06
0.000290504
-9.81695e-07
-3.02061e-06
-5.81317e-07
2.88392e-06
1.50849e-06
2.65023e-06
-5.92334e-05
-2.69609e-06
3.45307e-06
5.6612e-05
-8.40742e-06
-2.44174e-06
3.07593e-06
7.77323e-06
-6.07356e-05
4.04478e-06
2.1224e-06
6.26743e-05
-5.72063e-05
-3.34133e-06
4.27407e-06
-2.76883e-06
6.02697e-05
-1.14447e-05
1.17314e-06
-4.17596e-06
1.44475e-05
9.04772e-07
7.742e-07
-8.60937e-07
-8.18036e-07
4.69031e-06
-1.19926e-06
2.00644e-06
-5.49748e-06
-5.86747e-07
7.30626e-07
6.56178e-06
-6.74711e-07
9.74784e-07
-7.00573e-06
-1.54017e-07
-1.18147e-06
3.20356e-07
2.30592e-07
-1.17176e-07
9.01715e-07
-8.21543e-06
1.00039e-06
-8.08669e-08
5.20569e-07
7.03049e-06
-2.55159e-07
-1.97585e-06
2.3867e-06
-8.05996e-06
-2.98057e-06
3.20431e-06
7.42537e-06
6.20477e-06
3.78967e-05
0.000244971
-3.40258e-06
-2.91962e-06
-2.80373e-06
-2.35555e-06
-1.19767e-07
-3.49272e-06
2.46196e-07
-2.02702e-06
4.41664e-06
2.04776e-05
0.000153441
-1.37659e-06
-2.58316e-06
-8.71485e-07
-2.12996e-06
-1.13467e-06
8.05468e-06
7.06881e-05
-1.38428e-06
-1.43308e-06
-9.16508e-07
-1.03973e-06
-2.44376e-07
-1.36714e-06
-1.77117e-07
-1.09969e-05
-2.62187e-06
2.15796e-06
1.03262e-05
-6.83889e-06
3.84743e-07
-7.26301e-07
7.18045e-06
-1.59582e-07
-4.8848e-05
-3.57758e-06
5.66574e-07
3.49898e-06
4.85196e-05
8.84039e-06
3.46898e-05
0.000331235
-1.87287e-06
-1.88107e-06
1.51536e-07
4.66266e-07
8.95469e-06
1.2306e-05
0.000209117
1.37645e-06
3.77684e-06
0.000192621
1.11209e-06
1.68097e-06
1.35177e-06
3.27815e-06
5.50892e-06
2.92669e-06
-1.65703e-05
-1.45527e-06
-3.50218e-07
8.69672e-07
1.88826e-05
-4.23389e-05
5.50241e-06
-3.27285e-06
-5.45342e-06
4.60128e-05
-4.4998e-07
-1.00315e-05
7.61916e-06
0.000347837
-3.37475e-09
4.69065e-06
2.16683e-06
4.93828e-06
8.17153e-06
7.57265e-06
8.38846e-06
-4.40742e-06
7.71419e-07
0.000293905
-3.21196e-07
-1.95463e-06
1.76716e-07
1.88991e-06
1.13474e-06
1.58369e-06
-5.79856e-05
-1.29182e-06
2.66131e-06
5.59855e-05
-7.85493e-06
-9.2158e-07
8.24587e-07
7.95192e-06
-6.46205e-05
4.07371e-06
2.19194e-06
6.5974e-05
-6.38207e-05
-3.97891e-06
5.1289e-06
-3.12568e-06
6.65678e-05
-1.69032e-05
2.27529e-06
-4.58841e-06
1.92163e-05
7.3069e-07
6.24408e-07
-6.33916e-07
-7.21183e-07
5.8568e-06
-6.32483e-07
7.53409e-07
-5.97773e-06
-1.70224e-07
9.84385e-07
7.17344e-06
-8.95997e-07
-1.2235e-07
-6.96925e-06
1.56564e-08
-8.17932e-07
6.55206e-07
-4.84126e-07
-2.06797e-07
8.37991e-07
-5.68561e-06
3.80894e-07
2.94949e-08
7.91217e-07
4.2178e-06
2.66206e-07
3.68227e-07
3.115e-07
-6.39006e-06
-1.22073e-06
1.23411e-06
5.69695e-06
3.94862e-06
3.25143e-05
0.000214237
-1.5229e-06
-8.88966e-07
-1.297e-06
-8.08365e-07
1.09584e-06
-2.2977e-06
1.65009e-06
-1.66076e-06
6.45124e-06
1.66872e-05
0.000139466
-8.46575e-07
-2.01251e-06
-8.90038e-07
-1.46585e-06
-2.23435e-07
5.67067e-06
7.19316e-05
-1.1275e-06
-1.71461e-07
-5.52463e-07
1.20976e-06
1.73014e-07
2.05223e-07
2.40181e-08
-9.09551e-06
1.10052e-06
-4.48382e-07
8.21994e-06
-7.39592e-06
9.05901e-07
-1.01573e-06
7.50574e-06
4.20754e-08
-4.82023e-05
-3.18974e-06
-4.618e-08
3.47502e-06
4.79211e-05
9.73142e-06
3.28105e-05
0.000322783
-1.6109e-06
-1.39322e-06
4.46244e-07
9.82484e-07
9.82488e-06
1.04845e-05
0.000215226
1.89765e-06
3.59433e-06
0.000188035
1.23661e-06
2.05699e-06
1.26129e-06
2.52575e-06
5.38599e-06
2.12302e-06
-2.14152e-05
-3.24691e-07
4.09766e-07
-3.16872e-07
2.35446e-05
-4.94699e-05
7.0872e-06
-3.68192e-06
-6.31945e-06
5.2782e-05
-3.9798e-07
-7.85963e-06
7.16341e-06
0.000347024
1.35695e-07
4.50733e-06
2.20694e-06
4.5798e-06
7.72631e-06
7.0749e-06
8.08851e-06
-3.79412e-06
6.39046e-07
0.000296717
4.88653e-07
-1.46538e-06
9.53552e-07
1.15312e-06
9.85695e-07
8.52496e-07
-5.78412e-05
-3.64823e-07
1.86165e-06
5.61446e-05
-8.17401e-06
-7.19402e-08
-6.24156e-07
8.8701e-06
-6.73748e-05
3.91903e-06
2.2798e-06
6.83393e-05
-6.95754e-05
-4.41352e-06
5.86522e-06
-3.25596e-06
7.20187e-05
-2.09696e-05
3.30313e-06
-4.96693e-06
2.26334e-05
8.47489e-07
2.49275e-07
-1.37119e-07
-9.59645e-07
5.70245e-06
-3.20736e-07
-1.16059e-07
-5.26566e-06
1.02706e-07
5.23246e-07
6.79728e-06
-3.99161e-07
-7.3309e-07
-6.29098e-06
-9.40964e-08
-7.81329e-07
1.4848e-07
-2.58145e-07
3.94121e-07
5.90968e-07
-3.64486e-06
-1.56277e-07
-1.36911e-06
2.69464e-07
4.3653e-06
5.35484e-07
1.34734e-06
-8.11005e-07
-5.8691e-06
-2.33019e-06
5.94267e-07
7.06869e-06
3.55766e-06
3.66404e-05
0.00017134
-8.96464e-07
9.70355e-08
-1.21634e-06
2.78605e-08
3.32784e-06
-2.03853e-06
4.30864e-06
-9.11072e-07
1.17793e-05
1.70916e-05
0.000120161
-1.44185e-06
-1.77209e-06
-1.33739e-06
-1.45711e-06
1.10612e-06
7.13736e-06
6.87701e-05
-6.38046e-07
1.65598e-06
1.28165e-07
2.12154e-06
8.76826e-07
1.29757e-06
1.25521e-06
-7.82363e-06
3.19292e-06
-2.67219e-06
8.40901e-06
-7.46247e-06
1.89739e-06
-1.80207e-06
7.36715e-06
1.23928e-06
-4.76579e-05
-3.27946e-06
-7.14017e-07
3.33945e-06
4.70726e-05
9.80794e-06
3.12032e-05
0.000318205
-1.18125e-06
-9.17037e-07
8.47739e-07
1.45833e-06
1.00633e-05
8.45892e-06
0.000223604
2.34708e-06
3.58995e-06
0.00018488
1.5078e-06
2.40781e-06
1.79206e-06
1.77531e-06
5.43385e-06
1.50216e-06
-2.51951e-05
8.3676e-07
1.76982e-06
-1.64822e-06
2.65839e-05
-5.60404e-05
8.04906e-06
-3.85337e-06
-6.9021e-06
5.90273e-05
-2.80415e-07
-6.7439e-06
6.71836e-06
0.000345883
2.1182e-07
4.07416e-06
2.31663e-06
4.07004e-06
7.39942e-06
6.59976e-06
7.698e-06
-3.42471e-06
3.15737e-07
0.00029891
1.04602e-06
-1.1106e-06
1.42468e-06
4.53274e-07
6.3242e-07
1.85088e-07
-5.81851e-05
4.04509e-07
1.40356e-06
5.65423e-05
-9.79931e-06
1.07227e-06
-2.1822e-06
1.09092e-05
-6.93655e-05
3.58389e-06
2.43389e-06
7.00661e-05
-7.47199e-05
-4.67651e-06
6.4165e-06
-3.43837e-06
7.6734e-05
-2.38232e-05
4.05287e-06
-5.2172e-06
2.49876e-05
1.03307e-06
1.31401e-07
-1.36721e-07
-1.02775e-06
4.80559e-06
1.78062e-07
-5.20633e-07
-4.46302e-06
2.16768e-07
-1.71083e-07
6.14576e-06
2.77927e-07
-6.74313e-07
-5.79505e-06
-1.57236e-07
-5.24687e-07
-2.87811e-07
-1.81642e-07
6.80894e-07
4.70482e-07
-6.10051e-06
4.42394e-07
-2.81284e-06
-8.51666e-07
8.24183e-06
1.0808e-06
1.80275e-06
1.19205e-06
-8.77375e-06
-6.14721e-06
3.56076e-07
1.15701e-05
8.03933e-06
3.72292e-05
0.00011782
-7.77781e-07
-1.88778e-07
-1.41246e-06
-5.64776e-07
4.53312e-06
-3.01458e-07
3.98223e-06
2.98146e-06
1.99925e-05
2.11478e-05
9.53462e-05
-2.12992e-06
-2.16176e-06
-2.0088e-06
-1.98535e-06
2.24758e-06
7.50315e-06
6.62077e-05
8.31549e-08
2.10808e-06
5.00982e-07
2.31949e-06
2.1936e-06
2.60991e-06
2.98895e-06
-9.02385e-06
4.05358e-06
-3.05546e-06
1.02733e-05
-7.76773e-06
3.53128e-06
-4.58922e-06
8.82568e-06
3.2088e-06
-4.61307e-05
-4.06717e-06
-1.36149e-06
3.8103e-06
4.45403e-05
1.21977e-05
2.95533e-05
0.000313149
-9.04656e-07
-8.13587e-07
9.37625e-07
1.31431e-06
1.34349e-05
8.74268e-06
0.000234771
2.69266e-06
3.38324e-06
0.000185575
2.25421e-06
2.64277e-06
2.49665e-06
9.48907e-07
5.09324e-06
7.30928e-07
-2.83519e-05
1.26981e-06
1.95087e-06
-2.61728e-06
3.04412e-05
-6.18833e-05
8.54098e-06
-3.82267e-06
-6.80112e-06
6.42799e-05
-3.13813e-07
-4.82638e-06
6.28191e-06
0.000344284
1.69599e-07
3.50938e-06
2.19939e-06
3.47271e-06
6.96141e-06
6.17854e-06
7.20583e-06
-2.82807e-06
1.74403e-07
0.000302022
1.57766e-06
-5.24447e-07
1.91968e-06
8.49348e-08
5.27058e-07
-1.27252e-07
-5.86727e-05
9.83102e-07
1.09578e-06
5.7149e-05
-1.20412e-05
1.90481e-06
-3.19432e-06
1.33307e-05
-7.08411e-05
3.19261e-06
2.56307e-06
7.13673e-05
-7.90033e-05
-4.81087e-06
6.83015e-06
-3.56163e-06
8.07201e-05
-2.57514e-05
4.53174e-06
-5.38902e-06
2.66087e-05
1.09398e-06
1.34254e-07
-8.73866e-08
-1.14084e-06
4.31507e-06
7.30674e-07
-7.78917e-07
-4.26682e-06
-1.0239e-07
-7.27086e-07
5.58087e-06
5.82615e-07
-9.30489e-09
-5.3247e-06
-1.60051e-07
-5.88439e-07
-2.58373e-07
-3.20267e-07
4.93694e-07
8.33433e-07
-1.03198e-05
1.91694e-06
-3.69104e-06
-1.7235e-06
1.21885e-05
1.62891e-06
1.80518e-06
-1.26537e-06
-1.47599e-05
-2.44525e-06
-7.82542e-07
1.74479e-05
1.2555e-05
2.5413e-05
6.5639e-05
-2.4685e-07
-1.92341e-07
-4.00799e-07
-3.06838e-07
2.75549e-06
4.73248e-06
2.28894e-06
5.5831e-06
2.84796e-05
1.27378e-05
7.00451e-05
-1.01597e-06
-7.76219e-07
-9.39013e-07
-6.30122e-07
3.30169e-06
5.71969e-06
6.78431e-05
6.05686e-07
2.69083e-06
8.44961e-07
3.00039e-06
3.3394e-06
3.47196e-06
3.86956e-06
-1.14013e-05
4.26733e-06
-2.65105e-06
1.30867e-05
-1.0189e-05
4.29304e-06
-5.49708e-06
1.1393e-05
3.66114e-06
-4.26278e-05
-3.66957e-06
-2.07966e-06
4.23128e-06
4.04846e-05
1.27266e-05
2.81558e-05
0.00029685
-4.35543e-07
-1.00368e-06
1.35524e-06
9.13375e-07
1.36461e-05
6.25577e-06
0.000240334
2.64328e-06
2.76368e-06
0.000187964
2.52701e-06
2.39795e-06
2.4936e-06
1.35284e-07
4.22796e-06
-2.11623e-07
-3.31551e-05
1.53875e-06
1.98801e-06
-3.48962e-06
3.57612e-05
-6.66012e-05
8.58589e-06
-3.57131e-06
-6.29117e-06
6.84687e-05
-5.90913e-07
-2.52465e-06
5.89332e-06
0.000342347
-3.62918e-08
2.88403e-06
2.01347e-06
2.89596e-06
6.47918e-06
5.77979e-06
6.7084e-06
-2.19543e-06
-1.56495e-08
0.000303719
2.03296e-06
1.36199e-07
2.34764e-06
-2.51495e-07
3.44597e-07
-3.64401e-07
-5.9422e-05
1.36444e-06
7.44692e-07
5.78812e-05
-1.45881e-05
2.55637e-06
-3.73376e-06
1.57655e-05
-7.19624e-05
2.79702e-06
2.7275e-06
7.23312e-05
-8.26644e-05
-4.90042e-06
7.09401e-06
-3.55143e-06
8.40066e-05
-2.72109e-05
4.77343e-06
-5.49545e-06
2.79329e-05
1.2336e-06
1.22331e-07
-6.27419e-08
-1.29319e-06
4.32952e-06
9.09732e-07
-7.74098e-07
-4.46516e-06
-2.98439e-07
-9.72275e-07
4.85231e-06
5.07805e-07
5.48139e-07
-4.63754e-06
-1.6145e-07
-1.19133e-06
7.15446e-08
-6.24405e-07
-6.34789e-08
1.96912e-06
-1.38147e-05
3.1103e-06
-4.53141e-06
-2.3018e-06
1.5391e-05
2.14669e-06
5.51697e-07
-2.43525e-06
-1.96785e-05
6.87003e-07
2.87584e-07
2.05875e-05
1.74065e-05
1.74778e-05
2.46128e-05
-3.29898e-07
-5.21298e-07
-3.53068e-07
-6.12639e-07
1.64959e-07
4.45634e-06
-2.68388e-07
3.60596e-06
3.11634e-05
1.46866e-06
4.78466e-05
1.2045e-06
1.96701e-06
1.12836e-06
2.67307e-06
3.5295e-06
6.07652e-07
7.34879e-05
1.40515e-06
3.97032e-06
1.74925e-06
4.03297e-06
3.36935e-06
3.37823e-06
3.47617e-06
-1.4866e-05
4.11736e-06
-2.79385e-06
1.7072e-05
-1.23195e-05
4.45001e-06
-5.13314e-06
1.30026e-05
3.32642e-06
-3.86247e-05
-2.54382e-06
-2.74512e-06
3.25756e-06
3.73296e-05
1.55387e-05
2.56726e-05
0.000271219
3.08625e-07
-1.05654e-06
1.92618e-06
7.19954e-07
1.4547e-05
4.4528e-06
0.000238342
2.21118e-06
2.11012e-06
0.000190322
2.35866e-06
1.9649e-06
2.12561e-06
-5.87393e-07
3.47289e-06
-8.59855e-07
-3.83574e-05
2.23853e-06
2.29077e-06
-4.19873e-06
4.0238e-05
-7.02728e-05
8.21328e-06
-3.35406e-06
-5.87953e-06
7.16379e-05
-3.44725e-07
-1.20112e-06
5.55441e-06
0.000338935
-4.98442e-08
2.46851e-06
2.06386e-06
2.58197e-06
5.93238e-06
5.5164e-06
6.21785e-06
-1.60661e-06
-3.3596e-07
0.000304375
2.33549e-06
7.71464e-07