/*--------------------------------*- C++ -*----------------------------------*\
| =========                 |                                                 |
| \\      /  F ield         | OpenFOAM: The Open Source CFD Toolbox           |
|  \\    /   O peration     | Version:  5.x                                   |
|   \\  /    A nd           | Web:      www.OpenFOAM.org                      |
|    \\/     M anipulation  |                                                 |
\*---------------------------------------------------------------------------*/
FoamFile
{
    version     2.0;
    format      ascii;
    class       volScalarField;
    location    "8";
    object      p;
}
// * * * * * * * * * * * * * * * * * * * * * * * * * * * * * * * * * * * * * //

dimensions      [0 2 -2 0 0 0 0];

internalField   nonuniform List<scalar> 
10571
(
214.838
221.108
228.471
220.854
203.581
230.115
223.285
214.971
201.878
183.319
214.449
216.547
214.827
211.848
204.357
185.527
192.586
207.981
210.665
202.01
183.273
203.239
208.872
196.763
76.5688
75.6875
79.4683
76.9636
78.1837
75.7743
15.3995
15.6784
15.7535
67.7793
70.6496
56.8547
21.2095
16.4312
19.4775
72.5794
53.1974
24.4008
26.1344
80.9228
78.1838
70.4136
74.7764
81.5778
1.74924
1.90568
1.73634
1.57167
2.03961
1.94923
1.4811
1.48323
1.5132
2.27126
2.03347
2.18577
1.57835
1.44048
1.70505
2.56786
2.64134
1.93485
2.04253
2.57649
2.56343
2.45764
2.33157
2.59371
2.36573
2.3565
2.39094
2.39382
2.46262
2.42872
2.776
2.77159
2.56923
2.5196
2.53426
2.50901
2.5302
2.57707
2.54784
2.50268
2.54264
2.57601
2.51059
2.52502
2.54451
2.48451
2.50202
2.52501
2.43943
2.44628
2.45107
2.44545
2.4486
2.46189
2.50037
2.47917
2.48903
2.44507
2.47176
2.46508
2.51466
2.36325
2.43905
2.45112
2.47137
2.50791
2.45212
2.45023
2.44158
2.42443
2.40334
2.46052
2.43005
2.43871
2.44441
2.42709
2.4387
2.43054
2.45243
2.42635
2.47307
2.4434
2.45928
2.43335
2.41893
2.44497
2.3743
2.43329
2.44005
2.45185
2.45269
2.44426
2.42853
2.43614
2.433
2.43802
2.40616
2.42668
2.41764
2.4226
2.43152
2.40866
2.42038
2.40468
2.46249
2.4344
2.4934
2.45702
2.45716
2.40384
2.38577
2.43777
2.40929
2.4495
2.45048
2.45646
2.43174
2.42461
2.4199
2.43366
2.4471
2.45428
2.43955
2.40962
2.42239
2.42192
2.41487
2.42879
2.40823
2.43253
2.39243
2.45071
2.42923
2.49633
2.44845
2.45373
2.38387
2.34623
2.44228
2.42422
2.45214
2.44825
2.45518
2.40332
2.41894
2.41232
2.42522
2.43959
2.45083
2.42705
2.41984
2.42253
2.43238
2.41539
2.42944
2.42993
2.44061
2.39635
2.43612
2.42638
2.47163
2.44305
2.46295
2.3835
2.35404
2.43139
2.42385
2.43895
2.43934
2.46131
2.38575
2.42067
2.41222
2.41446
2.42883
2.41846
2.42745
2.42209
2.43279
2.4185
2.42624
2.43201
2.43626
2.41307
2.42477
2.42209
2.43832
2.42486
2.40622
2.40427
2.40822
2.41438
2.40752
2.42615
2.3989
2.42957
2.42173
2.40073
2.41888
2.42107
2.42787
2.42178
2.42942
2.42513
2.42298
2.42728
2.43436
2.43216
2.41369
2.41739
2.41942
2.42309
2.43452
2.44617
2.40127
2.40936
2.38926
2.41643
2.42026
2.44298
2.43528
2.40582
2.41818
2.42659
2.4283
2.42655
2.42694
2.43027
2.41864
2.42375
2.43461
2.44077
2.40697
2.41234
2.41877
2.42486
2.44765
2.46363
2.41377
2.41958
2.39996
2.41788
2.43909
2.44823
2.44352
2.42711
2.42874
2.43463
2.43192
2.43647
2.42645
2.43103
2.41781
2.42182
2.43163
2.43671
2.40066
2.41376
2.42204
2.43
2.44843
2.45744
2.42784
2.43625
2.42183
2.4292
2.44467
2.44297
2.44745
2.44527
2.44321
2.44036
2.43962
2.44676
2.43218
2.43321
2.42894
2.4277
2.43136
2.43146
2.39931
2.42488
2.42613
2.43738
2.44532
2.44536
2.43158
2.44736
2.44369
2.44184
2.44368
2.43831
2.44931
2.45407
2.45271
2.44371
2.44648
2.45377
2.44017
2.43931
2.44278
2.43757
2.43484
2.43545
2.4237
2.4364
2.43283
2.44459
2.44404
2.43902
2.4363
2.45509
2.46056
2.45263
2.44257
2.44122
2.45552
2.45768
2.45884
2.44856
2.4537
2.45903
2.44952
2.44856
2.4526
2.44839
2.44216
2.4455
2.45014
2.44594
2.44063
2.45122
2.44829
2.44029
2.45262
2.46433
2.4723
2.46147
2.44726
2.44862
2.46816
2.46075
2.46418
2.45624
2.46238
2.46427
2.4608
2.45947
2.4629
2.45817
2.45482
2.45605
2.47108
2.45572
2.4472
2.45799
2.45803
2.45036
2.46777
2.47321
2.47665
2.46803
2.45694
2.45681
2.47987
2.46638
2.46956
2.46447
2.47053
2.46981
2.4714
2.46946
2.47285
2.4697
2.47013
2.46684
2.48877
2.46822
2.4593
2.46634
2.46946
2.46481
2.47738
2.47793
2.47819
2.47328
2.46857
2.46391
2.47937
2.47046
2.47516
2.47114
2.474
2.47333
2.47884
2.47615
2.47848
2.48091
2.48153
2.47533
2.49186
2.48171
2.47274
2.47619
2.47984
2.47686
2.49155
2.48224
2.48217
2.47885
2.47935
2.46948
2.47687
2.47507
2.48153
2.47674
2.47657
2.47719
2.48515
2.48094
2.48189
2.48651
2.48614
2.47889
2.48454
2.4917
2.4807
2.48416
2.48938
2.48606
2.50116
2.4913
2.48829
2.48452
2.48819
2.48029
2.48148
2.48115
2.48951
2.48436
2.48286
2.48453
2.48987
2.48543
2.48373
2.49404
2.48955
2.48228
2.47495
2.49398
2.48061
2.48847
2.49362
2.48938
2.50206
2.49868
2.4923
2.48966
2.49438
2.49211
2.48927
2.48799
2.49814
2.49173
2.48986
2.49298
2.49658
2.49082
2.48392
2.49523
2.48864
2.48616
2.46943
2.49317
2.47817
2.49053
2.49219
2.48771
2.50199
2.49943
2.49534
2.49467
2.49861
2.50061
2.49651
2.49734
2.50399
2.49842
2.49524
2.49835
2.49449
2.49476
2.48304
2.49052
2.48562
2.49056
2.47205
2.486
2.47865
2.49188
2.49115
2.48509
2.50585
2.49658
2.5004
2.49867
2.49991
2.50645
2.49896
2.50035
2.50395
2.50395
2.49768
2.49931
2.4913
2.49824
2.48708
2.48763
2.48888
2.49463
2.48154
2.48098
2.48239
2.49357
2.49211
2.48507
2.50528
2.49663
2.50307
2.50118
2.499
2.50909
2.50359
2.49984
2.50273
2.50291
2.49908
2.50209
2.4932
2.50019
2.49348
2.49005
2.49524
2.49738
2.49033
2.48553
2.48978
2.49597
2.49487
2.48922
2.50259
2.50197
2.50416
2.50337
2.49674
2.50577
2.50825
2.50467
2.50435
2.50101
2.49977
2.50432
2.4975
2.50161
2.4991
2.49541
2.50088
2.50002
2.4933
2.49277
2.4955
2.49835
2.49681
2.49427
2.50105
2.50482
2.50198
2.50407
2.49679
2.49998
2.50689
2.50705
2.50514
2.50015
2.50261
2.51138
2.50151
2.50246
2.50082
2.50024
2.50331
2.50677
2.49059
2.49617
2.49889
2.50045
2.49887
2.49898
2.49907
2.50482
2.50012
2.5036
2.49815
2.49435
2.5046
2.50433
2.50364
2.49608
2.49887
2.50962
2.50355
2.5016
2.50026
2.50276
2.50323
2.50831
2.49057
2.49686
2.5028
2.50161
2.50133
2.50322
2.49716
2.50359
2.4986
2.5026
2.50006
2.4895
2.49765
2.4999
2.50142
2.487
2.49029
2.49961
2.50395
2.50038
2.49983
2.50298
2.50218
2.50092
2.48952
2.49559
2.50744
2.50247
2.5021
2.50174
2.49546
2.50112
2.49952
2.50185
2.50143
2.48643
2.49217
2.49694
2.50013
2.48278
2.49143
2.49611
2.5041
2.5011
2.5006
2.50362
2.50186
2.49893
2.48976
2.49567
2.51064
2.50255
2.50174
2.50083
2.4942
2.49788
2.50148
2.50185
2.50262
2.49338
2.49648
2.49636
2.50076
2.49781
2.50429
2.49759
2.50523
2.50221
2.50446
2.50425
2.50318
2.49998
2.49411
2.49756
2.50822
2.50064
2.50139
2.5006
2.49428
2.49661
2.50241
2.50157
2.50297
2.49742
2.49683
2.49755
2.50247
2.50359
2.50731
2.49947
2.50763
2.50272
2.50283
2.50479
2.50462
2.50078
2.49785
2.50191
2.5024
2.49819
2.5013
2.50037
2.49464
2.49682
2.50106
2.50063
2.50255
2.49712
2.49448
2.49841
2.50284
2.50326
2.5057
2.50093
2.50991
2.50331
2.50366
2.50805
2.50673
2.50075
2.49817
2.50515
2.49846
2.49858
2.50121
2.50006
2.49525
2.49795
2.49875
2.50011
2.50165
2.49727
2.49692
2.49897
2.50158
2.5027
2.50322
2.5026
2.50812
2.50319
2.50475
2.51009
2.506
2.50083
2.49898
2.50393
2.49665
2.5012
2.50121
2.49973
2.49676
2.49866
2.49607
2.50162
2.50064
2.49898
2.49995
2.49923
2.50116
2.50301
2.50289
2.50336
2.50442
2.50231
2.50282
2.5047
2.50292
2.50127
2.50136
2.50138
2.4951
2.50133
2.50136
2.49981
2.49891
2.49951
2.49632
2.50225
2.5004
2.50145
2.50118
2.49952
2.50273
2.50404
2.50271
2.5028
2.50178
2.50141
2.49976
2.49961
2.49977
2.50184
2.50425
2.4996
2.49135
2.49977
2.50192
2.50091
2.50168
2.50053
2.49793
2.50087
2.50088
2.50355
2.50151
2.49892
2.50266
2.50523
2.50278
2.50108
2.50182
2.50124
2.49821
2.49626
2.498
2.5023
2.50803
2.49886
2.4901
2.49873
2.50313
2.50311
2.50442
2.50215
2.49863
2.50132
2.50219
2.50436
2.50213
2.49815
2.5011
2.5062
2.50357
2.50153
2.50326
2.5015
2.497
2.49987
2.49885
2.50258
2.50867
2.4994
2.49532
2.49992
2.50372
2.50349
2.50264
2.50296
2.50082
2.50271
2.50381
2.50429
2.50336
2.49977
2.5017
2.50627
2.50488
2.50371
2.50389
2.50188
2.49629
2.50032
2.50064
2.50211
2.50152
2.49871
2.50284
2.50237
2.5046
2.50355
2.504
2.5038
2.50369
2.50493
2.50511
2.50497
2.50466
2.50305
2.50423
2.50622
2.50687
2.50607
2.50389
2.5022
2.49574
2.49974
2.50346
2.5015
2.49729
2.4962
2.50901
2.50431
2.50548
2.5036
2.50414
2.50448
2.51016
2.50822
2.50465
2.5041
2.50578
2.50658
2.50704
2.50628
2.50803
2.50759
2.50531
2.50281
2.4971
2.49954
2.50577
2.5014
2.49567
2.49676
2.51142
2.50577
2.50411
2.50311
2.49952
2.50561
2.51397
2.50955
2.50324
2.50429
2.50617
2.50862
2.50843
2.50589
2.50794
2.50841
2.50763
2.50432
2.50065
2.50153
2.50579
2.50225
2.49661
2.50001
2.5098
2.50631
2.50117
2.50247
2.49651
2.5058
2.51088
2.50853
2.50398
2.50406
2.50612
2.50645
2.50691
2.50568
2.50726
2.50814
2.50779
2.50661
2.50433
2.50508
2.50321
2.50394
2.50062
2.50267
2.50826
2.50631
2.50136
2.5015
2.49597
2.50416
2.50644
2.50713
2.50528
2.50292
2.50559
2.50531
2.50529
2.50523
2.50643
2.50765
2.50781
2.50894
2.50682
2.5057
2.50392
2.50567
2.50583
2.50465
2.50802
2.50666
2.50302
2.50117
2.49792
2.50261
2.50383
2.50698
2.50523
2.50155
2.5066
2.50593
2.50774
2.50465
2.50633
2.50737
2.50743
2.51034
2.50911
2.50639
2.50557
2.5073
2.51033
2.50525
2.50807
2.50732
2.5046
2.50186
2.50244
2.50489
2.50526
2.50768
2.50555
2.50349
2.50873
2.50746
2.50876
2.5053
2.50756
2.50808
2.50796
2.51043
2.51006
2.50753
2.50646
2.50861
2.51317
2.5075
2.50843
2.50807
2.50656
2.50318
2.50793
2.50839
2.50801
2.50866
2.50713
2.50666
2.51188
2.51067
2.51049
2.50686
2.50963
2.51115
2.50936
2.50972
2.51006
2.50885
2.50696
2.50899
2.51306
2.50949
2.50877
2.5088
2.50836
2.50354
2.50983
2.51035
2.50902
2.50956
2.50945
2.50813
2.51467
2.51204
2.5118
2.50885
2.51183
2.5155
2.5105
2.50916
2.50983
2.50973
2.50766
2.5085
2.5115
2.51042
2.50928
2.50944
2.51044
2.50436
2.51062
2.51078
2.50929
2.51007
2.51077
2.50877
2.51339
2.51184
2.5116
2.51076
2.51325
2.51537
2.51094
2.50941
2.50962
2.51008
2.50864
2.50875
2.50999
2.51011
2.50946
2.50979
2.51338
2.50767
2.51151
2.51099
2.51032
2.51054
2.51136
2.50907
2.51167
2.51106
2.5115
2.51261
2.51391
2.51333
2.51103
2.51038
2.50963
2.5105
2.50949
2.50995
2.50885
2.50974
2.50907
2.51024
2.516
2.51196
2.51083
2.51127
2.5113
2.5111
2.51206
2.50892
2.50913
2.51062
2.5115
2.51216
2.51159
2.51184
2.51111
2.51153
2.51015
2.51071
2.50993
2.51185
2.50908
2.51029
2.50825
2.51048
2.51761
2.51551
2.50924
2.51144
2.51181
2.51162
2.51259
2.51032
2.50782
2.5103
2.5115
2.51091
2.50984
2.51092
2.51143
2.5128
2.51116
2.51089
2.5103
2.51321
2.50904
2.50985
2.50712
2.51087
2.51739
2.51763
2.51021
2.51068
2.51199
2.51183
2.51245
2.50979
2.50966
2.51025
2.51146
2.51017
2.50867
2.51041
2.51273
2.51331
2.51157
2.51175
2.51131
2.51366
2.51011
2.51078
2.50765
2.51126
2.51547
2.51686
2.51116
2.50907
2.51131
2.51169
2.5119
2.50929
2.50966
2.51045
2.51136
2.50935
2.50811
2.51054
2.5142
2.51371
2.5139
2.51348
2.51222
2.51302
2.51123
2.51314
2.50887
2.51112
2.51371
2.51451
2.51066
2.50819
2.50963
2.51074
2.51091
2.5101
2.50927
2.51067
2.51075
2.50928
2.50851
2.51097
2.51673
2.51323
2.51401
2.51439
2.51199
2.51189
2.51066
2.51231
2.50762
2.50988
2.51295
2.51292
2.50939
2.50737
2.50723
2.50894
2.51057
2.51011
2.50896
2.50988
2.50916
2.50875
2.50821
2.51066
2.51481
2.51274
2.51323
2.5132
2.5104
2.51085
2.50943
2.51098
2.50457
2.50712
2.51314
2.51265
2.50852
2.50608
2.50341
2.50542
2.51124
2.50957
2.50806
2.50734
2.50601
2.50842
2.50775
2.50895
2.51304
2.51282
2.51267
2.51144
2.50804
2.51046
2.50845
2.50958
2.50033
2.50213
2.51449
2.51308
2.50815
2.50435
2.49804
2.4999
2.51561
2.5106
2.50694
2.50353
2.50112
2.51069
2.50753
2.50609
2.51233
2.51405
2.51298
2.5101
2.50524
2.5112
2.50758
2.50583
2.49564
2.49428
2.51695
2.51441
2.50808
2.5013
2.49067
2.49045
2.51835
2.51269
2.50504
2.49827
2.49368
2.51302
2.50734
2.50273
2.51286
2.5177
2.51459
2.50961
2.50236
2.51446
2.5068
2.50137
2.4872
2.48208
2.52085
2.51734
2.50802
2.49629
2.47938
2.47445
2.52159
2.51503
2.50302
2.4916
2.48154
2.51521
2.50683
2.4992
2.51494
2.52367
2.51766
2.5102
2.49975
2.52118
2.50756
2.49562
2.47485
2.46153
2.52873
2.52367
2.5084
2.48972
2.45923
2.44166
2.52755
2.51855
2.50143
2.48177
2.4613
2.51925
2.50753
2.49555
2.5191
2.53136
2.52243
2.51212
2.49737
2.53091
2.50919
2.4885
2.44992
2.41628
2.53915
2.53305
2.51106
2.47974
2.42909
2.36673
2.5377
2.52521
2.50072
2.46927
2.42434
2.52719
2.51109
2.49327
2.52565
2.54034
2.52953
2.51582
2.49552
2.54153
2.51408
2.47782
2.41602
2.29909
2.55375
2.54662
2.51564
2.46698
2.38497
2.19581
2.55246
2.53572
2.50344
2.45309
2.35096
2.5401
2.51891
2.49419
2.53477
2.5504
2.53898
2.52184
2.49571
2.55235
2.5238
2.46842
2.37416
1.97154
2.56551
2.56048
2.52816
2.46082
2.34336
1.91126
-1.96251
2.56918
2.55062
2.5106
2.43886
2.18563
2.561
2.53309
2.50203
2.54641
2.56149
2.54954
2.53108
2.49565
2.56341
2.5375
2.47769
2.34907
1.76244
0.11748
2.57539
2.57175
2.54478
2.48241
2.33121
1.87281
0.0502661
2.58242
2.56853
2.52827
2.4473
2.00478
2.5822
2.55606
2.52478
2.56026
2.57388
2.56143
2.54574
2.50761
2.57492
2.55441
2.49798
2.37317
1.84264
0.411884
2.58527
2.58162
2.56289
2.51003
2.38515
1.89135
0.457725
2.59192
2.58365
2.55175
2.49068
2.20058
0.704014
2.59052
2.57948
2.56062
2.57601
2.58471
2.57471
2.56525
2.53915
2.58367
2.57284
2.53265
2.45314
2.02452
0.46477
2.59294
2.5893
2.58082
2.53999
2.47773
2.07714
0.39579
2.59849
2.59437
2.57536
2.53669
2.30214
2.59547
2.5911
2.59269
2.58761
2.59076
2.58468
2.5816
2.56873
2.5893
2.58347
2.57339
2.53738
2.26014
2.59506
2.59269
2.58988
2.57095
2.55819
2.26184
-0.84579
2.59989
2.59992
2.58779
2.57454
2.50576
2.5971
2.59117
2.59495
2.59195
2.59274
2.5882
2.58885
2.58451
2.59206
2.5878
2.58787
2.57728
2.53296
2.59504
2.59282
2.58927
2.58482
2.58756
2.53505
2.59821
2.60018
2.59236
2.58988
2.58554
2.59889
2.59308
2.60022
2.59133
2.59012
2.58758
2.58991
2.58775
2.5899
2.58741
2.58856
2.58031
2.5805
2.59281
2.59044
2.58637
2.58765
2.58701
2.58621
2.59511
2.59451
2.59275
2.59329
2.60057
2.59709
2.59319
2.60077
2.59041
2.59076
2.58869
2.58865
2.5867
2.59038
2.58861
2.58452
2.57797
2.58735
2.59205
2.58976
2.58626
2.58507
2.58585
2.59099
2.59222
2.59014
2.59045
2.59213
2.59987
2.5943
2.59387
2.59746
2.59201
2.59185
2.58996
2.58828
2.58383
2.59181
2.58728
2.57992
2.57325
2.58691
2.5925
2.59037
2.58438
2.58
2.58198
2.58919
2.5906
2.58548
2.58613
2.58919
2.59569
2.59133
2.59193
2.59437
2.59421
2.59301
2.59221
2.58947
2.58537
2.59276
2.58461
2.57568
2.57119
2.5865
2.59292
2.59041
2.58057
2.57292
2.57539
2.58655
2.58937
2.58095
2.57905
2.58528
2.59257
2.5873
2.58583
2.59033
2.59769
2.59511
2.59603
2.59135
2.58722
2.59358
2.58507
2.57389
2.57187
2.5885
2.59313
2.58994
2.57551
2.56279
2.57553
2.58871
2.58793
2.57425
2.57255
2.58106
2.59369
2.58019
2.57767
2.58823
2.60525
2.59805
2.60081
2.59537
2.59083
2.59434
2.59025
2.58153
2.58065
2.59462
2.59392
2.58943
2.57719
2.56547
2.57432
2.59935
2.58651
2.5735
2.56451
2.58227
2.60641
2.571
2.57272
2.59694
2.60982
2.5997
2.60276
2.60024
2.59787
2.59531
2.59552
2.58709
2.58613
2.60852
2.59608
2.58926
2.58061
2.57047
2.58389
2.61539
2.5857
2.5761
2.57126
2.59725
2.62866
2.57177
2.58406
2.62204
279.078
272.329
284.483
283.729
268.734
275.636
265.423
249.649
281.831
275.39
288.306
291.513
291.344
289.131
281.832
284.208
273.007
273.485
263.147
260.416
249.409
249.38
233.848
239.367
231.399
221.358
293.023
287.201
293.251
294.26
286.978
288.796
277.008
272.536
257.269
261.837
247.544
246.212
236.045
238.544
231.007
227.336
224.042
224.823
221.978
221.161
221.593
213.188
281.608
285.73
271.188
278.386
269.416
266.129
262.131
258.072
245.138
258.352
246.156
239.016
232.733
240.55
236.029
228.241
224.951
232.333
229.582
222.155
214.796
224.197
251.195
252.255
255.235
241.244
250.479
258.146
250.274
259.913
257.13
244.657
240.53
252.898
249.719
238.07
231.791
243.024
229.243
223.455
243.816
253.884
255.923
248.113
251.587
247.548
244.977
240.628
219.15
151.612
217.835
222.309
224.785
151.545
153.438
154.993
221.254
213.88
149.453
151.525
149.537
206.012
147.298
222.194
147.001
223.308
222.887
229.546
150.979
153.578
151.261
154.117
194.859
202.891
192.461
147.45
143.16
155.495
146.582
185.457
138.584
223.589
219.506
227.289
146.481
141.163
145.255
185.349
175.192
135.125
140.037
129.918
219.72
206.142
138.746
139.215
130.342
173.955
180.823
138.77
129.154
137.22
195.285
118.034
197.363
187.098
193.764
111.866
109.916
115.735
118.032
192.82
197.376
190.973
153.079
145.917
148.149
145.403
139.018
194.969
125.887
209.21
203.191
136.372
142.587
142.618
203.533
203.295
148.296
146.896
147.347
145.629
76.3015
3.41759
78.3619
78.0644
79.0706
4.10602
3.75497
4.52761
77.153
76.9463
5.30706
6.3853
7.20295
75.5896
6.24628
74.5239
5.55693
77.8039
77.3581
78.7435
4.03876
3.94499
5.56628
5.68561
76.1553
80.1919
77.1378
8.41439
7.10435
16.6485
11.4832
72.7247
11.6796
75.8149
72.6491
74.1434
7.62528
10.3138
10.5734
70.4903
67.2088
13.7015
16.871
20.9451
69.9002
66.2136
12.7774
14.9911
19.7761
70.2025
75.6446
20.211
23.0759
24.0566
60.7373
22.9269
14.6887
56.9039
47.8529
19.4757
3.55278
20.5937
13.28
81.1642
83.0299
82.011
20.9478
23.6277
24.7467
22.2954
22.3864
61.3015
19.0058
71.9869
71.7066
18.7921
14.5868
12.8546
76.9527
74.7172
16.5975
20.6163
14.0848
25.3127
1.86096
2.70586
1.73817
1.7312
1.78468
2.71079
2.72116
2.70913
1.8113
1.96767
2.64683
2.62354
2.60283
2.1187
2.5504
1.94256
2.67309
1.82766
1.89174
1.83839
2.69795
2.70693
2.67886
2.62542
2.17224
2.5654
2.35575
2.49116
2.49052
2.34192
2.40396
2.29842
2.40414
1.93073
1.98575
2.04108
2.65514
2.58217
2.57727
2.53598
2.88337
2.26731
2.21096
2.04978
2.18153
2.39028
2.53243
2.52415
2.58262
2.87011
2.75561
2.10545
1.98655
2.03567
2.67396
2.44413
5.46901
2.63088
3.38172
2.23882
3.2674
2.24255
2.26741
2.6135
2.6215
2.51627
2.2021
2.15983
2.18092
2.18107
2.14038
2.56221
2.33292
2.20269
2.12207
2.25848
2.28636
2.30037
2.52528
2.23863
2.27398
2.23582
2.27769
2.24457
2.3283
2.50947
2.35615
2.3685
2.35591
2.47123
2.48556
2.48608
2.37205
2.42314
2.45173
2.45507
2.47922
2.43452
2.475
2.39631
2.50487
2.37317
2.40129
2.39977
2.52051
2.50469
2.50458
2.47923
2.46469
2.47448
2.46788
2.48493
2.47883
2.42048
2.43771
2.48863
2.42366
2.44157
2.47349
2.47233
2.49226
2.47061
2.47299
2.49577
2.59217
2.38643
2.34081
2.42045
2.53912
2.67868
2.4782
2.4766
2.50911
2.58489
2.57048
2.3665
2.42637
2.39052
2.56326
2.44611
1.98185
2.55346
2.46424
2.39324
2.34301
2.39097
2.32751
2.53295
2.54246
2.53268
2.38186
2.3731
2.40913
2.39834
2.37848
2.46121
2.35728
2.46378
2.48194
2.40826
2.38995
2.4204
2.50643
2.50826
2.40305
2.39294
2.4302
2.37693
2.43839
2.45265
2.43453
2.44687
2.43147
2.43305
2.44822
2.43581
2.43858
2.44592
2.43491
2.43415
2.43781
2.44158
2.44357
2.45109
2.45338
2.44405
2.4462
2.43729
2.46128
2.45696
2.45513
2.44359
2.44648
2.41863
2.43423
2.45547
2.44829
2.39477
2.41669
2.43603
2.43627
2.46499
2.46412
2.46376
2.44861
2.44604
2.44886
2.48964
2.48043
2.4494
2.43349
2.40834
2.47036
2.49322
2.45334
2.4538
2.47636
2.45761
2.44036
2.42619
2.38895
2.43285
2.48469
2.46981
2.44629
2.49257
2.44542
2.45961
2.43207
2.44889
2.42616
2.45898
2.46721
2.46527
2.42491
2.41594
2.43167
2.42763
2.42408
2.43668
2.43852
2.39702
2.40216
2.43474
2.42628
2.42354
2.42466
2.40912
2.40546
2.3951
2.41121
2.41278
2.43696
2.43064
2.42874
2.4394
2.42543
2.42224
2.43098
2.41956
2.42817
2.41751
2.42159
2.41851
2.4007
2.42678
2.42
2.43481
2.42388
2.43569
2.43352
2.42911
2.43168
2.43023
2.42497
2.42187
2.43302
2.37107
2.41227
2.42716
2.42654
2.36369
2.40361
2.42845
2.42368
2.43166
2.43083
2.43455
2.41644
2.41621
2.42147
2.47235
2.45151
2.47853
2.44715
2.47343
2.44589
2.45433
2.4637
2.45376
2.46123
2.45967
2.46302
2.45759
2.45993
2.43462
2.45277
2.41644
2.41941
2.4329
2.48107
2.43445
2.44627
2.44552
2.44744
2.44325
2.45293
2.45944
2.4545
2.45902
2.4554
2.45786
2.45567
2.45836
2.45231
2.43902
2.43316
2.45212
2.43349
2.44389
2.43263
2.44597
2.43797
2.43122
2.44404
2.43869
2.4334
2.43394
2.42581
2.42972
2.43838
2.45074
2.44803
2.43982
2.43776
2.44166
2.43738
2.44289
2.39656
2.40979
2.40939
2.39697
2.40768
2.41395
2.42467
2.42082
2.41966
2.42695
2.41864
2.42022
2.42517
2.41953
2.41538
2.39902
2.41774
2.41686
2.40505
2.42114
2.4289
2.41375
2.4065
2.4222
2.4159
2.41577
2.41671
2.41607
2.40995
2.4107
2.42556
2.39052
2.4196
2.42229
2.43078
2.43358
2.43888
2.43196
2.45662
2.43795
2.45714
2.45634
2.4622
2.45403
2.46159
2.40514
2.40525
2.40962
2.397
2.3987
2.40062
2.47022
2.44897
2.45723
2.44991
2.46381
2.44949
2.45905
2.46203
2.45921
2.46098
2.4517
2.46044
2.45915
2.46155
2.40609
2.41721
2.39359
2.39409
2.40425
2.45341
2.45378
2.4545
2.44986
2.4534
2.44929
2.45144
2.45849
2.4555
2.45636
2.45627
2.45802
2.45297
2.45579
2.42652
2.41516
2.42007
2.43507
2.4328
2.41832
2.40633
2.42338
2.42445
2.44242
2.43383
2.43938
2.43114
2.43984
2.42595
2.43397
2.45368
2.44212
2.45177
2.45752
2.45149
2.45674
2.44111
2.43206
2.43382
2.43661
2.43309
2.43181
2.43695
2.40892
2.41222
2.41215
2.41509
2.41367
2.42018
2.42101
2.42069
2.42372
2.42665
2.4241
2.42754
2.42746
2.4288
2.42274
2.41861
2.42777
2.42945
2.43102
2.43747
2.4416
2.40612
2.40675
2.4151
2.40924
2.41136
2.41403
2.41316
2.40881
2.41024
2.43968
2.46192
2.45373
2.43876
2.44578
2.47214
2.46029
2.44281
2.45792
2.44065
2.45697
2.45451
2.46114
2.45806
2.46161
2.39609
2.39652
2.39595
2.39831
2.39503
2.3926
2.46198
2.44854
2.46012
2.44621
2.46042
2.44277
2.45832
2.45951
2.45826
2.46042
2.45831
2.45975
2.46079
2.46006
2.38438
2.39304
2.38021
2.37908
2.38652
2.45281
2.44856
2.45206
2.44438
2.45245
2.44359
2.44959
2.45656
2.45329
2.45551
2.45614
2.45695
2.45369
2.45655
2.40423
2.39626
2.39576
2.41098
2.41465
2.39017
2.38407
2.39868
2.40095
2.43984
2.42433
2.43641
2.42012
2.43671
2.41947
2.43157
2.45199
2.43219
2.4509
2.45634
2.45128
2.45753
2.42269
2.41281
2.42739
2.43589
2.42183
2.42377
2.43027
2.42135
2.42319
2.42561
2.42544
2.42814
2.42179
2.42239
2.42257
2.43059
2.42793
2.43182
2.43135
2.42751
2.43232
2.43409
2.43806
2.43345
2.43466
2.43903
2.44164
2.43911
2.41021
2.41389
2.4142
2.41142
2.40913
2.41652
2.41526
2.41406
2.40818
2.44581
2.46437
2.45505
2.4394
2.44378
2.45548
2.45013
2.44451
2.43973
2.40306
2.39508
2.39133
2.40848
2.39926
2.39487
2.46753
2.4388
2.45844
2.43441
2.46033
2.43254
2.45325
2.46267
2.46707
2.46066
2.46963
2.46284
2.47363
2.46257
2.37882
2.3832
2.39311
2.38499
2.38524
2.45183
2.43707
2.45
2.43239
2.44606
2.42807
2.44171
2.45854
2.45434
2.45801
2.46994
2.46118
2.46144
2.45772
2.39302
2.3962
2.3786
2.39105
2.38828
2.39052
2.3919
2.39177
2.38572
2.43259
2.41505
2.42841
2.40629
2.42814
2.41239
2.42509
2.42312
2.40463
2.40329
2.42043
2.42691
2.4181
2.41947
2.42602
2.42804
2.42878
2.42804
2.42895
2.42843
2.42136
2.42314
2.42416
2.43046
2.42613
2.43149
2.42878
2.424
2.42961
2.43356
2.43823
2.43113
2.4314
2.43681
2.43604
2.43454
2.41817
2.42308
2.41774
2.41864
2.40998
2.42095
2.42102
2.42349
2.41574
2.43881
2.44798
2.44345
2.43405
2.43541
2.44199
2.43742
2.43672
2.43403
2.41458
2.4069
2.40304
2.42134
2.41646
2.41302
2.42975
2.46383
2.42362
2.42557
2.38982
2.39642
2.39418
2.42148
2.41094
2.41236
2.44948
2.41749
2.41581
2.39438
2.41426
2.40394
2.41498
2.41134
2.40121
2.39295
2.40723
2.43049
2.41241
2.41106
2.42312
2.41122
2.422
2.40044
2.41969
2.4117
2.42034
2.41724
2.40814
2.41735
2.42127
2.427
2.42308
2.42408
2.42849
2.43074
2.42854
2.42775
2.43338
2.42875
2.42327
2.42545
2.42699
2.42786
2.42251
2.42784
2.42666
2.42143
2.42615
2.42908
2.4354
2.42812
2.42772
2.43451
2.43347
2.43372
2.4284
2.43276
2.42558
2.42807
2.42494
2.42831
2.42923
2.43138
2.4335
2.43405
2.43886
2.43388
2.43444
2.4329
2.43656
2.43133
2.43194
2.43024
2.42859
2.42687
2.42354
2.43493
2.43596
2.43375
2.42544
2.42343
2.42301
2.42185
2.4233
2.4256
2.4297
2.44291
2.43835
2.44191
2.41563
2.41417
2.41538
2.41406
2.41432
2.42672
2.43551
2.43782
2.42603
2.42597
2.43184
2.43737
2.43635
2.43622
2.41955
2.41668
2.42242
2.41512
2.42327
2.42341
2.42646
2.42204
2.4254
2.43163
2.42778
2.43112
2.4301
2.43052
2.43269
2.43618
2.43033
2.42929
2.43973
2.43118
2.43125
2.4278
2.42773
2.42545
2.4208
2.42506
2.42504
2.42116
2.42497
2.42644
2.43347
2.42598
2.42542
2.43195
2.43688
2.43649
2.4356
2.43652
2.43063
2.43317
2.43963
2.43088
2.42939
2.43336
2.43973
2.43233
2.43369
2.43074
2.43344
2.43128
2.42944
2.4301
2.43017
2.42997
2.43896
2.44207
2.44124
2.44033
2.44489
2.44527
2.42144
2.42293
2.42667
2.42291
2.42466
2.44625
2.44806
2.44925
2.44915
2.45012
2.41889
2.41911
2.4225
2.42365
2.42513
2.44063
2.44311
2.43182
2.44288
2.44131
2.44301
2.43086
2.44567
2.44373
2.42954
2.43195
2.43289
2.43772
2.43673
2.44055
2.43935
2.43621
2.436
2.43927
2.43346
2.43435
2.43792
2.43553
2.43613
2.4429
2.43429
2.43585
2.44649
2.43843
2.44204
2.42807
2.42951
2.42594
2.4237
2.42601
2.42815
2.42797
2.42832
2.42616
2.4298
2.42863
2.42815
2.4295
2.43316
2.43118
2.43653
2.43615
2.4278
2.43336
2.43725
2.43156
2.42778
2.4333
2.43314
2.43105
2.42767
2.43076
2.43076
2.43147
2.42803
2.43268
2.43147
2.43345
2.44015
2.44515
2.44575
2.43908
2.44425
2.4444
2.42621
2.42867
2.43316
2.43013
2.43269
2.44867
2.44958
2.4469
2.44689
2.44726
2.43147
2.43291
2.4357
2.43796
2.43989
2.44383
2.44382
2.43433
2.4458
2.44277
2.4446
2.4382
2.44435
2.44107
2.44418
2.4482
2.44553
2.45161
2.44984
2.45392
2.45027
2.44885
2.44149
2.44222
2.4373
2.43816
2.44246
2.43933
2.44023
2.44856
2.44307
2.44327
2.45026
2.44716
2.45075
2.43241
2.43594
2.43176
2.43288
2.4318
2.43615
2.43789
2.43592
2.4308
2.43098
2.43611
2.43385
2.43268
2.43099
2.43259
2.43648
2.43797
2.43045
2.43378
2.43013
2.43577
2.43392
2.43495
2.42981
2.43308
2.43081
2.43581
2.43263
2.43525
2.43455
2.43987
2.43669
2.43999
2.43902
2.4433
2.44312
2.44009
2.44293
2.44255
2.43474
2.43739
2.44086
2.43896
2.44129
2.4448
2.44441
2.44376
2.4433
2.44201
2.4451
2.44617
2.44729
2.45059
2.45183
2.4432
2.44251
2.43828
2.44266
2.43807
2.4426
2.43515
2.44128
2.43533
2.45367
2.45706
2.45436
2.45667
2.45659
2.46022
2.45743
2.45588
2.44238
2.44257
2.44081
2.44224
2.44587
2.44307
2.44471
2.45194
2.45109
2.44995
2.45475
2.4548
2.4566
2.43996
2.44418
2.44099
2.44256
2.4408
2.44672
2.4464
2.44674
2.43795
2.43457
2.4446
2.44251
2.43798
2.43581
2.44005
2.44092
2.44505
2.43812
2.43754
2.43192
2.44358
2.44294
2.44158
2.43585
2.43837
2.43915
2.44416
2.43791
2.44179
2.44258
2.44835
2.44416
2.44784
2.44264
2.44399
2.44316
2.44608
2.44636
2.44567
2.44358
2.44593
2.44791
2.44761
2.4496
2.44301
2.44062
2.4456
2.44381
2.44121
2.45672
2.45691
2.45734
2.46108
2.46098
2.44285
2.44462
2.4336
2.44138
2.43577
2.44405
2.4345
2.4426
2.437
2.4593
2.46146
2.46034
2.45942
2.46181
2.46271
2.46297
2.46157
2.44424
2.44698
2.44594
2.44792
2.45169
2.44938
2.45165
2.45841
2.45885
2.45738
2.46178
2.46295
2.46151
2.44931
2.45508
2.4533
2.45067
2.45334
2.46019
2.45585
2.45993
2.44742
2.44359
2.45526
2.45342
2.45088
2.44505
2.45098
2.45
2.45517
2.44842
2.44696
2.44152
2.454
2.45407
2.45298
2.44942
2.44614
2.4448
2.45172
2.44764
2.45127
2.44918
2.45612
2.4517
2.45561
2.44999
2.44993
2.44944
2.45381
2.45397
2.45351
2.45139
2.45356
2.45456
2.45494
2.45678
2.44585
2.44424
2.45229
2.44957
2.44928
2.46538
2.46438
2.46498
2.46843
2.46726
2.44787
2.4523
2.4403
2.44621
2.44192
2.45155
2.44729
2.45031
2.44764
2.46384
2.46483
2.46546
2.46385
2.46586
2.46726
2.46791
2.46672
2.45164
2.45661
2.45279
2.45553
2.46057
2.45633
2.45928
2.4662
2.46776
2.46676
2.4703
2.47159
2.46731
2.46071
2.46607
2.46578
2.46134
2.46473
2.46944
2.46639
2.46796
2.45951
2.45835
2.46613
2.46528
2.46553
2.45793
2.46523
2.46046
2.46557
2.4592
2.45904
2.45782
2.46471
2.46368
2.46498
2.46493
2.45745
2.45466
2.46059
2.46244
2.46398
2.46301
2.46602
2.46001
2.46477
2.45803
2.45816
2.45757
2.46283
2.46252
2.46195
2.45848
2.46046
2.4616
2.46213
2.46386
2.45477
2.45565
2.46397
2.46071
2.46249
2.47134
2.46976
2.47077
2.47372
2.47228
2.45772
2.4638
2.455
2.45568
2.45426
2.46272
2.46433
2.46157
2.46146
2.46829
2.46924
2.47063
2.46859
2.47087
2.47083
2.47278
2.47234
2.46199
2.46714
2.46034
2.46318
2.46792
2.46435
2.46662
2.47342
2.4746
2.47307
2.47532
2.4765
2.47176
2.47095
2.47481
2.47222
2.47095
2.47154
2.47423
2.47477
2.47449
2.47071
2.47215
2.47552
2.47438
2.4775
2.47199
2.47731
2.47007
2.47366
2.46745
2.47029
2.4699
2.47324
2.47116
2.47398
2.47298
2.47076
2.47133
2.47156
2.47657
2.47609
2.47776
2.47668
2.46986
2.47458
2.46817
2.46645
2.46636
2.4728
2.4718
2.47186
2.46622
2.46795
2.47116
2.47005
2.47173
2.46672
2.46929
2.47373
2.47296
2.47589
2.4764
2.47466
2.47607
2.47904
2.47726
2.46985
2.47545
2.47326
2.46775
2.46886
2.47416
2.48091
2.47351
2.4754
2.47341
2.47176
2.47492
2.47267
2.47612
2.47296
2.47737
2.47812
2.47234
2.47683
2.46794
2.46999
2.47425
2.47142
2.47282
2.47591
2.47774
2.47524
2.47688
2.47838
2.47503
2.47777
2.47993
2.47558
2.4779
2.47678
2.47712
2.4805
2.47883
2.47704
2.48179
2.48198
2.4801
2.48518
2.48122
2.484
2.47682
2.47936
2.47444
2.4766
2.47471
2.47871
2.47698
2.47838
2.47604
2.48084
2.48097
2.4812
2.48414
2.48405
2.48296
2.48485
2.4787
2.48216
2.47636
2.47846
2.4773
2.47944
2.48301
2.48136
2.47437
2.47594
2.48047
2.47811
2.47959
2.47845
2.48191
2.48533
2.48365
2.48656
2.48206
2.48024
2.48157
2.48467
2.48356
2.48041
2.48451
2.48699
2.47901
2.48114
2.48408
2.49278
2.48382
2.48606
2.47933
2.47534
2.48037
2.47765
2.48286
2.47893
2.48401
2.48525
2.4809
2.48465
2.4741
2.47556
2.4795
2.47722
2.47868
2.47785
2.47951
2.47955
2.48055
2.48209
2.48038
2.48158
2.48314
2.47976
2.48279
2.48146
2.48357
2.48488
2.485
2.48389
2.48752
2.48796
2.48726
2.48978
2.48636
2.48852
2.4815
2.48363
2.47887
2.47962
2.4773
2.48307
2.48046
2.48069
2.47887
2.4866
2.48468
2.48759
2.48815
2.48836
2.48852
2.49
2.4852
2.4877
2.48269
2.48422
2.48411
2.48646
2.48644
2.48648
2.48153
2.48269
2.48683
2.48444
2.48542
2.48814
2.48914
2.49254
2.49148
2.48994
2.48714
2.48762
2.48701
2.48917
2.49152
2.48767
2.49027
2.49577
2.48812
2.48942
2.49168
2.49998
2.49142
2.49121
2.48741
2.48364
2.4882
2.48414
2.49158
2.48786
2.49227
2.49374
2.48799
2.4904
2.48241
2.48312
2.48775
2.48629
2.48701
2.48465
2.48506
2.48563
2.48741
2.48771
2.48869
2.48458
2.48571