/*--------------------------------*- C++ -*----------------------------------*\
| =========                 |                                                 |
| \\      /  F ield         | OpenFOAM: The Open Source CFD Toolbox           |
|  \\    /   O peration     | Version:  5.x                                   |
|   \\  /    A nd           | Web:      www.OpenFOAM.org                      |
|    \\/     M anipulation  |                                                 |
\*---------------------------------------------------------------------------*/
FoamFile
{
    version     2.0;
    format      ascii;
    class       surfaceScalarField;
    location    "8";
    object      phi;
}
// * * * * * * * * * * * * * * * * * * * * * * * * * * * * * * * * * * * * * //

dimensions      [0 3 -1 0 0 0 0];

internalField   nonuniform List<scalar> 
29271
(
-2.72811e-06
-1.13745e-07
2.91256e-07
2.57256e-06
-4.698e-06
2.31289e-07
2.88991e-07
4.18736e-06
-9.60543e-06
-5.58439e-07
-2.29636e-07
4.13676e-07
7.36138e-07
9.24369e-06
-1.00384e-05
-8.87776e-07
-4.00672e-07
1.28983e-07
8.9847e-07
1.02994e-05
-1.03338e-05
-7.2217e-07
3.89707e-07
9.6837e-07
9.91991e-06
-2.2205e-07
-9.71633e-06
-2.61996e-07
-4.68754e-07
7.6712e-07
7.46524e-07
8.93344e-06
-9.77684e-06
-8.06626e-07
-5.18145e-07
4.61622e-07
5.90096e-07
1.00499e-05
-1.04611e-05
-3.13291e-07
-3.67583e-07
4.4749e-07
1.04268e-07
1.05902e-05
-1.19401e-05
-7.36178e-07
-5.03053e-07
3.96014e-07
-1.47863e-07
1.29311e-05
-8.88996e-06
-4.05582e-07
1.22241e-07
9.29855e-06
-1.30346e-07
-2.50847e-06
-1.72112e-07
4.61652e-07
2.2213e-06
-1.09696e-05
-1.04915e-06
-8.30372e-07
8.44802e-07
6.85119e-07
1.13192e-05
-9.94541e-06
-4.22355e-07
3.28646e-07
-2.32818e-07
1.15112e-07
1.01568e-05
-1.02257e-05
1.16757e-07
1.7873e-07
6.01088e-08
-2.27684e-07
1.00978e-05
-1.05428e-05
5.53235e-07
-2.40714e-07
5.1917e-07
-2.87738e-07
9.99882e-06
-1.0864e-05
1.26519e-07
1.2481e-06
-1.67188e-07
1.03849e-05
-7.28346e-07
-1.17822e-05
-5.39805e-07
1.9996e-07
-1.30031e-07
1.25341e-05
-2.81972e-07
-9.94042e-06
6.82125e-07
3.47836e-07
-5.20422e-07
-7.15766e-07
1.01466e-05
-1.04916e-05
4.07685e-07
3.64834e-07
-1.40725e-07
-5.40486e-07
1.04003e-05
-1.02521e-05
2.55869e-07
-5.33848e-07
9.90095e-06
7.54038e-07
-1.24924e-07
-3.79904e-06
6.76404e-07
-8.44341e-07
3.9561e-06
-8.32374e-06
5.09684e-07
-7.32388e-07
7.72566e-06
8.13181e-07
-1.09847e-05
1.96144e-07
2.21399e-07
-1.33492e-07
1.00358e-05
6.64897e-07
-3.5617e-06
4.60964e-07
-1.93636e-07
3.28599e-06
-2.52167e-06
-4.67426e-08
9.10467e-08
2.46995e-06
-3.99597e-06
-7.43093e-09
2.08818e-10
4.00488e-06
-1.38314e-07
-7.84501e-08
-9.04427e-06
1.93014e-07
5.89157e-07
8.47887e-06
-3.17291e-07
-1.07245e-05
-8.97273e-09
-2.76812e-07
7.56171e-07
1.05714e-05
-9.83047e-06
5.85431e-08
-2.02356e-08
2.99034e-07
9.31837e-06
1.7476e-07
-1.86962e-07
-2.33909e-07
-8.42533e-06
6.67195e-07
4.34451e-07
7.74456e-06
1.411e-07
-2.90573e-07
5.25618e-05
-1.05639e-05
-1.11778e-05
-1.0943e-05
-1.13874e-05
-1.42328e-06
-1.62121e-06
-5.27348e-07
-6.24091e-07
-1.14967e-06
-1.18421e-06
-6.00784e-07
-1.20962e-06
-1.3251e-06
4.81933e-09
5.21909e-05
-1.11639e-05
-1.1689e-05
-1.08923e-05
-1.19957e-05
-1.65447e-06
-1.69711e-06
-9.27135e-07
-7.09836e-07
-1.31889e-06
-6.81602e-07
5.33647e-05
-1.54504e-06
-1.11676e-06
-5.73065e-07
-3.5262e-07
-1.24978e-06
-8.38476e-07
-8.42219e-07
-1.25528e-05
-1.13159e-05
-1.14666e-05
-1.0836e-05
-1.01291e-05
-3.30176e-07
-4.89916e-07
9.65755e-06
-2.01458e-06
-9.34646e-10
1.99859e-07
1.82878e-06
-1.23501e-06
-1.10432e-05
-8.21757e-07
3.11877e-06
9.67123e-07
9.0141e-06
-8.26276e-08
-2.0934e-06
4.16815e-05
-1.05931e-05
-1.11831e-05
-1.03992e-05
-1.11407e-05
4.56122e-07
5.74894e-07
1.62056e-06
8.68472e-07
-1.42652e-06
-2.2974e-06
4.53076e-05
-1.02766e-05
-1.03228e-05
-1.05696e-05
-1.04924e-05
-1.27233e-06
-1.68183e-06
4.78377e-05
-1.51001e-06
-8.12267e-07
-9.53023e-07
-1.30034e-06
-7.67789e-07
-7.0625e-07
-1.00935e-05
-1.00577e-05
-1.0665e-05
-1.01258e-05
-9.64622e-06
1.7339e-07
1.7332e-07
-1.39986e-07
8.16717e-06
-1.33834e-05
-1.01676e-06
2.80399e-06
-5.31405e-07
1.16662e-05
4.61396e-07
-8.36871e-07
-1.21118e-06
4.08955e-05
4.76216e-07
1.40926e-07
-3.47665e-07
2.73906e-08
-1.13087e-06
-5.81839e-07
-4.68866e-07
-1.01505e-05
-1.00611e-05
-9.15288e-06
-9.6916e-06
-1.4451e-06
-1.1121e-06
4.29393e-05
-1.09399e-06
-5.4559e-07
-5.05177e-07
-9.78826e-07
-4.80486e-07
-5.05787e-07
-1.02445e-05
-1.02388e-05
-9.64481e-06
-9.27838e-06
-9.42052e-06
-3.14096e-07
-5.18193e-07
7.12588e-06
-4.10669e-06
4.19238e-07
-8.09993e-08
3.80009e-06
-7.10199e-06
3.39793e-07
-4.11711e-07
6.02284e-06
-9.34739e-06
1.53976e-07
2.38363e-08
-1.97005e-07
8.25449e-06
-3.21603e-06
1.1611e-07
3.16961e-07
2.80803e-06
-2.50135e-06
6.55365e-08
-3.56816e-07
2.78987e-06
-4.01463e-06
9.07266e-07
-8.37868e-08
3.19127e-06
4.24962e-08
-1.05024e-06
-8.49832e-06
6.96021e-07
6.3113e-08
8.74693e-06
-2.08382e-08
-1.08755e-05
1.11004e-08
-8.26023e-07
-1.551e-07
1.18664e-05
-9.42623e-06
8.03256e-08
-5.63505e-07
-3.17149e-07
9.50182e-06
7.24741e-07
2.20575e-08
-5.00117e-08
-7.78617e-06
1.54911e-07
-6.19323e-08
7.72115e-06
2.98711e-06
1.88394e-07
7.39348e-05
-4.70133e-07
-6.73396e-07
-6.1201e-06
-5.75481e-06
-7.77736e-07
-8.25913e-07
-6.32094e-06
-3.60546e-06
-4.36086e-06
1.12018e-06
7.20271e-05
-5.40077e-07
-5.64392e-07
-6.07352e-06
-6.4305e-06
-4.84527e-07
1.46137e-07
7.34714e-05
-3.23849e-07
-2.37094e-07
-6.55445e-06
-5.77497e-06
-5.27022e-07
-5.78313e-06
-4.92868e-06
-9.05393e-06
1.32223e-07
-4.8622e-07
8.92768e-06
-1.88465e-06
1.10956e-07
-2.5801e-07
2.03413e-06
3.62147e-07
-7.80917e-06
2.52306e-07
-1.97704e-06
-5.62081e-07
9.73384e-06
3.87448e-06
-2.93056e-06
4.99938e-05
-1.58257e-06
-4.33593e-06
-1.56934e-06
-1.58006e-06
-2.76095e-06
-4.17344e-06
5.72367e-05
-2.53181e-07
-3.29966e-07
5.97566e-05
-7.92142e-08
-3.46419e-06
-3.56398e-06
-8.7459e-08
-3.32893e-06
-3.42675e-06
-8.22687e-06
1.5691e-07
-3.07133e-07
-1.36524e-07
8.26044e-06
-6.10533e-06
1.23492e-07
7.22121e-07
8.04001e-08
5.04935e-06
1.29966e-07
6.66488e-07
2.02646e-07
4.47212e-05
-4.19737e-06
-1.88295e-07
-1.09548e-06
-8.01998e-07
1.25553e-07
-7.52035e-07
-7.158e-07
-1.7199e-07
1.15639e-07
4.34932e-05
1.02524e-07
-9.06612e-07
-1.17685e-06
1.38669e-07
-1.12119e-06
-1.0411e-06
-6.30116e-06
-1.47161e-07
-1.33974e-07
6.08034e-06
-3.85086e-06
3.01688e-08
2.12682e-08
3.80817e-06
-5.20775e-06
-1.05812e-07
2.64921e-07
5.23215e-06
-7.81279e-06
5.26375e-08
-1.91431e-07
1.85184e-07
7.88204e-06
-2.48321e-06
1.74268e-08
7.43597e-08
2.3959e-06
-2.62926e-06
-7.3335e-08
8.27906e-08
2.6198e-06
-2.08203e-06
-5.60991e-08
-2.63287e-07
2.40142e-06
-5.8003e-07
-6.53176e-07
-5.83124e-06
8.46694e-07
1.73265e-06
4.48509e-06
-1.08945e-06
-9.81521e-06
-4.65745e-07
-1.01863e-07
2.96207e-06
8.5102e-06
-5.46788e-06
2.95526e-07
-7.00299e-07
1.83503e-06
3.08535e-06
9.52266e-07
-5.77391e-07
-2.06208e-07
-4.0298e-06
1.04718e-06
1.12698e-06
2.63925e-06
2.66124e-06
4.11321e-06
7.49428e-05
-1.56353e-06
-3.24148e-06
-8.0912e-10
-1.17283e-06
-1.42301e-06
-1.94921e-06
9.64695e-07
6.03732e-07
1.74274e-07
5.31784e-06
7.83831e-05
-3.29875e-06
-3.69416e-06
-8.64739e-07
-1.3292e-06
-2.25792e-06
9.55718e-07
7.15736e-05
-2.13771e-06
-2.51376e-07
7.40191e-07
1.54938e-06
-8.09966e-07
2.12251e-06
2.1613e-06
-4.32754e-06
-3.4459e-08
-1.0379e-06
3.14198e-06
-2.33145e-06
1.44284e-08
-8.3428e-08
2.40045e-06
6.14805e-07
-1.21206e-05
-8.11163e-07
3.04281e-07
-1.24688e-07
1.21374e-05
-1.32675e-06
-2.19144e-06
6.21651e-05
-1.20522e-06
-9.06857e-07
-1.28575e-06
-1.14204e-06
-1.81392e-06
4.31234e-06
5.87293e-05
-1.75754e-06
-1.49785e-06
6.24814e-05
-2.34497e-06
6.09165e-07
-1.88991e-07
-1.44368e-06
1.84012e-06
1.20073e-06
-4.65711e-06
4.43156e-07
-1.02145e-06
6.76075e-07
2.80179e-06
-7.36361e-06
-2.03474e-06
2.97246e-06
4.25764e-07
5.7924e-06
2.07719e-07
-3.47565e-06
-3.79028e-07
4.96909e-05
-1.18635e-06
-7.27413e-07
-6.97069e-07
-2.92124e-07
4.00662e-07
-1.31997e-06
5.15775e-07
-1.14026e-06
1.12997e-06
4.20722e-05
-1.09157e-06
-6.85552e-08
-6.39463e-07
5.52266e-07
1.77629e-06
1.73906e-06
-3.81422e-06
-5.69577e-07
-7.59564e-07
2.50525e-06
-3.18461e-06
6.15302e-07
-7.64312e-08
2.64574e-06
-4.91275e-06
4.08144e-07
6.14156e-07
3.51143e-06
-7.65294e-06
1.47994e-06
-3.21342e-06
1.72806e-06
8.78832e-06
-5.53975e-07
-1.00708e-06
1.50986e-06
5.11932e-08
-2.71796e-06
6.38918e-09
2.0832e-07
2.50325e-06
-1.61009e-06
-4.94448e-08
8.24975e-07
8.34562e-07
-6.29922e-07
-4.89572e-07
-3.83878e-06
8.34897e-07
1.11104e-06
3.01234e-06
-1.13094e-06
-8.86498e-06
-7.8583e-07
7.63233e-07
1.65163e-06
8.3669e-06
-2.58472e-06
-3.24679e-07
-2.33669e-07
6.88123e-07
1.88869e-06
5.66254e-07
-1.4796e-06
3.27481e-08
-2.91171e-06
-4.18193e-07
2.21538e-06
2.56138e-06
3.84605e-06
4.49409e-06
6.9789e-05
-7.78645e-07
-1.8872e-06
-4.14089e-07
-1.08163e-06
1.64899e-07
-4.37873e-08
4.09633e-07
4.44453e-07
7.52174e-08
7.0507e-06
8.1881e-05
-1.67002e-06
-2.31726e-06
-9.17835e-07
-1.87261e-06
1.89383e-06
6.22933e-07
6.19656e-05
4.41608e-07
6.99716e-07
3.61762e-07
7.88921e-07
1.16534e-06
2.14927e-06
1.55985e-06
-4.10286e-06
4.87084e-07
4.14114e-07
5.09549e-06
-2.38212e-06
-1.08697e-06
1.08621e-06
2.38288e-06
-1.30917e-06
-1.11796e-05
-2.34918e-06
2.25046e-06
2.16807e-06
1.04195e-05
1.69704e-06
-1.04588e-06
7.43609e-05
-2.47161e-06
-2.3378e-06
-1.78713e-06
-1.75635e-06
-8.49447e-07
4.67516e-06
6.36514e-05
7.44999e-07
5.13182e-07
5.58086e-05
5.54735e-07
1.42363e-06
1.09981e-06
3.72145e-07
1.02368e-06
7.14106e-07
-4.72608e-06
-1.37276e-08
-4.89275e-07
1.25173e-07
5.84891e-06
-6.52216e-06
-1.7113e-06
1.36413e-06
1.34852e-06
7.40634e-06
-1.88554e-06
-4.56358e-06
-9.10285e-07
5.72248e-05
-1.33633e-06
-6.94552e-07
-6.98797e-07
-3.20419e-08
-1.31033e-08
1.35802e-07
-4.66909e-07
-1.1939e-06
1.57908e-06
4.02189e-05
-1.19852e-06
-3.91117e-07
4.87819e-08
9.29899e-07
1.21248e-06
9.78204e-07
-2.47057e-06
-5.31318e-07
1.34806e-08
2.30769e-06
-2.51947e-06
2.43338e-08
-3.72827e-07
2.86796e-06
-2.85402e-06
1.34355e-06
-2.11546e-06
2.71565e-06
-1.00662e-05
1.7954e-06
-2.67047e-06
1.39022e-06
1.11301e-05
-1.64752e-06
-7.20362e-07
1.4802e-06
8.87682e-07
-2.11473e-06
1.16405e-07
3.01365e-07
1.69696e-06
-7.72569e-08
-9.67861e-08
4.89471e-07
-3.15428e-07
-1.41695e-07
-6.92629e-08
-2.45324e-06
3.90624e-07
1.21125e-07
2.15245e-06
-1.17456e-06
-7.60293e-06
-7.47459e-07
9.84552e-07
1.59473e-06
6.94565e-06
-1.41745e-06
1.42873e-07
-6.29961e-07
2.96354e-07
1.20744e-06
4.00743e-07
-9.12537e-07
2.21297e-07
-2.45226e-06
-9.16787e-07
1.73575e-06
2.32453e-06
3.27448e-06
5.35646e-06
6.24121e-05
-2.34433e-07
-1.39285e-06
-3.47899e-07
-9.77471e-07
5.91178e-07
-4.03454e-08
7.50651e-07
3.97205e-07
-1.88814e-06
7.87973e-06
8.61419e-05
-1.58178e-06
-2.48453e-06
-1.05756e-06
-1.85418e-06
1.30745e-06
-9.84707e-07
5.55896e-05
2.78436e-07
9.1648e-07
6.6099e-07
8.37107e-07
7.09374e-07
3.34171e-07
4.28528e-07
-5.92482e-06
3.94219e-07
2.41233e-06
-6.12313e-07
5.03804e-06
3.78531e-08
-3.93927e-07
4.98209e-07
-1.42134e-07
-2.3269e-06
-9.92607e-07
1.0491e-06
2.27041e-06
-1.04897e-06
-1.00022e-05
-2.2867e-06
1.6305e-06
1.74929e-06
9.95804e-06
4.47386e-06
-6.43889e-07
8.44629e-05
-2.4284e-06
-2.53633e-06
-1.61342e-06
-1.99735e-06
4.74042e-07
5.08288e-06
7.0448e-05
9.95696e-07
5.95136e-07
5.00184e-05
7.55731e-07
6.86773e-07
-6.22928e-09
6.6338e-07
8.84131e-07
7.04911e-07
-6.23241e-06
2.66206e-07
1.96787e-06
6.598e-07
4.33423e-06
1.78449e-07
-1.05157e-06
-6.78774e-07
-5.1872e-07
2.07062e-06
-7.90488e-06
-7.74739e-07
1.1093e-06
5.37148e-07
8.05153e-06
-1.01836e-06
-5.42274e-06
1.79118e-07
6.44464e-05
-1.23454e-06
3.71373e-07
-7.55048e-07
5.53401e-07
-1.04093e-06
3.51565e-07
-8.67616e-07
-1.18015e-06
4.73397e-07
4.22825e-05
-1.24194e-06
-1.2468e-06
-9.02614e-07
9.41045e-07
3.30903e-08
7.20466e-07
-3.32614e-06
-7.33376e-07
1.81845e-07
3.29265e-06
-3.29721e-06
-1.43041e-07
6.38712e-07
2.80154e-06
-4.41161e-06
1.01594e-06
-2.49128e-06
6.06606e-06
-1.13433e-05
1.77963e-06
-1.18984e-06
4.23413e-07
1.08035e-05
-6.47687e-07
4.0826e-08
-9.72291e-08
7.0409e-07
-1.3472e-06
7.02527e-08
4.22921e-08
1.23465e-06
5.76717e-07
3.32332e-07
-2.14666e-07
-6.94383e-07
-2.29773e-08
-2.32588e-07
-1.93388e-06
1.85776e-07
1.77269e-07
1.8264e-06
-2.74703e-07
-6.45155e-06
5.21365e-08
-1.33981e-07
8.43511e-07
5.96459e-06
-1.2429e-06
7.97222e-07
-7.80358e-07
-7.84554e-07
1.35565e-06
6.54942e-07
-1.60618e-07
-2.01035e-07
-2.35924e-06
-5.2093e-07
8.19577e-07
2.42225e-06
-9.58486e-07
7.41302e-06
5.52193e-05
-4.77156e-07
-1.4487e-06
-4.50361e-07
-7.23152e-07
9.92943e-07
8.7654e-07
6.48459e-07
1.31963e-06
-3.18819e-06
7.75369e-06
8.53825e-05
-1.45247e-06
-1.80406e-06
-8.80676e-07
-6.27378e-07
8.71129e-08
-3.18718e-07
4.79728e-05
5.19583e-07
1.02622e-06
9.3627e-07
9.34866e-07
5.86097e-07
5.14564e-08
6.05728e-07
-4.74331e-06
5.76242e-07
6.07852e-07
2.43658e-07
3.40267e-06
-2.86963e-07
-2.53454e-07
4.6037e-07
-6.60688e-07
-3.08296e-07
1.04903e-06
-2.20499e-06
-3.91618e-07
5.92945e-07
2.00366e-06
-9.78892e-07
-1.03527e-05
-1.18369e-06
9.32373e-07
3.63344e-07
1.12195e-05
3.82508e-06
-3.4296e-08
9.45001e-05
-1.71146e-06
-2.35554e-06
-7.58513e-07
-1.58945e-06
2.70336e-07
6.68063e-06
7.50758e-05
7.46362e-07
6.60031e-07
4.50363e-05
1.32538e-07
6.75875e-07
3.03426e-07
7.73955e-07
8.42752e-07
7.98781e-07
-4.0538e-06
3.88339e-07
9.51217e-07
-3.5255e-07
3.81316e-06
-2.7158e-06
1.44143e-07
-7.31333e-07
3.12512e-09
1.27669e-08
3.2871e-06
-7.85081e-06
3.51852e-07
3.52732e-07
-9.32846e-07
7.22764e-06
8.51439e-07
-5.21717e-06
4.3228e-07
7.01045e-05
-9.18675e-07
4.89841e-07
-4.8811e-07
1.74309e-07
-3.41386e-07
3.02878e-07
-1.26428e-07
-1.41785e-06
3.21965e-08
4.68022e-05
-7.2535e-07
-1.24448e-06
-5.43809e-07
5.86225e-07
-4.65377e-09
2.61457e-07
-3.6863e-06
-9.38428e-07
-6.48939e-08
3.93181e-06
-1.63803e-06
-1.33266e-06
1.15038e-06
-2.7964e-08
1.84827e-06
1.06617e-07
3.06418e-07
-2.71925e-07
-1.41111e-07
-7.31243e-06
3.76995e-07
-3.03243e-07
7.67096e-06
-9.59394e-06
-5.57548e-08
9.50042e-07
1.80189e-07
8.55166e-06
-9.85593e-07
7.56678e-07
-1.05193e-06
1.28085e-06
-1.28569e-06
-2.21565e-08
-1.44016e-07
1.45186e-06
7.06271e-07
5.40387e-07
-6.43383e-07
-6.03275e-07
1.05094e-07
-2.8085e-07
-1.8174e-06
1.30835e-07
-6.55872e-08
1.92791e-06
5.84376e-07
-5.46463e-06
2.82668e-07
-4.21426e-07
-3.30171e-07
5.34918e-06
-1.82627e-06
9.73834e-07
-6.99205e-07
-1.28423e-06
2.3604e-06
4.75476e-07
7.71756e-07
-8.34396e-07
-2.48818e-06
5.51634e-07
-5.78529e-07
2.57771e-06
-5.15822e-06
8.80511e-06
4.99466e-05
-5.20575e-07
-8.51548e-07
-3.15343e-07
-5.1629e-07
4.87289e-07
1.44173e-06
1.84687e-07
1.7159e-06
-5.21992e-06
9.26197e-06
7.92177e-05
-1.28343e-06
-1.05286e-06
-4.09584e-07
-2.89584e-07
-1.38492e-07
3.66581e-06
3.82492e-05
1.45313e-07
2.39575e-07
4.6234e-07
2.16768e-07
2.91447e-07
-3.58628e-07
-2.05161e-08
-3.28671e-06
-8.51046e-08
-1.82854e-07
3.20942e-07
3.09524e-06
-1.2462e-06
7.73591e-07
3.50194e-07
-9.1015e-08
-7.5924e-07
9.72672e-07
-1.61271e-06
4.46017e-07
-7.61167e-08
1.24281e-06
-4.51801e-07
-1.23813e-05
-5.56455e-07
-6.82208e-08
8.55765e-08
1.33722e-05
9.84376e-07
1.29101e-06
0.000103936
-6.21312e-07
-1.80931e-06
4.11296e-07
-8.87101e-07
-6.0251e-07
7.87159e-06
7.80531e-05
4.38112e-07
5.13635e-07
4.42258e-05
4.2088e-07
3.44086e-07
2.49068e-07
6.68266e-07
6.42141e-07
5.97547e-07
-3.60742e-06
1.02231e-07
4.19666e-07
-1.01138e-08
3.53375e-06
-3.61962e-06
9.33347e-08
-4.87136e-07
1.91411e-08
2.87209e-07
3.70707e-06
-6.13166e-06
5.90791e-07
1.70329e-07
-7.46979e-07
4.72362e-06
1.3939e-06
-3.88129e-06
4.26706e-07
7.59147e-05
-9.39889e-07
-1.54081e-08
-4.04792e-07
-5.90728e-08
-7.81538e-08
4.6689e-07
-3.41811e-08
-1.00513e-06
5.45123e-09
5.26022e-05
-2.66825e-07
-7.5849e-07
-2.76959e-07
2.48157e-07
8.46439e-08
1.59449e-07
-4.5776e-06
-7.18639e-07
-3.85549e-07
5.19029e-06
-1.73114e-06
-5.97889e-07
1.20384e-06
-5.49588e-07
1.67478e-06
1.81908e-07
-2.16552e-07
2.23203e-07
3.39821e-08
-2.2254e-07
-7.42844e-06
3.60312e-08
8.10623e-07
7.00849e-06
-8.0129e-06
-9.88132e-07
1.98267e-06
-9.20087e-07
7.9439e-06
-1.60076e-06
1.24066e-06
-1.67114e-06
2.03124e-06
-1.65532e-06
-1.63964e-07
-1.37256e-08
1.83301e-06
4.4018e-07
5.20038e-07
-6.78369e-07
-2.81848e-07
2.74419e-07
-5.63634e-07
-2.17224e-06
4.7386e-07
-5.41852e-07
2.52945e-06
4.38181e-07
-5.76745e-06
-8.98216e-08
-2.95962e-07
-6.93225e-07
6.40828e-06
-2.86523e-06
7.20764e-07
-5.09311e-07
-1.04211e-06
3.24958e-06
4.46299e-07
1.34852e-06
-1.01223e-06
-2.65105e-06
1.25594e-06
-1.60488e-06
2.6637e-06
-6.46002e-06
8.70804e-06
4.72445e-05
-2.16757e-07
-8.85759e-07
-5.59253e-08
-8.20053e-07
-1.24325e-07
1.34571e-06
-2.82399e-07
1.49357e-06
-7.41239e-06
1.04164e-05
7.21796e-05
-7.81883e-07
-8.27517e-07
-4.24779e-07
-3.91862e-07
-9.30729e-07
4.32498e-06
3.07084e-05
7.62429e-08
-7.11075e-08
2.09619e-07
-2.07652e-07
-6.15629e-07
-1.66905e-06
-9.8824e-07
-3.80909e-06
7.55829e-07
-9.24346e-07
-1.1447e-07
3.16135e-06
2.52855e-07
2.46837e-07
6.10204e-07
-8.70274e-07
-2.39622e-07
-1.0491e-06
1.01128e-06
-9.61638e-07
9.99454e-07
5.49052e-07
-1.3893e-05
3.62446e-07
-1.01903e-06
4.07496e-08
1.39598e-05
-1.38472e-06
2.29443e-06
0.000110641
3.489e-07
-8.41565e-07
1.2096e-06
3.76317e-07
-1.39984e-06
7.86593e-06
8.06187e-05
-7.0173e-08
1.50344e-07
4.66053e-05
1.07081e-07
-3.09754e-07
-4.02226e-07
4.70904e-07
3.85132e-07
2.14364e-07
-3.52678e-06
1.23491e-07
-2.55265e-07
9.53816e-08
3.493e-06
-3.25033e-06
7.81909e-08
-3.47296e-07
8.81118e-07
6.19066e-07
2.01926e-06
-3.72058e-06
-1.21005e-07
-2.81898e-07
1.92168e-07
3.37105e-06
5.60272e-07
-4.56179e-07
7.89133e-07
7.69356e-05
-3.85026e-07
-9.74305e-08
2.87446e-07
-9.38461e-08
1.79286e-07
7.95217e-07
2.54999e-07
-2.80922e-07
1.58579e-07
5.88131e-05
2.46606e-07
2.20043e-08
2.0442e-07
2.68335e-07
2.61607e-07
3.18229e-07
-6.18314e-06
-2.78505e-07
-6.84371e-07
7.01543e-06
-1.55341e-06
-1.00909e-06
7.65254e-07
1.79725e-06
-6.50111e-06
-3.80544e-09
1.11099e-06
6.18305e-06
-8.01689e-06
-9.30642e-07
1.82391e-06
-8.59855e-07
8.14205e-06
-2.30834e-06
1.26704e-06
-1.51165e-06
2.55295e-06
-1.95345e-06
-1.29927e-07
8.11506e-08
2.00222e-06
1.71329e-07
2.72327e-07
-3.35806e-07
-1.07851e-07
1.70879e-07
-7.74877e-07
-3.07175e-06
5.39711e-07
-6.11626e-07
3.74766e-06
-6.52447e-08
-6.98203e-06
-1.73504e-07
-1.70653e-08
-6.02511e-08
7.2981e-06
-3.71391e-06
2.58253e-07
-1.83979e-07
-6.68526e-07
4.19234e-06
1.15816e-07
1.26969e-06
-6.94689e-07
-2.61099e-06
1.39795e-06
-1.95434e-06
2.59238e-06
-3.59241e-06
6.44245e-06
4.65625e-05
2.57019e-07
-8.38214e-07
3.21893e-08
-7.67379e-07
-8.21905e-07
4.6032e-07
-9.74295e-07
4.8419e-07
-7.19834e-06
1.01479e-05
6.82682e-05
-8.90183e-07
-7.09423e-07
-7.08113e-07
-3.22834e-07
-1.76507e-06
1.98601e-06
2.74414e-05
1.7459e-07
-1.61547e-07
1.20604e-07
-2.63153e-07
-1.72572e-06
-1.2772e-06
-1.01982e-06
-3.38287e-06
1.38733e-07
-1.00912e-06
2.48819e-06
-1.04311e-06
9.75559e-07
-1.12272e-06
1.19027e-06
1.29664e-06
-1.35187e-05
1.43935e-06
-1.24705e-06
-5.91117e-07
1.26208e-05
-1.15673e-06
2.62374e-06
0.000114009
4.12906e-07
-2.36718e-07
9.04604e-07
5.26522e-07
-6.36667e-07
6.82039e-06
8.34262e-05
-8.27701e-07
-2.41957e-07
5.04347e-05
-6.794e-07
-2.91624e-07
-4.43864e-07
-2.81859e-08
1.12578e-07
-7.9951e-08
-5.01948e-06
1.93146e-07
-1.44001e-06
4.63597e-07
4.97505e-06
-3.41702e-06
-2.18789e-07
-4.46096e-07
5.93949e-07
3.51349e-06
-2.55286e-08
4.28169e-06
8.72649e-07
7.44133e-05
-3.39168e-07
-3.55748e-07
-2.05684e-07
-4.58863e-07
4.03252e-07
5.88363e-07
3.59465e-07
5.80944e-07
2.57559e-07
6.46147e-05
8.38755e-07
1.1572e-06
8.51127e-07
5.1762e-07
3.88055e-07
7.09298e-07
-8.19075e-06
2.23068e-07
-7.29856e-07
9.03653e-06
-1.85585e-06
-1.0778e-07
3.82213e-07
1.58141e-06
-5.85876e-06
1.83428e-07
8.70752e-07
5.67723e-06
-8.48961e-06
-7.74729e-07
1.04523e-06
-6.35657e-07
9.11232e-06
-2.6627e-06
9.03007e-07
-9.72218e-07
2.73191e-06
-1.98908e-06
-5.62693e-08
1.21126e-07
1.92422e-06
5.28249e-08
-2.94795e-07
2.34679e-07
7.29127e-09
-3.13393e-07
-3.40925e-07
-4.2602e-06
3.00255e-07
1.33031e-07
4.48123e-06
-2.95268e-07
-7.4659e-06
1.81662e-08
-1.53256e-07
3.52688e-07
7.54357e-06
-4.4745e-06
-3.20821e-07
1.47743e-07
4.77468e-07
4.18535e-06
-1.52381e-08
4.9235e-07
-1.45817e-07
-2.71465e-06
9.75838e-07
-1.52164e-06
2.91392e-06
1.95711e-06
3.24352e-06
4.7945e-05
4.33907e-08
-6.47021e-07
-2.74714e-07
-5.41395e-07
-1.81861e-06
-6.97941e-07
-1.91545e-06
-7.31324e-07
-4.10599e-06
8.87317e-06
6.79702e-05
-9.88595e-07
-5.31817e-07
-6.94998e-07
-2.96637e-07
-7.86221e-07
-4.83489e-08
2.71895e-05
-3.0199e-07
-2.93708e-08
-6.93014e-07
-1.03298e-07
-6.25105e-07
-7.22238e-07
-5.4459e-07
-1.80883e-06
3.64672e-07
-9.98895e-07
1.65683e-06
-1.44486e-06
4.837e-07
-7.4055e-07
1.70171e-06
1.26611e-06
-1.12819e-05
1.69612e-06
-1.04431e-06
-4.30537e-07
9.79448e-06
2.08264e-06
2.67318e-06
0.000112891
-2.13391e-07
-5.76623e-07
2.98675e-07
9.78802e-08
2.40392e-06
5.29721e-06
8.66809e-05
2.26678e-07
-4.31011e-07
5.26761e-05
6.178e-08
3.54677e-07
2.214e-07
-1.33128e-07
-1.30415e-08
-1.73126e-07
-4.5768e-06
3.92462e-07
3.69768e-08
-2.6778e-07
4.64182e-06
-3.61552e-06
-2.21626e-07
1.0236e-07
8.05789e-07
3.89976e-06
-9.70764e-07
7.25189e-06
5.28641e-07
7.11723e-05
-8.30122e-07
-6.69861e-07
-6.36279e-07
-7.20195e-07
3.28196e-07
3.59384e-07
3.02604e-07
1.35791e-06
4.2462e-07
6.86276e-05
1.23394e-06
1.88568e-06
1.21176e-06
8.29069e-07
6.51524e-07
9.41656e-07
-1.0301e-05
9.72054e-07
-5.65863e-07
1.08217e-05
-1.66417e-06
2.96661e-07
-5.24516e-07
1.89202e-06
-5.41327e-06
3.26348e-07
3.11759e-07
5.3038e-06
-1.00671e-05
-4.17842e-07
1.10163e-07
-1.68473e-07
1.09679e-05
-2.75537e-06
4.65887e-07
-4.86758e-07
2.77624e-06
-1.81278e-06
1.15439e-07
3.8997e-08
1.65835e-06
-3.37321e-08
-4.39236e-07
4.27601e-07
4.53674e-08
-4.09139e-07
-1.20013e-07
-4.46906e-06
1.24509e-07
4.82022e-07
4.39168e-06
-2.74601e-07
-7.6706e-06
3.72601e-07
-6.32483e-07
3.66939e-07
7.83814e-06
-3.41338e-06
-4.88451e-07
-1.90977e-07
1.03093e-06
2.66809e-06
3.93786e-07
-1.27441e-07
-1.04018e-07
-3.02822e-06
7.95036e-07
-5.90208e-07
3.05485e-06
4.38959e-06
1.49418e-06
5.09142e-05
-2.78517e-07
-5.44491e-07
-3.28346e-07
-2.26679e-07
-2.06375e-06
-1.6662e-06
-1.93267e-06
-1.8123e-06
-2.07703e-06
6.00526e-06
7.05011e-05
-7.58831e-07
-6.11377e-07
-3.27631e-07
-3.71657e-07
-5.56955e-07
-1.17132e-06
2.87994e-05
-6.50627e-07
1.90737e-07
-4.73511e-07
2.28769e-07
-3.23544e-07
-6.34135e-07
-2.9635e-07
-1.68918e-06
6.71501e-07
-1.44771e-06
1.90843e-06
-1.91258e-06
1.80959e-07
-3.05232e-07
2.03685e-06
6.07009e-07
-8.48572e-06
7.16405e-07
-6.68466e-07
3.63976e-07
7.46679e-06
6.29242e-06
1.24693e-06
0.000109071
-6.57143e-07
-9.36641e-07
-2.2489e-07
-4.07296e-07
5.6256e-06
2.89758e-06
9.04554e-05
7.05676e-07
-4.48591e-07
5.47599e-05
6.43138e-07
7.89626e-07
7.01154e-07
-3.53693e-08
3.94828e-08
-2.46584e-08
-4.71064e-06
9.72778e-07
7.47266e-07
-1.2536e-06
4.94987e-06
-4.15524e-06
-1.27412e-07
4.00329e-07
7.28405e-07
4.2763e-06
-1.12238e-06
7.67384e-06
1.9355e-07
6.72007e-05
-9.19471e-07
-7.73991e-07
-6.30146e-07
-7.78484e-07
1.65527e-07
8.99267e-08
1.97778e-07
1.35457e-06
6.1333e-07
7.09008e-05
1.10087e-06
1.69499e-06
1.05138e-06
8.59474e-07
7.25597e-07
8.98038e-07
-1.18534e-05
1.25814e-06
-3.48242e-07
1.18495e-05
-2.14871e-06
8.19484e-07
-1.04373e-06
2.37296e-06
-5.3052e-06
5.14208e-07
-3.96399e-07
5.38094e-06
-1.17959e-05
1.74354e-07
-4.96552e-07
4.49464e-07
1.2282e-05
-2.86106e-06
1.01435e-07
-2.06463e-07
2.96609e-06
-1.51941e-06
3.25982e-07
-2.65383e-07
1.45881e-06
-6.817e-08
-3.75895e-07
3.08319e-07
1.35745e-07
-4.42985e-08
2.15913e-07
-4.23322e-06
-2.35493e-07
1.61067e-07
4.13604e-06
-4.7269e-08
-8.00004e-06
6.09567e-07
-6.41187e-07
-8.2792e-08
8.16172e-06
-2.07505e-06
3.53502e-08
-7.01468e-07
4.83196e-07
1.65911e-06
5.98859e-07
-3.91447e-07
2.92187e-08
-2.99753e-06
4.43959e-07
-1.64793e-08
2.93228e-06
2.84738e-06
6.09207e-07
5.48492e-05
-2.39454e-07
-3.25182e-07
-1.92534e-07
2.67591e-08
-1.4968e-06
-2.11171e-06
-1.22281e-06
-1.8299e-06
-2.06593e-06
3.01042e-06
7.24049e-05
-1.56955e-07
-3.50685e-07
4.33957e-07
7.26915e-08
-4.92554e-07
-1.88772e-06
2.96362e-05
-3.79886e-07
4.49868e-07
-2.07598e-07
4.80093e-07
-1.33751e-07
-5.85504e-07
-1.45663e-07
-2.11459e-06
8.86224e-07
-1.71367e-06
2.44949e-06
-2.06364e-06
1.17636e-07
-6.98976e-08
2.01591e-06
-6.34001e-08
-6.68675e-06
1.46756e-07
-6.69187e-09
4.73891e-07
6.1362e-06
7.70512e-06
-9.68468e-07
0.000105923
-9.32898e-07
-9.89306e-07
-5.82691e-07
-4.74415e-07
6.5532e-06
1.16897e-06
9.34487e-05
9.54909e-07
-3.65141e-07
5.59175e-05
8.4911e-07
1.00148e-06
8.58491e-07
3.20205e-08
1.61545e-07
1.5478e-08
-5.14523e-06
1.32849e-06
1.02772e-06
-1.6321e-06
5.37603e-06
-4.28384e-06
4.64851e-08
1.79647e-07
5.11339e-07
4.19234e-06
-6.45967e-07
6.15784e-06
-1.46555e-07
6.34338e-05
-7.81429e-07
-7.39372e-07
-4.9874e-07
-7.29715e-07
-1.13274e-07
-2.36401e-07
-1.13993e-07
9.09938e-07
6.70585e-07
7.1685e-05
6.96867e-07
1.22827e-06
6.58132e-07
8.26601e-07
7.22436e-07
8.29708e-07
-1.253e-05
1.08683e-06
-1.68789e-07
1.21567e-05
-2.52648e-06
9.38756e-07
-9.96712e-07
2.58443e-06
-5.58296e-06
6.84807e-07
-9.84094e-07
5.73569e-06
-1.26178e-05
6.88501e-07
-7.8939e-07
7.35476e-07
1.26538e-05
-3.11748e-06
-4.64465e-08
-7.73837e-08
3.24131e-06
-1.46807e-06
3.54455e-07
-4.10874e-07
1.52449e-06
-2.6362e-07
-2.16461e-07
1.27182e-08
4.67363e-07
3.87315e-10
6.6617e-07
-3.95167e-06
-5.08837e-07
1.57927e-08
3.77815e-06
2.27797e-07
-8.24365e-06
5.95259e-07
-4.34273e-07
-4.655e-07
8.32037e-06
-1.41555e-06
1.16723e-07
-7.73866e-07
2.18158e-07
1.34418e-06
5.10358e-07
-3.30612e-07
4.56456e-07
-2.87692e-06
-3.63223e-07
1.29621e-07
2.98468e-06
-2.21572e-06
-8.75007e-07
5.85931e-05
1.29826e-07
-7.73876e-09
2.08068e-07
2.88846e-07
-9.15612e-08
-9.87037e-07
1.71198e-07
-3.64739e-07
-2.83334e-06
5.0597e-07
7.05706e-05
5.52062e-07
9.52964e-08
9.79094e-07
3.19513e-07
-4.58398e-07
-2.104e-06
2.92039e-05
-1.82734e-07
4.7232e-07
4.08827e-08
4.275e-07
-1.87999e-08
-5.42625e-07
-3.51446e-08
-2.69831e-06
8.84385e-07
-1.68007e-06
3.03559e-06
-1.93958e-06
1.04311e-07
-4.24031e-08
1.87768e-06
-2.17401e-07
-5.74617e-06
-3.73826e-09
1.83513e-07
2.58261e-07
5.52553e-06
6.84034e-06
-2.33609e-06
0.000103076
-9.28436e-07
-8.35651e-07
-4.33913e-07
-3.33484e-07
5.62656e-06
8.35461e-07
9.4333e-05
1.08533e-06
-1.88356e-07
5.52143e-05
9.60297e-07
1.12643e-06
9.52347e-07
-9.07739e-09
3.21073e-07
-2.22919e-08
-5.60701e-06
1.35482e-06
1.03193e-06
-1.58716e-06
5.89275e-06
-4.00127e-06
1.53588e-07
-9.80084e-08
3.73595e-07
3.7762e-06
-2.04103e-07
2.67891e-06
-2.68399e-07
6.08907e-05
-3.98047e-07
-4.24044e-07
-8.98507e-08
-3.99681e-07
-2.70251e-07
-3.49363e-07
-2.72246e-07
3.60399e-07
7.65205e-07
7.05099e-05
2.5628e-07
7.80943e-07
1.94006e-07
8.32659e-07
7.69159e-07
7.30885e-07
-1.26178e-05
7.57505e-07
-1.11011e-08
1.20435e-05
-2.58422e-06
8.03524e-07
-7.62017e-07
2.54271e-06
-5.94521e-06
8.14275e-07
-1.3322e-06
6.19474e-06
-1.25792e-05
9.55392e-07
-8.49318e-07
8.53263e-07
1.23851e-05
-3.35209e-06
-4.57454e-08
-1.83683e-08
3.4162e-06
-1.5617e-06
1.71212e-07
-1.63657e-07
1.55414e-06
-7.169e-07
1.12738e-07
-3.78389e-07
9.82551e-07
-2.34013e-07
6.99735e-07
-3.48096e-06
-2.93357e-07
1.20367e-08
3.29656e-06
2.64253e-07
-8.51599e-06
6.96355e-08
-1.15795e-07
-5.07714e-07
8.80561e-06
-1.42056e-06
-1.2788e-07
-5.10773e-07
1.09157e-07
1.73595e-06
2.14104e-07
-7.28071e-08
7.84521e-07
-3.11233e-06
-1.09766e-06
7.1852e-08
3.42643e-06
-4.19183e-06
-2.63893e-06
6.01509e-05
5.864e-07
3.0823e-07
5.50231e-07
7.07286e-07
9.43078e-07
2.99497e-07
1.09751e-06
7.80679e-07
-2.77371e-06
-8.8955e-07
6.73821e-05
8.32601e-07
1.62045e-07
1.14791e-06
5.17396e-07
-4.4753e-07
-1.67109e-06
2.84214e-05
-5.84109e-09
2.77343e-07
7.50111e-08
1.9315e-07
6.09183e-08
-5.12976e-07
3.97885e-08
-3.28568e-06
7.33953e-07
-1.47411e-06
3.57831e-06
-1.82118e-06
1.83389e-07
-9.96181e-08
1.7374e-06
-2.01326e-07
-5.4506e-06
-3.05861e-08
-4.48352e-08
1.43878e-07
5.58347e-06
4.72196e-06
-2.78428e-06
9.90781e-05
-4.17069e-07
-4.15761e-07
1.11917e-07
1.41704e-07
4.0779e-06
1.49698e-06
9.25905e-05
1.15648e-06
-1.08153e-07
5.32205e-05
9.96094e-07
1.15879e-06
9.50387e-07
-6.54018e-08
3.42033e-07
-2.95721e-08
-6.22783e-06
1.19174e-06
9.54334e-07
-1.33863e-06
6.57685e-06
-3.54276e-06
2.13276e-07
-3.43599e-07
3.31449e-07
3.39623e-06
-5.4592e-08
-5.49835e-07
-2.42574e-07
5.88242e-05
2.0696e-07
1.41356e-07
5.25538e-07
1.779e-07
-3.16628e-07
-3.32294e-07
-3.2822e-07
2.15136e-07
8.14436e-07
6.74827e-05
3.90015e-09
6.86545e-07
-3.211e-09
7.45153e-07
8.26165e-07
6.86195e-07
-1.23994e-05
5.83833e-07
4.77203e-08
1.18749e-05
-2.53267e-06
5.4639e-07
-5.91162e-07
2.57744e-06
-6.43227e-06
9.01742e-07
-1.51671e-06
6.80466e-06
-1.21278e-05
1.11272e-06
-8.72725e-07
8.64538e-07
1.18377e-05
-3.45584e-06
-8.28685e-08
6.123e-08
3.47748e-06
-1.54119e-06
-4.92752e-08
1.74256e-08
1.57304e-06
-1.25999e-06
5.12892e-07
-8.07235e-07
1.55433e-06
-9.59375e-08
5.26611e-07
-3.10576e-06
-1.88257e-07
-1.47334e-07
3.01068e-06
3.07175e-07
-9.10535e-06
-4.7379e-07
5.21527e-07
-5.69e-07
9.31944e-06
-2.12914e-06
-2.97895e-07
-8.37154e-08
1.9957e-07
2.59314e-06
-2.81957e-07
1.893e-07
7.08196e-07
-3.81387e-06
-1.34092e-06
-4.20155e-08
4.29931e-06
-2.79885e-06
-2.64008e-06
5.78061e-05
6.4566e-07
8.20323e-07
6.08407e-07
1.4857e-06
1.20927e-06
7.56142e-07
1.2209e-06
1.03736e-06
-1.82595e-06
-1.52353e-06
6.43317e-05
8.49456e-07
5.0027e-07
1.22909e-06
1.02218e-06
-4.57372e-07
-4.73076e-07
2.84383e-05
-2.0902e-07
-2.56718e-08
-2.02958e-07
-8.84894e-08
7.08071e-08
-4.99465e-07
4.24275e-08
-3.80461e-06
6.00208e-07
-1.27337e-06
4.0204e-06
-1.61633e-06
3.75556e-07
-2.70955e-07
1.51173e-06
8.56356e-08
-5.78957e-06
8.47711e-09
-4.21383e-07
4.16027e-08
6.07524e-06
1.73912e-06
-2.35404e-06
9.48609e-05
2.90856e-07
2.02234e-07
8.99194e-07
7.99751e-07
2.98935e-06
1.51062e-06
8.83062e-05
1.10615e-06
-1.12261e-07
5.15981e-05
9.24407e-07
1.07514e-06
8.58751e-07
-4.31897e-08
2.956e-07
3.4006e-08
-6.94748e-06
9.79071e-07
8.7081e-07
-1.08088e-06
7.28463e-06
-3.32922e-06
2.89644e-07
-5.21057e-07
2.29325e-07
3.35554e-06
-2.42353e-08
-1.76987e-06
-2.92037e-07
5.74765e-05
5.0673e-07
5.15699e-07
7.70006e-07
5.38601e-07
-4.33315e-07
-3.8021e-07
-4.61892e-07
2.9257e-07