/*--------------------------------*- C++ -*----------------------------------*\
| =========                 |                                                 |
| \\      /  F ield         | OpenFOAM: The Open Source CFD Toolbox           |
|  \\    /   O peration     | Version:  5.x                                   |
|   \\  /    A nd           | Web:      www.OpenFOAM.org                      |
|    \\/     M anipulation  |                                                 |
\*---------------------------------------------------------------------------*/
FoamFile
{
    version     2.0;
    format      ascii;
    class       volVectorField;
    location    "8";
    object      U;
}
// * * * * * * * * * * * * * * * * * * * * * * * * * * * * * * * * * * * * * //

dimensions      [0 1 -1 0 0 0 0];

internalField   nonuniform List<vector> 
10571
(
(0.0491682 0.166505 0.964209)
(0.0124357 0.0158779 0.758527)
(-0.0143358 -0.00585103 0.907756)
(0.0572609 0.0312884 1.00532)
(0.0898988 0.0449105 0.912833)
(0.00055245 0.0179319 0.87459)
(0.0152124 0.0520841 1.02156)
(0.0691746 -0.0365249 1.07461)
(0.181187 -0.0510019 1.38537)
(0.0205219 -0.0122379 1.08181)
(0.173922 0.0762164 0.84166)
(0.044034 0.143145 1.07926)
(-0.116115 0.0613705 0.976009)
(0.00446523 -0.00777384 1.01101)
(0.132633 -0.0200393 1.07134)
(0.182502 -0.0280011 1.04168)
(-0.00410369 0.0590684 0.971509)
(-0.163538 -0.00201874 0.945797)
(-0.0156448 0.00929991 1.02117)
(0.118606 0.0293089 0.985136)
(0.0480948 -0.0690368 0.920407)
(-0.124647 -0.0510066 0.88798)
(-0.00953736 0.016871 0.964199)
(0.0367175 -0.0411823 0.776843)
(0.0143699 0.0111077 0.931322)
(-5.64229e-05 -0.000151911 0.743668)
(0.00544555 0.0234434 0.930531)
(-0.0146993 0.0354137 1.09098)
(-0.00310772 -0.0104578 0.915531)
(0.042687 0.0319955 0.87519)
(0.0609674 0.0803241 0.64486)
(-0.012804 0.0892979 0.669055)
(-0.103917 0.062642 0.68376)
(-0.23899 -0.00683445 1.09079)
(0.0206788 -0.000454738 0.713125)
(0.316073 0.167548 0.985645)
(-0.0510722 -0.0382379 0.72415)
(-0.00688752 -0.042854 0.618247)
(-0.109554 -0.109137 0.640013)
(-0.147689 -0.0369558 0.860236)
(0.310467 -0.0706533 1.12497)
(-0.0432378 -0.119568 0.593344)
(-0.0845143 -0.115702 0.599226)
(-0.147998 -0.190425 0.835148)
(0.0122864 -0.0421076 0.85244)
(-0.0725963 -0.18287 0.787041)
(-0.0182754 -0.158206 0.850818)
(-0.0299405 -0.00866755 0.678782)
(-0.0215555 -0.0218175 0.938329)
(0.038738 -0.00683364 0.772917)
(0.0678444 -0.0247836 0.964425)
(-0.0434912 -0.0330897 1.14417)
(-0.0469945 -0.0448987 0.911455)
(-0.00926917 -0.00823109 0.882929)
(0.155799 0.0596234 1.37939)
(-0.0262759 0.115213 1.35979)
(-0.139339 0.0870313 1.39765)
(-0.0417891 -0.0335898 0.908714)
(-0.0141693 -0.0256946 0.624702)
(-0.108697 -0.056325 0.658507)
(0.194262 -0.0516502 0.9822)
(0.00335384 -0.0666527 1.20063)
(-0.101969 -0.0766251 1.22477)
(-0.0313739 -0.0178688 0.602529)
(-0.0439021 0.00430901 0.124509)
(0.081447 -0.0588714 0.983614)
(-0.0386534 -0.0627019 1.02526)
(-0.0241046 -0.0238616 0.497417)
(-0.000528412 -0.000391966 0.643205)
(0.0286088 0.00542128 0.469909)
(-0.0192793 0.00485035 0.610278)
(-0.00599299 -0.000539496 0.396106)
(0.000541849 -0.0127218 0.451856)
(-0.0221212 -0.0291196 0.331793)
(0.0745628 0.0726838 0.32667)
(0.0221511 0.0882847 0.423683)
(-0.0953188 0.0367513 0.173064)
(-0.00619228 0.0704676 0.147721)
(0.0446056 0.0544146 0.613027)
(0.0312484 0.0769096 0.614118)
(-0.0346026 0.0356627 0.682192)
(-0.199477 0.00110926 0.0177827)
(-0.022687 -0.00457023 0.274537)
(-0.110627 0.0260779 0.47972)
(0.0109995 0.0579634 0.534566)
(-0.0692019 0.0795784 0.441493)
(0.000914165 -0.00376282 0.576954)
(-0.179012 0.0305222 -0.0804946)
(0.193652 0.0111936 0.0753159)
(-0.0215377 -0.11044 0.453508)
(-0.124402 0.0721951 0.398964)
(-0.0472927 -0.137493 -0.0754413)
(0.00724413 -0.0920714 0.11139)
(0.0631814 0.0150322 0.0847735)
(-0.214753 0.0713029 0.225952)
(-0.076107 0.0572483 -0.312943)
(-0.00820576 -0.0054593 0.373911)
(0.00479836 0.0331175 0.115554)
(0.0791228 0.0976557 0.171389)
(0.0852385 0.104667 0.379341)
(-0.107295 0.139561 0.0930062)
(-0.00719971 0.145567 0.109625)
(0.074379 0.0844564 0.743878)
(0.0390538 0.130155 0.814125)
(-0.0597737 -0.00402734 0.71236)
(0.194896 -0.00565344 0.203834)
(0.00942736 0.162151 0.336845)
(0.106826 0.182871 0.473586)
(0.113169 0.059484 0.657595)
(-0.0721507 0.0920193 0.630572)
(0.0277296 0.0226546 0.642265)
(0.0341149 -0.00167733 0.165229)
(0.0757615 0.120701 0.255257)
(0.0219946 -0.0885771 0.521162)
(-0.205371 0.0757148 0.426541)
(-0.0174357 0.0542876 -0.00155982)
(0.0554726 -0.0389982 0.208915)
(-0.160815 -0.055754 0.0870728)
(-0.197104 0.0927993 0.426434)
(-0.128165 0.0818781 0.0310557)
(-0.0200104 0.0147724 0.267594)
(0.00649258 0.0240618 -0.0136074)
(0.0307986 0.0422465 0.0921186)
(0.101526 0.125717 0.31038)
(-0.0878033 0.0371087 0.0358921)
(-0.0266797 0.0922582 0.0867157)
(0.0920847 0.117284 0.691972)
(0.00344266 0.149791 0.893922)
(-0.0742852 -0.0651089 0.664716)
(0.135314 -0.00362196 0.262336)
(-0.104327 0.039348 0.00184428)
(0.00661906 0.160319 0.327097)
(0.0560468 0.176743 0.439323)
(0.174248 0.0572013 0.799933)
(-0.0370401 0.105048 0.716788)
(0.0410701 0.0208211 0.610472)
(0.0590658 -0.0552879 0.207673)
(0.0471863 -0.0443739 0.0768667)
(0.0565653 0.0472679 0.315616)
(0.0393171 -0.0787235 0.659064)
(-0.246734 0.0751189 0.440269)
(0.00402357 0.0651191 0.117324)
(0.0200176 0.0259915 0.240638)
(-0.137618 0.057894 0.270343)
(-0.13508 -0.0094411 0.437248)
(0.0359334 0.0203154 0.0226758)
(-0.0120433 0.00295598 0.178772)
(0.0249106 -0.00886091 -0.0566227)
(0.023849 0.0339651 0.0768696)
(-0.00412132 0.0297936 0.277033)
(-0.0627398 -0.0819346 0.0390037)
(0.0248321 0.0351556 0.0963792)
(0.0111433 0.150794 0.58553)
(-0.0524861 0.123924 0.890502)
(-0.048027 -0.0413641 0.583248)
(0.0387931 0.0343342 0.16341)
(-0.039008 -0.0247029 0.0291472)
(0.00434253 0.0564543 0.311941)
(0.0433707 0.0776341 0.465592)
(0.165305 0.0914734 0.92429)
(-0.0420518 0.132011 0.756106)
(0.0509918 0.0275573 0.505048)
(0.0587068 -0.0663943 0.175887)
(0.036708 -0.0182005 0.115753)
(-0.0114486 -0.115956 0.296881)
(0.0426107 -0.0925098 0.721062)
(-0.238032 0.0906183 0.469252)
(-0.0261266 0.0658981 0.16156)
(-0.0175674 0.0695324 0.121266)
(-0.034721 -0.0105788 -0.0171223)
(-0.0155505 0.0903368 0.385974)
(0.0529992 -0.0456186 0.349801)
(0.116185 -0.0155608 0.0936268)
(0.00811407 -0.00825297 0.19501)
(0.0295109 -0.024471 -0.0539182)
(0.0129496 0.0181454 0.0801008)
(-0.0434596 -0.0695858 0.236457)
(-0.0380507 -0.107014 0.0782396)
(0.0880499 -0.063445 0.109601)
(-0.0547008 0.183076 0.513463)
(-0.135493 0.168016 0.846427)
(-0.0314193 0.0844155 0.465422)
(-0.00613456 0.0192135 0.168089)
(-0.0479047 -0.0579309 0.0516687)
(0.00480673 -0.068387 0.199041)
(0.00580919 0.0907284 0.572343)
(0.10765 0.120946 1.01218)
(-0.0739415 0.157158 0.784914)
(0.0588549 0.0407714 0.482142)
(0.00985961 -0.0435928 0.164672)
(0.00424766 0.0152771 0.147299)
(-0.044605 -0.127873 0.207094)
(0.0353195 -0.0777991 0.776156)
(-0.182446 0.101316 0.526968)
(-0.00696794 0.045188 0.207329)
(-0.0400262 0.0596773 0.102834)
(0.0228344 0.00807446 -0.0173265)
(0.0301014 0.0814594 0.361932)
(0.110472 -0.0470184 0.311703)
(0.152376 -0.0396389 0.165274)
(0.0271309 -0.00319585 0.249497)
(0.00982735 -0.0205036 -0.0270282)
(0.0339236 -0.00815138 0.102742)
(-0.0194158 -0.0469316 0.265281)
(-0.0411471 -0.067061 0.117571)
(0.121681 -0.125975 0.118662)
(-0.0469016 0.180977 0.484466)
(-0.183178 0.20557 0.768421)
(-0.0531017 0.122088 0.369749)
(-0.0857193 -0.0361251 0.138605)
(0.0192979 -0.0731576 -0.018998)
(-0.0163487 -0.146066 0.145239)
(-0.0581178 0.061845 0.621377)
(0.0467223 0.121648 1.08058)
(-0.0909524 0.166641 0.808513)
(0.0608466 0.0339584 0.493242)
(-0.0438506 -0.0355293 0.167616)
(0.0215036 0.0168197 0.107457)
(-0.0369199 -0.0193275 0.134934)
(0.064724 -0.0417039 0.822207)
(-0.081119 0.0921115 0.592609)
(0.0283203 0.0119622 0.279722)
(-0.028415 0.0479635 0.122431)
(0.0545894 0.0997485 0.318277)
(0.103088 -0.022403 0.314844)
(0.132796 -0.0396106 0.223406)
(0.0202303 0.00171961 0.28502)
(-0.0166038 -0.00436307 -0.010114)
(0.0585266 -0.00472811 0.148917)
(0.00333222 0.0116186 0.315734)
(-0.0123262 -0.0310444 0.153412)
(0.107572 -0.135592 0.11467)
(0.0503196 0.113589 0.462323)
(-0.174752 0.192459 0.695173)
(-0.0551956 0.0608635 0.296933)
(-0.13311 -0.0505251 0.138319)
(-0.0212196 -0.131358 0.156185)
(-0.0878507 -0.0473539 0.580311)
(0.0490388 0.100798 1.13844)
(-0.0778677 0.164216 0.830395)
(0.0774453 0.0103629 0.519325)
(-0.100987 -0.00184848 0.184392)
(-0.0133647 0.0572826 0.133816)
(0.128518 -0.00619915 0.803057)
(0.0351656 0.073872 0.654743)
(0.0674191 -0.00872942 0.365786)
(-0.0110237 0.0268008 0.134131)
(0.0283106 0.0873867 0.28982)
(0.0716277 -0.00269734 0.339471)
(0.0892543 -0.0198228 0.246544)
(0.0145594 0.0052241 0.281758)
(-0.0264151 0.0184112 -0.00105988)
(0.0490309 0.0372628 0.195344)
(-0.000775104 0.0397138 0.329927)
(0.0242086 0.0458694 0.177132)
(0.0349269 -0.0775979 0.124835)
(0.182132 0.0222511 0.46833)
(-0.108976 0.159685 0.671238)
(-0.0298236 -0.00262843 0.283668)
(-0.0633486 -0.0604502 0.0814185)
(-0.0138183 -0.065607 0.224442)
(-0.08051 -0.116283 0.460503)
(0.112218 0.0825441 1.16384)
(-0.0264878 0.146901 0.862962)
(0.112083 6.1007e-05 0.550359)
(-0.0217677 -0.0269146 0.177938)
(0.0238882 0.0868682 0.146208)
(0.160701 0.0121841 0.767572)
(0.112044 0.0439961 0.705566)
(0.1096 -0.0182775 0.453286)
(0.0243394 -0.0254836 0.160048)
(-0.00638268 0.0429837 0.267679)
(0.0273237 0.0260887 0.411935)
(0.060454 0.00164774 0.25131)
(-0.00583617 0.00800768 0.248725)
(-0.0190111 0.0227711 0.0027597)
(0.0444404 0.0399773 0.194204)
(-0.0358552 0.0413417 0.339499)
(-0.00184425 0.064169 0.117221)
(0.0189982 -0.0124577 0.133993)
(0.215316 0.000413681 0.490913)
(-0.0564161 0.112303 0.691678)
(-0.0133394 -0.0493494 0.296029)
(-0.0459683 -0.0819815 0.0892484)
(-0.0019175 -0.0256107 0.28539)
(-0.0324024 -0.0389805 0.344704)
(0.174326 0.0494512 1.11814)
(0.0574936 0.0992926 0.899938)
(0.127309 0.00238497 0.572664)
(0.00969591 -0.0685413 0.190523)
(0.0407566 0.0648073 0.16421)
(0.163341 -0.00770903 0.727669)
(0.1199 0.00930415 0.738321)
(0.110171 -0.0182292 0.510449)
(0.0542797 -0.0542593 0.208699)
(-0.0328334 0.0203567 0.267262)
(-0.00682826 0.0603249 0.47475)
(0.0421208 0.015645 0.26444)
(-0.0387157 -0.00376447 0.2107)
(0.000937012 0.0118716 0.00600066)
(0.0178751 0.00301119 0.185133)
(-0.0457749 0.0137449 0.356836)
(-0.0391748 -0.000995325 0.0711891)
(0.00927566 0.0221569 0.130011)
(0.18298 0.00384881 0.515353)
(-0.0786444 0.0570025 0.729757)
(0.00552608 -0.0724224 0.310185)
(-0.0465061 -0.0934243 0.114653)
(0.00324749 -0.0162224 0.294122)
(0.0218596 0.0028047 0.277397)
(0.182014 0.0178128 1.07079)
(0.0951537 0.0513164 0.933177)
(0.119966 0.00121656 0.591127)
(0.0356368 -0.0960807 0.206729)
(0.0206132 0.025628 0.165297)
(0.150095 -0.0548647 0.680886)
(0.0791835 -0.00649862 0.754267)
(0.084713 -0.00951828 0.531761)
(0.0506453 -0.0630073 0.234366)
(-0.0560352 0.00987919 0.284184)
(-0.034221 0.0717402 0.497788)
(0.0314904 0.0167559 0.289334)
(-0.0424395 -0.00804315 0.21283)
(0.0219155 -0.0108797 0.025546)
(-0.0321672 0.0126721 0.171959)
(-0.042458 7.62411e-05 0.363862)
(-0.0473858 -0.0133878 0.0523742)
(-0.0327571 0.0255268 0.128719)
(0.0508063 -0.00972914 0.579576)
(-0.119415 -0.00525248 0.725238)
(0.017349 -0.069168 0.31361)
(-0.0480506 -0.0889905 0.144334)
(0.00113882 -0.0143659 0.271743)
(0.0310017 0.0064313 0.244904)
(0.164342 -0.0171501 1.05246)
(0.0791314 0.0241027 0.956469)
(0.106681 -0.0049025 0.592804)
(0.0514004 -0.0975602 0.224472)
(-0.00264417 -3.16593e-05 0.151046)
(0.0900781 -0.0678429 0.656404)
(0.0106305 0.00508997 0.755297)
(0.0589779 0.00911419 0.530797)
(0.0390985 -0.0544407 0.232948)
(-0.0727154 0.00694116 0.305186)
(-0.0471297 0.0730848 0.490832)
(0.0231902 0.0123607 0.30795)
(-0.00933726 2.37227e-05 0.224306)
(0.035965 -0.0374444 0.0618158)
(-0.058747 0.0393261 0.147343)
(-0.0219789 -0.000987801 0.379568)
(-0.0313902 0.00319011 0.0594305)
(-0.0706918 0.0139172 0.143242)
(-0.0213082 -0.0459519 0.602094)
(-0.116322 -0.0534539 0.689296)
(0.0168625 -0.041368 0.304411)
(-0.0474467 -0.0773377 0.172871)
(-0.000259199 -0.029869 0.257459)
(0.0207725 0.00893137 0.239945)
(0.11501 -0.0406983 1.02458)
(0.0491221 0.0242525 0.953797)
(0.0890458 -0.0157692 0.571877)
(0.0647248 -0.0846084 0.251888)
(-0.0217783 -0.00301515 0.134423)
(-0.00620315 -0.0570996 0.631096)
(-0.0127703 0.0248356 0.732968)
(0.0526692 0.019773 0.523952)
(0.0326484 -0.0378972 0.232077)
(-0.083913 0.00693028 0.332902)
(-0.060236 0.0664324 0.470738)
(0.00829672 0.0140647 0.314563)
(0.0148827 0.00193378 0.221405)
(0.0460647 -0.0651203 0.102318)
(-0.0714007 0.0130471 0.132785)
(0.0332934 -0.0185696 0.404499)
(0.00431603 0.018816 0.0917073)
(-0.0763657 0.00204411 0.177462)
(-0.0240728 -0.0625293 0.598498)
(-0.0729769 -0.0800774 0.657686)
(0.0079657 0.00487808 0.293654)
(-0.0454854 -0.0667263 0.19742)
(-0.00257967 -0.0513737 0.221803)
(-0.00498641 0.00676186 0.25831)
(0.0284497 -0.0256185 0.973758)
(0.0295504 0.0295968 0.92132)
(0.0731375 -0.0196425 0.549046)
(0.0681785 -0.0645896 0.279991)
(-0.0361847 0.00345356 0.129712)
(-0.0536964 -0.0555513 0.609359)
(-0.00810139 0.0214214 0.693383)
(0.0564094 0.0200023 0.515893)
(0.0278521 -0.0243193 0.247543)
(-0.087356 0.0025117 0.36982)
(-0.0742768 0.0579274 0.445161)
(-0.00736228 0.0214738 0.320695)
(0.019903 0.000922285 0.250057)
(0.0648594 -0.0876625 0.15061)
(-0.0586847 -0.0102486 0.135035)
(0.0775807 -0.0336485 0.425617)
(0.0349489 0.0184792 0.126772)
(-0.0339363 -0.0270096 0.221935)
(0.00112806 -0.0744017 0.556487)
(-0.00942656 -0.0968265 0.633463)
(0.0110208 0.0312902 0.304919)
(-0.0425855 -0.063107 0.216482)
(-0.0115837 -0.0579827 0.211352)
(-0.0362956 -0.0122779 0.287974)
(-0.0323388 0.0087788 0.929909)
(0.016187 0.00440298 0.863979)
(0.0633182 -0.0116966 0.53565)
(0.0629884 -0.0484368 0.306759)
(-0.0433773 -0.000159869 0.13971)
(-0.0551413 -0.0604927 0.601538)
(0.00252952 -0.0103146 0.639691)
(0.0600916 0.0142355 0.506926)
(0.0226678 -0.0159271 0.2694)
(-0.0806515 -0.00556685 0.403621)
(-0.083497 0.038091 0.408499)
(-0.0332323 0.0318361 0.326879)
(0.0317154 0.00422284 0.299313)
(0.0757408 -0.0921496 0.205006)
(0.00312996 -0.0102526 0.165796)
(0.0741054 -0.0177076 0.432195)
(0.0408985 0.0193481 0.15313)
(0.0415872 -0.0785969 0.253282)
(-0.00979057 -0.0682243 0.50927)
(0.0542098 -0.104332 0.617639)
(0.0228918 0.0421082 0.333059)
(-0.0438806 -0.0645612 0.230807)
(-0.0127861 -0.0476024 0.242904)
(-0.0571605 -0.0345779 0.313665)
(-0.0377797 0.0251595 0.900626)
(0.0265466 -0.0362128 0.812088)
(0.0654226 0.00759803 0.52991)
(0.0607154 -0.0367661 0.330309)
(-0.0467488 -0.0147177 0.161144)
(-0.0302981 -0.062556 0.597857)
(0.0128804 -0.0305257 0.589259)
(0.0549733 0.0143348 0.499156)
(0.0165512 -0.0127283 0.28326)
(-0.0731442 -0.0166677 0.423764)
(-0.086176 0.0281974 0.379423)
(-0.0632229 0.0430665 0.314957)
(0.0257537 0.00431642 0.347041)
(0.0715672 -0.0773611 0.233359)
(0.0509926 -0.00374151 0.197373)
(0.0505491 -0.00777006 0.404847)
(0.0263319 0.0271892 0.164729)
(0.0527261 -0.0906718 0.288539)
(-0.0559126 -0.0113709 0.471847)
(0.0981405 -0.0771089 0.616232)
(0.023362 0.0529308 0.368204)
(-0.0582561 -0.0641522 0.234992)
(0.000602047 -0.0346586 0.244088)
(-0.0825326 -0.0584805 0.334758)
(-0.00869414 0.0337301 0.861325)
(0.0657095 -0.0385758 0.765113)
(0.0834103 0.0360408 0.531473)
(0.0609281 -0.0315238 0.351305)
(-0.0424328 -0.026886 0.185319)
(0.0191491 -0.0155106 0.598615)
(0.0308654 -0.00702224 0.552609)
(0.0450654 0.0359924 0.491857)
(0.0105638 -0.0103239 0.290014)
(-0.0581306 -0.0183565 0.433152)
(-0.0847753 0.024435 0.370199)
(-0.0812515 0.0554722 0.300012)
(0.00411916 -0.00344228 0.404004)
(0.0578805 -0.0621638 0.239951)
(0.0712462 0.00216356 0.214448)
(0.00242865 -0.0419707 0.362389)
(0.0129756 0.0294051 0.170803)
(0.020878 -0.103452 0.337877)
(-0.0668501 0.0428061 0.432708)
(0.100632 -0.00342877 0.602603)
(0.00180248 0.0521801 0.406416)
(-0.0653594 -0.0599241 0.222841)
(-0.00371036 -0.0375519 0.240213)
(-0.107461 -0.0950085 0.34997)
(0.0259487 0.0599442 0.794658)
(0.0947568 0.00621425 0.717488)
(0.100483 0.0500723 0.54989)
(0.052615 -0.0357527 0.377507)
(-0.0275914 -0.0322476 0.201654)
(0.0418777 0.0497829 0.58755)
(0.0522272 0.0458037 0.542576)
(0.0433812 0.0517391 0.49413)
(0.00829609 -0.00952414 0.299164)
(-0.0385471 0.00529939 0.462926)
(-0.0748933 0.0318543 0.389453)
(-0.0927318 0.0656 0.304882)
(-0.00518348 -0.000983447 0.428516)
(0.0525181 -0.0596326 0.244158)
(0.0889799 0.000946525 0.229528)
(-0.0228158 0.0288659 0.332285)
(0.00142388 0.0257134 0.183312)
(-0.00787481 -0.125353 0.385635)
(-0.0509182 0.0562515 0.413564)
(0.0530559 0.0806418 0.573572)
(-0.0223216 0.010344 0.443092)
(-0.0553271 -0.061217 0.204172)
(-0.00410491 -0.00552107 0.239215)
(-0.0949499 -0.121653 0.372742)
(0.0428001 0.0724544 0.726827)
(0.0927262 0.0554235 0.683984)
(0.101117 0.0402183 0.578737)
(0.0333152 -0.0473419 0.405657)
(0.00325277 -0.0382411 0.205117)
(0.0330947 0.0631199 0.572924)
(0.0649289 0.0861343 0.558715)
(0.0397912 0.0539754 0.4976)
(0.0145232 -0.0196988 0.307423)
(-0.0232291 0.0217394 0.502159)
(-0.0414131 0.0483677 0.459958)
(-0.0937393 0.0706444 0.339136)
(-0.0248684 0.0132471 0.358388)
(0.0529436 -0.0552152 0.241654)
(0.10053 -0.0149002 0.244436)
(-0.0133359 0.0924515 0.293598)
(-0.0142612 0.0140351 0.195582)
(-0.0166576 -0.134172 0.413888)
(-0.0361733 0.0378712 0.414304)
(0.00810956 0.096807 0.569376)
(-0.0357858 -0.0557417 0.468222)
(-0.0402594 -0.0624074 0.188355)
(-0.00534509 0.0417707 0.227145)
(-0.0615368 -0.118868 0.39058)
(0.0312945 0.0285769 0.681127)
(0.0797182 0.0742185 0.667968)
(0.0836914 0.0125719 0.591327)
(0.017668 -0.0602372 0.418671)
(0.0304156 -0.0412741 0.215786)
(0.0206878 0.0431765 0.563608)
(0.0709011 0.0939043 0.589537)
(0.0140644 0.0591378 0.491557)
(0.0226151 -0.0268932 0.30776)
(-0.038929 0.0320277 0.538284)
(-0.0122417 0.0618079 0.540497)
(-0.0495511 0.0503507 0.42782)
(0.0180719 0.00956992 0.22756)
(0.0459783 -0.042041 0.222306)
(0.0924699 -0.0357793 0.267838)
(-0.0309288 0.0850043 0.278576)
(-0.0320873 -0.0119776 0.207595)
(-0.0136172 -0.116004 0.431438)
(-0.0189792 -0.0561847 0.447517)
(-0.00196597 0.087606 0.5713)
(-0.0389572 -0.109137 0.479311)
(-0.0227746 -0.0492485 0.179458)
(-0.00160433 0.0730793 0.215615)
(-0.0273057 -0.100783 0.400777)
(-0.0116121 -0.0720552 0.624753)
(0.0709093 0.0702462 0.652931)
(0.0632111 -0.0307868 0.56955)
(0.0101615 -0.0677664 0.411246)
(0.0454322 -0.0421631 0.232191)
(-0.00873886 -0.0413831 0.521145)
(0.0691262 0.0749383 0.606733)
(0.00726725 0.0587867 0.488762)
(0.0101719 -0.0215289 0.294432)
(0.00121426 0.0413884 0.589666)
(0.00269732 0.0721782 0.597051)
(0.0233491 0.00698401 0.534177)
(0.0451303 0.00447909 0.203996)
(0.0227698 -0.0303419 0.202908)
(0.0722137 -0.0605236 0.309337)
(-0.0464304 0.0530392 0.289811)
(-0.0450446 -0.0347689 0.217912)
(-0.00983687 -0.0928506 0.447314)
(-0.0182777 -0.13332 0.478732)
(0.00891809 0.0549577 0.565282)
(-0.0314239 -0.135446 0.490432)
(-0.00307739 -0.0204697 0.182466)
(0.00152233 0.0819807 0.209923)
(-0.0235575 -0.0776997 0.413368)
(-0.0442996 -0.137114 0.579982)
(0.05756 0.0424577 0.638765)
(0.0502902 -0.0818177 0.540623)
(0.00571735 -0.0609362 0.401911)
(0.0497163 -0.0200228 0.237203)
(-0.0180283 -0.0743391 0.448682)
(0.0575272 0.0294722 0.597571)
(0.0334187 0.0116759 0.482749)
(0.00409551 -0.022263 0.289546)
(0.0574845 0.0232052 0.597524)
(0.00367032 0.0614696 0.62927)
(0.0532721 -0.00676964 0.611608)
(0.0558842 0.00350074 0.220961)
(-0.00164627 -0.0203619 0.202182)
(0.0499238 -0.081083 0.365174)
(-0.0372297 0.0144598 0.331052)
(-0.046614 -0.0424412 0.233082)
(0.00131018 -0.0456375 0.462985)
(-0.0209429 -0.145796 0.493987)
(0.0195212 -0.0299632 0.558948)
(-0.0213567 -0.135464 0.503538)
(0.012177 0.00819088 0.199042)
(0.00369903 0.0797766 0.213301)
(-0.0208814 -0.0373489 0.428011)
(-0.0563013 -0.160664 0.52124)
(0.0294187 -0.0366655 0.612174)
(0.0425056 -0.114305 0.529001)
(-0.000507911 -0.0380252 0.399437)
(0.0466099 0.0240025 0.227492)
(0.0136611 -0.0367133 0.3822)
(0.03272 -0.0430398 0.544791)
(0.0571161 -0.080948 0.463489)
(0.00234332 -0.0204298 0.30833)
(0.0227136 0.0080946 0.585456)
(0.00277637 0.0470901 0.636515)
(0.0484539 0.00101986 0.633416)
(0.0537223 0.00313865 0.25492)
(-0.0111121 -0.0100568 0.221087)
(0.0362923 -0.0893883 0.416899)
(-0.0238056 -0.0200443 0.391902)
(-0.0329473 -0.0385596 0.260205)
(-0.00570115 -0.0189903 0.454514)
(-0.0166203 -0.13071 0.506759)
(0.0102417 -0.0734166 0.565586)
(-0.0185032 -0.111872 0.516201)
(0.0220122 0.0254389 0.224529)
(0.00654 0.087003 0.224413)
(0.0136149 0.00157441 0.425589)
(-0.0386246 -0.133092 0.450473)
(0.024423 -0.0915659 0.58171)
(0.0381155 -0.120427 0.529328)
(-0.00472429 -0.0131761 0.398523)
(0.0441313 0.0438656 0.213244)
(0.0505918 -0.0051936 0.34181)
(0.0283343 -0.0530454 0.488758)
(0.05675 -0.101491 0.442873)
(-0.00566403 -0.00916287 0.335506)
(-0.0368706 -0.0168428 0.595758)
(-0.0309076 0.0368607 0.639526)
(0.0395044 -0.0186015 0.581513)
(0.0433149 0.00223598 0.293215)
(-0.0142032 0.0057564 0.250025)
(0.0378812 -0.0764524 0.458007)
(-0.0126554 -0.0433378 0.460245)
(-0.00773288 -0.0275295 0.298211)
(-0.00545977 -0.0234295 0.416213)
(0.0108992 -0.0879102 0.518737)
(0.00563769 -0.0800336 0.583007)
(-0.0230072 -0.0778597 0.525805)
(0.0316989 0.0272268 0.253001)
(0.00846055 0.094047 0.240526)
(0.0139196 0.0522343 0.397225)
(0.00677571 -0.0612134 0.411116)
(0.0363159 -0.103144 0.549588)
(0.0345651 -0.115615 0.532399)
(-0.00318078 0.00166054 0.40115)
(0.0455435 0.048148 0.208706)
(0.0717026 -0.00175887 0.322022)
(0.0426049 -0.0279934 0.446235)
(0.0588191 -0.067052 0.423098)
(-0.0124959 0.0061761 0.356048)
(-0.0395003 -0.0335089 0.597159)
(-0.0826478 0.031108 0.659415)
(-0.000776191 -0.0138302 0.413967)
(0.0358762 0.00202171 0.327031)
(-0.0288439 0.0284597 0.265847)
(0.0401372 -0.0597567 0.479104)
(-0.00320445 -0.0522092 0.52216)
(0.0195444 -0.00825058 0.340324)
(-0.0207058 0.00659293 0.327026)
(0.0398755 -0.0615509 0.525275)
(0.00611963 -0.0800538 0.609763)
(-0.021587 -0.0563038 0.528758)
(0.0440188 0.0197617 0.28103)
(0.00699921 0.085154 0.254716)
(0.00370732 0.0879057 0.34159)
(0.0555904 0.00684157 0.401532)
(0.043425 -0.0921018 0.526332)
(0.0278648 -0.093798 0.536869)
(0.0029842 0.0109395 0.409121)
(0.045593 0.0454243 0.214696)
(0.0792227 -0.01649 0.317873)
(0.0570576 -0.0194411 0.415919)
(0.0593765 -0.0330363 0.407063)
(-0.0156939 0.0193321 0.369763)
(-0.0391247 -0.0426517 0.564929)
(-0.0747376 0.035719 0.673442)
(-0.0186818 0.0043701 0.361134)
(0.0317331 0.00195342 0.352712)
(-0.0452124 0.0448868 0.255045)
(0.0244674 -0.0378317 0.492403)
(0.00725417 -0.0539253 0.568962)
(0.039771 0.0198738 0.374142)
(-0.0152047 0.053628 0.251266)
(0.0459943 -0.040252 0.541705)
(-0.0191091 -0.0749338 0.639244)
(-0.00462775 -0.0285401 0.520547)
(0.0530182 0.0110236 0.310114)
(0.00516094 0.0706041 0.263658)
(0.00540345 0.0756699 0.290589)
(0.0868889 0.0422104 0.40526)
(0.0440558 -0.0751526 0.51986)
(0.0265432 -0.0396797 0.536307)
(0.0137097 0.0177477 0.423026)
(0.0397464 0.0293755 0.227929)
(0.0794621 -0.0378417 0.328536)
(0.0647313 -0.0302259 0.404187)
(0.0612279 -0.0140103 0.411115)
(-0.0157986 0.0277198 0.382974)
(-0.0681005 -0.0666517 0.507453)
(-0.0170439 -0.00480766 0.670537)
(-0.0163088 0.00759899 0.358176)
(0.023376 0.000455666 0.373625)
(-0.044738 0.0458269 0.235955)
(0.00185594 -0.0172861 0.493075)
(0.0122916 -0.0556954 0.594015)
(0.0484684 0.0463233 0.388052)
(-0.0126005 0.0688023 0.221075)
(0.0352426 -0.00665235 0.547129)
(-0.054714 -0.0561025 0.655265)
(0.0289578 0.0288943 0.483553)
(0.0490004 0.0031433 0.341044)
(0.00394724 0.0553456 0.268687)
(0.0109762 0.0595383 0.27239)
(0.097873 0.0567473 0.414078)
(0.0394863 -0.0487559 0.529283)
(0.0304629 0.0205901 0.537706)
(0.0262908 0.0239573 0.447003)
(0.0329358 0.00840499 0.2434)
(0.0781745 -0.0440278 0.348199)
(0.0644571 -0.0350234 0.408552)
(0.0566982 0.00940922 0.444206)
(-0.0128526 0.0319948 0.403631)
(-0.0935965 -0.0866175 0.440967)
(0.0327335 -0.0741086 0.551025)
(-0.0155677 0.0139117 0.386693)
(0.00225339 -0.00384906 0.395131)
(-0.0388694 0.0398824 0.222227)
(-0.026111 -0.00918009 0.462642)
(0.0112847 -0.0585985 0.604377)
(0.0536796 0.0637638 0.377493)
(-0.00908911 0.0627438 0.220118)
(0.0188949 0.0226273 0.539912)
(-0.0670232 -0.0368378 0.650946)
(0.0445719 0.0738807 0.438438)
(0.0268609 -0.00846611 0.363609)
(0.00311687 0.0372506 0.267793)
(0.0210319 0.0453 0.269566)
(0.0967182 0.060712 0.429148)
(0.0252941 -0.00937754 0.547692)
(0.0279088 0.0646602 0.544843)
(0.0373412 0.029638 0.480328)
(0.0250968 -0.00538803 0.259458)
(0.0746501 -0.038487 0.371132)
(0.0422011 -0.0258153 0.429499)
(0.0369317 0.0434218 0.488365)
(-0.00841698 0.0321839 0.438286)
(-0.0897906 -0.0659608 0.403542)
(-0.000329621 -0.0653819 0.455971)
(-0.0387305 0.0311143 0.422365)
(-0.0176748 -0.00964425 0.414711)
(-0.0361238 0.0366257 0.218086)
(-0.0450031 0.00169352 0.39151)
(-0.0253306 -0.0528751 0.616674)
(0.0404462 0.0587469 0.360539)
(0.000577345 0.0430927 0.230687)
(-0.00123669 0.0342778 0.54614)
(-0.0605303 -0.0214002 0.623399)
(0.0260434 0.0812769 0.401014)
(-0.0100356 -0.0345952 0.361785)
(0.00256372 0.0195889 0.261245)
(0.0329511 0.038516 0.267171)
(0.0879586 0.0578386 0.453465)
(0.00217878 0.0277003 0.56281)
(0.0134771 0.0855239 0.544477)
(0.0367957 0.0249514 0.504491)
(0.0146869 -0.0117138 0.275433)
(0.0618507 -0.0238079 0.391126)
(-0.00697864 0.00386055 0.464425)
(0.0122191 0.0758081 0.522457)
(-0.00434438 0.0282054 0.478896)
(-0.0778413 -0.0449417 0.378227)
(-0.0451925 -0.0217337 0.429217)
(-0.0653352 0.0471481 0.456075)
(-0.0307737 -0.00838988 0.425205)
(-0.0378527 0.0383401 0.222871)
(-0.0456633 0.0109886 0.346098)
(-0.0295625 -0.00509465 0.581273)
(0.00872888 0.0224219 0.358917)
(0.00114581 0.0254946 0.238662)
(-0.0166811 0.0399137 0.565048)
(-0.055335 -0.0026352 0.591281)
(-0.0125254 0.056403 0.374003)
(-0.0489639 -0.0662436 0.338183)
(0.00224072 0.00670933 0.24859)
(0.0404326 0.031283 0.260764)
(0.071008 0.0619998 0.477666)
(-0.0210114 0.0498798 0.575851)
(-0.00310904 0.0840317 0.532493)
(0.0198485 0.0021797 0.49377)
(0.00540611 -0.018972 0.29425)
(0.0427606 0.000549938 0.415169)
(-0.0418063 0.026138 0.495436)
(-0.00933642 0.0772893 0.539154)
(-0.00221682 0.0290978 0.508533)
(-0.0726736 -0.0357588 0.358301)
(-0.0623994 0.00361959 0.428713)
(-0.0785876 0.0446311 0.468531)
(-0.0412186 -0.00246214 0.403695)
(-0.0407261 0.0431358 0.234745)
(-0.0290726 0.0172565 0.331663)
(-0.0240553 0.0411472 0.516599)
(-0.0107491 -0.00684431 0.358897)
(-0.00606346 0.0130782 0.242402)
(-0.0168507 0.0515482 0.580866)
(-0.0570087 0.0142229 0.587057)
(-0.0418896 0.0217757 0.357494)
(-0.07344 -0.0906912 0.288326)
(0.00365003 0.00546561 0.23673)
(0.0439521 0.0133726 0.261075)
(0.0483647 0.0740025 0.500349)
(-0.0353689 0.0553215 0.589564)
(-0.015658 0.0579569 0.522417)
(-0.0124916 -0.0392054 0.454671)
(-0.000938341 -0.025451 0.311029)
(0.0242979 0.0256909 0.446607)
(-0.0556767 0.038499 0.52711)
(-0.0217966 0.0575444 0.545953)
(0.0150479 -2.33136e-05 0.516735)
(-0.0681992 -0.0301658 0.347008)
(-0.0544645 0.016942 0.444471)
(-0.0641107 0.0278171 0.455587)
(-0.0433775 -0.00307873 0.363794)
(-0.0422315 0.0460248 0.244671)
(-0.0129028 0.011713 0.331153)
(-0.025436 0.026354 0.461919)
(-0.0141699 -0.01632 0.353522)
(-0.0137515 0.00839126 0.247882)
(-0.0038034 0.0646094 0.581072)
(-0.0522867 0.0237977 0.595364)
(-0.0498551 -1.56838e-05 0.362099)
(-0.0647147 -0.0840784 0.244985)
(0.00344309 0.0208307 0.231574)
(0.0377966 -0.00502345 0.270787)
(0.0344469 0.0848977 0.523354)
(-0.037357 0.0511129 0.599748)
(-0.0183572 0.0125846 0.523469)
(-0.0329176 -0.0364813 0.420595)
(-0.00667772 -0.0267659 0.321588)
(0.0101513 0.0385156 0.480375)
(-0.0456625 0.0457394 0.554536)
(-0.0441303 0.0124642 0.552608)
(0.0207511 -0.0349848 0.478893)
(-0.063545 -0.0232828 0.343597)
(-0.0373899 0.0193753 0.464944)
(-0.0105863 0.0086238 0.417836)
(-0.032387 -0.00644588 0.339103)
(-0.0453376 0.0495877 0.252141)
(-0.00993672 -0.0114364 0.332254)
(0.00756186 -0.00701759 0.422484)
(-0.00774497 -0.019618 0.346182)
(-0.0177262 0.0156019 0.257396)
(0.0170846 0.0656864 0.563017)
(-0.029703 0.0287761 0.612384)
(-0.042647 -0.0018711 0.377597)
(-0.0428223 -0.0605915 0.228259)
(0.00215307 0.0333658 0.23766)
(0.00657749 -0.0110009 0.28455)
(0.0398759 0.0906024 0.541075)
(-0.0287092 0.0490827 0.606037)
(-0.0101742 -0.0247511 0.528867)
(-0.0217682 -0.0251555 0.386934)
(-0.0130371 -0.0217965 0.330125)
(-0.00112114 0.0324312 0.508777)
(-0.0191652 0.053022 0.574036)
(-0.0398736 -0.0205919 0.550568)
(0.00646035 -0.0285783 0.418103)
(-0.0575331 -0.0167871 0.347386)
(-0.0231965 0.0176626 0.483715)
(0.0201098 0.000246446 0.398582)
(-0.0259333 -0.00913614 0.334173)
(-0.0512927 0.0559232 0.259814)
(-0.0240345 -0.0243326 0.335589)
(0.0484554 -0.0381451 0.394579)
(-0.00189205 -0.0247829 0.344748)
(-0.0167009 0.0312239 0.267861)
(0.040256 0.0189895 0.507754)
(0.02605 0.0435252 0.626575)
(-0.0135954 0.00323963 0.412984)
(-0.0180473 -0.0405136 0.230943)
(-0.000368437 0.0350702 0.265861)
(-0.0132999 -0.00732015 0.296777)
(0.0511213 0.0909922 0.543928)
(-0.0111688 0.0597857 0.611346)
(0.00287463 -0.0402183 0.532316)
(-0.00239409 -0.0275232 0.343579)
(-0.0221485 -0.0128197 0.345819)
(-0.0107628 0.0157952 0.528453)
(0.00735253 0.0605649 0.589955)
(-0.0116772 -0.0253449 0.54364)
(0.00109083 -0.0147807 0.376473)
(-0.0438911 -0.00976834 0.357904)
(-0.0129839 0.0169181 0.494215)
(0.0317126 -0.00759732 0.394108)
(-0.0319268 -0.0103269 0.342431)
(-0.0580762 0.0622323 0.269207)
(-0.042845 -0.00954171 0.34514)
(0.0599071 -0.0435917 0.399133)
(-0.00346021 -0.0308707 0.356509)
(-0.0120996 0.0451289 0.279773)
(0.0560407 -0.0538337 0.416529)
(0.0547157 0.0517324 0.602837)
(0.0105601 -0.0124588 0.446137)
(0.00660786 -0.0290907 0.25681)
(-0.00501755 0.0287627 0.311216)
(-0.00440273 2.12599e-05 0.295506)
(0.0558671 0.0891395 0.532867)
(0.00996538 0.070159 0.61833)
(0.0116785 -0.0375489 0.532559)