/*--------------------------------*- C++ -*----------------------------------*\
| =========                 |                                                 |
| \\      /  F ield         | OpenFOAM: The Open Source CFD Toolbox           |
|  \\    /   O peration     | Version:  5.x                                   |
|   \\  /    A nd           | Web:      www.OpenFOAM.org                      |
|    \\/     M anipulation  |                                                 |
\*---------------------------------------------------------------------------*/
FoamFile
{
    version     2.0;
    format      ascii;
    class       surfaceScalarField;
    location    "7.65";
    object      phi;
}
// * * * * * * * * * * * * * * * * * * * * * * * * * * * * * * * * * * * * * //

dimensions      [0 3 -1 0 0 0 0];

internalField   nonuniform List<scalar> 
29271
(
-3.6394e-06
-1.40983e-07
2.68551e-08
3.62114e-06
-3.83378e-06
4.40417e-07
3.37466e-07
3.10911e-06
-1.0436e-05
-6.51172e-07
-8.47702e-07
8.97989e-07
9.10762e-07
1.01261e-05
-1.06517e-05
-9.02052e-07
-1.90546e-07
-4.68566e-07
9.01904e-07
1.13109e-05
-9.13362e-06
-4.39511e-08
-3.02429e-07
1.22903e-06
7.671e-06
5.79954e-07
-1.11876e-05
-7.03733e-07
-2.07554e-06
1.46499e-06
2.20517e-07
1.22814e-05
-1.05456e-05
1.76591e-07
-1.68792e-06
2.9136e-06
-3.13857e-06
1.22819e-05
-1.15056e-05
8.21626e-07
-6.07888e-06
6.56808e-06
-5.21081e-06
1.54055e-05
-1.29087e-05
-1.1519e-06
-3.36839e-06
-9.19043e-07
-5.36322e-06
2.37113e-05
-7.5069e-06
-3.48801e-07
-1.20948e-07
6.525e-06
1.48933e-06
-2.44789e-06
1.0105e-07
7.66582e-07
1.52507e-06
-1.11635e-05
-1.86552e-06
8.57047e-07
3.69351e-07
-1.94785e-06
1.37504e-05
-1.0675e-05
4.0975e-06
-1.31461e-06
1.73263e-06
-4.41654e-06
1.0576e-05
-1.03249e-05
6.45828e-06
-3.8156e-06
7.52718e-06
-8.38799e-06
8.54303e-06
-1.04451e-05
7.54614e-06
-6.2699e-06
3.19674e-06
-6.04856e-06
1.20207e-05
-1.02752e-05
1.9192e-07
-4.68943e-07
-1.22325e-07
9.46512e-06
1.20939e-06
-1.0359e-05
-2.32067e-07
3.91815e-07
-9.22703e-07
8.65363e-06
2.46829e-06
-1.03677e-05
-6.26342e-07
3.52904e-06
1.98429e-06
-2.95677e-06
8.43747e-06
-1.05927e-05
7.02352e-06
-3.44528e-06
4.8047e-06
-4.95096e-06
7.16071e-06
-1.13264e-05
-3.21214e-07
-2.33349e-06
1.19478e-05
3.97315e-06
-1.93977e-06
-3.024e-06
4.32117e-07
1.22072e-07
2.49418e-06
-8.47858e-06
-3.05177e-07
1.52141e-07
6.4908e-06
2.15182e-06
-1.08058e-05
-2.46095e-07
1.9945e-07
-8.31261e-07
8.43798e-06
3.24574e-06
-2.91238e-06
7.26044e-07
2.11892e-07
2.00629e-06
-4.69118e-06
-9.05339e-07
1.17373e-06
4.43728e-06
-3.47165e-06
2.05565e-07
-1.68573e-06
4.93873e-06
9.99967e-07
-4.47092e-07
-1.0381e-05
1.26225e-06
-5.98153e-07
9.16403e-06
3.86889e-07
-1.20849e-05
-1.97675e-06
2.02711e-06
4.36059e-07
1.12116e-05
-8.18776e-06
-3.5174e-07
9.75881e-07
1.10366e-07
8.80591e-06
-1.35265e-06
3.08919e-06
5.33799e-07
-1.27199e-05
1.48532e-06
-2.69368e-06
1.03053e-05
1.68286e-07
2.39322e-06
3.786e-05
-9.53082e-06
-1.1495e-05
-6.77906e-06
-5.95956e-06
-4.17533e-07
-3.98172e-07
-9.06563e-07
-7.34254e-07
-1.29954e-06
-1.0012e-06
-9.80979e-07
-9.18772e-07
1.16549e-07
4.48364e-06
4.39676e-05
-1.07587e-05
-1.89159e-05
-7.80231e-06
-9.28669e-06
-7.48628e-07
-1.26285e-07
-6.32348e-07
-1.28684e-07
1.58126e-06
1.49868e-06
5.26256e-05
-1.62834e-07
1.77155e-07
1.64641e-07
-1.35421e-07
1.63118e-06
7.61403e-07
4.84947e-07
-2.09977e-05
-1.45284e-05
-1.03408e-05
-1.26432e-05
-1.09931e-05
-6.46344e-07
4.33643e-07
1.27869e-05
-1.71418e-06
1.83569e-07
-7.30248e-07
2.24058e-06
7.93875e-07
-1.35235e-05
1.12696e-06
2.00169e-06
7.75057e-08
9.52345e-06
1.86637e-06
-4.07863e-07
3.64506e-05
-9.29884e-06
-5.56989e-06
-7.00291e-06
-4.50618e-06
-3.16819e-06
-3.13098e-06
-1.55819e-06
-1.28069e-06
-3.21477e-06
-1.70271e-06
4.1071e-05
-6.71909e-06
-9.95843e-06
-4.94615e-06
-8.17987e-06
1.69582e-07
-5.23674e-07
4.21499e-05
-2.80989e-07
-1.32775e-07
-2.46001e-07
-1.2241e-07
1.51455e-07
1.6104e-07
-8.66379e-06
-1.34986e-05
-8.75212e-06
-1.21278e-05
-1.30785e-05
-2.54964e-07
1.56165e-06
-4.41957e-07
1.23833e-05
-9.39537e-06
-4.92931e-08
7.09965e-07
1.26343e-06
8.94985e-06
-1.47858e-06
3.33927e-07
-3.44288e-07
3.2816e-05
-1.52697e-06
-6.50102e-07
-5.80538e-07
-3.68007e-07
-2.86913e-07
-7.28896e-08
-1.48567e-07
-7.48567e-06
-5.67006e-06
-7.99478e-06
-8.429e-06
-8.98044e-07
-5.37044e-07
3.48618e-05
-5.06593e-07
-1.56437e-07
-2.26056e-07
-4.62096e-07
-2.35804e-07
-1.32212e-07
-5.40648e-06
-9.38535e-06
-8.54272e-06
-9.74178e-06
-9.15654e-06
4.98993e-07
5.54513e-07
6.68132e-06
-3.66875e-06
7.07122e-07
-1.3097e-06
4.25486e-06
-6.65297e-06
-2.50649e-08
-2.67592e-07
6.62686e-06
-8.45912e-06
-1.93277e-07
5.19084e-07
-1.7865e-08
7.61413e-06
-2.15972e-06
-3.59431e-07
-5.26459e-08
2.55624e-06
-3.54441e-06
-1.45141e-07
-8.21914e-08
3.78222e-06
-6.09111e-06
-5.31643e-07
-4.21035e-07
7.0332e-06
2.54389e-07
3.12754e-07
-8.50676e-06
1.31245e-07
2.63042e-07
7.54533e-06
2.42991e-07
-1.10658e-05
-2.40654e-07
6.67093e-07
1.22309e-07
1.0274e-05
-1.03251e-05
2.28775e-07
3.97111e-07
-4.57603e-07
1.09516e-05
-7.9479e-07
3.05791e-07
1.31931e-07
-8.70377e-06
3.23881e-07
8.15923e-08
7.86057e-06
7.82328e-07
1.93487e-06
4.64095e-05
-2.02701e-06
-2.23018e-06
-8.65983e-07
-1.06184e-06
-1.77504e-06
-2.01612e-06
-6.13116e-07
-6.77432e-07
-1.30152e-06
2.27261e-06
5.00314e-05
-2.06909e-06
-1.78669e-06
-1.19746e-06
-1.19932e-06
-3.26584e-07
1.2912e-06
5.34993e-05
-6.73105e-07
-2.35241e-07
-5.90555e-07
-3.13667e-07
-3.67621e-07
-2.7217e-07
-6.87506e-07
-1.358e-05
2.40597e-07
-2.31433e-09
1.30572e-05
-2.62788e-06
-8.96148e-08
-2.95275e-07
3.01316e-06
-1.61254e-07
-8.18303e-06
-2.97906e-07
6.90633e-07
3.38594e-07
7.61296e-06
1.26925e-06
-4.88293e-08
4.21925e-05
-1.89773e-06
-1.60124e-06
-7.55645e-07
-7.72861e-07
-1.66103e-06
-2.39317e-07
4.65132e-05
-3.56056e-07
1.86171e-07
4.20867e-05
-1.64859e-07
-9.19414e-07
-3.83515e-08
3.59554e-07
2.61262e-07
3.65152e-07
-1.23141e-05
-1.7197e-07
-1.30325e-06
5.6383e-07
1.28695e-05
-8.52211e-06
-3.90414e-07
5.12279e-07
1.13294e-06
7.91796e-06
-6.5065e-07
1.73758e-07
-3.10002e-08
3.56042e-05
-7.46818e-07
-3.96918e-07
-5.46083e-07
-5.19241e-07
-1.08403e-07
-2.53623e-07
-4.08676e-07
-7.8677e-08
-6.71802e-08
3.53641e-05
9.8776e-08
-9.95753e-08
6.65692e-08
6.25574e-08
-3.85694e-07
-1.64573e-07
-6.63018e-06
-7.38643e-08
1.4047e-07
6.67107e-06
-4.86197e-06
-4.02686e-07
8.16379e-08
5.19673e-06
-6.64438e-06
4.07535e-08
-2.08713e-07
6.7845e-06
-7.64053e-06
1.29341e-09
2.95836e-07
2.31732e-07
7.04449e-06
-3.10988e-06
-1.90683e-07
-1.11019e-07
3.41088e-06
-3.89626e-06
8.53662e-07
-4.33019e-07
3.47561e-06
-7.13778e-06
3.48356e-07
1.33049e-06
5.45893e-06
-8.46487e-07
-6.32639e-07
-7.37513e-06
-3.00866e-07
1.85275e-06
7.30237e-06
-1.42572e-06
-9.91902e-06
1.75972e-06
-2.9673e-06
2.10526e-06
1.04471e-05
-1.0712e-05
1.18649e-07
-1.29942e-06
1.22981e-06
7.50551e-06
3.15748e-06
-8.60883e-07
1.01171e-08
-7.68805e-06
1.02994e-06
1.57244e-07
7.35163e-06
1.00049e-05
6.79047e-06
7.4162e-05
-3.19499e-06
-3.62481e-06
-7.86124e-06
-7.92209e-06
-2.86829e-06
-3.07168e-06
-7.50539e-06
-8.49943e-06
-1.19195e-05
5.27447e-06
8.51093e-05
-3.19109e-06
-2.90725e-06
-6.58692e-06
-5.74271e-06
-2.23867e-06
2.01774e-08
8.11705e-05
-3.70812e-06
-3.18577e-06
-6.83742e-06
-7.31339e-06
-2.4209e-06
-6.81998e-06
-7.08655e-06
-1.26009e-05
-3.03167e-07
-1.10719e-08
1.06764e-05
-3.10734e-06
-1.7669e-08
-1.14478e-06
4.26815e-06
2.93331e-07
-7.38781e-06
4.16696e-08
4.70134e-07
-1.44077e-07
6.72676e-06
5.86689e-06
-1.17166e-05
7.03919e-05
-1.86909e-06
-1.97104e-06
-6.06669e-06
-5.65244e-06
-7.67338e-06
-9.40763e-06
7.47356e-05
-8.56292e-07
-4.36704e-06
6.41225e-05
-9.63279e-07
-4.54766e-06
-4.47838e-06
-3.89315e-06
-5.74794e-06
-4.83525e-06
-1.20742e-05
6.46665e-07
1.17592e-06
-8.49995e-07
1.02453e-05
-7.78259e-06
8.57896e-07
2.85401e-07
-1.94162e-06
7.59329e-06
9.87623e-07
-1.25124e-07
-2.69132e-06
5.99887e-05
-2.40549e-06
-2.29103e-06
-6.13638e-06
-6.66459e-06
-3.44892e-06
-5.72847e-06
-6.60972e-06
-3.78846e-06
-2.65892e-06
5.79926e-05
-3.27831e-06
-4.82368e-06
-4.07369e-06
-2.24178e-06
-5.7857e-06
-5.51076e-06
-6.19941e-06
-2.20227e-06
-2.34139e-06
2.58757e-06
-6.26719e-06
1.49846e-08
6.54085e-07
5.59812e-06
-6.59273e-06
3.96125e-07
-5.95843e-07
4.10113e-06
-6.20021e-06
8.14638e-07
-1.39221e-06
1.60931e-07
3.95793e-06
-3.86136e-06
3.21536e-07
1.14686e-06
2.39297e-06
-2.96199e-06
6.72971e-08
3.32015e-07
2.56268e-06
-3.91431e-06
3.31246e-07
7.21749e-07
2.86131e-06
-1.2985e-06
-7.80663e-07
-5.72143e-06
8.73539e-08
2.56074e-06
5.1525e-06
-9.63605e-07
-7.97933e-06
4.68005e-07
-3.03435e-07
2.68909e-06
6.08928e-06
-4.6696e-06
-8.398e-07
8.01708e-07
2.86631e-06
2.28971e-06
-4.48332e-07
-1.35201e-06
-8.10004e-07
-5.51316e-06
2.03045e-06
9.02405e-07
4.74233e-06
4.64079e-06
6.31757e-06
7.64994e-05
-3.09052e-06
-3.95746e-06
-7.0277e-07
-6.50644e-07
-2.34457e-06
-2.41096e-06
-4.14699e-07
2.75948e-07
-4.82157e-06
8.16158e-06
9.23572e-05
-3.26584e-06
-3.17345e-06
3.84653e-07
1.07491e-07
-2.39436e-06
4.6166e-06
8.04067e-05
-3.89966e-06
-3.39959e-06
-3.47942e-07
1.92736e-07
-2.16625e-06
1.55614e-06
1.78456e-06
-6.56032e-06
-3.36751e-06
1.21955e-06
6.31391e-06
-4.36167e-06
-1.37585e-07
8.45646e-07
3.65361e-06
-1.09749e-06
-4.62367e-06
-3.42693e-07
1.84722e-06
7.91102e-08
4.13753e-06
3.08062e-06
-2.34219e-06
7.67823e-05
-1.50309e-06
-1.62343e-06
1.05288e-06
1.26239e-06
-1.07771e-06
1.29603e-06
8.57595e-05
-1.41589e-06
5.45421e-07
6.33599e-05
-1.79632e-06
1.96425e-06
1.61134e-06
2.18e-07
1.66859e-06
1.5061e-06
-5.0875e-06
1.10674e-07
-4.66867e-07
3.48382e-07
3.67943e-06
-4.19674e-06
-1.11665e-06
2.59277e-06
8.71912e-07
1.77533e-06
7.33812e-08
1.9453e-06
-5.9521e-07
5.89118e-05
-2.67322e-06
-1.39048e-06
-1.06563e-06
-3.18208e-07
-3.28726e-08
1.61676e-06
1.24825e-06
-4.13499e-07
1.26287e-07
5.62057e-05
-1.60867e-07
4.93407e-07
7.21093e-07
1.35177e-07
1.72437e-06
2.40224e-06
1.34396e-06
-1.1551e-06
-4.71502e-07
4.14568e-07
-4.55764e-06
-1.64491e-07
1.00445e-06
3.71768e-06
-1.41142e-06
-1.2592e-06
3.81236e-07
1.69417e-06
1.16863e-06
4.13067e-07
-9.02691e-07
-5.14988e-07
-3.77333e-08
-6.89276e-07
4.49954e-07
7.33371e-07
-4.94048e-07
-2.40799e-06
-2.01219e-07
2.60038e-07
2.34917e-06
-1.84797e-06
1.72139e-07
6.87674e-07
9.8816e-07
-6.51986e-07
-9.51754e-07
-5.37002e-06
9.58794e-07
8.89571e-07
5.12539e-06
-6.96799e-07
-6.56031e-06
-4.15535e-07
4.8128e-07
1.01741e-07
7.08963e-06
-2.38825e-06
-1.27761e-07
5.64122e-07
4.53146e-09
2.48893e-06
-5.41576e-07
-1.12242e-06
-4.65387e-07
-4.81093e-06
9.31747e-07
1.00656e-06
4.46043e-06
4.55119e-06
4.63302e-06
7.72571e-05
-1.13986e-06
-1.06502e-06
-1.45337e-06
-1.21406e-06
-1.22097e-06
-9.34898e-07
-1.45405e-06
-1.45968e-06
-2.45886e-06
6.4915e-06
9.2036e-05
-2.26483e-08
5.81663e-08
2.81814e-07
5.2242e-07
9.12947e-07
3.93872e-06
7.52713e-05
-4.5699e-07
-2.21295e-07
-5.72788e-07
-1.13502e-06
6.17068e-07
-2.24499e-07
-1.81654e-07
-7.15173e-06
-1.33785e-06
1.68987e-06
1.28541e-06
6.42725e-06
4.07471e-07
-5.49997e-07
5.25026e-07
-3.82501e-07
-3.63928e-06
-1.33071e-07
4.10129e-07
3.36223e-06
-8.10826e-07
-5.07522e-06
-6.45564e-07
2.34903e-07
4.33974e-07
5.86273e-06
1.47183e-06
-5.07932e-07
7.79327e-05
5.36897e-07
8.14608e-07
3.27068e-07
8.40178e-07
1.43193e-06
4.12342e-06
8.81674e-05
1.10338e-06
9.1282e-07
6.13588e-05
1.59844e-06
7.42889e-07
6.74239e-07
7.1975e-07
1.02801e-06
5.92206e-07
-5.23324e-06
-7.26238e-08
2.07174e-06
-6.30249e-07
4.96775e-06
4.30195e-07
-9.78409e-07
-9.98015e-07
-7.53999e-07
2.30023e-06
-2.58832e-07
-7.82792e-07
1.35605e-06
7.21823e-07
-2.82611e-07
-7.53641e-07
1.87178e-06
9.13348e-07
5.82597e-05
-1.30985e-06
-4.14293e-07
-1.19931e-06
-5.53952e-07
4.00051e-07
3.54917e-07
8.14794e-08
-2.51061e-08
1.70767e-06
5.55344e-05
-3.85461e-07
3.28659e-07
-4.91249e-07
1.96642e-06
1.75595e-06
1.80968e-06
-2.84313e-06
-9.14089e-07
7.92268e-07
3.85267e-06
-1.67499e-06
9.59047e-09
1.20171e-06
4.63695e-07
-2.57597e-06
2.7003e-07
5.01212e-08
3.16917e-06
-2.83154e-06
6.23165e-07
-1.65626e-06
8.62874e-07
4.70943e-06
7.94826e-07
-8.71379e-07
3.57928e-07
-2.81375e-07
-2.32114e-06
-1.01472e-07
3.75447e-08
2.38507e-06
-1.18495e-07
-6.82845e-08
7.13404e-07
-5.26625e-07
-7.32767e-08
-3.90302e-07
-4.31492e-06
6.45697e-07
6.07186e-07
3.52561e-06
-6.23551e-07
-7.75229e-06
-9.01132e-08
-2.74487e-07
2.73409e-07
8.46703e-06
-1.794e-06
4.69103e-07
-8.21754e-08
-5.99416e-08
1.15941e-06
3.07604e-07
-1.17342e-06
-1.13082e-07
-3.84433e-06
7.21267e-07
1.09162e-06
3.31795e-06
3.42163e-06
2.45818e-06
7.86695e-05
-9.2787e-07
-9.98641e-07
-5.61162e-07
-6.26125e-07
-1.08018e-06
-1.35836e-06
-7.22355e-07
-1.01757e-06
-2.4148e-06
4.20552e-06
9.19885e-05
1.53529e-07
4.64264e-07
3.68239e-07
6.92398e-07
-3.30193e-07
4.0957e-06
7.10082e-05
-4.81817e-07
-4.54069e-07
-2.35231e-07
-3.26267e-07
-7.89453e-08
-3.30777e-07
-1.00976e-08
-6.63104e-06
3.02515e-07
4.54077e-07
3.08864e-07
5.2354e-06
3.15469e-08
-5.64104e-07
2.36949e-07
-4.89764e-07
-3.49547e-07
1.13492e-06
-3.03154e-06
-3.87341e-07
5.97978e-07
2.8209e-06
-9.54004e-07
-6.40652e-06
-7.36498e-07
7.53036e-07
5.38738e-07
6.80525e-06
-1.68966e-07
9.66226e-07
7.74832e-05
1.05519e-07
7.19062e-07
3.57907e-07
9.27907e-07
1.77252e-06
4.48569e-06
8.59458e-05
1.07419e-06
1.01698e-06
6.02287e-05
4.47738e-07
1.27259e-06
4.71075e-07
7.62845e-07
1.21841e-06
7.34488e-07
-5.71912e-06
6.34111e-07
6.96759e-07
-5.8471e-07
6.04715e-06
-2.76243e-06
5.02402e-07
-3.30326e-07
-2.2023e-07
-3.84186e-07
3.19477e-06
9.02382e-07
-2.76247e-07
5.89855e-07
-6.98124e-08
-7.2284e-07
-4.23338e-07
4.09495e-07
6.88936e-07
5.69025e-05
-4.5477e-07
2.23627e-07
-7.59339e-08
3.49839e-07
4.19734e-07
4.16401e-07
3.4607e-07
-1.99088e-08
1.90845e-06
5.42698e-05
-6.09358e-07
5.35735e-08
-6.54297e-07
1.90018e-06
1.84219e-06
1.73889e-06
-4.75731e-06
-6.84459e-07
9.80887e-07
5.45795e-06
4.00106e-07
-9.00729e-07
2.18144e-06
-1.37707e-06
-3.03747e-07
5.30737e-07
9.49047e-07
-5.6688e-07
-9.12904e-07
-3.57484e-06
9.94216e-07
-1.02291e-06
4.29248e-06
-5.82843e-06
9.37334e-07
-1.45128e-06
1.41118e-06
6.83965e-06
-2.57674e-07
-9.56055e-07
5.29704e-07
6.84025e-07
-2.56438e-06
4.17037e-07
-6.00619e-07
2.74796e-06
8.90745e-07
-5.55872e-07
6.72706e-07
-1.00758e-06
3.95891e-07
9.2312e-07
-3.23666e-06
-7.97058e-07
-7.09702e-07
3.42441e-06
-8.86582e-08
-8.77037e-06
9.68982e-07
-9.80123e-07
-5.10859e-08
8.92125e-06
-8.62163e-07
8.47495e-07
-1.20022e-06
-6.30344e-07
1.00791e-06
8.37317e-07
-9.98741e-07
4.52242e-07
-3.14407e-06
-3.97171e-07
6.32997e-07
3.45475e-06
-3.4827e-07
4.72794e-07
7.50401e-05
5.83102e-07
-7.34753e-08
6.67706e-07
4.86492e-07
4.09489e-07
-9.40604e-08
8.97921e-07
6.27747e-07
-1.54645e-06
2.5562e-06
8.77023e-05
3.52963e-07
5.79644e-07
8.83429e-07
1.11214e-06
3.95103e-07
2.22825e-06
6.21267e-05
5.51129e-07
6.39146e-07
8.43204e-07
6.87376e-07
6.36168e-07
4.71257e-07
8.83406e-07
-5.14593e-06
4.38308e-08
3.5031e-07
3.2869e-08
5.11402e-06
-1.41982e-06
7.98112e-07
-3.03958e-07
2.59182e-07
-5.28561e-07
1.19504e-06
-2.71753e-06
-5.17823e-07
5.32465e-07
2.70288e-06
-7.27879e-07
-7.05543e-06
-3.29418e-07
3.76067e-07
3.41814e-07
7.39485e-06
-1.73688e-06
1.49469e-06
7.36818e-05
5.96175e-07
1.06017e-06
1.18616e-06
1.67389e-06
2.27038e-06
4.65282e-06
7.98419e-05
1.54088e-06
1.43861e-06
5.4896e-05
7.57858e-07
1.50539e-06
3.25234e-07
1.20224e-06
1.93611e-06
1.125e-06
-5.84812e-06
3.4375e-07
1.2049e-06
2.00026e-07
5.64032e-06
-3.49276e-06
-9.79545e-08
-9.90827e-07
1.42836e-07
7.04678e-07
3.73402e-06
2.33984e-07
-1.34158e-07
-1.6748e-07
-3.57573e-07
5.13511e-07
-8.82841e-08
-1.21874e-06
5.7834e-07
5.4034e-05
6.38605e-07
9.4393e-07
9.89649e-07
9.77126e-07
4.63115e-07
4.95886e-07
4.95296e-07
-4.97403e-08
1.91881e-06
5.1284e-05
-5.30105e-07
1.54636e-07
-5.60958e-07
1.83344e-06
1.8727e-06
1.78112e-06
-6.43864e-06
-5.20178e-07
1.24535e-06
7.10233e-06
3.13191e-07
-7.15228e-07
2.13819e-06
-1.67882e-06
-5.7331e-08
1.24884e-06
-9.60997e-07
1.06224e-06
-3.57101e-07
-9.9298e-07
-4.84596e-06
1.12079e-06
-1.2379e-06
5.54142e-06
-7.58911e-06
9.46184e-07
-1.18797e-06
1.37862e-06
8.37109e-06
-1.20605e-06
-9.82634e-07
4.49315e-07
1.73937e-06
-2.94195e-06
4.50006e-07
-6.98673e-07
3.19062e-06
8.67931e-07
-6.37942e-07
3.83496e-07
-6.13485e-07
5.12176e-07
1.2821e-06
-3.4415e-06
-9.02997e-07
-7.89229e-07
3.33945e-06
6.64643e-07
-9.01695e-06
8.7598e-07
-9.69844e-07
-8.92194e-07
9.33836e-06
-1.33474e-06
5.96608e-07
-1.33648e-06
-7.45697e-07
1.91668e-06
9.03621e-07
-5.53027e-07
1.14334e-06
-3.99496e-06
-1.53709e-06
2.33271e-07
4.70847e-06
-4.53247e-06
-2.1105e-06
6.93417e-05
1.13237e-06
9.99515e-07
1.16872e-06
1.69897e-06
1.76186e-06
1.35578e-06
2.16791e-06
2.05617e-06
-8.67528e-07
2.09831e-07
7.8037e-05
1.03893e-06
1.33273e-06
1.68521e-06
1.73365e-06
9.31347e-07
1.95362e-06
5.1473e-05
1.21032e-06
1.50654e-06
1.18814e-06
1.35156e-06
1.32172e-06
-2.99809e-07
6.22779e-07
-5.98729e-06
1.47628e-06
3.19169e-07
-5.44078e-07
5.66726e-06
3.01432e-07
-3.38211e-07
9.55713e-07
-6.52379e-07
-2.66555e-07
-2.77738e-06
-5.35239e-07
3.89938e-07
2.92268e-06
-2.15525e-07
-7.85036e-06
-1.2644e-07
-3.85791e-07
1.54075e-07
8.42404e-06
-4.06754e-06
1.41239e-06
6.81443e-05
1.17126e-06
1.52166e-06
1.57833e-06
1.81094e-06
3.6301e-07
5.02462e-06
7.05966e-05
9.51042e-07
2.40733e-06
4.86711e-05
-2.08228e-07
7.45642e-08
-1.13429e-06
1.83863e-06
2.87539e-06
1.73706e-06
-5.29249e-06
-1.20528e-07
6.18298e-07
7.33862e-07
5.0119e-06
-3.30507e-06
-5.54541e-07
-6.50205e-07
9.14887e-07
1.40613e-06
2.1888e-06
-1.26469e-06
-1.9561e-07
-3.00869e-07
-2.57524e-07
1.93413e-06
8.45669e-08
-2.80102e-06
5.99254e-07
5.22599e-05
9.14394e-07
1.03801e-06
1.01269e-06
8.72777e-07
4.24738e-07
6.45499e-07
4.80183e-07
-2.37926e-07
1.59969e-06
4.88944e-05
-6.25614e-07
-8.39273e-08
-6.40005e-07
1.63875e-06
1.47309e-06
1.48914e-06
-8.01319e-06
-1.87671e-07
1.86933e-06
8.50094e-06
-6.08488e-07
-1.56345e-06
1.16387e-06
1.00807e-06
-6.18945e-06
8.2475e-07
-8.86363e-07
6.85031e-06
-9.20714e-06
8.06058e-07
-1.10122e-06
1.12113e-06
9.98087e-06
-2.40988e-06
-1.05622e-06
4.48028e-07
3.01808e-06
-3.47849e-06
2.39399e-07
-3.98215e-07
3.63731e-06
2.78497e-07
-4.2717e-07
7.42913e-08
7.43815e-08
2.24517e-07
8.02432e-07
-3.17606e-06
-1.49344e-07
-7.55318e-07
3.05377e-06
1.41555e-06
-1.00381e-05
-1.73669e-07
-4.07132e-07
-1.7678e-06
1.09712e-05
-2.74018e-06
-2.22939e-07
-1.22755e-06
-2.09997e-08
3.51428e-06
6.97389e-07
-7.96427e-08
1.7741e-06
-5.47363e-06
-2.57188e-06
1.17077e-07
6.23397e-06
-6.58977e-06
-1.94461e-06
6.19472e-05
1.17137e-06
1.53236e-06
1.31104e-06
1.47003e-06
2.5696e-06
2.19618e-06
2.88186e-06
2.79652e-06
-1.33898e-06
-9.9406e-07
6.72652e-05
1.6906e-06
1.42227e-06
2.14814e-06
1.254e-06
-5.51451e-07
3.22755e-06
4.46351e-05
3.89916e-07
1.24668e-06
2.91302e-07
1.30002e-06
-4.06204e-07
-2.75776e-07
2.7686e-07
-5.60205e-06
6.35541e-07
-6.19486e-07
5.03454e-06
-3.07931e-06
-3.63797e-07
1.78556e-07
3.26455e-06
5.11891e-08
-9.06139e-06
-1.42486e-07
-7.10566e-07
2.58159e-07
9.60509e-06
-5.01438e-06
1.69155e-06
6.4109e-05
1.18224e-06
1.1587e-06
1.64782e-06
1.42467e-06
-2.72228e-06
4.95322e-06
6.23572e-05
-1.56913e-06
2.60978e-06
4.46016e-05
-1.48956e-06
-7.64555e-07
-8.52054e-07
1.75362e-06
2.92927e-06
1.95739e-06
-6.7124e-06
-5.37512e-07
-2.5436e-06
1.54324e-06
6.68115e-06
-2.51442e-06
-2.04676e-07
-1.19574e-07
-1.40314e-07
3.07798e-06
-9.89931e-08
-3.46294e-06
7.36109e-07
5.22531e-05
6.3283e-07
7.01145e-07
7.70562e-07
6.29875e-07
3.79138e-07
8.17641e-07
4.93912e-07
-5.58413e-07
1.0491e-06
4.86225e-05
-7.50132e-07
-2.79618e-07
-7.61155e-07
1.15804e-06
9.31611e-07
9.72821e-07
-9.23174e-06
-8.7641e-08
2.09916e-06
9.27159e-06
-1.3022e-06
-5.90821e-07
5.19e-07
1.37402e-06
-7.45818e-06
6.03709e-07
-4.15378e-07
8.00596e-06
-1.08442e-05
5.8388e-07
-9.00866e-07
6.81346e-07
1.1529e-05
-3.67049e-06
-1.0549e-06
5.10508e-07
4.21489e-06
-3.58345e-06
2.32416e-08
1.93265e-07
3.36695e-06
-4.48179e-07
-1.92463e-07
-1.70284e-07
8.10925e-07
2.67441e-07
1.78228e-07
-3.09439e-06
3.29792e-07
-1.00875e-06
3.32767e-06
8.83891e-07
-1.21361e-05
-4.23822e-07
-6.07381e-08
-1.68896e-06
1.34257e-05
-4.43073e-06
-6.32617e-07
-1.06793e-06
7.02459e-07
5.19028e-06
2.38533e-07
4.31494e-07
1.93466e-06
-6.98298e-06
-3.07337e-06
8.50963e-08
7.60511e-06
-6.14373e-06
2.83154e-06
5.24944e-05
8.8136e-07
-2.39733e-07
9.25495e-07
-4.97487e-07
3.01848e-06
2.75183e-06
2.90615e-06
3.01889e-06
-5.21283e-07
8.32181e-07
5.82048e-05
1.33759e-06
-1.52837e-07
1.43366e-06
-1.26076e-08
-2.5309e-07
5.3772e-06
3.81647e-05
-5.56267e-07
7.14776e-07
-5.23086e-07
6.55337e-07
4.03648e-07
-1.73616e-07
3.04261e-07
-4.49973e-06
6.85151e-07
-4.13267e-07
3.97475e-06
-3.54725e-06
-1.84153e-07
-1.60561e-07
3.89197e-06
8.01743e-07
-1.0123e-05
-1.81518e-07
-1.31274e-06
9.81368e-08
1.07174e-05
-3.48091e-06
3.6228e-06
6.26243e-05
1.15458e-06
6.34649e-07
1.48771e-06
8.97443e-07
-2.33425e-06
5.20385e-06
5.68389e-05
-6.5629e-07
2.37359e-06
4.05882e-05
-3.86777e-07
-6.80133e-07
-1.76458e-08
1.85409e-06
2.65076e-06
1.91876e-06
-6.1798e-06
-2.71948e-07
-7.21653e-07
8.6722e-07
5.64989e-06
-3.66206e-06
5.59213e-08
-2.13346e-07
-1.48006e-07
4.11256e-06
-1.45072e-07
-3.10765e-06
8.72409e-07
5.46827e-05
2.9221e-07
4.68912e-07
2.78189e-07
4.62111e-07
4.51219e-07
9.24783e-07
5.51048e-07
-5.3733e-07
6.48676e-07
4.98606e-05
-6.59116e-07
-1.7093e-07
-5.34111e-07
7.62143e-07
6.44985e-07
7.03729e-07
-9.91661e-06
-1.24044e-08
1.78548e-06
9.97979e-06
-1.85658e-06
-4.26728e-07
-2.1415e-07
2.49746e-06
-8.54633e-06
4.1344e-07
-9.61356e-08
9.10144e-06
-1.23161e-05
4.35837e-07
-8.13155e-07
3.71077e-07
1.2971e-05
-4.7083e-06
-8.25334e-07
5.11756e-07
5.02188e-06
-3.15305e-06
1.49448e-07
5.76308e-09
2.99784e-06
-1.15563e-06
-1.13083e-07
-2.21504e-07
1.49021e-06
4.33887e-07
-2.56025e-07
-3.83676e-06
2.10924e-07
-1.0434e-06
4.49137e-06
-3.77982e-07
-1.46965e-05
-1.55497e-07
1.87531e-07
-3.94343e-07
1.54368e-05
-5.78161e-06
-1.53537e-07
-9.62055e-07
7.79611e-07
6.08505e-06
3.25458e-08
1.09955e-06
1.41517e-06
-8.06841e-06
-1.8115e-06
-9.23695e-07
8.28888e-06
-3.11696e-06
5.86507e-06
4.25989e-05
6.72105e-07
-8.3115e-07
7.27343e-07
-1.74751e-07
1.96243e-06
2.18146e-06
1.05592e-06
1.55398e-06
1.23186e-06
6.21374e-06
4.93949e-05
-9.19218e-08
-9.67518e-07
-5.24108e-08
-6.40809e-07
-2.81975e-07
6.69561e-06
3.50665e-05
-1.11768e-06
2.26966e-07
-1.00627e-06
1.42415e-07
-1.57694e-08
-2.52126e-07
-6.11938e-08
-3.62512e-06
9.27675e-07
-9.02195e-07
3.31767e-06
-4.27915e-06
2.40807e-07
-6.12174e-07
4.65051e-06
7.63039e-07
-1.1367e-05
8.36133e-07
-9.68476e-07
-6.25036e-07
1.13613e-05
-1.3023e-06
5.21802e-06
6.28669e-05
7.58301e-07
2.61627e-07
2.05917e-07
4.80941e-07
-6.4689e-07
7.43556e-06
5.49616e-05
-6.91198e-07
2.09829e-06
3.92843e-05
2.20836e-07
-5.47872e-07
3.93605e-07
1.72715e-06
2.43388e-06
1.7179e-06
-5.15601e-06
-1.19459e-08
-4.26403e-07
1.9336e-07
4.7098e-06
-4.35674e-06
7.15927e-08
5.0787e-08
-1.21115e-07
4.41649e-06
-6.10123e-08
-2.53977e-06
9.01319e-07
6.00323e-05
-4.73016e-07
2.73206e-07
-2.82975e-07
2.09107e-07
4.00864e-07
9.19187e-07
4.60478e-07
-3.42379e-07
5.61317e-07
5.27806e-05
-3.24134e-07
9.23712e-08
-1.48358e-07
7.29418e-07
6.17555e-07
7.90072e-07
-1.0761e-05
7.76159e-08
1.4759e-06
1.09634e-05
-3.13314e-06
1.76025e-08
-5.87434e-07
3.70297e-06
-9.77373e-06
1.53351e-07
1.33706e-08
1.05083e-05
-1.36824e-05
4.91019e-07
-8.48664e-07
3.14768e-07
1.42866e-05
-5.18993e-06
-5.05109e-07
4.01214e-07
5.29382e-06
-2.9028e-06
2.46331e-07
-2.04879e-07
2.86134e-06
-1.8364e-06
-5.88455e-07
2.58838e-07
2.16601e-06
3.49322e-07
-1.63388e-07
-5.14678e-06
1.10054e-07
-8.44162e-07
5.69495e-06
-5.77096e-07
-1.55344e-05
-2.49359e-07
9.28627e-07
5.68057e-07
1.48642e-05
-6.39887e-06
2.36231e-07
-7.31087e-07
6.85605e-07
6.73521e-06
-5.27084e-07
7.41369e-07
1.14242e-06
-8.19296e-06
1.79993e-07
-1.30965e-06
7.43883e-06
3.37962e-06
4.0225e-06
3.60386e-05
8.55861e-07
1.2326e-07
6.86031e-07
3.44036e-07
-9.08671e-07
-1.07385e-07
-1.67584e-06
-1.59095e-07
3.1155e-06
9.42646e-06
4.46643e-05
-8.92434e-07
-1.49695e-06
-7.30586e-07
-1.31181e-06
-2.31882e-07
6.63119e-06
3.47732e-05
-1.41926e-06
-3.51668e-08
-1.22035e-06
-3.11512e-08
-7.84531e-08
-1.85003e-07
-2.10391e-08
-3.14075e-06
8.60516e-07
-1.03709e-06
3.08544e-06
-4.87935e-06
7.43604e-07
-8.75267e-07
5.01101e-06
2.08307e-07
-1.02431e-05
1.38745e-06
6.78645e-07
-4.9809e-07
8.46674e-06
4.77481e-07
5.55673e-06
6.32177e-05
-1.04576e-06
-5.06328e-07
-5.09655e-07
-3.00726e-07
6.48653e-07
9.76871e-06
5.44482e-05
-3.54048e-07
1.79304e-06
3.98422e-05
5.34179e-07
-3.0502e-07
5.60824e-07
1.30179e-06
2.14718e-06
1.04403e-06
-4.41405e-06
5.46075e-07
1.46928e-08
-8.31189e-07
4.33043e-06
-4.46039e-06
3.00781e-08
-4.69675e-08
3.50896e-07
4.53361e-06
-4.07223e-07
-8.69549e-07
8.55666e-07
6.4777e-05
-4.87969e-07
-1.66702e-07
1.79036e-07
-2.00874e-07
2.82963e-07
8.66629e-07
3.52871e-07
3.61558e-08
6.80265e-07
5.71166e-05
1.37779e-07
5.62852e-07
3.29617e-07
9.43248e-07
8.36192e-07
1.03702e-06
-1.1872e-05
3.25984e-07
1.26619e-06
1.2109e-05
-4.16565e-06
5.19803e-07
-8.59543e-07
4.50539e-06
-1.12491e-05
6.01324e-08
1.37804e-07
1.19068e-05
-1.49253e-05
5.06474e-07
-8.11712e-07
3.86468e-07
1.55244e-05
-5.46845e-06
-3.29935e-07
1.03506e-07
5.69488e-06
-2.87257e-06
3.48153e-07
-3.47604e-07
2.87202e-06
-2.41695e-06
-1.26792e-06
1.11852e-06
2.56635e-06
-2.34473e-07
7.87294e-07
-6.20508e-06
-8.66923e-07
-5.45372e-08
6.57372e-06
-4.21237e-07
-1.34881e-05
3.41383e-07
9.67741e-07
1.19308e-06
1.14071e-05
-7.13041e-06
5.81588e-07
-8.09791e-07
4.78305e-07
7.43176e-06
-5.51454e-07
-7.53362e-07
-2.52012e-07
-6.33915e-06
2.0594e-06
4.57189e-08
5.23941e-06
8.20912e-06
2.9721e-06
3.33589e-05
3.84388e-07
7.76671e-08
2.05927e-08
-1.60869e-07
-2.74051e-06
-1.43323e-06
-2.70042e-06
-1.94917e-06
4.54293e-06
9.46816e-06
4.50767e-05
-1.47707e-06
-1.72852e-06
-1.60255e-06
-1.40619e-06
-1.25403e-07
4.64606e-06
3.67046e-05
-1.33538e-06
1.08049e-07
-8.72384e-07
2.3457e-07
1.48536e-09
-9.71513e-08
5.16307e-08
-3.1265e-06
8.21945e-07
-1.06462e-06
3.24378e-06
-5.21938e-06
1.15848e-06
-1.40896e-06
5.46986e-06
1.06718e-06
-6.94847e-06
4.11023e-07
-5.25763e-07
4.20125e-08
5.95403e-06
2.30857e-06
5.50535e-06
6.06214e-05
-6.6191e-07
-8.72865e-07
-3.86063e-07
-3.24735e-07
1.51664e-06
1.00111e-05
5.46972e-05
-2.13606e-07
1.30291e-06
4.19174e-05
5.98121e-07
-2.89245e-07
4.78258e-07
3.32547e-07
1.66365e-06
2.14834e-07
-4.38121e-06
1.00115e-06
2.83289e-07
-1.76483e-06
4.64799e-06
-4.61354e-06
-2.287e-08
-2.9397e-07
6.77023e-07
4.56106e-06
-3.07704e-07
2.32246e-06
7.83962e-07
6.74573e-05
-2.88648e-07
-6.62908e-07
-1.51996e-07
-7.07492e-07
2.3361e-07
8.79906e-07
4.16133e-07
6.39969e-07
8.11902e-07
6.1675e-05
7.62323e-07
1.30179e-06
9.80715e-07
1.10597e-06
9.47392e-07
1.22515e-06
-1.30585e-05
7.35374e-07
1.01658e-06
1.32494e-05
-4.74811e-06
1.0976e-06
-1.23841e-06
4.88892e-06
-1.2555e-05
-1.44024e-07
2.92418e-07
1.31906e-05
-1.6263e-05
3.02258e-07
-5.86138e-07
4.49203e-07
1.69096e-05
-5.90524e-06
4.34355e-08
-2.31728e-07
6.09353e-06
-2.68191e-06
4.71707e-07
3.67394e-08
2.17347e-06
-2.62581e-06
-1.42461e-06
1.44294e-06
2.60747e-06
-8.71157e-07
1.25715e-06
-6.7362e-06
-1.21907e-06
8.96199e-07
6.67307e-06
-9.18204e-07
-9.31095e-06
8.12188e-07
-1.46151e-07
1.9034e-06
7.65972e-06
-7.60389e-06
8.76591e-07
-1.08626e-06
-3.3399e-07
7.71477e-06
4.32778e-07
-1.04675e-06
-1.49387e-06
-4.4301e-06
1.90708e-06
1.19403e-06
3.86961e-06
9.51642e-06
2.63449e-06
3.47245e-05
-3.82564e-07
-8.85904e-07
-5.65201e-07
-8.63777e-07
-2.52922e-06
-2.92071e-06
-2.24018e-06
-3.12892e-06
4.29653e-06
8.65058e-06
4.8197e-05
-2.11031e-06
-1.60856e-06
-1.7467e-06
-1.08548e-06
-1.25886e-07
-1.18825e-06
4.01428e-05
-1.15652e-07
7.98431e-07
7.15536e-07
9.10792e-07
-3.59002e-08
-1.07454e-07
6.73487e-09
-3.40827e-06
8.07483e-07
-1.07701e-06
3.55191e-06
-5.54923e-06
1.00888e-06
-8.08004e-07
5.34835e-06
9.09787e-07
-5.31789e-06
-9.10423e-07
4.89312e-07
3.36116e-07
4.49309e-06
5.03209e-06
5.04727e-06
5.89493e-05
-1.48915e-06
-1.29944e-06
-1.69127e-06
-1.29294e-06
2.33894e-06
9.37218e-06
5.66687e-05
-2.56887e-07
4.22723e-07
4.31433e-05
3.61875e-07
-2.99348e-07
1.4077e-07
-5.76639e-07
7.66374e-07
-6.34062e-07
-5.03123e-06
1.14256e-06
2.86229e-07
-2.2312e-06
5.57675e-06
-4.32849e-06
-6.05557e-07
4.93815e-07
9.06747e-07
3.93085e-06
-3.97361e-07
4.84481e-06
9.07645e-07
6.94627e-05
-9.86554e-07
-1.14641e-06
-8.69907e-07
-1.18674e-06
2.51332e-07
9.45658e-07
2.82017e-07
1.31138e-06
8.94705e-07
6.5235e-05
1.2549e-06
1.8979e-06
1.43754e-06
1.29059e-06
1.15433e-06
1.41565e-06
-1.42859e-05
1.15761e-06
6.60146e-07
1.42023e-05
-4.93408e-06
1.74127e-06
-1.52659e-06
4.7194e-06
-1.37937e-05
-3.8736e-07
7.23894e-07
1.43648e-05
-1.77475e-05
1.33256e-08
-1.29909e-07
3.68777e-07
1.839e-05
-6.34475e-06
2.08862e-07
-5.77949e-07
6.71384e-06
-1.58006e-06
5.26801e-07
-1.5681e-07
1.21007e-06
-2.5583e-06
-1.25245e-06
1.33755e-06
2.47319e-06
-1.03524e-06
1.01458e-06
-6.43007e-06
-8.79014e-07
1.27481e-06
6.05493e-06
-8.27387e-07
-6.70711e-06
7.85483e-07
-1.06407e-06
1.51633e-06
6.29675e-06
-7.78447e-06
1.17341e-06
-1.22642e-06
-1.41751e-06
7.93825e-06
1.31674e-06
-9.45645e-07
-9.23348e-07
-3.48298e-06
1.30051e-06
7.66958e-07
3.28451e-06
8.65661e-06
2.44799e-06
3.85473e-05
-8.3621e-07
-1.27397e-06
-8.5039e-07
-1.04861e-06
-2.05216e-06
-3.5052e-06
-2.00727e-06
-3.35363e-06
1.93097e-06
7.1099e-06
5.18396e-05
-1.78772e-06
-8.56225e-07
-1.27655e-06
-1.06307e-07
-1.93583e-07
-7.82372e-06
4.35271e-05
1.61345e-06
1.59018e-06
2.18659e-06
1.66713e-06
-2.1395e-07
-9.70668e-08
-1.82329e-07
-3.74834e-06
5.49807e-07
-8.75044e-07
3.88e-06
-5.22668e-06
4.1979e-07
-6.88051e-07
5.49494e-06
-1.22015e-06
-3.55079e-06
-8.54756e-07
2.16924e-06
7.39622e-07
2.71683e-06
5.66181e-06
4.48136e-06
5.91891e-05
-2.38698e-06
-1.83124e-06
-2.22725e-06
-1.48945e-06
1.87215e-06
8.52751e-06
5.90408e-05
-3.8049e-07
-3.66913e-07
4.23632e-05
-1.48426e-07
-3.59899e-07
-4.05989e-07
-1.61157e-06
7.71965e-08
-1.97536e-06
-6.11034e-06
8.95604e-07
1.58421e-07
-1.77766e-06
6.45348e-06
-3.52071e-06
-1.28961e-06
1.11406e-06
1.4959e-06
3.07267e-06
-8.72308e-07
5.15097e-06
9.30188e-07
7.0809e-05
-1.1758e-06
-1.29964e-06
-8.45346e-07
-1.21069e-06
1.93049e-07
1.00713e-06
3.85203e-07
1.37404e-06
1.01224e-06
6.82355e-05