/*--------------------------------*- C++ -*----------------------------------*\
| =========                 |                                                 |
| \\      /  F ield         | OpenFOAM: The Open Source CFD Toolbox           |
|  \\    /   O peration     | Version:  5.x                                   |
|   \\  /    A nd           | Web:      www.OpenFOAM.org                      |
|    \\/     M anipulation  |                                                 |
\*---------------------------------------------------------------------------*/
FoamFile
{
    version     2.0;
    format      ascii;
    class       surfaceScalarField;
    location    "6.15";
    object      phi;
}
// * * * * * * * * * * * * * * * * * * * * * * * * * * * * * * * * * * * * * //

dimensions      [0 3 -1 0 0 0 0];

internalField   nonuniform List<scalar> 
29271
(
-6.79242e-06
-2.38254e-06
5.08123e-06
4.16897e-06
-5.96551e-06
4.21233e-07
5.415e-07
5.15818e-06
-1.36114e-05
-9.29037e-07
-1.70048e-06
4.18579e-06
2.62992e-06
9.42518e-06
-2.03826e-05
-5.5014e-06
-7.33074e-06
9.31942e-06
6.54934e-06
1.7346e-05
-1.88319e-05
-4.94838e-06
1.20054e-06
9.94027e-06
1.66037e-05
-3.96426e-06
-1.50248e-05
-2.12015e-06
-3.94669e-07
2.55416e-06
4.44434e-06
1.05411e-05
-1.92628e-05
-5.11261e-06
-5.98529e-06
5.21318e-06
3.44097e-06
2.17065e-05
-1.41745e-05
-2.28634e-06
-4.52325e-06
6.805e-06
3.92168e-06
1.02575e-05
-1.98572e-05
-1.13145e-05
-2.08931e-06
-4.89811e-06
6.58949e-06
3.15696e-05
-1.41891e-05
-2.34258e-06
2.88575e-06
1.03829e-05
3.26767e-06
-9.83119e-06
-4.45569e-06
1.10511e-06
1.30309e-05
-1.57229e-05
-1.46151e-07
-3.79092e-06
9.51959e-07
1.73746e-06
1.69705e-05
-1.31053e-05
-6.0501e-06
-2.73728e-06
2.70448e-06
1.08938e-05
8.29439e-06
-1.59936e-05
-4.19297e-06
-1.48755e-06
-2.66758e-07
3.53929e-06
1.84016e-05
-1.93484e-05
-5.22939e-06
4.74416e-06
-5.59179e-06
3.3445e-06
2.20809e-05
-1.71614e-05
-3.40184e-06
-2.84473e-06
5.14963e-06
1.35624e-05
4.69588e-06
-1.69269e-05
-1.30916e-06
4.46443e-06
-7.50113e-07
1.48695e-05
-3.4772e-07
-2.10394e-05
-3.421e-06
5.33801e-07
6.37401e-07
-7.70738e-06
3.09966e-05
-1.97597e-05
3.96798e-06
2.26437e-06
-2.81251e-06
-5.50041e-06
2.18403e-05
-1.74679e-05
-4.43753e-06
-1.43628e-06
1.84928e-05
3.24416e-08
4.81646e-06
-5.48594e-06
-1.19062e-06
2.90394e-06
3.76958e-06
-1.3776e-05
-2.99593e-07
9.56236e-07
9.54701e-06
3.59573e-06
-1.52508e-05
-4.78114e-07
3.13408e-07
2.20532e-06
1.1135e-05
2.07527e-06
-5.37747e-06
7.42085e-07
7.07431e-07
3.93409e-06
-2.2807e-06
6.83598e-07
-1.2914e-07
1.75256e-06
-4.8281e-06
8.68281e-07
-2.70886e-07
4.43535e-06
-3.09149e-07
1.16017e-08
-7.93334e-06
-1.27112e-06
-6.7181e-07
1.01738e-05
-7.53595e-07
-1.63452e-05
2.28714e-06
-3.07034e-06
1.79046e-06
1.60915e-05
-1.48227e-05
1.4406e-07
-8.73391e-07
-1.10885e-07
1.33753e-05
2.28764e-06
5.21393e-07
-1.01644e-06
-7.06227e-06
1.03982e-06
-3.70638e-08
6.55456e-06
-3.09686e-05
-1.61036e-05
7.91221e-05
-2.15305e-05
-2.01602e-05
-1.28716e-05
-8.43994e-06
6.87812e-07
7.08022e-08
2.8231e-06
5.3587e-06
2.13718e-06
2.46955e-06
6.52536e-06
1.08799e-05
-2.95744e-05
-1.3593e-05
8.63621e-05
-1.27562e-05
-2.45499e-05
-1.58338e-05
-3.6683e-05
1.17234e-06
1.19834e-07
8.56014e-06
5.80731e-06
-5.4951e-07
-4.35805e-06
5.59213e-05
1.59476e-06
2.13974e-06
3.28498e-06
1.50808e-06
-3.77258e-07
-1.52369e-07
-1.12715e-07
-3.00873e-05
-1.31547e-05
-2.61582e-05
-1.90731e-05
-8.8741e-06
1.01886e-06
-9.02909e-07
8.21845e-06
-8.29784e-06
8.23625e-07
4.33187e-06
3.29066e-06
-8.56716e-06
-2.62537e-05
1.19427e-07
1.75928e-06
-4.43999e-06
3.73821e-05
-5.62606e-05
-2.77604e-05
0.000176577
-1.35383e-05
-1.94241e-05
-6.32817e-05
-5.19421e-05
5.63653e-06
1.19243e-05
9.9937e-06
1.19716e-05
-3.07697e-05
-1.54412e-05
8.60402e-05
-2.15487e-05
-3.25876e-05
-2.8689e-05
-2.68576e-05
-3.7542e-07
-1.66729e-06
4.09832e-05
-9.67325e-07
-1.49133e-07
-2.33622e-07
-1.6847e-07
-2.1214e-07
-2.41359e-07
-2.13827e-05
-1.74921e-05
-1.92661e-05
-1.39553e-05
-9.83374e-06
2.20964e-07
1.1128e-06
1.97117e-07
7.92744e-06
-1.53809e-05
-9.89339e-07
-1.37571e-06
-1.43662e-06
1.34304e-05
5.75213e-06
-8.74889e-06
-1.34728e-06
5.84143e-05
3.03285e-06
2.17145e-06
3.03894e-06
1.20548e-06
-2.91728e-06
-8.79899e-07
-1.21882e-06
-2.9985e-05
-2.91502e-05
-9.20539e-06
-1.21706e-05
-3.14846e-06
-1.24436e-06
4.66396e-05
-1.08072e-06
-1.42667e-06
-1.02751e-06
-1.53276e-06
-8.90462e-07
-9.0705e-07
-1.74816e-05
-1.61135e-05
-1.24862e-05
-1.34905e-05
-1.66791e-05
-1.30698e-06
-2.65385e-07
1.34357e-05
-4.28344e-06
-5.46349e-07
2.34993e-07
4.58329e-06
-6.87112e-06
1.03239e-06
-2.75488e-06
7.28629e-06
-9.42777e-06
1.76859e-06
-1.01196e-06
-1.68361e-06
9.11039e-06
-4.51326e-06
-2.85527e-07
3.26929e-09
4.79527e-06
-2.66219e-06
2.63667e-06
-5.29726e-06
5.33282e-06
-4.73285e-06
-3.96179e-07
-4.61457e-06
9.74366e-06
2.92304e-06
6.84894e-06
-1.71096e-05
-8.77462e-06
-6.08169e-06
2.2194e-05
8.37174e-06
-1.67204e-05
7.89285e-06
-3.88177e-06
-9.47176e-06
1.38093e-05
-1.30725e-05
1.71787e-06
9.62547e-08
-2.29728e-06
1.30942e-05
4.61453e-07
7.56476e-06
1.54535e-06
-9.58367e-06
-3.52167e-06
-6.20716e-06
1.02024e-05
-1.5794e-05
-1.9683e-05
6.52654e-05
4.33967e-06
2.14211e-06
1.42459e-05
2.50661e-06
5.10506e-06
4.02904e-06
7.02442e-06
9.94088e-06
-1.80174e-06
-1.39921e-06
5.89926e-05
5.18477e-06
3.98779e-06
2.46759e-06
3.13635e-06
1.30879e-06
-5.18925e-07
4.31535e-05
1.99052e-06
1.18285e-06
1.62478e-06
1.07806e-06
9.97145e-07
1.911e-06
1.39182e-06
-8.0216e-06
3.59067e-07
-3.73583e-07
9.31073e-06
-1.97329e-06
5.59777e-07
-1.23461e-06
2.68334e-06
2.48252e-06
-3.44634e-05
5.35345e-06
2.52488e-06
-9.65254e-07
2.50678e-05
-2.70252e-05
-3.11001e-06
0.000123418
1.06648e-05
1.07477e-05
2.55525e-05
1.6647e-05
-1.35503e-06
3.25976e-06
5.57111e-05
7.93424e-07
-4.91491e-07
3.65077e-05
5.78892e-07
1.0095e-06
8.42723e-07
-3.61187e-07
2.51484e-07
-2.18826e-08
-7.31509e-06
1.87383e-07
1.10921e-06
-8.05855e-07
7.61777e-06
-1.25302e-05
1.09012e-06
-1.91579e-06
1.40321e-06
1.50419e-05
-3.08919e-06
-2.82242e-06
7.55177e-07
4.68183e-05
1.25596e-06
7.68684e-07
1.23383e-06
1.93555e-06
3.50738e-07
3.60901e-06
1.39948e-06
-1.66824e-06
8.44173e-08
4.94442e-05
-1.06737e-06
-2.58068e-07
-4.61042e-07
-1.89998e-07
7.66334e-07
4.26701e-07
-1.15387e-05
-3.18597e-07
-7.25342e-08
9.77014e-06
-5.21046e-06
2.79137e-07
-1.09833e-06
6.02365e-06
-7.0193e-06
5.89147e-07
-1.25254e-06
8.43064e-06
-9.09104e-06
6.09529e-07
-6.54852e-07
2.16456e-07
9.00433e-06
-4.67539e-06
-6.65883e-09
3.48853e-07
4.3563e-06
-1.12292e-05
-4.20576e-07
-1.28324e-06
1.29338e-05
-1.37501e-05
-5.67933e-07
-2.41576e-06
1.67337e-05
2.28314e-06
1.50584e-06
-2.98331e-05
-1.62516e-06
-7.63294e-06
3.53022e-05
2.47164e-06
-8.86156e-06
1.51031e-06
-6.20069e-07
-1.66811e-06
7.16779e-06
-1.11621e-05
2.75534e-06
1.1238e-06
-1.26152e-06
8.85256e-06
-3.08047e-07
6.19939e-06
3.07687e-06
-1.42297e-05
-5.56475e-06
-8.03546e-06
1.85537e-05
2.05322e-06
-1.0116e-05
4.50656e-05
9.85688e-06
2.47587e-06
6.56061e-06
1.41859e-06
5.08235e-07
5.06545e-06
-6.53405e-07
3.03033e-06
3.6142e-06
5.08824e-07
5.48724e-05
3.18018e-07
-3.14517e-07
1.91732e-06
1.29615e-07
1.3609e-06
8.8487e-07
3.98511e-05
-3.22075e-07
-7.15477e-08
-1.90845e-07
-5.96338e-08
9.74667e-07
2.60539e-06
1.73491e-06
-1.07694e-05
1.71523e-07
2.39345e-07
1.15184e-05
-6.63005e-06
2.70464e-06
-6.11482e-06
1.00035e-05
6.96122e-06
-1.78213e-05
6.27072e-06
-1.02332e-05
1.27724e-07
1.46949e-05
3.59587e-06
8.40055e-06
7.04028e-05
1.16673e-05
4.29244e-06
1.26018e-05
2.3408e-06
4.34691e-06
4.75957e-06
5.07093e-05
5.91847e-07
-1.1e-07
3.90755e-05
4.06332e-07
9.59064e-07
4.83191e-07
5.95286e-08
2.21675e-07
5.23565e-08
-8.20421e-06
9.43788e-08
6.59454e-07
-4.91554e-07
8.53378e-06
-1.4267e-05
2.92843e-06
-1.58092e-06
4.06717e-06
1.22374e-05
-3.38516e-06
2.37731e-06
4.97648e-06
3.78716e-05
-4.35129e-07
-1.82601e-07
-3.20143e-07
-1.76152e-08
2.8156e-06
4.66696e-06
3.46633e-06
-1.30089e-07
1.16379e-06
5.06325e-05
1.89092e-07
3.00243e-07
2.41623e-07
9.23084e-07
1.63969e-06
1.62116e-06
-9.18171e-06
3.9163e-07
6.46171e-07
7.90383e-06
-7.20073e-06
7.85687e-08
-4.51227e-07
7.49421e-06
-1.11986e-05
-1.45041e-06
1.89986e-06
1.56545e-05
-8.77437e-06
-7.71605e-08
-1.70339e-07
9.67039e-07
9.21862e-06
-4.3035e-06
-4.80917e-07
9.96112e-09
4.70216e-06
-1.04505e-05
-2.73735e-06
5.80685e-06
7.38103e-06
-1.77558e-05
1.62457e-06
-4.80809e-07
1.6612e-05
4.63758e-06
-3.37572e-06
-3.73398e-05
5.86196e-06
-7.51125e-06
3.77272e-05
-7.25833e-06
-1.14672e-05
-4.72557e-06
4.13645e-06
3.51972e-06
1.57949e-05
-8.02589e-06
-2.82705e-06
2.04559e-06
3.74938e-06
8.22415e-06
-3.16617e-06
2.83426e-06
-2.39465e-06
-2.25688e-05
3.14451e-06
-6.17199e-06
2.51567e-05
1.5222e-05
3.06916e-06
4.00333e-05
4.20483e-06
-1.46421e-06
2.12041e-06
-2.5001e-06
-4.08249e-06
-6.1028e-07
-8.18838e-06
-2.73869e-06
2.10828e-06
7.52351e-06
7.93251e-05
-1.89129e-06
-2.86844e-06
-6.69189e-06
-7.41091e-06
2.33575e-06
6.06053e-06
6.01079e-05
-4.64608e-06
-5.29273e-06
-8.02823e-06
-6.87032e-06
-6.81922e-07
-2.23886e-07
-8.01689e-07
-1.36917e-05
-2.022e-06
2.96045e-06
1.5089e-05
-1.17845e-05
-8.60311e-07
5.52519e-07
1.20923e-05
9.86212e-06
-1.89697e-05
3.06514e-06
-1.19947e-05
5.66872e-07
1.74702e-05
7.58735e-06
1.01252e-06
6.60388e-05
1.07634e-06
-5.1309e-07
-3.9349e-07
-1.33641e-06
1.94935e-06
-8.1114e-07
6.4682e-05
-1.74302e-06
-2.07998e-06
6.44865e-05
1.785e-07
-1.06995e-06
-3.01321e-06
-2.11239e-06
-4.08375e-06
-3.47729e-06
-7.30907e-06
-1.47815e-06
4.83807e-07
6.20615e-07
5.93977e-06
-1.3589e-05
-4.17264e-06
1.56484e-06
1.76491e-06
1.60316e-05
-1.59971e-06
7.01407e-06
3.09206e-06
4.18294e-05
-1.49289e-06
-3.64841e-06
-4.84904e-06
-5.36508e-06
2.00801e-06
1.58992e-07
1.37026e-07
-1.45271e-06
-1.60158e-06
7.568e-05
-1.64982e-06
-1.83423e-06
-1.66094e-06
-2.51759e-06
-2.84225e-06
-5.28539e-06
-7.32503e-06
-5.36709e-07
-1.97738e-06
6.30642e-06
-8.41245e-06
-2.60212e-07
-1.61146e-06
1.02839e-05
-1.75137e-05
-1.76983e-06
4.77379e-06
1.76018e-05
-1.23508e-05
-2.93942e-06
2.03367e-06
-2.22991e-06
1.38849e-05
-6.47804e-06
1.26275e-06
-4.37233e-07
5.65253e-06
-4.93884e-06
-3.34539e-06
4.78493e-06
3.4993e-06
-1.33271e-05
2.93133e-06
9.27456e-07
9.46835e-06
1.79142e-06
-5.86669e-06
-3.71469e-05
7.95955e-06
-3.64968e-06
3.69123e-05
-7.62731e-06
-1.77352e-05
-7.00154e-06
5.72285e-06
7.91982e-06
1.87214e-05
-9.15e-06
-7.57614e-06
3.08025e-06
7.25777e-06
1.07163e-05
-4.32822e-06
-2.56228e-06
-6.82485e-06
-2.42566e-05
1.17528e-05
9.36529e-07
2.09544e-05
1.13253e-05
4.11804e-06
5.70244e-05
1.82213e-06
-1.58129e-06
7.41126e-07
-1.37737e-06
-1.01052e-05
-5.88817e-06
-9.69234e-06
-6.3532e-06
8.97061e-06
1.2428e-05
8.92523e-05
-5.76746e-06
-6.00553e-06
-4.32769e-06
-3.89983e-06
5.4737e-07
8.90773e-06
7.39727e-05
-6.05996e-06
-2.99443e-06
-4.43738e-06
-1.81535e-06
-4.96668e-07
1.22595e-06
2.28528e-07
-1.3912e-05
-4.48134e-06
1.11518e-06
4.8633e-06
1.29622e-05
4.09661e-08
-3.00888e-08
1.78089e-07
-1.89317e-07
-1.0142e-05
-7.93557e-07
5.22101e-06
5.71457e-06
-1.90394e-06
-1.51802e-05
-2.17921e-06
1.33161e-06
3.10647e-06
1.48252e-05
4.674e-06
5.90214e-07
7.95336e-05
-2.27751e-06
-4.308e-06
-3.20418e-06
-4.85133e-06
7.50816e-07
3.45067e-06
7.75825e-05
-1.22672e-06
-1.53933e-06
7.77211e-05
-1.87318e-06
-5.20729e-07
-5.30578e-07
5.11802e-07
-7.04262e-08
1.67311e-06
-5.89724e-06
-4.10525e-06
-6.82783e-07
3.19239e-06
6.26616e-06
-1.19473e-08
-4.99942e-07
9.79348e-10
4.8123e-08
4.62773e-07
-1.6106e-05
-7.14955e-06
7.08826e-06
1.75447e-06
1.62655e-05
-1.85268e-06
8.51393e-06
-1.24339e-07
5.38586e-05
-5.97194e-06
-4.83689e-06
-5.84873e-06
-4.68993e-06
3.12603e-07
8.09798e-07
3.96494e-07
5.74697e-07
-1.49361e-06
8.69377e-05
1.63372e-06
1.86314e-06
2.50765e-06
-2.43942e-06
-1.2501e-06
-6.89243e-07
-5.53193e-06
-4.38089e-07
-3.00429e-06
8.00967e-06
-1.09978e-05
5.54353e-07
1.17532e-06
9.26814e-06
-1.50019e-05
-3.3337e-06
6.07231e-06
1.2139e-05
-1.35751e-05
-5.13521e-06
6.26667e-06
-2.97417e-06
1.39242e-05
-3.24244e-06
4.41708e-06
-3.82112e-06
2.64647e-06
-2.13831e-06
-1.9852e-06
3.0805e-06
1.04301e-06
-7.06739e-06
-2.054e-06
3.74294e-06
5.37844e-06
-2.69688e-06
-5.14418e-06
-3.51245e-05
8.76036e-06
2.76923e-06
3.1436e-05
-5.41032e-06
-1.94373e-05
-9.1255e-06
7.83607e-06
6.96678e-06
1.91703e-05
-1.21829e-05
-3.42677e-06
2.67476e-06
5.27092e-06
1.3046e-05
-5.38203e-06
-4.10534e-06
-2.83162e-06
-1.67421e-05
7.7785e-06
3.22244e-06
1.26781e-05
1.42292e-05
4.32501e-06
7.8149e-05
-9.1739e-07
-2.89687e-06
-2.10112e-06
-2.78746e-06
-8.71144e-06
-7.47875e-06
-7.79022e-06
-6.99559e-06
1.13765e-05
1.1166e-05
9.85406e-05
-5.20152e-06
-4.63433e-06
-4.18785e-06
-3.57789e-06
1.58673e-06
9.15824e-06
8.43873e-05
-4.94186e-06
-1.66122e-06
-4.28665e-06
-1.54272e-06
1.05143e-07
1.7682e-06
7.7612e-07
-1.30762e-05
-1.27632e-06
1.11908e-06
3.84601e-06
1.09742e-05
3.20723e-06
-2.90816e-06
2.06495e-06
-4.11274e-06
3.8971e-06
-2.14838e-06
-2.45721e-06
-9.04168e-07
1.91945e-06
1.44192e-06
-5.37892e-06
-1.63074e-05
-2.06048e-06
4.08824e-06
2.89679e-06
1.67618e-05
5.29896e-06
4.82703e-06
8.87912e-05
-3.65253e-06
-4.60134e-06
-3.29595e-06
-3.50871e-06
1.85496e-06
4.63571e-06
8.75567e-05
-1.05987e-06
-1.75128e-08
8.79885e-05
-8.43735e-07
-7.9114e-07
-8.73873e-07
1.96052e-06
5.96548e-07
1.77485e-06
-8.27849e-06
-3.82354e-06
-1.35749e-06
2.66397e-06
9.73568e-06
-1.89914e-06
-4.14312e-06
1.1056e-06
-1.94821e-06
3.38163e-06
3.50324e-06
-1.58153e-05
-7.68746e-06
6.96944e-06
4.77025e-06
1.48979e-05
-3.13481e-06
8.46388e-06
1.64426e-06
6.57224e-05
-6.08803e-06
-4.91242e-06
-4.93631e-06
-4.45469e-06
7.17976e-07
1.6465e-06
8.82109e-07
1.30624e-06
-8.69024e-07
9.49671e-05
1.94385e-06
1.44046e-06
1.56704e-06
-1.76612e-07
-2.94036e-07
1.52309e-07
-1.13448e-05
2.19708e-07
-1.22074e-06
1.36346e-05
-7.00248e-06
-3.77257e-06
2.10642e-06
5.83916e-07
8.08472e-06
-3.09229e-06
-6.10431e-07
5.23117e-07
3.1796e-06
-1.03634e-05
-2.83602e-06
4.81285e-06
1.00308e-05
-1.38509e-05
-3.85462e-06
5.13229e-06
-2.27498e-06
1.39792e-05
-3.50638e-06
2.12902e-06
-3.27256e-06
4.64992e-06
-4.14544e-07
-9.81569e-07
1.23384e-06
1.62273e-07
-3.81679e-06
-1.80813e-06
3.10098e-06
2.52394e-06
-8.39523e-07
-3.58117e-06
-2.60965e-05
8.17648e-06
2.54155e-06
1.97992e-05
-2.35893e-06
-1.87697e-05
-9.3244e-06
7.46481e-06
4.68853e-06
1.82997e-05
-1.3608e-05
-1.18809e-06
8.54408e-07
4.21133e-06
1.40243e-05
-4.29392e-06
-1.74939e-06
-9.47131e-07
-9.32346e-06
4.681e-06
6.65032e-07
6.67395e-06
1.73739e-05
7.09122e-06
9.25892e-05
-2.84299e-06
-3.73957e-06
-2.65676e-06
-2.92051e-06
-6.89653e-06
-7.25785e-06
-6.29867e-06
-6.29251e-06
1.28815e-05
9.92593e-06
0.000107859
-4.51072e-06
-3.9288e-06
-3.31584e-06
-2.9961e-06
1.90652e-06
9.07615e-06
9.32426e-05
-4.62774e-06
-1.60222e-06
-3.81565e-06
-1.48637e-06
1.30909e-06
1.36959e-06
1.89681e-06
-1.11716e-05
-2.16259e-06
3.51891e-08
4.22848e-06
1.09771e-05
3.06777e-06
1.47494e-07
1.47113e-06
-1.64421e-06
1.74065e-06
-4.78283e-06
-1.208e-06
-1.31741e-06
1.81757e-06
7.07834e-07
-3.70547e-06
-1.555e-05
-1.30876e-06
4.76114e-06
2.65044e-06
1.31526e-05
6.29748e-06
6.76241e-06
9.63846e-05
-4.00476e-06
-3.4854e-06
-3.53965e-06
-2.53232e-06
3.10716e-06
3.50148e-06
9.71715e-05
-2.04433e-07
1.5267e-07
9.76146e-05
-6.73687e-07
5.01326e-07
-3.07646e-07
1.45403e-06
5.44975e-07
1.08998e-06
-1.13039e-05
-4.35639e-06
-4.64397e-07
2.96112e-06
1.29591e-05
-3.77858e-06
-2.47477e-06
6.95814e-07
4.31546e-07
1.49779e-06
3.6282e-06
-1.39068e-05
-3.34667e-06
4.03365e-06
2.8465e-06
1.32362e-05
-2.86296e-06
7.77295e-06
1.80286e-06
7.49347e-05
-4.54499e-06
-4.00573e-06
-3.73715e-06
-3.35203e-06
1.07416e-06
1.53102e-06
1.00899e-06
5.54898e-07
-1.60775e-07
0.000102799
9.9722e-07
7.8886e-07
7.51625e-07
2.19306e-07
2.48446e-08
2.66169e-07
-1.64233e-05
2.24437e-07
-8.29194e-07
1.77356e-05
-8.34407e-06
-1.22613e-06
1.31107e-06
2.03731e-07
8.0554e-06
-4.0861e-06
-2.85833e-07
-1.99222e-06
2.3365e-06
4.02765e-06
-1.01506e-05
-1.92625e-06
3.25101e-06
1.06287e-05
-1.45776e-05
-2.52244e-06
2.91392e-06
-1.27419e-06
1.52995e-05
-5.52138e-06
1.23085e-06
-1.77708e-06
6.06761e-06
-9.50981e-08
-4.25352e-07
3.58507e-07
1.61943e-07
-1.46898e-06
-1.89651e-06
2.68171e-06
6.83783e-07
-1.89299e-07
-1.77719e-06
-1.44279e-05
4.48019e-06
4.85403e-07
1.14287e-05
2.90031e-08
-1.76446e-05
-4.66382e-06
4.04886e-06
1.84448e-06
1.6386e-05
-1.40985e-05
-3.05507e-07
4.61806e-07
2.31187e-06
1.43242e-05
-2.69388e-06
-1.86329e-06
-5.55961e-07
-4.25411e-06
3.28417e-06
1.33065e-06
2.05854e-06
1.37794e-05
6.91558e-06
9.81056e-05
-1.21436e-06
-3.09294e-06
-8.22986e-08
-1.73645e-06
-5.07619e-06
-6.02997e-06
-3.55364e-06
-5.42555e-06
9.78982e-06
7.55528e-06
0.000114071
-3.32812e-06
-2.92575e-06
-1.96514e-06
-1.55891e-06
7.84224e-07
7.74097e-06
9.86609e-05
-3.2499e-06
-9.03501e-07
-1.93562e-06
-1.36087e-06
1.82403e-06
-1.03473e-07
1.57573e-06
-1.36366e-05
-1.45027e-07
3.63249e-07
3.25481e-06
1.09477e-05
7.41983e-06
-3.13354e-07
7.91667e-07
-3.62987e-06
-4.26828e-06
-1.58311e-07
-2.72579e-07
4.76265e-07
-4.53757e-08
-1.44676e-06
-1.0744e-05
-1.48601e-06
3.37023e-06
1.38528e-06
8.92123e-06
4.43724e-06
6.3817e-06
0.00010163
-3.44311e-06
-2.05611e-06
-2.61073e-06
-1.03856e-06
2.7895e-06
3.32333e-06
0.000103051
1.00072e-06
1.83901e-07
0.000105387
-1.89362e-07
5.87462e-07
-1.3868e-06
1.26916e-06
7.21241e-07
5.71965e-07
-1.4627e-05
-4.34264e-06
1.26883e-06
3.02655e-06
1.5675e-05
-3.99517e-06
3.45064e-06
-2.12357e-06
2.94417e-06
-3.31187e-06
3.0358e-06
-1.2336e-05
8.75046e-08
1.83117e-06
1.37556e-07
1.1196e-05
-9.16184e-07
6.7771e-06
1.37761e-06
7.96503e-05
-3.0938e-06
-2.1726e-06
-2.15027e-06
-1.51839e-06
8.25442e-07
9.92235e-07
6.28786e-07
1.97623e-07
3.10795e-07
0.000108387
7.24935e-07
8.01261e-07
7.34737e-07
5.67014e-07
5.52846e-07
6.24067e-07
-1.97719e-05
1.72588e-07
-6.19691e-07
2.06005e-05
-6.80553e-06
-2.23219e-06
5.85316e-07
8.4524e-06
-1.08028e-05
-3.90409e-07
1.70067e-06
1.08701e-05
-1.63049e-05
-1.52577e-06
1.34866e-06
-7.01764e-07
1.74946e-05
-6.36571e-06
6.23884e-07
-8.64508e-07
6.60634e-06
-3.181e-07
-1.80441e-07
4.57983e-09
4.93961e-07
-2.33801e-07
-2.40783e-06
2.5494e-06
9.22352e-08
3.41666e-07
6.7951e-07
-9.68843e-06
9.10964e-07
-6.21781e-07
8.37807e-06
1.14641e-06
-1.48085e-05
-1.61402e-06
2.29638e-06
-3.99079e-07
1.33788e-05
-1.50433e-05
1.4718e-07
6.60933e-07
3.64382e-07
1.61961e-05
-2.32537e-06
-1.54172e-06
-5.09682e-07
-6.44012e-07
1.28987e-06
1.45932e-06
-5.37679e-08
9.55364e-06
4.66818e-06
9.62817e-05
1.50504e-07
-1.59752e-06
8.54314e-08
-7.30736e-07
-2.0533e-06
-4.34086e-06
-1.50084e-06
-2.41059e-06
6.48373e-06
5.86859e-06
0.000114289
-1.72955e-06
-1.22047e-06
-2.70575e-07
2.03478e-07
-8.44353e-07
6.50728e-06
0.000102524
-1.56197e-06
-1.15593e-06
-3.14263e-07
-8.50295e-07
4.51966e-07
-4.74101e-07
8.62497e-07
-8.30273e-06
-1.14052e-06
7.21839e-07
7.87706e-06
-8.69373e-08
4.14861e-07
-7.06486e-07
3.78562e-07
1.14572e-07
-7.46716e-06
-5.17838e-07
1.28382e-06
6.89731e-08
6.51763e-06
2.60478e-06
4.79261e-06
0.000101092
-1.87896e-06
-4.43075e-07
-2.6563e-07
3.96543e-07
1.78968e-06
3.32786e-06
0.000106407
-3.40084e-07
7.44814e-08
0.000113931
-1.92772e-06
3.47793e-07
-8.36325e-07
5.65261e-07
9.65254e-07
9.03944e-07
-2.06464e-05
-2.48669e-06
-8.85501e-07
2.37398e-06
2.13045e-05
-1.00844e-05
1.0219e-06
1.44184e-07
-4.88953e-07
9.64e-06
-2.32679e-07
4.52377e-06
8.58846e-07
7.95049e-05
-1.12888e-06
-4.56128e-07
-4.2144e-07
-1.89036e-07
4.87158e-07
7.30829e-07
5.32951e-07
3.17206e-07
8.71358e-07
0.000109371
7.72708e-07
1.25949e-06
7.87129e-07
8.74428e-07
1.08968e-06
8.95633e-07
-2.24019e-05
3.20645e-07
-1.97916e-07
2.26709e-05
-8.95033e-06
2.10443e-07
6.37448e-07
8.10244e-06
-1.0807e-05
2.74584e-07
5.17086e-07
1.08742e-05
-1.8742e-05
-6.58854e-07
3.75761e-07
-5.79174e-08
1.99544e-05
-6.87105e-06
8.18586e-08
-4.15014e-07
7.2042e-06
-6.48088e-07
-1.12606e-07
-6.22181e-08
8.22912e-07
-1.80797e-07
-2.67477e-06
2.42293e-06
4.32636e-07
9.70599e-07
1.74428e-06
-7.27752e-06
-8.29927e-07
-1.20739e-06
6.59995e-06
1.29101e-06
-1.23185e-05
2.10271e-07
7.45232e-07
-1.57295e-06
1.16449e-05
-1.76013e-05
1.16655e-07
4.2491e-07
-1.54324e-07
1.89562e-05
-1.74213e-06
-1.38286e-06
-5.0123e-07
3.02678e-07
5.23681e-07
1.20561e-06
-1.47887e-07
5.92813e-06
2.9318e-06
8.90072e-05
5.38465e-07
-5.61578e-07
9.05942e-07
2.70528e-07
-8.38912e-07
-1.0988e-06
-5.69812e-07
-2.31222e-07
4.80287e-06
2.7847e-06
0.000108991
1.79595e-07
4.48114e-07
1.48968e-06
1.52094e-06
-1.98968e-07
5.87814e-06
0.00010048
-4.48459e-07
-6.41832e-07
1.51889e-07
-6.58364e-07
1.3661e-06
-1.66016e-07
1.56413e-06
-7.41194e-06
-4.14444e-07
2.16474e-07
7.41094e-06
-7.74914e-07
7.59436e-07
-1.11101e-06
1.12648e-06
9.23826e-07
-6.15696e-06
-6.33593e-07
-8.70393e-07
4.6631e-07
6.27081e-06
2.62379e-06
4.74944e-06
9.43942e-05
2.40107e-07
2.78256e-07
9.36188e-07
8.01536e-07
3.09731e-06
2.54749e-06
0.000106171
1.57698e-06
2.38623e-07
0.000115138
1.92845e-07
2.04289e-06
5.45161e-07
9.94375e-07
1.11967e-06
1.05808e-06
-2.13552e-05
-1.55614e-06
1.04033e-06
1.31382e-06
2.21341e-05
-9.62595e-06
1.11891e-06
-7.14783e-07
-5.77708e-07
1.01656e-05
-3.66033e-07
3.08581e-06
9.12819e-07
7.64428e-05
5.60901e-08
3.64633e-07
5.11046e-07
3.98722e-07
6.94581e-07
9.45611e-07
8.42162e-07
6.26236e-07
1.16372e-06
0.000107038
6.79778e-07
1.57801e-06
6.54526e-07
9.69084e-07
1.30986e-06
9.84342e-07
-2.42583e-05
8.27531e-07
1.18383e-07
2.41772e-05
-8.54098e-06
-4.34597e-07
-1.12053e-07
9.08763e-06
-1.09732e-05
4.92481e-07
6.65261e-08
1.1327e-05
-2.11453e-05
-1.41615e-07
-1.4979e-07
4.80858e-07
2.21196e-05
-7.57289e-06
-2.16866e-07
-1.69627e-07
7.95939e-06
-1.0573e-06
-7.41738e-08
-2.16487e-07
1.34796e-06
-7.95623e-07
-2.61721e-06
2.18511e-06
1.22773e-06
1.43334e-06
2.01702e-06
-6.22472e-06
-1.29383e-06
-2.17785e-06
6.24604e-06
1.95183e-06
-1.12049e-05
9.07253e-07
2.34847e-07
-2.7257e-06
1.08367e-05
-2.02893e-05
-1.09317e-07
3.00156e-07
2.20307e-07
2.15379e-05
-1.65975e-06
-1.34651e-06
-4.37394e-07
-2.76803e-07
-4.6874e-08
1.13349e-06
9.74083e-07
7.67126e-07
7.36197e-07
7.87715e-05
1.78877e-06
8.19412e-07
2.15679e-06
1.60439e-06
2.66129e-07
5.28667e-07
4.79909e-07
1.08828e-06
3.35864e-06
-1.42109e-06
9.98213e-05
1.6779e-06
1.53471e-06
2.46329e-06
2.32376e-06
-6.00667e-08
5.80426e-06
9.66536e-05
-3.92189e-07
-6.6459e-07
1.81833e-08
-7.43832e-07
1.59184e-06
-1.14666e-07
1.74614e-06
-7.68685e-06
-1.8144e-07
-6.37937e-07
8.44616e-06
-1.40973e-06
8.14626e-07
-1.06939e-06
1.66449e-06
1.05568e-06
-6.46312e-06
-8.84117e-07
-1.33716e-06
8.65031e-07
6.76369e-06
3.98897e-06
6.05308e-06
8.19751e-05
6.73397e-07
4.66668e-07
1.05774e-06
9.15433e-07
4.23902e-06
3.92503e-07
0.000104107
2.17074e-06
4.23145e-07
0.000114791
8.14487e-07
2.28548e-06
9.86319e-07
1.10887e-06
1.39146e-06
1.2097e-06
-2.34486e-05
-4.93164e-07
1.43212e-06
2.09015e-08
2.46594e-05
-1.09483e-05
7.92781e-07
-1.03909e-06
4.5487e-08
1.17594e-05
-6.10338e-07
2.87543e-06
1.17011e-06
7.34763e-05
4.13142e-07
3.75508e-07
7.31797e-07
2.28417e-07
9.72173e-07
1.1565e-06
1.09658e-06
7.72683e-07
1.21684e-06
0.00010252
4.42749e-07
1.69221e-06
3.75669e-07
9.84303e-07
1.29069e-06
1.01087e-06
-2.55353e-05
1.1438e-06
4.38278e-07
2.51491e-05
-9.58785e-06
1.67739e-07
-6.04985e-07
1.00251e-05
-1.18128e-05
7.90675e-07
-4.88679e-07
1.26809e-05
-2.30404e-05
2.94914e-07
-5.76617e-07
9.32986e-07
2.36059e-05
-8.37044e-06
-4.39765e-07
-1.51199e-08
8.82533e-06
-1.6649e-06
-3.45253e-08
-2.72756e-07
1.97218e-06
-1.67005e-06
-2.30679e-06
1.8964e-06
2.08044e-06
1.5493e-06
1.81928e-06
-6.55113e-06
-1.20516e-06
-2.62811e-06
7.01582e-06
2.21396e-06
-1.05144e-05
8.52569e-07
2.67448e-07
-2.9772e-06
1.01576e-05
-2.27606e-05
-2.51234e-07
1.13764e-07
6.86583e-07
2.37562e-05
-1.5447e-06
-1.26337e-06
-4.19511e-07
-1.83559e-06
-4.1453e-07
1.05068e-06
2.88232e-06
-3.99827e-06
-1.1187e-06
6.83229e-05
2.56537e-06
1.82635e-06
2.59157e-06
2.29311e-06
1.2776e-06
1.67829e-06
1.3132e-06
2.02016e-06
1.8764e-06
-4.32796e-06
8.9689e-05
2.02215e-06
1.81003e-06
2.56685e-06
2.18661e-06
-1.15504e-08
6.23691e-06
9.17173e-05
-7.39935e-07
-8.60444e-07
-4.3303e-07
-8.3081e-07
1.64362e-06
2.77255e-08
1.78015e-06
-9.29846e-06
2.47546e-07
-1.26869e-06
1.03081e-05
-1.88768e-06
7.66734e-07
-9.24064e-07
2.04501e-06
5.89858e-07
-7.13481e-06
-1.16716e-06
-1.11673e-06
1.17393e-06
7.65491e-06
3.08177e-06
6.42904e-06
6.7572e-05
8.56966e-07
7.05924e-07
1.11212e-06
1.09857e-06
3.74832e-06
-2.43513e-06
0.000101548
2.05379e-06
6.48799e-07
0.000113747
1.07134e-06
2.03298e-06
1.05735e-06
1.22471e-06
1.60802e-06
1.33204e-06
-2.59082e-05
1.4476e-07
1.60096e-06
-5.63756e-07
2.67801e-05
-1.24179e-05
5.80361e-07
-8.83738e-07
7.00921e-07
1.2842e-05
-8.21591e-07
3.27159e-06
1.09811e-06
7.19705e-05
3.1928e-07
-9.75768e-08
6.35639e-07
-3.00334e-07
9.40136e-07
1.0263e-06
1.04166e-06
7.75725e-07
9.778e-07
9.70006e-05
1.09176e-07
1.63411e-06
5.08737e-08
9.28555e-07
9.35514e-07
9.44326e-07
-2.61886e-05
1.22475e-06
9.07321e-07
2.5481e-05
-1.04976e-05
2.9947e-07
-7.78735e-07
1.09769e-05
-1.35741e-05
1.13983e-06
-9.65357e-07
1.44978e-05
-2.41951e-05
6.50688e-07
-1.02334e-06
1.08947e-06
2.44561e-05
-9.32474e-06
-7.48564e-07
2.43603e-07
9.8297e-06
-2.26463e-06
6.87768e-08
-3.6473e-07
2.56058e-06
-2.44364e-06
-1.88471e-06
1.54679e-06
2.78156e-06
1.51892e-06
1.31434e-06
-7.53483e-06
-8.79517e-07
-2.42618e-06
8.00726e-06
2.38397e-06
-9.85249e-06
5.94241e-07
3.98014e-07
-3.13405e-06
9.61032e-06
-2.46036e-05
-4.23317e-07
-1.72243e-07
1.23956e-06
2.51878e-05
-1.22825e-06
-1.07302e-06
-5.61456e-07
-3.95544e-06
-3.84501e-07
9.13965e-07
5.06045e-06
-6.8195e-06
-1.5364e-06
6.0379e-05
2.4268e-06
2.0528e-06
2.21776e-06
2.3647e-06
1.65725e-06
1.98942e-06
1.46127e-06
2.12973e-06
-5.96228e-07
-5.3711e-06
8.06191e-05
2.23088e-06
1.37208e-06
2.913e-06
1.70174e-06
-1.31875e-07
5.84183e-06
8.58646e-05
-1.16114e-06
-6.60245e-07
-7.47796e-07
-4.77688e-07
1.35779e-06
-1.39608e-07
1.37528e-06
-1.1243e-05
7.64264e-07
-1.7498e-06
1.20966e-05
-2.11444e-06
7.14294e-07
-7.20261e-07
2.12041e-06
8.93678e-08
-8.25876e-06
-1.30139e-06
-6.21499e-07
1.28086e-06
8.81141e-06
4.17498e-07
5.74828e-06
5.66359e-05
8.61728e-07
8.8803e-07
7.33805e-07
7.50344e-07
1.78108e-06
-3.22487e-06
9.80379e-05
1.59986e-06
8.46181e-07
0.000110973
8.77226e-07
1.55452e-06
8.46007e-07
1.35919e-06
1.83315e-06
1.48123e-06
-2.76783e-05
5.42798e-07
1.43784e-06
-7.70422e-07
2.8068e-05
-1.30124e-05
4.01736e-07
-4.67404e-07
1.26197e-06
1.28856e-05
-1.06955e-06
3.60942e-06
7.2881e-07
7.20406e-05
5.6733e-08
-5.09375e-07
9.49436e-08
-5.7974e-07
8.17441e-07
5.37523e-07
9.2246e-07
7.02358e-07
7.02728e-07
9.22919e-05
-1.2879e-07
1.46715e-06
-1.18642e-07
8.70402e-07
7.4641e-07
8.51625e-07
-2.62215e-05
1.12204e-06
1.29907e-06
2.5349e-05
-1.14767e-05
3.56226e-07
-7.84535e-07
1.19051e-05
-1.53855e-05
1.0506e-06
-1.2352e-06
1.62989e-05
-2.48363e-05
8.41653e-07
-1.30057e-06
9.91644e-07
2.50063e-05
-1.03338e-05
-1.09679e-06
5.88679e-07
1.08419e-05
-2.91466e-06
2.61586e-07
-7.34637e-07
3.38771e-06
-3.10083e-06
-1.53503e-06
1.22849e-06
3.40736e-06
1.18606e-06
7.95558e-07
-8.4013e-06
-3.66102e-07
-1.93275e-06
8.71854e-06
2.58998e-06
-9.60073e-06
1.90995e-07
5.56205e-07
-3.44512e-06
9.70867e-06
-2.56904e-05
-5.47339e-07
-5.79997e-08
1.21279e-06
2.60687e-05
-9.85774e-07
-6.89788e-07
-7.63147e-07
-6.04402e-06
4.90688e-08
4.14617e-07
7.03327e-06
-7.33535e-06
-6.69641e-07
5.59152e-05
1.77395e-06
1.79316e-06
1.5575e-06
1.85963e-06
1.27432e-06
1.61981e-06
1.02011e-06
1.57035e-06
-3.08032e-06
-5.40834e-06
7.25352e-05
2.71538e-06
1.32788e-06
3.10491e-06
2.08909e-06
-4.90534e-07
4.44003e-06
7.9267e-05
-1.03938e-06
-9.92856e-08
-2.80094e-07
-6.74892e-08
7.58496e-07
-5.06153e-07
8.01624e-07
-1.29776e-05
8.72225e-07
-2.01049e-06
1.36253e-05
-2.08966e-06
7.38461e-07
-6.77995e-07
2.02919e-06
7.64964e-08
-9.10972e-06
-5.33635e-07
-9.36915e-08
6.29862e-07
9.03069e-06
-9.4004e-07
5.36944e-06
5.14703e-05
1.74865e-07
-9.97026e-08
-8.66876e-09
7.08609e-11
5.16626e-07
-1.07797e-06
9.22508e-05
1.1497e-06
1.2584e-06
0.000105745
6.3236e-07
1.10459e-06
5.70116e-07
1.5152e-06
2.33587e-06
1.61788e-06
-2.84373e-05
8.34801e-07
1.13317e-06
-7.66405e-07
2.83854e-05
-1.25792e-05
2.41706e-07
7.65032e-08
9.57723e-07
1.22897e-05
-9.86487e-07
2.98519e-06
4.05821e-07
7.31699e-05
-3.97944e-07
-5.20186e-07
-1.55516e-08
-2.32852e-07
7.46972e-07
4.70871e-07
7.97752e-07
3.40109e-07
8.02997e-07
8.99271e-05
-3.56615e-07
1.09035e-06
-3.59994e-07
9.59694e-07
8.89985e-07
9.05466e-07
-2.60233e-05
8.19632e-07
1.58858e-06
2.52136e-05
-1.23268e-05
3.3472e-07
-7.05112e-07
1.26972e-05
-1.73376e-05
6.8219e-07
-1.41401e-06
1.84753e-05
-2.5192e-05
1.04513e-06
-1.36816e-06
1.00571e-06
2.53123e-05
-1.13666e-05
-1.32139e-06
8.04694e-07
1.18833e-05
-3.98232e-06
1.6106e-07
-7.22046e-07
4.5433e-06
-3.71795e-06
-1.30182e-06
9.79475e-07
4.04029e-06
4.42743e-07
5.65261e-07
-8.97884e-06
4.94865e-08
-1.31377e-06
9.23512e-06
2.49019e-06
-9.99404e-06
-1.98529e-07
2.11211e-07
-3.00431e-06
1.04955e-05
-2.65326e-05
-4.00961e-07
-1.50662e-07
7.36241e-07
2.67565e-05
-4.08563e-07
-2.43153e-07
-8.02425e-07
-7.97277e-06
4.56236e-07
-3.87976e-07
8.95009e-06
-6.1777e-06
4.55899e-07
5.40617e-05
1.17279e-06
1.18602e-06
1.0729e-06
1.27069e-06
6.5825e-07
8.54001e-07
5.10736e-07
8.49878e-07
-4.05261e-06
-3.25362e-06
6.50649e-05
2.34873e-06
1.66471e-06
2.37567e-06
2.20971e-06
-8.61901e-07
2.82587e-06
7.3768e-05
-4.91395e-07
1.32398e-07
1.72709e-07
1.75813e-07
3.70888e-07
-1.12396e-06
2.46009e-07
-1.42668e-05
1.45932e-06
-2.63189e-06
1.45775e-05
-1.99022e-06
7.58149e-07
-7.49278e-07
1.98135e-06
2.02138e-07
-8.66764e-06
5.96724e-07
2.28256e-07
-7.64709e-07
8.40523e-06
-1.26512e-06
3.98055e-06
4.93291e-05
-4.02188e-07
-1.57913e-08
-2.7628e-07
5.759e-07
8.72961e-07
2.85066e-06
8.40085e-05
9.3223e-07
1.63271e-06
9.87832e-05
6.01411e-07
1.05898e-06
5.53868e-07
1.58279e-06
2.55713e-06
1.74192e-06
-2.82895e-05
1.01958e-06
9.05563e-07
-5.38328e-07
2.78349e-05
-1.21402e-05
9.58403e-07
-6.79477e-07
-5.42635e-07
1.21089e-05
2.95057e-07
6.51658e-07
2.98927e-07
7.31689e-05
1.07559e-07
3.21167e-07
9.20325e-07
8.26192e-07
3.68614e-07
1.71349e-07
3.15817e-07
-1.57666e-07
1.01719e-06
9.03447e-05
-7.45306e-07
6.43046e-07
-7.80832e-07
1.01981e-06
1.09476e-06
9.93685e-07
-2.60417e-05
4.9568e-07