/*--------------------------------*- C++ -*----------------------------------*\
| =========                 |                                                 |
| \\      /  F ield         | OpenFOAM: The Open Source CFD Toolbox           |
|  \\    /   O peration     | Version:  5.x                                   |
|   \\  /    A nd           | Web:      www.OpenFOAM.org                      |
|    \\/     M anipulation  |                                                 |
\*---------------------------------------------------------------------------*/
FoamFile
{
    version     2.0;
    format      ascii;
    class       volVectorField;
    location    "6.15";
    object      Us;
}
// * * * * * * * * * * * * * * * * * * * * * * * * * * * * * * * * * * * * * //

dimensions      [0 1 -1 0 0 0 0];

internalField   nonuniform List<vector> 
10571
(
(0.116596 0.0329339 -0.0513548)
(0.00586663 0.0264434 -0.0680695)
(0.13446 0.0761603 -0.0837278)
(0.205249 0.117354 -0.0229503)
(0.0522138 0.0750266 -0.0370177)
(0.0430819 0.170312 -0.0638554)
(0.171983 0.18823 0.0159022)
(0.136652 0.110674 0.0255803)
(-0.0398589 -0.010022 -0.0719602)
(-0.00736905 -0.00276123 -0.0858307)
(-0.0359357 0.207785 0.0722466)
(0.00976172 0.169103 0.0844855)
(0.0186436 0.145863 0.0331368)
(-0.0979268 -0.0461863 -0.0737292)
(-0.0595575 0.0168399 -0.10337)
(0.0288951 0.0199659 -0.0940209)
(-0.0150394 -0.0617063 -0.0228475)
(-0.0680629 -0.123721 -0.0907056)
(-0.0332813 -0.0893762 -0.103775)
(0.00371071 -0.0183055 -0.11202)
(0.000279187 0.00219994 -0.0985831)
(-0.0423018 -0.0355985 -0.101119)
(-0.00215142 -0.00766139 -0.113226)
(0.0272185 -0.0196775 -0.11947)
(-0.00126347 0.00482957 -0.0479672)
(0.0469266 0.000821785 -0.224359)
(0.0620647 0.0599664 -0.156984)
(0.052635 0.0695813 0.0302938)
(0.0273916 0.0348313 0.0613912)
(0.0766178 0.039842 -0.137686)
(0.0049553 0.0356002 0.126236)
(-0.0153342 0.0452732 0.152026)
(0.0244219 -0.0145634 0.141146)
(-0.00438017 0.00427979 0.0524608)
(0.0323519 -0.00641718 -0.0596445)
(0.0717328 0.00969805 0.087202)
(-0.103268 -0.0720695 0.167172)
(-0.0749427 -0.0467735 0.139281)
(0.0233174 0.00835697 0.131396)
(0.0235227 0.00411693 0.0455935)
(0.0318185 -0.00413847 0.00874067)
(-0.00465541 -0.0207568 0.0963322)
(0.0100295 -0.0144316 0.118652)
(-0.00742896 -0.0221195 0.0306257)
(0.0127933 -0.0106881 0.0335553)
(-0.000387153 -0.0173802 0.019936)
(0.0128158 -0.0264177 0.0306933)
(0.022619 -0.0127618 0.023582)
(-0.0599767 -0.00451814 -0.0599027)
(0.0579188 -0.0567714 -0.72642)
(-0.0954691 -0.108303 -0.0464026)
(-0.0228272 -0.0270409 0.178886)
(0.0168286 0.000710191 0.143421)
(-0.014068 -0.155529 -0.0378691)
(0.0097939 -0.0348909 0.17361)
(0.0433779 0.0232932 0.24481)
(0.071123 0.0103541 0.202006)
(0.0166325 0.0165124 0.137666)
(0.00129453 -0.0460993 -0.115417)
(0.0823128 -0.0463815 0.140245)
(-0.0488522 -0.0461196 0.289073)
(0.0360597 0.0317622 0.22449)
(0.0586714 0.013178 0.172784)
(0.0214413 0.00123795 0.16426)
(0.049767 0.0646682 0.0250406)
(0.0475078 0.0451304 0.135935)
(0.0181637 0.03233 0.150456)
(0.0100328 0.00443367 0.204396)
(0.0138951 -0.0220221 0.18451)
(0.0248687 0.0103516 0.0506314)
(0.0174997 0.00554657 0.149576)
(0.00854462 -0.0096522 0.185651)
(-0.0746902 0.185172 0.0145945)
(0.0593769 -0.0717786 -0.6768)
(0 0 0)
(-0.0157482 -0.0929606 0.166136)
(0.0678631 -0.0528365 0.177583)
(-0.10502 -0.202527 0.0410716)
(0.0458467 -0.0562742 0.135167)
(0.0933613 0.021184 0.213986)
(0.11832 0.0428267 0.221712)
(0.0916424 0.0340099 0.185559)
(-0.330208 -0.0670465 -0.102634)
(-0.0538901 -0.0526858 0.219397)
(0.103078 0.0522285 0.256058)
(0.130806 0.0693667 0.22269)
(0.10285 0.0298244 0.220712)
(0.0357029 -0.00389474 0.222161)
(-0.0121684 0.119318 0.0776762)
(0.0925371 0.130938 0.155843)
(0.0615945 0.0871559 0.19085)
(0.0316438 0.0267369 0.241462)
(0.0160332 0.00207346 0.22636)
(0.0758742 0.184524 0.0617765)
(0.00903043 0.0505258 0.191182)
(0.000372963 0.0146869 0.204641)
(0 0 0)
(0 0 0)
(0 0 0)
(0 0 0)
(0 0 0)
(-0.209017 -0.33248 0.020891)
(0.0898096 -0.0883841 0.142806)
(0.115686 0.0168768 0.189109)
(0.155594 0.0375579 0.204398)
(0 0 0)
(0 0 0)
(-0.120383 -0.0167278 0.20391)
(0.111543 0.0555134 0.203996)
(0.149662 0.0688168 0.191659)
(0.161606 0.0552033 0.229186)
(0.107984 0.0515568 0.292638)
(-0.136734 0.176962 0.0632542)
(0.0976455 0.148691 0.147038)
(0.14313 0.143327 0.165951)
(0.134103 0.0943222 0.258574)
(0.0807655 0.0445138 0.239329)
(0 0 0)
(0 0 0)
(0 0 0)
(0 0 0)
(0 0 0)
(0 0 0)
(0 0 0)
(0 0 0)
(0 0 0)
(0 0 0)
(0 0 0)
(0 0 0)
(0 0 0)
(-0.000159585 -0.000102382 -0.000355735)
(0 0 0)
(0 0 0)
(0 0 0)
(0 0 0)
(0 0 0)
(0 0 0)
(-2.49785e-05 -1.35439e-05 -5.55264e-06)
(0 0 0)
(0 0 0)
(0 0 0)
(0 0 0)
(0 0 0)
(0 0 0)
(0 0 0)
(0 0 0)
(0 0 0)
(0 0 0)
(0 0 0)
(0 0 0)
(0 0 0)
(0 0 0)
(0 0 0)
(0 0 0)
(0 0 0)
(0 0 0)
(0 0 0)
(0 0 0)
(0 0 0)
(0 0 0)
(0 0 0)
(0 0 0)
(0 0 0)
(0 0 0)
(0 0 0)
(0 0 0)
(0 0 0)
(0 0 0)
(0 0 0)
(0 0 0)
(0 0 0)
(0 0 0)
(0 0 0)
(0 0 0)
(0 0 0)
(0 0 0)
(0 0 0)
(0 0 0)
(0 0 0)
(0 0 0)
(0 0 0)
(0 0 0)
(0 0 0)
(0 0 0)
(0 0 0)
(0 0 0)
(0 0 0)
(0 0 0)
(0 0 0)
(0 0 0)
(0 0 0)
(0 0 0)
(0 0 0)
(0 0 0)
(0 0 0)
(0 0 0)
(0 0 0)
(0 0 0)
(0 0 0)
(0 0 0)
(0 0 0)
(0 0 0)
(0 0 0)
(0 0 0)
(0 0 0)
(0 0 0)
(0 0 0)
(0 0 0)
(0 0 0)
(0 0 0)
(0 0 0)
(0 0 0)
(0 0 0)
(0 0 0)
(0 0 0)
(0 0 0)
(0 0 0)
(0 0 0)
(0 0 0)
(0 0 0)
(0 0 0)
(0 0 0)
(0 0 0)
(0 0 0)
(0 0 0)
(0 0 0)
(0 0 0)
(0 0 0)
(0 0 0)
(0 0 0)
(0 0 0)
(0 0 0)
(0 0 0)
(0 0 0)
(0 0 0)
(0 0 0)
(0 0 0)
(0 0 0)
(0 0 0)
(0 0 0)
(0 0 0)
(0 0 0)
(0 0 0)
(0 0 0)
(0 0 0)
(0 0 0)
(0 0 0)
(0 0 0)
(0 0 0)
(0 0 0)
(0 0 0)
(0 0 0)
(0 0 0)
(0 0 0)
(0 0 0)
(0 0 0)
(0 0 0)
(0 0 0)
(0 0 0)
(0 0 0)
(0 0 0)
(0 0 0)
(0 0 0)
(0 0 0)
(0 0 0)
(0 0 0)
(0 0 0)
(0 0 0)
(0 0 0)
(0 0 0)
(0 0 0)
(0 0 0)
(0 0 0)
(0 0 0)
(0 0 0)
(0 0 0)
(0 0 0)
(0 0 0)
(0 0 0)
(0 0 0)
(0 0 0)
(0 0 0)
(0 0 0)
(0 0 0)
(0 0 0)
(0 0 0)
(0 0 0)
(0 0 0)
(0 0 0)
(0 0 0)
(0 0 0)
(0 0 0)
(0 0 0)
(0 0 0)
(0 0 0)
(0 0 0)
(0 0 0)
(0 0 0)
(0 0 0)
(0 0 0)
(0 0 0)
(0 0 0)
(0 0 0)
(0 0 0)
(0 0 0)
(0 0 0)
(0 0 0)
(0 0 0)
(0 0 0)
(0 0 0)
(0 0 0)
(0 0 0)
(0 0 0)
(0 0 0)
(0 0 0)
(0 0 0)
(0 0 0)
(0 0 0)
(0 0 0)
(0 0 0)
(0 0 0)
(0 0 0)
(0 0 0)
(0 0 0)
(0 0 0)
(0 0 0)
(0 0 0)
(0 0 0)
(0 0 0)
(0 0 0)
(0 0 0)
(0 0 0)
(0 0 0)
(0 0 0)
(0 0 0)
(0 0 0)
(0 0 0)
(0 0 0)
(0 0 0)
(0 0 0)
(0 0 0)
(0 0 0)
(0 0 0)
(0 0 0)
(0 0 0)
(0 0 0)
(0 0 0)
(0 0 0)
(0 0 0)
(0 0 0)
(0 0 0)
(0 0 0)
(0 0 0)
(0 0 0)
(0 0 0)
(0 0 0)
(0 0 0)
(0 0 0)
(0 0 0)
(0 0 0)
(0 0 0)
(0 0 0)
(0 0 0)
(0 0 0)
(0 0 0)
(0 0 0)
(0 0 0)
(0 0 0)
(0 0 0)
(0 0 0)
(0 0 0)
(0 0 0)
(0 0 0)
(0 0 0)
(0 0 0)
(0 0 0)
(0 0 0)
(0 0 0)
(0 0 0)
(0 0 0)
(0 0 0)
(0 0 0)
(0 0 0)
(0 0 0)
(0 0 0)
(0 0 0)
(0 0 0)
(0 0 0)
(0 0 0)
(0 0 0)
(0 0 0)
(0 0 0)
(0 0 0)
(0 0 0)
(0 0 0)
(0 0 0)
(0 0 0)
(0 0 0)
(0 0 0)
(0 0 0)
(0 0 0)
(0 0 0)
(0 0 0)
(0 0 0)
(0 0 0)
(0 0 0)
(0 0 0)
(0 0 0)
(0 0 0)
(0 0 0)
(0 0 0)
(0 0 0)
(0 0 0)
(0 0 0)
(0 0 0)
(0 0 0)
(0 0 0)
(0 0 0)
(0 0 0)
(0 0 0)
(0 0 0)
(0 0 0)
(0 0 0)
(0 0 0)
(0 0 0)
(0 0 0)
(0 0 0)
(0 0 0)
(0 0 0)
(0 0 0)
(0 0 0)
(0 0 0)
(0 0 0)
(0 0 0)
(0 0 0)
(0 0 0)
(0 0 0)
(0 0 0)
(0 0 0)
(0 0 0)
(0 0 0)
(0 0 0)
(0 0 0)
(0 0 0)
(0 0 0)
(0 0 0)
(0 0 0)
(0 0 0)
(0 0 0)
(0 0 0)
(0 0 0)
(0 0 0)
(0 0 0)
(0 0 0)
(0 0 0)
(0 0 0)
(0 0 0)
(0 0 0)
(0 0 0)
(0 0 0)
(0 0 0)
(0 0 0)
(0 0 0)
(0 0 0)
(0 0 0)
(0 0 0)
(0 0 0)
(0 0 0)
(0 0 0)
(0 0 0)
(0 0 0)
(0 0 0)
(0 0 0)
(0 0 0)
(0 0 0)
(0 0 0)
(0 0 0)
(0 0 0)
(0 0 0)
(0 0 0)
(0 0 0)
(0 0 0)
(0 0 0)
(0 0 0)
(0 0 0)
(0 0 0)
(0 0 0)
(0 0 0)
(0 0 0)
(0 0 0)
(0 0 0)
(0 0 0)
(0 0 0)
(0 0 0)
(0 0 0)
(0 0 0)
(0 0 0)
(0 0 0)
(0 0 0)
(0 0 0)
(0 0 0)
(0 0 0)
(0 0 0)
(0 0 0)
(0 0 0)
(0 0 0)
(0 0 0)
(0 0 0)
(0 0 0)
(0 0 0)
(0 0 0)
(0 0 0)
(0 0 0)
(0 0 0)
(0 0 0)
(0 0 0)
(0 0 0)
(0 0 0)
(0 0 0)
(0 0 0)
(0 0 0)
(0 0 0)
(0 0 0)
(0 0 0)
(0 0 0)
(0 0 0)
(0 0 0)
(0 0 0)
(0 0 0)
(0 0 0)
(0 0 0)
(0 0 0)
(0 0 0)
(0 0 0)
(0 0 0)
(0 0 0)
(0 0 0)
(0 0 0)
(0 0 0)
(0 0 0)
(0 0 0)
(0 0 0)
(0 0 0)
(0 0 0)
(0 0 0)
(0 0 0)
(0 0 0)
(0 0 0)
(0 0 0)
(0 0 0)
(0 0 0)
(0 0 0)
(0 0 0)
(0 0 0)
(0 0 0)
(0 0 0)
(0 0 0)
(0 0 0)
(0 0 0)
(0 0 0)
(0 0 0)
(0 0 0)
(0 0 0)
(0 0 0)
(0 0 0)
(0 0 0)
(0 0 0)
(0 0 0)
(0 0 0)
(0 0 0)
(0 0 0)
(0 0 0)
(0 0 0)
(0 0 0)
(0 0 0)
(0 0 0)
(0 0 0)
(0 0 0)
(0 0 0)
(0 0 0)
(0 0 0)
(0 0 0)
(0 0 0)
(0 0 0)
(0 0 0)
(0 0 0)
(0 0 0)
(0 0 0)
(0 0 0)
(0 0 0)
(0 0 0)
(0 0 0)
(0 0 0)
(0 0 0)
(0 0 0)
(0 0 0)
(0 0 0)
(0 0 0)
(0 0 0)
(0 0 0)
(0 0 0)
(0 0 0)
(0 0 0)
(0 0 0)
(0 0 0)
(0 0 0)
(0 0 0)
(0 0 0)
(0 0 0)
(0 0 0)
(0 0 0)
(0 0 0)
(0 0 0)
(0 0 0)
(0 0 0)
(0 0 0)
(0 0 0)
(0 0 0)
(0 0 0)
(0 0 0)
(0 0 0)
(0 0 0)
(0 0 0)
(0 0 0)
(0 0 0)
(0 0 0)
(0 0 0)
(0 0 0)
(0 0 0)
(0 0 0)
(0 0 0)
(0 0 0)
(0 0 0)
(0 0 0)
(0 0 0)
(0 0 0)
(0 0 0)
(0 0 0)
(0 0 0)
(0 0 0)
(0 0 0)
(0 0 0)
(0 0 0)
(0 0 0)
(0 0 0)
(0 0 0)
(0 0 0)
(0 0 0)
(0 0 0)
(0 0 0)
(0 0 0)
(0 0 0)
(0 0 0)
(0 0 0)
(0 0 0)
(0 0 0)
(0 0 0)
(0 0 0)
(0 0 0)
(0 0 0)
(0 0 0)
(0 0 0)
(0 0 0)
(0 0 0)
(0 0 0)
(0 0 0)
(0 0 0)
(0 0 0)
(0 0 0)
(0 0 0)
(0 0 0)
(0 0 0)
(0 0 0)
(0 0 0)
(0 0 0)
(0 0 0)
(0 0 0)
(0 0 0)
(0 0 0)
(0 0 0)
(0 0 0)
(0 0 0)
(0 0 0)
(0 0 0)
(0 0 0)
(0 0 0)
(0 0 0)
(0 0 0)
(0 0 0)
(0 0 0)
(0 0 0)
(0 0 0)
(0 0 0)
(0 0 0)
(0 0 0)
(0 0 0)
(0 0 0)
(0 0 0)
(0 0 0)
(0 0 0)
(0 0 0)
(0 0 0)
(0 0 0)
(0 0 0)
(0 0 0)
(0 0 0)
(0 0 0)
(0 0 0)
(0 0 0)
(0 0 0)
(0 0 0)
(0 0 0)
(0 0 0)
(0 0 0)
(0 0 0)
(0 0 0)
(0 0 0)
(0 0 0)
(0 0 0)
(0 0 0)
(0 0 0)
(0 0 0)
(0 0 0)
(0 0 0)
(0 0 0)
(0 0 0)
(0 0 0)
(0 0 0)
(0 0 0)
(0 0 0)
(0 0 0)
(0 0 0)
(0 0 0)
(0 0 0)
(0 0 0)
(0 0 0)
(0 0 0)
(0 0 0)
(0 0 0)
(0 0 0)
(0 0 0)
(0 0 0)
(0 0 0)
(0 0 0)
(0 0 0)
(0 0 0)
(0 0 0)
(0 0 0)
(0 0 0)
(0 0 0)
(0 0 0)
(0 0 0)
(0 0 0)
(0 0 0)
(0 0 0)
(0 0 0)
(0 0 0)
(0 0 0)
(0 0 0)
(0 0 0)
(0 0 0)
(0 0 0)
(0 0 0)
(0 0 0)
(0 0 0)
(0 0 0)
(0 0 0)
(0 0 0)
(0 0 0)
(0 0 0)
(0 0 0)
(0 0 0)
(0 0 0)
(0 0 0)
(0 0 0)
(0 0 0)
(0 0 0)
(0 0 0)
(0 0 0)
(0 0 0)
(0 0 0)
(0 0 0)
(0 0 0)
(0 0 0)
(0 0 0)
(0 0 0)
(0 0 0)
(0 0 0)
(0 0 0)
(0 0 0)
(0 0 0)
(0 0 0)
(0 0 0)
(0 0 0)
(0 0 0)
(0 0 0)
(0 0 0)
(0 0 0)
(0 0 0)
(0 0 0)
(0 0 0)
(0 0 0)
(0 0 0)
(0 0 0)
(0 0 0)
(0 0 0)
(0 0 0)
(0 0 0)
(0 0 0)
(0 0 0)
(0 0 0)
(0 0 0)
(0 0 0)
(0 0 0)
(0 0 0)
(0 0 0)
(0 0 0)
(0 0 0)
(0 0 0)
(0 0 0)
(0 0 0)
(0 0 0)
(0 0 0)
(0 0 0)
(0 0 0)
(0 0 0)
(0 0 0)
(0 0 0)
(0 0 0)
(0 0 0)
(0 0 0)
(0 0 0)
(0 0 0)
(0 0 0)
(0 0 0)
(0 0 0)
(0 0 0)
(0 0 0)
(0 0 0)
(0 0 0)
(0 0 0)
(0 0 0)
(0 0 0)
(0 0 0)
(0 0 0)
(0 0 0)
(0 0 0)
(0 0 0)
(0 0 0)
(0 0 0)
(0 0 0)
(0 0 0)
(0 0 0)
(0 0 0)
(0 0 0)
(0 0 0)
(0 0 0)
(0 0 0)
(0 0 0)
(0 0 0)
(0 0 0)
(0 0 0)
(0 0 0)
(0 0 0)
(0 0 0)
(0 0 0)
(0 0 0)
(0 0 0)
(0 0 0)
(0 0 0)
(0 0 0)
(0 0 0)
(0 0 0)
(0 0 0)
(0 0 0)
(0 0 0)
(0 0 0)
(0 0 0)
(0 0 0)
(0 0 0)
(0 0 0)
(0 0 0)
(0 0 0)
(0 0 0)
(0 0 0)
(0 0 0)
(0 0 0)
(0 0 0)
(0 0 0)
(0 0 0)
(0 0 0)
(0 0 0)
(0 0 0)
(0 0 0)
(0 0 0)
(0 0 0)
(0 0 0)
(0 0 0)
(0 0 0)
(0 0 0)
(0 0 0)
(0 0 0)
(0 0 0)
(0 0 0)
(0 0 0)
(0 0 0)
(0 0 0)
(0 0 0)
(0 0 0)
(0 0 0)
(0 0 0)
(0 0 0)
(0 0 0)
(0 0 0)
(0 0 0)
(0 0 0)
(0 0 0)
(0 0 0)
(0 0 0)
(0 0 0)
(0 0 0)
(0 0 0)
(0 0 0)
(0 0 0)
(0 0 0)
(0 0 0)
(0 0 0)
(0 0 0)
(0 0 0)
(0 0 0)
(0 0 0)
(0 0 0)
(0 0 0)
(0 0 0)
(0 0 0)
(0 0 0)
(0 0 0)
(0 0 0)
(0 0 0)
(0 0 0)
(0 0 0)
(0 0 0)
(0 0 0)
(0 0 0)
(0 0 0)
(0 0 0)
(0 0 0)
(0 0 0)
(0 0 0)
(0 0 0)
(0 0 0)
(0 0 0)
(0 0 0)
(0 0 0)
(0 0 0)
(0 0 0)
(0 0 0)
(0 0 0)
(0 0 0)
(0 0 0)
(0 0 0)
(0 0 0)
(0 0 0)
(0 0 0)
(0 0 0)
(0 0 0)
(0 0 0)
(0 0 0)
(0 0 0)
(0 0 0)
(0 0 0)
(0 0 0)
(0 0 0)
(0 0 0)
(0 0 0)
(0 0 0)
(0 0 0)
(0 0 0)
(0 0 0)
(0 0 0)
(0 0 0)
(0 0 0)
(0 0 0)
(0 0 0)
(0 0 0)
(0 0 0)
(0 0 0)
(0 0 0)
(0 0 0)
(0 0 0)
(0 0 0)
(0 0 0)
(0 0 0)
(0 0 0)
(0 0 0)
(0 0 0)
(0 0 0)
(0 0 0)
(0 0 0)
(0 0 0)
(0 0 0)
(0 0 0)
(0 0 0)
(0 0 0)
(0 0 0)
(0 0 0)
(0 0 0)
(0 0 0)
(0 0 0)
(0 0 0)
(0 0 0)
(0 0 0)
(0 0 0)
(0 0 0)
(0 0 0)
(0 0 0)
(0 0 0)
(0 0 0)
(0 0 0)
(0 0 0)
(0 0 0)
(0 0 0)
(0 0 0)
(0 0 0)
(0 0 0)
(0 0 0)
(0 0 0)
(0 0 0)
(0 0 0)
(0 0 0)
(0 0 0)
(0 0 0)
(0 0 0)
(0 0 0)
(0 0 0)
(0 0 0)
(0 0 0)
(0 0 0)
(0 0 0)
(0 0 0)
(0 0 0)
(0 0 0)
(0 0 0)
(0 0 0)
(0 0 0)
(0 0 0)
(0 0 0)
(0 0 0)
(0 0 0)
(0 0 0)
(0 0 0)
(0 0 0)
(0 0 0)
(0 0 0)
(0 0 0)
(0 0 0)
(0 0 0)
(0 0 0)
(0 0 0)
(0 0 0)
(0 0 0)
(0 0 0)
(0 0 0)
(0 0 0)
(0 0 0)
(0 0 0)
(0 0 0)
(0 0 0)
(0 0 0)
(0 0 0)
(0 0 0)
(0 0 0)
(0 0 0)
(0 0 0)
(0 0 0)
(0 0 0)
(0 0 0)
(0 0 0)
(0 0 0)
(0 0 0)
(0 0 0)
(0 0 0)
(0 0 0)
(0 0 0)
(0 0 0)
(0 0 0)
(0 0 0)
(0 0 0)
(0 0 0)
(0 0 0)
(0 0 0)
(0 0 0)
(0 0 0)
(0 0 0)
(0 0 0)
(0 0 0)
(0 0 0)
(0 0 0)
(0 0 0)
(0 0 0)
(0 0 0)
(0 0 0)
(0 0 0)
(0 0 0)
(0 0 0)
(0 0 0)
(0 0 0)
(0 0 0)
(0 0 0)
(0 0 0)
(0 0 0)
(0 0 0)
(0 0 0)
(0 0 0)
(0 0 0)
(0 0 0)
(0 0 0)
(0 0 0)
(0 0 0)
(0 0 0)
(0 0 0)
(0 0 0)
(0 0 0)
(0 0 0)
(0 0 0)
(0 0 0)
(0 0 0)
(0 0 0)
(0 0 0)
(0 0 0)
(0 0 0)
(0 0 0)
(0 0 0)
(0 0 0)
(0 0 0)
(0 0 0)
(0 0 0)
(0 0 0)
(0 0 0)
(0 0 0)
(0 0 0)
(0 0 0)
(0 0 0)
(0 0 0)
(0 0 0)
(0 0 0)
(0 0 0)
(0 0 0)
(0 0 0)
(0 0 0)
(0 0 0)
(0 0 0)
(0 0 0)
(0 0 0)
(0 0 0)
(0 0 0)
(0 0 0)
(0 0 0)
(0 0 0)
(0 0 0)
(0 0 0)
(0 0 0)
(0 0 0)
(0 0 0)
(0 0 0)
(0 0 0)
(0 0 0)
(0 0 0)
(0 0 0)
(0 0 0)
(0 0 0)
(0 0 0)
(0 0 0)
(0 0 0)
(0 0 0)
(0 0 0)
(0 0 0)
(0 0 0)
(0 0 0)
(0 0 0)
(0 0 0)
(0 0 0)
(0 0 0)
(0 0 0)
(0 0 0)
(0 0 0)
(0 0 0)
(0 0 0)
(0 0 0)
(0 0 0)
(0 0 0)
(0 0 0)
(0 0 0)
(0 0 0)
(0 0 0)
(0 0 0)
(0 0 0)
(0 0 0)
(0 0 0)
(0 0 0)
(0 0 0)
(0 0 0)
(0 0 0)
(0 0 0)
(0 0 0)
(0 0 0)
(0 0 0)
(0 0 0)
(0 0 0)
(0 0 0)
(0 0 0)
(0 0 0)
(0 0 0)
(0 0 0)
(0 0 0)
(0 0 0)
(0 0 0)
(0 0 0)
(0 0 0)
(0 0 0)
(0 0 0)
(0 0 0)
(0 0 0)
(0 0 0)
(0 0 0)
(0 0 0)
(0 0 0)
(0 0 0)
(0 0 0)
(0 0 0)
(0 0 0)
(0 0 0)
(0 0 0)
(0 0 0)
(0 0 0)
(0 0 0)
(0 0 0)
(0 0 0)
(0 0 0)
(0 0 0)
(0 0 0)
(0 0 0)
(0 0 0)
(0 0 0)
(0 0 0)
(0 0 0)
(0 0 0)
(0 0 0)
(0 0 0)
(0 0 0)
(0 0 0)
(0 0 0)
(0 0 0)
(0 0 0)
(0 0 0)
(0 0 0)
(0 0 0)
(0 0 0)
(0 0 0)
(0 0 0)
(0 0 0)
(0 0 0)
(0 0 0)
(0 0 0)
(0 0 0)
(0 0 0)
(0 0 0)
(0 0 0)
(0 0 0)
(0 0 0)
(0 0 0)
(0 0 0)
(0 0 0)
(0 0 0)
(0 0 0)
(0 0 0)
(0 0 0)
(0 0 0)
(0 0 0)
(0 0 0)
(0 0 0)
(0 0 0)
(0 0 0)
(0 0 0)
(0 0 0)
(0 0 0)
(0 0 0)
(0 0 0)
(0 0 0)
(0 0 0)
(0 0 0)
(0 0 0)
(0 0 0)
(0 0 0)
(0 0 0)
(0 0 0)
(0 0 0)
(0 0 0)
(0 0 0)
(0 0 0)
(0 0 0)
(0 0 0)
(0 0 0)
(0 0 0)
(0 0 0)
(0 0 0)
(0 0 0)
(0 0 0)
(0 0 0)
(0 0 0)
(0 0 0)
(0 0 0)
(0 0 0)
(0 0 0)
(0 0 0)
(0 0 0)
(0 0 0)
(0 0 0)
(0 0 0)
(0 0 0)
(0 0 0)
(0 0 0)
(0 0 0)
(0 0 0)
(0 0 0)
(0 0 0)
(0 0 0)
(0 0 0)
(0 0 0)
(0 0 0)
(0 0 0)
(0 0 0)
(0 0 0)
(0 0 0)
(0 0 0)
(0 0 0)
(0 0 0)
(0 0 0)
(0 0 0)
(0 0 0)
(0 0 0)
(0 0 0)
(0 0 0)
(0 0 0)
(0 0 0)
(0 0 0)
(0 0 0)
(0 0 0)
(0 0 0)
(0 0 0)
(0 0 0)
(0 0 0)
(0 0 0)
(0 0 0)
(0 0 0)
(0 0 0)
(0 0 0)
(0 0 0)
(0 0 0)
(0 0 0)
(0 0 0)
(0 0 0)
(0 0 0)
(0 0 0)
(0 0 0)
(0 0 0)
(0 0 0)
(0 0 0)
(0 0 0)
(0 0 0)
(0 0 0)
(0 0 0)
(0 0 0)
(0 0 0)
(0 0 0)
(0 0 0)
(0 0 0)
(0 0 0)
(0 0 0)
(0 0 0)
(0 0 0)
(0 0 0)
(0 0 0)
(0 0 0)
(0 0 0)
(0 0 0)
(0 0 0)
(0 0 0)
(0 0 0)
(0 0 0)
(0 0 0)
(0 0 0)
(0 0 0)
(0 0 0)
(0 0 0)
(0 0 0)
(0 0 0)
(0 0 0)
(0 0 0)
(0 0 0)
(0 0 0)
(0 0 0)
(0 0 0)
(0 0 0)
(0 0 0)
(0 0 0)
(0 0 0)
(0 0 0)
(0 0 0)
(0 0 0)
(0 0 0)
(0 0 0)
(0 0 0)
(0 0 0)
(0 0 0)
(0 0 0)
(0 0 0)
(0 0 0)
(0 0 0)
(0 0 0)
(0 0 0)
(0 0 0)
(0 0 0)
(0 0 0)
(0 0 0)
(0 0 0)
(0 0 0)
(0 0 0)
(0 0 0)
(0 0 0)
(0 0 0)
(0 0 0)
(0 0 0)
(0 0 0)
(0 0 0)
(0 0 0)
(0 0 0)
(0 0 0)
(0 0 0)
(0 0 0)
(0 0 0)
(0 0 0)
(0 0 0)
(0 0 0)
(0 0 0)
(0 0 0)
(0 0 0)
(0 0 0)
(0 0 0)
(0 0 0)
(0 0 0)
(0 0 0)
(0 0 0)
(0 0 0)
(0 0 0)
(0 0 0)
(0 0 0)
(0 0 0)
(0 0 0)
(0 0 0)
(0 0 0)
(0 0 0)
(0 0 0)
(0 0 0)
(0 0 0)
(0 0 0)
(0 0 0)
(0 0 0)
(0 0 0)
(0 0 0)
(0 0 0)
(0 0 0)
(0 0 0)
(0 0 0)
(0 0 0)
(0 0 0)
(0 0 0)
(0 0 0)
(0 0 0)
(0 0 0)
(0 0 0)
(0 0 0)
(0 0 0)
(0 0 0)
(0 0 0)
(0 0 0)
(0 0 0)
(0 0 0)
(0 0 0)
(0 0 0)
(0 0 0)
(0 0 0)
(0 0 0)
(0 0 0)
(0 0 0)
(0 0 0)
(0 0 0)
(0 0 0)
(0 0 0)
(0 0 0)
(0 0 0)
(0 0 0)
(0 0 0)
(0 0 0)
(0 0 0)
(0 0 0)
(0 0 0)
(0 0 0)
(0 0 0)
(0 0 0)
(0 0 0)
(0 0 0)
(0 0 0)
(0 0 0)
(0 0 0)
(0 0 0)
(0 0 0)
(0 0 0)
(0 0 0)
(0 0 0)
(0 0 0)
(0 0 0)
(0 0 0)
(0 0 0)
(0 0 0)
(0 0 0)
(0 0 0)
(0 0 0)
(0 0 0)
(0 0 0)
(0 0 0)
(0 0 0)
(0 0 0)
(0 0 0)
(0 0 0)
(0 0 0)
(0 0 0)
(0 0 0)
(0 0 0)
(0 0 0)
(0 0 0)
(0 0 0)
(0 0 0)
(0 0 0)
(0 0 0)
(0 0 0)
(0 0 0)
(0 0 0)
(0 0 0)
(0 0 0)
(0 0 0)
(0 0 0)
(0 0 0)
(0 0 0)
(0 0 0)
(0 0 0)
(0 0 0)
(0 0 0)
(0 0 0)
(0 0 0)
(0 0 0)
(0 0 0)
(0 0 0)
(0 0 0)
(0 0 0)
(0 0 0)
(0 0 0)
(0 0 0)
(0 0 0)
(0 0 0)
(0 0 0)
(0 0 0)
(0 0 0)
(0 0 0)
(0 0 0)
(0 0 0)
(0 0 0)
(0 0 0)
(0 0 0)
(0 0 0)
(0 0 0)
(0 0 0)
(0 0 0)
(0 0 0)
(0 0 0)
(0 0 0)
(0 0 0)
(0 0 0)
(0 0 0)
(0 0 0)
(0 0 0)
(0 0 0)
(0 0 0)
(0 0 0)
(0 0 0)
(0 0 0)
(0 0 0)
(0 0 0)
(0 0 0)
(0 0 0)
(0 0 0)
(0 0 0)
(0 0 0)
(0 0 0)
(0 0 0)
(0 0 0)
(0 0 0)
(0 0 0)
(0 0 0)
(0 0 0)
(0 0 0)
(0 0 0)
(0 0 0)
(0 0 0)
(0 0 0)
(0 0 0)
(0 0 0)
(0 0 0)
(0 0 0)
(0 0 0)
(0 0 0)
(0 0 0)
(0 0 0)
(0 0 0)
(0 0 0)
(0 0 0)
(0 0 0)
(0 0 0)
(0 0 0)
(0 0 0)
(0 0 0)
(0 0 0)
(0 0 0)
(0 0 0)
(0 0 0)
(0 0 0)
(0 0 0)
(0 0 0)
(0 0 0)
(0 0 0)
(0 0 0)
(0 0 0)
(0 0 0)
(0 0 0)
(0 0 0)
(0 0 0)
(0 0 0)
(0 0 0)
(0 0 0)
(0 0 0)
(0 0 0)
(0 0 0)
(0 0 0)
(0 0 0)
(0 0 0)
(0 0 0)
(0 0 0)
(0 0 0)
(0 0 0)
(0 0 0)
(0 0 0)
(0 0 0)
(0 0 0)
(0 0 0)
(0 0 0)
(0 0 0)
(0 0 0)
(0 0 0)
(0 0 0)
(0 0 0)
(0 0 0)
(0 0 0)
(0 0 0)
(0 0 0)
(0 0 0)
(0 0 0)
(0 0 0)
(0 0 0)
(0 0 0)
(0 0 0)
(0 0 0)
(0 0 0)
(0 0 0)
(0 0 0)
(0 0 0)
(0 0 0)
(0 0 0)
(0 0 0)
(0 0 0)
(0 0 0)
(0 0 0)
(0 0 0)
(0 0 0)
(0 0 0)
(0 0 0)
(0 0 0)
(0 0 0)
(0 0 0)
(0 0 0)
(0 0 0)
(0 0 0)
(0 0 0)
(0 0 0)
(0 0 0)
(0 0 0)
(0 0 0)
(0 0 0)
(0 0 0)
(0 0 0)
(0 0 0)
(0 0 0)
(0 0 0)
(0 0 0)
(0 0 0)
(0 0 0)
(0 0 0)
(0 0 0)
(0 0 0)
(0 0 0)
(0 0 0)
(0 0 0)
(0 0 0)
(0 0 0)
(0 0 0)
(0 0 0)
(0 0 0)
(0 0 0)
(0 0 0)
(0 0 0)
(0 0 0)
(0 0 0)
(0 0 0)
(0 0 0)
(0 0 0)
(0 0 0)
(0 0 0)
(0 0 0)
(0 0 0)
(0 0 0)
(0 0 0)
(0 0 0)
(0 0 0)
(0 0 0)
(0 0 0)
(0 0 0)
(0 0 0)
(0 0 0)
(0 0 0)
(0 0 0)
(0 0 0)
(0 0 0)
(0 0 0)
(0 0 0)
(0 0 0)
(0 0 0)
(0 0 0)
(0 0 0)
(0 0 0)
(0 0 0)
(0 0 0)
(0 0 0)
(0 0 0)
(0 0 0)
(0 0 0)
(0 0 0)
(0 0 0)
(0 0 0)
(0 0 0)
(0 0 0)
(0 0 0)
(0 0 0)
(0 0 0)
(0 0 0)
(0 0 0)
(0 0 0)
(0 0 0)
(0 0 0)
(0 0 0)
(0 0 0)
(0 0 0)
(0 0 0)
(0 0 0)
(0 0 0)
(0 0 0)
(0 0 0)
(0 0 0)
(0 0 0)
(0 0 0)
(0 0 0)
(0 0 0)
(0 0 0)
(0 0 0)
(0 0 0)
(0 0 0)
(0 0 0)
(0 0 0)
(0 0 0)
(0 0 0)
(0 0 0)
(0 0 0)
(0 0 0)
(0 0 0)
(0 0 0)
(0 0 0)
(0 0 0)
(0 0 0)
(0 0 0)
(0 0 0)
(0 0 0)
(0 0 0)
(0 0 0)
(0 0 0)
(0 0 0)
(0 0 0)
(0 0 0)
(0 0 0)
(0 0 0)
(0 0 0)
(0 0 0)
(0.0375462 0.00175716 -0.0171004)
(0.101515 0.00430024 -0.0182804)
(0.0879788 0.0167366 -0.0209144)
(0.139172 0.0222706 -0.0131609)
(0.104413 0.011079 -0.00592259)
(0.121001 0.0289265 0.00618047)
(0.0510834 0.0182511 0.0128825)
(0.0153559 0.00825377 0.00322781)
(-0.0152804 0.06472 -0.021299)
(0.0063172 0.0217367 -0.0192276)
(0.047 0.0299729 -0.0244176)
(0.00437644 0.0727031 -0.0261227)
(0.0841686 0.117267 -0.034098)
(0.139818 0.069946 -0.0303465)
(0.2012 0.0846955 -0.0126799)
(0.157929 0.12909 -0.0127636)
(0.164336 0.093815 0.0132511)
(0.147528 0.0562765 0.0162419)
(0.0434017 0.0255325 0.00993773)
(0.106002 0.0490841 0.0179538)
(0.0516747 0.0285825 0.00828794)
(0.0143315 0.0136259 0.0017022)
(0.00318968 0.00448021 -0.000732921)
(0.0214549 0.0251375 0.000385062)
(0.00289863 0.0159478 -0.0036753)
(-0.00163848 0.00897599 -0.00344817)
(-0.00762219 0.120616 -0.0112883)
(-0.0149629 0.0825101 0.0130866)
(-0.0185337 0.123738 0.013808)
(0.0258809 0.1555 -0.0219624)
(0.106136 0.178561 -0.0168863)
(0.0261385 0.181738 0.01133)
(0.0697039 0.16051 0.0122096)
(0.127984 0.140268 0.00836318)
(0.100821 0.0750013 0.0136254)
(0.0713786 0.108934 0.0156044)
(0.0605815 0.0618251 0.0101701)
(0.0695122 0.0385801 0.00943751)
(0.0534783 0.0329191 0.00280167)
(0.0496597 0.034051 0.0056668)
(0.0397149 0.0218644 0.00306323)
(0.0269791 0.0286487 0.00232735)
(-0.0129843 0.0255518 -0.00338537)
(-0.00463959 0.00901891 -0.00310539)
(-0.0206988 -0.00401545 -0.00738696)
(-0.00837186 0.0117842 -0.00328423)
(-0.0196405 0.00162368 -0.00656198)
(-0.00492986 0.00137514 -0.00644958)
(-0.0107714 0.0605701 0.01916)
(-0.0168532 0.066233 0.0160253)
(0.00645691 0.0272819 0.00554232)
(0.0017529 0.102821 0.025351)
(0.0356522 0.116555 0.0230292)
(0.0218533 0.0465815 0.00926856)
(0.030735 0.057096 0.0111849)
(0.039246 0.0822481 0.0108644)
(0.0270536 0.0575355 0.00514908)
(0.0187937 0.0599776 0.00822867)
(0.00491756 0.0317477 0.00561643)
(0.0110993 0.0219555 -0.000719063)
(0.00701314 0.00376122 -0.00037364)
(-0.0132671 0.00120901 -0.00221604)
(-0.00985472 -0.00974861 -0.00479077)
(-0.0160886 -0.0052928 -0.00449506)
(-0.0138446 -0.00893319 -0.00469532)
(-0.0101344 -0.0112472 -0.00479209)
(-0.00883111 -0.00625042 -0.00550109)
(-0.0149569 -0.000942574 -0.00437524)
(-0.00377741 0.000507435 -0.00324078)
(-0.00461784 -0.00284561 -0.00239365)
(0.00854079 0.0113276 0.000255932)
(0.0167969 0.0171679 0.00165664)
(0.023853 -0.000671792 0.00616726)
(0.00835703 0.000738887 -0.00404345)
(0.010322 -0.0195342 -0.0054841)
(-0.00120581 -0.0275992 0.00732296)
(-0.0188855 -0.0424459 -0.00161303)
(0.00661432 -0.0470523 -0.00615361)
(-0.00905491 -0.0481632 -0.012471)
(-0.0164907 -0.0428891 -0.006689)
(-0.0120923 -0.0231601 -0.0111839)
(-0.0104315 -0.0341326 -0.0155303)
(-0.0120345 -0.0224572 -0.00877135)
(-0.00786551 -0.0117766 -0.00634879)
(-0.00598131 -0.00394446 -0.0023719)
(-0.0081221 -0.00888137 -0.00341376)
(-0.00451183 -0.0027288 -0.00307901)
(-0.00233248 -0.00163837 -0.00227048)
(0.00301359 -0.0121993 -0.0109722)
(-0.00134604 -0.018591 -0.00780591)
(-0.00400657 -0.0125376 -0.00911311)
(-0.000609901 -0.000685412 -0.00163349)
(0.00299516 -0.0124286 -0.00692692)
(-0.00596709 -0.0100387 -0.00364478)
(0.000198404 0.000191558 -0.00327112)
(-0.00452264 -0.00477537 -0.00433878)
(0.0487448 -0.00525941 -0.0658122)
(0.0425262 0.000982745 -0.135879)
(0.105364 -0.00203447 -0.0545272)
(0.0972487 0.00981487 -0.0717342)
(0.142377 0.0243374 -0.0573823)
(0.0514437 0.00380583 -0.0807748)
(0.068172 0.0245293 -0.134942)
(0.0837401 0.0365112 -0.10361)
(0.163372 0.0579662 -0.0316521)
(0.147512 0.0709702 -0.0260296)
(0.0439656 0.0176464 -0.0612824)
(0.070282 0.0541914 -0.0515041)
(0.0578418 0.0423324 -0.0323382)
(0.0641251 0.0502531 -0.0638255)
(0.0377864 0.0265446 -0.0584645)
(-0.0227967 0.0829158 -0.0722085)
(0.00170168 0.047761 -0.146667)
(0.0617734 0.0415573 -0.0836598)
(0.0183229 0.0855167 -0.084866)
(0.098408 0.119974 -0.0911205)
(0.0289173 0.0165278 -0.149832)
(0.0694789 0.0466457 -0.156903)
(0.0538821 0.0638751 -0.162391)
(0.0929465 0.0920968 -0.138186)
(0.0193872 0.0334976 -0.0657137)
(0.0305682 0.0361765 -0.0368566)
(0.00245137 0.00772642 -0.0624104)
(0.046852 0.0567782 -0.0239495)
(0.0223003 0.0230121 -0.0597437)
(0.0287201 0.0366252 -0.0074053)
(0.00403177 0.00382073 -0.0356894)
(-0.00259377 0.00726997 -0.0858616)
(0.00457208 0.00603607 -0.0666914)
(-0.0128653 0.145353 -0.0528677)
(-0.0244159 0.174246 0.0206854)
(-0.0185089 0.192554 0.00325883)
(0.016868 0.0813996 -0.114772)
(0.00640752 0.0736222 -0.0447721)
(0.0344266 0.105303 -0.0501182)
(0.027758 0.00938709 -0.0932102)
(0.01118 0.0211443 -0.0807912)
(-0.00826481 -0.00401624 -0.0352259)
(0.0184553 0.00527768 -0.0370753)
(0.00532275 0.0128371 -0.0319318)
(-0.015458 0.159493 0.0628481)
(0.0158459 0.0718795 0.0106865)
(0.042667 0.0819611 -0.0353697)
(0.0946974 0.0927797 -0.00731547)
(0.0375549 0.0203258 -0.0111916)
(0.0118364 0.0136847 -0.0812111)
(-0.0124584 0.0351772 -0.0908968)
(0.0206581 0.00832476 -0.0414711)
(0.00242709 0.00837135 -0.037156)
(-0.00525734 0.0169635 -0.0452545)
(-0.00504813 -0.00263672 -0.0314)
(0.00309934 0.000490186 -0.0558404)
(-0.056956 -0.113829 -0.0459106)
(-0.0184973 -0.0427315 -0.0652337)
(-0.0446874 -0.06752 -0.0856754)
(-0.00207635 -0.0423778 -0.0443523)
(-0.0429659 -0.0859077 -0.0134627)
(-0.00187772 -0.0167978 -0.0843891)
(-0.0152363 -0.0448244 -0.0564261)
(0.016905 0.00394515 -0.101588)
(0.0305817 -0.0143534 -0.107545)
(0.0204781 -0.0123495 -0.104779)
(0.000591342 -0.0182664 -0.0669911)
(0.019055 0.00477205 -0.0673486)
(0.0286742 -0.0139495 -0.0717382)
(0.0207504 -0.00994099 -0.0777701)
(0.00685085 0.000389172 -0.0665261)
(-0.0387042 -0.0407829 -0.107517)
(-0.0183318 -0.0236506 -0.0878326)
(-0.0174293 -0.0150163 -0.11278)
(-0.0124521 -0.0247757 -0.0905449)
(-0.0301143 -0.0350228 -0.0610831)
(-0.0195971 -0.0376669 -0.0652075)
(-0.00593996 -0.029475 -0.0422937)
(0.0288881 -0.0204586 -0.107868)
(-0.000671884 -0.0226189 -0.102544)
(0.00160134 -0.0239182 -0.0627642)
(0.0247507 -0.0233902 -0.06513)
(0.00322963 -0.0263969 -0.0413621)
(0.0284697 -0.0150605 -0.0785679)
(0.0376775 0.00854014 -0.205744)
(0.041642 0.00112654 -0.247864)
(0.00939898 0.00891144 -0.110055)
(0.040855 0.0304678 -0.186903)
(0.0371575 0.040148 -0.131344)
(-0.0284233 0.012637 -0.132286)
(0.020401 0.0316949 -0.214857)
(-0.0091891 0.0297563 -0.140757)
(0.0187675 0.0322537 -0.0195124)
(0.00696969 0.0241288 0.0351628)
(-0.0400926 -0.00294936 -0.0600603)
(-0.0364783 0.00245579 -0.0149988)
(-0.0233602 0.00889892 0.0426668)
(0.00637039 0.0152026 0.0114535)
(-0.00585518 0.00512088 0.0241473)
(0.0309441 -0.00312611 -0.223062)
(0.0518444 -0.0420227 -0.300994)
(0.0634057 0.037755 -0.201874)
(0.0695165 0.0234121 -0.211712)
(0.0688425 0.0511148 -0.155006)
(0.0645116 -0.0190471 -0.271802)
(0.064328 0.0108349 -0.222721)
(0.0720093 -0.0235157 -0.238906)
(0.017589 -0.0474369 -0.135229)
(0.0129892 0.0152717 0.0244727)
(0.0274741 0.0222504 0.0767507)
(0.00805433 0.00388871 0.0549099)
(0.0165382 0.0225478 0.10768)
(0.00760995 0.0137107 0.0554969)
(0.0357411 0.00579081 0.162529)
(0.010831 0.00804429 0.112109)
(0.00736707 0.0147736 0.0268509)
(0.00800038 0.0200377 0.0636564)
(0.0476886 0.0133636 -0.171584)
(0.0207167 -0.0110621 -0.0855987)
(0.0658257 0.00859399 -0.0711071)
(0.0677791 -0.0449618 -0.21554)
(0.0151146 -0.0473601 -0.130645)
(0.0713417 -0.050647 -0.100253)
(0.0185895 0.00977636 0.0465287)
(0.00268263 0.0102577 0.0539334)
(0.00949304 0.0174966 0.108004)
(0.0247139 0.0140838 0.114267)
(0.00371812 0.0111515 0.115652)
(0.0782669 0.0216521 -0.00601765)
(0.0493103 0.0147161 0.00684666)
(0.0072089 -0.033282 -0.0793347)
(0.0399433 -0.0273552 -0.0170927)
(0.0311562 5.04955e-05 -0.0044459)
(0.00435043 0.000716979 0.0528819)
(-0.00195676 0.00383453 0.0478898)
(0.0283054 0.00443591 0.125501)
(0.00290204 0.00272929 0.111852)
(0.0178504 -0.00548573 0.141225)
(0.0271682 0.017502 -0.0301298)
(0.025539 0.0209527 -0.0343659)
(-0.00781966 -0.0542533 0.055565)
(0.0194851 0.00931229 -0.0343469)
(0.0206684 -0.0170159 0.00701116)
(0.0571527 0.0284958 0.0206771)
(0.0303036 -0.0157996 0.108215)
(0.0311075 0.0227961 -0.0173138)
(0.0313663 0.0022467 0.0338036)
(0.0273211 -0.00430971 0.0261944)
(0.0148148 -0.00898799 0.0288089)
(0.0153472 -0.00732898 0.0238342)
(0.00583596 -0.00702017 0.127199)
(0.0326439 -0.00509529 0.127083)
(0.0155233 -0.00475473 0.122265)
(0.00784694 -0.0100332 0.123497)
(0.0174372 -0.0217937 0.131899)
(0.00872568 -0.00140893 -0.0263981)
(0.0187012 0.00768432 -0.0055879)
(-0.0045851 -0.0382584 0.0295422)
(-0.000809461 -0.0271086 0.0360424)
(0.0233898 0.00370133 0.046956)
(0.019927 -0.00644944 0.0867639)
(0.0200528 -0.00975212 0.0847224)
(0.0254256 -0.0291494 0.0367519)
(0.00790478 -0.0232022 0.0466443)
(0.0239758 -0.00901069 0.114023)
(0.0246343 -0.0187014 0.128539)
(0.0218388 -0.0121243 0.108943)
(0.0194662 -0.0146296 0.12242)
(0.095561 -0.047742 -0.704569)
(0 0 0)
(-0.0703774 -0.0312928 -0.176362)
(0.0453454 0.00555339 -0.678752)
(-0.0565894 -0.0759379 -0.0693311)
(-0.0900857 -0.0643035 -0.0308814)
(0.0287239 0.00341575 -0.65244)
(-0.0714854 -0.129548 -0.0122955)
(-0.0538239 -0.0277662 -0.00150189)
(-0.0325661 -0.0128073 0.0304166)
(-0.0669936 -0.125454 -0.0208014)
(-0.024042 -0.0934284 0.0585859)
(-0.0142571 -0.054603 0.0596276)
(-0.0143228 -0.00858854 0.0195901)
(-0.0068217 -0.0245182 0.0269905)
(0.00412322 -0.106872 -0.394153)
(-0.123211 -0.166901 -0.333872)
(-0.0119636 -0.314321 -0.328124)
(-0.0843607 -0.23086 -0.207716)
(-0.066726 -0.245848 -0.0974985)
(0.0593769 -0.0717786 -0.6768)
(-3.45287e-14 2.42879e-14 2.27058e-13)
(-0.100729 -0.293391 -0.159)
(-0.0473879 -0.308131 -0.0562488)
(0.0114371 0.0117912 0.0663428)
(0.057593 0.000470574 0.243043)
(0.0241866 0.0152185 0.156689)
(0.0356719 -0.0236527 0.18072)
(0.0305047 0.0129482 0.0728303)
(0.0857672 -0.000928965 0.303235)
(0.0636067 0.0196241 0.193664)
(0.0103854 0.023653 0.0858324)
(0.0311422 0.0298555 0.103811)
(0.0171582 -0.105966 -0.26949)
(0.0253113 -0.0643046 -0.182274)
(0.048462 -0.087062 -0.113438)
(-0.120658 -0.188385 -0.154058)
(-0.0735158 -0.124864 -0.157073)
(-0.0553241 -0.114291 -0.0493395)
(0.0228204 0.00889957 0.151205)
(0.00478791 0.00600164 0.141525)
(0.0331525 0.0203796 0.160361)
(0.0348374 0.00933819 0.180075)
(0.0077342 0.00165628 0.155559)
(0.0207294 -0.0447517 -0.0525789)
(0.0191789 0.0169301 -0.0417621)
(-0.028853 -0.0596467 -0.11774)
(-0.0220975 -0.0377549 -0.0189192)
(-0.00271962 0.0283384 -0.0557606)
(0.00497902 0.00213675 0.152155)
(0.0166776 -0.00823067 0.184191)
(0.020042 -0.00272377 0.193936)
(0.00433783 -0.00719231 0.167165)
(0.012972 -0.00856111 0.208188)
(0.0247993 0.0373809 -0.0609794)
(0.031345 0.061185 -0.0862374)
(0.0609258 0.033265 0.146981)
(0.029202 0.0325387 -0.016461)
(0.0458873 0.0342537 0.0429882)
(0.0299046 0.109744 0.0752012)
(0.0679923 0.0903254 0.172178)
(0.0201947 0.0731399 -0.0160949)
(0.0442196 0.105634 0.0513726)
(0.0189306 -0.0110662 0.203216)
(0.00156787 -0.00635813 0.201353)
(-0.00623049 -0.0126518 0.19881)
(0.0163506 0.013718 0.232032)
(0.00948955 -0.00755294 0.232809)
(-0.000747726 0.00321518 0.225102)
(-0.00152673 -0.0070796 0.215695)
(0.000929964 -0.0144936 0.20833)
(0.0247027 0.0157941 -0.00582399)
(0.0350341 0.0626353 -0.00472338)
(0.0195722 0.00929428 0.103237)
(0.0163454 -0.00130491 0.0918106)
(0.0295756 0.0584073 0.0751967)
(0.016619 0.0374699 0.124473)
(0.00830211 0.00806263 0.111595)
(0.0145877 -0.00594833 0.178796)
(0.0145491 0.000519838 0.12746)
(0.00675184 0.0208317 0.167061)
(0.0035871 0.00514948 0.188426)
(-0.000249605 0.00451273 0.134397)
(-0.000713883 -0.000848228 0.194683)
(0 0 0)
(0 0 0)
(0 0 0)
(0.0749101 -0.00246258 -0.63282)
(-0.120377 -0.128529 0.0514005)
(0 0 0)
(0.0555828 -0.0104715 -0.627181)
(0.025973 0.0179263 -0.610713)
(-0.0182805 -0.121275 0.0771311)
(0.0227435 -0.110282 0.110658)
(0 0 0)
(0 0 0)
(0.0264434 -0.13351 0.111814)
(0.0388462 -0.0670827 0.0794314)