/*--------------------------------*- C++ -*----------------------------------*\
| =========                 |                                                 |
| \\      /  F ield         | OpenFOAM: The Open Source CFD Toolbox           |
|  \\    /   O peration     | Version:  5.x                                   |
|   \\  /    A nd           | Web:      www.OpenFOAM.org                      |
|    \\/     M anipulation  |                                                 |
\*---------------------------------------------------------------------------*/
FoamFile
{
    version     2.0;
    format      ascii;
    class       volScalarField;
    location    "4";
    object      p;
}
// * * * * * * * * * * * * * * * * * * * * * * * * * * * * * * * * * * * * * //

dimensions      [0 2 -2 0 0 0 0];

internalField   nonuniform List<scalar> 
10571
(
182.994
187.898
180.411
184.529
188.031
206.801
187.743
185.711
186.931
185.147
217.426
213.995
203.128
196.831
188.224
181.319
225.778
236.519
214.442
208.691
201.644
268.547
248.764
216.97
69.8493
140.997
165.892
158.708
54.336
155.063
167.706
169.54
133.939
139.33
201.492
195.199
184.343
181.904
165.597
169.227
197.737
191.452
193.626
187.701
180.829
217.016
194.972
194.23
49.5076
75.5039
102.017
46.0901
49.3593
92.685
127.938
117.62
52.5386
44.3551
103.759
128.649
140.308
145.912
134.417
145.757
122.923
86.7784
167.707
173.141
154.603
134.377
157.038
179.677
45.8892
41.9618
37.9522
42.3073
46.9334
57.2059
54.5711
43.7048
35.8428
44.5178
54.392
56.51
67.9142
48.4593
42.7542
43.411
50.6994
42.3049
56.1998
91.8737
78.3749
72.5319
93.4757
104.438
42.6005
41.3088
40.5419
41.0723
42.7072
37.4907
34.2723
35.4525
37.3168
39.4637
41.4138
39.4394
37.894
37.4181
35.1765
37.0285
39.6692
37.8714
37.2729
36.7486
37.261
42.5564
49.1065
46.033
40.1246
39.6574
38.9055
39.9454
39.712
38.2286
38.2024
37.8224
37.6825
37.4317
36.7382
37.9631
37.413
37.0633
37.4657
37.2847
36.9496
36.8014
37.4758
37.6926
37.6362
36.8932
37.0793
36.6429
38.5976
37.7623
36.91
38.176
37.6962
37.3592
37.1643
37.1757
37.2234
36.4185
36.8683
37.1294
36.7884
36.9775
36.8241
37.0831
36.5466
36.6541
36.796
36.8883
36.8953
37.1171
36.4949
36.711
36.6416
36.9541
36.7344
36.7959
36.7865
36.4886
36.6488
35.8932
36.1958
36.8838
36.5933
36.4121
36.3012
36.6493
37.0703
36.9321
36.5989
36.5531
36.6718
36.5562
36.7005
36.7899
36.9395
36.7604
36.8363
36.7147
36.6963
36.6794
37.0334
36.8025
36.5186
36.6608
36.776
36.0231
36.2118
36.7304
36.8616
36.221
36.536
36.7609
36.7885
37.1895
37.5283
36.435
36.3833
36.6481
36.7134
36.7886
36.7228
37.1272
36.7141
36.7329
36.7388
36.7009
36.4446
36.6696
36.6074
36.6611
36.8702
35.9648
36.1875
36.7105
36.7156
36.0925
36.6541
36.837
36.835
36.7302
36.4498
36.3821
36.6955
36.7497
36.7675
36.6314
36.6752
36.7386
36.7363
36.6883
36.5148
36.6724
36.6849
36.7072
36.7837
36.0279
36.226
36.6138
36.5466
36.1401
36.6961
36.7228
36.7705
36.8714
36.4214
36.2651
36.7261
36.7286
36.6981
36.7151
36.6274
36.7737
36.7304
36.6886
36.6889
36.722
36.7349
36.7319
36.7228
36.2873
36.4086
36.5586
36.5065
36.3802
36.7051
36.6523
36.6979
36.9104
36.4883
36.4205
36.7658
36.7202
36.6977
36.7603
36.6594
36.8087
36.7301
36.7195
36.7389
36.7724
36.7667
36.7544
36.6701
36.5894
36.5832
36.5602
36.5378
36.6532
36.7488
36.6441
36.6843
36.7802
36.6583
36.5924
36.8181
36.7288
36.7353
36.754
36.7222
36.843
36.7769
36.7738
36.7978
36.8149
36.8117
36.8062
36.6649
36.8532
36.7212
36.6112
36.6952
36.8305
36.8226
36.6953
36.7806
36.7157
36.7925
36.7225
36.8716
36.7604
36.8156
36.7946
36.792
36.8752
36.8502
36.8607
36.8821
36.8693
36.8669
36.8709
36.7368
37.0192
36.8575
36.7128
36.8434
36.9315
36.9046
36.7912
36.9411
36.8532
36.8848
36.8226
36.9175
36.84
36.9176
36.912
36.8435
36.9203
36.9205
36.9454
36.9706
36.9266
36.9306
36.9435
36.8957
37.1163
36.9698
36.8133
36.9941
36.9948
36.9725
36.8912
37.0891
37.0785
36.9769
36.9246
36.9582
36.9317
37.0248
37.0339
36.9119
36.9695
36.9788
37.0247
37.0257
36.9832
36.9872
37.0048
37.0367
37.1642
37.0458
36.8718
37.083
37.0651
37.029
36.9713
37.1599
37.1917
37.0776
37.0458
37.0101
37.0038
37.1049
37.1178
37.0171
37.0209
37.0071
37.0719
37.081
37.0334
37.0245
37.0336
37.1101
37.1901
37.0814
36.9933
37.1373
37.1311
37.0762
37.0455
37.1551
37.1949
37.1758
37.1479
37.0487
37.054
37.1217
37.1501
37.1021
37.0584
37.046
37.0841
37.1052
37.0662
37.0532
37.0525
37.1718
37.2089
37.1317
37.1105
37.1693
37.1636
37.1111
37.1113
37.1424
37.1749
37.2312
37.2021
37.0403
37.0889
37.1342
37.1353
37.1432
37.068
37.0891
37.0997
37.1201
37.0848
37.0738
37.079
37.2181
37.222
37.207
37.1808
37.2086
37.1761
37.1442
37.1601
37.1551
37.1853
37.2364
37.2174
37.0312
37.1033
37.1697
37.1426
37.1318
37.0739
37.1062
37.129
37.1482
37.1002
37.0887
37.1132
37.2502
37.2317
37.2508
37.2334
37.2474
37.1823
37.1979
37.2139
37.1864
37.2266
37.225
37.2146
37.0986
37.1114
37.2255
37.1967
37.1172
37.0979
37.1243
37.1623
37.1981
37.1223
37.1207
37.1419
37.278
37.2452
37.2713
37.2729
37.2809
37.2054
37.2455
37.2568
37.2225
37.2816
37.2409
37.2216
37.2173
37.1438
37.2844
37.2782
37.1502
37.1477
37.1463
37.1814
37.257
37.1496
37.1457
37.1596
37.3149
37.2672
37.2977
37.3148
37.3255
37.2392
37.3079
37.281
37.2505
37.3146
37.2386
37.2365
37.3832
37.1945
37.3239
37.3469
37.1897
37.1905
37.1571
37.1761
37.3014
37.1806
37.1641
37.1606
37.3414
37.2957
37.3199
37.3347
37.3545
37.2647
37.3464
37.2664
37.2923
37.3338
37.2443
37.243
37.4342
37.2404
37.3101
37.3757
37.2052
37.1929
37.147
37.1573
37.319
37.2024
37.1703
37.1712
37.3412
37.3239
37.3337
37.3158
37.3587
37.2908
37.3516
37.2492
37.3378
37.3748
37.2274
37.1722
37.3253
37.2494
37.2714
37.3824
37.1724
37.1902
37.1218
37.1475
37.3343
37.2159
37.1661
37.1802
37.342
37.3485
37.3556
37.3128
37.3656
37.306
37.4467
37.2536
37.3912
37.4525
37.1945
37.0985
37.2376
37.2502
37.2265
37.3709
37.1387
37.2082
37.083
37.1444
37.358
37.2246
37.1559
37.183
37.3553
37.3754
37.3895
37.3274
37.3693
37.3315
37.5519
37.2794
37.4396
37.5455
37.2173
37.1493
37.1863
37.2306
37.1906
37.3662
37.1633
37.233
37.0366
37.1185
37.3549
37.2475
37.1574
37.1846
37.3997
37.3927
37.4098
37.3626
37.3692
37.3396
37.5046
37.338
37.3821
37.5434
37.2588
37.1327
37.1814
37.1766
37.1333
37.348
37.2116
37.2709
37.0064
37.0639
37.322
37.2869
37.1735
37.1853
37.4386
37.393
37.3995
37.4213
37.3442
37.344
37.3004
37.347
37.2552
37.4383
37.299
37.0982
37.2231
37.1175
37.05
37.2916
37.2885
37.3159
37.0115
37.0027
37.2848
37.3418
37.2081
37.1916
37.4381
37.3854
37.3465
37.4503
37.3362
37.3581
37.1793
37.2734
37.1254
37.3275
37.3687
37.1957
37.2746
37.0636
36.9799
37.2225
37.3882
37.3691
37.0427
36.9714
37.2432
37.4091
37.2656
37.2191
37.3889
37.401
37.3014
37.3464
37.3121
37.3887
37.1202
37.14
37.0362
37.2451
37.4859
37.4314
37.3117
37.0359
36.9434
37.1744
37.5086
37.4252
37.1035
36.9882
37.2186
37.4839
37.3361
37.2629
37.3247
37.4113
37.285
37.2472
37.2706
37.3756
37.1474
37.0166
37.0003
37.2036
37.6443
37.7988
37.3612
37.0335
36.9644
37.1656
37.6208
37.487
37.1986
37.0641
37.2291
37.563
37.4141
37.3195
37.2863
37.454
37.2701
37.1777
37.2476
37.5798
37.1644
36.9352
36.9988
37.1866
37.7842
37.8871
37.3891
37.0875
37.0535
37.1826
37.7187
37.5531
37.3103
37.1901
37.2852
37.6444
37.5014
37.4311
37.3062
37.5351
37.3242
37.2109
37.2693
37.6947
37.1806
36.9454
37.051
37.2129
37.8848
37.8298
37.4198
37.1973
37.1846
37.2447
37.836
37.6298
37.4233
37.317
37.3801
37.7275
37.5908
37.5104
37.3825
37.6
37.4132
37.3046
37.3571
37.6954
37.211
37.0159
37.1688
37.316
37.8864
37.8146
37.4907
37.325
37.332
37.373
37.9082
37.7104
37.5327
37.4318
37.4958
37.8112
37.6902
37.5852
37.4913
37.6303
37.4818
37.4245
37.4695
37.6168
37.2622
37.1135
37.3269
37.478
37.8921
37.7868
37.5628
37.4468
37.4752
37.5114
37.923
37.7874
37.6292
37.5599
37.6155
37.8943
37.8021
37.7136
37.6074
37.6358
37.5306
37.5447
37.5994
37.4675
37.2786
37.257
37.4695
37.6393
37.8728
37.7214
37.6326
37.5605
37.6266
37.6522
37.925
37.8508
37.7229
37.6997
37.7629
37.9652
37.9091
37.8594
37.7213
37.6442
37.5946
37.6499
37.7343
37.3589
37.3329
37.4462
37.6353
37.7927
37.82
37.6417
37.682
37.6614
37.7468
37.7997
37.9111
37.887
37.8005
37.8145
37.9057
38.0017
37.9692
37.9584
37.8313
37.6707
37.6702
37.7601
37.8581
37.3299
37.4846
37.6705
37.7986
37.9774
37.7578
37.5964
37.6997
37.732
37.829
37.945
37.8729
37.8853
37.8157
37.8687
38.0296
37.9924
37.9593
37.9782
37.8936
37.6883
37.7905
37.905
37.9275
37.3534
37.6509
37.7952
37.9303
38.2125
37.7082
37.5556
37.7046
37.7472
37.8755
38.1044
37.845
37.8508
37.7611
37.8668
38.0443
37.9373
37.8897
37.9024
37.9065
37.7103
37.8559
37.958
37.889
37.4336
37.7503
37.8001
37.8457
38.0349
37.6836
37.5526
37.6799
37.6909
37.8121
38.0336
37.8542
37.7826
37.6649
37.7866
37.9229
37.8504
37.7867
37.781
37.8807
37.7629
37.8378
37.8864
37.8032
37.5182
37.7334
37.729
37.7227
37.7919
37.6605
37.5748
37.6202
37.5888
37.6914
37.8415
37.829
37.6692
37.552
37.6381
37.7299
37.7418
37.667
37.6343
37.7928
37.7918
37.8558
37.7731
37.6878
37.6677
37.6591
37.6183
37.6261
37.679
37.6365
37.5696
37.5241
37.4733
37.5586
37.6605
37.7522
37.5411
37.4517
37.449
37.5294
37.6325
37.5476
37.4831
37.6992
37.8053
37.9292
37.6499
37.6614
37.6736
37.5677
37.5231
37.5903
37.659
37.6151
37.5414
37.4199
37.3813
37.4644
37.5375
37.6397
37.4361
37.3771
37.279
37.3596
37.5327
37.4555
37.375
37.6009
37.7375
37.717
37.5462
37.6383
37.6022
37.4665
37.458
37.5745
37.6457
37.5678
37.4727
37.3473
37.3491
37.4135
37.4906
37.5187
37.3754
37.353
37.2891
37.3176
37.4603
37.419
37.3703
37.4677
37.562
37.4471
37.443
37.6045
37.4771
37.371
37.4161
37.5552
37.6212
37.4812
37.3849
37.3188
37.3624
37.4184
37.5074
37.4269
37.3584
37.3838
37.4097
37.417
37.4302
37.4287
37.423
37.3661
37.3723
37.158
37.3445
37.5536
37.3676
37.3075
37.3989
37.5363
37.5988
37.4132
37.3352
37.312
37.392
37.4907
37.5598
37.3924
37.379
37.4424
37.4989
37.5355
37.4287
37.4645
37.4856
37.4903
37.268
37.0975
37.4362
37.5063
37.3204
37.3134
37.4011
37.513
37.5797
37.3777
37.3163
37.318
37.422
37.5125
37.592
37.3984
37.4077
37.5106
37.5135
37.5718
37.452
37.5048
37.5121
37.693
37.3046
37.2936
37.5307
37.4827
37.3405
37.3529
37.4107
37.4922
37.5676
37.3893
37.3495
37.3545
37.4597
37.5133
37.6091
37.434
37.4515
37.5468
37.5391
37.594
37.4939
37.5517
37.5535
37.6063
37.4031
37.5395
37.5531
37.4814
37.3965
37.4004
37.4327
37.4862
37.5675
37.4331
37.4036
37.4053
37.5255
37.5749
37.6333
37.488
37.5289
37.5982
37.691
37.6532
37.5615
37.6365
37.6764
37.5789
37.4846
37.5887
37.539
37.5031
37.447
37.4086
37.467
37.477
37.5752
37.4877
37.4698
37.4425
37.5987
37.6027
37.6407
37.5476
37.6007
37.6998
37.7733
37.6997
37.6333
37.7121
37.7582
37.5952
37.5566
37.5487
37.5447
37.545
37.4954
37.4243
37.4895
37.489
37.5876
37.5405
37.5259
37.475
37.6105
37.5721
37.6258
37.5918
37.6282
37.7163
37.736
37.6849
37.6793
37.718
37.714
37.6428
37.6028
37.5623
37.5996
37.6043
37.4969
37.4757
37.4978
37.5244
37.5995
37.5877
37.5936
37.5024
37.5925
37.5496
37.5973
37.6142
37.6094
37.6502
37.6441
37.6459
37.6874
37.6916
37.6658
37.7054
37.782
37.6432
37.6542
37.6526
37.5943
37.5241
37.5107
37.5253
37.5903
37.6204
37.6516
37.5188
37.5551
37.52
37.5592
37.6194
37.5725
37.5649
37.5717
37.598
37.6639
37.6465
37.6126
37.7026
37.7115
37.6109
37.6061
37.6117
37.5765
37.5495
37.4671
37.4842
37.5588
37.6197
37.6118
37.5085
37.4818
37.4647
37.5087
37.6004
37.5185
37.4737
37.5034
37.5438
37.6105
37.5575
37.5426
37.634
37.6288
37.5309
37.5125
37.5842
37.4919
37.5237
37.4094
37.443
37.5201
37.599
37.5515
37.4724
37.389
37.3985
37.4455
37.5658
37.4392
37.3806
37.4297
37.475
37.5335
37.4577
37.4648
37.6771
37.6762
37.6536
37.5635
37.6148
37.4638
37.5407
37.3851
37.4102
37.4857
37.614
37.5398
37.4718
37.3155
37.3246
37.3666
37.5469
37.3561
37.2895
37.3518
37.3912
37.4653
37.3869
37.3806
37.8127
37.8217
37.8696
37.7192
37.6899
37.629
37.6922
37.4063
37.358
37.4463
37.692
37.6203
37.5085
37.2551
37.2059
37.2548
37.5581
37.3089
37.2011
37.2503
37.2778
37.3911
37.2967
37.2805
37.9883
38.0315
38.0645
37.8795
37.7612
37.8804
37.8961
37.4434
37.2831
37.385
37.8368
37.7711
37.5611
37.1926
37.0292
37.0781
37.6175
37.2876
37.1097
37.1101
37.1132
37.3396
37.2149
37.1634
38.1693
38.2706
38.2366
38.0015
37.7771
38.1279
38.0622
37.4791
37.0767
37.1539
38.0596
37.9777
37.6947
37.1273
36.7762
36.6924
37.6921
37.2822
37.0008
36.9573
36.8436
37.2598
37.1264
37.0272
38.204
38.5488
38.4791
37.9812
37.6112
38.4624
38.0385
37.4568
36.4768
36.4335
38.3739
38.2699
37.9505
37.0787
36.2985
35.6266
37.8064
37.2874
36.8794
36.679
36.2983
37.1496
37.0142
36.848
37.8876
38.9587
38.3859
37.5316
37.0239
38.9456
37.8661
37.0576
35.2669
34.1322
38.7947
38.4071
37.8411
36.9074
35.4168
32.4333
37.8706
37.2511
36.7376
36.2525
35.0191
37.0919
36.9066
36.6524
37.6581
39.2044
38.1355
37.0486
36.1359
39.6182
37.5875
35.9255
33.5381
27.2557
39.3344
38.625
37.3684
36.3347
34.0571
27.9961
-17.5091
37.8449
36.9677
36.4449
35.574
32.245
37.0406
36.7333
36.4044
37.3337
38.661
37.482
36.3848
35.1083
39.142
36.7605
34.9118
32.2845
21.4147
-2.69572
39.3538
38.877
36.6065
35.3413
32.8755
26.2624
1.74726
37.7171
36.3755
35.8194
34.8584
28.6005
36.7825
36.4068
36.0726
35.5474
37.673
36.4891
34.8904
33.6192
37.9224
35.62
33.9115
32.1305
26.0368
7.3645
38.2526
37.5551
35.4589
34.0846
32.3259
25.9442
8.95772
37.0733
35.5765
34.978
34.3647
30.268
11.8298
36.2826
35.9035
35.7213
33.7506
36.5338
35.3332
33.4844
32.4354
36.6481
34.6229
33.162
31.9847
27.8365
10.5082
37.1593
36.2386
34.2614
33.0689
32.3062
27.2096
9.214
36.0238
34.7751
34.3053
33.9503
33.7717
35.6454
35.3154
35.2985
32.5966
35.5499
34.3914
32.4998
32.0794
35.5378
33.92
32.7031
32.0937
31.4391
36.2146
35.2652
33.3764
32.6601
32.6781
29.1465
1.21492
34.839
34.2506
34.0163
33.7489
34.3737
35.057
34.8022
34.8959
32.6688
34.9165
33.9519
32.4645
32.2202
34.7542
33.5325
32.476
32.2648
33.1274
35.2087
34.604
32.7981
32.5763
32.9475
33.219
34.3756
34.0164
34.0195
33.8777
34.8813
34.645
34.5254
34.7105
33.4085
34.6859
33.9449
32.9396
33.0761
34.2967
33.3635
32.5283
32.5102
33.8826
34.6278
34.1092
32.5597
32.5797
33.178
34.2305
34.6409
34.0443
34.139
34.0917
34.8573
34.43
34.4421
34.6714
34.373
34.7701
34.224
33.665
33.9816
34.1238
33.2411
32.6678
32.8957
34.3927
34.2734
33.7815
32.408
32.5897
33.3558
34.4618
34.3855
34.0831
34.3049
34.2977
34.9458
34.3946
34.5585
34.7959
35.4111
35.1249
34.7634
34.5462
35.0086
34.1202
33.2385
33.1271
33.7259
35.0999
33.9134
33.4242
32.1498
32.8164
33.9902
35.1133
33.8444
33.9418
34.6225
34.75
35.3969
34.4712
34.8656
35.2738
36.4644
35.7496
35.5919
35.5505
36.0616
34.3744
33.6527
34.0656
34.9035
36.0295
33.4829
33.0975
32.5785
33.6599
35.2216
36.1021
33.2415
34.1482
35.427
35.7367
36.3945
34.8573
35.6288
36.1936
37.6032
36.6164
36.682
36.6823
37.0789
34.9289
34.3447
34.9904
35.9656
36.9564
33.2654
33.0344
33.356
34.7006
36.3761
37.1066
32.8068
35.0225
36.6083
36.9382
37.4573
35.9692
37.0991
37.4527
38.9611
38.1884
38.0888
37.8112
37.9764
35.8316
35.4208
35.7529
36.701
37.6542
34.2166
33.4907
33.8564
34.9069
36.4728
37.8417
33.2751
35.272
36.747
37.8841
38.278
37.775
38.9325
38.9366
39.7609
39.266
38.9508
38.5308
38.4277
36.7621
36.1701
36.3695
37.1735
37.8753
36.4213
34.5431
34.6883
35.704
36.9693
38.0544
35.2547
36.542
37.8271
38.4957
38.7479
39.7302
40.6005
40.2388
187.02
183.717
184.569
184.251
185.073
186.461
195.06
211.677
213.247
197.075
191.519
206.275
193.323
184.968
184.906
189.909
186.116
186.776
191.772
188.137
189.162
210.553
234.696
202.687
242.387
251.042
218.074
215.794
216.336
212.748
200.983
213.593
205.966
198.599
188.711
212.857
199.783
189.202
189.265
191.551
191.406
197.879
213.955
193.446
189.764
228.313
195.468
191.514
217.615
218.972
222.109
216.984
210.008
223.04
227.175
230.946
237.696
243.601
237.768
212.589
210.875
228.136
224.41
216.598
200.615
245.961
251.805
206.511
198.734
244.653
232.044
249.029
257.306
273.542
275.533
250.301
242.634
267.777
269.868
234.516
226.686
265.239
248.51
231.652
232.85
235.985
228.293
235.424
276.926
281.47
301.457
304.961
308.979
257.502
305.63
232.341
182.34
179.946
182.565
180.999
182.498
179.711
178.074
180.437
183.833
179.24
165.785
166.532
108.018
174.448
73.3294
204.895
175.901
183.738
195.061
185.497
174.975
177.911
168.785
174.096
188.51
190.813
197.316
110.62
100.892
158.689
141.305
197.436
149.3
214.18
215.896
215.004
198.615
214.066
212.013
177.885
174.234
165.671
171.562
169.903
217.336
219.077
216.685
216.058
219.134
175.772
193.174
174.589
173.565
181.114
222.15
221.029
234.74
249.266
261.108
219.883
217.485
232.212
248.09
202.964
213.395
204.369
198.347
194.76
199.289
194.958
188.464
265.063
254.71
269.097
270.248
250.215
238.292
237.765
222.832
256.771
211.649
206.135
222.52
205.388
155.907
82.7728
112.744
162.022
152.408
56.3729
85.4639
67.8511
82.6782
57.8098
50.6998
50.8408
49.4632
53.0014
49.8799
124.544
109.562
156.98
134.474
156.089
102.412
117.05
114.139
137.898
53.4805
88.5191
69.703
48.0825
49.2987
47.9248
47.3164
78.6975
48.6991
136.596
191.685
180.51
106.54
125.94
116.766
167.69
166.696
63.3594
143.013
152.269
201.039
205.869
152.966
157.92
169.468
168.937
171.681
165.789
163.36
158.319
202.195
165.626
194.078
201.549
211.16
163.525
162.018
164.442
169.818
183.943
190.152
188.566
179.525
179.166
185.887
186.843
175.087
217.49
173.64
207.274
205.948
175.488
174.608
174.889
198.94
198.359
178.971
187.763
178.015
186.938
61.1979
50.9743
48.5682
55.058
47.5827
48.6204
48.2765
47.0201
47.9014
50.2856
47.7917
47.4087
49.7305
49.5561
48.5729
92.9911
64.9901
75.1151
97.0179
120.51
53.2196
48.7658
65.8114
92.8235
50.3092
43.5026
46.2857
48.9409
49.7165
45.4035
47.3732
47.2973
48.4905
92.3764
90.0661
87.3476
74.3885
71.9877
71.9174
64.8505
91.1806
45.5187
40.667
43.6075
105.358
120.738
71.4954
69.3522
78.6969
133.638
143.489
79.302
66.1093
119.819
123.2
83.8694
117.324
125.713
128.619
80.425
61.0651
90.0848
90.3625
169.048
182.478
177.997
152.289
137.59
169.05
149.256
121.568
132.702
97.6554
137.627
140.647
100.394
103.792
108.155
171.32
153.297
126.677
140.366
123.658
155.351
45.3985
42.8183
46.5005
46.2797
46.3222
44.0997
44.2965
44.2102
45.8329
47.9267
44.2392
44.0386
45.7622
47.0586
45.2696
47.1107
41.4967
40.539
42.5346
48.0844
41.2859
40.9719
38.8404
37.3648
47.5529
44.2337
45.9631
44.7101
44.8098
42.1584
43.5018
46.2318
43.0992
52.9046
58.8354
59.3077
42.5731
47.911
47.0642
39.7484
39.2484
41.7368
39.5081
39.5406
51.4668
52.6399
45.7755
44.8424
43.897
41.9424
69.2998
37.9113
39.0177
40.8474
56.5098
44.8297
43.0021
61.2648
59.4878
42.2992
40.1816
45.9086
44.053
82.5975
107.16
89.8248
42.4382
42.8326
54.1717
46.3474
44.632
69.4575
51.9101
75.2015
79.7807
53.6752
56.1402
59.6851
100.86
91.6951
67.2125
70.2015
67.1111
66.2972
41.7852
41.2744
42.2747
42.257
42.2494
40.9819
40.9774
41.0402
42.4005
43.9356
41.3064
41.1632
42.4895
43.3511
41.394
40.5466
39.7677
41.0297
39.9065
39.1349
40.5318
40.402
39.6039
39.4283
42.3314
40.7714
41.393
41.1409
40.4606
39.8031
39.7955
40.8046
39.1769
40.0837
41.4928
41.0695
39.3598
39.1406
39.4062
38.2748
38.3375
38.1013
37.4272
36.7688
41.7262
41.3538
39.1347
39.1711
38.8639
37.4212
36.9068
36.7848
36.5563
36.7727
40.6598
38.7396
38.939
41.1412
39.3308
38.3584
38.0422
39.0615
38.1035
36.9844
39.7604
38.5374
36.9478
37.0449
37.6518
37.7692
37.043
43.5325
39.6594
44.7321
46.825
37.8284
39.2819
40.4231
48.8255
50.397
41.137
40.2295
42.133
39.29
40.731
39.5356
39.9742
40.0397
40.2692
38.6456
38.8008
39.0984
40.2436
40.093
38.4675
38.7495
37.3483
39.4606
38.0154
38.8795
38.0284
39.8222
38.8273
38.9705
38.9316
39.2041
38.2332
38.4655
39.1907
39.0671
38.7124
38.0665
38.3017
38.0919
37.9931
37.9247
37.057
38.4842
38.1549
38.3462
37.7086
37.5239
37.525
35.3682
37.0224
37.0026
37.1229
35.7084
36.7993
36.2587
36.9434
36.8839
36.9693
36.8357
37.0065
36.7738
37.034
37.9241
37.6071
37.3497
37.4208
37.1327
36.6806
36.8926
36.8805
36.8405
36.4273
36.7146
36.7558
36.9647
36.8911
36.9606
36.8316
37.0226
36.8494
36.981
37.7571
37.2287
37.463
37.7731
37.3668
37.0782
37.127
37.1557
36.927
37.0871
37.1652
37.1384
36.7525
36.8507
36.8449
36.7842
36.7477
37.7408
37.0555
37.4798
38.0395
36.2439
36.5815
37.1424
38.3369
38.9354
37.3107
37.1914
37.522
37.0207
37.9632
36.8512
37.1748
37.1884
37.1646
36.4056
36.3286
36.1009
36.9218
36.4888
36.3548
36.1761
36.5526
37.3187
37.0265
37.4473
37.1003
38.1994
37.7768
37.9484
37.3177
37.0225
37.2823
36.9726
37.6735
37.071
37.5165
36.9306
37.2139
36.6937
37.1689
37.1337
35.487
37.682
37.1133
36.6825
36.8853
36.7049
36.9373
37.2435
37.1182
37.1121
36.891
36.8032
36.7931
36.0299
36.6867
36.6346
37.0883
36.5884
36.714
36.7133
36.9467
36.8391
36.9663
36.8003
36.9647
36.8337
36.9863
37.0451
36.9089
36.7396
36.7711
36.7259
36.6521
36.8005
36.869
36.786
36.6399
36.7828
36.8075
36.9902
36.9385
37.0096
36.8851
36.9995
36.9104
37.0069
36.9695
36.8431
36.9688
36.8731
36.7691
36.8144
36.8913
36.7674
36.7231
36.7563
36.7081
36.678
36.6971
36.8493
36.6788
36.7299
36.8335
36.7344
36.8392
37.0161
36.9768
37.0182
36.8424
36.7593
36.7819
36.4502
36.8136
36.745
37.3987
36.7918
36.9148
36.5938
36.6302
36.6257
36.68
36.2459
36.0608
36.3114
36.2361
36.231
36.4186
36.2241
36.365
36.434
36.7429
36.6691
36.6464
36.8307
36.9358
36.9122
36.7691
36.4454
36.3056
36.7957
36.2271
36.1733
36.0672
36.4155
36.0559
36.9626
36.6736
36.9798
36.8744
36.8869
36.7309
36.9081
38.0544
38.0638
37.8795
38.4161
36.9892
37.1046
37.3543
37.3118
36.6029
36.6125
36.5985
36.4075
36.4712
36.4514
36.9882
36.7795
36.8584
37.0341
37.3381
36.8896
37.0222
37.0818
36.9351
37.0654
37.2551
37.3251
37.1309
37.2238
36.6085
36.6107
36.4959
36.5019
36.5623
36.7496
36.8098
36.908
36.7515
36.8338
36.7655
36.8789
37.0584
37.0091
37.0599
37.0274
37.1557
37.0592
37.1178
36.7445
36.6978
36.8658
36.688
36.6898
36.7206
36.8331
36.6673
36.6563
36.8584
36.6588
36.6908
36.706
36.8254
36.6644
36.6967
36.8838
36.4911
36.8763
37.0605
37.1254
37.102
36.7102
36.8203
36.6389
37.5742
36.7197
36.6371
36.2939
36.6156
37.464
36.5619
36.5979
36.3455
36.6517
36.0186
36.007
36.4815
36.1839
36.3808
36.5098
36.1667
36.3583
36.7312
36.7887
36.8494
36.7447
36.7225
36.892
36.8559
36.2486
36.1558
35.9894
36.1956
36.0862
35.9971
35.96
36.0868
36.1143
36.8527
36.7682
36.8225
36.8131
36.8079
36.7438
36.7049
37.3741
36.6018
36.2875
36.3718
36.343
36.222
36.3194
36.2928
38.0319
36.9387
37.182
36.9273
38.1726
36.8954
37.2117
37.4331
37.3592
37.4332
37.729
37.5485
37.5835
37.5475
36.4395
36.567
36.4128
36.4205
36.5617
36.9296
36.6535
36.9739
36.647
36.9488
36.4894
36.7173
37.2654
37.1715
37.1807
37.3665
37.3232
37.2259
37.2146
36.6931
36.6906
36.798
36.6508
36.627
36.7201
36.7594
36.6769
36.6486
36.7697
36.6734
36.6976
36.6911
36.7664
36.6968
36.7309
36.4491
36.6808
36.6689
36.6309
36.5977
36.66
36.647
36.6391
36.6237
36.5965
36.648
36.657
36.6426
36.6845
36.0356
36.1004
36.5141
36.1927
36.3439
36.5014
36.2474
36.3349
36.7255
36.6721
36.8347
36.6787
36.6281
36.7883
36.7008
36.125
36.1273
35.9347
36.0344
36.1006
35.975
35.9406
36.0333
36.0742
36.7393
36.6685
36.6841
36.6122
36.6696
36.5877
36.7026
36.4437
36.709
36.1987
36.3059
36.2757
36.2027
36.3041
36.2763
36.7929
37.3878
36.7739
36.6073
35.9272
36.4416
36.5818
36.4463
36.4496
36.5634
37.0937
36.3456
36.6129
36.004
36.4817
36.6579
36.6132
36.6836
36.6713
36.6839
36.6313
36.6597
36.6696
36.7011
36.7751
36.7169
36.7498
36.6886
36.7663
36.7304
36.7621
36.6284
36.6846
36.7011
36.6686
36.6696
36.696
36.6921
36.6948
36.6936
36.6824
36.7152
36.7206
36.7108
36.7249
36.2057
36.3415
36.5018
36.325
36.3522
36.5316
36.4289
36.4075
36.6279
36.5978
36.745
36.5956
36.5754
36.6391
36.6053
36.1581
36.2286
36.0127
36.0595
36.0935
36.1364
36.1403
36.1287
36.1688
36.6269
36.5374
36.7471
36.5163
36.6162
36.5124
36.7851
36.8942
36.9459
36.2271
36.3206
36.3036
36.2743
36.3631
36.3487
36.6547
36.4928
36.9243
36.7422
36.7811
36.4247
36.5221
36.4222
36.4426
36.5356
36.5874
36.6073
36.7745
36.7969
36.6788
36.6001
36.6262
36.6721
36.6749
36.7103
36.6352
36.6924
36.691
36.7278
36.7516
36.7362
36.7618
36.7018
36.7532
36.7375
36.7541
36.7216
36.713
36.7301
36.7175
36.72
36.746
36.744
36.7449
36.7351
36.7308
36.7514
36.7495
36.7471
36.7408
36.4789
36.606
36.5859
36.5453
36.4877
36.6493
36.6446
36.5692
36.5799
36.5581
36.6996
36.5649
36.5474
36.5832
36.5728
36.3308
36.4473
36.2949
36.2396
36.2706
36.4373
36.455
36.3845
36.3958
36.6208
36.5202
36.7731
36.5077
36.6318
36.5455
36.731
36.8701
36.7459
36.3657
36.4316
36.4144
36.4869
36.506
36.4934
36.7652
36.8002
36.8495
36.7247
36.762
36.4964
36.5872
36.5711
36.5711
36.6464
36.7875
36.7062
36.7458
36.7777
36.7261
36.6573
36.69
36.7119
36.7135
36.7532
36.6884
36.739
36.7368
36.7803
36.7602
36.7449
36.7569
36.7398
36.7746
36.7585
36.7674
36.7597
36.7557
36.7799
36.77
36.7719
36.7913
36.7911
36.7926
36.7596
36.769
36.7873
36.7773
36.7881
36.7751
36.7211
36.8183
36.7114
36.7232
36.642
36.7631
36.789
36.708
36.5507
36.5521
36.6559
36.5522
36.5836
36.5911
36.6416
36.5769
36.7023
36.6059
36.5389
36.5229
36.7332
36.7334
36.6786
36.6323
36.6586
36.5798
36.6915
36.6057
36.7123
36.6242
36.705
36.6592
36.6028
36.6094
36.5966
36.5848
36.7194
36.6846
36.6781
36.6858
36.741
36.7136
36.6843
36.749
36.6485
36.7029
36.732
36.7129
36.7515
36.7885
36.7638
36.7736
36.8064
36.8084
36.7294
36.7672
36.7644
36.7621
36.7955
36.7579
36.7954
36.7873
36.8125
36.8027
36.7877
36.7958
36.8154
36.8365
36.8202
36.8267
36.8399
36.805
36.8279
36.8217
36.8228
36.8361
36.8404
36.8427
36.8007
36.8193
36.8371
36.8252
36.8427
36.8366
36.8975
36.9639
36.8126
36.8472
36.7728
36.8665
36.9024
36.838
36.5758
36.6403
36.6911
36.6191
36.7104
36.7092
36.7779
36.8114
36.9004
36.8354
36.7957
36.7255
36.9471
36.9165
36.8905
36.8071
36.7818
36.6879
36.7702
36.7744
36.8591
36.7754
36.8699
36.6467
36.766
36.8092
36.7683
36.7649
36.8826
36.8405
36.84
36.7363
36.7914
36.7607
36.813
36.861
36.7646
36.793
36.8413
36.8059
36.8301
36.8327
36.8554
36.8385
36.8822
36.9271
36.8007
36.828
36.8232
36.8127
36.8246
36.8197
36.8487
36.837
36.8421
36.8757
36.8566
36.865
36.9056
36.9151
36.8933
36.9004
36.9283
36.8564
36.8754
36.8711
36.8752
36.8946
36.8951
36.8993
36.854
36.8774
36.8953
36.8837
36.9059
36.9073
37.0208
37.0684
36.9254
36.9615
36.9075
36.9789
37.0255
36.9652
36.6814
36.7789
36.7991
36.7682
36.8341
36.8382
36.8972
36.9737
37.0337
36.9801
36.9666
36.8759
37.0746
37.0285
37.028
36.9362
36.9503
36.8623
36.9833
36.9189
37.0535
36.9399
37.0849
36.9032
37.0318
36.9449
36.9026
36.9073
36.9994
36.9564
36.9662
36.9216
36.9575
36.9694
37.036
37.058
36.8436
36.8698
36.9285
36.8844
36.9148
36.9517
36.989
36.9829
37.017
37.0292
36.8531
36.8841
36.8677
36.8663
36.8618
36.8722
36.8855
36.8959
36.8906
36.9516
36.93
36.9339
36.9882
36.9791
36.9634
36.9658
37.0005
36.908
36.9327
36.9255
36.9321
36.9526
36.9529
36.9587
36.9181
36.9448
36.961
36.9491
36.9736
36.9781
37.1036
37.1224
37.0281
37.0868
37.0156
37.0715
37.1304
37.0667
36.8638
36.8836
36.9781
36.9607
36.9368
36.957
37.0099
37.0829
37.1234
37.0621
37.0775
36.9895
37.1447
37.0823
37.1145
37.0331
37.1421
37.0128
37.1591
37.0477
37.1881
37.0732
37.2038
37.1387
37.1914
37.0477
37.0045
37.0176
37.0879
37.0459
37.0595
37.1331
37.1581
37.1578
37.2021
37.2252
36.9315
36.9654
37.0272
36.9819
37.0125
37.0696
37.0519
37.0783
37.1067
37.0776
36.9268
36.9757
36.9103
36.9373
36.9244
36.9615
36.9498
36.9749
36.9622
37.0177
36.9928
37.0013
37.0555
37.0454
37.0186
37.0331
37.0575
36.9687
36.9981
36.9803
36.9868
37.0091
37.0038
37.0094
36.9779
37.0006
37.0078
37.0017
37.0193
37.02
37.1279
37.1308
37.1051
37.1513
37.1103
37.1241
37.1583
37.1349
37.0275
36.9953
37.0769
37.0774
37.0602
37.0537
37.0942
37.156
37.181
37.0949
37.1433
37.0671
37.178
37.1093
37.168
37.0946
37.1942
37.1119
37.2163
37.115
37.1903
37.1314
37.2146
37.2075
37.2068
37.1209
37.0815
37.0927
37.1481
37.1123
37.1212
37.2214
37.2358
37.2027
37.2147
37.2089
37.0332
37.0532
37.1289
37.083
37.0878
37.1311
37.1032
37.1412
37.1415
37.1192
37.0269
37.0735
37.0021
37.0179
37.0004
37.0641
37.0496
37.0532
37.0326
37.0635
37.0409
37.0537
37.083
37.077
37.056
37.065
37.0962
37.0293
37.0538
37.0249
37.0307
37.052
37.0415
37.0468
37.0194
37.0365
37.0398
37.0334
37.0484
37.0446
37.1396
37.1548
37.1344
37.1599
37.1453
37.1461
37.1622
37.1557
37.1205
37.115
37.1421
37.1576
37.158
37.1287
37.1573
37.1993
37.2111
37.1327
37.1869
37.1186
37.2005
37.1617
37.1989
37.1389
37.1871
37.1427
37.2039
37.153
37.1907
37.1499
37.1965
37.1994
37.1901
37.1701
37.1376
37.1433
37.1878
37.1569
37.1589
37.1958
37.1741
37.1838
37.1747
37.1421
37.1299
37.1168
37.2111
37.1678
37.1381
37.1416
37.1275
37.1446
37.14
37.1293
37.1105
37.1371
37.0851
37.082
37.057
37.1293
37.1072
37.1015
37.0747
37.0867
37.0621
37.0773
37.09
37.0968
37.0691
37.0901
37.1127
37.0736
37.0876
37.0553
37.0608
37.0772
37.0666
37.0717
37.0453
37.06
37.0644
37.0577
37.069
37.0593
37.1724
37.1916
37.1628
37.1667
37.1686
37.1821
37.1768
37.1829
37.1859
37.1909
37.1963
37.206
37.2166
37.1837
37.2104
37.2191
37.2238
37.1883
37.206
37.1599
37.2155
37.2054
37.2089
37.1766
37.1982
37.1578
37.1959
37.1877
37.2058
37.1689
37.1999
37.1861
37.1925
37.2021
37.1704
37.1693
37.2124
37.1782
37.1744
37.1444
37.108
37.1723
37.1295
37.0988
37.1921
37.1501
37.2372
37.2022
37.154
37.1316
37.1312
37.1295
37.1251
37.1373
37.1513
37.1529
37.1157
37.113
37.0866
37.1423
37.1156
37.1163
37.0947
37.1065
37.0876
37.1064
37.1133
37.1154
37.1055
37.1197
37.1316
37.0968
37.1027
37.0756
37.0808
37.093
37.0862
37.0893
37.0725
37.0787
37.0827
37.0882
37.0878
37.0981
37.2089
37.2227
37.202
37.1962
37.1986
37.2209
37.2191
37.2156
37.2228
37.2362
37.2355
37.2377
37.2513
37.2355
37.2571
37.2248
37.2241
37.217
37.2097
37.1842
37.2276
37.2274
37.2095
37.1878
37.2172
37.1824
37.2069
37.2285
37.2329
37.1945
37.2179
37.2093
37.231
37.2131
37.1837
37.1799
37.2111
37.1861
37.184
37.1439
37.1228
37.2026
37.1761
37.1622
37.204
37.1556
37.232
37.2057
37.1617
37.1412
37.1557
37.1663
37.1708
37.1828
37.1468
37.1428
37.1096
37.1146
37.1006
37.1196
37.1026
37.1095
37.1061
37.1265
37.1244
37.1358
37.1451
37.1386
37.1387
37.1501
37.1711
37.1067
37.1122
37.0966
37.0989
37.1104
37.1105
37.1116
37.1014
37.094
37.1007
37.1106
37.1029
37.1275
37.2351
37.2457
37.2386
37.2371