/*--------------------------------*- C++ -*----------------------------------*\
| =========                 |                                                 |
| \\      /  F ield         | OpenFOAM: The Open Source CFD Toolbox           |
|  \\    /   O peration     | Version:  5.x                                   |
|   \\  /    A nd           | Web:      www.OpenFOAM.org                      |
|    \\/     M anipulation  |                                                 |
\*---------------------------------------------------------------------------*/
FoamFile
{
    version     2.0;
    format      ascii;
    class       surfaceScalarField;
    location    "4";
    object      phi;
}
// * * * * * * * * * * * * * * * * * * * * * * * * * * * * * * * * * * * * * //

dimensions      [0 3 -1 0 0 0 0];

internalField   nonuniform List<scalar> 
29271
(
-7.85487e-06
7.9209e-07
-2.09896e-07
7.289e-06
-1.31905e-05
1.06397e-05
-4.71641e-06
7.35177e-06
-4.77181e-05
5.92618e-07
-1.53364e-05
-5.6425e-07
-6.85486e-06
6.9881e-05
-4.83234e-05
-8.4079e-07
1.3444e-05
-1.51562e-05
3.38162e-07
5.05383e-05
-2.62365e-05
1.15525e-06
-1.83722e-06
9.9886e-07
1.85127e-05
7.40687e-06
-2.97609e-05
6.63788e-06
-1.13417e-05
2.78498e-05
-1.03973e-05
1.70124e-05
-3.41154e-05
1.35312e-05
-2.95572e-05
1.93562e-05
-1.14636e-05
4.22489e-05
-5.04392e-05
4.02348e-06
-5.20524e-06
-8.76346e-06
-1.51323e-05
7.55167e-05
-4.05205e-05
-5.07654e-06
1.34202e-05
-4.09981e-06
4.09002e-06
3.21867e-05
-2.0908e-05
-2.28603e-06
8.68306e-06
1.15246e-05
3.13424e-06
-7.90198e-06
7.39688e-06
-4.90582e-06
5.41164e-06
-4.63598e-05
-1.63882e-05
2.08282e-05
2.17976e-05
-3.22999e-05
5.24223e-05
-3.03782e-05
1.3722e-05
-2.70723e-06
1.2699e-06
-2.29956e-05
4.10891e-05
-3.31883e-05
2.76496e-05
-7.73365e-06
7.0694e-06
-2.01734e-05
2.63764e-05
-3.15911e-05
9.53356e-06
-5.01632e-06
5.98903e-06
-1.34313e-05
3.45162e-05
-4.2475e-05
1.9235e-06
1.27417e-06
-1.50605e-05
5.47966e-05
-4.5868e-07
-2.66826e-05
7.21547e-06
-4.42979e-06
-1.04106e-05
9.8947e-06
2.44128e-05
-4.62422e-05
-2.5199e-06
3.14058e-05
1.4351e-05
-2.88706e-05
3.18759e-05
-4.68145e-05
1.876e-05
-1.2011e-05
7.49819e-06
-1.19382e-05
4.45055e-05
-4.23729e-05
4.49266e-06
-1.07017e-05
4.24603e-05
9.26327e-06
-3.14168e-06
-1.3085e-05
6.66106e-06
-1.49157e-06
7.94496e-06
-2.51148e-05
2.42552e-06
-1.71288e-06
9.16069e-06
1.54194e-05
-1.99179e-05
-3.13267e-06
1.35336e-05
-6.35095e-06
8.62912e-06
7.23877e-06
-2.06105e-05
1.26672e-05
-9.46279e-06
1.7411e-05
-7.75983e-06
-2.21217e-06
-3.28001e-06
1.31989e-05
-5.99782e-06
-3.61725e-06
1.411e-06
8.27276e-06
-2.67307e-06
6.93602e-06
-9.68668e-05
-1.05815e-05
1.09661e-05
9.22193e-05
9.75604e-06
-3.48203e-05
-1.01855e-06
6.789e-06
-4.91611e-06
2.42099e-05
-2.28259e-05
4.86308e-06
-4.05412e-07
-6.58056e-06
2.93555e-05
-4.40663e-06
2.20567e-06
6.41811e-07
-1.48559e-05
3.21934e-07
-5.509e-06
1.71954e-05
2.31991e-05
-4.37936e-05
0.000261351
-4.83758e-05
-8.25227e-05
-5.372e-05
-4.42337e-05
1.17113e-06
-1.68373e-06
9.64182e-06
2.79986e-06
-3.84401e-06
-1.94469e-05
2.82383e-06
-3.36589e-06
3.67131e-05
-5.62518e-05
0.000337877
-0.000100065
-8.4424e-05
-7.1309e-05
-7.42476e-05
5.60089e-06
6.95175e-06
7.53826e-06
1.48153e-05
-1.36825e-06
-7.77414e-05
0.000276329
8.37825e-06
7.91493e-06
2.12088e-05
2.46455e-05
-1.23912e-05
2.15047e-06
-3.38863e-06
-3.38518e-05
-1.72713e-05
-7.33929e-05
-8.45082e-05
-9.3212e-06
5.80914e-06
-1.54572e-05
1.7544e-05
-2.71072e-06
8.22951e-07
-3.03233e-08
2.0211e-06
-4.15254e-06
-4.0169e-05
4.89666e-06
1.71641e-05
-4.6471e-06
2.69079e-05
1.26655e-05
-1.8657e-05
0.000130232
-4.93055e-05
-1.3882e-05
-2.53575e-05
-5.10056e-05
-1.54055e-05
-4.743e-06
-6.93593e-06
-1.39916e-06
4.05799e-05
-3.92171e-05
8.99818e-05
-1.84213e-05
-2.66073e-05
-4.45992e-05
-4.53032e-05
1.87015e-06
-1.90934e-05
0.000201143
3.04818e-06
3.32343e-06
4.4358e-06
-2.06874e-05
-1.70031e-05
-1.84631e-05
-4.00157e-05
-7.19262e-05
-3.43515e-05
-2.94421e-05
-5.69197e-05
1.02018e-05
1.15197e-06
-6.04803e-06
5.34841e-05
-6.70988e-06
-4.23925e-07
6.13362e-07
-6.97189e-07
6.51752e-06
7.00112e-07
8.94224e-06
-9.43992e-07
4.77375e-05
-3.80876e-07
-1.70128e-07
2.01394e-07
6.73939e-08
-8.08827e-07
-7.41055e-07
-6.98154e-07
-1.8443e-05
-3.1954e-05
-1.12269e-05
-1.02387e-05
4.64646e-06
-1.84669e-06
0.000106982
4.89214e-06
7.07933e-06
4.82417e-06
-2.72144e-06
-1.01016e-06
-1.2343e-06
-4.61886e-05
-4.95296e-05
-1.99491e-05
-3.62187e-05
-3.81451e-05
5.36693e-06
-7.0922e-06
2.54234e-05
-9.85273e-06
9.13441e-06
-7.5477e-06
8.18081e-06
-5.32509e-06
-1.8012e-07
7.98248e-07
3.86106e-06
-4.17927e-06
-1.07707e-06
-3.26601e-07
-1.0524e-06
4.78865e-06
-1.13619e-05
5.52092e-06
-1.3899e-06
7.29479e-06
-2.24545e-05
-3.13484e-06
-1.04307e-06
2.66172e-05
-1.61397e-05
-2.42857e-06
-1.04887e-05
2.87222e-05
2.88953e-05
6.50443e-06
-7.43424e-05
5.02887e-06
-2.02966e-05
5.42105e-05
6.97782e-06
-2.34228e-05
-3.979e-06
1.93425e-06
-8.18192e-06
2.66717e-05
-4.40219e-05
-3.49642e-06
-4.17903e-06
-7.5427e-06
5.6647e-05
2.59302e-06
1.25204e-06
2.45828e-06
-2.28524e-05
-1.00541e-05
-3.2496e-06
3.24458e-05
1.22661e-05
-1.89429e-05
0.000191702
1.19837e-05
6.51232e-06
1.15503e-05
1.57093e-05
8.19229e-06
3.47218e-06
9.14624e-06
9.75894e-06
7.86841e-05
-2.67916e-05
0.000180553
9.83647e-06
3.08121e-05
1.89459e-05
5.81038e-05
6.25247e-06
-9.85613e-05
0.00031535
3.05956e-05
2.4098e-05
3.17248e-05
2.33973e-05
4.00502e-06
1.11325e-05
7.0186e-06
-2.78486e-05
1.27734e-05
-2.14916e-05
4.28144e-05
-1.64365e-06
1.12285e-06
-5.67621e-07
1.19729e-06
2.93161e-06
-1.96592e-05
5.96511e-06
-6.43637e-06
-1.81075e-06
1.90096e-05
-1.64061e-06
7.85769e-06
9.80863e-05
2.23444e-07
5.10319e-07
4.4334e-06
1.81861e-06
5.15769e-06
-7.52795e-06
6.39198e-05
9.15144e-07
-8.62857e-06
0.000122249
5.64089e-07
3.04052e-06
1.7628e-06
-5.56632e-06
-3.25572e-06
-3.3415e-06
-4.9104e-05
1.1103e-05
4.94038e-06
-3.90114e-06
3.78769e-05
-6.54208e-06
1.49216e-07
5.75647e-07
-8.09164e-07
5.60867e-06
1.01772e-06
-1.71614e-05
-2.01473e-06
8.21525e-05
-6.54121e-07
-6.9068e-07
2.36078e-07
-3.59982e-07
-1.97905e-06
-1.87228e-06
-2.06112e-06
-5.22795e-07
1.01293e-06
8.22155e-05
-2.02809e-06
-3.68964e-07
-1.11627e-06
7.99496e-07
1.31273e-06
9.87744e-07
-2.06008e-05
1.78573e-06
-5.72075e-06
1.53845e-05
-5.72031e-06
3.16056e-06
-3.67396e-06
6.24156e-06
-3.09562e-06
5.02298e-08
-6.51152e-07
1.8204e-06
-5.55574e-06
1.40504e-06
-2.359e-06
5.70175e-07
6.95245e-06
-4.18079e-06
7.86578e-08
1.40861e-06
2.75522e-06
-2.78271e-05
-2.95672e-06
3.45407e-06
2.73324e-05
-3.65371e-05
5.08033e-06
-6.73741e-06
3.81561e-05
1.13851e-05
-1.89275e-06
-5.29871e-05
1.37039e-06
-1.39259e-05
5.60503e-05
-1.22682e-06
-3.88816e-05
1.26324e-06
-6.49326e-06
-7.78058e-06
5.3119e-05
-7.34691e-05
-7.71923e-07
-1.80778e-06
-1.64148e-05
9.06241e-05
1.83957e-06
6.628e-06
5.21395e-06
-4.05503e-05
-8.27843e-06
-1.87224e-06
3.8859e-05
5.36532e-06
-7.10001e-06
0.000145759
3.80747e-06
1.43587e-05
8.74309e-06
1.71079e-05
9.98187e-07
1.26779e-06
1.06904e-06
3.25885e-07
3.4921e-05
-6.18483e-06
8.17782e-05
1.12462e-05
3.21439e-05
1.01422e-05
2.18715e-05
7.7882e-06
-4.23625e-05
0.000301487
2.31209e-05
1.77608e-05
2.01686e-05
1.27725e-05
4.19311e-06
3.06274e-06
2.27975e-06
-5.87283e-05
7.03092e-06
-1.10724e-05
7.05569e-05
-1.19996e-06
-8.03699e-07
1.27733e-06
7.10359e-07
3.87343e-06
-2.25409e-05
1.95739e-06
-8.78652e-06
1.32114e-06
2.41755e-05
2.01502e-06
2.11002e-06
7.50286e-05
1.27424e-06
1.60306e-06
1.81247e-06
7.14288e-06
4.61018e-07
-2.42009e-06
6.17091e-05
3.06158e-06
-1.98318e-06
7.95976e-05
1.15253e-08
2.73437e-06
1.73952e-07
-1.49855e-06
-8.30389e-07
-9.19105e-07
-3.13294e-05
9.59609e-06
5.68443e-06
-8.58993e-06
2.77004e-05
-4.21961e-06
-7.85315e-07
3.08409e-06
-1.603e-06
2.04063e-06
1.48321e-06
-8.29304e-06
-2.62478e-06
0.00010635
-1.34179e-06
7.59326e-08
-8.88463e-07
6.94091e-08
-3.47515e-06
-2.25769e-06
-3.35233e-06
-1.0694e-06
-1.93683e-06
7.96071e-05
-7.96608e-07
-1.76327e-07
-2.04642e-07
-1.19029e-06
-1.59132e-06
-1.13934e-06
-1.17407e-05
5.57387e-07
-7.94764e-07
8.92553e-06
-7.66005e-06
1.23064e-06
-7.76841e-07
7.08996e-06
-6.08186e-07
1.52705e-07
-9.15432e-07
-1.11215e-06
-7.84982e-06
2.02049e-06
-1.38933e-06
3.05122e-07
4.97672e-06
-2.88295e-06
-8.77491e-08
4.50908e-07
2.53085e-06
-2.55721e-05
-9.45249e-07
3.43241e-06
2.31146e-05
-3.66336e-05
5.01731e-06
-5.69007e-07
3.2194e-05
-4.11745e-06
-3.03495e-08
-6.23721e-05
-3.80485e-06
9.89458e-07
6.93353e-05
-2.7603e-06
-6.55651e-05
2.97474e-06
-5.02194e-06
-4.97539e-06
7.5348e-05
-0.000102959
-2.47915e-06
1.98666e-06
-7.65473e-06
0.000109685
1.4208e-06
2.1936e-06
-7.23064e-06
-4.06669e-05
2.7467e-06
-5.60727e-06
4.85645e-05
-2.28098e-06
-7.23587e-07
0.000167812
2.07679e-06
8.534e-06
-9.13617e-06
1.93712e-06
-1.55128e-06
-2.10938e-06
-1.00451e-05
-8.75421e-06
-7.98474e-06
-4.67729e-07
6.92293e-05
3.90594e-06
1.09451e-05
-3.83233e-07
4.25258e-06
6.89785e-07
-2.02107e-05
0.000275096
1.16765e-05
7.02126e-06
1.18295e-05
6.81606e-06
-2.57697e-06
2.93958e-06
2.21683e-07
-7.75115e-05
1.59086e-06
-4.63698e-06
8.12481e-05
2.5795e-07
1.9772e-08
4.34135e-07
-7.1149e-07
-4.24344e-06
-2.50049e-05
1.44734e-06
1.79671e-06
-9.05117e-07
2.69094e-05
2.2174e-06
-1.9391e-05
9.29929e-05
3.70471e-07
2.18467e-06
-2.53688e-06
-1.53251e-06
-1.01135e-06
-1.57967e-05
8.02667e-05
-1.8662e-06
-3.15396e-06
9.54672e-05
-1.26022e-06
-4.62208e-06
-4.39117e-06
-2.19677e-06
-1.05697e-05
-9.03151e-06
-2.69638e-05
2.86088e-06
-1.50679e-06
-1.73498e-06
2.54785e-05
-1.47323e-06
-9.75075e-07
2.779e-06
-8.08898e-07
-1.12213e-07
5.90409e-07
2.73411e-06
-2.55063e-06
0.000105394
-3.90032e-06
-4.80708e-07
-3.93704e-06
-5.37766e-07
-3.52643e-06
-2.53983e-06
-3.69618e-06
-2.42659e-07
-3.26804e-06
8.17382e-05
1.64736e-07
-2.49459e-06
-1.27308e-06
-2.28764e-06
-3.25231e-06
-2.54007e-06
-8.38757e-06
2.45179e-07
-3.20462e-06
7.95039e-06
-6.193e-06
5.09051e-07
-3.43869e-07
6.00165e-06
2.45859e-06
5.00877e-08
-1.0703e-06
-3.94103e-06
-2.65958e-06
1.2689e-06
-6.84784e-07
-8.865e-08
-1.10392e-06
-1.25526e-06
1.99445e-06
1.15039e-07
-8.33825e-07
-2.01969e-05
5.74285e-07
1.0911e-06
1.85762e-05
-2.61033e-05
4.35072e-07
4.79526e-06
2.08797e-05
-9.86534e-06
1.69122e-06
-7.25976e-05
-5.39411e-06
1.15168e-05
7.46491e-05
-2.21133e-08
-8.16872e-05
4.02892e-06
-5.37921e-06
-6.53275e-07
8.37128e-05
-0.000112238
-1.18962e-06
6.68874e-06
-3.3351e-06
0.000111644
-1.56976e-06
-3.25091e-06
-7.16621e-06
-5.23028e-05
9.45035e-06
4.82057e-07
5.27875e-05
8.18617e-06
2.26297e-05
0.000196156
-1.08514e-05
-2.38807e-06
-1.14126e-05
-2.21889e-06
-9.76577e-06
-8.88439e-06
-8.25143e-06
-5.38756e-06
-6.30893e-06
1.65309e-05
8.34254e-05
-5.14594e-06
-5.28736e-06
-3.2325e-06
-2.56602e-06
1.15308e-07
-9.93944e-06
0.000257642
7.02796e-06
4.67492e-06
6.61388e-06
8.47977e-07
1.56091e-08
-1.16947e-07
1.90574e-06
-8.14472e-05
-4.87398e-06
9.29149e-06
-1.01137e-05
8.72588e-05
1.72084e-07
-1.27812e-08
9.67973e-09
-1.75065e-07
1.08621e-06
-2.36625e-07
6.27393e-07
-1.47838e-06
-5.29292e-06
-2.58328e-05
2.8436e-06
6.53966e-06
-1.88776e-06
2.36303e-05
1.73326e-07
-1.17858e-05
0.000142554
-5.59987e-06
-3.6125e-06
-4.12238e-06
-1.98456e-06
2.70779e-06
-6.04269e-06
0.000100306
-2.16635e-06
-3.80177e-06
9.25191e-05
2.60983e-07
2.15958e-06
2.44734e-06
-3.16286e-06
8.38092e-08
-1.04373e-07
-2.20987e-05
4.70401e-07
-9.16974e-07
8.71495e-07
1.95074e-05
1.38851e-09
2.18148e-07
-1.66029e-08
-2.85986e-08
-1.7937e-07
2.46018e-06
-2.40375e-07
1.10198e-06
-2.12241e-07
-3.4814e-06
3.71855e-07
-9.34339e-07
-1.04668e-06
9.58515e-05
-1.09611e-06
4.46215e-07
3.05768e-06
6.78749e-07
-1.29311e-06
-9.55496e-07
-1.09996e-06
1.26948e-06
-4.46108e-07
6.73813e-05
6.33057e-07
5.37405e-06
1.62198e-06
-3.7344e-07
-3.3649e-07
-3.62633e-07
-3.98204e-06
-6.57852e-07
-3.62608e-06
5.73368e-06
-4.65677e-06
2.55041e-06
5.09587e-07
1.59796e-06
5.35856e-06
1.46884e-08
-8.40596e-07
-5.5861e-06
4.96049e-06
6.64262e-07
-1.3226e-07
1.15864e-07
-6.05447e-06
2.30157e-06
2.94039e-07
-4.56754e-08
-2.58604e-06
-2.01164e-05
1.09569e-06
-3.75762e-06
2.27722e-05
-1.54807e-05
-2.38055e-06
6.46982e-06
1.13927e-05
-3.88423e-06
2.85868e-06
-7.27546e-05
-4.28566e-06
9.04243e-06
6.90233e-05
3.73147e-06
-8.01415e-05
1.94766e-06
2.84926e-07
-1.01757e-06
7.5195e-05
-0.000110985
-1.27507e-07
7.18542e-06
-4.19777e-06
0.000109584
-1.459e-06
-6.36396e-06
-2.70509e-06
-5.26584e-05
6.18751e-06
2.08755e-06
5.34524e-05
1.13048e-05
2.04708e-05
0.000214012
-1.02224e-05
-2.98097e-06
-7.8878e-06
-8.80297e-07
-7.6932e-06
-7.88428e-06
-6.67515e-06
-5.4081e-06
-9.10429e-06
5.92037e-06
9.43661e-05
-1.34096e-06
9.51152e-07
6.88692e-07
3.24912e-06
-4.02009e-07
-3.85942e-06
0.000236911
4.13849e-06
1.14237e-07
6.01115e-06
-1.07015e-06
2.15642e-06
1.69735e-06
2.84014e-06
-9.92885e-05
1.41905e-05
1.36574e-05
-5.02285e-08
7.10888e-05
-1.17644e-06
-8.15581e-07
1.3177e-06
-5.30551e-06
2.74437e-06
3.23546e-06
1.59097e-06
-1.53946e-07
1.33998e-07
-1.56755e-06
-3.14982e-06
-2.29318e-05
-6.24999e-07
4.73175e-06
-8.86629e-07
2.28615e-05
2.30167e-06
5.58731e-06
0.000158203
-4.25261e-06
-3.39553e-07
-1.88782e-06
3.41322e-06
5.47758e-06
-6.68901e-07
0.000103719
2.3963e-06
-6.74167e-07
8.89693e-05
1.03158e-06
2.68194e-06
1.97323e-07
-5.20894e-07
2.74972e-07
-2.19024e-07
-1.98483e-05
1.44719e-06
2.02939e-06
-9.01109e-07
1.96691e-05
-3.83335e-07
-3.81206e-06
2.23986e-06
-3.3654e-06
3.40376e-06
1.91718e-06
2.20037e-06
2.65314e-07
-2.72449e-06
-1.20743e-07
-9.49987e-07
1.32953e-06
-2.40474e-06
3.31512e-07
8.99621e-05
3.95311e-06
1.43719e-06
5.36986e-06
1.90884e-06
3.82334e-07
3.99963e-07
9.86565e-08
2.93442e-06
-1.95084e-07
5.89931e-05
6.3582e-07
2.30984e-06
4.97703e-07
-2.28374e-07
-2.641e-07
-3.75628e-07
-9.49693e-06
2.05497e-06
-8.94241e-07
1.05965e-05
1.2465e-07
-4.89745e-07
2.81718e-07
-1.78375e-06
1.86727e-06
-1.24971e-06
2.20766e-06
-1.13565e-06
1.77705e-07
6.15397e-06
7.65813e-08
-1.41939e-07
-5.7711e-06
6.7784e-06
3.89258e-08
1.45358e-07
-2.85924e-08
-7.12918e-06
2.80457e-06
6.7602e-07
-1.5864e-07
-3.28881e-06
-2.42871e-05
2.93733e-06
-4.05395e-06
2.54037e-05
-7.17343e-06
1.93579e-06
1.85616e-06
3.35087e-06
-4.13178e-06
2.69383e-08
-6.75608e-05
-2.60613e-06
6.09898e-06
6.81728e-05
3.76128e-06
-7.34144e-05
2.08476e-06
-1.14497e-06
-3.7518e-06
7.24652e-05
-0.000108217
-1.89564e-07
5.67178e-06
-3.57445e-06
0.000106496
-1.86616e-07
-6.11929e-06
-1.16408e-06
-5.47091e-05
4.52603e-06
3.05341e-06
5.4413e-05
1.0136e-05
1.73399e-05
0.000227298
-6.38156e-06
-1.66961e-06
-6.30574e-06
-3.507e-07
-6.35914e-06
-7.35469e-06
-6.31019e-06
-6.02978e-06
-1.4635e-05
-5.24627e-07
0.000113216
4.02588e-07
2.34468e-06
1.16748e-06
2.53063e-06
1.80963e-06
-3.98852e-06
0.000218288
3.11328e-06
-2.70211e-06
4.57543e-06
-3.28621e-06
1.96637e-06
7.14744e-07
1.78585e-06
-6.63894e-05
-4.34266e-06
6.50917e-06
3.06788e-06
6.29646e-05
-3.86995e-06
-1.25597e-06
-6.26214e-06
1.55087e-06
3.57906e-06
6.25813e-06
1.45309e-06
6.83442e-08
-2.39363e-07
-1.28245e-06
-1.36062e-06
-2.34792e-05
-6.20164e-07
2.76273e-06
-1.469e-06
2.41663e-05
-5.30173e-07
6.47862e-06
0.000167664
-3.28795e-06
3.14306e-06
-1.93608e-06
4.01128e-06
2.65411e-06
-5.80319e-06
0.000105813
2.641e-06
-4.23484e-07
8.46698e-05
-2.83446e-07
2.33785e-06
-2.60523e-06
-1.59898e-07
8.48583e-07
6.09682e-07
-1.9846e-05
7.15439e-07
2.03449e-06
-1.15333e-06
2.08904e-05
-2.36702e-06
-5.53712e-06
1.26676e-06
-1.63024e-06
5.7746e-06
2.49302e-06
-7.81198e-07
1.03793e-06
-4.39994e-06
-2.67982e-07
2.50402e-06
1.90717e-06
-3.45918e-06
3.98364e-07
8.67042e-05
4.38678e-06
1.61754e-06
4.61228e-06
1.85991e-06
-1.58737e-07
3.92809e-07
8.67355e-08
1.58605e-06
-1.11384e-06
5.30339e-05
-1.28685e-06
-2.92565e-08
-1.64815e-06
-2.67196e-07
-3.3995e-07
-2.03997e-07
-1.21956e-05
2.55521e-07
4.4227e-07
1.26603e-05
-4.00443e-06
-1.04077e-06
5.42476e-06
-6.40171e-06
6.02256e-06
5.25287e-07
-3.51412e-06
4.90469e-06
-1.86598e-07
-1.72925e-06
5.4493e-06
-4.66539e-08
2.2927e-07
-5.24577e-06
7.44515e-06
-4.45935e-07
4.97647e-07
-7.05698e-07
-7.905e-06
3.47607e-06
5.2364e-08
-1.94071e-07
-3.33456e-06
-2.6225e-05
4.23149e-06
-5.05379e-06
2.70473e-05
-1.26437e-06
1.28593e-06
-1.00347e-06
9.81022e-07
-3.30144e-06
8.69443e-07
-6.88985e-05
-3.31612e-06
5.16633e-06
6.94802e-05
5.7157e-06
-7.07269e-05
2.69886e-06
-1.08222e-06
-4.09406e-06
6.74886e-05
-0.000104878
-1.96462e-07
5.03006e-06
-3.48801e-06
0.000103233
2.98537e-07
-2.90461e-06
-1.31654e-06
-5.27474e-05
4.06783e-06
2.3965e-06
5.05042e-05
4.26019e-06
1.3871e-05
0.000242798
-5.88143e-06
-1.27659e-06
-5.1778e-06
1.79957e-07
-5.141e-06
-6.69611e-06
-4.69082e-06
-4.94794e-06
-1.69185e-05
-3.85031e-06
0.000130535
6.83903e-07
2.10172e-06
1.68293e-06
3.24204e-06
2.17549e-08
-1.73897e-06
0.000211025
2.4118e-06
-2.67953e-06
3.77621e-06
-5.28356e-06
4.60777e-07
-4.87751e-06
-1.74681e-06
-8.0168e-05
2.05947e-06
8.16273e-06
3.5327e-06
6.64349e-05
-1.18605e-05
-9.0026e-06
5.83275e-06
8.49911e-06
6.53129e-06
1.16788e-06
6.65434e-07
-8.35905e-07
-9.98573e-07
8.00454e-07
-2.51e-05
2.15987e-07
9.74462e-07
-2.74765e-06
2.58567e-05
-4.0587e-06
5.08072e-06
0.000178065
-3.06396e-06
2.76074e-06
-9.57486e-07
3.70907e-06
-3.62354e-06
-4.63255e-06
0.000106161
1.32502e-06
1.27872e-06
8.55981e-05
-3.67013e-06
-1.26569e-06
-8.29338e-06
9.08322e-07
2.33673e-06
1.08964e-06
-2.23886e-05
-6.32352e-08
1.42573e-07
9.62966e-07
2.26713e-05
-1.5676e-06
-1.19182e-05
1.11482e-06
2.3051e-07
9.86088e-06
2.27954e-06
-3.91875e-06
1.9981e-06
-4.77291e-06
-1.19985e-07
4.89311e-06
1.92043e-06
-4.01737e-06
3.77733e-07
8.27248e-05
3.87664e-06
1.68986e-06
3.98915e-06
1.93679e-06
3.51876e-07
4.90227e-07
3.65186e-07
-1.30567e-06
7.32341e-07
4.45982e-05
-5.17587e-07
-1.00435e-06
-5.81681e-07
7.7853e-07
8.43009e-07
8.4112e-07
-1.43155e-05
-2.53259e-06
2.08157e-06
1.47395e-05
-7.24908e-06
-6.05629e-06
5.04328e-06
8.26211e-06
5.07516e-06
-2.37046e-07
5.36319e-07
-4.99649e-06
8.03895e-06
-4.15303e-07
1.10892e-08
2.34349e-08
-6.92583e-06
2.92536e-06
-6.83525e-07
1.07585e-08
-2.25219e-06
-2.78052e-05
5.0101e-06
-5.64683e-06
2.84419e-05
-1.437e-06
1.30098e-07
-1.29741e-06
2.60597e-06
-2.60346e-06
2.76742e-06
-7.03154e-05
-4.73282e-06
3.58987e-06
7.12944e-05
7.13488e-06
-6.36826e-05
2.86744e-06
-7.92354e-07
-5.02298e-06
5.94957e-05
-0.000101843
-7.81502e-09
4.59476e-06
-3.91211e-06
0.000100347
8.20538e-07
-8.8571e-07
-1.455e-06
-4.84587e-05
2.63468e-06
1.25627e-06
4.69085e-05
9.11295e-08
1.08283e-05
0.000253614
-4.04257e-06
-6.25159e-07
-3.37621e-06
1.2031e-06
-3.59475e-06
-5.26017e-06
-2.74489e-06
-3.29416e-06
-1.50409e-05
-1.04248e-05
0.00014244
1.82598e-06
3.28019e-06
3.69317e-06
4.85252e-06
-6.49629e-06
2.27602e-07
0.000215641
2.13353e-06
-5.47616e-06
4.1867e-06
-4.16963e-06
-3.26043e-06
-4.36778e-06
-2.43448e-06
-5.86078e-05
-9.30833e-06
4.32469e-06
5.70952e-05
8.41289e-07
1.25276e-06
-1.69274e-06
-4.02815e-07
2.7727e-06
-2.6819e-05
8.81582e-07
-8.87091e-07
-2.90443e-06
2.69563e-05
-5.79481e-06
4.95658e-06
0.000184351
-1.65374e-06
2.59763e-06
6.33186e-07
3.80301e-06
-6.11998e-06
-4.33816e-06
0.000100399
-4.22702e-06
2.12314e-06
9.46069e-05
-8.55778e-06
-3.17804e-06
-6.35438e-06
1.2877e-06
2.73307e-06
1.27212e-06
-3.06307e-05
-2.98281e-06
-1.06217e-05
7.79354e-06
3.22146e-05
-5.00112e-06
1.58516e-06
-3.15163e-06
1.28873e-07
5.13174e-06
1.30697e-06
-3.18467e-06
7.03106e-07
7.85123e-05
3.07233e-06
1.62831e-06
3.40869e-06
1.50553e-06
6.15314e-07
7.43831e-07
6.76674e-07
-1.48453e-06
1.21426e-06
3.68235e-05
-9.52594e-07
-9.22373e-07
-1.12624e-06
1.26407e-06
1.18419e-06
1.07516e-06
-1.57525e-05
-1.79338e-06
2.26441e-06
1.59201e-05
-8.69693e-06
-2.50657e-06
4.24787e-06
6.95563e-06
4.66889e-06
-2.00075e-07
3.05311e-07
-4.07019e-06
5.76995e-06
-1.53741e-08
-5.42297e-07
3.42797e-07
-4.34082e-06
1.30353e-06
-1.36623e-06
5.91568e-07
-5.29148e-07
-2.89616e-05
5.10722e-06
-5.54909e-06
2.94035e-05
-4.40286e-06
-2.85164e-06
6.01112e-08
7.1962e-06
-2.4723e-06
5.24028e-06
-7.20501e-05
-5.78592e-06
2.50085e-06
7.25672e-05
7.34912e-06
-5.59707e-05
3.05468e-06
-1.38215e-06
-6.11597e-06
5.3065e-05
-9.90851e-05
-6.64869e-07
3.70897e-06
-3.48688e-06
9.79153e-05
1.61252e-06
-5.95353e-08
-8.92531e-07
-4.59402e-05
1.038e-06
1.45953e-07
4.57084e-05
-1.32953e-06
6.70395e-06
0.000258139
-2.45362e-06
2.90103e-07
-1.75655e-06
2.07558e-06
-1.63165e-06
-3.89435e-06
-6.93656e-07
-1.835e-06
-8.94047e-06
-1.45946e-05
0.000146998
3.52028e-06
4.15208e-06
4.83018e-06
5.14425e-06
-2.66369e-06
1.26754e-06
0.000209233
2.53078e-06
-4.01321e-06
3.95658e-06
-3.41356e-06
7.4461e-07
-2.50013e-06
1.55912e-06
-5.32369e-05
-3.51371e-06
3.83024e-06
5.02567e-05
1.32343e-07
8.47133e-07
-1.14476e-06
1.57939e-07
1.81627e-06
-2.76382e-05
1.08098e-06
-1.67399e-06
-2.67935e-06
2.90943e-05
-7.03667e-06
3.96566e-06
0.000184004
1.8105e-07
3.19631e-06
2.35054e-06
4.39384e-06
-6.14971e-06
-5.46253e-06
9.038e-05
-1.47635e-06
2.12553e-06
9.55399e-05
-5.37149e-06
-1.09559e-06
-4.47079e-06
1.06758e-06
2.51184e-06
8.94125e-07
-3.13366e-05
-2.35029e-06
-4.23066e-06
5.38852e-06
3.10527e-05
-6.05871e-06
2.07911e-06
-3.40534e-06
-1.90065e-06
7.16616e-06
2.11944e-06
-2.2162e-06
9.25009e-07
7.19673e-05
2.86374e-06
1.45768e-06
3.33339e-06
1.55466e-06
9.06293e-07
8.44939e-07
8.41095e-07
-1.50812e-06
7.31313e-07
3.20257e-05
-1.33844e-06
-1.17794e-06
-1.50305e-06
6.41131e-07
6.29489e-07
6.44648e-07
-1.64675e-05
-6.20473e-07
2.08244e-06
1.56229e-05
-6.57938e-06
-6.81828e-07
7.14356e-07
6.54685e-06
3.45178e-06
1.30379e-07
8.69144e-08
-2.74357e-06
2.99369e-06
1.17596e-07
-7.43941e-07
4.01094e-07
-2.03713e-06
1.69767e-08
-1.38217e-06
8.83286e-07
4.8185e-07
-2.98134e-05
4.58799e-06
-4.93143e-06
3.01568e-05
-1.04717e-05
-5.92697e-06
2.87917e-06
1.35195e-05
-2.48264e-06
6.71608e-06
-7.27527e-05
-5.95013e-06
1.69644e-06
7.2773e-05
6.71866e-06
-5.11695e-05
2.95863e-06
-2.16044e-06
-6.20909e-06
4.98618e-05
-9.68583e-05
-1.19102e-06
2.48096e-06
-2.57678e-06
9.59207e-05
2.2244e-06
-5.52688e-08
4.8192e-07
-4.56805e-05
-3.02525e-07
-1.15299e-07
4.56717e-05
-3.60575e-07
2.72398e-06
0.000258076
-1.28864e-06
1.27722e-06
-7.90608e-07
2.89852e-06
-3.73483e-07
-2.87457e-06
-1.90855e-07
-9.58904e-07
-4.31403e-06
-1.44078e-05
0.000148139
3.99229e-06
3.95067e-06
4.72936e-06
4.54859e-06
-1.6984e-06
3.85351e-06
0.000201565
1.97217e-06
-3.33362e-06
3.09568e-06
-2.93177e-06
1.82391e-06
-1.29728e-06
1.86907e-06
-4.77329e-05
-1.59369e-06
1.66773e-06
4.59604e-05
-4.24545e-07
1.27077e-06
-1.74159e-06
8.94651e-07
2.16487e-06
-3.14212e-05
1.19338e-06
-2.89525e-06
-2.8777e-06
3.38359e-05
-8.10505e-06
1.55903e-06
0.000180197
1.63261e-06
3.43109e-06
3.38588e-06
4.62802e-06
-8.09355e-06
-4.90705e-06
8.08678e-05
-1.34954e-06
2.2778e-06
9.33944e-05
-3.81125e-06
-9.79942e-07
-3.51274e-06
1.18555e-06
2.75616e-06
1.33941e-06
-3.11235e-05
-1.77161e-06
-3.38071e-06
4.43839e-06
3.04879e-05
-7.62037e-06
2.17951e-06
-3.31947e-06
-1.51539e-06
7.60313e-06
2.6726e-06
-1.61143e-06
8.64383e-07
6.34153e-05
2.74337e-06
1.54791e-06
2.96006e-06
1.34723e-06
8.90438e-07
5.10943e-07
8.58163e-07
-1.9896e-06
7.70209e-07
2.98598e-05
-1.56938e-06
-1.90113e-06
-1.70754e-06
8.13642e-07
5.3742e-07
6.93818e-07
-1.54417e-05
-9.31278e-07
2.38173e-06
1.42795e-05
-6.54558e-06
-6.17474e-07
6.79603e-07
6.48345e-06
2.11224e-06
2.75584e-07
9.63206e-08
-1.61949e-06
7.38487e-07
2.42471e-07
-1.49418e-06
7.05874e-07
5.77555e-07
-9.47982e-07
-2.11711e-06
1.55568e-06
1.50942e-06
-3.03549e-05
3.77057e-06
-3.80402e-06
3.03884e-05
-1.63279e-05
-7.32234e-06
4.81991e-06
1.88303e-05
-2.83798e-06
7.11401e-06
-7.27229e-05
-5.76333e-06
1.42939e-06
7.27808e-05
5.53674e-06
-4.92118e-05
2.75312e-06
-2.76346e-06
-5.08756e-06
4.87729e-05
-9.49655e-05
-1.94953e-06
1.77432e-06
-9.62883e-07
9.3589e-05
2.51463e-06
-1.1827e-06
9.98018e-07
-4.5781e-05
-6.5006e-07
5.66942e-07
4.60488e-05
-1.32723e-07
5.32544e-07
0.000256164
-5.70347e-07
1.87635e-06
-3.23645e-07
3.24233e-06
-2.09256e-07
-2.18639e-06
-4.80243e-08
-2.68343e-07
-2.2691e-06
-1.09422e-05
0.000147358
3.34725e-06
2.99052e-06
3.96945e-06
3.55233e-06
-1.61098e-07
7.71276e-06
0.000192607
5.89782e-07
-3.40736e-06
1.04957e-06
-3.34595e-06
2.01946e-06
2.98423e-07
1.93321e-06
-4.44532e-05
-6.10737e-07
1.17371e-06
4.37291e-05
-1.56868e-06
1.73309e-06
-2.48292e-06
2.31851e-06
2.718e-06
-3.60155e-05
1.00034e-06
-3.31159e-06
-2.57423e-06
3.8183e-05
-9.16484e-06
6.99553e-07
0.000175276
2.21816e-06
3.32842e-06
3.88514e-06
4.4871e-06
-1.05291e-05
-1.93854e-06
7.32284e-05
-1.13754e-06
2.83331e-06
8.82315e-05
-3.1599e-06
-1.59754e-06
-2.91936e-06
2.35856e-06
3.40615e-06
2.56288e-06
-2.92026e-05
-2.05315e-06
-3.29435e-06
6.02045e-06
2.73921e-05
-7.34584e-06
1.9231e-06
-2.87502e-06
-8.73301e-07
6.88503e-06
2.28604e-06
3.31387e-07
7.42317e-07
5.48466e-05
1.97246e-06
8.87847e-07
2.00453e-06
7.96181e-07
1.0909e-06
5.32145e-07
9.10466e-07
-2.76182e-06
1.05819e-06
3.37383e-05
-1.86914e-06
-2.62649e-06
-2.08538e-06
1.04366e-06
8.707e-07
8.84624e-07
-1.42202e-05
-2.62914e-06
2.97776e-06
1.39431e-05
-6.50754e-06
-3.07051e-06
2.96767e-06
6.61038e-06
1.13048e-06
9.08508e-07
-1.07224e-06
-2.24207e-07
-1.81377e-06
1.10707e-06
-2.52143e-06
1.163e-06
3.12333e-06
-1.9868e-06
-2.7843e-06
2.33945e-06
2.43165e-06
-3.03266e-05
2.63029e-06
-2.50791e-06
3.02042e-05
-2.08916e-05
-7.12844e-06
5.5459e-06
2.24741e-05
-3.01527e-06
6.84431e-06
-7.28871e-05
-5.48571e-06
1.59064e-06
7.29531e-05
3.9662e-06
-4.87634e-05
3.17162e-06
-3.67208e-06
-3.61566e-06
4.89133e-05
-9.13795e-05
-2.43568e-06
1.69334e-06
1.59036e-06
8.78919e-05
2.63967e-06
-2.56703e-06
1.19791e-06
-4.64088e-05
-1.0161e-06
1.98612e-06
4.68079e-05
-9.8381e-07
-2.9398e-07
0.000254294
-4.21416e-07
1.8636e-06
-3.14089e-07
3.12351e-06
4.54781e-08
-1.64209e-06
3.19943e-07
1.73146e-07
-2.16322e-06
-7.20181e-06
0.000144645
2.64593e-06
2.08256e-06
3.40826e-06
2.95755e-06
1.14094e-06
1.03839e-05
0.000185007
-1.77457e-06
-4.04899e-06
-1.16519e-06
-3.9879e-06
1.81664e-06
1.39399e-06
1.67876e-06
-4.33914e-05
-2.68503e-06
3.27595e-06
4.39414e-05
-3.09167e-06
1.51592e-06
-2.3196e-06
3.89535e-06
3.02768e-06
-4.06142e-05
7.72288e-08
-3.39541e-06
-2.05003e-06
4.29548e-05
-1.14481e-05
2.01197e-06
0.000170572
2.47746e-06
3.13659e-06
4.01597e-06
4.21563e-06
-1.61215e-05
2.49352e-06
6.82065e-05
-2.34642e-06
3.147e-06
8.18726e-05
-3.41995e-06
-2.34074e-06
-3.92522e-06
2.90747e-06
3.63943e-06
2.95972e-06
-2.55485e-05
-2.83067e-06
-3.70797e-06
6.08707e-06
2.36537e-05
-6.26444e-06
1.8774e-06
-2.3414e-06
-7.65877e-07
5.7514e-06
1.74292e-06
-3.21694e-07
1.0057e-06
5.02763e-05
1.11585e-06
7.45665e-07
4.20788e-07
7.47933e-07
1.21138e-06
6.1692e-07
1.03976e-06
-3.71988e-06
1.53661e-06
4.1894e-05
-2.32845e-06
-3.47826e-06
-2.50918e-06
1.5073e-06
1.52864e-06
1.4793e-06
-1.45914e-05
-3.65803e-06
3.49862e-06
1.4178e-05
-6.67337e-06
-3.82021e-06
4.02036e-06
6.47322e-06
-5.74198e-07
1.7195e-06
-1.83335e-06
1.69375e-06
-3.98856e-06
1.53966e-06
-2.77766e-06
1.37162e-06
5.39156e-06
-2.94389e-06
-2.92575e-06
2.34593e-06
3.52371e-06
-2.99418e-05
1.5252e-06
-9.18338e-07
2.93349e-05
-2.36146e-05
-6.20699e-06
5.44876e-06
2.43728e-05
-3.17081e-06
6.29567e-06
-7.29961e-05
-5.20798e-06
2.13873e-06
7.29405e-05
2.049e-06
-4.94543e-05
3.56066e-06
-3.98632e-06
-2.37724e-06
5.02082e-05
-8.35532e-05
-2.47817e-06
1.47479e-06
3.10597e-06
7.90224e-05
2.42817e-06
-3.60164e-06
1.3437e-06
-4.73488e-05
-1.51982e-06
2.90622e-06
4.82203e-05
-2.39084e-06
-9.72854e-07
0.000253521
-5.55273e-07
1.66733e-06
-6.64254e-07
3.00762e-06
6.0528e-07
-1.29198e-06
8.99632e-07
4.68302e-07
-6.22958e-06
-5.49871e-06
0.000144073
2.21591e-06
1.76701e-06
3.04723e-06
2.87912e-06
1.26068e-06
1.12355e-05
0.00017829
-3.2851e-06
-4.82076e-06
-1.96468e-06
-4.88207e-06
7.55549e-07
1.36298e-06
8.24985e-07
-4.48257e-05
-5.13068e-06
5.68333e-06
4.55338e-05
-4.66993e-06
1.27394e-06
-2.01998e-06
5.41597e-06
3.40224e-06
-4.52576e-05
-1.01768e-06
-3.42058e-06
-8.66745e-07
4.71604e-05
-1.26227e-05
2.657e-06
0.000167076
2.3414e-06
2.63583e-06
3.89998e-06
3.61192e-06
-2.08788e-05
5.18858e-06
6.57753e-05
-2.88369e-06
2.92026e-06
7.38938e-05
-3.93882e-06
-2.87589e-06
-2.81067e-06
2.50034e-06
3.34234e-06
2.08157e-06
-2.2556e-05
-3.70033e-06
-2.59431e-06
3.52317e-06
2.24438e-05
-5.07675e-06
1.4846e-06
-8.61242e-07
-9.89151e-07
4.63658e-06
8.05963e-07
-3.41507e-06
1.06577e-06
5.0313e-05
-2.5233e-07
1.10356e-06
-2.26207e-07
1.03545e-06
1.28612e-06
8.22571e-07
1.20041e-06
-4.4443e-06
2.10771e-06
4.97778e-05
-3.01475e-06
-4.05986e-06
-2.97952e-06
2.07188e-06
2.12663e-06
2.08196e-06
-1.46261e-05
-4.0282e-06
3.55616e-06
1.35741e-05
-5.46208e-06
-1.67559e-06
3.63143e-06
3.50623e-06
-2.50192e-06
2.20529e-06
-2.31729e-06
3.6797e-06
-6.67962e-06
1.99332e-06
-3.37447e-06
1.76106e-06
8.40743e-06
-4.176e-06
-3.38725e-06
2.68339e-06
4.87987e-06
-2.82696e-05
8.18125e-07
5.46536e-07
2.69049e-05
-2.48088e-05
-4.85849e-06
4.69205e-06
2.49752e-05
-3.30112e-06
5.41393e-06
-7.28562e-05
-4.90338e-06
2.92616e-06
7.27206e-05
4.81438e-07
-5.14136e-05
3.21732e-06
-3.46131e-06
-1.73779e-06
5.29139e-05
-7.5306e-05
-2.38901e-06
4.08818e-07
3.0943e-06
7.23383e-05
1.85356e-06
-3.92942e-06
1.24233e-06
-4.93803e-05
-1.95157e-06
3.23517e-06
5.07838e-05
-3.88769e-06
-5.56359e-07
0.000254045
-1.12024e-06
1.34349e-06
-1.16331e-06
2.25474e-06
1.23889e-06
-9.87972e-07
1.59537e-06
7.59046e-07
-1.11914e-05
-4.66479e-06
0.000146378
1.91135e-06
1.89669e-06
2.80032e-06
3.05501e-06
7.1989e-07
9.74288e-06
0.000171868
-3.26545e-06
-5.25589e-06
-1.59745e-06
-4.70409e-06
-3.38645e-07
8.59233e-07
-9.29711e-07
-4.6419e-05
-5.74863e-06
6.31434e-06
4.65732e-05
-6.13524e-06
1.21536e-06
-1.92855e-06
6.84843e-06
3.83171e-06
-4.88139e-05
-1.61037e-06
-3.48008e-06
3.17272e-07
4.97553e-05
-1.13977e-05
3.24272e-06
0.000164618
2.01988e-06
1.88007e-06
3.47581e-06
2.68074e-06
-2.00467e-05
4.54698e-06
6.52125e-05
-2.92509e-06
2.11147e-06
6.71027e-05
-1.69414e-06
-2.79097e-06
-1.10373e-06
9.07961e-07
1.23163e-06
7.50226e-07
-2.29555e-05
-3.55492e-06
-1.86306e-06
2.12228e-06
2.33261e-05
-4.64719e-06
1.08841e-06
-5.95189e-07
-1.01913e-06
5.36772e-06
-1.94627e-07
-6.74791e-06
1.15397e-06
5.14644e-05
2.72402e-07
1.68729e-06
7.04684e-07
1.59368e-06
1.31054e-06
9.23303e-07
1.19338e-06
-4.44366e-06
1.9677e-06
5.3762e-05
-3.15178e-06
-3.15521e-06