/*--------------------------------*- C++ -*----------------------------------*\
| =========                 |                                                 |
| \\      /  F ield         | OpenFOAM: The Open Source CFD Toolbox           |
|  \\    /   O peration     | Version:  5.x                                   |
|   \\  /    A nd           | Web:      www.OpenFOAM.org                      |
|    \\/     M anipulation  |                                                 |
\*---------------------------------------------------------------------------*/
FoamFile
{
    version     2.0;
    format      ascii;
    class       volVectorField;
    location    "4";
    object      U;
}
// * * * * * * * * * * * * * * * * * * * * * * * * * * * * * * * * * * * * * //

dimensions      [0 1 -1 0 0 0 0];

internalField   nonuniform List<vector> 
10571
(
(-0.100482 0.101805 2.32223)
(0.292428 -0.321559 1.10463)
(0.49734 -0.634239 2.47304)
(-1.15195 -0.282074 2.72473)
(-0.226199 -0.117328 1.1587)
(0.936781 -0.596992 1.39534)
(1.41342 -1.19008 2.39095)
(-0.153978 -0.760652 2.67511)
(-0.48528 0.549804 1.69897)
(-0.175497 0.293134 1.27165)
(-0.0557701 -0.939169 1.53093)
(1.66592 -1.85852 2.95216)
(-0.0902054 -1.37626 2.83379)
(0.846038 -1.57794 2.52108)
(0.662497 -1.08591 2.82997)
(0.306406 -1.06944 3.23866)
(-0.4449 -0.975226 1.25426)
(0.596012 -2.34343 2.58588)
(0.794749 -1.26034 1.85787)
(0.47481 -0.553025 2.51342)
(-0.0656469 -0.398101 1.76842)
(-0.254151 -0.49017 1.04766)
(0.479762 -0.426985 0.931402)
(1.09459 -0.573111 2.52169)
(0.544259 -0.205375 1.63327)
(-0.187486 0.146003 0.692539)
(-0.92149 0.421661 5.36565)
(0.606271 -0.783755 1.68604)
(0.373001 -0.741977 1.45541)
(-0.129219 -0.441377 1.11111)
(0.117847 -0.942468 3.36335)
(1.07198 -1.98702 4.95068)
(0.285232 -1.20895 1.80879)
(-0.131085 -0.894827 0.965697)
(0.0185119 -0.215791 0.514422)
(0.639053 -0.557357 1.88737)
(0.139585 -0.669692 2.02409)
(0.483947 -0.622351 1.84875)
(0.822194 -2.56676 3.93887)
(-0.0934827 -0.789675 2.43041)
(0.0659154 -0.0748116 0.493954)
(0.0300603 -0.18552 0.718153)
(0.493321 -0.484058 2.33982)
(0.40199 -0.784553 1.45565)
(0.408268 -1.12631 1.66394)
(0.0731016 -0.13331 0.418806)
(0.0892112 -0.126033 0.364755)
(0.217602 -0.228556 1.03682)
(0.866944 -0.0915511 3.78932)
(-0.130447 -0.783536 2.22138)
(0.0093821 -1.4044 3.46145)
(0.425708 -0.794648 1.77262)
(-0.358601 0.311954 2.01654)
(-0.559773 -0.140595 1.82099)
(-0.129655 -0.776021 3.44278)
(0.772232 -1.43968 2.98222)
(1.63993 -2.48241 4.17337)
(0.13838 -2.13348 2.77755)
(-0.00924853 -0.238373 0.447862)
(-0.444847 -0.523301 1.36667)
(-0.12027 0.153754 1.84408)
(0.00778519 -0.271583 1.211)
(0.221853 -1.06821 1.97692)
(0.136847 -1.00522 2.34108)
(0.0332078 -0.137051 0.538489)
(-0.192468 -0.0891415 0.723969)
(-0.421693 -0.00686889 1.4285)
(0.0916497 -0.774405 1.40214)
(0.256385 -0.284453 0.94375)
(-0.0446488 -0.230016 0.277676)
(-0.325655 0.0597319 0.44602)
(-0.19643 0.0578308 0.526944)
(0.667923 -0.0119316 4.08451)
(0.270128 -0.621213 3.43174)
(-0.0380175 -1.29741 3.42733)
(-0.644072 -0.34801 2.09697)
(-0.279244 -0.10953 3.10435)
(-0.810113 -0.28057 2.08601)
(0.124833 -0.296802 1.33553)
(0.168056 -0.281912 1.50301)
(1.09206 -1.60102 4.18086)
(0.543469 -0.803058 3.09032)
(0.102624 0.105002 0.370964)
(-0.819957 0.0196834 1.66)
(0.0259263 -0.0519066 1.01286)
(0.00370257 -0.100299 0.777164)
(-0.016484 -0.282255 1.05447)
(0.324292 -1.04632 1.91116)
(0.155936 -0.246245 0.220509)
(-0.189798 -0.178834 1.61988)
(-0.183729 -0.147357 0.866322)
(-0.0547416 -0.20892 0.997631)
(0.0855354 -0.145841 1.25107)
(-0.0611262 -0.170896 -0.0284052)
(-0.338246 -0.199095 0.512883)
(-0.0271529 0.0155586 0.559815)
(0.334775 0.0317683 3.54107)
(0.315852 0.0228138 2.56806)
(-0.327086 0.447797 2.61654)
(-0.472859 -0.10281 3.18745)
(-0.113057 0.0295936 4.16755)
(0.363016 -0.405306 2.57153)
(0.312318 0.155438 2.61103)
(-0.376712 0.180215 1.2603)
(0.0381244 -0.653747 3.21978)
(-0.23616 -0.313584 3.98703)
(-0.0298598 -0.0151383 -0.09472)
(0.276317 -0.0591801 1.52106)
(0.00819036 -0.125283 1.26413)
(0.100132 -0.156787 1.36311)
(-0.228353 -0.212868 1.79381)
(-0.177418 -0.2357 1.1048)
(0.148358 -0.107982 0.0538665)
(0.163343 -0.779313 1.60139)
(-0.0919889 -0.626565 1.87653)
(0.0032375 -0.331839 0.828284)
(-0.00690913 -0.0150474 1.05516)
(-0.0475856 -0.0559424 -0.319949)
(-0.134084 -0.133116 0.098672)
(0.0291576 -0.0753827 0.0799559)
(0.0152791 0.0906481 2.7823)
(0.100583 0.291408 1.82018)
(-0.417879 0.826222 3.2995)
(-0.496409 -0.14217 3.85308)
(0.288586 0.109395 4.41083)
(0.686374 0.18628 2.22278)
(0.378539 0.580604 1.75079)
(-0.139369 0.62608 0.699865)
(-0.087604 -0.397745 2.70234)
(-0.236169 0.0469527 3.97552)
(-0.0218153 0.00405327 -0.00432807)
(0.00285225 0.0159414 -0.226699)
(0.529771 -0.253415 1.09393)
(-0.00328189 0.11658 1.58543)
(0.0095449 0.019886 0.860458)
(0.0523605 0.0550201 0.776638)
(-0.283629 0.00843283 0.889478)
(-0.00574533 -0.00283311 -0.0012791)
(0.0335416 -0.0385861 -0.174942)
(-0.0739882 -0.423685 0.962251)
(0.0405584 -0.209841 0.571962)
(0.0635497 -0.476996 0.0783636)
(-0.0437801 -0.150073 0.3522)
(-0.0347543 -0.000259868 -0.470706)
(-0.0362564 0.0216835 -0.363401)
(0.000929963 0.00346114 -0.430442)
(-0.251021 -0.126726 3.10735)
(-0.101461 0.3397 1.00115)
(-0.381875 0.457061 2.99532)
(-0.0626648 -0.245407 3.26638)
(0.240868 -0.0896733 4.40332)
(0.418628 0.303953 2.32304)
(0.376154 0.488121 1.87517)
(-0.0380256 0.173255 0.803576)
(-0.225812 -0.196505 2.71028)
(0.172855 0.214097 3.72153)
(-0.581754 0.101693 0.139505)
(-0.0147997 0.016258 -0.270838)
(0.299202 0.0503798 1.03422)
(-0.0318193 0.175075 1.43172)
(0.0890225 0.0188448 1.08046)
(0.111614 0.0443698 1.04084)
(0.247658 -0.106932 0.913804)
(-0.301547 0.237497 0.0606216)
(-0.0604936 -0.0249567 -0.061125)
(-0.195712 0.0407907 0.988232)
(0.0752387 -0.047434 0.743612)
(0.301781 -0.0615895 0.436811)
(-0.0371728 -0.0056404 0.099671)
(-0.343062 0.0299169 -0.00158835)
(-0.0162587 0.0115444 -0.475598)
(0.0025635 -0.00771292 -0.372536)
(0.026989 -0.0258587 -0.410235)
(-0.38945 -0.115604 3.65759)
(0.0909219 -0.0491171 0.405219)
(-0.175299 0.37239 3.08141)
(-0.0741036 -0.306822 3.33202)
(0.134867 -0.181051 4.26058)
(0.245673 0.417611 2.43593)
(0.443301 0.387507 2.33188)
(-0.118946 0.117129 1.20396)
(-0.327171 -0.0911183 2.58864)
(0.281364 0.450835 3.18019)
(0.194297 0.160739 0.178822)
(-0.0100882 -0.0224823 -0.209666)
(0.14374 0.0160909 1.03266)
(-0.0332792 0.190522 1.67458)
(0.0104806 -0.129978 1.15995)
(0.08748 -0.0595963 1.00467)
(0.226123 -0.13724 0.948165)
(-0.203068 0.386589 0.118049)
(-0.181696 -0.0397557 0.0747954)
(-0.196 0.0506485 0.967499)
(0.0543339 -0.0501925 0.638016)
(0.146568 0.0185268 0.557583)
(-0.463974 0.271743 0.295585)
(-0.262429 0.11882 -0.12785)
(0.0184327 0.014582 -0.381071)
(0.0686978 -0.134151 -0.3358)
(0.0351108 -0.0339017 -0.364169)
(-0.483307 -0.147188 3.83424)
(0.0525612 -0.123308 0.0966783)
(-0.209257 0.314509 3.00879)
(-0.0609994 -0.406458 3.00433)
(0.121324 -0.245768 4.07179)
(0.187688 0.336937 2.30321)
(0.372586 0.321626 2.42214)
(-0.205919 0.039754 1.24137)
(-0.342228 -0.00698123 2.34662)
(0.10544 0.533535 3.05536)
(0.774253 0.460276 0.477797)
(-0.0163762 -0.0987825 -0.163556)
(-0.0823007 -0.109413 1.08675)
(-0.0459582 0.147966 1.82032)
(-0.0898453 -0.186838 1.10068)
(-0.00331738 -0.0621143 0.911493)
(0.0953247 -0.122098 1.1332)
(-0.126698 0.76084 0.0265613)
(-0.28241 -0.0133248 0.191926)
(-0.194539 0.0423642 0.898911)
(0.0514798 0.0360781 0.504452)
(-0.132555 0.185068 0.629624)
(-0.377679 0.310865 0.578382)
(0.0340119 0.016574 -0.290338)
(0.0387794 0.0513229 -0.305123)
(0.00606291 -0.00542512 -0.254969)
(-0.546628 -0.165479 3.99403)
(0.0346196 -0.0597405 0.132278)
(-0.329432 0.214858 3.09593)
(-0.00446542 -0.508563 2.70539)
(0.0616409 -0.26525 3.94374)
(0.132533 0.206974 2.13899)
(0.268595 0.238977 2.5013)
(-0.244959 -0.112875 1.34056)
(-0.186766 -0.00883885 2.25793)
(-0.181193 0.407281 2.89931)
(-0.0142828 -0.195846 -0.085904)
(-0.236916 -0.167003 1.21097)
(-0.0799728 0.110506 1.82146)
(-0.119541 -0.27649 1.02926)
(-0.04475 0.0165762 0.936051)
(-0.357538 0.326829 1.17767)
(-0.199062 0.0316405 0.176729)
(-0.152015 0.0731009 0.877422)
(0.0337846 0.122692 0.417269)
(-0.138621 0.240436 0.694653)
(-0.32981 0.251509 0.638919)
(0.0237758 0.0352294 -0.231753)
(-0.000952595 0.0588363 -0.202266)
(-0.0634428 0.0555375 -0.0782036)
(-0.550151 -0.152865 4.18175)
(-0.13713 0.0628983 0.402421)
(-0.462293 0.143455 3.19278)
(-0.0517346 -0.51234 2.40396)
(-0.0296338 -0.176786 3.85991)
(0.0838013 0.0957655 2.03148)
(0.197211 0.151598 2.53559)
(-0.23887 -0.228662 1.45195)
(-0.0261913 -0.0255552 2.22256)
(-0.211093 0.2928 2.61205)
(-0.0281315 -0.0919765 -0.00626928)
(-0.1977 -0.131148 1.24873)
(-0.146666 0.0586211 1.86665)
(-0.108284 -0.281624 0.968372)
(-0.0905269 0.0636693 1.02204)
(-0.0249442 0.25646 1.23307)
(-0.20285 -0.0865136 0.27221)
(-0.0994878 0.0882541 0.795034)
(0.012005 0.0793939 0.353712)
(-0.138246 0.212895 0.705122)
(-0.121357 -0.0594987 0.584328)
(-0.00405877 0.0510111 -0.163677)
(-0.0148111 0.0378739 -0.100034)
(-0.0899352 0.0540234 0.0112695)
(-0.518288 -0.121518 4.30707)
(-0.334112 0.274095 0.88024)
(-0.530805 0.104309 3.20095)
(-0.129824 -0.475099 2.22592)
(-0.0887518 -0.0882982 3.77063)
(-0.000121733 0.0428841 2.01059)
(0.18249 0.0925869 2.56829)
(-0.193359 -0.284906 1.49947)
(0.0576378 -0.0175141 2.18778)
(-0.185204 0.131305 2.35511)
(-0.0467942 -0.152655 0.0867758)
(-0.222183 -0.124302 1.45988)
(-0.182491 -0.00830629 1.85118)
(-0.114734 -0.19771 0.873735)
(-0.153275 0.150938 1.01772)
(-0.0301785 0.262066 1.20053)
(-0.180036 -0.129737 0.304639)
(-0.0554589 0.0673505 0.724058)
(-0.0116636 0.0144845 0.314492)
(-0.174 0.197529 0.64093)
(-0.109429 -0.0400958 0.591309)
(-0.00108999 0.0552526 -0.087718)
(-0.0321039 0.0739451 0.00339218)
(-0.148979 0.0986633 0.101533)
(-0.469574 -0.0620424 4.35225)
(-0.416634 0.357779 1.29576)
(-0.557306 0.126316 3.1905)
(-0.165106 -0.387546 2.15818)
(-0.0660091 0.0245996 3.69948)
(-0.0405058 0.0779621 2.03153)
(0.178418 0.0544919 2.5705)
(-0.182403 -0.284987 1.49208)
(0.110859 0.040765 2.09735)
(-0.0677153 0.0774147 2.21401)
(-0.0737167 -0.156756 0.285567)
(-0.217079 -0.118642 1.63038)
(-0.192694 -0.0387357 1.78811)
(-0.145749 -0.0810269 0.769157)
(-0.191094 0.238074 0.976804)
(0.0133405 0.33916 1.12287)
(-0.149095 -0.102576 0.285239)
(0.0457954 0.0634959 0.608206)
(-0.0371518 0.00716189 0.325846)
(-0.235001 0.218784 0.60835)
(-0.193268 0.212135 0.599368)
(-0.059068 0.0475147 -0.0294134)
(-0.0891513 0.101588 0.104898)
(-0.212653 0.133751 0.194313)
(-0.358542 -0.00859687 4.33127)
(-0.402286 0.363619 1.58603)
(-0.528651 0.152972 3.2002)
(-0.219805 -0.259194 2.15601)
(-0.0378472 0.170892 3.51632)
(-0.0734769 0.177284 2.04126)
(0.152512 0.02776 2.5487)
(-0.192071 -0.269116 1.47489)
(0.125027 0.113219 1.99364)
(0.042359 0.279388 2.20005)
(-0.0666769 -0.113701 0.499617)
(-0.220246 -0.090227 1.8381)
(-0.18804 -0.0392898 1.7351)
(-0.23358 0.026539 0.720045)
(-0.279355 0.260379 0.902477)
(-0.0699189 0.360685 0.968905)
(-0.133255 -0.0688136 0.235901)
(0.100319 0.100909 0.539917)
(-0.114657 0.0540857 0.395099)
(-0.291869 0.243418 0.626957)
(-0.21931 0.298946 0.607093)
(-0.125537 0.0640203 0.0579656)
(-0.114605 0.115371 0.181932)
(-0.205203 0.125162 0.297802)
(-0.229788 0.0462928 4.26191)
(-0.333647 0.33046 1.75025)
(-0.473776 0.199778 3.20176)
(-0.240775 -0.127453 2.19977)
(-0.0119496 0.261293 3.17706)
(-0.109952 0.248625 2.08952)
(0.113549 0.0129431 2.53236)
(-0.206353 -0.240715 1.44361)
(0.013566 0.181311 1.91536)
(0.0969397 0.456979 2.28798)
(-0.0573536 -0.0650394 0.721622)
(-0.22948 -0.0133516 2.03755)
(-0.149449 -0.0502044 1.68706)
(-0.310096 0.0559561 0.679115)
(-0.36381 0.218761 0.827511)
(-0.0797947 0.329564 0.87422)
(-0.0907845 -0.0252184 0.183826)
(0.0813298 0.132098 0.525668)
(-0.214292 0.112005 0.494411)
(-0.318591 0.235698 0.615887)
(-0.168879 0.177941 0.414816)
(-0.159483 0.0588294 0.153119)
(-0.156064 0.136807 0.296579)
(-0.234203 0.157339 0.414973)
(-0.136112 0.088641 3.9565)
(-0.244567 0.267293 1.81604)
(-0.414088 0.263184 3.19408)
(-0.197036 -0.0497105 2.29531)
(0.04079 0.274685 2.88003)
(-0.123506 0.275423 2.20301)
(0.0722945 0.0221232 2.52706)
(-0.219082 -0.196275 1.44405)
(-0.133328 0.227807 1.83627)
(0.116546 0.479361 2.34519)
(-0.0544064 -0.0442154 0.930224)
(-0.254555 0.0445581 2.17619)
(-0.0892436 -0.0442591 1.66974)
(-0.320068 0.0404418 0.65698)
(-0.33049 0.119266 0.743001)
(-0.117204 0.234811 0.912331)
(-0.0569021 0.00525178 0.192921)
(-0.0136974 0.14747 0.54205)
(-0.243865 0.0979938 0.550498)
(-0.305017 0.192288 0.526483)
(-0.00311653 0.025872 0.181802)
(-0.178169 0.0633634 0.271353)
(-0.161017 0.129979 0.427005)
(-0.230925 0.155359 0.527839)
(-0.0307906 0.0479677 3.54483)
(-0.166495 0.182085 1.81871)
(-0.333169 0.289665 3.17477)
(-0.0987178 -0.0090181 2.46829)
(0.123012 0.270091 2.68988)
(-0.118082 0.273214 2.33437)
(0.0478219 0.0295101 2.5368)
(-0.219091 -0.152191 1.48222)
(-0.184069 0.23487 1.77053)
(0.144851 0.394855 2.34769)
(-0.0609339 -0.0455782 1.12776)
(-0.277614 0.0425468 2.22204)
(-0.0573101 -0.0301659 1.64842)
(-0.30023 0.0401591 0.656842)
(-0.21318 -0.0205306 0.666327)
(-0.0855105 0.167717 0.923086)
(-0.0595387 0.0168583 0.301297)
(-0.0967947 0.106113 0.548168)
(-0.220393 0.0600587 0.56505)
(-0.0651311 -0.0407992 0.305474)
(-0.0139771 0.0918348 0.267435)
(-0.175787 0.0524262 0.395267)
(-0.173908 0.0945355 0.533212)
(-0.21018 0.1255 0.560738)
(0.0407889 -0.0123981 3.25207)
(-0.11838 0.116051 1.81227)
(-0.275561 0.264476 3.11859)
(0.0140252 0.0338147 2.63667)
(0.190267 0.26263 2.53874)
(-0.107155 0.270671 2.47553)
(0.0391061 0.0219246 2.56036)
(-0.175455 -0.147613 1.51442)
(-0.16914 0.234378 1.74543)
(0.148422 0.329501 2.34478)
(-0.0800937 -0.0466828 1.34799)
(-0.294432 0.0157379 2.20596)
(-0.0583243 -0.0195303 1.6514)
(-0.235458 0.0471546 0.635345)
(-0.099833 -0.0803192 0.602)
(-0.0224635 0.121203 0.92861)
(-0.0657832 0.00240644 0.445361)
(-0.123846 0.0308292 0.541955)
(-0.170348 0.0129535 0.52194)
(0.0772316 -0.0131772 0.196748)
(-0.0284234 0.144839 0.350628)
(-0.164166 0.042265 0.504052)
(-0.156201 0.0610223 0.587873)
(-0.140117 0.114247 0.481607)
(0.0560693 -0.0308195 3.08789)
(-0.0831907 0.0911528 1.82001)
(-0.222846 0.179547 2.99609)
(0.0974881 0.0358324 2.67535)
(0.237406 0.234052 2.46101)
(-0.0908233 0.256303 2.62912)
(0.025976 0.0240406 2.56802)
(-0.104008 -0.141505 1.52423)
(-0.106819 0.25264 1.73419)
(0.149137 0.33203 2.33536)
(-0.0816871 -0.0486823 1.53754)
(-0.26133 -0.00573899 2.13911)
(-0.0587257 -0.00647501 1.67887)
(-0.118171 0.034945 0.589779)
(-0.0271132 -0.0656513 0.561553)
(0.0110183 0.123587 0.969761)
(-0.0713683 -0.0275836 0.603041)
(-0.115379 -0.0330259 0.529022)
(-0.0847314 -0.0509178 0.400807)
(0.115654 -0.0149727 0.176492)
(-0.0388463 0.17073 0.409218)
(-0.165206 0.0185231 0.572614)
(-0.14441 0.0535385 0.590345)
(-0.00895191 -0.00759342 0.373204)
(0.0738223 -0.0185205 2.98652)
(-0.0550185 0.0748979 1.83293)
(-0.198241 0.0654339 2.82044)
(0.15528 0.0280457 2.6063)
(0.264495 0.201109 2.41449)
(-0.0726913 0.209742 2.79063)
(-0.00106097 0.00852605 2.55294)
(-0.0810287 -0.0983871 1.51274)
(-0.0339027 0.28069 1.70759)
(0.157457 0.380509 2.30992)
(-0.0599978 -0.0259304 1.66782)
(-0.209269 -0.00103171 2.06117)
(-0.0673885 0.0525903 1.71831)
(0.0226069 0.0107012 0.548776)
(0.0197393 -0.0380671 0.570192)
(0.0276318 0.218216 1.06615)
(-0.0489669 -0.0159751 0.792301)
(-0.0798385 -0.040231 0.517066)
(0.00694804 -0.0935874 0.305899)
(0.126795 0.00104208 0.22583)
(-0.0596125 0.220065 0.497168)
(-0.15591 -0.0223394 0.583717)
(-0.138932 0.0454527 0.57076)
(0.0724072 -0.0397274 0.201013)
(0.103244 -0.00508205 2.90408)
(-0.0330542 0.053338 1.85736)
(-0.167867 0.0198 2.64281)
(0.18522 0.0194126 2.48233)
(0.274037 0.182976 2.38436)
(-0.062925 0.133861 2.95557)
(-0.0121754 -0.0393143 2.49182)
(-0.0841459 0.0228878 1.47033)
(-0.00117963 0.295018 1.65497)
(0.172414 0.43494 2.26009)
(-0.0236708 -0.0218377 1.68039)
(-0.171224 0.0225701 1.97634)
(-0.129545 0.125334 1.68371)
(0.172218 -0.00995938 0.547864)
(0.0780109 -0.0173124 0.622596)
(0.011592 0.324199 1.22446)
(0.0377473 0.0999885 1.0122)
(-0.00222974 0.00607593 0.517979)
(0.0717371 -0.104852 0.260468)
(0.127845 0.0257876 0.330604)
(-0.0813114 0.281335 0.632269)
(-0.138903 -0.0537089 0.548655)
(-0.0924401 -0.0762832 0.461445)
(0.094276 -0.0513648 0.158461)
(0.136043 0.00093934 2.84411)
(-0.0203789 0.0300204 1.89782)
(-0.106542 0.0293455 2.50257)
(0.176045 0.037154 2.3706)
(0.270301 0.179504 2.35515)
(-0.0601546 0.0656416 3.09338)
(-0.0342733 -0.00239463 2.41171)
(-0.0560322 0.097073 1.41197)
(0.00349582 0.299049 1.59958)
(0.198133 0.456859 2.1996)
(0.00664997 -0.0226145 1.48572)
(-0.14826 0.0245684 1.89476)
(-0.179581 0.161576 1.55272)
(0.312291 -0.0205666 0.544051)
(0.135646 0.0142365 0.713612)
(-0.020713 0.40518 1.43911)
(0.0911697 0.21199 1.17783)
(0.0886236 0.0457447 0.523847)
(0.103331 -0.0910829 0.271534)
(0.13514 0.0806911 0.470881)
(-0.110973 0.343617 0.823441)
(-0.115642 -0.0564054 0.496891)
(0.055107 -0.128697 0.264556)
(0.0968956 -0.0356792 0.185995)
(0.148445 -0.0016471 2.80331)
(-0.0242369 0.00739434 1.96816)
(-0.046282 0.022463 2.40525)
(0.160796 0.0295533 2.28141)
(0.260109 0.175231 2.31255)
(-0.0745258 0.0240504 3.18186)
(-0.133328 -0.0357135 2.30195)
(0.00156125 0.060718 1.34087)
(-0.0356802 0.280063 1.56183)
(0.218594 0.476932 2.15412)
(-0.0254219 0.0489676 1.38755)
(-0.145123 0.0293935 1.84072)
(-0.0751399 0.114951 1.35438)
(0.404769 -0.0235143 0.519332)
(0.166096 0.0733605 0.830886)
(-0.0400682 0.420317 1.63243)
(0.0941082 0.251163 1.29615)
(0.162967 0.022928 0.518883)
(0.109735 -0.0693608 0.320143)
(0.100035 0.125335 0.636705)
(-0.136883 0.394215 1.04342)
(-0.0742655 -0.047156 0.441208)
(0.0906999 -0.133721 0.147092)
(0.0137295 0.0391213 0.381484)
(0.142048 -0.00748288 2.80041)
(-0.0241397 -0.0123149 2.064)
(-0.0218601 -0.00853931 2.36027)
(0.121758 -0.0311252 2.23518)
(0.243873 0.139503 2.27037)
(-0.103833 0.00857646 3.22483)
(-0.107689 -0.134376 2.19926)
(0.111363 -0.0415035 1.28006)
(-0.129642 0.198801 1.49111)
(0.229684 0.485225 2.11167)
(-0.0342063 0.138055 1.45694)
(-0.184515 0.0353618 1.83845)
(0.0703474 0.0309464 0.98492)
(0.414641 -0.0131586 0.515282)
(0.146097 0.16663 0.94394)
(-0.0549031 0.436606 1.81847)
(0.028137 0.278597 1.39199)
(0.183112 -0.0597972 0.483705)
(0.0827505 -0.053689 0.413007)
(0.039761 0.174423 0.808071)
(-0.149167 0.425902 1.25255)
(-0.0076218 -0.0363721 0.400147)
(0.0689121 -0.151731 0.0913652)
(-0.139448 0.117676 0.70529)
(0.133588 -0.011836 2.8325)
(-0.0179418 -0.034795 2.17787)
(-0.0193071 -0.0215567 2.36192)
(0.0867079 -0.041585 2.23347)
(0.216166 0.101542 2.2459)
(-0.125648 0.00611763 3.23965)
(-0.0878307 -0.102642 2.10165)
(0.25277 -0.0684621 1.28451)
(-0.149575 0.114568 1.3899)
(0.216986 0.463421 2.03585)
(-0.032298 0.218934 1.62046)
(-0.255395 0.0612991 1.90316)
(0.112361 -0.0189053 0.700476)
(0.374027 0.00921407 0.514592)
(0.0973829 0.27191 1.03884)
(-0.0902984 0.480665 1.9266)
(0.0439355 0.248823 1.52363)
(0.176133 -0.144699 0.454573)
(0.038011 -0.0373254 0.519781)
(-0.0145591 0.235419 0.96597)
(-0.180421 0.483382 1.4847)
(0.0277809 -0.0225402 0.353125)
(-0.00736686 -0.133793 0.110474)
(-0.267225 0.186867 0.989061)
(0.134825 -0.00593329 2.87048)
(-0.00104427 -0.0526879 2.28939)
(-0.0330591 -0.0316793 2.38406)
(0.0864305 -0.0148638 2.24329)
(0.175927 0.080188 2.22712)
(-0.133439 0.0180848 3.25127)
(-0.172338 -0.0660491 1.894)
(0.438774 -0.0245636 1.2593)
(-0.0282176 0.0827624 1.31458)
(0.177762 0.380856 1.93856)
(-0.0257439 0.28897 1.79911)
(-0.184716 0.12991 2.01347)
(0.177856 -0.0702562 0.532412)
(0.310342 0.0118824 0.522016)
(0.0980628 0.349771 1.11852)
(-0.113899 0.53842 1.97683)
(0.0947698 0.188438 1.58163)
(0.177317 -0.197727 0.43793)
(-0.02037 -0.0269289 0.624075)
(-0.00849427 0.302108 1.12015)
(-0.227618 0.564071 1.72308)
(0.0353707 -0.0208915 0.297724)
(-0.0981834 -0.103936 0.211502)
(-0.365259 0.243728 1.21696)
(0.156258 0.00691716 2.86913)
(0.0195474 -0.0653538 2.37516)
(-0.0430703 -0.050289 2.40723)
(0.121779 0.0485598 2.27643)
(0.129463 0.0658266 2.22384)
(-0.135413 0.0318984 3.25299)
(-0.0585486 -0.137841 1.58371)
(0.598806 0.0237479 1.17065)
(0.30271 0.0795591 1.25575)
(0.156524 0.291506 1.86106)
(-0.0191773 0.344036 1.91876)
(-0.147383 0.246903 2.10538)
(0.242004 -0.180657 0.444757)
(0.252047 -0.0125226 0.540205)
(0.170017 0.362218 1.18965)
(-0.139667 0.585534 1.97544)
(0.126891 0.176744 1.59536)
(0.167565 -0.219238 0.433939)
(-0.0855599 -0.0435566 0.721158)
(0.000143634 0.335349 1.27634)
(-0.271234 0.619043 1.90799)
(0.01306 -0.0300761 0.258405)
(-0.192083 -0.0803175 0.340349)
(-0.44566 0.293898 1.44008)
(0.179523 0.0313866 2.79663)
(0.0451722 -0.0784216 2.43496)
(-0.0408171 -0.106226 2.43356)
(0.20078 0.111844 2.33234)
(0.113756 0.0778146 2.2622)
(-0.118942 0.028804 3.26232)
(0.260775 -0.219317 1.23365)
(0.651292 0.0251173 1.05604)
(0.541101 0.125335 1.28297)
(0.183887 0.224917 1.90101)
(-0.0263048 0.383677 2.02486)
(-0.19553 0.372606 2.27465)
(0.248822 -0.324439 0.409882)
(0.186523 -0.0553525 0.566328)
(0.242421 0.333699 1.26241)
(-0.0949263 0.599218 1.94277)
(0.159474 0.152918 1.56905)
(0.135174 -0.225353 0.43601)
(-0.15067 -0.0882751 0.798938)
(-0.0183035 0.331275 1.43386)
(-0.322778 0.673591 2.01673)
(-0.0340827 -0.0422744 0.25162)
(-0.277604 -0.0652836 0.463457)
(-0.512153 0.322149 1.64561)
(0.227495 0.0409468 2.65173)
(0.0676067 -0.0984684 2.47581)
(-0.0424462 -0.133255 2.47566)
(0.276497 0.108462 2.37585)
(0.163928 0.111753 2.37565)
(-0.0774022 -0.00286008 3.27701)
(0.442193 -0.286072 0.953487)
(0.579797 -0.049137 0.967169)
(0.606383 0.231761 1.36465)
(0.218692 0.203759 2.00899)
(-0.0343135 0.421835 2.1308)
(-0.17376 0.441782 2.42945)
(0.224988 -0.425716 0.408085)
(0.113202 -0.122017 0.58589)
(0.264414 0.309156 1.3367)
(-0.0146425 0.578753 1.94006)
(0.179578 0.189551 1.48454)
(0.0860496 -0.244878 0.439686)
(-0.212548 -0.143291 0.8494)
(-0.0591483 0.290212 1.56903)
(-0.355375 0.719848 2.08672)
(-0.0878729 -0.0544171 0.279997)
(-0.354512 -0.0552331 0.553309)
(-0.546834 0.322721 1.8164)
(0.299707 0.034114 2.53745)
(0.0707207 -0.0967612 2.48271)
(-0.00963786 -0.14683 2.51964)
(0.302222 -0.00194045 2.38816)
(0.240672 0.160338 2.50986)
(-0.0540167 0.0517299 3.24541)
(0.502724 -0.384404 0.805466)
(0.487044 -0.119938 0.919506)
(0.566313 0.332326 1.4363)
(0.25006 0.249443 2.14232)
(-0.0517069 0.407834 2.2103)
(-0.187321 0.332563 2.43768)
(0.193277 -0.446283 0.418617)
(0.0324981 -0.189975 0.591788)
(0.231777 0.289622 1.40584)
(0.0261542 0.555376 1.97374)
(0.191983 0.270543 1.38513)
(0.0355161 -0.270487 0.451966)
(-0.272515 -0.18433 0.869639)
(-0.106343 0.235524 1.67524)
(-0.353083 0.716253 2.13749)
(-0.137552 -0.0685744 0.333061)
(-0.415234 -0.0426199 0.59064)
(-0.548077 0.304557 1.93231)
(0.337298 0.0290768 2.5228)
(0.058746 -0.0815035 2.48017)
(0.0797294 -0.139218 2.55754)
(0.287067 -0.11017 2.4323)
(0.330298 0.201527 2.66411)
(-0.184694 0.0882481 3.17072)
(0.505719 -0.459532 0.770027)
(0.408372 -0.114896 0.899573)
(0.507457 0.398643 1.52145)
(0.189939 0.288246 2.27107)
(-0.0249084 0.281149 2.24945)
(-0.0607674 0.00229393 2.2307)
(0.153527 -0.41008 0.44809)
(-0.0582413 -0.226812 0.601787)
(0.170849 0.258366 1.47685)
(0.0353963 0.539083 2.04087)
(0.210416 0.285619 1.33825)
(-0.0180933 -0.280401 0.477613)
(-0.329946 -0.191868 0.865514)
(-0.177972 0.155365 1.75706)
(-0.338528 0.684897 2.15975)
(-0.178492 -0.0826422 0.40209)
(-0.468862 -0.0207982 0.580035)
(-0.509418 0.264773 1.9888)
(0.369515 0.0237799 2.55779)
(0.0249614 -0.0803847 2.49106)
(0.190837 -0.151179 2.58584)
(0.289702 -0.123574 2.42771)
(0.379415 0.256277 2.77606)
(-0.279397 0.0866936 3.06121)
(0.479162 -0.480557 0.779707)
(0.346695 -0.0150165 0.905912)
(0.467702 0.470486 1.6279)
(0.153675 0.339667 2.35739)
(0.084058 0.0709751 1.88663)
(0.242621 0.208551 1.85504)
(0.071408 -0.340547 0.498957)
(-0.148304 -0.20392 0.624988)
(0.0934024 0.223584 1.55199)
(0.00685792 0.546529 2.10516)
(0.223353 0.247227 1.36936)
(-0.0818867 -0.268569 0.520297)
(-0.383782 -0.155829 0.851951)
(-0.272705 0.0580722 1.78146)
(-0.325264 0.640826 2.14578)
(-0.212733 -0.0918845 0.486653)
(-0.498868 0.0114022 0.554261)
(-0.463282 0.190916 1.95645)
(0.377596 0.0258671 2.61399)
(0.04035 -0.0944228 2.50378)
(0.277942 -0.124804 2.6199)
(0.316312 -0.0726522 2.42608)
(0.410684 0.306421 2.8359)
(-0.143335 -0.0351553 2.84681)
(0.412162 -0.417851 0.826585)
(0.268539 0.181738 0.942812)
(0.387848 0.551593 1.72555)
(0.161771 0.412353 2.4725)
(0.0244162 -0.0615228 1.67415)
(0.268815 0.0720845 1.26271)
(-0.0552816 -0.253424 0.551438)
(-0.229596 -0.117603 0.679039)
(-0.0354929 0.187599 1.63997)
(-0.00549827 0.552163 2.15242)
(0.24851 0.143314 1.43257)
(-0.154923 -0.232495 0.580305)
(-0.428471 -0.0649097 0.840227)
(-0.346563 -0.00641198 1.74051)
(-0.305076 0.596116 2.09815)
(-0.245993 -0.0946203 0.588571)
(-0.506475 0.0523975 0.552516)
(-0.468385 0.128062 1.66684)
(0.380312 0.0332597 2.61161)
(0.100937 -0.156101 2.4833)
(0.367802 -0.0347463 2.59554)
(0.352437 0.0785328 2.40182)
(0.404148 0.315178 2.82383)
(0.138428 -0.318571 2.58026)
(0.253873 -0.174447 0.91873)
(0.193089 0.352387 0.985432)
(0.195876 0.58994 1.81541)
(0.173477 0.504943 2.56791)
(-0.0456666 -0.0608752 1.6513)
(0.102527 -0.252291 1.04169)
(-0.195793 -0.138746 0.61051)
(-0.297063 0.013112 0.751401)
(-0.194508 0.184206 1.70187)
(-0.0105696 0.544893 2.15467)
(0.211614 0.0469542 1.43559)
(-0.2361 -0.169512 0.658571)
(-0.469514 0.0581468 0.835263)
(-0.404427 0.0223362 1.68558)
(-0.282753 0.547347 2.04492)
(-0.281415 -0.0950824 0.711983)
(-0.511273 0.0994263 0.590672)
(-0.493169 0.209406 1.24266)
(0.396677 0.0416647 2.56913)
(0.184817 -0.222648 2.48085)
(0.444055 0.0319539 2.54093)
(0.422645 0.206586 2.35743)
(0.412146 0.324962 2.76242)
(0.287286 -0.52425 2.29202)
(0.0430381 0.100694 0.968562)
(0.123573 0.480438 1.0254)
(-0.0268034 0.601107 1.85318)
(0.220514 0.630151 2.59978)
(-0.0427167 -0.0553935 1.61298)
(-0.088606 -0.434185 1.03733)
(-0.322932 -0.00189296 0.689845)
(-0.356582 0.165827 0.820573)
(-0.29397 0.293286 1.71728)
(-0.0181881 0.552586 2.13838)
(0.0569673 -0.128935 1.37572)
(-0.319479 -0.0889004 0.756859)
(-0.517517 0.17836 0.852204)
(-0.44075 0.154154 1.62138)
(-0.262168 0.501303 1.93381)
(-0.313633 -0.0975948 0.857605)
(-0.531133 0.137774 0.679441)
(-0.527795 0.313159 0.99296)
(0.413216 0.0479314 2.50646)
(0.272528 -0.293349 2.48033)
(0.506914 -0.0133815 2.4957)
(0.47524 0.308 2.33426)
(0.347824 0.32124 2.64057)
(0.289137 -0.675224 1.97345)
(-0.16053 0.307225 0.966427)
(0.028253 0.582926 1.03516)
(-0.130061 0.659278 1.79309)
(0.266216 0.683546 2.53916)
(-0.0189491 -0.213923 1.51753)
(-0.255883 -0.457108 1.07221)
(-0.434337 0.125715 0.780023)
(-0.431796 0.305654 0.874516)
(-0.359318 0.463011 1.68865)
(-0.0186987 0.615763 2.13964)
(-0.10387 -0.217206 1.34964)
(-0.388343 -0.00416117 0.883106)
(-0.575418 0.268043 0.903884)
(-0.460454 0.363154 1.51718)
(-0.260487 0.508291 1.80814)
(-0.334999 -0.0986859 1.02609)
(-0.568596 0.174297 0.816619)
(-0.585031 0.372964 0.959501)
(0.441876 0.0552552 2.4112)
(0.320278 -0.33394 2.48643)
(0.53501 -0.0507325 2.46433)
(0.512104 0.355509 2.27162)
(0.354593 0.331122 2.52381)
(0.306469 -0.685976 1.76781)
(-0.317924 0.41821 0.939473)
(-0.125957 0.610399 0.99632)
(-0.192839 0.703751 1.65341)
(0.270322 0.735548 2.42234)
(-0.0645266 -0.455695 1.4907)
(-0.385767 -0.374392 1.1114)
(-0.519311 0.234197 0.878729)
(-0.524573 0.383283 0.92316)
(-0.465544 0.568302 1.59915)
(-0.0695079 0.730297 2.14288)
(-0.237311 -0.234072 1.40221)
(-0.424796 0.070511 1.03835)
(-0.613909 0.311708 0.995001)
(-0.544209 0.519775 1.38431)
(-0.273684 0.564252 1.7755)
(-0.345696 -0.0894752 1.22296)
(-0.598236 0.197882 1.00702)
(-0.644792 0.406202 1.04317)
(0.41376 0.0503535 2.33502)
(0.365613 -0.36228 2.47159)
(0.514948 -0.0540707 2.41373)
(0.441538 0.347389 2.21837)
(0.259273 0.345673 2.38916)
(0.338675 -0.603935 1.69407)
(-0.428523 0.462589 0.945782)
(-0.299229 0.546082 0.959726)
(-0.338545 0.616135 1.46053)
(0.248373 0.632137 2.258)
(-0.109762 -0.519179 1.56887)
(-0.426572 -0.28879 1.13837)
(-0.551949 0.336764 0.986688)
(-0.577732 0.402032 0.984247)
(-0.588759 0.551184 1.43122)
(-0.0906028 0.711799 2.05757)
(-0.329768 -0.217856 1.51814)
(-0.411928 0.142944 1.21562)
(-0.588463 0.308129 1.12316)
(-0.652838 0.54567 1.26693)
(-0.295981 0.633248 1.74869)
(-0.332837 -0.0743453 1.44674)
(-0.58696 0.195995 1.2437)
(-0.665181 0.418126 1.18338)
(0.385418 0.0592016 2.21434)
(0.375095 -0.368005 2.40835)
(0.418401 0.0286381 2.37956)
(0.431381 0.327708 2.10232)
(0.291507 0.309302 2.20138)
(0.329343 -0.493169 1.61296)
(-0.481368 0.480262 1.0136)
(-0.40311 0.437284 0.971331)
(-0.49866 0.398515 1.25364)
(0.219446 0.721338 2.03464)
(-0.115437 -0.510808 1.6901)
(-0.379844 -0.237987 1.20359)
(-0.504858 0.41129 1.11265)
(-0.555322 0.386139 1.05357)
(-0.615281 0.435823 1.24149)
(-0.155211 0.781891 1.90971)
(-0.370805 -0.190985 1.64982)
(-0.327634 0.201374 1.40625)
(-0.504355 0.280896 1.27444)
(-0.638984 0.459465 1.22268)
(-0.398424 0.755176 1.59036)
(-0.291893 -0.0611264 1.678)
(-0.514394 0.170347 1.50238)
(-0.597259 0.395192 1.32356)
(0.211669 0.0373061 1.98661)
(0.352627 -0.335462 2.34082)
(0.351652 0.137006 2.27219)
(0.200754 0.156286 1.93787)
(0.122676 0.204728 2.12669)
(0.308759 -0.331781 1.61195)
(-0.444204 0.451813 1.10667)
(-0.379354 0.342693 1.00476)
(-0.455091 0.222287 1.11312)
(-0.13089 0.178294 1.43866)
(-0.0931205 -0.495043 1.77152)
(-0.275082 -0.0987039 1.29241)
(-0.366966 0.455583 1.25132)
(-0.47565 0.358438 1.12791)
(-0.501148 0.321947 1.10324)
(-0.311398 0.513506 1.58656)
(-0.331283 -0.181386 1.74561)
(-0.186177 0.235524 1.59398)
(-0.391865 0.238529 1.43497)
(-0.544041 0.403014 1.20428)
(-0.35075 0.604711 1.41639)
(-0.224406 -0.0489875 1.89)
(-0.399027 0.117283 1.75623)
(-0.487027 0.361419 1.47503)
(0.0499014 -0.00789251 1.92293)
(0.28534 -0.234291 2.27193)
(0.0530979 0.182518 2.22049)
(0.139552 -0.0226629 1.66957)
(0.0243196 0.0685141 2.16156)