/*--------------------------------*- C++ -*----------------------------------*\
| =========                 |                                                 |
| \\      /  F ield         | OpenFOAM: The Open Source CFD Toolbox           |
|  \\    /   O peration     | Version:  5.x                                   |
|   \\  /    A nd           | Web:      www.OpenFOAM.org                      |
|    \\/     M anipulation  |                                                 |
\*---------------------------------------------------------------------------*/
FoamFile
{
    version     2.0;
    format      ascii;
    class       volVectorField;
    location    "4";
    object      Us;
}
// * * * * * * * * * * * * * * * * * * * * * * * * * * * * * * * * * * * * * //

dimensions      [0 1 -1 0 0 0 0];

internalField   nonuniform List<vector> 
10571
(
(-0.0573194 0.00347601 0.0683837)
(0.00315292 0.0280601 0.00474536)
(-0.076769 0.0319224 0.0574214)
(-0.115468 0.0559083 0.141458)
(-0.129908 -0.0117806 -0.034985)
(0.145967 0.0206813 0.0458125)
(0.199089 0.0434405 0.0813849)
(-0.134037 0.199229 0.0522579)
(-0.186498 0.0653855 -0.0174747)
(-0.0593008 -0.0298478 -0.148762)
(0.00690523 -0.0312419 -0.0657982)
(0.166726 0.0284552 0.0286952)
(0.0333137 -0.149825 0.0950275)
(0.0773773 -0.146395 0.06255)
(0.0529669 -0.0735321 0.101284)
(-0.00244809 0.132071 0.083388)
(0.0331718 -0.0258392 -0.0377547)
(0.049095 -0.330314 -0.0264669)
(0.193885 -0.284517 -0.0632523)
(0.2751 -0.269111 0.0290853)
(0.0449958 -0.0916129 -0.0390674)
(0.0243438 -0.0678113 -0.169343)
(0.130823 -0.101034 -0.196388)
(0.230432 -0.134154 -0.0133603)
(0.0318416 -0.00651101 0.0740124)
(-0.0595703 0.0754711 0.0760383)
(-0.130713 0.0944649 0.375393)
(0.00348345 -0.0228861 0.334068)
(-0.0992451 -0.251819 0.0407902)
(0.0940598 -0.068228 0.183483)
(-0.0112316 0.0501006 0.406035)
(-0.0981266 -0.02099 0.398305)
(-0.0613108 -0.225041 -0.124204)
(-0.044676 -0.193663 -0.223934)
(0.00412461 -0.127027 -0.0734924)
(0.149652 -0.126167 0.132028)
(0.0914071 -0.162748 0.216122)
(0.0833751 -0.0775912 0.232494)
(0.0859426 -0.0473405 0.279533)
(-0.0261208 0.0497856 0.104071)
(0.00379178 -0.0713715 -0.0469753)
(0.0544566 -0.122336 -0.115581)
(0.0826715 -0.099416 0.00470812)
(0.111182 -0.11362 0.121652)
(0.0576128 -0.00701022 0.0763451)
(0.0106554 -0.0271375 -0.238186)
(0.00797881 -0.0441572 -0.248539)
(-0.0721655 0.0200344 0.0243246)
(-0.0508718 -0.0653187 -0.344515)
(-0.114878 -0.00183397 0.143868)
(-0.0600018 -0.03981 0.537473)
(0.0169022 -0.118371 0.40099)
(0.0791942 -0.106175 -0.419722)
(-0.096823 -0.0290536 0.41033)
(0.0193675 -0.0922013 0.583062)
(-0.060303 -0.155281 0.487184)
(0.0154665 -0.223096 -0.0749939)
(-0.0672723 -0.236906 -0.170727)
(0.00478355 -0.132216 -0.1572)
(-0.0285281 -0.301622 0.139744)
(0.0564927 -0.162113 0.30062)
(-0.0210767 -0.0575868 0.31877)
(-0.0304403 -0.0521665 0.201393)
(-0.0171157 -0.0590891 0.092933)
(0.00160369 -0.126123 -0.178212)
(0.0266341 -0.114444 -0.147396)
(-0.0115223 -0.00675865 0.178735)
(0.0322934 0.0663645 0.255603)
(0.0418754 -0.075897 0.129017)
(-0.0109797 -0.0477889 -0.335269)
(-0.0826422 -0.0540145 -0.185856)
(-0.0682066 0.026079 0.0400844)
(-0.0619422 0.0552954 -0.271871)
(-0.0132068 -0.0681086 -0.129756)
(-0.0208802 -0.0825302 0.375513)
(-0.0656979 -0.364329 0.438477)
(0.111577 -0.0962987 -0.323388)
(-0.251567 0.0292895 0.490137)
(0.0421624 -0.13788 0.502371)
(0.0121013 -0.178786 0.487039)
(0.00963583 -0.182386 -0.0231484)
(0.156968 -0.0371409 -0.537606)
(-0.010277 -0.0516012 -0.393692)
(-0.130508 -0.180234 0.217514)
(0.0085025 -0.104138 0.34601)
(-0.0617875 -0.0630938 0.296556)
(-0.00713286 -0.0668393 0.116309)
(0.0896951 -0.106813 -0.114825)
(0.0353199 -0.104536 -0.31911)
(0.00046769 -0.0525702 -0.124696)
(-0.0712096 -0.000769708 0.16831)
(0.00296078 0.00300364 0.167196)
(0.0314315 -0.0131913 0.16539)
(-0.0249146 -0.0535386 -0.41901)
(-0.159913 -0.0423342 -0.293874)
(-0.00203387 -0.00101651 -0.0214938)
(-0.0197203 0.0969299 -0.164682)
(0.0330568 0.00832089 -0.337876)
(0.108786 0.0890455 -0.255809)
(0 0 0)
(0.127898 -0.101939 -0.234059)
(-0.153522 -0.0483041 0.281428)
(-0.0237924 -0.0689176 0.439333)
(-0.044044 -0.114541 0.487925)
(0.0886707 -0.0297632 -0.411933)
(-0.0609862 0.00162147 -0.231689)
(-0.00162441 -0.0146034 -0.511245)
(-0.12054 -0.0464214 0.182103)
(-0.00940887 -0.0423828 0.365986)
(-0.0604649 -0.0427852 0.303191)
(0.0276323 -0.0123052 -0.146245)
(-0.0197632 -0.077286 -0.347968)
(-0.00565578 -0.0193648 -0.483634)
(-0.0314782 -0.00287135 -0.200124)
(-0.0818929 0.0168255 0.0963265)
(0.0162906 0.000839061 0.0241842)
(-0.000451652 0.032171 -0.0456198)
(-0.0358415 -0.0276473 -0.50239)
(-0.1103 -0.0126447 -0.427949)
(-0.0171091 0.00522604 -0.272775)
(-0.0576218 0.0915905 -0.108999)
(0.00104773 0.0221163 -0.319101)
(0.0738753 -0.00655285 -0.145371)
(0.00652985 -0.198081 -0.101378)
(0.0898803 -0.144138 -0.125985)
(-0.0649501 -0.0355193 -0.063404)
(-0.050049 -0.0528704 -0.159408)
(-0.0254346 -0.0638366 -0.225722)
(0.0475418 -0.0522885 -0.313386)
(-0.028723 0.0102588 -0.123371)
(-0.0101201 0.0051731 -0.00420364)
(-0.00260842 -0.0135457 -0.47785)
(-0.0192945 -0.0267064 -0.20774)
(-0.0721062 0.0267018 -0.255398)
(-0.0367755 0.0317925 -0.334721)
(0.0361468 0.0280477 -0.44622)
(-0.0937395 -0.0777675 -0.182926)
(-0.00471985 -0.00266025 -0.00141797)
(-0.00913674 0.0106056 -0.463758)
(-0.0808921 0.0699737 -0.378673)
(-0.018878 0.0994948 -0.405851)
(0.0314243 0.0644896 -0.472252)
(0.000125052 -0.0130348 -0.300544)
(-0.0388519 -0.0096581 -0.513701)
(-0.0296121 0.0460992 -0.489525)
(-0.00972014 0.0135056 -0.471126)
(-0.0484989 -0.262498 -0.00548559)
(-0.00621456 0.00904019 -0.229627)
(-0.151262 -0.12422 -0.018339)
(-0.0482863 -0.170877 -0.0164122)
(0 0 0)
(-0.0353853 0.00518706 -0.0515355)
(-0.0768475 -0.0376319 -0.11675)
(-0.0246776 -0.0589654 -0.224854)
(0.0160282 -0.0462452 -0.24444)
(0 0 0)
(0 0 0)
(0.0026953 -0.00904066 -0.422624)
(-0.0622552 -0.0466668 -0.1338)
(-0.0935105 0.0386422 -0.208935)
(-0.030949 0.0355858 -0.324244)
(0.0452179 0.0085252 -0.393484)
(1.91008e-15 -1.50749e-14 -4.49584e-14)
(0 0 0)
(-0.0237721 0.000323781 -0.407101)
(-0.0962182 0.100956 -0.294485)
(-0.00253908 0.0825604 -0.394276)
(0.0217257 -0.030535 -0.457007)
(-0.00320718 -0.0545881 -0.279391)
(0 0 0)
(-0.0167889 0.00365373 -0.449781)
(-0.00207781 0.00922398 -0.429985)
(0.0267522 -0.0235306 -0.422227)
(0 0 0)
(-0.0298783 -0.0247323 -0.133107)
(0.17542 0.113242 -0.14081)
(-0.000142005 -0.201197 -0.152667)
(0 0 0)
(-0.160155 -0.00908372 0.0442086)
(-0.0898641 -0.0485047 -0.0319183)
(0 0 0)
(0 0 0)
(0 0 0)
(0 0 0)
(-0.00256989 -0.0139492 -0.347781)
(-0.221388 0.0650877 -0.0318791)
(-0.11486 0.0347802 -0.0988469)
(0.0455341 -0.0264639 -0.289925)
(0 0 0)
(0 0 0)
(0 0 0)
(-0.0139813 -0.0151127 -0.342593)
(-0.0751685 0.0993302 -0.282174)
(-0.0563993 -0.0501937 -0.350854)
(0 0 0)
(0.0427269 -0.135329 -0.342912)
(0 0 0)
(0.0163915 0.0126501 -0.39252)
(0.0106698 -0.00492735 -0.399125)
(0.0578928 -0.0327796 -0.40083)
(0 0 0)
(0.0384753 -0.0418286 -0.121701)
(0.0794547 0.180163 -0.057821)
(0 0 0)
(0 0 0)
(-0.192379 -0.0366746 0.14384)
(-0.0859441 -0.0614994 0.0163948)
(0 0 0)
(0 0 0)
(0 0 0)
(0 0 0)
(-0.00713098 -0.0307092 -0.239537)
(-0.210937 0.0328419 0.0132827)
(-0.0913789 0.0140366 -0.0693234)
(0 0 0)
(0 0 0)
(0 0 0)
(0 0 0)
(-0.0753052 0.0105185 -0.21718)
(-0.0729007 0.0615548 -0.217979)
(0 0 0)
(0 0 0)
(0.0851576 -0.109604 -0.289938)
(0.0230619 0.00671669 -0.363603)
(0.0202332 -0.00593848 -0.365948)
(0.0722928 -0.0452276 -0.353866)
(0 0 0)
(0.078693 -0.0612739 -0.0902889)
(0 0 0)
(0 0 0)
(0 0 0)
(-0.0521362 -0.0218374 0.0521912)
(-0.0659259 -0.0432598 0.0152)
(0 0 0)
(0 0 0)
(0 0 0)
(-0.008086 -0.0138569 -0.136298)
(-0.159141 -0.00612129 -0.0354353)
(-0.0726029 0.0101917 -0.0796074)
(0 0 0)
(0 0 0)
(0 0 0)
(-0.111166 0.0364965 -0.158371)
(-0.0274049 -0.0183975 -0.205881)
(0.0528332 -0.0507214 -0.297521)
(0 0 0)
(0 0 0)
(0.020432 -0.00368206 -0.313604)
(0.0322315 -0.0270497 -0.308297)
(0.0871932 -0.0315934 -0.304991)
(0 0 0)
(0.0682395 -0.0249806 -0.0122359)
(0 0 0)
(0 0 0)
(0 0 0)
(0.04208 -0.0396622 0.0358932)
(-0.0850313 -0.0423539 0.0453734)
(0 0 0)
(0 0 0)
(0 0 0)
(-0.0212148 -0.0212689 -0.0763081)
(-0.138721 -0.00895807 -0.0245523)
(0 0 0)
(0 0 0)
(0 0 0)
(0 0 0)
(-0.0238655 -0.0323967 -0.1809)
(0.0344803 -0.0612395 -0.224053)
(0.016573 -0.086796 -0.214555)
(0 0 0)
(0 0 0)
(0.00135899 -0.0167048 -0.268346)
(0.0315832 -0.0208883 -0.256314)
(0.089965 -0.0479009 -0.263104)
(0 0 0)
(0 0 0)
(0 0 0)
(0 0 0)
(0 0 0)
(-0.132284 -0.0981531 0.151075)
(0 0 0)
(0 0 0)
(0 0 0)
(0 0 0)
(-0.0287608 -0.0201223 -0.0248778)
(0.202725 -0.075114 -0.0492446)
(0.0254381 -0.135368 -0.145239)
(0.00964699 -0.140374 -0.16014)
(0 0 0)
(0 0 0)
(0 0 0)
(-0.0118977 -0.0834471 -0.159002)
(0.0717129 -0.0804938 -0.195048)
(0 0 0)
(0 0 0)
(-0.00955029 -0.0181094 -0.193105)
(0.029692 -0.0223178 -0.196163)
(0 0 0)
(0 0 0)
(0 0 0)
(0 0 0)
(0 0 0)
(0 0 0)
(0 0 0)
(0 0 0)
(0 0 0)
(0 0 0)
(0 0 0)
(0 0 0)
(0 0 0)
(-0.012062 -0.158015 -0.077321)
(0 0 0)
(0 0 0)
(0 0 0)
(0 0 0)
(-0.0418639 -0.0750746 -0.112063)
(0 0 0)
(0 0 0)
(0 0 0)
(-0.0109089 -0.0246038 -0.139487)
(0.0281728 -0.0427572 -0.13587)
(0 0 0)
(0 0 0)
(0 0 0)
(0 0 0)
(0 0 0)
(0 0 0)
(0 0 0)
(0 0 0)
(0 0 0)
(0 0 0)
(0 0 0)
(0 0 0)
(0 0 0)
(0 0 0)
(0 0 0)
(0 0 0)
(0 0 0)
(0 0 0)
(-0.029485 -0.104169 -0.058266)
(0 0 0)
(0 0 0)
(0 0 0)
(-0.0588847 -0.0229573 -0.0943599)
(0 0 0)
(0 0 0)
(0 0 0)
(0 0 0)
(0 0 0)
(0 0 0)
(0 0 0)
(0 0 0)
(0 0 0)
(0 0 0)
(0 0 0)
(0 0 0)
(0 0 0)
(0 0 0)
(0 0 0)
(0 0 0)
(0 0 0)
(0 0 0)
(-0.0767614 -0.117927 -0.0280153)
(0 0 0)
(0 0 0)
(0 0 0)
(0 0 0)
(-0.00940681 -0.00790921 -0.0245863)
(0 0 0)
(0 0 0)
(0 0 0)
(0 0 0)
(0 0 0)
(0 0 0)
(0 0 0)
(0 0 0)
(0 0 0)
(0 0 0)
(0 0 0)
(0 0 0)
(0 0 0)
(0 0 0)
(0 0 0)
(0 0 0)
(0 0 0)
(0 0 0)
(0 0 0)
(0 0 0)
(0 0 0)
(0 0 0)
(0 0 0)
(0 0 0)
(0 0 0)
(0 0 0)
(0 0 0)
(0 0 0)
(0 0 0)
(0 0 0)
(0 0 0)
(0 0 0)
(0 0 0)
(0 0 0)
(0 0 0)
(0 0 0)
(0 0 0)
(0 0 0)
(0 0 0)
(0 0 0)
(0 0 0)
(0 0 0)
(0 0 0)
(0 0 0)
(0 0 0)
(0 0 0)
(0 0 0)
(0 0 0)
(0 0 0)
(0 0 0)
(0 0 0)
(0 0 0)
(0 0 0)
(0 0 0)
(0 0 0)
(0 0 0)
(0 0 0)
(0 0 0)
(0 0 0)
(0 0 0)
(0 0 0)
(0 0 0)
(0 0 0)
(0 0 0)
(0 0 0)
(0 0 0)
(0 0 0)
(0 0 0)
(0 0 0)
(0 0 0)
(0 0 0)
(0 0 0)
(0 0 0)
(0 0 0)
(0 0 0)
(0 0 0)
(0 0 0)
(0 0 0)
(0 0 0)
(0 0 0)
(0 0 0)
(0 0 0)
(0 0 0)
(0 0 0)
(0 0 0)
(0 0 0)
(0 0 0)
(0 0 0)
(0 0 0)
(0 0 0)
(0 0 0)
(0 0 0)
(0 0 0)
(0 0 0)
(0 0 0)
(0 0 0)
(0 0 0)
(0 0 0)
(0 0 0)
(0 0 0)
(0 0 0)
(0 0 0)
(0 0 0)
(0 0 0)
(0 0 0)
(0 0 0)
(0 0 0)
(0 0 0)
(0 0 0)
(0 0 0)
(0 0 0)
(0 0 0)
(0 0 0)
(0 0 0)
(0 0 0)
(0 0 0)
(0 0 0)
(0 0 0)
(0 0 0)
(0 0 0)
(0 0 0)
(0 0 0)
(0 0 0)
(0 0 0)
(0 0 0)
(0 0 0)
(0 0 0)
(0 0 0)
(0 0 0)
(0 0 0)
(0 0 0)
(0 0 0)
(0 0 0)
(0 0 0)
(0 0 0)
(0 0 0)
(0 0 0)
(0 0 0)
(0 0 0)
(0 0 0)
(0 0 0)
(0 0 0)
(0 0 0)
(0 0 0)
(0 0 0)
(0 0 0)
(0 0 0)
(0 0 0)
(0 0 0)
(0 0 0)
(0 0 0)
(0 0 0)
(0 0 0)
(0 0 0)
(0 0 0)
(0 0 0)
(0 0 0)
(0 0 0)
(0 0 0)
(0 0 0)
(0 0 0)
(0 0 0)
(0 0 0)
(0 0 0)
(0 0 0)
(0 0 0)
(0 0 0)
(0 0 0)
(0 0 0)
(0 0 0)
(0 0 0)
(0 0 0)
(0 0 0)
(0 0 0)
(0 0 0)
(0 0 0)
(0 0 0)
(0 0 0)
(0 0 0)
(0 0 0)
(0 0 0)
(0 0 0)
(0 0 0)
(0 0 0)
(0 0 0)
(0 0 0)
(0 0 0)
(0 0 0)
(0 0 0)
(0 0 0)
(0 0 0)
(0 0 0)
(0 0 0)
(0 0 0)
(0 0 0)
(0 0 0)
(0 0 0)
(0 0 0)
(0 0 0)
(0 0 0)
(0 0 0)
(0 0 0)
(0 0 0)
(0 0 0)
(0 0 0)
(0 0 0)
(0 0 0)
(0 0 0)
(0 0 0)
(0 0 0)
(0 0 0)
(0 0 0)
(0 0 0)
(0 0 0)
(0 0 0)
(0 0 0)
(0 0 0)
(0 0 0)
(0 0 0)
(0 0 0)
(0 0 0)
(0 0 0)
(0 0 0)
(0 0 0)
(0 0 0)
(0 0 0)
(0 0 0)
(0 0 0)
(0 0 0)
(0 0 0)
(0 0 0)
(0 0 0)
(0 0 0)
(0 0 0)
(0 0 0)
(0 0 0)
(0 0 0)
(0 0 0)
(0 0 0)
(0 0 0)
(0 0 0)
(0 0 0)
(0 0 0)
(0 0 0)
(0 0 0)
(0 0 0)
(0 0 0)
(0 0 0)
(0 0 0)
(0 0 0)
(0 0 0)
(0 0 0)
(0 0 0)
(0 0 0)
(0 0 0)
(0 0 0)
(0 0 0)
(0 0 0)
(0 0 0)
(0 0 0)
(0 0 0)
(0 0 0)
(0 0 0)
(0 0 0)
(0 0 0)
(0 0 0)
(0 0 0)
(0 0 0)
(0 0 0)
(0 0 0)
(0 0 0)
(0 0 0)
(0 0 0)
(0 0 0)
(0 0 0)
(0 0 0)
(0 0 0)
(0 0 0)
(0 0 0)
(0 0 0)
(0 0 0)
(0 0 0)
(0 0 0)
(0 0 0)
(0 0 0)
(0 0 0)
(0 0 0)
(0 0 0)
(0 0 0)
(0 0 0)
(0 0 0)
(0 0 0)
(0 0 0)
(0 0 0)
(0 0 0)
(0 0 0)
(0 0 0)
(0 0 0)
(0 0 0)
(0 0 0)
(0 0 0)
(0 0 0)
(0 0 0)
(0 0 0)
(0 0 0)
(0 0 0)
(0 0 0)
(0 0 0)
(0 0 0)
(0 0 0)
(0 0 0)
(0 0 0)
(0 0 0)
(0 0 0)
(0 0 0)
(0 0 0)
(0 0 0)
(0 0 0)
(0 0 0)
(0 0 0)
(0 0 0)
(0 0 0)
(0 0 0)
(0 0 0)
(0 0 0)
(0 0 0)
(0 0 0)
(0 0 0)
(0 0 0)
(0 0 0)
(0 0 0)
(0 0 0)
(0 0 0)
(0 0 0)
(0 0 0)
(0 0 0)
(0 0 0)
(0 0 0)
(0 0 0)
(0 0 0)
(0 0 0)
(0 0 0)
(0 0 0)
(0 0 0)
(0 0 0)
(0 0 0)
(0 0 0)
(0 0 0)
(0 0 0)
(0 0 0)
(0 0 0)
(0 0 0)
(0 0 0)
(0 0 0)
(0 0 0)
(0 0 0)
(0 0 0)
(0 0 0)
(0 0 0)
(0 0 0)
(0 0 0)
(0 0 0)
(0 0 0)
(0 0 0)
(0 0 0)
(0 0 0)
(0 0 0)
(0 0 0)
(0 0 0)
(0 0 0)
(0 0 0)
(0 0 0)
(0 0 0)
(0 0 0)
(0 0 0)
(0 0 0)
(0 0 0)
(0 0 0)
(0 0 0)
(0 0 0)
(0 0 0)
(0 0 0)
(0 0 0)
(0 0 0)
(0 0 0)
(0 0 0)
(0 0 0)
(0 0 0)
(0 0 0)
(0 0 0)
(0 0 0)
(0 0 0)
(0 0 0)
(0 0 0)
(0 0 0)
(0 0 0)
(0 0 0)
(0 0 0)
(0 0 0)
(0 0 0)
(0 0 0)
(0 0 0)
(0 0 0)
(0 0 0)
(0 0 0)
(0 0 0)
(0 0 0)
(0 0 0)
(0 0 0)
(0 0 0)
(0 0 0)
(0 0 0)
(0 0 0)
(0 0 0)
(0 0 0)
(0 0 0)
(0 0 0)
(0 0 0)
(0 0 0)
(0 0 0)
(0 0 0)
(0 0 0)
(0 0 0)
(0 0 0)
(0 0 0)
(0 0 0)
(0 0 0)
(0 0 0)
(0 0 0)
(0 0 0)
(0 0 0)
(0 0 0)
(0 0 0)
(0 0 0)
(0 0 0)
(0 0 0)
(0 0 0)
(0 0 0)
(0 0 0)
(0 0 0)
(0 0 0)
(0 0 0)
(0 0 0)
(0 0 0)
(0 0 0)
(0 0 0)
(0 0 0)
(0 0 0)
(0 0 0)
(0 0 0)
(0 0 0)
(0 0 0)
(0 0 0)
(0 0 0)
(0 0 0)
(0 0 0)
(0 0 0)
(0 0 0)
(0 0 0)
(0 0 0)
(0 0 0)
(0 0 0)
(0 0 0)
(0 0 0)
(0 0 0)
(0 0 0)
(0 0 0)
(0 0 0)
(0 0 0)
(0 0 0)
(0 0 0)
(0 0 0)
(0 0 0)
(0 0 0)
(0 0 0)
(0 0 0)
(0 0 0)
(0 0 0)
(0 0 0)
(0 0 0)
(0 0 0)
(0 0 0)
(0 0 0)
(0 0 0)
(0 0 0)
(0 0 0)
(0 0 0)
(0 0 0)
(0 0 0)
(0 0 0)
(0 0 0)
(0 0 0)
(0 0 0)
(0 0 0)
(0 0 0)
(0 0 0)
(0 0 0)
(0 0 0)
(0 0 0)
(0 0 0)
(0 0 0)
(0 0 0)
(0 0 0)
(0 0 0)
(0 0 0)
(0 0 0)
(0 0 0)
(0 0 0)
(0 0 0)
(0 0 0)
(0 0 0)
(0 0 0)
(0 0 0)
(0 0 0)
(0 0 0)
(0 0 0)
(0 0 0)
(0 0 0)
(0 0 0)
(0 0 0)
(0 0 0)
(0 0 0)
(0 0 0)
(0 0 0)
(0 0 0)
(0 0 0)
(0 0 0)
(0 0 0)
(0 0 0)
(0 0 0)
(0 0 0)
(0 0 0)
(0 0 0)
(0 0 0)
(0 0 0)
(0 0 0)
(0 0 0)
(0 0 0)
(0 0 0)
(0 0 0)
(0 0 0)
(0 0 0)
(0 0 0)
(0 0 0)
(0 0 0)
(0 0 0)
(0 0 0)
(0 0 0)
(0 0 0)
(0 0 0)
(0 0 0)
(0 0 0)
(0 0 0)
(0 0 0)
(0 0 0)
(0 0 0)
(0 0 0)
(0 0 0)
(0 0 0)
(0 0 0)
(0 0 0)
(0 0 0)
(0 0 0)
(0 0 0)
(0 0 0)
(0 0 0)
(0 0 0)
(0 0 0)
(0 0 0)
(0 0 0)
(0 0 0)
(0 0 0)
(0 0 0)
(0 0 0)
(0 0 0)
(0 0 0)
(0 0 0)
(0 0 0)
(0 0 0)
(0 0 0)
(0 0 0)
(0 0 0)
(0 0 0)
(0 0 0)
(0 0 0)
(0 0 0)
(0 0 0)
(0 0 0)
(0 0 0)
(0 0 0)
(0 0 0)
(0 0 0)
(0 0 0)
(0 0 0)
(0 0 0)
(0 0 0)
(0 0 0)
(0 0 0)
(0 0 0)
(0 0 0)
(0 0 0)
(0 0 0)
(0 0 0)
(0 0 0)
(0 0 0)
(0 0 0)
(0 0 0)
(0 0 0)
(0 0 0)
(0 0 0)
(0 0 0)
(0 0 0)
(0 0 0)
(0 0 0)
(0 0 0)
(0 0 0)
(0 0 0)
(0 0 0)
(0 0 0)
(0 0 0)
(0 0 0)
(0 0 0)
(0 0 0)
(0 0 0)
(0 0 0)
(0 0 0)
(0 0 0)
(0 0 0)
(0 0 0)
(0 0 0)
(0 0 0)
(0 0 0)
(0 0 0)
(0 0 0)
(0 0 0)
(0 0 0)
(0 0 0)
(0 0 0)
(0 0 0)
(0 0 0)
(0 0 0)
(0 0 0)
(0 0 0)
(0 0 0)
(0 0 0)
(0 0 0)
(0 0 0)
(0 0 0)
(0 0 0)
(0 0 0)
(0 0 0)
(0 0 0)
(0 0 0)
(0 0 0)
(0 0 0)
(0 0 0)
(0 0 0)
(0 0 0)
(0 0 0)
(0 0 0)
(0 0 0)
(0 0 0)
(0 0 0)
(0 0 0)
(0 0 0)
(0 0 0)
(0 0 0)
(0 0 0)
(0 0 0)
(0 0 0)
(0 0 0)
(0 0 0)
(0 0 0)
(0 0 0)
(0 0 0)
(0 0 0)
(0 0 0)
(0 0 0)
(0 0 0)
(0 0 0)
(0 0 0)
(0 0 0)
(0 0 0)
(0 0 0)
(0 0 0)
(0 0 0)
(0 0 0)
(0 0 0)
(0 0 0)
(0 0 0)
(0 0 0)
(0 0 0)
(0 0 0)
(0 0 0)
(0 0 0)
(0 0 0)
(0 0 0)
(0 0 0)
(0 0 0)
(0 0 0)
(0 0 0)
(0 0 0)
(0 0 0)
(0 0 0)
(0 0 0)
(0 0 0)
(0 0 0)
(0 0 0)
(0 0 0)
(0 0 0)
(0 0 0)
(0 0 0)
(0 0 0)
(0 0 0)
(0 0 0)
(0 0 0)
(0 0 0)
(0 0 0)
(0 0 0)
(0 0 0)
(0 0 0)
(0 0 0)
(0 0 0)
(0 0 0)
(0 0 0)
(0 0 0)
(0 0 0)
(0 0 0)
(0 0 0)
(0 0 0)
(0 0 0)
(0 0 0)
(0 0 0)
(0 0 0)
(0 0 0)
(0 0 0)
(0 0 0)
(0 0 0)
(0 0 0)
(0 0 0)
(0 0 0)
(0 0 0)
(0 0 0)
(0 0 0)
(0 0 0)
(0 0 0)
(0 0 0)
(0 0 0)
(0 0 0)
(0 0 0)
(0 0 0)
(0 0 0)
(0 0 0)
(0 0 0)
(0 0 0)
(0 0 0)
(0 0 0)
(0 0 0)
(0 0 0)
(0 0 0)
(0 0 0)
(0 0 0)
(0 0 0)
(0 0 0)
(0 0 0)
(0 0 0)
(0 0 0)
(0 0 0)
(0 0 0)
(0 0 0)
(0 0 0)
(0 0 0)
(0 0 0)
(0 0 0)
(0 0 0)
(0 0 0)
(0 0 0)
(0 0 0)
(0 0 0)
(0 0 0)
(0 0 0)
(0 0 0)
(0 0 0)
(0 0 0)
(0 0 0)
(0 0 0)
(0 0 0)
(0 0 0)
(0 0 0)
(0 0 0)
(0 0 0)
(0 0 0)
(0 0 0)
(0 0 0)
(0 0 0)
(0 0 0)
(0 0 0)
(0 0 0)
(0 0 0)
(0 0 0)
(0 0 0)
(0 0 0)
(0 0 0)
(0 0 0)
(0 0 0)
(0 0 0)
(0 0 0)
(0 0 0)
(0 0 0)
(0 0 0)
(0 0 0)
(0 0 0)
(0 0 0)
(0 0 0)
(0 0 0)
(0 0 0)
(0 0 0)
(0 0 0)
(0 0 0)
(0 0 0)
(0 0 0)
(0 0 0)
(0 0 0)
(0 0 0)
(0 0 0)
(0 0 0)
(0 0 0)
(0 0 0)
(0 0 0)
(0 0 0)
(0 0 0)
(0 0 0)
(0 0 0)
(0 0 0)
(0 0 0)
(0 0 0)
(0 0 0)
(0 0 0)
(0 0 0)
(0 0 0)
(0 0 0)
(0 0 0)
(0 0 0)
(0 0 0)
(0 0 0)
(0 0 0)
(0 0 0)
(0 0 0)
(0 0 0)
(0 0 0)
(0 0 0)
(0 0 0)
(0 0 0)
(0 0 0)
(0 0 0)
(0 0 0)
(0 0 0)
(0 0 0)
(0 0 0)
(0 0 0)
(0 0 0)
(0 0 0)
(0 0 0)
(0 0 0)
(0 0 0)
(0 0 0)
(0 0 0)
(0 0 0)
(0 0 0)
(0 0 0)
(0 0 0)
(0 0 0)
(0 0 0)
(0 0 0)
(0 0 0)
(0 0 0)
(0 0 0)
(0 0 0)
(0 0 0)
(0 0 0)
(0 0 0)
(0 0 0)
(0 0 0)
(0 0 0)
(0 0 0)
(0 0 0)
(0 0 0)
(0 0 0)
(0 0 0)
(0 0 0)
(0 0 0)
(0 0 0)
(0 0 0)
(0 0 0)
(0 0 0)
(0 0 0)
(0 0 0)
(0 0 0)
(0 0 0)
(0 0 0)
(0 0 0)
(0 0 0)
(0 0 0)
(0 0 0)
(0 0 0)
(0 0 0)
(0 0 0)
(0 0 0)
(0 0 0)
(0 0 0)
(0 0 0)
(0 0 0)
(0 0 0)
(0 0 0)
(0 0 0)
(0 0 0)
(0 0 0)
(0 0 0)
(0 0 0)
(0 0 0)
(0 0 0)
(0 0 0)
(0 0 0)
(0 0 0)
(0 0 0)
(0 0 0)
(0 0 0)
(0 0 0)
(0 0 0)
(0 0 0)
(0 0 0)
(0 0 0)
(0 0 0)
(0 0 0)
(0 0 0)
(0 0 0)
(0 0 0)
(0 0 0)
(0 0 0)
(0 0 0)
(0 0 0)
(0 0 0)
(0 0 0)
(0 0 0)
(0 0 0)
(0 0 0)
(0 0 0)
(0 0 0)
(0 0 0)
(0 0 0)
(0 0 0)
(0 0 0)
(0 0 0)
(0 0 0)
(0 0 0)
(0 0 0)
(0 0 0)
(0 0 0)
(0 0 0)
(0 0 0)
(0 0 0)
(0 0 0)
(0 0 0)
(0 0 0)
(0 0 0)
(0 0 0)
(0 0 0)
(0 0 0)
(0 0 0)
(0 0 0)
(0 0 0)
(0 0 0)
(0 0 0)
(0 0 0)
(0 0 0)
(0 0 0)
(0 0 0)
(0 0 0)
(0 0 0)
(0 0 0)
(0 0 0)
(0 0 0)
(0 0 0)
(0 0 0)
(0 0 0)
(0 0 0)
(0 0 0)
(0 0 0)
(0 0 0)
(0 0 0)
(0 0 0)
(0 0 0)
(0 0 0)
(0 0 0)
(0 0 0)
(0 0 0)
(0 0 0)
(0 0 0)
(0 0 0)
(0 0 0)
(0 0 0)
(0 0 0)
(0 0 0)
(0 0 0)
(0 0 0)
(0 0 0)
(0 0 0)
(0 0 0)
(0 0 0)
(0 0 0)
(0 0 0)
(0 0 0)
(0 0 0)
(0 0 0)
(0 0 0)
(0 0 0)
(0 0 0)
(0 0 0)
(0 0 0)
(0 0 0)
(0 0 0)
(0 0 0)
(0 0 0)
(0 0 0)
(0 0 0)
(0 0 0)
(0 0 0)
(0 0 0)
(0 0 0)
(0 0 0)
(0 0 0)
(0 0 0)
(0 0 0)
(0 0 0)
(0 0 0)
(0 0 0)
(0 0 0)
(0 0 0)
(0 0 0)
(0 0 0)
(0 0 0)
(0 0 0)
(0 0 0)
(0 0 0)
(0 0 0)
(0 0 0)
(0 0 0)
(0 0 0)
(0 0 0)
(0 0 0)
(0 0 0)
(0 0 0)
(0 0 0)
(0 0 0)
(0 0 0)
(0 0 0)
(0 0 0)
(0 0 0)
(0 0 0)
(0 0 0)
(0 0 0)
(0 0 0)
(0 0 0)
(0 0 0)
(0 0 0)
(0 0 0)
(0 0 0)
(0 0 0)
(0 0 0)
(0 0 0)
(0 0 0)
(0 0 0)
(0 0 0)
(0 0 0)
(0 0 0)
(0 0 0)
(0 0 0)
(0 0 0)
(0 0 0)
(0 0 0)
(0 0 0)
(0 0 0)
(0 0 0)
(0 0 0)
(0 0 0)
(0 0 0)
(0 0 0)
(0 0 0)
(0 0 0)
(0 0 0)
(0 0 0)
(0 0 0)
(0 0 0)
(0 0 0)
(0 0 0)
(0 0 0)
(0 0 0)
(0 0 0)
(0 0 0)
(0 0 0)
(0 0 0)
(0 0 0)
(0 0 0)
(0 0 0)
(0 0 0)
(0 0 0)
(0 0 0)
(0 0 0)
(0 0 0)
(0 0 0)
(0 0 0)
(0 0 0)
(0 0 0)
(0 0 0)
(0 0 0)
(0 0 0)
(0 0 0)
(0 0 0)
(0 0 0)
(0 0 0)
(0 0 0)
(0 0 0)
(0 0 0)
(0 0 0)
(0 0 0)
(0 0 0)
(0 0 0)
(0 0 0)
(0 0 0)
(0 0 0)
(0 0 0)
(0 0 0)
(0 0 0)
(0 0 0)
(0 0 0)
(0 0 0)
(0 0 0)
(0 0 0)
(0 0 0)
(0 0 0)
(0 0 0)
(0 0 0)
(0 0 0)
(0 0 0)
(0 0 0)
(0 0 0)
(0 0 0)
(0 0 0)
(0 0 0)
(0 0 0)
(0 0 0)
(0 0 0)
(0 0 0)
(0 0 0)
(0 0 0)
(0 0 0)
(0 0 0)
(0 0 0)
(0 0 0)
(0 0 0)
(0 0 0)
(0 0 0)
(0 0 0)
(0 0 0)
(0 0 0)
(0 0 0)
(0 0 0)
(0 0 0)
(0 0 0)
(0 0 0)
(0 0 0)
(0 0 0)
(0 0 0)
(0 0 0)
(0 0 0)
(0 0 0)
(0 0 0)
(0 0 0)
(0 0 0)
(0 0 0)
(0 0 0)
(0 0 0)
(0 0 0)
(0 0 0)
(0 0 0)
(0 0 0)
(0 0 0)
(0 0 0)
(0 0 0)
(0 0 0)
(0 0 0)
(0 0 0)
(0 0 0)
(0 0 0)
(0 0 0)
(0 0 0)
(0 0 0)
(0 0 0)
(0 0 0)
(0 0 0)
(0 0 0)
(0 0 0)
(0 0 0)
(0 0 0)
(0 0 0)
(0 0 0)
(0 0 0)
(0 0 0)
(0 0 0)
(0 0 0)
(0 0 0)
(0 0 0)
(0 0 0)
(0 0 0)
(0 0 0)
(0 0 0)
(0 0 0)
(0 0 0)
(0 0 0)
(0 0 0)
(0 0 0)
(0 0 0)
(0 0 0)
(0 0 0)
(0 0 0)
(0 0 0)
(0 0 0)
(0 0 0)
(0 0 0)
(0 0 0)
(0 0 0)
(0 0 0)
(0 0 0)
(0 0 0)
(0 0 0)
(0 0 0)
(0 0 0)
(0 0 0)
(0 0 0)
(0 0 0)
(0 0 0)
(0 0 0)
(0 0 0)
(0 0 0)
(0 0 0)
(0 0 0)
(0 0 0)
(0 0 0)
(0 0 0)
(0 0 0)
(0 0 0)
(0 0 0)
(0 0 0)
(0 0 0)
(0 0 0)
(0 0 0)
(0 0 0)
(0 0 0)
(0 0 0)
(0 0 0)
(0 0 0)
(0 0 0)
(0 0 0)
(0 0 0)
(0 0 0)
(0 0 0)
(0 0 0)
(0 0 0)
(0 0 0)
(0 0 0)
(0 0 0)
(0 0 0)
(0 0 0)
(0 0 0)
(0 0 0)
(0 0 0)
(0 0 0)
(0 0 0)
(0 0 0)
(0 0 0)
(0 0 0)
(0 0 0)
(0 0 0)
(0 0 0)
(0 0 0)
(0 0 0)
(0 0 0)
(0 0 0)
(0 0 0)
(0 0 0)
(0 0 0)
(0 0 0)
(0 0 0)
(0 0 0)
(0 0 0)
(0 0 0)
(0 0 0)
(0 0 0)
(0 0 0)
(0 0 0)
(0 0 0)
(0 0 0)
(0 0 0)
(0 0 0)
(0 0 0)
(0 0 0)
(0 0 0)
(0 0 0)
(0 0 0)
(0 0 0)
(0 0 0)
(0 0 0)
(0 0 0)
(0 0 0)
(0 0 0)
(0 0 0)
(0 0 0)
(0 0 0)
(0 0 0)
(0 0 0)
(0 0 0)
(0 0 0)
(0 0 0)
(0 0 0)
(0 0 0)
(0 0 0)
(0 0 0)
(0 0 0)
(0 0 0)
(0 0 0)
(0 0 0)
(0 0 0)
(0 0 0)
(0 0 0)
(0 0 0)
(0 0 0)
(0 0 0)
(0 0 0)
(0 0 0)
(0 0 0)
(0 0 0)
(0 0 0)
(0 0 0)
(0 0 0)
(0 0 0)
(0 0 0)
(0 0 0)
(0 0 0)
(0 0 0)
(0 0 0)
(0 0 0)
(0 0 0)
(0 0 0)
(0 0 0)
(0 0 0)
(0 0 0)
(0 0 0)
(0 0 0)
(0 0 0)
(0 0 0)
(0 0 0)
(0 0 0)
(0 0 0)
(0 0 0)
(0 0 0)
(0 0 0)
(0 0 0)
(0 0 0)
(0 0 0)
(0 0 0)
(0 0 0)
(0 0 0)
(0 0 0)
(0 0 0)
(0 0 0)
(0 0 0)
(0 0 0)
(0 0 0)
(0 0 0)
(0 0 0)
(0 0 0)
(0 0 0)
(0 0 0)
(0 0 0)
(0 0 0)
(0 0 0)
(0 0 0)
(0 0 0)
(0 0 0)
(0 0 0)
(0 0 0)
(0 0 0)
(0 0 0)
(0 0 0)
(0 0 0)
(0 0 0)
(0 0 0)
(0 0 0)
(0 0 0)
(0 0 0)
(0 0 0)
(0 0 0)
(0 0 0)
(0 0 0)
(0 0 0)
(0 0 0)
(0 0 0)
(0 0 0)
(0 0 0)
(0 0 0)
(0 0 0)
(0 0 0)
(0 0 0)
(0 0 0)
(0 0 0)
(0 0 0)
(0 0 0)
(0 0 0)
(0 0 0)
(0 0 0)
(0 0 0)
(0 0 0)
(0 0 0)
(0 0 0)
(0 0 0)
(0 0 0)
(0 0 0)
(0 0 0)
(0 0 0)
(0 0 0)
(0 0 0)
(0 0 0)
(0 0 0)
(0 0 0)
(0 0 0)
(0 0 0)
(0 0 0)
(0 0 0)
(0 0 0)
(0 0 0)
(0 0 0)
(0 0 0)
(0 0 0)
(0 0 0)
(0 0 0)
(0 0 0)
(0 0 0)
(0 0 0)
(0 0 0)
(0 0 0)
(0 0 0)
(0.0109882 0.00326351 -0.0170019)
(-0.0462445 0.0205197 -0.0198312)
(-0.066058 0.0314661 -0.0400103)
(-0.0945015 0.0146677 -0.0337818)
(-0.0420445 0.0106535 -0.0295201)
(-0.0830444 0.010624 -0.0406747)
(-0.0779893 0.0278001 -0.0239546)
(-0.0563015 0.0182747 -0.0353539)
(0.0440933 0.0184792 -0.0295835)
(0.0471396 -0.000547049 -0.0132266)
(0.0649521 -0.00278708 -0.0281168)
(0.12199 0.000780097 -0.0230702)
(0.186944 0.0214138 -0.0352515)
(0.0148986 0.000269563 -0.0490379)
(-0.152893 0.0508602 -0.0625413)
(0.105314 -0.00596389 -0.0247447)
(-0.133389 0.12852 -0.0712764)
(-0.114412 0.0738733 -0.0621912)
(-0.089289 0.0694439 -0.0235923)
(-0.125634 0.136447 -0.0681625)
(-0.111482 0.137057 -0.0386763)
(-0.0979145 0.0310273 -0.0230158)
(-0.0815392 -0.00349317 -0.0312193)
(-0.129564 0.104262 -0.0175939)
(-0.121023 0.0120365 -0.0464573)
(-0.0459243 0.0030342 -0.0516931)
(0.0523373 0.0374033 -0.0157336)
(0.0116134 0.0181186 -0.00442743)
(0.0439411 0.0637168 -0.00870632)
(0.142224 0.0370193 -0.0243659)
(0.225905 0.0515715 -0.0393867)
(0.127804 0.0687151 -0.016391)
(0.144167 0.0474562 -0.0231398)
(0.117838 0.0157573 -0.012938)
(0.0624459 0.0139467 -0.0275141)
(0.00721924 -0.00765692 -0.00478099)
(0.0625057 -0.103376 -0.0106644)
(-0.095501 0.137132 -0.0547998)
(-0.106313 0.171535 -0.03871)
(0.0923043 -0.155191 -0.0156769)
(0.0692058 -0.127967 -0.00334403)
(-0.160823 0.163481 -0.0302652)
(-0.140213 0.102872 -0.0729613)
(-0.0294387 0.0276229 -0.00357779)
(-0.118229 0.216995 -0.0382177)
(-0.0444484 0.0861802 -0.052091)
(-0.0347168 0.140331 -0.015702)
(-0.00570247 0.0163927 -0.0068453)
(0.0141533 0.0137077 -0.00730049)
(0.0330773 0.0601253 -0.00599945)
(0.0352479 0.0137761 -0.0065627)
(0.106857 0.077865 -0.00462164)
(0.0764024 0.0276477 -0.0026013)
(0.0845553 0.017463 -0.00400971)
(0.0586803 -0.128067 0.0107701)
(-0.0142303 -0.0704999 0.00549722)
(0.0158562 -0.102914 -0.00591978)
(0.000450911 -0.129633 0.0118625)
(0.0318193 -0.111214 -0.00102719)
(0.0812134 -0.15178 -0.0151876)
(0.0631319 -0.154168 -0.00810661)
(0.0793378 -0.137981 0.00120579)
(0.0709846 -0.143189 0.00539754)
(-0.00247866 -0.0744656 0.00811256)
(-0.0353461 0.0337818 0.0171253)
(0.0304223 -0.0898387 0.0137065)
(0.0198321 -0.0290181 0.010265)
(-0.0110396 0.0216945 0.00733282)
(-0.000707438 -0.00333731 -0.00142265)
(0.00803015 -0.0130137 0.0030802)
(-0.00901225 -0.0325564 -0.00631521)
(-0.00947189 -0.088997 -0.00424729)
(-0.0129837 -0.214843 -0.00450602)
(-0.00276145 -0.0663713 -0.0255691)
(-0.0327345 -0.144428 -0.0430389)
(-0.0115212 -0.23137 -0.0126599)
(0.05612 -0.221886 -0.00158519)
(-0.0157394 -0.20028 -0.0686327)
(0.0492833 -0.223081 -0.0481676)
(0.149684 -0.298989 -0.0247222)
(0.206201 -0.285514 -0.0170226)
(0.154165 -0.233037 -0.0677551)
(0.226679 -0.227238 -0.0560245)
(0.132844 -0.159651 0.0238719)
(0.0221158 -0.021896 0.00681548)
(0.171436 -0.143509 0.0128489)
(0.018861 -0.0178245 0.00586655)
(0.00483889 -0.00517491 -0.000328279)
(-0.0268169 -0.0578733 -0.0457734)
(-0.0332128 -0.101746 -0.112111)
(0.0250833 -0.103334 -0.0753155)
(0.038734 -0.0368535 -0.0907959)
(0.13679 -0.1128 -0.0749088)
(0.216161 -0.125977 -0.0674474)
(0.085388 -0.039656 -0.0798819)
(0.186042 -0.103121 -0.00963038)
(-0.0564415 0.0268391 0.0422245)
(-0.0762874 0.0589668 0.128976)
(-0.0581456 0.0159102 0.060083)
(-0.140485 0.0285871 0.0675974)
(-0.147197 -0.0127744 0.0935864)
(0.0129472 0.0191611 0.114412)
(-0.0958324 0.0442926 0.197808)
(-0.0466466 0.0443226 0.215664)
(-0.0801858 0.0205305 0.0863999)
(-0.0785211 0.00869239 -0.00906826)
(0.00393151 0.0137832 0.0902276)
(0.001073 0.0390847 0.159939)
(-0.0204388 -0.00471375 0.00146907)
(-0.0769921 -0.0230082 -0.0796746)
(-0.0790411 -0.0443636 -0.0657491)
(0.0347246 -0.00659531 -0.0608911)
(0.0179199 -0.00961123 -0.0530511)
(-0.00687823 0.020921 0.0684402)
(0.0774003 0.0276802 0.012906)
(0.149553 0.0305594 0.101234)
(-0.0362931 0.0685546 0.0544464)
(-0.0696762 0.0736544 0.164318)
(0.0278344 0.0546605 0.0404043)
(0.0857866 0.0513907 0.192768)
(-0.0943141 -0.059523 -0.0785223)
(-0.19329 0.00275453 0.00581854)
(-0.139279 -0.0760197 -0.104803)
(-0.134382 -0.105097 -0.0125206)
(-0.118352 -0.117324 -0.0980427)
(-0.172476 -0.125698 0.0534163)
(-0.128371 -0.167058 -0.136227)
(-0.0567952 -0.0567987 -0.126918)
(-0.067834 -0.115283 -0.183543)
(0.0648469 -0.000548003 0.00200747)
(0 0 0)
(0.0898953 0.0180214 0.052847)
(0.0713889 -0.0533839 0.0138655)
(0.0338656 -0.0957129 -0.0337971)
(0.123566 -0.0837621 0.0727082)
(-0.00789309 0.081474 -0.0486734)
(0.0141663 0.116965 0.00698038)
(-0.0729975 -0.153653 -0.233749)
(-0.036653 -0.0728578 -0.0345312)
(0.00540704 0.0377313 0.0213199)
(0.0815063 0.0360029 -0.0187452)
(0.0757773 0.0496851 -0.0497966)
(0.0174062 -0.0507352 -0.0429123)
(0.0881851 -0.0377367 0.0217577)
(0.0547375 0.00724343 -0.0379204)
(0.00239985 0.143747 0.0692425)
(0.0223956 -0.0808393 0.0670378)
(-0.0212557 0.117769 0.0915068)
(-0.0226925 0.117687 0.0615079)
(0.00203098 0.0694998 0.0968778)
(0.0335174 0.039209 -0.0833485)
(0.0324981 0.0242848 -0.0670297)
(0.0216059 -0.195058 -0.0129579)
(-0.00854842 -0.0367794 -0.0616134)
(-0.0118681 -0.136662 -0.0724597)
(0.052852 -0.00976263 -0.0389504)
(0.0678249 -0.105245 -0.0130686)
(-0.0057639 -0.0192102 -0.062708)
(0.0117695 -0.0839241 -0.0841393)
(0.19154 -0.171292 0.122035)
(0.253513 -0.192334 0.0103247)
(0.176908 -0.126355 0.0882619)
(0.208963 -0.225446 0.0632511)
(0.164629 -0.12554 0.0791494)
(0.0944155 -0.113725 0.0301641)
(0.0838524 -0.0656311 0.030027)
(0.0701605 -0.0479979 -0.0154938)
(-0.0203468 -0.058117 -0.119091)
(-0.000531092 -0.0282394 -0.13025)
(0.0855263 -0.0717377 -0.205597)
(0.0717448 -0.0219548 -0.205099)
(0.0327544 -0.03774 -0.197859)
(0.0660361 -0.0472116 -0.26369)
(0.047696 -0.00708314 -0.252591)
(0.173008 -0.123673 -0.129853)
(0.100282 -0.0489703 -0.204474)
(0.0713978 -0.0676791 -0.251522)
(0.0626774 -0.0699488 -0.0658547)
(0.055613 -0.0251405 -0.257666)
(0.0359155 -0.0496639 0.0127821)
(-0.036547 0.0389166 0.123481)
(0.00392726 0.00235295 0.0696964)
(0.0483784 -0.00661952 0.0974742)
(-0.00768875 0.0382871 0.209455)
(0.0408152 0.00382653 0.255141)
(0.050421 -0.0360744 0.0640307)
(0.0284278 -0.011776 0.1985)
(0.0553355 -0.0361898 0.27846)
(0.0394202 0.00559476 0.216352)
(-0.000256995 -0.0761236 0.0351502)
(0.00680868 -0.10111 -0.0810984)
(0.0210867 -0.0409778 0.275063)
(-0.0357721 -0.185619 -0.0685416)
(-0.0626405 -0.0919399 -0.1103)
(0.00628495 0.00428326 -0.380266)
(0.00679202 0.00982117 -0.0430333)
(-0.0235498 0.0152905 -0.106675)
(-0.119689 0.0982978 0.235865)
(-0.0415528 0.0799704 0.109239)
(-0.0586399 0.0836665 0.325512)
(-0.0797419 0.0618916 0.104988)
(-0.131978 0.0587265 0.300813)
(-0.146832 0.107164 0.258808)
(-0.187414 0.0842693 0.465864)
(-0.102231 -0.178811 -0.0761245)
(-0.114895 -0.24311 0.0588189)
(-0.0690503 -0.2224 -0.149146)
(-0.0729592 -0.397082 0.09611)
(0.0916214 -0.213898 -0.417392)
(-0.0547138 -0.307409 0.00968234)
(0.00893937 -0.264497 -0.188402)
(-0.0609823 -0.150332 -0.182247)
(-0.0426909 -0.174698 -0.165895)
(0.0783618 -0.0918093 0.0285167)
(0.0370029 -0.12471 -0.103255)
(0.131233 -0.173443 0.0351935)
(0.0257056 -0.0550088 -0.00722404)
(0.0257702 -0.136876 -0.184511)
(0.0702846 -0.215724 0.016331)
(-0.0907932 -0.178385 -0.146203)
(-0.0184696 -0.0201251 0.0751013)
(-0.0206925 -0.221783 -0.187886)
(-0.066374 -0.194334 -0.10456)
(-0.0384844 -0.0946174 0.0462364)
(0.0483001 -0.170909 -0.00838965)
(-0.00349718 -0.105687 -0.0411108)
(-0.00434107 -0.141085 -0.111233)
(0.0144182 -0.217761 -0.0435741)
(-0.0220665 -0.15253 -0.0925525)
(-0.0164068 0.0502892 0.0672737)
(-0.0143958 0.0725037 0.133443)
(-0.0232207 -0.00183615 0.12758)
(-0.0079733 -0.0308702 0.0568093)
(0.00968982 -0.0223503 0.191276)
(-0.0146118 -0.0530114 -0.0595249)
(-0.0350726 -0.0894225 -0.111175)
(0.0471538 -0.112902 -0.0260593)
(-0.0237866 -0.0386557 -0.0888708)
(-0.000643548 -0.0664537 -0.132652)
(-0.0130128 -0.106763 -0.101224)
(0.0242616 -0.140269 -0.0731396)
(-0.0277079 -0.0498174 -0.128343)
(-0.00626397 -0.0773275 -0.19063)
(0.0729437 0.0585625 0.144691)
(-0.0350261 -0.0338634 0.063316)
(0.00391119 0.0439452 0.0548398)
(0.0749129 0.028214 0.210808)
(0.0378278 0.0164958 0.140486)
(-0.0776212 0.034705 0.0951905)
(-0.0189783 0.00505169 0.0736078)
(0.0445065 -0.0830258 0.087254)
(-0.00630791 -0.0190275 -0.168541)
(-0.0106994 -0.0219838 -0.214364)
(0.0280877 -0.0443027 -0.297666)
(0.00931267 -0.00966406 -0.287674)
(-0.00434872 -0.0387264 -0.288249)
(-0.00324881 -0.0576981 -0.329401)
(-0.0283333 -0.0124688 -0.316733)
(-0.0551956 -0.0109244 0.0283799)
(0.0016368 -0.0104244 -0.264098)
(-0.0512178 -0.0420403 -0.194758)
(-0.115647 0.0200588 0.0622018)
(-0.0416346 -0.00610867 -0.257029)
(-0.111054 0.0561789 0.0425712)