/*--------------------------------*- C++ -*----------------------------------*\
| =========                 |                                                 |
| \\      /  F ield         | OpenFOAM: The Open Source CFD Toolbox           |
|  \\    /   O peration     | Version:  5.x                                   |
|   \\  /    A nd           | Web:      www.OpenFOAM.org                      |
|    \\/     M anipulation  |                                                 |
\*---------------------------------------------------------------------------*/
FoamFile
{
    version     2.0;
    format      ascii;
    class       volScalarField;
    location    "2";
    object      p;
}
// * * * * * * * * * * * * * * * * * * * * * * * * * * * * * * * * * * * * * //

dimensions      [0 2 -2 0 0 0 0];

internalField   nonuniform List<scalar> 
10571
(
161.223
173.387
165.278
153.998
163.475
169.619
163.926
166.465
156.042
158.76
155.28
167.873
163.805
158.328
149.78
148.269
173.414
184.981
173.664
156.675
165.154
160.446
177.923
173.302
116.967
135.243
123.867
115.28
116.871
158.47
147.972
125.033
121.226
117.37
154.061
146.544
147.615
130.947
116.911
126.21
141.622
142.497
132.835
125.553
129.093
144.889
144.208
143.021
99.1974
109.875
107.566
100.115
98.2791
100.467
94.1262
105.904
106.923
111.598
137.784
138.55
125.777
112.835
106.496
115.279
131.787
132.02
120.825
113.828
113.355
137.899
138.615
119.117
87.3476
73.5003
84.9743
88.0308
83.8374
62.2778
64.3185
92.3877
90.8532
103.665
80.5033
90.7558
74.7555
102.023
96.1024
98.6444
123.818
109.929
107.49
102.119
93.4712
122.326
120.56
103.55
72.9749
52.6338
63.9347
76.9563
71.7067
53.9607
53.6115
62.9607
74.0922
77.8655
54.882
51.5275
52.9921
64.2175
81.3194
70.6071
102.678
61.663
57.2547
87.5255
69.2064
87.4158
81.6642
73.8856
58.0399
51.4556
49.7854
69.1244
62.126
51.7716
51.444
47.1775
54.0842
53.6655
52.1637
51.3274
51.029
51.3315
47.6358
58.9651
54.3476
54.2625
49.7594
48.4536
49.2997
59.9341
57.5287
50.8348
49.9866
50.3871
49.1466
50.7292
50.0858
47.3639
50.4595
50.8446
50.8709
49.9858
48.0563
50.5653
50.7712
50.5093
50.5623
51.2002
50.6199
48.215
50.8203
50.8083
49.9516
50.2347
50.0945
50.001
50.0247
50.7291
50.3094
50.0197
50.0377
50.1643
50.374
49.9567
50.2025
49.8672
50.3954
50.4076
50.0659
50.1908
50.667
50.714
50.1483
50.1561
50.6046
50.241
49.5296
50.9299
50.854
49.8521
49.9813
49.6656
49.1385
50.4368
50.8034
49.9749
49.8857
49.7415
49.893
50.2327
49.9765
49.8952
49.969
50.1894
50.1262
49.7435
50.1377
50.2177
50.7325
49.9903
49.9268
50.2091
49.9185
50.1713
50.5306
50.8092
49.8086
49.905
49.7109
49.5565
49.902
49.802
49.7959
49.8032
49.8083
50.1293
49.9538
49.8207
49.6186
50.0487
50.0451
49.6875
49.7937
49.4872
49.9094
49.8399
49.9486
49.8264
49.8637
49.8853
49.7633
49.9584
49.7842
49.7978
49.6631
49.8089
49.8034
49.8468
49.6409
50.1234
49.958
49.5449
49.3587
50.0224
50.0344
49.7366
49.6452
49.4542
49.9095
49.8578
49.7851
49.8117
49.6379
49.5907
49.7374
49.7555
49.8082
49.7998
49.7781
49.8072
49.8102
49.8314
49.4632
50.1778
49.9676
49.294
49.3875
50.0415
50.0292
49.8135
49.6704
49.5653
49.9495
49.8902
49.7893
49.834
49.6452
49.5836
49.834
49.7065
49.8477
49.7485
49.7453
49.8201
49.8333
49.8087
49.7089
50.1581
50.0175
49.4856
49.6471
50.0702
49.9875
49.909
49.7135
49.5531
49.9956
49.982
49.8819
49.8644
49.7686
49.6958
49.9136
49.8756
49.8874
49.7532
49.7486
49.8949
49.8659
49.8107
50.3709
50.0761
50.07
50.022
49.8289
50.0557
49.9348
50.0062
49.7164
49.6192
50.0243
50.0161
49.9382
49.9363
49.8772
49.9285
49.9875
49.978
49.9369
49.8044
49.8293
49.952
49.9084
49.8369
50.8322
49.9901
49.9903
50.2263
50.2415
50.0206
49.8697
50.0757
49.7971
49.8448
50.0319
50.0157
49.9674
50.005
49.9678
50.0044
50.0472
50.0284
49.9878
49.8765
49.9256
50.0026
49.9495
49.8794
50.2857
49.8571
49.8551
50.0022
50.4075
49.9711
49.8448
50.0867
49.9012
50.1066
50.0322
50.0164
49.9803
50.0356
49.9954
49.8472
50.0732
50.0555
50.028
49.9499
49.9873
50.0429
50.0001
49.9381
50.1234
49.8494
49.8061
49.9733
50.2423
49.9653
49.8806
50.1069
49.9125
49.99
50.04
50.0228
50.0036
50.0538
49.9526
49.7572
50.0872
50.0696
50.0563
49.9716
49.9768
50.0724
50.0438
49.9898
49.9358
49.9545
49.8503
49.834
50.0527
50.0054
49.9379
50.1362
49.8663
49.8757
50.0595
50.0448
50.0319
50.046
49.9567
49.8857
50.1152
50.0837
50.0826
49.9857
50.0132
50.0975
50.0802
50.0327
49.8041
50.0404
49.927
49.6924
49.9223
50.063
49.9938
50.1186
49.9442
49.982
50.0924
50.0865
50.0624
50.0549
50.0225
50.0596
50.1524
50.1087
50.1169
50.0216
50.0532
50.1254
50.1136
50.0734
49.8729
50.1039
49.9716
49.7759
49.8856
50.1187
50.0487
50.1061
50.0196
50.1029
50.1365
50.1349
50.1048
50.0828
50.0641
50.1035
50.1811
50.1444
50.1333
50.0501
50.0802
50.1577
50.1431
50.1036
50.1192
50.151
50.0738
50.0158
49.9551
50.1571
50.1024
50.1457
50.0692
50.1602
50.1797
50.1736
50.1437
50.1082
50.0879
50.1503
50.1972
50.182
50.1411
50.0853
50.1249
50.1913
50.1731
50.1351
50.3112
50.181
50.2001
50.3338
49.9731
50.1861
50.1579
50.183
50.1445
50.1819
50.2135
50.203
50.1712
50.129
50.1125
50.1739
50.2202
50.22
50.1592
50.1361
50.1894
50.2234
50.2096
50.2025
50.2798
50.1959
50.2391
50.5405
50.1001
50.2101
50.1979
50.2153
50.1961
50.2121
50.2372
50.2255
50.1861
50.1458
50.1428
50.1871
50.2475
50.2492
50.196
50.202
50.2604
50.2495
50.2445
50.2721
50.2008
50.2116
50.1989
50.2451
50.1802
50.2323
50.2085
50.2434
50.2171
50.2386
50.2539
50.2428
50.1997
50.1634
50.2019
50.2141
50.2716
50.2607
50.2282
50.2488
50.3077
50.2672
50.2674
50.3065
50.1946
50.2393
50.2079
50.1224
50.173
50.2531
50.2162
50.2583
50.2357
50.2644
50.2683
50.2582
50.2192
50.1883
50.2667
50.2626
50.2888
50.265
50.2555
50.2616
50.3147
50.2805
50.284
50.3166
50.2432
50.2734
50.262
50.1921
50.1334
50.2704
50.2385
50.2878
50.2599
50.2842
50.283
50.2743
50.246
50.2395
50.2919
50.2755
50.3036
50.2741
50.2835
50.2972
50.3314
50.294
50.3026
50.331
50.2948
50.3003
50.3013
50.3214
50.1856
50.2876
50.2623
50.2961
50.2684
50.3234
50.2975
50.2909
50.2666
50.2813
50.2823
50.3627
50.3138
50.2865
50.3031
50.3383
50.3449
50.3087
50.3187
50.3498
50.3358
50.321
50.3133
50.2847
50.3445
50.3075
50.2834
50.288
50.2834
50.3387
50.3115
50.3053
50.2778
50.3109
50.2928
50.3375
50.322
50.2997
50.3127
50.3443
50.3404
50.3233
50.331
50.3534
50.3663
50.3383
50.3213
50.3165
50.4416
50.3297
50.3049
50.3275
50.3201
50.3483
50.3289
50.3217
50.2926
50.3456
50.3278
50.3246
50.3302
50.3126
50.3267
50.337
50.3391
50.3413
50.3392
50.3514
50.3731
50.3597
50.3365
50.3353
50.3984
50.354
50.3246
50.3784
50.3489
50.3684
50.3496
50.3404
50.318
50.3724
50.3618
50.338
50.3435
50.3239
50.3481
50.3459
50.3577
50.3571
50.3462
50.3625
50.375
50.384
50.3556
50.3431
50.3817
50.3763
50.3411
50.3637
50.3644
50.3848
50.3692
50.3602
50.3445
50.3802
50.3903
50.3782
50.3595
50.332
50.3616
50.4047
50.3917
50.3709
50.3552
50.3845
50.3812
50.4048
50.3795
50.3542
50.3749
50.3925
50.3574
50.3609
50.3805
50.3852
50.3868
50.3793
50.3656
50.3862
50.4152
50.4097
50.3758
50.3453
50.3701
50.4645
50.4182
50.3807
50.3712
50.4056
50.3843
50.4183
50.4035
50.3609
50.3655
50.4028
50.3915
50.3655
50.3977
50.3765
50.4006
50.3964
50.3836
50.3958
50.4316
50.4203
50.3911
50.3651
50.3757
50.4755
50.4292
50.3931
50.3875
50.4174
50.3843
50.4194
50.4047
50.3592
50.366
50.4082
50.4219
50.3845
50.3981
50.3826
50.4134
50.408
50.4007
50.4045
50.4388
50.4278
50.4032
50.3915
50.3872
50.4448
50.428
50.4079
50.4042
50.4204
50.3858
50.4124
50.3904
50.3455
50.3719
50.41
50.43
50.4038
50.3966
50.4004
50.4208
50.4136
50.4103
50.4134
50.4444
50.4313
50.4057
50.417
50.4043
50.4205
50.4284
50.4214
50.4148
50.4231
50.3943
50.4077
50.3802
50.3218
50.3574
50.411
50.4206
50.4112
50.4079
50.4223
50.4274
50.4188
50.4147
50.4188
50.4504
50.4325
50.4134
50.429
50.4184
50.4187
50.4344
50.4309
50.423
50.4281
50.4091
50.4092
50.3887
50.3302
50.3518
50.4128
50.4136
50.4128
50.4234
50.4453
50.4319
50.4234
50.4191
50.4187
50.448
50.434
50.4246
50.4203
50.4236
50.4223
50.4425
50.4316
50.427
50.4345
50.4253
50.4153
50.3976
50.3819
50.4192
50.4161
50.4106
50.42
50.4357
50.4726
50.4322
50.4224
50.4229
50.4213
50.4459
50.4461
50.4224
50.4038
50.4284
50.4263
50.4471
50.4263
50.4317
50.4379
50.4402
50.4236
50.4102
50.4154
50.5335
50.4199
50.4117
50.4332
50.4411
50.4525
50.4284
50.4174
50.4278
50.4241
50.4469
50.4615
50.407
50.3972
50.4279
50.4287
50.4501
50.4204
50.4287
50.4377
50.4364
50.4309
50.4193
50.4121
50.4992
50.4263
50.413
50.4397
50.4374
50.447
50.4238
50.4138
50.4308
50.419
50.4368
50.4627
50.3921
50.3894
50.4189
50.4249
50.4475
50.4156
50.4258
50.4332
50.4321
50.4397
50.4295
50.3969
50.4639
50.4398
50.4161
50.4369
50.4439
50.4739
50.4255
50.4194
50.4397
50.4179
50.4229
50.4646
50.3842
50.3853
50.4206
50.421
50.4436
50.4196
50.445
50.4344
50.4353
50.4509
50.4404
50.3873
50.4676
50.4425
50.4219
50.4329
50.4488
50.4696
50.4341
50.4297
50.4384
50.4262
50.4271
50.4614
50.3923
50.3977
50.4322
50.4247
50.4447
50.4246
50.4549
50.4399
50.4403
50.4627
50.4474
50.3972
50.4725
50.4455
50.4109
50.4357
50.4576
50.4737
50.4536
50.4403
50.4301
50.4382
50.4453
50.4587
50.4167
50.4088
50.4439
50.4467
50.4539
50.4352
50.4497
50.4528
50.4481
50.4842
50.4525
50.4064
50.473
50.4664
50.4415
50.4604
50.4729
50.4818
50.487
50.4577
50.4604
50.4595
50.4682
50.4648
50.4414
50.4313
50.4587
50.4744
50.4675
50.451
50.45
50.4708
50.4663
50.513
50.46
50.4241
50.4827
50.5073
50.4747
50.4834
50.4859
50.4908
50.5289
50.5394
50.4971
50.4822
50.4891
50.4762
50.4926
50.4705
50.4813
50.4989
50.4834
50.4763
50.4701
50.4925
50.4916
50.5266
50.4686
50.4493
50.5015
50.5144
50.4738
50.4955
50.4957
50.5003
50.5477
50.5427
50.5159
50.4973
50.5057
50.4873
50.5358
50.5192
50.5025
50.5146
50.4998
50.5037
50.4957
50.5111
50.5172
50.532
50.4831
50.4802
50.5233
50.5163
50.4728
50.5037
50.504
50.5075
50.5516
50.5352
50.5216
50.5092
50.522
50.4966
50.562
50.5238
50.5152
50.5251
50.5125
50.5173
50.5095
50.5246
50.5404
50.5214
50.496
50.5022
50.5413
50.5467
50.5038
50.5185
50.5185
50.5174
50.5339
50.4966
50.5225
50.5166
50.5366
50.5094
50.5389
50.5086
50.5165
50.5276
50.5222
50.5467
50.5128
50.5384
50.5521
50.497
50.4952
50.521
50.5464
50.5323
50.5089
50.5215
50.5297
50.5264
50.5536
50.5206
50.5348
50.5208
50.5388
50.5188
50.5452
50.5224
50.5197
50.5261
50.5254
50.5704
50.523
50.5475
50.5565
50.5107
50.5064
50.5285
50.5399
50.5294
50.5121
50.5194
50.5323
50.5284
50.6022
50.56
50.5411
50.5199
50.5322
50.5197
50.5572
50.5235
50.5157
50.5179
50.5201
50.5718
50.5337
50.5549
50.5429
50.5263
50.5165
50.5232
50.5274
50.5389
50.5111
50.5082
50.524
50.5237
50.5943
50.5464
50.5317
50.5089
50.5183
50.5128
50.5645
50.5121
50.4957
50.4971
50.5065
50.5528
50.5229
50.532
50.5242
50.5334
50.5237
50.5153
50.5139
50.54
50.5046
50.4956
50.5034
50.5101
50.5638
50.5361
50.5113
50.4963
50.4904
50.4975
50.5449
50.5047
50.4814
50.4752
50.4872
50.5276
50.4956
50.5072
50.5185
50.5341
50.5211
50.508
50.5
50.5434
50.5198
50.4864
50.4748
50.4865
50.5588
50.5412
50.5093
50.4835
50.4663
50.4738
50.5359
50.5025
50.4661
50.4591
50.4698
50.5013
50.4763
50.4819
50.5149
50.5405
50.5277
50.5032
50.4796
50.5524
50.5181
50.4776
50.4365
50.4502
50.5692
50.5553
50.5142
50.4725
50.4393
50.4391
50.5527
50.5196
50.4582
50.4523
50.4489
50.4955
50.4576
50.4958
50.5103
50.5578
50.5307
50.4966
50.4498
50.5721
50.5214
50.4603
50.3841
50.399
50.5929
50.5779
50.5194
50.4548
50.3869
50.388
50.5833
50.523
50.4554
50.4163
50.4037
50.5069
50.463
50.4691
50.5003
50.5933
50.5247
50.4841
50.4064
50.6052
50.5309
50.4322
50.3111
50.3202
50.6295
50.6123
50.5228
50.4298
50.3129
50.3174
50.6167
50.5326
50.434
50.3646
50.3432
50.5499
50.4462
50.3782
50.4834
50.6528
50.5232
50.467
50.3458
50.6576
50.5486
50.3941
50.2174
50.212
50.6805
50.6596
50.5309
50.3856
50.2089
50.2116
50.6531
50.5357
50.379
50.2942
50.2565
50.5529
50.4182
50.3195
50.461
50.7154
50.5674
50.4383
50.2629
50.7269
50.5902
50.3431
50.0647
50.0269
50.7486
50.7208
50.5444
50.3165
50.0594
50.0273
50.7028
50.5439
50.3203
50.2025
50.1307
50.5753
50.4054
50.2695
50.4391
50.7822
50.6402
50.4083
50.1496
50.8098
50.6374
50.2771
49.7986
49.7131
50.8385
50.8016
50.5761
50.2274
49.8103
49.6911
50.7792
50.5903
50.3073
50.0637
49.9213
50.651
50.4886
50.2267
50.4344
50.857
50.6951
50.3845
50.0007
50.9072
50.6967
50.1786
49.4015
49.1222
50.9571
50.9109
50.6239
50.0936
49.3983
48.9892
50.8896
50.6393
50.2769
49.8612
49.5402
50.7085
50.4972
50.1618
50.4842
50.9741
50.795
50.3914
49.8361
51.0425
50.7714
50.0373
48.8046
47.9006
51.1109
51.0516
50.698
49.9279
48.8065
47.3563
51.0313
50.7193
50.2209
49.5931
48.8672
50.7865
50.4715
50.0878
50.6169
51.1369
50.9653
50.461
49.6918
51.2249
50.8522
49.8403
48.0412
45.1198
51.3015
51.2262
50.7998
49.7345
48.036
43.3349
51.2024
50.8322
50.189
49.2797
47.5503
50.8972
50.4902
50.0424
50.8564
51.3381
51.1461
50.6188
49.7186
51.4463
50.9834
49.6016
47.3243
37.6463
51.513
51.4323
50.9162
49.5499
47.1887
38.3745
-24.28
51.3905
50.976
50.2001
48.9819
44.582
51.0557
50.5807
50.0939
51.1232
51.4736
51.2387
50.9184
50.0965
51.6088
51.0731
49.8077
47.2022
32.7791
-0.199758
51.7105
51.649
51.0029
49.7271
47.0547
37.7035
4.96099
51.5547
51.1121
50.3337
48.9061
40.4755
51.2168
50.7349
50.3117
51.3481
51.3981
51.1144
51.1206
50.9337
51.4905
51.0096
50.1511
48.2846
39.0841
11.8098
51.8019
51.668
51.0554
50.0534
48.1412
38.4068
13.2483
51.6239
51.2092
50.5882
49.4191
42.6895
14.3353
51.3458
50.9125
50.6677
51.4617
51.0949
50.6988
51.1612
51.2867
51.2261
50.7114
50.2418
49.4399
40.8596
12.2081
51.6564
51.4905
50.9812
50.3059
49.4368
40.8222
13.6254
51.5336
51.1734
50.9132
50.1217
46.0912
51.3884
51.0692
51.0473
51.6658
51.0823
50.6652
51.2471
51.1297
51.0789
50.6463
50.3962
49.8574
44.7172
51.389
51.1845
50.8174
50.4881
50.1202
44.2272
-5.87313
51.2399
50.9621
51.0552
50.8257
50.7085
51.2821
51.1429
51.2695
51.606
51.1551
50.8553
51.0753
50.8428
50.9983
50.4295
50.3596
50.1628
49.7692
51.1305
50.8889
50.4584
50.3192
50.2839
49.4105
50.7551
50.5492
50.8937
50.9788
51.3937
51.0213
51.0688
51.2696
51.3037
51.1543
50.7842
50.7815
50.8491
50.8839
50.1223
50.1072
50.2666
50.7151
50.9216
50.673
50.0371
50.0547
50.3937
50.597
50.3847
50.3091
50.7387
50.8754
51.3389
50.8069
50.9502
51.1567
51.2031
51.1217
50.7291
50.6993
50.9734
50.7632
50.0072
50.1077
50.5946
51.0664
50.8086
50.5517
49.8208
50.1003
50.6485
51.06
50.458
50.4647
50.76
50.9243
51.2741
50.7506
50.9163
51.1099
51.2658
51.1114
50.7749
50.7982
51.1445
50.7119
50.0688
50.3711
50.8635
51.2726
50.7264
50.4654
49.9142
50.4191
50.9575
51.2774
50.5058
50.6427
50.9251
51.0928
51.3384
50.8191
51.0179
51.199
51.3885
51.1858
50.9478
50.9811
51.2924
50.7649
50.2047
50.6074
51.0912
51.3853
50.6378
50.3642
50.0213
50.7115
51.1822
51.4144
50.3843
50.747
51.0709
51.2417
51.4257
50.9139
51.1517
51.2955
51.539
51.3698
51.2013
51.2002
51.4175
50.9537
50.4793
50.8792
51.2487
51.4689
50.6606
50.3711
50.3096
50.9464
51.3173
51.4884
50.0583
50.7823
51.2003
51.3411
51.4925
50.9979
51.2164
51.3575
51.6578
51.6177
51.4381
51.3681
51.5055
51.2774
50.9243
51.04
51.324
51.5317
50.9987
50.7169
50.6073
50.9361
51.3132
51.5578
50.4455
50.7973
51.186
51.4423
51.5561
51.1455
51.3023
51.4203
51.7219
51.7336
51.5318
51.4266
51.5418
51.4572
51.1058
51.1455
51.4019
51.5631
51.3634
50.9673
50.8139
51.1024
51.4357
51.5995
50.7628
50.9636
51.327
51.5224
51.6119
51.2565
51.3506
51.47
202.998
231.182
189.445
223.669
254.568
254.745
269.149
254.635
216.46
222.189
214.814
212.784
193.629
216.089
200.994
209.132
194.298
203.923
199.892
197.186
204.029
234.23
236.574
213.18
224.395
206.889
196.126
186.736
187.63
185.192
185.374
182.68
182.555
199.996
208.23
188.241
203.744
190.998
185.805
210.844
189.796
191.331
206.082
182.008
193.524
210.813
213.921
215.552
189.999
199.264
204.39
196.107
186.9
191.405
188.946
194.794
193.8
202.345
195.225
190.936
180.486
193.724
181.609
184.814
196.58
184.396
203.543
227.327
222.341
243.454
208.632
217.504
203.217
220.06
211.869
202.262
200.025
200.404
195.826
206.44
199.768
204.277
210.436
183.958
194.988
221.464
208.831
211.953
209.997
216.419
203.119
199.166
206.29
203.103
202.743
198.047
165.103
138.728
168.189
166.635
167.465
136.508
154.934
138.982
158.544
167.635
128.081
125.741
128.575
178.28
133.457
171.747
159.913
167.686
169.63
170.276
150.924
139.185
157.398
159.312
171.054
177.96
177.097
131.862
125.696
141.035
136.781
172.168
128.133
168.228
159.109
164.264
165.857
160.074
160.519
137.556
136.184
124.595
122.367
123.059
160.771
156.976
155.276
153.622
151.516
142.578
163.03
127.41
126.136
131.644
164.292
152.36
185.099
168.918
157.148
149.824
152.14
146.052
142.474
158.291
174.033
170.906
137.543
143.141
146.754
143.83
139.445
155.135
144.629
170.571
169.395
146.416
148.385
149.217
174.702
173.134
155.984
166.799
153.717
164.842
127.848
123.582
119.662
128.955
120.039
109.289
118.071
109.614
116.09
114.605
106.768
106.608
105.169
116.731
104.894
151.142
136.773
125.22
150.792
143.462
120.952
119.751
137.289
128.612
110.921
118.176
110.207
105.622
105.063
103.888
105.03
112.42
110.64
157.558
158.633
158.512
142.043
153.404
152.406
122.176
122.168
115.877
119.211
118.228
153.016
153.06
148.841
151.005
148.451
125.192
126.422
122.147
120.518
122.32
148.908
139.653
139.059
141.753
140.717
136.32
136.314
138.561
138.329
134.012
126.972
131.108
118.614
122.726
120.237
123.655
121.087
143.522
140.257
144.212
144.453
142.193
143.836
143.473
153.164
145.185
140.917
141.311
141.872
125.9
118.194
109.079
102.355
110.045
101.91
96.5056
99.0413
95.637
98.6792
99.3646
93.3208
92.7403
95.0442
97.6467
91.8739
111.121
79.1254
117.135
114.564
110.986
98.676
110.659
85.5602
85.5478
99.5261
96.7946
101.041
92.2611
94.4546
90.7259
95.1346
106.673
102.454
106.25
128.789
122.559
76.8594
90.65
85.3317
114.025
113.606
106.984
108.653
109.016
141.787
135.104
107.698
112.673
115.946
114.548
114.752
107.448
108.054
102.296
130.6
124.023
132.115
134.974
134.462
127.834
124.755
130.833
130.399
114.262
116.791
116.984
108.413
108.139
111.18
109.252
105.428
135.978
130.758
140.469
140.239
131.965
131.511
133.805
132.025
138.135
133.908
121.427
134.149
112.735
90.8753
66.728
90.8381
87.9759
90.8291
83.3671
76.4731
85.4502
86.8033
87.6044
80.5277
80.4936
77.8381
84.8263
77.4651
59.7562
54.6959
88.1728
61.4709
65.5718
54.1132
63.5054
54.0023
58.036
87.8333
84.5083
87.0804
77.1253
79.5929
78.6071
77.0775
96.3911
82.0667
64.2963
72.417
71.18
57.001
61.6249
62.0403
102.933
102.333
96.7483
95.4869
89.5953
86.4398
105.221
63.6606
65.6705
93.0472
96.743
86.3352
83.6002
80.2222
75.4723
118.446
111.142
117.872
123.509
126.852
118.885
113.256
114.95
122.907
98.897
102.058
98.0706
95.1839
83.7522
91.1502
84.2655
78.3755
122.982
111.27
119.34
121.022
107.77
113.374
110.44
111.495
121.093
105.111
95.1722
104.892
91.0886
51.9234
50.5089
71.0336
59.0195
74.5952
54.9937
50.4818
56.037
74.3478
70.3445
65.3191
69.1383
65.2483
70.7012
65.7593
53.5988
52.5478
53.0005
53.0608
54.3948
52.1074
50.5746
52.4646
52.0389
71.8846
73.1828
69.7586
67.2028
67.1845
68.9361
65.8579
67.3351
61.4864
53.5441
54.281
54.3785
52.4567
52.067
52.1736
77.6038
71.395
61.7087
61.3407
60.9162
54.3849
65.8315
52.2798
51.7716
50.915
70.1093
69.3426
62.6258
64.5914
65.4401
87.8404
54.351
89.8208
93.2288
105.133
56.8631
50.867
58.5599
59.6226
69.941
76.5934
70.2057
76.2671
61.5196
60.3972
58.9944
64.2156
86.8066
59.0529
98.9617
89.6442
62.0646
60.7383
56.8213
74.3928
81.0764
52.9566
52.3637
52.9245
52.9243
50.7203
50.5249
51.2759
50.3726
50.2267
50.664
50.5769
50.0477
62.2595
59.6594
51.6995
51.7934
52.866
61.1967
55.8947
51.7555
51.2437
50.5547
51.7673
51.1847
51.019
50.4413
51.2096
50.8801
63.8284
65.4738
63.9013
55.1175
57.0312
57.4745
59.5755
58.7041
54.4598
51.7045
51.4937
51.595
51.1929
51.0695
51.121
54.7288
52.8327
59.6044
51.0698
50.548
51.0765
50.7205
51.1966
53.269
51.5067
50.7688
50.7633
50.7555
50.8168
51.2856
50.2933
50.7956
50.8652
50.0457
64.4654
58.7745
59.7804
51.0602
50.9805
51.4845
49.4265
51.7335
53.6382
51.5157
50.8036
50.8397
50.7041
50.79
50.1799
50.3463
48.5196
50.3346
49.514
50.3401
50.0653
50.5625
50.727
55.9691
50.8038
53.1694
51.3465
52.1285
49.8545
51.0416
51.0384
50.3104
50.8495
50.0995
50.1804
50.1873
50.0445
50.1796
50.1449
50.0487
50.1337
50.1406
50.1796
50.2295
50.3475
50.2582
50.3307
50.364
50.2516
50.3136
50.242
50.2084
48.1699
49.5416
49.8786
49.6577
49.8096
51.576
50.3323
50.905
50.6561
50.1752
50.8674
50.558
50.501
50.0526
50.6051
50.3003
49.8153
49.1989
50.0293
49.1433
48.8151
48.4526
47.8847
49.998
49.9357
49.7019
50.8605
50.7751
50.7281
50.701
50.7348
50.846
50.6946
50.7429
50.6307
50.4362
50.4706
50.4383
50.9444
50.4185
50.6222
50.8507
50.8254
50.721
50.738
50.8027
50.7662
50.7465
50.7725
50.7822
50.7889
50.519
49.8687
50.2608
50.2857
49.8549
50.5414
50.7832
49.8763
50.8909
50.9352
50.4414
50.8554
50.7749
50.7545
50.7441
50.828
50.8116
50.7697
50.8129
49.9543
49.9324
49.9819
50.0311
50.3549
49.9273
49.803
49.9758
50.0594
49.9063
50.0287
50.2687
49.3368
49.3908
49.7006
49.869
50.1655
50.3353
51.017
50.7357
50.755
50.8177
50.4822
50.1204
50.081
50.0863
50.0905
49.9904
49.9913
50.0508
50.0308
49.9374
49.9345
49.9683
49.8264
50.2024
50.1529
50.2652
50.1943
50.1164
50.1774
50.1525
50.0971
50.1398
50.2572
50.0385
49.9722
50.1987
50.0868
49.9946
50.4714
50.3436
50.0271
50.4155
50.154
50.3001
50.015
50.3033
50.0523
49.8495
49.7805
49.554
50.1396
50.2268
50.1783
50.0503
50.6249
50.9859
50.6704
50.9416
50.6454
50.7205
50.7178
50.7827
50.4546
50.278
50.2999
50.3274
50.177
50.1874
50.5555
50.7244
50.6831
50.5008
50.4238
50.5888
50.6229
50.735
50.8064
50.7844
50.7206
50.7917
50.8064
50.7903
50.1617
49.8873
50.0654
50.052
49.9007
50.8861
50.2669
50.9791
50.851
50.733
50.2272
50.8477
50.7934
50.8528
50.8304
50.8377
50.8007
50.8739
50.8655
49.8793
49.8502
49.6955
49.8732
49.8955
49.8172
49.6878
49.8155
49.7606
49.5914
49.6105
49.7811
49.3617
49.75
49.7096
49.8168
50.844
50.1138
50.7613
50.8196
50.8564
50.858
49.9138
49.7721
49.9069
49.9187
49.8614
49.8453
49.8551
49.8474
49.8957
49.8274
49.8016
49.8341
49.759
50.1053
50.0634
50.1158
50.1016
50.0913
50.0798
50.0521
50.0684
49.8597
49.9721
49.8401
49.8471
49.8492
49.8696
49.71
50.2473
50.17
49.9949
50.2205
49.9722
50.171
49.971
50.1509
49.917
49.9696
49.9876
49.8298
49.7692
49.7393
49.775
49.6036
50.0514
49.4486
50.2237
50.0756
50.0794
50.1421
49.9909
49.9946
50.6462
50.352
50.5445
49.7902
50.4724
50.058
50.3612
50.7683
50.8008
50.7842
50.7246
50.7597
50.7291
50.7724
49.9702
49.8965
49.9322
49.9302
49.8865
50.5859
50.2976
51.0436
50.2073
50.3373
50.1251
50.6236
50.7956
50.8983
50.8674
50.7141
50.7748
50.8418
50.8579
49.8377
49.8259
49.7034
49.7808
49.7055
49.7926
49.7057
49.7649
49.689
49.8052
49.8353
49.9204
49.7087
49.8215
49.8971
49.9672
49.7126
49.7393
49.7318
49.8081
49.8177
49.7954
49.798
49.8104
49.8085
49.7965
49.7983
49.8212
49.7926
49.8346
50.0351
50.0176
50.0137
50.0105
50.0157
49.9212
49.9676
49.9439
49.8356
49.77
49.7465
49.7731
49.6819
49.6202
49.5586
50.1172
50.0848
49.963
50.1021
49.8809
50.1126
49.9804
50.0791
49.8617
49.6342
49.6669
49.5375
49.4941
49.6039
49.5727
49.5517
49.3372
49.4643
50.0918
49.9487
49.942
50.0571
49.9328
49.9165
49.7592
49.9528
49.4279
49.5461
49.1984
49.9054
49.8765
49.9051
49.8976
49.8804
49.9421
49.6013
49.609
49.2076
49.5402
49.8255
49.8313
49.7308
49.7602
49.6851
49.7327
49.7683
49.7609
49.7146
49.8276
49.8939
49.9345
49.8143
49.8357
49.8601
49.8866
49.745
49.7434
49.7723
49.8116
49.8177
49.835
49.8098
49.832
49.8274
49.7997
49.8049
49.8298
49.8053
49.8429
50.0258
50.0587
49.8194
49.9253
49.8479
49.6846
49.8878
49.6784
49.6625
49.5828
49.5295
49.5388
49.5035
49.5041
49.4649
50.0717
50.0783
50.0174
50.081
49.8878
50.1525
50.0769
50.1008
49.9556
49.5689
49.4566
49.5672
49.3115
49.5366
49.3766
49.5697
49.5435
49.5227
50.0399
49.9328
49.9122
50.04
49.947
49.923
49.5552
49.5048
49.5195
49.5651
49.5866
49.9008
49.8795
49.9255
49.9178
49.8898
49.5093
49.6393
49.5925
49.5978
49.6899
49.8347
49.8552
49.7145
49.7745
49.7427
49.7804
49.6698
49.8047
49.7639
49.8284
49.8298
49.8458
49.7771
49.8051
49.7982
49.8101
49.7662
49.7814
49.7895
49.7869
49.8247
49.7954
49.7897
49.8226
49.8308
49.8129
49.8196
49.8337
49.8221
49.8178
50.0918
50.1153
49.529
49.8651
49.4814
49.4196
49.8932
49.4034
49.4436
49.4517
49.5132
49.4647
49.501
49.4787
49.5454
50.0953
50.1089
50.1278
50.1263
50.0398
50.1808
50.1631
50.1412
50.1072
49.5208
49.4107
49.5598
49.5358
49.6094
49.4768
49.604
49.5257
49.545
50.0519
49.9707
49.9444
50.0658
49.9943
49.9678
49.5755
49.5823
49.5568
49.5716
49.5878
49.9428
49.908
49.9742
49.9676
49.9274
49.5823
49.6906
49.6061
49.6045
49.6901
49.8832
49.9118
49.6884
49.8364
49.797
49.8763
49.75
49.8666
49.8399
49.7702
49.7777
49.7866
49.7361
49.7509
49.7661
49.7731
49.7378
49.8119
49.8439
49.8168
49.8356
49.8584
49.8525
49.8585
49.8406
49.836
49.849
49.85
49.8531
49.8049
50.1338
50.1295
49.518
49.946
49.5406
49.7923
50.0391
49.7907
49.6733
49.6937
50.0019
49.9843
49.9937
49.6693
49.8225
50.1159
50.1177
50.1711
50.1337
50.1417
50.1246
50.1427
50.1082
50.1345
49.6965
49.544
49.6633
49.7022
49.7398
49.6209
49.715
49.5767
49.6209
50.0765
50.0131
49.9873
50.0828
50.0274
50.0032
49.5802
49.6123
49.5697
49.6168
49.6642
49.9884
49.9506
50.0125
50.0055
49.974
49.6861
49.7409
49.8165
49.7947
49.8272
49.9431
49.9738
49.8319
49.904
49.883
49.9503
49.8999
49.9428
49.9249
49.7544
49.7726
49.7757
49.7767
49.774
49.7839
49.7887
49.7816
49.88
49.9176
49.8884
49.8895
49.9244
49.9192
49.9195
49.8622
49.8719
49.8862
49.8766
49.8928
49.8211
50.1079
50.0951
50.2986
50.1302
50.1243
50.7657
50.1788
50.395
50.3617
50.3279
50.7481
50.6343
50.6217
49.9392
50.2629
50.1052
50.0883
50.0941
50.0739
50.074
50.036
50.067
50.0409
50.0099
49.8147
49.7404
49.8064
50.0385
49.922
49.8966
49.9195
49.7343
49.8745
50.0797
50.0371
50.0155
50.0612
50.0403
50.02
49.6963
49.7424
49.7095
49.795
49.8337
50.0176
49.9925
50.0303
50.0242
50.0062
49.9027
49.9235
50.0027
49.9867
49.9964
50.0024
50.0262
49.9491
49.9816
49.9676
50.0207
49.988
50.0133
50.0079
49.7961
49.7998
49.8098
49.8383
49.8169
49.8184
49.827
49.8779
49.9568
49.9924
49.9474
49.9471
49.978
49.9742
49.9731
49.8947
49.9145
49.9294
49.9115
49.9355
49.8567
50.1
50.0205
50.7286
50.1584
50.4038
50.4184
50.0784
50.2655
50.6126
50.627
50.5471
50.3499
50.5171
50.5399
50.6064
50.0544
50.0024
50.0512
50.0119
49.9491
49.9222
49.9478
49.9692
49.8693
50.0372
50.0201
50.0257
50.3438
50.1723
50.1415
50.1714
50.0117
50.1709
50.026
50.0402
50.0204
49.9929
50.0424
50.0252
49.894
49.9249
50.0089
49.9709
49.9643
50.0263
50.0161
50.0316
50.0253
50.0234
50.0107
50.0349
49.9425
49.97
50.0282
50.0439
50.0558
50.017
50.0367
50.0363
50.063
50.038
50.0511
50.0557
49.8379
49.8485
49.8553
49.9162
49.8711
49.8824
49.8869
49.9667
50.0217
50.0442
49.9994
49.9976
50.0259
50.0192
50.021
49.9346
49.9566
49.9746
49.9509
49.9786
49.906
49.874
49.8013
50.1997
49.9965
50.148
50.0879
49.9381
50.0709
50.1741
50.563
50.1936
50.1752
50.5507
50.6336
50.533
49.9632
49.9536
49.793
49.9334
49.8016
49.8261
49.7177
49.9205
49.7922
50.2875
50.1822
50.3165
50.3928
50.302
50.1033
50.3876
50.2997
50.3214
49.9893
50.0479
50.0345
50.0059
50.0542
50.0439
50.0063
49.9642
50.0813
49.9655
49.9207
50.0249
50.0302
50.0349
50.0267
50.0385
49.8888
49.9939
49.7821
49.8038
49.9596
50.0646
50.073
50.0582
50.0625
50.0698
50.0816
50.0791
50.07
50.0799
49.9038
49.9175
49.9231
49.9651
49.9254
49.9473
49.9635
49.9848
50.062
50.0764
50.0346
50.0359
50.0585
50.0474
50.0482
49.9716
50.0049
50.023
49.9914
50.0262
49.9659
49.8129
49.8642
50.0187
49.9123
50.0092
49.9702
49.9142
49.9678
50.1396
50.3819
50.0329
50.0418
50.2011
50.3435
50.1617
49.9679
49.9903
49.7352
49.9315
49.8381
49.8989
49.8148
49.9549
49.8982
50.248
50.0188
50.3987
50.1
50.2649
49.9435
50.2977
50.2473
50.0998
50.0266
50.0607
50.0521
50.0475
50.0683
50.0612
49.8735
49.8634
49.9009
49.8214
49.822
50.0312
50.049
50.0484
50.0399
50.062
49.7831
49.9622
49.798
49.8277
49.9861
50.0819
50.0936
50.0978
50.0779
50.0854
50.0987
50.115
50.0893
50.0911
49.9471
49.9712
50.0041
49.9763
49.9764
49.9975
50.0385
49.9822
50.0889
50.1003
50.0585
50.0606
50.0854
50.0696
50.0721
50.009
50.0476
50.0625
50.0248
50.0646
50.0119
49.9271
49.9869
49.9365
49.9268
49.9396
49.9257
49.9508
49.9363
49.9309
50.0646
49.8567
49.8448
49.9635
50.041
49.972
50.0155
50.0412
49.9033
49.977
49.9554
50.0017
49.9783
49.9987
50.0037
50.2236
49.8152
50.0952
49.9948
50.0997
49.7308
49.9312
49.997
49.9412
50.0678
50.0773
50.0721
50.0879
50.0878
50.0842
49.8128
49.832
49.9091
49.8583
49.8852
50.0514
50.0776
50.0742
50.0673
50.095
49.9188
50.027
49.989
50.0145
50.1157
50.1079
50.1242
50.1348
50.1026
50.1028
50.1336
50.1578
50.1159
50.1189
50.013
50.0199
50.068
50.0045
50.0458
50.0411
50.0923
50.0465
50.1137
50.1294
50.0813
50.0851
50.1112
50.0947
50.0982
50.0403
50.0828
50.0978
50.0573
50.0988
50.0538
50.0404
50.0808
49.9359
49.982
49.9515
49.9612
50.0158
49.9792
49.7803
49.9042
49.8069
49.7645
49.8871
49.929
49.9208
50.0666
50.0903
50.0415
50.0226
50.0417
50.0757
50.0885
50.0499
50.0724
50.0057
49.8149
49.8851
49.8742
49.9583
49.9956
49.9121
49.954
50.002
50.1076
50.1005
50.0977
50.1265
50.1156
50.1134
49.9351
49.9628
50.0499
50.0036
50.0292
50.0875
50.1136
50.1139
50.1109
50.1327
50.0834
50.1481
50.0797
50.1163
50.1
50.1412
50.1583
50.1856
50.1333
50.1365
50.1688
50.214
50.1503
50.1548
50.0679
50.0594
50.1113
50.0361
50.0854
50.0743
50.1238
50.0665
50.1471
50.1652
50.1078
50.1124
50.1415
50.1229
50.1272
50.0737
50.1151
50.1291
50.0901
50.1295
50.0898
50.1116
50.1344
49.9967
50.0523
50.0217
50.0548
50.0878
50.0748
49.8143
49.911
49.9842
49.9266
49.9571
49.9446
49.9909
50.1122
50.1332
50.1215
50.0754
50.0988
50.1291
50.1408
50.1041
50.1095
49.9673
50.1303
49.9692
49.9281
49.9937
50.2137
50.0231
50.0522
50.0961
50.1446
50.1315
50.13
50.1615
50.1472
50.1463
50.0617
50.0818
50.1407
50.1071
50.1209
50.1355
50.1529
50.1589
50.1593
50.1734
50.1417
50.0706
50.1334
50.1525
50.0759
50.1743
50.191
50.2393
50.1666
50.1692
50.1884
50.259
50.183
50.1841
50.1003
50.0887
50.1345
50.0687
50.1172
50.0989
50.147
50.1038
50.1825
50.1979
50.1396
50.1438
50.1746
50.1576
50.1612
50.1039
50.1443
50.1577
50.1181
50.1582
50.1167
50.1523
50.1653