/*--------------------------------*- C++ -*----------------------------------*\
| =========                 |                                                 |
| \\      /  F ield         | OpenFOAM: The Open Source CFD Toolbox           |
|  \\    /   O peration     | Version:  5.x                                   |
|   \\  /    A nd           | Web:      www.OpenFOAM.org                      |
|    \\/     M anipulation  |                                                 |
\*---------------------------------------------------------------------------*/
FoamFile
{
    version     2.0;
    format      ascii;
    class       surfaceScalarField;
    location    "2";
    object      phi;
}
// * * * * * * * * * * * * * * * * * * * * * * * * * * * * * * * * * * * * * //

dimensions      [0 3 -1 0 0 0 0];

internalField   nonuniform List<scalar> 
29271
(
-8.30081e-06
-3.52774e-07
3.90037e-06
4.90751e-06
-1.1948e-05
3.92215e-06
2.30071e-06
5.91492e-06
-3.98706e-05
-9.93518e-06
-5.08339e-06
5.63018e-06
6.62548e-06
4.26335e-05
-4.8681e-05
-5.04876e-06
-5.79608e-07
-1.76142e-07
2.16161e-06
5.23239e-05
-3.91215e-05
-4.65691e-06
-2.40319e-06
3.13909e-06
3.36262e-05
9.41632e-06
-5.40845e-05
-7.77632e-06
-5.05749e-06
6.34651e-06
8.85872e-06
5.17131e-05
-4.25929e-05
-3.94794e-06
-1.06355e-05
1.43622e-06
1.00471e-06
5.47355e-05
-5.69756e-05
-1.11054e-05
-1.76546e-06
1.57171e-06
9.90738e-06
5.83673e-05
-5.25149e-05
-1.65113e-05
2.03864e-06
-8.70664e-06
1.27311e-05
6.29631e-05
-3.43172e-05
-5.7467e-06
7.24801e-06
2.99945e-05
3.00125e-06
-1.27181e-05
-2.57003e-06
4.71239e-06
1.05973e-05
-3.96076e-05
-3.13228e-07
6.00977e-07
4.0032e-06
-2.06564e-06
3.73823e-05
-4.48894e-05
-1.50352e-06
-1.19454e-05
7.2273e-06
-4.43123e-06
5.55422e-05
-4.48274e-05
-1.04759e-06
-7.49034e-06
2.25521e-06
-9.94883e-06
6.1059e-05
-4.83719e-05
-2.76383e-07
7.45714e-07
-3.75415e-06
-2.85448e-06
5.45112e-05
-4.10246e-05
2.18329e-06
-2.60501e-06
-4.11085e-06
3.96156e-05
5.94153e-06
-3.27483e-05
1.79539e-06
4.77556e-07
-3.4758e-07
2.16345e-05
9.1884e-06
-5.04411e-05
-3.73124e-06
1.2426e-05
8.78032e-06
9.49977e-07
3.2016e-05
-4.25433e-05
2.0638e-05
-5.87308e-06
7.02353e-06
-1.42071e-05
3.49619e-05
-5.89809e-05
-7.19337e-06
-1.56196e-05
7.7109e-05
8.22442e-06
-3.53954e-06
-1.05752e-05
1.04351e-06
6.23195e-06
3.55045e-06
-2.53073e-05
8.42433e-07
-3.41759e-06
2.53831e-05
2.67113e-06
-4.94143e-05
1.76723e-06
3.9293e-06
-7.06098e-07
3.97927e-05
4.63114e-06
-1.97106e-05
4.53727e-06
-1.64908e-06
1.68605e-05
-2.2469e-06
-5.74062e-07
1.83744e-06
9.87362e-07
-5.56123e-06
1.06243e-05
-1.01376e-05
4.95981e-06
2.19256e-08
-7.99669e-06
-4.3552e-05
1.12039e-05
-1.59139e-05
5.62368e-05
-1.93719e-07
-7.26792e-05
-1.51431e-05
2.52717e-06
-6.61986e-06
9.21087e-05
-2.20491e-05
-2.10701e-07
5.88828e-06
2.80825e-07
1.12902e-05
4.80048e-06
6.38637e-06
3.5079e-07
-3.76233e-05
2.39103e-06
1.21567e-05
1.63384e-05
4.47707e-05
2.01704e-06
8.10913e-05
-5.16734e-05
-2.98946e-05
-3.75579e-05
-3.59359e-05
1.11605e-05
1.29001e-05
7.23767e-06
1.40887e-05
-6.37742e-06
-6.44536e-06
-2.50823e-06
-2.87331e-06
3.19305e-05
-1.84781e-05
0.000252916
-5.75979e-05
-6.14978e-05
-5.8833e-05
-7.54922e-05
6.10924e-06
3.07954e-06
1.13146e-05
1.13194e-05
4.43635e-06
-1.16651e-05
0.000256883
-1.72901e-07
1.92195e-06
3.71957e-06
1.35993e-05
-3.8367e-07
6.07796e-06
3.15273e-06
-5.84566e-05
-2.97645e-05
-8.2946e-05
-7.44716e-05
-2.98745e-05
6.81004e-06
-1.10541e-05
3.8534e-05
-5.87189e-06
-5.48654e-06
9.21653e-06
2.15067e-06
-1.77787e-05
-4.81478e-05
-1.90514e-05
2.56332e-06
6.86092e-06
7.55536e-05
6.46573e-05
1.00102e-05
0.00016732
-5.97695e-05
-6.0274e-05
-5.95681e-05
-4.07744e-05
-6.39291e-06
-8.04258e-06
-3.07738e-06
-2.07153e-06
5.02538e-05
-1.60674e-05
0.000270867
-6.37992e-05
-6.49621e-05
-5.35453e-05
-7.6568e-05
-3.63945e-06
-1.80682e-05
0.000369352
-2.4792e-06
6.19088e-07
-2.26926e-07
-1.04214e-05
-1.29119e-05
-7.25926e-06
-7.25605e-05
-7.7625e-05
-8.22318e-05
-4.39592e-05
-3.48368e-05
8.41794e-06
2.70332e-06
-3.342e-06
2.34181e-05
-2.05608e-05
-9.1426e-06
4.68137e-06
1.79015e-06
2.78378e-05
-4.6059e-06
1.27936e-05
-9.57663e-07
0.000156969
-1.14453e-06
-3.05217e-07
7.00327e-06
4.42555e-06
-7.57607e-07
-7.85985e-08
-2.71846e-07
-2.41138e-05
-3.62222e-05
-6.6784e-05
-4.05453e-05
7.93829e-07
-5.00107e-06
0.00010396
4.27578e-06
6.84113e-06
6.04937e-06
-5.65904e-06
-8.51291e-06
-2.95586e-06
-2.31806e-05
-3.99865e-05
-1.95577e-05
-2.03405e-05
-8.56891e-05
-3.10689e-06
-1.07704e-05
8.2292e-05
-8.08544e-07
1.65461e-06
-1.50245e-06
7.09321e-07
-2.8566e-05
3.38023e-06
-3.61464e-06
2.78461e-05
-4.23564e-05
4.99187e-06
-5.96795e-06
-1.75252e-06
4.00839e-05
-7.82919e-06
7.38783e-06
-2.07674e-06
2.5263e-06
-1.05023e-06
-1.39948e-06
9.45542e-07
1.4961e-06
-3.41116e-06
2.00266e-06
-8.42377e-07
2.10879e-06
4.61388e-06
-2.18163e-05
-7.16762e-05
2.25914e-05
-6.95108e-06
7.32384e-05
7.74728e-06
-0.000108542
-1.55694e-05
3.83218e-06
-8.49029e-06
0.000121022
-7.18008e-06
3.56447e-07
-9.06185e-07
-7.27077e-07
8.15315e-06
3.0375e-07
-9.87083e-07
-2.16838e-07
-9.38886e-06
-3.95287e-07
-2.11889e-06
1.3107e-05
-4.44373e-06
-8.6522e-06
8.31154e-05
-9.27776e-08
1.40978e-06
-1.54743e-07
5.88213e-07
1.10035e-06
7.51122e-07
3.3409e-06
4.12897e-06
2.36121e-06
-4.07258e-05
0.000235107
1.06775e-05
9.79116e-06
1.39187e-05
1.73427e-05
4.14594e-08
-2.72119e-05
0.000243852
5.94533e-06
1.21101e-05
1.50081e-05
1.42194e-05
-2.55429e-06
-1.33216e-07
-2.03313e-06
-4.44596e-05
1.28015e-05
-1.39678e-05
4.56158e-05
-7.41273e-07
3.13727e-07
-6.52366e-07
1.04479e-06
-4.31198e-06
-9.1413e-05
-2.26557e-06
3.28849e-06
2.19201e-05
7.2782e-05
3.92972e-05
-4.096e-06
0.000123414
-1.06194e-06
-1.1843e-06
1.00134e-06
1.29711e-06
5.12815e-05
-4.15109e-05
0.000259668
-4.11488e-07
-1.76328e-05
0.000438992
9.20212e-08
5.69659e-07
8.61609e-07
-7.24765e-06
-1.48754e-05
-6.92557e-06
-1.44555e-05
4.47873e-06
1.73539e-06
4.05882e-07
7.42397e-06
-4.19214e-05
-7.91052e-07
-2.11447e-07
-2.32521e-06
5.74338e-05
-1.21847e-05
2.82814e-05
-3.0202e-06
0.000124536
1.0497e-06
1.53735e-06
4.26759e-06
1.43397e-06
-3.29607e-06
-1.4495e-06
-4.67707e-07
9.17438e-06
-1.59749e-05
8.15765e-05
7.16262e-06
1.54389e-05
5.54733e-06
-4.34132e-06
-4.65927e-06
-3.19339e-06
-8.59052e-05
2.99629e-06
-1.14785e-05
8.5929e-05
-1.76259e-06
-3.9857e-07
-9.91909e-07
3.14058e-06
-2.94278e-05
3.57456e-06
-6.83113e-06
2.96423e-05
-3.31747e-05
-2.04913e-06
6.46482e-06
-2.93224e-06
1.57164e-05
-6.1823e-07
2.53075e-06
-2.39169e-06
4.22507e-07
-2.0309e-06
-1.43656e-06
8.8653e-07
2.59976e-06
-2.43408e-06
-2.31843e-06
2.32583e-06
2.45294e-06
-3.8106e-06
-3.54509e-06
-6.3296e-05
9.07914e-06
1.21975e-05
4.9375e-05
5.88966e-06
-0.000133616
-1.18051e-05
3.77187e-06
-3.55778e-06
0.000139318
-1.78086e-05
-4.0816e-07
-7.99864e-06
-4.52293e-06
3.1989e-05
-1.25076e-06
2.30358e-06
-3.19961e-06
-2.2627e-05
1.38598e-06
-1.36918e-05
3.58289e-05
-6.12069e-05
-1.72256e-05
0.00017199
-2.85226e-06
-8.2283e-06
-7.76858e-06
-7.53576e-06
5.79784e-06
-1.37398e-06
9.61806e-06
1.90062e-06
-1.82487e-05
-3.67338e-05
0.00017443
1.0307e-05
1.14126e-05
1.60385e-05
1.66946e-05
-9.39874e-06
-3.92827e-05
0.000232903
1.17936e-05
1.17066e-05
1.87298e-05
1.21749e-05
-7.26148e-06
-4.92194e-06
-8.39618e-07
-4.50564e-05
1.03438e-05
-8.07236e-06
3.33807e-05
-1.16905e-06
6.41605e-07
-1.71656e-06
2.30881e-06
1.26854e-06
-4.66519e-05
1.54377e-05
8.44417e-06
-7.07401e-06
2.85755e-05
-2.38784e-05
-3.40087e-05
0.00017078
-2.93137e-06
-4.16277e-06
1.42262e-06
-1.03232e-06
3.81639e-05
-1.13885e-05
0.000172281
5.20213e-06
-1.43912e-05
0.000430277
7.04751e-06
6.91781e-06
1.5093e-05
-3.41742e-06
-6.70929e-06
-2.14643e-06
-5.3449e-06
-1.90558e-06
5.38606e-07
2.83736e-06
9.07664e-06
-6.44472e-05
8.06166e-06
3.33233e-06
-3.18079e-06
5.28218e-05
3.41221e-06
5.51115e-06
-2.87504e-06
0.000121995
-7.26808e-06
-4.62231e-06
-7.69474e-06
-4.46286e-06
-3.59264e-06
-2.67025e-06
-3.79256e-06
1.0175e-05
-2.10242e-08
4.70416e-05
2.28653e-06
1.39674e-05
1.65464e-06
1.84514e-07
1.3136e-07
2.79122e-07
-8.9381e-05
7.48516e-06
-6.09982e-06
8.37795e-05
-4.82054e-06
1.99136e-06
-3.35462e-06
6.22809e-06
-2.83165e-05
-1.7464e-07
-4.57099e-07
2.60272e-05
-7.66554e-06
3.33362e-07
1.1043e-06
5.11452e-08
6.1557e-06
-5.90656e-07
4.75744e-07
-7.57376e-07
8.16494e-07
-2.94414e-06
1.04902e-07
-1.51946e-06
4.37939e-06
-4.64121e-06
-4.72075e-06
-4.45214e-06
1.38039e-05
-7.96454e-07
6.76981e-06
-3.23115e-05
-7.08571e-06
1.41698e-05
1.92541e-05
4.73831e-06
-0.000140659
3.59474e-06
4.93536e-06
-1.51625e-06
0.000128906
-5.14531e-05
3.42467e-06
-1.82326e-06
-1.04077e-05
6.73105e-05
-7.05112e-06
9.61077e-06
1.88573e-06
-4.53225e-05
-8.67086e-06
-7.4492e-06
4.9946e-05
-3.65315e-05
2.60084e-06
0.000227336
-1.43284e-05
-1.09734e-05
-1.32096e-05
-1.07624e-05
9.23651e-06
2.41431e-06
1.01172e-05
6.09042e-06
-9.31445e-06
1.55074e-06
0.000149474
-1.04614e-06
2.62854e-06
-2.61374e-06
-2.7803e-06
6.74552e-07
-2.73682e-05
0.00019496
1.28181e-05
8.17515e-06
1.36278e-05
1.10255e-05
1.50756e-06
5.30282e-06
2.86525e-06
-2.35353e-05
4.85842e-06
-1.79002e-07
1.95184e-05
-5.21578e-06
7.57087e-07
-1.05264e-06
5.52728e-06
-1.05122e-06
-3.64785e-05
1.05232e-05
1.934e-06
-2.08577e-05
4.59302e-05
-2.26899e-05
-1.84616e-05
0.000219519
2.97296e-07
-4.20784e-06
2.9224e-06
-3.99873e-06
1.14209e-05
4.05312e-06
0.000135667
9.4139e-06
-5.38922e-06
0.000338319
1.80155e-05
1.30853e-05
2.70685e-05
1.08915e-06
3.1816e-06
9.54577e-06
-1.4025e-05
-1.80604e-06
1.99103e-06
6.38565e-07
2.26153e-05
-3.26723e-05
1.72327e-06
1.82882e-06
4.53937e-07
1.88316e-05
9.83465e-06
2.48599e-06
-4.32765e-06
0.00012057
-3.74987e-06
-4.07488e-06
-4.45561e-07
-1.22269e-06
-3.04655e-06
-1.78352e-06
-8.72482e-07
3.53599e-06
-1.80343e-07
4.98221e-05
-2.43923e-07
7.09166e-07
-2.25818e-07
-1.87821e-07
1.41165e-07
2.10169e-07
-7.81038e-05
1.64079e-05
8.45841e-07
5.89968e-05
-1.01875e-05
-6.35642e-07
-5.86899e-06
1.66706e-05
-2.58499e-05
7.19187e-07
-3.92684e-06
2.47029e-05
-6.25741e-06
-9.59385e-07
6.71361e-07
8.832e-08
6.27677e-06
-1.13912e-06
-1.50395e-07
-1.6266e-07
1.43274e-06
-8.88909e-06
1.05641e-05
-1.83171e-05
1.6478e-05
-2.01918e-05
5.62036e-06
-9.27648e-06
2.38495e-05
-2.8884e-06
5.44283e-06
-1.74561e-05
-1.16201e-05
5.75611e-06
2.07657e-05
7.64851e-06
-0.000105806
9.80045e-06
2.80459e-06
1.13115e-05
7.42409e-05
-8.23061e-05
8.60198e-06
1.6767e-06
-1.2453e-05
9.57057e-05
-1.12253e-05
7.04395e-06
2.99675e-06
-5.43038e-05
-7.6274e-06
-5.3622e-06
5.72527e-05
-1.99314e-05
1.22165e-05
0.000251586
-1.02068e-05
-1.27919e-05
-8.38524e-06
-1.07363e-05
8.56451e-06
3.70172e-06
8.08973e-06
5.22946e-06
-1.84609e-05
1.92971e-05
0.00016808
-9.00242e-06
-9.59273e-06
-1.41309e-05
-6.64771e-06
2.71232e-06
-2.58186e-07
0.000160921
3.53521e-06
1.55095e-06
1.99213e-06
-1.34707e-06
-1.34079e-06
5.35489e-06
3.37874e-06
-1.91167e-05
-8.22991e-06
1.53548e-06
-6.10983e-07
2.91344e-05
-9.77542e-08
1.12428e-08
-4.34936e-08
1.29433e-07
-3.34616e-06
2.6656e-07
4.71911e-07
2.61412e-06
-2.54008e-06
-5.0522e-05
6.79274e-06
-2.97595e-09
-5.58611e-06
5.18584e-05
-2.10365e-05
-3.63853e-06
0.000264955
-3.1771e-07
-7.43127e-06
1.89326e-06
-2.68875e-06
-2.48423e-05
-7.92204e-06
0.000166692
3.65909e-07
2.26583e-06
0.000259002
1.30542e-05
5.97872e-06
1.122e-05
9.10698e-06
5.16175e-06
7.06295e-06
-4.2458e-05
2.34063e-06
-1.52637e-06
6.49943e-07
4.13597e-05
5.71438e-08
-5.43767e-07
9.47768e-08
-8.19161e-09
3.92356e-07
-1.3145e-05
-1.23942e-06
2.94349e-06
-1.39266e-06
9.59379e-06
3.23984e-06
-7.45041e-06
-9.27911e-07
0.000151095
-2.26106e-06
-1.67581e-06
-5.80024e-06
-5.22754e-06
-4.58866e-07
-5.17958e-06
-5.18186e-06
-2.98571e-06
-1.33108e-06
6.24004e-05
-1.87946e-06
-2.67856e-06
-6.25074e-06
-1.17386e-06
-5.56449e-06
-6.08685e-06
-4.46662e-05
6.36592e-06
5.05245e-06
3.2528e-05
-2.72412e-05
1.88838e-06
-2.3059e-06
2.7644e-05
-2.1448e-05
1.28654e-06
8.39173e-08
1.91273e-05
-6.67824e-06
-1.21326e-07
-3.17396e-07
-4.76915e-07
6.2628e-06
-2.23592e-06
-2.03791e-06
5.74447e-07
3.6543e-06
-2.08579e-05
4.41223e-06
-4.92553e-06
2.13712e-05
-2.63602e-05
7.99157e-06
-9.11298e-06
2.74816e-05
-1.33689e-06
-1.12071e-06
-2.34065e-05
-3.52277e-06
4.81014e-06
2.45767e-05
8.57569e-07
-4.99631e-05
3.05743e-07
1.25926e-06
4.81491e-06
4.27256e-05
-0.000100711
5.09865e-06
-2.26116e-07
-3.88304e-06
0.000100483
-7.60928e-07
5.87742e-06
2.97906e-06
-5.96055e-05
-6.50685e-06
-3.75115e-06
6.1007e-05
-7.9432e-06
1.34023e-05
0.000256661
-7.58811e-06
-9.53983e-06
-5.86808e-06
-5.64192e-06
5.9725e-06
2.07004e-06
6.04335e-06
4.01781e-06
-4.94152e-06
1.44614e-05
0.000172895
-1.18636e-05
-2.88406e-06
-5.64128e-06
-1.88923e-06
2.18259e-06
7.07476e-07
0.000164823
-4.55773e-07
-1.70663e-07
-1.07174e-07
-1.47275e-06
-2.14893e-07
-2.77878e-06
-6.53335e-06
-4.56411e-05
1.6299e-06
9.73487e-06
1.43656e-06
3.50223e-05
4.08902e-08
4.28257e-07
4.55995e-07
-6.71678e-07
-5.15515e-07
2.6205e-07
-2.74648e-06
1.52891e-07
6.32033e-08
2.53087e-06
-1.2e-06
-5.25216e-05
3.04727e-06
1.11084e-07
-1.56475e-06
5.2128e-05
-9.13679e-06
3.53358e-06
0.000285232
-3.03836e-07
-3.69232e-06
2.66208e-06
6.2845e-08
-1.34496e-06
-4.30626e-07
0.000173793
1.33998e-06
8.66027e-07
0.000240183
7.85285e-06
-1.08517e-06
4.29713e-06
4.88505e-06
-1.24333e-06
1.26892e-06
-4.9393e-05
2.89211e-06
2.7932e-06
-2.67086e-06
4.77185e-05
1.54217e-07
1.88982e-07
-1.24083e-07
-4.02537e-07
1.15319e-07
6.81018e-08
-5.67338e-06
-1.53974e-07
2.57175e-06
-1.37727e-06
3.81556e-06
8.17323e-07
-4.15658e-07
-2.81982e-06
0.000169888
-4.72165e-06
-2.67234e-06
-2.62052e-06
-3.38398e-07
-1.76039e-06
-3.49198e-07
4.38955e-07
-1.56872e-06
3.1533e-07
6.25448e-05
-4.83005e-06
-4.57206e-08
-2.23528e-06
1.9667e-06
2.37357e-06
3.03346e-06
-2.90503e-05
1.53568e-06
2.3972e-06
2.44147e-05
-2.14066e-05
-1.09336e-05
-4.28778e-06
5.55352e-06
3.10526e-05
-3.92998e-07
-8.11442e-08
-4.94209e-07
9.68509e-07
-1.4994e-05
-2.05314e-06
2.42467e-06
1.18031e-05
-1.89111e-06
-1.46649e-06
3.23495e-08
-4.68979e-07
4.10956e-06
-3.05757e-06
-9.17708e-07
5.02353e-07
3.47051e-06
-2.20442e-05
2.64401e-06
-2.78621e-06
2.21864e-05
-2.82753e-05
7.08276e-06
-7.83193e-06
2.90245e-05
7.08879e-07
-3.00763e-06
-2.39823e-05
-2.35327e-08
2.72661e-06
2.35779e-05
-2.53763e-07
-3.94443e-05
-1.07074e-06
1.96905e-06
3.27695e-06
3.55228e-05
-0.000100221
1.43839e-06
2.22552e-06
-7.15276e-07
0.000100576
-3.30305e-06
5.1513e-06
2.87563e-06
-6.17964e-05
-6.0572e-06
-2.46039e-06
6.2287e-05
-3.02069e-06
1.14979e-05
0.000244905
-4.79359e-06
-4.34985e-06
-3.59491e-06
-1.04157e-06
5.41729e-06
2.23383e-06
5.33209e-06
4.07516e-06
-6.52151e-06
7.607e-06
0.000177936
-4.34049e-06
-2.02411e-06
-1.98893e-06
-7.9282e-07
-2.75448e-06
2.84807e-06
0.00017622
-1.2539e-06
-1.54277e-06
-2.40864e-07
-1.55427e-06
-6.33751e-06
-1.25682e-06
-5.8263e-06
-3.46582e-05
-9.42128e-07
-3.92166e-07
-3.0605e-06
3.62986e-05
-1.12817e-07
5.56391e-07
1.48331e-06
-1.24474e-06
-1.41843e-06
7.36286e-07
-2.46004e-06
-3.61892e-07
5.1977e-08
2.76988e-06
-7.64779e-07
-5.27558e-05
1.2046e-06
-4.78084e-07
-5.50953e-08
5.28492e-05
6.19972e-07
7.50239e-06
0.000283135
8.50822e-07
-9.0208e-07
3.6116e-06
1.91147e-06
4.70152e-06
2.39158e-06
0.000174926
-4.22125e-06
-1.03806e-06
0.000253926
2.68931e-06
-6.41179e-06
7.9032e-07
1.54829e-06
-3.53146e-07
8.03495e-07
-4.29811e-05
4.70916e-06
-8.94229e-07
-9.31137e-07
3.5876e-05
-8.88045e-07
6.92792e-07
-4.898e-07
-1.04993e-06
-6.51435e-08
1.80013e-06
-2.78268e-06
-8.40386e-07
1.95237e-06
-1.02386e-06
2.55066e-06
1.43896e-07
4.78578e-06
6.42894e-07
0.000172121
-3.0325e-06
1.46499e-07
-1.67047e-06
8.13577e-07
7.32995e-07
1.4076e-06
1.4425e-06
-4.22366e-07
1.23015e-06
7.1034e-05
-1.78873e-06
-1.22444e-06
-2.65079e-06
1.50439e-06
7.21043e-07
1.31887e-06
-2.22234e-05
-1.47068e-06
-1.02592e-06
2.32596e-05
-3.31228e-05
-6.49939e-07
3.7135e-06
-2.98089e-07
3.03574e-05
-2.624e-06
-1.39705e-06
-1.23139e-06
1.80899e-06
3.44345e-06
-9.64918e-06
9.50101e-08
1.72912e-06
8.46919e-06
-7.48449e-06
-1.15911e-06
7.10565e-07
-1.87762e-07
9.35094e-06
-4.29816e-06
2.77689e-07
-7.20564e-07
4.74165e-06
-2.208e-05
1.88408e-06
-1.83262e-06
2.20285e-05
-2.95049e-05
5.80412e-06
-6.08227e-06
2.9783e-05
-1.48338e-07
-3.49954e-06
-2.3708e-05
1.03464e-06
3.04686e-06
2.32744e-05
-1.19185e-06
-3.39116e-05
-1.88656e-06
1.44997e-06
1.95195e-06
3.35881e-05
-9.90438e-05
2.46124e-06
1.8491e-06
-7.99468e-07
9.64623e-05
-9.29384e-07
3.97087e-06
3.09709e-06
-6.26025e-05
-5.37566e-06
-1.72384e-06
6.2634e-05
-2.19155e-06
1.08035e-05
0.000230308
-3.30409e-06
-9.80807e-07
-3.26844e-06
-3.2131e-07
4.3938e-06
1.74106e-06
4.30959e-06
3.41573e-06
-1.06958e-05
3.61821e-06
0.000182716
-1.23513e-06
4.4468e-08
-2.93593e-07
1.58973e-06
-1.97293e-06
1.05287e-06
0.00018775
-1.06756e-06
-9.13741e-07
7.75533e-08
-2.03485e-06
-5.73031e-06
-5.22367e-06
-6.41266e-06
-5.27004e-05
4.94624e-06
2.01818e-06
-2.58086e-06
4.63439e-05
-3.0891e-06
-5.44801e-07
4.48756e-07
1.71186e-06
1.47328e-06
-3.12002e-06
-5.93956e-07
2.80318e-07
3.42645e-06
-5.39314e-07
-5.32671e-05
6.1092e-07
-6.47468e-07
1.26572e-07
5.37164e-05
3.74414e-06
1.15573e-05
0.000272713
9.40888e-07
-4.04374e-07
3.60898e-06
1.77918e-06
4.20501e-07
1.58971e-06
0.000180279
-5.49604e-06
-1.18705e-07
0.000267651
-2.59012e-07
-5.55744e-06
-4.46601e-06
1.68266e-06
1.70965e-06
2.5303e-07
-2.99719e-05
2.86358e-06
-5.17836e-06
1.04818e-06
2.57425e-05
-2.92236e-06
9.32788e-09
2.82008e-06
-1.28314e-06
-2.05201e-06
3.4281e-06
-3.46808e-06
-2.08674e-06
1.17788e-06
-5.19397e-07
4.92018e-06
-2.38394e-08
5.33816e-06
1.95893e-06
0.000170686
-1.91461e-06
9.06742e-07
-7.53307e-07
1.11823e-06
1.98943e-06
2.01158e-06
2.33757e-06
-3.23979e-06
4.53658e-07
8.6398e-05
-2.58727e-06
-2.75333e-06
-2.53897e-06
1.3189e-06
2.20298e-07
6.90396e-07
-2.76873e-05
-6.01043e-06
-7.63161e-07
3.11024e-05
-2.30448e-05
-8.34885e-06
5.74157e-06
2.5652e-05
-8.07745e-06
1.15912e-06
5.20443e-07
8.35736e-06
-1.05253e-05
-8.61919e-07
8.43036e-07
-3.1704e-07
1.13149e-05
-4.91954e-06
3.56003e-07
-7.862e-07
5.34974e-06
-2.22302e-05
1.21993e-06
-1.64486e-06
2.26551e-05
-2.96838e-05
5.11383e-06
-4.72596e-06
2.92959e-05
-4.69583e-08
-3.93789e-06
-2.197e-05
2.94839e-06
3.08512e-06
1.99213e-05
-1.26237e-06
-3.403e-05
-4.06216e-06
2.92777e-06
1.32374e-06
3.5103e-05
-9.40165e-05
2.5526e-06
2.14512e-06
-1.54798e-06
9.17615e-05
-8.9468e-07
3.00052e-06
3.11247e-06
-6.2669e-05
-4.91044e-06
-1.12721e-06
6.25937e-05
2.51012e-08
9.1052e-06
0.000217957
-3.16106e-06
-1.39245e-06
-2.86516e-06
-7.42243e-07
3.6444e-06
1.17001e-06
3.60979e-06
2.95745e-06
-8.0593e-06
6.68325e-07
0.000185363
4.37711e-08
1.44583e-06
6.80302e-07
2.59933e-06
-5.64933e-06
-7.92598e-07
0.000203873
-5.2036e-07
-1.82862e-06
1.54633e-06
-8.62357e-07
-6.97116e-06
-3.55414e-06
-5.54994e-06
-4.51086e-05
-4.05896e-06
-1.52068e-06
4.50389e-05
-3.66331e-06
-8.82349e-07
8.34895e-07
3.7103e-06
-4.59024e-07
-5.4915e-05
-7.07637e-08
-1.14429e-06
6.66445e-07
5.59226e-05
5.67929e-06
9.94452e-06
0.000259304
1.13721e-06
1.06657e-07
3.40801e-06
2.23792e-06
1.03093e-06
2.12158e-06
0.000183474
-6.11255e-06
4.06021e-07
0.000284169
-5.76931e-06
-4.59021e-06
-3.50944e-06
2.6514e-07
1.97375e-06
1.05627e-06
-3.6444e-05
2.78149e-07
-5.73602e-06
2.13359e-06
3.36557e-05
-6.86811e-06
-2.27223e-06
5.27676e-07
-7.54527e-07
9.78309e-06
-4.15905e-07
7.78011e-06
2.34744e-06
0.000160306
-1.30162e-06
1.46901e-06
2.74586e-07
1.54444e-06
2.57447e-06
2.66744e-06
2.96868e-06
-3.66024e-06
2.49776e-07
0.000101632
-1.10672e-06
-2.08674e-06
-4.36288e-07
7.15041e-07
3.9064e-07
6.01791e-07
-3.62616e-05
-5.7966e-06
1.60757e-07
3.86432e-05
-2.5184e-05
-2.09664e-07
5.15691e-06
2.02368e-05
-8.74868e-06
1.33315e-06
2.00435e-07
9.56076e-06
-1.1794e-05
-5.7445e-07
7.8308e-07
-3.46959e-07
1.21821e-05
-5.87452e-06
3.34278e-07
-9.03422e-07
6.44366e-06
-2.33445e-05
1.51218e-07
-1.10739e-06
2.43007e-05
-2.86472e-05
4.38929e-06
-3.28207e-06
2.75399e-05
-3.39484e-07
-4.3689e-06
-1.75746e-05
4.17296e-06
2.94735e-06
1.51627e-05
-1.33142e-06
-3.6493e-05
-4.67229e-06
3.2807e-06
9.01257e-07
3.83148e-05
-9.02946e-05
2.17252e-06
1.04654e-06
-2.27138e-06
8.95149e-05
-1.67953e-07
2.07193e-06
3.15618e-06
-6.22316e-05
-4.16697e-06
-4.86974e-07
6.16574e-05
3.2544e-06
9.05889e-06
0.00020404
-2.71089e-06
-1.46353e-06
-2.48e-06
-9.38452e-07
2.91713e-06
8.3478e-07
2.86345e-06
2.58075e-06
-3.17757e-06
1.09858e-07
0.000184412
3.90748e-07
2.58649e-06
9.86956e-07
3.30926e-06
-1.62702e-06
-9.78116e-07
0.000207116
2.27444e-07
-6.85863e-07
2.25371e-06
-3.34144e-07
-2.72142e-06
-5.8957e-07
-1.9661e-06
-4.31172e-05
-6.16099e-07
4.0184e-07
4.17045e-05
-3.74863e-06
-1.24981e-06
1.11454e-06
3.88389e-06
-5.99463e-09
-5.67687e-05
-6.50955e-07
-1.19944e-06
1.55814e-06
5.7067e-05
7.46071e-06
9.17004e-06
0.000245309
8.63119e-07
3.0719e-07
2.90676e-06
2.34595e-06
4.93957e-06
3.79178e-06
0.000182313
-1.91228e-06
3.43203e-07
0.000291643
-2.07648e-06
-9.01499e-07
-1.48044e-06
5.80343e-07
1.55936e-06
3.75252e-07
-2.97342e-05
-1.26187e-06
-7.80235e-07
1.35658e-06
2.85074e-05
-1.3558e-05
-1.06824e-06
-9.7787e-07
-3.09622e-07
1.72057e-05
-1.29196e-06
6.67628e-06
1.78219e-06
0.000152178
-1.94916e-07
1.22814e-06
7.84795e-07
9.52299e-07
2.15064e-06
1.78587e-06
2.13233e-06
-2.7865e-06
5.82495e-07
0.000111424
5.79678e-07
-8.78901e-07
1.11483e-06
7.78443e-07
6.21501e-07
6.65263e-07
-4.30843e-05
-4.18978e-06
3.10558e-07
4.45202e-05
-1.89223e-05
-1.41544e-06
2.17334e-06
1.81644e-05
-1.05024e-05
9.23608e-07
4.55618e-07
1.09028e-05
-1.2757e-05
-5.24415e-07
8.34006e-07
-3.11246e-07
1.33411e-05
-6.79498e-06
8.35993e-07
-1.1674e-06
7.12638e-06
-2.50233e-05
-1.36352e-07
6.43598e-08
2.50953e-05
-2.59768e-05
2.92249e-06
-1.17846e-06
2.42327e-05
-1.67956e-06
-2.60362e-06
-1.30054e-05
2.5242e-06
3.17947e-06
1.15849e-05
-1.83148e-06
-4.04886e-05
-1.50942e-06
-2.60821e-07
1.49551e-06
4.25949e-05
-8.89725e-05
1.74182e-06
-5.31904e-07
-2.31416e-06
8.77309e-05
2.34579e-06
7.5756e-07
3.29958e-06
-6.10041e-05
-3.59434e-06
2.28214e-07
6.03131e-05
3.98405e-06
1.3781e-05
0.000192078
-3.36177e-06
-2.77759e-06
-3.57654e-06
-3.21099e-06
2.29411e-06
5.33445e-07
2.17235e-06
2.124e-06
-1.68458e-06
1.73274e-06
0.000185418
-1.19704e-07
1.50232e-06
2.03687e-07
1.3429e-06
-6.78827e-07
1.13263e-06
0.000209003
6.21572e-07
-8.4058e-07
2.02273e-06
-9.66656e-07
-1.80254e-06
-1.389e-06
-1.6712e-06
-4.05378e-05
-6.8864e-07
1.70454e-06
3.88431e-05
-4.10232e-06
-1.53226e-06
1.26804e-06
4.36654e-06
-3.05539e-07
-5.76156e-05
-1.14048e-06
-8.82772e-07
2.04702e-06
5.78973e-05
8.57227e-06
1.11198e-05
0.000234633
3.76322e-07
1.33867e-07
2.2491e-06
2.00609e-06
6.83236e-06
4.86713e-06
0.000180918
-4.05191e-08
5.13516e-07
0.000296351
-4.08652e-07
4.18112e-07
1.04021e-08
2.985e-07
2.14485e-06
3.21059e-07
-2.91331e-05
-1.70294e-06
-2.90121e-07
6.17813e-07
3.04678e-05
-1.99936e-05
-7.13696e-07
-6.10857e-07
5.78017e-07
2.23418e-05
-1.60165e-06
5.72463e-06
1.34961e-06
0.000152399
-1.8837e-07
5.32429e-07
3.92216e-07
-1.39043e-07
1.53569e-06
6.10278e-07
1.0812e-06
-1.92427e-06
6.39154e-07
0.000118102
1.44734e-06
1.53142e-07
1.61438e-06
7.77414e-07
5.66732e-07
6.39225e-07
-4.85878e-05
-2.90809e-06
3.97335e-07
4.96878e-05
-1.74908e-05
-5.7244e-07
1.2236e-06
1.68397e-05
-1.17123e-05
2.70342e-07
4.26162e-07
1.23654e-05
-1.38633e-05
-3.69854e-07
9.89093e-07
-3.29172e-07
1.42123e-05
-7.39469e-06
1.054e-06
-1.39769e-06
7.73838e-06
-2.46575e-05
7.24911e-07
1.8975e-07
2.37428e-05
-2.28375e-05
-2.34626e-07
9.20845e-07
2.21512e-05
-4.74521e-06
7.99404e-07
-1.1552e-05
-1.51042e-06
4.93917e-06
1.2069e-05
-2.63632e-06
-4.39169e-05
2.9629e-06
-3.83374e-06
3.96601e-06
4.34581e-05
-8.54338e-05
1.46568e-06
-1.12825e-07
-1.0219e-06
8.19036e-05
3.1992e-06
-5.28288e-07
3.12516e-06
-5.96034e-05
-2.90402e-06
1.01611e-06
5.88944e-05
2.40814e-06
1.72768e-05
0.000190353
-5.00095e-06
-6.45256e-06
-5.42057e-06
-6.93856e-06
1.78335e-06
4.82882e-07
1.56629e-06
2.0208e-06
-4.05679e-07
6.38746e-06
0.000191067
-2.30498e-06
-1.75878e-06
-3.48242e-06
-1.67635e-06
-1.19249e-06
4.29603e-06
0.000211659
-4.24952e-07
-1.79272e-06
8.41121e-07
-1.74621e-06
-1.44578e-06
-3.71053e-07
-1.22506e-06
-3.68416e-05
-1.9614e-06
2.43048e-06
3.518e-05
-4.61933e-06
-1.56625e-06
1.3433e-06
4.84228e-06
-4.8303e-07
-5.81207e-05
-1.44073e-06
-3.52554e-07
2.33404e-06
5.8063e-05
9.00134e-06
1.04388e-05
0.000229557
-1.43214e-07
-1.73249e-07
1.5956e-06
1.63331e-06
7.20115e-06
6.54276e-06
0.000182563
7.51896e-07
1.12528e-06
0.000298527
7.65342e-07
8.00104e-07
8.80925e-07
7.93884e-07
3.12205e-06
1.08162e-06
-3.17448e-05
-1.45565e-06
1.26546e-06
1.8143e-07
3.25055e-05
-2.41639e-05
-7.05066e-07
-2.39466e-07
1.05046e-06
2.57601e-05
-1.70205e-06
5.84123e-06
4.67754e-07
0.000155876
-7.07932e-07
-2.18877e-07
1.90603e-07
-4.61971e-07
9.02559e-07
1.49832e-07
7.98784e-07
-1.01944e-06
5.56275e-07
0.000124981
1.5767e-06
1.01868e-06
1.51502e-06
7.74518e-07
4.63084e-07
6.20269e-07
-5.36238e-05
-1.56131e-06
8.91318e-07
5.43996e-05
-1.60457e-05
-2.5477e-07
7.89477e-07
1.5511e-05
-1.24649e-05
2.56669e-07
2.82409e-07
1.23936e-05
-1.4507e-05
-4.84744e-07
1.04793e-06
-3.24954e-07
1.4825e-05
-8.03336e-06
9.84252e-07
-1.34607e-06
8.39517e-06
-2.24625e-05
2.3624e-06
2.59877e-07
1.98402e-05
-2.19423e-05
-1.38497e-06
1.46961e-06
2.18577e-05
-5.80596e-06
1.4526e-06
-1.27408e-05
-2.25365e-06
6.38214e-06
1.29656e-05
-7.83751e-06
-4.16326e-05
3.15854e-06
-3.56444e-06
1.12022e-05
3.86738e-05
-7.81082e-05
-1.49022e-06
2.08981e-06
1.83663e-06
7.33893e-05
2.28268e-06
-1.38145e-06
2.67555e-06
-5.81648e-05
-2.10919e-06
1.54215e-06
5.74377e-05
1.02882e-06
1.64654e-05
0.000196002
-5.81334e-06
-8.57012e-06
-5.52566e-06
-7.37982e-06
1.12372e-06
3.46395e-07
8.79716e-07
1.79534e-06
-5.94949e-07
1.52475e-05
0.000206154
-8.73547e-06
-5.76788e-06
-9.03065e-06
-5.17622e-06
9.0595e-07
6.88626e-06
0.000213276
-2.08107e-06
-2.90893e-06
-1.80346e-06
-3.83507e-06
-8.09657e-07
1.80793e-06
-3.74624e-07
-3.36583e-05
-3.8157e-06
6.33504e-06
3.20449e-05
-5.05616e-06
-1.4623e-06
1.25116e-06
5.26729e-06
-5.6773e-07
-5.81245e-05
-1.38749e-06
8.38176e-08
1.97715e-06
5.80188e-05
8.36678e-06
8.7237e-06
0.00022801
-7.19127e-07
-5.49115e-07
9.95567e-07
1.19516e-06
5.33548e-06
9.20731e-06
0.000191635
4.00182e-07
1.62865e-06
0.000300204
8.48254e-07
2.13161e-07
6.24535e-07
1.30648e-06
3.84354e-06
1.68005e-06
-3.28594e-05
-2.64555e-06
1.57118e-06
1.03163e-06
3.33023e-05
-2.70894e-05
-3.69217e-07
-2.68795e-07
1.26885e-06
2.79296e-05
-1.47107e-06
5.90378e-06
1.30778e-07
0.0001593
-1.06816e-06
-4.57536e-07
3.27533e-09
-5.79313e-07
6.39294e-07
8.02972e-08
6.47823e-07
-6.40978e-07
6.12638e-07
0.00013354
1.41645e-06
1.34631e-06
1.52679e-06
9.20308e-07
5.80781e-07
7.90347e-07
-5.83006e-05
-8.64343e-07
1.62675e-06
5.85259e-05
-1.54489e-05
-1.3223e-06
1.02496e-06
1.57463e-05
-1.23225e-05
2.39729e-07
-1.52101e-07
1.23656e-05
-1.50948e-05
-4.11096e-07
8.23152e-07
-1.60203e-07
1.54556e-05
-8.79232e-06
4.62733e-07
-1.00624e-06
9.33582e-06
-1.4561e-05
7.14407e-07
5.36629e-06
8.48026e-06
-2.19736e-05
-1.4573e-06
9.8953e-07
2.24413e-05
-4.20358e-06
-2.09605e-07
-1.22355e-05
4.76429e-07
5.27676e-06
1.08955e-05
-9.24545e-06
-3.56193e-05
6.38299e-07
-5.50892e-07
1.26978e-05
3.20796e-05
-6.91945e-05
-6.79386e-06
5.29138e-06
5.9053e-06
6.59328e-05
-1.14116e-06
-1.61083e-06
2.26651e-06
-5.67005e-05
-1.58094e-06
1.59588e-06
5.60299e-05
-4.32346e-07
1.31457e-05
0.000202851
-4.82241e-06
-7.07858e-06
-4.2314e-06
-5.30994e-06
4.00122e-07
-9.15566e-09
2.22196e-07
1.26692e-06
-2.62044e-06
1.94124e-05
0.000220538
-1.05517e-05
-7.51447e-06
-7.80776e-06
-5.73467e-06
2.0362e-06
1.30122e-05
0.00021623
-5.50403e-06
-5.52787e-06
-4.90924e-06
-6.32409e-06
-8.40275e-09
1.54846e-06
1.02654e-07
-3.03107e-05
-7.2027e-06
1.13745e-05
2.81751e-05
-5.47466e-06
-1.33468e-06
1.13379e-06
5.67555e-06
-5.16566e-07
-5.80907e-05
-9.95234e-07
2.83887e-07
1.28726e-06
5.80314e-05
6.30664e-06
6.09833e-06
0.000229212
-1.09267e-06
-8.77635e-07
6.46003e-07
8.62795e-07
2.59213e-06
1.12087e-05
0.000203553
-6.70298e-08
2.30759e-06
0.00030286
4.50869e-07
1.85521e-07
6.29292e-07
2.16246e-06
4.64031e-06
2.63913e-06
-3.48643e-05
-6.08314e-06
-2.13782e-07
3.30472e-06
3.77895e-05
-2.83987e-05
-9.70415e-09
-2.73194e-07
1.08516e-06
2.84232e-05
-8.26767e-07
4.95434e-06
8.80635e-08
0.000161898
-1.23581e-06
-4.97648e-07
-6.93414e-08
-6.07469e-07
4.28493e-07
2.89667e-08
4.10032e-07
-5.28178e-07
8.28465e-07
0.000142094
1.33339e-06
1.50674e-06
1.34049e-06
1.17892e-06
8.09985e-07
1.139e-06
-6.22007e-05
-5.57975e-07
2.43998e-06
6.20981e-05
-1.62147e-05
-2.18738e-06
1.6971e-06
1.6705e-05
-1.25453e-05
3.76569e-07
-5.86748e-07
1.28436e-05
-1.58893e-05
-1.6279e-08
5.16257e-09
1.5133e-07
1.65775e-05
-1.00059e-05
-5.1748e-07
-2.11111e-07
1.07345e-05
-4.78923e-06
1.82733e-07
1.18339e-06
3.42311e-06
-2.30332e-05
4.32426e-08
-3.95095e-07
2.3385e-05
-2.1574e-06
-3.81892e-07
-9.45436e-06
7.68073e-07
2.76549e-06
8.46009e-06
-5.00168e-06
-2.93836e-05
1.39886e-06
-4.08916e-06
9.06742e-06
2.80082e-05
-6.08224e-05
-6.0697e-06
6.60447e-06
9.10897e-06
5.11281e-05
5.05627e-08
-1.30528e-06
2.30951e-06
-5.5194e-05
-1.41144e-06
1.31897e-06
5.42822e-05
-1.42865e-06
6.42455e-06
0.000210509
-3.01823e-06
-4.51645e-06
-2.52245e-06
-2.69634e-06
-4.16815e-08
-5.22403e-07
-8.13765e-08
7.45463e-07
-3.14088e-06
1.79697e-05
0.000230678
-7.94285e-06
-7.30399e-06
-5.51115e-06
-5.6399e-06
9.30781e-07
1.84496e-05
0.000222716
-7.911e-06
-7.79664e-06
-6.48699e-06
-7.4229e-06
2.61642e-07
8.37932e-09
3.4019e-07
-2.632e-05
-9.75043e-06
1.20031e-05
2.49981e-05
-5.86065e-06
-1.19715e-06
1.03985e-06
6.01795e-06
-3.55031e-07
-5.8158e-05
-7.76025e-07
3.3213e-07
8.18292e-07
5.81386e-05
5.23162e-06
1.92663e-06
0.000229841
-1.34805e-06
-1.09436e-06
4.04461e-07
6.74664e-07
3.19737e-06
1.07435e-05
0.000212813
9.78339e-07
2.82977e-06
0.000304516
1.23364e-06
1.91563e-06
1.62079e-06
2.95348e-06
5.13677e-06
3.32252e-06
-4.24235e-05
-6.68667e-06
-1.00638e-06
2.6636e-06
4.84313e-05
-2.83809e-05
-7.5335e-09
-2.11145e-07
8.69332e-07
2.82064e-05
-4.76224e-07
3.2044e-06
-1.52006e-08
0.000163032
-1.34532e-06
-4.68382e-07
-6.59182e-08
-5.96609e-07
1.2677e-07
-1.35165e-07
8.86583e-08
-4.86565e-07
9.29682e-07
0.000148948
8.3974e-07
1.63748e-06
7.21241e-07
1.32613e-06