/*--------------------------------*- C++ -*----------------------------------*\
| =========                 |                                                 |
| \\      /  F ield         | OpenFOAM: The Open Source CFD Toolbox           |
|  \\    /   O peration     | Version:  5.x                                   |
|   \\  /    A nd           | Web:      www.OpenFOAM.org                      |
|    \\/     M anipulation  |                                                 |
\*---------------------------------------------------------------------------*/
FoamFile
{
    version     2.0;
    format      ascii;
    class       volVectorField;
    location    "2";
    object      U;
}
// * * * * * * * * * * * * * * * * * * * * * * * * * * * * * * * * * * * * * //

dimensions      [0 1 -1 0 0 0 0];

internalField   nonuniform List<vector> 
10571
(
(0.163185 0.655771 1.55126)
(0.157636 0.0659622 0.948823)
(0.269611 0.145486 3.26763)
(0.111065 0.176394 1.9595)
(-0.405048 0.286136 1.9464)
(0.0594961 0.713933 3.26821)
(0.22149 -0.0786515 3.90287)
(0.311185 0.849161 3.78655)
(-0.289253 1.41297 3.77399)
(-0.0798518 0.511737 2.07158)
(0.705969 0.381021 3.0709)
(-0.0293935 0.0665228 1.9766)
(0.633994 0.0583403 3.95615)
(0.457503 -0.254337 4.69827)
(-0.121037 -0.15742 2.41146)
(-0.123822 -0.421153 2.03796)
(-0.145351 -0.183002 1.2069)
(0.368997 -0.137496 2.17244)
(0.596992 -1.06047 4.05491)
(0.113723 -0.98368 3.52724)
(-0.260144 -0.00230173 1.02034)
(-0.240158 -0.175954 1.49828)
(-0.0445811 0.0556618 2.13213)
(0.188469 -0.189921 3.41948)
(0.0894589 0.0523619 0.232425)
(0.362698 -0.533021 0.61438)
(0.388459 -0.478255 2.53152)
(1.00559 -0.555211 4.28941)
(0.096849 0.0178209 0.699151)
(-0.0505461 -0.0187127 1.87783)
(0.509428 -0.25272 1.55408)
(0.985366 -0.51758 2.96531)
(0.713081 -0.126233 3.36187)
(0.140737 -0.702853 2.35691)
(0.169739 0.716485 0.647994)
(0.284729 1.09214 2.80796)
(1.00093 0.253699 3.50919)
(1.11314 -0.316655 2.80748)
(0.594861 -0.563638 3.94979)
(-0.434456 -0.634656 1.32722)
(0.661946 0.352757 1.11992)
(0.0134235 0.20006 2.60009)
(0.394558 -0.299456 1.41986)
(0.104213 -1.10173 3.94688)
(0.126593 -0.132623 0.109898)
(-0.249172 -0.124453 1.53119)
(-0.765028 -0.298162 2.14758)
(0.291443 -0.33566 0.564766)
(0.182874 0.0359154 0.300575)
(-0.167938 -0.113413 0.404956)
(1.69732 -0.933274 3.86881)
(1.021 -0.952454 5.21366)
(0.0834039 0.0170142 0.369858)
(-0.0142075 -0.0128532 0.558968)
(-0.163515 -0.106399 0.477283)
(0.0280635 -0.964758 3.02156)
(0.0751881 -0.514721 2.7453)
(0.0545545 -1.15431 2.30486)
(-0.0452643 -0.0697379 0.223497)
(0.519807 0.926356 4.68186)
(0.098546 -0.178154 1.16929)
(1.33866 -0.770808 3.42677)
(0.337436 -0.852166 4.69371)
(-0.158544 -0.0252067 0.502456)
(0.130956 0.257466 2.15962)
(0.173424 -0.0875968 1.86521)
(0.859393 -0.774568 1.85414)
(0.566797 -1.28447 3.97451)
(0.0549103 0.0431824 0.364825)
(-0.52621 -0.308458 1.73622)
(0.688336 -1.04587 1.37396)
(0.259504 -0.0549584 0.0923201)
(0.243499 0.0509944 0.475219)
(-0.206416 0.194955 0.271641)
(0.62318 0.86536 2.67188)
(0.663214 -0.463938 6.38929)
(-0.0538803 -0.0458958 0.976618)
(0.328592 -0.655707 1.83687)
(-1.01005 -0.22737 1.80601)
(-0.834696 -0.956135 3.09396)
(-0.22455 -0.786863 3.07092)
(-0.617491 -1.25285 2.70658)
(-0.0818083 -0.139058 0.324517)
(0.244268 -0.865547 2.17155)
(-0.3502 -0.610223 1.73413)
(-0.241136 -0.565266 3.42742)
(1.20396 -0.817143 5.28065)
(0.00750295 0.292206 0.433285)
(-0.325452 -0.762419 2.73333)
(0.233729 -0.51875 1.79522)
(0.178968 0.0452608 0.926757)
(1.06899 -1.08623 4.01224)
(0.206273 -0.332763 0.672195)
(0.0160795 -0.292931 1.66272)
(0.0686119 -0.0378618 0.490277)
(0.117531 -0.026219 0.14033)
(-0.0293964 -0.0672977 0.606888)
(-0.430919 -0.147815 0.986631)
(-0.617001 0.304782 1.3186)
(0.177171 -0.195494 6.26313)
(0.216594 -0.372015 2.51921)
(-0.35696 -0.665585 2.33901)
(-1.13596 0.590767 2.43459)
(-0.24362 0.0635308 0.966105)
(-0.0878362 -0.575855 2.76759)
(-0.0385339 -0.231111 1.15885)
(0.0528961 -0.20841 1.2446)
(0.208668 -1.74155 2.47047)
(-0.786963 -0.530116 2.54978)
(-0.166801 0.102609 0.727611)
(0.832304 -0.37977 4.68166)
(0.203895 0.205619 0.949187)
(-0.08644 -0.211802 1.16536)
(0.203326 -0.259239 1.16347)
(-0.0616498 0.0820043 0.435035)
(0.950664 -0.066522 3.71873)
(0.323828 -0.174591 1.60799)
(-0.339084 -0.431248 1.72668)
(0.101456 -0.0523861 0.478524)
(0.0329077 0.00619168 0.26871)
(-0.825801 -0.994981 1.98797)
(0.390901 -0.526187 1.64204)
(-1.12051 -0.000351385 1.26333)
(-0.564874 0.319711 4.98556)
(0.748372 -0.799971 3.69203)
(-0.43808 -0.466154 2.54383)
(-0.532761 0.564066 2.69559)
(-0.415209 0.915955 2.57238)
(-0.121763 0.105901 1.86924)
(0.0980163 0.505553 1.20619)
(0.0168582 -0.00784252 0.0105799)
(0.0182994 -0.0883185 0.315362)
(0.0233393 -0.76424 2.26047)
(-0.223214 -0.0913288 2.85183)
(-0.78888 -0.0575873 2.68121)
(0.111805 -0.0159434 3.12692)
(-0.352692 -0.32703 1.83361)
(0.068213 0.00469675 0.0220151)
(0.201068 -0.142757 1.03166)
(0.178152 -0.10374 2.25926)
(-0.520508 -0.21588 1.22464)
(0.000208007 0.393159 1.83251)
(-0.112866 0.248805 2.2292)
(-0.0187703 -0.102061 1.4991)
(-0.0107815 -0.0905234 0.658044)
(-0.0509649 0.135682 0.606432)
(-0.0657183 -0.344468 3.36546)
(0.361034 -0.630519 1.9525)
(-0.265174 -0.0327695 1.01888)
(0.0957409 0.00918496 2.73112)
(0.104942 -0.52364 4.19543)
(-0.393005 -0.364615 2.65289)
(-0.293543 0.425781 2.5974)
(0.0244723 0.610311 1.66205)
(-0.276789 0.166688 2.35097)
(0.490473 0.525785 1.9554)
(-0.116267 -0.0301383 0.00122794)
(-0.0130564 -0.0596599 0.339248)
(0.0176455 -0.245142 2.26787)
(-0.14505 0.0666579 2.7699)
(-0.144705 -0.0606364 1.60026)
(0.0360043 -0.144221 3.2327)
(0.276535 -0.292891 2.43773)
(-0.0784289 0.00702645 -0.0076568)
(-0.0434979 -0.0428161 0.234942)
(0.191031 0.0173306 1.65805)
(-0.205424 0.0196234 0.519753)
(-0.0546687 0.249838 1.5267)
(0.354762 0.1416 2.16492)
(-0.25536 0.0122163 0.0422635)
(0.219402 -0.285507 0.565221)
(0.106163 0.0198521 0.0740058)
(-0.0723014 0.0208076 0.274558)
(-0.00332522 -0.211366 3.09432)
(0.279194 -0.578542 2.11831)
(-0.0165967 -0.08241 1.05909)
(0.171163 0.0627307 1.46096)
(0.315458 -0.159499 4.08645)
(-0.373718 -0.305308 2.74781)
(-0.237169 0.261293 2.5356)
(0.108187 0.316371 1.62721)
(-0.310305 0.130477 1.80146)
(-0.107247 -0.0461544 1.69586)
(-0.200794 -0.0839966 -0.0154512)
(-0.0241397 0.0268629 0.361665)
(0.0451114 -0.0597451 2.35198)
(-0.141119 0.159206 2.87045)
(0.15556 -0.022937 1.69483)
(-0.0267311 -0.0575823 2.79335)
(-0.353864 -0.136008 1.88022)
(-0.118634 -0.0174611 0.0646806)
(0.0150281 -0.0550183 0.0934286)
(0.206364 0.057986 1.72519)
(-0.0468653 0.0829733 0.701309)
(-0.00811856 -0.0431575 1.01996)
(-0.111366 0.168746 1.93133)
(0.214001 0.152758 0.197332)
(0.0629158 0.0407599 0.446968)
(0.0718255 0.105459 0.343713)
(0.0346049 -0.00240102 0.439135)
(0.0511229 -0.13616 3.15607)
(0.204876 -0.459904 2.16695)
(0.103999 0.0563327 1.02785)
(0.234936 0.178181 1.50218)
(0.233867 -0.230018 3.79102)
(-0.339035 -0.23627 2.74589)
(-0.144442 0.121836 2.40493)
(0.0631407 0.128075 1.8677)
(-0.32432 0.0503811 1.90134)
(-0.117312 -0.0316659 2.08381)
(0.0256708 0.149816 0.120695)
(-0.00830876 0.0849499 0.453223)
(0.069239 -0.0352086 2.3665)
(-0.0303504 0.25301 2.86541)
(0.146959 0.0203047 1.87726)
(-0.0573022 -0.00524101 2.815)
(-0.57826 -0.0656387 1.251)
(-0.156273 -0.0991718 0.152165)
(0.0491128 -0.0451146 0.168073)
(0.189346 0.110093 1.92574)
(-0.013236 0.0227162 0.890686)
(-0.295937 0.0450047 1.27133)
(-0.234154 0.260226 1.82128)
(-0.034114 0.145956 0.433501)
(0.0832643 0.0503392 0.432655)
(0.0546726 0.0121901 0.465399)
(0.0677007 -0.108412 3.21342)
(0.17443 -0.368141 2.15611)
(0.193332 0.0490052 0.924108)
(0.430845 0.192962 1.50467)
(0.204026 -0.230244 3.70794)
(-0.315802 -0.187821 2.76837)
(-0.0543296 0.0325297 2.26805)
(0.0711298 -0.029752 1.90631)
(-0.230331 -0.0314434 2.10993)
(-0.158358 -0.0824403 2.22337)
(0.0193315 0.156628 0.540209)
(0.0646271 0.0101144 2.45594)
(0.025645 0.254547 2.67585)
(0.178014 0.0634758 1.89403)
(-0.0393202 0.00148474 2.91562)
(-0.471807 -0.0585838 1.26297)
(0.0304324 -0.0090535 0.316758)
(0.16129 0.108988 1.7845)
(0.105178 0.00975578 0.985781)
(-0.330516 0.135969 1.58926)
(-0.0889446 0.317952 1.81621)
(-0.0531592 0.178155 0.482854)
(0.0711916 0.0351279 0.468062)
(0.0829536 0.0196449 0.559289)
(0.109304 -0.0939116 3.38955)
(0.160968 -0.256738 2.06601)
(0.298451 0.0737782 0.720754)
(0.459067 0.163114 1.64047)
(0.0650794 -0.216472 3.53972)
(-0.279417 -0.131643 2.72953)
(0.0102541 -0.00720803 2.12857)
(0.0948727 -0.115919 1.86504)
(-0.154387 -0.010328 2.21597)
(-0.0544385 -0.0640497 2.14627)
(0.0354296 0.209358 0.544904)
(0.0486347 0.0673609 2.49571)
(0.0902585 0.281483 2.54945)
(0.200383 0.118999 1.86533)
(-0.00641782 -0.0336107 3.07963)
(-0.1137 -0.0133692 1.14547)
(-0.065554 0.0482645 0.638272)
(0.0980309 0.0478382 1.56963)
(0.162042 0.0134333 1.12454)
(-0.288679 0.148778 1.87731)
(-0.0325019 0.161746 1.65955)
(-0.0258922 0.168924 0.525038)
(0.0710285 0.0674719 0.517751)
(0.113889 -0.00658106 0.627708)
(0.0871111 -0.0151379 3.60589)
(0.194997 -0.090518 1.82747)
(0.21696 0.142596 0.52886)
(0.10713 0.211229 1.84182)
(-0.142027 -0.202529 3.48506)
(-0.258385 -0.060577 2.66884)
(0.038923 0.0906057 1.95098)
(0.0911212 -0.116494 1.84881)
(-0.136151 0.027462 2.19436)
(-0.00296765 0.0531048 1.98994)
(0.0337853 0.224358 0.60464)
(0.0620425 0.101869 2.55241)
(0.142589 0.342953 2.44094)
(0.182199 0.164753 1.833)
(0.0445645 0.00406251 3.14845)
(-0.00702713 0.0617431 1.1627)
(-0.0307851 0.0670182 0.823836)
(0.0976678 0.023016 1.63813)
(0.136218 0.0172181 1.20816)
(-0.195963 0.15286 2.1271)
(-0.00487113 0.0746944 1.57058)
(0.00152613 0.140808 0.631578)
(0.06846 0.0669572 0.556134)
(0.130068 -0.0218052 0.68672)
(-0.0362141 0.0546309 3.49529)
(0.0525339 0.0517391 1.62141)
(-0.0417726 0.314372 0.51925)
(-0.268747 0.369822 1.95352)
(-0.206595 -0.0931111 3.25142)
(-0.220464 0.0197452 2.60214)
(0.010064 0.21801 1.87822)
(0.0782528 -0.0139171 1.85956)
(-0.0909748 0.0983698 2.21162)
(-0.0957338 0.168068 1.81503)
(0.0348605 0.221602 0.678013)
(0.0904284 0.12854 2.55061)
(0.17109 0.352039 2.33585)
(0.158121 0.210953 1.82514)
(0.0819441 0.0701173 3.14981)
(0.0603852 0.0706159 1.28001)
(-0.0199922 0.0596087 0.974714)
(0.105995 0.0109712 1.63249)
(0.123575 0.0320206 1.27881)
(-0.086544 0.184442 2.36064)
(-0.00729908 0.0499593 1.43149)
(0.0103643 0.0466059 0.622061)
(0.0784115 0.0487064 0.577794)
(0.125518 -0.0394606 0.745549)
(-0.296405 0.0401322 3.11569)
(-0.0145316 0.0641081 1.59887)
(-0.0620744 0.388059 0.570017)
(-0.219757 0.760339 1.77511)
(-0.0567096 0.202627 2.98839)
(-0.177064 0.0872458 2.54127)
(-0.00730777 0.243032 1.91016)
(0.0495908 0.235681 1.9774)
(-0.0814708 0.185998 2.25159)
(0.111919 0.469895 1.67138)
(0.0319943 0.210352 0.739006)
(0.102988 0.111018 2.548)
(0.181392 0.317258 2.28218)
(0.124217 0.268104 1.87175)
(0.0541585 0.0971668 3.1613)
(0.0435433 0.117392 1.28996)
(-0.0450082 0.041242 1.07853)
(0.124747 -0.00830254 1.64526)
(0.10246 0.0647688 1.35793)
(-0.0281996 0.227025 2.5555)
(-0.0254873 0.150329 1.4173)
(-0.0227506 0.0154174 0.62064)
(0.071154 0.0363577 0.599491)
(0.0926353 -0.0283613 0.816239)
(-0.0184472 0.243504 1.52351)
(-0.0775954 0.0148579 1.5994)
(0.0826453 0.28497 0.509451)
(-0.10455 0.810019 1.45925)
(0.180049 0.520393 2.6356)
(-0.151329 0.116214 2.47507)
(0.00488321 0.20444 1.98421)
(-0.013805 0.33342 2.1442)
(-0.104376 0.3587 2.25736)
(0.24028 0.788822 1.49386)
(0.028987 0.198839 0.79686)
(0.0934984 0.05939 2.55221)
(0.167114 0.254756 2.27745)
(0.0662211 0.311616 1.9925)
(0.0280634 0.167991 3.17609)
(0.0193265 0.344066 1.39144)
(-0.0597282 -0.000447199 1.11034)
(0.128086 -0.0397526 1.67886)
(0.0614003 0.0865568 1.45225)
(0.0122234 0.2683 2.71902)
(-0.0706735 0.205658 1.50208)
(-0.0489421 0.0262713 0.637697)
(0.0351589 0.0423977 0.636817)
(0.0262127 0.021393 0.942218)
(0.0718448 0.0497264 0.555967)
(-0.0386495 -0.0926475 1.70778)
(0.0120089 0.0791902 0.388111)
(-0.335566 0.568978 1.25013)
(0.262415 0.731957 2.2355)
(-0.158811 0.111148 2.40973)
(0.0241953 0.0724938 2.07597)
(-0.0604203 0.290261 2.27816)
(-0.0775241 0.485005 2.30613)
(0.103306 0.850542 1.28697)
(0.0283803 0.179933 0.850223)
(0.0674957 0.0316618 2.55718)
(0.141981 0.154057 2.3068)
(0.0543363 0.303396 2.11988)
(0.0656787 0.240404 3.19373)
(0.0930114 0.386168 1.77216)
(-0.0555851 -0.0113439 1.10406)
(0.11699 -0.0848336 1.709)
(0.0067957 0.0772315 1.53723)
(0.0495555 0.298347 2.86107)
(-0.0515579 0.113642 1.54004)
(-0.0590799 0.0381254 0.681787)
(-0.0391349 0.0515869 0.69815)
(-0.0436701 0.0617976 1.08103)
(0.0298824 0.0139441 0.384423)
(0.0906492 -0.191727 1.67943)
(0.0486362 -0.0660783 0.361958)
(-0.394511 0.430182 1.23287)
(-0.210716 0.327849 1.36812)
(-0.147165 0.0771678 2.31255)
(0.0223986 -0.0550484 2.14032)
(-0.020995 0.105538 2.36086)
(-0.0284055 0.475759 2.35806)
(0.0283004 0.369557 1.21233)
(0.0279416 0.139943 0.8858)
(0.0404161 0.0204914 2.56185)
(0.135797 0.0437296 2.31363)
(0.0657065 0.272378 2.19041)
(0.0870023 0.246655 3.21789)
(0.219585 0.113618 2.25257)
(-0.0567816 0.00891893 1.09615)
(0.0829063 -0.122053 1.72414)
(-0.0556606 0.0442106 1.60226)
(0.0807296 0.298089 2.98143)
(0.0111242 0.108226 1.45499)
(-0.0626032 0.0363824 0.737454)
(-0.0870221 0.0503439 0.748054)
(-0.0965722 0.0965691 1.21595)
(0.0610855 0.0351436 0.206186)
(0.132201 -0.200322 1.56011)
(0.0533384 -0.112982 0.42595)
(-0.330351 0.204547 1.45439)
(-0.44061 -0.0114651 0.929377)
(-0.137217 0.0427955 2.19541)
(0.0197253 -0.134039 2.16658)
(0.0520088 -0.105063 2.39346)
(0.0206883 0.384318 2.34318)
(0.09727 -0.0390283 1.23219)
(0.0229048 0.081133 0.907603)
(0.00394588 0.00885154 2.55748)
(0.129688 -0.0493385 2.28758)
(0.0570097 0.256957 2.19863)
(0.0813892 0.234637 3.22403)
(0.250283 -0.0794969 2.48061)
(-0.0706333 0.0331113 1.08581)
(0.0346688 -0.142848 1.7202)
(-0.109634 -0.00103134 1.63732)
(0.0777141 0.268023 3.05838)
(0.0602154 0.221595 1.49408)
(-0.0591473 0.0300379 0.784407)
(-0.119442 0.0467202 0.787633)
(-0.14576 0.128138 1.33767)
(0.0289374 0.0266313 0.104114)
(0.114958 -0.171958 1.476)
(-0.0378961 -0.105632 0.524516)
(-0.213333 -0.0439366 1.83605)
(-0.382105 -0.180298 0.780647)
(-0.130088 0.016654 2.08928)
(0.0337031 -0.169188 2.15951)
(0.0878432 -0.175746 2.3703)
(0.0396511 0.29557 2.21518)
(0.0834605 -0.269109 1.29404)
(0.0118883 0.0230286 0.936354)
(-0.0323362 -0.00102049 2.52458)
(0.109936 -0.114216 2.25709)
(0.0223369 0.22369 2.17937)
(0.047542 0.216215 3.22473)
(0.155366 -0.243685 2.49698)
(-0.0838342 0.0270139 1.07069)
(-0.00238699 -0.149705 1.70436)
(-0.141398 -0.0398227 1.64566)
(0.0518187 0.250256 3.10277)
(0.0916535 0.245126 1.59163)
(-0.0608581 0.0300194 0.826258)
(-0.146257 0.0416636 0.827579)
(-0.188084 0.144322 1.41575)
(-0.0793161 0.00322003 0.146862)
(0.0935055 -0.13516 1.44787)
(-0.183795 -0.0834621 0.629726)
(-0.12025 -0.267029 2.21288)
(-0.253398 -0.206835 0.844276)
(-0.117479 0.0171186 2.02172)
(0.0518108 -0.17348 2.13575)
(0.102947 -0.157723 2.33357)
(0.00494784 0.265305 2.12969)
(-0.0228841 -0.335592 1.31986)
(0.0001565 -0.0114996 0.981402)
(-0.0625716 -0.0020479 2.4592)
(0.0890404 -0.1568 2.2381)
(-0.0177471 0.157745 2.16009)
(0.0294398 0.213391 3.22103)
(0.0754169 -0.191781 2.39954)
(-0.0822472 -0.00242889 1.07205)
(-0.0299643 -0.14443 1.68202)
(-0.166595 -0.0624595 1.64573)
(0.0211626 0.243096 3.12919)
(0.105134 0.0575518 1.72141)
(-0.0760145 0.039761 0.87215)
(-0.172695 0.027935 0.864682)
(-0.222193 0.154507 1.43622)
(-0.148433 -0.0197548 0.308457)
(0.101503 -0.12514 1.46883)
(-0.310841 -0.0517535 0.748509)
(-0.000496153 -0.342857 2.42986)
(-0.014263 -0.074657 1.08522)
(-0.0975165 0.030408 2.0017)
(0.0618504 -0.162886 2.12198)
(0.13409 -0.0925927 2.21496)
(-0.0344577 0.17909 2.04136)
(-0.0725059 -0.312139 1.26019)
(-0.0047815 -0.0174725 1.03566)
(-0.0782138 -0.0156263 2.38571)
(0.0635002 -0.18599 2.23441)
(-0.0373937 0.109525 2.16025)
(0.0273494 0.219583 3.20646)
(0.0256932 -0.0909872 2.26312)
(-0.0740496 -0.035838 1.11652)
(-0.0917559 -0.132033 1.65414)
(-0.214198 -0.075417 1.63333)
(0.000422791 0.244804 3.13085)
(0.104249 -0.0427353 1.80404)
(-0.0915249 0.0507812 0.933891)
(-0.205807 0.0153296 0.894538)
(-0.264957 0.180893 1.40541)
(-0.0672432 -0.00663146 0.506883)
(0.118917 -0.137286 1.48652)
(-0.305346 -0.0334659 0.872306)
(0.233096 -0.199287 2.31172)
(0.229369 0.0500596 1.40445)
(-0.0836588 0.0267498 2.01109)
(0.0630631 -0.160585 2.12387)
(0.146459 -0.0621718 2.10591)
(-0.0525939 0.0774534 1.9648)
(-0.0358563 -0.276763 1.20024)
(-0.00330891 -0.00206347 1.08819)
(-0.076321 -0.0460795 2.33286)
(0.0264654 -0.207339 2.24065)
(-0.0438807 0.0765779 2.17351)
(0.0121415 0.215798 3.18135)
(0.0284205 -0.0514332 2.18406)
(-0.0752221 -0.0771461 1.21259)
(-0.184178 -0.123574 1.62474)
(-0.275035 -0.0820772 1.59738)
(-0.0157989 0.231388 3.10904)
(0.101162 -0.124441 1.79726)
(-0.102652 0.0554354 1.01701)
(-0.227457 0.00988975 0.929762)
(-0.324847 0.223635 1.34434)
(0.0999647 0.0105799 0.601428)
(0.130489 -0.169372 1.45185)
(-0.178151 -0.0411887 0.974654)
(0.127508 0.01201 1.76414)
(0.311729 0.111373 1.67023)
(-0.0739273 0.0105829 2.03539)
(0.0621922 -0.159066 2.14191)
(0.137362 -0.0457513 2.06846)
(-0.0539741 0.000193043 1.94336)
(-0.0163511 -0.259712 1.19982)
(-0.00120273 0.0216898 1.14073)
(-0.0718086 -0.0735872 2.30675)
(-0.0120838 -0.225222 2.25311)
(-0.0556595 0.0510666 2.18985)
(-0.0081679 0.19546 3.128)
(0.0491496 -0.0579167 2.1727)
(-0.0800927 -0.118591 1.33206)
(-0.26275 -0.108906 1.59406)
(-0.316141 -0.0711176 1.53952)
(-0.0391144 0.196905 3.06137)
(0.0975359 -0.175551 1.64154)
(-0.102666 0.0438474 1.10905)
(-0.216203 0.00731672 0.970661)
(-0.335091 0.210698 1.23589)
(0.19389 0.00544677 0.612182)
(0.124767 -0.189853 1.41066)
(-0.0887032 -0.0558384 1.03391)
(0.0316308 -0.0688239 1.37353)
(0.228772 0.168241 1.76279)
(-0.0650259 0.00124857 2.06282)
(0.0599635 -0.135058 2.17546)
(0.129999 -0.00590572 2.0753)
(-0.043832 -0.0716733 1.97924)
(-0.0236847 -0.243657 1.25621)
(0.00128841 0.0453275 1.19524)
(-0.0710209 -0.0877159 2.3037)
(-0.0386563 -0.235007 2.27043)
(-0.0832363 0.0239247 2.19783)
(0.00494953 0.184509 3.05458)
(0.0649162 -0.0303323 2.18022)
(-0.0711228 -0.143424 1.44313)
(-0.304849 -0.0719558 1.56711)
(-0.327016 -0.0365707 1.4758)
(-0.0834104 0.149388 3.00277)
(0.0708997 -0.0834023 1.43628)
(-0.0940581 0.0206174 1.19902)
(-0.188123 0.000947341 0.9928)
(-0.300338 0.168431 1.11793)
(0.219892 0.00396481 0.661452)
(0.119254 -0.190931 1.39805)
(-0.0753724 -0.0821379 1.09779)
(0.0553784 -0.181626 1.21311)
(0.100149 0.211688 1.7241)
(-0.060019 0.00234442 2.08929)
(0.0465175 -0.108284 2.19622)
(0.134478 0.105819 2.08302)
(-0.0279001 -0.113114 2.03815)
(-0.029354 -0.213074 1.33789)
(0.00486586 0.0664423 1.25099)
(-0.0724985 -0.0953004 2.31884)
(-0.0618076 -0.24005 2.27914)
(-0.117942 -0.00524673 2.20072)
(0.030507 0.181606 2.97522)
(-0.0192632 -0.0254268 2.20971)
(-0.0430475 -0.13904 1.52567)
(-0.314625 -0.0219769 1.5534)
(-0.316228 0.0126454 1.41632)
(-0.131513 0.115713 2.92594)
(0.01334 0.0167998 1.3052)
(-0.0752613 0.00125055 1.28688)
(-0.171931 -0.00657778 0.994102)
(-0.264784 0.141604 1.03909)
(0.213204 0.00319353 0.754478)
(0.117231 -0.185343 1.40743)
(-0.0847196 -0.100163 1.18981)
(0.0305082 -0.211923 1.12006)
(0.0135576 0.145769 1.70328)
(-0.0560151 -0.00332594 2.11837)
(0.0285018 -0.10474 2.20267)
(0.144288 0.199051 2.06178)
(-0.0228099 -0.0920268 2.07835)
(-0.007318 -0.147686 1.44335)
(0.00881033 0.0863995 1.3035)
(-0.0767079 -0.100047 2.34519)
(-0.092377 -0.243277 2.2774)
(-0.143267 -0.0327553 2.20631)
(0.0163525 0.162731 2.93284)
(-0.112353 -0.137955 2.11401)
(-0.00528473 -0.108316 1.56966)
(-0.302606 0.0199469 1.54306)
(-0.292507 0.0575478 1.36804)
(-0.155114 0.0972157 2.78536)
(-0.0474925 0.000731894 1.24984)
(-0.0517341 -0.00636422 1.371)
(-0.16168 -0.0139868 1.00612)
(-0.246108 0.135966 1.00681)
(0.200381 0.00255068 0.868156)
(0.114513 -0.176351 1.43396)
(-0.0821733 -0.0922862 1.29996)
(-0.102484 -0.0716707 1.03221)
(0.0331227 0.0269435 1.78788)
(-0.0513866 -0.0285857 2.14862)
(0.020042 -0.108973 2.20515)
(0.128479 0.213993 2.0038)
(-0.0217239 -0.00272929 2.09207)
(0.0138231 8.5249e-05 1.56246)
(0.0117403 0.101403 1.3552)
(-0.0806395 -0.113493 2.37517)
(-0.124562 -0.233171 2.27054)
(-0.15641 -0.0466205 2.20448)
(-0.0213627 0.111659 2.92084)
(-0.0970503 -0.1148 1.72623)
(0.0240462 -0.0789148 1.59306)
(-0.290282 0.0467322 1.53125)
(-0.264904 0.0870314 1.33135)
(-0.148042 0.0808651 2.62733)
(-0.0297893 -0.0286246 1.18417)
(-0.0363923 -0.00370078 1.44696)
(-0.141862 -0.0184891 1.05247)
(-0.236538 0.135525 1.01027)
(0.191561 -0.0022054 0.989698)
(0.111464 -0.165346 1.46087)
(-0.052965 -0.0789893 1.40679)
(-0.225674 0.0865494 0.982664)
(0.22316 0.0279164 1.78036)
(-0.0540628 -0.0587076 2.18039)
(0.014264 -0.114584 2.21291)
(0.0860003 0.212 1.93585)
(-0.00529245 0.083874 2.09987)
(0.0201834 0.0955553 1.61115)
(0.0122371 0.102913 1.41251)
(-0.0836454 -0.127671 2.40114)
(-0.152578 -0.200178 2.26585)
(-0.160049 -0.042999 2.19773)
(-0.0336672 0.0598045 2.88238)
(-0.00876958 -0.0113279 1.54644)
(0.0284914 -0.0726735 1.625)
(-0.282203 0.0673314 1.51805)
(-0.245167 0.101618 1.29879)
(-0.149991 0.0682628 2.47804)
(0.00828199 -0.0119984 1.13463)
(-0.0286667 0.00577764 1.51399)
(-0.108469 -0.0218079 1.13363)
(-0.212095 0.120406 1.01379)
(0.213981 -0.00305168 1.11607)
(0.101288 -0.151554 1.48421)
(-0.0142265 -0.0858287 1.49162)
(-0.193772 0.15805 0.995049)
(0.347105 0.0502193 1.61488)
(-0.0538207 -0.0854827 2.21257)
(-0.00149079 -0.130168 2.22019)
(0.053682 0.238967 1.91203)
(0.0170439 0.125635 2.13689)
(0.0213916 0.116445 1.64044)
(0.00833367 0.0896862 1.48302)
(-0.0906021 -0.131433 2.42161)
(-0.180991 -0.156361 2.25461)
(-0.164834 -0.00835887 2.17093)
(-0.00809656 0.0370345 2.81374)
(0.0309632 0.0140356 1.54549)
(0.0147605 -0.0796067 1.6823)
(-0.275444 0.0849606 1.51262)
(-0.238816 0.103357 1.27073)
(-0.149107 0.0876539 2.33898)
(0.00639738 0.0361137 1.12192)
(-0.0225024 0.0150796 1.56618)
(-0.0652822 -0.0271414 1.23726)
(-0.188043 0.110397 1.00753)
(0.257728 0.00725223 1.21355)
(0.0864551 -0.141608 1.52)
(0.00601932 -0.107954 1.54022)
(-0.0177992 0.15409 1.05387)
(0.285768 0.0150105 1.51386)
(-0.0450572 -0.105401 2.23753)
(-0.0343559 -0.153786 2.20702)
(0.0447684 0.254867 1.90343)
(0.0094622 0.148984 2.19026)
(0.0203281 0.110284 1.68921)
(0.0019675 0.0697482 1.57042)
(-0.097059 -0.127085 2.43984)
(-0.20887 -0.12865 2.22735)
(-0.176757 0.0033104 2.13927)
(0.024603 0.0290665 2.7343)
(0.059341 -0.00183465 1.62343)
(0.00172712 -0.0866613 1.75128)
(-0.258009 0.0972197 1.51681)
(-0.239484 0.0927441 1.25247)
(-0.124485 0.125758 2.19027)
(-0.0091332 0.0692269 1.14681)
(-0.0134841 0.0205247 1.61327)
(-0.00394918 -0.027004 1.34298)
(-0.162214 0.0981018 1.00961)
(0.283825 0.0142358 1.28647)
(0.0728309 -0.135814 1.58069)
(0.00458239 -0.11971 1.54519)
(0.105178 0.136728 1.0996)
(0.18901 -0.0456578 1.56352)
(-0.0411549 -0.109926 2.25678)
(-0.0569012 -0.150641 2.17969)
(0.049907 0.252246 1.89496)
(-0.0218989 0.155245 2.23259)
(0.0198651 0.118127 1.76334)
(-0.00295559 0.0520074 1.67204)
(-0.100131 -0.120563 2.4558)
(-0.22571 -0.120298 2.18801)
(-0.181694 -0.00701558 2.10115)
(0.035006 0.0106318 2.64549)
(0.0683641 -0.0203339 1.68924)
(-0.00332628 -0.0909509 1.81793)
(-0.217344 0.102176 1.5262)
(-0.231282 0.0791766 1.24775)
(-0.108508 0.166019 1.99881)
(-0.0278282 0.0884986 1.20037)
(-0.00289361 0.0237946 1.65357)
(0.0598316 -0.0171485 1.43913)
(-0.124564 0.0725962 1.0388)
(0.275241 0.0238193 1.33069)
(0.0648189 -0.133513 1.65896)
(0.0185043 -0.157578 1.49696)
(0.164218 0.134962 1.12914)
(0.108689 -0.0922578 1.70521)
(-0.0416813 -0.0985211 2.27278)
(-0.0525625 -0.121442 2.15629)
(0.0812754 0.243732 1.87452)
(-0.0361933 0.140567 2.25293)
(0.030998 0.120103 1.8668)
(-0.0074114 0.035539 1.77914)
(-0.10056 -0.116298 2.47373)
(-0.223008 -0.106234 2.14553)
(-0.174758 -0.00638736 2.06797)
(0.0182716 -0.0252619 2.54773)
(0.066985 -0.0308569 1.71567)
(-0.00862854 -0.0980072 1.87121)
(-0.162641 0.0987537 1.53582)
(-0.199881 0.0686015 1.25856)
(-0.0866743 0.165544 1.80308)
(-0.0389089 0.103509 1.25105)
(0.00554991 0.0229017 1.68157)
(0.0922949 -0.0127378 1.50716)
(-0.0833131 0.0414156 1.08594)
(0.238495 0.0273922 1.32268)
(0.0701812 -0.13445 1.74528)
(0.0615526 -0.186237 1.41325)
(0.152547 0.16779 1.15759)
(0.0427574 -0.115915 1.86385)
(-0.0404958 -0.0839641 2.29064)
(-0.0145455 -0.071106 2.10523)
(0.155627 0.192367 1.86968)
(-0.025171 0.129032 2.26146)
(0.0562151 0.0856655 1.98317)
(-0.0114417 0.0158019 1.88548)
(-0.097508 -0.118639 2.48898)
(-0.20592 -0.0718098 2.1083)
(-0.16466 0.0123812 2.04802)
(-0.00632511 -0.0632096 2.44507)
(0.0657802 -0.0358428 1.71146)
(-0.0200014 -0.114571 1.90612)
(-0.122843 0.0888635 1.54256)
(-0.151231 0.0625225 1.28737)
(-0.0438151 0.131075 1.65176)
(-0.0417709 0.125441 1.28431)
(0.00594184 0.0219559 1.69789)
(0.0916095 -0.0174199 1.54405)
(-0.0603506 0.0239033 1.13039)
(0.198678 0.0204032 1.29078)
(0.0864948 -0.134231 1.81773)
(0.0703341 -0.129816 1.34094)
(0.07649 0.208357 1.19976)
(-0.00903212 -0.100617 1.97402)
(-0.0376361 -0.0800172 2.3191)
(0.0323942 -0.010562 2.00635)
(0.208476 0.0937332 1.87004)
(0.000673107 0.119517 2.28883)
(0.0712069 0.031498 2.05938)
(-0.0142827 -0.00199709 1.98818)
(-0.089306 -0.121276 2.50398)
(-0.182056 -0.033472 2.08919)
(-0.149084 0.0449425 2.02026)
(-0.011231 -0.073579 2.34406)
(0.0606208 -0.0168881 1.67847)
(-0.0358428 -0.138454 1.92385)
(-0.109049 0.0795172 1.54878)
(-0.122606 0.0582229 1.31642)
(-0.0157492 0.106943 1.57845)
(-0.0463312 0.144118 1.29881)
(0.00268397 0.0262338 1.71147)
(0.0752617 -0.0180115 1.56308)
(-0.0534649 0.0212448 1.16949)
(0.16663 0.0105128 1.27136)
(0.0912111 -0.126708 1.87037)
(0.0456408 -0.0409783 1.28994)
(-0.026993 0.237985 1.23982)
(-0.0737039 -0.0977012 2.02258)
(-0.0376127 -0.0935156 2.35877)
(0.047578 0.0334519 1.9037)
(0.179677 0.0018005 1.84581)
(0.0160461 0.0736053 2.33015)
(0.0552821 -0.0113964 2.07566)
(-0.0168377 -0.0165289 2.07742)
(-0.076762 -0.115277 2.52475)
(-0.156798 -0.0196984 2.08417)
(-0.109743 0.0772228 1.96792)
(0.00774291 -0.0419912 2.2508)
(0.0484034 0.0184545 1.64587)
(-0.0735185 -0.139554 1.93525)
(-0.110308 0.0735056 1.55333)
(-0.123639 0.0486888 1.33874)
(-0.00630631 0.104495 1.55529)
(-0.0484875 0.150672 1.31157)
(0.000980731 0.0333005 1.72878)
(0.0465315 -0.00486113 1.58551)
(-0.0420348 0.0124878 1.19815)
(0.14099 0.000260069 1.29112)
(0.090783 -0.117002 1.91368)
(0.0268363 0.00719214 1.28089)
(-0.134069 0.260416 1.25512)
(-0.15702 -0.134911 2.08245)
(-0.0417114 -0.116001 2.39733)
(0.0278515 0.0453306 1.83744)
(0.0960072 -0.0515748 1.80272)
(0.0115329 -0.00871584 2.31741)
(0.0443606 -0.0354616 2.03189)
(-0.0203276 -0.0309317 2.15702)
(-0.0681374 -0.111107 2.53999)
(-0.130626 -0.0339349 2.07417)
(-0.0506472 0.0968693 1.89757)
(0.0307657 0.0134102 2.16392)
(0.0339986 0.0378108 1.63103)
(-0.12639 -0.119561 1.94957)
(-0.123409 0.0669954 1.55083)
(-0.149664 0.0324421 1.35457)
(-0.00706929 0.109451 1.55802)
(-0.05128 0.151524 1.32553)
(-0.00539174 0.0435908 1.75625)
(0.0350583 0.0103495 1.61935)
(-0.0299826 0.00439696 1.20868)
(0.128631 -0.00281526 1.3459)
(0.0959756 -0.107125 1.95146)
(0.0321 0.000714013 1.32205)
(-0.217249 0.263572 1.25169)
(-0.0593811 -0.172926 2.17721)
(-0.0418507 -0.135209 2.43029)
(-0.00304527 0.0281627 1.81844)
(0.00947357 -0.0594151 1.77789)
(0.00440738 -0.0393677 2.25623)
(0.0461222 -0.0656589 1.97328)
(-0.0225905 -0.0443795 2.23322)
(-0.0706806 -0.116415 2.55577)
(-0.10444 -0.0584808 2.04492)
(-0.00899639 0.103263 1.82938)
(0.040177 0.0602846 2.09095)
(0.02662 0.046132 1.62723)
(-0.137919 -0.095038 1.96498)
(-0.144675 0.0576944 1.54122)
(-0.180631 0.0161728 1.36582)
(-0.024163 0.117309 1.57503)
(-0.0568682 0.149857 1.33093)
(-0.0123796 0.0455338 1.78916)
(0.021615 0.0190678 1.66494)
(-0.0281895 0.00374848 1.21387)
(0.142163 -0.002338 1.41523)
(0.107164 -0.0951002 1.97373)
(0.0647037 -0.0428955 1.39818)
(-0.234665 0.230592 1.26364)
(0.0174483 0.000602485 2.09091)
(-0.0350645 -0.1464 2.45196)
(-0.015368 -0.000460254 1.83025)
(-0.0449774 -0.0567318 1.78763)
(0.00419269 0.00636003 2.20474)
(0.0436977 -0.068063 1.97171)
(-0.0253949 -0.0509088 2.30614)
(-0.0723233 -0.12392 2.57704)
(-0.0770839 -0.0655506 1.99786)
(-0.0016154 0.100211 1.7754)
(0.0367049 0.0820148 2.05057)
(0.0157517 0.0464944 1.6074)
(-0.147518 -0.090376 1.98291)
(-0.151118 0.0530883 1.53741)
(-0.197694 0.00358426 1.37582)
(-0.0539589 0.118791 1.59739)
(-0.0555563 0.133074 1.33109)
(-0.0256374 0.0298075 1.81713)
(-0.00924684 0.0197276 1.69884)
(-0.0511625 0.0170761 1.22207)
(0.186758 0.0026751 1.48435)
(0.114252 -0.0817441 1.97403)
(0.0962238 -0.0850046 1.47146)
(-0.176548 0.149212 1.30344)
(-0.025459 0.18928 1.70939)
(-0.0246386 -0.146983 2.46437)
(0.00574842 -0.0255089 1.84663)
(-0.0593737 -0.0716765 1.81771)
(0.00050893 0.0312576 2.19679)
(0.0387127 -0.0624767 2.02667)
(-0.0267196 -0.0497583 2.38528)
(-0.0678715 -0.127837 2.59438)
(-0.0389152 -0.0408049 1.93764)
(-0.0117611 0.0869034 1.73223)
(0.0317556 0.0870518 2.04281)
(-0.0230792 0.0313285 1.54507)
(-0.151739 -0.0824595 2.01897)
(-0.14544 0.0513128 1.54163)
(-0.195782 -0.0071447 1.38029)
(-0.0784465 0.113607 1.61409)
(-0.0444575 0.097851 1.31722)
(-0.0406208 0.0137139 1.83299)
(-0.0314584 0.0271404 1.72407)
(-0.0726657 0.0240056 1.22838)
(0.23693 0.0101382 1.53709)
(0.102348 -0.0723687 1.96916)
(0.108258 -0.110263 1.52339)
(-0.12228 0.0652587 1.32932)
(-0.0429513 0.0569657 1.40492)
(0.000296761 -0.133764 2.45779)
(0.0482093 -0.0407662 1.8425)
(-0.0342528 -0.084891 1.87236)
(-0.0156673 0.031626 2.19819)
(0.0274966 -0.0927191 2.02136)
(-0.0251252 -0.0360584 2.4514)
(-0.06186 -0.116435 2.6089)
(0.0104568 -0.0121843 1.86496)
(-0.0256142 0.0629833 1.70082)
(0.0233155 0.085765 2.04942)
(-0.0463733 0.0502454 1.47926)
(-0.12581 -0.0567842 2.07196)
(-0.106607 0.0528261 1.56893)
(-0.170785 -0.0178158 1.38377)
(-0.0886817 0.109726 1.62524)
(-0.0359285 0.0747056 1.28136)
(-0.0457656 -0.0013207 1.83094)
(-0.0186969 0.0140654 1.75198)
(-0.0709148 0.0192593 1.22624)