/*--------------------------------*- C++ -*----------------------------------*\
| =========                 |                                                 |
| \\      /  F ield         | OpenFOAM: The Open Source CFD Toolbox           |
|  \\    /   O peration     | Version:  5.x                                   |
|   \\  /    A nd           | Web:      www.OpenFOAM.org                      |
|    \\/     M anipulation  |                                                 |
\*---------------------------------------------------------------------------*/
FoamFile
{
    version     2.0;
    format      ascii;
    class       volVectorField;
    location    "2";
    object      Us;
}
// * * * * * * * * * * * * * * * * * * * * * * * * * * * * * * * * * * * * * //

dimensions      [0 1 -1 0 0 0 0];

internalField   nonuniform List<vector> 
10571
(
(-0.0194168 0.0275037 -0.207338)
(0.0549183 -0.0132912 -0.139882)
(0.00944851 0.0873633 0.175642)
(-0.0614984 0.215447 0.0768483)
(-0.051578 0.163265 -0.105159)
(0.0739748 0.108698 0.0124672)
(0.128699 0.0192549 0.120234)
(-0.155774 0.326776 0.123719)
(-0.16455 0.213888 0.162031)
(-0.05693 0.013257 0.0376213)
(0.0217209 0.074685 -0.265817)
(0.127627 -0.01377 0.0836719)
(0.269311 -0.00897369 0.136538)
(-0.0999994 0.0453278 0.151692)
(-0.211816 0.0186869 0.08176)
(-0.0947586 -0.0657724 -0.131353)
(0.0660909 -0.0313464 -0.0613046)
(0.131229 -0.155981 0.143877)
(0.054812 -0.0808535 0.136843)
(-0.203238 0.0290223 0.0816304)
(-0.0483267 0.00356368 -0.167855)
(-0.00427373 -0.0596112 -0.165143)
(0.0781221 -0.0676633 -0.0165209)
(0.146771 -0.105962 -0.00611262)
(-0.00913332 -0.000207911 -0.46339)
(0.0547117 -0.0895829 -0.221186)
(0.0549668 0.0401794 0.0746531)
(0.204378 -0.0325283 0.186354)
(0.0491931 0.0258907 -0.388171)
(-0.0205156 0.0407476 -0.0919634)
(0.0763332 0.00593821 -0.0108519)
(-0.0213998 0.056397 0.173326)
(0.0285487 0.033652 0.104038)
(0.0360556 -0.0197224 -0.109433)
(0.0118711 0.0553811 -0.222238)
(0.0378537 -0.0155588 0.0962583)
(0.164244 0.0206725 0.145458)
(0.0765794 0.0596821 0.19531)
(-0.0132698 -0.0391677 0.102063)
(0.00217717 -0.0360218 -0.472339)
(0.0601248 0.0808287 -0.139946)
(0.0620778 -0.00430244 0.142569)
(0.0711402 0.0143218 0.13449)
(-0.0288176 -0.0657296 0.152579)
(0.0145744 -0.0474755 -0.333411)
(0.00377949 -0.00518223 -0.297603)
(0.0162775 0.0101424 -0.0513983)
(0.0920476 -0.0544419 -0.0891486)
(0.0184316 -0.000427597 -0.377783)
(-0.0191953 -0.0224258 -0.125692)
(0.0670371 -0.0486372 0.155748)
(0.160102 -0.0428522 0.272013)
(0.00849922 1.50662e-05 -0.442747)
(-0.063824 0.0463716 -0.158023)
(-0.0754359 0.0296704 -0.152622)
(0.00926873 0.00466548 0.191021)
(0.0667923 0.0171765 0.146133)
(0.0747176 -0.0315266 -0.00459776)
(-0.00558187 0.00974739 -0.0981787)
(-0.116928 0.0903285 0.12867)
(-0.0342021 0.0955439 0.045644)
(-0.000253236 0.100127 0.294085)
(0.00706477 -0.0270867 0.158262)
(0.00790224 0.0141391 -0.402715)
(0.00857191 0.0934397 0.0308324)
(-0.00518833 0.148683 0.142042)
(0.0245984 0.115403 0.160199)
(0.0271799 -0.0355333 0.254519)
(0.012598 -0.0150827 -0.34633)
(-0.0553595 0.0116138 -0.131372)
(0.0158507 0.0461584 -0.007471)
(0.0852883 -0.0369459 -0.0869274)
(0.0314225 0.0104568 -0.259641)
(-0.0790932 0.0855034 -0.123709)
(0.00167971 -0.0599829 0.16377)
(0.147579 -0.142642 0.306057)
(-0.0326782 -0.0332111 -0.340987)
(0.0177111 -0.00449526 -0.232198)
(-0.1385 0.0241559 -0.228967)
(0.0120113 -0.0229337 0.204591)
(0.0805587 -0.000783161 0.222885)
(0.0036671 -0.0233003 -0.0695971)
(0.0111779 -0.0146632 -0.217432)
(-0.0640852 -0.0838443 0.20495)
(-0.0890295 0.0321231 0.055407)
(-0.000842975 0.0962798 0.233819)
(0.0580947 -0.0239943 0.313022)
(0.00472874 0.0526412 -0.303296)
(-0.0607014 0.025793 0.170097)
(0.033813 0.0864067 0.153664)
(0.0450089 0.120077 0.129414)
(0.0572926 -0.0728497 0.249819)
(0.0358486 -0.0836497 -0.273812)
(-0.0731336 0.00468137 0.0287273)
(-0.0250072 0.0663294 0.0454277)
(0.052876 -0.0191394 -0.0385137)
(0.0408951 0.0113564 -0.169354)
(-0.0330595 -0.012405 -0.342987)
(-0.10693 0.0700863 0.0662069)
(0.10113 -0.126408 0.392195)
(0.0531607 -0.0623955 -0.159278)
(-0.0264213 0.00389275 -0.293329)
(-0.0961015 0.0549807 -0.205798)
(-0.000860658 0.0402619 0.0616011)
(0.0996886 0.0127574 0.216189)
(0.0112522 0.0177415 -0.111782)
(0.00026074 -0.0844379 -0.420145)
(0.0131423 -0.104357 0.0868651)
(-0.106006 0.0340083 0.00152869)
(-0.0100854 0.106216 0.0987143)
(0.0910959 0.0409233 0.330535)
(-0.0308157 0.0116927 -0.247177)
(-0.00331935 -0.0397632 0.167208)
(-0.00971623 0.0583014 0.127887)
(-0.0038397 0.0955981 0.134526)
(0.0841107 0.0234801 0.334463)
(0.0444104 -0.0498458 -0.293399)
(-0.0461946 -0.00283662 0.0476439)
(-0.00496012 0.024851 0.0652536)
(0.0318636 -0.0143321 -0.00575969)
(0.0220594 -0.100438 -0.0186023)
(0.0713999 -0.0492337 -0.366037)
(-0.143843 0.0638751 -0.120679)
(0.0146127 -0.0654308 0.286083)
(0.185338 -0.0770969 0.0923203)
(0.00570104 -0.107582 -0.296004)
(0.0261652 0.018068 -0.297061)
(-0.0152436 0.041807 -0.0986027)
(0.0258616 0.0366912 0.0858914)
(-0.00858543 0.038753 -0.0833893)
(-0.00243363 0.00146609 -0.000998042)
(-0.00192437 -0.0941386 -0.42154)
(-0.0214411 -0.053296 -0.148836)
(0.0329447 -0.039919 -0.163825)
(-0.0436877 0.0349115 0.0750364)
(0.0550339 0.0597793 0.370768)
(-0.0475713 -0.0236069 -0.149051)
(-0.00319797 -0.000711096 -0.00174621)
(0.0397536 -0.0423747 -0.0704268)
(-0.0425256 0.0282715 0.119654)
(-0.0448139 0.0701549 0.0897844)
(0.0564153 0.0964455 0.320524)
(0.0339677 -0.0466948 -0.279004)
(-0.0327358 0.0134211 -0.0882375)
(-0.0121375 -0.0127442 -0.0807209)
(0.0325386 0.0353782 -0.125262)
(0 0 0)
(0.0494853 -0.0517835 -0.324767)
(0 0 0)
(0.0600474 0.0443286 0.00673974)
(-0.0487291 -0.117845 0.228265)
(-0.0199488 -0.1366 -0.296871)
(0.0190578 -0.0690587 -0.242492)
(0.0301805 0.00780466 -0.261451)
(0.0287732 0.00471558 0.00319803)
(0.2531 0.0943757 0.301192)
(-0.0100491 0.00425592 -0.0083965)
(-0.0112885 -0.10606 -0.376612)
(0.00931371 -0.00668185 -0.12492)
(0.0778966 -0.0500399 -0.18997)
(0.0195836 -0.0394065 -0.217118)
(0.0623651 0.0072956 0.272974)
(0.116343 -0.061213 -0.0962206)
(-0.0139146 -2.02156e-05 -0.0120705)
(-0.0237728 -0.062984 -0.364416)
(-0.013463 -0.0316052 -0.157683)
(0.0054946 -0.0209383 -0.29542)
(0.0329844 0.0578452 0.0778281)
(0.153429 -0.00885916 -0.24304)
(-0.0089286 -0.00469266 -0.0075277)
(-0.00920385 -0.00783941 -0.304426)
(0.0119559 -0.00108666 -0.393617)
(0.0687252 -0.018207 -0.389666)
(0 0 0)
(0 0 0)
(0 0 0)
(-0.150652 -0.10675 -0.0995691)
(-0.0263832 -0.023565 0.0592979)
(-0.0121547 -0.107326 -0.231833)
(0.00470123 -0.154042 -0.184882)
(0.00676584 -0.038018 -0.142243)
(-0.0027014 0.0274507 -0.0665003)
(0 0 0)
(0 0 0)
(-0.00918083 -0.0703559 -0.26071)
(-0.0120366 -0.0739209 -0.0700135)
(0.00711299 -0.0875333 -0.131573)
(0.0356518 -0.0573341 -0.247105)
(0.0956416 -0.0292897 -0.00774009)
(0 0 0)
(0 0 0)
(-0.0433787 -0.0784644 -0.287181)
(-0.0403837 -0.0276954 -0.114986)
(0.0366091 -0.0124161 -0.288124)
(0.0902418 -0.00480628 -0.236802)
(0 0 0)
(0 0 0)
(0.0313721 -0.00753616 -0.324656)
(0.0658521 -0.0236528 -0.363298)
(0.015125 -0.101895 -0.305875)
(0 0 0)
(0 0 0)
(0 0 0)
(-0.165473 -0.048948 0.0464564)
(-0.0315294 -0.0660456 0.150866)
(-0.0669837 -0.176435 -0.110186)
(0.022946 -0.136763 -0.104509)
(-0.0209289 -0.0666277 -0.0405751)
(0 0 0)
(0 0 0)
(0 0 0)
(-0.109085 -0.100568 -0.234244)
(-0.0309404 -0.116325 -0.0558363)
(-0.00029598 -0.0961397 -0.0710828)
(0.031732 -0.0486279 -0.198848)
(0 0 0)
(0 0 0)
(0 0 0)
(-0.0674805 -0.0295625 -0.188425)
(-0.0224625 -0.033254 -0.00306605)
(0.0363367 -0.0111881 -0.240762)
(0 0 0)
(0 0 0)
(0.0130008 -0.00607191 -0.296126)
(0.0500508 0.0282419 -0.308762)
(0 0 0)
(0 0 0)
(0 0 0)
(0 0 0)
(0 0 0)
(-0.0424046 -0.0961965 0.308446)
(0 0 0)
(-0.0246322 -0.138036 -0.0672672)
(-0.0800189 0.0838002 0.314077)
(-0.00831945 0.0958824 0.363103)
(0 0 0)
(-0.113826 -0.075215 -0.207678)
(-0.0499315 -0.114915 0.039138)
(-0.0169992 -0.0565743 -0.0110619)
(0.0229825 -0.063257 -0.0909638)
(0 0 0)
(0 0 0)
(-0.06989 -0.0622106 -0.111906)
(-0.0146736 -0.00640994 -0.0208799)
(0.0278972 -0.0173717 -0.11047)
(0 0 0)
(0 0 0)
(-0.0340834 0.0368911 -0.165557)
(0.034154 0.0473598 -0.22099)
(0 0 0)
(0 0 0)
(0 0 0)
(0 0 0)
(0 0 0)
(-0.0706512 -0.059048 0.431644)
(0 0 0)
(0 0 0)
(-0.0883168 0.0496206 0.469134)
(-9.7557e-15 5.49429e-15 5.24884e-14)
(0 0 0)
(0 0 0)
(-0.0690474 -0.107542 0.0330461)
(-0.0163488 -0.0626046 0.0144746)
(0 0 0)
(0 0 0)
(0 0 0)
(-0.0891056 -0.0296292 -0.0177853)
(-0.018351 -0.00807242 -0.00988848)
(0.014793 -0.0130328 -0.0824817)
(0 0 0)
(0 0 0)
(-0.0292915 0.0487069 -0.069188)
(0 0 0)
(0 0 0)
(0 0 0)
(0 0 0)
(0 0 0)
(0 0 0)
(0 0 0)
(0 0 0)
(0 0 0)
(0 0 0)
(0 0 0)
(0 0 0)
(0 0 0)
(0 0 0)
(-0.0381383 -0.0586746 -0.00349853)
(0 0 0)
(0 0 0)
(0 0 0)
(0 0 0)
(0 0 0)
(0.00672383 -0.0300527 0.0207382)
(0 0 0)
(0 0 0)
(0 0 0)
(0 0 0)
(0 0 0)
(0 0 0)
(0 0 0)
(0 0 0)
(0 0 0)
(0 0 0)
(0 0 0)
(0 0 0)
(0 0 0)
(0 0 0)
(0 0 0)
(0 0 0)
(0 0 0)
(0 0 0)
(0 0 0)
(0 0 0)
(0 0 0)
(0 0 0)
(0 0 0)
(0 0 0)
(0 0 0)
(0 0 0)
(0 0 0)
(0 0 0)
(0 0 0)
(0 0 0)
(0 0 0)
(0 0 0)
(0 0 0)
(0 0 0)
(0 0 0)
(0 0 0)
(0 0 0)
(0 0 0)
(0 0 0)
(0 0 0)
(0 0 0)
(0 0 0)
(0 0 0)
(0 0 0)
(0 0 0)
(0 0 0)
(0 0 0)
(0 0 0)
(0 0 0)
(0 0 0)
(0 0 0)
(0 0 0)
(0 0 0)
(0 0 0)
(0 0 0)
(0 0 0)
(0 0 0)
(0 0 0)
(0 0 0)
(0 0 0)
(0 0 0)
(0 0 0)
(0 0 0)
(0 0 0)
(0 0 0)
(0 0 0)
(0 0 0)
(0 0 0)
(0 0 0)
(0 0 0)
(0 0 0)
(0 0 0)
(0 0 0)
(0 0 0)
(0 0 0)
(0 0 0)
(0 0 0)
(0 0 0)
(0 0 0)
(0 0 0)
(0 0 0)
(0 0 0)
(0 0 0)
(0 0 0)
(0 0 0)
(0 0 0)
(0 0 0)
(0 0 0)
(0 0 0)
(0 0 0)
(0 0 0)
(0 0 0)
(0 0 0)
(0 0 0)
(0 0 0)
(0 0 0)
(0 0 0)
(0 0 0)
(0 0 0)
(0 0 0)
(0 0 0)
(0 0 0)
(0 0 0)
(0 0 0)
(0 0 0)
(0 0 0)
(0 0 0)
(0 0 0)
(0 0 0)
(0 0 0)
(0 0 0)
(0 0 0)
(0 0 0)
(0 0 0)
(0 0 0)
(0 0 0)
(0 0 0)
(0 0 0)
(0 0 0)
(0 0 0)
(0 0 0)
(0 0 0)
(0 0 0)
(0 0 0)
(0 0 0)
(0 0 0)
(0 0 0)
(0 0 0)
(0 0 0)
(0 0 0)
(0 0 0)
(0 0 0)
(0 0 0)
(0 0 0)
(0 0 0)
(0 0 0)
(0 0 0)
(0 0 0)
(0 0 0)
(0 0 0)
(0 0 0)
(0 0 0)
(0 0 0)
(0 0 0)
(0 0 0)
(0 0 0)
(0 0 0)
(0 0 0)
(0 0 0)
(0 0 0)
(0 0 0)
(0 0 0)
(0 0 0)
(0 0 0)
(0 0 0)
(0 0 0)
(0 0 0)
(0 0 0)
(0 0 0)
(0 0 0)
(0 0 0)
(0 0 0)
(0 0 0)
(0 0 0)
(0 0 0)
(0 0 0)
(0 0 0)
(0 0 0)
(0 0 0)
(0 0 0)
(0 0 0)
(0 0 0)
(0 0 0)
(0 0 0)
(0 0 0)
(0 0 0)
(0 0 0)
(0 0 0)
(0 0 0)
(0 0 0)
(0 0 0)
(0 0 0)
(0 0 0)
(0 0 0)
(0 0 0)
(0 0 0)
(0 0 0)
(0 0 0)
(0 0 0)
(0 0 0)
(0 0 0)
(0 0 0)
(0 0 0)
(0 0 0)
(0 0 0)
(0 0 0)
(0 0 0)
(0 0 0)
(0 0 0)
(0 0 0)
(0 0 0)
(0 0 0)
(0 0 0)
(0 0 0)
(0 0 0)
(0 0 0)
(0 0 0)
(0 0 0)
(0 0 0)
(0 0 0)
(0 0 0)
(0 0 0)
(0 0 0)
(0 0 0)
(0 0 0)
(0 0 0)
(0 0 0)
(0 0 0)
(0 0 0)
(0 0 0)
(0 0 0)
(0 0 0)
(0 0 0)
(0 0 0)
(0 0 0)
(0 0 0)
(0 0 0)
(0 0 0)
(0 0 0)
(0 0 0)
(0 0 0)
(0 0 0)
(0 0 0)
(0 0 0)
(0 0 0)
(0 0 0)
(0 0 0)
(0 0 0)
(0 0 0)
(0 0 0)
(0 0 0)
(0 0 0)
(0 0 0)
(0 0 0)
(0 0 0)
(0 0 0)
(0 0 0)
(0 0 0)
(0 0 0)
(0 0 0)
(0 0 0)
(0 0 0)
(0 0 0)
(0 0 0)
(0 0 0)
(0 0 0)
(0 0 0)
(0 0 0)
(0 0 0)
(0 0 0)
(0 0 0)
(0 0 0)
(0 0 0)
(0 0 0)
(0 0 0)
(0 0 0)
(0 0 0)
(0 0 0)
(0 0 0)
(0 0 0)
(0 0 0)
(0 0 0)
(0 0 0)
(0 0 0)
(0 0 0)
(0 0 0)
(0 0 0)
(0 0 0)
(0 0 0)
(0 0 0)
(0 0 0)
(0 0 0)
(0 0 0)
(0 0 0)
(0 0 0)
(0 0 0)
(0 0 0)
(0 0 0)
(0 0 0)
(0 0 0)
(0 0 0)
(0 0 0)
(0 0 0)
(0 0 0)
(0 0 0)
(0 0 0)
(0 0 0)
(0 0 0)
(0 0 0)
(0 0 0)
(0 0 0)
(0 0 0)
(0 0 0)
(0 0 0)
(0 0 0)
(0 0 0)
(0 0 0)
(0 0 0)
(0 0 0)
(0 0 0)
(0 0 0)
(0 0 0)
(0 0 0)
(0 0 0)
(0 0 0)
(0 0 0)
(0 0 0)
(0 0 0)
(0 0 0)
(0 0 0)
(0 0 0)
(0 0 0)
(0 0 0)
(0 0 0)
(0 0 0)
(0 0 0)
(0 0 0)
(0 0 0)
(0 0 0)
(0 0 0)
(0 0 0)
(0 0 0)
(0 0 0)
(0 0 0)
(0 0 0)
(0 0 0)
(0 0 0)
(0 0 0)
(0 0 0)
(0 0 0)
(0 0 0)
(0 0 0)
(0 0 0)
(0 0 0)
(0 0 0)
(0 0 0)
(0 0 0)
(0 0 0)
(0 0 0)
(0 0 0)
(0 0 0)
(0 0 0)
(0 0 0)
(0 0 0)
(0 0 0)
(0 0 0)
(0 0 0)
(0 0 0)
(0 0 0)
(0 0 0)
(0 0 0)
(0 0 0)
(0 0 0)
(0 0 0)
(0 0 0)
(0 0 0)
(0 0 0)
(0 0 0)
(0 0 0)
(0 0 0)
(0 0 0)
(0 0 0)
(0 0 0)
(0 0 0)
(0 0 0)
(0 0 0)
(0 0 0)
(0 0 0)
(0 0 0)
(0 0 0)
(0 0 0)
(0 0 0)
(0 0 0)
(0 0 0)
(0 0 0)
(0 0 0)
(0 0 0)
(0 0 0)
(0 0 0)
(0 0 0)
(0 0 0)
(0 0 0)
(0 0 0)
(0 0 0)
(0 0 0)
(0 0 0)
(0 0 0)
(0 0 0)
(0 0 0)
(0 0 0)
(0 0 0)
(0 0 0)
(0 0 0)
(0 0 0)
(0 0 0)
(0 0 0)
(0 0 0)
(0 0 0)
(0 0 0)
(0 0 0)
(0 0 0)
(0 0 0)
(0 0 0)
(0 0 0)
(0 0 0)
(0 0 0)
(0 0 0)
(0 0 0)
(0 0 0)
(0 0 0)
(0 0 0)
(0 0 0)
(0 0 0)
(0 0 0)
(0 0 0)
(0 0 0)
(0 0 0)
(0 0 0)
(0 0 0)
(0 0 0)
(0 0 0)
(0 0 0)
(0 0 0)
(0 0 0)
(0 0 0)
(0 0 0)
(0 0 0)
(0 0 0)
(0 0 0)
(0 0 0)
(0 0 0)
(0 0 0)
(0 0 0)
(0 0 0)
(0 0 0)
(0 0 0)
(0 0 0)
(0 0 0)
(0 0 0)
(0 0 0)
(0 0 0)
(0 0 0)
(0 0 0)
(0 0 0)
(0 0 0)
(0 0 0)
(0 0 0)
(0 0 0)
(0 0 0)
(0 0 0)
(0 0 0)
(0 0 0)
(0 0 0)
(0 0 0)
(0 0 0)
(0 0 0)
(0 0 0)
(0 0 0)
(0 0 0)
(0 0 0)
(0 0 0)
(0 0 0)
(0 0 0)
(0 0 0)
(0 0 0)
(0 0 0)
(0 0 0)
(0 0 0)
(0 0 0)
(0 0 0)
(0 0 0)
(0 0 0)
(0 0 0)
(0 0 0)
(0 0 0)
(0 0 0)
(0 0 0)
(0 0 0)
(0 0 0)
(0 0 0)
(0 0 0)
(0 0 0)
(0 0 0)
(0 0 0)
(0 0 0)
(0 0 0)
(0 0 0)
(0 0 0)
(0 0 0)
(0 0 0)
(0 0 0)
(0 0 0)
(0 0 0)
(0 0 0)
(0 0 0)
(0 0 0)
(0 0 0)
(0 0 0)
(0 0 0)
(0 0 0)
(0 0 0)
(0 0 0)
(0 0 0)
(0 0 0)
(0 0 0)
(0 0 0)
(0 0 0)
(0 0 0)
(0 0 0)
(0 0 0)
(0 0 0)
(0 0 0)
(0 0 0)
(0 0 0)
(0 0 0)
(0 0 0)
(0 0 0)
(0 0 0)
(0 0 0)
(0 0 0)
(0 0 0)
(0 0 0)
(0 0 0)
(0 0 0)
(0 0 0)
(0 0 0)
(0 0 0)
(0 0 0)
(0 0 0)
(0 0 0)
(0 0 0)
(0 0 0)
(0 0 0)
(0 0 0)
(0 0 0)
(0 0 0)
(0 0 0)
(0 0 0)
(0 0 0)
(0 0 0)
(0 0 0)
(0 0 0)
(0 0 0)
(0 0 0)
(0 0 0)
(0 0 0)
(0 0 0)
(0 0 0)
(0 0 0)
(0 0 0)
(0 0 0)
(0 0 0)
(0 0 0)
(0 0 0)
(0 0 0)
(0 0 0)
(0 0 0)
(0 0 0)
(0 0 0)
(0 0 0)
(0 0 0)
(0 0 0)
(0 0 0)
(0 0 0)
(0 0 0)
(0 0 0)
(0 0 0)
(0 0 0)
(0 0 0)
(0 0 0)
(0 0 0)
(0 0 0)
(0 0 0)
(0 0 0)
(0 0 0)
(0 0 0)
(0 0 0)
(0 0 0)
(0 0 0)
(0 0 0)
(0 0 0)
(0 0 0)
(0 0 0)
(0 0 0)
(0 0 0)
(0 0 0)
(0 0 0)
(0 0 0)
(0 0 0)
(0 0 0)
(0 0 0)
(0 0 0)
(0 0 0)
(0 0 0)
(0 0 0)
(0 0 0)
(0 0 0)
(0 0 0)
(0 0 0)
(0 0 0)
(0 0 0)
(0 0 0)
(0 0 0)
(0 0 0)
(0 0 0)
(0 0 0)
(0 0 0)
(0 0 0)
(0 0 0)
(0 0 0)
(0 0 0)
(0 0 0)
(0 0 0)
(0 0 0)
(0 0 0)
(0 0 0)
(0 0 0)
(0 0 0)
(0 0 0)
(0 0 0)
(0 0 0)
(0 0 0)
(0 0 0)
(0 0 0)
(0 0 0)
(0 0 0)
(0 0 0)
(0 0 0)
(0 0 0)
(0 0 0)
(0 0 0)
(0 0 0)
(0 0 0)
(0 0 0)
(0 0 0)
(0 0 0)
(0 0 0)
(0 0 0)
(0 0 0)
(0 0 0)
(0 0 0)
(0 0 0)
(0 0 0)
(0 0 0)
(0 0 0)
(0 0 0)
(0 0 0)
(0 0 0)
(0 0 0)
(0 0 0)
(0 0 0)
(0 0 0)
(0 0 0)
(0 0 0)
(0 0 0)
(0 0 0)
(0 0 0)
(0 0 0)
(0 0 0)
(0 0 0)
(0 0 0)
(0 0 0)
(0 0 0)
(0 0 0)
(0 0 0)
(0 0 0)
(0 0 0)
(0 0 0)
(0 0 0)
(0 0 0)
(0 0 0)
(0 0 0)
(0 0 0)
(0 0 0)
(0 0 0)
(0 0 0)
(0 0 0)
(0 0 0)
(0 0 0)
(0 0 0)
(0 0 0)
(0 0 0)
(0 0 0)
(0 0 0)
(0 0 0)
(0 0 0)
(0 0 0)
(0 0 0)
(0 0 0)
(0 0 0)
(0 0 0)
(0 0 0)
(0 0 0)
(0 0 0)
(0 0 0)
(0 0 0)
(0 0 0)
(0 0 0)
(0 0 0)
(0 0 0)
(0 0 0)
(0 0 0)
(0 0 0)
(0 0 0)
(0 0 0)
(0 0 0)
(0 0 0)
(0 0 0)
(0 0 0)
(0 0 0)
(0 0 0)
(0 0 0)
(0 0 0)
(0 0 0)
(0 0 0)
(0 0 0)
(0 0 0)
(0 0 0)
(0 0 0)
(0 0 0)
(0 0 0)
(0 0 0)
(0 0 0)
(0 0 0)
(0 0 0)
(0 0 0)
(0 0 0)
(0 0 0)
(0 0 0)
(0 0 0)
(0 0 0)
(0 0 0)
(0 0 0)
(0 0 0)
(0 0 0)
(0 0 0)
(0 0 0)
(0 0 0)
(0 0 0)
(0 0 0)
(0 0 0)
(0 0 0)
(0 0 0)
(0 0 0)
(0 0 0)
(0 0 0)
(0 0 0)
(0 0 0)
(0 0 0)
(0 0 0)
(0 0 0)
(0 0 0)
(0 0 0)
(0 0 0)
(0 0 0)
(0 0 0)
(0 0 0)
(0 0 0)
(0 0 0)
(0 0 0)
(0 0 0)
(0 0 0)
(0 0 0)
(0 0 0)
(0 0 0)
(0 0 0)
(0 0 0)
(0 0 0)
(0 0 0)
(0 0 0)
(0 0 0)
(0 0 0)
(0 0 0)
(0 0 0)
(0 0 0)
(0 0 0)
(0 0 0)
(0 0 0)
(0 0 0)
(0 0 0)
(0 0 0)
(0 0 0)
(0 0 0)
(0 0 0)
(0 0 0)
(0 0 0)
(0 0 0)
(0 0 0)
(0 0 0)
(0 0 0)
(0 0 0)
(0 0 0)
(0 0 0)
(0 0 0)
(0 0 0)
(0 0 0)
(0 0 0)
(0 0 0)
(0 0 0)
(0 0 0)
(0 0 0)
(0 0 0)
(0 0 0)
(0 0 0)
(0 0 0)
(0 0 0)
(0 0 0)
(0 0 0)
(0 0 0)
(0 0 0)
(0 0 0)
(0 0 0)
(0 0 0)
(0 0 0)
(0 0 0)
(0 0 0)
(0 0 0)
(0 0 0)
(0 0 0)
(0 0 0)
(0 0 0)
(0 0 0)
(0 0 0)
(0 0 0)
(0 0 0)
(0 0 0)
(0 0 0)
(0 0 0)
(0 0 0)
(0 0 0)
(0 0 0)
(0 0 0)
(0 0 0)
(0 0 0)
(0 0 0)
(0 0 0)
(0 0 0)
(0 0 0)
(0 0 0)
(0 0 0)
(0 0 0)
(0 0 0)
(0 0 0)
(0 0 0)
(0 0 0)
(0 0 0)
(0 0 0)
(0 0 0)
(0 0 0)
(0 0 0)
(0 0 0)
(0 0 0)
(0 0 0)
(0 0 0)
(0 0 0)
(0 0 0)
(0 0 0)
(0 0 0)
(0 0 0)
(0 0 0)
(0 0 0)
(0 0 0)
(0 0 0)
(0 0 0)
(0 0 0)
(0 0 0)
(0 0 0)
(0 0 0)
(0 0 0)
(0 0 0)
(0 0 0)
(0 0 0)
(0 0 0)
(0 0 0)
(0 0 0)
(0 0 0)
(0 0 0)
(0 0 0)
(0 0 0)
(0 0 0)
(0 0 0)
(0 0 0)
(0 0 0)
(0 0 0)
(0 0 0)
(0 0 0)
(0 0 0)
(0 0 0)
(0 0 0)
(0 0 0)
(0 0 0)
(0 0 0)
(0 0 0)
(0 0 0)
(0 0 0)
(0 0 0)
(0 0 0)
(0 0 0)
(0 0 0)
(0 0 0)
(0 0 0)
(0 0 0)
(0 0 0)
(0 0 0)
(0 0 0)
(0 0 0)
(0 0 0)
(0 0 0)
(0 0 0)
(0 0 0)
(0 0 0)
(0 0 0)
(0 0 0)
(0 0 0)
(0 0 0)
(0 0 0)
(0 0 0)
(0 0 0)
(0 0 0)
(0 0 0)
(0 0 0)
(0 0 0)
(0 0 0)
(0 0 0)
(0 0 0)
(0 0 0)
(0 0 0)
(0 0 0)
(0 0 0)
(0 0 0)
(0 0 0)
(0 0 0)
(0 0 0)
(0 0 0)
(0 0 0)
(0 0 0)
(0 0 0)
(0 0 0)
(0 0 0)
(0 0 0)
(0 0 0)
(0 0 0)
(0 0 0)
(0 0 0)
(0 0 0)
(0 0 0)
(0 0 0)
(0 0 0)
(0 0 0)
(0 0 0)
(0 0 0)
(0 0 0)
(0 0 0)
(0 0 0)
(0 0 0)
(0 0 0)
(0 0 0)
(0 0 0)
(0 0 0)
(0 0 0)
(0 0 0)
(0 0 0)
(0 0 0)
(0 0 0)
(0 0 0)
(0 0 0)
(0 0 0)
(0 0 0)
(0 0 0)
(0 0 0)
(0 0 0)
(0 0 0)
(0 0 0)
(0 0 0)
(0 0 0)
(0 0 0)
(0 0 0)
(0 0 0)
(0 0 0)
(0 0 0)
(0 0 0)
(0 0 0)
(0 0 0)
(0 0 0)
(0 0 0)
(0 0 0)
(0 0 0)
(0 0 0)
(0 0 0)
(0 0 0)
(0 0 0)
(0 0 0)
(0 0 0)
(0 0 0)
(0 0 0)
(0 0 0)
(0 0 0)
(0 0 0)
(0 0 0)
(0 0 0)
(0 0 0)
(0 0 0)
(0 0 0)
(0 0 0)
(0 0 0)
(0 0 0)
(0 0 0)
(0 0 0)
(0 0 0)
(0 0 0)
(0 0 0)
(0 0 0)
(0 0 0)
(0 0 0)
(0 0 0)
(0 0 0)
(0 0 0)
(0 0 0)
(0 0 0)
(0 0 0)
(0 0 0)
(0 0 0)
(0 0 0)
(0 0 0)
(0 0 0)
(0 0 0)
(0 0 0)
(0 0 0)
(0 0 0)
(0 0 0)
(0 0 0)
(0 0 0)
(0 0 0)
(0 0 0)
(0 0 0)
(0 0 0)
(0 0 0)
(0 0 0)
(0 0 0)
(0 0 0)
(0 0 0)
(0 0 0)
(0 0 0)
(0 0 0)
(0 0 0)
(0 0 0)
(0 0 0)
(0 0 0)
(0 0 0)
(0 0 0)
(0 0 0)
(0 0 0)
(0 0 0)
(0 0 0)
(0 0 0)
(0 0 0)
(0 0 0)
(0 0 0)
(0 0 0)
(0 0 0)
(0 0 0)
(0 0 0)
(0 0 0)
(0 0 0)
(0 0 0)
(0 0 0)
(0 0 0)
(0 0 0)
(0 0 0)
(0 0 0)
(0 0 0)
(0 0 0)
(0 0 0)
(0 0 0)
(0 0 0)
(0 0 0)
(0 0 0)
(0 0 0)
(0 0 0)
(0 0 0)
(0 0 0)
(0 0 0)
(0 0 0)
(0 0 0)
(0 0 0)
(0 0 0)
(0 0 0)
(0 0 0)
(0 0 0)
(0 0 0)
(0 0 0)
(0 0 0)
(0 0 0)
(0 0 0)
(0 0 0)
(0 0 0)
(0 0 0)
(0 0 0)
(0 0 0)
(0 0 0)
(0 0 0)
(0 0 0)
(0 0 0)
(0 0 0)
(0 0 0)
(0 0 0)
(0 0 0)
(0 0 0)
(0 0 0)
(0 0 0)
(0 0 0)
(0 0 0)
(0 0 0)
(0 0 0)
(0 0 0)
(0 0 0)
(0 0 0)
(0 0 0)
(0 0 0)
(0 0 0)
(0 0 0)
(0 0 0)
(0 0 0)
(0 0 0)
(0 0 0)
(0 0 0)
(0 0 0)
(0 0 0)
(0 0 0)
(0 0 0)
(0 0 0)
(0 0 0)
(0 0 0)
(0 0 0)
(0 0 0)
(0 0 0)
(0 0 0)
(0 0 0)
(0 0 0)
(0 0 0)
(0 0 0)
(0 0 0)
(0 0 0)
(0 0 0)
(0 0 0)
(0 0 0)
(0 0 0)
(0 0 0)
(0 0 0)
(0 0 0)
(0 0 0)
(0 0 0)
(0 0 0)
(0 0 0)
(0 0 0)
(0 0 0)
(0 0 0)
(0 0 0)
(0 0 0)
(0 0 0)
(0 0 0)
(0 0 0)
(0 0 0)
(0 0 0)
(0 0 0)
(0 0 0)
(0 0 0)
(0 0 0)
(0 0 0)
(0 0 0)
(0 0 0)
(0 0 0)
(0 0 0)
(0 0 0)
(0 0 0)
(0 0 0)
(0 0 0)
(0 0 0)
(0 0 0)
(0 0 0)
(0 0 0)
(0 0 0)
(0 0 0)
(0 0 0)
(0 0 0)
(0 0 0)
(0 0 0)
(0 0 0)
(0 0 0)
(0 0 0)
(0 0 0)
(0 0 0)
(0 0 0)
(0 0 0)
(0 0 0)
(0 0 0)
(0 0 0)
(0 0 0)
(0 0 0)
(0 0 0)
(0 0 0)
(0 0 0)
(0 0 0)
(0 0 0)
(0 0 0)
(0 0 0)
(0 0 0)
(0 0 0)
(0 0 0)
(0 0 0)
(0 0 0)
(0 0 0)
(0 0 0)
(0 0 0)
(0 0 0)
(0 0 0)
(0 0 0)
(0 0 0)
(0 0 0)
(0 0 0)
(0 0 0)
(0 0 0)
(0 0 0)
(0 0 0)
(0 0 0)
(0 0 0)
(0 0 0)
(0 0 0)
(0 0 0)
(0 0 0)
(0 0 0)
(0 0 0)
(0 0 0)
(0 0 0)
(0 0 0)
(0 0 0)
(0 0 0)
(0 0 0)
(0 0 0)
(0 0 0)
(0 0 0)
(0 0 0)
(0 0 0)
(0 0 0)
(0 0 0)
(0 0 0)
(0 0 0)
(0 0 0)
(0 0 0)
(0 0 0)
(0 0 0)
(0 0 0)
(0 0 0)
(0 0 0)
(0 0 0)
(0 0 0)
(0 0 0)
(0 0 0)
(0 0 0)
(0 0 0)
(0 0 0)
(0 0 0)
(0 0 0)
(0 0 0)
(0 0 0)
(0 0 0)
(0 0 0)
(0 0 0)
(0 0 0)
(0 0 0)
(0 0 0)
(0 0 0)
(0 0 0)
(0 0 0)
(0 0 0)
(0 0 0)
(0 0 0)
(0 0 0)
(0 0 0)
(0 0 0)
(0 0 0)
(0 0 0)
(0 0 0)
(0 0 0)
(0 0 0)
(0 0 0)
(0 0 0)
(0 0 0)
(0 0 0)
(0 0 0)
(0 0 0)
(0 0 0)
(0 0 0)
(0 0 0)
(0 0 0)
(0 0 0)
(0 0 0)
(0 0 0)
(0 0 0)
(0 0 0)
(0 0 0)
(0 0 0)
(0 0 0)
(0 0 0)
(0 0 0)
(0 0 0)
(0 0 0)
(0 0 0)
(0 0 0)
(0 0 0)
(0 0 0)
(0 0 0)
(0 0 0)
(0 0 0)
(0 0 0)
(0 0 0)
(0 0 0)
(0 0 0)
(0 0 0)
(0 0 0)
(0 0 0)
(0 0 0)
(0 0 0)
(0 0 0)
(0 0 0)
(0 0 0)
(0 0 0)
(0 0 0)
(0 0 0)
(0 0 0)
(0 0 0)
(0 0 0)
(0 0 0)
(0 0 0)
(0 0 0)
(0 0 0)
(0 0 0)
(0 0 0)
(0 0 0)
(0 0 0)
(0 0 0)
(0 0 0)
(0 0 0)
(0 0 0)
(0 0 0)
(0 0 0)
(0 0 0)
(0 0 0)
(0 0 0)
(0 0 0)
(0 0 0)
(0 0 0)
(0 0 0)
(0 0 0)
(0 0 0)
(0 0 0)
(0 0 0)
(0 0 0)
(0 0 0)
(0 0 0)
(0 0 0)
(0 0 0)
(0 0 0)
(0 0 0)
(0 0 0)
(0 0 0)
(0 0 0)
(0 0 0)
(0 0 0)
(0 0 0)
(0 0 0)
(0 0 0)
(0 0 0)
(0 0 0)
(0 0 0)
(0 0 0)
(0 0 0)
(0 0 0)
(0 0 0)
(0 0 0)
(0 0 0)
(0 0 0)
(0 0 0)
(0 0 0)
(0 0 0)
(0 0 0)
(0 0 0)
(0 0 0)
(0 0 0)
(0 0 0)
(0 0 0)
(0 0 0)
(0 0 0)
(0 0 0)
(0 0 0)
(0 0 0)
(0 0 0)
(0 0 0)
(0 0 0)
(0 0 0)
(0 0 0)
(0 0 0)
(0 0 0)
(0 0 0)
(0 0 0)
(0 0 0)
(0 0 0)
(0 0 0)
(0 0 0)
(0 0 0)
(0 0 0)
(0 0 0)
(0 0 0)
(0 0 0)
(0 0 0)
(0 0 0)
(0 0 0)
(0 0 0)
(0 0 0)
(0 0 0)
(0 0 0)
(0 0 0)
(0 0 0)
(0 0 0)
(0 0 0)
(0 0 0)
(0 0 0)
(0 0 0)
(0 0 0)
(0 0 0)
(0 0 0)
(0 0 0)
(0 0 0)
(0 0 0)
(0 0 0)
(0 0 0)
(0 0 0)
(0 0 0)
(0 0 0)
(0 0 0)
(0 0 0)
(0 0 0)
(0 0 0)
(0 0 0)
(0 0 0)
(0 0 0)
(0 0 0)
(0 0 0)
(0 0 0)
(0 0 0)
(0 0 0)
(0 0 0)
(0 0 0)
(0 0 0)
(0 0 0)
(0 0 0)
(0 0 0)
(0 0 0)
(0 0 0)
(0 0 0)
(0 0 0)
(0 0 0)
(0 0 0)
(0 0 0)
(0 0 0)
(0 0 0)
(0 0 0)
(0 0 0)
(0 0 0)
(0 0 0)
(0 0 0)
(0 0 0)
(0 0 0)
(0 0 0)
(0 0 0)
(0 0 0)
(0 0 0)
(0 0 0)
(0 0 0)
(0 0 0)
(0 0 0)
(0 0 0)
(0 0 0)
(0 0 0)
(0 0 0)
(0 0 0)
(0 0 0)
(0 0 0)
(0 0 0)
(0 0 0)
(0 0 0)
(0 0 0)
(0 0 0)
(0 0 0)
(0 0 0)
(0 0 0)
(0 0 0)
(0 0 0)
(0 0 0)
(0 0 0)
(0 0 0)
(0 0 0)
(0 0 0)
(0 0 0)
(0 0 0)
(0 0 0)
(0 0 0)
(0 0 0)
(0 0 0)
(0 0 0)
(0 0 0)
(0 0 0)
(0 0 0)
(0 0 0)
(0 0 0)
(0 0 0)
(-0.0213454 -0.00478449 0.00701024)
(-0.0711227 0.0696859 -0.105562)
(-0.0964012 0.0701651 -0.000972297)
(-0.120889 0.175888 -0.0401079)
(-0.0359344 0.044127 -0.0644004)
(-0.0998715 0.153845 -0.039798)
(-0.0683903 0.136786 -0.0748988)
(-0.00105298 0.115061 -0.0893682)
(0.0636718 0.0538001 -0.0565246)
(0.0544865 0.0471609 -0.0347271)
(0.0504856 0.020653 0.00684711)
(0.118326 0.0640164 -0.00216081)
(0.128826 0.0225741 0.0167521)
(-0.0208673 0.0835098 0.0268154)
(-0.114929 0.282162 0.0340535)
(0.011066 0.0694943 0.0226565)
(-0.0791186 0.253224 0.055253)
(-0.133273 0.302635 0.0682616)
(-0.101723 0.296678 0.00188083)
(-0.18596 0.391541 0.109121)
(-0.137332 0.370154 0.0700286)
(-0.0342826 0.231422 -0.027362)
(-0.00111386 0.121333 -0.0392227)
(-0.0757812 0.287893 0.0732698)
(-0.0386351 0.0838962 0.0190329)
(-0.0362327 -0.0816758 0.0228421)
(0.067055 0.0962214 -0.0344116)
(0.0419133 0.0561522 -0.0382567)
(0.100688 0.0504192 -0.0190464)
(0.173277 0.0143365 -0.01447)
(0.132202 -0.0325688 0.00394838)
(0.205724 -0.0536078 -0.00946785)
(0.240498 -0.0591361 0.00140077)
(0.0129182 0.0434209 0.0120182)
(-0.0322257 0.0840114 0.0233491)
(0.0606618 0.00053611 0.0126038)
(-0.0159379 0.0238014 0.0104526)
(-0.103109 0.229938 0.0518269)
(-0.211983 0.253792 0.0489342)
(-0.0528952 0.0634225 0.0281376)
(-0.201297 0.0861261 0.033842)
(-0.241078 0.113013 0.0344995)
(-0.213689 -0.0607724 0.0265159)
(-0.348674 0.00977105 0.0159496)
(-0.281622 -0.0447464 0.0225247)
(-0.132357 -0.143512 -0.00293028)
(-0.171239 -0.0781163 -0.0522399)
(-0.0575162 -0.0570783 -0.10545)
(0.0471546 0.0258974 -0.0790174)
(0.112772 0.00599667 -0.0280882)
(0.0894057 -0.042694 -0.0104663)
(0.212401 -0.00921004 0.00243695)
(0.235449 -0.00294071 0.0178154)
(0.181312 -0.0758308 0.0285963)
(0.192514 -0.0749231 0.0472015)
(0.0551045 -0.0123083 0.0124607)
(0.00781076 -0.00110068 0.00359508)
(0.0407319 -0.017114 0.0104422)
(0.0157372 -0.0123755 0.000421836)
(-0.00499265 0.0100336 0.0083464)
(-0.149828 0.0455202 0.0253807)
(0.00929769 -0.0136813 0.00629691)
(-0.101739 0.0181201 0.0241033)
(-0.372552 0.0681651 0.0213068)
(-0.29436 0.0402629 0.0301524)
(-0.374618 0.106179 0.031244)
(-0.288122 0.0858978 0.0133187)
(-0.156481 0.00657543 -0.0431557)
(-0.0520667 0.0154323 -0.091793)
(-0.128344 0.0317739 -0.055279)
(0.0398302 -0.0516405 -0.0449068)
(0.0953942 -0.0873944 -0.0119336)
(0.129621 -0.161031 0.0527748)
(0.0649011 -0.0320906 -0.0285666)
(0.0465288 -0.110456 0.0237153)
(0.0540821 -0.0758505 0.0483723)
(0.0385269 -0.0454083 0.00804914)
(0.0518955 -0.179083 0.0298755)
(0.0904482 -0.125635 0.0368049)
(0.0454846 -0.0320917 0.00359086)
(-0.00630931 -0.0455176 0.0198167)
(0.050613 -0.0323193 0.00284753)
(0.0264444 -0.0394921 0.00399993)
(-0.254043 0.0503951 0.0377971)
(-0.214693 0.11671 0.0167653)
(-0.0278944 -0.0195119 0.0089752)
(-0.0588752 0.0158456 0.00336461)
(-0.121292 0.0950863 -0.0418149)
(-0.0187965 -0.0740944 -0.0411776)
(0.0228574 -0.0965326 -0.0581003)
(0.0993694 -0.0725925 -0.0106192)
(0.0284845 -0.0295878 -0.0946146)
(0.0767192 -0.0208575 -0.00558942)
(0.0521316 -0.0149932 -2.89439e-05)
(0.0415372 -0.033227 -0.0832161)
(0.0233142 -0.0103525 -0.00139352)
(0.0586178 -0.0169045 -0.0499845)
(0.07036 -0.036251 -0.110068)
(-0.0250815 0.0342464 -0.25804)
(-0.00133621 0.0849245 0.0211058)
(-0.00265174 0.11158 -0.0718222)
(0.0183791 0.00317809 -0.359581)
(0.0784035 0.0445511 -0.0689267)
(0.107189 0.0564041 -0.139168)
(-0.0455928 0.106048 -0.128805)
(-0.0488172 0.102772 -0.257394)
(-0.0204927 -0.000680945 -0.471181)
(-0.00825807 0.0270368 -0.370459)
(-0.0155594 0.0239571 -0.46479)
(-0.0020551 0.0835226 -0.270254)
(0.0115502 0.0273495 -0.485905)
(0.0224645 0.0249392 -0.208061)
(0.00540209 -0.0237234 -0.324598)
(0.0590184 0.0381657 0.0298905)
(0.0627686 0.0346612 -0.0587448)
(0.142633 0.0241528 0.0708482)
(0.0737884 -0.0831163 -0.243171)
(0.0403704 0.0259969 0.0180215)
(0.0281583 -0.0439866 -0.166569)
(0.0554635 0.0444553 0.0665278)
(0.0221927 0.0943072 -0.147454)
(-0.100826 0.201371 0.086975)
(-0.034725 0.103262 0.056445)
(0.0197725 0.0317605 -0.315343)
(0.0542214 0.0577204 -0.30064)
(-0.114153 0.0445152 0.079765)
(-0.0412059 0.0249488 0.0567506)
(-0.0267091 0.0369599 0.0391904)
(0.00397332 0.0288905 -0.0213373)
(-0.000758892 0.0886934 -0.179917)
(0.00247497 0.124589 -0.13057)
(0.024042 0.141933 -0.0282008)
(-0.0309562 0.0175143 -0.274066)
(-0.0129207 0.130612 -0.228557)
(-0.0391024 0.136888 -0.15905)
(-0.108378 -0.0524028 -0.138667)
(-0.0330989 -0.0747418 -0.278087)
(-0.00884043 0.0518717 -0.0220425)
(-0.010309 -0.0419743 -0.363006)
(-0.0123634 -0.0364012 -0.554704)
(0.0581551 0.0406224 -0.00323902)
(0.0615602 -0.0047402 -0.0287229)
(0.0186933 0.0743529 -0.305513)
(0.0401916 0.105138 -0.0839844)
(0.0534599 0.131092 -0.21833)
(-0.0153719 -0.0230831 -0.264563)
(-0.0577011 -0.0747089 -0.195486)
(-0.00315729 -0.0671108 -0.474546)
(0.00542262 -0.0450769 -0.53113)
(-0.0158712 -0.065891 -0.402433)
(0.0295142 0.00132131 -0.114965)
(0.0719627 0.118019 -0.233097)
(0.102148 -0.0940847 0.0723558)
(0.0625758 0.00849093 -0.0890896)
(0.052384 -0.0512244 0.0306812)
(0.0691011 0.0428804 -0.118995)
(0.0689111 -0.0196159 0.0536395)
(0.0491305 0.0352934 -0.172583)
(0.0216207 -0.00806358 0.0287373)
(-0.134276 0.0244986 0.0246611)
(-0.0233641 -0.0526996 0.0684979)
(-0.00481702 -0.0275884 0.00233988)
(-0.118119 -0.0365626 0.107642)
(-0.0482037 -0.0918791 -0.0652148)
(0.0915531 -0.112999 0.0549704)
(0.112346 -0.122166 0.00817254)
(-0.00418067 -0.0514481 -0.28715)
(-0.0162783 -0.0402438 -0.0991287)
(0.0131208 -0.00679836 -0.32887)
(0.00257853 -0.0899972 -0.0594199)
(0.0187767 -0.0264187 -0.208182)
(0.014292 -0.0108881 -0.324717)
(-0.00292577 -0.0405669 -0.101085)
(0.00332939 -0.00225814 -0.251447)
(0.139937 -0.097559 0.0303426)
(0.0418259 -0.0220268 -0.171313)
(0.0119741 0.000207857 -0.031978)
(0.0842248 -0.0542372 -0.0185308)
(0.00667568 0.00457589 -0.155956)
(0.128913 -0.0897728 -0.0469865)
(0.103265 -0.0604055 -0.138208)
(0.0993084 -0.0278443 -0.114419)
(0.00884156 0.000846444 -0.366517)
(0.0938806 0.00442151 -0.0986244)
(0.0843237 0.0389177 -0.15329)
(0.00292846 0.00850537 -0.352703)
(0.110742 -0.0119399 -0.0894485)
(0.0720611 0.0290386 -0.142818)
(-0.000343231 0.00627534 -0.394424)
(0.000965289 -0.00264438 -0.516537)
(0.00812141 -0.00286517 -0.427336)
(0.00931897 -0.00561065 -0.362414)
(0.0196802 -0.00767174 -0.46433)
(0.0120022 0.00935629 -0.575635)
(0.0199664 0.0132471 -0.536527)
(-0.00833721 -0.00739542 -0.283698)
(-0.0205555 0.0226755 -0.250138)
(0.0836207 -0.0617883 -0.0732982)
(0.0109305 -0.0875467 -0.213887)
(0.0173983 0.0171637 0.0640326)
(0.0222416 -0.0589137 -0.171843)
(0.0862725 -0.07741 -0.0554221)
(-0.0273623 -0.0596047 -0.184645)
(-0.0119831 -0.0488851 0.012104)
(0.0669488 0.0314594 -0.432869)
(-0.0284243 0.0213123 0.0186072)
(0.0145925 0.0124242 0.0131921)
(0.0376048 0.0214272 -0.453797)
(0.0321247 0.023873 -0.408515)
(0.0540194 0.0406307 0.0126582)
(0.102318 0.0233277 -0.0505104)
(0.0107228 -0.0116925 -0.152172)
(-0.00899825 -0.0191753 -0.192846)
(-0.0412266 0.0261212 -0.232741)
(-0.0069431 0.0987445 -0.138537)
(-0.0555034 0.0893486 -0.159328)
(-0.0405964 0.0512718 -0.200814)
(-0.0159724 0.0499877 -0.0668296)
(-0.0621014 0.0597537 -0.0783917)
(-0.00517143 -0.0701559 -0.341531)
(-0.0148665 -0.0220883 -0.517379)
(0.0689817 -0.0452015 -0.0556987)
(0.00102594 -0.0771816 -0.251987)
(-0.0121057 0.00420641 -0.459525)
(0.0294361 0.116074 -0.188464)
(0.0636786 0.160619 -0.168847)
(-0.00786046 0.0371953 -0.147336)
(-0.0128198 0.0798091 -0.101385)
(0.0567411 0.144497 -0.0970088)
(0.006727 -0.0320612 -0.499695)
(-0.0155267 0.00821369 -0.487888)
(0.00862773 -0.00950969 -0.43733)
(0.00409062 -0.0117239 -0.443506)
(-0.0120047 0.0169219 -0.45086)
(0.0866423 0.149059 -0.202861)
(0.0663505 0.122704 -0.143207)
(0.0430812 0.0519171 0.00788351)
(0.00576111 0.0326018 -0.181151)
(-0.040202 0.0490401 -0.0316916)
(0.036437 0.0970638 -0.0657783)
(-0.0117621 0.115319 0.0389162)
(-0.0242097 0.013977 -0.119606)
(-0.0506094 0.0636811 -0.0121083)
(-0.00226662 -0.119755 -0.0902476)
(0.106938 -0.103294 -0.00373818)
(0.0947818 -0.111798 -0.0484016)
(-0.000337671 -0.0485615 0.196601)
(0.0207274 -0.111987 -0.0790735)
(0.096962 -0.0718503 -0.0384795)
(0.0787851 -0.0894627 -0.0940201)
(0.0132166 -0.0263062 -0.344654)
(0.0126563 -0.0118236 -0.322659)
(0.00157347 -0.0117243 -0.261138)
(0.00285904 -0.01665 -0.213789)
(-0.00321159 -0.0072569 -0.285654)
(-0.0284261 -0.0137917 -0.223204)
(-0.0255987 0.0361665 -0.103026)
(-0.00208807 -0.00616681 -0.24746)
(0.0628409 -0.0151543 -0.0537672)
(-0.00367646 -0.00565908 -0.179081)
(0.0293496 0.0242427 -0.0529706)
(0.0706044 0.00836833 -0.0500201)
(0.00938356 -0.00790185 -0.181804)
(0.0909165 -0.036838 -0.0973035)
(0.0871099 -0.0282792 -0.0805221)
(0.0411874 -0.0122008 -0.0855166)
(-0.00109176 0.00923883 -0.322906)
(0.0998711 -0.0182107 -0.0552644)
(0.0546395 0.0193604 -0.122184)
(-0.00212067 0.000597591 -0.275914)
(0.0643391 -0.00617227 -0.0308514)