/*--------------------------------*- C++ -*----------------------------------*\
| =========                 |                                                 |
| \\      /  F ield         | OpenFOAM: The Open Source CFD Toolbox           |
|  \\    /   O peration     | Version:  5.x                                   |
|   \\  /    A nd           | Web:      www.OpenFOAM.org                      |
|    \\/     M anipulation  |                                                 |
\*---------------------------------------------------------------------------*/
FoamFile
{
    version     2.0;
    format      ascii;
    class       volScalarField;
    location    "6";
    object      p;
}
// * * * * * * * * * * * * * * * * * * * * * * * * * * * * * * * * * * * * * //

dimensions      [0 2 -2 0 0 0 0];

internalField   nonuniform List<scalar> 
10571
(
137.188
151.327
150.131
129.701
126.767
140.898
129.665
124.392
124.17
124.83
116.239
121.236
121.549
122.838
125.62
126.521
120.802
121.799
124.945
127.296
126.939
123.751
127.403
126.883
132.372
116.756
125.323
115.356
114.403
106.859
114.174
116.396
110.932
108.748
110.468
104.632
112.462
109.744
99.7285
105.396
109.741
111.835
106.585
110.918
101.052
116.35
112.531
107.6
43.8584
24.1605
43.7474
86.6451
81.3171
69.6135
84.2641
82.911
23.7764
30.9036
85.8873
78.8819
78.0217
43.6992
10.1717
19.6142
90.5714
22.8962
10.6521
16.1363
14.9056
65.7045
32.703
18.5527
7.32067
7.37861
7.11002
20.293
7.38898
31.3031
25.7849
18.8472
5.77575
6.65947
11.7263
61.1682
11.7026
7.80719
5.75019
6.62022
11.0231
5.81413
5.65555
6.72877
6.81035
6.11362
6.29782
6.69599
6.65689
6.42245
6.14525
6.45621
6.86412
6.15303
6.5144
6.19078
7.12068
7.07409
6.97006
5.6953
5.61551
6.25977
6.87461
6.81838
6.69253
6.94854
6.76599
6.69251
6.73937
6.69179
6.72096
6.7588
6.75926
6.71332
6.48006
6.63707
6.79225
6.62363
6.83978
6.67412
6.89407
6.94812
6.89632
6.80465
7.02174
7.04582
6.87701
6.8126
6.87712
6.88259
6.72911
6.83654
6.80928
6.72364
6.83027
6.70148
6.76523
6.76125
6.98472
6.81439
6.78037
6.81331
6.8515
6.61069
6.83141
6.70805
6.82274
6.94571
6.88892
6.66946
6.78808
6.78537
6.86875
6.77389
6.84305
6.85892
6.73878
6.80061
6.80549
6.74046
6.84231
6.83683
6.7946
6.8124
6.78697
6.86586
6.69198
6.75799
6.81859
6.84335
6.61751
6.81497
6.74752
6.81693
6.84863
6.85229
6.6144
6.67672
6.80503
6.85377
6.82829
6.79117
6.83813
6.73234
6.86448
6.85967
6.78713
6.82321
6.83766
6.84356
6.8475
6.83361
6.84842
6.72446
6.79856
6.83379
6.84227
6.67159
6.82884
6.81563
6.8363
6.83509
6.8453
6.56075
6.58239
6.86055
6.8708
6.90105
6.81396
6.84132
6.77851
6.9151
6.90147
6.86244
6.85609
6.88244
6.88079
6.87884
6.86586
6.83771
6.85553
6.86041
6.86309
6.80858
6.85668
6.85825
6.87112
6.84148
6.73521
6.70094
6.89905
6.87823
6.94243
6.88518
6.89461
6.92732
6.92476
6.90868
6.8881
6.90899
6.90516
6.9044
6.88458
6.90747
6.89255
6.88399
6.89225
6.89636
6.89456
6.88037
6.89253
6.87071
7.16913
6.96097
6.92817
6.91012
6.95619
6.9137
6.9682
6.93228
6.92852
6.92483
6.91645
6.92656
6.92245
6.91922
6.90425
6.92749
6.90915
6.90611
6.91343
6.923
6.91832
6.8931
6.90734
6.90494
7.11202
6.99848
6.94026
6.93916
6.95012
6.92987
6.98191
6.93623
6.91839
6.92948
6.9293
6.935
6.93112
6.92551
6.9232
6.9313
6.91855
6.92319
6.92063
6.91724
6.92078
6.89926
6.92724
6.92549
6.99965
6.97142
6.93867
6.94795
6.93504
6.92747
6.97665
6.93815
6.91055
6.9249
6.9268
6.93882
6.93211
6.91796
6.94147
6.93638
6.92695
6.93395
6.92517
6.9189
6.92441
6.93003
6.93731
6.92608
6.96915
6.96196
6.93342
6.93942
6.92401
6.92128
6.97115
6.93207
6.90177
6.90944
6.9171
6.93945
6.91903
6.89779
6.95034
6.94381
6.93332
6.93986
6.93533
6.95512
6.92606
6.94916
6.92668
6.91069
6.95853
6.95645
6.92334
6.92155
6.91197
6.91001
6.95979
6.91168
6.87439
6.88554
6.90304
6.91904
6.88887
6.86855
6.94435
6.94945
6.93285
6.92981
6.94254
6.96491
6.90826
6.93142
6.90974
6.91666
6.94483
6.94575
6.90373
6.9053
6.90073
6.90344
6.93473
6.86842
6.84007
6.86418
6.89104
6.88666
6.85906
6.8487
6.93312
6.9334
6.92445
6.91413
6.93829
6.93613
6.87869
6.90788
6.9037
6.92712
6.92381
6.91991
6.88031
6.89132
6.88989
6.90086
6.90438
6.82559
6.836
6.85544
6.88463
6.8578
6.85274
6.8556
6.93092
6.90938
6.91641
6.91615
6.92417
6.88781
6.84509
6.87998
6.88997
6.91532
6.8966
6.88732
6.86054
6.88185
6.88309
6.89838
6.88029
6.80831
6.84896
6.85679
6.88234
6.83923
6.86336
6.86958
6.9416
6.89802
6.90982
6.92977
6.92256
6.86355
6.81639
6.85947
6.88376
6.9053
6.87459
6.85518
6.85411
6.87311
6.88133
6.89667
6.8647
6.81401
6.86431
6.85892
6.88394
6.83304
6.8753
6.87722
6.94104
6.89582
6.89229
6.92178
6.9211
6.85969
6.80326
6.85351
6.88463
6.89996
6.87017
6.85577
6.85649
6.87185
6.88298
6.89842
6.86079
6.8311
6.86763
6.86231
6.88829
6.83947
6.87821
6.87641
6.91523
6.891
6.86251
6.88099
6.90429
6.86797
6.8139
6.85025
6.88862
6.89712
6.87856
6.86171
6.85594
6.87546
6.88614
6.90432
6.8588
6.84897
6.86335
6.86778
6.89517
6.85574
6.87468
6.87343
6.87165
6.89032
6.83551
6.82794
6.87845
6.88738
6.83258
6.85407
6.89441
6.89574
6.90316
6.88029
6.86587
6.88378
6.89264
6.91413
6.86333
6.86386
6.86032
6.87555
6.90528
6.87847
6.87571
6.87918
6.8316
6.90228
6.84611
6.80325
6.86249
6.90643
6.86871
6.87713
6.90123
6.89706
6.93524
6.91188
6.89994
6.8939
6.90582
6.92731
6.87801
6.86807
6.87382
6.88905
6.92
6.89933
6.88782
6.89762
6.85947
6.918
6.87137
6.83193
6.88031
6.93117
6.89345
6.90086
6.91106
6.8989
6.94646
6.93886
6.92451
6.90786
6.92064
6.94133
6.89424
6.86022
6.88945
6.90664
6.93782
6.89851
6.90301
6.91811
6.89369
6.92623
6.88623
6.86251
6.9025
6.94559
6.91072
6.91326
6.91889
6.91174
6.97018
6.96984
6.93871
6.9185
6.93478
6.95082
6.90954
6.85364
6.91188
6.92626
6.95405
6.89906
6.92861
6.93978
6.90636
6.94106
6.93419
6.90024
6.92254
6.95698
6.93063
6.925
6.92812
6.92682
6.98362
6.95455
6.94882
6.9283
6.94206
6.95302
6.91337
6.87222
6.93685
6.946
6.9626
6.91413
6.96186
6.96526
6.91804
6.9683
6.94511
6.91986
6.94187
6.93838
6.9298
6.93005
6.93407
6.9314
6.93116
6.84485
6.93466
6.93793
6.94171
6.94911
6.88889
6.92972
6.95604
6.96263
6.96527
6.95334
6.9863
6.98209
6.9421
6.95059
6.94466
6.93514
6.94898
6.88772
6.92565
6.93651
6.9269
6.92537
6.82401
6.71477
6.91801
6.94402
6.93702
6.94756
6.89438
6.98256
6.97456
6.96999
6.96725
7.0071
6.99271
6.99341
6.95464
6.93411
6.9482
6.95109
6.95361
6.8599
6.92956
6.93876
6.92524
6.93496
6.7664
6.67967
6.91344
6.9455
6.93565
6.95194
6.92222
6.99009
6.98151
6.96978
6.96911
7.03817
6.99487
6.98953
6.96308
6.94607
6.95795
6.95987
6.96198
6.88995
6.94298
6.94505
6.9365
6.95266
6.79923
6.81815
6.94318
6.94679
6.94833
6.96033
6.89344
6.98054
6.98097
6.96838
6.97273
7.00615
6.9903
6.98603
6.97438
6.97451
6.97178
6.97062
6.97418
6.94615
6.95884
6.95668
6.95418
6.97247
6.92663
6.94367
6.96716
6.95564
6.96781
6.97897
7.05009
6.99185
6.98093
6.97531
6.98168
6.99651
6.99102
6.9873
6.98787
6.99678
6.98442
6.98274
6.98647
6.99628
6.97281
6.96738
6.97112
6.98825
6.95568
6.97764
6.9782
6.96465
6.98729
6.99179
7.05058
6.99879
6.98789
6.98204
6.99827
6.99772
6.99034
6.98841
7.00163
7.00718
6.99395
6.99398
6.99687
7.01032
6.98482
6.97577
6.98275
6.99639
7.00851
6.99866
6.98777
6.97124
6.99237
6.99653
7.02137
6.99821
6.99373
6.98269
6.99539
7.00359
6.99285
6.98717
7.01333
7.01323
7.00596
7.00377
7.00398
7.01237
6.99582
6.98265
6.99191
7.00067
7.03237
7.0116
6.99974
6.98721
6.99523
7.00092
7.01174
7.00384
6.99338
6.98579
6.99558
7.00943
6.99853
6.99352
7.01923
7.01926
7.01531
7.01025
7.00724
7.01464
6.99972
6.99129
6.99766
7.00307
7.01527
7.00934
7.00537
7.00549
7.00095
7.00684
7.00278
7.01263
7.00684
7.00203
7.0056
7.01068
7.00516
7.00632
7.01952
7.02036
7.0154
7.01067
7.00635
7.01233
6.9934
6.99303
6.99829
7.00276
7.00309
6.99726
6.99771
7.00874
7.00486
7.00911
6.98869
7.00457
7.01685
7.01075
7.01232
7.00617
7.00836
7.01203
7.01286
7.01314
7.00792
7.0035
7.0002
7.00122
6.98195
6.98771
6.99402
6.99835
6.98753
6.97459
6.98125
7.00218
7.00301
7.00603
6.96934
6.98913
7.00788
7.00772
7.0111
6.99764
7.00689
7.00877
6.99919
7.00067
6.9958
6.99128
6.98954
6.98615
6.97068
6.98116
6.98759
6.99138
6.97229
6.9561
6.97104
6.99293
6.99828
7.001
6.95861
6.9812
7.00004
7.00371
7.006
6.99057
7.00177
7.00651
6.98709
6.98791
6.98303
6.98128
6.98249
6.97287
6.95731
6.97725
6.98515
6.98683
6.96573
6.95077
6.97019
6.98915
6.99429
6.99665
6.95966
6.97982
6.99592
6.99979
7.00044
6.98796
6.99885
7.00201
6.97785
6.97879
6.97418
6.97517
6.98185
6.96483
6.95005
6.97176
6.9852
6.98722
6.96808
6.95532
6.97433
6.98878
6.99272
6.99431
6.96841
6.98423
6.99524
6.99699
6.99687
6.99093
6.99875
6.99978
6.97263
6.97729
6.9686
6.97082
6.98267
6.96955
6.9541
6.97321
6.98726
6.98988
6.97921
6.97056
6.98436
6.99063
6.99286
6.99403
6.9895
6.99074
6.997
6.99632
6.99623
6.99715
7.00099
6.99958
6.97579
6.98199
6.96964
6.9733
6.98088
6.97983
6.96788
6.97971
6.98928
6.99309
6.99597
6.98995
6.99478
6.99433
6.99442
6.99525
7.00083
6.99656
7.00009
6.99773
6.99759
7.00366
7.00389
7.00081
6.98583
6.99827
6.97849
6.98035
6.98693
6.99907
6.98321
6.9884
6.99194
6.9969
7.00682
7.00042
7.00539
6.99886
6.99621
6.99769
7.00915
7.00525
7.00435
7.00038
6.99995
7.01108
7.00794
7.00408
6.99498
7.01812
6.99881
6.99051
6.99219
7.01956
7.00653
6.99838
6.99276
6.99929
7.02278
7.02166
7.01535
7.00344
6.99871
7.00037
7.01888
7.01427
7.00954
7.00397
7.00287
7.01809
7.01244
7.00847
7.00707
7.03
7.01745
7.00459
6.99425
7.03169
7.01814
7.00775
6.99374
6.99891
7.03172
7.02822
7.01951
7.00586
7.0016
7.00195
7.02373
7.01965
7.01333
7.00748
7.00625
7.02205
7.01654
7.01308
7.01629
7.03057
7.02779
7.00949
7.00203
7.03199
7.02169
7.01023
6.99478
6.9987
7.03146
7.02709
7.01759
7.00742
7.00509
7.0025
7.02405
7.02083
7.015
7.01107
7.01046
7.02298
7.01863
7.01688
7.0245
7.02797
7.02481
7.01198
7.00521
7.02907
7.02027
7.01344
7.00221
7.00141
7.0267
7.02286
7.01282
7.00819
7.00963
7.00491
7.02247
7.01942
7.01483
7.01494
7.01685
7.02192
7.01854
7.01892
7.01589
7.02294
7.01715
7.00103
7.00964
7.02359
7.01712
7.01309
7.00742
7.00331
7.02245
7.01857
7.00742
7.00804
7.01501
7.01079
7.02068
7.01705
7.01393
7.01726
7.02129
7.01992
7.01734
7.01902
7.00283
7.0168
7.00799
6.97897
7.01587
7.01713
7.01527
7.01015
7.01221
7.02807
7.02097
7.01775
7.00715
7.01024
7.01996
7.01934
7.01959
7.0133
7.0138
7.01802
7.02114
7.01799
7.01657
7.01842
6.98892
7.01139
6.99799
6.96063
7.02308
7.0091
7.01048
7.00647
7.01854
7.02833
7.02052
7.01923
7.01127
7.01243
7.0227
7.0236
7.01986
7.013
7.01334
7.01854
7.02049
7.01769
7.01636
7.01817
6.97724
7.0077
6.98949
6.95691
7.00022
7.0009
7.00233
7.00092
7.01233
7.02145
7.0217
7.02097
7.01435
7.01503
7.02013
7.02005
7.02174
7.01677
7.0137
7.0207
7.01951
7.01978
7.01731
7.0199
6.97783
7.00542
6.97758
6.95716
6.97559
6.994
6.99618
6.99593
7.00606
7.01473
7.02561
7.02385
7.01826
7.01611
7.01624
7.01517
7.02523
7.02178
7.01815
7.02092
7.01815
7.0238
7.01982
7.02207
6.98839
7.01159
6.98422
6.98898
7.00045
6.99989
6.99859
7.00516
7.00889
7.01336
7.03242
7.02726
7.02294
7.01613
7.01139
7.01144
7.02909
7.02521
7.02098
7.01864
7.01588
7.02643
7.02219
7.02264
7.02269
7.03138
7.00879
7.03714
7.02866
7.01159
7.01079
7.01791
7.01155
7.0139
7.04108
7.03324
7.02546
7.01416
7.00634
7.00862
7.03216
7.02732
7.01992
7.01464
7.01202
7.02783
7.02224
7.02071
7.04351
7.03942
7.03457
7.04501
7.03498
7.02379
7.02327
7.0222
7.01087
7.01488
7.04562
7.0372
7.02374
7.01013
6.99899
7.00531
7.03589
7.02673
7.01448
7.00853
7.00611
7.02817
7.01937
7.01521
7.07305
7.02875
7.03977
7.04603
7.0349
7.03353
7.02465
7.02077
7.00934
7.01387
7.04388
7.0386
7.01936
7.00371
6.99035
6.9996
7.03715
7.02188
7.00528
7.00101
6.9975
7.02461
7.01393
7.00675
7.06181
7.03438
7.03385
7.04275
7.03234
7.03492
7.0216
7.01549
7.00298
7.00426
7.0415
7.0381
7.01446
6.99611
6.97836
6.988
7.03618
7.01783
6.99445
6.98959
6.98465
7.0212
7.00586
6.99602
7.05324
7.04819
7.03817
7.03884
7.02765
7.03736
7.01974
7.00529
6.98773
6.98531
7.04149
7.03582
7.01212
6.98608
6.95955
6.96465
7.03577
7.01507
6.98325
6.97395
6.96304
7.01879
6.99721
6.98321
7.05322
7.06191
7.04642
7.03703
7.0217
7.04725
7.01894
6.99357
6.9611
6.95208
7.04996
7.03793
7.01164
6.97333
6.92698
6.92031
7.04074
7.01675
6.97265
6.95332
6.92836
7.02145
6.98893
6.96771
7.06009
7.07699
7.05711
7.03899
7.0143
7.06276
7.02451
6.9769
6.92131
6.89476
7.06953
7.0554
7.01564
6.95178
6.86944
6.8231
7.05788
7.02468
6.96336
6.91989
6.86517
7.03068
6.9853
6.94896
7.07321
7.09967
7.07494
7.04744
7.00558
7.08998
7.03843
6.96007
6.85046
6.76987
7.11716
7.09533
7.03328
6.92
6.77832
6.61801
7.09069
7.04131
6.94837
6.86943
6.75111
7.04906
6.98509
6.92643
7.09233
7.13502
7.10109
7.06127
6.99399
7.13658
7.06332
6.94212
6.75521
6.43558
7.18346
7.15098
7.06144
6.88393
6.64234
6.14154
7.14291
7.0689
6.94475
6.80753
6.52678
7.08086
6.99477
6.90905
7.11428
7.17029
7.12848
7.07847
6.98119
7.18704
7.10694
6.93149
6.65364
5.4713
7.25979
7.21735
7.10668
6.88246
6.50115
5.4201
-3.66046
7.20234
7.10308
6.95493
6.74707
6.03599
7.11639
7.01414
6.91363
7.13754
7.19588
7.1504
7.09931
6.98963
7.21513
7.12001
6.95804
6.62379
4.74019
0.234376
7.28606
7.24948
7.13129
6.92139
6.46659
5.15654
0.287635
7.23371
7.13121
6.98679
6.74806
5.49668
7.14822
7.04944
6.96016
7.15737
7.20593
7.16373
7.12245
7.03941
7.22143
7.12639
7.00682
6.69967
5.37514
1.41196
7.26871
7.24506
7.14779
6.95089
6.61317
5.18036
1.38183
7.24322
7.13835
7.03718
6.85419
5.96008
1.90744
7.1727
7.09621
7.05208
7.1746
7.18674
7.16228
7.14643
7.09876
7.2049
7.13654
7.03639
6.84627
5.62148
1.48664
7.23928
7.21577
7.13524
7.01083
6.83012
5.63456
1.21415
7.23355
7.14466
7.10242
6.94682
6.42929
7.18549
7.14265
7.14592
7.18166
7.16137
7.14809
7.15325
7.15275
7.18465
7.14709
7.11691
7.0171
6.34081
7.21391
7.19749
7.11454
7.09303
7.02505
6.15733
-1.89463
7.21846
7.19932
7.18066
7.10176
7.09426
7.19375
7.19528
7.21212
7.16542
7.15679
7.1478
7.14648
7.16255
7.1716
7.1532
7.14876
7.1229
7.10402
7.20015
7.18824
7.15945
7.14008
7.12249
7.0277
7.21869
7.24188
7.22761
7.20713
7.26716
7.24291
7.24416
7.25412
7.16644
7.16299
7.15305
7.15505
7.18433
7.16938
7.15515
7.16548
7.17133
7.26499
7.19651
7.18687
7.16938
7.15312
7.16459
7.21463
7.22129
7.25214
7.24646
7.23282
7.29703
7.30876
7.29868
7.28031
7.18302
7.17658
7.17096
7.17722
7.19181
7.17766
7.1596
7.17326
7.1873
7.28149
7.20107
7.19177
7.16863
7.15393
7.17122
7.24429
7.22078
7.22051
7.21663
7.22384
7.27681
7.29309
7.29119
7.27188
7.19162
7.19215
7.18576
7.1867
7.19774
7.19288
7.16496
7.17172
7.20065
7.27115
7.21208
7.20225
7.16401
7.14324
7.16369
7.23973
7.22143
7.19865
7.18162
7.19538
7.24711
7.25081
7.23966
7.24357
7.19531
7.20763
7.19719
7.19204
7.21768
7.21081
7.18451
7.17669
7.21701
7.2707
7.22717
7.21694
7.17589
7.14239
7.16095
7.23906
7.2261
7.19165
7.17042
7.17441
7.22427
7.22435
7.20929
7.22047
7.19817
7.22505
7.20606
7.19592
7.24236
7.22974
7.20205
7.19709
7.24102
7.27883
7.24285
7.23198
7.19391
7.15425
7.18012
7.25629
7.23275
7.18822
7.15954
7.15549
7.22154
7.21426
7.19405
7.18997
7.20892
7.24594
7.21899
7.21347
7.26854
7.24602
7.22038
7.20878
7.24562
7.299
7.2564
7.24488
7.21254
7.18365
7.19902
7.28635
7.23923
7.20162
7.16749
7.14852
7.24188
7.20822
7.19257
7.15978
7.23758
7.26107
7.23255
7.22868
7.28072
7.25485
7.22693
7.2177
7.25933
7.32327
7.26661
7.25188
7.22056
7.1969
7.22295
7.3255
7.24411
7.21309
7.18342
7.17484
7.29055
7.21049
7.21303
7.15845
165.719
153.367
166.345
171.628
150.318
166.667
159.127
148.48
159.341
164.619
168.022
165.399
168.15
170.19
181.387
177.269
158.299
155.246
138.799
128.907
127.364
140.836
136.994
128.968
132.682
133.255
154.184
131.11
141.009
166.357
176.994
158.021
163.465
164.954
131.431
136.283
127.92
128.159
127.144
127.673
127.468
128.014
128.592
128.926
129.408
131.87
133.008
131.559
125.187
129.635
132.793
137.242
133.588
136.281
129.65
129.529
127.285
129.166
128.398
127.558
128.197
128.428
129.634
128.929
129.894
129.931
132.662
131.56
131.785
134.244
142.115
140.232
131.127
139.77
133.871
130.094
128.997
131.327
130.176
129.09
130.226
131.217
131.894
130.752
135.117
133.958
136.05
135.791
130.617
132.101
133.62
132.097
132.898
133.781
132.341
134.189
150.725
140.357
139.004
150.084
143.27
141.085
142.598
139.098
140.742
134.799
140.315
138.009
128.527
130.772
123.27
145.502
131.369
151.076
149.607
150.222
138.392
140.599
136.161
138.165
126.154
124.189
125.157
121.047
119.874
121.716
120.702
125.077
119.648
135.654
119.534
122.093
123.579
117.895
117.583
126.163
124.926
119.828
119.899
119.507
118.093
118.917
115.846
115.271
116.292
125.55
126.789
120.597
117.953
119.082
120.774
115.001
119.907
122.076
122.301
116.61
118.355
116.794
119.011
127.233
126.978
126.665
121.434
119.772
120.384
118.926
118.405
122.549
119.868
125.878
124.642
120.502
120.935
120.416
127.451
126.24
123.079
122.22
120.945
120.625
117.521
57.0399
133.372
121.77
125.902
91.9348
65.585
89.216
124.781
117.63
107.212
102.71
102.4
115.523
102.635
111.849
79.7597
121.943
116.171
119.143
68.7964
77.0526
84.7738
94.2316
113.743
116.411
114.442
105.199
103.859
107.485
102.894
111.29
94.4283
109.763
111.61
109.929
80.7496
95.2831
90.9362
107.119
103.835
86.0065
81.8866
76.1311
108.522
108.647
101.156
101.139
101.992
102.136
102.009
77.6668
73.6795
72.7257
108.637
102.565
113.764
111.442
114.223
102.36
102.1
103.565
103.782
103.823
107.5
103.942
85.6727
75.4073
82.6507
76.1952
69.6489
114.993
105.416
114.222
114.144
106.144
99.6935
100.112
109.908
111.957
90.4148
83.5129
93.8488
81.0713
14.2249
9.48394
22.4939
16.0748
30.9151
9.33208
8.45484
10.0759
61.6618
69.3848
10.265
16.9203
22.0025
70.1981
15.0993
50.4133
18.4399
27.4847
54.5526
68.8582
11.2738
10.6096
21.5454
39.4043
69.7497
88.2208
64.112
30.2165
12.931
49.7063
11.9107
43.7756
8.91922
60.9732
70.3869
71.5246
38.8228
40.4679
54.7752
22.2802
23.4769
7.71478
6.68697
6.68794
90.8605
92.6006
51.1092
67.451
63.2246
22.9519
17.3371
6.32422
6.37772
6.03538
90.6733
53.2721
84.0065
84.3903
77.2499
60.5275
57.4796
39.0081
29.168
14.7842
18.2008
15.4589
5.81521
5.90386
6.23653
6.20327
6.03318
71.3893
13.5265
49.31
44.1012
8.37252
7.01988
7.06865
24.0344
35.3518
6.89265
6.55167
7.01689
6.4113
8.10866
6.87383
7.70794
7.47486
6.83308
7.10977
6.94677
6.73546
6.91439
7.06618
7.02799
6.60672
6.64324
6.61326
6.7968
7.27782
6.01951
6.50773
6.4943
10.9133
6.50996
6.17124
5.40411
6.23134
6.35545
10.6314
6.53012
6.63618
6.99198
6.62289
7.27726
6.67287
7.36751
10.0852
12.4781
17.7145
5.2583
5.9459
5.24922
6.7697
6.76503
7.22133
7.07511
6.98862
21.5451
13.4778
5.83266
5.98754
5.92247
6.52641
6.82599
6.74492
6.77861
6.82349
8.85323
5.89841
13.6001
7.30679
7.00819
6.10565
6.07622
6.18658
6.31185
6.82861
6.79284
6.84532
6.68353
6.62922
6.75505
6.67496
6.72469
6.23785
6.53786
6.12114
6.05845
6.68933
6.80169
6.8333
6.52358
6.21387
6.77519
6.69844
6.80743
6.79343
6.54333
6.69805
6.72176
6.66499
6.67676
6.60709
6.67093
6.59896
6.58785
6.76555
6.5788
6.58263
6.73016
6.90302
6.77412
6.65691
6.84963
6.33172
5.86906
6.5056
6.52306
6.58263
6.27295
6.61795
6.94791
7.05804
6.99533
6.7773
6.87316
6.86988
6.90842
7.08616
6.96156
6.79609
7.28803
6.36376
7.00231
7.293
6.97241
7.01367
6.97836
6.97009
6.97366
6.76702
6.29079
6.54958
7.02091
6.74821
6.80567
6.87011
6.826
6.88009
6.79061
6.87562
6.73537
6.74872
6.70143
6.80216
6.77016
6.71593
6.78511
6.73837
6.70542
6.74502
6.75448
6.75351
6.68613
6.72577
6.74576
6.75629
6.81417
6.74721
6.71119
6.64827
6.67937
6.6729
6.64594
6.68234
6.75355
6.72006
6.73925
6.72747
6.73844
6.75164
6.87485
6.91733
6.685
6.7596
6.65208
6.90399
6.86422
6.80953
6.69067
6.73547
6.96047
6.81799
6.78361
6.76068
6.81843
6.83529
6.77171
6.75498
6.56801
6.67374
6.83646
6.80702
6.70809
6.75373
6.85719
6.84901
6.90013
6.83408
6.85721
6.85224
6.88968
6.91089
6.88362
6.80603
6.96402
6.83718
6.67938
6.83958
6.7786
6.93257
6.9729
7.07643
6.95478
6.91554
6.92382
6.86908
6.88436
6.88859
6.87524
6.87772
6.89156
6.86366
6.87113
6.70816
6.76266
6.68307
6.65593
6.73692
6.97745
6.84418
6.85793
6.84334
6.84108
6.82777
6.82862
6.86155
6.8398
6.85324
6.84517
6.85428
6.82935
6.84791
6.70888
6.71642
6.75003
6.74731
6.73349
6.73909
6.75229
6.75604
6.76558
6.78518
6.74629
6.7873
6.72992
6.78479
6.74235
6.79225
6.83528
6.73543
6.76382
6.71772
6.74332
6.75674
6.78476
6.8067
6.76256
6.76672
6.79193
6.78164
6.79619
6.7678
6.87285
6.8261
7.01614
6.91512
6.89159
6.95548
6.8971
6.90441
6.86517
6.8275
6.90477
6.86411
6.85133
6.85396
6.85823
6.70773
6.66664
6.78239
6.69195
6.78009
6.7391
6.74828
6.62462
6.78598
6.85549
6.84463
6.88392
6.84795
6.85052
6.839
6.86738
6.87798
6.90051
6.85939
6.87756
6.88248
6.88543
6.86464
6.87856
6.63021
6.83359
6.76833
6.59883
6.81049
6.71501
6.91943
6.89004
6.9017
6.87847
6.87453
6.85308
6.86168
6.87745
6.87083
6.86747
6.85806
6.86998
6.84778
6.8604
6.64158
6.70894
6.66783
6.6032
6.64729
6.86708
6.83747
6.84695
6.80923
6.83838
6.81017
6.83893
6.85795
6.83828
6.85278
6.83502
6.85275
6.83398
6.85251
6.71876
6.69595
6.75773
6.75806
6.78383
6.73326
6.76252
6.7579
6.79278
6.79655
6.75432
6.80284
6.75197
6.80938
6.76982
6.81342
6.8534
6.83036
6.85096
6.8496
6.83679
6.85039
6.78723
6.80472
6.82605
6.84264
6.82131
6.84811
6.85906
6.80631
6.82024
6.83004
6.8297
6.83899
6.80744
6.80023
6.7949
6.90871
6.86495
6.90097
6.87357
6.83963
6.86693
6.84951
6.85678
6.84932
6.84162
6.85668
6.85222
6.84716
6.62493
6.59489
6.7369
6.57991
6.7932
6.69189
6.75032
6.63763
6.80152
6.84907
6.8323
6.85527
6.84044
6.84636
6.82378
6.84225
6.84084
6.86801
6.82427
6.85675
6.85687
6.87327
6.85016
6.87114
6.55538
6.73217
6.64769
6.52343
6.66296
6.61388
6.86511
6.82195
6.85948
6.83509
6.85569
6.81057
6.85571
6.86799
6.84429
6.85955
6.846
6.86676
6.83945
6.85921
6.54918
6.58676
6.55036
6.52045
6.56445
6.84842
6.81275
6.85161
6.79382
6.84839
6.82198
6.8617
6.85459
6.83995
6.85564
6.8338
6.85577
6.84083
6.85925
6.67391
6.67701
6.77471
6.76651
6.80382
6.74393
6.79556
6.78645
6.82196
6.82179
6.80417
6.83467
6.82472
6.84113
6.83763
6.85346
6.85226
6.82526
6.85949
6.85234
6.83831
6.85485
6.82333
6.84454
6.8636
6.87359
6.86452
6.87739
6.88622
6.84998
6.85646
6.86425
6.86805
6.87244
6.85883
6.8102
6.83334
6.85926
6.83125
6.85366
6.86141
6.84232
6.85797
6.84508
6.85736
6.8557
6.85469
6.86184
6.84534
6.84855
6.70005
6.92211
6.77928
6.75419
6.82736
6.7814
6.81254
6.87398
6.87009
6.84493
6.81139
6.82615
6.85049
6.84752
6.8125
6.81766
6.82358
6.82752
6.57128
6.65459
6.63215
6.70318
6.64881
6.66928
6.8646
6.82523
6.86931
6.83802
6.8661
6.84616
6.87313
6.87
6.84273
6.86342
6.84715
6.86898
6.84762
6.86357
6.55798
6.61381
6.61983
6.62958
6.72969
6.86654
6.84805
6.87821
6.84514
6.87892
6.85125
6.88862
6.86295
6.84488
6.86251
6.84574
6.86541
6.84634
6.86402
6.7184
6.79308
6.82707
6.81997
6.84934
6.8354
6.85772
6.86209
6.87632
6.86006
6.86832
6.87361
6.89259
6.87694
6.89121
6.89115
6.86945
6.86844
6.89007
6.88942
6.89957
6.89771
6.90077
6.91298
6.88225
6.88757
6.89398
6.89411
6.90276
6.894
6.86063
6.88582
6.87073
6.86108
6.86951
6.88195
6.8799
6.88176
6.86593
6.86937
6.87497
6.87541
6.87779
6.86076
6.87597
7.04024
6.97534
6.84572
6.93689
6.90816
6.87965
6.87503
6.94245
6.92665
6.85827
6.83405
6.82765
6.87764
6.87172
6.85687
6.84681
6.83904
6.85533
6.80772
6.62771
6.68081
6.86371
6.69096
6.72742
6.85601
6.89447
6.85294
6.85853
6.83685
6.77226
6.86057
6.91226
6.94123
6.93891
6.92285
6.86655
6.89363
6.88035
6.88402
6.87627
6.93753
6.88986
6.90177
6.9013
6.94088
6.91668
6.93334
6.92284
6.89419
6.90686
6.90636
6.92138
6.90833
6.91743
6.91867
6.90444
6.90851
6.92469
6.91283
6.92229
6.91848
6.92372
6.92986
6.90427
6.91462
6.91427
6.91179
6.92321
6.91257
6.90366
6.91425
6.89241
6.89512
6.8933
6.90088
6.90709
6.90267
6.88547
6.88724
6.89463
6.89535
6.89679
6.88981
6.90141
6.94846
6.95358
6.89585
6.94646
6.93325
6.92159
6.90938
6.94936
6.93428
6.88946
6.88068
6.87285
6.90403
6.90624
6.89664
6.89575
6.87534
6.8942
6.91302
6.96162
6.85554
6.94866
7.11435
6.97259
6.87152
6.88016
6.88692
6.8807
6.88983
7.06401
6.98248
7.22401
7.09555
7.00773
6.92104
6.90679
6.92684
6.92932
6.92134
6.97784
6.99511
6.93657
6.95455
6.94013
6.98039
6.95156
6.96696
6.95381
6.91783
6.92334
6.92549
6.9273
6.92476
6.92726
6.92914
6.92497
6.93899
6.95085
6.93302
6.93535
6.93138
6.9397
6.94027
6.91806
6.92651
6.92804
6.92086
6.92936
6.92362
6.92071
6.92527
6.90738
6.91454
6.90981
6.91356
6.91979
6.91598
6.90419
6.90481
6.9136
6.91255
6.9116
6.9097
6.9149
6.95388
6.94795
6.91709
6.94643
6.93139
6.93012
6.92332
6.93949
6.9246
6.91978
6.90755
6.91361
6.91859
6.92813
6.90921
6.92281
6.91132
6.92146
6.94904
7.06818
6.99378
6.94576
7.00692
6.98207
6.89134
6.89932
6.91851
6.9013
6.91087
7.05672
7.00565
7.03649
7.01839
6.99385
6.93176
6.92783
6.9305
6.93141
6.93103
6.99655
6.99062
6.96095
6.97275
6.96168
6.97984
6.96594
6.97542
6.96594
6.92867
6.92752
6.92859
6.92848
6.92816
6.92457
6.92534
6.92969
6.95902
6.96312
6.94491
6.94354
6.9371
6.94637
6.94584
6.92218
6.93142
6.93172
6.92294
6.93298
6.92354
6.9306
6.93597
6.91955
6.92451
6.9214
6.92581
6.92946
6.92675
6.92079
6.91782
6.93277
6.92842
6.92487
6.9182
6.92204
6.9404
6.93518
6.92931
6.93434
6.92158
6.93298
6.93463
6.93112
6.92571
6.93113
6.90929
6.92631
6.92215
6.932
6.90985
6.92607
6.92564
6.92654
6.94422
6.97831
6.97179
6.9434
6.96162
6.96073
6.91495
6.92297
6.92671
6.92593
6.93014
6.99263
6.98223
6.97965
6.97522
6.97456
6.93003
6.9312
6.92532
6.92845
6.93122
6.98265
6.97671
6.96826
6.97531
6.96711
6.97391
6.96697
6.97488
6.96755
6.92444
6.91676
6.91988
6.91825
6.91739
6.90507
6.91113
6.92283
6.9649
6.96451
6.94553
6.94641
6.93984
6.94304
6.946
6.9222
6.93325
6.9283
6.91597
6.93059
6.90955
6.94012
6.94255
6.93209
6.93465
6.93195
6.93775
6.93891
6.93677
6.93491
6.9327
6.94791
6.93951
6.93926
6.92799
6.93389
6.93433
6.93946
6.93702
6.9289
6.93422
6.93959
6.93651
6.92924
6.94153
6.93158
6.90878
6.92383
6.93042
6.93219
6.91329
6.92555
6.92467
6.92125
6.94745
6.95298
6.94875
6.95104
6.95393
6.94492
6.93249
6.93086
6.92313
6.93238
6.92942
6.96519
6.97017
6.96482
6.96261
6.967
6.92543
6.92624
6.91617
6.9204
6.92044
6.9726
6.96844
6.96637
6.97297
6.96643
6.9667
6.95909
6.96906
6.9606
6.91034
6.89077
6.8983
6.89799
6.90319
6.8751
6.88898
6.91043
6.96244
6.95634
6.93528
6.94133
6.9318
6.92053
6.9321
6.90746
6.92261
6.9052
6.89411
6.91125
6.88313
6.94323
6.94311
6.94161
6.94157
6.94017
6.94292
6.94263
6.94114
6.94202
6.94215
6.94897
6.94151
6.9417
6.93735
6.93901
6.94637
6.95256
6.93519
6.93485
6.94191
6.94824
6.93222
6.94139
6.93794
6.93427
6.9193
6.92734
6.93747
6.93795
6.92379
6.93239
6.91597
6.92251
6.95603
6.95785
6.95089
6.9604
6.96472
6.95394
6.9286
6.92482
6.90679
6.92651
6.92211
6.95685
6.96131
6.95228
6.94921
6.95454
6.91408
6.9142
6.90585
6.90912
6.90913
6.96234
6.9538
6.95089
6.96216
6.9526
6.94986
6.93751
6.95331
6.94027
6.89556
6.85982
6.88114
6.87416
6.89123
6.84789
6.87588
6.89644
6.94568
6.93264
6.90319
6.91861
6.90421
6.8861
6.90446
6.8789
6.89669
6.87289
6.86402
6.88214
6.85617
6.94107
6.93716
6.94104
6.94186
6.93918
6.93662
6.93855
6.93507
6.93796
6.94234
6.93794
6.93314
6.94292
6.94093
6.94528
6.9556
6.95272
6.92866
6.94658
6.93328
6.94439
6.92442
6.94578
6.92734
6.94104
6.9282
6.94127
6.94382
6.94106
6.93377
6.94565
6.93649
6.9451
6.95989
6.96982
6.95227
6.95304
6.96517
6.94505
6.92468
6.91998
6.92768
6.9231
6.91867
6.94286
6.94558
6.93522
6.93308
6.93477
6.90547
6.90563
6.90212
6.90263
6.90338
6.9423
6.92908
6.92175
6.94147
6.92596
6.91869
6.90286
6.92894
6.90999
6.88601
6.84022
6.87213
6.85895
6.88283
6.84034
6.87046
6.88685
6.91872
6.9052
6.87187
6.89191
6.87165
6.86207
6.88325
6.85365
6.86994
6.85327
6.85359
6.8627
6.84952
6.93378
6.92984
6.93163
6.9336
6.93004
6.92783
6.92935
6.9253
6.92994
6.9451
6.93142
6.93133
6.94402
6.94672
6.94596
6.94325
6.92906
6.92086
6.93648
6.91779
6.92054
6.91889
6.92131
6.90643
6.93808
6.93412
6.94286
6.92893
6.93194
6.93865
6.93462
6.94291
6.93532
6.94037
6.95059
6.93346
6.92408
6.93081
6.91765
6.91838
6.91501
6.9219
6.91272
6.91068
6.92168
6.9228
6.91093
6.90905
6.9092
6.90087
6.901
6.89966
6.89895
6.89773
6.91602
6.90317
6.88337
6.91615
6.89426
6.89182
6.86807
6.90419
6.88205
6.87994
6.84549
6.86977
6.85589
6.87712
6.85211
6.87019
6.88313
6.8924
6.88102
6.85533
6.87654
6.84694
6.85267
6.87118
6.85466
6.86102
6.85697
6.85951
6.86369
6.86368
6.92697
6.92519
6.92491
6.92505
6.9205
6.92333
6.92115
6.91687
6.93346
6.93966
6.93303
6.93443
6.93408
6.94287
6.93776
6.91305
6.89886
6.91717
6.906
6.89557
6.90163
6.91437
6.89326
6.88643
6.92555
6.94622
6.9278
6.92232
6.92163
6.93654
6.92113
6.92759
6.9203
6.90589
6.91144
6.89905
6.89025
6.89335
6.88303
6.90657
6.90603
6.90955
6.90131
6.90169
6.8954
6.8946
6.88348
6.88285
6.88203
6.89756
6.89532
6.89709
6.89642
6.89328
6.8903
6.87945
6.85398
6.89334
6.87043
6.87065
6.84524
6.88399
6.86227
6.87647
6.85765
6.87129
6.85718
6.87623
6.86093
6.87297
6.8824
6.8714
6.86494
6.85175
6.86783
6.83512
6.85321
6.86633
6.86665
6.86898
6.87049
6.87406
6.87446
6.87379
6.92335
6.92045
6.92289
6.91729
6.91214
6.91864
6.91251
6.90445
6.93494
6.92754
6.94584
6.93121
6.92425
6.93631
6.9317
6.8901
6.88463
6.91134
6.88383
6.87868
6.89723
6.9082
6.87842
6.87241
6.92079
6.92506
6.91566
6.92397
6.91964
6.91407
6.91047
6.91374
6.90845
6.87958
6.87918
6.87257
6.87451
6.87225
6.86728
6.897
6.89879
6.90216
6.89424
6.89633
6.87422
6.87453
6.87042
6.86972
6.8707
6.89687
6.89305
6.89697
6.89662
6.89324
6.87234
6.86838
6.8413
6.87716
6.85489
6.86181
6.8398
6.8738
6.84925
6.87774
6.86379
6.87566
6.86007
6.87899
6.86455
6.87745
6.88571
6.86093
6.8581
6.85685
6.8668
6.8363
6.86268
6.86858
6.87923
6.8779
6.87834
6.88139
6.87932
6.87736
6.915
6.90811
6.91086
6.90687
6.89686
6.90152
6.89967
6.88991
6.92035
6.92127
6.93025
6.90583
6.91326
6.92344
6.91586
6.88354
6.8862
6.90332
6.87855
6.8681
6.89347
6.8959
6.88226
6.86476
6.91798
6.90511
6.90584
6.91404
6.91315
6.89771
6.89986
6.90425
6.90032
6.87477
6.87125
6.86652
6.87805
6.87357
6.87012
6.8934
6.89616
6.898
6.89366
6.89626
6.86904
6.86997
6.87226
6.87066
6.8715
6.89895
6.89481
6.90076
6.9001
6.89675
6.86617
6.86583
6.83905
6.87245
6.84401
6.85893
6.8385
6.87073
6.83971
6.88128
6.86558
6.88028
6.86441
6.88361
6.86617
6.88234
6.89121
6.85674
6.85811
6.86822
6.87186
6.84699
6.87421
6.87542
6.87888
6.87913
6.87614
6.87377
6.87869
6.87446
6.90196