/*--------------------------------*- C++ -*----------------------------------*\
| =========                 |                                                 |
| \\      /  F ield         | OpenFOAM: The Open Source CFD Toolbox           |
|  \\    /   O peration     | Version:  5.x                                   |
|   \\  /    A nd           | Web:      www.OpenFOAM.org                      |
|    \\/     M anipulation  |                                                 |
\*---------------------------------------------------------------------------*/
FoamFile
{
    version     2.0;
    format      ascii;
    class       surfaceScalarField;
    location    "6";
    object      phi;
}
// * * * * * * * * * * * * * * * * * * * * * * * * * * * * * * * * * * * * * //

dimensions      [0 3 -1 0 0 0 0];

internalField   nonuniform List<scalar> 
29271
(
-8.99945e-06
-3.67602e-06
1.78418e-07
1.24989e-05
-6.34366e-06
2.00404e-07
2.15032e-06
4.07656e-06
-1.77749e-05
-2.54576e-06
-1.4384e-06
1.93392e-06
3.05487e-06
1.67703e-05
-1.60367e-05
-6.02434e-06
-3.53101e-06
2.02962e-06
1.38704e-05
9.692e-06
-1.55779e-05
-2.95381e-06
-8.02301e-07
5.18747e-06
1.4346e-05
-1.99388e-07
-1.5973e-05
-4.82251e-06
6.78118e-07
2.17669e-08
5.34279e-06
1.47529e-05
-1.46896e-05
-4.80995e-06
-3.87054e-06
7.97064e-06
6.27511e-06
9.12439e-06
-1.80602e-05
-6.35946e-06
-1.45588e-06
-3.19484e-06
1.27815e-06
2.77922e-05
-2.02825e-05
-1.5536e-06
4.38639e-06
-6.20891e-06
-2.62322e-06
2.62818e-05
-1.26743e-05
2.72065e-07
-2.28162e-06
1.17712e-05
2.89816e-06
-7.47812e-06
-5.31342e-06
2.73583e-06
1.00707e-05
-1.80652e-05
1.36391e-06
-3.14961e-06
1.06526e-06
-1.07436e-07
1.8893e-05
-1.78469e-05
-3.48314e-06
2.41179e-06
-3.10458e-06
-7.32667e-07
2.27555e-05
-1.86593e-05
1.06996e-06
4.50119e-06
-5.44344e-06
-3.72112e-06
2.22528e-05
-1.87464e-05
2.69952e-06
5.26611e-06
-4.33599e-06
-3.61278e-06
1.87295e-05
-1.86819e-05
1.30887e-06
-1.32084e-07
-1.64266e-06
1.68825e-05
2.2653e-06
-1.65342e-05
3.61881e-07
-2.66073e-07
-3.28668e-06
1.63347e-05
3.39038e-06
-1.80592e-05
3.2697e-06
4.36003e-06
-4.88042e-06
-5.70928e-06
2.10192e-05
-1.9519e-05
3.91462e-06
3.68438e-06
-4.81408e-06
-4.84578e-06
2.15799e-05
-1.84566e-05
-2.23872e-06
-1.51064e-06
1.56232e-05
2.81492e-06
3.76784e-06
-4.63957e-06
8.52488e-07
6.75793e-07
3.15228e-06
-1.39422e-05
2.92093e-06
-5.00019e-06
1.334e-05
2.66861e-06
-1.80626e-05
2.82879e-06
-1.69966e-06
1.28502e-07
1.37707e-05
3.03435e-06
-5.01092e-06
7.57664e-07
4.70787e-07
3.81059e-06
-8.26094e-06
-9.3427e-08
4.82039e-06
3.67687e-06
-3.8243e-06
-8.95201e-07
5.22653e-07
4.22116e-06
-2.61526e-07
9.13999e-07
-1.44777e-05
2.08859e-08
1.24535e-06
1.2559e-05
-2.16023e-06
-7.78428e-06
5.93036e-07
-8.57967e-07
1.4733e-06
8.73613e-06
-1.51859e-05
3.83181e-08
-1.88838e-07
-2.92408e-07
1.49136e-05
7.1531e-07
-1.40024e-06
-3.97318e-07
-1.41596e-05
-4.01843e-07
1.3365e-06
1.50225e-05
-1.36724e-05
-4.45328e-06
8.77858e-05
-9.23901e-06
-3.31058e-05
-2.57092e-05
-2.81452e-05
4.43522e-07
3.55504e-07
1.25999e-06
2.70556e-06
3.13458e-06
4.38443e-06
5.17177e-06
9.08373e-06
-3.64982e-06
1.99167e-06
9.75604e-05
-2.79953e-05
-3.26598e-05
-2.65068e-05
-2.40038e-05
-2.58987e-06
-1.29848e-06
3.46581e-06
2.01362e-06
7.95257e-07
1.61948e-06
6.38085e-05
-5.88777e-07
-2.81766e-07
2.7819e-07
-3.62828e-07
1.21067e-06
5.78692e-07
5.04845e-07
-2.61342e-05
-1.44451e-05
-1.70088e-05
-1.3624e-05
-1.2042e-05
-7.09642e-07
5.52411e-07
1.30274e-05
-8.59299e-06
-2.25593e-07
4.53636e-06
4.33511e-06
-3.75998e-06
-2.08771e-05
2.47737e-06
-4.04447e-06
-3.75407e-06
2.99582e-05
-4.76882e-06
-5.06229e-06
9.24103e-05
-2.25445e-05
-2.56735e-05
-2.81851e-05
-2.73178e-05
4.70049e-06
3.73478e-06
4.77336e-06
3.47981e-06
-1.02915e-06
-7.80685e-07
7.75678e-05
-2.55748e-05
-2.02899e-05
-1.79535e-05
-1.47169e-05
-5.41565e-08
-1.14097e-06
6.10636e-05
-9.65133e-08
8.05799e-08
1.84578e-07
-2.49114e-07
-7.65942e-09
4.5018e-08
-1.83528e-05
-1.53002e-05
-1.58478e-05
-9.73419e-06
-1.46049e-05
-2.00403e-07
1.38495e-06
8.03562e-07
1.25626e-05
-1.91677e-05
2.09816e-06
-3.61431e-06
-3.00435e-06
2.06113e-05
3.0769e-06
-1.8923e-06
-1.14383e-06
5.12391e-05
1.80227e-06
1.64143e-06
1.26439e-06
6.09443e-07
-3.93847e-07
-6.07372e-07
-3.62639e-07
-2.0915e-05
-1.58439e-05
-1.05237e-05
-9.93632e-06
-6.59358e-07
-1.63866e-07
5.77922e-05
-1.49305e-07
-1.69458e-07
-1.97661e-07
4.42423e-08
1.48682e-08
1.72882e-07
-2.04865e-05
-1.59149e-05
-1.25212e-05
-1.0435e-05
-1.39847e-05
5.58232e-07
-3.51386e-07
1.19776e-05
-3.37977e-06
-1.35548e-07
-5.17314e-07
4.04766e-06
-1.21444e-05
1.42489e-06
-4.98671e-07
1.01073e-05
-1.03294e-05
2.12539e-07
1.21134e-07
7.2736e-08
9.75911e-06
-3.70104e-06
-1.03288e-07
-2.60469e-08
3.85725e-06
-2.70986e-06
1.13722e-06
-2.00182e-06
3.5551e-06
-5.87785e-06
-1.08054e-06
-3.68889e-06
1.0259e-05
3.51464e-06
2.02622e-06
-1.19303e-05
-2.92143e-06
-3.70538e-06
1.30163e-05
3.5879e-06
-1.20979e-05
2.94262e-06
-1.58081e-06
-5.19582e-06
1.2344e-05
-1.47306e-05
1.29892e-06
7.12601e-07
-7.46987e-08
1.29801e-05
-1.86362e-07
4.82031e-06
4.1806e-06
-1.83014e-05
-4.58183e-06
-7.40847e-06
2.12908e-05
5.24133e-07
9.90977e-07
5.68993e-05
2.30642e-06
2.22245e-06
2.19513e-06
2.47264e-06
4.20984e-06
6.70175e-06
2.47848e-06
6.78467e-06
1.50707e-05
1.43981e-05
6.8502e-05
9.25723e-08
-1.62329e-06
1.44315e-06
2.01391e-07
7.37882e-07
3.67486e-06
7.53635e-05
-3.71221e-06
-1.48624e-06
-1.15741e-06
-5.83274e-07
5.54159e-07
2.56227e-06
2.92562e-06
-1.36495e-05
-9.03136e-07
8.5244e-07
1.45063e-05
-2.39207e-06
1.09298e-06
-1.34971e-06
2.68522e-06
-5.75005e-06
-4.25078e-05
1.07749e-05
2.72131e-07
-9.3565e-06
4.65674e-05
1.06048e-05
1.2279e-05
7.07311e-05
6.10226e-07
-9.16133e-07
4.60451e-07
-3.68148e-07
1.02704e-05
1.05368e-05
8.17634e-05
9.48232e-08
2.70439e-07
7.09424e-05
1.75371e-07
3.55564e-07
7.85864e-07
3.76109e-07
1.27021e-06
7.38075e-07
-1.15516e-05
-1.91156e-07
-1.06734e-06
3.61003e-07
1.25439e-05
-1.81183e-05
1.54695e-07
1.72452e-06
1.64953e-07
1.33916e-05
2.68251e-06
1.05311e-06
-6.15577e-07
7.19804e-05
-4.83934e-06
-1.47827e-06
-1.94885e-06
-8.70036e-07
-3.30246e-07
2.2557e-07
3.41305e-07
-1.71168e-07
-1.49127e-08
6.8343e-05
-1.00667e-07
9.11642e-07
-2.46933e-08
1.09036e-07
2.44558e-08
3.05453e-07
-1.12571e-05
-2.83074e-07
-1.31197e-07
1.17707e-05
-4.82359e-06
-2.22442e-07
2.23922e-07
4.86311e-06
-8.87101e-06
-5.92254e-08
3.17119e-07
8.01253e-06
-1.03372e-05
-1.94159e-07
1.68598e-07
-1.88715e-07
1.05366e-05
-4.11687e-06
-9.53742e-08
-4.68871e-09
4.25868e-06
-5.79873e-06
2.71731e-07
-5.37061e-06
1.08805e-05
-1.93571e-05
-5.06831e-07
-6.64959e-06
2.64091e-05
6.5309e-06
2.16391e-06
-9.68712e-06
-1.86423e-06
-3.41001e-06
6.26654e-06
5.80637e-06
-1.13487e-05
1.53263e-06
-1.91494e-07
-4.16831e-06
8.36955e-06
-1.23214e-05
2.58583e-06
2.26172e-06
-9.75729e-07
9.50463e-06
-1.05509e-06
6.23642e-06
6.13207e-06
-2.18154e-05
-2.37099e-06
-6.53222e-06
1.83501e-05
7.48606e-07
1.67849e-06
5.04607e-05
1.18957e-06
9.10995e-07
1.68513e-06
9.58935e-07
1.23681e-07
-2.14742e-06
9.30891e-07
3.59802e-07
2.02558e-05
7.43863e-06
4.12327e-05
-2.51039e-07
-2.86527e-07
3.61224e-07
4.99759e-07
3.81207e-06
-2.99109e-06
9.66859e-05
-1.97853e-08
-8.46988e-07
-1.47017e-06
-4.72834e-06
4.78581e-06
-3.15271e-07
7.07259e-07
-1.54388e-05
-3.94124e-07
1.77285e-06
1.7871e-05
-5.33256e-06
3.78368e-07
-5.65459e-06
1.02302e-05
7.74313e-06
-3.77418e-05
2.45461e-06
-1.00841e-06
1.90357e-06
2.66489e-05
4.54842e-06
1.13267e-05
6.17195e-05
-2.86794e-06
-1.96839e-06
-2.52273e-07
-9.64749e-08
6.42898e-06
7.12831e-06
8.01932e-05
-3.47958e-08
-2.66086e-06
0.000109731
-4.59974e-07
-4.62355e-06
-7.91078e-06
-3.72113e-06
-8.42292e-06
-7.5166e-06
-1.35939e-05
-6.29052e-07
2.30286e-07
-9.69271e-07
1.49271e-05
-1.20093e-05
9.39723e-07
-4.15931e-07
7.00323e-07
1.26082e-05
-1.82308e-06
-5.80517e-06
1.10911e-06
9.997e-05
-5.10913e-08
-2.00453e-07
-6.49361e-07
-3.0782e-06
6.14229e-07
-4.29936e-06
-4.30254e-06
-3.95359e-06
-1.2495e-06
0.000113743
-5.72151e-06
-8.4253e-06
-7.01094e-06
-1.59296e-06
-7.12748e-06
-8.99524e-06
-1.31162e-05
-9.15751e-07
-3.30175e-07
7.74769e-06
-4.49664e-06
7.5707e-07
-4.73808e-07
4.21338e-06
-8.34948e-06
3.32839e-07
-2.14482e-06
1.12577e-05
-1.06089e-05
2.9575e-06
-3.99866e-06
1.02834e-06
9.37226e-06
-3.97449e-06
-1.51958e-06
3.12781e-06
2.36626e-06
-1.33187e-05
-9.66069e-07
7.70784e-07
1.35139e-05
-2.84837e-05
6.08413e-07
4.56442e-07
2.74189e-05
1.17451e-06
-5.76415e-07
-5.31969e-06
-1.74596e-06
-1.26156e-06
7.72912e-06
2.14623e-06
-6.59536e-06
2.38563e-06
-2.44815e-06
-2.32841e-06
6.84007e-06
-8.47544e-06
8.07196e-07
-3.25323e-06
-2.79691e-07
8.18254e-06
3.01863e-06
1.58454e-06
4.13946e-06
-1.30677e-05
-1.87691e-06
-6.84337e-07
9.90497e-06
4.91139e-08
-1.2921e-06
4.39243e-05
1.91255e-06
9.70685e-07
-8.03381e-07
-6.11867e-07
2.37436e-06
1.82925e-06
2.21323e-06
-1.0549e-07
5.578e-06
-5.57675e-07
3.94073e-05
7.82951e-07
6.06475e-07
-1.8447e-06
-2.69049e-06
-1.08196e-06
1.38789e-06
0.000105101
-1.59372e-06
-2.78135e-06
-4.97502e-07
-8.20621e-07
-7.39138e-07
1.71571e-06
1.57332e-06
-1.65296e-05
-2.09329e-06
4.06779e-06
1.34735e-05
-1.64823e-05
-3.68275e-07
-1.6551e-06
1.85056e-05
5.85907e-07
-2.10539e-05
1.30349e-06
-1.07975e-06
-2.93559e-06
2.31798e-05
-3.58303e-06
-2.95136e-06
7.5837e-05
-1.72216e-08
-1.28399e-06
-3.62133e-06
-3.95267e-06
-1.19145e-05
-5.7311e-06
9.36981e-05
-3.71356e-06
5.51114e-07
0.000106237
-5.83924e-06
-1.72488e-06
-9.82202e-07
7.78231e-07
1.93171e-06
1.96597e-06
-1.24798e-05
-5.30442e-06
-3.11934e-06
6.19833e-06
1.09917e-05
-1.23016e-05
1.3936e-06
-1.87231e-07
-1.57798e-06
9.63559e-06
3.03759e-06
-6.09779e-06
-3.5237e-06
0.000111879
-1.27012e-06
-2.36071e-06
-1.24802e-07
-3.40482e-07
-2.99851e-06
3.67737e-07
1.48771e-06
-2.96613e-06
-2.40437e-06
0.00010834
-6.44305e-07
-2.41161e-06
-5.44883e-07
6.69207e-07
5.76747e-07
1.29907e-06
-1.20832e-06
-3.3743e-06
-9.8435e-07
3.15195e-06
-2.90141e-06
-2.56071e-06
4.68978e-06
7.72345e-07
-9.53086e-06
-8.13318e-07
-1.54415e-06
8.36463e-06
-2.14175e-06
1.06849e-06
-1.85923e-07
-9.72108e-07
-1.73089e-07
4.08233e-07
1.30309e-06
-3.43458e-07
-1.36787e-06
-1.24747e-05
-8.25439e-07
4.31325e-06
8.9869e-06
-2.5022e-05
-1.50241e-06
5.34731e-06
2.11771e-05
-3.70975e-06
-3.0278e-06
-1.0889e-05
8.90292e-07
2.2303e-06
1.4506e-05
-4.27936e-06
-7.11925e-06
9.85825e-07
-9.45423e-07
2.41027e-06
8.94793e-06
-8.35145e-06
-2.16734e-06
-8.94853e-07
1.11064e-06
8.81341e-06
1.4896e-06
3.05823e-07
2.82395e-06
-1.08056e-05
-3.31121e-06
-3.34933e-06
1.43364e-05
-1.10516e-06
-6.1926e-06
4.4279e-05
-8.17037e-07
3.25594e-07
-8.78623e-07
1.78207e-07
3.07162e-06
-1.73656e-07
3.2271e-06
2.00991e-06
5.12534e-07
-3.14501e-06
4.88827e-05
-2.20847e-06
-2.59714e-06
-1.58974e-06
-1.55273e-06
1.73461e-06
3.33503e-06
0.000101688
-1.44175e-06
-3.7673e-07
-1.21844e-06
-4.63349e-07
3.7713e-07
1.18882e-06
7.90472e-07
-1.2387e-05
-5.19216e-07
2.18356e-06
2.41092e-06
1.00464e-05
-1.80887e-07
5.22422e-09
3.81982e-08
1.37439e-07
-1.90846e-05
-1.02207e-06
3.70755e-07
1.97359e-05
2.61435e-06
-2.01189e-05
8.3066e-07
-2.63567e-07
9.59246e-07
1.59782e-05
-3.9721e-06
-1.46443e-06
7.26997e-05
-1.63535e-06
-8.32966e-07
2.01492e-06
2.83466e-06
-9.77659e-06
-5.55566e-06
0.000101913
-2.4044e-06
1.64278e-06
0.000101307
-1.65432e-06
-1.75402e-06
-1.25189e-06
1.45977e-06
1.64772e-06
8.03006e-07
-1.04763e-05
-5.03346e-06
-1.53088e-06
7.7297e-06
6.90651e-06
-3.99293e-09
-1.09572e-07
2.87175e-09
5.34421e-08
5.67767e-08
-9.81685e-06
2.34235e-08
-8.43352e-07
-6.19943e-07
1.08088e-05
4.47919e-07
-5.31747e-06
1.95549e-06
0.00010391
5.12031e-07
5.92066e-07
1.27376e-06
6.80945e-07
2.42957e-06
2.01658e-06
2.362e-06
-1.97934e-06
7.31036e-07
9.71282e-05
-1.90823e-07
-1.07786e-06
-2.74513e-07
1.19391e-06
5.21337e-07
1.41502e-06
-5.86373e-06
-2.63333e-06
6.56368e-07
7.50413e-06
-7.31258e-07
-3.57109e-06
3.24314e-06
1.05921e-06
-8.16023e-06
-1.28288e-06
2.58896e-06
8.80964e-06
-6.93796e-07
-1.38382e-06
7.60128e-07
-3.39451e-07
2.38797e-06
1.17922e-06
4.66873e-07
-9.81291e-07
-6.64798e-07
-4.66033e-06
-1.42606e-06
3.66493e-06
2.42145e-06
-1.67915e-05
-2.57372e-06
6.0248e-06
1.33404e-05
-5.01773e-06
-4.46188e-07
-1.69077e-05
1.22963e-06
3.11835e-06
1.80236e-05
-4.14933e-06
-1.12772e-05
-1.10585e-06
8.70076e-07
2.75785e-06
1.29045e-05
-9.86541e-06
-2.53497e-06
6.66619e-07
1.56705e-06
1.07162e-05
-5.49529e-07
-3.62633e-06
3.01053e-06
-1.83934e-05
-3.26095e-06
1.12667e-06
2.11435e-05
-1.56174e-06
-2.82538e-06
4.60714e-05
-1.50791e-06
-1.8163e-06
-1.26585e-06
-2.14554e-06
2.51633e-06
2.35327e-06
1.93142e-06
2.52927e-06
-4.33556e-06
-3.89397e-06
6.02684e-05
-1.61274e-06
-1.31084e-06
-1.11843e-06
-6.75962e-07
-9.54189e-07
4.86585e-06
0.000100568
-1.63212e-06
-6.48122e-07
-1.28139e-06
-9.41649e-07
-4.00537e-07
-1.56899e-06
-6.54438e-07
-8.04827e-06
1.61594e-06
-5.216e-07
1.89545e-06
4.10429e-06
7.76553e-07
-6.52876e-07
1.10117e-06
-1.76798e-06
8.79526e-07
-3.36393e-07
-2.08388e-05
-1.75873e-06
7.31793e-07
2.18657e-05
3.34044e-06
-1.42614e-05
-5.17042e-07
-3.3035e-06
2.89993e-07
1.44515e-05
-6.34763e-06
-2.65841e-06
6.74892e-05
2.48612e-06
2.9456e-06
2.79701e-06
3.16237e-06
-7.93398e-06
-3.8708e-06
0.000103476
-1.29401e-06
1.03318e-06
9.75451e-05
-4.51262e-07
-8.29633e-07
-6.34054e-08
7.99871e-07
1.01837e-06
4.80615e-07
-7.17419e-06
-4.23034e-06
-9.3456e-07
2.79047e-06
8.25461e-06
4.20291e-08
-5.95514e-07
8.52263e-07
-6.9509e-07
6.45331e-08
3.31779e-07
-1.16879e-05
-3.88692e-07
-1.13903e-06
2.86182e-07
1.2446e-05
4.83473e-07
-4.89823e-07
1.49325e-06
9.4027e-05
8.59635e-07
3.59169e-07
1.0719e-06
-5.95804e-08
1.65265e-06
1.15832e-06
1.17893e-06
-1.5668e-07
5.41954e-07
8.83904e-05
4.73079e-07
1.97143e-07
2.40535e-07
1.39249e-06
3.79203e-07
1.30949e-06
-8.74071e-06
-7.59448e-08
5.19037e-07
9.17412e-06
-7.94813e-07
-1.97122e-06
5.74498e-07
6.01499e-07
1.59004e-06
-4.12506e-07
-4.8489e-07
1.35541e-07
7.61855e-07
-9.28327e-06
-4.14806e-07
1.64936e-06
9.54196e-06
-4.23373e-06
-1.22345e-06
6.35891e-07
-5.74476e-07
5.93772e-06
5.00324e-09
3.59966e-07
-9.59182e-07
5.94213e-07
-1.73957e-06
-8.35507e-07
1.06488e-06
1.51019e-06
-1.11876e-05
-8.18132e-07
1.80567e-06
1.02001e-05
-1.9293e-06
4.03337e-07
-1.82034e-05
1.8636e-07
1.87066e-06
1.76723e-05
-1.52984e-06
-1.32948e-05
-7.59734e-07
1.04911e-06
1.53442e-06
1.30008e-05
-1.10306e-05
-1.16576e-06
8.11299e-07
9.87349e-07
1.12942e-05
-8.96552e-07
-4.06743e-06
3.44441e-06
-2.21588e-05
-2.49239e-06
3.37598e-06
2.18982e-05
-1.65558e-06
-2.91077e-06
4.94661e-05
-1.10675e-06
-2.50207e-06
-9.78122e-07
-1.84426e-06
1.66343e-06
2.23446e-06
1.48015e-06
2.22486e-06
-5.90147e-06
-4.29104e-06
7.03792e-05
-9.46003e-07
-4.02114e-07
-3.53186e-07
1.27447e-07
-1.2149e-06
4.71905e-06
9.58253e-05
-1.15486e-06
-8.18421e-07
-6.70505e-07
-7.87748e-07
-2.40827e-07
-1.05979e-06
6.92075e-08
-2.93301e-06
1.8714e-07
-1.15077e-06
5.88533e-08
2.62289e-06
5.45172e-07
3.93112e-07
6.2292e-07
-3.00147e-07
-1.34108e-07
-1.12695e-06
-2.26245e-05
-2.03785e-06
1.80155e-06
2.28608e-05
2.40712e-06
-1.57364e-05
-2.30695e-06
-2.6092e-06
8.45835e-07
1.73996e-05
-5.16031e-06
-3.8741e-06
6.44317e-05
2.46975e-06
2.62544e-06
2.04363e-06
2.04229e-06
-6.66676e-06
-4.34944e-06
0.000105041
2.69713e-07
6.00195e-07
9.05092e-05
8.41721e-07
5.61113e-07
5.84199e-07
6.93925e-07
9.42542e-07
5.9481e-07
-9.51735e-06
-6.09215e-07
7.26821e-07
-3.89786e-07
1.00592e-05
-4.73594e-07
2.633e-07
-4.09466e-07
4.06066e-07
-2.87447e-07
5.01141e-07
-1.30529e-05
-9.40871e-07
-8.42084e-07
1.30654e-06
1.36984e-05
-1.69045e-07
2.66748e-06
1.13558e-06
8.03231e-05
1.04435e-06
2.19479e-07
1.171e-06
3.131e-07
9.87208e-07
1.29148e-06
1.00014e-06
7.64241e-07
4.62017e-07
7.92288e-05
1.04949e-06
1.1196e-06
7.90787e-07
1.39287e-06
5.25091e-07
1.37551e-06
-9.5396e-06
8.71767e-07
5.54905e-07
9.47737e-06
-1.51149e-06
2.84286e-07
-8.07219e-07
2.99902e-07
1.73452e-06
-7.99625e-07
8.0925e-09
-6.08966e-07
6.19596e-07
7.80903e-07
-9.76687e-06
3.9776e-08
7.47921e-07
1.01148e-05
-7.21043e-06
-5.66514e-07
2.76218e-07
-3.83154e-07
8.3459e-06
-1.3531e-06
-5.96689e-08
-7.3738e-07
2.15015e-06
-1.4919e-06
-2.31556e-07
8.8443e-08
1.63502e-06
-1.01107e-05
5.16569e-08
-4.30594e-07
1.04896e-05
-1.74487e-07
8.88209e-07
-1.65847e-05
-1.2895e-07
9.02285e-07
1.50976e-05
9.41979e-08
-1.24496e-05
-6.6764e-07
7.20671e-07
2.3934e-07
1.20631e-05
-1.13151e-05
-2.31699e-07
5.45929e-07
1.70632e-07
1.13948e-05
-5.64635e-07
-3.98721e-06
1.63265e-06
-2.13048e-05
-1.77718e-06
3.9657e-06
2.14708e-05
-3.63325e-06
-5.19784e-06
5.56305e-05
-7.48952e-07
-1.42173e-06
-4.72153e-07
-2.67783e-07
1.33216e-06
1.7477e-06
1.0154e-06
1.48195e-06
-8.21379e-06
-5.38035e-06
7.88326e-05
-1.82331e-07
3.57563e-07
3.81945e-07
9.50361e-07
-7.75014e-07
1.70226e-06
8.78549e-05
7.18868e-09
9.28067e-08
6.80292e-07
-1.9078e-07
2.07165e-07
-1.5369e-06
-4.30363e-07
-3.68119e-06
1.4214e-06
-7.12661e-07
-1.60897e-06
3.80641e-06
1.98004e-06
3.50141e-08
2.14147e-07
-1.18174e-06
-1.04746e-06
-2.25878e-05
-2.37115e-06
2.97995e-06
2.1979e-05
-9.28897e-08
-1.87033e-05
-2.78982e-06
4.86567e-07
1.44787e-06
1.96515e-05
-3.43598e-06
-4.97859e-06
6.52049e-05
7.17531e-07
8.00121e-07
2.58347e-07
6.67613e-07
-4.32674e-06
-4.60736e-06
0.000105159
1.51593e-06
6.96743e-07
8.07245e-05
1.42141e-06
1.09908e-06
5.03107e-09
8.39234e-07
1.02615e-06
5.56609e-07
-9.76347e-06
1.56441e-06
1.59148e-06
-7.32321e-07
8.85583e-06
-5.93308e-07
9.63028e-07
-1.24483e-06
9.93065e-07
-5.57414e-07
4.39464e-07
-1.46484e-05
-2.50306e-06
-7.46792e-08
2.26463e-06
1.62814e-05
-1.31996e-06
2.92467e-07
1.24187e-06
6.6585e-05
1.1806e-06
7.66174e-07
1.35499e-06
8.8156e-07
7.8475e-07
1.39395e-06
8.63221e-07
7.50647e-07
5.15529e-07
6.81627e-05
5.89055e-07
9.95588e-07
6.11228e-07
1.33006e-06
6.49527e-07
1.30952e-06
-9.79141e-06
9.61592e-07
8.33073e-07
9.44414e-06
-1.61012e-06
-2.56756e-07
-6.40045e-07
2.50692e-06
-1.05912e-05
1.71101e-07
5.63797e-07
1.10981e-05
-9.33502e-06
-2.44511e-07
-1.47844e-07
-5.53665e-08
1.02983e-05
-3.06193e-06
-4.84729e-07
-3.58301e-07
3.90496e-06
-1.86512e-06
-1.46187e-07
-9.74827e-08
2.10879e-06
-1.08081e-05
9.84326e-07
-1.07697e-06
1.09007e-05
5.6621e-07
1.53955e-07
-1.38361e-05
2.77916e-07
-5.26946e-07
1.3365e-05
5.04312e-07
-1.19812e-05
-4.50039e-07
1.84513e-07
-4.77931e-07
1.22203e-05
-1.1459e-05
4.69445e-07
1.63155e-07
-9.541e-07
1.17488e-05
3.164e-08
-2.2218e-06
-5.3252e-07
-2.22943e-05
-8.33035e-07
2.47175e-06
2.34099e-05
-5.56557e-06
-6.61322e-06
6.19525e-05
3.67355e-07
3.2272e-07
6.74613e-07
9.73561e-07
9.8855e-07
7.6706e-07
1.12797e-06
6.35001e-07
-8.99651e-06
-7.65666e-06
8.47264e-05
6.70228e-07
1.13809e-06
1.46208e-06
1.9234e-06
-1.30768e-06
-3.53841e-06
7.9241e-05
1.80276e-06
1.12698e-06
2.53651e-06
1.4256e-06
-1.14324e-06
-5.74891e-07
-7.10275e-07
-4.28277e-06
4.67169e-07
-1.7502e-06
4.25813e-06
-2.13771e-05
-1.58777e-06
2.72288e-06
2.0242e-05
-4.44316e-06
-2.06326e-05
-1.78134e-06
2.93476e-06
1.8091e-06
2.21132e-05
-3.12924e-06
-4.12306e-06
6.73e-05
-9.9203e-07
-2.01552e-07
-5.60669e-07
2.98212e-07
-4.54206e-07
-3.9213e-06
9.87486e-05
1.30524e-06
6.80245e-07
6.94511e-05
3.14411e-07
1.52682e-06
6.27505e-07
7.3722e-07
1.01092e-06
1.07841e-06
-9.30482e-06
1.31669e-06
4.40272e-07
-1.77688e-07
9.03079e-06
-1.85071e-05
-3.14117e-06
3.63552e-07
2.42282e-06
2.08817e-05
-2.01984e-06
-1.42214e-06
1.30308e-06
5.7385e-05
6.29163e-07
4.90908e-07
8.45416e-07
5.27764e-07
7.55873e-07
1.19937e-06
7.47444e-07
5.94579e-08
7.29905e-07
5.84838e-05
6.93921e-08
2.20885e-07
6.36755e-08
1.26756e-06
8.24786e-07
1.09982e-06
-9.7788e-06
5.91483e-07
6.49459e-07
9.27756e-06
-2.98695e-06
-1.34039e-08
1.22516e-07
2.87784e-06
-1.17767e-05
5.49954e-08
5.54602e-07
1.24702e-05
-1.12132e-05
-1.31777e-08
-4.82028e-07
2.54769e-07
1.21836e-05
-4.6929e-06
-3.7905e-07
-1.61803e-07
5.23375e-06
-2.35764e-06
-3.07598e-08
-2.31155e-07
2.61956e-06
-1.08785e-05
1.13221e-06
-1.14319e-06
1.08895e-05
4.66088e-07
-6.13472e-08
-1.34122e-05
1.06961e-07
-7.35849e-07
1.36363e-05
6.76605e-07
-1.2796e-05
-1.35207e-07
-2.67039e-07
-9.27023e-07
1.34486e-05
-1.21949e-05
7.4325e-07
-2.68112e-07
-1.51033e-06
1.27176e-05
5.12471e-07
-1.26378e-06
-2.80941e-07
-2.45267e-05
-8.20234e-07
1.41343e-06
2.54782e-05
-4.61335e-06
-5.66412e-06
6.66871e-05
7.35728e-07
8.1786e-07
7.62229e-07
1.14518e-06
1.17711e-06
-3.21033e-07
1.28669e-06
-6.08745e-08
-5.48635e-06
-1.10348e-05
8.87716e-05
1.40722e-06
1.73816e-06
2.21531e-06
2.50183e-06
2.79023e-07
-5.74678e-06
6.88388e-05
2.58207e-06
1.94036e-06
3.03346e-06
2.03042e-06
4.97166e-08
4.10517e-07
3.37116e-07
-4.72165e-06
1.46505e-07
-7.68986e-07
5.62316e-06
-1.70904e-05
-3.03563e-08
4.52932e-06
1.25915e-05
-5.12547e-06
-2.42503e-05
-1.11625e-06
2.70188e-06
1.60147e-06
2.61887e-05
-3.44991e-06
-1.23358e-06
6.72432e-05
-1.02741e-06
-2.48437e-07
-7.99452e-08
4.31986e-07
2.73294e-07
-3.75731e-06
8.7748e-05
1.82875e-06
5.62155e-07
5.47258e-05
8.8628e-07
1.64289e-06
8.3724e-07
1.1944e-06
1.01053e-06
1.28952e-06
-8.51683e-06
8.5506e-07
7.41106e-07
2.12093e-07
8.53732e-06
-2.30475e-05
-2.13706e-06
1.8792e-07
1.82702e-06
2.47022e-05
-1.53255e-06
-1.53059e-06
1.14439e-06
5.34244e-05
6.24885e-08
6.74033e-08
3.50376e-07
1.26229e-07
6.73261e-07
1.07518e-06
7.5833e-07
-8.17762e-07
8.30168e-07
5.25472e-05
-5.14788e-07
-6.8801e-07
-6.49049e-07
9.31945e-07
8.14233e-07
7.42002e-07
-9.57146e-06
-1.44525e-09
3.43541e-07
8.97376e-06
-3.06081e-06
-6.00203e-07
3.99842e-07
3.26117e-06
-1.30924e-05
-1.43473e-07
6.23528e-07
1.37568e-05
-1.3124e-05
1.10135e-07
-6.16678e-07
3.46796e-07
1.41139e-05
-5.57131e-06
-1.83423e-07
2.87156e-08
5.72602e-06
-2.90353e-06
1.77322e-07
-4.80492e-07
3.2067e-06
-1.09648e-05
6.76418e-07
-7.76213e-07
1.10646e-05
1.78432e-07
-2.63873e-07
-1.39651e-05
1.40509e-07
-3.56217e-07
1.42663e-05
1.0182e-06
-1.42356e-05
2.04859e-07
-5.23784e-07
-1.32632e-06
1.48626e-05
-1.33689e-05
6.04193e-07
-4.9167e-07
-1.31543e-06
1.39154e-05
6.56363e-07
-1.04899e-06
3.41646e-07
-2.61972e-05
-1.27499e-06
1.46841e-06
2.67111e-05
-2.99829e-06
-2.05112e-06
6.76293e-05
5.32594e-07
5.91864e-07
5.55219e-07
9.14301e-07
1.1024e-06
-6.71725e-07
1.12743e-06
-4.49074e-08
-1.40118e-06
-1.05731e-05
8.91957e-05
1.72706e-06
1.87609e-06
2.42003e-06
2.52872e-06
1.02962e-06
-4.51916e-06
5.87615e-05
2.31135e-06
1.8833e-06
2.5166e-06
1.94492e-06
1.08054e-06
1.16946e-06
1.25943e-06
-6.33609e-06
3.12908e-07
-3.29313e-07
7.38212e-06
-9.49928e-06
-4.52646e-07
1.71195e-06
8.23997e-06
-2.12779e-06
-2.76342e-05
-1.08828e-06
1.25901e-06
1.05285e-06
2.85384e-05
-2.4309e-06
2.68368e-06
6.43183e-05
-3.78313e-07
-1.78925e-08
4.61187e-07
5.5596e-07
-6.02344e-07
-1.55527e-06
7.69016e-05
7.8595e-07
8.16395e-07
4.37655e-05
5.32039e-08
5.225e-07
-1.35693e-07
1.31009e-06
1.20439e-06
1.28197e-06
-8.74337e-06
1.55856e-07
-2.52122e-07
1.08706e-06
8.53852e-06
-2.59546e-05
-9.99237e-07
-3.20009e-08
1.32119e-06
2.67896e-05
-1.12497e-06
-2.02024e-06
1.12834e-06
5.41394e-05
-1.65335e-07
-9.32718e-08
2.12429e-07
-1.00004e-07
7.75541e-07
1.26535e-06
9.65845e-07
-1.63468e-06
6.59498e-07
5.16132e-05
-1.13033e-06
-1.50764e-06
-1.0506e-06
6.78244e-07
6.47022e-07
6.96899e-07
-9.07692e-06
-7.67125e-07
5.6988e-07
8.45588e-06
-3.4893e-06
-9.5626e-07
7.97287e-07
3.64827e-06
-1.4335e-05
-4.21206e-07
8.97903e-07
1.49866e-05
-1.52485e-05
-2.60195e-07
-1.43796e-07
-1.00867e-07
1.64128e-05
-5.8718e-06
-2.03575e-07
-5.58815e-08
6.13126e-06
-3.52287e-06
4.02906e-07
-7.56094e-07
3.87606e-06
-1.11546e-05
3.54078e-07
-4.55669e-07
1.12562e-05
1.63693e-09
-5.57204e-07
-1.46168e-05
3.05105e-07
-5.93673e-08
1.49266e-05
1.30539e-06
-1.55328e-05
3.43367e-07
-5.59746e-07
-1.53589e-06
1.59796e-05
-1.44849e-05
3.75597e-07
-6.76448e-07
-8.67186e-07
1.50778e-05
5.75107e-07
-8.57531e-07
-1.32282e-07
-2.7311e-05
-1.09478e-06
1.40047e-06
2.79951e-05
-2.74798e-06
1.5488e-06
6.64285e-05
2.97953e-07
3.18758e-07
3.43313e-07
7.16479e-07
7.58569e-07
-5.78438e-07
4.94014e-07
4.93657e-08
-9.73156e-07
-5.39106e-06
8.43953e-05
1.79414e-06
1.75259e-06
2.44248e-06
2.42751e-06
1.24534e-06
-2.52517e-07
4.80514e-05
1.36736e-06
1.30437e-06
1.77543e-06
1.28986e-06
1.07592e-06
1.19957e-06
7.31617e-07
-8.17532e-06
1.85577e-07
6.51254e-07
8.58383e-06
-7.82886e-06
-2.17109e-07
3.67862e-07
7.67811e-06
-8.838e-07
-2.9212e-05
-8.24485e-07
5.76859e-07
8.94346e-07
2.94491e-05
-3.4978e-06
6.39951e-06
6.09154e-05
1.64798e-07
2.76108e-07
7.43526e-07
8.65511e-07
-2.66428e-06
4.41156e-06
6.62654e-05
-3.52592e-07
1.02154e-06
3.82669e-05
-7.71546e-07
-5.15732e-07
-7.93583e-07
1.29788e-06
1.36772e-06
1.32819e-06
-8.46707e-06
-9.09048e-07
-1.01761e-06
2.06218e-06
7.97896e-06
-2.75556e-05
-4.02944e-07
-1.76069e-07
1.26543e-06
2.81425e-05
-1.27334e-06
-3.80502e-06
1.4472e-06
5.84416e-05
2.74106e-08
-1.54649e-07
4.72025e-07
-1.91767e-07
1.09684e-06
1.69096e-06
1.51432e-06
-2.04767e-06
5.2295e-07
5.48876e-05
-1.0368e-06
-1.78531e-06
-6.14975e-07
7.63482e-07
6.26762e-07
9.03762e-07
-8.45481e-06
-1.34694e-06
7.17722e-07
8.0579e-06
-3.76182e-06
-1.27554e-06
1.2533e-06
3.78406e-06
-1.5665e-05
-8.80729e-07
1.5071e-06
1.64858e-05
-1.77777e-05
-9.54536e-07
6.15558e-07
-4.31006e-07
1.90706e-05
-6.50714e-06
-9.6846e-08
-4.17043e-07
7.02103e-06
-4.25348e-06
6.12052e-07
-1.00001e-06
4.64144e-06
-1.13999e-05
4.48592e-07
-6.8265e-07
1.1634e-05
-1.15259e-08
-7.00326e-07
-1.5333e-05
2.08683e-07
3.65135e-08
1.57997e-05
1.61329e-06
-1.62611e-05
5.17641e-07
-2.98787e-07
-1.71472e-06
1.61436e-05
-1.58675e-05
2.09604e-07
-9.07092e-08
-8.31512e-07
1.65458e-05
3.42559e-08
-2.97406e-07
7.32102e-08
-2.8515e-05
-5.61063e-07
6.74619e-07
2.86257e-05
-4.61964e-06
3.21739e-06
6.54536e-05
2.23346e-07
3.12045e-07
3.11912e-07
8.51924e-07
3.69414e-07
-4.61273e-07
5.80283e-07
1.89521e-07
-2.75988e-06
-8.39997e-07
7.48515e-05
1.76859e-06
1.72493e-06
2.48737e-06
2.54306e-06
7.96175e-07
3.49112e-06
3.82897e-05
5.82501e-07
4.18641e-07
9.32251e-07
3.92225e-07
-5.14204e-09
4.52649e-07
-5.85576e-08
-8.68097e-06
3.86277e-07
8.62306e-07
8.22856e-06
-7.59651e-06
-1.77529e-07
2.14453e-07
7.55959e-06
-2.28075e-07
-2.93585e-05
-1.63894e-07
2.22533e-07
8.62477e-07
2.86654e-05
-6.81167e-06
8.71408e-06
5.90031e-05
3.15251e-07
6.52659e-07
9.80951e-07
1.27845e-06
-5.63673e-06
7.3072e-06
5.69433e-05
-7.83686e-07
9.30066e-07
3.53468e-05
-9.82689e-07
-5.749e-07
-8.72784e-07
1.08988e-06
1.07538e-06
8.93189e-07
-7.5929e-06
-1.51891e-06
-9.88994e-07
2.40298e-06
6.91413e-06
-2.86864e-05
-1.35442e-07
-2.00584e-07
1.51536e-06
2.89342e-05
-1.42715e-06
-6.56453e-06
1.80028e-06
6.503e-05
3.63851e-07
-1.38785e-07
9.23393e-07
-1.36297e-07
1.72709e-06
2.04153e-06
2.1091e-06
-2.3292e-06
4.94942e-07
5.78575e-05
-5.60206e-07
-2.02808e-06
-2.75027e-07
8.57587e-07
6.50387e-07
9.62313e-07
-8.37618e-06
-1.73486e-06
5.80981e-07
8.13092e-06
-3.78275e-06
-1.49806e-06
1.5425e-06
3.73832e-06
-1.751e-05
-1.38146e-06
2.04915e-06
1.86426e-05
-2.06441e-05
-1.30605e-06
9.50084e-07
-6.48966e-07
2.2144e-05
-7.49345e-06
1.49318e-07
-6.31133e-07
7.97526e-06
-5.01481e-06
6.861e-07
-1.04651e-06
5.37522e-06
-1.20432e-05
9.76262e-07
-1.55826e-06
1.26252e-05
-1.1273e-07
-8.02235e-07
-1.64932e-05
-4.27502e-08
2.25941e-07
1.7225e-05
1.90675e-06
-1.59766e-05
9.17989e-07
-4.57287e-07
-2.25246e-06
1.58616e-05
-1.70872e-05
1.35492e-09
3.32572e-07
-2.88096e-07
1.72956e-05
-2.54242e-07
1.06027e-06
8.8914e-07
-2.83859e-05
-9.81861e-07
-1.43794e-07
2.75621e-05
-1.07114e-05
3.5274e-06
6.5214e-05
1.27391e-07
4.94884e-07
1.58972e-07
9.86728e-07
1.40688e-06
6.42495e-07
1.90301e-06
1.70313e-06
-5.92565e-06
-4.09144e-07
6.16054e-05
1.94012e-06
1.90998e-06
2.54896e-06
2.47056e-06
-1.32598e-07
1.8695e-06
3.09706e-05
2.05728e-07
1.17277e-07
4.18255e-07
2.09151e-08
-4.43259e-07
-2.9969e-07
-3.62665e-07
-7.34213e-06
2.88606e-08
1.09723e-06
6.08344e-06
-7.58575e-06
-4.41589e-07
2.91574e-07
7.73577e-06
4.58933e-07
-2.79707e-05
-5.13071e-07
-6.43652e-07
1.31835e-06
2.73501e-05
-9.27607e-06
8.52968e-06
5.81302e-05
7.95707e-07
1.10546e-06
1.47982e-06
1.76574e-06
-7.20863e-06
4.33423e-06
5.01325e-05
-5.78934e-07
1.24159e-07
3.27624e-05
-8.47903e-07
-4.84126e-07
-6.59114e-07
3.59368e-09
1.14858e-07
-4.27275e-07
-6.37041e-06
-1.09607e-06
-5.72467e-07
1.52096e-06
5.93906e-06
-2.92605e-05
-3.14624e-08
-2.79096e-07
1.75807e-06
2.94294e-05
-1.61638e-06
-7.82939e-06
1.99712e-06
7.18045e-05
5.51159e-07
-2.77724e-07
1.14271e-06
-1.95502e-07
1.98237e-06
2.16008e-06
2.22438e-06
-2.44012e-06
2.6555e-07
5.73455e-05
-4.23125e-07
-1.90549e-06
-2.05123e-07
7.01119e-07
3.27207e-07
6.96884e-07
-8.57741e-06
-1.7622e-06
-9.38854e-08
8.11753e-06
-3.67475e-06
-1.14303e-06
1.2774e-06
3.54038e-06
-2.00664e-05
-1.95828e-06
2.62371e-06
2.13981e-05
-2.39682e-05
-1.56013e-06
1.30686e-06
-9.693e-07
2.54563e-05
-8.3509e-06
4.50921e-07
-8.13147e-07
8.71312e-06
-5.75497e-06
5.6397e-07
-8.75726e-07
6.06673e-06
-1.32765e-05
1.43432e-06
-2.07978e-06
1.3922e-05
-1.89057e-07
-8.01233e-07
-1.80796e-05
-2.32674e-07
4.2697e-07
1.88756e-05
1.66913e-06
-1.60051e-05
9.97804e-07
-7.55832e-07
-2.05919e-06
1.61531e-05
-1.73941e-05
-3.06374e-08
-8.25564e-07
4.25543e-07
1.72027e-05
6.22101e-07
1.71513e-06
1.55591e-06
-2.6349e-05
-1.53514e-06
-3.40016e-07
2.49531e-05
-1.38644e-05
3.392e-06
6.5537e-05
-1.40407e-07
4.45898e-07
-1.34208e-07
7.25924e-07
2.2636e-06
1.86541e-06
2.57092e-06
2.55232e-06
-7.86612e-06
-2.03895e-06
5.20246e-05
1.68315e-06
1.25357e-06
1.72062e-06
9.64113e-07
-6.83977e-07
-1.06495e-06
2.79829e-05
-8.48926e-08
-3.02919e-07
-2.65525e-07
-5.75196e-07
-5.73943e-07
-7.95258e-07
-5.31843e-07
-5.3109e-06
-1.49339e-06
1.231e-06
4.8893e-06
-8.01298e-06
-8.95825e-07
5.78544e-07
8.33026e-06
4.83572e-07
-2.70204e-05
-1.36412e-06
-8.3061e-07
2.09992e-06
2.66316e-05
-9.49733e-06
7.15799e-06
5.73961e-05
1.17413e-06
1.4463e-06
1.82557e-06
2.01938e-06
-6.24718e-06
-2.00841e-07
4.50442e-05
-4.35592e-07
-6.08928e-07
3.04031e-05
-5.10165e-07
-3.9049e-07
-3.10014e-07
-1.03836e-06
-4.30676e-07
-1.22858e-06
-5.86927e-06
-4.32289e-07
-1.53217e-07
1.10833e-07
5.90835e-06
-2.98322e-05
-5.09073e-08
-2.49648e-07
1.91693e-06
3.02029e-05
-1.98707e-06
-5.9433e-06
1.98941e-06
7.72764e-05
2.32492e-07
-6.00063e-07
5.54429e-07
-5.46284e-07
1.9486e-06
2.02151e-06
2.02926e-06
-1.91195e-06
-2.56131e-07
5.5045e-05
-1.69387e-07
-1.33486e-06
-4.99479e-08