/*--------------------------------*- C++ -*----------------------------------*\
| =========                 |                                                 |
| \\      /  F ield         | OpenFOAM: The Open Source CFD Toolbox           |
|  \\    /   O peration     | Version:  5.x                                   |
|   \\  /    A nd           | Web:      www.OpenFOAM.org                      |
|    \\/     M anipulation  |                                                 |
\*---------------------------------------------------------------------------*/
FoamFile
{
    version     2.0;
    format      ascii;
    class       volVectorField;
    location    "6";
    object      U;
}
// * * * * * * * * * * * * * * * * * * * * * * * * * * * * * * * * * * * * * //

dimensions      [0 1 -1 0 0 0 0];

internalField   nonuniform List<vector> 
10571
(
(0.39185 0.0559427 3.00288)
(-0.0046054 0.092923 0.56066)
(0.135764 0.149474 1.46887)
(0.366275 0.477126 1.37595)
(-0.0132309 0.22149 1.00469)
(-0.151742 0.412536 1.05992)
(0.319754 0.341494 1.27713)
(-0.350375 -0.00288007 1.67918)
(-0.344879 -0.194595 1.17338)
(-0.0678875 -0.152186 1.19394)
(0.253762 0.728919 2.1001)
(-0.179238 0.292838 1.99475)
(-0.372802 0.121949 1.82295)
(-0.422887 -0.216032 1.02961)
(-0.323047 -0.244693 1.11965)
(0.0553827 -0.132262 1.26604)
(-0.0905954 -0.192433 1.2721)
(-0.425779 -0.352751 1.04565)
(-0.337663 -0.307579 1.13649)
(-0.153894 -0.073526 0.990416)
(-0.0418604 -0.0399149 0.681113)
(-0.375656 -0.0723093 1.17305)
(-0.2115 0.0231472 1.13082)
(-0.0112278 -0.0448145 0.754523)
(0.0991927 0.345785 1.12416)
(-0.0725675 0.0591989 0.583303)
(-0.056676 0.0823841 1.03199)
(-0.0678662 0.0962753 0.612676)
(-0.0186035 -0.0461527 0.907762)
(0.00721368 0.155087 0.809274)
(-0.617472 -0.203155 1.44192)
(-0.0959341 -0.00087355 1.50337)
(0.0688252 0.0291739 1.06547)
(-0.00104193 0.0604244 1.25607)
(0.201025 0.107367 1.13189)
(-0.056898 -0.333768 1.46733)
(-0.270462 -0.0592113 1.5385)
(-0.0103167 0.0282585 1.12696)
(0.0116038 0.0273644 0.600414)
(-0.0178656 0.0347528 1.06967)
(-0.302491 -0.269356 0.974748)
(-0.105195 -0.0304605 0.863945)
(-0.0378384 0.0322112 0.667571)
(-0.00959588 -0.118954 1.11667)
(0.0331912 0.00476764 0.775079)
(-0.0841274 -0.17906 1.02621)
(-0.0182269 -0.0713021 0.806403)
(-0.000791554 0.00869391 0.77068)
(-0.259014 -0.155796 0.684596)
(-0.0765425 -0.369008 0.860107)
(-0.387916 -0.445441 0.955341)
(-0.37261 -0.504218 1.06259)
(0.0742139 -0.159383 0.954579)
(-0.576152 -0.668859 1.43775)
(-0.190005 -0.199087 1.22537)
(0.33393 0.282428 1.33601)
(0.203009 0.201292 0.659747)
(-0.0521081 0.171821 0.955299)
(-0.0692891 -0.289748 0.647791)
(0.424082 -1.00283 2.43946)
(0.169686 0.323895 1.22417)
(0.314347 0.385238 0.958956)
(0.145225 0.0726138 0.963471)
(-0.102343 0.0411197 0.610406)
(0.0460018 -0.0343938 1.04121)
(0.138041 0.123058 0.594089)
(-0.0160248 0.12611 0.849982)
(-0.0723133 -0.0307232 0.576758)
(-0.0185235 0.0373382 0.647097)
(0.0332711 -0.14697 0.793002)
(0.0295314 -0.0831538 0.627581)
(-0.00618532 0.0141531 0.544367)
(0.0790808 -0.35148 1.73765)
(-0.0471687 -0.6852 2.01912)
(-0.246883 -0.45079 0.532922)
(-0.13611 -0.492876 0.768925)
(0.169529 -0.162398 0.835491)
(-0.443687 -0.57494 0.95596)
(0.00916051 -0.0575843 0.566656)
(0.0662356 0.0598941 0.65058)
(0.652549 0.207796 1.71657)
(0.175526 0.0766848 1.24882)
(-0.432781 -0.174024 1.33647)
(-0.681469 0.112905 2.0134)
(0.146831 0.10443 0.752938)
(0.164042 0.275695 1.27447)
(0.0114313 -0.302566 1.60379)
(-0.00679718 -0.0159884 0.645015)
(-0.0972541 0.186291 0.752245)
(0.192159 0.334664 1.69167)
(-0.395469 0.0246726 1.6459)
(-0.131531 -0.0492518 0.471694)
(0.0363751 -0.0510029 0.294228)
(-0.0548539 -0.0551525 0.983953)
(-0.272274 -0.123658 0.735941)
(-0.237805 0.0968561 0.347761)
(0.288458 0.0111406 1.95293)
(0.0350241 0.0697019 2.14711)
(0.0210915 0.0330582 0.217736)
(-0.169217 -0.219652 0.398885)
(-0.257167 -0.0636523 0.256345)
(-0.0444976 -0.123355 0.646538)
(-0.0223882 -0.0143724 0.959021)
(0.00787643 -0.00443679 0.78752)
(0.188703 0.188864 1.00986)
(-0.302824 0.235934 0.711713)
(-0.177376 0.151125 2.53957)
(-0.0575729 -0.139026 1.83887)
(0.101308 -0.070483 1.31603)
(-0.212093 -0.0279435 1.16333)
(-0.205976 -0.147362 1.08587)
(-0.342237 0.437236 0.460066)
(-0.0571885 -0.106646 0.295796)
(0.132099 0.00549555 1.08995)
(-0.388418 -0.153936 1.13246)
(-0.112172 0.129689 0.0017913)
(-0.246807 0.196556 0.154642)
(0.00640113 -0.406533 0.439672)
(-0.0697325 -0.189828 -0.00873065)
(0.012365 0.026419 -0.15198)
(0.24343 0.0930926 1.71588)
(-0.185259 0.458162 1.73066)
(0.235088 0.248965 0.607763)
(-0.0588242 0.169035 0.354175)
(-0.130729 0.108146 0.348068)
(-0.073827 -0.176797 0.531039)
(0.0133274 -0.0874889 0.390144)
(-0.0631366 -0.0363207 0.38882)
(0.0620025 0.196564 1.13324)
(0.0667669 0.193976 0.570538)
(0.012302 0.00306652 0.00869456)
(-0.0453273 0.284855 2.74028)
(-0.23192 0.120332 0.729973)
(-0.0300663 -0.103793 0.595452)
(-0.131146 -0.0569304 0.971935)
(-0.232136 -0.0833065 1.10707)
(-0.167146 0.414479 0.312708)
(0.00205409 0.00139165 0.000759405)
(-0.0033267 -0.0563008 0.416317)
(0.114221 0.0385289 1.12561)
(-0.317691 -0.156786 1.02786)
(-0.0611976 0.217043 0.269664)
(-0.0533369 0.196538 0.101795)
(0.156318 0.162828 0.447393)
(0.120563 0.148309 0.0586911)
(0.0991097 0.045865 -0.104758)
(0.236781 0.07123 0.411488)
(-0.200446 0.4174 1.05866)
(0.100986 0.313121 0.750011)
(0.0815622 0.233133 0.529392)
(0.03 0.17381 0.399367)
(-0.132816 0.194465 0.88253)
(0.0121753 -0.00890261 0.451398)
(-0.0757759 -0.0577053 0.54565)
(-0.0628684 0.230416 1.13917)
(-0.0442354 -0.030677 0.238303)
(-0.0545647 0.0373406 -0.0301159)
(-0.0280253 0.419785 3.07682)
(-0.264048 0.0642066 0.621522)
(-0.111467 -0.0926016 0.729832)
(-0.0947916 -0.0582454 1.03445)
(-0.196033 -0.0575553 1.11407)
(-0.00987353 0.299713 0.344439)
(0.00269621 0.012717 -0.00851508)
(0.00690609 -0.0479885 0.469995)
(0.121171 0.00239027 1.08312)
(-0.138954 -0.0969477 0.999258)
(0.063274 0.149559 0.392937)
(0.0257921 0.0464265 0.117096)
(0.0799435 0.0166402 0.0628212)
(0.0832613 0.152916 0.471878)
(0.111107 0.107495 0.202281)
(0.0966996 0.0310106 0.0219958)
(0.123159 0.0227142 0.227622)
(-0.00900233 0.0131259 0.766263)
(0.0259429 0.1907 0.801567)
(0.0976809 0.130001 0.588268)
(0.0594787 0.137535 0.438799)
(-0.115473 0.319294 0.979626)
(0.0101152 0.00607065 0.487508)
(-0.0731796 -0.0503977 0.694234)
(-0.110494 0.217224 1.08991)
(-0.0794087 -0.0298327 0.143153)
(0.00343702 -0.0112478 -0.0393964)
(0.0381157 0.457887 3.26169)
(-0.140333 0.120108 0.730969)
(-0.128662 -0.103343 0.680202)
(-0.0442575 -0.0851779 1.08694)
(-0.17449 -0.0395695 1.06259)
(0.10217 0.0450474 0.488842)
(0.0536442 -0.0271622 0.0136478)
(0.031403 0.0240105 0.527718)
(0.0643345 -0.01965 0.941351)
(0.0307681 -0.0687572 0.90781)
(0.0807904 0.102791 0.415931)
(0.0481102 0.0191548 0.101384)
(0.0991085 0.0126179 0.0518193)
(0.0310303 0.123307 0.501351)
(0.0597062 0.0853223 0.304769)
(0.0696697 0.0316944 0.159967)
(0.0478762 -0.00106272 0.222273)
(0.0449814 -0.1533 0.749793)
(-0.0594139 0.0525668 0.700229)
(0.0516043 -0.00404876 0.537991)
(0.0168857 0.08215 0.44752)
(-0.0779086 0.344318 0.933298)
(-0.0164685 -0.0443625 0.518207)
(-0.107534 -0.0869069 0.767685)
(-0.140068 0.0990794 1.04766)
(-0.0228073 -0.102972 0.171934)
(0.0731064 -0.08124 -0.0702332)
(0.110293 0.534182 3.2014)
(0.131523 0.146674 0.853034)
(-0.0822319 -0.125692 0.640513)
(-0.0391955 -0.090704 1.08564)
(-0.0734103 -0.0291275 0.955481)
(0.166785 -0.100654 0.478806)
(0.0960488 -0.0383015 0.0315557)
(0.112593 0.113929 0.604508)
(-0.0261661 -0.0340637 0.75067)
(0.0358784 -0.0621699 0.781807)
(0.0908979 0.10612 0.414537)
(0.0300709 -0.00147427 0.152918)
(0.0190936 0.138344 0.546289)
(0.0254201 0.0845524 0.385808)
(0.0358891 0.0432499 0.316388)
(0.0407908 -0.010451 0.283432)
(0.0949405 -0.147733 0.79622)
(-0.0120602 -0.0630037 0.587566)
(0.0158754 -0.0486641 0.527946)
(-0.0189127 0.0110541 0.452935)
(-0.0125185 0.197683 1.00227)
(-0.0399279 -0.0931718 0.593614)
(-0.145477 -0.156411 0.820454)
(-0.116016 -0.118793 0.881585)
(-0.00846277 -0.0874954 0.203588)
(-0.00731369 0.433649 3.02851)
(0.3404 0.125644 0.943577)
(-0.0327007 -0.122478 0.668488)
(-0.0747475 -0.105774 1.06518)
(0.0870124 -0.00306706 0.80381)
(0.132674 -0.0442398 0.339746)
(0.13064 0.138913 0.771322)
(0.0116638 -0.0155234 0.63585)
(-0.0604494 -0.0234216 0.653326)
(0.066313 0.0983476 0.402136)
(-0.00391551 0.00749467 0.238687)
(0.0315448 0.135396 0.614312)
(0.0017799 0.0803293 0.461845)
(0.0287428 0.040941 0.458613)
(0.0451413 -0.0179261 0.357947)
(0.095973 -0.133902 0.789621)
(0.0027789 -0.0635059 0.591035)
(0.00812311 -0.0558992 0.574604)
(-0.0276049 -0.024232 0.48516)
(-0.00952818 0.123135 1.09887)
(-0.0263737 -0.104156 0.648156)
(-0.130444 -0.200718 0.873091)
(-0.0310205 -0.217121 0.775063)
(0.0572166 -0.0221006 0.267971)
(0.121539 0.142664 2.08053)
(0.294257 0.101581 1.11014)
(0.00489363 -0.0815365 0.684912)
(-0.122948 -0.171733 0.947887)
(0.134823 0.0173194 0.650069)
(0.123972 -0.0266493 0.337101)
(0.0803357 0.104925 0.940796)
(0.0713862 0.0338365 0.572999)
(-0.12412 0.0314628 0.568904)
(-0.00295498 0.0671817 0.39443)
(-0.0296774 0.0461447 0.28508)
(0.0552327 0.095381 0.681325)
(-0.0169976 0.0620291 0.538433)
(0.0191792 0.0278286 0.517201)
(0.0361519 -0.025264 0.439094)
(0.0604414 -0.092542 0.802159)
(0.0383205 -0.0214167 0.6195)
(-0.011974 -0.0705019 0.639008)
(-0.0277547 -0.0259173 0.534401)
(-0.0773871 0.117753 1.16323)
(-0.000699752 -0.0718947 0.674706)
(-0.103982 -0.20146 0.897932)
(0.0655615 -0.213972 0.680084)
(0.0812153 -0.0227372 0.349932)
(0.0515458 0.0835764 1.22864)
(0.164704 0.0641351 1.24072)
(0.0106815 0.00483081 0.664104)
(-0.0889551 -0.149904 0.835062)
(0.0663257 0.0563858 0.5026)
(0.0496814 0.0331456 0.339268)
(0.030834 0.080188 1.03691)
(0.0744566 0.0784396 0.559969)
(-0.150546 0.080052 0.536239)
(-0.0744358 0.0705386 0.378285)
(-0.0437676 0.0774119 0.324708)
(0.0759708 0.0714413 0.745498)
(0.0196041 0.0285079 0.62799)
(0.0263344 0.0137456 0.541629)
(0.0160886 -0.0341523 0.530365)
(0.0315763 -0.0483609 0.816857)
(0.073918 0.00992546 0.649631)
(-0.0232309 -0.0858634 0.694808)
(-0.0243484 -0.0172161 0.576223)
(-0.0703319 0.116175 1.21771)
(-0.000282141 -0.0361937 0.671364)
(-0.0956015 -0.192802 0.885811)
(0.0674442 -0.0977977 0.568119)
(0.0948244 0.0235968 0.426386)
(0.0160411 0.0299845 1.10766)
(0.108413 0.0275706 1.29808)
(-0.0324673 0.0920128 0.627647)
(-0.0800557 0.0161461 0.718395)
(-0.0126862 0.0888398 0.423389)
(-0.0177538 0.13123 0.324431)
(0.00887941 0.0843488 1.09445)
(0.0246323 0.119025 0.585031)
(-0.168297 0.112339 0.558534)
(-0.110926 0.0779744 0.355221)
(-0.0581355 0.102575 0.345448)
(0.108633 0.0841159 0.816491)
(0.0900604 0.00327469 0.728546)
(0.0598746 0.0042566 0.614604)
(-0.0151199 -0.0394791 0.636)
(0.030596 -0.0429549 0.837166)
(0.0822714 0.0161516 0.680863)
(-0.0304253 -0.110212 0.716175)
(0.0089659 -0.0216172 0.637194)
(-0.0482139 0.0891111 1.26634)
(-0.044115 -0.0314852 0.660543)
(-0.104377 -0.148914 0.826425)
(0.00938066 0.0594545 0.444291)
(0.0729247 0.0238936 0.434659)
(0.0171157 0.0236608 1.08424)
(0.0484927 0.0114231 1.28601)
(-0.0877365 0.144427 0.598112)
(-0.137213 0.119538 0.611505)
(-0.0552264 0.0648697 0.38609)
(-0.0402693 0.161501 0.286454)
(0.0081868 0.0989548 1.1316)
(-0.0486036 0.148105 0.645939)
(-0.195144 0.108163 0.595431)
(-0.13393 0.0794673 0.357951)
(-0.0679647 0.125346 0.342029)
(0.140706 0.106561 0.915026)
(0.127004 0.000360173 0.843012)
(0.0804943 0.000516739 0.704382)
(-0.0361637 -0.0356518 0.742149)
(0.0589205 -0.086804 0.896273)
(0.0768592 0.031941 0.73835)
(-0.0610673 -0.146392 0.698366)
(0.0486736 0.0337961 0.673532)
(-0.0614299 -0.0206353 1.23621)
(-0.174361 -0.0292693 0.644011)
(-0.174524 -0.0955131 0.668801)
(-0.036732 0.0878794 0.350587)
(-0.00240905 0.0784387 0.335032)
(0.0120295 0.0626032 1.08911)
(-0.0452586 0.0698847 1.21708)
(-0.137097 0.153371 0.583463)
(-0.174533 0.0771679 0.536786)
(-0.0721566 -0.0172511 0.357658)
(-0.017967 0.0984632 0.239761)
(0.00870539 0.106636 1.14826)
(-0.0683057 0.132882 0.714407)
(-0.220209 0.0522817 0.61029)
(-0.137039 0.0325028 0.367184)
(-0.0540195 0.104434 0.3289)
(0.183575 0.131297 1.04918)
(0.157329 0.00650189 0.974908)
(0.0936179 0.00224833 0.776935)
(-0.0258516 -0.0280451 0.849448)
(0.0848401 -0.11924 0.989884)
(0.0535498 0.0404142 0.809862)
(-0.0727891 -0.133577 0.705205)
(-0.0428859 0.0853552 0.682194)
(-0.0962762 -0.0883252 1.12455)
(-0.242528 -0.0149791 0.647512)
(-0.213928 -0.0781036 0.551751)
(-0.0649453 0.0384991 0.303883)
(-0.0422499 0.114782 0.255009)
(0.004993 0.146283 1.16799)
(-0.0648453 0.155647 1.18116)
(-0.163281 0.137639 0.578316)
(-0.157511 0.0067365 0.475975)
(-0.0615286 -0.074219 0.331565)
(-0.0153392 0.0104729 0.231982)
(0.0104571 0.118638 1.17415)
(-0.00583359 0.09769 0.784706)
(-0.21009 -0.0247212 0.592295)
(-0.0878116 -0.0188154 0.350242)
(0.00781711 -0.0196894 0.294874)
(0.238385 0.14975 1.18294)
(0.201892 -0.00103123 1.08699)
(0.147615 -0.0319421 0.824686)
(-0.0264985 -0.0184645 0.896112)
(0.0898729 -0.120376 1.07225)
(0.0350482 0.0267878 0.883371)
(-0.120771 -0.0362654 0.741309)
(-0.134657 0.0017829 0.618455)
(-0.123648 -0.0354958 1.02308)
(-0.249864 -0.00617634 0.652958)
(-0.183925 -0.0535704 0.487782)
(-0.0738906 -0.0207699 0.287133)
(-0.0514564 0.0474664 0.233692)
(0.00267004 0.185304 1.25861)
(-0.053578 0.180755 1.15773)
(-0.159678 0.113678 0.569828)
(-0.0908366 0.0130301 0.435917)
(-0.0265154 -0.0822636 0.30751)
(-0.0102733 -0.061532 0.239113)
(0.0243013 0.137867 1.21374)
(0.0798671 0.0503759 0.844652)
(-0.151863 -0.0591181 0.580026)
(-0.00757929 -0.0287541 0.329705)
(0.0449837 -0.0998394 0.255884)
(0.272455 0.149237 1.27419)
(0.230259 -0.00786379 1.1629)
(0.200304 -0.0966077 0.769824)
(-0.0704239 -0.0250271 0.915005)
(0.0672767 -0.0973809 1.11555)
(0.0125329 0.044346 0.934527)
(-0.136965 0.0277652 0.783421)
(-0.0791855 -0.0902463 0.528895)
(-0.111705 0.0707998 0.986112)
(-0.22491 0.00143241 0.660833)
(-0.104382 -0.0569289 0.435273)
(-0.0707688 -0.0743876 0.278879)
(-0.0429809 -0.0107589 0.229845)
(0.00274662 0.187771 1.33738)
(-0.062139 0.155093 1.13613)
(-0.120286 0.0893654 0.550071)
(0.0188195 0.0560019 0.388578)
(0.0208123 -0.0620062 0.295567)
(0.00438672 -0.0953811 0.245153)
(0.0441115 0.165716 1.25342)
(0.093696 -0.0131632 0.873242)
(-0.0655715 -0.0513104 0.5898)
(0.0693753 -0.0180997 0.334762)
(0.0698781 -0.12839 0.234808)
(0.281082 0.133555 1.32302)
(0.23834 -0.00136509 1.22002)
(0.210874 -0.111077 0.662625)
(-0.183113 -0.014483 0.869978)
(0.0103353 -0.0635324 1.14025)
(-0.0559163 0.092573 0.949599)
(-0.196201 0.0597427 0.761612)
(-0.0238639 -0.110573 0.477742)
(-0.0651997 0.134724 1.00459)
(-0.120932 0.0211743 0.683752)
(-0.00370265 -0.0826821 0.388348)
(-0.0565335 -0.115155 0.274888)
(-0.0312344 -0.0462237 0.239704)
(0.00230237 0.170127 1.38201)
(-0.0253248 0.109622 1.13057)
(-0.00830313 0.0796753 0.51791)
(0.0982432 0.0746204 0.345909)
(0.0579083 -0.0511893 0.300657)
(0.0159598 -0.110516 0.256033)
(0.0745626 0.176715 1.2895)
(0.0594935 -0.0773562 0.87437)
(0.0189241 -0.0329758 0.599742)
(0.108626 -0.0102099 0.357471)
(0.0858351 -0.143954 0.249253)
(0.282027 0.12099 1.34323)
(0.186869 -0.0374094 1.25866)
(0.198336 -0.0849855 0.620977)
(-0.247256 -0.0415472 0.807443)
(-0.0373689 0.00367058 1.17739)
(-0.185424 0.131525 0.982113)
(-0.159109 -0.0479004 0.636896)
(-0.0468468 -0.123292 0.469894)
(-0.00550765 0.16794 1.02946)
(0.022995 0.0410556 0.680137)
(0.0878391 -0.10787 0.347203)
(-0.0443014 -0.137492 0.286415)
(-0.0210862 -0.0598647 0.264876)
(0.00254898 0.156546 1.38094)
(0.0319986 0.106818 1.13792)
(0.102677 0.104447 0.481855)
(0.14708 0.0779818 0.318375)
(0.0696412 -0.0621932 0.311988)
(0.0238243 -0.120004 0.27689)
(0.100829 0.19159 1.29966)
(0.046082 -0.115642 0.852893)
(0.0829689 -0.0242364 0.597834)
(0.127622 -0.0155508 0.386249)
(0.0975328 -0.155807 0.282214)
(0.273985 0.121933 1.34428)
(0.129332 -0.0609167 1.28226)
(0.187474 -0.062708 0.633293)
(-0.234971 -0.0481275 0.813845)
(-0.0836516 0.0928952 1.16039)
(-0.272733 0.135755 1.02036)
(-0.180368 -0.148814 0.529676)
(-0.10331 -0.131844 0.465043)
(0.0120423 0.208274 1.05986)
(0.139781 0.0558486 0.627732)
(0.141245 -0.124406 0.310457)
(-0.0368355 -0.139374 0.311416)
(-0.00621301 -0.0549658 0.304785)
(0.00729327 0.156654 1.35315)
(0.0687042 0.128653 1.1526)
(0.171794 0.146487 0.446727)
(0.170153 0.0711333 0.312453)
(0.0570702 -0.0916079 0.335987)
(0.0230622 -0.120301 0.305929)
(0.104754 0.190928 1.29503)
(0.0649768 -0.118748 0.829052)
(0.132041 -0.0305273 0.587867)
(0.147869 -0.036134 0.412844)
(0.107732 -0.168102 0.322883)
(0.254352 0.127215 1.3418)
(0.12884 -0.0527225 1.3074)
(0.193533 -0.0613449 0.676063)
(-0.193493 -0.0782959 0.893002)
(-0.111135 0.136328 1.15078)
(-0.255788 0.123812 1.0229)
(-0.226918 -0.0905897 0.497063)
(-0.125347 -0.131282 0.437343)
(0.0308467 0.234912 1.06482)
(0.204331 0.0628173 0.549363)
(0.161137 -0.128093 0.296126)
(-0.0319239 -0.11024 0.345832)
(0.0208468 -0.0228395 0.356403)
(0.00871565 0.150996 1.306)
(0.130302 0.180418 1.18221)
(0.200282 0.179171 0.427403)
(0.171303 0.0540875 0.324382)
(0.0311868 -0.124516 0.375605)
(0.0146746 -0.104265 0.336364)
(0.119016 0.174002 1.29568)
(0.143219 -0.0601868 0.784544)
(0.163717 -0.0509324 0.590312)
(0.170747 -0.0708991 0.436377)
(0.114453 -0.178954 0.371341)
(0.238388 0.120207 1.34139)
(0.189826 -0.0300088 1.33274)
(0.221458 -0.0821128 0.729164)
(-0.117785 -0.0186693 0.996717)
(-0.117017 0.146093 1.09848)
(-0.157704 0.144512 0.980412)
(-0.152681 0.114578 0.482763)
(-0.0677843 -0.0313241 0.410481)
(0.0203628 0.215521 1.03604)
(0.217142 0.0676376 0.48738)
(0.159308 -0.114524 0.321369)
(-0.029324 -0.0464543 0.388963)
(0.0489467 0.0330808 0.404172)
(0.0189789 0.17483 1.24205)
(0.146459 0.264026 1.13448)
(0.195445 0.183384 0.421586)
(0.136078 0.0134993 0.364775)
(0.00586854 -0.138343 0.429934)
(0.00391879 -0.0639262 0.371022)
(0.138336 0.175325 1.33498)
(0.203102 0.00691155 0.768158)
(0.168748 -0.0752848 0.601017)
(0.182657 -0.108195 0.462565)
(0.116211 -0.184119 0.430429)
(0.239803 0.10736 1.3453)
(0.230791 -0.0276844 1.34867)
(0.247577 -0.102931 0.766624)
(0.0648443 0.0381342 0.694636)
(-0.127981 0.156802 1.03291)
(-0.0935721 0.183429 0.945051)
(-0.0472972 0.17427 0.502784)
(0.0403713 0.061148 0.429457)
(0.0161086 0.183715 1.00632)
(0.210418 0.0693943 0.44842)
(0.132184 -0.0600655 0.400611)
(-0.0327317 0.024038 0.428105)
(0.0681187 0.0922395 0.436404)
(0.00561283 0.201685 1.13261)
(0.114617 0.211768 1.0539)
(0.133137 0.146304 0.430318)
(0.0716848 -0.020738 0.420926)
(-0.0117028 -0.124943 0.495641)
(0.00232354 -0.0124316 0.420964)
(0.141887 0.19142 1.40101)
(0.201071 0.0209659 0.777677)
(0.16241 -0.0976493 0.603591)
(0.184014 -0.132722 0.495215)
(0.113687 -0.183496 0.504935)
(0.258098 0.108257 1.3689)
(0.229146 -0.0318017 1.35158)
(0.273443 -0.121085 0.762417)
(0.190959 0.0166752 0.488194)
(-0.110715 0.12705 0.955989)
(-0.0506609 0.107535 0.88146)
(0.129519 0.0788511 0.523488)
(0.12023 0.0718675 0.483488)
(-0.0294644 0.126269 0.984584)
(0.187287 0.0802175 0.4296)
(0.0724032 0.0122828 0.480057)
(-0.0275878 0.0745754 0.458774)
(0.0570639 0.148001 0.446668)
(0.0262625 0.124409 1.0424)
(0.127617 0.274604 0.916757)
(0.0325252 0.0795774 0.471089)
(0.0150019 -0.0177488 0.474687)
(-0.0167835 -0.0880905 0.562945)
(0.012969 0.02097 0.499365)
(0.148232 0.198505 1.45669)
(0.183144 -0.000782534 0.787925)
(0.16269 -0.112076 0.601663)
(0.185914 -0.139311 0.537248)
(0.108858 -0.176541 0.595599)
(0.239636 0.0949393 1.38841)
(0.171254 -0.0622936 1.33498)
(0.3045 -0.140882 0.730603)
(0.149219 0.0153902 0.484624)
(-0.087384 0.0585965 0.954577)
(0.171676 -0.0272821 0.664749)
(0.222854 0.0280376 0.53773)
(0.0981925 0.0447211 0.575095)
(-0.00500815 0.193867 0.750332)
(0.1 0.0938487 0.443315)
(-0.000925963 0.0769784 0.529578)
(-0.0192543 0.0944518 0.48501)
(0.0260001 0.169845 0.431421)
(0.0279987 0.197026 0.963567)
(0.0599558 0.363887 0.817734)
(-0.0074026 0.0290409 0.517431)
(-0.0146478 0.0162958 0.528926)
(-0.00456034 -0.042722 0.624373)
(0.0281865 0.00686347 0.607864)
(0.218039 0.243978 1.51191)
(0.182785 -0.0792115 0.801139)
(0.169989 -0.111939 0.607198)
(0.178452 -0.137733 0.595581)
(0.10405 -0.161833 0.690698)
(0.21037 0.078653 1.40963)
(0.146017 -0.0814802 1.2093)
(0.31588 -0.1514 0.728627)
(-0.0270833 -0.00563279 0.43057)
(0.0332197 0.0170943 0.777978)
(0.137713 0.0497609 0.539901)
(0.165784 0.0295747 0.58028)
(0.00165361 0.0238606 0.554152)
(-0.0298434 0.24394 0.549146)
(0.0036353 0.116717 0.467557)
(-0.0387673 0.107222 0.532728)
(-0.0178338 0.0832713 0.500695)
(0.0124726 0.111564 0.459525)
(0.00398476 0.449485 0.970361)
(-0.137377 0.209012 0.889678)
(0.0135803 0.00774827 0.542808)
(0.000138216 0.0570194 0.585255)
(0.0252633 -0.00893833 0.683449)
(0.0396538 -0.0458355 0.710416)
(0.255994 0.257184 1.57586)
(0.214852 -0.141695 0.799541)
(0.186488 -0.0894108 0.647784)
(0.167946 -0.121836 0.66678)
(0.0980963 -0.147896 0.764393)
(0.0895786 0.00440458 1.42517)
(0.264249 -0.0583595 0.972674)
(0.292682 -0.143803 0.781753)
(-0.0966095 -0.0233535 0.462975)
(0.00585497 0.0326108 0.543904)
(-0.0301918 0.0332658 0.506341)
(-0.0631027 0.032772 0.5979)
(-0.0171069 0.0111653 0.444854)
(-0.0740362 0.142085 0.499559)
(-0.0183122 0.127674 0.46878)
(-0.0453849 0.105103 0.521842)
(-0.0373715 0.00663468 0.521264)
(-0.017472 -0.0291607 0.538018)
(-0.0189747 0.517017 1.13792)
(-0.314782 -0.0717386 0.999066)
(0.0636051 0.0290249 0.561878)
(0.0494565 0.0921725 0.640435)
(0.0553953 0.00705488 0.739976)
(0.039616 -0.0885249 0.763748)
(0.20883 0.159673 1.61705)
(0.228525 -0.147489 0.785822)
(0.208052 -0.0534174 0.721067)
(0.17845 -0.0884556 0.745157)
(0.101406 -0.147505 0.821315)
(0.131824 -0.0335628 1.29749)
(0.292795 -0.0605894 0.873366)
(0.181633 -0.101118 0.853193)
(-0.0780325 -0.0132971 0.512795)
(-0.00314076 0.0144177 0.470114)
(-0.0882032 0.0276295 0.493633)
(-0.131176 0.0370716 0.498624)
(-0.0507475 -0.021832 0.393363)
(-0.0183766 -0.0168404 0.525803)
(0.00554134 0.125818 0.47659)
(-0.0449969 0.0641392 0.516134)
(-0.0720997 -0.0908727 0.525453)
(-0.0448949 -0.116087 0.583135)
(0.00306733 0.435659 1.31591)
(-0.279609 -0.314771 1.07996)
(0.10617 0.0750528 0.5906)
(0.0817769 0.111982 0.688954)
(0.0554589 -0.00284971 0.787684)
(0.0119317 -0.116305 0.782116)
(0.0718944 -0.181778 1.69526)
(0.213982 -0.0778891 0.772845)
(0.201291 -0.0337268 0.788882)
(0.186835 -0.0748147 0.815092)
(0.098627 -0.14207 0.871943)
(0.131549 -0.0739564 0.990445)
(0.163184 -0.031718 0.896589)
(0.094411 -0.0531642 0.891411)
(-0.044254 -0.00853324 0.521577)
(0.0238615 -0.0194751 0.485802)
(-0.0714716 0.0369295 0.487093)
(-0.106505 0.0174522 0.444447)
(-0.0787222 -0.0567531 0.389525)
(0.115009 -0.119521 0.582688)
(0.0758419 0.111569 0.517532)
(-0.0526694 -0.0163698 0.524183)
(-0.0968471 -0.14429 0.512611)
(-0.0587473 -0.162686 0.585486)
(-0.0119816 0.203734 1.22774)
(-0.0337562 -0.506022 0.996571)
(0.136827 0.123506 0.63973)
(0.0643212 0.112607 0.731634)
(0.0142301 -0.0461487 0.813098)
(0.0015232 -0.136029 0.771422)
(-0.0253136 -0.239024 1.60153)
(0.184299 0.0107144 0.789323)
(0.152364 -0.0489054 0.854503)
(0.149496 -0.0815877 0.877705)
(0.0902681 -0.135254 0.885735)
(-0.00946468 -0.0549858 0.844351)
(0.0200693 -0.00899221 0.879076)
(0.0448408 -0.0224542 0.885053)
(-0.0381952 -0.0075431 0.513907)
(0.0297136 -0.0314415 0.539749)
(-0.0547088 0.0415492 0.497706)
(-0.0891042 -0.0217141 0.456141)
(-0.0915885 -0.0766618 0.418616)
(0.20612 -0.119376 0.639159)
(0.113376 0.0795232 0.566831)
(-0.0633261 -0.061249 0.543502)
(-0.107381 -0.165595 0.500641)
(-0.0691478 -0.194408 0.569295)
(-0.0497932 -0.268525 1.24397)
(0.159908 -0.347766 0.86146)
(0.134734 0.148381 0.717463)
(-5.38322e-05 0.0919104 0.793836)
(-0.0354809 -0.100855 0.793465)
(0.0188262 -0.162596 0.713383)
(0.13921 -0.0698896 1.22539)
(0.135471 0.0189191 0.845158)
(0.0885741 -0.0777707 0.912118)
(0.101087 -0.11661 0.9156)
(0.071603 -0.115198 0.875381)
(-0.0577326 -0.0398671 0.814412)
(-0.0530331 -0.00266315 0.847651)
(-0.0507363 0.0280205 0.782913)
(-0.0364171 -0.00623526 0.514783)
(0.0127044 -0.0137377 0.587611)
(-0.0558696 0.026611 0.51593)
(-0.0818277 -0.058146 0.493639)
(-0.0910054 -0.0822652 0.467039)
(0.181164 -0.0871561 0.681444)
(0.094828 0.0058837 0.62342)
(-0.0647405 -0.0922771 0.569183)
(-0.106015 -0.165102 0.497772)
(-0.0763057 -0.199597 0.548524)
(-0.0415624 -0.130095 1.41673)
(0.184852 -0.105025 0.751635)
(0.0906724 0.105047 0.799435)
(-0.0263665 0.0622687 0.848602)
(-0.0250166 -0.124735 0.740229)
(0.0146139 -0.151234 0.636057)
(0.0674621 -0.0290869 0.986272)
(0.0585651 -0.0264229 0.907575)
(0.049733 -0.0879142 0.948828)
(0.00112359 -0.109661 0.899051)
(0.0233419 -0.0697084 0.758311)
(-0.0617612 -0.0332229 0.808516)
(-0.051238 0.00156559 0.837405)
(-0.0278408 0.00375078 0.681114)
(-0.034039 -0.00952822 0.546142)
(-0.0142047 0.011604 0.614514)
(-0.0574458 -0.030308 0.551245)
(-0.0747677 -0.0928737 0.53457)
(-0.0810457 -0.0764264 0.523031)
(0.111785 -0.065012 0.709332)
(0.0374633 -0.0867808 0.672317)
(-0.0590043 -0.131221 0.586937)
(-0.0924521 -0.154272 0.501712)
(-0.0675882 -0.163642 0.536009)
(0.0364872 -0.0139764 1.27658)
(0.145514 -0.0676055 0.739883)
(0.0255914 -0.0104277 0.834599)
(-0.00158823 0.0151231 0.869894)
(0.0245518 -0.145407 0.676359)
(0.016526 -0.148098 0.565066)
(-0.0248391 -0.0516521 0.886985)
(0.0102211 -0.0601845 0.906271)
(0.0402971 -0.0854731 0.955894)
(-0.0351668 -0.0244821 0.874656)
(0.028419 -0.06969 0.601261)
(-0.0587771 -0.00891458 0.78907)
(-0.0107674 -0.00510744 0.812492)
(0.0423432 -0.016309 0.631323)
(-0.023096 -0.00911259 0.621611)
(-0.040852 0.0282875 0.646623)
(-0.0635635 -0.0853441 0.613933)
(-0.0754911 -0.121502 0.576539)
(-0.0663339 -0.0599635 0.58592)
(0.0509026 -0.0739949 0.73733)
(-0.0245975 -0.14942 0.703993)
(-0.0626867 -0.173911 0.595234)
(-0.0728291 -0.14369 0.514144)
(-0.0602902 -0.125509 0.523759)
(0.0192322 0.0303198 0.880266)
(0.0517717 -0.11436 0.793554)
(-0.037124 -0.122386 0.794176)
(0.0301635 -0.0806235 0.833158)
(0.0551436 -0.175355 0.622359)
(0.014501 -0.146094 0.540926)
(-0.0755563 -0.0911651 0.857448)
(-0.0137476 -0.0658248 0.840164)
(0.044959 -0.0752027 0.93482)
(0.0428203 -0.000327577 0.823463)
(0.0747499 -0.118004 0.554405)
(-0.0520598 0.00725201 0.724939)
(0.0455481 0.0122285 0.778575)
(0.0863397 -0.0216927 0.631094)
(-0.0047082 -0.00456239 0.706666)
(-0.0566904 0.0369464 0.70717)
(-0.0715057 -0.10553 0.691588)
(-0.085262 -0.133742 0.623943)
(-0.047351 -0.0383114 0.656069)
(-0.012264 -0.0987214 0.791082)
(-0.0693615 -0.163752 0.721801)
(-0.0765463 -0.192836 0.605477)
(-0.0623957 -0.131591 0.530328)
(-0.0516409 -0.111635 0.510411)
(-0.00511136 0.0585336 0.81882)
(-0.0399976 -0.13488 0.854884)
(-0.0787578 -0.161894 0.71805)
(0.0201373 -0.163413 0.744806)
(0.0470073 -0.190458 0.58977)
(0.00456473 -0.134333 0.548772)
(-0.0982145 -0.0901686 0.865102)
(-0.0360861 -0.0648476 0.709149)
(0.0543258 -0.0513915 0.820487)
(0.120841 -0.03409 0.745129)
(0.0953604 -0.151171 0.579913)
(-0.0368039 0.0187722 0.644162)
(0.0615231 0.0150126 0.732883)
(0.106756 -0.0293045 0.671242)
(0.00554976 -0.00196676 0.782917)
(-0.0556359 0.0366168 0.79497)
(-0.0736894 -0.100014 0.767282)
(-0.0936861 -0.137537 0.676201)
(-0.03687 -0.0315203 0.72085)
(-0.0612939 -0.105673 0.865121)
(-0.0921455 -0.152551 0.727326)
(-0.0853894 -0.19202 0.609756)
(-0.0569946 -0.114464 0.543274)
(-0.0390738 -0.101848 0.49949)
(-0.00620984 0.0851052 0.871963)
(-0.105142 -0.108835 0.910115)
(-0.0875106 -0.138069 0.641519)
(-0.00667295 -0.172411 0.659665)
(0.0193691 -0.177681 0.578582)
(0.00112816 -0.109772 0.54618)
(-0.0668016 -0.0531403 0.921218)
(-0.0306635 -0.0606223 0.613648)
(0.0433106 -0.0538236 0.690207)
(0.11445 -0.0891552 0.673984)
(0.0686502 -0.13248 0.608162)
(-0.0286137 0.0181094 0.57881)
(0.0501777 -0.00865724 0.671951)
(0.115275 -0.0491724 0.698489)
(0.00616395 -0.00362964 0.868354)
(-0.05861 0.0389034 0.886376)
(-0.0813073 -0.09068 0.836312)
(-0.0947148 -0.141403 0.717205)
(-0.0397945 -0.0345212 0.785452)
(-0.0776181 -0.0845853 0.934139)
(-0.0979352 -0.142371 0.724561)
(-0.0840683 -0.183949 0.604765)
(-0.0458491 -0.093502 0.544284)
(-0.0219266 -0.0842185 0.495139)
(0.000238712 0.113524 0.950868)
(-0.103226 -0.0837096 0.954557)
(-0.0615977 -0.102502 0.576813)
(-0.0164026 -0.146715 0.594084)
(0.000671611 -0.146021 0.570217)
(0.00775165 -0.0835191 0.52582)
(0.0172624 0.00534429 0.999282)
(-0.00342659 -0.0469466 0.547001)
(0.0313988 -0.0723023 0.613204)
(0.0572304 -0.11054 0.628418)
(0.0322422 -0.0833746 0.590954)
(-0.00814987 0.0211624 0.522572)
(0.0463311 -0.0101244 0.620921)
(0.105419 -0.0578113 0.676604)
(0.0201886 -0.0017159 0.960338)
(-0.0652307 0.0491177 0.965199)
(-0.0891175 -0.0818204 0.888878)
(-0.0863027 -0.108846 0.748904)
(-0.0299684 -0.0215519 0.853411)
(-0.0766939 -0.0521771 0.991022)
(-0.0954446 -0.141057 0.722567)
(-0.0589533 -0.153886 0.591582)
(-0.0251793 -0.0700301 0.538996)
(0.00313123 -0.0523232 0.49877)
(0.00349271 0.139594 1.00564)
(-0.0608492 -0.0562985 0.998424)
(-0.0146188 -0.0770873 0.535341)
(-0.00853321 -0.121431 0.554442)
(0.00124277 -0.112912 0.561382)
(0.0127075 -0.05795 0.504238)
(0.0579707 0.0265368 1.01922)
(0.034933 -0.0276629 0.50919)
(0.0302334 -0.0835585 0.571468)
(0.0256882 -0.0947322 0.598646)
(0.0114173 -0.0422427 0.549561)
(0.0316233 0.0330905 0.481931)
(0.0515897 -0.00885062 0.579144)
(0.0524471 -0.0388432 0.6186)
(0.0297455 0.000205333 1.01435)
(-0.0655709 0.0459143 1.0319)
(-0.0917834 -0.0709938 0.92133)
(-0.0756073 -0.0713636 0.753909)
(-0.00744544 -0.00500403 0.90399)
(-0.0678759 -0.0283143 1.03253)
(-0.0770484 -0.138318 0.718698)
(-0.011362 -0.115001 0.58182)
(0.00447036 -0.0493737 0.540789)
(0.0275237 -0.00777813 0.513695)
(0.00790452 0.148135 1.03815)
(-0.0269533 -0.00582907 0.988917)
(0.0329747 -0.0563308 0.515164)
(0.0118279 -0.103892 0.540811)
(0.0115488 -0.0828167 0.554852)
(0.0133862 -0.0328761 0.492273)
(0.0727056 0.00817802 1.00668)
(0.0703236 -0.0133641 0.493796)
(0.034041 -0.0873939 0.555499)
(0.0206989 -0.0745437 0.575601)