/*--------------------------------*- C++ -*----------------------------------*\
| =========                 |                                                 |
| \\      /  F ield         | OpenFOAM: The Open Source CFD Toolbox           |
|  \\    /   O peration     | Version:  5.x                                   |
|   \\  /    A nd           | Web:      www.OpenFOAM.org                      |
|    \\/     M anipulation  |                                                 |
\*---------------------------------------------------------------------------*/
FoamFile
{
    version     2.0;
    format      ascii;
    class       volVectorField;
    location    "6";
    object      Us;
}
// * * * * * * * * * * * * * * * * * * * * * * * * * * * * * * * * * * * * * //

dimensions      [0 1 -1 0 0 0 0];

internalField   nonuniform List<vector> 
10571
(
(0.00454984 0.00657424 0.052702)
(-0.0211791 0.0422813 -0.0234733)
(-0.0442256 0.0551981 0.0136665)
(-0.122012 -0.0271234 0.0110559)
(-0.0837474 -0.052722 -0.0506107)
(0.0273294 0.0527104 -0.00118864)
(-0.105449 -0.0826901 0.020556)
(-0.212135 -0.127783 -0.0712841)
(-0.100184 -0.129068 -0.0789172)
(-0.0136741 -0.0830998 -0.0480042)
(0.0237665 0.0105366 -0.0627303)
(-0.0800596 -0.0942246 -0.00724658)
(-0.236627 -0.138386 -0.0445672)
(-0.193614 -0.097529 -0.086201)
(-0.0948596 -0.0739462 -0.0919432)
(0.0177494 -0.0499973 -0.0491617)
(-0.14354 -0.131584 -0.0517083)
(-0.189942 -0.110945 -0.0799384)
(-0.137733 -0.0501428 -0.0539345)
(-0.0512649 -0.0100763 -0.0644808)
(-0.000712162 -0.0188807 -0.0603105)
(-0.144381 -0.0342624 -0.0705121)
(-0.0860265 0.00867527 -0.0436838)
(-0.0291892 0.0070899 -0.0556639)
(-0.0277633 0.0315144 0.0759187)
(-0.040953 0.0466064 0.0758224)
(-0.119266 0.0152207 0.133643)
(-0.11786 -0.0501269 0.0912028)
(-0.0608474 -0.0562284 0.0609041)
(0.00332043 -0.00460425 0.121595)
(-0.188816 -0.167996 0.15838)
(-0.147938 -0.0927441 0.122849)
(-0.0620373 -0.0406712 0.0794718)
(-0.0270199 -0.0386421 0.0751871)
(0.0100761 -0.0825954 0.0670787)
(-0.0229444 -0.140109 0.115358)
(-0.148491 -0.0992343 0.145149)
(-0.0932255 -0.0310677 0.0786611)
(-0.0496738 -0.0195261 0.0119169)
(-0.0209207 -0.0202455 0.0432309)
(-0.0880783 -0.104931 0.0539664)
(-0.108954 -0.0325132 0.0893328)
(-0.0883941 0.0026754 0.0461192)
(-0.0713882 -0.0268828 0.0299572)
(-0.00276718 -0.000576695 0.0274996)
(-0.111309 -0.0572483 0.0573986)
(-0.0768074 -0.0123422 0.0547147)
(-0.0404765 0.0173833 0.0402857)
(-0.0900364 -0.0146401 0.0829433)
(-0.0709164 -0.0265148 0.136471)
(-0.16449 -0.0887574 0.24697)
(-0.145565 -0.0864266 0.251143)
(-0.044066 -0.0347861 0.163627)
(-0.131192 -0.141043 0.308608)
(-0.0890434 -0.135858 0.277144)
(-0.0787029 -0.0571883 0.213399)
(-0.0250175 0.0139157 0.0770128)
(-0.0196074 0.00852513 0.0487418)
(-0.00776489 -0.122337 0.154232)
(-0.00732191 -0.133553 0.293482)
(-0.0454023 -0.0353512 0.228322)
(-0.022996 0.0259194 0.108624)
(-0.0378616 0.00156224 0.00516621)
(-0.0384254 0.00918622 0.00714307)
(-0.0359855 -0.0673348 0.225761)
(-0.0440024 0.0103921 0.108264)
(-0.0627993 0.018291 0.0437086)
(-0.0596698 -0.00174802 0.01658)
(-0.0165402 0.0144905 0.000103208)
(-0.0638147 -0.0254331 0.134663)
(-0.0682784 0.000297505 0.0760056)
(-0.0419519 0.0156838 0.0271371)
(-0.122012 -0.141077 -0.0120449)
(-0.199556 -0.228839 0.0145909)
(-0.157883 -0.211381 0.207893)
(-0.103838 -0.172663 0.23656)
(0.0227171 -0.0840393 0.121603)
(-0.168952 -0.20017 0.304301)
(-0.0342026 -0.0728056 0.257172)
(-0.00372639 -0.0393778 0.218448)
(0.052982 0.0182446 0.0711287)
(0.0394893 0.0736823 -0.46243)
(-0.104679 -0.100532 0.240806)
(-0.135207 -0.0793433 0.370033)
(0.00512489 0.0136801 0.209165)
(0.0441836 0.0293343 0.12503)
(0.146461 0.0778921 -0.0116495)
(0.152181 0.126668 -0.156586)
(-0.0681424 0.013831 0.249399)
(-0.0115183 0.0941565 0.110054)
(0.0460397 0.136528 0.00465922)
(0.160459 0.146794 -0.0309863)
(0 0 0)
(-0.0425665 0.0324402 0.154514)
(0 0 0)
(0 0 0)
(0.0321415 -0.0704033 -0.593468)
(-0.0423766 0.0418978 -0.494198)
(-0.128623 -0.219024 0.116551)
(-0.012375 -0.197874 0.138208)
(0.0742999 -0.0492347 -0.521628)
(-0.221438 -0.115188 0.190436)
(-0.0355824 -0.0420221 0.21449)
(0.0255908 -0.0324595 0.187742)
(0.131528 -0.000296927 0.0757649)
(-0.0774067 0.0961715 -0.520406)
(0 0 0)
(-0.161722 -0.0197831 0.268202)
(-0.0171468 0.0457939 0.175192)
(0.0497146 0.0435346 0.119045)
(0 0 0)
(0 0 0)
(0 0 0)
(-0.0705702 0.183541 0.183646)
(0.0255616 0.201032 0.0610222)
(0 0 0)
(0 0 0)
(0 0 0)
(0 0 0)
(0 0 0)
(0 0 0)
(0 0 0)
(0 0 0)
(0 0 0)
(0.0557129 -0.0282177 -0.521306)
(0 0 0)
(-0.000962519 0.0403606 0.265509)
(0.115378 0.0214471 0.256596)
(0.0760903 0.0686958 -0.513573)
(0 0 0)
(-0.00100859 0.000490144 -0.00033214)
(0 0 0)
(0 0 0)
(0 0 0)
(0 0 0)
(0 0 0)
(0 0 0)
(-0.000311069 -7.91952e-06 -0.000135674)
(0 0 0)
(0 0 0)
(0 0 0)
(0 0 0)
(0 0 0)
(0 0 0)
(0 0 0)
(0 0 0)
(0 0 0)
(0 0 0)
(0 0 0)
(0 0 0)
(0 0 0)
(0 0 0)
(0 0 0)
(0 0 0)
(0 0 0)
(0 0 0)
(0 0 0)
(0 0 0)
(0 0 0)
(0 0 0)
(0 0 0)
(0 0 0)
(0 0 0)
(0 0 0)
(0 0 0)
(0 0 0)
(0 0 0)
(0 0 0)
(0 0 0)
(0 0 0)
(0 0 0)
(0 0 0)
(0 0 0)
(0 0 0)
(0 0 0)
(0 0 0)
(0 0 0)
(0 0 0)
(0 0 0)
(0 0 0)
(0 0 0)
(0 0 0)
(0 0 0)
(0 0 0)
(0 0 0)
(0 0 0)
(0 0 0)
(0 0 0)
(0 0 0)
(0 0 0)
(0 0 0)
(0 0 0)
(0 0 0)
(0 0 0)
(0 0 0)
(0 0 0)
(0 0 0)
(0 0 0)
(0 0 0)
(0 0 0)
(0 0 0)
(0 0 0)
(0 0 0)
(0 0 0)
(0 0 0)
(0 0 0)
(0 0 0)
(0 0 0)
(0 0 0)
(0 0 0)
(0 0 0)
(0 0 0)
(0 0 0)
(0 0 0)
(0 0 0)
(0 0 0)
(0 0 0)
(0 0 0)
(0 0 0)
(0 0 0)
(0 0 0)
(0 0 0)
(0 0 0)
(0 0 0)
(0 0 0)
(0 0 0)
(0 0 0)
(0 0 0)
(0 0 0)
(0 0 0)
(0 0 0)
(0 0 0)
(0 0 0)
(0 0 0)
(0 0 0)
(0 0 0)
(0 0 0)
(0 0 0)
(0 0 0)
(0 0 0)
(0 0 0)
(0 0 0)
(0 0 0)
(0 0 0)
(0 0 0)
(0 0 0)
(0 0 0)
(0 0 0)
(0 0 0)
(0 0 0)
(0 0 0)
(0 0 0)
(0 0 0)
(0 0 0)
(0 0 0)
(0 0 0)
(0 0 0)
(0 0 0)
(0 0 0)
(0 0 0)
(0 0 0)
(0 0 0)
(0 0 0)
(0 0 0)
(0 0 0)
(0 0 0)
(0 0 0)
(0 0 0)
(0 0 0)
(0 0 0)
(0 0 0)
(0 0 0)
(0 0 0)
(0 0 0)
(0 0 0)
(0 0 0)
(0 0 0)
(0 0 0)
(0 0 0)
(0 0 0)
(0 0 0)
(0 0 0)
(0 0 0)
(0 0 0)
(0 0 0)
(0 0 0)
(0 0 0)
(0 0 0)
(0 0 0)
(0 0 0)
(0 0 0)
(0 0 0)
(0 0 0)
(0 0 0)
(0 0 0)
(0 0 0)
(0 0 0)
(0 0 0)
(0 0 0)
(0 0 0)
(0 0 0)
(0 0 0)
(0 0 0)
(0 0 0)
(0 0 0)
(0 0 0)
(0 0 0)
(0 0 0)
(0 0 0)
(0 0 0)
(0 0 0)
(0 0 0)
(0 0 0)
(0 0 0)
(0 0 0)
(0 0 0)
(0 0 0)
(0 0 0)
(0 0 0)
(0 0 0)
(0 0 0)
(0 0 0)
(0 0 0)
(0 0 0)
(0 0 0)
(0 0 0)
(0 0 0)
(0 0 0)
(0 0 0)
(0 0 0)
(0 0 0)
(0 0 0)
(0 0 0)
(0 0 0)
(0 0 0)
(0 0 0)
(0 0 0)
(0 0 0)
(0 0 0)
(0 0 0)
(0 0 0)
(0 0 0)
(0 0 0)
(0 0 0)
(0 0 0)
(0 0 0)
(0 0 0)
(0 0 0)
(0 0 0)
(0 0 0)
(0 0 0)
(0 0 0)
(0 0 0)
(0 0 0)
(0 0 0)
(0 0 0)
(0 0 0)
(0 0 0)
(0 0 0)
(0 0 0)
(0 0 0)
(0 0 0)
(0 0 0)
(0 0 0)
(0 0 0)
(0 0 0)
(0 0 0)
(0 0 0)
(0 0 0)
(0 0 0)
(0 0 0)
(0 0 0)
(0 0 0)
(0 0 0)
(0 0 0)
(0 0 0)
(0 0 0)
(0 0 0)
(0 0 0)
(0 0 0)
(0 0 0)
(0 0 0)
(0 0 0)
(0 0 0)
(0 0 0)
(0 0 0)
(0 0 0)
(0 0 0)
(0 0 0)
(0 0 0)
(0 0 0)
(0 0 0)
(0 0 0)
(0 0 0)
(0 0 0)
(0 0 0)
(0 0 0)
(0 0 0)
(0 0 0)
(0 0 0)
(0 0 0)
(0 0 0)
(0 0 0)
(0 0 0)
(0 0 0)
(0 0 0)
(0 0 0)
(0 0 0)
(0 0 0)
(0 0 0)
(0 0 0)
(0 0 0)
(0 0 0)
(0 0 0)
(0 0 0)
(0 0 0)
(0 0 0)
(0 0 0)
(0 0 0)
(0 0 0)
(0 0 0)
(0 0 0)
(0 0 0)
(0 0 0)
(0 0 0)
(0 0 0)
(0 0 0)
(0 0 0)
(0 0 0)
(0 0 0)
(0 0 0)
(0 0 0)
(0 0 0)
(0 0 0)
(0 0 0)
(0 0 0)
(0 0 0)
(0 0 0)
(0 0 0)
(0 0 0)
(0 0 0)
(0 0 0)
(0 0 0)
(0 0 0)
(0 0 0)
(0 0 0)
(0 0 0)
(0 0 0)
(0 0 0)
(0 0 0)
(0 0 0)
(0 0 0)
(0 0 0)
(0 0 0)
(0 0 0)
(0 0 0)
(0 0 0)
(0 0 0)
(0 0 0)
(0 0 0)
(0 0 0)
(0 0 0)
(0 0 0)
(0 0 0)
(0 0 0)
(0 0 0)
(0 0 0)
(0 0 0)
(0 0 0)
(0 0 0)
(0 0 0)
(0 0 0)
(0 0 0)
(0 0 0)
(0 0 0)
(0 0 0)
(0 0 0)
(0 0 0)
(0 0 0)
(0 0 0)
(0 0 0)
(0 0 0)
(0 0 0)
(0 0 0)
(0 0 0)
(0 0 0)
(0 0 0)
(0 0 0)
(0 0 0)
(0 0 0)
(0 0 0)
(0 0 0)
(0 0 0)
(0 0 0)
(0 0 0)
(0 0 0)
(0 0 0)
(0 0 0)
(0 0 0)
(0 0 0)
(0 0 0)
(0 0 0)
(0 0 0)
(0 0 0)
(0 0 0)
(0 0 0)
(0 0 0)
(0 0 0)
(0 0 0)
(0 0 0)
(0 0 0)
(0 0 0)
(0 0 0)
(0 0 0)
(0 0 0)
(0 0 0)
(0 0 0)
(0 0 0)
(0 0 0)
(0 0 0)
(0 0 0)
(0 0 0)
(0 0 0)
(0 0 0)
(0 0 0)
(0 0 0)
(0 0 0)
(0 0 0)
(0 0 0)
(0 0 0)
(0 0 0)
(0 0 0)
(0 0 0)
(0 0 0)
(0 0 0)
(0 0 0)
(0 0 0)
(0 0 0)
(0 0 0)
(0 0 0)
(0 0 0)
(0 0 0)
(0 0 0)
(0 0 0)
(0 0 0)
(0 0 0)
(0 0 0)
(0 0 0)
(0 0 0)
(0 0 0)
(0 0 0)
(0 0 0)
(0 0 0)
(0 0 0)
(0 0 0)
(0 0 0)
(0 0 0)
(0 0 0)
(0 0 0)
(0 0 0)
(0 0 0)
(0 0 0)
(0 0 0)
(0 0 0)
(0 0 0)
(0 0 0)
(0 0 0)
(0 0 0)
(0 0 0)
(0 0 0)
(0 0 0)
(0 0 0)
(0 0 0)
(0 0 0)
(0 0 0)
(0 0 0)
(0 0 0)
(0 0 0)
(0 0 0)
(0 0 0)
(0 0 0)
(0 0 0)
(0 0 0)
(0 0 0)
(0 0 0)
(0 0 0)
(0 0 0)
(0 0 0)
(0 0 0)
(0 0 0)
(0 0 0)
(0 0 0)
(0 0 0)
(0 0 0)
(0 0 0)
(0 0 0)
(0 0 0)
(0 0 0)
(0 0 0)
(0 0 0)
(0 0 0)
(0 0 0)
(0 0 0)
(0 0 0)
(0 0 0)
(0 0 0)
(0 0 0)
(0 0 0)
(0 0 0)
(0 0 0)
(0 0 0)
(0 0 0)
(0 0 0)
(0 0 0)
(0 0 0)
(0 0 0)
(0 0 0)
(0 0 0)
(0 0 0)
(0 0 0)
(0 0 0)
(0 0 0)
(0 0 0)
(0 0 0)
(0 0 0)
(0 0 0)
(0 0 0)
(0 0 0)
(0 0 0)
(0 0 0)
(0 0 0)
(0 0 0)
(0 0 0)
(0 0 0)
(0 0 0)
(0 0 0)
(0 0 0)
(0 0 0)
(0 0 0)
(0 0 0)
(0 0 0)
(0 0 0)
(0 0 0)
(0 0 0)
(0 0 0)
(0 0 0)
(0 0 0)
(0 0 0)
(0 0 0)
(0 0 0)
(0 0 0)
(0 0 0)
(0 0 0)
(0 0 0)
(0 0 0)
(0 0 0)
(0 0 0)
(0 0 0)
(0 0 0)
(0 0 0)
(0 0 0)
(0 0 0)
(0 0 0)
(0 0 0)
(0 0 0)
(0 0 0)
(0 0 0)
(0 0 0)
(0 0 0)
(0 0 0)
(0 0 0)
(0 0 0)
(0 0 0)
(0 0 0)
(0 0 0)
(0 0 0)
(0 0 0)
(0 0 0)
(0 0 0)
(0 0 0)
(0 0 0)
(0 0 0)
(0 0 0)
(0 0 0)
(0 0 0)
(0 0 0)
(0 0 0)
(0 0 0)
(0 0 0)
(0 0 0)
(0 0 0)
(0 0 0)
(0 0 0)
(0 0 0)
(0 0 0)
(0 0 0)
(0 0 0)
(0 0 0)
(0 0 0)
(0 0 0)
(0 0 0)
(0 0 0)
(0 0 0)
(0 0 0)
(0 0 0)
(0 0 0)
(0 0 0)
(0 0 0)
(0 0 0)
(0 0 0)
(0 0 0)
(0 0 0)
(0 0 0)
(0 0 0)
(0 0 0)
(0 0 0)
(0 0 0)
(0 0 0)
(0 0 0)
(0 0 0)
(0 0 0)
(0 0 0)
(0 0 0)
(0 0 0)
(0 0 0)
(0 0 0)
(0 0 0)
(0 0 0)
(0 0 0)
(0 0 0)
(0 0 0)
(0 0 0)
(0 0 0)
(0 0 0)
(0 0 0)
(0 0 0)
(0 0 0)
(0 0 0)
(0 0 0)
(0 0 0)
(0 0 0)
(0 0 0)
(0 0 0)
(0 0 0)
(0 0 0)
(0 0 0)
(0 0 0)
(0 0 0)
(0 0 0)
(0 0 0)
(0 0 0)
(0 0 0)
(0 0 0)
(0 0 0)
(0 0 0)
(0 0 0)
(0 0 0)
(0 0 0)
(0 0 0)
(0 0 0)
(0 0 0)
(0 0 0)
(0 0 0)
(0 0 0)
(0 0 0)
(0 0 0)
(0 0 0)
(0 0 0)
(0 0 0)
(0 0 0)
(0 0 0)
(0 0 0)
(0 0 0)
(0 0 0)
(0 0 0)
(0 0 0)
(0 0 0)
(0 0 0)
(0 0 0)
(0 0 0)
(0 0 0)
(0 0 0)
(0 0 0)
(0 0 0)
(0 0 0)
(0 0 0)
(0 0 0)
(0 0 0)
(0 0 0)
(0 0 0)
(0 0 0)
(0 0 0)
(0 0 0)
(0 0 0)
(0 0 0)
(0 0 0)
(0 0 0)
(0 0 0)
(0 0 0)
(0 0 0)
(0 0 0)
(0 0 0)
(0 0 0)
(0 0 0)
(0 0 0)
(0 0 0)
(0 0 0)
(0 0 0)
(0 0 0)
(0 0 0)
(0 0 0)
(0 0 0)
(0 0 0)
(0 0 0)
(0 0 0)
(0 0 0)
(0 0 0)
(0 0 0)
(0 0 0)
(0 0 0)
(0 0 0)
(0 0 0)
(0 0 0)
(0 0 0)
(0 0 0)
(0 0 0)
(0 0 0)
(0 0 0)
(0 0 0)
(0 0 0)
(0 0 0)
(0 0 0)
(0 0 0)
(0 0 0)
(0 0 0)
(0 0 0)
(0 0 0)
(0 0 0)
(0 0 0)
(0 0 0)
(0 0 0)
(0 0 0)
(0 0 0)
(0 0 0)
(0 0 0)
(0 0 0)
(0 0 0)
(0 0 0)
(0 0 0)
(0 0 0)
(0 0 0)
(0 0 0)
(0 0 0)
(0 0 0)
(0 0 0)
(0 0 0)
(0 0 0)
(0 0 0)
(0 0 0)
(0 0 0)
(0 0 0)
(0 0 0)
(0 0 0)
(0 0 0)
(0 0 0)
(0 0 0)
(0 0 0)
(0 0 0)
(0 0 0)
(0 0 0)
(0 0 0)
(0 0 0)
(0 0 0)
(0 0 0)
(0 0 0)
(0 0 0)
(0 0 0)
(0 0 0)
(0 0 0)
(0 0 0)
(0 0 0)
(0 0 0)
(0 0 0)
(0 0 0)
(0 0 0)
(0 0 0)
(0 0 0)
(0 0 0)
(0 0 0)
(0 0 0)
(0 0 0)
(0 0 0)
(0 0 0)
(0 0 0)
(0 0 0)
(0 0 0)
(0 0 0)
(0 0 0)
(0 0 0)
(0 0 0)
(0 0 0)
(0 0 0)
(0 0 0)
(0 0 0)
(0 0 0)
(0 0 0)
(0 0 0)
(0 0 0)
(0 0 0)
(0 0 0)
(0 0 0)
(0 0 0)
(0 0 0)
(0 0 0)
(0 0 0)
(0 0 0)
(0 0 0)
(0 0 0)
(0 0 0)
(0 0 0)
(0 0 0)
(0 0 0)
(0 0 0)
(0 0 0)
(0 0 0)
(0 0 0)
(0 0 0)
(0 0 0)
(0 0 0)
(0 0 0)
(0 0 0)
(0 0 0)
(0 0 0)
(0 0 0)
(0 0 0)
(0 0 0)
(0 0 0)
(0 0 0)
(0 0 0)
(0 0 0)
(0 0 0)
(0 0 0)
(0 0 0)
(0 0 0)
(0 0 0)
(0 0 0)
(0 0 0)
(0 0 0)
(0 0 0)
(0 0 0)
(0 0 0)
(0 0 0)
(0 0 0)
(0 0 0)
(0 0 0)
(0 0 0)
(0 0 0)
(0 0 0)
(0 0 0)
(0 0 0)
(0 0 0)
(0 0 0)
(0 0 0)
(0 0 0)
(0 0 0)
(0 0 0)
(0 0 0)
(0 0 0)
(0 0 0)
(0 0 0)
(0 0 0)
(0 0 0)
(0 0 0)
(0 0 0)
(0 0 0)
(0 0 0)
(0 0 0)
(0 0 0)
(0 0 0)
(0 0 0)
(0 0 0)
(0 0 0)
(0 0 0)
(0 0 0)
(0 0 0)
(0 0 0)
(0 0 0)
(0 0 0)
(0 0 0)
(0 0 0)
(0 0 0)
(0 0 0)
(0 0 0)
(0 0 0)
(0 0 0)
(0 0 0)
(0 0 0)
(0 0 0)
(0 0 0)
(0 0 0)
(0 0 0)
(0 0 0)
(0 0 0)
(0 0 0)
(0 0 0)
(0 0 0)
(0 0 0)
(0 0 0)
(0 0 0)
(0 0 0)
(0 0 0)
(0 0 0)
(0 0 0)
(0 0 0)
(0 0 0)
(0 0 0)
(0 0 0)
(0 0 0)
(0 0 0)
(0 0 0)
(0 0 0)
(0 0 0)
(0 0 0)
(0 0 0)
(0 0 0)
(0 0 0)
(0 0 0)
(0 0 0)
(0 0 0)
(0 0 0)
(0 0 0)
(0 0 0)
(0 0 0)
(0 0 0)
(0 0 0)
(0 0 0)
(0 0 0)
(0 0 0)
(0 0 0)
(0 0 0)
(0 0 0)
(0 0 0)
(0 0 0)
(0 0 0)
(0 0 0)
(0 0 0)
(0 0 0)
(0 0 0)
(0 0 0)
(0 0 0)
(0 0 0)
(0 0 0)
(0 0 0)
(0 0 0)
(0 0 0)
(0 0 0)
(0 0 0)
(0 0 0)
(0 0 0)
(0 0 0)
(0 0 0)
(0 0 0)
(0 0 0)
(0 0 0)
(0 0 0)
(0 0 0)
(0 0 0)
(0 0 0)
(0 0 0)
(0 0 0)
(0 0 0)
(0 0 0)
(0 0 0)
(0 0 0)
(0 0 0)
(0 0 0)
(0 0 0)
(0 0 0)
(0 0 0)
(0 0 0)
(0 0 0)
(0 0 0)
(0 0 0)
(0 0 0)
(0 0 0)
(0 0 0)
(0 0 0)
(0 0 0)
(0 0 0)
(0 0 0)
(0 0 0)
(0 0 0)
(0 0 0)
(0 0 0)
(0 0 0)
(0 0 0)
(0 0 0)
(0 0 0)
(0 0 0)
(0 0 0)
(0 0 0)
(0 0 0)
(0 0 0)
(0 0 0)
(0 0 0)
(0 0 0)
(0 0 0)
(0 0 0)
(0 0 0)
(0 0 0)
(0 0 0)
(0 0 0)
(0 0 0)
(0 0 0)
(0 0 0)
(0 0 0)
(0 0 0)
(0 0 0)
(0 0 0)
(0 0 0)
(0 0 0)
(0 0 0)
(0 0 0)
(0 0 0)
(0 0 0)
(0 0 0)
(0 0 0)
(0 0 0)
(0 0 0)
(0 0 0)
(0 0 0)
(0 0 0)
(0 0 0)
(0 0 0)
(0 0 0)
(0 0 0)
(0 0 0)
(0 0 0)
(0 0 0)
(0 0 0)
(0 0 0)
(0 0 0)
(0 0 0)
(0 0 0)
(0 0 0)
(0 0 0)
(0 0 0)
(0 0 0)
(0 0 0)
(0 0 0)
(0 0 0)
(0 0 0)
(0 0 0)
(0 0 0)
(0 0 0)
(0 0 0)
(0 0 0)
(0 0 0)
(0 0 0)
(0 0 0)
(0 0 0)
(0 0 0)
(0 0 0)
(0 0 0)
(0 0 0)
(0 0 0)
(0 0 0)
(0 0 0)
(0 0 0)
(0 0 0)
(0 0 0)
(0 0 0)
(0 0 0)
(0 0 0)
(0 0 0)
(0 0 0)
(0 0 0)
(0 0 0)
(0 0 0)
(0 0 0)
(0 0 0)
(0 0 0)
(0 0 0)
(0 0 0)
(0 0 0)
(0 0 0)
(0 0 0)
(0 0 0)
(0 0 0)
(0 0 0)
(0 0 0)
(0 0 0)
(0 0 0)
(0 0 0)
(0 0 0)
(0 0 0)
(0 0 0)
(0 0 0)
(0 0 0)
(0 0 0)
(0 0 0)
(0 0 0)
(0 0 0)
(0 0 0)
(0 0 0)
(0 0 0)
(0 0 0)
(0 0 0)
(0 0 0)
(0 0 0)
(0 0 0)
(0 0 0)
(0 0 0)
(0 0 0)
(0 0 0)
(0 0 0)
(0 0 0)
(0 0 0)
(0 0 0)
(0 0 0)
(0 0 0)
(0 0 0)
(0 0 0)
(0 0 0)
(0 0 0)
(0 0 0)
(0 0 0)
(0 0 0)
(0 0 0)
(0 0 0)
(0 0 0)
(0 0 0)
(0 0 0)
(0 0 0)
(0 0 0)
(0 0 0)
(0 0 0)
(0 0 0)
(0 0 0)
(0 0 0)
(0 0 0)
(0 0 0)
(0 0 0)
(0 0 0)
(0 0 0)
(0 0 0)
(0 0 0)
(0 0 0)
(0 0 0)
(0 0 0)
(0 0 0)
(0 0 0)
(0 0 0)
(0 0 0)
(0 0 0)
(0 0 0)
(0 0 0)
(0 0 0)
(0 0 0)
(0 0 0)
(0 0 0)
(0 0 0)
(0 0 0)
(0 0 0)
(0 0 0)
(0 0 0)
(0 0 0)
(0 0 0)
(0 0 0)
(0 0 0)
(0 0 0)
(0 0 0)
(0 0 0)
(0 0 0)
(0 0 0)
(0 0 0)
(0 0 0)
(0 0 0)
(0 0 0)
(0 0 0)
(0 0 0)
(0 0 0)
(0 0 0)
(0 0 0)
(0 0 0)
(0 0 0)
(0 0 0)
(0 0 0)
(0 0 0)
(0 0 0)
(0 0 0)
(0 0 0)
(0 0 0)
(0 0 0)
(0 0 0)
(0 0 0)
(0 0 0)
(0 0 0)
(0 0 0)
(0 0 0)
(0 0 0)
(0 0 0)
(0 0 0)
(0 0 0)
(0 0 0)
(0 0 0)
(0 0 0)
(0 0 0)
(0 0 0)
(0 0 0)
(0 0 0)
(0 0 0)
(0 0 0)
(0 0 0)
(0 0 0)
(0 0 0)
(0 0 0)
(0 0 0)
(0 0 0)
(0 0 0)
(0 0 0)
(0 0 0)
(0 0 0)
(0 0 0)
(0 0 0)
(0 0 0)
(0 0 0)
(0 0 0)
(0 0 0)
(0 0 0)
(0 0 0)
(0 0 0)
(0 0 0)
(0 0 0)
(0 0 0)
(0 0 0)
(0 0 0)
(0 0 0)
(0 0 0)
(0 0 0)
(0 0 0)
(0 0 0)
(0 0 0)
(0 0 0)
(0 0 0)
(0 0 0)
(0 0 0)
(0 0 0)
(0 0 0)
(0 0 0)
(0 0 0)
(0 0 0)
(0 0 0)
(0 0 0)
(0 0 0)
(0 0 0)
(0 0 0)
(0 0 0)
(0 0 0)
(0 0 0)
(0 0 0)
(0 0 0)
(0 0 0)
(0 0 0)
(0 0 0)
(0 0 0)
(0 0 0)
(0 0 0)
(0 0 0)
(0 0 0)
(0 0 0)
(0 0 0)
(0 0 0)
(0 0 0)
(0 0 0)
(0 0 0)
(0 0 0)
(0 0 0)
(0 0 0)
(0 0 0)
(0 0 0)
(0 0 0)
(0 0 0)
(0 0 0)
(0 0 0)
(0 0 0)
(0 0 0)
(0 0 0)
(0 0 0)
(0 0 0)
(0 0 0)
(0 0 0)
(0 0 0)
(0 0 0)
(0 0 0)
(0 0 0)
(0 0 0)
(0 0 0)
(0 0 0)
(0 0 0)
(0 0 0)
(0 0 0)
(0 0 0)
(0 0 0)
(0 0 0)
(0 0 0)
(0 0 0)
(0 0 0)
(0 0 0)
(0 0 0)
(0 0 0)
(0 0 0)
(0 0 0)
(0 0 0)
(0 0 0)
(0 0 0)
(0 0 0)
(0 0 0)
(0 0 0)
(0 0 0)
(0 0 0)
(0 0 0)
(0 0 0)
(0 0 0)
(0 0 0)
(0 0 0)
(0 0 0)
(0 0 0)
(0 0 0)
(0 0 0)
(0 0 0)
(0 0 0)
(0 0 0)
(0 0 0)
(0 0 0)
(0 0 0)
(0 0 0)
(0 0 0)
(0 0 0)
(0 0 0)
(0 0 0)
(0 0 0)
(0 0 0)
(0 0 0)
(0 0 0)
(0 0 0)
(0 0 0)
(0 0 0)
(0 0 0)
(0 0 0)
(0 0 0)
(0 0 0)
(0 0 0)
(0 0 0)
(0 0 0)
(0 0 0)
(0 0 0)
(0 0 0)
(0 0 0)
(0 0 0)
(0 0 0)
(0 0 0)
(0 0 0)
(0 0 0)
(0 0 0)
(0 0 0)
(0 0 0)
(0 0 0)
(0 0 0)
(0 0 0)
(0 0 0)
(0 0 0)
(0 0 0)
(0 0 0)
(0 0 0)
(0 0 0)
(0 0 0)
(0 0 0)
(0 0 0)
(0 0 0)
(0 0 0)
(0 0 0)
(0 0 0)
(0 0 0)
(0 0 0)
(0 0 0)
(0 0 0)
(0 0 0)
(0 0 0)
(0 0 0)
(0 0 0)
(0 0 0)
(0 0 0)
(0 0 0)
(0 0 0)
(0 0 0)
(0 0 0)
(0 0 0)
(0 0 0)
(0 0 0)
(0 0 0)
(0 0 0)
(0 0 0)
(0 0 0)
(0 0 0)
(0 0 0)
(0 0 0)
(0 0 0)
(0 0 0)
(0 0 0)
(0 0 0)
(0 0 0)
(0 0 0)
(0 0 0)
(0 0 0)
(0 0 0)
(0 0 0)
(0 0 0)
(0 0 0)
(0 0 0)
(0 0 0)
(0 0 0)
(0 0 0)
(0 0 0)
(0 0 0)
(0 0 0)
(0 0 0)
(0 0 0)
(0 0 0)
(0 0 0)
(0 0 0)
(0 0 0)
(0 0 0)
(0 0 0)
(0 0 0)
(0 0 0)
(0 0 0)
(0 0 0)
(0 0 0)
(0 0 0)
(0 0 0)
(0 0 0)
(0 0 0)
(0 0 0)
(0 0 0)
(0 0 0)
(0 0 0)
(0 0 0)
(0 0 0)
(0 0 0)
(0 0 0)
(0 0 0)
(0 0 0)
(0 0 0)
(0 0 0)
(0 0 0)
(0 0 0)
(0 0 0)
(0 0 0)
(0 0 0)
(0 0 0)
(0 0 0)
(0 0 0)
(0 0 0)
(0 0 0)
(0 0 0)
(0 0 0)
(0 0 0)
(0 0 0)
(0 0 0)
(0 0 0)
(0 0 0)
(0 0 0)
(0 0 0)
(0 0 0)
(0 0 0)
(0 0 0)
(0 0 0)
(0 0 0)
(0 0 0)
(0 0 0)
(0 0 0)
(0 0 0)
(0 0 0)
(0 0 0)
(0 0 0)
(0 0 0)
(0 0 0)
(0 0 0)
(0 0 0)
(0 0 0)
(0 0 0)
(0 0 0)
(0 0 0)
(0 0 0)
(0 0 0)
(0 0 0)
(0 0 0)
(0 0 0)
(0 0 0)
(0 0 0)
(0 0 0)
(0 0 0)
(0 0 0)
(0 0 0)
(0 0 0)
(0 0 0)
(0 0 0)
(0 0 0)
(0 0 0)
(0 0 0)
(0 0 0)
(0 0 0)
(0 0 0)
(0 0 0)
(0 0 0)
(0 0 0)
(0 0 0)
(0 0 0)
(0 0 0)
(0 0 0)
(0 0 0)
(0 0 0)
(0 0 0)
(0 0 0)
(0 0 0)
(0 0 0)
(0 0 0)
(0 0 0)
(0 0 0)
(0 0 0)
(0 0 0)
(0 0 0)
(0 0 0)
(0 0 0)
(0 0 0)
(0 0 0)
(0 0 0)
(0 0 0)
(0 0 0)
(0 0 0)
(0 0 0)
(0 0 0)
(0 0 0)
(0 0 0)
(0 0 0)
(0 0 0)
(0 0 0)
(0 0 0)
(0 0 0)
(0 0 0)
(0 0 0)
(0 0 0)
(0 0 0)
(0 0 0)
(0 0 0)
(0 0 0)
(0 0 0)
(0 0 0)
(0 0 0)
(0 0 0)
(0 0 0)
(0 0 0)
(0 0 0)
(0 0 0)
(0 0 0)
(0 0 0)
(0 0 0)
(0 0 0)
(0 0 0)
(0 0 0)
(0 0 0)
(0 0 0)
(0 0 0)
(0 0 0)
(0 0 0)
(0 0 0)
(0 0 0)
(0 0 0)
(0 0 0)
(0 0 0)
(0 0 0)
(0 0 0)
(0 0 0)
(0 0 0)
(0 0 0)
(0 0 0)
(0 0 0)
(0 0 0)
(0 0 0)
(0 0 0)
(0 0 0)
(0 0 0)
(0 0 0)
(0 0 0)
(0 0 0)
(0 0 0)
(0 0 0)
(0 0 0)
(0 0 0)
(0 0 0)
(0 0 0)
(0 0 0)
(0 0 0)
(0 0 0)
(0 0 0)
(0 0 0)
(0 0 0)
(0 0 0)
(0 0 0)
(0 0 0)
(0 0 0)
(0 0 0)
(0 0 0)
(0 0 0)
(0 0 0)
(0 0 0)
(0 0 0)
(0 0 0)
(0 0 0)
(0 0 0)
(0 0 0)
(0 0 0)
(0 0 0)
(0 0 0)
(0 0 0)
(0 0 0)
(0 0 0)
(0 0 0)
(0 0 0)
(0 0 0)
(0 0 0)
(0 0 0)
(0 0 0)
(0 0 0)
(0 0 0)
(0 0 0)
(0 0 0)
(0 0 0)
(0 0 0)
(0 0 0)
(0 0 0)
(0 0 0)
(0 0 0)
(0 0 0)
(0 0 0)
(0 0 0)
(0 0 0)
(0 0 0)
(0 0 0)
(0 0 0)
(0 0 0)
(0 0 0)
(0 0 0)
(0 0 0)
(0 0 0)
(0 0 0)
(0 0 0)
(0 0 0)
(0 0 0)
(0 0 0)
(0 0 0)
(0 0 0)
(0 0 0)
(0 0 0)
(0 0 0)
(0 0 0)
(0 0 0)
(0 0 0)
(0 0 0)
(0 0 0)
(0 0 0)
(0 0 0)
(0 0 0)
(0 0 0)
(0 0 0)
(0 0 0)
(0 0 0)
(0 0 0)
(0 0 0)
(0 0 0)
(0 0 0)
(0 0 0)
(0 0 0)
(0 0 0)
(0 0 0)
(0 0 0)
(0 0 0)
(0 0 0)
(0 0 0)
(0 0 0)
(0 0 0)
(0 0 0)
(0 0 0)
(0 0 0)
(0 0 0)
(0 0 0)
(0 0 0)
(0 0 0)
(0 0 0)
(0 0 0)
(0 0 0)
(0 0 0)
(0 0 0)
(0 0 0)
(0 0 0)
(0 0 0)
(0 0 0)
(0 0 0)
(0 0 0)
(0 0 0)
(0 0 0)
(0 0 0)
(0 0 0)
(0 0 0)
(0 0 0)
(0 0 0)
(0 0 0)
(0 0 0)
(-0.00770568 0.00526355 -0.00148764)
(-0.00369854 -0.00524669 -0.000560326)
(-0.0146141 0.00359575 -0.000802793)
(-0.0179803 -0.0115278 -0.0015816)
(0.0012727 -0.00288196 -0.00190657)
(-0.0101777 -0.00646607 -0.00480461)
(-0.00100461 0.00865503 -0.00443138)
(-0.000473335 0.00374473 -0.00237958)
(0.000377454 0.0165346 -0.00457252)
(0.00212908 0.009405 -0.00486412)
(-0.00632377 0.0114039 -0.000754771)
(0.00173707 0.0134841 -0.00286663)
(-0.00401635 0.00556921 -0.00169847)
(-0.0156488 0.00162892 -0.00220686)
(-0.0205053 -0.00223085 -0.0038195)
(-0.00548593 -0.00314943 -0.00293899)
(0.00102865 0.00725689 -0.0022008)
(-0.0224335 0.00257152 -0.0043238)
(-0.0285162 0.00728053 -0.00114693)
(-0.00225699 -0.00123497 -0.00235)
(-0.0457981 -0.0232257 0.0053527)
(-0.0292992 0.00151441 -0.00154617)
(-0.0160013 -0.00126561 -0.00697752)
(-0.0710209 -0.0309135 0.00214414)
(-0.0452933 -0.0156623 -0.00454806)
(-0.0204027 -0.00961804 -0.006432)
(-0.000958948 0.0230122 -0.00187819)
(-0.00665283 0.00210083 0.00369457)
(-0.0196503 0.00732167 0.00319975)
(-0.00982942 0.0129421 0.000373813)
(-0.0135219 -0.0067157 -0.00268276)
(-0.0408659 -0.00867116 0.00465465)
(-0.0346359 -0.0196619 0.00202905)
(-0.00777806 -0.00754014 -0.000284693)
(-0.00794581 -0.00138072 -0.00205238)
(-0.0327639 -0.0179799 -0.000171459)
(-0.039079 -0.0207127 0.00414625)
(-0.0226146 -0.026466 0.00360913)
(-0.0769007 -0.0756945 0.00200045)
(-0.0892473 -0.0614169 0.000426506)
(-0.0966405 -0.0843229 -0.00414611)
(-0.0709915 -0.0822768 -0.00839481)
(-0.0541295 -0.0445498 -0.00294595)
(-0.0717739 -0.0761833 -0.0091399)
(-0.0445573 -0.066632 -0.00837436)
(-0.0301422 -0.0217498 -0.00620613)
(-0.0242759 -0.027391 -0.00843291)
(-0.00560031 -0.0101212 -0.00789541)
(-0.0049978 0.000695787 0.00175988)
(-0.0163061 -0.00428552 0.00432354)
(-0.00612776 -0.00537141 0.00174657)
(-0.0338331 -0.025984 0.0027068)
(-0.0497695 -0.0357083 0.00204889)
(-0.0209999 -0.0289086 0.00153872)
(-0.0475787 -0.0454321 0.00726074)
(-0.0660264 -0.0333608 0.00469438)
(-0.099129 -0.0549402 0.00660008)
(-0.0835844 -0.0625512 0.00742163)
(-0.12612 -0.0739193 -0.00197919)
(-0.127626 -0.0786639 -0.00615336)
(-0.0914921 -0.0759166 -0.00897116)
(-0.111245 -0.0662532 -0.00465246)
(-0.0830583 -0.0570642 -0.0123874)
(-0.0622572 -0.0620119 -0.00583638)
(-0.0338692 -0.0688001 -0.00507633)
(-0.0541496 -0.041324 -0.00803158)
(-0.0328036 -0.0364045 -0.00580938)
(-0.0214142 -0.0197969 -0.00550809)
(-0.00758313 -0.0068108 -0.0055904)
(-0.0127046 -0.0191444 -0.00607416)
(-0.00183534 -0.00535435 -0.00152414)
(-0.00783746 -0.0200858 0.000412644)
(-0.0445833 -0.0510939 0.00567871)
(-0.00811884 -0.0160986 -0.00273587)
(-0.0295907 -0.0447542 9.16877e-06)
(-0.102858 -0.0640883 0.00625025)
(-0.123075 -0.063407 -0.00364691)
(-0.0752484 -0.0539495 0.000675105)
(-0.112816 -0.0408326 -0.00783617)
(-0.0965404 -0.0494701 -0.00925478)
(-0.0757041 -0.029416 -0.0050665)
(-0.0872664 -0.0292536 -0.00906795)
(-0.0499315 -0.0227868 -0.00824842)
(-0.0463228 -0.0304233 -0.0105291)
(-0.0177058 -0.014636 -0.00707891)
(-0.0191515 -0.0135227 -0.00676627)
(-0.00685173 -0.00671582 -0.0039907)
(-0.00749337 -0.00918147 -0.00528879)
(-0.0247581 -0.0236817 -0.00397475)
(-0.0571004 -0.0325488 -0.00394166)
(-0.0611027 -0.0231427 -0.00799651)
(-0.0315174 -0.00899157 -0.00959075)
(-0.0450168 -0.0151015 -0.00791559)
(-0.0243541 -0.0128101 -0.00840599)
(-0.0248383 -0.0067647 -0.0113958)
(-0.0115194 -0.00495766 -0.0064611)
(-0.0472676 0.0460054 -0.0390419)
(-0.0711843 0.039951 0.0221837)
(-0.0064552 0.0323639 0.0574878)
(-0.0426255 0.0494118 -0.0146787)
(-0.0276676 0.0132921 -0.0140594)
(-0.0357385 0.0524185 0.0311058)
(-0.0775341 0.0389649 0.024502)
(-0.0603279 0.0382777 0.0240038)
(-0.0209434 0.000592016 -0.00559278)
(-0.0306965 0.00495724 -0.0051118)
(-0.00534894 0.0447114 0.0482645)
(-0.0193641 0.0231854 0.0199471)
(-0.0267137 -0.00659692 0.0161009)
(-0.0443767 -0.0127257 -0.0486591)
(-0.0396762 -0.0242817 -0.0151245)
(0.000829649 0.0325098 -0.028324)
(-0.0092378 0.0242554 0.0160307)
(-0.0328801 0.0658817 -0.00507156)
(0.00147366 0.0554273 0.00685683)
(-0.011851 0.0412204 0.00668921)
(-0.0442414 0.0503664 0.0390418)
(-0.0767687 0.0665458 0.0515972)
(-0.0206606 0.0574248 0.0497224)
(-0.0501671 0.0376254 0.0708868)
(-0.0514999 -0.057241 -0.083706)
(-0.100862 -0.113686 -0.0632793)
(-0.0549827 -0.0841261 -0.0717175)
(-0.0720012 -0.0596641 -0.0154862)
(-0.0402578 -0.0510224 -0.0333268)
(-0.0923325 -0.115426 -0.00762243)
(-0.044732 -0.0816505 -0.024097)
(-0.0351987 -0.0620849 -0.0724342)
(-0.0241535 -0.0491825 -0.0272755)
(0.0236633 0.035009 -0.0244502)
(0.0235887 0.0229425 -0.0300336)
(0.0261262 0.0331322 -0.0442909)
(0.0145191 0.00607246 0.0277898)
(0.0256942 -0.0351148 0.00382426)
(0.0507097 -0.0275829 0.0267625)
(0.0141095 -0.0767963 -0.0527055)
(0.00365457 -0.06142 -0.0278717)
(-0.0125567 -0.0664544 -0.00317053)
(0.00104482 -0.0561363 -0.0102485)
(-0.00376779 -0.034148 0.00595718)
(0.0192239 0.0045066 -0.0450709)
(-0.0377924 -0.0766623 -0.059785)
(0.0150141 -0.0494426 0.00498394)
(0.0179246 -0.0426905 0.00315809)
(-0.0344715 -0.0657562 -0.0128252)
(0.00910406 -0.0451918 -0.046092)
(-0.00357154 -0.0211174 -0.0265676)
(0.0106677 -0.0390604 -0.00543561)
(0.00752183 -0.0281244 0.00494851)
(-0.00555621 -0.0140121 -8.80313e-05)
(-0.0589399 -0.0903191 -0.0670042)
(-0.0501543 -0.065612 -0.0415924)
(-0.195142 -0.137396 -0.073391)
(-0.124045 -0.103448 -0.0723869)
(-0.168241 -0.0931629 -0.0741897)
(-0.117792 -0.115769 -0.0269371)
(-0.167296 -0.126833 -0.00342932)
(-0.0977934 -0.0844378 -0.0424876)
(-0.143093 -0.0896901 -0.0284776)
(-0.00326392 -0.00381689 -0.0386154)
(-0.0254427 0.00937326 -0.0387251)
(-0.0105212 0.0025338 -0.0482912)
(-0.050426 -0.0161815 -0.014782)
(-0.0058156 -0.0102496 -0.0185658)
(-0.0298056 0.00329667 -0.00928038)
(-0.00779404 0.00255477 -0.0190216)
(0.00381441 -0.0100553 -0.0268269)
(-0.137261 -0.0665219 -0.0708634)
(-0.121841 -0.0649138 -0.0366852)
(-0.119473 0.00448847 -0.0598802)
(-0.0960843 -0.00365019 -0.0541544)
(-0.124601 -0.0543464 -0.0251817)
(-0.105519 -0.0181987 -0.0235933)
(-0.0707522 -0.00714214 -0.0134542)
(-0.0492643 0.00252591 -0.0444321)
(-0.0785367 0.00196161 -0.060724)
(-0.0805287 0.00231008 -0.00829849)
(-0.0505442 0.00378341 -0.00640904)
(-0.0567439 0.00637675 -0.0143802)
(-0.0324425 0.00904793 -0.0214231)
(-0.058312 0.0339341 0.0550461)
(-0.0499358 0.0225703 0.0562425)
(-0.0424027 0.0255997 0.0623528)
(-0.0692408 0.0287812 0.0594605)
(-0.0631609 0.0342256 0.0769557)
(-0.0621808 0.00683792 0.0551368)
(-0.0696998 0.0125103 0.0702438)
(-0.0818531 0.00424371 0.0957455)
(-0.0301018 0.025878 0.0890146)
(-0.0350689 -0.014404 0.0808968)
(-0.0649309 0.00386605 0.0752386)
(-0.0731528 -0.00144591 0.128648)
(-0.061864 -0.0202828 0.126202)
(-0.0441361 -0.0272344 0.052538)
(-0.0522329 -0.027021 0.10477)
(-0.00855356 0.01426 0.0446168)
(-0.0186284 0.00808342 0.0910609)
(-0.0779825 0.0565394 0.102876)
(-0.0364039 0.0442514 0.102996)
(-0.086311 0.0582222 0.152101)
(-0.0392034 0.0329523 0.0930658)
(-0.0780618 0.0270659 0.132521)
(-0.0622271 0.0154708 0.163524)
(-0.121633 0.0257719 0.226925)
(-0.0301531 -0.0314473 0.0431707)
(-0.0847557 -0.0814452 0.0726472)
(-0.0305541 -0.0479268 0.0567701)
(-0.0535501 -0.042916 0.137251)
(-0.0286734 -0.0160271 0.098139)
(-0.0699101 -0.0475832 0.153033)
(-0.0269325 -0.0242903 0.110694)
(-0.0145465 -0.021614 0.0534535)
(-0.0122728 -0.00618063 0.0728819)
(0.00951749 -0.0144911 0.0628147)
(0.0205665 -0.0612161 0.0660547)
(0.0537136 -0.06782 0.0908863)
(-0.00633969 -0.0525552 0.126903)
(0.0170175 -0.100094 0.105653)
(0.0306882 -0.125975 0.153529)
(-0.0131424 -0.0326366 0.05386)
(-0.0029782 -0.0122828 0.0633344)
(-0.0188604 -0.0106161 0.0780273)
(-0.0102729 -0.00850331 0.0507531)
(0.000436771 0.000557532 0.0648377)
(0.0323636 -0.077916 0.0995914)
(-0.0113382 -0.0557322 0.0712587)
(0.00194328 -0.118713 0.132088)
(0.0225707 -0.122238 0.194297)
(-0.00506279 -0.0615143 0.171065)
(0.000112442 -0.0134607 0.0656022)
(-0.0230433 -0.00191869 0.0442195)
(-0.0160976 -0.00592381 0.0328117)
(-0.00134504 -0.000703698 0.0635839)
(-0.00933449 0.00435928 0.0284614)
(-0.0399105 -0.0532874 0.0419551)
(-0.0293522 -0.0540542 0.137442)
(-0.125534 -0.109745 0.0725512)
(-0.0803688 -0.0748317 0.04024)
(-0.118663 -0.0748408 0.0514245)
(-0.0570065 -0.0885437 0.155696)
(-0.0957672 -0.0790635 0.148929)
(-0.050444 -0.0618082 0.120917)
(-0.0897851 -0.0583745 0.127621)
(-0.00912165 -0.0128198 0.0318139)
(-0.0568033 0.0141039 0.0445094)
(-0.0130606 0.0058488 0.0301082)
(-0.0516437 0.0102706 0.0323058)
(-0.0236633 0.0117266 0.024751)
(-0.0444493 0.0199437 0.0423781)
(-0.0211611 0.015956 0.0233265)
(-0.00778682 0.00649585 0.0250424)
(-0.106842 -0.0621306 0.0490787)
(-0.0818602 -0.0498096 0.11495)
(-0.0950617 -0.0251948 0.0543143)
(-0.0580117 -0.0093852 0.0623531)
(-0.0888671 -0.0312459 0.118281)
(-0.0855732 -0.00624533 0.102118)
(-0.0647815 -0.0057798 0.0962249)
(-0.0549894 0.00401 0.0561104)
(-0.045556 0.00056859 0.0659355)
(-0.0754732 0.00648385 0.0795024)
(-0.0595967 0.020273 0.0664149)
(-0.05924 0.00261481 0.085976)
(-0.0425413 0.0198556 0.0490505)
(-0.0569107 -0.0189737 0.0929599)
(-0.113955 -0.165698 -0.0269415)
(-0.0982313 -0.0189441 0.066604)
(-0.104728 -0.055298 0.102439)
(-0.121162 -0.0582941 0.122207)
(-0.138276 -0.142721 0.0724895)
(-0.150508 -0.189676 -0.0398686)
(-0.165593 -0.174755 0.117528)
(-0.108696 -0.0384555 0.145995)
(-0.0787075 -0.0294237 0.133407)
(-0.12129 -0.0714865 0.0976489)
(-0.122403 -0.103573 0.151354)
(-0.0665431 -0.0665464 0.1419)
(-0.0508416 -0.0274052 0.112751)
(-0.0314449 -0.0361759 0.108922)
(-0.0534764 -0.0348407 0.161812)
(-0.12551 -0.157316 0.201125)
(-0.109999 -0.0475052 0.176221)
(-0.125547 -0.0613681 0.231511)
(-0.151803 -0.0619239 0.286365)
(-0.159995 -0.166113 0.132829)
(-0.167263 -0.182746 0.163295)
(-0.183037 -0.177595 0.23495)
(-0.156917 -0.143348 0.271809)
(-0.0135994 -0.00374965 0.0992201)
(-0.0447764 -0.0202031 0.206114)
(-0.0114832 0.0028416 0.111982)
(-0.0139161 -0.0469699 0.150367)
(0.00607196 -0.00850032 0.0881931)
(-0.00114812 -0.0164644 0.198666)
(0.0153268 0.00437483 0.0956701)
(-0.00377444 0.00634141 0.0583214)
(0.0122723 0.0173883 0.0412277)
(-0.0646407 -0.127556 0.232885)
(0.00496213 -0.1221 0.134846)
(-0.0259737 -0.181976 0.233476)
(-0.198011 -0.209979 0.284778)
(-0.0380704 -0.127094 0.191945)
(-0.12945 -0.199582 0.30585)
(-0.0267444 0.0107372 0.0270165)
(-0.00495815 0.00648122 0.0442127)
(-0.000909745 0.0298263 0.014433)
(-0.0125327 0.0336329 0.0109315)
(-0.00719159 0.0233817 0.0180837)
(-0.00826399 -0.142372 0.242461)
(-0.00674301 -0.0774122 0.23086)
(-0.0199738 -0.103196 0.167354)
(-0.0598973 -0.131948 0.282304)
(-0.0341659 -0.0712975 0.242466)
(-0.00960282 0.0121738 0.0420077)
(-0.0298556 0.00863792 -0.00161959)
(-0.0334826 0.0231454 -0.00752043)
(-0.0130787 0.024528 0.01067)
(-0.0297525 0.0131771 -0.025549)
(-0.0240551 -0.0566982 0.185569)
(-0.0299843 -0.0450107 0.192746)
(-0.04901 -0.0468425 0.220421)
(-0.031465 -0.0416903 0.168058)
(-0.0457217 -0.0376076 0.171942)
(-0.0418994 -0.0302137 0.247865)
(-0.0279481 0.00348019 0.258181)
(-0.0242471 -0.0172357 0.168746)
(-0.0325137 -0.00518675 0.182109)
(-0.0429947 0.00293214 -0.0015093)
(-0.0545876 0.00864601 0.0207091)
(-0.0276708 0.0123095 0.00385237)
(-0.0528577 -0.000719664 0.00836748)
(-0.0459727 0.00394888 -0.0165281)
(-0.0505551 0.00439274 0.00493862)
(-0.0324107 0.00944337 -0.0176598)
(-0.023235 0.0145214 -0.0256575)
(-0.0509128 -0.0290506 0.138812)
(-0.0348907 -0.0147135 0.14454)
(-0.0675703 -0.00830757 0.107772)
(-0.0624358 -0.00688274 0.0912912)
(-0.0491661 -0.00938361 0.139445)
(-0.0539157 -0.00387891 0.111316)
(-0.0552095 -0.00420019 0.0913972)
(-0.0606126 0.0085112 0.0526252)
(-0.0645303 0.00305701 0.0795249)
(-0.0577288 0.000358043 0.0729334)