/*--------------------------------*- C++ -*----------------------------------*\
| =========                 |                                                 |
| \\      /  F ield         | OpenFOAM: The Open Source CFD Toolbox           |
|  \\    /   O peration     | Version:  5.x                                   |
|   \\  /    A nd           | Web:      www.OpenFOAM.org                      |
|    \\/     M anipulation  |                                                 |
\*---------------------------------------------------------------------------*/
FoamFile
{
    version     2.0;
    format      ascii;
    class       volScalarField;
    location    "6";
    object      p;
}
// * * * * * * * * * * * * * * * * * * * * * * * * * * * * * * * * * * * * * //

dimensions      [0 2 -2 0 0 0 0];

internalField   nonuniform List<scalar> 
10571
(
217.602
207.738
198.165
208.976
204.68
194.475
181.041
175.188
176.184
183.255
186.014
186.636
183.146
174.163
179.323
182.172
205.493
202.092
186.844
185.817
185.756
211.699
208.374
200.646
183.893
166.093
175.594
163.142
139.744
158.485
143.292
133.284
151.914
147.766
174.56
161.967
105.397
117.462
137.784
160.77
76.1798
68.9183
100.528
122.132
154.396
96.0752
109.408
105.455
107.37
109.821
123.146
103.583
114.758
87.2671
101.459
108.272
102.641
112.737
68.1959
74.1743
85.1164
110.774
99.0134
116.541
68.1751
67.1982
65.4174
76.1705
93.778
64.5935
62.2685
65.2784
77.9917
78.1316
76.4265
74.4079
82.1231
71.612
83.9985
100.795
82.4936
92.3004
67.9899
65.735
71.4905
80.4271
71.4505
84.3023
64.1482
59.6803
51.8471
60.4903
62.9475
62.4961
61.6306
61.9415
73.5248
69.7154
73.503
71.9648
63.9727
65.4552
61.6986
63.9907
64.7892
69.8733
62.1981
60.9642
53.88
50.1601
52.9532
61.6565
57.9835
52.7721
51.6748
51.9545
50.2617
57.2292
56.6818
54.6489
69.0352
55.2068
65.7786
63.5771
52.0242
57.4235
48.4208
48.1129
49.8776
49.9286
49.4025
56.3027
55.6067
49.6426
49.8905
48.3948
50.162
49.526
52.87
50.2669
51.1391
50.2093
49.5801
53.4053
53.0803
51.6844
49.7982
49.0197
49.7487
48.8541
48.8811
48.6064
50.5457
51.5105
49.2185
49.3408
49.3005
48.912
48.6858
49.7587
49.9532
49.2702
49.396
49.2482
49.7686
49.6361
50.3197
49.7069
49.4088
49.361
51.1063
51.07
50.4321
48.9503
48.8356
48.7477
48.7769
48.7682
48.9081
49.4157
50.0064
49.2249
49.1992
49.2407
48.9494
48.9432
49.0994
49.0155
49.0809
49.2619
49.0827
48.7061
49.3263
49.6104
49.3648
49.509
49.31
50.0185
50.0779
49.8412
48.7771
48.7517
48.6558
48.6748
48.7197
48.7883
48.8121
48.9861
49.0519
49.217
49.3613
48.6951
48.582
48.7927
48.8174
48.9703
49.2047
49.1073
48.7139
49.0889
49.1867
49.1598
49.5342
49.5229
49.5157
49.35
48.719
48.725
48.6178
48.5457
48.7038
48.7335
48.7389
48.8215
48.9275
48.9615
48.6776
48.6427
48.7752
48.7935
48.9294
49.0896
48.707
48.9335
48.9613
49.0229
49.0651
49.2014
49.1695
49.1769
48.4967
48.7099
48.5755
48.4131
48.6536
48.7002
48.7664
48.8275
48.8577
48.866
48.7024
48.6636
48.7901
48.7389
48.8929
48.9093
48.6904
48.8637
48.8485
48.9311
49.0764
49.0271
48.9912
49.0686
48.5458
48.7266
48.5785
48.5077
48.6377
48.6941
48.7337
48.8379
48.8437
48.8894
48.6551
48.6852
48.7739
48.7103
48.8804
48.962
48.716
48.8197
48.8037
48.8975
49.0243
48.9236
48.8875
48.9572
48.752
48.7636
48.7007
48.7423
48.7979
48.7258
48.7369
48.8568
48.8599
48.9108
48.6756
48.7114
48.7749
48.7289
48.8963
48.9601
48.7599
48.7587
48.8341
48.905
48.9918
48.8722
48.8633
48.9758
48.9128
48.8344
48.822
48.9536
48.9637
48.7938
48.7987
48.8861
48.891
48.9342
48.7569
48.7659
48.8254
48.7783
48.9302
48.9696
48.8181
48.7207
48.9124
48.9422
48.9917
48.8667
48.9008
49.0151
48.9723
48.9043
48.9029
49.0397
49.0063
48.8687
48.8667
48.9327
48.9274
48.9667
48.8475
48.8512
48.8827
48.8537
48.9735
49.0017
48.8892
48.7265
48.985
48.9924
49.021
48.9056
48.9633
49.0483
48.9898
48.9575
48.9466
48.9557
49.0067
48.9375
48.9296
48.9815
48.9705
49.0009
48.9632
48.9287
48.9525
48.9222
49.0188
49.0377
48.9257
48.8109
49.0565
49.0629
49.0596
48.9364
49.0265
49.1021
49.0253
49.0017
48.975
48.9461
49.0275
48.9915
48.9688
49.0152
49.016
49.0342
49.0517
48.9949
49.0162
48.9801
49.0532
49.0694
49.0623
48.9385
49.1285
49.1191
49.0899
48.9939
49.085
49.1546
49.0543
49.035
49.0079
49.0027
49.0618
49.0347
48.9967
49.0486
49.0568
49.0665
49.0938
49.0702
49.0412
49.0278
49.0809
49.0925
49.3365
48.9844
49.1852
49.1611
49.1185
49.0602
49.1437
49.1973
49.0781
49.0593
49.0384
49.0496
49.0903
49.0659
49.0135
49.0845
49.0915
49.0964
49.1487
49.1422
48.9902
49.0568
49.1055
49.11
49.5511
48.8667
49.2204
49.1993
49.1365
48.9908
49.1811
49.2435
49.0991
49.0713
49.0509
49.0731
49.1155
49.0573
48.9982
49.1112
49.1173
49.1259
49.1398
49.082
48.8938
49.0647
49.1105
49.1297
49.2768
48.7717
49.1985
49.1853
49.1476
48.9052
49.1851
49.2286
49.1158
49.0407
49.0583
49.0922
49.1486
48.9559
48.9679
49.1315
49.1407
49.1532
49.0815
49.0309
48.829
49.086
49.115
49.1524
49.0924
48.7285
49.1768
49.142
49.1725
48.8782
49.2007
49.2363
49.1216
49.0165
49.0632
49.1095
49.1896
48.8385
48.9568
49.1643
49.1787
49.1854
48.99
48.9282
48.7956
49.1697
49.1381
49.187
48.9444
48.6488
49.2516
49.1658
49.2131
48.8814
49.2917
49.4494
49.1395
49.0208
49.0831
49.1157
49.219
48.805
48.9555
49.2056
49.2229
49.2227
48.8961
48.8699
48.7904
49.293
49.18
49.2284
48.8153
48.5252
49.4562
49.17
49.2615
48.827
49.403
49.3661
49.1749
49.1118
49.1026
49.1304
49.2426
48.9098
48.9974
49.2335
49.2704
49.2658
48.8456
48.8295
48.8456
49.3922
49.2273
49.2688
48.6585
48.5115
49.6556
49.1944
49.3094
48.8247
49.5611
49.3061
49.2402
49.0837
49.1517
49.1725
49.2804
48.91
49.0513
49.2404
49.3068
49.3032
48.8006
48.7361
48.9496
49.4108
49.2821
49.302
48.4128
48.6871
49.6519
49.2717
49.3515
48.9027
49.6968
49.409
49.3181
49.0655
49.1981
49.2619
49.3195
48.8931
49.0673
49.2306
49.3216
49.333
48.7638
48.68
49.0534
49.3521
49.3225
49.3242
48.2398
48.9386
49.4856
49.3266
49.3719
49.0294
49.6184
49.4675
49.3869
48.9809
49.2054
49.3627
49.3427
48.831
49.1083
49.2333
49.3149
49.3501
48.7565
48.6617
49.1877
49.2735
49.3256
49.3338
48.312
49.0906
49.2954
49.3241
49.368
49.1958
49.4354
49.454
49.3608
48.8758
49.0682
49.3207
49.3221
48.7271
49.0767
49.2079
49.284
49.3424
48.7711
48.6577
49.2497
49.2402
49.3095
49.3249
48.6231
49.1536
49.1522
49.2912
49.3489
49.3159
49.3345
49.3983
49.2921
48.8568
48.9549
49.2302
49.29
48.6892
48.9849
49.1627
49.2497
49.3203
48.7865
48.6522
49.2196
49.2165
49.285
49.3092
48.8767
49.2833
49.105
49.2592
49.3287
49.409
49.3056
49.3495
49.2241
48.9028
48.9306
49.1486
49.2675
48.712
48.9202
49.1212
49.2424
49.2988
48.8307
48.6445
49.1127
49.1877
49.2656
49.295
49.0403
49.3312
49.1126
49.2381
49.314
49.4498
49.3187
49.3244
49.2083
48.9853
48.9625
49.1173
49.2846
48.7823
48.9327
49.0825
49.2513
49.2892
48.9245
48.6382
49.0045
49.1582
49.2559
49.2855
49.0785
49.1901
49.1103
49.2224
49.3065
49.3936
49.3202
49.3031
49.2338
49.0832
49.0239
49.1256
49.3251
48.9004
48.9912
49.0559
49.2754
49.2898
49.068
48.6935
48.9582
49.1449
49.2634
49.285
49.0927
49.0057
49.0903
49.2139
49.3074
49.3229
49.3022
49.2943
49.2803
49.1912
49.0868
49.1533
49.3613
49.0432
49.104
49.0714
49.2994
49.3019
49.2381
48.8214
49.0295
49.1684
49.2917
49.3006
49.1043
48.9713
49.0966
49.2242
49.3199
49.2833
49.2641
49.2916
49.3396
49.3043
49.1513
49.1996
49.3768
49.1712
49.2338
49.1425
49.3076
49.315
49.4304
49.0541
49.2134
49.2221
49.3327
49.3315
49.1972
49.0665
49.137
49.2576
49.3449
49.3007
49.2224
49.2978
49.4031
49.4145
49.217
49.2676
49.3654
49.2867
49.2832
49.2451
49.3077
49.3318
49.6729
49.3541
49.4275
49.2931
49.3744
49.3644
49.3602
49.1487
49.2073
49.301
49.3771
49.3578
49.2349
49.3289
49.4584
49.5258
49.3071
49.3435
49.3571
49.3866
49.2969
49.3418
49.3254
49.3622
49.8583
49.6477
49.6007
49.3623
49.4209
49.3989
49.5582
49.2008
49.306
49.3519
49.4154
49.4242
49.2955
49.3748
49.5147
49.6276
49.4195
49.4173
49.3765
49.4645
49.306
49.4221
49.3555
49.4032
50.0064
49.8813
49.7106
49.4315
49.4699
49.4397
49.7185
49.3146
49.4058
49.4088
49.4589
49.4966
49.3715
49.4304
49.5702
49.6957
49.512
49.4848
49.4309
49.5153
49.3365
49.4756
49.3989
49.446
50.068
49.9402
49.7173
49.4878
49.507
49.4792
49.813
49.447
49.4836
49.4629
49.5
49.5664
49.4543
49.4872
49.6206
49.7364
49.5758
49.5371
49.4946
49.5367
49.3832
49.5048
49.4502
49.4889
49.9984
49.8156
49.6576
49.5206
49.5308
49.5158
49.8286
49.5228
49.5339
49.5029
49.5342
49.6009
49.532
49.5368
49.6606
49.759
49.6253
49.5708
49.5437
49.5774
49.4357
49.5301
49.502
49.5266
49.8933
49.682
49.5925
49.5672
49.5549
49.5485
49.8139
49.5503
49.5792
49.5333
49.564
49.6284
49.5923
49.5771
49.6799
49.7752
49.6612
49.5788
49.5741
49.6266
49.49
49.5581
49.5445
49.5584
49.834
49.6223
49.5725
49.6276
49.5752
49.5775
49.7919
49.5907
49.6234
49.5652
49.5921
49.6602
49.6385
49.6153
49.69
49.7903
49.6911
49.5863
49.6031
49.6691
49.5389
49.5655
49.574
49.5835
49.8157
49.6198
49.5853
49.6559
49.5905
49.6
49.7713
49.6366
49.6984
49.6046
49.6183
49.6927
49.6903
49.6548
49.6999
49.8168
49.7151
49.6023
49.6342
49.7104
49.5765
49.564
49.588
49.6043
49.8345
49.6599
49.6053
49.6643
49.5911
49.6152
49.7646
49.6539
49.7419
49.6288
49.6363
49.7178
49.7324
49.6791
49.7213
49.8504
49.7394
49.6257
49.6887
49.7528
49.6059
49.5585
49.6057
49.6287
49.8669
49.7157
49.6336
49.6526
49.5845
49.6307
49.7646
49.6591
49.7248
49.6371
49.6494
49.7357
49.7256
49.6814
49.7488
49.8757
49.765
49.6266
49.7873
49.7774
49.6379
49.589
49.6676
49.6665
49.897
49.7732
49.6665
49.6215
49.5949
49.6569
49.7708
49.6605
49.681
49.6469
49.6658
49.736
49.6922
49.6765
49.7786
49.8901
49.7973
49.6287
49.8286
49.7947
49.6731
49.644
49.743
49.7138
49.9214
49.8255
49.6909
49.5817
49.6216
49.6886
49.7705
49.6583
49.6466
49.6637
49.6892
49.7265
49.6619
49.6777
49.8289
49.909
49.8447
49.6828
49.8225
49.8195
49.7073
49.7054
49.8033
49.7702
49.9257
49.8186
49.7136
49.5799
49.654
49.7314
49.7532
49.6773
49.6347
49.6916
49.7295
49.7204
49.6494
49.6977
49.9101
49.951
49.9136
49.7915
49.8376
49.8475
49.7536
49.7611
49.8618
49.8379
49.9056
49.7787
49.7319
49.6372
49.7546
49.8095
49.7532
49.7292
49.6477
49.7477
49.794
49.7621
49.6982
49.7574
50.0183
50.0293
50.0051
49.9248
49.9111
49.88
49.8115
49.8291
49.9367
49.9138
49.9233
49.7522
49.7333
49.7329
49.9227
49.9036
49.7919
49.7719
49.6751
49.8413
49.916
49.8264
49.8009
49.8652
50.1347
50.1646
50.1146
50.0556
50.0075
49.9536
49.8934
49.9152
50.0098
49.9862
50.0257
49.8247
49.7578
49.8385
50.1097
49.9933
49.8951
49.7767
49.764
49.9703
50.0306
49.9046
49.9109
50.016
50.2364
50.294
50.2225
50.1657
50.0935
50.0981
50.0086
50.0144
50.0807
50.0539
50.3354
50.0663
49.8377
49.9326
50.1585
50.0728
50.152
49.7601
49.7795
50.006
50.1203
49.9578
49.9589
50.0826
50.3008
50.3113
50.276
50.2374
50.166
50.222
50.1123
50.1015
50.149
50.1184
50.3952
50.3001
49.9532
49.9735
50.0962
50.1167
50.3015
49.8089
49.6757
49.9124
50.0986
49.976
49.912
49.979
50.3238
50.3038
50.2854
50.2664
50.2113
50.2651
50.184
50.1664
50.1806
50.1547
50.4369
50.391
50.0785
50.0065
50.0744
50.1427
50.4555
49.9764
49.7198
49.8277
50.0609
49.9625
49.8222
49.8056
50.3103
50.3047
50.2804
50.2623
50.2241
50.3121
50.2216
50.1936
50.1791
50.1684
50.4945
50.4545
50.174
50.0861
50.1061
50.1752
50.723
50.2752
49.8944
49.9174
50.1008
50.1237
49.8842
49.7671
50.267
50.2881
50.2606
50.2268
50.1985
50.3099
50.229
50.1832
50.153
50.1522
50.5321
50.4853
50.253
50.152
50.1134
50.1927
50.674
50.4262
50.0298
50.0223
50.1191
50.4003
50.0787
49.866
50.2027
50.2719
50.2254
50.1693
50.1334
50.3201
50.2126
50.1376
50.0864
50.0838
50.5514
50.508
50.3122
50.1916
50.0802
50.115
50.7348
50.5636
50.2177
50.0867
50.0958
50.737
50.3373
50.0034
50.125
50.2167
50.1794
50.0953
50.0346
50.2709
50.1729
50.055
49.9482
49.9511
50.5565
50.5154
50.3272
50.1844
50.0095
49.9833
50.7823
50.639
50.3561
50.1063
50.0527
50.8684
50.4912
50.1711
50.0368
50.203
50.142
50.0059
49.8869
50.2735
50.1349
49.9451
49.7281
49.7123
50.5648
50.5218
50.3125
50.1479
49.9134
49.8239
50.7815
50.6024
50.3613
50.0909
49.9704
50.7716
50.4222
50.2235
49.9386
50.2865
50.1404
49.9018
49.6822
50.3618
50.1609
49.8346
49.477
49.3909
50.5977
50.548
50.3239
50.1095
49.7301
49.5686
50.7899
50.5797
50.3351
50.0368
49.8339
50.7185
50.3749
50.2332
49.8473
50.3967
50.1769
49.787
49.3926
50.4954
50.1703
49.7207
49.0426
48.7113
50.6561
50.5919
50.3611
50.0331
49.4147
48.9303
50.8435
50.6234
50.412
49.9775
49.5689
50.7712
50.5155
50.3442
49.7596
50.5125
50.2031
49.6822
49.0119
50.5586
50.1153
49.4859
48.215
47.43
50.7049
50.5962
50.3531
49.9277
48.8563
47.2939
50.8899
50.6612
50.4786
49.8916
49.0608
50.8634
50.6978
50.5026
49.7016
50.5196
50.217
49.5835
48.5531
50.4996
50
49.2164
47.0815
44.0931
50.6929
50.481
50.3612
49.6971
48.1758
42.9531
50.7133
50.7773
50.548
49.8233
48.0268
50.9598
50.8105
50.679
49.6839
50.4064
50.2052
49.5252
48.1378
50.3571
49.889
48.8129
45.8469
35.9378
50.5748
50.2207
50.3533
49.4202
47.415
36.7806
-31.9325
50.2817
51.0251
50.7906
49.8548
45.559
51.0265
51.171
51.1598
49.7438
50.281
50.1013
49.5224
47.9699
50.1741
49.6671
48.6269
44.9607
30.9253
-2.30179
50.3727
49.8883
49.9269
49.1475
46.6126
35.5099
5.61837
48.8055
50.4658
50.672
49.7073
42.4565
50.7426
51.186
50.8948
49.8801
50.188
49.9997
49.5632
48.2917
50.0303
49.2316
48.4083
45.1608
36.9146
11.4955
50.2185
49.7986
49.4872
48.8152
45.8113
35.0389
8.98205
49.355
49.9975
49.8713
48.7722
40.9045
13.0864
50.3415
50.5008
50.194
50.1009
50.143
49.9741
49.706
49.0763
50.0427
49.293
48.1326
46.184
40.0113
15.5582
50.3041
50.2224
49.2502
48.5717
45.8791
34.362
4.49621
50.0427
49.8262
49.6312
48.3105
40.1692
50.0582
50.0385
49.7483
50.3257
50.1621
50.0137
49.9293
49.8802
50.0862
49.5463
48.8626
47.9152
46.3942
50.6504
50.2448
49.2205
48.7923
46.7431
37.8021
-8.39489
50.162
49.8302
49.7258
48.914
44.9295
50.0001
49.9421
49.6962
50.5648
50.1539
50.1083
50.2486
50.4458
50.0078
49.5749
49.4589
49.2796
50.254
50.5852
50.1165
49.3817
49.2262
47.8068
44.6022
50.0909
49.9965
49.9889
49.6485
48.5283
50.1066
50.0764
49.945
50.8569
50.1677
50.2969
50.6135
50.8619
49.3754
49.7257
49.9088
50.0906
50.6841
50.2011
49.758
49.7427
49.7914
49.2432
48.3243
50.1308
50.2521
50.3296
50.2957
50.5801
50.3417
50.3319
50.3322
51.1362
50.2715
50.5105
51.0434
51.1383
49.4338
50.1823
50.6705
50.7268
51.3684
50.2157
50.0198
50.2471
50.4152
50.3796
50.727
50.3842
50.5655
50.685
50.7942
51.4766
50.5691
50.566
50.704
51.0691
50.5759
50.6411
50.9689
51.234
50.3237
50.4635
50.8833
51.0298
51.7934
50.5554
50.568
50.5148
50.645
50.944
51.8419
50.6437
50.7531
50.8083
51.0128
51.4722
50.7462
50.731
50.9228
50.8324
50.8198
50.6649
50.7324
51.1576
50.7809
50.52
50.7568
51.141
51.7068
50.8209
50.982
50.6902
50.7638
51.0873
51.6328
50.8191
50.8311
50.8932
51.0935
51.3831
50.8748
50.8693
51.0623
50.6439
51.0585
50.7415
50.5051
51.0675
50.9892
50.6444
50.7278
51.1088
51.43
50.966
51.0105
50.8484
50.8893
51.1335
51.4263
50.9497
50.923
50.9725
51.1173
51.3581
51.007
50.9968
51.171
50.9467
51.2352
51.1576
50.8774
51.0335
51.133
50.967
50.7901
51.0373
51.2888
51.0852
51.0009
50.978
50.9366
51.0899
51.2873
51.076
50.9657
51.0137
51.1032
51.3136
51.1293
51.1007
51.1862
51.0555
51.2656
51.2493
51.04
51.0414
51.1923
51.1287
50.9953
51.0317
51.2144
51.2152
51.0719
51.0975
51.1029
51.114
51.2437
51.149
51.0821
51.1722
51.1179
51.2736
51.226
51.1758
51.1776
255.24
257.923
243.906
254.301
247.061
260.02
275.458
280.09
239.81
252.34
252.082
235.659
207.545
232.391
236.402
206.888
204.145
266.162
275.966
206.039
212.452
285.891
250.821
212.157
205.878
192.28
212.979
200.202
204.111
200.826
193.296
198.524
192.869
195.802
185.244
188.366
183.46
183.11
181.879
181.439
181.371
182.018
186.131
182.858
182.053
193.454
190.578
195.961
198.952
203.245
211.098
199.857
194.365
213.34
206.925
189.836
184.05
198.926
190.22
180.688
180.083
184.451
182.702
182.51
181.632
184.167
183.647
188.404
192.294
190.83
222.734
233.848
222.613
227.031
225.792
211.492
203.965
218.593
213.204
196.98
191.76
209.193
202.166
190.326
192.645
199.022
195.848
192.276
217.272
213.317
212.981
211.191
211.442
205.237
210.413
200.093
214.613
192.809
213.927
202.293
213.895
210.665
190.107
204.784
223.877
218.411
218.277
211.931
186.898
218.176
171.546
205.538
180.547
206.483
198.928
189.866
184.33
190.099
177.056
182.083
195.613
184.324
183.919
157.794
157.686
168.291
154.953
182.716
166.648
197.958
193.978
195.992
187.405
186.766
187.405
183.09
182.081
174.686
177.951
175.978
188.556
190.188
183.333
183.548
175.01
181.229
182.18
175.659
174.784
171.267
197.933
155.836
207.468
207.479
213.214
134.522
138.066
110.349
137.513
187.058
196.195
192.336
168.052
175.61
179.702
177.61
173.233
209.393
170.197
211.663
211.284
195.285
196.205
202.542
204.179
209.188
195.498
194.247
202.591
187.405
169.199
142.768
168.725
166.756
173.181
133.94
144.686
137.952
176.256
161.521
141.603
138.508
132.028
147.804
130.191
153.613
124.656
169.913
156.151
160.134
141.326
139.711
133.422
130.076
141.749
144.978
136.657
128.814
132.965
121.833
129.502
141.376
128.76
158.179
170.507
164.993
112.422
101.755
98.0342
157.568
154.86
124.776
121.063
126.805
170.46
130.584
90.86
82.0295
73.7138
158.903
157.081
142.697
139.856
143.358
82.839
68.5894
81.4343
72.3479
74.5174
67.2704
67.0127
68.3326
66.6659
146.27
109.446
132.325
89.5682
105.599
70.0963
80.3805
128.576
74.2094
65.2546
90.4329
103.78
64.4422
62.8878
63.9754
110.771
104.001
65.9788
67.0801
64.8341
67.123
115.878
93.8718
107.869
130.985
107.753
90.5796
110.609
87.4891
102.44
107.028
86.8346
83.5537
90.757
112.608
95.2795
98.052
80.5931
105.832
105.394
106.723
88.6174
85.8193
85.4068
86.2357
119.215
103.405
122.834
97.4931
103.183
90.5706
110.189
118.732
107.02
83.179
72.5031
73.2844
74.0196
70.3579
70.6792
104.326
107.354
103.324
97.262
98.7046
67.5213
68.3419
69.6972
69.5699
69.0151
116.131
117.61
98.6876
99.1176
91.8532
68.6583
67.4376
67.13
68.1528
67.0409
66.7558
66.0733
66.1728
65.3775
73.5165
64.5044
64.125
70.5322
62.8321
63.2589
62.5336
73.2676
66.2826
65.1589
63.8087
63.7243
64.3946
63.8404
64.4145
62.1689
62.8663
63.0365
62.3462
63.9542
65.0134
80.4541
75.8835
79.8958
85.2126
78.2325
74.8144
75.6659
75.0241
77.6181
81.934
75.4114
76.4599
77.4389
82.5163
76.1978
73.9712
70.2352
77.8786
76.0531
77.4899
73.6022
75.0527
71.5722
77.7544
84.3031
83.7012
87.2622
74.1114
71.2902
81.4837
71.9331
90.4416
75.6447
71.1708
68.5857
68.8349
68.9832
66.331
66.3607
90.8884
90.3211
82.4898
82.2817
79.8297
67.8354
66.9974
65.2179
65.0444
64.3076
84.6728
76.0751
71.1667
70.3806
64.225
65.181
62.3503
63.0516
63.4779
62.4828
61.0664
59.241
60.8002
59.8331
58.025
59.0819
59.993
54.2604
54.4068
55.8193
55.915
55.8036
62.7132
60.0717
61.9494
62.2308
59.8397
59.3624
60.3104
61.0109
61.9105
59.0409
58.363
59.2007
57.8625
73.5222
69.9468
72.5807
73.8046
73.2594
71.2088
71.451
71.226
74.5059
74.2692
71.9579
72.5055
70.5997
70.8101
63.0039
65.9304
61.0217
73.102
66.1768
75.4346
64.1165
69.5296
60.8289
68.3979
60.5426
64.6198
57.799
56.2791
55.3398
50.4382
51.3951
60.1535
52.2607
66.2694
64.0117
63.8636
62.0523
61.2084
60.8686
71.1756
65.775
54.8199
61.248
55.2661
62.0633
60.9877
59.2268
58.7575
57.1556
59.354
54.2689
54.934
52.9096
50.0156
58.7705
55.4075
55.9845
57.768
57.4216
55.255
53.9998
54.9992
55.2958
51.299
53.6686
52.4427
50.8386
50.0591
52.1661
51.0704
49.8558
57.5921
55.3602
56.9772
57.879
55.1081
54.9967
55.6417
55.9917
56.7245
54.6979
54.1212
54.7871
52.7326
61.9218
51.7039
68.9431
66.7468
69.0104
62.7629
56.1675
63.5647
70.5188
65.0693
60.7287
63.0581
53.5836
53.6823
49.2636
54.845
49.9078
60.8423
55.842
54.9267
49.9157
51.351
49.753
49.1687
51.8516
50.0678
50.3201
49.6495
49.8307
50.146
49.7225
50.1561
49.3974
56.1342
57.6109
57.6531
50.6452
52.0747
53.5677
49.5054
53.5885
50.613
49.1917
49.046
49.4116
49.0291
49.3322
49.6214
49.3751
49.2236
49.3002
49.2767
49.295
56.1566
54.4666
51.4893
52.5839
51.2609
50.6342
49.1103
49.4683
49.1949
49.1172
49.3354
49.1349
49.3398
49.3529
49.4434
49.2301
49.2823
49.3545
49.5469
52.9288
50.8866
52.593
52.8763
53.2936
51.1349
51.5187
51.3308
51.3978
49.8024
51.2394
50.536
49.8737
49.6902
50.6062
50.1521
49.4686
53.4193
51.9044
53.3701
53.8004
52.0802
52.1064
52.4022
52.6176
53.2497
51.9071
51.5896
52.0696
50.9979
49.3328
49.0558
51.336
50.0109
53.7295
49.1093
49.0841
49.2893
50.2425
49.1239
48.9259
48.8567
48.8741
48.8754
48.8511
49.0243
48.9202
49.0082
48.8893
48.6866
48.9513
48.9228
48.8845
48.8057
49.2387
49.9068
49.2301
48.8203
48.9139
49.496
48.8836
49.1311
49.2751
49.0565
49.3182
49.294
49.3116
49.2366
49.2847
48.9599
49.2232
49.2969
48.9437
48.9174
48.7223
49.3716
49.1925
49.4706
49.1983
49.3067
49.2617
49.3602
49.3299
49.2802
49.3447
49.234
49.3041
49.193
49.2866
49.0657
49.045
48.9518
48.9026
48.7832
49.5212
49.3687
49.3017
49.3117
49.3902
49.1635
49.2131
49.286
49.3348
49.4604
49.168
49.2647
49.2586
49.4019
49.5745
49.0402
50.4619
50.1731
50.293
48.9519
49.3517
49.4743
49.6552
49.6051
50.1582
49.8161
49.5405
49.539
49.8243
49.5893
49.2758
49.4425
49.316
49.5106
49.2975
49.4688
50.8522
50.1635
51.1542
51.3545
50.4468
50.5045
50.6348
50.9369
51.1439
50.5035
50.463
50.5219
50.089
48.8744
48.7818
48.9396
48.9038
48.8937
48.7871
48.8036
48.7808
48.9147
48.7728
48.8012
48.7946
48.7363
48.816
48.7715
48.8451
48.8029
48.8253
48.825
48.7957
48.7995
48.7687
48.7781
48.7556
48.819
49.1285
48.8124
48.7302
48.8269
48.8522
48.8963
49.1222
49.3581
49.1709
49.417
49.2495
49.2857
49.287
49.3213
48.9041
48.9285
48.8914
48.859
48.7804
48.8007
49.373
49.2362
49.35
49.1985
49.4371
49.2151
49.3865
49.3067
49.2027
49.3061
49.2906
49.356
49.2362
49.3272
48.9559
48.7976
48.7926
48.8053
48.7411
49.3271
49.0071
49.2022
49.2397
49.314
49.0938
49.326
49.2677
49.1958
49.3851
49.1388
49.2938
49.2368
49.4148
48.8456
48.7493
48.7418
49.1703
49.299
48.705
48.6685
49.0294
49.1176
49.506
49.5804
49.5123
49.2403
49.4632
49.4134
49.4861
49.4049
49.6028
49.5273
49.4656
49.3545
49.4865
49.6943
49.3833
50.0672
50.1643
49.738
49.76
49.8458
50.0249
50.1015
49.7649
49.7007
49.793
49.5773
48.7486
48.7128
48.7633
48.7169
48.7535
48.7487
48.6719
48.7289
48.7711
48.7206
48.7471
48.7403
48.6933
48.7553
48.735
48.7567
48.751
48.7143
48.7511
48.7224
48.7318
48.6716
48.7261
48.6876
48.8172
48.7094
48.9333
48.7172
48.8039
48.6488
48.9183
49.1519
48.9948
48.8109
48.7379
48.7276
48.7907
48.7299
48.7159
49.5773
49.2045
49.4065
49.1227
49.6079
49.1527
49.3536
49.4064
49.2865
49.3934
49.4541
49.4478
49.4228
49.4897
48.6774
48.6709
48.6658
48.6479
48.6578
49.2625
49.2056
49.4414
49.1606
49.1364
49.0204
49.2018
49.3193
49.1875
49.4571
49.3335
49.36
49.3048
49.4631
48.7133
48.678
48.7364
48.9335
49.0224
48.7099
48.7941
48.8544
48.9576
49.3655
49.2919
49.4311
49.0878
49.2515
49.2022
49.3319
49.2115
49.203
49.0894
49.5227
49.6102
49.3453
49.3352
49.4246
49.4633
49.5469
49.3211
49.3048
49.35
49.2339
48.6908
48.6826
48.7586
48.6541
48.731
48.7076
48.6185
48.6855
48.6998
48.6728
48.5997
48.572
48.596
48.7063
48.6565
48.7309
48.7106
48.6534
48.7107
48.6576
48.7116
48.651
48.7004
48.6614
48.7949
48.6788
48.8785
48.6886
48.7781
48.7123
48.8439
48.9104
48.8876
48.7633
48.7271
48.7116
48.7322
48.721
48.7129
49.0428
49.418
48.8904
48.8822
48.5179
48.6681
48.674
48.6903
48.6747
48.6909
49.3044
48.8257
48.9254
48.6762
48.8157
48.6749
48.6764
48.8068
48.7961
48.9112
48.6924
48.7874
48.7699
48.8674
49.1612
49.135
49.2129
48.9699
49.1061
49.0755
49.1117
49.0787
49.0166
48.962
49.194
49.2791
49.0987
49.0861
49.1612
49.1985
49.193
49.0665
49.1466
49.0786
49.1296
48.6615
48.6598
48.5801
48.5732
48.5847
48.5469
48.5613
48.5292
48.4573
48.4857
48.4759
48.43
48.4625
48.5901
48.5504
48.7002
48.6954
48.6525
48.6998
48.6822
48.7179
48.6548
48.7003
48.6863
48.7563
48.7163
48.8138
48.6239
48.7458
48.7033
48.8037
48.8687
48.8563
48.7256
48.7074
48.7206
48.7027
48.7073
48.7203
48.854
48.742
48.8719
48.8961
48.8777
48.666
48.6714
48.6677
48.6602
48.6521
48.8548
48.8507
48.9461
48.9375
48.8819
48.6709
48.6736
48.7706
48.7584
48.8288
48.7004
48.7734
48.7615
48.8135
49.0797
49.0194
49.0539
48.9081
49.0569
48.9731
49.025
49.0522
48.9151
48.8774
49.0136
49.0788
48.9696
48.962
49.0245
49.072
48.9998
48.9287
48.97
48.9384
48.9977
48.6761
48.7065
48.5768
48.5967
48.5611
48.641
48.652
48.6212
48.4909
48.5041
48.6481
48.6186
48.6055
48.5742
48.6588
48.7011
48.7279
48.667
48.7029
48.6794
48.7367
48.6911
48.7179
48.6896
48.7599
48.7032
48.812
48.7025
48.8078
48.731
48.8325
48.8557
48.866
48.6885
48.6956
48.7035
48.7023
48.6905
48.7037
48.915
48.9002
48.9024
48.922
48.8935
48.6666
48.6607
48.663
48.6866
48.6683
48.9438
48.9036
48.9633
48.9493
48.9197
48.6887
48.7185
48.7752
48.7662
48.8089
48.7311
48.7652
48.7672
48.7976
49.032
48.9476
49.0068
48.8921
49.0099
48.9419
48.9952
49.003
48.8521
48.8377
48.9235
48.9899
48.8908
48.8885
48.9608
48.9286
48.8967
48.8681
48.9277
48.8718
48.9556
48.7508
48.8
48.7252
48.7166
48.7091
48.7994
48.7785
48.7825
48.7411
48.7209
48.8445
48.8443
48.8173
48.7617
48.8567
48.7572
48.7825
48.7336
48.7439
48.7219
48.7968
48.7838
48.7785
48.7742
48.8737
48.7845
48.8635
48.8902
48.9325
48.8413
48.9044
48.8835
48.9089
48.7287
48.713
48.7265
48.7634
48.7409
48.7498
48.9281
48.8975
48.9205
48.9405
48.9062
48.7032
48.6791
48.7179
48.7321
48.6895
48.9476
48.9314
48.9595
48.9378
48.9378
48.7415
48.7806
48.7832
48.7779
48.7942
48.7863
48.8438
48.7924
48.7986
48.9942
48.952
48.9929
48.9208
48.9841
48.9707
48.9989
48.9876
48.8343
48.8494
48.8614
48.9345
48.8644
48.849
48.9195
48.9435
48.8631
48.8761
48.9651
48.867
48.9978
48.8459
48.8861
48.8579
48.831
48.8443
48.9003
48.8738
48.8919
48.9143
48.8874
48.9496
48.9464
48.9359
48.9316
48.9788
48.8186
48.854
48.8327
48.8184
48.8243
48.8715
48.874
48.8603
48.8669
48.9782
48.8952
48.9417
48.999
49.0008
48.9459
48.9717
48.9408
48.9687
48.8002
48.7753
48.781
48.8335
48.8082
48.8068
48.9571
48.934
48.9506
48.9758
48.9548
48.7663
48.7069
48.7967
48.801
48.7441
48.952
48.948
48.9851
48.9738
48.9639
48.8143
48.8506
48.9203
48.8102
48.8034
48.8551
48.986
48.8315
48.8084
48.983
48.9918
49.0099
48.9629
48.9915
49.0093
49.0228
49.0032
48.8689
48.8871
48.8494
48.919
48.8852
48.8656
48.9316
48.9884
48.8842
48.9331
49.0103
48.9136
49.0293
48.9181
48.9433
48.9312
48.9077
48.9266
48.9584
48.9348
48.9568
48.974
48.9646
48.9806
48.9857
48.9764
48.9984
49.0073
48.8884
48.9243
48.9062
48.8973
48.9015
48.9328
48.9316
48.9286
48.9313
49.0115
48.9844
48.9928
49.0012
49.0094
49.0151
49.0061
48.9928
49.0121
48.8675
48.8465
48.8421
48.908
48.8951
48.8907
48.993
48.9531
48.9841
49.0096
48.9746
48.851
48.796
48.9014
48.8992
48.8522
48.9927
48.9851
49.0183
49.0091
49.0039
48.9304
48.9921
49.0259
48.8543
48.8277
48.9155
49.0047
48.8905
48.8664
49.0092
49.0243
49.0414
49.0283
49.0317
49.0409
49.063
49.041
48.9159
48.9442
48.8899
48.9496
48.9246
48.9198
48.9656
49.0317
48.9475
48.9962
49.0597
48.9811
49.0716
48.9659
48.9878
48.9773
48.9563
48.9783
48.9961
48.9747
48.9945
48.9978
48.9899
49.0062
49.0177
49.0181
49.0176
49.0321
48.9599
48.9927
48.9535
48.9563
48.9599
48.98
48.975
48.9799
48.9873
49.0144
49.035
49.0148
49.0135
49.023
49.0504
49.0297
49.0299
49.0454
48.9513
48.9486
48.9387
48.9894
48.9895
48.9736
49.0256
49.0011
49.0171
49.0428
49.0211
48.9587
48.931
49.0151
49.035
49.0639
49.0287
49.0247
49.0553
49.0461
49.0474
49.0608
49.2976
48.913
48.9366
48.8763
48.9799
48.8146
49.0059
48.8491
49.052
49.0598
49.0809
49.0975
49.0691
49.0809
49.0903
49.0752
48.9518
48.9493
48.947
48.9752
48.9547
48.9694
48.9851
49.0908
49.0073
49.0569
49.1268
49.0356
49.1292
49.0088
49.0269
49.009
48.9917
49.0064
49.0157
49.0071
49.013
49.0405
49.0511
49.0413
49.0564
49.0753
49.0533
49.0726
49.0216
49.0445
48.9962
49.0016
49.0125
49.0208
49.0151
49.0222
49.0353
49.0375
49.0622
49.0441
49.0449
49.0546
49.0707
49.0593
49.0578
49.0715
49.0243
49.0276
49.0103
49.0515
49.0676
49.0544
49.0604
49.0402
49.0508
49.0742
49.0572
49.077
49.178
49.077
49.0686
49.1537
49.0618
49.0699
49.0824
49.0751
49.0908
49.4159
49.302
48.8352
49.1052
48.8698
49.105
49.0233
49.2399
48.9988
49.0843
49.0995
49.0989
49.1424
49.0993
49.1187
49.1095
49.1045
48.9722
49.0539
48.9875
49.0002
49.0377
49.0018
49.0209
49.158
49.0632
49.1113
49.182
49.0934
49.1762
49.0408
49.0537
49.0242
49.0214
49.0168
49.0395
49.0353
49.0243
49.0659
49.0886
49.0667
49.0725
49.0966
49.0868
49.1006
49.0625
49.0777
49.0292
49.0371
49.0545
49.0467
49.0407
49.0453
49.0659
49.0739
49.0809
49.0758
49.0762
49.0911
49.0907
49.0914
49.0858
49.1003
49.0685
49.1002
49.0841
49.0799
49.1286
49.1141
49.0876
49.073
49.0817
49.1005
49.0916
49.0736
49.1061
49.1258
49.1015
49.0949
49.0865
49.1079
49.1017
49.0972
49.1224
49.2293
49.3315
49.2986
49.4463
49.2181
49.5681
49.4612
49.5757
49.3863
49.115
49.1521
49.1232
49.1807
49.1267
49.1951
49.139
49.1293
49.1771
49.2733
49.0216
49.0425
49.0422
49.0369
49.0529
49.206
49.1246
49.1702
49.2261
49.1502
49.2255
49.0665
49.0761
49.0567
49.0474
49.0333
49.0699
49.0572
49.0434
49.0804
49.1046
49.0882
49.0882
49.1121
49.1142
49.1243
49.0892
49.0872
49.0539
49.0539
49.0724
49.0689
49.0618
49.0623
49.0744
49.1079
49.1034
49.1075
49.1031
49.1228
49.1157
49.1213
49.115
49.1295
49.0839
49.1615
49.1401
49.0892
49.2108
49.1798
49.1128
49.1051
49.1111
49.1254
49.1061
49.1287
49.1155
49.1488
49.1308
49.1252
49.1077
49.1353
49.1201
49.1167
49.1441
49.3559
49.3106
49.3875
49.575
49.4215
49.42
49.2444
49.4877
49.379
49.139
49.2311
49.1548
49.2007
49.145
49.2415
49.1703
49.1406
49.2921
49.247
49.0268
49.0299
48.9295
48.9865
48.9893
49.2387
49.1607
49.1787
49.2405
49.1571
49.2417
49.0823
49.0861
49.0793
49.0647
49.054
49.0879
49.0721
49.064
49.0973
49.1182
49.1095
49.107
49.1256
49.1309
49.1444
49.0656
49.0148
49.0608
49.0609
49.0671
49.0616
49.0578
49.0366
49.0525
49.1369
49.128
49.1356
49.1276
49.1493
49.1375
49.1493
49.1443
49.1584
49.069
49.1944
49.1885
49.002
49.108
49.1111
49.1373
49.1237
49.1398
49.1487
49.1413
49.1487
49.0866
49.0963
49.1276
49.0686
49.1272
49.1492
49.1406
49.1391
49.1543
49.2149
49.1378
49.0915
49.3876
49.2888
49.1665
48.9688
49.303
49.2232
49.1509
49.23
49.1829
49.1548
49.1624
49.2033
49.19
49.1579
49.1598
49.0789
48.9458
48.9578
48.8865
48.9261
48.9491
49.2444
49.1741
49.1844
49.2437
49.1718
49.2257
49.0874
49.0869
49.0987
49.0791
49.0734
49.1095
49.0865
49.0828