/*--------------------------------*- C++ -*----------------------------------*\
| =========                 |                                                 |
| \\      /  F ield         | OpenFOAM: The Open Source CFD Toolbox           |
|  \\    /   O peration     | Version:  5.x                                   |
|   \\  /    A nd           | Web:      www.OpenFOAM.org                      |
|    \\/     M anipulation  |                                                 |
\*---------------------------------------------------------------------------*/
FoamFile
{
    version     2.0;
    format      ascii;
    class       surfaceScalarField;
    location    "6";
    object      phi;
}
// * * * * * * * * * * * * * * * * * * * * * * * * * * * * * * * * * * * * * //

dimensions      [0 3 -1 0 0 0 0];

internalField   nonuniform List<scalar> 
29271
(
-1.53777e-05
1.56798e-06
1.67702e-06
1.20896e-05
-1.18636e-05
2.91191e-06
9.37772e-07
7.90325e-06
-4.61976e-05
-1.06122e-05
-8.79607e-06
-9.49419e-07
2.33148e-05
4.32404e-05
-3.4462e-05
-9.2207e-06
5.07818e-06
-3.85561e-07
2.08255e-05
1.81646e-05
-2.90606e-05
-2.72902e-06
4.01453e-07
1.02644e-05
2.01417e-05
9.82019e-07
-5.34209e-05
-8.23017e-06
-1.30446e-05
2.70653e-05
1.155e-05
3.60804e-05
-3.90874e-05
-1.30951e-05
-2.29742e-05
1.38769e-05
1.00607e-06
6.02736e-05
-5.06052e-05
-2.10078e-05
-9.69755e-06
3.25751e-06
8.91604e-06
6.9137e-05
-5.94103e-05
-2.32894e-05
6.03527e-06
-1.61055e-05
1.44003e-05
7.83697e-05
-3.02509e-05
1.35462e-06
-4.12037e-06
2.26282e-05
1.03292e-05
-1.1273e-05
-4.45644e-06
1.40451e-06
1.43359e-05
-4.88831e-05
-5.5435e-06
1.0053e-06
1.00934e-05
-1.15756e-05
5.49036e-05
-5.38664e-05
9.53693e-06
-8.72759e-06
1.797e-05
-1.56481e-05
5.07351e-05
-6.24058e-05
2.27524e-06
-1.64147e-05
3.75825e-06
-1.24628e-05
8.52499e-05
-5.42688e-05
1.64706e-06
8.62691e-06
-8.18583e-06
-1.51318e-05
6.73125e-05
-4.59124e-05
1.88693e-06
-2.68086e-06
-4.70445e-06
3.83865e-05
1.30244e-05
-2.80692e-05
5.15057e-07
2.18973e-06
-1.26445e-06
1.84688e-05
8.15997e-06
-3.60492e-05
-4.84163e-06
1.25018e-05
6.56639e-06
-7.66789e-06
2.94906e-05
-4.28191e-05
1.91425e-05
-6.78227e-06
6.07547e-06
-1.35182e-05
3.79016e-05
-5.43145e-05
1.14296e-06
-3.10132e-05
5.84868e-05
2.75689e-05
-1.87098e-06
-1.01082e-05
6.57583e-06
-4.25346e-06
7.74359e-06
-3.53185e-05
-9.60856e-07
4.38405e-06
2.70863e-05
4.84984e-06
-3.73323e-05
-7.79059e-06
1.97908e-05
-7.84841e-06
2.22093e-05
1.09711e-05
-1.43667e-05
1.77812e-05
-1.29601e-05
9.54534e-06
-7.34233e-06
9.41957e-07
1.47089e-06
4.56577e-06
-7.13401e-06
-5.21971e-07
2.9636e-06
4.83354e-06
5.09924e-06
-2.23529e-07
-3.11077e-05
1.09661e-06
4.29628e-06
2.08391e-05
3.14136e-07
-1.02388e-05
-2.85724e-06
4.69621e-06
1.15438e-07
7.9703e-06
-3.00997e-05
-6.01887e-06
1.13401e-06
6.04365e-07
4.16667e-05
-7.28648e-06
1.67961e-07
-1.22369e-06
-1.90288e-05
5.1138e-06
-1.44762e-06
1.64184e-05
3.52169e-05
7.48014e-05
0.000347691
-8.24744e-05
-9.22791e-05
-7.64457e-05
-9.31121e-05
-2.30688e-05
-1.78156e-05
-7.66521e-06
-5.80837e-06
-1.42534e-05
-2.86988e-05
-5.96367e-06
-1.01243e-05
-2.07455e-05
5.37212e-05
0.000396714
-9.23644e-05
-8.93612e-05
-9.52622e-05
-9.38731e-05
-1.21191e-05
-6.77272e-06
-2.48602e-06
-2.23376e-06
-3.75023e-07
9.44532e-06
0.000211162
3.08775e-06
5.93561e-06
6.13264e-06
9.45781e-06
-8.26565e-07
4.70967e-06
5.91445e-07
-7.73379e-05
-3.10447e-05
-7.98239e-05
-8.18594e-05
-1.84938e-05
2.60925e-06
-2.42777e-06
1.8009e-05
-1.23423e-05
1.66433e-08
3.3033e-06
9.15892e-06
-6.11153e-06
-4.51969e-05
-2.19268e-06
1.48821e-05
9.66526e-06
2.89537e-05
-2.74341e-05
5.39538e-05
0.000318962
-5.69333e-05
-6.78038e-05
-3.319e-05
-5.27653e-05
-3.04881e-05
-1.26316e-05
-1.13636e-05
-5.50464e-06
-8.74151e-05
4.22618e-05
0.000471414
-0.000101871
-0.000107549
-8.93459e-05
-0.000101207
-7.7553e-06
1.57175e-06
0.00021083
-9.31783e-06
-4.73946e-06
-5.46536e-06
1.1897e-06
1.63125e-05
2.98379e-06
-7.17357e-05
-8.88554e-05
-6.45181e-05
-5.84706e-05
-2.86752e-05
1.30795e-06
3.2076e-07
1.71575e-06
1.75754e-05
-2.48907e-05
-2.77922e-06
2.58308e-06
3.9817e-06
3.26915e-05
-1.15864e-05
-3.04022e-05
-1.57874e-07
0.000220534
-1.76727e-06
2.48598e-07
-2.18883e-07
-1.59442e-06
2.34629e-07
8.74154e-07
1.12783e-06
-3.22088e-05
-3.50686e-05
-3.41001e-05
-3.35475e-05
-6.29745e-06
1.80659e-06
0.000143108
-1.07889e-06
-3.54154e-06
4.39034e-07
1.5113e-06
6.92562e-06
6.81438e-06
-3.51673e-05
-4.95859e-05
-2.59203e-05
-2.71541e-05
-5.4958e-05
-6.82693e-06
2.91688e-07
5.67676e-05
-7.30777e-06
-1.57546e-08
1.98455e-06
5.41764e-06
-2.08667e-05
1.21973e-06
9.41494e-08
1.94634e-05
-1.86524e-05
6.6529e-07
5.75331e-07
3.77168e-07
1.88412e-05
-7.93573e-06
2.57565e-07
-6.8927e-07
8.38289e-06
-3.29677e-06
1.04669e-07
8.62599e-07
2.22862e-06
-3.01821e-06
6.98571e-08
1.15598e-06
1.82851e-06
-4.43184e-08
1.09314e-06
-1.57614e-05
1.21676e-06
-1.12465e-06
1.46205e-05
1.13815e-06
-9.89777e-06
-1.31399e-06
8.77604e-08
-4.28983e-06
1.42757e-05
-4.42372e-05
-3.58845e-07
-2.87754e-06
6.91958e-06
3.3876e-05
6.67792e-06
-6.53301e-06
1.45408e-06
-2.06661e-05
-2.2135e-06
4.62379e-06
2.33347e-05
1.95846e-06
9.16248e-05
0.000251065
-2.94809e-06
-3.25233e-06
-1.44758e-06
-1.08521e-06
8.40424e-07
-1.43652e-06
9.12034e-06
3.25173e-06
-2.38075e-06
4.54416e-05
0.00034361
1.28396e-06
1.5716e-06
3.78534e-06
5.36053e-06
-1.0596e-06
7.68436e-06
0.000208953
-2.09998e-06
-2.99079e-06
1.19114e-06
-1.4909e-06
-1.15724e-06
-7.60169e-07
5.11363e-07
-2.30353e-05
-5.90225e-06
8.32749e-06
1.95873e-05
-7.45846e-06
-2.50035e-06
3.06227e-06
6.93977e-06
5.49701e-06
-2.13893e-05
-3.0455e-06
-2.01191e-06
6.98643e-06
1.39633e-05
-0.000102704
0.000128079
0.000326289
4.68905e-06
1.28413e-05
1.0179e-05
3.12142e-05
-2.77608e-05
0.000110718
0.000331194
-1.66647e-06
2.67578e-05
0.000130554
-1.82987e-06
-1.07948e-06
-9.33976e-07
5.34475e-06
2.27929e-05
1.08147e-05
-1.01861e-05
1.04388e-06
-2.67351e-07
5.5324e-07
7.18991e-06
-3.7052e-05
-4.44583e-06
2.43956e-06
9.76139e-06
3.7531e-05
-8.23412e-06
-1.64605e-05
1.38568e-05
0.000282407
3.27757e-06
8.51828e-07
1.01913e-05
3.32324e-06
1.39907e-05
1.80927e-05
1.90826e-05
-4.96684e-06
1.3861e-05
0.000185697
5.64842e-07
9.39777e-08
1.66874e-06
1.30376e-05
1.31314e-05
1.42777e-05
-6.46371e-05
-2.22269e-06
3.15451e-05
5.71057e-05
-4.19986e-06
-2.28179e-06
3.02348e-06
3.44877e-06
-2.08016e-05
-6.73901e-06
6.72108e-06
3.46709e-05
-2.32349e-05
-1.10191e-06
-5.70286e-06
2.46628e-06
4.14343e-05
-1.07321e-05
-1.42019e-05
6.40172e-06
1.8523e-05
-1.26886e-06
-2.76528e-07
9.50118e-07
5.96862e-07
-8.26962e-07
-4.11559e-07
1.00764e-06
8.96773e-08
-3.34138e-06
-3.72613e-07
-1.70252e-05
1.24387e-06
-6.88926e-07
2.01843e-05
-2.33479e-06
-2.4628e-05
1.88325e-06
-1.22633e-05
-5.67961e-06
4.30225e-05
-2.19622e-05
-7.20414e-09
-4.19832e-07
-1.88733e-08
1.31207e-05
9.28743e-06
-5.38753e-06
2.27588e-06
-2.29195e-05
-1.03376e-05
9.99502e-06
2.63737e-05
-3.65105e-05
4.79676e-05
0.000148361
2.08873e-06
1.52177e-06
3.97366e-06
3.82315e-06
1.84419e-05
1.45923e-05
2.28313e-05
2.39736e-05
2.41702e-05
2.3087e-05
0.000199281
7.82564e-06
1.53063e-05
2.09888e-05
1.6441e-05
-1.80018e-07
2.35955e-05
0.000207545
-2.28612e-06
-7.83295e-07
1.89096e-06
4.05072e-07
-1.57663e-07
1.02889e-06
2.06495e-06
-1.34725e-05
-1.95147e-07
3.17464e-06
1.03333e-05
-7.38806e-06
-2.67542e-06
2.56829e-06
7.50062e-06
-2.40917e-06
-1.31166e-05
-7.03718e-06
-1.55216e-06
5.75009e-06
1.8365e-05
-3.57164e-05
9.07487e-05
0.000249017
1.12884e-05
2.16086e-05
1.77317e-05
1.95784e-05
3.51544e-06
9.20414e-05
0.000223008
-1.10683e-07
1.46092e-05
9.68859e-05
2.14165e-07
5.37121e-07
4.59503e-07
1.18227e-05
1.97579e-05
1.34887e-05
-7.21593e-06
-3.66551e-06
-5.5339e-07
1.67446e-06
9.64969e-06
-4.33817e-05
-3.61672e-06
-2.54355e-06
8.92963e-06
5.06481e-05
-1.00358e-05
-3.42835e-06
1.4412e-05
0.000300057
5.79741e-06
-1.68483e-06
9.03785e-06
1.84133e-07
1.4605e-05
1.61077e-05
1.80678e-05
-2.89457e-06
1.19378e-05
0.000234736
-8.56581e-07
-1.26384e-06
-3.67013e-06
1.3125e-05
1.17805e-05
1.14155e-05
-5.40493e-05
-1.28766e-06
1.59961e-05
5.10555e-05
-2.62842e-06
-2.39728e-06
3.31139e-06
1.61636e-06
-4.84269e-05
-4.37909e-06
7.82518e-06
5.93825e-05
-6.01724e-05
-1.62254e-06
-6.31655e-06
2.93225e-06
7.71171e-05
-2.6328e-05
-9.46457e-06
5.96381e-06
2.98202e-05
-9.49615e-07
5.87301e-07
-1.49782e-06
1.85383e-06
-2.17749e-08
-1.20431e-06
8.4348e-07
2.44089e-07
3.76114e-09
-2.309e-07
-2.5294e-05
3.83048e-08
4.28052e-07
2.50548e-05
4.11717e-06
-6.35889e-05
8.87043e-06
-1.07473e-05
-8.96422e-06
7.03128e-05
-1.14919e-05
-1.26461e-06
2.45874e-06
-1.0841e-06
1.19112e-05
-5.29333e-07
-5.30868e-06
6.06836e-06
-3.71235e-05
-2.102e-05
1.83667e-05
3.90171e-05
-3.09684e-06
2.19443e-05
0.000114449
-1.57744e-06
-3.0919e-06
-5.03859e-07
-6.85321e-07
8.36209e-06
8.58133e-06
1.18464e-06
2.79528e-06
4.36453e-06
2.71029e-05
0.000161897
1.26719e-06
1.10015e-06
1.77751e-07
2.73909e-07
1.14664e-06
1.54646e-05
0.000170268
1.73203e-06
1.78541e-06
7.19282e-06
6.01492e-06
2.23358e-06
2.63613e-06
3.43555e-06
-8.38894e-06
1.43992e-06
1.26975e-06
6.74923e-06
-6.70973e-06
-2.38026e-06
2.8463e-06
6.2622e-06
6.34931e-07
-3.12288e-05
-1.63817e-05
-7.20337e-06
1.08685e-05
4.33104e-05
7.85885e-08
5.93295e-05
0.00019472
3.57016e-06
6.76175e-06
1.41316e-06
5.08843e-06
-2.27659e-06
5.22743e-05
0.000200192
-3.33233e-07
1.29323e-05
6.69694e-05
2.4842e-07
5.01312e-07
1.75024e-06
8.17489e-06
1.19699e-05
7.86068e-06
-1.28526e-05
-4.9244e-06
8.01786e-07
3.77311e-06
1.28688e-05
-6.02992e-05
-4.28831e-06
1.35552e-06
7.94348e-06
6.69658e-05
-1.16772e-05
3.65644e-06
1.15997e-05
0.000313129
1.45501e-06
-5.02748e-06
1.84278e-06
-4.62622e-06
1.26524e-05
1.17357e-05
1.29691e-05
-2.72031e-06
6.38122e-06
0.000269615
-3.44895e-06
1.47719e-06
-1.37555e-06
6.86002e-06
6.88451e-06
6.99394e-06
-5.73334e-05
-2.36758e-07
1.05232e-05
5.72589e-05
-1.44935e-06
-1.80344e-06
-2.13324e-07
3.3437e-06
-7.00579e-05
-3.67883e-06
6.42332e-06
7.89073e-05
-9.24317e-05
-1.85277e-06
-2.23329e-06
-1.84583e-07
0.000103084
-3.07787e-05
-2.56145e-06
1.32889e-06
3.20197e-05
-1.74392e-06
-1.50766e-07
1.12761e-06
8.43012e-07
-5.68985e-07
-8.07726e-07
1.41452e-07
1.2019e-06
-1.24753e-06
1.54268e-06
-2.20124e-05
-3.25215e-07
3.46361e-06
1.85788e-05
-1.17358e-05
-6.62953e-05
-1.44335e-06
8.155e-06
1.61822e-05
5.51373e-05
-1.73644e-05
-3.31706e-06
4.99454e-06
3.5612e-06
2.20536e-05
-9.92788e-06
5.33643e-07
1.17924e-06
-2.9421e-05
1.47252e-06
5.53654e-06
2.0699e-05
2.87522e-06
6.15841e-06
0.000143843
-5.69683e-07
-1.63332e-06
-7.32069e-06
-1.40094e-05
-1.33289e-06
-1.91763e-06
-5.1316e-06
-6.51249e-06
-2.86024e-06
1.07223e-05
0.000209921
-6.0607e-06
-1.34608e-05
-1.63426e-05
-1.71464e-05
3.24038e-06
7.5052e-06
0.000150383
4.93273e-07
7.38463e-07
5.89335e-07
-1.9495e-06
1.87368e-06
3.07521e-06
1.45864e-06
-7.94962e-06
-6.25581e-07
2.31777e-06
-5.75419e-06
1.5252e-05
-2.79262e-08
-6.38166e-09
7.62283e-09
2.12171e-08
-4.51011e-06
-7.79916e-07
2.01835e-06
3.26007e-06
-3.23556e-06
-4.85784e-05
-1.29288e-05
8.00263e-06
1.20646e-05
4.46756e-05
4.8556e-06
2.63634e-05
0.000189096
-4.63782e-06
-2.79945e-06
-6.87942e-06
-5.11988e-06
8.52796e-06
2.33894e-05
0.000183852
1.48533e-06
7.5962e-06
6.36184e-05
2.5881e-07
7.39973e-08
-2.15648e-06
5.09617e-06
5.22909e-06
1.80107e-06
-1.00197e-05
-1.1824e-06
1.00828e-06
5.2191e-06
6.46005e-06
-1.20596e-09
-6.68049e-08
-1.3233e-08
-4.81128e-08
1.11392e-07
-7.31535e-05
-3.5315e-06
2.90515e-06
8.34894e-06
7.68946e-05
-1.14637e-05
6.51515e-06
6.88769e-06
0.000320248
-3.47405e-06
-5.2401e-06
-1.6299e-06
-4.77236e-06
7.39781e-06
6.34019e-06
7.21922e-06
7.50517e-07
2.06839e-06
0.000284311
-9.89329e-07
4.33632e-06
3.28807e-08
3.03709e-06
2.50313e-06
3.46945e-06
-5.81043e-05
3.67185e-06
7.25944e-06
5.55197e-05
-1.14661e-05
-1.79781e-06
-3.65829e-06
1.69213e-05
-8.80661e-05
-3.70891e-06
5.67053e-06
9.29904e-05
-0.000112952
-2.55716e-06
1.50899e-06
-1.7603e-06
0.000117829
-3.4267e-05
-4.80834e-07
-1.87512e-06
3.66233e-05
-7.93185e-07
-4.63743e-07
5.62876e-07
7.96805e-07
-1.83008e-06
-3.58294e-07
8.3863e-07
1.33474e-06
-8.77697e-07
8.27252e-07
-1.11886e-05
-5.08518e-07
4.66749e-06
7.08006e-06
-6.186e-06
-4.08085e-05
-3.95188e-06
4.59963e-06
1.44548e-05
3.1892e-05
-2.58553e-05
-1.29842e-06
2.84865e-06
-9.01279e-07
2.88507e-05
-3.6444e-06
-1.27572e-07
2.29162e-07
-1.48126e-05
6.98427e-07
6.90081e-07
1.33225e-05
-5.80307e-06
8.96325e-06
0.000161684
-4.77036e-06
-1.45793e-05
9.69588e-07
-9.12642e-06
-6.27428e-07
-2.56522e-06
5.73946e-06
3.95852e-06
1.368e-05
1.65423e-05
0.000213029
-1.40426e-05
-1.40618e-05
-5.40842e-06
-5.6207e-06
3.42305e-06
2.11363e-06
0.00015187
-2.57047e-07
-1.39273e-06
1.53252e-06
-8.11127e-07
2.02175e-06
3.62252e-06
1.94042e-06
-2.13904e-05
6.82681e-08
4.94214e-06
3.03008e-07
1.95e-05
2.58859e-08
2.12071e-06
-1.99768e-06
4.30871e-07
-3.41215e-06
2.83237e-06
-4.37426e-06
-7.20369e-07
-4.97029e-07
5.5943e-06
-6.24496e-07
-3.64359e-05
-1.85046e-06
4.0038e-06
2.42137e-06
3.24857e-05
7.54767e-06
2.07081e-05
0.000185944
-7.15794e-06
-5.56932e-06
-1.64704e-06
-1.76615e-06
2.04264e-05
1.64402e-05
0.000171075
-8.58509e-07
3.24108e-06
7.80443e-05
-5.64362e-07
-2.40307e-07
3.30325e-07
1.35681e-06
3.47844e-06
1.3707e-06
-7.49455e-06
1.7051e-06
-2.62111e-06
-1.99716e-06
9.54921e-06
2.14919e-07
5.58045e-06
1.99666e-06
-2.69157e-06
-6.31306e-06
1.2126e-06
-7.75145e-05
-4.62218e-07
1.55708e-06
6.34787e-06
7.51366e-05
-5.06484e-06
7.83632e-06
4.82851e-06
0.00032581
-4.13266e-06
-4.63631e-06
-5.8065e-07
-3.73234e-06
5.30037e-06
4.71857e-06
5.5448e-06
2.60859e-06
3.93433e-07
0.000294903
-1.82694e-07
5.25843e-06
4.47138e-07
2.004e-06
1.00223e-06
2.15381e-06
-5.56485e-05
4.69443e-06
3.09463e-06
5.37091e-05
-1.92214e-05
-3.42447e-06
-6.59605e-06
3.43248e-06
2.58097e-05
5.65496e-06
1.92977e-06
-2.67514e-06
-4.90959e-06
-9.70008e-05
-2.68691e-06
4.82575e-06
9.96904e-05
-0.000123307
-3.06224e-06
2.95348e-06
-2.76349e-06
0.000126573
-3.87793e-05
1.07483e-06
-2.80078e-06
4.05053e-05
-5.38369e-07
-6.87908e-07
1.60152e-06
-3.82525e-07
-3.49604e-07
1.24721e-06
-1.85923e-06
9.6136e-07
-2.55489e-06
-2.47929e-06
-8.26307e-06
2.38129e-06
7.91007e-07
1.0125e-05
-3.68358e-06
-2.59282e-05
-2.21602e-06
4.8957e-06
5.78227e-06
2.11498e-05
-2.93025e-05
2.70046e-06
2.35643e-06
-2.33967e-06
2.85384e-05
-1.95318e-06
2.98013e-06
8.89541e-07
-1.51655e-05
-3.83967e-06
-2.06851e-06
1.7204e-05
-5.77648e-06
7.81939e-06
0.000146249
1.19936e-06
-7.22976e-06
1.77101e-06
-3.48487e-06
5.96711e-06
3.67921e-06
6.5516e-06
4.93844e-06
1.85495e-05
1.26637e-05
0.000188397
-5.45897e-06
-4.1989e-06
-2.20217e-06
-4.97164e-07
4.84484e-06
1.59289e-06
0.000149692
7.95026e-07
-2.1499e-07
2.09661e-06
3.52328e-07
2.83374e-06
4.94351e-06
3.48313e-06
-2.13939e-05
-1.46746e-06
3.2589e-06
6.83219e-07
2.37641e-05
-5.35182e-06
-9.43493e-07
-2.49281e-06
1.41181e-06
7.31513e-07
6.64479e-06
-5.65544e-06
-6.80037e-08
-4.28507e-07
6.14768e-06
9.99768e-07
-3.05968e-05
-9.51995e-07
5.71566e-07
2.2881e-06
2.76894e-05
4.48182e-06
1.71358e-05
0.00017257
-1.10731e-06
-1.1489e-06
1.07e-06
7.6203e-07
1.77017e-05
1.02541e-05
0.000160265
-1.30934e-06
1.29611e-06
9.16307e-05
-2.19352e-07
-8.92799e-07
2.94291e-06
9.51591e-07
1.87184e-06
1.06723e-06
-1.17998e-05
3.64132e-07
-2.10795e-06
-1.92999e-06
1.41642e-05
-3.12789e-06
4.2256e-07
5.1429e-07
-4.91197e-07
-8.01454e-07
3.48369e-06
-7.4226e-05
6.25808e-08
-6.40265e-08
2.49685e-06
7.47892e-05
-3.05863e-06
6.53327e-06
4.00558e-06
0.000324017
-1.2197e-06
-2.77369e-06
1.06781e-06
-2.11115e-06
4.48175e-06
4.05811e-06
4.88633e-06
2.99295e-06
-5.67583e-07
0.000302286
-1.46355e-08
4.50231e-06
1.16417e-07
1.15492e-06
-4.1815e-08
1.26147e-06
-5.47897e-05
4.50319e-06
1.50945e-06
5.30662e-05
-2.98106e-05
2.3495e-06
-6.49736e-06
4.4745e-06
2.94839e-05
6.25812e-06
6.62968e-07
-5.67629e-07
-2.01047e-06
-4.34299e-06
-0.000101812
-1.2506e-06
3.81614e-06
0.000103252
-0.00013045
-3.02874e-06
3.26184e-06
-2.68592e-06
0.000132335
-4.1973e-05
1.86222e-06
-2.74018e-06
4.28517e-05
5.35499e-07
-3.7373e-07
4.68297e-07
-6.33507e-07
-1.60363e-06
1.91427e-06
-2.91456e-06
2.60547e-06
-3.51409e-07
-2.66562e-06
-1.14654e-05
2.83081e-06
-4.49247e-07
1.21009e-05
-1.37912e-06
-1.85025e-05
-2.55964e-06
2.89026e-06
2.63009e-06
1.69209e-05
-2.86327e-05
7.09107e-07
1.02197e-06
-1.43976e-06
2.92603e-05
-9.18836e-07
3.58582e-06
7.54057e-07
-1.90651e-05
-4.14241e-06
-1.63268e-06
2.05003e-05
-5.18605e-06
5.92971e-06
0.000129313
1.20608e-06
-2.61709e-06
1.29278e-06
-1.73639e-06
5.31393e-06
3.75902e-06
4.6081e-06
4.36627e-06
1.31834e-05
7.83133e-06
0.000165518
-2.13208e-06
-8.45065e-07
-9.07305e-07
5.63071e-07
4.1631e-06
3.29908e-07
0.000150261
1.10811e-06
1.02419e-06
1.99485e-06
1.68914e-07
1.95692e-06
7.37389e-07
1.13123e-06
-3.22367e-05
1.28798e-06
4.30169e-06
5.80086e-07
3.023e-05
-8.87155e-06
-4.90582e-06
4.75126e-06
4.05924e-06
4.96687e-06
-6.85116e-06
-8.08096e-08
-5.13607e-07
7.44461e-06
9.38702e-08
-2.61188e-05
-1.10781e-06
-3.55797e-07
2.06777e-06
2.54207e-05
2.07516e-06
1.34194e-05
0.000159781
3.94337e-07
-2.24583e-07
1.58132e-06
1.47286e-06
1.06524e-05
6.07842e-06
0.000153441
-2.7464e-06
5.43056e-07
0.000105146
9.12329e-07
-2.39267e-06
-1.53861e-06
1.27122e-06
1.31169e-06
1.05988e-07
-1.68442e-05
8.71674e-08
-1.96586e-06
-2.18835e-06
1.81649e-05
-2.71608e-06
-5.11877e-06
-2.09668e-07
9.439e-07
4.80934e-06
2.29128e-06
-7.59721e-05
3.10843e-07
-7.36469e-07
6.978e-07
7.74645e-05
-1.7646e-06
5.09583e-06
3.57179e-06
0.000318405
-2.52641e-07
-1.93278e-06
1.77312e-06
-1.51124e-06
4.05414e-06
3.6754e-06
4.55853e-06
1.8625e-06
-1.35962e-06
0.000310899
-6.02347e-07
3.24459e-06
-5.28306e-07
4.38458e-07
-9.21505e-07
4.27917e-07
-5.46556e-05
2.67082e-06
4.58689e-07
5.39316e-05
-2.46167e-05
-4.71973e-07
-4.15195e-06
2.92406e-05
-0.000104474
-1.2418e-07
2.95109e-06
0.000105219
-0.000134969
-3.15902e-06
3.41699e-06
-2.70736e-06
0.000136059
-4.33607e-05
1.7844e-06
-2.41993e-06
4.39963e-05
1.29233e-06
-2.16637e-07
1.94449e-06
-3.01842e-06
-3.8916e-06
1.40247e-06
-2.49559e-06
4.98523e-06
2.77576e-07
-1.59829e-06
-1.26534e-05
1.52542e-06
-7.27975e-07
1.31767e-05
-3.8887e-06
-1.59816e-05
-6.81327e-07
-1.64964e-07
3.05985e-06
1.76567e-05
-2.99238e-05
2.20444e-07
-9.29737e-08
-9.79022e-07
3.00957e-05
6.79626e-07
2.99547e-06
1.65285e-07
-2.12343e-05
-2.51405e-06
-1.18285e-06
2.17704e-05
-4.58354e-06
2.47324e-06
0.000117617
1.29613e-06
-1.84392e-06
1.11484e-06
-7.05129e-07
3.82625e-06
3.27356e-06
3.24208e-06
3.60235e-06
8.27319e-06
2.68599e-06
0.000151001
-1.51165e-06
-2.99925e-07
-3.58901e-07
1.14392e-06
-1.41451e-06
-5.82914e-07
0.000159717
9.14759e-07
3.87439e-07
2.4086e-06
1.00926e-06
-2.08282e-06
-2.03092e-07
-1.61966e-06
-2.95793e-05
-2.86444e-06
8.15765e-07
3.02135e-05
-7.66809e-06
-1.81442e-07
1.07669e-07
7.74187e-06
1.44341e-07
-2.57186e-05
-8.52519e-07
-1.19231e-06
1.24361e-06
2.63755e-05
1.73538e-06
1.11625e-05
0.000145245
8.44198e-07
8.07994e-08
1.66764e-06
1.51866e-06
5.98957e-06
1.14098e-06
0.000150732
-4.36507e-06
-1.23849e-07
0.000120821
-2.4409e-06
-4.01487e-06
-1.20102e-06
-2.79373e-09
1.24406e-06
6.36788e-07
-2.76397e-05
-5.02383e-07
-4.54696e-06
-1.00942e-06
2.93334e-05
-7.9024e-05
1.34342e-06
-1.7524e-06
-5.44135e-07
8.06131e-05
-6.36015e-07
4.78427e-06
3.39544e-06
0.000310444
1.25813e-07
-1.69656e-06
1.92783e-06
-1.24505e-06
3.922e-06
3.49281e-06
4.4169e-06
7.6e-07
-1.90833e-06
0.000319685
-1.2931e-06
2.69704e-06
-1.21418e-06
-1.77611e-07
-1.43406e-06
-2.91337e-07
-5.60524e-05
1.33476e-06
3.87877e-07
5.49659e-05
-2.94954e-05
5.85306e-06
-1.81903e-06
2.54614e-05
-0.000105834
8.11385e-07
2.25428e-06
0.000106164
-0.000137834
-3.32282e-06
3.54666e-06
-2.73717e-06
0.000138439
-4.48301e-05
1.30054e-06
-2.16258e-06
4.56922e-05
4.76108e-06
1.08049e-06
-2.40809e-07
-5.60077e-06
-5.99701e-06
1.01476e-06
-2.08492e-06
7.06692e-06
3.28499e-07
-5.22847e-07
-1.39802e-05
9.29301e-08
-6.94341e-07
1.4776e-05
-1.65049e-06
-1.99068e-05
9.16756e-07
-2.16502e-06
1.73099e-06
2.10746e-05
-3.06686e-05
5.26832e-08
-2.38151e-07
-1.54322e-06
3.13396e-05
1.05766e-06
2.27107e-06
-2.83041e-07
-2.24762e-05
-1.47203e-06
-1.22805e-06
2.31883e-05
-3.26244e-06
2.92966e-06
0.000107219
9.97462e-07
-1.27424e-06
1.13176e-06
-5.51918e-08
2.5072e-06
2.44256e-06
2.19329e-06
2.78828e-06
8.88593e-06
-1.53887e-06
0.000138155
-6.04852e-07
4.86856e-08
1.23976e-06
1.55348e-06
5.38187e-07
-1.09582e-06
0.000162047
1.36982e-06
1.13229e-06
2.60468e-06
1.24778e-06
-3.02883e-07
8.50623e-07
2.11219e-07
-3.02485e-05
-1.05659e-06
1.56482e-06
3.02785e-05
-7.59028e-06
-1.54253e-08
3.16763e-07
7.28871e-06
2.63175e-08
-2.73144e-05
-1.50342e-07
-1.15767e-06
6.01137e-08
2.8536e-05
1.22077e-06
9.6474e-06
0.000132085
7.20707e-07
7.54736e-07
1.47476e-06
2.27111e-06
4.63213e-06
-3.82159e-06
0.000149603
-2.83665e-06
-5.20061e-07
0.000128261
-3.85913e-07
-2.27175e-06
-1.64588e-07
6.98463e-07
8.0585e-07
7.7011e-07
-2.89582e-05
-6.39816e-07
-7.51538e-07
-1.73445e-06
2.92473e-05
-8.20585e-05
2.12812e-06
-2.26487e-06
-1.26451e-06
8.2999e-05
4.60767e-07
6.00053e-06
3.28478e-06
0.000299937
1.69526e-07
-1.46208e-06
1.90413e-06
-1.12858e-06
3.74287e-06
3.36606e-06
4.27669e-06
3.79685e-07
-2.1949e-06
0.000327809
-1.63541e-06
2.43014e-06
-1.48229e-06
-8.00516e-07
-1.72085e-06
-9.2035e-07
-5.68127e-05
1.41695e-06
3.74473e-08
5.52179e-05
-2.52895e-05
2.93455e-06
-3.01091e-06
2.53659e-05
-0.00010647
1.31434e-06
1.90326e-06
0.000106537
-0.000139761
-3.39264e-06
3.37804e-06
-2.64758e-06
0.000140228
-4.65536e-05
1.32763e-06
-1.9174e-06
4.71433e-05
5.90489e-06
1.52809e-06
-2.04634e-06
-5.38663e-06
-7.91698e-06
8.84883e-07
-1.719e-06
8.75061e-06
7.93566e-07
-3.91708e-07
-1.5706e-05
-2.52297e-07
-1.24572e-06
1.68022e-05
6.24618e-07
-2.22611e-05
1.4017e-06
-2.07507e-06
-9.46398e-07
2.32563e-05
-3.18803e-05
2.00432e-06
-1.26513e-06
-2.41439e-06
3.21041e-05
1.45144e-06
1.90878e-06
-2.58362e-07
-2.37928e-05
-5.47958e-07
-1.60841e-06
2.42987e-05
-1.64109e-06
3.8403e-06
9.71025e-05
1.12146e-06
-4.47514e-07
1.2379e-06
5.11096e-07
1.41263e-06
1.50382e-06
1.01216e-06
1.56532e-06
7.72574e-06
-3.37399e-06
0.000126177
1.22611e-06
3.66281e-07
2.80519e-06
1.58775e-06
6.83715e-07
-1.15461e-06
0.000162833
1.5356e-06
1.28864e-06
2.65438e-06
1.34773e-06
-1.8458e-07
7.70039e-07
-8.03989e-10
-3.05086e-05
-1.01502e-06
1.70859e-06
3.04988e-05
-7.04425e-06
2.1194e-07
-7.22595e-09
6.8398e-06
-3.19976e-07
-2.99966e-05
7.70037e-07
-7.96436e-07
-9.05042e-07
3.1248e-05
-6.4374e-07
8.64365e-06
0.000122807
5.78758e-07
1.32428e-06
1.06228e-06
2.15346e-06
2.58126e-06
-7.88578e-06
0.00015089
-2.32877e-06
-1.01026e-06
0.000133701
-7.30309e-08
-2.12224e-06
-1.88713e-07
6.82319e-07
4.25062e-07
6.03057e-07
-3.00816e-05
-6.19154e-07
-4.47928e-07
-1.77323e-06
3.05932e-05
-8.36792e-05
2.54052e-06
-2.46732e-06
-1.46603e-06
8.38787e-05
1.19339e-06
5.55988e-06
3.19536e-06
0.000289134
1.37348e-07
-1.36324e-06
1.83872e-06
-1.02987e-06
3.69323e-06
3.26297e-06
4.15224e-06
-1.08861e-08
-2.47684e-06
0.000334524
-2.01723e-06
2.16821e-06
-1.91369e-06
-1.31959e-06
-2.03336e-06
-1.43774e-06
-5.70192e-05
1.00518e-06
-3.9917e-07
5.53921e-05
-2.53523e-05
2.63372e-06
-2.52313e-06
2.52417e-05
-0.000106562
1.54605e-06
1.74547e-06
0.000106466
-0.000141331
-3.42001e-06
3.20741e-06
-2.59828e-06
0.000141665
-4.75739e-05
1.19005e-06
-1.4714e-06
4.78552e-05
4.58043e-06
1.39712e-06
-2.18729e-06
-3.79026e-06
-9.30336e-06
9.9708e-07
-1.3776e-06
9.68388e-06
1.26863e-06
-1.75012e-07
-1.78107e-05
-6.7604e-07
-1.30799e-06
1.87011e-05
1.57937e-06
-2.39197e-05
1.74356e-06
-1.1439e-06
-1.94109e-06
2.36818e-05
-3.2043e-05
3.49069e-06
-1.85053e-06
-2.66455e-06
3.17724e-05
1.29506e-06
1.65921e-06
-3.81672e-07
-2.47618e-05
1.39799e-07
-2.05096e-06
2.53954e-05
-2.43037e-06
5.3234e-06
9.0239e-05
7.70995e-07
-1.55909e-07
6.44946e-07
5.64612e-07
6.27985e-07
6.28195e-07
1.89952e-07
6.99705e-07
5.19876e-06
-3.69432e-06
0.000116883
1.8011e-06
-4.44437e-09
2.57423e-06
9.87914e-07
6.43203e-07
2.28587e-07
0.000161635
1.26211e-06
1.08322e-06
2.13444e-06
9.20065e-07
-3.82393e-07
6.78584e-07
-1.71436e-07
-3.05266e-05
-1.10163e-06
1.86619e-06
3.04052e-05
-6.76301e-06
7.10748e-07
-8.18183e-07
6.87063e-06
-4.61693e-08
-3.21496e-05
1.59286e-06
-4.62999e-07
-1.53783e-06
3.26037e-05
-3.06229e-06
7.83794e-06
0.000119623
2.50646e-07
1.05791e-06
7.84525e-07
1.63866e-06
7.32239e-07
-1.11923e-05
0.000154593
-2.07461e-06
-1.24383e-06
0.000138616
-3.10114e-08
-1.81458e-06
-8.10411e-08
5.38044e-07
2.73436e-07
4.78789e-07
-3.11362e-05
-6.22498e-07
-4.698e-07
-1.4941e-06
3.1648e-05
-8.38912e-05
2.72099e-06
-2.59923e-06
-1.46977e-06
8.36457e-05
1.59351e-06
4.97287e-06
3.04734e-06
0.000280155
-7.87771e-08
-1.44308e-06
1.28284e-06
-1.20801e-06
3.41008e-06
3.05026e-06
3.78375e-06
-1.79227e-07
-2.77293e-06
0.00033981
-2.46787e-06
2.10743e-06
-2.29886e-06
-1.81418e-06
-2.24226e-06
-1.83791e-06
-5.71367e-05
9.75982e-07
-6.40394e-07
5.53781e-05
-2.50892e-05
2.15531e-06
-1.98699e-06
2.49208e-05
-0.000106384
1.60943e-06
1.63908e-06
0.000106183
-0.000142608
-3.28378e-06
2.9574e-06
-2.56655e-06
0.000142728
-4.80736e-05
9.78681e-07
-1.03748e-06
4.81324e-05
2.89045e-06
9.4964e-07
-1.73252e-06
-2.10757e-06
-1.00759e-05
9.02358e-07
-1.35269e-06
1.05263e-05
1.46563e-06
1.22991e-07
-1.9666e-05
-1.77318e-06
-1.08689e-06
2.09374e-05
8.42316e-07
-2.22843e-05
2.67324e-06
4.16165e-07
-9.30534e-07
1.92831e-05
-3.15328e-05
3.86976e-06
-1.22652e-06
-2.18734e-06
3.13953e-05
-3.18416e-07
1.47694e-06
-4.87493e-07
-2.59957e-05
6.06483e-07
-2.24115e-06
2.6641e-05
-3.08579e-06
6.1116e-06
8.69857e-05
3.58354e-07
-3.08085e-07
8.85883e-08
1.8277e-07
-3.95095e-09
-6.68599e-09
-2.68239e-07
1.8474e-07
3.07937e-06
-4.37273e-06
0.000112023
1.07543e-06
7.30468e-08
8.91296e-07
1.02804e-06
5.20628e-07
1.8167e-06
0.00016008
5.91694e-07
5.54036e-07
1.13142e-06
2.96936e-07
-4.78678e-07
5.023e-07
-3.00744e-07
-3.03356e-05
-1.3702e-06
2.05592e-06
3.01705e-05
-7.08418e-06
9.1727e-07
-1.26648e-06
7.43339e-06
1.16468e-07
-3.2868e-05
2.07467e-06
-1.99751e-07
-2.11864e-06
3.29953e-05
-5.2661e-06
6.71672e-06
0.000121777
1.39918e-07
5.30684e-07
6.58728e-07
1.17734e-06
-9.77554e-07
-1.3698e-05
0.00015963
-1.58169e-06
-1.37065e-06
0.000142577
1.22625e-07
-1.36452e-06
7.95895e-08
4.2381e-07
1.59268e-07
4.10326e-07
-3.22003e-05
-5.1791e-07
-1.82602e-07
-1.46332e-06
3.27824e-05
-8.30263e-05
3.22024e-06
-2.54255e-06
-1.50765e-06
8.16999e-05
2.15637e-06
5.71519e-06
2.79985e-06
0.000272989
-9.75779e-07
-1.78281e-06
7.33127e-07
-1.61742e-06
3.01659e-06
2.68864e-06
3.30528e-06
-9.06291e-08
-2.88176e-06
0.000344035
-2.68353e-06
2.25046e-06
-2.48888e-06
-2.06132e-06
-2.28601e-06
-1.9662e-06
-5.69402e-05
1.26138e-06
-7.8936e-07
5.50069e-05
-2.47571e-05
1.81864e-06
-1.70807e-06
2.46465e-05
-0.000105968
1.64866e-06
1.48664e-06
0.000105632
-0.00014342
-2.98774e-06
2.61536e-06
-2.39539e-06
0.000143306
-4.81329e-05
6.9841e-07
-6.1263e-07
4.80471e-05
1.50944e-06
3.46431e-07
-9.14062e-07
-9.41805e-07
-1.10541e-05
8.20871e-07
-1.40566e-06
1.16388e-05
1.34584e-06
2.68817e-07
-2.21035e-05
-2.05252e-06
-6.86507e-07
2.32279e-05
-2.20585e-07
-1.54931e-05
2.18486e-06
1.19296e-06
6.35229e-07
1.17006e-05
-3.12656e-05
3.09017e-06
-5.63341e-07
-1.57849e-06
3.12511e-05
-9.33883e-07
1.15805e-06
-2.87488e-07
-2.71593e-05
7.13468e-07
-2.04275e-06
2.76181e-05
-3.29534e-06
5.16231e-06
8.76298e-05
-3.09632e-09
-7.2289e-07
-1.75913e-07
-1.95835e-07
-3.48835e-07
-5.49925e-07
-3.76355e-07
-1.38234e-07
2.25445e-06
-5.26264e-06
0.000112211
-9.68579e-07
1.77543e-07
-6.7782e-07
9.9353e-07
4.1345e-07
2.25935e-06
0.000159299
-5.87517e-08
8.92175e-08
5.86866e-07
-7.92021e-08
-3.74432e-07
3.7408e-07
-1.75525e-07
-3.01227e-05
-1.49609e-06
2.02092e-06
3.00113e-05
-7.77873e-06
1.33941e-06
-1.72874e-06
8.16807e-06
-1.42379e-08
-3.30126e-05
2.14748e-06
3.73987e-07
-2.32763e-06
3.2833e-05
-7.85739e-06
5.33433e-06
0.000127944
6.95319e-08
1.15108e-07
7.99155e-07
5.34573e-07
-2.5257e-06
-1.48428e-05
0.000163879
-1.32925e-06
-1.48721e-06
0.000144995
2.02342e-07
-1.12507e-06
1.32526e-07
3.58317e-07
1.03091e-07
4.6069e-07
-3.35142e-05
-4.27067e-07
-2.40432e-07
-1.29563e-06
3.4148e-05
-8.02666e-05
3.4819e-06
-2.80937e-06
-1.40917e-06
7.86806e-05
2.32267e-06
4.77159e-06
2.49413e-06
0.000268379
-1.1779e-06
-1.97112e-06
-2.43482e-07
-1.80812e-06
2.65976e-06
2.32709e-06
2.89228e-06
-1.9782e-08
-2.84745e-06
0.00034686
-2.98494e-06
2.18064e-06
-2.82044e-06
-2.13239e-06
-2.26616e-06
-2.00507e-06
-5.63552e-05
1.61576e-06
-7.56998e-07
5.39895e-05
-2.46067e-05
1.51636e-06
-1.56182e-06
2.46521e-05
-0.000105229
1.6711e-06
1.27501e-06
0.000104777
-0.000143822
-2.6772e-06
2.21407e-06
-2.15138e-06
0.000143589
-4.79787e-05
3.66559e-07
-2.5786e-07
4.787e-05
4.42458e-07
-9.50978e-08
-4.54723e-07
1.07362e-07
-1.21206e-05
1.08395e-06
-1.50315e-06
1.25398e-05
1.23823e-06
-1.21134e-07
-2.42979e-05
-1.60234e-06
-5.71089e-07
2.53543e-05
-1.31164e-06
-8.79462e-06
1.66929e-06
1.27939e-07
1.05483e-06
7.2542e-06
-3.11997e-05
2.53575e-06
-9.42126e-07
-1.37907e-06
3.09763e-05
8.87074e-09
1.13879e-06
-3.55536e-07
-2.8027e-05
7.0324e-07
-1.96142e-06
2.85019e-05
-3.39771e-06
3.7289e-06
9.03649e-05
-2.0283e-07
-9.18557e-07
-2.54389e-07
-2.32894e-07
-4.20245e-07
-6.91155e-07
-3.17467e-07
-2.87104e-08
2.01914e-06
-6.48204e-06
0.000111855
-1.27901e-06
7.47532e-07
1.19098e-07
1.83391e-06
3.64486e-07
2.0449e-06
0.000158445
-2.31985e-07
-2.68736e-08
5.77846e-07
1.12755e-09
-1.77202e-07
3.29091e-07
-7.73585e-09
-2.98948e-05
-1.46925e-06
1.93134e-06
2.97972e-05
-8.56146e-06
1.80017e-06
-2.21281e-06
8.97409e-06
-9.55589e-07
-3.26161e-05
2.28099e-06
1.23583e-06
-2.22768e-06
3.22826e-05
-1.05405e-05
3.95113e-06
0.000136693
3.76418e-07
-4.88218e-07
1.67709e-06
3.9574e-09
-3.50936e-06
-1.5068e-05
0.000165433
-1.15004e-06
-1.41863e-06
0.000145944
4.84175e-08
-9.15827e-07
-1.09711e-07
4.23166e-07
1.44926e-07
5.63757e-07
-3.48402e-05
-3.2094e-07
-2.14259e-07
-1.07004e-06
3.52954e-05
-7.74368e-05
2.0398e-06
-1.23059e-06
-1.48995e-06
7.62237e-05
1.89384e-06
3.32389e-06
2.22315e-06
0.000267452
-2.26083e-06
-1.9025e-06
-1.97006e-06
-1.76132e-06
2.44812e-06
2.06224e-06
2.71519e-06
-3.42869e-08
-2.70537e-06
0.000348207
-3.30036e-06
1.96043e-06
-3.04692e-06
-2.00868e-06
-2.16341e-06