/*--------------------------------*- C++ -*----------------------------------*\
| =========                 |                                                 |
| \\      /  F ield         | OpenFOAM: The Open Source CFD Toolbox           |
|  \\    /   O peration     | Version:  5.x                                   |
|   \\  /    A nd           | Web:      www.OpenFOAM.org                      |
|    \\/     M anipulation  |                                                 |
\*---------------------------------------------------------------------------*/
FoamFile
{
    version     2.0;
    format      ascii;
    class       volVectorField;
    location    "6";
    object      U;
}
// * * * * * * * * * * * * * * * * * * * * * * * * * * * * * * * * * * * * * //

dimensions      [0 1 -1 0 0 0 0];

internalField   nonuniform List<vector> 
10571
(
(-0.248477 0.491135 4.31691)
(0.116807 0.0445537 1.03359)
(0.359051 0.67464 3.56167)
(-0.0299796 0.561496 2.32415)
(0.0270325 0.286324 1.12233)
(1.26557 1.07573 2.82967)
(1.05734 0.332703 3.11599)
(0.493554 1.41608 2.96967)
(-0.713608 2.08431 3.49766)
(-0.309844 -0.287945 2.08854)
(0.235599 0.522995 1.83598)
(0.46318 -0.741965 2.44268)
(0.838865 -1.29015 3.35854)
(0.909726 -0.566131 4.40946)
(-0.391397 -0.575186 3.44873)
(-0.353655 -0.167828 2.55822)
(0.020707 -0.227009 1.28857)
(0.486738 -0.694805 2.21055)
(0.63687 -1.17512 2.18851)
(0.216743 -1.90719 3.71412)
(0.149018 -0.442196 0.990733)
(0.0303681 -0.0284019 2.67092)
(0.741596 -0.586664 1.97874)
(1.00601 -0.66175 1.71117)
(-0.149611 0.109866 1.23707)
(-0.072415 0.228987 0.80019)
(0.0182865 -0.484023 1.63539)
(0.319512 -0.270328 0.736917)
(0.430845 0.304056 2.14858)
(0.151567 -0.17954 1.09201)
(1.0347 1.37978 4.07492)
(0.00711477 0.719119 3.71416)
(-0.201674 -0.313508 2.34072)
(-0.034289 -0.259096 0.993992)
(0.165362 0.0901698 2.03125)
(0.613987 0.736866 1.91588)
(0.845437 1.39912 3.53968)
(-1.59193 1.42954 6.42075)
(-0.904853 0.573241 3.41727)
(-0.352341 -0.0944079 1.50586)
(0.282182 0.934989 1.59121)
(-0.407142 0.477026 3.82532)
(-0.390332 0.512307 2.60971)
(-0.73508 0.104833 2.80174)
(-0.166396 0.00784975 1.05165)
(-0.0498193 -0.116983 1.12556)
(-0.0257411 0.00205369 1.09874)
(0.107914 -0.033829 0.888662)
(-0.00615241 0.0707034 0.729648)
(0.0113919 0.0580284 0.342975)
(0.00527972 -0.0808247 1.18442)
(0.17045 -0.370534 0.902999)
(-0.637642 0.374451 1.945)
(-0.227307 0.745397 1.62908)
(0.128235 0.914147 3.5456)
(-0.0445393 -0.130484 5.25002)
(-0.063163 -0.0174061 2.46782)
(-0.198952 0.90386 1.83243)
(0.184192 0.567155 2.13614)
(-0.362452 0.35229 1.38859)
(-1.7077 2.42505 4.88341)
(-1.32646 2.25178 5.6309)
(-0.0925017 0.575898 2.06723)
(-0.137595 -0.0685083 0.613721)
(0.329468 0.86678 1.43609)
(-0.610405 1.84757 3.13989)
(-0.17527 1.13943 1.6236)
(-0.413583 2.4889 3.72197)
(-0.253503 0.359518 0.647925)
(0.512865 0.617915 1.58014)
(-0.0682732 0.872135 1.82338)
(-0.529078 0.621214 1.86277)
(0.00394021 0.00811862 0.228885)
(-0.0574466 0.0452078 0.0720472)
(0.0923629 0.194598 1.24107)
(-0.472705 -0.20853 1.96074)
(-0.132934 -0.0289157 0.919826)
(-0.398317 0.760909 1.3303)
(-1.07679 0.144063 3.1689)
(-0.00975104 -0.237999 3.69104)
(0.440817 0.357562 3.36192)
(-0.199415 0.0556929 0.844187)
(0.0545769 0.432239 1.12563)
(0.145685 0.351303 0.784834)
(-1.19504 1.44026 2.8811)
(-0.174404 0.923688 1.84656)
(0.218631 0.634549 1.60772)
(-0.110016 0.20209 0.545822)
(0.205602 0.757002 1.92829)
(-0.121567 1.68461 2.88961)
(-0.119902 1.9671 2.86656)
(-0.0560983 1.25506 2.31267)
(-0.130497 0.404612 0.389084)
(0.376756 0.862544 2.60408)
(0.0645223 0.632341 2.55006)
(-0.337383 0.407412 2.71851)
(-0.10532 -0.0774877 0.265107)
(-0.0934561 0.0603704 0.0267746)
(0.208866 0.0204443 1.39559)
(-1.00755 -0.797986 3.04703)
(0.301766 0.0264458 0.470138)
(-1.22274 0.965007 2.12726)
(-0.105618 0.101871 0.63612)
(-0.0431538 0.0652834 0.959615)
(0.17043 0.0576874 1.78432)
(0.0128699 -0.107139 0.526654)
(0.0451079 0.375076 1.00215)
(-0.470707 0.943666 1.82072)
(-0.0149006 0.816987 2.30159)
(-0.0365504 0.853635 2.92871)
(-0.0311157 0.429211 0.94125)
(-0.0642951 0.537808 0.82737)
(0.470461 0.764685 2.67782)
(0.208759 1.31991 3.45148)
(-0.0479223 1.24519 2.83908)
(-0.116284 1.22535 2.66296)
(0.0208895 0.243119 0.183822)
(0.325068 0.704441 3.69853)
(0.132803 0.18618 3.92285)
(-0.0682781 -0.0110329 3.05642)
(0.021004 -0.0262702 0.268645)
(-0.0824834 0.0306827 0.0801543)
(-0.177849 0.360126 1.02042)
(0.286913 1.17453 2.85541)
(0.701489 0.615412 0.976221)
(-0.0296941 -0.0755466 1.28723)
(0.221775 0.125142 2.14186)
(-0.141108 0.226461 3.11304)
(0.00912412 0.118227 2.19605)
(0.194169 -0.225219 0.894723)
(-0.00830216 0.0038726 -0.00278023)
(0.0227877 0.184308 0.678602)
(0.275376 0.973853 2.36516)
(0.0882832 0.14312 2.4187)
(0.113387 0.209141 2.30749)
(0.0789918 0.108147 1.04292)
(0.107697 0.211652 0.369868)
(-0.00306792 -0.00140754 -0.00234635)
(0.464652 0.806265 3.04233)
(0.352098 0.624743 3.5616)
(-0.0294399 0.547316 2.91)
(0.154808 0.89012 2.54421)
(0.189502 0.083551 1.02324)
(0.324082 0.509267 4.56554)
(0.233023 -0.00814596 4.6228)
(0.208669 -0.0527309 3.37942)
(0.107469 0.0185869 0.153397)
(-0.00404855 0.0668805 0.283915)
(-0.0938493 0.104196 0.55368)
(0.481086 0.772645 2.07121)
(0.254374 0.0969977 1.26387)
(-0.0538945 -0.0269745 0.87314)
(-0.209794 0.0631017 1.46453)
(0.0495292 0.19098 2.06238)
(0.283982 0.193998 1.86049)
(0.282445 0.133573 0.897655)
(0.0547602 -0.0980304 -0.0200745)
(-0.0682888 0.10866 1.06714)
(0.0568265 0.128298 1.84381)
(0.0675013 0.179439 1.83533)
(0.226488 0.267655 1.65885)
(0.3875 -0.110412 0.688686)
(-0.242907 -0.167179 0.34683)
(-0.218365 -0.392638 -0.0139035)
(0.174654 0.497617 2.99892)
(0.36744 0.452022 3.51765)
(-0.013583 0.354445 3.01265)
(0.325457 0.432974 2.45588)
(0.399421 0.0386444 1.58763)
(-0.466902 -0.192482 -0.42477)
(0.261129 0.344155 5.03243)
(0.315042 -0.0988183 4.99581)
(0.286748 -0.0882434 3.65118)
(0.135298 0.0495682 -0.10854)
(0.0701241 -0.0926407 0.0640656)
(0.26638 0.198745 0.484203)
(0.364674 0.348199 0.987438)
(0.0544225 -0.0686085 1.1267)
(-0.172314 -0.274122 0.676151)
(-0.289289 0.0199316 1.55264)
(0.120961 0.123979 1.94759)
(0.420811 0.158974 1.62814)
(0.27588 0.169412 1.21151)
(0.0356982 0.0407362 0.240082)
(-0.0411994 0.0573873 0.811368)
(-0.0799792 0.12641 1.22272)
(-0.0858874 0.206187 1.82145)
(0.219756 0.230733 1.72812)
(0.377007 -0.118876 0.90791)
(-0.320286 0.0173845 0.620739)
(-0.159149 -0.104617 0.119357)
(0.0528656 0.251717 3.00209)
(0.262754 0.366301 3.4753)
(0.0095172 0.185716 3.18679)
(0.380488 0.271556 2.39918)
(0.451782 -0.0296297 1.79114)
(-0.189547 -0.110798 -0.399943)
(0.169586 0.282314 5.23395)
(0.334107 -0.107429 5.21311)
(0.317798 -0.0938587 3.86117)
(0.097418 0.0381919 -0.11058)
(0.111351 -0.149557 0.132207)
(0.280834 0.0386994 0.530782)
(0.283878 0.220795 0.795457)
(0.0459997 -0.0217283 1.14902)
(-0.193114 -0.24789 0.879902)
(-0.238525 0.014733 1.42188)
(0.073831 0.0648907 1.85738)
(0.374853 0.137669 1.64035)
(0.188324 0.148114 1.34808)
(0.441943 0.19803 0.329292)
(-0.0477132 0.0135043 1.05685)
(-0.0303237 0.157461 1.16595)
(-0.133547 0.166669 1.73853)
(0.206403 0.172963 1.66787)
(0.184658 -0.130612 1.11402)
(-0.374155 -0.0114149 0.841336)
(-0.123592 0.210396 -0.0177866)
(0.0367264 0.122299 3.01811)
(0.197318 0.291309 3.41876)
(0.00415711 0.0655725 3.27441)
(0.320837 0.204552 2.41122)
(0.307383 -0.149621 1.97355)
(0.0800764 0.266184 5.30876)
(0.364109 -0.116198 5.35076)
(0.280273 -0.087669 4.01258)
(0.0423393 0.0605024 -0.271736)
(0.0875909 -0.118101 0.310529)
(0.199638 -0.0250135 0.582402)
(0.0683585 0.270877 0.731851)
(0.00920776 0.0729234 1.18287)
(-0.102643 -0.184256 0.922606)
(-0.199984 -0.06043 1.27543)
(0.051645 0.003317 1.64343)
(0.286525 0.0981569 1.67588)
(-0.0510887 0.0986339 1.47214)
(-0.0071346 -0.00985632 1.10816)
(-0.0712952 0.126851 1.15543)
(-0.108835 0.134871 1.56992)
(0.177807 0.0774086 1.53238)
(0.0916165 -0.123384 1.23584)
(-0.42813 0.0449586 1.04462)
(-0.0294272 0.0536915 3.11208)
(0.203369 0.228736 3.3516)
(-0.0131968 -0.0237404 3.35325)
(0.247084 0.157112 2.42538)
(0.292319 -0.166142 2.25206)
(0.0181189 0.269561 5.35857)
(0.388153 -0.118775 5.45022)
(0.252104 -0.0622391 4.13745)
(-0.142859 0.0249759 -0.769963)
(0.0735313 -0.105213 0.475955)
(0.0628711 -0.0186542 0.614845)
(-0.119025 0.218963 0.903223)
(0.0215052 0.0183393 1.19853)
(-0.0128076 -0.147722 1.01003)
(-0.140354 -0.04768 1.14301)
(0.0393264 -0.0341459 1.46062)
(0.268717 0.0719063 1.71395)
(-0.0380788 0.122205 1.53507)
(0.00754387 -0.0302374 1.05596)
(-0.0673229 0.0651602 1.22838)
(-0.069695 0.13705 1.37324)
(0.112251 -0.0308586 1.50718)
(0.0783849 -0.117665 1.32738)
(-0.274089 0.00861197 1.17312)
(-0.0855069 0.0013744 3.23582)
(0.225487 0.173374 3.22216)
(-0.00630482 -0.0842831 3.43224)
(0.177724 0.0900941 2.42294)
(0.253278 -0.187345 2.28435)
(-0.0207812 0.278967 5.37515)
(0.388696 -0.113769 5.51514)
(0.242356 -0.0667564 4.27111)
(-0.237447 -0.048546 -0.816154)
(0.0472725 -0.105458 0.597533)
(0.0272849 -0.0708359 0.727004)
(-0.163367 0.0459531 1.02251)
(-0.0510114 -0.100267 1.26986)
(0.0449882 -0.144656 1.05633)
(-0.0668026 -0.0234983 0.972919)
(0.0202398 -0.0314721 1.31227)
(0.224294 0.0511267 1.72756)
(-0.0299984 0.131159 1.5409)
(-0.00615274 -0.0503605 0.996841)
(-0.0281613 -0.0131409 1.34542)
(-0.0538108 0.152182 1.2587)
(0.0281089 -0.102372 1.51382)
(0.0694749 -0.0978714 1.38933)
(-0.249539 0.00439504 1.18208)
(-0.123634 -0.0231351 3.28886)
(0.220128 0.124368 3.08681)
(-0.0155764 -0.145724 3.51298)
(0.126642 0.0318757 2.43267)
(0.202335 -0.165949 2.30359)
(-0.0394241 0.288888 5.37448)
(0.38968 -0.113276 5.57118)
(0.199004 -0.0633518 4.37023)
(-0.212666 -0.05519 -0.602378)
(0.0605465 -0.0926572 0.687007)
(-0.0017103 -0.0847559 0.809274)
(-0.140865 -0.0541597 1.05519)
(-0.143885 -0.162421 1.25965)
(0.0650709 -0.150226 1.10873)
(-0.0516394 0.0230765 0.948337)
(-0.0205695 0.00765226 1.20722)
(0.176757 0.0762943 1.71801)
(-0.0153468 0.150071 1.53484)
(-0.0238104 -0.125966 0.967446)
(-0.0203522 -0.0670242 1.42936)
(-0.0596469 0.169123 1.2099)
(-0.0572773 -0.151363 1.54437)
(0.0796011 -0.0666257 1.44211)
(-0.233906 0.00339083 1.22791)
(-0.150925 -0.0246944 3.2834)
(0.244586 0.0759769 2.98755)
(-0.0475827 -0.204057 3.56651)
(0.119151 -0.00578752 2.43809)
(0.15903 -0.135125 2.28238)
(-0.0482531 0.296968 5.35846)
(0.386066 -0.113536 5.61441)
(0.155521 -0.0510569 4.39053)
(-0.184066 -0.0467449 -0.358296)
(0.0618446 -0.0954322 0.751297)
(-0.0354743 -0.0831571 0.885138)
(-0.124334 0.0011605 0.939339)
(-0.124704 -0.153268 1.22817)
(0.0677916 -0.145944 1.16153)
(-0.0493976 0.0490496 0.879064)
(-0.0457757 0.0190214 1.13975)
(0.13344 0.107408 1.69462)
(-0.011234 0.176146 1.52604)
(-0.0326225 -0.162876 1.03388)
(-0.00645102 -0.107723 1.4557)
(-0.0749976 0.17492 1.20623)
(-0.121922 -0.185095 1.59748)
(0.0842336 -0.03397 1.49157)
(-0.188362 -0.01935 1.28355)
(-0.182786 -0.0407879 3.22869)
(0.298059 0.0287576 2.91353)
(-0.0633187 -0.251064 3.60159)
(0.133858 -0.0334248 2.42508)
(0.125996 -0.111716 2.25385)
(-0.0490343 0.294256 5.33018)
(0.369741 -0.102185 5.63941)
(0.114066 -0.0365489 4.38251)
(-0.113183 -0.0440126 -0.175142)
(0.0585789 -0.109663 0.825867)
(-0.048141 -0.0724394 0.991176)
(-0.0264714 0.0109676 0.574083)
(-0.0324722 -0.114384 1.21735)
(0.0525069 -0.119205 1.2032)
(-0.0498232 0.0400194 0.864004)
(-0.0533497 -0.00825204 1.12167)
(0.115194 0.106836 1.68406)
(-0.0151615 0.182605 1.51653)
(-0.0445056 -0.205148 1.14118)
(0.0393581 -0.118936 1.44992)
(-0.125021 0.150995 1.24791)
(-0.162943 -0.187769 1.64382)
(0.0748015 -0.0157923 1.52585)
(-0.159447 -0.0224032 1.33543)
(-0.232734 -0.0438503 3.11329)
(0.301114 0.0066385 2.85104)
(-0.10058 -0.287939 3.64317)
(0.157769 -0.0494031 2.39205)
(0.103139 -0.0917027 2.24525)
(-0.0474127 0.27566 5.28778)
(0.345892 -0.0846307 5.65124)
(0.0818535 -0.0176968 4.37094)
(-0.0457853 -0.0442652 -0.0266942)
(0.0735464 -0.114415 0.900035)
(-0.0144606 -0.0727351 1.08941)
(-0.04108 0.0557471 0.331495)
(-0.0588177 -0.108281 1.223)
(0.0418746 -0.110157 1.24014)
(-0.0489944 0.0338821 0.881764)
(-0.0584147 -0.0564234 1.12558)
(0.114231 0.0825288 1.6801)
(-0.019788 0.177151 1.50592)
(-0.057761 -0.283098 1.25735)
(0.144609 -0.155585 1.42754)
(-0.20428 0.106 1.33894)
(-0.177755 -0.183177 1.67027)
(0.0573789 -0.000837533 1.54148)
(-0.132914 -0.0311134 1.38341)
(-0.204971 -0.0495924 3.01951)
(0.276938 0.0110852 2.82112)
(-0.138104 -0.300872 3.66864)
(0.172471 -0.0467514 2.31142)
(0.0856078 -0.0714352 2.26677)
(-0.0445634 0.241492 5.25006)
(0.31434 -0.0677173 5.66062)
(0.0571012 0.00333276 4.35962)
(0.00809509 -0.0464512 0.141442)
(0.0871545 -0.133688 0.963946)
(-0.0397307 -0.0680068 1.16475)
(-0.14714 0.084387 0.324451)
(-0.101585 -0.102464 1.17946)
(0.0484473 -0.133072 1.28653)
(-0.0160248 0.0414088 0.909593)
(-0.06201 -0.0973799 1.11173)
(0.111333 0.0306004 1.66012)
(-0.0186791 0.157464 1.50124)
(-0.048739 -0.304718 1.34204)
(0.202128 -0.21571 1.44195)
(-0.176098 0.0635104 1.40747)
(-0.177423 -0.185945 1.68061)
(0.0513909 0.017378 1.53936)
(-0.105325 -0.0286474 1.41423)
(0.0899075 -0.110612 2.91677)
(0.295531 0.00813705 2.82881)
(-0.152451 -0.304484 3.67218)
(0.168013 -0.0481026 2.1971)
(0.0664718 -0.0440471 2.31437)
(-0.0422753 0.212217 5.21403)
(0.269739 -0.053991 5.67928)
(0.031642 0.014596 4.34923)
(0.0865093 -0.0377065 0.333872)
(0.0961208 -0.145272 1.02963)
(-0.0397082 -0.0843119 1.18683)
(-0.219651 0.069099 0.45407)
(-0.0965895 -0.0955642 1.13807)
(0.0441056 -0.133382 1.35417)
(0.0472946 0.0191286 0.971334)
(-0.0545515 -0.133922 1.10747)
(0.103785 -0.0171393 1.62959)
(-0.0112362 0.13004 1.50808)
(-0.0168215 -0.228464 1.41922)
(0.129926 -0.320736 1.53445)
(-0.086287 0.0320723 1.53298)
(-0.18288 -0.188505 1.69224)
(0.0568809 0.0357312 1.53984)
(-0.080088 -0.0107081 1.43608)
(0.161149 -0.359236 2.5181)
(0.398944 0.00945624 2.89726)
(-0.174112 -0.31335 3.67929)
(0.144998 -0.0865814 2.07413)
(0.0535757 -0.00960821 2.37478)
(-0.0190326 0.186896 5.1928)
(0.211959 -0.0466764 5.69875)
(-0.00336367 0.0235974 4.32596)
(0.197352 -0.0238151 0.533861)
(0.133192 -0.191231 1.13687)
(-0.0223369 -0.096116 1.17312)
(-0.258362 0.0482721 0.583634)
(-0.0813989 -0.0921416 1.11417)
(0.0645702 -0.210516 1.39963)
(0.0442795 -0.0162433 1.06524)
(-0.0284123 -0.149518 1.12697)
(0.0931331 -0.0404114 1.58918)
(0.00235727 0.115771 1.51994)
(0.0250901 -0.182776 1.38351)
(0.0990867 -0.343413 1.4924)
(-0.0678112 0.031913 1.7346)
(-0.196042 -0.19763 1.71507)
(0.0680933 0.048987 1.53806)
(-0.0648633 0.016256 1.46316)
(0.104648 -0.189388 1.50614)
(0.444664 0.00959696 3.09276)
(-0.237602 -0.326907 3.70274)
(0.120866 -0.092244 1.94629)
(0.0529756 0.023899 2.47422)
(0.0277402 0.161843 5.23301)
(0.136075 -0.0437271 5.71367)
(-0.0571626 0.0442391 4.2623)
(0.263868 -0.0178376 0.719416)
(0.147803 -0.200647 1.25488)
(0.0286362 -0.109409 1.18533)
(-0.244319 0.0372657 0.680652)
(-0.0788839 -0.0901602 1.11138)
(0.125085 -0.276054 1.42978)
(0.035208 -0.0658505 1.12956)
(0.00712933 -0.160039 1.15021)
(0.0891622 -0.043303 1.55042)
(0.0163305 0.120613 1.52669)
(0.052216 0.0459536 1.27553)
(-0.0663667 -0.114387 1.34776)
(-0.099111 0.0215168 1.88652)
(-0.19771 -0.207434 1.72407)
(0.0961009 0.0536693 1.52995)
(-0.057604 0.0452887 1.4941)
(0.140993 -0.0188284 0.956232)
(0.374999 -0.0553325 3.31897)
(-0.350079 -0.358697 3.69375)
(0.063198 -0.0386842 1.82892)
(0.01623 0.0507151 2.56139)
(0.0673718 0.12889 5.3019)
(0.0354487 -0.0384713 5.71855)
(-0.123782 0.069241 4.1581)
(0.302236 -0.0105648 0.873291)
(0.134037 -0.199491 1.42445)
(0.0420184 -0.14133 1.22503)
(-0.187062 0.0114818 0.786482)
(-0.0981172 -0.0792604 1.10118)
(0.145081 -0.218918 1.47092)
(0.0199068 -0.12828 1.18996)
(0.00772609 -0.184513 1.19241)
(0.085965 -0.0452901 1.53451)
(0.0282558 0.134779 1.53047)
(0.0122312 0.0264741 1.09261)
(0.220154 0.113752 1.12258)
(-0.184185 -0.00251616 1.98886)
(-0.172167 -0.228401 1.72037)
(0.130146 0.0511279 1.5243)
(-0.0574739 0.0635883 1.53327)
(0.257726 0.237917 0.928096)
(0.3034 -0.141492 3.52256)
(-0.41043 -0.442646 3.64874)
(0.0137397 -0.00862352 1.74885)
(-0.0207288 0.0592872 2.53677)
(0.0543392 0.0905781 5.40048)
(-0.0849173 -0.0255534 5.67843)
(-0.138119 0.0711759 3.97484)
(0.344104 0.00181766 1.03209)
(0.102647 -0.126029 1.50467)
(0.0352066 -0.168935 1.28274)
(-0.11546 -0.0309563 0.926849)
(-0.158386 -0.015357 1.06108)
(0.0931751 -0.226646 1.43546)
(-0.0632959 -0.171477 1.23408)
(-0.00687281 -0.189077 1.22471)
(0.0730405 -0.052612 1.52019)
(0.0410482 0.153776 1.5338)
(0.0365867 0.0494385 0.686688)
(0.102318 0.0991187 0.853514)
(-0.309048 -0.0348032 2.08518)
(-0.128411 -0.25559 1.68387)
(0.151783 0.0580075 1.52745)
(-0.0491653 0.0760573 1.57759)
(0.335108 0.345226 1.03225)
(0.244324 -0.239383 3.78113)
(-0.40569 -0.554309 3.54704)
(0.0250846 -0.00290894 1.72581)
(-0.0366847 0.0520408 2.44248)
(0.0287408 0.0283036 5.48658)
(-0.253421 -0.00542103 5.56262)
(-0.30761 -0.0770816 3.33248)
(0.378641 0.0154699 1.14421)
(0.0242418 -0.000353348 1.54864)
(0.011317 -0.175161 1.32113)
(-0.0463148 -0.0759413 1.0912)
(-0.172179 0.0856952 0.96354)
(0.148767 -0.127166 1.2695)
(-0.131689 -0.17301 1.21531)
(-0.00407936 -0.173416 1.23262)
(0.0603869 -0.0445801 1.50604)
(0.0561114 0.166132 1.53983)
(0.00688716 0.0663516 0.680941)
(-0.0366061 0.39329 0.637508)
(-0.400217 -0.0539549 2.13642)
(-0.0833472 -0.237375 1.63495)
(0.161761 0.0803596 1.54221)
(-0.0343681 0.0930198 1.63706)
(0.29346 0.461967 1.02847)
(0.128631 -0.357855 4.07764)
(-0.347558 -0.610539 3.3324)
(0.0656563 0.0466855 1.7151)
(-0.0363386 0.0454164 2.34067)
(-0.0765371 -0.0512923 5.5662)
(-0.423756 0.0171392 5.35611)
(-0.353984 0.0563464 2.47015)
(0.381015 0.0220982 1.19793)
(0.138628 0.0934857 1.28803)
(0.0247918 -0.127734 1.32086)
(0.0316724 -0.123884 1.21891)
(-0.0709601 0.200747 0.879526)
(-0.0101401 0.489733 0.906447)
(-0.140183 -0.166092 1.21709)
(-0.0146781 -0.140307 1.24935)
(0.0364438 -0.02058 1.51029)
(0.0689082 0.181356 1.54289)
(0.00739668 0.068226 0.808829)
(-0.145935 0.59125 0.574089)
(-0.460143 -0.0752984 2.15451)
(-0.0309422 -0.163824 1.58024)
(0.146919 0.109542 1.56397)
(-0.0282801 0.117958 1.71202)
(0.263629 0.616081 1.12816)
(-0.0770093 -0.45854 4.34629)
(-0.240291 -0.568262 3.02709)
(0.0634126 0.0955992 1.7056)
(-0.0526238 0.0416635 2.2458)
(-0.237526 -0.171634 5.61909)
(-0.507281 0.0676225 4.99046)
(-0.242532 0.158282 2.17876)
(0.424503 0.0180623 1.23488)
(-0.169956 0.199329 0.673203)
(0.169775 -0.00675337 1.40285)
(0.111376 -0.117976 1.2537)
(0.187475 0.252052 0.922558)
(-0.200762 0.597626 0.61477)
(-0.0636453 -0.154519 1.27061)
(-0.0339719 -0.0739162 1.2572)
(-0.00923391 0.0349635 1.51379)
(0.0829951 0.20803 1.5509)
(0.0138779 0.0460608 0.889018)
(-0.32666 0.551198 0.607009)
(-0.488469 -0.142177 2.1554)
(0.00295683 -0.0638173 1.51072)
(0.104507 0.152401 1.59073)
(-0.0240451 0.148437 1.79055)
(0.179828 0.628929 1.42362)
(-0.328624 -0.510577 4.54686)
(-0.194538 -0.446363 2.70234)
(0.0104266 0.13753 1.7254)
(-0.0786142 0.0544868 2.13643)
(-0.456324 -0.278452 5.62194)
(-0.535554 0.17091 4.48892)
(-0.227275 0.166512 2.18205)
(0.392588 0.0272627 1.25031)
(-0.25223 0.240117 0.57107)
(0.0337094 0.21225 1.11344)
(0.364423 0.0276509 1.25348)
(0.392706 0.279201 1.01507)
(-0.248262 0.528262 0.642602)
(0.0639567 0.0256307 1.31289)
(0.00299836 0.0315355 1.28724)
(-0.0175264 0.106599 1.52749)
(0.0989115 0.242721 1.56234)
(-0.00872433 -0.0451945 0.932324)
(-0.460335 0.437455 0.757613)
(-0.44657 -0.210241 2.12549)
(0.0550977 0.0521282 1.43368)
(0.0724917 0.196736 1.61347)
(-0.0276678 0.187928 1.86744)
(-0.0282182 0.455351 1.90279)
(-0.554905 -0.497378 4.59877)
(-0.229068 -0.311428 2.41516)
(-0.0623423 0.18492 1.75884)
(-0.0955914 0.0943264 2.02508)
(-0.652542 -0.335294 5.6006)
(-0.470304 0.280997 3.98208)
(-0.267046 0.180961 2.25257)
(0.335678 0.0450428 1.13055)
(-0.108933 0.0650771 0.626135)
(-0.261037 0.20276 0.68373)
(0.316781 0.248051 0.990017)
(0.449502 0.270134 1.09696)
(-0.114226 0.322064 0.850555)
(0.0507978 0.235715 1.30987)
(0.116308 0.19464 1.36127)
(0.0318706 0.173764 1.5688)
(0.104318 0.274316 1.58648)
(-0.0686675 -0.145068 1.08288)
(-0.543853 0.280712 0.973859)
(-0.288233 -0.220005 2.06962)
(0.109379 0.160181 1.42225)
(0.073781 0.246427 1.65499)
(-0.0332446 0.226971 1.93321)
(-0.351262 0.134314 2.58599)
(-0.677262 -0.455866 4.51219)
(-0.24082 -0.205953 2.19008)
(-0.104631 0.231182 1.77946)
(-0.105432 0.154995 1.95455)
(-0.817311 -0.327443 5.53282)
(-0.430194 0.29807 3.59459)
(-0.316279 0.206006 2.28195)
(0.118482 0.0548883 0.789632)
(0.146164 -0.179784 0.773364)
(-0.0344929 0.0934775 0.53553)
(0.110462 0.140899 0.557682)
(0.433074 0.185295 1.12098)
(0.049041 -0.00711067 1.01348)
(-0.0516054 0.310934 1.31891)
(0.140303 0.306813 1.42947)
(0.0879004 0.233321 1.63918)
(0.110641 0.302316 1.64381)
(-0.1074 -0.22106 1.34752)
(-0.542319 0.133692 1.20906)
(-0.170985 -0.188442 2.00624)
(0.1212 0.227887 1.46791)
(0.0828884 0.283041 1.71557)
(-0.0391311 0.261531 1.99542)
(-0.624036 -0.169513 3.32132)
(-0.648611 -0.417341 4.3747)
(-0.213588 -0.133654 2.05285)
(-0.112412 0.263854 1.79101)
(-0.115607 0.21088 1.94507)
(-0.86996 -0.254625 5.40034)
(-0.406669 0.22595 3.33528)
(-0.346545 0.23894 2.27163)
(0.089568 0.0609893 0.388853)
(0.323194 -0.357865 0.847335)
(0.198487 -0.0598495 0.517397)
(0.165325 0.211629 0.338117)
(0.35629 0.128015 1.07914)
(0.139806 -0.251088 1.06167)
(-0.0759722 0.293377 1.34426)
(0.125693 0.324915 1.41626)
(0.118193 0.258871 1.69437)
(0.116149 0.324268 1.72015)
(-0.131341 -0.304481 1.64464)
(-0.493097 0.0042916 1.44082)
(-0.152509 -0.175932 1.92261)
(0.0871814 0.251606 1.51869)
(0.0825061 0.300531 1.7754)
(-0.044186 0.286749 2.05115)
(-0.756412 -0.397523 3.96361)
(-0.542821 -0.305615 4.10691)
(-0.2091 -0.0924239 1.99706)
(-0.101897 0.294395 1.81739)
(-0.127867 0.251221 1.97923)
(-0.844029 -0.167932 5.2205)
(-0.377639 0.122969 3.16665)
(-0.3519 0.244259 2.23232)
(0.287305 0.0344817 0.142182)
(0.416306 -0.448221 0.842346)
(0.397424 -0.147271 0.573227)
(0.265845 0.252032 0.212976)
(0.267776 0.166318 1.03456)
(0.205677 -0.38107 1.06293)
(-0.0670116 0.281355 1.3385)
(0.0806847 0.320208 1.37228)
(0.135565 0.25583 1.71501)
(0.119035 0.324203 1.79781)
(-0.138413 -0.416454 1.90697)
(-0.433474 -0.121015 1.66583)
(-0.164715 -0.175022 1.83286)
(0.0484498 0.251871 1.55896)
(0.0841045 0.308119 1.82171)
(-0.0479126 0.30121 2.09919)
(-0.81539 -0.563959 4.39355)
(-0.493974 -0.19267 3.78458)
(-0.240186 -0.0712052 1.97667)
(-0.0929602 0.317644 1.85439)
(-0.143586 0.283843 2.02593)
(-0.77684 -0.0538054 5.04323)
(-0.374892 0.0402017 3.037)
(-0.35477 0.239608 2.15487)
(0.416387 0.0305511 0.0776652)
(0.470459 -0.502484 0.825327)
(0.508656 -0.213838 0.632735)
(0.355151 0.230173 0.164757)
(0.219231 0.238973 0.992559)
(0.252395 -0.467064 1.05922)
(-0.0378942 0.265786 1.27997)
(0.0518784 0.304841 1.33173)
(0.13803 0.256898 1.71135)
(0.119646 0.309178 1.8626)
(-0.127869 -0.523637 2.10301)
(-0.324013 -0.238636 1.90896)
(-0.151388 -0.182389 1.77348)
(0.03099 0.240235 1.59106)
(0.0868075 0.312999 1.85968)
(-0.0486703 0.306361 2.14107)
(-0.783208 -0.671168 4.63476)
(-0.467911 -0.165799 3.51265)
(-0.274335 -0.0561751 1.96044)
(-0.0957442 0.331247 1.88645)
(-0.152773 0.3047 2.07308)
(-0.712127 0.026853 4.93322)
(-0.405878 -0.0148443 2.91126)
(-0.359538 0.251248 2.08131)
(0.499096 0.0345968 0.0797023)
(0.507708 -0.547623 0.840776)
(0.521951 -0.245902 0.666706)
(0.431876 0.195635 0.162345)
(0.235672 0.325434 0.931034)
(0.265032 -0.518248 1.04533)
(-0.0223966 0.180114 1.24156)
(0.0602368 0.289338 1.3144)
(0.133833 0.26133 1.70789)
(0.12027 0.288624 1.92253)
(-0.111579 -0.583042 2.19267)
(-0.17928 -0.337084 2.1329)
(-0.0996993 -0.184618 1.75477)
(0.0311226 0.216059 1.62022)
(0.0843105 0.314067 1.89208)
(-0.0449735 0.303545 2.18043)
(-0.714282 -0.707155 4.75058)
(-0.384398 -0.208217 3.31234)
(-0.282512 -0.0378356 1.94541)
(-0.096231 0.335889 1.90996)
(-0.156271 0.313071 2.12002)
(-0.663514 0.0235756 4.84999)
(-0.442627 -0.0442658 2.75651)
(-0.357716 0.262874 2.05748)
(0.555212 0.0365427 0.105444)
(0.519871 -0.575811 0.904699)
(0.48352 -0.275005 0.7145)
(0.492595 0.158474 0.176045)
(0.302211 0.380914 0.872447)
(0.210723 -0.521943 1.03236)
(-0.0560627 -0.0977496 1.14095)
(0.111529 0.270687 1.29444)
(0.128102 0.262689 1.71873)
(0.1235 0.272257 1.98178)
(-0.108226 -0.592428 2.19082)
(-0.0314712 -0.434519 2.34987)
(-0.0276852 -0.136086 1.75336)
(0.0640648 0.183482 1.65902)
(0.0844325 0.306131 1.91885)
(-0.0330314 0.294116 2.2187)
(-0.629224 -0.701638 4.78918)
(-0.226524 -0.272251 3.11463)
(-0.251962 -0.0134084 1.93905)
(-0.0906212 0.333276 1.93096)
(-0.154783 0.311132 2.16526)
(-0.637149 -0.0122597 4.74483)
(-0.46364 -0.0218737 2.58218)
(-0.364048 0.267504 2.06115)
(0.58165 0.0317961 0.143766)
(0.521649 -0.586726 1.01188)
(0.511738 -0.289995 0.786483)
(0.533354 0.136276 0.20473)
(0.396881 0.381794 0.85616)
(0.138808 -0.549801 1.09895)
(-0.0617282 -0.298251 0.924721)
(0.185383 0.209087 1.24117)
(0.120836 0.249843 1.76093)
(0.122143 0.258382 2.05262)
(-0.124889 -0.582759 2.15539)
(0.0795225 -0.510512 2.47521)
(0.0511211 -0.00804951 1.67446)
(0.134221 0.148782 1.69746)
(0.0969443 0.285819 1.95361)
(-0.0154764 0.277016 2.25773)
(-0.549257 -0.665182 4.75507)
(-0.0372321 -0.316737 2.91851)
(-0.155326 0.0171299 1.95898)
(-0.0754332 0.321949 1.9579)
(-0.146417 0.300869 2.21216)
(-0.612574 -0.041821 4.58749)
(-0.433599 0.0261415 2.44764)
(-0.361256 0.272882 2.08646)
(0.556951 0.0265803 0.219298)
(0.528706 -0.595343 1.13669)
(0.585176 -0.255816 0.854927)
(0.543725 0.122152 0.23565)
(0.441959 0.36655 0.908881)
(0.0980006 -0.607045 1.22273)
(-0.00716151 -0.24601 0.733352)
(0.196958 0.119569 1.19496)
(0.117532 0.219538 1.83082)
(0.11863 0.241325 2.12812)
(-0.144363 -0.583567 2.14111)
(0.11937 -0.545934 2.4881)
(0.127646 0.0684522 1.56235)
(0.212003 0.120613 1.74087)
(0.112442 0.254932 2.00763)
(0.00291976 0.252315 2.30423)
(-0.442652 -0.61332 4.67379)
(0.124033 -0.296545 2.75885)
(-0.0707461 0.0338892 2.00576)
(-0.0468207 0.302143 2.00594)
(-0.135907 0.284947 2.27008)
(-0.569661 -0.0286066 4.39601)
(-0.384545 0.0884564 2.3961)
(-0.35339 0.27003 2.13575)
(0.504632 0.0278291 0.315346)
(0.521431 -0.58749 1.25656)
(0.648106 -0.212031 0.862022)
(0.530649 0.113649 0.263604)
(0.422818 0.339566 1.02647)
(0.0830708 -0.677276 1.35239)
(0.0375739 -0.0948293 0.614788)
(0.153448 0.0349219 1.16058)
(0.124841 0.166783 1.9001)
(0.112091 0.213872 2.1918)
(-0.163424 -0.595637 2.17718)
(0.0649338 -0.565437 2.43683)
(0.142251 0.0445736 1.46573)
(0.271174 0.117312 1.78032)
(0.115992 0.223003 2.06932)
(0.017376 0.225659 2.35761)
(-0.337631 -0.560826 4.5661)
(0.232437 -0.22472 2.63458)
(-0.0372593 0.0487475 2.0571)
(-0.0152388 0.27722 2.06835)
(-0.124096 0.267426 2.33411)
(-0.498704 -0.00593518 4.21126)
(-0.343617 0.120584 2.4121)
(-0.33425 0.25936 2.20116)
(0.469055 0.0298676 0.397619)
(0.489589 -0.543191 1.3594)
(0.671457 -0.192823 0.806025)
(0.497128 0.102662 0.305803)
(0.359735 0.297377 1.1862)
(0.0813127 -0.719552 1.47218)
(0.0747884 0.0358191 0.565459)
(0.0871651 -0.00593737 1.13156)
(0.139281 0.0970211 1.95707)
(0.100524 0.181847 2.2466)
(-0.17712 -0.622464 2.28121)
(-0.0996196 -0.582315 2.25824)
(0.0851449 0.0084713 1.36474)
(0.301392 0.145815 1.78892)
(0.113872 0.200799 2.1185)
(0.0259165 0.200406 2.40938)
(-0.259823 -0.482223 4.46796)
(0.264098 -0.136568 2.5119)
(-0.0368541 0.0426264 2.11182)
(0.00082717 0.256157 2.1322)
(-0.112486 0.2493 2.39771)
(-0.405205 0.0192662 4.07065)
(-0.302457 0.132368 2.47039)
(-0.311905 0.243117 2.26982)
(0.426076 0.0423278 0.454352)
(0.441623 -0.462488 1.4193)
(0.666746 -0.200911 0.732486)
(0.459134 0.105662 0.365289)
(0.280795 0.236528 1.36367)
(0.113312 -0.690313 1.58147)
(0.0975938 0.119975 0.561784)
(0.0263351 0.00245227 1.1212)
(0.146137 0.0485823 1.99094)
(0.0880511 0.152996 2.29661)
(-0.171688 -0.610435 2.43838)
(-0.231568 -0.525804 1.97474)
(-0.00266128 0.0179446 1.26482)
(0.296134 0.175327 1.76839)
(0.113846 0.185926 2.1533)
(0.0318608 0.178584 2.45859)
(-0.202599 -0.371792 4.41939)
(0.208844 -0.0767464 2.41014)
(-0.0369432 0.0287282 2.16796)
(0.00372389 0.241185 2.1904)
(-0.102387 0.235064 2.45859)
(-0.31792 0.0492707 4.00585)
(-0.26818 0.127971 2.54961)
(-0.289015 0.225989 2.34159)
(0.410877 0.0574304 0.475877)
(0.401129 -0.376607 1.37298)
(0.631909 -0.225069 0.679322)
(0.428695 0.124398 0.422381)
(0.222229 0.18906 1.53252)
(0.20585 -0.578267 1.68143)
(0.0983215 0.155158 0.584152)
(-0.0106608 0.0289553 1.13116)
(0.144622 0.0349325 2.00587)
(0.0783735 0.13339 2.34166)
(-0.140866 -0.55777 2.54079)
(-0.228996 -0.437177 1.72452)
(-0.0899851 0.0430066 1.18679)
(0.266055 0.169966 1.73736)
(0.114253 0.169127 2.18618)
(0.033946 0.16291 2.50286)
(-0.199119 -0.294213 4.36494)
(0.107183 -0.0599925 2.35709)
(-0.0556199 0.0435432 2.21825)
(0.00631933 0.225233 2.24197)
(-0.0953583 0.224361 2.5169)
(-0.252034 0.0650763 4.01342)
(-0.248602 0.116028 2.63055)
(-0.271743 0.208017 2.40886)
(0.44412 0.0468777 0.473162)
(0.370767 -0.343939 1.22216)
(0.594016 -0.24237 0.640008)
(0.415952 0.172088 0.467048)
(0.18127 0.158376 1.68256)
(0.277292 -0.452108 1.7322)
(0.0694447 0.147496 0.628018)
(-0.02193 0.0608783 1.1679)
(0.139063 0.0336756 2.01055)
(0.0692239 0.120303 2.38412)
(-0.108756 -0.502756 2.58927)
(-0.146842 -0.381078 1.60723)
(-0.167251 0.0464339 1.1484)
(0.187724 0.0906978 1.65518)
(0.1115 0.152688 2.21112)
(0.0349475 0.152326 2.54225)
(-0.232687 -0.287215 4.23688)
(0.00728361 -0.0703832 2.33255)
(-0.113161 0.05935 2.23462)
(0.00828298 0.211465 2.28266)
(-0.0917264 0.219167 2.5664)
(-0.213482 0.053428 4.05852)
(-0.240011 0.0995012 2.70828)
(-0.25155 0.192277 2.47129)
(0.495045 0.0403102 0.487094)
(0.356757 -0.357293 1.04988)
(0.569719 -0.237968 0.607665)
(0.374015 0.208687 0.495746)
(0.15086 0.143658 1.81009)
(0.312875 -0.374436 1.72439)
(0.0251296 0.114739 0.694505)
(-0.0161843 0.149946 1.2349)
(0.133032 0.0248909 2.00982)
(0.06476 0.114384 2.42241)
(-0.0882874 -0.45922 2.59274)
(-0.0586534 -0.358388 1.57704)
(-0.211593 0.0474499 1.13566)
(0.115859 0.0273665 1.54799)
(0.110953 0.143638 2.21532)