/*--------------------------------*- C++ -*----------------------------------*\
| =========                 |                                                 |
| \\      /  F ield         | OpenFOAM: The Open Source CFD Toolbox           |
|  \\    /   O peration     | Version:  5.x                                   |
|   \\  /    A nd           | Web:      www.OpenFOAM.org                      |
|    \\/     M anipulation  |                                                 |
\*---------------------------------------------------------------------------*/
FoamFile
{
    version     2.0;
    format      ascii;
    class       volVectorField;
    location    "6";
    object      Us;
}
// * * * * * * * * * * * * * * * * * * * * * * * * * * * * * * * * * * * * * //

dimensions      [0 1 -1 0 0 0 0];

internalField   nonuniform List<vector> 
10571
(
(-0.0140396 -0.051454 0.111418)
(0.0860442 -0.110801 -0.0125812)
(0.283182 -0.215128 0.0725508)
(0.0191449 -0.165379 0.149179)
(-0.0475743 0.0506271 -0.029773)
(0.150735 -0.305448 -0.00944618)
(0.253356 -0.458739 0.141049)
(0.355605 -0.680282 0.181203)
(0.0636152 -0.583376 0.125105)
(-0.0166256 -0.237801 -0.0242848)
(-0.0224154 -0.253974 0.0350078)
(0.129116 -0.305992 0.013607)
(0.229672 -0.465003 0.133272)
(0.293386 -0.572571 0.178566)
(0.205085 -0.560119 0.134725)
(0.143169 -0.347687 0.0467613)
(0.0996388 -0.0502115 -0.0775697)
(0.134576 -0.230874 0.0808844)
(0.220479 -0.286489 0.0753932)
(0.290309 -0.338614 0.139102)
(0.153137 -0.246075 0.0223123)
(0.0452803 -0.0409407 0.0960897)
(0.18455 -0.0644153 0.0706042)
(0.241763 -0.137713 0.0566084)
(0.0393149 -0.0667896 0.0698308)
(0.00903789 0.0284529 -0.055257)
(0.232551 -0.32135 0.211863)
(0.131456 -0.360072 0.210923)
(0.0330511 0.0256562 -0.0840086)
(0.164506 -0.0819483 -0.0212612)
(0.336367 -0.361605 0.392083)
(0.116324 -0.477033 0.395273)
(-0.0515577 -0.266396 0.26157)
(-0.0345453 -0.0278643 -0.0268163)
(0.0349363 0.0581271 -0.0934289)
(0.266759 0.097729 0.0588726)
(0.266114 -0.0877716 0.279817)
(0.105916 -0.240746 0.360806)
(0.0209337 -0.177219 0.284867)
(-0.0133439 -0.139437 0.118716)
(0.164529 0.18652 -0.135505)
(0.0545998 0.0343321 0.0656723)
(0.0590408 0.153937 0.00473092)
(0.0960969 -0.108526 0.259281)
(0.0142216 -0.0550814 0.101049)
(0.0317735 -0.0107836 0.144934)
(0.0679099 0.0223484 0.00524849)
(0.0794291 -0.0484 0.109899)
(-0.0363279 -0.0251648 -0.0601278)
(-0.0172318 0.0259749 -0.0862639)
(0.082486 -0.146133 0.26268)
(0.0803722 -0.245853 0.310105)
(-0.00337804 0.0135432 -0.154361)
(0.0651235 0.0948023 -0.0441223)
(0.227945 -0.178297 0.411331)
(0.0299431 -0.332725 0.472747)
(-0.0438494 -0.136608 0.327832)
(0.0108201 0.131098 -0.208714)
(0.0385895 0.0707353 -0.409294)
(0.089883 0.0660328 -0.0499504)
(0.146627 0.04367 0.363791)
(0.0104429 0.131844 0.114058)
(0.00678195 -0.00177865 0.253267)
(-0.0463124 0.0179924 0.00653342)
(-0.0638423 0.12492 -0.103343)
(-0.0788983 0.262192 -0.0131014)
(0.0276125 0.260542 -0.182714)
(0.139483 0.193133 0.172958)
(-0.0523542 0.0946228 0.0719553)
(0.0544533 0.152651 -0.48275)
(-0.0595871 0.259104 -0.276959)
(-0.0766077 0.0732558 -0.198166)
(-0.053245 -0.00604794 -0.0984329)
(-0.0582607 0.0226257 -0.104217)
(-0.0220855 -0.0602332 0.233245)
(0.00878015 -0.201808 0.395077)
(0.0460529 -0.0132335 -0.101347)
(-0.0322611 0.103619 -0.0153062)
(-0.0264132 -0.104183 0.354626)
(-0.0577428 -0.0782276 0.301808)
(7.4768e-05 -0.0250135 0.365025)
(0.00529966 0.0492791 -0.165318)
(0.0144784 0.039305 -0.388744)
(-0.00289467 0.0853424 0.00062237)
(-0.135299 0.138627 0.101286)
(0.00983692 0.125641 -0.0207687)
(0.113722 0.0965772 0.106981)
(0.0135256 0.0242899 0.00149224)
(-0.100689 0.130626 -0.0852086)
(-0.0576601 0.229466 -0.0112093)
(0.0469955 0.200944 -0.224119)
(0.0976219 0.214148 -0.108432)
(-0.0456904 0.120531 0.0124512)
(0.0791727 0.185567 -0.363046)
(-0.215755 -0.00234491 -0.0299334)
(-0.0969058 0.0756099 -0.0712905)
(-0.0142426 -0.00417769 -0.0138973)
(-0.0633163 0.0293285 -0.0570929)
(-0.127784 -0.0607154 0.195885)
(-0.0796667 -0.0294213 0.342633)
(0.127925 -0.0831681 0.0610095)
(-0.0931576 0.0982047 0.0518681)
(-0.0772614 -0.0155146 0.151914)
(-0.0199872 -0.0304335 0.137862)
(0.100298 -0.0150034 0.135668)
(0.041551 0.0313286 -0.0737498)
(0.0179578 -0.00486658 -0.252576)
(-0.130954 0.0922479 0.222571)
(-0.0666487 0.0731484 0.0812261)
(-5.08949e-05 0.0904147 -0.0613545)
(0.0803484 0.109306 0.0235516)
(0.0272162 0.0709644 -0.0502478)
(-0.0572947 0.148782 -0.00537019)
(0.0856827 0.14164 -0.290424)
(0.128631 0.123013 -0.351246)
(0.0682753 0.178329 -0.193712)
(-0.0298679 0.115457 -0.033521)
(0.0839842 0.194651 -0.283667)
(-0.0955547 -0.058126 -0.0353039)
(-0.146109 0.0632651 0.0628142)
(0.0384485 0.0226145 -0.0163761)
(-0.0396035 0.0314062 -0.0386454)
(-0.0789645 -0.0451307 0.183964)
(0.0794385 -0.0538547 0.317938)
(0.192976 0.168801 -0.18118)
(-0.131582 -0.0244228 0.148865)
(-0.0038953 -0.0328472 0.0596382)
(0.0672827 0.0396475 -0.169899)
(0.106179 -0.0264285 0.0502605)
(0.115299 -0.0265867 -0.0570253)
(-0.00916124 0.00540543 -0.00425954)
(-0.00163898 0.03267 -0.060119)
(-0.153369 0.0806097 0.294146)
(0.0649228 0.0748847 -0.288353)
(0.121865 0.0909758 -0.338413)
(0.0983263 0.0846782 0.0154384)
(0.135197 0.0648646 0.0367015)
(-0.010777 -0.00384139 -0.00449481)
(0.0352849 0.130596 -0.0587658)
(0.09166 0.129465 -0.264411)
(0.0877867 0.12807 -0.290561)
(-0.23145 -0.0374689 0.138565)
(0.0353511 0.0354462 -0.108857)
(0.103655 0.187909 -0.247285)
(0 0 0)
(-0.120486 0.0640004 0.123519)
(0.0716865 0.0339329 -0.160535)
(-0.0276364 -0.0140583 -0.237254)
(-0.0245774 0.04484 0.201289)
(0.0871702 0.0729057 0.271322)
(0.231944 0.126272 -0.184673)
(-0.0312616 -0.0474558 0.0895816)
(0.0676353 -0.0286767 -0.140757)
(0.0998863 0.0854895 -0.254144)
(0.199704 0.0900926 -0.269494)
(0.212838 0.0882708 -0.345791)
(0 0 0)
(0.00469021 -0.0135742 -0.0584697)
(-0.0285671 -0.0109318 0.124885)
(0.0717455 0.063638 -0.30935)
(0.138 0.10567 -0.317473)
(0.208146 0.102348 -0.344664)
(0.261023 0.0345099 -0.436016)
(0 0 0)
(-0.0546961 0.0894736 -0.15418)
(0.0908547 0.126403 -0.221227)
(-0.0339779 0.08125 -0.10312)
(-0.143569 0.0157461 -0.0525587)
(-0.0280133 0.0124958 0.0117123)
(0 0 0)
(0 0 0)
(0 0 0)
(-0.127946 0.0741172 0.219884)
(0.0677418 -0.0726431 -0.328069)
(0.0243204 -0.0288815 -0.384142)
(-0.0239168 0.116934 0.152153)
(0.12324 0.13099 0.153378)
(0.170232 0.0222069 -0.2346)
(0.00525999 -0.0564794 -0.215823)
(0.0533914 0.0121717 -0.205483)
(0.116597 0.0903115 -0.219221)
(0.208088 0.0842836 -0.252447)
(0.31478 -0.00128865 -0.303322)
(0 0 0)
(-0.0559943 0.00367746 -0.300264)
(-0.0510197 -0.0440423 -0.146005)
(0.0783933 0.0710517 -0.270937)
(0.147947 0.10846 -0.274452)
(0.224963 0.129839 -0.300209)
(0 0 0)
(0 0 0)
(-0.0454956 0.0748913 -0.235994)
(0 0 0)
(0 0 0)
(-0.122886 0.00695338 0.00529909)
(-0.00826548 0.0600503 0.0486244)
(0 0 0)
(0 0 0)
(0 0 0)
(-0.16071 0.0736599 0.317683)
(0.0729845 -0.0647932 -0.277047)
(0.012633 0.0255178 -0.419608)
(-0.0108767 0.00879067 -0.198891)
(0.0600515 0.000514125 -0.139925)
(0.224686 0.023678 -0.215123)
(-0.00122375 -0.0921061 -0.186294)
(0.0415777 0.0474394 -0.191857)
(0.127403 0.069903 -0.19996)
(0.227676 0.072831 -0.222273)
(0.0469835 0.186493 -0.295241)
(0 0 0)
(-0.0885252 0.0059322 -0.166093)
(-0.0201353 -0.0165162 -0.154633)
(0.0768225 0.0752421 -0.244379)
(0.149343 0.118287 -0.237222)
(0 0 0)
(0 0 0)
(0 0 0)
(0 0 0)
(0.054388 0.214236 -0.194377)
(0 0 0)
(0 0 0)
(0 0 0)
(0 0 0)
(0 0 0)
(0 0 0)
(-0.00466958 0.151803 -0.0253002)
(0.0433833 -0.0173992 -0.285103)
(0.0100614 -0.0233457 -0.185495)
(0.0821709 0.0154369 -0.11552)
(0 0 0)
(-0.0414002 -0.00969726 -0.14437)
(0.0758164 0.0458828 -0.172113)
(0.156413 0.0494669 -0.214966)
(0.152572 0.124477 -0.227728)
(0.0631961 0.21566 -0.344683)
(0 0 0)
(-0.0465789 0.0108375 -0.10773)
(0.06796 0.073537 -0.243162)
(0.157264 0.117307 -0.205446)
(0 0 0)
(0 0 0)
(0 0 0)
(0.054388 0.214236 -0.194377)
(0 0 0)
(0 0 0)
(0 0 0)
(0 0 0)
(0 0 0)
(0 0 0)
(0 0 0)
(-0.00898831 -0.0234162 -0.147247)
(0.0392013 -0.0280005 -0.141365)
(0.0480508 0.0290716 -0.00597512)
(0 0 0)
(0.00666164 -0.0414441 -0.13789)
(0.0911301 0.033469 -0.141682)
(0.126719 0.0358139 -0.120215)
(0 0 0)
(0.0720789 0.227673 -0.441696)
(-0.027854 -0.158258 -1.30797)
(0 0 0)
(0.107754 0.0905858 -0.155147)
(0.14898 0.100278 -0.163514)
(0 0 0)
(0 0 0)
(0 0 0)
(0 0 0)
(0 0 0)
(0 0 0)
(0 0 0)
(0 0 0)
(0 0 0)
(0 0 0)
(0 0 0)
(0.0982053 -0.145551 -1.29119)
(0.0545602 -0.0301899 -0.0817041)
(0 0 0)
(0 0 0)
(-0.0309826 0.0230515 -0.0483504)
(0.0852577 0.00703809 -0.0823287)
(0 0 0)
(0 0 0)
(0 0 0)
(-0.000450851 -0.127692 -1.30994)
(0 0 0)
(0 0 0)
(0 0 0)
(0 0 0)
(0 0 0)
(0 0 0)
(0 0 0)
(0 0 0)
(0 0 0)
(0 0 0)
(0 0 0)
(0 0 0)
(0 0 0)
(0 0 0)
(0 0 0)
(0 0 0)
(0 0 0)
(0 0 0)
(0 0 0)
(0.0665549 0.0196195 -0.0175216)
(0 0 0)
(0 0 0)
(0 0 0)
(0.0152915 -0.181735 -1.23298)
(0 0 0)
(0 0 0)
(0 0 0)
(0 0 0)
(0 0 0)
(0 0 0)
(0 0 0)
(0 0 0)
(0 0 0)
(0 0 0)
(0 0 0)
(0 0 0)
(0 0 0)
(0 0 0)
(0 0 0)
(0 0 0)
(0 0 0)
(0 0 0)
(0 0 0)
(0 0 0)
(0 0 0)
(0 0 0)
(0 0 0)
(0 0 0)
(0 0 0)
(0 0 0)
(0 0 0)
(0 0 0)
(0 0 0)
(0 0 0)
(0 0 0)
(0 0 0)
(0 0 0)
(0 0 0)
(0 0 0)
(0 0 0)
(0 0 0)
(0 0 0)
(0 0 0)
(0 0 0)
(0 0 0)
(0 0 0)
(0 0 0)
(0 0 0)
(0 0 0)
(0 0 0)
(0 0 0)
(0 0 0)
(0 0 0)
(0 0 0)
(0 0 0)
(0 0 0)
(0 0 0)
(0 0 0)
(0 0 0)
(0 0 0)
(0 0 0)
(0 0 0)
(0 0 0)
(0 0 0)
(0 0 0)
(0 0 0)
(0 0 0)
(0 0 0)
(0 0 0)
(0 0 0)
(0 0 0)
(0 0 0)
(0 0 0)
(0 0 0)
(0 0 0)
(0 0 0)
(0 0 0)
(0 0 0)
(0 0 0)
(0 0 0)
(0 0 0)
(0 0 0)
(0 0 0)
(0 0 0)
(0 0 0)
(0 0 0)
(0 0 0)
(0 0 0)
(0 0 0)
(0 0 0)
(0 0 0)
(0 0 0)
(0 0 0)
(0 0 0)
(0 0 0)
(0 0 0)
(0 0 0)
(0 0 0)
(0 0 0)
(3.09374e-14 -9.28652e-14 -6.6813e-13)
(0 0 0)
(0 0 0)
(0 0 0)
(0 0 0)
(0 0 0)
(0 0 0)
(0 0 0)
(0 0 0)
(0 0 0)
(0 0 0)
(0 0 0)
(0 0 0)
(0 0 0)
(0 0 0)
(0 0 0)
(0 0 0)
(0 0 0)
(0 0 0)
(0 0 0)
(0 0 0)
(0 0 0)
(0 0 0)
(0 0 0)
(0 0 0)
(0 0 0)
(0 0 0)
(0 0 0)
(0 0 0)
(0 0 0)
(0 0 0)
(0 0 0)
(0 0 0)
(0 0 0)
(0 0 0)
(0 0 0)
(0 0 0)
(0 0 0)
(0 0 0)
(0 0 0)
(0 0 0)
(0 0 0)
(0 0 0)
(0 0 0)
(0 0 0)
(0 0 0)
(0 0 0)
(0 0 0)
(0 0 0)
(0 0 0)
(0 0 0)
(0 0 0)
(0 0 0)
(0 0 0)
(0 0 0)
(0 0 0)
(0 0 0)
(0 0 0)
(0 0 0)
(0 0 0)
(0 0 0)
(0 0 0)
(0 0 0)
(0 0 0)
(0 0 0)
(0 0 0)
(0 0 0)
(0 0 0)
(0 0 0)
(0 0 0)
(0 0 0)
(0 0 0)
(0 0 0)
(0 0 0)
(0 0 0)
(0 0 0)
(0 0 0)
(0 0 0)
(0 0 0)
(0 0 0)
(0 0 0)
(0 0 0)
(0 0 0)
(0 0 0)
(0 0 0)
(0 0 0)
(0 0 0)
(0 0 0)
(0 0 0)
(0 0 0)
(0 0 0)
(0 0 0)
(0 0 0)
(0 0 0)
(0 0 0)
(0 0 0)
(0 0 0)
(0 0 0)
(0 0 0)
(0 0 0)
(0 0 0)
(0 0 0)
(0 0 0)
(0 0 0)
(0 0 0)
(0 0 0)
(0 0 0)
(0 0 0)
(0 0 0)
(0 0 0)
(0 0 0)
(0 0 0)
(0 0 0)
(0 0 0)
(0 0 0)
(0 0 0)
(0 0 0)
(0 0 0)
(0 0 0)
(0 0 0)
(0 0 0)
(0 0 0)
(0 0 0)
(0 0 0)
(0 0 0)
(0 0 0)
(0 0 0)
(0 0 0)
(0 0 0)
(0 0 0)
(0 0 0)
(0 0 0)
(0 0 0)
(0 0 0)
(0 0 0)
(0 0 0)
(0 0 0)
(0 0 0)
(0 0 0)
(0 0 0)
(0 0 0)
(0 0 0)
(0 0 0)
(0 0 0)
(0 0 0)
(0 0 0)
(0 0 0)
(0 0 0)
(0 0 0)
(0 0 0)
(0 0 0)
(0 0 0)
(0 0 0)
(0 0 0)
(0 0 0)
(0 0 0)
(0 0 0)
(0 0 0)
(0 0 0)
(0 0 0)
(0 0 0)
(0 0 0)
(0 0 0)
(0 0 0)
(0 0 0)
(0 0 0)
(0 0 0)
(0 0 0)
(0 0 0)
(0 0 0)
(0 0 0)
(0 0 0)
(0 0 0)
(0 0 0)
(0 0 0)
(0 0 0)
(0 0 0)
(0 0 0)
(0 0 0)
(0 0 0)
(0 0 0)
(0 0 0)
(0 0 0)
(0 0 0)
(0 0 0)
(0 0 0)
(0 0 0)
(0 0 0)
(0 0 0)
(0 0 0)
(0 0 0)
(0 0 0)
(0 0 0)
(0 0 0)
(0 0 0)
(0 0 0)
(0 0 0)
(0 0 0)
(0 0 0)
(0 0 0)
(0 0 0)
(0 0 0)
(0 0 0)
(0 0 0)
(0 0 0)
(0 0 0)
(0 0 0)
(0 0 0)
(0 0 0)
(0 0 0)
(0 0 0)
(0 0 0)
(0 0 0)
(0 0 0)
(0 0 0)
(0 0 0)
(0 0 0)
(0 0 0)
(0 0 0)
(0 0 0)
(0 0 0)
(0 0 0)
(0 0 0)
(0 0 0)
(0 0 0)
(0 0 0)
(0 0 0)
(0 0 0)
(0 0 0)
(0 0 0)
(0 0 0)
(0 0 0)
(0 0 0)
(0 0 0)
(0 0 0)
(0 0 0)
(0 0 0)
(0 0 0)
(0 0 0)
(0 0 0)
(0 0 0)
(0 0 0)
(0 0 0)
(0 0 0)
(0 0 0)
(0 0 0)
(0 0 0)
(0 0 0)
(0 0 0)
(0 0 0)
(0 0 0)
(0 0 0)
(0 0 0)
(0 0 0)
(0 0 0)
(0 0 0)
(0 0 0)
(0 0 0)
(0 0 0)
(0 0 0)
(0 0 0)
(0 0 0)
(0 0 0)
(0 0 0)
(0 0 0)
(0 0 0)
(0 0 0)
(0 0 0)
(0 0 0)
(0 0 0)
(0 0 0)
(0 0 0)
(0 0 0)
(0 0 0)
(0 0 0)
(0 0 0)
(0 0 0)
(0 0 0)
(0 0 0)
(0 0 0)
(0 0 0)
(0 0 0)
(0 0 0)
(0 0 0)
(0 0 0)
(0 0 0)
(0 0 0)
(0 0 0)
(0 0 0)
(0 0 0)
(0 0 0)
(0 0 0)
(0 0 0)
(0 0 0)
(0 0 0)
(0 0 0)
(0 0 0)
(0 0 0)
(0 0 0)
(0 0 0)
(0 0 0)
(0 0 0)
(0 0 0)
(0 0 0)
(0 0 0)
(0 0 0)
(0 0 0)
(0 0 0)
(0 0 0)
(0 0 0)
(0 0 0)
(0 0 0)
(0 0 0)
(0 0 0)
(0 0 0)
(0 0 0)
(0 0 0)
(0 0 0)
(0 0 0)
(0 0 0)
(0 0 0)
(0 0 0)
(0 0 0)
(0 0 0)
(0 0 0)
(0 0 0)
(0 0 0)
(0 0 0)
(0 0 0)
(0 0 0)
(0 0 0)
(0 0 0)
(0 0 0)
(0 0 0)
(0 0 0)
(0 0 0)
(0 0 0)
(0 0 0)
(0 0 0)
(0 0 0)
(0 0 0)
(0 0 0)
(0 0 0)
(0 0 0)
(0 0 0)
(0 0 0)
(0 0 0)
(0 0 0)
(0 0 0)
(0 0 0)
(0 0 0)
(0 0 0)
(0 0 0)
(0 0 0)
(0 0 0)
(0 0 0)
(0 0 0)
(0 0 0)
(0 0 0)
(0 0 0)
(0 0 0)
(0 0 0)
(0 0 0)
(0 0 0)
(0 0 0)
(0 0 0)
(0 0 0)
(0 0 0)
(0 0 0)
(0 0 0)
(0 0 0)
(0 0 0)
(0 0 0)
(0 0 0)
(0 0 0)
(0 0 0)
(0 0 0)
(0 0 0)
(0 0 0)
(0 0 0)
(0 0 0)
(0 0 0)
(0 0 0)
(0 0 0)
(0 0 0)
(0 0 0)
(0 0 0)
(0 0 0)
(0 0 0)
(0 0 0)
(0 0 0)
(0 0 0)
(0 0 0)
(0 0 0)
(0 0 0)
(0 0 0)
(0 0 0)
(0 0 0)
(0 0 0)
(0 0 0)
(0 0 0)
(0 0 0)
(0 0 0)
(0 0 0)
(0 0 0)
(0 0 0)
(0 0 0)
(0 0 0)
(0 0 0)
(0 0 0)
(0 0 0)
(0 0 0)
(0 0 0)
(0 0 0)
(0 0 0)
(0 0 0)
(0 0 0)
(0 0 0)
(0 0 0)
(0 0 0)
(0 0 0)
(0 0 0)
(0 0 0)
(0 0 0)
(0 0 0)
(0 0 0)
(0 0 0)
(0 0 0)
(0 0 0)
(0 0 0)
(0 0 0)
(0 0 0)
(0 0 0)
(0 0 0)
(0 0 0)
(0 0 0)
(0 0 0)
(0 0 0)
(0 0 0)
(0 0 0)
(0 0 0)
(0 0 0)
(0 0 0)
(0 0 0)
(0 0 0)
(0 0 0)
(0 0 0)
(0 0 0)
(0 0 0)
(0 0 0)
(0 0 0)
(0 0 0)
(0 0 0)
(0 0 0)
(0 0 0)
(0 0 0)
(0 0 0)
(0 0 0)
(0 0 0)
(0 0 0)
(0 0 0)
(0 0 0)
(0 0 0)
(0 0 0)
(0 0 0)
(0 0 0)
(0 0 0)
(0 0 0)
(0 0 0)
(0 0 0)
(0 0 0)
(0 0 0)
(0 0 0)
(0 0 0)
(0 0 0)
(0 0 0)
(0 0 0)
(0 0 0)
(0 0 0)
(0 0 0)
(0 0 0)
(0 0 0)
(0 0 0)
(0 0 0)
(0 0 0)
(0 0 0)
(0 0 0)
(0 0 0)
(0 0 0)
(0 0 0)
(0 0 0)
(0 0 0)
(0 0 0)
(0 0 0)
(0 0 0)
(0 0 0)
(0 0 0)
(0 0 0)
(0 0 0)
(0 0 0)
(0 0 0)
(0 0 0)
(0 0 0)
(0 0 0)
(0 0 0)
(0 0 0)
(0 0 0)
(0 0 0)
(0 0 0)
(0 0 0)
(0 0 0)
(0 0 0)
(0 0 0)
(0 0 0)
(0 0 0)
(0 0 0)
(0 0 0)
(0 0 0)
(0 0 0)
(0 0 0)
(0 0 0)
(0 0 0)
(0 0 0)
(0 0 0)
(0 0 0)
(0 0 0)
(0 0 0)
(0 0 0)
(0 0 0)
(0 0 0)
(0 0 0)
(0 0 0)
(0 0 0)
(0 0 0)
(0 0 0)
(0 0 0)
(0 0 0)
(0 0 0)
(0 0 0)
(0 0 0)
(0 0 0)
(0 0 0)
(0 0 0)
(0 0 0)
(0 0 0)
(0 0 0)
(0 0 0)
(0 0 0)
(0 0 0)
(0 0 0)
(0 0 0)
(0 0 0)
(0 0 0)
(0 0 0)
(0 0 0)
(0 0 0)
(0 0 0)
(0 0 0)
(0 0 0)
(0 0 0)
(0 0 0)
(0 0 0)
(0 0 0)
(0 0 0)
(0 0 0)
(0 0 0)
(0 0 0)
(0 0 0)
(0 0 0)
(0 0 0)
(0 0 0)
(0 0 0)
(0 0 0)
(0 0 0)
(0 0 0)
(0 0 0)
(0 0 0)
(0 0 0)
(0 0 0)
(0 0 0)
(0 0 0)
(0 0 0)
(0 0 0)
(0 0 0)
(0 0 0)
(0 0 0)
(0 0 0)
(0 0 0)
(0 0 0)
(0 0 0)
(0 0 0)
(0 0 0)
(0 0 0)
(0 0 0)
(0 0 0)
(0 0 0)
(0 0 0)
(0 0 0)
(0 0 0)
(0 0 0)
(0 0 0)
(0 0 0)
(0 0 0)
(0 0 0)
(0 0 0)
(0 0 0)
(0 0 0)
(0 0 0)
(0 0 0)
(0 0 0)
(0 0 0)
(0 0 0)
(0 0 0)
(0 0 0)
(0 0 0)
(0 0 0)
(0 0 0)
(0 0 0)
(0 0 0)
(0 0 0)
(0 0 0)
(0 0 0)
(0 0 0)
(0 0 0)
(0 0 0)
(0 0 0)
(0 0 0)
(0 0 0)
(0 0 0)
(0 0 0)
(0 0 0)
(0 0 0)
(0 0 0)
(0 0 0)
(0 0 0)
(0 0 0)
(0 0 0)
(0 0 0)
(0 0 0)
(0 0 0)
(0 0 0)
(0 0 0)
(0 0 0)
(0 0 0)
(0 0 0)
(0 0 0)
(0 0 0)
(0 0 0)
(0 0 0)
(0 0 0)
(0 0 0)
(0 0 0)
(0 0 0)
(0 0 0)
(0 0 0)
(0 0 0)
(0 0 0)
(0 0 0)
(0 0 0)
(0 0 0)
(0 0 0)
(0 0 0)
(0 0 0)
(0 0 0)
(0 0 0)
(0 0 0)
(0 0 0)
(0 0 0)
(0 0 0)
(0 0 0)
(0 0 0)
(0 0 0)
(0 0 0)
(0 0 0)
(0 0 0)
(0 0 0)
(0 0 0)
(0 0 0)
(0 0 0)
(0 0 0)
(0 0 0)
(0 0 0)
(0 0 0)
(0 0 0)
(0 0 0)
(0 0 0)
(0 0 0)
(0 0 0)
(0 0 0)
(0 0 0)
(0 0 0)
(0 0 0)
(0 0 0)
(0 0 0)
(0 0 0)
(0 0 0)
(0 0 0)
(0 0 0)
(0 0 0)
(0 0 0)
(0 0 0)
(0 0 0)
(0 0 0)
(0 0 0)
(0 0 0)
(0 0 0)
(0 0 0)
(0 0 0)
(0 0 0)
(0 0 0)
(0 0 0)
(0 0 0)
(0 0 0)
(0 0 0)
(0 0 0)
(0 0 0)
(0 0 0)
(0 0 0)
(0 0 0)
(0 0 0)
(0 0 0)
(0 0 0)
(0 0 0)
(0 0 0)
(0 0 0)
(0 0 0)
(0 0 0)
(0 0 0)
(0 0 0)
(0 0 0)
(0 0 0)
(0 0 0)
(0 0 0)
(0 0 0)
(0 0 0)
(0 0 0)
(0 0 0)
(0 0 0)
(0 0 0)
(0 0 0)
(0 0 0)
(0 0 0)
(0 0 0)
(0 0 0)
(0 0 0)
(0 0 0)
(0 0 0)
(0 0 0)
(0 0 0)
(0 0 0)
(0 0 0)
(0 0 0)
(0 0 0)
(0 0 0)
(0 0 0)
(0 0 0)
(0 0 0)
(0 0 0)
(0 0 0)
(0 0 0)
(0 0 0)
(0 0 0)
(0 0 0)
(0 0 0)
(0 0 0)
(0 0 0)
(0 0 0)
(0 0 0)
(0 0 0)
(0 0 0)
(0 0 0)
(0 0 0)
(0 0 0)
(0 0 0)
(0 0 0)
(0 0 0)
(0 0 0)
(0 0 0)
(0 0 0)
(0 0 0)
(0 0 0)
(0 0 0)
(0 0 0)
(0 0 0)
(0 0 0)
(0 0 0)
(0 0 0)
(0 0 0)
(0 0 0)
(0 0 0)
(0 0 0)
(0 0 0)
(0 0 0)
(0 0 0)
(0 0 0)
(0 0 0)
(0 0 0)
(0 0 0)
(0 0 0)
(0 0 0)
(0 0 0)
(0 0 0)
(0 0 0)
(0 0 0)
(0 0 0)
(0 0 0)
(0 0 0)
(0 0 0)
(0 0 0)
(0 0 0)
(0 0 0)
(0 0 0)
(0 0 0)
(0 0 0)
(0 0 0)
(0 0 0)
(0 0 0)
(0 0 0)
(0 0 0)
(0 0 0)
(0 0 0)
(0 0 0)
(0 0 0)
(0 0 0)
(0 0 0)
(0 0 0)
(0 0 0)
(0 0 0)
(0 0 0)
(0 0 0)
(0 0 0)
(0 0 0)
(0 0 0)
(0 0 0)
(0 0 0)
(0 0 0)
(0 0 0)
(0 0 0)
(0 0 0)
(0 0 0)
(0 0 0)
(0 0 0)
(0 0 0)
(0 0 0)
(0 0 0)
(0 0 0)
(0 0 0)
(0 0 0)
(0 0 0)
(0 0 0)
(0 0 0)
(0 0 0)
(0 0 0)
(0 0 0)
(0 0 0)
(0 0 0)
(0 0 0)
(0 0 0)
(0 0 0)
(0 0 0)
(0 0 0)
(0 0 0)
(0 0 0)
(0 0 0)
(0 0 0)
(0 0 0)
(0 0 0)
(0 0 0)
(0 0 0)
(0 0 0)
(0 0 0)
(0 0 0)
(0 0 0)
(0 0 0)
(0 0 0)
(0 0 0)
(0 0 0)
(0 0 0)
(0 0 0)
(0 0 0)
(0 0 0)
(0 0 0)
(0 0 0)
(0 0 0)
(0 0 0)
(0 0 0)
(0 0 0)
(0 0 0)
(0 0 0)
(0 0 0)
(0 0 0)
(0 0 0)
(0 0 0)
(0 0 0)
(0 0 0)
(0 0 0)
(0 0 0)
(0 0 0)
(0 0 0)
(0 0 0)
(0 0 0)
(0 0 0)
(0 0 0)
(0 0 0)
(0 0 0)
(0 0 0)
(0 0 0)
(0 0 0)
(0 0 0)
(0 0 0)
(0 0 0)
(0 0 0)
(0 0 0)
(0 0 0)
(0 0 0)
(0 0 0)
(0 0 0)
(0 0 0)
(0 0 0)
(0 0 0)
(0 0 0)
(0 0 0)
(0 0 0)
(0 0 0)
(0 0 0)
(0 0 0)
(0 0 0)
(0 0 0)
(0 0 0)
(0 0 0)
(0 0 0)
(0 0 0)
(0 0 0)
(0 0 0)
(0 0 0)
(0 0 0)
(0 0 0)
(0 0 0)
(0 0 0)
(0 0 0)
(0 0 0)
(0 0 0)
(0 0 0)
(0 0 0)
(0 0 0)
(0 0 0)
(0 0 0)
(0 0 0)
(0 0 0)
(0 0 0)
(0 0 0)
(0 0 0)
(0 0 0)
(0 0 0)
(0 0 0)
(0 0 0)
(0 0 0)
(0 0 0)
(0 0 0)
(0 0 0)
(0 0 0)
(0 0 0)
(0 0 0)
(0 0 0)
(0 0 0)
(0 0 0)
(0 0 0)
(0 0 0)
(0 0 0)
(0 0 0)
(0 0 0)
(0 0 0)
(0 0 0)
(0 0 0)
(0 0 0)
(0 0 0)
(0 0 0)
(0 0 0)
(0 0 0)
(0 0 0)
(0 0 0)
(0 0 0)
(0 0 0)
(0 0 0)
(0 0 0)
(0 0 0)
(0 0 0)
(0 0 0)
(0 0 0)
(0 0 0)
(0 0 0)
(0 0 0)
(0 0 0)
(0 0 0)
(0 0 0)
(0 0 0)
(0 0 0)
(0 0 0)
(0 0 0)
(0 0 0)
(0 0 0)
(0 0 0)
(0 0 0)
(0 0 0)
(0 0 0)
(0 0 0)
(0 0 0)
(0 0 0)
(0 0 0)
(0 0 0)
(0 0 0)
(0 0 0)
(0 0 0)
(0 0 0)
(0 0 0)
(0 0 0)
(0 0 0)
(0 0 0)
(0 0 0)
(0 0 0)
(0 0 0)
(0 0 0)
(0 0 0)
(0 0 0)
(0 0 0)
(0 0 0)
(0 0 0)
(0 0 0)
(0 0 0)
(0 0 0)
(0 0 0)
(0 0 0)
(0 0 0)
(0 0 0)
(0 0 0)
(0 0 0)
(0 0 0)
(0 0 0)
(0 0 0)
(0 0 0)
(0 0 0)
(0 0 0)
(0 0 0)
(0 0 0)
(0 0 0)
(0 0 0)
(0 0 0)
(0 0 0)
(0 0 0)
(0 0 0)
(0 0 0)
(0 0 0)
(0 0 0)
(0 0 0)
(0 0 0)
(0 0 0)
(0 0 0)
(0 0 0)
(0 0 0)
(0 0 0)
(0 0 0)
(0 0 0)
(0 0 0)
(0 0 0)
(0 0 0)
(0 0 0)
(0 0 0)
(0 0 0)
(0 0 0)
(0 0 0)
(0 0 0)
(0 0 0)
(0 0 0)
(0 0 0)
(0 0 0)
(0 0 0)
(0 0 0)
(0 0 0)
(0 0 0)
(0 0 0)
(0 0 0)
(0 0 0)
(0 0 0)
(0 0 0)
(0 0 0)
(0 0 0)
(0 0 0)
(0 0 0)
(0 0 0)
(0 0 0)
(0 0 0)
(0 0 0)
(0 0 0)
(0 0 0)
(0 0 0)
(0 0 0)
(0 0 0)
(0 0 0)
(0 0 0)
(0 0 0)
(0 0 0)
(0 0 0)
(0 0 0)
(0 0 0)
(0 0 0)
(0 0 0)
(0 0 0)
(0 0 0)
(0 0 0)
(0 0 0)
(0 0 0)
(0 0 0)
(0 0 0)
(0 0 0)
(0 0 0)
(0 0 0)
(0 0 0)
(0 0 0)
(0 0 0)
(0 0 0)
(0 0 0)
(0 0 0)
(0 0 0)
(0 0 0)
(0 0 0)
(0 0 0)
(0 0 0)
(0 0 0)
(0 0 0)
(0 0 0)
(0 0 0)
(0 0 0)
(0 0 0)
(0 0 0)
(0 0 0)
(0 0 0)
(0 0 0)
(0 0 0)
(0 0 0)
(0 0 0)
(0 0 0)
(0 0 0)
(0 0 0)
(0 0 0)
(0 0 0)
(0 0 0)
(0 0 0)
(0 0 0)
(0 0 0)
(0 0 0)
(0 0 0)
(0 0 0)
(0 0 0)
(0 0 0)
(0 0 0)
(0 0 0)
(0 0 0)
(0 0 0)
(0 0 0)
(0 0 0)
(0 0 0)
(0 0 0)
(0 0 0)
(0 0 0)
(0 0 0)
(0 0 0)
(0 0 0)
(0 0 0)
(0 0 0)
(0 0 0)
(0 0 0)
(0 0 0)
(0 0 0)
(0 0 0)
(0 0 0)
(0 0 0)
(0 0 0)
(0 0 0)
(0 0 0)
(0 0 0)
(0 0 0)
(0 0 0)
(0 0 0)
(0 0 0)
(0 0 0)
(0 0 0)
(0 0 0)
(0 0 0)
(0 0 0)
(0 0 0)
(0 0 0)
(0 0 0)
(0 0 0)
(0 0 0)
(0 0 0)
(0 0 0)
(0 0 0)
(0 0 0)
(0 0 0)
(0 0 0)
(0 0 0)
(0 0 0)
(0 0 0)
(0 0 0)
(0 0 0)
(0 0 0)
(0 0 0)
(0 0 0)
(0 0 0)
(0 0 0)
(0 0 0)
(0 0 0)
(0 0 0)
(0 0 0)
(0 0 0)
(0 0 0)
(0 0 0)
(0 0 0)
(0 0 0)
(0 0 0)
(0 0 0)
(0 0 0)
(0 0 0)
(0 0 0)
(0 0 0)
(0 0 0)
(0 0 0)
(0 0 0)
(0 0 0)
(0 0 0)
(0 0 0)
(0 0 0)
(0 0 0)
(0 0 0)
(0 0 0)
(0 0 0)
(0 0 0)
(0 0 0)
(0 0 0)
(0 0 0)
(0 0 0)
(0 0 0)
(0 0 0)
(0 0 0)
(0 0 0)
(0 0 0)
(0 0 0)
(0 0 0)
(0 0 0)
(0 0 0)
(0 0 0)
(0 0 0)
(0 0 0)
(0 0 0)
(0 0 0)
(0 0 0)
(0 0 0)
(0 0 0)
(0 0 0)
(0 0 0)
(0 0 0)
(0 0 0)
(0 0 0)
(0 0 0)
(0 0 0)
(0 0 0)
(0 0 0)
(0 0 0)
(0 0 0)
(0 0 0)
(0 0 0)
(0 0 0)
(0 0 0)
(0 0 0)
(0 0 0)
(0 0 0)
(0 0 0)
(0 0 0)
(0 0 0)
(0 0 0)
(0 0 0)
(0 0 0)
(0 0 0)
(0 0 0)
(0 0 0)
(0 0 0)
(0 0 0)
(0 0 0)
(0 0 0)
(0 0 0)
(0 0 0)
(0 0 0)
(0 0 0)
(0 0 0)
(0 0 0)
(0 0 0)
(0 0 0)
(0 0 0)
(0 0 0)
(0 0 0)
(0 0 0)
(0 0 0)
(0 0 0)
(0 0 0)
(0 0 0)
(0 0 0)
(0 0 0)
(0 0 0)
(0 0 0)
(0 0 0)
(0 0 0)
(0 0 0)
(0 0 0)
(0 0 0)
(0 0 0)
(0 0 0)
(0 0 0)
(0 0 0)
(0 0 0)
(0 0 0)
(0 0 0)
(0 0 0)
(0 0 0)
(0 0 0)
(0 0 0)
(0 0 0)
(0 0 0)
(0 0 0)
(0 0 0)
(0 0 0)
(0 0 0)
(0 0 0)
(0 0 0)
(0 0 0)
(0 0 0)
(0 0 0)
(0 0 0)
(0 0 0)
(0 0 0)
(0 0 0)
(0 0 0)
(0 0 0)
(0 0 0)
(0 0 0)
(0 0 0)
(0 0 0)
(0 0 0)
(0 0 0)
(0 0 0)
(0 0 0)
(0 0 0)
(0 0 0)
(0 0 0)
(0 0 0)
(0 0 0)
(0 0 0)
(0 0 0)
(0 0 0)
(0 0 0)
(0 0 0)
(0 0 0)
(0 0 0)
(0 0 0)
(0 0 0)
(0 0 0)
(0 0 0)
(0 0 0)
(0 0 0)
(0 0 0)
(0 0 0)
(0 0 0)
(0 0 0)
(0 0 0)
(0 0 0)
(0 0 0)
(0 0 0)
(0 0 0)
(0 0 0)
(0 0 0)
(0 0 0)
(0 0 0)
(0 0 0)
(0 0 0)
(0 0 0)
(0 0 0)
(0 0 0)
(0 0 0)
(0 0 0)
(0 0 0)
(0 0 0)
(0 0 0)
(0 0 0)
(0 0 0)
(0 0 0)
(0 0 0)
(0 0 0)
(0 0 0)
(0 0 0)
(0 0 0)
(0 0 0)
(0 0 0)
(0 0 0)
(0 0 0)
(0 0 0)
(0 0 0)
(0 0 0)
(0 0 0)
(0 0 0)
(0 0 0)
(0 0 0)
(0 0 0)
(0 0 0)
(0 0 0)
(0 0 0)
(0 0 0)
(0.0813519 0.00818591 -0.0142523)
(0.0114066 -0.00348395 0.0102241)
(0.0364568 0.0077119 0.0024912)
(-0.0039717 -0.017096 0.011998)
(0.00290518 -0.0220818 0.0097661)
(-0.0646156 -0.033708 0.0250382)
(-0.115681 0.0594121 0.00562266)
(-0.0416628 0.0579938 -0.0395655)
(0.0988016 -0.136842 0.00116185)
(0.0997942 -0.0643254 -0.00498875)
(0.155537 -0.0265581 0.0114621)
(0.158538 -0.15274 0.0171067)
(0.231208 -0.168764 0.0250437)
(0.112069 -0.0051529 0.0260878)
(0.0107848 -0.0197498 0.00636868)
(0.165859 -0.0471379 0.0202964)
(0.0778581 -0.0478128 0.0017117)
(-0.0206964 -0.0243502 0.030493)
(-0.0675922 0.101827 0.0439121)
(0.0485383 -0.0411195 0.0143172)
(-0.00375233 0.0448338 0.0209373)
(-0.0369334 0.130596 -0.00822201)
(0.0112071 0.0646762 -0.0280965)
(-0.0283929 0.130487 0.0181257)
(0.0337682 -0.0172738 0.0138237)
(-0.00332397 -0.183044 0.00998729)
(0.0385758 -0.268275 0.0215554)
(-0.0285921 -0.249279 -0.00287822)
(-0.025644 -0.388553 -0.0143903)
(0.0992268 -0.498017 -0.0151356)
(0.121749 -0.380553 -0.0246458)
(0.0722632 -0.510725 -0.0314938)
(0.149102 -0.516631 -0.0152786)
(0.120265 -0.0480146 -0.00585439)
(0.147676 -0.0674585 -0.00678574)
(0.179377 -0.201583 0.00727134)
(0.265754 -0.342534 0.0209824)
(0.0278575 -0.0189784 0.0135372)
(-0.0553365 -0.0144405 0.00642083)
(0.233105 -0.503782 0.0567362)
(0.241548 -0.649291 0.0524047)
(-0.0723255 -0.0988091 0.0105969)
(-0.0338848 -0.245011 0.00275957)
(0.0365779 -0.396212 0.022121)
(0.0271311 -0.339188 -0.00905985)
(0.00405967 -0.294873 -0.0119922)
(0.0354922 -0.293299 0.00106937)
(0.00538726 -0.178468 -0.0065807)
(-0.0122629 -0.1812 -0.00698131)
(-0.0277893 -0.327898 -0.0126914)
(-0.0295167 -0.233092 -0.0224567)
(0.0448713 -0.434826 -0.0217927)
(0.152255 -0.485424 0.00411508)
(0.028882 -0.301808 -0.0194144)
(0.12475 -0.372373 -0.00646666)
(0.205378 -0.524576 0.0380936)
(0.274433 -0.578635 0.0415568)
(0.180745 -0.431293 0.0129839)
(0.238648 -0.469844 0.0322134)
(0.309771 -0.589156 0.0538486)
(0.248892 -0.592483 0.0579214)
(0.293772 -0.490729 0.03453)
(0.269921 -0.500967 0.0528657)
(0.208921 -0.55089 0.0357852)
(0.209793 -0.498111 0.0102791)
(0.260451 -0.476804 0.0154364)
(0.26851 -0.437087 0.000992051)
(0.0977909 -0.296146 -0.00459884)
(0.0414074 -0.172519 -0.00543588)
(0.134416 -0.263953 -0.00651889)
(-0.0318774 -0.1406 -0.0430168)
(0.00271492 -0.158235 -0.0390261)
(0.0842531 -0.225802 -0.0184328)
(0.00518586 -0.0605079 -0.037714)
(0.0326566 -0.0849299 -0.0298301)
(0.147656 -0.294 0.00012876)
(0.191956 -0.333364 0.0147171)
(0.0827914 -0.153186 -0.0179588)
(0.142069 -0.186514 -0.0151783)
(0.268359 -0.352593 0.018977)
(0.281928 -0.368707 0.0146902)
(0.237783 -0.180407 -0.026474)
(0.294302 -0.226186 -0.0311616)
(0.293332 -0.365429 -0.0150571)
(0.260384 -0.301861 -0.0159639)
(0.289954 -0.223244 -0.0343277)
(0.222283 -0.206644 -0.00858683)
(0.116693 -0.189733 -0.00662359)
(0.0207325 -0.00805076 -0.0226679)
(0.0438939 -0.0531821 -0.0301624)
(0.113598 -0.0634537 -0.0349419)
(0.05199 -0.0153593 -0.0166055)
(0.195799 -0.0760331 -0.0466758)
(0.211997 -0.108259 -0.0306333)
(0.0850409 -0.0285519 -0.0254525)
(0.165475 -0.11706 -0.0192597)
(0.07675 -0.0292038 -0.0691451)
(0.0308854 -0.0368964 -0.066119)
(0.00302977 -0.0373391 0.138452)
(0.143219 -0.0687301 0.0524056)
(0.0428953 -0.118424 0.147983)
(-0.0179623 -0.0376177 0.101326)
(0.0760282 -0.0854744 0.109637)
(0.0663791 -0.189692 0.143783)
(-0.0433542 -0.0944781 0.124791)
(-0.00475445 0.0680196 -0.0365236)
(0.0870876 -0.111384 0.0350673)
(0.133069 -0.244223 0.133207)
(0.108354 0.0465013 -0.103142)
(-0.00330194 0.0413708 -0.118139)
(0.0465828 0.039821 -0.199383)
(0.101307 -0.158835 -0.0180245)
(0.0699972 -0.0975078 -0.0741229)
(0.18393 -0.189901 0.0363019)
(0.166655 -0.195005 0.00828214)
(0.257848 -0.351914 0.105153)
(0.0278705 -0.0264561 -0.0264824)
(0.124353 -0.158274 0.0470001)
(0.131809 -0.142983 -0.00739195)
(0.24711 -0.324215 0.115161)
(-0.00606907 0.0214246 -0.0902238)
(-0.0673688 -0.032038 0.0509147)
(-0.0319659 -0.11596 0.0177711)
(-0.0232582 -0.0154436 -0.0448404)
(0.00143943 0.0128763 -0.176981)
(-0.104992 -0.100649 0.0900237)
(-0.0897229 -0.0548879 0.014486)
(-0.0608571 -0.194407 -0.0084016)
(-0.0628805 -0.0335959 -0.0978508)
(0.0686696 -0.235918 -0.0165236)
(-0.00160753 -0.275368 0.0309638)
(0.0173952 -0.313997 0.0208244)
(0.0830677 -0.117468 -0.0838274)
(0.0206356 -0.0827362 -0.0235284)
(0.0933713 -0.110076 -0.0391681)
(0.0408389 -0.289225 0.00101245)
(0.000878564 -0.201986 -0.0209862)
(-0.0550643 -0.108596 -0.00784955)
(-0.00612991 -0.187081 0.00167033)
(-0.00528921 -0.144513 0.00775695)
(0.0146842 -0.246903 0.0126725)
(0.0287886 -0.131706 -0.0299807)
(0.0201034 -0.124173 0.0591079)
(0.130671 -0.0353905 0.047178)
(0.118315 0.0880799 -0.0214016)
(0.0379086 -0.262156 0.0171052)
(0.1411 -0.29318 0.032255)
(0.0909406 -0.280954 0.105802)
(0.0330959 -0.187686 0.0457835)
(0.112767 -0.247121 0.0933503)
(0.0217489 -0.0252282 -0.095464)
(0.100038 0.117073 -0.145259)
(0.151363 -0.14283 0.00224619)
(0.0494383 0.00594532 -0.0716197)
(0.0881961 -0.0486483 0.0141648)
(0.163688 0.085612 -0.125201)
(0.197354 -0.0233338 -0.00364939)
(0.08131 0.0514776 -0.108145)
(0.103483 -0.0184464 -0.00572476)
(0.222721 -0.274889 0.0560728)
(0.27211 -0.21265 0.0877508)
(0.2099 -0.205336 0.0439176)
(0.212267 -0.257883 0.184132)
(0.15044 -0.212247 0.11545)
(0.168749 -0.150558 0.120228)
(0.120863 -0.132031 0.0897379)
(0.104062 -0.175697 0.0768433)
(0.0299702 0.00645236 0.0626731)
(0.0388664 0.00221701 0.0637404)
(0.115117 -0.0426949 0.0846147)
(0.115646 -0.0133855 0.105849)
(0.0404793 -0.0372667 0.145684)
(0.0569081 -0.0535341 0.107424)
(0.0416992 -0.0191639 0.108551)
(0.246119 -0.114224 0.0796735)
(0.138414 -0.016798 0.0938977)
(0.143725 -0.0701225 0.0573807)
(0.179997 -0.094196 0.100821)
(0.0922367 -0.028132 0.0593403)
(0.162061 -0.0956503 0.109573)
(0.0046973 -0.00597651 -0.0552356)
(-0.00772813 0.00915836 -0.0681779)
(-0.0517109 -0.0418087 0.144525)
(0.0476232 -0.0857202 0.176261)
(0.0672286 -0.224446 0.205105)
(-0.0496058 -0.100847 0.164954)
(0.0470831 -0.0777911 0.242491)
(0.0707156 -0.251995 0.282107)
(0.147818 -0.247536 0.193013)
(0.0774729 0.014423 -0.101243)
(0.0186085 -0.0272992 0.0403608)
(0.100038 -0.168337 0.204433)
(0.0248079 0.00446793 -0.108809)
(0.034086 0.017806 -0.255149)
(9.85012e-05 -0.00725401 -0.251787)
(0.0361984 -0.050257 -0.102009)
(0.00614723 0.01626 -0.111842)
(0.0491057 -0.0427083 0.0294999)
(0.0897488 -0.0258127 0.0121774)
(0.223405 -0.233179 0.185893)
(-0.00107755 0.0205189 -0.0646555)
(0.0139989 0.0180467 -0.00759048)
(0.0506429 0.0647415 0.0231335)
(0.158497 -0.070419 0.242371)
(0.0197178 0.0252618 -0.315371)
(-0.0677865 -0.0861722 0.141873)
(-0.0553675 0.0170673 -0.051711)
(0.0146879 0.0362606 -0.120871)
(0.0151354 0.0175062 -0.296578)
(-0.0336224 -0.0914317 0.200627)
(-0.028746 0.0472972 -0.104883)
(0.00223731 0.0363712 -0.164276)
(0.0444456 0.104667 -0.214346)
(0.0651401 -0.0579778 -0.135331)
(0.0213981 -0.00469503 -0.149662)
(0.10334 -0.01897 -0.138201)
(0.0422408 0.023472 -0.188738)
(0.0191098 0.0555656 -0.25268)
(0.0748146 0.0570539 -0.225034)
(-0.0377097 -0.0877319 0.0429827)
(-0.0130315 -0.0447366 0.0101532)
(-0.00139805 0.055951 -0.0787406)
(-0.0400671 0.0019534 0.0304316)
(-0.00902016 0.0121991 -0.0371938)
(0.144228 0.104272 -0.0644005)
(0.126765 0.176844 -0.127189)
(0.033051 0.0859406 -0.218935)
(0.109058 0.11145 -0.180398)
(0.0888466 0.148887 -0.19544)
(-0.000497178 -0.0475768 0.0226315)
(0.011769 -0.109373 0.151233)
(-0.0643828 -0.0142309 0.0397252)
(-0.0124068 0.0192709 -0.0422369)
(-0.0347655 0.0324268 0.0937288)
(0.110144 0.184921 -0.188296)
(0.0693432 0.086866 -0.366844)
(0.180428 0.0754864 0.0339055)
(0.0572801 0.0564251 -0.170945)
(0.0629065 0.0240185 -0.033506)
(0.01218 0.150008 -0.153668)
(0.0269612 0.102373 0.0333919)
(0.04362 0.0856411 -0.424583)
(0.012034 0.185973 -0.222994)
(0.0267969 -0.0816227 0.150227)
(0.0739565 -0.0557098 0.144031)
(0.0312893 -0.0429127 0.0943429)
(0.0625032 0.0349652 0.299683)
(-0.0220669 0.0277018 0.166571)
(0.0477207 0.0440794 0.16791)
(-0.0193053 0.0367239 0.113888)
(-0.0427433 0.0538418 0.0885607)
(0.0232136 0.0145524 0.0413204)
(0.023852 0.00866914 -0.0301865)
(0.00566913 -0.00851861 0.0943226)
(-0.0144618 0.000603979 0.0873475)
(0.0323245 -0.00469136 0.128817)
(0.00303361 -0.000385752 0.121894)
(-0.0123731 0.00945014 0.113918)
(0.104371 -0.0338193 0.0911346)
(0.0126076 0.00872353 -0.0173066)
(-0.0221609 0.232351 -0.101499)
(0.0335 0.173628 -0.0278502)
(-0.0657441 0.0633339 0.0168663)
(0.038488 0.0124401 0.117886)
(-0.0129279 0.0165494 -0.0875934)
(-0.00807825 0.0114662 -0.100704)
(-0.0398623 -0.0284631 0.00467032)
(0.0467876 0.0122365 0.212554)
(0.0557219 -0.201763 0.318326)
(-0.0238034 0.0139318 -0.0699457)
(0.0173022 0.0468661 0.0994294)
(0.0576164 -0.104953 0.338795)
(0.0519348 -0.0811651 0.180552)
(-0.0281515 -0.0119943 -0.145872)
(-0.0516625 -0.00758402 -0.0992036)
(0.00195596 -0.0414801 0.120287)
(-0.0358129 -0.0218285 -0.148223)
(-0.00967941 -0.0152349 -0.221775)
(0.00114478 -0.00639227 -0.186561)