/*--------------------------------*- C++ -*----------------------------------*\
| =========                 |                                                 |
| \\      /  F ield         | OpenFOAM: The Open Source CFD Toolbox           |
|  \\    /   O peration     | Version:  5.x                                   |
|   \\  /    A nd           | Web:      www.OpenFOAM.org                      |
|    \\/     M anipulation  |                                                 |
\*---------------------------------------------------------------------------*/
FoamFile
{
    version     2.0;
    format      ascii;
    class       surfaceScalarField;
    location    "4.55";
    object      phi;
}
// * * * * * * * * * * * * * * * * * * * * * * * * * * * * * * * * * * * * * //

dimensions      [0 3 -1 0 0 0 0];

internalField   nonuniform List<scalar> 
29271
(
-6.80315e-06
-2.06806e-07
1.4013e-06
5.67294e-06
-6.70341e-06
2.95684e-07
8.14409e-07
5.69807e-06
-1.67166e-05
-1.3691e-06
-1.64809e-06
1.7236e-06
2.53683e-06
1.54733e-05
-2.41335e-05
-2.83353e-06
-8.44379e-07
1.96695e-06
4.61414e-06
2.12303e-05
-1.77034e-05
-2.82027e-06
2.38581e-06
3.18765e-06
1.79694e-05
-3.01917e-06
-1.41566e-05
-1.69777e-06
2.49436e-06
1.79887e-07
2.63136e-06
1.05488e-05
-1.94155e-05
-2.71621e-06
-3.32937e-06
6.58324e-07
1.82052e-06
2.29823e-05
-1.7825e-05
-3.1417e-06
-2.04919e-06
9.8474e-07
-1.20435e-06
2.32355e-05
-2.01747e-05
2.70636e-06
3.74687e-06
-3.8661e-06
-5.73021e-06
2.33177e-05
-1.49127e-05
3.80173e-06
-6.50138e-06
1.41788e-05
3.4608e-06
-7.67784e-06
-1.85218e-07
-2.74271e-06
1.02872e-05
-1.60689e-05
5.57546e-06
2.88379e-08
-7.87162e-07
-3.05894e-06
1.43107e-05
-1.95668e-05
3.3221e-06
-4.80291e-07
-1.75196e-06
-4.6452e-06
2.31222e-05
-1.72073e-05
6.37829e-06
1.23455e-06
-2.79929e-06
-4.8325e-06
1.72263e-05
-1.435e-05
5.31368e-06
2.8404e-06
-2.02193e-06
-3.6462e-06
1.18641e-05
-1.57734e-05
3.51533e-06
2.14191e-06
-2.65643e-06
1.2289e-05
4.83522e-07
-1.72363e-05
2.57244e-06
-2.48271e-06
-2.54816e-06
1.65445e-05
3.15026e-06
-1.80598e-05
9.5158e-07
4.35335e-06
-1.54735e-06
-1.77366e-06
1.60759e-05
-1.33491e-05
2.67253e-06
2.30379e-06
-2.26193e-06
5.46851e-07
1.00879e-05
-1.43721e-05
-1.30447e-06
1.52374e-06
1.05639e-05
1.47412e-06
2.11482e-06
-5.72542e-06
1.18217e-06
-1.8965e-07
4.80524e-06
-2.00303e-05
-3.19151e-08
2.0663e-06
2.08909e-05
-2.78648e-06
-2.01102e-05
4.00167e-06
-1.88946e-05
2.12025e-05
2.00819e-05
-6.28127e-06
-7.52991e-06
-6.42031e-06
8.66693e-06
5.29006e-06
-3.58233e-06
2.77328e-07
1.36987e-06
1.93817e-06
-4.57223e-06
-1.96939e-07
5.00785e-07
4.29777e-06
-1.56758e-07
-1.94809e-07
-1.63909e-05
-1.17114e-06
-2.31203e-06
2.02257e-05
-2.13589e-06
-1.64098e-05
1.41531e-06
2.66259e-06
3.00971e-06
1.14581e-05
-2.31598e-05
-9.60966e-07
-1.00689e-06
-7.98894e-06
3.81001e-05
-4.98345e-06
-5.72833e-07
8.40758e-07
-8.20446e-06
-2.08206e-06
6.47492e-07
9.37111e-06
-1.3197e-05
-6.15667e-06
7.21472e-05
-2.43761e-05
-1.69062e-05
-4.10155e-05
-2.40868e-05
3.05983e-06
6.9246e-06
9.07622e-06
1.10253e-05
2.11572e-06
3.40503e-06
5.58031e-06
1.24042e-05
3.91045e-06
-2.39996e-05
0.00010233
-2.84274e-05
-4.92434e-05
-3.44959e-05
-1.78879e-05
6.60187e-06
8.29502e-06
9.16006e-06
1.05598e-05
-2.18422e-06
-2.33629e-05
2.9051e-05
1.32506e-05
1.82181e-05
1.4407e-05
1.69857e-05
-1.77125e-06
-1.79141e-06
-1.38564e-06
-2.23881e-05
-1.34351e-05
-1.09689e-05
-1.07145e-05
-1.38959e-05
8.83785e-06
-9.11503e-06
1.19513e-05
-1.94369e-05
-5.7219e-06
1.01342e-06
2.41454e-05
5.52893e-06
-1.09229e-05
-6.07987e-07
-5.34201e-06
-2.23042e-07
1.1567e-05
-2.02684e-05
-8.25686e-06
6.35268e-05
-2.55493e-05
-1.51189e-05
-1.85323e-05
-1.49204e-05
4.79501e-06
3.17015e-06
1.1569e-05
1.34284e-05
-7.99442e-06
-1.10853e-05
1.45671e-05
-1.19159e-05
-8.14943e-06
-9.88412e-06
-9.80582e-06
-6.79407e-07
-2.132e-06
1.20774e-05
-9.86989e-07
-4.27451e-07
-7.77389e-07
-1.70983e-06
-1.2706e-06
-1.31414e-06
-8.29072e-06
-8.49551e-06
-8.54241e-06
-8.80831e-06
-8.98004e-06
2.84988e-06
2.29406e-06
-2.4235e-06
5.5802e-06
-1.95227e-05
8.17442e-07
-1.31087e-06
-1.18481e-06
2.03013e-05
8.99725e-07
-9.87442e-06
-7.80034e-06
5.94611e-05
1.57505e-06
2.06292e-06
1.60225e-05
5.82711e-06
-1.56919e-05
-3.84819e-06
-6.76943e-06
-1.34026e-05
-1.08317e-05
-1.32373e-05
-1.17497e-05
-1.54599e-06
-4.65462e-06
2.22704e-05
-9.74522e-07
-8.69177e-07
-7.67877e-07
-2.74712e-06
-2.30177e-06
-1.52553e-06
-7.60564e-06
-7.43168e-06
-6.42823e-06
-6.37794e-06
-8.22451e-06
-5.24911e-07
-6.72204e-07
5.74363e-06
-4.07773e-06
1.04527e-06
-3.12086e-07
3.38737e-06
-1.79443e-05
3.23331e-06
-8.19821e-06
1.52614e-05
-1.43193e-05
1.89969e-06
4.67243e-07
-3.99951e-06
1.12972e-05
-3.54439e-06
6.37641e-07
-1.33611e-07
3.06406e-06
-9.39963e-07
5.20066e-07
7.07949e-08
3.68198e-07
-4.62395e-06
-3.21328e-06
2.18767e-06
5.6483e-06
3.09663e-06
6.13215e-06
-2.91966e-05
-5.13899e-06
-7.37319e-06
3.248e-05
1.54274e-06
-1.04852e-05
2.98871e-06
-5.14361e-06
-4.28361e-06
1.5381e-05
-5.81729e-05
1.82292e-05
-2.48168e-05
-1.76494e-05
6.70362e-05
1.53738e-05
-1.63777e-06
4.61326e-06
-1.29662e-05
-4.20353e-06
7.56364e-07
1.34379e-05
-2.75085e-06
4.12082e-06
2.02234e-05
6.83161e-06
6.14583e-06
6.18407e-06
7.08847e-06
3.14354e-06
6.94288e-06
6.08375e-06
8.13366e-06
-1.30564e-06
-5.47213e-06
6.70429e-05
5.44336e-06
1.10224e-05
1.0176e-05
1.26724e-05
-3.88264e-06
-1.11002e-05
1.76729e-05
9.71743e-06
1.03805e-05
6.36844e-06
2.74272e-06
-1.30431e-06
-1.50685e-06
-1.34265e-06
-7.20712e-06
7.00558e-06
-4.24389e-06
5.9569e-07
-2.24095e-05
-1.62257e-06
3.52111e-06
2.05233e-05
2.10083e-07
-1.58173e-05
6.88589e-07
-6.35485e-06
-1.05831e-06
2.23318e-05
-9.38904e-06
1.63251e-06
2.99663e-05
1.12315e-05
1.22777e-05
1.03093e-05
1.16194e-05
-1.53188e-06
1.46717e-06
-2.29402e-07
-5.34705e-07
-7.02247e-07
3.78683e-06
-7.53499e-07
-4.57409e-07
-6.49508e-07
-6.70944e-07
-1.78894e-07
-3.94299e-07
-3.2778e-06
1.42758e-06
7.33586e-07
-1.16405e-06
1.74598e-06
-3.04565e-05
-1.79686e-06
-8.48164e-06
5.75517e-06
3.6255e-05
-1.27523e-06
-1.2402e-05
-6.46129e-07
6.10292e-05
1.10885e-05
3.29337e-06
5.19637e-06
-2.79084e-06
-5.47272e-07
-5.21152e-07
-2.6064e-06
-1.44787e-06
-5.74192e-07
1.69755e-05
-1.22872e-06
-1.12459e-06
-1.16672e-06
-5.17477e-07
2.05544e-07
2.14046e-07
-4.45231e-06
-5.81849e-07
-1.48786e-07
3.03283e-06
-2.96325e-06
3.17867e-07
-1.29676e-08
2.65433e-06
-1.49964e-05
3.1545e-06
-3.67677e-06
1.49106e-05
-1.16991e-05
1.41314e-06
-4.82703e-07
-6.78525e-07
1.0873e-05
-2.81376e-06
-7.64495e-08
3.56308e-07
2.54136e-06
-7.77127e-07
2.11473e-06
-3.23936e-06
1.88307e-06
-9.22678e-06
-6.17168e-06
3.10539e-06
1.22931e-05
4.15957e-06
8.58288e-06
-3.50248e-05
-6.38892e-06
-8.39332e-06
3.70646e-05
3.4813e-06
-2.1218e-05
6.52753e-06
-8.51835e-06
-4.94975e-06
2.46773e-05
-6.39407e-05
1.37715e-05
-9.9526e-06
-8.96909e-06
5.8889e-05
1.0202e-05
-2.08289e-06
3.01636e-06
-1.63989e-05
-3.01955e-06
-6.63135e-07
1.91481e-05
1.89262e-06
8.77855e-06
-4.24227e-06
2.97537e-06
3.44405e-06
-6.4101e-07
2.07972e-06
1.42791e-06
5.91068e-06
-2.8717e-06
1.46947e-06
-6.17993e-06
4.13996e-06
5.81157e-05
3.39955e-06
5.88377e-06
9.93713e-07
2.58269e-06
-1.17433e-06
-2.80651e-06
1.06893e-05
4.49387e-06
1.15355e-07
3.83706e-06
1.1852e-07
-1.23798e-06
-1.3415e-06
-1.20081e-06
6.58542e-07
-2.69558e-07
-5.89482e-08
-1.46603e-06
-2.0306e-05
-2.28352e-06
1.78868e-06
2.08009e-05
4.90445e-06
-2.74989e-05
1.27848e-06
-9.56115e-06
1.87174e-07
3.06899e-05
3.95681e-07
-4.52094e-06
1.3996e-05
7.59755e-06
9.28708e-06
5.53487e-06
6.45461e-06
2.99363e-07
6.38246e-06
-2.37559e-06
-4.58626e-07
3.87848e-07
1.21584e-06
-5.821e-07
-3.69543e-07
-3.82756e-07
1.49695e-07
8.62793e-07
4.56525e-07
-9.08629e-07
2.08632e-07
-2.03943e-08
-2.04051e-08
2.82169e-07
-3.91195e-05
-4.10355e-06
-1.79458e-06
8.14621e-06
4.0834e-05
-3.96253e-06
-4.97601e-06
-9.2713e-07
6.59854e-05
3.60741e-06
-3.21812e-06
3.6125e-06
-3.2561e-06
-1.00924e-06
-7.79991e-07
-2.53042e-06
-9.22414e-07
1.88345e-06
1.91025e-05
-6.50809e-07
-4.1487e-07
-7.56182e-07
1.68428e-06
-6.70838e-07
-8.7313e-07
-1.87222e-06
-4.89006e-07
9.83932e-07
8.42724e-07
-2.35986e-06
9.89832e-09
5.13321e-07
1.82991e-06
-1.65518e-05
-3.56721e-06
3.8196e-06
1.53722e-05
-1.03296e-05
-2.0286e-06
-4.80596e-07
-1.93969e-07
1.49162e-05
-2.93374e-06
-2.27708e-06
1.01105e-06
4.11117e-06
-3.75341e-06
2.57254e-06
-5.61224e-06
6.78774e-06
-1.40127e-05
-5.33642e-06
4.56735e-06
1.47818e-05
1.82985e-06
7.54464e-06
-3.65877e-05
-5.77228e-06
-1.01576e-06
3.40013e-05
2.15441e-06
-2.5981e-05
5.30044e-06
-5.81922e-06
-2.89989e-06
2.72452e-05
-5.49121e-05
6.11741e-06
-2.56397e-06
-4.89719e-06
5.23071e-05
3.9488e-06
-3.43683e-06
8.69687e-07
-2.11505e-05
6.34164e-07
-4.96573e-07
2.358e-05
-8.02026e-06
-1.11366e-06
4.13926e-06
-1.50799e-06
1.5465e-06
-2.33799e-06
1.57687e-06
-7.54041e-07
1.37696e-06
-1.29163e-07
9.81241e-07
-3.52878e-07
9.86079e-06
2.57992e-05
2.81809e-06
3.17079e-06
4.32814e-06
4.47137e-06
1.55327e-07
5.85435e-06
-1.56467e-06
2.39896e-06
8.1573e-07
3.62908e-06
-1.02731e-06
-3.26115e-07
5.15225e-07
-1.14165e-07
2.75553e-06
-1.07243e-06
1.13114e-06
-2.65433e-06
-2.0849e-05
-1.89345e-06
2.34395e-06
2.03985e-05
3.4436e-06
-3.22647e-05
1.34229e-06
-6.77971e-06
1.47548e-06
3.27831e-05
3.46114e-06
-1.36107e-05
1.01394e-05
3.77695e-06
4.08616e-06
2.41685e-06
2.61253e-06
3.30161e-06
4.6721e-06
2.97264e-06
5.56569e-07
2.64352e-06
1.61487e-06
7.71858e-07
7.48057e-07
1.23701e-06
2.00219e-06
-1.26408e-07
9.24139e-07
4.07387e-08
-8.50655e-07
-5.39732e-07
1.34124e-06
5.6498e-07
-4.24653e-05
-3.8282e-06
-6.96894e-07
8.19899e-06
4.34948e-05
-4.70343e-06
-1.12179e-06
-1.30819e-06
6.71948e-05
1.85437e-06
-3.84507e-06
2.05177e-06
-3.50762e-06
-3.70685e-06
-1.34956e-06
-3.8872e-06
6.6316e-07
-1.84992e-06
2.93213e-05
1.98158e-07
4.85113e-07
5.28378e-07
-2.03923e-06
-2.10658e-06
-2.54755e-06
1.55676e-07
4.86618e-07
1.8659e-06
7.98484e-07
-1.65947e-06
-9.25433e-07
-1.59652e-07
2.4528e-06
-1.58444e-05
-3.25521e-06
1.31458e-06
1.64768e-05
-1.54429e-05
-1.13809e-06
2.22054e-06
-1.63533e-06
1.41459e-05
-6.88835e-06
2.6633e-07
-5.20248e-07
7.14256e-06
-7.83079e-06
1.22986e-06
-1.91585e-06
8.51678e-06
-1.46367e-05
-1.72033e-06
1.72042e-06
1.46366e-05
1.74418e-07
5.6355e-06
-3.04716e-05
-4.46736e-06
1.13846e-06
2.79906e-05
2.70566e-06
-2.87714e-05
4.0934e-06
-4.29094e-06
-4.70744e-06
3.09707e-05
-5.02443e-05
6.61723e-06
-3.40145e-06
-4.77739e-06
4.75172e-05
4.28878e-06
-1.74531e-06
1.07134e-06
-2.54297e-05
1.116e-06
-2.08248e-07
2.51959e-05
-3.86933e-06
-2.43809e-06
2.92701e-05
-3.31117e-06
-7.2171e-07
-2.79445e-06
-1.31964e-06
-2.37943e-06
-1.85402e-06
-2.98066e-06
-3.46238e-06
-1.89978e-06
-7.43217e-07
1.04684e-05
3.70416e-06
3.35642e-06
3.64214e-06
3.40169e-06
1.34311e-07
6.05272e-07
-7.33993e-06
2.9964e-06
-2.54009e-06
2.65772e-06
-1.5497e-06
4.05684e-07
5.42266e-07
6.23622e-07
2.76242e-06
-7.27902e-07
-5.25208e-07
2.07608e-06
-3.45108e-06
-6.87105e-08
1.16759e-09
-5.75485e-08
1.27237e-07
-1.98995e-05
-1.13666e-06
1.40801e-06
1.96282e-05
3.27094e-06
-3.20095e-05
1.39208e-06
-4.6194e-06
1.25369e-06
3.07122e-05
-3.94585e-06
-1.67358e-05
2.0254e-05
2.29118e-06
2.37329e-06
1.42679e-06
2.0376e-06
-1.48571e-06
-9.80026e-06
9.56953e-06
1.40644e-08
-1.66081e-06
8.03795e-06
-2.29379e-07
-8.25596e-07
-4.9948e-07
-5.99421e-07
-2.23408e-06
-1.26882e-06
-9.77483e-07
-1.54293e-06
-1.60504e-07
2.19098e-06
5.04003e-07
-6.97621e-08
-3.19022e-08
-4.97226e-10
6.77092e-09
9.36687e-08
-4.45407e-05
-3.52693e-06
-3.46903e-07
7.60452e-06
4.51818e-05
-4.37174e-06
-7.54144e-08
-1.50478e-06
6.39678e-05
8.02152e-07
-3.56787e-06
1.22214e-06
-3.43881e-06
-3.32132e-06
-1.39959e-06
-2.22529e-06
-4.39513e-07
-3.08994e-06
3.08647e-05
6.11838e-07
-3.03948e-07
1.29117e-06
-3.67127e-06
-2.5441e-06
-3.27329e-06
-2.42486e-06
-7.91454e-07
-2.99055e-06
4.10653e-06
-5.31605e-06
-1.19255e-06
7.51751e-07
5.75685e-06
-1.70223e-05
-2.95166e-06
1.66045e-06
1.68087e-05
-1.19109e-05
-1.16019e-06
2.95453e-06
-1.75297e-06
8.77957e-06
-4.58952e-06
4.40057e-06
-2.0986e-06
2.28755e-06
-9.48314e-06
1.76304e-06
-2.97992e-06
1.07e-05
-1.54625e-05
-4.0921e-06
2.32945e-06
1.72252e-05
-1.71831e-06
5.55806e-06
-2.6952e-05
-5.2997e-06
9.88511e-07
2.74235e-05
2.60775e-06
-3.28418e-05
4.72767e-06
-5.24345e-06
-3.68703e-06
3.44368e-05
-4.51962e-05
5.84242e-06
-4.52491e-06
-3.27892e-06
4.22954e-05
4.86223e-06
-1.71276e-06
1.54045e-07
-2.42218e-05
2.36132e-06
-2.52205e-07
2.36714e-05
7.0876e-06
2.19077e-06
3.68385e-05
-1.79609e-06
-1.97531e-06
-8.75833e-07
-1.13879e-06
-2.77661e-06
-3.35421e-06
-2.18912e-06
-2.74078e-06
2.59167e-06
-3.00953e-06
9.49769e-06
2.22709e-06
2.0392e-06
2.19058e-06
2.01935e-06
2.26318e-07
-6.35825e-06
1.33987e-06
1.75111e-06
-9.22291e-07
2.17602e-06
-9.49703e-08
-9.90185e-07
-4.94983e-07
-1.3809e-06
4.33222e-06
-1.83726e-06
4.0076e-08
2.00143e-08
-2.32873e-06
-1.98193e-07
1.50959e-06
7.45156e-07
-6.86845e-07
-1.12635e-06
-2.43356e-07
-1.94724e-05
-8.31357e-07
9.54092e-07
1.93496e-05
2.81629e-06
-2.87117e-05
2.1791e-06
-2.93774e-06
1.09141e-07
2.65449e-05
5.11265e-07
-1.33379e-05
2.98106e-05
6.37413e-07
1.94544e-06
3.07606e-07
2.57042e-06
2.58855e-06
-1.36888e-05
1.81715e-05
-1.04833e-06
-3.45473e-06
1.96359e-05
-7.75814e-07
-3.59793e-07
-3.47021e-07
-2.87159e-06
-3.37324e-06
-3.13714e-06
-1.84923e-06
1.16613e-06
-1.86005e-06
-1.21048e-06
2.7053e-06
6.07279e-08
4.49644e-07
1.81349e-06
-1.21618e-06
4.20335e-08
-1.14972e-06
-4.55385e-05
-3.40488e-06
2.67213e-07
6.84897e-06
4.55107e-05
-3.68348e-06
1.83121e-06
-6.43586e-07
5.6683e-05
2.02746e-07
-3.41386e-06
8.11958e-07
-3.27971e-06
-1.0658e-06
-1.30086e-07
-3.65967e-07
1.74871e-07
-2.46542e-06
2.39053e-05
1.9509e-06
8.18775e-07
2.2072e-06
-2.8029e-06
-2.24118e-06
-2.54053e-06
-5.57466e-06
1.62926e-07
-3.41108e-06
5.54295e-06
-4.71809e-06
1.42546e-07
-7.18886e-07
8.8912e-08
5.20552e-06
1.51865e-08
8.71534e-07
-8.62865e-07
-2.38555e-08
-1.57954e-05
-2.79438e-06
3.60096e-06
1.43452e-05
-6.01597e-06
-3.30159e-06
5.60054e-06
-2.76603e-06
4.01764e-06
-1.27813e-06
3.9617e-06
-3.67464e-06
9.9107e-07
-1.18359e-05
2.80146e-06
-3.91583e-06
1.29503e-05
-1.91552e-05
-7.2606e-06
6.50209e-06
1.99137e-05
-2.31561e-06
6.57621e-06
-2.85513e-05
-6.462e-06
7.83656e-07
2.99691e-05
2.8472e-06
-3.57431e-05
6.65249e-06
-7.0988e-06
-2.8819e-06
3.62241e-05
-3.65063e-05
5.80274e-06
-1.85827e-06
-3.28401e-06
2.80069e-05
7.83898e-06
-6.16804e-06
-1.03435e-06
-2.37818e-05
3.54036e-06
3.05113e-06
2.43927e-05
1.34301e-05
5.05923e-06
3.82703e-05
-1.35842e-06
-1.34083e-06
-1.73318e-06
-6.80654e-07
-3.15091e-06
-3.91062e-06
-3.73563e-06
-4.0108e-06
7.50994e-06
-5.28195e-06
1.51738e-05
1.37392e-06
1.38214e-06
1.34811e-06
1.42179e-06
-5.51775e-08
-9.67146e-06
1.06466e-05
2.7793e-06
1.67617e-06
2.4418e-06
1.51851e-06
-7.54843e-07
-8.61091e-08
3.55048e-07
1.10563e-06
1.4907e-07
-7.51792e-08
-1.22744e-06
-7.26394e-09
1.11901e-06
4.3431e-07
4.86047e-08
1.90267e-07
5.32518e-07
-2.32471e-06
-1.92638e-05
-6.14437e-07
7.28794e-07
1.91494e-05
2.27521e-06
-2.49154e-05
2.27177e-07
-1.66927e-06
7.58497e-08
2.40064e-05
7.91707e-06
-9.24151e-06
3.49603e-05
-1.27178e-06
1.85345e-06
-1.4299e-06
2.08214e-06
9.22303e-06
-1.08408e-05
2.24244e-05
1.04134e-06
-3.1374e-06
2.47188e-05
1.1716e-06
1.74129e-06
2.20535e-06
-3.14369e-06
-2.53181e-06
-2.87803e-06
-3.73917e-06
1.93654e-06
4.77117e-08
-2.18641e-06
4.98268e-06
1.91087e-06
-1.18165e-06
6.89966e-07
-8.15555e-07
9.15341e-07
-1.51898e-06
-4.53824e-05
-3.40575e-06
5.24695e-07
5.76282e-06
4.52483e-05
-2.74764e-06
1.19083e-05
3.92762e-07
4.08874e-05
-4.33832e-07
-3.90342e-06
3.34781e-07
-3.66896e-06
5.08369e-07
6.48487e-07
7.67611e-07
2.56202e-06
-1.62495e-06
1.80349e-05
3.54505e-06
3.6126e-06
3.67323e-06
-1.68552e-06
-1.50906e-06
-1.63537e-06
-5.39198e-06
2.20156e-06
-2.77175e-06
5.38678e-06
-5.02459e-06
2.15507e-06
-3.07611e-06
1.54083e-06
4.4048e-06
-1.01509e-06
-1.3002e-07
-6.84189e-07
-5.1953e-08
1.88125e-06
-1.24524e-05
-3.1236e-06
5.90974e-06
1.0059e-05
-2.5454e-06
-5.15632e-06
6.66702e-06
-2.94255e-06
2.3523e-06
-1.08868e-06
3.74435e-06
-4.30223e-06
1.64656e-06
-1.40575e-05
3.93516e-06
-4.84755e-06
1.49699e-05
-1.98558e-05
-7.03161e-06
7.17017e-06
1.97172e-05
-2.1197e-06
6.64847e-06
-3.17527e-05
-7.58525e-06
1.33213e-06
3.34771e-05
2.84192e-06
-3.63535e-05
7.6387e-06
-7.74086e-06
-2.78676e-06
3.64005e-05
-1.92178e-05
4.90497e-06
-1.38663e-06
-2.6302e-06
1.29502e-05
5.37938e-06
-7.60092e-06
-2.35253e-06
-2.46581e-05
5.09534e-06
5.37187e-06
2.41444e-05
2.34443e-05
5.27804e-06
3.68945e-05
-1.82516e-06
-3.75737e-07
-3.10488e-06
-7.32942e-07
-5.17185e-06
-5.18391e-06
-5.8249e-06
-5.12724e-06
1.5286e-05
-5.84739e-06
2.11727e-05
2.18447e-06
1.85174e-06
2.13802e-06
1.83255e-06
7.8634e-07
-9.45944e-06
2.18309e-05
2.25686e-06
1.98351e-06
2.56018e-06
2.25976e-06
1.2216e-06
7.91125e-07
1.70175e-06
-1.22374e-06
1.32539e-06
-3.28066e-08
-1.61534e-06
2.33284e-06
3.59908e-06
-4.02289e-07
5.66589e-07
-1.39547e-06
-2.36791e-06
-1.89857e-05
-6.7316e-07
8.48074e-07
1.88108e-05
1.62838e-06
-2.36384e-05
-2.05588e-06
-9.33729e-07
8.15854e-07
2.41838e-05
1.60617e-05
-3.63256e-06
3.14327e-05
-2.50753e-06
8.6932e-07
-1.92956e-06
-5.57495e-08
1.49167e-05
-5.09181e-06
2.28139e-05
2.26474e-06
-2.02024e-06
2.93145e-05
2.5356e-06
2.33727e-06
2.0876e-06
-2.31818e-06
-1.6629e-06
-2.36234e-06
-5.7498e-06
1.72165e-06
2.10329e-06
-2.17695e-06
6.36656e-06
-1.86375e-07
2.35178e-06
-2.38895e-06
1.75158e-06
-2.67362e-06
1.14558e-06
-4.56467e-05
-3.55497e-06
6.01069e-07
4.36369e-06
4.58589e-05
-1.62199e-06
2.25378e-05
1.42746e-06
2.21952e-05
-1.58489e-06
-4.69445e-06
-2.43372e-06
-4.52869e-06
1.27198e-06
1.75259e-06
1.31156e-06
4.76216e-06
-8.09945e-07
1.97134e-05
4.53261e-06
5.36591e-06
4.67299e-06
-1.05252e-06
-7.02024e-07
-1.00164e-06
-5.43969e-06
3.74023e-06
-1.76668e-06
6.20806e-06
-2.84222e-06
2.45667e-06
-3.75558e-06
4.14112e-06
-7.27354e-06
-4.81943e-06
8.37377e-06
5.14666e-06
-2.68513e-06
-6.13372e-06
6.48652e-06
-2.72108e-06
4.24346e-06
-2.45295e-06
2.78288e-06
-3.64759e-06
3.31766e-06
-1.58053e-05
4.40064e-06
-5.00694e-06
1.64116e-05
-1.99999e-05
-5.27647e-06
4.87497e-06
2.04014e-05
-2.08966e-06
5.83993e-06
-3.47636e-05
-7.20412e-06
2.43251e-06
3.57849e-05
2.23695e-06
-3.58804e-05
7.44086e-06
-6.89929e-06
-1.4585e-06
3.45604e-05
-9.88397e-06
3.89142e-06
-3.78428e-06
-3.49642e-06
8.8194e-06
4.45386e-06
-6.69314e-06
-2.09831e-06
-2.21748e-05
5.0896e-06
6.94731e-06
1.89293e-05
3.03213e-05
2.63777e-06
3.64541e-05
-2.87592e-06
-9.98601e-07
-3.21033e-06
-1.56995e-06
-6.37391e-06
-5.76972e-06
-6.51138e-06
-5.20882e-06
2.07039e-05
-4.01116e-06
3.11216e-05
1.09103e-06
1.42352e-06
1.44281e-07
1.02081e-06
5.24984e-07
-6.92502e-06
3.46372e-05
2.84778e-06
2.63765e-06
3.48072e-06
3.04271e-06
7.36504e-07
6.4431e-07
9.08033e-07
-2.58587e-06
1.41523e-06
-1.67135e-06
3.36697e-06
-1.8516e-05
-9.52578e-07
1.40027e-06
1.80683e-05
8.71834e-07
-2.58082e-05
-4.61241e-06
-9.31916e-07
2.42752e-06
2.80531e-05
2.40428e-05
4.0345e-07
2.45469e-05
-2.76068e-06
-3.71966e-06
-3.1058e-06
-5.33649e-06
1.86041e-05
4.05616e-07
2.38357e-05
1.74395e-06
-1.21912e-06
3.9392e-05
1.63996e-06
1.94874e-06
1.84767e-06
-1.95653e-06
-7.87367e-07
-1.61565e-06
-9.71973e-06
1.29534e-06
1.62885e-06
-2.72063e-06
1.12601e-05
-4.55316e-05
-3.39414e-06
3.08885e-06
2.31897e-06
4.45491e-05
-1.03113e-06
2.75255e-05
2.29733e-06
1.40538e-05
-5.82049e-06
-6.27389e-06
-7.51087e-06
-7.51242e-06
1.88807e-06
2.19408e-06
1.75754e-06
5.52077e-06
-3.18648e-07
2.87835e-05
4.56311e-06
5.79753e-06
4.57901e-06
-6.46304e-07
-2.22451e-07
-4.11962e-07
-7.22145e-06
3.97676e-06
-1.10646e-06
8.65281e-06
-4.83238e-06
3.08469e-06
-3.09841e-06
4.84611e-06
-3.91745e-06
-6.21874e-06
8.66717e-06
3.76635e-06
-6.30306e-06
-5.2844e-06
4.662e-06
-2.17467e-06
8.78149e-06
-4.11441e-06
1.73459e-06
-2.37058e-06
4.75041e-06
-1.68336e-05
4.31521e-06
-4.64764e-06
1.7166e-05
-2.04535e-05
-4.16708e-06
4.88013e-06
1.97404e-05
-2.26786e-06
4.66736e-06
-3.64914e-05
-5.713e-06
2.6864e-06
3.71185e-05
1.63921e-06
-3.22313e-05
5.54296e-06
-3.73268e-06
-8.20068e-07
2.96019e-05
-8.64679e-06
3.03478e-06
-1.88585e-06
-3.78949e-06
9.41776e-06
1.8696e-06
-5.53104e-06
-1.69869e-06
-1.54576e-05
3.55469e-06
6.70065e-06
1.2432e-05
3.52228e-05
3.78693e-07
3.44698e-05
-2.62427e-06
-1.50527e-06
-2.33757e-06
-1.00182e-06
-6.99707e-06
-5.57779e-06
-7.52429e-06
-6.04917e-06
2.39311e-05
-1.57916e-06
3.87017e-05
2.73564e-07
9.86982e-07
1.50796e-06
2.52226e-06
9.24019e-07
-3.51222e-06
4.45973e-05
3.29842e-06
3.00182e-06
3.6001e-06
3.1114e-06
1.02353e-06
1.24258e-06
1.28126e-06
-4.02636e-06
1.17758e-06
-1.05203e-06
4.82483e-06
-1.75867e-05
-1.30602e-06
1.9443e-06
1.69484e-05
-1.76393e-06
-3.03612e-05
-5.69271e-06
1.87528e-06
2.3961e-06
3.35464e-05
3.17812e-05
2.55341e-06
1.80926e-05
-5.38697e-06
-7.4778e-06
-6.46472e-06
-8.17215e-06
2.19342e-05
3.32223e-06
2.87814e-05
2.20313e-06
-4.91703e-07
5.11142e-05
1.99808e-06
2.47962e-06
2.22847e-06
-1.12165e-06
1.69581e-07
-7.65797e-07
-1.25222e-05
1.09433e-06
2.10426e-06
-2.55111e-06
1.40778e-05
-4.23956e-05
-4.68401e-06
6.97531e-06
9.07567e-07
3.65347e-05
2.66206e-06
2.72646e-05
2.18957e-06
1.58189e-05
-8.80374e-06
-7.99195e-06
-8.5043e-06
-7.18505e-06
1.60442e-06
1.38598e-06
8.28737e-07
5.00166e-06
-1.91765e-07
4.18861e-05
3.95197e-06
4.97062e-06
3.89155e-06
-2.1613e-07
-9.24341e-09
8.55416e-08
-1.05891e-05
3.44846e-06
-4.69741e-07
1.21204e-05
-5.5704e-06
1.84608e-06
-2.57071e-06
6.29503e-06
-3.82115e-06
-5.10961e-06
6.55589e-06
4.56445e-06
-1.11789e-05
-3.34959e-06
2.54078e-06
-1.36229e-06
1.31582e-05
-5.30736e-06
7.97385e-07
-1.21648e-06
5.72645e-06
-1.75141e-05
4.06625e-06
-4.18099e-06
1.76288e-05
-1.75221e-05
-6.14381e-07
3.75103e-06
1.43855e-05
-2.12574e-06
2.35726e-06
-3.77802e-05
-3.47761e-06
2.11217e-06
3.89141e-05
8.40057e-07
-2.79173e-05
3.06211e-06
-1.43422e-06
-1.64518e-06
2.70945e-05
-1.17891e-05
3.27382e-06
-2.22452e-06
-4.57348e-06
1.42606e-05
1.05268e-06
-1.06808e-06
-2.41686e-06
-9.36791e-06
5.01383e-06
9.81403e-07
6.85762e-06
3.71888e-05
-1.04792e-06
3.53249e-05
-1.61311e-06
-7.07066e-07
-1.36992e-06
-2.50189e-07
-8.09212e-06
-7.74248e-06
-8.40578e-06
-8.81525e-06
2.21151e-05
3.60191e-07
4.57293e-05
1.26262e-06
2.37707e-06
1.4599e-06
2.58635e-06
8.57312e-07
7.53076e-07
5.39085e-05
2.73849e-06
1.9208e-06
2.78463e-06
7.06361e-07
7.89352e-07
1.16334e-06
1.09059e-06
-5.78892e-06
1.01114e-06
-9.3914e-07
6.57423e-06
-1.61661e-05
-8.34176e-07
1.626e-06
1.53743e-05
-3.30895e-06
-3.65596e-05
-8.40571e-07
5.33425e-06
-2.21875e-06
3.75936e-05
3.54139e-05
9.93573e-07
1.82015e-05
-8.74769e-06
-9.45063e-06
-9.50492e-06
-9.86111e-06
2.15403e-05
3.54219e-06
3.9473e-05
2.1401e-06
1.07456e-07
6.42999e-05
2.01974e-06
2.42948e-06
2.2248e-06
-4.33895e-07
8.17777e-07
-1.97801e-07
-1.60122e-05
1.19528e-06
1.87347e-06
-2.47855e-06
1.75621e-05
-2.61692e-05
-3.70718e-06
7.6541e-06
4.16871e-06
1.55463e-05
2.50723e-06
2.17385e-05
6.70659e-08
2.25124e-05
-7.57881e-06
-6.09651e-06
-6.87035e-06
-5.43393e-06
-2.72692e-07
-6.92104e-07
-5.61129e-07
3.62973e-06
7.7553e-08
5.2823e-05
3.0015e-06
3.70378e-06
2.8329e-06
1.85595e-07
5.00053e-07
4.12636e-07
-1.42023e-05
2.55394e-06
1.76674e-07
1.52089e-05
-6.91906e-06
1.51323e-06
-2.04271e-06
7.44854e-06
-5.24473e-06
-3.04391e-06
2.89776e-06
5.45795e-06
-1.47355e-05
-1.3424e-06
7.95642e-07
-3.3705e-07
1.56968e-05
-6.09943e-06
1.06857e-07
-3.7867e-07
6.37124e-06
-1.72705e-05
3.47456e-06
-3.05454e-06
1.68509e-05
-1.17909e-05
8.07506e-07
9.21917e-07
1.00615e-05
-2.26785e-06
1.13278e-06
-4.02089e-05
-2.32768e-06
2.18052e-06
4.14911e-05
1.75191e-06
-2.66081e-05
1.70254e-06
-3.29481e-07
-2.29075e-06
2.57739e-05
-1.65946e-05
3.80538e-06
-1.27341e-06
-4.39028e-06
1.85666e-05
-1.13709e-07
2.18445e-06
-4.05517e-06
-5.01158e-06
6.63843e-06
-4.09912e-06
4.34299e-06
3.38064e-05
-2.23903e-06
4.2613e-05
-1.16914e-06
-6.01016e-07
-1.16943e-06
-4.01467e-07
-8.42194e-06
-9.7971e-06
-7.98713e-06
-9.30822e-06
1.47997e-05
2.74054e-06
5.73019e-05
4.09377e-07
1.68341e-06
5.65415e-07
2.03539e-06
4.00161e-07
4.53978e-06
6.21462e-05
1.65149e-06
-9.0381e-07
9.14569e-07
-1.11677e-06
1.55103e-07
5.42896e-07
3.78518e-07
-7.57723e-06
1.30972e-06
-1.46039e-06
8.12806e-06
-1.43288e-05
1.03365e-06
2.80878e-07
1.30143e-05
-3.98919e-06
-3.57777e-05
3.96522e-06
8.15716e-06
-1.69471e-06
2.93392e-05
3.1406e-05
-2.51974e-06
2.68766e-05
-1.05588e-05
-9.94555e-06
-1.02725e-05
-9.0234e-06
1.67068e-05
2.32538e-06
5.45873e-05
1.94691e-06
3.77284e-07
7.6429e-05
1.85252e-06
2.07549e-06
1.86794e-06
-9.05271e-08
1.05308e-06
3.47858e-08
-1.93105e-05
1.53848e-06
1.86659e-06
-2.45332e-06
2.03056e-05
-8.05598e-06
-4.57947e-06
6.28814e-06
4.22932e-06
5.23296e-06
-3.11498e-06
1.6171e-05
-1.45085e-06
2.83086e-05
-6.03842e-06
-4.39921e-06
-5.14456e-06
-4.0114e-06
-1.05719e-06
-1.58684e-06
-7.98428e-07
2.34862e-06
4.82756e-07
6.03566e-05
2.15776e-06
2.60056e-06
2.05473e-06
3.24252e-07
6.50216e-07
3.43884e-07
-1.70606e-05
1.73675e-06
3.95631e-07
1.76541e-05
-7.85212e-06
1.33204e-06
-1.64486e-06
8.16493e-06
-5.56115e-06
-1.65676e-06
4.15816e-07
5.35125e-06
-1.65228e-05
-2.81034e-07
9.28038e-08
2.29592e-07
1.69642e-05
-6.64383e-06
-1.92528e-07
-1.75511e-08
6.85391e-06
-1.68803e-05
3.20027e-06
-2.97822e-06
1.66582e-05
-8.89169e-06
2.91478e-07
3.14709e-07
8.2855e-06
-2.41766e-06
9.39425e-07
-4.26558e-05
-2.20615e-06
2.4824e-06
4.38578e-05
1.82165e-06
-2.45878e-05
1.08412e-06
4.27193e-07
-2.35284e-06
2.36077e-05
-1.96618e-05
2.80656e-06
-9.5391e-07
-1.59548e-06
1.97906e-05
-3.85917e-07
2.15501e-06
-3.99424e-06
-4.54623e-06
5.50276e-06
-3.86777e-06
4.75047e-06
2.10854e-05
-1.95627e-06
5.2972e-05
-1.33862e-06
-1.25482e-06
-1.41223e-06
-9.2918e-07
-6.22748e-06
-7.37421e-06
-5.2572e-06
-5.69442e-06
4.25388e-06
5.25733e-06
6.70489e-05
1.44646e-07
7.59658e-07
7.55399e-07
1.67419e-07
-1.55285e-07
5.74042e-06
6.59157e-05
-1.23241e-06
-1.08883e-06
-1.64119e-06
-3.23692e-07
-2.8914e-07
-2.86549e-07
-2.38939e-07
-8.90627e-06
1.90437e-06
-2.36084e-06
9.20745e-06
-1.0791e-05
1.74254e-06
1.21762e-06
7.83086e-06
-6.72804e-06
-2.02692e-05
2.09244e-06
1.01311e-05
2.15855e-06
1.26151e-05
2.02532e-05
-4.27189e-06
3.63146e-05
-8.39768e-06
-6.87326e-06
-6.659e-06
-5.44564e-06
1.02035e-05
1.60613e-06
6.82882e-05
1.57002e-06
4.15728e-07
8.51501e-05
1.42814e-06
1.58139e-06
1.36585e-06
-6.67979e-08
1.02131e-06
-9.28253e-08
-2.13359e-05
1.85392e-06
1.70386e-06
-2.42186e-06
2.177e-05
-5.27813e-06
-4.06077e-06
4.28911e-06
3.01929e-06
5.82608e-06
-3.79558e-06
1.17987e-05
-1.81219e-06
3.06723e-05
-3.93948e-06
-3.10587e-06
-3.11839e-06
-2.77806e-06
-9.25908e-07
-1.80545e-06
-9.49013e-07
1.38832e-06
4.0625e-07
6.66447e-05
1.50726e-06
1.78452e-06
1.41508e-06
1.32221e-07
4.4488e-07
3.82345e-08
-1.92883e-05
1.19081e-06
4.12095e-07
1.94895e-05
-8.38688e-06
1.36807e-06
-1.50808e-06
8.52689e-06
-5.3671e-06
-1.19061e-06
-5.57219e-07
5.30274e-06
-1.73711e-05
2.12285e-07
-1.2557e-07
2.52862e-07
1.74377e-05
-7.00135e-06
-1.70328e-07
1.35899e-07
7.03578e-06
-1.62628e-05
2.99186e-06
-2.68386e-06
1.59548e-05
-8.18724e-06
-1.41222e-07
-1.5808e-07
8.48654e-06
-2.57262e-06
1.48387e-06
-4.50933e-05
-2.95068e-06
2.68063e-06
4.64521e-05
1.83859e-06
-2.28497e-05
1.60984e-06
-4.03542e-07
-2.47013e-06
2.22749e-05
-1.99271e-05
1.96184e-06
-2.77476e-06
-8.7626e-08
1.99929e-05
8.34759e-07
2.12572e-06
-1.90928e-06
-4.40424e-06
2.38512e-06
-2.39034e-06
4.19301e-06
5.89034e-06
2.18905e-06
5.80308e-05
-1.67759e-06
-1.48378e-06
-1.76722e-06
-8.34483e-07
-2.23778e-06
-2.61196e-06
-1.20552e-06
-1.31983e-06
-2.27443e-06
6.87999e-06
7.05197e-05
2.45e-07
-1.28067e-06
-1.9826e-07
-9.5203e-07
-7.29668e-07
4.21666e-06
6.46424e-05
-1.9107e-06
4.12059e-07
-1.3583e-06
8.35172e-07
-6.14216e-07
-1.15551e-06
-6.96635e-07
-9.38532e-06
2.67162e-06
-3.12014e-06
9.10417e-06
-5.22741e-06
5.96782e-07
1.19908e-06
3.43154e-06
-4.80655e-06
-7.9854e-06
1.26817e-06
5.18518e-06
1.03627e-06
5.30233e-06
9.86141e-06
-1.36708e-06
4.14964e-05
-3.90829e-06
-3.00611e-06
-2.57699e-06
-1.99571e-06
5.29577e-06
2.31235e-06
7.74215e-05
1.03439e-06
7.00059e-08
9.09546e-05
1.02361e-06
9.13232e-07
9.04303e-07
-4.90369e-07
7.30806e-07
-4.77996e-07
-2.219e-05
2.1893e-06
1.52731e-06
-2.56999e-06
2.20778e-05
-5.82417e-06
-1.66134e-06
1.83373e-06
1.60615e-06
5.85806e-06
-1.81244e-06
6.97127e-06
-1.52367e-06
3.38617e-05
-1.91657e-06
-1.88533e-06
-1.31747e-06
-1.64218e-06
-8.58946e-07
-1.44711e-06
-9.36457e-07
5.44303e-07
4.26843e-07
7.19968e-05
8.04613e-07
9.67499e-07
7.0599e-07
4.31462e-08
4.3202e-07
7.16363e-09
-2.08632e-05
7.90401e-07
2.10316e-07
2.04768e-05
-8.6048e-06
1.51157e-06
-1.48148e-06
8.57472e-06
-5.28327e-06
-9.63099e-07
-6.57053e-07
5.37976e-06
-1.74127e-05
3.99478e-07
-1.29071e-07
3.9519e-07
1.71739e-05
-7.03854e-06
-3.38439e-08
7.42083e-08
6.99817e-06
-1.55058e-05
2.8049e-06
-2.19332e-06
1.48942e-05
-9.068e-06
-1.50949e-08
-1.10698e-06
1.01901e-05
-3.04163e-06
7.35175e-07
-4.77644e-05
-2.37374e-06
3.34774e-06
4.90968e-05
1.94628e-06
-2.15376e-05
1.93893e-06
-2.28371e-06
-7.27386e-07
2.06635e-05
-1.92245e-05
1.17872e-06
-2.6024e-06
-1.76439e-07
1.75574e-05
3.26719e-06
2.50865e-06
-1.1688e-07
-3.94312e-06
-5.26922e-07
-1.93952e-06
4.01778e-06
-3.49425e-06
7.83788e-06
5.79919e-05
-2.2937e-06
-2.05736e-06
-2.55118e-06
-2.30264e-06
1.00801e-06
8.73113e-07
1.54786e-06
1.47116e-06
-5.51618e-06
8.02504e-06
6.91567e-05
-1.61407e-06
-1.17022e-06
-1.48001e-06
-3.75822e-07
-1.55692e-06
8.15234e-07
6.27213e-05
-8.01352e-07
1.38584e-06
-2.18795e-07
1.35615e-06
-1.09851e-06
-1.94009e-06
-1.53662e-06
-8.33678e-06
3.34232e-06
-3.77093e-06
7.20848e-06
-2.30899e-06
-3.05247e-07
9.81987e-07
1.63225e-06
-2.54769e-06
-3.60174e-06
1.11034e-06
1.81087e-06
4.58891e-07
2.76932e-06
2.31049e-06
4.38076e-06
4.33964e-05
-6.47833e-07
-3.35753e-07
3.48396e-08
1.95395e-07
1.44912e-06
3.48404e-06
8.28239e-05
5.69813e-07
-3.29359e-07
9.26974e-05
7.22898e-07
5.39504e-07
6.37352e-07
-9.067e-07
2.78377e-07
-9.90333e-07
-2.19054e-05
2.14498e-06
1.36422e-06
-2.60813e-06
2.15742e-05
-5.74929e-06
-2.1218e-07
2.26241e-07
7.27912e-07
6.09681e-06
-1.0895e-06
2.45544e-06
-7.45468e-07
3.96051e-05
-3.60191e-07
-8.50231e-07
5.90784e-08
-6.30374e-07
-3.72597e-07
-6.44757e-07
-2.73495e-07