/*--------------------------------*- C++ -*----------------------------------*\
| =========                 |                                                 |
| \\      /  F ield         | OpenFOAM: The Open Source CFD Toolbox           |
|  \\    /   O peration     | Version:  5.x                                   |
|   \\  /    A nd           | Web:      www.OpenFOAM.org                      |
|    \\/     M anipulation  |                                                 |
\*---------------------------------------------------------------------------*/
FoamFile
{
    version     2.0;
    format      ascii;
    class       volScalarField;
    location    "1.9";
    object      p;
}
// * * * * * * * * * * * * * * * * * * * * * * * * * * * * * * * * * * * * * //

dimensions      [0 2 -2 0 0 0 0];

internalField   nonuniform List<scalar> 
10571
(
27.5735
75.3344
46.9435
50.8273
45.7033
228.867
222.164
210.576
203.498
219.152
266.021
257.988
240.412
236.633
237.823
234.082
263.656
248.712
245.841
241.575
237.873
249.003
247.206
242.837
23.3743
26.8198
22.4457
16.9616
19.3292
49.6904
107.005
43.1317
40.1417
93.9959
168.838
161.185
212.42
187.397
209.958
208.291
210.718
235.757
235.07
236.815
229.16
247.175
242.568
237.225
19.1732
18.319
14.96
17.7998
17.1092
30.0332
24.3685
13.6217
11.8925
11.0048
71.6502
48.4161
63.3782
45.4857
45.5334
67.9522
123.769
134.389
143.091
166.438
154.287
183.845
193.477
188.807
16.4343
12.4546
15.4038
15.4021
14.4128
17.3956
12.6854
12.5871
13.0788
13.3743
22.2267
19.1635
14.2432
13.3543
12.8651
11.8726
46.3953
26.0414
22.8289
48.1982
50.4513
84.7619
89.1284
75.9062
14.4462
12.335
13.3986
13.8112
13.6085
12.6404
12.4545
12.376
12.8329
12.6921
12.7833
12.7422
12.6726
12.758
12.5245
12.349
12.5252
12.2759
12.0859
12.2628
13.8512
16.4093
17.4565
12.2794
13.5095
12.634
12.9399
13.174
13.1349
12.65
12.7058
12.6111
12.6013
12.5094
12.5746
12.6978
12.6954
12.9404
12.8592
12.5348
12.5332
12.6281
12.7236
13.0116
12.8981
12.569
12.5662
13.3175
12.9104
12.6894
13.1184
12.6371
12.302
12.8894
12.9134
12.6125
12.6335
12.5735
12.6122
12.7635
12.5596
12.6862
12.6591
12.7824
12.6316
12.5038
12.5107
12.644
12.7164
12.6594
12.5884
12.5351
12.5272
12.6743
12.7424
12.6471
12.5852
12.8434
12.5645
12.3848
12.3422
12.5789
12.5395
12.6144
12.5511
12.5614
12.6776
12.3202
12.6863
12.7064
12.719
12.5651
12.5155
12.4377
12.4779
12.6999
12.6929
12.6328
12.5271
12.4295
12.6196
12.6931
12.6531
12.6011
12.6015
12.5376
12.5815
12.495
12.4481
12.5446
12.6368
12.5157
12.4905
12.5973
12.8539
12.6665
12.6883
12.6597
12.5365
12.4443
12.2261
12.1676
12.6607
12.6336
12.5831
12.5
12.2942
12.6597
12.6596
12.6033
12.4841
12.5485
12.6018
12.6485
12.5421
12.4825
12.5902
12.4838
12.4594
12.298
12.6042
12.6074
12.5932
12.4662
12.3737
12.3613
12.6323
12.6084
12.5445
12.4782
12.32
12.6359
12.6351
12.5779
12.6505
12.5651
12.6297
12.6362
12.6177
12.4851
12.5311
12.427
12.4166
12.4266
12.5818
12.5621
12.5358
12.3771
12.292
12.2227
12.6223
12.5862
12.5216
12.4543
12.4018
12.6244
12.6032
12.572
12.5578
12.6384
12.5785
12.5714
12.5837
12.537
12.4773
12.327
12.3491
12.5411
12.5853
12.5379
12.4812
12.3492
12.2475
12.3308
12.6142
12.5863
12.5407
12.4838
12.4962
12.6256
12.6059
12.5947
12.5621
12.7335
12.587
12.5024
12.5672
12.6534
12.4297
12.2045
12.2614
12.5949
12.6159
12.5517
12.4894
12.4036
12.2954
12.2873
12.6293
12.6074
12.606
12.584
12.6032
12.6408
12.6619
12.6806
12.5768
12.5892
12.5921
12.4515
12.5409
12.6363
12.3765
12.1293
12.2651
12.7581
12.6881
12.6457
12.5926
12.5435
12.5233
12.5901
12.6987
12.6683
12.7027
12.7491
12.8657
12.693
12.7606
12.8166
12.626
12.5506
12.6716
12.5278
12.5164
12.636
12.4848
12.245
12.4311
13.026
12.7946
12.7821
12.7413
12.7391
12.8318
13.2682
12.8239
12.7853
12.8091
12.9163
13.1617
12.7736
12.8557
12.929
12.7463
12.7589
12.7414
12.6062
12.5107
12.7615
12.6732
12.5456
12.6469
13.4392
12.9066
12.9164
12.8905
12.8796
12.9584
13.4318
12.9556
12.9296
12.9048
13.0213
13.2121
12.8865
12.948
13.0033
12.8619
12.9269
12.8221
12.6521
12.5389
12.8949
12.8774
12.7806
12.6645
13.5152
13.0089
12.996
13.0253
12.9518
12.9955
13.3032
13.0603
13.075
13.005
13.0811
13.1806
13.0315
13.0397
13.0654
12.9632
13.079
12.9535
12.7517
12.7073
12.9686
13.0536
12.9874
12.7982
13.1164
13.1015
13.0654
13.127
13.0281
13.0301
13.1796
13.1559
13.2042
13.1086
13.1448
13.1862
13.1724
13.142
13.1426
13.0213
13.1742
13.0817
12.8867
12.9138
13.0482
13.1821
13.1189
13.1458
12.9908
13.189
13.1468
13.2001
13.129
13.1634
13.2231
13.2598
13.3109
13.2227
13.2378
13.2588
13.2929
13.2555
13.2519
13.2086
13.2354
13.1725
12.9562
13.1461
13.1654
13.2877
13.2011
13.4609
13.2731
13.2816
13.2414
13.2976
13.2672
13.3479
13.3804
13.3525
13.3919
13.3447
13.3484
13.3755
13.3928
13.372
13.3809
13.1754
13.2601
13.2133
12.9538
13.3213
13.2594
13.3694
13.3235
13.671
13.6262
13.3758
13.3356
13.4269
13.4023
13.5181
13.5555
13.4343
13.4637
13.4553
13.4668
13.4962
13.4798
13.4776
13.5033
13.1631
13.3293
13.2315
12.9553
13.4228
13.337
13.4152
13.4785
13.7971
13.867
13.4628
13.4196
13.5227
13.4982
13.6264
13.6688
13.5056
13.5372
13.5336
13.5623
13.5875
13.5602
13.5602
13.6014
13.2445
13.4413
13.2726
13.1818
13.8529
13.423
13.3825
13.495
13.8124
13.8742
13.5348
13.4867
13.5716
13.5365
13.6683
13.6975
13.5611
13.5927
13.5737
13.6222
13.6556
13.6283
13.6085
13.667
13.4265
13.6099
13.5634
13.3274
13.6229
13.5112
13.4361
13.3804
13.6554
13.7545
13.5794
13.5295
13.5723
13.5485
13.653
13.6755
13.5962
13.6001
13.5924
13.6464
13.6892
13.6454
13.6275
13.6937
13.4427
13.681
13.8531
13.373
13.0672
13.563
13.5199
13.3782
13.5455
13.6697
13.5919
13.543
13.5536
13.5416
13.6135
13.6426
13.5856
13.5482
13.5948
13.6438
13.6858
13.6156
13.624
13.6904
13.4863
13.6743
13.7196
13.424
13.1787
13.5778
13.5638
13.4967
13.5286
13.614
13.5695
13.5283
13.5189
13.5136
13.5648
13.6038
13.4988
13.4532
13.5631
13.6048
13.6494
13.5474
13.5893
13.6542
13.8596
13.6565
13.682
13.8018
13.5437
13.5702
13.5676
13.5664
13.4962
13.5685
13.5299
13.491
13.4649
13.4666
13.4987
13.5504
13.385
13.3663
13.4836
13.538
13.5869
13.471
13.5236
13.5857
14.0183
13.6312
13.6627
13.7886
13.5489
13.5504
13.5292
13.5031
13.4328
13.5081
13.4897
13.4546
13.413
13.4158
13.4355
13.4923
13.2692
13.3199
13.4176
13.4755
13.5225
13.4072
13.4657
13.5193
13.7643
13.5965
13.6083
13.6386
13.4437
13.5305
13.4847
13.4394
13.3852
13.4586
13.4745
13.4462
13.4109
13.405
13.4044
13.4599
13.248
13.3208
13.4314
13.444
13.4843
13.3877
13.4555
13.483
13.5971
13.5633
13.5536
13.5311
13.3795
13.5181
13.4566
13.4103
13.3632
13.4404
13.4964
13.4784
13.4386
13.4263
13.4079
13.4533
13.3773
13.3713
13.4806
13.4449
13.4736
13.4231
13.4698
13.4768
13.524
13.5395
13.5177
13.4788
13.3878
13.5111
13.4439
13.4082
13.3652
13.4358
13.531
13.5152
13.4581
13.4409
13.419
13.4535
13.5435
13.4379
13.5011
13.4556
13.4755
13.4829
13.4845
13.4858
13.5031
13.5263
13.5012
13.4678
13.4398
13.5049
13.4398
13.4121
13.3955
13.4403
13.536
13.5232
13.4511
13.4424
13.421
13.4548
13.6364
13.4905
13.491
13.4516
13.4766
13.5493
13.4948
13.4895
13.5041
13.5223
13.4993
13.4754
13.497
13.4993
13.4369
13.4051
13.4441
13.4726
13.5163
13.5008
13.4264
13.4473
13.4291
13.465
13.5671
13.4555
13.47
13.454
13.4794
13.5278
13.4905
13.4884
13.513
13.528
13.5054
13.4832
13.5312
13.5014
13.4368
13.3943
13.4597
13.485
13.4989
13.4778
13.401
13.4623
13.4464
13.4905
13.4953
13.4123
13.4627
13.4609
13.4875
13.4129
13.4719
13.4844
13.5263
13.5434
13.519
13.4876
13.5348
13.5154
13.4453
13.3948
13.4621
13.4837
13.4978
13.4703
13.3802
13.4749
13.4702
13.5085
13.4675
13.4077
13.4486
13.4668
13.4989
13.4267
13.4644
13.4823
13.5466
13.5703
13.5438
13.5062
13.5171
13.5442
13.4705
13.4191
13.4806
13.4812
13.5203
13.4835
13.3794
13.4785
13.4939
13.5219
13.4769
13.4262
13.4489
13.4772
13.5133
13.4545
13.4775
13.4903
13.5861
13.6109
13.5831
13.5366
13.5173
13.588
13.5123
13.4814
13.5071
13.4983
13.5721
13.5206
13.4144
13.4939
13.5089
13.5374
13.5148
13.4732
13.4626
13.5016
13.5329
13.4926
13.5021
13.5122
13.6514
13.6649
13.6376
13.5863
13.5461
13.6427
13.5527
13.5709
13.5491
13.5521
13.6459
13.5901
13.5087
13.5325
13.546
13.5726
13.5777
13.5377
13.5099
13.5408
13.5691
13.5421
13.5516
13.5559
13.7258
13.7236
13.6961
13.6485
13.5961
13.7035
13.6077
13.6654
13.601
13.6414
13.7287
13.6709
13.6232
13.5967
13.615
13.627
13.6522
13.6037
13.6003
13.5819
13.6092
13.5919
13.6113
13.6004
13.7573
13.7674
13.7364
13.703
13.676
13.7536
13.677
13.7237
13.6719
13.7153
13.8025
13.7397
13.696
13.7089
13.6889
13.692
13.7228
13.6692
13.682
13.642
13.6596
13.654
13.6791
13.6527
13.7546
13.784
13.7539
13.7491
13.7847
13.7839
13.7357
13.7703
13.7737
13.7751
13.8509
13.7837
13.7464
13.8033
13.744
13.7641
13.7835
13.7334
13.7216
13.7022
13.7348
13.7139
13.7238
13.7112
13.7851
13.7956
13.7751
13.7961
13.8782
13.8022
13.7817
13.8101
13.8552
13.8353
13.8594
13.7997
13.7815
13.831
13.8622
13.8369
13.8268
13.7797
13.7555
13.7978
13.791
13.7709
13.7626
13.8102
13.8245
13.8097
13.805
13.8312
13.9255
13.8127
13.8014
13.836
13.9007
13.9241
13.8412
13.7917
13.7892
13.8443
13.9094
13.929
13.8432
13.7978
13.7909
13.8218
13.876
13.8048
13.7908
13.8295
13.8393
13.8131
13.8132
13.8378
13.9267
13.8116
13.793
13.8481
13.9166
13.9689
13.82
13.7792
13.7717
13.8372
13.9192
13.9915
13.8342
13.7988
13.8071
13.8538
13.9604
13.8128
13.7872
13.818
13.8413
13.8016
13.8064
13.8338
13.9013
13.8001
13.7747
13.8459
13.897
13.9541
13.8068
13.7719
13.7465
13.8233
13.8948
13.9631
13.8124
13.7824
13.8045
13.8508
13.9262
13.8018
13.7966
13.8153
13.8424
13.7799
13.7792
13.8341
13.8798
13.7905
13.7712
13.8448
13.8717
13.9215
13.7965
13.7713
13.7438
13.8101
13.8691
13.9142
13.7946
13.7693
13.8033
13.842
13.89
13.7929
13.8033
13.8208
13.8484
13.7766
13.7644
13.8404
13.8682
13.7905
13.7759
13.8513
13.8541
13.8977
13.7971
13.7807
13.7735
13.8099
13.8597
13.8848
13.7935
13.7843
13.8065
13.8403
13.8729
13.7966
13.8094
13.8284
13.8634
13.7923
13.7741
13.8509
13.8654
13.7971
13.7768
13.8577
13.8465
13.8869
13.8067
13.7945
13.8108
13.8256
13.8589
13.8732
13.8056
13.8125
13.8195
13.8449
13.8701
13.8135
13.8216
13.8399
13.8833
13.8231
13.8017
13.8662
13.8721
13.8193
13.8068
13.8652
13.8458
13.8832
13.83
13.8113
13.8218
13.8461
13.8626
13.8699
13.8231
13.8361
13.8397
13.8538
13.8738
13.8315
13.8357
13.8541
13.8959
13.8724
13.8486
13.8788
13.8841
13.8497
13.8513
13.8784
13.8449
13.8804
13.8653
13.8194
13.8383
13.8609
13.8674
13.8708
13.8385
13.8499
13.8596
13.8648
13.8799
13.8461
13.8519
13.8691
13.8967
13.9117
13.8783
13.8843
13.88
13.9118
13.879
13.8858
13.8472
13.8808
13.9283
13.9096
13.8745
13.8721
13.8703
13.8734
13.8495
13.8646
13.8742
13.8758
13.8858
13.8658
13.8723
13.8831
13.8916
13.9041
13.8877
13.8776
13.8704
13.9166
13.8832
13.8837
13.8525
13.8643
13.9476
13.9358
13.8925
13.8843
13.8774
13.8793
13.8891
13.8843
13.8868
13.8885
13.8927
13.8833
13.891
13.8949
13.8875
13.8931
13.8866
13.8735
13.8739
13.9085
13.8848
13.8909
13.8722
13.8805
13.9323
13.9233
13.8991
13.8935
13.8897
13.8928
13.9121
13.9001
13.8983
13.897
13.8988
13.8975
13.9031
13.9037
13.8857
13.8942
13.8898
13.8783
13.909
13.9034
13.8889
13.8964
13.8881
13.9009
13.9202
13.9142
13.9028
13.8952
13.8934
13.9027
13.9031
13.9032
13.9019
13.9005
13.9011
13.909
13.9076
13.9067
13.8896
13.9076
13.9019
13.8854
13.8965
13.9052
13.8888
13.8905
13.8859
13.9001
13.9188
13.9139
13.9054
13.8932
13.8877
13.9021
13.9077
13.9061
13.9008
13.8969
13.8972
13.9134
13.9075
13.9046
13.9014
13.92
13.9175
13.8956
13.8742
13.9141
13.8969
13.8861
13.8782
13.891
13.9248
13.9189
13.9045
13.8913
13.8778
13.892
13.917
13.91
13.8969
13.8861
13.8864
13.916
13.9043
13.8985
13.9298
13.9359
13.9292
13.919
13.8936
13.9264
13.9104
13.8891
13.8739
13.878
13.9348
13.9266
13.9076
13.8892
13.8589
13.8738
13.9258
13.9106
13.8918
13.8687
13.8672
13.9148
13.8998
13.8875
13.9701
13.9585
13.9571
13.9449
13.9163
13.9427
13.9259
13.8903
13.8706
13.8585
13.9486
13.9377
13.9112
13.8772
13.8288
13.8356
13.9343
13.9093
13.882
13.8444
13.8329
13.9146
13.8924
13.8704
13.9983
13.9898
13.982
13.9612
13.9298
13.9684
13.9311
13.8811
13.8615
13.8135
13.9686
13.9553
13.9075
13.8536
13.7842
13.7548
13.9465
13.9058
13.8639
13.8077
13.7717
13.9146
13.8817
13.846
14.0251
14.0329
14.0125
13.9828
13.9397
14.0037
13.939
13.8625
13.8327
13.7211
13.9976
13.9812
13.9054
13.8191
13.7046
13.5714
13.9655
13.9069
13.8411
13.7625
13.6611
13.9146
13.8661
13.8108
14.0639
14.0855
14.0544
14.0153
13.9469
14.0537
13.9684
13.8507
13.7407
13.5045
14.0396
14.0189
13.9118
13.7709
13.547
13.1488
13.997
13.9177
13.817
13.6778
13.4655
13.9211
13.8497
13.7677
14.116
14.1358
14.1033
14.0611
13.9628
14.1154
14.015
13.8377
13.5854
12.9159
14.0944
14.068
13.9305
13.7251
13.3188
12.201
14.0432
13.9433
13.799
13.5944
13.0972
13.9419
13.8456
13.7271
14.1871
14.1773
14.1547
14.1268
14.0084
14.1627
14.0693
13.8196
13.4008
11.1806
14.1586
14.1296
13.9679
13.6957
13.0533
10.9081
-9.88489
14.1055
13.9945
13.7991
13.4878
12.3094
13.9773
13.8565
13.7078
14.2949
14.2039
14.2082
14.2278
14.1169
14.1987
14.1217
13.899
13.2481
9.74654
0.599134
14.2262
14.2025
14.0585
13.7882
12.9793
10.3358
0.923092
14.1774
14.0659
13.8405
13.429
11.2764
14.0497
13.9071
13.7287
14.3956
14.2307
14.2544
14.3403
14.1442
14.2199
14.1737
14.0212
13.1185
10.302
2.45244
14.2788
14.2643
14.1568
13.8948
13.2117
10.055
2.6704
14.2481
14.1421
13.9704
13.6455
11.8913
4.0749
14.1392
14.019
13.8559
14.3445
14.2506
14.2479
14.2598
14.0314
14.233
14.2445
14.0053
13.2018
9.87939
1.90875
14.3037
14.2841
14.2134
13.9701
13.3762
10.2917
2.0938
14.2988
14.2287
14.1157
13.796
12.8674
14.2005
14.112
14.0269
14.3049
14.3103
14.2574
14.2284
13.978
14.2735
14.2774
14.0477
13.371
11.2401
14.3151
14.2883
14.2442
14.0512
13.6078
10.9539
-3.97284
14.2992
14.2679
14.1888
13.9591
13.9139
14.2439
14.1715
14.1412
14.29
14.3541
14.3529
14.2283
13.9955
14.3052
14.2843
14.0469
13.5507
13.183
14.3073
14.2751
14.232
14.0471
13.818
13.2312
14.2893
14.2608
14.1795
14.0656
14.1496
14.261
14.1969
14.1971
14.282
14.3364
14.3343
14.2216
14.0698
14.272
14.2139
14.0662
13.7767
13.9186
14.2157
14.1968
14.1659
13.9858
13.8764
13.8806
14.2472
14.1979
14.1125
14.067
14.2226
14.2386
14.1975
14.2113
14.2903
14.3019
14.3077
14.2376
14.1634
14.2332
14.2041
14.1463
13.9757
14.214
14.1355
14.1144
14.1343
14.062
14.089
14.2104
14.1949
14.1511
14.1466
14.1434
14.2973
14.2183
14.2142
14.239
14.3175
14.2914
14.3069
14.2706
14.2554
14.2274
14.2344
14.2362
14.1299
14.336
14.1217
14.1042
14.1847
14.1383
14.14
14.2773
14.1906
14.2264
14.2465
14.2306
14.3393
14.2357
14.2537
14.2873
14.3621
14.3098
14.3294
14.3169
14.3359
14.2585
14.2839
14.3002
14.243
14.4043
14.1761
14.1753
14.2389
14.2174
14.2372
14.3554
14.24
14.2999
14.3108
14.2961
14.3841
14.2875
14.3157
14.3401
14.4117
14.3403
14.3608
14.3694
14.4052
14.3022
14.3178
14.372
14.3158
14.4404
14.2745
14.2647
14.2929
14.2946
14.2886
14.4161
14.3114
14.3184
14.3671
14.3526
14.436
14.3651
14.4088
14.4258
14.4568
14.3737
14.3951
14.4189
14.4641
14.3399
14.3605
14.4081
14.3977
14.4603
14.3412
14.325
14.3294
14.3597
14.3644
14.467
14.386
14.3761
14.4028
14.4114
14.5216
14.4592
14.5047
14.5518
14.4725
14.3903
14.4129
14.4518
14.4863
14.3585
14.3867
14.4395
14.4334
14.4945
14.3679
14.3559
14.367
14.4082
14.402
14.5216
14.4281
14.4069
14.4303
14.4878
14.6064
14.5251
14.5743
14.6537
55.388
34.6862
41.8018
36.5997
33.7693
38.6907
50.0179
81.8405
251.371
169.656
130.336
242.642
236.834
116.449
116.203
237.849
231.212
123.574
137.739
219.936
194.257
154.802
179.14
200.791
216.357
221.476
272.056
273.696
277.179
265.837
262.433
265.877
257.163
261.848
235.457
247.893
233.913
220.234
219.382
231.213
233.995
224.82
229.402
237.508
234.877
228.304
231.789
231.076
277.681
281.65
283.855
270.297
256.67
277.262
258.951
243.806
241.467
248.17
246.694
239.402
240.87
244.654
243.696
241.742
238.741
242.531
240.025
237.83
236.698
238.752
279.972
276.851
260.44
267.283
259.042
251.029
249.444
252.709
250.179
247.596
245.199
248.663
246.057
242.782
242.137
245.399
244.484
241.201
253.448
251.512
252.101
250.362
250.413
248.944
249.031
246.949
26.3163
28.2256
30.5829
26.7387
26.3334
31.5356
28.5476
25.1921
25.8982
22.4234
26.1245
24.9131
22.7648
24.24
20.6823
196.789
103.407
35.2773
153.181
133.956
33.8401
23.7313
60.3902
42.0367
120.487
146.819
181.869
18.2292
29.2117
40.4511
77.6644
202.548
130.09
239.317
257.448
258.505
160.401
214.188
203.517
225.248
224.022
194.74
215.727
214.233
269.173
271.564
228.358
232.07
241.99
232.498
235.763
230.841
224.766
234.691
268.936
244.754
253.229
257.566
252.063
246.054
248.094
247.685
249.038
239.331
242.075
240.303
241.02
238.424
241.538
238.747
236.658
250.286
249.553
248.211
247.3
249.175
247.777
247.204
244.869
246.719
246.198
243.877
246.437
242.196
25.7167
20.8989
25.8061
24.151
22.4313
21.1736
19.6608
19.5014
22.9653
22.8162
20.9859
21.0863
21.5429
21.59
20.1381
45.5669
27.6348
23.9396
34.1369
24.257
22.4928
20.7221
27.3738
19.4395
17.6895
18.0857
20.2826
19.2285
18.6079
17.1772
16.1862
28.2935
15.0744
82.5467
142.142
128.348
37.7654
83.1089
67.7165
171.432
173.228
17.8545
73.1863
92.8214
173.504
192.279
113.519
117.825
143.321
192.47
223.846
152.284
132.649
195.268
202.457
158.437
222.106
221.458
233.689
168.084
178.377
183.389
198.602
233.006
235.829
232.633
219.481
220.167
223.609
222.785
210.678
241.97
214.386
245.19
245.553
231.722
235.387
239.765
239.266
243.874
230.811
226.177
235.567
225.713
17.7227
16.4766
18.5255
17.6137
17.6725
17.1898
16.8825
16.7911
19.296
19.394
17.6838
17.5873
17.4552
17.9125
16.3422
21.0098
17.4173
17.5941
21.6824
16.9469
14.663
16.0709
16.5467
15.9352
16.9194
16.1339
16.2495
15.3649
15.5514
15.2305
15.5487
15.6154
15.2242
24.0411
46.8355
33.7125
20.7343
29.4953
23.3967
16.2079
24.11
13.4522
11.853
11.3533
73.8208
99.2931
43.2372
45.2111
62.9678
55.4076
131.761
17.6796
14.6143
66.2692
115.631
76.4674
128.79
140.226
154.178
83.1216
83.0252
97.2014
107.769
173.891
185.341
191.803
102.402
105.06
126.762
126.029
92.7217
167.723
121.084
194.693
203.421
132.62
142.239
147.193
189.422
200.637
141.47
136.61
146.438
135
15.7214
14.9467
16.3532
16.0449
15.9408
15.3298
15.0859
15.0226
16.1657
16.0208
15.2694
15.1172
14.9872
15.3553
14.6662
14.3967
12.6459
15.0595
13.1504
14.7019
12.063
14.1528
12.3794
13.5751
14.7242
14.4619
14.665
13.9173
14.1366
13.8512
13.9154
14.3369
13.6453
16.4739
18.8768
17.6419
12.7332
12.77
12.8711
13.471
13.3335
12.8534
13.0239
13.3102
21.59
32.3597
12.7451
12.6968
12.9164
11.862
23.9784
12.1414
12.6828
12.9528
42.3058
14.3315
44.3248
57.1955
64.1815
14.7573
14.2628
21.6828
26.8212
53.7954
68.6927
69.0136
13.5108
20.7115
16.9166
20.9034
24.5268
74.9513
38.2095
91.2223
94.0394
46.3893
51.6706
54.401
81.9329
92.0868
48.2218
35.6357
52.1257
20.9321
14.1986
13.5214
14.463
14.3306
14.2761
13.9033
13.7853
13.767
14.363
14.2634
13.8734
13.796
13.7786
14.1668
13.7973
12.6474
12.6812
13.4938
12.5644
12.8092
12.5578
13.0595
12.5885
12.4428
13.6485
13.3814
13.338
13.3467
13.2948
13.0146
12.9162
13.231
12.9074
12.664
12.7629
12.7395
12.7084
12.7437
12.7078
12.6454
12.8407
12.6093
12.6065
12.3246
12.7882
12.8044
12.7864
12.7878
12.8764
12.6605
12.7115
12.473
12.4167
12.5971
12.6132
12.9414
12.5603
12.5772
12.7593
12.9396
12.9442
12.9417
12.8992
12.728
12.1008
12.4331
12.6415
12.4654
12.6837
12.5398
12.5936
13.4113
12.8426
22.2058
26.5032
12.7336
12.8834
14.2871
13.2257
22.6079
12.3787
12.4611
12.6839
12.6513
12.8494
12.3483
13.5566
13.4005
13.4383
13.3139
13.0187
13.2665
13.4238
13.4128
13.262
13.2044
13.18
13.4639
13.2475
12.6842
12.693
12.6307
12.6335
12.4648
12.6685
12.3369
12.6704
12.5697
13.0568
12.7379
12.6267
13.0268
12.8735
12.5073
12.4546
12.5671
12.1945
12.6629
12.6809
12.6596
12.6847
12.7119
12.6927
11.225
12.6764
12.7206
12.5787
12.1934
12.6206
12.5048
12.6075
12.5914
12.6993
12.5305
12.5657
12.5519
12.7355
12.6952
12.7269
12.7441
12.7294
12.7731
12.7493
12.6089
12.5965
12.5067
12.4881
12.5537
12.5903
12.7357
12.658
12.7059
12.6
12.7678
12.6362
12.7053
12.7257
12.8033
12.7509
12.7832
12.88
12.8187
12.8302
12.8284
12.8352
12.6028
12.6324
12.6113
12.5634
12.5891
12.5871
12.6138
12.5444
13.0383
12.8285
12.8961
12.9305
12.7484
12.7076
12.7369
12.8443
12.888
12.5984
12.5971
12.6383
12.6051
12.2163
12.4316
13.136
12.5489
13.17
12.7953
12.2699
12.7262
13.0794
13.0809
12.9779
12.9861
13.0638
13.1609
13.1162
12.641
12.582
12.3762
12.6297
12.5825
12.5892
12.514
12.5468
12.5588
12.7248
12.3981
12.4525
12.7439
12.5845
12.4102
12.5203
12.5446
11.9082
12.817
12.7645
12.5346
12.575
12.4379
12.4742
12.6352
12.653
12.6425
12.606
12.6541
12.6435
12.5143
12.5746
12.6406
12.7309
12.6184
12.5542
12.5711
12.6113
12.5733
12.6926
12.4373
12.5391
12.4974
12.6371
12.6669
12.6713
12.6986
12.6979
12.6848
12.5666
12.5498
12.6167
12.4838
12.4883
12.5322
12.5803
12.7177
12.6708
12.7155
12.5942
12.6849
12.6507
12.7265
12.7209
12.7265
12.7415
12.7672
12.7993
12.7128
12.7152
12.7393
12.751
12.5956
12.5652
12.5919
12.5243
12.5804
12.5711
12.5658
12.5765
12.4778
12.5475
12.7107
12.6216
12.6958
12.7992
12.749
12.7007
12.6887
12.6986
12.6882
12.6765
12.6251
12.6431
12.6351
12.5955
12.6319
12.5808
12.6121
12.6564
12.5155
12.4195
12.3591
12.4855
12.6039
12.3537
12.7983
13.0755
12.8417
12.6423
13.1031
13.0992
13.0391
12.5338
12.5098
12.5908
12.4825
12.559
12.5479
12.596
12.4689
12.5537
12.5638
12.4907
12.5809
12.4882
12.6405
12.5244
12.6207
12.9786
13.0735
12.9253
13.374
12.3981
12.4368
12.6447
12.641
12.5775
12.6554
12.6377
12.5562
12.6446
12.6285
12.706
12.5415
12.5192
12.6043
12.866
12.469
12.474
12.4287
12.3264
12.5518
12.5168
12.7041
12.2201
12.5637
12.6854
12.6776
12.6833
12.679
12.6675
12.405
12.5353
12.5636
12.3364
12.2271
12.4542
12.499
12.6573
12.6449
12.7794
12.359
12.6626
12.661
12.8391
12.7119
12.6831
12.7108
12.7234
12.7248
12.6829
12.6949
12.6988
12.6991
12.5589
12.5718
12.5517
12.5187
12.5331
12.5725
12.5363
12.525
12.3285
12.4892
12.7306
12.6008
12.7669
12.7232
12.6978
12.6836
12.6792
12.6822
12.6782
12.6789
12.6292
12.6492
12.6683
12.6531
12.6601
12.6241
12.6173
12.5644
12.5416
12.6856
12.5216
12.5765
12.6588
12.6186
12.5047
12.7116
12.3169
12.3864
12.1871
12.6248
12.2313
12.5053
12.5003
12.5751
12.4839
12.5215
12.5432
12.5609
12.496
12.4706
12.6921
12.5115
12.5935
12.4689
12.6965
12.4786
12.5266
12.7692
12.4665
12.5312
12.6092
12.5813
12.5012
12.5522
12.5172
13.5291
12.3631
12.5792
12.4383
14.0681
12.2607
12.8782
12.7925
12.3218
12.77
13.2456
13.05
12.9789
13.1622
12.6559
12.6473
12.633
12.6266
12.6214
12.2068
12.3613
12.4273
12.1787
12.3399
12.1766
12.3469
12.787
12.5988
12.9064
12.8202
12.9744
12.8516
13.0129
12.6567
12.635
12.6691
12.6713
12.6713
12.6422
12.6489
12.6496
12.6467
12.4995
12.5676
12.5242
12.4863
12.4895
12.551
12.5163
12.2855
12.6733
12.6526
12.665
12.6662
12.6472
12.6576
12.6587
12.6383
12.6547
12.6477
12.6131
12.6422
12.5701
12.535
12.5278
12.6268
12.5994
12.6106
12.6514
12.5628
12.569
12.4599
12.4044
12.6242
12.5875
12.64
12.4661
12.6678
12.4857
12.4913
12.5489
12.4962
12.4273
12.5565
12.5277
12.502
12.4153
12.709
12.427
12.472
12.6064
12.7348
12.3802
12.4654
12.3499
12.4387
12.4837
12.5187
12.4939
12.4784
12.5115
12.4943
12.2966
13.5475
12.347
12.2181
11.3329
12.6023
12.6001
12.5883
12.5893
12.5934
13.2699
12.1053
12.2019
11.6018
12.1777
12.617
12.6144
12.6352
12.6331
12.6288
12.6274
12.6265
12.6244
12.6186
12.48
12.5365
12.5104
12.4681
12.4665
12.5346
12.5106
12.3624
12.6373
12.6285
12.6462
12.6476
12.6304
12.6418
12.6421
12.6173
12.6305
12.6205
12.6089
12.6191
12.5746
12.5312
12.552
12.6238
12.5677
12.5434
12.5891
12.5709
12.538
12.6218
12.7779
12.6048
12.5564
12.7706
12.7428
12.7231
12.5253
12.5891
12.5175
12.5323
12.4368
12.5874
12.5346
12.563
12.4809
12.7653
12.3924
12.4898
12.5988
12.7751
12.419
12.5191
12.5231
12.5696
12.488
12.5234
12.513
12.5145
12.5459
12.5409
12.2307
12.0112
12.5028
12.3647
12.4537
12.5841
12.6009
12.5807
12.5824
12.6027
12.1172
12.2724
12.3223
12.411
12.3587
12.6169
12.6139
12.6218
12.6179
12.615
12.6164
12.61
12.613
12.6088
12.4622
12.5357
12.5191
12.4628
12.4748
12.5461
12.5359
12.4514
12.6246
12.6206
12.6354
12.6349
12.6235
12.6326
12.632
12.5973
12.6075
12.5972
12.5954
12.6027
12.5773
12.5902
12.6179
12.5828
12.5494
12.5503
12.6309
12.53
12.5939
12.5038
12.6954
12.5407
12.4933
12.6327
12.6877
12.6893
12.6492
12.6665
12.5654
12.6203
12.5443
12.6997
12.5952
12.6929
12.5953
12.7435
12.4376
12.5266
12.576
12.7242
12.4416
12.5093
12.5956
12.6158
12.566
12.5713
12.568
12.6061
12.5959
12.593
12.4483
12.5881
12.5592
12.4869
12.5988
12.5817
12.6008
12.5957
12.5884
12.6012
12.4465
12.4094
12.275
12.4188
12.4274
12.6137
12.6174
12.5972
12.6118
12.6053
12.6174
12.581
12.6176
12.6044
12.4916
12.5763
12.5641
12.5271
12.5251
12.6209
12.6037
12.5412
12.6195
12.6218
12.6326
12.6326
12.6295
12.6382
12.6392
12.6051
12.6086
12.6226
12.6236
12.6233
12.6282
12.6246
12.6145
12.6853
12.5668
12.6439
12.6996
12.6229
12.68
12.5092
12.5956
12.579
12.5287
12.578
12.7109
12.7114
12.6697
12.6647
12.592
12.7291
12.595
12.6893
12.5327
12.6921
12.5849
12.7088
12.4307
12.4826
12.5537
12.6784
12.3948
12.4617
12.6418
12.6727
12.6284
12.6156
12.6126
12.6356
12.6338
12.6297
12.5272
12.6256
12.6574
12.6261
12.7181
12.6086
12.6152
12.6461
12.6409
12.6452
12.4692
12.4642
12.3983
12.5956
12.5812
12.6301
12.6569
12.5772
12.6326
12.6178
12.6531
12.575
12.6588
12.6374
12.5806
12.6772
12.6566
12.6589
12.662
12.7409
12.7182
12.7027
12.6309
12.6504
12.6537
12.6557
12.6606
12.6792
12.6817
12.6622
12.6613
12.6994
12.6969
12.6931
12.7436
12.5922
12.5812
12.7087
12.6606
12.7075
12.7208
12.6998
12.7159
12.5341
12.5586
12.5882
12.5428
12.5608
12.6845
12.6565
12.6624
12.6735
12.4888
12.654
12.5758
12.5234
12.4581
12.645
12.5712
12.6533
12.3463
12.4803
12.525
12.6475
12.3005
12.534
12.7263
12.8045
12.6473
12.6574
12.6511
12.6655
12.6892
12.6822
12.7776
12.8671
12.8903
12.9515
13.032
12.6862
12.691
12.7388
12.7394
12.7472
12.8056
12.7599
12.9546
13.1008
12.993
12.7026
12.7597
12.6206
12.7072
12.6771
12.7537
12.6905
12.7655
12.7346
12.7715
12.8117
12.8001
12.8376
12.88
12.8854
12.8779
13.0326
12.6913
12.7469
12.7204
12.722
12.7236
12.7558
12.7566
12.7546
12.7507
12.7895
12.7991
12.7861
12.878
12.5997
12.6366
12.7206
12.7319
12.7073
12.7593
12.7681
12.7258
12.587
12.5929
12.6857
12.6599
12.6413
12.6401
12.6369
12.7108
12.7718
12.4859
12.6681
12.6001
12.647
12.585
12.7238
12.6614
12.6634
12.2707
12.6063
12.5139
12.6942
12.2494
12.6669
12.9003
13.0073
12.701
12.7328
12.7252
12.7525
12.7855
12.7789
13.27
13.3822
13.2692
13.6613
13.676
12.7971
12.8117
12.8513
12.854
12.8776
13.3763
13.2057
13.4122
13.522
13.3137
12.828
12.8951
12.785
12.8418
12.8074
12.8919
12.89
12.9139
12.8859
12.9713
12.9513
12.9518
12.9783
13.0351
12.9966
13.0123
13.2081
12.8285
12.9039
12.8139
12.8154
12.8173
12.8523
12.8542
12.8498
12.8458
12.8978
12.8908
12.8879
12.9681
12.725
12.871
12.8
12.8223
12.7632
12.8202
12.8796
12.7945
12.7351
12.7032
12.797
12.8106
12.7727
12.6497
12.6738
12.8496
12.9272
12.7183
12.7962
12.7678
12.8509
12.8314
12.8617
12.8936
12.7265
12.2464
12.72
12.5094
12.7629
12.27
12.7466
13.1114
13.1366
12.8164
12.8423
12.8365
12.8744
12.8979
12.8952
13.7352
13.6755
13.5317
13.5757
13.53
12.9084
12.9399
12.9587
12.9604
12.9948
13.5122
13.3157
13.3741
13.4298
13.2672
12.96
13.0159
12.9769
12.9905
12.9672
13.0112
13.0492
13.045
13.0366
13.0808
13.032
13.0613
13.055
13.1126
13.0582
13.0903
13.1954
12.994
13.0588
12.9115
12.9226
12.9481
12.9662
12.9737
12.9326
12.9382
12.9908
12.9744
12.9827
13.0321
12.9822
13.2725
12.8952
12.9511
12.8626
12.9902
13.0406
12.9645
12.9013
12.8443
12.9326
12.9756
12.9034
12.7205
12.7894
12.9888
13.036
12.9458
12.9178
12.9916
13.0058
13.1135
12.9669
13.0526
12.822
12.3488
12.8164
12.6034
12.9094
12.4476
12.9522
13.0951
13.0391
12.9285
12.951
12.9505
12.9767
12.9999
12.9996
13.3536
13.3685
13.3561
13.1662
13.2114
13.0099
13.0458
13.0564
13.0557
13.0966
13.3346
13.2307
13.2257
13.2456
13.1956
13.0671
13.1119
13.1102
13.0978
13.0971
13.1028
13.1652
13.1323
13.1432
13.1316
13.0804
13.1127
13.1096
13.1525
13.1033
13.1317
13.1731
13.1291
13.1735
13.0341
13.0495
13.101
13.0911
13.1037
13.0185
13.0355
13.0819
13.0664
13.0819
13.0983
13.3883
13.2862
13.0405
13.1114
13.0419
13.1033
13.1312
13.1026
12.9956
12.9353
12.9618
12.9936
12.9635
12.8692
12.9439
13.0718
13.1058
13.2048
13.0107
13.0794
13.1334
13.1842
13.0434
13.073
12.9833
12.5809
13.0057
12.7998
13.045
12.69
13.0056
12.9382
12.8586
13.0267
13.0485
13.0445
13.075
13.0994
13.0903
13.0531
13.1224
12.9624
13.022
13.1002
13.0972
13.1471
13.1452
13.1374
13.1915
13.2001
13.1903
13.178
13.1978
13.2042
13.1596
13.2115
13.1914
13.1824
13.1876
13.205
13.2284
13.2309
13.2365
13.1786
13.1317
13.1539
13.1854
13.2095
13.1704
13.1869
13.2135
13.2093
13.2494
13.1611
13.1835
13.2347
13.22
13.2468
13.1208
13.1464
13.1925
13.1787
13.2003
13.1907
13.2075
13.221
13.2092
13.1862
13.1721
13.2528
13.2508
13.204
13.0191
13.0042
13.1376
13.0651
13.0439
13.0064
13.0717
13.1396
13.1743
13.1775
13.0728
13.0825
13.2078
13.1983
13.1064
13.1105
13.113
12.7786
13.0479
13.0463
13.193
12.8485
13.1412
12.8956
13.0407
13.1248
13.1526
13.137
13.1744
13.2062
13.1862
13.1043
13.1745
13.1069
13.2302
13.2815
13.1792
13.2329
13.2345
13.2226
13.2767
13.2452
13.2478
13.2907
13.3125
13.3035
13.2595
13.3046
13.2586
13.2773
13.2792
13.3075
13.303
13.3231
13.3243
13.2508
13.2212
13.2373
13.2865
13.3006
13.2783
13.2893
13.3131
13.2909
13.336
13.2802
13.311
13.3451
13.3341
13.3683
13.2437
13.2629
13.311
13.3049
13.3207
13.3136
13.2567
13.259
13.2014
13.2613
13.1856
13.1643
13.2522
13.1589
13.1013
13.0777
13.2024
13.1214
13.1063
13.1479
13.2142
13.2095
13.2479
13.2236
13.1595
13.1375
13.2504
13.2426
13.2117
13.1609
13.2902
12.9642
13.2572
13.225
13.3826
13.1092
13.3965
13.2131
13.4564
13.223
13.2595
13.2353
13.27
13.3116
13.2829
13.3874
13.4184
13.4455
13.5309
13.5432
13.267
13.3214
13.3292
13.3126
13.3665
13.4004
13.3768
13.4721
13.4877
13.448
13.3517
13.3987
13.3451
13.3719
13.3721
13.3944
13.3915
13.4177
13.4218
13.3642
13.3449
13.3548
13.4072
13.4243
13.4076
13.4162
13.4381
13.3818
13.4289
13.3861
13.4192
13.4373
13.4332
13.4669
13.3708
13.3797
13.4252
13.4273
13.4332
13.4436
13.2706
13.2871
13.1575
13.2448