/*--------------------------------*- C++ -*----------------------------------*\
| =========                 |                                                 |
| \\      /  F ield         | OpenFOAM: The Open Source CFD Toolbox           |
|  \\    /   O peration     | Version:  5.x                                   |
|   \\  /    A nd           | Web:      www.OpenFOAM.org                      |
|    \\/     M anipulation  |                                                 |
\*---------------------------------------------------------------------------*/
FoamFile
{
    version     2.0;
    format      ascii;
    class       volVectorField;
    location    "2.35";
    object      Us;
}
// * * * * * * * * * * * * * * * * * * * * * * * * * * * * * * * * * * * * * //

dimensions      [0 1 -1 0 0 0 0];

internalField   nonuniform List<vector> 
10571
(
(-0.101211 0.0233773 -0.00435597)
(0.0757105 -0.0971715 0.0531239)
(-0.205294 0.111854 0.15865)
(-0.0883668 0.15845 0.132222)
(-0.122104 -0.0605132 0.0924847)
(0.0706146 -0.531927 0.150448)
(0.0967212 -0.79068 0.132935)
(-0.359839 -0.584945 0.159327)
(-0.330631 -0.360002 0.170862)
(-0.0970467 -0.214038 0.0722463)
(-0.0117206 -0.28101 0.0138368)
(0.0461654 -0.486817 0.0649315)
(0.0424331 -0.653789 0.160285)
(-0.188676 -0.646489 0.159723)
(-0.16453 -0.492493 0.151705)
(-0.0246293 -0.206311 0.111742)
(-0.0546469 -0.283163 -0.0870301)
(-0.0193349 -0.423478 -0.029646)
(-0.0664011 -0.424297 0.00609962)
(-0.0145765 -0.274338 -0.00974956)
(0.0529739 -0.143394 0.036153)
(-0.0954973 -0.120246 -0.106692)
(0.0103463 -0.119574 -0.129432)
(0.07362 -0.0692791 -0.0834217)
(-0.0201114 0.000764845 0.0399302)
(0.0527921 -0.0820555 0.229689)
(-0.132722 -0.0405299 0.386627)
(-0.212791 0.0377505 0.29728)
(-0.0697633 -0.055373 0.267364)
(-0.0973912 -0.287136 0.408002)
(-0.0649631 -0.427785 0.445298)
(-0.17998 -0.275572 0.392109)
(-0.187859 -0.165897 0.186688)
(-0.112273 -0.152501 -0.0532661)
(0.0320191 -0.0579592 -0.20146)
(-0.0331392 -0.288226 0.122121)
(-0.0805488 -0.327763 0.183709)
(-0.180232 -0.261623 0.201182)
(-0.217129 -0.210622 0.0537064)
(-0.072973 -0.113504 0.000305853)
(-0.0152648 -0.25118 -0.272883)
(-0.0485095 -0.284541 -0.228056)
(-0.0968304 -0.256032 -0.176579)
(-0.146319 -0.244288 -0.115245)
(0.00138598 -0.0579583 -0.0708209)
(-0.0666984 -0.110429 -0.338929)
(-0.011967 -0.120743 -0.340456)
(0.0106731 -0.0466842 -0.22977)
(0.0138758 -0.00231682 0.0763019)
(-0.0389745 -0.0104076 0.338825)
(-0.143089 -0.226151 0.555562)
(-0.193898 -0.150423 0.411122)
(0.0539312 0.0580833 0.278118)
(-0.249172 -0.205122 0.516459)
(-0.0314832 -0.270748 0.461338)
(-0.0477696 -0.192723 0.473442)
(-0.126322 -0.0797238 0.296881)
(-0.0338569 0.161903 -0.244297)
(-0.0106562 -0.0358432 -0.579188)
(-0.186078 -0.0393431 -0.0665052)
(-0.0848277 -0.201255 0.251922)
(-0.149384 -0.123952 0.285041)
(-0.199851 -0.130797 -0.0661981)
(-0.0615755 -0.0683165 -0.220189)
(0.0123276 -0.00867534 -0.693176)
(-0.03066 -0.145422 -0.463282)
(-0.0523723 -0.170376 -0.401473)
(-0.157877 -0.191211 -0.26679)
(-0.0142924 -0.0663732 -0.287293)
(-0.0442641 -0.0899346 -0.544037)
(-0.0255193 -0.101462 -0.507456)
(-0.00974591 -0.0524717 -0.438275)
(-0.00180783 -0.00992127 0.151436)
(-0.132687 0.0763995 0.407017)
(-0.158507 -0.190057 0.665184)
(0.00518342 -0.23116 0.492437)
(0.0835016 -0.020055 0.273738)
(-0.250445 -0.142875 0.383896)
(-0.0180157 -0.209723 0.410738)
(0.0699872 -0.255506 0.452234)
(0.0601094 -0.0477327 0.203519)
(0.0247103 0.109185 -0.351402)
(0.00235665 -0.0286884 -0.608292)
(0.103852 0.0861274 -0.347906)
(-0.0476076 -0.17963 0.174725)
(-0.0683607 -0.11473 0.296719)
(-0.0357957 0.0512232 -0.505845)
(-0.0475825 0.0046792 -0.532065)
(0.00826257 -0.00289508 -0.640702)
(-0.0240591 0.0351069 -0.598909)
(0.0205339 0.0240115 -0.64037)
(0.0361306 0.035951 -0.596103)
(-0.00337402 -0.0577426 -0.737754)
(-0.0247688 -0.00799953 -0.844718)
(-0.0150856 -0.018497 -0.747352)
(0.0226099 -0.0155487 -0.730005)
(-0.108365 -0.0813517 0.0191866)
(-0.069272 0.034963 -0.315753)
(-0.0177371 -0.0351514 0.486998)
(-0.093954 -0.170557 0.400987)
(0.0917419 -0.159579 0.339755)
(-0.0506621 0.0506511 -0.0376783)
(-0.0579064 -0.128852 0.230013)
(0.0191276 -0.25424 0.329194)
(0.0983566 -0.0841875 0.0967223)
(0.0478943 0.0395883 -0.342151)
(-0.00298025 -0.0666498 -0.631208)
(0.0509924 0.0579204 -0.128308)
(-0.101636 -0.0250202 -0.0617138)
(-0.0586684 -0.0785112 0.120675)
(0.0684153 0.0825962 -0.379757)
(-0.0601594 -0.0204187 -0.432304)
(0.0249415 -0.00392082 -0.631911)
(-0.00397044 0.0451755 -0.583812)
(0.0350332 0.0589223 -0.535811)
(0.0600941 0.0140782 -0.584991)
(0.0179865 -0.0155481 -0.678233)
(-0.0241263 -0.00993146 -0.850553)
(0.00892109 -0.0122236 -0.842929)
(0.0350408 -0.0276585 -0.822871)
(0.0272687 0.0119113 -0.374948)
(0.0221087 -0.00598049 -0.431727)
(0.0729027 0.0193507 -0.246971)
(0.0614342 -0.0680847 -0.326295)
(-0.0696408 -0.0108721 0.278433)
(0.0329775 0.063198 -0.0379634)
(0.00197321 0.0331127 -0.0964444)
(0.012371 -0.00322353 -0.130248)
(0.116884 0.0227421 -0.219474)
(-0.00856076 0.0371016 -0.222828)
(-0.00555396 0.00156563 -0.00188001)
(0.000386285 -0.057075 -0.591362)
(0.0310975 0.0833999 -0.0124994)
(-0.0538629 0.0512084 -0.151456)
(-0.0117536 0.0574724 -0.0766654)
(0.104302 0.07639 -0.303693)
(-0.0778217 -0.0189975 -0.298305)
(-0.00531144 -0.00119593 -0.00227738)
(0.000138748 -0.010056 -0.57511)
(-0.0115678 0.0659256 -0.451008)
(0.0237712 0.0780774 -0.356179)
(0.0789652 0.0978363 -0.424073)
(0.00164245 0.0997872 -0.492603)
(0.0478162 0.00214539 -0.762245)
(0.0375195 0.0948357 -0.752388)
(3.88722e-15 -4.60292e-15 -8.81995e-14)
(0.0343202 0.0341567 -0.295471)
(0.020726 -0.00619059 -0.340256)
(0.0769534 0.0570966 -0.375923)
(0.077064 -0.0482036 -0.282251)
(-0.00109477 0.0663208 -0.149445)
(0.0448933 0.0596777 -0.0418612)
(0.0240982 0.0099066 -0.0749479)
(0.0799888 -0.0247628 -0.25118)
(0.127514 0.00435952 -0.239378)
(0.120596 0.0558635 -0.363352)
(0.000100421 -0.00883868 -0.00601979)
(0.00486409 -0.0628111 -0.525474)
(0.0210871 0.0633477 -0.0851563)
(0.0047732 0.0539417 -0.242812)
(0.0475126 0.02768 -0.223345)
(0.118025 0.0722961 -0.300903)
(0.124073 0.131066 -0.439604)
(-0.0105219 -0.00419063 -0.012859)
(-0.0198057 0.0550124 -0.462653)
(0.0198036 0.0759671 -0.41633)
(0.0433169 0.082368 -0.319954)
(0.10591 0.0772798 -0.314022)
(0.123693 0.210719 -0.507027)
(-0.0140977 -0.00183648 -0.0121564)
(0 0 0)
(7.55695e-16 2.80395e-14 -5.35904e-14)
(-0.0674885 -0.178622 -0.492065)
(0.0517623 -0.0339733 -0.252387)
(-0.00352529 -0.044776 -0.310098)
(0.0597033 -0.0399759 -0.190451)
(0.0724864 -0.0873693 -0.23111)
(-0.028413 0.102665 -0.140596)
(0.015893 0.0608127 -0.11008)
(0.0115836 -0.032024 -0.154237)
(0.0829216 -0.0321639 -0.248452)
(0.137271 -0.0165441 -0.245506)
(0.0542309 0.0966884 -0.315104)
(0 0 0)
(-0.00238229 0.00248525 -0.379906)
(-0.0351788 0.125087 -0.0309875)
(0.00617751 0.0559304 -0.249417)
(0.0619267 0.0669272 -0.262847)
(0.102211 0.105175 -0.33314)
(0.0379074 0.169919 -0.411273)
(1.36738e-14 2.13061e-14 -5.65002e-14)
(-0.0698512 0.0755173 -0.331803)
(0.0109283 0.116071 -0.338858)
(0.0524609 0.188418 -0.337434)
(0.0524805 0.186072 -0.374115)
(0.0984748 0.182627 -0.534683)
(0 0 0)
(0 0 0)
(0 0 0)
(0.0412991 0.287651 -0.441054)
(-0.0136916 0.0591756 -0.192122)
(0.0441241 -0.0166007 -0.294798)
(-0.00937796 -0.114436 -0.141389)
(0.0722939 -0.0932804 -0.152053)
(-0.0319185 0.0245036 0.0205498)
(0.00487564 0.0553647 -0.0653834)
(0.0133387 -0.034937 -0.18922)
(0.0918166 -0.00800167 -0.240249)
(0.0792314 0.085297 -0.345495)
(0.179112 0.0352022 -0.407586)
(0 0 0)
(-0.0339303 -0.0102293 -0.327447)
(-0.0979949 0.0129786 -0.135127)
(0.0184858 0.0401512 -0.262432)
(0.0508686 0.106729 -0.284759)
(0.0822115 0.16807 -0.352848)
(0.0112635 0.162842 -0.385156)
(0 0 0)
(-0.0698905 0.0774232 -0.326535)
(0.0218759 0.122401 -0.304041)
(0.0419292 0.218551 -0.31025)
(0.0919722 0.16225 -0.316248)
(-7.0774e-15 -3.1545e-15 -9.16029e-14)
(0 0 0)
(0 0 0)
(-0.196686 -0.144256 -0.296686)
(0 0 0)
(-0.0319026 -0.0177898 -0.25177)
(-0.00632406 -0.103701 -0.125954)
(0 0 0)
(0 0 0)
(-0.0327366 0.0364492 -0.0827195)
(0.00534435 0.0189102 -0.249376)
(0.0464387 0.062741 -0.3412)
(0.0962475 0.0823045 -0.312147)
(0 0 0)
(-0.0825699 0.120346 -0.188225)
(-0.0649481 0.0348536 -0.0463872)
(-0.0020388 0.128154 -0.253803)
(0.0153765 0.152829 -0.234704)
(0.0618253 0.175402 -0.322149)
(0.0909967 0.180661 -0.335212)
(-0.0840198 0.194885 -0.424609)
(-0.020851 0.256584 -0.306675)
(-0.00131856 0.22644 -0.305375)
(0.041748 0.231332 -0.320972)
(0.0164711 -0.01183 -0.908251)
(0 0 0)
(0.150953 0.390575 -0.458135)
(0 0 0)
(-0.0312528 0.0240814 -0.117238)
(-0.0386902 -0.0232939 -0.188944)
(0.0234275 -0.0533809 -0.442492)
(-0.0401875 0.055692 -0.175201)
(0 0 0)
(-0.0315496 -0.0349406 0.000846881)
(-0.0447688 0.134142 -0.285386)
(0.0200313 0.0841417 -0.259198)
(0.088348 0.131689 -0.227817)
(0.116875 0.064702 -0.261534)
(0.00430354 -0.135594 -0.583032)
(0.00987436 0.126775 -0.0511302)
(-0.0422825 0.189667 -0.245705)
(0.00166422 0.16942 -0.237134)
(0.0434311 0.154456 -0.328746)
(-0.0393324 0.162676 -0.358261)
(0 0 0)
(-0.027459 0.214209 -0.390098)
(-0.00912872 0.160428 -0.425094)
(0 0 0)
(0 0 0)
(0 0 0)
(0 0 0)
(0 0 0)
(-0.0403113 0.0544842 -0.0688736)
(0 0 0)
(-0.0436514 0.0288745 -0.100762)
(-0.0176346 0.0609614 -0.0642279)
(0 0 0)
(8.37877e-05 0.037559 -0.159933)
(-0.00537336 0.124165 -0.339663)
(0.0155369 0.0925381 -0.289348)
(0.0587353 0.122001 -0.126553)
(0.0691687 0.0778196 -0.035349)
(-0.0193222 0.0762676 -0.34246)
(-0.0352292 0.149076 -0.203795)
(-0.055019 0.164717 -0.23974)
(0.00352261 0.136093 -0.261799)
(0.0586747 0.115052 -0.399613)
(0.0994833 0.178293 -0.21766)
(-0.117966 0.297013 -0.196495)
(-0.0495854 0.238942 -0.271597)
(-0.0211226 0.120439 -0.518291)
(0 0 0)
(0 0 0)
(0 0 0)
(0.0407785 -0.0159705 -0.823359)
(0 0 0)
(-0.0357414 -0.0324028 0.00461035)
(-0.147944 0.0346746 -0.151629)
(0.108272 -0.12564 -0.175299)
(0.00421597 0.0604589 -0.054402)
(0 0 0)
(-0.0569907 0.00166297 -0.12601)
(-0.0199039 0.10216 -0.225022)
(0.0195683 0.101745 -0.211345)
(0.0359508 0.117487 -0.124316)
(-0.0667624 0.152628 -0.0702733)
(0.0417176 0.200845 -0.141285)
(0.0804571 0.135286 -0.282875)
(-0.03726 0.217873 -0.157036)
(-0.0158944 0.115744 -0.284242)
(0.0829028 0.256203 -0.237688)
(-0.064806 0.270554 -0.178434)
(0 0 0)
(0.0294475 0.370307 -0.210874)
(0 0 0)
(0 0 0)
(0 0 0)
(0 0 0)
(0 0 0)
(0 0 0)
(0 0 0)
(-0.134608 0.110743 -0.154481)
(-0.0687373 0.0441136 -0.0550903)
(-0.124104 -0.103079 -0.0899438)
(-0.027387 0.0345869 0.184879)
(-0.11313 0.0899404 -0.0375335)
(-0.0525482 0.174082 -0.276261)
(-0.0125729 0.11799 -0.11207)
(0.0593931 0.0913406 -0.177768)
(0.0929684 0.0972751 0.0187777)
(0.0736284 0.0972183 -0.0728338)
(-0.12164 0.145726 -0.026859)
(-0.0627543 0.18862 -0.121937)
(-0.0246915 0.0777123 -0.447585)
(0.0414102 0.135083 -0.48104)
(0 0 0)
(-0.0605291 -0.0804809 -0.729294)
(0 0 0)
(0 0 0)
(0 0 0)
(0 0 0)
(0 0 0)
(0 0 0)
(0 0 0)
(0 0 0)
(-0.153337 0.0905804 -0.0456271)
(-0.0837485 0.22204 -0.150165)
(0 0 0)
(0.0208919 0.0304818 0.223129)
(0.019403 0.16588 -0.126091)
(0.0204961 0.0764122 -0.404844)
(0.0146406 0.10958 -0.159237)
(0.0587597 0.101071 0.119353)
(0.0602815 0.120394 0.0538142)
(0.0280467 0.193632 -0.118192)
(0 0 0)
(0 0 0)
(-0.0123673 0.00828657 -0.534732)
(0.0658644 0.0790347 -0.426237)
(0 0 0)
(0 0 0)
(0 0 0)
(0 0 0)
(2.03167e-16 -1.51688e-15 -8.37979e-14)
(0 0 0)
(0 0 0)
(0 0 0)
(0 0 0)
(0 0 0)
(-0.103623 0.111664 -0.0311689)
(-0.0861705 0.0622115 0.0542551)
(0.00289993 0.063191 -0.0309812)
(0.0333812 0.0418972 0.209569)
(-0.112534 0.164877 -0.0738124)
(-0.032499 0.109271 -0.162068)
(0.0243198 0.125407 -0.142695)
(0.0338401 0.13752 0.111538)
(0.0338401 0.13752 0.111538)
(-0.0732601 0.231054 -0.122205)
(0 0 0)
(0 0 0)
(0.0167224 0.217043 -0.0520088)
(1.72411e-15 -4.51526e-15 -7.82431e-14)
(0 0 0)
(0.0421498 0.280887 -0.112115)
(0 0 0)
(0 0 0)
(0.00807723 -0.0157343 -0.747502)
(0 0 0)
(0 0 0)
(0 0 0)
(0 0 0)
(0 0 0)
(0 0 0)
(0 0 0)
(-0.0737654 0.045566 0.0995249)
(0 0 0)
(-0.122983 0.0850845 0.0218758)
(0.0135868 0.0937815 -0.295691)
(0.0114567 0.172033 -0.290695)
(0.00470191 -0.080904 -0.73088)
(1.13734e-15 1.561e-14 1.66552e-14)
(0 0 0)
(0.151377 0.116785 0.00260864)
(0 0 0)
(0 0 0)
(0.0972956 0.326679 0.0839506)
(0 0 0)
(0 0 0)
(0 0 0)
(-0.00952396 0.00180587 -0.717795)
(0 0 0)
(0 0 0)
(0 0 0)
(0.00452759 -0.0272343 -0.705327)
(0 0 0)
(0 0 0)
(-0.0185456 0.119098 -0.0334195)
(-0.0831762 0.0318805 0.0947155)
(-0.0572502 0.0449424 0.161125)
(0.0377304 0.0475858 0.272311)
(-0.135382 0.113704 0.0872377)
(-0.0411835 -0.0225877 -0.580414)
(0.0211478 0.124013 -0.532632)
(0 0 0)
(0 0 0)
(0 0 0)
(0 0 0)
(0.0221984 -0.0921453 -0.553148)
(-0.00617498 -0.0379218 -0.601903)
(0 0 0)
(0 0 0)
(0 0 0)
(0.00175693 -0.0504932 -0.641303)
(0 0 0)
(0 0 0)
(0 0 0)
(-0.00852711 -0.019127 -0.663469)
(0 0 0)
(0 0 0)
(0 0 0)
(-0.0595044 0.145472 0.0443317)
(0 0 0)
(0 0 0)
(0 0 0)
(0 0 0)
(0 0 0)
(0 0 0)
(0 0 0)
(0 0 0)
(0 0 0)
(0 0 0)
(0 0 0)
(-0.0165924 -0.0332683 -0.597724)
(0 0 0)
(0 0 0)
(0 0 0)
(0 0 0)
(0 0 0)
(0 0 0)
(0 0 0)
(0 0 0)
(0 0 0)
(0 0 0)
(0 0 0)
(0 0 0)
(0 0 0)
(0 0 0)
(-0.103087 0.0349575 -0.37994)
(0 0 0)
(0.0643842 0.0843087 -0.47038)
(0.0933237 0.0891664 -0.593015)
(0.0272484 -0.145743 -0.60157)
(0.0124282 -0.132394 -0.616204)
(0 0 0)
(0 0 0)
(0 0 0)
(-0.000805179 -0.0280049 -0.585986)
(0.0553542 -0.107074 -0.597089)
(0.0659502 -0.117166 -0.630861)
(0 0 0)
(0 0 0)
(0.0231425 -0.0199774 -0.588151)
(0 0 0)
(0 0 0)
(0 0 0)
(0 0 0)
(0 0 0)
(0 0 0)
(-0.15138 0.0986226 0.142725)
(0 0 0)
(0 0 0)
(0 0 0)
(0.056976 -0.0228441 -0.456094)
(-0.0715988 0.131574 0.155069)
(0 0 0)
(0 0 0)
(0 0 0)
(0 0 0)
(-0.144489 0.232622 0.18354)
(-0.0350361 -0.0871107 -0.475347)
(-0.0214874 -0.0223322 -0.619519)
(0 0 0)
(0.0757408 -0.109526 -0.587909)
(0 0 0)
(0 0 0)
(0 0 0)
(0 0 0)
(0 0 0)
(0 0 0)
(0 0 0)
(0 0 0)
(0 0 0)
(-0.108617 0.0957621 0.165951)
(0 0 0)
(0 0 0)
(0.0904883 0.0385883 0.286296)
(0.0570282 -0.0383706 -0.474796)
(0.0518353 0.0031338 -0.517862)
(-0.0138174 -0.0939817 -0.607726)
(0.0528678 -0.100531 -0.537767)
(0.0196816 -0.143575 -0.609799)
(0 0 0)
(0 0 0)
(-0.0186845 -0.0425679 -0.466213)
(-0.0196515 -0.0227986 -0.59296)
(8.93032e-15 -1.05048e-14 -6.32318e-14)
(0 0 0)
(0 0 0)
(0 0 0)
(0 0 0)
(0.010003 -0.0190083 -0.668125)
(0 0 0)
(0 0 0)
(0 0 0)
(0 0 0)
(0 0 0)
(-0.0111009 0.121345 0.159674)
(0 0 0)
(0.0890204 0.0418348 -0.472173)
(0 0 0)
(0.0855117 -0.0981093 -0.239457)
(0.0633603 0.0463598 -0.545123)
(-0.0288717 -0.0797349 -0.610594)
(0 0 0)
(0 0 0)
(-0.0136492 -0.0746175 -0.333691)
(0 0 0)
(0 0 0)
(0.00226268 -0.0502947 -0.524005)
(0 0 0)
(0 0 0)
(0 0 0)
(0 0 0)
(0 0 0)
(0 0 0)
(0.0787223 -0.0691377 -0.592324)
(0 0 0)
(0 0 0)
(0 0 0)
(0 0 0)
(0 0 0)
(0.0125428 0.123575 -0.378372)
(0 0 0)
(0 0 0)
(0 0 0)
(0.09247 0.0876609 -0.496617)
(0 0 0)
(0.0527439 -0.106296 -0.541355)
(-1.12747e-14 -1.10605e-14 -5.0507e-14)
(0 0 0)
(0 0 0)
(0 0 0)
(-0.023628 -0.0484868 -0.546094)
(0 0 0)
(0.0429467 -0.117979 -0.571796)
(0 0 0)
(0 0 0)
(-0.02334 0.00203815 -0.59687)
(0 0 0)
(0.0741122 -0.0701863 -0.573772)
(0 0 0)
(0 0 0)
(0 0 0)
(0 0 0)
(0 0 0)
(0.0199229 0.117803 -0.358274)
(0 0 0)
(0 0 0)
(0.0357379 -0.0960534 -0.263614)
(0.0447065 0.0592803 -0.496065)
(0 0 0)
(0 0 0)
(-0.00994493 -0.143552 -0.525362)
(0 0 0)
(-0.0143339 -0.0766166 -0.405197)
(0 0 0)
(0 0 0)
(0.0317081 -0.0858614 -0.550152)
(0 0 0)
(-0.0301825 -0.0386775 -0.425732)
(0 0 0)
(0.00980406 -0.0181245 -0.513245)
(0 0 0)
(0 0 0)
(0 0 0)
(0 0 0)
(0 0 0)
(0 0 0)
(0 0 0)
(0 0 0)
(0 0 0)
(0 0 0)
(0 0 0)
(0.0824103 0.0531418 -0.501617)
(0 0 0)
(0 0 0)
(-0.0432744 -0.154355 -0.528366)
(0 0 0)
(0 0 0)
(0 0 0)
(0.0253295 -0.0639866 -0.428923)
(0.0533343 -0.108323 -0.501808)
(0.0259538 -0.11793 -0.548872)
(-0.0176645 -0.0490807 -0.412827)
(0 0 0)
(0.0147355 -0.0437691 -0.490507)
(0 0 0)
(0.0670651 -0.0730509 -0.540961)
(0 0 0)
(0 0 0)
(0 0 0)
(0 0 0)
(0 0 0)
(0.0384915 0.113992 -0.32183)
(0 0 0)
(0 0 0)
(0 0 0)
(-0.0265398 -0.0783972 -0.511638)
(0 0 0)
(0 0 0)
(-0.0911025 -0.0908933 -0.3931)
(4.07772e-15 -3.12875e-15 -5.90666e-14)
(0 0 0)
(0 0 0)
(0.0198008 -0.0523557 -0.409282)
(0.0677285 -0.0788844 -0.480599)
(-0.0420863 -0.0915214 -0.450134)
(-0.00285083 -0.048174 -0.391079)
(0 0 0)
(0.0225941 -0.0368071 -0.435673)
(0 0 0)
(0 0 0)
(0 0 0)
(0 0 0)
(0.0640682 -0.00396397 -0.493474)
(0 0 0)
(0.16321 -0.0926457 -0.2293)
(0 0 0)
(0 0 0)
(0 0 0)
(0 0 0)
(0.0496571 0.00638876 -0.498727)
(0.00596883 -0.0893129 -0.548054)
(-0.00447113 -0.146769 -0.513664)
(0 0 0)
(0 0 0)
(0 0 0)
(0 0 0)
(0.0373611 -0.0585932 -0.365506)
(0.0588013 -0.0521083 -0.485981)
(0 0 0)
(0 0 0)
(-0.0139728 -0.0644909 -0.458821)
(0 0 0)
(0.0513319 -0.0325298 -0.464651)
(0 0 0)
(0 0 0)
(0 0 0)
(0.0446827 0.0058293 -0.468722)
(0 0 0)
(0 0 0)
(0.0533654 0.0978039 -0.328969)
(0 0 0)
(0 0 0)
(0 0 0)
(0 0 0)
(0.00596883 -0.0893129 -0.548054)
(0 0 0)
(0 0 0)
(-0.00371175 -0.0931647 -0.280768)
(0 0 0)
(0 0 0)
(0 0 0)
(0.0135811 -0.0961631 -0.489543)
(1.01527e-15 -1.07747e-14 -5.25988e-14)
(0 0 0)
(0 0 0)
(0 0 0)
(0.054146 -0.068072 -0.45826)
(0 0 0)
(0 0 0)
(0 0 0)
(0 0 0)
(0 0 0)
(0 0 0)
(0.0430486 0.0987138 -0.292932)
(0 0 0)
(0 0 0)
(0 0 0)
(0.0292831 -0.0183642 -0.396128)
(0 0 0)
(0 0 0)
(0 0 0)
(0 0 0)
(0 0 0)
(0.000191357 -0.0602507 -0.36286)
(0.0426749 -0.0666609 -0.359705)
(0.0135811 -0.0961631 -0.489543)
(0.04546 -0.101891 -0.48139)
(0 0 0)
(0 0 0)
(0 0 0)
(0 0 0)
(0.0649063 -0.0778783 -0.482714)
(0 0 0)
(0 0 0)
(0 0 0)
(0 0 0)
(0 0 0)
(0 0 0)
(0 0 0)
(0 0 0)
(0 0 0)
(0.080918 0.0297397 -0.371704)
(0 0 0)
(0 0 0)
(0 0 0)
(0 0 0)
(0 0 0)
(0 0 0)
(0 0 0)
(0 0 0)
(0 0 0)
(-0.0501352 -0.0135672 -0.298563)
(0 0 0)
(0.0271219 -0.0398422 -0.384687)
(0 0 0)
(0.0690948 -0.0559261 -0.443419)
(0 0 0)
(0 0 0)
(0 0 0)
(0 0 0)
(0 0 0)
(0 0 0)
(0 0 0)
(0 0 0)
(0 0 0)
(0.0930794 0.083931 -0.361596)
(0 0 0)
(0 0 0)
(0 0 0)
(0 0 0)
(0 0 0)
(0 0 0)
(0.0354566 -0.0683742 -0.419923)
(0 0 0)
(0 0 0)
(0 0 0)
(-6.16597e-05 -0.0462541 -0.366287)
(0 0 0)
(0 0 0)
(0 0 0)
(0 0 0)
(0.0217605 -0.0173501 -0.398227)
(0 0 0)
(0 0 0)
(0 0 0)
(0 0 0)
(0 0 0)
(0 0 0)
(0 0 0)
(0 0 0)
(0 0 0)
(0 0 0)
(0 0 0)
(0 0 0)
(0 0 0)
(0 0 0)
(0 0 0)
(0 0 0)
(0 0 0)
(0 0 0)
(-4.84512e-05 -0.0565014 -0.365992)
(0 0 0)
(0 0 0)
(0 0 0)
(0 0 0)
(0 0 0)
(0 0 0)
(0 0 0)
(0 0 0)
(0 0 0)
(0 0 0)
(0 0 0)
(0 0 0)
(0.0941537 0.05138 -0.376488)
(0 0 0)
(0 0 0)
(0 0 0)
(0 0 0)
(0 0 0)
(0.0012635 -0.0643069 -0.346657)
(-0.00124396 -0.0688584 -0.439892)
(0.0860658 -0.0517959 -0.403832)
(0 0 0)
(0 0 0)
(0 0 0)
(0 0 0)
(0 0 0)
(0 0 0)
(0 0 0)
(0 0 0)
(0 0 0)
(0 0 0)
(0 0 0)
(0 0 0)
(0 0 0)
(0 0 0)
(0 0 0)
(0.0956467 0.0382374 -0.359691)
(0 0 0)
(0 0 0)
(0 0 0)
(0 0 0)
(0 0 0)
(0.0161943 -0.0616202 -0.284543)
(0 0 0)
(0 0 0)
(0 0 0)
(0 0 0)
(0 0 0)
(0 0 0)
(0 0 0)
(0 0 0)
(0 0 0)
(0 0 0)
(0 0 0)
(0 0 0)
(0 0 0)
(0 0 0)
(0 0 0)
(0 0 0)
(0 0 0)
(0.0918931 0.0667116 -0.307871)
(0 0 0)
(0 0 0)
(0 0 0)
(0 0 0)
(0 0 0)
(0 0 0)
(0 0 0)
(0 0 0)
(0 0 0)
(-0.0161047 -0.023081 -0.224646)
(-0.0120272 -0.035315 -0.412431)
(0.0293855 -0.0505233 -0.320094)
(0 0 0)
(0 0 0)
(-0.00608478 -0.0433681 -0.343066)
(0 0 0)
(0 0 0)
(0 0 0)
(0 0 0)
(0 0 0)
(0 0 0)
(0 0 0)
(0 0 0)
(0.109091 0.0453117 -0.394015)
(0 0 0)
(0 0 0)
(0 0 0)
(0 0 0)
(-0.0442 -0.0253401 -0.200643)
(-0.0132907 -0.047984 -0.356433)
(0 0 0)
(0 0 0)
(0 0 0)
(0 0 0)
(0 0 0)
(0 0 0)
(0 0 0)
(0 0 0)
(0 0 0)
(0 0 0)
(0 0 0)
(0 0 0)
(0 0 0)
(0 0 0)
(0 0 0)
(0 0 0)
(0 0 0)
(0.0903592 0.0843919 -0.294575)
(0 0 0)
(0 0 0)
(0 0 0)
(0 0 0)
(0 0 0)
(0 0 0)
(0 0 0)
(0 0 0)
(0 0 0)
(0 0 0)
(0.0216745 -0.0505321 -0.307732)
(0 0 0)
(0 0 0)
(0 0 0)
(0 0 0)
(0 0 0)
(0 0 0)
(0 0 0)
(0 0 0)
(0 0 0)
(0 0 0)
(0 0 0)
(0 0 0)
(0.0142725 -0.0703401 -0.290642)
(0 0 0)
(0 0 0)
(0 0 0)
(0 0 0)
(0 0 0)
(0 0 0)
(0 0 0)
(0 0 0)
(0 0 0)
(0 0 0)
(0.0108517 -0.0390436 -0.260907)
(0 0 0)
(0 0 0)
(0 0 0)
(0 0 0)
(0 0 0)
(0 0 0)
(0 0 0)
(0 0 0)
(0 0 0)
(0 0 0)
(0 0 0)
(0 0 0)
(0.122478 -0.0981765 -0.232676)
(0 0 0)
(0 0 0)
(0 0 0)
(0 0 0)
(0 0 0)
(0.023009 -0.0769669 -0.249077)
(0 0 0)
(0 0 0)
(0 0 0)
(0 0 0)
(0 0 0)
(0 0 0)
(0 0 0)
(0 0 0)
(0 0 0)
(0 0 0)
(0 0 0)
(0 0 0)
(0 0 0)
(0 0 0)
(0 0 0)
(0 0 0)
(0 0 0)
(1.35523e-14 -1.08154e-14 -2.4949e-14)
(0 0 0)
(0 0 0)
(0 0 0)
(-0.00645161 -0.0310123 -0.415953)
(0 0 0)
(0.0219589 -0.0726319 -0.222922)
(0 0 0)
(0 0 0)
(0 0 0)
(-0.0240071 -0.0161439 -0.188664)
(0 0 0)
(0 0 0)
(0 0 0)
(0 0 0)
(0 0 0)
(0 0 0)
(0 0 0)
(0 0 0)
(0 0 0)
(0 0 0)
(0 0 0)
(0 0 0)
(0.079754 -0.00319731 -0.269554)
(0.0321761 -0.0746374 -0.255122)
(0 0 0)
(0 0 0)
(0 0 0)
(0 0 0)
(0 0 0)
(0 0 0)
(0 0 0)
(0 0 0)
(0 0 0)
(0 0 0)
(0.027897 -0.0492699 -0.209034)
(0 0 0)
(0 0 0)
(0 0 0)
(0 0 0)
(0 0 0)
(0 0 0)
(0 0 0)
(0 0 0)
(0 0 0)
(0 0 0)
(0 0 0)
(0 0 0)
(0.120356 0.0368364 -0.342066)
(0 0 0)
(0 0 0)
(0 0 0)
(0 0 0)
(0 0 0)
(0 0 0)
(0 0 0)
(0 0 0)
(0 0 0)
(0 0 0)
(0 0 0)
(0 0 0)
(0 0 0)
(0 0 0)
(0 0 0)
(0 0 0)
(0 0 0)
(0 0 0)
(-0.0774322 -0.0917467 -0.151244)
(0 0 0)
(0 0 0)
(0 0 0)
(0 0 0)
(0 0 0)
(0 0 0)
(0 0 0)
(0 0 0)
(0 0 0)
(0 0 0)
(0 0 0)
(0 0 0)
(0 0 0)
(0 0 0)
(0 0 0)
(0 0 0)
(0 0 0)
(0 0 0)
(0 0 0)
(0.029579 0.00971814 -0.179113)
(0 0 0)
(0 0 0)
(0 0 0)
(0 0 0)
(0 0 0)
(0 0 0)
(0 0 0)
(0 0 0)
(0 0 0)
(0 0 0)
(0 0 0)
(0 0 0)
(0 0 0)
(0 0 0)
(0 0 0)
(0 0 0)
(0 0 0)
(0 0 0)
(0 0 0)
(0.0330232 0.000248978 -0.169173)
(0 0 0)
(0 0 0)
(0 0 0)
(0.0330232 0.000248978 -0.169173)
(0 0 0)
(0 0 0)
(0 0 0)
(0 0 0)
(0 0 0)
(0 0 0)
(0 0 0)
(0 0 0)
(0 0 0)
(0 0 0)
(0 0 0)
(0 0 0)
(0 0 0)
(0 0 0)
(0 0 0)
(0 0 0)
(0 0 0)
(0 0 0)
(-0.0443408 0.00817223 -0.122079)
(0 0 0)
(0 0 0)
(0 0 0)
(0 0 0)
(0 0 0)
(0 0 0)
(0 0 0)
(0 0 0)
(0 0 0)
(0 0 0)
(0 0 0)
(0 0 0)
(0.101522 -0.00181522 -0.225266)
(0 0 0)
(0 0 0)
(0 0 0)
(0 0 0)
(0.033357 -0.0681211 -0.109422)
(0.00464653 -0.0543999 0.0115106)
(0 0 0)
(0 0 0)
(0 0 0)
(0 0 0)
(0 0 0)
(0 0 0)
(0 0 0)
(0 0 0)
(0 0 0)
(0 0 0)
(0 0 0)
(0 0 0)
(0 0 0)
(0 0 0)
(-7.50969e-15 -1.06039e-14 -1.48083e-14)
(0 0 0)
(0 0 0)
(0 0 0)
(0 0 0)
(0 0 0)
(0 0 0)
(0 0 0)
(0 0 0)
(0.0461828 -0.0640349 -0.16531)
(0 0 0)
(0 0 0)
(0 0 0)
(0 0 0)
(0 0 0)
(0 0 0)
(0 0 0)
(0 0 0)
(0 0 0)
(-0.0113579 0.0215112 -0.14769)
(0 0 0)
(0 0 0)
(0 0 0)
(0 0 0)
(0 0 0)
(0 0 0)
(0 0 0)
(0 0 0)
(0 0 0)
(0 0 0)
(0 0 0)
(0 0 0)
(0 0 0)
(0 0 0)
(0 0 0)
(0 0 0)
(0 0 0)
(0 0 0)
(0 0 0)
(0 0 0)
(0 0 0)
(0 0 0)
(0 0 0)
(0 0 0)
(0 0 0)
(0 0 0)
(0 0 0)
(0 0 0)
(0 0 0)
(0 0 0)
(0 0 0)
(0.0922623 -0.0218986 -0.206359)
(0 0 0)
(0 0 0)
(0 0 0)
(0 0 0)
(0 0 0)
(0 0 0)
(0 0 0)
(0 0 0)
(0 0 0)
(0 0 0)
(0 0 0)
(0.0262444 -0.0177614 -0.0732556)
(0 0 0)
(0 0 0)
(0 0 0)
(0 0 0)
(0 0 0)
(0 0 0)
(0 0 0)
(0 0 0)
(0 0 0)
(0 0 0)
(0 0 0)
(0 0 0)
(0 0 0)
(0 0 0)
(0 0 0)
(0 0 0)
(0 0 0)
(0 0 0)
(0 0 0)
(0 0 0)
(0 0 0)
(0 0 0)
(0 0 0)
(0 0 0)
(0 0 0)
(0 0 0)
(0 0 0)
(0 0 0)
(0 0 0)
(0 0 0)
(0 0 0)
(0 0 0)
(0 0 0)
(0 0 0)
(0 0 0)
(0 0 0)
(0 0 0)
(0 0 0)
(0 0 0)
(0 0 0)
(0 0 0)
(0 0 0)
(0 0 0)
(0 0 0)
(0 0 0)
(0 0 0)
(0 0 0)
(0 0 0)
(0 0 0)
(0 0 0)
(0 0 0)
(0 0 0)
(0 0 0)
(0 0 0)
(0 0 0)
(0 0 0)
(0 0 0)
(0 0 0)
(0 0 0)
(0 0 0)
(0 0 0)
(0 0 0)
(0 0 0)
(0 0 0)
(0 0 0)
(0 0 0)
(0 0 0)
(0 0 0)
(0 0 0)
(0 0 0)
(0 0 0)
(0 0 0)
(0 0 0)
(0 0 0)
(0 0 0)
(0 0 0)
(0 0 0)
(0 0 0)
(0 0 0)
(0 0 0)
(0 0 0)
(0 0 0)
(0 0 0)
(0 0 0)
(0 0 0)
(0 0 0)
(0 0 0)
(0 0 0)
(0 0 0)
(0 0 0)
(0 0 0)
(0 0 0)
(0 0 0)
(0 0 0)
(0 0 0)
(0 0 0)
(0 0 0)
(0 0 0)
(0 0 0)
(0 0 0)
(0 0 0)
(0 0 0)
(0 0 0)
(0 0 0)
(0 0 0)
(0 0 0)
(0 0 0)
(0 0 0)
(0 0 0)
(0 0 0)
(0 0 0)
(0 0 0)
(0 0 0)
(0 0 0)
(0 0 0)
(0 0 0)
(0 0 0)
(0 0 0)
(0 0 0)
(0 0 0)
(0 0 0)
(0 0 0)
(0 0 0)
(0 0 0)
(0 0 0)
(0 0 0)
(0 0 0)
(0 0 0)
(0 0 0)
(0 0 0)
(0 0 0)
(0.0926672 -0.0336031 -0.18306)
(0 0 0)
(0 0 0)
(0 0 0)
(0 0 0)
(0 0 0)
(0 0 0)
(0 0 0)
(0 0 0)
(0 0 0)
(0 0 0)
(0 0 0)
(0 0 0)
(0 0 0)
(0 0 0)
(0 0 0)
(0 0 0)
(0 0 0)
(0 0 0)
(0 0 0)
(0 0 0)
(0 0 0)
(0 0 0)
(0 0 0)
(0 0 0)
(0 0 0)
(0 0 0)
(0 0 0)
(0 0 0)
(0 0 0)
(0 0 0)
(0 0 0)
(0 0 0)
(0 0 0)
(0 0 0)
(0 0 0)
(0 0 0)
(0 0 0)
(0 0 0)
(0 0 0)
(0 0 0)
(0 0 0)
(0 0 0)
(0 0 0)
(0 0 0)
(0 0 0)
(0 0 0)
(0 0 0)
(0 0 0)
(0 0 0)
(0 0 0)
(0 0 0)
(0 0 0)
(0 0 0)
(0 0 0)
(0 0 0)
(0 0 0)
(0 0 0)
(0 0 0)
(0 0 0)
(0 0 0)
(0 0 0)
(0 0 0)
(0 0 0)
(0 0 0)
(0 0 0)
(0 0 0)
(0 0 0)
(0 0 0)
(0 0 0)
(0 0 0)
(0 0 0)
(0 0 0)
(0 0 0)
(0 0 0)
(0 0 0)
(0 0 0)
(0 0 0)
(0 0 0)
(0 0 0)
(0 0 0)
(0 0 0)
(0 0 0)
(0 0 0)
(0 0 0)
(0 0 0)
(0 0 0)
(0 0 0)
(0 0 0)
(0 0 0)
(0 0 0)
(0 0 0)
(0 0 0)
(0 0 0)
(0 0 0)
(0 0 0)
(0 0 0)
(0 0 0)
(0 0 0)
(0 0 0)
(0 0 0)
(0 0 0)
(0 0 0)
(0 0 0)
(0 0 0)
(0 0 0)
(0 0 0)
(0 0 0)
(0 0 0)
(0 0 0)
(0 0 0)
(0 0 0)
(0 0 0)
(0 0 0)
(0 0 0)
(0 0 0)
(0 0 0)
(0 0 0)
(0 0 0)
(0 0 0)
(0 0 0)
(0 0 0)
(0 0 0)
(0 0 0)
(0 0 0)
(0 0 0)
(0 0 0)
(0 0 0)
(0 0 0)
(0 0 0)
(0 0 0)
(0 0 0)
(0 0 0)
(0 0 0)
(0 0 0)
(0 0 0)
(0 0 0)
(0 0 0)
(0 0 0)
(0 0 0)
(0 0 0)
(0 0 0)
(0 0 0)
(0 0 0)
(0 0 0)
(0 0 0)
(0 0 0)
(0 0 0)
(0 0 0)
(0 0 0)
(0 0 0)
(0 0 0)
(0 0 0)
(0 0 0)
(0 0 0)
(0 0 0)
(0 0 0)
(0 0 0)
(0 0 0)
(0 0 0)
(0 0 0)
(0 0 0)
(0 0 0)
(0 0 0)
(0 0 0)
(0 0 0)
(0 0 0)
(0 0 0)
(0 0 0)
(0 0 0)
(0 0 0)
(0 0 0)
(0 0 0)
(0 0 0)
(0 0 0)
(0 0 0)
(0 0 0)
(0 0 0)
(0 0 0)
(0 0 0)
(0 0 0)
(0 0 0)
(0 0 0)
(0 0 0)
(0 0 0)
(0 0 0)
(0 0 0)
(0 0 0)
(0 0 0)
(0 0 0)
(0 0 0)
(0 0 0)
(0 0 0)
(0 0 0)
(0 0 0)
(0 0 0)
(0 0 0)
(0 0 0)
(0 0 0)
(0 0 0)
(0 0 0)
(0 0 0)
(0 0 0)
(0 0 0)
(0 0 0)
(0 0 0)
(0 0 0)
(0 0 0)
(0 0 0)
(0 0 0)
(0 0 0)
(0 0 0)
(0 0 0)
(0 0 0)
(0 0 0)
(0 0 0)
(0 0 0)
(0 0 0)
(0 0 0)
(0 0 0)
(0 0 0)
(0 0 0)
(0 0 0)
(0 0 0)
(0 0 0)
(0 0 0)
(0 0 0)
(0 0 0)
(0 0 0)
(0 0 0)
(0 0 0)
(0 0 0)
(0 0 0)
(0 0 0)
(0 0 0)
(0 0 0)
(0 0 0)
(0 0 0)
(0 0 0)
(0 0 0)
(0 0 0)
(0 0 0)
(0 0 0)
(0 0 0)
(0 0 0)
(0 0 0)
(0 0 0)
(0 0 0)
(0 0 0)
(0 0 0)
(0 0 0)
(0 0 0)
(0 0 0)
(0 0 0)
(0 0 0)
(0 0 0)
(0 0 0)
(0 0 0)
(0 0 0)
(0 0 0)
(0 0 0)
(0 0 0)
(0 0 0)
(0 0 0)
(0 0 0)
(0 0 0)
(0 0 0)
(0 0 0)
(0 0 0)
(0 0 0)
(0 0 0)
(0 0 0)
(0 0 0)
(0 0 0)
(0 0 0)
(0 0 0)
(0 0 0)
(0 0 0)
(0 0 0)
(0 0 0)
(0 0 0)
(0 0 0)
(0 0 0)
(0 0 0)
(0 0 0)
(0 0 0)
(0 0 0)
(0 0 0)
(0 0 0)
(0 0 0)
(0 0 0)
(0 0 0)
(0 0 0)
(0 0 0)
(0 0 0)
(0 0 0)
(0 0 0)
(0 0 0)
(0 0 0)
(0 0 0)
(0 0 0)
(0 0 0)
(0 0 0)
(0 0 0)
(0 0 0)
(0 0 0)
(0 0 0)
(0 0 0)
(0 0 0)
(0 0 0)
(0 0 0)
(0 0 0)
(0 0 0)
(0 0 0)
(0 0 0)
(0 0 0)
(0 0 0)
(0 0 0)
(0 0 0)
(0 0 0)
(0 0 0)
(0 0 0)
(0 0 0)
(0 0 0)
(0 0 0)
(0 0 0)
(0 0 0)
(0 0 0)
(0 0 0)
(0 0 0)
(0 0 0)
(0 0 0)
(0 0 0)
(0 0 0)
(0 0 0)
(0 0 0)
(0 0 0)
(0 0 0)
(0 0 0)
(0 0 0)
(0 0 0)
(0 0 0)
(0 0 0)
(0 0 0)
(0 0 0)
(0 0 0)
(0 0 0)
(0 0 0)
(0 0 0)
(0 0 0)
(0 0 0)
(0 0 0)
(0 0 0)
(0 0 0)
(0 0 0)
(0 0 0)
(0 0 0)
(0 0 0)
(0 0 0)
(0 0 0)
(0 0 0)
(0 0 0)
(0 0 0)
(0 0 0)
(0 0 0)
(0 0 0)
(0 0 0)
(0 0 0)
(0 0 0)
(0 0 0)
(0 0 0)
(0 0 0)
(0 0 0)
(0 0 0)
(0 0 0)
(0 0 0)
(0 0 0)
(0 0 0)
(0 0 0)
(0 0 0)
(0 0 0)
(0 0 0)
(0 0 0)
(0 0 0)
(0 0 0)
(0 0 0)
(0 0 0)
(0 0 0)
(0 0 0)
(0 0 0)
(0 0 0)
(0 0 0)
(0 0 0)
(0 0 0)
(0 0 0)
(0 0 0)
(0 0 0)
(0 0 0)
(0 0 0)
(0 0 0)
(0 0 0)
(0 0 0)
(0 0 0)
(0 0 0)
(0 0 0)
(0 0 0)
(0 0 0)
(0 0 0)
(0 0 0)
(0 0 0)
(0 0 0)
(0 0 0)
(0 0 0)
(0 0 0)
(0 0 0)
(0 0 0)
(0 0 0)
(0 0 0)
(0 0 0)
(0 0 0)
(0 0 0)
(0 0 0)
(0 0 0)
(0 0 0)
(0 0 0)
(0 0 0)
(0 0 0)
(0 0 0)
(0 0 0)
(0 0 0)
(0 0 0)
(0 0 0)
(0 0 0)
(0 0 0)
(0 0 0)
(0 0 0)
(0 0 0)
(0 0 0)
(0 0 0)
(0 0 0)
(0 0 0)
(0 0 0)
(0 0 0)
(0 0 0)
(0 0 0)
(0 0 0)
(0 0 0)
(0 0 0)
(0 0 0)
(0 0 0)
(0 0 0)
(0 0 0)
(0 0 0)
(0 0 0)
(0 0 0)
(0 0 0)
(0 0 0)
(0 0 0)
(0 0 0)
(0 0 0)
(0 0 0)
(0 0 0)
(0 0 0)
(0 0 0)
(0 0 0)
(0 0 0)
(0 0 0)
(0 0 0)
(0 0 0)
(0 0 0)
(0 0 0)
(0 0 0)
(0 0 0)
(0 0 0)
(0 0 0)
(0 0 0)
(0 0 0)
(0 0 0)
(0 0 0)
(0 0 0)
(0 0 0)
(0 0 0)
(0 0 0)
(0 0 0)
(-0.10082 0.0781858 0.0135905)
(-0.0773022 0.0350969 -0.042233)
(-0.142398 0.0936952 0.0171125)
(-0.131704 0.0753819 -0.0136847)
(-0.0481854 0.0383322 -0.0372283)
(-0.0589256 0.0850868 -0.0206744)
(0.0368753 0.0970163 -0.0243362)
(0.00388006 0.033835 -0.023633)
(0.0842147 -0.140838 0.00499214)
(-0.00838947 0.0223732 -0.000760951)
(-0.104344 0.122685 0.0255458)
(0.0707571 -0.068934 0.0110587)
(-0.0484553 0.0341491 0.0168601)
(-0.164758 0.0566451 0.0528994)
(-0.123797 -0.0500751 0.0347459)
(-0.085657 -0.0631867 0.0326975)
(-0.0879117 -0.270925 0.0496941)
(-0.0636577 0.0609907 0.0284345)
(-0.0068452 0.162272 0.0023708)
(-0.0468491 -0.322595 0.0291421)
(-0.199362 -0.0918881 0.00423032)
(-0.0751984 0.0180891 -0.00471373)
(-0.0939555 -0.0628615 0.00498384)
(-0.276409 -0.134236 0.00535532)
(-0.177196 -0.174861 0.00077906)
(-0.107254 -0.14454 -0.020001)
(0.061731 -0.384688 0.0318478)
(0.0130759 -0.335506 0.0182447)
(-0.00290043 -0.506031 0.0371041)
(0.114295 -0.577585 0.0169949)
(0.14188 -0.524686 0.00734894)
(0.108034 -0.606304 0.0371404)
(0.163236 -0.648915 0.0558754)
(0.135347 -0.643665 -0.00528061)
(-0.0281037 -0.644454 0.030398)
(0.0679914 -0.823789 0.0578337)
(-0.148882 -0.900704 0.0324902)
(-0.203047 -0.626997 0.030956)
(-0.318003 -0.627223 0.0102011)
(-0.238217 -0.862936 0.0422962)
(-0.266616 -0.748926 0.0411594)
(-0.313149 -0.407183 0.00242697)
(-0.198668 -0.221468 -0.010286)
(-0.25524 -0.535223 0.0257546)
(-0.16772 -0.288777 -0.0013395)
(-0.121332 -0.189288 -0.0306742)
(-0.0840176 -0.196012 -0.0229401)
(-0.0188126 -0.0961497 -0.0277962)
(-0.0310863 -0.326595 0.0113795)
(-0.0255414 -0.438738 0.0136991)
(-0.0453021 -0.305393 -0.00111863)
(0.0721685 -0.53844 0.0345455)
(0.136507 -0.652311 0.0498684)
(0.00624046 -0.414133 0.00957568)
(0.0764745 -0.545824 0.0282677)
(0.0196989 -0.808154 0.0618187)
(-0.129079 -0.825287 0.0368226)
(0.00745425 -0.670444 0.0206739)
(-0.0740465 -0.678018 0.0125024)
(-0.19193 -0.795208 0.0392525)
(-0.184027 -0.700229 0.0460379)
(-0.11291 -0.667932 0.00880195)
(-0.100913 -0.586935 0.0238646)
(-0.140283 -0.593984 0.0434385)
(-0.0893075 -0.369168 0.0228974)
(-0.0351359 -0.485123 0.0269885)
(0.0311265 -0.343241 0.00419354)
(-0.0369115 -0.204665 0.00559281)
(-0.00422211 -0.0788597 -0.0232124)
(0.0233406 -0.173942 -0.00366527)
(-0.0662899 -0.200588 -0.0186114)
(-0.0552096 -0.260856 -0.0122208)
(-0.00851231 -0.38738 0.000781102)
(-0.0651683 -0.127315 -0.0240293)
(-0.0783666 -0.203548 -0.0186585)
(-0.0252114 -0.468206 -0.0129247)