/*--------------------------------*- C++ -*----------------------------------*\
| =========                 |                                                 |
| \\      /  F ield         | OpenFOAM: The Open Source CFD Toolbox           |
|  \\    /   O peration     | Version:  5.x                                   |
|   \\  /    A nd           | Web:      www.OpenFOAM.org                      |
|    \\/     M anipulation  |                                                 |
\*---------------------------------------------------------------------------*/
FoamFile
{
    version     2.0;
    format      ascii;
    class       volScalarField;
    location    "2.35";
    object      voidfraction;
}
// * * * * * * * * * * * * * * * * * * * * * * * * * * * * * * * * * * * * * //

dimensions      [0 0 0 0 0 0 0];

internalField   nonuniform List<scalar> 
10571
(
0.80611
0.519226
0.588886
0.901401
0.638952
0.956786
0.979436
0.892219
0.953773
0.747056
0.459483
0.50475
0.742359
0.768327
0.845349
0.736976
0.471286
0.48513
0.528025
0.568174
0.683135
0.526197
0.508928
0.462946
0.47206
0.455058
0.683191
0.665117
0.513505
0.698737
0.819188
0.669612
0.512888
0.508638
0.623534
0.788392
0.537671
0.439819
0.436386
0.448416
0.498045
0.513055
0.45463
0.44655
0.443059
0.441804
0.447763
0.428923
0.417548
0.45068
0.878146
0.622975
0.463285
0.60614
0.665859
0.651554
0.899717
0.824287
0.879327
0.99098
0.802317
0.753035
0.851572
0.514641
0.920402
0.933575
0.875225
0.720839
0.499631
0.44874
0.432113
0.429438
0.428386
0.434211
0.795615
0.441859
0.451996
0.984491
0.690015
0.705923
0.993237
0.911764
0.937688
0.993037
0.973371
0.986545
0.984594
0.805538
0.929287
0.990864
0.987161
0.990885
0.824613
0.762228
0.714965
0.530143
0.926236
0.948312
0.785855
0.856438
0.455778
0.99389
0.98935
0.878659
0.984053
0.95782
0.919734
0.992805
0.994505
0.996581
0.991011
0.812918
0.93528
0.987244
0.994484
0.997084
0.924798
0.800921
0.865674
0.785678
0.973064
0.988014
0.998347
0.99333
0.923557
0.990743
0.998907
0.980667
0.979713
0.949268
0.396905
0.950187
0.990159
0.99528
0.981194
0.986743
0.929018
0.395052
0.956306
0.991359
0.991141
0.988877
0.969226
0.99547
0.998278
1
0.947783
0.986445
0.997131
0.995191
0.992832
0.976681
0.99805
0.9908
0.982896
0.998226
0.996542
0.949855
0.990257
0.992563
0.976181
0.983989
0.991639
0.897101
0.972271
0.991298
0.993901
0.985749
0.991577
0.826075
1
1
0.995944
0.987139
0.989357
0.99119
0.992112
0.997416
0.995775
0.983201
0.985704
0.996156
0.99817
1
0.974377
0.992557
0.979079
0.987135
0.994122
0.99827
1
0.977533
0.993278
0.995765
0.993041
0.994459
1
1
1
0.998394
0.997032
0.987397
0.974722
0.993059
0.999096
0.990673
0.959196
0.995001
0.998934
0.998815
1
0.977017
0.993775
0.98424
0.99649
0.995899
0.996812
1
0.97988
0.99794
0.998575
0.997384
1
1
1
0.99993
1
0.984374
0.997031
1
1
0.993175
0.994377
0.997696
0.999394
1
0.996811
0.987384
0.996393
0.997649
0.997464
0.996361
0.998496
0.999296
0.999367
0.996941
0.998786
1
0.999124
1
0.994503
0.997144
0.997504
0.99449
1
0.981826
0.998632
0.998287
0.999453
0.997742
0.996811
0.99486
0.998655
0.997348
0.998764
0.998726
1
0.999446
0.999648
1
1
1
1
1
0.993623
1
0.999798
0.996419
1
0.996521
0.998893
0.998741
0.998058
0.999535
0.993183
0.995774
0.998772
0.99919
0.998825
0.999124
0.999158
0.999649
0.999761
1
1
1
0.999124
1
0.99989
0.997816
0.998382
0.998649
1
0.997062
0.998634
0.99848
0.99809
0.998837
0.996811
0.998445
0.999554
0.999102
0.999919
0.999154
1
0.999843
1
1
1
1
1
1
1
0.996808
0.998078
0.99902
0.998888
0.998379
0.999634
0.999624
0.999221
0.998682
0.995932
0.999358
0.999888
0.999775
0.999765
1
0.999128
1
1
1
1
1
1
1
1
0.994624
0.998382
1
0.996966
0.999021
0.999519
0.999451
0.999491
0.997752
0.996152
1
1
0.999864
0.99953
1
1
1
1
1
1
1
1
1
1
0.994176
0.998247
0.996723
0.995554
0.998514
0.999218
0.999444
0.99996
0.999263
0.993733
1
1
0.999911
1
1
0.999128
1
1
0.999032
1
1
1
1
1
1
1
0.999054
1
0.999021
0.999206
0.999777
0.999883
1
1
0.99902
1
1
0.999882
1
1
1
0.999842
1
1
1
0.999185
1
1
0.998376
0.998584
0.997298
0.999009
0.999021
0.99971
0.999889
1
1
1
1
0.999888
0.999864
1
1
1
0.999883
1
1
1
0.998877
1
1
1
0.998488
1
1
1
1
1
1
1
1
1
1
1
0.999911
1
1
1
1
1
1
1
1
1
1
1
1
1
1
0.99997
1
0.999889
0.999889
0.999879
0.998876
1
1
1
0.999888
0.999882
0.999123
1
1
0.999887
1
1
1
1
1
1
0.998376
1
1
1
0.999021
0.999969
1
1
1
1
0.99902
0.999888
0.999888
1
0.999123
1
1
1
1
1
1
1
1
1
0.996752
1
1
0.9997
0.999021
0.999668
0.999889
0.999883
0.998876
1
1
0.999888
0.999892
1
1
1
1
1
0.999032
1
1
1
1
1
0.998376
1
0.999797
1
0.998413
0.999447
0.999889
1
1
0.993733
1
1
0.999861
1
1
1
1
1
1
0.99797
1
1
1
1
1
0.999022
1
1
1
0.999851
1
0.999883
1
1
1
1
0.999911
1
0.996494
1
1
0.999976
1
0.99937
1
1
1
1
1
0.999022
1
1
0.999966
0.999561
1
1
0.999302
1
0.99902
1
1
0.99953
1
0.999459
1
0.999677
1
1
1
1
1
1
1
1
1
1
1
0.999645
1
1
0.998876
1
1
1
0.999888
0.999882
0.999093
0.999158
1
0.999879
1
0.99664
1
1
1
1
1
0.999022
1
1
1
0.999912
1
1
0.999263
1
1
1
0.999888
0.999899
0.999123
0.999128
1
0.999766
1
1
1
1
0.99797
1
0.999664
1
1
1
1
0.999668
0.999927
0.999883
1
1
1
1
0.999888
0.999882
1
1
0.999883
1
0.999032
1
1
1
0.9993
1
1
0.999966
1
1
1
1
0.999962
1
1
0.99956
1
1
1
0.999996
1
1
1
1
0.999032
1
1
1
1
1
1
0.999022
1
1
1
0.999706
1
1
1
1
1
0.999888
0.999888
0.999887
0.999123
1
1
1
1
0.99867
1
1
1
1
1
1
1
1
1
0.999756
1
1
1
1
1
1
1
1
1
0.999128
1
0.999883
1
0.99797
1
1
1
1
1
1
1
1
1
0.999889
1
1
1
1
1
1
0.999775
1
1
1
0.999766
1
1
1
1
0.999426
1
1
1
1
1
1
1
1
1
1
1
1
1
1
1
1
1
1
0.999883
1
1
1
1
1
1
1
1
1
1
1
1
0.999779
1
1
1
1
1
0.999777
0.999888
0.999882
1
1
1
1
1
1
1
1
1
1
1
1
1
1
1
0.999989
1
1
1
1
1
0.999888
1
1
1
1
1
1
1
1
1
1
1
1
1
1
1
1
1
0.999744
1
1
1
1
1
1
1
1
1
0.99982
0.999883
0.999883
1
1
0.998877
1
1
1
1
1
1
1
1
0.999889
1
1
1
1
0.999662
0.999888
1
1
1
1
1
1
1
1
1
1
1
1
1
1
1
1
1
0.999889
1
1
1
1
1
1
1
1
1
1
0.999766
1
1
1
1
1
1
1
1
1
1
1
1
0.999889
1
1
1
1
1
1
1
1
1
1
0.999883
1
1
1
1
1
1
1
1
1
1
1
1
0.999889
1
1
1
1
1
0.999888
1
1
1
1
1
1
1
1
1
1
1
1
1
1
1
1
1
1
1
1
1
0.996811
1
0.999888
1
1
1
0.999128
1
1
1
1
1
1
1
1
1
1
1
1
0.999088
0.999889
1
1
1
1
1
1
1
1
1
1
0.999883
1
1
1
1
1
1
1
1
1
1
1
1
0.999889
1
1
1
1
1
1
1
1
1
1
1
1
1
1
1
1
1
1
0.998432
1
1
1
1
1
1
1
1
1
1
1
1
1
1
1
1
1
1
1
0.998877
1
1
1
1
1
1
1
1
1
1
1
1
1
1
1
1
1
1
1
0.999996
1
1
1
0.998916
1
1
1
1
1
1
1
1
1
1
1
1
1
1
1
1
1
1
0.999128
1
1
1
1
1
1
1
1
1
1
1
1
0.999797
1
1
1
1
0.997911
0.99902
1
1
1
1
1
1
1
1
1
1
1
1
1
1
1
1
1
1
1
1
1
1
1
0.99902
1
1
1
1
1
1
1
1
1
0.998877
1
1
1
1
1
1
1
1
1
1
1
1
1
1
1
1
1
1
1
1
1
1
1
1
1
1
1
1
1
1
1
0.999358
1
1
1
1
1
1
1
1
1
1
1
0.999883
1
1
1
1
1
1
1
1
1
1
1
1
1
1
1
1
1
1
1
1
1
1
1
1
1
1
1
1
1
1
1
1
1
1
1
1
1
1
1
1
1
1
1
1
1
1
1
1
1
1
1
1
1
1
1
1
1
1
1
1
1
1
1
1
1
1
1
1
1
1
1
1
1
1
1
1
1
1
1
1
1
1
1
1
1
1
1
1
1
1
1
1
1
1
1
1
1
1
1
1
1
1
1
1
1
1
1
1
1
1
1
1
1
1
1
1
1
1
1
1
1
1
1
1
1
1
1
1
1
1
1
0.999055
1
1
1
1
1
1
1
1
1
1
1
1
1
1
1
1
1
1
1
1
1
1
1
1
1
1
1
1
1
1
1
1
1
1
1
1
1
1
1
1
1
1
1
1
1
1
1
1
1
1
1
1
1
1
1
1
1
1
1
1
1
1
1
1
1
1
1
1
1
1
1
1
1
1
1
1
1
1
1
1
1
1
1
1
1
1
1
1
1
1
1
1
1
1
1
1
1
1
1
1
1
1
1
1
1
1
1
1
1
1
1
1
1
1
1
1
1
1
1
1
1
1
1
1
1
1
1
1
1
1
1
1
1
1
1
1
1
1
1
1
1
1
1
1
1
1
1
1
1
1
1
1
1
1
1
1
1
1
1
1
1
1
1
1
1
1
1
1
1
1
1
1
1
1
1
1
1
1
1
1
1
1
1
1
1
1
1
1
1
1
1
1
1
1
1
1
1
1
1
1
1
1
1
1
1
1
1
1
1
1
1
1
1
1
1
1
1
1
1
1
1
1
1
1
1
1
1
1
1
1
1
1
1
1
1
1
1
1
1
1
1
1
1
1
1
1
1
1
1
1
1
1
1
1
1
1
1
1
1
1
1
1
1
1
1
1
1
1
1
1
1
1
1
1
1
1
1
1
1
1
1
1
1
1
1
1
1
1
1
1
1
1
1
1
1
1
1
1
1
1
1
1
1
1
1
1
1
1
1
1
1
1
1
1
1
1
1
1
1
1
1
1
1
1
1
1
1
1
1
1
1
1
1
1
1
1
1
1
1
1
1
1
1
1
1
1
1
1
1
1
1
1
1
1
1
1
1
1
1
1
1
1
1
1
1
1
1
1
1
1
1
1
1
1
1
1
1
1
1
1
1
1
1
1
1
1
1
1
1
1
1
1
1
1
1
1
1
1
1
1
1
1
1
1
1
1
1
1
1
1
1
1
1
1
1
1
1
1
1
1
1
1
1
1
1
1
1
1
1
1
1
1
1
1
1
1
1
1
1
1
1
1
1
1
1
1
1
1
1
1
1
1
1
1
1
1
1
1
1
1
1
1
1
1
1
1
1
1
1
1
1
1
1
1
1
1
1
1
1
1
1
1
1
0.787684
0.838039
0.914295
0.877851
0.881201
0.894253
0.935598
0.741607
0.794284
0.531643
0.561242
0.892265
0.626801
0.725815
0.846149
0.612829
0.51748
0.967687
0.893998
0.622585
0.869634
0.62528
0.63882
0.910956
0.802139
0.749013
0.828211
0.714689
0.739988
0.905395
0.870071
0.810709
0.864434
0.825513
0.711278
0.854755
0.878611
0.769086
0.715586
0.884836
0.876729
0.892627
0.889336
0.825235
0.856846
0.84268
0.823876
0.865111
0.705714
0.637825
0.588957
0.708268
0.802012
0.627512
0.696577
0.850146
0.865695
0.78037
0.826943
0.877383
0.885348
0.890131
0.88392
0.921165
0.805626
0.885398
0.827986
0.798362
0.829254
0.80889
0.552853
0.570695
0.624413
0.54079
0.579883
0.700764
0.754407
0.659667
0.691107
0.841905
0.801499
0.721373
0.708159
0.824243
0.81242
0.740906
0.784917
0.786899
0.5776
0.785738
0.802368
0.912344
0.78226
0.767292
0.841423
0.624163
0.610948
0.439637
0.801725
0.758468
0.784249
0.594187
0.574518
0.687103
0.839368
0.821148
0.575843
0.653384
0.591854
0.652043
0.506148
0.639246
0.510141
0.555638
0.85922
0.886536
0.474141
0.556683
0.755174
0.98557
0.611261
0.94293
0.703651
0.546558
0.498399
0.735647
0.498077
0.633192
0.46806
0.81954
0.602742
0.66799
0.56425
0.446754
0.48041
0.77666
0.871635
0.509376
0.473806
0.521965
0.477504
0.469464
0.432118
0.459204
0.444168
0.827157
0.743201
0.457074
0.508839
0.485659
0.442131
0.429903
0.485234
0.44242
0.476534
0.443623
0.438779
0.43716
0.444538
0.619878
0.499757
0.497925
0.466235
0.464737
0.454713
0.428695
0.451307
0.453801
0.436049
0.520178
0.540626
0.455468
0.461007
0.451163
0.506575
0.511611
0.452945
0.460434
0.445654
0.427116
0.435006
0.449557
0.475281
0.473069
0.552994
0.439469
0.457614
0.472856
0.539982
0.484596
0.421549
0.480135
0.453135
0.445421
0.442265
0.469806
0.445408
0.606707
0.684209
0.981491
0.459733
0.636947
0.582596
0.932007
0.488275
0.648901
0.509108
0.489096
0.450448
0.601241
0.686162
0.475042
0.850933
0.499244
0.598546
0.596342
0.500339
0.8259
0.804272
0.46218
0.545865
0.659768
0.466828
0.570465
0.752212
0.673531
0.886831
0.936061
0.894174
0.55064
0.493861
0.442852
0.555683
0.489084
0.454215
0.807289
0.473545
0.425797
0.434607
0.880216
0.933646
0.521387
0.506666
0.449389
0.445206
0.438005
0.442316
0.440544
0.428059
0.441948
0.466396
0.417103
0.420631
0.43954
0.409742
0.437983
0.430302
0.434096
0.451227
0.432335
0.43573
0.4406
0.437349
0.425963
0.4351
0.439818
0.427806
0.459939
0.453034
0.432086
0.463204
0.446675
0.455623
0.444685
0.43168
0.458306
0.454748
0.43287
0.443987
0.472396
0.662471
0.603993
0.502819
0.872777
0.447516
0.554108
0.478859
0.634729
0.440628
0.61699
0.585987
0.447078
0.435941
0.64414
0.547773
0.630536
0.538577
0.74044
0.943329
0.952049
0.965183
0.922287
0.953938
0.747755
0.762707
0.863789
0.877267
0.931608
0.932769
0.921987
0.916359
0.95154
0.913821
0.693593
0.499809
0.790723
0.94056
0.83663
0.825658
0.772894
0.992947
0.735942
0.748556
0.901083
0.994154
0.7641
0.855756
0.467346
0.444652
0.448832
0.983045
0.768604
0.631583
0.504122
0.640481
0.429264
0.572962
0.437615
0.415933
0.615508
0.632011
0.45398
0.438059
0.438789
0.55108
0.453316
0.444147
0.42897
0.448852
0.437538
0.411846
0.455876
0.44183
0.512873
0.479432
0.449164
0.440059
0.45123
0.503372
0.450632
0.455064
0.44196
0.461803
0.947387
0.991365
0.561654
0.678467
0.685492
0.619677
0.566791
0.94948
0.888614
0.434894
0.790204
0.700363
0.465315
0.446716
0.929789
0.804712
0.665249
0.69502
0.985505
0.942303
0.96306
0.988859
0.94459
0.971431
0.870275
0.922041
0.945998
0.86536
0.95241
0.946053
0.936655
0.919525
0.95934
0.942675
0.964573
0.888974
0.797926
0.934735
0.880483
0.777886
0.835136
0.989923
0.791061
0.884188
0.919989
0.99315
0.74733
0.913079
0.90688
0.807925
0.691822
0.992647
0.946212
0.888615
0.816633
0.842129
0.671242
0.682958
0.795738
0.659373
0.749184
0.811092
0.679765
0.576304
0.532379
0.774336
0.713571
0.627351
0.660772
0.686303
0.978323
0.952392
0.772668
0.855218
0.966134
0.974689
0.991672
0.799075
0.505002
0.950527
0.980697
0.857183
0.461881
0.539578
0.992617
0.991711
0.790019
0.978762
0.985819
0.966956
0.984571
0.990436
0.996647
0.460248
0.841255
0.777963
0.628215
0.54267
0.796276
0.848537
0.78267
0.940086
0.984134
0.949861
0.980289
0.989937
0.949968
0.967322
0.860801
0.904437
0.956907
0.87395
0.850793
0.964319
0.9329
0.928966
0.964372
0.931071
0.908401
0.909093
0.843372
0.872832
0.931701
0.807133
0.781235
0.996605
0.807639
0.930056
0.929787
0.995546
0.809476
0.940089
0.972709
0.975979
0.956458
0.993297
0.982999
0.992209
0.98094
0.973045
0.728543
0.87133
0.849065
0.741101
0.95946
0.984409
0.961146
0.82565
0.742231
0.989398
0.98778
0.930313
0.9716
0.986895
0.989892
0.982847
0.987188
0.988066
0.984056
0.9976
0.99055
0.982359
0.982715
0.970646
0.98351
0.990273
0.849341
0.983258
0.971021
0.909716
0.992958
0.987365
0.998111
0.987341
0.993887
0.944565
0.992509
0.799776
0.985725
0.977287
0.986832
0.94727
0.98489
0.988689
0.993044
0.99542
0.964816
0.956234
0.968863
0.931021
0.953374
0.966195
0.647731
0.940714
0.568895
0.9956
0.801057
0.986626
0.867933
0.378199
0.412796
0.382861
0.473867
0.403134
0.439922
0.40221
0.973275
0.94133
0.951615
0.970425
0.937375
0.543227
0.942363
0.628653
0.989876
0.816761
0.978631
0.587042
0.401457
0.388891
0.400063
0.4164
0.397599
0.406036
0.404154
0.831177
0.86054
0.996965
0.878441
0.970028
0.955037
0.996138
0.946333
0.978079
0.984862
0.998225
0.996126
0.987089
0.981362
0.999082
0.996793
0.981395
0.970264
0.993493
0.998248
1
0.998877
1
1
1
0.99989
1
1
1
0.998038
0.995887
0.993935
0.951953
0.992645
0.990247
0.97999
0.9904
0.989521
0.988332
0.99508
0.980873
0.987152
0.992798
0.98001
0.990887
0.955763
0.983559
0.993347
0.972311
0.996742
0.992382
0.994575
0.985008
0.99065
0.982094
0.990058
0.994558
0.995882
0.990355
0.990633
0.998423
0.997134
1
1
1
1
1
1
1
0.967097
0.949085
0.979977
0.98018
0.951614
0.976917
1
0.992452
0.998957
0.998902
0.999
0.999003
0.999088
0.971592
0.98111
0.958859
1
1
1
1
0.97303
0.966538
0.972398
0.986424
0.974129
0.998612
0.992556
0.942823
0.990797
0.998429
0.993047
0.998177
0.820932
0.764566
0.678636
0.999309
1
0.99816
1
0.941956
0.966512
0.996469
0.954378
0.984408
0.974705
0.990659
0.949764
0.974778
0.990883
0.997895
0.991092
0.991511
0.992413
0.992971
0.999351
0.956922
0.995323
0.99745
0.806531
1
1
0.979569
0.993773
0.999124
1
1
1
1
1
0.996818
0.999638
0.998215
1
0.999581
0.996654
0.99275
0.975152
0.99218
0.982646
0.994283
0.984439
0.975801
0.985668
0.995045
1
0.989243
0.996941
0.992767
0.995546
0.988227
0.991152
0.993227
0.985753
0.989543
0.995743
0.993796
0.988942
0.992866
0.996338
0.996228
0.999679
0.999098
0.995249
0.997408
0.999439
0.998691
1
0.998621
1
1
1
1
1
0.986761
0.952273
0.984399
0.982348
0.967449
0.98037
1
0.997991
1
0.997139
0.999131
0.998625
0.999058
1
1
1
1
1
1
1
0.985393
0.977924
0.971958
0.978818
0.984043
0.99816
0.989994
0.999965
0.995209
1
0.997145
1
1
1
1
1
1
1
1
0.974745
0.996233
0.989472
0.969285
0.988767
0.964871
0.973202
0.979692
0.987556
0.993647
0.994435
0.999946
0.994973
0.997956
0.998233
1
0.998576
0.997289
0.997846
1
1
1
0.995942
1
1
1
1
0.999698
1
0.998875
1
1
0.996625
1
1
0.993308
0.997979
1
0.986723
0.992852
1
0.994852
0.99785
0.994697
0.997134
0.998461
0.998758
0.998218
0.999582
0.997977
0.983698
0.987879
0.991219
0.984055
0.979674
0.985661
0.992359
0.986619
0.991337
1
0.996064
1
0.998282
0.997437
0.998699
0.999639
1
0.99839
0.970348
0.980426
0.982158
0.983085
0.980426
0.98237
1
1
0.998924
1
0.998114
1
0.996753
1
1
1
1
1
1
1
0.979212
0.976646
0.983945
0.975728
0.98935
0.99792
0.995949
0.998763
0.993707
0.996626
0.997302
1
1
1
1
1
1
1
1
0.994907
1
0.958677
0.988412
0.994489
0.999008
0.997393
0.998256
0.998971
0.997727
0.999695
0.997464
0.998785
1
0.999084
0.999944
0.997886
1
1
1
1
1
1
1
0.99775
1
1
0.998875
1
0.998039
0.993936
0.993936
1
1
0.999697
0.993513
1
0.998819
0.996122
0.998451
0.996922
0.993275
0.99849
1
1
0.983211
0.978127
0.993917
0.989898
0.989743
0.986055
0.993768
0.992372
0.991112
1
0.99907
0.99912
0.999128
0.999438
0.999008
0.998725
1
0.999931
0.982427
0.981086
0.980857
0.981653
0.987684
0.982554
0.998149
1
0.99889
0.996438
1
0.988425
0.99512
0.993622
0.998758
0.998877
0.997885
1
0.999877
0.997022
0.99885
0.996791
1
0.998284
0.999325
1
0.999609
1
0.999663
0.998244
1
0.999207
1
0.999364
1
1
1
1
0.997971
1
0.999124
1
1
0.999124
1
1
1
1
1
1
1
0.993936
1
1
1
0.999394
0.996811
1
0.998274
0.997395
0.994774
1
0.996486
0.993923
1
0.999164
0.992059
0.995054
0.998592
0.989392
0.993913
0.996808
0.999251
0.992313
0.995216
0.998259
1
0.999879
0.997387
1
1
1
0.999303
0.998674
0.982622
0.977238
0.991277
0.987344
0.982846
0.989763
0.99912
1
1
0.999304
0.99989
0.997546
0.994269
0.995492
0.99697
0.998606
0.99695
1
0.998549
0.996926
1
1
1
0.998746
1
0.999697
0.99997
0.999044
1
0.999697
1
0.999118
1
1
1
1
1
1
1
1
0.999154
1
0.999264
1
1
1
1
1
1
1
1
0.993937
0.996097
0.996811
0.997756
0.998244
1
0.9988
0.99894
0.996668
0.997291
1
0.99794
0.998955
1
0.995957
0.991781
0.997214
0.997634
0.996067
0.997624
1
0.995836
0.997408
0.998145
1
1
0.999093
1
0.998371
1
0.997671
0.998673
1
0.997523
0.987904
0.996669
0.994156
0.996811
0.992822
0.999819
0.99362
0.998915
1
1
0.994971
0.997444
0.996811
0.996819
0.997754
1
1
0.999063
0.997912
0.998955
0.995884
0.999721
1
1
0.999425
0.999218
1
0.998425
1
1
1
1
0.999065
1
0.999118
1
1
1
1
1
1
1
1
1
1
1
1
1
1
1
1
0.997979
0.996921
0.999613
0.99561
1
0.997021
0.997941
0.997092
0.996632
0.998681
0.998031
1
0.997978
1
0.99589
1
0.9997
0.99568
0.998145
0.994624
0.997694
0.998838
0.998113
1
1
0.99882
1
1
1
1
0.997272
1
0.99551
0.992523
0.99679
0.996052
0.986915
0.994973
0.997368
1
0.998139
1
1
0.997334
1
0.991973
0.998394
1
0.998901
1
1
1
1
0.997977
0.997977
0.999044
1
1
1
1
1
1
1
1
1
1
1
1
1
1
1
1
1
1
1
1
1
1
1
1
1
1
1
0.997979
0.993937
1
0.995937
0.997335
0.996921
0.997369
0.998244
1
0.998877
0.996811
0.99794
0.997755
1
1
0.991084
0.994567
0.999131
0.996812
0.999024
0.999328
0.998592
0.996633
0.996291
0.99882
1
0.99997
0.999189
0.999888
0.998089
1
0.99958
0.999091
0.993924
0.994392
0.996245
0.997213
0.996811
0.995639
1
1
0.997596
1
1
0.998213
1
0.990434
0.998243
1
1
1
1
1
1
0.998675
0.999302
1
1
1
1
1
1
1
0.999115
1
1
0.999032
1
1
1
1
1
1
1
1
1
1
1
1
1
1
1
1
1
0.993937
0.9931
0.996701
0.997408
0.994701
0.993623
0.994776
0.997366
0.998546
0.998877
1
0.997486
0.997136
0.997699
0.994771
0.99596
0.99394
0.995866
0.996812
0.999056
0.995184
0.995267
0.993773
1
0.999438
0.999638
0.998578
0.99985
1
0.994892
0.999697
1
1
0.997949
0.994282
0.997335
0.993305
0.996811
0.996669
1
1
0.998876
0.99997
1
0.997364
0.998645
1
0.998243
0.997986
1
1
1
1
1
1
1
1
1
1
1
1
0.998369
1
1
1
1
1
1
1
1
1
1
1
1
1
1
1
1
1
1
1
0.998877
1
1
1
1
1
0.996866
0.998244
1
0.999381
0.998516
0.998425
0.998877
0.997691
0.998698
0.999845
1
0.99756
0.996657
0.995055
0.999131
0.997319
0.997202
0.996696
0.998263
0.996663
0.999024
0.998258
0.997034
0.997368
0.998258
0.992582
0.99967
0.999425
1
0.997971
0.997755
0.99989
0.99894
0.993575
0.997911
0.998879
0.998305
1
1
0.99997
1
0.997364
1
0.992303
0.999485
1
1
1
1
1
1
1
1
1
1
1
1
1
1
1
1
0.999696
0.998926
1
1
1
1
1
1
1
1
1
1
1
1
1
1
1
1
1
1
0.99784
0.997561
1
1
0.997396
0.996812
1
0.998244
0.999576
0.99729
0.995603
0.994851
0.999148
0.997141
1
0.999652
0.99596
0.997634
0.996991
0.999057
0.998376
1
0.999702
1
0.997864
0.999044
0.996641
1
0.999663
0.999077
0.994736
0.998671
0.999301
0.997755
0.995712
0.999122
0.997755
0.993623
0.998243
1
1
0.998876
1
0.99681
0.999122
1
1
0.999121
1
1
1
1
1
1
1
1
1
1
1
1
1
1
1
1
1
1
1
0.999146
0.998419
1
1
1
1
1
1
1
1
1
0.999264
0.99978
1
1
1
0.99755
0.997979
1
1
1
1
1
1
1
0.999122
0.999613
1
0.998728
0.997561
0.997978
1
1
0.99993
1
0.999702
1
0.998376
0.998892
0.999464
0.999121
1
0.999769
1
0.99982
1
0.999605
0.99997
0.997971
0.99993
0.998878
1
0.999122
0.997755
1
1
1
1
1
1
1
0.999122
1
1
0.999121
1
1
1
1
1
1
1
1
1
1
1
1
1
1
1
0.999969
1
0.998361
1
0.999115
1
1
1
1
1
1
1
1
1
1
1
1
1
1
1
1
1
1
1
1
0.99997
1
1
0.999152
0.99788
0.997794
1
0.997364
1
1
0.997978
0.99596
1
0.999311
0.999077
1
0.999552
1
0.997646
1
1
1
1
0.999579
0.992806
1
0.999939
0.996013
1
1
1
0.999122
0.996787
0.996811
0.998273
1
1
1
1
1
1
1
1
0.999121
1
1
1
0.999123
1
0.998877
1
1
1
1
1
1
1
1
1
1
1
1
1
0.999115
1
1
1
1
1
1
1
1
1
1
1
1
1
1
1
1
1
1
1
1
1
1
1
1
0.999122
1
1
0.999424
1
0.998048
1
0.997284
0.99603
1
0.998272
1
0.996752
0.999131
0.999106
0.999056
0.999944
0.99832
1
1
1
0.999802
1
1
1
0.996827
1
1
0.995123
1
0.999122
1
1
1
1
1
1
1
1
1
1
1
1
1
1
1
1
1
1
1
1
1
1
1
1
1
1
1
1
0.99823
0.999939
0.998417
1
1
1
1
1
1
1
1
1
1
1
1
1
1
1
1
1
1
1
1
1
1
0.999697
1
1
1
1
1
1
0.995891
0.99596
0.99997
0.999166
1
0.997816
0.998592
1
1
1
1
1
1
1
1
1
1
1
0.999265
1
0.999818
0.997716
1
0.999122
1
1
0.998876
1
0.99989
1
1
1
1
0.998877
1
0.999265
1
0.996922
0.99849
1
1
1
1
1
1
1
1
1
1
1
1
1
1
1
1
1
1
1
1
1
1
1
1
1
1
1
1
1
1
1
1
1
1
1
1
1
1
1
0.999961
1
1
1
1
1
0.995961
0.992616
1
1
1
0.998376
1
0.998272
0.999056
1
1
1
1
1
1
1
1
1
0.997794
1
0.999304
0.998877
1
0.999122
1
1
1
1
1
1
1
1
0.99997
1
1
1
1
1
0.998877
1
1
1
1
1
1
1
1
1
1
1
1
1
0.999115
1
1
1
1
1
1
1
1
1
1
1
1
1
1
1
1
1
1
1
1
0.999122
1
0.998878
1
0.999303
1
1
1
1
1
1
0.999303
1
1
0.998808
0.999057
1
0.999131
0.999434
0.999056
1
1
1
1
1
1
1
1
1
0.999613
1
0.999122
1
1
1
1
1
0.997752
0.999122
1
0.999152
1
0.99989
1
1
1
1
0.998246
1
0.998877
1
1
1
1
0.999122
1
1
1
1
1
1
1
1
1
1
0.999435
1
1
1
1
1
1
1
1
1
1
1
1
1
1
1
1
1
1
1
1
1
1
1
1
1
1
1
1
1
1
1
1
0.998272
1
1
1
1
0.999805
1
0.999045
1
1
1
1
1
1
1
1
0.996811
0.998244
1
1
1
0.999123
1
1
1
0.993619
1
1
1
1
1
1
0.99911
0.998246
0.996812
0.999768
0.997978
1
1
1
1
1
1
1
1
0.999908
1
0.999039
1
0.999908
1
0.998361
0.99888
1
1
1
1
1
1
1
1
1
1
1
1
1
1
1
1
1
1
1
1
1
1
1
1
1
1
1
1
1
1
1
1
1
1
0.999311
1
0.999805
1
1
1
1
1
1
1
1
1
0.998955
1
0.99997
0.998878
1
1
0.999274
1
0.999612
0.999818
0.993619
0.998061
1
1
0.999303
1
1
0.998877
0.998246
0.992525
0.998141
1
1
1
0.999381
1
0.999128
1
1
1
1
1
1
1
1
1
1
1
1
1
1
1
1
1
1
0.998877
1
1
1
1
1
1
1
1
1
1
1
1
1
1
1
1
1
1
1
1
1
1
1
0.999136
1
1
1
1
1
1
1
1
1
1
1
1
1
1
1
1
1
0.999265
1
0.999122
1
0.990429
0.999612
0.998245
1
1
1
0.996812
0.999121
1
0.994835
0.999613
0.998488
0.995933
0.998877
1
1
1
0.999944
1
0.999128
1
1
1
0.99881
1
1
1
0.99823
1
1
1
1
1
1
1
1
1
1
1
1
1
1
1
1
1
0.995958
1
0.999961
1
1
0.997795
1
1
1
1
1
1
1
1
1
1
1
1
0.999057
0.997088
1
1
1
1
1
1
1
1
1
1
1
1
0.999613
1
1
1
1
1
0.999123
1
1
0.999122
1
1
1
1
0.999121
1
0.996813
0.997794
0.998246
1
0.998683
1
1
1
1
1
1
1
1
1
0.999115
1
1
1
1
0.999118
1
1
0.997971
1
1
1
1
1
1
1
1
1
1
1
1
1
1
1
1
1
1
1
1
1
1
1
1
1
1
1
1
1
1
0.998272
1
0.999888
1
0.999196
1
1
1
1
1
1
1
1
1
1
1
1
1
0.998878
1
1
1
1
1
1
1
0.999122
1
1
1
1
1
1
0.999123
1
0.999961
1
1
1
1
1
1
1
1
0.999818
0.999146
1
0.998361
1
0.999847
1
0.996948
1
1
1
1
1
1
0.999124
1
0.999303
1
1
0.999961
1
1
1
1
1
1
1
1
1
1
1
1
1
1
1
1
1
1
1
1
1
1
1
1
1
1
1
1
1
1
1
1
1
1
1
1
1
1
1
1
1
0.999697
1
1
0.999425
1
0.999243
1
1
0.999152
1
1
0.998916
0.999123
1
0.998877
1
1
1
1
0.999304
1
1
1
1
0.999115
0.999118
1
0.999366
0.999695
1
1
0.9993
1
1
1
1
1
1
1
1
1
1
0.998877
1
1
1
1
1
0.997756
1
1
1
1
1
1
1
1
1
1
1
1
1
1
1
1
1
1
1
1
1
1
1
1
1
1
1
1
1
0.999613
0.995712
1
0.998181
0.997911
0.999788
1
1
1
1
1
1
1
1
1
1
1
1
1
1
1
1
1
1
1
1
1
1
1
1
0.999115
1
0.998361
1
1
1
1
1
1
1
0.999124
1
1
1
1
1
1
1
1
1
1
1
1
1
1
1
1
0.999613
0.999697
1
1
1
1
1
1
1
1
0.99805
1
1
1
1
1
1
0.999056
1
1
1
1
1
1
1
1
1
1
1
0.999304
1
1
1
1
1
1
1
1
1
1
1
1
1
1
1
0.999637
0.998132
1
1
1
1
1
1
1
1
1
1
1
1
1
1
1
1
1
1
1
1
1
1
1
1
1
0.998877
1
0.999698
1
1
1
1
1
1
1
0.999425
1
1
1
1
1
1
1
1
1
1
0.99993
1
1
1
1
1
1
1
1
1
1
1
1
1
1
1
1
1
1
1
1
1
1
0.999122
1
1
1
1
1
1
1
1
1
1
1
1
1
0.996812
1
1
1
1
0.998369
1
1
1
1
1
1
1
1
1
1
1
1
1
1
1
1
0.996817
1
1
0.999232
1
1
1
0.998877
0.994403
1
1
1
1
1
1
1
0.998878
1
1
1
1
1
1
1
1
1
1
1
1
1
1
0.999131
1
1
1
1
1
1
1
1
1
1
1
1
1
1
1
1
1
1
1
1
1
1
1
0.998877
1
1
1
1
1
1
1
1
1
0.997977
1
1
1
1
1
1
1
1
1
1
1
1
1
1
1
1
1
1
0.996817
1
1
1
0.998877
0.996817
1
1
1
1
1
1
1
1
1
1
1
1
1
1
1
1
1
1
1
0.99798
1
1
1
1
1
1
1
1
1
1
1
1
1
1
1
1
1
1
1
1
1
1
1
1
1
1
1
1
1
1
1
1
1
1
1
1
1
1
1
1
1
1
1
1
1
1
0.999122
1
1
1
1
1
1
1
1
1
1
1
1
0.998877
1
1
1
1
1
1
1
1
0.998745
1
1
1
1
1
1
1
1
1
1
1
1
1
1
1
1
0.999671
0.999136
1
1
1
1
0.999056
1
1
1
1
1
1
1
1
1
1
1
0.999697
1
1
1
1
1
1
1
1
1
1
0.998021
0.999667
1
1
1
1
1
1
1
1
1
1
1
1
1
1
0.999122
1
1
0.998926
1
1
1
0.999435
1
1
1
1
1
1
1
1
1
1
1
1
1
1
1
1
1
1
1
1
1
1
1
1
1
1
1
1
1
1
1
1
1
1
1
1
1
1
1
1
1
1
1
1
1
1
1
1
1
1
1
1
1
1
1
1
1
1
1
1
1
1
0.998954
1
1
1
1
1
1
1
1
1
1
0.998436
1
1
1
1
1
1
1
1
1
1
1
1
1
1
1
1
1
1
1
1
1
0.998877
1
1
1
1
1
1
1
1
1
1
1
1
1
1
1
1
1
1
1
1
1
1
1
0.998263
1
1
1
1
1
1
1
1
1
1
1
0.998916
1
0.99997
1
0.996811
1
1
1
1
1
1
1
1
0.996811
1
0.998877
1
1
1
1
1
1
1
1
1
1
1
1
1
1
1
1
1
1
1
1
1
1
1
1
1
1
1
1
1
1
1
1
1
1
1
0.999164
0.999582
1
0.999729
1
1
0.999845
1
1
1
1
1
1
1
1
1
1
1
1
1
1
0.999131
1
0.999382
1
1
1
1
1
1
1
1
1
1
1
0.999122
1
1
0.999122
1
1
1
1
1
1
0.999961
1
1
0.998916
1
1
1
1
1
1
1
1
1
1
1
0.999044
1
1
1
1
1
1
1
1
1
1
1
1
1
1
1
1
1
1
1
1
1
1
1
1
1
1
1
1
1
1
1
1
1
1
1
1
1
1
1
1
1
1
0.999057
1
0.999131
1
1
1
1
1
1
1
1
1
1
1
1
0.996811
1
1
0.996811
1
1
1
1
1
1
1
1
1
1
1
1
1
1
1
1
1
1
1
1
1
1
0.999044
1
1
1
1
1
1
1
1
1
1
1
1
1
1
1
1
1
1
1
1
1
1
1
1
1
1
1
1
1
1
1
1
1
1
1
1
1
1
1
1
1
1
1
1
1
1
1
1
1
1
1
1
1
1
1
1
1
1
1
1
1
1
1
1
1
1
1
1
1
1
1
1
1
1
1
1
1
1
1
1
1
1
1
1
1
1
1
1
1
1
1
1
1
1
1
1
1
1
1
1
1
1
1
1
1
1
1
1
1
1
1
1
1
1
1
1
1
1
1
1
1
1
1
1
1
1
1
1
0.999131
1
1
1
1
1
1
1
1
1
1
1
1
1
1
1
1
1
1
1
1
1
1
0.999121
1
1
0.999122
1
1
1
1
1
1
1
1
1
1
1
1
1
1
0.999122
1
1
1
1
1
1
1
1
1
1
1
1
1
1
1
1
1
1
1
1
1
1
1
1
1
1
1
1
1
1
1
1
1
1
1
1
1
1
1
1
0.999057
0.998376
1
1
0.999056
1
1
1
1
1
1
1
1
1
1
0.9989
1
1
0.997911
1
1
1
1
1
1
0.999122
1
1
0.999121
1
1
1
1
1
1
1
1
0.999967
1
0.999122
1
0.999077
1
1
1
1
1
1
1
1
1
1
1
1
1
1
1
1
1
1
1
1
1
1
1
1
0.998676
1
1
1
1
1
1
1
1
1
1
1
1
1
1
1
1
1
1
0.999944
0.9997
1
0.999056
1
1
1
1
1
1
1
1
1
1
1
1
1
1
1
1
1
1
1
1
1
1
1
1
1
1
1
1
1
1
1
1
1
1
1
1
1
1
1
1
1
1
1
1
1
1
1
1
1
1
1
1
1
1
1
1
1
1
1
1
1
1
1
1
1
1
1
1
1
1
1
1
1
1
1
1
1
1
1
1
1
1
1
0.999056
1
1
1
1
1
1
1
1
1
1
1
1
1
1
1
1
1
1
1
1
0.999122
1
1
1
1
1
1
1
1
1
1
1
1
1
1
1
1
1
0.999122
1
1
1
1
1
1
1
1
1
1
1
1
1
1
1
1
1
1
1
1
1
1
1
1
1
1
1
1
1
1
1
1
1
1
1
1
1
1
0.999251
1
0.99987
1
1
1
1
1
1
1
1
1
1
1
1
1
1
1
1
1
1
1
1
1
1
1
1
1
1
1
1
1
1
1
1
1
1
1
1
1
1
1
1
1
1
1
1
1
1
1
1
1
1
1
1
1
1
1
1
1
1
1
1
1
1
1
1
1
1
1
1
1
1
1
1
1
1
1
1
1
1
1
1
1
1
1
0.999252
1
1
1
0.999805
1
1
1
1
1
1
1
1
1
1
1
1
1
1
1
1
1
1
1
1
1
1
0.9989
1
0.998877
1
1
1
1
1
1
1
1
1
1
1
0.999044
0.998425
0.999092
1
1
1
1
1
1
1
1
1
1
1
1
1
1
1
1
1
1
1
1
1
1
1
1
1
1
1
1
1
1
1
1
1
1
1
1
1
1
0.999131
1
0.999089
1
0.999131
1
0.999967
1
1
1
1
1
1
1
1
1
1
1
1
1
1
1
1
1
1
1
1
1
1
1
1
1
1
1
1
1
1
1
1
0.999044
1
1
1
1
1
1
1
1
1
1
1
1
1
1
1
1
1
1
1
1
1
1
1
1
1
1
1
1
1
1
1
1
1
1
1
1
1
1
1
1
1
1
1
1
0.999131
0.999136
1
1
1
1
1
1
1
1
1
1
1
1
1
1
1
1
1
1
1
1
1
1
1
1
1
1
1
1
1
1
1
1
1
1
1
1
1
1
1
1
1
1
1
0.999606
1
1
1
1
1
1
1
1
1
0.99958
1
1
1
1
1
1
1
1
1
1
1
1
1
1
1
1
1
1
1
1
1
1
1
1
1
1
1
1
1
1
1
1
1
1
0.999056
1
1
1
1
1
1
1
1
1
1
1
1
1
1
1
1
1
1
1
1
1
1
1
1
1
1
1
1
1
1
1
1
1
0.998369
0.999818
1
1
1
0.999122
1
1
1
1
1
1
1
1
0.99972
1
1
1
1
1
1
1
1
1
1
1
1
1
1
1
1
1
1
1
1
1
1
1
1
1
1
1
1
1
1
0.999702
1
1
0.999131
1
1
1
1
1
1
1
1
1
1
1
1
1
1
1
1
1
1
1
1
1
1
1
1
1
1
1
1
1
1
1
1
1
1
1
1
1
1
1
1
1
1
1
1
1
1
1
1
1
1
1
1
1
1
1
1
1
1
1
1
1
1
1
1
1
1
1
1
1
1
1
1
1
1
1
1
1
1
1
1
1
1
1
1
0.999136
1
1
1
1
1
1
1
1
1
1
1
1
1
1
1
1
1
1
1
1
1
1
1
1
1
1
1
1
1
1
1
1
1
1
1
1
1
1
1
1
1
1
1
1
1
1
1
1
1
1
1
1
1
1
1
1
1
1
1
1
1
1
1
1
1
1
1
1
1
1
1
1
1
1
1
1
1
1
1
1
1
1
1
1
1
1
1
1
1
1
1
1
1
1
1
1
0.999122
1
1
1
1
1
1
1
1
1
1
1
1
1
1
1
1
1
1
1
1
1
1
1
1
1
1
1
1
1
1
1
1
1
1
1
1
1
1
1
1
1
1
1
1
1
1
1
1
1
1
1
1
1
1
1
1
1
1
1
1
1
1
1
1
1
1
0.999136
1
1
1
0.99997
0.998145
1
1
1
1
1
1
1
1
1
1
1
0.999122
1
1
1
1
1
1
1
1
1
1
1
1
1
1
1
1
1
1
1
1
1
1
1
1
1
1
1
1
1
1
1
1
1
1
1
1
1
1
1
1
1
1
1
1
1
1
1
1
1
1
1
1
1
1
1
1
1
1
1
1
1
1
1
1
1
0.999132
1
1
1
1
1
1
1
1
1
1
1
1
1
1
1
1
1
1
1
1
1
1
1
1
1
1
1
1
1
1
1
1
1
1
1
1
1
1
1
1
1
1
1
1
1
1
1
1
1
1
1
1
1
1
1
1
1
1
1
1
1
1
1
1
1
1
1
1
1
1
1
1
1
1
1
1
1
1
1
1
1
1
1
1
1
1
1
1
0.999136
1
1
1
1
1
1
1
1
1
1
1
1
1
1
1
1
1
1
1
1
1
1
1
1
1
1
1
1
1
1
1
1
1
1
1
1
1
1
1
1
1
1
1
1
1
1
1
1
1
1
1
1
1
1
1
1
1
1
1
1
1
1
1
1
1
1
1
1
1
1
1
1
1
1
1
1
1
1
1
0.999106
0.999057
1
1
0.999821
0.999252
1
1
1
1
1
1
1
1
1
1
1
1
0.998877
1
1
1
1
1
1
1
1
1
1
1
1
1
1
1
1
1
1
1
1
1
1
1
1
1
1
1
1
1
1
1
1
1
1
1
1
1
1
1
1
1
1
1
1
1
1
1
1
1
1
1
1
1
1
1
1
1
1
1
1
1
1
1
1
1
0.999136
1
1
1
1
0.999056
1
1
1
1
1
1
1
1
1
1
1
1
1
1
0.999122
1
1
1
1
1
1
1
1
1
1
1
1
1
1
1
1
1
1
1
1
1
1
1
1
1
1
1
1
1
1
1
1
1
1
1
1
1
1
1
1
1
1
1
1
1
1
1
1
1
1
1
1
1
1
1
1
1
1
1
1
1
1
1
1
1
1
1
1
1
1
1
1
1
1
1
1
1
1
1
1
1
1
1
1
1
1
1
1
1
1
1
1
1
1
1
1
1
1
1
1
1
1
1
1
1
1
1
1
1
1
1
1
1
1
1
1
1
1
1
1
1
1
1
1
1
1
1
1
1
1
1
1
1
1
1
1
1
1
1
1
1
1
1
1
0.99805
1
1
1
1
1
1
1
1
1
1
1
1
1
1
1
1
1
0.999961
1
1
1
1
1
1
1
1
1
1
1
1
1
1
1
1
1
1
1
1
1
1
1
1
1
1
1
1
1
1
1
1
1
1
1
1
1
1
1
1
1
1
1
1
1
1
1
1
1
1
1
1
1
1
1
1
1
1
1
1
1
1
1
1
1
1
1
1
1
1
1
1
1
0.999057
1
1
1
1
1
1
1
1
1
1
1
1
0.998878
1
0.999122
1
1
1
1
1
1
1
1
1
1
1
1
1
1
1
1
1
1
1
1
1
1
1
1
1
1
1
1
1
1
1
1
1
1
1
1
1
1
1
1
1
1
1
1
1
1
1
1
1
1
1
1
1
1
1
1
1
1
1
1
1
1
1
1
1
1
1
1
1
1
1
1
1
1
1
1
1
1
1
1
1
1
1
1
1
1
1
1
1
1
1
1
1
1
1
1
1
1
1
1
1
1
1
1
1
1
1
1
1
1
1
1
1
1
1
1
1
1
1
1
1
1
1
1
1
1
1
1
1
1
1
1
1
1
1
1
1
1
1
1
1
1
1
1
1
1
1
1
1
1
1
0.999136
1
1
1
1
1
1
1
1
1
1
1
1
1
1
1
1
1
1
1
1
1
1
1
1
0.999121
1
1
1
1
1
1
1
1
1
1
1
1
1
1
1
1
1
1
1
1
1
1
1
1
1
1
1
1
1
1
1
1
0.999185
0.999922
1
1
1
1
1
1
1
1
1
1
1
1
1
1
1
1
1
1
1
1
1
1
1
1
1
1
1
1
1
1
1
1
1
1
1
1
1
1
1
0.996812
1
1
1
1
1
1
1
1
1
1
1
1
1
1
1
1
1
1
1
1
1
1
1
1
1
1
1
1
1
1
1
1
1
1
1
1
1
1
1
1
1
1
1
1
1
1
1
1
1
1
1
1
1
1
1
1
1
1
1
1
1
1
1
1
1
1
1
1
1
1
1
1
1
1
0.999721
1
1
0.999255
1
1
1
1
1
1
1
1
1
1
1
1
1
1
1
1
1
1
1
1
1
1
0.999122
1
1
1
1
1
1
1
1
1
1
1
1
1
1
1
1
1
1
1
1
1
1
1
1
1
1
1
1
1
1
1
1
1
1
1
1
1
1
1
1
1
1
1
1
1
1
1
1
1
1
1
1
1
1
1
1
1
1
1
1
1
1
1
1
1
1
1
1
1
1
1
1
1
1
1
1
1
1
1
1
1
1
1
1
1
1
1
1
1
1
1
1
1
1
1
1
1
1
1
1
1
1
1
1
1
1
1
1
1
1
1
1
1
1
1
1
1
1
1
1
1
1
1
1
1
1
1
1
1
1
1
1
1
1
1
1
1
1
1
1
1
1
1
1
1
1
1
1
1
1
1
1
1
1
1
1
1
1
1
1
1
1
1
1
1
1
1
1
1
1
1
1
1
1
1
1
1
1
1
1
1
1
1
1
1
1
1
1
1
1
1
1
1
1
1
1
1
1
1
1
1
1
1
1
1
1
1
1
1
1
1
1
1
1
1
1