/*--------------------------------*- C++ -*----------------------------------*\
| =========                 |                                                 |
| \\      /  F ield         | OpenFOAM: The Open Source CFD Toolbox           |
|  \\    /   O peration     | Version:  5.x                                   |
|   \\  /    A nd           | Web:      www.OpenFOAM.org                      |
|    \\/     M anipulation  |                                                 |
\*---------------------------------------------------------------------------*/
FoamFile
{
    version     2.0;
    format      ascii;
    class       volScalarField;
    location    "10";
    object      p;
}
// * * * * * * * * * * * * * * * * * * * * * * * * * * * * * * * * * * * * * //

dimensions      [0 2 -2 0 0 0 0];

internalField   nonuniform List<scalar> 
10571
(
289.939
282.236
282.704
260.405
268.951
221.405
226.863
221.712
214.935
248.983
213.776
202.34
205.053
220.986
219.394
217.914
225.527
229.609
214.725
206.574
211.486
234.763
238.507
189.006
195.727
154.046
132.66
154.714
172.723
168.183
181.737
189.606
190.02
187.572
162.85
173.977
170.542
194.403
163.39
194.265
157.11
176.573
161.486
138.98
161.5
175.441
179.071
139.47
105.247
119.798
114.062
125.604
123.615
138.834
153.784
146.904
133.115
130.878
139.729
147.971
142.078
126.21
87.1424
110.358
128.663
119.124
106.641
105.759
97.7625
144.26
128.862
106.742
79.7172
99.9324
95.0514
80.2772
74.9484
85.6102
79.4473
76.8461
76.426
79.0139
79.878
79.6261
90.5958
72.4795
66.2576
75.3722
108.045
84.8444
73.3576
78.182
82.7035
109.534
86.7222
82.1708
72.122
68.4455
74.877
72.6539
71.2719
67.9246
65.6247
68.2347
69.8917
69.4719
70.4186
70.5673
67.9314
67.6861
68.4905
69.6555
90.8776
68.4129
68.5156
70.8573
73.4529
72.9109
72.2608
73.6692
69.6473
68.943
67.8716
69.2697
69.7569
68.9408
69.8015
69.3053
68.844
69.4544
69.2432
68.823
69.3634
68.8528
69.3869
69.3574
68.9024
68.9761
68.282
68.1789
68.762
72.127
69.7452
68.1152
69.4758
75.8497
69.0005
68.9085
68.6715
68.9693
69.372
69.0609
69.0595
69.0248
69.1488
69.4404
69.1614
68.411
68.3855
68.9211
69.1211
69.6117
69.1746
69.162
67.5903
68.4585
68.8034
73.922
71.7026
68.9627
67.6831
67.8823
76.9723
68.832
68.7776
68.6446
68.8603
69.1261
68.9334
68.5517
68.534
68.8842
69.1722
68.9997
68.337
68.1508
68.2049
67.6911
68.5104
68.7789
69.2013
67.8319
67.7976
67.2769
73.4389
70.1105
69.1919
67.6509
66.9146
68.3981
68.6777
68.635
68.529
68.6141
68.8261
68.7113
68.4011
68.2913
68.6383
68.6054
69.1877
68.2857
68.0224
67.8546
66.8774
67.1475
68.304
69.3764
67.9777
67.5417
66.6709
64.8814
66.3898
67.7547
67.1248
66.9396
68.5395
68.5251
68.4439
68.4623
68.5938
68.4966
68.3367
68.2505
68.4703
67.752
68.2353
67.986
67.9314
67.4641
67.6687
67.8485
68.0211
67.7033
67.4001
67.1934
67.1625
67.8032
67.262
67.237
68.5311
68.4517
68.4044
68.4027
68.4346
68.4286
68.2859
68.2175
68.2203
68.0674
68.1958
68.0003
67.9977
67.7279
67.8178
67.627
68.0432
67.818
67.6008
67.4188
67.4709
67.8617
67.4959
67.4733
68.4963
68.3706
68.3932
68.3745
68.3328
68.3361
68.2379
68.1585
68.115
68.0814
68.17
68.0215
68.0238
67.7975
67.8103
67.8826
68.0621
67.8285
67.6361
67.6436
67.6843
67.8943
67.6478
67.669
68.3912
68.2781
68.35
68.336
68.2838
68.1973
68.1529
68.1012
68.1538
68.0763
68.1467
68.0564
68.0259
67.8568
67.8071
67.9142
68.0715
67.823
67.6855
67.7609
67.7928
67.9093
67.742
67.7548
68.3994
68.1923
68.2776
68.2884
68.2689
68.0624
68.0672
68.051
68.186
68.1325
68.1197
68.066
68.0241
67.9164
67.8579
67.9293
68.0633
67.8498
67.7649
67.7336
67.7995
67.9422
67.8375
67.8132
68.276
68.1065
68.1677
68.1748
68.2312
67.9672
67.9907
68.0031
68.1429
68.107
68.0854
68.0537
68.0201
67.9679
67.9246
67.96
68.0589
67.9028
67.8536
67.7619
67.822
67.9813
67.9251
67.8793
68.093
68.0376
68.0584
68.0447
68.1289
67.9225
67.9332
67.9683
68.0693
68.0615
68.0544
68.0353
68.0176
68.0007
67.9484
67.9778
68.0541
67.946
67.9369
67.8918
67.9192
68.0162
67.9845
67.9625
67.9784
67.9979
67.9771
67.9354
68.0002
67.9329
67.898
67.9243
67.9569
67.982
68.0378
68.0243
68.014
68.0126
67.9267
67.9743
68.0463
67.9576
67.9892
68.0038
67.9785
68.0368
68.0102
68.0265
67.9133
67.9883
67.9416
67.8646
67.8892
67.9705
67.9042
67.8727
67.8693
67.9237
68.0453
68.028
68.0006
68.0095
67.8797
67.9361
68.0382
67.9435
67.9988
68.0447
67.993
68.0381
68.0089
68.0413
67.8666
67.9895
67.9284
67.8078
67.8055
68.0041
67.9913
67.8601
67.8003
67.8879
68.0539
68.034
67.9836
68.0075
67.838
67.9073
68.0356
67.9374
67.9708
68.0283
67.9714
68.0291
67.9888
68.0193
67.8455
67.993
67.9424
67.8081
67.7906
68.0128
68.1129
67.9076
67.7898
67.8532
68.0373
68.0283
67.9693
68.0017
67.8202
67.87
68.0318
67.948
67.9421
67.982
67.9397
68.0242
67.9648
67.9873
67.8933
67.9836
67.9529
67.9017
67.8588
68.0354
68.1598
67.917
67.8604
67.858
68.0188
68.0114
67.9804
68.0102
67.8486
67.8657
68.0227
67.965
67.9215
67.9547
67.9249
68.0235
67.9469
67.9609
67.9461
67.9238
67.9195
67.9674
67.9441
67.9748
68.0468
67.8436
67.9113
67.8858
67.9777
67.9677
67.9645
68.0169
67.9169
67.8923
68.0073
67.9757
67.8983
67.9299
67.9257
68.0243
67.9361
67.9436
67.9584
67.8329
67.8561
67.9587
68.0104
67.8546
67.8578
67.8244
67.9732
67.9218
67.9074
67.8939
67.8963
67.9969
67.986
67.9366
67.9862
67.9776
67.8772
67.9366
67.9452
68.0194
67.9331
67.9524
67.9542
67.728
67.7806
67.9323
68.0395
67.7422
67.6915
67.83
68.012
67.9543
67.8407
67.8251
67.8431
67.9727
68.0052
67.9566
67.9647
67.9616
67.8747
67.9581
67.9727
68.0113
67.9352
67.9825
67.9302
67.6385
67.715
67.9144
68.029
67.649
67.617
67.8312
67.9861
67.9542
67.8068
67.7787
67.8125
67.9486
67.9896
67.9494
67.9485
67.9461
67.8907
67.9782
67.9837
68.0082
67.9489
68.0038
67.9123
67.5984
67.6879
67.8962
68.0031
67.572
67.6032
67.8901
67.9297
67.9314
67.807
67.7675
67.8236
67.9343
67.982
67.9487
67.9392
67.9575
67.9276
67.9837
67.9846
68.019
67.9865
68.0181
67.9223
67.6414
67.7109
67.8953
67.9851
67.5523
67.6531
67.9532
67.8841
67.9272
67.8543
67.7968
67.8711
67.9352
67.9842
67.9687
67.955
67.9791
67.961
67.9835
67.9875
68.0389
68.0202
68.0266
67.9679
67.7747
67.7907
67.926
67.9981
67.6707
67.7457
67.9863
67.8845
67.9463
67.946
67.8684
67.9304
67.9505
68.0015
67.9964
67.9748
68.0087
67.9955
67.9965
68.0005
68.044
68.036
68.0388
68.0368
67.9571
67.9114
67.9826
68.0369
67.8643
67.8211
68.0189
67.9257
67.9852
68.0782
67.9904
67.9887
67.9904
68.0231
68.0302
67.9941
68.0358
68.0274
68.0304
68.0299
68.0531
68.0563
68.0602
68.1049
68.1269
68.0382
68.0534
68.0917
68.0812
67.8879
68.0461
67.9881
68.0366
68.2231
68.1351
68.0381
68.0415
68.0432
68.0626
68.0415
68.0621
68.0659
68.0444
68.0606
68.0693
68.0856
68.0796
68.1529
68.2589
68.1342
68.1183
68.1382
68.3221
67.9828
68.0514
68.0455
68.0819
68.3663
68.2953
68.0818
68.0745
68.0589
68.0874
68.1265
68.0848
68.0992
68.0583
68.0876
68.0872
68.1211
68.0956
68.1678
68.3285
68.1942
68.1567
68.1597
68.4619
68.1206
68.065
68.086
68.1098
68.5025
68.4537
68.1045
68.0889
68.082
68.1085
68.208
68.1048
68.1095
68.0732
68.112
68.1162
68.1598
68.112
68.1516
68.3255
68.2025
68.152
68.1617
68.4521
68.1869
68.0838
68.1034
68.1234
68.5678
68.5919
68.201
68.1253
68.1061
68.1236
68.2889
68.1169
68.1246
68.0908
68.1266
68.1527
68.2018
68.1324
68.1185
68.2658
68.1534
68.1137
68.1382
68.347
68.1632
68.0801
68.1082
68.1311
68.5924
68.4464
68.1929
68.1377
68.1126
68.1325
68.2655
68.1595
68.1505
68.1065
68.135
68.201
68.2322
68.1518
68.0872
68.1952
68.1008
68.0598
68.1094
68.2281
68.14
68.0556
68.1116
68.1408
68.3179
68.1824
68.1533
68.1467
68.1132
68.1438
68.1817
68.1922
68.1703
68.1183
68.1466
68.2434
68.2492
68.1659
68.0534
68.1533
68.0763
68.0211
68.089
68.1735
68.1232
68.0307
68.1182
68.1523
68.1559
68.0808
68.1916
68.1407
68.1207
68.1589
68.1463
68.2098
68.1902
68.1429
68.1585
68.2864
68.2658
68.1808
68.045
68.1342
68.0642
68.0109
68.0759
68.1694
68.1174
68.0147
68.1283
68.1615
68.1958
68.1576
68.2235
68.1308
68.1333
68.1698
68.2819
68.2599
68.1986
68.1753
68.1762
68.3348
68.3039
68.2112
68.0534
68.1237
68.0611
67.9987
68.0783
68.1548
68.0939
68.0101
68.1254
68.1618
68.2267
68.2071
68.1848
68.1033
68.1406
68.1735
68.469
68.3432
68.1961
68.2034
68.1976
68.4292
68.317
68.2274
68.084
68.1137
68.0738
68.0154
68.0904
68.1202
68.0485
67.9946
68.1037
68.1519
68.1864
68.1597
68.0721
68.0608
68.1311
68.1674
68.4078
68.2147
68.1316
68.1819
68.1906
68.3304
68.2658
68.2091
68.1203
68.0981
68.09
68.0583
68.1152
68.0824
67.991
68.0076
68.0776
68.1359
68.1259
68.1019
67.9996
68.0333
68.1129
68.1521
68.2183
68.0557
68.0585
68.1422
68.1641
68.1654
68.1692
68.1616
68.1245
68.0746
68.0861
68.0966
68.1727
68.0524
67.9402
68.0321
68.0266
68.1083
68.0801
68.0547
67.972
68.0056
68.0913
68.1274
68.0923
67.9829
67.9934
68.0947
68.1282
68.0776
68.0615
68.0997
68.0976
68.0457
68.0488
68.0717
68.2414
68.0271
67.9255
68.0031
68.0236
68.0814
68.0476
68.0158
67.9319
67.9933
68.0594
68.0925
68.02
67.9263
67.9482
68.0471
68.0891
68.0731
68.0237
68.05
68.0593
68.016
67.9994
68.0297
68.1583
68.0006
67.9196
67.973
68.0002
68.0677
68.0198
67.989
67.9052
67.9773
68.0142
68.0487
67.9766
67.8876
67.9242
68.0021
68.0523
68.0292
67.9674
68.0039
68.0184
67.9925
67.9572
67.997
68.0828
67.9791
67.9234
67.9623
67.9633
68.0708
67.9939
67.9631
67.9122
67.9426
67.9736
68.0154
67.9501
67.8694
67.9117
67.9707
68.0182
67.9686
67.9339
67.975
67.9901
67.9871
67.9467
67.966
68.0229
67.9721
67.9549
67.9872
67.9666
68.1693
67.9784
67.9429
67.9067
67.9205
67.9408
68.0034
67.944
67.8956
67.9158
67.9586
67.9991
67.9582
67.9249
67.9623
67.9758
68.0011
67.9715
67.9492
67.9897
67.9875
68.0221
67.9718
67.9186
68.2077
67.9812
67.9511
67.9045
67.9339
67.8976
68.0366
67.9559
67.9568
67.9192
67.9604
67.9936
67.9736
67.9057
67.9537
67.9711
68.0183
68.0044
67.9412
67.9742
68.01
68.0886
67.9099
67.9023
68.1413
67.9946
67.9811
68.0073
67.928
67.8946
68.0648
67.9694
67.9559
67.9057
67.9533
67.9978
67.9362
67.8684
67.9412
67.9715
68.0273
68.0199
67.9192
67.985
68.0266
68.1149
67.8929
67.9171
68.0493
68.0086
68.0052
68.0704
67.9316
67.947
68.0579
67.9713
67.8753
67.903
67.9353
67.9963
67.7612
67.7935
67.9165
67.991
68.0277
68.0149
67.8859
68.0247
68.0304
68.0727
67.9172
67.9086
67.9819
68.0201
68.0169
68.0444
67.9569
67.9762
68.0078
67.9701
67.7992
67.8783
67.9084
67.9766
67.4747
67.6775
67.8891
68.0278
68.0244
68.0112
67.9248
68.073
68.0231
68.0147
67.9258
67.9136
67.9494
68.0301
68.0247
68.0314
68.0143
67.9938
67.9135
67.985
67.7657
67.8912
67.9326
67.9577
67.5857
67.7171
67.9131
68.0498
68.0237
68.0161
67.9771
68.0867
68.0236
67.9842
67.9862
67.9132
67.9452
68.0399
68.0293
68.0388
68.0908
68.0142
67.8581
68.0175
67.9822
67.913
67.9764
67.9609
68.0247
67.9828
67.9723
68.0453
68.0282
68.0205
67.993
68.0606
68.0357
67.9859
68.0553
67.9105
67.9694
68.0441
68.0403
68.0455
68.1314
67.9973
67.9087
68.0416
68.1076
67.9897
68.0187
67.9898
68.2025
68.2047
68.0291
68.018
68.0327
68.0182
67.9701
68.0121
68.0364
67.9968
68.0543
67.9112
67.9993
68.048
68.0316
68.0226
68.1402
67.981
67.9702
68.0529
68.0755
68.0854
68.0236
68.0248
68.1967
68.3202
68.0683
67.9862
68.0314
68.01
67.926
67.9549
68.0152
67.9848
67.9906
67.8983
68.0062
68.0265
68.0032
68.0015
68.1198
67.9737
68.0063
68.0531
68.0502
68.1569
68.0042
68.0427
68.1684
68.3774
68.0951
67.9695
68.0205
68.0021
67.8956
67.8923
67.9719
67.9532
67.9132
67.8434
67.9627
68.0005
67.9691
67.9784
68.0241
67.9263
67.972
68.0397
68.0297
68.1201
67.9762
68.0098
68.122
68.202
68.0799
67.9797
68.0092
67.9954
67.8955
67.855
67.9211
67.9292
67.8332
67.7742
67.8768
67.9915
67.9575
67.9533
67.9194
67.8319
67.8717
68.0223
68.0019
68.0238
67.917
67.9221
68.073
68.0512
68.0191
68.0016
68.0004
67.991
67.9204
67.8268
67.892
67.9148
67.7622
67.6804
67.7542
67.9979
67.969
67.9356
67.8436
67.7197
67.741
68.0133
67.9746
67.9479
67.843
67.7927
68.036
67.9547
67.9426
68.0108
67.9913
67.9747
67.9384
67.7901
67.9366
67.9061
67.706
67.5536
67.579
68.0178
67.9973
67.9318
67.791
67.5622
67.5503
68.0199
67.9567
67.8756
67.7184
67.6282
68.0088
67.8731
67.8424
67.9998
68.0089
67.9302
67.9216
67.7252
68.0169
67.9453
67.6567
67.3269
67.2745
68.0524
68.0305
67.9374
67.7157
67.3068
67.1945
68.0407
67.961
67.7778
67.5204
67.3666
68.0137
67.8531
67.6896
67.975
68.0593
67.8769
67.8653
67.6209
68.1007
67.9922
67.5882
66.947
66.6504
68.115
68.0701
67.9238
67.6088
66.8872
66.4219
68.1009
67.9894
67.6859
67.2789
66.913
68.071
67.8814
67.5147
67.9546
68.1346
67.9012
67.7999
67.4776
68.1764
68.0209
67.467
66.4147
65.3514
68.2088
68.1405
67.9073
67.4397
66.2176
64.5273
68.1871
68.0616
67.6445
66.9335
66.053
68.2026
67.9474
67.329
67.9374
68.2131
67.9834
67.7322
67.2059
68.2486
68.0148
67.2692
65.7134
62.2434
68.337
68.2482
67.9143
67.1754
65.3046
60.6296
68.3009
68.0653
67.5594
66.5175
64.3643
68.2861
67.8693
67.0595
67.9371
68.3016
68.084
67.6901
66.8728
68.3331
68.0134
67.0119
64.8579
53.7462
68.4851
68.3843
67.9501
66.9545
64.3609
56.3874
5.44339
68.4016
68.0889
67.647
66.1405
60.9149
68.0905
67.9383
66.8893
67.9933
68.4056
68.1764
67.7128
66.761
68.439
67.9688
67.0033
64.3663
48.4551
6.19078
68.6573
68.5629
67.9472
67.0933
63.9194
54.6597
16.4517
68.543
68.1995
67.8759
65.9607
56.4724
68.076
68.236
67.1944
68.1118
68.5233
68.2363
67.795
67.0046
68.5274
67.8837
67.0257
64.9789
55.8946
22.2763
68.6342
68.6031
67.8958
67.0787
64.6867
54.5287
22.5363
68.4988
68.4438
67.927
66.596
59.0619
28.8357
68.358
68.069
67.8525
68.2368
68.639
68.292
67.8811
67.504
68.6072
67.8026
66.9686
65.9747
58.8954
26.6609
68.7673
68.4167
67.789
66.904
65.4889
56.4443
22.5761
68.424
68.3007
67.6072
66.7768
63.1717
68.5138
68.2938
68.3718
68.296
68.7307
68.3
67.9166
67.8405
68.5526
67.5585
66.8435
66.5159
65.0293
68.6172
68.2658
67.6
66.6402
65.4763
60.4463
0.716972
68.3404
67.9698
67.21
66.9726
65.2993
68.2725
68.0786
69.0036
68.2637
68.6352
68.1546
67.8269
67.897
68.2102
67.2026
66.594
66.8415
68.3857
68.4152
67.9286
67.3871
66.3854
65.9738
65.2257
68.0985
67.5437
66.9004
66.6478
66.7571
67.9979
67.7645
67.8226
68.0685
68.2255
67.6889
67.5491
67.8027
67.717
66.6173
66.2636
67.0142
68.3717
68.1422
67.5039
66.9317
66.2822
66.0981
66.2583
67.8047
67.2587
66.9211
66.7146
67.2144
67.7846
67.5619
67.4329
67.6736
67.3206
66.766
67.0897
67.6352
66.931
65.7527
65.8456
66.93
67.9823
67.8136
67.0911
66.6075
66.3229
66.2767
66.6574
67.5752
67.1413
67.0523
66.9177
67.4693
67.6832
67.5353
67.4663
67.1639
66.0709
65.392
66.5921
67.516
66.3173
64.8249
65.6548
66.9741
67.7827
67.4984
66.8995
66.5109
66.4495
66.5904
67.0597
67.4675
67.2088
67.3194
67.2551
67.7184
67.7175
67.6627
67.6955
66.9726
65.5415
64.5311
66.4773
67.697
66.3262
65.2243
66.1743
67.4453
68.0814
67.3442
67.0219
66.834
66.8628
67.2461
67.6794
67.5764
67.4963
67.691
67.6853
68.0929
67.9125
67.9132
68.0338
67.5344
65.6993
65.2185
67.2071
68.3572
66.7135
66.1239
67.2594
68.2069
68.7087
67.5448
67.3596
67.2917
67.4218
67.8208
68.2703
67.8236
67.8349
68.0507
68.0959
68.4677
68.1818
68.2157
68.3821
68.4242
66.7531
66.7535
68.1137
69.0772
67.2153
66.7876
67.4594
68.4056
69.2713
67.8711
67.6791
67.4784
67.5295
68.0046
68.7097
68.0813
67.9841
68.0812
68.3469
68.71
68.4563
68.4444
68.6312
69.135
67.204
67.3612
68.5076
69.4771
67.4425
67.2551
67.8088
68.5896
69.4441
68.1585
67.836
67.6862
67.809
68.2637
68.9217
68.2346
68.1234
68.1879
68.4064
68.8091
68.5798
68.5557
68.6652
347.842
309.145
338.448
318.799
300.885
304.307
321.706
341.03
254.446
322.49
345.033
295.949
291.695
318.401
296.256
272.755
257.206
284.021
300.644
251.931
260.726
343.945
346.302
276.261
323.074
321.22
238.273
235.546
234.566
253.007
248.121
223.592
228.366
244.916
237.445
231.102
232.659
245.424
246.998
242.091
251.988
250.119
262.648
267.755
251.077
297.504
280.482
259.365
248.992
240.012
252.73
213.732
213.094
222.129
217.54
232.93
245.446
242.454
234.942
243.438
245.222
224.164
222.408
254.918
261.315
230.177
242.853
254.254
243.088
228.274
255.151
247.906
232.702
255.478
263.398
237.065
225.999
253.577
234.227
221.793
217.245
229.861
228.93
221.795
236.582
225.376
226.556
228.655
279.313
286.385
260.521
254.933
250.215
264.401
249.313
249.855
304.002
216.488
296.177
304.14
300.856
252.767
225.994
243.915
291.678
297.963
274.391
269.181
240.893
291.79
218.359
235.155
227.358
298.529
245.526
257.172
216.681
204.309
211.664
184.738
282.18
205.337
254.521
194.408
209.297
176.73
196.356
262.913
207.051
231.161
227.135
228.99
226.467
201.052
206.028
232.355
222.491
203.261
210.522
213.606
205.642
191.945
177.261
175.153
167.242
210.478
208.441
212.223
213.598
202.979
221.755
177.402
217.684
237.089
235.152
182.932
183.519
193.287
188.426
212.7
168.922
173.78
165.076
164.562
147.401
152.7
191.017
241.861
188.109
236.487
243.301
193.018
198.433
204.311
224.019
241.814
209.142
180.075
213.302
154.952
133.139
120.595
166.235
131.123
145.813
116.434
115.119
113.304
186.468
178.919
127.58
127.066
144.716
175.108
148.183
196.422
151.772
128.219
165.819
141.54
125.176
120.646
140.486
132.097
173.765
170.156
169.563
155.829
151.731
163.83
151.138
178.095
154.552
188.859
163.436
162.4
150.623
147.673
144.979
193.566
194.924
162.747
164.693
162.185
163.033
162.136
155.02
155.452
157.321
200.358
191.297
163.023
163.463
160.835
157.415
147.962
153.973
157.575
164.896
144.839
139.047
144.222
151.96
134.587
136.844
137.732
121.886
115.298
124.164
123.703
119.369
168.379
156.922
176.338
177.342
162.399
163.129
161.786
155.452
179.874
156.055
134.519
156.842
124.213
119.864
115.016
108.219
112.764
108.64
99.0373
105.12
101.17
109.182
105.405
90.5116
91.1731
83.5509
110.681
83.2498
132.141
116.619
119.734
128.359
124.335
112.008
118.395
116.168
110.06
121.058
146.44
124.044
86.8794
84.8696
112.264
91.1797
126.528
95.966
136.703
134.679
134.1
120.269
107.014
110.685
122.012
122.998
98.4838
88.3426
93.4222
140.935
145.86
101.243
102.548
123.977
118.169
99.0427
85.6931
89.9934
81.4567
133.511
119.728
134.622
131.44
137.012
115.118
126.238
119.384
119.109
102.031
108.456
110.685
91.2611
92.022
94.6722
98.2063
89.2386
141.893
126.554
144.226
142.71
126.331
121.344
120.634
112.663
132.286
104.559
95.1851
108.514
92.7454
99.8087
77.7333
86.8205
92.399
88.1432
77.3173
79.9323
77.0762
77.9936
75.8914
73.989
72.7433
73.3115
75.016
73.0738
95.8086
73.9224
108.098
96.5404
99.826
75.4749
79.71
73.2345
82.201
73.7463
79.7624
75.9482
72.7808
72.3414
72.7062
72.1609
76.873
71.3729
90.7706
77.4136
80.1392
70.2304
70.7696
70.7767
75.7628
77.2177
71.1809
72.4312
71.9227
80.6516
103.073
72.7268
73.4288
82.567
75.9636
79.6545
70.775
70.7887
75.5677
110.68
100.597
111.937
111.599
110.266
104.389
105.651
106.098
108.171
82.4507
83.8519
87.1412
71.4383
76.1687
77.3039
80.1906
77.2025
114.402
104.712
96.151
95.5699
89.932
77.8249
79.3421
82.2409
89.0253
77.0252
74.5566
78.1536
75.7713
69.3843
68.9661
72.2686
72.7737
71.8854
69.9014
69.3047
69.6326
71.5249
71.9374
70.6122
70.5024
70.8124
71.8028
70.7887
68.78
69.3417
68.2333
68.4959
67.8086
69.1384
68.8948
69.3594
69.1628
71.2726
72.619
70.3095
70.2846
70.4099
70.3064
69.5879
70.0852
69.7847
68.297
70.3018
70.0352
69.1758
69.9383
69.7589
70.4112
70.3208
69.4976
69.5975
69.5789
70.4697
70.2374
69.3971
69.1056
67.3533
69.8176
70.4276
69.1046
69.204
68.2767
84.0919
70.8188
90.041
91.9175
92.438
74.5347
67.3002
74.2041
70.3253
74.1412
74.295
77.6715
71.4221
72.7503
73.5534
75.9266
70.721
84.9771
69.9099
70.6237
71.536
68.5611
69.3192
69.4981
71.6968
72.7103
70.3727
71.3282
70.5309
74.372
68.9412
68.8789
68.9358
68.3149
68.6173
68.7105
68.7109
68.5135
69.6479
69.9917
69.1603
69.1389
69.4878
70.0131
69.5663
69.0649
69.0964
68.9236
68.9169
69.3534
68.9321
68.8936
69.0347
69.0628
69.8984
68.666
69.5464
69.5134
69.6212
68.7408
69.5326
69.6008
69.4516
69.2965
69.3817
69.3496
69.1327
68.9904
69.0133
69.3076
69.3389
69.4807
69.3397
69.0625
69.2165
68.9145
69.2647
69.0985
69.1163
69.2293
69.3722
69.0677
69.156
68.499
67.2742
68.4984
68.3297
67.4603
69.0373
68.6923
68.6086
68.9068
68.788
69.2607
68.0995
69.1371
69.0102
69.1741
69.1267
69.2218
69.1015
69.3017
67.7514
67.4959
67.0062
68.366
67.4911
67.3137
68.0573
67.521
67.5924
72.2468
74.6753
75.2492
73.1046
72.5308
76.8752
75.2833
69.8123
67.8281
67.7252
68.5318
68.4032
67.81
67.9367
67.8042
71.7396
69.5547
68.6115
72.6942
68.7951
77.0534
68.8046
68.745
68.7051
68.7833
68.6451
68.6498
68.6981
68.6359
68.9922
69.2721
68.9158
68.9295
69.1511
69.3457
69.2258
69.0667
68.9947
68.827
69.0149
68.9161
68.8487
68.7727
68.9327
68.827
69.4258
69.052
69.4617
69.2534
69.2884
69.1225
69.3457
69.4652
69.3452
69.3681
69.2208
69.2204
69.3358
69.1717
69.3183
69.0455
68.8091
68.7888
68.9904
68.6991
68.6855
69.3224
69.3845
69.1998
69.3469
69.1271
69.3763
69.0682
69.3075
69.1564
69.1926
69.0706
69.2625
69.0567
69.1614
68.3317
67.754
68.3883
68.3338
67.9297
69.0668
69.9167
68.5206
69.2208
69.0052
69.6812
68.9015
69.2245
69.1223
69.2184
69.1308
69.2285
69.108
69.2349
67.6737
67.7724
68.2656
67.6381
67.5772
67.73
68.0694
67.7304
67.644
73.2629
79.514
75.962
74.4133
74.2786
81.3229
77.3661
66.6227
72.8893
68.9356
69.1484
69.0097
69.1777
67.7905
67.8071
67.5744
67.4674
67.6347
67.2424
67.2724
71.3735
67.9377
66.9303
67.4559
67.1063
74.4611
68.6826
68.6101
68.5483
68.6225
68.5529
68.4479
68.5455
68.437
68.8645
69.0467
68.7556
68.7812
68.9296
69.1143
68.9868
68.9063
68.8101
68.7133
68.8506
68.7553
68.7045
68.6442
68.7613
68.6856
69.1369
69.0096
69.2084
68.9813
68.9658
68.8093
69.0325
69.2168
69.2006
68.8445
69.064
69.1514
69.294
69.1438
69.3262
68.9168
68.614
68.6171
68.8229
68.5578
68.5415
69.0868
69.1473
69.0062
68.8552
68.9216
68.7916
68.9203
69.2445
69.0288
69.1982
69.0515
69.2672
69.1357
69.2699
68.3117
68.0238
68.3029
68.2876
68.0622
69.057
68.2941
68.9303
68.3654
69.1296
67.176
69.0069
69.2537
69.206
69.312
69.306
69.3173
69.4051
69.4491
67.9136
68.0015
67.9855
67.8113
67.7488
67.9154
67.9678
67.9216
67.8241
72.2355
75.7748
75.0888
67.5246
66.9514
66.1613
67.1041
68.928
66.8909
68.9312
69.301
69.4673
69.4339
67.8047
67.8136
67.1611
67.2476
67.7188
67.3159
67.3803
66.5547
67.0027
67.1218
66.9346
67.1538
66.6862
68.5255
68.4755
68.365
68.4801
68.3294
68.325
68.4279
68.2854
68.6902
68.8125
68.59
68.606
68.7126
68.8514
68.7299
68.7194
68.6385
68.5756
68.672
68.6145
68.5739
68.5219
68.5952
68.5507
68.7919
68.6136
68.7794
68.6945
68.6408
68.4742
68.5628
68.4231
68.2335
68.7291
68.5148
68.4854
68.6468
68.4799
68.4353
69.0446
68.5412
69.0028
68.1349
68.8169
68.3247
68.8442
69.2875
69.2941
69.2819
69.293
69.3284
69.4921
69.3289
68.2736
68.0769
68.2641
68.2534
68.0917
69.132
67.5123
69.2841
68.1395
68.7903
67.5488
68.8121
69.327
69.4259
69.4019
69.3854
69.3475
69.3531
69.3752
68.0457
68.0709
67.976
67.9843
67.8725
68.0088
68.007
67.992
67.9086
65.5487
66.2354
65.7734
66.3247
66.6977
67.0074
66.8652
66.8548
67.8374
67.8805
67.4019
67.4918
67.773
67.4503
67.551
67.1363
67.1546
67.1324
67.1761
67.1862
67.0587
68.447
68.4329
68.3175
68.4069
68.3014
68.3392
68.4065
68.3371
68.5606
68.6398
68.5312
68.5444
68.5872
68.625
68.5378
68.5651
68.5023
68.482
68.5339
68.4934
68.4867
68.4533
68.4887
68.4406
68.5306
68.3827
68.4114
68.5107
68.4544
68.3252
68.3202
68.1788
68.1974
68.5684
68.4412
68.3873
68.4974
68.4092
68.3506
68.1445
68.7633
67.9369
67.8654
66.6834
68.2249
68.1051
68.212
68.202
68.1146
68.3603
66.9558
67.5183
65.9859
67.026
68.0851
68.0947
68.0383
67.9904
67.9456
68.0343
68.064
67.9937
67.9851
67.3093
67.2919
67.2549
67.3685
67.3653
67.3921
67.3345
67.3509
67.938
67.9922
67.5256
67.656
67.8378
67.6182
67.7525
67.3122
67.3245
67.3821
67.4315
67.4396
67.3601
68.4237
68.4131
68.3758
68.4188
68.3758
68.4194
68.4347
68.419
68.5303
68.5408
68.5199
68.5156
68.4989
68.4748
68.4199
68.4443
68.3854
68.4275
68.4474
68.3937
68.4132
68.4006
68.3984
68.353
68.3993
68.2787
68.2587
68.3767
68.3558
68.2577
68.2439
68.1858
68.1751
68.4265
68.3839
68.3234
68.3571
68.3562
68.2936
67.8944
67.4716
68.091
67.9604
67.9589
68.1845
68.123
68.1818
68.1687
68.1297
67.1729
67.3505
67.7952
67.7663
67.5869
68.1001
68.1054
68.0921
68.0024
68.0171
68.052
68.1104
68.0189
68.0383
67.4017
67.4888
67.4459
67.4925
67.4819
67.5923
67.5604
67.5766
68.0371
68.0667
67.7027
67.8353
67.8817
67.7656
67.8868
67.5378
67.551
67.5829
67.6187
67.6354
67.5812
68.3971
68.3671
68.4428
68.4382
68.4412
68.4319
68.4213
68.4282
68.4893
68.4558
68.4458
68.4373
68.4118
68.3791
68.3446
68.3269
68.2707
68.3717
68.3409
68.3146
68.3251
68.338
68.2831
68.2746
68.3181
68.244
68.2534
68.3029
68.2854
68.2358
68.2628
68.1793
68.1835
68.2935
68.3236
68.2609
68.2328
68.2909
68.2287
67.9975
68.0098
68.069
68.0028
68.023
68.1572
68.1301
68.1588
68.1487
68.1264
67.8299
67.718
67.9068
67.8583
67.7858
68.111
68.1158
68.1167
68.0356
68.0548
68.0705
68.1182
68.0449
68.0683
67.5937
67.6527
67.6456
67.751
67.674
67.6897
67.686
67.7631
68.0847
68.095
67.8049
67.9168
67.9011
67.8343
67.9287
67.6887
67.6998
67.6958
67.7426
67.745
67.7194
68.33
68.2905
68.4136
68.3877
68.3945
68.3939
68.3506
68.3702
68.3732
68.369
68.3784
68.3362
68.3364
68.3197
68.303
68.2191
68.1725
68.2975
68.2299
68.2293
68.2345
68.256
68.1856
68.1792
68.256
68.2307
68.2389
68.2775
68.2333
68.2322
68.2006
68.177
68.1728
68.1718
68.262
68.2
68.1164
68.2421
68.1807
68.0033
68.0506
68.1102
68.0148
68.0864
68.1396
68.1227
68.134
68.1292
68.1207
67.8843
67.8251
67.9183
67.9039
67.8554
68.1169
68.1148
68.116
68.049
68.0763
68.0677
68.111
68.0517
68.0789
67.7092
67.7172
67.7085
67.7348
67.7115
67.7406
67.7207
67.7993
68.1002
68.1028
67.86
67.9392
67.9242
67.8857
67.9501
67.7921
67.7886
67.7897
67.8327
67.8305
67.7799
68.249
68.2044
68.4258
68.3134
68.3581
68.4021
68.2666
68.3219
68.3293
68.3146
68.3708
68.3038
68.2801
68.2894
68.2705
68.1323
68.1003
68.2108
68.1466
68.1334
68.1491
68.167
68.111
68.0971
68.2159
68.2345
68.1823
68.2556
68.2004
68.2363
68.1721
68.1684
68.1599
68.0761
68.2265
68.163
68.0454
68.2048
68.1443
68.0394
68.1149
68.125
68.0494
68.1216
68.1156
68.1197
68.1029
68.0988
68.1213
67.9224
67.89
67.948
67.9468
67.9278
68.1122
68.1103
68.1076
68.0538
68.0778
68.0604
68.1046
68.055
68.0755
67.6986
67.7682
67.7325
67.7377
67.6876
67.7976
67.7462
67.7972
68.1022
68.0998
67.9102
67.9628
67.9618
67.9317
67.975
67.874
67.8742
67.8833
67.9099
67.9144
67.8454
68.1572
68.1105
68.2927
68.2075
68.2501
68.1907
68.1462
68.1767
68.2341
68.2272
68.1757
68.1509
68.1657
68.2365
68.1875
68.0734
68.0493
68.1242
68.0747
68.065
68.0684
68.0837
68.0414
68.036
68.1783
68.2184
68.1531
68.1893
68.1446
68.1803
68.132
68.1452
68.125
68.0235
68.1758
68.1207
68.0105
68.1426
68.0982
68.0391
68.0937
68.0851
68.0171
68.064
68.0802
68.1158
68.0683
68.0633
68.1082
67.9739
67.9623
67.9691
67.9911
67.9853
68.1065
68.1006
68.0988
68.0561
68.0754
68.057
68.0928
68.0576
68.077
67.7221
67.829
67.7777
67.8167
67.7815
67.8694
67.8302
67.8697
68.0985
68.0977
67.9535
67.9897
68.0006
67.9744
68.0038
67.9463
67.95
67.9583
67.979
67.9784
67.9198
68.0682
68.0318
68.1121
68.0914
68.1135
68.052
68.0447
68.0592
68.0799
68.1007
68.0276
68.0201
68.0418
68.1279
68.0654
68.0301
68.0186
68.0477
68.016
68.0077
68.0141
68.0174
67.9987
67.9823
68.1008
68.1223
68.0935
68.0648
68.0515
68.0586
68.0472
68.09
68.045
68.0017
68.1144
68.0806
68.0018
68.0926
68.0692
68
68.0403
68.0286
67.9939
68.0337
68.0503
68.0997
68.0447
68.0411
68.0928
67.9992
67.9863
67.9826
67.9998
67.9858
68.0936
68.0866
68.0852
68.0593
68.076
68.0506
68.0768
68.0601
68.0725
67.8689
67.9214
67.8917
67.9576
67.9415
67.9738
67.9528
67.9554
68.0929
68.0849
67.9911
68.0152
68.0286
68.0031
68.023
68.0075
67.9997
68.001
68.027
68.0133
68
68.0025
67.9825
68.0043
68.0079
68.0131
67.9683
67.9809
67.9757
67.9741
67.9905
67.9432
67.9428
67.9453
68.0064
67.9549
68.0154
68.0184
67.9935
67.9898
67.9627
67.9898
67.978
67.9889
67.9533
67.9985
67.9908
67.995
67.9412
67.9484
67.9295
67.9495
67.9982
67.9589
68.0091
68.0742
68.0615
68.0225
68.0622
68.0555
67.9895
68.0225
67.9447
68.012
68.0241
68.0376
68.0899
68.0381
68.0406
68.0897
67.9985
67.986
67.9584
68.0027
67.9899
68.0808
68.0761
68.0653
68.0596
68.0673
68.042
68.0552
68.0586
68.0602
67.9867
68.013
67.9979
68.0333
68.0076
68.0368
68.0223
67.9896
68.0782
68.0718
68.0073
68.0255
68.0409
68.0065
68.0235
68.0393
68.0199
68.0124
68.0432
68.0204
68.0398
67.9688
67.9581
67.9421
67.9595
67.946
67.9202
67.9421
67.9217
67.9155
67.9046
67.8884
67.8882
67.8703
67.9106
67.8719
68.0233
68.0271
67.972
67.9929
67.9536
67.9888
67.9692
67.9971
67.9577
67.9028
67.8835
67.909
67.8433
67.8639
67.8329
67.8712
67.9266
67.8947
68.0387
68.0569
68.0501
68.0523
68.0581
68.0499
68.0322
68.0215
67.9039
68.0117
68.0017
68.047
68.0878
68.053
68.0515
68.083
67.9908
67.9916
67.9224
67.9561
67.9804
68.0722
68.0692
68.0453
68.0568
68.0533
68.0364
68.0378
68.0537
68.0455
68.0088
68.0413
68.0245
68.0414
67.996
68.032
68.015
67.9856
68.0652
68.0566
68.0007
68.0176
68.034
67.9939
68.0101
68.0415
68.0151
68.0003
68.0338
68.0062
68.0334
67.9497
67.9436
67.9028
67.9275
67.9018
67.8901
67.9169
67.8866
67.8618
67.8437
67.8495
67.8368
67.8242
67.8392
67.8185
68.0311
68.0338
67.9682
67.9985
67.96
67.9911
67.9677
68.0015
67.9664
67.837
67.784
67.8411
67.7837
67.8251
67.7422
67.8188
67.8614
67.8364
68.0584
68.06
68.0586
68.0542
68.0573
68.0716
67.9529
67.9547
67.8651
67.898
67.905
68.0494
68.0773
68.0469
68.0415
68.0709
67.9215
67.9572
67.8884
67.891
67.9307
68.0657
68.06
68.0302
68.0488
68.0353
68.0342
68.0239
68.0423
68.0248
67.9759
68.0116
67.9963
68.0055
67.9582
67.9899
67.9747
67.954
68.0462
68.0362
67.9854
68.0025
68.0264
67.9782
67.9962
68.0232
67.9946
67.9767
68.0115
67.9836
68.0032
67.9418
67.9405
67.8852
67.9121
67.8787
67.8929
67.9108
67.8837
67.8277
67.8168
67.8617
67.8497
67.8291
67.818
67.8381
68.0364
68.041
67.9662
68.0087
67.9863
67.9933
67.962
68.0278
67.9893
67.8299
67.7368
67.8041
67.8222
67.8461
67.7378
67.793
67.8227
67.8178
68.0448
68.0471
68.0759
68.0295
68.0391
68.0654
67.8715
67.8766
67.8494
67.8622
67.8678
68.0335
68.0631
68.0279
68.029
68.0529
67.8707
67.909
67.8631
67.864
67.8986
68.0528
68.0449
68.0196
68.0352
68.0146
68.0281
68.0182
68.0292
68.0054
67.9396
67.97
67.9521
67.9701
67.9282
67.9532
67.932
67.9292
68.0286
68.0227
67.9714
67.9925
68.0234
67.9661
67.99
68
67.9737
67.9551
67.9905
67.9658
67.9741
67.9375
67.9282
67.9061
67.9125
67.8997
67.9182
67.9137
67.9153
67.8908