/*--------------------------------*- C++ -*----------------------------------*\
| =========                 |                                                 |
| \\      /  F ield         | OpenFOAM: The Open Source CFD Toolbox           |
|  \\    /   O peration     | Version:  5.x                                   |
|   \\  /    A nd           | Web:      www.OpenFOAM.org                      |
|    \\/     M anipulation  |                                                 |
\*---------------------------------------------------------------------------*/
FoamFile
{
    version     2.0;
    format      ascii;
    class       surfaceScalarField;
    location    "10";
    object      phi;
}
// * * * * * * * * * * * * * * * * * * * * * * * * * * * * * * * * * * * * * //

dimensions      [0 3 -1 0 0 0 0];

internalField   nonuniform List<scalar> 
29271
(
-1.41667e-05
-4.15335e-06
8.53627e-06
9.81927e-06
-1.08936e-05
-1.86088e-06
7.20926e-06
5.82153e-06
-2.49723e-05
-5.68313e-06
-2.47711e-06
5.1997e-06
9.5069e-06
1.8426e-05
-5.06689e-05
-3.54877e-05
-1.49652e-06
-3.16406e-06
4.38088e-05
4.70084e-05
-2.58969e-05
-3.81535e-06
-1.59867e-06
1.10038e-05
1.89329e-05
1.37421e-06
-3.57736e-05
-1.23097e-05
-1.13137e-05
3.295e-06
2.3119e-05
3.29831e-05
-5.47979e-05
-1.78242e-05
-2.44002e-06
8.23238e-06
2.59212e-05
4.09085e-05
-4.94096e-05
-3.08562e-05
-4.42498e-06
-5.15831e-07
1.11829e-05
7.40236e-05
-6.08573e-05
-4.33912e-06
1.38046e-06
-7.372e-06
2.65305e-06
6.85349e-05
-2.45675e-05
-3.0962e-06
7.78169e-06
1.03946e-05
9.71697e-06
-3.88613e-06
-1.6875e-06
3.71469e-06
1.94419e-06
-7.6109e-05
-1.73147e-05
-1.48714e-05
1.577e-05
-2.16904e-06
9.46942e-05
-4.40466e-05
-1.37404e-05
2.48186e-06
-4.53466e-06
-7.89011e-06
6.77299e-05
-3.28395e-05
-2.23565e-06
2.78553e-06
8.58508e-07
1.01477e-05
2.12834e-05
-4.00003e-05
-5.34946e-06
1.72263e-06
-4.42813e-06
9.15296e-06
3.89023e-05
-4.43731e-05
-1.20488e-05
-6.13494e-06
1.7584e-05
4.51005e-05
-1.27683e-07
-3.37722e-05
-1.39249e-06
5.4646e-06
-3.46035e-06
2.27295e-05
1.04309e-05
-4.36827e-05
-2.08816e-06
9.75388e-06
1.56318e-05
-4.36333e-06
2.47485e-05
-6.93792e-05
5.07501e-07
-1.85783e-05
9.59185e-06
-2.59316e-05
0.00010379
-6.28485e-05
-4.46746e-06
4.88826e-06
6.43941e-05
-6.25883e-06
4.29242e-06
-1.48936e-05
-1.50693e-06
9.68831e-07
1.54676e-05
-1.71964e-05
-1.07989e-06
-2.89602e-07
1.50779e-05
3.74459e-06
-4.64837e-05
-8.04775e-07
4.99514e-06
-4.79919e-06
2.00221e-05
2.70705e-05
-8.00651e-06
6.47251e-06
-3.44746e-06
5.16282e-06
-5.41646e-06
1.25824e-06
1.90211e-06
2.3887e-06
-3.76076e-06
2.75462e-06
-6.55987e-07
1.822e-06
-5.68621e-07
-1.5906e-07
-2.17028e-05
-1.65575e-06
-2.31032e-06
2.63965e-05
-6.54767e-06
-3.37672e-05
3.53936e-06
-2.15284e-06
3.40968e-06
3.55186e-05
-1.17707e-05
-1.11642e-06
-4.91923e-07
9.43112e-07
8.02584e-06
4.41005e-06
1.07655e-07
-5.28322e-06
-2.78061e-05
1.27237e-05
1.25961e-06
1.89984e-05
-2.7087e-05
3.10197e-06
0.000232945
-3.76727e-05
-6.3536e-05
-7.47022e-05
-8.78641e-05
2.99101e-06
1.87578e-06
9.82879e-06
8.53688e-06
-1.12233e-06
-1.98853e-06
2.16353e-05
1.30579e-05
2.49108e-07
-3.56365e-06
0.000180028
-8.59375e-05
-7.4783e-05
-6.09374e-05
-3.57093e-05
-1.85217e-06
5.05919e-06
1.83644e-05
3.19958e-05
1.68099e-06
2.61699e-05
0.000200791
1.76083e-06
1.79485e-06
1.55458e-05
2.11409e-06
1.27117e-06
2.50145e-06
2.28664e-06
-8.20387e-05
-6.10836e-05
-4.34448e-05
-6.9101e-05
-2.73777e-06
5.14182e-07
-5.7639e-08
3.98193e-06
-1.87879e-06
-3.71666e-07
-3.58115e-07
2.60213e-06
5.48855e-06
-9.79668e-05
-1.44427e-05
3.06796e-06
2.19667e-05
8.18863e-05
-2.23162e-05
-2.21212e-06
0.000219784
-8.74061e-05
-5.74455e-05
-2.98885e-05
-3.56741e-05
-1.94285e-06
5.00685e-06
4.0698e-06
1.11263e-05
1.48468e-05
3.28826e-05
9.46816e-05
-1.41582e-05
-1.83931e-05
-6.05108e-05
-7.52288e-05
-4.50104e-06
1.80819e-05
0.000136199
-1.33733e-05
-1.14314e-06
-4.11484e-06
1.1951e-05
2.8007e-05
1.88316e-05
-3.53697e-05
-3.65665e-05
-4.7285e-05
-2.97007e-05
-3.2704e-05
-1.68011e-06
-6.37396e-06
1.6375e-05
1.9882e-05
-1.72461e-05
-4.62995e-07
1.57481e-06
6.13802e-07
2.42102e-05
-8.68972e-06
3.27476e-05
5.12446e-07
8.17563e-05
1.77317e-06
2.97674e-06
1.13783e-05
3.39924e-06
-1.24782e-07
1.35689e-06
1.26115e-06
-1.47975e-05
-6.61389e-05
-2.37743e-05
-3.45386e-05
1.67783e-05
-1.50561e-07
0.000272146
3.19151e-05
3.31574e-05
3.66974e-05
1.27879e-06
8.63541e-07
1.81692e-06
-0.000120055
-0.000112357
-4.27704e-05
-5.36906e-05
-9.03468e-05
-2.07605e-07
6.54635e-06
0.000118868
-1.41349e-05
-1.68666e-05
1.29325e-05
1.8049e-05
-1.62052e-05
3.40538e-06
-1.55241e-06
1.48188e-05
-8.60046e-06
-3.07984e-07
4.1393e-06
-7.99843e-07
5.41843e-06
-6.54674e-06
2.18943e-06
-5.60515e-06
9.93637e-06
-1.75278e-06
-1.07976e-06
-4.41882e-06
7.20256e-06
-2.10136e-07
3.88183e-06
-4.92796e-06
1.24156e-06
9.65814e-06
-6.28941e-06
-3.63401e-05
-9.07929e-06
-1.10004e-05
5.3051e-05
2.54562e-05
-5.2499e-05
2.64163e-05
-1.69741e-05
-3.34495e-05
5.10502e-05
-7.44288e-06
1.40705e-06
6.77989e-07
-8.05757e-06
1.38243e-05
-4.08865e-07
5.84982e-06
2.51807e-06
-2.44859e-05
-9.78622e-06
-2.3082e-06
2.82125e-05
2.75548e-06
1.67162e-05
0.000153186
9.47148e-06
1.24339e-05
7.4832e-06
1.51767e-05
6.10838e-06
4.69435e-06
2.55954e-06
2.36007e-06
8.50578e-06
9.90907e-06
0.000110859
1.89539e-05
1.83264e-05
1.04611e-05
5.768e-06
1.72397e-06
1.95223e-05
0.000167244
4.69817e-06
1.51935e-07
5.10806e-06
2.21006e-06
1.93831e-06
2.58748e-06
4.11308e-06
-5.26093e-06
-1.40554e-07
1.70967e-06
5.51436e-06
-2.68805e-06
6.74272e-07
-8.68612e-07
2.83161e-06
6.66743e-06
-6.721e-05
-1.19944e-06
-1.36628e-05
1.55834e-05
5.98214e-05
1.28793e-05
2.50834e-05
0.000192106
-4.34926e-06
4.16161e-06
-7.46018e-07
7.36524e-06
1.30916e-05
1.45996e-05
8.97787e-05
-4.03851e-07
9.68714e-06
0.000151701
-5.90102e-07
-1.41756e-06
-2.30872e-07
2.44445e-06
8.35012e-06
-7.27405e-07
-1.53603e-05
-1.72138e-06
-3.76284e-06
5.64131e-06
1.47993e-05
-4.2798e-05
-3.55702e-06
-4.31641e-06
2.29081e-06
6.47053e-05
-1.63246e-05
1.33407e-05
-1.54497e-06
9.79329e-05
6.79396e-07
-1.08245e-06
1.68874e-06
-1.04327e-06
-1.85147e-06
-7.46289e-07
-5.33521e-07
1.90755e-05
-2.7206e-07
0.00021256
2.54852e-05
1.98774e-05
2.18665e-05
4.97807e-07
3.66431e-08
9.60185e-07
-0.000155011
1.82003e-05
1.25569e-05
0.000153017
-2.9577e-05
-9.33893e-06
-5.00884e-06
4.3817e-05
-1.32602e-05
4.74981e-07
4.31996e-07
1.06652e-05
-5.31438e-06
-2.37713e-06
2.56272e-06
-9.73941e-07
5.83068e-06
-1.40709e-05
-1.91756e-06
-2.49755e-06
1.84842e-05
-1.5768e-05
-7.94398e-06
2.00513e-06
2.16881e-05
-8.30277e-07
-4.43975e-07
6.99716e-07
5.56069e-07
8.17524e-06
-1.05351e-05
-7.30789e-05
3.70241e-06
-4.21463e-06
7.5951e-05
6.81907e-06
-4.50473e-05
-2.59413e-06
4.57967e-06
-7.80705e-06
4.40498e-05
-2.22079e-05
1.31899e-06
2.85239e-06
-6.47642e-06
2.87717e-05
-4.25882e-06
-3.91925e-06
-1.3302e-06
-2.76518e-05
1.55339e-06
8.72435e-06
2.26235e-05
2.68789e-06
6.0624e-07
0.00013542
-1.56035e-07
2.8944e-07
-5.56695e-07
9.92947e-07
4.62106e-07
3.85397e-06
2.66785e-06
6.918e-06
4.62966e-06
9.1577e-06
9.57146e-05
5.79708e-07
7.36561e-07
2.12403e-06
6.04428e-07
1.15127e-06
1.19062e-05
0.000144384
3.08971e-06
6.3037e-07
3.80139e-06
1.29268e-06
1.33795e-06
1.60847e-06
2.6712e-06
-5.44203e-06
-1.97301e-08
2.53607e-06
4.07077e-06
-3.75915e-06
-5.17853e-08
-2.09048e-06
5.87813e-06
5.48853e-06
-5.43226e-05
3.06404e-06
-6.35186e-06
-1.34146e-05
6.55365e-05
2.1281e-05
9.36832e-06
0.000155064
8.53942e-07
-1.59678e-06
8.93182e-06
-1.18921e-06
6.76593e-07
-6.34015e-08
0.000119604
-5.05295e-06
1.16259e-06
0.000210799
-9.77419e-06
-5.34172e-06
-8.47533e-06
-6.66867e-06
1.04192e-07
-1.24683e-05
-1.41242e-05
-1.09137e-06
-1.26859e-06
-2.58798e-06
1.40192e-05
-9.98677e-05
-3.42332e-06
-1.45584e-06
1.08086e-06
0.000113352
-9.68636e-06
2.67283e-05
-1.05066e-06
0.000136128
-8.15826e-06
-1.56068e-05
-1.72124e-05
-1.51641e-05
1.51724e-07
3.47292e-07
1.13773e-06
1.18378e-05
-1.86405e-06
0.000192886
1.71887e-05
1.28029e-05
1.11918e-05
-1.31804e-06
-2.21049e-06
-1.2907e-06
-0.000157519
1.07288e-05
3.77821e-06
0.000156012
-5.52984e-05
4.86403e-06
-8.76432e-06
5.92074e-05
-8.27812e-06
-1.9256e-06
3.92597e-06
5.20004e-06
-7.5338e-06
-1.83962e-06
1.23886e-06
-7.1649e-07
6.98701e-06
-2.42939e-05
-3.54864e-06
-7.90972e-07
2.8619e-05
-2.46786e-05
-7.7403e-06
7.12561e-06
2.52779e-05
-8.60228e-07
-2.12204e-06
7.49833e-07
2.27821e-06
2.33806e-06
3.32723e-06
-6.08592e-05
7.74514e-06
1.21025e-05
3.53463e-05
-3.78424e-07
-4.56287e-05
-4.50289e-06
3.57832e-06
1.98501e-06
4.49467e-05
-3.39208e-05
-8.84499e-07
5.92438e-06
-5.60099e-06
3.9721e-05
-5.23905e-06
-2.84482e-07
-3.13537e-07
-2.33284e-05
-2.72188e-06
-3.21616e-06
2.98644e-05
-4.12539e-06
5.37575e-06
0.00018702
-1.06489e-05
-8.14231e-06
-1.55922e-05
-1.19896e-05
2.26563e-08
1.3856e-06
-5.94877e-06
-1.93658e-06
-9.36748e-06
1.03814e-05
0.000113191
-4.8943e-06
-7.23866e-06
-5.16037e-06
-5.32194e-06
2.69761e-06
-5.85706e-06
0.000124261
1.14516e-06
-2.35167e-07
1.21082e-06
6.84217e-08
2.22083e-06
6.65154e-06
2.85357e-06
-4.66366e-06
-1.36922e-06
-1.89239e-08
8.71541e-06
-8.59125e-06
3.11845e-06
-6.35144e-06
1.18258e-05
5.31145e-06
-7.86194e-05
1.28184e-05
-4.66369e-06
-1.8674e-05
8.38274e-05
1.03883e-05
-3.45116e-06
0.000147076
5.03726e-06
4.23679e-07
1.05812e-06
-9.26926e-08
-9.96584e-06
-1.10179e-05
0.000161358
-3.42391e-06
-8.29796e-06
0.000244655
-2.12838e-06
-3.04064e-06
-6.93661e-07
-1.35797e-05
-5.20709e-06
-1.33081e-05
-1.46909e-05
1.00255e-06
-1.78096e-06
-3.65675e-06
1.57021e-05
-0.000103352
3.35026e-06
3.11133e-07
-2.01574e-06
8.37675e-05
1.7939e-05
2.11283e-05
4.82609e-07
0.000142428
-9.62992e-06
-6.63145e-06
-7.21193e-06
-5.56584e-06
-6.56568e-07
8.20488e-08
-1.74803e-06
6.79737e-06
-2.69452e-06
0.000184231
9.42939e-06
7.7799e-06
5.44441e-06
-2.27147e-06
-2.96367e-06
-2.75529e-06
-0.000162707
6.349e-06
-4.01828e-06
0.000158876
-5.93264e-05
5.50053e-06
-6.17484e-06
6.0003e-05
-3.27096e-06
-1.59367e-06
2.08993e-06
3.20818e-06
-6.14837e-06
-1.65849e-07
-1.31237e-06
-5.13217e-08
4.9834e-06
-3.28094e-05
-4.25613e-06
2.17383e-06
3.48764e-05
-2.51576e-05
-4.10557e-06
4.1779e-06
2.50775e-05
-4.27107e-06
-5.07541e-07
1.43957e-06
3.33967e-06
5.41534e-07
4.80038e-09
-1.85295e-05
7.35385e-07
3.1269e-06
1.41209e-05
-1.3326e-06
-4.34553e-05
-2.9736e-06
3.42204e-06
2.72391e-06
4.16156e-05
-4.27107e-05
-3.03515e-06
4.246e-06
-1.09268e-06
4.45797e-05
-1.9872e-06
2.52666e-06
1.55136e-07
-3.71597e-05
6.10745e-07
-9.31021e-06
4.31773e-05
1.73633e-06
1.35586e-05
0.000196639
-6.75642e-06
-7.78217e-06
-9.31437e-07
-3.13994e-06
-3.33526e-06
-2.2204e-06
-1.24343e-06
4.95295e-07
-2.56792e-06
-2.94089e-06
0.000126186
-2.7752e-06
-1.26596e-06
-1.29478e-06
-4.1431e-07
3.72204e-06
-1.75602e-05
0.000131972
6.4438e-07
1.281e-07
1.01354e-06
-2.1675e-06
1.40881e-06
1.36365e-06
1.16823e-06
-1.43748e-05
-3.16991e-06
3.24781e-06
2.04137e-07
1.78148e-05
5.23302e-09
-7.95136e-09
3.40449e-08
-3.41941e-08
-1.37018e-05
9.9284e-07
-1.29433e-06
1.40038e-05
3.2096e-06
-8.53962e-05
1.33236e-05
1.06351e-06
-1.58407e-05
8.36402e-05
-4.10875e-06
1.99463e-06
0.000162226
-1.66213e-06
-2.61691e-07
-7.72575e-07
3.21931e-06
-1.65386e-05
-2.45844e-05
0.000195431
-1.1386e-06
-1.12801e-05
0.000262262
7.3671e-07
1.28891e-06
3.47948e-07
-1.37599e-05
-9.88914e-06
-1.80112e-05
-1.84495e-05
-3.84955e-06
9.04672e-07
1.27915e-06
1.89767e-05
-1.02109e-08
2.84025e-07
-1.23894e-08
-1.61251e-08
-2.59051e-07
-6.13131e-05
8.53414e-07
5.28363e-06
-9.97294e-07
4.52706e-05
1.09027e-05
-4.77541e-06
-2.29829e-07
0.000169452
-8.13239e-06
-3.88407e-06
-6.04502e-06
-2.01828e-06
-1.01809e-06
7.80984e-07
2.93241e-07
1.22793e-07
-3.37474e-06
0.000170999
-3.95314e-11
1.07207e-06
-3.70151e-06
-4.04138e-06
-2.67759e-06
-3.5278e-06
-0.000158465
7.72186e-06
-6.64066e-06
0.000146227
-6.70809e-05
1.47668e-05
-1.49384e-05
6.72501e-05
-5.14314e-06
9.65509e-07
-5.04054e-06
8.97801e-06
-3.79877e-06
5.04157e-06
-7.82218e-06
6.43341e-07
2.56131e-06
-3.10421e-05
8.04662e-07
1.14323e-05
1.88106e-05
-2.49519e-05
-2.86192e-06
2.99075e-06
2.48231e-05
-3.84427e-06
-1.95737e-07
6.1791e-09
4.03383e-06
-7.85891e-07
-1.42088e-06
-1.24015e-05
2.10072e-06
5.32051e-07
1.19755e-05
-2.05812e-06
-4.06119e-05
-1.3044e-06
5.236e-07
3.33347e-06
4.01174e-05
-4.56058e-05
-3.4725e-06
2.18993e-06
1.25425e-06
4.4897e-05
7.37119e-07
3.85303e-06
2.47722e-06
-4.71403e-05
-8.28537e-07
-7.5211e-06
4.91597e-05
-2.00196e-06
8.02749e-06
0.000196804
-7.30384e-07
-3.10937e-06
-1.23441e-07
-1.17644e-06
-8.8387e-07
-1.2439e-06
1.25943e-07
9.5071e-07
-8.42222e-06
-1.70341e-05
0.00015217
-1.51873e-06
-8.34096e-07
-3.74499e-07
1.98099e-07
1.06248e-07
-4.79062e-05
0.000165061
7.92561e-07
4.67811e-07
1.90994e-06
1.11761e-06
6.13349e-07
7.20582e-08
1.31517e-06
-1.7916e-05
-8.13561e-07
1.51039e-06
3.5235e-06
1.3802e-05
-6.76539e-07
-4.24592e-06
3.85935e-06
-5.03271e-06
2.97559e-06
3.12024e-06
-1.38948e-05
-9.60615e-07
1.05184e-06
1.38036e-05
2.14315e-06
-8.14631e-05
9.74414e-06
1.33931e-06
-1.0897e-05
7.91335e-05
-2.14221e-05
4.01499e-06
0.000174904
-1.02746e-06
4.70844e-06
1.72264e-06
7.35227e-06
-1.84521e-05
-1.69458e-05
0.000192373
3.46445e-06
-1.63348e-05
0.000258024
4.65968e-06
3.70423e-06
4.9977e-06
-2.09546e-05
-1.8327e-05
-2.33303e-05
-2.46151e-05
3.7627e-07
5.59761e-06
-1.05353e-05
3.26411e-05
-5.31186e-07
-1.33478e-06
-2.70949e-06
-9.61811e-07
6.46631e-07
4.89063e-06
-3.84582e-05
-2.04687e-06
1.0919e-06
4.15827e-07
3.41545e-05
4.8429e-06
-3.55499e-05
2.82566e-06
0.000189038
-2.96852e-06
2.26309e-06
5.61844e-07
4.16175e-06
2.72856e-06
5.57336e-06
4.8326e-06
-7.2912e-06
7.30947e-07
0.000152601
-8.60956e-06
-7.27107e-06
-1.31372e-05
-1.12545e-07
1.14683e-06
4.4578e-07
-0.000137866
8.10953e-06
-1.34646e-05
0.000119595
-5.99524e-05
1.00187e-05
-1.96968e-05
1.57275e-05
5.39036e-05
-4.91441e-07
-2.16894e-06
-9.24147e-07
3.5611e-06
-1.30564e-05
3.65081e-06
-5.44558e-06
1.76722e-05
-1.73188e-06
3.9396e-06
-3.83056e-06
7.90823e-07
1.56296e-06
-6.44013e-06
1.91734e-07
4.55126e-06
1.73998e-06
-2.4639e-05
-1.68433e-06
1.97492e-06
2.43484e-05
-4.09765e-06
8.08117e-07
-1.2269e-06
4.51643e-06
-7.66526e-07
-2.03883e-06
-1.28665e-05
1.47501e-06
4.19972e-07
1.37769e-05
-1.62234e-06
-3.99785e-05
-6.60903e-08
-1.04453e-06
3.06238e-06
3.96491e-05
-4.43509e-05
-2.67081e-06
-1.06471e-07
9.98751e-07
4.32291e-05
2.90036e-06
2.97498e-06
2.17118e-06
-5.03396e-05
-1.46228e-06
-4.32511e-06
5.09808e-05
-8.14814e-06
8.30011e-06
0.000199153
-1.06562e-06
-2.52853e-06
-1.1743e-06
-1.47406e-06
1.26784e-06
-7.58196e-07
2.12352e-06
1.10875e-06
-1.52357e-05
-1.31809e-05
0.000174327
-1.28173e-06
-1.03708e-06
-2.72074e-08
4.56781e-07
-1.79639e-06
-4.30281e-05
0.000186379
1.5259e-06
2.17721e-06
3.51281e-06
2.46029e-06
8.03726e-07
-3.48165e-06
1.27275e-06
-1.57673e-05
-3.37353e-06
-3.57949e-06
3.07363e-06
1.78503e-05
-2.24057e-06
3.64941e-06
6.16121e-06
-3.39571e-06
-4.36081e-06
1.86472e-07
-1.3753e-05
-1.42075e-06
1.41112e-06
1.37626e-05
1.32956e-06
-7.80398e-05
6.58489e-06
6.6962e-07
-7.04239e-06
7.64982e-05
-1.77179e-05
9.00492e-06
0.000179548
-7.53841e-07
5.27319e-06
1.37071e-06
6.47901e-06
-1.2944e-05
-4.87669e-06
0.000179295
3.58636e-06
-2.04928e-05
0.000243175
4.77591e-06
3.80454e-06
3.79511e-06
-1.69808e-05
-8.64785e-06
-1.09632e-05
-3.80138e-05
5.16878e-06
6.53833e-06
-1.26655e-05
4.25586e-05
-9.65265e-06
4.48871e-06
-6.54496e-06
2.438e-06
-4.66611e-06
1.3937e-05
-3.18485e-05
4.06473e-07
-1.56573e-06
1.994e-06
2.93779e-05
1.63581e-06
-3.09566e-05
5.648e-06
0.000195403
1.95676e-07
3.87407e-06
2.03374e-06
3.87808e-06
6.06627e-06
5.25375e-06
6.64743e-06
-9.9903e-06
1.88521e-06
0.000134037
-7.71835e-06
-5.06906e-06
-6.07388e-06
2.09516e-06
3.15369e-06
4.44888e-06
-0.00010339
2.90519e-06
-9.49615e-06
7.94979e-05
-4.32651e-05
1.16453e-05
-1.4155e-05
9.81242e-06
3.59202e-05
-9.10928e-06
4.95078e-06
-1.03845e-05
4.8615e-06
9.68196e-06
-2.21416e-05
7.59011e-07
1.44721e-06
2.55833e-05
-1.74304e-06
-6.85762e-08
-1.64947e-06
-8.76375e-07
6.22267e-06
-2.26207e-06
-4.4778e-06
1.60582e-06
4.9765e-06
-2.39674e-05
-4.83392e-07
9.33704e-07
2.35171e-05
-5.12752e-06
1.01918e-06
-1.61354e-06
5.72188e-06
-7.64686e-07
-1.33188e-06
-1.47714e-05
6.3003e-07
5.33606e-07
1.57043e-05
-1.21788e-06
-3.93484e-05
1.33228e-06
-2.52119e-06
3.02856e-06
3.87267e-05
-4.26303e-05
-2.18295e-06
-1.58953e-06
6.49351e-07
4.20529e-05
3.70059e-06
2.14729e-06
1.80699e-06
-5.132e-05
-2.32376e-06
-1.79862e-06
5.14881e-05
-1.07612e-05
1.22931e-05
0.000200264
-1.9714e-06
-2.91955e-06
-2.00417e-06
-1.79966e-06
2.56213e-06
-4.48727e-07
2.44619e-06
1.49214e-06
-1.97081e-05
-4.44881e-06
0.000193848
-2.28761e-06
-1.90444e-06
-1.12069e-06
-8.12016e-07
-4.02666e-06
-3.04144e-05
0.00020269
1.73711e-06
2.3731e-06
3.09231e-06
1.39901e-06
8.4458e-07
-9.37102e-06
-1.65311e-06
-2.58688e-05
2.65085e-06
-5.5851e-06
-2.10322e-07
2.49867e-05
5.10424e-06
4.60252e-06
4.88282e-07
-8.50144e-06
-1.6936e-06
-1.37641e-05
-1.8026e-06
1.78567e-06
1.3781e-05
9.77909e-07
-7.60655e-05
3.96823e-06
4.64452e-07
-4.72678e-06
7.53817e-05
-1.222e-05
1.13857e-05
0.000185795
-1.24928e-06
3.54177e-06
4.78212e-07
4.10948e-06
-1.62259e-05
-6.28837e-06
0.00018514
3.44849e-07
-7.01335e-06
0.000234923
1.25517e-06
-4.45253e-06
-8.00505e-06
-6.27314e-06
-5.91238e-06
-8.33177e-06
-4.65788e-05
5.07101e-06
1.615e-06
-6.94519e-06
4.71829e-05
-1.60829e-05
8.08998e-06
-1.34922e-06
3.26176e-06
-6.19675e-06
1.22771e-05
-2.85041e-05
-4.18551e-07
-1.34921e-06
1.64505e-06
2.80401e-05
5.86738e-07
-1.40449e-05
4.6014e-06
0.000194942
1.88046e-07
2.48689e-06
1.25076e-06
1.89337e-06
5.97479e-06
3.75684e-06
5.73927e-06
-2.38786e-06
1.00692e-06
0.000125045
-2.25474e-06
-1.39842e-06
-2.57622e-06
1.34391e-06
-1.40069e-06
-3.6742e-06
-6.39506e-05
2.25632e-07
-4.16664e-06
5.84904e-05
-2.77376e-05
-3.5038e-07
-2.96369e-06
3.10515e-05
-2.86724e-05
-3.7059e-07
2.98114e-06
3.06621e-05
-1.15526e-05
-8.67287e-07
6.07332e-07
-1.14745e-06
1.39669e-05
-5.36456e-06
4.72801e-06
-2.18842e-06
2.8255e-06
-2.29648e-05
3.20465e-07
3.72456e-07
2.22719e-05
-6.32271e-06
8.06027e-07
-1.48534e-06
7.00202e-06
-1.63209e-06
5.48573e-08
-1.68116e-05
-4.82815e-07
1.18046e-06
1.76912e-05
-1.61985e-06
-3.82858e-05
1.73811e-06
-2.74744e-06
3.24093e-06
3.7674e-05
-4.20183e-05
-2.07885e-06
-1.49771e-06
2.49736e-07
4.21336e-05
3.2115e-06
1.66554e-06
1.68812e-06
-5.11704e-05
-1.77617e-06
-6.10332e-07
5.02033e-05
-1.35052e-05
1.6947e-05
0.000202714
-2.7813e-06
-3.33262e-06
-2.87131e-06
-2.32108e-06
2.10224e-06
-2.24751e-07
1.86233e-06
1.6739e-06
-2.05689e-05
-1.73872e-06
0.000211712
-3.00993e-06
-2.86748e-06
-1.722e-06
-1.46295e-06
-9.41858e-06
-2.30236e-05
0.000222068
1.2596e-06
8.73825e-07
3.15642e-06
1.76959e-06
-4.61405e-06
-6.06814e-06
-3.88163e-06
-2.86886e-05
-1.56551e-06
-5.92494e-06
2.67605e-05
-1.37811e-05
-2.14556e-06
2.20531e-06
1.37214e-05
3.47561e-07
-7.51134e-05
2.36135e-06
3.95481e-07
-2.71527e-06
7.47242e-05
-9.93529e-06
1.35237e-05
0.000195592
-1.59628e-06
1.77998e-06
4.21519e-07
2.95656e-06
-1.7598e-05
-5.70269e-06
0.000196767
-7.53095e-06
-7.06159e-06
0.000249079
-8.50612e-06
-6.87433e-06
-6.19346e-06
-7.87796e-06
-4.57348e-06
-6.15982e-06
-6.39819e-05
3.02213e-06
-8.97603e-06
-2.89744e-07
6.26946e-05
-2.83701e-05
-1.43543e-06
-4.61961e-07
9.27937e-07
2.91689e-05
1.70642e-07
-1.20814e-05
3.48001e-06
0.00019857
1.28851e-08
1.32208e-06
1.16815e-06
1.22571e-06
5.96098e-06
3.05962e-06
5.74706e-06
-2.6422e-06
-5.25911e-07
0.000118794
-1.62756e-06
-9.8259e-07
-1.47527e-06
-2.10409e-06
-3.3661e-07
-1.83915e-06
-5.65926e-05
-1.67651e-07
-4.35195e-06
5.14084e-05
-3.06331e-05
5.73081e-06
-3.47382e-07
2.52496e-05
-3.17607e-05
-1.38778e-06
4.21917e-06
3.24093e-05
-1.44204e-05
-3.51792e-06
4.10538e-06
-2.98491e-06
1.62919e-05
-2.23866e-06
1.08186e-06
-2.11881e-06
3.2756e-06
-2.15183e-05
1.03575e-06
5.28441e-08
2.04297e-05
-7.67101e-06
3.98746e-07
-9.782e-07
8.25047e-06
-2.17556e-06
1.16897e-06
-1.83541e-05
-1.25458e-06
1.86409e-06
1.87511e-05
-2.19456e-06
-3.71466e-05
1.66912e-06
-2.28871e-06
3.72517e-06
3.62356e-05
-4.27127e-05
-8.14442e-07
-1.28264e-06
-2.19437e-07
4.2875e-05
2.15424e-06
1.05363e-06
2.01784e-06
-4.83744e-05
-1.10365e-06
1.78218e-07
4.62284e-05
-1.40299e-05
1.82674e-05
0.000206501
-3.52414e-06
-3.86535e-06
-3.68511e-06
-3.03024e-06
2.01252e-06
-6.93738e-08
2.25489e-06
1.88233e-06
-1.54284e-05
-1.38152e-07
0.000223589
-3.5341e-06
-3.07997e-06
-2.22696e-06
-1.49906e-06
-4.44508e-06
-1.58579e-05
0.000221195
1.25288e-06
1.34581e-06
2.92044e-06
1.56481e-06
2.75591e-07
-3.26133e-06
1.64911e-06
-2.66089e-05
-2.10865e-06
-2.11384e-06
2.63863e-05
-1.36862e-05
-2.31646e-06
2.28468e-06
1.3718e-05
2.61036e-07
-7.4613e-05
1.1018e-06
6.93073e-08
-1.08961e-06
7.42705e-05
-9.47285e-06
1.40618e-05
0.000206204
-1.32294e-06
1.24056e-06
5.64213e-07
2.58476e-06
-1.48454e-05
-3.11019e-06
0.000205111
-2.96946e-06
-4.07037e-06
0.000245425
-4.60089e-06
-1.6876e-06
-3.72074e-06
-4.31688e-06
-2.05411e-06
-3.62891e-06
-5.83227e-05
1.73433e-06
-1.7774e-06
-5.2844e-07
5.59248e-05
-3.0832e-05
-2.00739e-06
-2.49885e-08
6.88428e-07
3.24581e-05
-2.82149e-07
-9.81362e-06
3.15787e-06
0.000203279
-2.78188e-07
9.28392e-07
1.02778e-06
1.01486e-06
5.23853e-06
3.09554e-06
4.98208e-06
-1.38246e-06
5.76704e-07
0.000108153
-5.38181e-07
6.12108e-08
1.06169e-07
-9.11805e-07
8.36658e-07
-1.03042e-06
-4.90545e-05
1.16008e-06
-2.49451e-06
4.49361e-05
-2.40494e-05
3.11461e-06
-2.44315e-06
2.33779e-05
-3.29995e-05
-2.26308e-06
4.50908e-06
3.39114e-05
-1.83514e-05
-4.26349e-06
4.28912e-06
-2.47933e-06
2.13818e-05
-4.19706e-06
2.98605e-07
-1.60954e-06
5.50799e-06
-1.87845e-05
1.21253e-06
4.94369e-07
1.70776e-05
-8.67103e-06
2.79595e-07
-4.81805e-07
8.87324e-06
-2.07148e-06
1.24207e-06
-1.90647e-05
-1.69498e-06
2.48423e-06
1.91049e-05
-2.61492e-06
-3.54239e-05
1.41359e-06
-1.41449e-06
3.91433e-06
3.41254e-05
-4.28359e-05
6.65028e-07
-1.10433e-06
-4.48138e-07
4.22188e-05
1.50458e-06
1.76976e-07
2.12019e-06
-4.41835e-05
-1.50476e-06
8.77959e-07
4.25132e-05
-1.32788e-05
1.83462e-05
0.000210854
-4.41835e-06
-4.79178e-06
-4.49563e-06
-3.87152e-06
2.72739e-06
8.1659e-08
3.37282e-06
1.97541e-06
-1.08375e-05
2.24381e-06
0.000230329
-4.0303e-06
-3.143e-06
-2.66437e-06
-1.58693e-06
-2.498e-06
-1.02508e-05
0.000216698
8.767e-07
7.21345e-07
2.47057e-06
6.61676e-07
1.86044e-06
-2.2651e-06
2.08306e-06
-2.62778e-05
-2.18367e-06
-3.69585e-07
2.6333e-05
-1.37824e-05
-2.12285e-06
2.0521e-06
1.38532e-05
4.39261e-07
-7.43181e-05
-2.15301e-08
-1.78166e-07
9.99476e-08
7.39786e-05
-8.35886e-06
1.45791e-05
0.000216032
-1.24008e-06
8.20996e-07
4.87978e-07
2.22975e-06
-1.25085e-05
-7.59882e-07
0.000212265
-2.05314e-06
-2.8837e-06
0.000242844
-3.57667e-06
-1.8066e-06
-3.15326e-06
-2.97522e-06
-1.26196e-06
-2.46856e-06
-5.51482e-05
6.99242e-07
-1.84085e-06
2.31243e-07
5.40055e-05
-3.45936e-05
-2.33632e-06
1.45908e-07
9.41229e-07
3.64382e-05
-5.95408e-07
-5.53289e-06
2.97698e-06
0.000207571
-4.86004e-07
7.3803e-07
7.66319e-07
6.97056e-07
4.32712e-06
2.77285e-06
4.02801e-06
-5.87572e-07
8.51126e-07
0.000100524
9.15012e-07
5.0861e-07
8.29541e-07
-5.37273e-07
5.88354e-07
-1.23164e-06
-4.29006e-05
1.95804e-06
-1.20082e-06
3.86721e-05
-2.29624e-05
2.92473e-06
-2.96572e-06
2.30034e-05
-3.49979e-05
-2.66713e-06
4.74856e-06
3.58935e-05
-2.43895e-05
-4.54512e-06
4.60753e-06
-2.19984e-06
2.73781e-05
-6.85907e-06
4.79394e-07
-1.65899e-06
8.03867e-06
-1.58636e-05
8.66077e-07
3.83197e-07
1.46143e-05
-8.87808e-06
4.75202e-07
-3.29982e-07
8.73286e-06
-1.81e-06
5.20632e-07
-1.90054e-05
-1.13404e-06
2.89889e-06
1.85299e-05
-2.65641e-06
-3.27434e-05
4.88071e-07
-2.42349e-07
3.9336e-06
3.12205e-05
-4.14687e-05
1.15944e-06
-1.88636e-07
-4.90584e-07
4.01017e-05
8.86801e-07
-4.4302e-08
2.12105e-06
-4.1318e-05
-2.45479e-06
1.23863e-06
4.04574e-05
-1.29023e-05
1.88564e-05
0.00021578
-5.05898e-06
-5.52143e-06
-4.7214e-06
-4.76487e-06
3.39924e-06
2.32733e-07
3.52552e-06
2.02912e-06
-1.02486e-05
6.04126e-06
0.000235015
-4.59473e-06
-3.46756e-06
-3.32882e-06
-1.99044e-06
-2.33456e-06
-4.91873e-06
0.000209527
3.5421e-07
-2.08575e-08
1.89176e-06
1.55816e-07
1.98386e-06
-2.4544e-06
2.26497e-06
-2.59044e-05
-1.26926e-06
3.79863e-08
2.48012e-05
-1.39317e-05
-1.86391e-06
1.73939e-06
1.40562e-05
5.65307e-07
-7.38948e-05
-1.35258e-06
1.37182e-07
1.19212e-06
7.33527e-05
-6.80329e-06
1.56016e-05
0.000225383
-1.4762e-06
3.44208e-07
8.62553e-08
1.75225e-06
-1.02359e-05
1.79337e-06
0.000219945
-2.06418e-06
-1.60182e-06
0.000241651
-2.8909e-06
-1.92204e-06
-2.75273e-06
-1.76165e-06
2.36518e-07
-1.20475e-06
-5.31118e-05
-2.33275e-08
-1.57003e-06
3.61642e-07
5.22794e-05
-3.8414e-05
-2.39636e-06
3.76986e-07
1.24486e-06
4.00941e-05
-9.05587e-07
-9.50817e-07
2.70306e-06
0.000212285
-8.8808e-07
3.00861e-07
4.46651e-07
1.73415e-07
3.45879e-06
2.535e-06
3.10848e-06
1.63082e-07
3.66445e-07
9.90181e-05
1.48549e-06
1.13775e-06
1.39607e-06
-8.11842e-07
3.18148e-09
-1.39218e-06
-3.69504e-05
2.36162e-06
-1.525e-06
3.4675e-05
-2.32614e-05
2.98959e-06
-3.30886e-06
2.35806e-05
-3.6744e-05
-3.12782e-06
5.10576e-06
3.74692e-05
-2.96711e-05
-4.86759e-06
5.44967e-06
-2.22317e-06
3.16787e-05
-8.61486e-06
2.27868e-06
-2.72317e-06
9.05936e-06
-1.23636e-05
1.06002e-07
2.80255e-06
9.455e-06
-8.50824e-06
3.56193e-07
-1.52739e-07
8.30479e-06
-1.72491e-06
-4.51509e-08
-1.79835e-05
-5.48792e-08
2.63149e-06
1.7177e-05
-3.78662e-06
-3.03361e-05
-6.00681e-07
3.08991e-07
4.53166e-06
2.98828e-05
-3.85013e-05
3.02613e-07
1.20717e-06
1.04081e-07
3.6423e-05
4.64396e-07
1.26464e-07
1.45848e-06
-3.98406e-05
-2.57724e-06
1.29607e-06
3.95369e-05
-1.36345e-05
1.85108e-05
0.000220613
-4.58011e-06
-6.08854e-06
-3.89006e-06
-4.98359e-06
3.29491e-06
7.16984e-07
3.27935e-06
2.54193e-06
-1.02165e-05
9.23984e-06
0.000237796
-5.20815e-06
-3.82355e-06
-3.89227e-06
-2.51453e-06
-2.55574e-06
3.36077e-06
0.000196843
-2.25777e-07
-7.51957e-07
1.27627e-06
-7.15115e-07
1.89989e-06
-1.80651e-06
1.98501e-06
-2.29668e-05
-1.30013e-06
9.84816e-07
2.07264e-05
-1.42288e-05
-1.68117e-06
1.50579e-06
1.44041e-05
6.06879e-07
-7.29708e-05
-2.54839e-06
5.59636e-07
2.18883e-06
7.21639e-05
-5.81714e-06
1.57564e-05
0.000234683
-1.74187e-06
-2.47113e-07
-2.31827e-08
1.28436e-06
-9.40563e-06
3.98779e-06
0.000228786
-2.07781e-06
1.12723e-07
0.000242904
-2.80236e-06
-1.72325e-06
-2.98854e-06
-1.71461e-07
1.86723e-06
4.85936e-07
-5.18916e-05
-9.13463e-07
-1.75093e-06
8.47439e-07
5.16307e-05
-4.18723e-05
-2.38815e-06
7.19272e-07
1.57231e-06
4.33594e-05
-1.39052e-06
2.19813e-06
2.52772e-06
0.00021815
-1.41109e-06
-4.57279e-07
8.2184e-08
-5.8314e-07
2.64699e-06
2.41946e-06
2.46804e-06
5.2595e-07
-2.57126e-07
0.000102837
1.72726e-06
1.6946e-06
1.58336e-06
-1.04841e-06
-5.09317e-07
-1.34918e-06
-3.53688e-05
2.06926e-06
-1.37637e-06
3.53145e-05
-2.39901e-05
2.22485e-06
-2.72028e-06
2.44856e-05
-3.81337e-05
-3.45603e-06
5.3548e-06
3.87626e-05
-3.30869e-05
-4.89336e-06
5.79198e-06
-2.35664e-06
3.42878e-05
-9.31339e-06
2.8914e-06
-3.26188e-06
9.68387e-06
-7.14081e-06
-6.35673e-07
2.11196e-06
5.66452e-06
-8.11264e-06
5.11811e-07
-2.77858e-07
7.87869e-06
-1.3256e-06
-6.94633e-07
-1.62721e-05
1.39231e-06
1.56496e-06
1.53351e-05
-3.11976e-06
-2.9928e-05
-1.65508e-06
3.40198e-07
4.34023e-06
3.00224e-05
-3.46691e-05
-1.11378e-06
1.57034e-06
9.1205e-07
3.27712e-05
5.29287e-07
1.62375e-07
5.14285e-07
-3.96317e-05
-2.01252e-06
9.88152e-07
3.99794e-05
-1.43716e-05
1.73179e-05
0.000224757
-3.3153e-06
-6.03845e-06
-2.51524e-06
-4.87697e-06
2.72967e-06
1.46821e-06
2.41316e-06
3.04403e-06
-9.39557e-06
1.00446e-05
0.000238565
-5.26961e-06
-4.16217e-06
-3.64534e-06
-2.71306e-06
-1.36365e-06
1.0108e-05
0.000180332
-9.9014e-07
-1.59059e-06
-3.46284e-07
-1.41945e-06
1.61538e-06
-6.78917e-07
1.78162e-06
-1.90308e-05
-1.83858e-06
1.64119e-06
1.78645e-05
-1.45107e-05
-1.41057e-06
1.36137e-06
1.45599e-05
5.98211e-07
-7.14874e-05
-2.9483e-06
5.89161e-07
2.93004e-06
7.03183e-05
-5.81208e-06
1.47916e-05
0.00024367
-1.61436e-06
-5.81319e-07
3.15152e-07
1.23115e-06
-9.37208e-06
4.38753e-06
0.000238003
-1.82673e-06
1.80932e-06
0.000244809
-3.2054e-06
-1.42197e-06
-3.21212e-06
1.26067e-06
3.80392e-06
1.623e-06
-5.15888e-05
-1.84066e-06
-2.11101e-06
2.54472e-06
5.1169e-05
-4.49276e-05
-2.28454e-06
1.01366e-06
1.9239e-06
4.61841e-05
-1.90956e-06
3.30395e-06
2.38488e-06
0.000224615
-1.75487e-06
-1.05424e-06
-9.16041e-08
-1.0504e-06
2.10782e-06
2.35689e-06
2.12462e-06
2.22148e-07
-7.26319e-07
0.000110476
1.36864e-06
1.20381e-06
9.45815e-07
-1.08357e-06
-6.922e-07
-1.18591e-06
-3.81156e-05
1.04282e-06
-2.39203e-07
3.93434e-05
-2.50979e-05
6.35744e-07
-1.03881e-06
2.5501e-05
-3.93479e-05
-3.55999e-06
5.36961e-06
3.99232e-05
-3.51282e-05
-4.60896e-06
5.46462e-06
-2.32204e-06
3.58682e-05
-9.98381e-06
2.5344e-06
-3.0143e-06
1.04637e-05
-4.7695e-06
-6.24379e-07
1.16836e-06
4.22552e-06
-7.63354e-06
9.33393e-07
-7.02661e-07
7.40281e-06
-8.54481e-07
-1.39059e-06
-1.4569e-05
2.40923e-06
4.46933e-07
1.3958e-05
-1.46693e-06
-3.0395e-05
-2.45523e-06
8.48871e-07
2.98794e-06
3.04803e-05
-3.11628e-05
-2.07002e-06
1.27312e-06
2.12679e-06
2.97262e-05
1.06744e-07
5.21791e-07
-6.39631e-07
-4.03863e-05
-5.04502e-07
4.20045e-07
4.05886e-05
-1.41065e-05
1.55864e-05
0.000227852
-1.88195e-06
-5.35841e-06
-1.21203e-06
-3.6455e-06
1.55081e-06
1.67317e-06
1.42671e-06
2.87263e-06
-1.02588e-05
9.81007e-06
0.000239138
-4.84013e-06
-4.00478e-06
-3.01833e-06
-2.36684e-06
-8.14284e-07
1.14941e-05
0.000164187
-2.10313e-06
-1.78547e-06
-1.24028e-06
-1.57478e-06
1.04928e-06
-5.50054e-07
1.41038e-06
-1.7275e-05
-1.59431e-06
1.3389e-06
1.67161e-05
-1.45815e-05
-1.01405e-06
9.56391e-07
1.46392e-05
6.83169e-07
-6.93068e-05
-2.50125e-06
3.24227e-07
2.86866e-06
6.7932e-05
-6.50431e-06
1.35789e-05
0.000251504
-1.18728e-06
-4.68055e-07
8.1786e-07
1.51589e-06
-9.41749e-06
4.07563e-06
0.00024665
-1.72775e-06
2.39779e-06
0.000247101
-3.15667e-06
-1.42054e-06
-3.00064e-06
1.30885e-06
3.96642e-06
1.41688e-06
-5.07346e-05
-2.14247e-06
-2.22464e-06
3.49537e-06
4.98786e-05
-4.75446e-05
-2.25758e-06
1.16986e-06
2.27043e-06
4.8573e-05
-2.21111e-06
3.04841e-06
2.27632e-06
0.000230921
-1.75871e-06
-1.28992e-06
3.67011e-08
-1.15928e-06
1.84054e-06
2.28949e-06
1.98893e-06
-8.33872e-07
-7.90478e-07