/*--------------------------------*- C++ -*----------------------------------*\
| =========                 |                                                 |
| \\      /  F ield         | OpenFOAM: The Open Source CFD Toolbox           |
|  \\    /   O peration     | Version:  5.x                                   |
|   \\  /    A nd           | Web:      www.OpenFOAM.org                      |
|    \\/     M anipulation  |                                                 |
\*---------------------------------------------------------------------------*/
FoamFile
{
    version     2.0;
    format      ascii;
    class       volVectorField;
    location    "10";
    object      U;
}
// * * * * * * * * * * * * * * * * * * * * * * * * * * * * * * * * * * * * * //

dimensions      [0 1 -1 0 0 0 0];

internalField   nonuniform List<vector> 
10571
(
(1.01146 0.331584 3.33264)
(-0.199193 0.473702 0.89578)
(0.308 0.637867 1.39127)
(-0.100549 2.39711 3.81314)
(-0.122739 0.57861 1.04803)
(0.245504 1.1676 2.33905)
(0.321983 1.90297 2.43139)
(0.00460888 1.51231 3.35285)
(-0.187644 0.143709 2.39116)
(-0.307235 0.443295 1.09622)
(0.315581 0.31401 0.468164)
(1.65417 0.362066 4.08553)
(-0.518175 -0.190667 3.00383)
(-0.0295282 0.148156 2.11116)
(-0.101932 0.640309 3.49988)
(0.606308 1.22447 3.65328)
(0.182249 -0.394693 1.36458)
(0.270689 -0.60905 1.7209)
(1.51624 -1.28575 3.93369)
(-0.237418 0.722898 2.22198)
(-0.0534906 -0.163282 1.92711)
(0.0442917 -0.206999 0.862042)
(0.307766 -0.786647 1.5206)
(0.413278 -0.318963 0.667516)
(-0.236539 0.143999 0.891411)
(0.207357 -0.0730861 0.352496)
(-0.1296 -0.137518 1.54442)
(-0.20147 0.503991 1.84019)
(-0.241055 0.166265 0.845184)
(0.729143 -0.0655275 1.18688)
(-1.17948 -0.460923 4.20969)
(-0.0203295 -0.694407 3.64108)
(0.39328 -0.107045 3.85608)
(0.0213359 -0.0773859 0.277809)
(0.0186139 0.0899149 0.627566)
(-0.340965 1.73032 4.81062)
(-0.811217 0.255004 3.47964)
(0.279701 0.468915 1.85623)
(0.171311 0.874212 2.24995)
(-0.551027 0.382484 1.54703)
(0.109388 0.1933 1.11431)
(-0.0781193 -0.0200927 1.32856)
(1.4716 0.759453 4.23922)
(0.984511 1.41067 5.30438)
(-0.686346 0.970723 1.83118)
(-0.276491 0.0397147 1.33416)
(0.319789 -0.253049 0.556614)
(0.844491 -0.127565 1.12603)
(0.0602468 -0.165881 0.776603)
(0.0341458 -0.303554 0.116151)
(0.056792 -1.17962 2.09248)
(-2.28075 -2.60291 3.94969)
(0.139862 -0.263953 0.48328)
(-0.570093 -0.476018 1.82975)
(-0.186872 -0.326903 2.38166)
(0.227866 0.15934 1.36406)
(0.325362 0.254126 1.29378)
(0.0227637 0.123439 0.482796)
(-0.0354683 -0.0969868 0.664143)
(-1.14059 0.58191 4.14657)
(0.371828 0.769328 2.63479)
(0.322098 0.34687 0.884613)
(0.257898 0.460285 1.40557)
(-0.220016 0.406485 0.900526)
(-0.00695891 0.729411 2.11594)
(0.206927 0.156554 1.18585)
(0.484904 0.347062 2.35857)
(2.07099 1.40673 7.28013)
(0.259814 1.53001 4.26103)
(-0.0279862 -0.222782 0.851529)
(0.290936 -0.212509 0.347716)
(0.402165 0.115741 1.69087)
(1.31434 -0.0638808 2.84412)
(-0.118127 0.0666322 0.0790787)
(1.04381 -0.778343 3.85218)
(0.452945 -0.87463 2.57223)
(0.322336 -0.359249 1.69551)
(0.215912 0.644531 1.59004)
(-0.0442483 0.024854 1.13786)
(0.124455 0.155819 1.40315)
(0.107218 0.314756 2.84076)
(0.00189154 0.075486 0.462462)
(-0.0466208 -0.054512 1.12416)
(-0.640612 -1.19758 3.39)
(0.360142 0.10196 1.7206)
(0.452446 0.228425 1.56876)
(-0.456713 -0.0841181 2.95489)
(-0.265653 -0.0661585 0.675679)
(-0.209583 0.90801 5.0447)
(0.850513 0.10452 1.817)
(0.392944 -0.201748 2.86924)
(1.25634 0.499462 6.926)
(0.577118 -0.396966 5.32665)
(0.361555 -0.187371 0.612142)
(0.191003 -0.214805 0.495716)
(0.18191 0.237978 2.65449)
(1.48643 0.0218054 3.77005)
(-0.00785603 0.0322456 0.278956)
(0.200518 0.250061 2.75265)
(0.249054 0.110223 2.07789)
(0.505692 -0.287107 1.52406)
(-0.0597292 -0.10759 1.58155)
(0.308738 0.409983 2.81805)
(-0.39725 0.45715 1.68542)
(0.0125458 0.248196 1.60671)
(0.154267 -0.0428371 0.447285)
(-0.144612 -0.618998 1.69872)
(-0.253905 -2.06848 3.83073)
(0.121904 -0.132384 2.18552)
(0.207214 -0.0253702 2.033)
(-0.595066 -0.567853 2.53245)
(-0.156998 -0.261826 0.712819)
(-0.436692 -0.649773 3.58754)
(0.933917 -0.0651334 1.7621)
(0.078577 -0.396871 2.30923)
(0.8457 -0.296784 7.43905)
(0.202159 -0.527255 5.42983)
(0.26831 0.000387792 0.215098)
(-0.138774 -0.101521 0.324073)
(-0.151881 0.445206 3.46103)
(0.938195 -0.0155062 3.61926)
(-0.0163467 -0.0237066 0.209862)
(-0.00376728 -0.0463692 1.01602)
(0.285362 0.136625 1.93478)
(0.196661 -0.101258 1.77177)
(-0.143422 -0.627553 1.77637)
(0.147986 0.299127 1.73983)
(-0.118278 0.106395 1.12597)
(-0.0276291 0.074904 1.51994)
(0.370806 0.184258 0.733057)
(-0.0091229 0.008648 -0.00490942)
(0.0456948 -0.280594 2.08791)
(-0.10094 -1.3647 3.72562)
(-0.0735924 0.0967837 1.66998)
(-0.0733429 -0.209032 1.76913)
(-0.531859 -0.832575 2.79575)
(0.0763354 0.398097 0.789212)
(-0.00414145 -0.00146697 -0.00284913)
(0.0252927 -0.284312 2.3245)
(0.626945 -0.038901 1.98618)
(-0.890368 -0.774091 2.06821)
(0.514159 -0.553788 6.83502)
(0.453906 -0.956981 4.97898)
(-0.246501 -0.00198995 0.379095)
(-0.574037 0.00991642 0.157192)
(-1.12561 0.00911892 2.58791)
(0.734413 -0.0307362 3.61474)
(-0.0414562 -0.00559518 0.284956)
(0.166544 0.0970417 0.488747)
(0.151992 0.253306 1.81403)
(0.0215642 0.0992275 1.79248)
(-0.206489 -0.522542 2.12844)
(0.0664785 0.208189 1.86051)
(-0.150349 -0.12546 1.37316)
(-0.142946 -0.407635 1.63247)
(0.113637 0.300611 0.65293)
(-0.346563 0.2561 0.107622)
(0.128234 0.0338664 2.03806)
(-0.102734 -1.01115 3.62368)
(-0.411868 0.0529746 1.67846)
(-0.398958 -0.464771 2.24482)
(-0.254238 -1.53686 3.16696)
(0.570743 -0.369959 1.45005)
(0.112545 0.0395344 0.0865959)
(-0.0805186 0.0160234 1.42936)
(-0.101447 0.108419 1.84288)
(-1.50306 -0.17379 1.86557)
(0.218431 -0.944114 5.86238)
(1.20194 -1.3637 4.42947)
(-0.37064 -0.0399412 0.150882)
(-0.355704 0.215129 0.819155)
(-0.414708 0.124195 0.115284)
(-0.671611 0.216627 0.248827)
(0.555054 -0.0328059 3.52398)
(0.0166844 -0.0615455 0.309003)
(0.198332 0.0507525 0.577155)
(0.0288757 0.216567 1.7271)
(-0.150867 0.052707 1.71137)
(-0.157284 -0.29357 2.23563)
(-0.065849 0.205839 2.04758)
(-0.229788 -0.253031 1.66738)
(-0.226745 -0.597405 1.90742)
(-0.0791193 0.382813 0.90959)
(-0.428565 -0.243241 0.00609219)
(0.112606 0.125936 1.9806)
(-0.0921103 -0.73801 3.41397)
(-0.39839 0.0687317 1.74596)
(-0.298869 -0.264018 1.70054)
(-0.130707 -1.13088 2.56582)
(0.376081 -0.892786 1.83774)
(0.210009 -0.257563 0.536334)
(-0.243006 0.150245 1.15483)
(-0.275404 0.242955 2.0159)
(-1.05261 0.0671913 1.37714)
(-0.30384 -1.52699 4.50962)
(0.698094 -0.855124 2.2014)
(0.89304 -0.207879 0.789889)
(0.0142367 0.437551 1.2461)
(0.0393524 0.108495 0.178344)
(-0.143525 0.295164 0.309738)
(0.332168 -0.0196455 3.37862)
(0.0413865 -0.0643722 0.396331)
(0.11743 0.0124968 0.670638)
(-0.128837 0.204029 1.71815)
(-0.21394 0.0632592 1.65258)
(-0.152875 -0.142376 2.26232)
(-0.10118 0.256071 2.02981)
(-0.280933 -0.0564431 1.92542)
(-0.269316 -0.427314 2.19689)
(-0.380317 0.161891 1.11134)
(-0.308673 -0.542413 -0.220576)
(0.103256 0.22134 1.96339)
(-0.0831775 -0.555653 3.33942)
(-0.242649 0.134602 1.91277)
(-0.228574 -0.140742 2.00842)
(-0.256889 -0.787397 2.80604)
(0.0994747 -0.604016 2.38573)
(-0.0829561 -0.486945 0.618131)
(-0.15875 0.101157 1.08623)
(-0.15383 0.237555 2.11798)
(-0.387956 -0.0813766 1.54)
(-0.0266116 -0.423106 3.01656)
(0.0481278 -0.353862 2.50833)
(0.120449 0.382185 1.48282)
(0.0738169 0.156713 0.475234)
(0.295641 -0.408911 0.291321)
(0.212436 -0.0203825 3.25378)
(0.0696978 -0.0487113 0.487335)
(-0.0254293 0.0692963 0.761596)
(-0.182783 0.225062 1.67898)
(-0.193261 0.0557885 1.64272)
(-0.118307 -0.0883768 2.24319)
(-0.152805 0.342576 2.02636)
(-0.320109 0.0309377 2.06968)
(-0.231988 -0.354026 2.24975)
(-0.68362 -0.24894 1.35077)
(0.0920434 0.280848 1.96949)
(-0.0552582 -0.41963 3.30736)
(-0.134699 0.206339 1.94827)
(-0.224958 -0.10938 1.9642)
(-0.253394 -0.579282 2.61908)
(-0.514202 -0.199417 2.31596)
(-0.0513933 -0.00995915 1.10811)
(-0.124113 0.243939 2.08921)
(-0.314866 -0.0713037 1.29528)
(-0.00600064 -0.364233 2.23355)
(0.0791747 -0.198069 2.20993)
(0.229589 0.249338 1.63765)
(0.413243 -0.00588957 0.592482)
(0.190705 0.00181116 0.253857)
(0.0384836 0.00238823 3.02247)
(0.0809837 -0.0155266 0.580444)
(-0.116799 0.107421 0.818372)
(-0.166613 0.265503 1.61747)
(-0.158321 0.00780999 1.67799)
(-0.0704625 -0.0257817 2.07508)
(-0.205049 0.376424 2.04479)
(-0.286849 0.0605514 2.18927)
(-0.168889 -0.29265 2.3426)
(-0.364714 -0.082183 1.31068)
(0.0720458 0.323643 1.96163)
(-0.0747679 -0.255631 3.28684)
(-0.109844 0.224902 2.02067)
(-0.230354 -0.0706748 1.99646)
(-0.209011 -0.31991 2.55894)
(-0.0981705 -0.163182 2.29554)
(-0.0146214 -0.034357 1.22196)
(-0.104967 0.240477 2.09889)
(-0.240706 -0.0356981 1.12737)
(0.0385816 -0.219804 2.02882)
(0.11944 -0.387235 2.13712)
(0.299146 0.194975 1.68801)
(0.505113 0.095712 0.773719)
(0.126692 0.0317716 0.444363)
(-0.0795482 0.0422535 2.54534)
(0.0786296 0.00754277 0.642881)
(-0.116501 0.116867 0.838038)
(-0.0921898 0.246697 1.53075)
(-0.124114 -0.0159439 1.66313)
(-0.0819332 0.0489608 1.89855)
(-0.229347 0.401678 2.06488)
(-0.244007 0.0834988 2.28244)
(-0.0987196 -0.207921 2.35301)
(-0.221583 0.0262629 1.32531)
(0.0572976 0.308399 1.97874)
(-0.100612 -0.100148 3.27208)
(-0.0991177 0.233717 2.10951)
(-0.205716 -0.0187666 2.08786)
(-0.194441 -0.190792 2.54134)
(-0.0870624 -0.030915 2.11379)
(0.00433811 -0.0128623 1.38489)
(-0.0922904 0.236885 2.13796)
(-0.111664 -0.0182898 1.08774)
(0.0662842 -0.1272 1.77032)
(0.132418 -0.413326 2.09234)
(0.327356 0.18098 1.78936)
(0.513879 0.125184 1.01182)
(0.112387 -0.00558616 0.684787)
(-0.0790981 -0.00202197 2.20686)
(0.0772515 0.0170962 0.645036)
(-0.0486146 0.126238 0.823925)
(0.0316697 0.208535 1.40513)
(-0.0679415 -0.0223466 1.60094)
(-0.145156 0.060435 1.79315)
(-0.22592 0.41836 2.11439)
(-0.23857 0.158416 2.33948)
(-0.085866 -0.0977429 2.2795)
(-0.214918 0.0469728 1.30148)
(0.0420072 0.298718 2.00002)
(-0.0987228 0.0291755 3.24149)
(-0.0856638 0.251344 2.20728)
(-0.162532 0.0463361 2.18478)
(-0.181749 -0.103165 2.57005)
(-0.0901591 0.0527471 2.06001)
(0.0181346 0.0128411 1.53044)
(-0.0690268 0.244416 2.21693)
(0.0379536 0.00283359 1.04552)
(0.0611928 -0.0360854 1.51998)
(0.139216 -0.411267 2.12292)
(0.354101 0.158375 1.87703)
(0.525593 0.0800983 1.20594)
(0.214197 -0.0746123 0.806786)
(0.0671348 0.0846457 1.54419)
(0.0527616 0.0460198 0.610041)
(0.0109662 0.121768 0.771009)
(0.100774 0.249895 1.31464)
(-0.00359905 0.0691305 1.45954)
(-0.146603 0.0361682 1.73997)
(-0.235793 0.407086 2.182)
(-0.252709 0.215999 2.37832)
(-0.0726263 0.0434473 2.14754)
(-0.249101 0.0901224 1.09658)
(0.0314417 0.308121 2.0491)
(-0.0775816 0.15902 3.1971)
(-0.0691301 0.255401 2.31233)
(-0.14103 0.112967 2.27834)
(-0.179341 0.0632467 2.56914)
(-0.0923352 0.113007 2.04129)
(0.0401657 0.0572382 1.66646)
(-0.0303968 0.243653 2.28408)
(0.120832 0.0085961 1.06134)
(0.0571323 0.0557787 1.51983)
(0.112429 -0.338657 2.20715)
(0.366847 0.143356 1.94314)
(0.508591 0.0178672 1.32543)
(0.268499 -0.104391 0.867421)
(0.106651 0.053839 0.886455)
(0.0385479 0.0353984 0.583094)
(0.0704033 0.0783773 0.690527)
(0.108294 0.221814 1.31001)
(-0.00698338 0.161415 1.30999)
(-0.0957369 0.0290972 1.74846)
(-0.237334 0.381935 2.22231)
(-0.265941 0.216408 2.3936)
(-0.0390657 0.164921 1.97605)
(-0.13926 0.066952 0.92986)
(0.0337478 0.278711 2.08183)
(-0.0593807 0.261405 3.12499)
(-0.063466 0.240782 2.41346)
(-0.139831 0.143019 2.3703)
(-0.177706 0.189548 2.57353)
(-0.0663745 0.161211 2.02221)
(0.0568567 0.109099 1.78117)
(-0.0109671 0.229659 2.33722)
(0.144245 -0.0063826 1.1139)
(0.0185948 0.1624 1.67719)
(0.0132545 -0.21549 2.32473)
(0.362247 0.135098 2.00077)
(0.467407 -0.0201604 1.39367)
(0.24478 -0.102052 0.933352)
(0.0999809 0.0224222 0.635184)
(0.0445319 0.00118143 0.548788)
(0.119656 0.0497117 0.62267)
(0.14549 0.0853322 1.33701)
(0.0166374 0.219156 1.17989)
(0.00884345 -0.0119661 1.7841)
(-0.208431 0.342699 2.26183)
(-0.269268 0.198676 2.39445)
(-0.0737685 0.197391 1.8013)
(-0.0601761 -0.00154518 0.858188)
(0.0252397 0.217986 2.08964)
(-0.0522093 0.263691 3.02409)
(-0.0721903 0.221547 2.49747)
(-0.144275 0.152102 2.45261)
(-0.177189 0.20942 2.59402)
(-0.0514513 0.178378 1.97649)
(0.0703514 0.152604 1.8792)
(-0.0207514 0.21191 2.39204)
(0.142866 -0.0228134 1.20948)
(-0.0742254 0.24114 1.88963)
(-0.126028 -0.0805713 2.30105)
(0.347122 0.133328 2.06004)
(0.420827 -0.0218704 1.45078)
(0.168835 -0.0509757 1.06485)
(0.0449151 -0.00144168 0.55018)
(0.050732 -0.00950739 0.521005)
(0.121044 0.0519093 0.591379)
(0.20662 -0.0267587 1.33297)
(0.0789833 0.215971 1.11097)
(0.100479 -0.0591582 1.78462)
(-0.178413 0.305542 2.28182)
(-0.246849 0.171069 2.39514)
(-0.145736 0.125701 1.64681)
(-0.0402438 -0.0468641 0.801561)
(0.00360506 0.163496 2.12654)
(-0.0478405 0.220578 2.91303)
(-0.0871103 0.188634 2.55959)
(-0.144065 0.145118 2.52877)
(-0.177168 0.194381 2.61075)
(-0.0493201 0.238604 1.94109)
(0.0796931 0.191586 1.96096)
(-0.0398455 0.197011 2.45359)
(0.151593 -0.0340519 1.31045)
(-0.141029 0.214935 2.06075)
(-0.162252 -0.013837 2.19328)
(0.325828 0.136302 2.11695)
(0.383944 -0.00859278 1.52646)
(0.11042 -0.00867977 1.2559)
(0.00328758 0.000716917 0.506455)
(0.0297174 0.00916982 0.535164)
(0.00344361 0.0855052 0.566203)
(0.230756 -0.0619681 1.28679)
(0.113839 0.199149 1.10482)
(0.175671 -0.126316 1.75646)
(-0.150455 0.262242 2.25176)
(-0.214439 0.125383 2.42432)
(-0.127531 0.0102494 1.55377)
(-0.0336034 -0.0295084 0.784281)
(-0.0153603 0.122407 2.1869)
(-0.0425711 0.184554 2.79273)
(-0.11358 0.148188 2.6137)
(-0.131583 0.0981237 2.60082)
(-0.172504 0.156604 2.64622)
(-0.121107 0.306253 1.90638)
(0.0817251 0.220863 2.03712)
(-0.0554495 0.185948 2.5068)
(0.175399 -0.0541419 1.38689)
(-0.160018 0.145083 2.17672)
(-0.134587 -0.0441201 2.11803)
(0.306651 0.14152 2.17538)
(0.362744 0.000565069 1.61209)
(0.0949732 -0.000223875 1.44599)
(-0.0490623 0.0210649 0.357528)
(0.0168339 0.00949227 0.658773)
(-0.0976327 0.115665 0.539152)
(0.260403 -0.0447371 1.22553)
(0.159849 0.173672 1.09766)
(0.186776 -0.154318 1.74864)
(-0.0548833 0.175946 2.17852)
(-0.157823 0.020458 2.43239)
(-0.0115529 -0.0896987 1.53436)
(0.0123398 0.0800142 0.82752)
(-0.00732508 0.0966631 2.24349)
(-0.0375111 0.173004 2.67767)
(-0.13645 0.147004 2.66452)
(-0.101272 0.0495419 2.64824)
(-0.153987 0.0767756 2.69441)
(-0.10992 0.312946 1.79595)
(0.0755697 0.236346 2.107)
(-0.0696365 0.176672 2.54117)
(0.199405 -0.0873586 1.43551)
(-0.143084 0.0790487 2.24837)
(-0.122013 -0.0496724 2.08954)
(0.297066 0.144577 2.23199)
(0.35716 -0.00138844 1.68849)
(0.110102 -0.0159682 1.60403)
(-0.120547 -0.0101329 0.237643)
(0.0617677 -0.0531506 0.831944)
(-0.136087 0.106516 0.553101)
(0.174607 -0.109386 1.11026)
(0.238751 0.10662 1.07146)
(0.152976 -0.148774 1.7779)
(0.157983 0.0986664 1.97669)
(-0.0259048 -0.141277 2.40379)
(0.0776753 -0.153797 1.5509)
(0.0682385 0.151071 0.854964)
(0.00239066 0.0985054 2.26666)
(-0.0425662 0.17183 2.59089)
(-0.135171 0.182039 2.6855)
(-0.0583675 0.0489483 2.6575)
(-0.115529 0.0413246 2.71952)
(-0.0529696 0.223865 1.70495)
(0.0653197 0.229861 2.17368)
(-0.0879755 0.1821 2.55694)
(0.212813 -0.12858 1.4611)
(-0.115892 0.0489678 2.2978)
(-0.135646 -0.0134917 2.05845)
(0.281828 0.140029 2.28121)
(0.36243 -0.00755116 1.742)
(0.139178 -0.0500677 1.71716)
(-0.179442 -0.0365389 0.236292)
(0.0870692 -0.103694 0.972244)
(-0.11944 0.0518115 0.628999)
(-0.0375786 -0.228836 0.849699)
(0.246264 0.0683645 1.01754)
(-0.0059712 -0.0627924 1.74203)
(0.172255 0.180494 1.6947)
(0.0967732 -0.170926 2.4217)
(0.0908169 -0.171388 1.57116)
(0.117577 0.206027 0.902219)
(-0.00723567 0.110644 2.27354)
(-0.0706671 0.163839 2.54749)
(-0.13233 0.229536 2.65656)
(0.0105281 0.0519148 2.62081)
(-0.0458886 0.0573744 2.73615)
(0.00206277 0.167309 1.67595)
(0.0492329 0.207539 2.22842)
(-0.109377 0.202304 2.56858)
(0.207744 -0.163393 1.4848)
(-0.0996361 0.0586004 2.34994)
(-0.139411 0.0432189 1.99364)
(0.25075 0.131526 2.32302)
(0.370651 -0.0101963 1.7761)
(0.149479 -0.0873202 1.79147)
(-0.133125 -0.022463 0.28282)
(0.0755591 -0.0899973 1.02384)
(-0.0732343 0.0329175 0.725159)
(-0.20201 -0.148445 0.575922)
(0.216768 -0.0533131 1.01682)
(-0.13677 0.0624271 1.70501)
(0.0110388 0.287625 1.42903)
(0.14083 -0.109751 2.46519)
(0.0733188 -0.131195 1.57872)
(0.151797 0.29841 0.9897)
(-0.0207789 0.10332 2.32255)
(-0.100915 0.149504 2.55939)
(-0.150088 0.245132 2.62244)
(0.0311879 0.0330915 2.57673)
(0.0168827 0.0644699 2.71442)
(0.0504822 0.156504 1.74099)
(0.0280684 0.183259 2.27737)
(-0.126143 0.208165 2.58738)
(0.172188 -0.190879 1.5135)
(-0.0769131 0.104948 2.42055)
(-0.113593 0.0867363 1.94387)
(0.217149 0.123411 2.36578)
(0.372276 -0.0157957 1.79714)
(0.105819 -0.102926 1.8483)
(-0.0803564 -0.00745202 0.290592)
(0.0687865 -0.0651174 0.992436)
(-0.0223158 0.0498862 0.758863)
(-0.193075 0.073758 0.445568)
(0.139089 -0.192216 1.0233)
(-0.145114 0.0983247 1.71506)
(-0.139277 0.303734 1.30408)
(0.111732 -0.0732162 2.46982)
(0.0703698 0.0382842 1.57017)
(0.164253 0.38212 1.13032)
(-0.0219101 0.0931177 2.39818)
(-0.118276 0.118 2.60945)
(-0.158928 0.227515 2.61593)
(-0.00281911 0.0240561 2.54056)
(0.0334564 0.0788613 2.64052)
(0.0973999 0.163766 1.85827)
(0.000499174 0.152915 2.32577)
(-0.136736 0.19364 2.59728)
(0.122239 -0.206614 1.55602)
(-0.067091 0.160252 2.46612)
(-0.0756824 0.108638 1.95838)
(0.175589 0.110604 2.40445)
(0.360488 -0.0331616 1.80521)
(0.0163015 -0.0782895 1.92853)
(-0.0236591 0.00308489 0.289945)
(0.0922332 -0.0787194 0.942821)
(0.031883 0.0544465 0.726605)
(-0.150175 0.141262 0.391529)
(0.0768399 -0.149537 0.981156)
(-0.137174 0.072171 1.74248)
(-0.219635 0.242925 1.27236)
(0.0189795 0.00732825 2.45705)
(0.0693223 0.145219 1.52864)
(0.129081 0.412155 1.28666)
(-0.0370116 0.0511627 2.49713)
(-0.127779 0.078517 2.6694)
(-0.178484 0.18145 2.59766)
(-0.0451085 0.0129497 2.52652)
(0.0176322 0.142266 2.57214)
(0.146017 0.155304 2.00872)
(-0.0245592 0.105623 2.36677)
(-0.138638 0.163158 2.5976)
(0.0799398 -0.203984 1.61401)
(-0.0668612 0.203893 2.48293)
(-0.0522397 0.126938 2.04406)
(0.132976 0.101078 2.44005)
(0.345783 -0.0555208 1.80353)
(-0.0689506 -0.0319307 2.04208)
(0.0628509 0.0100873 0.281826)
(0.150669 -0.138635 0.906138)
(0.111412 0.0313509 0.681118)
(-0.0874219 0.165822 0.374877)
(0.0937778 -0.0085083 0.952738)
(-0.161207 -0.0108885 1.76812)
(-0.269557 0.158801 1.26852)
(-0.0672182 0.0933511 2.42121)
(0.0663059 0.143864 1.48581)
(0.0282967 0.258641 1.46978)
(-0.0513812 -0.0291565 2.59514)
(-0.133579 0.015374 2.7207)
(-0.213128 0.119698 2.57562)
(-0.0732575 0.0121464 2.53635)
(0.00969905 0.227311 2.48754)
(0.176922 0.12961 2.1381)
(-0.0547674 0.045135 2.38552)
(-0.123352 0.0948676 2.59836)
(0.0469199 -0.187712 1.68404)
(-0.0811777 0.233445 2.49228)
(-0.0373593 0.128827 2.15707)
(0.114877 0.0469589 2.43876)
(0.33621 -0.0753336 1.80134)
(-0.145812 0.017045 2.18168)
(0.175809 0.0151006 0.269538)
(0.224654 -0.219607 0.876747)
(0.213425 -0.0184075 0.664839)
(0.0072376 0.171123 0.386937)
(0.107899 0.0853126 0.900405)
(-0.155307 -0.137393 1.82109)
(-0.308493 0.073861 1.28382)
(-0.146925 0.133303 2.29761)
(0.101717 0.123265 1.43639)
(-0.0339655 0.0339804 1.61863)
(-0.0584993 -0.145508 2.66235)
(-0.127807 -0.087945 2.76588)
(-0.239543 0.0300835 2.56466)
(-0.076859 0.027417 2.5442)
(0.0294769 0.238831 2.37636)
(0.171962 0.0951998 2.20722)
(-0.0995564 -0.0364179 2.38508)
(-0.0929897 -0.0264124 2.59017)
(0.0212443 -0.173223 1.75976)
(-0.0986862 0.262044 2.5032)
(-0.0173547 0.112487 2.27316)
(0.136073 -0.0100679 2.32937)
(0.311941 -0.0865101 1.81679)
(-0.218462 0.0726927 2.32921)
(0.284791 0.0171955 0.279923)
(0.303171 -0.307262 0.854317)
(0.322161 -0.0817073 0.683256)
(0.119688 0.141658 0.408024)
(0.112955 0.143549 0.863187)
(-0.0446047 -0.30354 1.95207)
(-0.298957 -0.000719253 1.3245)
(-0.226816 0.115402 2.11979)
(0.152751 0.121629 1.40346)
(-0.0569773 -0.116133 1.71524)
(-0.0513752 -0.23881 2.66271)
(-0.153755 -0.181126 2.7886)
(-0.25184 -0.0470519 2.5474)
(-0.0739966 0.0718166 2.55055)
(0.0668312 0.133569 2.27239)
(0.140164 0.0523115 2.2211)
(-0.140762 -0.107344 2.38769)
(-0.0894738 -0.109084 2.55761)
(0.00540093 -0.152812 1.83445)
(-0.0876468 0.271731 2.49885)
(-0.0109942 0.100124 2.37338)
(0.0966064 -0.0118239 2.18384)
(0.246839 -0.0878993 1.86106)
(-0.254775 0.119707 2.43445)
(0.366736 0.0170489 0.336255)
(0.374266 -0.374032 0.822896)
(0.414955 -0.13645 0.727921)
(0.221858 0.0954851 0.442137)
(0.118207 0.156724 0.883871)
(0.110533 -0.437665 2.0959)
(-0.197405 -0.0671359 1.39035)
(-0.253651 0.058107 1.95183)
(0.17419 0.12388 1.39533)
(-0.0815466 -0.188685 1.77998)
(-0.0499441 -0.278073 2.62625)
(-0.187819 -0.242142 2.78426)
(-0.267953 -0.0803585 2.52067)
(-0.0829129 0.132787 2.52873)
(0.100547 -0.0023972 2.17707)
(0.104504 0.0107756 2.20771)
(-0.131317 -0.127081 2.40069)
(-0.118864 -0.134009 2.49877)
(-0.00449191 -0.107302 1.89813)
(-0.0570443 0.273575 2.45023)
(-0.00579158 0.0944701 2.44843)
(0.00397681 0.0209215 2.06217)
(0.128611 -0.0737428 1.95437)
(-0.244703 0.141221 2.48016)
(0.394259 0.0179302 0.453024)
(0.422203 -0.403754 0.773916)
(0.475929 -0.175013 0.784029)
(0.308473 0.0454317 0.498046)
(0.100696 0.134301 0.98309)
(0.238202 -0.444547 2.14011)
(0.0092104 -0.14735 1.47186)
(-0.174871 -0.000781023 1.82476)
(0.171619 0.126148 1.40431)
(-0.0932194 -0.200879 1.81625)
(-0.065151 -0.270444 2.56869)
(-0.191074 -0.253376 2.74005)
(-0.289162 -0.0831003 2.47362)
(-0.0957745 0.20185 2.45065)
(0.121432 -0.0695297 2.08083)
(0.081649 -0.0210892 2.18874)
(-0.100256 -0.100163 2.43714)
(-0.150939 -0.137937 2.43705)
(-0.00940105 -0.0487239 1.9446)
(-0.00520824 0.264291 2.34378)
(0.00974653 0.0861789 2.5291)
(-0.0217411 0.0391393 1.95222)
(0.0228574 -0.0551007 2.07176)
(-0.222353 0.143028 2.5127)
(0.351679 0.0180604 0.613729)
(0.413965 -0.40118 0.736306)
(0.492105 -0.22258 0.839432)
(0.372416 -0.00400897 0.593476)
(0.0601372 0.0795101 1.13327)
(0.315482 -0.44346 2.07466)
(0.248391 -0.223131 1.54131)
(-0.00994322 -0.0298296 1.74917)
(0.157918 0.12887 1.45391)
(-0.0812073 -0.17993 1.83453)
(-0.062 -0.257368 2.53602)
(-0.203804 -0.22388 2.64358)
(-0.276419 -0.0747787 2.40849)
(-0.0837359 0.259648 2.31937)
(0.127396 -0.054625 1.99323)
(0.0654538 -0.0255659 2.18178)
(-0.0547945 -0.00235172 2.41013)
(-0.157209 -0.150664 2.40345)
(-0.00098741 -0.0134482 1.98392)
(0.0118334 0.23368 2.22975)
(0.0206984 0.0716446 2.61268)
(-0.000854637 0.0446716 1.87595)
(-0.0431043 -0.0343342 2.18585)
(-0.197619 0.13596 2.55503)
(0.26563 0.0142489 0.787554)
(0.331818 -0.340836 0.733027)
(0.47462 -0.261591 0.888118)
(0.41785 -0.0509343 0.727836)
(0.0279967 0.0102305 1.29871)
(0.382125 -0.424789 1.76724)
(0.450079 -0.256554 1.58094)
(0.150085 -0.0196168 1.72994)
(0.149181 0.115022 1.52671)
(-0.0469162 -0.134273 1.85403)
(-0.0503923 -0.207657 2.49138)
(-0.152372 -0.203388 2.51302)
(-0.19023 -0.0639795 2.34801)
(-0.0156121 0.271215 2.18581)
(0.12734 -0.00455614 1.94026)
(0.0509484 -0.015649 2.18752)
(0.0549127 0.14655 2.35791)
(-0.136245 -0.166412 2.39719)
(0.0233728 -0.0195184 2.03497)
(-0.0125465 0.177191 2.13859)
(0.0369675 0.0471735 2.68568)
(0.0804399 0.0590246 1.85332)
(-0.0629023 -0.0186062 2.27801)
(-0.175447 0.117777 2.60714)
(0.178199 -0.0052631 0.961693)
(0.200629 -0.212062 0.788393)
(0.433361 -0.25087 0.917577)
(0.418592 -0.0974649 0.881612)
(-0.00805583 -0.0480721 1.45998)
(0.389395 -0.412991 1.38794)
(0.541695 -0.241367 1.61119)
(0.240456 -0.00686386 1.75565)
(0.136469 0.0719548 1.60197)
(-0.0232214 -0.106707 1.8839)
(-0.0113515 -0.209028 2.34352)
(-0.10989 0.0347996 2.40378)
(0.0831858 -0.0185128 2.27083)
(0.0982863 0.227278 2.12997)
(0.136047 0.0388051 1.93427)
(0.0418986 -0.00992274 2.20825)
(0.0834284 0.218345 2.34967)
(-0.0733775 -0.164883 2.39768)
(0.0638032 -0.0626176 2.10132)
(-0.0177709 0.103873 2.07867)
(0.0529855 0.015281 2.7484)
(0.199468 0.0879475 1.91131)
(-0.0461404 -0.0308016 2.34115)
(-0.153778 0.0943939 2.6485)
(0.0909101 -0.0294619 1.1646)
(0.0821324 -0.0990878 0.820848)
(0.320216 -0.169633 0.936665)
(0.365692 -0.143974 1.03521)
(-0.0272972 -0.08978 1.58954)
(0.377796 -0.244568 1.16691)
(0.508224 -0.206366 1.64436)
(0.266912 -0.0265805 1.79515)
(0.116117 0.0175622 1.67378)
(-0.00946428 -0.095927 1.92968)
(-0.0136324 -0.114145 2.2707)
(0.186493 0.102028 1.95914)
(0.259588 0.00491856 2.26242)
(0.182206 0.162871 2.16453)
(0.146474 0.0576566 1.96366)
(0.0456636 -0.0132963 2.24307)
(0.147451 0.349223 2.35243)
(0.0756256 -0.093651 2.42036)
(0.11855 -0.111072 2.1764)
(0.017371 0.0541721 2.07052)
(0.0521964 0.0030467 2.79173)
(0.321609 0.119076 2.02226)
(-0.0032885 -0.0666094 2.36425)
(-0.136389 0.084204 2.68052)
(-0.0127617 -0.0320352 1.35468)
(0.00083466 -0.0123826 0.793978)
(0.155329 -0.0717951 0.955914)
(0.269542 -0.150012 1.17004)
(-0.0475964 -0.115154 1.69886)
(0.221036 -0.0125799 1.04405)
(0.381657 -0.168013 1.64555)
(0.275686 -0.0627206 1.82699)
(0.103345 -0.0221102 1.72941)
(-0.00874096 -0.102468 1.97932)
(0.122494 -0.0439879 1.54682)
(0.292914 0.146349 1.51808)
(0.258814 -0.00313275 2.28171)
(0.197559 0.0889476 2.22873)
(0.154171 0.048054 2.00821)
(0.0522361 -0.0252323 2.28509)
(0.217315 0.422844 2.39588)
(0.169455 -0.0463843 2.44183)
(0.160485 -0.147671 2.26664)
(0.0628908 0.0164184 2.11329)
(0.0453707 0.00108979 2.81485)
(0.399574 0.150746 2.15389)
(0.0697585 -0.100866 2.37612)
(-0.107789 0.0762245 2.72788)
(-0.0674759 -0.0124709 1.45439)
(-0.0679889 0.0696792 0.763951)
(0.00309398 0.0197048 0.979651)
(0.140107 -0.0886975 1.28164)
(-0.0919424 -0.13001 1.79809)
(0.0627085 0.0912713 0.947309)
(0.31642 -0.173961 1.58274)
(0.307152 -0.103305 1.85835)
(0.114543 -0.0517248 1.78102)
(-0.00925021 -0.121579 2.02647)
(0.071281 0.0597955 0.861185)
(0.20561 0.00727954 1.3033)
(0.200555 -0.0430584 2.25627)
(0.220604 -0.00236179 2.27214)
(0.170934 0.0029276 2.06)
(0.0481183 -0.0401681 2.32513)
(0.216836 0.341703 2.43701)
(0.183985 -0.0457285 2.44235)
(0.179191 -0.193676 2.34545)
(0.113601 -0.0403767 2.18762)
(0.0418084 0.00019976 2.82746)
(0.404507 0.162033 2.28065)
(0.131622 -0.122546 2.38471)
(-0.0643353 0.0535219 2.77912)
(-0.0837613 -0.0031569 1.42024)
(-0.121655 0.122846 0.76612)
(-0.0952464 0.0829876 1.01048)
(0.0553705 -0.00695842 1.37575)
(-0.124243 -0.152567 1.86764)
(-0.018184 0.113501 0.910406)
(0.282044 -0.165907 1.52358)
(0.348742 -0.155213 1.91547)
(0.147182 -0.097616 1.84755)
(-0.00727953 -0.144162 2.08107)
(0.0100456 0.039541 0.701666)
(0.20818 -0.23779 1.18059)
(0.20942 -0.138231 2.13677)
(0.301037 -0.113998 2.29223)
(0.205001 -0.0759816 2.13545)
(0.0407522 -0.0614947 2.36197)
(0.0779454 0.144296 2.35764)
(0.199636 -0.0609615 2.40484)
(0.214741 -0.233351 2.37578)
(0.152204 -0.10663 2.25623)
(0.0360095 0.00137481 2.8409)
(0.333021 0.119202 2.3199)
(0.203222 -0.14055 2.3837)
(-0.00192999 0.0278527 2.80935)
(-0.228108 -0.00788062 1.1512)
(-0.153287 0.150364 0.790097)
(-0.164787 0.114396 1.03386)
(-0.00642709 0.0330686 1.47885)
(-0.16424 -0.18742 1.95345)
(-0.0453561 0.127144 0.941632)
(0.211263 -0.108642 1.50369)
(0.370991 -0.218502 1.9949)
(0.178218 -0.172216 1.93223)
(-0.00578772 -0.163823 2.14996)
(-0.0167254 0.0410619 0.774595)
(0.226478 -0.327826 1.13614)
(0.367584 -0.23895 2.03399)
(0.394491 -0.220079 2.32727)
(0.246226 -0.163329 2.24076)
(0.0543061 -0.0929036 2.40965)
(-0.0485917 -0.052369 2.26056)
(0.35464 -0.105593 2.25549)
(0.335459 -0.259324 2.37564)
(0.206263 -0.171328 2.31159)
(0.0328567 -0.0108444 2.84761)
(0.287823 0.0478761 2.23122)
(0.214751 -0.163952 2.32042)
(0.048122 0.0107977 2.83326)
(-0.312112 -0.0295978 0.995396)
(-0.171919 0.166351 0.821671)
(-0.237493 0.12598 1.05454)
(-0.165571 0.0938455 1.56203)
(-0.221256 -0.198561 2.04353)
(-0.04678 0.146043 0.987281)
(0.030433 0.0443511 1.49032)
(0.354886 -0.267978 2.03389)
(0.182681 -0.26334 2.03418)
(0.00735513 -0.179349 2.24204)
(-0.00347727 0.105436 0.862412)
(0.223169 -0.170967 1.16839)
(0.435009 -0.232877 2.05429)
(0.436079 -0.285678 2.39264)
(0.271402 -0.218161 2.35975)
(0.0693157 -0.125899 2.48233)
(0.165377 -0.141065 1.85487)
(0.57825 -0.126369 2.04746)
(0.497133 -0.297151 2.4145)
(0.330311 -0.229785 2.3862)
(0.0515124 -0.0495834 2.85623)
(0.496731 0.0839699 2.0345)
(0.34618 -0.154883 2.27676)
(0.101654 -0.00521646 2.87288)
(-0.267104 -0.0305587 0.968933)
(-0.177322 0.172067 0.854333)
(-0.271898 0.112236 1.08392)
(-0.394658 0.18569 1.56356)
(-0.262809 -0.191415 2.10471)
(-0.0412752 0.150657 1.02796)
(-0.161566 0.201454 1.49116)
(0.315398 -0.286771 2.019)
(0.167601 -0.339605 2.14743)
(-0.0051006 -0.187477 2.34927)
(0.0136038 0.174193 0.872108)
(0.1493 0.0516958 1.24289)
(0.421069 -0.180225 2.07484)
(0.427677 -0.292983 2.45261)
(0.275842 -0.237475 2.45979)
(0.0731617 -0.16942 2.5738)
(0.244154 -0.0440996 1.34729)
(0.592658 -0.0663908 1.91931)
(0.536424 -0.311997 2.47475)
(0.384674 -0.248409 2.48762)
(0.0825805 -0.10295 2.90594)
(0.462379 0.0419029 1.79406)
(0.473095 -0.144243 2.33731)
(0.15181 -0.0280445 2.94703)
(-0.144322 -0.0277045 0.970309)
(-0.169002 0.164402 0.884067)
(-0.226685 0.0906628 1.0962)
(-0.542877 0.236068 1.49089)
(-0.213587 -0.152338 2.16806)
(-0.0444598 0.130149 1.06644)
(-0.273312 0.289653 1.52461)
(0.189504 -0.248791 1.98914)
(0.148819 -0.35564 2.25015)
(-0.0259353 -0.197224 2.46171)
(0.0194722 0.210848 0.852434)
(0.0558348 0.149826 1.2987)
(0.281425 -0.0334991 2.04131)
(0.404049 -0.262592 2.48591)
(0.266668 -0.253144 2.52838)
(0.0890203 -0.196017 2.66823)
(0.167581 0.0992509 1.12422)
(0.44452 0.0309853 1.77184)
(0.511079 -0.307786 2.50133)
(0.383106 -0.240402 2.58146)
(0.0986661 -0.134941 2.97912)
(0.331794 0.127167 1.56757)
(0.530078 -0.152992 2.35917)
(0.175158 -0.0498063 3.04715)
(-0.0819454 -0.0228757 0.93791)
(-0.156642 0.152 0.904684)
(-0.163572 0.10113 1.06811)
(-0.485508 0.204266 1.47585)
(-0.23831 0.0634255 2.12772)
(-0.0596675 0.105873 1.09273)
(-0.308031 0.330677 1.58569)
(-0.115906 -0.0852707 2.00334)
(0.0957807 -0.291114 2.31785)
(-0.0321004 -0.202827 2.60154)
(0.0193883 0.220848 0.846354)
(-0.0213474 0.186061 1.31519)
(0.0892474 0.130922 1.98847)