/*--------------------------------*- C++ -*----------------------------------*\
| =========                 |                                                 |
| \\      /  F ield         | OpenFOAM: The Open Source CFD Toolbox           |
|  \\    /   O peration     | Version:  5.x                                   |
|   \\  /    A nd           | Web:      www.OpenFOAM.org                      |
|    \\/     M anipulation  |                                                 |
\*---------------------------------------------------------------------------*/
FoamFile
{
    version     2.0;
    format      ascii;
    class       volVectorField;
    location    "10";
    object      Us;
}
// * * * * * * * * * * * * * * * * * * * * * * * * * * * * * * * * * * * * * //

dimensions      [0 1 -1 0 0 0 0];

internalField   nonuniform List<vector> 
10571
(
(0.0254843 0.0341391 -0.136352)
(-0.0264273 0.0835259 -0.1304)
(0.0482513 0.21389 -0.0823247)
(-0.00747944 0.286505 0.0956477)
(-0.0645416 0.148214 -0.137435)
(0.0985864 0.199453 -0.00256052)
(0.155438 0.387612 0.0799462)
(-0.0512405 0.430141 0.160107)
(-0.0157826 0.366469 0.107225)
(-0.0102737 0.181948 -0.117716)
(0.0325957 0.136876 -0.244027)
(0.179288 0.231307 0.0333542)
(0.132695 0.175404 0.127271)
(0.155522 0.00151285 0.0654541)
(0.100437 0.212874 0.133391)
(0.0826692 0.258733 0.133403)
(0.12712 0.0876431 0.0610533)
(0.172264 -0.207481 0.119056)
(0.178608 -0.279391 0.144247)
(0.119306 -0.124223 0.126868)
(-0.0202463 0.0173459 0.0885571)
(0.00912154 -0.0724975 -0.123991)
(0.028483 -0.125101 -0.0959903)
(0.105697 -0.0915868 -0.167793)
(-0.0238992 0.0212125 -0.315953)
(0.0253411 0.0119205 -0.270203)
(-0.00689121 0.116031 -0.0898899)
(-0.000335453 0.241277 0.0164847)
(-0.00231423 0.0280822 -0.310399)
(0.048965 0.0774383 -0.100983)
(0.140346 0.204363 0.249955)
(0.156142 0.255024 0.298892)
(0.0733515 0.153614 0.0148334)
(0.0153878 0.0678476 -0.296003)
(0.00189124 0.0320248 -0.336269)
(0.0550215 0.327081 0.195292)
(0.0794186 0.0503914 0.281275)
(0.170913 0.0897947 0.263191)
(0.100928 0.201372 0.298314)
(0.0139717 0.266789 0.125377)
(0.061975 0.102727 0.107994)
(0.0120359 -0.00367674 0.222055)
(0.108275 -0.0738784 0.257662)
(0.255382 0.00846257 0.3666)
(-0.118619 0.214537 0.185219)
(-0.0062355 0.0218828 -0.260088)
(0.0621591 -0.0563653 -0.296343)
(0.0464513 -0.0183845 -0.318357)
(0.0385599 -0.00787792 -0.437548)
(-0.00359203 -0.00169644 -0.406897)
(-0.0745254 -0.0438875 0.0894262)
(-0.130079 -0.0235993 0.105883)
(0.0527462 0.0164105 -0.381483)
(-0.142471 -0.0837996 0.0250777)
(0.0773348 0.07516 0.214793)
(0.126273 0.141475 0.203058)
(0.0777216 0.121019 0.104737)
(-0.006885 0.0794081 -0.34443)
(-0.00965645 0.00782263 -0.261454)
(-0.154168 0.200018 0.187267)
(0.115203 0.207461 0.261975)
(0.152161 0.2247 0.252276)
(0.0727486 0.242848 0.27967)
(-0.0222269 0.238157 0.0661071)
(-0.0388498 0.367279 0.284405)
(0.0598351 0.146271 0.295537)
(0.0906642 0.122916 0.209397)
(0.189175 0.201304 0.436635)
(-0.0172702 0.212224 0.247801)
(0.0354135 0.0692366 -0.144233)
(0.0432159 -0.0328724 -0.298847)
(-0.00923068 0.00593249 -0.268189)
(0.107974 -0.0110198 -0.475844)
(-0.0273884 0.0228089 -0.34757)
(-0.0571758 -0.121171 0.0514871)
(0.0225797 -0.0765419 -0.0991406)
(0.0905826 -0.0372067 -0.424172)
(-0.00383989 0.0866024 -0.245895)
(-0.0280988 0.0874335 0.0737375)
(0.0882371 0.0941426 0.12635)
(-0.0067524 0.0767604 0.0386292)
(0.0176214 0.0461416 -0.386502)
(-0.000410139 0.0546183 -0.186801)
(-0.0837837 -0.0309823 -0.086859)
(0.0667841 0.122648 0.142012)
(0.103838 0.174776 0.231976)
(-0.041584 0.173353 0.182409)
(-0.0243248 0.026773 -0.308554)
(0.026576 0.0625403 0.0455425)
(0.137171 0.20595 0.332866)
(0.08142 0.120987 0.165147)
(0.108416 0.250271 0.447756)
(-0.0947261 0.134841 0.105213)
(0.0932663 0.0404645 -0.227978)
(-0.038569 0.000999466 -0.246166)
(-0.0494114 0.0386196 -0.208303)
(0.109983 -0.0713478 -0.369639)
(0.00393047 0.0257749 -0.371417)
(-0.00485564 -0.0282625 0.0110919)
(0.0413479 0.00159265 -0.309722)
(0.108779 -0.0580196 -0.40024)
(0.036011 0.120072 -0.374645)
(-0.0432867 0.058326 -0.318725)
(-0.00534567 0.016493 -0.183053)
(0.072832 -0.0117617 -0.23286)
(0.107859 -0.0113614 -0.323736)
(-0.0026076 -0.055985 -0.25499)
(-0.0302246 -0.0660829 -0.249506)
(7.05812e-05 0.0173746 -0.0654475)
(-0.00956025 0.035902 0.0426501)
(-0.122687 0.0667321 0.000139676)
(-0.0116557 0.0248932 -0.272169)
(-0.0601019 0.0219954 0.0482097)
(0.0345212 0.095688 -0.0621594)
(-0.0852125 0.0941972 0.0476869)
(-0.111258 0.169987 0.302826)
(-0.0604057 0.0980536 0.0349246)
(0.0900141 0.0471557 -0.194901)
(-0.13208 0.0532851 -0.201295)
(-0.0586563 0.103629 0.0802761)
(0.12767 -0.209692 -0.278886)
(0.0222233 0.0696295 -0.698275)
(-0.0688247 0.0204554 -0.235609)
(0.0713534 0.00403978 -0.264288)
(0.0392245 -0.0265448 -0.421418)
(-0.037016 0.0694774 -0.667511)
(-0.0463469 0.0528073 -0.379264)
(-0.00669286 -0.0676192 -0.217223)
(0.0606616 -0.0459575 -0.228635)
(0.00833802 0.0247832 -0.406619)
(-0.0093703 0.00773684 -0.00523605)
(-0.00133651 -0.0679981 -0.214665)
(-0.0401746 -0.0201684 -0.236926)
(-0.112869 0.0567098 -0.171491)
(-0.0871305 0.0326226 0.15108)
(-0.132214 0.0443602 0.181702)
(-0.0425365 -0.00303506 -0.185022)
(-0.00393333 -0.00162168 -0.00257215)
(0.0469882 0.00805764 -0.120702)
(-0.0614724 0.0646547 -0.107233)
(-0.146671 0.0829247 0.127965)
(-0.158868 0.115198 0.315732)
(-0.00392648 0.023025 0.119367)
(0.00390766 0.0395997 -0.260242)
(-0.144609 0.0365934 -0.178827)
(-0.132126 0.0580077 -0.0912865)
(0 0 0)
(0 0 0)
(-4.41095e-14 -1.70165e-14 -3.09793e-13)
(0 0 0)
(0 0 0)
(0.0570368 0.0563624 -0.678596)
(-0.0680263 0.0241383 -0.26614)
(-0.00713672 -0.0601772 -0.100265)
(0.0621154 -0.0761221 -0.0369082)
(1.36603e-14 6.16954e-14 -3.6643e-13)
(0 0 0)
(0 0 0)
(-0.0824899 0.0618975 -0.327956)
(-0.126091 0.0446613 -0.0427808)
(-0.0854358 0.00248617 0.214777)
(-0.0235383 -0.0141326 0.17784)
(0.17644 -0.0247144 -0.0543705)
(0.257108 0.00368183 -0.194997)
(0.0860048 0.0303205 -0.172453)
(-0.117281 0.0979023 -0.0506132)
(-0.134519 0.106169 0.113985)
(-0.132585 0.0821333 0.419144)
(0.0396653 -0.0337372 0.179724)
(0.208503 -0.00848046 -0.137509)
(-0.0260206 0.093383 -0.211562)
(-0.0977387 0.0391689 -0.115141)
(-0.084871 0.0280727 -0.0648432)
(0 0 0)
(0 0 0)
(0 0 0)
(0 0 0)
(1.00132e-14 5.5384e-14 -2.82747e-13)
(0 0 0)
(-0.0771557 -0.0170332 -0.149188)
(-0.0369534 -0.0791126 0.0485517)
(0.0673054 -0.0451407 -0.0635005)
(0 0 0)
(0 0 0)
(0 0 0)
(0.0532584 0.1488 -0.475598)
(-0.112385 0.00137477 0.0829179)
(-0.0327606 -0.0106931 0.104884)
(0.0563402 -0.0208275 0.115044)
(0.138696 -0.0662126 0.0652901)
(0 0 0)
(-0.134461 0.150276 -0.348324)
(-0.110621 0.104444 0.0572165)
(-0.0371257 0.102859 0.0117545)
(-0.0320565 0.0341872 0.249261)
(0.0940361 -0.0268204 0.0716615)
(0.197898 -0.0711874 -0.0789745)
(0 0 0)
(-0.0467114 0.0620516 -0.038654)
(-0.0618667 0.0769995 0.0505456)
(0 0 0)
(0 0 0)
(0 0 0)
(0 0 0)
(0 0 0)
(0 0 0)
(-0.0175046 0.0986765 -0.321657)
(0.0151159 0.0326038 -0.272867)
(0 0 0)
(0 0 0)
(0 0 0)
(0 0 0)
(0 0 0)
(-0.03947 0.130303 -0.286562)
(-0.0223149 0.00685653 0.0399936)
(0.0616043 0.0667955 -0.201038)
(0 0 0)
(0 0 0)
(0 0 0)
(-0.122705 0.0846345 0.149987)
(-0.00869878 0.116421 -0.068343)
(0.0430387 0.0274825 0.0985612)
(0.0537978 -0.0950559 0.141018)
(-0.048504 0.22545 -0.309568)
(0 0 0)
(-0.0715176 0.0252655 0.0196601)
(0 0 0)
(0 0 0)
(0 0 0)
(0 0 0)
(0 0 0)
(0 0 0)
(-0.0314172 0.0594163 -0.220843)
(0.0208719 0.0194315 -0.223603)
(0 0 0)
(0 0 0)
(0 0 0)
(0 0 0)
(-0.0645795 0.136412 -0.233515)
(0.00693535 0.105921 -0.189953)
(0.0869042 0.0737375 -0.279471)
(0 0 0)
(0 0 0)
(-0.0714559 0.171494 -0.188299)
(0 0 0)
(0 0 0)
(0 0 0)
(0 0 0)
(0 0 0)
(0 0 0)
(0 0 0)
(0 0 0)
(0 0 0)
(0 0 0)
(0 0 0)
(0 0 0)
(0 0 0)
(-0.0191881 0.0360803 -0.194152)
(0.078016 0.0313917 -0.216008)
(0 0 0)
(0 0 0)
(0 0 0)
(0 0 0)
(0.011432 0.120866 -0.174536)
(0 0 0)
(0 0 0)
(0 0 0)
(0 0 0)
(0 0 0)
(0 0 0)
(0 0 0)
(0 0 0)
(0 0 0)
(0 0 0)
(0 0 0)
(0 0 0)
(0 0 0)
(0 0 0)
(0 0 0)
(0 0 0)
(0 0 0)
(0 0 0)
(0 0 0)
(0 0 0)
(0 0 0)
(0 0 0)
(0 0 0)
(0 0 0)
(0 0 0)
(0 0 0)
(0 0 0)
(0 0 0)
(0 0 0)
(0 0 0)
(0 0 0)
(0 0 0)
(0 0 0)
(0 0 0)
(0 0 0)
(0 0 0)
(0 0 0)
(0 0 0)
(0 0 0)
(0 0 0)
(0 0 0)
(0 0 0)
(0 0 0)
(0 0 0)
(0 0 0)
(0 0 0)
(0 0 0)
(0 0 0)
(0 0 0)
(0 0 0)
(0 0 0)
(0 0 0)
(0 0 0)
(0 0 0)
(0 0 0)
(0 0 0)
(0 0 0)
(0 0 0)
(0 0 0)
(0 0 0)
(0 0 0)
(0 0 0)
(0 0 0)
(0 0 0)
(0 0 0)
(0 0 0)
(0 0 0)
(0 0 0)
(0 0 0)
(0 0 0)
(0 0 0)
(0 0 0)
(0 0 0)
(0 0 0)
(0 0 0)
(0 0 0)
(0 0 0)
(0 0 0)
(0 0 0)
(0 0 0)
(0 0 0)
(0 0 0)
(0 0 0)
(0 0 0)
(0 0 0)
(0 0 0)
(0 0 0)
(0 0 0)
(0 0 0)
(0 0 0)
(0 0 0)
(0 0 0)
(0 0 0)
(0 0 0)
(0 0 0)
(0 0 0)
(0 0 0)
(0 0 0)
(0 0 0)
(0 0 0)
(0 0 0)
(0 0 0)
(0 0 0)
(0 0 0)
(0 0 0)
(0 0 0)
(0 0 0)
(0 0 0)
(0 0 0)
(0 0 0)
(0 0 0)
(0 0 0)
(0 0 0)
(0 0 0)
(0 0 0)
(0 0 0)
(0 0 0)
(0 0 0)
(0 0 0)
(0 0 0)
(0 0 0)
(0 0 0)
(0 0 0)
(0 0 0)
(0 0 0)
(0 0 0)
(0 0 0)
(0 0 0)
(0 0 0)
(0 0 0)
(0 0 0)
(0 0 0)
(0 0 0)
(0 0 0)
(0 0 0)
(0 0 0)
(0 0 0)
(0 0 0)
(0 0 0)
(0 0 0)
(0 0 0)
(0 0 0)
(0 0 0)
(0 0 0)
(0 0 0)
(0 0 0)
(0 0 0)
(0 0 0)
(0 0 0)
(0 0 0)
(0 0 0)
(0 0 0)
(0 0 0)
(0 0 0)
(0 0 0)
(0 0 0)
(0 0 0)
(0 0 0)
(0 0 0)
(0 0 0)
(0 0 0)
(0 0 0)
(0 0 0)
(0 0 0)
(0 0 0)
(0 0 0)
(0 0 0)
(0 0 0)
(0 0 0)
(0 0 0)
(0 0 0)
(0 0 0)
(0 0 0)
(0 0 0)
(0 0 0)
(0 0 0)
(0 0 0)
(0 0 0)
(0 0 0)
(0 0 0)
(0 0 0)
(0 0 0)
(0 0 0)
(0 0 0)
(0 0 0)
(0 0 0)
(0 0 0)
(0 0 0)
(0 0 0)
(0 0 0)
(0 0 0)
(0 0 0)
(0 0 0)
(0 0 0)
(0 0 0)
(0 0 0)
(0 0 0)
(0 0 0)
(0 0 0)
(0 0 0)
(0 0 0)
(0 0 0)
(0 0 0)
(0 0 0)
(0 0 0)
(0 0 0)
(0 0 0)
(0 0 0)
(0 0 0)
(0 0 0)
(0 0 0)
(0 0 0)
(0 0 0)
(0 0 0)
(0 0 0)
(0 0 0)
(0 0 0)
(0 0 0)
(0 0 0)
(0 0 0)
(0 0 0)
(0 0 0)
(0 0 0)
(0 0 0)
(0 0 0)
(0 0 0)
(0 0 0)
(0 0 0)
(0 0 0)
(0 0 0)
(0 0 0)
(0 0 0)
(0 0 0)
(0 0 0)
(0 0 0)
(0 0 0)
(0 0 0)
(0 0 0)
(0 0 0)
(0 0 0)
(0 0 0)
(0 0 0)
(0 0 0)
(0 0 0)
(0 0 0)
(0 0 0)
(0 0 0)
(0 0 0)
(0 0 0)
(0 0 0)
(0 0 0)
(0 0 0)
(0 0 0)
(0 0 0)
(0 0 0)
(0 0 0)
(0 0 0)
(0 0 0)
(0 0 0)
(0 0 0)
(0 0 0)
(0 0 0)
(0 0 0)
(0 0 0)
(0 0 0)
(0 0 0)
(0 0 0)
(0 0 0)
(0 0 0)
(0 0 0)
(0 0 0)
(0 0 0)
(0 0 0)
(0 0 0)
(0 0 0)
(0 0 0)
(0 0 0)
(0 0 0)
(0 0 0)
(0 0 0)
(0 0 0)
(0 0 0)
(0 0 0)
(0 0 0)
(0 0 0)
(0 0 0)
(0 0 0)
(0 0 0)
(0 0 0)
(0 0 0)
(0 0 0)
(0 0 0)
(0 0 0)
(0 0 0)
(0 0 0)
(0 0 0)
(0 0 0)
(0 0 0)
(0 0 0)
(0 0 0)
(0 0 0)
(0 0 0)
(0 0 0)
(0 0 0)
(0 0 0)
(0 0 0)
(0 0 0)
(0 0 0)
(0 0 0)
(0 0 0)
(0 0 0)
(0 0 0)
(0 0 0)
(0 0 0)
(0 0 0)
(0 0 0)
(0 0 0)
(0 0 0)
(0 0 0)
(0 0 0)
(0 0 0)
(0 0 0)
(0 0 0)
(0 0 0)
(0 0 0)
(0 0 0)
(0 0 0)
(0 0 0)
(0 0 0)
(0 0 0)
(0 0 0)
(0 0 0)
(0 0 0)
(0 0 0)
(0 0 0)
(0 0 0)
(0 0 0)
(0 0 0)
(0 0 0)
(0 0 0)
(0 0 0)
(0 0 0)
(0 0 0)
(0 0 0)
(0 0 0)
(0 0 0)
(0 0 0)
(0 0 0)
(0 0 0)
(0 0 0)
(0 0 0)
(0 0 0)
(0 0 0)
(0 0 0)
(0 0 0)
(0 0 0)
(0 0 0)
(0 0 0)
(0 0 0)
(0 0 0)
(0 0 0)
(0 0 0)
(0 0 0)
(0 0 0)
(0 0 0)
(0 0 0)
(0 0 0)
(0 0 0)
(0 0 0)
(0 0 0)
(0 0 0)
(0 0 0)
(0 0 0)
(0 0 0)
(0 0 0)
(0 0 0)
(0 0 0)
(0 0 0)
(0 0 0)
(0 0 0)
(0 0 0)
(0 0 0)
(0 0 0)
(0 0 0)
(0 0 0)
(0 0 0)
(0 0 0)
(0 0 0)
(0 0 0)
(0 0 0)
(0 0 0)
(0 0 0)
(0 0 0)
(0 0 0)
(0 0 0)
(0 0 0)
(0 0 0)
(0 0 0)
(0 0 0)
(0 0 0)
(0 0 0)
(0 0 0)
(0 0 0)
(0 0 0)
(0 0 0)
(0 0 0)
(0 0 0)
(0 0 0)
(0 0 0)
(0 0 0)
(0 0 0)
(0 0 0)
(0 0 0)
(0 0 0)
(0 0 0)
(0 0 0)
(0 0 0)
(0 0 0)
(0 0 0)
(0 0 0)
(0 0 0)
(0 0 0)
(0 0 0)
(0 0 0)
(0 0 0)
(0 0 0)
(0 0 0)
(0 0 0)
(0 0 0)
(0 0 0)
(0 0 0)
(0 0 0)
(0 0 0)
(0 0 0)
(0 0 0)
(0 0 0)
(0 0 0)
(0 0 0)
(0 0 0)
(0 0 0)
(0 0 0)
(0 0 0)
(0 0 0)
(0 0 0)
(0 0 0)
(0 0 0)
(0 0 0)
(0 0 0)
(0 0 0)
(0 0 0)
(0 0 0)
(0 0 0)
(0 0 0)
(0 0 0)
(0 0 0)
(0 0 0)
(0 0 0)
(0 0 0)
(0 0 0)
(0 0 0)
(0 0 0)
(0 0 0)
(0 0 0)
(0 0 0)
(0 0 0)
(0 0 0)
(0 0 0)
(0 0 0)
(0 0 0)
(0 0 0)
(0 0 0)
(0 0 0)
(0 0 0)
(0 0 0)
(0 0 0)
(0 0 0)
(0 0 0)
(0 0 0)
(0 0 0)
(0 0 0)
(0 0 0)
(0 0 0)
(0 0 0)
(0 0 0)
(0 0 0)
(0 0 0)
(0 0 0)
(0 0 0)
(0 0 0)
(0 0 0)
(0 0 0)
(0 0 0)
(0 0 0)
(0 0 0)
(0 0 0)
(0 0 0)
(0 0 0)
(0 0 0)
(0 0 0)
(0 0 0)
(0 0 0)
(0 0 0)
(0 0 0)
(0 0 0)
(0 0 0)
(0 0 0)
(0 0 0)
(0 0 0)
(0 0 0)
(0 0 0)
(0 0 0)
(0 0 0)
(0 0 0)
(0 0 0)
(0 0 0)
(0 0 0)
(0 0 0)
(0 0 0)
(0 0 0)
(0 0 0)
(0 0 0)
(0 0 0)
(0 0 0)
(0 0 0)
(0 0 0)
(0 0 0)
(0 0 0)
(0 0 0)
(0 0 0)
(0 0 0)
(0 0 0)
(0 0 0)
(0 0 0)
(0 0 0)
(0 0 0)
(0 0 0)
(0 0 0)
(0 0 0)
(0 0 0)
(0 0 0)
(0 0 0)
(0 0 0)
(0 0 0)
(0 0 0)
(0 0 0)
(0 0 0)
(0 0 0)
(0 0 0)
(0 0 0)
(0 0 0)
(0 0 0)
(0 0 0)
(0 0 0)
(0 0 0)
(0 0 0)
(0 0 0)
(0 0 0)
(0 0 0)
(0 0 0)
(0 0 0)
(0 0 0)
(0 0 0)
(0 0 0)
(0 0 0)
(0 0 0)
(0 0 0)
(0 0 0)
(0 0 0)
(0 0 0)
(0 0 0)
(0 0 0)
(0 0 0)
(0 0 0)
(0 0 0)
(0 0 0)
(0 0 0)
(0 0 0)
(0 0 0)
(0 0 0)
(0 0 0)
(0 0 0)
(0 0 0)
(0 0 0)
(0 0 0)
(0 0 0)
(0 0 0)
(0 0 0)
(0 0 0)
(0 0 0)
(0 0 0)
(0 0 0)
(0 0 0)
(0 0 0)
(0 0 0)
(0 0 0)
(0 0 0)
(0 0 0)
(0 0 0)
(0 0 0)
(0 0 0)
(0 0 0)
(0 0 0)
(0 0 0)
(0 0 0)
(0 0 0)
(0 0 0)
(0 0 0)
(0 0 0)
(0 0 0)
(0 0 0)
(0 0 0)
(0 0 0)
(0 0 0)
(0 0 0)
(0 0 0)
(0 0 0)
(0 0 0)
(0 0 0)
(0 0 0)
(0 0 0)
(0 0 0)
(0 0 0)
(0 0 0)
(0 0 0)
(0 0 0)
(0 0 0)
(0 0 0)
(0 0 0)
(0 0 0)
(0 0 0)
(0 0 0)
(0 0 0)
(0 0 0)
(0 0 0)
(0 0 0)
(0 0 0)
(0 0 0)
(0 0 0)
(0 0 0)
(0 0 0)
(0 0 0)
(0 0 0)
(0 0 0)
(0 0 0)
(0 0 0)
(0 0 0)
(0 0 0)
(0 0 0)
(0 0 0)
(0 0 0)
(0 0 0)
(0 0 0)
(0 0 0)
(0 0 0)
(0 0 0)
(0 0 0)
(0 0 0)
(0 0 0)
(0 0 0)
(0 0 0)
(0 0 0)
(0 0 0)
(0 0 0)
(0 0 0)
(0 0 0)
(0 0 0)
(0 0 0)
(0 0 0)
(0 0 0)
(0 0 0)
(0 0 0)
(0 0 0)
(0 0 0)
(0 0 0)
(0 0 0)
(0 0 0)
(0 0 0)
(0 0 0)
(0 0 0)
(0 0 0)
(0 0 0)
(0 0 0)
(0 0 0)
(0 0 0)
(0 0 0)
(0 0 0)
(0 0 0)
(0 0 0)
(0 0 0)
(0 0 0)
(0 0 0)
(0 0 0)
(0 0 0)
(0 0 0)
(0 0 0)
(0 0 0)
(0 0 0)
(0 0 0)
(0 0 0)
(0 0 0)
(0 0 0)
(0 0 0)
(0 0 0)
(0 0 0)
(0 0 0)
(0 0 0)
(0 0 0)
(0 0 0)
(0 0 0)
(0 0 0)
(0 0 0)
(0 0 0)
(0 0 0)
(0 0 0)
(0 0 0)
(0 0 0)
(0 0 0)
(0 0 0)
(0 0 0)
(0 0 0)
(0 0 0)
(0 0 0)
(0 0 0)
(0 0 0)
(0 0 0)
(0 0 0)
(0 0 0)
(0 0 0)
(0 0 0)
(0 0 0)
(0 0 0)
(0 0 0)
(0 0 0)
(0 0 0)
(0 0 0)
(0 0 0)
(0 0 0)
(0 0 0)
(0 0 0)
(0 0 0)
(0 0 0)
(0 0 0)
(0 0 0)
(0 0 0)
(0 0 0)
(0 0 0)
(0 0 0)
(0 0 0)
(0 0 0)
(0 0 0)
(0 0 0)
(0 0 0)
(0 0 0)
(0 0 0)
(0 0 0)
(0 0 0)
(0 0 0)
(0 0 0)
(0 0 0)
(0 0 0)
(0 0 0)
(0 0 0)
(0 0 0)
(0 0 0)
(0 0 0)
(0 0 0)
(0 0 0)
(0 0 0)
(0 0 0)
(0 0 0)
(0 0 0)
(0 0 0)
(0 0 0)
(0 0 0)
(0 0 0)
(0 0 0)
(0 0 0)
(0 0 0)
(0 0 0)
(0 0 0)
(0 0 0)
(0 0 0)
(0 0 0)
(0 0 0)
(0 0 0)
(0 0 0)
(0 0 0)
(0 0 0)
(0 0 0)
(0 0 0)
(0 0 0)
(0 0 0)
(0 0 0)
(0 0 0)
(0 0 0)
(0 0 0)
(0 0 0)
(0 0 0)
(0 0 0)
(0 0 0)
(0 0 0)
(0 0 0)
(0 0 0)
(0 0 0)
(0 0 0)
(0 0 0)
(0 0 0)
(0 0 0)
(0 0 0)
(0 0 0)
(0 0 0)
(0 0 0)
(0 0 0)
(0 0 0)
(0 0 0)
(0 0 0)
(0 0 0)
(0 0 0)
(0 0 0)
(0 0 0)
(0 0 0)
(0 0 0)
(0 0 0)
(0 0 0)
(0 0 0)
(0 0 0)
(0 0 0)
(0 0 0)
(0 0 0)
(0 0 0)
(0 0 0)
(0 0 0)
(0 0 0)
(0 0 0)
(0 0 0)
(0 0 0)
(0 0 0)
(0 0 0)
(0 0 0)
(0 0 0)
(0 0 0)
(0 0 0)
(0 0 0)
(0 0 0)
(0 0 0)
(0 0 0)
(0 0 0)
(0 0 0)
(0 0 0)
(0 0 0)
(0 0 0)
(0 0 0)
(0 0 0)
(0 0 0)
(0 0 0)
(0 0 0)
(0 0 0)
(0 0 0)
(0 0 0)
(0 0 0)
(0 0 0)
(0 0 0)
(0 0 0)
(0 0 0)
(0 0 0)
(0 0 0)
(0 0 0)
(0 0 0)
(0 0 0)
(0 0 0)
(0 0 0)
(0 0 0)
(0 0 0)
(0 0 0)
(0 0 0)
(0 0 0)
(0 0 0)
(0 0 0)
(0 0 0)
(0 0 0)
(0 0 0)
(0 0 0)
(0 0 0)
(0 0 0)
(0 0 0)
(0 0 0)
(0 0 0)
(0 0 0)
(0 0 0)
(0 0 0)
(0 0 0)
(0 0 0)
(0 0 0)
(0 0 0)
(0 0 0)
(0 0 0)
(0 0 0)
(0 0 0)
(0 0 0)
(0 0 0)
(0 0 0)
(0 0 0)
(0 0 0)
(0 0 0)
(0 0 0)
(0 0 0)
(0 0 0)
(0 0 0)
(0 0 0)
(0 0 0)
(0 0 0)
(0 0 0)
(0 0 0)
(0 0 0)
(0 0 0)
(0 0 0)
(0 0 0)
(0 0 0)
(0 0 0)
(0 0 0)
(0 0 0)
(0 0 0)
(0 0 0)
(0 0 0)
(0 0 0)
(0 0 0)
(0 0 0)
(0 0 0)
(0 0 0)
(0 0 0)
(0 0 0)
(0 0 0)
(0 0 0)
(0 0 0)
(0 0 0)
(0 0 0)
(0 0 0)
(0 0 0)
(0 0 0)
(0 0 0)
(0 0 0)
(0 0 0)
(0 0 0)
(0 0 0)
(0 0 0)
(0 0 0)
(0 0 0)
(0 0 0)
(0 0 0)
(0 0 0)
(0 0 0)
(0 0 0)
(0 0 0)
(0 0 0)
(0 0 0)
(0 0 0)
(0 0 0)
(0 0 0)
(0 0 0)
(0 0 0)
(0 0 0)
(0 0 0)
(0 0 0)
(0 0 0)
(0 0 0)
(0 0 0)
(0 0 0)
(0 0 0)
(0 0 0)
(0 0 0)
(0 0 0)
(0 0 0)
(0 0 0)
(0 0 0)
(0 0 0)
(0 0 0)
(0 0 0)
(0 0 0)
(0 0 0)
(0 0 0)
(0 0 0)
(0 0 0)
(0 0 0)
(0 0 0)
(0 0 0)
(0 0 0)
(0 0 0)
(0 0 0)
(0 0 0)
(0 0 0)
(0 0 0)
(0 0 0)
(0 0 0)
(0 0 0)
(0 0 0)
(0 0 0)
(0 0 0)
(0 0 0)
(0 0 0)
(0 0 0)
(0 0 0)
(0 0 0)
(0 0 0)
(0 0 0)
(0 0 0)
(0 0 0)
(0 0 0)
(0 0 0)
(0 0 0)
(0 0 0)
(0 0 0)
(0 0 0)
(0 0 0)
(0 0 0)
(0 0 0)
(0 0 0)
(0 0 0)
(0 0 0)
(0 0 0)
(0 0 0)
(0 0 0)
(0 0 0)
(0 0 0)
(0 0 0)
(0 0 0)
(0 0 0)
(0 0 0)
(0 0 0)
(0 0 0)
(0 0 0)
(0 0 0)
(0 0 0)
(0 0 0)
(0 0 0)
(0 0 0)
(0 0 0)
(0 0 0)
(0 0 0)
(0 0 0)
(0 0 0)
(0 0 0)
(0 0 0)
(0 0 0)
(0 0 0)
(0 0 0)
(0 0 0)
(0 0 0)
(0 0 0)
(0 0 0)
(0 0 0)
(0 0 0)
(0 0 0)
(0 0 0)
(0 0 0)
(0 0 0)
(0 0 0)
(0 0 0)
(0 0 0)
(0 0 0)
(0 0 0)
(0 0 0)
(0 0 0)
(0 0 0)
(0 0 0)
(0 0 0)
(0 0 0)
(0 0 0)
(0 0 0)
(0 0 0)
(0 0 0)
(0 0 0)
(0 0 0)
(0 0 0)
(0 0 0)
(0 0 0)
(0 0 0)
(0 0 0)
(0 0 0)
(0 0 0)
(0 0 0)
(0 0 0)
(0 0 0)
(0 0 0)
(0 0 0)
(0 0 0)
(0 0 0)
(0 0 0)
(0 0 0)
(0 0 0)
(0 0 0)
(0 0 0)
(0 0 0)
(0 0 0)
(0 0 0)
(0 0 0)
(0 0 0)
(0 0 0)
(0 0 0)
(0 0 0)
(0 0 0)
(0 0 0)
(0 0 0)
(0 0 0)
(0 0 0)
(0 0 0)
(0 0 0)
(0 0 0)
(0 0 0)
(0 0 0)
(0 0 0)
(0 0 0)
(0 0 0)
(0 0 0)
(0 0 0)
(0 0 0)
(0 0 0)
(0 0 0)
(0 0 0)
(0 0 0)
(0 0 0)
(0 0 0)
(0 0 0)
(0 0 0)
(0 0 0)
(0 0 0)
(0 0 0)
(0 0 0)
(0 0 0)
(0 0 0)
(0 0 0)
(0 0 0)
(0 0 0)
(0 0 0)
(0 0 0)
(0 0 0)
(0 0 0)
(0 0 0)
(0 0 0)
(0 0 0)
(0 0 0)
(0 0 0)
(0 0 0)
(0 0 0)
(0 0 0)
(0 0 0)
(0 0 0)
(0 0 0)
(0 0 0)
(0 0 0)
(0 0 0)
(0 0 0)
(0 0 0)
(0 0 0)
(0 0 0)
(0 0 0)
(0 0 0)
(0 0 0)
(0 0 0)
(0 0 0)
(0 0 0)
(0 0 0)
(0 0 0)
(0 0 0)
(0 0 0)
(0 0 0)
(0 0 0)
(0 0 0)
(0 0 0)
(0 0 0)
(0 0 0)
(0 0 0)
(0 0 0)
(0 0 0)
(0 0 0)
(0 0 0)
(0 0 0)
(0 0 0)
(0 0 0)
(0 0 0)
(0 0 0)
(0 0 0)
(0 0 0)
(0 0 0)
(0 0 0)
(0 0 0)
(0 0 0)
(0 0 0)
(0 0 0)
(0 0 0)
(0 0 0)
(0 0 0)
(0 0 0)
(0 0 0)
(0 0 0)
(0 0 0)
(0 0 0)
(0 0 0)
(0 0 0)
(0 0 0)
(0 0 0)
(0 0 0)
(0 0 0)
(0 0 0)
(0 0 0)
(0 0 0)
(0 0 0)
(0 0 0)
(0 0 0)
(0 0 0)
(0 0 0)
(0 0 0)
(0 0 0)
(0 0 0)
(0 0 0)
(0 0 0)
(0 0 0)
(0 0 0)
(0 0 0)
(0 0 0)
(0 0 0)
(0 0 0)
(0 0 0)
(0 0 0)
(0 0 0)
(0 0 0)
(0 0 0)
(0 0 0)
(0 0 0)
(0 0 0)
(0 0 0)
(0 0 0)
(0 0 0)
(0 0 0)
(0 0 0)
(0 0 0)
(0 0 0)
(0 0 0)
(0 0 0)
(0 0 0)
(0 0 0)
(0 0 0)
(0 0 0)
(0 0 0)
(0 0 0)
(0 0 0)
(0 0 0)
(0 0 0)
(0 0 0)
(0 0 0)
(0 0 0)
(0 0 0)
(0 0 0)
(0 0 0)
(0 0 0)
(0 0 0)
(0 0 0)
(0 0 0)
(0 0 0)
(0 0 0)
(0 0 0)
(0 0 0)
(0 0 0)
(0 0 0)
(0 0 0)
(0 0 0)
(0 0 0)
(0 0 0)
(0 0 0)
(0 0 0)
(0 0 0)
(0 0 0)
(0 0 0)
(0 0 0)
(0 0 0)
(0 0 0)
(0 0 0)
(0 0 0)
(0 0 0)
(0 0 0)
(0 0 0)
(0 0 0)
(0 0 0)
(0 0 0)
(0 0 0)
(0 0 0)
(0 0 0)
(0 0 0)
(0 0 0)
(0 0 0)
(0 0 0)
(0 0 0)
(0 0 0)
(0 0 0)
(0 0 0)
(0 0 0)
(0 0 0)
(0 0 0)
(0 0 0)
(0 0 0)
(0 0 0)
(0 0 0)
(0 0 0)
(0 0 0)
(0 0 0)
(0 0 0)
(0 0 0)
(0 0 0)
(0 0 0)
(0 0 0)
(0 0 0)
(0 0 0)
(0 0 0)
(0 0 0)
(0 0 0)
(0 0 0)
(0 0 0)
(0 0 0)
(0 0 0)
(0 0 0)
(0 0 0)
(0 0 0)
(0 0 0)
(0 0 0)
(0 0 0)
(0 0 0)
(0 0 0)
(0 0 0)
(0 0 0)
(0 0 0)
(0 0 0)
(0 0 0)
(0 0 0)
(0 0 0)
(0 0 0)
(0 0 0)
(0 0 0)
(0 0 0)
(0 0 0)
(0 0 0)
(0 0 0)
(0 0 0)
(0 0 0)
(0 0 0)
(0 0 0)
(0 0 0)
(0 0 0)
(0 0 0)
(0 0 0)
(0 0 0)
(0 0 0)
(0 0 0)
(0 0 0)
(0 0 0)
(0 0 0)
(0 0 0)
(0 0 0)
(0 0 0)
(0 0 0)
(0 0 0)
(0 0 0)
(0 0 0)
(0 0 0)
(0 0 0)
(0 0 0)
(0 0 0)
(0 0 0)
(0 0 0)
(0 0 0)
(0 0 0)
(0 0 0)
(0 0 0)
(0 0 0)
(0 0 0)
(0 0 0)
(0 0 0)
(0 0 0)
(0 0 0)
(0 0 0)
(0 0 0)
(0 0 0)
(0 0 0)
(0 0 0)
(0 0 0)
(0 0 0)
(0 0 0)
(0 0 0)
(0 0 0)
(0 0 0)
(0 0 0)
(0 0 0)
(0 0 0)
(0 0 0)
(0 0 0)
(0 0 0)
(0 0 0)
(0 0 0)
(0 0 0)
(0 0 0)
(0 0 0)
(0 0 0)
(0 0 0)
(0 0 0)
(0 0 0)
(0 0 0)
(0 0 0)
(0 0 0)
(0 0 0)
(0 0 0)
(0 0 0)
(0 0 0)
(0 0 0)
(0 0 0)
(0 0 0)
(0 0 0)
(0 0 0)
(0 0 0)
(0 0 0)
(0 0 0)
(0 0 0)
(0 0 0)
(0 0 0)
(0 0 0)
(0 0 0)
(0 0 0)
(0 0 0)
(0 0 0)
(0 0 0)
(0 0 0)
(0 0 0)
(0 0 0)
(0 0 0)
(0 0 0)
(0 0 0)
(0 0 0)
(0 0 0)
(0 0 0)
(0 0 0)
(0 0 0)
(0 0 0)
(0 0 0)
(0 0 0)
(0 0 0)
(0 0 0)
(0 0 0)
(0 0 0)
(0 0 0)
(0 0 0)
(0 0 0)
(0 0 0)
(0 0 0)
(0 0 0)
(0 0 0)
(0 0 0)
(0 0 0)
(0 0 0)
(0 0 0)
(0 0 0)
(0 0 0)
(0 0 0)
(0 0 0)
(0 0 0)
(0 0 0)
(0 0 0)
(0 0 0)
(0 0 0)
(0 0 0)
(0 0 0)
(0 0 0)
(0 0 0)
(0 0 0)
(0 0 0)
(0 0 0)
(0 0 0)
(0 0 0)
(0 0 0)
(0 0 0)
(0 0 0)
(0 0 0)
(0 0 0)
(0 0 0)
(0 0 0)
(0 0 0)
(0 0 0)
(0 0 0)
(0 0 0)
(0 0 0)
(0 0 0)
(0 0 0)
(0 0 0)
(0 0 0)
(0 0 0)
(0 0 0)
(0 0 0)
(0 0 0)
(0 0 0)
(0 0 0)
(0 0 0)
(0 0 0)
(0 0 0)
(0 0 0)
(0 0 0)
(0 0 0)
(0 0 0)
(0 0 0)
(0 0 0)
(0 0 0)
(0 0 0)
(0 0 0)
(0 0 0)
(0 0 0)
(0 0 0)
(0 0 0)
(0 0 0)
(0 0 0)
(0 0 0)
(0 0 0)
(0 0 0)
(0 0 0)
(0 0 0)
(0 0 0)
(0 0 0)
(0 0 0)
(0 0 0)
(0 0 0)
(0 0 0)
(0 0 0)
(0 0 0)
(0 0 0)
(0 0 0)
(0 0 0)
(0 0 0)
(0 0 0)
(0 0 0)
(0 0 0)
(0 0 0)
(0 0 0)
(0 0 0)
(0 0 0)
(0 0 0)
(0 0 0)
(0 0 0)
(0 0 0)
(0 0 0)
(0 0 0)
(0 0 0)
(0 0 0)
(0 0 0)
(0 0 0)
(0 0 0)
(0 0 0)
(0 0 0)
(0 0 0)
(0 0 0)
(0 0 0)
(0 0 0)
(0.0107242 0.0649045 -0.0500984)
(0.0194513 0.00295034 -0.00710366)
(0.0717416 0.100388 -0.0581959)
(0.094516 0.103191 -0.0354757)
(0.0134737 0.00625008 -0.00360593)
(-0.072224 0.0836821 -0.00458872)
(-0.105627 0.109439 -0.0418097)
(-0.0469598 0.058992 -0.0568493)
(-0.0611207 0.104218 -0.00372349)
(-0.0257282 0.124607 -0.0491269)
(0.0112443 0.190352 -0.0428525)
(-0.05145 0.229092 -0.0391111)
(0.0568224 0.326219 -0.00971706)
(0.11544 0.239085 -0.0323036)
(0.128785 0.250034 0.00462649)
(0.163332 0.371063 -0.00824098)
(0.168252 0.397218 0.0169398)
(-0.105344 0.231547 0.0149863)
(-0.144764 0.245198 0.002929)
(-0.0812755 0.352157 0.0350422)
(-0.150838 0.382637 0.0591884)
(-0.0831999 0.176494 -0.0540272)
(-0.0267544 0.103496 -0.0709874)
(-0.0831438 0.342652 0.0286886)
(-0.0411108 0.257039 -0.0672729)
(0.00978765 0.165305 -0.0564007)
(-0.0233334 0.07486 -0.000244133)
(0.0470974 0.0424328 -0.112898)
(0.0834936 0.0127433 -0.0252893)
(0.00140727 0.240313 0.0113338)
(0.0940711 0.434659 0.0357346)
(0.0786877 0.176683 0.00381392)
(0.11686 0.243915 0.0218139)
(0.161447 0.493401 0.0305067)
(0.206597 0.471532 0.0116621)
(0.156587 0.325588 0.0318868)
(0.0305955 0.167867 -0.000112765)
(0.0260557 0.327618 0.0107048)
(0.0110747 0.242079 0.0413353)
(0.0418291 0.207629 -0.00830181)
(0.0684237 0.141253 -0.000353634)
(-0.0203813 0.404028 0.0899444)
(0.00457926 0.414528 0.0490483)
(0.104655 0.229635 0.0320935)
(0.0265444 0.407024 0.0738516)
(0.00244421 0.236911 -0.0128042)
(0.000281306 0.174901 0.034509)
(0.00916146 0.0317614 0.00402462)
(0.0665802 0.0839922 -0.111971)
(0.148533 0.112495 -0.0690652)
(0.14999 0.155654 -0.033901)
(0.242622 0.0392729 0.0158024)
(0.197956 -0.0171008 0.00399635)
(0.241227 0.0957281 0.0257057)
(0.154982 -0.130635 0.0430506)
(0.0962071 0.102446 0.00717498)
(0.0824608 0.118359 -0.0021163)
(0.0880359 -0.0958585 0.0168224)
(0.151312 0.0452227 -0.0185475)
(0.12085 0.0693881 -0.0111604)
(0.13965 0.125218 -0.00203156)
(0.234646 0.0667297 -0.0201396)
(0.158632 0.193668 0.00253227)
(0.101062 0.196423 0.00429992)
(0.0478526 0.243126 0.0290153)
(0.0310626 0.249635 0.00295499)
(0.0244116 0.228493 0.00335126)
(0.00582244 0.0580915 0.00887832)
(0.0020852 0.0250546 0.0040405)
(-0.00436711 0.00523437 -0.0012237)
(0.103459 0.102632 -0.00506778)
(0.137083 0.0284344 0.00848565)
(0.139238 -0.165516 0.0431493)
(0.0319485 -0.0453046 -0.028116)
(0.0671246 -0.141398 -0.00146642)
(0.180771 -0.258274 0.0814418)
(0.179483 -0.276739 0.0408837)
(0.130203 -0.210869 0.00850231)
(0.17297 -0.220921 0.0137847)
(0.153974 -0.273827 0.0172472)
(0.10685 -0.210193 0.0360022)
(0.121542 -0.196627 -0.0145642)
(0.047774 -0.214123 -0.00545797)
(0.0937458 -0.14724 0.0739903)
(0.071208 -0.0739534 0.028436)
(0.0806669 -0.194332 0.0123507)
(0.0504319 -0.0795142 0.00593855)
(0.0107699 -0.0461717 -0.00355876)
(0.0214092 -0.0729315 -0.0551953)
(0.0776809 -0.0965636 -0.0505365)
(0.128808 -0.101228 -0.0301618)
(0.0397037 -0.0232858 -0.0434788)
(0.0931098 -0.109962 -0.0221774)
(0.00604622 -0.0941993 -0.0529352)
(0.0291935 -0.0287874 -0.0197698)
(0.0624717 -0.109981 -0.0609694)
(-0.0344904 0.060984 -0.141173)
(-0.0359126 0.0491077 -0.200755)
(-0.0167512 0.029824 -0.155518)
(-0.0239606 0.10544 -0.149841)
(0.00497201 0.144249 -0.118451)
(-0.0575136 0.0347746 -0.257459)
(-0.0556691 0.0904471 -0.21478)
(-0.0590462 0.134947 -0.219422)
(0.0114691 0.169536 -0.0457062)
(0.00570208 0.115228 -0.10311)
(-0.00984536 0.0344091 -0.218293)
(0.0287197 0.159797 -0.170436)
(0.0566224 0.100244 -0.174549)
(0.00960791 0.0554156 -0.16102)
(0.0422793 0.0580247 -0.238144)
(-0.0425664 0.115882 -0.0616995)
(0.0355603 0.0767284 -0.17208)
(0.0200968 0.14196 -0.105945)
(0.0268412 0.143664 -0.117927)
(0.0932061 0.219555 -0.0567037)
(0.0118006 0.032381 -0.205555)
(0.0376737 0.10188 -0.158582)
(0.0791264 0.0736484 -0.194977)
(0.116546 0.132474 -0.0874914)
(-0.0226179 0.0566753 -0.195254)
(-0.0744148 0.263767 -0.0158525)
(-0.0726768 0.142982 -0.200928)
(-0.0268818 0.101864 -0.211794)
(-0.00493807 0.0505481 -0.294032)
(-0.0476855 0.121726 -0.0827141)
(-0.0463429 0.0767464 -0.314792)
(0.00454687 0.0980242 -0.187931)
(0.00386028 0.0547233 -0.293484)
(0.0401557 0.129197 -0.0320389)
(0.00638855 0.14243 -0.188346)
(0.0800256 0.190676 -0.084128)
(0.048193 0.168761 -0.132589)
(-0.000443083 0.11807 -0.190292)
(0.0346276 0.214297 -0.110712)
(0.0210853 0.279165 0.0512582)
(0.0515789 0.230961 0.0510117)
(-0.000233304 0.086312 -0.238315)
(0.0095484 0.180799 -0.0505851)
(0.040317 0.171427 -0.00627545)
(0.0933029 0.21146 -0.158549)
(0.0874797 0.200104 -0.0700283)
(0.0116342 0.115859 -0.303534)
(0.0374144 0.237986 -0.149807)
(0.0175846 0.136954 -0.0354344)
(0.0596098 0.174078 0.129884)
(0.0912363 -0.0305399 0.145045)
(0.0851169 0.287219 0.144119)
(0.0641301 0.237934 0.104818)
(0.0557201 0.0915148 0.237511)
(0.0706036 0.105674 0.011459)
(0.0192739 0.0259859 0.0233342)
(0.16743 -0.0860074 0.123099)
(0.0562875 0.00302113 -0.0207796)
(0.0958383 -0.070236 -0.00418206)
(0.0887192 0.0776916 0.0846159)
(0.171126 0.0380927 0.175899)
(0.0516508 0.0211377 -0.0511026)
(0.102182 -0.00293067 0.0133377)
(0.0658157 -0.0366229 0.0894655)
(0.13723 -0.148079 -0.0137824)
(0.0456074 -0.0334499 0.0550194)
(0.190025 -0.0686177 0.22333)
(-0.00541077 0.0721772 0.182438)
(0.212972 -0.102803 0.0503372)
(-0.082235 0.121465 0.122135)
(-0.0939368 0.131799 0.14196)
(0.0117212 -0.0397279 -0.140233)
(0.0106951 -0.0238387 -0.190209)
(-0.0102781 -0.108369 -0.085372)
(-0.00897427 -0.0268824 -0.176719)
(-0.0190363 -0.0382241 -0.196759)
(-0.0128898 -0.0749266 -0.178375)
(0.0131346 -0.0156904 -0.250502)
(0.0752483 -0.0898417 -0.161701)
(0.0188915 -0.0333025 -0.170194)
(0.0652238 -0.11174 -0.198468)
(0.0896456 -0.0674305 -0.239264)
(0.0498132 -0.0232785 -0.256385)
(0.0939406 -0.06949 -0.272896)
(-0.0128269 0.0346555 -0.247239)
(0.0207402 -0.00427682 -0.419726)
(-0.0401098 0.0246461 -0.352126)
(-0.0390813 0.059824 -0.262664)
(-0.0512381 0.0907265 -0.308026)
(0.00893615 0.00673438 -0.417105)
(-0.00137078 -0.00560386 -0.376135)
(-0.0326512 0.0164871 -0.363265)
(-0.0219613 0.0912466 -0.282121)
(0.0281902 0.0466948 -0.253446)
(-0.0133716 0.011636 -0.381335)
(-0.0441057 0.0234569 -0.331868)
(0.00987962 0.0176173 -0.322874)
(0.0660835 0.0482192 -0.307855)
(0.0664845 0.0373479 -0.393885)
(0.026462 0.0384689 -0.242431)
(0.00981907 -0.000710673 -0.27682)
(0.0444263 0.0543626 -0.192313)
(0.0614327 0.0293329 -0.24486)
(0.104122 0.0352068 -0.0903327)
(0.0232888 -0.00641936 -0.345398)
(-0.0011162 -0.0272275 -0.27319)
(0.0219537 -0.0179761 -0.275343)
(0.0482455 -0.169263 0.0328448)
(0.0274659 0.0365006 -0.366454)
(-0.0767433 0.0272606 -0.110782)
(-0.00937294 0.0585233 -0.376138)
(0.0280982 0.0107827 -0.367896)
(0.0460281 0.0481049 -0.413268)
(-0.0391376 0.0370202 -0.0587439)
(0.0196371 0.0655455 -0.401189)
(0.01645 0.0493733 -0.348573)
(0.0250667 0.0615161 -0.384715)
(0.00774589 0.0988359 -0.184763)
(0.00690777 0.0699588 -0.209557)
(0.00233273 0.156655 -0.125962)
(-0.0129294 0.00593684 -0.193935)
(0.000461471 -0.013155 -0.293307)
(-0.0591271 0.045619 -0.103835)
(0.00779526 0.152635 -0.124969)
(0.0218848 0.139781 -0.0536333)
(0.0122396 0.078199 -0.320588)
(0.0161521 0.149071 -0.183753)
(0.0295533 0.145668 -0.0993457)
(-0.0370849 0.203057 -0.101999)
(-0.0314049 0.126863 -0.0157206)
(-0.00759734 -0.0220275 -0.327486)
(-0.0682688 0.0983791 -0.0860236)
(-0.0501428 0.225658 0.00471082)
(-0.0214563 0.184505 0.0545222)
(-0.0121331 0.242605 0.336455)
(-0.0134831 0.280219 0.113653)
(-0.0253394 0.192923 0.0375633)
(-0.0576444 0.33472 0.323044)
(0.0103202 0.0304079 0.000565377)
(0.00158122 0.160407 -0.0193489)
(0.137748 0.125778 0.224431)
(0.0600312 0.0354095 -0.0929056)
(0.0736536 0.0704369 0.0969678)
(0.0241904 0.238113 0.204099)
(0.0920124 0.236435 0.301794)
(0.038636 0.0971662 -0.116707)
(0.0407543 0.19832 0.204415)
(-0.0711941 0.202917 0.224614)
(0.251146 -0.00734205 0.255699)
(-0.0696889 0.178348 0.179525)
(0.256636 0.0817453 0.462274)
(-0.0348006 0.266056 0.286214)
(0.241922 0.110966 0.37906)
(0.0677586 0.150994 0.246802)
(-0.10221 0.28642 0.250772)
(-0.0154857 0.00965876 -0.243535)
(-0.0273764 0.0624654 -0.194651)
(0.0403882 -0.00568381 -0.283498)
(0.0551554 -0.000289219 -0.307892)
(0.0155761 0.0669738 -0.188453)
(0.0709191 0.0130511 -0.302854)
(0.0816539 0.0060421 -0.336095)
(0.0617814 -0.029991 -0.272567)
(0.0609271 -0.0155489 -0.315632)
(0.050348 -0.0337461 -0.314815)
(0.0373779 -0.00835376 -0.263791)
(0.0596243 -0.0150411 -0.33969)
(0.00996928 -0.0102276 -0.29775)
(0.0377915 -0.0190123 -0.462598)
(0.0402824 -0.0207015 -0.409461)
(0.114564 -0.0247776 -0.495483)
(0.0488043 -0.0430256 -0.406468)
(0.00574532 -0.0779224 -0.339206)
(0.120481 -0.025567 -0.441714)
(0.088716 -0.0289522 -0.387859)
(0.0570546 -0.0833436 -0.294016)
(-0.0132833 -0.0343684 -0.333106)
(0.0230151 0.0064548 -0.351266)
(0.109052 -0.00898567 -0.487812)
(0.0319476 -0.103154 -0.274838)
(0.0599194 -0.0393367 -0.383951)
(0.0527309 0.0252118 -0.421121)
(0.0496276 0.0147495 -0.450793)
(-0.00548229 -0.0217791 -0.294058)
(-0.00859615 -0.000826431 -0.277677)
(-0.0404518 -0.0556659 -0.194445)
(-0.0206136 -0.0530871 -0.258731)
(-0.02971 -0.195034 0.0607632)
(-0.0209405 0.00885608 -0.37483)
(-0.0367734 -0.0194829 -0.219913)
(-0.0324059 -0.040414 -0.256827)
(-0.0945153 -0.151578 -0.0390332)
(0.051729 0.047338 -0.438373)
(0.0252945 0.0222987 0.126668)
(0.0292201 0.0643986 -0.40648)
(0.0698836 -0.00490588 -0.380357)
(0.0451038 0.0458389 -0.458254)
(0.0867418 -0.0273355 0.263147)
(0.0318615 0.0548061 -0.415979)
(0.0209087 0.0594947 -0.410113)
(0.0231533 0.0525031 -0.422444)
(-0.0186424 -0.0597261 -0.19945)
(-0.0060957 -0.0104485 -0.26272)
(-0.0498198 -0.0795137 -0.156294)