/*--------------------------------*- C++ -*----------------------------------*\
| =========                 |                                                 |
| \\      /  F ield         | OpenFOAM: The Open Source CFD Toolbox           |
|  \\    /   O peration     | Version:  5.x                                   |
|   \\  /    A nd           | Web:      www.OpenFOAM.org                      |
|    \\/     M anipulation  |                                                 |
\*---------------------------------------------------------------------------*/
FoamFile
{
    version     2.0;
    format      ascii;
    class       volScalarField;
    location    "0.95";
    object      Ksl;
}
// * * * * * * * * * * * * * * * * * * * * * * * * * * * * * * * * * * * * * //

dimensions      [1 -3 -1 0 0 0 0];

internalField   nonuniform List<scalar> 
10571
(
7579.14
9242.84
7243.69
4267.48
6439.96
9039.31
5422.14
546.163
1592.96
5689.18
6191.06
6489.37
1185.5
5127.16
6869.36
3262.15
1495.22
476.843
277.296
295.117
339.659
3131.3
1034.15
5062.04
9645.65
12538
10096.7
4120
497.619
7974.36
1880.62
5946.73
3977.61
1174.43
7569.36
543.085
1431.84
326.795
592.491
3533.87
586.764
1501.32
508.823
338.877
2087.35
1648.69
935.431
2534.2
3104.46
10762.6
6934.09
728.536
462.274
649.668
735.931
1976.87
1101.88
256.932
8738.96
310.135
743.614
710.707
1260.11
1014.74
938.249
2105.5
429.719
48.8233
2656.51
613.49
753.542
1824.3
3718.68
6783.79
7296.58
319.06
338.891
279.755
109.455
608.138
220.012
138.835
7902.37
717.625
591.799
774.082
464.871
442.495
721.698
767.524
958.297
166.402
768.081
608.147
487.694
2185.21
2019.56
8739.92
1714.83
579.24
228.187
414.949
1224.28
509.028
69.2875
412.992
6288.86
1053.67
189.036
151.935
167.025
326.983
298.273
467.924
396.268
563.135
432.694
914.168
368.856
671.754
349.336
1033.89
98.3668
199.579
101.023
1371.63
495.064
54.4615
37.305
398.998
23422.1
3758.94
638.501
193.979
152.855
43.2112
118.127
13003.6
126.138
748.364
299.596
184.079
48.7243
553.857
340.444
93.545
194.689
-6.01323e-16
8.44947
198.22
200.386
2620.79
112.337
66.0798
58.0778
108.571
6.83241
2339.16
1496.75
481.707
223.438
10.3643
2.77639
7.19883
795.414
166.689
110.568
15.6586
8.59045
0
124.751
26.5395
0
6.72437
-7.72485e-15
5.06854
116.645
114.655
17.7744
12.553
10.7384
27.2213
67.2939
0
114.588
94.8572
61.8285
9.8796
8.52411
0
0
71.7056
13.8789
13.6085
0
10.2134
0
47.5866
29.025
0
0.658484
8.37823
5.9481
5.3234
0
11.1038
4.16965
3.11395
2.86612
5.88163
5.85746
19.0472
19.6961
8.90303
5.29521
3.67551
0
0
57.5601
10.4822
5.87965
6.08485
0
22.499
5.73173
0
7.42122
2.49667
5.79096
14.1448
0
0
0.477519
2.32469
1.03175
0
-2.26179e-15
4.1002
5.73947
5.6981
1.99376
0
27.9768
5.92847
6.91741
8.10287
0
1.49864
0
0
0
14.6077
0
0
0
3.48596
2.22237
3.03536
0
0
13.8315
2.97955
2.10163
1.56171
0.965838
7.51191
7.29207
2.60558
3.22802
0
0
0
5.79397
15.2219
0
0
0
0
6.13865
0
1.28004
0.875749
0
0
0
-4.20363e-15
0.792262
2.17211
0.901635
0
0
2.47658
3.21575
0
0
0
5.72006
29.3986
0
15.681
7.22958
0
0
3.06316
1.25547
2.25932
0.944515
0
0.14957
4.81363
0.714511
0
0.94522
0
0.498001
3.62958
1.6656
0
0
1.00725
0
0
0
0
0
0
0
4.94333
1.73277
1.51841
0.924294
0
0
-1.42746e-15
0
1.55989
0
0
8.9751
0.723917
1.68876
0.284289
0
6.07851
5.9641
0
0
0
0
0
8.7139
13.4504
2.0254
1.49499
0.906253
0
0
0
1.8855
2.3361
1.9422
0
0
0.899102
0.0292147
0
0
5.53724
0
0
0
5.32042
0
0
0
8.62887
-5.61786e-16
0.502997
0
0
0
4.99421
4.30712
0.767132
0.96722
0
0.161118
0.0243981
0.846657
0
0
5.82746
0
0
0
0
0
0
0
0
1.72176
0.260046
0
0
0.504961
0
0.702093
0.774559
0
0
8.99854
0.717615
0
0
0
0
4.35944
0
0
0
0
0
0
8.91969
0.606163
0
0.905096
0
0
0
0.737324
0
0.944518
0
0
0.750543
0.869861
0
0
6.92409
0
0
0
0
0
0
0
0
0.616396
0
0
0
0
-4.4905e-15
0.743765
0
0
0
4.4102
0
0.86597
0
0
0.555839
0
0
0
0
0
0
0
0
0
0
0
0
0
0
0
0.781882
0
0
0
0.764969
0
0
0
-6.27625e-15
0
0
0
0
0
0
0
0
0
0.748237
0
0
0
0.194699
0
0
0
0
0
0.78564
0
0
0
0
0
0
0
0
0
0
0
0
0
0
0
0
0
0
1.48809
0
0
0
4.58047
0
0
0
0
0
0
0
0
0
0
0
0
-3.91863e-15
0
0
0
0
0
0
0
0
0
0
0
0
0.900977
0
0
0
0
0
0
0
0
0
0
0
0
0
0
0
0
0
0
0
0
0
0
0
0.903968
0
0
0
0
0
0
0
0
0
0
0
0
0
0
0
0
0
0
0
0
0
0
0
0
0
0
0
0
0
0
0
0
0
0
0
0
0
0
0
0
0
0
0
0
0
0
0
0
0
0
0
0
0
0
0
0
0
0
0
0
0
0
0
0
0
0
0
0
0
0
0
0
0
0
0
0
0
0
0
0
0
0
0
0
0
0
0
0
0
0
0
0
0
0
0
0
0
0
0
0
0
0
0
0
0
0
0
0
0
0
0
0
0
0
0
0
0
0
0
0
0
0
0
0
0
0
0
0
0
0
0
0
0
0
0
0
0
0
0
0
0
0
0
0
0
0
0
0
0
0
0
0
0
0
0
0
0
0
0
0
0
0
0
0
0
0
0
0
0
0
0
0
0
0
0
0
0
0
0
0
0
0
0
0
0
0
0
0
0
0
0
0
0
0
0
0
0
0
0
0
0
0
0
0
0
0
0
0
0
0
0
0
0
0
0
0
0
0
0
0
0
0
0
0
0
0
0
0
0
0
0
0
0
0
0
0
0
0
0
0
0
0
0
0
0
0
0
0
0
0
0
0
0
0
0
0
0
0
0
0
0
0
0
0
0
0
0
0
0
0
0
0
0
0
0
0
0
0
0
0
0
0
0
0
0
0
0
0
0
0
0
0
0
0
0
0
0
0
0
0
0
0
0
0
0
0
0
0
0
0
0
0
0
0
0
0
0
0
0
0
0
0
0
0
0
0
0
0
0
0
0
0
0
0
0
0
0
0
0
0
0
0
0
0
0
0
0
0
0
0
0
0
0
0
0
0
0
0
0
0
0
0
0
0
0
0
0
0
0
0
0
0
0
0
0
0
0
0
0
0
0
0
0
0
0
0
0
0
0
0
0
0
0
0
0
0
0
0
0
0
0
0
0
0
0
0
0
0
0
0
0
0
0
0
0
0
0
0
0
0
0
0
0
0
0
0
0
0
0
0
0
0
0
0
0
0
0
0
0
0
0
0
0
0
0
0
0
0
0
0
0
0
0
0
0
0
0
0
0
0
0
0
0
0
0
0
0
0
0
0
0
0
0
0
0
0
0
0
0
0
0
0
0
0
0
0
0
0
0
0
0
0
0
0
0
0
0
0
0
0
0
0
0
0
0
0
0
0
0
0
0
0
0
0
0
0
0
0
0
0
0
0
0
0
0
0
0
0
0
0
0
0
0
0
0
0
0
0
0
0
0
0
0
0
0
0
0
0
0
0
0
0
0
0
0
0
0
0
0
0
0
0
0
0
0
0
0
0
0
0
0
0
0
0
0
0
0
0
0
0
0
0
0
0
0
0
0
0
0
0
0
0
0
0
0
0
0
0
0
0
0
0
0
0
0
0
0
0
0
0
0
0
0
0
0
0
0
0
0
0
0
0
0
0
0
0
0
0
0
0
0
0
0
0
0
0
0
0
0
0
0
0
0
0
0
0
0
0
0
0
0
0
0
0
0
0
0
0
0
0
0
0
0
0
0
0
0
0
0
0
0
0
0
0
0
0
0
0
0
0
0
0
0
0
0
0
0
0
0
0
0
0
0
0
0
0
0
0
0
0
0
0
0
0
0
0
0
0
0
0
0
0
0
0
0
0
0
0
0
0
0
0
0
0
0
0
0
0
0
0
0
0
0
0
0
0
0
0
0
0
0
0
0
0
0
0
0
0
0
0
0
0
0
0
0
0
0
0
0
0
0
0
0
0
0
0
0
0
0
0
0
0
0
0
0
0
0
0
0
0
0
0
0
0
0
0
0
0
0
0
0
0
0
0
0
0
0
0
0
0
0
0
0
0
0
0
0
0
0
0
0
0
0
0
0
0
0
0
0
0
0
0
0
0
0
0
0
0
0
0
0
0
0
0
0
0
0
0
0
0
0
0
0
0
0
0
0
0
0
0
0
0
0
0
0
0
0
0
0
0
0
0
0
0
0
0
0
0
0
0
0
0
0
0
0
0
0
0
0
0
0
0
0
0
0
0
0
0
0
0
0
0
0
0
0
0
0
0
0
0
0
0
0
0
0
0
0
0
0
0
0
0
0
0
0
0
0
0
0
0
0
0
0
0
0
0
0
0
0
0
0
0
0
0
0
0
0
0
0
0
0
0
0
0
0
0
0
0
0
0
0
0
0
0
0
0
0
0
0
0
0
0
0
0
0
0
0
0
0
0
0
0
0
0
0
0
0
0
0
0
0
0
0
0
0
0
0
0
0
0
0
0
0
0
0
0
0
0
0
0
0
0
0
0
0
0
0
0
0
0
0
0
0
0
0
0
0
0
0
0
0
0
0
0
0
0
0
0
0
0
0
0
0
0
0
0
0
0
0
0
0
0
0
0
0
0
0
0
0
0
0
0
0
0
0
0
0
0
0
0
0
0
0
0
0
0
0
0
0
0
0
0
0
0
0
0
0
0
0
0
0
0
0
0
0
0
0
0
0
0
0
0
0
0
0
0
0
0
0
0
0
0
0
0
0
0
0
0
0
0
0
0
0
0
0
0
0
0
0
0
0
0
0
0
0
0
0
0
0
0
0
0
0
0
0
0
0
0
0
0
0
0
0
0
0
0
0
0
0
0
0
0
0
0
0
0
0
0
0
0
0
0
0
0
0
0
0
0
0
0
0
0
0
0
0
0
0
0
0
0
0
0
0
0
0
0
0
0
0
0
0
0
0
0
0
0
0
0
0
0
0
0
0
0
0
0
0
0
0
0
0
0
0
0
0
0
0
0
0
0
0
0
0
0
0
0
0
0
0
0
0
0
0
0
0
0
0
0
2711
2168.61
1372.29
1061.27
3864.81
1660.07
611.197
2425.58
3422.02
6648.98
6815.45
4743.35
4558.64
3875.56
1600.22
3586.64
1479.43
1970.21
476.361
1436.41
263.163
1525.54
3019.45
1111.16
5276.15
7299.25
3744.49
3502.76
4349.7
3798.69
1792.19
1929.87
651.978
1045.32
1318.13
181.722
704.766
1072.51
375.761
1394.25
3726.54
1152.69
3308.62
3236.01
434.915
5827.88
722.738
433.988
4851.68
5482.43
3908.97
1873.38
333.831
2892.1
1164.58
23.7552
1066.52
2765.76
5582.79
5702.05
7384.49
4838.34
1931.55
7420.81
5172.43
4378.44
4588.85
599.469
462.334
916.465
6793.03
6056.84
4906.62
7972.92
4526.79
1487.07
2915.63
2948.83
2774.24
898.427
1062.21
3158.75
4685.42
2608.05
2541.34
3132.29
1322.26
1272.91
5287.29
6729.81
3966.77
1434.2
6118
8955.61
3789.67
7876.92
3793.95
9056.68
4821.51
4088.98
5188.1
11331.1
9069.1
11168.3
6862.49
5730.85
10659.1
10706.1
9699.1
8030.1
9461.42
8257.72
12061.4
9385.57
9451.4
9396.48
11887
11022.1
11696.1
11281
9810.51
3923.36
9592.31
9129.89
6673.58
5980.64
8554.59
11594.5
6672.6
8552.08
10055.5
10155.4
11243.9
12076.5
11054.8
131.934
38.1387
3271.59
248.867
5.59429
8067.11
1846.84
7902.2
4236.69
3253.14
0
3069.12
4042.23
121.496
4861.26
4362.78
1917.54
566.801
3369.92
1054.19
1374.55
967.742
1484.86
3021.72
837.204
437.788
130.17
269.186
491.429
304.531
746.331
1169.69
2806.57
6301.18
1154.47
786.271
2724.6
1011.78
2707.11
8663.5
1675.07
570.68
3188.26
3457.29
3230.52
11237.6
10366.6
10905.2
11428.6
9207.75
7269.84
11071.6
3619.12
3798.89
1361.98
3621.25
819.384
909.759
641.109
794.079
12536.3
11549.6
12055.9
11675.2
8861.98
12067
12245.1
9555.19
5532.82
256.925
3431.67
2769.5
346.66
235.016
557.017
923.824
969.07
638.692
11791.5
12327.7
6361.41
9489.22
10892.4
4360.29
750.328
94.479
795.594
2141.71
889.967
825.591
500.464
9982.28
2179.64
626.435
1358.96
5917.38
2327.18
1986.93
4677.11
267.251
439.981
3000.42
509.126
2793.39
968.357
892.346
1051.32
755.087
27.922
188.879
38.3096
119.835
22.0045
106.935
0
1813.58
3963.18
1047.21
927.943
2493.59
985.169
597.96
1234.5
2216.8
2723.44
972.296
1379.88
938.505
2295.55
9651.81
8654.12
4096.1
9872.33
2610.15
3976.78
9337.78
2637.69
794.226
1122.74
2785.67
906.529
921.976
1112.14
975.572
8073.31
4949.6
11780.2
4865.82
2664.47
8279.07
10559.1
3843.41
1315.32
223.555
967.693
767.475
485.959
195.187
559.572
404.06
561.503
245.632
4864.11
10137.7
3798.29
2329.45
7376.2
1872.17
992.376
1739.05
115.568
325.293
661.582
4916.4
3046.61
8953.61
4439.58
6724.17
993.477
3603.86
576.299
918.714
1291.04
403.978
3501.33
797.739
2415.98
483.11
861.318
1362.12
1454.09
353.606
361.962
83.5357
0
129.637
1773.11
192.601
496.397
2525.5
844.806
718.479
556.964
1282.31
558.362
437.3
876.588
1297.7
753.993
622.188
1239.57
801.472
1838.52
6641.71
7657.35
3863.99
8141.56
2703.3
4293.7
8028.52
2404.98
944.352
735.935
2596.15
700.819
553.757
1030.36
628.719
4793.68
5369.5
9009.07
3385.48
1002.83
7455.68
9212.75
3904.64
1262.48
205.231
238.41
132.968
348.053
527.356
116.853
287.872
301.985
323.812
2060.35
4191.37
963.844
2275.41
4973.61
1103.19
317.299
537.835
271.976
213.16
639.991
2845.09
5727.98
6484.33
2406.28
1654.71
888.543
446.887
400.718
827.582
248.43
1258.72
203.077
500.584
681.169
413.835
561.259
414.893
550.622
406.108
719.995
269.991
3162.67
235.49
256.079
2887.87
1831.51
430.84
570.157
696.856
564.72
1162.92
889.652
516.006
1835.86
860.481
1189.76
249.718
830.804
1411.73
2263.61
8475.37
777.018
4073.94
5421.96
1433.8
2210.05
885.029
667.655
439.806
470.985
705.514
359.159
284.233
531.155
251.056
6065.87
7145.21
7343.97
4296.33
1420.9
6072.34
1328.78
5052.81
1837.2
940.633
77.4211
536.296
226.363
368.389
53.3423
193.91
849.251
635.194
3078.22
5220.52
1428.2
5293.19
5594.28
2239.34
214.001
693.643
576.255
263.437
830.204
1984.32
376.784
4761.83
1034.72
158.312
735.831
113.3
177.008
530.006
77.3431
74.539
203.759
460.219
315.9
378.747
180.202
363.301
346.504
288.957
301.057
1193.69
484.284
517.873
512.89
270.552
210.724
186.538
985.629
1061.4
845.736
3018.01
1166
1396.99
2463.1
817.315
2378.08
1055.39
547.114
1195.58
240.724
43.7462
1.96283
298.146
82.3922
202.9
135.792
15.1286
74.5824
286.062
223.691
234.737
218.891
127.707
164.019
213.501
7569.8
4322.92
140.743
5214.39
1825.14
42.3662
46.903
2125.33
737.063
265.595
42.1845
208.807
120.007
305.809
66.9414
212.892
513.966
249.839
6172.25
6460.63
3734.1
7263.4
6988.02
5340.03
977.447
108.911
1987.75
193.941
61.4357
89.1787
88.1737
12869.1
11460.1
14384.7
258.249
2054.01
487.291
2477.53
573.289
114.831
2504.86
547.956
197.891
1982.94
37.779
1270.41
36.4927
21.9848
4.57912
23.0812
13031.5
13525
17520.1
578.994
4652.38
602.274
7507.58
216.878
375.945
285.57
479.825
436.695
356.024
1007.47
530.959
777.834
117.323
137.788
84.2469
46.4509
26.0389
29.7905
19.2854
31.7256
998.932
491.055
613.923
284.271
186.282
78.7711
53.6507
150.189
96.8022
80.3256
74.2728
38.2421
19.7025
9.22167
4.79817
59.1754
5.47992
25.7122
27.9142
8.33316
24.5023
128.265
140.585
22.4428
104.42
80.3704
130.559
50.7575
157.787
17.5002
17.0005
147.643
108.798
28.155
13.9981
20.9512
12.0149
263.889
113.581
86.6702
158.587
193.037
265.598
215.232
127.14
11.2607
152.659
20.8299
6.55787
0
2.19241
0
1019.15
1967.79
3472.35
49.4244
172.004
407.55
31.8587
45.0649
8.95791
98.9635
17.8252
27.4389
11.6992
7.52758
23.277
3.14281
9.52781
0
6.13971
0
1951.52
612.894
1091.65
882.363
736.032
3.89274
22.5698
7.1605
20.2358
1.25697
0
10.1607
0
5.07333
24.8233
2.95658
3.50708
0
0
861.059
466.882
498.769
959.593
472.216
402.139
161.576
336.405
129.646
13.9352
11.7201
18.727
1.52886
14.9422
14.7334
0
3.5784
0
0
0
0
0
299.715
90.6919
43.9932
17.2051
25.179
35.5449
18.2754
29.2558
51.9855
57.1719
14.8714
104.501
11.3722
13.1485
0
17.7088
22.6741
12.9542
11.2693
5.72496
10.0363
39.5801
84.6821
33.5074
7.71754
9.17452
23.62
28.0203
23.5142
9.51723
9.9356
18.4382
17.4042
0
10.6857
11.8247
8.72083
124.011
178.425
142.467
28.3739
20.3652
12.6141
12.7963
73.159
13.7874
26.3631
11.5808
0
0
0
0
13.54
120.399
45.0088
19.7215
26.086
38.8661
11.2188
-6.58681e-17
0.60075
16.8262
0
-2.65245e-16
3.57297
0
0
0
0
0
0
0
107.063
253.595
34.4953
39.9311
60.0057
5.38663
16.3092
0
6.89462
0
-2.08822e-16
0
0
0
0
0
0
0
0
239.375
163.376
41.4696
113.176
33.5287
72.5814
33.9899
75.9612
43.1003
0
12.4223
0
0
6.7929
12.0588
11.0526
0
20.5899
0
0
0
0
79.0678
41.6541
29.689
20.6521
32.0754
49.0828
0
7.75299
0
5.51264
0
14.9121
13.9003
0
19.3667
40.3921
11.606
4.78589
16.3017
-5.21728e-15
3.23034
4.65932
6.12543
19.9127
6.00786
0
0
0
0.747641
0
5.09373
2.99613
5.00829
22.0903
6.0995
4.19638
3.74633
8.25009
0
0
0
0
0
0
2.13939
0
18.8867
16.6142
5.96702
9.87283
16.2688
14.42
0
8.59751
0
0
0
-4.69631e-15
0
0
0
0
0
0
0
0
25.4564
42.0214
15.6135
17.8904
29.6746
0
0
0
0
0
0
0
0
0
0
0
0
0
0
22.0489
54.908
8.99124
41.0917
26.3815
43.0856
19.5594
28.9796
16.1341
0.223993
14.0956
0
0
7.19722
6.48253
11.7764
13.4477
39.2817
16.4769
8.7035
43.0914
12.1798
4.10143
14.0435
0
41.6918
5.52173
0
0
0
30.871
-9.35972e-15
0
0.436751
18.4516
17.6973
5.8471
9.74093
4.3373
0
0
6.06887
0
0
0
0
27.6491
5.20511
0
21.4349
10.5226
11.8766
2.62469
10.5297
0
0
0
0
11.4044
0
0
0
0
7.01159
20.9824
2.08492
8.19483
13.8004
14.1646
0
0
0
0
0
10.1262
3.45648
0
2.04635
-1.40092e-15
0
0
0
0
0
8.45192
7.72196
15.2986
10.1544
16.3158
20.7952
16.0905
19.3503
11.1981
0
0
0
7.9431
6.86017
12.2041
0
0
27.7727
9.92556
17.381
0
5.885
4.71003
18.7729
2.6637
0
5.2443
5.05946
0
0
28.229
9.52674
-3.40951e-15
0.168353
0
22.7716
0
9.21697
5.93031
0
20.174
3.25226
0
0
19.633
-8.11494e-15
30.2901
0.1505
0
9.78675
-6.25362e-15
0
12.9595
4.80754
0
0
0
0.302599
0
0
0
0
0
5.13121
13.9127
4.08425
5.2773
0
12.3283
0
0
0
0
24.7025
2.98163
23.4554
-4.28821e-15
4.43452
0
0
0
-2.34693e-15
0
0
5.16649
0
9.0124
29.5971
3.48443
4.66164
8.41796
-2.80876e-16
5.25601
0
0
0
0
-3.93763e-15
6.63185
0
0
6.64506
26.2187
4.70863
0
0
7.44506
0
7.95731
0
0
0
0
0
0
0
5.78128
0
5.65003
0
-2.09823e-16
3.60091
4.07401
0
0
0
0
-1.22521e-14
0
8.30036
7.30448
11.8857
8.20329
-4.13803e-15
0
4.24899
4.90826
0
0
0
0
0
0
0
0
0
0
4.91606
0
0.278568
-4.44403e-15
90.2676
0
0
0.704818
0
0
0
0
3.85374
4.24297
7.94013
0
0
0
0
0
0
27.344
-8.56465e-15
-4.8075e-15
0
7.23778
0
9.19417
0
9.83234
6.75423
0.211283
0
0
0
0
0
15.7506
0
0
-4.90637e-15
0
6.76007
0
0
0
0
0
8.10046
0
0
0
0
0
8.13891
0
0
-2.40415e-15
4.68657
0
0
0
0
0
0
0
-1.73352e-15
0
0.391095
2.10093
0.566798
1.32344
0
0.439175
0
0
0
0
0
0
0
0
0
0
22.3242
0.510361
11.0857
1.05455
0
5.51027
0
0
0
0
0
7.99512
7.08721
0
0
9.13247
0
0
0
0
0
7.8261
14.3387
5.29263
8.2529
0.260053
0
10.5258
8.00373
10.5182
0
0
0
0
1.63812
0
0
0
0
3.85357
4.04392
0
4.93486
5.03126
0
0
0
5.84122
0
0
14.4046
9.61642
-2.89953e-16
0
0
0
0
10.7745
0
0
0
0
0
0
0
0
0.628908
0
4.10551
11.7642
0
0
0
-3.81922e-15
0
0
0
0
0
0
0
0
0
0
10.8988
0
7.27003
-4.89227e-15
0
5.66552
6.56737
0
0
0
0
0
10.3017
0
12.5334
0.175002
0
0
0
0
0
0.388973
-3.23639e-16
-4.61177e-15
5.1444
5.30669
-3.51657e-15
0
16.138
0.189653
5.34557
0
0.559021
0
0
0
0
0
0
11.2538
6.64043
0
2.33825
4.41053
0
0
0
-3.4987e-15
0
0
0
0
0
0
0
0
0
15.2299
4.77425
0
0
0
0
0
0
0
9.5442
0
0
13.7272
9.06919
0
0
1.35322
19.82
0
0
0
-5.66972e-15
-3.92105e-16
0
0
0
0
6.14261
0
3.73288
-1.90095e-16
0
4.13361
0
0
0
0
0
3.95074
0
0
0
0
0
0
0
0
0
0
0
5.1009
-1.53146e-15
9.44723
12.7169
0
0
4.69099
0
0
0
0
0
0
0
0
0
0
0.136463
0
6.82962
0
0
0
0
5.8125
0
0
0
0
0
0
-5.09132e-15
0
0
0
0
0
0
0
0
0
0
0
0
0
0
3.58039
-5.37479e-15
-4.57577e-16
4.32095
4.01562
0
0
0
0
0
0
0
0
0
0
0
30.7791
0
0
-1.37051e-14
0
0
0
0
0
0
0
0
37.3482
4.31292
12.7792
0
0
0
0
0
0
0
5.20459
0
0
2.79932
10.1306
0
0
0
0
0
0
0
0
0
0
13.6371
0
4.76294
0
6.79945
1.91272
0
0
0
0
0
0
0
0
0
0
0
0
0
0
0
0
0
0
0
0
0
0
0
2.323
4.41905
-3.5682e-15
13.1403
0
0
14.4282
4.15373
0
0
0
0
0
0
0
0
0
0
0
0
11.3586
0
0
0
0
0
0
0
-1.31522e-16
-4.62029e-15
0
0.145497
5.24036
0
0
0
0
0
0
0
0
0
7.54555
-3.83126e-15
0
0
0.160349
0
0
0
0
0
0
0
0
0
0
0
21.0513
0
11.3383
0
0
0
2.02125
0
0
0
0
9.60019
0
5.66982
0
0
0
0
0
0
0
0
0
0
0
-5.42305e-16
0
4.20354
-3.50556e-15
-3.8514e-15
0
-1.35625e-15
0
0
0
0
0
0
0
0
0
0
0
1.82082
0
0
0
0
0
0
0
0
0
0
0
0
0
0
0
0
0
0
0
0
9.62177
0
0
0
4.76177
0
0
0
0
0
0
0
0
0
0
0
0
0
0
-4.87161e-15
24.8467
-2.123e-15
0
0.742792
0
0
0
0
0
0
0
0
0
0
0
0
0
0
0
0
0
0
0
0
0
0
0
3.88579
0
0
0
0
1.43992
2.80899
0
0
0
0
0
0
0
0
0
0
0
0
0
0
0
0
0
0
0
0
0
0
0
0
0
0
0
0
0
0
0
0
0
15.2548
0
0
0
8.4453
0
7.55234
0
0
0
0
0
0
0
0
0
5.3243
0
9.40771
0
0
0
0
0
0
0
0
0
0
0
0
0
0
0
0
0
0
0
0
0
0
0
0
0
0
0
0
0
0
0
0
0
0
0
0
0
0
0
0
0
0
0
0
0
0
0
0
0
0
0
0
4.17311
0
0
0
0
0
0
0
0
0
0
0
0
0
0
0
0
0
0
0
0
0
0
0
0
0
0
0
0
0
0
0
0
0
0
0
0
0
0
0
0
0
0
0
0
0
0
0
0
0
0
0
0
0
0
0
0
0
0
0
0
0
0
0
0
0
0
0
0
0
0
0
0
0
0
0
0
0
0
0
0
0
0
0
0
0
0
0
0
0
0
0
0
0
0
0
0
0
0
0
0
0
0
0
0
0
0
0
0
0
0
12.1303
0
5.69411
0
0
0
0
0
0
0
0
0
0
0
0
0
0
0
0
0
0.263505
0
0
0
0
0
0
0
0
0
0
0
0
0
0
0
0
0
0
0
0
0
0
0
0
0
0
0
3.7978
0
0
0
0
0
0
0
0
0
0
0
0
0
0
0
0
0
0
0
0
0
0
0
0
0
0
0
0
0
0
0
0
0
0
0
12.3463
0
0
0
0
0
0
0
0
0
0
0
0
0
0
0
0
0
0
0
0
0
0
0
0
0
0
0
0
0
0
0
0
0
0
0
0
0
0
0
0
0
0
0
0
0
0
0
0
0
0
0
0
0
0
0
0
0
0
0
0
0
0
0
0
0
0
0
0
0
0
4.52529
0
0
0
0
0
0
0
0
0
0
0
0
1.65561
0
0
0
0
0
0
0
0
0
0
0
0
0
0
0
0
0
0
0
0
0
0
0
0
0
0
0
0
0
0
0
0
0
0
0
0
0
0
0
0
0
0
0
0
0
0
0
0
0
0
0
0
0
0
0
0
0
0
0
0
0
0
0
0
0
0
0
0
0
0
0
0
0
0
0
0
0
0
0
0
0
0
0
0
0
0
0
0
0
0
0
0
0
0
0
0
0
0
0
0
0
0
0
0
0
0
0
0
0
0
0
0
0
0
0
0
0
0
0
0
0
0
0
0
0
0
0
0
0
0
0
0
0
0
0
0
0
0
0
0
0
0
0
0
0
0
0
0
0
0
0
0
0
0
0
0
0
0
0
0
0
0
0
0
0
0
0
0
0
0
0
0
0
0
0
0
0
0
0
0
0
0
0
0
0
0
0
0
0
0
0
0
0
0
0
0
0
0
0
0
0
0
0
0
0
0
0
0
0
0
0
0
0
0
0
0
0
0
0
0
0
0
0
0
0
0
0
0
0
0
0
0
0
0
0
0
0
0
0
0
0
0
0
0
0
0
0
0
0
0
0
0
0
5.9827
0
0
0
0
0
0
0
0
0
0
0
0
0
0
0
0
0
0
0
0
0
0
0
0
0
0
0
0
0
0
0
0
0
0
0
0
0
0
0
0
0
0
0
0
0
0
0
0
0
0
0
0
0
0
0
0
0
0
0
0
0
0
0
0
0
0
0
0
0
0
0
0
0
0
0
0
0
0
0
0
0
0
0
0
0
0
0
0
0
0
0
0
0
0
5.07883
7.13937
0
0
0
0
0.178883
0
0
0
0
0
0
0
0
0
0
0
0
0
0
0
0
0
0
0
0
0
0
0
0
0
0
0
0
0
0
0
0
0
0
0
0
0
0
0
0
0
0
0
0
0
0
0
0
0
0
0
0
0
0
0
0
0
0
0
0
0
0
0
0
0
0
0
0
0
0
0
0
0
0
0
0
0
0
0
0
0
0
0
0
0
0
0
0
0
0
0
0
0
0
0
0
0
0
0
0
0
0
0
0
0
0
0
0
0
0
0
0
0
0
0
0
0
0
0
0
0
0
0
0
0
0
0
0
0
0
0
0
0
0
0
0
0
0
0
0
0
0
0
0
0
0
0
0
0
0
0
0
0
0
0
0
0
0
0
0
0
0
0
0
0
0
0
0
0
0
0
0
0
0
0
0
0
0
0
0
0
0
0
0
0
0
0
0
0
0
0
0
0
0
0
0
0
0
0
0
0
0
0
0
0
0
0
0
0
0
0
0
0
0
0
0
0
0
0
0
0
0
0
0
0
0
0
0
0
0
0
0
0
0
0
0
0
0
0
0
0
0
0
0
0
0
0
0
0
0
0
0
0
0
0
0
0
0
0
0
0
0
0
0
0
0
0
0
0
0
0
0
0
0
0
0
0
0
0
0
0
0
0
0
0
0
0
0
0
0
0
0
0
0
0
0
0
0
0
0
0
0
0
0
0
0
0
0
0
0
0
0
0
0
0
0
0
0
0
0
0
0
0
0
0
0
0
0
0
0
0
0
0
0
0
0
0
0
0
0
0
0
0
0
0
0
0
0
0
0
0
0
0
0
0
0
0
0
0
0
0
0
0
0
0
0
0
0
0
0
0
0
0
0
0
0
0
0
0
0
0
0
0
0
0
0
0
0
0
0
0
0
0
0
0
0
0
0
0
0
0
0
0
0
0
0
0
0
0
0
0
0
0
0
0
0
0
0
0
0
0
0
0
0
0
0
0
0
0
0
0
0
0
0
0
0
0
0
0
0
0
0
0
0
0
0
0
0
0
0
0
0
0
0
0
0
0
0
0
0
0
0
0
0
0
0
0
0
0
0
0
0
0
0
0
0
0
0
0
0
0
0
0
0
0
0
0
0
0
0
0
0
0
0
0
0
0
0
0
0
0
0
0
0
0
0
0
0
0
0
0
0
0
0
0
0
0
0
0
0
0
0
0
0
0
0
0
0
0
0
0
0
0
0
0
0
0
0
0
0
0
0
0
0
0
0
0
0
0
0
0
0
0
0
0
0
0
0
0
0
0
0
0
0
0
0
0
0
0
0
0
0
0
0
0
0
0
0
0
0
0
0
0
0
0
0
0
0
0
0
0
0
0
0
0
0
0
0
0
0
0
0
0
0
0
0
0
0
0
0
0
0
0
0
0
0
0
0
0
0
0
0
0
0
0
0
0
0
0
0
0
0
0
0
0
0
0
0
0
0
0
0
0
0
0
0
0
0
0
0
0
0
0
0
0
0
0
0
0
0
0
0
0
0
0
0
0
0
0
0
0
0
0
0
0
0
0
0
0
0
0
0
0
0
0
0
0
0
0
0
0
0
0
0
0
0
0
0
0
0
0
0
0
0
0
0
0
0
0
0
0
0
0
0
0
0
0
0
0
0
0
0
0
0
0
0
0
0
0
0
0
0
0
0
0
0
0
0
0
0
0
0
0
0
0
0
0
0
0
0
0
0
0
0
0
0
0
0
0
0
0
0
0
0
0
0
0
0
0
0
0
0
0
0
0
0
0
0
0
0
0
0
0
0
0
0
0
0
0
0
0
0
0
0
0
0
0
0
0
0
0
0
0
0
0
0
0
0
0
0
0
0
0
0
0
0
0
0
0
0
0
0
0
0
0
0
0
0
0
0
0
0
0
0
0
0
0
0
0
0
0
0
0
0
0
0
0
0
0
0
0
0
0
0
0
0
0
0
0
0
0
0
0
0
0
0
0
0
0
0
0
0
0
0
0
0
0
0
0
0
0
0
0
0
0
0
0
0
0
0
0
0
0
0
0
0
0
0
0
0
0
0
0
0
0
0
0
0
0
0
0
0
0
0
0
0
0
0
0
0
0
0
0
0
0
0
0
0
0
0
0
0
0
0
0
0
0
0
0
0
0
0
0
0
0
0
0
0
0
0
0
0
0
0
0
0
0
0
0
0
0
0
0
0
0
0
0
0
0
0
0
0
0
0
0
0
0
0
0
0
0
0
0
0
0
0
0
0
0
0
0
0
0
0
0
0
0
0
0
0
0
0
0
0
0
0
0
0
0
0
0
0
0
0
0
0
0
0
0
0
0
0
0
0
0
0
0
0
0
0
0
0
0
0
0
0
0
0
0
0
0
0
0
0
0
0
0
0
0
0
0
0
0
0
0
0
0
0
0
0
0
0
0
0
0
0
0
0
0
0
0
0
0
0
0
0
0
0
0
0
0
0
0
0
0
0
0
0
0
0
0
0
0
0
0
0
0
0
0
0
0
0
0
0
0
0
0
0
0
0
0
0
0
0
0
0
0
0
0
0
0
0
0
0
0
0
0
0
0
0
0
0
0
0
0
0
0
0
0
0
0
0
0
0
0
0
0
0
0
0
0
0
0
0
0
0
0
0
0
0
0
0
0
0
0
0
0
0
0
0
0
0
0
0
0
0
0
0
0
0
0
0
0
0
0
0
0
0
0
0
0
0
0
0
0
0
0
0
0
0
0
0
0
0
0
0
0
0
0
0
0
0
0
0
0
0
0
0
0
0
0
0
0
0
0
0
0
0
0
0
0
0
0
0
0
0
0
0
0
0
0
0
0
0
0
0
0
0
0
0
0
0
0
0
0
0
0
0
0
0
0
0
0
0
0
0
0
0
0
0
0
0
0
0
0
0
0
0
0
0
0
0
0
0
0
0
0
0
0
0
0
0
0
0
0
0
0
0
0
0
0
0
0
0
0
0
0
0
0
0
0
0
0
0
0
0
0
0
0
0
0
0
0
0
0
0
0
0
0
0
0
0
0
0
0
0
0
0
0
0
0
0
0
0
0
0
0
0
0
0
0
0
0
0
0
0
0
0
0
0
0
0
0
0
0
0
0
0
0
0
0
0
0
0
0
0
0
0
0
0
0
0
0
0
0
0
0
0
0
0
0
0
0
0
0
0
0
0
0
0
0
0
0
0
0
0
0
0
0
0
0
0
0
0
0
0
0
0
0
0
0
0
0
0
0
0
0
0
0
0
0
0
0
0
0
0
0
0
0
0
0
0
0
0
0
0
0
0
0
0
0
0
0
0
0
0
0
0
0
0
0
0
0
0
0
0
0
0
0
0
0
0
0
0
0
0
0
0
0
0
0
0
0
0
0
0
0
0
0
0
0
0
0
0
0
0
0
0
0
0
0
0
0
0
0
0
0
0
0
0
0
0
0
0
0
0
0
0
0
0
0
0
0
0
0
0
0
0
0
0
0
0
0
0
0
0
0
0
0
0
0
0
0
0
0
0
0
0
0
0
0
0
0
0
0
0
0
0
0
0
0
0
0
0
0
0
0
0
0
0
0
0
0
0
0
0
0
0
0
0
0
0
0
0
0
0
0
0
0
0
0
0
0
0
0
0
0
0
0
0
0
0
0
0
0
0
0
0
0
0
0
0
0
0
0
0
0
0
0
0
0
0
0
0
0
0
0
0
0
0
0
0
0
0
0
0
0
0
0
0
0
0
0
0
0
0
0
0
0
0
0
0
0
0
0
0
0
0
0
0
0
0
0
0
0
0
0
0
0
0
0
0
0
0
0
0
0
0
0
0
0
0
0
0
0
0
0
0
0
0
0
0
0
0
0
0
0
0
0
0
0
0
0
0
0
0
0
0
0
0
0
0
0
0
0
0
0
0
0
0
0
0
0
0
0
0
0
0
0
0
0
0
0
0
0
0
0
0
0
0
0
0
0
0
0
0
0
0
0
0
0
0
0
0
0
0
0
0
0
0
0
0
0
0
0
0
0
0
0
0
0
0
0
0
0
0
0
0
0
0
0
0
0
0
0
0
0
0
0
0
0
0
0
0
0
0
0
0
0
0
0
0
0
0
0
0
0
0
0
0
0
0
0
0
0
0
0
0
0
0
0
0
0
0
0
0
0
0
0
0
0
0
0
0
0
0
0
0
0
0
0
0
0
0
0
0
0
0
0
0
0
0
0
0
0
0
0
0
0
0
0
0
0
0
0
0
0
0
0
0
0
0
0
0
0
0
0
0
0
0
0
0
0
0
0
0
0
0
0
0
0
0
0
0
0
0
0
0
0
0
0
0
0
0
0
0
0
0
0
0
0
0
0
0
0
0
0
0
0
0
0
0
0
0
0
0
0
0
0
0
0
0
0
0
0
0
0
0
0
0
0
0
0
0
0
0
0
0
0
0
0
0
0
0
0
0
0
0
0
0
0
0
0
0
0
0
0
0
0
0
0
0
0
0
0
0
0
0
0
0
0
0
0
0
0
0
0
0
0
0
0
0
0
0
0
0
0
0
0
0
0
0
0
0
0
0
0
0
0
0
0
0
0
0
0
0
0
0
0
0
0
0
0
0
0
0
0
0
0
0
0
0
0
0
0
0
0
0
0
0
0
0
0
0
0
0
0
0
0
0
0
0
0
0
0
0
0
0
0
0
0
0
0
0
0
0
0
0
0
0
0
0
0
0
0
0
0
0
0
0
0
0
0
0
0
0
0
0
0
0
0
0
0
0
0
0
0
0
0
0
0
0
0
0
0
0
0
0
0
0
0
0
0
0
0
0
0
0
0
0
0
0
0
0
0
0
0
0
0
0
0
0
0
0
0
0
0
0
0
0
0
0
0
0
0
0
0
0
0
0
0
0
0
0
0
0
0
0
0
0
0
0
0
0
0
0
0
0
0
0
0
0
0
0
0
0
0
0
0
0
0
0
0
0
0
0
0
0
0
0
0
0
0
0
0
0
0
0
0
0
0
0
0
0
0
0
0
0
0
0
0
0
0
0
0
0
0
0
0
0
0
0
0
0
0
0
0
0
0
0
0
0
0
0
0
0
0
0
0
0
0
0
0
0
0
0
0
0
0
0
0
0
0
0
0
0
0
0
0
0
0
0
0
0
0
0
0
0
0
0
0
0
0
0
0
0
0
0
0
0
0
0
0
0
0
0
0
0
0
0
0
0
0
0
0
0
0
0
0
0
0
0
0
0
0
0
0
0
0
0
0
0
0
0
0
0
0
0
0
0
0
0
0
0
0
0
0
0
0
0
0
0
0
0
0
0
0
0
0
0
0
0
0
0
0
0
0
0
0
0
0
0
0
0
0
0
0
0
0
0
0
0
0
0
0
0
0
0
0
0
0
0
0
0
0
0
0
0
0
0
0
0
0
0
0
0
0
0
0
0
0
0
0
0
0
0
0
0
0
0
0
0
0
0
0
0
0
0
0
0
0
0
0
0
0
0
0
0
0
0
0
0
0
0
0
0
0
0
0
0
0
0
0
0
0
0
0
0
0
0
0
0
0
0
0
0
0
0
0
0
0
0
0
0
0
0
0
0
0
0
0
0
0
0
0
0
0
0
0
0
0
0
0
0
0
0
0
0
0
0
0
0
0
0
0
0
0
0
0
0
0
0
0
0
0
0
0
0
0
0
0
0
0
0
0
0
0
0
0
0
0
0
0
0
0
0
0
0
0
0
0
0
0
0
0
0
0
0
0
0
0
0
0
0
0
0
0
0
0
0
0
0
0
0
0
0
0
0
0
0
0
0
0
0
0
0
0
0
0
0
0
0
0
0
0
0
0
0
0
0
0
0
0
0
0
0
0
0
0
0
0
0
0
0
0
0
0
0
0
0
0
0
0
0
0
0
0
0
0
0
0
0
0
0
0
0
0
0
0
0
0
0
0
0
0
0
0
0
0
0
0
0
0
0
0
0
0
0
0
0
0
0
0
0
0
0
0
0
0
0
0
0
0
0
0
0
0
0
0
0
0
0
0
0
0
0
0
0
0
0
0
0
0
0
0
0
0
0
0
0
0
0
0
0
0
0
0
0
0
0
0
0
0
0
0
0
0
0
0
0
0
0
0
0
0
0
0
0
0
0
0
0
0
0
0
0
0
0
0
0
0
0
0
0
0
0
0
0
0
0
0
0
0
0
0
0
0
0
0
0
0
0
0
0
0
0
0
0
0
0
0
0
0
0
0
0
0
0
0
0
0
0
0
0
0
0
0
0
0
0
0
0
0
0
0
0
0
0
0
0
0
0
0
0
0
0
0
0
0
0
0
0
0
0
0
0
0
0
0
0
0
0
0
0
0
0
0
0
0
0
0
0
0
0
0
0
0
0
0
0
0
0
0
0
0
0
0
0
0
0
0
0
0
0
0
0
0
0
0
0
0
0
0
0
0
0
0
0
0
0
0
0
0
0
0
0
0
0
0
0
0
0
0
0
0
0
0
0
0
0
0
0
0
0
0
0
0
0
0
0
0
0
0
0
0
0
0
0
0
0
0
0
0
0
0
0
0
0
0
0
0
0
0
0
0
0
0
0
0
0
0
0
0
0
0
0
0
0
0
0
0
0
0
0
0
0
0
0
0
0
0
0
0
0
0
0
0
0
0
0
0
0
0
0
0
0
0
0
0
0
0
0
0
0
0
0
0
0
0
0
0
0
0
0
0
0
0
0
0
0
0
0
0
0
0
0
0
0
0
0
0
0
0
0
0
0
0
0
0
0
0
0
0
0
0
0
0
0
0
0
0
0
0
0
0
0
0
0
0
0
0
0
0
0
0
0
0
0
0
0
0
0
0
0
0
0
0
0
0
0
0
0
0
0
0
0
0
0
0
0
0
0
0
0
0
0
0
0
0
0
0
0
0
0
0
0
0
0
0
0
0
0
0
0
0
0
0
0
0
0
0
0
0
0
0
0
0
0
0
0
0
0
0
0
0
0
0
0
0
0
0
0
0
0
0
0
0
0
0
0
0
0
0
0
0
0
0
0
0
0
0
0
0
0
0
0
0
0
0
0
0
0
0
0
0
0
0
0
0
0
0
0
0
0
0
0
0
0
0
0
0
0
0
0
0
0
0
0
0
0
0
0
0
0
0
0
0
0
0
0
0
0
0
0
0
0
0
0
0
0
0
0
0
0
0
0
0
0
0
0
0
0
0
0
0
0
0
0
0
0
0
0
0
0
0
0
0
0
0
0
0
0
0
0
0
0
0
0
0
0
0
0
0
0
0
0
0
0
0
0
0
0
0
0
0
0
0
0
0
0
0
0
0
0
0
0
0
0
0
0
0
0
0
0
0
0
0
0
0
0
0
0
0
0
0
0
0
0
0
0
0
0
0
0
0
0
0
0
0
0
0
0
0
0
0
0
0
0
0
0
0
0
0
0
0
0
0
0
0
0
0
0
0
0
0
0
0
0
0
0
0
0
0
0
0
0
0
0
0
0
0
0
0
0
0
0
0
0
0
0
0
0
0
0
0
0
0
0
0
0
0
0
0
0
0
0
0
0
0
0
0
0
0
0
0
0
0
0
0
0
0
0
0
0
0
0
0
0
0
0
0
0
0
0
0
0
0
0
0
0
0
0
0
0
0
0
0
0
0
0
0
0
0
0
0
0
0
0
0
0
0
0
0
0
0
0
0
0
0
0
0
0
0
0
0
0
0
0
0
0
0
0
0
0
0
0
0
0
0
0
0
0
0
0
0
0
0
0
0
0
0
0
0
0
0
0
0
0
0
0
0
0
0
0
0
0
0
0
0
0
0
0
0
0
0
0
0
0
0
0
0
0
0
0
0
0
0
0
0
0
0
0
0
0
0
0
0
0
0
0
0
0
0
0
0
0
0
0
0
0
0
0
0
0
0
0
0
0
0
0
0
0
0
0
0
0
0
0
0
0
0
0
0
0
0
0
0
0
0
0
0
0
0
0
0
0
0
0
0
0
0
0
0
0
0
0
0
0
0
0
0
0
0
0
0
0
0
0
0
0
0
0
0
0
0
0
0
0
0
0
0
0
0
0
0
0
0
0
0
0
0
0
0
0
0
0
0
0
0
0
0
0
0
0
0
0
0
0
0
0
0
0
0
0
0
0
0
0
0
0
0
0
0
0
0
0
0
0
0
0
0
0
0
0
0
0
0
0
0
0
0
0
0
0
0
0
0
0
0
0
0
0
0
0
0
0
0
0
0
0
0
0
0
0
0
0
0
0
0
0
0
0
0
0
0
0
0
0
0
0
0
0
0
0
0
0
0
0
0
0
0
0
0
0
0
0
0
0
0
0
0
0
0
0
0
0
0
0
0
0
0
0
0
0
0
0
0
0
0
0
0
0
0
0
0
0
0
0
0
0
0
0
0
0
0
0
0
0
0
0
0
0
0
0
0
0
0
0
0
0
0
0
0
0
0
0
0
0
0
0
0
0
0
0
0
0
0
0
0
0
0
0
0
0
0
0
0
0
0
0
0
0
0
0
0
0
0
0
0
0
0
0
0
0
0
0
0
0
0
0
0
0
0
0
0
0
0
0
0
0
0
0
0
0
0
0
0
0
0
0
0
0
0
0
0
0
0
0
0
0
0
0
0
0
0
0
0
0
0
0
0
0
0
0
0
0
0
0
0
0
0
0
0
0
0
0
0
0
0
0
0
0
0
0
0
0
0
0
0
0
0
0
0
0
0
0
0
0
0
0
0
0
0
0
0
0
0
0
0
0
0
0
0
0
0
0
0
0
0
0
0
0
0
0
0
0
0
0
0
0
0
0
0
0
0
0
0
0
0
0
0
0
0
0
0
0
0
0
0
0
0
0
0
0
0
0
0
0
0
0
0
0
0
0
0
0
0
0
0
0
0
0
0
0
0
0
0
0
0
0
0
0
0
0
0
0
0
0
0
0
0
0
0
0
0
0
0
0
0
0
0
0
0
0
0
0
0
0
0
0
0
0
0
0
0
0
0
0
0
0
0
0
0
0
0
0
0
0
0
0
0
0
0
0
0
0
0
0
0
0
0
0
0
0
0
0
0
0
0
0
0
0
0
0
0
0
0
0
0
0
0
0
0
0
0
0
0
0
0
0
0
0
0
0
0
0
0
0
0
0
0
0
0
0
0
0
0
0
0
0
0
0
0
0
0
0
0
0
0
0
0
0
0
0
0
0
0
0
0
0
0
0
0
0
0
0
0
0
0
0
0
0
0
0
0
0
0
0
0
0
0
0
0
0
0
0
0
0
0
0
0
0
0
0
0
0
0
0
0
0
0
0
0
4619.04
7262.29
2525.53
10610.9
8626.54
6322.39
4521.45
4769.2
1072.48
693.631
8500.35
10544.7
4295.83
4812.12
8034.45
7717.05
6046.25
11375.6
8389.95
8709.6
6878.89
1816.62
3699.58
1173.59
4267.59
1880.69
4578.42
1832.96
93.9233
976.161
5559.23
4530.14
4005.89
5843.24
8349.85
3874.88
4686.23
1738.54
4710.78
5285.86
6248.36
2047.28
4214.38
3588.57
1352.1
3385.58
4144.09
2972.11
1480.09
772.231
1533.96
1679.58
4534.27
1672.7
3480.25
1527.42
6294.25
1524.57
543.91
4369.25
1197.19
2850.57
420.132
6163.41
1463.96
4352.67
1344.12
3047.11
175.371
1271.17
1157.29
665.402
551.277
677.35
2787.57
1295.71
846.326
395.76
240.95
991.779
1790.5
203.652
327.932
369.186
5339.61
2981.3
1191.59
7415.37
2983.62
3036.83
3558.06
1659.85
4344.14
4182.95
540.708
217.923
4409.06
1915.73
1867.33
2884.08
3075.66
2061.6
585.154
529.863
668.953
3172.95
996.63
1234.58
375.755
1245.68
321.632
452.528
2577.23
3151.11
4361.25
5130.56
1340.45
438.057
615.978
441.081
1212.44
1173.98
551.707
502.039
297.885
632.243
345.21
411.874
421.988
558.994
456.498
388.894
260.958
1131.55
327.606
455.052
545.832
771.188
891.499
1114.44
1505.23
310.105
254.264
7015.04
2133.11
1247.18
538.391
309.202
405.616
128.825
541.176
236.099
1000.36
98.7991
185.491
359.01
129.977
361.798
63.7651
538.781
56.9935
392.92
1275.59
1012.05
881.555
166.668
1052.9
847.427
1083.12
2202.06
2936.41
498.136
356.525
842.235
424.964
151.86
721.107
94.3501
156.808
76.1674
76.2053
88.1566
45.2259
458.243
58.3189
578.095
183.445
491.951
64.4606
259.616
885.178
752.933
1189.09
428.475
628.859
486.421
252.634
154.038
65.8224
59.1282
79.9772
43.6063
52.222
105.179
39.2176
69.0888
109.515
122.648
69.9174
64.3574
1221.34
509.672
140.94
2828.75
1283.94
498.078
462.873
523.795
354.915
301.366
596.049
499.733
450.521
548.145
60.2173
24.6842
16.9101
15.2747
29.3332
0
29.9928
154.911
95.2295
126.773
174.428
257.349
170.048
220.694
774.451
1807.1
932.17
331.737
208.365
2748.55
1292.99
467.529
1041.3
735.043
1512.44
955.507
556.14
448.617
4.6539
11.5636
6.28818
-1.46831e-15
4.18236
15.0245
2.18066
141.979
78.9603
96.7337
25.0089
41.7519
19.6681
38.0337
19.0106
93.0182
108.093
-3.88933e-15
6.19905
33.4072
15.2197
173.403
92.7931
85.3456
27.3606
21.3744
42.4164
21.5108
5.54239
7.42953
-4.0377e-15
-3.42482e-15
1.36896
8.1556
6.22863
4.05715
6.74255
0
0
0
0
0
0
8.60426
0
15.0226
1.75806
8.40987
5.60397
18.3396
28.587
9.90638
23.796
13.2929
10.9264
17.5493
6.36795
1.32786
0
-4.80293e-15
-3.78416e-15
-2.15367e-16
10.2836
0
5.75908
0
-6.28532e-15
0
-1.73391e-16
0
8.33614
6.562
2.61286
0
8.18688
0
13.2185
4.26806
15.2836
4.31528
8.43103
6.53499
12.6057
-2.47497e-15
6.62992
0
5.87089
3.60852
2.2092
2.51747
5.71994
0
0
0
0
0
6.2679
0
8.60889
0
12.1286
4.72877
1.01177
0
4.98047
0.131344
11.488
0
12.3762
4.93274
6.7747
0
0
17.0184
0
0
0
1.85889
0
0
0
0
0
0
0.358468
7.55859
13.1565
0
4.69618
4.53537
4.44526
0
0
6.72667
13.2378
0
9.1057
1.68133
3.50782
6.4239
0
0
0
-3.11563e-15
0
5.20412
0
0
-4.31434e-16
0
0
0
6.72368
0
4.89181
0
0
9.838
-4.18046e-15
0
5.02703
4.82253
4.87948
-1.6485e-15
4.72622
4.68174
5.10611
5.00368
0
-3.58624e-15
0
0
0
0
0
0
0
0
7.12891
0
0
0
0
0
-3.56119e-15
-1.49635e-15
0
0
0
-1.44157e-16
-1.14024e-16
0
0
0
0
0
0
0
0
0
0
0
0
0
0
0
0
0
0
0
0
11.0658
4.90044
-4.19162e-15
0
-4.57408e-15
0
4.97856
0
0
4.94313
0.322789
0
0
0
0
0
0
0
0
0
0
0
0
0
0
0
0
0
0
10.0882
1.60315
0
0
-4.42005e-15
4.96396
9.79123
0
0
0