/*--------------------------------*- C++ -*----------------------------------*\
| =========                 |                                                 |
| \\      /  F ield         | OpenFOAM: The Open Source CFD Toolbox           |
|  \\    /   O peration     | Version:  5.x                                   |
|   \\  /    A nd           | Web:      www.OpenFOAM.org                      |
|    \\/     M anipulation  |                                                 |
\*---------------------------------------------------------------------------*/
FoamFile
{
    version     2.0;
    format      ascii;
    class       volScalarField;
    location    "0.95";
    object      p;
}
// * * * * * * * * * * * * * * * * * * * * * * * * * * * * * * * * * * * * * //

dimensions      [0 2 -2 0 0 0 0];

internalField   nonuniform List<scalar> 
10571
(
250.972
324.725
276.43
226.765
215.227
276.35
200.988
204.821
197.277
136.979
189.596
173.956
177.49
162.866
131.915
144.944
133.66
139.331
129.442
115.26
119.632
134.725
120.726
116.183
106.019
176.189
137.857
98.5912
85.5871
107.063
105.088
110.983
99.7905
94.4377
108.112
100.642
104.237
95.424
99.1458
104.671
111.153
114.165
104.75
105.497
103.403
107.511
109.696
103.669
85.4823
98.7129
91.0692
83.7566
84.6012
86.8582
81.9334
78.5315
76.9386
81.355
94.8244
93.3617
88.1676
90.8377
87.5409
83.823
97.8123
91.6771
94.5563
93.7244
91.3179
94.1195
94.7342
95.4418
75.9499
82.2221
78.3838
76.1937
75.2368
82.2372
80.7275
74.3694
72.8637
77.2724
80.6884
84.7647
78.5637
77.9192
74.4468
76.2734
82.2518
78.5237
82.7678
83.1062
75.356
85.8926
84.1359
86.9208
68.9991
73.4594
67.8568
69.3087
70.4554
79.7652
76.7604
69.5797
70.135
74.0621
75.2448
77.1191
72.5003
69.9897
69.586
71.0227
75.0865
73.7556
71.3232
73.9358
71.1305
77.3112
76.1741
70.9504
66.3914
65.5899
65.8635
66.5448
67.5153
75.7773
66.3332
66.8721
67.9865
68.4436
66.8183
71.6938
71.8782
69.8921
68.2628
67.4977
68.0597
66.4513
72.4594
68.2455
66.6707
66.8322
67.0376
67.6965
66.316
66.9046
65.5236
65.0279
65.3259
65.74
66.2674
65.3561
64.0534
66.1456
66.5379
66.7927
66.8277
67.6441
68.767
66.4263
66.0379
66.3861
66.6472
66.2658
68.3508
64.3044
64.8453
65.4478
66.4094
66.1596
65.3026
65.6337
65.9404
65.0399
64.6979
64.8911
64.6238
64.8233
64.482
64.3879
65.3223
65.5966
66.2673
65.9105
64.3334
64.1668
63.8592
64.4837
65.7549
66.4313
65.9518
64.0777
64.243
64.4376
65.2612
67.0276
66.4075
64.7468
64.9338
65.346
64.7322
64.5928
64.6208
64.4231
64.4805
64.4318
64.4876
64.778
65.1509
64.7845
65.4882
64.3446
64.3405
64.1895
64.4547
65.3086
65.5325
66.4132
64.3317
64.418
64.4865
64.9613
65.49
64.4293
64.5373
64.8942
64.5326
64.4442
64.4613
64.4373
64.4978
64.3498
64.3031
64.4591
64.7588
62.5991
64.283
64.2653
64.3226
64.4101
64.9166
64.279
64.2103
64.3175
64.4151
64.6233
64.0811
64.295
64.4295
64.6315
64.3964
64.3295
64.3668
64.3024
64.3293
64.2731
64.1842
64.2269
64.3364
63.5974
64.2174
64.2104
64.2104
64.2503
64.5248
63.5525
64.1497
64.1839
64.2531
64.2918
64.2352
64.2029
64.2945
64.4318
64.2311
64.2218
64.2336
64.1631
64.1992
64.1789
64.1067
64.0695
64.1046
64.0297
64.1571
64.1366
64.1202
64.1064
64.2643
64.0603
64.1209
64.1015
64.1134
64.1491
64.2723
64.1485
64.173
64.2163
64.0699
64.1397
64.1157
64.0848
64.1377
64.1152
64.0421
63.97
64.0698
64.0895
64.0873
64.0669
64.0467
64.005
64.1509
64.1388
64.0871
64.0498
64.0085
64.054
64.1795
64.089
64.0817
64.0847
64.0782
64.0893
64.0583
64.0659
64.1355
64.0585
63.996
63.9214
64.0523
64.1153
64.0335
64.001
63.9867
63.9571
64.092
64.0845
64.0312
63.9932
63.9387
64
64.1167
64.0182
63.9995
64.0127
64.2126
64.0826
64.0523
64.1147
64.1647
64.0313
63.9912
63.93
64.0408
64.123
63.9851
63.9591
63.95
63.9324
64.048
64.0524
63.9777
63.9315
63.8976
63.9501
64.0486
63.9458
63.9352
63.9407
64.3605
64.0877
64.1159
64.2032
64.2373
64.0051
64.0089
63.9685
64.0364
64.0915
63.9551
63.9247
63.8979
63.9164
64.0011
64.0393
63.901
63.8633
63.8741
63.9116
63.992
63.8652
63.8753
63.9038
64.3899
64.0771
64.1886
64.2505
64.2551
63.9692
63.9992
64.006
64.0015
64.0589
63.8743
63.8698
63.8243
63.891
63.958
64.0019
63.8238
63.7871
63.8297
63.8722
63.9528
63.7782
63.8009
63.8428
64.367
64.0243
64.167
64.5508
64.1407
63.905
63.9043
63.9324
63.9177
64.0054
63.8114
63.8054
63.7501
63.8369
63.8864
63.9441
63.7541
63.7005
63.7618
63.8052
63.8908
63.7032
63.7414
63.7778
64.1654
63.9276
64.0357
64.3642
63.9627
63.8082
63.76
63.678
63.7976
63.919
63.7293
63.7225
63.6682
63.7274
63.7944
63.8676
63.6809
63.6276
63.6627
63.7245
63.8194
63.6611
63.6778
63.7066
63.8598
63.8217
63.8472
63.9191
63.7856
63.7172
63.6367
63.4485
63.7136
63.8249
63.6595
63.6467
63.6094
63.6278
63.7287
63.7918
63.6202
63.5706
63.57
63.652
63.7446
63.5957
63.6292
63.6487
63.6288
63.7393
63.721
63.6214
63.6578
63.6588
63.5812
63.4352
63.6951
63.7732
63.6194
63.5985
63.5989
63.5858
63.7002
63.7528
63.5878
63.5433
63.536
63.6326
63.723
63.5775
63.592
63.6212
63.5206
63.6957
63.6597
63.4934
63.5999
63.6501
63.5945
63.5803
63.7268
63.7865
63.6041
63.5831
63.6156
63.6047
63.705
63.7553
63.5773
63.547
63.5555
63.642
63.7299
63.576
63.5867
63.6235
63.5482
63.6956
63.6568
63.4304
63.6377
63.6546
63.6234
63.7271
63.7632
63.8139
63.6149
63.5995
63.6369
63.656
63.7657
63.7954
63.5881
63.5765
63.605
63.6926
63.776
63.5999
63.6076
63.6546
63.7161
63.7357
63.7249
63.6493
63.7958
63.694
63.6689
63.8521
63.8144
63.8727
63.6482
63.6376
63.6809
63.7294
63.8411
63.8584
63.6232
63.6263
63.6672
63.7479
63.8359
63.6392
63.6501
63.7064
63.9111
63.801
63.8174
63.7949
63.8769
63.7493
63.7439
63.991
63.9093
63.9412
63.6965
63.6872
63.7497
63.822
63.9011
63.9161
63.6781
63.6936
63.7416
63.7972
63.899
63.7023
63.7124
63.7785
64.0509
63.8672
63.903
63.9442
63.9197
63.8167
63.8226
64.0833
64.0998
64.002
63.7627
63.7522
63.8301
63.9249
63.9546
64.0013
63.7484
63.7741
63.8467
63.8823
63.9827
63.7779
63.8022
63.8662
64.1743
63.9213
63.9585
64.0733
64.1908
63.8855
63.8663
64.0557
64.2442
64.1059
63.8407
63.8289
63.9023
63.986
64.038
64.1362
63.8292
63.857
63.9529
63.9912
64.0725
63.8739
63.9
63.9561
64.2255
63.967
63.99
64.1221
64.4638
63.9483
63.896
63.9799
64.2253
64.2162
63.9202
63.9055
63.9536
64.0038
64.1379
64.2252
63.9096
63.9252
64.0191
64.0621
64.1511
63.9664
63.9769
64.0312
64.2026
64.0057
64.0102
64.1209
64.4512
63.9993
63.9357
63.9272
64.1938
64.2718
63.989
63.979
63.9882
64.0161
64.2181
64.2699
63.9787
63.9767
64.0542
64.109
64.2
64.0399
64.0451
64.0927
64.1338
64.0316
64.0219
64.0729
64.363
64.0351
63.9732
63.8999
64.2374
64.3855
64.0404
64.0322
64.0078
64.0343
64.2649
64.2816
64.0345
64.0274
64.08
64.1551
64.2296
64.0971
64.1025
64.1381
64.0395
64.0405
64.0147
63.9907
64.2205
64.0521
63.996
63.8715
64.1458
64.3673
64.0752
64.0692
64.0156
64.04
64.2117
64.2777
64.0784
64.0773
64.096
64.1538
64.2234
64.1432
64.1401
64.1632
63.9337
64.0329
63.986
63.8938
64.0659
64.0573
64.009
63.8534
64.0337
64.4535
64.0982
64.0889
64.0057
64.026
64.108
64.2854
64.1073
64.1129
64.1038
64.1154
64.2128
64.1808
64.1615
64.1654
63.8492
64.0168
63.9424
63.8106
63.9658
64.0557
63.9947
63.8056
63.9097
64.139
64.1198
64.1041
63.9911
64.0036
64.0758
64.2094
64.153
64.1494
64.0946
64.1003
64.2106
64.2161
64.1721
64.1613
63.8082
63.9983
63.8886
63.7685
63.9181
64.0511
63.9479
63.724
63.8135
64.0385
64.1492
64.1315
63.9839
63.9684
64.0912
64.1646
64.2348
64.2064
64.064
64.0997
64.1901
64.2694
64.1802
64.1626
63.8085
63.9824
63.8361
63.7651
63.8872
64.0501
63.8949
63.6559
63.6733
63.9175
64.1837
64.1647
63.997
63.9321
64.0535
64.1931
64.3446
64.2425
64.0387
64.0815
64.1295
64.3586
64.1892
64.1569
63.8417
63.9693
63.7924
63.8013
63.8751
64.0489
63.8379
63.6379
63.5934
63.863
64.2077
64.1877
64.0004
63.9146
63.9952
64.1878
64.4047
64.2431
64.0345
64.0577
64.1088
64.4255
64.1941
64.1441
63.9007
63.9608
63.7641
63.8608
63.8893
64.0444
63.792
63.6786
63.5798
63.8208
64.2065
64.1789
63.9864
63.9042
63.9176
64.0263
64.3614
64.18
64.0304
64.0319
64.0471
64.3748
64.1808
64.1198
63.9786
63.9706
63.7789
63.9396
63.9429
64.0352
63.7843
63.7559
63.6127
63.8242
64.1842
64.1537
63.9752
63.9031
63.8173
63.9085
64.2694
64.0767
64.0251
63.9905
63.9621
64.1817
64.1405
64.0825
64.0748
64.0071
63.843
64.0357
64.0237
64.0365
63.8115
63.8604
63.6762
63.8574
64.1509
64.1244
63.9745
63.9253
63.7335
63.8185
64.1692
63.9954
64.0232
63.9573
63.8971
63.9878
64.1054
64.0568
64.1892
64.0757
63.9722
64.1534
64.1208
64.0611
63.8869
63.9883
63.7651
63.9232
64.1421
64.1151
63.9892
63.9931
63.7493
63.8002
64.112
64.0227
64.0687
63.9768
63.8905
63.9079
64.1101
64.0841
64.3162
64.1908
64.1501
64.2756
64.2369
64.1304
64.0356
64.1375
63.8939
64.0267
64.1821
64.1545
64.0852
64.1101
63.9052
63.8708
64.1464
64.1712
64.1809
64.0773
63.9828
64.0209
64.1956
64.1874
64.4544
64.3432
64.3473
64.4068
64.3683
64.2464
64.223
64.2888
64.0869
64.1704
64.2744
64.2562
64.2471
64.2666
64.1542
64.0845
64.2713
64.365
64.3374
64.233
64.1701
64.2452
64.3424
64.3401
64.6048
64.5101
64.5344
64.5516
64.5185
64.4009
64.4
64.455
64.3254
64.3407
64.4129
64.3938
64.4262
64.4397
64.4025
64.3337
64.4417
64.555
64.4919
64.4401
64.3875
64.4927
64.5097
64.5181
64.7577
64.6709
64.7011
64.7146
64.6686
64.5705
64.5699
64.6189
64.5484
64.515
64.5711
64.5593
64.6296
64.592
64.5989
64.5431
64.6223
64.743
64.6342
64.6209
64.5876
64.703
64.6627
64.6799
64.8853
64.8119
64.8509
64.8788
64.81
64.7305
64.7419
64.7444
64.6907
64.6653
64.722
64.7129
64.8122
64.7168
64.7224
64.7058
64.7831
64.8983
64.7293
64.7436
64.6929
64.8736
64.7848
64.787
64.9602
64.9279
64.9597
64.9966
64.9013
64.8648
64.8866
64.8575
64.7718
64.7748
64.8493
64.8423
64.932
64.8184
64.7969
64.8084
64.9051
64.9969
64.804
64.8118
64.7749
65.0092
64.8789
64.8369
65.0057
65.0117
65.0338
65.037
64.946
64.9672
64.986
64.9516
64.8135
64.847
64.9484
64.9404
65.0021
64.9089
64.8563
64.8745
64.9879
65.0452
64.8968
64.8589
64.8475
65.0872
64.9507
64.8717
65.0484
65.0793
65.0859
65.0609
64.9783
65.0416
65.0554
64.9823
64.8345
64.8914
65.0239
65.0137
65.0478
64.9859
64.9124
64.9252
65.0432
65.0744
64.9794
64.9201
64.9137
65.1673
65.0155
64.9315
65.0949
65.1316
65.1242
65.0859
65.0122
65.0956
65.1176
64.9948
64.8696
64.9283
65.0833
65.0714
65.0791
65.0323
64.9525
64.9579
65.0817
65.0974
65.0296
64.9745
64.9645
65.2216
65.0659
64.9961
65.1497
65.1741
65.1605
65.1161
65.0838
65.1485
65.1735
65.0509
64.943
64.9767
65.1315
65.1226
65.1011
65.052
64.9783
64.9861
65.1104
65.113
65.0491
65.007
65.0051
65.2006
65.105
65.0511
65.2118
65.2114
65.1991
65.1895
65.1826
65.1958
65.2142
65.1373
65.0533
65.0594
65.1691
65.1628
65.1225
65.0653
64.99
65.0137
65.1342
65.1273
65.046
65.0286
65.0348
65.1538
65.112
65.0813
65.2556
65.2417
65.2325
65.2601
65.2322
65.2333
65.2503
65.251
65.1551
65.1439
65.1976
65.1895
65.1371
65.0834
65.0032
65.0425
65.1561
65.1423
65.0365
65.0404
65.0562
65.1093
65.0932
65.0551
65.2736
65.2658
65.2549
65.2836
65.2441
65.2594
65.2719
65.3469
65.1908
65.1967
65.2219
65.2087
65.1473
65.1164
65.0388
65.0719
65.1787
65.1353
65.0667
65.0195
65.069
65.0783
65.0768
65.0125
65.2812
65.2874
65.2702
65.2799
65.2425
65.2801
65.2781
65.3794
65.1851
65.2146
65.2493
65.2299
65.171
65.1689
65.0662
65.0881
65.207
65.1348
65.1117
65.0076
65.0708
65.0921
65.0906
64.998
65.2881
65.3111
65.2849
65.2761
65.2394
65.3024
65.2796
65.3539
65.1587
65.1724
65.2839
65.2621
65.2123
65.2158
65.0709
65.0865
65.2456
65.177
65.1314
65.0429
65.0649
65.1925
65.1096
65.0282
65.3015
65.3429
65.3085
65.2818
65.2368
65.3336
65.2882
65.3099
65.1277
65.126
65.3287
65.3083
65.2497
65.2437
65.0494
65.0508
65.2923
65.2215
65.1638
65.0651
65.0473
65.2801
65.2931
65.1088
65.3277
65.3902
65.3464
65.2982
65.2333
65.3793
65.304
65.2693
65.0966
65.0685
65.3837
65.3654
65.283
65.2222
64.9802
64.9623
65.3415
65.2376
65.1536
65.0467
64.9723
65.3031
65.2805
65.1258
65.3738
65.4573
65.4069
65.3302
65.2305
65.4442
65.3449
65.2293
65.0117
64.934
65.4503
65.4335
65.3416
65.1415
64.8077
64.7639
65.3981
65.2834
65.0987
64.9306
64.8036
65.3142
65.2132
65.0446
65.4549
65.5538
65.5007
65.3889
65.2287
65.5322
65.415
65.2005
64.8072
64.692
65.5286
65.5133
65.411
65.0562
64.4912
64.3712
65.465
65.3294
65.0486
64.7385
64.476
65.3356
65.1668
64.9173
65.5937
65.6863
65.6405
65.4905
65.2374
65.6445
65.5109
65.1692
64.4856
64.2085
65.6231
65.6072
65.4737
64.9456
63.9655
63.4881
65.5512
65.4149
64.9862
64.4142
63.899
65.3896
65.1468
64.7763
65.8213
65.8566
65.8356
65.6643
65.284
65.7775
65.6266
65.1167
63.9459
63.1513
65.7389
65.7193
65.5421
64.8076
63.1624
61.39
65.6626
65.5284
64.9523
63.9728
62.7887
65.4745
65.151
64.6539
66.1733
66.0595
66.0898
65.9259
65.4047
65.9285
65.7486
65.0207
63.1667
60.6037
65.8828
65.8541
65.6281
64.6701
62.121
56.313
65.81
65.6805
64.9741
63.4921
60.6395
65.5965
65.2031
64.598
66.6471
66.2687
66.3952
66.2768
65.6202
66.0801
65.857
64.8758
62.2082
53.0032
66.0459
66.0102
65.7425
64.5492
61.0561
50.0846
-31.0091
65.9944
65.8681
65.1186
63.2133
56.0062
65.7804
65.3676
64.6528
67.0676
66.4175
66.672
66.5923
65.7673
66.2064
65.8743
64.7764
61.3034
45.043
4.06077
66.2321
66.189
65.8842
64.7929
60.679
48.0462
5.6399
66.2223
66.1064
65.3653
63.2694
50.324
66.0177
65.6273
64.9563
66.923
66.3098
66.4641
66.2987
65.0878
66.2936
65.715
64.3382
60.3386
46.5427
12.0408
66.4517
66.3936
66.0588
65.0157
61.6904
48.2201
14.8836
66.4948
66.4091
65.7344
64.1258
53.8736
18.6838
66.3371
65.9832
65.4947
66.2597
65.741
65.6536
65.6001
64.4991
66.3843
65.6114
63.8154
61.2054
45.7986
10.7848
66.7235
66.6394
66.3192
65.1572
63.0285
49.6553
13.5686
66.823
66.718
66.1907
64.8982
60.0513
66.6887
66.3814
66.1488
66.1815
65.5422
65.2783
65.73
64.9178
66.603
65.9641
65.1503
63.6998
55.7702
67.0531
66.9418
66.6666
65.765
64.7688
55.025
-13.0372
67.2042
67.0235
66.6765
65.8924
65.5452
67.0736
66.7874
66.6869
66.6746
66.3585
66.0945
66.3397
65.7448
66.9886
66.7179
66.3718
65.4654
64.5636
67.4327
67.2619
67.0942
66.6028
66.3877
64.6108
67.602
67.2917
67.0755
66.7864
67.1256
67.448
67.1085
67.1168
67.1343
67.1287
66.9235
66.7901
66.4544
67.276
67.2789
66.9477
66.3036
66.7638
67.7576
67.5384
67.3818
66.9352
67.0469
67.1807
67.8987
67.4066
67.2461
67.2291
67.6658
67.6827
67.3076
67.4014
67.3629
67.4365
67.1881
66.952
66.9771
67.2619
67.2808
66.932
66.6085
67.3477
67.6774
67.5402
67.2408
66.9047
67.1248
67.5872
67.8149
67.1294
67.1545
67.3029
67.7035
67.215
67.2952
67.4735
67.4819
67.3202
67.2347
66.9889
67.3108
67.1061
67.2201
66.9807
66.828
67.5269
67.3848
67.2723
66.9684
66.6334
66.9991
67.5022
67.422
66.731
66.8828
67.2686
67.626
66.6335
67.1103
67.4461
67.5568
67.2955
67.3631
67.0588
67.5242
67.0965
67.2308
67.1298
67.2462
67.7154
67.2854
67.171
67.0843
66.8164
67.2853
67.6367
67.2442
66.5642
66.8017
67.379
67.6736
66.522
67.0861
67.4975
67.592
67.4179
67.5133
67.1341
67.5682
67.2024
67.2539
67.2548
67.4043
67.8429
67.4081
67.3074
67.1996
67.1471
67.5511
67.7797
67.374
66.8973
67.3701
67.6519
67.8355
66.8242
67.3811
67.7471
67.6719
67.5759
67.6146
67.3053
67.6624
67.4178
67.3468
67.1838
67.3552
67.9083
67.6196
67.4807
67.2593
67.3489
67.5518
67.8017
67.5859
67.2964
67.471
67.7917
67.8705
67.2804
67.7228
67.997
67.8101
67.7026
67.6517
67.4174
67.8135
67.5838
67.4132
67.2637
67.4158
68.0756
67.8838
67.6318
67.2955
67.3902
67.541
67.7687
67.6506
67.3818
67.5393
67.7763
67.851
67.4847
67.9062
67.9637
324.275
287.946
306.12
291.315
275.744
268.247
244.683
238.518
343.962
368.517
358.158
358.851
314.982
306.719
267.193
265.169
232.263
250.976
235.182
223.746
217.842
238.281
229.714
223.697
241.774
227.034
330.664
284.473
301.072
304.437
256.638
253.132
219.434
225.118
211.023
203.233
197.225
213.131
209.815
209.061
226.87
211.118
204.074
207.614
170.654
186.164
149.611
145.257
244.834
241.177
187.078
212.827
193.46
186.715
174.389
188.614
184.066
180.214
178.177
212.939
212.806
163.148
140.698
221.847
196.778
152.523
166.223
160.611
153.662
148.622
181.229
170.948
163.706
170.066
161.026
154.763
156.366
153.997
147.793
139.374
135.009
139.789
143.026
132.725
130.136
126.683
119.249
129.661
166.188
176.41
152.983
142.421
152.305
209.565
145.949
159.103
303.037
261.38
273.555
295.587
280.344
220.984
253.373
220.973
248.012
230.731
175.422
155.127
129.223
218.137
107.694
318.542
239.427
308.407
322.021
279.177
249.561
241.904
235.003
190.691
199.375
204.572
190.92
108
96.7479
148.712
113.622
165.521
102.401
301.606
246.225
260.84
216.661
165.138
163.1
136.073
139.585
104.931
124.273
128.132
174.339
151.075
135.445
120.714
122.848
141.746
133.782
122.262
124.592
114.045
139.129
117.181
137.308
133.385
139.03
120.149
133.338
119.519
129.173
113.299
111.593
113.943
110.353
106.126
108.445
108.712
111.583
139.791
127.04
128.606
128.503
120.441
119.842
122.006
124.953
122.284
116.248
111.271
117.514
108.582
187.411
131.947
134.348
174.831
129.043
99.8893
118.193
100.04
97.2616
93.079
89.7348
89.4305
92.3177
88.592
90.4576
160.715
111.952
172.329
154.797
122.119
125.357
122.881
106.021
95.9058
85.3556
96.7316
88.6538
88.2197
87.6116
86.3429
85.4329
91.0846
88.1161
139.919
116.926
113.147
99.6676
98.3426
96.095
114.735
115.78
87.8406
99.6719
104.389
107.888
110.078
103.519
106.511
109.635
112.858
103.463
91.7019
97.0833
93.3052
110.219
107.464
116.758
110.842
107.984
105.076
99.9241
105.566
97.1332
101.57
104.505
102.91
99.4169
99.6458
100.737
100.874
96.6013
105.328
97.6375
109.573
109.141
99.705
101.357
101.482
105.234
106.457
101.545
99.8034
100.454
99.3413
102.996
88.2606
89.7777
96.0674
90.4463
82.8279
85.0677
83.037
85.8362
86.9283
80.6345
80.9066
80.189
85.5968
79.6943
91.7497
84.4962
96.6029
90.1404
85.0718
87.7061
85.342
84.7894
80.8662
83.8252
82.6801
81.8307
79.1638
79.6181
77.7499
78.0717
83.4212
79.2894
87.122
88.6571
86.6261
82.9747
83.2743
81.601
81.1967
86.2447
78.3215
75.9917
77.0379
95.8665
105.453
85.8415
84.4502
91.7859
85.1459
83.8462
79.6284
80.6111
77.2556
103.434
93.9836
95.6197
96.8117
92.3426
89.2901
88.8978
87.1581
88.0057
98.6414
98.1122
99.834
88.3387
91.1709
96.1807
98.8419
82.0659
93.3704
88.9844
94.8933
95.5417
89.8485
90.0507
90.5858
94.5863
95.213
89.4253
89.0334
90.3117
91.6585
80.3603
74.6914
77.4409
78.4453
77.3956
72.7301
73.0676
72.3935
75.9483
75.3077
71.9996
71.9405
71.9907
75.1608
71.9105
81.1381
78.7008
80.1925
82.2466
78.5738
78.2528
76.0954
80.0656
76.6564
77.0127
74.582
76.1598
72.6616
75.687
72.863
75.2827
77.4826
76.2162
80.2944
80.6912
79.7038
78.3948
78.7557
78.2419
75.018
75.5975
76.1788
73.4146
73.9233
79.5817
79.2773
77.5594
76.7828
74.9665
76.8169
74.2733
73.4465
73.5239
72.381
78.8399
75.9778
81.8681
82.0481
83.9267
77.7719
78.6531
78.7484
80.0698
77.1802
94.1853
89.5244
78.1491
71.9233
84.6316
73.7919
72.7487
84.9441
81.3479
85.9255
86.5701
81.8469
82.2998
82.2794
83.4696
85.4942
79.7991
78.5373
80.7524
78.6029
68.4582
66.0664
68.7928
68.2733
68.6608
66.5497
66.1192
66.6631
69.2532
69.5156
67.2705
67.5502
67.8066
69.7081
68.1807
76.2491
73.3292
70.1653
76.8516
74.1092
67.6821
66.2488
73.0523
70.793
71.9922
71.0768
72.3735
68.6319
68.6142
69.4513
69.3399
73.709
70.1809
76.9655
76.7239
76.6545
75.9915
74.6407
74.8529
71.5317
71.3351
71.0969
69.669
68.2676
74.6826
73.3389
73.248
72.9716
72.53
70.6074
70.6354
69.1871
68.071
69.0463
75.1046
73.9931
76.2575
76.0859
76.6084
73.522
74.2076
74.297
74.0725
70.7948
69.4344
68.2438
69.7421
68.5042
66.5446
67.4564
68.8478
77.4948
73.2967
78.6578
76.9826
72.0405
72.6836
70.137
73.4445
75.0802
70.9998
68.9102
69.1823
67.9198
65.9785
65.6469
65.9703
65.8397
65.966
65.7137
65.6495
65.6896
66.5176
66.8522
65.9134
65.8781
66.2668
67.3016
66.6962
69.3181
65.0984
65.6822
67.9143
66.9299
65.2191
65.4749
64.9572
64.949
67.6154
68.3123
67.9546
66.978
66.9815
67.6496
66.9897
67.786
66.5786
73.198
72.4037
72.9205
67.1373
69.4221
70.6449
66.5133
68.3656
67.8329
66.7885
66.3832
66.8069
66.034
66.9807
66.5153
66.5696
66.699
67.2253
66.3884
66.5936
71.7458
71.7659
70.6393
71.1526
70.9925
67.2945
67.7228
65.2522
66.9752
65.7071
66.8225
64.989
66.5425
66.3484
66.4897
66.2367
66.5926
66.1384
66.5414
72.6648
71.6092
72.7286
72.3939
72.2407
71.4243
70.0853
70.3604
69.3582
66.1865
66.41
66.7429
65.666
65.6756
66.0682
66.2519
66.0898
69.7175
67.3809
66.841
66.6324
65.995
65.6899
66.1967
66.6064
66.4634
65.5881
66.047
66.1724
66.3197
65.3387
65.1195
65.4561
65.4336
65.4556
65.2592
65.2428
65.2634
65.4669
65.8317
65.2138
65.1518
65.4374
65.9974
65.4508
64.648
64.6619
65.2083
64.6804
64.5581
64.812
64.9679
64.6478
64.6828
66.1825
67.1582
66.419
65.449
65.4406
66.3501
66.1279
66.7451
66.8356
66.4194
66.796
66.8781
67.2032
66.5284
67.0751
64.5818
65.4842
65.7398
64.6574
64.6205
64.5605
66.8953
66.3715
66.5723
66.6085
66.737
66.3044
66.3742
66.8941
66.3498
66.5472
66.3144
66.7182
65.9539
66.4934
68.6802
69.3237
64.7613
64.9218
66.0091
66.4872
66.7242
66.0726
66.6227
66.5864
66.6127
66.7175
66.5498
66.2588
66.5242
65.9908
66.5063
66.1416
66.5262
68.9313
65.3745
66.187
67.1286
65.8647
64.9401
64.3778
64.4781
64.3332
65.8707
65.7365
65.9538
65.365
65.9227
65.4865
65.7492
65.614
66.8271
67.0915
66.4323
66.1031
66.4011
65.6454
64.7428
65.5278
65.7825
64.9487
65.2427
65.3369
65.8015
65.8133
65.3934
65.4763
65.3559
65.6386
64.9198
64.7624
65.0867
65.0484
65.0869
64.9336
64.8721
64.9296
64.9129
65.0413
64.8599
64.7916
64.7442
65.0632
64.7579
64.5448
64.5054
64.7799
64.5547
64.6041
64.6403
64.6646
64.5295
64.4792
64.9508
65.1348
65.4572
64.5147
64.6733
64.4223
64.9582
65.8048
66.4359
64.5982
65.8397
66.2121
67.0856
66.0827
67.1334
64.5061
64.5125
64.4868
64.4797
64.4225
64.4252
66.4975
66.03
66.1576
65.5764
66.1548
65.5665
65.7963
66.7838
65.6177
66.4206
65.7143
66.9601
65.3824
66.4481
64.3018
64.2286
64.4075
64.419
64.2422
66.5326
66.3882
67.0438
66.0485
66.4115
65.9579
67.3779
66.4356
66.1829
66.4512
66.032
66.5448
66.6878
66.9533
64.2816
64.2483
64.2334
64.1943
64.3618
64.3054
64.3514
64.3167
64.4185
65.7631
65.2815
65.5845
65.1232
65.5132
65.1234
65.3879
67.9289
66.3582
68.4489
66.5089
67.0183
66.9335
64.5757
64.493
64.9196
64.9169
64.5754
64.6424
64.632
65.1288
64.9014
64.6334
64.8529
64.6505
65.0919
64.6672
64.5935
64.7822
64.7286
64.7994
64.637
64.618
64.69
64.7229
64.6364
64.6468
64.6494
64.5975
64.5874
64.5733
64.4604
64.4216
64.5925
64.4893
64.4447
64.5125
64.5296
64.4417
64.4188
64.5587
64.324
64.6277
64.5141
64.5226
64.3541
64.4569
63.5941
63.387
64.4261
64.3735
64.3807
64.3823
64.3562
64.3509
65.7796
65.046
65.4137
63.3412
64.2725
64.1785
64.8564
67.1084
65.262
66.4802
66.0768
67.1969
66.4809
66.8269
64.3656
64.3275
64.3178
64.3206
64.2723
66.4059
65.717
68.4938
64.813
66.4115
65.0503
68.8229
66.9696
67.3922
67.305
67.3764
67.7184
68.0264
67.683
64.2629
64.2591
64.3573
64.305
64.36
64.2788
64.2994
64.2485
64.2761
65.2024
64.9742
65.1562
64.7857
64.8908
64.8022
64.9118
64.5615
64.4049
64.2991
64.4419
64.498
64.3369
64.4036
64.4046
64.6815
64.5499
64.494
64.585
64.4619
64.7492
64.4816
64.4169
64.5446
64.5281
64.5704
64.4613
64.4515
64.4623
64.5497
64.5493
64.4581
64.4545
64.4774
64.5451
64.4687
64.3851
64.3373
64.4577
64.3938
64.3637
64.3948
64.3895
64.3496
64.3085
64.4927
64.3097
64.3449
64.4183
64.4224
64.2243
64.2521
63.5026
63.8149
64.3465
64.3221
64.3171
64.3049
64.283
64.2842
64.4157
65.9863
63.0958
63.8181
62.0335
64.2773
64.2216
64.2548
64.2416
64.2188
66.8509
64.1974
63.6407
61.3331
63.8903
64.2013
64.1887
64.2272
64.2095
64.2129
64.1661
64.1694
64.189
64.1641
64.6221
64.6451
64.6951
64.4309
64.447
64.5344
64.5548
64.1361
64.2414
64.1923
64.366
64.3619
64.2453
64.3012
64.3037
64.5082
64.4019
64.3665
64.4354
64.3531
64.5354
64.3578
64.274
64.3858
64.3867
64.3939
64.305
64.3227
64.3125
64.3812
64.3905
64.3316
64.3133
64.3005
64.3832
64.2789
64.2953
64.252
64.322
64.3087
64.2616
64.2746
64.267
64.2667
64.2098
64.3354
64.1571
64.194
64.2604
64.278
64.1101
64.1678
63.993
64.0707
64.2569
64.2367
64.2393
64.2096
64.1898
64.1931
63.7719
63.1623
63.8974
63.926
63.9744
64.2102
64.1987
64.1798
64.1758
64.1663
62.7252
63.9011
63.8312
63.8911
64.037
64.1775
64.1662
64.1414
64.1391
64.1383
64.1363
64.1151
64.1203
64.1228
64.3323
64.4335
64.4225
64.2038
64.2786
64.3312
64.3243
64.2725
64.1677
64.1437
64.2445
64.2369
64.1742
64.1844
64.1851
64.3395
64.3003
64.2231
64.2392
64.2328
64.3258
64.2185
64.1638
64.201
64.2551
64.2055
64.1167
64.1954
64.1053
64.2344
64.2327
64.1422
64.1414
64.1903
64.2019
64.174
64.1872
64.1519
64.2043
64.2048
64.1618
64.178
64.1389
64.1624
64.1203
64.2278
64.0778
64.1533
64.1553
64.1914
64.0664
64.1444
64.1077
64.1267
64.1655
64.1756
64.1519
64.1424
64.1496
64.1286
64.0349
64.1155
64.0766
64.033
64.1013
64.1493
64.151
64.1243
64.1215
64.1353
64.2892
64.1495
64.1442
64.3233
64.206
64.14
64.1165
64.0989
64.1132
64.1088
64.1077
64.0859
64.1064
64.0881
64.2293
64.2279
64.2501
64.0872
64.1577
64.1476
64.1797
64.2494
64.1126
64.0924
64.1442
64.1465
64.1225
64.1237
64.1179
64.1741
64.176
64.1231
64.1282
64.1253
64.1048
64.1241
64.1068
64.052
64.142
64.0357
64.0242
64.107
64.0112
64.0601
64.1583
64.0453
64.0366
64.146
64.1455
64.1396
64.1257
64.1018
64.0989
64.1297
64.0912
64.1027
64.077
64.109
64.0736
64.1695
64.0735
64.1421
64.1327
64.1584
64.0863
64.1393
64.1351
64.1358
64.1144
64.0854
64.0884
64.0757
64.0693
64.0498
63.9989
64.0741
64.1014
63.983
64.0735
64.0779
64.113
64.0574
64.0421
64.0719
64.279
64.1864
64.1123
64.2444
64.1485
64.1057
64.0693
64.0648
64.091
64.0686
64.0629
64.0419
64.0616
64.0535
64.1143
64.1085
64.1353
64.0209
64.0883
64.0817
64.0981
64.1391
64.0738
64.0551
64.0896
64.0811
64.0603
64.0582
64.0488
64.083
64.0808
64.0511
64.0451
64.0417
64.0675
64.1034
64.1009
64.039
64.1091
64.0296
64.0885
64.1237
64.083
64.0657
64.1633
64.1405
64.1149
64.1898
64.1511
64.1705
64.0827
64.0728
64.0678
64.0844
64.0665
64.0821
64.0647
64.0753
64.069
64.1544
64.0859
64.1301
64.1562
64.1502
64.0844
64.1181
64.1299
64.1183
64.0525
64.052
64.026
64.0388
64.0366
64.0113
63.978
64.0813
64.1271
63.9802
64.0817
64.0184
64.0288
64.0102
63.9937
63.995
64.2146
64.1213
64.0619
64.1856
64.0979
64.0329
64.0103
64.0155
64.0356
64.026
63.9993
63.9945
63.9954
64.0027
64.0602
64.0392
64.0604
63.9679
64.0256
63.9994
64.0292
64.092
64.0291
63.9956
64.019
64.0138
63.9777
63.9722
63.9726
64.0026
64.0004
63.9554
63.9624
63.9595
63.967
64.1157
64.1332
64.1495
64.1468
64.1383
64.2134
64.1713
64.193
64.1613
64.2095
64.3039
64.2445
64.2315
64.1969
64.2289
64.0599
64.0377
64.0745
64.0688
64.0791
64.0844
64.0888
64.0523
64.0632
64.146
64.1005
64.1028
64.1904
64.1531
64.1294
64.0846
64.1016
64.083
64.0232
64.0242
63.9944
64.0043
64.0182
63.9801
63.9893
64.0809
64.1066
63.9937
64.0736
63.9621
63.9712
63.9696
63.9474
63.9513
64.1614
64.0703
64.0494
64.1424
64.0454
63.9881
63.9625
63.9623
63.9595
63.9678
63.9459
63.9277
63.9279
63.9185
63.9875
63.9734
63.9943
63.9248
63.9574
63.9497
63.9604
64.0125
63.9478
63.9127
63.9378
63.935
63.9087
63.911
63.9064
63.9331
63.9294
63.9108
63.9064
63.9039
63.9246
64.1507
64.1608
64.2677
64.1975
64.2516
64.2999
64.2181
64.2886
64.3401
64.2792
64.3821
64.4211
64.3284
64.2484
64.2592
64.0307
64.0197
64.107
64.0532
64.0714
64.0856
64.1214
64.0443
64.0917
64.1654
64.141
64.069
64.2608
64.1686
64.1467
64.0732
64.0737
64.0608
63.9922
63.9923
63.9698
63.9774
63.9627
63.9533
63.9899
64.0576
64.0771
63.9883
64.0442
63.9325
63.9332
63.9255
63.9034
63.9012
64.1156
64.0252
64.0229
64.0852
64.0059
63.9312
63.8966
63.8953
63.8932
63.8792
63.869
63.8488
63.86
63.845
63.9351
63.9237
63.9331
63.8878
63.9175
63.8977
63.9106
63.9748
63.8772
63.8315
63.8786
63.8794
63.8182
63.8447
63.8543
63.8802
63.8711
63.8406
63.8537
63.8403
63.8758
64.1538
64.1311
64.2871
64.2154
64.2672
64.2455
64.1949
64.226
64.4231
64.3315
64.3675
64.3417
64.2762
64.2562
64.2257
64.0046
63.9767
64.1152
64.0344
64.0836
64.0573
64.0998
64.0079
64.0489
64.164
64.181
64.0879
64.2163
64.1383
64.2401
64.0897
64.0621
64.0753
63.9607
63.94
63.9355
63.9321
63.9096
63.9118
63.9838
64.0294
64.0382
63.9745
64.0107
63.8647
63.8697
63.8489
63.8313
63.8382
64.055
63.9835
63.976
64.0232
63.9548
63.8592
63.8228
63.8021
63.8223
63.8032
63.7869
63.7684
63.7865
63.7606
63.8958
63.871
63.8849
63.8367
63.8667
63.8378
63.8545
63.9208
63.7908
63.7531
63.8173
63.8162
63.7443
63.7632
63.7634
63.821
63.8057
63.7678
63.7889
63.7679
63.809
64.0952
64.0387
64.1858
64.1494
64.1641
64.1168
64.0823
64.0858
64.2834
64.1802
64.3052
64.2173
64.0609
64.1807
64.106
63.9388
63.8991
64.0694
63.9709
64.016
63.9807
64.0214
63.9324
63.9682
64.0814
64.2437
64.0599
64.0692
64.0083
64.1541
64.005
64.0799
64.0533
63.8852
63.8682
63.8738
63.8444
63.8235
63.8283
63.9551
63.9842
63.9643
63.93
63.9531
63.7952
63.7998
63.7701
63.7586
63.765
63.9868
63.9232
63.909
63.946
63.8935
63.7806
63.736
63.7329
63.7525
63.7226
63.7194
63.6943
63.7199
63.6799
63.8389
63.8024
63.8226
63.7621
63.8172
63.7672
63.792
63.8586
63.7143
63.6782
63.7133
63.7017
63.6743
63.6933
63.6607
63.7587
63.7402
63.7056
63.7239
63.7092
63.7441
63.9679
63.9082
64.0339
64.0072
63.9993
63.9453
63.9277
63.9169
64.0915
63.941
64.0071
63.954
63.8522
64.0076
63.9185
63.8555
63.8113
63.9568
63.8864
63.9087
63.8728
63.8934
63.8381
63.847
63.9328
64.0097
63.9389
63.8629
63.8587
63.8584
63.868
64.008
63.9482
63.8041
63.778
63.7824
63.7644
63.7361
63.7408
63.8985
63.9143
63.8672
63.8611
63.8705
63.7229
63.7291
63.6936
63.6921
63.6927
63.9013
63.859
63.8273
63.8568
63.8235
63.6983
63.662
63.6589
63.6791
63.6476
63.6446
63.6295
63.627
63.6171
63.784
63.7321
63.7602
63.6788
63.7327
63.6972
63.7236
63.7799
63.6483
63.621
63.6636
63.6561
63.6209
63.6317
63.626
63.685
63.6809
63.6535
63.6453
63.6562
63.673
63.8535
63.8052
63.8567
63.8547
63.8404
63.774
63.7914
63.7692
63.8254
63.7728
63.7337
63.704
63.6886
63.8317
63.7424
63.7695
63.7344
63.8405
63.7893
63.7896
63.7773
63.7958
63.7481
63.7429
63.7913
63.7186
63.793
63.7158
63.7286
63.6055
63.7298
63.8834
63.8244
63.7287
63.7017
63.7053
63.6979
63.6713
63.678
63.8244
63.8315
63.7933
63.7982
63.8042
63.6614
63.6582
63.6351
63.6311
63.6297
63.8194
63.7937
63.7661
63.7926
63.7711
63.6322
63.6079
63.6037
63.6031
63.5905
63.6011
63.583
63.586
63.5702
63.7021
63.6686
63.69
63.6338
63.6912
63.6485
63.673
63.7264
63.5977
63.5877
63.6149
63.6062
63.589
63.6017
63.5924
63.6169
63.6308
63.6081
63.5964
63.6086
63.6308
63.7648
63.7305
63.707
63.7416