/*--------------------------------*- C++ -*----------------------------------*\
| =========                 |                                                 |
| \\      /  F ield         | OpenFOAM: The Open Source CFD Toolbox           |
|  \\    /   O peration     | Version:  5.x                                   |
|   \\  /    A nd           | Web:      www.OpenFOAM.org                      |
|    \\/     M anipulation  |                                                 |
\*---------------------------------------------------------------------------*/
FoamFile
{
    version     2.0;
    format      ascii;
    class       surfaceScalarField;
    location    "0.25";
    object      phi;
}
// * * * * * * * * * * * * * * * * * * * * * * * * * * * * * * * * * * * * * //

dimensions      [0 3 -1 0 0 0 0];

internalField   nonuniform List<scalar> 
29271
(
-1.05952e-05
3.07721e-07
1.70184e-05
-6.73169e-06
-1.71481e-05
4.21491e-06
6.86373e-06
6.20482e-06
-3.60736e-05
-8.50938e-06
-7.94008e-06
4.90276e-06
7.38555e-06
4.02347e-05
-3.77372e-05
-1.10376e-05
-4.27282e-07
-3.84798e-06
6.10965e-06
4.69404e-05
-3.76705e-05
-8.73966e-06
-6.611e-06
5.28308e-06
4.09002e-05
6.83784e-06
-3.65827e-05
-8.82245e-06
-8.20996e-06
6.2812e-06
4.04541e-06
4.32885e-05
-3.83728e-05
-5.36276e-06
-5.02489e-06
1.79237e-06
1.76969e-06
4.51984e-05
-3.7523e-05
-2.48785e-06
1.24473e-06
-3.37531e-06
1.09257e-08
4.21305e-05
-3.74832e-05
-3.61404e-06
5.32961e-06
-6.77552e-06
1.13995e-06
4.14032e-05
-3.37456e-05
-2.74839e-06
-1.17272e-06
2.96589e-05
8.04519e-06
-1.09812e-05
9.72894e-07
1.44201e-05
-4.41679e-06
-3.7856e-05
-1.12685e-05
-8.9277e-08
5.8698e-06
-3.80082e-06
4.71449e-05
-3.77414e-05
3.90757e-07
-3.14218e-06
-2.04274e-07
-3.0683e-06
4.37654e-05
-3.65651e-05
2.44495e-07
1.87218e-06
-2.27583e-06
-7.84236e-08
3.68027e-05
-3.77877e-05
-6.27393e-08
4.58986e-06
-6.55729e-06
-1.7655e-06
4.15834e-05
-3.7975e-05
-2.64769e-07
-1.0234e-05
7.73939e-07
4.00847e-05
7.6151e-06
-3.75278e-05
-8.47677e-06
7.41051e-06
-7.34632e-06
3.78003e-05
8.14006e-06
-3.7621e-05
-4.74513e-06
5.99557e-06
3.73335e-06
-7.79042e-06
4.04277e-05
-3.81313e-05
2.67047e-06
1.48259e-07
-3.97723e-06
-5.56474e-06
4.48545e-05
-3.60031e-05
-6.67054e-06
-4.43551e-06
3.60134e-05
4.30078e-06
6.79506e-06
-1.54929e-05
3.27784e-06
4.27005e-06
7.95473e-06
-3.34188e-05
-3.84005e-06
3.14962e-06
2.59342e-05
8.23353e-06
-3.87993e-05
-1.451e-06
-4.44178e-07
-1.52967e-05
4.60631e-05
9.92812e-06
-1.54922e-05
5.30144e-06
6.4043e-06
3.80735e-06
3.0576e-06
-1.85568e-06
-1.04666e-05
9.26464e-06
1.20452e-06
-1.2183e-06
5.38079e-07
-5.23491e-07
-2.52464e-06
-2.68577e-06
-4.27228e-05
2.22934e-06
3.45339e-06
4.22504e-05
-6.17712e-08
-4.92928e-05
6.48857e-07
-1.02867e-06
2.88003e-06
4.68544e-05
-3.94573e-05
6.38186e-06
-4.71983e-07
1.74356e-07
3.23161e-05
1.05697e-06
-2.87773e-06
-1.21876e-06
-4.52515e-05
2.60024e-06
2.19473e-06
4.4553e-05
-6.6576e-06
-1.88582e-07
0.000210481
-4.90166e-05
-4.8099e-05
-4.73079e-05
-4.54583e-05
-3.57802e-06
-3.48525e-06
-7.01209e-07
-3.1429e-07
-2.79904e-06
-3.07261e-06
-2.34349e-07
4.31857e-07
-1.60477e-05
-1.77686e-06
0.00019167
-4.58401e-05
-4.56122e-05
-3.96083e-05
-4.47998e-05
-2.93727e-06
-3.10501e-06
3.9628e-07
1.00334e-06
-4.57994e-06
-2.33292e-06
0.000161635
-7.85073e-07
4.72685e-07
3.52725e-06
3.31299e-06
-2.02456e-06
-1.31229e-06
-1.08779e-06
-4.62418e-05
-4.2806e-05
-4.3426e-05
-4.03989e-05
-2.52206e-05
5.75378e-06
-2.72393e-06
1.7615e-05
3.09088e-06
-1.99758e-06
-8.67281e-06
7.57982e-06
-3.32594e-07
-5.00107e-05
1.94871e-07
3.23847e-06
-1.49501e-06
4.84049e-05
-7.76401e-06
-5.69645e-06
0.000199313
-4.78418e-05
-3.93922e-05
-4.3165e-05
-4.90261e-05
-3.27798e-06
-3.43551e-06
1.66613e-08
8.10428e-08
-1.89565e-05
-2.35215e-06
0.000189083
-3.84148e-05
-4.57886e-05
-4.69857e-05
-4.61265e-05
-2.32477e-06
-9.49348e-07
0.000155872
-4.22569e-06
-1.07089e-06
-1.71465e-06
4.63454e-07
3.02155e-06
3.17783e-06
-4.54758e-05
-4.25437e-05
-4.58445e-05
-3.96752e-05
-3.40687e-05
-2.39219e-08
7.9359e-06
2.20901e-06
2.16229e-05
-3.5647e-05
5.73963e-06
1.13965e-06
-5.26153e-07
2.76247e-05
1.66915e-06
-4.21272e-06
-3.15006e-06
0.00018098
-3.13957e-06
-1.6483e-06
4.68593e-07
8.11338e-07
-6.48341e-07
8.73768e-07
-2.70472e-07
-4.28865e-05
-4.7467e-05
-3.92478e-05
-4.61596e-05
-4.75137e-06
3.5342e-07
0.000192992
-2.759e-06
-1.7193e-06
-7.63311e-07
-1.17212e-06
8.03964e-07
1.38295e-06
-4.8633e-05
-4.72524e-05
-5.14079e-05
-4.36388e-05
-3.62451e-05
-3.68531e-06
3.42694e-07
3.3887e-05
-3.54542e-06
-3.53381e-06
7.60386e-07
6.31951e-06
-1.59816e-05
1.39696e-06
4.80935e-06
6.62594e-06
-4.52025e-05
-1.39408e-06
-2.31893e-06
1.07883e-05
3.84806e-05
6.58776e-07
-8.14836e-06
-9.05019e-07
8.39419e-06
-1.16923e-05
-8.76796e-08
-5.66796e-07
1.23467e-05
2.94208e-06
2.7928e-07
3.62898e-08
-3.25552e-06
-1.98145e-06
-1.79838e-06
-4.36307e-05
8.58672e-07
1.86396e-06
4.46879e-05
-1.1545e-06
-4.66884e-05
5.7855e-07
-4.29622e-07
9.38857e-07
4.67551e-05
-3.38464e-05
1.32722e-06
-2.04624e-06
-6.53687e-07
3.38009e-05
1.41822e-06
-2.46666e-06
-1.22987e-06
-4.56939e-05
9.0241e-07
1.21313e-06
4.72749e-05
-9.48849e-06
-1.37572e-06
0.000224596
-1.04651e-06
-1.82045e-06
-2.32458e-07
1.68016e-07
-4.92423e-07
-9.29702e-07
3.27442e-07
7.75469e-07
-1.33717e-05
-3.23212e-06
0.000198325
-1.2022e-06
-6.69677e-07
9.79331e-07
1.3534e-06
-2.83859e-06
-1.40421e-06
0.000154421
1.29857e-06
2.17482e-06
2.64581e-06
1.8251e-06
-3.90732e-06
-2.47543e-06
-3.47714e-06
-1.54245e-05
2.39368e-06
-2.95688e-06
1.3154e-05
-9.35045e-06
-3.09785e-07
4.52386e-08
9.61505e-06
-1.58614e-06
-4.86968e-05
3.55794e-08
1.24275e-06
-5.47531e-07
4.95522e-05
-9.95461e-06
-1.91561e-06
0.000210784
-1.28989e-06
-1.24697e-06
8.03081e-07
7.56992e-07
-1.5074e-05
4.66364e-07
0.000190504
-3.89318e-06
9.51003e-07
0.000146922
-3.09465e-06
-3.57541e-06
-2.88489e-06
1.52072e-06
2.2312e-06
1.21767e-06
-1.6611e-05
-1.73349e-09
-6.41045e-07
2.53644e-06
1.08242e-05
-2.80274e-05
-1.22636e-07
8.65414e-07
-1.73688e-07
2.62746e-05
1.18371e-06
-5.03794e-06
-5.0022e-07
0.000186849
-7.11337e-07
6.35791e-07
7.23626e-07
7.49976e-07
-1.99959e-06
2.57993e-07
-1.90277e-06
-3.37721e-06
-1.12328e-06
0.000195144
-1.22686e-06
-1.78515e-06
-1.00647e-06
1.10492e-06
-6.40169e-07
1.33107e-06
-3.6708e-05
-3.68824e-06
1.30285e-06
3.66672e-05
-6.61564e-06
-1.54794e-06
3.18717e-06
4.99163e-06
-3.38257e-06
-2.19814e-07
2.00501e-06
1.09693e-06
-4.09598e-05
-9.17241e-07
-2.11866e-06
1.70071e-07
4.27023e-05
-1.00283e-05
-2.42825e-06
1.79962e-06
1.06579e-05
-1.28239e-05
-5.08819e-08
-6.1381e-07
1.34899e-05
3.27725e-06
6.78269e-07
-6.23594e-07
-3.33003e-06
-2.04837e-06
-4.52219e-07
-4.57555e-05
1.20804e-07
1.42882e-06
4.67065e-05
-1.1477e-06
-4.77785e-05
8.769e-07
-7.81514e-07
4.72142e-07
4.83587e-05
-3.40349e-05
8.43442e-07
-1.53736e-06
-1.04627e-06
3.41858e-05
1.58933e-06
-7.621e-07
-1.39713e-06
-4.89242e-05
7.05201e-07
6.41621e-07
4.97366e-05
-7.42128e-06
4.67796e-07
0.000236016
-8.7016e-07
-2.01269e-06
-2.88914e-07
-2.01153e-07
-5.63166e-07
-1.15694e-06
7.88267e-08
5.47245e-07
-1.29611e-05
-1.96656e-06
0.000205655
-1.03793e-06
-7.87428e-07
8.78694e-07
1.12216e-06
-2.88113e-06
-7.50385e-07
0.0001487
9.08614e-07
8.46482e-07
2.01128e-06
9.76998e-07
-3.5695e-06
-2.27165e-06
-2.5109e-06
-1.1134e-05
7.44174e-07
-1.73944e-06
9.24929e-06
-9.72621e-06
-2.37875e-07
2.10398e-07
9.75483e-06
-1.58603e-06
-5.08189e-05
1.01732e-07
1.0637e-06
-1.45888e-07
5.13854e-05
-8.08131e-06
-1.56382e-06
0.000222172
-1.07712e-06
-1.37757e-06
5.99124e-07
5.80749e-07
-1.40913e-05
-8.50378e-09
0.000194556
-3.8703e-06
6.80366e-07
0.000142463
-3.5229e-06
-3.16562e-06
-2.86723e-06
1.56555e-07
1.92321e-06
2.83301e-07
-5.85595e-06
1.91753e-07
-1.27635e-06
1.51468e-06
1.55555e-06
-2.56737e-05
-9.73395e-07
1.20349e-06
2.73397e-07
2.47015e-05
4.6865e-07
-4.54082e-06
-6.37173e-07
0.000193791
-7.47623e-07
1.52356e-08
6.92989e-07
1.06307e-07
-2.04714e-06
3.57376e-07
-1.70522e-06
-3.6156e-06
-1.16178e-06
0.000199589
-1.64261e-06
-2.12274e-06
-1.52327e-06
9.30245e-07
-7.592e-07
8.99796e-07
-3.93033e-05
-3.48563e-06
1.22671e-06
3.8627e-05
-3.19027e-06
-5.79876e-07
2.33863e-06
1.4387e-06
-5.87244e-08
-7.01507e-07
9.10432e-07
-7.86794e-07
-4.45715e-05
-2.3059e-07
-2.38658e-06
8.54538e-07
4.51723e-05
-1.10666e-05
-1.50216e-06
1.49363e-06
1.10758e-05
-1.40089e-05
6.31157e-08
-2.49783e-07
1.41959e-05
3.38303e-06
7.50191e-07
-6.61822e-07
-3.46922e-06
-1.13685e-06
-2.11997e-12
-4.77466e-05
-5.49364e-07
7.12814e-07
4.872e-05
-6.88323e-07
-4.90313e-05
1.13522e-06
-7.35566e-07
2.20061e-07
4.90999e-05
-3.44508e-05
-4.07771e-07
-2.10286e-07
-6.72672e-07
3.45487e-05
1.19286e-06
2.83344e-08
-1.05893e-06
-5.02151e-05
5.44392e-07
4.58703e-07
5.02426e-05
-6.0291e-06
1.086e-06
0.000240826
-3.50008e-07
-1.70527e-06
4.2002e-07
1.50687e-07
-1.31622e-07
-4.00721e-07
5.9623e-07
1.55425e-06
-8.78139e-06
-1.69202e-07
0.000207645
-9.71173e-07
-7.3408e-07
1.0589e-06
1.57871e-06
-1.35423e-06
-2.82797e-07
0.000137608
9.97138e-07
3.03128e-07
2.3454e-06
8.26518e-07
-1.32375e-06
1.93606e-07
6.05943e-07
-7.85741e-06
-4.76381e-07
-6.2836e-08
7.04116e-06
-9.86487e-06
-1.45652e-07
2.01494e-07
9.80611e-06
-1.17437e-06
-5.17411e-05
3.42529e-07
1.15583e-06
1.31933e-07
5.12852e-05
-6.46308e-06
-5.04442e-07
0.000231381
-1.38134e-06
-1.31041e-06
5.29555e-07
1.00631e-06
-1.31555e-05
3.823e-07
0.000200697
-2.16721e-06
4.96229e-07
0.000132953
-2.12816e-06
-5.20111e-07
-1.12441e-06
-4.82385e-07
1.84194e-06
1.55784e-07
1.39875e-06
1.44302e-07
-1.16525e-06
4.89675e-07
-3.03468e-06
-2.40094e-05
-1.02981e-06
1.44801e-06
6.47312e-07
2.30249e-05
-8.09973e-08
-3.86921e-06
3.51134e-07
0.000198122
-7.81478e-07
1.46834e-07
9.05941e-07
5.61752e-07
-1.81623e-06
9.6907e-07
-1.30251e-06
-3.20234e-06
-8.06618e-07
0.000202264
-1.37519e-06
-1.45637e-06
-8.07618e-07
8.23574e-07
-2.51397e-07
9.14939e-07
-4.02269e-05
-2.60338e-06
5.80422e-07
3.95438e-05
-1.18286e-07
5.18775e-07
5.4404e-07
-9.40897e-07
7.64667e-07
-3.45714e-07
5.52945e-08
-1.23549e-07
-4.57016e-05
5.79578e-07
-2.54981e-06
9.11805e-07
4.59534e-05
-1.09483e-05
-6.22594e-07
1.27841e-06
1.0293e-05
-1.43914e-05
8.41645e-08
-4.64989e-07
1.47722e-05
3.58964e-06
4.84077e-07
-3.22322e-07
-3.74972e-06
-6.71772e-08
4.36695e-07
-5.00156e-05
-1.04141e-06
-4.80488e-07
5.1168e-05
-1.93904e-07
-4.93085e-05
1.21552e-06
-6.14418e-07
-2.91248e-07
4.91926e-05
-3.45679e-05
-5.24502e-07
8.79324e-07
-1.8389e-07
3.37283e-05
6.68715e-07
1.87313e-07
-7.61314e-07
-5.06349e-05
2.27641e-07
1.51239e-07
5.083e-05
-6.59542e-06
3.42597e-07
0.000243974
3.25946e-07
-1.29695e-06
6.17278e-07
5.63195e-07
4.24779e-07
-8.08838e-08
8.85912e-07
1.66487e-06
-4.69879e-06
7.65043e-07
0.000203018
-5.36552e-07
-5.07868e-07
1.37543e-06
1.6344e-06
1.42458e-06
-4.48523e-07
0.00012383
1.01376e-06
4.22411e-07
1.88368e-06
-1.00691e-07
9.25468e-07
2.02856e-06
1.93013e-06
-7.05794e-06
-1.9366e-06
3.43971e-06
3.81251e-07
6.59815e-06
-6.37238e-07
2.11582e-09
-8.73975e-09
6.41547e-07
-9.80639e-06
-2.31305e-07
-9.78796e-08
1.01337e-05
-9.50083e-07
-5.12057e-05
3.38474e-07
8.94891e-07
1.11257e-07
5.08112e-05
-5.14115e-06
9.66319e-08
0.000236494
-1.183e-06
-7.44329e-07
8.67513e-07
1.33392e-06
-1.02815e-05
6.78674e-07
0.000205924
-9.3974e-08
2.20767e-07
0.000120366
2.27326e-07
4.65789e-07
7.12956e-07
-4.39331e-07
1.3746e-06
-6.1206e-07
3.91579e-06
7.82014e-08
5.57688e-07
5.55134e-07
-5.20079e-06
1.35071e-09
-3.38378e-07
-1.43635e-10
9.15559e-09
3.24456e-07
-2.23699e-05
-6.54421e-07
1.07176e-06
5.82329e-07
2.15562e-05
-1.85951e-07
-3.8675e-06
4.90241e-07
0.000199933
-4.95546e-07
7.08468e-07
1.16967e-06
1.22313e-06
-1.21239e-06
1.03527e-06
-7.66304e-07
-2.31309e-06
-4.28763e-07
0.000201111
-5.8296e-07
-7.58963e-07
1.77243e-07
8.67575e-07
-7.16381e-08
1.07401e-06
-4.1117e-05
-1.06629e-06
3.39115e-08
4.00571e-05
1.59203e-06
1.48925e-06
-1.35864e-06
-1.7235e-06
-8.29549e-07
4.67583e-07
-8.79451e-07
1.73121e-06
-4.6248e-05
8.00635e-07
-1.74234e-06
1.16452e-06
4.55964e-05
-9.56164e-06
4.99687e-08
8.66867e-07
8.64514e-06
-1.51056e-05
6.51822e-08
-3.11271e-07
1.53507e-05
4.01159e-06
7.73255e-08
7.14807e-08
-4.15832e-06
7.79854e-07
7.12666e-07
-5.21554e-05
-9.38845e-07
-1.5085e-06
5.31103e-05
-2.95599e-08
-4.92472e-05
1.16461e-06
-4.6541e-07
-5.84554e-07
4.91622e-05
-3.29617e-05
-2.6443e-07
1.21298e-06
-6.51715e-08
3.20498e-05
2.8475e-08
3.97584e-07
-5.70367e-07
-5.10852e-05
1.43534e-07
-5.16725e-08
5.11661e-05
-6.61321e-06
3.49241e-07
0.000246105
4.28552e-07
-1.18055e-06
8.13046e-07
5.01869e-07
6.84209e-07
1.15182e-07
9.93045e-07
1.77772e-06
-3.94705e-06
7.17021e-07
0.000197391
-4.09076e-07
-3.21014e-07
1.31234e-06
1.66064e-06
2.18477e-06
-9.74601e-07
0.000110157
8.32074e-07
-5.19639e-09
1.83892e-06
2.4605e-07
1.34154e-06
2.44376e-06
1.81842e-06
-6.25316e-06
-6.96144e-07
6.15915e-06
-3.63296e-08
3.01125e-06
-3.50567e-06
2.0572e-06
-5.92068e-06
2.93422e-06
-1.30988e-07
4.56592e-06
-1.06462e-05
-3.42076e-07
-1.714e-07
1.11596e-05
-6.65947e-07
-5.08343e-05
2.11345e-07
6.16448e-07
5.28707e-08
5.06196e-05
-4.22105e-06
7.38738e-07
0.000238459
-9.23929e-07
-2.96329e-07
1.30903e-06
1.77762e-06
-9.6077e-06
9.08471e-07
0.000211119
2.34013e-07
4.24114e-08
0.000106458
8.54938e-07
6.13591e-08
1.62128e-06
-6.28135e-07
1.38054e-06
-2.40266e-07
8.03466e-06
3.20831e-07
2.32311e-06
-6.77283e-07
-9.76731e-06
-1.85513e-06
-5.60179e-07
-3.0935e-06
1.52404e-06
8.86191e-07
3.09857e-06
-2.12742e-05
-4.46245e-08
5.08703e-07
-4.69486e-08
2.0821e-05
3.60787e-08
-3.1169e-06
5.58142e-07
0.00019931
-1.79848e-07
1.09893e-06
1.54441e-06
1.4089e-06
-7.17029e-07
9.1615e-07
-1.50464e-07
-1.79937e-06
-4.03769e-07
0.000198358
4.21957e-07
-4.58206e-07
8.89637e-07
9.19384e-07
-1.10905e-07
1.08567e-06
-4.11499e-05
-3.40887e-07
-3.40725e-07
4.00745e-05
1.77638e-06
1.1957e-06
-1.82946e-06
2.11964e-06
-3.2708e-06
-2.10879e-06
-2.10665e-06
1.1482e-06
3.06724e-06
-2.6077e-06
7.58731e-07
-2.18669e-07
2.62663e-06
-4.50953e-05
2.37407e-07
-9.64483e-07
6.86564e-07
4.4732e-05
-7.61087e-06
5.88605e-07
1.71793e-07
6.85131e-06
-1.57486e-05
-1.0637e-07
-2.78858e-07
1.61338e-05
3.95026e-06
-3.56495e-07
-2.79347e-07
-3.31251e-06
1.46095e-06
8.34619e-07
-5.4103e-05
-1.04894e-06
-1.65609e-06
5.45125e-05
2.02831e-07
-4.91359e-05
1.08599e-06
-2.95809e-07
-6.96989e-07
4.88399e-05
-3.13061e-05
-2.24873e-07
8.28364e-07
-2.06814e-08
3.08195e-05
-9.61337e-08
3.51013e-07
-4.70788e-07
-5.14564e-05
-3.1759e-07
-2.99795e-07
5.21935e-05
-6.13204e-06
-3.58008e-07
0.000245237
1.07525e-06
-8.8376e-07
1.26344e-06
1.02818e-06
8.77642e-07
4.18439e-07
1.28467e-06
2.29463e-06
-2.21546e-06
1.28501e-06
0.000189961
-3.88054e-07
-3.8935e-07
1.43031e-06
1.57558e-06
2.3313e-06
-7.858e-07
0.000100215
8.01678e-07
1.2832e-07
1.89042e-06
4.90205e-07
1.09112e-06
1.51136e-06
2.67854e-07
-2.68363e-06
6.83483e-08
1.95482e-06
-3.89365e-07
3.38113e-06
-5.31732e-06
-1.23578e-06
-1.12258e-06
6.13166e-07
1.27558e-06
5.78693e-06
-1.16591e-05
-1.56845e-07
-2.70898e-07
1.20868e-05
-5.10911e-07
-5.07531e-05
5.27789e-07
2.65617e-07
-7.29443e-08
5.05435e-05
-3.93803e-06
2.0938e-07
0.000239253
-5.91028e-07
-1.09425e-07
1.34706e-06
1.9304e-06
-6.73912e-06
6.36604e-07
0.000214569
-7.14611e-07
2.67815e-08
9.64177e-05
1.68066e-06
-1.3352e-06
7.96422e-07
-6.86964e-08
1.27415e-06
8.55922e-07
1.0265e-05
-2.5363e-07
-1.84161e-06
3.63262e-07
-9.24761e-06
-4.21462e-06
-1.61622e-07
2.36471e-06
-1.43906e-06
-1.34592e-06
4.79652e-06
-2.09481e-05
-4.40744e-09
2.10392e-07
-6.10976e-07
2.11013e-05
2.51807e-07
-2.2389e-06
1.75753e-07
0.000197596
-7.4698e-08
1.0577e-06
1.58778e-06
1.19775e-06
-3.79637e-07
4.98922e-07
9.80656e-08
-1.69348e-06
-5.87692e-07
0.000195536
7.89261e-07
-6.25863e-08
9.29413e-07
1.00379e-06
-2.33638e-07
1.07538e-06
-4.10863e-05
3.29227e-07
-4.46789e-08
3.9135e-05
3.9297e-06
-3.40891e-07
-6.13184e-07
2.90768e-07
-3.26017e-06
-3.94643e-06
5.12728e-07
-7.06267e-07
4.54863e-07
3.68511e-06
-2.52413e-06
2.73193e-07
7.38103e-07
1.6889e-06
-4.53776e-05
-3.90927e-07
-5.36099e-07
-1.30895e-07
4.58479e-05
-6.64448e-06
1.09949e-07
-3.1791e-07
6.85155e-06
-1.64524e-05
1.30505e-07
-4.4363e-07
1.67655e-05
2.31581e-06
-4.18921e-07
-5.16938e-07
-1.38022e-06
5.3643e-07
6.52149e-07
-5.49548e-05
-9.95386e-07
-7.36177e-07
5.54978e-05
1.0079e-07
-4.91657e-05
1.15941e-06
-6.06023e-07
-7.76756e-07
4.92883e-05
-3.07367e-05
-9.69238e-08
-2.62308e-08
-8.89498e-08
3.04821e-05
4.66748e-07
3.91806e-07
1.42806e-07
-5.30897e-05
-8.53628e-07
-3.33266e-07
5.3742e-05
-7.24596e-06
-2.03522e-06
0.0002451
1.03299e-06
-5.98332e-07
1.42396e-06
1.31526e-06
1.18498e-06
8.63043e-07
1.54189e-06
2.65455e-06
-6.23678e-06
8.40149e-08
0.000185941
-2.14041e-07
-1.02614e-07
1.60041e-06
1.64319e-06
-1.29656e-07
-1.70005e-07
0.000101123
1.11724e-06
9.64442e-07
1.96417e-06
8.59728e-07
-2.79974e-06
-4.24168e-06
-4.70935e-06
-6.72649e-06
1.10508e-06
-1.68307e-06
-3.82358e-07
7.55718e-06
-6.57332e-06
3.7499e-06
-2.25071e-06
1.07982e-06
3.99431e-06
-1.24192e-05
5.39992e-07
-6.97491e-07
1.25762e-05
-4.04856e-07
-5.07038e-05
6.44953e-07
6.19491e-08
-2.2843e-07
5.06301e-05
-4.76981e-06
5.05536e-07
0.000237814
-3.82837e-07
1.57545e-07
1.65701e-06
2.23655e-06
-9.39046e-06
8.89164e-07
0.000218384
-3.25081e-06
4.67779e-07
9.58175e-05
-9.36446e-07
-4.03748e-06
-4.64174e-06
9.03127e-07
1.69658e-06
8.38703e-07
6.93387e-06
-1.48109e-07
-5.41435e-06
1.31631e-07
-4.75386e-06
-4.35445e-06
2.84122e-07
6.09067e-06
-3.601e-06
-1.75695e-06
3.33762e-06
-2.16669e-05
-2.07548e-07
-1.34446e-07
-1.76651e-07
2.1961e-05
2.24474e-07
-2.63869e-06
-3.14742e-07
0.000196737
1.52523e-07
1.08402e-06
1.562e-06
1.28852e-06
-1.23668e-07
2.47957e-07
1.07114e-07
-1.5839e-06
-5.50757e-07
0.000193204
5.573e-07
-1.25631e-07
5.62042e-07
9.38188e-07
-2.75029e-07
1.05979e-06
-3.91872e-05
2.79106e-07
4.66783e-07
3.73252e-05
1.61505e-06
-4.43101e-07
-3.793e-07
-7.79623e-07
-7.77734e-07
1.89019e-07
1.0356e-06
-7.6129e-07
-4.67701e-05
-7.52771e-07
-1.12708e-07
-4.69811e-07
4.75547e-05
-7.42981e-06
-1.99361e-07
-2.60486e-07
7.89e-06
-1.70358e-05
2.73361e-07
-5.49685e-07
1.73121e-05
7.69138e-07
-1.36301e-07
-1.11451e-07
-5.21506e-07
8.46472e-07
6.24154e-07
-5.61025e-05
-8.34648e-07
-9.48391e-07
5.6415e-05
3.96604e-07
-4.96875e-05
1.11122e-06
-6.20614e-07
-1.08648e-06
4.98867e-05
-3.04162e-05
-1.84425e-07
-5.93994e-08
-4.57831e-07
3.05898e-05
5.28048e-07
1.96206e-07
8.01814e-07
-5.45343e-05
-1.71271e-06
-4.23207e-07
5.56722e-05
-6.63165e-06
-2.38373e-06
0.000245318
7.29346e-07
-2.46282e-07
8.3336e-07
1.42411e-06
1.20879e-06
8.81545e-07
1.49549e-06
2.47091e-06
-8.71542e-06
2.88765e-07
0.000185447
-3.22393e-07
-3.43348e-07
1.39162e-06
1.56348e-06
-4.64234e-06
-5.13438e-07
0.00010366
9.1235e-07
6.65537e-07
2.10936e-06
1.04426e-06
-4.79126e-06
-3.09413e-06
-2.94236e-06
-1.15445e-05
-2.96802e-07
-2.29054e-06
9.49039e-06
-1.24723e-05
6.81485e-07
-4.1497e-07
1.2204e-05
1.07188e-07
-5.07836e-05
5.47992e-07
-5.87404e-07
-1.18495e-07
5.08343e-05
-5.05601e-06
6.79285e-07
0.000235196
-6.38895e-08
3.48962e-07
2.013e-06
2.31227e-06
-9.70439e-06
6.56298e-08
0.000223256
-2.5317e-06
4.34641e-07
9.42462e-05
-4.60431e-06
-1.58429e-06
-2.76724e-06
1.96264e-07
1.65451e-06
5.55553e-07
1.60093e-06
-1.20877e-07
-1.66016e-06
2.07078e-06
-4.42237e-06
-2.28e-05
1.14403e-07
-1.36072e-06
-1.60555e-07
2.42775e-05
-7.06589e-08
-2.85454e-06
-2.7159e-07
0.000195176
4.08657e-07
1.09462e-06
1.83354e-06
1.49773e-06
-8.65332e-08
3.36083e-07
2.81703e-07
-1.29142e-06
-5.52527e-07
0.000189737
2.76367e-07
2.40725e-07
4.28755e-07
7.91617e-07
-2.14869e-07
1.0001e-06
-3.78919e-05
-3.55309e-08
5.42589e-07
3.65281e-05
-3.76615e-08
2.86819e-07
-2.83086e-07
3.52172e-08
1.59109e-06
8.26607e-09
3.74481e-07
-2.24498e-06
-4.87164e-05
-7.06771e-07
1.56916e-07
-6.72879e-07
4.93866e-05
-8.38585e-06
-1.37933e-07
-1.37066e-07
8.66103e-06
-1.75033e-05
2.00376e-07
-2.58082e-07
1.7561e-05
1.41714e-07
-8.28762e-07
1.78067e-07
5.07496e-07
1.34414e-06
3.70392e-07
-5.67396e-05
-3.86314e-07
-1.27948e-06
5.66908e-05
4.12091e-07
-5.04909e-05
6.71339e-07
-6.17499e-07
-1.09565e-06
5.11206e-05
-3.09693e-05
1.76133e-07
-3.36655e-07
-5.75969e-07
3.10603e-05
6.45431e-07
5.68198e-08
1.96108e-06
-5.67438e-05
-2.00115e-06
-1.22379e-07
5.68494e-05
-5.03907e-06
-1.11584e-06
0.000243149
4.06013e-07
-3.14932e-07
6.03226e-07
1.36959e-06
1.45654e-06
7.79284e-07
1.63106e-06
2.39284e-06
-7.26246e-06
-2.07397e-09
0.000185516
-3.3708e-07
-3.49848e-07
1.38237e-06
1.46064e-06
-2.59379e-06
-8.99623e-07
0.000100866
8.78726e-07
5.25337e-07
1.9081e-06
5.1808e-07
-2.08252e-06
-1.59044e-06
-1.13241e-06
-8.10889e-06
-1.65901e-07
-1.0752e-06
6.75666e-06
-1.20155e-05
4.27774e-07
-2.25027e-07
1.18128e-05
2.25009e-07
-5.16379e-05
2.71172e-07
-1.04688e-06
-1.5322e-07
5.23418e-05
-4.97073e-06
1.34666e-07
0.000234108
1.41201e-07
3.88931e-07
2.03721e-06
2.24093e-06
-7.40253e-06
-7.9268e-07
0.000226478
-1.14264e-06
1.53637e-07
9.01491e-05
-2.20879e-06
-6.88407e-07
-1.176e-06
-2.55332e-07
1.23992e-06
-1.27362e-07
6.99237e-06
1.73728e-07
-1.96908e-07
6.32276e-07
-8.74411e-06
-2.63131e-05
2.76726e-07
-1.43756e-06
-5.53772e-07
2.79222e-05
1.05532e-07
-2.64106e-06
-1.85731e-07
0.00019285
6.3062e-07
9.68961e-07
2.07272e-06
1.05787e-06
-8.96751e-08
4.45118e-07
2.02158e-07
-1.07318e-06
-6.3182e-07
0.000186138
1.54633e-07
4.13087e-07
4.20552e-07
6.0902e-07
-3.01274e-07
5.73754e-07
-3.79391e-05
6.22e-08
4.75098e-09
3.69526e-05
-1.84667e-07
5.68941e-07
-6.2237e-07
2.39084e-07
2.3159e-06
-5.03408e-08
4.55626e-08
-2.49659e-06
-5.03804e-05
-4.55042e-07
2.4496e-08
-6.46835e-07
5.08259e-05
-8.64393e-06
3.13809e-07
-1.12497e-08
8.34165e-06
-1.75908e-05
1.96692e-07
-2.75616e-07
1.76696e-05
-1.05963e-06
-3.3036e-07
1.30875e-07
1.25913e-06
1.21225e-06
1.90491e-07
-5.63423e-05
-1.54698e-07
-9.31534e-07
5.60258e-05
5.39759e-07
-5.2026e-05
3.59331e-07
-2.90663e-07
-9.80176e-07
5.23978e-05
-3.09116e-05
5.11244e-07
2.05309e-07
-5.63202e-07
3.02631e-05
4.95137e-07
-3.57806e-07
1.11559e-06
-5.69413e-05
-1.24394e-06
5.30856e-08
5.73744e-05
-3.47912e-06
-3.35687e-07
0.000238817
4.61564e-07
-2.36543e-07
7.63235e-07
1.56353e-06
1.23093e-06
6.72381e-07
1.44299e-06
2.24872e-06
-5.48564e-06
-3.02683e-07
0.000185926
-4.79838e-07
-3.25615e-07
1.1921e-06
1.51304e-06
-1.62964e-06
-1.5944e-06
9.98188e-05
5.78873e-07
1.31018e-07
1.62611e-06
2.07298e-07
-1.69844e-06
-1.19173e-06
-8.67614e-07
-6.02755e-06
-5.20287e-07
-3.25536e-07
5.24399e-06
-1.17654e-05
1.17057e-07
-3.30818e-07
1.19792e-05
5.49094e-07
-5.30887e-05
8.155e-08
-1.08435e-06
1.59672e-07
5.33828e-05
-5.01323e-06
-2.50414e-07
0.000234842
3.33028e-08
2.67678e-07
1.82682e-06
2.06602e-06
-6.51582e-06
-9.57105e-07
0.000228635
-7.17787e-07
-3.0825e-07
8.58041e-05
-1.25852e-06
-5.10399e-07
-6.904e-07
-5.88671e-07
8.39338e-07
-5.30533e-07
9.38232e-06
4.32342e-07
3.2915e-07
-8.428e-07
-1.00188e-05
-2.90894e-05
7.39219e-07
-9.20609e-07
-5.18418e-07
2.96452e-05
1.44042e-07
-2.52587e-06
-8.56749e-08
0.000190836
5.33589e-07
7.53309e-07
1.87667e-06
8.21035e-07
-1.63531e-07
4.60254e-07
9.34832e-08
-9.88402e-07
-5.63453e-07
0.000182667
1.40131e-07
4.33114e-07
3.36452e-07
4.41398e-07
-2.63013e-07
4.51407e-07
-3.83537e-05
7.42356e-08
-3.21014e-07
3.73038e-05
-4.87175e-08
7.7045e-07
-3.40471e-07
-3.80378e-07
2.19585e-06
-1.11075e-07
1.02759e-07
-2.27317e-06
-5.14993e-05
-2.32696e-07
-1.39433e-07
-6.28127e-07
5.19361e-05
-8.09036e-06
4.04299e-07
-1.36141e-07
7.82318e-06
-1.77816e-05
3.60711e-08
-1.21832e-07
1.78674e-05
-9.88984e-07
3.98328e-07
1.11233e-07
4.8044e-07
9.86337e-07
6.00564e-08
-5.6083e-05
-1.46783e-07
-7.7571e-07
5.59591e-05
7.9913e-07
-5.2814e-05
1.60582e-07
-1.2904e-07
-1.03925e-06
5.30226e-05
-2.9916e-05
5.22432e-07
1.53349e-07
-5.71559e-07
2.97657e-05
4.61396e-08
-2.32497e-07
9.61688e-07
-5.79514e-05
-1.07689e-06
4.48777e-08
5.82542e-05
-1.12307e-06
4.43808e-07
0.000230954
5.60431e-07
-2.1213e-07
1.05876e-06
1.58379e-06
1.13166e-06
6.41567e-07
1.41985e-06
2.35816e-06
-2.37466e-06
-4.75353e-07
0.000185561
-4.9811e-07
-2.6355e-07
1.27721e-06
1.57599e-06
-9.73589e-07
-2.129e-06
0.000100626
4.72871e-07
-1.36066e-07
1.5891e-06
-1.5665e-08
-1.01429e-06
-4.89975e-07
-4.85408e-07
-4.51976e-06
-4.64533e-07
7.71136e-08
3.93378e-06
-1.22995e-05
-4.40226e-08
-1.86573e-07
1.25301e-05
4.37162e-07
-5.40559e-05
-1.68644e-09
-9.32542e-07
1.20111e-07
5.44329e-05
-4.43275e-06
2.15538e-07
0.000235854
-1.61061e-07
1.12428e-07
1.74159e-06
1.95691e-06
-5.31347e-06
-1.08262e-06
0.000230123
-5.43218e-07
-7.16588e-07
8.23689e-05
-7.71719e-07
-4.31971e-07
-2.66922e-07
-8.55953e-07
3.81754e-07
-8.02708e-07
1.03942e-05
3.32891e-07
2.34637e-07
-6.82526e-07
-1.08224e-05
-2.99275e-05
1.10399e-06
-8.9766e-07
-3.53578e-07
2.98449e-05
2.2988e-07
-2.54185e-06
2.22996e-07
0.000188786
3.10168e-07
7.79919e-07
1.64009e-06
9.28381e-07
-7.80374e-08
7.55779e-07
2.4858e-07
-8.24627e-07
-5.02377e-07
0.000178328
1.96685e-07
7.26403e-07
5.19695e-07
3.78247e-07
-2.06781e-07
4.28069e-07
-3.86908e-05
1.61735e-07
-6.56561e-07
3.76444e-05
4.93639e-07
7.65868e-07
-7.85409e-07
-4.73884e-07
1.97445e-06
-2.9541e-07
5.09378e-08
-1.50804e-06
-5.25214e-05
5.63949e-08
-2.33989e-07
-4.04223e-07
5.26008e-05
-7.58205e-06
4.72022e-07
-3.14618e-07
7.42518e-06
-1.80227e-05
-1.18473e-07
-5.44036e-08
1.81956e-05
-2.05609e-08
1.5037e-07
8.92671e-08
-2.16363e-07
1.0119e-06
2.04783e-07
-5.59189e-05
-1.60125e-07
-7.15589e-07
5.5578e-05
8.35922e-07
-5.31853e-05
-1.85631e-08
2.30166e-07
-7.84395e-07
5.29221e-05
-3.01772e-05
6.93775e-08
2.70946e-07
-4.65534e-07
3.06608e-05
-3.58404e-07
-1.71728e-07
1.04249e-06
-5.85025e-05
-1.25932e-06
1.62969e-07
5.87281e-05
-3.42278e-07
1.06095e-06
0.000223067
3.49191e-07
-2.01005e-07
6.13727e-07
1.35288e-06
1.08649e-06
5.42093e-07
1.33735e-06
2.0878e-06
-4.09489e-07
-4.22235e-07
0.000184102
-5.63607e-07
-3.02957e-07
1.21603e-06
1.59957e-06
-3.85702e-07
-1.89002e-06
0.000101457
3.93135e-07
-3.46351e-07
1.49327e-06
-1.83081e-08
-6.49968e-07
1.11749e-07
5.15137e-08
-3.78868e-06
-4.00514e-07
-1.38761e-07
3.94248e-06
-1.26823e-05
-1.13288e-07
-1.16639e-07
1.29122e-05
7.10006e-07
-5.50073e-05
-9.69547e-08
-7.99686e-07
7.06799e-08
5.51233e-05
-3.22853e-06
3.51974e-07
0.000236111
-1.84772e-07
-4.22695e-08
1.86808e-06
2.03882e-06
-4.27364e-06
-1.52696e-06
0.000232273
-4.56247e-07
-9.71315e-07
8.04457e-05
-6.09908e-07
-2.54577e-07
-1.10849e-07
-1.0556e-06
1.76305e-07
-9.5824e-07
1.11115e-05
4.4545e-07
2.16649e-07
-5.25113e-07
-1.17048e-05
-3.01881e-05
1.2419e-06
-1.51211e-06
-3.72267e-07
3.07059e-05
1.24604e-07
-1.27687e-06
5.2124e-07
0.000184575
2.88215e-07
8.06957e-07
1.70531e-06
1.01876e-06
1.08186e-07
1.02528e-06
3.66115e-07
-3.24091e-07
-3.26211e-07
0.00017229
5.72859e-07
1.36146e-06
8.55108e-07
5.08824e-07
-3.80266e-08
6.23597e-07
-3.88683e-05
4.20377e-07
-7.4569e-07
3.78982e-05
6.03508e-07
8.40514e-07
-6.10534e-07
-8.31552e-07
4.16842e-07
-6.06972e-07
-3.14564e-09
7.14567e-07
-5.27689e-05
1.58175e-07
-1.97187e-07
-1.96646e-07
5.26783e-05
-7.21112e-06
7.11964e-07
-3.68033e-07
6.86632e-06
-1.83116e-05
-2.41352e-07
1.10225e-07
1.84427e-05
1.49713e-07
-2.95455e-07
1.46681e-07
-4.56182e-10
7.81089e-07
2.59354e-07
-5.53408e-05
9.41663e-09
-9.04995e-07
5.5196e-05
5.9224e-07
-5.30337e-05
-3.81971e-07
4.62815e-07
-7.89249e-07
5.31499e-05
-3.13477e-05
-5.11756e-07
8.99367e-07
-1.55403e-07
3.19301e-05
-8.1462e-07
-1.79624e-07
7.64904e-07
-5.89847e-05
-9.61419e-07
1.14364e-07
5.92465e-05
5.86475e-07
2.91136e-07
0.000216394
2.3198e-07
4.86056e-08
4.3796e-07
1.40104e-06
8.25209e-07
2.96225e-07
8.71422e-07
1.68327e-06
6.50622e-07
-2.59647e-07
0.000182913
-6.76984e-07
-3.54758e-07
9.74865e-07
1.44098e-06
-7.75336e-08
-1.2535e-06
0.000101676
2.14674e-07
-1.95453e-07
1.34937e-06
-2.17766e-08
-2.78923e-07
2.59965e-07
4.34846e-07
-4.47495e-06
-4.28434e-07
3.54469e-09
4.82251e-06
-1.31732e-05
-3.79524e-07
1.63951e-07
1.33887e-05
6.09754e-07
-5.54676e-05
-1.83462e-07
-8.17445e-07
1.04121e-07
5.57546e-05
-2.01298e-06
5.83222e-07
0.000233919
-1.89294e-07
-3.84354e-08
2.04497e-06
2.0962e-06
-3.2659e-06
-1.79441e-06
0.000235061
-3.42114e-07
-1.15828e-06
7.99523e-05
-4.65086e-07
-2.13983e-07
7.84978e-08
-1.03421e-06
-2.70048e-08
-8.63791e-07
1.21673e-05
3.09987e-07
2.20281e-07
-2.35341e-07
-1.28044e-05
-3.16827e-05
1.28645e-06
-1.60938e-06
-3.73888e-07
3.22657e-05
1.13805e-07
4.58683e-08
3.73386e-07
0.000179389
4.62499e-07
7.48194e-07
1.78042e-06
8.79944e-07
2.43573e-07
7.57273e-07
4.78002e-07
5.13162e-08
-3.44058e-07
0.00016653
8.20897e-07
1.64574e-06
1.03272e-06
4.85339e-07
-1.39792e-07
4.59178e-07
-3.95227e-05
6.26878e-07
-1.00975e-06
3.87986e-05
1.07577e-06
5.81668e-07
-3.36247e-07
-1.31989e-06
-1.79591e-06
8.15662e-08
1.09823e-07
1.97603e-06
-5.30751e-05
-2.30715e-08
1.37277e-08
-4.59487e-07
5.31999e-05
-6.80656e-06
6.3503e-07
-5.99749e-07
6.77136e-06
-1.84443e-05
-5.42206e-07
5.19811e-07
1.84667e-05
-9.51055e-08
-2.23479e-07
1.31267e-07
1.87815e-07
3.15239e-07
3.19935e-08
-5.54754e-05
1.36456e-07
-6.92659e-07
5.56844e-05
4.32756e-07
-5.34444e-05
-2.79518e-07
4.87778e-07
-5.99918e-07
5.34033e-05
-3.26575e-05
-8.35714e-07
1.49946e-06
9.78854e-08
3.29251e-05
-1.02918e-06
-2.15148e-07
5.58487e-07
-5.95987e-05
-9.29849e-07
1.25672e-07
6.00596e-05
1.10303e-06
1.38595e-07
0.000210827
5.81783e-08
-1.45281e-07
5.66425e-08
9.76171e-07
5.92531e-07
2.7918e-07
7.21646e-07
1.78641e-06
5.27275e-07
2.09988e-08
0.00018294
-9.45404e-07
-5.38996e-07
7.55584e-07
1.25656e-06
8.80771e-09
-9.29008e-07
0.000101757
2.03747e-09
-2.57617e-07
1.07885e-06
7.62387e-08
-1.65163e-07
2.83991e-07
3.48916e-07
-5.10741e-06
-5.9111e-07
4.9688e-07
5.21051e-06
-1.36599e-05
-4.76541e-07
1.35914e-07
1.40005e-05
7.79968e-07
-5.63296e-05
-9.3582e-08
-8.83976e-07
3.22679e-08
5.6495e-05
-4.43882e-07
1.15808e-06
0.000229679
-1.75415e-07
-5.29173e-08
1.99812e-06
1.89433e-06
-1.62744e-06
-1.8065e-06
0.000238072
-2.53999e-07
-1.25551e-06
8.11689e-05
-3.67669e-07
-2.10766e-07
1.86765e-07
-9.6151e-07
-8.71327e-08
-8.23317e-07
1.30089e-05
2.03923e-08
1.10192e-10
-8.78857e-08
-1.31955e-05
-3.24531e-05
1.06919e-06
-9.08164e-07
6.85149e-08
3.21682e-05
5.53823e-08
9.03012e-07
3.147e-07
0.0001748
3.14908e-07
5.57096e-07
1.54199e-06
5.93654e-07
3.80035e-07
5.89217e-07
5.52138e-07
2.44232e-07
-5.21639e-07
0.000162365